G6NPNcore-PETIM in water
176963
    1aaa     O1    1   3.607   4.887   0.388 -0.4339  0.1429 -0.0467
    1aaa     C1    2   3.667   4.859   0.261  0.6026  0.2672  0.6986
    1aaa     H1    3   3.645   4.932   0.182  1.1693  0.2124  0.4873
    1aaa     H2    4   3.624   4.766   0.223 -0.0312  0.4242  1.0056
    1aaa     C2    5   3.599   5.024   0.422  0.0126 -0.4743  0.0399
    1aaa     H3    6   3.680   5.082   0.378 -0.5810  1.0919  0.9349
    1aaa     H4    7   3.599   5.031   0.532  0.8830 -2.0247  0.1624
    1aaa     C3    8   3.822   4.852   0.285 -0.3504 -0.2527  0.0304
    1aaa     H5    9   3.845   4.810   0.384  0.0290  1.7889  0.8621
    1aaa     H6   10   3.877   4.947   0.278  0.7918 -0.9261 -0.4436
    1aaa     C4   11   3.469   5.077   0.378  0.4251 -0.3324  0.2211
    1aaa     H7   12   3.385   5.010   0.399 -2.2064  2.3341 -0.9520
    1aaa     H8   13   3.471   5.087   0.269 -0.0984 -0.4879  0.1904
    1aaa     C5   14   3.879   4.747   0.185  0.4831  0.3713 -0.0963
    1aaa     H9   15   3.829   4.650   0.198 -0.8155  0.1622 -4.6568
    1aaa    H10   16   3.864   4.777   0.080 -0.4279 -1.0176 -0.3927
    1aaa     C6   17   3.441   5.221   0.432  0.1749  0.0485  0.7557
    1aaa    H11   18   3.536   5.272   0.414 -0.3096  0.7334  0.0773
    1aaa    H12   19   3.424   5.216   0.540  0.3867 -1.9304  0.7404
    1aaa     N1   20   4.022   4.738   0.204  0.8970 -0.2638  0.3554
    1aaa     N2   21   3.325   5.285   0.368 -0.1974 -0.6400  0.4583
    1aaa     C7   22   3.195   5.226   0.400  0.4626  0.5763  0.0867
    1aaa    H13   23   3.117   5.269   0.335 -0.5240 -1.0859  0.0959
    1aaa    H14   24   3.200   5.118   0.378  0.4480  0.9423 -1.9244
    1aaa     C8   25   3.346   5.299   0.221  0.3644 -0.2519  0.5868
    1aaa    H15   26   3.450   5.331   0.206  0.4579 -1.7980 -3.1760
    1aaa    H16   27   3.327   5.202   0.173 -1.7722  0.3981  0.0432
    1aaa     C9   28   4.115   4.842   0.160  0.2846 -0.5507 -0.2905
    1aaa    H17   29   4.127   4.922   0.234  1.1503 -0.3888 -0.5880
    1aaa    H18   30   4.217   4.802   0.151 -0.5970 -2.5490 -2.9019
    1aaa    C10   31   4.064   4.669   0.329  0.1684  0.4598 -0.2229
    1aaa    H19   32   4.097   4.742   0.404 -0.6559  0.2816  0.3218
    1aaa    H20   33   3.975   4.618   0.368 -0.4304  1.7581  0.1624
    1aaa    C11   34   3.147   5.249   0.547 -0.2553 -0.1790 -0.2866
    1aaa    H21   35   3.212   5.187   0.610  0.8150 -1.3197 -2.4145
    1aaa    H22   36   3.174   5.355   0.561 -0.4027 -0.0249 -1.1261
    1aaa    C12   37   3.256   5.408   0.151 -0.5488  0.4438 -0.6329
    1aaa    H23   38   3.153   5.382   0.178 -0.4320  2.2787  1.9669
    1aaa    H24   39   3.268   5.502   0.207 -0.7177 -1.0497  2.0807
    1aaa    C13   40   4.077   4.917   0.029  0.2368 -0.0023  0.2385
    1aaa    H25   41   4.096   4.848  -0.054 -1.4332 -1.2724  0.8578
    1aaa    H26   42   3.970   4.936   0.034  0.2049  0.2165 -0.9533
    1aaa    C14   43   4.181   4.567   0.311  0.7558 -0.2414  0.4346
    1aaa    H27   44   4.132   4.478   0.272  0.8682  0.0276 -0.3374
    1aaa    H28   45   4.258   4.602   0.241  0.3727  0.8481  0.5296
    1aaa    C15   46   4.245   4.537   0.451  0.3955 -0.3878  0.5688
    1aaa    H29   47   4.171   4.497   0.521 -0.9809  0.5509 -0.2934
    1aaa    H30   48   4.327   4.465   0.439  1.3516  1.0347 -3.0269
    1aaa    C16   49   4.161   5.045   0.015 -0.3825 -0.3803  0.2417
    1aaa    H31   50   4.262   5.037   0.059  0.1818  0.3297 -0.8670
    1aaa    H32   51   4.179   5.064  -0.092  0.1757  1.3105  0.5989
    1aaa    C17   52   3.281   5.428   0.002  0.1277 -0.6504  0.4723
    1aaa    H33   53   3.375   5.483  -0.015 -1.6563  2.9394  1.2755
    1aaa    H34   54   3.276   5.331  -0.049 -4.6164 -0.7580  0.7332
    1aaa    C18   55   2.999   5.222   0.572  1.1685  0.1539  0.5304
    1aaa    H35   56   2.938   5.270   0.495  0.4744 -0.8953  0.4018
    1aaa    H36   57   2.978   5.114   0.577 -2.3651  0.7073  0.1391
    2bbb     N1   58   4.650   4.986   0.350 -0.1716  0.0128  0.0279
    2bbb     C1   59   4.801   5.007   0.337 -0.2628  0.0968  0.6617
    2bbb     H1   60   4.833   4.975   0.237 -1.5431  1.0329 -0.0854
    2bbb     H2   61   4.842   4.942   0.415 -1.0083  0.1739  1.1313
    2bbb     C2   62   4.561   5.087   0.280  0.1494  0.9277 -0.1315
    2bbb     H3   63   4.577   5.191   0.311 -1.1582  1.8060 -2.2031
    2bbb     H4   64   4.456   5.071   0.311  0.1116  1.7159  0.1571
    2bbb     C3   65   4.603   4.845   0.346  0.4579  0.7442 -0.3218
    2bbb     H5   66   4.673   4.789   0.409 -2.4266 -1.8133  0.8270
    2bbb     H6   67   4.615   4.812   0.242  0.7594  0.8726 -0.3287
    2bbb     C4   68   4.460   4.819   0.406  0.3728 -0.4400 -0.0915
    2bbb     H7   69   4.379   4.844   0.336  1.3681  2.5154 -0.3214
    2bbb     H8   70   4.445   4.897   0.482  0.9575  0.5990 -1.0217
    2bbb     C5   71   4.852   5.155   0.367 -0.2521  0.5631  0.4667
    2bbb     H9   72   4.815   5.186   0.466 -0.5777  0.8414  0.2613
    2bbb    H10   73   4.806   5.233   0.305 -3.2824  0.2534  2.0821
    2bbb     C6   74   4.584   5.085   0.127 -0.3382 -1.0357 -0.1414
    2bbb    H11   75   4.552   4.986   0.090 -1.8644 -0.6078 -0.0295
    2bbb    H12   76   4.690   5.110   0.117 -0.3724  0.1961  2.0237
    2bbb     C7   77   4.448   4.672   0.450 -0.2673 -0.2833  0.2008
    2bbb    H13   78   4.528   4.637   0.516 -0.7277 -4.4576 -1.1448
    2bbb    H14   79   4.455   4.605   0.363  1.3218  1.0653 -0.7850
    2bbb     C8   80   4.517   5.203   0.056 -0.0675  0.4381 -0.3323
    2bbb    H15   81   4.578   5.290   0.084  0.5829 -0.6386  1.7512
    2bbb    H16   82   4.414   5.222   0.091  0.3732 -0.3421  1.5045
    2bbb     C9   83   5.002   5.157   0.373  0.4362 -0.0760  0.1678
    2bbb    H17   84   5.037   5.055   0.392  3.9623  0.5792 -1.8627
    2bbb    H18   85   5.036   5.217   0.458  1.7548 -0.5992  0.0242
    2bbb     O1   86   4.311   4.657   0.503 -0.0783 -0.3030  0.3598
    3bbb     N1   87   3.873   5.497   0.264  0.3779 -0.5445  0.3031
    3bbb     C1   88   3.741   5.548   0.203 -0.3224  0.5140 -0.1439
    3bbb     H1   89   3.681   5.461   0.175 -2.1484  0.7400  2.6293
    3bbb     H2   90   3.755   5.616   0.119 -1.7224 -0.6127 -1.3409
    3bbb     C2   91   3.953   5.597   0.345  0.0044 -0.8805  0.6197
    3bbb     H3   92   3.885   5.647   0.414  0.3930 -0.1065  0.4573
    3bbb     H4   93   3.991   5.674   0.277  1.3925 -0.5260  1.7509
    3bbb     C3   94   3.946   5.428   0.154 -0.7845 -0.0787  0.4256
    3bbb     H5   95   4.053   5.411   0.172 -0.1325  1.1971 -1.8819
    3bbb     H6   96   3.951   5.488   0.063 -0.0547  1.7267  1.6035
    3bbb     C4   97   3.892   5.284   0.120 -0.2998 -0.1263  0.0251
    3bbb     H7   98   3.792   5.276   0.076  0.3339 -2.0138 -1.1760
    3bbb     H8   99   3.896   5.213   0.203  4.0137 -1.0819 -0.7420
    3bbb     C5  100   3.646   5.615   0.309  0.6246 -0.7331  0.0419
    3bbb     H9  101   3.690   5.705   0.355  1.9996  0.3393 -3.0761
    3bbb    H10  102   3.612   5.547   0.388  0.1682 -0.8473 -0.2503
    3bbb     C6  103   4.064   5.529   0.429 -0.5200 -0.0177 -0.3907
    3bbb    H11  104   4.152   5.493   0.376 -0.3820 -0.0714 -0.1290
    3bbb    H12  105   4.010   5.444   0.473 -2.2415  0.5913 -1.2425
    3bbb     C7  106   3.979   5.219   0.013  0.6446  0.2664 -0.9183
    3bbb    H13  107   4.005   5.280  -0.074  2.8004 -2.5761 -2.4211
    3bbb    H14  108   3.922   5.144  -0.043  1.0998 -0.0003 -1.0335
    3bbb     C8  109   4.105   5.620   0.544 -0.3586  0.3164 -0.1483
    3bbb    H15  110   4.195   5.587   0.598 -0.5084  1.2800  0.7035
    3bbb    H16  111   4.021   5.634   0.612  0.5073  3.9939  0.3845
    3bbb     C9  112   3.525   5.662   0.223 -0.0747 -0.0951 -0.7799
    3bbb    H17  113   3.431   5.676   0.279 -0.2847 -0.7885 -0.9559
    3bbb    H18  114   3.503   5.577   0.157 -0.4396 -1.7470  1.3613
    3bbb     O1  115   4.092   5.160   0.075  0.6285 -0.3081 -0.2003
    4bbb     N1  116   3.040   5.895  -0.194  0.2253  0.3660 -0.1791
    4bbb     C1  117   3.099   6.017  -0.127  0.6387  0.3323  0.1174
    4bbb     H1  118   3.208   6.019  -0.138  0.4428  0.2705 -2.5589
    4bbb     H2  119   3.072   6.027  -0.021 -0.9578 -1.5335 -0.0681
    4bbb     C2  120   2.889   5.893  -0.194  0.3016  0.5194  0.1694
    4bbb     H3  121   2.854   5.810  -0.255 -0.6013 -0.0784  1.4556
    4bbb     H4  122   2.847   5.983  -0.241 -0.0958  0.1784 -0.1319
    4bbb     C3  123   3.106   5.773  -0.147  0.2948 -0.0473 -0.3152
    4bbb     H5  124   3.072   5.752  -0.044  1.0475  0.8157  0.1253
    4bbb     H6  125   3.210   5.803  -0.134  0.7994 -1.3526 -1.0905
    4bbb     C4  126   3.089   5.651  -0.235 -0.4189 -0.0515  0.1910
    4bbb     H7  127   3.098   5.680  -0.340  1.5089 -0.7370  0.1281
    4bbb     H8  128   2.983   5.624  -0.227 -0.2634 -0.1872  3.3350
    4bbb     C5  129   3.054   6.142  -0.200  0.5292  0.0882 -0.1814
    4bbb     H9  130   3.098   6.233  -0.157 -0.2363  0.6804 -0.6453
    4bbb    H10  131   2.951   6.170  -0.175 -1.0940 -3.0837 -2.6209
    4bbb     C6  132   2.831   5.874  -0.055  0.2688  0.1151 -0.1701
    4bbb    H11  133   2.891   5.940   0.009 -0.1978  0.8107 -0.4350
    4bbb    H12  134   2.839   5.772  -0.015  0.2077 -0.0799 -0.6501
    4bbb     C7  135   3.188   5.537  -0.195  0.7156 -0.8512 -0.1999
    4bbb    H13  136   3.290   5.575  -0.212  0.5341  0.2396  1.0286
    4bbb    H14  137   3.173   5.449  -0.260 -1.3058 -1.4365  0.9914
    4bbb     C8  138   2.678   5.912  -0.045 -0.5082  0.0743  0.4355
    4bbb    H15  139   2.649   5.906   0.060 -3.8501 -0.9162 -0.3937
    4bbb    H16  140   2.626   5.829  -0.095  1.6184 -0.2793 -1.3631
    4bbb     C9  141   3.084   6.155  -0.351 -0.2939  0.5892 -0.0226
    4bbb    H17  142   3.029   6.239  -0.395 -0.0245  0.4172 -0.6946
    4bbb    H18  143   3.040   6.064  -0.394  0.7798 -1.0383  2.0793
    4bbb     O1  144   3.176   5.510  -0.056  0.1935 -0.0907 -0.3077
    5bbb     N1  145   2.656   5.357   1.069  0.1901 -0.1898  0.0124
    5bbb     C1  146   2.511   5.344   1.112 -0.3089  0.3949 -0.2438
    5bbb     H1  147   2.483   5.241   1.136  0.1389  0.0146 -1.2755
    5bbb     H2  148   2.449   5.371   1.026  0.3104  0.4169 -0.6896
    5bbb     C2  149   2.757   5.307   1.165 -0.4318 -0.3057 -0.0053
    5bbb     H3  150   2.761   5.370   1.254 -2.0123  0.0442 -0.1494
    5bbb     H4  151   2.858   5.323   1.125  0.0329 -1.4429  0.6735
    5bbb     C3  152   2.666   5.300   0.933 -0.8518 -0.3620  0.6216
    5bbb     H5  153   2.604   5.360   0.865  0.0879 -1.1712 -1.0370
    5bbb     H6  154   2.632   5.195   0.930  0.9263 -1.1843  4.1519
    5bbb     C4  155   2.812   5.299   0.879  0.2561 -0.0930  0.7936
    5bbb     H7  156   2.871   5.214   0.916  2.0825  0.0978 -1.4308
    5bbb     H8  157   2.862   5.393   0.906  1.7495 -0.3156 -0.9493
    5bbb     C5  158   2.483   5.437   1.237 -0.1522 -1.1146  0.5180
    5bbb     H9  159   2.538   5.531   1.223 -0.8304 -0.5051  1.7490
    5bbb    H10  160   2.529   5.388   1.324 -0.3234 -0.8575  0.7548
    5bbb     C6  161   2.739   5.160   1.203 -0.5058 -0.5610  0.1511
    5bbb    H11  162   2.695   5.105   1.119  0.7885 -2.1095  0.4433
    5bbb    H12  163   2.670   5.166   1.289 -1.5762  1.6791 -0.7860
    5bbb     C7  164   2.817   5.285   0.722 -0.1348 -0.0030  0.0289
    5bbb    H13  165   2.775   5.373   0.672 -0.3339 -0.3076 -0.3476
    5bbb    H14  166   2.768   5.190   0.696 -0.0311  0.3537 -1.5336
    5bbb     C8  167   2.876   5.092   1.246 -0.4520  0.4236  0.4683
    5bbb    H15  168   2.958   5.114   1.177  2.8009  0.8590  4.1225
    5bbb    H16  169   2.863   4.984   1.255 -1.8022  0.6213  1.2596
    5bbb     C9  170   2.335   5.474   1.258 -0.4115  0.0865 -0.2975
    5bbb    H17  171   2.311   5.531   1.348  0.6487 -0.3897  0.3028
    5bbb    H18  172   2.276   5.381   1.255 -3.1217  1.7146 -0.5860
    5bbb     O1  173   2.960   5.275   0.699  0.0962 -0.0452  0.4329
    6bbb     N1  174   4.334   5.047  -0.466 -0.0945  0.1413  0.2518
    6bbb     C1  175   4.280   4.908  -0.485  0.0161 -0.4627 -1.0237
    6bbb     H1  176   4.368   4.843  -0.486  0.1851 -0.2330 -2.4270
    6bbb     H2  177   4.238   4.900  -0.586  2.4916  1.0392 -2.2394
    6bbb     C2  178   4.426   5.085  -0.577 -0.3807 -0.0396  0.2828
    6bbb     H3  179   4.480   5.176  -0.549  0.0507 -0.5987  1.3091
    6bbb     H4  180   4.365   5.103  -0.667 -2.5880  1.0267  1.8888
    6bbb     C3  181   4.397   5.076  -0.331 -0.3152 -0.2522 -0.6557
    6bbb     H5  182   4.492   5.022  -0.328 -0.5325 -0.7191 -1.7024
    6bbb     H6  183   4.332   5.041  -0.251  0.5044  1.9935  1.0881
    6bbb     C4  184   4.420   5.226  -0.305 -0.2602 -0.5851 -0.1454
    6bbb     H7  185   4.348   5.292  -0.356 -0.0358 -1.0862 -1.1274
    6bbb     H8  186   4.522   5.254  -0.335 -0.9615  0.8170 -1.3836
    6bbb     C5  187   4.178   4.848  -0.374  0.8219  0.2102  0.0882
    6bbb     H9  188   4.235   4.848  -0.280  0.7124 -0.3833  0.1574
    6bbb    H10  189   4.140   4.745  -0.385 -2.1331  1.2420 -0.0142
    6bbb     C6  190   4.527   4.974  -0.619 -0.3097 -0.3431  0.3879
    6bbb    H11  191   4.481   4.884  -0.661 -0.2501 -0.4069  0.4578
    6bbb    H12  192   4.581   4.935  -0.532  0.4908  0.7679  0.4150
    6bbb     C7  193   4.422   5.260  -0.154  0.0961  0.7894 -0.2729
    6bbb    H13  194   4.317   5.252  -0.122  0.0163  0.1414 -0.6798
    6bbb    H14  195   4.452   5.365  -0.148 -0.0243  0.7508  2.3691
    6bbb     C8  196   4.629   5.038  -0.727 -0.1441  0.0729  0.3989
    6bbb    H15  197   4.705   4.964  -0.753  0.1270 -0.0458  1.4579
    6bbb    H16  198   4.681   5.123  -0.681 -0.5000  0.0996  0.7597
    6bbb     C9  199   4.050   4.936  -0.365  0.1788  0.2730  0.3167
    6bbb    H17  200   4.017   4.952  -0.469  0.8861  2.1436  0.3467
    6bbb    H18  201   4.086   5.029  -0.321  1.2056 -0.3340  0.7931
    6bbb     O1  202   4.517   5.174  -0.082  0.3066  0.0875  0.1458
    7bbb     N1  203   4.910   5.385  -0.124  0.0755 -0.4015 -0.5169
    7bbb     C1  204   4.901   5.299  -0.244 -0.0811 -0.2905  0.0031
    7bbb     H1  205   4.999   5.249  -0.252 -0.1491 -0.5344  0.6888
    7bbb     H2  206   4.890   5.360  -0.335 -2.1339 -0.3914  0.1469
    7bbb     C2  207   4.789   5.475  -0.107 -0.7340 -0.9438 -0.3665
    7bbb     H3  208   4.785   5.533  -0.014 -1.6502 -2.0786  0.3302
    7bbb     H4  209   4.694   5.421  -0.102 -1.0492 -0.5014 -1.4588
    7bbb     C3  210   4.945   5.313   0.002 -0.1977 -0.3502 -0.1009
    7bbb     H5  211   4.861   5.261   0.049  0.8417 -0.7749  1.3470
    7bbb     H6  212   4.959   5.392   0.076  3.4835 -0.8459 -0.0596
    7bbb     C4  213   5.073   5.227   0.006  0.0375  0.2926  0.6528
    7bbb     H7  214   5.160   5.291   0.025 -0.6349  1.5468 -0.3682
    7bbb     H8  215   5.093   5.164  -0.082 -0.6396  0.1230  0.6168
    7bbb     C5  216   4.805   5.175  -0.229  0.6584  0.4956  0.0206
    7bbb     H9  217   4.701   5.208  -0.223  0.9462  1.1959  1.3894
    7bbb    H10  218   4.837   5.120  -0.140  1.6661  3.8764  1.9251
    7bbb     C6  219   4.773   5.579  -0.219 -0.3959 -0.1361 -0.4962
    7bbb    H11  220   4.672   5.622  -0.213 -0.0858  0.5746 -0.2884
    7bbb    H12  221   4.785   5.536  -0.319 -0.2225 -0.3082 -0.4014
    7bbb     C7  222   5.059   5.134   0.128  0.1998  0.9865 -0.3535
    7bbb    H13  223   5.147   5.069   0.124 -0.5696 -0.0978 -0.1813
    7bbb    H14  224   4.969   5.072   0.118  0.8781  0.2467 -2.1903
    7bbb     C8  225   4.873   5.702  -0.200  1.0610 -0.0111 -0.1297
    7bbb    H15  226   4.856   5.771  -0.284  1.3139 -0.4175 -0.5184
    7bbb    H16  227   4.974   5.660  -0.201  0.8291 -0.6918  1.3843
    7bbb     C9  228   4.814   5.089  -0.358 -0.3654 -0.6760  0.1285
    7bbb    H17  229   4.808   5.155  -0.445  1.6328  1.2201  1.3127
    7bbb    H18  230   4.723   5.028  -0.369 -1.3271  0.5830  0.8977
    7bbb     O1  231   5.060   5.213   0.249 -0.6033 -0.7611 -0.2403
    8bbb     N1  232   4.429   6.089   0.368 -0.4342 -0.5355  0.0474
    8bbb     C1  233   4.488   6.207   0.439  0.2541 -0.4438 -0.3747
    8bbb     H1  234   4.407   6.272   0.473  1.9979  2.2131 -0.9960
    8bbb     H2  235   4.547   6.279   0.381  1.0993  1.4212  2.5985
    8bbb     C2  236   4.389   6.118   0.229  0.5723 -0.1200  0.0738
    8bbb     H3  237   4.387   6.032   0.162  0.4769  1.1383 -1.5992
    8bbb     H4  238   4.456   6.193   0.186  0.0587  0.7213  0.7108
    8bbb     C3  239   4.357   5.992   0.441  0.5705 -0.3305  0.2374
    8bbb     H5  240   4.264   6.039   0.476  0.7739 -0.1664  0.5596
    8bbb     H6  241   4.412   5.956   0.529  0.6598  0.5175  0.5416
    8bbb     C4  242   4.307   5.873   0.354 -0.9561 -0.1247 -0.2420
    8bbb     H7  243   4.374   5.851   0.271 -1.4133  0.3757 -0.7579
    8bbb     H8  244   4.214   5.904   0.304 -1.3634 -0.9609 -0.0099
    8bbb     C5  245   4.582   6.178   0.554 -0.2427  0.6573  0.0157
    8bbb     H9  246   4.655   6.099   0.533  0.7504  0.8116  2.5620
    8bbb    H10  247   4.522   6.133   0.635  0.5980 -0.6531 -0.0674
    8bbb     C6  248   4.258   6.196   0.208 -0.3563  0.1544 -0.1448
    8bbb    H11  249   4.276   6.294   0.255 -1.6693 -0.0098  0.7376
    8bbb    H12  250   4.179   6.150   0.269 -1.9203  2.5610 -0.2053
    8bbb     C7  251   4.276   5.745   0.434 -0.2678  0.1673 -0.5260
    8bbb    H13  252   4.352   5.737   0.512 -1.3287  0.7783  0.5987
    8bbb    H14  253   4.284   5.666   0.357 -2.1687  0.1957 -0.7945
    8bbb     C8  254   4.208   6.213   0.061  0.2603 -0.3007  0.0341
    8bbb    H15  255   4.110   6.260   0.072  0.2969 -0.3081  0.4147
    8bbb    H16  256   4.197   6.118   0.008 -1.1655 -0.8476  1.2468
    8bbb     C9  257   4.647   6.305   0.600  0.2337  0.3109 -0.4886
    8bbb    H17  258   4.583   6.390   0.627 -0.2322  0.1526 -1.0717
    8bbb    H18  259   4.720   6.350   0.531  0.6343 -0.0490 -0.3097
    8bbb     O1  260   4.142   5.750   0.493  0.4183  0.4255  0.5323
    9bbb     N1  261   3.503   6.208   0.161  0.9584 -0.1447  0.4140
    9bbb     C1  262   3.520   6.270   0.300 -0.7925  0.1518 -0.3421
    9bbb     H1  263   3.568   6.369   0.292 -2.7574  1.0589 -1.9330
    9bbb     H2  264   3.590   6.212   0.361 -0.5573  1.5996  0.8104
    9bbb     C2  265   3.417   6.285   0.063  0.3811 -0.0467 -0.3554
    9bbb     H3  266   3.309   6.288   0.085 -0.0646  1.2281 -2.3807
    9bbb     H4  267   3.431   6.255  -0.042 -1.2941  0.9236 -0.9023
    9bbb     C3  268   3.476   6.063   0.166 -0.2702 -0.6571 -0.0634
    9bbb     H5  269   3.388   6.045   0.229  0.5411 -1.8554  0.7916
    9bbb     H6  270   3.554   6.030   0.236 -0.1069  1.4511  0.8385
    9bbb     C4  271   3.479   5.987   0.036  0.1215 -0.4722  0.1951
    9bbb     H7  272   3.573   5.990  -0.021 -0.0963 -0.9547 -0.2051
    9bbb     H8  273   3.392   6.010  -0.027  1.3634  0.3466 -1.3166
    9bbb     C5  274   3.389   6.284   0.389  0.0825 -0.1617  0.4268
    9bbb     H9  275   3.364   6.182   0.422  0.4828 -0.8045 -1.1456
    9bbb    H10  276   3.311   6.311   0.317 -0.8500  2.0716  2.1559
    9bbb     C6  277   3.462   6.432   0.061  0.1502  0.3259  0.5164
    9bbb    H11  278   3.567   6.425   0.030 -0.1032 -1.5237 -0.0292
    9bbb    H12  279   3.454   6.475   0.162 -3.3760 -1.1406  0.9786
    9bbb     C7  280   3.463   5.837   0.068  0.4060  0.0179 -0.0034
    9bbb    H13  281   3.476   5.789  -0.030 -1.7572  0.7955 -0.7142
    9bbb    H14  282   3.359   5.813   0.095  0.1664  1.4552  0.4671
    9bbb     C8  283   3.379   6.515  -0.039  0.4635 -0.1902  0.6515
    9bbb    H15  284   3.404   6.470  -0.136  1.8023 -0.3594  1.0499
    9bbb    H16  285   3.417   6.618  -0.038 -1.0949  0.4338 -0.6431
    9bbb     C9  286   3.373   6.393   0.499 -0.2674 -0.6853 -0.1677
    9bbb    H17  287   3.277   6.382   0.551 -0.0471 -2.9144 -0.1036
    9bbb    H18  288   3.378   6.489   0.446 -2.2467 -1.3794 -1.7553
    9bbb     O1  289   3.559   5.789   0.161 -0.2856  0.6871 -0.2409
   10bbb     N1  290   2.486   6.434  -0.087 -0.3972 -1.1156 -0.1921
   10bbb     C1  291   2.516   6.481  -0.227 -0.5687 -0.2953  0.6900
   10bbb     H1  292   2.451   6.420  -0.291  1.1056 -1.6834  0.2194
   10bbb     H2  293   2.618   6.446  -0.250 -0.2826  0.0191  1.4400
   10bbb     C2  294   2.347   6.463  -0.044  0.3840  0.0184 -0.4133
   10bbb     H3  295   2.280   6.416  -0.118  0.3250 -0.0401 -0.3223
   10bbb     H4  296   2.329   6.571  -0.052  2.9503  0.5837  0.6257
   10bbb     C3  297   2.545   6.300  -0.050 -0.2638 -0.5691  0.1674
   10bbb     H5  298   2.556   6.294   0.059 -0.2413 -0.5214  0.1676
   10bbb     H6  299   2.647   6.293  -0.090  0.3779  2.0685  1.1563
   10bbb     C4  300   2.465   6.192  -0.123 -0.0160  0.1884  0.0230
   10bbb     H7  301   2.496   6.197  -0.228  0.6232  0.9790  0.2392
   10bbb     H8  302   2.357   6.209  -0.121 -0.4355 -2.2057  1.9556
   10bbb     C5  303   2.503   6.632  -0.250 -0.3235  0.2754  0.7068
   10bbb     H9  304   2.578   6.679  -0.186  0.3986 -0.8416  0.7130
   10bbb    H10  305   2.406   6.665  -0.210  1.4502  1.1754  4.8210
   10bbb     C6  306   2.294   6.434   0.098 -0.1315 -0.1033  0.1120
   10bbb    H11  307   2.276   6.534   0.141  3.7264  0.5194  0.6116
   10bbb    H12  308   2.372   6.396   0.166 -0.8830  0.9248  1.6251
   10bbb     C7  309   2.501   6.051  -0.072  0.8993  0.2181  0.1793
   10bbb    H13  310   2.442   5.969  -0.114  0.7407  0.3285  0.1855
   10bbb    H14  311   2.480   6.055   0.036  0.1254 -0.3035  0.0574
   10bbb     C8  312   2.168   6.351   0.101 -0.6623  0.1357 -0.0067
   10bbb    H15  313   2.162   6.304   0.201 -0.8720  0.6351  0.2166
   10bbb    H16  314   2.179   6.267   0.031  1.4984  0.8860 -0.6232
   10bbb     C9  315   2.504   6.682  -0.400 -0.2622  0.0661  0.1735
   10bbb    H17  316   2.605   6.676  -0.442  0.1138  1.0633  0.8821
   10bbb    H18  317   2.488   6.791  -0.402  1.1950  0.3007  0.0550
   10bbb     O1  318   2.642   6.037  -0.099 -0.0312 -0.0370  0.2090
   11bbb     N1  319   3.644   6.126  -0.370 -0.2431 -0.1406 -0.0654
   11bbb     C1  320   3.666   6.132  -0.513  0.2525  0.4045 -0.3284
   11bbb     H1  321   3.773   6.117  -0.533 -0.3739 -2.5659 -2.1764
   11bbb     H2  322   3.636   6.230  -0.551 -0.4081  0.4083  0.1704
   11bbb     C2  323   3.700   6.015  -0.289 -0.0781  0.1217  0.2497
   11bbb     H3  324   3.645   5.923  -0.310  1.1123 -0.5334 -0.1400
   11bbb     H4  325   3.694   6.033  -0.181 -2.7002  2.0524 -0.1319
   11bbb     C3  326   3.512   6.157  -0.318 -0.7729  0.3826  0.1264
   11bbb     H5  327   3.518   6.162  -0.209  0.2127  0.9082  0.0583
   11bbb     H6  328   3.453   6.068  -0.344  1.3466 -1.3138  0.8724
   11bbb     C4  329   3.438   6.282  -0.374  0.2665  0.4885 -0.8390
   11bbb     H7  330   3.443   6.273  -0.484 -0.7553 -0.3989 -0.8229
   11bbb     H8  331   3.489   6.377  -0.353 -0.1459  0.7256 -0.9090
   11bbb     C5  332   3.593   6.023  -0.596 -0.3304 -0.0902 -0.4965
   11bbb     H9  333   3.485   6.039  -0.592 -0.3195 -0.1787  0.2877
   11bbb    H10  334   3.622   5.930  -0.545 -0.4129  0.7767  1.1932
   11bbb     C6  335   3.851   5.989  -0.301 -0.1931 -0.3795  0.1874
   11bbb    H11  336   3.879   5.967  -0.405  2.1533  0.8630  0.4760
   11bbb    H12  337   3.880   5.905  -0.237  1.0793 -0.6365 -0.6787
   11bbb     C7  338   3.292   6.284  -0.330 -0.0056  0.4973 -0.2910
   11bbb    H13  339   3.235   6.374  -0.357 -2.1111 -1.3541 -2.4719
   11bbb    H14  340   3.296   6.292  -0.221 -0.8905 -0.9339 -0.1219
   11bbb     C8  341   3.938   6.109  -0.253  0.1459  0.8355 -0.2734
   11bbb    H15  342   3.937   6.104  -0.143 -1.9344  1.9470 -0.1970
   11bbb    H16  343   3.888   6.204  -0.275 -2.5953 -0.2483  0.7821
   11bbb     C9  344   3.637   6.014  -0.745  0.1019  0.1118 -0.4676
   11bbb    H17  345   3.605   5.916  -0.783  0.0695  0.8721 -2.5081
   11bbb    H18  346   3.745   6.016  -0.761  0.1886  0.5205  0.1375
   11bbb     O1  347   3.226   6.165  -0.379 -0.5183 -0.3063  0.3204
   12bbb     N1  348   2.740   5.019   1.755 -0.4606 -0.8417 -0.4611
   12bbb     C1  349   2.704   4.894   1.677  0.3317  0.3617  0.6224
   12bbb     H1  350   2.785   4.822   1.661 -0.9097 -1.2861  1.4066
   12bbb     H2  351   2.669   4.911   1.574  0.8608 -0.4204  0.3042
   12bbb     C2  352   2.647   5.136   1.728  0.3536 -0.4753 -0.0674
   12bbb     H3  353   2.545   5.096   1.730  0.4770 -0.9160 -1.3928
   12bbb     H4  354   2.659   5.182   1.629  2.3266  3.2306  1.6929
   12bbb     C3  355   2.882   5.057   1.738  0.5372 -0.0821 -0.4920
   12bbb     H5  356   2.953   4.973   1.743  0.7217  0.0426 -0.9501
   12bbb     H6  357   2.913   5.116   1.826 -0.6755  0.9837 -0.7500
   12bbb     C4  358   2.919   5.139   1.613  0.3637 -0.3418  1.0447
   12bbb     H7  359   3.028   5.150   1.604  0.2564 -0.7848 -1.5745
   12bbb     H8  360   2.875   5.239   1.619  0.1167 -0.2350 -1.4680
   12bbb     C5  361   2.604   4.805   1.753  0.2250  0.7192  0.3507
   12bbb     H9  362   2.501   4.841   1.743  0.1188  0.1567 -0.6831
   12bbb    H10  363   2.632   4.786   1.857 -0.3479  0.4794  0.4683
   12bbb     C6  364   2.654   5.247   1.831 -0.4581 -0.1673 -0.1684
   12bbb    H11  365   2.759   5.278   1.845 -0.0221  0.8300 -4.2631
   12bbb    H12  366   2.628   5.194   1.923 -0.6064  2.9171  1.7341
   12bbb     C7  367   2.879   5.064   1.482  1.0368  0.4915 -0.7728
   12bbb    H13  368   2.771   5.043   1.477  1.3910 -1.6609 -0.6513
   12bbb    H14  369   2.930   4.967   1.477 -1.1770 -0.9309  1.6359
   12bbb     C8  370   2.573   5.369   1.797 -0.4304 -0.2038  0.1832
   12bbb    H15  371   2.540   5.414   1.892  0.2340  0.2110  0.2214
   12bbb    H16  372   2.490   5.341   1.731  0.5582  0.4379 -1.3799
   12bbb     C9  373   2.595   4.657   1.700 -0.5074  0.1987  0.3111
   12bbb    H17  374   2.500   4.612   1.731  0.3074 -2.8560 -1.1723
   12bbb    H18  375   2.672   4.596   1.750 -0.4387 -0.4881 -0.5996
   12bbb     O1  376   2.907   5.148   1.369  0.0752  0.0381 -0.2603
   13bbb     N1  377   2.154   5.770   0.788 -0.3032 -0.0810  0.3385
   13bbb     C1  378   2.006   5.798   0.780 -0.6911  0.5538 -0.3365
   13bbb     H1  379   1.983   5.867   0.862  2.4381 -0.7540  1.8538
   13bbb     H2  380   1.941   5.712   0.800 -0.8321  0.8806  0.6655
   13bbb     C2  381   2.221   5.703   0.674 -0.4743 -0.3915 -0.0707
   13bbb     H3  382   2.176   5.756   0.589 -1.5849  2.2337  2.0130
   13bbb     H4  383   2.194   5.597   0.670  1.8241 -1.0214 -0.7712
   13bbb     C3  384   2.191   5.734   0.926  0.9122  0.9291 -0.2089
   13bbb     H5  385   2.139   5.798   0.998 -0.7335  0.5172 -0.9958
   13bbb     H6  386   2.300   5.749   0.935  0.5972  3.0654  0.5641
   13bbb     C4  387   2.150   5.592   0.962  0.0175 -1.0893  0.1055
   13bbb     H7  388   2.211   5.524   0.901  0.9432  0.1842 -0.4243
   13bbb     H8  389   2.044   5.575   0.940 -0.3169  2.5698 -1.8100
   13bbb     C5  390   1.958   5.861   0.651 -0.4982 -0.2654  0.2068
   13bbb     H9  391   1.963   5.784   0.574 -0.3531 -2.5256  2.3517
   13bbb    H10  392   2.026   5.939   0.615 -1.0090  0.6132  1.0895
   13bbb     C6  393   2.374   5.708   0.678  0.5079 -0.3227  0.2108
   13bbb    H11  394   2.419   5.656   0.763 -0.3439 -0.6564  0.4654
   13bbb    H12  395   2.397   5.816   0.681 -0.9531 -0.0204  1.6456
   13bbb     C7  396   2.170   5.570   1.115  0.6364  0.1576  0.7477
   13bbb    H13  397   2.115   5.477   1.134 -1.8618  1.2809 -0.4580
   13bbb    H14  398   2.128   5.651   1.176  0.5622  0.6605  0.0335
   13bbb     C8  399   2.442   5.645   0.555  0.6218 -0.0157  1.2859
   13bbb    H15  400   2.434   5.536   0.570  1.3919 -0.5777 -1.6373
   13bbb    H16  401   2.551   5.657   0.548  0.7187 -0.6524  1.6195
   13bbb     C9  402   1.810   5.912   0.659  0.0208  0.5915  0.3253
   13bbb    H17  403   1.779   5.967   0.570 -0.4055  0.3177  0.3016
   13bbb    H18  404   1.799   5.978   0.746 -1.0581 -0.3928  0.9644
   13bbb     O1  405   2.310   5.554   1.135 -0.0774 -0.1883 -0.3614
   14bbb     N1  406   4.432   5.492  -0.854  0.6063 -0.5047 -0.1120
   14bbb     C1  407   4.325   5.590  -0.904 -0.6714 -0.2887  0.5377
   14bbb     H1  408   4.310   5.674  -0.836 -0.1634 -0.4657  0.8731
   14bbb     H2  409   4.231   5.533  -0.900 -0.6588 -0.3066  0.5691
   14bbb     C2  410   4.411   5.462  -0.714  0.5838 -0.5749 -0.5802
   14bbb     H3  411   4.461   5.369  -0.685 -1.3322 -1.1055  1.2690
   14bbb     H4  412   4.307   5.443  -0.682  0.5219 -0.3193 -0.6297
   14bbb     C3  413   4.449   5.362  -0.934 -0.4265 -0.1249  0.5296
   14bbb     H5  414   4.432   5.378  -1.041  0.8747  1.7580  0.5522
   14bbb     H6  415   4.375   5.287  -0.904  0.0662 -0.8087  0.0486
   14bbb     C4  416   4.589   5.306  -0.911  0.4678 -0.2246 -0.4225
   14bbb     H7  417   4.619   5.313  -0.806 -3.7645  3.3348  0.8727
   14bbb     H8  418   4.653   5.371  -0.972 -2.0715  2.4113 -0.5256
   14bbb     C5  419   4.358   5.644  -1.042  0.4640 -0.0528 -0.2690
   14bbb     H9  420   4.368   5.564  -1.116 -1.0234 -1.6144  1.1209
   14bbb    H10  421   4.459   5.688  -1.037  0.8314 -0.5911 -2.2496
   14bbb     C6  422   4.479   5.565  -0.616  0.1176 -0.8400 -0.0440
   14bbb    H11  423   4.462   5.545  -0.510  1.0574  2.3630  0.8146
   14bbb    H12  424   4.437   5.665  -0.627 -1.1967 -0.9856  2.8965
   14bbb     C7  425   4.604   5.152  -0.954 -0.2618 -0.5254 -0.2493
   14bbb    H13  426   4.712   5.137  -0.968  0.2063  2.2160 -0.1837
   14bbb    H14  427   4.558   5.131  -1.052 -0.3450  1.4868 -0.6813
   14bbb     C8  428   4.629   5.576  -0.634 -0.4196 -0.0077  0.2356
   14bbb    H15  429   4.657   5.670  -0.584  2.5537 -0.7806  0.1683
   14bbb    H16  430   4.640   5.587  -0.742 -0.0385 -2.7736 -0.0786
   14bbb     C9  431   4.263   5.756  -1.088  0.7434  0.1488  0.3443
   14bbb    H17  432   4.303   5.795  -1.182 -0.6778  0.3560 -0.1960
   14bbb    H18  433   4.287   5.844  -1.026  2.6844  0.2548 -0.5082
   14bbb     O1  434   4.550   5.065  -0.850 -0.2990  0.2226 -0.1984
   15bbb     N1  435   3.494   4.930  -0.109  0.0706  0.3972  0.2582
   15bbb     C1  436   3.377   5.024  -0.124  0.7215 -0.1185  0.1221
   15bbb     H1  437   3.411   5.128  -0.126  1.0592 -0.2403 -0.5326
   15bbb     H2  438   3.307   5.022  -0.039 -1.0714 -1.0768 -1.3211
   15bbb     C2  439   3.470   4.785  -0.079  0.5764  0.9073 -0.3345
   15bbb     H3  440   3.555   4.745  -0.023  0.2089 -0.0635 -0.4579
   15bbb     H4  441   3.465   4.736  -0.177  0.0041  1.4417 -0.5794
   15bbb     C3  442   3.597   4.956  -0.208 -0.2657  0.1527 -0.2200
   15bbb     H5  443   3.633   5.060  -0.207  2.5611 -0.6930 -1.5491
   15bbb     H6  444   3.555   4.939  -0.308  0.8120 -4.9959 -0.0564
   15bbb     C4  445   3.728   4.875  -0.187 -0.7200  0.7484  0.0768
   15bbb     H7  446   3.711   4.767  -0.191 -1.6478  0.9237 -1.4788
   15bbb     H8  447   3.766   4.898  -0.086 -2.2197 -2.1811  1.4519
   15bbb     C5  448   3.293   5.011  -0.256  0.2723  0.3870  0.3414
   15bbb     H9  449   3.303   4.905  -0.283  0.5856  0.5561 -0.2232
   15bbb    H10  450   3.338   5.079  -0.330  0.0633  2.3858  1.9710
   15bbb     C6  451   3.344   4.743   0.007  0.1067 -0.0223  0.0960
   15bbb    H11  452   3.251   4.765  -0.048  1.1286  1.1034 -1.2781
   15bbb    H12  453   3.333   4.800   0.100  0.9076  0.4937 -0.1104
   15bbb     C7  454   3.830   4.930  -0.288 -0.1694  0.2968  0.5887
   15bbb    H13  455   3.859   5.027  -0.244 -0.5857  0.7468 -0.1194
   15bbb    H14  456   3.782   4.938  -0.385  0.1342 -1.0612  0.3096
   15bbb     C8  457   3.348   4.585   0.031 -1.1497  0.1545 -0.0755
   15bbb    H15  458   3.367   4.541  -0.068 -0.3716 -1.8678  0.9190
   15bbb    H16  459   3.256   4.544   0.074 -1.8920  1.8902  0.0727
   15bbb     C9  460   3.143   5.050  -0.234  0.5446  0.4179 -0.0893
   15bbb    H17  461   3.081   5.058  -0.324 -1.6365 -0.3241  1.2810
   15bbb    H18  462   3.139   5.151  -0.192 -0.4099  0.2163  0.3224
   15bbb     O1  463   3.949   4.860  -0.288  0.7133 -0.1364  0.1806
   16bbb     N1  464   4.882   6.207   0.154 -0.5234 -0.0768  0.1499
   16bbb     C1  465   4.791   6.279   0.071 -0.7672  0.2985  0.4114
   16bbb     H1  466   4.745   6.365   0.121 -0.5538  1.1087 -0.7424
   16bbb     H2  467   4.708   6.217   0.034  0.8540 -1.6574 -0.1521
   16bbb     C2  468   4.817   6.171   0.282  0.5663  1.0356 -0.2560
   16bbb     H3  469   4.740   6.094   0.274  1.3090  0.1488  0.8167
   16bbb     H4  470   4.767   6.260   0.322 -1.5506  0.0652 -0.6123
   16bbb     C3  471   4.950   6.089   0.088 -0.2675 -0.4215  0.8364
   16bbb     H5  472   5.041   6.059   0.141  0.1402  0.6087  0.7492
   16bbb     H6  473   4.984   6.117  -0.013 -0.1543 -1.7167  0.4985
   16bbb     C4  474   4.871   5.961   0.061  0.1969 -0.1151  0.0815
   16bbb     H7  475   4.762   5.964   0.055  0.1815 -0.1990  0.3038
   16bbb     H8  476   4.903   5.891   0.140 -0.6218 -0.5388  0.0457
   16bbb     C5  477   4.861   6.345  -0.056  0.9027  0.0560  0.4482
   16bbb     H9  478   4.891   6.275  -0.135  0.4359 -1.1080  1.2917
   16bbb    H10  479   4.946   6.397  -0.010  0.0900  2.0743 -0.2179
   16bbb     C6  480   4.920   6.117   0.388 -0.1717 -0.2148  0.7924
   16bbb    H11  481   4.963   6.025   0.346 -2.0809  0.3184 -2.7017
   16bbb    H12  482   4.859   6.084   0.473  1.6326 -1.1928  1.7568
   16bbb     C7  483   4.920   5.889  -0.061  0.3194 -0.4043 -0.2118
   16bbb    H13  484   5.027   5.868  -0.054  0.1282 -0.9596  1.3556
   16bbb    H14  485   4.904   5.957  -0.146  1.9347  0.6649  0.2983
   16bbb     C8  486   5.033   6.213   0.429  1.0732  0.4026  0.6004
   16bbb    H15  487   4.984   6.307   0.459 -3.1130 -1.6270  0.8966
   16bbb    H16  488   5.092   6.239   0.340  0.0226 -0.9273 -0.5260
   16bbb     C9  489   4.768   6.456  -0.111  0.2473 -0.0543 -0.0890
   16bbb    H17  490   4.735   6.527  -0.035  0.1671 -1.4501  1.2320
   16bbb    H18  491   4.673   6.412  -0.142  0.4382 -1.0500  0.6904
   16bbb     O1  492   4.845   5.766  -0.079 -0.6459 -0.7748 -0.5015
   17bbb     N1  493   5.344   4.912  -0.447  0.3031 -0.6604 -0.2234
   17bbb     C1  494   5.393   4.831  -0.567  0.0367  0.7753 -0.7867
   17bbb     H1  495   5.334   4.739  -0.574  2.9402 -1.2689 -0.0641
   17bbb     H2  496   5.495   4.806  -0.537 -0.2055  1.3033  0.5868
   17bbb     C2  497   5.360   4.837  -0.321  0.2513 -0.3895 -0.5608
   17bbb     H3  498   5.464   4.815  -0.292 -0.0130 -0.9675 -0.0229
   17bbb     H4  499   5.311   4.739  -0.324  1.7624 -1.2642  1.0659
   17bbb     C3  500   5.219   4.985  -0.477 -0.0670 -0.5097 -0.3119
   17bbb     H5  501   5.230   5.051  -0.563  1.3911 -1.2292 -0.7215
   17bbb     H6  502   5.201   5.058  -0.397  1.3094  1.0262 -1.3447
   17bbb     C4  503   5.097   4.887  -0.489 -0.1924  0.3111 -0.3739
   17bbb     H7  504   5.111   4.818  -0.405  2.9443  1.8456  0.5454
   17bbb     H8  505   5.102   4.827  -0.581  0.0971  0.2602 -0.3276
   17bbb     C5  506   5.411   4.906  -0.700  0.1555 -0.0156 -0.1787
   17bbb     H9  507   5.456   5.003  -0.679  0.6655  0.2995 -2.4902
   17bbb    H10  508   5.313   4.927  -0.745  1.1768 -1.3242 -3.2788
   17bbb     C6  509   5.302   4.906  -0.198  0.1771 -0.1867 -1.0339
   17bbb    H11  510   5.296   4.832  -0.117  0.1518  0.6610 -0.2486
   17bbb    H12  511   5.199   4.940  -0.214 -0.1430  0.4816  1.8935
   17bbb     C7  512   4.957   4.946  -0.483 -0.4178  0.4632  0.4142
   17bbb    H13  513   4.897   4.856  -0.495 -1.7019  0.9265  2.8317
   17bbb    H14  514   4.941   5.004  -0.575  0.1757 -0.6720 -0.4311
   17bbb     C8  515   5.385   5.028  -0.144  0.6737  0.1667 -0.2372
   17bbb    H15  516   5.325   5.119  -0.160 -0.1171 -0.5540 -1.5466
   17bbb    H16  517   5.479   5.035  -0.200  0.8471 -0.6074 -0.0437
   17bbb     C9  518   5.499   4.828  -0.805  0.1702 -0.5017 -0.2304
   17bbb    H17  519   5.473   4.722  -0.817  0.7875 -0.3738 -3.6615
   17bbb    H18  520   5.605   4.818  -0.776  0.3463 -1.0707 -1.0256
   17bbb     O1  521   4.937   5.014  -0.364  0.4313  0.2872 -0.4702
   18bbb     N1  522   4.413   6.556  -0.434 -0.4512 -0.3205  0.6960
   18bbb     C1  523   4.434   6.547  -0.578  0.4637  0.3248  0.8039
   18bbb     H1  524   4.476   6.638  -0.624  1.2494  0.5520  1.9371
   18bbb     H2  525   4.335   6.532  -0.623  0.3639  0.0865  1.1042
   18bbb     C2  526   4.350   6.689  -0.415  1.1288  0.1496  0.3669
   18bbb     H3  527   4.301   6.678  -0.317 -1.1757 -0.2635 -0.7759
   18bbb     H4  528   4.268   6.711  -0.484 -0.0456 -1.4738  1.1707
   18bbb     C3  529   4.358   6.437  -0.369 -0.0536 -0.7500 -0.4418
   18bbb     H5  530   4.420   6.351  -0.397 -0.8098 -0.7845 -2.1395
   18bbb     H6  531   4.255   6.433  -0.406 -0.2524  1.8337 -0.3742
   18bbb     C4  532   4.359   6.433  -0.211 -0.1280  0.3907 -0.9073
   18bbb     H7  533   4.327   6.523  -0.158  0.6893 -0.5396  1.3229
   18bbb     H8  534   4.463   6.416  -0.180 -0.5279  2.5371  2.0246
   18bbb     C5  535   4.536   6.447  -0.641 -0.7152  0.2880 -0.0598
   18bbb     H9  536   4.516   6.447  -0.749  0.3196 -1.8747 -0.3037
   18bbb    H10  537   4.525   6.343  -0.607  0.6551 -0.5588 -2.0006
   18bbb     C6  538   4.455   6.801  -0.410  0.3286  0.7212 -0.3034
   18bbb    H11  539   4.464   6.837  -0.514  0.7293  0.9038 -0.2064
   18bbb    H12  540   4.558   6.775  -0.383  0.3836  2.2236  1.0942
   18bbb     C7  541   4.269   6.318  -0.145 -0.6382 -0.2734  0.5581
   18bbb    H13  542   4.280   6.224  -0.200 -1.4440  0.3479 -0.7161
   18bbb    H14  543   4.164   6.345  -0.162 -0.3023  0.3101 -0.7076
   18bbb     C8  544   4.412   6.921  -0.329 -0.2042  0.7157  0.4130
   18bbb    H15  545   4.417   6.894  -0.223  1.0770 -0.3519  0.1053
   18bbb    H16  546   4.307   6.934  -0.360 -0.1970 -1.0198 -0.4457
   18bbb     C9  547   4.683   6.485  -0.613  0.6763 -0.2059 -0.0917
   18bbb    H17  548   4.718   6.448  -0.516  0.4498 -2.8128 -0.9299
   18bbb    H18  549   4.698   6.594  -0.616  0.6144 -0.2122 -2.2648
   18bbb     O1  550   4.293   6.313  -0.003 -0.3938  0.7509 -0.8319
   19bbb     N1  551   4.897   6.323   1.147  0.1563  0.2730 -0.0110
   19bbb     C1  552   4.913   6.178   1.156 -0.1178  0.0101  0.5261
   19bbb     H1  553   4.988   6.159   1.234 -2.1841  0.5880  2.7621
   19bbb     H2  554   4.954   6.139   1.062 -0.7234 -3.2430  1.4819
   19bbb     C2  555   4.847   6.375   1.276  0.1391 -0.0287  0.7431
   19bbb     H3  556   4.905   6.330   1.357 -0.7287  1.1808  2.0717
   19bbb     H4  557   4.741   6.351   1.287 -0.3104  1.4720  0.0221
   19bbb     C3  558   4.800   6.358   1.043  0.1183 -0.4143 -0.4457
   19bbb     H5  559   4.780   6.465   1.050  3.3526  0.1875  1.8122
   19bbb     H6  560   4.703   6.308   1.052  0.8416 -2.3171 -2.3199
   19bbb     C4  561   4.864   6.335   0.905  0.7085  0.1884  0.0089
   19bbb     H7  562   4.884   6.228   0.888  0.1507  0.0359  0.2684
   19bbb     H8  563   4.958   6.389   0.889  0.1023  0.4807 -3.3009
   19bbb     C5  564   4.795   6.091   1.212 -0.1163  0.0026  0.7524
   19bbb     H9  565   4.699   6.129   1.176  1.0593  0.9135 -1.6200
   19bbb    H10  566   4.806   6.106   1.320  3.8136  0.9057  0.3959
   19bbb     C6  567   4.879   6.526   1.295  0.4123  0.6199 -0.4535
   19bbb    H11  568   4.816   6.576   1.220 -1.0968  0.1525  0.4662
   19bbb    H12  569   4.986   6.532   1.272  0.4934 -0.3763 -0.3691
   19bbb     C7  570   4.779   6.389   0.785 -0.6880  0.7670 -0.4626
   19bbb    H13  571   4.839   6.438   0.707 -0.8981 -0.2158 -1.2666
   19bbb    H14  572   4.698   6.457   0.814 -1.8758 -1.2617  1.2516
   19bbb     C8  573   4.860   6.585   1.433  0.8369 -0.2902 -0.0984
   19bbb    H15  574   4.841   6.693   1.435 -1.2734 -0.5716 -1.7627
   19bbb    H16  575   4.945   6.565   1.500  1.7736  1.8817 -0.5451
   19bbb     C9  576   4.806   5.939   1.170 -0.6761  0.2254  0.1716
   19bbb    H17  577   4.913   5.921   1.158 -0.5571  0.9493  0.1124
   19bbb    H18  578   4.750   5.923   1.077  0.0810 -0.6625 -0.1451
   19bbb     O1  579   4.717   6.271   0.727 -0.4117 -0.1700  0.1673
   20bbb     N1  580   2.870   6.524   0.172  0.2721  0.1955 -0.1578
   20bbb     C1  581   2.754   6.613   0.153 -0.1744  0.3605 -0.4604
   20bbb     H1  582   2.710   6.608   0.053  1.5707 -1.4577 -1.2224
   20bbb     H2  583   2.792   6.714   0.172  1.8049  1.0187 -6.0116
   20bbb     C2  584   2.839   6.380   0.172  0.3981 -0.2787  0.6485
   20bbb     H3  585   2.816   6.341   0.072 -0.1076 -0.2545  0.7530
   20bbb     H4  586   2.752   6.361   0.236 -1.0249  0.3254 -1.0186
   20bbb     C3  587   2.994   6.566   0.108 -0.5455  0.2595 -0.2314
   20bbb     H5  588   3.081   6.526   0.162 -1.0362 -0.5135  0.0042
   20bbb     H6  589   3.007   6.675   0.120  1.0357 -0.0836  1.7632
   20bbb     C4  590   3.005   6.533  -0.041  0.7826  0.1788  0.2253
   20bbb     H7  591   2.925   6.581  -0.098  0.2803  0.7305  1.3576
   20bbb     H8  592   2.980   6.427  -0.050 -0.8584  0.4627  1.0858
   20bbb     C5  593   2.637   6.592   0.251  0.0928 -0.9429 -0.6570
   20bbb     H9  594   2.671   6.575   0.354 -3.5161 -1.2718  0.6214
   20bbb    H10  595   2.591   6.495   0.227 -0.1279 -0.6406 -1.4993
   20bbb     C6  596   2.953   6.299   0.229 -0.0607 -0.1690 -0.6563
   20bbb    H11  597   2.989   6.347   0.320  2.7006  0.2491 -1.8705
   20bbb    H12  598   3.039   6.303   0.160  1.1958  2.6290  0.9095
   20bbb     C7  599   3.142   6.558  -0.105 -0.5479 -0.2589 -0.7127
   20bbb    H13  600   3.158   6.664  -0.129  0.1013  0.1009  1.1695
   20bbb    H14  601   3.135   6.494  -0.194 -1.2106 -1.1373 -0.0524
   20bbb     C8  602   2.907   6.152   0.266 -0.4980  0.1666  0.7027
   20bbb    H15  603   2.861   6.108   0.176  0.5920  0.2788  0.0766
   20bbb    H16  604   2.841   6.152   0.353  0.3056  0.8717  1.3283
   20bbb     C9  605   2.530   6.704   0.246 -1.0856  0.4201 -0.7109
   20bbb    H17  606   2.457   6.687   0.326 -0.1695  1.9821  0.5191
   20bbb    H18  607   2.485   6.697   0.146  0.2041  1.3958 -1.3884
   20bbb     O1  608   3.238   6.510  -0.005 -0.7226  0.1689  0.7570
   21bbb     N1  609   3.493   6.249   1.016 -0.8067  0.0389  0.0799
   21bbb     C1  610   3.473   6.394   1.040  0.1501 -0.1344 -0.3729
   21bbb     H1  611   3.404   6.405   1.125 -0.0224  0.8576 -0.6255
   21bbb     H2  612   3.443   6.450   0.950 -0.5838  1.9627  1.0778
   21bbb     C2  613   3.522   6.180   1.142 -0.7206  0.2392 -0.3806
   21bbb     H3  614   3.442   6.193   1.216  0.0767  0.0496  0.5481
   21bbb     H4  615   3.610   6.220   1.194 -1.7988 -0.7757  2.4355
   21bbb     C3  616   3.594   6.211   0.909 -0.2806  0.5439 -0.8798
   21bbb     H5  617   3.594   6.105   0.883  0.9918 -0.2707  1.9700
   21bbb     H6  618   3.698   6.216   0.944 -0.6938  1.7181  0.2803
   21bbb     C4  619   3.600   6.300   0.776 -0.2173 -0.1711 -0.6011
   21bbb     H7  620   3.694   6.292   0.722  0.3707  1.8193  0.0343
   21bbb     H8  621   3.604   6.405   0.809  0.2742 -0.2246 -0.4783
   21bbb     C5  622   3.603   6.470   1.090  1.0434 -0.1640  0.4861
   21bbb     H9  623   3.692   6.423   1.046  0.1463 -0.7052 -0.8073
   21bbb    H10  624   3.606   6.454   1.198 -1.3879 -1.2475  0.4597
   21bbb     C6  625   3.527   6.025   1.126 -0.1431  0.1920 -0.1314
   21bbb    H11  626   3.619   5.988   1.079  0.4773  1.3702  0.1270
   21bbb    H12  627   3.447   5.999   1.056 -0.0768 -1.2769  0.3044
   21bbb     C7  628   3.483   6.268   0.685 -0.7480 -0.2175  0.4379
   21bbb    H13  629   3.386   6.270   0.735 -1.0393  0.1655 -0.1386
   21bbb    H14  630   3.502   6.169   0.640  0.7044  1.0780 -2.0209
   21bbb     C8  631   3.518   5.950   1.262 -0.2318  0.1575  0.2364
   21bbb    H15  632   3.581   6.002   1.335 -0.1033  1.9062 -1.0420
   21bbb    H16  633   3.543   5.845   1.247 -1.9771 -0.2539 -0.0405
   21bbb     C9  634   3.604   6.625   1.062 -0.3222  0.4932 -0.4150
   21bbb    H17  635   3.675   6.674   1.130 -0.0922 -0.1232 -0.2017
   21bbb    H18  636   3.509   6.675   1.087  0.0489  0.3964  1.3470
   21bbb     O1  637   3.479   6.373   0.592  0.4016 -0.1390  0.0256
   22bbb     N1  638   1.871   6.844   0.186 -0.5681 -0.2730 -1.2809
   22bbb     C1  639   1.962   6.822   0.313  0.3053  0.2713  0.5183
   22bbb     H1  640   1.955   6.718   0.347  1.6936 -1.2162 -3.1638
   22bbb     H2  641   1.942   6.890   0.397  2.2233 -0.0351  1.2634
   22bbb     C2  642   1.857   6.985   0.140 -0.2187 -0.1093  0.4615
   22bbb     H3  643   1.801   6.981   0.046  0.8427  2.7048 -0.3981
   22bbb     H4  644   1.956   7.026   0.119 -0.9261  2.0369  1.1019
   22bbb     C3  645   1.900   6.746   0.085  0.4201  0.1278  0.0055
   22bbb     H5  646   2.003   6.761   0.050  1.0491  0.5857  1.9115
   22bbb     H6  647   1.842   6.757  -0.007  1.2471  0.6117 -0.4788
   22bbb     C4  648   1.872   6.595   0.132 -0.5283  0.3514  0.4687
   22bbb     H7  649   1.836   6.548   0.040 -0.6414 -2.1386  1.7154
   22bbb     H8  650   1.789   6.583   0.202 -1.7957  0.4004 -0.9792
   22bbb     C5  651   2.111   6.858   0.294 -0.5263  0.6529 -0.1593
   22bbb     H9  652   2.120   6.965   0.270  0.3796  0.4252 -0.9182
   22bbb    H10  653   2.136   6.799   0.205  0.4891  0.8949 -0.0505
   22bbb     C6  654   1.789   7.079   0.235  0.3245 -0.8772 -0.3966
   22bbb    H11  655   1.877   7.113   0.292 -1.2510  1.1379  0.9578
   22bbb    H12  656   1.718   7.020   0.294 -1.2109  0.1294 -1.1707
   22bbb     C7  657   2.002   6.520   0.180 -0.5450  0.0266  0.7929
   22bbb    H13  658   1.977   6.461   0.269  0.1058 -4.0924 -1.4932
   22bbb    H14  659   2.076   6.595   0.212 -0.5963  0.9193 -1.0348
   22bbb     C8  660   1.712   7.196   0.170  0.0028  0.2429 -0.4866
   22bbb    H15  661   1.667   7.172   0.073 -1.1579  2.7171 -0.6314
   22bbb    H16  662   1.779   7.281   0.154  1.5378 -0.7239  0.5186
   22bbb     C9  663   2.198   6.816   0.412  0.2606  0.2312 -0.2702
   22bbb    H17  664   2.172   6.879   0.498  0.8591 -0.7576  0.6574
   22bbb    H18  665   2.302   6.834   0.382  0.6291 -1.8232 -0.3643
   22bbb     O1  666   2.052   6.432   0.078 -0.0952 -0.3728 -0.4372
   23bbb     N1  667   2.249   6.395  -0.866  0.1015  0.1600 -0.0348
   23bbb     C1  668   2.112   6.374  -0.811  0.7919  0.0553  0.8303
   23bbb     H1  669   2.064   6.471  -0.793  0.5520  0.4384 -1.5765
   23bbb     H2  670   2.120   6.320  -0.716 -1.3181 -0.2563  0.8891
   23bbb     C2  671   2.304   6.276  -0.932 -0.8246  0.1398  0.4787
   23bbb     H3  672   2.408   6.292  -0.962 -1.2229  0.0029 -1.0439
   23bbb     H4  673   2.252   6.261  -1.028 -1.1913 -1.2627  0.8722
   23bbb     C3  674   2.342   6.453  -0.758  0.3174 -0.3711 -0.1294
   23bbb     H5  675   2.441   6.470  -0.803 -0.4068  0.6273 -1.4112
   23bbb     H6  676   2.362   6.378  -0.681  1.4614 -0.0976 -0.1392
   23bbb     C4  677   2.285   6.574  -0.687 -0.2561 -0.8292 -0.3108
   23bbb     H7  678   2.200   6.539  -0.627  1.1397 -1.6105  1.3148
   23bbb     H8  679   2.239   6.635  -0.765 -1.5002 -0.7928  0.4376
   23bbb     C5  680   2.005   6.297  -0.904 -0.9401 -0.2331 -0.6836
   23bbb     H9  681   2.054   6.203  -0.933 -0.3074 -0.3290  0.6060
   23bbb    H10  682   1.991   6.357  -0.994  2.1617  3.1125  0.7924
   23bbb     C6  683   2.308   6.140  -0.854  0.0545 -0.8326 -0.6474
   23bbb    H11  684   2.209   6.113  -0.816 -0.6381  0.1276 -1.6893
   23bbb    H12  685   2.370   6.158  -0.765 -1.3458  2.2424 -0.1512
   23bbb     C7  686   2.392   6.658  -0.606 -0.8999 -0.1200  0.1489
   23bbb    H13  687   2.347   6.759  -0.605 -2.2157 -0.6783 -0.1180
   23bbb    H14  688   2.488   6.667  -0.657 -0.4490  2.0352  1.2532
   23bbb     C8  689   2.366   6.035  -0.950  0.3453  0.5127  0.5927
   23bbb    H15  690   2.285   6.019  -1.021 -1.5875  1.1408  2.5309
   23bbb    H16  691   2.382   5.944  -0.891  2.2799  0.4448  0.0236
   23bbb     C9  692   1.877   6.250  -0.837  0.3049 -0.7022 -0.2997
   23bbb    H17  693   1.807   6.202  -0.907  1.4492 -1.8512 -0.6944
   23bbb    H18  694   1.840   6.342  -0.789  3.1326  0.5024 -0.2612
   23bbb     O1  695   2.413   6.601  -0.478  0.6781  0.2251  0.0519
   24bbb     N1  696   4.133   6.059  -0.717  0.2419  0.6434  0.5093
   24bbb     C1  697   4.107   6.128  -0.846  0.2956  0.3317 -0.1148
   24bbb     H1  698   4.020   6.082  -0.895 -0.2404  1.4872 -0.2934
   24bbb     H2  699   4.187   6.112  -0.920 -0.9383  1.4208 -1.7577
   24bbb     C2  700   4.141   5.915  -0.741 -0.5667 -0.0048 -0.0081
   24bbb     H3  701   4.200   5.865  -0.664 -1.6932 -0.9956  0.2408
   24bbb     H4  702   4.182   5.902  -0.842  0.0116  2.3957 -0.1570
   24bbb     C3  703   4.236   6.113  -0.625 -0.2826  0.7657 -0.2087
   24bbb     H5  704   4.245   6.222  -0.633 -2.0628  0.9615  0.0996
   24bbb     H6  705   4.333   6.073  -0.658 -1.3557 -0.0473 -2.5733
   24bbb     C4  706   4.214   6.071  -0.475  0.2730  0.4532 -0.1090
   24bbb     H7  707   4.294   6.118  -0.416  0.8671 -0.8136  0.1189
   24bbb     H8  708   4.217   5.964  -0.453  1.3921  0.2326 -1.2749
   24bbb     C5  709   4.061   6.273  -0.838  0.1393 -0.8589 -0.1705
   24bbb     H9  710   4.026   6.302  -0.938  0.0733 -1.0272 -0.1968
   24bbb    H10  711   4.157   6.323  -0.820  1.1732 -2.6843 -0.3290
   24bbb     C6  712   4.002   5.849  -0.739 -0.3408  0.4993 -0.6826
   24bbb    H11  713   3.970   5.871  -0.841  0.3202  1.7050 -0.6463
   24bbb    H12  714   3.943   5.888  -0.655 -0.1134 -1.6931  0.5800
   24bbb     C7  715   4.084   6.129  -0.432  0.5728 -0.7427 -0.6771
   24bbb    H13  716   3.993   6.101  -0.487 -0.8459  0.6148  0.8685
   24bbb    H14  717   4.097   6.238  -0.427  0.5977 -0.7569 -0.4236
   24bbb     C8  718   4.010   5.695  -0.740 -0.4109 -0.1736 -0.5896
   24bbb    H15  719   4.067   5.660  -0.828 -0.1791 -0.9478 -0.1356
   24bbb    H16  720   3.907   5.658  -0.741  0.2699 -2.2058 -1.5102
   24bbb     C9  721   3.960   6.302  -0.731  0.8113  0.6222 -0.1590
   24bbb    H17  722   4.009   6.325  -0.635 -0.8424  0.7678  0.6794
   24bbb    H18  723   3.894   6.219  -0.704 -0.3460  1.5789  0.0530
   24bbb     O1  724   4.067   6.080  -0.300 -0.1895  0.1759  0.3661
   25bbb     N1  725   3.677   6.261  -1.227 -0.1885  0.2436 -0.0308
   25bbb     C1  726   3.675   6.412  -1.206 -0.3426  0.2758 -0.1397
   25bbb     H1  727   3.569   6.440  -1.203 -0.2290  0.7207 -0.1865
   25bbb     H2  728   3.716   6.471  -1.289  0.6603  0.1922  0.2855
   25bbb     C2  729   3.705   6.219  -1.368 -0.2907 -0.2801  0.2469
   25bbb     H3  730   3.773   6.294  -1.410  0.5244 -0.5453  1.0488
   25bbb     H4  731   3.619   6.218  -1.436  1.9094  1.8267 -2.8674
   25bbb     C3  732   3.558   6.189  -1.182 -0.5115 -0.0424  0.6900
   25bbb     H5  733   3.571   6.083  -1.206  0.3368  0.1062  0.4428
   25bbb     H6  734   3.478   6.228  -1.246  1.9172  1.4094 -1.6649
   25bbb     C4  735   3.521   6.197  -1.031  0.0951  0.0693 -0.3356
   25bbb     H7  736   3.420   6.156  -1.019 -0.3904  0.8541 -1.5657
   25bbb     H8  737   3.504   6.301  -1.000  1.5619  0.4151 -0.6413
   25bbb     C5  738   3.751   6.446  -1.073 -0.1643 -0.4790 -0.1579
   25bbb     H9  739   3.852   6.404  -1.073 -0.2320 -0.8125 -3.0318
   25bbb    H10  740   3.704   6.404  -0.983  0.1542  0.5803  0.5195
   25bbb     C6  741   3.789   6.096  -1.372  0.1560 -0.2241  0.5073
   25bbb    H11  742   3.725   6.022  -1.323  1.2655  0.4067  3.0912
   25bbb    H12  743   3.870   6.134  -1.309  0.4273  2.7217 -1.4059
   25bbb     C7  744   3.631   6.129  -0.947  0.3811  0.7704 -0.1832
   25bbb    H13  745   3.721   6.191  -0.948  0.7381  0.2714  0.5385
   25bbb    H14  746   3.656   6.033  -0.993 -1.5247 -0.4606  1.2111
   25bbb     C8  747   3.818   6.054  -1.518  0.2251 -0.5804 -0.7617
   25bbb    H15  748   3.868   6.143  -1.559  1.0485 -0.2243  0.9196
   25bbb    H16  749   3.727   6.027  -1.574 -0.2675 -0.6105  0.0301
   25bbb     C9  750   3.760   6.606  -1.060 -0.2178 -0.4127 -0.4264
   25bbb    H17  751   3.776   6.655  -1.157  1.1275  2.3659  1.0979
   25bbb    H18  752   3.843   6.636  -0.996 -2.1413 -0.0632  2.0537
   25bbb     O1  753   3.572   6.111  -0.817  0.5411  0.3517  0.2246
   26bbb     N1  754   2.926   5.664   1.457  0.3389  0.3528 -0.2801
   26bbb     C1  755   3.057   5.606   1.457 -0.4837  0.1874  0.6436
   26bbb     H1  756   3.080   5.570   1.558 -1.3423  0.5485  0.9797
   26bbb     H2  757   3.141   5.676   1.444  0.1448 -0.5084  0.8629
   26bbb     C2  758   2.879   5.751   1.340 -0.0799  0.5342 -0.0254
   26bbb     H3  759   2.778   5.789   1.358 -0.1858 -0.6498  2.2741
   26bbb     H4  760   2.885   5.682   1.255  1.7746  1.4277 -0.6646
   26bbb     C3  761   2.822   5.577   1.522 -0.1550 -0.3543  0.2311
   26bbb     H5  762   2.869   5.502   1.587 -1.9365 -0.7271  1.1599
   26bbb     H6  763   2.762   5.525   1.446 -0.9851 -1.8916  1.8512
   26bbb     C4  764   2.717   5.658   1.607 -0.1936  0.3310 -0.1387
   26bbb     H7  765   2.653   5.721   1.543 -0.3156  0.6292  0.2706
   26bbb     H8  766   2.763   5.723   1.682  0.1994  3.2271 -2.6604
   26bbb     C5  767   3.082   5.492   1.352  0.5018 -0.3874 -0.0480
   26bbb     H9  768   3.067   5.541   1.255 -1.0459 -0.5248  0.0890
   26bbb    H10  769   3.001   5.419   1.365  0.6792 -0.2897  1.8840
   26bbb     C6  770   2.969   5.870   1.308  0.2308  0.2038  0.0738
   26bbb    H11  771   2.935   5.915   1.213  0.2690  0.2150  0.0653
   26bbb    H12  772   3.065   5.820   1.291 -0.0202  0.3215 -1.9037
   26bbb     C7  773   2.601   5.570   1.667 -0.1313  0.1179 -0.2324
   26bbb    H13  774   2.529   5.548   1.588  1.2377 -1.9209 -0.9907
   26bbb    H14  775   2.560   5.632   1.748  0.7158  0.7497 -0.2702
   26bbb     C8  776   2.991   5.972   1.415  0.2334  0.2288  0.0736
   26bbb    H15  777   3.020   5.914   1.504 -2.2227  0.8655  1.3834
   26bbb    H16  778   2.899   6.023   1.447  0.9661  0.9467  1.1227
   26bbb     C9  779   3.208   5.417   1.379 -0.9526 -0.4190  0.4306
   26bbb    H17  780   3.219   5.321   1.327 -0.3355  0.2385 -0.7092
   26bbb    H18  781   3.210   5.381   1.483 -0.8893 -2.0874 -0.1249
   26bbb     O1  782   2.663   5.458   1.733  0.1643  0.3022 -0.2127
   27bbb     N1  783   2.701   4.789   1.149 -0.1206 -0.0784 -0.1426
   27bbb     C1  784   2.800   4.686   1.096 -0.0308 -0.3169  0.4419
   27bbb     H1  785   2.859   4.722   1.011  1.1398  0.8256  1.6959
   27bbb     H2  786   2.754   4.592   1.063  3.8244 -2.3814  0.4081
   27bbb     C2  787   2.603   4.850   1.053  0.1486  0.3274  0.7413
   27bbb     H3  788   2.545   4.934   1.093 -0.1599  0.4882 -0.0329
   27bbb     H4  789   2.520   4.779   1.038  0.8741 -0.7515  1.6670
   27bbb     C3  790   2.666   4.793   1.294 -0.0136 -0.5311 -0.1009
   27bbb     H5  791   2.610   4.882   1.324  1.5489  0.3410  0.3461
   27bbb     H6  792   2.755   4.786   1.358 -0.7590 -1.4921  0.8682
   27bbb     C4  793   2.572   4.672   1.333  0.7622  0.2572  0.5906
   27bbb     H7  794   2.637   4.586   1.309  0.3170 -0.0703  0.5442
   27bbb     H8  795   2.480   4.682   1.274  1.1772 -1.3162 -0.3952
   27bbb     C5  796   2.912   4.657   1.197  0.5089 -0.0095 -0.2198
   27bbb     H9  797   2.862   4.607   1.280  0.9079  0.2271  0.1679
   27bbb    H10  798   2.956   4.751   1.231 -0.3401  0.8034 -1.2921
   27bbb     C6  799   2.650   4.878   0.904 -0.3483  0.1975  0.3971
   27bbb    H11  800   2.707   4.795   0.860 -1.0417  1.1938 -2.6828
   27bbb    H12  801   2.721   4.961   0.892 -1.3412  0.9738 -0.2927
   27bbb     C7  802   2.524   4.674   1.477 -0.4034 -0.0960 -0.4440
   27bbb    H13  803   2.435   4.610   1.482 -0.0072 -0.8440 -2.1904
   27bbb    H14  804   2.506   4.781   1.493  1.5187 -0.2099  3.6589
   27bbb     C8  805   2.534   4.883   0.805  0.0725 -0.1584 -0.7627
   27bbb    H15  806   2.479   4.975   0.829  1.2024  0.9318 -2.2126
   27bbb    H16  807   2.457   4.805   0.813 -2.0018  1.7957 -0.7313
   27bbb     C9  808   3.012   4.558   1.127  0.0586 -0.3154  0.1102
   27bbb    H17  809   3.091   4.546   1.202 -0.9099  2.0342  1.6092
   27bbb    H18  810   3.055   4.605   1.038 -0.1067 -0.5461 -0.0935
   27bbb     O1  811   2.631   4.641   1.560  0.6090 -0.0785  0.1538
   28bbb     N1  812   2.081   5.894   0.170 -0.0207  0.0083 -0.0132
   28bbb     C1  813   1.943   5.947   0.213  0.3207  0.1657  0.5134
   28bbb     H1  814   1.893   5.870   0.273  0.5158 -1.0478 -0.8325
   28bbb     H2  815   1.883   5.964   0.123 -0.4634 -0.8157  0.8323
   28bbb     C2  816   2.080   5.831   0.033 -0.4551  0.6569  0.2452
   28bbb     H3  817   1.988   5.774   0.015 -0.3443  0.7488 -0.6840
   28bbb     H4  818   2.160   5.756   0.021 -2.0305 -0.9300 -0.8938
   28bbb     C3  819   2.160   5.815   0.268  0.5339 -0.0712 -0.3253
   28bbb     H5  820   2.131   5.709   0.260  1.3981 -0.2453 -1.4121
   28bbb     H6  821   2.136   5.846   0.370 -0.9434  0.6077 -0.8469
   28bbb     C4  822   2.315   5.833   0.251  0.1827  0.0585 -0.6083
   28bbb     H7  823   2.328   5.929   0.200  1.2347 -0.7861 -2.0082
   28bbb     H8  824   2.340   5.759   0.175 -2.5675 -1.8010  0.1503
   28bbb     C5  825   1.949   6.072   0.307  0.2160  0.5987  0.1049
   28bbb     H9  826   2.010   6.145   0.254 -0.6582 -1.2335 -3.7545
   28bbb    H10  827   1.992   6.035   0.401 -1.0337  1.4043  1.0219
   28bbb     C6  828   2.098   5.932  -0.081  0.0594 -0.0081 -0.2810
   28bbb    H11  829   2.189   5.990  -0.060  0.1004  0.3260 -1.3631
   28bbb    H12  830   2.015   6.003  -0.082 -0.3848 -0.4639  1.0964
   28bbb     C7  831   2.392   5.814   0.383  0.3302 -0.0038 -0.3749
   28bbb    H13  832   2.351   5.870   0.468  0.2118  0.2251 -0.5805
   28bbb    H14  833   2.498   5.840   0.368  0.6337 -0.4862  0.8336
   28bbb     C8  834   2.099   5.855  -0.218  1.0197  0.1585 -0.6077
   28bbb    H15  835   2.102   5.928  -0.299  2.8237  1.9735  0.9929
   28bbb    H16  836   2.002   5.805  -0.230  0.7487  0.4657  0.2136
   28bbb     C9  837   1.804   6.133   0.330  0.6265 -0.0957  0.4929
   28bbb    H17  838   1.735   6.055   0.363 -0.0385  1.1397  2.1582
   28bbb    H18  839   1.766   6.170   0.234  1.4783 -0.0368  0.1682
   28bbb     O1  840   2.380   5.680   0.427 -0.2396  0.4303 -0.1484
   29bbb     N1  841   1.271   5.598   0.614  0.4370  1.0251  0.5520
   29bbb     C1  842   1.266   5.544   0.749 -0.1684 -0.0408  0.1185
   29bbb     H1  843   1.238   5.625   0.818  0.1639  1.0655 -1.0216
   29bbb     H2  844   1.370   5.511   0.764 -0.3287 -0.2755  0.7736
   29bbb     C2  845   1.315   5.491   0.516 -0.7862  0.3222  0.2755
   29bbb     H3  846   1.243   5.408   0.515  1.4935 -1.8018  1.7260
   29bbb     H4  847   1.410   5.448   0.550  0.0388  0.7746 -1.3375
   29bbb     C3  848   1.345   5.728   0.617 -0.0568  0.0210  0.1499
   29bbb     H5  849   1.313   5.793   0.699  1.0473  0.5956  0.1546
   29bbb     H6  850   1.328   5.778   0.521 -0.5247 -1.3802 -0.5199
   29bbb     C4  851   1.492   5.710   0.642 -0.0740 -0.3027 -0.2974
   29bbb     H7  852   1.541   5.640   0.573  0.8702  0.1502 -0.1086
   29bbb     H8  853   1.516   5.673   0.742 -1.1411  3.2771  1.4591
   29bbb     C5  854   1.182   5.418   0.781  0.7233  0.1481  0.3083
   29bbb     H9  855   1.219   5.329   0.730 -1.4350 -0.9876  0.5905
   29bbb    H10  856   1.078   5.431   0.747 -0.3658  1.2174  3.6143
   29bbb     C6  857   1.316   5.541   0.370  0.2551 -0.8612  0.1904
   29bbb    H11  858   1.398   5.612   0.357 -0.0417  0.1637  3.0687
   29bbb    H12  859   1.230   5.607   0.353  2.9960  2.4000 -2.2347
   29bbb     C7  860   1.578   5.841   0.641 -0.0934 -0.0276 -0.2720
   29bbb    H13  861   1.532   5.907   0.715  0.5571 -1.8406  1.8718
   29bbb    H14  862   1.559   5.881   0.540 -1.2337 -0.9120 -0.4236
   29bbb     C8  863   1.313   5.434   0.264 -0.2094  0.4741 -0.4570
   29bbb    H15  864   1.301   5.467   0.160 -2.2326  0.3375 -0.3205
   29bbb    H16  865   1.223   5.371   0.269  1.1829 -1.8598 -2.4831
   29bbb     C9  866   1.184   5.381   0.934  0.0425 -0.5263  0.1365
   29bbb    H17  867   1.112   5.447   0.983  0.6229  2.5629 -2.8578
   29bbb    H18  868   1.284   5.388   0.980 -0.6049 -1.6007  1.8200
   29bbb     O1  869   1.720   5.799   0.668  0.3551 -0.7717  0.3306
   30bbb     N1  870   5.082   5.356  -0.747 -0.0245 -0.0986  0.2792
   30bbb     C1  871   5.227   5.346  -0.710  0.8315  0.8080 -0.5796
   30bbb     H1  872   5.288   5.412  -0.773  1.0802  1.0031 -0.1431
   30bbb     H2  873   5.256   5.242  -0.727 -0.6050  0.5724 -1.8557
   30bbb     C2  874   5.052   5.266  -0.861 -0.0665 -0.6720  0.7386
   30bbb     H3  875   5.130   5.272  -0.938  0.7807  1.8196  1.6674
   30bbb     H4  876   4.961   5.285  -0.919  0.1422 -3.4294 -0.6257
   30bbb     C3  877   5.040   5.494  -0.770 -0.6624  0.0417 -0.1573
   30bbb     H5  878   5.065   5.526  -0.872 -2.4315 -0.3028 -0.7356
   30bbb     H6  879   5.078   5.559  -0.691  0.2464 -0.7181  0.0530
   30bbb     C4  880   4.888   5.505  -0.752  0.0084 -0.2525 -0.1210
   30bbb     H7  881   4.833   5.434  -0.815 -0.8452  0.1397  0.1623
   30bbb     H8  882   4.852   5.606  -0.779  0.9799 -0.2815 -1.6500
   30bbb     C5  883   5.249   5.374  -0.558 -0.0014  0.4469 -0.4690
   30bbb     H9  884   5.186   5.308  -0.497  1.1863  0.4745  0.8412
   30bbb    H10  885   5.228   5.476  -0.523 -1.2957 -0.2463  0.8889
   30bbb     C6  886   5.047   5.111  -0.816  0.2955  0.4404  0.3167
   30bbb    H11  887   4.965   5.107  -0.744  1.0908  1.6765  1.3155
   30bbb    H12  888   5.144   5.082  -0.775  0.5549 -0.1368 -0.6464
   30bbb     C7  889   4.844   5.482  -0.609  0.0813  0.6943 -0.0845
   30bbb    H13  890   4.870   5.573  -0.554 -0.0635  0.1749  0.8624
   30bbb    H14  891   4.896   5.395  -0.567 -3.4939 -2.6183 -1.8954
   30bbb     C8  892   5.013   5.006  -0.927  0.0140 -0.3268  0.3176
   30bbb    H15  893   5.095   5.017  -0.999  0.4609 -0.9360  0.7193
   30bbb    H16  894   4.916   5.029  -0.973  0.5652 -0.2804 -0.8642
   30bbb     C9  895   5.399   5.346  -0.515 -0.0699  0.4673 -0.3331
   30bbb    H17  896   5.446   5.252  -0.545  0.0626  0.3104  0.3357
   30bbb    H18  897   5.399   5.336  -0.405 -0.1040 -1.6224 -0.4876
   30bbb     O1  898   4.702   5.456  -0.611 -0.2826 -0.2108 -0.4879
   31bbb     N1  899   3.682   5.647  -1.067  0.3123 -0.0483 -0.0897
   31bbb     C1  900   3.588   5.727  -1.146 -0.2117  0.5289 -0.2053
   31bbb     H1  901   3.627   5.828  -1.166 -0.1400  0.8995  1.5858
   31bbb     H2  902   3.501   5.737  -1.081 -0.3016  0.6872 -0.3499
   31bbb     C2  903   3.616   5.563  -0.957  0.1985 -0.1891  0.7779
   31bbb     H3  904   3.512   5.538  -0.978  0.4790 -1.3560  0.6977
   31bbb     H4  905   3.613   5.623  -0.865 -0.6997  0.6175  0.2398
   31bbb     C3  906   3.817   5.711  -1.044  0.0959  0.3667 -0.2280
   31bbb     H5  907   3.867   5.631  -0.987 -2.3869 -1.0794  0.0347
   31bbb     H6  908   3.793   5.797  -0.981  0.7738  1.4120 -1.3677
   31bbb     C4  909   3.894   5.744  -1.177  0.3150 -0.1664 -0.0869
   31bbb     H7  910   3.828   5.804  -1.241 -0.0413 -0.8792 -0.3944
   31bbb     H8  911   3.907   5.649  -1.231 -2.4861  0.2833 -1.7499
   31bbb     C5  912   3.546   5.659  -1.277  0.2341  0.0185  1.1072
   31bbb     H9  913   3.512   5.558  -1.254 -1.6616  0.6876  1.4233
   31bbb    H10  914   3.634   5.655  -1.343 -0.9980  0.2740 -0.6287
   31bbb     C6  915   3.694   5.437  -0.927  0.7615 -0.7795 -0.1501
   31bbb    H11  916   3.803   5.448  -0.920  0.9954 -1.3126 -2.1501
   31bbb    H12  917   3.673   5.363  -1.006 -0.9160 -0.4514 -0.0447
   31bbb     C7  918   4.034   5.816  -1.160 -0.1357 -0.2678 -0.2155
   31bbb    H13  919   4.028   5.911  -1.104  1.2876 -0.4309  0.2511
   31bbb    H14  920   4.081   5.838  -1.257 -1.1100 -0.7488 -0.8091
   31bbb     C8  921   3.635   5.363  -0.801 -0.2665 -0.5635  0.2648
   31bbb    H15  922   3.526   5.358  -0.811 -0.2095 -0.0869 -0.7396
   31bbb    H16  923   3.662   5.421  -0.711  0.6614  1.1305 -1.0494
   31bbb     C9  924   3.433   5.735  -1.359 -0.2405 -0.0012 -0.2491
   31bbb    H17  925   3.337   5.732  -1.306 -0.4280  0.2976 -0.5700
   31bbb    H18  926   3.424   5.682  -1.454  2.3331 -1.1535  0.0524
   31bbb     O1  927   4.118   5.722  -1.102  0.5266 -0.3546 -0.1429
   32bbb     N1  928   3.794   4.414  -0.149  0.0764  0.2917  0.1218
   32bbb     C1  929   3.824   4.268  -0.173 -0.1454  0.3878 -0.4009
   32bbb     H1  930   3.860   4.213  -0.085 -0.5921  0.5952 -0.0886
   32bbb     H2  931   3.912   4.268  -0.239  0.5364 -1.0519  0.4339
   32bbb     C2  932   3.897   4.478  -0.075  0.3866 -0.4966 -0.1452
   32bbb     H3  933   3.918   4.428   0.020 -1.2914  1.6754  1.4782
   32bbb     H4  934   3.857   4.577  -0.050 -0.1626 -0.4536 -1.1178
   32bbb     C3  935   3.656   4.434  -0.088  0.3542 -0.2382  0.3427
   32bbb     H5  936   3.581   4.389  -0.153  0.0655 -0.4966  0.8434
   32bbb     H6  937   3.646   4.543  -0.089 -1.3931 -0.3640  1.0309
   32bbb     C4  938   3.651   4.384   0.054  0.7204 -0.0945 -1.2379
   32bbb     H7  939   3.724   4.432   0.122 -0.8400 -1.7736  1.8329
   32bbb     H8  940   3.668   4.277   0.064  0.5707  0.0334  0.7827
   32bbb     C5  941   3.718   4.184  -0.241  0.2859 -0.1437  0.1857
   32bbb     H9  942   3.679   4.234  -0.331  0.9707 -1.4952 -0.9129
   32bbb    H10  943   3.631   4.172  -0.175 -1.8571  0.8910 -2.2592
   32bbb     C6  944   4.034   4.494  -0.146 -0.5305  0.0456  0.4021
   32bbb    H11  945   4.027   4.595  -0.190  1.5792  0.1856  0.3109
   32bbb    H12  946   4.056   4.429  -0.231  0.7125 -0.9949  1.4840
   32bbb     C7  947   3.511   4.412   0.120  0.1111 -0.7156  0.5607
   32bbb    H13  948   3.507   4.386   0.226  0.7964 -0.2525  0.7100
   32bbb    H14  949   3.436   4.358   0.061 -0.9700 -0.5861  1.7755
   32bbb     C8  950   4.149   4.499  -0.042  0.2490  0.8461  0.4617
   32bbb    H15  951   4.157   4.404   0.012  0.4511  0.9163  0.5582
   32bbb    H16  952   4.132   4.577   0.034  0.7251  0.2598  1.1769
   32bbb     C9  953   3.775   4.043  -0.289  0.8138  0.4336  0.1774
   32bbb    H17  954   3.692   3.974  -0.307  0.5558  0.2236  1.9367
   32bbb    H18  955   3.834   4.002  -0.206  0.6989  0.9018  0.4936
   32bbb     O1  956   3.467   4.556   0.115 -0.4444 -0.0590  0.4565
   33bbb     N1  957   2.905   4.922   0.220  0.1061  0.1358 -0.4039
   33bbb     C1  958   2.757   4.939   0.210 -0.2455  0.1557  0.5120
   33bbb     H1  959   2.735   4.962   0.105 -2.0651 -0.8012  0.6352
   33bbb     H2  960   2.714   5.020   0.270 -2.5013 -0.9136  0.4484
   33bbb     C2  961   2.948   4.868   0.353 -0.5528  0.5563 -0.2053
   33bbb     H3  962   2.892   4.781   0.389  1.9012 -0.5568  1.1721
   33bbb     H4  963   2.927   4.955   0.416  0.9680  1.2018 -0.5482
   33bbb     C3  964   2.983   5.040   0.179 -0.6927  0.9593  0.1737
   33bbb     H5  965   3.089   5.010   0.181 -0.9363 -0.0368 -0.7870
   33bbb     H6  966   2.969   5.117   0.256  0.5908 -0.1106  1.5630
   33bbb     C4  967   2.975   5.089   0.027  0.4327  0.0561  1.0998
   33bbb     H7  968   3.063   5.147  -0.002 -0.8635  0.9152 -1.4188
   33bbb     H8  969   2.893   5.159   0.006  0.0291 -0.8444 -0.5124
   33bbb     C5  970   2.671   4.818   0.244  0.2908  0.2022 -0.0420
   33bbb     H9  971   2.664   4.803   0.353 -0.3675 -0.3891 -0.1544
   33bbb    H10  972   2.712   4.729   0.193 -0.1775  0.3808 -0.7389
   33bbb     C6  973   3.099   4.815   0.352 -0.4329  0.6990 -0.4972
   33bbb    H11  974   3.169   4.900   0.347  2.3835 -1.5613 -2.6336
   33bbb    H12  975   3.139   4.758   0.268 -0.3228  1.0720 -0.7003
   33bbb     C7  976   2.964   4.984  -0.085 -0.3013  0.0018  0.0214
   33bbb    H13  977   2.891   5.007  -0.163 -0.5515  2.7421  0.9564
   33bbb    H14  978   2.933   4.892  -0.034  1.1483 -0.8603 -0.6048
   33bbb     C8  979   3.126   4.743   0.489  0.8319 -0.4318 -0.3878
   33bbb    H15  980   3.232   4.713   0.491  0.9659  0.0602  0.1050
   33bbb    H16  981   3.053   4.662   0.487 -1.2794  1.3772 -1.5267
   33bbb     C9  982   2.521   4.826   0.198  0.4955  0.2772 -0.0912
   33bbb    H17  983   2.484   4.922   0.236  0.0359  0.7286 -1.6196
   33bbb    H18  984   2.463   4.746   0.244 -0.9959  1.4974  0.2311
   33bbb     O1  985   3.091   4.953  -0.139  0.4489  0.0892  0.1295
   34bbb     N1  986   5.209   5.904   0.867  0.4765 -0.6412  0.0913
   34bbb     C1  987   5.177   5.757   0.844  0.0448 -0.5102  0.7302
   34bbb     H1  988   5.070   5.736   0.843  0.1730 -1.1879 -0.7912
   34bbb     H2  989   5.222   5.693   0.921 -0.0475 -0.0310  1.1902
   34bbb     C2  990   5.196   5.943   1.009 -0.3474 -0.0295  0.4959
   34bbb     H3  991   5.099   5.916   1.054  0.7782 -1.2717  2.3429
   34bbb     H4  992   5.205   6.051   1.026 -0.4379  0.3587 -1.6995
   34bbb     C3  993   5.121   5.986   0.772 -0.4035  0.0409  0.1275
   34bbb     H5  994   5.020   5.990   0.815 -0.3998 -1.3530  0.3169
   34bbb     H6  995   5.119   5.935   0.675 -0.3670 -0.9868  0.6486
   34bbb     C4  996   5.160   6.138   0.759 -1.0898  0.4420  0.0903
   34bbb     H7  997   5.262   6.136   0.719 -1.7892  1.6903 -1.8828
   34bbb     H8  998   5.161   6.181   0.860  0.4517 -0.1736  0.3668
   34bbb     C5  999   5.223   5.699   0.709  0.3872  0.1845  0.5497
   34bbb     H9 1000   5.331   5.695   0.728  0.2750 -1.9778  0.9468
   34bbb    H10 1001   5.198   5.746   0.613 -0.6154 -2.0052 -0.3315
   34bbb     C6 1002   5.310   5.889   1.094  0.2122 -0.7229  0.7577
   34bbb    H11 1003   5.399   5.923   1.040  0.6909 -1.9012  0.7773
   34bbb    H12 1004   5.311   5.781   1.079 -2.8319 -0.4467 -2.9886
   34bbb     C7 1005   5.077   6.215   0.658  0.0889  0.7014  0.5085
   34bbb    H13 1006   5.113   6.318   0.658  3.4041 -0.3118 -1.0604
   34bbb    H14 1007   4.968   6.209   0.672  0.2022  0.9664  1.6190
   34bbb     C8 1008   5.310   5.923   1.239  0.4713  0.5002  0.1456
   34bbb    H15 1009   5.341   6.028   1.251  1.7348  0.1761 -0.1854
   34bbb    H16 1010   5.380   5.851   1.284  0.2713 -0.2870 -0.7824
   34bbb     C9 1011   5.183   5.547   0.701  0.3633 -0.8133 -0.0752
   34bbb    H17 1012   5.227   5.498   0.788 -1.2037 -0.4770  0.9339
   34bbb    H18 1013   5.215   5.510   0.602  1.6559 -0.4467  0.1825
   34bbb     O1 1014   5.116   6.154   0.537  0.7935  0.1621  0.0501
   35bbb     N1 1015   4.906   6.827  -0.583  0.1522  0.4870  0.0652
   35bbb     C1 1016   4.855   6.941  -0.664  0.6041  0.3552  0.0253
   35bbb     H1 1017   4.916   6.951  -0.754  0.9035 -1.4349 -0.0084
   35bbb     H2 1018   4.844   7.033  -0.605 -2.2607  0.5885 -0.7146
   35bbb     C2 1019   5.055   6.825  -0.591  0.6266 -0.1903 -0.3501
   35bbb     H3 1020   5.089   6.830  -0.695  1.5652 -0.1793 -0.0473
   35bbb     H4 1021   5.098   6.730  -0.558  1.5673 -0.0869 -1.2378
   35bbb     C3 1022   4.840   6.812  -0.448 -0.0178 -0.1903  0.2455
   35bbb     H5 1023   4.732   6.828  -0.444  0.1538  0.7797  1.3679
   35bbb     H6 1024   4.874   6.898  -0.390  0.9088  0.1859 -0.8222
   35bbb     C4 1025   4.890   6.692  -0.373  0.5805 -0.3052 -0.8120
   35bbb     H7 1026   4.984   6.714  -0.319  0.2926 -0.6352 -0.1633
   35bbb     H8 1027   4.917   6.609  -0.440  3.1646 -1.1237  1.0625
   35bbb     C5 1028   4.714   6.919  -0.718  0.4423 -0.3154  0.9133
   35bbb     H9 1029   4.679   7.003  -0.780 -1.5863 -0.4130  1.8509
   35bbb    H10 1030   4.642   6.912  -0.636 -2.7550  0.8429 -1.5515
   35bbb     C6 1031   5.125   6.945  -0.511  0.4828 -0.8448  0.1474
   35bbb    H11 1032   5.090   6.927  -0.408  0.4346 -2.6370 -0.1446
   35bbb    H12 1033   5.087   7.044  -0.541 -0.7146 -1.5289 -0.6674
   35bbb     C7 1034   4.786   6.638  -0.271 -0.3401  0.3003 -0.1878
   35bbb    H13 1035   4.695   6.619  -0.331  0.4575 -1.5082 -0.8840
   35bbb    H14 1036   4.759   6.706  -0.190 -2.2910  0.1072 -0.6192
   35bbb     C8 1037   5.283   6.942  -0.517  0.0178 -0.4552  0.0143
   35bbb    H15 1038   5.321   7.044  -0.501  1.9393 -0.9217 -1.2279
   35bbb    H16 1039   5.322   6.919  -0.617  0.2066  2.5910 -0.7178
   35bbb     C9 1040   4.710   6.785  -0.801 -0.0998 -0.8255  0.8604
   35bbb    H17 1041   4.758   6.708  -0.739  1.0915  0.2154  1.2873
   35bbb    H18 1042   4.769   6.795  -0.893 -0.2639  1.2537  0.9350
   35bbb     O1 1043   4.840   6.516  -0.219  0.0621  0.4583  0.3761
   36bbb     N1 1044   5.443   5.080   0.420  0.3461  0.2885  0.3087
   36bbb     C1 1045   5.545   5.153   0.497  0.3476  0.0199  0.3981
   36bbb     H1 1046   5.623   5.185   0.427 -0.7124 -0.8363 -1.2582
   36bbb     H2 1047   5.587   5.090   0.576 -1.3303 -2.7337 -0.7544
   36bbb     C2 1048   5.309   5.052   0.484 -0.5461  0.6953  0.9543
   36bbb     H3 1049   5.255   4.983   0.418 -1.1905  1.4053  0.7165
   36bbb     H4 1050   5.256   5.148   0.494  1.0438  1.6908  0.3298
   36bbb     C3 1051   5.428   5.101   0.278 -0.4140 -0.4851 -0.3643
   36bbb     H5 1052   5.396   5.205   0.264 -1.4731 -0.7193  0.2042
   36bbb     H6 1053   5.346   5.043   0.235 -0.1686 -0.7713 -0.4477
   36bbb     C4 1054   5.549   5.068   0.189 -0.2728 -0.0777 -0.3199
   36bbb     H7 1055   5.585   4.964   0.192  4.0614  1.2000  3.4702
   36bbb     H8 1056   5.639   5.120   0.225  1.4433 -3.0381 -0.0200
   36bbb     C5 1057   5.496   5.287   0.559 -0.0444  0.3732 -0.0034
   36bbb     H9 1058   5.582   5.327   0.615 -0.7217  2.6467 -0.4800
   36bbb    H10 1059   5.416   5.272   0.632 -0.1033  1.8031  0.2606
   36bbb     C6 1060   5.316   4.979   0.616  0.6281 -0.6872  0.4462
   36bbb    H11 1061   5.394   5.029   0.676  0.5848  0.7176 -0.6043
   36bbb    H12 1062   5.356   4.877   0.608  1.6391 -0.3994  1.4581
   36bbb     C7 1063   5.520   5.104   0.040  0.0898  0.8249  0.1902
   36bbb    H13 1064   5.613   5.103  -0.018 -0.2323 -2.9365 -0.5127
   36bbb    H14 1065   5.473   5.203   0.028  0.6513  1.1515  0.6386
   36bbb     C8 1066   5.179   4.987   0.685 -0.5768 -0.5701  0.7241
   36bbb    H15 1067   5.135   5.084   0.658 -0.3806 -0.8673 -0.7457
   36bbb    H16 1068   5.197   4.978   0.792 -0.9469  0.4218  0.8800
   36bbb     C9 1069   5.452   5.394   0.453  0.4030  0.0491  0.1205
   36bbb    H17 1070   5.414   5.481   0.508  1.3239  2.0221 -2.1865
   36bbb    H18 1071   5.368   5.355   0.394 -0.5570  0.8977  0.8764
   36bbb     O1 1072   5.418   5.009  -0.006 -0.4409  0.0265  0.0348
   37bbb     N1 1073   5.268   4.997  -1.294  0.1179  0.1830  0.0347
   37bbb     C1 1074   5.257   5.135  -1.243  0.6943 -0.2024 -0.2904
   37bbb     H1 1075   5.340   5.153  -1.174  0.3598 -3.4218  1.1037
   37bbb     H2 1076   5.165   5.149  -1.185 -0.5194  0.7627 -2.3310
   37bbb     C2 1077   5.152   4.947  -1.373 -0.2393 -0.5575  0.7826
   37bbb     H3 1078   5.172   4.842  -1.397  2.6835  0.0014  0.3906
   37bbb     H4 1079   5.124   5.002  -1.464 -0.4777 -0.3735  0.9641
   37bbb     C3 1080   5.330   4.890  -1.205  0.1574 -1.0488  0.1390
   37bbb     H5 1081   5.319   4.795  -1.258 -0.5956 -1.8529  1.6864
   37bbb     H6 1082   5.271   4.888  -1.112 -0.0683 -2.2435 -0.0219
   37bbb     C4 1083   5.474   4.912  -1.170 -0.1959 -0.0824  0.5200
   37bbb     H7 1084   5.485   5.015  -1.134 -0.0933 -0.9780  3.2996
   37bbb     H8 1085   5.532   4.889  -1.259 -1.2046  0.2258 -0.2337
   37bbb     C5 1086   5.243   5.252  -1.345 -0.0687 -0.2404  0.2475
   37bbb     H9 1087   5.153   5.243  -1.406  1.1061 -0.9449 -1.4440
   37bbb    H10 1088   5.334   5.249  -1.406 -0.8821  0.1206 -1.0147
   37bbb     C6 1089   5.019   4.953  -1.295 -0.0898 -0.1674 -0.2183
   37bbb    H11 1090   4.980   5.056  -1.288 -1.8416 -0.8441  0.6193
   37bbb    H12 1091   5.024   4.919  -1.191  0.4958 -1.5285 -0.6671
   37bbb     C7 1092   5.522   4.828  -1.046 -0.2179 -0.5393 -0.1736
   37bbb    H13 1093   5.631   4.814  -1.046  0.1234  1.5777  0.6031
   37bbb    H14 1094   5.484   4.726  -1.056 -2.3251  0.3277 -1.6169
   37bbb     C8 1095   4.921   4.853  -1.370  0.6602  0.3366 -0.1551
   37bbb    H15 1096   4.960   4.751  -1.364 -1.6343 -0.5302  1.1131
   37bbb    H16 1097   4.929   4.865  -1.479 -0.1390  1.3306 -0.1179
   37bbb     C9 1098   5.235   5.385  -1.275  0.0697 -0.4398 -0.1276
   37bbb    H17 1099   5.266   5.462  -1.346  0.5423 -0.5252 -0.0119
   37bbb    H18 1100   5.302   5.378  -1.189 -0.3080 -1.6087  0.0984
   37bbb     O1 1101   5.475   4.896  -0.929  0.0406 -0.0873 -0.3886
   38bbb     N1 1102   4.832   7.250  -0.227 -0.3047 -0.4796 -0.7723
   38bbb     C1 1103   4.862   7.387  -0.281  0.0662 -0.0197 -0.5643
   38bbb     H1 1104   4.930   7.446  -0.219  0.6871 -1.4620  0.1939
   38bbb     H2 1105   4.769   7.446  -0.279 -0.0440 -0.1934 -0.4840
   38bbb     C2 1106   4.962   7.168  -0.213 -0.0877  0.9516 -0.3279
   38bbb     H3 1107   4.981   7.136  -0.316 -1.7838 -0.4107 -0.2597
   38bbb     H4 1108   4.957   7.070  -0.165  0.0640  0.4871 -1.2374
   38bbb     C3 1109   4.728   7.172  -0.299 -0.2841 -0.6289  0.4761
   38bbb     H5 1110   4.717   7.078  -0.243  0.0536 -0.8878  0.1152
   38bbb     H6 1111   4.756   7.133  -0.397 -0.0155 -1.6225  0.9263
   38bbb     C4 1112   4.588   7.243  -0.298 -0.2413 -0.1764 -0.2490
   38bbb     H7 1113   4.570   7.282  -0.399  0.6185  1.8116  0.3140
   38bbb     H8 1114   4.587   7.328  -0.230  2.0668  0.4044 -0.8481
   38bbb     C5 1115   4.918   7.383  -0.427 -0.2811 -0.3633  0.1784
   38bbb     H9 1116   4.876   7.296  -0.479  0.1412  0.8001 -2.2551
   38bbb    H10 1117   5.025   7.363  -0.436  0.0200  1.2543 -0.1776
   38bbb     C6 1118   5.080   7.248  -0.156 -0.1164  0.0356 -0.5950
   38bbb    H11 1119   5.046   7.299  -0.065  0.9119  1.0452 -0.7610
   38bbb    H12 1120   5.113   7.326  -0.225  3.2096  0.0300  0.8336
   38bbb     C7 1121   4.479   7.140  -0.267 -0.2440 -0.0662 -0.0289
   38bbb    H13 1122   4.387   7.198  -0.285  0.2120  1.1283  1.2346
   38bbb    H14 1123   4.474   7.107  -0.162 -1.4623  0.7871  0.2097
   38bbb     C8 1124   5.205   7.158  -0.140 -0.0150 -0.1461  0.1653
   38bbb    H15 1125   5.285   7.218  -0.095 -0.3314  2.5969 -2.5874
   38bbb    H16 1126   5.241   7.119  -0.236  0.3808  2.5637 -0.8842
   38bbb     C9 1127   4.904   7.512  -0.506  0.3087 -0.2438  0.4261
   38bbb    H17 1128   4.958   7.509  -0.601  1.8170 -0.9975  1.2780
   38bbb    H18 1129   4.944   7.596  -0.448  2.1293 -1.5560  1.1341
   38bbb     O1 1130   4.502   7.027  -0.353  0.0349 -0.5545  0.3169
   39bbb     N1 1131   5.228   6.342  -0.757 -0.0548 -0.2706 -0.6873
   39bbb     C1 1132   5.245   6.213  -0.830  0.0458  0.2139 -0.5561
   39bbb     H1 1133   5.215   6.225  -0.935  2.1855 -0.2429 -1.2786
   39bbb     H2 1134   5.175   6.138  -0.791  1.2485  0.3803  2.1545
   39bbb     C2 1135   5.212   6.324  -0.616  0.4241  0.5640 -0.8530
   39bbb     H3 1136   5.283   6.248  -0.580 -1.2919 -0.1620  1.2257
   39bbb     H4 1137   5.111   6.286  -0.596  1.0619 -0.0098  1.6296
   39bbb     C3 1138   5.131   6.439  -0.822 -0.4879  0.6315 -0.2892
   39bbb     H5 1139   5.157   6.451  -0.928 -0.1610 -1.8971 -0.5804
   39bbb     H6 1140   5.133   6.537  -0.774  2.9042  1.1232 -1.1227
   39bbb     C4 1141   4.981   6.388  -0.818 -0.0439 -0.4664  0.0992
   39bbb     H7 1142   4.971   6.279  -0.814 -3.7804 -0.2545 -0.2806
   39bbb     H8 1143   4.932   6.406  -0.915 -1.5028 -0.1394  0.8691
   39bbb     C5 1144   5.390   6.158  -0.826 -0.4688  0.2820  0.2742
   39bbb     H9 1145   5.414   6.137  -0.721  0.5623  1.0898  0.2169
   39bbb    H10 1146   5.462   6.235  -0.856  0.3157  0.4396  2.3786
   39bbb     C6 1147   5.232   6.444  -0.520  0.1457 -0.3593  0.1924
   39bbb    H11 1148   5.156   6.516  -0.551  0.9407  0.4716  0.1217
   39bbb    H12 1149   5.332   6.488  -0.532  0.7647 -1.6895  0.2902
   39bbb     C7 1150   4.903   6.461  -0.699  0.6708 -0.3564  0.3233
   39bbb    H13 1151   4.916   6.569  -0.688 -1.2679 -0.3183  3.8970
   39bbb    H14 1152   4.938   6.424  -0.602  1.8811  0.3711  0.1818
   39bbb     C8 1153   5.199   6.408  -0.373 -0.2671  0.0998 -0.1022
   39bbb    H15 1154   5.091   6.400  -0.362 -0.1677 -0.7839  0.2421
   39bbb    H16 1155   5.232   6.493  -0.311  1.2553 -1.3455  1.1684
   39bbb     C9 1156   5.406   6.032  -0.917 -0.2079 -0.2294  0.1663
   39bbb    H17 1157   5.511   6.003  -0.904  0.3206  1.9052  1.2597
   39bbb    H18 1158   5.416   6.066  -1.021  0.4989  0.3180  0.4033
   39bbb     O1 1159   4.762   6.434  -0.718  0.0933  0.4724  0.0901
   40bbb     N1 1160   4.533   6.223   1.761 -0.8058 -1.0093 -0.1700
   40bbb     C1 1161   4.388   6.250   1.720 -0.3419  0.3222  0.8181
   40bbb     H1 1162   4.381   6.232   1.612 -0.6280  1.6247  0.6033
   40bbb     H2 1163   4.367   6.357   1.722  0.0913  0.5238 -1.6612
   40bbb     C2 1164   4.568   6.080   1.771 -0.0483 -0.1836  0.0390
   40bbb     H3 1165   4.494   6.025   1.830  0.5638 -0.2478  0.7574
   40bbb     H4 1166   4.657   6.067   1.834 -0.9521 -0.5495  1.2809
   40bbb     C3 1167   4.640   6.303   1.692  0.2427  0.2235  0.4505
   40bbb     H5 1168   4.649   6.276   1.586 -0.1476  1.1655  0.1720
   40bbb     H6 1169   4.737   6.277   1.737  0.1631 -1.2948 -0.2016
   40bbb     C4 1170   4.617   6.457   1.691  0.0705  0.0695 -0.3112
   40bbb     H7 1171   4.594   6.484   1.795  1.0507  0.1189 -0.1018
   40bbb     H8 1172   4.526   6.477   1.632 -0.2633 -1.0905 -0.2260
   40bbb     C5 1173   4.283   6.175   1.798  1.0900  0.5999  0.0707
   40bbb     H9 1174   4.313   6.150   1.901  0.2621  1.0853  0.4459
   40bbb    H10 1175   4.266   6.082   1.742 -2.0030 -0.8365  3.0371
   40bbb     C6 1176   4.592   6.020   1.623  0.3281 -0.1848 -0.7140
   40bbb    H11 1177   4.684   6.065   1.585  0.6120 -0.3044 -0.1814
   40bbb    H12 1178   4.508   6.041   1.555 -0.6009 -0.5456  0.2933
   40bbb     C7 1179   4.721   6.564   1.632  0.4272  0.8218 -0.4629
   40bbb    H13 1180   4.814   6.562   1.690  0.5003 -2.0858 -0.5507
   40bbb    H14 1181   4.688   6.669   1.632 -0.4686  0.5550  0.4833
   40bbb     C8 1182   4.605   5.867   1.628  0.1437  0.7756 -0.2594
   40bbb    H15 1183   4.697   5.834   1.680 -0.3884  0.3074  0.4061
   40bbb    H16 1184   4.620   5.831   1.526 -0.4327  0.9663 -0.4093
   40bbb     C9 1185   4.145   6.253   1.804 -0.3681 -0.2295 -0.4363
   40bbb    H17 1186   4.156   6.347   1.860 -0.4171 -0.3311 -0.2550
   40bbb    H18 1187   4.071   6.191   1.856  0.9066 -1.5831 -0.1444
   40bbb     O1 1188   4.750   6.523   1.494  0.2831 -0.1438  0.0736
   41bbb     N1 1189   4.883   5.408   1.233  0.4939  0.6122 -0.1474
   41bbb     C1 1190   4.878   5.262   1.214 -0.3815 -0.0135 -0.1480
   41bbb     H1 1191   4.919   5.218   1.305  1.7370  4.2822  1.2298
   41bbb     H2 1192   4.954   5.235   1.140  0.5963  0.3976  0.6840
   41bbb     C2 1193   5.015   5.453   1.284  0.5391  0.2806  0.4949
   41bbb     H3 1194   5.038   5.395   1.374  0.6728  1.1829  1.0586
   41bbb     H4 1195   5.015   5.560   1.311  0.2203  0.6724 -0.9661
   41bbb     C3 1196   4.773   5.465   1.316  0.2647  0.7818  0.3369
   41bbb     H5 1197   4.771   5.412   1.412  2.1437 -1.1302 -0.6138
   41bbb     H6 1198   4.677   5.435   1.272  1.9947 -0.9477 -2.5996
   41bbb     C4 1199   4.760   5.616   1.348  0.2854 -0.1227 -0.1546
   41bbb     H7 1200   4.823   5.642   1.434 -1.3258  1.3606  0.6607
   41bbb     H8 1201   4.658   5.636   1.386  0.4188 -0.8983  0.6495
   41bbb     C5 1202   4.736   5.200   1.185 -1.0151 -0.2289 -0.1319
   41bbb     H9 1203   4.691   5.254   1.101 -0.1712  1.6775  0.5930
   41bbb    H10 1204   4.673   5.213   1.274 -1.9164  0.8686 -0.9098
   41bbb     C6 1205   5.125   5.446   1.175  0.5001 -0.1367 -0.0583
   41bbb    H11 1206   5.078   5.471   1.079  1.3969 -0.0011 -0.4751
   41bbb    H12 1207   5.151   5.340   1.172 -2.2146 -0.9477  1.2304
   41bbb     C7 1208   4.781   5.709   1.229 -0.2281  0.2089  0.3831
   41bbb    H13 1209   4.716   5.677   1.146 -0.4675 -0.1876  0.7155
   41bbb    H14 1210   4.886   5.700   1.202  0.0515  1.8041  0.8378
   41bbb     C8 1211   5.243   5.548   1.207 -0.0174 -0.1492  0.5529
   41bbb    H15 1212   5.205   5.651   1.205  0.7115  0.1280 -1.5575
   41bbb    H16 1213   5.323   5.542   1.132 -1.1391 -0.8287 -0.6452
   41bbb     C9 1214   4.752   5.054   1.139 -0.5458  0.2123 -0.0290
   41bbb    H17 1215   4.822   5.048   1.054 -0.8216  0.4166 -0.2737
   41bbb    H18 1216   4.655   5.031   1.094  0.9687 -0.0865 -3.4778
   41bbb     O1 1217   4.754   5.846   1.267  0.4542  0.4423 -0.0823
   42bbb     N1 1218   3.005   5.678   0.416  0.1128 -0.6204 -0.0311
   42bbb     C1 1219   2.952   5.551   0.354  0.5473  0.2255 -0.0191
   42bbb     H1 1220   2.882   5.505   0.424  1.1114 -1.5213 -0.5521
   42bbb     H2 1221   3.032   5.476   0.345  0.3588 -0.3622  2.4879
   42bbb     C2 1222   3.011   5.691   0.567 -0.4219  0.7393  1.2517
   42bbb     H3 1223   3.068   5.781   0.593  3.1972 -1.1237  0.5164
   42bbb     H4 1224   3.061   5.600   0.604  1.2596  1.5330  1.0299
   42bbb     C3 1225   3.135   5.727   0.358  0.1733  0.4974 -0.1848
   42bbb     H5 1226   3.129   5.703   0.252 -2.2749  1.9177 -0.4290
   42bbb     H6 1227   3.222   5.683   0.409 -0.1130  0.5512  0.3588
   42bbb     C4 1228   3.143   5.877   0.360  0.3060  0.0530 -0.5227
   42bbb     H7 1229   3.222   5.913   0.293 -0.3534 -1.6593 -2.3004
   42bbb     H8 1230   3.164   5.916   0.461  0.4458  0.1283 -0.5813
   42bbb     C5 1231   2.882   5.566   0.218 -0.1969  0.1434 -0.5723
   42bbb     H9 1232   2.962   5.587   0.145  0.9151  0.8462  0.7999
   42bbb    H10 1233   2.819   5.656   0.216 -1.1314 -0.3624  1.9654
   42bbb     C6 1234   2.875   5.682   0.629  0.5579 -0.6473 -0.3557
   42bbb    H11 1235   2.828   5.587   0.600 -1.8922  0.1698  0.6521
   42bbb    H12 1236   2.806   5.760   0.595  0.9449 -0.0413  0.2226
   42bbb     C7 1237   3.015   5.943   0.315  0.1248 -0.5409  0.1300
   42bbb    H13 1238   2.942   5.928   0.395  0.7576  0.3780  0.9086
   42bbb    H14 1239   2.984   5.892   0.223 -0.2296  0.2496 -0.2066
   42bbb     C8 1240   2.892   5.686   0.786 -0.0437 -0.1717 -0.1303
   42bbb    H15 1241   2.972   5.749   0.827  2.0863 -3.6427  1.4322
   42bbb    H16 1242   2.911   5.582   0.813  1.6643 -0.9766 -3.6987
   42bbb     C9 1243   2.815   5.433   0.171 -0.1308 -1.0455 -0.2779
   42bbb    H17 1244   2.889   5.354   0.185  0.7752 -0.0286  0.8977
   42bbb    H18 1245   2.790   5.444   0.065 -0.6447  2.9317  0.0739
   42bbb     O1 1246   3.038   6.086   0.293  0.2267 -0.1721  0.5946
   43bbb     N1 1247   2.749   7.006   0.637  0.8125 -0.3119 -0.1929
   43bbb     C1 1248   2.892   6.988   0.625  0.0613 -0.3423  0.9995
   43bbb     H1 1249   2.900   6.923   0.537 -0.7137  0.6055  0.2086
   43bbb     H2 1250   2.937   6.940   0.713  2.1717  1.8904  1.2546
   43bbb     C2 1251   2.707   7.048   0.774  0.5187  0.7179 -0.0651
   43bbb     H3 1252   2.744   7.148   0.801 -0.4538  1.7582 -2.3713
   43bbb     H4 1253   2.762   6.980   0.841 -0.2841 -0.9088 -0.9917
   43bbb     C3 1254   2.674   7.083   0.535 -0.2049  0.5738 -0.1288
   43bbb     H5 1255   2.696   7.190   0.539  0.8976  0.3447  0.4923
   43bbb     H6 1256   2.568   7.086   0.563 -0.1837 -0.2337  0.0651
   43bbb     C4 1257   2.681   7.021   0.395  0.2492 -0.3935 -0.6012
   43bbb     H7 1258   2.786   7.026   0.367  0.7745  1.2000  1.3797
   43bbb     H8 1259   2.626   7.086   0.325  0.2320 -2.3896 -2.5247
   43bbb     C5 1260   2.963   7.123   0.606 -0.3178 -0.2056 -0.6431
   43bbb     H9 1261   2.934   7.197   0.682 -0.2994 -0.4745 -0.3738
   43bbb    H10 1262   2.916   7.154   0.512 -1.1240 -1.6247 -0.7383
   43bbb     C6 1263   2.555   7.029   0.808  0.1151  0.0792  0.1290
   43bbb    H11 1264   2.497   7.104   0.753  0.2296 -0.5854 -0.9263
   43bbb    H12 1265   2.550   7.062   0.912  1.6390 -0.3803  0.3811
   43bbb     C7 1266   2.635   6.875   0.398 -0.7072  0.5620 -0.3747
   43bbb    H13 1267   2.550   6.871   0.467 -1.2897 -0.0735 -1.1026
   43bbb    H14 1268   2.711   6.809   0.442 -1.9346 -1.6200 -1.3628
   43bbb     C8 1269   2.496   6.882   0.805 -0.1475  0.3655  0.2629
   43bbb    H15 1270   2.562   6.817   0.864  0.6536  0.2408 -0.7569
   43bbb    H16 1271   2.509   6.847   0.702 -2.2879 -0.2840  0.1566
   43bbb     C9 1272   3.119   7.125   0.587 -0.0566 -0.7656  0.7384
   43bbb    H17 1273   3.164   7.067   0.668  0.7055  1.6324  2.1539
   43bbb    H18 1274   3.152   7.230   0.595 -0.9493 -0.5592  2.1450
   43bbb     O1 1275   2.601   6.829   0.262 -0.7100 -0.5530  0.7107
   44bbb     N1 1276   3.408   5.804   1.784 -0.6616  0.2268 -0.6772
   44bbb     C1 1277   3.376   5.936   1.852 -0.1604 -0.6312  0.5137
   44bbb     H1 1278   3.415   6.016   1.787 -1.4531 -0.5011 -0.1256
   44bbb     H2 1279   3.425   5.949   1.949 -0.4245  0.6922  0.4850
   44bbb     C2 1280   3.387   5.689   1.874  0.1814  0.5662 -0.4068
   44bbb     H3 1281   3.416   5.601   1.815  2.6085  1.0087  0.0210
   44bbb     H4 1282   3.288   5.688   1.921  1.0904 -0.4326  1.5828
   44bbb     C3 1283   3.358   5.785   1.646  0.2019  0.8380 -0.1686
   44bbb     H5 1284   3.249   5.774   1.642  0.5045 -3.4169 -0.8279
   44bbb     H6 1285   3.398   5.690   1.610  1.4216  1.2190  0.1312
   44bbb     C4 1286   3.407   5.887   1.537 -0.0928 -0.5426 -0.5116
   44bbb     H7 1287   3.514   5.882   1.517  0.3184  1.2188  0.9329
   44bbb     H8 1288   3.385   5.988   1.574 -0.8014 -0.5535 -0.8827
   44bbb     C5 1289   3.219   5.965   1.863  0.2323  0.7380  0.2758
   44bbb     H9 1290   3.191   5.885   1.933  1.1067 -0.7632 -1.0041
   44bbb    H10 1291   3.170   5.950   1.766  2.1003  0.1914 -0.6365
   44bbb     C6 1292   3.474   5.692   2.001  0.1934 -0.3163 -0.2998
   44bbb    H11 1293   3.436   5.765   2.074  2.0968  0.2632  0.1849
   44bbb    H12 1294   3.576   5.727   1.978 -0.5860  1.9886 -0.5780
   44bbb     C7 1295   3.340   5.869   1.404 -0.1768  0.3368  0.6479
   44bbb    H13 1296   3.233   5.889   1.413 -0.4139 -0.5081 -0.0898
   44bbb    H14 1297   3.347   5.762   1.380 -0.7034  0.2346  0.9466
   44bbb     C8 1298   3.478   5.551   2.069  0.0348  0.1749 -0.0072
   44bbb    H15 1299   3.553   5.545   2.149 -0.6973 -0.7629  0.6286
   44bbb    H16 1300   3.499   5.461   2.008  0.0654  0.1564  0.0301
   44bbb     C9 1301   3.186   6.100   1.925 -0.2447 -0.5546  0.4977
   44bbb    H17 1302   3.077   6.110   1.926 -0.0431  2.7574  0.5538
   44bbb    H18 1303   3.222   6.183   1.862 -1.4282 -0.0224  0.5052
   44bbb     O1 1304   3.390   5.961   1.303  0.3364  0.0434  0.0910
   45bbb     N1 1305   4.117   6.734   0.873 -0.4950  0.1210  0.0610
   45bbb     C1 1306   4.219   6.837   0.885  0.5396  0.0979 -0.8599
   45bbb     H1 1307   4.245   6.873   0.784 -0.3928 -0.6393 -1.3835
   45bbb     H2 1308   4.310   6.796   0.929  0.9214  2.1787  0.4068
   45bbb     C2 1309   4.153   6.617   0.786 -0.6004  0.1407 -0.1957
   45bbb     H3 1310   4.134   6.633   0.679 -0.8923 -0.0258 -0.1701
   45bbb     H4 1311   4.091   6.530   0.808  0.2212 -0.3212  0.3470
   45bbb     C3 1312   3.977   6.784   0.849 -0.0158  0.1757 -0.0316
   45bbb     H5 1313   3.969   6.798   0.741  3.1117  1.8626 -0.1700
   45bbb     H6 1314   3.956   6.882   0.893 -4.0133 -0.9399  0.9559
   45bbb     C4 1315   3.875   6.689   0.914 -0.3534  0.0869 -0.1448
   45bbb     H7 1316   3.894   6.672   1.020 -0.8099 -1.0057 -0.2227
   45bbb     H8 1317   3.878   6.591   0.864  1.3456 -0.2608  0.5592
   45bbb     C5 1318   4.203   6.954   0.989 -0.3067 -0.6852 -0.1723
   45bbb     H9 1319   4.165   6.917   1.085 -0.2216 -0.7425 -0.1608
   45bbb    H10 1320   4.114   7.009   0.956  0.3294 -0.3082 -1.3371
   45bbb     C6 1321   4.294   6.552   0.796  0.2514  0.0421  0.1739
   45bbb    H11 1322   4.309   6.523   0.900  0.0155 -3.0319 -0.5735
   45bbb    H12 1323   4.375   6.620   0.765  2.3988 -2.8067 -0.8593
   45bbb     C7 1324   3.741   6.758   0.913 -0.3672  0.6578  0.4402
   45bbb    H13 1325   3.732   6.803   0.814 -0.5755 -1.5619 -0.6209
   45bbb    H14 1326   3.740   6.840   0.985  1.4561  1.4283 -0.3446
   45bbb     C8 1327   4.311   6.419   0.721 -0.7849 -0.5995  0.1828
   45bbb    H15 1328   4.407   6.373   0.746 -0.8791 -0.6889  0.3870
   45bbb    H16 1329   4.313   6.433   0.612  1.0788  1.0078  0.3604
   45bbb     C9 1330   4.327   7.038   1.011  0.3169  0.1937 -0.1729
   45bbb    H17 1331   4.405   6.978   1.060  1.6925  0.1976 -2.2206
   45bbb    H18 1332   4.304   7.123   1.075  0.2536 -1.6117  2.3620
   45bbb     O1 1333   3.642   6.654   0.924 -0.3925 -0.1347 -0.3647
   46bbb     N1 1334   1.746   7.641   0.395  1.0736 -0.1853  0.1411
   46bbb     C1 1335   1.811   7.650   0.525  0.9311  0.1997 -0.1099
   46bbb     H1 1336   1.842   7.754   0.544  1.2720 -0.2317  1.9091
   46bbb     H2 1337   1.894   7.581   0.540  0.7895  0.1284  0.3448
   46bbb     C2 1338   1.839   7.687   0.284  0.1714 -0.7171  0.2981
   46bbb     H3 1339   1.884   7.785   0.305 -1.5084 -0.3614  2.7734
   46bbb     H4 1340   1.780   7.706   0.193 -1.4108 -0.6998  1.2760
   46bbb     C3 1341   1.676   7.509   0.366  0.7200 -0.1206 -0.6260
   46bbb     H5 1342   1.610   7.480   0.449  3.0241 -1.7002  0.7657
   46bbb     H6 1343   1.739   7.419   0.375 -2.2300 -2.1684  1.5789
   46bbb     C4 1344   1.612   7.493   0.231  0.3560  0.1017  0.7514
   46bbb     H7 1345   1.689   7.491   0.152  0.4203 -4.1167  0.7270
   46bbb     H8 1346   1.540   7.574   0.212 -1.1936 -1.8352 -2.5344
   46bbb     C5 1347   1.720   7.631   0.649  0.0972 -0.2040  0.0786
   46bbb     H9 1348   1.702   7.526   0.673  1.4311 -0.0829  1.8487
   46bbb    H10 1349   1.622   7.671   0.620  1.5221  1.6815 -2.4997
   46bbb     C6 1350   1.953   7.585   0.248 -0.1663  0.0139 -0.6681
   46bbb    H11 1351   1.907   7.487   0.227  2.6168 -1.5230 -0.0519
   46bbb    H12 1352   2.021   7.573   0.333  1.0840 -0.4419 -1.7113
   46bbb     C7 1353   1.534   7.362   0.212 -0.4074 -0.2275  0.3096
   46bbb    H13 1354   1.523   7.350   0.104  0.5061  0.4687  0.1202
   46bbb    H14 1355   1.430   7.374   0.243 -0.5898  0.3524 -0.4847
   46bbb     C8 1356   2.023   7.633   0.120 -1.0300  0.1179  0.2781
   46bbb    H15 1357   1.962   7.702   0.060  0.2859  1.8996  0.8679
   46bbb    H16 1358   2.034   7.553   0.046  0.0955  0.9890 -0.5372
   46bbb     C9 1359   1.772   7.712   0.772 -0.4891  0.6700  0.2454
   46bbb    H17 1360   1.704   7.702   0.857  0.7233 -0.1743  1.1265
   46bbb    H18 1361   1.774   7.822   0.762 -0.9275  0.6144 -0.5907
   46bbb     O1 1362   1.610   7.244   0.260 -0.3573 -0.1420 -0.2240
   47bbb     N1 1363   2.341   6.246   0.620 -0.0023  0.0393 -0.5828
   47bbb     C1 1364   2.432   6.172   0.719  0.5255 -0.6765  0.2682
   47bbb     H1 1365   2.431   6.064   0.704 -1.4554 -0.6745  0.1240
   47bbb     H2 1366   2.400   6.184   0.823  1.7080 -0.3016  0.6044
   47bbb     C2 1367   2.210   6.173   0.589 -0.3910 -0.5382  0.4097
   47bbb     H3 1368   2.231   6.066   0.586  0.0478 -0.4557  0.4554
   47bbb     H4 1369   2.182   6.202   0.487  0.3799 -0.0068  0.3336
   47bbb     C3 1370   2.330   6.393   0.642 -1.0110 -0.6038 -0.4053
   47bbb     H5 1371   2.421   6.444   0.676 -0.1792 -1.9168 -0.6309
   47bbb     H6 1372   2.266   6.421   0.726 -0.9950 -0.1382 -0.5440
   47bbb     C4 1373   2.263   6.474   0.521  0.4217  0.5763 -0.4457
   47bbb     H7 1374   2.156   6.446   0.520  0.7640 -0.8320 -0.6971
   47bbb     H8 1375   2.312   6.445   0.427  0.6308 -1.4716  0.2365
   47bbb     C5 1376   2.582   6.210   0.704 -0.0836 -0.0228  0.6099
   47bbb     H9 1377   2.641   6.175   0.789  3.2441  1.7652 -0.7780
   47bbb    H10 1378   2.592   6.318   0.720  1.2342 -0.3047  1.8779
   47bbb     C6 1379   2.091   6.204   0.672 -0.1720 -0.1235 -0.1733
   47bbb    H11 1380   2.001   6.150   0.637  1.0427 -3.0870  0.9297
   47bbb    H12 1381   2.067   6.310   0.684  0.7542 -0.0701  1.4314
   47bbb     C7 1382   2.267   6.621   0.537  0.0844  0.4711  0.3869
   47bbb    H13 1383   2.364   6.669   0.519  0.4118  0.7198  2.5386
   47bbb    H14 1384   2.235   6.648   0.639 -0.2898 -0.4692  0.5269
   47bbb     C8 1385   2.111   6.153   0.818  0.3981 -0.2041 -0.3691
   47bbb    H15 1386   2.197   6.205   0.859 -1.1632  1.0355  1.5042
   47bbb    H16 1387   2.134   6.045   0.819 -0.2949 -0.3887  1.8597
   47bbb     C9 1388   2.655   6.176   0.572  0.3255  0.6032  0.1022
   47bbb    H17 1389   2.609   6.244   0.500 -1.0941  1.2817  1.5833
   47bbb    H18 1390   2.655   6.069   0.549  1.2986  0.2962  1.3916
   47bbb     O1 1391   2.172   6.683   0.449  0.3646 -0.3132 -0.1742
   48bbb     N1 1392   2.818   5.802  -1.156  0.4035 -0.0766 -1.2485
   48bbb     C1 1393   2.837   5.885  -1.275 -0.3287  0.1063 -0.7155
   48bbb     H1 1394   2.896   5.815  -1.336  1.7096 -0.0386  1.2545
   48bbb     H2 1395   2.904   5.968  -1.251  0.2048 -0.6053  0.3592
   48bbb     C2 1396   2.946   5.782  -1.086  0.2563  0.7418  0.4652
   48bbb     H3 1397   2.920   5.725  -0.996  0.2169  0.7514  0.4598
   48bbb     H4 1398   2.987   5.880  -1.059  2.9214 -0.1234 -0.1580
   48bbb     C3 1399   2.705   5.852  -1.061 -0.5465 -0.1306 -0.8493
   48bbb     H5 1400   2.701   5.786  -0.974  1.3181  1.4100  0.4955
   48bbb     H6 1401   2.607   5.852  -1.111 -1.7126 -0.6835  1.2881
   48bbb     C4 1402   2.739   5.996  -0.997 -0.0161 -0.6204  0.0630
   48bbb     H7 1403   2.774   6.066  -1.074  0.0132 -1.0941 -0.3588
   48bbb     H8 1404   2.825   5.992  -0.930 -2.6340 -2.3286  3.6553
   48bbb     C5 1405   2.706   5.925  -1.346 -0.7960 -0.9271  0.3576
   48bbb     H9 1406   2.731   5.971  -1.442  1.5960 -2.5634  0.1046
   48bbb    H10 1407   2.648   5.995  -1.284 -0.5292  0.2474 -0.6818
   48bbb     C6 1408   3.055   5.690  -1.157 -0.0933 -0.0947 -0.7142
   48bbb    H11 1409   3.104   5.754  -1.231 -0.0230  1.3010  0.5001
   48bbb    H12 1410   3.009   5.604  -1.207  0.9527 -2.2475  1.7964
   48bbb     C7 1411   2.622   6.064  -0.923 -0.2931 -0.0285  0.0468
   48bbb    H13 1412   2.656   6.165  -0.895  0.2993  0.1452 -1.2179
   48bbb    H14 1413   2.592   6.013  -0.831 -2.3959  0.7199 -0.1738
   48bbb     C8 1414   3.173   5.651  -1.060 -0.1788  0.6828  0.3384
   48bbb    H15 1415   3.185   5.729  -0.984 -1.3103  0.7841  0.4345
   48bbb    H16 1416   3.266   5.640  -1.116 -0.3589  1.3099 -0.0859
   48bbb     C9 1417   2.630   5.799  -1.381 -0.0313 -0.5586  0.7194
   48bbb    H17 1418   2.601   5.742  -1.292 -2.4007 -1.4243 -0.5099
   48bbb    H18 1419   2.697   5.734  -1.438 -0.4081  0.1106 -0.5158
   48bbb     O1 1420   2.502   6.067  -1.013  1.2341  0.3481 -0.0385
   49bbb     N1 1421   1.922   5.749  -0.577  0.5751  0.1493 -0.0058
   49bbb     C1 1422   1.827   5.720  -0.466  0.2155 -0.7686 -1.2078
   49bbb     H1 1423   1.818   5.800  -0.391  1.5418 -1.2437 -0.4996
   49bbb     H2 1424   1.868   5.638  -0.407  0.7340  1.0447  1.0979
   49bbb     C2 1425   1.976   5.627  -0.654  0.0479 -0.1392  0.2223
   49bbb     H3 1426   1.898   5.571  -0.708 -0.0766  0.6102 -0.3943
   49bbb     H4 1427   2.022   5.569  -0.573 -0.2190  0.7370  1.0250
   49bbb     C3 1428   1.878   5.862  -0.658  0.2320 -0.3140  0.4835
   49bbb     H5 1429   1.787   5.837  -0.714 -0.1686 -1.7492  1.7105
   49bbb     H6 1430   1.956   5.883  -0.731  0.0870 -2.7166 -0.4500
   49bbb     C4 1431   1.860   5.994  -0.576  0.1627  0.1811  0.4113
   49bbb     H7 1432   1.958   6.022  -0.534  1.6782 -0.1837 -2.5714
   49bbb     H8 1433   1.788   5.975  -0.495 -0.3755  1.8824  0.3652
   49bbb     C5 1434   1.683   5.685  -0.507 -0.1724 -0.1552  0.2295
   49bbb     H9 1435   1.679   5.610  -0.587  2.0299  1.2182 -1.2832
   49bbb    H10 1436   1.639   5.777  -0.549  1.9816  0.5960 -0.5409
   49bbb     C6 1437   2.091   5.660  -0.755 -0.5499  0.1233 -0.5543
   49bbb    H11 1438   2.172   5.706  -0.698 -0.1654 -0.1584 -0.8690
   49bbb    H12 1439   2.053   5.719  -0.839 -1.1329 -2.6303 -2.3687
   49bbb     C7 1440   1.807   6.104  -0.669  0.7331 -0.3950  0.1696
   49bbb    H13 1441   1.758   6.189  -0.619  1.6724 -0.9058  2.0469
   49bbb    H14 1442   1.742   6.058  -0.745  1.8788 -1.3487 -0.2577
   49bbb     C8 1443   2.140   5.523  -0.809 -0.2451  0.8040 -0.1326
   49bbb    H15 1444   2.211   5.528  -0.893 -0.0309 -0.5924 -0.0669
   49bbb    H16 1445   2.047   5.478  -0.847 -1.1386  0.5743  2.1392
   49bbb     C9 1446   1.602   5.639  -0.383 -0.1643  0.1405 -0.0970
   49bbb    H17 1447   1.498   5.644  -0.418 -0.4999 -0.3135  0.8220
   49bbb    H18 1448   1.595   5.714  -0.303 -0.7676 -1.1523  1.1004
   49bbb     O1 1449   1.918   6.160  -0.740  0.1628 -0.1838 -0.4506
   50bbb     N1 1450   4.260   5.680  -0.203 -0.2606 -0.1466 -0.2734
   50bbb     C1 1451   4.170   5.664  -0.083  0.0669  0.6844  0.9363
   50bbb     H1 1452   4.106   5.578  -0.102  1.8506 -0.3788 -0.6650
   50bbb     H2 1453   4.088   5.736  -0.069 -1.3883 -0.5678 -0.7356
   50bbb     C2 1454   4.379   5.774  -0.177  0.8711  0.1187  0.0931
   50bbb     H3 1455   4.453   5.779  -0.259  1.4034  2.6179  0.6479
   50bbb     H4 1456   4.444   5.739  -0.096  2.3689 -1.0646 -1.5401
   50bbb     C3 1457   4.197   5.717  -0.331 -0.3759 -0.2497 -0.4743
   50bbb     H5 1458   4.272   5.758  -0.400  0.3518  1.9967  1.4826
   50bbb     H6 1459   4.133   5.800  -0.300  1.4915  0.5204  1.6904
   50bbb     C4 1460   4.112   5.607  -0.398 -0.5524  0.0622 -0.7849
   50bbb     H7 1461   4.063   5.559  -0.312 -1.2514  0.4759 -0.9479
   50bbb     H8 1462   4.181   5.533  -0.442 -1.2873 -1.0238 -0.1645
   50bbb     C5 1463   4.243   5.648   0.055 -0.6289 -0.7597 -0.0973
   50bbb     H9 1464   4.172   5.637   0.138 -0.7225  0.5241  0.0083
   50bbb    H10 1465   4.292   5.742   0.081  0.8628 -1.5481  0.0923
   50bbb     C6 1466   4.345   5.926  -0.152 -0.8701 -0.0466  0.8568
   50bbb    H11 1467   4.294   5.942  -0.056  0.0675  0.4052  1.2943
   50bbb    H12 1468   4.273   5.967  -0.223 -1.0038  0.3264  1.2025
   50bbb     C7 1469   4.008   5.653  -0.497  0.1125  0.2366  0.0332
   50bbb    H13 1470   3.971   5.751  -0.463 -1.2716 -0.9933  2.2928
   50bbb    H14 1471   3.923   5.584  -0.501  1.2264 -1.1151 -1.3683
   50bbb     C8 1472   4.474   6.024  -0.146 -0.4432  0.2215  0.2944
   50bbb    H15 1473   4.552   5.974  -0.088 -0.3763 -1.7207 -1.3468
   50bbb    H16 1474   4.450   6.116  -0.092  0.2832  0.0364  0.9453
   50bbb     C9 1475   4.340   5.527   0.061  0.0538 -0.3339 -0.1305
   50bbb    H17 1476   4.402   5.527  -0.030  2.7409  0.2137  1.5781
   50bbb    H18 1477   4.273   5.440   0.059 -0.6878  0.2108  0.4290
   50bbb     O1 1478   4.081   5.662  -0.618 -0.5363  0.2515 -0.3729
   51bbb     N1 1479   3.857   6.651  -0.408  0.1941 -0.5957 -0.7975
   51bbb     C1 1480   3.972   6.592  -0.336  0.1954 -0.4008  0.2028
   51bbb     H1 1481   4.059   6.599  -0.403 -0.8139 -0.8574 -1.1884
   51bbb     H2 1482   3.950   6.485  -0.327 -0.5049 -0.3636 -0.8619
   51bbb     C2 1483   3.855   6.800  -0.382 -0.0578  0.4747  0.5132
   51bbb     H3 1484   3.826   6.837  -0.283 -0.3377 -0.8731  0.9497
   51bbb     H4 1485   3.770   6.837  -0.441 -0.6529 -3.6649 -1.5338
   51bbb     C3 1486   3.842   6.620  -0.550 -0.4102  0.4270  0.8874
   51bbb     H5 1487   3.935   6.623  -0.607  0.1989  1.2471  1.8835
   51bbb     H6 1488   3.771   6.685  -0.604  0.9393  0.0247 -1.5150
   51bbb     C4 1489   3.784   6.477  -0.560 -0.3342 -0.0647 -0.5400
   51bbb     H7 1490   3.694   6.460  -0.500 -0.7347  1.6640 -0.6060
   51bbb     H8 1491   3.848   6.400  -0.515 -0.5256 -0.1377 -0.3872
   51bbb     C5 1492   4.017   6.649  -0.202 -0.2856  0.2348 -0.0638
   51bbb     H9 1493   4.064   6.744  -0.230  0.8133 -0.5518 -0.9640
   51bbb    H10 1494   4.100   6.592  -0.158 -1.4808  1.7271  4.7697
   51bbb     C6 1495   3.975   6.873  -0.440  0.1457  0.0178 -0.4387
   51bbb    H11 1496   3.958   6.883  -0.548  1.0886 -1.2779 -0.7293
   51bbb    H12 1497   4.069   6.818  -0.429 -0.4555 -1.3863 -2.0131
   51bbb     C7 1498   3.763   6.447  -0.709  0.1241  0.4337 -0.0235
   51bbb    H13 1499   3.708   6.532  -0.751 -0.7884 -0.9644 -1.8069
   51bbb    H14 1500   3.700   6.359  -0.730 -0.8252  0.8305  1.0930
   51bbb     C8 1501   4.007   7.013  -0.382 -0.1989 -0.2647  0.1319
   51bbb    H15 1502   3.910   7.063  -0.375 -0.7489 -1.1934 -0.5267
   51bbb    H16 1503   4.079   7.072  -0.440  0.0459  0.4530  1.1392
   51bbb     C9 1504   3.910   6.657  -0.098 -0.7865 -0.6335 -0.4046
   51bbb    H17 1505   3.879   6.553  -0.078  0.9307 -1.1666 -0.3172
   51bbb    H18 1506   3.822   6.711  -0.135 -0.5235  0.0791  0.0038
   51bbb     O1 1507   3.890   6.418  -0.776  0.3876  0.1295 -0.3653
   52bbb     N1 1508   4.029   5.551  -1.692  0.3631  0.2118 -0.0940
   52bbb     C1 1509   4.155   5.536  -1.614 -0.3148  0.5749 -0.1550
   52bbb     H1 1510   4.215   5.628  -1.618 -1.6913  1.8604  3.8935
   52bbb     H2 1511   4.219   5.459  -1.658  0.1181  0.8528 -0.0155
   52bbb     C2 1512   3.948   5.425  -1.699  0.5698 -0.2237  0.2424
   52bbb     H3 1513   3.883   5.425  -1.611  2.1311  0.7201  1.4346
   52bbb     H4 1514   4.005   5.334  -1.679 -1.6590 -1.8088 -0.2610
   52bbb     C3 1515   3.948   5.673  -1.655 -0.6347 -0.6344  0.2875
   52bbb     H5 1516   3.912   5.658  -1.552  2.0040  1.0813  1.5661
   52bbb     H6 1517   3.867   5.690  -1.728 -0.6691 -0.2188  0.4180
   52bbb     C4 1518   4.044   5.806  -1.657  0.1335  0.2225  0.6195
   52bbb     H7 1519   4.100   5.801  -1.751 -0.7484  0.7267  0.0567
   52bbb     H8 1520   4.108   5.824  -1.569 -1.1223  0.3989  1.5214
   52bbb     C5 1521   4.147   5.502  -1.460  0.4250 -0.1089  0.3416
   52bbb     H9 1522   4.115   5.398  -1.443 -0.2475  0.2494  1.3570
   52bbb    H10 1523   4.062   5.556  -1.417  1.3323 -0.6238  3.0144
   52bbb     C6 1524   3.859   5.414  -1.826 -0.2975 -0.2160 -0.6874
   52bbb    H11 1525   3.915   5.354  -1.899  1.0242 -1.1244  0.9907
   52bbb    H12 1526   3.832   5.510  -1.873 -3.3273  0.5065  2.2016
   52bbb     C7 1527   3.965   5.932  -1.651 -0.0213 -0.3722  0.9482
   52bbb    H13 1528   3.887   5.926  -1.728  1.6306 -1.2513 -0.7472
   52bbb    H14 1529   4.027   6.020  -1.668  0.7975 -0.6261  2.4519
   52bbb     C8 1530   3.727   5.339  -1.787 -0.2640  0.1238 -0.3358
   52bbb    H15 1531   3.671   5.324  -1.880  1.8681 -1.0133 -1.5116
   52bbb    H16 1532   3.657   5.395  -1.723 -3.6692 -2.2417 -1.6710
   52bbb     C9 1533   4.273   5.525  -1.378  0.0706  0.3725 -0.5468
   52bbb    H17 1534   4.255   5.498  -1.274 -0.6307 -1.0093 -0.9998
   52bbb    H18 1535   4.308   5.628  -1.391 -1.6952  1.1859  0.9088
   52bbb     O1 1536   3.908   5.949  -1.525  0.3424  0.0175 -0.2734
   53bbb     N1 1537   3.423   6.823  -0.663 -0.2230 -0.2403  0.0354
   53bbb     C1 1538   3.436   6.970  -0.628  0.6707  0.8226  0.5332
   53bbb     H1 1539   3.354   6.994  -0.558  0.0200  0.5597 -0.1354
   53bbb     H2 1540   3.418   7.028  -0.719 -0.4784 -1.0672 -0.5099
   53bbb     C2 1541   3.425   6.734  -0.544  0.2240  0.3194 -0.5006
   53bbb     H3 1542   3.525   6.728  -0.499  0.9019 -2.5798 -2.1481
   53bbb     H4 1543   3.413   6.629  -0.574  0.0747 -0.2331  1.3328
   53bbb     C3 1544   3.509   6.766  -0.756 -0.5065 -0.1512 -0.0053
   53bbb     H5 1545   3.499   6.656  -0.756  0.8711 -0.2997  0.4127
   53bbb     H6 1546   3.611   6.783  -0.720 -0.7390  2.1593 -0.2804
   53bbb     C4 1547   3.487   6.811  -0.898  0.0962  0.0044 -0.0568
   53bbb     H7 1548   3.464   6.918  -0.907 -2.2996 -0.5009 -0.6011
   53bbb     H8 1549   3.395   6.764  -0.935 -0.6709 -0.4142  2.2248
   53bbb     C5 1550   3.571   7.003  -0.554 -0.0545  0.3072  0.2994
   53bbb     H9 1551   3.643   7.000  -0.637 -2.1482 -0.9972 -1.5730
   53bbb    H10 1552   3.593   6.927  -0.478 -0.2935  1.3707  1.4534
   53bbb     C6 1553   3.321   6.770  -0.422  0.0976  0.1914  0.2484
   53bbb    H11 1554   3.340   6.868  -0.377 -2.7100  1.4250 -0.9768
   53bbb    H12 1555   3.337   6.695  -0.343 -1.8740  1.0297  1.5363
   53bbb     C7 1556   3.611   6.779  -0.985  0.0670 -0.4018 -0.7193
   53bbb    H13 1557   3.699   6.823  -0.937 -1.4406 -0.0533  1.8873
   53bbb    H14 1558   3.604   6.827  -1.084 -0.0233 -0.1895 -0.6093
   53bbb     C8 1559   3.174   6.764  -0.463  0.6567  0.2375 -0.0321
   53bbb    H15 1560   3.161   6.680  -0.532  1.3323  1.6442 -1.9423
   53bbb    H16 1561   3.139   6.855  -0.513 -0.1290  0.4521  0.8699
   53bbb     C9 1562   3.569   7.142  -0.493  0.5502  0.0789  0.0665
   53bbb    H17 1563   3.492   7.142  -0.415  1.3888 -0.0786  0.9068
   53bbb    H18 1564   3.537   7.219  -0.565 -0.6017  0.3343  0.8156
   53bbb     O1 1565   3.631   6.638  -1.006  1.1938 -0.4470  0.5507
   54bbb     N1 1566   3.421   6.425   1.523 -0.0596  0.8540 -0.5332
   54bbb     C1 1567   3.399   6.525   1.422 -0.1828  0.6250  0.0054
   54bbb     H1 1568   3.361   6.480   1.331 -0.4265  1.7990 -0.4956
   54bbb     H2 1569   3.492   6.573   1.387  0.6220 -0.0112  1.1679
   54bbb     C2 1570   3.540   6.349   1.471  0.1617 -0.1857  0.0841
   54bbb     H3 1571   3.626   6.415   1.457  0.8835 -1.0822  0.1828
   54bbb     H4 1572   3.526   6.307   1.370 -0.6517  1.3928 -0.4912
   54bbb     C3 1573   3.296   6.334   1.553  0.0769 -0.3203 -0.2276
   54bbb     H5 1574   3.214   6.393   1.596  0.3594  1.2557 -1.7421
   54bbb     H6 1575   3.317   6.261   1.632  0.3305  0.5992  0.5647
   54bbb     C4 1576   3.235   6.261   1.433 -0.2886 -0.2133 -0.0982
   54bbb     H7 1577   3.306   6.198   1.377 -0.1587  0.6995 -0.9826
   54bbb     H8 1578   3.181   6.322   1.360 -0.2342  0.2351  0.2337
   54bbb     C5 1579   3.299   6.637   1.465 -0.0412  0.8918  0.2324
   54bbb     H9 1580   3.309   6.665   1.571 -0.9931 -1.2472  0.9557
   54bbb    H10 1581   3.202   6.585   1.461 -0.0101  0.8868 -0.5354
   54bbb     C6 1582   3.592   6.227   1.552  0.4429 -0.6632  0.3585
   54bbb    H11 1583   3.690   6.198   1.514 -0.8556 -1.1840 -2.8939
   54bbb    H12 1584   3.529   6.137   1.549  1.8368 -1.6509 -2.2905
   54bbb     C7 1585   3.129   6.156   1.481  0.6790  0.3479  0.3620
   54bbb    H13 1586   3.048   6.212   1.530  1.6460 -0.2800  2.8371
   54bbb    H14 1587   3.178   6.084   1.547 -0.3659 -0.8121 -0.0849
   54bbb     C8 1588   3.601   6.262   1.698 -0.2417  0.1091 -0.3381
   54bbb    H15 1589   3.500   6.282   1.736 -0.3878  2.8752 -1.9059
   54bbb    H16 1590   3.650   6.357   1.722 -2.4065  0.7918  1.8025
   54bbb     C9 1591   3.299   6.759   1.373  0.0373  0.0652  1.0012
   54bbb    H17 1592   3.282   6.727   1.270  1.4183  2.4284 -0.0383
   54bbb    H18 1593   3.402   6.797   1.380  0.3307 -0.5961  0.4715
   54bbb     O1 1594   3.080   6.074   1.370 -0.6037  0.2967 -0.3124
   55bbb     N1 1595   3.816   5.547   1.355  0.2725 -0.2083  0.3911
   55bbb     C1 1596   3.832   5.699   1.375  0.2539 -0.3269 -0.0077
   55bbb     H1 1597   3.748   5.751   1.326 -0.0599 -1.7310 -1.0323
   55bbb     H2 1598   3.930   5.731   1.340 -0.3297  2.7225  0.8274
   55bbb     C2 1599   3.943   5.484   1.386  0.6934  0.1441 -0.4418
   55bbb     H3 1600   3.968   5.486   1.493 -2.2307 -2.5878  0.4163
   55bbb     H4 1601   4.009   5.554   1.334 -0.5336  2.0697  0.4801
   55bbb     C3 1602   3.694   5.480   1.406 -0.0091 -0.0319 -0.3825
   55bbb     H5 1603   3.685   5.494   1.515 -1.3803 -1.1215 -0.3366
   55bbb     H6 1604   3.703   5.371   1.402  2.7239  0.1375 -1.1759
   55bbb     C4 1605   3.571   5.526   1.339 -0.4245 -0.2496  1.2000
   55bbb     H7 1606   3.575   5.520   1.230 -1.4403 -2.2427  1.2130
   55bbb     H8 1607   3.566   5.634   1.357  1.5535  0.3365 -1.3324
   55bbb     C5 1608   3.829   5.744   1.525 -0.3043  0.2863 -0.1000
   55bbb     H9 1609   3.903   5.692   1.586 -0.8831 -0.0535  0.3247
   55bbb    H10 1610   3.733   5.721   1.574  1.0432  0.3963  2.7887
   55bbb     C6 1611   3.978   5.347   1.336  0.0431  0.3886 -0.1246
   55bbb    H11 1612   4.087   5.338   1.331 -0.0946 -1.0645 -0.8615
   55bbb    H12 1613   3.937   5.336   1.236 -0.8104  2.1770 -0.0183
   55bbb     C7 1614   3.444   5.445   1.383 -0.4595  0.3126  0.2177
   55bbb    H13 1615   3.443   5.438   1.492  1.2892  1.2288  0.3202
   55bbb    H14 1616   3.445   5.341   1.347  1.7043  0.4584 -0.2986
   55bbb     C8 1617   3.930   5.232   1.425 -0.4403 -0.3772 -0.2448
   55bbb    H15 1618   3.978   5.139   1.391  0.2557  0.4595 -1.6030
   55bbb    H16 1619   3.821   5.218   1.415 -0.4820 -0.9956  0.8128
   55bbb     C9 1620   3.836   5.899   1.552  0.2829 -0.7435 -0.0812
   55bbb    H17 1621   3.840   5.935   1.656  0.2499 -1.2284  0.0897
   55bbb    H18 1622   3.743   5.937   1.507  0.9364  0.9855 -0.0421
   55bbb     O1 1623   3.320   5.500   1.352  0.2875  0.0178 -0.0614
   56bbb     N1 1624   2.276   5.161   0.600 -0.1089 -0.5846  0.9412
   56bbb     C1 1625   2.253   5.233   0.730 -0.0955  0.0016 -0.3635
   56bbb     H1 1626   2.207   5.330   0.708 -1.1268 -0.3377  0.1973
   56bbb     H2 1627   2.347   5.251   0.785 -0.7237  0.6178  0.5414
   56bbb     C2 1628   2.156   5.181   0.510 -0.2585  0.1007  0.2067
   56bbb     H3 1629   2.068   5.172   0.574 -0.3201  2.1620  0.4701
   56bbb     H4 1630   2.153   5.104   0.432  0.9010  1.6982 -1.5085
   56bbb     C3 1631   2.406   5.195   0.535 -1.3565 -0.4703  0.7699
   56bbb     H5 1632   2.425   5.302   0.542  1.9842 -0.8187 -0.9897
   56bbb     H6 1633   2.424   5.166   0.431  0.6279  0.6747  0.7447
   56bbb     C4 1634   2.522   5.115   0.603 -0.4265  0.1126  0.7440
   56bbb     H7 1635   2.528   5.139   0.709 -0.9671  1.7301  0.4314
   56bbb     H8 1636   2.620   5.138   0.560  0.0402 -0.2390  1.6069
   56bbb     C5 1637   2.159   5.150   0.815  0.1062  0.1936  0.1922
   56bbb     H9 1638   2.185   5.044   0.815 -1.0614 -0.1050  0.5392
   56bbb    H10 1639   2.055   5.165   0.782  0.6766  0.1283 -1.7320
   56bbb     C6 1640   2.145   5.319   0.438 -0.3593  0.1561 -0.3397
   56bbb    H11 1641   2.231   5.330   0.371  0.8207 -3.4605  0.3527
   56bbb    H12 1642   2.152   5.398   0.514  0.3018  0.6602 -0.9171
   56bbb     C7 1643   2.506   4.963   0.578  0.0882 -0.7409 -0.5480
   56bbb    H13 1644   2.536   4.929   0.478 -0.7756 -1.8086 -0.4585
   56bbb    H14 1645   2.400   4.937   0.593  0.0418 -0.1093  0.3082
   56bbb     C8 1646   2.019   5.335   0.353 -0.1342 -0.0090  0.5353
   56bbb    H15 1647   2.002   5.251   0.285 -1.8378 -1.3051  2.4616
   56bbb    H16 1648   2.027   5.433   0.303  0.4286 -0.2917  0.0616
   56bbb     C9 1649   2.148   5.213   0.961  0.2326  0.5696 -0.1156
   56bbb    H17 1650   2.136   5.322   0.947 -0.9067  0.2847 -1.5249
   56bbb    H18 1651   2.248   5.202   1.005  0.7651  1.4649 -1.0300
   56bbb     O1 1652   2.587   4.889   0.674 -0.2914  0.7228 -0.3308
   57bbb     N1 1653   2.616   4.193   1.088 -0.6044 -0.3633 -0.0862
   57bbb     C1 1654   2.465   4.201   1.088  0.1058  0.3447  0.1479
   57bbb     H1 1655   2.425   4.100   1.074 -2.9875  1.5325 -0.5020
   57bbb     H2 1656   2.433   4.265   1.005  0.2006  0.5180  0.2443
   57bbb     C2 1657   2.688   4.150   0.964 -0.5239  0.6486  0.5642
   57bbb     H3 1658   2.791   4.188   0.964 -1.5498  3.7494  1.7761
   57bbb     H4 1659   2.651   4.202   0.875  3.2132 -0.8860 -2.1407
   57bbb     C3 1660   2.688   4.307   1.146 -0.5970 -0.0919  0.0832
   57bbb     H5 1661   2.633   4.359   1.224 -2.1016 -0.1212 -0.9195
   57bbb     H6 1662   2.711   4.378   1.065 -3.0857  0.4840 -0.1885
   57bbb     C4 1663   2.819   4.247   1.212 -0.5662  0.4147  0.5366
   57bbb     H7 1664   2.858   4.163   1.153 -2.2769  0.8822 -1.3870
   57bbb     H8 1665   2.803   4.213   1.315  1.3615  1.6380  1.3072
   57bbb     C5 1666   2.395   4.264   1.216 -0.2471  0.2938  0.3723
   57bbb     H9 1667   2.402   4.373   1.210 -2.6046  0.5001  0.5876
   57bbb    H10 1668   2.455   4.240   1.306 -0.3703  0.5034  0.5095
   57bbb     C6 1669   2.692   3.997   0.931 -0.0102  0.0029  0.3702
   57bbb    H11 1670   2.586   3.974   0.947 -0.6454 -0.1801 -3.2666
   57bbb    H12 1671   2.747   3.947   1.012  1.0873 -0.8713 -0.8665
   57bbb     C7 1672   2.931   4.348   1.228  0.6976 -0.6910  0.1364
   57bbb    H13 1673   3.027   4.296   1.243  0.9351 -0.1362  0.6056
   57bbb    H14 1674   2.904   4.405   1.317 -1.0911  0.1848 -0.9241
   57bbb     C8 1675   2.747   3.951   0.789 -0.4699 -0.0603 -0.0050
   57bbb    H15 1676   2.735   3.843   0.775 -0.7143  0.2531 -2.6377
   57bbb    H16 1677   2.850   3.980   0.767 -0.5350  0.0102 -0.2197
   57bbb     C9 1678   2.256   4.220   1.235  0.4202 -0.3850 -0.1291
   57bbb    H17 1679   2.239   4.206   1.343 -1.4081  0.2070 -0.3180
   57bbb    H18 1680   2.254   4.122   1.186  2.1338 -1.7450  2.2828
   57bbb     O1 1681   2.936   4.433   1.115 -0.0423  0.3204  0.6485
   58bbb     N1 1682   2.506   5.723  -0.481 -0.3859 -0.2022 -0.5274
   58bbb     C1 1683   2.529   5.641  -0.600 -0.6046  0.4814 -0.4195
   58bbb     H1 1684   2.459   5.557  -0.595  0.9356 -0.8193 -0.2671
   58bbb     H2 1685   2.627   5.593  -0.604 -0.3155  0.6110  2.7857
   58bbb     C2 1686   2.591   5.847  -0.477 -0.8937 -0.3164  0.5755
   58bbb     H3 1687   2.633   5.870  -0.576 -1.0008 -0.2030  0.5569
   58bbb     H4 1688   2.673   5.837  -0.405  2.0902 -0.8356 -2.5908
   58bbb     C3 1689   2.496   5.657  -0.348  0.2224  0.4352  0.0006
   58bbb     H5 1690   2.496   5.732  -0.269 -1.9336  0.3392  0.1257
   58bbb     H6 1691   2.571   5.583  -0.316  0.4639  0.8607  0.4324
   58bbb     C4 1692   2.350   5.597  -0.328  0.1368  0.4548 -0.6009
   58bbb     H7 1693   2.348   5.551  -0.229 -1.3762 -0.9309 -1.2198
   58bbb     H8 1694   2.337   5.510  -0.394 -0.9677  1.4973 -1.8240
   58bbb     C5 1695   2.483   5.708  -0.729 -0.2634  0.1484  0.0674
   58bbb     H9 1696   2.561   5.774  -0.769 -0.0113 -1.3639 -2.1293
   58bbb    H10 1697   2.383   5.748  -0.714 -1.3826 -0.8655 -3.6790
   58bbb     C6 1698   2.517   5.971  -0.439  0.8824 -0.1843 -0.6534
   58bbb    H11 1699   2.590   6.052  -0.426  1.9323 -0.9938 -1.2962
   58bbb    H12 1700   2.481   5.951  -0.338  1.7570  1.5852  0.0623
   58bbb     C7 1701   2.231   5.690  -0.345 -0.3658  0.2645 -0.7428
   58bbb    H13 1702   2.134   5.646  -0.370 -0.7239  0.6949 -0.1602
   58bbb    H14 1703   2.250   5.771  -0.417 -0.6519 -1.7628 -3.2254
   58bbb     C8 1704   2.404   6.006  -0.535  0.3715  0.1138 -0.2755
   58bbb    H15 1705   2.329   5.927  -0.528 -0.9549  1.1990 -1.6111
   58bbb    H16 1706   2.449   6.010  -0.636 -0.7244  0.3783 -0.7615
   58bbb     C9 1707   2.458   5.607  -0.843 -0.0745 -0.6290 -0.0957
   58bbb    H17 1708   2.414   5.662  -0.927 -0.8137 -0.4765  0.3888
   58bbb    H18 1709   2.395   5.528  -0.801 -0.1740 -0.9207 -0.7916
   58bbb     O1 1710   2.206   5.763  -0.218 -0.1407  0.1991 -0.4086
   59bbb     N1 1711   1.757   6.616   0.691 -0.3894  0.1537  0.0237
   59bbb     C1 1712   1.799   6.757   0.665 -0.3977 -0.2090  0.8050
   59bbb     H1 1713   1.902   6.759   0.628 -1.2601  0.7471 -1.7656
   59bbb     H2 1714   1.795   6.825   0.751 -0.6162  0.4736  0.2577
   59bbb     C2 1715   1.817   6.566   0.818 -0.0488  0.3179  0.5854
   59bbb     H3 1716   1.784   6.463   0.836 -0.1570  0.5565  1.7862
   59bbb     H4 1717   1.773   6.620   0.902 -1.8042 -0.6790  0.3615
   59bbb     C3 1718   1.771   6.520   0.577 -0.3786 -0.1104  0.8962
   59bbb     H5 1719   1.876   6.512   0.545 -0.2747 -1.4165  1.4630
   59bbb     H6 1720   1.730   6.560   0.484  1.0927  0.0842  0.2970
   59bbb     C4 1721   1.717   6.377   0.609  0.5859 -0.3338  0.6818
   59bbb     H7 1722   1.626   6.396   0.667 -0.5142  0.0919 -1.1102
   59bbb     H8 1723   1.793   6.332   0.674  0.1839 -1.0526  0.6631
   59bbb     C5 1724   1.703   6.828   0.567  0.4566  0.7159 -0.1678
   59bbb     H9 1725   1.601   6.787   0.577  0.2782  0.7151 -1.7484
   59bbb    H10 1726   1.739   6.803   0.467  1.4709  3.1224 -0.4528
   59bbb     C6 1727   1.971   6.568   0.829 -0.6717 -0.2922 -0.1436
   59bbb    H11 1728   2.005   6.672   0.830 -1.9939  0.1817 -1.4751
   59bbb    H12 1729   2.017   6.524   0.739  0.2975 -0.1409  0.2645
   59bbb     C7 1730   1.688   6.291   0.483  0.1744  0.2386 -0.4957
   59bbb    H13 1731   1.641   6.346   0.401 -0.6366  0.0634 -0.1532
   59bbb    H14 1732   1.618   6.213   0.516  2.3324 -1.7148 -0.2921
   59bbb     C8 1733   2.030   6.496   0.947 -0.6141  0.5041 -0.4377
   59bbb    H15 1734   2.002   6.390   0.938 -0.0965 -0.0952  3.2725
   59bbb    H16 1735   1.970   6.530   1.033  0.6410  1.6741 -0.0031
   59bbb     C9 1736   1.702   6.983   0.580  0.4991 -0.2911  0.5569
   59bbb    H17 1737   1.666   7.008   0.681 -0.0725 -1.7860  0.7454
   59bbb    H18 1738   1.620   7.017   0.515 -0.9199 -1.5219  1.6311
   59bbb     O1 1739   1.811   6.233   0.436 -0.1186 -0.3936  0.4509
   60bbb     N1 1740   1.741   4.991   0.221  0.5184 -0.4974  0.5373
   60bbb     C1 1741   1.814   5.060   0.110  0.4242 -0.0095  0.0358
   60bbb     H1 1742   1.911   5.011   0.099  0.0195 -1.7007  2.9014
   60bbb     H2 1743   1.825   5.164   0.141  1.6249 -0.6373  1.8662
   60bbb     C2 1744   1.821   4.969   0.346 -0.0738 -0.0421 -0.5331
   60bbb     H3 1745   1.837   5.070   0.384 -1.8887 -0.2589  0.9681
   60bbb     H4 1746   1.923   4.948   0.313  0.3270  0.8396  0.1153
   60bbb     C3 1747   1.597   5.023   0.236  0.1942  0.1643 -0.0344
   60bbb     H5 1748   1.541   4.959   0.306 -1.4370  0.6408 -0.8441
   60bbb     H6 1749   1.540   5.013   0.143  0.4462  2.8719 -0.5856
   60bbb     C4 1750   1.575   5.175   0.277 -0.1919  0.5793 -0.1988
   60bbb     H7 1751   1.639   5.240   0.216 -0.1810 -0.8137 -1.7437
   60bbb     H8 1752   1.588   5.195   0.384 -0.0099  1.4648 -0.3758
   60bbb     C5 1753   1.734   5.046  -0.026 -0.1074  0.2267  0.6819
   60bbb     H9 1754   1.633   5.086  -0.011  0.2858  1.5625 -0.0089
   60bbb    H10 1755   1.714   4.942  -0.056 -0.2104  0.9480 -1.9687
   60bbb     C6 1756   1.764   4.875   0.462 -0.0932 -0.3928  0.2205
   60bbb    H11 1757   1.731   4.777   0.427 -1.4039 -1.2117  3.4334
   60bbb    H12 1758   1.672   4.926   0.493 -0.0679 -0.1831 -0.0402
   60bbb     C7 1759   1.440   5.229   0.241  0.2424 -0.5519 -0.1650
   60bbb    H13 1760   1.359   5.170   0.285  0.1402  1.0937  2.0356
   60bbb    H14 1761   1.430   5.229   0.132 -1.5504  0.7280 -0.0582
   60bbb     C8 1762   1.869   4.863   0.575 -0.3115  0.1990 -0.2284
   60bbb    H15 1763   1.826   4.800   0.653 -0.8896  0.1947 -0.5417
   60bbb    H16 1764   1.892   4.964   0.611 -0.0566 -0.2609  0.9388
   60bbb     C9 1765   1.806   5.129  -0.137  0.5420 -0.1440  0.2194
   60bbb    H17 1766   1.902   5.080  -0.156  0.9838  1.1464 -1.0738
   60bbb    H18 1767   1.825   5.232  -0.103  2.8545 -0.4254 -0.0734
   60bbb     O1 1768   1.435   5.363   0.299  0.7949 -0.2324  0.3791
   61bbb     N1 1769   1.007   5.096   1.357 -0.2336  0.0287  0.5138
   61bbb     C1 1770   1.036   5.084   1.502 -0.0308  0.3213 -0.1920
   61bbb     H1 1771   1.021   4.983   1.541 -0.7464  0.8801  1.0474
   61bbb     H2 1772   0.966   5.146   1.561 -0.0558  1.4874 -1.4030
   61bbb     C2 1773   0.872   5.129   1.314 -0.6753  0.0214  0.3604
   61bbb     H3 1774   0.868   5.143   1.205  1.1085  0.1208  0.2827
   61bbb     H4 1775   0.835   5.223   1.355 -2.0690 -0.2825 -0.0994
   61bbb     C3 1776   1.092   5.015   1.267 -0.5287 -0.4841  0.0048
   61bbb     H5 1777   1.077   4.907   1.271  0.1501 -0.6300 -1.0335
   61bbb     H6 1778   1.198   5.024   1.296 -0.7002  1.7909  0.0746
   61bbb     C4 1779   1.093   5.061   1.117  0.0839  0.0514 -0.4118
   61bbb     H7 1780   0.993   5.049   1.073 -0.3063  2.3208 -0.2855
   61bbb     H8 1781   1.161   5.003   1.054 -1.2438 -0.1372 -1.7366
   61bbb     C5 1782   1.177   5.131   1.531 -0.5865  0.6017 -0.0541
   61bbb     H9 1783   1.203   5.228   1.487 -0.6531  0.7406  0.2105
   61bbb    H10 1784   1.245   5.058   1.485 -2.1408 -0.3323 -0.9499
   61bbb     C6 1785   0.763   5.022   1.357 -0.3530 -0.3559  0.0476
   61bbb    H11 1786   0.668   5.069   1.329  0.1093 -1.2870 -3.6468
   61bbb    H12 1787   0.757   5.024   1.466  1.5216 -0.3908  0.1786
   61bbb     C7 1788   1.139   5.210   1.096  0.2830  0.0806  0.2183
   61bbb    H13 1789   1.225   5.232   1.161 -2.0407 -0.4338  3.7335
   61bbb    H14 1790   1.062   5.276   1.138 -0.1345  0.1556 -0.6269
   61bbb     C8 1791   0.779   4.874   1.303  0.4998  0.1429 -0.7313
   61bbb    H15 1792   0.710   4.802   1.349  0.5558  0.6448  0.1521
   61bbb    H16 1793   0.876   4.848   1.347 -0.8132 -1.9941  1.0694
   61bbb     C9 1794   1.207   5.135   1.680  0.2599  0.2026  0.2461
   61bbb    H17 1795   1.117   5.107   1.737 -0.3996 -0.1166 -0.9346
   61bbb    H18 1796   1.233   5.238   1.707  1.3244 -0.8901  4.1647
   61bbb     O1 1797   1.156   5.239   0.958  0.0544  0.6401 -0.2814
   62bbb     N1 1798   5.150   4.478  -0.795  0.1481  0.2699  0.2108
   62bbb     C1 1799   5.059   4.399  -0.710  0.2211 -0.1937  0.2496
   62bbb     H1 1800   5.108   4.303  -0.692 -1.5296 -1.1823 -0.0358
   62bbb     H2 1801   4.969   4.391  -0.773  0.6632  0.4597 -0.4779
   62bbb     C2 1802   5.183   4.399  -0.915 -0.1841 -0.3368 -0.1042
   62bbb     H3 1803   5.088   4.378  -0.965 -1.0333 -1.2960  1.8288
   62bbb     H4 1804   5.223   4.303  -0.882  1.4572  0.0812 -0.7847
   62bbb     C3 1805   5.118   4.621  -0.821 -0.9966  1.2353  0.3667
   62bbb     H5 1806   5.200   4.675  -0.870 -0.5103 -0.5380 -0.8803
   62bbb     H6 1807   5.112   4.670  -0.723  1.3751 -0.3106  1.3837
   62bbb     C4 1808   4.987   4.642  -0.896 -0.3128  0.2514  0.4372
   62bbb     H7 1809   4.903   4.638  -0.825  0.1231  0.5951  0.9843
   62bbb     H8 1810   4.981   4.570  -0.979 -0.5835  1.1162 -0.3112
   62bbb     C5 1811   5.025   4.454  -0.577 -0.4036  0.5538  0.3621
   62bbb     H9 1812   4.966   4.545  -0.589 -0.7727  0.1499 -1.1194
   62bbb    H10 1813   5.123   4.470  -0.529  0.2549 -4.4363  1.2356
   62bbb     C6 1814   5.289   4.450  -1.007 -0.0247 -0.2294  0.1644
   62bbb    H11 1815   5.358   4.372  -1.042  0.8734  1.0309 -0.9825
   62bbb    H12 1816   5.356   4.518  -0.953  0.1984  0.7426 -1.2679
   62bbb     C7 1817   4.985   4.777  -0.971  0.0604 -0.1725 -0.8349
   62bbb    H13 1818   4.888   4.788  -1.021 -0.3752 -1.8119 -0.4295
   62bbb    H14 1819   5.069   4.780  -1.041  0.1113  1.3715 -0.7348
   62bbb     C8 1820   5.235   4.528  -1.130  0.0122  0.3492  0.2398
   62bbb    H15 1821   5.324   4.553  -1.189  0.2836 -1.5122 -0.1778
   62bbb    H16 1822   5.196   4.622  -1.089  1.4007  0.3300  1.6794
   62bbb     C9 1823   4.952   4.353  -0.488  0.0743 -0.5504 -0.9602
   62bbb    H17 1824   5.013   4.264  -0.468 -0.4943 -0.6996  0.1803
   62bbb    H18 1825   4.864   4.317  -0.541  0.8637 -2.3954 -1.0945
   62bbb     O1 1826   4.998   4.876  -0.872  0.1496 -0.7351  0.6200
   63bbb     N1 1827   5.925   5.609  -0.675 -0.3630  0.2327  0.3013
   63bbb     C1 1828   6.072   5.604  -0.636  0.3252 -0.6498  0.2579
   63bbb     H1 1829   6.125   5.689  -0.679  0.6587 -1.6518 -1.4127
   63bbb     H2 1830   6.120   5.514  -0.677  1.0661  0.2444 -0.9018
   63bbb     C2 1831   5.917   5.618  -0.826  0.5093  0.5636 -0.6166
   63bbb     H3 1832   5.972   5.708  -0.855  1.1275  0.5137  0.3204
   63bbb     H4 1833   5.815   5.640  -0.858 -0.2505 -1.0521  0.5131
   63bbb     C3 1834   5.840   5.502  -0.608  0.0869  0.2539  0.6270
   63bbb     H5 1835   5.878   5.488  -0.507  1.0569  0.5917  0.3271
   63bbb     H6 1836   5.851   5.408  -0.664 -0.3452  0.5805 -0.0218
   63bbb     C4 1837   5.695   5.537  -0.609  0.4941 -0.3154  0.0871
   63bbb     H7 1838   5.665   5.531  -0.714 -1.2590  3.0469  0.2378
   63bbb     H8 1839   5.670   5.642  -0.586  0.5110 -0.4806  0.8719
   63bbb     C5 1840   6.118   5.613  -0.491  0.3565  0.1693 -0.0924
   63bbb     H9 1841   6.227   5.611  -0.495  0.3416  1.3968 -2.0650
   63bbb    H10 1842   6.084   5.528  -0.430  0.8817 -0.1926 -0.2965
   63bbb     C6 1843   5.967   5.506  -0.920  0.9737 -0.1478  0.0549
   63bbb    H11 1844   5.893   5.425  -0.909  0.0140  0.6646 -0.3145
   63bbb    H12 1845   6.071   5.477  -0.902  0.9957 -1.3498 -1.7674
   63bbb     C7 1846   5.616   5.448  -0.514 -0.1440 -0.6969  0.7292
   63bbb    H13 1847   5.625   5.479  -0.409  0.9027  1.0344  0.1599
   63bbb    H14 1848   5.654   5.345  -0.523  0.2441 -0.6452  1.6088
   63bbb     C8 1849   5.959   5.562  -1.064  0.5973  0.1839  0.3604
   63bbb    H15 1850   6.037   5.635  -1.088  1.2293 -0.7005 -0.3547
   63bbb    H16 1851   5.864   5.614  -1.076  0.0491 -0.9347 -0.3042
   63bbb     C9 1852   6.064   5.742  -0.415 -0.3557  0.2404  0.4028
   63bbb    H17 1853   5.956   5.749  -0.432 -0.2479  1.0928  0.0084
   63bbb    H18 1854   6.088   5.836  -0.466 -1.0798  0.5697  0.6599
   63bbb     O1 1855   5.482   5.457  -0.544 -0.3436 -0.2850  0.0434
   64bbb     N1 1856   3.646   4.750  -0.919 -0.5912 -0.1631  0.2897
   64bbb     C1 1857   3.737   4.745  -1.046  0.4165 -0.6224 -0.6971
   64bbb     H1 1858   3.790   4.650  -1.057  0.7308 -0.7083  1.2394
   64bbb     H2 1859   3.821   4.813  -1.034  2.3748 -3.0882  0.5207
   64bbb     C2 1860   3.532   4.655  -0.927 -0.2354 -0.5655 -0.3718
   64bbb     H3 1861   3.445   4.680  -0.988 -0.4475 -1.8366 -0.6212
   64bbb     H4 1862   3.495   4.657  -0.824 -0.6081  0.7576 -0.5104
   64bbb     C3 1863   3.590   4.885  -0.890 -0.1191 -0.3747  0.0331
   64bbb     H5 1864   3.539   4.875  -0.794  1.4913 -1.0707  0.8510
   64bbb     H6 1865   3.523   4.908  -0.974 -0.4283  1.5574  0.7457
   64bbb     C4 1866   3.692   4.996  -0.868  0.1999  0.0755 -0.4938
   64bbb     H7 1867   3.748   5.018  -0.960  0.4203 -2.0695 -0.9378
   64bbb     H8 1868   3.751   4.973  -0.779  0.6577  1.8748 -0.2942
   64bbb     C5 1869   3.669   4.785  -1.174  1.0359  0.5427  0.1613
   64bbb     H9 1870   3.628   4.886  -1.160 -0.9478 -0.0941 -0.6705
   64bbb    H10 1871   3.579   4.725  -1.191  1.2664  0.4518 -0.8189
   64bbb     C6 1872   3.569   4.510  -0.961 -0.0060  1.0159 -0.1556
   64bbb    H11 1873   3.594   4.484  -1.064 -0.4579  0.6650 -0.1806
   64bbb    H12 1874   3.474   4.457  -0.952  0.1059  0.5592 -1.4482
   64bbb     C7 1875   3.608   5.121  -0.827  0.7415  0.1069 -0.6024
   64bbb    H13 1876   3.558   5.103  -0.731 -0.1229 -0.2312 -1.1064
   64bbb    H14 1877   3.527   5.151  -0.894  0.2036 -0.7766 -0.3628
   64bbb     C8 1878   3.675   4.450  -0.862 -0.1264 -0.1327 -0.7245
   64bbb    H15 1879   3.637   4.464  -0.760 -2.8822 -0.1489 -1.6743
   64bbb    H16 1880   3.767   4.507  -0.880 -0.8809  1.2793 -0.1905
   64bbb     C9 1881   3.758   4.783  -1.299 -0.6545  0.4447  0.1839
   64bbb    H17 1882   3.843   4.851  -1.299 -0.1063 -0.1575 -1.8690
   64bbb    H18 1883   3.709   4.808  -1.394  1.8493  2.0443 -0.7881
   64bbb     O1 1884   3.698   5.234  -0.805  0.1795  0.2189 -0.3336
   65bbb     N1 1885   3.143   6.200  -1.372 -0.4897 -0.4014 -1.1513
   65bbb     C1 1886   3.077   6.294  -1.467  0.5858 -0.7079 -0.0136
   65bbb     H1 1887   3.135   6.294  -1.560 -0.6492  4.0717 -1.0305
   65bbb     H2 1888   3.077   6.398  -1.432 -0.0927 -0.0202 -1.9662
   65bbb     C2 1889   3.075   6.195  -1.232 -0.3147  0.1341 -0.1392
   65bbb     H3 1890   3.131   6.126  -1.169 -1.8784 -0.4092  0.7206
   65bbb     H4 1891   2.970   6.162  -1.240 -0.0694 -0.8182  0.4389
   65bbb     C3 1892   3.173   6.069  -1.430  0.3963  0.0574 -0.0449
   65bbb     H5 1893   3.205   6.082  -1.535  0.8615  0.2777  0.1234
   65bbb     H6 1894   3.082   6.007  -1.435  0.4989 -0.1199  0.2823
   65bbb     C4 1895   3.276   5.988  -1.346 -0.7190 -0.6369 -0.4352
   65bbb     H7 1896   3.225   5.893  -1.323  0.2480 -0.5275  2.7623
   65bbb     H8 1897   3.307   6.033  -1.250 -1.6914 -0.4084 -0.2172
   65bbb     C5 1898   2.933   6.245  -1.504  0.3752 -0.0950  0.4149
   65bbb     H9 1899   2.870   6.231  -1.415  0.4789  0.5527  0.5926
   65bbb    H10 1900   2.936   6.149  -1.558  0.0486 -0.1653  0.5136
   65bbb     C6 1901   3.094   6.341  -1.175 -0.1756  0.6796 -0.2994
   65bbb    H11 1902   3.033   6.412  -1.233 -0.4625 -2.0379 -3.6366
   65bbb    H12 1903   3.196   6.376  -1.193 -0.8179  3.4542  0.9382
   65bbb     C7 1904   3.396   5.968  -1.437  0.2670 -0.8203 -0.4620
   65bbb    H13 1905   3.443   6.067  -1.439 -0.1899 -0.5804  0.3682
   65bbb    H14 1906   3.365   5.937  -1.537 -1.7057 -1.6949  0.3592
   65bbb     C8 1907   3.057   6.358  -1.024  0.3284 -0.2236 -0.3104
   65bbb    H15 1908   2.951   6.331  -1.014 -0.0912  0.9637 -1.3637
   65bbb    H16 1909   3.063   6.467  -1.010  0.0211 -0.1566 -0.6849
   65bbb     C9 1910   2.860   6.360  -1.600 -0.1542 -0.7314 -0.0038
   65bbb    H17 1911   2.771   6.322  -1.651  0.3960 -0.0319 -1.5518
   65bbb    H18 1912   2.930   6.397  -1.676  0.5753  0.9377  1.3979
   65bbb     O1 1913   3.476   5.867  -1.377 -0.2236 -0.2525  0.0083
   66bbb     N1 1914   4.614   4.697  -0.213  0.3372  0.2999 -0.0940
   66bbb     C1 1915   4.656   4.674  -0.356  0.1810  0.1436 -0.3898
   66bbb     H1 1916   4.757   4.630  -0.355  0.8915  1.5481 -2.7243
   66bbb     H2 1917   4.677   4.770  -0.404  0.9540  0.9592  1.4691
   66bbb     C2 1918   4.715   4.781  -0.143  0.8762  0.3378 -0.0960
   66bbb     H3 1919   4.666   4.819  -0.053 -1.3442  0.0830 -1.1217
   66bbb     H4 1920   4.726   4.875  -0.199  1.3806  0.9674  1.0267
   66bbb     C3 1921   4.473   4.750  -0.189  0.2134  0.5006 -0.0562
   66bbb     H5 1922   4.405   4.715  -0.267  1.6435  0.7217 -1.4370
   66bbb     H6 1923   4.470   4.860  -0.179 -0.1826  0.4572  0.3620
   66bbb     C4 1924   4.421   4.710  -0.051 -0.1556  0.6715  0.1373
   66bbb     H7 1925   4.329   4.767  -0.035  0.6783  1.9655  0.4223
   66bbb     H8 1926   4.498   4.718   0.027 -0.4324 -2.9724  0.9953
   66bbb     C5 1927   4.558   4.581  -0.435 -0.0703  0.2447 -0.8279
   66bbb     H9 1928   4.459   4.626  -0.445 -0.9468 -1.2602  0.5708
   66bbb    H10 1929   4.542   4.486  -0.382 -1.9407  0.9148 -0.1205
   66bbb     C6 1930   4.856   4.714  -0.108  0.3006  0.2179  0.3085
   66bbb    H11 1931   4.896   4.680  -0.205 -0.5970  1.7448 -0.6563
   66bbb    H12 1932   4.834   4.627  -0.045 -0.1647  0.7671  0.9153
   66bbb     C7 1933   4.396   4.552  -0.046  0.5502  0.0688  0.6817
   66bbb    H13 1934   4.412   4.518   0.057  0.1915 -0.7634  0.4715
   66bbb    H14 1935   4.481   4.503  -0.095  0.0402  0.1111 -0.2730
   66bbb     C8 1936   4.953   4.809  -0.036 -0.6856  0.3347 -0.3070
   66bbb    H15 1937   4.893   4.860   0.040 -3.6107 -0.9232 -1.6254
   66bbb    H16 1938   4.989   4.883  -0.110 -1.4279  0.1600 -0.8527
   66bbb     C9 1939   4.619   4.555  -0.575  0.1792 -0.3164 -1.4548
   66bbb    H17 1940   4.651   4.450  -0.573  2.0527  0.2352  0.0431
   66bbb    H18 1941   4.707   4.616  -0.598 -1.1049  1.2659 -2.3867
   66bbb     O1 1942   4.270   4.526  -0.114 -0.5928 -0.1382 -0.4921
   67bbb     N1 1943   4.270   4.220  -0.599 -0.2939 -1.2753  0.5968
   67bbb     C1 1944   4.417   4.227  -0.578 -0.5034  0.4391  0.2279
   67bbb     H1 1945   4.443   4.313  -0.515 -0.7313 -0.9160  2.2538
   67bbb     H2 1946   4.466   4.232  -0.676  1.1737 -2.4555  0.7991
   67bbb     C2 1947   4.211   4.346  -0.658  0.2602 -0.5705 -0.4268
   67bbb     H3 1948   4.108   4.340  -0.696  0.5345  3.5353 -2.3597
   67bbb     H4 1949   4.264   4.364  -0.752  2.6522  2.3117  1.2944
   67bbb     C3 1950   4.199   4.183  -0.477  0.4269  0.1781  0.3778
   67bbb     H5 1951   4.193   4.268  -0.408 -0.6687 -1.6082  2.5895
   67bbb     H6 1952   4.238   4.095  -0.425  0.4231  1.5149  2.7418
   67bbb     C4 1953   4.052   4.152  -0.501 -0.1126 -0.4414 -0.5520
   67bbb     H7 1954   4.045   4.106  -0.600 -0.8618  1.0085 -1.2060
   67bbb     H8 1955   3.989   4.241  -0.498 -0.7304 -0.7874 -2.0661
   67bbb     C5 1956   4.490   4.117  -0.507 -0.3839  0.3342  0.2082
   67bbb     H9 1957   4.449   4.019  -0.533 -0.8334  0.2062  1.3519
   67bbb    H10 1958   4.491   4.119  -0.398 -2.7377 -0.0567  0.2753
   67bbb     C6 1959   4.214   4.480  -0.580 -0.0806  0.1945  0.5453
   67bbb    H11 1960   4.310   4.485  -0.529 -0.9058 -4.0494  2.9629
   67bbb    H12 1961   4.145   4.483  -0.495  0.0898  1.1602  0.6639
   67bbb     C7 1962   3.995   4.067  -0.384  0.1024  0.6860 -0.2112
   67bbb    H13 1963   4.032   4.114  -0.292 -1.3619  0.3609  0.5844
   67bbb    H14 1964   4.032   3.965  -0.391  1.5981  1.2984 -1.6849
   67bbb     C8 1965   4.191   4.609  -0.670 -0.1029  0.4501 -0.2454
   67bbb    H15 1966   4.173   4.590  -0.776  0.8665  1.5163 -0.6206
   67bbb    H16 1967   4.280   4.673  -0.670 -0.2848  0.7120  0.1955
   67bbb     C9 1968   4.639   4.108  -0.540 -0.3632  0.6131  0.5454
   67bbb    H17 1969   4.680   4.035  -0.469 -0.8405 -0.0231  0.1707
   67bbb    H18 1970   4.690   4.197  -0.500  0.8133  0.0836  0.2807
   67bbb     O1 1971   3.857   4.075  -0.401  0.4022  0.0934  0.7565
   68bbb     N1 1972   3.339   4.938   0.970  0.7962 -0.4072  0.3163
   68bbb     C1 1973   3.480   4.928   0.978 -0.8059 -0.0168  0.8529
   68bbb     H1 1974   3.506   4.823   0.962 -1.8893 -0.0201 -1.3080
   68bbb     H2 1975   3.526   4.948   1.075 -0.6378 -1.1524  1.0212
   68bbb     C2 1976   3.273   4.951   1.101  0.2007  0.4375  0.0441
   68bbb     H3 1977   3.182   5.012   1.087 -1.1391 -1.5325 -0.2969
   68bbb     H4 1978   3.337   5.020   1.156  0.1259  0.7300 -0.2321
   68bbb     C3 1979   3.270   4.860   0.870  0.4388  0.1231  0.2170
   68bbb     H5 1980   3.282   4.752   0.883  1.8995  0.1919 -0.4071
   68bbb     H6 1981   3.328   4.872   0.777  1.2533 -0.7430  0.6021
   68bbb     C4 1982   3.123   4.891   0.831 -0.7427  0.4105 -0.1500
   68bbb     H7 1983   3.119   4.995   0.797 -0.9666  0.8245  1.1037
   68bbb     H8 1984   3.056   4.877   0.916  0.8429  0.0170  1.0876
   68bbb     C5 1985   3.554   5.014   0.873 -0.1378 -0.2253  0.1720
   68bbb     H9 1986   3.556   5.117   0.911  0.6501  0.3761 -1.4124
   68bbb    H10 1987   3.500   5.024   0.778  2.4455  0.4404 -1.3127
   68bbb     C6 1988   3.256   4.817   1.175 -0.8365  0.2608  0.9332
   68bbb    H11 1989   3.346   4.755   1.169 -2.6315 -2.5846  1.2556
   68bbb    H12 1990   3.175   4.766   1.120 -0.3554  1.3676 -0.8545
   68bbb     C7 1991   3.076   4.788   0.721 -0.5176  0.0507  0.1357
   68bbb    H13 1992   2.973   4.756   0.742 -0.2022 -0.1496  1.4611
   68bbb    H14 1993   3.137   4.697   0.729 -0.4525  0.1515  0.8669
   68bbb     C8 1994   3.205   4.840   1.320 -0.2565  0.3904 -0.2270
   68bbb    H15 1995   3.124   4.913   1.328  1.4447  2.1363  2.7651
   68bbb    H16 1996   3.284   4.873   1.389 -1.1343  1.2193  0.3933
   68bbb     C9 1997   3.707   4.965   0.850  0.0198 -0.3559  0.9926
   68bbb    H17 1998   3.768   4.976   0.939 -1.4995  0.6848  1.9573
   68bbb    H18 1999   3.745   5.035   0.774 -3.5212  0.1417 -0.5587
   68bbb     O1 2000   3.086   4.841   0.588 -0.3609 -0.1590 -0.1218
   69bbb     N1 2001   2.395   4.553  -0.351 -0.0741 -1.0066  0.0075
   69bbb     C1 2002   2.352   4.425  -0.409 -0.3311 -0.5678  0.2864
   69bbb     H1 2003   2.437   4.367  -0.446  0.2727  1.1178 -1.1086
   69bbb     H2 2004   2.294   4.454  -0.498  2.2015  4.1337 -0.1840
   69bbb     C2 2005   2.477   4.641  -0.447 -0.2730  0.3722  0.1269
   69bbb     H3 2006   2.580   4.606  -0.459 -1.3834 -3.1351 -0.4367
   69bbb     H4 2007   2.482   4.746  -0.416  0.5558  0.5879 -0.7016
   69bbb     C3 2008   2.474   4.551  -0.226  0.1315 -0.5939 -0.4945
   69bbb     H5 2009   2.573   4.509  -0.247  0.2100 -1.1920  0.9616
   69bbb     H6 2010   2.427   4.485  -0.152  0.2138  0.7221  0.7932
   69bbb     C4 2011   2.473   4.689  -0.152  0.0296 -0.4581  0.2405
   69bbb     H7 2012   2.369   4.724  -0.159  0.4477  0.5889 -0.9902
   69bbb     H8 2013   2.525   4.767  -0.208 -1.2544 -0.8176 -1.5756
   69bbb     C5 2014   2.269   4.333  -0.315  0.1132  0.3074 -0.0355
   69bbb     H9 2015   2.332   4.313  -0.227  0.8703  2.0186 -0.1480
   69bbb    H10 2016   2.244   4.237  -0.362 -4.3107  0.9986  0.4393
   69bbb     C6 2017   2.427   4.656  -0.592 -0.6632  0.0848  0.3714
   69bbb    H11 2018   2.431   4.559  -0.644 -0.5926  0.4361 -0.2849
   69bbb    H12 2019   2.493   4.722  -0.649 -0.2883  0.1392  0.8665
   69bbb     C7 2020   2.521   4.684  -0.002 -0.3559 -0.2280 -0.1582
   69bbb    H13 2021   2.627   4.656   0.001  0.4221  2.5239  0.8049
   69bbb    H14 2022   2.465   4.615   0.063 -0.3308  1.1193  1.3405
   69bbb     C8 2023   2.287   4.717  -0.603  0.3568  0.2695  0.1112
   69bbb    H15 2024   2.301   4.826  -0.596 -1.9194  0.6122  0.1645
   69bbb    H16 2025   2.240   4.667  -0.518  1.7451  0.7048  1.1804
   69bbb     C9 2026   2.139   4.408  -0.275 -0.0797  0.5018 -0.7304
   69bbb    H17 2027   2.165   4.515  -0.271  0.7850  0.2766  1.3710
   69bbb    H18 2028   2.104   4.393  -0.172 -2.4836 -1.0444 -1.6929
   69bbb     O1 2029   2.511   4.808   0.051  0.1316 -0.0794  0.0260
   70bbb     N1 2030   5.091   6.040   1.694 -0.5967  0.0747 -0.5490
   70bbb     C1 2031   5.161   6.054   1.818 -0.0555  0.4406  0.1485
   70bbb     H1 2032   5.097   6.021   1.901 -2.1780  0.2119 -1.4798
   70bbb     H2 2033   5.180   6.159   1.842 -0.3285 -0.0429  2.7339
   70bbb     C2 2034   4.989   6.151   1.662 -0.0473  0.5555  0.6230
   70bbb     H3 2035   4.917   6.141   1.744 -1.7205 -0.6311 -0.9100
   70bbb     H4 2036   4.920   6.135   1.578 -0.1742  1.3792  0.5605
   70bbb     C3 2037   5.043   5.912   1.648 -0.3523 -0.3262 -0.3077
   70bbb     H5 2038   4.951   5.883   1.701 -0.0900  0.9015  0.8543
   70bbb     H6 2039   5.118   5.839   1.681  0.7378  1.3315  1.0147
   70bbb     C4 2040   5.029   5.907   1.493 -0.4979 -0.1275  0.3107
   70bbb     H7 2041   4.945   5.959   1.446 -0.4821  0.7077  1.1772
   70bbb     H8 2042   5.019   5.802   1.465 -1.8152  0.1860 -0.4411
   70bbb     C5 2043   5.293   5.976   1.828  0.6130  0.4176  0.3075
   70bbb     H9 2044   5.269   5.869   1.827 -0.9596  0.7318  1.1770
   70bbb    H10 2045   5.328   5.987   1.932 -0.2879 -2.5894  1.0444
   70bbb     C6 2046   5.049   6.294   1.642 -0.1032 -0.4000 -0.6301
   70bbb    H11 2047   5.106   6.326   1.730  0.3758 -1.5343 -0.5114
   70bbb    H12 2048   4.962   6.361   1.635 -0.3934 -0.6942  0.0942
   70bbb     C7 2049   5.164   5.956   1.426 -0.3048  0.0544 -0.2772
   70bbb    H13 2050   5.249   5.918   1.484 -1.0681 -2.2222 -0.5516
   70bbb    H14 2051   5.178   6.065   1.425 -0.4914  0.1086 -2.5382
   70bbb     C8 2052   5.155   6.320   1.528 -0.3644  0.0400 -0.2646
   70bbb    H15 2053   5.102   6.296   1.435 -0.4818 -1.0045  0.0573
   70bbb    H16 2054   5.237   6.249   1.543  1.9650  2.4466 -0.8078
   70bbb     C9 2055   5.394   6.019   1.724 -0.5014  0.1471 -0.1885
   70bbb    H17 2056   5.401   6.128   1.726  3.1333  0.0284  0.7001
   70bbb    H18 2057   5.356   5.989   1.625 -0.0559  0.8837 -0.5956
   70bbb     O1 2058   5.177   5.905   1.291  0.3435  0.0515 -0.4391
   71bbb     N1 2059   4.700   5.315   0.707  0.1894 -0.3427  0.2956
   71bbb     C1 2060   4.681   5.188   0.782 -0.1971  0.4177  0.4889
   71bbb     H1 2061   4.600   5.193   0.856 -1.6869  4.1990 -1.1905
   71bbb     H2 2062   4.769   5.165   0.843 -0.3137 -2.3213 -0.2235
   71bbb     C2 2063   4.603   5.337   0.593  0.4777  0.0776 -0.4238
   71bbb     H3 2064   4.613   5.248   0.530  2.5043 -0.0322 -0.0457
   71bbb     H4 2065   4.621   5.428   0.535  0.5491  1.4174  1.6097
   71bbb     C3 2066   4.724   5.439   0.788 -0.5175  0.0266 -0.6356
   71bbb     H5 2067   4.646   5.437   0.866 -0.4569  1.5438 -0.4989
   71bbb     H6 2068   4.708   5.535   0.737  0.3175  0.5065 -0.0352
   71bbb     C4 2069   4.868   5.426   0.849 -0.4550  0.2038  0.3232
   71bbb     H7 2070   4.880   5.332   0.904  2.1328 -0.6132 -1.4517
   71bbb     H8 2071   4.897   5.498   0.927  1.8139 -1.6183  1.2791
   71bbb     C5 2072   4.678   5.059   0.698  0.3932 -0.1392 -0.0398
   71bbb     H9 2073   4.761   5.055   0.627 -0.5823  1.0059 -1.3201
   71bbb    H10 2074   4.590   5.064   0.632  0.3521  1.8897  0.1142
   71bbb     C6 2075   4.456   5.342   0.650  0.0199 -0.6981 -0.6914
   71bbb    H11 2076   4.451   5.429   0.717  0.2198 -0.3505 -1.1201
   71bbb    H12 2077   4.438   5.250   0.706 -1.9778 -0.1639 -0.4022
   71bbb     C7 2078   4.985   5.417   0.749  0.4487  0.3227  0.4899
   71bbb    H13 2079   4.950   5.354   0.666  0.4699  0.3457  0.4637
   71bbb    H14 2080   5.062   5.360   0.802  0.5401  1.8819  2.1462
   71bbb     C8 2081   4.342   5.345   0.543  0.3839 -0.5054 -0.6148
   71bbb    H15 2082   4.369   5.423   0.470 -1.0763  0.7522  0.1321
   71bbb    H16 2083   4.248   5.365   0.595  1.8488  1.5205  1.4730
   71bbb     C9 2084   4.670   4.937   0.799  0.1383  0.2023  0.2368
   71bbb    H17 2085   4.763   4.930   0.857  0.4773  2.5992  0.0974
   71bbb    H18 2086   4.661   4.846   0.738 -2.5639  1.5346 -1.5280
   71bbb     O1 2087   5.040   5.546   0.714  0.9024  0.4135 -0.8133
   72bbb     N1 2088   5.681   6.622  -0.138 -0.3305 -0.1590 -0.0856
   72bbb     C1 2089   5.602   6.500  -0.121 -0.2977 -0.2599 -0.5346
   72bbb     H1 2090   5.496   6.515  -0.098 -0.6850 -0.6827 -1.9403
   72bbb     H2 2091   5.634   6.447  -0.031 -1.8791 -0.2467  0.0698
   72bbb     C2 2092   5.684   6.706  -0.016  0.1407 -0.0074  0.2395
   72bbb     H3 2093   5.720   6.642   0.065  1.7586 -1.2163 -1.3496
   72bbb     H4 2094   5.582   6.740   0.005  0.8860  2.3591  0.2949
   72bbb     C3 2095   5.646   6.697  -0.260 -0.6045  0.6243 -0.2546
   72bbb     H5 2096   5.655   6.638  -0.351 -2.5497  1.3747 -0.9743
   72bbb     H6 2097   5.713   6.782  -0.278  0.3279 -0.1313 -0.4289
   72bbb     C4 2098   5.499   6.748  -0.267 -0.9027  0.2195 -0.1475
   72bbb     H7 2099   5.490   6.831  -0.196  0.9698  0.8562 -0.5994
   72bbb     H8 2100   5.423   6.676  -0.232  0.6509 -0.0324  3.0459
   72bbb     C5 2101   5.597   6.401  -0.237 -0.6959 -0.5328  0.5177
   72bbb     H9 2102   5.530   6.447  -0.311 -0.7313 -0.6179  0.4963
   72bbb    H10 2103   5.546   6.309  -0.205 -1.0384 -0.9442 -1.0821
   72bbb     C6 2104   5.779   6.824  -0.031 -0.4196  0.0102  0.5037
   72bbb    H11 2105   5.737   6.915  -0.075  1.7198  0.8045 -0.0291
   72bbb    H12 2106   5.858   6.790  -0.100 -1.0025  0.0563 -0.2049
   72bbb     C7 2107   5.463   6.817  -0.400 -0.4994  0.7110  0.3517
   72bbb    H13 2108   5.485   6.750  -0.484 -2.0515  1.8653 -1.0426
   72bbb    H14 2109   5.528   6.905  -0.412 -1.2422  1.1850 -0.2709
   72bbb     C8 2110   5.836   6.874   0.104 -0.1838  0.3725 -0.5442
   72bbb    H15 2111   5.873   6.977   0.091 -0.7310  0.6559  0.0809
   72bbb    H16 2112   5.921   6.811   0.134 -0.8121 -0.2303 -0.0105
   72bbb     C9 2113   5.736   6.372  -0.309 -0.1613  0.2526 -0.4266
   72bbb    H17 2114   5.813   6.357  -0.233  0.4593  1.5978 -0.7617
   72bbb    H18 2115   5.770   6.455  -0.372  0.5662 -0.9501 -1.6972
   72bbb     O1 2116   5.323   6.862  -0.409 -0.1776  0.6399 -0.4042
   73bbb     N1 2117   4.169   6.672  -1.000 -0.2666 -0.6588 -0.0846
   73bbb     C1 2118   4.113   6.657  -0.866  0.4299 -0.6477  0.0778
   73bbb     H1 2119   4.172   6.578  -0.816 -1.1487 -1.2536  1.0506
   73bbb     H2 2120   4.014   6.611  -0.867  0.1064 -0.2550  2.9954
   73bbb     C2 2121   4.145   6.546  -1.084  0.0677 -0.7808 -0.0759
   73bbb     H3 2122   4.040   6.518  -1.069 -0.1283 -0.7427 -1.2655
   73bbb     H4 2123   4.205   6.465  -1.041 -1.6084 -0.7303  2.5736
   73bbb     C3 2124   4.315   6.714  -1.004  0.1155  0.2391 -0.6919
   73bbb     H5 2125   4.324   6.814  -0.961  3.3321  0.8089 -2.3394
   73bbb     H6 2126   4.351   6.720  -1.108 -2.0738 -1.3867 -1.6214
   73bbb     C4 2127   4.414   6.618  -0.940  0.3690 -0.6318  0.7558
   73bbb     H7 2128   4.413   6.518  -0.986  0.8104 -0.4564  0.3535
   73bbb     H8 2129   4.399   6.610  -0.832  0.6459 -0.5344  0.8003
   73bbb     C5 2130   4.106   6.783  -0.781 -0.0345  0.4804 -0.3624
   73bbb     H9 2131   4.198   6.840  -0.801  0.9146 -1.0662 -0.5805
   73bbb    H10 2132   4.106   6.755  -0.675 -1.4473 -0.8889 -0.6850
   73bbb     C6 2133   4.169   6.554  -1.241  0.2263 -0.6424  0.3238
   73bbb    H11 2134   4.276   6.574  -1.251  0.4789 -2.4924 -1.5398
   73bbb    H12 2135   4.115   6.635  -1.292  0.0950 -1.6951 -1.3003
   73bbb     C7 2136   4.555   6.672  -0.940 -0.4009  0.5520 -0.2368
   73bbb    H13 2137   4.573   6.717  -1.039  0.3817 -0.1380 -0.4270
   73bbb    H14 2138   4.615   6.581  -0.929 -1.2046 -0.0274 -0.6119
   73bbb     C8 2139   4.127   6.417  -1.298  0.5738 -0.5114  0.4624
   73bbb    H15 2140   4.126   6.437  -1.406 -0.0311  0.4689  0.6335
   73bbb    H16 2141   4.028   6.395  -1.256  0.3573  0.8178  0.6987
   73bbb     C9 2142   3.981   6.860  -0.829 -0.1890 -0.4048  1.0876
   73bbb    H17 2143   3.890   6.821  -0.782 -0.3691  0.0523  1.1183
   73bbb    H18 2144   3.968   6.850  -0.938 -1.8129 -1.6559  1.3532
   73bbb     O1 2145   4.572   6.763  -0.834  0.7168 -0.3873  0.6052
   74bbb     N1 2146   4.797   4.603   0.546  0.1620  0.7657  0.4569
   74bbb     C1 2147   4.838   4.563   0.412  0.0435 -0.3709  0.4994
   74bbb     H1 2148   4.937   4.516   0.410 -0.7695 -2.2202  1.1970
   74bbb     H2 2149   4.842   4.655   0.353 -1.0600  0.6296  1.9059
   74bbb     C2 2150   4.769   4.486   0.631  0.1231 -0.1966 -0.4984
   74bbb     H3 2151   4.860   4.424   0.632 -0.4320 -1.1000 -2.0399
   74bbb     H4 2152   4.689   4.422   0.592 -1.5570  1.0574  0.7524
   74bbb     C3 2153   4.885   4.704   0.609  0.2778  0.0413 -0.2264
   74bbb     H5 2154   4.836   4.748   0.696 -0.7300 -0.6940 -0.4100
   74bbb     H6 2155   4.895   4.786   0.536  1.4859  0.0444 -0.0842
   74bbb     C4 2156   5.026   4.652   0.646  0.6948  0.1296 -0.0437
   74bbb     H7 2157   5.084   4.628   0.555  2.0974  1.3030  0.5086
   74bbb     H8 2158   5.014   4.562   0.708 -3.6010  1.2973  1.0826
   74bbb     C5 2159   4.738   4.469   0.330 -0.3887  0.0893  0.0270
   74bbb     H9 2160   4.631   4.487   0.347  0.0843 -0.2417  4.6392
   74bbb    H10 2161   4.756   4.365   0.361 -1.3097 -0.4031 -1.0170
   74bbb     C6 2162   4.726   4.508   0.779  0.2101  0.5487  0.3841
   74bbb    H11 2163   4.623   4.543   0.786 -0.5531 -0.9588 -2.0708
   74bbb    H12 2164   4.788   4.576   0.838  0.1433  1.0867 -0.1604
   74bbb     C7 2165   5.102   4.764   0.722 -0.1555 -0.6738  0.1670
   74bbb    H13 2166   5.207   4.735   0.727 -0.4306 -1.7747 -0.2353
   74bbb    H14 2167   5.062   4.777   0.823 -0.1897  0.2103  0.0537
   74bbb     C8 2168   4.716   4.375   0.847 -0.1974  0.5263  0.0825
   74bbb    H15 2169   4.631   4.327   0.798  0.0917  1.3206 -1.2523
   74bbb    H16 2170   4.686   4.387   0.952 -2.0903  1.6995 -0.5489
   74bbb     C9 2171   4.761   4.469   0.177 -0.2376 -0.0307 -0.1383
   74bbb    H17 2172   4.858   4.423   0.155  0.4900  1.3752  0.0396
   74bbb    H18 2173   4.760   4.571   0.135  0.9692 -0.2824 -0.8451
   74bbb     O1 2174   5.086   4.888   0.646 -0.2744 -0.2612  0.2173
   75bbb     N1 2175   5.767   5.436  -0.023  0.4960 -0.1482  0.2293
   75bbb     C1 2176   5.892   5.505   0.020 -0.0993  0.3354  0.0506
   75bbb     H1 2177   5.876   5.611   0.045  1.3592  0.4491  0.6114
   75bbb     H2 2178   5.956   5.516  -0.068  0.2265  1.8935  0.4373
   75bbb     C2 2179   5.780   5.315  -0.100  0.5802 -0.4106  0.7813
   75bbb     H3 2180   5.679   5.285  -0.129  0.8004  1.2588 -2.1189
   75bbb     H4 2181   5.826   5.238  -0.037  2.6991  1.1202  1.1912
   75bbb     C3 2182   5.662   5.427   0.077 -0.0322  0.6069 -0.3547
   75bbb     H5 2183   5.703   5.363   0.155  0.7160  0.4691 -0.8460
   75bbb     H6 2184   5.564   5.392   0.041 -0.4741  1.1260  0.3064
   75bbb     C4 2185   5.627   5.560   0.156 -0.4711  0.7260 -0.2327
   75bbb     H7 2186   5.600   5.644   0.090  1.0600  1.5346  0.1251
   75bbb     H8 2187   5.715   5.587   0.216 -0.8870  0.5094  0.4931
   75bbb     C5 2188   5.962   5.429   0.129  0.3215  0.1389 -0.0843
   75bbb     H9 2189   5.986   5.325   0.104  0.0833  0.7105 -3.1357
   75bbb    H10 2190   5.889   5.420   0.210 -3.2336  2.1185 -2.7621
   75bbb     C6 2191   5.864   5.333  -0.220 -0.7104  0.2920  0.6685
   75bbb    H11 2192   5.969   5.347  -0.192 -1.0765 -0.2179  2.3983
   75bbb    H12 2193   5.831   5.423  -0.274 -0.4987 -0.8358 -1.4395
   75bbb     C7 2194   5.517   5.540   0.262  0.1557 -0.4943  0.2461
   75bbb    H13 2195   5.440   5.494   0.199 -0.9290  1.0630  0.3652
   75bbb    H14 2196   5.487   5.637   0.303 -0.5472 -1.0219  1.0108
   75bbb     C8 2197   5.850   5.210  -0.307 -0.2195  0.4705 -0.5596
   75bbb    H15 2198   5.759   5.218  -0.368  0.1040 -0.2943 -1.1548
   75bbb    H16 2199   5.834   5.119  -0.248  0.8163 -0.2246 -1.3160
   75bbb     C9 2200   6.094   5.504   0.169  0.2676  0.5077  0.5639
   75bbb    H17 2201   6.136   5.453   0.257 -1.7874  1.5431  2.2164
   75bbb    H18 2202   6.070   5.606   0.202  1.5530  1.0175  0.0123
   75bbb     O1 2203   5.560   5.442   0.369 -0.0550 -0.2722 -0.2437
   76bbb     N1 2204   4.360   4.907  -1.224 -0.2484 -0.0801 -0.4718
   76bbb     C1 2205   4.307   5.047  -1.235 -0.4407 -0.3605 -0.8177
   76bbb     H1 2206   4.357   5.112  -1.162 -0.5559 -2.2813  1.0832
   76bbb     H2 2207   4.200   5.050  -1.213 -0.3226 -1.7107  0.0661
   76bbb     C2 2208   4.363   4.852  -1.083  0.2204 -0.3982 -0.4142
   76bbb     H3 2209   4.441   4.909  -1.031  1.7975  0.1436 -3.1618
   76bbb     H4 2210   4.393   4.747  -1.084  2.2554  0.1513 -0.5058
   76bbb     C3 2211   4.489   4.889  -1.298 -0.0970 -0.3767 -0.1878
   76bbb     H5 2212   4.554   4.973  -1.271 -1.7294  0.5364  1.0733
   76bbb     H6 2213   4.468   4.893  -1.406 -2.4489  0.6969  0.2512
   76bbb     C4 2214   4.573   4.759  -1.263 -0.7635  0.2835 -0.6669
   76bbb     H7 2215   4.520   4.666  -1.286  0.3273 -0.6632  0.4862
   76bbb     H8 2216   4.596   4.760  -1.156  0.5030  0.9462 -0.9237
   76bbb     C5 2217   4.292   5.112  -1.377 -0.2180 -0.2089 -0.5379
   76bbb     H9 2218   4.394   5.114  -1.417  0.0383 -2.5920 -0.1580
   76bbb    H10 2219   4.250   5.212  -1.365 -0.5100 -0.5195  1.3008
   76bbb     C6 2220   4.225   4.868  -1.013  0.3695 -0.1406  0.6470
   76bbb    H11 2221   4.194   4.973  -1.007 -1.1074 -0.6350  2.6545
   76bbb    H12 2222   4.248   4.837  -0.910  2.2968 -0.1044  0.2608
   76bbb     C7 2223   4.704   4.745  -1.346  0.7853  0.6027 -0.4850
   76bbb    H13 2224   4.680   4.751  -1.453  1.3006 -1.0022 -0.7274
   76bbb    H14 2225   4.748   4.645  -1.336 -0.0328  0.3262  0.4614
   76bbb     C8 2226   4.112   4.775  -1.061 -0.1784 -0.6949 -0.4761
   76bbb    H15 2227   4.090   4.794  -1.166  0.4506  1.2721 -0.2814
   76bbb    H16 2228   4.025   4.793  -0.997  0.7176  3.4086 -0.1551
   76bbb     C9 2229   4.220   5.034  -1.486 -0.3337  0.3452  0.5398
   76bbb    H17 2230   4.121   5.003  -1.453 -0.4314 -0.5247 -0.5112
   76bbb    H18 2231   4.277   4.941  -1.491  0.2018  0.4175  3.4224
   76bbb     O1 2232   4.792   4.857  -1.306  0.7117 -0.1196 -0.7890
   77bbb     N1 2233   4.933   5.804  -1.143 -0.1065 -0.0681 -0.0985
   77bbb     C1 2234   4.928   5.918  -1.057 -0.5157 -0.0058  0.3963
   77bbb     H1 2235   4.998   5.910  -0.973 -0.5786 -0.7970  0.3812
   77bbb     H2 2236   4.829   5.939  -1.014 -2.0427 -1.3950 -2.2135
   77bbb     C2 2237   4.868   5.820  -1.275  0.1864  0.5368  0.5100
   77bbb     H3 2238   4.889   5.734  -1.340 -0.2542  1.3338 -0.7369
   77bbb     H4 2239   4.911   5.904  -1.332  0.4518  0.0114 -0.0846
   77bbb     C3 2240   4.901   5.682  -1.062  0.0692 -0.0638  0.0566
   77bbb     H5 2241   4.792   5.688  -1.046 -0.0619  1.9643 -1.2366
   77bbb     H6 2242   4.945   5.698  -0.963 -3.1045  3.2712  1.1869
   77bbb     C4 2243   4.933   5.541  -1.121  0.0019  0.4990 -0.7430
   77bbb     H7 2244   4.864   5.519  -1.203 -1.0696 -0.6167  0.4161
   77bbb     H8 2245   4.891   5.477  -1.042  0.8258  3.1451  2.0670
   77bbb     C5 2246   4.979   6.054  -1.128  0.0808  0.1323  0.2693
   77bbb     H9 2247   4.957   6.130  -1.052  2.7101  1.2051  0.0575
   77bbb    H10 2248   4.905   6.072  -1.207 -0.5114 -3.8000 -0.2946
   77bbb     C6 2249   4.713   5.845  -1.278 -0.4654  0.0549  0.3228
   77bbb    H11 2250   4.698   5.934  -1.215  2.2610  2.1799 -1.7792
   77bbb    H12 2251   4.658   5.763  -1.231  0.2933  0.2938  1.6984
   77bbb     C7 2252   5.081   5.514  -1.154 -0.1169  0.5992  0.3059
   77bbb    H13 2253   5.136   5.503  -1.060 -0.8439  1.6339  0.8856
   77bbb    H14 2254   5.121   5.604  -1.203 -0.6153 -0.1152 -1.4581
   77bbb     C8 2255   4.660   5.870  -1.417 -0.3197  0.0925  0.3574
   77bbb    H15 2256   4.733   5.823  -1.484  3.4484  1.9904  2.7711
   77bbb    H16 2257   4.657   5.978  -1.438 -2.0925  0.1807  0.9112
   77bbb     C9 2258   5.125   6.063  -1.172  0.0642 -0.0583 -0.1264
   77bbb    H17 2259   5.152   5.965  -1.213  0.3009 -0.2038  0.3664
   77bbb    H18 2260   5.187   6.064  -1.081 -2.2552  0.0089  1.5430
   77bbb     O1 2261   5.100   5.404  -1.244 -0.2297 -0.3672  0.0084
   78bbb     N1 2262   5.264   6.587   0.142  0.0869  0.5317 -0.2021
   78bbb     C1 2263   5.121   6.549   0.150 -0.6522  0.1461 -0.1568
   78bbb     H1 2264   5.114   6.440   0.161  0.4810  0.0476 -0.2531
   78bbb     H2 2265   5.073   6.575   0.055  1.7143  0.2542 -1.3879
   78bbb     C2 2266   5.361   6.473   0.153 -0.3077 -0.0706 -0.3893
   78bbb     H3 2267   5.459   6.511   0.121 -0.0486  0.5594  1.0731
   78bbb     H4 2268   5.330   6.392   0.086 -0.8046 -1.3124  1.3041
   78bbb     C3 2269   5.306   6.708   0.063  0.1984  0.1217  0.2032
   78bbb     H5 2270   5.336   6.680  -0.039  1.3655  2.0562 -0.0525
   78bbb     H6 2271   5.388   6.743   0.127  0.4662 -2.3221  1.2951
   78bbb     C4 2272   5.200   6.827   0.045  0.5321 -0.0328  0.0170
   78bbb     H7 2273   5.179   6.873   0.142 -0.9549 -0.5754 -0.0197
   78bbb     H8 2274   5.108   6.783   0.003 -0.5546  0.8146  1.4380
   78bbb     C5 2275   5.058   6.618   0.270  0.4472 -0.0923  0.4551
   78bbb     H9 2276   5.090   6.721   0.285 -0.7937  0.5802 -1.2414
   78bbb    H10 2277   5.098   6.564   0.357  1.0744  1.2470  1.0221
   78bbb     C6 2278   5.380   6.423   0.295  0.8541  0.4372 -0.1552
   78bbb    H11 2279   5.288   6.370   0.324 -0.4110  1.5250 -1.9530
   78bbb    H12 2280   5.389   6.506   0.365 -2.7006  0.2988  0.6343
   78bbb     C7 2281   5.256   6.942  -0.052  0.5794  0.6847 -1.0831
   78bbb    H13 2282   5.272   6.904  -0.154 -0.7518 -1.3790 -0.6011
   78bbb    H14 2283   5.356   6.977  -0.025  0.7137 -0.6949  0.3999
   78bbb     C8 2284   5.498   6.327   0.320 -0.4365  0.3494  0.9354
   78bbb    H15 2285   5.481   6.236   0.261 -0.0005 -0.4160  1.9387
   78bbb    H16 2286   5.501   6.296   0.426  0.7665  1.6908  1.3328
   78bbb     C9 2287   4.902   6.590   0.269 -0.3028 -0.2149 -0.4843
   78bbb    H17 2288   4.891   6.489   0.229  0.6254 -1.1317  1.4366
   78bbb    H18 2289   4.862   6.666   0.200 -1.8719  0.0714  0.7087
   78bbb     O1 2290   5.166   7.050  -0.050 -0.0335  0.2539 -0.0524
   79bbb     N1 2291   4.363   7.725  -0.544 -0.1906  0.7756  0.1410
   79bbb     C1 2292   4.275   7.613  -0.560  0.1459  0.7116  0.0877
   79bbb     H1 2293   4.311   7.555  -0.645  1.9416  0.8750  0.6893
   79bbb     H2 2294   4.171   7.640  -0.581  0.1381 -0.5257 -1.5943
   79bbb     C2 2295   4.323   7.813  -0.434 -0.3771 -0.4894 -0.6193
   79bbb     H3 2296   4.368   7.912  -0.446 -1.0154 -0.1083  0.0215
   79bbb     H4 2297   4.363   7.767  -0.343 -0.3314  0.4413 -0.1581
   79bbb     C3 2298   4.514   7.698  -0.531 -0.4841 -0.4004  0.7024
   79bbb     H5 2299   4.538   7.646  -0.438 -1.3927 -0.3929  0.9482
   79bbb     H6 2300   4.568   7.794  -0.522  1.2199 -1.4118  1.8398
   79bbb     C4 2301   4.575   7.623  -0.649  0.1023 -0.0059  0.0431
   79bbb     H7 2302   4.552   7.678  -0.741 -1.7567  0.6948  0.8574
   79bbb     H8 2303   4.522   7.527  -0.658 -1.2097  0.4905  1.8280
   79bbb     C5 2304   4.274   7.505  -0.445 -0.2651 -0.3762 -0.1290
   79bbb     H9 2305   4.251   7.539  -0.344 -0.4414 -2.2177  0.4830
   79bbb    H10 2306   4.378   7.473  -0.429 -0.3233  0.2492  1.7199
   79bbb     C6 2307   4.171   7.837  -0.413  0.2044 -0.0144  0.0594
   79bbb    H11 2308   4.122   7.750  -0.369 -0.4039  1.3910  2.3458
   79bbb    H12 2309   4.136   7.865  -0.514 -2.1926  1.3470  1.1767
   79bbb     C7 2310   4.728   7.622  -0.641 -0.0759  0.7556 -0.9547
   79bbb    H13 2311   4.778   7.717  -0.619 -2.3639  1.3791  2.3048
   79bbb    H14 2312   4.761   7.581  -0.737  2.7627 -2.8082  1.3048
   79bbb     C8 2313   4.158   7.951  -0.310 -0.1363 -0.1446 -0.4005
   79bbb    H15 2314   4.062   8.003  -0.325  0.6546  1.5636  0.2756
   79bbb    H16 2315   4.232   8.028  -0.329 -0.0473  0.6295  2.5146
   79bbb     C9 2316   4.192   7.381  -0.475 -1.0686  0.2305 -0.4226
   79bbb    H17 2317   4.087   7.412  -0.486 -1.1208 -0.4679 -2.2500
   79bbb    H18 2318   4.200   7.308  -0.394  0.5122  0.3478 -0.4506
   79bbb     O1 2319   4.765   7.522  -0.542  0.0457  0.4150  0.9937
   80bbb     N1 2320   5.421   5.984   0.049 -0.1946 -0.1736  0.1571
   80bbb     C1 2321   5.550   5.951  -0.027 -0.1544 -0.5371 -0.4886
   80bbb     H1 2322   5.538   5.940  -0.135  2.3198 -1.3183 -0.7497
   80bbb     H2 2323   5.589   5.853   0.004 -1.5348 -1.2770 -1.0105
   80bbb     C2 2324   5.436   5.960   0.197 -0.3412  0.1760  0.4446
   80bbb     H3 2325   5.500   6.033   0.248 -1.7864  0.5173  1.8452
   80bbb     H4 2326   5.488   5.865   0.216 -1.4239 -0.3307  0.9805
   80bbb     C3 2327   5.353   6.112   0.008 -0.6596  0.5669 -0.5406
   80bbb     H5 2328   5.420   6.195   0.032  0.4547 -0.2133 -0.8656
   80bbb     H6 2329   5.258   6.118   0.062 -0.3586 -4.1554  0.9939
   80bbb     C4 2330   5.309   6.120  -0.145  0.3588 -0.4829 -0.4004
   80bbb     H7 2331   5.228   6.047  -0.155  0.6342 -1.1482  1.7175
   80bbb     H8 2332   5.392   6.101  -0.214  0.7528  0.5919 -0.2388
   80bbb     C5 2333   5.658   6.063  -0.016 -0.8658 -0.2038 -0.0366
   80bbb     H9 2334   5.644   6.146   0.054  1.0078  0.6183 -0.5716
   80bbb    H10 2335   5.678   6.121  -0.107  1.8961  0.7922  1.0745
   80bbb     C6 2336   5.311   5.963   0.282  0.3541 -0.3594 -0.2116
   80bbb    H11 2337   5.250   5.884   0.236 -0.0937 -0.8264  1.1260
   80bbb    H12 2338   5.265   6.062   0.269 -0.7848 -1.1039 -2.2849
   80bbb     C7 2339   5.257   6.261  -0.184 -0.5616  0.0397 -0.4126
   80bbb    H13 2340   5.335   6.324  -0.140 -1.7279  0.6041  0.9536
   80bbb    H14 2341   5.158   6.295  -0.151 -0.6091  0.9124 -1.3994
   80bbb     C8 2342   5.344   5.920   0.426  0.2334  0.8629  0.3582
   80bbb    H15 2343   5.336   5.811   0.431 -0.0391  0.9281  1.7562
   80bbb    H16 2344   5.270   5.948   0.502 -0.9626  0.6536 -0.7056
   80bbb     C9 2345   5.799   6.004   0.008  0.5501 -0.1732  0.7311
   80bbb    H17 2346   5.876   6.071  -0.032 -1.7246  1.6320 -0.8999
   80bbb    H18 2347   5.813   5.912  -0.050 -0.0309 -0.7191  1.4377
   80bbb     O1 2348   5.268   6.281  -0.327 -0.4429 -0.0280  0.0330
   81bbb     N1 2349   5.565   5.560  -1.131 -0.8840 -0.2447 -0.1330
   81bbb     C1 2350   5.612   5.468  -1.024 -0.7412  0.0592 -0.5244
   81bbb     H1 2351   5.630   5.517  -0.928  1.2020  0.7614 -1.1831
   81bbb     H2 2352   5.712   5.430  -1.048  1.0615  3.4093  1.0284
   81bbb     C2 2353   5.571   5.505  -1.275 -0.2362  0.0816 -0.3532
   81bbb     H3 2354   5.509   5.415  -1.280  0.4631 -0.3627 -1.5987
   81bbb     H4 2355   5.672   5.473  -1.304 -0.7490 -0.1361 -2.0623
   81bbb     C3 2356   5.439   5.634  -1.098  0.1451 -0.5853 -0.7117
   81bbb     H5 2357   5.359   5.561  -1.078  0.4466 -0.4265  1.3560
   81bbb     H6 2358   5.401   5.689  -1.186 -0.6142  1.0988  0.5959
   81bbb     C4 2359   5.442   5.733  -0.976 -0.2401  0.4064  0.1922
   81bbb     H7 2360   5.535   5.790  -0.989  0.6492 -0.8720  0.6962
   81bbb     H8 2361   5.458   5.686  -0.878 -0.0078  2.0449  0.9726
   81bbb     C5 2362   5.521   5.343  -1.003 -0.2819 -0.9180 -0.2176
   81bbb     H9 2363   5.500   5.291  -1.098  0.3803 -0.0518 -0.8592
   81bbb    H10 2364   5.419   5.376  -0.978 -0.2167 -0.2902 -0.7193
   81bbb     C6 2365   5.544   5.601  -1.398 -0.2668 -0.0415 -0.6318
   81bbb    H11 2366   5.595   5.698  -1.394 -2.6584  1.2451  1.8966
   81bbb    H12 2367   5.437   5.623  -1.402 -1.5161 -4.7619  0.5003
   81bbb     C7 2368   5.314   5.827  -0.990 -0.8746 -0.0594  0.0969
   81bbb    H13 2369   5.224   5.764  -0.979 -0.6466 -0.3770  0.1619
   81bbb    H14 2370   5.304   5.874  -1.089 -2.5589  1.3440  0.8952
   81bbb     C8 2371   5.587   5.540  -1.535  0.0274 -0.9417  0.0934
   81bbb    H15 2372   5.689   5.500  -1.535  0.5673  0.3973  0.0595
   81bbb    H16 2373   5.593   5.606  -1.622  1.5978  1.2909  1.7930
   81bbb     C9 2374   5.580   5.248  -0.900  0.0072  0.1152  0.4291
   81bbb    H17 2375   5.499   5.177  -0.879 -0.8089  0.3658 -1.6484
   81bbb    H18 2376   5.594   5.310  -0.811 -0.8105  0.7996  0.0985
   81bbb     O1 2377   5.307   5.932  -0.893 -0.2393  0.3889  0.3499
   82bbb     N1 2378   4.399   5.376   1.623 -0.1319 -0.1121 -0.0283
   82bbb     C1 2379   4.379   5.290   1.745 -0.9150  0.9529 -0.6020
   82bbb     H1 2380   4.284   5.236   1.753 -0.3777  0.1059  0.3936
   82bbb     H2 2381   4.372   5.359   1.830  2.1306  1.4436 -0.6549
   82bbb     C2 2382   4.473   5.326   1.509 -0.1557  0.5931 -0.0884
   82bbb     H3 2383   4.552   5.258   1.545 -0.1138  1.6313  1.9497
   82bbb     H4 2384   4.529   5.413   1.472 -1.6542  2.2275  1.3088
   82bbb     C3 2385   4.303   5.485   1.603 -0.1339 -1.0271  0.1880
   82bbb     H5 2386   4.199   5.457   1.623 -0.6150  0.0467 -0.7005
   82bbb     H6 2387   4.307   5.518   1.498  2.1596 -0.2048  0.4922
   82bbb     C4 2388   4.341   5.616   1.685 -0.1753 -0.1383  0.1777
   82bbb     H7 2389   4.341   5.587   1.791 -0.0900 -1.0099 -0.0518
   82bbb     H8 2390   4.270   5.698   1.669 -1.4334 -1.0223  1.0038
   82bbb     C5 2391   4.504   5.199   1.788 -0.3189 -0.3830 -0.0511
   82bbb     H9 2392   4.590   5.266   1.793 -2.2659  2.1995  1.6597
   82bbb    H10 2393   4.517   5.115   1.718 -1.9026 -0.6382 -0.0863
   82bbb     C6 2394   4.386   5.268   1.397 -0.1531  1.0588 -0.1262
   82bbb    H11 2395   4.457   5.233   1.321  0.5203  2.3307 -0.1201
   82bbb    H12 2396   4.326   5.341   1.342  0.0933  0.3104 -1.4239
   82bbb     C7 2397   4.479   5.671   1.649  0.4406  0.3176  0.2211
   82bbb    H13 2398   4.485   5.640   1.543  1.1248 -1.9618  0.8600
   82bbb    H14 2399   4.553   5.617   1.710 -1.3535 -0.7371  1.5357
   82bbb     C8 2400   4.301   5.145   1.457  0.6350  0.1878 -0.3888
   82bbb    H15 2401   4.227   5.107   1.385 -0.2044  0.4183  0.3360
   82bbb    H16 2402   4.241   5.178   1.542  1.5527 -1.2018  0.8651
   82bbb     C9 2403   4.482   5.140   1.930  0.4757 -0.3432  0.7371
   82bbb    H17 2404   4.469   5.221   2.002 -1.9114  0.3096 -0.3181
   82bbb    H18 2405   4.572   5.088   1.964  0.9858 -1.5193 -2.1530
   82bbb     O1 2406   4.480   5.804   1.670 -0.4869  0.0592 -0.2307
   83bbb     N1 2407   3.973   6.560   1.337 -0.3963  0.0608 -0.8565
   83bbb     C1 2408   4.083   6.646   1.266  0.0318  0.2474 -0.2329
   83bbb     H1 2409   4.050   6.675   1.165 -0.8542 -2.8275 -0.9676
   83bbb     H2 2410   4.166   6.575   1.255 -0.5429 -0.8202  1.7377
   83bbb     C2 2411   3.909   6.467   1.246  0.2166 -0.4302 -0.0486
   83bbb     H3 2412   3.866   6.537   1.174 -1.2650 -0.1690  1.0420
   83bbb     H4 2413   3.821   6.422   1.293 -0.0639  0.4411  0.2832
   83bbb     C3 2414   4.028   6.493   1.463 -0.1716  0.5202  0.0267
   83bbb     H5 2415   4.048   6.574   1.534  1.5593  0.1950 -0.0624
   83bbb     H6 2416   4.120   6.439   1.439 -1.2938 -1.2919 -0.3949
   83bbb     C4 2417   3.934   6.387   1.528  0.4321 -0.4016  0.0184
   83bbb     H7 2418   3.935   6.304   1.457 -1.5210  0.6698 -1.3605
   83bbb     H8 2419   3.831   6.423   1.536  0.0453 -1.3306 -0.5579
   83bbb     C5 2420   4.128   6.773   1.346 -0.0679 -0.3038 -0.2913
   83bbb     H9 2421   4.220   6.821   1.309  0.7160 -2.5483 -1.4689
   83bbb    H10 2422   4.146   6.736   1.448 -0.7251  1.9848  0.7278
   83bbb     C6 2423   3.999   6.361   1.170 -0.2561  0.1620 -0.1672
   83bbb    H11 2424   4.064   6.321   1.249 -0.4652  2.0668  1.0350
   83bbb    H12 2425   4.061   6.408   1.093 -0.8748  0.0411 -0.7470
   83bbb     C7 2426   3.970   6.340   1.671  0.2058 -0.3534 -0.1732
   83bbb    H13 2427   3.910   6.257   1.709  1.2073 -0.8292  0.4148
   83bbb    H14 2428   3.965   6.422   1.744 -3.7747 -1.1631  0.6684
   83bbb     C8 2429   3.921   6.248   1.095  0.1344  0.0755  0.1518
   83bbb    H15 2430   3.912   6.278   0.990  1.5432 -1.0059 -0.3156
   83bbb    H16 2431   3.818   6.239   1.130 -0.2131 -0.8642 -1.0705
   83bbb     C9 2432   4.015   6.874   1.355 -0.0260 -0.5072 -0.1516
   83bbb    H17 2433   3.930   6.825   1.404 -0.8024 -0.8117 -1.7466
   83bbb    H18 2434   3.977   6.898   1.255 -2.2469  2.2020  1.1950
   83bbb     O1 2435   4.105   6.287   1.671 -0.1460 -0.7616 -0.0864
   84bbb     N1 2436   5.467   5.532   1.764  0.3700  0.3019  0.3787
   84bbb     C1 2437   5.529   5.654   1.807 -0.2950  0.2624 -0.0481
   84bbb     H1 2438   5.445   5.723   1.819 -0.0398  0.3721  1.2280
   84bbb     H2 2439   5.592   5.697   1.728  0.6061  2.4537  1.7740
   84bbb     C2 2440   5.399   5.464   1.875 -0.7524  0.5951 -0.6280
   84bbb     H3 2441   5.340   5.538   1.931 -0.1696  1.5075 -1.1835
   84bbb     H4 2442   5.473   5.424   1.945 -0.4831  0.0976 -1.1833
   84bbb     C3 2443   5.388   5.545   1.635  0.6694  0.6404  0.0355
   84bbb     H5 2444   5.313   5.624   1.644  1.3430  1.3679 -0.6815
   84bbb     H6 2445   5.328   5.453   1.628 -0.8210  1.2383  3.1175
   84bbb     C4 2446   5.475   5.566   1.508 -0.6866  0.3196 -0.6480
   84bbb     H7 2447   5.537   5.479   1.481  1.8792  2.0813 -0.7205
   84bbb     H8 2448   5.548   5.643   1.534 -0.3074 -0.3804  0.4114
   84bbb     C5 2449   5.614   5.640   1.935 -0.3975  0.0809  0.0873
   84bbb     H9 2450   5.671   5.546   1.938  0.6853  0.7141  0.1484
   84bbb    H10 2451   5.545   5.635   2.020 -1.6848 -2.1573 -0.9865
   84bbb     C6 2452   5.319   5.342   1.839  0.0279  0.3788  0.8055
   84bbb    H11 2453   5.377   5.284   1.766 -1.2635  0.3780 -0.2510
   84bbb    H12 2454   5.218   5.365   1.804  0.5053  1.3254 -0.0117
   84bbb     C7 2455   5.396   5.611   1.383  0.3474  0.3070  0.1441
   84bbb    H13 2456   5.476   5.626   1.309 -0.6654 -0.2553 -1.1103
   84bbb    H14 2457   5.337   5.701   1.404 -3.4569 -1.9337  0.1636
   84bbb     C8 2458   5.300   5.251   1.967 -0.2373 -0.1167  0.1065
   84bbb    H15 2459   5.292   5.309   2.059  2.8747  0.9040 -0.1576
   84bbb    H16 2460   5.392   5.199   1.995  0.5810  1.1833 -0.0458
   84bbb     C9 2461   5.712   5.756   1.954 -0.0472 -0.0815  0.3924
   84bbb    H17 2462   5.759   5.734   2.051  0.5592 -2.1209 -0.3063
   84bbb    H18 2463   5.661   5.852   1.953  1.1009  0.5495  0.6067
   84bbb     O1 2464   5.307   5.511   1.328  0.0287 -0.3015  0.7394
   85bbb     N1 2465   4.920   5.018   1.626 -0.2073  0.0384  0.0415
   85bbb     C1 2466   4.855   5.151   1.603 -0.6733 -0.7409 -0.0271
   85bbb     H1 2467   4.746   5.136   1.603 -0.7074 -0.5081  0.4867
   85bbb     H2 2468   4.888   5.183   1.504  2.0108  2.8398  1.7806
   85bbb     C2 2469   4.893   4.942   1.752 -0.7717 -0.3957  0.5458
   85bbb     H3 2470   4.785   4.924   1.758 -1.1517 -0.0290 -2.8987
   85bbb     H4 2471   4.927   5.006   1.833 -1.4852 -0.4786  0.9153
   85bbb     C3 2472   4.922   4.929   1.507 -0.5308 -0.0365 -0.4463
   85bbb     H5 2473   4.995   4.850   1.527  0.5973  0.8739 -0.8735
   85bbb     H6 2474   4.973   4.976   1.422 -1.5310 -2.6934 -2.6488
   85bbb     C4 2475   4.782   4.874   1.473 -0.4210  0.2028 -0.9421
   85bbb     H7 2476   4.723   4.857   1.564  0.5972  0.2165 -0.2654
   85bbb     H8 2477   4.792   4.772   1.434  0.4381 -0.1302  0.1007
   85bbb     C5 2478   4.895   5.256   1.718  0.8079 -0.2444  0.4186
   85bbb     H9 2479   5.004   5.266   1.724  0.5837  2.0195  3.3150
   85bbb    H10 2480   4.859   5.231   1.819  2.8485 -0.0922  1.2295
   85bbb     C6 2481   4.957   4.796   1.779 -0.1846 -0.6611  0.1315
   85bbb    H11 2482   5.065   4.817   1.786 -0.1186 -0.8650 -0.2377
   85bbb    H12 2483   4.940   4.718   1.703  1.3082 -0.7550 -0.1415
   85bbb     C7 2484   4.717   4.966   1.375  0.4657 -0.2012  0.7771
   85bbb    H13 2485   4.701   5.069   1.411  0.8079 -0.1052  0.6609
   85bbb    H14 2486   4.620   4.917   1.357 -0.0429  0.5998  1.2666
   85bbb     C8 2487   4.922   4.741   1.917  0.1316 -0.2759  0.3988
   85bbb    H15 2488   4.952   4.813   1.994 -0.0465 -0.8055  0.9720
   85bbb    H16 2489   4.984   4.652   1.937  1.0823  0.3700  0.4001
   85bbb     C9 2490   4.844   5.402   1.682  0.0169 -0.0015 -0.9216
   85bbb    H17 2491   4.735   5.399   1.669 -0.0896  0.0740 -0.1004
   85bbb    H18 2492   4.892   5.441   1.591 -2.0438 -0.1119 -2.1222
   85bbb     O1 2493   4.800   4.967   1.246 -0.8130 -0.5749 -0.2957
   86bbb     N1 2494   2.573   5.993   1.138  0.1500  0.0309 -0.0285
   86bbb     C1 2495   2.605   6.132   1.169  0.5404 -0.7042 -0.0950
   86bbb     H1 2496   2.515   6.192   1.186  1.1439  0.5422 -1.1062
   86bbb     H2 2497   2.652   6.187   1.087  1.6428  0.5522  1.3279
   86bbb     C2 2498   2.425   5.975   1.099  0.3368  0.3388  0.4574
   86bbb     H3 2499   2.414   5.880   1.046  0.6417  2.3322 -3.5700
   86bbb     H4 2500   2.393   6.053   1.028 -0.2342 -1.3912 -1.2564
   86bbb     C3 2501   2.660   5.929   1.042  0.5107 -0.2149 -0.0772
   86bbb     H5 2502   2.762   5.960   1.067  0.1347  1.2608 -0.2553
   86bbb     H6 2503   2.637   5.966   0.942 -0.2817  0.1577  0.2314
   86bbb     C4 2504   2.648   5.777   1.039 -0.1438 -0.1758  0.1531
   86bbb     H7 2505   2.563   5.754   0.973  1.4651  1.8002 -2.8736
   86bbb     H8 2506   2.636   5.747   1.144 -0.1988  2.1028  0.8648
   86bbb     C5 2507   2.702   6.156   1.297  0.0629  0.2201 -0.4297
   86bbb     H9 2508   2.731   6.261   1.308 -0.6196  0.2569  1.4660
   86bbb    H10 2509   2.800   6.112   1.277 -0.1079  0.3854 -1.6881
   86bbb     C6 2510   2.337   5.961   1.228  0.0465  0.1630  0.6663
   86bbb    H11 2511   2.244   5.923   1.185  1.1167 -2.2741  0.3379
   86bbb    H12 2512   2.324   6.061   1.270 -0.6419  0.1315  0.5363
   86bbb     C7 2513   2.773   5.706   0.985 -0.6911 -0.4199 -0.1257
   86bbb    H13 2514   2.756   5.599   1.001  1.3951 -0.4511  2.6143
   86bbb    H14 2515   2.866   5.750   1.022 -2.0446  1.5094  1.2042
   86bbb     C8 2516   2.384   5.857   1.328 -0.2469  0.1501 -1.2528
   86bbb    H15 2517   2.493   5.875   1.334 -0.3408  0.3812  0.0586
   86bbb    H16 2518   2.378   5.752   1.295  2.4446 -1.0203  1.4801
   86bbb     C9 2519   2.635   6.101   1.429  0.6210 -0.3754 -0.6924
   86bbb    H17 2520   2.639   5.991   1.422  2.0431 -0.3339 -0.6952
   86bbb    H18 2521   2.530   6.134   1.431 -0.0655 -2.4408  0.5918
   86bbb     O1 2522   2.762   5.713   0.841 -0.0920 -0.0639  0.3180
   87bbb     N1 2523   2.306   5.293   0.022 -0.1946  0.0467  0.4564
   87bbb     C1 2524   2.181   5.382   0.007 -0.2435  0.0847  0.4198
   87bbb     H1 2525   2.214   5.487  -0.000 -0.4214  0.0285 -1.7399
   87bbb     H2 2526   2.119   5.361   0.095 -1.4946 -0.4304 -0.5667
   87bbb     C2 2527   2.304   5.168   0.103  0.4390 -0.1125 -0.4582
   87bbb     H3 2528   2.305   5.197   0.209  1.8715  0.6961 -0.6717
   87bbb     H4 2529   2.402   5.120   0.090  0.6890  0.7282 -1.8771
   87bbb     C3 2530   2.431   5.367   0.044 -0.6321  0.4352 -0.2015
   87bbb     H5 2531   2.433   5.437  -0.040  1.4096  2.5061  1.4374
   87bbb     H6 2532   2.516   5.300   0.031  0.0132  0.9193  1.2746
   87bbb     C4 2533   2.457   5.439   0.181 -0.9632  0.1738  0.1507
   87bbb     H7 2534   2.451   5.363   0.260 -1.8757  0.4490  0.3641
   87bbb     H8 2535   2.386   5.521   0.197 -1.1805 -0.0181  0.1733
   87bbb     C5 2536   2.098   5.355  -0.112 -0.1273 -0.0951 -0.3822
   87bbb     H9 2537   2.049   5.257  -0.113 -0.9678  0.3126 -1.3753
   87bbb    H10 2538   2.163   5.366  -0.199 -0.6386  1.8536 -0.5736
   87bbb     C6 2539   2.195   5.065   0.069  0.4732  0.1462  0.4257
   87bbb    H11 2540   2.205   5.032  -0.035  0.2716 -2.6152  1.2025
   87bbb    H12 2541   2.097   5.111   0.082  0.2770 -0.7430  2.6848
   87bbb     C7 2542   2.587   5.506   0.199 -0.6014 -0.4255  0.5038
   87bbb    H13 2543   2.576   5.581   0.278 -1.5956 -1.3694  1.2945
   87bbb    H14 2544   2.607   5.564   0.108 -3.1582 -0.1929  0.0051
   87bbb     C8 2545   2.192   4.937   0.154 -0.1681  0.2846  0.4342
   87bbb    H15 2546   2.176   4.964   0.259 -1.1480  1.8428 -0.0734
   87bbb    H16 2547   2.294   4.896   0.154  0.1286  0.9094 -1.6415
   87bbb     C9 2548   2.000   5.470  -0.120  0.0728 -0.3817 -0.1341
   87bbb    H17 2549   1.935   5.443  -0.205  0.2407 -2.0423  0.2358
   87bbb    H18 2550   2.037   5.571  -0.142 -0.0246  0.0359  1.5364
   87bbb     O1 2551   2.689   5.414   0.236  0.0984 -0.4717  0.2962
   88bbb     N1 2552   1.972   6.995   1.061  0.0217  0.2086  0.2225
   88bbb     C1 2553   1.846   7.028   0.987 -0.0748  0.5561  0.4562
   88bbb     H1 2554   1.822   6.953   0.911  2.3268 -0.1075  0.2609
   88bbb     H2 2555   1.849   7.122   0.931 -1.9467  1.1114  1.1947
   88bbb     C2 2556   1.970   6.863   1.128 -0.1438 -0.0184  0.3306
   88bbb     H3 2557   1.944   6.783   1.057 -1.8485  0.9193 -0.1745
   88bbb     H4 2558   1.891   6.862   1.203  0.3441  1.2929  0.8976
   88bbb     C3 2559   2.092   7.023   0.985 -0.3444 -0.7059 -0.3297
   88bbb     H5 2560   2.177   7.026   1.053  1.1053  0.1174 -2.1079
   88bbb     H6 2561   2.075   7.119   0.936  1.7885 -0.8509 -1.4465
   88bbb     C4 2562   2.123   6.926   0.867 -0.0386  0.3758  0.6461
   88bbb     H7 2563   2.047   6.938   0.789  0.6530 -2.0814 -0.5236
   88bbb     H8 2564   2.122   6.821   0.900 -0.4493  0.2224  0.1513
   88bbb     C5 2565   1.725   7.031   1.081  0.5936  0.4112 -0.1351
   88bbb     H9 2566   1.747   7.097   1.166 -1.5790  0.0091  0.8031
   88bbb    H10 2567   1.704   6.936   1.131 -1.3206  0.4575 -0.7671
   88bbb     C6 2568   2.098   6.828   1.208  1.2006 -0.4664  0.6875
   88bbb    H11 2569   2.131   6.917   1.262 -1.8233  0.4522  1.1529
   88bbb    H12 2570   2.177   6.797   1.137  0.3048 -1.9778  0.3061
   88bbb     C7 2571   2.252   6.947   0.793 -0.6247  0.1010  0.5667
   88bbb    H13 2572   2.279   7.052   0.782  2.0746 -0.7607 -2.5770
   88bbb    H14 2573   2.242   6.905   0.692  0.3280 -0.5209  0.7155
   88bbb     C8 2574   2.080   6.708   1.301 -0.3902  0.2165  0.2356
   88bbb    H15 2575   2.176   6.662   1.326 -0.4332  0.4417  0.8370
   88bbb    H16 2576   2.022   6.630   1.252  1.4956 -1.1090  0.0149
   88bbb     C9 2577   1.591   7.072   1.008 -0.5214 -0.0955  0.5009
   88bbb    H17 2578   1.523   7.106   1.087 -0.3820  0.5188  0.3654
   88bbb    H18 2579   1.544   6.984   0.962 -0.5600  0.5266 -0.6843
   88bbb     O1 2580   2.360   6.880   0.863 -0.3202  0.1989 -0.3310
   89bbb     N1 2581   2.952   7.044   0.011  0.0085  0.3196  0.0589
   89bbb     C1 2582   3.046   6.949  -0.065  0.0161 -0.0588  0.7146
   89bbb     H1 2583   2.988   6.890  -0.137  0.6860 -0.6391  0.6378
   89bbb     H2 2584   3.085   6.869  -0.001  1.5894  0.2124  0.1257
   89bbb     C2 2585   2.820   6.986   0.048  0.2180 -0.5292 -0.4208
   89bbb     H3 2586   2.763   7.067   0.095  2.2511  0.0599  1.1621
   89bbb     H4 2587   2.821   6.913   0.130  0.4138 -1.1244 -0.9379
   89bbb     C3 2588   3.006   7.135   0.108 -0.1624 -0.1167  0.6056
   89bbb     H5 2589   2.922   7.181   0.162 -0.3559  1.0063 -0.5861
   89bbb     H6 2590   3.076   7.202   0.056 -0.3961 -1.0159 -0.9305
   89bbb     C4 2591   3.085   7.056   0.214 -0.2473  0.3162 -0.6184
   89bbb     H7 2592   3.170   7.007   0.163  0.1915  1.4280 -0.9922
   89bbb     H8 2593   3.020   6.981   0.259 -0.6095 -0.3613 -2.2078
   89bbb     C5 2594   3.161   7.016  -0.150  0.1558  0.2413 -0.6033
   89bbb     H9 2595   3.233   6.941  -0.185  1.0581  0.7239  0.1917
   89bbb    H10 2596   3.225   7.080  -0.089 -1.3892  0.2902  1.0659
   89bbb     C6 2597   2.729   6.930  -0.070  0.1385 -0.5091 -0.3532
   89bbb    H11 2598   2.630   6.904  -0.031  0.4409 -0.0008  0.8129
   89bbb    H12 2599   2.782   6.842  -0.107  0.4703  0.1357 -1.4481
   89bbb     C7 2600   3.126   7.147   0.341 -0.0046  0.3919  0.5596
   89bbb    H13 2601   3.045   7.219   0.362  0.0095  0.5719  0.0158
   89bbb    H14 2602   3.216   7.206   0.319  1.0732 -1.2185  0.5375
   89bbb     C8 2603   2.700   7.040  -0.179 -0.1558  0.6091 -0.5073
   89bbb    H15 2604   2.791   7.101  -0.191 -0.7987  1.6728 -0.1321
   89bbb    H16 2605   2.620   7.109  -0.148  0.5156  0.7440  1.0132
   89bbb     C9 2606   3.113   7.075  -0.283 -0.6977 -1.0430 -0.0246
   89bbb    H17 2607   3.057   7.161  -0.244 -0.8743 -0.4743 -1.4791
   89bbb    H18 2608   3.044   7.007  -0.335 -0.0271 -2.5836  1.0072
   89bbb     O1 2609   3.154   7.070   0.462 -0.1951 -0.1642 -0.6949
   90bbb     N1 2610   3.209   5.168   2.337 -0.5411  0.5638  0.6893
   90bbb     C1 2611   3.240   5.049   2.418 -0.3430 -0.0115 -0.1645
   90bbb     H1 2612   3.261   4.959   2.359  2.3910 -0.6140  1.4927
   90bbb     H2 2613   3.163   5.024   2.492  0.2803 -0.4029  0.3615
   90bbb     C2 2614   3.107   5.142   2.238 -0.2734 -0.6561 -0.6225
   90bbb     H3 2615   3.119   5.220   2.162 -0.1214 -0.4376 -0.3724
   90bbb     H4 2616   3.009   5.144   2.286  0.8107  1.0870  1.6944
   90bbb     C3 2617   3.217   5.294   2.403 -0.2993 -0.6537  0.0702
   90bbb     H5 2618   3.315   5.314   2.448 -0.3579 -1.4156  0.5598
   90bbb     H6 2619   3.141   5.307   2.481  0.9186  0.2806  1.1338
   90bbb     C4 2620   3.208   5.413   2.303  0.4454  0.4201 -0.1206
   90bbb     H7 2621   3.212   5.507   2.361 -3.1647  0.9427 -0.4810
   90bbb     H8 2622   3.106   5.421   2.264  0.0925 -1.9261  0.1970
   90bbb     C5 2623   3.372   5.071   2.486 -0.1620  0.1989 -0.0310
   90bbb     H9 2624   3.365   5.145   2.567  2.0935  0.8275 -0.3435
   90bbb    H10 2625   3.450   5.106   2.418 -1.8998  0.9028 -1.7501
   90bbb     C6 2626   3.119   5.010   2.159 -0.4845  0.0778  0.4320
   90bbb    H11 2627   3.060   5.031   2.069 -2.0292 -1.9718  0.8910
   90bbb    H12 2628   3.077   4.923   2.211  0.6106 -1.3963 -1.0034
   90bbb     C7 2629   3.326   5.410   2.196  0.6330 -1.0314  0.1031
   90bbb    H13 2630   3.314   5.329   2.122 -0.5436 -0.0627 -0.8044
   90bbb    H14 2631   3.416   5.393   2.256 -0.5042  0.1797  2.2699
   90bbb     C8 2632   3.262   4.978   2.103 -0.0061  0.2434  0.3927
   90bbb    H15 2633   3.334   4.999   2.183 -0.8553  0.3522  1.1442
   90bbb    H16 2634   3.292   5.045   2.022 -1.1679 -3.5396 -3.5561
   90bbb     C9 2635   3.411   4.939   2.555  0.0671 -0.2277  0.0353
   90bbb    H17 2636   3.329   4.901   2.617  0.1220  2.7734  2.1708
   90bbb    H18 2637   3.501   4.960   2.615  1.2996  0.5315 -1.9755
   90bbb     O1 2638   3.344   5.532   2.124  0.7387  0.4476  0.2137
   91bbb     N1 2639   3.502   6.078   2.402  0.1958  0.5112  0.0925
   91bbb     C1 2640   3.525   6.203   2.479  0.3523 -0.0956 -0.6811
   91bbb     H1 2641   3.569   6.180   2.577 -0.6673 -0.6499 -0.3398
   91bbb     H2 2642   3.426   6.244   2.502 -0.5757 -0.8052 -3.1584
   91bbb     C2 2643   3.616   5.987   2.391 -0.2551 -0.0948  0.4889
   91bbb     H3 2644   3.664   5.984   2.489  0.6274 -0.0678  0.0683
   91bbb     H4 2645   3.687   6.031   2.320 -1.1870  0.0735 -0.3674
   91bbb     C3 2646   3.434   6.107   2.269 -0.4398  0.0957  0.1225
   91bbb     H5 2647   3.413   6.014   2.214  1.8975 -0.7030  0.4722
   91bbb     H6 2648   3.488   6.173   2.200 -1.5719  0.8227 -0.0888
   91bbb     C4 2649   3.301   6.177   2.287  0.4247 -0.2890 -0.9495
   91bbb     H7 2650   3.319   6.278   2.325  0.6510 -0.3178 -0.9738
   91bbb     H8 2651   3.241   6.125   2.362  4.3259 -0.9303  2.0796
   91bbb     C5 2652   3.629   6.298   2.418  1.3366 -0.1590  1.2327
   91bbb     H9 2653   3.590   6.321   2.318  2.1989 -0.2392  0.8746
   91bbb    H10 2654   3.720   6.243   2.393 -0.7048 -2.6272 -1.4050
   91bbb     C6 2655   3.591   5.843   2.354  0.2679  0.8645 -0.0606
   91bbb    H11 2656   3.566   5.812   2.251  0.4035 -3.2676  0.9535
   91bbb    H12 2657   3.497   5.821   2.407 -0.5179  1.7859 -1.0134
   91bbb     C7 2658   3.217   6.198   2.162 -0.2507  0.5549  0.3370
   91bbb    H13 2659   3.249   6.290   2.110 -0.0664 -0.1645 -0.8499
   91bbb    H14 2660   3.113   6.194   2.199 -0.5198 -1.3366 -0.5598
   91bbb     C8 2661   3.689   5.745   2.417 -0.3976 -0.5082  0.1685
   91bbb    H15 2662   3.708   5.777   2.521 -0.0496  0.9243 -0.3078
   91bbb    H16 2663   3.781   5.758   2.358  0.0716  1.2031  1.1928
   91bbb     C9 2664   3.645   6.431   2.498 -0.1024  0.6097 -0.0463
   91bbb    H17 2665   3.542   6.451   2.530 -0.4336  0.5787 -1.0445
   91bbb    H18 2666   3.678   6.511   2.430 -1.6569  1.1056 -0.2688
   91bbb     O1 2667   3.246   6.095   2.066 -0.0451  0.1185  0.5082
   92bbb     N1 2668   3.890   6.150   0.588  0.1729  0.4389 -0.4557
   92bbb     C1 2669   3.846   6.007   0.616  0.1095 -0.5620 -0.0178
   92bbb     H1 2670   3.830   5.991   0.723 -0.3579 -0.2539 -0.0399
   92bbb     H2 2671   3.932   5.938   0.608  1.7471  1.5056 -1.2592
   92bbb     C2 2672   3.941   6.176   0.450 -0.3518 -0.1351 -0.4015
   92bbb     H3 2673   3.880   6.134   0.369 -1.1890 -0.8080  0.5572
   92bbb     H4 2674   4.035   6.119   0.447  0.3050  0.9511 -2.7952
   92bbb     C3 2675   3.966   6.193   0.716  0.3645 -0.3239 -0.2521
   92bbb     H5 2676   3.893   6.194   0.799  2.0714 -1.2288  1.3351
   92bbb     H6 2677   3.989   6.300   0.707  0.0109 -0.4292 -3.2072
   92bbb     C4 2678   4.094   6.119   0.762 -0.0940  0.0960  0.2733
   92bbb     H7 2679   4.103   6.021   0.713  1.9576  0.5220 -0.2967
   92bbb     H8 2680   4.107   6.105   0.870 -0.0605  1.5942  0.4881
   92bbb     C5 2681   3.738   5.956   0.522  0.2917 -0.5623  0.7969
   92bbb     H9 2682   3.788   5.882   0.458 -1.7000 -2.5649  1.4234
   92bbb    H10 2683   3.694   6.023   0.448  2.2762 -0.9841 -0.8551
   92bbb     C6 2684   3.971   6.324   0.416  0.1436 -0.2466 -0.2047
   92bbb    H11 2685   4.021   6.337   0.319  0.7111 -1.2017 -0.0558
   92bbb    H12 2686   4.038   6.363   0.493 -0.1400 -0.3402  0.0870
   92bbb     C7 2687   4.217   6.204   0.711  0.2667  0.3344 -0.0876
   92bbb    H13 2688   4.226   6.203   0.602  0.1533  0.1544 -0.0966
   92bbb    H14 2689   4.300   6.157   0.765  0.7551  0.8304 -0.3997
   92bbb     C8 2690   3.845   6.408   0.417  0.7512 -0.0542  0.0453
   92bbb    H15 2691   3.785   6.374   0.502 -0.9317 -2.2492 -1.8670
   92bbb    H16 2692   3.787   6.399   0.324  1.6139 -0.4326 -0.4732
   92bbb     C9 2693   3.615   5.892   0.579  0.6887  0.3810  0.3625
   92bbb    H17 2694   3.567   5.853   0.488  2.5548  1.5700 -1.2184
   92bbb    H18 2695   3.558   5.969   0.631  1.1376 -0.2061  1.7587
   92bbb     O1 2696   4.210   6.329   0.761  0.4721 -0.7234 -0.4449
   93bbb     N1 2697   4.755   6.955   1.063  0.1611 -0.5373  0.0558
   93bbb     C1 2698   4.866   7.050   1.110  0.8734  0.4114  0.9817
   93bbb     H1 2699   4.823   7.151   1.111  0.8829  0.4587 -0.6373
   93bbb     H2 2700   4.940   7.055   1.029 -0.4799 -0.8614 -0.3956
   93bbb     C2 2701   4.810   6.821   1.039 -0.3235  0.0458  0.0340
   93bbb     H3 2702   4.720   6.765   1.013 -0.8754  0.6669  0.5473
   93bbb     H4 2703   4.850   6.776   1.131 -0.9021  0.7151  0.6271
   93bbb     C3 2704   4.672   7.006   0.947  0.5607 -0.6036 -0.0192
   93bbb     H5 2705   4.588   6.941   0.920 -1.2759  1.3446  0.6735
   93bbb     H6 2706   4.723   7.006   0.850  0.9659 -0.1941  0.1915
   93bbb     C4 2707   4.603   7.140   0.967  0.5213  0.1568  0.1342
   93bbb     H7 2708   4.688   7.209   0.971  0.1000  0.6813  0.0910
   93bbb     H8 2709   4.577   7.137   1.073  1.7625  0.8655  0.4743
   93bbb     C5 2710   4.934   7.000   1.244 -0.2504 -0.7119  0.7264
   93bbb     H9 2711   5.028   7.055   1.248 -0.2957 -0.5048 -0.5931
   93bbb    H10 2712   4.976   6.899   1.235 -0.0532 -0.5592 -0.2057
   93bbb     C6 2713   4.920   6.821   0.931 -0.3141 -0.6511 -0.3000
   93bbb    H11 2714   5.018   6.844   0.974  0.3132 -1.2537 -1.3877
   93bbb    H12 2715   4.897   6.892   0.851 -1.3804 -0.0301  0.5239
   93bbb     C7 2716   4.482   7.176   0.872 -0.3579  0.3298  0.6350
   93bbb    H13 2717   4.516   7.188   0.769  1.1712 -2.1333  0.7479
   93bbb    H14 2718   4.433   7.268   0.906 -0.5041 -0.0370  1.4531
   93bbb     C8 2719   4.928   6.681   0.873 -1.1538 -0.3202 -0.1540
   93bbb    H15 2720   4.829   6.653   0.836 -0.2892 -2.0031 -1.3489
   93bbb    H16 2721   4.960   6.608   0.949  0.1114 -2.2315 -2.3640
   93bbb     C9 2722   4.845   7.025   1.367 -0.0701 -0.1160  0.3092
   93bbb    H17 2723   4.741   7.014   1.334  0.7285  0.3185 -2.6945
   93bbb    H18 2724   4.848   7.127   1.407  0.3107 -0.6422  1.6911
   93bbb     O1 2725   4.378   7.071   0.882  0.3683 -0.4878 -0.1711
   94bbb     N1 2726   2.547   7.495   0.054 -0.4487 -0.7649 -1.0093
   94bbb     C1 2727   2.632   7.404  -0.031  0.0471 -0.7022 -0.1817
   94bbb     H1 2728   2.569   7.377  -0.117  1.6014 -1.1356 -1.2290
   94bbb     H2 2729   2.672   7.310   0.009  0.2579 -1.2534 -1.6218
   94bbb     C2 2730   2.611   7.554   0.176 -0.4875  0.0081  0.0053
   94bbb     H3 2731   2.552   7.635   0.220 -2.8871  0.1490 -3.0993
   94bbb     H4 2732   2.709   7.598   0.153 -0.4773  0.2634  0.5318
   94bbb     C3 2733   2.468   7.590  -0.028  0.4902  0.4684  0.4539
   94bbb     H5 2734   2.415   7.541  -0.111  1.5732 -0.0042  0.0261
   94bbb     H6 2735   2.539   7.652  -0.085  0.7232  0.0071  0.2375
   94bbb     C4 2736   2.367   7.689   0.041 -0.0175 -0.2836 -0.2890
   94bbb     H7 2737   2.322   7.753  -0.036  0.8978  2.5167  1.3419
   94bbb     H8 2738   2.427   7.753   0.107 -0.4400  1.3010 -1.3694
   94bbb     C5 2739   2.751   7.484  -0.090  0.2793  0.6185  0.3466
   94bbb     H9 2740   2.727   7.590  -0.103  0.3170  0.3239 -3.0161
   94bbb    H10 2741   2.753   7.446  -0.193 -2.1826 -0.8539  0.7572
   94bbb     C6 2742   2.636   7.438   0.283  0.7525 -0.1533  0.2890
   94bbb    H11 2743   2.668   7.350   0.226 -0.8358 -1.0959  0.8082
   94bbb    H12 2744   2.541   7.411   0.330  0.5873 -1.0184 -0.5170
   94bbb     C7 2745   2.257   7.617   0.129  0.6230 -0.3326  0.8556
   94bbb    H13 2746   2.310   7.586   0.220  1.7153 -0.2141  0.2695
   94bbb    H14 2747   2.228   7.528   0.072 -0.5925  1.3520 -1.3299
   94bbb     C8 2748   2.734   7.478   0.395 -0.1650 -0.2016 -0.7901
   94bbb    H15 2749   2.723   7.399   0.470  0.9739 -0.5003 -0.9251
   94bbb    H16 2750   2.704   7.576   0.434 -0.0262 -0.2522 -0.5547
   94bbb     C9 2751   2.884   7.471  -0.016 -0.0476 -0.9992  0.5716
   94bbb    H17 2752   2.916   7.366  -0.023  0.9628 -0.6437 -0.6289
   94bbb    H18 2753   2.878   7.488   0.092  0.3159 -1.6365  0.6928
   94bbb     O1 2754   2.145   7.702   0.145  0.3081  0.0199  0.0212
   95bbb     N1 2755   2.172   7.465   1.100  0.2421  0.5844 -0.5301
   95bbb     C1 2756   2.139   7.343   1.191 -0.7554 -0.7445  0.0962
   95bbb     H1 2757   2.235   7.316   1.237  0.5033 -0.0911 -1.9929
   95bbb     H2 2758   2.102   7.259   1.132 -0.4822 -0.8761  0.1116
   95bbb     C2 2759   2.297   7.451   1.012 -0.5718  0.7584  0.0987
   95bbb     H3 2760   2.332   7.545   0.966  1.6912 -0.2863 -0.4459
   95bbb     H4 2761   2.270   7.391   0.924 -0.6582  0.0856  0.5776
   95bbb     C3 2762   2.054   7.515   1.033  0.0403  0.7508 -0.3573
   95bbb     H5 2763   1.978   7.552   1.103 -1.3477 -0.7001 -1.0439
   95bbb     H6 2764   2.003   7.439   0.974 -1.3602  1.0305  0.4589
   95bbb     C4 2765   2.089   7.643   0.954  0.1811  0.3659  0.6697
   95bbb     H7 2766   2.145   7.599   0.870 -2.0326 -0.1288 -0.6155
   95bbb     H8 2767   2.166   7.705   1.003  1.1941 -1.0794  0.9605
   95bbb     C5 2768   2.029   7.368   1.294  0.0302 -0.1054 -0.4070
   95bbb     H9 2769   1.928   7.364   1.252 -0.3684  0.5905  0.4405
   95bbb    H10 2770   2.044   7.473   1.324 -3.6492  0.9551 -1.7266
   95bbb     C6 2771   2.419   7.378   1.074 -0.1186  0.7364 -0.0534
   95bbb    H11 2772   2.494   7.348   1.000 -2.2635  0.7807 -2.3885
   95bbb    H12 2773   2.387   7.282   1.117 -0.5714  1.6204  1.6859
   95bbb     C7 2774   1.962   7.723   0.908 -0.4386 -0.3899  0.1350
   95bbb    H13 2775   1.996   7.821   0.870 -0.3543  0.2525  1.8139
   95bbb    H14 2776   1.892   7.740   0.990 -0.4189 -1.1516  0.3124
   95bbb     C8 2777   2.477   7.457   1.191 -0.2643 -0.0153 -0.4855
   95bbb    H15 2778   2.503   7.401   1.281 -2.9139 -1.3332 -0.4287
   95bbb    H16 2779   2.401   7.530   1.221 -0.3612 -0.1738 -0.3411
   95bbb     C9 2780   2.037   7.278   1.420 -0.1423 -0.6562  0.0594
   95bbb    H17 2781   2.015   7.343   1.505  1.4427 -1.0683  0.8336
   95bbb    H18 2782   2.134   7.231   1.442  0.1383 -0.4130 -0.6279
   95bbb     O1 2783   1.899   7.661   0.797  0.3748  0.6664 -0.0912
   96bbb     N1 2784   1.914   6.190   1.306 -0.1544  0.5975  0.1995
   96bbb     C1 2785   1.849   6.315   1.278 -0.0074 -0.3267 -1.0722
   96bbb     H1 2786   1.837   6.345   1.173 -2.9148 -1.3924 -1.1458
   96bbb     H2 2787   1.912   6.394   1.320  0.2390 -1.4040  0.6824
   96bbb     C2 2788   1.941   6.151   1.449 -0.3497  0.0042  0.6044
   96bbb     H3 2789   1.999   6.058   1.452  0.7557  0.5700 -1.4713
   96bbb     H4 2790   1.849   6.140   1.508 -1.3759  0.8344 -0.7887
   96bbb     C3 2791   1.858   6.078   1.231 -0.8605  0.8113  0.2890
   96bbb     H5 2792   1.752   6.068   1.258 -0.0697  0.0521  3.4087
   96bbb     H6 2793   1.912   5.987   1.260 -0.2154  1.4799  1.2095
   96bbb     C4 2794   1.866   6.088   1.079 -0.1133 -0.3664 -0.3149
   96bbb     H7 2795   1.805   6.173   1.048  0.1663 -0.0969 -0.1389
   96bbb     H8 2796   1.819   5.999   1.037 -1.1071  0.7684 -1.6920
   96bbb     C5 2797   1.708   6.336   1.355  0.4190 -0.0570 -0.2598
   96bbb     H9 2798   1.721   6.347   1.463  2.0421  0.1212 -0.4515
   96bbb    H10 2799   1.641   6.250   1.342  0.6933 -0.0371 -2.0250
   96bbb     C6 2800   2.022   6.253   1.526 -0.2054  0.2867 -0.6431
   96bbb    H11 2801   2.040   6.233   1.632  0.0845  3.8299  0.1031
   96bbb    H12 2802   1.973   6.350   1.541  2.2019  1.7103 -1.4900
   96bbb     C7 2803   2.003   6.117   1.018 -0.0394 -0.0500 -0.3789
   96bbb    H13 2804   2.059   6.023   1.024 -0.2113 -0.1785 -0.7834
   96bbb    H14 2805   2.056   6.198   1.070 -0.4379  0.3331 -0.5583
   96bbb     C8 2806   2.167   6.273   1.471 -0.5288 -0.3774 -0.5986
   96bbb    H15 2807   2.166   6.292   1.363  1.0804 -1.9095 -0.9407
   96bbb    H16 2808   2.227   6.181   1.475  2.7430  1.6240  0.8913
   96bbb     C9 2809   1.623   6.450   1.301  0.1605 -0.0009  0.1821
   96bbb    H17 2810   1.525   6.420   1.338 -0.4056 -1.9659 -2.6369
   96bbb    H18 2811   1.627   6.456   1.192 -0.3977  2.7387  0.2377
   96bbb     O1 2812   1.985   6.158   0.888  0.1171  0.2284 -0.0151
   97bbb     N1 2813   3.122   6.082   0.830  0.2513  0.4550 -0.0889
   97bbb     C1 2814   3.154   6.208   0.906 -0.2366  0.7606 -0.0301
   97bbb     H1 2815   3.194   6.287   0.842 -1.2220  1.9147  0.7295
   97bbb     H2 2816   3.240   6.187   0.970  0.6899  1.9138 -0.8584
   97bbb     C2 2817   3.202   5.958   0.869 -0.3503 -0.1301  0.1819
   97bbb     H3 2818   3.306   5.980   0.844 -0.7816 -0.2384 -1.8647
   97bbb     H4 2819   3.170   5.876   0.804  0.1217  0.7212 -1.1626
   97bbb     C3 2820   3.129   6.107   0.686  0.2228  0.1662 -0.9337
   97bbb     H5 2821   3.101   6.016   0.632 -0.1638 -1.3810  1.7274
   97bbb     H6 2822   3.228   6.125   0.642  0.1520 -0.6724 -1.4546
   97bbb     C4 2823   3.023   6.211   0.636 -0.0900 -0.6145 -0.0056
   97bbb     H7 2824   3.035   6.230   0.529 -2.4759  1.0179 -0.0668
   97bbb     H8 2825   3.035   6.304   0.692  2.1323 -2.1910  2.3469
   97bbb     C5 2826   3.040   6.254   1.001  0.2582 -0.1800  1.0529
   97bbb     H9 2827   3.019   6.170   1.067  0.7065 -1.0191  0.1545
   97bbb    H10 2828   2.949   6.265   0.941  1.7189  1.7241 -1.0186
   97bbb     C6 2829   3.183   5.917   1.012 -0.0591  0.2801 -0.0743
   97bbb    H11 2830   3.077   5.910   1.038 -0.0869 -2.9629 -0.6552
   97bbb    H12 2831   3.231   5.977   1.090  0.6029  0.8441 -0.8988
   97bbb     C7 2832   2.883   6.142   0.653  0.6540  0.0365 -0.1186
   97bbb    H13 2833   2.854   6.115   0.755 -1.6684  1.3241 -0.3679
   97bbb    H14 2834   2.894   6.046   0.600  1.3046 -0.1294  0.3070
   97bbb     C8 2835   3.243   5.780   1.043 -0.2330  0.1238 -0.1505
   97bbb    H15 2836   3.247   5.781   1.152 -1.8535  1.6086 -0.0666
   97bbb    H16 2837   3.347   5.774   1.007  0.6753  0.1746  2.2540
   97bbb     C9 2838   3.082   6.379   1.083 -0.1793  0.1760  0.3764
   97bbb    H17 2839   3.178   6.357   1.132 -0.5403  0.1729  1.1023
   97bbb    H18 2840   3.009   6.398   1.162  1.0920  1.9041  1.2242
   97bbb     O1 2841   2.789   6.229   0.576  0.5066 -0.2880 -0.3751
   98bbb     N1 2842   3.224   5.051  -0.929 -0.3266 -0.0973  0.7801
   98bbb     C1 2843   3.140   5.032  -0.809  1.5470  0.3948  0.0440
   98bbb     H1 2844   3.112   4.926  -0.802  0.7338  0.2341 -3.5739
   98bbb     H2 2845   3.045   5.086  -0.822  0.0295 -1.8035  1.2581
   98bbb     C2 2846   3.245   4.923  -0.999 -0.3853  0.3837  0.0258
   98bbb     H3 2847   3.308   4.849  -0.948  1.3805  0.8911 -1.3026
   98bbb     H4 2848   3.303   4.935  -1.091  1.0618  1.9886  1.0832
   98bbb     C3 2849   3.189   5.159  -1.022  0.4812  0.3043  0.1975
   98bbb     H5 2850   3.095   5.124  -1.066  0.3703  2.9553 -1.9746
   98bbb     H6 2851   3.259   5.154  -1.107 -0.2427 -0.5495 -0.3608
   98bbb     C4 2852   3.182   5.292  -0.946 -0.8344 -0.4981  0.0144
   98bbb     H7 2853   3.284   5.317  -0.914 -0.7248  0.2070 -0.8548
   98bbb     H8 2854   3.116   5.292  -0.858 -0.3130  0.5012  0.4228
   98bbb     C5 2855   3.197   5.067  -0.669 -0.3519 -0.4048  0.8335
   98bbb     H9 2856   3.115   5.059  -0.598 -2.6449 -1.1414 -1.7352
   98bbb    H10 2857   3.223   5.174  -0.673 -3.0160  0.2972  0.8255
   98bbb     C6 2858   3.119   4.853  -1.061 -0.2172 -0.2754 -0.7239
   98bbb    H11 2859   3.076   4.913  -1.143  1.5337 -0.1917 -1.6243
   98bbb    H12 2860   3.051   4.827  -0.979  0.8355 -1.0358 -0.0735
   98bbb     C7 2861   3.156   5.401  -1.053  0.2457 -0.3468  0.9281
   98bbb    H13 2862   3.055   5.390  -1.093  0.3438  0.2152  0.5101
   98bbb    H14 2863   3.227   5.395  -1.137  0.4173  0.3933  1.0129
   98bbb     C8 2864   3.153   4.726  -1.127  0.0484  0.4763  0.2816
   98bbb    H15 2865   3.066   4.680  -1.175  1.1268 -0.8668 -0.4744
   98bbb    H16 2866   3.173   4.651  -1.049 -0.8518 -0.3582 -0.2786
   98bbb     C9 2867   3.314   4.981  -0.637  0.8245 -0.2391  0.3112
   98bbb    H17 2868   3.373   5.024  -0.555  0.0315  0.4492  0.5343
   98bbb    H18 2869   3.378   4.984  -0.726  0.9646 -0.5677  0.3978
   98bbb     O1 2870   3.145   5.528  -0.989 -0.6247  0.1315  0.2670
   99bbb     N1 2871   2.160   5.543  -1.239 -0.1550  0.2487 -0.5700
   99bbb     C1 2872   2.232   5.427  -1.183  0.7194  0.1294 -0.0603
   99bbb     H1 2873   2.187   5.386  -1.092  2.2971 -0.9476  0.2968
   99bbb     H2 2874   2.331   5.472  -1.167  0.2247  0.7073  1.5084
   99bbb     C2 2875   2.114   5.638  -1.129 -0.6532 -0.1372  0.5874
   99bbb     H3 2876   2.197   5.678  -1.070 -1.9179 -0.7862  2.9084
   99bbb     H4 2877   2.063   5.581  -1.051 -0.5679  0.7466  1.2991
   99bbb     C3 2878   2.214   5.609  -1.365 -0.3492 -0.2651 -0.3899
   99bbb     H5 2879   2.134   5.665  -1.415 -2.0242 -0.9954  1.3606
   99bbb     H6 2880   2.248   5.530  -1.434 -0.2150  0.6720 -1.4244
   99bbb     C4 2881   2.342   5.695  -1.337  0.1362  0.4489 -0.1356
   99bbb     H7 2882   2.415   5.649  -1.270  0.4310  0.1820 -0.6347
   99bbb     H8 2883   2.291   5.778  -1.286 -0.0422 -0.0706  0.5461
   99bbb     C5 2884   2.242   5.310  -1.284  0.0034 -0.6855  0.4781
   99bbb     H9 2885   2.343   5.319  -1.327  0.8694 -0.0777  2.4925
   99bbb    H10 2886   2.174   5.332  -1.367  1.6080  0.8541 -0.5025
   99bbb     C6 2887   2.016   5.745  -1.177 -1.1540 -0.0339 -0.1229
   99bbb    H11 2888   1.924   5.699  -1.213 -0.9680 -0.9103  0.4853
   99bbb    H12 2889   2.063   5.802  -1.258  0.7619 -0.0359  0.9199
   99bbb     C7 2890   2.405   5.737  -1.471 -0.6760  0.7791  0.0178
   99bbb    H13 2891   2.331   5.781  -1.539  0.2602  1.8848 -0.3055
   99bbb    H14 2892   2.446   5.655  -1.532 -0.1445  1.8177 -1.0639
   99bbb     C8 2893   1.980   5.857  -1.076  0.1810 -0.0155  0.1638
   99bbb    H15 2894   1.944   5.950  -1.121  1.1044  0.5604  0.5707
   99bbb    H16 2895   2.065   5.895  -1.018  0.5874  1.3215 -1.2741
   99bbb     C9 2896   2.208   5.171  -1.220  1.0366  0.3073  0.4251
   99bbb    H17 2897   2.192   5.095  -1.298  0.9279  1.4521 -0.7096
   99bbb    H18 2898   2.112   5.181  -1.168 -0.1631 -0.8950 -1.4214
   99bbb     O1 2899   2.506   5.839  -1.456  0.7650 -0.5394 -0.5910
  100bbb     N1 2900   2.247   5.100  -0.404 -0.8744 -0.3621 -0.1719
  100bbb     C1 2901   2.361   5.159  -0.325  0.2308 -0.3354  0.3605
  100bbb     H1 2902   2.324   5.228  -0.248 -0.4441  0.5983 -0.7700
  100bbb     H2 2903   2.420   5.228  -0.388  1.6944 -1.3591  0.5492
  100bbb     C2 2904   2.148   5.021  -0.332 -0.4756  0.0175 -0.4527
  100bbb     H3 2905   2.087   5.086  -0.268  1.5927  2.2424 -0.5910
  100bbb     H4 2906   2.203   4.947  -0.274 -0.7687 -0.7791 -1.1763
  100bbb     C3 2907   2.196   5.199  -0.506  0.0953  0.4062  0.3012
  100bbb     H5 2908   2.155   5.290  -0.460  0.3155  1.3949 -1.3956
  100bbb     H6 2909   2.113   5.158  -0.565 -0.4761 -0.4967  1.6670
  100bbb     C4 2910   2.296   5.244  -0.619 -0.5970 -0.2774 -0.2177
  100bbb     H7 2911   2.350   5.157  -0.659 -1.3361  0.0001 -1.8634
  100bbb     H8 2912   2.375   5.305  -0.571  0.5430 -2.3080  0.6411
  100bbb     C5 2913   2.457   5.045  -0.281 -0.5666 -0.5044  0.0877
  100bbb     H9 2914   2.486   4.984  -0.367 -0.9513 -0.4035 -0.1171
  100bbb    H10 2915   2.404   4.979  -0.211 -2.9414  1.9712  0.8068
  100bbb     C6 2916   2.063   4.943  -0.434 -0.3122 -0.0907  0.0960
  100bbb    H11 2917   2.129   4.875  -0.489  1.2495 -0.3046  2.1263
  100bbb    H12 2918   2.011   5.014  -0.499  0.2896  0.7376  0.4936
  100bbb     C7 2919   2.241   5.311  -0.741  0.0802 -1.0147  0.2935
  100bbb    H13 2920   2.167   5.252  -0.798 -3.1898  1.3301  1.7778
  100bbb    H14 2921   2.326   5.336  -0.805 -1.1094 -1.8292 -1.7227
  100bbb     C8 2922   1.960   4.859  -0.366  0.1606  0.3172 -0.2006
  100bbb    H15 2923   1.923   4.922  -0.285  0.4757 -0.8545  0.8794
  100bbb    H16 2924   2.006   4.763  -0.337 -0.6389  0.0169  0.1012
  100bbb     C9 2925   2.574   5.092  -0.194  0.7916  0.0909 -0.2616
  100bbb    H17 2926   2.638   5.007  -0.168 -0.0071 -0.3318  0.3745
  100bbb    H18 2927   2.538   5.140  -0.102  1.3315  0.7822 -0.4069
  100bbb     O1 2928   2.188   5.434  -0.700  0.6506 -0.0535 -0.1230
  101bbb     N1 2929   1.202   5.311  -0.139 -0.6501 -0.7682  0.1120
  101bbb     C1 2930   1.110   5.336  -0.024 -0.4285 -0.2480 -0.2649
  101bbb     H1 2931   1.160   5.312   0.071 -0.1009 -0.1391 -0.4074
  101bbb     H2 2932   1.025   5.267  -0.032 -0.2469 -0.4856 -0.1487
  101bbb     C2 2933   1.222   5.169  -0.169 -0.4317 -0.0255  0.5727
  101bbb     H3 2934   1.270   5.155  -0.267 -0.7834  0.0212  0.3891
  101bbb     H4 2935   1.119   5.130  -0.174 -1.0352  1.2655  1.9761
  101bbb     C3 2936   1.329   5.386  -0.125 -0.1562 -0.5635 -0.2625
  101bbb     H5 2937   1.386   5.354  -0.036 -0.9598  0.8481  0.8048
  101bbb     H6 2938   1.313   5.493  -0.113 -2.0747 -0.8761  0.2529
  101bbb     C4 2939   1.421   5.393  -0.258  0.2115  0.5754  0.1525
  101bbb     H7 2940   1.361   5.445  -0.334 -1.3949 -0.8206  0.4143
  101bbb     H8 2941   1.439   5.293  -0.300  0.1356 -0.0802  1.6381
  101bbb     C5 2942   1.051   5.482  -0.018 -0.6126  0.0723  0.1512
  101bbb     H9 2943   0.981   5.493  -0.102 -0.8104 -0.4340  0.2502
  101bbb    H10 2944   1.129   5.559  -0.016  0.9260 -1.4299 -0.2625
  101bbb     C6 2945   1.297   5.094  -0.059 -0.1772 -0.0497 -0.7568
  101bbb    H11 2946   1.240   5.103   0.034 -0.6698  1.5264 -1.1750
  101bbb    H12 2947   1.392   5.144  -0.042 -0.7116  0.1002  2.3464
  101bbb     C7 2948   1.562   5.461  -0.230 -0.0846  0.1578 -0.2065
  101bbb    H13 2949   1.628   5.385  -0.187  2.7054  3.0027  1.0103
  101bbb    H14 2950   1.541   5.540  -0.156  0.6341  0.5913 -0.4452
  101bbb     C8 2951   1.332   4.944  -0.093  0.5532 -0.1095 -0.2076
  101bbb    H15 2952   1.399   4.968  -0.177 -0.7387  4.2468 -0.2264
  101bbb    H16 2953   1.241   4.892  -0.126  1.0962 -2.1158  1.2838
  101bbb     C9 2954   0.963   5.502   0.105  0.6115  0.3474 -0.5071
  101bbb    H17 2955   0.933   5.607   0.107 -0.2191  0.1748 -2.2364
  101bbb    H18 2956   1.027   5.473   0.190  1.3711  0.8102 -0.9077
  101bbb     O1 2957   1.640   5.508  -0.340  0.7829 -0.0152  0.1649
  102bbb     N1 2958   4.810   6.009  -0.598 -0.4433  0.4756 -0.5528
  102bbb     C1 2959   4.723   6.069  -0.704  0.2972  0.0100 -0.3657
  102bbb     H1 2960   4.784   6.108  -0.787  1.2453  1.0646  0.7769
  102bbb     H2 2961   4.685   6.168  -0.674  0.2130  0.3525 -1.5239
  102bbb     C2 2962   4.867   5.870  -0.636 -0.3757 -0.0562  0.4017
  102bbb     H3 2963   4.855   5.869  -0.745 -0.5209  0.9516  0.3941
  102bbb     H4 2964   4.811   5.788  -0.589 -0.6281 -1.3438 -2.0222
  102bbb     C3 2965   4.723   6.006  -0.471  0.2701  0.0703  0.3838
  102bbb     H5 2966   4.772   5.936  -0.402  3.7654  0.0365 -1.8954
  102bbb     H6 2967   4.624   5.960  -0.479  0.3878 -0.4215  1.5739
  102bbb     C4 2968   4.707   6.148  -0.411 -0.1807  0.0869 -0.3534
  102bbb     H7 2969   4.658   6.215  -0.483 -1.3204 -1.9082 -1.5352
  102bbb     H8 2970   4.808   6.185  -0.391 -0.2186 -0.7280  1.5013
  102bbb     C5 2971   4.601   5.985  -0.760 -0.6705  0.6000  0.0666
  102bbb     H9 2972   4.546   5.989  -0.665  0.8705  2.4346  0.9571
  102bbb    H10 2973   4.630   5.881  -0.775 -0.1447  0.3097  2.7045
  102bbb     C6 2974   5.023   5.865  -0.618  0.3484 -0.4347 -0.4430
  102bbb    H11 2975   5.053   5.965  -0.652  1.4282 -0.5214  0.1996
  102bbb    H12 2976   5.072   5.796  -0.688  0.6092 -1.0401  0.3226
  102bbb     C7 2977   4.635   6.152  -0.273  0.5652 -0.3670  0.0438
  102bbb    H13 2978   4.608   6.255  -0.249  1.0420 -0.3286  0.4398
  102bbb    H14 2979   4.705   6.119  -0.195  2.3298  1.0985 -0.8628
  102bbb     C8 2980   5.086   5.841  -0.481 -0.3920 -0.3055 -0.5475
  102bbb    H15 2981   5.033   5.759  -0.430  1.4517 -1.7709 -0.8946
  102bbb    H16 2982   5.086   5.927  -0.413  1.2864 -0.4205 -0.3576
  102bbb     C9 2983   4.513   6.059  -0.869 -0.2044 -0.4319  0.1231
  102bbb    H17 2984   4.477   6.156  -0.833 -0.2241  0.1790 -1.4833
  102bbb    H18 2985   4.433   5.991  -0.899 -0.3187 -0.3813  0.3082
  102bbb     O1 2986   4.523   6.060  -0.279  0.3816  0.2476 -0.2810
  103bbb     N1 2987   4.785   5.752   0.420 -1.0597 -0.4194 -0.5119
  103bbb     C1 2988   4.897   5.659   0.411 -0.0641  0.7360  0.8112
  103bbb     H1 2989   4.852   5.559   0.406  1.0812  0.1987  0.8496
  103bbb     H2 2990   4.963   5.663   0.499  1.1137 -0.8905  0.0395
  103bbb     C2 2991   4.713   5.771   0.553  0.7346 -0.1802 -0.1670
  103bbb     H3 2992   4.658   5.679   0.577  0.7158 -0.0218  0.3846
  103bbb     H4 2993   4.641   5.852   0.536  2.9411  2.1886  1.0868
  103bbb     C3 2994   4.687   5.756   0.306  0.0566  0.4626 -0.9793
  103bbb     H5 2995   4.735   5.757   0.207 -0.0604 -2.6400 -1.1722
  103bbb     H6 2996   4.626   5.847   0.307 -0.0224  0.4655  1.7009
  103bbb     C4 2997   4.603   5.625   0.299  0.4549  0.6789 -0.2740
  103bbb     H7 2998   4.530   5.627   0.381  0.5672  0.6427 -0.1736
  103bbb     H8 2999   4.656   5.530   0.309 -0.3063  0.1561 -1.0231
  103bbb     C5 3000   4.987   5.676   0.287 -0.1724 -0.5946  0.2327
  103bbb     H9 3001   5.022   5.780   0.288 -1.3664 -0.1733  1.3979
  103bbb    H10 3002   4.932   5.687   0.193  2.1894  1.0240 -1.0642
  103bbb     C6 3003   4.803   5.834   0.661  0.0678  0.2041  0.1763
  103bbb    H11 3004   4.868   5.909   0.614  1.5715 -0.9263  0.3927
  103bbb    H12 3005   4.863   5.747   0.686 -1.7466 -1.3525 -0.6006
  103bbb     C7 3006   4.541   5.623   0.160  0.0277 -0.3241 -0.4290
  103bbb    H13 3007   4.606   5.574   0.086 -0.2219 -0.7015 -0.4027
  103bbb    H14 3008   4.516   5.725   0.128  0.2143  0.1982  0.9989
  103bbb     C8 3009   4.736   5.881   0.794  0.0367 -0.0541 -0.0885
  103bbb    H15 3010   4.800   5.950   0.850 -1.3774  0.3637  1.0800
  103bbb    H16 3011   4.706   5.797   0.858 -0.7582 -0.0753 -0.4695
  103bbb     C9 3012   5.115   5.585   0.287 -0.3806  0.4045 -0.1956
  103bbb    H17 3013   5.084   5.483   0.258 -0.2797  0.2138  0.3530
  103bbb    H18 3014   5.162   5.593   0.386  0.8380  1.3154 -0.8266
  103bbb     O1 3015   4.427   5.534   0.173  0.7951  0.1771  0.7375
  104bbb     N1 3016   4.197   7.288   0.022  0.1832 -0.2328 -0.1107
  104bbb     C1 3017   4.327   7.366   0.051  0.4005  0.4995 -1.0654
  104bbb     H1 3018   4.409   7.316  -0.003 -0.4372 -1.6497 -0.4603
  104bbb     H2 3019   4.346   7.362   0.159 -0.5328 -0.3160 -0.9130
  104bbb     C2 3020   4.082   7.341   0.095 -0.1760  0.6572  1.4144
  104bbb     H3 3021   4.103   7.362   0.200  1.1963 -1.9309  1.7346
  104bbb     H4 3022   4.005   7.263   0.099 -0.9112  1.3610  1.2575
  104bbb     C3 3023   4.228   7.145   0.039 -0.1381  0.4048 -0.1807
  104bbb     H5 3024   4.228   7.129   0.147  0.1481 -1.0542 -0.3751
  104bbb     H6 3025   4.330   7.121   0.008  1.2268  3.3383  1.6058
  104bbb     C4 3026   4.128   7.054  -0.033 -0.4535 -0.3222 -0.3030
  104bbb     H7 3027   4.037   7.050   0.028  0.0986 -0.7461  0.5107
  104bbb     H8 3028   4.157   6.949  -0.050 -0.7528 -0.2705 -1.1734
  104bbb     C5 3029   4.323   7.510  -0.003 -0.0574 -0.1910 -0.3943
  104bbb     H9 3030   4.274   7.569   0.076  1.4692  0.3000  0.2386
  104bbb    H10 3031   4.256   7.507  -0.089  1.1776 -1.7933 -1.3588
  104bbb     C6 3032   4.003   7.452   0.031 -0.3381 -0.3955  0.3555
  104bbb    H11 3033   3.974   7.426  -0.072  0.2551 -2.6643  0.7088
  104bbb    H12 3034   4.073   7.535   0.013 -1.5411  0.2565 -1.6597
  104bbb     C7 3035   4.083   7.099  -0.177  0.0194 -0.3088 -0.3919
  104bbb    H13 3036   4.159   7.167  -0.217 -0.1043 -0.9532 -1.7698
  104bbb    H14 3037   3.989   7.154  -0.162  0.2842  0.3810 -1.2136
  104bbb     C8 3038   3.888   7.496   0.122 -0.4407 -0.1348  0.0978
  104bbb    H15 3039   3.824   7.408   0.138  0.1271 -0.7960 -1.0987
  104bbb    H16 3040   3.817   7.561   0.068  0.0347 -0.5801 -1.1079
  104bbb     C9 3041   4.459   7.576  -0.048 -0.0634 -0.2288  0.0206
  104bbb    H17 3042   4.452   7.685  -0.060 -0.9256 -0.3151 -0.3631
  104bbb    H18 3043   4.475   7.540  -0.150 -0.8972  2.1492 -1.0260
  104bbb     O1 3044   4.068   6.989  -0.259 -0.1720  0.5827  0.3344
  105bbb     N1 3045   4.352   6.715   0.327 -0.5932 -0.6144  0.9096
  105bbb     C1 3046   4.324   6.787   0.452 -0.3710  0.0978 -0.8373
  105bbb     H1 3047   4.317   6.706   0.525 -0.9540  0.9485  0.0725
  105bbb     H2 3048   4.226   6.836   0.451 -1.2721 -1.4576  2.2087
  105bbb     C2 3049   4.481   6.644   0.316  0.2916  0.4176  0.4378
  105bbb     H3 3050   4.487   6.559   0.385  0.4994  0.8432  0.9502
  105bbb     H4 3051   4.555   6.719   0.345  0.8102 -0.7670  2.3213
  105bbb     C3 3052   4.233   6.644   0.284 -0.0241  0.1158  0.2089
  105bbb     H5 3053   4.180   6.600   0.370 -1.9055  2.5024  0.3892
  105bbb     H6 3054   4.264   6.566   0.213 -1.0436  0.7441 -0.9617
  105bbb     C4 3055   4.131   6.736   0.203 -0.4939  0.3335  0.2397
  105bbb     H7 3056   4.186   6.811   0.144  2.2523 -1.1057  0.7538
  105bbb     H8 3057   4.059   6.785   0.270  0.3378  0.6490  0.9302
  105bbb     C5 3058   4.419   6.896   0.499 -0.0606  0.8842 -0.1378
  105bbb     H9 3059   4.516   6.853   0.526 -0.4190  0.3575  0.3306
  105bbb    H10 3060   4.379   6.932   0.595 -1.7681  1.3205 -0.9777
  105bbb     C6 3061   4.510   6.595   0.166 -0.2126  0.0089 -0.0966
  105bbb    H11 3062   4.449   6.507   0.141  0.0585  0.4998 -2.7399
  105bbb    H12 3063   4.612   6.555   0.170  1.4381  3.6218 -1.4363
  105bbb     C7 3064   4.054   6.649   0.103 -0.1426  0.3523 -0.7258
  105bbb    H13 3065   3.993   6.568   0.145  0.9906  0.6868  1.7670
  105bbb    H14 3066   4.123   6.589   0.042  0.6739 -0.0188  0.5336
  105bbb     C8 3067   4.495   6.713   0.065 -0.7503 -0.4921 -0.5252
  105bbb    H15 3068   4.390   6.747   0.069 -0.3503  0.6640  0.5970
  105bbb    H16 3069   4.523   6.668  -0.031  1.3271  0.9591 -0.6680
  105bbb     C9 3070   4.435   7.008   0.395 -1.0246  0.1364  0.1575
  105bbb    H17 3071   4.333   7.023   0.357 -0.7546 -2.6139 -1.9297
  105bbb    H18 3072   4.492   6.976   0.307 -0.0728  0.5847  0.5978
  105bbb     O1 3073   3.965   6.733   0.017  0.1372  0.1778  0.3999
  106bbb     N1 3074   3.749   5.197  -1.371  0.0275 -0.0358 -0.0323
  106bbb     C1 3075   3.842   5.280  -1.298 -0.5096  0.1189  0.0152
  106bbb     H1 3076   3.792   5.360  -1.242 -2.1283  0.0272 -1.2250
  106bbb     H2 3077   3.901   5.328  -1.378 -1.8541  0.2244 -0.9473
  106bbb     C2 3078   3.637   5.147  -1.300  0.7446 -0.6466 -0.1249
  106bbb     H3 3079   3.680   5.112  -1.205  1.3069 -2.3124 -0.9612
  106bbb     H4 3080   3.587   5.060  -1.344 -0.1132 -2.0809  3.3451
  106bbb     C3 3081   3.820   5.100  -1.462 -0.1713  0.8049 -0.3461
  106bbb     H5 3082   3.865   5.020  -1.401 -0.7360 -0.0653 -1.0383
  106bbb     H6 3083   3.902   5.152  -1.512 -0.6909  0.3295 -1.7663
  106bbb     C4 3084   3.728   5.036  -1.573  0.1484  0.8769 -0.2988
  106bbb     H7 3085   3.659   4.966  -1.525  1.9122  0.1920  1.4034
  106bbb     H8 3086   3.793   4.973  -1.635  0.7824  2.3408 -1.1691
  106bbb     C5 3087   3.940   5.197  -1.202 -0.3710 -0.9825 -0.2145
  106bbb     H9 3088   4.000   5.125  -1.258  0.5053  0.9832 -1.9528
  106bbb    H10 3089   3.875   5.149  -1.128 -1.6651 -0.9790 -1.3027
  106bbb     C6 3090   3.528   5.252  -1.273 -0.2731 -0.3888  0.0857
  106bbb    H11 3091   3.576   5.340  -1.229  1.2147  0.2600 -2.6083
  106bbb    H12 3092   3.454   5.203  -1.209  1.9510 -1.4182  2.0169
  106bbb     C7 3093   3.657   5.140  -1.664 -0.1348  0.1196  0.5046
  106bbb    H13 3094   3.602   5.211  -1.601 -2.1621 -0.8578 -0.0711
  106bbb    H14 3095   3.586   5.091  -1.732 -0.5022  1.6817 -0.2771
  106bbb     C8 3096   3.448   5.294  -1.401 -0.1883 -0.0371 -0.1358
  106bbb    H15 3097   3.450   5.208  -1.470  2.9076 -0.3629  0.1936
  106bbb    H16 3098   3.499   5.373  -1.457  1.0981 -0.5882  0.2114
  106bbb     C9 3099   4.035   5.303  -1.130  0.2262  0.2552  0.5123
  106bbb    H17 3100   3.979   5.393  -1.099 -0.4169  0.0787 -0.1128
  106bbb    H18 3101   4.109   5.339  -1.203 -1.1438  3.2880  0.4427
  106bbb     O1 3102   3.761   5.212  -1.731 -0.3034  0.3386  0.3037
  107bbb     N1 3103   4.786   5.317  -1.594 -0.4195  0.5170 -0.0669
  107bbb     C1 3104   4.790   5.165  -1.583 -0.3495  0.4784  0.3595
  107bbb     H1 3105   4.804   5.138  -1.478 -0.6984  0.2133  0.3385
  107bbb     H2 3106   4.878   5.135  -1.641 -1.5840  0.7252 -1.7543
  107bbb     C2 3107   4.917   5.375  -1.539  0.1526 -0.0498 -0.6948
  107bbb     H3 3108   4.999   5.315  -1.580  0.7998 -0.8034  1.5373
  107bbb     H4 3109   4.910   5.359  -1.430 -0.9449 -2.1511 -1.0088
  107bbb     C3 3110   4.654   5.385  -1.557  0.0654 -0.3362 -0.0326
  107bbb     H5 3111   4.583   5.369  -1.639 -1.6237  0.9641  1.1036
  107bbb     H6 3112   4.655   5.495  -1.556 -1.6154 -0.2837 -0.0712
  107bbb     C4 3113   4.606   5.352  -1.419  0.0134  0.2672 -0.0494
  107bbb     H7 3114   4.692   5.337  -1.353  0.0009 -0.5002 -0.1911
  107bbb     H8 3115   4.554   5.255  -1.421 -0.6405  0.5854  0.7047
  107bbb     C5 3116   4.670   5.098  -1.655  0.0526  0.0442 -0.1936
  107bbb     H9 3117   4.659   5.140  -1.756  0.2785  0.1484 -0.1753
  107bbb    H10 3118   4.580   5.110  -1.594  0.6479  0.9356  0.5405
  107bbb     C6 3119   4.937   5.518  -1.590  0.0800 -0.8383 -0.6540
  107bbb    H11 3120   4.868   5.580  -1.531  1.6242  0.9383 -0.6197
  107bbb    H12 3121   4.919   5.521  -1.698  1.1914  1.0982 -0.8471
  107bbb     C7 3122   4.507   5.456  -1.367 -0.0126  0.0630 -0.5450
  107bbb    H13 3123   4.551   5.556  -1.375 -1.1213  0.4832 -1.6636
  107bbb    H14 3124   4.493   5.447  -1.258 -0.2080  1.4778 -0.4381
  107bbb     C8 3125   5.078   5.573  -1.555 -0.1824 -0.3385  0.3244
  107bbb    H15 3126   5.155   5.513  -1.605 -0.7748 -0.2014 -0.7705
  107bbb    H16 3127   5.092   5.556  -1.447 -0.9478 -0.5072  0.4026
  107bbb     C9 3128   4.692   4.951  -1.680 -0.2241  0.1154  0.5594
  107bbb    H17 3129   4.708   4.889  -1.590  1.5723  0.7964  0.7573
  107bbb    H18 3130   4.784   4.948  -1.740  0.5394 -0.8170  1.7253
  107bbb     O1 3131   4.375   5.435  -1.431  0.0632 -0.3088 -0.7360
  108bbb     N1 3132   2.833   6.471  -0.625  0.0840  0.1085 -0.6109
  108bbb     C1 3133   2.839   6.487  -0.772 -0.2375 -0.3613 -0.2510
  108bbb     H1 3134   2.831   6.390  -0.823  0.1007 -0.8097  0.5433
  108bbb     H2 3135   2.939   6.522  -0.801  1.4259 -1.5827  3.3794
  108bbb     C2 3136   2.716   6.405  -0.561 -0.0026  0.1942  0.8403
  108bbb     H3 3137   2.624   6.465  -0.559 -0.6651 -0.8007  2.7824
  108bbb     H4 3138   2.733   6.396  -0.453 -2.5490  0.2453  1.2919
  108bbb     C3 3139   2.878   6.598  -0.569 -0.0514 -0.7367 -0.2625
  108bbb     H5 3140   2.801   6.673  -0.589  1.0574  0.4619 -0.1209
  108bbb     H6 3141   2.969   6.625  -0.623  0.2960 -1.0980  0.1371
  108bbb     C4 3142   2.910   6.591  -0.421  0.0405 -0.2298 -1.2668
  108bbb     H7 3143   2.995   6.522  -0.419 -0.4442 -0.8200 -0.4053
  108bbb     H8 3144   2.820   6.562  -0.365 -0.3252  0.0848 -1.6801
  108bbb     C5 3145   2.738   6.587  -0.836 -0.2358  0.0140  0.3058
  108bbb     H9 3146   2.782   6.685  -0.817  0.3111 -0.8600  4.8204
  108bbb    H10 3147   2.641   6.580  -0.785 -0.5653  2.4161  0.0808
  108bbb     C6 3148   2.686   6.260  -0.617 -0.1031 -0.6424 -0.3446
  108bbb    H11 3149   2.646   6.280  -0.717 -2.4986 -0.4501  0.5831
  108bbb    H12 3150   2.596   6.221  -0.568  0.0243  1.1297  1.4809
  108bbb     C7 3151   2.954   6.728  -0.363  0.6623  0.2228 -0.0936
  108bbb    H13 3152   2.909   6.731  -0.263 -0.0982  2.4834 -0.4555
  108bbb    H14 3153   2.904   6.813  -0.410 -1.4260 -0.6132  0.5253
  108bbb     C8 3154   2.811   6.158  -0.598  0.0555 -0.3413  0.3602
  108bbb    H15 3155   2.807   6.140  -0.490  1.3132  1.7995  0.8248
  108bbb    H16 3156   2.903   6.214  -0.620 -0.8386  0.3496 -1.9691
  108bbb     C9 3157   2.717   6.547  -0.984  0.6376 -0.5204  1.0647
  108bbb    H17 3158   2.810   6.527  -1.040  0.7889  0.1476  1.0671
  108bbb    H18 3159   2.673   6.633  -1.036 -0.2752  0.1878  2.9473
  108bbb     O1 3160   3.099   6.736  -0.344  0.2266  0.0631  0.1924
  109bbb     N1 3161   3.630   7.226   0.046  0.2299  0.4594  0.5816
  109bbb     C1 3162   3.617   7.080   0.072  0.2103  0.4087  0.5009
  109bbb     H1 3163   3.567   7.026  -0.010  0.6090 -0.0956  0.5834
  109bbb     H2 3164   3.551   7.066   0.159  0.3225  2.5436  0.9887
  109bbb     C2 3165   3.502   7.302   0.063 -1.1155  0.0872  0.1058
  109bbb     H3 3166   3.425   7.264  -0.005  0.1794 -1.9147 -0.3076
  109bbb     H4 3167   3.518   7.405   0.028 -1.0302 -0.1460 -0.5512
  109bbb     C3 3168   3.704   7.262  -0.078  0.3679 -0.0924  0.2724
  109bbb     H5 3169   3.805   7.221  -0.065  1.1362  1.3237 -0.8493
  109bbb     H6 3170   3.722   7.370  -0.079  2.1308 -0.3302 -1.7313
  109bbb     C4 3171   3.643   7.194  -0.209 -0.0178 -0.5639 -0.5983
  109bbb     H7 3172   3.538   7.221  -0.195  0.3144  0.1307  0.6849
  109bbb     H8 3173   3.651   7.084  -0.211  1.3295 -0.4757 -1.1339
  109bbb     C5 3174   3.744   7.005   0.127 -0.7510 -0.6423  0.1953
  109bbb     H9 3175   3.814   7.005   0.042 -1.8766  1.2182 -0.8209
  109bbb    H10 3176   3.713   6.903   0.151 -0.4472 -1.4973 -2.6518
  109bbb     C6 3177   3.439   7.296   0.208  0.0745 -0.1879 -0.1289
  109bbb    H11 3178   3.411   7.192   0.227 -0.7751  0.3453  1.8175
  109bbb    H12 3179   3.341   7.345   0.211 -0.5182 -1.2335 -1.4570
  109bbb     C7 3180   3.709   7.250  -0.334 -0.0480 -0.5261  0.0023
  109bbb    H13 3181   3.816   7.266  -0.317 -0.0827 -0.2769 -0.0072
  109bbb    H14 3182   3.667   7.349  -0.356 -0.9885 -0.4745  1.8910
  109bbb     C8 3183   3.529   7.344   0.328 -0.4162  0.1776  0.5786
  109bbb    H15 3184   3.528   7.453   0.341  0.5708  0.3166 -0.3527
  109bbb    H16 3185   3.633   7.323   0.300  0.1384  1.9640  1.1994
  109bbb     C9 3186   3.807   7.071   0.254  0.0617  1.1076  0.6398
  109bbb    H17 3187   3.764   7.035   0.348 -0.8134 -0.4947 -0.3441
  109bbb    H18 3188   3.788   7.178   0.238 -2.0311  0.5307 -1.0901
  109bbb     O1 3189   3.698   7.162  -0.440 -0.1618 -0.1594  0.4683
  110bbb     N1 3190   3.932   5.949   2.026  0.2614  0.0811 -0.0332
  110bbb     C1 3191   3.868   5.812   2.039  0.5234  0.5949 -0.0384
  110bbb     H1 3192   3.772   5.822   2.091  0.3280 -2.5767  0.3920
  110bbb     H2 3193   3.931   5.762   2.114 -1.1638  1.5966  2.1829
  110bbb     C2 3194   4.075   5.945   1.984 -0.2626  1.3675  0.0801
  110bbb     H3 3195   4.121   6.041   2.010  0.9942  0.9926 -0.7103
  110bbb     H4 3196   4.083   5.942   1.875 -0.4039  3.5331 -0.0353
  110bbb     C3 3197   3.853   6.049   1.958 -0.0960  0.4376 -0.0419
  110bbb     H5 3198   3.849   6.025   1.851 -2.6449  0.7313 -0.0837
  110bbb     H6 3199   3.900   6.147   1.972 -0.8535  0.8916 -0.5789
  110bbb     C4 3200   3.704   6.064   2.001  0.7016 -0.0637  0.2013
  110bbb     H7 3201   3.691   6.087   2.107  0.2382  0.6601 -0.0015
  110bbb     H8 3202   3.647   5.975   1.970 -0.2140  0.9429 -1.1706
  110bbb     C5 3203   3.855   5.744   1.898 -0.4277  0.1567 -0.0186
  110bbb     H9 3204   3.943   5.767   1.837  1.2048  0.1355  2.2260
  110bbb    H10 3205   3.760   5.781   1.857 -0.6606  0.7390  1.0327
  110bbb     C6 3206   4.169   5.830   2.050 -0.0817 -0.0961 -0.6596
  110bbb    H11 3207   4.134   5.730   2.022  0.6536 -0.9108  1.1852
  110bbb    H12 3208   4.155   5.851   2.156  0.9060  0.0957 -0.5572
  110bbb     C7 3209   3.636   6.180   1.917  0.0129  0.2714 -0.6479
  110bbb    H13 3210   3.686   6.276   1.938  0.8967 -0.4118  0.4657
  110bbb    H14 3211   3.527   6.187   1.927  0.0728  1.5954 -0.7363
  110bbb     C8 3212   4.325   5.836   2.012 -0.3390 -0.4978 -0.4513
  110bbb    H15 3213   4.367   5.933   2.042  1.3043 -1.3452  0.0882
  110bbb    H16 3214   4.346   5.826   1.905  2.1450  0.5233 -0.1294
  110bbb     C9 3215   3.848   5.593   1.921  0.1089 -0.1908  0.2695
  110bbb    H17 3216   3.835   5.534   1.829 -1.9601 -1.4284  1.2732
  110bbb    H18 3217   3.755   5.569   1.974  0.8909  0.9886  2.2903
  110bbb     O1 3218   3.654   6.155   1.777 -0.0577  0.1518  0.2717
  111bbb     N1 3219   2.896   7.224   1.273 -0.5788  0.2307  0.0423
  111bbb     C1 3220   2.783   7.156   1.337 -0.4994  0.2151  0.6378
  111bbb     H1 3221   2.713   7.239   1.355 -0.4808  0.9169 -2.1378
  111bbb     H2 3222   2.822   7.120   1.433  0.3290 -0.9096 -0.1016
  111bbb     C2 3223   2.857   7.325   1.166 -1.0518  0.0811 -0.6765
  111bbb     H3 3224   2.785   7.390   1.216  0.2622 -0.2018  1.6970
  111bbb     H4 3225   2.799   7.270   1.091 -0.6189 -1.1489 -0.1293
  111bbb     C3 3226   3.000   7.123   1.231 -0.1448  0.0607 -0.9242
  111bbb     H5 3227   3.070   7.180   1.168 -0.6004  3.1964  1.1858
  111bbb     H6 3228   2.969   7.041   1.165  1.2363 -2.1736  1.1001
  111bbb     C4 3229   3.065   7.048   1.354 -0.2170 -0.3945 -0.0328
  111bbb     H7 3230   2.990   6.974   1.386 -0.5026 -0.4144 -0.7304
  111bbb     H8 3231   3.090   7.105   1.444  1.5012 -2.7010  1.0581
  111bbb     C5 3232   2.707   7.042   1.254  0.1541 -0.2414  0.1493
  111bbb     H9 3233   2.779   6.960   1.245 -1.3965 -1.6464  0.0501
  111bbb    H10 3234   2.702   7.082   1.152 -2.3812  0.2383  0.3910
  111bbb     C6 3235   2.972   7.407   1.104 -0.4695 -0.2040 -0.3551
  111bbb    H11 3236   2.946   7.482   1.029  2.5434  1.9370  0.5121
  111bbb    H12 3237   3.038   7.341   1.047 -0.2134  0.7639 -1.2155
  111bbb     C7 3238   3.188   6.965   1.316  0.1292  0.1410  0.1145
  111bbb    H13 3239   3.281   7.023   1.308 -0.4239  1.2823  1.4869
  111bbb    H14 3240   3.173   6.930   1.213  0.3760  1.2353 -0.3112
  111bbb     C8 3241   3.056   7.486   1.219 -0.0597  0.4855  0.1022
  111bbb    H15 3242   3.095   7.418   1.295 -0.6960  1.0524  0.9467
  111bbb    H16 3243   2.979   7.555   1.256 -2.7940 -0.6494 -2.9799
  111bbb     C9 3244   2.565   6.999   1.283 -0.2564 -0.3801  0.1455
  111bbb    H17 3245   2.549   6.897   1.246 -0.3662 -0.2224 -0.2498
  111bbb    H18 3246   2.496   7.068   1.232 -0.1318  0.5593  1.2021
  111bbb     O1 3247   3.202   6.856   1.411  0.0703  0.2783  0.5849
  112bbb     N1 3248   3.612   5.188   1.796  0.6145 -0.4264 -0.5063
  112bbb     C1 3249   3.531   5.159   1.680 -0.2878 -0.1926  0.8535
  112bbb     H1 3250   3.560   5.060   1.642 -1.0224 -0.0448 -0.1500
  112bbb     H2 3251   3.561   5.232   1.605 -1.0338  0.2833  1.0089
  112bbb     C2 3252   3.596   5.097   1.914  0.1258  0.3813 -0.0729
  112bbb     H3 3253   3.640   5.001   1.883  0.7486  0.2014  1.2963
  112bbb     H4 3254   3.490   5.077   1.932 -0.3701  1.0294 -2.0621
  112bbb     C3 3255   3.758   5.213   1.754  0.3715 -0.1852 -1.1475
  112bbb     H5 3256   3.811   5.247   1.844  0.4108 -0.9766 -0.8660
  112bbb     H6 3257   3.768   5.306   1.697  0.4314 -0.1223 -1.0368
  112bbb     C4 3258   3.837   5.105   1.685 -0.5230  1.2148  0.2168
  112bbb     H7 3259   3.785   5.064   1.597  0.6534 -2.5104  1.1044
  112bbb     H8 3260   3.858   5.032   1.764 -0.7279  0.0358 -0.7874
  112bbb     C5 3261   3.380   5.169   1.694  0.3897  0.1811  0.0837
  112bbb     H9 3262   3.351   5.082   1.754 -0.1844 -0.1111 -0.6025
  112bbb    H10 3263   3.340   5.163   1.591  2.8579  0.5911 -0.9666
  112bbb     C6 3264   3.676   5.136   2.038  0.3004  0.0412  0.0550
  112bbb    H11 3265   3.634   5.225   2.086  2.1602  0.7946  0.3614
  112bbb    H12 3266   3.783   5.153   2.020 -0.0711  2.9965  0.2677
  112bbb     C7 3267   3.981   5.152   1.648  0.1305  0.2428 -0.4601
  112bbb    H13 3268   4.040   5.072   1.601 -0.4073  0.0946 -0.9022
  112bbb    H14 3269   4.037   5.185   1.736  2.4042 -0.0487 -1.7294
  112bbb     C8 3270   3.675   5.020   2.143 -0.4782  0.5319 -0.5788
  112bbb    H15 3271   3.691   4.926   2.088  0.2768 -0.2285  0.8900
  112bbb    H16 3272   3.576   5.020   2.190 -0.4749  2.0863 -0.5199
  112bbb     C9 3273   3.341   5.301   1.763 -0.0380  0.4340 -0.6914
  112bbb    H17 3274   3.364   5.385   1.697  3.4605  0.0737 -0.0811
  112bbb    H18 3275   3.401   5.308   1.854  3.1089 -1.5092 -2.4362
  112bbb     O1 3276   3.970   5.263   1.558  0.8882  0.5607 -0.6174
  113bbb     N1 3277   4.326   5.898   1.254 -0.1396 -0.0354  0.1548
  113bbb     C1 3278   4.415   6.013   1.215 -0.3995 -0.3490 -0.4652
  113bbb     H1 3279   4.513   5.981   1.179  1.4679  1.9045  2.1416
  113bbb     H2 3280   4.445   6.069   1.305 -2.3107 -0.9839  0.6327
  113bbb     C2 3281   4.402   5.776   1.238  0.2766  0.3274 -0.3539
  113bbb     H3 3282   4.457   5.757   1.331  0.8670  2.6503 -0.1657
  113bbb     H4 3283   4.489   5.779   1.170  0.9857 -2.3610  0.2854
  113bbb     C3 3284   4.255   5.904   1.385  0.2401  0.0855 -0.1821
  113bbb     H5 3285   4.335   5.915   1.460  0.2990  2.3356 -0.4909
  113bbb     H6 3286   4.196   5.813   1.400  0.5282 -0.3416 -1.5474
  113bbb     C4 3287   4.161   6.024   1.404  0.2431  0.2193  0.3876
  113bbb     H7 3288   4.097   6.028   1.315  0.5315 -3.5193 -0.1550
  113bbb     H8 3289   4.214   6.118   1.421  1.4650 -0.5205  0.8056
  113bbb     C5 3290   4.343   6.107   1.117 -0.0387 -0.1452 -0.3429
  113bbb     H9 3291   4.263   6.161   1.170 -0.7790 -0.9142 -0.6655
  113bbb    H10 3292   4.291   6.043   1.045  0.6434 -1.0935 -0.0050
  113bbb     C6 3293   4.319   5.651   1.201  0.4752 -0.1641  0.4010
  113bbb    H11 3294   4.256   5.686   1.119  0.2210 -0.9463  0.2538
  113bbb    H12 3295   4.262   5.615   1.288 -0.2188  0.8648  0.3919
  113bbb     C7 3296   4.066   5.990   1.523 -0.5615 -0.2116 -0.2046
  113bbb    H13 3297   4.059   6.081   1.584  0.4308 -0.0689 -0.2819
  113bbb    H14 3298   4.102   5.905   1.582 -2.4663  0.0390  1.4167
  113bbb     C8 3299   4.411   5.541   1.138 -0.4357  0.1215  0.1871
  113bbb    H15 3300   4.484   5.505   1.211 -2.7678 -3.4183  1.0440
  113bbb    H16 3301   4.468   5.591   1.059  0.4471 -1.2587 -0.0819
  113bbb     C9 3302   4.427   6.224   1.059 -0.3547  0.4738 -0.0214
  113bbb    H17 3303   4.364   6.272   0.983 -0.6366  0.1105 -0.0253
  113bbb    H18 3304   4.517   6.191   1.006 -0.5184  2.4241 -1.6370
  113bbb     O1 3305   3.939   5.958   1.464 -0.4129 -0.0471  0.3878
  114bbb     N1 3306   1.656   5.285   0.789 -0.6286  0.3257  0.2551
  114bbb     C1 3307   1.528   5.228   0.727 -0.7496  0.0310 -0.9404
  114bbb     H1 3308   1.561   5.170   0.640  0.4644  1.1919 -1.2768
  114bbb     H2 3309   1.455   5.302   0.691 -1.8827 -0.0370  1.0415
  114bbb     C2 3310   1.637   5.388   0.883 -0.0593 -0.4689 -0.0487
  114bbb     H3 3311   1.576   5.352   0.966  0.3008 -0.8990  0.0292
  114bbb     H4 3312   1.593   5.472   0.827 -0.1838 -0.1428  0.5361
  114bbb     C3 3313   1.773   5.309   0.693 -0.4022 -0.0508 -0.1955
  114bbb     H5 3314   1.781   5.217   0.635  0.0383 -0.7129  0.8942
  114bbb     H6 3315   1.866   5.314   0.751 -0.6309 -0.3333  0.1962
  114bbb     C4 3316   1.747   5.435   0.600  0.0494 -0.1128  0.5307
  114bbb     H7 3317   1.732   5.528   0.656 -0.1537 -0.2195  0.6559
  114bbb     H8 3318   1.662   5.423   0.532 -0.9171 -0.4016  1.7650
  114bbb     C5 3319   1.455   5.125   0.817 -0.0382 -0.1951  0.2667
  114bbb     H9 3320   1.413   5.178   0.903  0.9924  2.3932 -0.7201
  114bbb    H10 3321   1.537   5.067   0.860  0.9188  1.5913  0.9418
  114bbb     C6 3322   1.765   5.454   0.948 -0.6989 -0.3635  0.0529
  114bbb    H11 3323   1.811   5.525   0.879  1.0862 -1.6805 -0.1902
  114bbb    H12 3324   1.840   5.379   0.974 -1.7323 -1.0844  1.0758
  114bbb     C7 3325   1.876   5.459   0.515  0.2617  0.4190 -0.4426
  114bbb    H13 3326   1.950   5.486   0.591 -0.5238  0.9182  0.1595
  114bbb    H14 3327   1.870   5.550   0.455 -0.4193  1.4215  1.0803
  114bbb     C8 3328   1.729   5.544   1.069 -0.1855  0.2577 -0.0169
  114bbb    H15 3329   1.643   5.500   1.120 -0.1386  0.6889  0.4449
  114bbb    H16 3330   1.703   5.643   1.028 -0.7945  0.4420  0.7953
  114bbb     C9 3331   1.346   5.057   0.734  0.0934  0.0373  0.3152
  114bbb    H17 3332   1.286   5.124   0.671  1.1692 -0.4983 -1.3555
  114bbb    H18 3333   1.279   5.013   0.808  1.3114 -1.6352  0.4636
  114bbb     O1 3334   1.908   5.339   0.444 -0.0229  0.0268 -0.4135
  115bbb     N1 3335   1.702   5.121   1.389  0.5533  0.0384 -0.1450
  115bbb     C1 3336   1.574   5.103   1.309 -0.6286 -0.3126 -0.1390
  115bbb     H1 3337   1.499   5.074   1.383 -1.4251  2.3572  0.2016
  115bbb     H2 3338   1.584   5.017   1.241 -1.4325  0.4071 -1.2032
  115bbb     C2 3339   1.740   4.995   1.450 -0.1739 -1.0388 -0.6054
  115bbb     H3 3340   1.746   4.920   1.369 -0.0089 -0.8785 -0.7438
  115bbb     H4 3341   1.666   4.966   1.525  0.2803  1.0421  0.7360
  115bbb     C3 3342   1.805   5.198   1.320 -0.0730  0.1383 -1.3180
  115bbb     H5 3343   1.881   5.211   1.399 -0.2047 -0.1689 -1.1387
  115bbb     H6 3344   1.774   5.301   1.297 -1.1877 -0.4397 -2.5091
  115bbb     C4 3345   1.869   5.137   1.192  0.1328 -0.2994  0.2012
  115bbb     H7 3346   1.800   5.161   1.110 -0.5934  0.3890  0.9888
  115bbb     H8 3347   1.875   5.028   1.202 -0.0004 -0.2210  1.2795
  115bbb     C5 3348   1.518   5.222   1.227  0.2722  1.1064  0.1290
  115bbb     H9 3349   1.441   5.176   1.164 -0.5185 -0.6900  2.2470
  115bbb    H10 3350   1.594   5.264   1.159 -0.2267  0.5127 -0.8190
  115bbb     C6 3351   1.869   4.996   1.532 -0.0572  0.2355 -0.0274
  115bbb    H11 3352   1.871   5.081   1.602  2.0307  0.0408  0.2153
  115bbb    H12 3353   1.952   5.021   1.464 -1.4068  1.5784 -1.2925
  115bbb     C7 3354   2.004   5.201   1.164  0.4001  0.9619 -0.1704
  115bbb    H13 3355   2.068   5.177   1.250 -0.3739 -0.6654 -0.0174
  115bbb    H14 3356   1.988   5.309   1.155  1.4773  1.3642  2.0906
  115bbb     C8 3357   1.904   4.862   1.598 -0.5904 -0.2174 -0.9744
  115bbb    H15 3358   2.007   4.868   1.634 -1.3505  1.7739  1.0303
  115bbb    H16 3359   1.888   4.797   1.510  1.8407  0.7312 -2.2203
  115bbb     C9 3360   1.464   5.339   1.317 -0.0449  1.3929 -0.0746
  115bbb    H17 3361   1.543   5.360   1.389 -0.1516 -1.9522  1.1817
  115bbb    H18 3362   1.374   5.311   1.372  0.7626 -2.7543 -0.5633
  115bbb     O1 3363   2.050   5.146   1.039 -0.9204 -0.0404  0.5595
  116bbb     N1 3364   2.661   4.269   0.262  0.0770 -0.3092  0.8262
  116bbb     C1 3365   2.511   4.274   0.253  0.3832  0.3250  0.4255
  116bbb     H1 3366   2.488   4.374   0.292  0.2884  0.2712  0.5075
  116bbb     H2 3367   2.457   4.198   0.310 -0.7636 -1.4485 -2.7622
  116bbb     C2 3368   2.727   4.404   0.220  0.6717  0.4326  0.0346
  116bbb     H3 3369   2.717   4.478   0.299 -0.5609  1.6704 -1.2231
  116bbb     H4 3370   2.669   4.437   0.133  1.1320 -1.0528 -0.8848
  116bbb     C3 3371   2.719   4.209   0.394  0.0363  0.5275 -0.5472
  116bbb     H5 3372   2.720   4.293   0.464 -0.1454  1.7389 -1.9378
  116bbb     H6 3373   2.823   4.175   0.386 -0.7993 -2.2533 -0.5043
  116bbb     C4 3374   2.643   4.088   0.450  0.4073  0.4933 -0.0959
  116bbb     H7 3375   2.613   4.028   0.363  1.9707  1.4407 -1.3507
  116bbb     H8 3376   2.555   4.131   0.500  1.0716  0.7677  0.8568
  116bbb     C5 3377   2.451   4.259   0.110  0.5977 -0.2665 -0.3493
  116bbb     H9 3378   2.443   4.150   0.097 -0.5324 -0.7319  3.1064
  116bbb    H10 3379   2.516   4.301   0.032  1.2093  0.9440  0.7684
  116bbb     C6 3380   2.874   4.391   0.185 -0.1057 -0.4828  0.0208
  116bbb    H11 3381   2.899   4.303   0.124  1.5237 -1.4009  1.8888
  116bbb    H12 3382   2.925   4.373   0.281 -1.0010  0.4237  0.6765
  116bbb     C7 3383   2.723   4.005   0.551  0.1392 -0.2580 -0.2335
  116bbb    H13 3384   2.825   4.045   0.556  1.0400 -2.5204  1.1111
  116bbb    H14 3385   2.730   3.900   0.518  0.1606  0.1797 -1.6846
  116bbb     C8 3386   2.939   4.520   0.124  0.3295 -0.1751  0.1422
  116bbb    H15 3387   3.048   4.509   0.110  0.5444  0.5514  1.1132
  116bbb    H16 3388   2.938   4.595   0.203  2.3073 -1.9824  2.0401
  116bbb     C9 3389   2.307   4.306   0.091  0.4590  0.1766  0.6918
  116bbb    H17 3390   2.263   4.280  -0.006  0.8387  1.1467  0.2513
  116bbb    H18 3391   2.293   4.413   0.106 -1.3469 -0.0864  1.1553
  116bbb     O1 3392   2.663   4.013   0.687  0.2614  0.2689  0.3013
  117bbb     N1 3393   2.116   4.699   1.030  0.3245  0.8222 -0.3631
  117bbb     C1 3394   1.965   4.717   1.043 -0.1766  0.6833 -0.2605
  117bbb     H1 3395   1.936   4.737   1.147  0.1277  1.8292 -0.3833
  117bbb     H2 3396   1.904   4.636   1.001 -0.4819  0.9361 -0.3125
  117bbb     C2 3397   2.196   4.817   1.078  0.1544 -0.1208  0.5992
  117bbb     H3 3398   2.169   4.899   1.010 -0.4495 -0.4655  0.4205
  117bbb     H4 3399   2.304   4.803   1.066  0.1418 -0.3792  0.7894
  117bbb     C3 3400   2.169   4.565   1.053 -0.5465  0.1984  0.1460
  117bbb     H5 3401   2.175   4.565   1.163  1.7125  0.3674  0.0813
  117bbb     H6 3402   2.272   4.559   1.015 -0.1284  1.4976  0.9751
  117bbb     C4 3403   2.091   4.455   0.992  0.2100 -0.3180  0.6359
  117bbb     H7 3404   2.100   4.472   0.884 -1.1894  2.1622  0.8350
  117bbb     H8 3405   1.986   4.450   1.023  0.3453 -2.3351  0.9312
  117bbb     C5 3406   1.928   4.825   0.943  0.0924 -0.2922  0.1030
  117bbb     H9 3407   1.965   4.785   0.847  0.3908  0.1880  0.0165
  117bbb    H10 3408   1.984   4.919   0.955 -0.6587  0.4566 -1.8440
  117bbb     C6 3409   2.168   4.856   1.225 -0.4928 -0.7854 -0.3155
  117bbb    H11 3410   2.145   4.769   1.287  2.1121 -0.0930  1.8048
  117bbb    H12 3411   2.079   4.919   1.214 -2.0315 -2.6881  0.6740
  117bbb     C7 3412   2.150   4.317   1.039 -0.4549 -0.4939  0.4573
  117bbb    H13 3413   2.245   4.309   0.984  0.0822  3.8168  0.4058
  117bbb    H14 3414   2.088   4.234   1.004  0.6839 -1.4553  0.6689
  117bbb     C8 3415   2.282   4.937   1.291  0.1049 -0.6025 -0.7517
  117bbb    H15 3416   2.346   4.993   1.221 -0.6534  0.9777 -0.2268
  117bbb    H16 3417   2.344   4.864   1.345 -0.6903 -0.0073  1.0440
  117bbb     C9 3418   1.778   4.860   0.941 -0.0572 -0.0100 -0.4877
  117bbb    H17 3419   1.765   4.950   0.879  2.9792  2.0677  1.5902
  117bbb    H18 3420   1.741   4.886   1.041  0.7193  1.0150 -0.4557
  117bbb     O1 3421   2.167   4.315   1.182  0.3383  0.0435 -0.5696
  118bbb     N1 3422   1.963   6.431  -0.362  0.2246  0.4216  0.2114
  118bbb     C1 3423   2.034   6.565  -0.384  0.1158  0.0581 -0.5594
  118bbb     H1 3424   2.029   6.573  -0.493 -0.3986  0.1441 -0.5292
  118bbb     H2 3425   2.139   6.555  -0.354 -0.4710 -0.0442  1.6326
  118bbb     C2 3426   1.961   6.400  -0.220 -0.1333 -0.0450 -0.5648
  118bbb     H3 3427   1.893   6.469  -0.168 -0.0599 -0.4063  0.0336
  118bbb     H4 3428   2.056   6.425  -0.172 -0.6062  2.2877 -0.7382
  118bbb     C3 3429   2.015   6.325  -0.453 -0.4488 -0.0752  0.2222
  118bbb     H5 3430   2.019   6.379  -0.549 -1.0093  2.0976  1.3505
  118bbb     H6 3431   1.962   6.230  -0.460  3.3240 -2.2673 -1.4645
  118bbb     C4 3432   2.168   6.286  -0.431 -0.1816 -0.2359 -0.2865
  118bbb     H7 3433   2.198   6.296  -0.326 -1.3977 -0.2278  0.0841
  118bbb     H8 3434   2.230   6.364  -0.477 -1.4220  1.2719  0.4837
  118bbb     C5 3435   1.982   6.690  -0.308 -0.2736  0.6212  0.3546
  118bbb     H9 3436   2.032   6.777  -0.353 -2.5794  1.9976  0.3167
  118bbb    H10 3437   2.007   6.683  -0.201 -2.3881  1.0212  0.9096
  118bbb     C6 3438   1.908   6.261  -0.174  0.1091 -0.3243  0.0556
  118bbb    H11 3439   1.907   6.250  -0.065  0.7469  1.3047  0.2544
  118bbb    H12 3440   1.982   6.191  -0.214  1.6862  0.5639  1.3217
  118bbb     C7 3441   2.223   6.148  -0.484  0.4795 -0.4535  0.1490
  118bbb    H13 3442   2.164   6.140  -0.575  2.9973  1.7823 -1.8560
  118bbb    H14 3443   2.197   6.071  -0.411 -1.2536 -1.7409 -1.7206
  118bbb     C8 3444   1.777   6.216  -0.238  0.1265 -0.3110  0.1454
  118bbb    H15 3445   1.783   6.210  -0.347 -0.7547 -2.9326  0.1667
  118bbb    H16 3446   1.704   6.289  -0.200  0.5501  0.4777 -0.5283
  118bbb     C9 3447   1.828   6.706  -0.307 -0.1104 -0.3599 -0.3850
  118bbb    H17 3448   1.771   6.617  -0.278 -1.6414  0.5586 -0.4486
  118bbb    H18 3449   1.801   6.717  -0.413  0.4556 -0.0860 -0.5034
  118bbb     O1 3450   2.363   6.139  -0.501 -0.5077 -0.0964  0.5076
  119bbb     N1 3451   2.748   5.216  -0.979  0.1140 -0.2942 -0.5129
  119bbb     C1 3452   2.738   5.116  -0.865 -0.1731  0.3508  0.4576
  119bbb     H1 3453   2.837   5.111  -0.819  0.5543 -0.8623 -1.1403
  119bbb     H2 3454   2.707   5.020  -0.908 -1.8080 -0.1801  2.6492
  119bbb     C2 3455   2.809   5.160  -1.104 -0.3958 -0.0427  0.3278
  119bbb     H3 3456   2.895   5.097  -1.078  0.7550  1.6811  0.8880
  119bbb     H4 3457   2.856   5.236  -1.168 -0.3451 -0.6331 -0.3420
  119bbb     C3 3458   2.781   5.354  -0.945 -0.4007 -0.3101  1.0781
  119bbb     H5 3459   2.890   5.358  -0.951 -0.4023 -0.1644  1.1576
  119bbb     H6 3460   2.754   5.378  -0.842 -0.2100  0.4912  0.9450
  119bbb     C4 3461   2.724   5.460  -1.042 -0.1408 -0.1894  0.0732
  119bbb     H7 3462   2.712   5.419  -1.142 -0.8320  1.0847 -0.3963
  119bbb     H8 3463   2.784   5.551  -1.052 -0.6774  0.0232 -1.4442
  119bbb     C5 3464   2.631   5.156  -0.752 -0.4522  0.0103 -0.2397
  119bbb     H9 3465   2.532   5.174  -0.795 -0.7879  2.0547  1.2500
  119bbb    H10 3466   2.643   5.259  -0.715 -1.1786 -0.0761  0.2512
  119bbb     C6 3467   2.711   5.086  -1.197  0.3721 -0.1566  0.0250
  119bbb    H11 3468   2.662   5.008  -1.138  0.9846 -0.3367  0.3020
  119bbb    H12 3469   2.763   5.029  -1.274  0.6416  0.3434 -0.1701
  119bbb     C7 3470   2.589   5.504  -1.007 -0.1512  0.4901 -0.9023
  119bbb    H13 3471   2.520   5.419  -1.003  1.0356 -0.4789 -0.4761
  119bbb    H14 3472   2.556   5.572  -1.086  1.9314  1.8792 -0.6429
  119bbb     C8 3473   2.605   5.178  -1.262 -0.5829  0.7238 -0.6564
  119bbb    H15 3474   2.545   5.236  -1.190 -1.9470 -1.2643 -0.1182
  119bbb    H16 3475   2.532   5.114  -1.311  1.1523  0.0476 -2.4609
  119bbb     C9 3476   2.618   5.049  -0.638  0.3156  0.3741  0.0816
  119bbb    H17 3477   2.557   4.967  -0.679  0.2271  0.3923  0.1792
  119bbb    H18 3478   2.571   5.091  -0.548  0.0133  2.2408 -0.8961
  119bbb     O1 3479   2.591   5.564  -0.876  0.6239  0.2796  0.3873
  120bbb     N1 3480   2.601   6.575   1.034  0.3906  0.3758  0.0011
  120bbb     C1 3481   2.679   6.519   1.139 -0.1347 -0.5227  0.4322
  120bbb     H1 3482   2.786   6.532   1.119 -0.1327 -1.3705 -0.1382
  120bbb     H2 3483   2.650   6.414   1.146  0.6761 -0.9033 -1.4494
  120bbb     C2 3484   2.632   6.532   0.899  0.0364  0.5754 -0.4909
  120bbb     H3 3485   2.550   6.568   0.834 -2.1268  0.4996  2.0447
  120bbb     H4 3486   2.638   6.423   0.905  1.1822  0.5503 -1.6093
  120bbb     C3 3487   2.454   6.589   1.064 -0.2911  0.6898  0.0213
  120bbb     H5 3488   2.403   6.650   0.988 -2.0229  0.8035  1.2192
  120bbb     H6 3489   2.441   6.643   1.158 -0.8658  1.7833 -0.6696
  120bbb     C4 3490   2.388   6.450   1.069 -0.1214  0.3790 -0.2067
  120bbb     H7 3491   2.414   6.399   1.162  0.9344 -0.7722 -1.1028
  120bbb     H8 3492   2.420   6.384   0.987 -0.0163 -2.1314  1.7391
  120bbb     C5 3493   2.661   6.585   1.281  0.1226 -0.0554 -0.8401
  120bbb     H9 3494   2.573   6.532   1.321  0.2381  0.3233 -0.0584
  120bbb    H10 3495   2.643   6.693   1.272  1.0859  0.4187  1.8087
  120bbb     C6 3496   2.770   6.581   0.840  0.1577  0.0762  0.2074
  120bbb    H11 3497   2.850   6.551   0.910  0.6606 -0.0815 -0.4298
  120bbb    H12 3498   2.761   6.690   0.831 -0.5131 -0.0027 -0.1004
  120bbb     C7 3499   2.237   6.460   1.081  0.6196 -0.2871 -0.0235
  120bbb    H13 3500   2.216   6.518   1.172  2.4400  1.0284 -0.3846
  120bbb    H14 3501   2.196   6.360   1.099 -0.8669 -0.0822 -1.9614
  120bbb     C8 3502   2.800   6.540   0.694  0.2701  0.1680 -0.4797
  120bbb    H15 3503   2.718   6.577   0.631 -0.2151 -0.3640 -0.1684
  120bbb    H16 3504   2.803   6.430   0.694  1.6902  0.1636 -2.2020
  120bbb     C9 3505   2.781   6.558   1.376  0.4169  0.1945  0.2316
  120bbb    H17 3506   2.864   6.608   1.324  1.0302  2.3533  3.0765
  120bbb    H18 3507   2.807   6.452   1.392 -1.6034 -0.2958  0.6120
  120bbb     O1 3508   2.179   6.509   0.958 -0.0353 -0.1961 -0.1234
  121bbb     N1 3509   2.215   7.296   0.558 -0.3019 -0.6154  0.4167
  121bbb     C1 3510   2.240   7.332   0.414  0.4697 -0.1174 -0.0703
  121bbb     H1 3511   2.343   7.371   0.409  0.1379  0.7212 -0.5727
  121bbb     H2 3512   2.176   7.413   0.376 -2.4008 -1.0897  2.3062
  121bbb     C2 3513   2.216   7.414   0.644  0.2582  0.4257 -0.3130
  121bbb     H3 3514   2.185   7.382   0.744 -0.0759  1.1864 -0.1700
  121bbb     H4 3515   2.149   7.492   0.605  0.2964  0.3319 -0.5676
  121bbb     C3 3516   2.092   7.210   0.585 -0.4113  0.4109  0.1637
  121bbb     H5 3517   2.090   7.177   0.690 -0.6932 -4.4384 -1.0977
  121bbb     H6 3518   2.087   7.116   0.529 -1.1811  1.2798 -1.2905
  121bbb     C4 3519   1.952   7.276   0.554 -0.1853 -0.6239  0.6946
  121bbb     H7 3520   1.950   7.293   0.446 -1.1474 -1.3972  0.5735
  121bbb     H8 3521   1.934   7.372   0.605 -4.5163 -0.8903  0.0485
  121bbb     C5 3522   2.232   7.222   0.314 -0.1592  0.1282 -0.8713
  121bbb     H9 3523   2.126   7.199   0.300 -0.6125  1.4297  0.1949
  121bbb    H10 3524   2.285   7.133   0.350 -1.0879 -1.6462 -3.5879
  121bbb     C6 3525   2.350   7.484   0.653 -0.7191  0.1428 -0.3612
  121bbb    H11 3526   2.337   7.559   0.732  1.8633 -0.4498  0.7199
  121bbb    H12 3527   2.361   7.542   0.561  0.0375  0.6391  0.0336
  121bbb     C7 3528   1.822   7.196   0.601  0.0999 -0.4797 -0.4721
  121bbb    H13 3529   1.738   7.246   0.550  1.7600  4.0186  0.7789
  121bbb    H14 3530   1.825   7.211   0.709  2.0398 -1.7755 -0.3032
  121bbb     C8 3531   2.475   7.388   0.689 -0.2529 -0.7099  0.2290
  121bbb    H15 3532   2.493   7.316   0.609 -0.2379  0.5471 -0.9293
  121bbb    H16 3533   2.465   7.329   0.781  1.8170 -0.8435  0.4218
  121bbb     C9 3534   2.287   7.260   0.172  0.4097 -0.4882  0.5971
  121bbb    H17 3535   2.378   7.321   0.178  0.7455 -0.8884 -0.2871
  121bbb    H18 3536   2.206   7.317   0.126 -2.1928 -3.2753  1.4053
  121bbb     O1 3537   1.828   7.055   0.569 -0.2731 -0.5802  0.1924
  122bbb     N1 3538   2.226   4.482   0.597  0.4229 -0.0881  0.3557
  122bbb     C1 3539   2.347   4.497   0.691 -0.1785  0.4220  0.3991
  122bbb     H1 3540   2.343   4.422   0.771 -1.4226 -0.8306 -0.7801
  122bbb     H2 3541   2.344   4.591   0.748 -0.8629  0.4959  0.2562
  122bbb     C2 3542   2.181   4.344   0.553 -0.0828  0.0739  0.0335
  122bbb     H3 3543   2.254   4.322   0.474  0.9389  2.0818  0.3530
  122bbb     H4 3544   2.078   4.345   0.515  0.4877  0.8441 -1.5995
  122bbb     C3 3545   2.199   4.580   0.486  0.2992 -0.7387  0.5740
  122bbb     H5 3546   2.105   4.563   0.434  0.2861  1.0228 -0.0667
  122bbb     H6 3547   2.276   4.564   0.409 -1.2683  0.8641 -1.4516
  122bbb     C4 3548   2.217   4.732   0.524  0.3511  0.5263 -0.0688
  122bbb     H7 3549   2.235   4.791   0.433  0.1399  0.0886 -0.3996
  122bbb     H8 3550   2.313   4.743   0.577  0.2271  0.0520  0.2591
  122bbb     C5 3551   2.484   4.486   0.622 -0.0840  0.1865 -0.1412
  122bbb     H9 3552   2.504   4.559   0.543  2.3470 -1.8949 -1.5989
  122bbb    H10 3553   2.485   4.384   0.583  0.1690 -0.0633  0.5147
  122bbb     C6 3554   2.188   4.225   0.652 -0.1189 -1.0368  0.4535
  122bbb    H11 3555   2.113   4.239   0.731  1.3347  1.2307  1.5334
  122bbb    H12 3556   2.289   4.228   0.694 -0.5654  0.8881  1.5135
  122bbb     C7 3557   2.097   4.779   0.607 -0.1516 -0.0167 -0.0415
  122bbb    H13 3558   2.123   4.877   0.650  0.2825 -0.2624  0.2648
  122bbb    H14 3559   2.075   4.704   0.684 -0.6467  0.0605 -0.1021
  122bbb     C8 3560   2.150   4.084   0.600 -1.4640  0.5681  0.2279
  122bbb    H15 3561   2.052   4.078   0.551 -1.8789  0.6998  1.0395
  122bbb    H16 3562   2.148   4.011   0.682  0.8086 -0.5327 -0.6135
  122bbb     C9 3563   2.588   4.508   0.735  0.1710  0.0645 -0.0451
  122bbb    H17 3564   2.553   4.446   0.818 -2.9186 -0.3344 -1.5017
  122bbb    H18 3565   2.583   4.615   0.757  0.0838 -0.2981  1.8876
  122bbb     O1 3566   1.990   4.801   0.518 -0.0357  0.0493 -0.2725
  123bbb     N1 3567   1.666   5.252  -0.731  0.2030 -0.1553 -0.4446
  123bbb     C1 3568   1.728   5.133  -0.803  0.4563  0.1375  0.1861
  123bbb     H1 3569   1.690   5.124  -0.905 -0.3044 -1.5811  0.5861
  123bbb     H2 3570   1.692   5.039  -0.759 -1.7043  0.3272 -1.0511
  123bbb     C2 3571   1.517   5.235  -0.728 -0.2823  0.6830  0.1170
  123bbb     H3 3572   1.503   5.135  -0.686  2.2600  0.2378  0.0261
  123bbb     H4 3573   1.482   5.227  -0.832  1.6344 -0.5498 -0.4755
  123bbb     C3 3574   1.722   5.284  -0.597 -0.0341  0.5971  0.2329
  123bbb     H5 3575   1.664   5.367  -0.555  0.7257 -1.3818  6.0685
  123bbb     H6 3576   1.826   5.315  -0.613  0.1603 -1.1145 -2.4341
  123bbb     C4 3577   1.715   5.169  -0.491 -0.4039  0.0090  0.0572
  123bbb     H7 3578   1.768   5.088  -0.543 -0.6073 -0.1089  0.0315
  123bbb     H8 3579   1.612   5.136  -0.476 -0.2599 -0.7492 -0.5477
  123bbb     C5 3580   1.878   5.120  -0.796  0.4379  0.0527  0.3765
  123bbb     H9 3581   1.899   5.067  -0.703 -0.2225 -1.6586 -0.3995
  123bbb    H10 3582   1.919   5.221  -0.802 -1.4794  0.8830  0.4024
  123bbb     C6 3583   1.432   5.341  -0.651 -0.0986 -0.8397 -0.5096
  123bbb    H11 3584   1.460   5.361  -0.546  0.0360  0.9153 -0.8576
  123bbb    H12 3585   1.332   5.298  -0.654  0.1724 -1.4942 -0.3609
  123bbb     C7 3586   1.792   5.197  -0.361 -0.0090  0.0680 -0.2052
  123bbb    H13 3587   1.797   5.305  -0.346 -1.8847  0.2346 -0.6129
  123bbb    H14 3588   1.893   5.156  -0.374 -0.3143 -1.5147  1.7990
  123bbb     C8 3589   1.427   5.471  -0.727 -0.0183 -0.0355  0.8234
  123bbb    H15 3590   1.378   5.448  -0.822  0.6262 -0.3404  0.5597
  123bbb    H16 3591   1.528   5.506  -0.748 -0.3792  1.0377  0.8054
  123bbb     C9 3592   1.927   5.031  -0.916 -0.4745 -0.3429 -0.3502
  123bbb    H17 3593   1.897   4.927  -0.903 -1.7737  0.1638  0.9490
  123bbb    H18 3594   2.037   5.032  -0.917 -0.4287 -0.6445  1.6874
  123bbb     O1 3595   1.725   5.125  -0.253  0.2934 -0.2394  0.4148
  124bbb     N1 3596   0.598   4.932   0.704 -0.0716 -0.8895  1.1297
  124bbb     C1 3597   0.492   5.004   0.631 -0.4032  0.9255  0.4253
  124bbb     H1 3598   0.509   5.109   0.655 -0.9717  0.6996  1.9048
  124bbb     H2 3599   0.393   4.975   0.667  0.0735 -0.7813  0.4693
  124bbb     C2 3600   0.735   4.928   0.643  0.2039 -0.1554 -0.0606
  124bbb     H3 3601   0.739   4.887   0.541  0.2751 -0.1487 -0.0607
  124bbb     H4 3602   0.806   4.866   0.699  1.0909  1.7020  0.9810
  124bbb     C3 3603   0.597   4.968   0.847  0.6123  0.2345  0.2880
  124bbb     H5 3604   0.497   4.938   0.881  0.1913  1.1213 -0.1251
  124bbb     H6 3605   0.605   5.075   0.870 -1.6085  0.7759 -1.1267
  124bbb     C4 3606   0.693   4.886   0.930 -0.2940  0.3286 -0.2512
  124bbb     H7 3607   0.798   4.900   0.904 -0.5145  0.3961 -1.1378
  124bbb     H8 3608   0.666   4.782   0.907 -2.0149  0.7629 -0.3692
  124bbb     C5 3609   0.482   4.977   0.475  0.2022 -0.1465  0.0948
  124bbb     H9 3610   0.573   5.000   0.419  0.5515  1.6348  1.3042
  124bbb    H10 3611   0.395   5.030   0.433 -1.3196 -3.5125 -1.3751
  124bbb     C6 3612   0.802   5.070   0.626  0.1226  0.1309  0.5691
  124bbb    H11 3613   0.811   5.125   0.721 -1.7642 -0.8456  1.3694
  124bbb    H12 3614   0.729   5.121   0.561 -0.0479  1.6588  1.8934
  124bbb     C7 3615   0.668   4.907   1.085 -0.3214 -0.0590  0.1478
  124bbb    H13 3616   0.591   4.838   1.120 -0.2871 -1.3131 -2.0577
  124bbb    H14 3617   0.644   5.011   1.109 -0.1938 -0.3803  1.7745
  124bbb     C8 3618   0.939   5.063   0.561 -0.2851 -0.4228 -0.0514
  124bbb    H15 3619   1.008   5.000   0.619 -2.0379 -2.5171 -0.0976
  124bbb    H16 3620   0.980   5.164   0.546 -0.5057 -0.7859 -4.0394
  124bbb     C9 3621   0.459   4.826   0.447 -0.4676  0.3233 -0.2329
  124bbb    H17 3622   0.551   4.776   0.481  1.6943  2.4163 -2.6543
  124bbb    H18 3623   0.452   4.804   0.340  0.7535  4.0188 -1.2121
  124bbb     O1 3624   0.788   4.875   1.163  0.1880 -0.0508  0.1987
  125bbb     N1 3625   1.350   4.675   1.519  0.8023  0.8964 -0.7417
  125bbb     C1 3626   1.474   4.618   1.453  0.1290  0.0868  0.2331
  125bbb     H1 3627   1.458   4.519   1.410 -1.1164  1.0760 -1.7296
  125bbb     H2 3628   1.563   4.628   1.517 -1.0811  2.6611  1.7044
  125bbb     C2 3629   1.227   4.695   1.435 -0.0889 -0.0137 -0.2310
  125bbb     H3 3630   1.254   4.773   1.363  1.6523 -1.0422 -0.7589
  125bbb     H4 3631   1.146   4.741   1.492 -0.3468  1.6285 -1.8188
  125bbb     C3 3632   1.372   4.792   1.604 -0.1841 -0.7419  0.5044
  125bbb     H5 3633   1.400   4.873   1.535 -1.7477 -0.3628  0.2644
  125bbb     H6 3634   1.460   4.762   1.662 -0.4370 -2.6040  0.0029
  125bbb     C4 3635   1.267   4.825   1.707 -0.7178  0.6167 -0.3253
  125bbb     H7 3636   1.243   4.734   1.764  0.3050  0.6700  0.2204
  125bbb     H8 3637   1.168   4.846   1.664 -2.2734 -0.1748  2.6126
  125bbb     C5 3638   1.517   4.708   1.328 -0.1039 -0.0085  0.2960
  125bbb     H9 3639   1.511   4.816   1.345  1.6614  0.8924 -3.7203
  125bbb    H10 3640   1.455   4.679   1.242  1.6037  0.2635 -1.0713
  125bbb     C6 3641   1.186   4.566   1.356  0.0371  0.6479 -0.0956
  125bbb    H11 3642   1.139   4.491   1.422 -2.6331  1.4147 -0.9798
  125bbb    H12 3643   1.272   4.517   1.310 -0.6674 -0.1025 -0.6373
  125bbb     C7 3644   1.305   4.942   1.799  0.1494 -0.6783  0.3314
  125bbb    H13 3645   1.395   4.914   1.855  0.8160  1.4072  0.4129
  125bbb    H14 3646   1.226   4.967   1.871  1.0413 -0.5203  1.2894
  125bbb     C8 3647   1.078   4.602   1.245 -0.2034 -0.6070 -0.0449
  125bbb    H15 3648   0.985   4.640   1.288 -0.2498  0.2994 -0.9167
  125bbb    H16 3649   1.054   4.507   1.195 -0.2202 -0.6488  0.0421
  125bbb     C9 3650   1.659   4.681   1.288  0.3280 -0.5283 -0.2118
  125bbb    H17 3651   1.728   4.686   1.373  0.7310  2.6946 -0.5934
  125bbb    H18 3652   1.693   4.751   1.210  1.4869 -2.4750 -1.5390
  125bbb     O1 3653   1.322   5.065   1.721 -0.7800  0.1075  0.3742
  126ccc     C1 3654   4.926   4.415  -1.402  0.0031 -0.0375 -0.3494
  126ccc     H1 3655   4.909   4.387  -1.298  0.1121  0.1473 -0.2812
  126ccc     H2 3656   4.917   4.524  -1.414 -2.1218 -0.2931 -1.6476
  126ccc     C2 3657   5.075   4.361  -1.422  0.3657 -0.2170 -0.8234
  126ccc     H3 3658   5.087   4.262  -1.377 -0.1413  1.1606  2.6712
  126ccc     H4 3659   5.111   4.345  -1.524  0.3129 -0.4457 -0.8060
  126ccc     C3 3660   5.171   4.456  -1.351  0.2721  0.2922 -0.3291
  126ccc     H5 3661   5.158   4.559  -1.386 -1.4172  0.0564 -0.4616
  126ccc     H6 3662   5.272   4.419  -1.373  0.1881 -0.6767  0.8226
  126ccc     N1 3663   4.826   4.347  -1.488  0.9946 -0.1392  0.0986
  126ccc     H7 3664   4.841   4.373  -1.585 -0.7426  0.5030 -0.0348
  126ccc     H8 3665   4.857   4.250  -1.491  0.6915 -0.2505  0.5015
  126ccc     O1 3666   5.149   4.449  -1.208  0.1008 -0.0149 -0.5977
  127ccc     C1 3667   5.127   4.404  -0.172  0.1205 -0.7888  0.1839
  127ccc     H1 3668   5.146   4.459  -0.265 -0.0002 -0.1325  0.5354
  127ccc     H2 3669   5.075   4.479  -0.111  0.9083 -0.2033  0.1571
  127ccc     C2 3670   5.036   4.286  -0.196  0.1840  0.0933 -0.0688
  127ccc     H3 3671   5.076   4.211  -0.266 -1.3057 -2.0086  1.2109
  127ccc     H4 3672   5.028   4.227  -0.104  0.1420  0.8251  0.4001
  127ccc     C3 3673   4.904   4.347  -0.249  0.3403 -0.4739 -0.0782
  127ccc     H5 3674   4.857   4.405  -0.169  2.1517 -0.2453  0.8718
  127ccc     H6 3675   4.834   4.264  -0.269  0.0996 -0.0540 -1.0132
  127ccc     N1 3676   5.257   4.372  -0.108 -0.0791 -0.2845 -0.1809
  127ccc     H7 3677   5.304   4.296  -0.156  0.7801 -0.0311  0.2402
  127ccc     H8 3678   5.315   4.453  -0.128 -2.3374  0.9725 -2.1947
  127ccc     O1 3679   4.924   4.429  -0.365 -0.0274 -0.1141  0.3113
  128ccc     C1 3680   6.091   5.270  -1.366  0.3860  0.2119 -0.2746
  128ccc     H1 3681   6.180   5.330  -1.345  0.2870  0.3350 -0.2084
  128ccc     H2 3682   6.060   5.198  -1.289 -1.0001 -1.8471 -2.5988
  128ccc     C2 3683   5.970   5.371  -1.382  0.0806 -0.6593 -0.0180
  128ccc     H3 3684   5.962   5.400  -1.487 -1.2332  0.3157  0.3335
  128ccc     H4 3685   5.876   5.317  -1.365 -0.6662  0.8033  0.7019
  128ccc     C3 3686   5.979   5.493  -1.291  0.1402 -0.6305 -0.4007
  128ccc     H5 3687   5.916   5.577  -1.324 -0.0192 -0.1418  1.0766
  128ccc     H6 3688   6.083   5.527  -1.286 -0.0587  0.0223 -0.6255
  128ccc     N1 3689   6.107   5.191  -1.488  0.1629 -0.2361 -0.1044
  128ccc     H7 3690   6.190   5.133  -1.475 -0.1127 -0.7019 -0.3734
  128ccc     H8 3691   6.031   5.124  -1.487 -0.7190  0.6541 -2.2040
  128ccc     O1 3692   5.970   5.447  -1.153  0.0224  0.2462 -0.0217
  129ccc     C1 3693   6.253   5.994  -0.155 -0.1601 -0.8893 -0.0388
  129ccc     H1 3694   6.248   5.959  -0.051 -0.5642  0.4639  0.4205
  129ccc     H2 3695   6.323   5.926  -0.206  1.2960  0.6861 -0.2136
  129ccc     C2 3696   6.115   5.980  -0.227 -0.5594  0.2798  0.3786
  129ccc     H3 3697   6.054   6.059  -0.181 -1.5154  0.4736 -1.1531
  129ccc     H4 3698   6.115   6.002  -0.335 -1.6393 -1.0719  0.0830
  129ccc     C3 3699   6.046   5.841  -0.202  0.6021 -0.1915  0.7157
  129ccc     H5 3700   5.938   5.838  -0.220  0.5030 -2.5841  1.4076
  129ccc     H6 3701   6.053   5.810  -0.097  0.2706  1.3646  1.2259
  129ccc     N1 3702   6.310   6.131  -0.159 -0.4879  0.8681 -0.2532
  129ccc     H7 3703   6.258   6.184  -0.090 -0.9728  0.3444 -0.2062
  129ccc     H8 3704   6.398   6.116  -0.110  0.7684  0.2376 -2.5231
  129ccc     O1 3705   6.108   5.744  -0.280  0.0567  1.0720  0.0675
  130ccc     C1 3706   3.823   4.057  -0.979 -0.1064  0.2395 -0.3612
  130ccc     H1 3707   3.751   4.075  -1.060  0.8233  0.5788 -1.1392
  130ccc     H2 3708   3.914   4.115  -0.996  0.2512  0.3340  1.6359
  130ccc     C2 3709   3.767   4.091  -0.834 -0.0373 -0.5672  0.2350
  130ccc     H3 3710   3.663   4.061  -0.815  0.0494 -0.5841  0.6832
  130ccc     H4 3711   3.824   4.039  -0.756  1.6666 -0.8220 -1.1241
  130ccc     C3 3712   3.785   4.240  -0.805 -0.0594  0.0148  0.8302
  130ccc     H5 3713   3.892   4.262  -0.811  0.3086 -1.9411 -0.8238
  130ccc     H6 3714   3.759   4.255  -0.699  0.3561  1.4275  0.7526
  130ccc     N1 3715   3.848   3.912  -0.987 -0.1360 -0.7735  0.0034
  130ccc     H7 3716   3.906   3.903  -1.070  0.9951  1.1265  0.5144
  130ccc     H8 3717   3.915   3.904  -0.910 -0.3961  1.1930  0.4856
  130ccc     O1 3718   3.699   4.315  -0.890  0.6328  0.0048  0.4058
  131ccc     C1 3719   3.864   4.338  -1.317  0.5256 -0.1541  0.8593
  131ccc     H1 3720   3.944   4.389  -1.262 -0.5363  1.1515  1.2665
  131ccc     H2 3721   3.791   4.297  -1.247 -1.1725 -0.3086 -0.9151
  131ccc     C2 3722   3.789   4.431  -1.415  0.8203  0.5272  0.0911
  131ccc     H3 3723   3.861   4.470  -1.487 -0.2332  1.2037 -0.6316
  131ccc     H4 3724   3.716   4.365  -1.462  0.0360  0.6885  1.0368
  131ccc     C3 3725   3.706   4.549  -1.352 -0.3619 -0.4252 -0.7220
  131ccc     H5 3726   3.636   4.513  -1.276 -0.6774  0.0758 -0.7747
  131ccc     H6 3727   3.647   4.586  -1.436 -1.5593 -2.1180 -0.6825
  131ccc     N1 3728   3.924   4.224  -1.382  0.6968 -0.8921  0.3910
  131ccc     H7 3729   3.973   4.175  -1.307 -0.9371 -1.0190  1.4231
  131ccc     H8 3730   3.860   4.149  -1.409 -0.6124  0.9262 -1.9048
  131ccc     O1 3731   3.804   4.647  -1.302  0.1694  0.0179 -0.2351
  132ccc     C1 3732   3.207   6.025  -0.831 -0.8370  0.5195  0.3622
  132ccc     H1 3733   3.113   5.970  -0.836  1.3229 -3.3934 -1.1386
  132ccc     H2 3734   3.249   6.059  -0.927  1.2863 -0.3494  0.9419
  132ccc     C2 3735   3.194   6.154  -0.748  0.6399 -0.3498 -0.4171
  132ccc     H3 3736   3.156   6.117  -0.652  2.7013 -3.2142 -0.5602
  132ccc     H4 3737   3.294   6.196  -0.729 -0.4168  1.8612  0.5420
  132ccc     C3 3738   3.105   6.250  -0.816  0.0663  0.4355  0.3927
  132ccc     H5 3739   3.103   6.345  -0.760 -2.1228  1.1894 -0.8730
  132ccc     H6 3740   3.001   6.217  -0.818  0.0761  0.3146  1.4941
  132ccc     N1 3741   3.310   5.927  -0.774 -0.0889  0.3263 -0.6921
  132ccc     H7 3742   3.398   5.978  -0.768 -0.6162  1.0502  3.0287
  132ccc     H8 3743   3.294   5.906  -0.676  1.6767  0.3014 -0.3893
  132ccc     O1 3744   3.145   6.278  -0.952 -0.4281  0.5913  0.7003
  133ccc     C1 3745   2.906   6.733  -1.450 -0.2617 -0.5199 -0.2920
  133ccc     H1 3746   2.947   6.664  -1.375  1.2960  1.8663  1.2038
  133ccc     H2 3747   2.958   6.727  -1.546  0.9591  0.1139  0.2962
  133ccc     C2 3748   2.761   6.700  -1.476  0.7358  0.2052 -0.0947
  133ccc     H3 3749   2.709   6.686  -1.381 -1.9505 -0.8772 -1.6177
  133ccc     H4 3750   2.711   6.793  -1.507 -0.1363 -0.1925  0.1217
  133ccc     C3 3751   2.753   6.580  -1.569  0.4152 -0.1218  0.3972
  133ccc     H5 3752   2.793   6.610  -1.667  2.5644  0.7923  1.4660
  133ccc     H6 3753   2.649   6.555  -1.590  1.4353 -3.3727 -1.4572
  133ccc     N1 3754   2.917   6.858  -1.378  0.2929 -0.2273 -0.8359
  133ccc     H7 3755   2.879   6.830  -1.288  0.8008  0.6385 -0.3469
  133ccc     H8 3756   3.018   6.855  -1.370  0.5346  1.3630 -2.5704
  133ccc     O1 3757   2.828   6.469  -1.510 -0.7864  0.4227 -0.2431
  134ccc     C1 3758   5.187   4.580   0.258  0.2867 -0.6162 -0.3284
  134ccc     H1 3759   5.272   4.522   0.296  0.8212  1.4608  1.8331
  134ccc     H2 3760   5.115   4.606   0.336  1.0803 -0.2914  0.3008
  134ccc     C2 3761   5.244   4.710   0.185  0.7460 -0.3125 -0.4882
  134ccc     H3 3762   5.295   4.774   0.257 -1.4479  1.7239 -0.6055
  134ccc     H4 3763   5.315   4.674   0.110  1.4173 -0.7612  0.3466
  134ccc     C3 3764   5.138   4.794   0.125  0.4722 -0.6916  0.0636
  134ccc     H5 3765   5.191   4.880   0.083 -0.2165 -0.6541 -0.7654
  134ccc     H6 3766   5.058   4.811   0.198  0.6820  3.2224 -0.3616
  134ccc     N1 3767   5.108   4.488   0.174  0.3370 -0.5059  0.4989
  134ccc     H7 3768   5.033   4.544   0.133  0.3751  0.0109  1.1145
  134ccc     H8 3769   5.164   4.458   0.094 -0.3997 -0.6185  0.0157
  134ccc     O1 3770   5.064   4.729   0.020  0.4954  0.4722  0.0034
  135ccc     C1 3771   4.672   4.512  -1.005 -0.4998  0.5403  0.0507
  135ccc     H1 3772   4.579   4.522  -1.063 -0.6410  0.6232  0.2882
  135ccc     H2 3773   4.731   4.604  -1.016 -1.7029  1.2758 -0.4551
  135ccc     C2 3774   4.623   4.477  -0.858 -0.3233  0.5517 -0.2668
  135ccc     H3 3775   4.556   4.390  -0.850 -0.6812  0.7950 -0.6248
  135ccc     H4 3776   4.715   4.462  -0.800 -2.5859 -1.7977  3.1131
  135ccc     C3 3777   4.559   4.602  -0.800  0.4505 -0.4942 -0.5689
  135ccc     H5 3778   4.472   4.640  -0.855 -1.2446 -1.5754  1.2308
  135ccc     H6 3779   4.623   4.690  -0.790 -1.7530  1.1581 -0.3252
  135ccc     N1 3780   4.750   4.402  -1.056  0.0469 -0.4380  0.6106
  135ccc     H7 3781   4.749   4.406  -1.158 -1.3384  1.1558  0.6419
  135ccc     H8 3782   4.846   4.417  -1.027 -0.4667  0.0483  2.1625
  135ccc     O1 3783   4.514   4.570  -0.673 -0.4544  0.1354 -0.2544
  136ccc     C1 3784   3.841   4.616  -0.456  0.5454 -0.3600  0.4343
  136ccc     H1 3785   3.946   4.607  -0.425  1.6934  1.2563 -2.6118
  136ccc     H2 3786   3.784   4.681  -0.389 -1.5796  0.0206 -1.6473
  136ccc     C2 3787   3.846   4.684  -0.599 -0.2298 -0.5407 -0.8086
  136ccc     H3 3788   3.748   4.675  -0.647  0.1577  4.6903 -3.3552
  136ccc     H4 3789   3.848   4.794  -0.599 -0.8317 -0.4936 -2.9661
  136ccc     C3 3790   3.955   4.631  -0.688 -0.3045 -0.0561 -0.2251
  136ccc     H5 3791   3.936   4.672  -0.788 -0.9466 -1.8551 -0.8756
  136ccc     H6 3792   3.950   4.522  -0.695 -2.2707 -0.0117 -0.0553
  136ccc     N1 3793   3.771   4.491  -0.453 -0.3610  0.0768 -0.0747
  136ccc     H7 3794   3.836   4.425  -0.496  1.2898  0.7842  1.2229
  136ccc     H8 3795   3.769   4.461  -0.356 -0.6812  0.1298 -0.0639
  136ccc     O1 3796   4.078   4.678  -0.628 -0.5047  0.3900  0.7756
  137ccc     C1 3797   4.803   3.951  -0.893  0.1992 -0.3508 -0.1443
  137ccc     H1 3798   4.822   3.893  -0.802  0.5460 -0.9976 -0.6239
  137ccc     H2 3799   4.696   3.946  -0.918  0.5492  1.1055 -2.1811
  137ccc     C2 3800   4.835   4.101  -0.871 -0.0821 -0.1141  0.8723
  137ccc     H3 3801   4.938   4.132  -0.891 -0.3253  1.5559  1.9750
  137ccc     H4 3802   4.779   4.155  -0.948 -1.5358 -1.8929  0.6065
  137ccc     C3 3803   4.788   4.141  -0.727 -1.0128 -0.8055 -0.0347
  137ccc     H5 3804   4.778   4.250  -0.719  2.9784 -0.1927 -1.1474
  137ccc     H6 3805   4.862   4.116  -0.650  0.0496  2.0286 -0.0163
  137ccc     N1 3806   4.882   3.897  -1.006  0.6373  0.7815 -0.3047
  137ccc     H7 3807   4.845   3.802  -1.019  1.0282  0.5737  0.0956
  137ccc     H8 3808   4.833   3.944  -1.082 -0.9530  0.4850  0.4956
  137ccc     O1 3809   4.668   4.078  -0.678  0.0019 -0.2282  0.0417
  138ccc     C1 3810   3.088   4.465   1.556 -0.4060  0.4672  0.2238
  138ccc     H1 3811   3.120   4.436   1.455  1.6552  0.7103  0.7624
  138ccc     H2 3812   3.174   4.454   1.622 -1.9174 -1.0670  2.0731
  138ccc     C2 3813   3.042   4.613   1.555  0.0953  0.3868  0.9406
  138ccc     H3 3814   2.949   4.634   1.501 -0.6297  0.0329  2.0302
  138ccc     H4 3815   3.012   4.637   1.657 -0.5485  1.6665  0.4776
  138ccc     C3 3816   3.155   4.709   1.522  0.5527 -0.3625  0.0455
  138ccc     H5 3817   3.251   4.685   1.569  0.5697 -0.7868 -0.2085
  138ccc     H6 3818   3.119   4.809   1.552  0.3412 -0.9971  2.0473
  138ccc     N1 3819   2.986   4.371   1.591  0.2148 -0.0086  0.2541
  138ccc     H7 3820   3.020   4.276   1.605 -1.8289 -0.5489  2.0784
  138ccc     H8 3821   2.948   4.384   1.685  0.4691 -3.4497  0.9429
  138ccc     O1 3822   3.159   4.715   1.379 -0.1078  0.1727  0.1989
  139ccc     C1 3823   3.691   4.537   0.729 -0.1910  0.1071 -0.1315
  139ccc     H1 3824   3.592   4.562   0.771  0.5704 -1.2910  2.8274
  139ccc     H2 3825   3.655   4.455   0.665 -0.0848  0.8022 -1.0894
  139ccc     C2 3826   3.770   4.645   0.651  0.3913 -0.1775 -0.5311
  139ccc     H3 3827   3.858   4.605   0.600  0.2067 -0.7345 -0.4231
  139ccc     H4 3828   3.703   4.676   0.570  1.6746  0.0835 -1.5322
  139ccc     C3 3829   3.810   4.768   0.737  0.4205  0.3324  0.2229
  139ccc     H5 3830   3.848   4.836   0.660 -0.3352  1.9607  1.2260
  139ccc     H6 3831   3.888   4.744   0.811  0.5684  1.2961  0.3927
  139ccc     N1 3832   3.772   4.481   0.839 -0.4223  0.3196  0.3519
  139ccc     H7 3833   3.858   4.535   0.827  0.0749 -0.0405  2.0568
  139ccc     H8 3834   3.736   4.530   0.921 -0.4400 -1.1661  1.2681
  139ccc     O1 3835   3.691   4.832   0.797 -0.4891 -0.0707  0.0809
  140ccc     C1 3836   2.053   4.524  -0.892 -0.5827 -0.1925  0.8214
  140ccc     H1 3837   2.159   4.499  -0.900 -0.4220  0.7534 -0.2758
  140ccc     H2 3838   2.020   4.487  -0.795  0.4209 -0.9170  0.9024
  140ccc     C2 3839   2.033   4.673  -0.877 -0.1358  0.1879 -0.2860
  140ccc     H3 3840   2.073   4.722  -0.967 -1.5603 -1.8695 -2.1408
  140ccc     H4 3841   1.926   4.695  -0.870 -0.5659 -2.0765  1.2863
  140ccc     C3 3842   2.092   4.725  -0.743 -0.2461  0.4263  0.6464
  140ccc     H5 3843   2.037   4.682  -0.658 -0.9725  0.0225 -0.0062
  140ccc     H6 3844   2.077   4.832  -0.722  0.4394  0.2788  1.9991
  140ccc     N1 3845   1.962   4.468  -0.995 -0.2842 -0.0314 -0.6193
  140ccc     H7 3846   1.967   4.369  -0.973  2.9951 -0.0189 -0.8373
  140ccc     H8 3847   1.867   4.488  -0.965 -0.6660 -0.7967 -1.2869
  140ccc     O1 3848   2.230   4.688  -0.733 -0.4595 -0.2137 -0.3245
  141ccc     C1 3849   1.793   4.370  -0.534 -0.8722 -0.6914 -0.0004
  141ccc     H1 3850   1.749   4.468  -0.557 -2.2255 -0.5966  2.5721
  141ccc     H2 3851   1.890   4.350  -0.580 -1.7272  0.0565 -2.3132
  141ccc     C2 3852   1.789   4.368  -0.384  0.0133 -0.7972 -0.0723
  141ccc     H3 3853   1.691   4.396  -0.344  0.1848  0.1762 -0.2990
  141ccc     H4 3854   1.806   4.262  -0.363  0.9225 -0.6193  0.1444
  141ccc     C3 3855   1.913   4.438  -0.319  0.8107  0.2723  0.0083
  141ccc     H5 3856   1.904   4.426  -0.211 -0.6697  1.3473  0.0258
  141ccc     H6 3857   1.920   4.542  -0.355 -1.9165  0.0109 -1.5591
  141ccc     N1 3858   1.705   4.261  -0.586  0.0517 -0.5122 -0.3026
  141ccc     H7 3859   1.720   4.251  -0.687 -0.0334 -1.4931 -0.2245
  141ccc     H8 3860   1.760   4.177  -0.568  2.2911  0.7510 -0.8697
  141ccc     O1 3861   2.029   4.369  -0.359  0.3442  0.1671 -0.2198
  142ccc     C1 3862   5.513   6.494   1.569 -0.4627  0.3364 -0.0168
  142ccc     H1 3863   5.518   6.599   1.538 -3.2906  0.3513 -0.6748
  142ccc     H2 3864   5.456   6.474   1.661  1.8701 -0.8112  1.2647
  142ccc     C2 3865   5.447   6.419   1.454 -0.3943  0.6948 -0.3084
  142ccc     H3 3866   5.507   6.432   1.364 -2.0854 -2.1089 -1.9907
  142ccc     H4 3867   5.444   6.310   1.469 -0.6696  0.2835 -2.9001
  142ccc     C3 3868   5.305   6.476   1.427  0.4183  0.3126  0.4324
  142ccc     H5 3869   5.257   6.425   1.342  1.1154 -3.6569  2.1963
  142ccc     H6 3870   5.322   6.583   1.416  3.1174 -0.0475  0.4288
  142ccc     N1 3871   5.646   6.447   1.604 -0.6169  0.3405  0.5181
  142ccc     H7 3872   5.650   6.478   1.701  0.4294 -1.4097  1.0769
  142ccc     H8 3873   5.637   6.346   1.616 -0.6494  0.2547 -0.1826
  142ccc     O1 3874   5.212   6.457   1.534  1.0077  0.3808 -0.2384
  143ccc     C1 3875   5.728   5.951   1.416  0.0977  0.4033  0.6582
  143ccc     H1 3876   5.748   6.053   1.383  0.1156  0.7118  1.5844
  143ccc     H2 3877   5.821   5.908   1.453  1.6565  1.0914 -2.1914
  143ccc     C2 3878   5.607   5.967   1.516 -0.3417 -0.3679  0.2257
  143ccc     H3 3879   5.545   6.049   1.477 -0.0860 -0.3270 -0.0991
  143ccc     H4 3880   5.541   5.881   1.504 -0.0750 -0.7164  1.1370
  143ccc     C3 3881   5.634   6.003   1.663  0.0047 -0.0612  0.6235
  143ccc     H5 3882   5.645   6.111   1.676  1.1842 -0.1425  0.3586
  143ccc     H6 3883   5.726   5.958   1.701 -0.9254 -1.5409  1.2205
  143ccc     N1 3884   5.692   5.854   1.309 -0.2681  0.2327  0.2457
  143ccc     H7 3885   5.777   5.856   1.252 -0.2915 -0.0222  0.1996
  143ccc     H8 3886   5.693   5.761   1.351  1.0134 -0.5423 -1.3913
  143ccc     O1 3887   5.525   5.961   1.750  0.0923 -0.4644  0.6724
  144ccc     C1 3888   4.119   5.026   0.542 -0.1540  0.2046  0.4328
  144ccc     H1 3889   4.022   4.975   0.545  0.1213 -0.6699 -2.4674
  144ccc     H2 3890   4.195   4.962   0.497 -1.0397 -1.9522  1.8431
  144ccc     C2 3891   4.097   5.143   0.442  0.0885 -0.3313  0.0110
  144ccc     H3 3892   4.032   5.107   0.362  1.5704 -0.6741 -1.0904
  144ccc     H4 3893   4.036   5.217   0.495 -0.8826  0.7922 -2.5424
  144ccc     C3 3894   4.230   5.195   0.384 -0.1600 -0.3761  1.0814
  144ccc     H5 3895   4.215   5.285   0.322 -0.0505 -1.0838 -0.0064
  144ccc     H6 3896   4.263   5.121   0.310 -0.4590 -1.0602  1.6237
  144ccc     N1 3897   4.154   5.064   0.678 -0.2073  0.0684 -0.0871
  144ccc     H7 3898   4.247   5.106   0.670 -0.0335 -0.2631  0.1975
  144ccc     H8 3899   4.089   5.138   0.707 -1.2877 -1.5250  1.7972
  144ccc     O1 3900   4.336   5.211   0.480 -0.3035  0.0252 -0.2250
  145ccc     C1 3901   4.314   4.786   0.791  0.3113 -0.0017  0.1477
  145ccc     H1 3902   4.339   4.853   0.708  0.9439  0.4822  0.7181
  145ccc     H2 3903   4.351   4.685   0.768 -0.5432 -0.2321 -0.2804
  145ccc     C2 3904   4.359   4.828   0.934 -0.0215 -0.0636 -0.3704
  145ccc     H3 3905   4.312   4.922   0.962 -0.4230 -0.6962  1.1536
  145ccc     H4 3906   4.320   4.752   1.003  0.7301  0.2937  0.4592
  145ccc     C3 3907   4.507   4.845   0.957 -0.1596 -0.0568  0.3996
  145ccc     H5 3908   4.565   4.754   0.941  0.4040 -0.0018  1.9336
  145ccc     H6 3909   4.516   4.862   1.065 -1.1186  0.0511  0.4718
  145ccc     N1 3910   4.170   4.768   0.803 -0.6251 -0.5129 -0.2565
  145ccc     H7 3911   4.131   4.859   0.826 -0.1911 -0.0875 -1.1300
  145ccc     H8 3912   4.129   4.750   0.712 -0.8061 -0.3509 -0.2070
  145ccc     O1 3913   4.556   4.956   0.880  0.5143  0.1838  0.1865
  146ccc     C1 3914   5.624   6.721   0.447 -0.6536 -0.7120 -0.3278
  146ccc     H1 3915   5.548   6.715   0.526 -0.3918 -1.5802 -0.1246
  146ccc     H2 3916   5.579   6.676   0.357 -2.7402 -1.0872  0.8409
  146ccc     C2 3917   5.665   6.871   0.425 -0.0511 -0.1658 -0.5105
  146ccc     H3 3918   5.577   6.929   0.398  1.6263  2.4481 -0.7243
  146ccc     H4 3919   5.696   6.912   0.522 -0.0238  0.9612 -0.9771
  146ccc     C3 3920   5.778   6.901   0.329 -0.1382  0.1098 -0.3285
  146ccc     H5 3921   5.868   6.840   0.346  1.1442  0.9844 -3.3544
  146ccc     H6 3922   5.817   7.003   0.335  0.0099  0.0665 -0.5328
  146ccc     N1 3923   5.743   6.642   0.494 -0.1051 -0.2532 -0.2122
  146ccc     H7 3924   5.709   6.546   0.505 -0.1713 -0.3281 -0.9892
  146ccc     H8 3925   5.794   6.634   0.406  1.4621 -0.0536  0.6635
  146ccc     O1 3926   5.728   6.877   0.197  0.0820 -0.4764 -0.1407
  147ccc     C1 3927   5.704   6.288  -0.685 -0.1795 -0.6386  0.1965
  147ccc     H1 3928   5.722   6.311  -0.791 -3.5922  2.5971  0.1193
  147ccc     H2 3929   5.654   6.190  -0.686  0.2320 -0.9484 -3.1246
  147ccc     C2 3930   5.830   6.282  -0.598  0.1526 -0.1385 -0.4058
  147ccc     H3 3931   5.903   6.230  -0.661  0.3100 -0.8514  0.3437
  147ccc     H4 3932   5.874   6.382  -0.587  0.8328 -0.5224  0.6099
  147ccc     C3 3933   5.821   6.205  -0.464  0.0157 -0.0574  0.0673
  147ccc     H5 3934   5.910   6.203  -0.399  0.5781 -0.5988 -0.7018
  147ccc     H6 3935   5.795   6.104  -0.497  1.7542 -0.1911 -1.0181
  147ccc     N1 3936   5.614   6.396  -0.646  0.5972 -0.2257  0.3715
  147ccc     H7 3937   5.530   6.390  -0.703 -0.0932  0.2750  1.2958
  147ccc     H8 3938   5.587   6.390  -0.548 -0.7747  0.1883  0.0365
  147ccc     O1 3939   5.710   6.256  -0.388 -0.4923 -0.2361 -0.5582
  148ccc     C1 3940   4.235   6.219  -1.536 -0.1126  0.0535 -0.4047
  148ccc     H1 3941   4.135   6.247  -1.571  0.2300  1.7845 -0.0883
  148ccc     H2 3942   4.295   6.308  -1.517 -1.6435  0.7613  1.3906
  148ccc     C2 3943   4.245   6.120  -1.412 -0.1503 -0.1129 -0.2100
  148ccc     H3 3944   4.204   6.021  -1.432  0.7834 -0.4018 -0.7688
  148ccc     H4 3945   4.350   6.093  -1.394 -0.5743 -1.7854 -0.1086
  148ccc     C3 3946   4.193   6.185  -1.280 -0.9399  0.2249 -0.0017
  148ccc     H5 3947   4.233   6.129  -1.194  0.2147  1.6221  0.4095
  148ccc     H6 3948   4.084   6.173  -1.276 -1.1870  1.6027 -1.6274
  148ccc     N1 3949   4.299   6.153  -1.643  0.4360  0.3640  0.5629
  148ccc     H7 3950   4.248   6.070  -1.674  1.4373  0.1205 -0.4955
  148ccc     H8 3951   4.295   6.216  -1.722  2.3772  0.7254  0.7160
  148ccc     O1 3952   4.230   6.322  -1.257 -0.2209  0.2964 -0.0926
  149ccc     C1 3953   3.775   7.292  -0.811  0.0872 -0.1466 -0.5313
  149ccc     H1 3954   3.802   7.329  -0.911 -0.8658 -1.4687 -1.3243
  149ccc     H2 3955   3.681   7.236  -0.822 -0.1299  0.2463 -0.7289
  149ccc     C2 3956   3.870   7.192  -0.757  0.2262 -0.1561 -0.7799
  149ccc     H3 3957   3.965   7.245  -0.744  0.1956  0.3362 -2.4159
  149ccc     H4 3958   3.824   7.161  -0.662  1.2207  0.2949 -0.1404
  149ccc     C3 3959   3.881   7.074  -0.853 -0.1478  0.4809  0.0004
  149ccc     H5 3960   3.897   7.100  -0.958 -1.4564 -0.9074 -0.5910
  149ccc     H6 3961   3.782   7.025  -0.851 -0.4674  1.0348 -1.1160
  149ccc     N1 3962   3.744   7.396  -0.716  0.1120  0.0036 -0.0775
  149ccc     H7 3963   3.742   7.338  -0.632  1.3935 -1.5250 -1.0423
  149ccc     H8 3964   3.834   7.443  -0.714 -0.1347  0.5514  2.9557
  149ccc     O1 3965   3.994   6.996  -0.802 -0.5452 -0.1029 -0.3542
  150ccc     C1 3966   4.873   4.034   0.656 -0.3169 -0.1447 -0.6043
  150ccc     H1 3967   4.887   3.926   0.640  3.4795 -0.2019  1.9804
  150ccc     H2 3968   4.768   4.054   0.629 -0.0762  1.5864 -0.3449
  150ccc     C2 3969   4.902   4.043   0.810  0.6865 -0.0403  0.4319
  150ccc     H3 3970   4.876   3.951   0.864 -2.4783  0.5183  0.0561
  150ccc     H4 3971   5.009   4.063   0.822  0.6214 -0.4706  1.9590
  150ccc     C3 3972   4.812   4.147   0.877  0.0564  0.0510  0.2300
  150ccc     H5 3973   4.832   4.147   0.985 -0.6212  1.4317  0.3834
  150ccc     H6 3974   4.707   4.120   0.858  0.2457 -0.4056 -0.2147
  150ccc     N1 3975   4.968   4.107   0.568  0.7408 -0.0793 -0.1621
  150ccc     H7 3976   4.959   4.205   0.594 -1.3845 -0.0194 -0.9760
  150ccc     H8 3977   5.062   4.087   0.603  0.9029 -1.8495 -1.4556
  150ccc     O1 3978   4.833   4.284   0.823  0.0387 -0.1525  0.3788
  151ccc     C1 3979   4.419   4.208   0.028 -0.3145  0.0792  0.1443
  151ccc     H1 3980   4.397   4.122   0.092  2.0483 -0.7008  0.0034
  151ccc     H2 3981   4.387   4.304   0.069  0.0991  0.8952 -1.3555
  151ccc     C2 3982   4.571   4.207  -0.011  0.0286 -0.5611 -0.0893
  151ccc     H3 3983   4.596   4.104  -0.037  0.4979 -0.6389  0.6554
  151ccc     H4 3984   4.581   4.264  -0.104 -1.3674 -3.2875 -2.0570
  151ccc     C3 3985   4.664   4.262   0.096 -0.8314  0.0058 -0.3235
  151ccc     H5 3986   4.769   4.238   0.074 -0.1184  0.4547  2.2268
  151ccc     H6 3987   4.639   4.207   0.187  1.9281 -0.8340  0.0373
  151ccc     N1 3988   4.341   4.191  -0.096  0.6649 -0.2216  1.0675
  151ccc     H7 3989   4.245   4.184  -0.062  0.1123 -2.2719 -0.7064
  151ccc     H8 3990   4.342   4.282  -0.143 -1.9165 -0.5816  0.1232
  151ccc     O1 3991   4.651   4.405   0.109 -0.2121 -0.4875  0.4002
  152ccc     C1 3992   6.194   5.165  -0.521  0.1716  0.2015 -0.0863
  152ccc     H1 3993   6.280   5.147  -0.587  0.0686  0.2774 -0.2410
  152ccc     H2 3994   6.193   5.271  -0.491  1.8109  0.0249  0.7130
  152ccc     C2 3995   6.069   5.117  -0.591  0.1874  0.2122  0.1612
  152ccc     H3 3996   6.044   5.175  -0.682  1.0626 -0.3502 -0.4470
  152ccc     H4 3997   6.088   5.018  -0.633 -0.1296 -0.2899  1.1739
  152ccc     C3 3998   5.948   5.100  -0.489  0.4303  0.5070 -0.1947
  152ccc     H5 3999   5.970   5.012  -0.427 -0.3982  0.2107 -0.3051
  152ccc     H6 4000   5.856   5.092  -0.548  1.5837 -1.1150 -1.8893
  152ccc     N1 4001   6.227   5.093  -0.403  0.0269 -0.9362 -0.7388
  152ccc     H7 4002   6.309   5.147  -0.377 -0.6143 -0.3143  0.0492
  152ccc     H8 4003   6.161   5.136  -0.339  0.5201  0.0500 -0.8746
  152ccc     O1 4004   5.963   5.214  -0.399  0.4230 -0.2723  0.8553
  153ccc     C1 4005   6.406   5.580  -0.141  0.3361  0.5887  0.4793
  153ccc     H1 4006   6.379   5.687  -0.148  0.0360  0.4104 -2.0376
  153ccc     H2 4007   6.496   5.571  -0.203  0.2244  2.7274 -0.0808
  153ccc     C2 4008   6.434   5.538   0.001 -0.4241 -0.0980  0.2412
  153ccc     H3 4009   6.465   5.433   0.013  3.0126  0.5516 -1.7217
  153ccc     H4 4010   6.523   5.590   0.037 -1.3755  0.8388  1.2875
  153ccc     C3 4011   6.310   5.576   0.095 -0.7505 -0.2913 -0.4198
  153ccc     H5 4012   6.284   5.682   0.081 -1.7217 -0.5769 -0.9055
  153ccc     H6 4013   6.344   5.549   0.195 -2.0669 -2.5227 -0.5159
  153ccc     N1 4014   6.303   5.502  -0.209  0.1889 -0.4026 -0.2238
  153ccc     H7 4015   6.216   5.526  -0.161  0.1466 -0.6396 -0.1791
  153ccc     H8 4016   6.284   5.559  -0.292 -1.0362  0.0107  0.3192
  153ccc     O1 4017   6.187   5.499   0.063 -0.4800 -0.4631  0.2178
  154ccc     C1 4018   4.279   4.375  -1.084  0.1080  0.2075 -0.2090
  154ccc     H1 4019   4.284   4.371  -1.194 -1.4605 -2.2616 -0.2748
  154ccc     H2 4020   4.332   4.454  -1.029  0.5961 -1.1009  1.2807
  154ccc     C2 4021   4.129   4.403  -1.041 -0.5139 -0.1188 -0.4597
  154ccc     H3 4022   4.055   4.328  -1.072 -0.1159  0.0101 -1.7722
  154ccc     H4 4023   4.146   4.404  -0.932 -0.1228 -0.6872 -0.5140
  154ccc     C3 4024   4.074   4.539  -1.094  0.3484 -0.8372 -0.5575
  154ccc     H5 4025   3.975   4.548  -1.047 -2.0408 -4.6512 -4.1450
  154ccc     H6 4026   4.062   4.539  -1.203 -1.0909  0.8149 -0.4431
  154ccc     N1 4027   4.320   4.244  -1.035 -0.2410  1.1454 -0.1301
  154ccc     H7 4028   4.274   4.186  -1.105 -0.8299 -0.8126  1.7844
  154ccc     H8 4029   4.413   4.228  -1.074 -0.5998 -2.2994  0.1439
  154ccc     O1 4030   4.163   4.645  -1.047  0.1945 -0.1053 -0.9598
  155ccc     C1 4031   4.332   5.161  -1.877  0.6459  0.1989 -1.3413
  155ccc     H1 4032   4.403   5.185  -1.797  0.5945 -0.6016 -1.0419
  155ccc     H2 4033   4.351   5.057  -1.909  0.2803  0.4565 -2.4497
  155ccc     C2 4034   4.182   5.171  -1.828 -0.2850 -0.1064  0.5553
  155ccc     H3 4035   4.148   5.274  -1.814  0.3989 -0.0428  1.9363
  155ccc     H4 4036   4.118   5.147  -1.914 -0.6482  0.0542  0.7762
  155ccc     C3 4037   4.147   5.086  -1.714 -0.9127  0.5325 -0.2615
  155ccc     H5 4038   4.164   4.983  -1.748 -2.9150  0.0097  0.1906
  155ccc     H6 4039   4.043   5.098  -1.681 -0.8426  0.9060 -0.1712
  155ccc     N1 4040   4.355   5.250  -1.991 -0.1454 -0.3279  0.1721
  155ccc     H7 4041   4.456   5.242  -2.005  0.0584  1.1905  0.6516
  155ccc     H8 4042   4.333   5.168  -2.048  3.9163 -2.1684  0.8528
  155ccc     O1 4043   4.229   5.119  -1.604  0.3794  0.6319  0.0445
  156ccc     C1 4044   4.467   5.821  -1.819 -0.3381 -1.0002  0.1926
  156ccc     H1 4045   4.497   5.748  -1.896 -0.8330 -0.0881 -0.9018
  156ccc     H2 4046   4.359   5.840  -1.820 -0.1098  0.4234 -0.1746
  156ccc     C2 4047   4.507   5.766  -1.678 -0.0313 -0.8065 -0.7725
  156ccc     H3 4048   4.461   5.667  -1.676  0.8034 -1.1856  0.7895
  156ccc     H4 4049   4.612   5.737  -1.681  0.3101  0.2116  0.5662
  156ccc     C3 4050   4.461   5.849  -1.549 -0.0581 -1.1527  0.0659
  156ccc     H5 4051   4.353   5.844  -1.534 -0.0735 -2.1493 -0.2994
  156ccc     H6 4052   4.477   5.954  -1.575 -0.1101 -1.1518  0.0371
  156ccc     N1 4053   4.529   5.951  -1.833  0.3274  0.0738  0.9087
  156ccc     H7 4054   4.491   6.016  -1.764  0.0646 -0.0235  0.8524
  156ccc     H8 4055   4.626   5.941  -1.802  0.8251  0.0767 -0.5402
  156ccc     O1 4056   4.530   5.815  -1.426  0.0994  0.2660  1.3172
  157ccc     C1 4057   5.232   6.456  -1.336  0.0166 -0.2937  0.0179
  157ccc     H1 4058   5.127   6.446  -1.307 -0.1602  2.7708  0.8080
  157ccc     H2 4059   5.292   6.505  -1.258 -0.2592 -2.1374  1.4286
  157ccc     C2 4060   5.308   6.324  -1.375  0.9544  0.4768  0.4312
  157ccc     H3 4061   5.264   6.288  -1.469 -1.0716  2.7843  0.4070
  157ccc     H4 4062   5.415   6.338  -1.396  0.9575 -0.1259  0.0093
  157ccc     C3 4063   5.297   6.212  -1.274  0.7343  1.2230  0.2136
  157ccc     H5 4064   5.338   6.254  -1.182  1.0575  0.9461  0.1970
  157ccc     H6 4065   5.350   6.122  -1.308 -1.7888  0.1267 -1.1013
  157ccc     N1 4066   5.233   6.537  -1.462  0.2148 -0.1235 -0.7832
  157ccc     H7 4067   5.179   6.616  -1.425 -1.0577 -1.9122  1.4600
  157ccc     H8 4068   5.328   6.575  -1.464  0.4746 -0.7294 -0.3919
  157ccc     O1 4069   5.158   6.179  -1.247 -0.5471 -0.3243 -0.0428
  158ccc     C1 4070   5.943   6.414   0.220  0.7204  0.1469  0.2772
  158ccc     H1 4071   5.902   6.516   0.224  0.0032 -0.0985 -0.4417
  158ccc     H2 4072   5.989   6.402   0.319  0.1641 -0.4681  0.4721
  158ccc     C2 4073   5.833   6.302   0.190 -0.8113  0.3412  0.0470
  158ccc     H3 4074   5.792   6.306   0.088 -1.2608 -0.1480  0.2120
  158ccc     H4 4075   5.885   6.206   0.198 -0.4538  0.3267 -1.9042
  158ccc     C3 4076   5.722   6.281   0.292  0.2562  0.4056  0.3468
  158ccc     H5 4077   5.769   6.288   0.391  1.1433 -1.6316  0.1290
  158ccc     H6 4078   5.688   6.179   0.269  0.8013  0.7045 -1.9907
  158ccc     N1 4079   6.056   6.404   0.127 -0.0094  0.6752 -0.3174
  158ccc     H7 4080   6.067   6.303   0.119  0.1957  0.6403  0.3338
  158ccc     H8 4081   6.017   6.451   0.045  1.7573 -1.2436 -2.4004
  158ccc     O1 4082   5.623   6.384   0.283  0.0552  0.1118  0.0639
  159ccc     C1 4083   4.838   6.962   0.498  0.0489 -0.3858  0.3540
  159ccc     H1 4084   4.786   6.943   0.593  0.5805 -1.3569  0.4654
  159ccc     H2 4085   4.943   6.982   0.523  0.0356 -1.1148  1.0394
  159ccc     C2 4086   4.823   6.847   0.404  0.9230 -0.2094  0.7075
  159ccc     H3 4087   4.721   6.834   0.366  1.2641  0.1312 -0.3544
  159ccc     H4 4088   4.888   6.856   0.316 -1.5270  1.8230 -1.0303
  159ccc     C3 4089   4.855   6.717   0.476  0.4893 -0.2923  0.2274
  159ccc     H5 4090   4.793   6.720   0.567 -0.2647  0.5119 -0.2962
  159ccc     H6 4091   4.958   6.722   0.513  0.1291 -1.2368  1.4308
  159ccc     N1 4092   4.782   7.083   0.431  0.3489 -0.6225  0.1028
  159ccc     H7 4093   4.683   7.062   0.448  0.5338 -2.0071 -0.3994
  159ccc     H8 4094   4.800   7.148   0.507 -1.7451  1.2868 -0.9230
  159ccc     O1 4095   4.836   6.600   0.401 -0.5705 -0.1774 -0.3694
  160ccc     C1 4096   4.004   7.824   0.100 -0.0238 -0.4143 -0.5857
  160ccc     H1 4097   3.971   7.757   0.021 -2.6068 -1.0435  0.9068
  160ccc     H2 4098   4.014   7.775   0.198 -2.0794 -2.7510 -1.4404
  160ccc     C2 4099   4.144   7.891   0.074  0.5150 -0.2088 -0.0194
  160ccc     H3 4100   4.165   7.960   0.157 -0.7492  0.0400  0.1126
  160ccc     H4 4101   4.225   7.818   0.083  1.8955  1.1077 -1.2961
  160ccc     C3 4102   4.148   7.970  -0.057 -0.2420 -0.4189 -0.1169
  160ccc     H5 4103   4.246   8.019  -0.051  0.2166 -1.1442 -1.2366
  160ccc     H6 4104   4.073   8.049  -0.064  0.0074 -0.3243 -2.5838
  160ccc     N1 4105   3.893   7.917   0.115 -0.0416  0.4603 -0.1606
  160ccc     H7 4106   3.814   7.853   0.128  0.6618 -0.7042 -1.4128
  160ccc     H8 4107   3.911   7.963   0.204  2.9644  2.4198 -1.6556
  160ccc     O1 4108   4.158   7.891  -0.180  0.3831 -0.0706  0.2028
  161ccc     C1 4109   4.289   7.177  -0.839 -0.2844 -0.0103  0.2124
  161ccc     H1 4110   4.183   7.204  -0.829 -0.5106 -1.3805  1.9021
  161ccc     H2 4111   4.331   7.272  -0.874  0.3251 -0.1939  0.4346
  161ccc     C2 4112   4.351   7.130  -0.707  0.0843 -0.0094  0.3206
  161ccc     H3 4113   4.286   7.053  -0.664  1.3161 -1.0199  0.4270
  161ccc     H4 4114   4.446   7.082  -0.730  0.5818  2.0216 -2.3340
  161ccc     C3 4115   4.354   7.242  -0.601 -0.3781 -1.0233  0.4526
  161ccc     H5 4116   4.436   7.313  -0.622 -1.2989  0.3699  1.3676
  161ccc     H6 4117   4.372   7.195  -0.504  0.7529 -0.3861  0.5726
  161ccc     N1 4118   4.308   7.097  -0.955  0.2805 -0.1151 -0.0440
  161ccc     H7 4119   4.226   7.037  -0.959  0.7774 -0.7527 -1.1350
  161ccc     H8 4120   4.289   7.155  -1.037 -0.3450  0.0034  0.1777
  161ccc     O1 4121   4.224   7.319  -0.596  0.3543  0.2998  0.4685
  162ccc     C1 4122   5.561   6.133   0.711  0.2654 -0.1923  0.1008
  162ccc     H1 4123   5.536   6.190   0.621 -0.8829  0.4244  0.7876
  162ccc     H2 4124   5.473   6.108   0.770 -1.8784 -0.9993 -3.1775
  162ccc     C2 4125   5.626   6.005   0.656  0.0442 -0.3872 -0.2509
  162ccc     H3 4126   5.706   6.038   0.588  0.2092 -0.0523  0.1017
  162ccc     H4 4127   5.671   5.960   0.745  1.9726  4.2171  1.3806
  162ccc     C3 4128   5.526   5.905   0.587 -0.1497 -0.6945 -0.5772
  162ccc     H5 4129   5.440   5.904   0.655  0.1494  1.2290 -0.1278
  162ccc     H6 4130   5.566   5.803   0.579  0.2564 -0.6188  0.4047
  162ccc     N1 4131   5.654   6.216   0.789 -0.1814  0.7920  0.1855
  162ccc     H7 4132   5.587   6.283   0.828 -2.7583 -0.5805 -1.5845
  162ccc     H8 4133   5.684   6.158   0.868 -0.1134 -2.0329 -1.7692
  162ccc     O1 4134   5.484   5.957   0.465  0.5619  0.2779  0.0897
  163ccc     C1 4135   5.951   6.039   0.424 -0.7161 -0.3258  0.1318
  163ccc     H1 4136   6.006   6.124   0.381 -0.3275 -0.4385  0.4066
  163ccc     H2 4137   5.845   6.064   0.435 -0.5197  1.7434 -1.7792
  163ccc     C2 4138   5.970   5.908   0.337 -0.4615 -0.3365  0.6177
  163ccc     H3 4139   6.072   5.869   0.348 -0.3457 -0.0766  0.4724
  163ccc     H4 4140   5.913   5.822   0.375 -0.3925 -1.4925 -1.7227
  163ccc     C3 4141   5.949   5.918   0.182  0.1001  0.4733 -0.2791
  163ccc     H5 4142   5.963   5.825   0.125 -1.6664 -0.8816  1.3399
  163ccc     H6 4143   6.022   5.987   0.140  0.8672  0.3156  0.7404
  163ccc     N1 4144   6.009   6.018   0.552  0.0481  0.5660  0.1246
  163ccc     H7 4145   5.959   6.089   0.607 -1.2040 -1.8440  2.3174
  163ccc     H8 4146   5.975   5.931   0.593  1.1807  0.0894  0.0966
  163ccc     O1 4147   5.816   5.969   0.151  0.0662  0.3961 -0.3794
  164ccc     C1 4148   5.289   5.325  -1.744 -0.3324 -0.4650 -0.0605
  164ccc     H1 4149   5.251   5.337  -1.642  0.6880  0.5396  0.2146
  164ccc     H2 4150   5.309   5.424  -1.788 -3.5478  0.2730 -0.1377
  164ccc     C2 4151   5.422   5.254  -1.723 -0.0918 -0.2634 -0.3584
  164ccc     H3 4152   5.415   5.174  -1.649 -4.3209 -0.1452 -0.4164
  164ccc     H4 4153   5.444   5.202  -1.818 -4.7517 -1.7997 -0.8325
  164ccc     C3 4154   5.534   5.354  -1.685  0.5757  0.7268  0.5941
  164ccc     H5 4155   5.541   5.426  -1.767  0.9703  1.7353  1.4903
  164ccc     H6 4156   5.630   5.302  -1.677  0.7893  1.1947  1.0802
  164ccc     N1 4157   5.197   5.244  -1.828 -0.2534 -0.6241 -0.3253
  164ccc     H7 4158   5.110   5.291  -1.849  1.1902  1.6733 -1.6485
  164ccc     H8 4159   5.237   5.236  -1.922 -4.1033  1.5406 -2.3694
  164ccc     O1 4160   5.493   5.432  -1.563 -0.3149 -0.3877  0.7618
  165ccc     C1 4161   5.959   5.075  -0.998 -0.2026  0.4732  0.7711
  165ccc     H1 4162   5.905   5.114  -1.085 -1.9717  0.3506  1.7674
  165ccc     H2 4163   5.993   5.163  -0.943 -2.7089  1.3473  1.0363
  165ccc     C2 4164   5.854   5.004  -0.908 -0.4114  0.2402 -0.2251
  165ccc     H3 4165   5.791   4.933  -0.963 -1.7088 -0.0061  1.4806
  165ccc     H4 4166   5.905   4.951  -0.827 -0.1732 -2.4944 -2.0293
  165ccc     C3 4167   5.764   5.112  -0.840 -0.3279  0.7585 -0.5846
  165ccc     H5 4168   5.823   5.181  -0.780  0.8921 -0.9423  0.2701
  165ccc     H6 4169   5.696   5.056  -0.775  2.8208 -2.0162  0.5888
  165ccc     N1 4170   6.065   4.981  -1.051  0.5568 -0.7464 -0.0675
  165ccc     H7 4171   6.129   5.040  -1.103 -1.4313  0.6548 -1.0830
  165ccc     H8 4172   6.116   4.950  -0.968  1.6146  1.7936  0.3485
  165ccc     O1 4173   5.701   5.185  -0.948 -0.4471  0.4238 -0.1625
  166ccc     C1 4174   4.460   4.772   1.685  0.4568  0.4635  0.5767
  166ccc     H1 4175   4.556   4.825   1.687 -0.6321  2.5144  0.8744
  166ccc     H2 4176   4.394   4.802   1.767  0.5277  1.0817  0.4101
  166ccc     C2 4177   4.389   4.795   1.553  0.4494 -0.0206  0.6230
  166ccc     H3 4178   4.458   4.780   1.470  0.2919 -0.2222  0.5277
  166ccc     H4 4179   4.302   4.728   1.544 -0.4334  1.2232 -0.4589
  166ccc     C3 4180   4.315   4.933   1.549  0.2493  0.6578  0.2834
  166ccc     H5 4181   4.288   4.976   1.646 -1.0363  4.3706 -1.4911
  166ccc     H6 4182   4.223   4.916   1.492 -0.6589  0.3778  1.7979
  166ccc     N1 4183   4.491   4.624   1.705 -0.1547  0.1098 -0.3536
  166ccc     H7 4184   4.540   4.623   1.794 -1.0885 -0.9488  0.1664
  166ccc     H8 4185   4.400   4.584   1.724 -0.4095 -0.0340 -1.7198
  166ccc     O1 4186   4.393   5.040   1.493 -0.0211 -0.4208  0.0735
  167ccc     C1 4187   4.073   4.977   2.049  0.6937 -0.5494  0.4258
  167ccc     H1 4188   4.062   5.062   2.118 -0.6807 -1.1069  0.9099
  167ccc     H2 4189   4.053   5.031   1.956  0.4635  1.5628  1.6348
  167ccc     C2 4190   4.209   4.911   2.059 -0.7172  0.3492  0.2422
  167ccc     H3 4191   4.216   4.832   2.135 -1.2674 -1.8403 -1.8651
  167ccc     H4 4192   4.211   4.847   1.970 -1.0600  0.5204  0.1094
  167ccc     C3 4193   4.333   5.011   2.065 -0.6094  0.1739  0.8453
  167ccc     H5 4194   4.420   4.978   2.124 -0.4916 -0.0672  0.5416
  167ccc     H6 4195   4.289   5.093   2.123  0.5392 -0.0900  2.1448
  167ccc     N1 4196   3.963   4.886   2.078 -0.6230  0.2919 -0.0422
  167ccc     H7 4197   3.993   4.832   2.160 -1.4541  1.2603  0.9235
  167ccc     H8 4198   3.886   4.943   2.112 -0.6211  0.9870 -1.1806
  167ccc     O1 4199   4.363   5.057   1.933 -0.3302  0.0449 -0.1492
  168ccc     C1 4200   3.948   5.780   0.967  0.0002 -0.2534 -0.6026
  168ccc     H1 4201   3.852   5.752   1.010  0.8811  1.0936  2.5439
  168ccc     H2 4202   3.933   5.823   0.867 -2.3900  0.9271  0.1967
  168ccc     C2 4203   4.007   5.887   1.065 -0.2158 -0.6602  1.0989
  168ccc     H3 4204   4.003   5.836   1.162 -0.3311 -0.1895  1.3467
  168ccc     H4 4205   4.112   5.909   1.042 -0.8646  1.5256  0.0076
  168ccc     C3 4206   3.919   6.012   1.070  0.2439 -0.5303 -0.2822
  168ccc     H5 4207   3.835   6.004   1.141  0.2925  1.2914  0.0430
  168ccc     H6 4208   3.876   6.027   0.970 -0.5496 -0.6609  0.0290
  168ccc     N1 4209   4.038   5.669   0.971  0.1160  0.4056  0.1279
  168ccc     H7 4210   4.060   5.671   1.071  0.4051  3.0610  0.0717
  168ccc     H8 4211   3.993   5.578   0.962  2.5568 -0.9297  0.3915
  168ccc     O1 4212   3.994   6.130   1.103 -0.1239 -0.0723  0.0214
  169ccc     C1 4213   4.110   7.271   1.396 -0.4415 -0.7026 -0.2831
  169ccc     H1 4214   4.194   7.200   1.395 -0.1497 -0.4142 -2.4143
  169ccc     H2 4215   4.079   7.285   1.292 -1.2396 -0.0748  0.0318
  169ccc     C2 4216   3.999   7.223   1.484  0.5906 -0.0007  0.0271
  169ccc     H3 4217   4.025   7.232   1.590  1.8321  1.0676 -0.3506
  169ccc     H4 4218   3.915   7.294   1.483 -0.0824 -0.7832 -0.6196
  169ccc     C3 4219   3.951   7.081   1.447  0.0777  0.6214  0.1147
  169ccc     H5 4220   3.880   7.092   1.363 -1.2196 -0.1993  1.0633
  169ccc     H6 4221   3.898   7.035   1.531  1.4273 -2.1588 -0.4425
  169ccc     N1 4222   4.171   7.398   1.427 -0.5025  0.2266 -0.2763
  169ccc     H7 4223   4.234   7.408   1.348  1.0382 -2.2025  0.5503
  169ccc     H8 4224   4.090   7.455   1.403 -1.1614 -0.4746  0.2491
  169ccc     O1 4225   4.066   6.995   1.406  0.1305 -0.6802  0.0991
  170ccc     C1 4226   4.946   5.255   2.114 -1.0195 -0.6103  0.5369
  170ccc     H1 4227   4.993   5.335   2.056 -1.8405  1.1434  2.1641
  170ccc     H2 4228   4.874   5.191   2.061 -1.3318 -0.8236  1.2044
  170ccc     C2 4229   5.054   5.171   2.172 -0.4621  0.4671  0.2800
  170ccc     H3 4230   5.112   5.237   2.237  0.8128 -0.4211  0.0787
  170ccc     H4 4231   5.015   5.090   2.235  1.7213  0.4699  1.7120
  170ccc     C3 4232   5.152   5.098   2.077 -0.6959  0.1288  1.0285
  170ccc     H5 4233   5.106   5.002   2.051  0.2501 -0.2676  0.7781
  170ccc     H6 4234   5.251   5.073   2.118 -0.3007  1.4467  0.8991
  170ccc     N1 4235   4.864   5.328   2.216  1.0065  0.5412 -0.4388
  170ccc     H7 4236   4.768   5.323   2.183  1.4204  0.2764 -1.6537
  170ccc     H8 4237   4.860   5.261   2.292 -4.0519 -0.5661 -1.3502
  170ccc     O1 4238   5.179   5.173   1.959 -0.0118 -0.3491 -0.2110
  171ccc     C1 4239   6.083   5.993   1.713 -0.3442  0.4543  0.3164
  171ccc     H1 4240   6.031   6.089   1.725 -1.2353 -0.0061  0.2130
  171ccc     H2 4241   6.151   5.979   1.798  0.6685 -0.7181 -0.6624
  171ccc     C2 4242   5.984   5.874   1.719 -0.0436  0.4718  0.1126
  171ccc     H3 4243   5.910   5.901   1.643  0.8583 -0.9548 -1.3274
  171ccc     H4 4244   6.030   5.778   1.694  0.7432  0.0111  2.9794
  171ccc     C3 4245   5.925   5.840   1.858 -0.2136 -0.6946  0.3672
  171ccc     H5 4246   5.892   5.922   1.923 -0.8015 -1.4635  1.0605
  171ccc     H6 4247   6.008   5.789   1.909  0.6464  0.8894  0.6202
  171ccc     N1 4248   6.154   6.000   1.591  0.4435 -0.4391  0.1985
  171ccc     H7 4249   6.239   6.051   1.616 -0.4039  0.5765  1.0852
  171ccc     H8 4250   6.193   5.906   1.582  3.5894  0.7416  0.1864
  171ccc     O1 4251   5.810   5.748   1.847  0.0772  0.0094  0.1664
  172ccc     C1 4252   4.568   4.532   2.046 -0.2871  0.7446 -0.1905
  172ccc     H1 4253   4.612   4.514   1.947 -1.9626 -0.9032 -0.6892
  172ccc     H2 4254   4.608   4.471   2.127 -0.0093  2.8527  1.3415
  172ccc     C2 4255   4.593   4.683   2.090 -0.9524  0.0970  0.4228
  172ccc     H3 4256   4.524   4.744   2.031 -1.2514 -0.2480  0.4140
  172ccc     H4 4257   4.575   4.695   2.198  1.3380 -0.4007  0.9255
  172ccc     C3 4258   4.747   4.715   2.072  0.2272 -0.0691 -0.5765
  172ccc     H5 4259   4.799   4.629   2.117 -0.7819 -1.6675 -2.3422
  172ccc     H6 4260   4.772   4.801   2.135 -1.9996  0.1265  0.1266
  172ccc     N1 4261   4.432   4.492   2.021  0.2029  0.5199 -0.2792
  172ccc     H7 4262   4.402   4.509   1.925 -0.8443 -0.7069 -0.1946
  172ccc     H8 4263   4.435   4.391   2.034 -0.1399  0.8023  2.6913
  172ccc     O1 4264   4.784   4.725   1.935 -0.5805 -0.2128  0.6924
  173ccc     C1 4265   4.944   5.618   2.052 -0.2890  0.4268  0.6497
  173ccc     H1 4266   4.849   5.563   2.058  0.5723 -1.0537  1.3229
  173ccc     H2 4267   5.013   5.538   2.082 -2.4662 -2.1663 -0.7558
  173ccc     C2 4268   4.964   5.680   1.913 -0.5776  0.0574  0.2580
  173ccc     H3 4269   4.883   5.749   1.888 -1.3753 -0.3983  1.4757
  173ccc     H4 4270   5.050   5.747   1.903 -1.4881  1.1331 -0.6681
  173ccc     C3 4271   4.980   5.580   1.802  0.5826  0.7016 -0.3775
  173ccc     H5 4272   5.065   5.513   1.815  0.4899  0.1633 -2.2730
  173ccc     H6 4273   5.000   5.637   1.711  1.5115 -0.6387 -1.0417
  173ccc     N1 4274   4.935   5.714   2.154 -0.0313 -0.3650 -0.3375
  173ccc     H7 4275   4.950   5.662   2.241  2.3456  0.7138 -0.0257
  173ccc     H8 4276   5.020   5.770   2.154 -0.4317  0.2631 -1.0627
  173ccc     O1 4277   4.865   5.491   1.798  0.2202  0.3466  0.8847
  174ccc     C1 4278   2.206   5.913   1.743  0.4630 -0.5361  0.1928
  174ccc     H1 4279   2.304   5.906   1.792  1.0703 -0.2970 -0.9523
  174ccc     H2 4280   2.204   6.013   1.698  1.0411 -0.0580  1.1904
  174ccc     C2 4281   2.199   5.793   1.646 -0.4863 -1.2332 -0.4847
  174ccc     H3 4282   2.211   5.699   1.701  3.7727 -1.0631 -0.7919
  174ccc     H4 4283   2.098   5.795   1.603 -0.8289 -0.0029  0.3474
  174ccc     C3 4284   2.311   5.774   1.544 -0.0099 -0.3130 -0.6539
  174ccc     H5 4285   2.302   5.673   1.502 -0.2260 -0.1862 -0.9156
  174ccc     H6 4286   2.409   5.781   1.593 -0.3324  1.7940 -0.2081
  174ccc     N1 4287   2.099   5.895   1.842  0.0250 -0.2623 -0.2580
  174ccc     H7 4288   2.107   5.799   1.875 -1.1725 -0.3820 -0.2717
  174ccc     H8 4289   2.135   5.946   1.923 -2.4034 -0.3202  0.9752
  174ccc     O1 4290   2.303   5.880   1.445  0.2605  0.1234  0.1729
  175ccc     C1 4291   2.779   6.258   1.804  0.7338  0.0310  0.0054
  175ccc     H1 4292   2.828   6.314   1.723  0.1370  1.2664  0.4659
  175ccc     H2 4293   2.681   6.305   1.822  0.3357 -0.9784  0.5473
  175ccc     C2 4294   2.751   6.108   1.774  0.5864 -0.8643  0.1596
  175ccc     H3 4295   2.852   6.071   1.756  1.0889  1.0558 -1.2576
  175ccc     H4 4296   2.720   6.065   1.871  0.5708  0.7173  0.8950
  175ccc     C3 4297   2.646   6.091   1.660 -0.0421  0.5100 -0.1108
  175ccc     H5 4298   2.545   6.128   1.678 -0.1262 -0.0400  0.5842
  175ccc     H6 4299   2.634   5.982   1.661  0.4499  0.4579  0.8478
  175ccc     N1 4300   2.856   6.277   1.923 -0.5128  0.2018  0.0224
  175ccc     H7 4301   2.952   6.277   1.890 -1.0253 -1.6475 -1.6775
  175ccc     H8 4302   2.848   6.375   1.952  0.0404 -0.4719  2.7227
  175ccc     O1 4303   2.709   6.142   1.544 -0.2385 -0.2998  0.0206
  176ccc     C1 4304   1.870   4.679   0.065  0.2995 -0.2790  0.3302
  176ccc     H1 4305   1.864   4.784   0.036  1.1769  0.2767  2.0260
  176ccc     H2 4306   1.820   4.629  -0.019 -0.0484  1.2785 -0.4288
  176ccc     C2 4307   2.021   4.624   0.069  0.0942 -0.8716 -0.2587
  176ccc     H3 4308   2.028   4.518   0.097 -0.5534 -1.7940 -3.2099
  176ccc     H4 4309   2.064   4.636  -0.031  0.4888  0.3152  0.0409
  176ccc     C3 4310   2.113   4.712   0.162  0.5950 -0.3384  0.1183
  176ccc     H5 4311   2.218   4.680   0.159  0.2211 -1.7056  0.7371
  176ccc     H6 4312   2.069   4.698   0.262  0.0794 -1.0714 -0.2043
  176ccc     N1 4313   1.793   4.663   0.185 -0.5379 -0.2756 -0.0643
  176ccc     H7 4314   1.850   4.718   0.249 -0.4935 -0.4947  0.0869
  176ccc     H8 4315   1.711   4.723   0.175 -0.8078 -0.0283  2.7214
  176ccc     O1 4316   2.099   4.842   0.106  0.2624 -0.3521  0.4747
  177ccc     C1 4317   1.692   5.687   0.170 -0.5405  0.0960 -0.6644
  177ccc     H1 4318   1.690   5.700   0.279 -0.5593 -0.4693 -0.5921
  177ccc     H2 4319   1.723   5.784   0.129  0.8555 -0.3376 -0.6681
  177ccc     C2 4320   1.798   5.576   0.148  0.5426 -0.1175  0.1746
  177ccc     H3 4321   1.892   5.605   0.198  0.3834  0.2105  0.2865
  177ccc     H4 4322   1.763   5.479   0.184 -1.1601 -0.5321 -2.3476
  177ccc     C3 4323   1.816   5.561   0.000 -0.2826 -0.5171  0.4029
  177ccc     H5 4324   1.848   5.654  -0.049  1.5561 -1.5599 -0.4483
  177ccc     H6 4325   1.734   5.517  -0.059  0.0607 -2.7526  1.4945
  177ccc     N1 4326   1.559   5.648   0.128 -0.7723  0.4881 -0.4730
  177ccc     H7 4327   1.540   5.558   0.171 -0.5061 -0.5612 -2.4139
  177ccc     H8 4328   1.498   5.716   0.173 -0.7767  0.0615  0.1768
  177ccc     O1 4329   1.915   5.459  -0.014 -0.1112 -0.7705  0.1123
  178ccc     C1 4330   1.863   6.571   1.737 -0.1624  0.1370  0.8475
  178ccc     H1 4331   1.829   6.484   1.679 -1.0058  1.3812 -0.5930
  178ccc     H2 4332   1.936   6.540   1.813  0.6432 -0.0778  0.0056
  178ccc     C2 4333   1.920   6.681   1.645 -0.9177 -0.2361  0.1405
  178ccc     H3 4334   1.842   6.752   1.616  0.6136  1.1548 -0.7154
  178ccc     H4 4335   1.987   6.737   1.712 -0.3851  0.1498 -0.6872
  178ccc     C3 4336   1.990   6.629   1.511 -0.0049  0.0637  0.7975
  178ccc     H5 4337   1.921   6.552   1.475  0.3866 -0.9919  2.1830
  178ccc     H6 4338   2.080   6.575   1.545  0.1155 -0.4565 -0.3144
  178ccc     N1 4339   1.749   6.621   1.812 -0.2167  0.0502  0.2789
  178ccc     H7 4340   1.746   6.572   1.902 -2.0714  0.7310  0.6353
  178ccc     H8 4341   1.771   6.719   1.830 -0.3349  0.5968 -2.2102
  178ccc     O1 4342   2.023   6.742   1.426  0.3051 -0.9777 -0.2631
  179ccc     C1 4343   1.500   7.506   1.021 -0.3674  1.3482 -0.0329
  179ccc     H1 4344   1.482   7.547   0.921  0.4798  1.4135 -0.1682
  179ccc     H2 4345   1.427   7.544   1.093 -1.5696 -0.4061 -0.2587
  179ccc     C2 4346   1.514   7.349   1.016 -0.2292  0.5231 -0.0487
  179ccc     H3 4347   1.494   7.296   1.110 -3.3013  1.6801  0.0856
  179ccc     H4 4348   1.423   7.321   0.960  0.1911 -1.4231  0.1542
  179ccc     C3 4349   1.639   7.303   0.935 -0.0111  0.4031  0.2890
  179ccc     H5 4350   1.724   7.307   1.003  0.4563 -0.6333 -0.2195
  179ccc     H6 4351   1.661   7.364   0.847 -1.8339 -1.3345 -1.4754
  179ccc     N1 4352   1.626   7.558   1.062 -0.4199  0.5410  0.4081
  179ccc     H7 4353   1.700   7.506   1.016  0.8618  1.1194  1.7585
  179ccc     H8 4354   1.632   7.657   1.037 -1.8694  0.1590 -1.8324
  179ccc     O1 4355   1.608   7.167   0.901 -0.4742 -0.5589 -0.7852
  180ccc     C1 4356   2.617   7.107  -0.668  0.2691  0.0717 -0.1022
  180ccc     H1 4357   2.528   7.171  -0.665 -0.4764 -0.9754  1.5894
  180ccc     H2 4358   2.707   7.169  -0.681  1.6941 -1.8300  0.3079
  180ccc     C2 4359   2.619   7.001  -0.554 -0.6543  0.0908 -0.6688
  180ccc     H3 4360   2.516   6.963  -0.548 -0.6783  0.2863  0.3622
  180ccc     H4 4361   2.692   6.922  -0.575 -1.0009 -0.5601  0.4755
  180ccc     C3 4362   2.651   7.072  -0.414 -0.0519 -0.4335  0.8475
  180ccc     H5 4363   2.572   7.145  -0.392 -0.2308  0.0296 -1.1793
  180ccc     H6 4364   2.747   7.124  -0.426 -1.8884  2.9471 -0.3440
  180ccc     N1 4365   2.619   7.033  -0.797 -0.0201  0.1973  0.0907
  180ccc     H7 4366   2.637   7.106  -0.866 -1.5349  1.0212  0.5002
  180ccc     H8 4367   2.709   6.986  -0.800 -0.0620  0.1551 -2.3122
  180ccc     O1 4368   2.659   6.977  -0.305 -0.3262 -0.1796  0.6581
  181ccc     C1 4369   3.037   7.238  -0.686 -0.0518 -0.4152 -0.0561
  181ccc     H1 4370   2.958   7.292  -0.632 -0.7050 -1.6555  0.2704
  181ccc     H2 4371   3.121   7.302  -0.718  1.6220 -2.2036  0.5850
  181ccc     C2 4372   3.082   7.139  -0.576 -0.7464 -0.7301  0.3884
  181ccc     H3 4373   2.995   7.105  -0.519 -1.1663 -0.5244 -0.1193
  181ccc     H4 4374   3.138   7.058  -0.625  1.1718  1.4232 -1.1794
  181ccc     C3 4375   3.184   7.204  -0.485 -0.3589 -0.6306  0.6349
  181ccc     H5 4376   3.150   7.302  -0.448 -0.5824 -0.0324 -1.0936
  181ccc     H6 4377   3.272   7.232  -0.544 -1.1137  3.3134  1.0533
  181ccc     N1 4378   2.991   7.175  -0.806  0.1300  0.5933  0.0944
  181ccc     H7 4379   2.963   7.254  -0.864  2.4187  1.6930  0.3529
  181ccc     H8 4380   3.072   7.135  -0.854 -1.2621 -0.2714 -1.6500
  181ccc     O1 4381   3.219   7.121  -0.375 -0.0171  0.2118 -0.1814
  182ccc     C1 4382   3.395   4.634   1.896 -0.4674  0.4816  0.4802
  182ccc     H1 4383   3.422   4.684   1.803  0.6133 -1.7252 -0.4596
  182ccc     H2 4384   3.454   4.674   1.980 -1.1722 -2.5940  2.6327
  182ccc     C2 4385   3.240   4.661   1.910 -0.2572  0.0301 -0.1624
  182ccc     H3 4386   3.182   4.627   1.823 -1.9887 -0.8378  1.2691
  182ccc     H4 4387   3.194   4.611   1.996 -1.0572  0.5382 -0.2819
  182ccc     C3 4388   3.206   4.810   1.934 -0.8348  0.0753  0.6957
  182ccc     H5 4389   3.098   4.825   1.948 -0.5752  0.1392  3.1032
  182ccc     H6 4390   3.241   4.872   1.851 -0.3113 -1.6298 -0.4099
  182ccc     N1 4391   3.428   4.494   1.879  0.2160 -0.3387 -0.0830
  182ccc     H7 4392   3.444   4.458   1.973  1.0983  1.4384  0.4805
  182ccc     H8 4393   3.338   4.450   1.858  0.5117  0.3983 -3.5668
  182ccc     O1 4394   3.275   4.840   2.060 -0.6393 -0.0768  0.0071
  183ccc     C1 4395   3.482   4.636   2.265 -0.4919  0.3588  0.3762
  183ccc     H1 4396   3.498   4.736   2.221 -0.1318  0.0291 -0.2509
  183ccc     H2 4397   3.530   4.566   2.196 -0.1666 -0.4994  1.4626
  183ccc     C2 4398   3.562   4.637   2.395 -0.1464 -0.3580 -0.5316
  183ccc     H3 4399   3.553   4.533   2.429 -0.6287  0.1153  0.8452
  183ccc     H4 4400   3.669   4.662   2.390  0.3786 -1.5335  2.5618
  183ccc     C3 4401   3.515   4.732   2.508  0.0468  0.4752 -0.2367
  183ccc     H5 4402   3.596   4.763   2.575 -1.0244 -1.1543  1.9493
  183ccc     H6 4403   3.447   4.675   2.573  0.3355  0.7759  0.3418
  183ccc     N1 4404   3.335   4.617   2.283  0.2607  0.5477 -0.5497
  183ccc     H7 4405   3.308   4.676   2.362 -4.8962 -0.5144 -1.1778
  183ccc     H8 4406   3.287   4.662   2.206 -1.1808 -1.5018 -0.9007
  183ccc     O1 4407   3.455   4.852   2.453 -0.3068 -0.3735 -0.0713
  184ccc     C1 4408   3.703   5.254   2.541  0.4949 -0.8594  0.8609
  184ccc     H1 4409   3.681   5.155   2.498  1.3385 -0.0653 -1.5772
  184ccc     H2 4410   3.812   5.270   2.547  0.7269 -2.4328  1.3504
  184ccc     C2 4411   3.645   5.373   2.455  0.2863  0.4319 -0.0887
  184ccc     H3 4412   3.672   5.359   2.349 -0.4449  2.1850 -0.5361
  184ccc     H4 4413   3.535   5.371   2.451  0.1856 -4.2902 -0.4402
  184ccc     C3 4414   3.712   5.510   2.485  0.5848  0.5626 -0.0642
  184ccc     H5 4415   3.820   5.496   2.475  0.4280 -1.2896  0.5204
  184ccc     H6 4416   3.700   5.536   2.591 -1.8655 -1.4921  0.2415
  184ccc     N1 4417   3.660   5.252   2.681 -0.4256  0.4834 -0.4985
  184ccc     H7 4418   3.725   5.186   2.722 -0.6822  0.2808 -0.4183
  184ccc     H8 4419   3.691   5.344   2.714  0.0670 -0.0408  0.5431
  184ccc     O1 4420   3.646   5.613   2.398  0.2017  0.2933  0.3453
  185ccc     C1 4421   3.671   6.391   2.900 -0.3251 -0.4034 -0.0664
  185ccc     H1 4422   3.710   6.362   2.999 -0.2767 -0.0313  0.0235
  185ccc     H2 4423   3.582   6.450   2.925 -1.2910 -2.0808  0.6815
  185ccc     C2 4424   3.783   6.474   2.836 -0.0779 -0.6837  0.1933
  185ccc     H3 4425   3.802   6.557   2.904 -0.3885 -0.0785 -0.4509
  185ccc     H4 4426   3.880   6.423   2.827  0.0244 -0.2674 -1.3858
  185ccc     C3 4427   3.735   6.522   2.699  0.6842 -0.5034 -0.6943
  185ccc     H5 4428   3.804   6.595   2.655  1.2717 -0.5810  0.0818
  185ccc     H6 4429   3.638   6.573   2.699  0.6409 -0.5799 -0.0990
  185ccc     N1 4430   3.643   6.264   2.839  0.2536  0.2376  0.2351
  185ccc     H7 4431   3.664   6.273   2.740  1.1127 -0.1302  0.3710
  185ccc     H8 4432   3.723   6.207   2.868 -0.2954 -2.8073 -3.4873
  185ccc     O1 4433   3.728   6.415   2.612 -0.3145  0.4671  0.4923
  186ccc     C1 4434   3.669   6.647   0.583  0.0093 -0.0196  0.2684
  186ccc     H1 4435   3.725   6.561   0.623  0.3452  0.3173  0.5276
  186ccc     H2 4436   3.725   6.737   0.611 -0.9292  0.1267  1.7666
  186ccc     C2 4437   3.671   6.654   0.429  0.1971  0.1636  1.0427
  186ccc     H3 4438   3.613   6.570   0.391  1.0157  0.0832 -0.0698
  186ccc     H4 4439   3.610   6.736   0.388 -2.0375 -1.6080  0.6324
  186ccc     C3 4440   3.819   6.643   0.374 -0.0255  0.6674 -0.4755
  186ccc     H5 4441   3.863   6.740   0.398 -2.6118  1.9446 -0.5278
  186ccc     H6 4442   3.816   6.620   0.266  0.2872 -2.5591  0.0973
  186ccc     N1 4443   3.537   6.659   0.638  0.4378 -0.2962 -0.0430
  186ccc     H7 4444   3.491   6.571   0.618  0.4100 -0.1547 -0.6522
  186ccc     H8 4445   3.554   6.667   0.738  0.5289  1.1410 -0.1472
  186ccc     O1 4446   3.892   6.540   0.429  0.2042  0.9806 -1.0249
  187ccc     C1 4447   3.498   5.523   0.705  0.5792 -0.2915 -0.1937
  187ccc     H1 4448   3.392   5.553   0.707  0.3064 -1.0677 -1.3730
  187ccc     H2 4449   3.542   5.529   0.605 -0.4557 -0.0258 -0.6500
  187ccc     C2 4450   3.590   5.599   0.805  0.5582  0.5023  0.2621
  187ccc     H3 4451   3.544   5.582   0.903 -1.0248  1.2732 -0.3045
  187ccc     H4 4452   3.690   5.556   0.818 -0.0724 -0.5199  2.0213
  187ccc     C3 4453   3.589   5.753   0.773 -0.1835 -0.6249  0.2269
  187ccc     H5 4454   3.610   5.809   0.865 -1.8845 -1.3345  1.0894
  187ccc     H6 4455   3.485   5.772   0.742  0.5784 -0.5984 -2.6513
  187ccc     N1 4456   3.502   5.382   0.730 -0.1027  0.4092  0.4440
  187ccc     H7 4457   3.444   5.371   0.813  0.7615  1.1950  1.1837
  187ccc     H8 4458   3.447   5.335   0.660  2.0488 -0.5802 -0.6740
  187ccc     O1 4459   3.664   5.785   0.657  0.0642 -0.0236 -0.2418
  188ccc     C1 4460   5.253   6.764   0.549  0.9456  0.0648 -0.3833
  188ccc     H1 4461   5.314   6.739   0.462 -1.1680 -1.8283 -1.4285
  188ccc     H2 4462   5.159   6.805   0.510  1.3464  1.1038 -0.2771
  188ccc     C2 4463   5.225   6.643   0.644  0.1622 -0.5090  0.1141
  188ccc     H3 4464   5.176   6.573   0.576  1.2900 -1.2491  0.0489
  188ccc     H4 4465   5.326   6.612   0.673  0.8890 -0.5563 -2.2600
  188ccc     C3 4466   5.154   6.675   0.780 -0.1257  0.3983  0.3446
  188ccc     H5 4467   5.194   6.768   0.822 -0.6457  0.6755  0.2368
  188ccc     H6 4468   5.176   6.593   0.848  1.0662 -0.1434 -0.6562
  188ccc     N1 4469   5.308   6.879   0.617  0.5378  0.3954  0.1530
  188ccc     H7 4470   5.301   6.949   0.543 -1.3109  0.5064  0.3871
  188ccc     H8 4471   5.230   6.917   0.671 -0.1695  0.6384 -1.0200
  188ccc     O1 4472   5.014   6.683   0.758  0.5590 -0.7264  0.3743
  189ccc     C1 4473   4.817   6.922   1.849  0.2142  0.3102  0.5638
  189ccc     H1 4474   4.793   7.023   1.882 -2.2332  0.1070 -0.3362
  189ccc     H2 4475   4.720   6.872   1.836  1.1861 -1.2402 -1.3532
  189ccc     C2 4476   4.895   6.918   1.713  0.2311  0.0191  0.4663
  189ccc     H3 4477   4.982   6.985   1.709  0.3687 -0.2121 -1.4374
  189ccc     H4 4478   4.933   6.817   1.689  0.4174 -0.0203  0.9188
  189ccc     C3 4479   4.805   6.949   1.594 -0.3906 -0.9018  0.3757
  189ccc     H5 4480   4.775   7.054   1.606 -0.9271 -0.9130 -0.7461
  189ccc     H6 4481   4.717   6.885   1.602 -0.3726 -0.7227  2.7179
  189ccc     N1 4482   4.905   6.854   1.948 -0.3389 -0.3961  0.6523
  189ccc     H7 4483   4.986   6.915   1.937  1.5645 -2.9044  0.1274
  189ccc     H8 4484   4.861   6.881   2.036 -1.4161 -0.8647  0.2829
  189ccc     O1 4485   4.879   6.933   1.477  0.1953  0.0898 -0.3328
  190ccc     C1 4486   3.187   7.566   0.540 -0.3263 -0.7614  0.2793
  190ccc     H1 4487   3.144   7.660   0.578  1.7984  0.5651 -0.4204
  190ccc     H2 4488   3.190   7.478   0.604  3.8411 -1.1198 -0.1148
  190ccc     C2 4489   3.101   7.524   0.422 -0.9598  0.2794  0.0451
  190ccc     H3 4490   3.116   7.595   0.339  1.0225 -0.3268 -0.1530
  190ccc     H4 4491   3.134   7.424   0.392  0.0971  0.7270 -0.3653
  190ccc     C3 4492   2.958   7.514   0.476 -0.4027  0.5070  0.3881
  190ccc     H5 4493   2.931   7.611   0.519  1.0730  1.4618 -0.7366
  190ccc     H6 4494   2.955   7.436   0.553  0.2394  0.7814  0.7051
  190ccc     N1 4495   3.327   7.589   0.502 -0.2132 -0.0145 -0.1892
  190ccc     H7 4496   3.373   7.641   0.576  2.2305  0.2805 -1.8197
  190ccc     H8 4497   3.371   7.497   0.505 -3.0971 -1.5124  0.3791
  190ccc     O1 4498   2.876   7.477   0.359 -0.7542  0.4052 -0.5755
  191ccc     C1 4499   3.263   7.471  -0.200  0.1676 -0.1869  0.6619
  191ccc     H1 4500   3.289   7.396  -0.124 -1.2185  0.2750  1.6252
  191ccc     H2 4501   3.184   7.438  -0.269  1.5016 -0.7054 -0.6873
  191ccc     C2 4502   3.209   7.598  -0.127 -0.0042 -0.7954 -0.3777
  191ccc     H3 4503   3.286   7.661  -0.082  1.3781 -0.7256 -2.6892
  191ccc     H4 4504   3.164   7.669  -0.197 -2.1160  0.5498  2.1746
  191ccc     C3 4505   3.109   7.558  -0.022  0.0751  0.2752  0.0345
  191ccc     H5 4506   3.112   7.630   0.061 -0.7570 -2.2162  2.3274
  191ccc     H6 4507   3.147   7.461   0.010 -0.8516 -0.2916 -0.5599
  191ccc     N1 4508   3.370   7.497  -0.297  0.0371  0.1867 -0.0364
  191ccc     H7 4509   3.372   7.404  -0.339  2.5951 -0.1638  0.6510
  191ccc     H8 4510   3.322   7.546  -0.372 -0.1967 -0.9089 -0.6245
  191ccc     O1 4511   2.979   7.560  -0.079  0.0150 -0.3229 -0.3824
  192ccc     C1 4512   2.670   7.821   1.095 -0.2386  0.0517  0.8267
  192ccc     H1 4513   2.629   7.777   1.004  1.2107 -1.2000  0.7324
  192ccc     H2 4514   2.583   7.854   1.153 -0.2835 -0.5580  1.1182
  192ccc     C2 4515   2.748   7.712   1.171  0.1104 -0.8041  0.0258
  192ccc     H3 4516   2.830   7.669   1.113 -1.8241 -2.7716 -1.3931
  192ccc     H4 4517   2.793   7.768   1.254 -0.6317 -1.5633  0.9481
  192ccc     C3 4518   2.668   7.611   1.243  0.0777  0.1780 -0.5563
  192ccc     H5 4519   2.587   7.653   1.305 -2.5874 -2.0009 -2.2870
  192ccc     H6 4520   2.728   7.544   1.305 -0.5805 -0.1939 -0.3116
  192ccc     N1 4521   2.769   7.923   1.058 -0.2815 -0.2392 -0.1090
  192ccc     H7 4522   2.704   7.997   1.032 -0.5568  0.0759  1.3761
  192ccc     H8 4523   2.814   7.953   1.144 -0.1318  2.3042 -0.9977
  192ccc     O1 4524   2.590   7.532   1.148  0.1048 -0.4937  1.0904
  193ccc     C1 4525   1.656   7.116   1.445  0.3243  0.3192 -0.2081
  193ccc     H1 4526   1.686   7.179   1.360 -0.3376  0.8389 -0.0678
  193ccc     H2 4527   1.576   7.049   1.410 -0.0856  1.4985 -1.6333
  193ccc     C2 4528   1.779   7.023   1.478  0.3168  0.2834  0.1592
  193ccc     H3 4529   1.752   6.951   1.556  0.8912 -0.2319 -0.1067
  193ccc     H4 4530   1.798   6.954   1.395 -0.4562 -0.0917  0.2863
  193ccc     C3 4531   1.903   7.103   1.520  0.8815  0.4999  0.4756
  193ccc     H5 4532   1.972   7.027   1.556 -1.1596 -1.2646  0.8392
  193ccc     H6 4533   1.868   7.162   1.606 -0.8570 -0.9153  0.7955
  193ccc     N1 4534   1.608   7.182   1.566  0.3822  0.0133  0.2076
  193ccc     H7 4535   1.689   7.239   1.588  2.3846 -1.7893 -1.8880
  193ccc     H8 4536   1.548   7.257   1.531  1.5417  0.8394 -0.0451
  193ccc     O1 4537   1.944   7.173   1.398 -0.0774 -0.4116  0.1825
  194ccc     C1 4538   2.411   6.501   1.726 -0.4534  0.5269  0.6284
  194ccc     H1 4539   2.429   6.396   1.754 -0.1826  0.4187  0.0454
  194ccc     H2 4540   2.478   6.568   1.781 -1.1935  0.9462  1.0467
  194ccc     C2 4541   2.425   6.514   1.579  0.2473 -0.0902  0.0274
  194ccc     H3 4542   2.371   6.605   1.550 -0.5120 -1.0839 -1.8238
  194ccc     H4 4543   2.529   6.524   1.545 -0.0458  0.4175 -0.7644
  194ccc     C3 4544   2.363   6.403   1.494 -0.3247  0.4106  0.9821
  194ccc     H5 4545   2.423   6.312   1.504 -0.8289  0.0240  0.4836
  194ccc     H6 4546   2.370   6.442   1.392 -1.9611  2.5869  1.6244
  194ccc     N1 4547   2.285   6.551   1.779 -0.0751  0.7160  0.5347
  194ccc     H7 4548   2.266   6.641   1.734  1.3516 -0.1895 -2.0806
  194ccc     H8 4549   2.213   6.488   1.745 -0.5894  2.2052 -1.2911
  194ccc     O1 4550   2.232   6.382   1.538  0.5159 -0.2538  0.4973
  195ccc     C1 4551   1.492   6.765   1.485  0.0034 -0.4803 -0.3596
  195ccc     H1 4552   1.533   6.682   1.543 -0.3481 -0.0409  0.5386
  195ccc     H2 4553   1.549   6.859   1.492  0.1839 -0.5049 -1.3281
  195ccc     C2 4554   1.491   6.733   1.332 -0.1970 -0.2207  0.2912
  195ccc     H3 4555   1.415   6.657   1.312 -0.0447 -0.2314 -0.2548
  195ccc     H4 4556   1.465   6.830   1.287  1.4425 -0.3492 -1.0551
  195ccc     C3 4557   1.634   6.692   1.292 -0.0547  0.7198 -0.0540
  195ccc     H5 4558   1.698   6.776   1.320  1.6443 -0.8816  1.1515
  195ccc     H6 4559   1.640   6.682   1.183 -1.4699 -3.2563  0.0358
  195ccc     N1 4560   1.353   6.795   1.541  0.2074  0.4634  0.1285
  195ccc     H7 4561   1.354   6.842   1.631 -0.7914  0.4452  0.1608
  195ccc     H8 4562   1.309   6.866   1.482 -0.7504 -0.3714 -0.1919
  195ccc     O1 4563   1.677   6.573   1.359 -0.5868  0.1082  0.0593
  196ccc     C1 4564   3.207   5.292   0.998 -0.4062 -0.7257  0.3329
  196ccc     H1 4565   3.255   5.299   1.096  0.1635  3.9260 -0.0666
  196ccc     H2 4566   3.129   5.215   1.004 -1.3112  0.2128  0.8341
  196ccc     C2 4567   3.144   5.436   0.969  0.5838  0.1920 -0.1142
  196ccc     H3 4568   3.121   5.449   0.863  0.5221  1.2136  0.0194
  196ccc     H4 4569   3.059   5.462   1.033  1.1401  2.8486 -0.3381
  196ccc     C3 4570   3.235   5.553   0.994  0.0053 -0.0994 -0.7495
  196ccc     H5 4571   3.327   5.562   0.934  1.4911  1.8185  1.6400
  196ccc     H6 4572   3.271   5.538   1.096 -1.7889  1.2139  0.1307
  196ccc     N1 4573   3.302   5.248   0.907  0.2186 -0.7101 -0.3501
  196ccc     H7 4574   3.333   5.155   0.937 -1.5421 -1.3347 -0.3315
  196ccc     H8 4575   3.244   5.237   0.823  0.6001 -0.0344 -0.7088
  196ccc     O1 4576   3.164   5.679   0.987  0.0681  0.1782  0.5132
  197ccc     C1 4577   3.267   6.707   0.850 -0.0490 -0.2687 -0.2608
  197ccc     H1 4578   3.365   6.703   0.900 -0.4518  0.6921  0.6470
  197ccc     H2 4579   3.249   6.615   0.794 -1.2714  0.1974 -0.6673
  197ccc     C2 4580   3.150   6.722   0.949 -1.3710  0.4102  0.2046
  197ccc     H3 4581   3.149   6.817   1.005 -1.7267  0.5220  0.0143
  197ccc     H4 4582   3.060   6.730   0.886  0.9520  1.2494 -3.3205
  197ccc     C3 4583   3.134   6.608   1.046  0.4843  0.4871 -0.4122
  197ccc     H5 4584   3.053   6.643   1.111  2.5527  0.8626  2.1674
  197ccc     H6 4585   3.226   6.603   1.105 -0.5677  3.1241  1.6525
  197ccc     N1 4586   3.260   6.804   0.745  0.0210  0.7799  0.4592
  197ccc     H7 4587   3.160   6.798   0.730  0.0578  1.4148 -0.0861
  197ccc     H8 4588   3.277   6.894   0.790  0.9637  0.4494  0.7985
  197ccc     O1 4589   3.104   6.481   0.994  0.0440  0.2982  0.7548
  198ccc     C1 4590   3.406   4.632  -1.473  0.0931 -0.2620 -0.5308
  198ccc     H1 4591   3.473   4.605  -1.555 -0.4671 -1.2696 -0.6764
  198ccc     H2 4592   3.449   4.591  -1.381  0.7703  0.6073 -0.4474
  198ccc     C2 4593   3.360   4.770  -1.444 -0.3527 -0.0951  0.6939
  198ccc     H3 4594   3.437   4.833  -1.398 -0.9946  0.7649  0.6412
  198ccc     H4 4595   3.338   4.824  -1.537 -2.3320 -1.2883  0.4098
  198ccc     C3 4596   3.247   4.788  -1.340  0.1330 -0.6596  0.1127
  198ccc     H5 4597   3.160   4.739  -1.384  0.1323 -0.9629  0.4409
  198ccc     H6 4598   3.218   4.892  -1.324 -2.5733 -1.2879 -0.2888
  198ccc     N1 4599   3.284   4.551  -1.495 -0.0888  0.1508  0.1516
  198ccc     H7 4600   3.333   4.462  -1.492 -0.2574 -0.0226 -1.2599
  198ccc     H8 4601   3.234   4.530  -1.409 -1.0573 -1.4162 -0.7537
  198ccc     O1 4602   3.273   4.735  -1.209 -0.3186 -0.2677 -0.0091
  199ccc     C1 4603   3.433   4.556  -0.412 -0.7901 -0.1973  0.5331
  199ccc     H1 4604   3.514   4.619  -0.373  0.1022 -1.7051  1.2078
  199ccc     H2 4605   3.406   4.478  -0.339 -1.3664 -1.4343 -0.9377
  199ccc     C2 4606   3.315   4.644  -0.462 -0.3117 -0.7859 -0.4072
  199ccc     H3 4607   3.241   4.586  -0.519 -0.2854  0.2426 -1.5259
  199ccc     H4 4608   3.259   4.672  -0.372 -2.3218 -3.3896 -0.7083
  199ccc     C3 4609   3.369   4.772  -0.533 -0.0640  0.2217  0.2887
  199ccc     H5 4610   3.445   4.749  -0.609 -0.3677  0.4121 -0.0752
  199ccc     H6 4611   3.424   4.833  -0.460 -0.0309  0.5991 -0.0413
  199ccc     N1 4612   3.485   4.483  -0.528 -0.7901 -0.1206 -0.3303
  199ccc     H7 4613   3.519   4.563  -0.581 -0.7459  1.4851  1.9834
  199ccc     H8 4614   3.576   4.466  -0.486 -0.6862  1.3604  0.1261
  199ccc     O1 4615   3.267   4.848  -0.600 -0.3731 -0.1423  0.6772
  200ccc     C1 4616   1.745   5.546  -1.010 -0.0156 -0.2018  0.6493
  200ccc     H1 4617   1.765   5.551  -1.117 -0.3642 -1.8830  0.4808
  200ccc     H2 4618   1.841   5.530  -0.960 -0.5734  1.3391  2.3194
  200ccc     C2 4619   1.688   5.677  -0.951 -0.1707  0.2472 -0.3914
  200ccc     H3 4620   1.580   5.670  -0.972 -1.3394 -1.5713  4.5832
  200ccc     H4 4621   1.699   5.673  -0.842  0.6811  0.5845 -0.4630
  200ccc     C3 4622   1.756   5.808  -1.012  0.2769  1.1394  0.1966
  200ccc     H5 4623   1.704   5.899  -0.979 -0.7436  1.2560 -1.5836
  200ccc     H6 4624   1.740   5.810  -1.121 -0.9770 -0.2552  0.3300
  200ccc     N1 4625   1.663   5.427  -0.979  0.5155 -0.3914 -0.7303
  200ccc     H7 4626   1.694   5.347  -1.035  0.7113 -1.5379  0.9388
  200ccc     H8 4627   1.687   5.390  -0.887 -0.9925 -0.0111 -0.1697
  200ccc     O1 4628   1.891   5.815  -0.974  0.1523 -0.8379 -0.2679
  201ccc     C1 4629   2.463   4.826  -1.131  0.0692 -0.6545 -0.1998
  201ccc     H1 4630   2.469   4.875  -1.229 -2.1839  0.9904  0.3874
  201ccc     H2 4631   2.564   4.795  -1.102 -0.2926 -0.1043  1.8563
  201ccc     C2 4632   2.410   4.931  -1.025 -0.3327 -0.0873  0.3022
  201ccc     H3 4633   2.404   4.872  -0.932 -1.1542 -0.5299 -0.0204
  201ccc     H4 4634   2.483   5.010  -1.004 -0.0894 -0.4317  0.7490
  201ccc     C3 4635   2.284   5.006  -1.064  0.3062 -0.1841 -0.0800
  201ccc     H5 4636   2.227   5.029  -0.973 -0.1096  0.6552 -0.5403
  201ccc     H6 4637   2.220   4.931  -1.112  0.8446 -2.6931  2.8068
  201ccc     N1 4638   2.372   4.718  -1.151 -0.1243  0.0388 -1.0227
  201ccc     H7 4639   2.289   4.762  -1.191 -0.3581 -1.1554 -1.9085
  201ccc     H8 4640   2.407   4.671  -1.234  0.7472 -0.3454 -0.4594
  201ccc     O1 4641   2.312   5.126  -1.134 -0.1313 -0.5370  0.3587
  202ccc     C1 4642   1.704   4.748  -0.678 -0.1347 -0.1543 -0.4323
  202ccc     H1 4643   1.786   4.812  -0.712  1.6279 -2.7269 -1.3429
  202ccc     H2 4644   1.748   4.648  -0.672  0.3972  0.0962 -0.0887
  202ccc     C2 4645   1.643   4.795  -0.541  0.0233  0.0869  0.9933
  202ccc     H3 4646   1.608   4.898  -0.556  0.0671 -0.0138  0.1473
  202ccc     H4 4647   1.553   4.734  -0.524 -1.8713  1.6324 -2.4043
  202ccc     C3 4648   1.734   4.777  -0.420  0.8148  0.2407 -0.2854
  202ccc     H5 4649   1.763   4.671  -0.410  0.9476  0.0104 -2.6246
  202ccc     H6 4650   1.689   4.814  -0.327 -0.8998 -4.0498  0.8493
  202ccc     N1 4651   1.593   4.748  -0.778 -0.6246 -0.2104  0.2679
  202ccc     H7 4652   1.637   4.746  -0.870 -1.9437 -0.9613 -0.3744
  202ccc     H8 4653   1.552   4.655  -0.765  1.1704 -0.8095  2.2247
  202ccc     O1 4654   1.856   4.832  -0.464 -0.1822  0.5819  0.4550
  203ccc     C1 4655   2.779   5.364  -0.459  0.3031 -0.4618  0.7521
  203ccc     H1 4656   2.675   5.362  -0.493  0.7563 -1.7446 -0.6744
  203ccc     H2 4657   2.816   5.463  -0.488  1.4153 -0.7230  1.2083
  203ccc     C2 4658   2.795   5.369  -0.306 -0.1883 -0.6077  0.1004
  203ccc     H3 4659   2.895   5.404  -0.278 -0.6434  1.2786 -0.4315
  203ccc     H4 4660   2.727   5.448  -0.271  1.2559  0.4785  0.5467
  203ccc     C3 4661   2.759   5.240  -0.230  0.2011 -0.1446 -0.6473
  203ccc     H5 4662   2.752   5.262  -0.123  1.4921 -1.3177 -0.2877
  203ccc     H6 4663   2.844   5.170  -0.235  0.2785 -0.1997  1.0983
  203ccc     N1 4664   2.860   5.254  -0.519 -0.2942  0.6739  1.0318
  203ccc     H7 4665   2.828   5.166  -0.479  1.2645 -0.7320 -0.6265
  203ccc     H8 4666   2.837   5.254  -0.618 -0.3631 -0.8573  1.0226
  203ccc     O1 4667   2.634   5.188  -0.272 -0.4747  0.1665 -0.5175
  204ccc     C1 4668   1.504   4.517   0.056 -0.4429  0.2754 -0.0442
  204ccc     H1 4669   1.439   4.475  -0.021 -1.2135  0.9930  0.2035
  204ccc     H2 4670   1.604   4.524   0.012 -1.3762  1.1618 -2.1428
  204ccc     C2 4671   1.447   4.646   0.101  0.3158 -0.2269  0.2339
  204ccc     H3 4672   1.347   4.622   0.140 -0.5962  0.3553 -1.6589
  204ccc     H4 4673   1.498   4.704   0.179 -2.4640  2.4874  0.2329
  204ccc     C3 4674   1.415   4.730  -0.028 -0.3203  0.3636 -0.2308
  204ccc     H5 4675   1.325   4.702  -0.084  0.0099  0.1121 -0.6351
  204ccc     H6 4676   1.505   4.734  -0.090  2.2352  1.0135  3.1852
  204ccc     N1 4677   1.512   4.434   0.174 -0.0866  0.2402  0.5440
  204ccc     H7 4678   1.594   4.465   0.225  0.2734  1.0839 -0.5089
  204ccc     H8 4679   1.438   4.464   0.238  0.6141  0.0249  1.4698
  204ccc     O1 4680   1.379   4.864   0.016 -0.3998 -0.4393  0.0438
  205ccc     C1 4681   0.581   5.239   0.155  0.9021 -0.4472  0.0674
  205ccc     H1 4682   0.542   5.292   0.243 -0.7770  2.2443 -2.1293
  205ccc     H2 4683   0.551   5.302   0.070 -0.1899 -1.0168  0.0082
  205ccc     C2 4684   0.733   5.216   0.166 -0.4135 -0.6142  0.6096
  205ccc     H3 4685   0.742   5.144   0.249 -2.8133  1.1279  2.4991
  205ccc     H4 4686   0.775   5.178   0.071  0.5210  1.9032 -0.0754
  205ccc     C3 4687   0.817   5.342   0.207 -0.1345 -0.3067 -0.3250
  205ccc     H5 4688   0.906   5.319   0.268 -0.1525 -0.1742 -0.2478
  205ccc     H6 4689   0.774   5.413   0.279  2.4960  0.3760  0.6868
  205ccc     N1 4690   0.502   5.113   0.152  0.6500 -0.0401  0.1206
  205ccc     H7 4691   0.536   5.068   0.067 -2.1686 -2.0136 -0.0884
  205ccc     H8 4692   0.545   5.067   0.232  1.1943  0.7688  0.3124
  205ccc     O1 4693   0.850   5.421   0.089 -0.0134  0.2387  0.3540
  206ccc     C1 4694   5.544   5.913  -0.428 -0.1712  0.7790  0.2581
  206ccc     H1 4695   5.538   6.022  -0.440 -0.1118  0.8557  0.8744
  206ccc     H2 4696   5.502   5.885  -0.331  0.7324  0.2536  0.5141
  206ccc     C2 4697   5.462   5.843  -0.534  0.4601 -0.6153  0.2146
  206ccc     H3 4698   5.513   5.853  -0.631 -0.5169 -0.1052 -0.2560
  206ccc     H4 4699   5.457   5.735  -0.516 -0.5329 -0.4334  1.1093
  206ccc     C3 4700   5.313   5.892  -0.533  0.2196 -0.5335 -0.0976
  206ccc     H5 4701   5.294   5.928  -0.635 -0.5159 -0.2207  0.1429
  206ccc     H6 4702   5.307   5.977  -0.465  3.6670  1.1025 -1.5591
  206ccc     N1 4703   5.684   5.854  -0.428 -0.3938 -0.1216  0.1368
  206ccc     H7 4704   5.737   5.914  -0.365 -0.0116 -0.0264 -0.2728
  206ccc     H8 4705   5.660   5.775  -0.368 -2.4699 -0.6291 -1.2618
  206ccc     O1 4706   5.225   5.799  -0.492 -0.4296  0.1199 -0.5719
  207ccc     C1 4707   4.681   6.353  -1.093 -0.3097  0.1358  0.3772
  207ccc     H1 4708   4.600   6.413  -1.049  0.2019  0.5529  0.7605
  207ccc     H2 4709   4.737   6.313  -1.007 -1.6236 -1.1817  0.6644
  207ccc     C2 4710   4.628   6.231  -1.177 -0.0647 -0.0323  0.3988
  207ccc     H3 4711   4.580   6.282  -1.262  3.3130 -0.5064 -1.9737
  207ccc     H4 4712   4.708   6.174  -1.226 -1.1107 -1.2785  0.0949
  207ccc     C3 4713   4.525   6.150  -1.093  0.6181 -0.5438  0.1277
  207ccc     H5 4714   4.467   6.083  -1.157 -0.8175  1.9128 -1.2730
  207ccc     H6 4715   4.457   6.228  -1.058 -2.0080 -0.0261 -5.2102
  207ccc     N1 4716   4.768   6.433  -1.172  0.1171  0.5190 -0.0676
  207ccc     H7 4717   4.696   6.470  -1.234  1.0670  0.7212 -1.0834
  207ccc     H8 4718   4.789   6.513  -1.113 -0.4717  0.1225  0.6905
  207ccc     O1 4719   4.595   6.086  -0.988 -0.2848  0.0284  0.5112
  208ccc     C1 4720   4.432   5.705   0.798  0.3273 -0.4354  0.0638
  208ccc     H1 4721   4.468   5.697   0.694 -1.2664  0.0598 -0.5658
  208ccc     H2 4722   4.515   5.683   0.866  1.6155  0.5284 -1.1327
  208ccc     C2 4723   4.389   5.853   0.818  0.4242  0.1981  0.2879
  208ccc     H3 4724   4.343   5.884   0.723  2.5196 -0.7872 -1.1341
  208ccc     H4 4725   4.304   5.855   0.887  1.3788  0.0428  1.4947
  208ccc     C3 4726   4.501   5.955   0.867  0.6715  0.6077  0.4815
  208ccc     H5 4727   4.529   5.926   0.969 -0.3187  0.2647  0.6618
  208ccc     H6 4728   4.455   6.055   0.864  0.3140  0.4218 -1.4180
  208ccc     N1 4729   4.313   5.622   0.823  0.3530  0.0057 -0.4134
  208ccc     H7 4730   4.286   5.609   0.920 -1.3471 -0.2831 -0.8792
  208ccc     H8 4731   4.232   5.672   0.785  1.4139  2.5045  0.3950
  208ccc     O1 4732   4.609   5.953   0.766 -0.5101 -0.2365  0.1993
  209ccc     C1 4733   5.292   5.588  -0.166  0.1085  0.5599  0.2063
  209ccc     H1 4734   5.306   5.482  -0.141  0.8339  1.0871  2.2324
  209ccc     H2 4735   5.205   5.606  -0.231  0.2293  0.7491  0.0987
  209ccc     C2 4736   5.282   5.667  -0.036  0.4437 -0.4051 -0.3049
  209ccc     H3 4737   5.373   5.647   0.022  0.9005 -0.5266 -1.0531
  209ccc     H4 4738   5.265   5.774  -0.057  0.0842  0.0356  1.9634
  209ccc     C3 4739   5.165   5.616   0.049  0.2358  0.4759 -0.7489
  209ccc     H5 4740   5.131   5.512   0.043 -1.9186  1.0293  0.7476
  209ccc     H6 4741   5.074   5.673   0.029  0.5646  0.7700 -1.4474
  209ccc     N1 4742   5.391   5.633  -0.251 -0.5252 -0.2491 -0.5916
  209ccc     H7 4743   5.399   5.566  -0.328  1.0615 -1.2711  0.4177
  209ccc     H8 4744   5.348   5.712  -0.299  1.1299  0.9773 -0.1430
  209ccc     O1 4745   5.201   5.640   0.193 -0.3992 -0.1120  0.0731
  210ccc     C1 4746   3.960   7.495   0.533 -0.4797 -0.9116  0.1971
  210ccc     H1 4747   3.894   7.408   0.528  0.5556 -1.6381 -2.3471
  210ccc     H2 4748   4.046   7.480   0.466  0.2120  0.2649  0.7769
  210ccc     C2 4749   3.882   7.624   0.488 -0.2759  0.5193  0.2622
  210ccc     H3 4750   3.799   7.642   0.557 -0.0808 -1.0580  0.9418
  210ccc     H4 4751   3.944   7.715   0.493 -0.1415  0.4508 -0.0926
  210ccc     C3 4752   3.831   7.609   0.338 -0.2256 -0.2225 -0.7932
  210ccc     H5 4753   3.801   7.706   0.297 -0.1506 -0.0244 -0.3849
  210ccc     H6 4754   3.738   7.550   0.338 -0.8207  0.6416  0.8642
  210ccc     N1 4755   4.006   7.519   0.668  0.4197  0.0915  0.4291
  210ccc     H7 4756   4.058   7.433   0.682  1.0943  0.3505 -0.4327
  210ccc     H8 4757   4.072   7.595   0.650 -1.3496  1.5874 -0.1117
  210ccc     O1 4758   3.933   7.551   0.249 -0.5875 -0.4051  0.0270
  211ccc     C1 4759   4.797   7.406   0.165  0.2875  0.2553  0.0595
  211ccc     H1 4760   4.702   7.363   0.200  1.0054  1.2643  3.6402
  211ccc     H2 4761   4.822   7.341   0.080  0.0253 -1.4073  1.2048
  211ccc     C2 4762   4.789   7.551   0.120 -0.5224  0.5009 -0.0503
  211ccc     H3 4763   4.757   7.599   0.213 -2.1409  0.0807 -0.3657
  211ccc     H4 4764   4.892   7.581   0.098 -0.5130  0.4352 -0.0985
  211ccc     C3 4765   4.690   7.590   0.009  1.0461 -0.0871 -0.4516
  211ccc     H5 4766   4.725   7.548  -0.086 -2.6633  1.1688 -2.5863
  211ccc     H6 4767   4.697   7.699   0.011 -2.6904  0.2681  0.5454
  211ccc     N1 4768   4.899   7.373   0.266  0.0038 -0.0378 -0.1885
  211ccc     H7 4769   4.983   7.418   0.229  1.2322 -4.3371 -3.4497
  211ccc     H8 4770   4.872   7.431   0.345 -2.4448 -0.6585 -0.4976
  211ccc     O1 4771   4.565   7.542   0.045  0.0733 -0.0005 -0.0723
  212ccc     C1 4772   4.815   6.986   0.051 -0.7869 -0.5100 -1.1511
  212ccc     H1 4773   4.820   6.895   0.112  0.8161 -0.0959 -0.5965
  212ccc     H2 4774   4.843   6.958  -0.051  0.7140 -3.8268  0.0199
  212ccc     C2 4775   4.669   7.032   0.045  0.1331  0.3909  0.3784
  212ccc     H3 4776   4.629   7.076   0.138 -0.1185  1.7104 -0.3350
  212ccc     H4 4777   4.653   7.116  -0.023  0.2477 -1.6787 -2.3978
  212ccc     C3 4778   4.587   6.912  -0.009 -0.2126 -0.0903  0.1858
  212ccc     H5 4779   4.641   6.882  -0.099  0.6785 -0.5277  0.8524
  212ccc     H6 4780   4.483   6.944  -0.023 -1.2587 -2.9471  0.7494
  212ccc     N1 4781   4.910   7.088   0.097  0.2326 -0.2378  0.4398
  212ccc     H7 4782   5.003   7.060   0.067 -1.1852 -2.6666 -2.2506
  212ccc     H8 4783   4.886   7.169   0.039  1.2342 -0.8639 -0.9190
  212ccc     O1 4784   4.588   6.815   0.099 -0.3458 -0.1916 -0.0517
  213ccc     C1 4785   4.456   7.492   0.418 -0.5689  0.5467 -0.1381
  213ccc     H1 4786   4.539   7.502   0.347 -0.6650  0.8305 -0.2123
  213ccc     H2 4787   4.357   7.496   0.371 -0.6715 -0.5852 -0.0396
  213ccc     C2 4788   4.468   7.358   0.491  0.0338 -0.5067  0.1821
  213ccc     H3 4789   4.560   7.366   0.550 -0.6461  0.3464  1.1706
  213ccc     H4 4790   4.382   7.347   0.559  0.4918  0.7213  0.9846
  213ccc     C3 4791   4.462   7.246   0.385  0.0991  0.2435  0.2008
  213ccc     H5 4792   4.541   7.246   0.308  1.4037 -1.0051  1.4903
  213ccc     H6 4793   4.371   7.243   0.323  1.3963 -1.3567 -1.7672
  213ccc     N1 4794   4.480   7.606   0.511  0.1539  0.2695  0.2349
  213ccc     H7 4795   4.581   7.595   0.516  0.2075  0.2523 -0.6670
  213ccc     H8 4796   4.468   7.683   0.445  1.7753 -2.2539 -3.3310
  213ccc     O1 4797   4.476   7.127   0.468  0.1642  0.2181  0.4073
  214ccc     C1 4798   3.136   5.163  -1.520  0.9172  0.1931 -0.3191
  214ccc     H1 4799   3.219   5.108  -1.473  0.6379 -1.2093 -1.4208
  214ccc     H2 4800   3.056   5.179  -1.446 -0.1222 -0.0200 -1.3662
  214ccc     C2 4801   3.180   5.300  -1.577 -0.7281 -0.6080  0.6288
  214ccc     H3 4802   3.269   5.280  -1.637 -0.0659  1.8636  0.6566
  214ccc     H4 4803   3.100   5.352  -1.631  0.0670 -0.1129 -0.0971
  214ccc     C3 4804   3.233   5.394  -1.462 -0.0112  0.2199  0.1327
  214ccc     H5 4805   3.145   5.432  -1.408  0.7882  0.2316  1.4807
  214ccc     H6 4806   3.271   5.490  -1.498 -2.2183  1.0218 -0.2234
  214ccc     N1 4807   3.086   5.071  -1.617 -0.5879 -0.0429  0.1145
  214ccc     H7 4808   3.168   5.020  -1.648 -0.9310  0.4922 -1.8830
  214ccc     H8 4809   3.039   5.011  -1.550 -1.1568 -0.3689 -0.5569
  214ccc     O1 4810   3.317   5.333  -1.363  0.1373 -0.3215 -0.0122
  215ccc     C1 4811   4.030   5.185  -0.644 -0.0382  0.1236 -0.1914
  215ccc     H1 4812   3.936   5.129  -0.653 -0.3172  0.7346 -1.2078
  215ccc     H2 4813   4.101   5.154  -0.567  0.0617 -0.3204 -0.4596
  215ccc     C2 4814   4.105   5.184  -0.774 -0.1767  0.2705 -0.5207
  215ccc     H3 4815   4.193   5.248  -0.764  0.1123 -0.2884  0.8378
  215ccc     H4 4816   4.139   5.080  -0.783 -1.5733 -0.1321 -1.4485
  215ccc     C3 4817   4.021   5.216  -0.902  0.0926  0.0480 -1.0408
  215ccc     H5 4818   3.975   5.313  -0.879 -0.6889  0.0503 -2.5084
  215ccc     H6 4819   3.932   5.154  -0.917  0.6226 -0.5596 -1.7453
  215ccc     N1 4820   3.988   5.323  -0.613  0.2345 -0.2915 -0.3949
  215ccc     H7 4821   4.069   5.382  -0.601 -0.9221  1.5005 -1.0593
  215ccc     H8 4822   3.956   5.360  -0.702  0.1562 -1.0986 -0.7133
  215ccc     O1 4823   4.096   5.227  -1.024  0.9583  0.9399  0.5552
  216ccc     C1 4824   5.223   5.945  -1.722 -0.4756 -0.5824 -0.0084
  216ccc     H1 4825   5.134   5.894  -1.761 -2.1456  0.8803  1.7078
  216ccc     H2 4826   5.209   6.053  -1.740  1.7776 -0.2423  0.0575
  216ccc     C2 4827   5.239   5.912  -1.574 -0.2757  0.1076  0.1690
  216ccc     H3 4828   5.332   5.950  -1.529 -0.9542 -0.2698  1.9921
  216ccc     H4 4829   5.158   5.968  -1.525 -1.6056 -0.4357 -1.3136
  216ccc     C3 4830   5.229   5.763  -1.543  0.0127  0.1964 -0.1887
  216ccc     H5 4831   5.240   5.742  -1.435  0.6985  1.2689 -0.0362
  216ccc     H6 4832   5.315   5.709  -1.585 -0.1415  0.7368 -1.2039
  216ccc     N1 4833   5.333   5.900  -1.804  0.1990 -0.1457 -0.6540
  216ccc     H7 4834   5.330   5.799  -1.789  2.5807 -0.2850 -0.7517
  216ccc     H8 4835   5.299   5.904  -1.900  0.1652  0.4524 -0.6206
  216ccc     O1 4836   5.103   5.711  -1.591  0.5108  0.1939  0.0158
  217ccc     C1 4837   4.443   4.634  -1.819 -0.2167 -0.3539 -0.5000
  217ccc     H1 4838   4.531   4.649  -1.883  0.6441  1.6331  1.0128
  217ccc     H2 4839   4.467   4.589  -1.722  1.5364  0.3527 -0.5626
  217ccc     C2 4840   4.383   4.777  -1.796  0.2136 -0.5471 -0.4020
  217ccc     H3 4841   4.369   4.830  -1.891 -0.8962  2.6911  1.3912
  217ccc     H4 4842   4.287   4.781  -1.742 -0.2662  0.7311 -1.2844
  217ccc     C3 4843   4.470   4.866  -1.708 -0.1676  0.0782  0.7141
  217ccc     H5 4844   4.480   4.824  -1.607  0.6256 -2.9570 -0.5053
  217ccc     H6 4845   4.418   4.962  -1.692  1.1667  0.7852  0.8933
  217ccc     N1 4846   4.353   4.545  -1.886  0.7207  0.4703 -0.2375
  217ccc     H7 4847   4.373   4.446  -1.875  2.5717  0.8225 -0.1414
  217ccc     H8 4848   4.269   4.547  -1.829  2.1285 -0.1291  1.9841
  217ccc     O1 4849   4.595   4.894  -1.770 -0.1825 -0.2489  0.0518
  218ccc     C1 4850   2.988   5.699  -0.665  0.0875  0.3340 -0.1504
  218ccc     H1 4851   3.088   5.741  -0.680  1.1772 -0.7223  3.2568
  218ccc     H2 4852   2.969   5.684  -0.558 -1.7973 -0.5486 -0.5615
  218ccc     C2 4853   2.897   5.809  -0.716  0.0476 -0.3839 -0.7094
  218ccc     H3 4854   2.934   5.837  -0.816  0.2642 -2.2780 -1.2038
  218ccc     H4 4855   2.792   5.778  -0.707  0.2353 -0.7752  0.2637
  218ccc     C3 4856   2.900   5.938  -0.625  0.0336 -0.3978  0.4279
  218ccc     H5 4857   3.000   5.980  -0.610  0.6481 -0.4427 -2.9424
  218ccc     H6 4858   2.861   5.909  -0.526 -0.0969 -0.7335  0.2801
  218ccc     N1 4859   2.960   5.569  -0.728 -0.3696 -0.8460  0.1943
  218ccc     H7 4860   2.862   5.542  -0.732 -1.3414  2.2015  0.5067
  218ccc     H8 4861   2.988   5.585  -0.824  3.0355  1.5359  1.3874
  218ccc     O1 4862   2.811   6.036  -0.675 -0.3710  0.1412 -0.1183
  219ccc     C1 4863   2.386   6.470  -1.197 -0.5519 -0.5087 -0.3742
  219ccc     H1 4864   2.355   6.365  -1.205  0.6001 -0.7994 -1.3907
  219ccc     H2 4865   2.361   6.515  -1.100  1.0240  0.2914 -0.3117
  219ccc     C2 4866   2.537   6.472  -1.224  0.2239 -0.4225 -0.5552
  219ccc     H3 4867   2.541   6.444  -1.330 -1.6993  1.7483 -1.2740
  219ccc     H4 4868   2.559   6.578  -1.213  0.1701 -0.4455 -0.1957
  219ccc     C3 4869   2.615   6.373  -1.135 -0.1951  0.1348  0.3551
  219ccc     H5 4870   2.705   6.338  -1.186 -1.2525 -2.7073  0.2477
  219ccc     H6 4871   2.564   6.277  -1.121 -1.8892  0.6757 -1.6184
  219ccc     N1 4872   2.300   6.551  -1.286  0.6455 -0.3271 -0.1192
  219ccc     H7 4873   2.210   6.557  -1.238 -0.2199  0.6278 -1.7979
  219ccc     H8 4874   2.341   6.643  -1.271  0.4819 -0.1814 -0.5616
  219ccc     O1 4875   2.640   6.429  -0.999 -0.0728  0.5212 -0.0736
  220ccc     C1 4876   3.538   7.038   0.665  0.2523 -0.1376  0.4925
  220ccc     H1 4877   3.642   7.008   0.649  0.3389  0.2716  0.2593
  220ccc     H2 4878   3.492   6.980   0.746  1.9065 -1.0904  0.7776
  220ccc     C2 4879   3.508   7.197   0.676 -0.6434 -0.1017 -0.0714
  220ccc     H3 4880   3.401   7.220   0.669 -0.2209  1.6754 -1.0767
  220ccc     H4 4881   3.542   7.226   0.776 -1.3514 -2.1738  0.8311
  220ccc     C3 4882   3.574   7.278   0.565  0.7486  1.1128  0.1788
  220ccc     H5 4883   3.679   7.254   0.547 -0.1992 -2.0431 -2.0167
  220ccc     H6 4884   3.586   7.380   0.603 -0.5194  1.5020 -0.4113
  220ccc     N1 4885   3.466   6.997   0.547  0.0181  0.3694 -0.3555
  220ccc     H7 4886   3.377   7.046   0.556  0.2075  0.5855  0.4799
  220ccc     H8 4887   3.498   7.061   0.474 -0.7797  2.0687  0.7032
  220ccc     O1 4888   3.493   7.272   0.447 -0.7349 -0.6572 -0.3641
  221ccc     C1 4889   4.082   7.060   0.615 -0.4440 -0.3297  0.5559
  221ccc     H1 4890   4.049   6.997   0.698  1.1215  0.6116  1.9728
  221ccc     H2 4891   4.186   7.031   0.592 -1.3399 -3.1076 -0.3870
  221ccc     C2 4892   3.994   7.030   0.497  0.3717 -0.2772  0.0125
  221ccc     H3 4893   3.997   6.922   0.475  2.1871  0.2046 -2.5156
  221ccc     H4 4894   3.893   7.061   0.528  1.2607  1.6660  1.1352
  221ccc     C3 4895   4.021   7.107   0.366 -0.3480 -0.8129  0.0349
  221ccc     H5 4896   4.126   7.094   0.337 -0.6390 -1.7800 -0.6240
  221ccc     H6 4897   3.987   7.211   0.364 -2.1261 -1.3274 -3.3084
  221ccc     N1 4898   4.088   7.204   0.643 -0.3757 -0.0909 -0.6853
  221ccc     H7 4899   4.172   7.216   0.699 -0.0949 -0.4308 -1.0248
  221ccc     H8 4900   4.107   7.254   0.556 -0.4315  2.1933  0.5282
  221ccc     O1 4901   3.949   7.042   0.257 -0.3640  0.4699  0.4222
  222ccc     C1 4902   4.573   5.595   2.270  0.2874  0.1070 -0.4502
  222ccc     H1 4903   4.643   5.679   2.278  0.2903  0.0703 -0.0971
  222ccc     H2 4904   4.468   5.620   2.289  0.9257  0.2149  3.7417
  222ccc     C2 4905   4.562   5.575   2.117 -0.1935  0.1243 -0.4066
  222ccc     H3 4906   4.658   5.539   2.077 -0.5272 -0.1955 -0.9378
  222ccc     H4 4907   4.481   5.502   2.109 -0.3789  0.1046  1.2967
  222ccc     C3 4908   4.524   5.701   2.045 -0.0578  0.3167 -0.4857
  222ccc     H5 4909   4.517   5.698   1.935  0.6836  1.3551 -0.5766
  222ccc     H6 4910   4.594   5.781   2.069  1.8519 -1.4929  0.2305
  222ccc     N1 4911   4.625   5.475   2.333  0.4445 -0.3344  0.6741
  222ccc     H7 4912   4.713   5.461   2.283 -0.0936 -0.5389 -0.2404
  222ccc     H8 4913   4.663   5.491   2.427  0.2268  1.2006  0.5136
  222ccc     O1 4914   4.387   5.734   2.088 -0.0507 -0.0144 -0.6572
  223ccc     C1 4915   4.155   5.347   2.142  0.1378 -0.2596 -0.0925
  223ccc     H1 4916   4.178   5.266   2.072 -0.2631 -1.1596  0.7935
  223ccc     H2 4917   4.193   5.437   2.092 -1.0288 -0.1020 -0.7350
  223ccc     C2 4918   4.004   5.355   2.162  0.5363 -0.1353 -0.1473
  223ccc     H3 4919   3.961   5.257   2.186 -0.9822  0.2585 -1.0997
  223ccc     H4 4920   3.975   5.429   2.238 -0.3064  0.0465 -0.6342
  223ccc     C3 4921   3.939   5.394   2.029 -0.2508  0.2480  0.4924
  223ccc     H5 4922   3.833   5.368   2.037 -0.0856 -0.0149  2.1640
  223ccc     H6 4923   3.981   5.327   1.952  0.8442 -1.2399  2.3046
  223ccc     N1 4924   4.230   5.320   2.269  0.2731  0.6986  0.5461
  223ccc     H7 4925   4.326   5.349   2.251  0.3592  0.5362  0.7382
  223ccc     H8 4926   4.209   5.398   2.331 -0.5443  0.5530  0.4709
  223ccc     O1 4927   3.959   5.538   1.994 -0.6399 -0.6337 -0.3517
  224ccc     C1 4928   3.222   7.859   1.398  0.2862 -0.3871  0.0033
  224ccc     H1 4929   3.271   7.798   1.475  1.1770 -1.2392 -1.2026
  224ccc     H2 4930   3.293   7.906   1.329  0.9256 -1.5515 -0.1592
  224ccc     C2 4931   3.131   7.766   1.305 -0.4638  0.0970  0.1002
  224ccc     H3 4932   3.051   7.728   1.370  0.6049  1.3754  2.2531
  224ccc     H4 4933   3.087   7.838   1.234 -1.6785 -0.2394  0.4811
  224ccc     C3 4934   3.221   7.654   1.241 -0.1740 -1.1674  0.4112
  224ccc     H5 4935   3.278   7.597   1.315  1.3490 -0.8212 -0.4658
  224ccc     H6 4936   3.296   7.709   1.183 -2.1591 -1.0155 -2.1917
  224ccc     N1 4937   3.154   7.956   1.476 -1.1103 -0.3276 -0.8188
  224ccc     H7 4938   3.221   8.017   1.523 -2.6131  0.2012  0.7478
  224ccc     H8 4939   3.102   8.018   1.415 -1.0476  1.6608  1.0120
  224ccc     O1 4940   3.154   7.567   1.156  0.1610 -0.1013 -0.1529
  225ccc     C1 4941   2.281   6.896   1.667  0.8987  0.2342 -0.7638
  225ccc     H1 4942   2.223   6.988   1.651 -0.8632 -0.9033 -1.2490
  225ccc     H2 4943   2.231   6.804   1.632 -0.7535  0.9853 -0.4944
  225ccc     C2 4944   2.414   6.919   1.599  0.5413 -0.0926  0.1390
  225ccc     H3 4945   2.455   7.006   1.651 -1.4663  0.2692  1.2081
  225ccc     H4 4946   2.471   6.831   1.631  1.3908  0.2812 -0.3027
  225ccc     C3 4947   2.401   6.953   1.454  0.3227 -0.2746  0.0661
  225ccc     H5 4948   2.325   7.031   1.440 -0.7913 -1.0438  1.5020
  225ccc     H6 4949   2.371   6.867   1.393  2.2699 -0.4402 -0.7305
  225ccc     N1 4950   2.306   6.875   1.812  0.3711  0.5443  0.2310
  225ccc     H7 4951   2.339   6.963   1.851  0.4449  0.1956  0.9708
  225ccc     H8 4952   2.211   6.882   1.848  0.9238  0.6506  1.7073
  225ccc     O1 4953   2.530   7.002   1.423  0.2028  0.5938  0.4188
  226ccc     C1 4954   3.997   4.874   2.486 -0.1327  0.0534  0.6271
  226ccc     H1 4955   4.069   4.892   2.567 -1.1722  2.0340  1.1787
  226ccc     H2 4956   3.917   4.809   2.523 -0.1808  0.0519  0.5209
  226ccc     C2 4957   3.929   5.002   2.422  0.0453  0.6723 -0.5405
  226ccc     H3 4958   3.903   5.067   2.506  2.4087  0.4111  0.4743
  226ccc     H4 4959   4.001   5.045   2.352 -0.2716 -0.8010 -1.8363
  226ccc     C3 4960   3.793   4.967   2.350 -0.6989  0.5908 -0.1876
  226ccc     H5 4961   3.714   4.982   2.424 -0.9341 -1.0383 -0.0862
  226ccc     H6 4962   3.790   4.865   2.312  0.7029  0.4548 -0.0116
  226ccc     N1 4963   4.056   4.794   2.382  0.0078 -0.4521  0.4434
  226ccc     H7 4964   4.135   4.848   2.347 -1.5378  1.7959  0.1994
  226ccc     H8 4965   4.106   4.724   2.436  1.7249 -1.0002 -1.7011
  226ccc     O1 4966   3.780   5.045   2.233 -0.1264 -0.0099 -0.2009
  227ccc     C1 4967   2.962   5.533   1.961  0.0105  0.2329 -0.3261
  227ccc     H1 4968   3.004   5.541   2.063  1.7963 -1.7607 -0.8401
  227ccc     H2 4969   2.995   5.626   1.914  3.8447 -0.9396 -0.2792
  227ccc     C2 4970   3.008   5.409   1.889  0.1394  0.3836  0.0921
  227ccc     H3 4971   2.984   5.311   1.931  0.7274 -0.1613 -0.8143
  227ccc     H4 4972   2.959   5.414   1.791 -1.9816 -1.7722  0.9596
  227ccc     C3 4973   3.159   5.422   1.867 -0.2303  0.5887  0.0511
  227ccc     H5 4974   3.214   5.409   1.960  0.5507 -1.3986 -0.6283
  227ccc     H6 4975   3.181   5.517   1.818 -2.3155  0.6610 -0.8868
  227ccc     N1 4976   2.821   5.537   1.983 -0.2391  0.1434  0.2313
  227ccc     H7 4977   2.772   5.524   1.895 -1.1359  1.1266  0.5601
  227ccc     H8 4978   2.806   5.449   2.033 -3.9804 -1.5689 -3.3593
  227ccc     O1 4979   3.200   5.303   1.784  0.6119  0.0732 -0.6712
  228ccc     C1 4980   4.206   5.154   1.054 -0.8926 -0.6187  0.6256
  228ccc     H1 4981   4.269   5.084   1.110  1.1341  0.7094  0.0898
  228ccc     H2 4982   4.154   5.221   1.124  0.5213  1.6862 -0.4473
  228ccc     C2 4983   4.279   5.232   0.947  0.0017  0.6231  0.1490
  228ccc     H3 4984   4.324   5.164   0.874 -0.2154  1.5577 -0.8791
  228ccc     H4 4985   4.202   5.285   0.890 -1.4243 -1.5090 -0.0312
  228ccc     C3 4986   4.388   5.331   0.998 -0.7547  0.2174 -0.8562
  228ccc     H5 4987   4.433   5.370   0.906  0.8827  0.2705 -0.0750
  228ccc     H6 4988   4.469   5.281   1.053 -0.3083  0.6528 -1.1008
  228ccc     N1 4989   4.108   5.071   0.983 -1.1014  0.3546  0.3129
  228ccc     H7 4990   4.043   5.136   0.939 -0.1955  1.9508  1.2523
  228ccc     H8 4991   4.153   5.039   0.897  0.8700  1.0592  1.0344
  228ccc     O1 4992   4.328   5.432   1.084  0.0050  0.0866  0.3749
  229ccc     C1 4993   4.501   6.602   1.262 -0.1724  0.2981  0.4108
  229ccc     H1 4994   4.579   6.560   1.198 -0.7953 -0.0949 -0.1000
  229ccc     H2 4995   4.427   6.654   1.201  1.4172  1.3280 -0.6981
  229ccc     C2 4996   4.432   6.483   1.336 -0.0774 -0.1452  0.1972
  229ccc     H3 4997   4.497   6.441   1.414  0.2760  0.2388  0.1144
  229ccc     H4 4998   4.359   6.534   1.400 -1.1622 -1.1612 -0.2154
  229ccc     C3 4999   4.376   6.372   1.246  0.5598 -0.1607  0.3461
  229ccc     H5 5000   4.291   6.409   1.187 -1.7833 -3.9219  0.9923
  229ccc     H6 5001   4.332   6.302   1.318  0.3681 -0.7960 -0.3842
  229ccc     N1 5002   4.558   6.696   1.354 -0.1582 -0.1906 -0.0162
  229ccc     H7 5003   4.643   6.650   1.390  1.7533  1.9757 -1.4990
  229ccc     H8 5004   4.608   6.764   1.298 -1.8748  1.3845  0.2861
  229ccc     O1 5005   4.477   6.306   1.167 -0.3882 -0.2178  1.0155
  230ccc     C1 5006   1.892   5.528   1.458  0.4429 -0.3514  0.0387
  230ccc     H1 5007   1.929   5.445   1.397  1.6229 -0.2085  0.5180
  230ccc     H2 5008   1.969   5.607   1.464 -0.1496  0.2752 -0.3731
  230ccc     C2 5009   1.776   5.595   1.378 -0.6485  0.2566  0.0215
  230ccc     H3 5010   1.701   5.523   1.343  1.0623 -0.6584 -2.0157
  230ccc     H4 5011   1.716   5.663   1.440  0.5841  0.4266  1.0663
  230ccc     C3 5012   1.826   5.674   1.255 -0.9277 -0.7756 -0.0340
  230ccc     H5 5013   1.922   5.718   1.285 -1.0247 -1.8520  2.0615
  230ccc     H6 5014   1.750   5.747   1.224  0.6376  2.0129  2.1585
  230ccc     N1 5015   1.865   5.485   1.596  0.5292  0.2775  0.6188
  230ccc     H7 5016   1.788   5.417   1.599 -0.9974  1.9414  2.4424
  230ccc     H8 5017   1.942   5.423   1.621  0.3625 -1.7059 -3.1653
  230ccc     O1 5018   1.839   5.570   1.153 -0.1051 -0.2102  0.0681
  231ccc     C1 5019   1.276   4.642   0.460 -0.5077 -0.9617 -0.5397
  231ccc     H1 5020   1.235   4.601   0.553 -2.7209 -0.9860 -1.4657
  231ccc     H2 5021   1.201   4.685   0.393  0.1653  0.0649 -0.6478
  231ccc     C2 5022   1.372   4.760   0.487  0.3516  0.5397  0.3244
  231ccc     H3 5023   1.469   4.715   0.513  0.5861 -1.4207 -3.2311
  231ccc     H4 5024   1.387   4.815   0.393 -0.9971 -0.3224 -0.4167
  231ccc     C3 5025   1.319   4.865   0.588 -0.2042 -0.7534 -0.8274
  231ccc     H5 5026   1.253   4.809   0.656  0.1704 -0.6698 -0.3937
  231ccc     H6 5027   1.251   4.929   0.530 -0.7760 -0.9834 -0.4192
  231ccc     N1 5028   1.344   4.535   0.403 -0.2117  0.6512 -0.3588
  231ccc     H7 5029   1.401   4.496   0.478  0.2634  0.3923 -0.8515
  231ccc     H8 5030   1.278   4.458   0.390  0.7174 -0.4719  1.2631
  231ccc     O1 5031   1.410   4.951   0.653  0.6011  0.0656 -0.3596
  232ccc     C1 5032   1.671   4.581   1.944  0.0682 -0.0181 -0.2244
  232ccc     H1 5033   1.605   4.528   1.874  0.8688 -2.0351  0.4827
  232ccc     H2 5034   1.760   4.518   1.955 -1.0176 -2.2906 -3.0198
  232ccc     C2 5035   1.723   4.718   1.892 -0.4175 -0.3479 -0.0970
  232ccc     H3 5036   1.638   4.787   1.881 -0.7942 -0.6551  0.8073
  232ccc     H4 5037   1.799   4.763   1.957  1.4936 -0.8012 -1.9236
  232ccc     C3 5038   1.800   4.715   1.755 -0.0993  0.0123  0.2290
  232ccc     H5 5039   1.733   4.656   1.692 -1.8560  2.9413 -0.7946
  232ccc     H6 5040   1.903   4.675   1.756 -0.1830 -0.2195  1.6933
  232ccc     N1 5041   1.594   4.592   2.059 -0.0934 -0.1010  0.2408
  232ccc     H7 5042   1.646   4.652   2.122 -1.2241 -0.4406  1.5234
  232ccc     H8 5043   1.528   4.662   2.028  0.1222 -0.7295 -1.7963
  232ccc     O1 5044   1.811   4.841   1.697  0.1235 -0.2249 -0.6906
  233ccc     C1 5045   1.351   5.819   1.250  0.4353  0.1914  0.4679
  233ccc     H1 5046   1.450   5.841   1.291  0.8774 -2.3509  0.9755
  233ccc     H2 5047   1.312   5.887   1.174 -0.2033 -1.2914 -0.5859
  233ccc     C2 5048   1.368   5.680   1.190 -0.1656  0.7387 -0.0223
  233ccc     H3 5049   1.282   5.636   1.139  2.1411  0.0162 -3.6212
  233ccc     H4 5050   1.446   5.687   1.113  0.8305  3.7185  1.1078
  233ccc     C3 5051   1.399   5.573   1.291  0.1350 -0.0743 -0.0879
  233ccc     H5 5052   1.307   5.567   1.350 -0.3870  2.2440 -0.5895
  233ccc     H6 5053   1.483   5.607   1.352  0.8140  0.0084 -1.0402
  233ccc     N1 5054   1.264   5.820   1.367  0.3571  0.8507  0.1227
  233ccc     H7 5055   1.262   5.917   1.398 -0.0861  0.1418  2.4767
  233ccc     H8 5056   1.168   5.811   1.334  1.1610  1.5726 -2.7087
  233ccc     O1 5057   1.439   5.450   1.233 -0.5723 -0.2488  0.2452
  234ccc     C1 5058   2.948   4.417  -0.226  0.3796  0.1073  0.3608
  234ccc     H1 5059   2.928   4.356  -0.138 -1.3505 -0.7694 -0.5841
  234ccc     H2 5060   2.857   4.441  -0.282 -0.1977  0.1236  1.3015
  234ccc     C2 5061   3.028   4.541  -0.188  0.3788 -0.0376 -0.1035
  234ccc     H3 5062   3.123   4.514  -0.140 -0.0073  0.6568  1.1157
  234ccc     H4 5063   3.056   4.596  -0.278  0.4592 -1.6215 -1.0846
  234ccc     C3 5064   2.950   4.632  -0.092 -0.0976 -0.6586 -0.1995
  234ccc     H5 5065   2.885   4.702  -0.148  0.4337 -0.2106 -0.2646
  234ccc     H6 5066   3.023   4.687  -0.030 -1.3250  1.1749 -0.2769
  234ccc     N1 5067   3.039   4.334  -0.313  0.8649 -0.1732  0.3463
  234ccc     H7 5068   2.987   4.251  -0.341 -0.7986  0.5672  1.1284
  234ccc     H8 5069   3.056   4.382  -0.401 -0.3980 -1.0800 -0.4173
  234ccc     O1 5070   2.867   4.556   0.003  0.6550  0.2135 -0.3645
  235ccc     C1 5071   1.842   4.168   0.176 -0.3637 -0.1214  0.3274
  235ccc     H1 5072   1.829   4.276   0.185  0.7632  0.0758 -0.2103
  235ccc     H2 5073   1.820   4.126   0.077  3.0496 -1.5597  0.0141
  235ccc     C2 5074   1.994   4.146   0.192 -0.4437  0.0020 -0.2548
  235ccc     H3 5075   2.014   4.138   0.299  1.0234 -0.5402 -0.5485
  235ccc     H4 5076   2.039   4.063   0.137  1.4122  0.9261 -0.2443
  235ccc     C3 5077   2.078   4.269   0.162  0.0785  0.0697  0.0293
  235ccc     H5 5078   2.041   4.352   0.224  2.1395  0.3530  0.9698
  235ccc     H6 5079   2.073   4.288   0.054  0.5208  0.3687  0.0581
  235ccc     N1 5080   1.777   4.106   0.282  0.7162 -0.0242 -0.3568
  235ccc     H7 5081   1.826   4.017   0.291 -0.4009 -0.4498  2.7698
  235ccc     H8 5082   1.803   4.157   0.366  1.1483  0.4249 -0.7592
  235ccc     O1 5083   2.222   4.242   0.191  0.3681 -0.4984 -0.0184
  236ccc     C1 5084   2.154   5.247   1.558 -0.3110 -0.0268 -0.4399
  236ccc     H1 5085   2.239   5.307   1.524  0.0743  0.3956  1.1654
  236ccc     H2 5086   2.083   5.210   1.483  2.0771 -1.9389 -1.9134
  236ccc     C2 5087   2.225   5.125   1.612  0.6890 -0.1106  0.2357
  236ccc     H3 5088   2.279   5.167   1.698  1.0075  1.7748 -0.8285
  236ccc     H4 5089   2.146   5.055   1.641 -1.4195  2.3150  0.7507
  236ccc     C3 5090   2.314   5.072   1.496 -0.5031  0.3162  0.7324
  236ccc     H5 5091   2.351   4.976   1.535  0.3001  0.2759 -0.0917
  236ccc     H6 5092   2.394   5.141   1.467 -0.3586 -1.1208 -2.7582
  236ccc     N1 5093   2.091   5.321   1.660  0.1711  0.3558 -0.4584
  236ccc     H7 5094   2.050   5.270   1.738  3.1874  0.7233  1.5803
  236ccc     H8 5095   2.171   5.358   1.712 -0.7549 -0.3478  1.5803
  236ccc     O1 5096   2.228   5.037   1.380 -0.5398  0.3687  0.1996
  237ccc     C1 5097   1.530   4.526   0.957 -0.1609  0.5432  0.3913
  237ccc     H1 5098   1.631   4.536   0.998  0.3009  0.0725 -0.5927
  237ccc     H2 5099   1.455   4.555   1.031  0.8277  1.0307  1.2372
  237ccc     C2 5100   1.508   4.615   0.832  0.2690 -0.1572  0.0411
  237ccc     H3 5101   1.562   4.567   0.749  1.2299  1.1511 -0.1327
  237ccc     H4 5102   1.402   4.621   0.805  0.4635 -0.2066 -0.7586
  237ccc     C3 5103   1.570   4.751   0.863  0.7483  1.0754 -0.3591
  237ccc     H5 5104   1.523   4.794   0.952  0.3568  2.0883 -1.0268
  237ccc     H6 5105   1.554   4.816   0.776  0.0653  0.6549 -0.5547
  237ccc     N1 5106   1.502   4.389   0.934 -0.1076 -0.6178 -0.2104
  237ccc     H7 5107   1.496   4.340   1.024  2.8114 -3.7921 -1.5038
  237ccc     H8 5108   1.407   4.392   0.896  0.2147 -0.8692 -1.0524
  237ccc     O1 5109   1.713   4.744   0.879  0.4796 -0.6397  0.5221
  238ccc     C1 5110   1.420   5.903  -0.133 -0.0672  0.5233  0.2797
  238ccc     H1 5111   1.346   5.983  -0.152  0.4125  0.8536 -0.2215
  238ccc     H2 5112   1.409   5.821  -0.204 -1.6282 -0.7801  1.9166
  238ccc     C2 5113   1.566   5.951  -0.116 -0.0116  0.7908 -0.2273
  238ccc     H3 5114   1.591   6.002  -0.022  0.5179 -0.4945  0.3566
  238ccc     H4 5115   1.634   5.866  -0.111 -1.8924 -0.7375  0.6874
  238ccc     C3 5116   1.616   6.031  -0.230  0.2741 -1.2666  0.0143
  238ccc     H5 5117   1.546   6.112  -0.251  3.5797  0.7435 -5.2179
  238ccc     H6 5118   1.640   5.969  -0.318  0.1901 -3.6890  1.6024
  238ccc     N1 5119   1.364   5.843  -0.015 -0.4921 -0.7700  0.1203
  238ccc     H7 5120   1.277   5.809  -0.056 -0.8345  1.8318 -1.4916
  238ccc     H8 5121   1.422   5.761   0.005  0.1799 -0.5698 -0.9174
  238ccc     O1 5122   1.740   6.087  -0.191  0.4999  0.1354  0.3709
  239ccc     C1 5123   1.794   7.099  -0.292 -0.1834 -0.4989 -0.1856
  239ccc     H1 5124   1.880   7.052  -0.242 -0.2749 -1.7418 -1.1500
  239ccc     H2 5125   1.796   7.078  -0.399  0.6097 -2.2054  0.1303
  239ccc     C2 5126   1.670   7.030  -0.235  0.5275  0.3802 -0.1867
  239ccc     H3 5127   1.660   7.037  -0.126 -1.2915  1.9899 -0.3832
  239ccc     H4 5128   1.573   7.064  -0.273 -0.2091  0.6143  1.7792
  239ccc     C3 5129   1.667   6.885  -0.277 -0.4470 -0.8273 -0.3556
  239ccc     H5 5130   1.661   6.874  -0.386 -0.8841 -0.7506 -0.3423
  239ccc     H6 5131   1.576   6.840  -0.235 -1.3433  1.1691 -0.0289
  239ccc     N1 5132   1.793   7.244  -0.257 -0.8101 -0.6759  0.5637
  239ccc     H7 5133   1.838   7.287  -0.337  0.3986 -1.5520  0.7446
  239ccc     H8 5134   1.694   7.269  -0.258 -1.2036 -2.0833 -1.2303
  239ccc     O1 5135   1.789   6.827  -0.235 -0.3356 -0.1714 -0.0577
  240ccc     C1 5136   2.735   5.340  -1.631 -0.1574  0.0983  0.1771
  240ccc     H1 5137   2.786   5.406  -1.702  0.7186 -0.2988  0.4299
  240ccc     H2 5138   2.794   5.251  -1.608  0.5154  0.5997  0.4266
  240ccc     C2 5139   2.699   5.438  -1.516 -0.0954 -0.0226  0.8738
  240ccc     H3 5140   2.793   5.467  -1.467  0.8168  0.0348 -0.8462
  240ccc     H4 5141   2.656   5.531  -1.554  1.1622  0.1179 -0.2669
  240ccc     C3 5142   2.611   5.374  -1.413  0.1722  0.2414 -0.0625
  240ccc     H5 5143   2.510   5.355  -1.451  0.0767  0.8469 -0.1299
  240ccc     H6 5144   2.586   5.440  -1.330 -3.3003 -0.6285 -0.2710
  240ccc     N1 5145   2.623   5.285  -1.707  0.1403 -0.3562  0.1402
  240ccc     H7 5146   2.657   5.223  -1.781  0.3381  1.0788 -1.0139
  240ccc     H8 5147   2.591   5.211  -1.644  1.2277 -1.1657 -0.2383
  240ccc     O1 5148   2.678   5.256  -1.362  0.0462 -0.1725  0.2322
  241ccc     C1 5149   2.902   4.758  -0.643  0.0381 -0.1501  0.1691
  241ccc     H1 5150   2.834   4.673  -0.657 -0.0758 -0.1434  0.6522
  241ccc     H2 5151   2.887   4.839  -0.716 -1.0735 -0.5207 -0.0273
  241ccc     C2 5152   2.880   4.811  -0.502 -0.1372 -0.1438 -0.0448
  241ccc     H3 5153   2.864   4.730  -0.430 -1.6399  0.5990  0.5010
  241ccc     H4 5154   2.965   4.869  -0.464 -0.8860  0.8445  0.1779
  241ccc     C3 5155   2.752   4.896  -0.493 -0.5739  0.8859 -1.0173
  241ccc     H5 5156   2.755   4.956  -0.401  1.6652  2.1317 -1.8146
  241ccc     H6 5157   2.667   4.829  -0.477  0.9700 -0.8515  0.3029
  241ccc     N1 5158   3.032   4.702  -0.664  0.1252 -0.4019  0.6857
  241ccc     H7 5159   3.039   4.694  -0.765  0.9455 -0.4505  0.7379
  241ccc     H8 5160   3.108   4.765  -0.640 -0.6645  0.3624  1.2296
  241ccc     O1 5161   2.750   4.992  -0.603 -0.4233  0.8638 -0.2236
  242ccc     C1 5162   3.095   6.738   0.441 -0.0415 -0.1052 -0.0805
  242ccc     H1 5163   3.037   6.748   0.349 -1.6126 -1.9043  0.6454
  242ccc     H2 5164   3.063   6.794   0.530 -1.6602 -0.5542 -0.3552
  242ccc     C2 5165   3.084   6.592   0.479  0.3240  0.0186 -0.5242
  242ccc     H3 5166   3.103   6.540   0.384 -0.6586 -0.1343 -0.6471
  242ccc     H4 5167   3.156   6.561   0.556 -0.7314  0.8165  0.8204
  242ccc     C3 5168   2.943   6.554   0.524  0.3220 -0.5442  1.0006
  242ccc     H5 5169   2.934   6.447   0.506  0.1049 -0.2354 -0.9491
  242ccc     H6 5170   2.865   6.606   0.466  0.6229 -1.5012 -0.2989
  242ccc     N1 5171   3.237   6.766   0.423 -0.2732  0.2297 -0.3435
  242ccc     H7 5172   3.258   6.731   0.329 -0.3146  1.4092 -0.8096
  242ccc     H8 5173   3.237   6.862   0.389  1.8845 -0.3928 -2.4438
  242ccc     O1 5174   2.926   6.584   0.659  0.1250 -0.1278  0.0313
  243ccc     C1 5175   2.848   6.885   1.688  0.1224 -0.6006 -0.2472
  243ccc     H1 5176   2.936   6.930   1.639 -0.3402 -0.3625 -0.8801
  243ccc     H2 5177   2.759   6.900   1.625 -0.9608  0.6899  1.4773
  243ccc     C2 5178   2.867   6.728   1.696  0.5148 -0.3239 -0.6801
  243ccc     H3 5179   2.951   6.715   1.766 -0.6455  3.1362  1.6169
  243ccc     H4 5180   2.782   6.686   1.751  0.2951 -0.4390 -1.1041
  243ccc     C3 5181   2.895   6.664   1.558 -0.4296  0.4038 -0.8081
  243ccc     H5 5182   2.957   6.574   1.564 -0.5115  0.3952  0.0419
  243ccc     H6 5183   2.952   6.724   1.487  0.6978 -0.6301 -0.8123
  243ccc     N1 5184   2.808   6.961   1.820  0.6377  0.7795  0.6221
  243ccc     H7 5185   2.747   7.038   1.794 -0.8994 -0.8723 -1.0028
  243ccc     H8 5186   2.734   6.902   1.858 -0.0633  1.3528  0.1741
  243ccc     O1 5187   2.768   6.626   1.501 -0.0312  0.3109 -0.1203
  244ccc     C1 5188   2.679   7.762   0.703 -0.2680 -0.0370 -0.5948
  244ccc     H1 5189   2.651   7.724   0.604 -1.0065  2.7368 -1.5462
  244ccc     H2 5190   2.590   7.810   0.747 -0.4308  0.9449 -1.9096
  244ccc     C2 5191   2.735   7.646   0.786  0.1773  0.7261  0.5599
  244ccc     H3 5192   2.820   7.604   0.731 -0.8672  1.4785 -1.7475
  244ccc     H4 5193   2.787   7.677   0.878  3.8951  1.0007 -1.4147
  244ccc     C3 5194   2.627   7.533   0.820  0.0587 -0.6849  1.4164
  244ccc     H5 5195   2.542   7.588   0.863 -0.2260  0.6147 -0.6656
  244ccc     H6 5196   2.663   7.459   0.893  0.3810 -0.9899  0.9534
  244ccc     N1 5197   2.778   7.867   0.669  0.2169 -0.0138  0.0251
  244ccc     H7 5198   2.819   7.916   0.748  1.2056  2.0368 -1.6598
  244ccc     H8 5199   2.864   7.830   0.628  0.5781  2.6884 -1.9151
  244ccc     O1 5200   2.585   7.472   0.694 -0.1843  0.4491  0.1462
  245ccc     C1 5201   2.211   6.920  -0.092  0.4006  0.2159  0.3804
  245ccc     H1 5202   2.226   6.816  -0.124 -2.5064 -0.7753  1.8340
  245ccc     H2 5203   2.153   6.918   0.001 -0.1944 -1.7177  0.0208
  245ccc     C2 5204   2.351   6.978  -0.075  0.7829 -0.3089  0.9506
  245ccc     H3 5205   2.411   6.922  -0.002  1.6801  0.6093  0.9450
  245ccc     H4 5206   2.409   6.965  -0.167  0.4441  2.3699  0.2802
  245ccc     C3 5207   2.349   7.126  -0.030  0.4459  0.1262 -0.1630
  245ccc     H5 5208   2.273   7.180  -0.089  0.4955 -1.0681 -1.3462
  245ccc     H6 5209   2.444   7.180  -0.033  0.1383  0.8418  1.5389
  245ccc     N1 5210   2.130   6.984  -0.197  0.6868 -0.5430  0.0876
  245ccc     H7 5211   2.046   6.926  -0.201 -0.1287  0.6527 -1.0301
  245ccc     H8 5212   2.098   7.075  -0.166  3.5257  1.1962 -1.7013
  245ccc     O1 5213   2.302   7.132   0.109 -0.1851  0.1459  0.1908
  246ccc     C1 5214   2.277   3.782   0.243 -0.2527 -0.2291 -0.2960
  246ccc     H1 5215   2.364   3.749   0.185  0.4111  0.3622  0.3350
  246ccc     H2 5216   2.228   3.701   0.299  0.1306  0.3850  0.9691
  246ccc     C2 5217   2.332   3.887   0.348  0.0103  0.5358  0.8011
  246ccc     H3 5218   2.407   3.843   0.414  1.2667 -1.4232 -1.7233
  246ccc     H4 5219   2.366   3.975   0.291  0.9493  0.2606  0.9218
  246ccc     C3 5220   2.215   3.934   0.431  0.2432  0.0465 -0.6721
  246ccc     H5 5221   2.186   3.854   0.500  0.9248 -1.3987 -1.9869
  246ccc     H6 5222   2.130   3.958   0.366  0.9400 -1.2371 -2.1096
  246ccc     N1 5223   2.170   3.845   0.162  0.1434  0.4214 -0.5289
  246ccc     H7 5224   2.189   3.945   0.156 -0.8536  0.7143  0.7834
  246ccc     H8 5225   2.176   3.794   0.075  0.6948 -2.0518  0.8713
  246ccc     O1 5226   2.255   4.042   0.512  0.3375  0.4116 -0.0238
  247ccc     C1 5227   2.989   4.322   0.644  0.7807 -0.2038  0.2295
  247ccc     H1 5228   3.001   4.252   0.727  0.5710 -0.8044 -0.2381
  247ccc     H2 5229   2.904   4.290   0.583 -0.3134 -3.9838  3.3270
  247ccc     C2 5230   2.956   4.467   0.703  0.0609  0.3453 -0.5643
  247ccc     H3 5231   3.038   4.497   0.770 -0.2181 -0.6722  0.2520
  247ccc     H4 5232   2.960   4.536   0.617  1.8371  0.5631 -0.3558
  247ccc     C3 5233   2.821   4.490   0.775 -0.2147 -0.6429  0.9581
  247ccc     H5 5234   2.819   4.594   0.812 -2.0121  0.1638 -1.1504
  247ccc     H6 5235   2.815   4.424   0.863  3.2121 -0.5531  1.3987
  247ccc     N1 5236   3.111   4.305   0.571 -0.2108  0.0877  0.0795
  247ccc     H7 5237   3.182   4.304   0.644  0.5401 -0.5868 -0.6423
  247ccc     H8 5238   3.114   4.205   0.550  0.2888 -0.5553  2.7529
  247ccc     O1 5239   2.713   4.468   0.687  0.2733  0.4279  0.3906
  248ccc     C1 5240   1.271   5.796  -0.491  0.2195  0.5163 -0.2857
  248ccc     H1 5241   1.289   5.699  -0.443 -2.6111  0.0310 -0.0477
  248ccc     H2 5242   1.347   5.865  -0.452  1.1601 -0.7204  0.1678
  248ccc     C2 5243   1.270   5.790  -0.646 -0.5461  0.0398 -0.3909
  248ccc     H3 5244   1.174   5.753  -0.684 -0.5168 -0.9146  0.4203
  248ccc     H4 5245   1.296   5.886  -0.692  1.6410 -0.4826 -0.3644
  248ccc     C3 5246   1.368   5.696  -0.708  0.3720 -0.5613 -0.7922
  248ccc     H5 5247   1.470   5.729  -0.691  0.1976 -0.2468 -0.3688
  248ccc     H6 5248   1.343   5.693  -0.815  2.0725  1.3081 -1.3003
  248ccc     N1 5249   1.149   5.842  -0.436  0.3225 -0.3173  0.0803
  248ccc     H7 5250   1.114   5.924  -0.487 -0.9414 -0.7717  0.1731
  248ccc     H8 5251   1.079   5.770  -0.455 -1.9653  1.3974  1.4054
  248ccc     O1 5252   1.346   5.563  -0.648 -0.0242  0.1595  0.5740
  249ccc     C1 5253   1.722   5.134  -1.309  0.0052 -0.5690 -0.3041
  249ccc     H1 5254   1.719   5.172  -1.412 -0.5639 -0.5054 -0.2637
  249ccc     H2 5255   1.645   5.060  -1.286 -0.5591  0.1072  0.0500
  249ccc     C2 5256   1.863   5.084  -1.288 -0.2663 -0.1158 -0.9608
  249ccc     H3 5257   1.880   5.008  -1.365 -0.4610 -0.1861 -0.9352
  249ccc     H4 5258   1.946   5.153  -1.304  0.3685 -0.3842  0.9076
  249ccc     C3 5259   1.879   5.005  -1.152 -0.7723 -0.0281  0.3908
  249ccc     H5 5260   1.976   4.955  -1.156 -0.1131  1.2830 -1.5298
  249ccc     H6 5261   1.794   4.937  -1.143 -2.0144  1.3359 -0.5292
  249ccc     N1 5262   1.688   5.244  -1.227  0.5281 -0.0236 -0.0984
  249ccc     H7 5263   1.586   5.249  -1.227  0.5126 -0.1879 -0.9250
  249ccc     H8 5264   1.717   5.206  -1.137 -0.6347  0.7634  0.6245
  249ccc     O1 5265   1.882   5.099  -1.040  0.5736 -0.0447  0.1770
  250ccc     C1 5266   0.875   4.859   0.210  0.3909 -0.2663  0.7812
  250ccc     H1 5267   0.867   4.773   0.278  0.6675 -1.2271 -0.3619
  250ccc     H2 5268   0.787   4.923   0.219  2.0841  2.3750 -0.1868
  250ccc     C2 5269   1.004   4.941   0.228 -0.3446  0.1716 -0.6618
  250ccc     H3 5270   1.088   4.886   0.184  1.6106  0.0480  2.8753
  250ccc     H4 5271   1.002   5.036   0.172 -2.5461  1.0969  0.8366
  250ccc     C3 5272   1.046   4.963   0.374 -0.8766  0.2187 -0.1891
  250ccc     H5 5273   1.134   5.026   0.390 -0.9491  0.2644  0.0301
  250ccc     H6 5274   1.071   4.863   0.412 -0.7852  0.1976 -0.3071
  250ccc     N1 5275   0.861   4.794   0.077 -0.1389 -0.3427 -0.1510
  250ccc     H7 5276   0.792   4.720   0.088  1.2061 -1.5830  0.2760
  250ccc     H8 5277   0.805   4.862   0.025 -0.9191 -1.9869 -1.5681
  250ccc     O1 5278   0.924   5.020   0.429  0.3265  0.2256  0.3737
  251ccc     C1 5279   0.060   4.713   0.552  0.2292 -0.3964  0.3109
  251ccc     H1 5280   0.072   4.809   0.603 -1.9128 -0.5684  1.2848
  251ccc     H2 5281   0.066   4.721   0.443  0.5763 -1.0192  0.2813
  251ccc     C2 5282   0.174   4.619   0.596  0.3856 -0.5072  0.0740
  251ccc     H3 5283   0.203   4.629   0.702  0.2744 -0.8970  0.1422
  251ccc     H4 5284   0.138   4.518   0.574 -1.8626  0.8323 -3.2885
  251ccc     C3 5285   0.306   4.644   0.513 -0.8972 -0.7616  0.0978
  251ccc     H5 5286   0.294   4.617   0.407 -3.2225  1.2376 -0.2499
  251ccc     H6 5287   0.393   4.589   0.551 -2.2460 -1.5896  2.1703
  251ccc     N1 5288  -0.080   4.653   0.580  0.1591  0.0648 -0.2606
  251ccc     H7 5289  -0.145   4.720   0.538 -0.5642 -0.8553 -0.6528
  251ccc     H8 5290  -0.105   4.573   0.521 -0.1772 -1.3264  1.6504
  251ccc     O1 5291   0.340   4.784   0.526  0.3080 -0.2219  0.5367
  252ccc     C1 5292   0.995   4.578   0.833 -0.4034 -0.0116  0.2686
  252ccc     H1 5293   0.952   4.675   0.805 -0.4245 -0.2511 -0.5403
  252ccc     H2 5294   1.046   4.525   0.752 -0.2215  0.0297  0.3551
  252ccc     C2 5295   1.096   4.585   0.940  1.1207  0.2170 -0.0471
  252ccc     H3 5296   1.108   4.486   0.986  1.3319 -1.0553 -2.6337
  252ccc     H4 5297   1.196   4.603   0.899  2.0577  0.4330  2.1998
  252ccc     C3 5298   1.069   4.710   1.029  0.5170  0.2476  0.6742
  252ccc     H5 5299   0.960   4.718   1.038  0.4610  0.8154 -0.3778
  252ccc     H6 5300   1.100   4.801   0.978 -2.2063  1.8946  1.7354
  252ccc     N1 5301   0.873   4.506   0.868  0.2508  0.5401 -0.3932
  252ccc     H7 5302   0.810   4.537   0.795  0.8162  0.3587 -0.9634
  252ccc     H8 5303   0.903   4.414   0.837 -0.7641  0.5869 -1.5854
  252ccc     O1 5304   1.134   4.693   1.150 -0.3787 -0.4026  0.2984
  253ccc     C1 5305   1.695   4.235   1.280  0.4594  1.0575  0.6334
  253ccc     H1 5306   1.606   4.289   1.316 -0.1074 -0.3572  1.4708
  253ccc     H2 5307   1.655   4.152   1.220 -0.4009  1.3059  0.8392
  253ccc     C2 5308   1.784   4.339   1.198  0.5223  0.1992 -0.0041
  253ccc     H3 5309   1.885   4.296   1.191 -0.1058 -1.1538 -1.3126
  253ccc     H4 5310   1.748   4.347   1.095 -1.6132 -2.3815  0.4218
  253ccc     C3 5311   1.795   4.480   1.258  0.3345  0.2560 -0.3617
  253ccc     H5 5312   1.877   4.529   1.203 -1.4077  0.0793 -3.2726
  253ccc     H6 5313   1.812   4.480   1.367  0.2564  0.8482 -0.3443
  253ccc     N1 5314   1.771   4.174   1.389 -0.0384 -0.0743 -0.3176
  253ccc     H7 5315   1.705   4.146   1.462  0.1537  1.0109  0.2996
  253ccc     H8 5316   1.821   4.090   1.361 -1.6827 -1.5536  0.9256
  253ccc     O1 5317   1.662   4.550   1.235 -0.0944  0.3733 -0.0858
  254SOL     OW 5318   4.484   2.794   7.452  0.5281  0.1674 -0.5541
  254SOL    HW1 5319   4.519   2.726   7.395 -0.2751 -0.4649 -0.3092
  254SOL    HW2 5320   4.389   2.792   7.436  0.4525  0.9339 -0.2262
  255SOL     OW 5321  10.076  11.487   3.961  0.7993 -0.7388 -0.0741
  255SOL    HW1 5322  10.019  11.562   3.941  1.5798  0.8429  3.0695
  255SOL    HW2 5323  10.025  11.434   4.022  1.4255 -1.1066  0.1347
  256SOL     OW 5324   9.923   1.874  11.044  0.7175 -0.0531  0.5303
  256SOL    HW1 5325   9.991   1.862  10.977  0.7702 -3.1148  0.9619
  256SOL    HW2 5326   9.890   1.962  11.030  2.1048  0.1298 -2.2266
  257SOL     OW 5327   7.331   3.058  11.717 -0.5611  0.0242  0.2480
  257SOL    HW1 5328   7.270   3.131  11.727 -0.5784  0.2904 -1.5501
  257SOL    HW2 5329   7.416   3.094  11.741 -0.4332  0.9146 -1.3919
  258SOL     OW 5330   4.197   8.555   8.563 -0.0940 -0.1129  0.1436
  258SOL    HW1 5331   4.204   8.641   8.605 -0.6655 -0.4443  0.9267
  258SOL    HW2 5332   4.111   8.556   8.521 -0.3579 -0.5383  0.6776
  259SOL     OW 5333   6.101   3.525   4.460  0.3726 -0.5671 -0.2885
  259SOL    HW1 5334   6.070   3.473   4.534 -2.1684 -1.5606 -1.9046
  259SOL    HW2 5335   6.190   3.551   4.484 -0.1248 -1.3408  2.7944
  260SOL     OW 5336  10.942   3.331   6.379  0.1472  0.2903 -0.4859
  260SOL    HW1 5337  10.895   3.414   6.385 -1.9418 -0.9364  2.4850
  260SOL    HW2 5338  10.909   3.290   6.299 -0.8705  1.1310 -0.5165
  261SOL     OW 5339   3.264  10.797   7.260  0.8032  0.9463  0.0589
  261SOL    HW1 5340   3.193  10.807   7.196 -0.0186 -2.8446  0.1628
  261SOL    HW2 5341   3.323  10.870   7.241 -1.8088  2.8318 -1.6993
  262SOL     OW 5342   6.942  11.169   4.755  0.4390  0.0536 -0.4537
  262SOL    HW1 5343   6.936  11.160   4.850 -1.2455  1.3886 -0.3842
  262SOL    HW2 5344   7.013  11.110   4.730  1.9814  0.7892  1.8005
  263SOL     OW 5345  10.416   1.973   0.366 -0.7030  0.2193  0.0248
  263SOL    HW1 5346  10.344   2.018   0.409 -1.4906 -1.0320  0.0817
  263SOL    HW2 5347  10.453   1.916   0.434 -0.9117 -0.5619 -0.5026
  264SOL     OW 5348   0.258   7.698   4.047 -0.3827 -0.0143  0.4279
  264SOL    HW1 5349   0.335   7.647   4.072 -0.5497 -0.4105  0.1366
  264SOL    HW2 5350   0.241   7.674   3.956  0.9253  2.2853 -0.5229
  265SOL     OW 5351   7.279   5.739  10.049  0.3630 -0.4031  0.1983
  265SOL    HW1 5352   7.220   5.701  10.113  2.0509 -0.3639  1.8650
  265SOL    HW2 5353   7.367   5.725  10.085  1.3925 -0.1750 -2.0010
  266SOL     OW 5354   9.727   2.845   4.699 -0.1787 -0.5950  0.2927
  266SOL    HW1 5355   9.774   2.867   4.780  0.3241 -2.3202  0.5133
  266SOL    HW2 5356   9.779   2.885   4.629 -2.4157  3.9065  0.8867
  267SOL     OW 5357   7.783   6.791   3.731  0.2050 -0.0383  0.2177
  267SOL    HW1 5358   7.793   6.881   3.702  0.4531  0.0822  0.6690
  267SOL    HW2 5359   7.691   6.784   3.756  0.0211 -0.1091 -0.4753
  268SOL     OW 5360  10.992   1.845   9.913 -0.6434  0.1653 -0.5422
  268SOL    HW1 5361  10.902   1.851   9.883 -0.5087  1.4076 -0.7216
  268SOL    HW2 5362  11.023   1.935   9.915  0.3235 -0.1696  0.3545
  269SOL     OW 5363   4.692   4.887   9.614 -0.4872  0.4396 -0.0816
  269SOL    HW1 5364   4.768   4.854   9.566 -0.6251 -0.2054  0.1361
  269SOL    HW2 5365   4.722   4.970   9.652 -0.3372  0.8928 -1.1588
  270SOL     OW 5366  11.170   0.075   5.134  0.5509 -0.2216 -0.3936
  270SOL    HW1 5367  11.251   0.080   5.083  0.9922  1.4288  0.4169
  270SOL    HW2 5368  11.199   0.060   5.224 -0.0459  0.1159 -0.1396
  271SOL     OW 5369   8.630   3.196   3.057 -0.1311 -0.5056 -0.1226
  271SOL    HW1 5370   8.673   3.148   3.128 -3.3310 -0.3734  2.1676
  271SOL    HW2 5371   8.663   3.285   3.065 -0.0920 -0.5979  0.9373
  272SOL     OW 5372   7.243   1.749   7.887  0.5399 -0.3103 -0.0088
  272SOL    HW1 5373   7.172   1.791   7.936  0.3355 -0.2024 -0.3960
  272SOL    HW2 5374   7.258   1.666   7.934  0.1536 -0.3379  0.0698
  273SOL     OW 5375  12.006   8.783   6.666  0.2138 -0.4009 -0.4184
  273SOL    HW1 5376  11.926   8.804   6.714  0.1583  0.4154 -0.8452
  273SOL    HW2 5377  11.981   8.710   6.609 -0.1211 -0.3956 -0.2836
  274SOL     OW 5378   9.596   4.069   5.796 -0.7400 -0.2223  0.0502
  274SOL    HW1 5379   9.559   3.987   5.763 -0.4721 -0.5822  0.6201
  274SOL    HW2 5380   9.526   4.109   5.848 -1.5954  0.9665 -1.9277
  275SOL     OW 5381   1.386   1.078   1.961 -0.6044  0.1264 -0.2958
  275SOL    HW1 5382   1.454   1.145   1.962 -0.1433 -0.2527 -2.1999
  275SOL    HW2 5383   1.335   1.095   2.040  1.4426  0.6574  0.9896
  276SOL     OW 5384   0.678   9.698  11.041  0.2965 -0.5694  0.4335
  276SOL    HW1 5385   0.657   9.673  10.951  2.0977 -2.2124  0.4056
  276SOL    HW2 5386   0.673   9.616  11.090 -1.5011  0.4338  2.0563
  277SOL     OW 5387  11.473   4.170  10.041 -0.4516  0.6447 -0.4920
  277SOL    HW1 5388  11.545   4.143  10.098 -1.2417 -0.6426 -0.0675
  277SOL    HW2 5389  11.469   4.265  10.051  0.2429  0.5782  0.5973
  278SOL     OW 5390   7.936  10.125   2.397  0.0093 -0.5439 -0.5035
  278SOL    HW1 5391   7.876  10.195   2.424  0.0212 -0.2953 -1.1228
  278SOL    HW2 5392   7.972  10.092   2.480 -0.6331 -0.3887 -0.1514
  279SOL     OW 5393   9.716   0.659   1.800 -0.1747  0.0475  0.0104
  279SOL    HW1 5394   9.729   0.745   1.761  2.3683 -0.3370 -0.1143
  279SOL    HW2 5395   9.732   0.598   1.728 -0.9155 -0.5694  0.3602
  280SOL     OW 5396   5.923  10.139   3.421 -0.7620 -0.2380 -0.0370
  280SOL    HW1 5397   5.957  10.116   3.507 -1.3904 -1.7159 -0.1554
  280SOL    HW2 5398   5.873  10.219   3.436 -0.6137 -0.3053  0.9109
  281SOL     OW 5399   9.120   3.886   8.598  0.1691  0.1420  0.2085
  281SOL    HW1 5400   9.126   3.792   8.617 -1.2366  0.0968  0.5726
  281SOL    HW2 5401   9.170   3.928   8.668  3.1302 -0.3884 -1.4373
  282SOL     OW 5402   6.613   9.642   7.990  0.0263 -0.6920  0.1796
  282SOL    HW1 5403   6.554   9.654   8.064 -0.9941  0.3626 -0.7703
  282SOL    HW2 5404   6.557   9.649   7.913  1.6090  2.1176 -0.8476
  283SOL     OW 5405   0.964   3.371   9.837 -0.0616  0.3799  0.2443
  283SOL    HW1 5406   1.017   3.311   9.784 -2.4988 -0.6800 -1.1685
  283SOL    HW2 5407   1.003   3.366   9.924  0.8017 -2.1214 -0.1846
  284SOL     OW 5408   4.074   4.877   8.977  0.4043 -0.2481 -0.5124
  284SOL    HW1 5409   4.162   4.860   9.010  0.8459  0.4644 -1.2827
  284SOL    HW2 5410   4.048   4.796   8.933  0.5389 -0.5749  0.0132
  285SOL     OW 5411   2.012   3.272   8.084 -0.2426  0.1212  0.6841
  285SOL    HW1 5412   1.967   3.354   8.064  0.2403  0.4069  0.7474
  285SOL    HW2 5413   1.994   3.258   8.177  0.8593  0.9181  1.0383
  286SOL     OW 5414   3.908  10.755   8.671 -0.1082  0.3046  0.0346
  286SOL    HW1 5415   3.813  10.761   8.661 -0.3633 -2.0786  0.4851
  286SOL    HW2 5416   3.943  10.811   8.601 -1.8306  0.6021 -0.6338
  287SOL     OW 5417   7.830   2.046   5.680  0.0305 -0.6402 -0.3103
  287SOL    HW1 5418   7.845   1.980   5.613  0.3747 -0.4781 -0.3964
  287SOL    HW2 5419   7.918   2.077   5.704  0.0099 -1.5380  1.0585
  288SOL     OW 5420   6.171   7.167   9.331 -0.2738 -0.0317  0.5774
  288SOL    HW1 5421   6.204   7.088   9.289 -1.1494  0.5899 -1.3544
  288SOL    HW2 5422   6.080   7.147   9.351 -0.1676  0.0757  1.1912
  289SOL     OW 5423   4.964   6.639   3.356 -0.0445  0.1110 -0.6741
  289SOL    HW1 5424   4.939   6.553   3.390 -1.5017  1.3986  1.7883
  289SOL    HW2 5425   4.882   6.679   3.328  0.2788  1.5187  0.3095
  290SOL     OW 5426   5.130  10.804   9.909  0.2006  0.1639  0.6047
  290SOL    HW1 5427   5.141  10.710   9.923  0.7411 -0.5728 -3.3859
  290SOL    HW2 5428   5.036  10.818   9.911 -0.0087 -0.8887 -0.4781
  291SOL     OW 5429   8.534   7.674   0.343 -0.2431 -0.0134 -0.2006
  291SOL    HW1 5430   8.501   7.584   0.341 -1.5524  0.4479 -0.8625
  291SOL    HW2 5431   8.609   7.671   0.402 -1.0637 -1.2770  0.8357
  292SOL     OW 5432   9.859   2.354   1.436  0.2258  0.1701 -0.2587
  292SOL    HW1 5433   9.772   2.393   1.427  0.7946  1.7769  0.8531
  292SOL    HW2 5434   9.878   2.359   1.530  1.2669 -0.7213 -0.4108
  293SOL     OW 5435   8.505   7.173  10.565 -0.1109 -0.1360 -0.0462
  293SOL    HW1 5436   8.565   7.100  10.549  0.7858  0.7249 -0.7173
  293SOL    HW2 5437   8.443   7.169  10.492  0.3569  0.1710 -0.4721
  294SOL     OW 5438   6.253   2.051   7.203  0.5418 -0.1293  0.0020
  294SOL    HW1 5439   6.302   2.014   7.130  2.2564 -2.4888  2.1466
  294SOL    HW2 5440   6.317   2.058   7.274 -0.7753  3.0103  1.0929
  295SOL     OW 5441   5.693   2.491  10.250 -0.1744  0.5039  0.5446
  295SOL    HW1 5442   5.691   2.585  10.269 -0.5902  0.2449  1.9566
  295SOL    HW2 5443   5.705   2.450  10.336 -1.1428 -0.7705  0.1061
  296SOL     OW 5444  10.982   6.255  11.571  0.1162  0.3915 -0.1617
  296SOL    HW1 5445  10.904   6.207  11.598  1.2920 -1.7030 -0.2772
  296SOL    HW2 5446  11.048   6.231  11.635  1.2977  0.2163 -1.4019
  297SOL     OW 5447   5.274   9.747   6.644 -0.3964 -0.9421  0.0751
  297SOL    HW1 5448   5.278   9.820   6.706 -0.8701 -1.4418  0.7086
  297SOL    HW2 5449   5.365   9.721   6.632 -0.2715 -0.6040  0.2868
  298SOL     OW 5450   5.730  10.804   4.233  0.1522  0.3748  0.0045
  298SOL    HW1 5451   5.679  10.884   4.241  0.1895  0.2100  2.6498
  298SOL    HW2 5452   5.666  10.737   4.211 -0.5848  0.4469  1.7773
  299SOL     OW 5453   5.932   0.037  11.565  0.6205 -0.6607 -0.1006
  299SOL    HW1 5454   5.902   0.120  11.601  1.0081  0.1041 -1.4890
  299SOL    HW2 5455   5.959   0.057  11.475 -1.3772 -2.6666 -1.2805
  300SOL     OW 5456  10.078  11.259  10.566  0.0091 -0.1555  0.1583
  300SOL    HW1 5457  10.151  11.263  10.504 -0.2259  1.3345 -0.0481
  300SOL    HW2 5458  10.112  11.297  10.647  0.5482 -2.7576  1.2732
  301SOL     OW 5459   1.822  11.749   7.471 -0.0793 -0.3770 -0.0742
  301SOL    HW1 5460   1.749  11.788   7.423 -0.4934 -1.7375 -0.5862
  301SOL    HW2 5461   1.792  11.661   7.494  1.0901 -0.6678  0.4438
  302SOL     OW 5462  10.250   5.011   6.654  0.4541 -0.6159 -0.1032
  302SOL    HW1 5463  10.228   5.080   6.716  1.4172 -0.2651 -0.1304
  302SOL    HW2 5464  10.342   5.026   6.633  0.4672 -1.4453 -0.7064
  303SOL     OW 5465   5.183   5.064   6.473  0.2492 -0.2509  0.2726
  303SOL    HW1 5466   5.121   4.991   6.475  0.9155 -0.8167  1.7332
  303SOL    HW2 5467   5.181   5.100   6.562  1.0531  0.5631 -0.0218
  304SOL     OW 5468   3.065   9.802   4.746  1.1239  0.0451  0.1410
  304SOL    HW1 5469   3.149   9.836   4.775  1.9015 -1.1849 -0.5558
  304SOL    HW2 5470   3.065   9.710   4.773 -0.6307  0.3633  1.4016
  305SOL     OW 5471  11.298   4.866   0.974  0.1341 -0.2615 -0.1725
  305SOL    HW1 5472  11.210   4.838   0.997  0.5667 -0.7101  1.0466
  305SOL    HW2 5473  11.299   4.960   0.993  0.2809 -0.4983  1.0942
  306SOL     OW 5474   1.867   4.783   6.303 -0.8126  0.6300 -0.2904
  306SOL    HW1 5475   1.909   4.824   6.227  1.4030  2.3920  1.7245
  306SOL    HW2 5476   1.932   4.723   6.338 -1.9787 -0.5122  0.0035
  307SOL     OW 5477   2.587   3.741  10.352 -0.1335  0.1726 -0.2983
  307SOL    HW1 5478   2.526   3.740  10.426 -0.3502  0.2199 -0.4754
  307SOL    HW2 5479   2.669   3.709  10.389  0.0631  1.2213  0.2160
  308SOL     OW 5480   0.060  10.676   5.101  0.1058 -0.0499  0.6445
  308SOL    HW1 5481   0.068  10.664   5.196 -1.7337 -2.6775  0.5927
  308SOL    HW2 5482   0.008  10.756   5.092 -0.4429 -0.2183  1.9275
  309SOL     OW 5483   5.298  11.932   8.189  0.3303 -0.1437 -0.6626
  309SOL    HW1 5484   5.348  11.875   8.131  0.3962 -1.0156  0.2259
  309SOL    HW2 5485   5.207  11.918   8.163  0.3030 -1.0431 -0.1470
  310SOL     OW 5486   1.188   6.428  11.135  0.0478 -0.1187  0.1196
  310SOL    HW1 5487   1.265   6.405  11.186 -0.1100 -0.8977  0.0280
  310SOL    HW2 5488   1.152   6.344  11.106  0.2627  0.2977 -1.4598
  311SOL     OW 5489   1.217   3.342  11.203 -0.0467 -0.3923  0.1304
  311SOL    HW1 5490   1.308   3.334  11.174 -0.4333 -1.1167 -0.9528
  311SOL    HW2 5491   1.190   3.428  11.173  0.0040 -0.5470 -0.3639
  312SOL     OW 5492   0.153   3.191   1.187 -0.0171  0.6417 -0.6365
  312SOL    HW1 5493   0.157   3.285   1.200 -0.6531  0.7749 -1.3276
  312SOL    HW2 5494   0.244   3.162   1.192 -0.0293  0.8651  2.3312
  313SOL     OW 5495   6.848   4.737   1.212 -0.4986 -0.2127  0.1850
  313SOL    HW1 5496   6.761   4.755   1.248 -0.6229 -0.2253 -0.1066
  313SOL    HW2 5497   6.851   4.788   1.131 -0.2177 -0.1783  0.2172
  314SOL     OW 5498   0.254   1.134   3.406  0.1630 -0.1354  0.1880
  314SOL    HW1 5499   0.328   1.152   3.465  0.4556 -1.1272  0.1364
  314SOL    HW2 5500   0.292   1.134   3.319 -0.0281  0.0247  0.1039
  315SOL     OW 5501   7.707   1.575   8.496  0.4096  0.1267 -0.1315
  315SOL    HW1 5502   7.770   1.512   8.531  1.2292  0.9781 -0.0484
  315SOL    HW2 5503   7.672   1.620   8.574 -1.6413 -1.5280 -0.0102
  316SOL     OW 5504   4.605   8.620   5.667 -0.3928 -0.4168  0.4257
  316SOL    HW1 5505   4.577   8.554   5.603 -1.2894 -1.2006  1.5952
  316SOL    HW2 5506   4.700   8.623   5.658 -0.4469 -0.9408 -0.5167
  317SOL     OW 5507   6.746  11.511  10.291 -0.2931 -0.1039  0.5663
  317SOL    HW1 5508   6.712  11.592  10.253 -0.5927 -0.3304  0.3419
  317SOL    HW2 5509   6.671  11.451  10.289  0.1560 -0.6539 -0.0456
  318SOL     OW 5510  10.161  11.177  10.154  0.4236  0.7219 -0.2586
  318SOL    HW1 5511  10.072  11.154  10.128  0.8841  0.8258 -2.0956
  318SOL    HW2 5512  10.184  11.249  10.096  1.4984  1.0859  0.6034
  319SOL     OW 5513  11.607   3.863   9.080  0.1621 -0.6170  0.2880
  319SOL    HW1 5514  11.608   3.934   9.017  1.9041  0.0264  0.9710
  319SOL    HW2 5515  11.674   3.802   9.049 -0.3983 -1.3249  0.4240
  320SOL     OW 5516   7.265   3.580   9.211 -0.4576  0.3668 -0.0236
  320SOL    HW1 5517   7.315   3.647   9.257 -1.9113  0.2807  1.8168
  320SOL    HW2 5518   7.179   3.619   9.198 -1.0156 -0.7750  0.1388
  321SOL     OW 5519   4.161   9.177  11.000 -0.2366  0.2097 -0.2676
  321SOL    HW1 5520   4.075   9.147  10.968  0.1142 -0.5375 -0.5326
  321SOL    HW2 5521   4.199   9.224  10.925  0.8569 -2.0939 -1.2434
  322SOL     OW 5522   1.170   4.284   2.162  0.0810  0.6223 -0.1491
  322SOL    HW1 5523   1.213   4.249   2.084 -0.4804  1.7643 -0.9926
  322SOL    HW2 5524   1.224   4.359   2.188  0.8255 -0.3270  1.1714
  323SOL     OW 5525   6.408   0.230   3.610 -0.3667  0.3788 -0.1239
  323SOL    HW1 5526   6.480   0.268   3.560  0.9144 -1.1077  0.4859
  323SOL    HW2 5527   6.348   0.196   3.544  0.0058  0.7185 -0.6390
  324SOL     OW 5528   3.237   3.727   8.705  0.2683 -0.2783  0.2299
  324SOL    HW1 5529   3.276   3.726   8.792  2.1408 -1.2788 -0.5683
  324SOL    HW2 5530   3.303   3.769   8.649 -0.5542 -0.3854 -0.8578
  325SOL     OW 5531   6.262   3.056   7.043 -0.2440 -0.3862 -0.1494
  325SOL    HW1 5532   6.262   3.149   7.024  1.1311 -0.3092  0.1348
  325SOL    HW2 5533   6.285   3.015   6.960  0.1456 -0.4047 -0.0340
  326SOL     OW 5534   1.272  11.038   7.943 -0.1906  0.2613 -0.1959
  326SOL    HW1 5535   1.366  11.029   7.957 -0.2053 -2.7712 -1.3059
  326SOL    HW2 5536   1.254  10.983   7.867 -3.1712 -1.2671  1.4317
  327SOL     OW 5537  11.387   0.556   3.217 -0.7456 -0.2987  0.0646
  327SOL    HW1 5538  11.426   0.526   3.135 -0.9909  0.4144 -0.3218
  327SOL    HW2 5539  11.299   0.520   3.218 -0.1981 -1.6872  0.8109
  328SOL     OW 5540  10.957  11.993   3.563  0.0053 -0.0172 -0.3863
  328SOL    HW1 5541  10.982  12.082   3.589 -0.3419  0.1420 -0.5862
  328SOL    HW2 5542  10.879  12.005   3.509  1.3638 -0.2446 -2.5011
  329SOL     OW 5543   6.417   6.927   4.371  1.0581  0.0873 -0.1526
  329SOL    HW1 5544   6.365   7.004   4.396  1.1598 -0.1095  0.6653
  329SOL    HW2 5545   6.377   6.854   4.419  1.1409 -0.3283 -0.7042
  330SOL     OW 5546   4.329  11.104  11.734  0.7513 -0.0849 -0.5496
  330SOL    HW1 5547   4.288  11.129  11.817  1.4406 -0.3872 -0.1003
  330SOL    HW2 5548   4.380  11.180  11.709  3.4056 -1.1424  1.1736
  331SOL     OW 5549   9.167   3.351  11.437  0.0818 -0.0168 -0.2506
  331SOL    HW1 5550   9.212   3.409  11.375 -0.2725 -2.6113 -3.2154
  331SOL    HW2 5551   9.077   3.384  11.440  0.1716  0.3210 -0.9845
  332SOL     OW 5552  11.069   6.492   0.614  0.4032 -0.3363  0.1093
  332SOL    HW1 5553  11.086   6.398   0.603 -0.8355 -0.5082 -0.5380
  332SOL    HW2 5554  11.152   6.534   0.591  1.3238 -1.3107  1.5538
  333SOL     OW 5555   8.081   0.088   4.315  0.3668  0.6651  0.5637
  333SOL    HW1 5556   8.122   0.098   4.230  1.0543 -0.1086  0.7911
  333SOL    HW2 5557   8.153   0.094   4.378  0.1026 -0.3599  0.9913
  334SOL     OW 5558   5.277   2.727   2.606  0.0119  0.4140 -0.3085
  334SOL    HW1 5559   5.298   2.790   2.538  0.2873  0.5622 -0.0843
  334SOL    HW2 5560   5.279   2.777   2.688 -0.0314  0.1752 -0.1596
  335SOL     OW 5561   4.211   3.641   5.014 -0.3122  0.1587  0.0407
  335SOL    HW1 5562   4.126   3.596   5.016 -0.1411 -0.1621  0.2050
  335SOL    HW2 5563   4.273   3.577   5.050  0.2233 -0.1003 -1.2688
  336SOL     OW 5564   6.517   1.307   1.195 -0.5543  0.1465 -0.0263
  336SOL    HW1 5565   6.603   1.287   1.231 -0.5547 -1.2506 -0.7578
  336SOL    HW2 5566   6.533   1.333   1.104 -0.9463 -0.7443 -0.3621
  337SOL     OW 5567   9.648  11.805   0.932  0.5364  0.8466  0.1391
  337SOL    HW1 5568   9.693  11.721   0.944  0.6718  0.9472  0.3593
  337SOL    HW2 5569   9.696  11.849   0.862 -0.8036 -0.1137 -1.4443
  338SOL     OW 5570   1.211   9.363   2.262 -0.8088  0.0118  0.1224
  338SOL    HW1 5571   1.275   9.305   2.303 -0.7515 -0.1999 -0.2684
  338SOL    HW2 5572   1.247   9.451   2.276  0.2852 -0.1782 -1.2956
  339SOL     OW 5573   7.891   4.328  10.564 -0.1339  0.4339  0.3517
  339SOL    HW1 5574   7.981   4.300  10.545 -1.7389 -3.2093 -3.5374
  339SOL    HW2 5575   7.856   4.259  10.620 -1.5949 -0.6532 -1.7690
  340SOL     OW 5576   6.431   2.722   6.869  0.9384  0.8912  0.3144
  340SOL    HW1 5577   6.504   2.742   6.810  1.7031 -0.3547  0.8089
  340SOL    HW2 5578   6.364   2.787   6.846  1.5534  1.0126 -1.3020
  341SOL     OW 5579   2.637   3.790   3.229  0.1198 -0.3583  0.0768
  341SOL    HW1 5580   2.577   3.757   3.296 -2.2185  2.9282 -0.1540
  341SOL    HW2 5581   2.704   3.839   3.277  0.9843 -1.5888  0.1700
  342SOL     OW 5582   8.274   5.164  11.802 -0.9144  0.1333 -0.7221
  342SOL    HW1 5583   8.272   5.080  11.757  2.9173 -0.3884 -0.2683
  342SOL    HW2 5584   8.253   5.144  11.893  0.3880 -0.4679 -0.5336
  343SOL     OW 5585   8.328   3.607   3.893  0.1556  0.0672 -0.4921
  343SOL    HW1 5586   8.322   3.628   3.800 -0.3851  0.7234 -0.3151
  343SOL    HW2 5587   8.416   3.637   3.918 -1.0388  3.6138  0.0673
  344SOL     OW 5588   5.905  10.965   9.631  0.0839  0.0695 -0.2921
  344SOL    HW1 5589   5.962  11.006   9.696  0.2661 -0.2509 -0.2505
  344SOL    HW2 5590   5.901  11.028   9.560  2.4876 -0.9256 -1.4098
  345SOL     OW 5591  11.227   3.087   8.182  0.0291 -0.3974  0.5435
  345SOL    HW1 5592  11.177   3.014   8.219 -0.5862  0.3717  1.2667
  345SOL    HW2 5593  11.282   3.117   8.254  1.1169 -0.8527 -0.0769
  346SOL     OW 5594   1.127  11.931   6.372  0.6257  0.6359  0.4527
  346SOL    HW1 5595   1.161  11.989   6.440  2.4237  0.0892  0.0604
  346SOL    HW2 5596   1.152  11.973   6.290 -0.6999  0.8004  0.1053
  347SOL     OW 5597   5.197  10.361  11.046 -0.5808 -0.0793 -0.0084
  347SOL    HW1 5598   5.259  10.389  11.113 -0.2151 -1.0190  0.0598
  347SOL    HW2 5599   5.133  10.307  11.093 -1.0964  0.3686 -0.1875
  348SOL     OW 5600   7.300   1.953   1.012 -0.5425  0.1804 -0.0266
  348SOL    HW1 5601   7.248   1.874   1.028 -1.2189  0.8504  1.3055
  348SOL    HW2 5602   7.299   2.000   1.096 -0.5949  1.8417 -0.9050
  349SOL     OW 5603   7.508   4.764   0.520  0.3977 -0.8338  0.2772
  349SOL    HW1 5604   7.474   4.840   0.567  0.3382 -1.5261  1.3691
  349SOL    HW2 5605   7.437   4.739   0.461  0.2958 -0.2451  0.1408
  350SOL     OW 5606   6.049   4.840   7.709  0.3538 -0.6389  0.4823
  350SOL    HW1 5607   6.032   4.781   7.783  0.1027  0.4450  1.3161
  350SOL    HW2 5608   6.048   4.927   7.748 -2.3593  0.1983 -1.2089
  351SOL     OW 5609   4.374   6.702   6.008 -0.5034 -0.1591  0.3228
  351SOL    HW1 5610   4.438   6.675   6.073 -1.9943  0.6496  2.2593
  351SOL    HW2 5611   4.307   6.633   6.010  0.4211 -1.2102 -1.9701
  352SOL     OW 5612   1.645   9.999   5.778 -0.9376  0.1877 -0.0693
  352SOL    HW1 5613   1.715   9.954   5.730  1.9249 -0.0532  3.9167
  352SOL    HW2 5614   1.629  10.078   5.727 -0.8454 -1.6977 -3.3179
  353SOL     OW 5615   9.809   3.921   0.984 -0.1455  0.2293  0.0269
  353SOL    HW1 5616   9.736   3.929   0.923  0.2395  1.9681 -0.2469
  353SOL    HW2 5617   9.887   3.917   0.928  0.1197  0.6000  0.3653
  354SOL     OW 5618   9.334   7.442   7.223 -0.0011 -0.3241  0.6923
  354SOL    HW1 5619   9.239   7.427   7.233 -0.0889 -1.4341 -1.3665
  354SOL    HW2 5620   9.340   7.511   7.157  0.6470  2.0654  3.0605
  355SOL     OW 5621   2.874   1.819   0.130  0.1847 -0.3777 -0.0110
  355SOL    HW1 5622   2.959   1.826   0.086 -0.2458 -1.5633 -1.0689
  355SOL    HW2 5623   2.810   1.817   0.060 -0.7834  0.7267  0.7801
  356SOL     OW 5624   3.648   8.993   3.899  0.4178 -0.1571  0.4154
  356SOL    HW1 5625   3.558   8.982   3.870  0.1981  0.1269  0.9825
  356SOL    HW2 5626   3.687   9.054   3.837  0.1911 -0.1954  0.2369
  357SOL     OW 5627   1.522   1.178   2.265 -0.1606 -0.0742 -0.3211
  357SOL    HW1 5628   1.535   1.200   2.357 -0.7201  2.1418 -0.7008
  357SOL    HW2 5629   1.463   1.246   2.233 -1.0297 -1.5450 -2.0232
  358SOL     OW 5630   4.055   8.653  11.227 -0.5601 -0.2227 -0.2224
  358SOL    HW1 5631   4.109   8.709  11.171  0.5030 -1.6588 -0.6976
  358SOL    HW2 5632   4.111   8.633  11.302 -1.4580  0.5053  0.6747
  359SOL     OW 5633   4.289   0.928   6.034  0.6350 -0.0466  0.1035
  359SOL    HW1 5634   4.365   0.958   6.084  1.4344 -0.4935 -0.7973
  359SOL    HW2 5635   4.326   0.902   5.949 -0.4942 -0.5018 -0.2607
  360SOL     OW 5636   4.534  10.169   4.119 -0.5300 -0.1370  0.1925
  360SOL    HW1 5637   4.600  10.168   4.187 -0.4519  1.5521  0.1867
  360SOL    HW2 5638   4.576  10.128   4.043 -0.0645 -0.5561  0.6767
  361SOL     OW 5639   9.434   8.337   7.189 -0.0872 -0.2381  0.2461
  361SOL    HW1 5640   9.388   8.350   7.272  1.0216  1.4627  0.6334
  361SOL    HW2 5641   9.371   8.364   7.122 -0.8797 -1.3361  0.5133
  362SOL     OW 5642   6.299   7.536   8.953 -0.4100 -0.2049  0.5866
  362SOL    HW1 5643   6.223   7.512   9.007 -2.0952  2.0515 -0.6039
  362SOL    HW2 5644   6.264   7.540   8.864  0.9869  1.3134  0.0622
  363SOL     OW 5645   3.048   2.841   3.289 -0.1732 -0.1201 -0.2674
  363SOL    HW1 5646   3.001   2.782   3.229 -0.3662 -0.6494  0.3937
  363SOL    HW2 5647   3.119   2.788   3.324 -0.7919 -0.2016  0.9049
  364SOL     OW 5648   4.625   0.762   0.944 -0.0309 -0.3891  0.2745
  364SOL    HW1 5649   4.580   0.680   0.961  0.2799 -0.3529  1.3342
  364SOL    HW2 5650   4.647   0.797   1.031 -0.1545  0.8143 -0.1499
  365SOL     OW 5651   5.734   3.640   7.397  0.5594  0.4788  0.3737
  365SOL    HW1 5652   5.753   3.587   7.474  0.5799 -0.9466 -0.5738
  365SOL    HW2 5653   5.638   3.639   7.391  0.5082  1.4072  0.9202
  366SOL     OW 5654   2.085   1.423   3.602  0.4450  0.3952 -0.1640
  366SOL    HW1 5655   2.091   1.518   3.617  0.4181  0.5758 -1.1915
  366SOL    HW2 5656   2.137   1.409   3.523  2.3580 -0.8096  1.2182
  367SOL     OW 5657   6.958   7.817   5.756 -0.1607 -0.0865 -0.2345
  367SOL    HW1 5658   6.973   7.770   5.838  0.8509 -0.6819 -0.7431
  367SOL    HW2 5659   6.959   7.749   5.689  0.2491  0.5261 -0.8708
  368SOL     OW 5660   2.101   5.168   5.099  0.4706  0.4046 -0.0372
  368SOL    HW1 5661   2.183   5.208   5.127  0.0590  0.5881  0.9392
  368SOL    HW2 5662   2.109   5.076   5.125  1.3458 -0.1563 -2.1232
  369SOL     OW 5663   3.758   0.786   1.370 -0.0732  0.3772 -0.2609
  369SOL    HW1 5664   3.812   0.837   1.431 -0.5477  1.4229 -0.6950
  369SOL    HW2 5665   3.821   0.731   1.323  0.5121  0.9295 -0.1378
  370SOL     OW 5666   4.477   4.279   6.417  0.1422  0.5931  0.4562
  370SOL    HW1 5667   4.462   4.225   6.495  0.1869 -1.9086 -1.1682
  370SOL    HW2 5668   4.570   4.301   6.421 -0.0281  1.2122  1.4963
  371SOL     OW 5669   5.157   2.121   3.896  0.1330  0.0698 -0.3927
  371SOL    HW1 5670   5.081   2.162   3.939  1.1004  0.7943  0.6850
  371SOL    HW2 5671   5.233   2.164   3.936  1.1076  0.0469 -2.1338
  372SOL     OW 5672   1.398   8.421   2.955  0.2061 -0.0660 -0.3544
  372SOL    HW1 5673   1.372   8.364   2.883 -1.6237  0.1310  0.1102
  372SOL    HW2 5674   1.437   8.497   2.912 -0.4753 -0.1399 -1.1258
  373SOL     OW 5675   4.321   9.865   6.207  0.2010 -0.6251 -0.3664
  373SOL    HW1 5676   4.383   9.845   6.277  0.9930 -2.9927 -1.6356
  373SOL    HW2 5677   4.368   9.924   6.148  0.4682 -0.7038 -0.2294
  374SOL     OW 5678   8.319   8.559   9.629  0.2112 -0.1512  0.6518
  374SOL    HW1 5679   8.326   8.464   9.620  0.6411 -0.1242  0.6516
  374SOL    HW2 5680   8.290   8.573   9.719 -0.3124 -0.2979  0.5064
  375SOL     OW 5681   1.119   9.381   4.123  0.2820 -0.4782  0.0013
  375SOL    HW1 5682   1.045   9.434   4.152 -0.5271 -1.7126  0.2800
  375SOL    HW2 5683   1.096   9.292   4.150  1.6271 -0.9657 -0.3932
  376SOL     OW 5684   5.848  11.242  11.875  0.0009 -0.7433  0.2674
  376SOL    HW1 5685   5.893  11.208  11.952  2.6591 -1.0513 -1.3044
  376SOL    HW2 5686   5.886  11.328  11.860 -0.4793 -0.6797 -0.6924
  377SOL     OW 5687   4.296   9.567   3.731  0.0068 -0.2465  0.0017
  377SOL    HW1 5688   4.332   9.584   3.818 -2.9437 -0.4656  1.3896
  377SOL    HW2 5689   4.272   9.475   3.732 -1.2427  0.0483 -0.5196
  378SOL     OW 5690   5.985  10.288   7.328 -0.3035 -0.1518 -0.0089
  378SOL    HW1 5691   5.943  10.250   7.406 -0.2544 -1.0525 -0.4073
  378SOL    HW2 5692   6.076  10.258   7.334 -0.5974 -1.3539 -1.0850
  379SOL     OW 5693  11.894  10.531   9.080 -0.1625  0.1092 -0.2676
  379SOL    HW1 5694  11.883  10.542   9.175 -0.1424 -2.3906  0.0863
  379SOL    HW2 5695  11.956  10.459   9.071  0.1158  0.5369 -2.2155
  380SOL     OW 5696   7.455   7.339   9.456  0.1250 -0.0111 -0.1830
  380SOL    HW1 5697   7.534   7.336   9.509 -1.0207 -0.1531  1.5792
  380SOL    HW2 5698   7.446   7.431   9.432  0.4052  0.1314  0.2464
  381SOL     OW 5699   0.338   3.339   0.500  0.1160  0.0599 -0.0532
  381SOL    HW1 5700   0.400   3.398   0.457  1.2961 -0.9598  0.1780
  381SOL    HW2 5701   0.292   3.297   0.428  1.5339 -1.0624 -0.3597
  382SOL     OW 5702   0.000   3.913   4.922  0.1543  0.9328  0.5518
  382SOL    HW1 5703  -0.075   3.952   4.879  0.7617  1.5676  0.0544
  382SOL    HW2 5704   0.058   3.886   4.851  0.6601  0.9740  0.9447
  383SOL     OW 5705  11.897   4.474   5.230 -0.1767  0.2047  0.4207
  383SOL    HW1 5706  11.862   4.480   5.141  0.0893 -2.6786  0.0295
  383SOL    HW2 5707  11.987   4.503   5.223 -0.1421 -0.0590 -0.2719
  384SOL     OW 5708   5.996   3.168   6.409  0.3127  0.3387  0.1547
  384SOL    HW1 5709   6.005   3.260   6.384  2.3049 -0.1536 -1.1566
  384SOL    HW2 5710   6.026   3.165   6.500 -1.5157  1.2327  0.8320
  385SOL     OW 5711  11.389   7.808   6.793  0.0375  0.6560  0.1023
  385SOL    HW1 5712  11.475   7.815   6.835  0.3892  0.5449 -0.5805
  385SOL    HW2 5713  11.408   7.773   6.706 -0.7060  0.6087 -0.0468
  386SOL     OW 5714   7.671   1.215   6.295  0.0903  0.6612  0.1507
  386SOL    HW1 5715   7.618   1.280   6.341  0.4695 -0.3870  2.2014
  386SOL    HW2 5716   7.623   1.133   6.307  0.9237  0.1174 -0.1312
  387SOL     OW 5717   3.865  10.025   0.255  0.2461 -0.6067 -0.2719
  387SOL    HW1 5718   3.886  10.118   0.247 -0.3700 -0.4956 -0.6792
  387SOL    HW2 5719   3.769  10.021   0.249  0.1934 -1.1835  0.5876
  388SOL     OW 5720   8.984   7.018   1.025 -0.1202  0.5991 -0.9092
  388SOL    HW1 5721   9.079   7.013   1.038 -0.1075  0.4906 -1.0444
  388SOL    HW2 5722   8.965   6.947   0.964 -0.0608  1.6948 -2.2317
  389SOL     OW 5723   9.826   1.022   6.095  0.1023  0.2984 -0.3868
  389SOL    HW1 5724   9.913   0.996   6.066  0.0907  0.5238 -0.6255
  389SOL    HW2 5725   9.772   1.019   6.016  0.0589  0.8678 -0.3783
  390SOL     OW 5726   5.496   4.682  10.004 -0.5881  0.2378  0.0057
  390SOL    HW1 5727   5.540   4.758   9.963  0.6265  0.0490  0.9068
  390SOL    HW2 5728   5.417   4.719  10.043 -1.1904  0.6268 -1.5016
  391SOL     OW 5729   9.872  11.454   4.860  0.4489  0.2484 -0.2037
  391SOL    HW1 5730   9.841  11.379   4.911 -0.1135 -0.4182 -1.4870
  391SOL    HW2 5731   9.945  11.488   4.911 -0.7483  0.2865  1.6106
  392SOL     OW 5732   7.380   3.315   1.795  0.5721  0.3554 -0.1019
  392SOL    HW1 5733   7.329   3.278   1.723  0.5016  0.2289  0.0131
  392SOL    HW2 5734   7.433   3.383   1.754  0.6089  0.2138 -0.2924
  393SOL     OW 5735   3.157   3.083  10.916 -0.5285  0.1250  0.0785
  393SOL    HW1 5736   3.230   3.142  10.900 -0.3725  0.0534  0.5188
  393SOL    HW2 5737   3.098   3.132  10.973 -0.5963  0.0043  0.1141
  394SOL     OW 5738   0.672   2.372   1.093  0.7242  1.0742  0.5062
  394SOL    HW1 5739   0.696   2.326   1.013 -0.8022 -0.8431  1.0753
  394SOL    HW2 5740   0.669   2.304   1.160  0.5274  2.3937  1.8987
  395SOL     OW 5741   2.659   5.303   7.213  0.2742 -0.3405  0.9562
  395SOL    HW1 5742   2.728   5.237   7.205  0.8674  0.4466 -1.1456
  395SOL    HW2 5743   2.606   5.292   7.134  0.4318  1.6724  0.5067
  396SOL     OW 5744   8.603   5.577   5.908 -0.2903  0.2072  0.4130
  396SOL    HW1 5745   8.568   5.640   5.971 -2.1605  0.7785 -1.0996
  396SOL    HW2 5746   8.579   5.492   5.944  0.1276  0.4289  1.2640
  397SOL     OW 5747  11.329   3.347   3.436 -0.0635 -0.5984  0.4301
  397SOL    HW1 5748  11.238   3.339   3.466 -0.9219  1.0619 -1.5314
  397SOL    HW2 5749  11.323   3.349   3.341  2.0962 -0.7497  0.2446
  398SOL     OW 5750   1.025   1.112   5.580 -0.3561  0.6204 -0.2557
  398SOL    HW1 5751   1.120   1.118   5.594 -0.5533 -0.1551  1.7050
  398SOL    HW2 5752   0.992   1.198   5.607 -0.3244  0.5216  0.0943
  399SOL     OW 5753   8.441   9.283   1.135  0.0086  0.2696  0.0032
  399SOL    HW1 5754   8.530   9.251   1.122  0.1035  0.7620 -0.5795
  399SOL    HW2 5755   8.443   9.324   1.221  0.4338  0.5697 -0.1480
  400SOL     OW 5756  11.931  12.017   5.056  0.1410  0.0106 -0.0503
  400SOL    HW1 5757  11.839  12.006   5.081  0.6938  1.3266  2.9786
  400SOL    HW2 5758  11.974  11.938   5.088 -0.0719 -1.4318 -2.9918
  401SOL     OW 5759   1.374   4.962  11.618  0.2267  0.1299 -0.3613
  401SOL    HW1 5760   1.316   5.037  11.617  0.5169  0.3563 -0.1582
  401SOL    HW2 5761   1.384   4.939  11.525  1.0781  1.0741 -0.5198
  402SOL     OW 5762   8.186   2.281   3.862  0.2293 -0.1099  0.6207
  402SOL    HW1 5763   8.210   2.244   3.777 -1.3582 -2.9948  1.3117
  402SOL    HW2 5764   8.249   2.242   3.923  0.8519  1.3186  0.9384
  403SOL     OW 5765  11.003   9.357   3.921  0.4952 -0.7206 -0.2231
  403SOL    HW1 5766  11.091   9.390   3.939  0.4216 -0.9526  0.6293
  403SOL    HW2 5767  10.997   9.275   3.971 -0.5399 -0.2003  0.5675
  404SOL     OW 5768   7.591   0.990  11.020  0.6946 -0.2989 -0.5750
  404SOL    HW1 5769   7.502   1.020  11.034 -0.3099 -2.3642 -2.0208
  404SOL    HW2 5770   7.619   0.955  11.105  0.0388  0.1542 -0.1709
  405SOL     OW 5771  11.824   0.190   6.926  0.2964 -0.5261 -0.0805
  405SOL    HW1 5772  11.884   0.161   6.858 -1.9016 -2.0597 -1.5121
  405SOL    HW2 5773  11.834   0.126   6.996 -0.0629 -1.1360 -0.5743
  406SOL     OW 5774  11.292  10.436   1.742 -0.6654 -0.1222  0.0443
  406SOL    HW1 5775  11.202  10.434   1.710 -0.7697 -0.3521  0.3433
  406SOL    HW2 5776  11.336  10.366   1.694 -0.6989 -0.1406  0.0404
  407SOL     OW 5777   1.679   1.332   8.682 -0.5225  0.0050  0.1036
  407SOL    HW1 5778   1.682   1.311   8.776 -0.7732 -2.3340 -0.3525
  407SOL    HW2 5779   1.595   1.297   8.653 -0.0840 -0.0431 -1.1547
  408SOL     OW 5780   7.376   4.696   8.695  0.2146  0.1399  0.5534
  408SOL    HW1 5781   7.446   4.719   8.755  1.7743 -2.5213 -0.0842
  408SOL    HW2 5782   7.332   4.622   8.736  0.4379 -0.8416 -0.9070
  409SOL     OW 5783   1.142  10.117  10.009 -0.5283 -0.6616 -0.6795
  409SOL    HW1 5784   1.216  10.100  10.066 -0.6623  1.9394  0.3730
  409SOL    HW2 5785   1.176  10.178   9.943 -1.3056 -0.7875 -1.2084
  410SOL     OW 5786   1.228  11.403  11.851  0.3100 -0.1749  0.0769
  410SOL    HW1 5787   1.319  11.390  11.877  0.0681 -1.2504  0.4469
  410SOL    HW2 5788   1.178  11.389  11.932 -0.2687 -0.9345 -0.3940
  411SOL     OW 5789  10.070   1.833   2.100 -0.3328  0.1368 -0.1851
  411SOL    HW1 5790  10.018   1.758   2.070 -0.3895  0.7225 -1.6393
  411SOL    HW2 5791  10.140   1.842   2.035  1.0535 -0.0372  1.2136
  412SOL     OW 5792   8.836   8.079   8.780  0.2806 -0.5370 -0.4968
  412SOL    HW1 5793   8.808   8.069   8.689  0.3035 -0.2889 -0.5334
  412SOL    HW2 5794   8.761   8.048   8.832 -0.0793  0.1504 -0.5931
  413SOL     OW 5795   8.531   5.539   0.173 -0.0485 -0.4451 -0.0531
  413SOL    HW1 5796   8.465   5.589   0.126 -1.6987 -1.2471  1.2793
  413SOL    HW2 5797   8.517   5.561   0.265  0.6741 -1.6199  0.3630
  414SOL     OW 5798   4.115   3.423   8.098 -0.2340 -0.4015  0.3567
  414SOL    HW1 5799   4.037   3.440   8.150 -0.1205  0.9203  0.1502
  414SOL    HW2 5800   4.118   3.496   8.036  0.8931 -0.6964  0.0387
  415SOL     OW 5801   5.112   0.859  11.400 -0.1463 -0.3885 -0.5634
  415SOL    HW1 5802   5.135   0.901  11.317  0.3390 -0.4329 -0.4528
  415SOL    HW2 5803   5.177   0.890  11.463  0.3907 -1.4956 -0.5400
  416SOL     OW 5804  10.833   6.070  10.789  0.1542  0.0103  0.7011
  416SOL    HW1 5805  10.803   6.128  10.719  0.7097 -0.5559 -0.0225
  416SOL    HW2 5806  10.754   6.046  10.837 -0.5225 -1.1259 -0.9067
  417SOL     OW 5807   3.004   9.211   1.487 -0.1911  0.2736 -0.2281
  417SOL    HW1 5808   3.035   9.270   1.418 -1.0051  1.6773  0.5643
  417SOL    HW2 5809   3.083   9.187   1.535  0.3200 -0.3343 -1.3349
  418SOL     OW 5810   3.123   8.758   7.798  0.0474  0.1393  0.0288
  418SOL    HW1 5811   3.163   8.703   7.731 -0.9718  0.2342 -0.6880
  418SOL    HW2 5812   3.161   8.845   7.784 -1.0400  0.4414 -1.2400
  419SOL     OW 5813   2.137   8.709   0.510 -0.3311  0.0642 -0.5313
  419SOL    HW1 5814   2.110   8.625   0.472 -0.8320  0.9594 -2.2324
  419SOL    HW2 5815   2.064   8.768   0.493 -1.4428  0.1691  3.4790
  420SOL     OW 5816  11.731   0.745   1.840 -0.4435  0.7933  0.6312
  420SOL    HW1 5817  11.659   0.721   1.899 -0.7304  1.2809  0.4890
  420SOL    HW2 5818  11.688   0.794   1.769 -0.0017  0.8842  0.4220
  421SOL     OW 5819   1.826   0.481   3.939 -0.0658 -0.0666  0.4020
  421SOL    HW1 5820   1.860   0.393   3.924 -1.9597 -0.6450 -1.0143
  421SOL    HW2 5821   1.862   0.533   3.867  1.5303  0.5152  1.5708
  422SOL     OW 5822  10.185  10.549   6.487  0.2968 -0.1596  0.2000
  422SOL    HW1 5823  10.265  10.560   6.539  0.9001  0.7022 -0.8624
  422SOL    HW2 5824  10.183  10.625   6.430 -1.4819 -0.0000  0.4228
  423SOL     OW 5825   2.104   3.983   9.331 -0.4055  0.0356 -0.1107
  423SOL    HW1 5826   2.094   3.891   9.356 -0.0057 -0.1120 -0.4824
  423SOL    HW2 5827   2.131   4.027   9.412  0.9130 -0.4434 -0.2589
  424SOL     OW 5828  11.360   8.301   8.599 -0.0340  0.0159  0.5158
  424SOL    HW1 5829  11.402   8.215   8.601  1.7274  0.8468  1.6327
  424SOL    HW2 5830  11.389   8.340   8.517  1.6761  0.6802  1.3929
  425SOL     OW 5831   4.888   6.375   1.955 -0.1072 -0.4192 -0.1431
  425SOL    HW1 5832   4.942   6.339   2.026  0.0336  0.1455  0.0394
  425SOL    HW2 5833   4.926   6.460   1.936 -0.0804 -0.6101 -0.9832
  426SOL     OW 5834   6.982  10.671   8.843 -0.0392 -0.9768 -0.1891
  426SOL    HW1 5835   6.940  10.613   8.779  1.2244 -0.9289 -1.1028
  426SOL    HW2 5836   7.000  10.751   8.794 -0.2916 -0.4210  0.6224
  427SOL     OW 5837   5.616   5.587   7.693 -0.7915 -0.0341  0.1731
  427SOL    HW1 5838   5.579   5.631   7.617 -1.2247  1.0130  0.9518
  427SOL    HW2 5839   5.603   5.649   7.765  0.2270 -0.6962  0.9687
  428SOL     OW 5840   7.734   0.772   8.371 -0.1023 -0.1978 -0.5271
  428SOL    HW1 5841   7.666   0.770   8.304 -0.0178 -3.5225 -0.6540
  428SOL    HW2 5842   7.804   0.717   8.337  2.2142  2.1083  0.1587
  429SOL     OW 5843   3.674   3.280   2.243 -0.0575  0.0354 -0.8390
  429SOL    HW1 5844   3.745   3.344   2.248 -0.6738  0.6388  2.6484
  429SOL    HW2 5845   3.594   3.332   2.238 -0.4717 -0.4649  0.2434
  430SOL     OW 5846   9.819   5.184   6.183  0.3212  0.1670  0.2820
  430SOL    HW1 5847   9.881   5.140   6.124  1.2463  1.6776  0.0988
  430SOL    HW2 5848   9.755   5.224   6.124  0.9616  1.2520  0.3057
  431SOL     OW 5849   2.499  10.302  10.894 -0.1308 -0.0125 -0.1214
  431SOL    HW1 5850   2.524  10.393  10.907 -1.3704  0.3945 -0.5391
  431SOL    HW2 5851   2.404  10.302  10.895 -0.1828 -1.5595  1.6551
  432SOL     OW 5852   5.129  11.306   7.349  0.1230 -0.7397  0.2349
  432SOL    HW1 5853   5.225  11.310   7.346  0.1180 -0.7323  0.1179
  432SOL    HW2 5854   5.107  11.219   7.316  0.1223 -1.0097  0.9233
  433SOL     OW 5855  11.723   9.284   4.713  0.0524 -0.0293 -0.1627
  433SOL    HW1 5856  11.729   9.250   4.802 -2.1717 -1.3123 -0.4221
  433SOL    HW2 5857  11.643   9.246   4.678  1.5865 -0.7835 -3.2439
  434SOL     OW 5858   5.569   4.965   8.464 -0.2599  0.1490  0.4673
  434SOL    HW1 5859   5.481   5.001   8.451 -0.9808 -1.7656 -0.1970
  434SOL    HW2 5860   5.626   5.022   8.413 -1.2367  0.8454  0.1263
  435SOL     OW 5861   2.198   2.852  11.841 -0.3696 -0.3723 -0.6914
  435SOL    HW1 5862   2.216   2.905  11.919  0.6453 -0.9902 -0.4793
  435SOL    HW2 5863   2.117   2.805  11.863 -0.5781  0.1317 -0.3683
  436SOL     OW 5864  10.629   7.051   4.876 -0.3322  0.2396 -0.4965
  436SOL    HW1 5865  10.686   6.981   4.909 -0.7112  0.7055  1.2380
  436SOL    HW2 5866  10.672   7.132   4.905 -1.9230  0.5946  1.0426
  437SOL     OW 5867   1.359   1.736   9.902  0.1483 -0.6364 -0.1483
  437SOL    HW1 5868   1.337   1.674   9.832  1.4027 -1.3106  0.0207
  437SOL    HW2 5869   1.275   1.761   9.940 -0.6251  0.1071 -2.1914
  438SOL     OW 5870   3.603   9.761   8.625  0.1246 -0.1907 -0.2836
  438SOL    HW1 5871   3.697   9.742   8.618  0.2323  0.0236  0.4964
  438SOL    HW2 5872   3.595   9.812   8.706 -0.9219 -1.9059  0.7391
  439SOL     OW 5873   2.856  11.023   6.021  0.5602  0.4992  0.0177
  439SOL    HW1 5874   2.873  10.934   6.052 -0.0101 -1.1753 -3.9170
  439SOL    HW2 5875   2.761  11.026   6.008  0.7252  1.2252 -1.1195
  440SOL     OW 5876   4.521   4.719   6.092  0.8664 -0.6558  0.2526
  440SOL    HW1 5877   4.542   4.653   6.026  0.5710 -0.6522  0.1529
  440SOL    HW2 5878   4.463   4.780   6.047  1.6745  0.0569  0.1343
  441SOL     OW 5879   6.415  10.424  11.466 -0.0124  0.1136  0.7483
  441SOL    HW1 5880   6.330  10.426  11.422 -1.2109 -0.0139  2.8901
  441SOL    HW2 5881   6.462  10.351  11.426 -1.9954 -1.5497  1.2943
  442SOL     OW 5882   8.664  10.014   9.255  0.0789  0.0640  0.0570
  442SOL    HW1 5883   8.595  10.038   9.193  1.1134  1.6298 -0.5355
  442SOL    HW2 5884   8.679   9.921   9.239 -1.9038 -0.3478  0.2419
  443SOL     OW 5885   5.522   8.806   3.775 -0.1454  0.0221  0.1993
  443SOL    HW1 5886   5.471   8.726   3.791 -0.0568  0.1625  1.2424
  443SOL    HW2 5887   5.592   8.778   3.716 -0.5284 -0.5112 -0.0131
  444SOL     OW 5888  11.197   9.805   6.685  0.2929 -0.3987  0.3003
  444SOL    HW1 5889  11.255   9.862   6.737 -0.1384  1.3148 -1.0056
  444SOL    HW2 5890  11.226   9.818   6.595 -1.5334 -0.1899 -0.2976
  445SOL     OW 5891   3.222   1.837   8.763  0.0099 -0.2770  0.1106
  445SOL    HW1 5892   3.287   1.870   8.824 -0.1188 -0.6984  0.4785
  445SOL    HW2 5893   3.228   1.896   8.687 -1.1326  1.4054  1.2608
  446SOL     OW 5894   8.410   9.697   6.544  0.2041  0.0767  0.4036
  446SOL    HW1 5895   8.369   9.684   6.458  0.8036 -0.4497  0.1952
  446SOL    HW2 5896   8.504   9.694   6.527  0.4164  2.6968  0.6586
  447SOL     OW 5897   6.477   6.911   0.747  0.0530  0.3387 -0.4327
  447SOL    HW1 5898   6.477   6.815   0.749 -0.3453  0.2266 -2.8609
  447SOL    HW2 5899   6.458   6.936   0.837  1.2373 -1.8260  0.5249
  448SOL     OW 5900   8.009   6.249   5.763  0.9132  0.2633  0.2023
  448SOL    HW1 5901   8.041   6.159   5.761  0.3950  0.0516  1.0568
  448SOL    HW2 5902   8.010   6.276   5.671 -0.7285 -1.2643 -0.3273
  449SOL     OW 5903   3.485  11.156  11.955 -0.0123 -0.0335  1.0107
  449SOL    HW1 5904   3.400  11.131  11.992 -0.5838  0.3942  0.0474
  449SOL    HW2 5905   3.549  11.107  12.006 -1.0629 -3.8516 -0.9202
  450SOL     OW 5906   4.516   5.257   2.805 -0.0975 -0.4532 -0.4315
  450SOL    HW1 5907   4.460   5.295   2.737 -0.9648 -1.9720 -0.5989
  450SOL    HW2 5908   4.511   5.320   2.877 -0.4535  0.3883 -1.1593
  451SOL     OW 5909   6.982   8.531   3.742 -0.2273  0.3352  0.7105
  451SOL    HW1 5910   6.944   8.558   3.659 -0.2262  0.9261  0.8933
  451SOL    HW2 5911   6.923   8.567   3.808  0.1829  0.5325  0.9761
  452SOL     OW 5912   5.548   3.694   9.583 -0.2940 -0.9062  0.5378
  452SOL    HW1 5913   5.617   3.672   9.645 -0.5552  0.0215  1.1884
  452SOL    HW2 5914   5.515   3.610   9.552  3.1257 -1.4822 -2.1365
  453SOL     OW 5915   1.840  11.440  10.076 -0.8852 -0.2074  0.2142
  453SOL    HW1 5916   1.861  11.533  10.074 -1.4144 -0.0382  1.4939
  453SOL    HW2 5917   1.909  11.401  10.130  1.2279 -1.1461 -2.8680
  454SOL     OW 5918   6.959  11.949   6.106 -0.0646  0.7274 -0.0500
  454SOL    HW1 5919   6.946  12.028   6.053  0.0298  0.9110  0.1936
  454SOL    HW2 5920   6.871  11.917   6.124 -0.0937  0.6175 -0.3828
  455SOL     OW 5921   9.591   3.199   0.936  0.2487  0.0226 -0.2640
  455SOL    HW1 5922   9.646   3.239   0.869 -2.1978  1.2768 -1.6511
  455SOL    HW2 5923   9.531   3.269   0.963  1.3195 -0.3153  3.5656
  456SOL     OW 5924   0.625  10.926   0.084 -0.6329  0.2207  0.0288
  456SOL    HW1 5925   0.714  10.961   0.087 -0.7734  0.5653  0.3563
  456SOL    HW2 5926   0.589  10.946   0.170 -0.3132 -1.8693  0.7125
  457SOL     OW 5927   5.060   8.275   4.255  0.2449  0.1901  0.1403
  457SOL    HW1 5928   5.143   8.243   4.291  0.3531  0.5261  0.1931
  457SOL    HW2 5929   5.078   8.290   4.163  0.0739 -0.3066  0.0229
  458SOL     OW 5930   6.852   9.725   7.592  0.5478  0.7014 -0.6576
  458SOL    HW1 5931   6.837   9.758   7.681  2.3137 -1.3611  0.4878
  458SOL    HW2 5932   6.765   9.700   7.561 -0.4373  3.5372 -0.4659
  459SOL     OW 5933   7.653   5.992   0.477 -0.4072 -0.1513  0.7490
  459SOL    HW1 5934   7.635   5.922   0.539 -0.4327 -2.6523 -1.8860
  459SOL    HW2 5935   7.568   6.011   0.437 -0.2256  0.7300  0.7661
  460SOL     OW 5936   7.942   1.485   5.296 -0.5035  0.2457 -0.1294
  460SOL    HW1 5937   7.935   1.576   5.269 -2.1381  0.0948 -0.2958
  460SOL    HW2 5938   7.960   1.437   5.215 -1.0110  0.2707 -0.2574
  461SOL     OW 5939   3.712  11.141   8.073  0.4105  0.1502  0.0477
  461SOL    HW1 5940   3.790  11.090   8.050  0.4225 -0.0689  0.5725
  461SOL    HW2 5941   3.746  11.222   8.111  0.3843  0.2422 -0.1215
  462SOL     OW 5942   1.465  11.151  10.458 -0.4978 -0.4833 -0.0729
  462SOL    HW1 5943   1.463  11.073  10.513  0.8298  0.5681  1.5652
  462SOL    HW2 5944   1.397  11.208  10.494  1.6501  1.0321  1.9230
  463SOL     OW 5945   6.697   2.006   8.229  0.0087 -0.3675  0.2180
  463SOL    HW1 5946   6.721   1.916   8.208  1.3665 -0.2991  1.3037
  463SOL    HW2 5947   6.735   2.021   8.316  0.0547  1.3383 -0.0602
  464SOL     OW 5948   9.509   8.129   1.293 -0.2159 -0.2711 -0.3848
  464SOL    HW1 5949   9.439   8.091   1.239 -0.5087 -0.5803  0.2010
  464SOL    HW2 5950   9.533   8.059   1.353 -1.1573  0.6286  1.0949
  465SOL     OW 5951   5.848   3.148   8.712  0.4618  0.1492  0.5208
  465SOL    HW1 5952   5.917   3.187   8.765  1.7347 -0.8508 -0.3317
  465SOL    HW2 5953   5.894   3.113   8.635 -0.9633 -0.7742  0.0548
  466SOL     OW 5954   7.015   9.202   9.849 -0.0557  0.5269  0.2428
  466SOL    HW1 5955   7.046   9.125   9.801 -0.2517  1.1068 -0.8512
  466SOL    HW2 5956   6.920   9.189   9.854 -0.0987  0.7307 -0.0186
  467SOL     OW 5957   2.557   1.795   6.127  0.5612  0.1564 -0.4187
  467SOL    HW1 5958   2.462   1.787   6.135  0.2118  3.0758 -0.6275
  467SOL    HW2 5959   2.583   1.849   6.202  1.5169  2.1664 -2.1047
  468SOL     OW 5960   1.468   1.884   7.408 -0.1130 -0.0449 -0.1568
  468SOL    HW1 5961   1.389   1.845   7.371  0.8626 -1.7594 -0.5502
  468SOL    HW2 5962   1.453   1.884   7.502 -0.4272 -0.7193 -0.2055
  469SOL     OW 5963   6.829   0.710   4.678  0.0201 -0.2897  0.2637
  469SOL    HW1 5964   6.884   0.724   4.601 -2.1250 -0.2279 -1.3625
  469SOL    HW2 5965   6.795   0.797   4.698  1.3248 -0.1196  1.9758
  470SOL     OW 5966   1.423   9.460   8.817 -0.0857  0.1759  0.2901
  470SOL    HW1 5967   1.374   9.499   8.744  0.5202 -1.3993 -1.0106
  470SOL    HW2 5968   1.355   9.435   8.879 -0.5932  1.8411  0.4762
  471SOL     OW 5969   4.999   9.629   5.962  0.6249  0.4570  0.3982
  471SOL    HW1 5970   5.002   9.569   5.888  0.3975  3.2240 -2.0203
  471SOL    HW2 5971   5.085   9.621   6.003  0.4333 -1.8020  0.4911
  472SOL     OW 5972   2.920   4.174  11.239 -0.3755 -0.5769 -0.1740
  472SOL    HW1 5973   2.894   4.182  11.148  0.2412  0.3995 -0.2778
  472SOL    HW2 5974   3.010   4.205  11.241 -0.5608 -0.0545  0.8602
  473SOL     OW 5975  11.192  10.947  11.044  0.6035 -0.2765  0.2896
  473SOL    HW1 5976  11.235  10.900  10.973  0.0680  0.7272 -0.7295
  473SOL    HW2 5977  11.158  10.878  11.101 -0.1019 -1.1507 -1.1306
  474SOL     OW 5978   7.361   8.077  10.100  0.2162 -0.5055 -0.6818
  474SOL    HW1 5979   7.286   8.097  10.157  0.5604  0.8681 -0.6605
  474SOL    HW2 5980   7.438   8.093  10.155  0.6772  3.5789 -2.1324
  475SOL     OW 5981   3.045   1.715   4.878 -0.1077  0.0314 -0.2208
  475SOL    HW1 5982   3.123   1.701   4.932 -1.0462  1.4836  1.5886
  475SOL    HW2 5983   2.981   1.652   4.910 -0.6091  0.7740  0.2628
  476SOL     OW 5984   0.907   9.563  12.041 -0.1877 -0.1892  0.7304
  476SOL    HW1 5985   0.906   9.467  12.031  0.7541 -0.0400 -1.1966
  476SOL    HW2 5986   0.819   9.590  12.013  0.0006 -0.4036 -0.1043
  477SOL     OW 5987   1.759  10.583   8.506 -0.0746  0.4410 -0.1841
  477SOL    HW1 5988   1.665  10.589   8.525  0.1644 -0.5628  1.5244
  477SOL    HW2 5989   1.779  10.662   8.456 -1.7259  0.9176 -0.1471
  478SOL     OW 5990   1.803   3.736   2.373  0.0870 -0.3397 -0.0062
  478SOL    HW1 5991   1.732   3.739   2.308  0.8249 -0.8472 -0.8528
  478SOL    HW2 5992   1.784   3.659   2.426 -1.5225  1.0621  1.6005
  479SOL     OW 5993  11.829  11.408   6.821 -0.3107  0.1109 -0.5720
  479SOL    HW1 5994  11.890  11.456   6.766  0.2378 -0.4439 -0.4607
  479SOL    HW2 5995  11.768  11.367   6.760 -0.4155  0.4600 -0.6992
  480SOL     OW 5996   7.397   8.248   0.913 -0.2541 -0.0093 -0.1637
  480SOL    HW1 5997   7.312   8.231   0.953  0.0809 -0.6040  0.3116
  480SOL    HW2 5998   7.460   8.237   0.984  0.4324 -1.9674 -1.0160
  481SOL     OW 5999   3.716  10.532  10.561  0.3208  0.4114  0.3037
  481SOL    HW1 6000   3.720  10.621  10.525  1.9942  1.0237  1.8238
  481SOL    HW2 6001   3.766  10.478  10.499  1.2633  1.0147  0.5044
  482SOL     OW 6002  11.962   9.123  11.835 -0.3565 -0.4064 -0.1242
  482SOL    HW1 6003  11.993   9.086  11.918 -0.7989 -1.2246 -0.3157
  482SOL    HW2 6004  11.881   9.168  11.859  0.5942  1.1746  0.2554
  483SOL     OW 6005   4.171   3.449   6.344  0.2833 -0.7270 -0.2748
  483SOL    HW1 6006   4.094   3.396   6.324  0.7110 -1.3558 -0.2507
  483SOL    HW2 6007   4.243   3.387   6.349  1.1168  0.0410 -1.9425
  484SOL     OW 6008  11.381   9.160   9.110  0.0143  0.0086  0.4322
  484SOL    HW1 6009  11.376   9.099   9.184  1.3585 -1.3826 -0.5467
  484SOL    HW2 6010  11.454   9.127   9.057 -0.6982  1.1287 -1.3457
  485SOL     OW 6011   7.864   9.863   8.577 -0.0119  0.4496 -0.0049
  485SOL    HW1 6012   7.846   9.817   8.495 -0.6375  0.2107  0.2640
  485SOL    HW2 6013   7.800   9.934   8.580 -0.5503 -0.0567  0.6829
  486SOL     OW 6014   4.701   8.414   7.263  0.2132  0.3954  0.2276
  486SOL    HW1 6015   4.777   8.424   7.206 -0.3658  1.8730 -0.3201
  486SOL    HW2 6016   4.725   8.341   7.321  1.1724 -0.5759 -1.3003
  487SOL     OW 6017   7.690  10.094   5.548 -0.2391 -0.3071  0.3499
  487SOL    HW1 6018   7.754  10.068   5.481  0.4150  0.8163  0.5178
  487SOL    HW2 6019   7.703  10.188   5.558 -0.1977 -0.4814  2.1737
  488SOL     OW 6020   4.021   5.048   9.432  0.3674 -0.8003 -0.0014
  488SOL    HW1 6021   4.017   5.002   9.349  2.0405  0.6210 -0.9439
  488SOL    HW2 6022   4.114   5.067   9.445 -0.0791  0.9559  1.0514
  489SOL     OW 6023   2.371   3.325   3.566  0.3591 -0.0715  0.2400
  489SOL    HW1 6024   2.374   3.288   3.478 -0.5855 -0.8923  0.5355
  489SOL    HW2 6025   2.298   3.281   3.608 -1.3020  2.6337  0.4129
  490SOL     OW 6026   2.146   3.040   5.656  0.2892 -0.1400 -0.1292
  490SOL    HW1 6027   2.121   2.948   5.658 -0.8586  0.1393 -0.9276
  490SOL    HW2 6028   2.193   3.050   5.573 -0.8616  0.2988 -0.7374
  491SOL     OW 6029   3.843   1.686  11.136 -0.0939  0.8795 -0.1576
  491SOL    HW1 6030   3.783   1.618  11.167  0.6577  0.8022  1.1873
  491SOL    HW2 6031   3.918   1.680  11.195  0.5334  2.0370 -0.8211
  492SOL     OW 6032   7.294   2.432   3.520 -0.2349  0.7043  0.4790
  492SOL    HW1 6033   7.335   2.518   3.526  0.5959  0.3751 -0.2159
  492SOL    HW2 6034   7.351   2.383   3.461 -1.3899  0.0831 -0.1551
  493SOL     OW 6035   0.472   8.838  11.551 -0.1997  0.0218 -0.2866
  493SOL    HW1 6036   0.466   8.875  11.462  0.1079  1.4692  0.2772
  493SOL    HW2 6037   0.381   8.817  11.574 -0.4425  0.8906 -0.4353
  494SOL     OW 6038  12.082   8.691   6.931  0.4306 -0.2569 -0.5217
  494SOL    HW1 6039  12.154   8.753   6.922 -0.2296  0.4674 -0.9529
  494SOL    HW2 6040  12.030   8.702   6.851  0.4690 -1.5971 -0.7576
  495SOL     OW 6041   3.700  11.803  11.970  0.3850  0.5210 -0.1695
  495SOL    HW1 6042   3.626  11.766  12.018 -0.2484  0.0405 -1.4542
  495SOL    HW2 6043   3.727  11.733  11.910  1.5555  0.8728 -0.0790
  496SOL     OW 6044   2.962   7.972   5.411  0.6948  0.1069 -0.2658
  496SOL    HW1 6045   2.972   8.025   5.333 -1.0987 -0.1987 -0.7526
  496SOL    HW2 6046   2.931   8.033   5.478 -0.5649 -0.1196 -0.6056
  497SOL     OW 6047   9.156   1.438  10.382 -0.3241  0.0554 -0.3217
  497SOL    HW1 6048   9.154   1.521  10.429 -0.1164  0.4008 -0.9123
  497SOL    HW2 6049   9.249   1.426  10.359  0.0136 -1.3121  1.4514
  498SOL     OW 6050   8.145   7.834   1.669  0.7461  0.8202  0.4934
  498SOL    HW1 6051   8.199   7.845   1.747  0.6401  0.8461  0.5632
  498SOL    HW2 6052   8.088   7.911   1.668  1.2471  1.1953 -0.0103
  499SOL     OW 6053   7.279   6.270   3.518  0.7048  0.0255 -0.0227
  499SOL    HW1 6054   7.321   6.223   3.446  0.8108  2.6388 -1.7909
  499SOL    HW2 6055   7.348   6.327   3.553  0.0522  0.4390  0.6265
  500SOL     OW 6056   4.526   0.571   5.240  0.2364 -0.8170  0.2587
  500SOL    HW1 6057   4.509   0.504   5.173 -0.0313 -1.3464  0.8467
  500SOL    HW2 6058   4.504   0.654   5.197 -0.1578 -1.1678 -0.2318
  501SOL     OW 6059   2.859   2.690   6.494 -0.5868  0.5857 -0.2600
  501SOL    HW1 6060   2.943   2.654   6.521 -0.5803  1.5944  1.2163
  501SOL    HW2 6061   2.856   2.677   6.400  0.4293 -1.0825 -0.1198
  502SOL     OW 6062  10.620   6.037   8.307  0.2367  0.1895 -0.3556
  502SOL    HW1 6063  10.623   6.053   8.213 -0.9446 -1.6948 -0.7729
  502SOL    HW2 6064  10.567   5.958   8.316  0.1169  0.4623  1.9206
  503SOL     OW 6065   8.806   6.817   7.245  0.2152 -0.7921 -0.0518
  503SOL    HW1 6066   8.890   6.860   7.228 -0.1164  0.2537  0.8214
  503SOL    HW2 6067   8.741   6.886   7.232 -0.4812 -1.4982 -0.3458
  504SOL     OW 6068   0.736   3.430   0.176 -0.0249 -0.3751 -0.3395
  504SOL    HW1 6069   0.744   3.438   0.081  1.2742  1.9910 -0.1111
  504SOL    HW2 6070   0.824   3.406   0.206 -0.7150 -2.3659  0.2076
  505SOL     OW 6071   4.776  10.625   2.472  0.6639 -0.1101 -0.1653
  505SOL    HW1 6072   4.849  10.671   2.513 -0.8468  1.5745  0.7911
  505SOL    HW2 6073   4.728  10.694   2.425 -0.8952 -0.9689  0.1064
  506SOL     OW 6074  12.109  11.759   8.983 -0.0306 -0.3202 -0.1604
  506SOL    HW1 6075  12.142  11.687   8.930  0.7947  0.7931 -1.2099
  506SOL    HW2 6076  12.123  11.837   8.929 -1.4528  0.5702  0.6865
  507SOL     OW 6077  10.425   1.388   2.408 -0.2997  0.5079 -0.3304
  507SOL    HW1 6078  10.333   1.414   2.411 -1.0232 -1.5686 -1.9808
  507SOL    HW2 6079  10.436   1.330   2.483 -0.6156  0.0093 -0.6625
  508SOL     OW 6080   5.756   2.418   2.102 -0.1105  0.7015  0.2920
  508SOL    HW1 6081   5.754   2.489   2.037 -0.2139  0.5832  0.1669
  508SOL    HW2 6082   5.847   2.387   2.100  0.0207  1.0601  0.5953
  509SOL     OW 6083   5.249   1.115   9.896 -0.2874 -0.4044  0.5056
  509SOL    HW1 6084   5.223   1.180   9.832  0.1741  0.2963  1.0178
  509SOL    HW2 6085   5.214   1.147   9.979 -2.2326 -2.0789  0.4071
  510SOL     OW 6086  11.046   6.074   6.529 -0.1460  0.3852 -0.1929
  510SOL    HW1 6087  11.047   6.112   6.617 -0.4586 -0.8418  0.3608
  510SOL    HW2 6088  10.972   6.014   6.529 -0.7870  1.1249 -1.6456
  511SOL     OW 6089   9.038   7.853   3.179 -0.3520 -0.3415  0.4393
  511SOL    HW1 6090   9.054   7.780   3.118 -1.3588 -0.3783  0.2032
  511SOL    HW2 6091   9.125   7.891   3.193 -0.0154 -0.6915 -0.5664
  512SOL     OW 6092   1.220   1.754  10.389 -0.3242 -0.0863  0.4714
  512SOL    HW1 6093   1.273   1.675  10.379 -1.2369 -0.7019  0.4102
  512SOL    HW2 6094   1.143   1.726  10.439 -0.1895  0.9829  1.3316
  513SOL     OW 6095   0.903   7.389   0.692 -0.0268 -0.4071 -0.0451
  513SOL    HW1 6096   0.842   7.390   0.618 -1.1355  0.5024  0.8460
  513SOL    HW2 6097   0.948   7.473   0.687 -0.5885 -0.0506  0.6799
  514SOL     OW 6098   6.189   0.741   8.026 -0.7437  0.1830  0.1270
  514SOL    HW1 6099   6.278   0.714   8.002 -0.8766  1.0163 -1.4017
  514SOL    HW2 6100   6.173   0.697   8.110 -0.2171 -2.8890 -1.2264
  515SOL     OW 6101   8.840  11.071   7.862 -0.0149 -0.0703  0.3931
  515SOL    HW1 6102   8.765  11.012   7.872 -0.8344  1.1211  1.7218
  515SOL    HW2 6103   8.896  11.049   7.936 -0.7870  1.3928  1.4715
  516SOL     OW 6104   4.282   6.508   6.329 -0.5062 -0.1592  0.5881
  516SOL    HW1 6105   4.292   6.603   6.332  1.3768 -0.3170  1.2570
  516SOL    HW2 6106   4.212   6.489   6.391 -0.0089  0.7248  1.4554
  517SOL     OW 6107   5.981   8.671   3.459 -0.1322 -0.1925 -0.2768
  517SOL    HW1 6108   6.050   8.701   3.400 -2.3149  1.2221 -2.2587
  517SOL    HW2 6109   5.969   8.579   3.438  1.4058 -0.6013  0.4456
  518SOL     OW 6110   3.303   4.565   6.062  0.0879 -0.2651 -0.2423
  518SOL    HW1 6111   3.241   4.531   5.997 -0.5678  0.5143 -0.0419
  518SOL    HW2 6112   3.313   4.494   6.125  0.0003 -0.6841 -0.6915
  519SOL     OW 6113  11.229   0.289   5.659 -0.0213 -0.0140  0.2390
  519SOL    HW1 6114  11.161   0.268   5.722  0.0043 -0.1174  0.2322
  519SOL    HW2 6115  11.271   0.368   5.693  1.8110 -1.5716  1.8105
  520SOL     OW 6116  10.471   9.685  10.353 -0.1314  0.5276  0.7696
  520SOL    HW1 6117  10.465   9.591  10.342  1.4192  0.6195 -1.4064
  520SOL    HW2 6118  10.382   9.713  10.372 -1.2057 -1.0686 -1.5326
  521SOL     OW 6119   4.214   9.754  11.787  0.0360  0.3603  0.1998
  521SOL    HW1 6120   4.213   9.661  11.809 -2.0071  0.6645  1.6418
  521SOL    HW2 6121   4.298   9.786  11.821  0.3244 -0.7658  0.5833
  522SOL     OW 6122   9.036   1.665   9.554 -0.0552 -0.2032 -0.4055
  522SOL    HW1 6123   8.941   1.666   9.548 -0.1267  1.0872  0.4022
  522SOL    HW2 6124   9.065   1.712   9.476 -0.0434 -1.1069 -0.9539
  523SOL     OW 6125   3.387   2.664   0.903  0.1193  0.1175 -0.0676
  523SOL    HW1 6126   3.334   2.721   0.958  1.4957 -0.1995  1.6686
  523SOL    HW2 6127   3.458   2.721   0.871  0.4481 -0.1651  0.1475
  524SOL     OW 6128   7.642   4.229  10.028  0.3389 -0.0418  0.3106
  524SOL    HW1 6129   7.655   4.148  10.078 -1.5324  0.0721  1.0521
  524SOL    HW2 6130   7.583   4.281  10.082  1.1484  1.6558 -0.3678
  525SOL     OW 6131   7.633   3.714   8.759  0.4527  0.3206 -0.2610
  525SOL    HW1 6132   7.650   3.765   8.680  1.5316 -0.1930 -0.3751
  525SOL    HW2 6133   7.558   3.659   8.736  0.1130  0.9115 -0.5805
  526SOL     OW 6134   0.146   6.655   5.021  0.4121 -0.0616  0.0402
  526SOL    HW1 6135   0.226   6.656   5.074  0.4238  0.1835  0.0168
  526SOL    HW2 6136   0.165   6.591   4.952  0.5350 -0.1102  0.1172
  527SOL     OW 6137   6.166   7.734  12.034  0.8359 -0.4014 -0.1201
  527SOL    HW1 6138   6.156   7.785  11.953 -1.3039 -1.9423 -0.9252
  527SOL    HW2 6139   6.243   7.679  12.018  1.6281  0.7190 -0.2694
  528SOL     OW 6140   2.961   5.048   2.775 -0.0206 -0.1936 -0.3365
  528SOL    HW1 6141   2.922   5.093   2.850  0.4334  0.2754 -0.3756
  528SOL    HW2 6142   3.053   5.037   2.799 -0.2680 -1.7560 -0.0283
  529SOL     OW 6143   7.784   1.235   9.582 -0.2550  0.2776 -0.1403
  529SOL    HW1 6144   7.743   1.314   9.547 -0.5424  0.0097 -0.4104
  529SOL    HW2 6145   7.877   1.257   9.585 -0.3782  0.7670  0.1626
  530SOL     OW 6146   5.820   4.707   2.938 -0.0671  0.4940 -0.0238
  530SOL    HW1 6147   5.852   4.638   2.880  0.3332  0.9037 -0.3034
  530SOL    HW2 6148   5.728   4.718   2.914 -0.3359 -0.4378  0.5268
  531SOL     OW 6149   2.870  11.463   0.180  0.1686 -0.0159 -0.2220
  531SOL    HW1 6150   2.886  11.551   0.146 -0.1169 -0.1283 -0.6545
  531SOL    HW2 6151   2.887  11.405   0.105 -2.5901 -0.1284 -0.8429
  532SOL     OW 6152   9.535   2.870   8.204  0.2839  0.3017  0.0923
  532SOL    HW1 6153   9.548   2.935   8.273  0.6189 -0.1299  0.4413
  532SOL    HW2 6154   9.473   2.808   8.242 -0.1316  0.4823 -0.2871
  533SOL     OW 6155   0.504   4.866   5.699  0.5718  0.1985  0.0432
  533SOL    HW1 6156   0.505   4.812   5.778 -0.2274 -0.4540 -0.3716
  533SOL    HW2 6157   0.596   4.883   5.680  0.8645 -1.4039 -0.0739
  534SOL     OW 6158   9.307  11.170   1.855  0.3010 -0.2051 -0.4421
  534SOL    HW1 6159   9.351  11.233   1.911 -0.8191  0.6376 -0.4531
  534SOL    HW2 6160   9.266  11.224   1.787 -2.3606 -0.6701  0.6499
  535SOL     OW 6161   7.629   2.772   5.378  0.3038  0.2081  0.3665
  535SOL    HW1 6162   7.638   2.853   5.328  1.0358  0.6805  1.2317
  535SOL    HW2 6163   7.703   2.719   5.348 -0.0195 -0.0438 -0.0006
  536SOL     OW 6164   1.889   9.972   2.390 -0.2131 -0.1795  0.0114
  536SOL    HW1 6165   1.852   9.962   2.477 -0.8989  0.4576 -0.2067
  536SOL    HW2 6166   1.964   9.912   2.389 -0.1568 -0.1342  1.0547
  537SOL     OW 6167   8.927   8.315   6.275  0.1111 -0.6383 -0.8403
  537SOL    HW1 6168   8.991   8.244   6.281  1.8164  0.6758 -2.2084
  537SOL    HW2 6169   8.882   8.300   6.192  1.9352  0.9185 -2.2014
  538SOL     OW 6170   3.738   1.540   0.418  0.0038 -0.0353 -0.1373
  538SOL    HW1 6171   3.646   1.536   0.445  0.8298  1.8458  3.7123
  538SOL    HW2 6172   3.738   1.594   0.340 -2.0450  1.6383  0.9225
  539SOL     OW 6173   1.200   9.833   2.449 -0.2558 -0.0006 -0.5132
  539SOL    HW1 6174   1.170   9.853   2.360  1.1369  1.0794 -0.7868
  539SOL    HW2 6175   1.142   9.883   2.506 -0.8144 -0.2712 -0.8369
  540SOL     OW 6176   6.216   6.028  11.275  0.8010 -1.1783 -0.0701
  540SOL    HW1 6177   6.215   5.973  11.354  0.8336 -0.2883  0.5679
  540SOL    HW2 6178   6.305   6.018  11.240  1.3898 -0.1387  1.0639
  541SOL     OW 6179  12.094   8.619   2.157 -0.2462 -0.4521 -0.3922
  541SOL    HW1 6180  12.027   8.687   2.145  0.0663  0.0876  0.7910
  541SOL    HW2 6181  12.044   8.538   2.164 -0.7013 -0.1948 -0.5698
  542SOL     OW 6182   7.027  10.467   5.027  0.2173  0.1657 -0.3734
  542SOL    HW1 6183   7.029  10.383   5.073 -0.5961  0.1874 -0.2813
  542SOL    HW2 6184   6.935  10.480   5.005  0.2472  1.2907  0.0971
  543SOL     OW 6185  11.889  10.859  12.022 -0.3559  0.1499 -0.3602
  543SOL    HW1 6186  11.794  10.852  12.032  0.0315 -2.2260  3.3272
  543SOL    HW2 6187  11.922  10.775  12.051  2.9867  1.2671 -0.5670
  544SOL     OW 6188   3.387  10.315   3.481 -0.4467  0.0161  0.4999
  544SOL    HW1 6189   3.420  10.318   3.571 -0.4238 -0.0825  0.4949
  544SOL    HW2 6190   3.295  10.339   3.488 -0.7890 -1.3123  0.7133
  545SOL     OW 6191   2.883   9.505   9.573  0.1596  0.2350  0.2530
  545SOL    HW1 6192   2.830   9.522   9.650  0.5998 -1.3416  0.9347
  545SOL    HW2 6193   2.969   9.541   9.594  0.2303 -0.0341  0.4204
  546SOL     OW 6194   5.891   3.362   1.115 -0.3423 -0.3842 -0.6198
  546SOL    HW1 6195   5.912   3.427   1.182  1.8722 -0.8301 -0.7905
  546SOL    HW2 6196   5.861   3.414   1.040  0.9426  0.4625 -0.5952
  547SOL     OW 6197   0.907  12.107   4.399  0.0106  0.2892  0.3864
  547SOL    HW1 6198   0.937  12.175   4.339  0.6711  1.6567  2.1816
  547SOL    HW2 6199   0.865  12.154   4.471 -0.8309 -1.2906  0.9903
  548SOL     OW 6200   3.439   8.798   8.811 -0.9974  0.2810  0.4266
  548SOL    HW1 6201   3.370   8.793   8.744  0.3780  0.6152 -1.0956
  548SOL    HW2 6202   3.453   8.892   8.824  0.8385  0.2867 -1.1655
  549SOL     OW 6203   3.964   8.583   3.714 -0.1549  0.0862 -0.0777
  549SOL    HW1 6204   4.012   8.508   3.749  0.3603  1.0673  1.4052
  549SOL    HW2 6205   3.900   8.604   3.782 -0.9849  0.3730 -0.9269
  550SOL     OW 6206   3.540   0.788   5.699  0.0441 -0.1457 -0.3176
  550SOL    HW1 6207   3.557   0.717   5.760  1.4342  0.1305 -0.3642
  550SOL    HW2 6208   3.496   0.855   5.752  0.7036 -0.1519  0.2505
  551SOL     OW 6209   8.639   2.390   3.922 -0.2292 -0.3038  0.0411
  551SOL    HW1 6210   8.618   2.436   4.003 -0.9897 -2.3217  1.0607
  551SOL    HW2 6211   8.735   2.384   3.922 -0.2358 -0.4994  0.9265
  552SOL     OW 6212  10.395   1.199   6.499  0.1696 -0.1976  0.5310
  552SOL    HW1 6213  10.485   1.166   6.492 -0.1314 -1.1938  1.0420
  552SOL    HW2 6214  10.402   1.278   6.552  0.9010  0.4877 -0.5546
  553SOL     OW 6215   0.561   5.848   9.044  0.3839 -0.7973 -0.2018
  553SOL    HW1 6216   0.584   5.904   9.118  1.6127 -1.5732  0.0252
  553SOL    HW2 6217   0.540   5.763   9.083 -2.2986 -0.3700 -0.4560
  554SOL     OW 6218  11.589   3.760   0.577 -0.2108 -0.1082 -0.2698
  554SOL    HW1 6219  11.535   3.810   0.516 -1.2145 -1.6970 -0.7508
  554SOL    HW2 6220  11.631   3.693   0.522 -1.1596 -1.5915  0.7262
  555SOL     OW 6221   3.680   2.651   7.447 -0.2345  0.3564 -0.0082
  555SOL    HW1 6222   3.765   2.674   7.484  0.0928  0.1805 -0.6491
  555SOL    HW2 6223   3.694   2.650   7.353 -0.4310 -1.7036 -0.0511
  556SOL     OW 6224   0.343   4.115   5.643  0.1869 -0.2106  0.0054
  556SOL    HW1 6225   0.404   4.143   5.575 -1.0431  2.8560  0.0013
  556SOL    HW2 6226   0.359   4.021   5.652  0.2869 -0.8790 -4.6305
  557SOL     OW 6227   2.109   8.987   4.559 -0.1324 -0.8508  0.0295
  557SOL    HW1 6228   2.048   8.924   4.519 -1.8053  0.1072  0.9600
  557SOL    HW2 6229   2.125   9.052   4.490  0.0384 -1.2422 -0.3005
  558SOL     OW 6230   3.258   4.038   0.388  0.3542 -0.6412 -0.0190
  558SOL    HW1 6231   3.244   3.958   0.336  1.6778 -0.8706 -0.0519
  558SOL    HW2 6232   3.238   4.109   0.328 -2.2795 -0.9099  0.4280
  559SOL     OW 6233   3.987   6.566   9.445  0.0573 -0.3849  0.3096
  559SOL    HW1 6234   4.061   6.604   9.493 -0.2391 -1.3607  1.5887
  559SOL    HW2 6235   4.028   6.511   9.378  0.4764  1.3335 -0.9170
  560SOL     OW 6236  11.572   4.998   2.777  0.4490  0.2174  0.2440
  560SOL    HW1 6237  11.593   5.070   2.718  0.7489 -0.6946 -0.8035
  560SOL    HW2 6238  11.486   5.019   2.813  0.2678  0.7976 -0.5174
  561SOL     OW 6239   4.162   0.457   0.097 -0.4444 -0.3170  0.3790
  561SOL    HW1 6240   4.178   0.381   0.153  1.1470  0.5597  1.1929
  561SOL    HW2 6241   4.121   0.522   0.155  1.3284  0.6418  0.6436
  562SOL     OW 6242   6.191  11.959   6.791  0.6267 -0.2594 -0.1512
  562SOL    HW1 6243   6.167  11.977   6.882  0.0100  0.1533 -0.3909
  562SOL    HW2 6244   6.110  11.933   6.749  0.5953  1.0110 -0.9322
  563SOL     OW 6245  12.021   3.238   9.411  0.0599  1.0940 -0.3439
  563SOL    HW1 6246  11.961   3.166   9.429  1.1248  0.5437  1.2486
  563SOL    HW2 6247  12.078   3.241   9.488 -0.4589  4.1792  0.0380
  564SOL     OW 6248  10.063   6.406   5.282 -0.3196 -0.0622  0.4671
  564SOL    HW1 6249  10.021   6.322   5.301  0.6025 -0.5717  0.3072
  564SOL    HW2 6250  10.068   6.450   5.367 -0.5759 -0.2714  0.5937
  565SOL     OW 6251   0.049   8.189   6.259  0.6369 -0.0268 -0.6990
  565SOL    HW1 6252   0.093   8.129   6.320 -2.2099 -3.3616 -1.5797
  565SOL    HW2 6253   0.066   8.151   6.172 -1.2939  0.3530 -1.2996
  566SOL     OW 6254  10.644   3.852   7.173 -0.6837  0.2540  0.5448
  566SOL    HW1 6255  10.594   3.899   7.107  0.9341  1.7311  0.3045
  566SOL    HW2 6256  10.579   3.825   7.238 -2.1792 -0.4662 -1.1634
  567SOL     OW 6257   1.673  10.314  11.210 -0.3999 -0.4478 -0.0382
  567SOL    HW1 6258   1.638  10.396  11.247 -0.0833  0.0150 -0.7378
  567SOL    HW2 6259   1.768  10.322  11.220 -0.4432 -1.3548  1.1466
  568SOL     OW 6260   9.345   5.096   2.311 -0.1645  0.1642  0.5169
  568SOL    HW1 6261   9.416   5.052   2.265 -0.7669 -0.6830  0.3767
  568SOL    HW2 6262   9.299   5.026   2.358 -1.7153  0.4752 -0.4652
  569SOL     OW 6263   3.992   2.114   4.436  0.3333  0.0671  1.1307
  569SOL    HW1 6264   3.961   2.055   4.367  0.7635 -0.0892  1.0662
  569SOL    HW2 6265   3.912   2.141   4.482 -0.0260  0.7136  0.1492
  570SOL     OW 6266  11.975   7.944   4.494  0.4619  0.1035 -0.0945
  570SOL    HW1 6267  12.005   8.012   4.435 -0.0195  0.6821  0.3219
  570SOL    HW2 6268  11.996   7.976   4.582 -0.2746 -0.0191  0.1360
  571SOL     OW 6269   4.466   6.755   5.607  0.4727  0.3543 -0.0742
  571SOL    HW1 6270   4.527   6.687   5.637  0.3610  1.2778  2.5125
  571SOL    HW2 6271   4.521   6.816   5.558  1.3029  0.2906  0.7429
  572SOL     OW 6272   0.240   5.054   4.900 -0.3841 -0.3188 -0.2638
  572SOL    HW1 6273   0.145   5.057   4.888 -0.4210 -0.0057  0.0906
  572SOL    HW2 6274   0.274   5.027   4.815 -0.8017 -0.5818 -0.3508
  573SOL     OW 6275  10.695  11.245   0.930  0.2420  1.0301 -0.4412
  573SOL    HW1 6276  10.685  11.187   1.005  0.2724  0.9660 -0.4867
  573SOL    HW2 6277  10.687  11.187   0.854  0.7853  1.0089 -0.4792
  574SOL     OW 6278   0.475  10.104   9.366  0.3192 -0.2266 -0.1857
  574SOL    HW1 6279   0.496  10.011   9.378 -0.8423 -0.4485  0.3286
  574SOL    HW2 6280   0.383  10.104   9.338  0.4861  0.7459 -0.7796
  575SOL     OW 6281   9.532   2.513  10.094 -0.2520  0.1223  0.1427
  575SOL    HW1 6282   9.446   2.494  10.133 -0.0985 -3.2096 -0.7719
  575SOL    HW2 6283   9.535   2.608  10.088 -2.6278  0.5343  2.9061
  576SOL     OW 6284   2.803   5.239   2.608 -0.0923  0.5020 -0.2490
  576SOL    HW1 6285   2.859   5.191   2.669 -1.3656 -0.7108  0.0092
  576SOL    HW2 6286   2.814   5.194   2.525 -0.6241  0.2984 -0.2115
  577SOL     OW 6287   2.149   6.171   4.612  0.4108 -0.2182  0.1196
  577SOL    HW1 6288   2.089   6.097   4.624  1.8974 -1.2300  1.9623
  577SOL    HW2 6289   2.236   6.131   4.614  1.2149  1.4331 -0.3916
  578SOL     OW 6290   1.811   9.462   2.531 -0.4022 -0.4104 -0.3330
  578SOL    HW1 6291   1.790   9.482   2.440 -0.2427  0.5276 -0.1767
  578SOL    HW2 6292   1.756   9.523   2.581 -0.8597 -1.2610  0.2084
  579SOL     OW 6293   6.850   6.475   8.796  0.2477  0.0778 -0.3477
  579SOL    HW1 6294   6.870   6.382   8.783  1.6059  0.1284  1.0647
  579SOL    HW2 6295   6.935   6.518   8.792 -0.4474  1.3944 -1.7341
  580SOL     OW 6296   9.275   4.367   4.562 -0.0147 -0.3999 -0.0218
  580SOL    HW1 6297   9.184   4.370   4.592  0.6030  1.1572  1.9362
  580SOL    HW2 6298   9.296   4.459   4.542  0.6540 -0.9553 -2.1253
  581SOL     OW 6299   0.040   5.136   2.479 -0.8482  0.7443  0.1046
  581SOL    HW1 6300   0.118   5.185   2.453 -0.3342  0.5311  1.1719
  581SOL    HW2 6301  -0.025   5.157   2.412  0.5186 -0.1499 -1.5973
  582SOL     OW 6302   7.505   8.701   4.046  0.0218  0.1348  0.7875
  582SOL    HW1 6303   7.466   8.614   4.044  1.5013 -0.6368  2.2514
  582SOL    HW2 6304   7.589   8.691   4.001  0.2919  0.7388  1.1310
  583SOL     OW 6305   2.697  11.828   7.370  0.2319  0.4471  0.5855
  583SOL    HW1 6306   2.612  11.845   7.331  0.1946 -2.3304 -0.8386
  583SOL    HW2 6307   2.677  11.793   7.457 -0.1218 -0.2460  0.2353
  584SOL     OW 6308   8.862  10.543  10.420  0.0952  0.0843  0.6081
  584SOL    HW1 6309   8.856  10.638  10.409  0.9836  0.0075 -0.7901
  584SOL    HW2 6310   8.772  10.512  10.410  0.1988  0.4390 -3.3101
  585SOL     OW 6311   2.004  10.297   9.305  0.6351 -0.2936  0.3089
  585SOL    HW1 6312   2.015  10.203   9.315  0.7497 -0.4984 -1.4380
  585SOL    HW2 6313   1.909  10.309   9.294  0.3315  0.0867  2.7143
  586SOL     OW 6314   0.066   9.809   9.930 -0.1757 -0.0151  0.1991
  586SOL    HW1 6315   0.139   9.829   9.988 -0.4536  2.9364 -0.3062
  586SOL    HW2 6316   0.082   9.719   9.901  3.2676  0.4823  0.1257
  587SOL     OW 6317   9.425   2.463  10.902 -0.0856 -0.1432  0.3424
  587SOL    HW1 6318   9.425   2.548  10.946 -0.0492  0.4390 -0.7396
  587SOL    HW2 6319   9.442   2.400  10.971  0.5069  0.7877  1.0656
  588SOL     OW 6320  11.471   0.256   8.847 -0.5783 -0.0284  0.1806
  588SOL    HW1 6321  11.394   0.308   8.870 -2.1342 -1.7206 -0.9279
  588SOL    HW2 6322  11.467   0.180   8.905  0.8174  0.2849  0.7425
  589SOL     OW 6323   9.874   8.510   4.863 -0.6908  0.4255 -0.1575
  589SOL    HW1 6324   9.843   8.445   4.926 -0.6325 -0.6035 -1.1655
  589SOL    HW2 6325   9.836   8.593   4.893  2.6753  0.8964  3.7400
  590SOL     OW 6326   0.178  11.796   9.348 -0.9555 -0.8055 -0.1024
  590SOL    HW1 6327   0.093  11.840   9.353 -0.4271  0.4014 -0.9623
  590SOL    HW2 6328   0.241  11.868   9.342 -0.0961 -1.6547 -2.2528
  591SOL     OW 6329   0.189   4.805  10.458 -0.1668 -0.1963  0.2448
  591SOL    HW1 6330   0.272   4.828  10.418 -1.4282  1.9497 -1.2975
  591SOL    HW2 6331   0.140   4.760  10.389 -1.3335  1.1196  0.1654
  592SOL     OW 6332   3.761   8.451  11.483 -0.0650  0.1487 -0.1068
  592SOL    HW1 6333   3.697   8.518  11.462 -0.6988 -0.1967  0.6532
  592SOL    HW2 6334   3.711   8.384  11.530  0.6490 -0.6223 -0.4246
  593SOL     OW 6335   5.629   4.006   2.898 -0.3364  0.3916  0.1069
  593SOL    HW1 6336   5.555   4.050   2.858 -0.3027  0.5102  0.1723
  593SOL    HW2 6337   5.602   3.991   2.989 -1.2750 -1.8272 -0.4623
  594SOL     OW 6338   4.670   6.729   2.873 -0.5968 -0.4174  0.5041
  594SOL    HW1 6339   4.587   6.774   2.890 -0.5714  0.8337 -2.1453
  594SOL    HW2 6340   4.736   6.786   2.913 -0.9258 -1.2606  2.3567
  595SOL     OW 6341   0.557   6.805   6.242 -0.0021 -0.1008  0.1320
  595SOL    HW1 6342   0.602   6.828   6.161 -0.5338  0.9240  0.1165
  595SOL    HW2 6343   0.624   6.812   6.310  0.8124 -2.2998 -0.3457
  596SOL     OW 6344   9.868  11.969  10.884  0.1718  0.8133 -0.4573
  596SOL    HW1 6345   9.822  12.035  10.935 -1.2864  0.3774 -1.1655
  596SOL    HW2 6346   9.807  11.945  10.814  0.0406 -2.2500  0.5593
  597SOL     OW 6347   5.370   4.367   6.616  0.1811  0.1419  0.4415
  597SOL    HW1 6348   5.458   4.386   6.584 -0.3899  0.0991 -1.2489
  597SOL    HW2 6349   5.369   4.272   6.627 -0.0040 -0.0186 -0.7574
  598SOL     OW 6350  11.629   6.463   3.294 -0.7110  0.1521  0.1092
  598SOL    HW1 6351  11.667   6.438   3.210 -0.9410 -0.1380  0.0905
  598SOL    HW2 6352  11.545   6.501   3.272 -1.0187 -0.4328  0.2406
  599SOL     OW 6353   3.715   1.172   0.973 -0.2222  0.4397  0.0422
  599SOL    HW1 6354   3.731   1.175   0.879 -2.6412 -0.9855 -0.5205
  599SOL    HW2 6355   3.671   1.088   0.986 -1.9841  1.5906  2.0663
  600SOL     OW 6356  11.083   8.705   1.295  0.3715 -0.4069  0.8139
  600SOL    HW1 6357  11.008   8.753   1.260 -0.2645 -1.9681 -0.0434
  600SOL    HW2 6358  11.131   8.770   1.346 -0.1214  1.2904 -0.7864
  601SOL     OW 6359   0.668   2.775  10.467  0.2538 -0.0747  0.1896
  601SOL    HW1 6360   0.623   2.691  10.455 -4.4631  2.3118 -1.4552
  601SOL    HW2 6361   0.711   2.792  10.384 -1.6216  0.4664 -0.7244
  602SOL     OW 6362   8.315   8.615  11.178  0.3884 -0.5107 -0.2357
  602SOL    HW1 6363   8.241   8.624  11.117  0.2756 -1.4392 -0.2518
  602SOL    HW2 6364   8.356   8.532  11.154  0.2083 -1.0107  1.1027
  603SOL     OW 6365  10.127   7.714   0.006 -0.8156 -0.3651  0.2113
  603SOL    HW1 6366  10.032   7.720   0.020 -1.0851  1.8062 -1.9492
  603SOL    HW2 6367  10.137   7.664  -0.074 -0.0414 -1.2366  0.8259
  604SOL     OW 6368   5.200   8.019   2.470  0.6161  0.2277  0.1520
  604SOL    HW1 6369   5.253   7.958   2.419  1.8183  0.1119  1.4668
  604SOL    HW2 6370   5.259   8.049   2.540 -0.7088  0.9972  0.9810
  605SOL     OW 6371   4.114   7.034   8.650  0.2653  0.6388 -0.5158
  605SOL    HW1 6372   4.041   7.066   8.703  1.0888  2.0015 -0.1595
  605SOL    HW2 6373   4.142   6.953   8.693 -0.8355  0.2492 -0.4959
  606SOL     OW 6374   0.522   6.278   9.821 -0.0987 -0.3961  0.0160
  606SOL    HW1 6375   0.470   6.235   9.753 -0.4218 -0.9967  0.6312
  606SOL    HW2 6376   0.466   6.275   9.899 -0.1675  1.2362  0.0560
  607SOL     OW 6377   2.344   2.997   6.537  0.0494  0.2259 -0.3947
  607SOL    HW1 6378   2.341   3.031   6.447  0.5313 -0.1522 -0.5614
  607SOL    HW2 6379   2.278   2.928   6.539 -0.4370  0.6959 -0.2609
  608SOL     OW 6380  12.032  10.307   9.052  0.0535  0.5982  0.3355
  608SOL    HW1 6381  12.020  10.253   9.130  0.7437  0.7298  0.5423
  608SOL    HW2 6382  12.004  10.252   8.979 -0.7803  0.5455  0.6872
  609SOL     OW 6383   2.010   3.541   1.771  0.3810 -0.2738  0.5849
  609SOL    HW1 6384   1.917   3.559   1.781  0.5315  0.9946 -0.1215
  609SOL    HW2 6385   2.049   3.626   1.753  1.3378 -1.0650 -1.4035
  610SOL     OW 6386   8.519   5.749   8.127 -0.0507 -0.0957 -0.0254
  610SOL    HW1 6387   8.483   5.826   8.083 -2.2150 -0.5854  0.7776
  610SOL    HW2 6388   8.572   5.706   8.060 -0.6668  0.8754 -1.1749
  611SOL     OW 6389   1.998   7.986   5.612  0.3329  0.0886  0.2305
  611SOL    HW1 6390   1.972   7.894   5.614  0.5128 -0.0081 -1.0852
  611SOL    HW2 6391   2.057   7.993   5.538  1.6195  0.9567  1.2981
  612SOL     OW 6392   3.222   4.271   1.923  0.1877  0.0806  0.0653
  612SOL    HW1 6393   3.250   4.298   2.010 -0.8749 -0.4200  0.5767
  612SOL    HW2 6394   3.299   4.228   1.885 -0.0865 -2.0813  1.7635
  613SOL     OW 6395   3.526   1.934   8.491  0.3327 -0.2891  0.1147
  613SOL    HW1 6396   3.594   2.000   8.478 -0.5329  0.3561 -1.4913
  613SOL    HW2 6397   3.458   1.957   8.426 -2.1977  0.1129  2.6938
  614SOL     OW 6398   6.377  11.087   1.717 -0.1999  0.0604 -0.2640
  614SOL    HW1 6399   6.357  11.000   1.753 -0.8539  0.5830  0.6698
  614SOL    HW2 6400   6.459  11.112   1.761 -0.3879  0.2103  0.0052
  615SOL     OW 6401   3.360   0.270  10.218 -0.2364  0.4254  0.3751
  615SOL    HW1 6402   3.360   0.343  10.280  1.3853  1.3586 -0.6524
  615SOL    HW2 6403   3.443   0.278  10.171  0.9742 -3.2298  1.5081
  616SOL     OW 6404   3.947   8.009   7.984  0.7062 -0.5486  0.3054
  616SOL    HW1 6405   3.933   8.104   7.984  0.2119 -0.5400 -2.2124
  616SOL    HW2 6406   4.003   7.993   7.907 -0.3831 -2.4133 -0.1688
  617SOL     OW 6407   2.771   5.096   2.370  0.1515 -0.1906  0.6301
  617SOL    HW1 6408   2.681   5.114   2.400 -0.3658 -0.6582 -0.5926
  617SOL    HW2 6409   2.769   5.005   2.341  1.2991 -0.5291  1.5269
  618SOL     OW 6410   6.516   0.464  10.643  0.4438  0.0821 -0.1308
  618SOL    HW1 6411   6.421   0.449  10.647  0.4403  0.0598 -0.2938
  618SOL    HW2 6412   6.555   0.378  10.655  0.4117 -0.1929 -1.7575
  619SOL     OW 6413   3.761  10.767   9.866 -0.3988 -0.8051 -0.2357
  619SOL    HW1 6414   3.816  10.845   9.872 -0.7664 -0.6713  2.7548
  619SOL    HW2 6415   3.675  10.800   9.838 -0.0128 -0.4844 -1.0938
  620SOL     OW 6416   3.156  10.383  10.839 -0.2432  0.8898  1.0155
  620SOL    HW1 6417   3.250  10.383  10.820 -0.3801  0.9263  0.3290
  620SOL    HW2 6418   3.133  10.475  10.846  0.1575  0.8878  3.2225
  621SOL     OW 6419   0.715  10.475   3.303 -0.4176 -1.0142 -0.9401
  621SOL    HW1 6420   0.727  10.465   3.208 -0.0693 -0.4933 -0.9582
  621SOL    HW2 6421   0.795  10.439   3.341 -0.6814 -1.4884 -0.8222
  622SOL     OW 6422   0.718   5.437   9.167  0.3282 -0.3324  0.5337
  622SOL    HW1 6423   0.744   5.465   9.080  1.5076  1.4556  1.4065
  622SOL    HW2 6424   0.799   5.404   9.207  0.0027 -0.2930  1.2430
  623SOL     OW 6425  10.735   7.498   6.201 -0.3389  0.2351  0.3287
  623SOL    HW1 6426  10.784   7.573   6.234 -0.6008  0.4959  0.1334
  623SOL    HW2 6427  10.769   7.423   6.250  0.4436  0.3709  0.0098
  624SOL     OW 6428   5.016   6.543   7.141  0.1136  0.1638  0.4415
  624SOL    HW1 6429   4.923   6.563   7.129 -0.1905 -0.1732  2.0236
  624SOL    HW2 6430   5.061   6.614   7.095 -0.8989  0.1818 -0.6003
  625SOL     OW 6431   9.912  10.564   6.051 -0.1558 -0.2662 -0.0852
  625SOL    HW1 6432   9.866  10.481   6.052 -0.2927 -0.2562 -1.6894
  625SOL    HW2 6433   9.922  10.584   5.957  0.8345  0.9794  0.2580
  626SOL     OW 6434   8.095   6.699   9.796  0.8473  0.2167  0.1085
  626SOL    HW1 6435   8.134   6.678   9.711 -0.4994 -0.9804 -0.2385
  626SOL    HW2 6436   8.005   6.667   9.790 -0.1213  2.5482  1.0210
  627SOL     OW 6437   8.061   2.743   4.786 -0.2718 -0.0123  0.2909
  627SOL    HW1 6438   8.027   2.657   4.761  0.6893 -0.3557  0.1099
  627SOL    HW2 6439   8.051   2.797   4.708  0.9787 -0.5503 -0.2763
  628SOL     OW 6440   6.146   3.923   2.653 -0.1192  0.2072 -1.1191
  628SOL    HW1 6441   6.198   3.907   2.731 -0.5181 -0.1698 -0.9259
  628SOL    HW2 6442   6.204   3.971   2.594  0.0239  0.9492 -0.3888
  629SOL     OW 6443  10.215   6.616   7.568 -0.3086 -0.3215  0.3623
  629SOL    HW1 6444  10.162   6.561   7.511 -1.0015  0.2183  0.4655
  629SOL    HW2 6445  10.163   6.625   7.648  0.0528  0.0068  0.5655
  630SOL     OW 6446  11.994   9.119   7.964  0.3428  0.0575  0.2486
  630SOL    HW1 6447  12.062   9.053   7.976 -2.2204 -2.6559  1.0435
  630SOL    HW2 6448  12.018   9.164   7.883  2.1006 -2.0062 -0.4606
  631SOL     OW 6449  10.259   8.322   6.922  0.6527  0.0594  0.2670
  631SOL    HW1 6450  10.329   8.282   6.871  0.5558  0.0287  0.1589
  631SOL    HW2 6451  10.222   8.250   6.974  0.2364 -0.0678 -0.1996
  632SOL     OW 6452   6.066   3.377   8.625  0.3771 -0.3916 -0.0499
  632SOL    HW1 6453   6.045   3.417   8.541  0.0840 -0.2982  0.0642
  632SOL    HW2 6454   6.123   3.304   8.604 -0.3996 -0.9102 -0.4186
  633SOL     OW 6455  11.131   3.374   3.045 -0.5240 -0.1070 -0.0298
  633SOL    HW1 6456  11.135   3.388   2.951 -0.2020  1.1406  0.1373
  633SOL    HW2 6457  11.053   3.422   3.073 -0.2879  0.0285  0.4054
  634SOL     OW 6458   1.189  10.173   2.696 -0.1180 -0.0084 -0.5982
  634SOL    HW1 6459   1.110  10.122   2.678 -1.6175  1.6337  0.9150
  634SOL    HW2 6460   1.196  10.233   2.622 -1.1151  0.7316 -0.1270
  635SOL     OW 6461   3.260   7.891   5.997  0.3481 -0.3273  0.1129
  635SOL    HW1 6462   3.323   7.896   6.068 -0.1731 -0.1920  0.5731
  635SOL    HW2 6463   3.175   7.906   6.039  0.0495 -0.1048 -0.5568
  636SOL     OW 6464  11.147   4.261   1.238  0.1693 -0.0218  0.4137
  636SOL    HW1 6465  11.099   4.332   1.279  2.1774  1.2168  0.7878
  636SOL    HW2 6466  11.198   4.223   1.310  1.4967  0.2620 -0.3479
  637SOL     OW 6467   2.409   9.492   7.024 -0.2363 -0.3123  0.1280
  637SOL    HW1 6468   2.471   9.503   6.952 -0.1791 -1.4502 -0.0192
  637SOL    HW2 6469   2.393   9.397   7.027 -0.9296 -0.1762  1.0308
  638SOL     OW 6470   1.012   8.411   2.337  0.0365 -0.0733  0.1561
  638SOL    HW1 6471   1.103   8.435   2.317  0.3632 -1.2711  0.1061
  638SOL    HW2 6472   0.963   8.492   2.329  0.9632  0.4173 -0.7183
  639SOL     OW 6473   1.495   7.588  11.789 -0.5851  0.1675  0.3517
  639SOL    HW1 6474   1.480   7.584  11.884 -1.0113  4.9705  0.7070
  639SOL    HW2 6475   1.581   7.628  11.780  0.2789 -1.8943 -1.4492
  640SOL     OW 6476   6.055   3.185   8.875  0.0192  0.5091  0.0511
  640SOL    HW1 6477   6.094   3.139   8.800  0.1322  1.4970 -0.5182
  640SOL    HW2 6478   6.121   3.250   8.900 -0.1415  0.3766  0.8319
  641SOL     OW 6479   6.959   7.050   6.853  0.7110  0.1497  0.4087
  641SOL    HW1 6480   6.971   6.976   6.793 -0.6804 -0.1540  0.4662
  641SOL    HW2 6481   6.972   7.128   6.799  0.1114 -0.1298 -0.1528
  642SOL     OW 6482   6.276   3.149   5.322 -0.0248 -0.0387  0.1138
  642SOL    HW1 6483   6.333   3.172   5.396  2.3398 -0.0620 -1.5752
  642SOL    HW2 6484   6.227   3.229   5.304  0.6630  0.5044  0.6084
  643SOL     OW 6485  11.225  10.377   6.855 -0.3523 -0.0483  0.3046
  643SOL    HW1 6486  11.264  10.292   6.873  0.4815  0.0081 -1.1557
  643SOL    HW2 6487  11.238  10.427   6.936  0.0650 -0.9619  0.8079
  644SOL     OW 6488   0.289   1.979   2.250  0.3614  0.1407  0.2909
  644SOL    HW1 6489   0.353   2.006   2.315  0.0803  0.1255  0.5805
  644SOL    HW2 6490   0.205   2.009   2.285  0.2291  0.3052 -0.1610
  645SOL     OW 6491   8.865  11.938   0.324 -0.3533  0.3147  0.4068
  645SOL    HW1 6492   8.840  11.878   0.254 -1.5619  0.5507  0.6225
  645SOL    HW2 6493   8.870  11.884   0.403  1.7399 -0.1028  0.0644
  646SOL     OW 6494   5.939   2.547   5.007 -0.0441  0.1300  0.2845
  646SOL    HW1 6495   5.891   2.464   5.016  1.3393 -0.8263 -0.6958
  646SOL    HW2 6496   6.018   2.524   4.957  1.7083  1.4986  2.2354
  647SOL     OW 6497   7.137   9.201   6.724  0.6526 -0.4291 -0.1911
  647SOL    HW1 6498   7.180   9.188   6.640  0.7161  0.6918 -0.3498
  647SOL    HW2 6499   7.209   9.204   6.787  0.8452  1.2983 -0.4388
  648SOL     OW 6500   6.110   4.179   7.817 -0.2373 -0.1301 -0.1845
  648SOL    HW1 6501   6.203   4.193   7.801 -0.4395  0.6598 -0.7424
  648SOL    HW2 6502   6.107   4.109   7.882  0.7346 -0.3935 -0.4066
  649SOL     OW 6503   2.296   7.688   5.996  0.4327  0.1308 -0.6965
  649SOL    HW1 6504   2.282   7.619   5.931 -1.4359  0.9085 -1.1536
  649SOL    HW2 6505   2.275   7.646   6.080  2.8015 -0.8581 -0.5027
  650SOL     OW 6506   1.404   8.601   7.558 -0.0579  0.4275  0.0434
  650SOL    HW1 6507   1.355   8.674   7.595 -0.0617  0.4461  0.0009
  650SOL    HW2 6508   1.420   8.543   7.632  0.4037  0.7239  0.1823
  651SOL     OW 6509   8.050   0.383   6.899  0.1945  0.4476  0.0721
  651SOL    HW1 6510   8.141   0.392   6.927  0.1465 -1.4975  0.9747
  651SOL    HW2 6511   8.054   0.325   6.823 -0.1653  1.8623 -1.0976
  652SOL     OW 6512   1.699   9.073   5.935 -0.0752  0.2919  0.9321
  652SOL    HW1 6513   1.630   9.100   5.874 -0.5580  0.9231  1.7384
  652SOL    HW2 6514   1.692   8.977   5.938 -0.8525  0.3382  0.9198
  653SOL     OW 6515   7.618   6.163   1.594  0.7291  0.5757  0.2855
  653SOL    HW1 6516   7.582   6.165   1.683  1.2385 -0.9300  0.5483
  653SOL    HW2 6517   7.691   6.101   1.599 -0.1352 -0.6442 -1.5078
  654SOL     OW 6518   0.245   3.292  10.832 -0.3728 -0.1857  0.4649
  654SOL    HW1 6519   0.277   3.249  10.753 -0.8541 -1.8442  1.1209
  654SOL    HW2 6520   0.230   3.383  10.806  0.4471 -0.4603 -1.0596
  655SOL     OW 6521   5.947   0.839   0.998  0.1254 -0.0938 -0.1381
  655SOL    HW1 6522   5.919   0.921   1.038  0.0931 -0.9424  1.7152
  655SOL    HW2 6523   6.032   0.821   1.039 -0.2557 -1.3899  0.1263
  656SOL     OW 6524  11.075   2.034   6.359  0.0679  0.0985 -0.5848
  656SOL    HW1 6525  11.097   2.099   6.426  0.7778 -0.0034 -0.7121
  656SOL    HW2 6526  11.071   1.951   6.407 -0.8255  0.2266 -0.4245
  657SOL     OW 6527   7.596   4.429   5.187 -0.5617 -0.3947  0.1046
  657SOL    HW1 6528   7.632   4.497   5.130 -2.0147 -0.1214 -0.5149
  657SOL    HW2 6529   7.503   4.426   5.166 -0.8221 -1.4595  1.2833
  658SOL     OW 6530   6.259   0.356  11.216 -0.1756 -0.0687 -0.3416
  658SOL    HW1 6531   6.249   0.261  11.220  0.0609 -0.0695  0.6564
  658SOL    HW2 6532   6.178   0.388  11.179 -0.8040 -0.5819  0.5411
  659SOL     OW 6533   7.828   6.042   8.205 -0.4695  0.6540  0.2763
  659SOL    HW1 6534   7.893   5.990   8.251  0.2662  2.0186  0.8482
  659SOL    HW2 6535   7.758   6.055   8.269 -2.5811 -2.8342 -1.0596
  660SOL     OW 6536   0.813  11.815   2.991 -0.3876 -0.2210 -0.6840
  660SOL    HW1 6537   0.729  11.768   2.993 -0.0460 -0.8470  0.7985
  660SOL    HW2 6538   0.870  11.760   2.938 -0.1648 -1.2385  0.5436
  661SOL     OW 6539   1.957   1.621   7.855  0.7455 -0.0264 -0.2008
  661SOL    HW1 6540   1.941   1.617   7.761  0.2450 -0.9471 -0.0856
  661SOL    HW2 6541   1.870   1.624   7.895  0.9166 -0.9787  0.2753
  662SOL     OW 6542   3.274   7.990  11.614  0.3166  0.3420  0.5885
  662SOL    HW1 6543   3.208   7.933  11.653 -0.7479  0.6696 -0.6494
  662SOL    HW2 6544   3.350   7.934  11.601 -0.7992 -0.9081 -0.8705
  663SOL     OW 6545   1.481   2.623   9.932 -0.3433 -0.1607  0.0069
  663SOL    HW1 6546   1.552   2.580   9.979  1.1672 -1.2032 -2.9360
  663SOL    HW2 6547   1.521   2.702   9.895 -2.0208  1.7490  2.0088
  664SOL     OW 6548   5.551  11.263  10.727 -0.1874 -0.0975 -0.4396
  664SOL    HW1 6549   5.576  11.171  10.728 -1.4995 -0.4693  0.0937
  664SOL    HW2 6550   5.625  11.308  10.687  0.1279 -1.4823 -1.4688
  665SOL     OW 6551   5.263  10.557   9.676 -0.4708 -0.2193 -0.0355
  665SOL    HW1 6552   5.272  10.543   9.770  1.0284 -1.2045 -0.2919
  665SOL    HW2 6553   5.328  10.499   9.637 -0.8328  0.4280 -1.6683
  666SOL     OW 6554   1.022   9.083   2.443  0.2816  0.5462 -0.4638
  666SOL    HW1 6555   1.082   9.143   2.487 -1.3363  2.7820 -1.0930
  666SOL    HW2 6556   0.957   9.060   2.509  0.7709 -0.3920 -0.2877
  667SOL     OW 6557  11.954   0.890   6.859 -0.4194  0.2925  0.3043
  667SOL    HW1 6558  11.947   0.795   6.847 -0.9188  0.5497 -1.7884
  667SOL    HW2 6559  12.030   0.901   6.916 -0.0943 -1.3459  0.2336
  668SOL     OW 6560   4.446   4.841   6.327  0.6143  0.2112 -0.0185
  668SOL    HW1 6561   4.457   4.781   6.253  1.3798 -1.1170  1.1152
  668SOL    HW2 6562   4.435   4.927   6.287  0.3600 -0.5529 -1.6853
  669SOL     OW 6563   0.378   8.357   3.484  0.1309 -0.1793  0.2418
  669SOL    HW1 6564   0.464   8.315   3.491  0.7862  0.6327 -2.0840
  669SOL    HW2 6565   0.386   8.437   3.536  1.2980  0.5891 -1.0521
  670SOL     OW 6566   9.763   6.826   2.641 -0.3100 -0.4638 -0.3767
  670SOL    HW1 6567   9.672   6.805   2.663 -0.5956 -0.9609 -1.9390
  670SOL    HW2 6568   9.758   6.913   2.602 -0.1108 -0.4943 -0.4693
  671SOL     OW 6569   4.092   1.877   5.288 -0.1648  0.1950 -0.2871
  671SOL    HW1 6570   4.131   1.802   5.331  1.5303  1.6218  0.8239
  671SOL    HW2 6571   4.148   1.893   5.211 -1.0270 -0.1748 -1.0075
  672SOL     OW 6572   8.374   1.862   2.646 -0.2792 -0.2039  0.2647
  672SOL    HW1 6573   8.424   1.830   2.721 -1.3672  0.6664  1.3996
  672SOL    HW2 6574   8.326   1.785   2.616  1.0064 -0.8257 -0.2700
  673SOL     OW 6575   6.399   2.895   0.185 -0.4220 -0.1530  0.4773
  673SOL    HW1 6576   6.328   2.957   0.200  0.4980  0.7049  1.4073
  673SOL    HW2 6577   6.371   2.815   0.230 -0.4070  0.4598  1.5851
  674SOL     OW 6578   7.059   6.842   0.367  0.4302 -0.1468 -0.1506
  674SOL    HW1 6579   7.071   6.757   0.326 -1.8228 -0.5412 -0.1422
  674SOL    HW2 6580   7.132   6.851   0.428  0.1773 -2.5234  0.5821
  675SOL     OW 6581   0.583  11.295   6.692 -0.1551 -0.3159 -0.0568
  675SOL    HW1 6582   0.657  11.263   6.640 -1.5880 -2.2444 -1.0120
  675SOL    HW2 6583   0.561  11.223   6.750 -1.2705  0.2508  0.2422
  676SOL     OW 6584   3.109   3.989   0.622  0.0812  0.2789 -0.1872
  676SOL    HW1 6585   3.180   3.985   0.558  0.8722  0.0174  0.6913
  676SOL    HW2 6586   3.059   3.909   0.606 -0.0841  0.5086 -0.8691
  677SOL     OW 6587   5.470   5.689   6.795 -0.2781 -0.1403  0.1306
  677SOL    HW1 6588   5.475   5.651   6.707  1.9931  0.2465  0.0609
  677SOL    HW2 6589   5.541   5.752   6.799 -0.9791  0.5986  1.9218
  678SOL     OW 6590  10.605   1.925   1.838 -0.0658  0.0021  0.4859
  678SOL    HW1 6591  10.631   1.839   1.803 -0.0276 -0.1221  0.8179
  678SOL    HW2 6592  10.585   1.908   1.930 -1.3204  0.0964  0.2451
  679SOL     OW 6593   9.319   2.247   9.496 -0.1651 -0.0660 -0.0331
  679SOL    HW1 6594   9.305   2.155   9.474 -0.5327 -0.3327  1.2156
  679SOL    HW2 6595   9.242   2.293   9.463  0.6935  0.0679 -1.9989
  680SOL     OW 6596  11.214   3.892   6.007  0.3173 -0.4800  0.0326
  680SOL    HW1 6597  11.182   3.802   6.022  0.4218 -0.5777 -0.3242
  680SOL    HW2 6598  11.134   3.942   5.988  0.0292 -0.1052  1.9980
  681SOL     OW 6599   6.195   4.831   2.080 -0.0710  0.1007  0.2544
  681SOL    HW1 6600   6.195   4.771   2.005  1.9170  1.7038 -1.1345
  681SOL    HW2 6601   6.119   4.887   2.065 -0.8339 -0.8254  0.5422
  682SOL     OW 6602  10.262   0.940   1.648  0.0471  0.4303  0.3007
  682SOL    HW1 6603  10.202   0.868   1.630  1.9756 -0.8449 -1.3970
  682SOL    HW2 6604  10.311   0.952   1.567  2.4072  1.0817  1.7285
  683SOL     OW 6605  10.699   0.120   0.960 -0.3188  0.0640  0.0974
  683SOL    HW1 6606  10.746   0.036   0.955 -1.1624 -0.3587 -1.2435
  683SOL    HW2 6607  10.753   0.174   1.018  0.8202 -1.0288  0.1036
  684SOL     OW 6608   8.844  11.131  11.198  0.3420 -0.5250  0.2660
  684SOL    HW1 6609   8.836  11.103  11.290  0.8063  0.1599  0.5217
  684SOL    HW2 6610   8.928  11.177  11.194 -0.6883  1.4518  0.0276
  685SOL     OW 6611   7.614   8.275   3.559  0.7165  0.7158 -0.0998
  685SOL    HW1 6612   7.540   8.301   3.613  0.5008  2.1737 -1.0365
  685SOL    HW2 6613   7.691   8.308   3.605  0.7341  0.0125  0.4019
  686SOL     OW 6614   0.670   7.682   5.916 -0.2078 -0.3657  0.1477
  686SOL    HW1 6615   0.626   7.675   5.831 -0.4295 -1.0003  0.3048
  686SOL    HW2 6616   0.713   7.767   5.914 -1.0394  0.0560 -0.2110
  687SOL     OW 6617  11.461   1.297   7.748  0.3518  0.6005 -0.2838
  687SOL    HW1 6618  11.411   1.258   7.677  0.5021 -0.7155  0.3127
  687SOL    HW2 6619  11.404   1.291   7.825  0.4904  1.3066 -0.1136
  688SOL     OW 6620   5.594   4.785   2.785  0.7110  0.1661 -0.7124
  688SOL    HW1 6621   5.625   4.734   2.710  1.5578 -0.1313 -0.1630
  688SOL    HW2 6622   5.502   4.758   2.795  1.3008 -1.7726 -0.0218
  689SOL     OW 6623   9.062  11.771   5.330 -0.1097  0.4792 -0.1693
  689SOL    HW1 6624   9.135  11.709   5.327  0.1902  0.3679  3.7666
  689SOL    HW2 6625   9.101  11.852   5.363 -1.4101  1.0283  0.0676
  690SOL     OW 6626   2.749   6.660   2.951 -0.2855 -0.1257 -0.1177
  690SOL    HW1 6627   2.787   6.586   2.998 -2.0374  0.2317  2.0186
  690SOL    HW2 6628   2.799   6.736   2.981  0.4714 -0.2161 -1.0962
  691SOL     OW 6629   4.617   1.586   0.195 -0.0544 -0.1405  0.1642
  691SOL    HW1 6630   4.621   1.672   0.153 -1.6272 -0.7054 -1.2316
  691SOL    HW2 6631   4.705   1.549   0.183  0.6375  1.2425  0.7908
  692SOL     OW 6632   3.674   9.303   4.006 -0.1772 -0.3307 -0.3147
  692SOL    HW1 6633   3.686   9.270   4.095  1.5948  0.4293 -0.2392
  692SOL    HW2 6634   3.748   9.268   3.957  1.0945  2.4123 -0.5252
  693SOL     OW 6635  11.566  10.477   6.406  0.0660 -0.0089 -0.1863
  693SOL    HW1 6636  11.636  10.411   6.403  0.6494  0.6105 -2.0980
  693SOL    HW2 6637  11.582  10.525   6.487  1.3250 -0.4504 -0.1441
  694SOL     OW 6638   6.788   8.420   8.046  0.3225  0.0421  0.5490
  694SOL    HW1 6639   6.827   8.362   8.111  0.0392  0.2201  0.8788
  694SOL    HW2 6640   6.697   8.391   8.038  0.7781 -1.1319 -1.0757
  695SOL     OW 6641   6.460   4.711   8.016 -0.7190 -0.5165  0.5232
  695SOL    HW1 6642   6.407   4.641   7.980 -0.6620  1.0898 -3.0404
  695SOL    HW2 6643   6.401   4.786   8.024  0.0220  0.0671  0.7474
  696SOL     OW 6644   9.219  11.066  10.160  0.5944  0.0242  0.0360
  696SOL    HW1 6645   9.208  11.145  10.212  1.4979  0.1233  0.0958
  696SOL    HW2 6646   9.310  11.039  10.176  0.3371 -0.9528 -0.0800
  697SOL     OW 6647  11.048   7.408   9.683  0.0416  0.2670 -0.0158
  697SOL    HW1 6648  11.079   7.353   9.754  2.6350  0.7183 -0.7034
  697SOL    HW2 6649  11.005   7.347   9.622  0.5031 -0.5717  0.4830
  698SOL     OW 6650  11.925   9.705  10.501 -0.3599  0.6284  0.0833
  698SOL    HW1 6651  11.891   9.617  10.487 -0.8310  1.0856 -1.8852
  698SOL    HW2 6652  11.965   9.730  10.417  2.0522  1.3484  1.3351
  699SOL     OW 6653   8.776   2.472   2.196 -0.3333 -0.1948 -0.4610
  699SOL    HW1 6654   8.856   2.477   2.247 -0.5227  2.2171 -0.3247
  699SOL    HW2 6655   8.786   2.537   2.127 -2.2017  0.2430 -0.3811
  700SOL     OW 6656   3.428   3.347   4.234  0.2990 -0.8872 -0.1609
  700SOL    HW1 6657   3.491   3.419   4.244 -0.7969 -0.0364  0.7974
  700SOL    HW2 6658   3.478   3.269   4.259  0.8367 -0.1614  1.1274
  701SOL     OW 6659   9.150   9.153  10.176  0.0947 -0.1283  0.3182
  701SOL    HW1 6660   9.167   9.243  10.203 -0.1144  0.0348 -0.0854
  701SOL    HW2 6661   9.156   9.102  10.257  1.4500  0.0628  0.3646
  702SOL     OW 6662   2.457   9.924  11.508 -0.1214  0.0136  0.2288
  702SOL    HW1 6663   2.424   9.965  11.429 -1.2406 -2.6450 -0.8170
  702SOL    HW2 6664   2.393   9.947  11.576 -0.8548 -0.1899 -0.3795
  703SOL     OW 6665   3.955   9.390   1.696  0.6141  0.0227  0.4289
  703SOL    HW1 6666   4.013   9.444   1.643  0.5480 -0.6783 -0.3872
  703SOL    HW2 6667   3.974   9.415   1.786  0.0530  1.9204  0.0473
  704SOL     OW 6668   6.517   9.255  10.426  0.3260 -0.1680 -0.7617
  704SOL    HW1 6669   6.549   9.338  10.390  0.6688 -0.1985 -0.5343
  704SOL    HW2 6670   6.593   9.217  10.470  0.7028 -1.4842 -2.4461
  705SOL     OW 6671   5.576   6.582   2.283  0.1853  0.4533  0.0717
  705SOL    HW1 6672   5.491   6.548   2.313 -0.0997  1.5321  0.5255
  705SOL    HW2 6673   5.600   6.524   2.211  0.1276 -1.2355  1.3449
  706SOL     OW 6674   2.514   1.959   7.701  0.2235 -0.0174 -0.5272
  706SOL    HW1 6675   2.504   1.914   7.785 -1.0993  0.4548 -0.4093
  706SOL    HW2 6676   2.543   1.891   7.641  0.5696 -0.5020  0.1667
  707SOL     OW 6677   4.850   9.931   4.767 -0.1685  0.0784 -0.2079
  707SOL    HW1 6678   4.755   9.925   4.759 -0.2197  1.1804 -0.4787
  707SOL    HW2 6679   4.875  10.008   4.716  1.0917 -1.2923 -1.7798
  708SOL     OW 6680   4.943  12.054   0.697 -0.4799  0.4171  0.4985
  708SOL    HW1 6681   4.968  12.064   0.605 -0.2120 -1.9589  0.2426
  708SOL    HW2 6682   4.861  12.004   0.694 -0.8727  0.9711  1.5479
  709SOL     OW 6683   3.062   2.868  11.944  0.5628 -0.6875  0.4531
  709SOL    HW1 6684   3.074   2.803  12.014  1.8984 -2.7272 -1.5113
  709SOL    HW2 6685   3.142   2.861  11.891 -0.1187  1.2020 -0.9348
  710SOL     OW 6686   0.882   3.666   1.560  0.2060  0.0822  0.3783
  710SOL    HW1 6687   0.877   3.601   1.489 -1.6700 -0.1025  0.6331
  710SOL    HW2 6688   0.975   3.688   1.566  0.3926  0.2790 -2.2891
  711SOL     OW 6689   2.535   1.545   0.352 -0.2960 -0.3469  0.4900
  711SOL    HW1 6690   2.532   1.449   0.349  0.4767 -0.3961  1.1255
  711SOL    HW2 6691   2.453   1.572   0.312 -0.8182 -1.2837  0.8938
  712SOL     OW 6692   4.669  11.615  10.849  0.5105  0.1100  0.3813
  712SOL    HW1 6693   4.652  11.677  10.778  1.7431  0.1937  0.1420
  712SOL    HW2 6694   4.587  11.613  10.899  0.1059  1.1287 -0.2071
  713SOL     OW 6695   5.924   4.760   9.662  0.5710  0.5050 -0.2627
  713SOL    HW1 6696   5.952   4.755   9.570  0.6134  2.7908 -0.4299
  713SOL    HW2 6697   5.831   4.782   9.658  0.2352 -0.7223  0.2827
  714SOL     OW 6698   7.812   0.553  10.856 -0.1036 -0.2500 -0.1478
  714SOL    HW1 6699   7.787   0.461  10.847  1.2045 -0.7128  0.6984
  714SOL    HW2 6700   7.770   0.582  10.937 -0.6422 -0.0363 -0.4939
  715SOL     OW 6701   3.929   1.801   1.254 -0.0508 -0.3898 -0.2309
  715SOL    HW1 6702   3.991   1.815   1.325  0.4281 -0.3054 -0.6609
  715SOL    HW2 6703   3.966   1.848   1.179 -1.1087  0.4521 -0.2434
  716SOL     OW 6704   3.753  12.056  12.037  0.0080  0.1433 -0.1272
  716SOL    HW1 6705   3.685  12.120  12.012  0.1286  0.6234  0.7503
  716SOL    HW2 6706   3.718  11.972  12.008 -1.2631  0.2984  0.8716
  717SOL     OW 6707   0.678   1.254   1.613 -0.1416  0.3040 -0.3512
  717SOL    HW1 6708   0.664   1.348   1.606  0.1384  0.4204  0.6132
  717SOL    HW2 6709   0.699   1.227   1.523 -1.1104  0.9981 -0.8075
  718SOL     OW 6710  10.465   9.312   7.761 -0.0361  0.0938 -0.4853
  718SOL    HW1 6711  10.516   9.385   7.796 -0.7712  1.2043 -1.6389
  718SOL    HW2 6712  10.500   9.234   7.805 -0.6922  1.3314  2.4513
  719SOL     OW 6713   7.890   2.061   2.080  0.1753 -0.1818  0.3968
  719SOL    HW1 6714   7.841   1.983   2.107  0.5109 -0.6270 -0.2696
  719SOL    HW2 6715   7.874   2.068   1.986  0.2925  0.4520  0.4234
  720SOL     OW 6716   7.715  11.081   7.037  0.0473 -0.4232 -0.1956
  720SOL    HW1 6717   7.727  11.175   7.021  3.2338 -0.6773  0.0556
  720SOL    HW2 6718   7.674  11.048   6.956 -0.6693  1.0768 -0.4795
  721SOL     OW 6719   7.949   9.826  10.923  0.0525 -0.0402  0.1671
  721SOL    HW1 6720   8.013   9.827  10.852  1.6241 -0.2942  1.5395
  721SOL    HW2 6721   7.972   9.750  10.976 -0.0035  1.0947  1.9019
  722SOL     OW 6722  11.998  11.588   3.856  0.3315  0.0023  0.1872
  722SOL    HW1 6723  11.988  11.568   3.949  1.9628  1.4643  0.7236
  722SOL    HW2 6724  12.029  11.678   3.854 -0.8163  0.4108 -1.8480
  723SOL     OW 6725  10.773   5.437  11.801 -0.7900  0.2263  0.0454
  723SOL    HW1 6726  10.745   5.506  11.861 -1.5466  0.3764 -0.4651
  723SOL    HW2 6727  10.768   5.357  11.852 -0.8025  0.4344  0.3733
  724SOL     OW 6728   6.654   1.668   8.518 -0.1564 -0.2751 -0.0248
  724SOL    HW1 6729   6.582   1.605   8.522 -0.0496 -0.4116 -0.2204
  724SOL    HW2 6730   6.613   1.750   8.491 -0.2497 -0.3357 -0.0680
  725SOL     OW 6731   3.438   7.139   5.193 -0.5388 -0.1791  0.0135
  725SOL    HW1 6732   3.468   7.049   5.181  0.7252  0.4567 -2.0774
  725SOL    HW2 6733   3.504   7.179   5.250 -1.2037 -0.5740  1.1037
  726SOL     OW 6734  10.137   5.847   1.267 -0.6517  0.5098  0.0517
  726SOL    HW1 6735  10.148   5.784   1.338  0.0306 -0.9250 -1.2656
  726SOL    HW2 6736  10.185   5.925   1.295  2.3688 -1.1309 -0.1153
  727SOL     OW 6737   7.889   3.353   8.237  0.2494  0.2107 -0.5412
  727SOL    HW1 6738   7.954   3.284   8.252  3.0794  2.8738  0.4301
  727SOL    HW2 6739   7.919   3.398   8.158 -0.4178  1.4756 -0.1078
  728SOL     OW 6740   8.982   8.741   3.412  0.7976  0.1222  0.6289
  728SOL    HW1 6741   8.902   8.693   3.389  0.7289  0.3480  0.3856
  728SOL    HW2 6742   8.967   8.830   3.378  0.7097  0.4587  1.5127
  729SOL     OW 6743   5.517   5.907   3.655 -0.2357  0.3463 -0.1915
  729SOL    HW1 6744   5.442   5.967   3.659  1.9255  3.4063 -1.7154
  729SOL    HW2 6745   5.486   5.835   3.600 -2.5181  0.7046  0.5060
  730SOL     OW 6746   9.257  11.190   6.175 -0.0361  0.6613 -0.0664
  730SOL    HW1 6747   9.209  11.122   6.128  0.1654  0.1375  0.4595
  730SOL    HW2 6748   9.323  11.141   6.226  1.0998  1.3555 -0.8187
  731SOL     OW 6749   3.634   6.273   5.097 -0.0775  0.2247  0.0090
  731SOL    HW1 6750   3.672   6.314   5.019 -0.2725 -0.9358 -0.7219
  731SOL    HW2 6751   3.688   6.305   5.169  1.2817 -0.1118 -0.8228
  732SOL     OW 6752   4.616   4.211   3.261  0.0109 -0.0618 -0.2483
  732SOL    HW1 6753   4.641   4.221   3.353  0.5586  1.1456 -0.5172
  732SOL    HW2 6754   4.693   4.236   3.211 -1.2826  2.6757 -1.0683
  733SOL     OW 6755   5.127   9.927   8.313 -0.5384  0.6711 -0.5684
  733SOL    HW1 6756   5.115  10.017   8.283 -1.0304  0.8677  0.1628
  733SOL    HW2 6757   5.115   9.932   8.408 -0.6552 -0.1812 -0.5255
  734SOL     OW 6758   2.073   3.495   8.259 -0.2297 -0.2238  0.9720
  734SOL    HW1 6759   2.141   3.452   8.312 -0.3286  1.0567  2.1825
  734SOL    HW2 6760   2.093   3.468   8.169  1.9072  0.1439  1.2808
  735SOL     OW 6761   5.479   8.288   3.292 -0.1945  0.3718 -0.0165
  735SOL    HW1 6762   5.453   8.268   3.382 -1.6950 -0.7572 -0.6608
  735SOL    HW2 6763   5.467   8.383   3.285 -2.5702  0.1690  0.2777
  736SOL     OW 6764   0.257   7.249   1.833  0.9153  0.0373 -0.1269
  736SOL    HW1 6765   0.261   7.272   1.740  1.5350 -1.8951 -0.6218
  736SOL    HW2 6766   0.186   7.185   1.838 -0.4111  1.5322  1.0974
  737SOL     OW 6767   7.226   1.905   2.461  0.1294 -0.4639 -0.5046
  737SOL    HW1 6768   7.257   1.967   2.395  1.0148 -0.2862  0.0679
  737SOL    HW2 6769   7.226   1.955   2.543 -2.0327 -0.3558 -0.5283
  738SOL     OW 6770   7.251   9.073   5.882 -0.2255  0.0877  0.6312
  738SOL    HW1 6771   7.227   9.002   5.941  0.3013 -0.6178  0.0198
  738SOL    HW2 6772   7.187   9.067   5.810  0.4330 -0.4209  0.0771
  739SOL     OW 6773   3.464   1.955   5.381 -0.0364  0.0780 -0.3352
  739SOL    HW1 6774   3.429   1.866   5.376 -0.7784  0.3468 -0.0764
  739SOL    HW2 6775   3.507   1.969   5.297  0.9369 -0.8601 -0.0205
  740SOL     OW 6776   3.132   4.130   4.161 -0.0537  0.3447  0.6441
  740SOL    HW1 6777   3.083   4.211   4.146  1.0024  0.9325  0.2354
  740SOL    HW2 6778   3.075   4.077   4.216 -0.5576  1.5758  1.3425
  741SOL     OW 6779   0.852   6.832   3.313 -0.2488 -0.5077  0.0877
  741SOL    HW1 6780   0.782   6.778   3.351  1.7748 -3.2987  0.1057
  741SOL    HW2 6781   0.923   6.827   3.377 -0.0157  2.4963  0.1979
  742SOL     OW 6782   6.294   1.376   1.351 -0.1448 -0.1807 -0.3977
  742SOL    HW1 6783   6.318   1.375   1.444 -0.4007 -0.3055 -0.3322
  742SOL    HW2 6784   6.370   1.338   1.306 -0.4302 -1.0841 -0.1375
  743SOL     OW 6785   9.886   7.601   7.130  0.0316 -0.4476 -0.4717
  743SOL    HW1 6786   9.800   7.570   7.155 -0.4383  0.5939 -0.7349
  743SOL    HW2 6787   9.926   7.528   7.082 -0.7958 -0.8494 -0.5547
  744SOL     OW 6788   2.561   3.799   3.944 -0.0218  0.0510 -0.4457
  744SOL    HW1 6789   2.560   3.868   3.878 -0.7589 -0.2893 -0.7941
  744SOL    HW2 6790   2.489   3.742   3.921  1.0439 -1.2789 -0.6062
  745SOL     OW 6791   0.567   1.089   7.459  0.3652  0.3584  0.3808
  745SOL    HW1 6792   0.592   1.000   7.485  0.0627  0.2025  0.1452
  745SOL    HW2 6793   0.472   1.085   7.451  0.5164  0.1620 -1.6581
  746SOL     OW 6794   3.576   7.112   7.579 -0.1603  0.3548  0.5568
  746SOL    HW1 6795   3.564   7.097   7.673  1.0660  1.0769  0.8544
  746SOL    HW2 6796   3.670   7.128   7.569 -0.3345  0.7076 -0.7377
  747SOL     OW 6797   6.585  10.165   7.346  0.1571 -0.1706 -0.7222
  747SOL    HW1 6798   6.542  10.151   7.430 -0.8067 -0.4336 -1.2409
  747SOL    HW2 6799   6.606  10.258   7.346  0.5803 -0.2597 -0.0028
  748SOL     OW 6800  11.876   0.167   0.330  0.5654  0.1099 -0.2105
  748SOL    HW1 6801  11.869   0.073   0.313 -0.9721  0.0474  0.6518
  748SOL    HW2 6802  11.914   0.203   0.250  0.3207 -1.1214 -0.8997
  749SOL     OW 6803   4.243   3.199   6.092 -0.5413 -0.0874  0.6034
  749SOL    HW1 6804   4.213   3.289   6.075 -0.7522 -0.2562  0.0434
  749SOL    HW2 6805   4.163   3.151   6.114 -0.8915 -0.7502 -1.7943
  750SOL     OW 6806   0.320   1.619   9.916 -0.6814  0.3267  0.2625
  750SOL    HW1 6807   0.305   1.636  10.009 -0.6020  1.0139  0.1548
  750SOL    HW2 6808   0.258   1.676   9.871 -0.7853 -0.0756 -0.1068
  751SOL     OW 6809   5.969   2.212  12.061  0.4632  0.0162 -0.2086
  751SOL    HW1 6810   6.004   2.249  11.980  0.2123 -0.1423 -0.3897
  751SOL    HW2 6811   5.886   2.173  12.035  0.9711 -1.1550 -0.1282
  752SOL     OW 6812   6.137   1.253  11.652  0.1160 -0.6263  0.2038
  752SOL    HW1 6813   6.077   1.187  11.618  0.7044 -1.1971  0.2559
  752SOL    HW2 6814   6.092   1.291  11.727 -0.5778 -0.3819 -0.3225
  753SOL     OW 6815   1.903   3.541   1.368 -0.6135  0.1338 -0.3048
  753SOL    HW1 6816   1.960   3.480   1.414  0.7663  1.6358  0.0715
  753SOL    HW2 6817   1.874   3.493   1.291  1.3896 -0.6282 -0.6475
  754SOL     OW 6818   6.948   2.564   8.927  0.0038  0.2525  0.2390
  754SOL    HW1 6819   6.910   2.477   8.918  0.0905  0.1007  1.2507
  754SOL    HW2 6820   7.042   2.548   8.938  0.4722  0.6355 -2.5564
  755SOL     OW 6821   4.764  10.255   3.623  0.0322  0.3695  0.0675
  755SOL    HW1 6822   4.695  10.277   3.686 -0.9607 -2.5890  0.1232
  755SOL    HW2 6823   4.845  10.269   3.673 -0.7153 -1.4507  1.9259
  756SOL     OW 6824  10.704   9.258   6.907 -0.1035 -0.1858  0.8068
  756SOL    HW1 6825  10.721   9.196   6.978 -1.2982 -1.0028  0.4129
  756SOL    HW2 6826  10.791   9.286   6.878  0.4635 -1.4855  1.1766
  757SOL     OW 6827   2.306  10.027   3.054  0.1375  0.0681 -0.4218
  757SOL    HW1 6828   2.359  10.084   3.111 -0.2616  0.4676 -0.4462
  757SOL    HW2 6829   2.366   9.957   3.029  0.2059 -0.3476  0.8228
  758SOL     OW 6830   6.345   3.057  10.296  1.2649 -0.8244 -0.6829
  758SOL    HW1 6831   6.364   3.114  10.371 -0.8435  0.6504 -1.1772
  758SOL    HW2 6832   6.413   2.990  10.300  1.4830 -0.5878  2.3085
  759SOL     OW 6833   7.505   0.532   9.298 -0.0755  0.4259  0.5038
  759SOL    HW1 6834   7.578   0.497   9.248 -1.4812 -1.4176 -0.3524
  759SOL    HW2 6835   7.457   0.587   9.235 -1.1721 -0.9331  0.1103
  760SOL     OW 6836   2.073   9.975   2.114 -0.2009  0.2201  0.2214
  760SOL    HW1 6837   2.082   9.930   2.198  0.1761  0.6076  0.3888
  760SOL    HW2 6838   2.079   9.905   2.049  0.5007  0.0366  0.4744
  761SOL     OW 6839  11.749   2.499   9.380 -0.4884 -0.1157  0.1995
  761SOL    HW1 6840  11.678   2.562   9.365  0.0713  0.5102  0.1449
  761SOL    HW2 6841  11.724   2.455   9.461 -0.3748  0.9051  0.8033
  762SOL     OW 6842   0.692  10.984   9.136 -0.1354 -0.0502  0.1867
  762SOL    HW1 6843   0.775  10.988   9.183  0.7362  0.9710 -1.3601
  762SOL    HW2 6844   0.710  10.929   9.060 -0.9262  0.0199 -0.0593
  763SOL     OW 6845   9.537   8.040   4.211  0.1441 -0.1636 -0.2781
  763SOL    HW1 6846   9.626   8.030   4.243  0.6298 -0.6231 -1.6997
  763SOL    HW2 6847   9.514   8.131   4.230  1.0740  0.0778 -0.2903
  764SOL     OW 6848   9.951   0.019   1.197  0.0383  0.0276  0.6212
  764SOL    HW1 6849   9.915   0.051   1.279  1.6406 -1.7438  2.0989
  764SOL    HW2 6850   9.913   0.077   1.130  0.3157  2.8718  2.7510
  765SOL     OW 6851   6.267   6.994  10.704 -0.5424  0.6153  0.4018
  765SOL    HW1 6852   6.203   6.943  10.753  0.5233 -0.0484  1.1441
  765SOL    HW2 6853   6.289   7.067  10.762 -0.5879  0.8195  0.1666
  766SOL     OW 6854   8.729   0.817   7.132  0.4222 -0.1238  0.2431
  766SOL    HW1 6855   8.781   0.864   7.067 -1.1797  1.4844  0.0260
  766SOL    HW2 6856   8.742   0.725   7.112  2.1613  0.2669 -0.5693
  767SOL     OW 6857   5.631   3.500   7.981  0.6791  0.7262 -0.2980
  767SOL    HW1 6858   5.550   3.460   8.013  1.5670 -1.3337 -0.4692
  767SOL    HW2 6859   5.663   3.553   8.054  0.5382 -0.5979  0.7544
  768SOL     OW 6860   6.621   6.657   8.057 -0.3926  0.4690  0.5169
  768SOL    HW1 6861   6.701   6.708   8.070  0.5224 -0.9588  0.7555
  768SOL    HW2 6862   6.599   6.624   8.144 -0.5787 -0.0934  0.2620
  769SOL     OW 6863   2.352   9.859   8.503 -0.2352 -0.3008  0.1100
  769SOL    HW1 6864   2.340   9.790   8.568  0.3584 -0.0011  0.5527
  769SOL    HW2 6865   2.299   9.832   8.429 -1.2964 -0.4242  0.8886
  770SOL     OW 6866   5.101   1.325  11.971  0.2524  0.4434  0.0568
  770SOL    HW1 6867   5.135   1.407  11.935 -0.3988  0.6968  0.0209
  770SOL    HW2 6868   5.035   1.297  11.909 -0.8737  0.8712  1.0307
  771SOL     OW 6869  11.726   2.649  11.023 -0.1848  0.4624 -0.7197
  771SOL    HW1 6870  11.704   2.740  11.045  0.0071  0.9368 -2.3952
  771SOL    HW2 6871  11.795   2.626  11.085 -1.4199  0.8488  0.8763
  772SOL     OW 6872  10.004   3.727   7.722 -0.0378  0.6776  0.3641
  772SOL    HW1 6873   9.974   3.804   7.674 -2.3070 -0.7542 -0.6806
  772SOL    HW2 6874   9.967   3.737   7.809 -0.2182  0.8411  0.2699
  773SOL     OW 6875   6.160   0.066  11.110  0.0333  0.4454  0.1398
  773SOL    HW1 6876   6.114   0.094  11.190 -0.5541 -0.6127  0.1909
  773SOL    HW2 6877   6.240   0.024  11.142 -0.8452 -1.2120  0.2869
  774SOL     OW 6878   3.368   2.159   3.884  0.2136 -0.3018  0.1320
  774SOL    HW1 6879   3.432   2.219   3.921  0.2904  0.1276 -0.6767
  774SOL    HW2 6880   3.285   2.185   3.924  0.3636 -0.1398  0.3400
  775SOL     OW 6881   0.804   2.093  11.895 -0.2174 -0.3712 -0.2039
  775SOL    HW1 6882   0.718   2.134  11.905  0.3658  0.4791  1.9440
  775SOL    HW2 6883   0.844   2.136  11.820 -0.7549  0.9429  0.2493
  776SOL     OW 6884  10.915   0.020   7.192 -0.0331 -0.5848 -0.4864
  776SOL    HW1 6885  10.873   0.062   7.268  1.2802  0.2191 -0.1893
  776SOL    HW2 6886  10.860  -0.057   7.175 -0.6005 -0.5592  1.0226
  777SOL     OW 6887   0.173   1.650   9.469 -0.6732  0.0864 -0.1015
  777SOL    HW1 6888   0.228   1.717   9.428  0.4291 -2.5212 -3.3593
  777SOL    HW2 6889   0.235   1.585   9.502 -1.7395 -0.5048  0.7883
  778SOL     OW 6890   5.761   8.548   4.782 -0.1603  0.1297  0.1714
  778SOL    HW1 6891   5.717   8.555   4.698 -2.1996 -0.4588  1.1320
  778SOL    HW2 6892   5.711   8.606   4.840 -1.4054 -2.4984  1.9460
  779SOL     OW 6893  10.099  10.095   3.972  0.1937 -0.1066 -0.4891
  779SOL    HW1 6894  10.051  10.170   3.937  2.1489  0.2387 -2.7171
  779SOL    HW2 6895  10.155  10.131   4.040  0.6765  0.3868 -1.1336
  780SOL     OW 6896   8.573   6.211  11.401  0.2916 -0.0283  0.4067
  780SOL    HW1 6897   8.587   6.282  11.338  1.2299 -0.2339  0.3604
  780SOL    HW2 6898   8.590   6.131  11.350  2.0615 -0.1641  1.1248
  781SOL     OW 6899   9.623   5.713   1.040 -0.1374  0.0755 -0.0482
  781SOL    HW1 6900   9.694   5.685   1.099 -0.0005  1.1772  0.3250
  781SOL    HW2 6901   9.563   5.761   1.095  0.1833  1.4635 -0.8592
  782SOL     OW 6902   4.215   8.547   8.918  0.4538  0.0141 -0.8961
  782SOL    HW1 6903   4.138   8.579   8.872  0.9575  1.4563 -0.7859
  782SOL    HW2 6904   4.233   8.462   8.878 -1.1527 -0.3242 -0.9477
  783SOL     OW 6905   1.690   7.498   6.170  0.0430  0.6970  0.0873
  783SOL    HW1 6906   1.739   7.435   6.117 -0.6169  0.6973 -0.5372
  783SOL    HW2 6907   1.643   7.445   6.234  1.1725  0.7252  0.9789
  784SOL     OW 6908   2.912   1.820  10.535 -0.3965 -0.3900  0.1978
  784SOL    HW1 6909   2.932   1.751  10.472  0.9332  0.7893 -0.7515
  784SOL    HW2 6910   2.974   1.890  10.514 -2.4844  1.6116  0.3085
  785SOL     OW 6911   9.348   6.250   0.281  0.3797  0.6690  0.2563
  785SOL    HW1 6912   9.419   6.218   0.337  0.7150  2.2271  0.7895
  785SOL    HW2 6913   9.336   6.342   0.308 -1.1780  0.7226 -0.5030
  786SOL     OW 6914   6.721  11.807   1.886 -0.2189 -0.0637 -0.6832
  786SOL    HW1 6915   6.724  11.902   1.895 -0.1929  0.0770 -2.0083
  786SOL    HW2 6916   6.808  11.783   1.854 -0.7205 -0.3189 -1.9381
  787SOL     OW 6917   0.911   5.681   4.458  0.0090  0.0171  0.2631
  787SOL    HW1 6918   0.949   5.595   4.474 -1.8507 -0.8888  0.1490
  787SOL    HW2 6919   0.819   5.671   4.483 -0.2854  1.9395  0.1071
  788SOL     OW 6920   0.994   1.587   5.402  0.0462 -0.2567 -0.3854
  788SOL    HW1 6921   0.988   1.499   5.365 -1.3376  0.6159 -2.4029
  788SOL    HW2 6922   1.015   1.643   5.328  2.2016  1.0094  1.0819
  789SOL     OW 6923   5.156   3.541  11.962  0.4139  0.0710 -0.2342
  789SOL    HW1 6924   5.230   3.591  11.995  0.7869  1.5305 -2.9677
  789SOL    HW2 6925   5.080   3.577  12.008  1.0894  0.5306  0.5413
  790SOL     OW 6926   6.705   3.330  11.291  0.6017  0.1340 -0.0353
  790SOL    HW1 6927   6.774   3.393  11.313 -1.5487  2.9509 -0.8103
  790SOL    HW2 6928   6.646   3.378  11.233 -2.0586 -2.1193  0.6145
  791SOL     OW 6929   6.660   9.063   3.642  0.0129 -0.6223  0.3032
  791SOL    HW1 6930   6.737   9.077   3.698  0.8243  1.0319 -1.0922
  791SOL    HW2 6931   6.695   9.020   3.564 -0.3867  0.3569 -0.4457
  792SOL     OW 6932   2.350   0.371  10.072 -0.3644  0.3207  0.8002
  792SOL    HW1 6933   2.302   0.370   9.989 -0.7945  1.6918  1.0009
  792SOL    HW2 6934   2.359   0.464  10.093 -0.9245 -0.0151  2.6794
  793SOL     OW 6935   8.110   7.968  10.132 -0.3999 -0.0367 -0.0688
  793SOL    HW1 6936   8.203   7.952  10.142 -0.6631 -2.1244 -0.6240
  793SOL    HW2 6937   8.098   7.988  10.039 -0.5543 -0.1025 -0.0639
  794SOL     OW 6938   0.891   7.164   2.486  0.3221  0.1580 -0.2714
  794SOL    HW1 6939   0.864   7.075   2.463 -0.3142 -0.1219  1.3786
  794SOL    HW2 6940   0.817   7.219   2.461  0.0542 -0.0063  0.1391
  795SOL     OW 6941   1.086   9.450   9.202  0.1524  0.6471  0.1588
  795SOL    HW1 6942   0.992   9.456   9.219  0.0751 -1.9600  1.0569
  795SOL    HW2 6943   1.127   9.493   9.277 -0.3258  0.6640  0.4126
  796SOL     OW 6944   9.235  11.740   5.880  0.1380 -0.5290 -0.2034
  796SOL    HW1 6945   9.279  11.822   5.860 -0.6692  0.0671  0.3501
  796SOL    HW2 6946   9.305  11.680   5.905  0.6181  0.5454  1.1776
  797SOL     OW 6947   3.244   3.051   4.494 -0.1552 -0.4427  0.5571
  797SOL    HW1 6948   3.304   3.005   4.553 -0.8773 -1.6224  0.4050
  797SOL    HW2 6949   3.226   3.134   4.538  1.5889 -0.0546  0.5845
  798SOL     OW 6950   4.548   0.667  10.679  0.5816  0.5165 -0.4303
  798SOL    HW1 6951   4.599   0.609  10.736  1.5652  1.4817 -0.3117
  798SOL    HW2 6952   4.543   0.749  10.726 -2.0005  0.1757  0.0446
  799SOL     OW 6953   9.443   7.772   5.681 -0.3127  0.2111 -0.2120
  799SOL    HW1 6954   9.478   7.838   5.622  0.1195  1.2127  1.0990
  799SOL    HW2 6955   9.494   7.693   5.663 -0.7195  0.2492 -1.6819
  800SOL     OW 6956   7.858   7.528   1.476  0.0213  0.4397  0.6975
  800SOL    HW1 6957   7.839   7.510   1.384 -1.6362  0.3551  1.0273
  800SOL    HW2 6958   7.862   7.623   1.483  1.6145  0.4209  0.2840
  801SOL     OW 6959   5.087   1.131   5.094 -0.2989 -0.0734 -0.3814
  801SOL    HW1 6960   5.039   1.211   5.118  0.3507  0.1036  0.3663
  801SOL    HW2 6961   5.050   1.063   5.151 -1.8748 -0.6646 -2.0170
  802SOL     OW 6962   1.906   1.346   0.503 -0.0434  0.0969  0.3532
  802SOL    HW1 6963   1.897   1.365   0.596 -0.8213  1.2614  0.0677
  802SOL    HW2 6964   1.985   1.393   0.477  0.7124 -1.0076  0.6036
  803SOL     OW 6965   1.128   2.726   5.545  0.2816  0.5033  0.1198
  803SOL    HW1 6966   1.081   2.737   5.627  0.1984  1.0105  0.0123
  803SOL    HW2 6967   1.067   2.758   5.478 -0.2673 -1.3582 -0.3233
  804SOL     OW 6968  11.979   0.410   6.987 -0.0702  0.5877 -0.1815
  804SOL    HW1 6969  11.904   0.355   7.010  0.4245 -0.3114 -0.6678
  804SOL    HW2 6970  12.054   0.351   6.993  0.3061  0.7976 -2.1690
  805SOL     OW 6971   5.027   2.839   4.278 -0.0201 -0.0877 -0.2678
  805SOL    HW1 6972   5.075   2.917   4.304 -1.2846  0.9845 -1.0130
  805SOL    HW2 6973   5.046   2.775   4.347  2.6116  0.1703 -0.6502
  806SOL     OW 6974   7.361   5.958  11.284 -0.4322  0.0271  0.1473
  806SOL    HW1 6975   7.387   6.027  11.344  1.0329 -0.3816  0.0073
  806SOL    HW2 6976   7.319   5.892  11.340  1.3664 -0.5824  0.8572
  807SOL     OW 6977   3.937   6.993   3.240 -0.0466  0.3041  0.3288
  807SOL    HW1 6978   3.881   6.924   3.275 -0.6995  1.1866  1.1027
  807SOL    HW2 6979   3.883   7.072   3.244  1.1787  1.1578  0.9538
  808SOL     OW 6980   5.342   9.045   7.274  0.1801 -0.5725  0.0872
  808SOL    HW1 6981   5.374   9.097   7.348  2.2173 -1.6727  0.0626
  808SOL    HW2 6982   5.281   9.103   7.228  1.3595  1.3017  0.7684
  809SOL     OW 6983   4.920   8.264   0.158  0.0247  0.4113 -0.3564
  809SOL    HW1 6984   4.836   8.285   0.200  1.3470  0.9601  2.1855
  809SOL    HW2 6985   4.973   8.342   0.171  1.0469 -0.0381 -1.6808
  810SOL     OW 6986   6.578   0.483   0.337  0.4898 -0.2748 -0.5501
  810SOL    HW1 6987   6.542   0.548   0.278 -0.6302 -1.9110 -1.7626
  810SOL    HW2 6988   6.598   0.408   0.281 -0.7311 -1.9493  1.1207
  811SOL     OW 6989   9.428  10.785   7.285  0.3551  0.3721  0.5009
  811SOL    HW1 6990   9.496  10.725   7.254 -0.3489  0.3406 -1.0812
  811SOL    HW2 6991   9.347  10.734   7.281 -0.1148  1.1326  0.0207
  812SOL     OW 6992   8.970  10.582   4.868 -0.0194  0.2954 -0.7104
  812SOL    HW1 6993   8.922  10.608   4.946  1.3781  2.2352 -0.4258
  812SOL    HW2 6994   9.021  10.506   4.895 -2.2995 -1.3976 -0.8467
  813SOL     OW 6995   5.628   4.520   3.929 -0.5187 -0.1792  0.2001
  813SOL    HW1 6996   5.717   4.551   3.941 -1.3196  2.2491  0.3304
  813SOL    HW2 6997   5.632   4.463   3.852  0.9977  0.5470 -0.2819
  814SOL     OW 6998   7.716   2.891   4.243  0.2138 -0.0310 -0.0236
  814SOL    HW1 6999   7.743   2.845   4.323  1.0963  0.2918 -0.1277
  814SOL    HW2 7000   7.692   2.979   4.273 -1.1977 -0.4388  0.1330
  815SOL     OW 7001   7.185   1.002   6.001 -0.3670  0.0167  0.7197
  815SOL    HW1 7002   7.229   1.067   6.056  1.2977 -0.8145  0.4073
  815SOL    HW2 7003   7.236   0.922   6.012 -1.0017 -0.6155 -0.7232
  816SOL     OW 7004   6.457   0.253   9.600 -0.6783 -0.4145  0.0378
  816SOL    HW1 7005   6.361   0.251   9.598 -0.7100 -0.6079  1.0386
  816SOL    HW2 7006   6.480   0.186   9.664  0.1877 -1.3449 -1.2068
  817SOL     OW 7007  10.089   2.658  10.142  0.3323  0.1481  0.5783
  817SOL    HW1 7008  10.012   2.707  10.112  0.0876 -0.5813 -0.0219
  817SOL    HW2 7009  10.137   2.720  10.197  0.1342  1.1241 -0.3106
  818SOL     OW 7010   0.984  11.145   1.453  0.0701  0.4663 -0.4908
  818SOL    HW1 7011   1.045  11.072   1.442  0.2468  0.7265 -1.2998
  818SOL    HW2 7012   0.991  11.168   1.546 -1.9908 -2.2790  0.4751
  819SOL     OW 7013  11.685  10.477   3.597  0.1674  0.0869  0.8103
  819SOL    HW1 7014  11.605  10.429   3.621 -0.4072  0.8668  0.5020
  819SOL    HW2 7015  11.720  10.507   3.681  0.3006 -0.5047  0.9714
  820SOL     OW 7016   6.531  10.628   7.565 -0.8633 -0.2436  0.0699
  820SOL    HW1 7017   6.586  10.676   7.628 -0.6092  0.4039 -0.6226
  820SOL    HW2 7018   6.521  10.689   7.491  0.0573 -1.5145 -1.1530
  821SOL     OW 7019  12.085   3.257   2.030  0.0814 -0.0357 -0.1571
  821SOL    HW1 7020  12.041   3.301   1.957  0.1412 -0.8018 -0.6689
  821SOL    HW2 7021  12.076   3.317   2.104 -3.0253 -0.7334  0.1505
  822SOL     OW 7022   3.000   3.880   1.085  0.0116  0.2141 -0.4285
  822SOL    HW1 7023   3.088   3.880   1.123 -0.7488  2.5732  1.5648
  822SOL    HW2 7024   2.948   3.826   1.144 -0.5064  1.3579  0.2000
  823SOL     OW 7025  12.062   8.421   4.530 -0.2147  0.0114 -0.5476
  823SOL    HW1 7026  12.135   8.378   4.575 -0.5260  0.4483  0.4204
  823SOL    HW2 7027  12.086   8.420   4.438  0.9823  0.0795 -0.2534
  824SOL     OW 7028   2.391   2.468   7.659 -0.0464  0.1174 -0.0148
  824SOL    HW1 7029   2.370   2.487   7.568 -0.4330 -0.3906 -0.0369
  824SOL    HW2 7030   2.437   2.546   7.690 -1.3256  0.9700 -0.1873
  825SOL     OW 7031   6.841   9.232   5.312  0.3925 -0.6648  0.1107
  825SOL    HW1 7032   6.809   9.148   5.279  0.4022 -0.7623  0.3485
  825SOL    HW2 7033   6.833   9.291   5.237 -1.0146 -0.5149  0.3511
  826SOL     OW 7034  11.930   2.715   0.123  0.6093 -0.3592  0.8321
  826SOL    HW1 7035  11.925   2.655   0.048  1.7747  1.1151 -0.5062
  826SOL    HW2 7036  11.978   2.666   0.190  2.3891 -0.6266 -0.5793
  827SOL     OW 7037  10.342   8.114   4.470 -0.2349  0.1124  0.1595
  827SOL    HW1 7038  10.413   8.175   4.449 -1.3369  2.3202  2.3368
  827SOL    HW2 7039  10.370   8.073   4.552 -0.5102 -0.6908 -0.1383
  828SOL     OW 7040   1.658   2.834   4.302  0.2093 -0.3923  0.1780
  828SOL    HW1 7041   1.575   2.786   4.310  0.7019 -1.6420 -1.5587
  828SOL    HW2 7042   1.632   2.925   4.291 -0.9593 -0.7794 -0.4228
  829SOL     OW 7043   6.007   4.696  10.517  0.2336 -0.0944  0.0226
  829SOL    HW1 7044   6.056   4.667  10.594 -0.7115  2.6871  1.8455
  829SOL    HW2 7045   5.925   4.648  10.521 -0.4697  1.1205  1.7851
  830SOL     OW 7046   0.079   3.734   5.110  0.2898 -0.2299  0.0459
  830SOL    HW1 7047   0.046   3.804   5.055  1.3669 -0.4291 -0.8875
  830SOL    HW2 7048   0.171   3.724   5.084  0.0315 -2.3319 -0.2232
  831SOL     OW 7049   1.840   7.634   6.625  0.1639  0.2891 -0.0504
  831SOL    HW1 7050   1.851   7.641   6.530 -0.2252 -1.2972 -0.2433
  831SOL    HW2 7051   1.770   7.570   6.637  1.4362 -0.9276  1.3186
  832SOL     OW 7052   9.472  11.933   1.817 -0.1604  0.2728 -0.3311
  832SOL    HW1 7053   9.500  12.018   1.784 -0.7826  0.6217  0.0089
  832SOL    HW2 7054   9.465  11.878   1.739  0.7895  0.3679 -0.4886
  833SOL     OW 7055   4.740  10.731  12.006 -0.1308 -0.3425  0.0006
  833SOL    HW1 7056   4.747  10.661  12.071  0.0770 -1.0740 -0.7923
  833SOL    HW2 7057   4.680  10.696  11.940  0.6837 -0.1507 -0.8659
  834SOL     OW 7058   3.063   0.783   6.708 -0.3136  0.5411 -0.2092
  834SOL    HW1 7059   3.154   0.755   6.707 -0.6955 -0.8096 -2.0576
  834SOL    HW2 7060   3.017   0.718   6.654 -2.5635  0.5681  1.5162
  835SOL     OW 7061   9.810  11.428   2.816  0.1904 -0.7348  0.1494
  835SOL    HW1 7062   9.765  11.468   2.890  1.5783 -0.5097  0.9043
  835SOL    HW2 7063   9.903  11.435   2.838  0.6018 -1.1984 -1.3453
  836SOL     OW 7064   9.702   4.862   1.339 -0.1754  0.0374  0.5128
  836SOL    HW1 7065   9.650   4.891   1.414 -1.4341  0.7057 -0.5882
  836SOL    HW2 7066   9.642   4.866   1.264  0.9927 -0.7940 -0.5122
  837SOL     OW 7067   0.289   9.385   8.525  0.4160 -0.5152  0.1976
  837SOL    HW1 7068   0.265   9.328   8.598 -0.1779 -0.9969 -0.3613
  837SOL    HW2 7069   0.284   9.328   8.448  1.0938 -0.0270 -0.2137
  838SOL     OW 7070   9.845   4.000   5.546  0.0444  0.0673 -0.3905
  838SOL    HW1 7071   9.807   3.935   5.605 -1.0910 -0.2265 -1.4139
  838SOL    HW2 7072   9.872   4.071   5.604  0.5831 -0.9486  0.6628
  839SOL     OW 7073  10.985  11.494   8.945  1.2204 -0.5699  0.1382
  839SOL    HW1 7074  10.993  11.555   8.873 -0.3270 -0.1862  0.2571
  839SOL    HW2 7075  11.000  11.546   9.024 -0.6158 -0.1519  0.2749
  840SOL     OW 7076   9.095   3.991   3.696  0.2657 -0.3297  0.5193
  840SOL    HW1 7077   9.186   3.961   3.690  0.2809 -0.4739  1.3322
  840SOL    HW2 7078   9.080   4.038   3.615  0.8809 -0.8221  0.1096
  841SOL     OW 7079   2.177   7.050   8.394 -0.3696  0.1247  0.3342
  841SOL    HW1 7080   2.265   7.080   8.371  0.0760 -0.7844  0.8227
  841SOL    HW2 7081   2.186   6.956   8.404 -1.7270 -0.1943 -1.0975
  842SOL     OW 7082   6.571   7.944   9.036  0.2727  0.2730  0.6995
  842SOL    HW1 7083   6.578   7.867   9.092  0.1174  0.6237  1.1963
  842SOL    HW2 7084   6.554   8.016   9.095  0.6659  0.7386  0.2555
  843SOL     OW 7085   1.821   0.877   3.321  0.1280  0.5071  0.6623
  843SOL    HW1 7086   1.748   0.819   3.302 -0.1249  1.2484 -0.8503
  843SOL    HW2 7087   1.780   0.962   3.338  0.6074  1.3573 -1.9095
  844SOL     OW 7088  11.906   5.458   8.754 -0.6724  0.5538  0.8734
  844SOL    HW1 7089  11.900   5.545   8.715 -0.3708  0.7577  1.2805
  844SOL    HW2 7090  11.909   5.399   8.679 -4.0980  0.6146  0.5472
  845SOL     OW 7091   0.558   6.054   8.069  0.3788  0.0529 -0.0076
  845SOL    HW1 7092   0.554   5.993   8.143  0.4876 -1.5572 -1.2726
  845SOL    HW2 7093   0.605   6.130   8.103 -1.3858  0.2833  2.1807
  846SOL     OW 7094   2.622  10.489   1.137 -0.2082  0.4401  0.3206
  846SOL    HW1 7095   2.653  10.440   1.213 -0.3583  0.7912  0.6142
  846SOL    HW2 7096   2.647  10.436   1.061  0.9695  0.6430  0.5566
  847SOL     OW 7097   5.210   9.069   4.940 -0.8679 -0.1276  0.0231
  847SOL    HW1 7098   5.122   9.050   4.970 -0.8465  0.9023  0.7692
  847SOL    HW2 7099   5.201   9.147   4.886 -0.6812 -1.1008 -1.4796
  848SOL     OW 7100  12.071   5.930   4.215 -0.7111 -0.0201 -0.0257
  848SOL    HW1 7101  12.011   5.914   4.289 -0.4133  0.7848  0.3973
  848SOL    HW2 7102  12.014   5.947   4.141 -1.0140  1.0875  0.4524
  849SOL     OW 7103   3.499   4.182   3.477 -0.3724  0.5283 -0.5392
  849SOL    HW1 7104   3.501   4.276   3.462 -1.9304  0.4186 -1.7229
  849SOL    HW2 7105   3.406   4.159   3.475 -0.0985 -0.9031  0.7320
  850SOL     OW 7106   4.568   6.514   3.131 -0.4127 -0.2072  0.4064
  850SOL    HW1 7107   4.494   6.481   3.079 -0.2931  0.9197 -0.5248
  850SOL    HW2 7108   4.612   6.435   3.162 -0.7180 -0.9331 -0.9076
  851SOL     OW 7109   6.208  11.865   0.872 -0.0775 -0.4872 -0.4108
  851SOL    HW1 7110   6.208  11.932   0.940  1.6770 -0.4263 -0.4267
  851SOL    HW2 7111   6.132  11.885   0.817 -0.2279  0.7863  0.2452
  852SOL     OW 7112   6.963  10.013   6.734  0.4608 -0.6760  0.5205
  852SOL    HW1 7113   6.906   9.975   6.668  2.5778  1.2445 -2.7098
  852SOL    HW2 7114   7.035   9.951   6.743  2.4370  0.8903 -2.5776
  853SOL     OW 7115   7.630   2.591  10.389  0.1430 -0.0907 -0.2031
  853SOL    HW1 7116   7.667   2.592  10.478 -0.3670  0.6159  0.0134
  853SOL    HW2 7117   7.706   2.582  10.332  0.4337 -1.1536  0.3175
  854SOL     OW 7118  10.154  10.596   3.820 -0.0739 -0.4900  0.3382
  854SOL    HW1 7119  10.108  10.663   3.768 -1.4338 -1.9847 -0.4797
  854SOL    HW2 7120  10.088  10.565   3.881 -0.8208 -3.7972 -1.8828
  855SOL     OW 7121  10.248   5.235   8.107 -0.2727 -0.3408  0.1887
  855SOL    HW1 7122  10.299   5.210   8.184 -1.3173  1.2124  1.4483
  855SOL    HW2 7123  10.236   5.153   8.059  2.2464 -0.9816  0.4940
  856SOL     OW 7124   3.499   2.607   6.290 -0.0133  0.2371  0.6150
  856SOL    HW1 7125   3.446   2.682   6.261  0.5344  0.8088  1.0721
  856SOL    HW2 7126   3.479   2.538   6.227 -1.8307  0.2175  1.1612
  857SOL     OW 7127   5.923  10.457   1.406  0.6855 -0.5922 -0.1492
  857SOL    HW1 7128   5.834  10.438   1.376  0.2704  0.3720  0.4225
  857SOL    HW2 7129   5.921  10.550   1.431  1.7165 -0.6837  0.3432
  858SOL     OW 7130   2.338   9.218   3.334  0.0817 -0.0690 -0.5687
  858SOL    HW1 7131   2.335   9.130   3.372  1.4319 -0.1212 -0.5376
  858SOL    HW2 7132   2.403   9.212   3.264 -0.4929  0.6783 -1.1830
  859SOL     OW 7133   5.221   3.372   2.109 -0.3910 -0.4472 -0.4040
  859SOL    HW1 7134   5.167   3.448   2.088  0.9226  0.7370  0.3183
  859SOL    HW2 7135   5.159   3.300   2.122 -1.7673  0.8371  0.3591
  860SOL     OW 7136   7.740   0.474  10.273  0.1702 -0.7739  0.4128
  860SOL    HW1 7137   7.741   0.405  10.339 -2.1495  0.3664  1.7750
  860SOL    HW2 7138   7.766   0.553  10.321 -0.2294 -0.1709 -0.3458
  861SOL     OW 7139   2.583   1.787   7.511 -0.0482  0.4527 -0.0512
  861SOL    HW1 7140   2.674   1.761   7.493 -0.2448 -0.6219  0.4094
  861SOL    HW2 7141   2.531   1.710   7.490 -0.7430  0.6902  0.7350
  862SOL     OW 7142  11.880   0.310   9.312 -0.5043 -0.2359 -0.0979
  862SOL    HW1 7143  11.791   0.322   9.279  0.1876  0.1858 -1.8952
  862SOL    HW2 7144  11.915   0.399   9.321  0.6468 -0.4453 -2.0842
  863SOL     OW 7145   9.946   9.726   9.907  0.0166 -0.0672  0.3632
  863SOL    HW1 7146   9.955   9.730  10.002 -0.8299  1.3380  0.4145
  863SOL    HW2 7147   9.865   9.678   9.892 -0.0611  0.0642  0.3621
  864SOL     OW 7148  11.579   6.177   3.672 -0.1759 -0.3026 -0.8816
  864SOL    HW1 7149  11.662   6.150   3.632 -0.6622  0.7920 -2.7345
  864SOL    HW2 7150  11.603   6.207   3.760  1.0734 -1.8869 -0.6463
  865SOL     OW 7151  10.008   9.515  10.822 -0.0272  0.2071  0.4105
  865SOL    HW1 7152   9.931   9.532  10.877 -0.4347  0.3121 -0.1880
  865SOL    HW2 7153  10.081   9.513  10.884 -0.5284 -0.0602  1.0116
  866SOL     OW 7154   1.520   4.736   8.807  0.1223  0.1522 -1.0644
  866SOL    HW1 7155   1.519   4.641   8.796 -0.4275  0.1903 -1.4347
  866SOL    HW2 7156   1.579   4.752   8.880 -0.8016 -0.5780 -0.1171
  867SOL     OW 7157   3.791   5.572   6.959 -0.2191  0.1911  0.7032
  867SOL    HW1 7158   3.774   5.479   6.941  0.2939  0.2803 -0.3089
  867SOL    HW2 7159   3.704   5.613   6.953 -0.0824  0.2551 -2.0239
  868SOL     OW 7160   5.292   8.604   5.090  0.3922 -0.1475 -0.4050
  868SOL    HW1 7161   5.300   8.661   5.167 -2.0188 -0.3251  0.0425
  868SOL    HW2 7162   5.275   8.517   5.125  1.0775 -0.5942 -1.1369
  869SOL     OW 7163   4.439   3.099  12.051  0.2143  0.4451 -0.0253
  869SOL    HW1 7164   4.367   3.157  12.025  0.7457  0.3046 -1.9117
  869SOL    HW2 7165   4.447   3.036  11.979 -0.4932 -2.2048  2.0245
  870SOL     OW 7166   6.596   8.297   7.648  0.1652 -0.1315  0.4191
  870SOL    HW1 7167   6.671   8.352   7.626  1.8352 -2.0703  0.9431
  870SOL    HW2 7168   6.547   8.289   7.566  1.6205 -0.3714 -0.4670
  871SOL     OW 7169   5.943   3.290  11.657 -0.0458  0.3869  0.2691
  871SOL    HW1 7170   6.019   3.325  11.610 -0.5913  0.6520 -0.4445
  871SOL    HW2 7171   5.944   3.335  11.742  1.4152 -0.6855  0.8541
  872SOL     OW 7172   0.331   4.414   6.050 -0.7648  0.4560 -0.6621
  872SOL    HW1 7173   0.370   4.499   6.027 -1.1867  0.5487 -1.0466
  872SOL    HW2 7174   0.365   4.355   5.983 -0.8728  0.4254 -0.6890
  873SOL     OW 7175  11.829   1.385   3.627  0.6372 -0.4304 -0.5842
  873SOL    HW1 7176  11.797   1.469   3.593  1.0285  1.3244  2.9064
  873SOL    HW2 7177  11.922   1.401   3.646  0.6393 -1.5137  0.4437
  874SOL     OW 7178   9.792   8.722   0.930 -0.3918  0.2620  0.0891
  874SOL    HW1 7179   9.769   8.643   0.880 -0.4118  0.4708 -0.2377
  874SOL    HW2 7180   9.723   8.729   0.996 -0.3540 -0.0296  0.1622
  875SOL     OW 7181   9.894  10.859   6.053 -0.5335 -0.3037  0.0739
  875SOL    HW1 7182   9.846  10.919   5.996  1.1016 -0.5354 -1.6258
  875SOL    HW2 7183   9.985  10.886   6.046 -0.1370 -1.0754  1.7257
  876SOL     OW 7184  11.356   3.036   7.928  0.0668  0.4057 -0.1613
  876SOL    HW1 7185  11.312   3.035   8.013 -2.3590  0.4750 -1.3134
  876SOL    HW2 7186  11.431   3.095   7.940 -0.6843  1.0531  1.6976
  877SOL     OW 7187  11.666  11.726  10.786  0.2531  0.3363  0.1808
  877SOL    HW1 7188  11.629  11.740  10.873  0.2573  0.2782  0.1918
  877SOL    HW2 7189  11.591  11.729  10.727  0.0971 -0.6943  0.2935
  878SOL     OW 7190   2.904   1.201   0.394 -0.1098  0.0920 -0.0384
  878SOL    HW1 7191   2.918   1.271   0.457  0.9205 -2.8420  3.3496
  878SOL    HW2 7192   2.919   1.241   0.309  0.6413  3.8443  1.6755
  879SOL     OW 7193  11.303   7.202  10.214 -0.1308 -0.0005 -0.4687
  879SOL    HW1 7194  11.308   7.199  10.309 -1.1502 -0.5787 -0.4135
  879SOL    HW2 7195  11.379   7.254  10.187 -0.5226  1.2835  0.7399
  880SOL     OW 7196  11.198   4.051   1.474  0.1812 -0.4645  0.6413
  880SOL    HW1 7197  11.146   4.110   1.529 -1.2922  0.7047 -1.8318
  880SOL    HW2 7198  11.200   3.969   1.523 -1.3301  0.3918  2.2681
  881SOL     OW 7199   8.929   6.625   8.017 -0.1821 -0.0355 -0.2072
  881SOL    HW1 7200   8.908   6.708   7.974  2.7857 -0.0417 -1.8826
  881SOL    HW2 7201   8.913   6.559   7.950 -2.1742 -0.8966  1.0078
  882SOL     OW 7202   1.983   5.589  10.133  0.1436  0.0226  0.0657
  882SOL    HW1 7203   1.977   5.588  10.228  0.0861  2.2142  0.1381
  882SOL    HW2 7204   1.953   5.677  10.108  1.7644  0.0959 -1.8568
  883SOL     OW 7205   7.221   7.253   6.652  0.0832  0.2287  0.1891
  883SOL    HW1 7206   7.266   7.329   6.615  1.3613 -0.1697  0.8633
  883SOL    HW2 7207   7.237   7.259   6.746 -0.9288 -0.1674  0.3985
  884SOL     OW 7208   0.898  11.228  10.519  1.1020 -0.2144 -0.0532
  884SOL    HW1 7209   0.901  11.302  10.460  0.6921 -0.3980 -0.3081
  884SOL    HW2 7210   0.869  11.264  10.603  0.2634 -0.1912 -0.3465
  885SOL     OW 7211   5.888   0.009   9.603  0.6276  0.1693 -0.0974
  885SOL    HW1 7212   5.911  -0.077   9.639 -0.0412 -0.6103 -1.4314
  885SOL    HW2 7213   5.954   0.024   9.535  0.2215  0.2961 -0.4634
  886SOL     OW 7214   1.954  11.408   1.611 -0.4154  0.0605 -0.1931
  886SOL    HW1 7215   1.987  11.427   1.699 -1.0040 -0.3932  0.1326
  886SOL    HW2 7216   1.955  11.313   1.605 -2.7744 -0.0624  0.2928
  887SOL     OW 7217   1.675   5.753   2.686  0.2183 -0.7076 -0.0305
  887SOL    HW1 7218   1.693   5.844   2.711  0.5336 -0.8532  0.2834
  887SOL    HW2 7219   1.757   5.707   2.704  0.2573 -0.9383 -0.7672
  888SOL     OW 7220   6.105   6.110   4.038  0.0771  0.5511  0.3169
  888SOL    HW1 7221   6.048   6.055   3.983  0.5660  0.0886  0.2584
  888SOL    HW2 7222   6.123   6.187   3.984 -0.5845  0.7585  0.3825
  889SOL     OW 7223   9.801   9.579   0.963 -0.5730 -0.4030  0.5046
  889SOL    HW1 7224   9.882   9.587   1.013 -1.0945  0.8671  1.2003
  889SOL    HW2 7225   9.737   9.544   1.025 -1.6380  2.6790  1.2995
  890SOL     OW 7226   3.178  10.045   3.411 -0.1118  0.3056 -0.1226
  890SOL    HW1 7227   3.256  10.033   3.358  0.0859 -0.5508  0.3416
  890SOL    HW2 7228   3.122  10.102   3.358 -0.2609 -1.1377 -1.6247
  891SOL     OW 7229   3.219  10.940   6.266  0.2069  0.8055 -0.4046
  891SOL    HW1 7230   3.190  10.973   6.181 -1.0819  0.3956 -0.1387
  891SOL    HW2 7231   3.180  10.999   6.330 -0.4251  0.0050 -0.0241
  892SOL     OW 7232   2.859   6.346   8.130 -0.4961  0.0104 -0.1670
  892SOL    HW1 7233   2.837   6.260   8.093  0.8533  0.3736 -1.9778
  892SOL    HW2 7234   2.788   6.403   8.102 -0.5290 -0.1683 -0.4603
  893SOL     OW 7235   9.452   9.522   6.078  0.0908 -0.3708  0.0050
  893SOL    HW1 7236   9.455   9.519   6.174 -2.0485 -1.1184  0.1225
  893SOL    HW2 7237   9.518   9.459   6.050 -0.8429 -1.9214  1.0929
  894SOL     OW 7238   0.538  10.848   2.132 -0.1101 -0.0427  0.3123
  894SOL    HW1 7239   0.611  10.823   2.075  0.1781 -1.9808  1.4376
  894SOL    HW2 7240   0.557  10.938   2.157 -0.3326  0.9494 -2.6954
  895SOL     OW 7241   9.803   3.933   2.830 -0.2806 -0.0790  0.4741
  895SOL    HW1 7242   9.860   3.915   2.905  0.2544 -1.1207 -0.1506
  895SOL    HW2 7243   9.717   3.947   2.868  0.5074  2.4842  1.5292
  896SOL     OW 7244  10.631   2.393   2.426  0.2687 -0.4795 -0.5516
  896SOL    HW1 7245  10.627   2.388   2.521  0.0838  0.7737 -0.4836
  896SOL    HW2 7246  10.541   2.379   2.397  0.3430 -0.9701 -0.5554
  897SOL     OW 7247   7.442  11.132  11.456 -0.2533  0.8889 -0.8071
  897SOL    HW1 7248   7.527  11.143  11.497  0.1966 -0.4091 -1.3656
  897SOL    HW2 7249   7.423  11.038  11.462 -1.6787  1.1586 -0.6239
  898SOL     OW 7250   8.944  10.566   8.515 -0.4912  0.0907 -0.0522
  898SOL    HW1 7251   9.002  10.548   8.442 -0.7168  1.6579 -0.6586
  898SOL    HW2 7252   8.955  10.660   8.532 -0.6909 -0.1557  1.7183
  899SOL     OW 7253   3.167   5.706   5.442 -0.2712  0.2086  0.5800
  899SOL    HW1 7254   3.110   5.670   5.510 -0.7904 -0.3980 -0.1716
  899SOL    HW2 7255   3.151   5.800   5.445 -2.1009 -0.0246 -0.2956
  900SOL     OW 7256   1.754  10.606   4.956 -0.0213  0.2912 -0.2967
  900SOL    HW1 7257   1.841  10.599   4.995 -0.1056 -0.7483 -0.2616
  900SOL    HW2 7258   1.758  10.686   4.902  1.1859 -0.1247 -0.8678
  901SOL     OW 7259   4.216   3.113   8.388 -0.3720  0.1023 -0.5071
  901SOL    HW1 7260   4.205   3.086   8.480  0.5389  0.0650 -0.4020
  901SOL    HW2 7261   4.276   3.048   8.351  0.2910  0.8466 -0.7738
  902SOL     OW 7262   6.705   1.996   7.115  0.3355  0.0199  0.1364
  902SOL    HW1 7263   6.759   1.951   7.050  1.6698  0.4300  0.9233
  902SOL    HW2 7264   6.649   2.055   7.063  0.3062 -0.7408 -0.7173
  903SOL     OW 7265   3.730   6.222   9.609  0.2232 -0.3604  0.2709
  903SOL    HW1 7266   3.783   6.145   9.629  1.0064 -0.1401 -0.8754
  903SOL    HW2 7267   3.644   6.186   9.585  0.5396 -0.8658 -0.1202
  904SOL     OW 7268  11.611   0.889   3.052  0.8056  0.3741  0.4316
  904SOL    HW1 7269  11.589   0.831   2.979  0.7977  1.2938 -0.3090
  904SOL    HW2 7270  11.545   0.958   3.048  1.0365  0.6367  1.0900
  905SOL     OW 7271  11.566   6.875   8.420 -0.9072  0.0193 -0.4191
  905SOL    HW1 7272  11.590   6.965   8.443 -2.5348  0.8852 -1.9381
  905SOL    HW2 7273  11.624   6.852   8.347 -0.2408 -0.3450  0.2005
  906SOL     OW 7274   8.952   4.053   6.071  0.5495 -0.7043 -0.2357
  906SOL    HW1 7275   8.885   4.030   6.007  0.8915  0.4575 -1.0433
  906SOL    HW2 7276   8.912   4.033   6.155 -0.2999 -1.2961 -0.7580
  907SOL     OW 7277   1.781   6.517   2.144 -0.1544  0.2352 -0.1914
  907SOL    HW1 7278   1.702   6.523   2.198  0.1613 -1.5384  0.5524
  907SOL    HW2 7279   1.813   6.428   2.159  1.5614  0.6617 -1.0818
  908SOL     OW 7280   8.189  10.319   4.308 -0.2886 -0.0855 -0.3473
  908SOL    HW1 7281   8.229  10.298   4.223 -1.5813  0.6166 -1.1632
  908SOL    HW2 7282   8.257  10.368   4.355 -0.3075  1.4782 -1.8639
  909SOL     OW 7283   3.702   3.428   7.187 -0.0502  0.3385 -0.5402
  909SOL    HW1 7284   3.733   3.443   7.276  2.6413 -0.2114 -1.2857
  909SOL    HW2 7285   3.720   3.510   7.141  0.3454  0.0017 -0.9964
  910SOL     OW 7286  10.268   9.494   0.389 -0.3430  0.2644  0.7559
  910SOL    HW1 7287  10.289   9.544   0.310  1.9922 -0.4281  0.8584
  910SOL    HW2 7288  10.338   9.429   0.395 -0.4432  0.2997  3.4064
  911SOL     OW 7289   6.097   7.668   0.786 -0.6651  0.0320  0.6033
  911SOL    HW1 7290   6.016   7.645   0.740 -0.6524  1.0051  0.0708
  911SOL    HW2 7291   6.116   7.591   0.840 -1.1578 -0.7937 -0.3524
  912SOL     OW 7292   4.056   4.769   6.236  0.2099  0.3158 -0.0020
  912SOL    HW1 7293   3.963   4.748   6.247 -0.2161  1.9531 -0.3348
  912SOL    HW2 7294   4.102   4.703   6.289 -1.1138 -0.6847 -0.0603
  913SOL     OW 7295   6.033  10.207   0.274 -0.1394 -0.3759  0.5441
  913SOL    HW1 7296   5.950  10.255   0.275  1.0874  1.9106  0.7593
  913SOL    HW2 7297   6.054  10.197   0.181 -0.5998 -0.8889  0.4902
  914SOL     OW 7298   8.844   1.557   9.810  0.5815  0.2040  0.0602
  914SOL    HW1 7299   8.820   1.598   9.727 -2.3853  0.8797  1.1418
  914SOL    HW2 7300   8.921   1.606   9.839  0.4176  1.3429 -1.3210
  915SOL     OW 7301   4.696   1.944   3.479  0.3570  0.8609 -0.3637
  915SOL    HW1 7302   4.642   1.897   3.542 -0.2798  0.7247 -0.9976
  915SOL    HW2 7303   4.657   2.031   3.472  2.1054  1.8873  1.5390
  916SOL     OW 7304   4.996   2.774  11.838  0.2153  0.0257  0.3129
  916SOL    HW1 7305   5.043   2.717  11.777 -2.0917 -1.5512 -0.1194
  916SOL    HW2 7306   5.057   2.787  11.910  2.6401  1.0969 -1.7881
  917SOL     OW 7307   9.997   1.231   5.666 -0.4719 -0.2338  0.3751
  917SOL    HW1 7308   9.935   1.287   5.711  1.7108  0.4183  2.8014
  917SOL    HW2 7309   9.963   1.142   5.679 -2.0928  0.2190 -0.4602
  918SOL     OW 7310   9.487   6.153   1.653  0.2593 -0.1483 -0.7478
  918SOL    HW1 7311   9.451   6.079   1.703  1.5815 -1.4970 -1.7021
  918SOL    HW2 7312   9.514   6.216   1.720  1.6452 -1.7483  0.2604
  919SOL     OW 7313   0.336  10.409  10.362 -0.1701  0.3104 -0.2933
  919SOL    HW1 7314   0.295  10.420  10.276 -1.3631  0.1450  0.2422
  919SOL    HW2 7315   0.289  10.469  10.419 -1.0585 -1.3257  0.7832
  920SOL     OW 7316   1.020   4.562   8.518 -0.4533 -0.8226  0.3490
  920SOL    HW1 7317   0.987   4.632   8.463 -0.6435 -1.9682 -1.0553
  920SOL    HW2 7318   1.042   4.605   8.601  1.9419  1.3749 -1.2867
  921SOL     OW 7319   9.020   2.527  11.697 -0.7226 -0.0177  0.1238
  921SOL    HW1 7320   9.096   2.523  11.755  0.4823  4.0485 -0.8004
  921SOL    HW2 7321   8.952   2.570  11.750  0.0690  2.8164 -0.9705
  922SOL     OW 7322   6.472   9.049   0.412  0.7364 -0.2783 -0.4480
  922SOL    HW1 7323   6.497   9.058   0.320  1.1022  0.5555 -0.2751
  922SOL    HW2 7324   6.392   9.102   0.421  1.4848  0.8031  0.0168
  923SOL     OW 7325  11.238   6.001   4.934 -0.4944  0.3312  0.1456
  923SOL    HW1 7326  11.202   6.080   4.894 -1.4589 -0.5434 -0.7796
  923SOL    HW2 7327  11.179   5.982   5.007 -2.2837 -1.2918 -1.5712
  924SOL     OW 7328  11.849   9.658   4.453 -0.0366  0.0715  0.8368
  924SOL    HW1 7329  11.863   9.697   4.539 -2.0388  1.2676  0.6720
  924SOL    HW2 7330  11.805   9.575   4.472  1.1382 -0.5356  1.0152
  925SOL     OW 7331   5.512  11.512   0.251  1.0889 -0.2577 -0.4482
  925SOL    HW1 7332   5.439  11.466   0.210  2.1249 -0.7216 -1.8608
  925SOL    HW2 7333   5.472  11.587   0.295 -0.3020 -0.9250 -0.5215
  926SOL     OW 7334   5.165   2.391   8.836 -0.1360  0.0495 -0.7453
  926SOL    HW1 7335   5.256   2.394   8.808 -0.0218  0.6706 -0.3269
  926SOL    HW2 7336   5.165   2.434   8.922 -1.0352  1.3123 -1.3474
  927SOL     OW 7337   4.810   4.017   2.960  0.4027  0.3625  0.3268
  927SOL    HW1 7338   4.863   3.947   2.924 -0.7010  0.1007 -0.8344
  927SOL    HW2 7339   4.854   4.097   2.933  0.5666  0.1438 -0.0574
  928SOL     OW 7340   2.703  10.566   8.654 -0.1902  0.8665  0.0274
  928SOL    HW1 7341   2.643  10.629   8.613  1.4438  2.6048  0.1815
  928SOL    HW2 7342   2.730  10.608   8.735 -0.4279 -0.8680  1.0622
  929SOL     OW 7343   4.461   9.488   2.228 -0.5103  0.7453  0.0202
  929SOL    HW1 7344   4.458   9.577   2.263 -0.0967  0.2041  1.4774
  929SOL    HW2 7345   4.533   9.489   2.166 -0.9032  1.5830 -0.4432
  930SOL     OW 7346   5.110   9.667  10.649  0.1183  0.2921 -0.1553
  930SOL    HW1 7347   5.074   9.756  10.643  0.1734  0.3277  0.0378
  930SOL    HW2 7348   5.105   9.646  10.743 -2.8489 -1.1066 -0.4909
  931SOL     OW 7349   1.918   0.915   1.377  0.2792  0.2853 -0.3527
  931SOL    HW1 7350   1.922   0.920   1.473  0.7370  1.0464 -0.4027
  931SOL    HW2 7351   1.828   0.940   1.355 -0.3673 -1.6348 -0.0363
  932SOL     OW 7352   6.473   4.268   0.179  0.4860  0.0435 -0.5992
  932SOL    HW1 7353   6.558   4.307   0.196  0.3267 -0.5623  2.1761
  932SOL    HW2 7354   6.492   4.180   0.147  0.9020  0.2494 -0.9120
  933SOL     OW 7355   2.589  11.807   2.267 -0.3089 -0.3096  0.0628
  933SOL    HW1 7356   2.620  11.727   2.309 -0.6508 -0.8476 -0.7041
  933SOL    HW2 7357   2.594  11.789   2.173 -0.2988  0.6020 -0.1233
  934SOL     OW 7358   8.762   0.008   2.900  0.3706 -0.1879 -0.0076
  934SOL    HW1 7359   8.711   0.047   2.828  0.1275  0.6934  0.6220
  934SOL    HW2 7360   8.735  -0.084   2.902 -2.2997  0.5113  1.2021
  935SOL     OW 7361  10.237   1.743   4.827  0.7725  0.4488  0.4303
  935SOL    HW1 7362  10.223   1.831   4.792 -1.1248  0.2237  0.5443
  935SOL    HW2 7363  10.318   1.714   4.786  0.1725  1.3346 -1.4802
  936SOL     OW 7364  11.219   0.038   1.518 -0.3033  0.6776 -0.0146
  936SOL    HW1 7365  11.190  -0.053   1.531  0.1863  0.5644  0.3128
  936SOL    HW2 7366  11.242   0.068   1.606 -0.7729  1.2326 -0.0741
  937SOL     OW 7367   7.877   9.843   4.697 -0.1680  0.1459 -0.3450
  937SOL    HW1 7368   7.885   9.933   4.731 -2.0082 -0.8229  3.1050
  937SOL    HW2 7369   7.926   9.790   4.759 -1.6907 -1.5582 -0.5373
  938SOL     OW 7370  11.276   8.654   1.126  0.1480 -0.1723 -0.2679
  938SOL    HW1 7371  11.217   8.664   1.200 -0.7051 -1.7795 -0.6688
  938SOL    HW2 7372  11.296   8.743   1.098 -0.6474  0.4260  0.9999
  939SOL     OW 7373   2.481   3.803   5.865 -0.2199  0.2000 -0.7666
  939SOL    HW1 7374   2.551   3.752   5.823 -0.9754 -2.4795  0.9495
  939SOL    HW2 7375   2.407   3.741   5.871 -1.2135  1.4739  1.4755
  940SOL     OW 7376   9.415   1.919   7.003  0.3357 -0.0785  0.7998
  940SOL    HW1 7377   9.323   1.936   6.985  0.3865  0.4131  0.9900
  940SOL    HW2 7378   9.451   2.004   7.027  1.1080 -0.0193 -0.4270
  941SOL     OW 7379   8.025   2.292   2.126 -0.0068  0.0558 -0.0849
  941SOL    HW1 7380   7.953   2.344   2.162 -0.4948 -0.3131 -0.5150
  941SOL    HW2 7381   7.995   2.201   2.132  0.1242 -0.0492 -0.9273
  942SOL     OW 7382   4.318   7.621  11.131 -0.3965  0.3696  0.4919
  942SOL    HW1 7383   4.235   7.574  11.125 -0.8537  1.3129 -2.4913
  942SOL    HW2 7384   4.299   7.699  11.182 -1.7880  1.2482 -1.2587
  943SOL     OW 7385   6.873   6.690   5.479  0.1521 -0.3855 -0.7460
  943SOL    HW1 7386   6.907   6.674   5.567 -2.2607  0.1635  0.3923
  943SOL    HW2 7387   6.925   6.764   5.446 -0.7890  1.4113  1.4990
  944SOL     OW 7388   1.090   5.698   5.370  0.2515  0.5399 -0.5444
  944SOL    HW1 7389   1.047   5.624   5.326  0.5368  0.1210 -0.1307
  944SOL    HW2 7390   1.141   5.740   5.301  1.8657 -0.9815 -0.3405
  945SOL     OW 7391   8.744   3.076   1.588 -0.6342  0.0687 -0.2954
  945SOL    HW1 7392   8.821   3.020   1.590  0.6095  1.6326 -1.6330
  945SOL    HW2 7393   8.759   3.136   1.515 -2.0301  1.9299  0.8368
  946SOL     OW 7394   4.110   2.187   1.959 -0.3554  0.5197  0.3803
  946SOL    HW1 7395   4.035   2.133   1.983 -0.6572  0.5981 -0.3639
  946SOL    HW2 7396   4.071   2.267   1.923  0.0859  0.4306 -0.3048
  947SOL     OW 7397   3.457   6.752   3.488  0.0714  0.0561  0.2455
  947SOL    HW1 7398   3.504   6.669   3.490  1.8188  1.0190  0.8382
  947SOL    HW2 7399   3.486   6.798   3.567 -1.8523  0.7396  0.6194
  948SOL     OW 7400  10.146  11.531   9.323  0.5199 -0.0786 -0.3229
  948SOL    HW1 7401  10.081  11.485   9.375  1.0439  0.4900  0.8693
  948SOL    HW2 7402  10.208  11.464   9.295 -0.2416 -0.5271 -0.9770
  949SOL     OW 7403   6.550   1.663  11.944 -0.4704 -0.1200  0.5292
  949SOL    HW1 7404   6.508   1.740  11.984 -0.5313  0.6773 -0.9702
  949SOL    HW2 7405   6.480   1.598  11.940 -0.2424 -0.5428  2.4432
  950SOL     OW 7406  12.100   6.044   8.047 -0.4022 -0.4267  0.1163
  950SOL    HW1 7407  12.174   6.104   8.045  0.5635 -1.5191  1.4268
  950SOL    HW2 7408  12.075   6.033   7.955  0.0749  1.1196 -0.2163
  951SOL     OW 7409  11.342   9.019   2.705 -0.1725 -0.0751 -0.3695
  951SOL    HW1 7410  11.366   8.927   2.695  0.5083  0.0857 -0.2258
  951SOL    HW2 7411  11.370   9.061   2.624 -0.6880 -0.0323 -0.5308
  952SOL     OW 7412   7.589   2.333  11.026 -0.5463  0.5214 -0.5471
  952SOL    HW1 7413   7.518   2.392  11.001  0.4156  2.2195  0.5206
  952SOL    HW2 7414   7.625   2.301  10.943 -3.7839 -2.0796 -1.1619
  953SOL     OW 7415   8.291   0.737   1.101  0.7721  0.1236  0.9417
  953SOL    HW1 7416   8.334   0.787   1.032  0.0616 -0.3980  0.0972
  953SOL    HW2 7417   8.230   0.798   1.141  0.2906  0.0900  0.2713
  954SOL     OW 7418  11.356   4.890   2.228  0.2919 -0.2775 -0.1082
  954SOL    HW1 7419  11.284   4.911   2.168  0.2123 -0.6408 -0.1381
  954SOL    HW2 7420  11.357   4.795   2.234 -0.5540 -0.2274  1.5004
  955SOL     OW 7421   4.704   0.806   1.495 -0.0637  0.7392  0.0723
  955SOL    HW1 7422   4.788   0.836   1.461  0.0505  0.9762  0.5559
  955SOL    HW2 7423   4.714   0.810   1.590 -0.5374  0.5297  0.1333
  956SOL     OW 7424   7.413   2.325   9.277 -0.1451  0.1259 -0.1128
  956SOL    HW1 7425   7.345   2.346   9.340 -2.3515 -4.9060 -0.3649
  956SOL    HW2 7426   7.482   2.283   9.328 -0.6064 -1.3345 -0.6521
  957SOL     OW 7427   3.033   8.731  10.996 -0.1051  0.5921  0.6648
  957SOL    HW1 7428   2.982   8.654  11.022 -1.5771  1.8136  1.6244
  957SOL    HW2 7429   3.026   8.790  11.071  0.8435  1.7189 -0.1006
  958SOL     OW 7430   6.064   2.442   3.964  0.1544  0.3674 -0.0216
  958SOL    HW1 7431   6.035   2.368   4.016 -0.5956  0.7896  0.1749
  958SOL    HW2 7432   6.048   2.416   3.873 -1.4673  0.8296  0.1015
  959SOL     OW 7433   2.661   6.086   5.000  0.0418 -0.3966 -0.2359
  959SOL    HW1 7434   2.678   6.176   4.973 -0.4881 -0.5897 -1.2708
  959SOL    HW2 7435   2.647   6.039   4.918 -1.5216 -1.0436  0.3723
  960SOL     OW 7436   9.250   5.752   5.150 -0.0312  0.0450 -0.1426
  960SOL    HW1 7437   9.344   5.743   5.165 -0.2794  0.2651  1.7949
  960SOL    HW2 7438   9.210   5.684   5.204 -0.9280 -1.6727 -2.8205
  961SOL     OW 7439   5.859   7.613   6.787 -0.7753  0.2611  0.1091
  961SOL    HW1 7440   5.855   7.603   6.882 -0.9711 -1.2963 -0.0429
  961SOL    HW2 7441   5.918   7.544   6.758 -0.8312  0.6280 -0.9202
  962SOL     OW 7442   5.354   2.670   8.761 -0.2371 -0.5058  0.0469
  962SOL    HW1 7443   5.350   2.624   8.676  1.2223 -1.5868  0.5125
  962SOL    HW2 7444   5.264   2.671   8.792 -1.0945  1.3125 -2.2023
  963SOL     OW 7445   4.022  10.133   3.547 -0.5818 -0.3167  0.5991
  963SOL    HW1 7446   3.999  10.048   3.511 -1.5444 -0.0752  0.6196
  963SOL    HW2 7447   4.114  10.145   3.523 -0.6307 -1.0595  0.0055
  964SOL     OW 7448   2.574   0.380   6.421  0.3352 -0.4669  0.3832
  964SOL    HW1 7449   2.591   0.294   6.384  0.4691  0.5757 -2.2066
  964SOL    HW2 7450   2.480   0.379   6.440  0.0430 -0.7533 -0.9589
  965SOL     OW 7451  11.319   6.712   7.282 -0.0530 -0.3327  0.0687
  965SOL    HW1 7452  11.228   6.730   7.306  0.2168  0.4006  0.6168
  965SOL    HW2 7453  11.314   6.658   7.204 -0.9651 -1.0744  0.6275
  966SOL     OW 7454   3.911  10.549   9.867 -0.4838 -0.5273  0.1259
  966SOL    HW1 7455   3.866  10.634   9.866  2.1096  0.9725  0.8101
  966SOL    HW2 7456   3.885  10.510   9.951 -1.8068 -0.4958 -0.2478
  967SOL     OW 7457  11.365   4.505  11.807 -0.3052 -0.1594 -0.1601
  967SOL    HW1 7458  11.360   4.472  11.897 -0.8502 -1.0571 -0.5084
  967SOL    HW2 7459  11.404   4.433  11.757 -0.1832  0.2639 -0.6835
  968SOL     OW 7460  11.998   6.741  11.600 -0.9923 -0.0933 -0.1504
  968SOL    HW1 7461  12.082   6.738  11.554 -0.7847  0.4880  0.1902
  968SOL    HW2 7462  11.951   6.664  11.568  0.1568 -1.1449  0.5754
  969SOL     OW 7463   6.107  10.521   8.725  0.6657  0.1961  0.3981
  969SOL    HW1 7464   6.146  10.438   8.753  0.4184 -0.0801 -0.0590
  969SOL    HW2 7465   6.033  10.495   8.671 -0.0160  0.7160  1.0705
  970SOL     OW 7466   0.668   5.620   4.531  0.0199  0.3104  0.2789
  970SOL    HW1 7467   0.653   5.594   4.622  1.2055 -1.2372  0.0778
  970SOL    HW2 7468   0.598   5.576   4.482 -0.0794  0.4033  0.3362
  971SOL     OW 7469   9.947   1.702   9.704  0.4522  0.0350  0.3921
  971SOL    HW1 7470   9.920   1.783   9.748  1.3377  1.4620 -1.5192
  971SOL    HW2 7471  10.026   1.674   9.750  0.8367  0.9704  0.3263
  972SOL     OW 7472   7.980   0.298   4.001 -0.1720 -0.3409 -0.1996
  972SOL    HW1 7473   8.020   0.305   4.087  0.0534  0.2077 -0.3420
  972SOL    HW2 7474   7.886   0.299   4.018 -0.1271 -0.4821  0.0582
  973SOL     OW 7475   5.341   0.362  10.855  0.1014 -0.3075 -0.5646
  973SOL    HW1 7476   5.346   0.349  10.760  0.0121  0.4824 -0.6896
  973SOL    HW2 7477   5.248   0.367  10.874  0.1180  1.4593 -0.7478
  974SOL     OW 7478   9.692   5.685   3.175  0.1269 -0.0192 -0.0622
  974SOL    HW1 7479   9.636   5.763   3.170 -0.3346  0.1907  4.3380
  974SOL    HW2 7480   9.709   5.661   3.084 -4.3435  1.8913 -1.6628
  975SOL     OW 7481   4.619   1.559   9.777  0.0118 -0.0512  0.0779
  975SOL    HW1 7482   4.604   1.526   9.866  0.2599  1.6742  0.8177
  975SOL    HW2 7483   4.536   1.544   9.732  0.2407 -1.9632  0.2368
  976SOL     OW 7484   4.513  11.677   5.814 -0.1961 -0.1932  0.1121
  976SOL    HW1 7485   4.476  11.732   5.745 -1.6289 -0.9243  0.2766
  976SOL    HW2 7486   4.566  11.737   5.867  1.5872  0.2356 -2.0345
  977SOL     OW 7487  10.533   1.727   9.432 -0.4521 -0.2468 -0.2650
  977SOL    HW1 7488  10.482   1.710   9.511 -1.2131  1.6684 -0.2945
  977SOL    HW2 7489  10.596   1.655   9.428 -1.7047 -1.4763  0.9749
  978SOL     OW 7490  11.563  11.777   5.241  0.3600 -0.5928 -0.7562
  978SOL    HW1 7491  11.562  11.687   5.272 -1.2883 -0.6857 -1.0325
  978SOL    HW2 7492  11.475  11.810   5.258  0.3706  0.3683 -2.3770
  979SOL     OW 7493   3.147   0.852   8.259  0.4312  0.1121  0.3959
  979SOL    HW1 7494   3.190   0.871   8.343 -0.3575  1.8247  0.4515
  979SOL    HW2 7495   3.127   0.938   8.222 -0.6965 -0.6212 -0.7951
  980SOL     OW 7496   5.839   5.039   2.577 -0.2218  0.6927  0.0554
  980SOL    HW1 7497   5.849   4.993   2.660  2.2553 -1.5672 -1.3443
  980SOL    HW2 7498   5.788   4.979   2.523  0.4403  0.9352 -0.8564
  981SOL     OW 7499   8.639   3.139   0.371  0.3829  0.1814 -0.3451
  981SOL    HW1 7500   8.685   3.223   0.368 -0.0666  0.5220  1.1369
  981SOL    HW2 7501   8.629   3.113   0.280  1.1217  1.4174 -0.7956
  982SOL     OW 7502   7.357   1.026   7.232 -0.1632 -0.3304 -0.3845
  982SOL    HW1 7503   7.449   1.005   7.217  0.1530 -1.0703  2.1247
  982SOL    HW2 7504   7.312   0.942   7.220 -0.0498 -0.6739  1.2686
  983SOL     OW 7505   6.919   0.353   0.376  0.3550  0.8800 -0.5194
  983SOL    HW1 7506   6.845   0.320   0.325  0.3707 -0.1650  0.1131
  983SOL    HW2 7507   6.887   0.435   0.413 -1.1277 -0.3481  1.1123
  984SOL     OW 7508   2.752   3.474   7.834  0.1940  0.7642  0.5935
  984SOL    HW1 7509   2.813   3.451   7.764 -1.0254  0.7611 -0.5087
  984SOL    HW2 7510   2.801   3.459   7.914  1.7796  1.1502 -0.2496
  985SOL     OW 7511   2.412   0.659   3.308  0.3906  0.1866 -0.1856
  985SOL    HW1 7512   2.394   0.608   3.228  1.0598 -0.6641  0.1931
  985SOL    HW2 7513   2.336   0.717   3.316 -0.1502 -0.3887 -0.9148
  986SOL     OW 7514  10.994   2.950   6.138  0.4576  0.2551 -0.0304
  986SOL    HW1 7515  11.029   2.923   6.223  0.8952 -1.7573 -0.7966
  986SOL    HW2 7516  10.961   2.870   6.099 -0.6655  1.3153 -1.3606
  987SOL     OW 7517   9.348  10.358  10.991  0.2117  0.7717 -0.9669
  987SOL    HW1 7518   9.429  10.321  11.026  0.7269  1.2317 -1.6648
  987SOL    HW2 7519   9.330  10.433  11.048  0.3425  0.7528 -0.9007
  988SOL     OW 7520   1.420  12.046   5.951  0.5651 -0.2307 -0.4983
  988SOL    HW1 7521   1.427  12.114   5.885 -1.1514  1.1292  0.5999
  988SOL    HW2 7522   1.463  12.083   6.028 -0.2498 -0.4124  0.0635
  989SOL     OW 7523  11.656   9.741  12.080 -0.2453  0.4814 -0.1604
  989SOL    HW1 7524  11.693   9.676  12.021  0.4902  0.3530  0.4341
  989SOL    HW2 7525  11.725   9.807  12.090 -0.1495  0.2324  0.9686
  990SOL     OW 7526   4.138   4.494   4.252  0.0669 -0.2095 -0.0307
  990SOL    HW1 7527   4.103   4.563   4.196  0.7731 -0.3192 -0.6266
  990SOL    HW2 7528   4.233   4.501   4.242  0.1483 -1.1995 -0.0361
  991SOL     OW 7529   5.494   3.535  11.799  0.2535  0.1359  0.2056
  991SOL    HW1 7530   5.464   3.585  11.875  0.0089 -0.8779  0.8062
  991SOL    HW2 7531   5.531   3.455  11.837  0.4300 -0.2388 -0.7345
  992SOL     OW 7532   2.034   0.938  10.880 -0.5119  0.0095 -0.3738
  992SOL    HW1 7533   2.016   0.884  10.803  1.2909 -0.8420 -0.2600
  992SOL    HW2 7534   2.059   1.023  10.845  1.3429 -0.6856 -0.8244
  993SOL     OW 7535   2.239   4.233   8.149  0.4344  0.4517 -0.0262
  993SOL    HW1 7536   2.177   4.299   8.180 -0.0978  0.4831 -1.1212
  993SOL    HW2 7537   2.321   4.280   8.140  1.0811  0.1069  2.8327
  994SOL     OW 7538  10.427   8.742   8.828 -0.1487 -0.4058  0.1099
  994SOL    HW1 7539  10.522   8.751   8.826 -0.2026  0.1342 -0.0863
  994SOL    HW2 7540  10.394   8.832   8.833 -0.6524 -0.5709 -0.1370
  995SOL     OW 7541   1.136   7.886   6.708  0.8305 -0.4522 -0.2373
  995SOL    HW1 7542   1.135   7.798   6.746 -0.3405 -0.7759 -0.9798
  995SOL    HW2 7543   1.065   7.886   6.645 -1.1762  1.9631  1.8147
  996SOL     OW 7544   3.608   7.339   9.513  0.0439  0.4377 -0.3229
  996SOL    HW1 7545   3.546   7.368   9.447 -1.4572 -0.1337  0.7873
  996SOL    HW2 7546   3.668   7.281   9.466  0.1513  1.4877 -1.5378
  997SOL     OW 7547  11.922   2.405   3.111  0.4918  0.4652  0.1654
  997SOL    HW1 7548  11.943   2.345   3.039  0.4626  0.6011  0.0424
  997SOL    HW2 7549  11.976   2.375   3.184  0.2686  0.1107  0.1902
  998SOL     OW 7550   9.555   9.240   9.473  0.1302 -0.3875 -0.3486
  998SOL    HW1 7551   9.582   9.331   9.458 -1.1926  0.2261  0.7070
  998SOL    HW2 7552   9.568   9.197   9.389  4.2208 -0.2033  0.0134
  999SOL     OW 7553   0.879   1.288   9.370 -0.5184 -0.2417  0.0943
  999SOL    HW1 7554   0.794   1.244   9.375 -0.6242  0.1399  2.5903
  999SOL    HW2 7555   0.940   1.218   9.348 -1.5628 -0.2550 -3.4892
 1000SOL     OW 7556   5.153   3.982  11.380  1.0781 -0.3923 -0.1986
 1000SOL    HW1 7557   5.071   3.967  11.426 -0.0210 -2.1349 -2.5189
 1000SOL    HW2 7558   5.217   4.003  11.448 -0.2733 -3.3521  2.1466
 1001SOL     OW 7559   4.314  10.347  10.304  0.1592  0.1982 -0.0472
 1001SOL    HW1 7560   4.390  10.298  10.272 -0.2392  0.7353 -1.9871
 1001SOL    HW2 7561   4.351  10.418  10.356  0.8547 -0.7449  0.7823
 1002SOL     OW 7562   9.734   7.078   2.529  0.1901  0.2247  0.2529
 1002SOL    HW1 7563   9.655   7.058   2.478  0.6391 -2.5762  0.5051
 1002SOL    HW2 7564   9.727   7.172   2.547 -1.8873  0.5441 -1.6965
 1003SOL     OW 7565  11.570   6.475  10.812  0.4881  0.4367  0.0313
 1003SOL    HW1 7566  11.649   6.434  10.847  0.3298  0.3104  0.2416
 1003SOL    HW2 7567  11.515   6.402  10.784 -0.1296  0.4564  1.1280
 1004SOL     OW 7568  11.070   1.017   8.513 -0.4971 -0.2890  0.4167
 1004SOL    HW1 7569  11.017   1.015   8.434 -0.4835 -0.5934  0.4148
 1004SOL    HW2 7570  11.141   0.954   8.497 -2.3785 -3.0256  1.9771
 1005SOL     OW 7571   7.433   8.438  10.013  0.2018  0.1405 -0.4266
 1005SOL    HW1 7572   7.358   8.453  10.070  1.0172 -0.1615  0.7714
 1005SOL    HW2 7573   7.505   8.417  10.073  1.5954  1.7498 -1.4311
 1006SOL     OW 7574   4.355   3.927   2.106  0.2071 -0.0930 -0.3027
 1006SOL    HW1 7575   4.366   3.846   2.057 -0.0720  0.1310 -0.7339
 1006SOL    HW2 7576   4.303   3.902   2.182  0.3239 -0.3622 -0.3081
 1007SOL     OW 7577  11.104  11.843   7.124 -0.1437 -0.0232  0.1703
 1007SOL    HW1 7578  11.015  11.821   7.151 -0.6159  0.3759 -0.9859
 1007SOL    HW2 7579  11.097  11.934   7.094  0.4097 -0.3449 -0.9641
 1008SOL     OW 7580   0.687   2.910   2.033 -0.3023 -0.2184  0.8676
 1008SOL    HW1 7581   0.772   2.890   1.993 -1.0434 -1.8512 -0.0229
 1008SOL    HW2 7582   0.645   2.971   1.972 -0.3957 -0.6855  0.4543
 1009SOL     OW 7583  10.536   8.872   3.036  0.1780 -0.5474  0.2399
 1009SOL    HW1 7584  10.549   8.777   3.041  1.0683 -0.4878 -0.6057
 1009SOL    HW2 7585  10.621   8.909   3.060 -0.6103  0.1016  2.1614
 1010SOL     OW 7586   9.038   4.608   5.100 -0.5759  0.2427  1.0276
 1010SOL    HW1 7587   9.077   4.657   5.026  1.3968  0.5405  2.1777
 1010SOL    HW2 7588   9.042   4.669   5.173 -0.7862 -0.6725  1.8186
 1011SOL     OW 7589   3.968   8.470   5.363  0.0260 -0.1299  0.0183
 1011SOL    HW1 7590   4.036   8.440   5.424  1.3188  0.7644 -0.9489
 1011SOL    HW2 7591   3.953   8.561   5.387  0.8658  0.3661 -1.2393
 1012SOL     OW 7592   0.567   3.356   0.820 -0.3723  0.1095  0.0928
 1012SOL    HW1 7593   0.553   3.426   0.756 -0.7900  0.6813  0.7868
 1012SOL    HW2 7594   0.485   3.308   0.822 -0.6286  0.5599  0.7391
 1013SOL     OW 7595   9.792   6.015   3.748 -0.0936 -0.5097 -0.3067
 1013SOL    HW1 7596   9.835   5.981   3.669  0.7652  0.9642 -0.5187
 1013SOL    HW2 7597   9.793   6.110   3.737 -1.8919 -0.3506  0.5164
 1014SOL     OW 7598   0.957   0.858   9.824 -0.4122  0.3056  0.0709
 1014SOL    HW1 7599   0.952   0.774   9.779 -2.4830  0.7850 -0.7013
 1014SOL    HW2 7600   0.907   0.918   9.769  1.2043  2.1374  0.4796
 1015SOL     OW 7601   2.311   0.165   0.154 -0.2223  0.5858  0.0320
 1015SOL    HW1 7602   2.308   0.204   0.242 -0.3786  0.2265  0.1887
 1015SOL    HW2 7603   2.404   0.147   0.139  0.1482  3.0120 -0.9392
 1016SOL     OW 7604   9.061   1.493   4.675 -0.9267 -0.3284 -0.0969
 1016SOL    HW1 7605   9.026   1.553   4.741  0.4385 -0.0034  0.3666
 1016SOL    HW2 7606   9.119   1.547   4.622 -0.4555 -1.0258 -0.3014
 1017SOL     OW 7607   8.764   0.125   7.674 -0.4486 -0.0895  0.0693
 1017SOL    HW1 7608   8.774   0.071   7.752  0.8408 -0.2870 -0.2133
 1017SOL    HW2 7609   8.742   0.212   7.707 -0.4164 -0.2903  0.6264
 1018SOL     OW 7610  11.473   8.679   7.642 -0.8216  0.4159 -0.0502
 1018SOL    HW1 7611  11.423   8.757   7.616 -0.9513  0.5279  0.5217
 1018SOL    HW2 7612  11.494   8.694   7.734  1.0946  0.8083 -0.5119
 1019SOL     OW 7613   9.592  10.688   5.762  0.2487 -0.1230  0.2176
 1019SOL    HW1 7614   9.565  10.681   5.670 -0.5302  1.7019  0.2653
 1019SOL    HW2 7615   9.592  10.597   5.793  1.4557 -0.8963 -1.7977
 1020SOL     OW 7616  10.236   7.819   6.925 -0.3639  0.4577 -0.1908
 1020SOL    HW1 7617  10.320   7.785   6.958 -1.6549 -1.7481  1.1309
 1020SOL    HW2 7618  10.236   7.796   6.832  0.4509  0.3905 -0.1861
 1021SOL     OW 7619   6.994   3.266   4.589 -0.0110  0.0516 -0.2195
 1021SOL    HW1 7620   7.000   3.334   4.656 -3.2936  0.4726 -0.1696
 1021SOL    HW2 7621   7.039   3.190   4.627  2.2747  1.6208  0.4068
 1022SOL     OW 7622   8.082  10.145  10.048  0.1674 -0.2348 -0.0252
 1022SOL    HW1 7623   8.155  10.185  10.001  0.5290 -0.9791 -0.1100
 1022SOL    HW2 7624   8.062  10.066   9.998  0.8542 -1.2903  1.3047
 1023SOL     OW 7625   5.754   2.908   6.494  0.0843  0.1370  0.1839
 1023SOL    HW1 7626   5.702   2.957   6.557 -2.9474  1.1240 -2.7850
 1023SOL    HW2 7627   5.837   2.955   6.488 -0.3939  1.2423  1.8019
 1024SOL     OW 7628  10.181   4.196   3.700  0.4030 -1.0361  0.0408
 1024SOL    HW1 7629  10.255   4.250   3.727 -0.8900  1.0949 -0.4115
 1024SOL    HW2 7630  10.208   4.158   3.616  0.8138  0.1508 -0.3797
 1025SOL     OW 7631  11.226   4.559  10.935  0.1706  0.5541  0.5509
 1025SOL    HW1 7632  11.256   4.599  11.016  2.4064  0.8268 -0.3292
 1025SOL    HW2 7633  11.168   4.624  10.895  3.0450  2.7296 -0.4394
 1026SOL     OW 7634   1.783  11.618   9.172  0.0581  0.3883 -0.2338
 1026SOL    HW1 7635   1.710  11.599   9.230  0.6022 -0.2046  0.2732
 1026SOL    HW2 7636   1.746  11.673   9.103 -1.0773 -0.7081 -0.5252
 1027SOL     OW 7637   1.003  11.763   5.977 -0.3141 -0.2662 -0.1859
 1027SOL    HW1 7638   1.095  11.788   5.987 -0.9468  1.2398  2.6538
 1027SOL    HW2 7639   0.984  11.781   5.885  1.3712  2.5710 -0.0869
 1028SOL     OW 7640   7.573   4.362   4.668 -0.0182 -0.2121 -0.2223
 1028SOL    HW1 7641   7.532   4.367   4.754 -0.8255  1.1621 -0.6509
 1028SOL    HW2 7642   7.630   4.438   4.664 -0.6590  0.2458 -1.2080
 1029SOL     OW 7643   3.126  10.229   9.383  0.2874 -0.3431  0.4003
 1029SOL    HW1 7644   3.066  10.220   9.457 -1.5685 -0.8199 -1.0728
 1029SOL    HW2 7645   3.087  10.174   9.314  1.6004  0.5601 -1.1321
 1030SOL     OW 7646  10.074   2.172   8.591 -0.1835 -0.5753 -0.5066
 1030SOL    HW1 7647  10.094   2.185   8.499 -1.5076  0.1199 -0.7331
 1030SOL    HW2 7648  10.037   2.083   8.596  1.3085 -1.2140 -0.3594
 1031SOL     OW 7649   2.593   0.147   7.202 -1.1998  0.4216  0.1140
 1031SOL    HW1 7650   2.506   0.131   7.238  0.0673 -0.1702  3.2239
 1031SOL    HW2 7651   2.653   0.105   7.264  1.3766  1.8923 -1.1984
 1032SOL     OW 7652   3.466   8.820   4.800  0.3090  0.2311 -0.3822
 1032SOL    HW1 7653   3.469   8.857   4.888  0.3459  1.0507 -0.7165
 1032SOL    HW2 7654   3.407   8.879   4.751  1.5238  0.7161 -1.3154
 1033SOL     OW 7655   3.361   7.372   5.070  0.2794 -0.0915  0.2249
 1033SOL    HW1 7656   3.296   7.329   5.014  0.9014 -0.7283 -0.0277
 1033SOL    HW2 7657   3.378   7.309   5.140  0.1978  0.3114  0.6096
 1034SOL     OW 7658   4.795   1.173  11.203 -0.8636 -0.1585 -0.2398
 1034SOL    HW1 7659   4.731   1.134  11.144  0.1541 -0.8582 -0.9011
 1034SOL    HW2 7660   4.782   1.267  11.192  0.7571 -0.1563 -3.3221
 1035SOL     OW 7661  10.590  10.363   4.165 -0.0720  0.6545  0.4657
 1035SOL    HW1 7662  10.534  10.384   4.239 -0.5846  0.8406  0.0300
 1035SOL    HW2 7663  10.566  10.273   4.142  0.6446  0.3125  1.0155
 1036SOL     OW 7664   4.800   9.230  11.845  0.1229 -0.1339 -0.5080
 1036SOL    HW1 7665   4.859   9.228  11.770 -0.9649  1.5727 -1.4425
 1036SOL    HW2 7666   4.714   9.209  11.809 -0.4472  0.9213  0.2116
 1037SOL     OW 7667   0.492  11.153  10.540 -0.1655  1.0198 -0.0971
 1037SOL    HW1 7668   0.434  11.228  10.549 -0.2813  1.3627 -2.7964
 1037SOL    HW2 7669   0.533  11.165  10.455  1.7680 -0.6822  0.5205
 1038SOL     OW 7670   2.746  10.891   4.694 -0.6566 -0.0671  0.4541
 1038SOL    HW1 7671   2.692  10.848   4.628 -2.2815  3.0244 -0.4411
 1038SOL    HW2 7672   2.683  10.933   4.753  0.7887  0.8437  1.4272
 1039SOL     OW 7673   9.549   6.790   7.727  0.0569 -0.2744 -0.3573
 1039SOL    HW1 7674   9.466   6.790   7.679  0.8500 -1.1346 -1.7668
 1039SOL    HW2 7675   9.575   6.698   7.730  0.5322 -0.1234  0.8859
 1040SOL     OW 7676   2.970   2.047   6.563  0.3715  0.1247  0.2329
 1040SOL    HW1 7677   3.002   2.084   6.481  2.1584 -1.0891  0.3244
 1040SOL    HW2 7678   3.048   2.011   6.605 -0.9530 -2.0628  0.9908
 1041SOL     OW 7679  10.396   7.658   7.854 -0.4953  0.3221  0.4532
 1041SOL    HW1 7680  10.360   7.683   7.769 -1.6660  0.1487  0.8842
 1041SOL    HW2 7681  10.406   7.740   7.901  1.6863  0.6088 -0.3927
 1042SOL     OW 7682   1.614  11.880   4.118  0.4041 -0.0951  0.2950
 1042SOL    HW1 7683   1.618  11.792   4.155 -1.8804 -1.0249 -1.3892
 1042SOL    HW2 7684   1.559  11.930   4.180 -0.0487 -0.4768  0.2074
 1043SOL     OW 7685   9.377   0.445   7.579 -0.6964  0.4842 -0.0109
 1043SOL    HW1 7686   9.460   0.397   7.586 -0.1767  1.0826 -1.6750
 1043SOL    HW2 7687   9.340   0.417   7.496 -2.2932  0.0804  0.8095
 1044SOL     OW 7688   1.783   6.340  10.698 -0.2323  0.0786 -0.3298
 1044SOL    HW1 7689   1.876   6.356  10.681  0.4260 -0.6482  2.2180
 1044SOL    HW2 7690   1.750   6.422  10.734 -0.2392 -0.0561 -0.0222
 1045SOL     OW 7691   9.994   9.109   5.335  0.1837 -0.1695 -0.5089
 1045SOL    HW1 7692  10.001   9.090   5.242 -0.8214 -1.1732 -0.3968
 1045SOL    HW2 7693  10.069   9.063   5.374  1.7823  1.8880 -1.0044
 1046SOL     OW 7694   7.766   8.135   8.141  0.0908  0.1218 -0.1243
 1046SOL    HW1 7695   7.712   8.199   8.187  1.5507  0.4271  1.2416
 1046SOL    HW2 7696   7.706   8.093   8.080 -2.0841 -0.6342  2.3559
 1047SOL     OW 7697   4.841   1.127   4.121 -0.1503  0.0545 -0.2029
 1047SOL    HW1 7698   4.808   1.082   4.198 -0.5834 -0.7098 -0.8230
 1047SOL    HW2 7699   4.936   1.127   4.131 -0.2485  1.7074  1.2843
 1048SOL     OW 7700  10.546   8.744   8.439  0.2658 -0.5551 -0.1179
 1048SOL    HW1 7701  10.563   8.670   8.498 -0.5933 -0.1936  0.6030
 1048SOL    HW2 7702  10.537   8.704   8.353 -0.4902 -1.3446  0.3106
 1049SOL     OW 7703  10.248   3.308   9.656 -0.6006 -0.6730  0.0370
 1049SOL    HW1 7704  10.163   3.266   9.643 -0.8859  0.2038 -1.0371
 1049SOL    HW2 7705  10.277   3.331   9.567 -0.4227  1.3255  0.5805
 1050SOL     OW 7706   0.759   8.820   8.588 -0.1574 -0.3976  0.1637
 1050SOL    HW1 7707   0.730   8.911   8.587 -1.7340 -0.8451 -1.9605
 1050SOL    HW2 7708   0.678   8.769   8.599  0.6750 -1.5705  1.1435
 1051SOL     OW 7709   9.759   3.159   3.367  0.6025  0.1910  0.0222
 1051SOL    HW1 7710   9.793   3.084   3.417 -1.6272 -1.1725 -0.3656
 1051SOL    HW2 7711   9.834   3.218   3.360  1.6423 -0.5638  2.9900
 1052SOL     OW 7712   5.519   7.814   7.674 -0.0847 -0.4303  0.2792
 1052SOL    HW1 7713   5.486   7.896   7.711 -0.0675  0.2309 -1.0769
 1052SOL    HW2 7714   5.612   7.813   7.697 -0.1363 -0.1753  0.5041
 1053SOL     OW 7715  10.522   4.298   3.581  0.1065 -0.0283 -0.0073
 1053SOL    HW1 7716  10.473   4.309   3.662 -0.0523  0.0996 -0.1193
 1053SOL    HW2 7717  10.469   4.342   3.515 -0.7646 -1.8083 -0.5613
 1054SOL     OW 7718   9.126   3.658  10.635 -0.6116  0.1157  0.1453
 1054SOL    HW1 7719   9.133   3.640  10.728  0.3229  2.3888  0.5967
 1054SOL    HW2 7720   9.068   3.734  10.630  0.2595  0.7518 -0.9819
 1055SOL     OW 7721  11.796   0.471  10.706  0.0686 -0.3303  0.0220
 1055SOL    HW1 7722  11.724   0.432  10.757 -1.7836  1.1837 -1.2738
 1055SOL    HW2 7723  11.838   0.532  10.768 -2.3637  1.7393 -0.1817
 1056SOL     OW 7724   0.471   9.725   0.419 -0.4024 -0.3406 -0.4615
 1056SOL    HW1 7725   0.477   9.669   0.497  0.3583 -0.5711 -0.6733
 1056SOL    HW2 7726   0.394   9.778   0.433 -1.2391 -1.5507 -0.3134
 1057SOL     OW 7727   9.617  10.578  10.692 -0.1872  0.3711 -0.1050
 1057SOL    HW1 7728   9.551  10.509  10.699  1.5838 -1.3593  1.0192
 1057SOL    HW2 7729   9.576  10.656  10.728 -1.2825 -0.9083  1.5282
 1058SOL     OW 7730  10.166   6.512  10.599 -0.4444  0.1839  0.1652
 1058SOL    HW1 7731  10.251   6.547  10.624 -0.6036  0.6398  0.0706
 1058SOL    HW2 7732  10.186   6.431  10.552 -0.0878  0.0292  0.5742
 1059SOL     OW 7733   8.086   5.838   7.625  0.0374  0.1175 -0.1766
 1059SOL    HW1 7734   8.010   5.806   7.575 -0.6321  0.6988  0.4470
 1059SOL    HW2 7735   8.136   5.760   7.645 -1.2449 -0.5049  0.7782
 1060SOL     OW 7736   6.231   8.240   3.831  0.5214 -0.1029 -0.6199
 1060SOL    HW1 7737   6.310   8.190   3.813  0.9499  0.4344 -0.2839
 1060SOL    HW2 7738   6.163   8.198   3.780  1.3778  0.4531 -2.2818
 1061SOL     OW 7739   7.450   1.259   3.671  0.0450  0.2244  0.1799
 1061SOL    HW1 7740   7.378   1.310   3.710  0.2596 -0.2601  1.2349
 1061SOL    HW2 7741   7.527   1.314   3.683  0.2671 -0.3037  1.2682
 1062SOL     OW 7742   3.144   7.266   6.532 -0.1832 -0.5720 -0.1398
 1062SOL    HW1 7743   3.107   7.348   6.499  2.9184  0.0221 -2.6416
 1062SOL    HW2 7744   3.221   7.293   6.582  0.2749 -1.9196 -0.0687
 1063SOL     OW 7745  10.628   0.664   6.997 -0.2232 -0.1055 -0.2751
 1063SOL    HW1 7746  10.592   0.720   7.066 -1.2829 -0.5802 -0.4323
 1063SOL    HW2 7747  10.678   0.598   7.045 -0.7052 -0.2552  0.0292
 1064SOL     OW 7748   4.130   7.396   6.552  0.0031 -0.0925 -0.3401
 1064SOL    HW1 7749   4.211   7.371   6.596  0.6274  2.6910  0.2997
 1064SOL    HW2 7750   4.152   7.478   6.507 -2.9152  1.8570  1.4909
 1065SOL     OW 7751   6.432   7.542   7.039 -0.5155  0.9036  0.2543
 1065SOL    HW1 7752   6.427   7.465   6.982 -2.3422  0.2300  1.2254
 1065SOL    HW2 7753   6.509   7.525   7.094 -1.3793 -0.7335  1.0566
 1066SOL     OW 7754   5.721   4.427   6.186  0.2782  0.0238  0.0587
 1066SOL    HW1 7755   5.718   4.397   6.095  1.0440  1.4107 -0.4628
 1066SOL    HW2 7756   5.813   4.445   6.202  0.2957 -1.1464  1.4684
 1067SOL     OW 7757   6.168   1.178   0.819 -0.3335  0.0252 -0.4609
 1067SOL    HW1 7758   6.104   1.135   0.875 -3.3884  0.5079 -3.2340
 1067SOL    HW2 7759   6.184   1.263   0.861 -0.9991 -0.3903  0.6665
 1068SOL     OW 7760  10.974   9.765  11.159 -0.2675  0.1806 -0.0274
 1068SOL    HW1 7761  11.045   9.828  11.150 -1.5488  1.4465 -2.0204
 1068SOL    HW2 7762  11.004   9.705  11.227  1.8861  1.7318  0.4993
 1069SOL     OW 7763   9.338   1.914  11.757 -0.2675 -0.2136 -0.5795
 1069SOL    HW1 7764   9.301   1.868  11.833  0.0649  0.8678  0.2659
 1069SOL    HW2 7765   9.432   1.897  11.762  0.2479  2.4696  1.2044
 1070SOL     OW 7766   3.471   1.833  11.770 -0.3733 -0.6341  0.3145
 1070SOL    HW1 7767   3.412   1.758  11.781 -1.4963  0.0963 -0.4291
 1070SOL    HW2 7768   3.414   1.909  11.778 -0.1626  0.0788 -3.2829
 1071SOL     OW 7769   1.831   0.468   8.557  0.1050 -0.5095  0.2032
 1071SOL    HW1 7770   1.757   0.528   8.546  0.7444  0.1729 -0.5210
 1071SOL    HW2 7771   1.908   0.525   8.557  0.6097 -1.1559  1.5371
 1072SOL     OW 7772   2.499   1.317   9.230 -0.2909 -0.6631  0.3575
 1072SOL    HW1 7773   2.440   1.379   9.272  1.5417 -0.3189  2.6314
 1072SOL    HW2 7774   2.523   1.359   9.147 -1.1753  0.3800  0.6077
 1073SOL     OW 7775  11.263   5.375   0.555 -0.2504  0.2033  0.1672
 1073SOL    HW1 7776  11.307   5.290   0.558 -1.3303 -0.4521 -1.3772
 1073SOL    HW2 7777  11.291   5.419   0.636 -0.1146 -1.8246  1.3042
 1074SOL     OW 7778  10.867   0.478   0.881 -1.1170  0.3188  0.2297
 1074SOL    HW1 7779  10.950   0.510   0.845 -0.0056 -1.7844  0.7391
 1074SOL    HW2 7780  10.804   0.489   0.809  0.9322 -3.3857 -2.5403
 1075SOL     OW 7781   7.206   2.770   7.095 -0.4746  0.6735  0.4195
 1075SOL    HW1 7782   7.275   2.738   7.152 -0.7602  0.9901  0.9586
 1075SOL    HW2 7783   7.250   2.796   7.014  0.0441  0.9442  0.7863
 1076SOL     OW 7784  11.715  10.191   3.793  0.2936  0.5166  0.1292
 1076SOL    HW1 7785  11.675  10.265   3.840  0.3053  0.8411 -0.3618
 1076SOL    HW2 7786  11.642  10.150   3.748  0.4251  0.7594 -0.3044
 1077SOL     OW 7787   2.106   8.346   2.020 -0.2376  0.0604  0.0446
 1077SOL    HW1 7788   2.189   8.341   1.973  0.6667  2.1951  1.2770
 1077SOL    HW2 7789   2.116   8.283   2.091 -0.1413 -0.5012 -0.4538
 1078SOL     OW 7790   9.581   1.947   1.780  0.5325 -0.1647 -0.0733
 1078SOL    HW1 7791   9.498   1.911   1.811  0.7288  0.3730  1.1184
 1078SOL    HW2 7792   9.643   1.874   1.789  0.7117  0.1386  1.3913
 1079SOL     OW 7793   2.701   9.380   3.041 -0.3715  0.6875  0.1335
 1079SOL    HW1 7794   2.646   9.449   3.077 -0.8049  0.4800 -0.1091
 1079SOL    HW2 7795   2.638   9.314   3.010 -0.0139  0.8183 -0.9009
 1080SOL     OW 7796   8.378   8.274   5.692 -0.1613 -0.1824  0.1756
 1080SOL    HW1 7797   8.304   8.314   5.738 -0.4981  1.7682 -1.8641
 1080SOL    HW2 7798   8.355   8.281   5.599  2.2855 -0.0800 -0.5029
 1081SOL     OW 7799   7.955   0.296  12.034 -0.0691 -0.2560 -0.2954
 1081SOL    HW1 7800   8.029   0.347  12.001  0.2643 -0.6027 -0.0917
 1081SOL    HW2 7801   7.972   0.288  12.128 -0.3586 -0.3447 -0.2517
 1082SOL     OW 7802   8.679   4.577   4.586 -0.7682  0.6187  0.3006
 1082SOL    HW1 7803   8.706   4.494   4.546 -0.2236  0.5314  0.8417
 1082SOL    HW2 7804   8.613   4.612   4.526 -0.9361 -0.1603  0.0182
 1083SOL     OW 7805  10.027   9.143   9.685  0.1913 -0.1181 -0.7396
 1083SOL    HW1 7806  10.094   9.153   9.753  0.7603  0.9111 -1.4138
 1083SOL    HW2 7807  10.025   9.050   9.666  2.2306 -0.0576 -1.4662
 1084SOL     OW 7808   1.845  11.034   0.118  0.3221  0.2422  0.2142
 1084SOL    HW1 7809   1.813  10.947   0.139  1.4734  0.5513  4.0702
 1084SOL    HW2 7810   1.934  11.021   0.086  0.4770 -0.0361  0.7480
 1085SOL     OW 7811   8.083   5.176   9.206  0.7072  0.3295  0.0995
 1085SOL    HW1 7812   8.031   5.126   9.270 -1.0027 -0.4519 -1.7913
 1085SOL    HW2 7813   8.018   5.229   9.158  2.1003  1.9359 -0.1221
 1086SOL     OW 7814   5.993   3.114  11.962 -0.1532  0.0196  0.0490
 1086SOL    HW1 7815   5.948   3.193  11.931 -0.4850  0.5520  1.7837
 1086SOL    HW2 7816   6.028   3.074  11.882 -1.5847  0.9052 -1.0827
 1087SOL     OW 7817   9.546  10.918   5.414 -0.5839  0.3674 -0.7072
 1087SOL    HW1 7818   9.474  10.881   5.464  0.1783 -0.6800 -0.3654
 1087SOL    HW2 7819   9.525  10.897   5.323 -0.0724 -1.1110 -0.5081
 1088SOL     OW 7820   5.460   4.198  11.385 -0.1382  0.2979 -0.1713
 1088SOL    HW1 7821   5.399   4.147  11.438 -0.7774 -0.4474 -1.5499
 1088SOL    HW2 7822   5.506   4.133  11.332  0.1788  1.0259 -0.8166
 1089SOL     OW 7823   1.849   3.078   0.312  0.3157 -0.0337 -0.3539
 1089SOL    HW1 7824   1.920   3.028   0.351  0.6899 -0.1764 -1.1932
 1089SOL    HW2 7825   1.770   3.029   0.333  0.4717  0.0527  0.4669
 1090SOL     OW 7826   6.569   7.238   1.114  0.3896 -0.8932 -0.2220
 1090SOL    HW1 7827   6.592   7.201   1.029 -1.8239  1.9653 -2.2922
 1090SOL    HW2 7828   6.523   7.168   1.160  0.4018 -2.1137 -1.9905
 1091SOL     OW 7829   2.172   2.227   2.178  0.4942  0.3067 -0.6067
 1091SOL    HW1 7830   2.260   2.191   2.173  0.0313 -0.7583 -1.4344
 1091SOL    HW2 7831   2.151   2.252   2.089  1.2165  3.7854  0.0731
 1092SOL     OW 7832   5.307   5.314   5.300 -0.4460 -0.3206  0.3723
 1092SOL    HW1 7833   5.368   5.348   5.365  1.0278 -1.0666 -0.5752
 1092SOL    HW2 7834   5.221   5.345   5.330  0.0141 -1.4169  3.1827
 1093SOL     OW 7835   5.617   1.714  11.643  0.1111 -1.0735 -0.0749
 1093SOL    HW1 7836   5.661   1.696  11.560  0.2320  0.0166 -0.2619
 1093SOL    HW2 7837   5.543   1.654  11.645  1.0753 -2.3011 -0.1806
 1094SOL     OW 7838   2.189   2.060   4.103 -0.3647  0.2599 -0.3569
 1094SOL    HW1 7839   2.206   1.978   4.057  0.6271 -0.0114  0.4767
 1094SOL    HW2 7840   2.175   2.124   4.033  0.5075 -0.2715 -1.0327
 1095SOL     OW 7841   9.406  10.902   6.764 -0.3711 -0.5616  0.1569
 1095SOL    HW1 7842   9.324  10.952   6.762 -0.0286 -0.0165 -0.5768
 1095SOL    HW2 7843   9.387  10.823   6.713 -0.6614 -0.8090  0.6328
 1096SOL     OW 7844   8.607   3.810   0.896 -0.2562  0.0255  0.1087
 1096SOL    HW1 7845   8.569   3.755   0.828 -1.0622 -1.2398  1.5244
 1096SOL    HW2 7846   8.543   3.880   0.909 -1.1388 -0.9189  1.0114
 1097SOL     OW 7847   4.259   4.906   7.212  0.2939  0.3064  0.0694
 1097SOL    HW1 7848   4.333   4.849   7.230  1.4249  1.7426  0.1159
 1097SOL    HW2 7849   4.199   4.893   7.286  0.8406 -0.3219  0.4017
 1098SOL     OW 7850   2.299  11.097   5.459  0.1130  0.1079 -0.1096
 1098SOL    HW1 7851   2.337  11.125   5.376 -0.3954  1.7845  0.1663
 1098SOL    HW2 7852   2.342  11.152   5.525 -0.0708 -0.6229  0.6382
 1099SOL     OW 7853   7.644  10.470   8.802  0.1971  0.1557 -0.6581
 1099SOL    HW1 7854   7.613  10.472   8.711  0.1547 -0.9949 -0.6844
 1099SOL    HW2 7855   7.731  10.432   8.797  0.4179  0.5988 -0.2651
 1100SOL     OW 7856  11.387   7.472   0.778  0.4578 -0.7602  0.0074
 1100SOL    HW1 7857  11.294   7.489   0.794  0.6227  0.9993 -0.6757
 1100SOL    HW2 7858  11.389   7.383   0.742 -1.0388 -0.5615 -0.6562
 1101SOL     OW 7859   3.056  11.279   2.339  0.3352 -0.1917 -0.0036
 1101SOL    HW1 7860   2.981  11.338   2.326 -0.6307 -1.3439  0.1438
 1101SOL    HW2 7861   3.133  11.336   2.330 -0.5544  1.1222  0.3203
 1102SOL     OW 7862   1.340  11.535   2.875  0.5494  0.0752 -0.2740
 1102SOL    HW1 7863   1.305  11.457   2.833  0.1662  0.2590 -0.3013
 1102SOL    HW2 7864   1.310  11.528   2.966  1.5136 -0.4036  0.0140
 1103SOL     OW 7865  10.002   3.802   8.916  0.0496  0.0788  0.3925
 1103SOL    HW1 7866   9.913   3.777   8.892  0.5903 -0.8050 -0.7793
 1103SOL    HW2 7867  10.022   3.877   8.860 -0.0941  0.5490  0.9586
 1104SOL     OW 7868   7.845  10.449   0.614  0.1656 -0.5560  0.4210
 1104SOL    HW1 7869   7.859  10.472   0.522  0.9561 -1.2435  0.3568
 1104SOL    HW2 7870   7.929  10.411   0.642  0.8981  2.1442  2.2128
 1105SOL     OW 7871   6.322   0.644   5.704 -0.0854  0.1815 -0.8961
 1105SOL    HW1 7872   6.331   0.603   5.617  1.0099 -0.6825 -0.3948
 1105SOL    HW2 7873   6.251   0.595   5.746  1.3096 -1.3810 -0.2477
 1106SOL     OW 7874  10.969   1.181   0.041 -0.5082  0.3933  0.5236
 1106SOL    HW1 7875  10.918   1.163  -0.038  0.9148  0.9110 -0.5470
 1106SOL    HW2 7876  10.924   1.256   0.082 -0.7786  0.6586 -0.2449
 1107SOL     OW 7877   3.226   4.340   9.593  1.3152  0.3775  0.5075
 1107SOL    HW1 7878   3.207   4.397   9.518  1.2727 -0.3037 -0.0055
 1107SOL    HW2 7879   3.177   4.260   9.575  1.1055  0.2973  1.3895
 1108SOL     OW 7880  10.859   2.595   8.954 -0.3227  0.4693 -0.4293
 1108SOL    HW1 7881  10.944   2.611   8.995 -0.5219  0.7099 -0.1003
 1108SOL    HW2 7882  10.877   2.533   8.884 -0.4706 -2.5241  2.0002
 1109SOL     OW 7883   8.017   0.643  11.155 -0.2228 -0.5247  0.2568
 1109SOL    HW1 7884   7.927   0.631  11.126 -0.2234  0.9912 -0.4664
 1109SOL    HW2 7885   8.018   0.731  11.193  0.6554 -1.0420  1.5057
 1110SOL     OW 7886   7.612   9.496   7.688 -0.0644 -0.2847  0.2395
 1110SOL    HW1 7887   7.705   9.484   7.670 -0.2911 -1.8149 -0.0450
 1110SOL    HW2 7888   7.609   9.538   7.774  0.8815 -2.0413  1.1853
 1111SOL     OW 7889  11.679   6.660  11.608 -0.0377 -0.4916 -0.2709
 1111SOL    HW1 7890  11.593   6.702  11.612  0.0507 -0.1903 -1.4160
 1111SOL    HW2 7891  11.741   6.732  11.621  0.0623 -0.6556  0.1939
 1112SOL     OW 7892   8.432   2.816   8.592 -0.2680  0.4483  0.4679
 1112SOL    HW1 7893   8.456   2.907   8.604  0.2528  0.4772 -0.6667
 1112SOL    HW2 7894   8.365   2.817   8.523  1.0726 -0.1596 -0.8889
 1113SOL     OW 7895   4.073  10.434   5.804 -0.5703  0.0241  0.1793
 1113SOL    HW1 7896   4.145  10.448   5.866  0.5634  3.1481 -1.6109
 1113SOL    HW2 7897   3.994  10.446   5.856  0.1754 -1.5399  1.7907
 1114SOL     OW 7898   7.352   1.225   5.351 -0.3690  0.2385  0.1880
 1114SOL    HW1 7899   7.361   1.132   5.369 -1.0499  0.4813  2.1126
 1114SOL    HW2 7900   7.440   1.255   5.328  0.5234 -0.3620  2.5057
 1115SOL     OW 7901   4.418  11.594  10.976 -0.0548 -0.5877  0.2045
 1115SOL    HW1 7902   4.337  11.561  11.015 -1.0372  0.4040 -0.9071
 1115SOL    HW2 7903   4.472  11.621  11.050 -1.6555  0.7909  0.9372
 1116SOL     OW 7904   3.605   1.854   3.847  0.2704 -0.4568  0.1027
 1116SOL    HW1 7905   3.538   1.888   3.788  0.4975 -0.1698  0.0080
 1116SOL    HW2 7906   3.627   1.768   3.812  0.3032 -0.3464 -0.1481
 1117SOL     OW 7907   4.562   7.080   7.717  0.0837 -0.5469 -0.7138
 1117SOL    HW1 7908   4.561   7.004   7.658 -2.3782 -0.1322 -1.3406
 1117SOL    HW2 7909   4.481   7.127   7.696  0.2175  0.8231  1.5101
 1118SOL     OW 7910   5.356   4.013   8.856  0.1014  0.3938 -0.6533
 1118SOL    HW1 7911   5.305   4.062   8.792 -0.2612 -1.6413 -2.0311
 1118SOL    HW2 7912   5.290   3.974   8.914  0.2822  0.3158 -0.4990
 1119SOL     OW 7913   9.646   8.897   7.706 -0.0204  0.4108 -0.2420
 1119SOL    HW1 7914   9.601   8.870   7.625 -0.2269 -2.0758  0.6180
 1119SOL    HW2 7915   9.713   8.830   7.719  0.4373  1.1361  1.3122
 1120SOL     OW 7916   1.221   0.173   9.245 -0.2020 -0.4618  0.3846
 1120SOL    HW1 7917   1.138   0.129   9.228  0.0039 -0.2714 -1.3044
 1120SOL    HW2 7918   1.202   0.266   9.232  0.3927 -0.4669 -0.6542
 1121SOL     OW 7919   3.104  10.922   3.710 -0.1428  0.5780 -0.2463
 1121SOL    HW1 7920   3.130  10.848   3.765 -0.2903 -0.8878 -2.0462
 1121SOL    HW2 7921   3.009  10.920   3.711 -0.1476  0.3073 -0.8243
 1122SOL     OW 7922   8.256   1.480  11.807 -0.2867  0.0615  0.3013
 1122SOL    HW1 7923   8.264   1.509  11.898 -1.9758  1.2142  0.1215
 1122SOL    HW2 7924   8.205   1.549  11.764 -0.4803 -1.0023 -1.2598
 1123SOL     OW 7925   8.497   1.804   2.194  0.2745  0.4729 -0.4006
 1123SOL    HW1 7926   8.412   1.792   2.153 -0.7549 -1.1747  1.9381
 1123SOL    HW2 7927   8.491   1.888   2.239 -0.0949  0.3827 -0.2844
 1124SOL     OW 7928   0.596   5.139   1.723 -0.1284  0.0065 -0.4802
 1124SOL    HW1 7929   0.525   5.075   1.718  0.9785 -1.3841  0.6753
 1124SOL    HW2 7930   0.619   5.141   1.816  2.4082 -0.8464 -1.0001
 1125SOL     OW 7931   3.492   3.500   5.082 -0.5500  0.7201  0.3541
 1125SOL    HW1 7932   3.575   3.456   5.101 -0.6233  0.4796  0.1315
 1125SOL    HW2 7933   3.428   3.453   5.136 -0.1056  2.8341  2.9109
 1126SOL     OW 7934   9.050  11.072   3.921  0.6657 -0.1738  0.0589
 1126SOL    HW1 7935   9.058  11.096   3.829 -0.7597 -0.9152 -0.2699
 1126SOL    HW2 7936   9.092  11.145   3.968 -0.8513  1.5171 -1.0626
 1127SOL     OW 7937  12.111   9.429   4.005  0.5681 -0.0860  0.1680
 1127SOL    HW1 7938  12.020   9.452   4.020  0.9965  2.8982 -1.0483
 1127SOL    HW2 7939  12.124   9.444   3.911  2.3898 -0.1186  0.3776
 1128SOL     OW 7940   4.767   3.328   9.955  0.1949  0.3697  0.2672
 1128SOL    HW1 7941   4.815   3.385   9.896 -0.0154 -0.5669 -0.8566
 1128SOL    HW2 7942   4.834   3.274   9.997  0.2195 -0.5067 -0.8343
 1129SOL     OW 7943   7.167   5.510   6.535 -0.2240 -0.0164 -0.8583
 1129SOL    HW1 7944   7.219   5.430   6.536  1.2734  0.8631 -2.2737
 1129SOL    HW2 7945   7.214   5.571   6.592  1.3381  1.3123 -3.3863
 1130SOL     OW 7946   5.595   8.498   2.801 -0.1871 -0.0510 -0.0221
 1130SOL    HW1 7947   5.525   8.563   2.798  2.0364  2.4935  0.2028
 1130SOL    HW2 7948   5.614   8.488   2.894 -0.9711 -1.6478  0.0058
 1131SOL     OW 7949   9.105   1.288  12.042 -0.0694 -0.2853 -0.0554
 1131SOL    HW1 7950   9.132   1.360  11.984  1.7681  0.0818  1.1809
 1131SOL    HW2 7951   9.010   1.286  12.035  0.0040  0.7853 -1.8506
 1132SOL     OW 7952  11.796   0.702   1.135  0.2769 -0.4789  0.5432
 1132SOL    HW1 7953  11.739   0.625   1.139 -1.0161  0.5330  2.8799
 1132SOL    HW2 7954  11.813   0.725   1.226  3.2618  0.1730 -0.0639
 1133SOL     OW 7955   5.278   0.533   2.470  0.3281 -0.5319 -0.1193
 1133SOL    HW1 7956   5.356   0.588   2.464  0.1307 -0.4053 -2.4026
 1133SOL    HW2 7957   5.297   0.457   2.415 -0.3819 -1.5286  0.9568
 1134SOL     OW 7958  10.856  10.269   9.820  0.3253  0.0231 -0.0514
 1134SOL    HW1 7959  10.820  10.357   9.811 -2.4905 -1.1516 -1.6285
 1134SOL    HW2 7960  10.940  10.272   9.774  0.6042  1.9878  0.4947
 1135SOL     OW 7961   5.868   6.581   1.465 -0.7363  0.0494  0.4512
 1135SOL    HW1 7962   5.829   6.574   1.377  0.9649  0.1337 -0.3592
 1135SOL    HW2 7963   5.806   6.536   1.522 -0.6828 -2.3074 -1.1971
 1136SOL     OW 7964   9.774   8.240   4.068  0.0509 -0.5967  0.3849
 1136SOL    HW1 7965   9.805   8.320   4.110 -1.8455  0.2417  0.2606
 1136SOL    HW2 7966   9.775   8.260   3.975  0.8405 -1.2146  0.2451
 1137SOL     OW 7967   3.591   1.262   3.838  0.1295 -0.2846 -0.3958
 1137SOL    HW1 7968   3.593   1.263   3.743  0.7767  3.4207 -0.4956
 1137SOL    HW2 7969   3.503   1.232   3.861 -0.2819 -0.5071 -2.1708
 1138SOL     OW 7970   0.028   8.313   5.671 -0.0482  0.4172  0.0364
 1138SOL    HW1 7971  -0.039   8.358   5.619 -1.6569  0.2468  1.8628
 1138SOL    HW2 7972   0.110   8.332   5.626 -1.3845 -0.2679 -2.9489
 1139SOL     OW 7973   8.114   7.430   4.755 -0.1568 -0.1638  0.4209
 1139SOL    HW1 7974   8.191   7.442   4.699 -1.6153 -0.3118 -1.7350
 1139SOL    HW2 7975   8.068   7.356   4.716 -3.0565  1.8931 -0.3848
 1140SOL     OW 7976  10.143   9.307   4.644  0.2529  0.1049  0.8367
 1140SOL    HW1 7977  10.083   9.349   4.706 -0.9927 -0.1874 -0.1279
 1140SOL    HW2 7978  10.213   9.271   4.699  0.4640  1.9188  1.8318
 1141SOL     OW 7979  11.633   2.711   0.156  0.1963  0.0528 -0.1584
 1141SOL    HW1 7980  11.724   2.698   0.182 -0.4842 -0.6906  2.0950
 1141SOL    HW2 7981  11.594   2.624   0.160 -0.8553  0.5047 -0.1099
 1142SOL     OW 7982   9.934   1.259   0.175  0.6011  0.1017 -0.2421
 1142SOL    HW1 7983   9.872   1.265   0.248  2.2227 -0.0604  1.2382
 1142SOL    HW2 7984   9.894   1.308   0.104 -0.7405  0.8769  1.0007
 1143SOL     OW 7985   4.843   3.657   9.615  0.4171 -0.3544  0.5814
 1143SOL    HW1 7986   4.862   3.645   9.522 -2.5510  1.3013 -0.3825
 1143SOL    HW2 7987   4.879   3.743   9.637  0.5583 -0.4670  0.7941
 1144SOL     OW 7988   3.261   8.092  10.854 -0.1520  0.4757  0.0133
 1144SOL    HW1 7989   3.171   8.067  10.833 -0.8397  2.6776  0.0873
 1144SOL    HW2 7990   3.290   8.141  10.778  1.8497 -2.0368 -0.9797
 1145SOL     OW 7991   0.104   3.960   9.678 -0.1807 -0.1475 -0.0560
 1145SOL    HW1 7992   0.143   4.033   9.727 -2.3920 -0.1541  1.8598
 1145SOL    HW2 7993   0.111   3.885   9.737 -1.7012 -0.4778 -0.2696
 1146SOL     OW 7994   0.736   5.127   7.073 -0.0453 -0.1971 -0.0087
 1146SOL    HW1 7995   0.655   5.153   7.029  0.9820  1.3723 -1.1021
 1146SOL    HW2 7996   0.758   5.201   7.130 -0.3094 -1.3826  1.7191
 1147SOL     OW 7997   1.569   6.441   1.696  0.2358 -0.1414 -0.4763
 1147SOL    HW1 7998   1.595   6.527   1.729 -0.4716 -0.0332 -0.2005
 1147SOL    HW2 7999   1.652   6.392   1.691  0.3929 -0.1451  1.4011
 1148SOL     OW 8000   1.402  11.144   4.800  0.3088 -0.1853 -0.1482
 1148SOL    HW1 8001   1.374  11.234   4.785  2.8141  0.3912 -1.9098
 1148SOL    HW2 8002   1.327  11.091   4.771 -1.6796  1.2259  2.0228
 1149SOL     OW 8003   5.029   1.296   5.478 -0.1953 -0.4066  0.3366
 1149SOL    HW1 8004   5.061   1.316   5.390 -0.7844 -0.6282  0.0605
 1149SOL    HW2 8005   5.069   1.361   5.535 -0.2549  0.0916 -0.1877
 1150SOL     OW 8006   2.691   4.012   2.525  0.9013 -0.4754  0.2010
 1150SOL    HW1 8007   2.609   4.031   2.569  1.7911 -2.1599  2.8133
 1150SOL    HW2 8008   2.749   4.083   2.551  0.4074  0.6074 -1.4860
 1151SOL     OW 8009   3.831   4.585   5.119 -0.0819 -0.2006  0.0176
 1151SOL    HW1 8010   3.833   4.547   5.207  0.3480 -0.9829 -0.3228
 1151SOL    HW2 8011   3.889   4.529   5.067  0.7004  1.0031 -0.4596
 1152SOL     OW 8012   8.443   5.483   8.795 -0.8386  0.4403  0.3244
 1152SOL    HW1 8013   8.368   5.513   8.846 -0.2390  0.6101  1.1253
 1152SOL    HW2 8014   8.508   5.458   8.860 -0.6127 -0.7922 -0.3499
 1153SOL     OW 8015   4.188   4.143   0.461 -0.4175 -0.0558  0.1784
 1153SOL    HW1 8016   4.160   4.073   0.403 -1.7842  0.8272 -0.2588
 1153SOL    HW2 8017   4.280   4.157   0.439  0.0549 -2.0575  0.6657
 1154SOL     OW 8018   2.511   9.844   6.176 -0.5299 -0.4446  0.0358
 1154SOL    HW1 8019   2.525   9.868   6.268  1.6035 -0.9499 -0.1147
 1154SOL    HW2 8020   2.536   9.751   6.171 -0.5373 -0.4014 -1.0595
 1155SOL     OW 8021   5.357   2.892   2.065  0.2588  0.7363 -0.1736
 1155SOL    HW1 8022   5.292   2.871   1.998  1.0750 -2.1993 -0.1995
 1155SOL    HW2 8023   5.394   2.976   2.038 -1.9481  1.4023 -1.3418
 1156SOL     OW 8024   2.849   0.950   1.174 -0.1704  0.8908 -0.4883
 1156SOL    HW1 8025   2.850   1.044   1.194  0.2744  0.5996  0.9158
 1156SOL    HW2 8026   2.874   0.907   1.255  0.8556 -0.4068 -1.4480
 1157SOL     OW 8027  12.045   4.873  11.253  0.4733  0.1773 -0.3196
 1157SOL    HW1 8028  12.010   4.811  11.317 -0.2526  1.9849  1.1274
 1157SOL    HW2 8029  11.973   4.888  11.192 -0.4978  1.9419  1.1721
 1158SOL     OW 8030   9.269   2.532   2.018  0.0477 -0.1221  0.1505
 1158SOL    HW1 8031   9.280   2.487   1.935 -0.1641  1.2268 -0.6275
 1158SOL    HW2 8032   9.300   2.621   2.002  0.7732 -0.0511  1.7484
 1159SOL     OW 8033   3.131   8.149   8.831  0.0949 -0.4112 -0.5036
 1159SOL    HW1 8034   3.092   8.090   8.766  0.1375 -1.6176  0.5235
 1159SOL    HW2 8035   3.179   8.214   8.778 -0.6116 -0.8195 -1.6873
 1160SOL     OW 8036   2.742   9.962  11.774 -0.8043  0.3835 -0.1024
 1160SOL    HW1 8037   2.779   9.879  11.742  0.0253  1.0266 -0.8813
 1160SOL    HW2 8038   2.658   9.938  11.812 -1.3796 -0.5780 -1.8894
 1161SOL     OW 8039   3.648   0.844   4.927  0.5252 -0.3787  0.0248
 1161SOL    HW1 8040   3.668   0.759   4.967  2.4910  0.0954  0.1775
 1161SOL    HW2 8041   3.662   0.907   4.997  1.1453  0.2248 -0.6223
 1162SOL     OW 8042   6.856   8.150   7.686  0.4891 -0.5478 -0.0766
 1162SOL    HW1 8043   6.904   8.165   7.605  0.3487 -0.4012 -0.1316
 1162SOL    HW2 8044   6.774   8.197   7.675  1.2932  1.1832  0.9363
 1163SOL     OW 8045   0.535   3.518   3.946 -0.6619 -0.1205  0.7954
 1163SOL    HW1 8046   0.463   3.571   3.980  0.1547  1.6413 -0.0868
 1163SOL    HW2 8047   0.573   3.571   3.877  1.2403 -1.1792  0.9616
 1164SOL     OW 8048  11.106   1.379   3.609 -0.3628  0.2479  0.2290
 1164SOL    HW1 8049  11.056   1.433   3.548  1.2195  1.9438  0.3437
 1164SOL    HW2 8050  11.144   1.310   3.554 -1.8826 -0.4285 -0.0296
 1165SOL     OW 8051   8.485   1.344  11.827 -0.1937  0.9061 -0.3506
 1165SOL    HW1 8052   8.538   1.365  11.750  0.7428  1.8702  0.5296
 1165SOL    HW2 8053   8.399   1.380  11.807 -0.4245 -0.2466 -1.5906
 1166SOL     OW 8054   5.847   9.923   4.445 -0.7025 -0.4072 -0.3936
 1166SOL    HW1 8055   5.940   9.939   4.461 -0.9450  1.1433 -0.3924
 1166SOL    HW2 8056   5.828   9.842   4.493  0.7292 -1.0144 -0.7821
 1167SOL     OW 8057   4.357   2.715   0.989  0.1711  0.3053 -0.2280
 1167SOL    HW1 8058   4.398   2.676   0.912 -3.2394 -1.5333 -1.3106
 1167SOL    HW2 8059   4.374   2.809   0.981  4.1232 -0.2759 -0.4193
 1168SOL     OW 8060   9.852   1.797   5.287  0.2977 -0.0198  0.1652
 1168SOL    HW1 8061   9.820   1.867   5.229 -0.3218 -0.5262 -0.1150
 1168SOL    HW2 8062   9.773   1.750   5.313  0.5817  0.1748  1.3944
 1169SOL     OW 8063   4.070   9.830   7.857 -0.0557 -0.0741  0.3746
 1169SOL    HW1 8064   4.101   9.782   7.780  0.7727 -1.3853  1.4601
 1169SOL    HW2 8065   3.987   9.788   7.880 -0.7385  0.8827 -0.2742
 1170SOL     OW 8066  10.493   5.123  10.611 -0.4630  0.5861  0.1448
 1170SOL    HW1 8067  10.437   5.126  10.688  0.8619  0.7799  1.1509
 1170SOL    HW2 8068  10.445   5.171  10.544 -2.0727 -0.3979  0.5300
 1171SOL     OW 8069   4.333   1.116   8.043  0.5107  0.2967  0.4886
 1171SOL    HW1 8070   4.422   1.097   8.013  0.3592 -1.0589  0.8538
 1171SOL    HW2 8071   4.303   1.187   7.985  1.7564  0.6610  0.2548
 1172SOL     OW 8072  11.723   1.855   7.183 -0.2725  0.2787  0.0879
 1172SOL    HW1 8073  11.764   1.941   7.186 -3.3058  2.0817 -2.7710
 1172SOL    HW2 8074  11.763   1.812   7.108 -0.1993 -0.0008  0.2838
 1173SOL     OW 8075   3.042   6.632   2.857 -0.4139  0.3383 -0.3948
 1173SOL    HW1 8076   3.095   6.564   2.898  0.7807  0.5950 -1.4535
 1173SOL    HW2 8077   3.063   6.712   2.906 -0.7797  0.2208 -0.0330
 1174SOL     OW 8078   2.883   4.920   9.810 -0.3175 -0.0231  0.1071
 1174SOL    HW1 8079   2.955   4.878   9.763  0.4696  0.2389  1.0338
 1174SOL    HW2 8080   2.893   5.013   9.789 -0.2141  0.0456  0.4544
 1175SOL     OW 8081   4.469   6.542   2.837 -0.2199 -0.0968 -0.5578
 1175SOL    HW1 8082   4.556   6.580   2.850 -0.2922  0.0831 -0.5928
 1175SOL    HW2 8083   4.470   6.513   2.746 -0.3272  0.2511 -0.6715
 1176SOL     OW 8084   8.362   2.417   2.392 -0.0726  0.4711  0.1760
 1176SOL    HW1 8085   8.437   2.474   2.379  0.5645 -0.1690  0.9567
 1176SOL    HW2 8086   8.364   2.395   2.485 -2.5473  2.2461  0.7432
 1177SOL     OW 8087   1.423  11.976   1.465 -0.3713 -0.0039 -0.5042
 1177SOL    HW1 8088   1.363  11.999   1.536  0.1045 -0.5000  0.0728
 1177SOL    HW2 8089   1.366  11.947   1.394 -0.8880  1.1290 -0.5775
 1178SOL     OW 8090   9.099  11.391   9.927 -0.1294  0.2116 -0.2298
 1178SOL    HW1 8091   9.104  11.308   9.879  0.4481 -0.3581  0.7589
 1178SOL    HW2 8092   9.020  11.434   9.894  0.6534  0.2226 -2.2199
 1179SOL     OW 8093   3.691   1.339   8.212  0.0482 -0.5219  0.1547
 1179SOL    HW1 8094   3.762   1.277   8.227  1.5116  1.1956  0.5957
 1179SOL    HW2 8095   3.710   1.377   8.127  1.3131  1.9474  1.4333
 1180SOL     OW 8096   4.871   2.356   6.777  0.0271  0.1818 -0.7394
 1180SOL    HW1 8097   4.885   2.361   6.872  2.1239  2.8701 -1.0671
 1180SOL    HW2 8098   4.927   2.283   6.749 -0.8081 -0.8047  0.0629
 1181SOL     OW 8099  10.716   4.850  11.683  0.3781  0.1216 -0.0697
 1181SOL    HW1 8100  10.741   4.902  11.607 -0.1425 -0.5641 -0.7163
 1181SOL    HW2 8101  10.773   4.882  11.753 -0.0079  1.6453 -0.4078
 1182SOL     OW 8102   6.894   5.513  11.431 -0.0421 -0.3504  0.1072
 1182SOL    HW1 8103   6.962   5.464  11.385 -0.2016 -0.0520 -0.4547
 1182SOL    HW2 8104   6.814   5.462  11.419 -0.4289  0.5498 -1.3746
 1183SOL     OW 8105   7.066   0.560  10.314 -0.0820 -0.0861  0.1320
 1183SOL    HW1 8106   6.986   0.523  10.277  0.2935 -0.3466 -0.4425
 1183SOL    HW2 8107   7.059   0.654  10.298 -0.7025  0.0128  0.9347
 1184SOL     OW 8108   2.667  12.091   9.400  0.0923  0.3620 -0.2096
 1184SOL    HW1 8109   2.617  12.037   9.461 -0.2683  0.1698 -0.6649
 1184SOL    HW2 8110   2.755  12.053   9.400 -0.2685 -0.5170 -0.8619
 1185SOL     OW 8111   2.816   6.788   2.406 -0.7630 -0.4124  0.2353
 1185SOL    HW1 8112   2.822   6.734   2.327  0.4465  0.6048 -0.3923
 1185SOL    HW2 8113   2.879   6.749   2.466  0.4934  0.5799 -0.4088
 1186SOL     OW 8114   6.323  11.080   2.832 -0.0265 -0.6438 -0.1256
 1186SOL    HW1 8115   6.333  11.175   2.842  2.0047 -0.6058 -1.7379
 1186SOL    HW2 8116   6.232  11.069   2.803 -0.2894  0.8146  0.0515
 1187SOL     OW 8117   4.896   0.664  11.749 -0.2899  0.1610  0.2351
 1187SOL    HW1 8118   4.977   0.616  11.733  1.0360  2.6956 -1.3585
 1187SOL    HW2 8119   4.854   0.668  11.663 -0.8011  1.0982  0.5219
 1188SOL     OW 8120   2.200   9.757   9.083  0.0328 -0.5060 -0.2596
 1188SOL    HW1 8121   2.274   9.704   9.113  1.2838  0.9981 -0.5659
 1188SOL    HW2 8122   2.220   9.846   9.114 -1.7300 -0.0831 -0.2240
 1189SOL     OW 8123   5.802   9.319  10.713  0.0992  0.3065 -0.3319
 1189SOL    HW1 8124   5.870   9.324  10.646  0.5804 -1.1959  0.0148
 1189SOL    HW2 8125   5.844   9.353  10.792  0.7137 -1.2634  0.0520
 1190SOL     OW 8126   8.588  10.167   7.712  0.5407 -0.5333 -0.3505
 1190SOL    HW1 8127   8.653  10.176   7.782  0.4105 -0.1739 -0.2752
 1190SOL    HW2 8128   8.591  10.074   7.688  1.5067 -0.4060 -0.7543
 1191SOL     OW 8129  10.113   5.060  11.009  0.0849  0.1278  0.3330
 1191SOL    HW1 8130  10.156   5.001  11.070  0.7584 -1.6317 -1.7022
 1191SOL    HW2 8131  10.185   5.110  10.970  0.1129 -1.1579 -1.3810
 1192SOL     OW 8132  11.770   2.146   1.559 -0.4108 -0.6191  0.0905
 1192SOL    HW1 8133  11.741   2.139   1.650  0.5919  1.2321  0.6123
 1192SOL    HW2 8134  11.834   2.218   1.560 -0.4164 -0.5176 -2.0936
 1193SOL     OW 8135   5.915  10.422   9.003 -0.2659  0.2100 -0.0339
 1193SOL    HW1 8136   5.894  10.329   9.003 -0.1523  0.1599 -1.4400
 1193SOL    HW2 8137   6.010  10.425   8.989 -0.1717  0.5411  0.5973
 1194SOL     OW 8138   5.280  10.204   9.198  0.0191 -0.5977  0.2921
 1194SOL    HW1 8139   5.304  10.279   9.253  3.4177 -0.2086 -1.4208
 1194SOL    HW2 8140   5.271  10.241   9.110  2.4797 -2.1519 -0.7188
 1195SOL     OW 8141   4.731   2.731  11.835 -0.0168  0.2161  0.0094
 1195SOL    HW1 8142   4.819   2.730  11.872  0.4406  0.4411 -1.0665
 1195SOL    HW2 8143   4.688   2.655  11.875  0.9397 -0.4158 -0.1389
 1196SOL     OW 8144   0.304  10.995   4.226  0.2396  0.6270 -0.2938
 1196SOL    HW1 8145   0.355  10.913   4.222 -1.0539 -0.2632  0.8107
 1196SOL    HW2 8146   0.216  10.969   4.199 -0.3084  1.5479  0.5665
 1197SOL     OW 8147   7.334   1.289   1.342  0.1782 -0.0682 -0.1347
 1197SOL    HW1 8148   7.389   1.231   1.395 -0.1608  0.5135  0.8759
 1197SOL    HW2 8149   7.253   1.297   1.392  1.0160  3.0302  0.9178
 1198SOL     OW 8150   1.294   9.574   2.464 -0.7198  0.2896 -0.2499
 1198SOL    HW1 8151   1.279   9.668   2.453 -3.0540  0.0169  0.1516
 1198SOL    HW2 8152   1.223   9.545   2.521 -0.6213 -1.8973 -1.1590
 1199SOL     OW 8153  11.224   1.770   7.316 -0.2489 -0.2234 -0.2560
 1199SOL    HW1 8154  11.285   1.806   7.252  0.3730  0.0797  0.4867
 1199SOL    HW2 8155  11.163   1.717   7.264  0.8215 -0.7827 -0.9940
 1200SOL     OW 8156   9.504   5.667   0.585 -0.4034 -0.4444 -0.4296
 1200SOL    HW1 8157   9.433   5.603   0.587  0.1610 -1.1845 -2.3769
 1200SOL    HW2 8158   9.581   5.618   0.556  0.2211  0.9252 -1.2036
 1201SOL     OW 8159   0.742   2.123  11.136  0.7886  0.0434  0.3901
 1201SOL    HW1 8160   0.698   2.047  11.173 -0.9062  1.1198  0.6587
 1201SOL    HW2 8161   0.736   2.111  11.041  1.9785 -0.9322  0.4126
 1202SOL     OW 8162  12.084   2.962  10.734  0.2531 -0.4765 -0.0653
 1202SOL    HW1 8163  12.054   2.932  10.820 -0.0483 -1.0827 -0.3774
 1202SOL    HW2 8164  12.073   2.886  10.677  2.6257 -0.8527 -0.1546
 1203SOL     OW 8165   5.740   5.988  11.220 -0.2701 -0.0618 -0.3153
 1203SOL    HW1 8166   5.763   5.909  11.172 -0.9588 -0.1014 -0.5913
 1203SOL    HW2 8167   5.764   5.969  11.311  3.3385  0.8921 -0.9157
 1204SOL     OW 8168  11.928  10.057   7.237  0.1191 -0.1491 -0.0476
 1204SOL    HW1 8169  11.929  10.033   7.145 -0.6419  1.2135 -0.4242
 1204SOL    HW2 8170  11.922   9.973   7.283  0.6367 -0.8513 -1.2147
 1205SOL     OW 8171   3.404   2.726   8.834 -0.9728  0.1709 -0.5164
 1205SOL    HW1 8172   3.385   2.707   8.742 -1.4781  0.5963 -0.5028
 1205SOL    HW2 8173   3.326   2.772   8.865 -1.0304 -0.4469  0.2704
 1206SOL     OW 8174   5.938   4.618   3.894  0.4654  0.5300  0.3850
 1206SOL    HW1 8175   5.999   4.570   3.950  2.4297  0.6346 -1.5260
 1206SOL    HW2 8176   5.934   4.567   3.813 -1.8692  0.6583  0.3454
 1207SOL     OW 8177   1.154   1.607   8.883  0.0945 -0.2066 -0.3075
 1207SOL    HW1 8178   1.205   1.667   8.938  0.8706 -0.8711 -0.2948
 1207SOL    HW2 8179   1.064   1.640   8.890  0.4237  0.6397  0.1194
 1208SOL     OW 8180   3.619   0.536   1.385 -0.0674  0.5532  0.0601
 1208SOL    HW1 8181   3.617   0.631   1.372 -0.2377  0.6300  0.6257
 1208SOL    HW2 8182   3.711   0.511   1.374  0.1976  0.9722  1.1909
 1209SOL     OW 8183   6.991   0.468   4.113  0.2485  0.2384 -0.2576
 1209SOL    HW1 8184   6.997   0.557   4.079 -0.4309  1.0801  1.6550
 1209SOL    HW2 8185   6.929   0.474   4.186 -2.5312 -2.4742 -2.1311
 1210SOL     OW 8186   1.363  11.607   0.620  0.2656  0.6471  0.3898
 1210SOL    HW1 8187   1.374  11.633   0.529  1.5739 -0.2931  0.2376
 1210SOL    HW2 8188   1.274  11.634   0.643 -0.5154 -0.1400 -1.5107
 1211SOL     OW 8189   6.142  11.387   4.307 -0.0335 -0.3466  0.1360
 1211SOL    HW1 8190   6.223  11.380   4.256  1.0601  2.5233  1.2432
 1211SOL    HW2 8191   6.076  11.413   4.244  0.9850  1.7273 -0.1809
 1212SOL     OW 8192   7.885   7.601   6.258  0.3889  0.5489 -0.3479
 1212SOL    HW1 8193   7.846   7.520   6.292  1.0892  0.2308 -0.2742
 1212SOL    HW2 8194   7.855   7.607   6.168 -0.0188  0.4358 -0.2209
 1213SOL     OW 8195   9.079  11.017   2.381 -0.5185 -0.3038  0.1087
 1213SOL    HW1 8196   9.128  11.083   2.431  0.5859 -1.9603  1.3718
 1213SOL    HW2 8197   8.991  11.020   2.418 -0.3055  0.0241  0.6078
 1214SOL     OW 8198  10.371  11.298   5.320 -0.1478  0.1330  0.4983
 1214SOL    HW1 8199  10.314  11.259   5.386 -0.2612  0.1644  0.4194
 1214SOL    HW2 8200  10.338  11.387   5.308  0.0002  0.1954  0.5479
 1215SOL     OW 8201   9.088   8.892   7.059 -0.2219  0.1152 -0.7245
 1215SOL    HW1 8202   9.005   8.879   7.012  0.4195  0.0835 -1.8910
 1215SOL    HW2 8203   9.131   8.807   7.054  0.6474  0.5838 -1.7056
 1216SOL     OW 8204  10.351   7.846  11.931 -0.5174 -0.2225  0.1778
 1216SOL    HW1 8205  10.426   7.787  11.935 -0.2714  0.1541  1.9415
 1216SOL    HW2 8206  10.385   7.925  11.890 -0.2476 -0.4538 -0.0472
 1217SOL     OW 8207   1.758  11.621   0.370  0.0372 -0.1825 -0.5008
 1217SOL    HW1 8208   1.793  11.710   0.383  0.2224 -0.1200 -1.3940
 1217SOL    HW2 8209   1.836  11.565   0.370  0.0274 -0.1956 -1.2038
 1218SOL     OW 8210   8.124   7.675   6.397 -0.4395 -0.4222  0.0530
 1218SOL    HW1 8211   8.035   7.655   6.367 -0.9546 -0.4263  1.5405
 1218SOL    HW2 8212   8.156   7.592   6.433 -0.6613  0.1028  1.5174
 1219SOL     OW 8213  11.420   6.591   8.450  0.0768 -0.8998 -0.0169
 1219SOL    HW1 8214  11.347   6.653   8.454  1.4535  0.7098  2.6829
 1219SOL    HW2 8215  11.399   6.526   8.518  1.6761  0.3146  1.7286
 1220SOL     OW 8216   7.204  10.389   6.488  0.5903 -0.2444 -0.4655
 1220SOL    HW1 8217   7.150  10.368   6.565  0.5697  0.6115 -0.2373
 1220SOL    HW2 8218   7.280  10.331   6.495  0.1251 -0.8434 -0.3181
 1221SOL     OW 8219   1.041  10.088   5.050  0.4020  0.4750 -0.3613
 1221SOL    HW1 8220   1.062  10.180   5.033 -0.4240  0.7510  0.0832
 1221SOL    HW2 8221   1.126  10.044   5.051  0.8084  1.2383 -0.5378
 1222SOL     OW 8222   5.081   3.936   6.392 -0.4728 -0.4249  0.4585
 1222SOL    HW1 8223   5.106   4.026   6.413  0.3394 -0.6915  0.6648
 1222SOL    HW2 8224   5.163   3.893   6.369 -0.8029 -1.2031  0.7080
 1223SOL     OW 8225   0.426   3.095   9.455  0.0414  0.3894 -0.2530
 1223SOL    HW1 8226   0.469   3.038   9.519 -0.8040 -0.9069 -0.7816
 1223SOL    HW2 8227   0.369   3.151   9.507  0.1121  0.0373  0.2130
 1224SOL     OW 8228   2.668   0.176   2.900  0.5688 -0.0187 -0.3400
 1224SOL    HW1 8229   2.628   0.181   2.987  1.5433  0.2860  0.1034
 1224SOL    HW2 8230   2.632   0.251   2.853 -0.8106 -0.8078 -0.5812
 1225SOL     OW 8231  11.765   6.041   6.830 -0.4836  0.1527 -0.3970
 1225SOL    HW1 8232  11.685   5.997   6.802  0.7020 -1.6347 -1.1691
 1225SOL    HW2 8233  11.757   6.130   6.795 -0.5731 -1.0157 -3.6650
 1226SOL     OW 8234   4.951  10.557   6.875  0.6504  0.4550 -0.0729
 1226SOL    HW1 8235   4.907  10.612   6.811 -1.8561 -0.2423  0.9290
 1226SOL    HW2 8236   4.943  10.468   6.840 -0.4417  0.1068  0.9505
 1227SOL     OW 8237   6.126   6.506  11.508 -0.0618  0.1478 -0.0204
 1227SOL    HW1 8238   6.069   6.572  11.469  0.7497  1.4253  0.8516
 1227SOL    HW2 8239   6.137   6.536  11.599  0.4975 -1.0886  0.3348
 1228SOL     OW 8240   4.552   3.627   5.500  0.4568 -0.2944  1.0069
 1228SOL    HW1 8241   4.624   3.564   5.494  1.9989  1.1800  2.8494
 1228SOL    HW2 8242   4.473   3.572   5.506  1.6390 -2.0357  1.4825
 1229SOL     OW 8243   8.423   7.585   2.346 -0.2387  0.2099 -0.2459
 1229SOL    HW1 8244   8.395   7.673   2.320  0.6917  0.4016 -0.6216
 1229SOL    HW2 8245   8.442   7.540   2.264 -0.1963 -0.1714 -0.0320
 1230SOL     OW 8246   6.545   7.673   9.822 -0.4630 -0.2333  0.0785
 1230SOL    HW1 8247   6.481   7.696   9.756  0.9972  0.3613 -1.1825
 1230SOL    HW2 8248   6.516   7.720   9.901 -0.8156  1.1642 -0.8416
 1231SOL     OW 8249   2.706   0.873   9.109  0.2085 -0.4516  0.2593
 1231SOL    HW1 8250   2.684   0.940   9.044  1.3910 -0.9494 -0.6957
 1231SOL    HW2 8251   2.765   0.917   9.170 -0.2037 -0.2242  0.4989
 1232SOL     OW 8252  11.601   8.961   5.535 -0.1015  0.4119 -0.4704
 1232SOL    HW1 8253  11.605   8.945   5.441 -1.0899  0.0119 -0.4572
 1232SOL    HW2 8254  11.556   9.044   5.544  0.0592  0.4865 -0.3501
 1233SOL     OW 8255   3.523   9.383   4.430  0.3809 -0.3472  0.5290
 1233SOL    HW1 8256   3.501   9.425   4.513 -0.8875  0.5967 -0.2501
 1233SOL    HW2 8257   3.455   9.316   4.419 -0.2608  0.4194 -0.3550
 1234SOL     OW 8258   7.817   9.212   5.294  0.1595 -0.4658  0.0384
 1234SOL    HW1 8259   7.768   9.290   5.320  0.1277 -0.4033 -0.2166
 1234SOL    HW2 8260   7.879   9.242   5.228 -1.0054 -0.9583 -1.3354
 1235SOL     OW 8261   5.751   4.974   4.511 -0.0566  0.8013 -0.5678
 1235SOL    HW1 8262   5.679   5.020   4.467 -0.9175 -1.2451 -1.4322
 1235SOL    HW2 8263   5.806   5.044   4.547 -2.3753  2.4353  0.0005
 1236SOL     OW 8264   0.659   7.763  10.265  0.1218  0.1980 -0.1127
 1236SOL    HW1 8265   0.717   7.705  10.314  1.0384  1.9760  1.0071
 1236SOL    HW2 8266   0.717   7.828  10.225 -0.6637 -0.6753 -2.9678
 1237SOL     OW 8267   9.874   0.523  11.812  0.0064 -0.1535 -0.2100
 1237SOL    HW1 8268   9.891   0.566  11.728 -4.5760  2.4382 -0.1699
 1237SOL    HW2 8269   9.852   0.595  11.871 -2.4625 -2.1416  1.5496
 1238SOL     OW 8270   2.704  11.251  12.052 -0.4184 -0.1235 -0.2352
 1238SOL    HW1 8271   2.726  11.177  11.996 -0.2141 -1.6687  1.7650
 1238SOL    HW2 8272   2.773  11.253  12.118 -1.6404  0.3888  1.1018
 1239SOL     OW 8273   4.640   6.537   6.917 -0.5371 -0.1571  0.0946
 1239SOL    HW1 8274   4.720   6.535   6.863 -0.4220 -0.1872  0.2661
 1239SOL    HW2 8275   4.569   6.523   6.854 -0.3026 -1.8246  0.1612
 1240SOL     OW 8276   8.716   5.431   2.286 -0.1613  0.8532  0.2422
 1240SOL    HW1 8277   8.783   5.467   2.345  0.7830  0.0095 -0.2820
 1240SOL    HW2 8278   8.754   5.349   2.255 -1.4500  0.3676 -0.0854
 1241SOL     OW 8279   7.638   0.585   4.472 -0.1377 -0.7059 -0.7478
 1241SOL    HW1 8280   7.630   0.652   4.404 -0.2063  0.3394  0.2554
 1241SOL    HW2 8281   7.594   0.508   4.435 -2.4572  0.6044 -0.8865
 1242SOL     OW 8282   0.908   3.738   9.907  0.8602  0.2265  0.6563
 1242SOL    HW1 8283   0.843   3.710   9.843  0.7091 -0.5916  1.1573
 1242SOL    HW2 8284   0.971   3.666   9.910 -0.5677 -1.0666  3.3973
 1243SOL     OW 8285  11.924   0.159  10.202  0.2289  0.2828 -0.2084
 1243SOL    HW1 8286  11.893   0.158  10.111 -1.0575 -0.3725  0.2152
 1243SOL    HW2 8287  12.013   0.194  10.196 -0.7001  2.6371 -1.4226
 1244SOL     OW 8288   7.025   0.623   5.069  0.5627  0.1622 -0.3241
 1244SOL    HW1 8289   6.976   0.563   5.013 -0.0108  1.2950 -1.0845
 1244SOL    HW2 8290   6.960   0.657   5.130  1.0389 -0.5266  0.5858
 1245SOL     OW 8291   6.928   2.290  11.826  0.2561  0.3406  0.4045
 1245SOL    HW1 8292   6.996   2.321  11.767 -0.8852 -0.5273 -1.4956
 1245SOL    HW2 8293   6.856   2.352  11.816 -0.5675 -0.6933 -0.4414
 1246SOL     OW 8294   9.014   4.201   7.709 -0.4137 -0.0753  0.2324
 1246SOL    HW1 8295   9.019   4.282   7.658  0.2952 -0.4454 -0.3016
 1246SOL    HW2 8296   8.965   4.140   7.653 -0.7808 -0.0811  0.5537
 1247SOL     OW 8297   4.340   2.894   0.463 -0.0338  0.5044  0.6899
 1247SOL    HW1 8298   4.358   2.830   0.532  0.1067  0.8798  1.0004
 1247SOL    HW2 8299   4.257   2.935   0.489 -0.5995 -0.1856  0.0208
 1248SOL     OW 8300   3.863   1.497   2.829  0.0327 -0.0243  0.2532
 1248SOL    HW1 8301   3.777   1.536   2.813 -0.0145  0.7352  2.1062
 1248SOL    HW2 8302   3.851   1.404   2.808 -1.5765 -0.1530  1.4638
 1249SOL     OW 8303   1.376   4.702   9.878 -0.3926 -0.6580  0.1277
 1249SOL    HW1 8304   1.352   4.668   9.792 -0.3329  1.1149 -0.6342
 1249SOL    HW2 8305   1.292   4.711   9.925 -0.5215 -0.7631 -0.0832
 1250SOL     OW 8306   2.109   0.012  10.975  0.0484  0.0362  0.0257
 1250SOL    HW1 8307   2.189  -0.011  11.022 -0.3132 -0.4116  0.4342
 1250SOL    HW2 8308   2.073   0.086  11.025 -0.3767 -0.4894  0.5192
 1251SOL     OW 8309   5.203  10.597   0.684  0.5342  0.1633  0.2480
 1251SOL    HW1 8310   5.265  10.670   0.685  2.6261 -1.5249  0.5599
 1251SOL    HW2 8311   5.242  10.532   0.626 -2.1528 -0.0601 -1.4482
 1252SOL     OW 8312   7.607   1.810   5.689 -0.1735 -0.1406  0.2940
 1252SOL    HW1 8313   7.646   1.803   5.776  0.7860  1.4239  0.0183
 1252SOL    HW2 8314   7.681   1.821   5.630 -0.8190 -1.1503 -0.7409
 1253SOL     OW 8315   1.272   4.024   5.515  0.6652  0.4136 -0.3554
 1253SOL    HW1 8316   1.193   4.028   5.461  0.1224  1.4103  0.4792
 1253SOL    HW2 8317   1.277   3.933   5.544  0.2759  0.1587 -1.0603
 1254SOL     OW 8318  10.444   9.516   7.180  0.1858  0.1956 -0.2631
 1254SOL    HW1 8319  10.355   9.551   7.189  0.0532  0.2876 -1.6452
 1254SOL    HW2 8320  10.482   9.524   7.267 -0.8469  1.0390  0.1338
 1255SOL     OW 8321  12.090   1.654   2.403 -0.3944 -0.3863  0.1761
 1255SOL    HW1 8322  12.128   1.658   2.316 -0.7304  1.2725  0.0637
 1255SOL    HW2 8323  12.146   1.710   2.457 -2.3267  1.7750  0.0955
 1256SOL     OW 8324   5.530   3.773   5.289 -0.3943 -0.1064  0.6958
 1256SOL    HW1 8325   5.618   3.771   5.251  0.0635 -0.3735  1.7470
 1256SOL    HW2 8326   5.476   3.816   5.222  0.0556 -1.9195 -0.9099
 1257SOL     OW 8327  12.005   0.488   0.706  0.1635  0.2281 -0.4345
 1257SOL    HW1 8328  12.006   0.392   0.711  1.4051  0.2467 -0.0162
 1257SOL    HW2 8329  11.914   0.510   0.686 -1.2750 -0.8200  3.9073
 1258SOL     OW 8330   3.549   7.003   1.014  0.2532  0.0150  0.0077
 1258SOL    HW1 8331   3.575   6.975   1.102  0.1396  1.0463  0.3775
 1258SOL    HW2 8332   3.617   7.065   0.987  0.0260  0.0749 -0.4324
 1259SOL     OW 8333   5.765   7.433   7.456  0.0012 -0.0884 -0.3923
 1259SOL    HW1 8334   5.776   7.414   7.363 -0.5557 -1.1418 -0.2569
 1259SOL    HW2 8335   5.713   7.360   7.490  1.4440 -0.5181  1.0543
 1260SOL     OW 8336   3.922  11.445   8.503 -0.2921  0.3573 -0.0063
 1260SOL    HW1 8337   3.955  11.373   8.449 -0.2703 -1.1817  1.9361
 1260SOL    HW2 8338   4.000  11.479   8.548 -0.3988  1.1869 -0.4319
 1261SOL     OW 8339   4.174  11.619   9.422 -0.4456 -0.1293 -0.4268
 1261SOL    HW1 8340   4.189  11.525   9.432 -1.1711 -0.1399  0.6990
 1261SOL    HW2 8341   4.079  11.630   9.431 -0.1763  0.9463  1.8341
 1262SOL     OW 8342   4.142   0.046   0.762 -0.2433  0.2772 -0.0744
 1262SOL    HW1 8343   4.096  -0.037   0.778  0.3368  0.1749  1.1207
 1262SOL    HW2 8344   4.115   0.103   0.833 -0.7690  1.1929 -0.9870
 1263SOL     OW 8345  11.286   4.536   0.453 -0.6673 -0.4411 -0.2568
 1263SOL    HW1 8346  11.235   4.495   0.383 -1.9876  0.4945  0.1122
 1263SOL    HW2 8347  11.341   4.465   0.487 -1.9838 -1.6137 -0.4501
 1264SOL     OW 8348  10.643   4.409  11.579 -0.6617 -0.2876 -0.1545
 1264SOL    HW1 8349  10.613   4.495  11.549  1.3925  0.6396  0.2952
 1264SOL    HW2 8350  10.624   4.350  11.506  2.1880  1.4722 -2.5520
 1265SOL     OW 8351   1.040   4.416   6.332 -0.1890 -0.5932  0.3538
 1265SOL    HW1 8352   0.950   4.436   6.304 -0.1223 -0.7094  0.0563
 1265SOL    HW2 8353   1.076   4.365   6.261  0.9705  1.5821 -0.7238
 1266SOL     OW 8354   3.377   0.908   0.729 -0.0387  0.8356 -0.0279
 1266SOL    HW1 8355   3.359   0.857   0.808  2.5824  1.0265  0.7678
 1266SOL    HW2 8356   3.454   0.960   0.750 -0.0254  1.8718 -2.3067
 1267SOL     OW 8357   5.930   4.981  10.593 -0.0133  0.2755 -0.3724
 1267SOL    HW1 8358   5.837   4.988  10.573  0.1179 -1.2887 -1.7339
 1267SOL    HW2 8359   5.940   4.894  10.632  0.8549  0.4814 -0.1042
 1268SOL     OW 8360   9.241  11.228   4.041  0.0061  0.4082  0.9439
 1268SOL    HW1 8361   9.265  11.143   4.005 -2.1735 -0.2889  0.9868
 1268SOL    HW2 8362   9.319  11.258   4.087  1.8871 -0.0704 -1.7224
 1269SOL     OW 8363  11.650   6.188   4.391 -0.0042  0.0978  0.2331
 1269SOL    HW1 8364  11.656   6.102   4.432  0.6934  0.8307  1.7931
 1269SOL    HW2 8365  11.736   6.201   4.350 -0.6062 -0.5188 -1.2538
 1270SOL     OW 8366   0.471   7.596   2.344 -0.1877 -0.2619 -0.7244
 1270SOL    HW1 8367   0.407   7.660   2.373  1.2718  1.7528 -1.6801
 1270SOL    HW2 8368   0.468   7.600   2.248  2.2159  0.9232 -0.8395
 1271SOL     OW 8369   7.219   2.274  11.009 -0.1827  0.0554  0.2500
 1271SOL    HW1 8370   7.210   2.294  11.102 -1.7175  3.2885 -0.4492
 1271SOL    HW2 8371   7.252   2.355  10.970 -1.6337 -0.4553 -2.2767
 1272SOL     OW 8372   7.843   0.735   2.290 -0.0889  0.3428  0.2212
 1272SOL    HW1 8373   7.763   0.717   2.340  0.2077  2.3632  1.5413
 1272SOL    HW2 8374   7.912   0.689   2.337 -0.2463 -0.1383 -0.0196
 1273SOL     OW 8375   5.704  10.454   6.051  0.6449 -0.2194  0.1100
 1273SOL    HW1 8376   5.645  10.383   6.075 -0.5897  0.1832 -1.5944
 1273SOL    HW2 8377   5.660  10.534   6.080  1.6208 -0.0687  1.2342
 1274SOL     OW 8378   5.956   0.063   7.210  0.5020  0.2994 -0.0242
 1274SOL    HW1 8379   5.879   0.027   7.255  0.2919  0.3203 -0.3629
 1274SOL    HW2 8380   5.935   0.155   7.195  1.0553  0.5893  0.8721
 1275SOL     OW 8381   8.844   0.935   0.522  0.3510  0.2272 -0.3312
 1275SOL    HW1 8382   8.904   0.868   0.555 -0.4884 -0.5529 -0.3620
 1275SOL    HW2 8383   8.864   0.940   0.428 -0.4208 -0.8874 -0.5757
 1276SOL     OW 8384   0.993   3.687  10.794 -0.3878 -0.0459 -0.2197
 1276SOL    HW1 8385   0.920   3.700  10.734 -0.8780 -0.3812  0.2972
 1276SOL    HW2 8386   1.071   3.683  10.737 -0.7515  0.4001 -0.7635
 1277SOL     OW 8387   3.583   5.135   6.148  0.5014  0.0144  0.6458
 1277SOL    HW1 8388   3.626   5.125   6.232 -0.0982  0.3262  0.9962
 1277SOL    HW2 8389   3.653   5.164   6.089  1.1920 -1.3830  0.7308
 1278SOL     OW 8390   7.125  10.081   3.304  0.0748  0.2923 -0.2463
 1278SOL    HW1 8391   7.148   9.993   3.332 -0.7842 -0.2263 -1.0999
 1278SOL    HW2 8392   7.198  10.108   3.247  2.4410  1.8218  3.1356
 1279SOL     OW 8393   4.959   1.965   3.468 -0.2286  0.0362 -0.0816
 1279SOL    HW1 8394   4.998   1.881   3.492 -1.1633 -0.1710  0.7922
 1279SOL    HW2 8395   4.865   1.949   3.469 -0.4949  1.4147  1.4488
 1280SOL     OW 8396   6.947  10.807  10.966  0.0285 -0.3670  0.5422
 1280SOL    HW1 8397   6.855  10.819  10.992  0.6651  2.4754  1.9369
 1280SOL    HW2 8398   6.996  10.822  11.047  1.7934  0.3135 -0.6029
 1281SOL     OW 8399   7.090   4.592   2.136  0.3967 -0.0363 -0.3373
 1281SOL    HW1 8400   7.058   4.646   2.208  0.5459  0.3974 -0.5893
 1281SOL    HW2 8401   7.019   4.593   2.072  0.6516  0.4027 -0.6218
 1282SOL     OW 8402   9.918   4.917  10.832 -0.0883  0.4300  0.1915
 1282SOL    HW1 8403   9.977   4.939  10.904 -0.8443  1.6071  0.4650
 1282SOL    HW2 8404   9.838   4.966  10.849 -0.4757  0.3397 -1.1904
 1283SOL     OW 8405   4.349   5.780   3.485 -0.0016  0.7371  0.1355
 1283SOL    HW1 8406   4.398   5.813   3.560 -0.3858 -0.4913  0.9503
 1283SOL    HW2 8407   4.399   5.704   3.455 -0.5630  0.4324 -0.0284
 1284SOL     OW 8408   7.666   4.275   2.918  0.1095  0.2360  0.6537
 1284SOL    HW1 8409   7.677   4.185   2.886  1.8109  1.1841 -1.7403
 1284SOL    HW2 8410   7.599   4.268   2.986 -2.1195 -2.3434 -1.5826
 1285SOL     OW 8411   1.621   1.871   0.095 -0.0869 -0.5930  0.1259
 1285SOL    HW1 8412   1.527   1.886   0.101  0.0174 -0.0218  0.4196
 1285SOL    HW2 8413   1.641   1.880   0.001 -0.5237 -2.0536 -0.1417
 1286SOL     OW 8414  10.410   2.351   3.675  0.0387  0.0661  0.0419
 1286SOL    HW1 8415  10.491   2.344   3.725 -0.6684  0.6756  1.3417
 1286SOL    HW2 8416  10.362   2.271   3.696 -0.3367  0.4056  0.5205
 1287SOL     OW 8417   9.777   9.077   0.377  0.7387 -0.2981 -0.4619
 1287SOL    HW1 8418   9.849   9.118   0.329 -0.6095  2.4201 -0.3608
 1287SOL    HW2 8419   9.794   9.097   0.469  0.6570 -1.0347 -0.2764
 1288SOL     OW 8420   8.216   7.707   9.996 -0.5732  0.0260  0.0167
 1288SOL    HW1 8421   8.130   7.746   9.978 -1.5316 -2.4704 -1.2738
 1288SOL    HW2 8422   8.198   7.634  10.054  0.5973 -0.8751 -0.7041
 1289SOL     OW 8423   6.478   8.763   0.032 -0.1842 -0.4368  0.0902
 1289SOL    HW1 8424   6.541   8.831   0.055  0.4149 -1.3493  1.2936
 1289SOL    HW2 8425   6.408   8.772   0.096 -0.0602 -0.9964  0.3089
 1290SOL     OW 8426   7.155   6.461   6.170 -0.0640 -0.2548 -0.1826
 1290SOL    HW1 8427   7.237   6.431   6.129  0.6130  0.4795  0.5972
 1290SOL    HW2 8428   7.184   6.519   6.240 -1.2506 -0.4130  0.4498
 1291SOL     OW 8429   4.119  10.709   0.811 -0.3698  0.3889 -0.6849
 1291SOL    HW1 8430   4.162  10.675   0.733  2.1689  0.2745  0.6625
 1291SOL    HW2 8431   4.093  10.798   0.788 -0.1961  0.1550 -1.8365
 1292SOL     OW 8432   9.717   5.891   8.401  0.0063 -0.4098  0.2665
 1292SOL    HW1 8433   9.708   5.986   8.411 -0.3571 -0.4420  0.2732
 1292SOL    HW2 8434   9.630   5.857   8.422  0.3379 -0.8026  1.0242
 1293SOL     OW 8435  11.370   6.100  10.983  0.2404 -0.8534 -0.2316
 1293SOL    HW1 8436  11.346   6.007  10.979 -1.9892 -0.3167 -0.6462
 1293SOL    HW2 8437  11.289   6.144  11.010  0.6260  1.1921 -2.1412
 1294SOL     OW 8438   6.999   5.385   9.056  0.7601  0.3717  0.1876
 1294SOL    HW1 8439   7.073   5.325   9.060 -0.4106 -1.1705 -0.3311
 1294SOL    HW2 8440   6.969   5.394   9.146 -0.4070 -1.6307  0.0439
 1295SOL     OW 8441   1.085   2.735   4.472  0.4777 -0.0456 -0.0255
 1295SOL    HW1 8442   1.134   2.786   4.407  0.8296  0.0817  0.3367
 1295SOL    HW2 8443   0.995   2.734   4.439  0.5195  0.5899 -0.1692
 1296SOL     OW 8444   3.255   3.105   9.555 -0.5228 -0.1964 -0.4373
 1296SOL    HW1 8445   3.229   3.114   9.647  1.5152 -1.7136  0.3557
 1296SOL    HW2 8446   3.236   3.013   9.534  0.6085 -0.3241 -0.9804
 1297SOL     OW 8447   7.142   3.378   1.902  0.2220 -0.5600 -0.0712
 1297SOL    HW1 8448   7.127   3.380   1.996  2.0079  1.2743  0.2426
 1297SOL    HW2 8449   7.235   3.357   1.893  0.1530 -0.3613 -1.4306
 1298SOL     OW 8450   0.869   2.836  10.712  0.3645  0.3413  0.4667
 1298SOL    HW1 8451   0.807   2.822  10.640  0.6147  0.2830  0.2615
 1298SOL    HW2 8452   0.825   2.800  10.789 -1.0736  2.7915  0.8991
 1299SOL     OW 8453   7.604   4.503  10.984 -0.1262 -0.3057  0.6379
 1299SOL    HW1 8454   7.510   4.518  10.993 -0.0551  1.4495 -0.9291
 1299SOL    HW2 8455   7.641   4.535  11.066 -0.6780  1.8971  0.1114
 1300SOL     OW 8456   2.481   7.943   4.681 -0.0595  0.1859 -0.0683
 1300SOL    HW1 8457   2.412   7.942   4.615  2.1872  0.7245 -2.6188
 1300SOL    HW2 8458   2.561   7.965   4.632  1.7326  0.9041  2.9008
 1301SOL     OW 8459   6.282   2.503   1.775  0.5520  0.6507  0.5981
 1301SOL    HW1 8460   6.204   2.544   1.811  1.0472  2.1465  0.0333
 1301SOL    HW2 8461   6.260   2.486   1.683  0.4287 -0.1642  0.7724
 1302SOL     OW 8462  11.972   3.940   0.538 -0.2009  0.2636 -0.1625
 1302SOL    HW1 8463  12.044   3.881   0.560 -0.1984  1.0673  2.2964
 1302SOL    HW2 8464  11.924   3.951   0.620 -2.8108  0.2452 -1.5676
 1303SOL     OW 8465  10.744   5.542   1.618  0.1209 -0.6230  0.0330
 1303SOL    HW1 8466  10.733   5.540   1.523  0.9032 -1.1819 -0.0539
 1303SOL    HW2 8467  10.804   5.615   1.633 -0.5987 -0.0489  0.1714
 1304SOL     OW 8468   1.632   1.586   2.442  0.3777 -0.1044 -0.4045
 1304SOL    HW1 8469   1.636   1.569   2.536  2.0572 -0.5493 -0.5222
 1304SOL    HW2 8470   1.575   1.662   2.434 -0.1506 -0.3272  0.9272
 1305SOL     OW 8471   9.857   2.743   1.412  0.1115 -0.0991 -0.4409
 1305SOL    HW1 8472   9.906   2.737   1.495  0.7510  1.6149 -0.6615
 1305SOL    HW2 8473   9.765   2.743   1.438  0.3028  2.2368  0.4812
 1306SOL     OW 8474  12.077  11.395   0.240 -0.5665  0.4048 -0.1567
 1306SOL    HW1 8475  12.090  11.326   0.174 -2.7780 -1.5624  1.2810
 1306SOL    HW2 8476  12.151  11.386   0.300  0.7312  1.3069 -1.5688
 1307SOL     OW 8477   6.620   2.744   4.293 -0.1148  0.3193  0.9686
 1307SOL    HW1 8478   6.644   2.830   4.326 -0.1687  0.5260  0.4693
 1307SOL    HW2 8479   6.632   2.685   4.368 -0.2703  0.7881  1.3654
 1308SOL     OW 8480   1.395   8.733   1.302 -0.1784 -0.3636 -0.4060
 1308SOL    HW1 8481   1.334   8.803   1.279 -0.4034  0.2384  1.8245
 1308SOL    HW2 8482   1.478   8.778   1.320  0.3417 -0.9492 -1.2482
 1309SOL     OW 8483   1.052  11.942   8.957  0.2035 -0.7215  0.3238
 1309SOL    HW1 8484   1.047  12.031   8.922 -2.2896 -0.4846  1.0829
 1309SOL    HW2 8485   1.146  11.927   8.971  0.8067  1.1947 -1.2196
 1310SOL     OW 8486  11.086   3.692   4.855  0.1974 -0.2061  0.0426
 1310SOL    HW1 8487  11.033   3.729   4.925  1.2782  2.3134 -0.3480
 1310SOL    HW2 8488  11.136   3.622   4.897 -1.9895 -1.3980  0.8169
 1311SOL     OW 8489   8.907   7.972   2.277  0.0857 -0.3955  0.6290
 1311SOL    HW1 8490   8.970   8.039   2.254 -0.1220 -0.6147 -0.6270
 1311SOL    HW2 8491   8.921   7.957   2.371 -0.2459  1.7739  1.0615
 1312SOL     OW 8492   0.747   7.614   1.829  0.8073  0.0485 -0.1303
 1312SOL    HW1 8493   0.789   7.532   1.856  1.9105  0.7502  0.3903
 1312SOL    HW2 8494   0.688   7.589   1.759  1.4510 -1.1315 -0.2853
 1313SOL     OW 8495   8.328   1.775  11.506 -0.4925 -0.2824  0.0616
 1313SOL    HW1 8496   8.319   1.832  11.429  2.7293  0.6150  0.2124
 1313SOL    HW2 8497   8.408   1.726  11.491 -1.3713 -2.3153  1.5450
 1314SOL     OW 8498   3.651   4.477   8.747  0.3498 -0.2411  0.7005
 1314SOL    HW1 8499   3.696   4.509   8.825  1.1813  0.3729 -0.0223
 1314SOL    HW2 8500   3.685   4.388   8.735 -0.6169 -0.7719  1.6627
 1315SOL     OW 8501   7.361   9.381   2.262  0.1783  0.4351  0.4870
 1315SOL    HW1 8502   7.331   9.348   2.346 -1.2098  0.5874  0.0715
 1315SOL    HW2 8503   7.450   9.345   2.252  0.3910  0.4797  2.0301
 1316SOL     OW 8504   6.783  11.066   8.782 -0.0348  0.2874  0.3878
 1316SOL    HW1 8505   6.860  11.014   8.760 -0.3003  0.7120 -1.7915
 1316SOL    HW2 8506   6.730  11.009   8.837 -0.0602 -1.5600 -1.4569
 1317SOL     OW 8507   1.152   5.102  11.573 -0.5583 -0.1454 -0.0997
 1317SOL    HW1 8508   1.102   5.020  11.582 -1.9713  0.7875  0.9474
 1317SOL    HW2 8509   1.100   5.155  11.513  1.3135 -0.6610 -2.3248
 1318SOL     OW 8510   2.507   4.948   7.206 -0.2451  0.0676  0.4782
 1318SOL    HW1 8511   2.474   4.954   7.295 -0.4609 -1.7325  0.5521
 1318SOL    HW2 8512   2.430   4.933   7.152  0.2550 -4.3776  0.6750
 1319SOL     OW 8513  10.120  10.129  11.818 -0.3944  0.1141  0.1411
 1319SOL    HW1 8514  10.174  10.190  11.768  0.3622 -1.1229 -0.5863
 1319SOL    HW2 8515  10.162  10.044  11.806 -3.0255 -1.1115 -1.3390
 1320SOL     OW 8516   5.351   6.115   3.635  0.2295  0.2472  0.5319
 1320SOL    HW1 8517   5.340   6.202   3.674 -0.2890  0.2774  0.3189
 1320SOL    HW2 8518   5.263   6.089   3.607  0.5281  0.0820 -0.3059
 1321SOL     OW 8519   3.466   2.824   7.420  0.5581  0.0079 -0.1315
 1321SOL    HW1 8520   3.444   2.860   7.334  0.7377  0.6370  0.0858
 1321SOL    HW2 8521   3.548   2.776   7.406  0.9942  0.7482 -0.1508
 1322SOL     OW 8522   9.876   7.020  11.284 -0.1912 -0.2090 -0.4848
 1322SOL    HW1 8523   9.805   7.076  11.312 -0.3008 -0.3397 -0.5015
 1322SOL    HW2 8524   9.946   7.034  11.348 -0.9198 -1.5215  0.6311
 1323SOL     OW 8525  11.439  10.453   5.900 -0.1688  0.1754 -1.2364
 1323SOL    HW1 8526  11.528  10.487   5.907 -0.0470 -0.4231  1.1593
 1323SOL    HW2 8527  11.447  10.359   5.917 -1.1304 -0.1061 -2.2226
 1324SOL     OW 8528   9.914  11.340   5.492  0.0960 -0.0605 -0.3887
 1324SOL    HW1 8529   9.988  11.400   5.485 -0.9917  1.2770 -0.9941
 1324SOL    HW2 8530   9.943  11.261   5.445  2.3603 -0.9442  2.2625
 1325SOL     OW 8531  11.505   5.937   4.991 -0.1732  0.4963 -0.3188
 1325SOL    HW1 8532  11.423   5.923   4.945  0.4581 -0.1875 -1.2749
 1325SOL    HW2 8533  11.481   5.989   5.068 -1.5713 -0.1835 -0.2679
 1326SOL     OW 8534   1.973   7.893   6.379  0.1899  0.3308  0.3970
 1326SOL    HW1 8535   1.950   7.800   6.384 -0.9948  0.6100  0.3831
 1326SOL    HW2 8536   2.043   7.896   6.314  1.8291 -0.8173  1.9960
 1327SOL     OW 8537   7.767   2.388  10.593  0.5609  0.0607  0.8392
 1327SOL    HW1 8538   7.755   2.333  10.516 -0.2872  1.3648 -0.0008
 1327SOL    HW2 8539   7.859   2.412  10.591  0.7212 -0.5373  0.6875
 1328SOL     OW 8540   7.631  11.163  11.018 -0.1321  0.1715  0.3254
 1328SOL    HW1 8541   7.649  11.225  11.089  0.4113  1.4555 -0.8877
 1328SOL    HW2 8542   7.545  11.190  10.984 -0.3019 -0.3160  0.3532
 1329SOL     OW 8543   6.115   6.842  10.833  0.1500 -0.8629 -0.6517
 1329SOL    HW1 8544   6.088   6.777  10.898 -0.6572 -0.1780 -0.2791
 1329SOL    HW2 8545   6.034   6.888  10.811  0.8128  0.3983 -0.4809
 1330SOL     OW 8546   6.780   6.964   4.084 -0.6545  0.2012  0.4927
 1330SOL    HW1 8547   6.719   6.891   4.076  0.6547 -0.7742 -1.4848
 1330SOL    HW2 8548   6.805   6.985   3.994 -0.1181  2.3619  1.0805
 1331SOL     OW 8549  10.747   5.109   5.091  0.4220  0.2654 -0.1347
 1331SOL    HW1 8550  10.816   5.066   5.041 -0.2080 -0.9390 -0.0178
 1331SOL    HW2 8551  10.696   5.037   5.128 -1.5015  1.0857 -1.0498
 1332SOL     OW 8552   0.725   5.891  11.955  0.7324  0.1356  0.0807
 1332SOL    HW1 8553   0.668   5.955  11.998  1.6160 -0.1914  1.8296
 1332SOL    HW2 8554   0.736   5.925  11.867 -0.0185  1.6102  0.5172
 1333SOL     OW 8555   9.928   2.208   4.866  0.0972 -0.4744  0.2970
 1333SOL    HW1 8556   9.925   2.270   4.939 -2.5119  1.1459 -1.0347
 1333SOL    HW2 8557   9.845   2.221   4.821  0.8770 -2.6743 -1.9534
 1334SOL     OW 8558   0.939  11.570   5.653  0.4144 -0.0349  0.1298
 1334SOL    HW1 8559   0.860  11.540   5.699  0.8764 -0.1731  0.8591
 1334SOL    HW2 8560   0.926  11.543   5.562 -1.5138  2.1526 -0.3439
 1335SOL     OW 8561   9.616   9.498   1.118  0.1862 -0.2541 -0.1230
 1335SOL    HW1 8562   9.659   9.536   1.195  0.4444  1.2598 -0.9798
 1335SOL    HW2 8563   9.545   9.446   1.154 -0.0515  0.8842  1.1413
 1336SOL     OW 8564  10.795   2.972   0.395 -0.0630 -0.3146  0.3239
 1336SOL    HW1 8565  10.829   3.060   0.410  0.5485 -0.3492 -0.7596
 1336SOL    HW2 8566  10.856   2.933   0.333 -0.1738 -1.6037  0.9826
 1337SOL     OW 8567   8.428   5.113   1.556  0.0031 -0.1037  0.0467
 1337SOL    HW1 8568   8.396   5.178   1.493  1.0772  0.6181  0.2132
 1337SOL    HW2 8569   8.436   5.161   1.638  2.0825 -0.0305 -0.1241
 1338SOL     OW 8570   8.419  11.468   3.321 -0.2070  0.2129  0.3608
 1338SOL    HW1 8571   8.510  11.455   3.350 -0.2316 -1.3933 -0.1787
 1338SOL    HW2 8572   8.394  11.552   3.358  1.1910  0.2411  1.3248
 1339SOL     OW 8573  11.279  10.744   0.370  0.0046  0.3319 -0.6243
 1339SOL    HW1 8574  11.320  10.686   0.305  1.8463  0.2596  0.5401
 1339SOL    HW2 8575  11.187  10.750   0.342  0.4646 -0.6758 -2.5112
 1340SOL     OW 8576  11.090   0.696   0.150  0.0159 -0.5027 -0.0123
 1340SOL    HW1 8577  10.994   0.698   0.160  0.0280  1.3439  0.0636
 1340SOL    HW2 8578  11.118   0.786   0.167  1.9172 -1.2615  1.2306
 1341SOL     OW 8579  10.333  10.634   9.366 -0.3887 -0.6996 -0.2690
 1341SOL    HW1 8580  10.376  10.572   9.307 -0.5027 -0.4384 -0.6295
 1341SOL    HW2 8581  10.263  10.584   9.408 -1.1373 -0.5593 -1.3151
 1342SOL     OW 8582   1.298   2.795   3.091  0.0958  0.3535  0.3188
 1342SOL    HW1 8583   1.248   2.876   3.084  0.5106  0.4856 -1.7296
 1342SOL    HW2 8584   1.251   2.743   3.156 -2.0385  0.9365 -0.6736
 1343SOL     OW 8585   2.733   4.587   9.223  0.1548  0.3170  0.2536
 1343SOL    HW1 8586   2.747   4.673   9.261 -2.1063 -0.1205  2.3476
 1343SOL    HW2 8587   2.781   4.527   9.280 -1.2245 -0.1081  1.0144
 1344SOL     OW 8588   4.385  10.344   2.983 -0.3853 -0.0789 -0.3079
 1344SOL    HW1 8589   4.326  10.286   2.934 -0.6202 -0.2313  0.1563
 1344SOL    HW2 8590   4.334  10.372   3.059 -0.4250  1.0630 -0.7308
 1345SOL     OW 8591   8.717   3.639   9.997 -0.4823 -0.5220  0.4177
 1345SOL    HW1 8592   8.673   3.564   9.957  0.3268  0.4480 -2.5838
 1345SOL    HW2 8593   8.805   3.637   9.960 -0.3704  1.7469  0.4064
 1346SOL     OW 8594   1.774   0.365   5.788  0.2183 -0.6250  0.1135
 1346SOL    HW1 8595   1.728   0.378   5.871  0.9085 -0.6775  0.5064
 1346SOL    HW2 8596   1.753   0.443   5.737 -1.6122 -1.3651 -0.3435
 1347SOL     OW 8597   0.230   2.372   9.519 -0.1031  0.3199 -0.0653
 1347SOL    HW1 8598   0.200   2.303   9.459  1.5822  0.7824 -1.5432
 1347SOL    HW2 8599   0.317   2.344   9.546  0.9265  2.1727 -1.2805
 1348SOL     OW 8600   2.872   2.406   3.824  0.2871 -0.2144 -0.0276
 1348SOL    HW1 8601   2.907   2.431   3.910  0.2378 -0.5835  0.1024
 1348SOL    HW2 8602   2.869   2.488   3.774 -0.2078  0.0955  0.5037
 1349SOL     OW 8603   7.615  10.876  10.961 -0.0999  0.3636 -0.2783
 1349SOL    HW1 8604   7.598  10.970  10.960 -0.7477  0.3058  1.3941
 1349SOL    HW2 8605   7.534  10.837  10.928  0.1232  0.3947 -0.8563
 1350SOL     OW 8606  11.498   3.708  10.351  0.4535 -0.0562  0.0342
 1350SOL    HW1 8607  11.449   3.748  10.423 -0.4925  2.6547 -1.9514
 1350SOL    HW2 8608  11.489   3.614  10.366 -3.0454  0.3213  1.3288
 1351SOL     OW 8609   6.425   9.682   8.180 -0.5339 -0.0928 -0.1307
 1351SOL    HW1 8610   6.397   9.773   8.194 -0.7287 -0.3434  1.2890
 1351SOL    HW2 8611   6.347   9.638   8.146 -1.0240 -0.1189  0.9620
 1352SOL     OW 8612   9.813   9.032   7.260 -0.2446 -0.0820 -0.8169
 1352SOL    HW1 8613   9.851   9.069   7.340  0.5208 -1.0802 -0.6990
 1352SOL    HW2 8614   9.795   9.108   7.204  2.2886  0.4644 -1.0220
 1353SOL     OW 8615  10.284   0.350   5.517 -0.4896 -0.0366 -0.2569
 1353SOL    HW1 8616  10.273   0.285   5.448  1.0601 -0.3412 -0.2658
 1353SOL    HW2 8617  10.371   0.332   5.552 -0.1697  1.8123 -0.0085
 1354SOL     OW 8618   0.351   4.857   5.073 -0.0061 -0.2541  0.3825
 1354SOL    HW1 8619   0.399   4.883   5.151  0.2054  1.0545 -0.1536
 1354SOL    HW2 8620   0.338   4.938   5.024 -2.2489 -0.6377  0.2028
 1355SOL     OW 8621   0.516   0.529   4.748 -0.0584  0.6863 -0.4038
 1355SOL    HW1 8622   0.593   0.489   4.707 -0.5877 -1.0419  0.1835
 1355SOL    HW2 8623   0.459   0.455   4.768 -2.6381  2.0061 -2.2565
 1356SOL     OW 8624  11.128   5.786   1.113  0.1271 -0.2702 -0.2139
 1356SOL    HW1 8625  11.166   5.855   1.058  0.1488  0.3228  0.5351
 1356SOL    HW2 8626  11.055   5.828   1.157  0.0245 -0.7810  0.1096
 1357SOL     OW 8627   5.478  11.565   2.412 -0.2453 -0.0422  0.2270
 1357SOL    HW1 8628   5.472  11.563   2.317  1.9635  1.8036 -0.0311
 1357SOL    HW2 8629   5.502  11.655   2.433 -0.6214 -0.4118  2.5623
 1358SOL     OW 8630   2.265   1.161  11.263 -0.2256  0.2142  0.3585
 1358SOL    HW1 8631   2.192   1.118  11.307 -2.5631  1.2590 -2.1963
 1358SOL    HW2 8632   2.258   1.253  11.290 -0.0812  0.3806 -0.1558
 1359SOL     OW 8633   6.974   1.634   0.891 -0.3803 -0.4257  0.5696
 1359SOL    HW1 8634   7.056   1.646   0.842 -0.2403 -1.0259  0.6554
 1359SOL    HW2 8635   6.970   1.710   0.948  1.6583 -1.8181  2.7305
 1360SOL     OW 8636   1.993   4.036   6.844 -0.1427  0.2435  0.0558
 1360SOL    HW1 8637   1.952   4.001   6.764  0.8262  0.1744 -0.4307
 1360SOL    HW2 8638   2.087   4.035   6.824  0.0461  1.0546  0.8753
 1361SOL     OW 8639  11.294  11.918   0.966  0.1197 -0.3954 -0.2467
 1361SOL    HW1 8640  11.272  11.992   0.910 -0.9386  0.5114  1.2778
 1361SOL    HW2 8641  11.246  11.844   0.928  0.2519 -0.0536 -1.1067
 1362SOL     OW 8642   3.584   9.401   2.960  0.1430 -0.0739  0.0764
 1362SOL    HW1 8643   3.526   9.368   2.891  0.8516 -1.2157  0.0003
 1362SOL    HW2 8644   3.587   9.330   3.024  2.0872 -0.3935 -0.3142
 1363SOL     OW 8645   5.478   6.612   7.680 -0.1093 -0.2255 -0.0924
 1363SOL    HW1 8646   5.500   6.584   7.769  1.1482  1.0861  0.0326
 1363SOL    HW2 8647   5.471   6.707   7.686  1.4779  0.0283 -1.6994
 1364SOL     OW 8648   5.378   4.037   5.782 -0.5536 -0.2579 -0.2392
 1364SOL    HW1 8649   5.359   4.081   5.865 -1.2823  0.6727 -0.8879
 1364SOL    HW2 8650   5.421   4.104   5.728  0.2208 -0.9528 -0.5014
 1365SOL     OW 8651   3.837  11.094   7.535 -0.1757 -0.2842 -0.0524
 1365SOL    HW1 8652   3.836  11.032   7.462  0.8689 -0.7451  0.3051
 1365SOL    HW2 8653   3.881  11.171   7.499 -0.7190 -0.0578 -0.2470
 1366SOL     OW 8654   5.998   3.890   3.776  0.5733 -0.4722  0.7124
 1366SOL    HW1 8655   6.024   3.798   3.769  1.4130 -0.1552 -0.8393
 1366SOL    HW2 8656   6.024   3.916   3.864 -3.3946 -2.7556  2.8219
 1367SOL     OW 8657   2.804   2.446   6.984 -0.5142 -0.3562  0.1065
 1367SOL    HW1 8658   2.894   2.443   6.951 -1.0023  0.2535 -1.3700
 1367SOL    HW2 8659   2.769   2.529   6.949 -1.2618  0.0344  1.7093
 1368SOL     OW 8660   3.291  10.150   3.957  0.1115 -0.0532 -0.1071
 1368SOL    HW1 8661   3.351  10.193   4.018 -1.5685  1.5186  0.5186
 1368SOL    HW2 8662   3.211  10.202   3.960 -0.8769 -1.3295 -1.8720
 1369SOL     OW 8663   6.072   6.941   5.983  0.3569  0.6526  0.0067
 1369SOL    HW1 8664   6.014   6.965   5.911  0.7173  0.2805 -0.4178
 1369SOL    HW2 8665   6.047   6.851   6.005  0.6529  0.5525 -0.0601
 1370SOL     OW 8666   4.907   3.991   9.048  0.0935 -0.4038 -0.0976
 1370SOL    HW1 8667   4.940   4.078   9.070 -1.1650  0.3778 -1.0933
 1370SOL    HW2 8668   4.813   4.005   9.035 -0.1803 -1.9913  0.0756
 1371SOL     OW 8669   5.963   6.522   3.479  0.4634  0.1090 -0.2148
 1371SOL    HW1 8670   5.961   6.613   3.511  1.4661 -0.1263  0.5563
 1371SOL    HW2 8671   5.994   6.530   3.388 -0.0539  0.5835 -0.3580
 1372SOL     OW 8672   4.279   5.888   9.517  0.2079 -0.2037  0.2084
 1372SOL    HW1 8673   4.338   5.887   9.441  1.0651 -1.4823  0.8521
 1372SOL    HW2 8674   4.335   5.866   9.591 -0.5957  1.1820  1.2544
 1373SOL     OW 8675  10.704   8.549   1.606  0.3861  0.3514  0.2090
 1373SOL    HW1 8676  10.627   8.601   1.628 -0.0106 -0.2719  0.3033
 1373SOL    HW2 8677  10.713   8.559   1.511 -1.0885 -1.2829 -0.1463
 1374SOL     OW 8678  10.039   5.721   5.064 -0.2395  0.0133  0.1109
 1374SOL    HW1 8679   9.962   5.777   5.054 -0.1903  0.2597  1.0560
 1374SOL    HW2 8680  10.104   5.777   5.107  0.0703 -0.5386  0.3682
 1375SOL     OW 8681  11.962  10.211   0.271 -0.1633  0.2370  0.0221
 1375SOL    HW1 8682  11.871  10.239   0.280 -0.3334 -0.9837  3.5367
 1375SOL    HW2 8683  11.958  10.115   0.270  1.1182  0.0976  2.3027
 1376SOL     OW 8684   5.463  11.063   6.369 -0.3880  0.1637 -0.0500
 1376SOL    HW1 8685   5.371  11.081   6.389 -1.1366 -1.9830 -1.1446
 1376SOL    HW2 8686   5.489  11.133   6.310 -1.5482  0.4467 -0.2590
 1377SOL     OW 8687   8.674  11.425   0.033  0.8164  0.0505  0.0601
 1377SOL    HW1 8688   8.725  11.373   0.095 -0.7011 -2.4394 -0.6676
 1377SOL    HW2 8689   8.687  11.382  -0.052 -0.9899  0.4586 -0.4557
 1378SOL     OW 8690   6.247   2.553   9.533  0.1395 -0.3771  0.2387
 1378SOL    HW1 8691   6.170   2.558   9.589  0.2745 -0.8065  0.4599
 1378SOL    HW2 8692   6.224   2.607   9.457  0.3189  1.0113  1.1253
 1379SOL     OW 8693   9.123   8.734  10.790  0.4413 -0.2976  0.6911
 1379SOL    HW1 8694   9.087   8.684  10.717  0.9159 -0.3429  0.4845
 1379SOL    HW2 8695   9.135   8.670  10.860  0.2557 -0.3113  0.7094
 1380SOL     OW 8696  11.217   2.993   1.654 -0.2773  0.1382  0.1309
 1380SOL    HW1 8697  11.276   3.018   1.725 -0.4973 -0.8350  0.6815
 1380SOL    HW2 8698  11.151   2.938   1.697  0.7842 -2.2831 -1.1279
 1381SOL     OW 8699   0.117   8.320   7.521  0.7223 -0.7348 -0.1879
 1381SOL    HW1 8700   0.183   8.312   7.452  0.9492  1.5675 -0.3201
 1381SOL    HW2 8701   0.045   8.367   7.479  0.4420 -0.2108  0.8656
 1382SOL     OW 8702   7.643   2.229   1.019 -0.3510  0.3247  0.1703
 1382SOL    HW1 8703   7.571   2.265   1.070  0.1163  0.3947  0.7860
 1382SOL    HW2 8704   7.680   2.160   1.074  2.1504  2.4435  1.3666
 1383SOL     OW 8705   6.994  11.401   5.923 -0.3719  0.5386  0.7731
 1383SOL    HW1 8706   7.037  11.430   5.843  0.4223 -0.5700  0.7747
 1383SOL    HW2 8707   7.053  11.430   5.993  1.3599 -2.4068  0.7060
 1384SOL     OW 8708   0.348   1.201   5.158 -0.1844 -0.0005  0.1095
 1384SOL    HW1 8709   0.297   1.210   5.077  0.2485  1.1633 -0.0484
 1384SOL    HW2 8710   0.347   1.107   5.176 -2.0847 -0.0434 -0.0785
 1385SOL     OW 8711   0.986   8.601   6.835 -0.0156 -0.1127 -0.2875
 1385SOL    HW1 8712   1.074   8.593   6.873  0.4574 -0.1461 -1.3532
 1385SOL    HW2 8713   0.987   8.687   6.792 -0.3140 -0.3548 -0.7826
 1386SOL     OW 8714  10.401   1.150   1.791  0.0466 -0.3307  0.2809
 1386SOL    HW1 8715  10.344   1.226   1.805 -0.5767 -0.4620 -1.3683
 1386SOL    HW2 8716  10.344   1.084   1.750  1.4606 -0.2937 -1.9078
 1387SOL     OW 8717   1.118   9.687   4.442 -0.5808 -0.5068  0.2472
 1387SOL    HW1 8718   1.203   9.722   4.415  0.5335 -2.2379  1.2997
 1387SOL    HW2 8719   1.059   9.711   4.370  1.0009 -0.1307 -1.0085
 1388SOL     OW 8720   6.543   5.164  10.122  0.0677  0.7243  0.3374
 1388SOL    HW1 8721   6.473   5.177  10.186 -0.7136  0.1664 -0.3926
 1388SOL    HW2 8722   6.532   5.074  10.092  0.2417  1.0701 -0.7975
 1389SOL     OW 8723   7.329   6.569   8.590 -0.3331  0.1245  0.0509
 1389SOL    HW1 8724   7.379   6.644   8.559  2.0771 -0.8973  1.2270
 1389SOL    HW2 8725   7.349   6.499   8.528 -0.0644 -0.3801  0.6962
 1390SOL     OW 8726   3.979   3.457   0.063 -0.2752  0.1539 -0.0699
 1390SOL    HW1 8727   4.074   3.451   0.050  0.1805 -0.4423  2.9308
 1390SOL    HW2 8728   3.963   3.550   0.079 -0.1858  0.2262 -0.3893
 1391SOL     OW 8729  11.785   5.725   8.313  0.0538  0.5969 -0.2295
 1391SOL    HW1 8730  11.789   5.698   8.404  1.1629 -0.9302 -0.6986
 1391SOL    HW2 8731  11.738   5.809   8.315 -1.3068 -0.1467  1.5423
 1392SOL     OW 8732  10.180   8.911   0.965 -0.2473  0.0820 -0.1362
 1392SOL    HW1 8733  10.139   8.831   0.998  1.3997 -0.3542  0.9453
 1392SOL    HW2 8734  10.223   8.950   1.041  0.3790  1.1148 -0.9875
 1393SOL     OW 8735   9.811   6.859   7.679 -0.1591  0.2305 -0.0637
 1393SOL    HW1 8736   9.724   6.823   7.698  0.6218 -0.9560  1.5869
 1393SOL    HW2 8737   9.796   6.951   7.660 -1.7610  0.0810  0.3662
 1394SOL     OW 8738  10.198   4.389   8.852 -0.6415  0.4428 -0.2274
 1394SOL    HW1 8739  10.148   4.422   8.777  1.7491  0.5879 -1.8781
 1394SOL    HW2 8740  10.233   4.306   8.823  0.9855  0.8708  0.4114
 1395SOL     OW 8741   4.279   6.615   2.461 -0.5822 -0.2413  0.4314
 1395SOL    HW1 8742   4.234   6.566   2.392  0.4323 -0.3788 -0.1392
 1395SOL    HW2 8743   4.282   6.555   2.535 -1.5817 -0.1303  0.5762
 1396SOL     OW 8744   1.249   4.145   2.469  0.0430  0.1282  0.1546
 1396SOL    HW1 8745   1.305   4.104   2.536  0.3707 -0.1471 -0.2804
 1396SOL    HW2 8746   1.263   4.239   2.480  0.0473  0.0897  0.5102
 1397SOL     OW 8747   6.110   5.426   4.142  0.3248 -0.1539  0.1468
 1397SOL    HW1 8748   6.192   5.461   4.176 -0.0728  0.1810  0.7740
 1397SOL    HW2 8749   6.079   5.367   4.210  0.3201 -0.7048 -0.3297
 1398SOL     OW 8750   0.808   9.337   3.060 -0.7640  0.3789 -0.2954
 1398SOL    HW1 8751   0.722   9.342   3.019 -1.2592 -0.6165  0.5983
 1398SOL    HW2 8752   0.831   9.244   3.057 -0.8116  0.2638  1.6373
 1399SOL     OW 8753  10.363   5.421   9.990  0.3910 -0.2336  0.8988
 1399SOL    HW1 8754  10.432   5.468   9.943  1.6881 -1.6305  1.3190
 1399SOL    HW2 8755  10.283   5.439   9.940  1.5516 -0.9336 -1.3672
 1400SOL     OW 8756   7.644   4.651   2.978 -0.6798 -0.3962  0.2054
 1400SOL    HW1 8757   7.558   4.692   2.989 -0.6024 -0.5051  1.3349
 1400SOL    HW2 8758   7.654   4.596   3.055 -0.2121 -1.5219 -0.6390
 1401SOL     OW 8759   1.387  10.418   6.899 -0.0240  0.0577  0.2878
 1401SOL    HW1 8760   1.321  10.414   6.969  0.7240  0.4230  1.0232
 1401SOL    HW2 8761   1.351  10.361   6.830 -1.2940  0.5414  0.5104
 1402SOL     OW 8762  11.200   0.223   1.163  0.1012 -0.4547 -0.0461
 1402SOL    HW1 8763  11.294   0.228   1.146  0.1297 -2.8682 -1.0499
 1402SOL    HW2 8764  11.179   0.130   1.153 -2.3185 -0.0420  0.6106
 1403SOL     OW 8765   9.736   4.590   8.084  0.3963 -0.0601 -0.2859
 1403SOL    HW1 8766   9.716   4.683   8.070  1.2386 -0.1102 -2.1311
 1403SOL    HW2 8767   9.713   4.548   8.001  1.4151 -1.2563  0.0064
 1404SOL     OW 8768   2.777   5.766   5.060  0.2087  0.0875  0.3469
 1404SOL    HW1 8769   2.765   5.748   5.154  2.5907 -0.1063  0.6779
 1404SOL    HW2 8770   2.788   5.861   5.055  0.8232  0.0251  0.3898
 1405SOL     OW 8771   8.610   9.003   4.390  0.4643  0.0542 -0.8904
 1405SOL    HW1 8772   8.668   9.043   4.325  1.1776 -0.7920 -0.7947
 1405SOL    HW2 8773   8.649   9.026   4.474 -0.7522  1.6045 -0.6909
 1406SOL     OW 8774   4.652   9.810   3.059 -0.4475  0.0444  0.1955
 1406SOL    HW1 8775   4.637   9.879   3.124 -0.8131 -0.6649  0.8935
 1406SOL    HW2 8776   4.653   9.729   3.111  0.4866 -0.4269 -0.5396
 1407SOL     OW 8777   1.590   4.209   4.428  0.5651 -0.2028 -0.4943
 1407SOL    HW1 8778   1.497   4.194   4.446  0.7081 -1.0440 -0.3782
 1407SOL    HW2 8779   1.617   4.274   4.492  0.3879 -1.0337  0.4581
 1408SOL     OW 8780   3.660   0.272  11.687  0.5899 -0.1001  0.2163
 1408SOL    HW1 8781   3.671   0.242  11.778  2.0194 -0.2526  0.0175
 1408SOL    HW2 8782   3.747   0.264  11.649 -0.3000 -1.4669 -1.6272
 1409SOL     OW 8783   4.844   8.788   2.267 -0.0965 -0.2530 -0.1097
 1409SOL    HW1 8784   4.901   8.734   2.213  0.2241  0.3098 -0.3457
 1409SOL    HW2 8785   4.808   8.728   2.332 -1.0858 -1.1095 -1.4058
 1410SOL     OW 8786  10.187   2.724   4.912 -0.1678 -0.0063  0.2750
 1410SOL    HW1 8787  10.181   2.806   4.863 -1.3984 -0.4818 -0.4197
 1410SOL    HW2 8788  10.105   2.678   4.892  0.5829 -1.4966  0.4853
 1411SOL     OW 8789   5.876   9.983   9.317 -0.0749  0.4489  0.1359
 1411SOL    HW1 8790   5.886   9.899   9.362  0.4000  0.7146  0.5410
 1411SOL    HW2 8791   5.796   9.973   9.265 -1.2242  0.4860  1.8382
 1412SOL     OW 8792   7.875   6.070   1.431 -0.0842  0.4397  0.0835
 1412SOL    HW1 8793   7.967   6.096   1.439  0.0548 -0.2760  1.0346
 1412SOL    HW2 8794   7.857   6.021   1.511 -1.1151  0.0102 -0.3913
 1413SOL     OW 8795   7.054   4.665   0.677  0.2467 -0.9973 -0.0012
 1413SOL    HW1 8796   7.065   4.715   0.757  0.0376  1.9618 -1.7028
 1413SOL    HW2 8797   6.959   4.659   0.666  0.2785 -0.8087 -0.3736
 1414SOL     OW 8798  11.423   3.408   5.514 -0.2419  0.3172 -0.8527
 1414SOL    HW1 8799  11.337   3.426   5.551  0.1582  0.4711  0.0460
 1414SOL    HW2 8800  11.445   3.487   5.464 -1.0338 -0.1223 -1.9088
 1415SOL     OW 8801   1.580   7.967   4.154 -0.5965  0.0477 -0.7638
 1415SOL    HW1 8802   1.496   7.920   4.151  0.3365 -1.8887  0.9616
 1415SOL    HW2 8803   1.567   8.035   4.220 -1.0340  0.2631 -1.0675
 1416SOL     OW 8804  11.375  10.917   7.844 -0.1156 -0.2954  0.0562
 1416SOL    HW1 8805  11.337  10.832   7.868 -1.4842  0.8860  2.4943
 1416SOL    HW2 8806  11.300  10.972   7.822  0.6199  0.6636 -0.1313
 1417SOL     OW 8807  10.882   8.175   6.812 -0.1882 -0.5998 -0.1987
 1417SOL    HW1 8808  10.833   8.214   6.885 -1.0939  0.5040 -1.3585
 1417SOL    HW2 8809  10.815   8.146   6.751  0.5349 -2.3405 -0.2344
 1418SOL     OW 8810  10.063   5.638   1.760 -0.0543 -0.3686 -0.5341
 1418SOL    HW1 8811  10.020   5.694   1.695 -0.1750 -0.4364 -0.5143
 1418SOL    HW2 8812  10.009   5.647   1.838  1.0982  1.1318  0.1411
 1419SOL     OW 8813   2.273   6.368   7.013 -0.5592  0.0646 -0.5678
 1419SOL    HW1 8814   2.317   6.303   7.069 -0.8652  0.7133  0.4488
 1419SOL    HW2 8815   2.187   6.379   7.053 -0.1340  1.8812 -0.0955
 1420SOL     OW 8816   4.103  11.312   5.418 -0.3243 -0.2521  0.4897
 1420SOL    HW1 8817   4.041  11.356   5.359 -0.3986 -0.7185  0.2193
 1420SOL    HW2 8818   4.062  11.317   5.504 -0.5752 -0.2538  0.3702
 1421SOL     OW 8819   9.730   1.677   1.213 -0.4632  0.4845  0.7391
 1421SOL    HW1 8820   9.813   1.647   1.176 -1.3281 -0.3309 -0.6204
 1421SOL    HW2 8821   9.737   1.658   1.306  0.6448 -0.1158  0.5503
 1422SOL     OW 8822   5.349   7.275   3.763 -0.3058 -0.1006 -0.6059
 1422SOL    HW1 8823   5.322   7.197   3.811 -0.1903  0.9786  1.2942
 1422SOL    HW2 8824   5.268   7.325   3.751 -0.3018 -0.2695 -1.3889
 1423SOL     OW 8825   6.887   8.350   0.973  0.0223 -0.0778 -0.0013
 1423SOL    HW1 8826   6.877   8.439   0.938  1.2192 -0.2176 -0.7790
 1423SOL    HW2 8827   6.804   8.307   0.952 -0.8377  1.0311  0.9915
 1424SOL     OW 8828   3.306   1.450   2.505 -0.1942  0.1874 -0.3463
 1424SOL    HW1 8829   3.309   1.545   2.497 -0.0690  0.1071 -1.4791
 1424SOL    HW2 8830   3.373   1.419   2.445 -0.0502 -0.6122  0.2205
 1425SOL     OW 8831   1.497   5.150   9.397  0.4224 -0.3573 -0.4088
 1425SOL    HW1 8832   1.523   5.170   9.486 -2.2992 -1.9780  0.8833
 1425SOL    HW2 8833   1.579   5.130   9.352  1.7546 -1.5282  2.2987
 1426SOL     OW 8834   0.506   3.412   1.111  0.0702  0.8633 -0.1242
 1426SOL    HW1 8835   0.526   3.414   1.017 -1.9428  1.8741 -0.5938
 1426SOL    HW2 8836   0.499   3.319   1.132 -1.0080  0.6313 -1.3781
 1427SOL     OW 8837   8.574   0.078   2.689  0.1690 -1.0763  0.0021
 1427SOL    HW1 8838   8.494   0.035   2.717 -0.5974  0.3255  0.0387
 1427SOL    HW2 8839   8.545   0.160   2.648  1.5933 -0.3497  0.3730
 1428SOL     OW 8840   3.675   4.503   1.429 -0.2852  0.6360 -0.0353
 1428SOL    HW1 8841   3.745   4.540   1.483  0.6504 -1.4646  0.3061
 1428SOL    HW2 8842   3.604   4.485   1.491 -0.5198  1.2641 -0.1085
 1429SOL     OW 8843  10.521   0.779   9.914  0.0718 -0.3591 -0.1928
 1429SOL    HW1 8844  10.450   0.841   9.896 -0.6481 -0.5258  1.7538
 1429SOL    HW2 8845  10.600   0.833   9.916 -0.5126  0.5161  1.2148
 1430SOL     OW 8846   4.068   7.340   4.191  0.1473 -0.6718  0.7377
 1430SOL    HW1 8847   4.063   7.323   4.097 -0.9825  0.3239  0.5852
 1430SOL    HW2 8848   3.984   7.381   4.212  0.4382 -0.7503  2.1626
 1431SOL     OW 8849   9.418  11.790  10.384  0.2894 -0.0138  0.4485
 1431SOL    HW1 8850   9.375  11.721  10.435  0.4268  0.8014  1.7033
 1431SOL    HW2 8851   9.485  11.744  10.334 -0.2075 -0.9163  0.5922
 1432SOL     OW 8852   3.054  10.933   2.086 -0.1605 -0.0320  0.3929
 1432SOL    HW1 8853   3.025  10.958   2.174 -0.3597  0.5612  0.1603
 1432SOL    HW2 8854   3.093  10.846   2.098  0.4253  0.3233  1.1900
 1433SOL     OW 8855  10.686   3.876   9.828 -0.1018  0.2368  0.0109
 1433SOL    HW1 8856  10.690   3.928   9.748 -1.9404  0.1824 -0.1590
 1433SOL    HW2 8857  10.626   3.805   9.807  2.2887 -1.9870  0.2663
 1434SOL     OW 8858   5.146  11.761  10.123  0.3910  0.2594  0.6113
 1434SOL    HW1 8859   5.167  11.826  10.057 -1.2484  0.8899  0.6511
 1434SOL    HW2 8860   5.226  11.710  10.134  0.4564 -0.5791 -2.6324
 1435SOL     OW 8861  10.869   3.380   8.191  0.3033 -0.5025  0.3685
 1435SOL    HW1 8862  10.811   3.452   8.168 -0.4405 -1.0103  0.6126
 1435SOL    HW2 8863  10.814   3.319   8.241  0.7913 -1.4587 -0.2144
 1436SOL     OW 8864   7.099   4.576   8.562  0.2933 -0.0675 -0.7012
 1436SOL    HW1 8865   7.035   4.578   8.491  1.0243  0.0960 -1.3766
 1436SOL    HW2 8866   7.059   4.522   8.630 -0.6951  0.3146 -0.9725
 1437SOL     OW 8867   1.999   9.198   9.785 -0.2049 -0.6806  0.2508
 1437SOL    HW1 8868   2.004   9.281   9.739 -0.0130 -0.9063 -0.1353
 1437SOL    HW2 8869   2.089   9.178   9.809 -0.0253 -1.5388 -1.0302
 1438SOL     OW 8870   6.029   7.318   4.448 -0.3795  0.3576  0.3435
 1438SOL    HW1 8871   6.033   7.412   4.465  0.5969 -0.1040  3.3161
 1438SOL    HW2 8872   5.936   7.297   4.444 -0.6197  1.3109  0.7802
 1439SOL     OW 8873   9.587   3.659  11.408 -0.2398 -0.1358 -0.1652
 1439SOL    HW1 8874   9.503   3.675  11.450 -0.8142 -0.7264 -1.0424
 1439SOL    HW2 8875   9.639   3.736  11.428 -0.4923 -0.3915  1.5776
 1440SOL     OW 8876   8.237   4.462  11.992 -0.0150  0.5504 -0.2623
 1440SOL    HW1 8877   8.251   4.500  11.905  0.7229 -0.3407 -0.5576
 1440SOL    HW2 8878   8.321   4.420  12.013 -0.7605 -0.8671  0.0396
 1441SOL     OW 8879   1.142   6.175   3.461  0.0168 -0.3648 -0.3994
 1441SOL    HW1 8880   1.211   6.141   3.519  0.0526 -0.1839 -0.3344
 1441SOL    HW2 8881   1.063   6.174   3.514 -0.1697 -1.1990 -0.6840
 1442SOL     OW 8882   7.744   7.249   7.392  0.4228  0.1736  0.1585
 1442SOL    HW1 8883   7.776   7.164   7.363  0.7345 -0.4221  2.1313
 1442SOL    HW2 8884   7.823   7.299   7.411  0.2388  0.1586  1.0111
 1443SOL     OW 8885   9.733   2.643   3.714 -0.7348  0.2340 -0.0815
 1443SOL    HW1 8886   9.795   2.659   3.643  0.3324  1.0828  0.9864
 1443SOL    HW2 8887   9.666   2.587   3.675  1.7218 -2.4992 -0.7856
 1444SOL     OW 8888   9.744   2.265   2.351 -0.1097 -0.0384 -0.3526
 1444SOL    HW1 8889   9.776   2.208   2.281 -0.9557 -0.9657 -0.0130
 1444SOL    HW2 8890   9.797   2.242   2.427  0.7396  0.8982 -0.6312
 1445SOL     OW 8891  11.192   1.376   6.651  0.6344  0.2319  0.0318
 1445SOL    HW1 8892  11.210   1.377   6.557 -1.5112  0.7807 -0.4252
 1445SOL    HW2 8893  11.183   1.469   6.674 -0.7179  0.0402  0.3460
 1446SOL     OW 8894   2.570   8.476   7.273 -0.4410  0.3265  0.6089
 1446SOL    HW1 8895   2.580   8.541   7.203  0.3048  0.1017  0.4952
 1446SOL    HW2 8896   2.560   8.529   7.353  0.9906  0.6117  0.6309
 1447SOL     OW 8897   7.821   3.000   1.364 -0.1968  0.3011  0.1839
 1447SOL    HW1 8898   7.842   2.940   1.436  0.0159 -0.4282 -0.4755
 1447SOL    HW2 8899   7.732   2.977   1.339 -0.5012  0.9803  0.6205
 1448SOL     OW 8900   2.271   4.916   7.061 -0.1139 -0.3275 -0.4256
 1448SOL    HW1 8901   2.185   4.884   7.035 -0.6501  0.9794 -0.3324
 1448SOL    HW2 8902   2.262   5.011   7.062  0.9547 -0.2161  0.9088
 1449SOL     OW 8903   2.816   5.883   5.316  0.5949  0.1450  0.2589
 1449SOL    HW1 8904   2.755   5.957   5.314  1.4234  0.8347 -0.4927
 1449SOL    HW2 8905   2.902   5.924   5.326  1.0571 -0.7388 -0.0384
 1450SOL     OW 8906   5.975  11.903  11.674 -0.4682 -0.2860 -0.4967
 1450SOL    HW1 8907   5.967  11.944  11.761  0.7662  0.0746 -0.5389
 1450SOL    HW2 8908   5.967  11.976  11.613 -3.9994 -0.8070 -0.8926
 1451SOL     OW 8909   0.527   8.727   7.241 -0.4395  0.2441  0.0448
 1451SOL    HW1 8910   0.612   8.695   7.210 -0.6552  1.0237 -1.4403
 1451SOL    HW2 8911   0.512   8.807   7.190 -2.0878  0.0790  0.2456
 1452SOL     OW 8912   0.211   0.021   1.499 -0.4010 -0.0259  0.0963
 1452SOL    HW1 8913   0.170  -0.006   1.582 -0.4488 -1.1312 -0.2698
 1452SOL    HW2 8914   0.304   0.029   1.521 -0.5608  0.7912  0.5162
 1453SOL     OW 8915   3.536   9.130   1.293 -0.1352 -0.1654 -0.2030
 1453SOL    HW1 8916   3.607   9.095   1.239 -0.7376 -2.5033  0.4416
 1453SOL    HW2 8917   3.486   9.185   1.233  1.5468  0.6707 -0.9370
 1454SOL     OW 8918   0.097   2.359   5.988 -0.4469  0.1042  0.1624
 1454SOL    HW1 8919   0.126   2.446   5.960 -0.4252  1.1517  3.1152
 1454SOL    HW2 8920   0.002   2.367   5.997 -0.5920 -0.5580 -0.6131
 1455SOL     OW 8921   2.164   2.430  11.441  0.6663 -0.6366  0.2397
 1455SOL    HW1 8922   2.243   2.401  11.487  1.2024 -0.0713 -0.3107
 1455SOL    HW2 8923   2.144   2.516  11.479  0.5259 -0.6152  0.1169
 1456SOL     OW 8924  11.715   3.218   1.985 -0.3881  0.0325 -0.2104
 1456SOL    HW1 8925  11.779   3.201   1.915 -0.7240 -0.3040 -0.4399
 1456SOL    HW2 8926  11.760   3.278   2.045 -0.9724  2.4936 -2.0475
 1457SOL     OW 8927   6.472   8.813  11.373  0.3791 -0.0193  0.5661
 1457SOL    HW1 8928   6.428   8.898  11.374 -0.1060 -0.1919 -1.7101
 1457SOL    HW2 8929   6.564   8.833  11.387  0.2713  0.8949  0.0308
 1458SOL     OW 8930   5.110   1.168  11.250 -0.1853 -0.4736 -0.1543
 1458SOL    HW1 8931   5.025   1.211  11.242 -0.0986 -0.3535 -0.4117
 1458SOL    HW2 8932   5.152   1.181  11.165  1.6056  2.6553  1.0524
 1459SOL     OW 8933   1.557   3.638   9.896 -0.1807 -0.3408  0.4341
 1459SOL    HW1 8934   1.550   3.581   9.820  2.4510 -0.7330  0.4047
 1459SOL    HW2 8935   1.594   3.582   9.964  0.1786  0.7312  1.1367
 1460SOL     OW 8936   9.013  12.053   0.059  0.1959 -0.1604  0.3939
 1460SOL    HW1 8937   9.093  12.010   0.030 -0.1103 -1.5383  1.4779
 1460SOL    HW2 8938   8.948  12.029  -0.007  0.7725  1.4925 -0.8413
 1461SOL     OW 8939  10.099  11.578   2.453  0.9623 -0.3832 -0.4315
 1461SOL    HW1 8940  10.014  11.605   2.418  0.2223 -0.6384  1.0388
 1461SOL    HW2 8941  10.160  11.647   2.427  0.2039  0.0498 -1.0988
 1462SOL     OW 8942   1.189   1.959   2.780  0.5061 -0.3243 -0.1717
 1462SOL    HW1 8943   1.176   1.878   2.831 -0.6683  0.5486  0.9803
 1462SOL    HW2 8944   1.151   1.939   2.695 -1.2434 -0.4997  0.6088
 1463SOL     OW 8945   7.685   7.011   2.077  1.0438 -1.1638  0.5692
 1463SOL    HW1 8946   7.761   7.048   2.121  1.4042 -1.0085 -0.1760
 1463SOL    HW2 8947   7.717   6.981   1.993  0.0098  0.1637 -0.3367
 1464SOL     OW 8948   8.360   2.699   9.464 -0.5464  0.1128  0.1900
 1464SOL    HW1 8949   8.383   2.636   9.396 -0.3469  0.4354 -0.0442
 1464SOL    HW2 8950   8.384   2.656   9.546 -0.7177 -0.2459  0.0566
 1465SOL     OW 8951   5.606   2.513   8.082  0.1453  0.5627  0.2241
 1465SOL    HW1 8952   5.515   2.539   8.098  0.8420  2.7694  1.0845
 1465SOL    HW2 8953   5.642   2.498   8.170  0.2635 -1.8624 -0.1695
 1466SOL     OW 8954   9.457   0.508   3.270  0.1467  0.8548 -0.3197
 1466SOL    HW1 8955   9.480   0.573   3.336  0.0655  1.2009 -0.6321
 1466SOL    HW2 8956   9.516   0.434   3.289  0.5502  1.1907 -0.2440
 1467SOL     OW 8957   6.386   8.151   9.460  0.4632 -0.2782 -0.2537
 1467SOL    HW1 8958   6.362   8.130   9.550  0.5739  0.3053 -0.0801
 1467SOL    HW2 8959   6.411   8.244   9.463  1.7896 -0.6013 -0.6072
 1468SOL     OW 8960   2.419   7.179   7.066  0.1402 -0.2922 -0.6851
 1468SOL    HW1 8961   2.382   7.241   7.003 -0.0757 -0.8385 -1.1076
 1468SOL    HW2 8962   2.512   7.176   7.045  0.1418 -0.1457 -0.6971
 1469SOL     OW 8963   7.781   8.856   0.636  0.0199 -0.0435 -0.0621
 1469SOL    HW1 8964   7.745   8.803   0.565 -0.2403  0.3473 -0.2261
 1469SOL    HW2 8965   7.876   8.853   0.622 -0.0418  0.2109 -0.5584
 1470SOL     OW 8966  10.601  11.508   6.772 -0.2223 -0.4389  0.2853
 1470SOL    HW1 8967  10.611  11.486   6.679 -1.1446 -1.5784  0.4265
 1470SOL    HW2 8968  10.529  11.452   6.802  1.0659 -1.2381  2.0686
 1471SOL     OW 8969   2.399   2.494   8.284 -0.1806  0.2014 -0.2346
 1471SOL    HW1 8970   2.367   2.550   8.213 -0.4593  0.8807  0.4136
 1471SOL    HW2 8971   2.320   2.449   8.316  0.1366 -1.0733 -1.1738
 1472SOL     OW 8972  10.565   0.767   8.865  0.7040  0.2416  0.0691
 1472SOL    HW1 8973  10.571   0.678   8.900  1.3567 -0.1227 -0.9101
 1472SOL    HW2 8974  10.474   0.793   8.881  0.2457 -0.9635 -0.4693
 1473SOL     OW 8975  10.737   5.803   4.320 -0.0167 -0.0610  0.2035
 1473SOL    HW1 8976  10.735   5.817   4.415  2.2733  1.4048  0.1113
 1473SOL    HW2 8977  10.702   5.884   4.283 -0.3855 -0.4147 -0.2352
 1474SOL     OW 8978   8.975   1.831   1.876  0.3721 -0.3029  0.4610
 1474SOL    HW1 8979   8.947   1.840   1.967 -1.1409 -2.5622  0.3079
 1474SOL    HW2 8980   9.048   1.769   1.879 -0.3437 -1.1934  0.0881
 1475SOL     OW 8981   5.549   4.090   0.192  0.0170 -0.2864 -0.3656
 1475SOL    HW1 8982   5.483   4.148   0.154  0.1126  1.2217  1.6415
 1475SOL    HW2 8983   5.631   4.138   0.185  0.6384 -1.4174 -1.2356
 1476SOL     OW 8984  11.745   4.897   0.266  0.1938  0.3848 -0.4898
 1476SOL    HW1 8985  11.751   4.912   0.361 -0.7473 -0.3277 -0.3058
 1476SOL    HW2 8986  11.694   4.971   0.233 -0.7098 -0.1100 -0.2223
 1477SOL     OW 8987   0.298   3.647  11.151  0.0159 -0.2142 -0.6386
 1477SOL    HW1 8988   0.306   3.737  11.184 -2.0648  0.2376 -1.2134
 1477SOL    HW2 8989   0.207   3.623  11.170  0.4343 -2.0695 -0.8494
 1478SOL     OW 8990   0.734   5.974   9.221 -0.0355  0.0421 -0.1634
 1478SOL    HW1 8991   0.718   6.066   9.242 -0.6886  0.5145 -2.4532
 1478SOL    HW2 8992   0.750   5.932   9.306  0.5593  2.2981  0.9092
 1479SOL     OW 8993   7.682   5.524   0.994 -0.3935 -0.3629  0.1954
 1479SOL    HW1 8994   7.617   5.594   1.001 -0.0073 -0.0081  0.2623
 1479SOL    HW2 8995   7.632   5.448   0.965 -0.3884  0.5978 -2.5815
 1480SOL     OW 8996  10.738   2.155   8.508 -0.1499  0.2244  0.2874
 1480SOL    HW1 8997  10.795   2.228   8.531 -0.3889  0.2584  0.7973
 1480SOL    HW2 8998  10.654   2.177   8.547 -0.8777  0.7534 -1.5086
 1481SOL     OW 8999   2.354   7.002   7.507 -0.0862  0.0165  0.7977
 1481SOL    HW1 9000   2.260   7.010   7.519 -0.2854  0.9097 -1.0057
 1481SOL    HW2 9001   2.364   6.972   7.416  1.3580 -1.0430  1.2629
 1482SOL     OW 9002   0.057   0.537   4.699  0.4809 -0.4624 -0.0971
 1482SOL    HW1 9003  -0.028   0.539   4.654  0.9661 -0.2511 -1.0359
 1482SOL    HW2 9004   0.064   0.448   4.733 -0.1958 -0.4257  0.1480
 1483SOL     OW 9005   0.078   1.423   2.292 -0.3184  0.1092  0.4825
 1483SOL    HW1 9006   0.133   1.488   2.250  1.4356 -1.1538  0.6806
 1483SOL    HW2 9007   0.036   1.470   2.364 -1.1940  1.6126 -0.9453
 1484SOL     OW 9008   3.093   8.695   4.064 -0.1072 -0.0953  0.1002
 1484SOL    HW1 9009   3.035   8.703   3.988 -1.1997 -1.1303  0.8015
 1484SOL    HW2 9010   3.106   8.785   4.093 -2.8060  0.0899  0.9589
 1485SOL     OW 9011   8.605   5.008   8.725  0.2173  0.0204 -0.2957
 1485SOL    HW1 9012   8.592   4.917   8.697  0.2800  0.4625 -1.7881
 1485SOL    HW2 9013   8.530   5.055   8.689  0.4795  0.6698  0.0050
 1486SOL     OW 9014   5.108   8.439   7.910 -0.0261  0.1135 -0.6524
 1486SOL    HW1 9015   5.115   8.491   7.991 -1.0016 -0.9140  0.1177
 1486SOL    HW2 9016   5.058   8.495   7.851 -1.1367  0.0557  0.1945
 1487SOL     OW 9017  11.636   2.336   2.730 -0.1199  0.1587 -0.3637
 1487SOL    HW1 9018  11.730   2.326   2.722 -0.0342  0.4377  0.2430
 1487SOL    HW2 9019  11.606   2.358   2.641  0.3246 -0.3429 -0.6437
 1488SOL     OW 9020  10.398   0.272   9.288  0.3240 -0.3995 -0.0300
 1488SOL    HW1 9021  10.437   0.269   9.201  1.7880 -2.1916  0.6263
 1488SOL    HW2 9022  10.303   0.274   9.272  0.5844  0.8641 -1.6359
 1489SOL     OW 9023   0.058   8.465   4.285 -0.7711  0.1866 -0.0879
 1489SOL    HW1 9024   0.012   8.423   4.212 -1.4889 -1.2212  1.1039
 1489SOL    HW2 9025   0.143   8.421   4.288 -1.4217 -1.0737  0.9938
 1490SOL     OW 9026   2.298   9.031   7.138 -0.5340 -0.4166  0.1897
 1490SOL    HW1 9027   2.222   9.017   7.080  1.2041 -0.2216 -2.2947
 1490SOL    HW2 9028   2.357   9.086   7.087  0.3373  1.4483  2.9718
 1491SOL     OW 9029   4.795   7.716  10.470  0.2895 -0.3273 -0.2785
 1491SOL    HW1 9030   4.731   7.785  10.456  1.0893  0.2829 -1.0711
 1491SOL    HW2 9031   4.769   7.647  10.409  1.7148  0.8954 -2.4122
 1492SOL     OW 9032   3.509   6.569   6.644 -0.4472  0.7122 -0.1069
 1492SOL    HW1 9033   3.540   6.480   6.663  0.3210  0.9271 -0.3347
 1492SOL    HW2 9034   3.571   6.603   6.581 -0.4779  1.5805  0.3173
 1493SOL     OW 9035   9.247  11.195   7.761  0.6168 -0.2230  0.1113
 1493SOL    HW1 9036   9.176  11.147   7.719  0.4323 -0.5212  0.7499
 1493SOL    HW2 9037   9.224  11.287   7.751 -0.4576 -0.3389  1.3214
 1494SOL     OW 9038  10.744  12.042   3.388 -0.0112  0.5244  0.1870
 1494SOL    HW1 9039  10.675  12.031   3.323 -0.5799  2.1148  0.4689
 1494SOL    HW2 9040  10.750  12.137   3.400  1.3443  0.3484  1.1193
 1495SOL     OW 9041   0.693   1.265   6.918 -0.8077  0.6130 -0.4440
 1495SOL    HW1 9042   0.656   1.181   6.893 -1.6717  0.6836  0.4919
 1495SOL    HW2 9043   0.666   1.276   7.009 -1.1309  2.1216 -0.6994
 1496SOL     OW 9044   8.492   8.640   4.546 -0.0036 -0.9195 -0.9388
 1496SOL    HW1 9045   8.582   8.638   4.514 -0.2028 -0.9848 -1.4964
 1496SOL    HW2 9046   8.442   8.588   4.483 -0.8132  0.8566 -1.8344
 1497SOL     OW 9047  11.639   5.640   3.965 -0.0145  0.5933 -0.0787
 1497SOL    HW1 9048  11.583   5.616   3.891 -0.6220  1.6086  0.0220
 1497SOL    HW2 9049  11.626   5.570   4.029  1.9314 -1.2999 -1.6000
 1498SOL     OW 9050   4.536  10.639   5.192 -0.3583 -0.1144 -0.0738
 1498SOL    HW1 9051   4.608  10.693   5.224 -0.1262 -1.0001  0.9981
 1498SOL    HW2 9052   4.559  10.618   5.102  0.8620 -0.5551  0.3194
 1499SOL     OW 9053   8.468   3.907   7.786  0.2257 -0.0704  0.0090
 1499SOL    HW1 9054   8.438   3.850   7.857  0.2512 -1.2915 -0.9117
 1499SOL    HW2 9055   8.555   3.935   7.812  0.5667 -1.1661  0.1133
 1500SOL     OW 9056   5.021   2.849   8.219 -0.5720  0.0420 -0.2899
 1500SOL    HW1 9057   5.037   2.905   8.295 -0.2209  0.6261 -0.7883
 1500SOL    HW2 9058   5.048   2.761   8.248  0.0434  0.3518  0.0887
 1501SOL     OW 9059   9.700   2.011   8.276 -0.1513 -0.0045  0.1974
 1501SOL    HW1 9060   9.627   1.960   8.241 -0.0975 -0.6250  0.9703
 1501SOL    HW2 9061   9.689   2.008   8.371  0.7464  0.0975  0.3164
 1502SOL     OW 9062   7.944   3.112   5.576  0.2819 -0.3338 -0.4344
 1502SOL    HW1 9063   7.981   3.179   5.519  3.8319  0.6622  2.6336
 1502SOL    HW2 9064   7.983   3.030   5.546 -0.6010 -0.3912 -1.4785
 1503SOL     OW 9065   6.974   2.625   7.072  0.2442  0.6823 -0.2693
 1503SOL    HW1 9066   7.062   2.663   7.068  0.8943 -0.7026 -0.0558
 1503SOL    HW2 9067   6.915   2.700   7.076  1.5259  1.6887  1.9906
 1504SOL     OW 9068   2.648  11.287   9.752 -0.6983  0.2136 -0.2903
 1504SOL    HW1 9069   2.599  11.368   9.763 -1.9660 -0.4590 -0.8840
 1504SOL    HW2 9070   2.681  11.291   9.662  0.2794  0.6117  0.0683
 1505SOL     OW 9071   4.594   6.153   9.593 -0.1029  1.0069 -0.0552
 1505SOL    HW1 9072   4.667   6.155   9.654  1.1029 -2.4397 -1.1690
 1505SOL    HW2 9073   4.522   6.116   9.643  0.1014  0.6725 -0.0051
 1506SOL     OW 9074   6.823  11.825   8.327 -0.0100 -0.4064  0.6596
 1506SOL    HW1 9075   6.737  11.790   8.351 -0.0043 -1.9072 -1.3058
 1506SOL    HW2 9076   6.809  11.868   8.243  1.0013  0.0322  0.7084
 1507SOL     OW 9077   9.440   1.930   2.667  0.0189 -0.6036  0.0296
 1507SOL    HW1 9078   9.458   2.022   2.690 -2.6843 -0.0758  0.4854
 1507SOL    HW2 9079   9.419   1.933   2.574  0.8508 -0.9553 -0.1782
 1508SOL     OW 9080   5.909   3.682  10.130  0.0064  0.1988  0.1262
 1508SOL    HW1 9081   5.831   3.720  10.090 -1.5606 -0.9101  1.9748
 1508SOL    HW2 9082   5.982   3.714  10.076 -1.6101  2.0479 -1.0773
 1509SOL     OW 9083   0.447   7.450   1.382 -0.0608  0.1027  0.2882
 1509SOL    HW1 9084   0.387   7.461   1.308  0.5823  0.1291 -0.2370
 1509SOL    HW2 9085   0.529   7.420   1.343  0.5374  0.8833  0.8884
 1510SOL     OW 9086   1.206   8.888   0.462  0.1834  0.8856 -0.2958
 1510SOL    HW1 9087   1.222   8.980   0.482 -1.1052  0.4972  3.1390
 1510SOL    HW2 9088   1.112   8.877   0.472  0.3601 -0.8815 -0.1448
 1511SOL     OW 9089   6.928   7.602   2.358 -0.2907 -0.2838 -0.2468
 1511SOL    HW1 9090   6.856   7.660   2.383  0.9068  1.4871 -0.7874
 1511SOL    HW2 9091   6.942   7.547   2.435 -0.8147  0.7917  0.6440
 1512SOL     OW 9092   9.128  10.975   6.061 -0.3762  0.1784  0.0838
 1512SOL    HW1 9093   9.155  10.900   6.113 -0.2760  0.6805  0.7736
 1512SOL    HW2 9094   9.035  10.960   6.043 -0.4900  0.1427  0.6742
 1513SOL     OW 9095   8.196   7.126   1.510  0.3849  0.2890 -0.6558
 1513SOL    HW1 9096   8.291   7.125   1.524  0.3235 -2.3764  0.2228
 1513SOL    HW2 9097   8.168   7.213   1.539  2.2402  0.1674  1.9053
 1514SOL     OW 9098   4.114  11.314  10.577 -0.2377  0.3442  0.4019
 1514SOL    HW1 9099   4.165  11.378  10.627 -1.2608 -0.9999  3.4133
 1514SOL    HW2 9100   4.053  11.367  10.526 -0.5252  1.8434  2.1677
 1515SOL     OW 9101  10.068   1.945   9.334 -0.9537  0.3445  0.1227
 1515SOL    HW1 9102  10.026   2.015   9.384  2.3057  2.8470 -0.2954
 1515SOL    HW2 9103  10.104   1.887   9.400  1.5541  2.5219  0.8475
 1516SOL     OW 9104  11.051   6.856   6.088 -0.0650  0.2177  0.1924
 1516SOL    HW1 9105  11.006   6.798   6.027 -0.5152  0.3001  0.4422
 1516SOL    HW2 9106  11.002   6.848   6.169  2.2684 -2.2482  1.5220
 1517SOL     OW 9107   1.638   7.597   2.806 -0.4627 -0.3581  0.7196
 1517SOL    HW1 9108   1.544   7.603   2.795 -0.2833 -1.3804 -1.9742
 1517SOL    HW2 9109   1.663   7.516   2.762  1.6883 -0.1330  1.3826
 1518SOL     OW 9110   1.227   8.627   5.707  0.0979 -0.6984  0.3315
 1518SOL    HW1 9111   1.180   8.585   5.779  2.4528 -1.8474  1.3176
 1518SOL    HW2 9112   1.219   8.566   5.634 -2.5769  0.6191 -0.6315
 1519SOL     OW 9113   6.369   8.722   6.022  0.8986 -0.2512 -0.2077
 1519SOL    HW1 9114   6.287   8.714   6.072  1.2728  0.5468  0.5461
 1519SOL    HW2 9115   6.375   8.815   6.001  3.0051  0.2294  2.1678
 1520SOL     OW 9116   1.647   3.720   2.147 -0.2174 -0.1359 -0.0805
 1520SOL    HW1 9117   1.713   3.660   2.111 -0.8526 -1.2836  0.6308
 1520SOL    HW2 9118   1.633   3.784   2.077  1.6336  0.1428 -0.2596
 1521SOL     OW 9119  10.794   0.929   8.874  0.5549  0.1750 -0.2978
 1521SOL    HW1 9120  10.776   1.010   8.826  2.9359  0.5961 -0.6098
 1521SOL    HW2 9121  10.710   0.884   8.878 -0.7839  2.5160 -0.3754
 1522SOL     OW 9122   0.355  10.086  10.715 -0.6962  0.4398 -0.4409
 1522SOL    HW1 9123   0.365  10.139  10.636  0.6912  0.6247 -0.1608
 1522SOL    HW2 9124   0.379   9.997  10.687 -0.3105  0.4844 -0.2546
 1523SOL     OW 9125   3.751  10.194   7.590  0.1900  0.2355  0.3051
 1523SOL    HW1 9126   3.834  10.236   7.567  0.6587 -0.9435 -0.2405
 1523SOL    HW2 9127   3.776  10.119   7.643 -0.5345 -0.1474  0.1156
 1524SOL     OW 9128   9.886   3.522   9.101 -0.2055  0.2630 -0.4982
 1524SOL    HW1 9129   9.888   3.437   9.055 -0.2032  1.8455 -3.7022
 1524SOL    HW2 9130   9.977   3.552   9.099 -0.2851  0.5658  0.2132
 1525SOL     OW 9131   0.875  10.310   7.483 -0.0263  0.2167  0.5740
 1525SOL    HW1 9132   0.913  10.383   7.434 -1.8292  0.5012 -0.4920
 1525SOL    HW2 9133   0.808  10.274   7.425 -0.0796 -1.4837  1.6051
 1526SOL     OW 9134   4.437  11.472  10.195  0.3615 -0.2957 -0.1172
 1526SOL    HW1 9135   4.369  11.410  10.225  0.2619 -1.1748 -2.0410
 1526SOL    HW2 9136   4.464  11.518  10.275 -1.3373 -1.0737  0.9636
 1527SOL     OW 9137  11.276   5.107  11.490  0.1197  0.2819 -0.1798
 1527SOL    HW1 9138  11.270   5.199  11.466  1.0477  0.3525 -0.1689
 1527SOL    HW2 9139  11.208   5.064  11.437  0.2622  0.8391 -0.8309
 1528SOL     OW 9140   5.712   1.713   4.099  0.1830  0.6580 -0.0106
 1528SOL    HW1 9141   5.700   1.760   4.016  0.6480  0.8399  0.0242
 1528SOL    HW2 9142   5.714   1.782   4.166 -1.5296  0.4370  0.3170
 1529SOL     OW 9143   3.744   3.541   4.625  0.7376 -0.7534 -0.3102
 1529SOL    HW1 9144   3.668   3.576   4.578  0.4109 -2.1062 -0.8380
 1529SOL    HW2 9145   3.707   3.498   4.702  1.1258 -0.0957  0.2627
 1530SOL     OW 9146   4.548   2.517   5.095  0.1579 -0.0038  0.3504
 1530SOL    HW1 9147   4.606   2.574   5.044 -0.1753 -0.8999 -1.1103
 1530SOL    HW2 9148   4.496   2.577   5.148 -1.4086  1.3285 -2.4235
 1531SOL     OW 9149   9.971   3.451   8.156 -0.4030 -0.1429 -0.4217
 1531SOL    HW1 9150   9.931   3.368   8.182 -1.7963  0.4652 -0.5113
 1531SOL    HW2 9151   9.984   3.498   8.238  0.8794 -0.6505 -0.3247
 1532SOL     OW 9152   1.448   7.137   7.307  0.1158  0.4696  0.3596
 1532SOL    HW1 9153   1.543   7.127   7.308  0.1531  0.6791  2.1542
 1532SOL    HW2 9154   1.427   7.161   7.217  1.7469  0.2896 -0.0917
 1533SOL     OW 9155   9.493   0.832   3.797 -0.0687 -0.5870 -0.5448
 1533SOL    HW1 9156   9.449   0.775   3.859  1.6278 -0.8055  0.4857
 1533SOL    HW2 9157   9.579   0.794   3.785  1.4581  2.1452  0.8472
 1534SOL     OW 9158   4.567  11.982   7.152  0.1300  0.3196  0.5824
 1534SOL    HW1 9159   4.583  11.887   7.147 -0.5157  0.2293  0.1240
 1534SOL    HW2 9160   4.511  11.994   7.228 -1.7041  0.0380 -0.6466
 1535SOL     OW 9161   3.032   5.934   7.681 -0.2419  0.1277  0.5800
 1535SOL    HW1 9162   2.994   5.953   7.595  1.1509  0.6151  0.0333
 1535SOL    HW2 9163   3.106   5.995   7.688  0.5757 -0.9227  1.4737
 1536SOL     OW 9164   1.634   2.162   8.896 -0.3758 -0.1877  0.4380
 1536SOL    HW1 9165   1.719   2.176   8.937  0.2080  0.3927 -0.9208
 1536SOL    HW2 9166   1.589   2.246   8.905 -0.3009 -0.1019  0.0505
 1537SOL     OW 9167   7.537   2.669   8.742 -0.4724 -0.2464  0.5799
 1537SOL    HW1 9168   7.578   2.750   8.773 -1.6205  0.7681 -0.4538
 1537SOL    HW2 9169   7.448   2.695   8.718 -0.7899 -1.7801 -0.0005
 1538SOL     OW 9170   6.062  11.429   3.292 -0.6083  0.4019  0.2031
 1538SOL    HW1 9171   6.039  11.412   3.200 -0.9791 -2.7653  0.7800
 1538SOL    HW2 9172   6.002  11.499   3.318 -0.9784  0.8858 -1.7611
 1539SOL     OW 9173   3.631   9.495   3.802  0.0916 -0.0714  0.3328
 1539SOL    HW1 9174   3.664   9.430   3.863  0.9193  0.6714  0.7067
 1539SOL    HW2 9175   3.539   9.507   3.825 -0.3234 -1.7564 -0.3344
 1540SOL     OW 9176   8.824   8.387  11.519  0.0834  0.2075 -0.0132
 1540SOL    HW1 9177   8.893   8.426  11.465 -0.9682  1.9562 -0.1622
 1540SOL    HW2 9178   8.753   8.369  11.457  0.6854 -2.4679 -0.0379
 1541SOL     OW 9179  10.454   8.130   1.591  0.2090  0.1476  0.1914
 1541SOL    HW1 9180  10.437   8.044   1.630  0.3001 -0.6931 -1.5051
 1541SOL    HW2 9181  10.391   8.188   1.633  0.2113 -0.7130  1.4559
 1542SOL     OW 9182  11.599   8.276   3.983 -0.2487  0.1749 -0.2907
 1542SOL    HW1 9183  11.630   8.189   3.959 -0.4024 -0.4111  1.5369
 1542SOL    HW2 9184  11.563   8.266   4.071 -2.4775  1.5729 -0.9702
 1543SOL     OW 9185  10.309   8.999   6.538 -0.1464 -0.7787  0.2794
 1543SOL    HW1 9186  10.348   8.924   6.583 -0.7186 -1.9476 -1.0684
 1543SOL    HW2 9187  10.311   8.975   6.445 -0.3963  0.8654 -0.1901
 1544SOL     OW 9188  10.689   9.363  12.046 -0.1786  0.5559  0.8909
 1544SOL    HW1 9189  10.664   9.373  11.954 -0.7449 -0.6736  0.8892
 1544SOL    HW2 9190  10.672   9.449  12.085  0.8225  1.3259 -0.3143
 1545SOL     OW 9191   9.232  10.576   4.711  0.1657  0.2519 -0.8872
 1545SOL    HW1 9192   9.206  10.526   4.634 -0.9923  0.1594 -0.4408
 1545SOL    HW2 9193   9.213  10.520   4.785 -2.9941  1.9727 -0.2263
 1546SOL     OW 9194   5.952   3.970   8.362 -0.3981  0.1668 -0.1720
 1546SOL    HW1 9195   5.883   4.026   8.398 -0.1940  0.7728 -0.6994
 1546SOL    HW2 9196   5.920   3.947   8.274 -0.1625  0.0367 -0.2236
 1547SOL     OW 9197   3.689   9.889   7.794  0.0885 -0.4698 -0.0001
 1547SOL    HW1 9198   3.767   9.930   7.757 -0.9404  0.1062 -1.6317
 1547SOL    HW2 9199   3.720   9.806   7.831  1.4648 -0.2513 -0.6109
 1548SOL     OW 9200  11.283   7.246   3.491 -0.2441  0.0537 -0.1797
 1548SOL    HW1 9201  11.253   7.170   3.441  1.4470 -0.4724 -0.4700
 1548SOL    HW2 9202  11.321   7.208   3.571  1.4007  0.4811 -0.7193
 1549SOL     OW 9203   9.883   0.429   2.713  0.5677 -0.7629 -0.2450
 1549SOL    HW1 9204   9.799   0.474   2.703  1.2926  1.2527  1.8431
 1549SOL    HW2 9205   9.925   0.437   2.627  0.2237  1.7158 -0.2489
 1550SOL     OW 9206   0.807   2.152   4.575  0.0568 -0.1909  0.3134
 1550SOL    HW1 9207   0.775   2.124   4.661  1.0475 -1.3935  0.3239
 1550SOL    HW2 9208   0.897   2.181   4.590 -0.1574  0.7378 -0.1292
 1551SOL     OW 9209   1.893   4.214   5.586 -0.5217 -0.1905 -0.1283
 1551SOL    HW1 9210   1.863   4.189   5.498  1.7808  1.2213 -1.4221
 1551SOL    HW2 9211   1.939   4.137   5.618 -1.4726 -0.7584 -0.0663
 1552SOL     OW 9212   5.519   9.511   9.927  0.1542  0.1234  0.0531
 1552SOL    HW1 9213   5.429   9.487   9.903 -0.3091  1.4207  0.3745
 1552SOL    HW2 9214   5.553   9.436   9.975 -1.0062 -0.1091  0.5334
 1553SOL     OW 9215   5.157  10.074   5.097  0.1945 -0.1245 -0.7095
 1553SOL    HW1 9216   5.185   9.993   5.055 -1.3078  0.4376 -3.0067
 1553SOL    HW2 9217   5.184  10.144   5.037  0.5479  1.0216  0.7094
 1554SOL     OW 9218   5.176   7.716   5.880 -0.5942 -0.0896 -0.4148
 1554SOL    HW1 9219   5.139   7.627   5.881  0.4234 -0.5382 -1.0057
 1554SOL    HW2 9220   5.233   7.719   5.957 -0.0310 -0.2197 -0.8223
 1555SOL     OW 9221   1.600   4.907   7.082  0.3788  0.5667  0.1926
 1555SOL    HW1 9222   1.628   4.965   7.011  0.5838 -0.5812 -0.7110
 1555SOL    HW2 9223   1.521   4.864   7.047 -0.1057  0.7348  1.0702
 1556SOL     OW 9224   9.682   6.931   1.061  0.2106  0.0612 -0.4190
 1556SOL    HW1 9225   9.756   6.881   1.027 -1.2817 -2.6754  0.0050
 1556SOL    HW2 9226   9.707   7.022   1.051  3.2156 -0.7441 -1.1384
 1557SOL     OW 9227   8.385   2.167   5.783 -0.0856 -0.2088 -0.1137
 1557SOL    HW1 9228   8.333   2.211   5.716  0.2060  1.0528  0.4519
 1557SOL    HW2 9229   8.364   2.213   5.864  1.7037  0.2065  0.1720
 1558SOL     OW 9230   4.851   0.546   0.743  0.1747 -0.5585  0.5574
 1558SOL    HW1 9231   4.909   0.470   0.755 -0.1786 -1.1491 -1.1976
 1558SOL    HW2 9232   4.772   0.510   0.703 -0.2327  0.6548  0.2146
 1559SOL     OW 9233   1.220   5.788   2.709 -0.2075  0.1373  0.7499
 1559SOL    HW1 9234   1.272   5.762   2.632  0.8063 -1.4027  1.8964
 1559SOL    HW2 9235   1.140   5.735   2.702  1.0684 -2.1188  2.1213
 1560SOL     OW 9236   2.062   1.809   8.017 -0.0080 -0.2193  0.7615
 1560SOL    HW1 9237   2.061   1.718   7.984 -1.2831 -0.2491  0.8203
 1560SOL    HW2 9238   1.973   1.840   8.002  0.2752  0.8557  1.2406
 1561SOL     OW 9239   2.549  10.721   3.297  0.5827  0.1837  0.3172
 1561SOL    HW1 9240   2.459  10.753   3.299  0.5652  0.2545 -0.7533
 1561SOL    HW2 9241   2.560  10.686   3.208  1.0849 -1.3753  0.9506
 1562SOL     OW 9242   1.794   4.881   7.600  0.0538 -0.1465  0.2495
 1562SOL    HW1 9243   1.846   4.887   7.520  0.6581 -0.1840  0.6301
 1562SOL    HW2 9244   1.806   4.965   7.643  0.1769 -0.3203  0.5610
 1563SOL     OW 9245   5.170   7.417   9.476 -0.1114 -0.2009  0.0475
 1563SOL    HW1 9246   5.146   7.380   9.391  0.3111  0.1293 -0.2209
 1563SOL    HW2 9247   5.139   7.353   9.540  0.6791 -1.0552 -0.4087
 1564SOL     OW 9248   8.955   9.633   4.045  0.3659 -0.0519 -0.1152
 1564SOL    HW1 9249   8.896   9.633   3.971  1.0531 -0.2941 -0.6774
 1564SOL    HW2 9250   8.923   9.703   4.102  0.3039  0.6709 -1.0169
 1565SOL     OW 9251   2.126  11.916   4.035 -0.0954 -0.0701  0.8416
 1565SOL    HW1 9252   2.151  11.988   3.977 -2.5736 -0.2606 -0.6698
 1565SOL    HW2 9253   2.081  11.958   4.108 -1.4545 -0.0020  0.0089
 1566SOL     OW 9254   0.698   2.845   7.244 -0.4931 -0.0726  0.7275
 1566SOL    HW1 9255   0.652   2.762   7.260  0.3893 -0.6318  0.4728
 1566SOL    HW2 9256   0.785   2.831   7.280  0.2034  0.1306 -0.8200
 1567SOL     OW 9257  10.964   4.690   5.282  0.4423 -0.3035  0.0373
 1567SOL    HW1 9258  10.981   4.616   5.223  0.2291 -0.4922  0.2133
 1567SOL    HW2 9259  11.046   4.740   5.281  0.3799 -0.1989 -0.5684
 1568SOL     OW 9260   8.069  11.394   0.146  0.0355  0.1810 -0.0338
 1568SOL    HW1 9261   8.125  11.358   0.215 -1.6384 -0.3916  1.0820
 1568SOL    HW2 9262   8.113  11.474   0.119  1.3916 -0.2482  0.7981
 1569SOL     OW 9263   4.925  11.119  11.726  0.0441 -0.1451  0.1541
 1569SOL    HW1 9264   4.839  11.141  11.690  0.4619  0.1579 -0.6971
 1569SOL    HW2 9265   4.928  11.023  11.725 -0.2065 -0.1523 -0.0069
 1570SOL     OW 9266   3.228   2.995   2.812  0.2431  0.0677 -0.3960
 1570SOL    HW1 9267   3.321   3.004   2.792  0.1500 -1.5402 -1.8134
 1570SOL    HW2 9268   3.225   2.982   2.907  1.3152  1.5604 -0.1363
 1571SOL     OW 9269   0.314   5.762   3.032  0.9387 -0.0166 -0.0271
 1571SOL    HW1 9270   0.308   5.670   3.058  1.5223  0.0059  0.2058
 1571SOL    HW2 9271   0.283   5.811   3.108  0.3190 -0.0292 -0.2693
 1572SOL     OW 9272   0.027   6.033   0.688 -0.5167  0.3606 -0.7420
 1572SOL    HW1 9273   0.042   5.939   0.693  0.0758  0.5016  0.4552
 1572SOL    HW2 9274   0.045   6.055   0.597 -0.9030 -0.7142 -1.0972
 1573SOL     OW 9275   6.329   5.166   5.742  0.1953  0.0746 -0.4243
 1573SOL    HW1 9276   6.334   5.260   5.721 -0.1900  0.5636  1.4430
 1573SOL    HW2 9277   6.238   5.142   5.724  0.4640 -0.1273 -1.5578
 1574SOL     OW 9278  12.087   4.318  12.126 -0.4742 -0.4049  0.2976
 1574SOL    HW1 9279  12.042   4.396  12.095 -0.8253 -1.2457 -1.4241
 1574SOL    HW2 9280  12.176   4.347  12.146  0.7003 -0.2100 -4.2209
 1575SOL     OW 9281   9.566   0.542  10.834 -0.0660  0.2551  0.3228
 1575SOL    HW1 9282   9.491   0.559  10.890  0.1021  0.4303  0.4958
 1575SOL    HW2 9283   9.640   0.533  10.894  0.4126  2.0074  0.0626
 1576SOL     OW 9284   7.547   8.309   8.188  0.2152  0.2132 -0.4015
 1576SOL    HW1 9285   7.498   8.303   8.106 -1.3052 -0.7611  0.5172
 1576SOL    HW2 9286   7.547   8.402   8.209  0.2921  0.4279 -1.3119
 1577SOL     OW 9287   8.189  10.377   5.089  0.0472 -0.4888 -0.1453
 1577SOL    HW1 9288   8.184  10.414   5.001  1.6984  1.1844  0.3799
 1577SOL    HW2 9289   8.099  10.380   5.122 -0.2623  0.8654 -1.0359
 1578SOL     OW 9290   9.439   6.027   6.473 -0.3145  0.0044 -0.0963
 1578SOL    HW1 9291   9.352   6.044   6.436 -0.3732 -0.1441 -0.0294
 1578SOL    HW2 9292   9.458   6.104   6.527  0.0734  0.5427 -0.9891
 1579SOL     OW 9293   0.855   1.067   6.789  0.0794 -0.1437  0.1911
 1579SOL    HW1 9294   0.902   0.983   6.783  0.1318 -0.1533  0.7229
 1579SOL    HW2 9295   0.909   1.121   6.847 -0.2236  0.0796  0.2676
 1580SOL     OW 9296   6.489   9.347  11.801 -0.3999 -0.1378 -0.2697
 1580SOL    HW1 9297   6.569   9.350  11.853  0.5626 -2.5226 -1.4411
 1580SOL    HW2 9298   6.494   9.423  11.744  0.7133  0.1132  0.1444
 1581SOL     OW 9299   7.380   6.552   2.972  0.3523  0.3638 -0.7287
 1581SOL    HW1 9300   7.368   6.541   3.067  1.4286  0.3510 -0.5697
 1581SOL    HW2 9301   7.340   6.636   2.952 -1.9031 -0.6509 -0.6970
 1582SOL     OW 9302   4.969   2.276   1.164 -0.0444  0.0946  0.1590
 1582SOL    HW1 9303   4.878   2.246   1.165  0.0463 -0.4202 -1.9492
 1582SOL    HW2 9304   5.021   2.195   1.164  0.3046  0.2724 -1.4164
 1583SOL     OW 9305   2.739   9.709   7.616  0.2001 -0.2824 -0.6468
 1583SOL    HW1 9306   2.644   9.703   7.600 -0.3900 -0.3492  2.2956
 1583SOL    HW2 9307   2.771   9.767   7.548 -1.6978 -1.3856 -2.6070
 1584SOL     OW 9308   2.007   3.140  11.710  0.2522  0.1979  0.4527
 1584SOL    HW1 9309   2.090   3.177  11.739  0.6358  0.3688 -0.7862
 1584SOL    HW2 9310   1.950   3.146  11.786  1.1404  0.7881  1.0960
 1585SOL     OW 9311  10.811   1.653   7.173  0.1130  0.0694 -0.0386
 1585SOL    HW1 9312  10.727   1.607   7.171  1.0298 -1.6311 -1.9380
 1585SOL    HW2 9313  10.813   1.704   7.091  1.9696 -1.9875 -1.3807
 1586SOL     OW 9314   8.195   2.030   8.317 -0.1224 -0.6617 -0.1982
 1586SOL    HW1 9315   8.212   2.003   8.407 -0.9049 -2.7764 -0.6243
 1586SOL    HW2 9316   8.205   1.950   8.266  0.5564  0.5518 -2.0531
 1587SOL     OW 9317  11.695   4.347   8.351  0.2175 -0.1436  0.5169
 1587SOL    HW1 9318  11.783   4.346   8.314 -0.0037 -3.4231 -0.2206
 1587SOL    HW2 9319  11.642   4.392   8.286  0.6104 -2.0439 -1.2013
 1588SOL     OW 9320   5.228  10.276   5.286  0.1176  0.6803  0.0231
 1588SOL    HW1 9321   5.209  10.200   5.232 -0.0440  0.0304  0.9629
 1588SOL    HW2 9322   5.288  10.243   5.353  0.0204  1.3704  0.4619
 1589SOL     OW 9323   6.010   7.806   1.940  0.5767 -0.1305  0.2693
 1589SOL    HW1 9324   5.972   7.719   1.928  0.7637 -0.2608  0.6069
 1589SOL    HW2 9325   5.975   7.857   1.868 -0.8754 -0.0321  1.0057
 1590SOL     OW 9326   4.014   4.014   7.299  0.0590 -0.1213  0.2279
 1590SOL    HW1 9327   3.937   4.057   7.335  0.3083  0.0434  0.5742
 1590SOL    HW2 9328   4.056   4.081   7.245 -0.6606 -0.5621 -0.9076
 1591SOL     OW 9329   2.951   7.865   0.265  0.0706 -0.3583  0.2861
 1591SOL    HW1 9330   2.942   7.961   0.267  1.5111 -0.1906  0.0481
 1591SOL    HW2 9331   2.875   7.833   0.314 -0.1812  0.9287  0.7925
 1592SOL     OW 9332   4.771   8.247   3.458 -0.4757  0.3823 -0.0053
 1592SOL    HW1 9333   4.805   8.165   3.421  0.3608  0.4136  0.6684
 1592SOL    HW2 9334   4.773   8.309   3.384 -1.4955 -0.2957 -0.6220
 1593SOL     OW 9335   6.376   1.408   2.100 -0.0122 -0.0890  0.3479
 1593SOL    HW1 9336   6.435   1.434   2.171  1.3591 -2.4202  0.1675
 1593SOL    HW2 9337   6.384   1.477   2.035  0.5813  0.8707  1.3951
 1594SOL     OW 9338  10.470   2.850   1.555 -0.0779  0.1391 -0.1404
 1594SOL    HW1 9339  10.539   2.917   1.558 -0.1118  0.1433  0.8823
 1594SOL    HW2 9340  10.388   2.899   1.554 -0.0848  0.1257 -0.8737
 1595SOL     OW 9341   5.205  10.258   4.900 -0.3404 -0.3230  0.0727
 1595SOL    HW1 9342   5.165  10.323   4.842 -0.9863  0.5467  1.4584
 1595SOL    HW2 9343   5.281  10.226   4.850 -1.0779  0.1124 -1.3977
 1596SOL     OW 9344   2.281  12.013   5.954  0.3334 -0.1134 -0.2461
 1596SOL    HW1 9345   2.367  12.018   5.996  0.0328 -1.5890  0.6511
 1596SOL    HW2 9346   2.298  11.971   5.869  0.3631 -1.8233  0.5564
 1597SOL     OW 9347   4.985   8.388   9.558 -0.2121 -0.0962 -0.0021
 1597SOL    HW1 9348   4.933   8.319   9.598  0.6587 -1.3969 -1.0273
 1597SOL    HW2 9349   5.029   8.431   9.631  0.9928 -2.1049  0.5119
 1598SOL     OW 9350   8.899   4.996   2.438  0.1748 -0.7533  0.0330
 1598SOL    HW1 9351   8.806   4.981   2.454  0.4697 -2.1912  0.5550
 1598SOL    HW2 9352   8.934   5.022   2.523  0.1153  0.6139 -0.3444
 1599SOL     OW 9353   1.134   1.058   1.454  0.0194 -0.3945 -0.0906
 1599SOL    HW1 9354   1.136   1.033   1.361  0.3738 -1.3571  0.1583
 1599SOL    HW2 9355   1.213   1.110   1.466  1.0887 -1.9724  0.0934
 1600SOL     OW 9356   6.065   2.975   2.621 -0.3814  0.0683 -0.8306
 1600SOL    HW1 9357   6.086   3.047   2.680 -1.7137  0.7903 -1.2109
 1600SOL    HW2 9358   6.140   2.915   2.629  0.8141  1.5253 -0.5807
 1601SOL     OW 9359   4.547   9.092  10.513 -0.1795 -0.3700  0.4695
 1601SOL    HW1 9360   4.533   9.052  10.427 -0.1478 -2.4606  1.3727
 1601SOL    HW2 9361   4.634   9.064  10.539 -0.6873 -0.8709  1.7281
 1602SOL     OW 9362   0.976  12.060   1.331  0.2318 -0.0497  0.2387
 1602SOL    HW1 9363   1.060  12.013   1.323  0.1801 -0.2757  0.9395
 1602SOL    HW2 9364   1.002  12.151   1.345  0.3325  0.1605 -1.1461
 1603SOL     OW 9365   4.137   7.097   4.262 -0.3807 -0.2518  0.8195
 1603SOL    HW1 9366   4.070   7.045   4.306 -0.9924  0.3137  0.5653
 1603SOL    HW2 9367   4.094   7.179   4.242  0.4658  0.2131  0.8677
 1604SOL     OW 9368  10.209  12.050   4.596 -0.0834  0.1230 -0.0988
 1604SOL    HW1 9369  10.155  11.971   4.598 -0.7433  0.5457 -0.9171
 1604SOL    HW2 9370  10.196  12.090   4.682 -0.6885 -0.0370 -0.1118
 1605SOL     OW 9371   0.797   5.061   2.506  0.5381 -0.4361  0.1250
 1605SOL    HW1 9372   0.793   5.108   2.423  0.2427 -2.5035 -1.1033
 1605SOL    HW2 9373   0.889   5.038   2.516  0.2911 -1.9814 -0.7584
 1606SOL     OW 9374   5.173   0.976   0.841  0.6353  0.1083 -0.0469
 1606SOL    HW1 9375   5.232   0.905   0.817 -0.5723 -0.8838 -0.1433
 1606SOL    HW2 9376   5.086   0.941   0.827 -0.0069  1.3468  0.6707
 1607SOL     OW 9377   6.010   1.029   6.272 -0.0171  0.5239 -0.1260
 1607SOL    HW1 9378   6.024   0.969   6.345 -1.2204  1.0036  0.5263
 1607SOL    HW2 9379   6.055   0.988   6.198 -0.4726 -0.9969  0.3977
 1608SOL     OW 9380   7.131   5.710   2.308 -0.3999  0.2296 -0.3035
 1608SOL    HW1 9381   7.207   5.656   2.287 -0.6565 -0.7318  1.0875
 1608SOL    HW2 9382   7.155   5.798   2.279  1.9391  0.2990  1.5352
 1609SOL     OW 9383  11.755   3.673   7.042 -0.3514  0.1074 -0.1970
 1609SOL    HW1 9384  11.718   3.757   7.015 -0.9240 -0.1916 -0.3688
 1609SOL    HW2 9385  11.843   3.672   7.003 -0.2483  0.7206  0.0021
 1610SOL     OW 9386   4.434   7.598   1.916  0.4552 -0.4792 -0.0733
 1610SOL    HW1 9387   4.497   7.657   1.958 -1.7862  2.1860 -0.2335
 1610SOL    HW2 9388   4.370   7.579   1.984 -0.6663  0.0310 -0.9621
 1611SOL     OW 9389   5.766   2.519   2.366 -0.8698 -0.3063 -0.2337
 1611SOL    HW1 9390   5.779   2.498   2.274 -0.7948 -0.7983 -0.1148
 1611SOL    HW2 9391   5.853   2.508   2.406 -0.3806  2.0653 -0.4968
 1612SOL     OW 9392   1.916  10.199   1.701  0.0608  0.2006  0.4303
 1612SOL    HW1 9393   1.920  10.110   1.734  1.0108  0.0470 -0.0770
 1612SOL    HW2 9394   1.837  10.201   1.646 -0.1457 -0.2211  0.7044
 1613SOL     OW 9395   0.748   4.729   8.249 -0.5832  0.1339  0.4884
 1613SOL    HW1 9396   0.834   4.732   8.290  0.1101 -0.6824 -0.8479
 1613SOL    HW2 9397   0.734   4.637   8.229 -2.3802  0.0439  1.8773
 1614SOL     OW 9398  10.859   1.352   0.975  0.3536  0.2051 -0.1053
 1614SOL    HW1 9399  10.847   1.275   0.919  0.9434  1.4879 -2.0734
 1614SOL    HW2 9400  10.952   1.373   0.968 -0.1436  2.2752 -1.2625
 1615SOL     OW 9401   7.563   2.387  10.751  0.3845  0.2790 -0.0350
 1615SOL    HW1 9402   7.548   2.481  10.751  2.0432  0.5859  0.2670
 1615SOL    HW2 9403   7.635   2.375  10.688  1.4868 -0.5230  1.3326
 1616SOL     OW 9404   3.552   6.391   5.922  0.2138 -0.1179 -0.3228
 1616SOL    HW1 9405   3.497   6.454   5.969  1.2178 -0.0590  0.8020
 1616SOL    HW2 9406   3.603   6.348   5.990  0.6620 -1.0623 -1.2376
 1617SOL     OW 9407  10.124   4.290  11.269  0.2962  0.7535 -0.1357
 1617SOL    HW1 9408  10.114   4.199  11.240  0.2315  0.5775  0.4133
 1617SOL    HW2 9409  10.102   4.343  11.192 -0.8352  0.3210 -0.1256
 1618SOL     OW 9410   6.667   9.132  10.122  0.0813 -0.0458 -0.6968
 1618SOL    HW1 9411   6.727   9.166  10.189 -1.9711 -1.3656  2.0040
 1618SOL    HW2 9412   6.627   9.210  10.084 -0.2535  0.7568  1.1834
 1619SOL     OW 9413   3.542  10.238   1.507 -0.2242 -0.2952 -0.0117
 1619SOL    HW1 9414   3.552  10.333   1.500  0.1940 -0.2053  1.4821
 1619SOL    HW2 9415   3.631  10.204   1.497 -0.0513 -0.3577  1.5244
 1620SOL     OW 9416   4.917   3.288   0.092  0.2662 -0.0757  0.0807
 1620SOL    HW1 9417   4.862   3.243   0.027  0.8698 -0.6249 -0.0587
 1620SOL    HW2 9418   4.879   3.262   0.176 -1.1555  1.4470 -0.0295
 1621SOL     OW 9419   7.694   3.674   5.033  0.3579 -0.3998  0.0649
 1621SOL    HW1 9420   7.655   3.694   5.118  0.2247  0.7709 -0.2476
 1621SOL    HW2 9421   7.621   3.642   4.980  0.0118  0.7256 -0.1787
 1622SOL     OW 9422   7.607   8.321   8.543 -0.3657 -0.0025  0.6588
 1622SOL    HW1 9423   7.661   8.249   8.513 -0.7144  0.9634 -2.6944
 1622SOL    HW2 9424   7.670   8.391   8.562 -0.2213  0.1907 -0.4373
 1623SOL     OW 9425   5.306   1.596   4.422  0.0443  0.6880  0.4189
 1623SOL    HW1 9426   5.399   1.575   4.429  0.1926  1.3242  0.4130
 1623SOL    HW2 9427   5.283   1.573   4.331  0.3895  1.2854  0.1796
 1624SOL     OW 9428   4.322   7.558   5.220 -0.3061  0.0400  0.1639
 1624SOL    HW1 9429   4.341   7.466   5.199  1.1140  0.2569  0.4307
 1624SOL    HW2 9430   4.404   7.604   5.204 -0.6148  1.0488  1.3498
 1625SOL     OW 9431   7.671   8.718   1.622  0.2548 -0.1503  0.5557
 1625SOL    HW1 9432   7.605   8.787   1.618  1.9805  1.5158 -0.9087
 1625SOL    HW2 9433   7.629   8.648   1.672 -2.3407  1.0870  0.2729
 1626SOL     OW 9434   1.186   4.977   5.664  0.0765 -0.0689  0.5412
 1626SOL    HW1 9435   1.240   4.952   5.589 -0.4260  0.8393 -0.1414
 1626SOL    HW2 9436   1.104   4.928   5.651  0.5520 -1.1210  1.3517
 1627SOL     OW 9437  11.867   9.463   6.855 -0.4671  0.2697  0.3372
 1627SOL    HW1 9438  11.959   9.466   6.831 -0.3089 -0.1198  0.8784
 1627SOL    HW2 9439  11.828   9.400   6.793 -0.7316  1.6830 -1.0119
 1628SOL     OW 9440   8.854   7.304   5.113 -0.5109  0.1620 -0.1861
 1628SOL    HW1 9441   8.811   7.275   5.193  0.0400 -3.3157 -0.9902
 1628SOL    HW2 9442   8.784   7.310   5.048 -0.4640 -0.9431 -0.3607
 1629SOL     OW 9443   0.990  10.112   6.997 -0.1895 -0.0461  0.3893
 1629SOL    HW1 9444   0.989  10.186   7.058 -0.7920  0.2762  0.0021
 1629SOL    HW2 9445   1.079  10.078   7.001  0.2749  1.1027  0.0977
 1630SOL     OW 9446   7.830   5.531  10.954  0.2647  0.1723 -0.8840
 1630SOL    HW1 9447   7.865   5.591  10.887  2.1919 -0.5688 -0.6295
 1630SOL    HW2 9448   7.898   5.463  10.962 -0.4696 -0.4057  0.9657
 1631SOL     OW 9449   6.270   2.361   3.035 -0.1189 -0.1343  0.1776
 1631SOL    HW1 9450   6.336   2.352   3.104  0.6476  0.4824 -0.4501
 1631SOL    HW2 9451   6.227   2.276   3.032  0.8492 -0.6496  0.4120
 1632SOL     OW 9452   7.042   2.548   1.896 -0.2379  0.0020 -0.1809
 1632SOL    HW1 9453   6.946   2.545   1.892 -0.2823  0.8547  0.0034
 1632SOL    HW2 9454   7.065   2.632   1.857  0.4057  0.0402  0.2594
 1633SOL     OW 9455   8.917  10.325  11.952  0.5919 -0.4647 -0.1384
 1633SOL    HW1 9456   8.920  10.387  11.879 -0.2868 -2.9099 -2.4510
 1633SOL    HW2 9457   8.829  10.335  11.989  0.8193  0.3571  0.1843
 1634SOL     OW 9458  11.854   4.826   9.979  0.0215 -0.0359  0.0526
 1634SOL    HW1 9459  11.763   4.855   9.967  0.5353  0.9364 -1.8142
 1634SOL    HW2 9460  11.847   4.754  10.042 -2.6308 -2.9680 -3.1550
 1635SOL     OW 9461   1.816  10.985   1.746  1.0008 -0.1430  0.0501
 1635SOL    HW1 9462   1.866  10.956   1.822  0.6497  2.4459  1.3819
 1635SOL    HW2 9463   1.731  11.013   1.783 -0.1494 -1.2060 -1.6685
 1636SOL     OW 9464  10.250   7.306   1.027  0.1033  0.1658 -0.3870
 1636SOL    HW1 9465  10.239   7.211   1.039 -2.6103  0.5161  0.6226
 1636SOL    HW2 9466  10.253   7.317   0.932 -4.9872 -0.6622 -0.9389
 1637SOL     OW 9467   0.019   3.269   5.566 -0.1091 -0.5892 -0.2917
 1637SOL    HW1 9468  -0.060   3.216   5.570 -0.4532 -0.1238 -0.8210
 1637SOL    HW2 9469   0.032   3.302   5.655 -3.8178  4.1221 -1.1104
 1638SOL     OW 9470   2.056   1.524   6.824 -0.4183 -0.9354 -0.1768
 1638SOL    HW1 9471   2.141   1.498   6.790 -0.4252 -0.0654 -0.8868
 1638SOL    HW2 9472   2.033   1.455   6.888  0.4437 -1.5849 -0.5559
 1639SOL     OW 9473  10.963  10.186   1.164 -0.1849 -0.5881 -0.0056
 1639SOL    HW1 9474  10.949  10.264   1.110  0.1695 -1.5533 -1.5438
 1639SOL    HW2 9475  10.964  10.114   1.102  0.5859 -1.7148  1.2692
 1640SOL     OW 9476   6.647   4.669  10.260 -0.0768  0.1202  0.3516
 1640SOL    HW1 9477   6.614   4.585  10.226 -2.1544  0.1762  1.9977
 1640SOL    HW2 9478   6.741   4.656  10.267 -0.2620 -1.8555 -0.0483
 1641SOL     OW 9479   5.705   2.935   6.869  0.0597  0.2074 -0.4530
 1641SOL    HW1 9480   5.650   2.903   6.941  0.2886  0.7202 -0.0433
 1641SOL    HW2 9481   5.779   2.874   6.866  0.7701  0.9796  0.6746
 1642SOL     OW 9482   0.897   4.916  11.429  0.5538  0.2119 -0.1756
 1642SOL    HW1 9483   0.813   4.887  11.466  1.6990  1.0012  3.5004
 1642SOL    HW2 9484   0.873   4.973  11.356 -1.9918 -1.4668 -0.7739
 1643SOL     OW 9485  10.055   4.074   1.771  0.4091  0.0977 -0.5017
 1643SOL    HW1 9486  10.103   4.015   1.829 -2.8514 -2.1433  0.1772
 1643SOL    HW2 9487  10.082   4.049   1.683  3.1493  1.4966 -0.1793
 1644SOL     OW 9488   8.931   2.692  11.068 -0.0042 -0.4561  0.6356
 1644SOL    HW1 9489   8.959   2.782  11.058  0.9025 -0.6748  1.1257
 1644SOL    HW2 9490   8.989   2.641  11.012 -2.0612 -0.5253 -1.6045
 1645SOL     OW 9491  10.144   1.464   7.582  0.1582  0.2937 -0.1017
 1645SOL    HW1 9492  10.235   1.457   7.554 -0.0030 -0.5822 -0.4379
 1645SOL    HW2 9493  10.146   1.519   7.660  0.8771  0.9442 -0.5676
 1646SOL     OW 9494   9.187  10.477   5.502  0.4072 -0.0645 -0.3267
 1646SOL    HW1 9495   9.254  10.417   5.536  0.6243 -0.1240 -0.8542
 1646SOL    HW2 9496   9.168  10.536   5.575  0.8249 -0.2309 -0.0827
 1647SOL     OW 9497   7.858   5.358   8.364 -0.2618 -0.1957  0.3614
 1647SOL    HW1 9498   7.799   5.423   8.326  1.5340  0.9959 -0.5395
 1647SOL    HW2 9499   7.934   5.358   8.307  0.1318 -2.5947  0.7634
 1648SOL     OW 9500   1.058   1.983   0.894 -0.6709 -0.2414 -0.2855
 1648SOL    HW1 9501   1.152   1.981   0.908 -0.6097  1.6084 -0.1129
 1648SOL    HW2 9502   1.021   1.947   0.974 -0.1274 -2.0559 -0.8069
 1649SOL     OW 9503   7.027   9.042   7.400  0.4135 -0.4494  0.0759
 1649SOL    HW1 9504   6.961   8.980   7.430 -0.8303  1.1439  0.8311
 1649SOL    HW2 9505   7.060   9.082   7.481 -0.3895  1.3704 -0.4455
 1650SOL     OW 9506  12.095   8.716   3.659  0.3714 -0.4595  0.1387
 1650SOL    HW1 9507  12.172   8.740   3.607  0.9620 -1.2843  0.5948
 1650SOL    HW2 9508  12.051   8.799   3.677  1.0591  0.0086 -0.2803
 1651SOL     OW 9509   6.753   8.880   5.875 -0.5481  0.2949 -0.0905
 1651SOL    HW1 9510   6.797   8.884   5.960 -0.7373 -2.9147  0.2780
 1651SOL    HW2 9511   6.759   8.788   5.849 -5.9559 -0.2329 -0.5662
 1652SOL     OW 9512   7.412   8.955   8.311  0.3605 -0.2009 -0.1383
 1652SOL    HW1 9513   7.346   9.019   8.338  1.3704  0.5925  0.5324
 1652SOL    HW2 9514   7.392   8.877   8.362 -0.3845 -0.1513 -0.3444
 1653SOL     OW 9515   5.869   3.082  11.255  0.2957 -0.3925 -0.1176
 1653SOL    HW1 9516   5.935   3.041  11.311  0.2658 -1.6817 -0.9830
 1653SOL    HW2 9517   5.834   3.154  11.308  1.5369 -0.4313  0.8095
 1654SOL     OW 9518  11.306   6.686  11.035 -0.4973 -0.0601  0.2263
 1654SOL    HW1 9519  11.376   6.745  11.063 -0.1741 -0.4121  0.1697
 1654SOL    HW2 9520  11.339   6.599  11.055 -1.4758 -0.1821  1.4510
 1655SOL     OW 9521   7.784   7.650   4.070  0.1952 -0.3705 -0.3061
 1655SOL    HW1 9522   7.842   7.725   4.080  2.1247 -1.9381  1.1733
 1655SOL    HW2 9523   7.797   7.599   4.150  0.0306 -2.9730 -1.8333
 1656SOL     OW 9524   1.421   5.650   7.607  0.4991  0.6305  0.4990
 1656SOL    HW1 9525   1.432   5.573   7.662  0.9128  0.3532  0.0362
 1656SOL    HW2 9526   1.472   5.631   7.529  2.4205  2.2610  1.2611
 1657SOL     OW 9527   7.573   7.610   1.245  0.0308  0.5501  0.0787
 1657SOL    HW1 9528   7.665   7.638   1.243  0.7428 -0.5597  4.8720
 1657SOL    HW2 9529   7.526   7.685   1.282 -0.7210  0.4943 -0.7328
 1658SOL     OW 9530  10.004   8.840   1.881 -0.0336 -0.0563  0.5282
 1658SOL    HW1 9531   9.937   8.882   1.934 -0.1189  1.5013 -0.7431
 1658SOL    HW2 9532  10.085   8.853   1.930  0.0407  2.1812 -0.0470
 1659SOL     OW 9533   1.525   6.178   3.196  0.6495 -0.3724 -0.3952
 1659SOL    HW1 9534   1.431   6.161   3.192  0.1472  1.5633  1.3839
 1659SOL    HW2 9535   1.550   6.156   3.286  1.7420 -0.1730 -0.6330
 1660SOL     OW 9536   0.506   3.038   9.192 -0.4766 -0.3959  0.3005
 1660SOL    HW1 9537   0.513   3.016   9.285 -1.1339 -1.5823  0.0930
 1660SOL    HW2 9538   0.420   3.006   9.166  0.9823 -3.2682 -1.5019
 1661SOL     OW 9539  10.993   1.945   4.542 -0.3445 -0.2721  0.3174
 1661SOL    HW1 9540  11.029   1.886   4.608  2.8926  0.3150 -0.7399
 1661SOL    HW2 9541  10.961   1.887   4.473  1.7582 -0.9311 -0.1967
 1662SOL     OW 9542   7.649   9.772   0.133  0.1293 -0.2785  0.4326
 1662SOL    HW1 9543   7.741   9.778   0.160  0.5363  0.2625 -0.9905
 1662SOL    HW2 9544   7.636   9.846   0.075 -0.6582 -1.4416 -0.9337
 1663SOL     OW 9545  11.768   0.779  11.153  0.5432 -0.6894 -0.1536
 1663SOL    HW1 9546  11.763   0.797  11.247 -0.4011 -0.4803 -0.2365
 1663SOL    HW2 9547  11.784   0.685  11.147  1.3916 -0.5823  0.2197
 1664SOL     OW 9548   2.476   0.485   3.979 -0.5682 -0.4045 -0.2667
 1664SOL    HW1 9549   2.544   0.548   4.003 -0.7118  0.0975 -1.1141
 1664SOL    HW2 9550   2.506   0.402   4.015  0.4054 -0.1499 -0.4591
 1665SOL     OW 9551   1.773   3.198   0.973  0.0936  0.2318 -0.3028
 1665SOL    HW1 9552   1.782   3.104   0.983  0.0346  0.4078  1.9224
 1665SOL    HW2 9553   1.780   3.213   0.878 -3.0428 -2.3050 -1.1254
 1666SOL     OW 9554   3.334   7.093   4.509  0.3296  0.4486  0.0662
 1666SOL    HW1 9555   3.395   7.021   4.489 -0.3749 -0.6983  1.8324
 1666SOL    HW2 9556   3.247   7.053   4.504 -0.1946  1.6484 -0.7149
 1667SOL     OW 9557  10.252   5.748   7.428  0.5177 -0.4401  0.0435
 1667SOL    HW1 9558  10.239   5.841   7.450 -0.9112 -0.5321 -0.3316
 1667SOL    HW2 9559  10.336   5.726   7.468  1.0944  1.1285 -0.2307
 1668SOL     OW 9560   5.942   9.427   7.474 -0.0497 -0.5241  0.0074
 1668SOL    HW1 9561   6.027   9.382   7.472 -0.1428 -0.7313  0.6163
 1668SOL    HW2 9562   5.952   9.499   7.411  1.0236  0.2293  0.9831
 1669SOL     OW 9563   5.252   2.489   7.965  0.2054 -0.5951 -0.4519
 1669SOL    HW1 9564   5.198   2.420   7.927  1.1016 -2.1059  0.8695
 1669SOL    HW2 9565   5.229   2.488   8.058 -0.9928  2.1071 -0.6292
 1670SOL     OW 9566   1.645   3.329   8.063 -0.2632  1.0730  0.1845
 1670SOL    HW1 9567   1.667   3.236   8.067  0.5856  1.3071  1.5431
 1670SOL    HW2 9568   1.552   3.332   8.085 -0.9245  0.3705 -2.2401
 1671SOL     OW 9569  11.872   0.815   1.363  0.2806 -0.1454 -0.6354
 1671SOL    HW1 9570  11.853   0.908   1.351 -1.1898 -0.4590 -0.9686
 1671SOL    HW2 9571  11.923   0.811   1.444 -0.3672  0.8788 -0.1539
 1672SOL     OW 9572   9.681   5.497   3.707  0.0703  0.4933  0.0347
 1672SOL    HW1 9573   9.666   5.488   3.801  1.3115 -0.3597  0.1693
 1672SOL    HW2 9574   9.771   5.528   3.699 -0.5135  2.1016 -0.8476
 1673SOL     OW 9575   3.777   9.371   8.778  0.2744  0.2540  0.2377
 1673SOL    HW1 9576   3.868   9.359   8.806  0.8337  2.8108 -0.1626
 1673SOL    HW2 9577   3.777   9.455   8.732 -2.1373 -0.1027 -0.5848
 1674SOL     OW 9578   0.094   2.862   6.636  0.5253  0.0487 -0.0983
 1674SOL    HW1 9579   0.101   2.873   6.731 -1.5991 -0.3308  0.1500
 1674SOL    HW2 9580   0.121   2.947   6.600  0.4147  0.5182  0.8903
 1675SOL     OW 9581   4.024   2.803   9.132  0.1427 -0.5636 -0.2173
 1675SOL    HW1 9582   4.089   2.840   9.192  1.5757 -0.2623 -1.8710
 1675SOL    HW2 9583   3.954   2.867   9.130  0.7974  0.1751 -0.0490
 1676SOL     OW 9584   1.520   9.439   3.574  0.2270  0.0838  0.0196
 1676SOL    HW1 9585   1.527   9.411   3.483 -0.0840 -1.1051  0.3404
 1676SOL    HW2 9586   1.542   9.361   3.625 -0.8303  0.3640  0.9597
 1677SOL     OW 9587   4.068   5.009   6.480  0.3399 -0.0412  0.1541
 1677SOL    HW1 9588   4.067   5.100   6.510  3.9655  0.0117  0.5412
 1677SOL    HW2 9589   4.048   5.014   6.387  0.7754  1.2101  0.1158
 1678SOL     OW 9590  11.012   0.540  11.086  0.2419 -0.1599 -0.1222
 1678SOL    HW1 9591  10.939   0.598  11.063  1.0297  0.2190 -1.7559
 1678SOL    HW2 9592  11.059   0.526  11.004  0.8990 -1.9823  0.5216
 1679SOL     OW 9593   7.426   8.706   4.980 -0.0628 -0.3505 -0.3286
 1679SOL    HW1 9594   7.390   8.642   5.041  0.6141 -0.6986 -0.2869
 1679SOL    HW2 9595   7.462   8.775   5.036 -0.2458 -0.2277 -0.3600
 1680SOL     OW 9596   9.060   0.267   5.870  0.1397  0.0728 -0.2913
 1680SOL    HW1 9597   9.041   0.177   5.843  1.0317  0.3004 -1.7935
 1680SOL    HW2 9598   9.155   0.268   5.885  0.0032  0.5553  0.6210
 1681SOL     OW 9599   9.774  10.522   5.349 -0.5080 -0.3659  0.2273
 1681SOL    HW1 9600   9.870  10.522   5.346 -0.5212 -1.1298 -0.6100
 1681SOL    HW2 9601   9.747  10.507   5.258 -1.4029 -1.7651  0.6980
 1682SOL     OW 9602   2.049   4.440   5.297  0.0039  0.5744  0.4119
 1682SOL    HW1 9603   2.069   4.393   5.378  0.3261  0.3037  0.1791
 1682SOL    HW2 9604   1.978   4.500   5.320  0.5767  1.0121  1.0754
 1683SOL     OW 9605   0.509  10.109   2.540  0.7928  0.2832  0.0547
 1683SOL    HW1 9606   0.577  10.072   2.596 -0.1296 -0.3223  0.8090
 1683SOL    HW2 9607   0.484  10.038   2.482  0.1843  0.2178  0.3874
 1684SOL     OW 9608   7.453   5.947   1.095  0.2573 -0.1384 -0.1758
 1684SOL    HW1 9609   7.545   5.971   1.104  0.4649 -0.5845 -0.9779
 1684SOL    HW2 9610   7.415   5.967   1.180  0.6116  2.1101 -0.4793
 1685SOL     OW 9611  10.749   7.131  11.967 -0.8843  0.7394  0.2990
 1685SOL    HW1 9612  10.726   7.206  11.912  1.4601  0.7225 -0.8257
 1685SOL    HW2 9613  10.821   7.088  11.920 -1.5971 -1.7621  1.3129
 1686SOL     OW 9614   6.571   2.262   7.195  0.1501  0.8150  0.7861
 1686SOL    HW1 9615   6.557   2.257   7.101 -0.8051 -0.1241  0.9615
 1686SOL    HW2 9616   6.517   2.336   7.223 -0.2672  0.5509  0.7012
 1687SOL     OW 9617  10.047   7.250   5.548  0.4514  0.1753  0.2977
 1687SOL    HW1 9618  10.083   7.270   5.634  1.7581 -1.3094  0.1326
 1687SOL    HW2 9619  10.122   7.224   5.495 -0.4382  0.2354 -1.0717
 1688SOL     OW 9620  10.566   2.786   6.580  0.1741 -0.0270  0.5779
 1688SOL    HW1 9621  10.655   2.804   6.551 -0.7560  2.6039 -1.0115
 1688SOL    HW2 9622  10.514   2.782   6.499 -1.2583 -0.8238  1.4896
 1689SOL     OW 9623  11.870   3.050   5.544  0.5048  0.1091  0.0545
 1689SOL    HW1 9624  11.860   3.047   5.639  1.8203  2.3515  0.3280
 1689SOL    HW2 9625  11.793   3.098   5.513  0.1453 -0.5029 -0.0151
 1690SOL     OW 9626   1.917   2.553   6.887 -0.3979  0.1027 -0.0296
 1690SOL    HW1 9627   1.990   2.600   6.928 -0.9659  0.2756  0.8056
 1690SOL    HW2 9628   1.886   2.492   6.954 -0.4264 -0.6351 -0.7017
 1691SOL     OW 9629   6.441   2.001   5.444 -0.3616 -0.3867  0.3192
 1691SOL    HW1 9630   6.431   1.965   5.356  0.2499  2.3988 -1.0349
 1691SOL    HW2 9631   6.534   1.986   5.465 -0.1082  0.3086 -0.2383
 1692SOL     OW 9632   8.803   4.198  10.539 -0.2280 -0.4235 -0.2895
 1692SOL    HW1 9633   8.777   4.134  10.605  1.2830 -0.7707 -0.0116
 1692SOL    HW2 9634   8.885   4.235  10.571 -0.3942  0.7249 -1.0941
 1693SOL     OW 9635   2.827  11.681  12.108 -0.0577 -0.1430 -0.1706
 1693SOL    HW1 9636   2.771  11.626  12.053  1.0128 -3.0675  1.3843
 1693SOL    HW2 9637   2.911  11.683  12.062 -0.0453  0.0365 -0.1394
 1694SOL     OW 9638   9.149   8.926   2.460  0.3422  0.0661 -0.4883
 1694SOL    HW1 9639   9.058   8.915   2.433  0.7122 -1.2164 -1.3282
 1694SOL    HW2 9640   9.162   8.859   2.527  0.3676  0.9956  0.4499
 1695SOL     OW 9641   8.944   1.092   7.304 -0.2253  0.3838  0.1566
 1695SOL    HW1 9642   8.962   1.002   7.274  1.3659  0.6467  0.1968
 1695SOL    HW2 9643   8.889   1.129   7.235  0.1530 -0.2374 -0.5056
 1696SOL     OW 9644   3.380   2.686   3.232  0.1871  0.5399  0.2561
 1696SOL    HW1 9645   3.401   2.609   3.284 -0.1163  1.1075  1.2519
 1696SOL    HW2 9646   3.457   2.743   3.241  0.3100  0.4561 -0.2695
 1697SOL     OW 9647  10.662   6.358  12.121  0.1771  0.0932 -0.1797
 1697SOL    HW1 9648  10.754   6.380  12.136  0.1482  2.0826 -2.3185
 1697SOL    HW2 9649  10.664   6.281  12.063  0.3691 -1.7023  2.0709
 1698SOL     OW 9650   8.279   7.349   1.856  0.9798  0.2496  0.3842
 1698SOL    HW1 9651   8.240   7.426   1.814  0.0332 -1.0963 -1.3042
 1698SOL    HW2 9652   8.372   7.370   1.861  1.2324  0.3680 -2.8393
 1699SOL     OW 9653   4.505   0.755   1.209  0.4585 -0.2644  0.0787
 1699SOL    HW1 9654   4.512   0.677   1.155 -1.3064  0.7398 -1.7361
 1699SOL    HW2 9655   4.449   0.728   1.282 -1.6467 -0.3080 -1.4713
 1700SOL     OW 9656   1.544   8.141   9.109  0.2562 -0.1144  0.4094
 1700SOL    HW1 9657   1.613   8.206   9.128  1.1863 -0.3390 -1.9087
 1700SOL    HW2 9658   1.580   8.089   9.038 -2.3362 -0.2341 -0.8988
 1701SOL     OW 9659   1.796   0.211   6.533  0.2177  0.1324 -0.2798
 1701SOL    HW1 9660   1.766   0.262   6.457  0.3129  0.2396 -0.2461
 1701SOL    HW2 9661   1.887   0.189   6.512 -0.0332 -0.6326 -0.6178
 1702SOL     OW 9662   8.557   9.135  12.072 -0.0990 -0.4712 -0.0519
 1702SOL    HW1 9663   8.469   9.108  12.099  0.4084 -1.7977  0.3371
 1702SOL    HW2 9664   8.545   9.168  11.982 -0.6415 -3.0128 -1.0058
 1703SOL     OW 9665   1.354   5.638   4.034  0.0509  0.4445 -0.6121
 1703SOL    HW1 9666   1.291   5.610   4.100  0.5410  0.3178 -0.1923
 1703SOL    HW2 9667   1.301   5.676   3.964 -0.4578  0.7408 -0.0681
 1704SOL     OW 9668   3.608   2.646   9.065 -0.1831 -0.0061 -0.1912
 1704SOL    HW1 9669   3.596   2.616   9.155 -0.5594  1.3004  0.2137
 1704SOL    HW2 9670   3.572   2.734   9.064  2.2030  1.0634 -0.9439
 1705SOL     OW 9671  10.695  11.619  11.677 -0.3118  0.1550 -0.4718
 1705SOL    HW1 9672  10.781  11.582  11.659 -0.4176 -0.7947  0.8233
 1705SOL    HW2 9673  10.656  11.633  11.591  0.4390 -1.0723 -1.0328
 1706SOL     OW 9674   4.828   0.936   8.747  0.1338  0.3100 -0.2725
 1706SOL    HW1 9675   4.919   0.952   8.722 -0.2404  1.3739 -1.0303
 1706SOL    HW2 9676   4.790   1.023   8.757 -0.5095 -0.1072  1.2112
 1707SOL     OW 9677   0.717   4.647   5.200 -0.1889 -0.0094 -0.1900
 1707SOL    HW1 9678   0.647   4.692   5.246 -0.9548  0.2281 -1.5187
 1707SOL    HW2 9679   0.749   4.711   5.136 -0.6330 -0.9972 -1.4453
 1708SOL     OW 9680   9.551   3.623   5.539 -0.5488  0.4496  0.3408
 1708SOL    HW1 9681   9.600   3.673   5.474 -0.0067 -1.5637 -0.8864
 1708SOL    HW2 9682   9.465   3.610   5.499 -0.2915 -0.5973  0.1064
 1709SOL     OW 9683  10.999   0.678   2.824  0.1132  0.0431 -0.1658
 1709SOL    HW1 9684  10.945   0.620   2.878  0.6911 -0.9235 -0.6151
 1709SOL    HW2 9685  11.082   0.683   2.871  0.0279  0.5998 -0.0720
 1710SOL     OW 9686   5.092   8.692   3.713  0.1611  0.0186  0.7782
 1710SOL    HW1 9687   5.055   8.779   3.724 -0.7413 -0.2483 -0.0495
 1710SOL    HW2 9688   5.019   8.632   3.729 -0.2051 -0.4839 -2.2398
 1711SOL     OW 9689   3.518  11.732   3.116 -0.2813  0.0884  0.2804
 1711SOL    HW1 9690   3.456  11.699   3.181 -1.1495  1.1530  0.0145
 1711SOL    HW2 9691   3.604  11.708   3.151 -0.7630  0.0305  1.4619
 1712SOL     OW 9692   0.136  11.382   8.274  0.2462  0.3445  0.0792
 1712SOL    HW1 9693   0.224  11.371   8.240  0.2836 -1.0062  0.5553
 1712SOL    HW2 9694   0.102  11.459   8.228  1.7720  1.0902  0.1447
 1713SOL     OW 9695   4.217   5.751   7.975 -0.1183  0.0095  0.3777
 1713SOL    HW1 9696   4.236   5.796   7.893  1.8654 -0.4325  0.5432
 1713SOL    HW2 9697   4.213   5.820   8.040 -1.4510  0.3381 -0.0356
 1714SOL     OW 9698   5.151   9.711   3.050 -0.0982  0.7113  0.5199
 1714SOL    HW1 9699   5.143   9.731   3.143 -1.4013 -0.8081  0.7857
 1714SOL    HW2 9700   5.245   9.720   3.032  0.1461  1.2561  1.9221
 1715SOL     OW 9701   2.817  11.567   6.357 -0.6440 -0.0264 -0.1734
 1715SOL    HW1 9702   2.759  11.495   6.380 -0.5262 -0.1941 -0.4069
 1715SOL    HW2 9703   2.883  11.567   6.426  0.1953 -1.0639 -0.9436
 1716SOL     OW 9704   8.368   4.675   1.532  0.1371 -0.1438  0.3274
 1716SOL    HW1 9705   8.425   4.655   1.458  1.1502 -1.1148  1.3281
 1716SOL    HW2 9706   8.311   4.744   1.500  0.7248 -0.3510 -1.2697
 1717SOL     OW 9707   2.891   6.561   4.089 -0.5803 -0.3450 -0.3449
 1717SOL    HW1 9708   2.966   6.511   4.057 -0.3621 -1.3871  1.6060
 1717SOL    HW2 9709   2.929   6.643   4.119 -0.3857 -0.4254 -0.3655
 1718SOL     OW 9710   4.995   0.404   7.268 -0.4688 -0.7714 -0.3723
 1718SOL    HW1 9711   4.941   0.479   7.296 -2.3407 -1.5819 -1.6088
 1718SOL    HW2 9712   5.038   0.374   7.348 -0.6044  0.8770  0.3641
 1719SOL     OW 9713   0.013   0.623   4.004 -0.2335  0.3348 -0.4296
 1719SOL    HW1 9714  -0.068   0.674   4.006 -0.1799  0.4056  0.7279
 1719SOL    HW2 9715   0.031   0.610   3.911  0.0767  2.9275 -0.7932
 1720SOL     OW 9716   7.512   7.003   6.625  0.0609 -0.3360  0.6190
 1720SOL    HW1 9717   7.564   6.979   6.701 -1.7301  0.4200  2.1559
 1720SOL    HW2 9718   7.497   7.097   6.635 -1.2393 -0.4562  0.0130
 1721SOL     OW 9719  11.756   0.261   8.795  0.3319  0.4156  0.2715
 1721SOL    HW1 9720  11.666   0.281   8.822  0.1232  1.3763 -1.0697
 1721SOL    HW2 9721  11.787   0.197   8.860 -1.4172 -0.1710  0.5666
 1722SOL     OW 9722   7.660   5.186   6.182 -0.2038  0.3501 -0.3348
 1722SOL    HW1 9723   7.579   5.229   6.157  0.9901  0.8579 -3.9717
 1722SOL    HW2 9724   7.718   5.258   6.207  0.0150  0.3016 -0.6929
 1723SOL     OW 9725   2.027   3.692   7.898 -0.7484 -1.0013 -0.0990
 1723SOL    HW1 9726   2.087   3.641   7.953 -0.2563  1.0547  1.3865
 1723SOL    HW2 9727   1.946   3.695   7.949 -1.3367 -1.6875 -0.9665
 1724SOL     OW 9728  10.802  11.614  11.321 -0.5291 -0.0426 -0.0492
 1724SOL    HW1 9729  10.738  11.543  11.315  0.1139 -0.5502 -1.1436
 1724SOL    HW2 9730  10.798  11.656  11.236  0.3213  0.1679  0.0116
 1725SOL     OW 9731  10.136   6.811   1.806 -0.3695 -0.0675 -0.4179
 1725SOL    HW1 9732  10.120   6.815   1.712  1.4491  0.4485 -0.7458
 1725SOL    HW2 9733  10.182   6.728   1.820 -1.3245 -0.5179  0.1548
 1726SOL     OW 9734   3.128   2.723   6.859  0.0318  0.1986  0.0081
 1726SOL    HW1 9735   3.060   2.673   6.815  0.1664 -0.1288  0.1700
 1726SOL    HW2 9736   3.157   2.787   6.793  0.3963 -0.4377 -0.4653
 1727SOL     OW 9737   6.525   8.151   5.139  0.5822  0.3144  0.1644
 1727SOL    HW1 9738   6.541   8.245   5.127  1.5510  0.0274 -0.9360
 1727SOL    HW2 9739   6.601   8.108   5.099 -0.6631 -0.9763 -0.9277
 1728SOL     OW 9740   6.998   7.458   5.319  0.1504  0.0990 -0.6635
 1728SOL    HW1 9741   7.072   7.429   5.372 -1.5183 -0.4197  1.4994
 1728SOL    HW2 9742   6.959   7.378   5.284 -1.8778 -0.0845  1.7639
 1729SOL     OW 9743   8.246   8.804   8.381 -0.1317 -0.9665 -0.2738
 1729SOL    HW1 9744   8.230   8.872   8.315  1.6947 -0.4299 -0.2083
 1729SOL    HW2 9745   8.312   8.842   8.439  0.3067 -2.4845  0.2636
 1730SOL     OW 9746  10.437   7.171   2.664  0.6117  0.3377  0.6617
 1730SOL    HW1 9747  10.370   7.168   2.596 -0.6364  1.4832  1.7822
 1730SOL    HW2 9748  10.515   7.204   2.619 -0.0245  0.5608 -0.3154
 1731SOL     OW 9749   2.373   7.668   2.460 -0.7123 -0.5353  0.5530
 1731SOL    HW1 9750   2.412   7.707   2.538 -0.7421  0.2185  0.1929
 1731SOL    HW2 9751   2.428   7.698   2.388 -1.0781 -0.6830  0.2077
 1732SOL     OW 9752   6.822   0.723   7.005  0.4919 -0.2621 -0.2323
 1732SOL    HW1 9753   6.837   0.802   6.952  1.1167 -0.4693 -0.3704
 1732SOL    HW2 9754   6.761   0.671   6.953  0.7675 -0.2680 -0.5563
 1733SOL     OW 9755   1.800  11.850   0.202 -0.0398  0.0900 -0.0005
 1733SOL    HW1 9756   1.781  11.757   0.194 -1.1115  0.1445  1.4840
 1733SOL    HW2 9757   1.770  11.888   0.120  0.6720 -0.8929 -0.7342
 1734SOL     OW 9758   0.505   4.144   0.746 -0.0174  0.1766 -0.4603
 1734SOL    HW1 9759   0.512   4.070   0.805  1.7557  0.4221 -0.2880
 1734SOL    HW2 9760   0.433   4.197   0.781 -1.8389 -1.7917 -1.0408
 1735SOL     OW 9761  11.089   1.729   1.186  0.0040  0.1077  0.5718
 1735SOL    HW1 9762  11.029   1.792   1.227 -0.0146  1.1867 -1.0252
 1735SOL    HW2 9763  11.049   1.711   1.100  0.2182 -1.8123  0.8320
 1736SOL     OW 9764   4.446  11.345  11.698  0.6484  0.0641  0.2613
 1736SOL    HW1 9765   4.389  11.405  11.650 -0.2745  0.8480  2.2235
 1736SOL    HW2 9766   4.472  11.395  11.776  1.4216 -1.4292  0.9914
 1737SOL     OW 9767   2.719   2.032   7.424  0.3664  0.0482  0.3167
 1737SOL    HW1 9768   2.646   1.981   7.459 -0.4718  0.5301 -0.6816
 1737SOL    HW2 9769   2.688   2.064   7.339  0.6619  2.6099  1.0818
 1738SOL     OW 9770   2.099   4.721   7.706  0.0146  0.5318 -0.3695
 1738SOL    HW1 9771   2.169   4.718   7.772  0.4014  1.0571 -0.7460
 1738SOL    HW2 9772   2.020   4.743   7.754 -0.1557 -1.2587  0.2647
 1739SOL     OW 9773   1.570  11.413   5.785  0.0196  0.4844  0.3238
 1739SOL    HW1 9774   1.575  11.334   5.839 -1.8044  1.5027  2.1584
 1739SOL    HW2 9775   1.481  11.411   5.749  0.3186  1.1794 -0.4790
 1740SOL     OW 9776   3.516   9.475   8.616 -0.2688 -0.0849  0.1350
 1740SOL    HW1 9777   3.595   9.421   8.606 -0.8111 -0.9275  0.2966
 1740SOL    HW2 9778   3.549   9.565   8.618  0.8094 -0.4712  1.4029
 1741SOL     OW 9779   7.509  10.168   8.139 -0.3696  0.5376 -0.3207
 1741SOL    HW1 9780   7.581  10.231   8.135  1.5183 -1.2792  1.7376
 1741SOL    HW2 9781   7.503  10.133   8.050  1.0454  1.0491 -0.6439
 1742SOL     OW 9782   8.847   9.158  12.121  0.0609 -0.1742 -0.0027
 1742SOL    HW1 9783   8.753   9.155  12.104 -0.2025 -1.0566  1.4345
 1742SOL    HW2 9784   8.887   9.102  12.054 -0.2507  1.3275 -1.5140
 1743SOL     OW 9785   0.562   2.026  10.024 -0.1152  0.1655 -0.5333
 1743SOL    HW1 9786   0.574   1.955   9.962  1.5385 -2.1556  2.1819
 1743SOL    HW2 9787   0.473   2.016  10.056  0.9133 -2.7035  1.8823
 1744SOL     OW 9788   4.922   9.218   4.047 -0.2830 -0.1804 -0.3709
 1744SOL    HW1 9789   4.898   9.128   4.023  2.7927 -0.8131 -1.5601
 1744SOL    HW2 9790   4.946   9.212   4.139  0.1135 -0.6739 -0.4958
 1745SOL     OW 9791   2.234   8.566   8.448 -0.4279 -0.2264  0.2383
 1745SOL    HW1 9792   2.328   8.577   8.462 -0.3906 -1.6144  1.3688
 1745SOL    HW2 9793   2.195   8.646   8.483  0.1904 -0.6751  2.0955
 1746SOL     OW 9794   4.745   1.595   0.939 -0.5923 -0.0457 -0.7139
 1746SOL    HW1 9795   4.737   1.525   1.003 -0.9579  1.1195  0.5455
 1746SOL    HW2 9796   4.668   1.586   0.883 -1.3477  0.1724  0.2784
 1747SOL     OW 9797   6.515   4.456   6.198  0.0756 -0.2704  0.4581
 1747SOL    HW1 9798   6.472   4.376   6.227  1.3808 -0.4696  2.0336
 1747SOL    HW2 9799   6.554   4.434   6.113 -1.1240 -0.7078  0.0083
 1748SOL     OW 9800   9.413   7.198   6.521 -0.2078 -0.6266 -0.4452
 1748SOL    HW1 9801   9.496   7.176   6.565  0.6901  2.1801 -0.5705
 1748SOL    HW2 9802   9.367   7.253   6.584 -1.7285 -1.6029 -0.6603
 1749SOL     OW 9803   1.060   9.352  11.163  0.3526 -0.2331 -0.3555
 1749SOL    HW1 9804   1.109   9.395  11.092 -0.0900 -0.1503 -0.6129
 1749SOL    HW2 9805   1.125   9.337  11.232  0.5301  0.7933 -0.2901
 1750SOL     OW 9806   0.504   7.304   6.538 -0.7136 -0.2399  0.5114
 1750SOL    HW1 9807   0.561   7.238   6.498 -1.1811 -1.3166  1.5674
 1750SOL    HW2 9808   0.415   7.273   6.521 -1.0762  1.7372 -1.6541
 1751SOL     OW 9809   6.916   9.274   9.559  0.0731 -0.1443  0.3152
 1751SOL    HW1 9810   6.844   9.226   9.520  0.3527 -1.0659  0.9005
 1751SOL    HW2 9811   6.889   9.366   9.556  0.0585 -0.1829 -1.9572
 1752SOL     OW 9812   8.142   9.024   0.892 -0.2844 -0.4091  0.0019
 1752SOL    HW1 9813   8.095   8.954   0.937  0.7567 -1.7130 -0.8850
 1752SOL    HW2 9814   8.081   9.056   0.826 -0.2314 -1.5125 -0.5854
 1753SOL     OW 9815   2.107   2.579   8.372 -0.4800  1.3741  0.1483
 1753SOL    HW1 9816   2.076   2.660   8.332  0.4199  0.7076 -2.0471
 1753SOL    HW2 9817   2.129   2.603   8.462 -0.0219  3.6189 -0.5168
 1754SOL     OW 9818   1.665   3.195   4.669 -0.4513  0.1197  0.1353
 1754SOL    HW1 9819   1.637   3.272   4.718 -0.1606  0.0982  0.3390
 1754SOL    HW2 9820   1.669   3.125   4.734  3.7522  0.9077  1.0564
 1755SOL     OW 9821   6.707   5.175   2.403  0.0697 -0.0915  0.2286
 1755SOL    HW1 9822   6.763   5.244   2.368  0.4745  0.6562  2.2055
 1755SOL    HW2 9823   6.742   5.094   2.367  2.0810  0.4197  0.9175
 1756SOL     OW 9824   2.873   0.938   2.170  0.2620 -0.1625  0.1018
 1756SOL    HW1 9825   2.850   0.862   2.224 -0.8123  1.8202  2.6859
 1756SOL    HW2 9826   2.933   0.904   2.104 -1.7891 -3.6009 -0.2025
 1757SOL     OW 9827  10.707  11.114   1.720 -0.3923 -0.4308 -0.0942
 1757SOL    HW1 9828  10.755  11.097   1.639 -0.4725  0.5150 -0.3463
 1757SOL    HW2 9829  10.774  11.122   1.787 -0.3907 -3.2490  0.3640
 1758SOL     OW 9830   5.915   2.926   3.787  0.1927  0.1233 -0.1741
 1758SOL    HW1 9831   5.953   2.904   3.702  0.9741 -0.3616  0.2824
 1758SOL    HW2 9832   5.891   2.842   3.825 -1.8168  0.4379 -0.6308
 1759SOL     OW 9833   9.568   9.976   8.230  0.3715 -1.0683 -0.2370
 1759SOL    HW1 9834   9.496   9.997   8.290  0.0898 -0.6465 -0.7200
 1759SOL    HW2 9835   9.640  10.031   8.259  0.5431 -1.5776  0.3222
 1760SOL     OW 9836   6.253  10.987   7.052 -0.0627  0.5780  0.5465
 1760SOL    HW1 9837   6.285  10.897   7.057 -0.4404  0.3305 -1.0206
 1760SOL    HW2 9838   6.261  11.011   6.960 -0.1201  2.1021  0.9069
 1761SOL     OW 9839   5.756   6.286   6.489  0.3332 -0.2333  0.3336
 1761SOL    HW1 9840   5.810   6.261   6.414 -0.3172 -1.3570  0.2170
 1761SOL    HW2 9841   5.689   6.344   6.452  1.9424  1.9527  0.6307
 1762SOL     OW 9842   0.110   2.480   0.044  0.1062  0.3326 -0.7625
 1762SOL    HW1 9843   0.097   2.429  -0.036  0.7662  0.2919 -0.8510
 1762SOL    HW2 9844   0.179   2.543   0.022  0.9031 -0.2337  0.0054
 1763SOL     OW 9845   1.292   0.964   1.135 -0.3918 -0.1029  0.3977
 1763SOL    HW1 9846   1.385   0.963   1.158 -0.3610  0.0635  0.2810
 1763SOL    HW2 9847   1.291   0.977   1.040 -0.4687 -2.4077  0.0225
 1764SOL     OW 9848   9.651  10.356   8.386  0.5243 -0.2977  0.6714
 1764SOL    HW1 9849   9.570  10.307   8.393  0.0918  0.1188 -0.9059
 1764SOL    HW2 9850   9.719  10.289   8.373  0.0118 -0.5515 -0.9309
 1765SOL     OW 9851  10.732  11.636   1.592 -0.3304 -0.1968 -0.0027
 1765SOL    HW1 9852  10.778  11.691   1.656 -2.9774  0.7912  1.2175
 1765SOL    HW2 9853  10.711  11.695   1.520  2.4930 -1.2708 -1.8318
 1766SOL     OW 9854   8.944   2.844   8.007 -0.1307 -0.7188 -0.2586
 1766SOL    HW1 9855   8.962   2.782   8.078  2.1757 -0.6466 -0.7047
 1766SOL    HW2 9856   9.021   2.840   7.951 -1.8743 -0.7713 -2.8177
 1767SOL     OW 9857   9.279   9.287   5.850 -0.5095 -0.3317 -0.6901
 1767SOL    HW1 9858   9.304   9.283   5.758 -0.2940  0.6741 -0.6950
 1767SOL    HW2 9859   9.316   9.370   5.881 -1.9078  0.1116 -0.1146
 1768SOL     OW 9860   2.535   3.459  10.705 -0.7489  0.1664 -0.3385
 1768SOL    HW1 9861   2.477   3.432  10.634 -0.1835  0.7451 -1.0278
 1768SOL    HW2 9862   2.584   3.380  10.728  0.5822  0.4394 -2.0434
 1769SOL     OW 9863   2.027   8.253  11.171 -0.2472  0.3664 -0.2856
 1769SOL    HW1 9864   1.959   8.321  11.167 -0.3748  0.2104 -0.8140
 1769SOL    HW2 9865   2.109   8.301  11.176 -0.4488  0.5761  1.7078
 1770SOL     OW 9866  11.265  11.516   4.952  0.6460  0.1612  0.1443
 1770SOL    HW1 9867  11.188  11.528   4.898  1.0859  1.4027 -0.2346
 1770SOL    HW2 9868  11.308  11.438   4.917  0.6043  0.6071 -0.9133
 1771SOL     OW 9869   1.043   1.042   9.409  0.1423 -0.3927  0.3249
 1771SOL    HW1 9870   1.104   1.108   9.444  1.9804 -1.4021 -0.8452
 1771SOL    HW2 9871   1.094   0.993   9.345 -1.4409 -2.4100  0.5116
 1772SOL     OW 9872   8.458  10.009   4.789 -0.4718 -0.5447 -0.6581
 1772SOL    HW1 9873   8.453   9.916   4.813  0.2641 -0.4994 -0.2762
 1772SOL    HW2 9874   8.448  10.010   4.694 -0.0098 -1.0712 -0.7212
 1773SOL     OW 9875  10.830   0.741   7.909 -0.0055  0.4975 -0.4627
 1773SOL    HW1 9876  10.876   0.802   7.967 -1.2751 -1.0172  2.3279
 1773SOL    HW2 9877  10.894   0.672   7.892  0.5240  1.1751 -1.3348
 1774SOL     OW 9878   0.104   0.327   5.274 -0.2330  0.0697  0.1559
 1774SOL    HW1 9879   0.077   0.248   5.227 -1.5484  1.2334 -1.1390
 1774SOL    HW2 9880   0.029   0.350   5.329  0.0616  0.5474  0.3672
 1775SOL     OW 9881   4.171   8.638   9.165 -0.5952  0.0240  0.3522
 1775SOL    HW1 9882   4.210   8.611   9.082 -1.4026  0.7044 -0.2671
 1775SOL    HW2 9883   4.102   8.573   9.181  0.1863 -0.6648  0.9957
 1776SOL     OW 9884   6.130  10.530  11.453 -0.0502  0.0292  0.4135
 1776SOL    HW1 9885   6.086  10.554  11.371  0.9480 -0.0843 -0.1702
 1776SOL    HW2 9886   6.179  10.608  11.478  1.2849 -0.5760 -0.2109
 1777SOL     OW 9887   8.518   0.029   9.706 -0.6064  0.2302  0.3222
 1777SOL    HW1 9888   8.506   0.123   9.720 -0.2996  0.4371 -0.6826
 1777SOL    HW2 9889   8.451   0.005   9.642 -0.6409 -0.2130  0.5237
 1778SOL     OW 9890   4.170   3.657   8.763  0.2290 -0.0108 -0.7225
 1778SOL    HW1 9891   4.208   3.576   8.730  1.0692 -0.0550  0.2891
 1778SOL    HW2 9892   4.078   3.654   8.736 -0.3177 -2.2895  1.0228
 1779SOL     OW 9893   4.208   2.634   5.071 -0.0512  0.2169  0.0412
 1779SOL    HW1 9894   4.237   2.631   4.980 -1.7973 -1.3013 -0.5154
 1779SOL    HW2 9895   4.278   2.682   5.116  0.8134  1.0894 -2.0806
 1780SOL     OW 9896   2.748   9.620  11.375 -0.1782  0.1614  0.0030
 1780SOL    HW1 9897   2.695   9.667  11.440 -1.0714  0.1092 -0.6622
 1780SOL    HW2 9898   2.837   9.623  11.410 -0.7136 -0.3342  1.4956
 1781SOL     OW 9899   8.779   7.211  10.087  0.5168  0.1297  0.1850
 1781SOL    HW1 9900   8.868   7.231  10.115 -0.0125  1.6316  0.8626
 1781SOL    HW2 9901   8.757   7.130  10.133  1.4906 -0.2199  0.0585
 1782SOL     OW 9902   2.479   1.000   3.802 -1.1360 -0.3027  0.3719
 1782SOL    HW1 9903   2.495   1.004   3.708 -3.3924 -1.7081 -0.1377
 1782SOL    HW2 9904   2.467   1.092   3.828 -0.1876  0.1213 -0.6250
 1783SOL     OW 9905   8.764  10.774   4.197 -0.1815  0.0625 -0.3754
 1783SOL    HW1 9906   8.771  10.721   4.276  0.0510 -1.5846 -1.4691
 1783SOL    HW2 9907   8.818  10.851   4.216 -3.0240  1.6294  2.4811
 1784SOL     OW 9908   2.832   0.384  10.026  0.3040 -0.1917  0.1886
 1784SOL    HW1 9909   2.810   0.467  10.070 -0.1794  0.9947 -2.1508
 1784SOL    HW2 9910   2.928   0.383  10.026  0.3545  1.1276 -1.0046
 1785SOL     OW 9911  11.089  10.710  11.195  0.3650  0.3116  0.4128
 1785SOL    HW1 9912  11.080  10.753  11.279 -2.3416  0.7621 -0.0287
 1785SOL    HW2 9913  11.034  10.631  11.201 -0.6547  0.8394 -1.1866
 1786SOL     OW 9914   6.037   3.619   3.819  0.6774 -0.2247  0.5048
 1786SOL    HW1 9915   6.105   3.579   3.764  0.3471 -0.2557  0.1162
 1786SOL    HW2 9916   5.955   3.597   3.776  0.4876  0.9359  0.2387
 1787SOL     OW 9917   0.214   9.034   1.927  0.3935  0.7381  0.6524
 1787SOL    HW1 9918   0.152   9.067   1.861 -0.1310  1.7990  1.6424
 1787SOL    HW2 9919   0.167   8.963   1.970  0.7522  0.0146 -0.1167
 1788SOL     OW 9920  10.486  11.698   5.603  0.5411 -0.0157 -0.3493
 1788SOL    HW1 9921  10.469  11.661   5.690  0.0471 -1.5075 -1.0328
 1788SOL    HW2 9922  10.527  11.782   5.620 -0.9013  0.4144  1.3425
 1789SOL     OW 9923   7.322  10.801   5.432  0.3411 -1.1335  0.2715
 1789SOL    HW1 9924   7.411  10.766   5.442 -0.1706 -2.5700 -0.0072
 1789SOL    HW2 9925   7.275  10.771   5.510  0.3505  0.5498  0.9761
 1790SOL     OW 9926   9.743  10.152   5.847 -0.3253  0.5592  0.5868
 1790SOL    HW1 9927   9.672  10.111   5.797 -0.3947 -0.0451  1.1717
 1790SOL    HW2 9928   9.822  10.128   5.800 -0.6129  3.2108 -1.4691
 1791SOL     OW 9929  10.507   2.302  11.387  0.2926  0.5330  0.1472
 1791SOL    HW1 9930  10.479   2.247  11.461  1.6967 -0.0590  0.2757
 1791SOL    HW2 9931  10.577   2.251  11.345 -0.8375  0.6230 -1.9367
 1792SOL     OW 9932  10.574  11.937  10.883 -0.1517  0.8618 -0.0803
 1792SOL    HW1 9933  10.560  12.032  10.880  1.3260  1.0934 -0.3724
 1792SOL    HW2 9934  10.498  11.904  10.929 -0.8875  2.1510 -0.3018
 1793SOL     OW 9935   4.733   3.330  10.718 -0.4654  0.8411 -0.0628
 1793SOL    HW1 9936   4.639   3.337  10.737 -0.3641  2.0843  0.0473
 1793SOL    HW2 9937   4.768   3.417  10.737  0.3508  0.9945 -1.9977
 1794SOL     OW 9938   8.207  11.864   3.233  0.2223  0.5096  0.2220
 1794SOL    HW1 9939   8.270  11.819   3.177 -0.7671 -0.3605 -0.2481
 1794SOL    HW2 9940   8.163  11.794   3.281 -1.3848  0.9292 -0.5480
 1795SOL     OW 9941  11.397   8.398   0.394 -0.1624 -0.1659  0.2006
 1795SOL    HW1 9942  11.417   8.491   0.386 -0.5437 -0.0419  0.6686
 1795SOL    HW2 9943  11.459   8.365   0.459 -2.0429  0.4268  2.4107
 1796SOL     OW 9944   3.402   1.143   9.790  0.6096  0.0634 -0.0713
 1796SOL    HW1 9945   3.372   1.227   9.824  0.2490 -0.3882  0.7454
 1796SOL    HW2 9946   3.447   1.102   9.864  1.0249 -0.3490 -0.5452
 1797SOL     OW 9947   7.269   5.913   2.206 -0.2589 -0.6380  0.5158
 1797SOL    HW1 9948   7.211   5.977   2.165  0.5948  1.5712  2.5383
 1797SOL    HW2 9949   7.342   5.904   2.144 -0.6824 -0.1079 -0.0726
 1798SOL     OW 9950  10.606  11.669   3.705 -0.1119 -0.0630 -0.2031
 1798SOL    HW1 9951  10.590  11.754   3.745  1.8534 -0.6436  2.0090
 1798SOL    HW2 9952  10.696  11.675   3.671 -0.2427 -1.0104 -0.7634
 1799SOL     OW 9953   1.162   8.202   3.132 -0.0633  0.2304 -0.5079
 1799SOL    HW1 9954   1.186   8.273   3.192 -1.5247  1.0461 -0.8392
 1799SOL    HW2 9955   1.122   8.136   3.189 -0.0641  0.3270 -0.3947
 1800SOL     OW 9956   1.273   9.720   5.340  0.1234  0.2509 -0.4010
 1800SOL    HW1 9957   1.278   9.633   5.301  0.8270 -0.3218  0.8978
 1800SOL    HW2 9958   1.358   9.760   5.322 -0.4074  0.9198 -1.5093
 1801SOL     OW 9959   7.138   6.072   4.263 -0.3154  0.3608  0.0610
 1801SOL    HW1 9960   7.159   5.993   4.213  2.5400  1.7972 -1.1977
 1801SOL    HW2 9961   7.069   6.115   4.211 -1.4882 -0.9323  0.4641
 1802SOL     OW 9962  11.144   7.945  11.170  0.0267  0.3064 -0.1500
 1802SOL    HW1 9963  11.104   7.981  11.091 -1.1478 -0.5517  0.0155
 1802SOL    HW2 9964  11.142   8.017  11.234  1.2742  1.1002 -0.9683
 1803SOL     OW 9965  10.609   6.095   0.860  0.0596  0.7246 -0.2494
 1803SOL    HW1 9966  10.610   6.075   0.767 -1.3561 -0.2644 -0.0884
 1803SOL    HW2 9967  10.660   6.024   0.900  0.0970  0.7727 -0.2111
 1804SOL     OW 9968   1.479  10.960   6.277  0.0899  0.2054 -0.3442
 1804SOL    HW1 9969   1.547  10.894   6.289 -0.2146  0.1737  1.5083
 1804SOL    HW2 9970   1.401  10.910   6.252  0.2779  0.0649 -0.6667
 1805SOL     OW 9971  11.616   1.713   1.625 -0.0733  0.1257  0.1179
 1805SOL    HW1 9972  11.676   1.680   1.692  1.2496  1.1486 -0.5348
 1805SOL    HW2 9973  11.586   1.797   1.660  0.0854  0.3389 -0.2572
 1806SOL     OW 9974   7.359   0.152   5.782 -0.6810  0.1354  0.1230
 1806SOL    HW1 9975   7.394   0.123   5.866 -2.2804 -0.2593  0.6857
 1806SOL    HW2 9976   7.351   0.072   5.730 -0.2360  0.2984 -0.2004
 1807SOL     OW 9977   3.348   2.522  10.427 -0.0298 -0.2161 -0.2318
 1807SOL    HW1 9978   3.339   2.586  10.357  0.5145  0.2284  0.0944
 1807SOL    HW2 9979   3.325   2.569  10.507  0.5153 -0.3836  0.0300
 1808SOL     OW 9980   5.341   7.780   8.198  0.5116 -0.2212 -0.2911
 1808SOL    HW1 9981   5.398   7.711   8.233  0.2880 -0.3177 -0.1173
 1808SOL    HW2 9982   5.308   7.743   8.116 -1.0245 -1.0590  0.6681
 1809SOL     OW 9983   9.798   2.307   2.628 -0.4156 -0.6008  0.1008
 1809SOL    HW1 9984   9.875   2.345   2.669  0.0247 -1.5510  0.1949
 1809SOL    HW2 9985   9.734   2.378   2.625  0.8873  0.5789 -1.1492
 1810SOL     OW 9986   2.392   7.543   7.263  0.1526  0.2378 -0.1135
 1810SOL    HW1 9987   2.411   7.612   7.326 -1.3078  0.6832 -0.1107
 1810SOL    HW2 9988   2.358   7.471   7.316  2.1354 -0.7316 -0.0585
 1811SOL     OW 9989   7.021   5.783   6.971 -0.0982 -0.0229  0.1183
 1811SOL    HW1 9990   6.979   5.697   6.978  0.4960 -0.4999 -1.7472
 1811SOL    HW2 9991   6.957   5.838   6.928  0.9204 -0.6417 -2.3472
 1812SOL     OW 9992   6.248   2.589   3.472 -0.6018  0.1206  0.3511
 1812SOL    HW1 9993   6.212   2.644   3.403  0.1144  1.4638  1.0048
 1812SOL    HW2 9994   6.231   2.637   3.553 -0.2562 -0.7869  0.9887
 1813SOL     OW 9995   9.070  10.934   5.750  0.2814  0.3093 -0.3492
 1813SOL    HW1 9996   9.139  10.934   5.817 -0.6438  1.4054  0.6400
 1813SOL    HW2 9997   9.006  10.997   5.782 -1.3316 -0.8964 -1.1135
 1814SOL     OW 9998   1.891   0.822   7.456 -0.1419  0.7544  0.1944
 1814SOL    HW1 9999   1.866   0.731   7.471  1.1112  0.6546  1.9237
 1814SOL    HW210000   1.832   0.852   7.386 -0.7286 -1.2936 -0.2473
 1815SOL     OW10001   1.093   0.709   9.505  0.8087 -0.3827 -0.5492
 1815SOL    HW110002   1.086   0.796   9.544  1.1474 -1.5481  2.3798
 1815SOL    HW210003   1.161   0.719   9.438  0.7093  1.6323 -0.4253
 1816SOL     OW10004   2.076  11.516   8.237  0.2212 -0.5091  0.2666
 1816SOL    HW110005   2.152  11.554   8.195 -0.9873 -0.7070 -2.2573
 1816SOL    HW210006   2.001  11.553   8.190 -1.2635 -0.6512  2.3631
 1817SOL     OW10007   0.898   9.556   1.305  0.1452  0.2526  0.7460
 1817SOL    HW110008   0.984   9.514   1.311  0.6117  0.6237 -1.8897
 1817SOL    HW210009   0.835   9.488   1.327  1.0191 -0.9363 -0.3033
 1818SOL     OW10010   9.169   7.846   2.220 -0.1103 -0.9088 -0.0728
 1818SOL    HW110011   9.096   7.845   2.282 -1.3926 -0.0271 -1.4881
 1818SOL    HW210012   9.188   7.939   2.207  0.7609 -1.1109 -0.2973
 1819SOL     OW10013   3.670   6.109   5.436  0.1203 -0.0854 -0.4055
 1819SOL    HW110014   3.697   6.199   5.418 -2.0359  0.6819 -0.0348
 1819SOL    HW210015   3.685   6.098   5.530 -0.1687  0.0672 -0.3441
 1820SOL     OW10016   0.309   3.216  10.558 -0.0049 -0.0220 -0.4078
 1820SOL    HW110017   0.390   3.172  10.530 -0.3096 -0.5926 -0.3953
 1820SOL    HW210018   0.280   3.265  10.480  0.9372  1.0852 -0.0968
 1821SOL     OW10019   3.394   8.185   3.327  0.0081  0.1862  0.3334
 1821SOL    HW110020   3.343   8.251   3.372 -2.2076 -0.3380 -1.2214
 1821SOL    HW210021   3.332   8.142   3.268  2.0985 -0.9890 -1.1904
 1822SOL     OW10022   4.123  10.561   6.908  0.1724  0.0269  0.1092
 1822SOL    HW110023   4.127  10.477   6.862  0.5185 -0.8859  1.7338
 1822SOL    HW210024   4.207  10.603   6.890  1.5330 -1.6059  2.1445
 1823SOL     OW10025   4.013   7.195   8.940 -0.3126  0.2199  0.2722
 1823SOL    HW110026   3.959   7.189   8.861 -0.5304  0.1359  0.4279
 1823SOL    HW210027   3.974   7.131   9.000  0.7680 -0.8241 -0.0982
 1824SOL     OW10028   1.914  11.377  11.261  0.3892  0.7174  0.8520
 1824SOL    HW110029   1.863  11.387  11.181 -0.1943 -0.5385  1.0327
 1824SOL    HW210030   1.954  11.462  11.275  0.4078  0.9972 -0.7085
 1825SOL     OW10031   2.441   5.430   9.763  0.3987 -0.2422  0.2027
 1825SOL    HW110032   2.429   5.421   9.858 -1.3398 -2.0125 -0.1427
 1825SOL    HW210033   2.452   5.341   9.731  1.1158  0.3394 -1.2747
 1826SOL     OW10034  11.797   5.424   9.434 -0.1066 -0.1921  0.1365
 1826SOL    HW110035  11.712   5.390   9.459 -0.4799 -0.1060 -0.9867
 1826SOL    HW210036  11.850   5.346   9.418 -0.2623 -0.2445 -0.1248
 1827SOL     OW10037   6.524   4.160   5.959 -0.5617 -0.1251  0.0461
 1827SOL    HW110038   6.449   4.219   5.953 -0.7026 -0.3265 -0.1969
 1827SOL    HW210039   6.490   4.075   5.931 -0.8269 -0.7498  2.1037
 1828SOL     OW10040   6.529   0.062  12.018  0.1086 -0.0385 -0.8796
 1828SOL    HW110041   6.610   0.080  11.969  1.5927  0.0421  1.4277
 1828SOL    HW210042   6.525   0.132  12.084 -0.5434 -1.3660  0.5602
 1829SOL     OW10043   6.100   9.495   7.197  0.1644 -0.3515 -0.4742
 1829SOL    HW110044   6.107   9.399   7.198  1.8693 -0.2731  0.2891
 1829SOL    HW210045   6.167   9.523   7.135  1.1439  0.3641  0.8346
 1830SOL     OW10046  10.253   2.298   5.302  0.1160  0.0222  0.7002
 1830SOL    HW110047  10.317   2.245   5.350  0.7982  0.0447 -0.1458
 1830SOL    HW210048  10.198   2.234   5.257  1.0864  0.0028 -0.5079
 1831SOL     OW10049   2.959   4.562   6.745  0.1937 -0.2581 -0.3425
 1831SOL    HW110050   2.926   4.612   6.820  1.3983  0.0243  0.0197
 1831SOL    HW210051   3.030   4.615   6.710 -0.3206 -0.4045 -1.6869
 1832SOL     OW10052   2.535   1.544   2.625  0.4942 -0.6088  0.0618
 1832SOL    HW110053   2.458   1.569   2.574  0.2369  0.6454  1.0127
 1832SOL    HW210054   2.581   1.480   2.570 -0.3330 -0.1138 -1.2480
 1833SOL     OW10055   4.990   7.264   8.840  0.0207 -0.0374  0.1204
 1833SOL    HW110056   4.938   7.185   8.856 -0.2554  0.2149  0.4994
 1833SOL    HW210057   5.081   7.234   8.844 -0.0716 -0.2641  0.6769
 1834SOL     OW10058   8.484   5.657   5.238 -0.1336 -0.1381 -0.1835
 1834SOL    HW110059   8.508   5.733   5.185  2.2746 -0.8547 -0.2173
 1834SOL    HW210060   8.539   5.586   5.206  1.5679 -0.5990  3.3050
 1835SOL     OW10061   6.424  10.195   0.208  0.1008 -0.4111  0.6476
 1835SOL    HW110062   6.515  10.167   0.220  0.7516  1.6756  1.0443
 1835SOL    HW210063   6.373  10.135   0.262  1.5973  0.2005  2.9058
 1836SOL     OW10064   2.586   4.316  11.422  0.5281  0.0199  0.2697
 1836SOL    HW110065   2.608   4.228  11.392 -0.8606 -0.3148  0.1838
 1836SOL    HW210066   2.502   4.336  11.380 -1.1320 -0.1633  3.2242
 1837SOL     OW10067   0.927  10.916   6.677  0.6727 -0.1654  0.3618
 1837SOL    HW110068   1.006  10.902   6.623  0.1469 -0.5406 -0.3310
 1837SOL    HW210069   0.901  10.828   6.703  0.2216 -0.0788  0.2031
 1838SOL     OW10070  10.662   4.553   6.412  0.4518 -0.3625  0.3655
 1838SOL    HW110071  10.568   4.534   6.417  0.3362 -0.1362 -0.8261
 1838SOL    HW210072  10.685   4.582   6.501 -0.7327  0.1652  0.5164
 1839SOL     OW10073   6.165   3.356   7.249 -0.3734 -0.1506  0.1106
 1839SOL    HW110074   6.238   3.379   7.193 -0.7749 -0.5797 -0.6141
 1839SOL    HW210075   6.107   3.432   7.246 -0.4200 -0.1945 -0.1023
 1840SOL     OW10076  10.018   5.704   6.757 -0.0463 -0.4328 -0.0566
 1840SOL    HW110077  10.041   5.751   6.837 -0.8238  0.5763 -0.4199
 1840SOL    HW210078   9.924   5.718   6.746  0.5486  2.4863 -3.0418
 1841SOL     OW10079   9.825   8.276   3.803  0.6867  0.5983 -0.1722
 1841SOL    HW110080   9.792   8.213   3.739 -0.1147  1.0271 -0.1922
 1841SOL    HW210081   9.876   8.339   3.751 -0.8188  1.5439 -0.5717
 1842SOL     OW10082   0.847   8.413   7.260 -0.3601  0.6437 -0.0103
 1842SOL    HW110083   0.932   8.435   7.299  0.5016  1.1381 -2.0455
 1842SOL    HW210084   0.850   8.318   7.247 -0.4773  0.5400  0.7012
 1843SOL     OW10085   6.784   9.068   3.359  0.2808  0.1499  0.1846
 1843SOL    HW110086   6.855   9.069   3.294  1.0324 -0.7467  0.9593
 1843SOL    HW210087   6.709   9.104   3.312  0.7706 -0.5755 -1.2405
 1844SOL     OW10088   4.182   7.932   7.329  0.0497  0.5929  0.2390
 1844SOL    HW110089   4.119   7.971   7.268 -1.6900 -0.2532  1.4263
 1844SOL    HW210090   4.174   7.984   7.409 -0.2728 -0.4648  0.9116
 1845SOL     OW10091   9.711   0.543   7.070  0.4773  0.3872  0.0524
 1845SOL    HW110092   9.632   0.488   7.068  0.9086 -0.2316 -1.4270
 1845SOL    HW210093   9.760   0.518   6.992  0.8726  2.6365 -0.5022
 1846SOL     OW10094  11.094  11.193   2.547 -0.0772  0.4274  0.2228
 1846SOL    HW110095  11.135  11.144   2.618 -1.5446 -2.8761 -0.9775
 1846SOL    HW210096  11.166  11.218   2.489  0.8458  0.7193  1.4637
 1847SOL     OW10097   6.712  10.001   0.825 -0.3214 -0.4301  0.2348
 1847SOL    HW110098   6.749  10.027   0.910  0.0770 -0.5471  0.1031
 1847SOL    HW210099   6.698   9.907   0.833  1.7138 -0.8576 -0.5270
 1848SOL     OW10100   4.084   8.203   0.626 -0.1167 -0.2760  0.0435
 1848SOL    HW110101   4.054   8.131   0.571 -0.1740  0.0401 -0.3406
 1848SOL    HW210102   4.131   8.261   0.567 -2.4661  1.4474 -0.2536
 1849SOL     OW10103   9.778   2.551   6.054  0.0148 -0.2272 -0.4604
 1849SOL    HW110104   9.824   2.489   5.997  2.1750  1.9866 -1.2963
 1849SOL    HW210105   9.818   2.636   6.035 -3.5498  1.7145 -0.1979
 1850SOL     OW10106   0.204   8.771   3.586  0.2854 -0.2948 -0.1595
 1850SOL    HW110107   0.269   8.721   3.635 -0.4874 -1.8807 -0.6738
 1850SOL    HW210108   0.241   8.777   3.497  1.0130  1.3116  0.2121
 1851SOL     OW10109  10.985   6.928   9.097  0.3958  0.3481 -0.6423
 1851SOL    HW110110  11.038   6.961   9.025  1.1179 -0.0122 -0.2903
 1851SOL    HW210111  11.005   6.835   9.101 -0.9140  0.0326 -1.0330
 1852SOL     OW10112   5.811   5.411   3.274  0.0012  0.7026 -0.2583
 1852SOL    HW110113   5.877   5.469   3.235  1.5427 -1.9908 -1.9303
 1852SOL    HW210114   5.851   5.383   3.356  0.7673 -0.5344 -1.0321
 1853SOL     OW10115   4.485  11.924   8.508 -0.0239  0.2157  0.6631
 1853SOL    HW110116   4.528  11.846   8.473 -1.5745 -1.0987  1.5465
 1853SOL    HW210117   4.554  11.990   8.512  1.4700 -1.2617  0.3960
 1854SOL     OW10118   8.828   5.042   6.532 -0.1172 -0.3082  0.4057
 1854SOL    HW110119   8.785   5.117   6.491 -0.6323 -0.2378  1.0723
 1854SOL    HW210120   8.911   5.034   6.484  0.5643  1.5034  1.2007
 1855SOL     OW10121   5.138   0.454   0.207 -0.8942  0.0563  0.1901
 1855SOL    HW110122   5.210   0.516   0.198 -0.4078 -0.4040  0.8294
 1855SOL    HW210123   5.122   0.422   0.118 -0.2469  0.0873  0.0608
 1856SOL     OW10124   8.467  10.428   7.975  0.2376 -0.1858 -0.2748
 1856SOL    HW110125   8.459  10.518   8.009 -1.7625 -0.9835  1.5632
 1856SOL    HW210126   8.412  10.427   7.897  1.0769  0.4291 -0.8903
 1857SOL     OW10127   7.970   9.890   6.824 -0.0750  0.5229  0.2916
 1857SOL    HW110128   7.911   9.821   6.853  0.5159  0.7469  2.1592
 1857SOL    HW210129   8.031   9.847   6.765  1.3500 -1.0376  2.7253
 1858SOL     OW10130   5.921   0.694   4.834  0.1062 -0.3480  0.2784
 1858SOL    HW110131   5.851   0.648   4.880  1.2971 -3.2537 -0.5862
 1858SOL    HW210132   6.000   0.678   4.886  0.3473  2.3957  0.9396
 1859SOL     OW10133   3.824   6.347   9.268  0.1533  0.2174 -0.4325
 1859SOL    HW110134   3.750   6.352   9.208 -1.4724 -0.8608  1.3630
 1859SOL    HW210135   3.881   6.281   9.230 -0.6398 -0.1679 -0.9824
 1860SOL     OW10136   4.415  11.721  11.463 -0.1809  0.8218 -0.5231
 1860SOL    HW110137   4.487  11.674  11.503 -0.7509  0.0326 -0.4063
 1860SOL    HW210138   4.432  11.813  11.483 -0.0435  0.5135  0.8583
 1861SOL     OW10139  10.415   6.532   8.721  0.6839 -0.0867  0.4163
 1861SOL    HW110140  10.379   6.619   8.736  0.7284 -0.2957  1.8649
 1861SOL    HW210141  10.345   6.472   8.747  0.0979 -0.5434 -1.9403
 1862SOL     OW10142  10.519   3.527   3.888  0.2943  0.9257  0.1613
 1862SOL    HW110143  10.590   3.589   3.908  0.1340  0.6399  1.6867
 1862SOL    HW210144  10.536   3.453   3.945 -0.8314  0.5395 -0.0008
 1863SOL     OW10145   9.611   3.170   2.765  0.2893  0.6421 -0.0037
 1863SOL    HW110146   9.586   3.128   2.847  2.1542  2.1642  1.4420
 1863SOL    HW210147   9.541   3.233   2.748 -1.0093 -0.9044 -0.5980
 1864SOL     OW10148   4.001   9.654  11.317  0.0139  0.1766 -0.2988
 1864SOL    HW110149   4.034   9.569  11.287  1.7581 -0.0132  1.8575
 1864SOL    HW210150   3.981   9.640  11.410 -3.9387  1.0054 -0.8400
 1865SOL     OW10151   2.279   3.374  11.134 -0.2599 -0.1226 -0.0347
 1865SOL    HW110152   2.266   3.415  11.219 -0.3469  0.0969 -0.1542
 1865SOL    HW210153   2.241   3.435  11.071  0.9389  0.3288 -0.3523
 1866SOL     OW10154  10.249   9.217   0.533  0.0785 -0.0537  0.4679
 1866SOL    HW110155  10.174   9.268   0.503  0.1396  1.2036  2.3280
 1866SOL    HW210156  10.235   9.130   0.495 -1.9563  0.3404  0.1907
 1867SOL     OW10157  10.295   0.857   9.247 -0.1017 -0.3516  0.7883
 1867SOL    HW110158  10.353   0.920   9.291  1.1284 -0.8763 -0.0272
 1867SOL    HW210159  10.215   0.857   9.299  0.5839  0.5004  1.8728
 1868SOL     OW10160   9.893  10.586   5.767 -0.0836  0.0180  0.0648
 1868SOL    HW110161   9.945  10.539   5.702  2.3070  0.2974  1.6374
 1868SOL    HW210162   9.877  10.671   5.726  0.5229 -0.1536 -0.5656
 1869SOL     OW10163   2.997   2.293   1.852 -0.0883  0.3064  0.1644
 1869SOL    HW110164   2.992   2.343   1.771  1.2199  1.0118  0.4811
 1869SOL    HW210165   2.979   2.357   1.921  0.0210 -0.0161  0.4989
 1870SOL     OW10166   1.108   3.230   3.218 -0.5284  0.0621  0.4308
 1870SOL    HW110167   1.054   3.279   3.280 -1.8055 -0.3079 -0.3608
 1870SOL    HW210168   1.136   3.295   3.154 -0.9508  0.0588  0.2377
 1871SOL     OW10169  11.408   9.899   0.760  0.7035  0.0973  0.4760
 1871SOL    HW110170  11.491   9.852   0.753  0.7299  0.1724  0.2799
 1871SOL    HW210171  11.368   9.866   0.840  0.4973 -0.6194  0.0909
 1872SOL     OW10172   4.648   5.941   5.653  0.7101 -0.1239  0.5120
 1872SOL    HW110173   4.641   6.019   5.597 -1.1727 -0.7321 -0.1806
 1872SOL    HW210174   4.661   5.869   5.592  2.2520 -0.4075  1.1427
 1873SOL     OW10175   3.851   6.544   5.566  0.5177 -0.5157 -0.4555
 1873SOL    HW110176   3.867   6.622   5.619  0.6763 -2.0646  1.9695
 1873SOL    HW210177   3.756   6.534   5.566  0.4847 -0.2021 -0.9539
 1874SOL     OW10178   6.580   0.903  11.277 -0.4065  0.1300 -0.0172
 1874SOL    HW110179   6.649   0.955  11.237 -1.0850  0.5477 -0.6810
 1874SOL    HW210180   6.545   0.958  11.347 -1.1660  0.6257 -0.7596
 1875SOL     OW10181   8.257   9.627   7.580 -0.0698 -0.1966  0.1084
 1875SOL    HW110182   8.216   9.709   7.606 -2.7284 -0.9637 -1.3558
 1875SOL    HW210183   8.284   9.641   7.489  0.0893 -0.7065  0.0740
 1876SOL     OW10184   6.130  11.349   7.769 -0.0972 -0.0793 -0.6994
 1876SOL    HW110185   6.105  11.257   7.777  0.3700 -0.2341 -0.9984
 1876SOL    HW210186   6.061  11.388   7.716 -1.5377  0.2649  1.2902
 1877SOL     OW10187   3.056   1.314   9.824 -0.2415 -0.8380  0.5913
 1877SOL    HW110188   3.069   1.337   9.732 -1.0242  0.3615  0.7632
 1877SOL    HW210189   3.140   1.335   9.866 -0.4509  0.2698  0.4624
 1878SOL     OW10190  11.906   0.205   5.151 -0.4619  0.2225 -0.0136
 1878SOL    HW110191  11.908   0.213   5.055 -1.5283 -1.4682 -0.2182
 1878SOL    HW210192  11.981   0.148   5.171 -0.3208  0.4648  0.1546
 1879SOL     OW10193   1.461  11.914   2.295 -0.3144 -0.8869  0.0825
 1879SOL    HW110194   1.480  11.957   2.211 -1.4555  1.6959  1.0149
 1879SOL    HW210195   1.536  11.858   2.311  0.1304 -1.1447 -2.4366
 1880SOL     OW10196   0.193   1.879  10.971 -0.0331 -0.3867 -0.0418
 1880SOL    HW110197   0.275   1.891  11.017  0.4525 -0.3831 -0.8933
 1880SOL    HW210198   0.155   1.800  11.009 -1.2863  1.3807  2.7152
 1881SOL     OW10199   1.920   0.098   7.780  0.6469 -0.0091  0.0397
 1881SOL    HW110200   1.944   0.029   7.718  0.6842  0.7291 -0.7843
 1881SOL    HW210201   1.942   0.061   7.865  0.9794 -0.8894 -0.4061
 1882SOL     OW10202   0.415   1.830   8.501 -0.6766  0.3072 -0.4464
 1882SOL    HW110203   0.392   1.868   8.586 -0.0677 -0.6543  0.1647
 1882SOL    HW210204   0.474   1.758   8.522  0.4604  0.8083 -1.7682
 1883SOL     OW10205  11.198   6.338  10.624  0.0884 -0.8585 -0.5281
 1883SOL    HW110206  11.112   6.318  10.660  0.4065 -2.4767 -0.5937
 1883SOL    HW210207  11.193   6.311  10.532  0.2893  0.2163 -0.8691
 1884SOL     OW10208   4.794   1.851   8.806  0.2594  0.4267 -0.1077
 1884SOL    HW110209   4.848   1.773   8.817  0.1505  0.1156 -1.5336
 1884SOL    HW210210   4.811   1.904   8.884  0.6184 -0.8475  0.7066
 1885SOL     OW10211   1.526  10.240   2.794  0.2690 -0.6369  0.0285
 1885SOL    HW110212   1.481  10.157   2.811 -1.8141  0.2899 -0.6377
 1885SOL    HW210213   1.544  10.239   2.700 -0.1681 -0.1350 -0.0600
 1886SOL     OW10214   6.216   6.355   6.620  0.1109  0.4626  0.2397
 1886SOL    HW110215   6.287   6.315   6.670 -0.1694 -1.4860 -0.8115
 1886SOL    HW210216   6.149   6.375   6.685  0.2141 -0.9509  0.8137
 1887SOL     OW10217   9.717   3.346   1.579  0.1023  0.0093  0.0776
 1887SOL    HW110218   9.701   3.379   1.491 -1.2346 -0.4474  0.1309
 1887SOL    HW210219   9.738   3.425   1.630  0.5453  0.3161 -0.5602
 1888SOL     OW10220   3.173   2.053   6.873  0.3866 -0.0884  0.4196
 1888SOL    HW110221   3.220   1.989   6.926 -1.5186 -3.0306 -1.1684
 1888SOL    HW210222   3.189   2.026   6.783 -1.1905  1.1919 -0.2893
 1889SOL     OW10223   9.814   2.501  10.196 -0.1053  0.1643  0.6755
 1889SOL    HW110224   9.796   2.563  10.126  0.2476 -0.6879 -0.2023
 1889SOL    HW210225   9.731   2.493  10.243 -0.4160  0.5679  0.2046
 1890SOL     OW10226   0.120   8.325  11.671 -0.3371 -0.0742 -0.1015
 1890SOL    HW110227   0.082   8.251  11.623 -0.0043 -0.1945 -0.1815
 1890SOL    HW210228   0.051   8.392  11.670 -0.7766 -0.5168  0.2929
 1891SOL     OW10229  10.610  11.093   8.188 -0.1631 -0.3099  0.3805
 1891SOL    HW110230  10.583  11.176   8.228  1.0817 -0.4879  1.6880
 1891SOL    HW210231  10.699  11.079   8.220  0.0768 -1.5859 -0.7550
 1892SOL     OW10232   0.586   4.535   4.452 -0.6253  0.0074  0.1527
 1892SOL    HW110233   0.671   4.579   4.450 -1.5602  2.0310  1.4900
 1892SOL    HW210234   0.601   4.452   4.408  1.6709  0.9401 -0.9979
 1893SOL     OW10235   9.033  11.855   8.572 -0.6318 -0.3163 -0.2017
 1893SOL    HW110236   9.063  11.831   8.659  0.2853  1.1177 -0.0899
 1893SOL    HW210237   9.054  11.949   8.564 -1.5497 -0.1976 -1.6026
 1894SOL     OW10238  10.930   0.012   0.025  1.1592  0.0904  0.3699
 1894SOL    HW110239  10.882  -0.041  -0.039  0.3495 -0.5763  1.5062
 1894SOL    HW210240  10.994  -0.049   0.064  1.4425  0.4144  0.4192
 1895SOL     OW10241   3.322   8.853   1.140 -0.2443 -0.0839 -0.5511
 1895SOL    HW110242   3.268   8.826   1.214 -0.6256 -0.0429 -0.8142
 1895SOL    HW210243   3.410   8.861   1.177 -0.7272  1.6597  0.3135
 1896SOL     OW10244  11.819   6.472   2.520 -0.1846 -0.2286  0.0915
 1896SOL    HW110245  11.893   6.414   2.498 -0.2616 -0.1367 -0.4347
 1896SOL    HW210246  11.743   6.431   2.478 -0.7123 -1.0736  1.7890
 1897SOL     OW10247   1.950   3.265   4.445 -0.3410  0.2584 -0.3578
 1897SOL    HW110248   2.001   3.339   4.413 -0.6336  0.3751 -0.5706
 1897SOL    HW210249   1.866   3.304   4.472  0.8340  0.6317  3.2477
 1898SOL     OW10250   0.431   2.487   6.426 -0.0553  0.0709 -0.1721
 1898SOL    HW110251   0.371   2.559   6.405  0.6168  0.7981  0.3430
 1898SOL    HW210252   0.374   2.411   6.436 -1.0287  0.9541  1.3652
 1899SOL     OW10253   8.442  10.391  11.779 -0.4575  0.0979  0.2031
 1899SOL    HW110254   8.522  10.375  11.729  0.0863  1.6020  0.5250
 1899SOL    HW210255   8.392  10.452  11.724 -1.4222 -0.8707 -0.0170
 1900SOL     OW10256   4.743   2.324   9.072 -0.3695  0.1643  0.3651
 1900SOL    HW110257   4.720   2.238   9.038  2.6588 -0.1748 -1.1013
 1900SOL    HW210258   4.742   2.314   9.167  2.1891 -2.2437  0.2471
 1901SOL     OW10259   3.766   7.869   3.226  0.1278  0.0640 -0.1287
 1901SOL    HW110260   3.735   7.879   3.136  0.7958  0.8727 -0.2861
 1901SOL    HW210261   3.688   7.843   3.275 -0.6553  1.3080 -0.6425
 1902SOL     OW10262  11.058   1.983   3.166  0.0831  0.1238 -0.4304
 1902SOL    HW110263  11.118   1.939   3.106 -1.5941 -0.7620 -1.5179
 1902SOL    HW210264  11.047   2.071   3.129  1.8971  0.8808  0.6679
 1903SOL     OW10265   3.317   6.910   6.099  0.1025  0.0379  0.3663
 1903SOL    HW110266   3.334   6.857   6.021 -1.4555 -0.5926  0.4220
 1903SOL    HW210267   3.264   6.854   6.155 -0.0739  1.0302  1.2257
 1904SOL     OW10268   1.378  10.024   2.804  0.4089 -0.0361 -0.1549
 1904SOL    HW110269   1.360   9.934   2.830 -2.2919  0.5736  0.4189
 1904SOL    HW210270   1.293  10.060   2.780  1.6354  1.9107 -1.9824
 1905SOL     OW10271  10.461  10.176   2.095 -0.0453 -0.0458  0.1100
 1905SOL    HW110272  10.389  10.149   2.153 -0.7472  0.9822 -0.2422
 1905SOL    HW210273  10.523  10.220   2.152 -1.1472  1.7402  0.0012
 1906SOL     OW10274   7.574   3.649   8.326 -0.3477  0.2447 -0.0559
 1906SOL    HW110275   7.530   3.692   8.253  1.3278  0.1042 -1.2163
 1906SOL    HW210276   7.567   3.555   8.307  0.7289  0.2311 -0.4611
 1907SOL     OW10277   3.081   6.611   5.972 -0.0067  0.1888 -0.2505
 1907SOL    HW110278   3.167   6.584   5.940  0.3194  0.0622  0.6977
 1907SOL    HW210279   3.100   6.666   6.049 -0.7732  0.0349  0.0565
 1908SOL     OW10280   2.192   4.120   4.360 -0.4113 -0.5226 -0.2832
 1908SOL    HW110281   2.114   4.175   4.356 -0.5507 -0.6237  0.7293
 1908SOL    HW210282   2.160   4.031   4.343 -0.8461 -0.8288  1.9015
 1909SOL     OW10283   8.928   5.199  11.021 -0.1732  0.2479  0.3311
 1909SOL    HW110284   9.018   5.171  11.006 -0.3691  0.1083 -0.6400
 1909SOL    HW210285   8.906   5.165  11.108  0.6799  0.2216  0.5398
 1910SOL     OW10286   5.196   8.508   1.125 -0.1139  0.1150  0.2085
 1910SOL    HW110287   5.241   8.520   1.041  1.6289  2.7109  1.4006
 1910SOL    HW210288   5.112   8.552   1.113 -1.6549 -2.9040 -1.3202
 1911SOL     OW10289   9.058   5.387   9.043  0.3102  0.2603 -0.4200
 1911SOL    HW110290   9.008   5.358   8.967 -1.8672 -0.7261  1.2710
 1911SOL    HW210291   9.131   5.326   9.048  0.4548  0.3084 -1.6716
 1912SOL     OW10292   5.202   3.096   8.981  0.7143 -0.1767  0.2237
 1912SOL    HW110293   5.127   3.051   8.941  0.4584 -1.6612  2.1969
 1912SOL    HW210294   5.273   3.083   8.918 -0.5691  1.1621 -1.6409
 1913SOL     OW10295   1.553   5.303   6.735  0.4098 -0.0392 -0.2931
 1913SOL    HW110296   1.516   5.352   6.661 -1.8329 -0.0015  0.7934
 1913SOL    HW210297   1.505   5.221   6.737  1.0564 -0.4118  0.6103
 1914SOL     OW10298   9.529   7.619   1.080  0.4329  0.3704  0.0616
 1914SOL    HW110299   9.614   7.625   1.124  1.5918  1.5311 -2.1379
 1914SOL    HW210300   9.546   7.561   1.005 -0.3210  1.6501 -1.1455
 1915SOL     OW10301   8.611   3.625   7.811 -0.1685 -0.4726  0.2459
 1915SOL    HW110302   8.593   3.689   7.879  0.5685 -0.5481  0.5187
 1915SOL    HW210303   8.651   3.551   7.856  1.1977 -0.1469 -0.3614
 1916SOL     OW10304   9.444   8.515   7.648  0.2869 -0.3196  0.1207
 1916SOL    HW110305   9.519   8.535   7.592  0.3606 -0.2998  0.2269
 1916SOL    HW210306   9.376   8.577   7.621  0.4974  0.0430  0.4152
 1917SOL     OW10307   1.504   1.268  11.361 -0.4900 -0.1824  0.0308
 1917SOL    HW110308   1.448   1.262  11.439 -0.2030 -0.4160  0.2204
 1917SOL    HW210309   1.446   1.242  11.289 -0.1511 -2.2675  0.4484
 1918SOL     OW10310   5.876   6.551   2.793 -0.2921 -0.4398  0.2715
 1918SOL    HW110311   5.965   6.578   2.812  0.4247 -2.2120 -0.3629
 1918SOL    HW210312   5.837   6.626   2.748  1.3362 -0.1274 -0.7016
 1919SOL     OW10313   8.444   3.086   3.958  0.1919  0.2391 -0.2558
 1919SOL    HW110314   8.462   3.039   4.039 -0.9535  0.0706 -0.0739
 1919SOL    HW210315   8.433   3.017   3.892 -1.5073  0.2094  0.0148
 1920SOL     OW10316   6.285   2.626   8.098  0.1107 -0.4716  0.2345
 1920SOL    HW110317   6.242   2.633   8.013  2.0977 -0.1999 -0.8295
 1920SOL    HW210318   6.315   2.535   8.102 -1.1212 -0.8518  1.2686
 1921SOL     OW10319   0.538   1.336   2.439  0.1446  0.0954 -0.3733
 1921SOL    HW110320   0.534   1.252   2.486 -1.1539  0.2100 -0.2358
 1921SOL    HW210321   0.631   1.357   2.436  0.4940 -1.3336 -0.3826
 1922SOL     OW10322   3.097   6.949   5.704  0.3115  0.0513  0.0039
 1922SOL    HW110323   3.141   7.030   5.731  0.6833 -0.4156  0.8317
 1922SOL    HW210324   3.168   6.893   5.673  0.4480 -0.9576  1.9623
 1923SOL     OW10325   5.644   3.123   9.933 -0.5758 -0.5333 -0.6151
 1923SOL    HW110326   5.641   3.141   9.839 -1.3721  0.4019 -0.4278
 1923SOL    HW210327   5.701   3.047   9.941  0.0441 -0.2213 -1.7943
 1924SOL     OW10328   7.787   1.097   4.166  0.0114  0.2331  0.3777
 1924SOL    HW110329   7.865   1.134   4.125  0.9171 -1.0044  0.9067
 1924SOL    HW210330   7.811   1.007   4.187 -2.0475 -0.6491 -0.7300
 1925SOL     OW10331   5.248  10.821   1.989 -0.3681 -0.1799 -0.2096
 1925SOL    HW110332   5.335  10.850   2.018  0.0396 -1.4892 -0.0252
 1925SOL    HW210333   5.214  10.894   1.938  1.0823  0.1668 -0.7460
 1926SOL     OW10334   1.228   6.891   9.384 -0.2272 -0.2759  0.4684
 1926SOL    HW110335   1.251   6.983   9.399 -0.2875 -0.1685 -0.0753
 1926SOL    HW210336   1.229   6.881   9.288 -1.4047 -0.5376  0.4738
 1927SOL     OW10337   3.485  10.857   6.248 -0.0803  0.3003 -0.0987
 1927SOL    HW110338   3.485  10.767   6.280  1.5500 -0.2704 -1.5890
 1927SOL    HW210339   3.392  10.880   6.242 -0.5140 -1.1264  0.6506
 1928SOL     OW10340   0.124   2.643  10.986  0.4346 -0.1165  0.1956
 1928SOL    HW110341   0.199   2.695  10.958  1.3393 -1.1892  0.5751
 1928SOL    HW210342   0.148   2.612  11.073 -0.8384  0.2653  0.6985
 1929SOL     OW10343   8.160   8.324  10.061 -0.1849  0.4475 -0.3275
 1929SOL    HW110344   8.220   8.387  10.100 -0.6020  0.7024 -0.0848
 1929SOL    HW210345   8.122   8.372   9.987 -0.2954  0.3845 -0.3108
 1930SOL     OW10346   1.663   8.147   2.812 -0.2492  0.2254  0.0942
 1930SOL    HW110347   1.655   8.213   2.744  1.2463 -1.1831 -1.5512
 1930SOL    HW210348   1.637   8.065   2.769 -0.7657 -0.4812  1.6815
 1931SOL     OW10349   0.750   9.686   9.994  0.5836  0.0018  0.2260
 1931SOL    HW110350   0.808   9.756   9.963 -2.9703  2.4982 -1.4335
 1931SOL    HW210351   0.726   9.713  10.082  0.9963 -0.4072  0.4683
 1932SOL     OW10352   2.510   1.897   9.699  0.0462 -0.1616 -0.6761
 1932SOL    HW110353   2.557   1.888   9.782 -0.0448  5.0115  0.2964
 1932SOL    HW210354   2.573   1.869   9.632  2.2562  0.7245  0.9233
 1933SOL     OW10355   3.038  12.120  10.641 -0.2861 -0.0318  0.2181
 1933SOL    HW110356   2.974  12.092  10.575  0.2880 -0.9763  0.0496
 1933SOL    HW210357   3.042  12.047  10.702  0.4100  0.1457  0.3891
 1934SOL     OW10358   9.464   3.079   5.161  0.3777  0.0521  0.2455
 1934SOL    HW110359   9.504   3.012   5.215 -0.8244 -0.5739  0.3929
 1934SOL    HW210360   9.410   3.031   5.098 -0.8512  0.8697  0.6344
 1935SOL     OW10361   1.132  10.662   0.482  0.2763  0.0769  0.3534
 1935SOL    HW110362   1.224  10.684   0.471  0.1540 -0.5546 -2.6716
 1935SOL    HW210363   1.133  10.587   0.543  1.8549 -0.4568 -0.2760
 1936SOL     OW10364   6.025   4.676  11.167 -0.4051 -0.0613 -0.2659
 1936SOL    HW110365   5.959   4.607  11.165 -0.5450 -0.0162  1.4426
 1936SOL    HW210366   5.981   4.753  11.132 -1.2172 -0.0764  0.6903
 1937SOL     OW10367   1.315   8.320   2.010  0.3462  0.3466  0.0958
 1937SOL    HW110368   1.371   8.278   1.945  0.5962  0.5135  0.2028
 1937SOL    HW210369   1.230   8.330   1.966 -1.0236 -3.8893  1.3262
 1938SOL     OW10370  11.509   1.954   1.365  0.5658 -0.0752 -0.1523
 1938SOL    HW110371  11.504   1.957   1.461  1.5968 -0.6177 -0.0696
 1938SOL    HW210372  11.446   2.020   1.336  0.0701 -0.0624  0.8904
 1939SOL     OW10373   4.722  10.066   5.289  0.4393  0.0836  0.2962
 1939SOL    HW110374   4.795  10.121   5.260  1.0714 -0.2956  1.1416
 1939SOL    HW210375   4.698  10.016   5.211  2.4831 -1.3302  0.4673
 1940SOL     OW10376   4.661   2.200   9.700 -0.2680 -0.2381  0.4284
 1940SOL    HW110377   4.576   2.240   9.679 -0.7092 -0.3174  1.9150
 1940SOL    HW210378   4.724   2.272   9.691 -0.7112  0.1938  0.7202
 1941SOL     OW10379   1.146   8.514  10.025  0.1074 -0.1661  0.2029
 1941SOL    HW110380   1.216   8.554   9.972  1.6118 -2.3762  0.3716
 1941SOL    HW210381   1.076   8.497   9.963  1.4261 -1.7429 -0.9514
 1942SOL     OW10382  11.454   3.234   1.486  0.5890  0.1366  0.4248
 1942SOL    HW110383  11.473   3.187   1.404  0.8733  0.8595  0.0644
 1942SOL    HW210384  11.483   3.175   1.555 -1.6883 -1.4547  0.1317
 1943SOL     OW10385   3.208   4.287   7.497  0.2421 -0.5327 -0.0916
 1943SOL    HW110386   3.288   4.244   7.467 -0.6338 -1.6173 -0.9966
 1943SOL    HW210387   3.227   4.316   7.586  1.5874 -0.8858 -0.2477
 1944SOL     OW10388   1.557   3.466   2.230  0.1688 -0.3146  0.2987
 1944SOL    HW110389   1.648   3.438   2.233 -0.0276 -1.1355 -0.9992
 1944SOL    HW210390   1.561   3.562   2.235  1.1203 -0.3346 -0.0136
 1945SOL     OW10391   7.647   1.033   2.251 -0.5252  0.3291  0.4147
 1945SOL    HW110392   7.671   1.026   2.344  0.1760 -0.5836  0.1813
 1945SOL    HW210393   7.568   0.979   2.243  0.3665 -1.0031  0.1784
 1946SOL     OW10394   1.336   2.203  12.092 -0.1581  0.1237  0.1359
 1946SOL    HW110395   1.343   2.129  12.152 -1.6999  0.9208  1.3908
 1946SOL    HW210396   1.307   2.275  12.147 -0.3873  1.2310 -1.3704
 1947SOL     OW10397   7.477   3.551   0.180 -0.2721 -0.2005 -0.5434
 1947SOL    HW110398   7.460   3.497   0.257  1.7206 -1.2295 -0.7700
 1947SOL    HW210399   7.390   3.578   0.151 -1.0671  1.0388  2.5741
 1948SOL     OW10400   5.749   2.917   7.362 -0.6465 -0.1519 -0.5648
 1948SOL    HW110401   5.818   2.979   7.386  0.0308 -0.3017 -2.0212
 1948SOL    HW210402   5.717   2.883   7.446  1.4764 -0.5525  0.1415
 1949SOL     OW10403   9.042  10.553  11.041 -0.1373 -0.0820 -0.4575
 1949SOL    HW110404   9.067  10.570  10.950  2.2888 -1.5603 -0.1796
 1949SOL    HW210405   9.125  10.531  11.085 -1.1621  0.9360  2.2257
 1950SOL     OW10406   7.146   6.361   4.646 -1.3774  0.1265 -0.8906
 1950SOL    HW110407   7.098   6.281   4.623 -2.0631  0.3370 -0.2563
 1950SOL    HW210408   7.085   6.432   4.625 -0.1706  0.6066 -2.9856
 1951SOL     OW10409   7.842   7.644   3.827  0.2164  0.3158 -0.3793
 1951SOL    HW110410   7.829   7.554   3.798 -1.3026  0.3773  0.0141
 1951SOL    HW210411   7.834   7.640   3.923  2.1912  0.5763 -0.1545
 1952SOL     OW10412  11.589   1.459   8.025  0.2733 -0.0770 -0.0292
 1952SOL    HW110413  11.615   1.467   7.933 -0.0668 -2.2853 -0.3661
 1952SOL    HW210414  11.495   1.477   8.025  0.6539  2.1981  0.2971
 1953SOL     OW10415   1.990  11.071   4.086 -0.5825 -0.1340 -0.2375
 1953SOL    HW110416   1.932  11.050   4.160 -0.3583  0.4981  0.1312
 1953SOL    HW210417   2.067  11.016   4.099 -0.4108  0.2001  0.1785
 1954SOL     OW10418   7.914   8.119   6.028 -0.2285 -0.2458 -0.2808
 1954SOL    HW110419   7.936   8.167   6.108  1.7068  1.5174 -1.7461
 1954SOL    HW210420   7.819   8.122   6.023 -0.4164 -0.5256  1.9707
 1955SOL     OW10421   6.899   4.981   8.992 -0.0913 -0.1419 -0.1576
 1955SOL    HW110422   6.861   5.044   8.931  0.5086  0.7264  0.3455
 1955SOL    HW210423   6.903   5.027   9.076 -2.0389 -1.7257  0.8885
 1956SOL     OW10424   3.170   4.096   3.807  0.1757  0.4318  0.2182
 1956SOL    HW110425   3.115   4.023   3.780  0.7773 -0.3646  1.0783
 1956SOL    HW210426   3.109   4.160   3.844 -0.4576  0.8030 -1.3907
 1957SOL     OW10427  11.488   3.561   9.632  0.2428 -0.4223  0.4836
 1957SOL    HW110428  11.402   3.602   9.625  0.9745  1.1873  0.4506
 1957SOL    HW210429  11.472   3.480   9.680 -1.3781 -0.4749 -0.0791
 1958SOL     OW10430   6.460  11.010   4.042 -0.1262  0.0260  0.3086
 1958SOL    HW110431   6.433  10.948   3.974 -0.5283 -0.3528  0.8078
 1958SOL    HW210432   6.415  11.091   4.019 -0.0196 -0.0127 -0.0491
 1959SOL     OW10433   1.324   1.153   5.630 -0.0912 -0.3571  0.0139
 1959SOL    HW110434   1.412   1.152   5.665 -0.8266 -1.5953  1.9641
 1959SOL    HW210435   1.312   1.243   5.597  1.7819 -0.1180 -0.1145
 1960SOL     OW10436   1.293  11.433   5.674  0.2652  0.0386  0.7751
 1960SOL    HW110437   1.272  11.354   5.724 -0.8052 -0.5503 -0.5594
 1960SOL    HW210438   1.226  11.496   5.700  1.5983  0.8459  2.4668
 1961SOL     OW10439  10.898   8.046  10.587 -0.0603  0.2609  0.1845
 1961SOL    HW110440  10.971   7.984  10.588  0.8503  1.3065  0.6853
 1961SOL    HW210441  10.913   8.100  10.510 -1.7685 -1.1279 -1.2256
 1962SOL     OW10442  11.068  10.885  11.420  0.2542  0.9436 -0.3455
 1962SOL    HW110443  11.003  10.951  11.394  0.7448  1.5152 -0.1493
 1962SOL    HW210444  11.152  10.931  11.415  0.5299  0.5754  0.5988
 1963SOL     OW10445  11.873   2.250   5.605 -0.9194 -0.6358  0.1650
 1963SOL    HW110446  11.892   2.341   5.582 -0.7564 -1.2259 -2.2933
 1963SOL    HW210447  11.938   2.199   5.556 -1.0659 -2.1072  1.4264
 1964SOL     OW10448   9.714   1.243  11.530  0.4935  0.7538 -0.3033
 1964SOL    HW110449   9.749   1.329  11.552  1.9106  0.2642 -0.5322
 1964SOL    HW210450   9.620   1.258  11.518  0.6613  2.1986 -0.0490
 1965SOL     OW10451   2.820   4.392   8.020  0.3673  0.3262  0.1016
 1965SOL    HW110452   2.839   4.328   8.089 -0.4485  1.0600  1.0341
 1965SOL    HW210453   2.868   4.471   8.047  1.6852  0.0272 -1.2409
 1966SOL     OW10454  12.011   8.626  10.732 -0.3680  0.0632 -0.2002
 1966SOL    HW110455  11.985   8.673  10.811 -2.6020  0.7980 -1.2928
 1966SOL    HW210456  12.100   8.657  10.714 -1.5972  3.7576 -0.6870
 1967SOL     OW10457   8.967   9.675   2.582 -0.5158  0.1155  0.3473
 1967SOL    HW110458   8.941   9.604   2.523  0.0817  0.0027  0.2145
 1967SOL    HW210459   8.995   9.745   2.523  0.0710  0.0052  0.4984
 1968SOL     OW10460   3.707   0.731   0.093  0.0141 -0.4370 -0.0944
 1968SOL    HW110461   3.620   0.740   0.053  0.2695 -0.9272 -0.7769
 1968SOL    HW210462   3.763   0.791   0.044 -0.2748  1.2141  1.4719
 1969SOL     OW10463   1.655   6.606   9.436  0.1725 -0.3800 -0.0600
 1969SOL    HW110464   1.740   6.648   9.420  0.0961 -0.1193  0.2118
 1969SOL    HW210465   1.664   6.566   9.522 -0.0061 -0.2861  0.0017
 1970SOL     OW10466  11.854   0.626   3.442 -0.3289  0.7384  0.4952
 1970SOL    HW110467  11.946   0.644   3.461  0.3756 -1.1136 -0.8673
 1970SOL    HW210468  11.832   0.690   3.373  0.1436  0.7442  0.3440
 1971SOL     OW10469   6.938   1.746   0.401  0.0731  0.1858 -0.0206
 1971SOL    HW110470   6.986   1.810   0.454 -1.5689  0.9417  0.6292
 1971SOL    HW210471   6.866   1.796   0.363  1.2419 -0.2944 -3.1532
 1972SOL     OW10472  12.096   8.953   5.197  0.3185 -0.8413 -0.0910
 1972SOL    HW110473  12.105   9.008   5.274 -2.3638 -1.2107  0.6042
 1972SOL    HW210474  12.186   8.933   5.170  1.3316 -0.0120  2.4021
 1973SOL     OW10475  11.544   4.681  10.155  0.1323  0.2757 -0.4320
 1973SOL    HW110476  11.491   4.604  10.133  0.0961  0.2198 -0.1549
 1973SOL    HW210477  11.487   4.733  10.211  1.3114 -1.1282  2.2233
 1974SOL     OW10478   1.470  10.893   1.711 -0.0582  1.0943 -0.2779
 1974SOL    HW110479   1.450  10.812   1.664  2.0252  0.3477 -0.0005
 1974SOL    HW210480   1.499  10.953   1.643 -1.4079  1.5758 -0.4578
 1975SOL     OW10481   8.507  10.283   0.661  0.0311  0.0462 -0.2027
 1975SOL    HW110482   8.549  10.265   0.577  0.8029 -0.4321  0.2766
 1975SOL    HW210483   8.579  10.305   0.720 -0.6109  1.7004  0.0202
 1976SOL     OW10484   2.582   0.094   3.971 -0.1453  0.8019  0.5751
 1976SOL    HW110485   2.592   0.147   4.050  0.5147  1.1652  0.2551
 1976SOL    HW210486   2.635   0.139   3.905 -1.9169  1.3797 -0.5132
 1977SOL     OW10487   8.464   0.043   8.247  0.5241  0.4677 -0.2307
 1977SOL    HW110488   8.483   0.027   8.155  1.8415  1.4907 -0.1573
 1977SOL    HW210489   8.368   0.044   8.252  0.4268 -0.7271 -1.3645
 1978SOL     OW10490   5.192   8.722  11.694 -0.1106  0.2269  0.3378
 1978SOL    HW110491   5.102   8.694  11.708 -0.9169  1.6834 -1.4377
 1978SOL    HW210492   5.212   8.778  11.769  0.1423 -1.8034  1.8588
 1979SOL     OW10493   5.295   4.138   3.224  0.1663 -0.2161 -0.6059
 1979SOL    HW110494   5.230   4.203   3.196  0.0867  0.5986  1.3191
 1979SOL    HW210495   5.379   4.180   3.208  0.1105  0.7535  1.3247
 1980SOL     OW10496  11.900   8.810   7.720 -0.4100 -0.3418 -0.3204
 1980SOL    HW110497  11.884   8.765   7.637 -0.3505  0.7689 -0.9579
 1980SOL    HW210498  11.859   8.754   7.786 -1.6469 -0.5737 -1.2500
 1981SOL     OW10499   2.742  10.340   3.496  0.3114 -0.1818 -0.0551
 1981SOL    HW110500   2.719  10.252   3.464  0.7932 -0.3126 -0.0426
 1981SOL    HW210501   2.709  10.343   3.585  1.9420 -1.0301  0.6121
 1982SOL     OW10502   4.139   1.194  11.627  0.3304  0.2799  0.1036
 1982SOL    HW110503   4.180   1.205  11.713  0.6840 -1.4880  0.1931
 1982SOL    HW210504   4.107   1.104  11.626 -0.3167  0.4847 -1.3614
 1983SOL     OW10505   2.320  11.593   1.361  0.4684  0.2630 -0.2831
 1983SOL    HW110506   2.305  11.502   1.387  0.4063  0.8704  2.0405
 1983SOL    HW210507   2.281  11.644   1.431 -0.4853  2.1459 -2.0908
 1984SOL     OW10508  11.140   7.840   5.957  0.4342 -0.0604  0.4049
 1984SOL    HW110509  11.197   7.837   6.034 -0.6475 -1.5372  1.1903
 1984SOL    HW210510  11.181   7.781   5.894  0.8100  0.4248  0.1795
 1985SOL     OW10511   7.749   7.542   4.333 -0.3263 -0.1067 -0.5957
 1985SOL    HW110512   7.767   7.450   4.355 -2.0501 -0.7655 -1.7631
 1985SOL    HW210513   7.817   7.591   4.379  0.6096 -1.9586  0.0953
 1986SOL     OW10514   6.480   0.709  11.026  0.1140  1.0023 -0.3404
 1986SOL    HW110515   6.544   0.662  11.080 -1.4542 -0.7660  0.0923
 1986SOL    HW210516   6.523   0.791  11.003  2.9013 -0.5020 -0.8857
 1987SOL     OW10517   2.610   9.440  10.200 -0.1222  0.3988 -0.9199
 1987SOL    HW110518   2.671   9.512  10.215 -1.7565  1.5479  0.6597
 1987SOL    HW210519   2.662   9.361  10.214  1.5531  1.2469 -2.0331
 1988SOL     OW10520   7.971   6.011  11.301 -0.5792  0.3829  0.1858
 1988SOL    HW110521   8.052   5.971  11.268 -0.9921  0.1460 -0.5581
 1988SOL    HW210522   7.945   5.956  11.374 -0.6731 -0.2079 -0.2870
 1989SOL     OW10523   7.889   6.467  11.274  0.5926 -0.4322  0.1268
 1989SOL    HW110524   7.852   6.380  11.291  0.2743  0.0746  2.4863
 1989SOL    HW210525   7.821   6.514  11.226  0.3140 -1.1404 -0.1769
 1990SOL     OW10526   2.461   5.316   4.560  0.4482  0.5215  0.3171
 1990SOL    HW110527   2.474   5.288   4.469  1.1583  0.9028  0.2951
 1990SOL    HW210528   2.544   5.296   4.603  0.7805  2.0823  0.4296
 1991SOL     OW10529   6.407   5.559   1.082  0.0542  0.6040  0.4061
 1991SOL    HW110530   6.375   5.635   1.130 -0.0170  0.6060  0.3547
 1991SOL    HW210531   6.454   5.507   1.148 -0.2620  0.4779  0.5315
 1992SOL     OW10532  11.833   8.426   5.263 -0.3079 -0.7358  0.1008
 1992SOL    HW110533  11.741   8.450   5.270  0.0381  0.5815  0.3268
 1992SOL    HW210534  11.858   8.452   5.174 -0.2778 -1.5928 -0.1546
 1993SOL     OW10535   5.053  11.059   9.951  0.8464 -0.2412 -0.2261
 1993SOL    HW110536   4.961  11.065   9.924  0.7148  1.4969  0.5080
 1993SOL    HW210537   5.070  10.965   9.956 -1.3347 -0.6462  1.0597
 1994SOL     OW10538  11.075   5.318   5.142  0.0928  0.0635  0.0045
 1994SOL    HW110539  11.056   5.307   5.048  0.0937  1.7268 -0.2161
 1994SOL    HW210540  10.992   5.346   5.180  0.4868  1.0143  0.1915
 1995SOL     OW10541  12.087   6.373   2.097  0.0423  0.5455 -0.1177
 1995SOL    HW110542  12.061   6.281   2.096  1.6818  0.0459 -0.1925
 1995SOL    HW210543  12.056   6.406   2.181 -2.2368  0.4833 -0.8616
 1996SOL     OW10544   1.287   9.151   4.355  0.2225 -0.1718 -0.3951
 1996SOL    HW110545   1.320   9.236   4.326 -2.2528  1.1021  0.2175
 1996SOL    HW210546   1.365   9.097   4.364  1.6568  1.0553 -3.7715
 1997SOL     OW10547   8.798   9.003  11.445 -0.2842  0.0926 -0.2202
 1997SOL    HW110548   8.824   9.038  11.360 -0.5612 -1.4502 -0.9723
 1997SOL    HW210549   8.703   8.993  11.439 -0.3223  0.1057  0.3276
 1998SOL     OW10550   6.206  11.376   9.354  0.1967 -0.8488  0.4593
 1998SOL    HW110551   6.260  11.444   9.314 -1.0848 -0.3883 -0.5132
 1998SOL    HW210552   6.156  11.338   9.282 -1.4054 -0.6965  1.4488
 1999SOL     OW10553   4.526   7.101  10.527  0.3554  0.6517  0.3688
 1999SOL    HW110554   4.588   7.156  10.479 -1.4073  0.2321 -2.6113
 1999SOL    HW210555   4.444   7.151  10.526 -0.1095 -0.0261  1.7621
 2000SOL     OW10556  10.289   2.970   1.259  0.1292  0.0014 -0.2692
 2000SOL    HW110557  10.380   2.997   1.271  0.2409 -0.1971 -0.6675
 2000SOL    HW210558  10.294   2.875   1.243  0.0688  0.3621 -2.7282
 2001SOL     OW10559   5.045  11.700   6.749  0.3587  0.2812 -0.1804
 2001SOL    HW110560   4.998  11.766   6.799 -1.2106 -0.9481  0.0603
 2001SOL    HW210561   5.090  11.646   6.814 -2.3423 -1.8215  0.1251
 2002SOL     OW10562   2.993   4.428   9.872 -0.4955 -0.0604 -1.0481
 2002SOL    HW110563   3.021   4.431   9.964 -0.1092  0.2523 -1.1721
 2002SOL    HW210564   3.075   4.423   9.822 -0.7122 -0.3866 -1.3684
 2003SOL     OW10565   9.023   6.563   7.454  0.0443 -0.5052 -0.1062
 2003SOL    HW110566   9.034   6.543   7.361 -0.6075 -0.3249 -0.2317
 2003SOL    HW210567   9.064   6.490   7.500  1.0200 -0.2318 -0.5265
 2004SOL     OW10568  10.392  10.857   8.478  0.0833 -0.7273 -0.3179
 2004SOL    HW110569  10.383  10.785   8.540  0.5928 -1.2426 -0.8243
 2004SOL    HW210570  10.472  10.836   8.429  0.7199  0.6241  0.0933
 2005SOL     OW10571  10.082   6.750   0.255 -0.1150 -0.3072 -0.1894
 2005SOL    HW110572  10.026   6.795   0.317  0.1686  0.4163 -0.4519
 2005SOL    HW210573  10.030   6.675   0.226 -0.9289  0.3182 -0.3839
 2006SOL     OW10574   6.583   4.336   4.983 -0.6527 -0.1294 -0.0985
 2006SOL    HW110575   6.593   4.423   4.945  1.3416  0.5072  1.7133
 2006SOL    HW210576   6.550   4.352   5.071  0.6624 -1.1233  0.5978
 2007SOL     OW10577   7.278   7.295   8.148  0.5894 -0.1246  0.3361
 2007SOL    HW110578   7.265   7.292   8.053  0.2981 -0.4452  0.3840
 2007SOL    HW210579   7.355   7.351   8.160 -0.2917  1.2227 -0.0026
 2008SOL     OW10580  11.322   5.680   0.407 -0.1917  0.1024  0.0099
 2008SOL    HW110581  11.360   5.597   0.378 -3.8647 -1.5855 -0.5406
 2008SOL    HW210582  11.318   5.734   0.328 -0.7327 -0.4682 -0.3573
 2009SOL     OW10583   7.945   4.315   6.388  0.0107  0.0443 -0.0155
 2009SOL    HW110584   8.034   4.295   6.417 -0.1945 -0.0399  0.5753
 2009SOL    HW210585   7.956   4.352   6.300  0.5719 -0.5597 -0.2037
 2010SOL     OW10586   6.273   2.973   1.780 -0.1142 -0.2002 -0.1765
 2010SOL    HW110587   6.342   2.906   1.783  0.8923  0.6148 -2.7247
 2010SOL    HW210588   6.320   3.055   1.768 -1.4886  0.4184 -1.5946
 2011SOL     OW10589   4.605   1.516   4.696  0.0374 -0.7149  0.4413
 2011SOL    HW110590   4.645   1.602   4.711  1.1777 -1.3833  1.3843
 2011SOL    HW210591   4.595   1.511   4.601  1.7104 -0.2731  0.2017
 2012SOL     OW10592  11.551  10.169   9.637 -0.2542  0.1738 -0.4372
 2012SOL    HW110593  11.575  10.138   9.550  1.2729  2.6527 -0.9971
 2012SOL    HW210594  11.465  10.211   9.625 -0.4521 -0.2633 -0.5465
 2013SOL     OW10595  10.535  10.001   8.884 -0.4707 -0.8761  0.4630
 2013SOL    HW110596  10.485   9.924   8.857 -2.3544  0.0693  1.0242
 2013SOL    HW210597  10.571  10.036   8.802 -0.1187 -1.9930  0.1325
 2014SOL     OW10598   8.181   7.586   1.368 -0.0595 -0.6662  0.0956
 2014SOL    HW110599   8.086   7.577   1.363 -0.0351 -0.3813 -2.0897
 2014SOL    HW210600   8.214   7.519   1.308  1.0684 -0.1691  0.1311
 2015SOL     OW10601   3.644   6.208   9.102 -0.1449 -0.1039  0.2373
 2015SOL    HW110602   3.706   6.159   9.047  0.1315 -0.8399  1.1859
 2015SOL    HW210603   3.574   6.145   9.120 -0.4598  0.2796  0.3643
 2016SOL     OW10604   6.461   3.803   8.397 -0.0784  0.1239 -0.2172
 2016SOL    HW110605   6.440   3.790   8.305 -3.7860  1.7058  0.1794
 2016SOL    HW210606   6.442   3.896   8.413 -0.0494 -0.2075  2.2267
 2017SOL     OW10607   0.670   5.815  10.995  0.0979 -0.2262 -0.2311
 2017SOL    HW110608   0.619   5.799  10.915 -0.2121  0.5621 -0.1982
 2017SOL    HW210609   0.666   5.732  11.043  1.3781 -1.1473 -1.6267
 2018SOL     OW10610   4.530   5.216   7.464 -0.0662  0.3189 -0.4236
 2018SOL    HW110611   4.496   5.239   7.378 -0.6228  0.6493 -0.1185
 2018SOL    HW210612   4.607   5.271   7.476 -0.9309  1.4760 -0.0286
 2019SOL     OW10613   7.184   2.242  10.157 -0.0966  0.7010  0.4257
 2019SOL    HW110614   7.137   2.217  10.077  1.4758 -0.1878 -0.2448
 2019SOL    HW210615   7.181   2.338  10.156  0.5405  0.7415 -1.1248
 2020SOL     OW10616   8.960  10.690   9.160  0.3271 -0.4665  0.0672
 2020SOL    HW110617   8.992  10.777   9.181  0.9340 -0.7666  0.4060
 2020SOL    HW210618   9.036  10.643   9.126  0.8596 -1.8465  2.8234
 2021SOL     OW10619   8.011  11.301   5.381 -0.3064 -0.0619 -0.2655
 2021SOL    HW110620   7.934  11.250   5.357  0.1431 -1.9832  2.0395
 2021SOL    HW210621   8.018  11.367   5.312 -3.2139 -0.6434 -1.2704
 2022SOL     OW10622   2.177  11.771  11.459  0.2324 -0.0951 -0.1297
 2022SOL    HW110623   2.250  11.717  11.428 -0.2800 -0.8318 -0.0621
 2022SOL    HW210624   2.219  11.837  11.515  0.7671 -1.0956  0.7051
 2023SOL     OW10625   7.890   7.655   9.892 -0.0156  0.0262 -0.0473
 2023SOL    HW110626   7.929   7.570   9.873 -0.3674 -0.4065  1.0365
 2023SOL    HW210627   7.912   7.671   9.984 -2.8404 -0.5624  0.8527
 2024SOL     OW10628   0.995   0.202   4.981  0.5521  0.4036 -0.1289
 2024SOL    HW110629   1.013   0.251   5.061 -0.6122  2.1238 -0.8573
 2024SOL    HW210630   0.937   0.131   5.008  0.4957  0.7249  0.6114
 2025SOL     OW10631   4.102   2.889   9.629 -0.2960 -0.8691  0.3176
 2025SOL    HW110632   4.179   2.864   9.680 -0.3827 -1.2947  0.2435
 2025SOL    HW210633   4.078   2.810   9.581 -0.7025 -0.7043  0.2426
 2026SOL     OW10634   5.377   3.262   7.459  0.3223  0.1916  0.4838
 2026SOL    HW110635   5.347   3.308   7.537 -0.8369 -0.0814  0.2158
 2026SOL    HW210636   5.440   3.197   7.491  1.5773  1.5727  0.9218
 2027SOL     OW10637   0.900   9.966   4.240 -0.2416  0.0682 -0.3879
 2027SOL    HW110638   0.849   9.899   4.286  1.9974 -0.4984  1.4588
 2027SOL    HW210639   0.983   9.922   4.219  0.1019  1.3860 -1.9363
 2028SOL     OW10640   7.877   7.829  10.819 -0.1221 -0.3495 -0.3462
 2028SOL    HW110641   7.818   7.859  10.749 -2.5709 -2.0725  0.8218
 2028SOL    HW210642   7.848   7.878  10.896 -1.4505 -2.5630  0.6667
 2029SOL     OW10643   7.415  10.872   3.127 -0.1739 -0.4332 -0.0871
 2029SOL    HW110644   7.452  10.959   3.109 -1.8906  0.9941  2.6091
 2029SOL    HW210645   7.482  10.829   3.180  0.1122 -0.1790 -0.2383
 2030SOL     OW10646   6.143   6.291   4.665  0.0585 -0.4058 -0.0378
 2030SOL    HW110647   6.206   6.227   4.697  0.4495  0.5552  1.1645
 2030SOL    HW210648   6.079   6.300   4.736  0.1233  0.6675 -0.0908
 2031SOL     OW10649   2.327   6.510   2.737 -0.0833  0.2839  0.1756
 2031SOL    HW110650   2.380   6.534   2.813  0.1516 -0.1571  0.1559
 2031SOL    HW210651   2.357   6.422   2.714 -0.3892  0.2807 -0.2207
 2032SOL     OW10652   3.863  10.325  11.698 -0.2720  0.4825  0.1001
 2032SOL    HW110653   3.901  10.393  11.754 -0.0367 -0.7753  1.5058
 2032SOL    HW210654   3.777  10.359  11.674 -0.9304  0.4995  2.3308
 2033SOL     OW10655   5.137  11.442  10.939  0.1413 -0.3507  0.1682
 2033SOL    HW110656   5.159  11.376  10.873  0.1687 -0.7935  0.6169
 2033SOL    HW210657   5.042  11.455  10.930  0.4630  1.3570 -1.5777
 2034SOL     OW10658   8.642   9.905   7.626 -0.2913 -0.1526  0.0910
 2034SOL    HW110659   8.731   9.880   7.649  0.2438  1.3442 -0.1998
 2034SOL    HW210660   8.625   9.860   7.543  0.1730 -0.4972  0.1820
 2035SOL     OW10661   5.607  10.700   0.105  0.2003  0.1211  0.2319
 2035SOL    HW110662   5.581  10.692   0.014  0.0147  0.9271  0.2089
 2035SOL    HW210663   5.703  10.706   0.102  0.3913 -2.0101  0.2607
 2036SOL     OW10664  10.550   0.722   8.003 -0.6630 -0.2127 -0.3460
 2036SOL    HW110665  10.636   0.746   7.968 -0.3175 -0.2275  0.4700
 2036SOL    HW210666  10.541   0.629   7.983 -1.0880  0.0932 -1.6430
 2037SOL     OW10667  11.214   2.983   7.136  0.0634  0.1784  0.4886
 2037SOL    HW110668  11.306   3.007   7.149  0.4218  0.3968 -1.9773
 2037SOL    HW210669  11.171   3.011   7.217  2.1571  0.0067  1.7379
 2038SOL     OW10670   1.872   4.369   1.757  0.6863  0.8420  0.4614
 2038SOL    HW110671   1.938   4.416   1.806  2.2627 -0.1479 -0.5960
 2038SOL    HW210672   1.858   4.288   1.806 -0.3811  1.4020  1.1134
 2039SOL     OW10673   3.648   5.098   3.577 -0.1284  0.3341  0.1292
 2039SOL    HW110674   3.687   5.012   3.593 -1.0076 -0.2581 -0.7516
 2039SOL    HW210675   3.590   5.084   3.502 -1.4830  1.3266  0.9472
 2040SOL     OW10676   3.473   2.347   2.309  0.4268  0.4210 -0.1208
 2040SOL    HW110677   3.533   2.273   2.298  0.8054  0.5635  0.8452
 2040SOL    HW210678   3.391   2.307   2.339  0.4012  0.3252 -0.3207
 2041SOL     OW10679   7.513   6.628   8.852 -0.0791  0.2722  0.2473
 2041SOL    HW110680   7.474   6.586   8.776  2.7555 -2.2278 -0.0137
 2041SOL    HW210681   7.472   6.585   8.927 -0.5962  0.4576  0.0733
 2042SOL     OW10682   9.842   7.486  10.898 -0.0231  0.0153  0.0694
 2042SOL    HW110683   9.779   7.476  10.969  0.2039  1.5216  0.5167
 2042SOL    HW210684   9.852   7.398  10.862 -1.4211 -0.4664  0.8000
 2043SOL     OW10685   9.964  11.449   8.755 -0.5202  0.1644  0.7595
 2043SOL    HW110686   9.910  11.424   8.830 -1.1076  0.1775  0.3545
 2043SOL    HW210687   9.914  11.418   8.679  0.4490 -0.5691  0.4033
 2044SOL     OW10688   6.905   6.679   1.572 -0.3524  0.1827 -0.0296
 2044SOL    HW110689   6.816   6.664   1.539 -0.3145 -0.9588  0.3344
 2044SOL    HW210690   6.894   6.744   1.642 -1.0015 -0.3689  0.4041
 2045SOL     OW10691   1.068   3.917   4.999  0.5362  0.0752  0.4105
 2045SOL    HW110692   1.144   3.894   4.946  1.4222  2.8664  0.2956
 2045SOL    HW210693   0.993   3.892   4.946  1.4071  0.5823 -1.1023
 2046SOL     OW10694   6.582   4.682   1.323  0.1729 -0.0024 -0.0791
 2046SOL    HW110695   6.547   4.665   1.410  1.2497  2.2844  0.8969
 2046SOL    HW210696   6.514   4.735   1.281  0.1819 -0.0706 -0.1793
 2047SOL     OW10697   0.595   3.480   2.094 -0.0427 -0.2135  0.3328
 2047SOL    HW110698   0.632   3.547   2.037  0.0940 -0.3653  0.2417
 2047SOL    HW210699   0.631   3.500   2.180  0.2629 -0.3654  0.2431
 2048SOL     OW10700   8.272   4.345   2.646  0.2109  0.0088 -0.0480
 2048SOL    HW110701   8.331   4.270   2.632 -1.9560 -2.0756  1.3483
 2048SOL    HW210702   8.223   4.352   2.564 -2.3614 -2.8127  1.0927
 2049SOL     OW10703   7.822   2.301  11.609 -0.0798 -0.3279 -0.0007
 2049SOL    HW110704   7.856   2.271  11.693 -0.7416  0.5728  0.5989
 2049SOL    HW210705   7.727   2.294  11.617 -0.1318 -1.3466 -1.1082
 2050SOL     OW10706  10.726   0.644   2.748  0.5210 -0.0951 -0.5751
 2050SOL    HW110707  10.697   0.650   2.839 -0.6382  1.1022 -0.9820
 2050SOL    HW210708  10.819   0.663   2.750  0.0667  2.4698  0.1429
 2051SOL     OW10709   6.476   4.461   0.953  0.5621  0.4277 -0.7238
 2051SOL    HW110710   6.467   4.391   0.888 -0.8779  0.6825 -0.8275
 2051SOL    HW210711   6.406   4.522   0.933  0.6609  0.9794  0.5063
 2052SOL     OW10712  11.883   8.076   2.979  0.0147 -0.1653  0.3945
 2052SOL    HW110713  11.947   8.133   2.936 -1.1897  0.0294 -1.2509
 2052SOL    HW210714  11.881   7.998   2.924 -0.4255 -0.5943  1.0146
 2053SOL     OW10715  10.001  11.040   8.841  0.3569  0.0457 -0.3305
 2053SOL    HW110716   9.921  11.047   8.790  0.2431 -0.8785 -0.2889
 2053SOL    HW210717  10.069  11.019   8.776  0.2091 -1.1482 -0.1269
 2054SOL     OW10718   5.330   8.968   6.105 -0.7510  0.0305 -0.6021
 2054SOL    HW110719   5.323   9.055   6.143 -0.7703 -0.4188  0.4626
 2054SOL    HW210720   5.403   8.974   6.044  0.1788  0.4288  0.5107
 2055SOL     OW10721   6.376   2.457   2.486  0.1672  0.2387 -0.1081
 2055SOL    HW110722   6.401   2.549   2.498  1.5036 -0.1071 -0.0344
 2055SOL    HW210723   6.386   2.442   2.392 -1.8055  0.6269 -0.4099
 2056SOL     OW10724  12.076  11.229   5.054  0.2535 -0.2028  1.2403
 2056SOL    HW110725  12.109  11.261   4.970  0.2090  0.2325  1.3872
 2056SOL    HW210726  12.152  11.234   5.113  0.4628 -1.1371  1.0602
 2057SOL     OW10727   8.735  12.091   6.671  0.4605 -0.0084 -0.2148
 2057SOL    HW110728   8.817  12.129   6.639 -0.5756  1.8849 -0.8130
 2057SOL    HW210729   8.725  12.129   6.759 -0.2128  0.5514 -0.5201
 2058SOL     OW10730  10.746   0.247   9.839  0.1015  0.2636 -0.3293
 2058SOL    HW110731  10.752   0.330   9.886 -0.4108 -0.1077  0.4241
 2058SOL    HW210732  10.672   0.258   9.779 -0.4856  0.0978  0.3408
 2059SOL     OW10733   7.677   7.400   2.105 -0.3824  0.3227 -0.0824
 2059SOL    HW110734   7.586   7.429   2.101 -1.1062 -1.7412  0.1738
 2059SOL    HW210735   7.715   7.429   2.022 -1.1907  1.4212 -0.0959
 2060SOL     OW10736  10.406   7.080   4.470 -0.2174  0.1803 -0.2511
 2060SOL    HW110737  10.365   7.116   4.392  2.0690  0.3615 -1.4534
 2060SOL    HW210738  10.487   7.131   4.481 -0.6705  0.4758  2.5247
 2061SOL     OW10739   4.728   9.579   3.167  0.1682 -0.5002  0.6498
 2061SOL    HW110740   4.652   9.527   3.193 -1.9012  1.9572 -0.1263
 2061SOL    HW210741   4.801   9.541   3.217 -1.2173 -3.8069  0.4165
 2062SOL     OW10742  12.082   9.809   8.797 -0.9157  0.1211  0.4326
 2062SOL    HW110743  12.054   9.719   8.808  0.1691 -0.1355  1.2810
 2062SOL    HW210744  12.013   9.862   8.837 -1.3026 -0.3609  0.3962
 2063SOL     OW10745  11.609  10.369  11.808 -0.0004 -0.3308 -0.0267
 2063SOL    HW110746  11.658  10.436  11.760  1.1505 -2.1567 -1.5302
 2063SOL    HW210747  11.518  10.401  11.807  0.4073  0.8991 -1.2246
 2064SOL     OW10748   5.312   8.548   6.830 -0.2171 -0.1782 -0.6668
 2064SOL    HW110749   5.397   8.506   6.821  0.2365  0.7202 -0.7118
 2064SOL    HW210750   5.303   8.565   6.924 -0.4421 -0.4533 -0.6363
 2065SOL     OW10751   0.634  11.786   2.308  0.0260 -0.1420  0.4871
 2065SOL    HW110752   0.626  11.752   2.219  1.7855 -0.0094  0.2389
 2065SOL    HW210753   0.685  11.867   2.298 -1.7817  1.1961  1.3765
 2066SOL     OW10754   7.857   5.859   3.094  0.6325  0.1367  0.0017
 2066SOL    HW110755   7.814   5.861   3.180  0.5027  0.9588 -0.0758
 2066SOL    HW210756   7.880   5.950   3.077  4.3194 -0.4677  0.9906
 2067SOL     OW10757  11.294   5.306   5.288  0.1172 -0.0791 -0.2762
 2067SOL    HW110758  11.297   5.220   5.330  1.1929  0.7265  1.3802
 2067SOL    HW210759  11.204   5.313   5.256 -0.0304 -1.7457 -0.3348
 2068SOL     OW10760   1.196   1.985   6.484 -0.4212 -0.1623 -0.1068
 2068SOL    HW110761   1.157   2.072   6.478  0.8094  0.3616 -0.9083
 2068SOL    HW210762   1.282   2.000   6.523  0.3392 -0.8256 -1.4645
 2069SOL     OW10763  10.327   5.946   4.791 -0.1500  0.1537  0.6673
 2069SOL    HW110764  10.391   5.957   4.862  0.6408 -1.1775  0.2126
 2069SOL    HW210765  10.321   5.851   4.780  1.2131  0.3017 -2.2927
 2070SOL     OW10766   3.215   3.041  11.778  0.0516  0.0720 -0.2627
 2070SOL    HW110767   3.168   2.981  11.719  0.9471  0.1845 -1.1332
 2070SOL    HW210768   3.146   3.083  11.829 -0.5610 -2.4182  1.1156
 2071SOL     OW10769   9.367   5.060   7.596  0.1136  0.3033  0.6298
 2071SOL    HW110770   9.451   5.060   7.643  1.2326 -1.2273 -1.2476
 2071SOL    HW210771   9.348   5.153   7.582  0.7815  0.7221  2.2546
 2072SOL     OW10772   8.905   6.977   2.472  0.0189  0.2553  0.2153
 2072SOL    HW110773   8.950   6.906   2.518  1.3694  0.3356 -0.9021
 2072SOL    HW210774   8.915   7.053   2.529  1.4724  0.3059 -0.0836
 2073SOL     OW10775   1.117   2.709   7.987  0.0700 -0.7180 -0.1816
 2073SOL    HW110776   1.186   2.652   8.022 -1.7674 -2.9426  0.0663
 2073SOL    HW210777   1.100   2.771   8.058  0.9628 -0.9084  0.2192
 2074SOL     OW10778   3.648   2.218   6.542 -0.1770  0.0515 -0.2761
 2074SOL    HW110779   3.599   2.300   6.533 -0.3016  0.1236  0.8984
 2074SOL    HW210780   3.733   2.244   6.577  0.4507 -0.1547 -1.5963
 2075SOL     OW10781  10.240  10.697   5.727  0.2163  0.0376 -0.2384
 2075SOL    HW110782  10.316  10.638   5.732  0.1375 -0.0346  0.1926
 2075SOL    HW210783  10.243  10.746   5.809 -0.9373 -0.8808  0.3758
 2076SOL     OW10784   2.199   9.946   7.099  0.0209  0.5441  0.2245
 2076SOL    HW110785   2.213   9.875   7.037 -3.7487 -0.9076  0.7190
 2076SOL    HW210786   2.150  10.012   7.050  1.7480  1.9569  0.3093
 2077SOL     OW10787  11.456   2.547   6.920 -0.5444  0.3678 -0.5850
 2077SOL    HW110788  11.504   2.470   6.952  1.0204  0.7567 -1.8874
 2077SOL    HW210789  11.390   2.563   6.988  0.8804 -0.4558  1.0992
 2078SOL     OW10790  10.960   7.004  11.845 -0.3245  0.8562 -0.2683
 2078SOL    HW110791  10.943   6.999  11.751 -1.2908  0.0352 -0.0693
 2078SOL    HW210792  10.972   6.913  11.872 -1.5013  0.9530  0.6449
 2079SOL     OW10793   6.848   3.085   5.425  0.6551  0.5251 -0.4251
 2079SOL    HW110794   6.826   3.145   5.354  0.0139  1.1777  0.3040
 2079SOL    HW210795   6.770   3.031   5.435 -0.3822  2.2648  1.5868
 2080SOL     OW10796   7.474   8.236   7.851  0.0176  0.2363 -0.1159
 2080SOL    HW110797   7.492   8.281   7.769  0.5466  0.1784 -0.0380
 2080SOL    HW210798   7.380   8.245   7.864 -0.3589 -1.1820 -1.5790
 2081SOL     OW10799  11.320   2.602   2.651  0.1623  0.0832  0.7250
 2081SOL    HW110800  11.355   2.538   2.713  0.7281 -0.1362  0.1855
 2081SOL    HW210801  11.391   2.665   2.639 -0.1113  0.3824  0.6431
 2082SOL     OW10802   6.998   8.572   9.671 -0.4305  0.3619 -0.3870
 2082SOL    HW110803   6.932   8.617   9.724 -0.6495  2.1327 -2.0469
 2082SOL    HW210804   7.081   8.590   9.715 -0.8099 -0.0258  0.5097
 2083SOL     OW10805   3.860  10.326   9.533 -0.2777  0.5810 -0.0285
 2083SOL    HW110806   3.770  10.353   9.551 -0.8008 -0.9016 -0.2744
 2083SOL    HW210807   3.898  10.309   9.619 -1.0827 -1.3062 -0.0054
 2084SOL     OW10808   0.986  10.514   5.691  0.7931 -0.5165 -0.5326
 2084SOL    HW110809   1.043  10.464   5.632 -1.0671 -3.2916 -0.2111
 2084SOL    HW210810   0.900  10.474   5.679 -0.8889  2.7045 -0.1551
 2085SOL     OW10811   2.214   0.835   7.547 -0.2775 -0.5237  0.4859
 2085SOL    HW110812   2.269   0.862   7.473  0.0489  1.3046  1.3224
 2085SOL    HW210813   2.125   0.832   7.511 -0.0105 -0.5518 -0.1873
 2086SOL     OW10814   8.204  11.674   7.823  0.1440  0.1005  0.1709
 2086SOL    HW110815   8.187  11.767   7.809  0.9034 -0.0855 -2.5714
 2086SOL    HW210816   8.299  11.668   7.829  0.0575 -0.4353  1.4167
 2087SOL     OW10817   1.703   2.566   0.533 -0.6316 -0.3360  0.4339
 2087SOL    HW110818   1.649   2.488   0.538 -1.3117  0.0933 -0.1041
 2087SOL    HW210819   1.704   2.589   0.440  0.3351 -0.2359  0.4526
 2088SOL     OW10820   4.225  10.485   1.275  0.6010  0.3935  0.1810
 2088SOL    HW110821   4.235  10.534   1.193  0.8708 -0.0273 -0.0404
 2088SOL    HW210822   4.273  10.404   1.260  0.0880  0.0221  0.5126
 2089SOL     OW10823   1.818   0.949  11.444  0.4473  0.2444  0.1272
 2089SOL    HW110824   1.747   0.971  11.505  0.9748 -0.6496  1.0998
 2089SOL    HW210825   1.810   1.014  11.374 -0.9219  0.5686  0.5392
 2090SOL     OW10826   3.774   6.116   8.881 -0.0158 -0.5487 -0.0612
 2090SOL    HW110827   3.858   6.080   8.853  0.6400  0.1087  1.0216
 2090SOL    HW210828   3.718   6.107   8.804  1.0924 -0.8140 -0.8649
 2091SOL     OW10829   2.919   2.319  11.752  0.5395 -0.5025  0.2280
 2091SOL    HW110830   2.834   2.280  11.775  0.2599 -0.3897 -0.5547
 2091SOL    HW210831   2.929   2.297  11.659  0.9475  0.2701  0.0905
 2092SOL     OW10832   7.387  11.058  10.811 -0.0589  0.3136  0.4371
 2092SOL    HW110833   7.349  11.140  10.843 -3.7397 -0.5129 -1.3262
 2092SOL    HW210834   7.433  11.083  10.731 -0.6804  0.7792  0.2120
 2093SOL     OW10835  10.347   4.144   7.232  0.2491  0.1887 -0.2863
 2093SOL    HW110836  10.388   4.213   7.284  1.0137 -1.2285  1.0637
 2093SOL    HW210837  10.299   4.091   7.295  0.7203 -1.2489 -1.0827
 2094SOL     OW10838   1.838   7.892   8.869  0.1037  0.1816  0.0239
 2094SOL    HW110839   1.839   7.897   8.773 -2.0106  1.9299 -0.0174
 2094SOL    HW210840   1.878   7.974   8.897  0.9166 -0.4230  0.6668
 2095SOL     OW10841   2.900   3.135   2.252  0.4891  0.2506 -0.2428
 2095SOL    HW110842   2.891   3.093   2.337 -1.1527  0.2541 -0.3733
 2095SOL    HW210843   2.878   3.227   2.268 -1.9705 -0.1233 -0.9679
 2096SOL     OW10844   2.731   1.435   8.413 -0.0841 -0.0658 -0.3304
 2096SOL    HW110845   2.783   1.478   8.481 -0.7857  0.1184  0.0949
 2096SOL    HW210846   2.681   1.506   8.372  1.0168 -0.0238 -1.6743
 2097SOL     OW10847   8.114   3.555  11.252 -0.1207  0.0113  0.1800
 2097SOL    HW110848   8.036   3.610  11.247 -0.5157 -0.5546 -0.0127
 2097SOL    HW210849   8.179   3.599  11.196 -0.8128 -0.3255 -0.9120
 2098SOL     OW10850   1.893   8.328   2.489 -0.0977 -0.1757  0.3477
 2098SOL    HW110851   1.868   8.407   2.535  0.9933  0.3845  0.0199
 2098SOL    HW210852   1.930   8.358   2.406  0.1052 -1.0301  0.1116
 2099SOL     OW10853   9.603  11.940   7.198 -0.2032  0.3461  0.2054
 2099SOL    HW110854   9.644  11.974   7.278 -0.9016 -0.1040  0.7681
 2099SOL    HW210855   9.542  12.008   7.171  0.8374  0.9834 -0.5891
 2100SOL     OW10856   0.174   5.166   9.411 -0.0001  0.0221  0.3035
 2100SOL    HW110857   0.228   5.243   9.428  0.1447  0.0460 -0.2580
 2100SOL    HW210858   0.179   5.153   9.316  0.6304 -1.1468  0.4760
 2101SOL     OW10859   1.303   3.401   4.612 -0.1309  0.3817  0.3149
 2101SOL    HW110860   1.380   3.437   4.568 -0.4147  1.1725  0.4459
 2101SOL    HW210861   1.253   3.478   4.639 -0.0953 -0.0845  1.7924
 2102SOL     OW10862   1.650   0.230  11.236 -0.0413  0.1862 -0.6789
 2102SOL    HW110863   1.655   0.314  11.282  0.3136 -0.0329 -0.3041
 2102SOL    HW210864   1.661   0.165  11.305  2.3452 -0.1311 -1.2720
 2103SOL     OW10865   6.202  10.189   0.014  0.2357 -0.3960 -0.4183
 2103SOL    HW110866   6.201  10.094   0.011 -1.8193 -0.4644  0.4545
 2103SOL    HW210867   6.272  10.211   0.075  1.3585 -1.2705 -1.3457
 2104SOL     OW10868   4.247  11.940   7.772  0.5559  0.4276  0.1099
 2104SOL    HW110869   4.287  11.896   7.696  0.8973  1.0010 -0.0513
 2104SOL    HW210870   4.290  11.900   7.848 -0.3988 -0.7602  0.0522
 2105SOL     OW10871   3.566   6.531   4.468 -0.4368  0.1171  0.3462
 2105SOL    HW110872   3.529   6.485   4.393 -0.0283 -0.0097  0.2198
 2105SOL    HW210873   3.511   6.609   4.478  0.0998  0.6402 -0.6949
 2106SOL     OW10874   3.717  11.878   9.753  0.8481 -0.1158  0.1406
 2106SOL    HW110875   3.757  11.793   9.770  0.0550 -0.4749  0.2666
 2106SOL    HW210876   3.636  11.858   9.707  1.9023  0.7194 -2.2336
 2107SOL     OW10877   4.167   1.805   3.744  0.0522 -0.2391  0.4467
 2107SOL    HW110878   4.248   1.776   3.703 -0.1996  0.5190 -0.6411
 2107SOL    HW210879   4.100   1.746   3.711  0.0808 -0.5791  0.9842
 2108SOL     OW10880  10.418   3.697   8.763  0.0257 -0.1646 -0.0148
 2108SOL    HW110881  10.453   3.712   8.675  1.3181 -0.3138  0.4517
 2108SOL    HW210882  10.385   3.783   8.790  2.5906  0.7040  0.5917
 2109SOL     OW10883  11.099   2.701   1.534  0.0825  0.1260  0.0042
 2109SOL    HW110884  11.044   2.733   1.462  0.1749 -0.8238 -0.5080
 2109SOL    HW210885  11.072   2.611   1.547 -0.3725  0.4626  1.6168
 2110SOL     OW10886   2.661   0.984   0.788  0.3375  0.0656 -0.5123
 2110SOL    HW110887   2.680   0.913   0.726 -0.7089  0.3568 -1.1974
 2110SOL    HW210888   2.621   1.052   0.734 -0.5664  0.3472  0.4837
 2111SOL     OW10889   7.817   2.581   3.380  0.0345 -0.1261 -0.6352
 2111SOL    HW110890   7.889   2.593   3.318  0.4511  0.9025  0.0090
 2111SOL    HW210891   7.748   2.639   3.349 -1.0022 -1.9125 -1.8780
 2112SOL     OW10892  10.576   8.012   1.934 -0.5789 -0.5006  0.2377
 2112SOL    HW110893  10.636   7.984   1.865 -1.1267 -2.1211  0.3899
 2112SOL    HW210894  10.519   8.076   1.891  1.4963  1.4950  0.2096
 2113SOL     OW10895   8.196   6.170  10.388  0.1911  0.0666 -0.2904
 2113SOL    HW110896   8.107   6.163  10.423 -0.1759  1.7718 -0.7749
 2113SOL    HW210897   8.183   6.180  10.294  1.0544 -2.2189 -0.7107
 2114SOL     OW10898   4.982   1.243   7.837 -0.2007 -0.0000  0.0184
 2114SOL    HW110899   4.889   1.262   7.822  0.0175  0.4305 -0.8749
 2114SOL    HW210900   5.010   1.197   7.758  0.2728 -0.4236  0.4263
 2115SOL     OW10901   4.385   8.738   9.310  0.0517  0.3813  0.8483
 2115SOL    HW110902   4.335   8.774   9.383 -1.0615  1.4591 -0.3811
 2115SOL    HW210903   4.319   8.719   9.243  1.1867  0.8613 -0.4471
 2116SOL     OW10904   5.994  11.879   5.369  0.0866 -0.1258  0.3140
 2116SOL    HW110905   6.061  11.814   5.348  0.8618  0.1044  1.8593
 2116SOL    HW210906   5.994  11.940   5.295  1.7499 -0.0165  0.3721
 2117SOL     OW10907   0.144   4.049   4.299  0.2125  0.0054 -0.0813
 2117SOL    HW110908   0.134   3.957   4.323  0.6644  0.2105  0.9291
 2117SOL    HW210909   0.188   4.047   4.214 -0.9455 -0.7242 -0.6917
 2118SOL     OW10910   6.682   2.543   7.572 -0.1579 -0.0404  0.4736
 2118SOL    HW110911   6.613   2.608   7.563 -2.2815 -2.1216  0.5472
 2118SOL    HW210912   6.709   2.524   7.482  0.5054  0.9215  0.4546
 2119SOL     OW10913  11.390   6.535   3.803 -0.3755  0.1919 -0.1947
 2119SOL    HW110914  11.362   6.538   3.712 -0.7317 -2.4602 -0.2498
 2119SOL    HW210915  11.324   6.585   3.851 -2.5641 -1.8294 -0.9321
 2120SOL     OW10916   5.273   4.640   5.169 -0.1531  0.1700  0.1637
 2120SOL    HW110917   5.253   4.607   5.081 -2.0938 -0.2301  0.7167
 2120SOL    HW210918   5.276   4.562   5.224  2.4661  0.2709  0.2617
 2121SOL     OW10919  11.762   2.872   7.160  0.2940  0.3721 -0.0913
 2121SOL    HW110920  11.682   2.870   7.107  0.5282 -2.4535 -0.5097
 2121SOL    HW210921  11.740   2.822   7.239  0.3808  3.3346  1.9585
 2122SOL     OW10922   7.002   0.760   3.714 -0.3325  0.4308  0.2195
 2122SOL    HW110923   7.081   0.757   3.660  0.9088  0.0203  1.9703
 2122SOL    HW210924   6.995   0.852   3.741  0.8732  0.0858  1.8562
 2123SOL     OW10925  10.070  11.475   6.976  0.0472 -0.0071  0.3498
 2123SOL    HW110926   9.996  11.416   6.992 -0.6972  0.3700 -1.4590
 2123SOL    HW210927  10.030  11.562   6.971  0.4516  0.1134 -1.4347
 2124SOL     OW10928   7.088   0.776   1.332  0.0015 -0.5766  0.1042
 2124SOL    HW110929   6.993   0.785   1.338 -0.0770 -0.3714 -1.2009
 2124SOL    HW210930   7.122   0.843   1.391 -0.6556 -1.3218  1.3697
 2125SOL     OW10931   1.916   4.198   8.556 -0.2268  0.4620  0.2293
 2125SOL    HW110932   1.821   4.195   8.552 -0.3520  1.5578  1.6581
 2125SOL    HW210933   1.943   4.107   8.554 -1.4033  0.0582  1.4372
 2126SOL     OW10934   1.161   1.828  11.127 -0.7172  0.0949 -0.0142
 2126SOL    HW110935   1.126   1.764  11.065 -0.3874 -0.0787 -0.0248
 2126SOL    HW210936   1.113   1.812  11.208  0.0885 -0.8819  0.2974
 2127SOL     OW10937   0.962   0.853   5.630 -0.3840 -0.3691  0.0382
 2127SOL    HW110938   1.042   0.812   5.597 -1.3915 -0.5514 -2.4191
 2127SOL    HW210939   0.978   0.947   5.618 -1.2315 -0.4543 -2.5484
 2128SOL     OW10940  11.083  10.535  12.030 -0.7265  0.5820  0.3779
 2128SOL    HW110941  11.139  10.463  11.999  0.4224  2.4671 -2.3329
 2128SOL    HW210942  11.118  10.613  11.987 -2.5335  2.6664  2.3868
 2129SOL     OW10943   2.555   1.258   1.585  0.0747 -0.2755  0.4938
 2129SOL    HW110944   2.499   1.302   1.522  0.6067  0.7552  0.7106
 2129SOL    HW210945   2.515   1.172   1.597 -1.9979  0.7424  1.3564
 2130SOL     OW10946   4.332   7.016   8.258 -0.1918  0.5084  0.7454
 2130SOL    HW110947   4.419   6.995   8.225  0.5048  2.0418  1.5184
 2130SOL    HW210948   4.299   7.085   8.200 -1.4133 -0.8626 -0.2628
 2131SOL     OW10949  10.316   1.053   0.349  0.1424 -0.1641  0.0294
 2131SOL    HW110950  10.319   1.062   0.254 -0.1748  0.4873  0.0715
 2131SOL    HW210951  10.265   1.129   0.379 -1.5856 -1.4516  0.5500
 2132SOL     OW10952   2.684   2.398  10.990  0.2456  0.1948  0.2160
 2132SOL    HW110953   2.736   2.361  10.919  0.3500 -0.5398  0.6634
 2132SOL    HW210954   2.748   2.418  11.058  0.0318 -0.0063  0.4776
 2133SOL     OW10955   8.295   1.760  10.489  0.1417 -0.4419  0.4349
 2133SOL    HW110956   8.315   1.670  10.462  0.1351 -0.3068 -0.0281
 2133SOL    HW210957   8.256   1.750  10.576  0.7721 -0.8308  0.6833
 2134SOL     OW10958   3.479   1.686   1.775 -0.0921  0.3471 -0.9198
 2134SOL    HW110959   3.394   1.653   1.803  0.8700 -1.3049  0.2644
 2134SOL    HW210960   3.478   1.779   1.798 -1.6008  0.3857 -1.0572
 2135SOL     OW10961   5.311   8.166   9.873  0.1040 -0.2410  0.3707
 2135SOL    HW110962   5.392   8.180   9.823  0.0492  1.8051  0.7653
 2135SOL    HW210963   5.266   8.096   9.827  1.6609 -0.7746 -0.4145
 2136SOL     OW10964   5.126   9.884   8.577  0.3315  0.2542  0.4316
 2136SOL    HW110965   5.201   9.892   8.636  0.5841  0.1170  0.1336
 2136SOL    HW210966   5.060   9.942   8.614  0.5680  0.3392  0.7248
 2137SOL     OW10967   3.734   3.184   7.074 -0.2695 -0.6366 -0.3993
 2137SOL    HW110968   3.785   3.138   7.140  0.6113 -0.0054 -0.6259
 2137SOL    HW210969   3.719   3.271   7.111 -1.9479 -1.0593  0.0413
 2138SOL     OW10970   2.231   8.469  10.151  0.2212  0.2464  0.3232
 2138SOL    HW110971   2.286   8.541  10.120 -0.3741  0.2423 -0.8079
 2138SOL    HW210972   2.261   8.393  10.101 -0.6968  0.2184 -0.2238
 2139SOL     OW10973   8.809   0.230   8.236 -0.4437 -0.2025 -0.4241
 2139SOL    HW110974   8.840   0.279   8.312  1.2440 -0.5192 -0.8660
 2139SOL    HW210975   8.799   0.140   8.267 -0.0549 -0.2713 -0.4960
 2140SOL     OW10976   2.569  11.071   5.046  0.5811  0.5863  0.0147
 2140SOL    HW110977   2.546  11.039   4.959  1.1454  2.5252 -0.8989
 2140SOL    HW210978   2.616  10.998   5.087 -0.1063 -0.5241 -1.0884
 2141SOL     OW10979   7.613   2.868   6.845 -0.0050 -0.2292 -0.0308
 2141SOL    HW110980   7.661   2.947   6.819  1.0263 -0.3401  1.4102
 2141SOL    HW210981   7.681   2.804   6.867 -0.8093 -0.9070  0.5846
 2142SOL     OW10982   7.049   0.819   8.979  0.0897 -0.1815 -0.1181
 2142SOL    HW110983   7.091   0.737   8.953 -3.3836 -2.4146  0.6866
 2142SOL    HW210984   7.068   0.827   9.073  0.2886 -0.1380 -0.1613
 2143SOL     OW10985   7.253   3.863   3.245  0.0898  0.5246  0.0960
 2143SOL    HW110986   7.286   3.901   3.326 -2.9345 -1.6163  2.5525
 2143SOL    HW210987   7.204   3.934   3.203  0.2749  1.1880  0.9860
 2144SOL     OW10988  10.670   1.717   1.667 -0.6794 -0.1592  0.0531
 2144SOL    HW110989  10.744   1.658   1.653 -0.9778 -0.4287 -0.4506
 2144SOL    HW210990  10.629   1.724   1.581 -1.4035 -0.2448  0.3788
 2145SOL     OW10991   9.521   3.203   8.686 -0.1475 -0.0259 -0.3017
 2145SOL    HW110992   9.518   3.148   8.608  1.0505 -2.3623  1.1758
 2145SOL    HW210993   9.429   3.216   8.709 -0.4770 -1.6206 -0.5928
 2146SOL     OW10994   8.252   4.562  11.239  0.4236 -0.1450 -0.1256
 2146SOL    HW110995   8.159   4.542  11.245  0.8576 -2.4565 -0.2876
 2146SOL    HW210996   8.264   4.599  11.151 -0.4112  0.7836  0.1371
 2147SOL     OW10997   6.563   7.146   2.154 -0.5775  0.8065 -0.0768
 2147SOL    HW110998   6.554   7.123   2.246 -1.4930  2.2521  0.2142
 2147SOL    HW210999   6.475   7.139   2.118 -0.4711  1.5590 -0.5117
 2148SOL     OW11000   5.650   4.218   6.944 -1.0466  0.2471 -0.7187
 2148SOL    HW111001   5.691   4.238   6.860 -0.6605  0.7094 -0.4218
 2148SOL    HW211002   5.651   4.122   6.949 -0.6502  0.2336 -1.0270
 2149SOL     OW11003  11.687  11.066   0.121  0.7093  0.1886 -0.2778
 2149SOL    HW111004  11.663  10.982   0.081  0.8230 -0.1218  0.2848
 2149SOL    HW211005  11.734  11.041   0.200  1.3124  0.7914 -0.4412
 2150SOL     OW11006  10.867   3.690   8.403  0.1615  0.0207  0.1022
 2150SOL    HW111007  10.868   3.785   8.392  0.1319  0.0193  0.0859
 2150SOL    HW211008  10.954   3.662   8.375 -0.1197 -0.0522 -0.7495
 2151SOL     OW11009  11.721   4.444   8.995 -0.1257  0.4831  0.0444
 2151SOL    HW111010  11.744   4.359   9.032  0.9197  1.4496  1.7783
 2151SOL    HW211011  11.661   4.482   9.060 -1.1799  0.7858 -1.0772
 2152SOL     OW11012   0.998   3.470   9.095 -0.5353 -0.4278  0.0891
 2152SOL    HW111013   0.990   3.557   9.134  1.0049  0.0387 -0.5887
 2152SOL    HW211014   0.951   3.476   9.012 -0.1296 -0.1443 -0.1181
 2153SOL     OW11015   2.097  11.217   8.657  0.4781  0.0348 -0.0703
 2153SOL    HW111016   2.055  11.294   8.620  1.7110  1.3656  1.1552
 2153SOL    HW211017   2.050  11.201   8.739  2.1380  1.4747  1.2600
 2154SOL     OW11018  10.842   2.685   0.125 -0.8104 -0.1314 -0.0381
 2154SOL    HW111019  10.780   2.706   0.194 -1.2620  0.6714 -0.6736
 2154SOL    HW211020  10.860   2.592   0.136 -1.0734 -0.0684  0.9948
 2155SOL     OW11021  10.544  10.020   7.884  0.0774  0.0014  0.5234
 2155SOL    HW111022  10.551  10.056   7.795 -1.3392  0.3859  0.5306
 2155SOL    HW211023  10.462  10.058   7.918 -0.4539 -1.7106  1.2575
 2156SOL     OW11024   6.781   5.881  10.506  0.0124 -0.0466 -0.2127
 2156SOL    HW111025   6.745   5.801  10.467 -1.2839 -0.8473  2.3852
 2156SOL    HW211026   6.713   5.947  10.493  1.0401  0.6849 -2.2654
 2157SOL     OW11027   5.138  11.604   3.661  0.2607  0.0300  0.0688
 2157SOL    HW111028   5.065  11.599   3.723 -0.4447 -0.1560 -0.7549
 2157SOL    HW211029   5.164  11.513   3.647  1.3982  0.1526  1.1936
 2158SOL     OW11030   4.757   8.495   4.692 -0.0779 -0.0659 -0.0547
 2158SOL    HW111031   4.743   8.491   4.598  0.5648 -1.9800 -0.1035
 2158SOL    HW211032   4.745   8.405   4.723 -0.5181  0.5602  1.7377
 2159SOL     OW11033  11.075   6.358   9.728 -0.7497 -0.5238 -0.3830
 2159SOL    HW111034  11.097   6.307   9.806  2.9172  1.7228  0.2988
 2159SOL    HW211035  11.026   6.433   9.762 -0.8580 -0.5203 -0.5447
 2160SOL     OW11036   9.473   1.748  10.387  0.1829  1.1277  0.0529
 2160SOL    HW111037   9.527   1.826  10.374  2.4326 -0.5456 -1.3514
 2160SOL    HW211038   9.433   1.732  10.301 -0.7800  1.0350  0.4978
 2161SOL     OW11039   4.550  11.638  11.218  0.1589 -0.0876 -0.2035
 2161SOL    HW111040   4.643  11.639  11.240  0.6344  2.9470 -1.8129
 2161SOL    HW211041   4.506  11.658  11.301  0.8431 -1.7808  0.6189
 2162SOL     OW11042   9.881   3.817   9.787  0.1904 -0.3358  0.2885
 2162SOL    HW111043   9.842   3.878   9.850  3.0975  1.4605  0.5366
 2162SOL    HW211044   9.849   3.846   9.702 -0.4084 -0.0344  0.6133
 2163SOL     OW11045   9.899  11.411   3.324  0.7145  0.6340  0.3024
 2163SOL    HW111046   9.966  11.435   3.259 -1.6028 -2.3259 -3.6179
 2163SOL    HW211047   9.947  11.361   3.390  2.8820  1.8065 -0.2843
 2164SOL     OW11048  11.396   7.909   3.978  0.3623  0.3619 -0.2426
 2164SOL    HW111049  11.469   7.923   4.038  0.1647  0.0177  0.0870
 2164SOL    HW211050  11.327   7.871   4.033  0.4715 -0.7428 -0.8489
 2165SOL     OW11051   4.263   8.383   6.938 -0.2080 -0.2863 -0.3582
 2165SOL    HW111052   4.239   8.412   6.850 -0.9016  1.2442  0.3035
 2165SOL    HW211053   4.347   8.425   6.955 -0.7944  0.6705  0.2671
 2166SOL     OW11054   3.768   6.488   4.917  0.0892  0.3848  0.1617
 2166SOL    HW111055   3.846   6.454   4.961  1.5032  0.5943 -2.0238
 2166SOL    HW211056   3.725   6.543   4.983  2.2554  0.9694  1.1664
 2167SOL     OW11057   4.189   7.393   4.985  0.2488 -0.1027 -0.2375
 2167SOL    HW111058   4.114   7.335   4.973  0.4584 -0.0894 -1.8494
 2167SOL    HW211059   4.150   7.480   4.997 -0.0045 -0.0296 -1.4987
 2168SOL     OW11060   5.455   5.002   6.566  0.1356  0.4535  0.6025
 2168SOL    HW111061   5.456   4.992   6.662 -0.5795 -1.3432  0.4574
 2168SOL    HW211062   5.371   5.043   6.547  0.4374  1.1658  0.7429
 2169SOL     OW11063   1.055   7.328   8.969 -0.3233 -1.1370  0.0190
 2169SOL    HW111064   1.055   7.414   8.928 -0.1663 -1.4048 -0.5643
 2169SOL    HW211065   0.973   7.324   9.018 -1.1925 -1.3136 -1.3772
 2170SOL     OW11066  11.544   4.224   9.706  0.7566  0.2622 -0.2301
 2170SOL    HW111067  11.456   4.215   9.669  1.4527 -1.5835 -1.6040
 2170SOL    HW211068  11.576   4.134   9.714  2.7559  0.9158 -0.4006
 2171SOL     OW11069   4.029   4.361   1.095  0.2058  0.0061  0.0642
 2171SOL    HW111070   4.000   4.449   1.071  0.9459  0.9648  2.3452
 2171SOL    HW211071   3.965   4.302   1.055 -0.1984  1.5521 -1.6804
 2172SOL     OW11072   7.094   9.346   3.697  0.3393  0.1142  0.1781
 2172SOL    HW111073   7.163   9.397   3.654  1.0528 -1.6128 -0.8366
 2172SOL    HW211074   7.042   9.310   3.626  0.2865 -1.1154  0.8058
 2173SOL     OW11075   8.335   1.473   4.063 -0.6004 -0.3770  0.5204
 2173SOL    HW111076   8.412   1.452   4.116 -1.0159  1.8379  2.1482
 2173SOL    HW211077   8.361   1.451   3.974  1.8866  0.1528  1.0292
 2174SOL     OW11078   7.836   4.351   8.789  0.1528  0.8708 -0.0553
 2174SOL    HW111079   7.810   4.443   8.790 -1.1620  0.5920 -2.2703
 2174SOL    HW211080   7.869   4.337   8.700 -0.1538 -0.9265  0.0883
 2175SOL     OW11081  10.766   5.055   6.845 -0.0213 -0.4625  1.0971
 2175SOL    HW111082  10.768   5.090   6.935 -1.5788 -0.2174  1.0585
 2175SOL    HW211083  10.673   5.047   6.825  0.3094 -0.4318 -0.5400
 2176SOL     OW11084  10.600   6.234   5.729  0.2727  0.1949  0.2032
 2176SOL    HW111085  10.641   6.294   5.791 -0.9573  0.2208  1.0028
 2176SOL    HW211086  10.549   6.290   5.671 -1.3983 -0.0835  1.3459
 2177SOL     OW11087   4.276   7.329   6.171 -0.2515  0.1437 -0.1477
 2177SOL    HW111088   4.268   7.408   6.117  0.8295  0.0836 -0.4268
 2177SOL    HW211089   4.190   7.288   6.166 -0.0170 -0.2026 -2.4155
 2178SOL     OW11090   4.703   1.374   4.119 -0.1595 -0.3772 -0.3987
 2178SOL    HW111091   4.780   1.408   4.166 -0.7335 -0.1987  0.4325
 2178SOL    HW211092   4.726   1.282   4.102  0.8200  0.0323 -1.4335
 2179SOL     OW11093   5.441   5.257   2.254  0.5097 -0.5702 -0.1611
 2179SOL    HW111094   5.400   5.344   2.251  1.3895 -0.1716 -1.7171
 2179SOL    HW211095   5.461   5.243   2.347  0.1182  0.7730  0.1507
 2180SOL     OW11096   3.496   0.371   6.838  0.0823 -0.3229  0.1804
 2180SOL    HW111097   3.527   0.294   6.886 -0.4909 -0.2734  0.6525
 2180SOL    HW211098   3.467   0.336   6.753 -0.2989 -0.6589  0.4412
 2181SOL     OW11099   8.047  11.779   9.445  0.1149 -0.1915  0.4823
 2181SOL    HW111100   8.117  11.749   9.502  0.5383 -0.6213 -0.2450
 2181SOL    HW211101   8.003  11.699   9.415 -1.1575  0.0951  1.4903
 2182SOL     OW11102  10.021   1.885   4.905  0.3930  0.1327 -0.0433
 2182SOL    HW111103  10.080   1.813   4.925  0.7534  0.7373  1.1861
 2182SOL    HW211104  10.053   1.920   4.822  1.3553  0.0272  0.2725
 2183SOL     OW11105   4.378   6.388   9.618 -0.2745 -0.1145  0.1999
 2183SOL    HW111106   4.425   6.324   9.565 -0.6651 -2.0141  2.0122
 2183SOL    HW211107   4.425   6.390   9.701 -2.2076 -0.6591  1.3837
 2184SOL     OW11108   7.740   2.688   2.410  0.0616 -0.3388  0.2057
 2184SOL    HW111109   7.647   2.690   2.430 -0.0053 -1.2409  0.0003
 2184SOL    HW211110   7.761   2.779   2.387 -0.3553  0.2657  2.0512
 2185SOL     OW11111   1.640  10.146   7.561  0.1134  0.1229  0.2779
 2185SOL    HW111112   1.665  10.128   7.471 -4.1910 -0.9462 -0.9506
 2185SOL    HW211113   1.644  10.241   7.569 -1.0579  0.3810 -1.6723
 2186SOL     OW11114   0.622   7.341   2.117  0.1818 -0.4669 -0.2455
 2186SOL    HW111115   0.608   7.289   2.196  0.0537  1.1802  0.8404
 2186SOL    HW211116   0.680   7.286   2.063  1.7275 -0.8781  1.7422
 2187SOL     OW11117  11.522   0.449   5.412 -0.3905 -0.3821  0.3917
 2187SOL    HW111118  11.450   0.398   5.449 -2.3487  2.4319  0.7800
 2187SOL    HW211119  11.499   0.457   5.319 -0.6585  0.5803  0.5322
 2188SOL     OW11120   6.774   2.454   4.469 -0.0638 -0.1096  0.6047
 2188SOL    HW111121   6.831   2.490   4.537  0.9217  1.2381 -0.8579
 2188SOL    HW211122   6.690   2.496   4.484  0.4037  0.9072  0.4339
 2189SOL     OW11123   2.759   1.831   3.371 -0.1550  0.2265 -0.3919
 2189SOL    HW111124   2.800   1.763   3.426  1.9102  0.2991 -1.7361
 2189SOL    HW211125   2.777   1.803   3.282 -0.7915  1.6786 -1.0019
 2190SOL     OW11126   6.233   6.126   0.985  0.6391  0.4462 -0.0127
 2190SOL    HW111127   6.312   6.164   1.025  0.8954  0.3068 -0.3826
 2190SOL    HW211128   6.257   6.035   0.967  0.3316  0.3553  0.0341
 2191SOL     OW11129   4.212   9.935   1.128 -0.0464  0.3832  0.2630
 2191SOL    HW111130   4.306   9.955   1.130 -0.7840  4.9663 -0.5878
 2191SOL    HW211131   4.179   9.966   1.213 -0.7991 -2.1523  1.0132
 2192SOL     OW11132   0.713   9.212   1.015  0.1736 -0.2662  0.6081
 2192SOL    HW111133   0.800   9.242   1.044  0.0103  1.2799 -0.3750
 2192SOL    HW211134   0.653   9.243   1.083  0.1350  0.7551  0.1238
 2193SOL     OW11135   1.810  11.426   8.921 -0.1027 -0.1016  0.8866
 2193SOL    HW111136   1.753  11.376   8.979  0.6652  0.0889  1.8356
 2193SOL    HW211137   1.758  11.501   8.894 -1.5323 -1.6997 -1.1263
 2194SOL     OW11138   6.890   5.840   8.072 -0.4739  0.6157 -0.7477
 2194SOL    HW111139   6.943   5.914   8.042  0.9535 -0.1834 -0.3045
 2194SOL    HW211140   6.944   5.763   8.052 -0.0442 -0.0741  2.5036
 2195SOL     OW11141   2.673   6.667   3.233  0.2913  0.1122 -0.0029
 2195SOL    HW111142   2.609   6.738   3.222 -0.6601 -0.8856 -1.1661
 2195SOL    HW211143   2.681   6.657   3.328  1.5660  2.7278  0.2630
 2196SOL     OW11144   8.571  10.987  11.983  0.1161 -0.7399  0.9118
 2196SOL    HW111145   8.541  11.072  12.016  2.7485  1.0179 -0.8180
 2196SOL    HW211146   8.666  10.991  11.991  0.4737 -2.4975 -1.5770
 2197SOL     OW11147   7.738   3.790   9.877 -0.1616 -0.1688 -0.0436
 2197SOL    HW111148   7.702   3.711   9.917 -1.3088  0.1500 -0.3890
 2197SOL    HW211149   7.681   3.861   9.908  0.2839  0.3893 -0.4704
 2198SOL     OW11150  10.628  11.293  10.130  0.0518  0.1407 -0.4196
 2198SOL    HW111151  10.688  11.243  10.074 -1.5278 -1.7986 -0.5043
 2198SOL    HW211152  10.574  11.342  10.068 -1.5851 -1.8753 -0.7231
 2199SOL     OW11153   1.057  10.616   8.699 -0.1782  0.5585 -0.6268
 2199SOL    HW111154   1.053  10.520   8.703 -0.2856  0.5909  1.6212
 2199SOL    HW211155   1.083  10.636   8.609  3.7783 -1.7283 -0.2141
 2200SOL     OW11156   5.252   5.782   2.126 -0.7696 -0.2732 -0.0686
 2200SOL    HW111157   5.314   5.852   2.106  0.0757 -0.2994  2.2415
 2200SOL    HW211158   5.254   5.773   2.221 -1.4992 -2.8708 -0.2106
 2201SOL     OW11159  12.006   0.753   8.363  0.0641 -0.0514  0.2177
 2201SOL    HW111160  11.964   0.744   8.277  1.8376 -0.7769 -0.6194
 2201SOL    HW211161  11.944   0.806   8.414 -1.4349 -0.3292 -1.2137
 2202SOL     OW11162   5.951   8.808   1.515 -0.2047 -0.5371 -0.4196
 2202SOL    HW111163   6.013   8.875   1.545  1.0983 -1.8249 -0.1194
 2202SOL    HW211164   5.875   8.858   1.486 -0.1143  0.9743  1.6747
 2203SOL     OW11165   7.594  10.579   3.625 -0.0429 -0.2940  0.0945
 2203SOL    HW111166   7.549  10.521   3.686  0.5769  0.9074  1.7649
 2203SOL    HW211167   7.542  10.659   3.623  0.5854  0.1264 -0.0038
 2204SOL     OW11168   4.237   4.162   1.529  0.0674 -0.1449 -0.6037
 2204SOL    HW111169   4.306   4.226   1.510 -1.4445  2.8276  2.6074
 2204SOL    HW211170   4.160   4.197   1.485  0.0876 -2.4901 -2.7077
 2205SOL     OW11171   7.496   9.051   6.984 -0.0134  0.0168  0.0823
 2205SOL    HW111172   7.476   9.115   7.052  2.5451  0.9991  0.0208
 2205SOL    HW211173   7.419   8.994   6.982 -1.0459  1.1706  2.3525
 2206SOL     OW11174   7.505   4.954  11.124 -0.2151 -0.1902 -0.2484
 2206SOL    HW111175   7.433   4.931  11.183 -1.0181  0.3216 -1.0198
 2206SOL    HW211176   7.514   5.049  11.132  0.2964 -0.2320 -0.2622
 2207SOL     OW11177   6.698   6.589   7.333 -0.3188  0.4401 -0.4750
 2207SOL    HW111178   6.759   6.584   7.259 -1.3610 -2.1063 -1.2648
 2207SOL    HW211179   6.665   6.500   7.343 -0.3260  0.6827  3.0236
 2208SOL     OW11180   6.074  11.077   2.508 -0.1567 -0.0192 -0.5551
 2208SOL    HW111181   6.093  10.986   2.530 -1.6487 -0.6725 -1.7699
 2208SOL    HW211182   6.155  11.110   2.469  0.1819 -1.0422 -0.7519
 2209SOL     OW11183   4.080   2.586   9.829 -0.3536 -0.0938  0.4136
 2209SOL    HW111184   4.142   2.588   9.902 -0.2447 -1.3540  0.3796
 2209SOL    HW211185   4.023   2.662   9.843  0.1872  0.1546  1.3375
 2210SOL     OW11186   2.846  11.273   7.043 -0.1140 -0.1625 -0.3330
 2210SOL    HW111187   2.863  11.211   7.114 -0.2561  0.1967  0.0160
 2210SOL    HW211188   2.908  11.344   7.058 -2.0925  1.3624  1.1908
 2211SOL     OW11189   3.685   1.457   4.788 -0.2279 -0.3123 -0.2233
 2211SOL    HW111190   3.662   1.442   4.696 -2.8293  0.0174  0.2788
 2211SOL    HW211191   3.767   1.411   4.800  0.2765 -0.2290 -2.7445
 2212SOL     OW11192   4.024   9.864   8.611 -0.2725 -0.9956  0.3057
 2212SOL    HW111193   4.088   9.797   8.635  2.0226  1.1458  0.5691
 2212SOL    HW211194   4.051   9.942   8.660 -1.4748  0.7669 -1.6622
 2213SOL     OW11195   4.887  11.946   3.814  0.7117  0.3345 -0.1210
 2213SOL    HW111196   4.879  12.007   3.886  2.3766  0.4330  0.0268
 2213SOL    HW211197   4.880  12.000   3.735 -0.4653  0.3176 -0.0349
 2214SOL     OW11198   4.287   9.166  10.579 -0.4300 -0.3220  0.1653
 2214SOL    HW111199   4.271   9.091  10.522  0.2802  0.5092 -1.2003
 2214SOL    HW211200   4.368   9.205  10.544 -0.5205  0.7881  1.1390
 2215SOL     OW11201  10.270   4.271  10.092 -0.0947  0.4583  1.2152
 2215SOL    HW111202  10.281   4.276  10.187  0.5212  3.2758  1.0556
 2215SOL    HW211203  10.358   4.283  10.056 -0.2698 -0.8724  0.2378
 2216SOL     OW11204   3.773   2.117   0.196  0.3772 -0.2692 -0.0894
 2216SOL    HW111205   3.850   2.073   0.233  0.6256 -1.5221 -1.9931
 2216SOL    HW211206   3.799   2.142   0.108 -0.6989  1.2816 -0.0163
 2217SOL     OW11207  10.739   4.437   8.504 -0.4233  0.0112  0.0285
 2217SOL    HW111208  10.692   4.496   8.444  0.0049  1.1225  0.7474
 2217SOL    HW211209  10.671   4.407   8.565 -0.8479 -1.0717 -0.9438
 2218SOL     OW11210   0.699   8.682   3.141  0.2374  0.4514  0.2027
 2218SOL    HW111211   0.787   8.714   3.119 -0.5753  0.3975 -3.9415
 2218SOL    HW211212   0.657   8.667   3.056 -3.2537 -1.1176  1.9965
 2219SOL     OW11213   9.158  10.565   0.080  0.0741  0.1033  0.8868
 2219SOL    HW111214   9.169  10.657   0.102 -0.7309  0.7832 -1.2848
 2219SOL    HW211215   9.064  10.550   0.087  0.0339 -0.1686 -0.0640
 2220SOL     OW11216   8.399   5.365   4.636 -0.3844 -0.2228  0.0715
 2220SOL    HW111217   8.344   5.287   4.644 -1.2456  0.3334 -0.2690
 2220SOL    HW211218   8.438   5.357   4.548  0.9583 -1.1569  0.7175
 2221SOL     OW11219   6.189   5.600   9.629 -0.3477  0.2011 -0.3556
 2221SOL    HW111220   6.273   5.633   9.662 -0.8030  2.3891 -1.1864
 2221SOL    HW211221   6.205   5.507   9.612  1.3161  0.1156  1.2995
 2222SOL     OW11222  11.579  10.583  10.604  0.9388  0.6388  0.2079
 2222SOL    HW111223  11.501  10.590  10.550  1.8033 -0.9226 -1.3362
 2222SOL    HW211224  11.618  10.670  10.602 -0.0157  1.0731 -0.1282
 2223SOL     OW11225   9.477   1.293   2.799  0.1792  0.3048 -0.3014
 2223SOL    HW111226   9.509   1.337   2.720  0.9025 -0.4887 -0.4646
 2223SOL    HW211227   9.537   1.322   2.868  0.5680 -0.2940 -0.3804
 2224SOL     OW11228   3.108   5.451   9.232 -0.2411 -0.9112  0.1167
 2224SOL    HW111229   3.106   5.538   9.273  2.3000 -0.7218 -0.0029
 2224SOL    HW211230   3.110   5.468   9.138  1.8476 -0.9506  0.1011
 2225SOL     OW11231  10.146  10.080   6.028  0.6322 -0.5120 -0.0236
 2225SOL    HW111232  10.234  10.049   6.006  0.7298 -0.2363 -0.0294
 2225SOL    HW211233  10.161  10.152   6.089  0.3846 -0.8669  0.4603
 2226SOL     OW11234   8.930   2.748  10.583  0.4823  0.2591 -0.5112
 2226SOL    HW111235   9.012   2.796  10.570  1.4323 -1.4299 -1.0406
 2226SOL    HW211236   8.898   2.777  10.668  0.9254  1.9115 -0.8721
 2227SOL     OW11237   0.256   4.359   0.244 -0.0754 -0.2654 -0.3133
 2227SOL    HW111238   0.227   4.304   0.316  0.5435  0.3554  0.4291
 2227SOL    HW211239   0.280   4.298   0.175 -0.7525 -0.8657 -0.0285
 2228SOL     OW11240  11.013   4.508   8.568  0.3979  0.3864  0.2061
 2228SOL    HW111241  10.927   4.483   8.534 -0.4002  0.5855  1.9198
 2228SOL    HW211242  10.992   4.564   8.644  2.0492  0.5322  0.5847
 2229SOL     OW11243   5.797   9.282   3.658  0.1036 -0.2058 -0.4444
 2229SOL    HW111244   5.840   9.207   3.699  1.2007  0.2079 -0.8068
 2229SOL    HW211245   5.745   9.322   3.728 -0.5816 -1.3517 -0.2785
 2230SOL     OW11246   6.912   9.215   2.176  0.2432  0.0502  0.3325
 2230SOL    HW111247   6.852   9.209   2.251  1.6947  0.0897  1.5582
 2230SOL    HW211248   6.985   9.158   2.199  0.0024 -1.2325 -1.8307
 2231SOL     OW11249  12.085   2.917   4.353  0.1602 -0.4681  0.0228
 2231SOL    HW111250  12.024   2.859   4.398 -1.0947  0.6710 -0.1312
 2231SOL    HW211251  12.050   2.924   4.264  0.4046  0.3406 -0.0203
 2232SOL     OW11252  11.099   0.587  11.375 -0.7419 -0.6585  0.8613
 2232SOL    HW111253  11.029   0.549  11.428 -1.8302 -0.8131 -0.6244
 2232SOL    HW211254  11.064   0.589  11.286  0.1670  1.6415  0.4685
 2233SOL     OW11255   6.525   2.524   9.546  0.3747 -0.2273  0.2031
 2233SOL    HW111256   6.558   2.440   9.579  0.6548 -1.0725 -2.0393
 2233SOL    HW211257   6.431   2.511   9.535  0.8118 -1.3863 -3.0011
 2234SOL     OW11258  10.020   7.423   7.809 -0.4269 -0.2731  0.4851
 2234SOL    HW111259  10.113   7.402   7.799 -0.6314 -0.6962 -0.6404
 2234SOL    HW211260   9.989   7.364   7.878 -0.1817 -1.1760 -0.1576
 2235SOL     OW11261   8.892  10.802   0.171  0.4288  0.4060 -0.3202
 2235SOL    HW111262   8.834  10.862   0.217  0.1208 -0.8118  0.9424
 2235SOL    HW211263   8.846  10.783   0.089 -0.7497 -0.1448  0.4380
 2236SOL     OW11264   3.756   3.206   5.365 -0.0931 -0.4666 -0.3681
 2236SOL    HW111265   3.699   3.129   5.372 -0.1425 -0.3235  1.3970
 2236SOL    HW211266   3.845   3.170   5.365 -0.1394 -0.6278 -1.9437
 2237SOL     OW11267  10.189   5.727   3.653 -0.0071 -0.5353  0.3721
 2237SOL    HW111268  10.099   5.740   3.682 -0.5919 -1.2469 -1.0317
 2237SOL    HW211269  10.233   5.810   3.673 -1.0673 -0.0492  0.7231
 2238SOL     OW11270  11.324  10.973   6.681  0.0018 -0.4440 -0.0096
 2238SOL    HW111271  11.311  10.918   6.758 -0.4477 -1.7419 -0.9855
 2238SOL    HW211272  11.254  10.948   6.621  1.9117 -1.4688 -1.9477
 2239SOL     OW11273   5.615   0.447   9.982  0.1668  0.1192  0.0301
 2239SOL    HW111274   5.574   0.532   9.967  1.3448  0.9633  1.2697
 2239SOL    HW211275   5.567   0.409  10.055 -1.3475 -1.0212 -1.4907
 2240SOL     OW11276   6.335   2.067   6.407 -0.2751  0.6285  0.0168
 2240SOL    HW111277   6.360   2.159   6.405 -1.4473  0.9638  0.2828
 2240SOL    HW211278   6.277   2.060   6.483  1.2155 -0.7029  1.0981
 2241SOL     OW11279   5.733   5.392   7.829  0.6494  0.0704  0.5687
 2241SOL    HW111280   5.788   5.351   7.762 -1.5318 -1.0107 -0.7009
 2241SOL    HW211281   5.687   5.462   7.783  0.0904  0.1797  1.2705
 2242SOL     OW11282   9.575  10.212  11.105 -0.2992 -0.3471  0.2899
 2242SOL    HW111283   9.650  10.195  11.162 -0.8056 -1.0312  0.7671
 2242SOL    HW211284   9.582  10.146  11.036  0.1109  0.2520 -0.2606
 2243SOL     OW11285   7.495   3.757   5.259  0.3069 -0.4710  0.2734
 2243SOL    HW111286   7.435   3.710   5.316 -0.2143  0.4761  0.5243
 2243SOL    HW211287   7.571   3.778   5.314 -0.0862  0.2216  0.5664
 2244SOL     OW11288   1.015   1.246   2.028  0.4203 -0.5394 -0.0014
 2244SOL    HW111289   1.053   1.265   1.943  0.3018  3.3239  0.6381
 2244SOL    HW211290   0.923   1.271   2.021  0.8491  1.9035  1.7004
 2245SOL     OW11291   4.410  11.157   8.266 -0.1758 -0.0440  0.0940
 2245SOL    HW111292   4.488  11.103   8.252 -1.9127 -2.9422  0.7544
 2245SOL    HW211293   4.399  11.158   8.361 -1.5042 -0.5966 -0.0366
 2246SOL     OW11294   8.931   0.839   6.616 -0.1232  0.1758  0.1398
 2246SOL    HW111295   8.859   0.795   6.572  0.4042  0.0542 -0.6092
 2246SOL    HW211296   8.911   0.830   6.710 -1.4849  0.8312 -0.0676
 2247SOL     OW11297  11.439   1.892  10.847 -0.1615 -0.4517  0.0121
 2247SOL    HW111298  11.485   1.881  10.930 -1.1452 -1.0390  0.4980
 2247SOL    HW211299  11.508   1.885  10.781  0.6432  0.0783  0.7702
 2248SOL     OW11300   4.083   3.532   7.307  0.3504  0.0110  0.3753
 2248SOL    HW111301   3.999   3.491   7.324  0.4622 -0.5515 -0.3629
 2248SOL    HW211302   4.145   3.484   7.361  0.5186 -0.9844 -0.6613
 2249SOL     OW11303   3.145  11.385   1.961  0.8182  0.3702  0.2930
 2249SOL    HW111304   3.190  11.324   1.902  0.7960 -0.9271  1.5598
 2249SOL    HW211305   3.053  11.379   1.935  1.1718  2.3821 -1.7325
 2250SOL     OW11306   2.032   0.558  11.938  0.2780 -0.1011  0.0461
 2250SOL    HW111307   1.982   0.564  12.019 -1.5976  1.8886 -1.1331
 2250SOL    HW211308   1.989   0.489  11.888 -2.5076  2.5586 -1.5727
 2251SOL     OW11309   5.594   8.967   4.149  0.2883  0.0720  0.3807
 2251SOL    HW111310   5.677   8.924   4.170  0.5966  1.4043  2.0987
 2251SOL    HW211311   5.620   9.049   4.107 -0.1113  0.6202  1.1679
 2252SOL     OW11312  10.628   3.323   4.062  0.3910  0.2118  0.1189
 2252SOL    HW111313  10.635   3.257   3.993 -1.1489  0.4898 -0.3506
 2252SOL    HW211314  10.630   3.272   4.143  3.0627 -0.0543 -0.0181
 2253SOL     OW11315   4.762   6.509   7.467  0.6103 -0.1637  0.2096
 2253SOL    HW111316   4.696   6.569   7.433 -0.1918 -0.2459  1.5535
 2253SOL    HW211317   4.762   6.436   7.405  1.6683  1.1824 -1.5084
 2254SOL     OW11318   7.670   3.485  11.546 -0.5060 -0.4202  0.2183
 2254SOL    HW111319   7.655   3.556  11.484 -0.2624 -1.4123 -1.0297
 2254SOL    HW211320   7.597   3.490  11.608  0.3128  1.8394  1.0981
 2255SOL     OW11321   6.790   3.773   7.349 -0.3193  0.3124 -0.4166
 2255SOL    HW111322   6.852   3.700   7.355  0.3229  0.9686  2.6755
 2255SOL    HW211323   6.716   3.737   7.300  0.9017 -1.6760 -0.9509
 2256SOL     OW11324   1.417  10.559   7.877 -0.0888 -0.4638 -0.1542
 2256SOL    HW111325   1.485  10.493   7.874 -0.7604 -1.2490  1.1057
 2256SOL    HW211326   1.449  10.629   7.820  0.4956 -1.9772 -1.7670
 2257SOL     OW11327  11.992   6.154   2.312  0.1149 -0.6013  0.1827
 2257SOL    HW111328  11.914   6.181   2.263  0.5654 -0.9592 -0.7520
 2257SOL    HW211329  12.054   6.127   2.245  1.1479 -0.0750  0.9005
 2258SOL     OW11330   5.662   3.307   7.129  0.3255 -0.2594 -0.3050
 2258SOL    HW111331   5.581   3.335   7.172 -0.2440 -0.6288 -1.1219
 2258SOL    HW211332   5.727   3.304   7.200 -0.2082  0.6737  0.2402
 2259SOL     OW11333  11.190  11.569   3.217  0.2615  0.3747 -0.1625
 2259SOL    HW111334  11.233  11.602   3.296  1.5948 -0.6143 -0.4338
 2259SOL    HW211335  11.248  11.499   3.186 -1.3452 -0.7266 -0.8036
 2260SOL     OW11336   4.748  10.022   2.888 -0.0980 -0.0837  0.0137
 2260SOL    HW111337   4.800   9.957   2.934 -0.9441 -0.3185  0.6788
 2260SOL    HW211338   4.659  10.010   2.923  0.4453  5.2120  4.8419
 2261SOL     OW11339  10.677   9.469   3.568 -0.4671 -0.1233  0.4456
 2261SOL    HW111340  10.765   9.487   3.600  0.4010 -0.4569 -1.6525
 2261SOL    HW211341  10.662   9.532   3.498 -2.1176  0.2517  1.0804
 2262SOL     OW11342  10.627   6.550   3.120 -0.5259 -0.1766  0.3120
 2262SOL    HW111343  10.534   6.529   3.117 -0.5094 -0.2312  0.1609
 2262SOL    HW211344  10.670   6.472   3.083 -0.5306  0.5851 -1.3839
 2263SOL     OW11345   8.701   0.998   6.439 -0.9660  0.0821  0.0034
 2263SOL    HW111346   8.796   0.998   6.426 -0.9089  0.9820  0.3428
 2263SOL    HW211347   8.676   0.905   6.437 -0.1713 -0.1301 -0.7156
 2264SOL     OW11348   5.039   1.391   1.367 -0.5293 -0.2162  0.3966
 2264SOL    HW111349   5.081   1.454   1.427 -1.2628 -0.2225  0.9321
 2264SOL    HW211350   4.949   1.386   1.398 -0.4062 -1.7665  0.5450
 2265SOL     OW11351   4.456   7.756   3.623  0.3179  0.6336 -0.5278
 2265SOL    HW111352   4.417   7.842   3.641  0.8829  0.7390  0.2511
 2265SOL    HW211353   4.550   7.774   3.617  0.8016 -0.3021  2.4985
 2266SOL     OW11354   3.302  10.615   3.779 -0.1479  0.1327 -0.4143
 2266SOL    HW111355   3.358  10.681   3.736  1.7276 -0.1562  1.4451
 2266SOL    HW211356   3.348  10.533   3.766  0.6380  0.0693  2.2858
 2267SOL     OW11357   7.679   2.024  11.407 -0.3169  0.1502 -0.1151
 2267SOL    HW111358   7.773   2.039  11.399 -0.0756 -0.4060  1.2829
 2267SOL    HW211359   7.656   2.062  11.492 -1.4519  0.6779 -0.6460
 2268SOL     OW11360   8.570  11.902   9.703 -0.2109  0.0072 -0.4971
 2268SOL    HW111361   8.642  11.885   9.642  0.3811  1.3935 -0.2306
 2268SOL    HW211362   8.564  11.998   9.706 -0.9463 -0.0602  0.7858
 2269SOL     OW11363   3.049   4.796   5.401 -0.3829  0.1014 -0.0869
 2269SOL    HW111364   3.044   4.890   5.389  0.3602  0.0992 -0.4632
 2269SOL    HW211365   3.105   4.785   5.479 -0.2424 -0.0275 -0.2040
 2270SOL     OW11366   1.482  10.014   4.706  0.0073  0.3464  0.4879
 2270SOL    HW111367   1.399  10.054   4.678 -0.6205 -1.5622 -0.6132
 2270SOL    HW211368   1.457   9.925   4.731  1.6785 -0.1077  0.6240
 2271SOL     OW11369   8.302   7.022   4.676  0.5041  0.2689 -0.2729
 2271SOL    HW111370   8.353   6.968   4.617 -0.9153 -1.9467  0.3934
 2271SOL    HW211371   8.333   6.999   4.763 -0.2735  0.3599  0.0355
 2272SOL     OW11372   1.610   8.450   7.706 -0.0354  0.1851 -0.7392
 2272SOL    HW111373   1.587   8.421   7.794  1.3546  0.6335 -0.1945
 2272SOL    HW211374   1.586   8.377   7.649  0.2008 -0.6205  0.1682
 2273SOL     OW11375   6.361   1.660  11.644  0.3124 -0.0047 -0.0894
 2273SOL    HW111376   6.292   1.594  11.634 -1.1792  1.5886 -0.8061
 2273SOL    HW211377   6.336   1.708  11.724  0.2406  0.9522 -0.6730
 2274SOL     OW11378   9.516   9.258  12.017 -0.5006  0.3051 -0.7478
 2274SOL    HW111379   9.605   9.278  12.045  0.5350 -1.2292 -2.6881
 2274SOL    HW211380   9.461   9.288  12.089  1.7535 -1.2466  1.8384
 2275SOL     OW11381   1.733   5.049   6.489  0.1670  0.7451 -0.0656
 2275SOL    HW111382   1.643   5.081   6.496 -0.5545 -1.1308 -0.1161
 2275SOL    HW211383   1.736   5.003   6.406  0.8375 -0.1392  0.4257
 2276SOL     OW11384   3.032   0.807   8.955 -0.1223 -0.1439  0.5908
 2276SOL    HW111385   2.952   0.795   8.904 -0.1118 -2.2693  0.9693
 2276SOL    HW211386   3.006   0.862   9.029 -1.0144 -0.0457  0.2112
 2277SOL     OW11387   5.518   0.914   5.918  0.2384 -0.3166 -0.1925
 2277SOL    HW111388   5.552   0.977   5.981  1.3238 -0.0289 -1.0382
 2277SOL    HW211389   5.480   0.844   5.971  1.2981 -0.1731  0.7787
 2278SOL     OW11390  10.661   6.388   9.452 -0.4922 -0.4181 -0.3076
 2278SOL    HW111391  10.619   6.364   9.369 -1.7407 -4.8718  1.3477
 2278SOL    HW211392  10.753   6.366   9.440 -0.2001  1.0867 -1.1230
 2279SOL     OW11393   5.459   7.555   5.148  0.2128 -0.3149  0.1286
 2279SOL    HW111394   5.538   7.521   5.106 -0.0401 -0.5137 -0.1977
 2279SOL    HW211395   5.392   7.551   5.079  0.3447  1.5877 -0.1585
 2280SOL     OW11396   7.723   0.681   4.012  0.1252  0.3107  0.2025
 2280SOL    HW111397   7.727   0.590   4.041  1.4759  0.1656 -0.3414
 2280SOL    HW211398   7.805   0.694   3.964  0.5675  2.1932  1.3780
 2281SOL     OW11399   6.699   0.975   6.453 -0.6392  0.5961 -0.0675
 2281SOL    HW111400   6.773   0.985   6.514 -1.2492  0.8394  0.6504
 2281SOL    HW211401   6.734   0.921   6.382  0.4684  1.3915 -0.1541
 2282SOL     OW11402  11.651   7.839   9.140  0.0627 -0.1354 -0.0120
 2282SOL    HW111403  11.654   7.926   9.100 -0.0997 -0.4666 -0.7592
 2282SOL    HW211404  11.562   7.809   9.126  0.7134 -1.3915 -1.8980
 2283SOL     OW11405  10.703   4.389   7.304  0.3259  0.0953  0.4214
 2283SOL    HW111406  10.735   4.304   7.273 -0.3247 -0.4206  1.1085
 2283SOL    HW211407  10.614   4.371   7.336  1.1071  0.4389  3.0450
 2284SOL     OW11408   1.781   1.038   6.601 -0.3303 -0.1648 -0.0511
 2284SOL    HW111409   1.689   1.034   6.626  0.2379 -0.0158  2.2620
 2284SOL    HW211410   1.826   0.979   6.662  0.9856 -1.2053 -1.9252
 2285SOL     OW11411   3.548   1.370  11.417  0.1314 -0.5447  0.1231
 2285SOL    HW111412   3.603   1.295  11.441  1.7842  0.4375 -0.3685
 2285SOL    HW211413   3.610   1.434  11.381 -1.3200  0.7736 -0.1482
 2286SOL     OW11414   8.621   2.639   8.576 -0.0119  0.8415  0.8358
 2286SOL    HW111415   8.594   2.576   8.642 -0.9913 -1.8868 -1.9065
 2286SOL    HW211416   8.563   2.714   8.587 -1.0357 -0.1244  2.1615
 2287SOL     OW11417   7.369  11.615   6.767  0.3183  0.6009 -0.6819
 2287SOL    HW111418   7.413  11.698   6.786  0.8450 -0.0987  1.5193
 2287SOL    HW211419   7.440  11.551   6.765 -0.1887  0.0487 -1.3286
 2288SOL     OW11420   0.215   8.605   5.308 -0.1846  0.1864  0.1960
 2288SOL    HW111421   0.159   8.541   5.263  2.3087 -1.4884 -0.7169
 2288SOL    HW211422   0.204   8.685   5.258 -2.8317  0.4063  0.9363
 2289SOL     OW11423   7.029   0.792   8.423 -0.4461  0.1764  0.3731
 2289SOL    HW111424   7.007   0.751   8.339  0.2830 -0.2029  0.3694
 2289SOL    HW211425   7.085   0.866   8.400 -0.6358  0.3638  0.4964
 2290SOL     OW11426   7.564  11.977   0.588 -0.1028  0.1824  0.1953
 2290SOL    HW111427   7.543  12.058   0.540 -0.8785  0.7626  1.4644
 2290SOL    HW211428   7.513  11.984   0.669  1.7976 -0.3807  1.4987
 2291SOL     OW11429   7.680  11.114   3.223  0.2400  0.0205  0.5523
 2291SOL    HW111430   7.598  11.117   3.173  0.6485  1.4580 -0.0789
 2291SOL    HW211431   7.731  11.045   3.181 -0.9491 -1.5129  1.4950
 2292SOL     OW11432   8.334   3.951   3.905  0.6051 -0.6700 -0.0440
 2292SOL    HW111433   8.304   4.029   3.952  0.9328 -0.5559 -0.0215
 2292SOL    HW211434   8.267   3.937   3.838 -0.1537 -1.1431  0.7748
 2293SOL     OW11435   3.870   9.040  11.292 -0.2345  0.0890  0.1867
 2293SOL    HW111436   3.828   8.955  11.280 -0.8178  0.3065  0.6791
 2293SOL    HW211437   3.801   9.104  11.278  0.3691  0.5209 -0.9438
 2294SOL     OW11438   6.671   4.160   2.187  0.0253 -0.3564 -0.6892
 2294SOL    HW111439   6.661   4.122   2.100 -0.6877  0.1080 -0.8244
 2294SOL    HW211440   6.678   4.254   2.172  0.1042 -0.2880 -0.2601
 2295SOL     OW11441   2.274   1.953   0.663 -0.2035 -0.2343 -0.6939
 2295SOL    HW111442   2.369   1.965   0.674 -0.5357  0.9791  1.2742
 2295SOL    HW211443   2.265   1.862   0.635  1.5860 -0.0854 -1.9545
 2296SOL     OW11444   3.220   4.434   0.361 -0.0544  0.4234  0.1074
 2296SOL    HW111445   3.165   4.399   0.431 -0.6098 -0.3476 -0.6852
 2296SOL    HW211446   3.268   4.505   0.401 -1.2302  0.7553  0.9794
 2297SOL     OW11447   2.755   8.610   1.396  0.3659  0.2962 -0.0804
 2297SOL    HW111448   2.793   8.563   1.469 -0.6102  0.4755  0.5587
 2297SOL    HW211449   2.808   8.690   1.389  1.8695 -0.7162 -1.0163
 2298SOL     OW11450   4.863   4.046   1.873  0.0027 -0.2375 -0.2919
 2298SOL    HW111451   4.779   4.080   1.903  0.5140  1.2750 -0.4847
 2298SOL    HW211452   4.908   4.020   1.954 -0.8163 -1.5062 -0.2265
 2299SOL     OW11453   3.084   5.698   7.430 -0.1778  0.5868  0.0359
 2299SOL    HW111454   2.998   5.723   7.463 -0.3781 -0.6215  0.4802
 2299SOL    HW211455   3.138   5.686   7.508  0.3899  1.2589 -0.2353
 2300SOL     OW11456  11.161   6.915   5.242  0.1268 -0.4037  0.0696
 2300SOL    HW111457  11.214   6.963   5.178 -1.0108 -0.5028 -0.9713
 2300SOL    HW211458  11.139   6.833   5.198 -1.1935 -0.2060  0.3321
 2301SOL     OW11459   5.295   8.878   9.903  0.4069 -0.2389 -0.5302
 2301SOL    HW111460   5.341   8.946   9.951 -1.8280  0.9286  0.1093
 2301SOL    HW211461   5.354   8.853   9.832  1.9172  1.2370  0.1702
 2302SOL     OW11462   6.017   2.804   6.356 -0.3404  0.1528  0.7534
 2302SOL    HW111463   6.004   2.825   6.263  0.5664 -2.6440 -0.1042
 2302SOL    HW211464   5.951   2.738   6.375  0.9110 -0.9356  1.4350
 2303SOL     OW11465   2.928   3.068   7.512  0.0065 -0.1890  0.0594
 2303SOL    HW111466   3.023   3.075   7.527 -0.1110  0.2981  0.6135
 2303SOL    HW211467   2.917   2.984   7.467  0.9067  0.6249 -1.7544
 2304SOL     OW11468   7.096   9.133   4.675  0.3700 -0.1031 -0.0929
 2304SOL    HW111469   7.036   9.086   4.617  0.3431 -0.0621 -0.0990
 2304SOL    HW211470   7.062   9.120   4.763  1.0440 -1.1128  0.0328
 2305SOL     OW11471   0.063   4.315  11.753 -0.2956 -0.7594  0.0002
 2305SOL    HW111472   0.013   4.371  11.694 -0.6062  0.6630  1.5408
 2305SOL    HW211473   0.051   4.227  11.718 -0.2522  0.0475 -2.1815
 2306SOL     OW11474   1.104   7.087   7.349 -0.1596  0.3262  0.4017
 2306SOL    HW111475   1.111   7.131   7.434  0.9049 -1.1670  1.1271
 2306SOL    HW211476   1.017   7.048   7.349 -0.2226  0.4641  0.7288
 2307SOL     OW11477  11.243   8.555   4.519  0.0121  0.1242  0.0641
 2307SOL    HW111478  11.233   8.571   4.613  0.3991 -0.5749  0.2335
 2307SOL    HW211479  11.331   8.584   4.499 -0.6841  2.0243 -0.4921
 2308SOL     OW11480   3.069   0.396   2.261  0.0101  0.2225 -0.0209
 2308SOL    HW111481   3.058   0.350   2.344 -1.3092  0.1639 -0.1930
 2308SOL    HW211482   3.054   0.329   2.195 -1.3673  0.7308 -0.2729
 2309SOL     OW11483   1.565   7.900   2.758 -0.3412  0.3706 -0.0945
 2309SOL    HW111484   1.497   7.885   2.823  1.1503 -0.9172  1.2839
 2309SOL    HW211485   1.603   7.813   2.742  0.3244  0.8967 -1.5582
 2310SOL     OW11486   8.799   5.579   8.322  0.3785  0.2988 -0.5469
 2310SOL    HW111487   8.875   5.601   8.375 -0.3119  0.9682  0.1902
 2310SOL    HW211488   8.726   5.577   8.384 -0.2703  0.0466 -1.2986
 2311SOL     OW11489   0.534  11.611   4.467 -0.3793  0.1806 -0.2299
 2311SOL    HW111490   0.621  11.601   4.506 -0.0826 -1.5665 -1.2182
 2311SOL    HW211491   0.548  11.666   4.390 -0.0477 -0.4598 -0.6365
 2312SOL     OW11492   2.174   7.153   8.798  0.4109 -0.5061  0.4864
 2312SOL    HW111493   2.233   7.183   8.728 -0.2854 -0.8273 -0.2434
 2312SOL    HW211494   2.189   7.216   8.869  0.9417 -0.0250 -0.0354
 2313SOL     OW11495   9.483   3.674   6.363  0.3592  0.2903 -0.0075
 2313SOL    HW111496   9.405   3.622   6.382 -0.7390  1.8940  0.0393
 2313SOL    HW211497   9.539   3.662   6.440 -0.2845 -0.0791  0.4136
 2314SOL     OW11498   5.934  10.061  10.551 -0.0121  0.3179 -0.2386
 2314SOL    HW111499   5.863  10.030  10.607 -0.2293 -0.2047 -0.7959
 2314SOL    HW211500   5.890  10.100  10.476  0.2852  0.6632 -0.2372
 2315SOL     OW11501  11.755  10.656   0.514 -0.1827  0.5036  0.0840
 2315SOL    HW111502  11.668  10.620   0.532  0.2986 -0.9453 -0.3634
 2315SOL    HW211503  11.749  10.747   0.542 -1.4999  0.1345  1.1385
 2316SOL     OW11504   7.645  11.304   6.514  0.7106 -0.7932 -0.2488
 2316SOL    HW111505   7.645  11.218   6.471  1.9751 -0.1480 -1.6074
 2316SOL    HW211506   7.737  11.327   6.521  0.3808  0.4942  0.0359
 2317SOL     OW11507   8.328  12.072   6.871 -0.5290 -0.5698 -0.8462
 2317SOL    HW111508   8.408  12.054   6.920 -0.2451 -1.0747 -1.4755
 2317SOL    HW211509   8.338  12.163   6.842 -0.6853 -0.2767 -0.0198
 2318SOL     OW11510   6.773   8.573   0.057  0.4157 -0.2913 -0.6241
 2318SOL    HW111511   6.748   8.653   0.103 -0.4438 -1.2577  0.6786
 2318SOL    HW211512   6.810   8.517   0.125 -0.2615 -1.5090 -1.2262
 2319SOL     OW11513  11.117   6.781   6.628  0.3524  0.3888  0.4571
 2319SOL    HW111514  11.163   6.814   6.551  1.0327  0.2549  0.7942
 2319SOL    HW211515  11.187   6.754   6.688 -0.1430 -2.2085 -0.0042
 2320SOL     OW11516   6.845   5.224   3.205  0.0834 -0.7400 -0.3308
 2320SOL    HW111517   6.870   5.314   3.187  0.3457 -0.4999  1.1313
 2320SOL    HW211518   6.911   5.171   3.159  0.4527 -0.1688 -0.4631
 2321SOL     OW11519   9.064   7.730   5.249  0.0923 -0.3949  0.3138
 2321SOL    HW111520   9.034   7.804   5.302 -0.9307  0.4140 -1.2981
 2321SOL    HW211521   9.159   7.742   5.244  0.0670  0.1682  1.0090
 2322SOL     OW11522   8.634   8.292  11.314 -0.0504  0.0839  0.4063
 2322SOL    HW111523   8.542   8.288  11.287  0.7462 -0.4987 -2.7265
 2322SOL    HW211524   8.658   8.200  11.331  0.1638  0.1171  0.2944
 2323SOL     OW11525   8.271   9.020  11.035 -0.6968 -0.1463 -0.0318
 2323SOL    HW111526   8.288   9.055  10.948  1.1333 -0.4248  0.1804
 2323SOL    HW211527   8.196   8.961  11.023 -0.1901 -0.5215 -1.4980
 2324SOL     OW11528   6.747   8.119   1.359 -0.0314 -0.0862 -0.0085
 2324SOL    HW111529   6.676   8.180   1.338 -0.8407 -0.6824  0.8987
 2324SOL    HW211530   6.722   8.083   1.445 -0.5946 -3.1208 -1.3313
 2325SOL     OW11531   0.161   2.810   2.719 -0.1897  0.0775  0.2720
 2325SOL    HW111532   0.161   2.901   2.689  0.3588  0.0196  0.0983
 2325SOL    HW211533   0.073   2.778   2.698  0.3932 -0.1889 -1.9523
 2326SOL     OW11534  10.193   7.281   5.796  0.5467 -0.6489  0.0431
 2326SOL    HW111535  10.281   7.248   5.781  0.5485 -1.8642  2.3597
 2326SOL    HW211536  10.173   7.259   5.887 -1.5719  0.9692  0.0619
 2327SOL     OW11537   6.614   6.709   3.284  0.5947 -0.1407 -0.5207
 2327SOL    HW111538   6.634   6.734   3.374 -1.8349 -3.8102  1.3191
 2327SOL    HW211539   6.519   6.723   3.276  0.6691 -0.3979 -2.3054
 2328SOL     OW11540   1.439   0.155   9.089  0.0694  0.3709 -0.1482
 2328SOL    HW111541   1.353   0.162   9.131  0.8339  1.5061  1.3477
 2328SOL    HW211542   1.500   0.149   9.162  1.4667  2.3486 -1.0640
 2329SOL     OW11543   8.149   1.798   7.252 -0.2148 -0.3086  0.2240
 2329SOL    HW111544   8.220   1.772   7.193 -1.2621 -1.2081 -0.6790
 2329SOL    HW211545   8.138   1.723   7.310 -0.2093 -0.0264  0.5957
 2330SOL     OW11546  10.865  10.817  12.053 -0.3699  0.2177 -0.0549
 2330SOL    HW111547  10.911  10.877  11.995  1.0377 -1.0800 -0.3437
 2330SOL    HW211548  10.889  10.844  12.141 -0.9200  0.9566 -0.1183
 2331SOL     OW11549   6.145   6.223   9.826  0.1249  0.6883  0.0471
 2331SOL    HW111550   6.184   6.160   9.885 -1.6849  1.4805  2.2592
 2331SOL    HW211551   6.213   6.289   9.811  0.7026  0.3360  1.0782
 2332SOL     OW11552   4.982   2.015   4.250  0.3790  0.5459  0.4355
 2332SOL    HW111553   4.959   2.086   4.311  0.6364  0.1997  0.9424
 2332SOL    HW211554   5.021   2.060   4.175  0.5657  0.9433  0.7628
 2333SOL     OW11555   3.105   9.642   6.230 -0.2307 -0.3748 -0.5418
 2333SOL    HW111556   3.093   9.732   6.261  0.8610 -0.2947 -0.2915
 2333SOL    HW211557   3.199   9.626   6.241  0.2562 -0.3543 -3.7518
 2334SOL     OW11558   6.422   6.412  10.983  0.0040 -0.4324 -0.1033
 2334SOL    HW111559   6.506   6.442  11.017 -0.1844 -0.0003 -0.0021
 2334SOL    HW211560   6.386   6.357  11.053 -0.4572  0.5882  0.4873
 2335SOL     OW11561   1.599  11.524   0.182  0.3914 -0.1481  0.1770
 2335SOL    HW111562   1.644  11.566   0.255  0.5767 -1.5063  0.8768
 2335SOL    HW211563   1.638  11.563   0.104  0.9988  0.5001  0.7913
 2336SOL     OW11564  10.566  10.810  11.455 -0.4336 -0.6572 -0.4264
 2336SOL    HW111565  10.489  10.864  11.472  0.4432  0.6553 -0.5221
 2336SOL    HW211566  10.596  10.784  11.542  3.0005  4.5938  0.4086
 2337SOL     OW11567   8.849   2.016   2.740  0.2465  0.6426 -0.2663
 2337SOL    HW111568   8.924   2.039   2.685 -0.8605  0.3365 -1.9535
 2337SOL    HW211569   8.788   2.089   2.731 -1.1479 -0.6191 -1.7430
 2338SOL     OW11570   5.397  11.150   0.965  0.0575  0.1490  0.0086
 2338SOL    HW111571   5.336  11.223   0.979  0.6880  0.3558  1.9941
 2338SOL    HW211572   5.376  11.118   0.877 -1.4220  1.5925 -0.2211
 2339SOL     OW11573   2.026  10.807   6.467  0.0218 -0.0269  0.1405
 2339SOL    HW111574   1.955  10.796   6.404  0.2697  1.2952 -0.3988
 2339SOL    HW211575   2.096  10.751   6.433  0.0531  0.4603 -0.6199
 2340SOL     OW11576   0.235  10.707   1.751  0.1050 -0.0614 -0.6204
 2340SOL    HW111577   0.175  10.659   1.694  0.0028  0.2397 -0.7661
 2340SOL    HW211578   0.180  10.770   1.797  0.1111 -0.6108  0.1570
 2341SOL     OW11579   9.463   3.629   9.931  0.5811  0.0507  0.1271
 2341SOL    HW111580   9.481   3.687   9.857  2.4731  0.4919  0.8777
 2341SOL    HW211581   9.424   3.686   9.997  0.8616  0.1061  0.2452
 2342SOL     OW11582   8.979   7.548  10.709  0.3398  0.0663  0.7451
 2342SOL    HW111583   9.051   7.610  10.717 -0.6030  1.5369 -1.3635
 2342SOL    HW211584   9.005   7.491  10.637 -0.9653  1.2524 -0.7376
 2343SOL     OW11585  11.424   0.776   9.052 -0.0442 -0.4415  0.5003
 2343SOL    HW111586  11.373   0.800   8.974 -0.3094  1.0425  1.0916
 2343SOL    HW211587  11.451   0.686   9.036  0.0697 -0.1111 -1.3905
 2344SOL     OW11588   5.050  11.273   5.863 -0.3370  0.4004 -0.4836
 2344SOL    HW111589   4.987  11.299   5.931  1.6983  0.4764  1.4722
 2344SOL    HW211590   5.065  11.354   5.813 -0.2643  0.9075  0.3375
 2345SOL     OW11591   2.468   7.370   9.077  0.3325 -0.4114  0.8224
 2345SOL    HW111592   2.513   7.285   9.079  1.8112  0.3192  2.7672
 2345SOL    HW211593   2.539   7.434   9.084 -0.7279  1.0457 -0.9491
 2346SOL     OW11594   9.818  10.528   6.761  0.0275  0.5115  0.3658
 2346SOL    HW111595   9.736  10.554   6.720  0.2538  0.0458 -0.4144
 2346SOL    HW211596   9.847  10.605   6.809 -2.0289 -0.0034  2.6085
 2347SOL     OW11597   9.830   7.846   1.866  0.3297  0.0205  0.1609
 2347SOL    HW111598   9.835   7.775   1.930 -1.0269 -0.0563  0.2156
 2347SOL    HW211599   9.888   7.818   1.795 -0.5500 -1.3996 -0.0394
 2348SOL     OW11600  11.421   4.500   0.146 -0.1323 -0.3926 -0.4804
 2348SOL    HW111601  11.492   4.504   0.210  0.9189 -0.3101 -1.6068
 2348SOL    HW211602  11.343   4.479   0.197  0.7583 -0.8067  0.7486
 2349SOL     OW11603   0.663   6.603   9.201  0.5953 -0.2388 -0.0985
 2349SOL    HW111604   0.676   6.698   9.195  0.2385 -0.2517 -1.4516
 2349SOL    HW211605   0.748   6.566   9.177  0.7030 -0.2733  0.3226
 2350SOL     OW11606   9.704   4.997   0.121  0.0842 -0.1201  0.2100
 2350SOL    HW111607   9.663   4.931   0.177 -0.1584  0.5293  0.8304
 2350SOL    HW211608   9.779   4.953   0.082  0.2433 -0.6042  1.0330
 2351SOL     OW11609   5.748  12.049   2.554  0.0728  0.4383 -0.2007
 2351SOL    HW111610   5.737  12.043   2.459 -1.3396 -1.7484  0.0119
 2351SOL    HW211611   5.692  12.122   2.580  0.2579  0.8791 -1.0225
 2352SOL     OW11612   4.118   3.666   6.669 -0.1690  0.3154  0.0670
 2352SOL    HW111613   4.133   3.578   6.704 -0.2068  0.1794 -0.2551
 2352SOL    HW211614   4.047   3.655   6.606 -0.3991  0.6384  0.2676
 2353SOL     OW11615   3.659   0.171  10.843 -0.5591  0.9075  0.2022
 2353SOL    HW111616   3.564   0.178  10.853 -0.3740  0.8909  2.2859
 2353SOL    HW211617   3.670   0.130  10.757 -2.5444 -1.4901  0.9516
 2354SOL     OW11618  11.810   2.871   2.745 -0.0006  0.1705 -0.3173
 2354SOL    HW111619  11.818   2.956   2.788 -1.6304 -1.0313  2.5719
 2354SOL    HW211620  11.716   2.854   2.740  0.2673 -1.2537 -1.3439
 2355SOL     OW11621   5.490   0.642   0.966  0.7036  0.5539 -0.4772
 2355SOL    HW111622   5.575   0.637   1.009 -0.0218  0.1946  0.9750
 2355SOL    HW211623   5.454   0.554   0.974 -0.7825  1.2481  1.0403
 2356SOL     OW11624   9.616   5.027  11.647  0.0086  0.1050 -0.1550
 2356SOL    HW111625   9.700   4.983  11.659 -0.1920  0.0261  1.1230
 2356SOL    HW211626   9.553   4.968  11.687 -0.5398  0.5871 -0.3039
 2357SOL     OW11627   0.157   8.122  11.866  0.5159 -0.8652  0.0245
 2357SOL    HW111628   0.117   8.197  11.822  0.4831 -1.5247 -1.1006
 2357SOL    HW211629   0.213   8.082  11.799  0.8086 -1.6385  0.7184
 2358SOL     OW11630   9.995   2.479   3.833 -0.0558 -0.3012 -0.0244
 2358SOL    HW111631  10.032   2.468   3.921 -0.3739  1.6720  0.3829
 2358SOL    HW211632  10.002   2.572   3.815  0.1512 -0.6762 -2.1903
 2359SOL     OW11633   8.261   5.023   4.855 -0.3090 -0.5789  0.2020
 2359SOL    HW111634   8.268   4.929   4.873 -1.2885 -1.0083 -1.4168
 2359SOL    HW211635   8.180   5.050   4.899 -0.6361 -0.7672 -0.2693
 2360SOL     OW11636   1.205   6.513  10.424  0.1186 -0.5995 -0.0086
 2360SOL    HW111637   1.183   6.459  10.348  0.4589  0.5571 -0.9421
 2360SOL    HW211638   1.289   6.553  10.402  0.4378 -0.5882  1.1656
 2361SOL     OW11639   4.897   7.256   5.534  0.5510  0.3147 -0.1333
 2361SOL    HW111640   4.871   7.211   5.453  0.3998 -0.4408  0.3253
 2361SOL    HW211641   4.978   7.213   5.561  1.1867  1.2820 -0.4423
 2362SOL     OW11642   7.750   2.806  10.942  0.2052  0.1434  0.3643
 2362SOL    HW111643   7.839   2.837  10.925  0.7204 -1.4442 -0.0395
 2362SOL    HW211644   7.694   2.864  10.891  1.1224  0.2991 -0.4939
 2363SOL     OW11645   5.105  10.496   2.258  0.5020 -0.3453  0.4891
 2363SOL    HW111646   5.052  10.545   2.196  0.8022 -0.9022 -0.2117
 2363SOL    HW211647   5.193  10.533   2.249  0.9711 -1.7191 -0.8306
 2364SOL     OW11648   5.971   0.706   3.189 -0.8051 -0.3280  0.3880
 2364SOL    HW111649   5.938   0.621   3.218 -0.2131  0.0620  2.3438
 2364SOL    HW211650   5.914   0.770   3.232 -1.6193  0.3215 -1.5214
 2365SOL     OW11651   0.629   8.822   5.701  0.2188 -0.2960  0.3933
 2365SOL    HW111652   0.557   8.835   5.639 -0.7308  1.7383  1.8260
 2365SOL    HW211653   0.587   8.783   5.778  0.4080  1.6430  1.5557
 2366SOL     OW11654   6.212   6.490   6.385  0.0512 -0.0285  0.2105
 2366SOL    HW111655   6.295   6.538   6.386  0.1807 -0.1276 -1.9340
 2366SOL    HW211656   6.215   6.437   6.465  1.9016  0.2090  0.3614
 2367SOL     OW11657   5.291   9.294   4.137 -0.3282 -0.1449 -0.4376
 2367SOL    HW111658   5.239   9.374   4.137 -0.1509 -0.0238  0.3363
 2367SOL    HW211659   5.246   9.235   4.197 -0.8265 -0.8861 -1.4945
 2368SOL     OW11660   4.396   2.518   3.587 -0.5610  0.3873  0.3369
 2368SOL    HW111661   4.470   2.458   3.597 -1.1998 -0.5726 -0.4912
 2368SOL    HW211662   4.411   2.560   3.501  0.5141  2.3612  1.4079
 2369SOL     OW11663   7.158  11.745   5.733  0.0967 -0.0645 -0.2137
 2369SOL    HW111664   7.099  11.813   5.701  1.1926  0.5466 -1.0506
 2369SOL    HW211665   7.121  11.663   5.700  0.1276  0.3815 -1.4328
 2370SOL     OW11666   7.693   8.073   0.276  0.1070  0.1182  0.0331
 2370SOL    HW111667   7.685   7.978   0.289 -1.9464  0.1656 -0.4037
 2370SOL    HW211668   7.689   8.110   0.364 -0.8856 -0.1519  0.1205
 2371SOL     OW11669   2.258   1.258   7.282 -0.2320 -0.1597 -0.6923
 2371SOL    HW111670   2.325   1.193   7.306 -0.0929  0.6966  1.4370
 2371SOL    HW211671   2.303   1.318   7.224  1.4771  1.3401  1.9509
 2372SOL     OW11672   3.326   2.566   6.716 -0.0141  0.1412 -0.2940
 2372SOL    HW111673   3.420   2.585   6.706 -0.4783  2.2763 -1.3659
 2372SOL    HW211674   3.316   2.541   6.807  1.8414 -1.9296 -0.5678
 2373SOL     OW11675   0.398   6.181  10.294 -0.3111  0.2113 -0.3086
 2373SOL    HW111676   0.401   6.189  10.389 -0.4031  1.6251 -0.3954
 2373SOL    HW211677   0.304   6.177  10.273 -0.3016  0.2781 -0.3645
 2374SOL     OW11678   9.053   1.834   7.377 -0.1513 -0.4159  0.1082
 2374SOL    HW111679   9.071   1.796   7.291 -1.4420  0.9236 -0.7982
 2374SOL    HW211680   9.055   1.928   7.362 -1.0422 -0.1716  1.4072
 2375SOL     OW11681   2.135   1.595   2.854  0.5356  0.0385  0.3467
 2375SOL    HW111682   2.177   1.614   2.937 -0.1775 -0.9951  0.9698
 2375SOL    HW211683   2.206   1.594   2.790  1.2586 -0.3345  1.1442
 2376SOL     OW11684   9.488   1.387   7.647  0.5346 -1.0262 -0.3306
 2376SOL    HW111685   9.491   1.477   7.613  1.1848 -1.1927 -0.7323
 2376SOL    HW211686   9.567   1.378   7.699 -1.2676 -0.2113  2.7980
 2377SOL     OW11687   8.011   9.991   9.641  0.4572 -0.0693 -0.6424
 2377SOL    HW111688   8.071   9.917   9.654  0.5834  0.0464 -0.5602
 2377SOL    HW211689   8.069  10.067   9.633  0.3112  0.0772 -0.3224
 2378SOL     OW11690  10.192  11.807   1.823 -0.2364 -0.5099  0.2812
 2378SOL    HW111691  10.099  11.789   1.809  0.0810 -2.1138  0.0698
 2378SOL    HW211692  10.210  11.881   1.765 -0.9714 -1.4124 -1.1825
 2379SOL     OW11693   4.273   4.048   3.546  0.0693  0.1376  0.0523
 2379SOL    HW111694   4.361   4.081   3.524  0.1378 -0.3311 -0.4080
 2379SOL    HW211695   4.226   4.049   3.462 -1.0185  2.2620  0.6235
 2380SOL     OW11696   2.443  11.636  12.077 -0.3392 -0.2217 -0.9384
 2380SOL    HW111697   2.498  11.557  12.082 -0.6791 -0.4307 -0.3874
 2380SOL    HW211698   2.498  11.705  12.115 -0.3687 -0.3853 -0.5888
 2381SOL     OW11699  11.334   5.490   8.700  1.3408  0.1721  0.4096
 2381SOL    HW111700  11.419   5.518   8.735  1.6880  0.7845 -0.8686
 2381SOL    HW211701  11.356   5.421   8.637  1.0249  1.2271 -0.8851
 2382SOL     OW11702   8.318   6.124   6.119  0.3671  0.0504 -0.3973
 2382SOL    HW111703   8.299   6.031   6.104  1.4208 -0.3994  0.8430
 2382SOL    HW211704   8.299   6.138   6.212  1.1749  0.8068 -0.3299
 2383SOL     OW11705   5.174   6.888   1.395 -0.2404 -0.1747 -0.6023
 2383SOL    HW111706   5.231   6.905   1.469 -1.5594 -0.2814  0.4769
 2383SOL    HW211707   5.086   6.908   1.427 -1.1325 -2.5883 -1.3097
 2384SOL     OW11708   8.376  11.440   8.783  0.2832  0.1440  0.1547
 2384SOL    HW111709   8.449  11.383   8.805 -0.1705 -1.0012 -1.1702
 2384SOL    HW211710   8.330  11.453   8.866  0.9999 -0.5464  0.6714
 2385SOL     OW11711   5.446   9.539   7.124 -0.0257 -0.9935  0.0586
 2385SOL    HW111712   5.382   9.540   7.052 -0.0861 -2.4459  0.0597
 2385SOL    HW211713   5.528   9.513   7.082  0.6709  1.0946  0.0152
 2386SOL     OW11714   3.642   1.857   7.498 -0.8839 -0.7080 -0.1448
 2386SOL    HW111715   3.616   1.805   7.421 -0.0869 -2.8825  0.9561
 2386SOL    HW211716   3.585   1.826   7.568 -0.7007  0.2774  0.4554
 2387SOL     OW11717   2.682   6.237   4.274 -0.2253 -0.5876  0.1502
 2387SOL    HW111718   2.625   6.242   4.197 -0.2853 -1.1829  0.1547
 2387SOL    HW211719   2.672   6.147   4.305  1.0259 -0.8233 -0.0825
 2388SOL     OW11720   8.125   7.880  11.363  0.0443 -0.4267 -0.0412
 2388SOL    HW111721   8.079   7.950  11.410  0.1250 -1.1958  1.2392
 2388SOL    HW211722   8.167   7.924  11.289 -0.8420  0.6769  0.0849
 2389SOL     OW11723   7.819   8.822  11.763 -0.2233  0.0794  0.8737
 2389SOL    HW111724   7.797   8.838  11.854  1.9527  1.7085  1.1800
 2389SOL    HW211725   7.787   8.900  11.716  2.0272  1.0803  0.8917
 2390SOL     OW11726   6.407   1.614   4.449  0.5690  0.3925  0.6964
 2390SOL    HW111727   6.365   1.697   4.470  0.8141  0.5474  0.5816
 2390SOL    HW211728   6.359   1.549   4.500 -0.0343  0.5138  0.2858
 2391SOL     OW11729   4.558   5.806   9.452 -0.6110  0.1654 -0.0873
 2391SOL    HW111730   4.646   5.840   9.468 -0.1260 -1.1465  0.1518
 2391SOL    HW211731   4.530   5.771   9.537  0.3964 -3.2890 -1.0270
 2392SOL     OW11732   8.572   4.921  11.214  0.0445 -0.5222  0.3949
 2392SOL    HW111733   8.502   4.975  11.249 -0.7748 -0.5926 -1.0678
 2392SOL    HW211734   8.651   4.953  11.258 -0.6295  0.8452  0.6557
 2393SOL     OW11735   8.811   1.486   6.048 -0.0273 -0.5813 -0.3240
 2393SOL    HW111736   8.882   1.544   6.075 -1.3909  1.1418 -0.2141
 2393SOL    HW211737   8.815   1.412   6.109  0.5835  0.3602  0.8100
 2394SOL     OW11738   9.941   2.573   4.533  0.0591  0.7617  0.7188
 2394SOL    HW111739   9.975   2.570   4.623  1.7419  0.6964  0.1272
 2394SOL    HW211740   9.853   2.607   4.541 -0.2671 -0.3815  2.5183
 2395SOL     OW11741   3.095  10.550   9.565  0.2672 -0.2311  0.2610
 2395SOL    HW111742   3.004  10.546   9.533  0.4956  2.2505 -0.9307
 2395SOL    HW211743   3.103  10.473   9.622 -2.6863 -0.3457  0.7043
 2396SOL     OW11744  11.774   0.511   4.882 -0.0737  0.0503  0.2128
 2396SOL    HW111745  11.820   0.512   4.965  1.8165  1.3344 -0.7710
 2396SOL    HW211746  11.703   0.448   4.894  0.7302 -0.5140  2.4446
 2397SOL     OW11747   6.033   4.433  11.721  0.1171  0.3090  0.2284
 2397SOL    HW111748   5.941   4.457  11.720  0.1835  0.5519 -0.2859
 2397SOL    HW211749   6.045   4.389  11.805 -0.8460 -1.1938 -0.3750
 2398SOL     OW11750   7.181  10.302   7.424  0.0752  0.0611  0.2403
 2398SOL    HW111751   7.157  10.221   7.469  0.2187  0.5929  1.3061
 2398SOL    HW211752   7.172  10.282   7.331 -0.1294 -1.0997  0.5021
 2399SOL     OW11753   8.338   0.881   7.024 -0.4054  0.3377 -0.3925
 2399SOL    HW111754   8.355   0.922   7.109  0.9187  1.2448 -1.0480
 2399SOL    HW211755   8.246   0.855   7.027 -0.2593 -0.0913  1.4907
 2400SOL     OW11756   4.647  10.615   6.543  0.7910  0.2175 -0.0569
 2400SOL    HW111757   4.569  10.586   6.592 -0.0550  0.6098 -1.1323
 2400SOL    HW211758   4.667  10.541   6.486 -0.5854  1.1645 -1.8712
 2401SOL     OW11759   5.791   0.604   3.582 -0.1605 -0.2067 -0.1060
 2401SOL    HW111760   5.723   0.581   3.519  1.5571 -0.1761 -2.0643
 2401SOL    HW211761   5.800   0.699   3.574  0.3830 -0.2593 -0.1546
 2402SOL     OW11762   5.844   1.063   9.375  0.0421  0.5976 -0.1320
 2402SOL    HW111763   5.923   1.112   9.398 -0.6212  1.7282 -0.2434
 2402SOL    HW211764   5.774   1.104   9.425 -0.2767 -1.3335  1.1386
 2403SOL     OW11765   0.567   4.344   9.747  0.1283 -0.2482  0.0629
 2403SOL    HW111766   0.503   4.280   9.715  0.3162 -1.1450  1.4078
 2403SOL    HW211767   0.515   4.418   9.777 -0.0922  0.2962 -1.5426
 2404SOL     OW11768  11.708  10.871   9.667 -0.2886 -0.2650  0.4040
 2404SOL    HW111769  11.629  10.888   9.615 -0.5810 -0.8923  0.6181
 2404SOL    HW211770  11.711  10.775   9.674 -0.6470 -0.1910  2.1041
 2405SOL     OW11771   9.305   7.516   9.235  0.1154 -0.4697 -0.4575
 2405SOL    HW111772   9.355   7.491   9.313 -1.4444  0.5967  0.9456
 2405SOL    HW211773   9.235   7.451   9.229 -0.3806  0.0452 -0.3494
 2406SOL     OW11774  11.723   0.685   4.670  0.2498 -0.6891 -0.1664
 2406SOL    HW111775  11.761   0.621   4.731  0.2816 -0.0497  0.4859
 2406SOL    HW211776  11.798   0.735   4.638  0.0600  0.0437  0.5108
 2407SOL     OW11777   0.690   6.464   3.183  0.4522  0.4064 -0.0646
 2407SOL    HW111778   0.758   6.515   3.227  0.4353  1.3000 -1.0530
 2407SOL    HW211779   0.608   6.495   3.223  0.5604 -0.2076  0.6630
 2408SOL     OW11780   2.527   3.685   5.114  0.2568 -0.1240 -0.0081
 2408SOL    HW111781   2.608   3.734   5.128 -0.1721  0.2064  1.5447
 2408SOL    HW211782   2.553   3.610   5.061  1.5322  0.1072  0.2522
 2409SOL     OW11783   9.682   2.697   6.624  0.2262 -0.5784  0.0757
 2409SOL    HW111784   9.605   2.753   6.620  0.0281 -0.7911  0.8121
 2409SOL    HW211785   9.679   2.646   6.542  0.0351 -0.0074 -0.2743
 2410SOL     OW11786   8.115   8.647   4.329 -0.0032 -0.3092  0.1134
 2410SOL    HW111787   8.154   8.711   4.269  0.7682  0.1704  1.0935
 2410SOL    HW211788   8.071   8.701   4.395  1.3714 -0.7197  1.4295
 2411SOL     OW11789   2.496   9.007  11.201  0.2643  0.2909 -0.1782
 2411SOL    HW111790   2.536   8.985  11.117 -1.7831  2.3924 -1.8673
 2411SOL    HW211791   2.420   8.950  11.208  1.3713 -1.1169  1.2124
 2412SOL     OW11792   4.537   3.838   0.875 -0.0362  0.1435 -0.8527
 2412SOL    HW111793   4.515   3.911   0.933 -0.7645 -0.7861  0.0908
 2412SOL    HW211794   4.588   3.778   0.930 -0.4303 -0.5932 -1.2763
 2413SOL     OW11795   8.259   4.274   1.263 -0.0523  0.0230  0.4961
 2413SOL    HW111796   8.197   4.277   1.336 -0.8521  1.5807 -0.1940
 2413SOL    HW211797   8.345   4.285   1.303 -0.4795  0.8389  1.2196
 2414SOL     OW11798   9.358   7.096   5.630  0.4393 -0.3065  0.0545
 2414SOL    HW111799   9.277   7.087   5.580 -1.3407 -0.0015  2.6780
 2414SOL    HW211800   9.411   7.158   5.579 -1.7163  0.8662 -0.9031
 2415SOL     OW11801   9.713  10.683   8.832  0.4130 -0.0774  0.4388
 2415SOL    HW111802   9.669  10.606   8.794 -0.3303  1.9473 -3.3035
 2415SOL    HW211803   9.790  10.696   8.778 -0.9594  3.3010 -0.9945
 2416SOL     OW11804   7.622   2.156   1.916 -0.2090  0.3262 -0.1988
 2416SOL    HW111805   7.626   2.201   2.000  1.4715 -0.4370  0.1903
 2416SOL    HW211806   7.605   2.064   1.939 -0.8251  0.2888 -0.7785
 2417SOL     OW11807   1.486   7.468   8.166 -0.2064 -0.1539 -0.4771
 2417SOL    HW111808   1.555   7.420   8.211 -0.1819 -0.4003 -0.7778
 2417SOL    HW211809   1.505   7.458   8.073 -0.2498  0.3672 -0.5471
 2418SOL     OW11810   6.747  11.734   5.758 -0.5133 -0.5210 -0.2096
 2418SOL    HW111811   6.748  11.828   5.742  1.4540 -0.3383  0.6789
 2418SOL    HW211812   6.768  11.695   5.673 -0.2633 -0.1078 -0.3359
 2419SOL     OW11813   2.576  11.889   8.216  0.1853 -0.4870 -0.3008
 2419SOL    HW111814   2.482  11.909   8.208  0.4954  1.3199  0.2727
 2419SOL    HW211815   2.579  11.817   8.279 -0.7463  0.1909  0.5479
 2420SOL     OW11816   2.159   1.155   6.456  0.2597 -0.1143 -0.2113
 2420SOL    HW111817   2.150   1.060   6.461 -1.8123  0.0655  0.4510
 2420SOL    HW211818   2.226   1.176   6.521 -0.1972 -1.0185  0.5735
 2421SOL     OW11819   8.938   6.917   4.821  0.7343  0.1693  0.6089
 2421SOL    HW111820   8.959   6.940   4.911  1.0297  1.6237  0.1955
 2421SOL    HW211821   8.873   6.981   4.794 -0.4349 -1.1259  0.2187
 2422SOL     OW11822   2.454  11.520   4.094 -0.2113  0.7826 -0.0760
 2422SOL    HW111823   2.417  11.437   4.124 -0.4147  0.6265 -0.7386
 2422SOL    HW211824   2.521  11.541   4.159  1.5443 -1.1275 -1.1241
 2423SOL     OW11825  10.043   9.780   5.079  0.0572 -0.4285 -0.4809
 2423SOL    HW111826  10.066   9.863   5.121  3.1920 -1.2758 -0.2927
 2423SOL    HW211827  10.064   9.793   4.987 -2.0137 -0.2284 -0.9836
 2424SOL     OW11828   5.666  10.592   7.311  0.8580  0.1655 -0.5392
 2424SOL    HW111829   5.715  10.642   7.246  2.0787  0.2374  0.4098
 2424SOL    HW211830   5.590  10.558   7.263  1.5315  0.5242 -1.8981
 2425SOL     OW11831  10.433  10.900   9.243 -0.1219  0.2968 -0.5501
 2425SOL    HW111832  10.368  10.845   9.287 -1.4706  2.6020  0.4990
 2425SOL    HW211833  10.402  10.905   9.152 -0.8683  0.5343 -0.2929
 2426SOL     OW11834   7.430   0.781   1.494  0.1487 -0.0334  0.2291
 2426SOL    HW111835   7.428   0.708   1.433 -2.8117  0.6156 -0.6136
 2426SOL    HW211836   7.523   0.797   1.509  0.9361 -3.7963  0.3376
 2427SOL     OW11837   5.410   0.074  10.037 -0.0156 -0.1470  0.6980
 2427SOL    HW111838   5.374   0.163  10.038 -0.4207 -0.3101  0.7522
 2427SOL    HW211839   5.407   0.045  10.128  1.2089  0.2155  0.8660
 2428SOL     OW11840   4.427  10.146   4.713 -0.0566 -0.0644  0.7755
 2428SOL    HW111841   4.338  10.112   4.718  0.2314 -0.8441  0.7888
 2428SOL    HW211842   4.481  10.079   4.758  0.5891  0.1646  0.3567
 2429SOL     OW11843   1.036   9.142   9.194 -0.6108 -0.0086 -0.2116
 2429SOL    HW111844   1.077   9.198   9.260 -0.5465 -1.1684  0.7600
 2429SOL    HW211845   0.964   9.195   9.159 -0.8446  0.5111  1.0130
 2430SOL     OW11846   4.274   9.933  10.793  0.7257 -0.6337 -0.0904
 2430SOL    HW111847   4.267   9.841  10.819  0.4435 -0.4837  0.3697
 2430SOL    HW211848   4.348   9.967  10.842  0.3448 -0.4157  0.3448
 2431SOL     OW11849   3.827   9.540   2.918  0.0572 -0.1400  0.2978
 2431SOL    HW111850   3.758   9.476   2.937 -0.8319  0.8833  0.5554
 2431SOL    HW211851   3.864   9.561   3.004 -0.1120  0.2038  0.2870
 2432SOL     OW11852   3.104   2.976   7.010  0.3802  0.0195 -0.2216
 2432SOL    HW111853   3.098   2.892   6.964  2.1401 -0.0045 -0.4641
 2432SOL    HW211854   3.108   2.953   7.102 -0.9666 -0.0446 -0.1603
 2433SOL     OW11855   1.150  11.110   9.560  0.3264  0.2425 -0.4900
 2433SOL    HW111856   1.110  11.093   9.646 -1.4446 -0.7126 -1.4412
 2433SOL    HW211857   1.210  11.036   9.547  2.3838  1.5673  0.8465
 2434SOL     OW11858   7.192   2.280   8.363  0.1988 -0.0587 -0.1946
 2434SOL    HW111859   7.218   2.371   8.353  0.2771  0.0270  0.6738
 2434SOL    HW211860   7.243   2.233   8.298  0.0641  0.5306 -0.7346
 2435SOL     OW11861   6.813   2.681  10.429 -0.3651 -0.4320 -0.2648
 2435SOL    HW111862   6.871   2.716  10.496  0.0932 -0.3203 -0.7136
 2435SOL    HW211863   6.791   2.594  10.459  0.8556 -0.8683 -0.5746
 2436SOL     OW11864   3.653   0.736   9.787  0.4208  0.6723 -0.5225
 2436SOL    HW111865   3.695   0.688   9.858 -1.1811  0.2654  0.1862
 2436SOL    HW211866   3.698   0.821   9.785  1.5655  0.0881 -0.1153
 2437SOL     OW11867   5.977   8.938   0.772  0.1614 -0.3550  0.1243
 2437SOL    HW111868   6.043   8.981   0.719  0.0245 -1.4902 -1.0215
 2437SOL    HW211869   5.902   8.997   0.770  0.7385  0.4111  0.5110
 2438SOL     OW11870  11.699  11.777   4.913  0.4403 -0.4876  0.4538
 2438SOL    HW111871  11.604  11.764   4.914  0.1663  0.7404 -1.7146
 2438SOL    HW211872  11.735  11.697   4.949 -1.3902 -1.8463 -0.5643
 2439SOL     OW11873   8.109   9.611   9.860  0.4023 -0.3340 -0.8052
 2439SOL    HW111874   8.027   9.640   9.900  0.5289  0.1977 -0.9234
 2439SOL    HW211875   8.092   9.521   9.833  0.9076 -1.4255  2.1632
 2440SOL     OW11876   8.719   3.341   6.741  0.3571  0.0679  0.4551
 2440SOL    HW111877   8.684   3.387   6.818  0.1607  1.9459 -0.6909
 2440SOL    HW211878   8.752   3.411   6.685  1.6313 -1.3515 -0.6387
 2441SOL     OW11879  10.720   0.613  10.419 -0.1642 -0.0651 -0.4302
 2441SOL    HW111880  10.756   0.674  10.355 -1.5430  0.0169 -1.1607
 2441SOL    HW211881  10.628   0.602  10.394 -0.5218 -0.7084  1.0181
 2442SOL     OW11882  10.212   4.990   8.000  0.1454  0.0570  0.6263
 2442SOL    HW111883  10.253   4.943   7.928  2.8514  2.2170  0.5842
 2442SOL    HW211884  10.169   4.923   8.053  2.8449 -2.3127  0.0217
 2443SOL     OW11885   9.160   3.228   7.755  0.2741 -0.0043 -0.0952
 2443SOL    HW111886   9.208   3.172   7.694 -0.9621 -2.5361  1.0740
 2443SOL    HW211887   9.081   3.253   7.708  0.9129  0.9806 -0.6858
 2444SOL     OW11888  11.436   2.019   6.760  0.3223  0.1759 -0.5675
 2444SOL    HW111889  11.473   1.931   6.754 -2.4460 -1.0759 -0.5224
 2444SOL    HW211890  11.470   2.065   6.683  1.4021 -1.0729 -0.8711
 2445SOL     OW11891  11.708   3.412   6.901 -0.3003  0.6234  0.4738
 2445SOL    HW111892  11.665   3.474   6.960  1.9037  1.5334  1.2101
 2445SOL    HW211893  11.741   3.467   6.829  1.2447  0.2671  0.8850
 2446SOL     OW11894   3.262   7.213   9.695 -0.0202  0.1388 -0.3480
 2446SOL    HW111895   3.314   7.166   9.630  1.4357  0.5332  0.4690
 2446SOL    HW211896   3.298   7.302   9.694 -1.8568  0.9060 -0.9531
 2447SOL     OW11897   4.084   4.937   7.408 -0.2571 -0.5832 -0.2163
 2447SOL    HW111898   4.016   4.881   7.445  0.4830 -1.8720 -0.7396
 2447SOL    HW211899   4.115   4.989   7.482 -1.3764 -0.4079  0.1521
 2448SOL     OW11900  10.127   5.734   9.811  0.0412 -0.0712 -0.4443
 2448SOL    HW111901  10.034   5.716   9.822  0.8999 -3.6760  3.0419
 2448SOL    HW211902  10.152   5.784   9.889  1.4708 -1.6467  0.1648
 2449SOL     OW11903   1.543   5.574  10.772  0.6354  0.3179  0.2723
 2449SOL    HW111904   1.619   5.630  10.760  0.1086  1.4770  1.9585
 2449SOL    HW211905   1.491   5.587  10.692  1.3395  0.9020 -0.1016
 2450SOL     OW11906   3.533   5.646   7.503 -0.4890 -0.4778  0.8401
 2450SOL    HW111907   3.544   5.556   7.533  0.5434 -0.7651 -0.3279
 2450SOL    HW211908   3.612   5.691   7.533  0.2150 -0.5965 -0.7368
 2451SOL     OW11909   3.826   3.012   8.956 -0.2767 -0.1994 -0.9921
 2451SOL    HW111910   3.734   2.997   8.936 -0.9589  0.1874  1.4621
 2451SOL    HW211911   3.873   2.945   8.908 -2.0694 -1.8943 -0.5042
 2452SOL     OW11912   1.592  10.388   1.784 -0.0907  0.0833  0.3283
 2452SOL    HW111913   1.600  10.309   1.837 -0.9800 -0.7420 -0.7174
 2452SOL    HW211914   1.675  10.434   1.797  0.6225 -1.2321  0.6388
 2453SOL     OW11915   1.193   6.222   2.598 -0.1569  0.4843  0.1421
 2453SOL    HW111916   1.168   6.209   2.690 -2.3675  0.7602 -0.3676
 2453SOL    HW211917   1.195   6.317   2.587  0.4541  0.4571 -0.0237
 2454SOL     OW11918   9.070   8.212   1.610  0.3750  0.6668 -0.0288
 2454SOL    HW111919   9.060   8.121   1.580  2.1528  0.4273 -0.0589
 2454SOL    HW211920   9.088   8.261   1.530  1.5617  0.6385  0.1908
 2455SOL     OW11921   3.430   9.001   9.922  0.1644  0.5095 -0.0000
 2455SOL    HW111922   3.382   8.918   9.916 -3.5135  2.5077 -1.7812
 2455SOL    HW211923   3.485   9.002   9.843 -1.5320  0.6285 -1.2493
 2456SOL     OW11924  10.544   9.820   7.002 -0.3720  0.4480 -0.0430
 2456SOL    HW111925  10.535   9.818   7.097  2.4181 -2.1090  0.3092
 2456SOL    HW211926  10.486   9.751   6.970  0.8362 -0.6773  0.1272
 2457SOL     OW11927   9.985  10.111   2.411 -0.5122 -0.0928 -0.3488
 2457SOL    HW111928  10.075  10.136   2.392 -0.8938  1.6251 -0.0510
 2457SOL    HW211929   9.932  10.183   2.378 -1.9099 -1.6609 -1.7207
 2458SOL     OW11930   4.626   7.126   5.047  0.2750 -0.2230 -0.3439
 2458SOL    HW111931   4.548   7.181   5.042 -0.1123 -0.6956  0.4067
 2458SOL    HW211932   4.648   7.107   4.955  0.1295  0.7634 -0.5944
 2459SOL     OW11933   4.130   0.742   8.692 -0.4426  0.1577  0.4091
 2459SOL    HW111934   4.137   0.837   8.695 -0.8489  0.2065 -0.0582
 2459SOL    HW211935   4.041   0.725   8.662  0.3255 -0.3187 -1.8440
 2460SOL     OW11936  11.096   9.122   6.212 -0.1250  0.0596  0.0841
 2460SOL    HW111937  11.090   9.035   6.250 -2.3579  0.0997  0.0124
 2460SOL    HW211938  11.104   9.107   6.118 -0.7750 -0.1053  0.0471
 2461SOL     OW11939  11.748   2.203   0.335  0.0378  0.0690  0.1141
 2461SOL    HW111940  11.665   2.157   0.345  0.4545 -0.6312  0.3883
 2461SOL    HW211941  11.780   2.216   0.425  2.4858 -3.8596  0.0137
 2462SOL     OW11942   1.638   4.654   9.203 -0.4100 -0.5794 -0.0250
 2462SOL    HW111943   1.616   4.610   9.285 -1.0481 -1.8535 -0.8383
 2462SOL    HW211944   1.581   4.731   9.201 -0.3453 -0.5085  0.7441
 2463SOL     OW11945  11.159   1.900  10.459  1.0387 -0.2182 -0.2663
 2463SOL    HW111946  11.097   1.862  10.396  0.9502 -0.7385  0.1320
 2463SOL    HW211947  11.221   1.949  10.405  0.7498 -0.3590 -0.7290
 2464SOL     OW11948   1.924   2.381   2.433 -0.1663  1.0221 -0.2290
 2464SOL    HW111949   1.992   2.314   2.429 -0.6797  0.1848  2.6462
 2464SOL    HW211950   1.843   2.335   2.410 -0.3078  1.0087  0.2815
 2465SOL     OW11951   1.568   0.833   5.402 -0.0482  0.1612 -0.0838
 2465SOL    HW111952   1.576   0.856   5.495  0.9127  1.5685 -0.4720
 2465SOL    HW211953   1.495   0.772   5.398  0.2959 -0.4356  1.6831
 2466SOL     OW11954   9.817   5.877  11.169  0.1568  0.5920 -0.1563
 2466SOL    HW111955   9.766   5.821  11.227  1.1477 -0.0859  0.0861
 2466SOL    HW211956   9.784   5.965  11.185 -0.2615  0.2864  0.7106
 2467SOL     OW11957  11.371   9.100   5.573 -0.1502  0.1815 -0.0375
 2467SOL    HW111958  11.384   9.195   5.576 -0.2352  0.3260 -2.3605
 2467SOL    HW211959  11.276   9.089   5.571 -0.1473  0.0058  0.4858
 2468SOL     OW11960   4.017   8.095   7.170  0.3569 -0.4297  0.8009
 2468SOL    HW111961   3.955   8.162   7.141  1.5803  0.9080  1.1629
 2468SOL    HW211962   4.076   8.083   7.096  0.6675 -0.4577  1.0507
 2469SOL     OW11963   3.795   9.394   1.344  0.0469 -0.2341  0.4953
 2469SOL    HW111964   3.759   9.424   1.428  2.7830  0.3647  1.5715
 2469SOL    HW211965   3.793   9.471   1.288 -1.5501 -0.5658  0.0716
 2470SOL     OW11966   2.560  11.236   8.388 -0.7041 -0.1353 -0.0377
 2470SOL    HW111967   2.526  11.289   8.316  1.4307  1.7587  0.2560
 2470SOL    HW211968   2.524  11.276   8.467 -0.2816 -0.0547  0.1171
 2471SOL     OW11969  10.476   4.819   7.105  0.4775 -0.2061 -0.4154
 2471SOL    HW111970  10.477   4.908   7.140 -1.6858 -0.7511  1.2904
 2471SOL    HW211971  10.560   4.782   7.132  0.5025  0.6602  0.7838
 2472SOL     OW11972  10.572   7.127   6.471 -0.1089  0.3257 -0.7385
 2472SOL    HW111973  10.489   7.124   6.423 -0.2573 -0.0896 -0.4677
 2472SOL    HW211974  10.546   7.135   6.563 -0.0478 -3.7520 -0.1910
 2473SOL     OW11975   8.992   8.186   3.116  0.1561  0.0847 -0.0209
 2473SOL    HW111976   9.046   8.149   3.047 -0.2749  1.4890 -1.1696
 2473SOL    HW211977   9.033   8.270   3.137 -1.4092  1.1177 -0.8202
 2474SOL     OW11978   7.049   4.436   2.999 -0.7401  0.0185 -0.2953
 2474SOL    HW111979   6.992   4.450   2.924  0.3305 -0.5443 -1.2391
 2474SOL    HW211980   7.103   4.361   2.975 -0.1228  0.0523  0.8910
 2475SOL     OW11981   3.033   3.294   7.056  0.3002  0.1191 -0.0207
 2475SOL    HW111982   3.072   3.222   7.005 -0.1529  0.3877 -0.7650
 2475SOL    HW211983   3.029   3.367   6.994 -1.5373  0.0425 -0.0351
 2476SOL     OW11984   3.319   0.326   0.798 -0.2252 -0.1310 -0.1435
 2476SOL    HW111985   3.308   0.420   0.786  0.0434 -0.2108 -1.1242
 2476SOL    HW211986   3.412   0.311   0.782 -0.5295 -0.7517 -1.4918
 2477SOL     OW11987  10.409   3.683   2.470  0.8358  0.2471 -0.3939
 2477SOL    HW111988  10.375   3.739   2.399  1.4241 -0.5044 -1.2816
 2477SOL    HW211989  10.336   3.625   2.491 -0.0876  1.8614  1.1346
 2478SOL     OW11990   5.802   3.164   1.308  0.0551  0.2000  0.8979
 2478SOL    HW111991   5.806   3.215   1.227  0.6135 -1.0455  0.0964
 2478SOL    HW211992   5.893   3.156   1.335  0.0859 -1.1259  0.4824
 2479SOL     OW11993   0.574   9.738   6.902 -0.6431 -0.0858  0.3354
 2479SOL    HW111994   0.616   9.723   6.818 -0.3484 -2.4311  0.8279
 2479SOL    HW211995   0.511   9.808   6.886 -0.8678 -0.7298 -1.9378
 2480SOL     OW11996  10.444   4.873   2.181  0.3203 -0.4704  0.2433
 2480SOL    HW111997  10.508   4.943   2.167 -2.2659  1.9231 -0.7486
 2480SOL    HW211998  10.422   4.843   2.093 -1.3253  0.2288  0.3713
 2481SOL     OW11999   7.377   7.646   7.559  0.4502 -0.5790  0.0035
 2481SOL    HW112000   7.320   7.627   7.484  1.9431 -1.7798 -0.8878
 2481SOL    HW212001   7.374   7.741   7.568  0.5233 -0.3706 -1.8424
 2482SOL     OW12002  11.796   2.677  10.730 -0.0731  0.0551  0.3469
 2482SOL    HW112003  11.751   2.691  10.813  0.3194  1.8263  0.3091
 2482SOL    HW212004  11.889   2.672  10.753 -0.1410 -2.4332  0.3032
 2483SOL     OW12005   9.605   4.974   2.253 -0.5835  0.1099  0.1671
 2483SOL    HW112006   9.649   4.892   2.232 -0.2813  0.2689  0.1731
 2483SOL    HW212007   9.667   5.020   2.310  0.2346  1.3048 -1.5951
 2484SOL     OW12008   3.747   5.757  12.027 -0.0858  0.2988 -0.2101
 2484SOL    HW112009   3.751   5.663  12.047 -0.0508  0.3986  0.2650
 2484SOL    HW212010   3.709   5.761  11.939  1.1933 -0.2223 -0.8047
 2485SOL     OW12011   3.725   2.684  11.998  0.4215  0.3253  0.2328
 2485SOL    HW112012   3.684   2.673  11.913  0.0506 -2.6835  0.6981
 2485SOL    HW212013   3.779   2.605  12.009  0.4609  0.6262  2.7590
 2486SOL     OW12014   6.041   4.838  10.855  0.6895 -0.1117 -0.3905
 2486SOL    HW112015   6.030   4.893  10.933  1.7637  0.8728 -0.9113
 2486SOL    HW212016   5.952   4.810  10.833  0.3695 -0.5455  1.2650
 2487SOL     OW12017   9.987   5.640  11.011  1.2547  0.2495 -0.1587
 2487SOL    HW112018   9.969   5.722  11.057  1.8273  1.1314 -1.4548
 2487SOL    HW212019  10.073   5.614  11.044  0.1460 -1.0866  1.9428
 2488SOL     OW12020  10.504   6.761   7.402  0.5441 -0.3862  0.1010
 2488SOL    HW112021  10.456   6.834   7.363  1.2539  0.9322  1.5580
 2488SOL    HW212022  10.453   6.738   7.480  2.0532  0.8863  1.5505
 2489SOL     OW12023   6.855   2.303   1.834 -0.3842 -0.1508 -0.6918
 2489SOL    HW112024   6.811   2.388   1.833  0.5439  0.3318 -0.7705
 2489SOL    HW212025   6.903   2.302   1.917 -1.0903 -0.9652 -0.2801
 2490SOL     OW12026   2.265   7.471   5.838 -0.2056  0.3814 -0.1848
 2490SOL    HW112027   2.270   7.445   5.746 -1.0179  0.5760 -0.2932
 2490SOL    HW212028   2.289   7.391   5.886 -1.0169 -0.0985 -0.5479
 2491SOL     OW12029   1.024   1.625  10.512 -0.8541 -0.3203 -0.0265
 2491SOL    HW112030   0.959   1.682  10.554 -0.5999  0.2457 -0.3820
 2491SOL    HW212031   1.071   1.586  10.585 -4.0121 -3.7781  0.4520
 2492SOL     OW12032   6.771  10.187  11.542 -0.2651 -0.3480 -0.2306
 2492SOL    HW112033   6.772  10.282  11.554 -0.9408 -0.5268  1.6916
 2492SOL    HW212034   6.811  10.173  11.456  2.4055  1.5248  0.5529
 2493SOL     OW12035   6.838   5.376   4.023 -0.8541  0.4785  0.3826
 2493SOL    HW112036   6.783   5.447   3.988  1.4309  1.3831 -1.6526
 2493SOL    HW212037   6.927   5.412   4.021  0.1026 -1.6943  1.4415
 2494SOL     OW12038   1.549   1.189   0.290 -0.1213 -0.2243  0.7456
 2494SOL    HW112039   1.478   1.155   0.235 -0.8971  1.9272  0.3073
 2494SOL    HW212040   1.619   1.210   0.228 -0.3235  0.5542  0.7639
 2495SOL     OW12041   8.038  12.035   0.947  0.7020 -0.1664  0.4167
 2495SOL    HW112042   8.125  12.007   0.917  2.1322  2.6618  1.5206
 2495SOL    HW212043   8.047  12.045   1.041 -0.5837  0.8988  0.4561
 2496SOL     OW12044   1.007   5.601   5.778 -0.5347  0.2388  0.2032
 2496SOL    HW112045   1.061   5.608   5.857 -0.1101  3.2924 -0.2238
 2496SOL    HW212046   1.070   5.601   5.706 -1.0058  0.1053 -0.2165
 2497SOL     OW12047   3.495   4.397   7.005 -0.6678  0.0699  0.0385
 2497SOL    HW112048   3.507   4.302   6.997 -0.4740  0.0668  0.3232
 2497SOL    HW212049   3.443   4.408   7.085 -0.6515  0.2050  0.0315
 2498SOL     OW12050  11.095   4.957  10.684  0.0220 -0.0810 -0.6120
 2498SOL    HW112051  11.072   4.889  10.620 -0.0521 -0.5349 -0.1094
 2498SOL    HW212052  11.179   4.928  10.720 -1.2238 -1.2717  1.4636
 2499SOL     OW12053   4.956   1.100  10.177  0.1857  0.2595  0.1489
 2499SOL    HW112054   4.965   1.111  10.272  0.9866 -0.2994  0.1571
 2499SOL    HW212055   5.044   1.120  10.143  0.1849 -0.5350 -0.3596
 2500SOL     OW12056   6.119   4.253   4.252 -0.1396  0.1636 -0.1466
 2500SOL    HW112057   6.206   4.214   4.248 -0.5797 -1.2896  2.4023
 2500SOL    HW212058   6.067   4.191   4.302 -2.0516  2.0755  0.3778
 2501SOL     OW12059   4.370   9.492   7.078  0.3619 -0.1243 -0.0546
 2501SOL    HW112060   4.433   9.477   7.008  1.0348 -1.2077  0.7409
 2501SOL    HW212061   4.352   9.586   7.076  1.9243  0.1916 -0.3678
 2502SOL     OW12062   9.200   8.401  10.757 -0.2743  0.4891 -0.4031
 2502SOL    HW112063   9.180   8.319  10.801  1.9729  0.3835  0.5852
 2502SOL    HW212064   9.206   8.466  10.827  0.4849  0.9369 -0.8562
 2503SOL     OW12065   0.898   7.556   3.230 -0.4053  0.5568  0.0453
 2503SOL    HW112066   0.819   7.562   3.283  0.0697 -0.5237  0.9286
 2503SOL    HW212067   0.866   7.546   3.140 -1.3791 -1.9275  0.5821
 2504SOL     OW12068   5.834   3.512   8.975 -0.0036  0.1007  0.1098
 2504SOL    HW112069   5.923   3.507   8.941  1.1430  1.5743  2.5686
 2504SOL    HW212070   5.816   3.425   9.011  0.5757 -0.1145 -0.1223
 2505SOL     OW12071   1.597   5.186   2.428  0.5416 -0.0789 -0.0402
 2505SOL    HW112072   1.550   5.231   2.497 -0.3760  1.8051 -1.7968
 2505SOL    HW212073   1.557   5.099   2.424  1.0977 -0.4911  2.1964
 2506SOL     OW12074   3.440  11.774   1.693  0.2166 -0.0966  0.2404
 2506SOL    HW112075   3.431  11.794   1.600 -1.4470  0.5586  0.4969
 2506SOL    HW212076   3.385  11.698   1.707 -0.7336  0.6895  0.9323
 2507SOL     OW12077   5.480   6.685   1.173 -0.0313  0.5223 -0.2005
 2507SOL    HW112078   5.509   6.663   1.084  1.8211  2.3406 -0.1057
 2507SOL    HW212079   5.385   6.697   1.164  0.0570  0.3425 -1.8501
 2508SOL     OW12080   4.377  11.577   2.870 -0.4305  0.0749  0.3332
 2508SOL    HW112081   4.342  11.665   2.854 -2.1752 -0.5637  0.4144
 2508SOL    HW212082   4.384  11.538   2.782  0.7543  0.4113  0.2570
 2509SOL     OW12083   9.123   5.545   0.532 -0.6139 -0.3141  0.0043
 2509SOL    HW112084   9.181   5.504   0.596  1.3622 -1.8019 -2.5697
 2509SOL    HW212085   9.040   5.499   0.543 -0.9610  0.7385  2.6560
 2510SOL     OW12086  10.003   4.311   5.361 -0.3666  0.5499  0.0526
 2510SOL    HW112087  10.003   4.369   5.285  0.1131  2.0664  1.1625
 2510SOL    HW212088   9.999   4.223   5.324  1.3184  1.1748 -1.7792
 2511SOL     OW12089   4.676   6.452   9.570  0.4036  0.2379 -0.6557
 2511SOL    HW112090   4.718   6.406   9.643  1.8353  1.2783 -0.7923
 2511SOL    HW212091   4.637   6.529   9.610 -0.0100  0.1043 -0.7913
 2512SOL     OW12092   4.251   7.668   7.399 -0.3590 -0.3656 -0.0521
 2512SOL    HW112093   4.337   7.691   7.434 -1.7164  1.1455  2.6498
 2512SOL    HW212094   4.221   7.747   7.355 -1.2794  0.0116  1.1657
 2513SOL     OW12095   8.315   7.090  11.344 -0.2111  0.1149  0.0202
 2513SOL    HW112096   8.331   7.053  11.257  0.1043  1.5331 -0.5642
 2513SOL    HW212097   8.220   7.102  11.348 -0.0671  1.9514 -0.9968
 2514SOL     OW12098   1.359  10.756   8.373 -0.2318  0.1350  0.1566
 2514SOL    HW112099   1.408  10.723   8.298  0.7920 -0.3744  1.0135
 2514SOL    HW212100   1.349  10.850   8.356 -2.2515 -0.3725 -1.8037
 2515SOL     OW12101   4.769   3.480   4.218 -0.4486 -0.2821  0.6707
 2515SOL    HW112102   4.778   3.505   4.126  2.4489 -0.8268  0.7211
 2515SOL    HW212103   4.693   3.531   4.249  0.3126  2.2270 -1.2487
 2516SOL     OW12104   7.773   2.561   0.072 -0.3017 -0.1279  0.1243
 2516SOL    HW112105   7.751   2.470   0.092 -1.0384  0.1686  0.7176
 2516SOL    HW212106   7.786   2.563  -0.023 -0.6435 -0.7788  0.0597
 2517SOL     OW12107   2.348   1.651   3.047  0.5829 -0.3130  0.0517
 2517SOL    HW112108   2.354   1.652   3.142 -0.5527 -0.6707  0.1465
 2517SOL    HW212109   2.429   1.610   3.017  0.2596 -1.6434  0.9465
 2518SOL     OW12110  11.163   0.817  10.386  0.4708  0.0144 -0.1478
 2518SOL    HW112111  11.110   0.843  10.462  0.5025 -1.7882  0.5295
 2518SOL    HW212112  11.125   0.866  10.313 -0.1407  1.0986  0.8668
 2519SOL     OW12113   0.708   8.547   9.588 -0.3621  0.3927 -0.4519
 2519SOL    HW112114   0.757   8.506   9.516  1.1745  0.9205  0.2436
 2519SOL    HW212115   0.640   8.598   9.544  0.3633  0.4831 -1.5283
 2520SOL     OW12116   2.323   2.547   7.144  0.4455  0.1657  0.1649
 2520SOL    HW112117   2.326   2.472   7.085 -2.7645  0.4615 -0.6078
 2520SOL    HW212118   2.257   2.605   7.105  1.9597  2.8759  1.3378
 2521SOL     OW12119  11.693   0.927   3.953 -0.2524  0.2941 -0.2064
 2521SOL    HW112120  11.696   1.017   3.920 -2.0868  0.1018 -0.9899
 2521SOL    HW212121  11.619   0.926   4.013  0.4974 -0.4152  0.7368
 2522SOL     OW12122   9.950   5.386  12.125 -0.2894  0.1589 -0.4880
 2522SOL    HW112123   9.986   5.429  12.047  2.0378 -0.5295  0.1245
 2522SOL    HW212124   9.885   5.324  12.092  0.7233 -0.1781 -1.8881
 2523SOL     OW12125   9.377   3.553  11.260  0.3963 -0.1099  0.3317
 2523SOL    HW112126   9.325   3.621  11.218 -0.3975 -0.0432  1.3720
 2523SOL    HW212127   9.463   3.594  11.276 -0.1647  0.7663  1.2185
 2524SOL     OW12128   6.802   4.691   1.629 -0.1989 -0.1143  0.6315
 2524SOL    HW112129   6.827   4.606   1.664  0.6772  0.5922  1.7731
 2524SOL    HW212130   6.876   4.719   1.576 -1.4246 -1.0788 -1.7633
 2525SOL     OW12131   7.096   2.535   7.463  0.6199 -0.0534  0.2750
 2525SOL    HW112132   7.175   2.481   7.474  1.4994  0.4700 -2.6294
 2525SOL    HW212133   7.044   2.488   7.397 -1.7144 -0.5167  2.3030
 2526SOL     OW12134  11.434   9.233   7.062 -0.5873  0.0847 -0.4331
 2526SOL    HW112135  11.454   9.323   7.033  0.2599 -0.0538 -0.3183
 2526SOL    HW212136  11.464   9.230   7.153 -1.9756  0.1088  0.0492
 2527SOL     OW12137  11.734   7.659   8.082 -0.2567  0.3487  0.0318
 2527SOL    HW112138  11.706   7.750   8.074 -1.7678 -0.1634 -1.3087
 2527SOL    HW212139  11.791   7.644   8.006 -4.1898 -1.0875 -3.0038
 2528SOL     OW12140  10.552   4.038   4.611  0.6316  0.5368 -0.1845
 2528SOL    HW112141  10.586   4.025   4.523  1.1118  1.5282 -0.1495
 2528SOL    HW212142  10.602   3.977   4.666 -1.0001 -1.5490 -0.8458
 2529SOL     OW12143  11.841   9.494   7.218  0.3967 -0.5942 -0.0541
 2529SOL    HW112144  11.797   9.466   7.138  1.2012 -0.7545 -0.4555
 2529SOL    HW212145  11.774   9.487   7.286 -0.8843  1.4287 -1.0221
 2530SOL     OW12146   1.177   3.599   3.196 -0.2059  0.3464 -0.0132
 2530SOL    HW112147   1.118   3.581   3.123  1.5782 -0.5326 -1.3376
 2530SOL    HW212148   1.243   3.658   3.159  2.4463 -2.4314 -0.1372
 2531SOL     OW12149   0.906   1.989   1.884 -0.0369 -0.4619  0.5464
 2531SOL    HW112150   0.993   2.029   1.894  0.5554 -0.7767 -2.3641
 2531SOL    HW212151   0.852   2.059   1.848 -0.4037 -0.8592  0.3151
 2532SOL     OW12152  10.149   4.867   4.683  0.0480  0.6638 -0.3023
 2532SOL    HW112153  10.120   4.861   4.592 -0.4158  3.6801 -0.4667
 2532SOL    HW212154  10.182   4.780   4.704 -3.0328 -1.1294 -2.2219
 2533SOL     OW12155   4.831   9.545   8.340  0.0436  0.2726 -0.6437
 2533SOL    HW112156   4.913   9.563   8.387 -0.6800 -1.9163  1.7022
 2533SOL    HW212157   4.850   9.467   8.288 -0.7008 -0.7890  0.5994
 2534SOL     OW12158   2.040   2.933   3.239 -0.0401  0.3592  0.0402
 2534SOL    HW112159   2.128   2.902   3.261 -0.2239  0.2421  0.6323
 2534SOL    HW212160   1.983   2.888   3.302 -1.0339 -2.7456 -2.7446
 2535SOL     OW12161   7.860   2.025   1.821 -0.0240 -0.2073  0.4267
 2535SOL    HW112162   7.891   1.955   1.764  1.5868  0.9371 -0.1905
 2535SOL    HW212163   7.766   2.008   1.832 -0.2376 -0.9149 -1.9401
 2536SOL     OW12164   7.241   9.346   1.612  0.5453  0.2961  0.1726
 2536SOL    HW112165   7.315   9.406   1.602  0.3972  0.5891  0.7765
 2536SOL    HW212166   7.175   9.398   1.658  0.2500 -0.1995  0.3086
 2537SOL     OW12167   6.260   6.638   1.444 -0.7094 -0.4458  0.2561
 2537SOL    HW112168   6.184   6.631   1.502 -0.9360  0.0838  0.0316
 2537SOL    HW212169   6.309   6.712   1.479 -0.3338 -0.7409  0.3536
 2538SOL     OW12170   1.799  11.995   2.786 -0.3989  0.4245 -0.3746
 2538SOL    HW112171   1.757  11.919   2.826 -0.7952  0.0216 -1.4973
 2538SOL    HW212172   1.830  11.963   2.701  1.9185  0.7928  0.2495
 2539SOL     OW12173   7.785   3.019   1.828 -0.3215 -0.5736 -0.0239
 2539SOL    HW112174   7.766   2.926   1.835 -1.1689 -0.2770  2.4041
 2539SOL    HW212175   7.715   3.053   1.772 -0.4830 -1.2496 -0.2477
 2540SOL     OW12176   1.428   5.895   5.824 -0.4921  0.3297 -0.2254
 2540SOL    HW112177   1.446   5.978   5.869  1.3421  0.2721 -0.7558
 2540SOL    HW212178   1.430   5.917   5.731 -3.8217  0.3619 -0.3959
 2541SOL     OW12179   7.715   5.228   4.005  0.4283  0.6113  0.4724
 2541SOL    HW112180   7.622   5.227   4.029  0.6221 -0.8482  1.2736
 2541SOL    HW212181   7.731   5.318   3.974 -0.8038  1.4506  2.1051
 2542SOL     OW12182   5.637   6.588   5.964 -0.1272  0.2334  0.5725
 2542SOL    HW112183   5.682   6.530   6.026 -1.0079 -1.3234 -0.1742
 2542SOL    HW212184   5.544   6.578   5.987 -0.3219  1.0138  0.1306
 2543SOL     OW12185   0.275   8.872   5.817 -0.2230  0.4093  0.0258
 2543SOL    HW112186   0.302   8.865   5.725  0.4500 -0.1851  0.2567
 2543SOL    HW212187   0.353   8.903   5.862 -0.1455 -0.5443  0.5827
 2544SOL     OW12188  10.633   1.678  10.522  0.1513 -0.4602  0.0889
 2544SOL    HW112189  10.716   1.724  10.529  0.9631 -1.5280 -1.7989
 2544SOL    HW212190  10.599   1.701  10.436 -1.3766 -0.3032  0.6904
 2545SOL     OW12191   3.468   9.696   5.971  0.2178 -0.1330  0.1253
 2545SOL    HW112192   3.445   9.736   5.887 -0.7806  0.8331  0.8420
 2545SOL    HW212193   3.563   9.687   5.968  0.1514 -0.5354 -1.2931
 2546SOL     OW12194   3.092   4.197   3.255 -0.2242 -0.0201 -0.7431
 2546SOL    HW112195   3.010   4.242   3.275 -0.2443 -0.1620 -0.5090
 2546SOL    HW212196   3.139   4.194   3.338 -0.3945 -0.7924 -0.6697
 2547SOL     OW12197   6.042   0.762   2.138  0.2656 -0.2555  0.4561
 2547SOL    HW112198   6.093   0.684   2.160  0.6527  0.6704  3.1333
 2547SOL    HW212199   5.956   0.747   2.178 -0.4864 -0.2832 -1.0661
 2548SOL     OW12200   5.936   6.624   8.685 -0.5771 -0.8547  0.1750
 2548SOL    HW112201   6.027   6.624   8.655  0.1901 -1.6988  2.3591
 2548SOL    HW212202   5.918   6.716   8.704  1.2947 -1.0233  3.6410
 2549SOL     OW12203   1.713  11.404  11.471  0.3100 -0.0083  0.0831
 2549SOL    HW112204   1.799  11.392  11.432  1.1762 -0.0336  1.9148
 2549SOL    HW212205   1.724  11.477  11.532 -0.8346 -0.3231  0.7014
 2550SOL     OW12206   5.813   3.180  10.468  0.6932 -0.6684 -0.7200
 2550SOL    HW112207   5.819   3.276  10.469  1.0316 -0.6929 -0.0042
 2550SOL    HW212208   5.722   3.162  10.489  0.3695 -0.4928 -1.8865
 2551SOL     OW12209  11.373   8.759  11.011  0.4996  0.4005  0.1845
 2551SOL    HW112210  11.369   8.701  11.087  1.3649 -1.5063 -1.1656
 2551SOL    HW212211  11.334   8.708  10.940 -0.6305  2.2826 -0.6161
 2552SOL     OW12212   9.973  11.082   6.872 -0.4311  0.8551 -0.3054
 2552SOL    HW112213  10.045  11.057   6.930 -0.8198  2.3116  0.8586
 2552SOL    HW212214   9.968  11.011   6.808  1.6783  0.4440 -0.0898
 2553SOL     OW12215   1.940   2.495  10.679  0.1587 -0.0656  0.4747
 2553SOL    HW112216   1.855   2.534  10.656  1.0256  0.4649 -2.2534
 2553SOL    HW212217   1.966   2.541  10.759 -1.1739  1.2813  0.1940
 2554SOL     OW12218   5.968   0.052  10.038 -0.0797  0.0140 -0.3178
 2554SOL    HW112219   6.038  -0.014  10.037 -0.4253 -0.4007 -2.1521
 2554SOL    HW212220   5.998   0.119  10.099  1.6038 -0.4778 -0.5585
 2555SOL     OW12221   1.060  11.390   3.822  0.2302  0.0988 -0.3674
 2555SOL    HW112222   1.037  11.481   3.802 -0.3719  0.1136  0.3588
 2555SOL    HW212223   0.977  11.349   3.848  0.7485 -0.2536  0.7816
 2556SOL     OW12224  11.321   7.485   4.334 -0.4183  0.4296 -0.0122
 2556SOL    HW112225  11.367   7.434   4.401  0.4455  1.0398 -0.1115
 2556SOL    HW212226  11.245   7.522   4.380  0.4234  1.2366  0.7979
 2557SOL     OW12227   2.712  10.601   6.961 -0.1336 -0.3663  0.0474
 2557SOL    HW112228   2.754  10.551   7.032 -0.2374 -1.3567 -0.5705
 2557SOL    HW212229   2.781  10.615   6.897  0.0219  0.7526  0.4474
 2558SOL     OW12230   1.295   5.619   6.266  0.3375  0.1117  0.1853
 2558SOL    HW112231   1.262   5.564   6.195  2.0254  0.0465 -0.6017
 2558SOL    HW212232   1.340   5.691   6.222 -2.3694  2.5842  1.1871
 2559SOL     OW12233   2.167   4.459   8.311 -0.3967 -0.2216 -0.0069
 2559SOL    HW112234   2.094   4.486   8.367  1.3410  0.2984  2.1771
 2559SOL    HW212235   2.228   4.415   8.370  0.9691 -0.8726 -1.7894
 2560SOL     OW12236  11.472   5.937   3.224 -0.0945 -0.3074  0.1148
 2560SOL    HW112237  11.399   5.887   3.262 -0.1679 -1.2730 -1.2060
 2560SOL    HW212238  11.490   6.006   3.288 -1.1344 -0.9967  1.2002
 2561SOL     OW12239   2.374   9.243   8.490  0.0226 -0.1255 -0.4206
 2561SOL    HW112240   2.370   9.156   8.529  1.0354  0.0593  0.1156
 2561SOL    HW212241   2.370   9.227   8.396 -0.4462 -0.7007 -0.3103
 2562SOL     OW12242  10.019   5.453   2.015  0.3364  0.3653 -0.2982
 2562SOL    HW112243   9.960   5.461   2.090  1.0605  1.0754  0.2081
 2562SOL    HW212244  10.005   5.534   1.965  2.2113  1.4422  0.8187
 2563SOL     OW12245  11.649   2.724   4.908 -0.0814  0.3066 -0.0634
 2563SOL    HW112246  11.583   2.791   4.924 -0.6612 -0.5232  1.1140
 2563SOL    HW212247  11.726   2.773   4.877 -0.8208  1.3969 -0.2168
 2564SOL     OW12248   3.367   6.125  10.273 -0.3139 -0.2831  0.0103
 2564SOL    HW112249   3.318   6.043  10.266  0.0795 -0.4173 -1.5246
 2564SOL    HW212250   3.456   6.098  10.295  0.1703 -0.4099 -1.9731
 2565SOL     OW12251   6.473   6.295   9.969  0.0285  0.2915  0.3295
 2565SOL    HW112252   6.429   6.327  10.048  1.1752 -1.3930  1.7334
 2565SOL    HW212253   6.563   6.279   9.996  0.0987 -1.7947 -0.8692
 2566SOL     OW12254   0.227   3.973  12.120 -0.2756 -0.1717  0.6252
 2566SOL    HW112255   0.278   4.052  12.137  1.4301 -0.3588 -2.6882
 2566SOL    HW212256   0.161   4.000  12.056 -2.6625 -0.5607  2.7679
 2567SOL     OW12257   6.256  10.499   2.230  0.1764  0.0821  0.2682
 2567SOL    HW112258   6.345  10.466   2.218 -0.2301 -2.3628  2.8319
 2567SOL    HW212259   6.202  10.443   2.175  0.0097 -0.1140  0.6241
 2568SOL     OW12260   4.568   3.286  11.801  0.4065 -0.5561 -0.1842
 2568SOL    HW112261   4.637   3.245  11.748  0.4354 -0.3210 -0.3325
 2568SOL    HW212262   4.494   3.227  11.794 -1.2637  1.5842 -4.3242
 2569SOL     OW12263   6.688  11.233   1.415  0.0920  0.5870 -0.4878
 2569SOL    HW112264   6.769  11.284   1.405 -0.0730  1.0780  0.5057
 2569SOL    HW212265   6.718  11.143   1.425  0.6612  0.9632  1.5897
 2570SOL     OW12266   9.502   3.921   0.515  0.4464  0.2916 -0.1175
 2570SOL    HW112267   9.446   3.928   0.438  1.7687 -0.1040 -1.1504
 2570SOL    HW212268   9.442   3.904   0.587 -0.7492 -0.1551 -1.1905
 2571SOL     OW12269   3.297   0.558   0.367  0.5680 -0.0285 -0.3508
 2571SOL    HW112270   3.245   0.481   0.344 -0.3006  0.3694  0.2244
 2571SOL    HW212271   3.239   0.610   0.422  1.3325  0.7864 -0.2998
 2572SOL     OW12272   3.814   3.733  10.279  0.0553  0.8064 -0.0239
 2572SOL    HW112273   3.892   3.678  10.290 -0.9032 -0.1163  3.8047
 2572SOL    HW212274   3.803   3.741  10.184  2.4975 -2.3491 -0.7487
 2573SOL     OW12275   6.275   6.502   8.010  0.0598  0.4940 -0.0057
 2573SOL    HW112276   6.349   6.470   8.060  1.7457  2.7758 -0.8864
 2573SOL    HW212277   6.287   6.464   7.923  0.8949  1.7649 -0.4691
 2574SOL     OW12278   4.669   9.269   8.459  0.5005 -0.3189 -0.4196
 2574SOL    HW112279   4.665   9.290   8.365  1.5318  0.8990 -0.2231
 2574SOL    HW212280   4.747   9.214   8.468  0.2532 -0.6567 -0.3002
 2575SOL     OW12281   0.668   8.923   2.244  0.1290 -0.1008  0.5147
 2575SOL    HW112282   0.718   8.897   2.322  1.1279 -1.4085 -0.4911
 2575SOL    HW212283   0.730   8.975   2.193  0.0418 -0.6259 -0.1416
 2576SOL     OW12284  11.456   6.331   1.674  0.5857 -0.1706  0.3326
 2576SOL    HW112285  11.547   6.300   1.673  0.6698  0.0268  1.0490
 2576SOL    HW212286  11.464   6.426   1.683  0.3117 -0.2449  1.5317
 2577SOL     OW12287   7.791   5.561   5.382  0.0286 -0.7505  0.2379
 2577SOL    HW112288   7.721   5.506   5.348  0.0243 -2.0976  2.2607
 2577SOL    HW212289   7.763   5.651   5.363 -1.6027 -1.3142 -0.1205
 2578SOL     OW12290   3.310   8.759  11.030  0.4339 -0.6083 -0.0189
 2578SOL    HW112291   3.229   8.765  10.979  0.6403  0.6649 -0.2192
 2578SOL    HW212292   3.300   8.679  11.081 -0.4997 -1.0227 -0.8158
 2579SOL     OW12293  10.866   9.444   1.943 -0.2581  0.1463 -0.4927
 2579SOL    HW112294  10.930   9.388   1.899 -0.6176 -0.4168 -0.3075
 2579SOL    HW212295  10.781   9.408   1.918 -0.4739 -0.6187  1.1737
 2580SOL     OW12296   7.060   0.710   5.468 -0.1437  0.4623 -0.6666
 2580SOL    HW112297   6.995   0.769   5.430  1.5548  2.6618 -0.3212
 2580SOL    HW212298   7.067   0.737   5.559  0.3449 -0.5887 -0.3817
 2581SOL     OW12299   2.735  11.544  10.002  0.0038 -0.2226  0.2424
 2581SOL    HW112300   2.692  11.537   9.917  0.4319 -2.6443  0.1443
 2581SOL    HW212301   2.666  11.523  10.065 -0.1219  0.8140  0.4717
 2582SOL     OW12302  11.198  10.350   2.787  0.2248 -0.0257  0.6016
 2582SOL    HW112303  11.264  10.416   2.808 -0.0175  0.6038 -0.5236
 2582SOL    HW212304  11.132  10.359   2.856  0.5661  0.4018  0.8777
 2583SOL     OW12305   8.150   0.357   7.946  0.2639 -0.2910  0.3769
 2583SOL    HW112306   8.163   0.264   7.964  0.5009 -0.1031  1.2217
 2583SOL    HW212307   8.130   0.361   7.853  2.6241 -0.9553 -0.2209
 2584SOL     OW12308   5.318   3.261   4.806 -0.3469 -0.7973 -0.6683
 2584SOL    HW112309   5.323   3.281   4.712 -1.2388 -1.4525 -0.8732
 2584SOL    HW212310   5.267   3.180   4.810  0.5878 -1.3550  0.3240
 2585SOL     OW12311   7.908  10.336   9.472  0.1501  0.7647 -0.3384
 2585SOL    HW112312   7.934  10.420   9.435 -1.2897  1.5493  0.3320
 2585SOL    HW212313   7.989  10.285   9.476  1.3782  2.6816  0.7542
 2586SOL     OW12314   4.869   9.758  10.073 -0.0046  0.0945  0.4379
 2586SOL    HW112315   4.892   9.753   9.981 -0.0507  2.6029  0.2288
 2586SOL    HW212316   4.890   9.672  10.108  0.9651 -0.5875 -1.6909
 2587SOL     OW12317   2.610   5.878  10.385  0.0824 -0.2189  0.2078
 2587SOL    HW112318   2.567   5.797  10.356 -2.7671  1.1171  0.3375
 2587SOL    HW212319   2.583   5.888  10.476  0.2082  0.9745  0.1253
 2588SOL     OW12320   3.642   2.307   5.053 -0.1992  0.3650 -0.7128
 2588SOL    HW112321   3.638   2.213   5.072 -1.1391  0.5059 -0.1122
 2588SOL    HW212322   3.674   2.346   5.134  2.6960  0.3713 -1.7610
 2589SOL     OW12323   6.077   6.680   4.275 -0.1670 -0.2356  0.0217
 2589SOL    HW112324   6.081   6.597   4.227 -0.9481 -0.3278  0.1109
 2589SOL    HW212325   6.023   6.661   4.352 -1.4370  0.6716 -0.6052
 2590SOL     OW12326   1.702   0.058   4.678 -0.8589  0.5264 -0.2158
 2590SOL    HW112327   1.778   0.058   4.620 -0.5768  1.4404  0.1350
 2590SOL    HW212328   1.650  -0.018   4.651  0.8121 -0.8794  0.3954
 2591SOL     OW12329   3.507  11.448   5.024  0.5391 -0.5724  0.4101
 2591SOL    HW112330   3.474  11.512   4.961  0.0692 -0.9525  0.2622
 2591SOL    HW212331   3.588  11.415   4.984  0.1570 -0.9373 -0.0855
 2592SOL     OW12332   5.180  11.805   9.301  0.1451 -0.0299 -0.4257
 2592SOL    HW112333   5.163  11.871   9.367 -0.1673  0.5590 -1.0827
 2592SOL    HW212334   5.105  11.746   9.305 -0.8864  1.1415 -1.6053
 2593SOL     OW12335   8.551   2.743   0.949 -0.4464  0.2163  0.0637
 2593SOL    HW112336   8.593   2.814   0.902 -1.4693  1.1243  0.4651
 2593SOL    HW212337   8.465   2.734   0.907 -0.2160 -1.0173 -0.1981
 2594SOL     OW12338   9.058   3.572  10.200  0.0341 -0.5044  0.5110
 2594SOL    HW112339   9.133   3.538  10.151 -0.5319 -0.4323 -0.4209
 2594SOL    HW212340   8.993   3.594  10.133 -0.5250  0.1720  1.2563
 2595SOL     OW12341   4.669   6.563   9.286 -0.5080 -0.5642  0.2075
 2595SOL    HW112342   4.659   6.475   9.322  0.4401 -1.2006 -0.9704
 2595SOL    HW212343   4.705   6.615   9.358  0.2571 -1.4994  0.5276
 2596SOL     OW12344  11.271   3.764  10.814  0.0388 -0.4012 -0.1304
 2596SOL    HW112345  11.338   3.824  10.848  1.6555 -1.6641 -0.9641
 2596SOL    HW212346  11.192   3.818  10.805  0.0995  0.5701  3.3911
 2597SOL     OW12347  10.227  10.548   2.710  0.4494 -0.4991 -0.2644
 2597SOL    HW112348  10.318  10.526   2.692  0.8564  2.4221 -2.5362
 2597SOL    HW212349  10.180  10.528   2.629 -0.3238  0.7796 -0.1589
 2598SOL     OW12350   7.496  11.695   5.946 -0.0469 -0.4474 -0.4760
 2598SOL    HW112351   7.563  11.645   5.993  2.2323  2.3601 -0.4790
 2598SOL    HW212352   7.456  11.751   6.013 -0.9270 -0.5793 -0.8703
 2599SOL     OW12353   2.854   1.664   9.969  0.0341  0.5580  0.0598
 2599SOL    HW112354   2.803   1.584   9.982  0.8071  0.2179  1.2240
 2599SOL    HW212355   2.894   1.653   9.883  1.0813 -0.8997  0.6754
 2600SOL     OW12356   6.022   7.232   9.964  0.3881 -0.0460  0.2098
 2600SOL    HW112357   6.017   7.225  10.059 -1.0324 -0.4194  0.1345
 2600SOL    HW212358   6.034   7.143   9.933 -1.6277 -0.2851 -0.0359
 2601SOL     OW12359   2.679  10.889   6.803 -0.2390 -0.2034  0.0787
 2601SOL    HW112360   2.724  10.850   6.878  0.5598  0.0965 -0.2320
 2601SOL    HW212361   2.749  10.924   6.748 -0.8617  0.4316 -0.3385
 2602SOL     OW12362   0.848   9.434   3.315  0.3471  0.0498 -0.0641
 2602SOL    HW112363   0.821   9.379   3.241  2.3582  0.6877 -1.3644
 2602SOL    HW212364   0.829   9.523   3.287 -0.3107  0.2074  0.8627
 2603SOL     OW12365   8.518   9.581   4.289  0.0590  0.5707  0.3200
 2603SOL    HW112366   8.548   9.493   4.310 -1.7490  0.1025  1.1192
 2603SOL    HW212367   8.463   9.570   4.211  1.5164  1.3522 -0.8803
 2604SOL     OW12368  11.990   4.037   4.597 -0.3850 -0.8248 -0.4811
 2604SOL    HW112369  12.001   4.092   4.674  1.6673 -1.2860 -0.3828
 2604SOL    HW212370  12.075   3.994   4.586  0.1593  0.7613 -4.1823
 2605SOL     OW12371   8.006   8.425   7.573 -0.5010 -0.0565  0.2489
 2605SOL    HW112372   8.005   8.332   7.553  1.5316 -0.0990  0.1627
 2605SOL    HW212373   8.006   8.468   7.488  1.7317 -0.0959  0.1710
 2606SOL     OW12374   3.000   4.614   8.132 -0.2524 -0.3570  0.0405
 2606SOL    HW112375   3.015   4.675   8.060  0.1130 -1.5935 -0.9578
 2606SOL    HW212376   3.012   4.667   8.211 -0.6628  1.0162 -0.7931
 2607SOL     OW12377   2.202   9.782   0.072  0.1344  0.5183 -0.2053
 2607SOL    HW112378   2.262   9.722   0.028 -0.3852 -0.7200  0.7045
 2607SOL    HW212379   2.198   9.750   0.162 -0.5047  1.6695  0.2016
 2608SOL     OW12380   7.730   9.698   1.941 -0.0861  0.1163 -0.0491
 2608SOL    HW112381   7.779   9.684   1.860  0.2887  0.3677  0.1294
 2608SOL    HW212382   7.781   9.653   2.008  1.6273  2.8913  0.7010
 2609SOL     OW12383   0.445   0.397   2.155  0.1086  0.2410 -0.8756
 2609SOL    HW112384   0.499   0.459   2.105 -0.6996  0.7872 -1.0971
 2609SOL    HW212385   0.454   0.314   2.109  0.2841  0.4726 -1.2640
 2610SOL     OW12386   5.915   7.827   4.471  0.3128  0.4949  0.4397
 2610SOL    HW112387   5.970   7.766   4.422  4.3007  2.0968  2.5462
 2610SOL    HW212388   5.855   7.863   4.406  0.7653 -2.3418 -1.7287
 2611SOL     OW12389   3.157   0.759   0.062  0.0865 -0.0173 -1.0628
 2611SOL    HW112390   3.153   0.676   0.014  1.2882  0.3191 -1.8060
 2611SOL    HW212391   3.114   0.821   0.004 -0.7007 -0.0847 -0.5619
 2612SOL     OW12392   8.597   6.547   3.896  0.2822  0.0120  0.0064
 2612SOL    HW112393   8.521   6.590   3.934 -0.9624 -2.1292  0.0576
 2612SOL    HW212394   8.564   6.502   3.819  1.3807 -1.3057  0.2617
 2613SOL     OW12395  10.750   6.199  10.086  0.8623 -0.0921 -0.1743
 2613SOL    HW112396  10.674   6.215  10.143  2.7062  0.3592  2.2936
 2613SOL    HW212397  10.783   6.114  10.114  2.7445  0.8553  0.6313
 2614SOL     OW12398   6.898   1.633  10.200 -0.2321  0.3023 -0.2502
 2614SOL    HW112399   6.917   1.723  10.227  2.4274 -0.3970  0.4981
 2614SOL    HW212400   6.901   1.582  10.281 -1.6689 -0.5062 -0.6695
 2615SOL     OW12401   0.275   9.470   5.875 -0.1408 -0.7809 -0.1882
 2615SOL    HW112402   0.333   9.532   5.919 -0.8399  0.0409 -0.3902
 2615SOL    HW212403   0.193   9.476   5.925 -0.0606 -1.9434  0.1132
 2616SOL     OW12404   2.571  10.954   7.396 -0.3127  0.0998 -0.4854
 2616SOL    HW112405   2.490  10.913   7.364  0.0951 -1.9119  0.9106
 2616SOL    HW212406   2.543  11.007   7.471 -0.4906  0.3600 -0.7333
 2617SOL     OW12407   6.191   4.682   8.768  0.1997  0.2542  0.1060
 2617SOL    HW112408   6.101   4.673   8.737  0.0485  0.2013  0.5433
 2617SOL    HW212409   6.197   4.619   8.841  0.3548  0.7952  0.5701
 2618SOL     OW12410   6.524  11.303   4.378 -0.2088  0.0390 -0.2040
 2618SOL    HW112411   6.614  11.334   4.390  0.5081 -2.4522  1.5235
 2618SOL    HW212412   6.471  11.364   4.429  0.4339  1.5114 -1.2047
 2619SOL     OW12413  11.392   8.301   4.555 -0.4272 -0.6958 -0.4427
 2619SOL    HW112414  11.408   8.364   4.485 -0.0394 -0.0234  0.2394
 2619SOL    HW212415  11.472   8.250   4.561 -0.6793 -1.1532 -0.8811
 2620SOL     OW12416   2.326   3.844   4.791 -0.2008 -0.0544  0.1895
 2620SOL    HW112417   2.347   3.752   4.779  0.6386  0.0390  0.8431
 2620SOL    HW212418   2.404   3.881   4.833 -0.4215  1.0065 -0.3088
 2621SOL     OW12419   6.783  11.986  11.885 -0.1257  0.0610 -0.1170
 2621SOL    HW112420   6.795  12.026  11.800 -1.0824  0.4454 -0.0826
 2621SOL    HW212421   6.869  11.991  11.927 -0.3540  2.8969  0.2315
 2622SOL     OW12422   3.775   1.156   2.317  0.5562  0.4255 -0.5094
 2622SOL    HW112423   3.737   1.104   2.246 -0.6339  1.6550 -0.8225
 2622SOL    HW212424   3.791   1.241   2.278 -1.5525  1.6234  1.0249
 2623SOL     OW12425   3.662   7.757   0.034  0.4120  0.5787 -0.0096
 2623SOL    HW112426   3.601   7.830   0.039 -0.4574 -0.1145 -0.3196
 2623SOL    HW212427   3.617   7.690  -0.017  1.5860  0.1973 -0.5951
 2624SOL     OW12428   0.278   3.159   6.558  0.2668 -0.1161  0.6012
 2624SOL    HW112429   0.322   3.153   6.644 -0.2511 -0.0490  0.8731
 2624SOL    HW212430   0.317   3.236   6.517  0.1577  0.1466  0.9861
 2625SOL     OW12431   4.525   6.876   6.396 -0.1694  0.1650 -0.3961
 2625SOL    HW112432   4.523   6.964   6.359  0.4267  0.2949 -0.1381
 2625SOL    HW212433   4.564   6.822   6.326  0.6108  0.3421 -0.1144
 2626SOL     OW12434   6.189   1.022   9.270 -0.2292 -0.1041  0.3013
 2626SOL    HW112435   6.148   1.045   9.353 -1.1284  0.0816 -0.1795
 2626SOL    HW212436   6.280   1.052   9.278 -0.1372 -0.6591  1.4463
 2627SOL     OW12437   6.102  11.106  11.848 -1.0047 -0.5869 -0.1374
 2627SOL    HW112438   6.186  11.151  11.842 -0.2457 -2.1529 -3.1641
 2627SOL    HW212439   6.036  11.176  11.845  0.1404  0.5635  0.6230
 2628SOL     OW12440   9.473   6.820   2.610 -0.3728  0.5146  0.2324
 2628SOL    HW112441   9.404   6.814   2.677  0.1219  0.4533  0.7419
 2628SOL    HW212442   9.475   6.913   2.586 -0.5776  0.5302  0.2710
 2629SOL     OW12443   4.379   3.362  10.403  0.9713  0.2360  0.2252
 2629SOL    HW112444   4.461   3.390  10.362 -0.8759  1.2156 -3.2086
 2629SOL    HW212445   4.381   3.266  10.399  1.9458  0.2481  0.2479
 2630SOL     OW12446   2.154  10.702   2.202 -0.2512  0.0434 -0.0567
 2630SOL    HW112447   2.130  10.613   2.226  1.6024  0.1450  2.5865
 2630SOL    HW212448   2.229  10.693   2.143 -0.5608 -0.1276 -0.4292
 2631SOL     OW12449  10.273   8.436   7.172  0.2968 -0.7104 -0.2820
 2631SOL    HW112450  10.275   8.531   7.158  0.4518 -0.7127 -0.2778
 2631SOL    HW212451  10.267   8.399   7.084 -0.1073 -0.6878 -0.2660
 2632SOL     OW12452   1.644  11.164   5.848  0.1919  0.4422  0.0943
 2632SOL    HW112453   1.715  11.140   5.788 -0.3338  0.1167 -0.4073
 2632SOL    HW212454   1.611  11.080   5.879 -0.6642  0.5587 -0.4875
 2633SOL     OW12455   2.446   8.242   7.128  0.1863 -0.4647 -0.6456
 2633SOL    HW112456   2.453   8.327   7.173 -0.5832  0.2478 -1.8310
 2633SOL    HW212457   2.537   8.219   7.107  0.4194 -0.0470 -0.1428
 2634SOL     OW12458   7.790   0.311   2.692  0.5833 -0.1160  0.3851
 2634SOL    HW112459   7.748   0.238   2.738 -0.1311  1.3565  2.2124
 2634SOL    HW212460   7.718   0.357   2.650  1.1843 -1.1570 -1.9106
 2635SOL     OW12461   7.128  11.412   2.185  0.3253  0.1266 -0.3491
 2635SOL    HW112462   7.183  11.454   2.252  0.2050 -0.2590 -0.0061
 2635SOL    HW212463   7.104  11.328   2.223 -0.0269  0.0478 -0.7404
 2636SOL     OW12464   7.049   9.478   2.413  0.5693 -0.0311 -0.1306
 2636SOL    HW112465   6.959   9.455   2.437  0.4474  0.0556 -0.5037
 2636SOL    HW212466   7.085   9.398   2.375  0.5148  0.0563 -0.3678
 2637SOL     OW12467   2.988   8.277   7.394  0.2615 -0.4635  0.4154
 2637SOL    HW112468   3.080   8.272   7.369 -0.1443 -1.8877 -0.8581
 2637SOL    HW212469   2.939   8.264   7.313 -1.0896  1.0327  0.9319
 2638SOL     OW12470   2.759   8.124  10.401  0.0887  0.0878  0.0462
 2638SOL    HW112471   2.706   8.053  10.364  0.7768 -0.7763  0.6566
 2638SOL    HW212472   2.845   8.084  10.414  1.3163  1.7958 -2.1035
 2639SOL     OW12473   2.391   5.001   6.093 -0.6251  0.5665  0.2107
 2639SOL    HW112474   2.306   5.012   6.136 -1.1253 -0.4827 -0.4521
 2639SOL    HW212475   2.405   4.906   6.094  0.5162  0.7259  0.2453
 2640SOL     OW12476   3.100   9.729   2.568 -0.3210 -0.0101 -0.2107
 2640SOL    HW112477   3.115   9.728   2.663 -1.1834 -0.7713 -0.0715
 2640SOL    HW212478   3.174   9.680   2.532  0.0172  0.2915  0.0666
 2641SOL     OW12479   9.058  10.692   5.284  0.1136 -0.6143 -0.2281
 2641SOL    HW112480   8.982  10.664   5.233 -0.0737 -3.1817  1.2897
 2641SOL    HW212481   9.027  10.691   5.374  1.3306  0.6385  0.2254
 2642SOL     OW12482   3.126  12.046   2.491 -0.3600 -0.3557  0.0330
 2642SOL    HW112483   3.085  12.100   2.559  0.3382  0.4929 -0.2058
 2642SOL    HW212484   3.198  12.001   2.536  0.2663  0.4067 -0.1909
 2643SOL     OW12485   1.806   6.096   5.853 -0.2905 -0.5478 -0.7326
 2643SOL    HW112486   1.740   6.027   5.859 -0.3127 -0.4680  0.0453
 2643SOL    HW212487   1.883   6.059   5.897 -1.2238  0.9814  2.4675
 2644SOL     OW12488  11.855   1.907   3.432  0.1274  0.6646 -0.3425
 2644SOL    HW112489  11.792   1.978   3.420  1.7531  1.9923 -1.3818
 2644SOL    HW212490  11.939   1.951   3.444  0.9474 -1.0613  0.6648
 2645SOL     OW12491   8.871   7.838   4.597 -0.3622 -0.3389 -0.3996
 2645SOL    HW112492   8.950   7.843   4.650  0.7361  0.1632 -2.0051
 2645SOL    HW212493   8.838   7.928   4.595 -0.7400 -0.4654 -0.1049
 2646SOL     OW12494   1.981   0.368   7.661 -0.2872 -0.1112  0.3195
 2646SOL    HW112495   1.937   0.437   7.711 -0.0502 -0.7315  1.4163
 2646SOL    HW212496   1.941   0.287   7.691  0.5735 -0.5721  0.2490
 2647SOL     OW12497   5.591   5.899   4.975  0.3985 -0.0477  0.3201
 2647SOL    HW112498   5.588   5.816   4.926 -2.5404  0.1658 -0.0362
 2647SOL    HW212499   5.611   5.873   5.065 -0.6162 -1.1992  0.2459
 2648SOL     OW12500   1.382   2.871   1.128 -0.1376  0.4054  0.0420
 2648SOL    HW112501   1.315   2.806   1.111  0.9041 -0.0376 -3.0319
 2648SOL    HW212502   1.445   2.827   1.185 -1.1945 -0.0135  0.9050
 2649SOL     OW12503  10.339   7.932   2.102 -0.2358 -0.3781 -0.1231
 2649SOL    HW112504  10.378   7.858   2.148  1.1056  0.8441  0.7833
 2649SOL    HW212505  10.404   7.959   2.038 -1.0119 -0.4184 -0.9521
 2650SOL     OW12506   4.079   7.398   8.704 -0.6426 -0.0158 -0.2324
 2650SOL    HW112507   4.091   7.343   8.781  0.1810 -1.6913 -1.5003
 2650SOL    HW212508   4.161   7.446   8.695  1.4555 -3.6265 -2.8623
 2651SOL     OW12509   9.281  11.254   8.204  0.7499 -0.1314  0.0275
 2651SOL    HW112510   9.334  11.333   8.197 -0.3403  0.6885  0.8370
 2651SOL    HW212511   9.193  11.285   8.225  0.5767 -1.5999  1.6846
 2652SOL     OW12512   1.003   4.805   8.359  0.3615 -0.3715 -0.2158
 2652SOL    HW112513   1.089   4.827   8.323  0.1871 -0.6158 -0.7944
 2652SOL    HW212514   0.998   4.853   8.442  0.4261  0.8792 -0.9240
 2653SOL     OW12515   2.993   2.246   9.018 -0.0158  0.1324 -0.1987
 2653SOL    HW112516   3.028   2.175   8.964  0.1867  1.6761 -2.2490
 2653SOL    HW212517   2.923   2.206   9.069 -0.3257 -1.4134 -1.7468
 2654SOL     OW12518   5.814   3.667   8.513  0.0356  0.2861  0.1861
 2654SOL    HW112519   5.770   3.746   8.482  0.6544  0.4581 -0.2731
 2654SOL    HW212520   5.789   3.661   8.605 -0.6798  0.5583  0.0120
 2655SOL     OW12521   9.894   3.993   6.444  0.0117  0.5376 -0.1975
 2655SOL    HW112522   9.939   4.050   6.382  1.0783 -1.3149 -1.2365
 2655SOL    HW212523   9.908   4.034   6.530  1.0949  1.6021 -0.8496
 2656SOL     OW12524  10.631   2.111   1.292 -0.3760  0.3318 -0.1377
 2656SOL    HW112525  10.720   2.107   1.259  0.0240  2.1215  0.6294
 2656SOL    HW212526  10.614   2.024   1.327  1.3248  0.1688  0.3423
 2657SOL     OW12527  11.590   6.104  11.149  0.4296  0.0321 -0.3471
 2657SOL    HW112528  11.503   6.110  11.109 -0.1669  0.5976  0.9639
 2657SOL    HW212529  11.625   6.021  11.118 -0.6976 -0.3406 -0.6661
 2658SOL     OW12530   6.127   4.995   9.458 -0.3257 -0.6653 -0.3617
 2658SOL    HW112531   6.128   5.002   9.553  0.1411 -1.0864 -0.3364
 2658SOL    HW212532   6.099   5.082   9.428 -1.2098 -0.7492  0.1747
 2659SOL     OW12533   4.623   7.598   8.746 -0.0580 -0.0845  0.3888
 2659SOL    HW112534   4.693   7.630   8.803  1.8422 -1.6037 -0.9699
 2659SOL    HW212535   4.626   7.657   8.670  0.0076 -0.3913  0.1548
 2660SOL     OW12536   0.729   2.088   6.233  0.2661  0.0528  0.7016
 2660SOL    HW112537   0.702   2.179   6.248  1.6595  0.7764 -0.8441
 2660SOL    HW212538   0.655   2.048   6.188  0.3459  0.9896 -0.3056
 2661SOL     OW12539   2.004   5.544   1.873 -0.1921 -0.1826 -0.2650
 2661SOL    HW112540   2.084   5.506   1.837 -0.5473 -0.5023 -0.7307
 2661SOL    HW212541   2.012   5.532   1.968  0.2291 -0.3708 -0.3248
 2662SOL     OW12542   5.573  10.301   1.765  0.2800  0.1387 -0.1651
 2662SOL    HW112543   5.498  10.241   1.770  0.3057  0.0985 -0.2662
 2662SOL    HW212544   5.624  10.282   1.844 -1.1423  1.9542  1.3033
 2663SOL     OW12545   0.530   3.409   7.401 -0.1009  0.1740  0.4068
 2663SOL    HW112546   0.538   3.345   7.471 -0.8527 -0.6142 -0.2059
 2663SOL    HW212547   0.499   3.489   7.444 -1.4169 -0.5585  0.8684
 2664SOL     OW12548   6.529   2.576   4.503  0.5245  0.3952 -0.1917
 2664SOL    HW112549   6.531   2.554   4.596 -1.9352 -1.8646 -0.5639
 2664SOL    HW212550   6.437   2.570   4.478  0.8573  2.8129 -2.4222
 2665SOL     OW12551   9.775   1.927  10.334 -0.0041 -0.1793 -0.0979
 2665SOL    HW112552   9.853   1.921  10.279  1.8064  1.2647  2.1410
 2665SOL    HW212553   9.770   1.842  10.377  2.0927  0.5530  1.8171
 2666SOL     OW12554   6.309   9.510   7.020  0.3998 -0.4451  0.0755
 2666SOL    HW112555   6.360   9.435   6.987  1.7369  0.3639  0.2341
 2666SOL    HW212556   6.316   9.576   6.951 -1.1916 -0.6165 -0.2844
 2667SOL     OW12557   9.358   3.519   0.328  0.0636  0.0658  0.1470
 2667SOL    HW112558   9.396   3.473   0.404  2.4967 -0.2522 -1.1693
 2667SOL    HW212559   9.310   3.592   0.366 -0.1422 -0.9979  2.0718
 2668SOL     OW12560   3.330   9.659   3.301 -0.4039  0.0345 -0.0162
 2668SOL    HW112561   3.371   9.685   3.383 -3.3602  3.7490  0.5976
 2668SOL    HW212562   3.402   9.649   3.239  1.6958  0.4853  2.2188
 2669SOL     OW12563   8.416  12.038  10.037  0.1090  0.6198 -0.4781
 2669SOL    HW112564   8.328  12.036  10.075 -0.1359  1.0139 -1.0098
 2669SOL    HW212565   8.421  12.122   9.992  2.1785  2.4859  2.8196
 2670SOL     OW12566  11.917   6.710  10.546 -0.4175  0.0922 -0.5804
 2670SOL    HW112567  11.963   6.789  10.575  0.5400 -0.9016  0.7052
 2670SOL    HW212568  11.864   6.684  10.621 -0.9145 -0.3630 -1.0815
 2671SOL     OW12569  12.015   5.371   0.819 -0.1145  0.2455  0.0986
 2671SOL    HW112570  12.107   5.352   0.838  0.0617  1.0770  0.1124
 2671SOL    HW212571  11.971   5.370   0.904  0.0201  0.5455  0.1728
 2672SOL     OW12572   2.023  11.850   1.082 -0.0393  0.4345  0.0086
 2672SOL    HW112573   2.006  11.854   1.176 -1.2100  1.4804 -0.2218
 2672SOL    HW212574   2.081  11.924   1.065  2.4569 -1.2994  0.2760
 2673SOL     OW12575   4.355   3.204  11.416  0.0634  0.3440 -0.0127
 2673SOL    HW112576   4.275   3.214  11.468  0.3022 -0.6322  0.5652
 2673SOL    HW212577   4.404   3.135  11.460  0.4390 -0.2686 -1.3379
 2674SOL     OW12578   0.010   1.890   8.308 -0.3352  0.0433  0.3387
 2674SOL    HW112579   0.010   1.802   8.345 -0.0637 -0.7359 -1.4126
 2674SOL    HW212580  -0.060   1.888   8.243  0.5949  0.6685 -0.7024
 2675SOL     OW12581   7.373   3.501   7.228 -0.0187 -0.2476  0.6304
 2675SOL    HW112582   7.289   3.473   7.263 -1.2377  0.8863 -1.2364
 2675SOL    HW212583   7.352   3.571   7.167  2.3391  0.4096  0.4578
 2676SOL     OW12584   5.493  11.880   3.026  0.0171  0.4867 -0.1262
 2676SOL    HW112585   5.478  11.897   2.932 -0.0964 -0.4045 -0.2728
 2676SOL    HW212586   5.444  11.800   3.044 -1.1678  1.4076  1.0330
 2677SOL     OW12587  10.660   5.208   7.166 -0.1619  0.0128  0.5521
 2677SOL    HW112588  10.656   5.226   7.260  0.8586 -1.5130  0.9401
 2677SOL    HW212589  10.750   5.178   7.151 -1.1343 -2.8713 -0.2369
 2678SOL     OW12590   4.107   7.910   2.877 -0.5438  0.0685  0.0265
 2678SOL    HW112591   4.071   7.834   2.830 -0.9798  0.3497 -0.0989
 2678SOL    HW212592   4.195   7.921   2.841 -1.5125  1.4325 -2.1196
 2679SOL     OW12593   2.690   1.819   9.483  0.2943  0.4522  0.0080
 2679SOL    HW112594   2.746   1.743   9.469  0.9717  0.7657  0.9198
 2679SOL    HW212595   2.748   1.894   9.470 -0.0043  0.7883  0.5854
 2680SOL     OW12596   2.283  10.744   8.208  0.0532  0.1488  0.1440
 2680SOL    HW112597   2.325  10.662   8.233  0.8432  1.2516  2.8259
 2680SOL    HW212598   2.356  10.805   8.193 -0.5317  0.5956 -0.9915
 2681SOL     OW12599   8.086  11.644   4.348 -0.0375 -0.7637 -0.3971
 2681SOL    HW112600   8.106  11.734   4.321  1.7586 -1.0410 -0.1669
 2681SOL    HW212601   8.135  11.590   4.286 -1.4551 -1.6225 -0.8121
 2682SOL     OW12602   0.325   2.666  12.099  0.3519 -0.4705 -0.2159
 2682SOL    HW112603   0.407   2.631  12.063  0.6671 -0.3764  0.3892
 2682SOL    HW212604   0.284   2.711  12.026 -0.4091 -2.6792 -1.2524
 2683SOL     OW12605   8.661   6.266  12.061  0.1775  0.6836  0.2108
 2683SOL    HW112606   8.580   6.257  12.113  0.6891 -0.5430  0.8486
 2683SOL    HW212607   8.713   6.190  12.086  1.1584  0.9791 -0.8740
 2684SOL     OW12608   6.260   1.698  10.047 -0.2686  0.1857 -0.0931
 2684SOL    HW112609   6.272   1.615  10.093 -1.1839  1.1470  2.0479
 2684SOL    HW212610   6.260   1.675   9.955 -4.3927 -2.8493  0.3869
 2685SOL     OW12611   4.890   4.408  10.372 -0.2170 -0.1329 -0.5295
 2685SOL    HW112612   4.837   4.330  10.354  1.7961 -1.7888  0.1726
 2685SOL    HW212613   4.950   4.414  10.297 -0.5952  0.9857 -0.7547
 2686SOL     OW12614   0.875   2.871   6.119  0.2230 -0.4502 -0.1884
 2686SOL    HW112615   0.796   2.830   6.155 -0.5815  0.8483 -0.4159
 2686SOL    HW212616   0.886   2.829   6.033 -1.3055  0.6354 -0.9548
 2687SOL     OW12617  11.585   9.635   4.171  0.2211 -0.0060  0.1821
 2687SOL    HW112618  11.535   9.567   4.216  1.1435 -1.6539 -1.1575
 2687SOL    HW212619  11.564   9.716   4.218 -1.2640 -1.1280  1.5551
 2688SOL     OW12620   1.885  11.431   4.559  0.1415  0.4615 -0.3832
 2688SOL    HW112621   1.946  11.503   4.574  1.4350 -0.6579 -0.1418
 2688SOL    HW212622   1.939  11.359   4.528 -0.7113 -1.2264  1.7666
 2689SOL     OW12623   7.038  11.620   4.151  0.0183 -0.6360 -0.3074
 2689SOL    HW112624   7.021  11.651   4.062  1.2862  0.7825 -0.1070
 2689SOL    HW212625   6.973  11.552   4.166 -1.3709  0.3285 -1.6700
 2690SOL     OW12626   2.467   3.969   4.176  0.1154 -0.1895 -0.0418
 2690SOL    HW112627   2.418   3.888   4.188  1.5326 -1.0772 -0.0154
 2690SOL    HW212628   2.446   4.022   4.252  0.1935 -1.0872  0.6158
 2691SOL     OW12629  11.349   2.030  11.786  0.3113  0.2277  0.5314
 2691SOL    HW112630  11.416   1.986  11.839  0.7392 -0.6448 -0.6667
 2691SOL    HW212631  11.269   2.023  11.838  0.9539  0.4860  1.5874
 2692SOL     OW12632   1.504   7.914   8.024  0.1857 -0.1736  0.2998
 2692SOL    HW112633   1.453   7.872   7.954 -2.5367  0.1629  1.9609
 2692SOL    HW212634   1.563   7.974   7.977  0.1556 -1.6462 -1.7928
 2693SOL     OW12635   0.981   9.779   3.829 -0.1151  0.1628 -0.2184
 2693SOL    HW112636   0.943   9.809   3.747  0.1733  1.5925  0.1342
 2693SOL    HW212637   0.907   9.776   3.890  0.2599  3.7810  0.7032
 2694SOL     OW12638   3.581   1.626   2.497 -0.0744 -0.6365  0.1076
 2694SOL    HW112639   3.628   1.658   2.574  1.2884  0.9289 -1.3082
 2694SOL    HW212640   3.491   1.656   2.510  0.4732  0.9660  0.3934
 2695SOL     OW12641   9.758   7.365   2.472  0.0658  0.4159  0.0646
 2695SOL    HW112642   9.796   7.315   2.400 -1.0102 -0.4961  0.1127
 2695SOL    HW212643   9.822   7.434   2.489  0.5868  0.3403 -1.4133
 2696SOL     OW12644  11.642   4.968   0.754 -0.1103  0.4643 -0.0601
 2696SOL    HW112645  11.631   5.061   0.774  0.3527  0.6618 -0.6775
 2696SOL    HW212646  11.629   4.924   0.838 -0.3139  1.0892  0.2433
 2697SOL     OW12647  10.008  12.090   8.789  0.2137 -0.1793  0.0839
 2697SOL    HW112648   9.986  12.008   8.745 -0.8386  0.8764 -1.4506
 2697SOL    HW212649   9.925  12.120   8.826  0.7459 -0.1597  1.3103
 2698SOL     OW12650   5.933   7.241   6.249  0.2898 -0.7288 -0.3382
 2698SOL    HW112651   5.852   7.191   6.261 -0.2639  0.1879 -0.1884
 2698SOL    HW212652   5.932   7.305   6.319  1.5753 -1.2453  0.1795
 2699SOL     OW12653   4.190   7.536   4.640  0.4019  0.3721  0.3009
 2699SOL    HW112654   4.101   7.504   4.622  0.1196  1.2304  0.1487
 2699SOL    HW212655   4.243   7.456   4.644 -0.3605 -0.1480  0.3283
 2700SOL     OW12656   6.957   4.751   4.146 -0.3451  0.3161  0.7210
 2700SOL    HW112657   6.960   4.817   4.215  1.1224  2.0791 -0.9184
 2700SOL    HW212658   6.908   4.793   4.075  2.4191  0.6084 -1.1756
 2701SOL     OW12659   4.733  10.194   1.895 -0.1212 -0.3725 -0.3998
 2701SOL    HW112660   4.684  10.206   1.977 -1.0530  1.2291 -1.1549
 2701SOL    HW212661   4.680  10.133   1.844 -0.8016  0.4753 -0.7465
 2702SOL     OW12662   0.130   2.685   5.028  0.2797  0.0930 -0.0346
 2702SOL    HW112663   0.068   2.743   5.072  0.4950 -0.8699  1.6125
 2702SOL    HW212664   0.199   2.743   4.996 -0.9974  1.0700 -1.1214
 2703SOL     OW12665   9.532   5.410  10.468 -0.2016  0.0147  0.5351
 2703SOL    HW112666   9.468   5.480  10.482  0.2685  1.1515 -2.2699
 2703SOL    HW212667   9.615   5.448  10.497 -0.1128  0.2359 -0.0013
 2704SOL     OW12668  10.675   7.152   8.602  0.1189  0.5362 -1.0217
 2704SOL    HW112669  10.633   7.100   8.533  0.9906  1.9093 -2.6510
 2704SOL    HW212670  10.632   7.123   8.682 -1.4722 -0.5953 -2.2066
 2705SOL     OW12671   7.351  10.089   1.270 -0.0290 -0.7977  0.4104
 2705SOL    HW112672   7.336  10.172   1.225  0.6517 -1.1929 -0.5747
 2705SOL    HW212673   7.289  10.028   1.231 -0.7309 -0.7000  1.3371
 2706SOL     OW12674   2.800   5.291   2.177  0.7466 -0.3656 -0.4854
 2706SOL    HW112675   2.724   5.338   2.212  0.6762 -0.2784 -0.7607
 2706SOL    HW212676   2.832   5.241   2.252  2.8247  2.6029  0.8097
 2707SOL     OW12677   6.833   8.007   9.887  0.1086 -0.2657 -0.2496
 2707SOL    HW112678   6.818   7.986   9.795  1.3127  1.5733 -0.9359
 2707SOL    HW212679   6.759   7.969   9.933 -1.5227  0.3239 -2.2350
 2708SOL     OW12680   2.601   8.062   0.611 -0.2327 -0.0176 -0.0546
 2708SOL    HW112681   2.666   7.994   0.627 -0.0628 -0.2578 -1.6149
 2708SOL    HW212682   2.519   8.015   0.597 -0.3717  0.1789  0.0872
 2709SOL     OW12683  10.133   9.621  11.740 -0.0051 -0.4514 -0.1030
 2709SOL    HW112684  10.199   9.612  11.672 -0.2793 -0.6230 -0.3483
 2709SOL    HW212685  10.157   9.557  11.807 -1.2599 -2.2405 -1.2753
 2710SOL     OW12686   0.456  10.412   5.022 -0.3770 -0.8603 -0.2889
 2710SOL    HW112687   0.461  10.336   4.964 -0.6174 -0.9298 -0.2219
 2710SOL    HW212688   0.420  10.481   4.968 -3.9389 -1.8073  0.5902
 2711SOL     OW12689  11.293  11.825   3.915  0.4990  0.1565 -0.0213
 2711SOL    HW112690  11.312  11.917   3.935  0.6039  0.5211 -1.7004
 2711SOL    HW212691  11.242  11.828   3.834 -1.9097 -1.1359  1.3324
 2712SOL     OW12692   0.547   8.776  10.209  0.6323 -0.1472  0.3238
 2712SOL    HW112693   0.641   8.760  10.202  0.5815 -0.3511  0.1021
 2712SOL    HW212694   0.540   8.856  10.262  0.8538 -2.3309  4.0461
 2713SOL     OW12695  11.941   7.632   5.513 -0.1092  0.0182 -0.5260
 2713SOL    HW112696  11.854   7.652   5.548  0.4518  1.4040  0.1506
 2713SOL    HW212697  11.999   7.695   5.555  1.0236 -0.0006 -1.9720
 2714SOL     OW12698   7.438   2.305   5.061 -0.6652 -0.0719  0.3999
 2714SOL    HW112699   7.384   2.335   4.988 -1.3469  0.8743  1.2540
 2714SOL    HW212700   7.405   2.353   5.137  0.1250 -0.9059  1.3124
 2715SOL     OW12701   8.521   4.496   2.394 -0.4320  0.2066 -0.1683
 2715SOL    HW112702   8.567   4.431   2.341  0.6021  0.6669  0.1281
 2715SOL    HW212703   8.556   4.581   2.364  0.3393  0.4652  1.3569
 2716SOL     OW12704   4.229  10.677   7.286  0.1519 -0.4227  0.4289
 2716SOL    HW112705   4.314  10.655   7.247  0.3953 -1.9703  1.6954
 2716SOL    HW212706   4.250  10.731   7.361  0.2409 -2.2562  1.8001
 2717SOL     OW12707   6.826   8.382   2.574  0.0008 -0.4021  0.2969
 2717SOL    HW112708   6.783   8.432   2.504  0.7708  0.7393  0.6167
 2717SOL    HW212709   6.782   8.411   2.654 -0.9838 -1.8218  0.3109
 2718SOL     OW12710   7.450   7.305   4.191 -0.1110  0.1758  0.1860
 2718SOL    HW112711   7.513   7.240   4.222 -0.7308  0.0033  1.1294
 2718SOL    HW212712   7.491   7.389   4.211  0.7207  0.0977 -1.0939
 2719SOL     OW12713   7.707  11.526   3.210 -0.0035  0.2302  0.1558
 2719SOL    HW112714   7.722  11.583   3.285  1.8342 -0.0042  0.0131
 2719SOL    HW212715   7.770  11.556   3.144 -1.0334 -0.0832 -1.0147
 2720SOL     OW12716   6.888   0.277   3.078 -0.0024  0.4830 -0.0626
 2720SOL    HW112717   6.882   0.363   3.035  0.5204  0.4665 -0.1758
 2720SOL    HW212718   6.931   0.295   3.162  1.4502  0.1459 -0.6933
 2721SOL     OW12719   3.664   6.992   6.990  0.0535  0.1078 -0.1021
 2721SOL    HW112720   3.636   6.948   7.070 -0.0701  0.6594  0.1636
 2721SOL    HW212721   3.615   7.074   6.990  1.9501  1.3055  0.5806
 2722SOL     OW12722   5.635   6.245   9.667  0.3773 -0.5999 -0.5441
 2722SOL    HW112723   5.695   6.220   9.598  1.2215 -0.5902  0.1589
 2722SOL    HW212724   5.692   6.279   9.737 -0.4329 -0.7196  0.1964
 2723SOL     OW12725   4.156  10.219   8.180 -0.1179  0.2076 -0.4608
 2723SOL    HW112726   4.106  10.176   8.250  2.0096  1.1343  1.7867
 2723SOL    HW212727   4.122  10.180   8.099 -0.7814 -3.0798  1.2048
 2724SOL     OW12728  11.244   7.074   6.618  0.4999  0.5235 -0.2376
 2724SOL    HW112729  11.225   7.117   6.702  0.3334  0.1304 -0.0684
 2724SOL    HW212730  11.163   7.080   6.569 -0.1356 -1.1848  0.4982
 2725SOL     OW12731  12.039   9.571   3.768 -0.0148  0.2943  0.2912
 2725SOL    HW112732  11.945   9.552   3.769  0.2576 -1.1224  1.0747
 2725SOL    HW212733  12.049   9.645   3.828 -0.3786 -1.0446  2.0931
 2726SOL     OW12734   3.546   9.957   4.362 -0.3806  0.3706  0.1118
 2726SOL    HW112735   3.551  10.042   4.407 -1.2174  0.2541  0.4329
 2726SOL    HW212736   3.486   9.972   4.289 -0.2638  0.1449 -0.0315
 2727SOL     OW12737   4.811   8.959   6.115 -0.1753  0.0305  0.1788
 2727SOL    HW112738   4.877   8.922   6.174  0.0092 -0.5239 -0.3646
 2727SOL    HW212739   4.732   8.908   6.132  0.2760 -1.1471 -1.0942
 2728SOL     OW12740   9.137   1.571   3.604 -0.1335 -0.3896 -0.0134
 2728SOL    HW112741   9.155   1.584   3.511 -0.9975  0.1630 -0.1157
 2728SOL    HW212742   9.195   1.499   3.630  2.7014  1.7167 -0.1304
 2729SOL     OW12743   0.584  10.096  10.097  0.0920 -0.4109  0.1592
 2729SOL    HW112744   0.601  10.166  10.160  0.6745 -0.3051 -0.1086
 2729SOL    HW212745   0.634  10.021  10.130  0.5116 -0.3145 -0.2438
 2730SOL     OW12746   8.885   5.263   9.230 -0.0475 -0.3959 -0.2993
 2730SOL    HW112747   8.928   5.213   9.160  1.5451  0.7004 -0.1800
 2730SOL    HW212748   8.891   5.354   9.200 -0.9942 -0.0740  0.4445
 2731SOL     OW12749   5.443   7.540   4.035  0.0571  0.7612  0.1405
 2731SOL    HW112750   5.495   7.512   4.110 -0.7992  2.0089  1.2324
 2731SOL    HW212751   5.411   7.459   3.996  1.4207  0.0515  0.4373
 2732SOL     OW12752  11.923   8.531   5.005  0.1131  0.1703  0.2362
 2732SOL    HW112753  11.844   8.566   4.964 -0.1546 -0.8679 -0.1594
 2732SOL    HW212754  11.972   8.491   4.933  2.6219  3.4999 -0.1800
 2733SOL     OW12755   1.292   4.052  10.731 -0.2851 -0.0664  0.1524
 2733SOL    HW112756   1.331   4.062  10.644  1.5082  0.3161  0.9500
 2733SOL    HW212757   1.198   4.053  10.715 -0.0111 -0.7094 -1.8554
 2734SOL     OW12758   0.844   3.856   4.838  0.0085 -0.0455 -0.3411
 2734SOL    HW112759   0.779   3.801   4.883 -0.0193 -1.1665 -1.6964
 2734SOL    HW212760   0.802   3.942   4.834  0.2572  0.2847  2.2595
 2735SOL     OW12761   6.836  11.982   6.769 -0.4525  0.2245 -0.1266
 2735SOL    HW112762   6.916  11.956   6.815 -0.4217 -0.0292 -0.3261
 2735SOL    HW212763   6.803  11.901   6.731  0.6106  0.7439 -2.2931
 2736SOL     OW12764   1.758   7.362   3.074 -0.1160 -0.0974 -0.1470
 2736SOL    HW112765   1.707   7.414   3.012  0.9924 -0.9740 -1.9041
 2736SOL    HW212766   1.782   7.283   3.025  0.3954 -1.0816  1.5939
 2737SOL     OW12767   2.193   4.785   3.308 -0.6913  0.7499  0.1500
 2737SOL    HW112768   2.179   4.858   3.246  2.1032 -0.0366 -1.5839
 2737SOL    HW212769   2.119   4.792   3.368 -2.4841  2.8646 -2.0213
 2738SOL     OW12770   1.452   3.558   6.204  0.4571 -0.4815 -0.1944
 2738SOL    HW112771   1.470   3.498   6.276  0.0942 -2.1574 -1.4376
 2738SOL    HW212772   1.521   3.539   6.140 -0.2228 -0.2616 -1.0080
 2739SOL     OW12773  10.184   0.574   5.966  0.3399 -0.2888 -0.2277
 2739SOL    HW112774  10.121   0.502   5.976  1.0106 -0.8700 -0.0380
 2739SOL    HW212775  10.163   0.635   6.037  0.5470 -0.9135  0.3890
 2740SOL     OW12776   3.483   8.344   7.179 -0.3698 -0.1366  0.1451
 2740SOL    HW112777   3.478   8.251   7.201 -0.9185  0.3025  2.0850
 2740SOL    HW212778   3.527   8.346   7.094  0.1550 -2.1258  0.3121
 2741SOL     OW12779   4.619   1.731   9.502  0.1138 -0.2520 -0.2556
 2741SOL    HW112780   4.525   1.720   9.488  0.1493 -1.4378  0.3433
 2741SOL    HW212781   4.628   1.738   9.597  0.8139 -2.3274 -0.1266
 2742SOL     OW12782   7.788   1.054   7.785  0.5403 -0.0843 -0.7665
 2742SOL    HW112783   7.764   0.962   7.774  1.1138 -0.5066  1.0998
 2742SOL    HW212784   7.866   1.065   7.731  0.8391 -0.8677 -0.5149
 2743SOL     OW12785   7.838   0.414   1.924 -0.1819 -0.2552  0.0123
 2743SOL    HW112786   7.826   0.475   1.851  0.1387 -0.3059 -0.0831
 2743SOL    HW212787   7.811   0.464   2.001 -0.0621 -0.0406 -0.0834
 2744SOL     OW12788   7.487   4.300   4.923  0.2553  0.4567 -0.1662
 2744SOL    HW112789   7.426   4.334   4.988  0.0104 -0.7547  0.2785
 2744SOL    HW212790   7.543   4.240   4.973  1.5171  1.2009 -0.6583
 2745SOL     OW12791  10.590   8.828  11.140  0.4715  0.1912  0.3434
 2745SOL    HW112792  10.677   8.865  11.155  0.4113  0.4275  0.1071
 2745SOL    HW212793  10.541   8.898  11.096  1.3272 -1.2556 -3.2155
 2746SOL     OW12794   5.400   5.104   2.472 -0.7089  0.4917 -0.6185
 2746SOL    HW112795   5.380   5.023   2.424  2.2749 -1.8828  1.7729
 2746SOL    HW212796   5.347   5.098   2.551  0.8363 -0.1242  0.4105
 2747SOL     OW12797  10.060   2.868   5.673  0.3162  0.3799  0.4510
 2747SOL    HW112798  10.072   2.937   5.737  4.6664 -0.0519  0.4025
 2747SOL    HW212799  10.065   2.912   5.588  0.9963  0.2593  0.4248
 2748SOL     OW12800   9.012   1.483   6.594  0.2885 -0.6148 -0.1347
 2748SOL    HW112801   8.993   1.572   6.563 -1.4614 -1.3792 -1.4238
 2748SOL    HW212802   9.040   1.495   6.685 -0.3052  1.2162 -0.1482
 2749SOL     OW12803  11.936  11.459   4.218  0.3028  0.6104  0.5134
 2749SOL    HW112804  11.958  11.380   4.266 -0.7937  0.8877  1.5239
 2749SOL    HW212805  11.917  11.429   4.129 -0.8980 -0.3981  1.0833
 2750SOL     OW12806   7.296  11.818   3.262 -0.4773  0.3456 -0.9551
 2750SOL    HW112807   7.253  11.733   3.256 -1.6700  0.8600 -0.1668
 2750SOL    HW212808   7.327  11.823   3.352  1.0057  0.1209 -1.4219
 2751SOL     OW12809   7.705  10.401   5.233 -0.1607 -0.3075  1.1148
 2751SOL    HW112810   7.656  10.320   5.230  0.0007 -0.5449  3.2038
 2751SOL    HW212811   7.641  10.467   5.259 -0.0746  0.0609  0.4282
 2752SOL     OW12812   3.772   3.177   4.712 -0.3833 -0.4024  0.2936
 2752SOL    HW112813   3.812   3.249   4.665 -0.7420 -0.0133  0.5766
 2752SOL    HW212814   3.840   3.110   4.717 -1.0814 -1.5217 -3.0075
 2753SOL     OW12815   7.864   5.394  10.108  0.2258  0.3253 -0.0714
 2753SOL    HW112816   7.866   5.460  10.039 -1.6836 -1.2691 -1.7804
 2753SOL    HW212817   7.949   5.351  10.102  0.7465  1.3477 -0.2283
 2754SOL     OW12818   8.629   4.676   8.089  0.3867  0.3842 -0.0849
 2754SOL    HW112819   8.653   4.589   8.058  0.8355  0.8870 -1.1957
 2754SOL    HW212820   8.590   4.719   8.013  1.2906  1.5692  0.0912
 2755SOL     OW12821   8.128   6.621  10.518  0.9097 -0.6074 -0.4128
 2755SOL    HW112822   8.211   6.621  10.472  2.2699 -1.3638  1.8813
 2755SOL    HW212823   8.128   6.541  10.570 -1.0704 -0.4071  0.0027
 2756SOL     OW12824   3.693  11.291   2.827 -1.0940 -0.1896 -0.0047
 2756SOL    HW112825   3.676  11.358   2.893 -0.3186  0.0264 -0.0115
 2756SOL    HW212826   3.629  11.308   2.758 -1.8855 -0.3920  0.6630
 2757SOL     OW12827  10.526   9.024   7.628  0.7649 -0.3199  0.5337
 2757SOL    HW112828  10.507   9.104   7.580  0.5393 -0.3257  0.6155
 2757SOL    HW212829  10.567   9.054   7.709  1.0361 -0.3050  0.3942
 2758SOL     OW12830   7.155   3.147   2.316 -0.0459 -0.0856  0.1252
 2758SOL    HW112831   7.242   3.157   2.278  0.5096 -0.0899  1.3400
 2758SOL    HW212832   7.107   3.224   2.287  0.1024 -0.4682 -1.1976
 2759SOL     OW12833   0.175   1.597   3.580  0.4718  0.0437  0.4737
 2759SOL    HW112834   0.229   1.541   3.636 -0.4365 -1.0807  0.2683
 2759SOL    HW212835   0.236   1.660   3.542  1.7152 -1.3988 -0.0274
 2760SOL     OW12836  10.237   3.986   2.806  0.6229 -0.0090 -0.3478
 2760SOL    HW112837  10.276   3.982   2.893 -0.0550 -0.9088 -0.0783
 2760SOL    HW212838  10.309   3.964   2.746  0.8573 -0.2956  0.0419
 2761SOL     OW12839   8.559   6.711   5.837 -1.0944 -0.2733 -0.2191
 2761SOL    HW112840   8.475   6.738   5.800 -1.6049  0.3117  1.2732
 2761SOL    HW212841   8.605   6.793   5.855 -0.3964 -0.5768 -0.5695
 2762SOL     OW12842   1.567   6.014   5.039  0.0939 -0.2537 -0.6665
 2762SOL    HW112843   1.509   5.949   4.999  1.5781 -2.6623  0.8408
 2762SOL    HW212844   1.647   6.010   4.987  0.0602  0.7016 -0.8003
 2763SOL     OW12845   0.648   6.427   2.268  0.5349 -0.2759  0.3910
 2763SOL    HW112846   0.568   6.416   2.216  0.2220 -1.5324  1.0738
 2763SOL    HW212847   0.696   6.497   2.225 -0.5679 -0.0424 -0.5046
 2764SOL     OW12848  11.499   5.689   2.864 -0.5036 -0.2251 -0.0880
 2764SOL    HW112849  11.578   5.645   2.894 -0.5294 -0.0899  0.1781
 2764SOL    HW212850  11.430   5.625   2.874 -0.3160 -0.5857 -0.9748
 2765SOL     OW12851   9.478   3.936  10.303 -0.5649  0.1759  0.7698
 2765SOL    HW112852   9.486   4.024  10.265  0.1788 -0.2763 -0.1798
 2765SOL    HW212853   9.437   3.950  10.388  1.5575  1.7204  1.6508
 2766SOL     OW12854   6.473   2.993   4.952 -0.0732 -0.4117 -0.6728
 2766SOL    HW112855   6.528   2.951   4.886  0.8965  1.1694 -0.9408
 2766SOL    HW212856   6.476   2.934   5.027  2.6090 -0.1006 -0.4146
 2767SOL     OW12857  11.168  11.864   9.773 -0.9050 -0.0536 -0.7832
 2767SOL    HW112858  11.116  11.900   9.845  0.1320  0.0774 -0.0804
 2767SOL    HW212859  11.169  11.769   9.789  1.3910  0.1715  0.8503
 2768SOL     OW12860   1.796   9.493   8.125  0.7308  0.3126  0.5672
 2768SOL    HW112861   1.761   9.459   8.207 -1.3559  0.0803 -0.3581
 2768SOL    HW212862   1.792   9.588   8.135  1.2682  0.2951  1.0244
 2769SOL     OW12863  11.247   4.435  10.660  0.3973 -0.7579 -0.3589
 2769SOL    HW112864  11.273   4.349  10.694  0.5939 -0.1169  1.2268
 2769SOL    HW212865  11.239   4.489  10.739 -0.8107  0.3868 -1.2428
 2770SOL     OW12866  11.859  10.173   1.825 -0.1971 -0.1392  0.2825
 2770SOL    HW112867  11.848  10.091   1.873 -0.4722  0.6171  1.5491
 2770SOL    HW212868  11.809  10.161   1.744 -1.9142 -0.4933  1.3554
 2771SOL     OW12869   2.853   2.407   9.692 -0.1225  0.2611 -0.0545
 2771SOL    HW112870   2.842   2.312   9.699 -0.9726  0.2776 -0.9054
 2771SOL    HW212871   2.861   2.423   9.598  0.5365  0.9898  0.1208
 2772SOL     OW12872   2.996   5.899   9.545 -0.2968 -0.1052  0.0366
 2772SOL    HW112873   2.972   5.807   9.550 -1.9047  0.2117 -0.9171
 2772SOL    HW212874   3.091   5.901   9.557 -0.1564 -1.9431 -0.5842
 2773SOL     OW12875   9.336   0.452   1.398  0.0737  0.5485 -0.0458
 2773SOL    HW112876   9.338   0.357   1.402  2.1372  0.5948  1.4577
 2773SOL    HW212877   9.359   0.473   1.307  3.5569 -0.4397  0.4606
 2774SOL     OW12878   3.544   7.903   0.613 -0.1403 -0.1087 -0.3453
 2774SOL    HW112879   3.578   7.829   0.663  0.6995 -1.0757 -2.2202
 2774SOL    HW212880   3.607   7.973   0.626 -0.7445  0.1864  1.1446
 2775SOL     OW12881  10.958   1.783   3.344  0.6615 -0.6165 -0.3600
 2775SOL    HW112882  10.960   1.756   3.253 -1.1108  0.8469 -0.8946
 2775SOL    HW212883  10.891   1.727   3.385  0.6211 -0.4923 -0.2522
 2776SOL     OW12884   1.248   2.301   7.115 -0.3344 -0.3098  0.5042
 2776SOL    HW112885   1.312   2.231   7.125 -0.0005 -0.0249  0.3786
 2776SOL    HW212886   1.182   2.283   7.182 -2.0755 -2.6928 -1.6567
 2777SOL     OW12887   4.367   5.289   3.017 -0.0461  0.2324  0.0578
 2777SOL    HW112888   4.360   5.273   3.112 -1.7058  0.1027 -0.0569
 2777SOL    HW212889   4.321   5.215   2.978  1.2736 -0.1133 -0.9053
 2778SOL     OW12890   5.618   1.455   2.990 -0.3208  0.3612 -0.2168
 2778SOL    HW112891   5.703   1.462   2.946  0.1917 -0.3498  0.6481
 2778SOL    HW212892   5.587   1.545   2.995  2.0463  1.1581  2.6765
 2779SOL     OW12893  11.743   8.511   7.329  0.5689  0.3494  0.4891
 2779SOL    HW112894  11.672   8.533   7.268  1.1468  0.8259 -0.0286
 2779SOL    HW212895  11.702   8.454   7.394 -0.2670  0.5424  0.1472
 2780SOL     OW12896   6.191   7.709   5.007 -0.5688  0.4336  0.3032
 2780SOL    HW112897   6.273   7.738   4.968 -1.6620  1.2223 -1.5208
 2780SOL    HW212898   6.152   7.789   5.043 -1.3237  0.3673 -0.3618
 2781SOL     OW12899   4.051  10.223  11.497  0.3359 -0.2996 -0.0279
 2781SOL    HW112900   3.994  10.248  11.570 -0.9501 -2.2640 -0.2782
 2781SOL    HW212901   4.121  10.172  11.538 -0.4771 -1.5446 -0.1400
 2782SOL     OW12902   4.541   4.974   6.881  0.0461 -0.0719  0.0458
 2782SOL    HW112903   4.577   5.036   6.818  1.4196 -1.7503 -0.9003
 2782SOL    HW212904   4.494   4.910   6.827  0.6596 -1.1537  0.7571
 2783SOL     OW12905   8.191   7.688  11.968 -0.8015 -0.5365  0.7030
 2783SOL    HW112906   8.170   7.701  12.060 -0.7695  1.2662  0.4990
 2783SOL    HW212907   8.286   7.698  11.962 -0.9256  0.6296  0.3295
 2784SOL     OW12908   4.126   9.798   2.996 -0.3064  0.5138 -0.0921
 2784SOL    HW112909   4.208   9.833   3.029 -0.4773 -0.2683  1.2145
 2784SOL    HW212910   4.064   9.809   3.068 -1.2672  0.7745 -0.9372
 2785SOL     OW12911   9.379   5.450   6.757  0.3224 -0.2441  0.8170
 2785SOL    HW112912   9.300   5.502   6.745  1.3138  1.3503  0.8106
 2785SOL    HW212913   9.407   5.469   6.846  1.4492  0.3659  0.3580
 2786SOL     OW12914   3.770   8.485   3.444  0.1975  0.1118  0.2834
 2786SOL    HW112915   3.696   8.452   3.393  0.0500  0.9677 -0.0712
 2786SOL    HW212916   3.791   8.414   3.504  0.1076 -0.7464 -0.6892
 2787SOL     OW12917   2.229  10.232   8.463 -0.2066 -0.6621  0.1812
 2787SOL    HW112918   2.277  10.150   8.449  1.2850  0.4326 -1.5690
 2787SOL    HW212919   2.230  10.275   8.377 -2.0573  0.6296  0.7513
 2788SOL     OW12920   9.098   0.241  11.264 -0.1258 -0.2490 -0.3271
 2788SOL    HW112921   9.177   0.187  11.269 -0.1072 -0.2254 -0.3735
 2788SOL    HW212922   9.108   0.305  11.335 -1.6356 -2.2800  1.8764
 2789SOL     OW12923   9.092  10.193   3.572 -0.2004  0.0179  0.2658
 2789SOL    HW112924   9.102  10.285   3.597  0.2212 -0.0256  0.2535
 2789SOL    HW212925   9.085  10.195   3.477 -2.3092  0.2354  0.3563
 2790SOL     OW12926   1.933   0.094   4.512  0.1471  0.1045 -0.3046
 2790SOL    HW112927   2.020   0.082   4.475  0.1397 -0.0449 -0.2737
 2790SOL    HW212928   1.876   0.112   4.437  0.1203 -0.2606 -0.3730
 2791SOL     OW12929   0.855  10.416   0.329 -0.3459 -0.2837  0.4179
 2791SOL    HW112930   0.934  10.403   0.276  0.3457 -2.5733  1.8582
 2791SOL    HW212931   0.875  10.492   0.384 -0.1891  0.7088 -0.9592
 2792SOL     OW12932   2.257  11.169   2.454 -0.0355 -0.5859  0.0793
 2792SOL    HW112933   2.197  11.225   2.502  0.2864  0.9801 -1.2453
 2792SOL    HW212934   2.324  11.229   2.420 -0.2041 -1.5875 -2.2114
 2793SOL     OW12935   0.148   4.910   9.987  0.3330  1.0644  0.6458
 2793SOL    HW112936   0.188   4.984  10.033  2.0238  1.0955 -0.7955
 2793SOL    HW212937   0.220   4.849   9.971 -0.7701 -0.2746  0.5717
 2794SOL     OW12938   4.161   5.343   9.509 -0.1997  0.5770  0.0456
 2794SOL    HW112939   4.066   5.333   9.499 -0.4429  1.8315  0.9190
 2794SOL    HW212940   4.197   5.260   9.477 -1.4959  0.5669 -1.5286
 2795SOL     OW12941   9.590   1.732   0.570  0.0534  0.1311 -0.3383
 2795SOL    HW112942   9.530   1.807   0.565 -1.3408 -0.8118  1.2277
 2795SOL    HW212943   9.537   1.662   0.608  2.8482  0.0718  4.0073
 2796SOL     OW12944   6.598  10.100   3.135 -0.5790  0.1638  0.8185
 2796SOL    HW112945   6.689  10.086   3.160  0.2080 -1.7587 -2.5502
 2796SOL    HW212946   6.584  10.194   3.143  2.1967  0.7096 -0.0381
 2797SOL     OW12947   4.183   4.794   5.253  0.0022  0.1123  0.0853
 2797SOL    HW112948   4.205   4.727   5.318  0.5162  1.6071  1.5298
 2797SOL    HW212949   4.264   4.808   5.204 -0.8663 -2.3966 -2.3275
 2798SOL     OW12950   8.498   8.251   8.029 -0.3846 -0.5833 -0.1208
 2798SOL    HW112951   8.584   8.293   8.033 -0.5575 -0.3124  1.2653
 2798SOL    HW212952   8.438   8.314   8.068 -1.3653 -0.4859 -1.6764
 2799SOL     OW12953   4.899   6.106   5.859 -0.1078 -0.0643  0.6697
 2799SOL    HW112954   4.877   6.154   5.939  1.9313 -1.5369  2.2119
 2799SOL    HW212955   4.875   6.016   5.879 -2.0547 -0.1213 -1.4554
 2800SOL     OW12956   6.958  12.067   7.306 -0.3651  0.0533 -0.5279
 2800SOL    HW112957   6.902  12.017   7.247  1.6089 -2.2527 -0.6071
 2800SOL    HW212958   7.042  12.072   7.260  0.2653  1.1554  0.6779
 2801SOL     OW12959  10.487   1.558   9.707 -0.0146 -0.3029  0.1900
 2801SOL    HW112960  10.398   1.537   9.735  0.3897 -1.3758  0.7144
 2801SOL    HW212961  10.519   1.619   9.774 -0.4436  0.3328 -0.1664
 2802SOL     OW12962   9.949  11.729  10.632  0.5077 -0.8090  0.1532
 2802SOL    HW112963  10.017  11.744  10.698 -0.1304  1.0811  0.4150
 2802SOL    HW212964   9.875  11.693  10.681 -0.3514  1.5819  0.7197
 2803SOL     OW12965   1.113   2.047  10.143  0.0647 -0.3313  0.2577
 2803SOL    HW112966   1.142   2.044  10.234  1.0376  0.2280 -0.0193
 2803SOL    HW212967   1.074   2.134  10.134 -0.6226 -0.6278  0.3038
 2804SOL     OW12968   5.431   8.337   1.260  0.4389  0.5845 -0.1065
 2804SOL    HW112969   5.434   8.263   1.321  0.7414  0.5194 -0.1975
 2804SOL    HW212970   5.437   8.297   1.173 -0.4951  0.6432 -0.2003
 2805SOL     OW12971   1.700  10.189   3.973 -0.7764  0.0459  0.1015
 2805SOL    HW112972   1.645  10.142   4.035  1.8589 -0.9321  1.8555
 2805SOL    HW212973   1.731  10.122   3.912 -0.9000  0.4510 -0.4188
 2806SOL     OW12974   6.103  10.040   1.262 -0.2514 -0.3015  0.2250
 2806SOL    HW112975   6.104  10.078   1.350 -0.5842  0.7944 -0.2253
 2806SOL    HW212976   6.195  10.034   1.236 -0.1547 -0.6044  0.6305
 2807SOL     OW12977   3.592  10.033   1.689  0.0509 -0.0403  0.2665
 2807SOL    HW112978   3.621  10.124   1.688  3.0065 -0.8356 -1.7404
 2807SOL    HW212979   3.514  10.032   1.634 -0.2673  1.3132  0.6568
 2808SOL     OW12980  11.460   4.219   9.290  0.1276  0.0433  0.5829
 2808SOL    HW112981  11.516   4.287   9.254 -1.7973  1.1650 -0.4657
 2808SOL    HW212982  11.395   4.203   9.222 -1.9809  0.2234  2.4303
 2809SOL     OW12983   1.120   6.778   5.225  0.2424 -0.0698 -0.2918
 2809SOL    HW112984   1.119   6.874   5.222  0.7986  0.0597  1.7271
 2809SOL    HW212985   1.031   6.752   5.201  0.5489  0.8254 -2.5946
 2810SOL     OW12986   4.955   0.402  10.654  0.5016 -0.2670  0.4593
 2810SOL    HW112987   4.903   0.461  10.599  1.3089  0.3205  0.3074
 2810SOL    HW212988   4.894   0.333  10.679  0.1406 -0.6740 -1.3430
 2811SOL     OW12989   0.859  11.332   0.064 -0.1604  0.1621  0.6404
 2811SOL    HW112990   0.812  11.336  -0.019  0.2164 -2.3793  0.2248
 2811SOL    HW212991   0.792  11.309   0.129 -0.0576 -0.2977  0.5908
 2812SOL     OW12992   4.354   8.740   1.990  0.2535  0.0439 -0.1073
 2812SOL    HW112993   4.413   8.691   1.933  0.6889  1.0891 -0.5972
 2812SOL    HW212994   4.342   8.684   2.067  2.7406  0.2214  0.4988
 2813SOL     OW12995   9.965   5.116   8.089 -0.1983  0.2086 -0.1161
 2813SOL    HW112996   9.972   5.208   8.115  0.8215 -0.0575  0.6539
 2813SOL    HW212997  10.039   5.102   8.029  0.3689 -0.3791  0.6931
 2814SOL     OW12998   7.602   8.022   7.976 -0.0219 -0.0516  0.7041
 2814SOL    HW112999   7.559   8.095   7.932 -0.7929 -0.3302  0.9734
 2814SOL    HW213000   7.530   7.974   8.017  0.2237 -2.0482 -1.0416
 2815SOL     OW13001  11.380   5.339   8.475 -0.2313  0.4447 -0.2108
 2815SOL    HW113002  11.441   5.353   8.403 -2.0029  1.8605 -1.5346
 2815SOL    HW213003  11.296   5.322   8.432 -1.4140  1.6861  1.4722
 2816SOL     OW13004   7.859   7.005   7.375  0.0049  0.5238  0.0482
 2816SOL    HW113005   7.876   7.045   7.460  0.3452  0.7618 -0.1274
 2816SOL    HW213006   7.886   6.914   7.384  0.3987  0.6423  0.0842
 2817SOL     OW13007   8.681   7.480  11.394  0.4263 -0.5866 -0.2315
 2817SOL    HW113008   8.677   7.534  11.315  1.6551  0.9074  0.6657
 2817SOL    HW213009   8.773   7.455  11.401  0.7840  1.0119  1.7543
 2818SOL     OW13010   9.923   8.974   9.329  0.0800 -0.2337 -0.1112
 2818SOL    HW113011   9.872   9.014   9.259 -2.0154  0.5090  1.7081
 2818SOL    HW213012   9.985   9.042   9.356  0.9714 -0.5600 -1.2308
 2819SOL     OW13013   3.561   3.627   3.899  0.0536 -0.2085  0.0001
 2819SOL    HW113014   3.500   3.665   3.835  0.1664  0.4658  0.2858
 2819SOL    HW213015   3.522   3.542   3.921 -1.3620  0.6576  0.9806
 2820SOL     OW13016   4.911  10.898   3.831 -0.2632 -0.3342  1.1208
 2820SOL    HW113017   4.907  10.989   3.801 -2.9249 -0.2520  1.4199
 2820SOL    HW213018   4.896  10.904   3.926 -0.1266 -1.0689  1.1954
 2821SOL     OW13019   2.278   6.298   5.239  0.6046 -0.0416  0.4418
 2821SOL    HW113020   2.291   6.203   5.234  0.9433  0.0577 -0.7443
 2821SOL    HW213021   2.265   6.315   5.332  2.1942 -1.0392  0.8822
 2822SOL     OW13022  10.372   4.748   4.466 -0.0704  0.4163  0.0848
 2822SOL    HW113023  10.324   4.665   4.472 -2.0858  1.5610  1.0062
 2822SOL    HW213024  10.304   4.813   4.446  1.4893  1.8285 -0.8784
 2823SOL     OW13025   0.393  11.757   6.849 -0.0924 -0.2505 -0.2146
 2823SOL    HW113026   0.325  11.808   6.804  0.6953  1.0642  0.0450
 2823SOL    HW213027   0.468  11.817   6.855  0.1753 -0.7288  1.9414
 2824SOL     OW13028   0.924  10.537   7.265 -0.3254  0.0977  0.1565
 2824SOL    HW113029   0.864  10.612   7.259 -0.0321  0.3089 -0.1598
 2824SOL    HW213030   1.000  10.570   7.312  0.0080  0.1303 -0.4026
 2825SOL     OW13031   9.013   6.875   6.155 -0.3541 -0.8136  0.6159
 2825SOL    HW113032   9.077   6.837   6.215 -0.2877  0.8113  1.6236
 2825SOL    HW213033   9.063   6.939   6.104 -0.9721 -0.1491  0.8172
 2826SOL     OW13034  11.781   3.752  11.156 -0.0799  0.1218 -0.1754
 2826SOL    HW113035  11.854   3.691  11.168 -1.0748 -0.9218  0.8104
 2826SOL    HW213036  11.770   3.794  11.241 -2.1128 -1.4931  0.4458
 2827SOL     OW13037   5.979   5.674   9.012  0.1037  0.0810  0.0651
 2827SOL    HW113038   6.033   5.751   9.033 -0.4648  0.3267  0.6692
 2827SOL    HW213039   5.892   5.695   9.046 -0.3849 -0.3111 -0.9085
 2828SOL     OW13040   7.026  11.165   0.427  0.5461 -0.4051 -0.1095
 2828SOL    HW113041   7.090  11.159   0.498 -0.1265 -0.9539  0.4728
 2828SOL    HW213042   6.941  11.166   0.472  0.1142 -0.5607 -0.8984
 2829SOL     OW13043   3.535   8.135   1.394  0.0032  0.4534  0.5139
 2829SOL    HW113044   3.477   8.178   1.332 -0.5985  0.4164  1.0358
 2829SOL    HW213045   3.477   8.083   1.450  0.5953 -0.0471  0.6811
 2830SOL     OW13046   3.163   4.315   8.812  0.0318  0.2653 -0.5005
 2830SOL    HW113047   3.226   4.382   8.836 -0.4649  0.7228 -0.4380
 2830SOL    HW213048   3.204   4.266   8.740 -0.4057  1.9557 -1.9758
 2831SOL     OW13049   5.605   0.552   9.542  0.0310 -0.3061 -0.6487
 2831SOL    HW113050   5.519   0.542   9.500  0.1749 -1.8016 -0.6705
 2831SOL    HW213051   5.613   0.475   9.599  1.1739  0.0305 -0.3201
 2832SOL     OW13052  10.994   6.494  12.058  0.0470 -0.1113 -0.1236
 2832SOL    HW113053  11.051   6.548  12.113 -0.4291 -0.4431  0.7140
 2832SOL    HW213054  11.042   6.411  12.048  0.2005  0.0025 -0.3363
 2833SOL     OW13055  10.047   3.395   9.823 -0.1657  0.4265  0.4084
 2833SOL    HW113056  10.098   3.469   9.790 -0.2355 -0.2203 -1.2322
 2833SOL    HW213057   9.957   3.415   9.800 -0.2004 -0.1006  0.0693
 2834SOL     OW13058   3.490   5.151   5.259 -0.3671 -0.0582  0.1512
 2834SOL    HW113059   3.412   5.206   5.269 -0.5312  0.0075 -1.2891
 2834SOL    HW213060   3.550   5.182   5.327 -0.6835  1.5203 -0.2472
 2835SOL     OW13061   2.324   0.683   9.711 -0.5019 -0.1466  0.4405
 2835SOL    HW113062   2.359   0.595   9.712  0.8079  0.3411 -0.3441
 2835SOL    HW213063   2.229   0.671   9.702 -0.2354 -1.4453 -0.9749
 2836SOL     OW13064   0.324   5.770   1.912 -0.4867 -0.7339  0.1766
 2836SOL    HW113065   0.296   5.750   2.002 -2.7140 -1.1747 -0.5683
 2836SOL    HW213066   0.247   5.807   1.870 -0.0458 -2.1609 -2.0712
 2837SOL     OW13067   4.896   2.568   2.244 -0.5416 -0.1548 -0.2208
 2837SOL    HW113068   4.905   2.573   2.149  0.1803  1.9770 -0.0956
 2837SOL    HW213069   4.813   2.612   2.262  0.2020  1.1106  0.2300
 2838SOL     OW13070   0.590   7.579  11.727  0.0712 -0.2678 -0.2858
 2838SOL    HW113071   0.550   7.558  11.642 -0.4976 -1.7787  0.3263
 2838SOL    HW213072   0.676   7.538  11.724 -0.1401 -0.7423  0.0426
 2839SOL     OW13073   1.614   9.642   2.582 -0.3018 -0.0355  0.4718
 2839SOL    HW113074   1.573   9.726   2.560  0.0214  0.1247  0.4687
 2839SOL    HW213075   1.567   9.578   2.529 -0.4661  0.1598  0.3765
 2840SOL     OW13076  10.118  10.749   4.654 -0.1345  0.0548  0.6494
 2840SOL    HW113077  10.079  10.664   4.633 -0.2504  0.4296 -0.7234
 2840SOL    HW213078  10.140  10.787   4.569  1.5639  0.6374  1.3139
 2841SOL     OW13079   3.231  10.529   7.737 -0.1924 -0.8327 -0.1477
 2841SOL    HW113080   3.307  10.471   7.732  0.9410  0.4666  0.9520
 2841SOL    HW213081   3.216  10.558   7.647  0.9414 -0.7351 -0.3161
 2842SOL     OW13082   5.757   0.253   6.157 -0.3581 -0.4444 -0.2461
 2842SOL    HW113083   5.842   0.224   6.125 -0.5150  0.4115 -1.5462
 2842SOL    HW213084   5.701   0.175   6.153  0.7575 -1.4592  2.2901
 2843SOL     OW13085   1.436   3.706   1.837 -0.3602  0.0350  0.1519
 2843SOL    HW113086   1.399   3.646   1.902 -1.2569 -0.3025 -0.6488
 2843SOL    HW213087   1.366   3.719   1.773 -0.2272  2.0104  0.3290
 2844SOL     OW13088   7.279   1.088   1.110 -0.3846 -0.1083  0.0184
 2844SOL    HW113089   7.320   1.142   1.178  0.1888 -1.1437  0.5200
 2844SOL    HW213090   7.239   1.151   1.050 -0.4001  0.8476  0.9985
 2845SOL     OW13091   5.989   6.131   6.850 -0.0017 -0.1530 -0.3094
 2845SOL    HW113092   5.946   6.091   6.925 -1.3306 -1.0805 -1.5160
 2845SOL    HW213093   6.017   6.057   6.796  1.9267  0.4669 -0.2297
 2846SOL     OW13094   4.265   0.765   2.269  0.9740  0.1790 -0.0500
 2846SOL    HW113095   4.328   0.709   2.315 -0.2614  0.0880  1.5961
 2846SOL    HW213096   4.186   0.711   2.261  0.5921  0.8189 -0.7171
 2847SOL     OW13097   2.222   4.312   9.773  0.4714 -0.1402  0.5088
 2847SOL    HW113098   2.204   4.391   9.825  0.7412  0.7857 -0.7439
 2847SOL    HW213099   2.315   4.296   9.788  0.4905 -0.0279  0.5159
 2848SOL     OW13100   1.280   0.664  10.422 -0.4587 -0.1237 -0.3484
 2848SOL    HW113101   1.212   0.606  10.390 -1.5561  0.5538  0.6934
 2848SOL    HW213102   1.251   0.690  10.510 -0.0894  2.0893 -0.8267
 2849SOL     OW13103   2.883   2.353   0.296 -0.0554 -0.3615 -0.0009
 2849SOL    HW113104   2.880   2.262   0.268 -1.1960 -0.3687  0.0960
 2849SOL    HW213105   2.799   2.390   0.266  0.5196  0.7339 -0.3091
 2850SOL     OW13106  10.309   0.342   7.257  0.2418  0.2399  0.4884
 2850SOL    HW113107  10.402   0.335   7.240  0.2367 -0.2391  0.6463
 2850SOL    HW213108  10.270   0.268   7.210  0.0850 -0.2953  1.4339
 2851SOL     OW13109  10.170   2.736   2.221  0.4343  0.2030 -0.1356
 2851SOL    HW113110  10.250   2.688   2.200  1.1311  0.8153  1.0458
 2851SOL    HW213111  10.168   2.809   2.160  1.5029  0.9540  0.6992
 2852SOL     OW13112  11.956   3.221   1.062 -0.1110 -0.2897 -0.2161
 2852SOL    HW113113  11.936   3.182   1.147  1.3807 -0.1146  0.2372
 2852SOL    HW213114  11.912   3.306   1.064 -0.7367 -0.6171  0.0604
 2853SOL     OW13115   8.755   7.744   6.498  0.2330  0.1135  0.0561
 2853SOL    HW113116   8.829   7.684   6.492  0.2665  0.2655 -2.3778
 2853SOL    HW213117   8.726   7.755   6.407 -3.5929 -0.9159  0.9395
 2854SOL     OW13118  12.086   0.144   1.801  0.5931 -0.2446 -0.4799
 2854SOL    HW113119  12.062   0.207   1.869  2.4074  0.3063 -0.2999
 2854SOL    HW213120  12.033   0.066   1.821  0.0282  0.4159  0.6848
 2855SOL     OW13121   7.893   8.442   5.104 -0.1612 -0.1165 -0.3099
 2855SOL    HW113122   7.814   8.470   5.057  0.9368  3.2495 -0.4712
 2855SOL    HW213123   7.936   8.381   5.044 -1.6370 -0.4213 -1.1136
 2856SOL     OW13124   4.918   6.452   5.973  0.6883  0.6841  0.3656
 2856SOL    HW113125   4.965   6.465   5.890 -0.6542  2.7112 -0.1567
 2856SOL    HW213126   4.987   6.442   6.038  1.8734  2.3491 -0.5515
 2857SOL     OW13127   3.133  11.049   6.022 -0.5391  0.3735  0.4186
 2857SOL    HW113128   3.038  11.056   6.021 -0.5175  0.6748 -0.7401
 2857SOL    HW213129   3.152  10.972   5.969 -0.1045  0.9073 -0.2175
 2858SOL     OW13130   2.422   6.000   9.492 -0.6352  0.4240  0.0407
 2858SOL    HW113131   2.385   5.980   9.578  0.3727  1.0036  0.6226
 2858SOL    HW213132   2.372   6.076   9.461 -3.0571 -1.5403 -1.2628
 2859SOL     OW13133   0.718  10.477  10.091 -0.5350 -0.3193  0.7391
 2859SOL    HW113134   0.736  10.452  10.000  0.3933 -1.0041  1.0915
 2859SOL    HW213135   0.719  10.394  10.139  1.0264  0.2150  1.6945
 2860SOL     OW13136   0.814   4.222   5.396 -0.0868  0.3632  0.4938
 2860SOL    HW113137   0.872   4.187   5.464  1.6226  2.0011 -0.0441
 2860SOL    HW213138   0.827   4.164   5.321 -0.8508 -0.5640  1.0484
 2861SOL     OW13139   6.439   3.943  11.231  0.0515 -0.5366  0.4490
 2861SOL    HW113140   6.406   3.871  11.286 -0.1220 -0.8933 -0.1124
 2861SOL    HW213141   6.478   4.005  11.293 -0.0313 -0.9933  0.9641
 2862SOL     OW13142   4.876   6.516   9.007 -0.0710 -0.6177  0.1687
 2862SOL    HW113143   4.926   6.446   9.049 -1.3503 -1.5990  0.0933
 2862SOL    HW213144   4.825   6.555   9.077 -0.8654 -1.0874 -0.1351
 2863SOL     OW13145  10.773   9.112   6.461 -0.5953  0.5978  0.1904
 2863SOL    HW113146  10.764   9.036   6.518  0.1382  0.1611 -0.2535
 2863SOL    HW213147  10.762   9.076   6.372 -1.9170  1.2925  0.0496
 2864SOL     OW13148   0.071   7.483   6.955 -0.1432 -0.0748 -0.5599
 2864SOL    HW113149   0.162   7.454   6.948 -0.4955 -1.0498 -1.5357
 2864SOL    HW213150   0.057   7.538   6.878 -0.3528  0.1226 -0.3809
 2865SOL     OW13151   4.948  10.062   1.515 -0.4215 -0.0892 -0.5042
 2865SOL    HW113152   4.936  10.126   1.585 -0.1123 -0.9138  0.3230
 2865SOL    HW213153   5.030  10.087   1.473  0.1941 -0.4959  0.4325
 2866SOL     OW13154   6.722  12.024   0.208 -0.2999  0.3074  0.0173
 2866SOL    HW113155   6.769  11.943   0.227  1.6386  1.2804 -0.4009
 2866SOL    HW213156   6.660  12.033   0.280 -0.7457 -1.6600 -0.0654
 2867SOL     OW13157   7.799   1.708   7.941  0.6615 -0.0848  0.1397
 2867SOL    HW113158   7.870   1.654   7.977 -0.2090 -0.4532  1.3465
 2867SOL    HW213159   7.840   1.753   7.866  1.7077 -1.5490 -0.2233
 2868SOL     OW13160  11.791   0.908   5.820 -0.1794  0.3893  0.0918
 2868SOL    HW113161  11.865   0.851   5.797 -1.5035 -1.3673  0.0364
 2868SOL    HW213162  11.770   0.954   5.739 -0.1101 -0.2151 -0.2704
 2869SOL     OW13163   1.757  10.408   9.331 -0.1470  0.2775  0.2627
 2869SOL    HW113164   1.761  10.479   9.395  0.2881 -0.0976  0.6579
 2869SOL    HW213165   1.748  10.453   9.247 -1.4581  0.7600  0.6318
 2870SOL     OW13166   2.677   1.206   9.552 -0.8018 -0.5648 -0.5977
 2870SOL    HW113167   2.641   1.138   9.494  2.3168 -2.1211 -0.9115
 2870SOL    HW213168   2.755   1.237   9.506  0.6675 -0.4072  1.8277
 2871SOL     OW13169   5.738  10.515   6.416 -0.5318 -0.1300  0.3358
 2871SOL    HW113170   5.779  10.589   6.462  0.3495 -0.1773 -0.3465
 2871SOL    HW213171   5.743  10.443   6.478 -0.2344  0.0584  0.5385
 2872SOL     OW13172  10.644   8.749  11.545  0.2686 -0.5743 -0.0110
 2872SOL    HW113173  10.648   8.700  11.627  1.7668 -0.7956 -0.1941
 2872SOL    HW213174  10.579   8.818  11.561  0.7073 -0.4686  1.4303
 2873SOL     OW13175  11.394  11.870   6.610 -0.3275  0.2758  0.8463
 2873SOL    HW113176  11.355  11.881   6.524  1.1846 -0.2055  0.0575
 2873SOL    HW213177  11.328  11.902   6.671 -1.2007  1.1756 -0.5197
 2874SOL     OW13178   9.205  10.078   8.105  0.5002 -0.1411  0.1656
 2874SOL    HW113179   9.239   9.989   8.098 -1.0871 -0.7961  0.3027
 2874SOL    HW213180   9.259  10.130   8.046  1.2591 -1.2553 -0.1349
 2875SOL     OW13181   8.816   2.337   7.049  0.2805  0.0826 -0.3397
 2875SOL    HW113182   8.909   2.358   7.050  0.3339 -0.0902  1.2384
 2875SOL    HW213183   8.773   2.421   7.032  0.6850  0.4551  0.4245
 2876SOL     OW13184   6.392   8.772   6.935 -0.6353  0.0480 -0.5907
 2876SOL    HW113185   6.384   8.770   6.840  1.3462  0.0478 -0.8027
 2876SOL    HW213186   6.374   8.862   6.960 -1.0586  0.0703 -0.9783
 2877SOL     OW13187   6.302   0.140   6.517  0.3707  0.7424 -0.6113
 2877SOL    HW113188   6.344   0.224   6.536  0.3668  0.3443  1.3279
 2877SOL    HW213189   6.362   0.075   6.554 -0.2776 -0.0375 -0.9076
 2878SOL     OW13190   0.813   1.218   4.448  0.3562 -0.0652  0.4816
 2878SOL    HW113191   0.794   1.238   4.539 -0.0975  2.5149 -0.0993
 2878SOL    HW213192   0.766   1.137   4.431 -0.7862  0.2077  2.1347
 2879SOL     OW13193   4.010  11.391  10.965 -0.0600 -0.2776 -0.6116
 2879SOL    HW113194   4.053  11.454  11.023  0.9021 -0.2167 -1.3613
 2879SOL    HW213195   4.007  11.435  10.880 -0.4738 -0.7719 -0.8574
 2880SOL     OW13196  10.869   2.745   8.138 -0.5536 -0.5114  0.3750
 2880SOL    HW113197  10.791   2.760   8.084 -0.7488 -1.0268  0.5090
 2880SOL    HW213198  10.867   2.652   8.158  0.5606 -0.7105 -0.3261
 2881SOL     OW13199   8.133   3.546   1.349 -0.2161 -0.5811  0.2776
 2881SOL    HW113200   8.182   3.500   1.281 -1.1581 -0.9438 -0.1822
 2881SOL    HW213201   8.064   3.484   1.374  0.6507 -0.8039  2.2081
 2882SOL     OW13202   1.568   8.823   8.953  0.3711 -0.1997  0.2536
 2882SOL    HW113203   1.541   8.913   8.935  0.3255 -0.3906 -0.7055
 2882SOL    HW213204   1.656   8.817   8.915  0.1944 -0.6786 -0.0939
 2883SOL     OW13205   9.140   8.404   9.052  0.6700 -0.3796 -0.3412
 2883SOL    HW113206   9.052   8.405   9.087  0.7825 -0.4392 -0.0547
 2883SOL    HW213207   9.129   8.375   8.961  0.2173  1.2965 -0.8570
 2884SOL     OW13208   8.421  12.004  10.361  0.1343  0.1631 -0.1354
 2884SOL    HW113209   8.454  12.008  10.451 -0.3344  0.4430  0.0260
 2884SOL    HW213210   8.495  11.970  10.310  0.9944  1.6359  0.0664
 2885SOL     OW13211   1.366   6.856   6.555 -0.6084 -0.5580 -0.7311
 2885SOL    HW113212   1.449   6.825   6.518 -0.5012 -1.6580  0.3564
 2885SOL    HW213213   1.389   6.931   6.609 -0.0086 -1.9519  1.0242
 2886SOL     OW13214  11.097  12.117  10.865 -0.4873 -0.6710  0.0764
 2886SOL    HW113215  11.087  12.179  10.793  1.6542 -0.2243  0.0945
 2886SOL    HW213216  11.035  12.147  10.932 -3.5132 -1.8735 -1.9710
 2887SOL     OW13217   3.656   3.258  11.117 -0.3374 -0.1257  0.3921
 2887SOL    HW113218   3.560   3.260  11.108 -0.3302 -0.1453  0.3030
 2887SOL    HW213219   3.673   3.185  11.175 -0.2292 -1.9410 -1.7849
 2888SOL     OW13220   7.774   5.528   5.987  0.1870  0.5386  0.4245
 2888SOL    HW113221   7.800   5.492   6.072  0.9209  0.6874  0.2705
 2888SOL    HW213222   7.749   5.619   6.007  1.6471  0.9930  0.2908
 2889SOL     OW13223   9.474   3.838   4.978 -0.1845 -0.3913  0.1126
 2889SOL    HW113224   9.522   3.915   5.011 -1.1232 -0.0930  0.8237
 2889SOL    HW213225   9.500   3.767   5.037 -2.5099  0.3205  2.1857
 2890SOL     OW13226   9.226   6.608   2.171 -0.2759 -0.0687 -0.5540
 2890SOL    HW113227   9.258   6.696   2.149  0.4505  0.0955  1.0631
 2890SOL    HW213228   9.149   6.596   2.114 -0.9503  1.9810 -0.1561
 2891SOL     OW13229   7.051   8.711   8.200  0.5569  0.1584  0.5322
 2891SOL    HW113230   6.961   8.711   8.166  1.1642  0.4753 -1.1418
 2891SOL    HW213231   7.053   8.635   8.260 -0.9299  0.4159  0.9574
 2892SOL     OW13232   9.923   7.652  11.764  0.2430  0.4709  0.3918
 2892SOL    HW113233   9.927   7.721  11.831  4.5008  0.2650  0.5672
 2892SOL    HW213234  10.004   7.603  11.774 -1.1366 -2.5992 -1.8864
 2893SOL     OW13235   9.562  10.774   1.318  0.1960 -0.0993 -0.0157
 2893SOL    HW113236   9.516  10.707   1.268  0.6621 -1.0989  0.8790
 2893SOL    HW213237   9.586  10.840   1.252 -1.5052 -0.0794 -0.6838
 2894SOL     OW13238   9.510   8.642  10.017 -0.0246 -0.0801  0.2938
 2894SOL    HW113239   9.538   8.655  10.107  1.6101  1.0457 -0.3197
 2894SOL    HW213240   9.467   8.724   9.993  1.6703  0.5881 -0.6336
 2895SOL     OW13241   4.492  11.046   9.825 -0.4279 -0.2737  0.0535
 2895SOL    HW113242   4.507  11.052   9.730  0.4749  0.2233  0.2236
 2895SOL    HW213243   4.463  11.134   9.850  0.3461 -0.1175  0.4116
 2896SOL     OW13244   4.867   4.586   9.822 -0.5875  0.1170 -0.2176
 2896SOL    HW113245   4.949   4.559   9.863 -2.0147 -1.6771  1.7171
 2896SOL    HW213246   4.854   4.677   9.851  0.4778  0.2609 -0.1669
 2897SOL     OW13247  12.034   0.895   7.950 -0.3246  0.2639  0.3405
 2897SOL    HW113248  11.989   0.951   7.886 -2.3475 -2.9957 -1.3539
 2897SOL    HW213249  12.127   0.912   7.935 -0.7547  0.5887 -2.6985
 2898SOL     OW13250   9.689  11.556   5.615 -0.5276  0.4018  0.2686
 2898SOL    HW113251   9.716  11.646   5.596 -1.0703  0.3010 -1.0628
 2898SOL    HW213252   9.769  11.514   5.647 -0.1626  1.2330  0.4792
 2899SOL     OW13253   6.779   7.843   8.853  0.4543 -0.2057 -0.4113
 2899SOL    HW113254   6.727   7.838   8.773 -0.1241 -0.0435 -0.0499
 2899SOL    HW213255   6.719   7.879   8.919  0.9483 -0.2534  0.0730
 2900SOL     OW13256   1.184   0.370   3.689 -0.4066 -0.3431  0.2096
 2900SOL    HW113257   1.166   0.313   3.764  0.9053  0.5386  1.2485
 2900SOL    HW213258   1.102   0.418   3.676 -1.2076 -1.7139 -0.0554
 2901SOL     OW13259  10.557   6.444   9.715 -0.2435  0.4742 -0.1444
 2901SOL    HW113260  10.613   6.420   9.641  0.2178 -1.2188  0.6910
 2901SOL    HW213261  10.480   6.388   9.706  0.1623 -0.3125  1.0483
 2902SOL     OW13262  11.887   4.162  11.005  0.3761 -0.1093 -0.3409
 2902SOL    HW113263  11.921   4.097  10.943  0.5675 -0.1819 -0.1617
 2902SOL    HW213264  11.849   4.230  10.950 -1.4156 -1.2115 -0.5282
 2903SOL     OW13265  11.377   4.266   5.857  0.2591  0.1315  0.3365
 2903SOL    HW113266  11.436   4.312   5.797 -0.5341  0.8460  0.0860
 2903SOL    HW213267  11.399   4.301   5.943  1.4866 -0.9857  0.5123
 2904SOL     OW13268  10.524   3.434  11.028  0.4702 -0.0088 -0.0236
 2904SOL    HW113269  10.544   3.384  11.108 -1.0801 -0.9366 -0.1746
 2904SOL    HW213270  10.431   3.419  11.013  0.5711  0.7598 -1.6103
 2905SOL     OW13271   5.253   4.834   7.510  0.3360  0.0468  0.6181
 2905SOL    HW113272   5.253   4.832   7.414  0.9796  0.0428  0.6115
 2905SOL    HW213273   5.217   4.920   7.532 -0.1869 -0.1088  0.3843
 2906SOL     OW13274   0.321   8.906   8.081  0.4537  0.5494 -0.1382
 2906SOL    HW113275   0.415   8.901   8.097  0.2391 -2.2053  0.8118
 2906SOL    HW213276   0.312   8.885   7.988  0.7565  0.6261 -0.1879
 2907SOL     OW13277   6.687  10.447   9.838 -0.3009 -0.6963  0.5244
 2907SOL    HW113278   6.626  10.404   9.778 -0.5218 -0.6566  0.7217
 2907SOL    HW213279   6.728  10.375   9.886 -0.3112 -0.7140  0.5071
 2908SOL     OW13280   7.858   6.540  10.135  0.5789 -0.4507  0.0392
 2908SOL    HW113281   7.840   6.630  10.111 -0.1514 -0.8279 -0.8697
 2908SOL    HW213282   7.807   6.525  10.214 -0.6961 -0.5822 -0.7912
 2909SOL     OW13283   3.787   8.739   3.908 -0.2380  0.1270 -0.1888
 2909SOL    HW113284   3.729   8.803   3.867 -0.6541 -0.9052 -1.2583
 2909SOL    HW213285   3.873   8.781   3.909 -1.0964  2.1284  2.3684
 2910SOL     OW13286   8.686   4.255   7.703  0.9605  0.5466 -0.4772
 2910SOL    HW113287   8.723   4.184   7.757  1.3512  0.4100 -0.9244
 2910SOL    HW213288   8.599   4.269   7.740  0.2536 -1.2251 -1.3199
 2911SOL     OW13289   3.601  11.097   3.864  0.4342  0.1616 -0.7846
 2911SOL    HW113290   3.601  11.131   3.775  1.1370 -0.2124 -0.9317
 2911SOL    HW213291   3.693  11.100   3.892  0.1711  0.6626  0.0807
 2912SOL     OW13292   3.877   8.732   1.512 -0.3688 -0.0745 -0.7093
 2912SOL    HW113293   3.932   8.788   1.566  0.2920 -0.3240 -1.1122
 2912SOL    HW213294   3.793   8.779   1.506  0.1799  0.8782 -1.0639
 2913SOL     OW13295   0.698   7.745   8.511  0.0991 -0.4491  0.1820
 2913SOL    HW113296   0.636   7.683   8.473 -0.4773 -0.1464  0.6186
 2913SOL    HW213297   0.645   7.802   8.566  0.6711  0.2292  0.0490
 2914SOL     OW13298  10.192   4.429   0.576  0.6527  0.0341 -0.6727
 2914SOL    HW113299  10.234   4.515   0.579  0.7273 -0.0241  0.0927
 2914SOL    HW213300  10.156   4.424   0.487  1.1553  0.6089 -0.9223
 2915SOL     OW13301   3.761  10.272   4.485  0.2390 -0.1402 -0.1418
 2915SOL    HW113302   3.797  10.292   4.572  1.9356 -2.0147 -0.3369
 2915SOL    HW213303   3.671  10.243   4.503 -0.6358  2.6805  0.5748
 2916SOL     OW13304   2.754   5.350   6.493  0.2846  0.3926  0.0419
 2916SOL    HW113305   2.747   5.258   6.468 -0.9746  0.1137  1.3576
 2916SOL    HW213306   2.832   5.354   6.548 -0.7433 -0.2811  1.5897
 2917SOL     OW13307   7.219   5.175   3.118  0.1040 -0.2032  0.4188
 2917SOL    HW113308   7.217   5.084   3.147  1.8249  0.0365  1.4374
 2917SOL    HW213309   7.249   5.171   3.027  0.3040 -0.6562  0.5026
 2918SOL     OW13310   2.991   1.827  11.382 -0.3689 -0.1473  0.1064
 2918SOL    HW113311   2.926   1.867  11.324 -1.5656  1.1548  2.2117
 2918SOL    HW213312   3.075   1.859  11.349 -1.0507  0.9162 -0.6617
 2919SOL     OW13313   8.970   5.154   1.004 -0.3300 -0.3268  0.3538
 2919SOL    HW113314   8.883   5.185   0.979 -0.3311  0.3763  1.1928
 2919SOL    HW213315   8.960   5.128   1.096  0.4689  0.2544  0.6119
 2920SOL     OW13316   5.715   7.040  11.133  0.2035  0.3693  0.4014
 2920SOL    HW113317   5.639   7.092  11.105  0.6938  0.6269 -0.4882
 2920SOL    HW213318   5.755   7.092  11.203  0.6412  1.1556 -0.4204
 2921SOL     OW13319   8.276   6.371   2.653 -0.3586  0.1108  0.3235
 2921SOL    HW113320   8.211   6.349   2.586  0.9141  0.8180 -1.2111
 2921SOL    HW213321   8.226   6.378   2.734 -2.0131 -0.4340 -0.6045
 2922SOL     OW13322   8.692   4.710   1.448  0.3556  0.0888 -0.1109
 2922SOL    HW113323   8.658   4.670   1.368  3.0772 -0.4855 -1.0994
 2922SOL    HW213324   8.677   4.803   1.438 -1.6421 -0.1976 -0.0547
 2923SOL     OW13325   5.083   7.490   5.730  0.1826  0.0958 -0.2851
 2923SOL    HW113326   4.989   7.478   5.740  0.3877 -1.3130  0.2488
 2923SOL    HW213327   5.092   7.558   5.664 -1.2110 -1.6936 -2.4770
 2924SOL     OW13328   2.593  11.632   9.298 -0.0379  0.1398 -0.0076
 2924SOL    HW113329   2.588  11.547   9.255 -0.7422 -0.4004  1.0985
 2924SOL    HW213330   2.537  11.690   9.246  1.7832  0.4218 -1.7791
 2925SOL     OW13331   5.433  11.290  11.140 -0.6644 -0.1199  0.1186
 2925SOL    HW113332   5.457  11.203  11.109  0.9954  0.3016  0.1738
 2925SOL    HW213333   5.426  11.281  11.235  1.3251  0.1884  0.3274
 2926SOL     OW13334  10.370   6.590   5.576 -0.0187 -0.3245 -0.6760
 2926SOL    HW113335  10.371   6.496   5.558 -1.2326 -0.2960 -0.9691
 2926SOL    HW213336  10.412   6.599   5.661 -1.7186 -1.3748  0.3266
 2927SOL     OW13337   1.521   6.274  10.564 -0.0769  0.2549  1.1646
 2927SOL    HW113338   1.556   6.185  10.573 -0.8533 -0.0692  1.1004
 2927SOL    HW213339   1.590   6.331  10.597  0.1311 -0.4236  1.9175
 2928SOL     OW13340  10.957   4.266   6.315 -0.2021 -0.3580 -0.4724
 2928SOL    HW113341  10.899   4.194   6.340  0.9945 -2.1939 -2.5687
 2928SOL    HW213342  11.043   4.224   6.306  0.9849  1.7974  0.2824
 2929SOL     OW13343   1.308   7.110   0.126  0.5314  0.3560  0.2051
 2929SOL    HW113344   1.350   7.157   0.055  1.1022 -0.7001 -0.1701
 2929SOL    HW213345   1.214   7.122   0.111  0.5349 -1.5784 -1.9839
 2930SOL     OW13346   3.789   6.056   6.800 -0.0804 -0.3041  0.0180
 2930SOL    HW113347   3.836   6.016   6.874 -0.9332 -0.0761  0.7038
 2930SOL    HW213348   3.699   6.065   6.831 -0.4711 -0.2695 -1.0886
 2931SOL     OW13349   1.975   7.980   7.992 -0.2024  0.4426  0.5227
 2931SOL    HW113350   2.019   7.903   7.956  2.5864  1.6552  1.1267
 2931SOL    HW213351   1.926   7.946   8.068  0.9828 -0.7568  0.7901
 2932SOL     OW13352   7.095   4.741   6.769 -0.5395  0.2667  0.3347
 2932SOL    HW113353   7.137   4.662   6.735 -1.2196  0.2176 -0.4191
 2932SOL    HW213354   7.004   4.735   6.739 -0.8998  0.7605  1.2610
 2933SOL     OW13355  11.318   8.288   4.806  0.0109  0.7386 -0.1068
 2933SOL    HW113356  11.337   8.308   4.714 -1.6097 -0.9610 -0.8730
 2933SOL    HW213357  11.298   8.195   4.807  1.1990  0.4385  2.2275
 2934SOL     OW13358   8.065  10.458   4.863 -0.0952 -0.2555  0.3323
 2934SOL    HW113359   7.992  10.426   4.917 -0.1416  0.0889  0.4744
 2934SOL    HW213360   8.024  10.520   4.803  0.1137  0.0933  0.5480
 2935SOL     OW13361   6.425   3.120   5.557  0.1532 -0.7083 -0.2205
 2935SOL    HW113362   6.480   3.050   5.521 -0.7695 -1.1908 -0.7089
 2935SOL    HW213363   6.449   3.124   5.650  1.2821 -0.6535 -0.5006
 2936SOL     OW13364   4.127   2.068   3.521  0.7524  0.2414 -0.5057
 2936SOL    HW113365   4.195   2.135   3.525  0.8040  0.2226 -1.1009
 2936SOL    HW213366   4.057   2.102   3.576  0.9467  0.5948 -0.4755
 2937SOL     OW13367  10.385  10.674   7.924 -0.3180  0.0086  0.2138
 2937SOL    HW113368  10.331  10.656   8.001 -1.9995 -0.6518 -1.0702
 2937SOL    HW213369  10.426  10.590   7.904 -0.6966 -0.0723 -0.2198
 2938SOL     OW13370   4.893   5.248   2.835  0.1366  0.1670 -0.0626
 2938SOL    HW113371   4.866   5.223   2.923 -0.7498  0.4456 -0.2522
 2938SOL    HW213372   4.839   5.195   2.777  1.4010 -0.7507 -0.4583
 2939SOL     OW13373   6.290   2.017   4.322  0.5312  0.2698  0.1007
 2939SOL    HW113374   6.213   2.047   4.372  0.5341  0.9003 -0.2618
 2939SOL    HW213375   6.346   1.975   4.387 -0.0582 -0.0670  0.3943
 2940SOL     OW13376   7.808   8.492   5.340  0.2356 -0.2057 -0.2337
 2940SOL    HW113377   7.735   8.430   5.335  1.4280 -1.8972  1.6587
 2940SOL    HW213378   7.853   8.483   5.257  0.4285 -1.9990  0.0344
 2941SOL     OW13379   1.653   9.587  11.766 -0.4864 -0.8412  0.0693
 2941SOL    HW113380   1.690   9.521  11.824 -0.7059 -0.6126  0.4731
 2941SOL    HW213381   1.727   9.642  11.742 -0.4801 -0.6235  0.5588
 2942SOL     OW13382   0.575   9.889   3.638 -0.4098 -0.6863 -0.6745
 2942SOL    HW113383   0.508   9.924   3.580  0.1249 -1.7005 -1.9443
 2942SOL    HW213384   0.529   9.824   3.691 -1.1077  0.8970  0.7659
 2943SOL     OW13385   5.135  11.646   8.297 -0.0773 -0.2003  0.7371
 2943SOL    HW113386   5.159  11.609   8.382  0.4740  0.3169  0.8171
 2943SOL    HW213387   5.040  11.657   8.301 -0.2730 -1.6583  0.6767
 2944SOL     OW13388   7.430   2.818   0.715 -0.2104  0.3611 -0.0365
 2944SOL    HW113389   7.431   2.890   0.651  1.2420  1.8423  1.5688
 2944SOL    HW213390   7.521   2.804   0.737 -0.3695 -2.5961 -0.8530
 2945SOL     OW13391  10.734  10.305   6.766 -0.2957  0.0833 -0.3395
 2945SOL    HW113392  10.760  10.271   6.851 -0.9986 -0.1356 -0.2098
 2945SOL    HW213393  10.799  10.374   6.747  0.4079 -0.4861 -0.0593
 2946SOL     OW13394   8.278   3.416  10.901 -0.3614 -0.0212 -0.4238
 2946SOL    HW113395   8.191   3.426  10.940 -0.5243  1.3375 -1.1005
 2946SOL    HW213396   8.263   3.363  10.823 -0.2395 -1.5576  0.5456
 2947SOL     OW13397  10.043   6.655   2.134  0.4070 -0.2006  0.0310
 2947SOL    HW113398  10.051   6.745   2.103 -3.1405  0.1888 -0.1191
 2947SOL    HW213399   9.996   6.610   2.064  0.5053 -1.7117  0.8989
 2948SOL     OW13400   1.393   1.510   6.550 -0.0295  0.2588 -0.0547
 2948SOL    HW113401   1.396   1.583   6.612  1.1140 -0.3227  0.5973
 2948SOL    HW213402   1.481   1.472   6.553 -0.6134 -1.1677 -0.3766
 2949SOL     OW13403  10.960   3.561   8.663 -0.1140 -0.3781  0.1721
 2949SOL    HW113404  11.008   3.483   8.636  0.0908 -0.0100 -0.5642
 2949SOL    HW213405  10.884   3.564   8.604 -0.0919  0.0039  0.1576
 2950SOL     OW13406   3.560   3.137   9.214 -0.0175  0.0904 -0.3651
 2950SOL    HW113407   3.601   3.183   9.141  1.4393  0.0948  0.4302
 2950SOL    HW213408   3.531   3.207   9.273  1.4074  0.0470  0.4221
 2951SOL     OW13409   6.855   2.761   1.005  0.8914 -0.0933 -0.1892
 2951SOL    HW113410   6.937   2.712   0.994 -1.0606 -3.8267  0.2189
 2951SOL    HW213411   6.834   2.751   1.098 -1.3452 -1.7977 -0.7859
 2952SOL     OW13412   7.175   0.551   6.722  0.0354 -0.1774  0.1053
 2952SOL    HW113413   7.181   0.490   6.648  0.9662  0.4772 -0.3714
 2952SOL    HW213414   7.209   0.634   6.688 -0.4135  0.3872  1.0006
 2953SOL     OW13415   4.397   3.507   8.113 -1.0154 -0.3522  0.3536
 2953SOL    HW113416   4.362   3.432   8.161 -0.7373 -0.9643 -0.3835
 2953SOL    HW213417   4.408   3.476   8.023 -0.0068  0.2761  0.2347
 2954SOL     OW13418  10.961   7.698   1.368 -0.1630 -0.2136 -0.1010
 2954SOL    HW113419  10.997   7.630   1.311  1.4999 -0.8141  1.5275
 2954SOL    HW213420  11.025   7.769   1.364 -1.1784  0.6965 -0.6927
 2955SOL     OW13421   2.272   1.886   2.613 -0.0904  0.0929 -0.2717
 2955SOL    HW113422   2.270   1.900   2.707 -2.7338  3.7595 -0.6247
 2955SOL    HW213423   2.337   1.948   2.580 -0.2070 -0.1329 -0.9622
 2956SOL     OW13424   4.725   4.593   2.488 -0.1942 -0.0771 -0.5449
 2956SOL    HW113425   4.799   4.598   2.548 -0.5709  0.2509 -0.1026
 2956SOL    HW213426   4.734   4.671   2.432 -0.0155 -0.2204 -0.7176
 2957SOL     OW13427   0.311   2.884   3.948 -1.0319  0.3023 -0.2831
 2957SOL    HW113428   0.304   2.944   4.022 -2.6578  0.9782 -0.9271
 2957SOL    HW213429   0.240   2.910   3.890 -1.5113 -1.9672 -0.8001
 2958SOL     OW13430   0.948   0.207   3.739  0.0992 -0.1609 -0.6797
 2958SOL    HW113431   0.982   0.154   3.668 -0.6299  0.8193 -1.8002
 2958SOL    HW213432   0.861   0.234   3.710 -0.2490  0.2080  0.6168
 2959SOL     OW13433   6.158   0.685   7.020  0.2382  0.1216  0.2479
 2959SOL    HW113434   6.203   0.620   6.966  3.7675  1.5798  1.1946
 2959SOL    HW213435   6.098   0.729   6.959  0.0954 -1.8337 -1.1112
 2960SOL     OW13436   7.315  11.619  11.817 -0.2631 -0.0604  0.2624
 2960SOL    HW113437   7.381  11.583  11.875 -0.2310 -0.4040  0.0154
 2960SOL    HW213438   7.237  11.567  11.834 -0.6632  0.7536  1.0138
 2961SOL     OW13439  10.570   8.869   4.412  0.1501 -0.8476 -0.4140
 2961SOL    HW113440  10.530   8.956   4.408  0.7035 -0.5460  0.3926
 2961SOL    HW213441  10.532   8.822   4.338  0.4176  0.3175 -1.3248
 2962SOL     OW13442  10.620  12.088   6.754  0.4026 -0.4901  0.3014
 2962SOL    HW113443  10.533  12.116   6.729  0.3795 -0.8063  0.0262
 2962SOL    HW213444  10.617  11.992   6.750  1.2004 -0.4738 -1.2329
 2963SOL     OW13445   2.204   7.046  10.979  0.1924 -0.1814 -0.1512
 2963SOL    HW113446   2.255   7.028  10.899  0.6202 -1.5694  0.3976
 2963SOL    HW213447   2.194   6.960  11.020 -0.6275  0.4181  0.9393
 2964SOL     OW13448   9.018   0.178   1.041  0.2235 -0.3469 -0.5686
 2964SOL    HW113449   9.010   0.162   0.947  0.6335 -0.0812 -0.6521
 2964SOL    HW213450   9.011   0.092   1.081  2.2543 -0.7624 -0.9902
 2965SOL     OW13451   8.284   6.129   0.588 -0.0344  0.1869  0.3167
 2965SOL    HW113452   8.289   6.132   0.684  1.5484 -2.6178  0.4317
 2965SOL    HW213453   8.372   6.150   0.558  0.4098 -2.2492 -0.2862
 2966SOL     OW13454  10.670   4.653  11.368 -0.9262  0.2261 -0.2051
 2966SOL    HW113455  10.604   4.711  11.406 -2.1413 -0.5458 -1.0888
 2966SOL    HW213456  10.697   4.698  11.288 -0.0753  0.7232  0.3451
 2967SOL     OW13457  11.101  11.854   6.106 -0.5320  0.2959 -0.1139
 2967SOL    HW113458  11.063  11.909   6.174  0.4916 -0.2637  0.9522
 2967SOL    HW213459  11.188  11.891   6.090 -0.5698  0.1212 -0.7652
 2968SOL     OW13460  11.016   7.011   9.377  0.0735 -0.4685  0.1464
 2968SOL    HW113461  11.022   6.975   9.288  0.1949  0.9679 -0.4580
 2968SOL    HW213462  11.008   6.935   9.433 -2.6083 -1.3939 -1.2882
 2969SOL     OW13463   0.583  10.263   9.542 -0.2901  0.3203 -0.0654
 2969SOL    HW113464   0.563  10.347   9.501 -0.4974  1.0903  1.5311
 2969SOL    HW213465   0.528  10.200   9.496 -1.3835  1.3372 -0.1992
 2970SOL     OW13466   8.210   9.031   7.700  0.3196 -0.0022  0.0433
 2970SOL    HW113467   8.200   8.989   7.785 -1.4712  2.7970  1.3384
 2970SOL    HW213468   8.301   9.060   7.698  0.5346 -0.6056  0.7119
 2971SOL     OW13469   3.332   6.866   3.910 -0.0452 -0.7330  1.2963
 2971SOL    HW113470   3.358   6.953   3.943 -0.8573 -0.5144  1.4081
 2971SOL    HW213471   3.391   6.805   3.953  0.2083 -0.2695  1.6138
 2972SOL     OW13472   9.806   8.653   9.935  0.0509 -0.3678  0.7362
 2972SOL    HW113473   9.804   8.657  10.031 -2.7056  0.0171  0.7450
 2972SOL    HW213474   9.752   8.726   9.907  2.0270  0.4685 -1.2376
 2973SOL     OW13475   3.330   7.940   3.448  0.4497  0.6895  0.0130
 2973SOL    HW113476   3.370   8.024   3.470  0.1189  0.2431  2.6484
 2973SOL    HW213477   3.395   7.897   3.393  2.4405  1.0995  1.8890
 2974SOL     OW13478   5.408   4.913   3.831 -0.5858  0.0066 -0.4167
 2974SOL    HW113479   5.386   4.989   3.884 -2.5060  0.3466 -1.6091
 2974SOL    HW213480   5.371   4.839   3.879  0.5896 -0.1385  0.3346
 2975SOL     OW13481   1.188  10.702   3.074  0.3015 -0.2160  0.2564
 2975SOL    HW113482   1.101  10.741   3.068  0.2307 -0.5298 -0.9098
 2975SOL    HW213483   1.247  10.767   3.035  0.3068 -0.8629 -0.8388
 2976SOL     OW13484   2.400   7.537   5.356 -0.2967 -0.0298  0.3538
 2976SOL    HW113485   2.416   7.446   5.383  1.1957  0.7630  2.3678
 2976SOL    HW213486   2.389   7.585   5.438 -0.6226  1.7079 -0.6554
 2977SOL     OW13487   1.329   5.651   2.151  0.4533 -0.4100  0.4287
 2977SOL    HW113488   1.385   5.680   2.224  0.0396  0.2908  0.4720
 2977SOL    HW213489   1.252   5.613   2.194 -0.6214  1.5883  0.4013
 2978SOL     OW13490   6.787   1.381   9.832 -0.2681 -0.3415 -0.3384
 2978SOL    HW113491   6.733   1.457   9.853 -0.5902 -0.2044 -1.5410
 2978SOL    HW213492   6.815   1.346   9.916  0.2926  1.3926  0.2307
 2979SOL     OW13493   3.465   8.491   0.064  0.3646 -0.4079  0.2289
 2979SOL    HW113494   3.408   8.533   0.127  1.5315 -0.9270  1.7037
 2979SOL    HW213495   3.434   8.400   0.059  0.4420 -0.4373  0.2760
 2980SOL     OW13496   0.572   6.804   1.918  0.0999 -0.5595 -0.4084
 2980SOL    HW113497   0.519   6.731   1.950 -0.4946 -0.2602 -0.6993
 2980SOL    HW213498   0.518   6.846   1.851 -0.1486  0.9754  0.6916
 2981SOL     OW13499   7.106   5.978   0.585  0.1260 -0.4914  0.0516
 2981SOL    HW113500   7.120   6.068   0.555 -0.5133 -1.4092 -3.3085
 2981SOL    HW213501   7.195   5.941   0.591  0.3714  0.2385  1.1769
 2982SOL     OW13502  12.078   1.920   1.890 -0.1509  0.0628  0.0970
 2982SOL    HW113503  12.085   2.008   1.926  0.6261 -0.7534  2.0858
 2982SOL    HW213504  12.161   1.906   1.843 -0.4094  0.4792 -0.4988
 2983SOL     OW13505   3.532  10.696   7.354 -0.2714  0.2177  0.0423
 2983SOL    HW113506   3.440  10.695   7.329 -0.0647 -1.5318 -0.7678
 2983SOL    HW213507   3.579  10.727   7.276 -0.0296 -0.6680 -0.1725
 2984SOL     OW13508   4.515   4.171  10.002 -0.3759  0.0643 -0.2320
 2984SOL    HW113509   4.482   4.253  10.038 -0.1382  0.2853 -0.5189
 2984SOL    HW213510   4.458   4.154   9.926 -0.2823  0.0799 -0.3058
 2985SOL     OW13511   8.264   7.496   3.318  0.3195  0.0595  0.2984
 2985SOL    HW113512   8.285   7.418   3.266 -3.3263  1.0391 -3.2383
 2985SOL    HW213513   8.329   7.561   3.291 -0.0770 -0.1692 -1.3536
 2986SOL     OW13514  11.023   6.195   4.235  0.1590  0.3003 -0.4421
 2986SOL    HW113515  11.048   6.283   4.208  0.5133  0.3330 -0.0158
 2986SOL    HW213516  11.099   6.162   4.284  0.1016 -0.3048 -0.7411
 2987SOL     OW13517   1.605   6.156  11.093  0.1444 -0.1800  0.2174
 2987SOL    HW113518   1.671   6.124  11.031 -1.2744 -1.7520 -0.5649
 2987SOL    HW213519   1.521   6.141  11.049 -0.8216  0.5679  1.7109
 2988SOL     OW13520  10.543  11.658   0.415 -0.6908  0.0708  0.1219
 2988SOL    HW113521  10.592  11.602   0.355  1.8609  0.0072  2.1163
 2988SOL    HW213522  10.462  11.678   0.368  0.2879 -1.5813 -2.4776
 2989SOL     OW13523   2.903   6.489   3.551 -0.1383  0.3957  0.2059
 2989SOL    HW113524   2.936   6.472   3.463  0.4745  0.0761  0.4854
 2989SOL    HW213525   2.932   6.413   3.602 -1.6430 -0.0828  0.3926
 2990SOL     OW13526   6.681   8.160  12.010 -0.0855  0.4806  0.3089
 2990SOL    HW113527   6.772   8.159  11.982 -0.2218  3.0863 -0.4990
 2990SOL    HW213528   6.630   8.166  11.929 -0.8665  0.9320  0.8163
 2991SOL     OW13529  11.799  11.531   4.985 -0.3327  0.5491 -0.6257
 2991SOL    HW113530  11.852  11.550   5.062  0.7162 -0.6923 -1.0117
 2991SOL    HW213531  11.733  11.469   5.015 -0.5320  0.8131 -0.5147
 2992SOL     OW13532   7.239   7.187   9.403 -0.0052 -0.2092  0.0069
 2992SOL    HW113533   7.312   7.234   9.444 -0.4681 -0.0841  0.7110
 2992SOL    HW213534   7.280   7.134   9.335  0.4907  1.4062 -0.9910
 2993SOL     OW13535   9.599   5.031   7.733 -0.1872 -0.6696 -0.3663
 2993SOL    HW113536   9.665   5.051   7.799 -0.7535  1.0119 -0.2676
 2993SOL    HW213537   9.623   4.944   7.701  0.7356 -1.0586  1.2662
 2994SOL     OW13538   0.458   8.112   7.154 -0.0585 -0.1857 -0.6104
 2994SOL    HW113539   0.455   8.028   7.109 -2.2477 -0.2663 -0.4082
 2994SOL    HW213540   0.529   8.103   7.218  1.5170 -0.8955 -2.3610
 2995SOL     OW13541   3.890   6.545   6.852  0.4261 -0.1174  0.1041
 2995SOL    HW113542   3.886   6.623   6.796 -0.0592  0.3930  0.8209
 2995SOL    HW213543   3.884   6.471   6.792 -0.3214  0.4210 -0.5105
 2996SOL     OW13544   8.253  11.051   4.309 -0.5139  0.6325 -0.1400
 2996SOL    HW113545   8.302  10.978   4.273 -0.2045  1.5972 -1.8046
 2996SOL    HW213546   8.161  11.032   4.287 -0.6862 -0.2117  1.2281
 2997SOL     OW13547   4.073   5.561   9.846 -0.3914 -0.1158 -0.0715
 2997SOL    HW113548   3.981   5.586   9.860 -0.7013 -1.3374  0.1218
 2997SOL    HW213549   4.095   5.507   9.921  0.9020  1.1934  0.5349
 2998SOL     OW13550   9.201   6.337  10.918 -0.4512 -0.1340  0.1765
 2998SOL    HW113551   9.149   6.273  10.967 -0.4993  0.7390  1.3003
 2998SOL    HW213552   9.287   6.337  10.960 -0.2079 -0.0279 -0.3132
 2999SOL     OW13553   6.181   9.095   8.431 -0.0058 -0.0743 -0.4732
 2999SOL    HW113554   6.276   9.109   8.426  0.1919 -1.1257  0.1346
 2999SOL    HW213555   6.144   9.183   8.421  1.1825  1.1660  3.7927
 3000SOL     OW13556   9.018   3.485   2.479  0.6575  0.3691 -0.1599
 3000SOL    HW113557   8.936   3.513   2.519  0.9271 -0.2139  0.8230
 3000SOL    HW213558   9.054   3.420   2.539  1.1127 -0.4857 -1.3112
 3001SOL     OW13559  12.087   7.766   9.020 -0.2377  0.1866  0.4941
 3001SOL    HW113560  12.111   7.745   9.110  1.2612 -2.1141 -0.3527
 3001SOL    HW213561  12.169   7.790   8.978 -0.9619  1.5436 -0.2261
 3002SOL     OW13562   6.216   2.135  11.516 -0.1505 -0.4562  0.1879
 3002SOL    HW113563   6.170   2.139  11.433 -0.1801  0.4377  0.2311
 3002SOL    HW213564   6.287   2.200  11.507 -1.3623  1.1498  1.5591
 3003SOL     OW13565   9.637   7.389  11.080  0.0414  0.1144 -0.2922
 3003SOL    HW113566   9.621   7.294  11.086  0.7975 -0.1980 -2.3299
 3003SOL    HW213567   9.549   7.428  11.084 -0.1774 -0.3961  2.9841
 3004SOL     OW13568   6.470   1.458   8.574 -0.7344  0.0556 -0.0857
 3004SOL    HW113569   6.518   1.443   8.492  0.1734  1.2976  0.1990
 3004SOL    HW213570   6.481   1.376   8.623 -0.0859 -0.1768 -0.6044
 3005SOL     OW13571   1.507  10.122  11.627 -0.0323 -0.0350 -0.4996
 3005SOL    HW113572   1.436  10.061  11.646 -0.8514 -0.5899 -4.5333
 3005SOL    HW213573   1.476  10.206  11.662  0.1031 -1.2694  3.0334
 3006SOL     OW13574   8.766   1.690   9.540  0.2058 -0.0016 -0.1991
 3006SOL    HW113575   8.687   1.641   9.520  0.3518 -0.1264 -0.4775
 3006SOL    HW213576   8.735   1.777   9.564 -0.1518 -0.5861  1.5938
 3007SOL     OW13577  10.639   0.341   6.310 -0.0043  0.0656 -0.0438
 3007SOL    HW113578  10.547   0.365   6.295  0.2677  1.0563 -0.2022
 3007SOL    HW213579  10.655   0.364   6.401  0.5113  1.4142 -0.4421
 3008SOL     OW13580   5.893   4.761   3.210  0.5715 -0.0158  0.2039
 3008SOL    HW113581   5.858   4.759   3.121 -0.2240  0.5740  0.4964
 3008SOL    HW213582   5.984   4.732   3.200  0.0436 -1.5327 -0.5761
 3009SOL     OW13583   5.211   7.663   8.894 -0.7937 -0.0344 -0.4574
 3009SOL    HW113584   5.171   7.743   8.929  0.0436 -0.8014  2.6216
 3009SOL    HW213585   5.141   7.621   8.843 -1.2254  2.5950 -2.1993
 3010SOL     OW13586   0.013   2.616   3.976  0.3123 -0.3255 -0.1810
 3010SOL    HW113587  -0.049   2.683   4.005  1.6501  1.0192 -0.3249
 3010SOL    HW213588  -0.039   2.558   3.921 -0.8643  0.6358 -0.1346
 3011SOL     OW13589  10.636   2.725   8.011  0.0021 -0.3674  0.4008
 3011SOL    HW113590  10.580   2.701   8.085 -1.2515  1.1541  0.0152
 3011SOL    HW213591  10.581   2.714   7.934  1.2676 -1.8450 -0.3360
 3012SOL     OW13592   6.939  10.306   0.055  0.3884 -0.3861 -0.2419
 3012SOL    HW113593   6.869  10.368   0.072 -0.0762 -1.2538  1.2056
 3012SOL    HW213594   7.004  10.356   0.005 -0.4297  0.9407 -0.0230
 3013SOL     OW13595   4.491   0.480   6.403  0.2005  0.0416  0.5171
 3013SOL    HW113596   4.500   0.407   6.342  1.8228  0.2225  0.4816
 3013SOL    HW213597   4.420   0.454   6.461 -0.6686 -0.6017 -0.7894
 3014SOL     OW13598   1.263   4.435   5.448 -0.1385 -0.2634 -0.1431
 3014SOL    HW113599   1.336   4.476   5.494 -0.1370 -2.4433  1.9677
 3014SOL    HW213600   1.187   4.488   5.470 -0.1001 -1.1187  2.3466
 3015SOL     OW13601   9.379   0.783   8.392  0.7452 -0.3866  0.1763
 3015SOL    HW113602   9.339   0.712   8.443  0.1129  0.3942  0.7809
 3015SOL    HW213603   9.472   0.781   8.417  1.4815 -3.0186 -2.1537
 3016SOL     OW13604   9.828   8.672   7.773  0.2038 -0.5581  0.1546
 3016SOL    HW113605   9.870   8.636   7.851 -2.9741 -1.4431  1.6272
 3016SOL    HW213606   9.793   8.595   7.728  0.8694  0.0681 -1.5313
 3017SOL     OW13607  11.757   0.475   2.840 -0.3463 -0.4080 -0.5152
 3017SOL    HW113608  11.824   0.524   2.886 -1.5510  0.2594  0.6015
 3017SOL    HW213609  11.731   0.532   2.767 -0.6755 -0.0322 -0.1128
 3018SOL     OW13610   4.750  10.284   3.086 -0.4240  0.0505  0.0687
 3018SOL    HW113611   4.664  10.280   3.126 -0.1669 -0.0271  0.6256
 3018SOL    HW213612   4.749  10.364   3.033 -0.4934  0.6025  0.8914
 3019SOL     OW13613   6.803   0.489   8.445 -0.6102  0.1513 -0.1566
 3019SOL    HW113614   6.857   0.416   8.476 -1.0882 -0.4345 -0.6526
 3019SOL    HW213615   6.781   0.465   8.355 -2.4047 -0.0618  0.3028
 3020SOL     OW13616   5.594   6.808  11.327  0.3399 -0.1449 -0.6456
 3020SOL    HW113617   5.654   6.846  11.263  0.4790 -2.1360 -1.7828
 3020SOL    HW213618   5.509   6.848  11.308 -0.0448 -1.9636 -3.3992
 3021SOL     OW13619   5.301   9.737   7.817 -0.4529  0.0783  0.2592
 3021SOL    HW113620   5.225   9.720   7.874 -0.1216 -0.6950  0.4782
 3021SOL    HW213621   5.278   9.698   7.733  0.5689 -2.1343  0.9440
 3022SOL     OW13622  11.792   3.871   4.576  0.3072  0.1407 -0.1546
 3022SOL    HW113623  11.857   3.940   4.587 -0.5281  0.6685  2.0997
 3022SOL    HW213624  11.712   3.917   4.553  0.4624 -0.4155 -1.9201
 3023SOL     OW13625   0.466   0.240  10.837  0.1792 -0.0905  0.3615
 3023SOL    HW113626   0.400   0.276  10.896  2.4988  1.8900  1.9602
 3023SOL    HW213627   0.477   0.149  10.865 -0.5196  0.1216  1.3547
 3024SOL     OW13628   3.476  10.953   1.666  0.4822  0.1971  0.3309
 3024SOL    HW113629   3.464  11.039   1.626 -0.6097  0.8644  1.9794
 3024SOL    HW213630   3.400  10.903   1.637 -0.1212  0.5673  1.2243
 3025SOL     OW13631   0.906   1.243   8.892 -0.3779 -1.0184 -0.0369
 3025SOL    HW113632   0.905   1.319   8.834  0.0507 -0.7045  0.3551
 3025SOL    HW213633   0.821   1.201   8.879 -1.3706  0.5650  1.1036
 3026SOL     OW13634   6.921   1.805   7.223 -0.1103  0.0380 -0.7768
 3026SOL    HW113635   6.939   1.881   7.278  1.2355 -0.4976 -0.4369
 3026SOL    HW213636   6.963   1.826   7.139  1.0606 -0.6705 -0.3985
 3027SOL     OW13637   1.580   3.268   4.065 -0.2568  0.1412 -0.3700
 3027SOL    HW113638   1.608   3.288   3.976 -0.1876  0.5904 -0.2523
 3027SOL    HW213639   1.486   3.285   4.065 -0.2265  0.3138 -0.3134
 3028SOL     OW13640   8.530   5.279   4.395  0.1188 -0.1244  0.2174
 3028SOL    HW113641   8.494   5.262   4.308  0.3915 -0.7631  0.2273
 3028SOL    HW213642   8.619   5.310   4.378 -0.3315  1.2498  0.2037
 3029SOL     OW13643   6.046   2.597   1.887 -0.3200  0.0062 -0.0573
 3029SOL    HW113644   6.023   2.503   1.887  0.7679 -0.2837  1.2703
 3029SOL    HW213645   5.975   2.638   1.937 -0.1177 -0.3071  0.4991
 3030SOL     OW13646   3.058   2.723   4.125 -0.3757  0.2641 -0.0057
 3030SOL    HW113647   3.069   2.682   4.210 -0.7959  2.4579  1.1641
 3030SOL    HW213648   2.964   2.740   4.118 -0.1546  1.5809 -0.1351
 3031SOL     OW13649   3.657   7.941   2.563  0.0370  0.2569  0.0253
 3031SOL    HW113650   3.636   7.885   2.638 -0.2199 -1.9126 -1.5570
 3031SOL    HW213651   3.629   7.890   2.487  1.3788  1.8446 -1.6279
 3032SOL     OW13652   9.253  10.362   5.245 -0.2879 -0.4033 -0.2582
 3032SOL    HW113653   9.172  10.320   5.214 -1.3673  0.9633  0.5640
 3032SOL    HW213654   9.224  10.416   5.318  1.5158 -0.4057  0.4973
 3033SOL     OW13655  11.138   7.393   6.257 -0.8092 -0.1318 -0.5577
 3033SOL    HW113656  11.116   7.381   6.164  2.3057 -0.6851 -1.3263
 3033SOL    HW213657  11.221   7.347   6.269 -1.6208 -1.0070  2.8288
 3034SOL     OW13658   5.031   5.404   9.394  0.0390  0.2682 -0.5496
 3034SOL    HW113659   4.936   5.403   9.405 -0.0714 -1.4707 -1.2631
 3034SOL    HW213660   5.063   5.343   9.462  0.6104  0.6006 -0.5160
 3035SOL     OW13661  12.081   2.733  11.375 -0.4141  0.3163  0.3095
 3035SOL    HW113662  12.155   2.673  11.360 -0.9067 -0.2121 -0.0266
 3035SOL    HW213663  12.054   2.716  11.465 -2.5808 -2.2844 -0.7238
 3036SOL     OW13664   2.307   3.480   2.007 -0.5640  0.4042 -0.1389
 3036SOL    HW113665   2.300   3.408   2.070 -0.1217 -0.2566 -0.8281
 3036SOL    HW213666   2.327   3.557   2.061 -0.2623 -0.1336  0.5344
 3037SOL     OW13667   3.956   8.903  11.757 -0.4101  0.2685 -0.1549
 3037SOL    HW113668   4.043   8.927  11.789  0.6226  0.1671 -2.6675
 3037SOL    HW213669   3.945   8.812  11.784  1.5135 -0.6359 -2.0591
 3038SOL     OW13670   7.429   6.560   7.292 -0.0887 -0.6925  0.1537
 3038SOL    HW113671   7.493   6.610   7.241 -1.3458 -2.2854 -3.2427
 3038SOL    HW213672   7.344   6.591   7.261 -0.9304 -2.1658  0.8913
 3039SOL     OW13673   8.464  11.716   6.394 -0.0108  0.4764  0.4002
 3039SOL    HW113674   8.379  11.752   6.419 -0.1802  0.7780 -0.5526
 3039SOL    HW213675   8.499  11.779   6.331  0.3717 -0.2528 -0.1351
 3040SOL     OW13676  10.310   1.927   3.351 -0.0362  0.2953 -0.0439
 3040SOL    HW113677  10.305   1.888   3.438 -2.1839  0.2100 -0.1689
 3040SOL    HW213678  10.394   1.895   3.316 -0.2152 -1.5894  1.0980
 3041SOL     OW13679   9.421   0.292   9.281  0.1307 -0.2641 -0.3061
 3041SOL    HW113680   9.488   0.239   9.238  2.7073  1.9351  0.7540
 3041SOL    HW213681   9.467   0.371   9.310 -2.4506  0.4034  2.4679
 3042SOL     OW13682   5.326   9.642   5.853  0.0419  0.3411  0.4809
 3042SOL    HW113683   5.289   9.731   5.854 -0.0476  0.2964  1.5621
 3042SOL    HW213684   5.409   9.652   5.807 -0.7444  0.6544 -0.9418
 3043SOL     OW13685   6.871   2.698   2.248 -0.0499  0.4301 -0.2673
 3043SOL    HW113686   6.921   2.619   2.227 -0.1684  0.3989 -0.4341
 3043SOL    HW213687   6.781   2.667   2.259 -0.2254  0.6516 -1.0500
 3044SOL     OW13688   7.139   6.324  11.760 -0.4450 -0.0927 -0.4348
 3044SOL    HW113689   7.217   6.279  11.793  1.1422  1.9328 -1.1632
 3044SOL    HW213690   7.065   6.277  11.799  1.1701 -1.2143  1.4832
 3045SOL     OW13691   6.182   4.125   2.023 -0.1995 -0.5452  0.2574
 3045SOL    HW113692   6.252   4.110   1.960 -0.0387 -0.8825  0.5105
 3045SOL    HW213693   6.137   4.204   1.992  1.6351  0.9774  1.2755
 3046SOL     OW13694   6.920   0.126   7.531 -0.2994  0.0151  0.2324
 3046SOL    HW113695   6.854   0.180   7.488 -0.9949 -0.2497  0.9591
 3046SOL    HW213696   6.940   0.057   7.468 -0.1377  0.5314 -0.2953
 3047SOL     OW13697   7.456   1.478   9.808 -0.3030 -0.4541 -0.0122
 3047SOL    HW113698   7.412   1.497   9.725 -1.3692 -0.5862  0.5048
 3047SOL    HW213699   7.542   1.519   9.799 -1.1092  1.2591 -0.4464
 3048SOL     OW13700   7.265   1.160   6.203  0.0210 -0.4556  0.1551
 3048SOL    HW113701   7.266   1.175   6.297 -2.0568  0.9980  0.0125
 3048SOL    HW213702   7.275   1.247   6.164 -0.0683 -0.9162 -0.9547
 3049SOL     OW13703  11.117   2.750   2.957  0.3111 -0.7487 -0.2736
 3049SOL    HW113704  11.198   2.779   2.998 -1.1708  1.1028  1.5469
 3049SOL    HW213705  11.127   2.656   2.947  2.1774 -0.7329  1.0822
 3050SOL     OW13706   3.536   8.558   7.413  0.0277 -0.2022  0.5122
 3050SOL    HW113707   3.528   8.484   7.353  0.8403  0.3414 -0.2971
 3050SOL    HW213708   3.458   8.553   7.468 -0.7293 -0.7410 -0.5721
 3051SOL     OW13709  11.785   7.469   1.800  0.3980  0.2099 -0.2470
 3051SOL    HW113710  11.794   7.416   1.721  2.7966 -0.9107  0.6721
 3051SOL    HW213711  11.706   7.521   1.786 -1.2667 -2.5256 -1.8282
 3052SOL     OW13712   1.402   2.961   6.775 -0.5131  0.5090 -0.3415
 3052SOL    HW113713   1.382   2.878   6.818  0.0182  1.1152  1.1276
 3052SOL    HW213714   1.485   2.946   6.731 -0.7701  0.0643 -0.6947
 3053SOL     OW13715   1.649   3.798   1.118 -0.3400  0.1021  0.0681
 3053SOL    HW113716   1.593   3.765   1.048 -2.0077 -0.1168  1.4252
 3053SOL    HW213717   1.645   3.730   1.186  0.2555  0.8317  0.8522
 3054SOL     OW13718  10.224   7.050  10.418  0.1448 -0.1158 -0.2602
 3054SOL    HW113719  10.174   7.125  10.387  0.6681  0.0744 -0.6468
 3054SOL    HW213720  10.188   6.975  10.370  0.8333  0.1498 -1.2205
 3055SOL     OW13721  11.145   4.121   7.779 -0.4250  0.5923  0.4017
 3055SOL    HW113722  11.075   4.134   7.842  0.2860 -2.1372  1.8958
 3055SOL    HW213723  11.100   4.096   7.698 -1.3127  3.5554 -0.1081
 3056SOL     OW13724   9.026   3.511   5.616 -0.2767  0.2200  0.1489
 3056SOL    HW113725   9.029   3.593   5.567 -1.6218 -0.1617 -0.6106
 3056SOL    HW213726   9.106   3.465   5.590  0.2105  1.0442  0.1546
 3057SOL     OW13727   2.796   3.192   7.230 -0.2769  0.1178 -0.3579
 3057SOL    HW113728   2.833   3.199   7.318 -1.0112 -0.3099 -0.0101
 3057SOL    HW213729   2.864   3.227   7.173  0.6147 -0.5035  0.2904
 3058SOL     OW13730  10.364   9.460   3.128  0.0769 -0.1621  0.3619
 3058SOL    HW113731  10.313   9.469   3.209 -0.1973 -0.7917  0.2667
 3058SOL    HW213732  10.314   9.509   3.063 -0.8996 -1.4764  0.0656
 3059SOL     OW13733   4.561   8.374  11.817 -0.0868 -0.7788 -0.3276
 3059SOL    HW113734   4.501   8.436  11.858  0.5330  0.3606 -1.1122
 3059SOL    HW213735   4.587   8.315  11.888 -0.9984 -0.4153  0.3319
 3060SOL     OW13736  11.439   9.053  11.217  0.4655 -0.0893  0.3470
 3060SOL    HW113737  11.512   9.115  11.217  0.7872 -0.4221 -1.0068
 3060SOL    HW213738  11.374   9.093  11.159  0.4964 -0.8013 -0.1965
 3061SOL     OW13739   3.551   2.351   7.705 -0.1906 -0.6213 -0.3926
 3061SOL    HW113740   3.551   2.264   7.746  0.4384 -0.5758 -0.2851
 3061SOL    HW213741   3.462   2.362   7.673 -0.7436 -0.5949  1.0981
 3062SOL     OW13742   1.713  12.003   8.010  0.8748 -0.1958  0.5814
 3062SOL    HW113743   1.795  11.981   8.054  1.3018 -0.2172 -0.2029
 3062SOL    HW213744   1.706  11.940   7.939 -0.4591 -0.9909  1.3734
 3063SOL     OW13745   4.530   0.299   6.211 -0.7037  0.1192  1.2269
 3063SOL    HW113746   4.496   0.346   6.135  0.1371  0.2999  0.9507
 3063SOL    HW213747   4.469   0.226   6.223 -0.3974 -0.4009 -0.1456
 3064SOL     OW13748   3.719   3.224   5.976  0.0988 -0.4532 -0.1667
 3064SOL    HW113749   3.689   3.133   5.974 -0.4593 -0.2661 -1.8260
 3064SOL    HW213750   3.643   3.273   6.008  0.3872 -0.5636  0.6915
 3065SOL     OW13751  11.548   9.434   2.692 -0.2287 -0.2186 -0.2164
 3065SOL    HW113752  11.468   9.404   2.734  1.0035 -0.3737  2.2016
 3065SOL    HW213753  11.596   9.353   2.673  0.8121 -0.0807  1.5511
 3066SOL     OW13754  10.882   6.670   2.788  0.6025  0.1946 -0.0384
 3066SOL    HW113755  10.946   6.610   2.827  1.1287 -1.9632 -3.7302
 3066SOL    HW213756  10.934   6.746   2.761  0.1335  2.0252  3.5543
 3067SOL     OW13757   4.147   1.986  11.761 -0.1405 -0.3270  0.6382
 3067SOL    HW113758   4.217   1.965  11.823 -0.5406 -2.3011  0.4698
 3067SOL    HW213759   4.182   2.059  11.710  2.0782 -1.6252  0.1620
 3068SOL     OW13760   2.595   3.965  11.085  0.2081 -0.3193 -0.0279
 3068SOL    HW113761   2.520   3.906  11.099 -0.7710  0.8136 -0.2762
 3068SOL    HW213762   2.605   3.969  10.990 -0.0028  0.2281 -0.0303
 3069SOL     OW13763   2.306   3.208   4.000  0.0522  0.0656  0.1910
 3069SOL    HW113764   2.269   3.166   4.079 -1.1946  1.1969  0.2443
 3069SOL    HW213765   2.289   3.145   3.930 -0.5989 -0.1255  0.5043
 3070SOL     OW13766  10.954   9.149   3.082 -0.5385  0.4285 -0.1268
 3070SOL    HW113767  10.985   9.094   3.011  0.5218 -1.0219  1.3701
 3070SOL    HW213768  10.955   9.238   3.047  1.1864 -0.0892 -1.4921
 3071SOL     OW13769  11.569   9.417  11.613 -0.7279 -0.2018 -0.4212
 3071SOL    HW113770  11.526   9.334  11.630 -1.5273  0.0379 -1.1942
 3071SOL    HW213771  11.497   9.481  11.606 -0.1457  0.5148 -0.0560
 3072SOL     OW13772   7.697   2.189   3.135  0.1827 -0.2029  0.1073
 3072SOL    HW113773   7.700   2.242   3.215 -0.7629 -1.3158  0.9116
 3072SOL    HW213774   7.629   2.231   3.082  1.1749  0.8503 -0.3743
 3073SOL     OW13775   3.936   8.533   5.691 -0.3865 -0.2699  0.0154
 3073SOL    HW113776   3.954   8.625   5.674  2.5211 -0.5877  0.8481
 3073SOL    HW213777   3.990   8.511   5.766 -2.0009 -2.3778  0.6758
 3074SOL     OW13778   5.615   8.149   8.550 -0.2177 -0.2563 -0.0225
 3074SOL    HW113779   5.534   8.174   8.595 -0.7902 -2.5526  0.3474
 3074SOL    HW213780   5.623   8.055   8.565  1.3618 -0.4977 -1.9462
 3075SOL     OW13781   9.591   9.197   2.639 -0.2433  0.2212 -0.0610
 3075SOL    HW113782   9.508   9.230   2.674  0.1636  2.3307 -0.9512
 3075SOL    HW213783   9.565   9.149   2.559 -0.6559  0.4258 -0.0557
 3076SOL     OW13784   4.782   9.254   0.095 -0.0817 -0.2653  0.7189
 3076SOL    HW113785   4.739   9.326   0.140 -1.5043 -0.7813  0.2448
 3076SOL    HW213786   4.712   9.212   0.044  1.1385 -0.6748 -0.6947
 3077SOL     OW13787   1.294   5.870   3.107 -0.5679  0.7930  0.4422
 3077SOL    HW113788   1.358   5.867   3.178 -0.4267  0.8271  0.3188
 3077SOL    HW213789   1.221   5.817   3.137  0.0476 -0.3076  0.0644
 3078SOL     OW13790  11.315   5.145   3.898 -0.1821 -0.1001 -0.3665
 3078SOL    HW113791  11.341   5.177   3.812  0.5541 -1.1358 -0.5438
 3078SOL    HW213792  11.374   5.190   3.959  1.2434 -1.4905 -0.6649
 3079SOL     OW13793  10.532   0.344   7.848  0.0014 -0.9243  0.2543
 3079SOL    HW113794  10.467   0.275   7.860 -1.9341  0.8619  0.7061
 3079SOL    HW213795  10.564   0.362   7.936  1.9369 -2.4742 -0.0763
 3080SOL     OW13796   2.848   3.663   4.533  0.7287  0.0414  0.2057
 3080SOL    HW113797   2.764   3.648   4.576  0.9341 -0.2819  0.5064
 3080SOL    HW213798   2.847   3.605   4.457  1.5285 -1.5853  1.3783
 3081SOL     OW13799   9.117   4.625   0.538  0.3485  0.5486 -0.3873
 3081SOL    HW113800   9.139   4.620   0.631  1.4035 -0.4094 -0.6683
 3081SOL    HW213801   9.048   4.560   0.526  1.9682 -1.2016 -0.7163
 3082SOL     OW13802   5.264   5.082   1.328  0.4882 -0.7516 -0.0224
 3082SOL    HW113803   5.214   5.090   1.246  0.7177 -0.3432 -0.1229
 3082SOL    HW213804   5.337   5.143   1.318  0.5201 -0.7029  0.4868
 3083SOL     OW13805  11.567   3.683   7.269  0.1686  0.1211  0.0318
 3083SOL    HW113806  11.604   3.668   7.182 -2.2298  0.0647 -1.0508
 3083SOL    HW213807  11.563   3.779   7.277 -0.4723  0.1218 -0.3073
 3084SOL     OW13808   6.693  11.007   7.465  0.1678 -0.0213  0.4007
 3084SOL    HW113809   6.739  11.014   7.381  2.0345  1.3844  1.4509
 3084SOL    HW213810   6.676  11.098   7.490 -1.0879 -0.4500  1.1877
 3085SOL     OW13811   8.569   3.648   6.181 -0.1675  0.2644  0.4871
 3085SOL    HW113812   8.474   3.634   6.177 -0.1911  0.6044 -0.8487
 3085SOL    HW213813   8.606   3.575   6.132  0.1728  0.7739 -0.0381
 3086SOL     OW13814   6.519   4.636   5.938  0.1476  0.3891  0.1396
 3086SOL    HW113815   6.424   4.629   5.953  0.1423  0.7035  0.2768
 3086SOL    HW213816   6.547   4.547   5.918 -0.4455  0.5404 -1.5261
 3087SOL     OW13817   3.515   4.889   8.504  0.0860  0.5341 -0.1663
 3087SOL    HW113818   3.538   4.796   8.496 -0.1245  0.3703  1.0345
 3087SOL    HW213819   3.557   4.930   8.428  2.0831 -0.1986  0.4649
 3088SOL     OW13820   5.940   9.745   5.572 -0.5055  0.0141 -0.5051
 3088SOL    HW113821   5.954   9.777   5.483 -0.0732 -0.0883 -0.4742
 3088SOL    HW213822   5.954   9.650   5.566  0.1129  0.0863 -0.2064
 3089SOL     OW13823   2.010   0.888  10.171  0.1326 -0.1783  0.0286
 3089SOL    HW113824   2.100   0.894  10.204 -0.5147 -1.7567  2.3661
 3089SOL    HW213825   2.014   0.822  10.102  0.9039  0.4012 -0.4945
 3090SOL     OW13826  10.014   0.088   6.425 -0.1693  0.0829 -0.0380
 3090SOL    HW113827   9.941   0.070   6.365 -0.5379 -0.6585  0.6141
 3090SOL    HW213828   9.971   0.121   6.504  0.3035  0.9063 -0.1124
 3091SOL     OW13829   9.479   1.168  10.076  0.4312  0.0641 -0.0214
 3091SOL    HW113830   9.506   1.141  10.163 -2.0888 -0.8656  0.5808
 3091SOL    HW213831   9.409   1.107  10.053  0.3428  0.9170 -2.2711
 3092SOL     OW13832   6.866   4.205   7.252 -0.1452  0.5758 -0.0988
 3092SOL    HW113833   6.829   4.123   7.219  1.8814 -0.3409 -0.2495
 3092SOL    HW213834   6.882   4.188   7.345  1.6408  0.2328 -0.4405
 3093SOL     OW13835   6.346   1.524   8.274 -0.6017 -0.1304  0.3533
 3093SOL    HW113836   6.431   1.481   8.279 -0.0405  0.9175  0.0760
 3093SOL    HW213837   6.282   1.453   8.276  0.2859 -0.9301  0.4265
 3094SOL     OW13838   4.750   8.858   7.731 -0.1040  0.6382  0.9711
 3094SOL    HW113839   4.706   8.931   7.686 -0.4514  0.5519  1.1768
 3094SOL    HW213840   4.681   8.795   7.748  0.0495  0.6255  1.5418
 3095SOL     OW13841  11.248   9.449   4.414 -0.3605 -0.3085 -0.0497
 3095SOL    HW113842  11.244   9.387   4.341  0.5494  0.0761 -0.4322
 3095SOL    HW213843  11.332   9.494   4.404 -1.3969  1.6843 -0.3463
 3096SOL     OW13844  10.304   7.641   6.555  0.0911  0.1980  0.6142
 3096SOL    HW113845  10.209   7.648   6.548  0.1957  1.3664  0.2378
 3096SOL    HW213846  10.336   7.665   6.468  0.8320  2.0637  1.3595
 3097SOL     OW13847   2.678   0.175   3.481  0.2094  0.9587  0.5860
 3097SOL    HW113848   2.613   0.201   3.415 -0.3670 -0.7538  0.4014
 3097SOL    HW213849   2.762   0.179   3.435 -0.1144  0.4090 -0.0701
 3098SOL     OW13850   9.368   3.855   6.062 -0.4452 -0.0236 -0.2503
 3098SOL    HW113851   9.412   3.888   6.141 -0.7307  0.2503 -0.2032
 3098SOL    HW213852   9.387   3.761   6.061 -1.9684 -0.3933  1.1453
 3099SOL     OW13853   2.298  11.534   2.597 -0.5956 -0.1288  0.6761
 3099SOL    HW113854   2.367  11.573   2.650 -0.9277  1.0035  0.2874
 3099SOL    HW213855   2.344  11.495   2.523 -0.4405  1.5996 -0.1772
 3100SOL     OW13856   9.979   3.684   2.461  0.0542  0.2015 -0.3549
 3100SOL    HW113857  10.028   3.674   2.543 -0.5555 -1.2175 -0.1477
 3100SOL    HW213858   9.909   3.619   2.466 -1.5744  1.8303 -0.8706
 3101SOL     OW13859   2.270   5.410   6.299 -0.0411 -0.2050  0.2414
 3101SOL    HW113860   2.244   5.459   6.222  0.5424 -0.6213 -0.2240
 3101SOL    HW213861   2.223   5.453   6.371 -1.1997 -0.3046 -0.4344
 3102SOL     OW13862  11.332   1.728   3.604  0.5426 -0.2323  0.3529
 3102SOL    HW113863  11.375   1.808   3.574  2.4327 -1.8349 -1.4780
 3102SOL    HW213864  11.238   1.749   3.598  0.9494  1.4778 -1.2257
 3103SOL     OW13865   2.158  11.261   9.751  0.0527 -0.1961  0.6864
 3103SOL    HW113866   2.099  11.329   9.786  1.3129  1.2506  0.1260
 3103SOL    HW213867   2.101  11.186   9.733 -1.4535  0.8251  1.0159
 3104SOL     OW13868   0.097   9.683   4.945  0.1630  0.0408  0.0737
 3104SOL    HW113869   0.085   9.726   5.030  1.4306 -0.1109  0.3508
 3104SOL    HW213870   0.137   9.599   4.967 -2.0821 -1.2318 -0.4798
 3105SOL     OW13871   5.708   1.795  10.576  0.2209 -0.4303 -0.0381
 3105SOL    HW113872   5.676   1.802  10.666 -1.6118 -1.6705 -0.5317
 3105SOL    HW213873   5.747   1.708  10.571  1.0426 -0.0525 -0.2371
 3106SOL     OW13874   3.694   2.486   1.491  0.2549 -0.3472  0.0294
 3106SOL    HW113875   3.783   2.469   1.460 -0.2258 -2.4789 -0.2932
 3106SOL    HW213876   3.706   2.550   1.562  2.0368 -0.5860 -0.0074
 3107SOL     OW13877  11.278   7.043   5.838 -0.0775 -0.3212  0.3830
 3107SOL    HW113878  11.327   7.121   5.812  0.6524 -0.4675  1.2730
 3107SOL    HW213879  11.284   7.042   5.934 -1.0136 -0.8731  0.4456
 3108SOL     OW13880   4.100  11.140  10.942 -0.1211  0.2141  0.0499
 3108SOL    HW113881   4.085  11.231  10.969  1.0931 -0.0656  1.7974
 3108SOL    HW213882   4.104  11.091  11.024  0.2623 -1.2670 -0.8208
 3109SOL     OW13883   0.717  11.872   9.252 -0.1620  0.3919 -0.2001
 3109SOL    HW113884   0.648  11.850   9.314  0.2545  0.6340  0.3620
 3109SOL    HW213885   0.707  11.807   9.181 -1.0286  0.5018 -0.1923
 3110SOL     OW13886   0.995   6.695   4.750 -0.3420  0.6452 -0.4078
 3110SOL    HW113887   1.039   6.771   4.710 -1.3505  0.8148 -1.2422
 3110SOL    HW213888   1.063   6.652   4.801  0.3562  1.8824 -0.2571
 3111SOL     OW13889  10.298   0.062   6.526  0.0973 -0.6935  0.5159
 3111SOL    HW113890  10.207   0.077   6.502  0.6767 -0.0528 -1.4876
 3111SOL    HW213891  10.327   0.144   6.565 -0.4408 -1.2536  2.1827
 3112SOL     OW13892   8.217   5.114   8.995  1.2053  0.2102  0.1453
 3112SOL    HW113893   8.170   5.181   8.945  1.2222  1.1216  1.3135
 3112SOL    HW213894   8.182   5.120   9.084  1.3569 -1.2108  0.3307
 3113SOL     OW13895   1.640   1.654   6.337 -0.5843  0.1628  0.1352
 3113SOL    HW113896   1.562   1.627   6.385  0.0606 -0.5228  0.8364
 3113SOL    HW213897   1.682   1.572   6.311  0.2261  0.5093  0.3150
 3114SOL     OW13898   3.698   3.956   5.013 -0.1125 -0.1664 -0.4963
 3114SOL    HW113899   3.667   3.865   5.004  2.0266 -1.0748  0.4959
 3114SOL    HW213900   3.718   3.964   5.106 -2.0964  2.0221 -0.1866
 3115SOL     OW13901   3.577   4.867   7.899 -0.4192  0.3646  0.2615
 3115SOL    HW113902   3.572   4.947   7.847 -2.3400  0.1444  0.0147
 3115SOL    HW213903   3.516   4.882   7.972  0.9123 -0.0161  1.5170
 3116SOL     OW13904   1.411   6.037   0.207 -0.0831  0.2741  0.9518
 3116SOL    HW113905   1.323   6.064   0.233 -0.0343  0.0656  1.3354
 3116SOL    HW213906   1.396   5.968   0.142 -0.2048  0.9582  0.2435
 3117SOL     OW13907   3.759   1.178   0.711  0.5364  0.1527  0.0369
 3117SOL    HW113908   3.696   1.211   0.647 -0.7648  0.1002  1.2577
 3117SOL    HW213909   3.808   1.111   0.664 -1.1344 -0.6530 -0.6035
 3118SOL     OW13910   1.388   4.180   0.010  0.5062  0.2069 -0.4369
 3118SOL    HW113911   1.392   4.104   0.067 -0.5064  0.6758  0.3001
 3118SOL    HW213912   1.442   4.246   0.054 -0.5045  0.6615  0.1407
 3119SOL     OW13913   8.302   3.402   6.530  0.0081 -0.3220  0.6071
 3119SOL    HW113914   8.271   3.320   6.568 -0.4932  0.0059  0.9259
 3119SOL    HW213915   8.300   3.464   6.603  1.6205 -0.3231  0.6958
 3120SOL     OW13916  10.502   6.086   2.355 -1.0441  0.3879 -0.2768
 3120SOL    HW113917  10.460   6.156   2.405  0.2424  0.2567  1.0672
 3120SOL    HW213918  10.585   6.124   2.325 -1.3397  0.1313 -1.4790
 3121SOL     OW13919   0.203   3.228  11.968 -0.5940 -0.9919  0.3129
 3121SOL    HW113920   0.213   3.147  12.018  0.2140 -0.1460  1.5566
 3121SOL    HW213921   0.216   3.298  12.032  5.2671  0.3094 -1.7012
 3122SOL     OW13922   7.422   1.737   6.392  0.0940  0.6110 -0.2416
 3122SOL    HW113923   7.452   1.696   6.473  0.2166  0.1726 -0.5051
 3122SOL    HW213924   7.470   1.691   6.323 -1.4873 -0.3963 -0.7162
 3123SOL     OW13925  11.819  11.527   1.260 -0.1982  0.5635 -0.1818
 3123SOL    HW113926  11.751  11.505   1.196 -0.3634  0.2142  0.1121
 3123SOL    HW213927  11.782  11.600   1.310 -1.7324 -1.5652  2.0629
 3124SOL     OW13928   3.594   6.852  10.295  0.8004 -0.3799 -0.8132
 3124SOL    HW113929   3.580   6.763  10.264  0.1525  0.0380 -1.7429
 3124SOL    HW213930   3.540   6.907  10.239 -0.0557  0.4614  0.7447
 3125SOL     OW13931   3.609  10.688   7.850  0.0761 -0.0502 -0.3319
 3125SOL    HW113932   3.681  10.741   7.816  0.7941 -1.5123 -1.1580
 3125SOL    HW213933   3.537  10.704   7.790 -0.1164  0.9068  0.1224
 3126SOL     OW13934   3.300  11.101   5.360  0.0464  0.0843 -0.2233
 3126SOL    HW113935   3.276  11.023   5.310 -1.2946  1.0647 -1.1919
 3126SOL    HW213936   3.233  11.106   5.429 -1.5060  1.7904 -1.7737
 3127SOL     OW13937  11.638   6.321   1.365 -0.1692 -0.1000 -0.4902
 3127SOL    HW113938  11.545   6.312   1.343 -0.3239  1.3972 -0.5227
 3127SOL    HW213939  11.682   6.261   1.305 -1.0299 -0.0595 -1.1937
 3128SOL     OW13940   6.153   3.252   9.526  0.1270 -0.7390  0.7792
 3128SOL    HW113941   6.089   3.263   9.596  0.9045 -0.7766  1.5153
 3128SOL    HW213942   6.107   3.205   9.458 -1.2528  1.0144  0.4217
 3129SOL     OW13943   6.073   1.920  11.238 -0.1869 -0.3022 -0.2936
 3129SOL    HW113944   6.038   1.871  11.313 -3.1140  0.8740 -0.7381
 3129SOL    HW213945   6.080   2.011  11.270  3.2474 -0.5035 -0.0809
 3130SOL     OW13946   4.147  11.351  11.760  0.6712 -0.3185  0.4818
 3130SOL    HW113947   4.210  11.326  11.692  0.8985 -0.1242  0.6219
 3130SOL    HW213948   4.153  11.446  11.766  0.8660 -0.3610  0.9818
 3131SOL     OW13949   8.289  11.613   2.451  0.4747 -0.0305  0.0838
 3131SOL    HW113950   8.272  11.653   2.536 -0.0705  0.1959 -0.1290
 3131SOL    HW213951   8.384  11.597   2.451  0.6390  0.9003  0.3206
 3132SOL     OW13952   7.818   0.576   9.528 -0.0486  0.1305 -0.3169
 3132SOL    HW113953   7.765   0.510   9.573  0.6829 -0.8747 -0.8896
 3132SOL    HW213954   7.897   0.584   9.582  0.4204 -0.3978 -0.9158
 3133SOL     OW13955   5.447   9.004  10.161 -0.1715 -0.5875  0.2247
 3133SOL    HW113956   5.357   9.011  10.193 -0.3476  0.1806 -0.3874
 3133SOL    HW213957   5.500   9.038  10.233 -0.4028 -0.7068  0.4543
 3134SOL     OW13958   3.879   5.757   5.084  0.0997  0.3049  0.2649
 3134SOL    HW113959   3.867   5.852   5.076  0.0580  0.2113 -0.8722
 3134SOL    HW213960   3.845   5.736   5.171 -1.4397  1.0991 -0.1054
 3135SOL     OW13961   3.200   0.591   7.314 -0.1302  0.2268 -0.4048
 3135SOL    HW113962   3.205   0.658   7.246 -2.5093  1.3297  0.3907
 3135SOL    HW213963   3.219   0.638   7.395 -2.2594  0.0991  0.2175
 3136SOL     OW13964   8.357  10.978   7.099 -0.2891 -0.4084  0.4943
 3136SOL    HW113965   8.290  11.018   7.154  0.2573  0.7532  0.3664
 3136SOL    HW213966   8.428  10.956   7.159  0.2110  0.6469  0.3274
 3137SOL     OW13967   0.572   2.094   4.234 -0.5557  0.3702  0.0075
 3137SOL    HW113968   0.667   2.099   4.248 -0.4269  1.8342 -1.1964
 3137SOL    HW213969   0.549   2.005   4.260  1.1014  0.0658  0.5562
 3138SOL     OW13970   8.810   2.551   7.899 -0.3426 -0.0270  0.0651
 3138SOL    HW113971   8.728   2.597   7.917  0.6081  1.2910  1.3167
 3138SOL    HW213972   8.844   2.593   7.820  0.0799  0.8386  0.6903
 3139SOL     OW13973  11.542   0.307  11.333  0.2687 -0.0096  0.2578
 3139SOL    HW113974  11.452   0.334  11.315  0.5214  0.8016  0.1852
 3139SOL    HW213975  11.537   0.212  11.342 -0.4187 -0.0811 -0.7818
 3140SOL     OW13976   2.736   3.027   5.199  0.0822 -0.3910 -0.2873
 3140SOL    HW113977   2.811   3.058   5.249 -1.0026  0.8131  0.6675
 3140SOL    HW213978   2.773   2.998   5.115  1.6971 -0.6698  0.4760
 3141SOL     OW13979   6.821   2.589  11.187  1.1006  0.0580  0.6121
 3141SOL    HW113980   6.812   2.676  11.227 -0.5079  1.0787 -1.7113
 3141SOL    HW213981   6.830   2.529  11.260 -2.1326  1.6900  2.5728
 3142SOL     OW13982  11.230   0.008   4.754  0.0652  0.2717 -0.0984
 3142SOL    HW113983  11.218  -0.079   4.793 -1.4879  0.5993  0.2517
 3142SOL    HW213984  11.315   0.004   4.712 -0.0806 -1.5041 -0.3110
 3143SOL     OW13985   2.840   1.658   0.855 -0.1154  0.6626  0.1164
 3143SOL    HW113986   2.797   1.698   0.779  0.5128  0.8612 -0.1448
 3143SOL    HW213987   2.922   1.623   0.820 -0.2451 -0.0672  0.5244
 3144SOL     OW13988  11.328   6.972  11.519 -0.7246 -0.0378  0.0629
 3144SOL    HW113989  11.241   6.940  11.544 -0.9867 -0.0091 -0.7787
 3144SOL    HW213990  11.366   7.003  11.601 -2.0955  1.3447  0.2380
 3145SOL     OW13991   5.386   5.960   4.525 -0.5830  0.1299  0.1432
 3145SOL    HW113992   5.473   6.000   4.527  0.9219 -2.7784 -0.9606
 3145SOL    HW213993   5.373   5.927   4.614 -0.4904  0.4013  0.2600
 3146SOL     OW13994   2.614   2.137   5.210  0.6155 -0.3652 -0.4941
 3146SOL    HW113995   2.544   2.077   5.183  0.9117 -0.0762 -1.9594
 3146SOL    HW213996   2.695   2.092   5.187  0.8462  0.4839 -1.3819
 3147SOL     OW13997   8.331   9.181   9.004  0.1624  0.2813 -0.3190
 3147SOL    HW113998   8.244   9.152   9.034  0.5971 -0.5731  0.1499
 3147SOL    HW213999   8.322   9.189   8.909 -0.7492  1.3325 -0.1630
 3148SOL     OW14000  10.953   8.541   8.859  0.1168  0.0853  0.2417
 3148SOL    HW114001  11.024   8.585   8.906  0.3872 -1.8396  1.7230
 3148SOL    HW214002  10.896   8.508   8.928 -2.1000  1.2918 -0.9142
 3149SOL     OW14003   5.885  11.822   6.228 -0.5687  0.4235 -0.0400
 3149SOL    HW114004   5.859  11.750   6.285  0.1968  1.3063  1.4837
 3149SOL    HW214005   5.953  11.785   6.172 -0.6048 -0.1750  0.3054
 3150SOL     OW14006  11.164   0.010  11.854 -0.1583 -0.5602 -0.1112
 3150SOL    HW114007  11.178   0.066  11.931  0.8983  0.3740 -0.9442
 3150SOL    HW214008  11.096   0.055  11.804 -0.5013 -0.9167  0.0287
 3151SOL     OW14009   5.623   4.478   0.832 -0.0240 -0.4407 -0.3747
 3151SOL    HW114010   5.633   4.566   0.796 -0.7391  1.0251  2.7741
 3151SOL    HW214011   5.707   4.436   0.813 -0.2891  0.1546 -3.5436
 3152SOL     OW14012   8.871   2.924  10.058 -0.5880 -0.0507 -0.2498
 3152SOL    HW114013   8.782   2.917  10.091 -0.5941 -1.4116 -0.4966
 3152SOL    HW214014   8.927   2.895  10.130 -0.3704  0.3191 -0.2651
 3153SOL     OW14015   5.141   9.871  11.540 -0.3195  0.9963 -0.2881
 3153SOL    HW114016   5.224   9.825  11.554 -1.6146 -1.2509  0.4411
 3153SOL    HW214017   5.167   9.963  11.531  2.1597  0.5102  0.8815
 3154SOL     OW14018   1.929   7.460   6.866 -0.3424  0.8606  0.7109
 3154SOL    HW114019   1.875   7.382   6.866  0.5422  0.2318  0.5437
 3154SOL    HW214020   1.928   7.491   6.776  0.1847  0.4032  0.5399
 3155SOL     OW14021  10.674   8.444  10.768 -0.2323  0.0318  0.0749
 3155SOL    HW114022  10.617   8.516  10.797 -0.4588  0.2067 -0.7742
 3155SOL    HW214023  10.613   8.376  10.738 -0.0068 -0.1670  0.0679
 3156SOL     OW14024   4.218   4.324   3.897  0.1315  0.0418  0.0904
 3156SOL    HW114025   4.296   4.377   3.880  0.9360 -0.9144  0.6893
 3156SOL    HW214026   4.162   4.341   3.822  0.9490  0.6899 -0.4020
 3157SOL     OW14027   2.019   9.212   1.151  0.0451  0.1811 -0.2426
 3157SOL    HW114028   2.082   9.172   1.210 -1.7826 -1.1256  0.9244
 3157SOL    HW214029   2.051   9.190   1.063  2.8052  2.1710  0.1468
 3158SOL     OW14030   6.252   9.937   0.105 -0.1787  0.0694  0.1437
 3158SOL    HW114031   6.181   9.873   0.115 -0.3650 -0.1144 -1.9580
 3158SOL    HW214032   6.330   9.884   0.089 -0.0086  0.3335  0.0856
 3159SOL     OW14033   6.433   8.805   6.631 -0.3167  0.2559 -0.7068
 3159SOL    HW114034   6.368   8.752   6.585  0.2786  0.1287 -1.4384
 3159SOL    HW214035   6.446   8.881   6.575  1.5265 -0.6276 -1.5917
 3160SOL     OW14036   4.751   1.421   5.375 -0.4800  0.1001 -0.4211
 3160SOL    HW114037   4.786   1.465   5.453  2.5770 -0.2634 -1.4614
 3160SOL    HW214038   4.675   1.474   5.350 -0.1949  1.5234  1.4998
 3161SOL     OW14039   5.932   6.060   9.821  0.0757 -0.0549 -0.1069
 3161SOL    HW114040   6.024   6.080   9.805 -0.2611  1.2880 -0.4452
 3161SOL    HW214041   5.885   6.139   9.797 -1.0066  0.0027  1.9615
 3162SOL     OW14042  11.630   3.690   1.364 -0.3690 -0.5171 -0.8202
 3162SOL    HW114043  11.539   3.719   1.370  0.2936  1.3273  1.7889
 3162SOL    HW214044  11.681   3.767   1.388  1.9176 -1.5310 -2.1743
 3163SOL     OW14045  11.800   4.000   6.432  0.1209 -0.0670 -0.3901
 3163SOL    HW114046  11.891   3.997   6.403  0.2053 -0.4718 -0.0906
 3163SOL    HW214047  11.753   4.039   6.358  0.5028 -0.0594 -0.6337
 3164SOL     OW14048  10.853   0.359   2.639  0.3438 -0.0956 -0.0920
 3164SOL    HW114049  10.844   0.264   2.641  0.3736 -0.1003 -0.1724
 3164SOL    HW214050  10.773   0.392   2.681  0.2181 -0.1519 -0.2859
 3165SOL     OW14051   2.092   9.222   9.305 -0.5400  0.4255 -0.5440
 3165SOL    HW114052   2.141   9.189   9.380  1.6029  0.6232 -1.7964
 3165SOL    HW214053   2.011   9.171   9.305  0.6503 -1.5807  0.2514
 3166SOL     OW14054   8.300  11.973   2.393  0.0773 -0.2129  0.4567
 3166SOL    HW114055   8.250  12.027   2.454 -0.8511  1.6622 -1.7921
 3166SOL    HW214056   8.239  11.904   2.366  0.3885 -0.8564  1.3260
 3167SOL     OW14057   4.393   8.269   0.189 -0.7982 -0.5035 -0.0300
 3167SOL    HW114058   4.362   8.280   0.279  0.0706  0.8574  0.1431
 3167SOL    HW214059   4.315   8.279   0.135 -0.7228  5.4008  0.2098
 3168SOL     OW14060  11.355   3.860   0.119  0.1809  0.0791 -0.3228
 3168SOL    HW114061  11.288   3.850   0.051  0.1732  0.1738 -0.3295
 3168SOL    HW214062  11.436   3.832   0.077  0.4166  1.3906 -0.8009
 3169SOL     OW14063   1.830   0.676  11.724  0.0438 -0.4444  0.3116
 3169SOL    HW114064   1.875   0.603  11.766 -1.3952 -1.8247 -0.4014
 3169SOL    HW214065   1.794   0.727  11.796  1.2263 -0.3238  0.8297
 3170SOL     OW14066  11.107   7.515  10.376  0.3989 -0.0140  0.0213
 3170SOL    HW114067  11.180   7.503  10.315 -0.4777 -1.4359 -0.8199
 3170SOL    HW214068  11.141   7.484  10.460  0.8945 -0.2932 -0.2772
 3171SOL     OW14069   3.187  11.610   9.565 -0.2180  1.1051  0.3260
 3171SOL    HW114070   3.213  11.689   9.613  2.8809 -0.5477  1.6468
 3171SOL    HW214071   3.113  11.576   9.614  1.7023  0.4732  3.0603
 3172SOL     OW14072   2.022   3.005   6.693  0.0981 -0.2917  0.2412
 3172SOL    HW114073   2.039   3.094   6.721 -1.5083  0.7023 -1.6923
 3172SOL    HW214074   2.104   2.958   6.709  1.1566  1.6491  0.7557
 3173SOL     OW14075   7.794   1.488   6.017 -0.3791 -0.5288 -0.1933
 3173SOL    HW114076   7.804   1.435   5.939 -0.8981 -1.5539  0.4118
 3173SOL    HW214077   7.831   1.435   6.088 -0.3879  0.1551  0.3456
 3174SOL     OW14078   4.938   0.223   7.976  0.0365  0.3038  0.0235
 3174SOL    HW114079   4.921   0.234   8.069  0.5548  0.8557  0.0590
 3174SOL    HW214080   4.851   0.210   7.937 -0.2791  1.0962  0.4514
 3175SOL     OW14081  10.980  10.031   3.504  0.1618  0.7665  0.0977
 3175SOL    HW114082  10.940  10.055   3.421 -0.7248  1.4093  0.6902
 3175SOL    HW214083  10.907   9.998   3.557  1.2241 -3.1747 -0.5831
 3176SOL     OW14084   8.030   5.651   3.115 -0.2026  0.3308 -0.2519
 3176SOL    HW114085   8.073   5.652   3.030 -2.4050 -0.6421 -1.4623
 3176SOL    HW214086   7.976   5.730   3.116 -0.8829 -0.1215 -0.1778
 3177SOL     OW14087   9.714   6.997   9.350  0.4530 -0.2639 -0.2848
 3177SOL    HW114088   9.713   6.902   9.362 -1.3892 -0.4904 -1.7938
 3177SOL    HW214089   9.647   7.030   9.409 -0.0650 -0.0997 -0.9498
 3178SOL     OW14090   1.420   4.375  10.741  0.7529  0.1332  0.1900
 3178SOL    HW114091   1.347   4.363  10.801  1.7489 -3.1400  0.9057
 3178SOL    HW214092   1.380   4.368  10.654  0.1393 -1.6122  0.5672
 3179SOL     OW14093   9.385   9.357   0.107 -0.3935 -0.8370  0.4152
 3179SOL    HW114094   9.429   9.387   0.187 -0.5986 -0.0715  0.2557
 3179SOL    HW214095   9.301   9.403   0.108  0.0796  0.1214 -0.8257
 3180SOL     OW14096   0.705   8.530  11.825 -0.3178 -0.1240 -0.0977
 3180SOL    HW114097   0.708   8.593  11.753  4.6053  1.2519  0.9292
 3180SOL    HW214098   0.735   8.448  11.787  0.1161  0.0234 -0.0793
 3181SOL     OW14099   7.584   9.680   9.351  0.1641 -0.8464  0.4497
 3181SOL    HW114100   7.647   9.685   9.423  0.4304 -1.1946  0.2445
 3181SOL    HW214101   7.567   9.771   9.328 -2.0110 -0.5521  2.7513
 3182SOL     OW14102   4.099  11.041   5.084 -0.3851 -0.0698  0.3773
 3182SOL    HW114103   4.144  10.982   5.023  0.1261 -1.9361  2.4039
 3182SOL    HW214104   4.116  11.129   5.050  3.6153 -0.7165  0.1831
 3183SOL     OW14105   5.161   8.389  11.998  0.1230 -0.7414 -0.2953
 3183SOL    HW114106   5.136   8.471  12.039 -3.4366 -2.0218  0.4628
 3183SOL    HW214107   5.247   8.406  11.960  1.3651  2.0742  3.2126
 3184SOL     OW14108   3.403   7.475   9.639 -0.1925  0.1560 -0.6840
 3184SOL    HW114109   3.483   7.426   9.620 -0.7921 -1.4986  0.7458
 3184SOL    HW214110   3.427   7.535   9.709  0.6326  2.2872 -2.6725
 3185SOL     OW14111  11.904  10.546   6.110  0.4138 -0.9444  0.0391
 3185SOL    HW114112  11.864  10.537   6.197  1.4180  1.1608  0.7910
 3185SOL    HW214113  11.998  10.534   6.126  0.7470  0.6806 -0.4866
 3186SOL     OW14114   6.719   4.514   3.936 -0.1089 -0.1461  0.1978
 3186SOL    HW114115   6.707   4.456   4.011 -0.8518  0.2661  0.4057
 3186SOL    HW214116   6.638   4.505   3.886 -0.5171  1.2393  0.5944
 3187SOL     OW14117  11.299   7.950   8.060  0.2088  0.3790  0.5821
 3187SOL    HW114118  11.375   7.985   8.014  2.7941 -2.0166  2.6933
 3187SOL    HW214119  11.279   8.016   8.126  1.6495  0.2892  1.1446
 3188SOL     OW14120  11.554   3.869   8.652 -0.5298 -0.0026 -0.1666
 3188SOL    HW114121  11.550   3.874   8.556 -0.8646 -0.3939 -0.1745
 3188SOL    HW214122  11.557   3.776   8.671  0.1995  0.0867  0.1829
 3189SOL     OW14123   5.741   0.373   6.418  0.8463 -0.3390  0.2359
 3189SOL    HW114124   5.790   0.432   6.361  0.7740 -1.8754 -1.5275
 3189SOL    HW214125   5.726   0.295   6.364  0.3700 -1.7082  2.2342
 3190SOL     OW14126  11.731   1.942   7.924 -0.2312  0.5836 -0.4022
 3190SOL    HW114127  11.724   1.856   7.966 -0.1774  0.3657 -0.8370
 3190SOL    HW214128  11.658   1.945   7.863  0.8491  0.0611 -1.7792
 3191SOL     OW14129   5.216   2.819   0.857 -0.4279 -0.3314 -0.1983
 3191SOL    HW114130   5.123   2.811   0.877 -1.2823  0.8141 -3.1765
 3191SOL    HW214131   5.222   2.801   0.763  2.0574  1.4613 -0.4921
 3192SOL     OW14132   5.858   7.282   0.245 -0.4384 -0.0123 -0.0951
 3192SOL    HW114133   5.931   7.261   0.303 -0.2293  0.0814 -0.3223
 3192SOL    HW214134   5.894   7.272   0.157 -0.8109 -0.3545 -0.2114
 3193SOL     OW14135   3.231   9.282   0.732 -0.0355  0.7825 -0.0817
 3193SOL    HW114136   3.248   9.198   0.689  0.5089 -0.5901  2.6143
 3193SOL    HW214137   3.143   9.306   0.704  0.1422 -0.1842 -1.6157
 3194SOL     OW14138   9.269  10.494  11.869 -0.2975  0.0843 -0.1525
 3194SOL    HW114139   9.355  10.466  11.837  0.7099  1.5001  1.1586
 3194SOL    HW214140   9.258  10.448  11.952 -0.3440  0.6687  0.1695
 3195SOL     OW14141  11.760   7.528  12.022 -0.0656 -0.5197  0.0289
 3195SOL    HW114142  11.820   7.600  12.040 -2.7707  2.0525 -0.3991
 3195SOL    HW214143  11.735   7.496  12.109  0.6507 -0.5104  0.2455
 3196SOL     OW14144   7.273   5.260  11.444 -0.2021  0.0085  0.1316
 3196SOL    HW114145   7.301   5.168  11.448 -1.6824 -0.4198  2.2389
 3196SOL    HW214146   7.186   5.257  11.403 -0.4516  0.4116  0.6222
 3197SOL     OW14147  11.129   6.630   0.133  0.6317 -0.4417  0.5349
 3197SOL    HW114148  11.135   6.704   0.193  2.9128  0.4136 -0.6077
 3197SOL    HW214149  11.119   6.553   0.189 -0.4215  0.5807  1.8090
 3198SOL     OW14150   7.774   4.784  10.277 -0.4851 -0.5908  0.4202
 3198SOL    HW114151   7.707   4.845  10.309 -1.3247 -1.1200 -0.2850
 3198SOL    HW214152   7.811   4.746  10.357  0.5100  1.2679  0.9103
 3199SOL     OW14153   9.766   8.914  11.264  0.1596  0.2496 -0.2853
 3199SOL    HW114154   9.798   8.843  11.208  0.4983  0.2741 -0.1227
 3199SOL    HW214155   9.805   8.897  11.350  0.8846  1.0748 -0.4359
 3200SOL     OW14156   5.066   8.559   0.525  0.3744  0.0041  0.1138
 3200SOL    HW114157   5.045   8.592   0.612 -0.1009 -1.1518  0.4649
 3200SOL    HW214158   4.981   8.538   0.486  0.6464 -1.0580  0.0379
 3201SOL     OW14159   7.864   5.462   2.332 -0.2734  0.2174  0.0080
 3201SOL    HW114160   7.885   5.444   2.423 -0.2028  0.7407  0.0945
 3201SOL    HW214161   7.878   5.378   2.287  1.1101  0.3225  0.2235
 3202SOL     OW14162   8.571   6.080   2.327 -0.8718  0.2446 -0.6247
 3202SOL    HW114163   8.512   6.008   2.349 -1.0484 -0.0695 -2.0652
 3202SOL    HW214164   8.565   6.139   2.402  0.2808 -1.8306  1.2172
 3203SOL     OW14165   8.920   2.621   5.551  0.5503 -0.2825  0.0603
 3203SOL    HW114166   8.915   2.557   5.480 -1.9337  1.0918 -1.1418
 3203SOL    HW214167   8.894   2.573   5.630 -0.0545 -1.0628 -0.5987
 3204SOL     OW14168   9.894   8.777   3.387  0.4973  0.1742  0.6220
 3204SOL    HW114169   9.897   8.681   3.380  3.2277  0.1648  0.6657
 3204SOL    HW214170   9.892   8.794   3.481  1.4654  0.1171  0.6662
 3205SOL     OW14171   3.147   9.885   9.336  0.6778  0.3706 -0.0723
 3205SOL    HW114172   3.117   9.936   9.261 -0.5771 -0.9619 -0.5344
 3205SOL    HW214173   3.067   9.847   9.372  1.1930  1.3800  2.2822
 3206SOL     OW14174   5.936   6.552   4.528 -0.3779 -0.1593  0.0707
 3206SOL    HW114175   5.965   6.524   4.615 -1.6078  0.8288  0.8311
 3206SOL    HW214176   5.882   6.629   4.545 -1.9836 -0.9086 -1.4199
 3207SOL     OW14177   6.357   4.798   4.886  0.3875  0.0252  0.1346
 3207SOL    HW114178   6.333   4.726   4.827  0.7038 -0.0461  0.0896
 3207SOL    HW214179   6.373   4.756   4.970  1.6785 -0.1238 -0.1589
 3208SOL     OW14180   7.133   1.143   7.151  0.2575 -0.6267 -0.4992
 3208SOL    HW114181   7.220   1.125   7.187  0.5673 -0.9710 -1.3924
 3208SOL    HW214182   7.100   1.216   7.204  0.6709 -1.1429  0.4987
 3209SOL     OW14183   6.546   8.435   5.121  0.0450  0.7013  0.4285
 3209SOL    HW114184   6.551   8.492   5.198 -1.5932  0.8532  0.4532
 3209SOL    HW214185   6.466   8.461   5.076  0.3080 -0.2466 -0.6488
 3210SOL     OW14186   3.063   3.662   0.001 -0.1025 -0.0149  0.5254
 3210SOL    HW114187   3.104   3.589   0.048  1.3465  0.3538 -0.0982
 3210SOL    HW214188   3.037   3.624  -0.083 -1.5355 -0.3626  1.0919
 3211SOL     OW14189   6.119   1.306   6.272 -0.7114  0.5380 -0.4090
 3211SOL    HW114190   6.183   1.252   6.317 -0.7720  2.3566  2.0818
 3211SOL    HW214191   6.131   1.286   6.180  0.0086 -2.8221  0.2745
 3212SOL     OW14192   3.424   8.283  10.286 -0.1009  0.0118 -0.2271
 3212SOL    HW114193   3.505   8.240  10.257  0.1152 -0.3374  0.8550
 3212SOL    HW214194   3.454   8.362  10.330 -0.4768  1.0711 -1.8063
 3213SOL     OW14195   3.809   5.576   5.827  0.4743 -0.4988 -0.1284
 3213SOL    HW114196   3.896   5.611   5.846  0.3694 -0.7572  0.9135
 3213SOL    HW214197   3.749   5.640   5.866  0.1734 -0.1319 -1.1561
 3214SOL     OW14198   2.611   6.260   3.086  0.0965  0.6823 -0.4054
 3214SOL    HW114199   2.674   6.252   3.158  0.1330  2.4033 -0.2032
 3214SOL    HW214200   2.655   6.220   3.011  0.4445 -0.2838  0.2896
 3215SOL     OW14201   4.480  10.288   5.607 -0.6990  0.3474 -0.2944
 3215SOL    HW114202   4.463  10.258   5.697  1.0322  1.2604  0.3810
 3215SOL    HW214203   4.571  10.316   5.608  0.2730 -2.1205 -3.0512
 3216SOL     OW14204   6.941  11.134   5.762  0.2387  0.0546 -0.6247
 3216SOL    HW114205   6.939  11.222   5.801  0.2939 -0.7224  1.2074
 3216SOL    HW214206   7.035  11.113   5.758  0.2211  0.0488 -0.9937
 3217SOL     OW14207  10.800   9.614   1.084  0.2549 -0.5255 -0.2294
 3217SOL    HW114208  10.778   9.570   1.166 -1.0101 -0.9213 -0.7463
 3217SOL    HW214209  10.729   9.676   1.070  1.3483  0.7852 -0.1767
 3218SOL     OW14210  12.033   6.940   9.622 -0.1412 -0.5881 -0.5661
 3218SOL    HW114211  12.123   6.967   9.602  0.6751 -1.1935  1.8907
 3218SOL    HW214212  11.979   6.992   9.563  1.7313  1.1676 -0.8791
 3219SOL     OW14213   5.098   3.060  11.303 -0.1909  0.0114  0.2130
 3219SOL    HW114214   5.047   3.019  11.233  0.2995 -1.2365  0.5694
 3219SOL    HW214215   5.111   3.150  11.273 -0.1458 -0.4501 -1.2211
 3220SOL     OW14216   0.237  11.128   5.460  0.0842 -0.6132 -0.3488
 3220SOL    HW114217   0.287  11.159   5.536 -2.2472  0.1508  0.9739
 3220SOL    HW214218   0.253  11.034   5.457 -0.1113 -0.7353  1.3905
 3221SOL     OW14219   4.622   1.634  11.608 -0.3963  0.7303 -0.2979
 3221SOL    HW114220   4.592   1.546  11.632  0.7185  0.2475 -0.6304
 3221SOL    HW214221   4.659   1.669  11.689 -1.0760  1.0102 -0.0977
 3222SOL     OW14222   4.389   7.779  10.170  0.0816  1.3138 -0.3640
 3222SOL    HW114223   4.455   7.848  10.163  0.1111  1.4727  1.1910
 3222SOL    HW214224   4.325   7.812  10.233  0.3290 -0.2374  0.7689
 3223SOL     OW14225   8.638   5.499   5.618  0.9249  0.8274  0.2633
 3223SOL    HW114226   8.649   5.522   5.710  1.9472  0.6638  0.1908
 3223SOL    HW214227   8.664   5.578   5.570  1.0816  0.6785  0.1020
 3224SOL     OW14228   6.310   6.860   5.184 -0.1584  0.3317 -0.3139
 3224SOL    HW114229   6.257   6.889   5.110 -2.1383  0.3636  1.0437
 3224SOL    HW214230   6.308   6.933   5.245  0.1850 -0.2552  0.4206
 3225SOL     OW14231  10.124   5.561   1.307  0.3414  0.3622 -0.0695
 3225SOL    HW114232  10.136   5.491   1.243 -1.6351 -2.4660  2.3930
 3225SOL    HW214233  10.202   5.557   1.362  0.0389 -0.2361  0.3241
 3226SOL     OW14234   6.011  10.970   4.304  0.0569  0.3248 -0.2534
 3226SOL    HW114235   5.943  11.012   4.252  0.6973  0.6518 -0.8408
 3226SOL    HW214236   5.981  10.880   4.315  0.3445 -0.0168 -1.9972
 3227SOL     OW14237  10.352   4.268  11.990  0.1418  0.3129  0.4815
 3227SOL    HW114238  10.309   4.310  12.064 -1.4187 -0.9241  0.3199
 3227SOL    HW214239  10.291   4.279  11.917  0.0856 -1.4103  0.2199
 3228SOL     OW14240   8.983   8.988   7.611 -0.3065 -0.1907 -0.3532
 3228SOL    HW114241   8.979   8.963   7.519  0.0688 -1.3356 -0.0842
 3228SOL    HW214242   8.973   8.905   7.658  1.1321  0.1437  0.6105
 3229SOL     OW14243   4.445   5.561   9.916 -0.0369 -0.1253  0.0987
 3229SOL    HW114244   4.454   5.502   9.991 -0.3341  0.2865  0.4626
 3229SOL    HW214245   4.401   5.509   9.849  2.6753 -1.4100 -0.8429
 3230SOL     OW14246   0.819   1.235   8.193 -0.0456 -0.0945 -0.1581
 3230SOL    HW114247   0.828   1.315   8.245  1.1182 -0.2745 -0.0511
 3230SOL    HW214248   0.776   1.264   8.112  2.2054  1.0671 -1.0179
 3231SOL     OW14249   5.672   8.799   5.222  0.0213  0.0507  0.2824
 3231SOL    HW114250   5.729   8.876   5.216 -0.6854  0.5425 -0.2743
 3231SOL    HW214251   5.585   8.832   5.203 -0.1646 -1.0484 -0.9003
 3232SOL     OW14252   6.827  10.827   0.188 -0.0369 -0.3967 -0.0618
 3232SOL    HW114253   6.897  10.823   0.253 -0.5816 -1.3941  0.4814
 3232SOL    HW214254   6.785  10.912   0.202 -0.2979 -0.7046  1.0594
 3233SOL     OW14255   0.342   6.080   2.438  0.1339 -0.1450  0.5694
 3233SOL    HW114256   0.254   6.066   2.472 -0.8175  1.1867 -1.1532
 3233SOL    HW214257   0.399   6.080   2.515 -0.8453 -4.1070  1.5086
 3234SOL     OW14258   6.653   4.075   1.932  0.4422  0.1484  0.2269
 3234SOL    HW114259   6.662   3.984   1.904 -0.0256  0.0838  0.2763
 3234SOL    HW214260   6.674   4.126   1.855 -3.6613 -0.0252 -1.2666
 3235SOL     OW14261   6.006   1.685   7.795 -0.2029 -0.3794 -0.3260
 3235SOL    HW114262   6.095   1.706   7.768  0.8658 -0.6999  2.5918
 3235SOL    HW214263   5.976   1.761   7.845 -0.3840 -1.3974  1.2037
 3236SOL     OW14264  10.198  10.342   6.146  0.5392  1.0684  0.0908
 3236SOL    HW114265  10.248  10.329   6.065 -0.2689  2.1052 -0.6042
 3236SOL    HW214266  10.111  10.368   6.116  0.4693  2.3318  1.2991
 3237SOL     OW14267   2.954   9.688   3.098 -0.1665 -0.1942  0.0975
 3237SOL    HW114268   2.992   9.600   3.107  0.0743 -0.0347  0.7721
 3237SOL    HW214269   2.990   9.736   3.173 -0.8031  0.2942  0.0933
 3238SOL     OW14270   7.498   7.566   4.223  0.1766  0.0237 -0.2480
 3238SOL    HW114271   7.574   7.579   4.279  0.5258 -0.7032 -0.5417
 3238SOL    HW214272   7.514   7.620   4.146  0.3604 -0.0691 -0.2747
 3239SOL     OW14273   1.899   9.163   2.735  0.0676 -0.3995 -0.3669
 3239SOL    HW114274   1.990   9.135   2.719 -0.1084 -1.0940 -0.2067
 3239SOL    HW214275   1.904   9.258   2.741  1.1382 -0.5135  1.7571
 3240SOL     OW14276  11.914   2.066   7.548 -0.2657 -0.4063 -0.7609
 3240SOL    HW114277  11.857   2.101   7.616 -1.1027  0.4043 -1.8267
 3240SOL    HW214278  11.868   1.989   7.515 -1.5509  1.0328 -2.5805
 3241SOL     OW14279   3.173   1.288   6.228 -0.6417 -0.9874 -0.3093
 3241SOL    HW114280   3.205   1.356   6.169  2.2997 -1.0521  1.0224
 3241SOL    HW214281   3.084   1.316   6.250  0.0875  1.9529 -0.5823
 3242SOL     OW14282   1.312   6.473   7.120  0.6305  0.0371  0.6043
 3242SOL    HW114283   1.269   6.418   7.055  1.3973 -0.4442  0.4927
 3242SOL    HW214284   1.367   6.413   7.171  0.5262  0.5045  1.2890
 3243SOL     OW14285   3.398   8.957   6.010 -0.1957  1.0458  0.8814
 3243SOL    HW114286   3.461   8.985   6.076  0.3754  2.0196 -0.0531
 3243SOL    HW214287   3.403   8.862   6.011  0.0826  1.0563  1.9648
 3244SOL     OW14288   7.764   3.424   4.664 -0.1249  0.0382 -0.2115
 3244SOL    HW114289   7.839   3.382   4.705 -0.7774  0.3721  1.3633
 3244SOL    HW214290   7.799   3.459   4.582  0.5636 -3.1087 -1.4197
 3245SOL     OW14291   9.016   0.924   2.656 -0.0406 -0.2904 -0.2184
 3245SOL    HW114292   9.089   0.863   2.667 -0.7155 -1.6043 -2.4489
 3245SOL    HW214293   8.956   0.902   2.728  0.6813 -0.8417  0.2281
 3246SOL     OW14294  10.789   1.626   3.505 -0.3563  0.4734  0.1559
 3246SOL    HW114295  10.732   1.562   3.547 -0.6927  0.0033 -0.9795
 3246SOL    HW214296  10.752   1.711   3.529  0.4875  0.3061  2.2280
 3247SOL     OW14297   5.339   8.359   1.615 -0.0715  0.0342 -0.5223
 3247SOL    HW114298   5.339   8.431   1.552  2.3111 -0.6682 -1.4459
 3247SOL    HW214299   5.372   8.284   1.565  1.5787 -0.6478  1.4417
 3248SOL     OW14300   7.135   7.845  10.703 -0.1710 -0.2190  0.0996
 3248SOL    HW114301   7.212   7.787  10.707 -0.8744 -1.1593  0.5517
 3248SOL    HW214302   7.165   7.922  10.655  0.6194 -1.2488 -1.1332
 3249SOL     OW14303   5.354   1.258   8.417  0.6164 -0.0484 -0.1859
 3249SOL    HW114304   5.330   1.172   8.450 -0.3932  0.4353  0.3626
 3249SOL    HW214305   5.274   1.292   8.377  0.3308  1.5552  1.5918
 3250SOL     OW14306   2.032   5.605   2.420  0.4212  0.1436 -0.2402
 3250SOL    HW114307   1.993   5.689   2.396  0.8828  0.0965 -1.1994
 3250SOL    HW214308   2.125   5.616   2.402  0.4142 -0.7509 -0.9124
 3251SOL     OW14309  10.648   4.309   8.061 -0.0966  0.0200 -0.0192
 3251SOL    HW114310  10.584   4.323   8.131 -1.1875 -1.2763 -0.7176
 3251SOL    HW214311  10.613   4.357   7.986 -0.4419 -0.9491 -0.4972
 3252SOL     OW14312   5.416   7.090   5.397 -0.5053  0.2881 -0.1124
 3252SOL    HW114313   5.483   7.034   5.437 -1.7678 -1.3538 -0.2121
 3252SOL    HW214314   5.466   7.157   5.349  1.0739 -1.4006 -0.9306
 3253SOL     OW14315   2.038   8.150   6.835  0.0554 -1.0329  0.2177
 3253SOL    HW114316   1.989   8.196   6.904 -1.7247 -1.9635 -0.3723
 3253SOL    HW214317   2.121   8.126   6.877 -0.5001 -0.5481  1.6635
 3254SOL     OW14318   8.435   2.207   3.922  0.2417 -0.0222  0.1570
 3254SOL    HW114319   8.455   2.297   3.896 -2.1994  0.1153 -1.5178
 3254SOL    HW214320   8.467   2.153   3.850  1.0251 -0.4642  0.8145
 3255SOL     OW14321   0.204   2.369   2.774  0.4825  0.5436  0.0576
 3255SOL    HW114322   0.139   2.390   2.842 -1.5310 -0.2564 -1.5353
 3255SOL    HW214323   0.206   2.446   2.718  0.8028  0.4894 -0.0090
 3256SOL     OW14324   8.968   5.230  10.342  0.0073  0.0278  0.2447
 3256SOL    HW114325   9.016   5.173  10.281  0.0073 -0.5505  0.7748
 3256SOL    HW214326   8.925   5.169  10.402  0.0108  0.5924  0.8219
 3257SOL     OW14327   0.964  11.535   8.103 -0.2822 -1.1333  0.2155
 3257SOL    HW114328   1.006  11.619   8.086 -3.3482  0.8066  1.4008
 3257SOL    HW214329   0.985  11.515   8.194  0.7154 -1.8638 -0.1607
 3258SOL     OW14330   2.803   9.532   5.684 -0.5278  0.7786 -0.1425
 3258SOL    HW114331   2.795   9.585   5.764  1.5270  0.7508  0.1272
 3258SOL    HW214332   2.715   9.497   5.669 -1.3804  2.3088  1.0370
 3259SOL     OW14333   0.079   2.360  11.920 -0.0934  0.0466  0.1691
 3259SOL    HW114334   0.040   2.274  11.931  1.7831 -0.9336 -0.4671
 3259SOL    HW214335   0.165   2.343  11.882 -0.0718  2.2711 -0.9357
 3260SOL     OW14336   8.230  11.128   3.849 -0.5354 -0.8470 -0.3625
 3260SOL    HW114337   8.307  11.072   3.863  0.0036 -0.0087  0.0830
 3260SOL    HW214338   8.161  11.086   3.900  0.1533 -0.5247  0.8843
 3261SOL     OW14339   4.251   3.823   9.377 -0.2970  0.0056  0.0367
 3261SOL    HW114340   4.198   3.749   9.347  0.4603 -0.1918 -0.8681
 3261SOL    HW214341   4.191   3.877   9.428 -0.8122 -1.3448  0.9263
 3262SOL     OW14342   3.780   5.698   7.659 -0.2621 -0.1460  0.3991
 3262SOL    HW114343   3.864   5.657   7.679  0.1925  0.0061 -1.0798
 3262SOL    HW214344   3.743   5.720   7.744  0.2311 -2.1170  1.1661
 3263SOL     OW14345   0.558   0.268   6.282  0.1262  0.1695 -0.6189
 3263SOL    HW114346   0.617   0.313   6.344 -1.2464 -0.0957  0.9481
 3263SOL    HW214347   0.598   0.182   6.271  0.4674  0.2686 -0.2169
 3264SOL     OW14348   2.380   4.236   2.433 -0.1040  0.0633 -0.4500
 3264SOL    HW114349   2.288   4.241   2.407 -0.5668  0.0758  1.0879
 3264SOL    HW214350   2.423   4.305   2.382 -0.7722 -0.4871 -1.8015
 3265SOL     OW14351   4.526   6.652   9.706 -0.2589 -0.2107  0.0079
 3265SOL    HW114352   4.461   6.716   9.734  0.2057  0.7039 -0.9448
 3265SOL    HW214353   4.533   6.591   9.780  0.0652  1.4438  1.3928
 3266SOL     OW14354  10.383   7.625   9.271  0.5845 -0.0301 -0.0298
 3266SOL    HW114355  10.350   7.701   9.320  1.7294 -0.2919  1.2186
 3266SOL    HW214356  10.359   7.550   9.325  0.6292 -0.4540 -0.5917
 3267SOL     OW14357  11.657   3.016   9.784 -0.0803 -0.1769 -0.2981
 3267SOL    HW114358  11.573   2.993   9.825 -0.9611  0.9227 -1.3905
 3267SOL    HW214359  11.716   2.945   9.808 -1.6193 -1.5363 -0.3667
 3268SOL     OW14360   2.911   8.074   7.578  0.4915  0.0443 -0.3427
 3268SOL    HW114361   2.830   8.035   7.544  0.1809 -1.5524  2.0292
 3268SOL    HW214362   2.930   8.145   7.516 -1.7332 -0.6413 -1.9673
 3269SOL     OW14363   4.215   6.580   9.908  0.1209  0.0735 -0.2584
 3269SOL    HW114364   4.236   6.666   9.945  0.1638 -0.6482  1.4542
 3269SOL    HW214365   4.119   6.574   9.914  0.0739  0.1514 -0.7925
 3270SOL     OW14366  10.098   4.746   9.840 -0.3680 -0.2421 -0.0136
 3270SOL    HW114367  10.079   4.806   9.768 -0.3154 -0.7901 -0.4890
 3270SOL    HW214368  10.023   4.755   9.899 -1.0379 -0.7322 -0.7700
 3271SOL     OW14369   2.327   9.214   2.868  0.1126  0.0793  0.6266
 3271SOL    HW114370   2.357   9.275   2.801 -0.2629 -0.1971  0.2003
 3271SOL    HW214371   2.318   9.267   2.947  0.0229  0.5282  0.3170
 3272SOL     OW14372  10.888   3.573   4.100  0.3137 -0.1827  0.2167
 3272SOL    HW114373  10.803   3.600   4.134 -0.1051 -2.5543  1.2863
 3272SOL    HW214374  10.873   3.559   4.006 -0.5765 -0.7603  0.4254
 3273SOL     OW14375   4.673   0.744   8.622  0.0639 -0.0087  0.3170
 3273SOL    HW114376   4.673   0.681   8.695 -0.0828 -1.9415 -1.2724
 3273SOL    HW214377   4.711   0.823   8.660 -0.2190 -0.8423  2.5536
 3274SOL     OW14378  11.714   1.538   8.369 -0.2690  0.1391 -0.2467
 3274SOL    HW114379  11.801   1.505   8.351 -0.1399 -0.3765  1.1942
 3274SOL    HW214380  11.728   1.630   8.393 -0.2745  0.3936 -1.1738
 3275SOL     OW14381   9.068  10.805   3.933 -0.4072  0.2495 -0.2806
 3275SOL    HW114382   9.133  10.811   3.862  0.2244 -0.5748  0.2056
 3275SOL    HW214383   9.040  10.896   3.947  0.3963  0.5835 -0.7346
 3276SOL     OW14384   1.251   0.384  11.011  0.4271  0.3705  0.0560
 3276SOL    HW114385   1.278   0.312  10.955 -0.4650  1.0852 -1.3542
 3276SOL    HW214386   1.160   0.363  11.034 -0.2956  1.6829 -1.4873
 3277SOL     OW14387   2.567   1.342   2.819  0.0898  0.2330 -0.3112
 3277SOL    HW114388   2.545   1.408   2.754 -0.8372 -0.2481 -0.5063
 3277SOL    HW214389   2.657   1.361   2.844 -0.0054  1.2581 -0.7261
 3278SOL     OW14390   2.190   8.590   9.819 -0.4925 -0.1335  0.2772
 3278SOL    HW114391   2.135   8.668   9.822 -0.0289  0.4272 -2.7282
 3278SOL    HW214392   2.279   8.625   9.810 -0.2815 -0.9702 -1.0700
 3279SOL     OW14393   2.896   8.733   1.103  0.0706  0.1079  0.6971
 3279SOL    HW114394   2.863   8.706   1.189 -0.5387  1.3343  0.8757
 3279SOL    HW214395   2.825   8.786   1.066 -0.9199 -2.6762 -1.8105
 3280SOL     OW14396   1.494   3.418   9.420 -0.3333  0.0531 -0.2211
 3280SOL    HW114397   1.543   3.352   9.469 -0.2660  0.5299  0.3639
 3280SOL    HW214398   1.441   3.368   9.358  0.4444 -0.5053 -0.4518
 3281SOL     OW14399   3.218  12.024   3.491  0.4297  0.0808 -0.0705
 3281SOL    HW114400   3.271  12.032   3.412  0.8856  0.2608  0.2544
 3281SOL    HW214401   3.278  11.992   3.558  0.4219  1.3926  0.5963
 3282SOL     OW14402   7.790  11.766  10.324 -0.1760 -0.0149  0.1478
 3282SOL    HW114403   7.789  11.861  10.337  0.7347 -0.0059  0.1706
 3282SOL    HW214404   7.791  11.754  10.229  0.2769  0.0049  0.1501
 3283SOL     OW14405   0.392   4.845  11.502  0.3402 -0.4259  0.1000
 3283SOL    HW114406   0.355   4.871  11.418  0.1633 -0.5906  0.1284
 3283SOL    HW214407   0.328   4.785  11.540 -0.3723  0.8978  1.0802
 3284SOL     OW14408   2.434   1.948  10.969 -0.0837  0.1757 -0.4636
 3284SOL    HW114409   2.409   1.855  10.976  0.7733  0.0432  1.3820
 3284SOL    HW214410   2.360   1.989  10.924 -0.5149 -1.3795 -1.2343
 3285SOL     OW14411   1.138   6.521   4.929 -0.0616  0.3018 -0.4480
 3285SOL    HW114412   1.219   6.557   4.965  0.6302 -1.5516 -0.0019
 3285SOL    HW214413   1.141   6.428   4.953 -1.0742 -0.3595 -2.6352
 3286SOL     OW14414   3.376   4.666   6.467 -0.6106  0.6611  0.2032
 3286SOL    HW114415   3.345   4.589   6.515  2.5527 -1.1046 -0.2401
 3286SOL    HW214416   3.430   4.630   6.397 -0.4633  3.2931 -1.1627
 3287SOL     OW14417   7.369   4.537   7.391  0.4609  0.1947 -0.1298
 3287SOL    HW114418   7.363   4.582   7.475 -0.4753 -2.2549  1.2249
 3287SOL    HW214419   7.281   4.542   7.354  0.6640  0.5453 -0.5767
 3288SOL     OW14420   2.117   1.448   8.427  0.0543  0.1908  0.0959
 3288SOL    HW114421   2.050   1.499   8.381  1.3078  0.9696 -0.9481
 3288SOL    HW214422   2.068   1.392   8.487 -1.5517  0.3304 -1.0206
 3289SOL     OW14423   6.580   1.351   7.044 -0.3831 -0.0427 -0.4059
 3289SOL    HW114424   6.555   1.342   6.952  0.0754  1.2217 -0.6781
 3289SOL    HW214425   6.593   1.445   7.056  0.4467 -0.2800  0.7197
 3290SOL     OW14426   6.099   2.734   3.297 -0.7301  0.2477  0.4977
 3290SOL    HW114427   6.159   2.750   3.224 -0.1303  0.6597  1.0596
 3290SOL    HW214428   6.027   2.684   3.259  0.4682 -1.1618  0.0028
 3291SOL     OW14429   3.648  11.270   4.157  0.5605  0.4959  0.2082
 3291SOL    HW114430   3.733  11.225   4.161  0.6313  0.6477  0.4147
 3291SOL    HW214431   3.588  11.210   4.202  0.2696 -0.2432 -1.1102
 3292SOL     OW14432  10.813   1.771   6.853 -0.0298 -0.3203  0.5233
 3292SOL    HW114433  10.875   1.844   6.858  0.5417 -0.6178 -1.4820
 3292SOL    HW214434  10.733   1.811   6.818 -0.3721 -0.3109  1.2881
 3293SOL     OW14435   5.494   9.798   4.447  0.8514  0.3870 -0.0034
 3293SOL    HW114436   5.446   9.833   4.523  0.6452  0.8428 -0.3378
 3293SOL    HW214437   5.512   9.707   4.470 -0.3185  0.1557  0.0779
 3294SOL     OW14438  10.767   2.330   1.568 -0.6219  0.6667  0.7332
 3294SOL    HW114439  10.688   2.295   1.526 -1.1585 -0.6753  2.6913
 3294SOL    HW214440  10.777   2.277   1.647  2.0465  1.0583  0.7509
 3295SOL     OW14441   9.272  11.587   3.010  0.1077 -0.1324 -0.8102
 3295SOL    HW114442   9.310  11.504   2.982  0.7872 -0.4787  1.0039
 3295SOL    HW214443   9.309  11.602   3.097 -1.4581  1.1415 -0.3240
 3296SOL     OW14444   7.363   7.582   5.099  0.2459  0.0911 -0.1787
 3296SOL    HW114445   7.320   7.637   5.165 -0.1800  0.3003 -0.6258
 3296SOL    HW214446   7.445   7.627   5.080 -0.1148  0.5911 -0.5658
 3297SOL     OW14447  12.099   6.985  11.729  0.1770  0.4012 -0.2512
 3297SOL    HW114448  12.132   7.023  11.648 -0.9926  0.2212 -0.8427
 3297SOL    HW214449  12.069   6.898  11.704 -1.4547  0.8398  0.0428
 3298SOL     OW14450  11.754   3.267   9.063  0.0799 -0.0892 -0.5368
 3298SOL    HW114451  11.835   3.314   9.083 -0.8757  1.5964 -0.4811
 3298SOL    HW214452  11.715   3.249   9.148 -0.3962  0.5869 -0.6003
 3299SOL     OW14453   9.996   9.478   3.813 -0.3859 -0.1081  0.3668
 3299SOL    HW114454  10.072   9.431   3.779 -0.7744 -1.0558  0.7621
 3299SOL    HW214455   9.983   9.549   3.751  0.0078 -0.7310 -0.4652
 3300SOL     OW14456   7.302  11.625   2.022  0.1853  0.0429  0.5210
 3300SOL    HW114457   7.267  11.539   2.049  1.8343 -0.8914 -0.1841
 3300SOL    HW214458   7.364  11.605   1.953  0.3517  1.8750  0.0926
 3301SOL     OW14459   7.707   8.443   3.782  0.5394  0.3404  0.2151
 3301SOL    HW114460   7.617   8.428   3.812 -0.3973  2.5031 -1.3032
 3301SOL    HW214461   7.712   8.537   3.765  2.7698  0.1114 -0.7638
 3302SOL     OW14462  11.594   0.314   4.888  0.5666 -0.1776 -0.0145
 3302SOL    HW114463  11.628   0.238   4.841  2.3403  1.6828 -1.9656
 3302SOL    HW214464  11.500   0.312   4.871  0.6984 -1.4235 -0.7728
 3303SOL     OW14465   2.140   2.513   6.165 -0.6659  0.6451 -0.4409
 3303SOL    HW114466   2.140   2.424   6.200  1.5782  1.3126  1.5055
 3303SOL    HW214467   2.049   2.528   6.139 -1.3734 -1.7557  0.3636
 3304SOL     OW14468   5.530   4.549   6.772 -0.0163  0.1666  0.1364
 3304SOL    HW114469   5.520   4.620   6.708 -0.0286  0.1370  0.1056
 3304SOL    HW214470   5.581   4.588   6.843  0.5494  0.0119 -0.1839
 3305SOL     OW14471   8.923   5.686   0.964  0.8623  0.3448  0.1468
 3305SOL    HW114472   9.006   5.709   1.006  1.1211  0.2530 -0.3048
 3305SOL    HW214473   8.870   5.650   1.035  2.1619 -2.1114 -0.0155
 3306SOL     OW14474   3.195  11.587   6.257 -0.0813 -0.3930  0.3825
 3306SOL    HW114475   3.218  11.577   6.164 -0.5719  1.1211  0.0740
 3306SOL    HW214476   3.225  11.674   6.280  0.9008 -1.0955  1.9429
 3307SOL     OW14477   5.046   5.175   3.613  0.3750 -0.3140  0.0045
 3307SOL    HW114478   4.951   5.175   3.604  0.3683 -1.5480 -0.1160
 3307SOL    HW214479   5.069   5.083   3.621  1.4683  0.0245  1.1324
 3308SOL     OW14480   8.191  10.098   8.732 -0.3797  0.8172  0.8821
 3308SOL    HW114481   8.277  10.121   8.768  0.4757  0.5891 -0.8927
 3308SOL    HW214482   8.141  10.068   8.807  1.8024 -1.1398  1.6777
 3309SOL     OW14483   3.493   7.192   7.116 -0.6333  0.4631  0.8045
 3309SOL    HW114484   3.529   7.281   7.125 -0.8285  0.6853 -0.4404
 3309SOL    HW214485   3.409   7.205   7.073 -0.7764 -0.3141  0.8386
 3310SOL     OW14486  11.053  11.528   1.426 -0.2027  0.0243  0.1114
 3310SOL    HW114487  11.089  11.586   1.494 -0.3626 -0.3451  0.5179
 3310SOL    HW214488  11.099  11.445   1.439 -1.8994 -0.7958  1.3199
 3311SOL     OW14489   4.622   7.821   2.455 -0.1106 -0.5104 -0.5513
 3311SOL    HW114490   4.632   7.894   2.395 -1.1023  1.4945  1.5627
 3311SOL    HW214491   4.690   7.759   2.429 -0.3323  0.3399 -3.5083
 3312SOL     OW14492   9.609   5.618   2.085  0.1365  0.5125  0.3450
 3312SOL    HW114493   9.623   5.524   2.099 -1.0973  0.4511  1.3691
 3312SOL    HW214494   9.622   5.631   1.991  0.4156 -0.6693  0.2084
 3313SOL     OW14495   3.866  11.985   6.629 -0.2567  0.6635 -0.0922
 3313SOL    HW114496   3.933  11.917   6.634 -0.7145  0.1933 -0.2789
 3313SOL    HW214497   3.795  11.945   6.580 -2.2186 -0.1351  3.1290
 3314SOL     OW14498   4.491   1.265   9.207  0.7848 -0.2361 -0.2237
 3314SOL    HW114499   4.493   1.317   9.127  0.0166  0.3666  0.1421
 3314SOL    HW214500   4.472   1.176   9.177 -0.6635  0.1819 -0.6345
 3315SOL     OW14501   6.416  11.880   1.219  0.6616  0.1344 -0.3609
 3315SOL    HW114502   6.406  11.917   1.306 -1.5398 -0.0714 -0.4774
 3315SOL    HW214503   6.350  11.924   1.166 -0.2871 -2.0707 -1.1280
 3316SOL     OW14504   1.943  11.902  10.651 -0.1365 -0.4042 -0.0280
 3316SOL    HW114505   1.872  11.846  10.621  0.3451 -1.4449  0.7197
 3316SOL    HW214506   1.999  11.913  10.574 -0.8220  0.0130 -0.4832
 3317SOL     OW14507   9.221   3.828   3.330  0.6543  0.0598 -0.3126
 3317SOL    HW114508   9.278   3.863   3.261  0.0879 -1.5769 -1.6636
 3317SOL    HW214509   9.282   3.796   3.397  1.2376  0.8007 -0.4710
 3318SOL     OW14510   1.153   1.902  12.063  0.2848 -0.6203  0.5094
 3318SOL    HW114511   1.190   1.903  11.975 -0.0919  0.1902  0.3528
 3318SOL    HW214512   1.128   1.993  12.080 -1.9057 -1.1456  0.4613
 3319SOL     OW14513   3.210   0.560   5.754 -0.2150  0.1662  0.0873
 3319SOL    HW114514   3.233   0.652   5.741 -2.6894  0.6668 -1.2776
 3319SOL    HW214515   3.115   0.559   5.754 -0.2541 -2.3821  0.4023
 3320SOL     OW14516   1.412   4.287   7.040 -0.5435  0.1998 -0.6203
 3320SOL    HW114517   1.372   4.200   7.045  1.4435 -0.6865  1.0094
 3320SOL    HW214518   1.400   4.324   7.128 -0.8255  1.3499 -1.1183
 3321SOL     OW14519   8.382   0.116   4.262 -0.2528 -0.0944 -0.0206
 3321SOL    HW114520   8.366   0.035   4.311  0.1988 -0.4384 -0.4328
 3321SOL    HW214521   8.467   0.146   4.292 -0.7844  0.6890  0.7431
 3322SOL     OW14522   9.536  11.217   0.720  0.2233  0.6650 -0.2876
 3322SOL    HW114523   9.503  11.291   0.669 -1.0576  0.4923  0.2652
 3322SOL    HW214524   9.502  11.231   0.808  0.8258 -0.0491  0.0740
 3323SOL     OW14525   8.439   0.485   6.393  0.0735 -0.4954  0.5249
 3323SOL    HW114526   8.528   0.516   6.407  0.1446 -1.2441  1.9938
 3323SOL    HW214527   8.384   0.544   6.444 -0.4347  0.6698 -1.2926
 3324SOL     OW14528   3.711   9.591   9.434 -0.0129  0.2718 -0.0574
 3324SOL    HW114529   3.629   9.641   9.436 -0.6789 -0.4287 -3.5646
 3324SOL    HW214530   3.684   9.500   9.426  1.1456 -0.1122  0.2191
 3325SOL     OW14531  11.980   9.623   0.910 -0.0804  0.2248 -0.2807
 3325SOL    HW114532  12.014   9.658   0.827 -0.0019 -1.5906 -1.0502
 3325SOL    HW214533  12.038   9.549   0.930 -0.0852  0.6453  1.4264
 3326SOL     OW14534   0.721   8.906   6.694  0.2103  0.3775  0.0207
 3326SOL    HW114535   0.756   8.974   6.637  0.0359 -0.3097 -0.9371
 3326SOL    HW214536   0.640   8.879   6.650  1.1578 -1.6577 -0.5695
 3327SOL     OW14537   5.151   9.059   9.243  0.1690  0.1642 -0.0368
 3327SOL    HW114538   5.174   8.971   9.213  1.3498  0.5764 -0.3743
 3327SOL    HW214539   5.179   9.117   9.173 -0.1639  0.8560  0.3918
 3328SOL     OW14540   2.221   2.093  10.875 -0.9985 -0.2567 -0.0382
 3328SOL    HW114541   2.162   2.114  10.803 -0.7285 -0.5345 -0.3411
 3328SOL    HW214542   2.266   2.175  10.895 -3.4441  0.7130  2.0369
 3329SOL     OW14543   4.616   1.747  11.043  0.0772  0.1608 -0.5349
 3329SOL    HW114544   4.705   1.781  11.043 -0.2278  0.9813 -0.3841
 3329SOL    HW214545   4.596   1.733  11.136  0.3526 -0.8428 -0.6237
 3330SOL     OW14546   8.343  10.535   1.015 -0.3773 -0.6425  0.0260
 3330SOL    HW114547   8.325  10.579   1.099  0.7559  1.3512 -0.7073
 3330SOL    HW214548   8.432  10.501   1.025 -0.2543 -0.4299 -0.3373
 3331SOL     OW14549  10.245   2.975   2.089  0.1877 -0.1483 -0.2304
 3331SOL    HW114550  10.265   2.922   2.012 -0.8149  0.8683 -1.2310
 3331SOL    HW214551  10.325   3.025   2.105  0.1812  0.1186 -1.0236
 3332SOL     OW14552   3.602   4.925   5.786 -0.1152  0.0955 -0.6039
 3332SOL    HW114553   3.581   4.844   5.739  0.2631  0.3329 -1.2059
 3332SOL    HW214554   3.529   4.938   5.847 -1.3556  0.5164 -2.1047
 3333SOL     OW14555   6.649   9.838   3.938  0.8433 -0.4403 -0.1216
 3333SOL    HW114556   6.597   9.758   3.932  0.2619 -0.0325 -0.6478
 3333SOL    HW214557   6.589   9.908   3.912  1.7473  0.0037 -1.0859
 3334SOL     OW14558   3.741   8.085   8.209 -0.0506  0.3993  0.0016
 3334SOL    HW114559   3.704   8.103   8.122 -0.8812  1.3028  0.5305
 3334SOL    HW214560   3.836   8.091   8.195 -0.1456 -0.1137 -0.9760
 3335SOL     OW14561   1.837   0.637   9.952 -0.4431  0.0094 -0.1120
 3335SOL    HW114562   1.845   0.551   9.910 -2.0631 -1.3123  2.0739
 3335SOL    HW214563   1.908   0.639  10.017 -1.1877 -0.2643  0.7282
 3336SOL     OW14564   8.221   8.494   5.254  0.0626  0.5153  0.6178
 3336SOL    HW114565   8.193   8.555   5.322 -0.9180  0.0160  0.6682
 3336SOL    HW214566   8.155   8.425   5.254  0.7478 -0.1617  0.0389
 3337SOL     OW14567   0.811   7.815  10.575  0.1027 -0.1351 -0.7492
 3337SOL    HW114568   0.754   7.882  10.537  0.4288  0.0133 -0.9844
 3337SOL    HW214569   0.853   7.859  10.649 -0.8390 -0.5445  0.0500
 3338SOL     OW14570   8.452   2.162   7.522  0.2290  0.0110  0.6521
 3338SOL    HW114571   8.442   2.097   7.452 -2.3383 -0.0016  0.9537
 3338SOL    HW214572   8.495   2.115   7.593  0.3496 -0.7348  0.0945
 3339SOL     OW14573   7.235   1.061   3.060  0.2449  0.2046 -0.2085
 3339SOL    HW114574   7.153   1.039   3.016  1.5561 -1.5505 -1.9159
 3339SOL    HW214575   7.267   1.138   3.013 -0.4224  0.9593  0.5307
 3340SOL     OW14576   6.194   0.736   0.651 -0.0886 -0.7981 -0.2304
 3340SOL    HW114577   6.193   0.796   0.576 -1.4222 -0.3729  0.1163
 3340SOL    HW214578   6.248   0.780   0.717  1.5476 -1.4100 -1.0798
 3341SOL     OW14579   4.044   0.697   9.280  0.1762 -0.1866  0.6283
 3341SOL    HW114580   4.111   0.667   9.341 -0.0708  0.6081  1.3249
 3341SOL    HW214581   3.962   0.693   9.330 -0.3288 -1.2241 -0.2328
 3342SOL     OW14582   0.293   6.021   9.812 -0.2917 -0.2288 -0.3442
 3342SOL    HW114583   0.261   5.931   9.811  1.0205 -0.7086 -0.8662
 3342SOL    HW214584   0.224   6.070   9.856 -1.4661 -1.3147 -0.9036
 3343SOL     OW14585   6.068   9.705   2.304  0.0736  0.3096 -0.4443
 3343SOL    HW114586   6.028   9.624   2.337  0.7000  0.6122  1.1426
 3343SOL    HW214587   6.024   9.775   2.352  2.8256  0.6380  1.9243
 3344SOL     OW14588   9.929   4.246  11.916 -0.1485  0.5902  0.1198
 3344SOL    HW114589   9.886   4.315  11.965  1.3979  0.0900  2.3614
 3344SOL    HW214590   9.944   4.177  11.980  3.0683  0.3802 -0.6803
 3345SOL     OW14591   7.570  11.226   2.037  0.1451  0.3183 -0.6150
 3345SOL    HW114592   7.528  11.226   2.123  0.6750 -1.4356 -0.3139
 3345SOL    HW214593   7.507  11.268   1.979 -0.1972  1.5961  0.6221
 3346SOL     OW14594   6.535  11.546   9.131 -0.0666  0.5367 -0.0658
 3346SOL    HW114595   6.573  11.464   9.097  0.7596  0.4011  1.1206
 3346SOL    HW214596   6.545  11.539   9.226 -3.3864  0.3707  0.3801
 3347SOL     OW14597   9.814   9.319  11.553 -0.1433  0.0625  0.0833
 3347SOL    HW114598   9.764   9.268  11.489 -0.4526 -0.5504  0.7951
 3347SOL    HW214599   9.901   9.280  11.553 -0.5716 -0.9329  1.1211
 3348SOL     OW14600   6.820   6.192  10.294 -0.1089 -0.1554 -0.2743
 3348SOL    HW114601   6.757   6.129  10.329  0.5884 -1.1311 -0.7166
 3348SOL    HW214602   6.774   6.234  10.221 -0.5712 -0.1722  0.0048
 3349SOL     OW14603   1.695   8.632   9.671  0.2692 -0.3038 -0.1616
 3349SOL    HW114604   1.754   8.670   9.606 -0.7020  0.2546 -0.7421
 3349SOL    HW214605   1.626   8.697   9.682  1.1031  0.2518  2.4983
 3350SOL     OW14606   5.221   2.371   4.591  0.0827 -0.3054 -0.2570
 3350SOL    HW114607   5.206   2.432   4.663  0.4035  0.1724 -0.5948
 3350SOL    HW214608   5.303   2.327   4.614 -0.8404 -1.6372  0.6904
 3351SOL     OW14609   8.017  11.915  10.722 -0.7089 -0.1604  0.4076
 3351SOL    HW114610   7.923  11.900  10.725 -0.8212 -0.4357 -2.2843
 3351SOL    HW214611   8.042  11.897  10.631  2.2121 -1.6087  1.3404
 3352SOL     OW14612   2.922  11.082   3.371  0.2856 -0.3006 -0.3142
 3352SOL    HW114613   2.968  11.001   3.395  0.0045 -0.3898 -0.0575
 3352SOL    HW214614   2.965  11.150   3.421 -0.7422 -0.5853  1.0325
 3353SOL     OW14615   5.388   9.351   1.045  0.2835  0.2113 -0.4792
 3353SOL    HW114616   5.370   9.391   0.960  1.9247  0.0936 -0.9229
 3353SOL    HW214617   5.467   9.298   1.031 -0.2413 -0.9611  0.7786
 3354SOL     OW14618   9.169   0.125   5.582 -0.1107 -0.1408  0.6453
 3354SOL    HW114619   9.088   0.175   5.576 -0.2180 -0.3640  0.2025
 3354SOL    HW214620   9.223   0.173   5.645 -1.3396 -1.0561  2.4927
 3355SOL     OW14621   8.660   6.779  11.186  0.3843  0.6590  0.4333
 3355SOL    HW114622   8.637   6.745  11.099 -1.0536 -0.2519  1.1324
 3355SOL    HW214623   8.655   6.703  11.244  1.1320  1.2951  1.3583
 3356SOL     OW14624   9.367   4.147  11.504 -0.2857  0.4457  0.4097
 3356SOL    HW114625   9.452   4.101  11.497  0.9849  2.6852  0.2061
 3356SOL    HW214626   9.307   4.080  11.536  1.4272 -1.3847  0.0503
 3357SOL     OW14627   0.180   8.784   6.683  0.2574 -0.3275  0.0722
 3357SOL    HW114628   0.188   8.690   6.693 -0.0219 -0.3410  0.1849
 3357SOL    HW214629   0.085   8.800   6.679  0.2684  0.0411  0.9523
 3358SOL     OW14630   1.301   2.120   7.757 -0.0647 -0.7179  0.1819
 3358SOL    HW114631   1.214   2.159   7.751  0.3730  0.1652 -0.9219
 3358SOL    HW214632   1.330   2.140   7.846 -0.1972  0.7906 -0.0905
 3359SOL     OW14633  10.896   2.034  11.521  0.4341  0.0417  0.2999
 3359SOL    HW114634  10.900   2.059  11.429  0.4946  0.5447  0.4340
 3359SOL    HW214635  10.884   2.117  11.568 -1.0884 -0.3534  0.6431
 3360SOL     OW14636   3.917   0.815   2.822 -0.0860  0.4130 -0.3784
 3360SOL    HW114637   3.840   0.846   2.870  1.2827  0.0581  2.2182
 3360SOL    HW214638   3.958   0.752   2.881  1.0489 -1.0560 -2.6063
 3361SOL     OW14639   7.781   9.934   8.255 -0.3304 -0.3992  0.0172
 3361SOL    HW114640   7.822  10.008   8.210  0.8772 -1.3465 -0.4856
 3361SOL    HW214641   7.756   9.969   8.341  0.2286  0.5918 -0.2048
 3362SOL     OW14642   8.323   0.376   6.160 -0.2710  0.1454  0.0254
 3362SOL    HW114643   8.344   0.407   6.248  0.4985 -1.4552  0.4463
 3362SOL    HW214644   8.271   0.296   6.175 -0.1460 -0.1327 -0.9719
 3363SOL     OW14645   4.927  10.988   4.106 -0.1189 -0.3629  0.2488
 3363SOL    HW114646   4.909  11.080   4.085 -0.4849 -0.5571 -0.3309
 3363SOL    HW214647   4.942  10.987   4.201  0.1542  0.3323  0.2163
 3364SOL     OW14648   6.542   0.067   2.919 -0.4457  0.2107  0.2806
 3364SOL    HW114649   6.598   0.076   2.996 -0.6519 -0.0090  0.4577
 3364SOL    HW214650   6.582   0.125   2.853  1.4037 -1.6885 -0.4036
 3365SOL     OW14651   7.838   6.828   0.219 -0.2043  0.1458 -0.0665
 3365SOL    HW114652   7.862   6.756   0.278 -1.0592 -1.2830 -1.3769
 3365SOL    HW214653   7.899   6.898   0.240  1.8015 -1.5640  0.1131
 3366SOL     OW14654   7.784   3.422   9.453  0.2080  0.6440 -0.1300
 3366SOL    HW114655   7.871   3.445   9.421  0.1501  0.9482 -0.0675
 3366SOL    HW214656   7.748   3.504   9.486 -0.7145  0.8581 -1.5594
 3367SOL     OW14657   3.787   3.702   4.129  0.0077 -0.1180 -0.2058
 3367SOL    HW114658   3.722   3.682   4.197  1.0259 -1.3982  0.4330
 3367SOL    HW214659   3.737   3.747   4.061 -1.1565  0.7126  1.1329
 3368SOL     OW14660   6.531   3.874   7.006 -0.1974 -0.1827 -0.1799
 3368SOL    HW114661   6.504   3.935   6.938  0.7630  0.4442 -0.0247
 3368SOL    HW214662   6.558   3.796   6.959  1.1425  0.5031 -0.6055
 3369SOL     OW14663   5.248   1.546   6.930 -0.4574  0.6735  0.0471
 3369SOL    HW114664   5.261   1.641   6.929 -0.6897  0.7545  2.0855
 3369SOL    HW214665   5.324   1.512   6.977 -0.8941 -0.0695  0.2176
 3370SOL     OW14666   8.516   5.796   3.809 -0.6779  0.6876 -0.2853
 3370SOL    HW114667   8.500   5.884   3.843 -1.7156  0.0250  1.0327
 3370SOL    HW214668   8.437   5.775   3.759 -1.6650 -0.5024  1.6703
 3371SOL     OW14669   4.162   7.174   9.729  0.1737 -0.3190  0.2666
 3371SOL    HW114670   4.080   7.136   9.697  0.6334  0.6844 -2.3716
 3371SOL    HW214671   4.172   7.255   9.680  1.0017  1.4800  3.1685
 3372SOL     OW14672  10.180   3.217   4.756  0.3173 -0.0843 -0.4919
 3372SOL    HW114673  10.171   3.131   4.715 -0.3419 -0.3916  0.2847
 3372SOL    HW214674  10.121   3.273   4.705 -1.6717 -0.7976  0.9135
 3373SOL     OW14675   8.095   2.699   8.918 -0.4600 -0.4821  0.6988
 3373SOL    HW114676   8.109   2.780   8.967  0.3216 -0.7545  0.9421
 3373SOL    HW214677   8.110   2.723   8.827 -0.6403 -0.2667  0.7246
 3374SOL     OW14678   8.190   7.016   9.778 -0.2740  0.2659 -0.0360
 3374SOL    HW114679   8.167   6.989   9.867 -0.1030 -0.5146 -0.2201
 3374SOL    HW214680   8.286   7.012   9.777 -0.2828  0.0964 -0.3029
 3375SOL     OW14681   8.483   3.065   6.062  0.1027 -0.6569  0.2974
 3375SOL    HW114682   8.510   2.973   6.061 -0.3759 -0.8549  1.9523
 3375SOL    HW214683   8.513   3.098   6.147 -2.6217 -0.2188  1.1689
 3376SOL     OW14684   9.059   8.379   3.606 -0.5588  0.1467  0.0893
 3376SOL    HW114685   9.090   8.468   3.622 -3.4925  1.1931  0.6025
 3376SOL    HW214686   9.122   8.342   3.545  1.4366  2.1209  0.8139
 3377SOL     OW14687  11.595   2.511   0.448  0.1848  0.6046 -0.2355
 3377SOL    HW114688  11.609   2.468   0.364  1.4678  1.6791 -0.5919
 3377SOL    HW214689  11.681   2.541   0.476 -0.0389 -0.5395  1.9450
 3378SOL     OW14690   4.547   3.348  11.300 -0.8278 -0.1991  0.5456
 3378SOL    HW114691   4.478   3.315  11.356  0.0398  1.7970  3.0007
 3378SOL    HW214692   4.586   3.421  11.349  3.8117 -1.8721 -0.0752
 3379SOL     OW14693   7.385   1.880  10.704 -0.0688 -0.0573  0.6375
 3379SOL    HW114694   7.289   1.877  10.710 -0.0469 -0.5372  0.7337
 3379SOL    HW214695   7.403   1.968  10.670 -0.5619 -0.1012  0.2472
 3380SOL     OW14696  11.809   3.149   7.749 -0.0343 -0.2664 -0.0439
 3380SOL    HW114697  11.767   3.134   7.665  0.2592 -0.5241 -0.1460
 3380SOL    HW214698  11.881   3.209   7.729  1.5138 -2.1353 -0.4111
 3381SOL     OW14699   4.534   8.150   3.303  0.1331  0.1949  0.2631
 3381SOL    HW114700   4.483   8.221   3.265 -0.2740  0.2272  0.8605
 3381SOL    HW214701   4.506   8.146   3.394  0.4095 -0.5025  0.3248
 3382SOL     OW14702   1.326  11.481   7.091  0.1571 -0.1703 -0.6364
 3382SOL    HW114703   1.291  11.527   7.014 -1.4128  0.3591  0.3601
 3382SOL    HW214704   1.349  11.394   7.058 -2.8871 -0.8587 -1.2523
 3383SOL     OW14705   0.918   7.421   1.247 -0.3926  0.2015 -0.0415
 3383SOL    HW114706   0.977   7.439   1.174  1.4699  1.2119  1.6211
 3383SOL    HW214707   0.960   7.349   1.295 -1.9450 -0.9262 -0.2751
 3384SOL     OW14708  10.409   2.379  11.926 -0.4465 -0.0686  0.5061
 3384SOL    HW114709  10.343   2.359  11.992  0.3628 -0.3762  1.2550
 3384SOL    HW214710  10.442   2.466  11.950 -0.0766 -0.2265  0.5892
 3385SOL     OW14711   0.420   5.062   7.211 -0.0881 -0.0942  0.5991
 3385SOL    HW114712   0.435   4.968   7.202 -0.4079 -0.2234  1.3235
 3385SOL    HW214713   0.484   5.090   7.277 -0.1574  0.1561  0.5626
 3386SOL     OW14714   6.794   2.676   3.082  0.1551  0.5508  0.0230
 3386SOL    HW114715   6.875   2.677   3.133 -1.2781 -1.2633  2.5503
 3386SOL    HW214716   6.802   2.598   3.026 -0.5463 -0.7730  1.6745
 3387SOL     OW14717   0.766  10.325   6.802 -0.3586  0.5128  0.1940
 3387SOL    HW114718   0.732  10.368   6.880  2.4084  0.7170  1.3856
 3387SOL    HW214719   0.858  10.351   6.798 -0.3847  0.4590 -3.1361
 3388SOL     OW14720   8.987   7.239   5.728  0.1195  0.1139 -0.3576
 3388SOL    HW114721   9.044   7.171   5.764  0.3305  1.1737  1.4203
 3388SOL    HW214722   9.033   7.270   5.650  1.8994  0.7443  0.8776
 3389SOL     OW14723   6.829   6.977   5.398 -0.2151  0.2919 -0.0019
 3389SOL    HW114724   6.747   6.959   5.352 -0.5176 -0.3689  0.7857
 3389SOL    HW214725   6.803   6.993   5.489  0.4921  0.4429  0.1775
 3390SOL     OW14726   9.692   5.142   9.692 -0.3565  0.1108 -0.2603
 3390SOL    HW114727   9.607   5.131   9.734 -0.1043  0.8628  0.4560
 3390SOL    HW214728   9.718   5.232   9.711  0.6383 -0.1270 -0.4114
 3391SOL     OW14729   1.765   4.439   4.616 -0.4489  0.1003  0.3924
 3391SOL    HW114730   1.810   4.487   4.547  1.2903 -1.4042  0.3870
 3391SOL    HW214731   1.675   4.471   4.614 -0.3175  0.4974 -2.1928
 3392SOL     OW14732   0.486   8.064   2.014 -0.1707 -0.4154  0.3096
 3392SOL    HW114733   0.527   8.111   2.087 -0.0120  0.0123 -0.0534
 3392SOL    HW214734   0.522   8.105   1.935  0.8326 -1.8851 -0.0294
 3393SOL     OW14735  11.725   2.728  10.475 -0.1378 -0.2246 -0.4639
 3393SOL    HW114736  11.754   2.724  10.566  1.4824 -0.0723 -0.9336
 3393SOL    HW214737  11.806   2.718  10.424 -0.6970  1.7197 -1.8644
 3394SOL     OW14738   7.081   3.302   0.339 -0.2093 -0.0054 -0.2040
 3394SOL    HW114739   7.114   3.262   0.419 -0.9742 -0.9498 -0.3458
 3394SOL    HW214740   7.006   3.355   0.367  2.0582  3.2049  0.3200
 3395SOL     OW14741   0.694   7.384   2.435 -0.1296 -0.0207  0.4612
 3395SOL    HW114742   0.758   7.418   2.374  0.1719 -1.1746  0.0988
 3395SOL    HW214743   0.610   7.420   2.406  0.1562  0.2921  0.0253
 3396SOL     OW14744   9.183   0.195  10.240  0.2381  0.5127 -0.6724
 3396SOL    HW114745   9.177   0.257  10.312  1.9064  0.7959 -0.7238
 3396SOL    HW214746   9.274   0.165  10.242 -0.1919 -0.9374 -1.4667
 3397SOL     OW14747   3.681   7.747   0.854 -0.1815 -0.5539 -0.4274
 3397SOL    HW114748   3.752   7.809   0.874 -0.6228 -0.3690  0.6202
 3397SOL    HW214749   3.724   7.661   0.856  0.2344 -0.3655 -0.9127
 3398SOL     OW14750   5.730   9.977  11.616 -0.6858  0.4415  0.1246
 3398SOL    HW114751   5.710   9.884  11.605 -0.1201  0.5625 -2.5691
 3398SOL    HW214752   5.820   9.979  11.647 -0.4142  0.0933 -0.6294
 3399SOL     OW14753   7.068   2.633  11.460 -0.1882  1.1121 -0.1388
 3399SOL    HW114754   7.054   2.547  11.499  1.9255  0.5187 -0.5681
 3399SOL    HW214755   6.981   2.672  11.456 -0.8527  0.1177  2.5823
 3400SOL     OW14756   1.124  12.111   9.953  0.5509  0.1706  0.7860
 3400SOL    HW114757   1.195  12.084  10.011  0.4493  0.3530  0.9958
 3400SOL    HW214758   1.052  12.134  10.013  0.5809  0.7477  0.6025
 3401SOL     OW14759   2.555   9.763   8.759  0.1431  0.0055  0.3964
 3401SOL    HW114760   2.470   9.720   8.770 -0.4926  0.7796 -1.1852
 3401SOL    HW214761   2.533   9.856   8.749  0.9103 -0.0509 -2.4684
 3402SOL     OW14762   3.177   7.312   4.428  0.4954 -0.0180 -0.3177
 3402SOL    HW114763   3.131   7.259   4.363 -1.8057  0.4646  0.8320
 3402SOL    HW214764   3.240   7.252   4.469  0.4996 -0.8599 -1.5072
 3403SOL     OW14765  11.615   7.913   4.139 -0.3759 -0.7398  0.1400
 3403SOL    HW114766  11.710   7.927   4.142 -0.6593  1.3971  0.1638
 3403SOL    HW214767  11.598   7.849   4.208  1.1003 -1.6063 -0.2561
 3404SOL     OW14768   3.629  10.812   0.069 -0.0759 -0.2883  0.0547
 3404SOL    HW114769   3.664  10.866  -0.002 -1.4531  0.8446  0.2043
 3404SOL    HW214770   3.669  10.847   0.149 -1.3987  0.9183  0.2127
 3405SOL     OW14771   4.802   9.120   3.702  0.3553  0.0355 -0.2081
 3405SOL    HW114772   4.730   9.073   3.744  0.5376 -1.0078 -1.0390
 3405SOL    HW214773   4.801   9.207   3.743 -1.5167  0.1222 -0.3642
 3406SOL     OW14774  10.181   1.598   9.836  0.0297 -0.5037  0.6165
 3406SOL    HW114775  10.152   1.546   9.911 -0.2780  0.3486  1.1053
 3406SOL    HW214776  10.200   1.684   9.873 -0.7181  0.1084 -0.3713
 3407SOL     OW14777   7.581   3.326   0.918 -0.3181  0.6243  0.2735
 3407SOL    HW114778   7.648   3.378   0.873  1.2759 -1.3353  0.2565
 3407SOL    HW214779   7.521   3.300   0.849 -0.3981  1.3338  0.0639
 3408SOL     OW14780   6.390  11.671   8.219 -0.4580  0.2007  0.4199
 3408SOL    HW114781   6.307  11.624   8.204 -0.1327 -0.1238 -0.4388
 3408SOL    HW214782   6.367  11.763   8.207 -1.0144  0.2441  1.7060
 3409SOL     OW14783  10.869   6.297   5.069 -0.5552  0.2881 -0.5062
 3409SOL    HW114784  10.935   6.293   5.000  0.3536 -0.8497  0.3721
 3409SOL    HW214785  10.914   6.338   5.142 -1.3961  1.1508 -0.4631
 3410SOL     OW14786   4.940   2.822   0.914  0.0446 -0.2497 -0.2414
 3410SOL    HW114787   4.888   2.875   0.854  0.8118 -2.1252 -2.7640
 3410SOL    HW214788   4.876   2.770   0.963 -0.7001 -2.9261 -3.6633
 3411SOL     OW14789   3.742  11.453   9.506  0.1296 -0.4502  0.7003
 3411SOL    HW114790   3.770  11.390   9.440 -0.1946  0.8733 -0.7553
 3411SOL    HW214791   3.748  11.405   9.589  0.3024 -2.2340 -0.2947
 3412SOL     OW14792   3.946   3.037   5.530  0.0191 -0.2517 -0.0772
 3412SOL    HW114793   3.900   2.955   5.512 -0.4948  0.3758 -1.8492
 3412SOL    HW214794   4.032   3.026   5.489  0.6104 -0.5151  1.1692
 3413SOL     OW14795   7.165   8.801   5.292  0.2869 -0.3020 -0.6663
 3413SOL    HW114796   7.236   8.825   5.233  0.2550  0.2985 -0.4590
 3413SOL    HW214797   7.208   8.773   5.373  0.3225 -0.9597 -0.9013
 3414SOL     OW14798   6.679   1.803   0.166 -0.0308 -0.0388  0.3089
 3414SOL    HW114799   6.698   1.843   0.251 -1.2171  0.2233  0.4736
 3414SOL    HW214800   6.629   1.723   0.188 -0.7106  0.2508 -0.1403
 3415SOL     OW14801  10.650   9.670   6.066 -0.4745 -0.2652  0.0511
 3415SOL    HW114802  10.659   9.756   6.108  1.5718 -0.1629 -0.5270
 3415SOL    HW214803  10.732   9.657   6.019 -0.2673 -3.0224  0.9902
 3416SOL     OW14804   9.427   7.147   2.875  0.0661  0.5985  0.1515
 3416SOL    HW114805   9.421   7.224   2.818  1.3530  2.0167  1.8144
 3416SOL    HW214806   9.511   7.106   2.851  1.2081  1.8821  1.7275
 3417SOL     OW14807   3.574  10.502   1.787 -0.1095  0.3269  0.3816
 3417SOL    HW114808   3.642  10.436   1.802 -1.3108 -1.2352 -0.6029
 3417SOL    HW214809   3.532  10.513   1.872  1.1661  1.0951  0.9281
 3418SOL     OW14810   9.442   1.276  11.529 -0.0064 -0.1836  0.2136
 3418SOL    HW114811   9.397   1.342  11.476 -0.6803 -1.0828 -0.3574
 3418SOL    HW214812   9.436   1.196  11.477 -0.4139 -1.0173  1.5022
 3419SOL     OW14813   5.037  10.167   8.482 -0.1757 -0.0734  0.5080
 3419SOL    HW114814   4.979  10.123   8.544 -1.9602  0.8435 -0.4518
 3419SOL    HW214815   5.017  10.260   8.492 -0.5136  0.0981 -1.3971
 3420SOL     OW14816   4.309   0.605  11.884  0.3270 -0.2646 -0.5405
 3420SOL    HW114817   4.227   0.644  11.855  1.4577  1.8665 -1.1010
 3420SOL    HW214818   4.319   0.527  11.829 -0.9175 -0.1293 -0.9989
 3421SOL     OW14819  12.068  10.401   9.645 -0.4996  0.5424  0.4287
 3421SOL    HW114820  12.113  10.476   9.606  0.1617 -0.7927 -1.5284
 3421SOL    HW214821  12.065  10.421   9.738  3.0984  1.2482  0.5211
 3422SOL     OW14822   4.279  11.373   6.837 -0.0529 -0.4103  0.1358
 3422SOL    HW114823   4.191  11.406   6.852 -0.6533 -1.8472 -0.0091
 3422SOL    HW214824   4.327  11.446   6.798 -0.7082  0.8985  1.6920
 3423SOL     OW14825   0.986   4.903   4.009 -0.1514  0.0200  0.5017
 3423SOL    HW114826   0.893   4.921   3.999  0.2564  1.7312 -0.6423
 3423SOL    HW214827   1.009   4.939   4.095 -0.5313 -0.4749  0.8201
 3424SOL     OW14828  10.854   6.299   5.434  0.1631  0.0738  0.1515
 3424SOL    HW114829  10.878   6.351   5.358  0.5960  0.6721  0.6779
 3424SOL    HW214830  10.803   6.358   5.489  1.7837  0.4020  1.3789
 3425SOL     OW14831   8.605   3.497   6.927  0.1193  0.4797  0.5089
 3425SOL    HW114832   8.594   3.543   7.010  0.3978  0.3990  0.5889
 3425SOL    HW214833   8.591   3.564   6.860  0.6963  0.7206  0.6249
 3426SOL     OW14834   3.580   9.455   5.205  0.3127  0.0594 -0.3805
 3426SOL    HW114835   3.587   9.366   5.170 -1.0652 -0.6517  1.0319
 3426SOL    HW214836   3.521   9.500   5.145 -1.3341 -0.8916  0.4504
 3427SOL     OW14837  11.116  10.408   0.533 -0.0036  0.0698 -0.0898
 3427SOL    HW114838  11.061  10.334   0.509 -0.6873 -0.1226  1.8666
 3427SOL    HW214839  11.195  10.369   0.569  0.0966  0.3086 -0.0460
 3428SOL     OW14840  11.484   7.069   9.979 -0.1677  0.3052  0.4749
 3428SOL    HW114841  11.485   7.163   9.995  1.8920  0.3726  0.1733
 3428SOL    HW214842  11.441   7.059   9.894 -2.2696  0.7469  1.4141
 3429SOL     OW14843  10.098   2.356   2.645  0.1722 -0.0089  0.2206
 3429SOL    HW114844  10.068   2.440   2.681 -1.0253  0.4481 -1.6668
 3429SOL    HW214845  10.177   2.378   2.596 -0.6779  0.2609 -1.0913
 3430SOL     OW14846   7.837   6.709   3.468  0.0644 -0.1245 -0.5539
 3430SOL    HW114847   7.930   6.732   3.466 -0.3933  1.8597 -0.5669
 3430SOL    HW214848   7.811   6.726   3.559  0.0010 -2.0315 -0.1766
 3431SOL     OW14849  11.839   1.035   1.954  0.3931  0.1907  0.2624
 3431SOL    HW114850  11.916   0.993   1.916 -0.3270  0.8584 -2.1041
 3431SOL    HW214851  11.765   0.993   1.911 -0.3980  2.4686 -0.7880
 3432SOL     OW14852   8.542   7.777   5.580  0.2054 -0.2067 -0.2357
 3432SOL    HW114853   8.488   7.774   5.659 -1.0093 -0.4572 -1.0487
 3432SOL    HW214854   8.627   7.741   5.607 -0.3697 -0.7989  0.8179
 3433SOL     OW14855   2.544  11.899   9.561  0.3441  0.1161 -0.4975
 3433SOL    HW114856   2.454  11.866   9.553 -0.1452  1.2722 -0.0819
 3433SOL    HW214857   2.599  11.821   9.560 -0.7763 -0.7282  0.7501
 3434SOL     OW14858   8.219   4.068   6.844  0.2182  0.8542  0.1918
 3434SOL    HW114859   8.212   4.094   6.752 -0.2624 -2.2116 -0.7718
 3434SOL    HW214860   8.184   4.142   6.893  0.2489  2.4895 -2.0900
 3435SOL     OW14861   9.690   0.419   5.499  0.0581 -0.2647 -0.3806
 3435SOL    HW114862   9.596   0.402   5.493  0.0625 -0.7623  0.7114
 3435SOL    HW214863   9.697   0.514   5.502 -0.3103 -0.1771 -1.7405
 3436SOL     OW14864   6.620   3.596   1.600 -0.1843  0.0585 -0.8171
 3436SOL    HW114865   6.691   3.651   1.568 -0.1306  0.1028 -0.6255
 3436SOL    HW214866   6.548   3.656   1.616  0.4366  0.3882  1.1262
 3437SOL     OW14867   9.078   1.778   9.306 -0.4123 -0.0350  0.5659
 3437SOL    HW114868   9.147   1.821   9.256  0.8161 -1.9795  0.4782
 3437SOL    HW214869   9.031   1.725   9.241  0.4947 -1.7146  1.2286
 3438SOL     OW14870   1.938   8.962   1.485 -0.1866 -0.0277 -0.6413
 3438SOL    HW114871   1.855   9.011   1.479 -0.6453 -0.6622  0.2542
 3438SOL    HW214872   1.935   8.921   1.571  0.9903 -0.2160 -0.6745
 3439SOL     OW14873   1.217   7.789   9.464 -0.3101 -0.3859 -0.0997
 3439SOL    HW114874   1.293   7.820   9.414 -0.8525 -0.2971 -0.8969
 3439SOL    HW214875   1.233   7.818   9.553  1.0123 -1.1181 -0.0749
 3440SOL     OW14876   8.024   5.705   7.929  0.0643  0.1661  0.0653
 3440SOL    HW114877   8.120   5.704   7.924  0.1886 -1.4320  1.7384
 3440SOL    HW214878   8.001   5.797   7.938  1.2375  0.8413 -2.6462
 3441SOL     OW14879   3.021  10.863   8.056 -0.2110 -0.0750  0.1968
 3441SOL    HW114880   3.011  10.956   8.037 -1.5604 -0.7639 -2.9083
 3441SOL    HW214881   3.095  10.835   8.002  0.1195 -0.8642  1.0233
 3442SOL     OW14882   9.587   4.230   0.913 -0.0951  0.1517  0.0658
 3442SOL    HW114883   9.608   4.155   0.857  2.7545 -0.0011  1.1320
 3442SOL    HW214884   9.586   4.193   1.002 -0.6883  1.0196  0.4335
 3443SOL     OW14885   5.413   7.737   4.293 -0.0877 -0.0536  0.0206
 3443SOL    HW114886   5.371   7.764   4.211 -1.1129  1.1480  0.8873
 3443SOL    HW214887   5.344   7.748   4.359  1.1016  0.3081  1.2357
 3444SOL     OW14888   1.304   0.554   0.405  0.5287 -0.4134 -0.7012
 3444SOL    HW114889   1.264   0.641   0.401 -1.8156 -1.4607 -1.2181
 3444SOL    HW214890   1.353   0.547   0.323 -1.1449 -0.4025 -1.7471
 3445SOL     OW14891   3.926   7.689   4.095 -0.0189  0.3224  0.0091
 3445SOL    HW114892   3.952   7.625   4.029  2.3288  0.9821  0.2135
 3445SOL    HW214893   3.993   7.683   4.163 -0.2625  2.3030  0.4986
 3446SOL     OW14894  11.758   8.244   6.362 -0.9043 -0.0249  0.0967
 3446SOL    HW114895  11.758   8.227   6.268 -0.0741 -3.7915  0.6082
 3446SOL    HW214896  11.681   8.196   6.395 -1.8991  2.2195  1.2828
 3447SOL     OW14897   0.345   6.335   6.323 -0.3832  0.1855 -0.5596
 3447SOL    HW114898   0.409   6.264   6.310 -2.0283 -1.2455 -1.1993
 3447SOL    HW214899   0.385   6.410   6.280  0.7242 -0.7536 -1.2541
 3448SOL     OW14900   0.409   4.199   1.940  0.3926 -0.1627  0.3496
 3448SOL    HW114901   0.393   4.171   2.031 -0.3182 -1.8806 -0.2582
 3448SOL    HW214902   0.458   4.126   1.901  0.9917  0.7082 -0.5647
 3449SOL     OW14903  11.256  10.913   9.167  0.1568 -0.1355 -0.2785
 3449SOL    HW114904  11.219  10.881   9.085 -0.0801  0.4332 -0.4031
 3449SOL    HW214905  11.339  10.955   9.142 -0.8415  1.8072 -0.5496
 3450SOL     OW14906   7.370   0.234   8.283  0.6536 -0.5204 -0.0660
 3450SOL    HW114907   7.333   0.173   8.347  0.9771 -0.9527 -0.2896
 3450SOL    HW214908   7.335   0.205   8.199  1.4871 -0.9249 -0.2752
 3451SOL     OW14909  11.118  12.053  11.200 -0.3586  0.0318  0.1502
 3451SOL    HW114910  11.085  12.080  11.286 -1.6004  1.3561 -0.6880
 3451SOL    HW214911  11.042  12.061  11.142  0.5683 -0.3959 -1.1762
 3452SOL     OW14912  11.504   9.144  11.560 -0.2121  0.0211  0.6258
 3452SOL    HW114913  11.512   9.056  11.596 -0.2335 -0.1460  0.2259
 3452SOL    HW214914  11.420   9.144  11.514  0.9939 -0.6408 -1.7677
 3453SOL     OW14915   6.789   1.802   6.374 -0.5785  1.2319 -0.3084
 3453SOL    HW114916   6.782   1.708   6.354 -0.5225  0.8428  1.3617
 3453SOL    HW214917   6.707   1.839   6.342 -0.3659  0.7168 -1.4964
 3454SOL     OW14918   7.402   9.339   9.484 -0.1638  0.1836 -0.1194
 3454SOL    HW114919   7.323   9.302   9.524 -0.2686 -0.6877 -1.0844
 3454SOL    HW214920   7.473   9.313   9.544 -0.5741  0.7759  0.6310
 3455SOL     OW14921   3.710   4.776   7.093  0.1734 -0.6855  0.1078
 3455SOL    HW114922   3.764   4.853   7.114 -0.8629 -0.0916  0.6559
 3455SOL    HW214923   3.774   4.705   7.081  1.0582 -0.1507  1.3980
 3456SOL     OW14924  10.870   7.948   7.811 -0.2558 -0.4089  0.4591
 3456SOL    HW114925  10.964   7.955   7.799 -0.6527  0.2751 -3.9870
 3456SOL    HW214926  10.850   8.006   7.884  2.4560  2.5575 -0.9205
 3457SOL     OW14927  10.971   7.614   3.772 -0.1866  0.1981  0.0038
 3457SOL    HW114928  10.976   7.606   3.677 -0.5116 -1.0707  0.0665
 3457SOL    HW214929  10.901   7.678   3.787 -0.5628 -0.0583 -0.6149
 3458SOL     OW14930  11.014   5.288   0.221  0.4201  0.0982 -0.0833
 3458SOL    HW114931  10.924   5.260   0.235  0.7656 -0.6648  0.6963
 3458SOL    HW214932  11.032   5.346   0.295  0.6439  0.0729 -0.1176
 3459SOL     OW14933   2.985   0.429   8.701 -0.1883  0.3986  1.1664
 3459SOL    HW114934   3.010   0.473   8.783  1.3042 -0.8840  1.4541
 3459SOL    HW214935   3.061   0.376   8.678 -0.9740 -0.0687 -0.5221
 3460SOL     OW14936   4.392  11.855  11.867 -0.0551 -0.3568  0.6806
 3460SOL    HW114937   4.379  11.867  11.961 -1.0048 -0.5147  0.5849
 3460SOL    HW214938   4.466  11.912  11.846 -0.5693  0.5985  1.3217
 3461SOL     OW14939   3.298  11.235   1.725 -0.4057 -0.0765  0.1534
 3461SOL    HW114940   3.275  11.222   1.633  2.5899 -1.7453 -0.4898
 3461SOL    HW214941   3.254  11.164   1.771 -0.2485 -0.5069 -0.3451
 3462SOL     OW14942   3.547   3.193   3.123  0.2735 -0.9642  0.1398
 3462SOL    HW114943   3.595   3.120   3.084  0.0986 -1.0723  0.1249
 3462SOL    HW214944   3.530   3.165   3.213 -2.0214 -2.0523 -0.5586
 3463SOL     OW14945   4.475   8.751   4.544 -0.2091  0.1195 -0.1661
 3463SOL    HW114946   4.386   8.784   4.538 -0.8190 -1.1602  1.2623
 3463SOL    HW214947   4.487   8.698   4.465 -0.8897 -0.1144 -0.1140
 3464SOL     OW14948   7.344   9.870   3.706 -0.1510 -0.1473 -0.0428
 3464SOL    HW114949   7.276   9.931   3.736 -1.1757 -0.8688 -0.8352
 3464SOL    HW214950   7.423   9.901   3.749 -1.0309  0.5185  1.1917
 3465SOL     OW14951  11.969   5.712   9.003 -0.2688  0.1287 -0.1008
 3465SOL    HW114952  12.011   5.638   8.959 -1.0937 -0.3985 -0.0332
 3465SOL    HW214953  11.905   5.671   9.061 -1.8013  0.9415 -1.1648
 3466SOL     OW14954   7.460   9.657   4.743 -0.2794  0.1819 -0.0243
 3466SOL    HW114955   7.414   9.589   4.693 -1.6819  0.0727  1.3237
 3466SOL    HW214956   7.445   9.633   4.835  0.6428  1.3934  0.4722
 3467SOL     OW14957  11.729   2.881   9.103 -0.1612 -0.6211  0.1467
 3467SOL    HW114958  11.713   2.819   9.031 -0.5832  2.5430 -2.7575
 3467SOL    HW214959  11.642   2.903   9.135 -0.0544 -0.9052  0.6487
 3468SOL     OW14960   6.732   1.585   9.130 -0.5534  0.2193  0.8343
 3468SOL    HW114961   6.722   1.547   9.043  0.5624 -0.4389  0.9751
 3468SOL    HW214962   6.724   1.510   9.190 -0.1641  0.4875  1.2277
 3469SOL     OW14963  10.896   3.836  10.009  0.3114 -0.3492  0.0152
 3469SOL    HW114964  10.878   3.821  10.101 -1.8070  0.7381 -0.1628
 3469SOL    HW214965  10.810   3.849   9.969  0.9670 -2.6311 -2.5017
 3470SOL     OW14966  12.022   2.578   9.408 -0.4361 -0.4135  0.2264
 3470SOL    HW114967  12.102   2.536   9.377 -0.7578 -1.3328  0.6010
 3470SOL    HW214968  11.956   2.509   9.406 -1.0797  0.1799  0.4842
 3471SOL     OW14969   2.202   9.085   9.551  0.3326  0.2499  0.8100
 3471SOL    HW114970   2.258   9.022   9.507  0.2053  1.6202 -1.4653
 3471SOL    HW214971   2.262   9.137   9.605  1.1419  0.9811 -0.7397
 3472SOL     OW14972   3.727  10.262  11.977  0.2155  0.2645  0.4242
 3472SOL    HW114973   3.731  10.332  11.911 -0.3185  2.0522  2.1935
 3472SOL    HW214974   3.633  10.246  11.988  0.3037 -0.0424  0.7128
 3473SOL     OW14975   7.407  10.299   3.514 -0.0484  0.0711 -0.4040
 3473SOL    HW114976   7.421  10.218   3.466 -0.2360  0.3053 -0.8637
 3473SOL    HW214977   7.314  10.299   3.536 -0.1482  0.3805 -0.8171
 3474SOL     OW14978   6.845   6.042   2.145  0.4803 -0.0062  0.5697
 3474SOL    HW114979   6.829   5.976   2.212 -1.2284 -0.9765 -0.7019
 3474SOL    HW214980   6.819   6.124   2.186  0.0394 -0.4938  1.3009
 3475SOL     OW14981   7.243   5.785   4.402 -0.1474 -0.3544 -0.2184
 3475SOL    HW114982   7.220   5.877   4.386  0.3030 -0.0617  0.7424
 3475SOL    HW214983   7.325   5.772   4.354  0.7464  0.2727  1.0919
 3476SOL     OW14984   9.102   4.372   0.267  0.2641 -0.1343  0.1601
 3476SOL    HW114985   9.156   4.345   0.341 -0.0895  0.4387  0.6392
 3476SOL    HW214986   9.121   4.308   0.199 -0.0152 -1.1590  1.0096
 3477SOL     OW14987   4.379   0.050   6.319  0.0497  0.7129  0.1977
 3477SOL    HW114988   4.285   0.036   6.329 -0.0539  1.0745 -0.2226
 3477SOL    HW214989   4.418  -0.035   6.340 -0.4465  0.2516 -0.6853
 3478SOL     OW14990   1.099   1.608   1.004  0.3519 -0.0732 -0.1595
 3478SOL    HW114991   1.161   1.598   1.076  0.3077 -0.4782 -0.1771
 3478SOL    HW214992   1.024   1.553   1.028 -0.5566  1.3621  0.4605
 3479SOL     OW14993   9.120   3.910  11.790  0.0358  0.0662  0.9817
 3479SOL    HW114994   9.083   3.822  11.798 -1.5892  0.6596  0.4351
 3479SOL    HW214995   9.096   3.938  11.701 -0.8967  1.6528  1.6940
 3480SOL     OW14996   9.070   5.679   9.158  0.4773 -0.6592  0.1997
 3480SOL    HW114997   8.981   5.713   9.151  0.5735 -0.6766 -1.7291
 3480SOL    HW214998   9.063   5.586   9.135  0.9911 -0.6341 -0.0980
 3481SOL     OW14999   5.623   9.751   5.458  0.0690 -0.0474  0.2863
 3481SOL    HW115000   5.712   9.778   5.437  0.5182 -1.3554  0.4354
 3481SOL    HW215001   5.603   9.797   5.540 -0.4993  2.5196 -1.1907
 3482SOL     OW15002   0.305   0.668   4.987 -0.1861 -0.0315 -0.0886
 3482SOL    HW115003   0.307   0.607   5.060 -0.3555  2.3150  2.0277
 3482SOL    HW215004   0.396   0.693   4.972 -0.0513 -1.1402 -1.3350
 3483SOL     OW15005  12.026   3.896   3.150 -0.2033  0.0923  0.1420
 3483SOL    HW115006  11.986   3.864   3.231  0.4035 -0.6635  0.1643
 3483SOL    HW215007  12.006   3.989   3.148 -0.6414  0.0242  0.9156
 3484SOL     OW15008  10.086   7.155   5.208  0.3007 -0.3235 -0.0353
 3484SOL    HW115009  10.181   7.153   5.199  0.2591 -2.3998 -0.3653
 3484SOL    HW215010  10.057   7.067   5.184 -1.5141 -0.4124  2.1113
 3485SOL     OW15011   7.747  10.148   3.634  0.1767  0.2915 -0.5599
 3485SOL    HW115012   7.832  10.113   3.661  0.4370  1.3699  0.0921
 3485SOL    HW215013   7.729  10.218   3.697  0.6964  2.8034 -2.9743
 3486SOL     OW15014   2.802   1.815   3.785 -0.0947 -0.3172 -0.2960
 3486SOL    HW115015   2.878   1.839   3.839  0.4273 -2.7176  0.1411
 3486SOL    HW215016   2.733   1.795   3.849 -0.5973  0.2831 -0.6454
 3487SOL     OW15017   8.540   6.956   8.842  0.1447  0.3269  0.4144
 3487SOL    HW115018   8.447   6.958   8.820 -0.0721  0.4789  1.3180
 3487SOL    HW215019   8.543   6.973   8.936  1.0079 -1.0535  0.6584
 3488SOL     OW15020  11.461   3.668   3.271 -0.6376 -0.2105 -0.0174
 3488SOL    HW115021  11.552   3.649   3.292 -0.4663 -0.1527 -0.6800
 3488SOL    HW215022  11.426   3.585   3.239 -1.1996 -0.5786  1.4893
 3489SOL     OW15023   7.795   7.998   9.974 -0.5582  0.2314  0.2883
 3489SOL    HW115024   7.758   7.936   9.910 -1.9181 -1.5379  2.6381
 3489SOL    HW215025   7.863   7.948  10.018  0.8784  1.6779 -0.1936
 3490SOL     OW15026   8.063   5.749   1.525 -0.0521  0.2988  0.4181
 3490SOL    HW115027   8.038   5.745   1.618  0.5121 -2.4346  0.5363
 3490SOL    HW215028   8.147   5.794   1.525 -0.9878  2.1803  0.9297
 3491SOL     OW15029   0.076   2.027   0.754  0.0420  0.4889  0.0387
 3491SOL    HW115030   0.026   1.991   0.680  0.8349 -0.2937 -0.1360
 3491SOL    HW215031   0.167   2.018   0.727  0.3285  0.4132  1.0198
 3492SOL     OW15032   4.758   1.384   1.144 -0.0976 -0.0564 -0.1962
 3492SOL    HW115033   4.817   1.351   1.077  0.6529  0.6511  0.1063
 3492SOL    HW215034   4.725   1.305   1.188  1.5024 -0.4318  0.3867
 3493SOL     OW15035  10.530   1.698   1.437  0.3197 -0.4025 -0.0128
 3493SOL    HW115036  10.484   1.625   1.394 -0.7575  0.4502 -0.3479
 3493SOL    HW215037  10.462   1.763   1.454  1.4377  1.0466 -0.8213
 3494SOL     OW15038   1.384   1.382   5.343 -0.6424  0.2639  0.4736
 3494SOL    HW115039   1.396   1.335   5.261 -0.9186  1.9695 -0.6006
 3494SOL    HW215040   1.293   1.365   5.368 -1.1062  1.1483 -0.5407
 3495SOL     OW15041   3.339   8.176   9.747 -0.1744  0.2102 -0.1404
 3495SOL    HW115042   3.402   8.223   9.692 -1.0009 -0.4851 -1.7501
 3495SOL    HW215043   3.254   8.194   9.707 -0.7603 -0.6739  0.6536
 3496SOL     OW15044   8.400   8.819   0.842  0.2746  0.0729  0.8288
 3496SOL    HW115045   8.364   8.746   0.791  0.5358  1.3095 -1.2515
 3496SOL    HW215046   8.330   8.845   0.901  0.2958 -2.0512  1.8808
 3497SOL     OW15047   7.545   8.180   8.822 -0.4035  0.5213  0.4212
 3497SOL    HW115048   7.524   8.273   8.819 -0.2057  0.5509 -0.0725
 3497SOL    HW215049   7.531   8.149   8.733  0.8340  0.3668  0.2539
 3498SOL     OW15050   9.070   6.443   1.486 -0.0255  0.4539 -0.3007
 3498SOL    HW115051   8.995   6.499   1.506 -0.2280 -0.0242  0.3302
 3498SOL    HW215052   9.145   6.502   1.485 -0.2662  0.7731  0.1127
 3499SOL     OW15053   5.322  10.758   8.339  0.1421 -0.1731 -0.2304
 3499SOL    HW115054   5.228  10.774   8.352  0.1483 -1.2751  1.4110
 3499SOL    HW215055   5.328  10.664   8.322  0.9725 -0.1587 -0.0337
 3500SOL     OW15056  10.984   8.042  11.770 -0.2145  0.1558  0.1986
 3500SOL    HW115057  11.074   8.041  11.738  0.4317 -1.2970  1.8910
 3500SOL    HW215058  10.934   7.995  11.704  0.2958  0.8083 -0.6663
 3501SOL     OW15059   3.435   4.212  11.287 -0.5654 -0.2696 -0.7120
 3501SOL    HW115060   3.510   4.267  11.309 -1.8762  0.9657  0.8697
 3501SOL    HW215061   3.439   4.202  11.192  1.4247  0.0019 -0.6883
 3502SOL     OW15062   4.981   3.562   5.839  0.2237  0.3459 -0.0652
 3502SOL    HW115063   4.895   3.568   5.882 -0.7091  1.3908 -1.9485
 3502SOL    HW215064   4.983   3.474   5.801  1.3889 -0.9029  2.5982
 3503SOL     OW15065   7.144   4.223  11.863 -0.2436 -0.2065  0.3022
 3503SOL    HW115066   7.069   4.280  11.880 -1.0766 -0.7563 -1.3229
 3503SOL    HW215067   7.175   4.197  11.949 -0.8097  1.4428  1.0434
 3504SOL     OW15068   8.025   1.330   9.634  0.2624  0.1511  0.5909
 3504SOL    HW115069   8.088   1.401   9.629  0.8173 -0.3579  0.2547
 3504SOL    HW215070   8.073   1.256   9.673  0.5796 -0.9457 -1.6942
 3505SOL     OW15071   0.939   8.363   5.632 -0.2619 -0.4139 -0.0514
 3505SOL    HW115072   1.009   8.300   5.616 -1.4818 -1.9936  0.5655
 3505SOL    HW215073   0.911   8.390   5.544  1.5572  0.8163 -0.3101
 3506SOL     OW15074   4.292   0.405   6.567  0.0582 -0.2895  0.3588
 3506SOL    HW115075   4.242   0.323   6.566 -0.4235 -0.0112  0.9468
 3506SOL    HW215076   4.228   0.472   6.591  0.5215  0.2122  0.2125
 3507SOL     OW15077  11.776   4.967   8.054  0.4311 -0.1416 -0.2946
 3507SOL    HW115078  11.796   4.874   8.064  2.3373  0.2548 -0.0406
 3507SOL    HW215079  11.856   5.012   8.079 -0.9863  1.6763  1.3823
 3508SOL     OW15080   6.459   8.503  11.105 -0.3849 -0.8426 -0.3369
 3508SOL    HW115081   6.438   8.587  11.146  0.2921 -0.7408 -0.1861
 3508SOL    HW215082   6.553   8.508  11.087 -0.3606 -1.5242 -0.4262
 3509SOL     OW15083  10.594  11.961   5.641 -0.2746  0.1624  0.3669
 3509SOL    HW115084  10.596  12.020   5.565  0.0999  1.8190  1.6152
 3509SOL    HW215085  10.590  12.019   5.717 -1.9459 -1.4463  1.6164
 3510SOL     OW15086   1.896   0.053  10.767  0.5450  0.2228 -0.7638
 3510SOL    HW115087   1.973   0.052  10.824  1.3941 -0.7121 -1.8463
 3510SOL    HW215088   1.883  -0.039  10.744 -1.0415  0.3488 -0.4431
 3511SOL     OW15089   5.871   8.753   8.871 -0.2317 -0.2377 -0.1077
 3511SOL    HW115090   5.962   8.729   8.891 -0.4392 -0.5719  0.4556
 3511SOL    HW215091   5.839   8.680   8.818 -0.6376 -0.8792  0.9891
 3512SOL     OW15092   5.488   2.852   1.213  0.4657  0.2423 -0.4864
 3512SOL    HW115093   5.468   2.759   1.210 -2.0917  0.7441 -2.0512
 3512SOL    HW215094   5.475   2.882   1.123  1.1920  2.1271 -0.0043
 3513SOL     OW15095  10.860   7.915   5.081 -0.6082  0.0092  0.7020
 3513SOL    HW115096  10.782   7.946   5.035 -1.6863 -1.6765  1.3260
 3513SOL    HW215097  10.842   7.931   5.173 -0.1145 -0.1692  0.8334
 3514SOL     OW15098   7.383   4.520   4.422  0.0052  0.2052 -0.5594
 3514SOL    HW115099   7.471   4.510   4.386 -0.4986  0.7165 -2.0063
 3514SOL    HW215100   7.388   4.482   4.510  1.2870 -1.1460 -1.1743
 3515SOL     OW15101   7.806   3.611   6.801  0.1976  0.3406 -0.2421
 3515SOL    HW115102   7.849   3.563   6.730 -1.2589 -3.3825  1.1550
 3515SOL    HW215103   7.720   3.633   6.766  0.3465  0.6546 -0.4128
 3516SOL     OW15104  10.296   5.748   8.520  0.3589 -0.0155  0.3722
 3516SOL    HW115105  10.245   5.764   8.599 -0.3724  1.5382 -0.3749
 3516SOL    HW215106  10.312   5.653   8.520 -2.2106 -0.5226  0.8509
 3517SOL     OW15107   3.678   7.553   7.712 -0.1526 -0.1100 -0.0820
 3517SOL    HW115108   3.743   7.487   7.690  2.0602  2.2234 -0.9857
 3517SOL    HW215109   3.716   7.601   7.786 -1.0918  0.9728 -0.2677
 3518SOL     OW15110   8.708   3.475   6.015 -0.2021 -0.0449  0.3469
 3518SOL    HW115111   8.685   3.461   5.923  0.0240 -0.3192  0.3285
 3518SOL    HW215112   8.756   3.396   6.039  1.4319  0.8316  0.1430
 3519SOL     OW15113   9.747   0.384   3.605  0.0302 -0.1204  0.4250
 3519SOL    HW115114   9.685   0.374   3.533  2.0390  1.4179 -1.6525
 3519SOL    HW215115   9.825   0.336   3.577 -0.1404 -2.1679  3.0408
 3520SOL     OW15116   6.634   7.126   9.926  0.7361  0.2658  0.0016
 3520SOL    HW115117   6.644   7.221   9.928  0.3583  0.2940  1.0781
 3520SOL    HW215118   6.603   7.107   9.837  0.0950  1.2266  0.0071
 3521SOL     OW15119   3.638  11.927   2.016  0.3173  0.9091  0.0984
 3521SOL    HW115120   3.632  11.956   2.107 -0.6926  1.5539 -0.1600
 3521SOL    HW215121   3.715  11.973   1.982  0.1787  1.3688  0.3863
 3522SOL     OW15122   5.174  11.092   6.531  0.2144 -0.4080 -0.3837
 3522SOL    HW115123   5.179  11.098   6.627 -1.2162  0.3389 -0.3213
 3522SOL    HW215124   5.172  11.183   6.502 -1.4897 -0.5919 -0.9530
 3523SOL     OW15125   0.100   9.771   6.587 -0.0677 -0.1449 -0.3231
 3523SOL    HW115126   0.117   9.679   6.565 -3.4792 -1.0654  0.3810
 3523SOL    HW215127   0.065   9.809   6.506 -0.8031 -0.1093  0.0049
 3524SOL     OW15128   3.627   3.682   4.358 -0.2518  0.0092  0.1481
 3524SOL    HW115129   3.544   3.690   4.311 -0.1409  0.5501  0.0436
 3524SOL    HW215130   3.624   3.750   4.425 -0.2966 -0.5906  0.7608
 3525SOL     OW15131   6.014   3.161   3.853 -0.4744  0.2867  0.1168
 3525SOL    HW115132   5.974   3.076   3.836 -1.1942  0.4885  0.7696
 3525SOL    HW215133   5.948   3.225   3.827  0.4100  0.6987 -1.2811
 3526SOL     OW15134   3.379   7.115   3.987 -0.2077 -0.7078 -0.1403
 3526SOL    HW115135   3.412   7.118   4.077 -2.9030  0.1602  0.9115
 3526SOL    HW215136   3.418   7.191   3.944 -0.1414 -0.2043  0.7859
 3527SOL     OW15137   2.599   1.336   1.835 -0.1099 -0.2955 -0.3379
 3527SOL    HW115138   2.619   1.269   1.900  2.2146  1.2985  0.7431
 3527SOL    HW215139   2.601   1.290   1.752 -1.5833 -2.1019  0.5577
 3528SOL     OW15140   2.247   1.635   9.637  0.3016  0.1818 -0.3156
 3528SOL    HW115141   2.301   1.704   9.597 -1.1339  0.5888 -1.6796
 3528SOL    HW215142   2.170   1.681   9.671  0.7093 -0.3982  1.4898
 3529SOL     OW15143   1.207   4.288  11.081  0.4140 -0.3266  0.0090
 3529SOL    HW115144   1.155   4.229  11.026  1.0089  0.2229 -1.1997
 3529SOL    HW215145   1.143   4.337  11.133 -0.2900  0.2092 -1.3137
 3530SOL     OW15146   3.880   4.509   8.061  0.1712  0.1537  0.1968
 3530SOL    HW115147   3.823   4.551   7.996  3.4864  0.7892 -2.5806
 3530SOL    HW215148   3.933   4.580   8.097 -0.2197 -0.5044  2.2040
 3531SOL     OW15149   4.019   4.854   3.633 -0.1920  0.0386  0.1414
 3531SOL    HW115150   4.069   4.790   3.582 -1.5704 -1.1756  0.2558
 3531SOL    HW215151   3.944   4.876   3.577 -0.3809  0.6235  0.6132
 3532SOL     OW15152   5.277   1.186  10.604  0.0209  0.2408 -0.4105
 3532SOL    HW115153   5.274   1.179  10.699  0.8046 -0.4700 -0.4300
 3532SOL    HW215154   5.351   1.132  10.578  0.0760  0.7614 -1.3959
 3533SOL     OW15155   1.842   2.768   6.341 -0.3384  0.1087 -0.1789
 3533SOL    HW115156   1.869   2.682   6.309 -2.2738 -0.5550 -0.1807
 3533SOL    HW215157   1.754   2.753   6.376 -0.4256  1.9547  0.4658
 3534SOL     OW15158  11.464   9.519   8.316  0.0179  0.2672 -0.3559
 3534SOL    HW115159  11.537   9.580   8.328  0.0910  0.1601 -0.2538
 3534SOL    HW215160  11.495   9.456   8.251 -0.0129  0.2684 -0.3728
 3535SOL     OW15161   2.145  10.853   7.279 -0.2819 -0.2345 -0.5806
 3535SOL    HW115162   2.090  10.909   7.226 -0.2198 -1.1025 -1.5946
 3535SOL    HW215163   2.203  10.913   7.326 -2.3483  0.7380  0.9035
 3536SOL     OW15164   3.724   9.261   4.292  0.1910  0.2201 -0.6320
 3536SOL    HW115165   3.669   9.312   4.352  0.9222 -0.5578  0.7470
 3536SOL    HW215166   3.746   9.182   4.341  0.9736 -0.3653 -1.8780
 3537SOL     OW15167   4.432   2.243   4.227 -0.0636  0.5168 -0.3138
 3537SOL    HW115168   4.361   2.279   4.280 -0.7931 -0.2148 -0.7579
 3537SOL    HW215169   4.423   2.148   4.238  1.0723  0.4271 -0.0974
 3538SOL     OW15170  11.075  10.343   6.214 -0.4546  0.1353  0.1672
 3538SOL    HW115171  11.077  10.278   6.284  0.0486 -0.2555 -0.2037
 3538SOL    HW215172  11.165  10.377   6.210 -0.3492 -0.2166 -0.6300
 3539SOL     OW15173   3.268   4.532   2.940 -0.0649  0.3432 -0.1092
 3539SOL    HW115174   3.236   4.516   2.851 -1.3989 -0.2210  0.4441
 3539SOL    HW215175   3.258   4.448   2.984 -0.2134  0.8316  0.8105
 3540SOL     OW15176  11.683   7.655   2.960  0.0295  0.5487 -0.2626
 3540SOL    HW115177  11.733   7.612   3.029  0.8081  0.1082 -1.0727
 3540SOL    HW215178  11.738   7.728   2.932  0.2692  0.0250 -1.2079
 3541SOL     OW15179   8.079   2.630   2.583  0.0867 -0.0636  0.3959
 3541SOL    HW115180   8.073   2.540   2.614  2.4214  0.3279  2.3197
 3541SOL    HW215181   8.097   2.622   2.489  0.9034 -1.6465  0.6500
 3542SOL     OW15182   4.062   0.483   3.763  0.2553 -0.2202  0.2579
 3542SOL    HW115183   3.977   0.526   3.751  0.7245  0.9691  1.0441
 3542SOL    HW215184   4.052   0.430   3.842 -0.4982 -2.0952 -1.0145
 3543SOL     OW15185   5.761   8.958   1.383  0.4417  0.5205  0.2196
 3543SOL    HW115186   5.684   8.923   1.338 -1.1542  2.6543  1.1208
 3543SOL    HW215187   5.822   8.980   1.313 -0.5773  0.6073 -0.6636
 3544SOL     OW15188   5.586  10.877   7.150 -0.1022 -0.3646 -0.0557
 3544SOL    HW115189   5.586  10.925   7.233 -0.6610  1.1249 -0.8806
 3544SOL    HW215190   5.594  10.945   7.083 -0.8328 -1.4390 -1.2717
 3545SOL     OW15191   0.711  10.195   0.419 -0.3374 -0.2697 -0.2367
 3545SOL    HW115192   0.777  10.257   0.388  0.0092 -0.7460 -0.4707
 3545SOL    HW215193   0.744  10.165   0.504 -1.1684  0.8564  0.5195
 3546SOL     OW15194   7.015   1.629   2.782 -0.3655  0.0924 -0.1033
 3546SOL    HW115195   6.960   1.707   2.793  0.5835  0.7115  0.3957
 3546SOL    HW215196   7.066   1.625   2.863  1.8537  0.7683 -1.3744
 3547SOL     OW15197  10.630   4.072   4.346  0.1501  0.1737  0.4757
 3547SOL    HW115198  10.593   4.149   4.302  0.3032  0.0327  0.0993
 3547SOL    HW215199  10.717   4.101   4.375  1.0327 -0.4487 -1.4178
 3548SOL     OW15200   6.977   4.821   1.455  0.0901 -0.0393  0.1655
 3548SOL    HW115201   7.050   4.873   1.422 -0.5712 -0.0853 -1.4341
 3548SOL    HW215202   6.946   4.771   1.380 -1.8015  0.2351  0.7035
 3549SOL     OW15203  11.863   7.769   9.588  0.7187 -0.3119  0.0675
 3549SOL    HW115204  11.941   7.766   9.532 -0.4953  0.4017 -1.7490
 3549SOL    HW215205  11.883   7.836   9.653  1.7812 -0.4434 -0.1032
 3550SOL     OW15206  10.969   6.714  11.836  0.0705  0.0028 -0.2479
 3550SOL    HW115207  11.043   6.695  11.893  0.3733  0.1346 -0.5880
 3550SOL    HW215208  10.922   6.631  11.828  0.3750 -0.1660 -0.3011
 3551SOL     OW15209   5.785   3.132   5.775  0.0160 -0.1288  0.2646
 3551SOL    HW115210   5.864   3.081   5.790  1.4061  1.6992 -0.3944
 3551SOL    HW215211   5.799   3.214   5.823 -1.9577 -0.1511  0.9825
 3552SOL     OW15212   7.266   6.729   1.251 -0.0095  0.0227  0.3892
 3552SOL    HW115213   7.314   6.679   1.186 -0.9330 -0.3130 -0.0452
 3552SOL    HW215214   7.227   6.802   1.202 -0.0139  0.2480  0.7213
 3553SOL     OW15215   6.920   9.964   3.972  0.4675 -0.0766  0.6096
 3553SOL    HW115216   6.841   9.910   3.970  0.1493  0.3887  0.2913
 3553SOL    HW215217   6.896  10.043   3.923  0.7792  0.5590  1.4506
 3554SOL     OW15218   8.868   3.327   8.690  0.0320 -0.0573 -0.7278
 3554SOL    HW115219   8.946   3.317   8.636 -0.0667 -1.4801 -0.6326
 3554SOL    HW215220   8.807   3.260   8.659 -0.1378 -0.7377  0.9285
 3555SOL     OW15221   6.507   7.576   5.148  0.0066  0.1608 -0.3136
 3555SOL    HW115222   6.598   7.596   5.130 -0.0846  0.0577 -0.9087
 3555SOL    HW215223   6.474   7.652   5.195 -0.1474  1.1120 -1.9075
 3556SOL     OW15224   2.489  11.650   2.755  0.1525 -0.2711  0.6084
 3556SOL    HW115225   2.525  11.736   2.732  0.9819 -0.5512  0.8012
 3556SOL    HW215226   2.458  11.661   2.845  0.0950 -0.1267  0.5719
 3557SOL     OW15227   7.226   3.008   1.379  0.0908 -0.6744  0.4780
 3557SOL    HW115228   7.199   3.063   1.305  0.7289 -0.3796  0.4526
 3557SOL    HW215229   7.252   2.925   1.339 -1.0741 -1.0862  0.5359
 3558SOL     OW15230   7.290   1.474   7.962  0.0345 -0.1481  0.6340
 3558SOL    HW115231   7.283   1.497   8.054  1.0890  0.1787  0.6482
 3558SOL    HW215232   7.333   1.388   7.961  1.9062  0.7316  0.4284
 3559SOL     OW15233   9.875   7.211  10.810  0.4062  0.4399 -0.2559
 3559SOL    HW115234   9.785   7.209  10.779  1.1759 -1.3001 -2.7036
 3559SOL    HW215235   9.877   7.149  10.883 -0.7694  2.1452  1.3076
 3560SOL     OW15236   3.580   1.426   7.411  0.4106  0.1353  0.3159
 3560SOL    HW115237   3.562   1.363   7.341 -1.0492  0.0596  0.7428
 3560SOL    HW215238   3.522   1.401   7.482  0.5196  1.3719  0.8632
 3561SOL     OW15239   8.814   4.570   9.536  0.0133  0.2070  0.3214
 3561SOL    HW115240   8.882   4.508   9.509 -1.4309 -1.7985  1.0551
 3561SOL    HW215241   8.820   4.571   9.632 -0.6704  0.3770  0.3666
 3562SOL     OW15242  10.681  10.807   8.598  0.1974  0.3339  0.0504
 3562SOL    HW115243  10.677  10.754   8.677 -0.6059  1.2191  0.6326
 3562SOL    HW215244  10.747  10.765   8.543  0.1623 -0.7711  0.8365
 3563SOL     OW15245   4.515   3.316   7.521  0.5993 -0.1016 -0.2204
 3563SOL    HW115246   4.552   3.403   7.532 -1.3325  0.5869  1.4032
 3563SOL    HW215247   4.564   3.261   7.581  1.2286  0.0622 -0.5813
 3564SOL     OW15248   1.481   3.332   5.372 -0.5334  0.0253 -0.0661
 3564SOL    HW115249   1.470   3.383   5.292 -0.2903 -1.6115 -1.1889
 3564SOL    HW215250   1.398   3.343   5.419 -0.4848  1.4283 -0.2465
 3565SOL     OW15251  11.034   4.090   4.943 -0.3382  0.3858 -0.1251
 3565SOL    HW115252  11.035   4.001   4.979  1.2097 -0.0361 -1.1410
 3565SOL    HW215253  11.054   4.146   5.019 -1.5704 -0.0724  0.5745
 3566SOL     OW15254   6.070   3.120   7.239  0.1778  0.5290 -0.1889
 3566SOL    HW115255   6.120   3.201   7.239  0.1313  0.5578  0.2318
 3566SOL    HW215256   6.121   3.061   7.183  2.3385 -0.4246  2.5006
 3567SOL     OW15257   4.989  11.389   2.394  0.4600  0.0584 -0.8308
 3567SOL    HW115258   4.964  11.455   2.458  1.2116 -0.2529 -0.2027
 3567SOL    HW215259   5.076  11.416   2.364  0.8557 -0.7271 -0.4312
 3568SOL     OW15260   1.957   1.205   4.014  0.0896 -0.0616 -0.0202
 3568SOL    HW115261   1.931   1.207   3.922 -1.2851  0.1940  0.3480
 3568SOL    HW215262   2.027   1.140   4.018  0.5855  0.3535 -1.3331
 3569SOL     OW15263   3.714   7.151   4.474  0.2047  0.3428 -0.4398
 3569SOL    HW115264   3.661   7.221   4.435  1.1677  0.7424 -1.0694
 3569SOL    HW215265   3.664   7.071   4.458  0.7988  0.4190 -2.9995
 3570SOL     OW15266   8.766   2.301   4.383  0.8237  0.2927 -0.1812
 3570SOL    HW115267   8.725   2.221   4.418  0.7867  0.4540  0.1540
 3570SOL    HW215268   8.693   2.361   4.371  0.8767  0.3433 -0.2453
 3571SOL     OW15269   1.255   0.226   1.179  0.0568  0.3100  0.4688
 3571SOL    HW115270   1.224   0.207   1.267 -0.8948  0.4218  0.1657
 3571SOL    HW215271   1.290   0.143   1.147 -1.0138 -0.1233  0.3877
 3572SOL     OW15272   0.461   9.587  11.748  0.2027 -0.0346  0.3899
 3572SOL    HW115273   0.553   9.563  11.761  0.4007 -0.1973 -1.1855
 3572SOL    HW215274   0.430   9.608  11.836  1.7332 -0.0115  0.9606
 3573SOL     OW15275   0.540   4.093   8.616 -0.4279  0.1433  0.0576
 3573SOL    HW115276   0.472   4.160   8.622  0.2226  0.8061  0.1681
 3573SOL    HW215277   0.521   4.033   8.688 -0.0799  1.1030  0.9735
 3574SOL     OW15278   6.169   8.148   0.310  0.3255  0.0468  0.0842
 3574SOL    HW115279   6.264   8.155   0.320  0.1048  0.3686  2.5030
 3574SOL    HW215280   6.142   8.087   0.378 -1.3021  0.7529  0.1045
 3575SOL     OW15281   7.657  10.241   9.538  0.0949 -0.2624  0.0492
 3575SOL    HW115282   7.682  10.151   9.561  0.3320 -1.4155 -3.9230
 3575SOL    HW215283   7.736  10.277   9.497 -0.8037  0.7448 -0.8424
 3576SOL     OW15284   4.592  12.089   2.796  0.3757 -0.3006 -0.2068
 3576SOL    HW115285   4.605  12.184   2.800  1.3495 -0.4671  1.6044
 3576SOL    HW215286   4.499  12.078   2.778  0.1686  0.9971 -0.0097
 3577SOL     OW15287   1.247   8.862   4.607 -0.1118  0.1751 -0.2011
 3577SOL    HW115288   1.206   8.778   4.586  2.1111 -1.2045  0.5677
 3577SOL    HW215289   1.175   8.918   4.633 -1.7307 -1.3642 -1.1497
 3578SOL     OW15290   1.219   3.883   4.299  0.2281  0.1763 -0.3965
 3578SOL    HW115291   1.229   3.898   4.392  0.1640 -1.9126  0.0023
 3578SOL    HW215292   1.135   3.923   4.277  0.6919  1.5351  0.1933
 3579SOL     OW15293  10.697   1.026   9.861  0.5649  0.4802  0.2826
 3579SOL    HW115294  10.647   0.990   9.788 -0.7001  1.5652  0.5606
 3579SOL    HW215295  10.776   1.062   9.822  0.1835  0.5142 -0.4733
 3580SOL     OW15296   7.190   5.194   1.020 -0.3093 -0.1138  0.7726
 3580SOL    HW115297   7.115   5.244   1.052 -0.9633 -0.0749 -0.7334
 3580SOL    HW215298   7.151   5.117   0.979  0.4257  0.2268 -0.6135
 3581SOL     OW15299   3.077   1.491  11.811  0.1487  0.1987  0.2434
 3581SOL    HW115300   3.026   1.418  11.846 -1.2773  2.1271  2.5194
 3581SOL    HW215301   3.060   1.489  11.717 -0.9885 -1.5365  0.4258
 3582SOL     OW15302   8.284  11.673   0.967 -0.5315  0.5687  0.4270
 3582SOL    HW115303   8.358  11.692   0.908 -1.7996  1.2654 -1.0077
 3582SOL    HW215304   8.311  11.709   1.051  1.5707 -0.9421  0.4856
 3583SOL     OW15305  11.445   2.622  10.562 -0.3460  0.1240  0.2378
 3583SOL    HW115306  11.403   2.589  10.483 -0.4217  1.8184 -0.4695
 3583SOL    HW215307  11.538   2.626  10.541 -0.4319  1.1281  0.0083
 3584SOL     OW15308   1.032   7.795   9.038  0.3771  0.3078  0.0840
 3584SOL    HW115309   1.001   7.885   9.024  0.5414  0.7543  2.3117
 3584SOL    HW215310   1.128   7.802   9.034  0.4711 -0.6380 -4.2337
 3585SOL     OW15311   9.575   5.164  11.160 -0.2854 -0.2811 -0.4888
 3585SOL    HW115312   9.502   5.225  11.146  0.3640  0.7832  0.5939
 3585SOL    HW215313   9.578   5.151  11.255 -0.2044 -1.7800 -0.6732
 3586SOL     OW15314   2.788   8.941   7.467  0.3465  0.3897  0.0252
 3586SOL    HW115315   2.754   9.027   7.490  0.8392  0.9949 -1.3854
 3586SOL    HW215316   2.883   8.948   7.479  0.2503 -0.5328  1.6094
 3587SOL     OW15317   2.828   4.800  10.956 -0.5710 -0.2429 -0.0847
 3587SOL    HW115318   2.744   4.760  10.936 -0.6092 -0.1378 -0.1363
 3587SOL    HW215319   2.849   4.772  11.045 -0.3458 -0.8093 -0.3123
 3588SOL     OW15320   6.601   9.163   0.165 -0.0149 -0.2345 -0.6168
 3588SOL    HW115321   6.519   9.187   0.121 -0.8341 -1.2050  0.3506
 3588SOL    HW215322   6.666   9.165   0.095 -1.1502 -0.9726 -1.7392
 3589SOL     OW15323  10.818   2.359   3.619  0.1338 -0.0254  0.6904
 3589SOL    HW115324  10.810   2.324   3.708 -0.9803 -0.8426  0.2907
 3589SOL    HW215325  10.786   2.449   3.626  0.4380  0.0494  1.1936
 3590SOL     OW15326   8.880  11.551   9.840 -0.0220 -0.4511  0.4906
 3590SOL    HW115327   8.813  11.578   9.902  0.0601  1.1005 -0.0384
 3590SOL    HW215328   8.923  11.633   9.815 -1.3573 -0.6783 -3.1241
 3591SOL     OW15329   2.240   7.701   1.269  0.2234 -0.1967 -1.2494
 3591SOL    HW115330   2.204   7.633   1.212 -0.9612  0.6959 -1.6111
 3591SOL    HW215331   2.291   7.758   1.211  0.4264 -0.2385 -1.1154
 3592SOL     OW15332   2.310   8.030   8.965 -0.1263 -0.2409 -0.1959
 3592SOL    HW115333   2.338   8.065   9.049 -0.3280  0.9454 -0.5968
 3592SOL    HW215334   2.286   7.940   8.983 -0.5042  0.0965  1.0934
 3593SOL     OW15335   8.057   1.661   3.863 -0.1675 -0.3431  0.1348
 3593SOL    HW115336   8.138   1.640   3.910  0.5500 -2.1470 -1.7772
 3593SOL    HW215337   8.076   1.643   3.771 -2.3942  0.3124 -0.5309
 3594SOL     OW15338   4.947   3.718   8.353  0.6529  0.5467 -0.3161
 3594SOL    HW115339   5.026   3.729   8.405  0.7765 -0.5858 -0.2431
 3594SOL    HW215340   4.877   3.755   8.408  0.8973  0.0604  0.3355
 3595SOL     OW15341   9.509  11.629   0.653  0.1223 -0.5036  0.2299
 3595SOL    HW115342   9.539  11.570   0.723  2.7273  0.4029 -0.0136
 3595SOL    HW215343   9.555  11.598   0.575 -0.5353  0.2624 -0.4796
 3596SOL     OW15344   8.568   1.011   7.191 -0.3808 -0.4622 -0.1509
 3596SOL    HW115345   8.603   0.937   7.142 -1.4695 -0.6212 -0.7150
 3596SOL    HW215346   8.542   1.075   7.125 -0.2305  0.0706  0.2951
 3597SOL     OW15347   5.855  10.031   0.098  0.2675 -0.0342 -0.1401
 3597SOL    HW115348   5.923   9.965   0.081  0.3836  0.3948 -1.4920
 3597SOL    HW215349   5.806  10.036   0.016  0.0518  1.3176  0.0518
 3598SOL     OW15350   2.082   4.760   9.422  0.0347  0.4720 -0.3412
 3598SOL    HW115351   2.122   4.746   9.508 -0.2737  2.9586  0.2695
 3598SOL    HW215352   2.131   4.702   9.364  0.7994 -0.6714  1.3385
 3599SOL     OW15353   4.478   0.553  10.128  0.3083  0.0943 -0.5540
 3599SOL    HW115354   4.455   0.561  10.221  2.2528 -0.3282  0.0276
 3599SOL    HW215355   4.443   0.468  10.102  0.8667 -0.3789  0.1840
 3600SOL     OW15356   8.522  11.288  11.772  0.5166  0.4626  0.2533
 3600SOL    HW115357   8.449  11.253  11.823 -1.3261  0.2763 -2.3313
 3600SOL    HW215358   8.493  11.375  11.744  1.6712  0.7618 -0.0941
 3601SOL     OW15359   4.389   4.369   8.589 -0.1208 -0.2045  0.0049
 3601SOL    HW115360   4.422   4.307   8.524 -0.2636 -0.3315  0.0528
 3601SOL    HW215361   4.342   4.315   8.653  1.6637 -0.3127  1.2998
 3602SOL     OW15362   8.665  12.081   9.937  0.1236 -0.1587  0.0302
 3602SOL    HW115363   8.602  12.018   9.973 -0.3453  0.1258 -0.2759
 3602SOL    HW215364   8.626  12.109   9.855 -0.0705  1.1370  0.5406
 3603SOL     OW15365   5.756   1.734   3.605 -0.7885 -0.3019  0.8226
 3603SOL    HW115366   5.723   1.807   3.555 -1.3500 -0.9606  0.2195
 3603SOL    HW215367   5.836   1.767   3.647  1.2088 -0.4238 -2.5276
 3604SOL     OW15368   8.003  10.892   0.699  0.2136  0.1538 -0.0927
 3604SOL    HW115369   7.947  10.816   0.693  1.0295 -0.4375 -0.4579
 3604SOL    HW215370   8.026  10.898   0.792  0.2348 -0.1188 -0.0797
 3605SOL     OW15371   3.041  10.140   6.328 -0.1407  0.6617  0.0713
 3605SOL    HW115372   2.988  10.212   6.364 -1.3703  0.3555 -1.0627
 3605SOL    HW215373   3.072  10.173   6.243 -0.6768 -0.1153 -0.4369
 3606SOL     OW15374   6.210   6.652   3.583 -0.5409  0.1142  0.2075
 3606SOL    HW115375   6.129   6.703   3.579 -0.6254  0.0427  0.9686
 3606SOL    HW215376   6.186   6.566   3.549 -0.6420  0.2605 -0.1007
 3607SOL     OW15377   6.938  11.452   6.993  0.6317 -0.6858  0.2040
 3607SOL    HW115378   6.876  11.515   6.955  0.7562 -1.5107 -1.4719
 3607SOL    HW215379   7.002  11.506   7.039  0.6612  0.4318 -1.0681
 3608SOL     OW15380   0.788   7.502   8.673  0.1194  0.6129 -0.1981
 3608SOL    HW115381   0.820   7.551   8.597  0.8648  1.6963  0.7836
 3608SOL    HW215382   0.858   7.507   8.737 -0.9038  0.6231  0.9720
 3609SOL     OW15383   1.292   0.779   9.335 -0.6935  0.1273  0.3325
 3609SOL    HW115384   1.290   0.862   9.288 -2.5899  0.5030  1.0078
 3609SOL    HW215385   1.294   0.712   9.266  2.3905  0.6646 -0.2292
 3610SOL     OW15386  10.104   2.440   7.743  0.8571 -0.2310 -0.0829
 3610SOL    HW115387  10.132   2.458   7.653  1.9861 -0.5498  0.1882
 3610SOL    HW215388  10.009   2.456   7.743  1.0267  0.8702 -1.0476
 3611SOL     OW15389   0.206   1.117  10.184  0.0619 -0.1035  0.3640
 3611SOL    HW115390   0.300   1.117  10.199  0.2168 -0.2208 -0.5412
 3611SOL    HW215391   0.186   1.207  10.156 -0.0450 -0.1548  0.2747
 3612SOL     OW15392   9.341  11.790   5.618  0.3314  0.1930  0.2164
 3612SOL    HW115393   9.415  11.838   5.581  0.5467 -1.1062 -1.1271
 3612SOL    HW215394   9.307  11.738   5.545 -1.6012  0.3758  0.9293
 3613SOL     OW15395   8.484   9.792  11.627  0.0126  0.3337  0.4564
 3613SOL    HW115396   8.578   9.799  11.642  0.0716  1.1975 -0.2171
 3613SOL    HW215397   8.444   9.809  11.712  0.4280  1.9339  0.3746
 3614SOL     OW15398   2.788   5.720   3.945  0.0675  0.0952 -0.2591
 3614SOL    HW115399   2.773   5.801   3.994 -0.8762  0.6339 -1.4017
 3614SOL    HW215400   2.819   5.750   3.860  0.1155 -0.7720 -0.5499
 3615SOL     OW15401   8.008   0.943  10.710 -0.0570 -0.1222 -0.2969
 3615SOL    HW115402   7.989   0.850  10.703  0.1059 -0.0806 -1.4665
 3615SOL    HW215403   7.965   0.971  10.791 -2.6621 -0.6048 -1.4170
 3616SOL     OW15404   6.231  10.453   8.080 -0.6508  0.6717 -0.7853
 3616SOL    HW115405   6.145  10.480   8.047 -0.7418 -2.3297 -3.5269
 3616SOL    HW215406   6.288  10.527   8.061 -1.9524  1.3648 -2.2205
 3617SOL     OW15407   3.022   4.899   4.941 -0.1396 -0.4494  0.0218
 3617SOL    HW115408   3.075   4.974   4.913  0.1715 -0.7284 -0.1474
 3617SOL    HW215409   3.072   4.822   4.911  0.3272 -0.7738  1.5441
 3618SOL     OW15410  10.073   5.826   1.002  0.0869  0.5797  0.3361
 3618SOL    HW115411  10.100   5.817   1.093  1.2783  0.0015 -0.0578
 3618SOL    HW215412  10.152   5.807   0.951  0.0723  3.1331 -0.7917
 3619SOL     OW15413   6.423   7.973   6.347 -0.1591 -0.3978  0.0450
 3619SOL    HW115414   6.364   7.941   6.279  0.5773 -0.9852 -0.3261
 3619SOL    HW215415   6.455   7.895   6.391  1.8548 -0.2456 -1.0351
 3620SOL     OW15416   0.498   6.809   3.671 -0.4140 -0.6621 -0.0638
 3620SOL    HW115417   0.506   6.901   3.697 -0.0119 -1.0289  1.1580
 3620SOL    HW215418   0.419   6.778   3.716 -1.8918 -0.3433 -2.2820
 3621SOL     OW15419  12.010  11.957   4.625  0.2722  0.0915 -0.1434
 3621SOL    HW115420  11.987  12.010   4.701 -0.0132  0.5439 -0.5388
 3621SOL    HW215421  11.932  11.905   4.606  0.2706  0.1342 -0.2543
 3622SOL     OW15422   3.465  10.265   4.115  0.3618  0.2993 -0.1920
 3622SOL    HW115423   3.452  10.357   4.139 -0.0465 -0.5152  3.2775
 3622SOL    HW215424   3.543  10.238   4.163  0.1763 -1.3144 -0.7259
 3623SOL     OW15425   4.819   9.914   4.308  0.1760 -0.2735 -0.3089
 3623SOL    HW115426   4.871   9.873   4.376  0.7427  0.8967 -0.0133
 3623SOL    HW215427   4.742   9.857   4.299  2.0682 -2.7989 -1.6952
 3624SOL     OW15428   0.808   0.312   2.567 -0.1577 -0.0828 -0.3754
 3624SOL    HW115429   0.724   0.305   2.522  0.0359 -1.2042 -0.6137
 3624SOL    HW215430   0.870   0.337   2.498 -0.0695 -0.6261 -0.5032
 3625SOL     OW15431   3.511   2.561   9.777  0.4106  0.1113 -0.0755
 3625SOL    HW115432   3.504   2.521   9.690  0.3792 -1.3004  0.5424
 3625SOL    HW215433   3.436   2.619   9.782  0.4466  0.2655 -1.0116
 3626SOL     OW15434   1.456   5.634   8.718  0.1717 -0.1134 -0.1232
 3626SOL    HW115435   1.363   5.623   8.699  0.1474  0.6292 -0.4639
 3626SOL    HW215436   1.464   5.611   8.811 -0.3035 -0.4337 -0.1558
 3627SOL     OW15437   9.901   8.384   0.920  0.0965  0.3243 -0.2039
 3627SOL    HW115438   9.888   8.424   1.005  0.3976 -0.0569  0.0268
 3627SOL    HW215439   9.814   8.380   0.881 -0.1188  0.0291  0.2991
 3628SOL     OW15440   6.432   5.540   2.482 -0.6583  0.0529 -1.1495
 3628SOL    HW115441   6.513   5.536   2.431  0.7436  0.8236  0.8737
 3628SOL    HW215442   6.442   5.470   2.548 -0.6822  1.3899  0.3384
 3629SOL     OW15443   5.345   0.293   7.694  0.1013 -0.0263  0.1452
 3629SOL    HW115444   5.398   0.284   7.774  0.8631 -0.4885 -0.3946
 3629SOL    HW215445   5.403   0.337   7.632 -0.3346 -0.0508 -0.2803
 3630SOL     OW15446   9.028   1.869   6.110  0.1644 -0.6617  0.2514
 3630SOL    HW115447   8.991   1.925   6.042 -1.3564 -0.6730  1.0275
 3630SOL    HW215448   9.037   1.783   6.069 -1.7455 -0.9368  0.3332
 3631SOL     OW15449   5.715  10.082   6.765 -0.0012 -0.4767  0.1478
 3631SOL    HW115450   5.664  10.079   6.846 -0.0939  0.3405  0.1209
 3631SOL    HW215451   5.707   9.993   6.729 -2.6910  0.0139 -0.6379
 3632SOL     OW15452   7.558   6.400   0.557 -0.3933  0.1377  0.2902
 3632SOL    HW115453   7.642   6.355   0.559 -0.4924 -0.0322  1.0840
 3632SOL    HW215454   7.530   6.396   0.466 -0.1324 -0.9116  0.2492
 3633SOL     OW15455   5.148  10.120   7.982 -0.4186  0.6371  0.5411
 3633SOL    HW115456   5.103  10.037   7.968 -0.7583  0.7789  0.7843
 3633SOL    HW215457   5.238  10.095   8.005  0.4372  0.3851 -2.5742
 3634SOL     OW15458  11.714   5.188   5.829  0.1311  0.5900 -0.1527
 3634SOL    HW115459  11.681   5.186   5.740  1.1443 -0.9306 -0.5231
 3634SOL    HW215460  11.694   5.277   5.860 -2.4477  0.3764 -1.0016
 3635SOL     OW15461   4.643  10.499   4.971  0.4187 -0.2099  0.1952
 3635SOL    HW115462   4.676  10.557   4.902  0.6143 -0.2012  0.2974
 3635SOL    HW215463   4.629  10.415   4.927  1.3587 -0.4481  0.3310
 3636SOL     OW15464   2.010   0.764   8.885 -0.2042 -0.1569 -0.0774
 3636SOL    HW115465   1.917   0.777   8.869 -0.5563 -0.8272  1.3128
 3636SOL    HW215466   2.031   0.682   8.840  0.0396  0.6186 -1.4581
 3637SOL     OW15467   0.872  10.402   4.928  0.1292  0.3968  0.4899
 3637SOL    HW115468   0.947  10.388   4.986 -0.4918 -1.3844  0.9256
 3637SOL    HW215469   0.818  10.467   4.974  0.4601  0.2444  1.0957
 3638SOL     OW15470   9.499  10.214   1.740 -0.0900  0.3562  0.3011
 3638SOL    HW115471   9.454  10.276   1.797 -0.3393 -0.6947  1.2821
 3638SOL    HW215472   9.568  10.266   1.698  0.3237  1.0953  1.8080
 3639SOL     OW15473  11.602   9.085  10.471  0.2204 -0.0588  0.3979
 3639SOL    HW115474  11.662   9.053  10.403 -0.2872  0.8406 -0.5046
 3639SOL    HW215475  11.593   9.178  10.452 -0.8319 -0.0262  1.0169
 3640SOL     OW15476   1.292   3.937   2.698  0.3297  0.1030 -0.4459
 3640SOL    HW115477   1.240   3.858   2.689  1.6058 -0.5785 -2.7050
 3640SOL    HW215478   1.382   3.908   2.692  0.9135  1.5183  0.8590
 3641SOL     OW15479   3.858   8.297   3.624  0.1622 -0.3548  0.3838
 3641SOL    HW115480   3.939   8.284   3.574 -0.6331 -1.6589 -0.6503
 3641SOL    HW215481   3.886   8.300   3.716  1.3301 -1.5082  0.0879
 3642SOL     OW15482   6.936   9.028   4.157 -0.2359 -0.3328  0.1216
 3642SOL    HW115483   6.899   9.020   4.069 -2.5000  1.7737  0.7700
 3642SOL    HW215484   6.940   9.123   4.172  1.0156 -0.6393  1.9462
 3643SOL     OW15485   6.740   5.565   9.662  0.2193 -0.2749  0.3138
 3643SOL    HW115486   6.682   5.569   9.739  0.9799 -0.2642  0.8971
 3643SOL    HW215487   6.752   5.656   9.636  0.2386 -0.2527  0.3990
 3644SOL     OW15488   7.614   1.711   8.716  0.1432  0.0630 -0.1310
 3644SOL    HW115489   7.696   1.710   8.766  1.5629  0.3458 -2.2899
 3644SOL    HW215490   7.580   1.799   8.727 -0.2552 -0.2522  1.3179
 3645SOL     OW15491  10.978   2.280   6.197 -0.0056 -0.2483  0.0689
 3645SOL    HW115492  11.036   2.339   6.244  1.2844 -1.1651 -0.2985
 3645SOL    HW215493  10.927   2.336   6.139 -0.4587  0.7177  1.3695
 3646SOL     OW15494   0.798   4.602   3.960 -0.2326  0.8013  0.1912
 3646SOL    HW115495   0.793   4.698   3.953  0.4561  0.8302  0.0148
 3646SOL    HW215496   0.722   4.571   3.910  0.5127  1.2194 -1.2611
 3647SOL     OW15497  10.912   2.068  10.271 -0.0623 -0.4465  0.0992
 3647SOL    HW115498  10.830   2.048  10.226  0.0259 -1.3459  0.3315
 3647SOL    HW215499  10.892   2.056  10.364  0.0258  0.4597  0.2488
 3648SOL     OW15500   7.822   5.213   6.820  0.2455 -0.5734 -0.0360
 3648SOL    HW115501   7.745   5.242   6.869 -0.1615 -1.4889 -0.1141
 3648SOL    HW215502   7.887   5.282   6.835 -0.6849  0.3721 -0.2332
 3649SOL     OW15503   2.314  10.478   1.620 -0.6496 -0.7422 -0.4416
 3649SOL    HW115504   2.345  10.432   1.698  0.4666 -1.3071 -1.1824
 3649SOL    HW215505   2.393  10.490   1.567 -1.0017  1.5281 -0.5470
 3650SOL     OW15506  11.829   6.179   3.553 -0.1103  0.4822 -0.3383
 3650SOL    HW115507  11.911   6.158   3.596 -0.0854  0.7761 -0.2351
 3650SOL    HW215508  11.836   6.140   3.466  0.1180  0.4678 -0.3121
 3651SOL     OW15509   3.073   0.302   2.562 -0.5074  0.6662 -0.0014
 3651SOL    HW115510   3.129   0.262   2.628 -0.1747  1.2600  0.0835
 3651SOL    HW215511   3.052   0.388   2.597  0.5362  1.4189 -1.1163
 3652SOL     OW15512  10.480   2.852   3.073 -0.0356  0.6820 -0.0059
 3652SOL    HW115513  10.559   2.802   3.095  0.7888  1.2099 -1.5913
 3652SOL    HW215514  10.459   2.901   3.152  2.0340  1.5436  0.0582
 3653SOL     OW15515  11.536  11.268   7.067  0.4302  0.3800 -0.3739
 3653SOL    HW115516  11.570  11.338   7.011  1.4905 -1.5961 -2.3624
 3653SOL    HW215517  11.524  11.194   7.007 -1.2648 -0.9534  1.5174
 3654SOL     OW15518  11.361   2.641   9.553  0.0822  0.2746 -0.5605
 3654SOL    HW115519  11.375   2.548   9.573 -1.0437  0.1314 -0.3816
 3654SOL    HW215520  11.343   2.682   9.637  1.6116  0.8678 -0.4988
 3655SOL     OW15521   4.712   4.083  10.413  0.3919 -0.2140 -0.4136
 3655SOL    HW115522   4.704   4.078  10.318 -2.7711 -0.6100 -0.2200
 3655SOL    HW215523   4.643   4.143  10.441  1.5451  0.2881  1.6553
 3656SOL     OW15524   2.423   5.965   4.346  0.0071 -0.3792 -0.0896
 3656SOL    HW115525   2.424   6.031   4.416  1.1735  0.1062 -0.5442
 3656SOL    HW215526   2.514   5.938   4.338  0.0266  0.1299 -1.9324
 3657SOL     OW15527   0.308   4.202   5.139  0.2096 -0.2771  0.9467
 3657SOL    HW115528   0.258   4.123   5.158  1.6876 -1.2326  1.0324
 3657SOL    HW215529   0.262   4.272   5.185 -2.0390 -0.7713 -0.4320
 3658SOL     OW15530  10.223   2.453   0.080 -0.0148  0.0451  0.3050
 3658SOL    HW115531  10.249   2.363   0.062  0.8483  0.0240  1.5272
 3658SOL    HW215532  10.167   2.477   0.006 -1.6177 -2.0189  0.7273
 3659SOL     OW15533   9.262   3.944   8.370 -0.7490 -0.1045 -0.3206
 3659SOL    HW115534   9.336   3.891   8.398 -0.6388  0.4972  0.5933
 3659SOL    HW215535   9.196   3.931   8.439 -0.3312  1.7230  0.4841
 3660SOL     OW15536   1.160   9.182  10.664 -1.3383  0.6728 -0.2632
 3660SOL    HW115537   1.238   9.137  10.630 -1.2732  0.4743  0.1435
 3660SOL    HW215538   1.190   9.271  10.682 -1.9002  1.4779 -2.7967
 3661SOL     OW15539   2.303   1.836  10.014 -0.1682 -0.9902 -0.0346
 3661SOL    HW115540   2.249   1.863   9.940 -0.8947  0.1531  0.8822
 3661SOL    HW215541   2.298   1.909  10.076  2.2079 -0.9565  0.2185
 3662SOL     OW15542   3.429   9.323   6.889 -0.1075  0.0843 -0.5493
 3662SOL    HW115543   3.435   9.228   6.878  0.8905  0.1801 -0.9324
 3662SOL    HW215544   3.508   9.346   6.937 -1.0778  0.5502  0.8772
 3663SOL     OW15545   0.329   6.350   1.819  0.1689 -0.0042  0.2419
 3663SOL    HW115546   0.292   6.270   1.856  1.9200 -0.5024  1.0399
 3663SOL    HW215547   0.259   6.415   1.828  0.0023 -0.4362  3.3374
 3664SOL     OW15548   1.451   8.309   5.302 -0.2491  0.2904  0.2534
 3664SOL    HW115549   1.360   8.341   5.301 -0.4365 -0.1688 -1.9060
 3664SOL    HW215550   1.475   8.311   5.395 -2.2571  0.9843  0.8314
 3665SOL     OW15551   6.205  10.053   9.301 -0.1735 -0.1730 -0.4469
 3665SOL    HW115552   6.243   9.992   9.364 -4.8916  1.4312  4.8807
 3665SOL    HW215553   6.141  10.001   9.252  1.6300 -0.9084 -2.1242
 3666SOL     OW15554  12.059   3.558   7.737 -0.1298 -0.0051 -0.0859
 3666SOL    HW115555  11.988   3.523   7.792  1.9138 -2.9669  0.9162
 3666SOL    HW215556  12.128   3.581   7.799  0.2848  1.6630 -1.1242
 3667SOL     OW15557   1.956  11.435   0.771  0.3672  0.0826 -0.0312
 3667SOL    HW115558   1.873  11.413   0.814 -0.1899  0.8891 -0.6504
 3667SOL    HW215559   1.985  11.515   0.815  0.6878 -0.0644  0.0216
 3668SOL     OW15560  11.861   5.336   5.554 -0.4280 -0.3424  0.3333
 3668SOL    HW115561  11.864   5.388   5.634 -0.3973 -0.5288  0.4532
 3668SOL    HW215562  11.782   5.283   5.563  0.7011 -1.9517  1.2359
 3669SOL     OW15563   7.018   1.925   3.444 -0.3553  0.0568 -0.7320
 3669SOL    HW115564   7.085   1.857   3.450 -1.8138 -2.0062 -4.5038
 3669SOL    HW215565   7.029   1.962   3.356 -2.6188  1.3423 -0.5502
 3670SOL     OW15566   1.564   5.809   9.205  0.0491  0.4364  0.2180
 3670SOL    HW115567   1.538   5.861   9.129  0.0398 -0.5597 -0.4806
 3670SOL    HW215568   1.539   5.862   9.280  0.1562  1.4941 -0.4683
 3671SOL     OW15569   3.328   7.864   2.124  0.0725 -0.0898  0.2846
 3671SOL    HW115570   3.289   7.791   2.075 -0.3799  0.5609 -0.3350
 3671SOL    HW215571   3.419   7.866   2.096 -0.0415 -0.0951 -0.0834
 3672SOL     OW15572  10.802  11.197  11.505 -0.1513  0.1714  0.1303
 3672SOL    HW115573  10.804  11.114  11.552 -1.8307 -0.8618 -1.4974
 3672SOL    HW215574  10.829  11.175  11.416 -0.6547  1.3475 -0.3392
 3673SOL     OW15575   7.946   2.686   1.905 -0.5443  0.2996 -0.1095
 3673SOL    HW115576   8.010   2.690   1.976  1.0633 -1.3042 -1.3750
 3673SOL    HW215577   7.982   2.742   1.836  0.4060 -1.8020 -1.4365
 3674SOL     OW15578   4.406  11.933  10.623 -0.4506 -0.0215 -0.2003
 3674SOL    HW115579   4.403  11.922  10.718  1.1479  2.4720  0.2468
 3674SOL    HW215580   4.446  11.852  10.590 -1.0723 -0.9422  1.2284
 3675SOL     OW15581  11.163   0.004   6.211 -0.0583  0.1282 -0.0301
 3675SOL    HW115582  11.110   0.029   6.135 -1.1896  0.1585  0.7465
 3675SOL    HW215583  11.181   0.087   6.255 -2.0201 -0.1307  1.3865
 3676SOL     OW15584   0.820   3.470  11.159  0.4503 -0.5037 -0.1357
 3676SOL    HW115585   0.739   3.519  11.150  0.9660  0.3937  0.0438
 3676SOL    HW215586   0.860   3.474  11.072  0.1991 -1.1555 -0.2914
 3677SOL     OW15587   4.873   0.100   6.935  0.2146 -0.2263  0.4114
 3677SOL    HW115588   4.965   0.105   6.961  0.0173 -0.1936  1.1022
 3677SOL    HW215589   4.844   0.191   6.932 -0.0116 -0.2768  0.9788
 3678SOL     OW15590   2.190   4.843   8.614  0.7447 -0.7005 -0.4571
 3678SOL    HW115591   2.252   4.865   8.545  1.2573  1.1066  0.5018
 3678SOL    HW215592   2.226   4.764   8.654  2.8343  0.6222  0.4553
 3679SOL     OW15593   2.879   6.169   6.142  0.0689 -0.6863 -0.0942
 3679SOL    HW115594   2.857   6.168   6.049 -0.8191 -1.1990  0.1133
 3679SOL    HW215595   2.822   6.236   6.180  0.6259 -0.2773  0.0460
 3680SOL     OW15596   7.872  11.794   3.924  0.3041 -0.0141  0.0909
 3680SOL    HW115597   7.936  11.725   3.939  1.6600  0.7291 -1.9460
 3680SOL    HW215598   7.787  11.752   3.939  1.1157 -1.9423 -0.5131
 3681SOL     OW15599   5.076   7.886   6.165 -0.0131  0.3344  0.5046
 3681SOL    HW115600   5.010   7.833   6.210 -0.6952  0.3522 -0.4593
 3681SOL    HW215601   5.026   7.953   6.120  0.5484 -0.3693 -1.2322
 3682SOL     OW15602  11.290   7.615   9.603  0.3128 -0.6053  0.0061
 3682SOL    HW115603  11.238   7.674   9.548  0.5235 -1.1199 -0.7677
 3682SOL    HW215604  11.230   7.545   9.626 -0.0542  0.1031  1.2677
 3683SOL     OW15605   3.993  11.223   8.784 -0.4979 -0.0761 -0.4836
 3683SOL    HW115606   4.004  11.281   8.709  4.7177 -0.5700 -0.4960
 3683SOL    HW215607   4.024  11.138   8.753 -0.7998 -0.9713  1.5079
 3684SOL     OW15608   5.331   5.455   6.871  1.0526  0.6395 -0.0723
 3684SOL    HW115609   5.326   5.402   6.791  1.5795  1.2342 -0.5065
 3684SOL    HW215610   5.383   5.531   6.846  1.9056  0.4479  1.0605
 3685SOL     OW15611   2.473   5.199  10.048 -0.0911 -0.0880 -0.4030
 3685SOL    HW115612   2.541   5.173   9.986 -0.0639 -0.6340 -0.1603
 3685SOL    HW215613   2.481   5.134  10.119 -0.3156  0.3449  0.0201
 3686SOL     OW15614  10.132   3.282   5.358  0.6210 -0.0801 -0.2880
 3686SOL    HW115615  10.130   3.294   5.453  1.2352  2.4126 -0.5391
 3686SOL    HW215616  10.226   3.277   5.337  0.4817 -1.1447 -0.7429
 3687SOL     OW15617   2.005  10.094  10.919  0.5662 -0.1803 -0.0821
 3687SOL    HW115618   1.930  10.047  10.957  1.0154 -0.4781  0.4430
 3687SOL    HW215619   2.034  10.038  10.847  0.5626 -0.2788 -0.0071
 3688SOL     OW15620   5.265   7.745   5.257 -0.3144  0.1915 -0.2019
 3688SOL    HW115621   5.300   7.669   5.211 -3.5000 -1.1665 -0.6544
 3688SOL    HW215622   5.244   7.807   5.188 -1.3262 -0.1603 -0.2213
 3689SOL     OW15623   9.932   6.314   9.885  0.4638  0.2878  0.1937
 3689SOL    HW115624   9.985   6.393   9.895  0.9834 -0.2671  2.2157
 3689SOL    HW215625   9.995   6.246   9.861  0.6643 -0.2869  2.2087
 3690SOL     OW15626   7.427   2.134  10.205  0.6781  0.4703 -0.2357
 3690SOL    HW115627   7.337   2.134  10.170  0.7821 -1.8041 -0.6479
 3690SOL    HW215628   7.416   2.153  10.298 -0.2029  0.4045 -0.3176
 3691SOL     OW15629  10.880   5.940   6.997 -0.1285  0.1894 -0.2949
 3691SOL    HW115630  10.934   5.880   7.049 -2.2814 -2.5149 -0.9793
 3691SOL    HW215631  10.853   6.008   7.059  0.5808 -0.7487  1.0891
 3692SOL     OW15632   0.233   1.252   0.102  0.5276  0.0420 -0.2285
 3692SOL    HW115633   0.203   1.343   0.113 -1.0999 -0.4494 -0.4932
 3692SOL    HW215634   0.230   1.216   0.191  2.1604  0.5029  0.0544
 3693SOL     OW15635  10.868  11.623   6.788 -0.1791  0.1856 -0.1638
 3693SOL    HW115636  10.893  11.531   6.774  2.8007  1.0314 -1.3000
 3693SOL    HW215637  10.851  11.629   6.882 -0.4033 -1.5297 -0.0640
 3694SOL     OW15638   4.939   3.265   9.595 -0.2582  0.0482  0.1554
 3694SOL    HW115639   4.889   3.188   9.620 -1.3363  0.5372 -0.4390
 3694SOL    HW215640   4.924   3.327   9.667  1.4615 -0.6191  1.1654
 3695SOL     OW15641   3.974   9.510   8.048  0.0097 -0.0896  0.3927
 3695SOL    HW115642   4.030   9.583   8.076  0.3705  0.0436 -0.6610
 3695SOL    HW215643   3.885   9.540   8.067  0.2130  0.1669  0.9899
 3696SOL     OW15644   3.526   2.555   3.674  0.3907  0.3880  0.0707
 3696SOL    HW115645   3.612   2.534   3.711  0.5449  0.5747 -0.1812
 3696SOL    HW215646   3.481   2.470   3.671  0.5629  0.2901  0.2156
 3697SOL     OW15647   7.201   6.611   0.501  0.4060  0.3468  0.1786
 3697SOL    HW115648   7.128   6.552   0.521 -0.3851  0.7067 -1.4664
 3697SOL    HW215649   7.203   6.615   0.406  2.1548  0.8986  0.2167
 3698SOL     OW15650   0.968   9.528   5.180 -0.0895  0.5448 -0.1248
 3698SOL    HW115651   1.001   9.470   5.248 -0.7176 -1.2006 -1.2341
 3698SOL    HW215652   1.036   9.595   5.170  1.0072 -0.4033  0.7002
 3699SOL     OW15653   1.545   7.758   6.616  0.2225 -0.0809 -0.2686
 3699SOL    HW115654   1.561   7.677   6.663 -0.2518 -1.4091 -2.2626
 3699SOL    HW215655   1.627   7.807   6.624  0.1681 -0.2575  1.8160
 3700SOL     OW15656   2.043   5.124   4.549 -0.2551 -0.4507 -0.9987
 3700SOL    HW115657   2.138   5.114   4.546 -0.2278 -0.3469 -0.6205
 3700SOL    HW215658   2.010   5.068   4.479  0.0110 -1.4695 -0.3220
 3701SOL     OW15659   1.878   2.833   1.827  0.5846  0.2593  0.2055
 3701SOL    HW115660   1.880   2.923   1.859  0.0279  0.0611  0.8422
 3701SOL    HW215661   1.939   2.832   1.753  0.6916  1.1227  0.2677
 3702SOL     OW15662   2.405  10.968  10.064  0.4843 -0.0811  0.1737
 3702SOL    HW115663   2.389  10.989   9.972 -1.3848 -0.7715  0.2976
 3702SOL    HW215664   2.458  11.041  10.096 -0.2909  1.0731 -1.0273
 3703SOL     OW15665   7.175   2.182   5.173 -0.5966  0.0922 -0.2910
 3703SOL    HW115666   7.162   2.197   5.267  0.1914 -2.5500  0.3214
 3703SOL    HW215667   7.269   2.190   5.160 -0.7780  1.1873 -1.0317
 3704SOL     OW15668   4.847   1.695   8.156  0.6763 -0.0825  0.1355
 3704SOL    HW115669   4.839   1.749   8.235  0.1938 -0.1149  0.1069
 3704SOL    HW215670   4.841   1.605   8.188  0.7261 -0.1019  0.0911
 3705SOL     OW15671   7.708  11.316   3.399  0.2776  0.0015  0.2351
 3705SOL    HW115672   7.706  11.235   3.348  2.2890  0.2372 -0.3070
 3705SOL    HW215673   7.697  11.385   3.334 -2.3545  0.2086  0.7999
 3706SOL     OW15674   9.395   7.239   0.054 -0.6155 -0.0783 -0.3314
 3706SOL    HW115675   9.474   7.233   0.108  0.2672 -0.9789 -1.6501
 3706SOL    HW215676   9.416   7.306  -0.011 -1.6940  1.0558  0.4597
 3707SOL     OW15677  11.752   9.411  10.127  0.5157  0.3507  0.4951
 3707SOL    HW115678  11.718   9.484  10.179  0.8405 -0.3895  1.7893
 3707SOL    HW215679  11.820   9.450  10.071 -1.1027  1.4987 -0.7703
 3708SOL     OW15680   1.907   6.343   7.546  0.2199  0.3239  0.6033
 3708SOL    HW115681   1.880   6.378   7.631 -1.0022 -1.4311  1.0080
 3708SOL    HW215682   1.900   6.248   7.556  2.1899 -0.0285 -0.7949
 3709SOL     OW15683   0.098   6.287   1.070  0.3800  0.3619 -0.0067
 3709SOL    HW115684   0.158   6.213   1.080  0.4968  0.4765  0.1317
 3709SOL    HW215685   0.138   6.358   1.120  0.1595  0.4562  0.0370
 3710SOL     OW15686  11.814  11.191   3.323 -0.4434  0.1946  0.0317
 3710SOL    HW115687  11.752  11.118   3.322 -0.6331  0.3464 -1.7932
 3710SOL    HW215688  11.892  11.157   3.279  0.0935  0.5990  0.6396
 3711SOL     OW15689   1.716   6.559   4.201 -0.5257  0.1760  0.3158
 3711SOL    HW115690   1.627   6.578   4.228 -0.5533  1.1029 -0.3954
 3711SOL    HW215691   1.730   6.612   4.123  0.6204 -0.0183  0.3659
 3712SOL     OW15692   3.728   5.655   8.321  0.2925  0.1833 -0.2068
 3712SOL    HW115693   3.752   5.578   8.373  1.8057  1.7156  1.5272
 3712SOL    HW215694   3.633   5.660   8.330  0.4610  0.3288  2.4825
 3713SOL     OW15695   7.075   5.355   8.582 -0.3058  0.5267  0.1077
 3713SOL    HW115696   7.133   5.393   8.517  0.6510 -0.3024  0.4492
 3713SOL    HW215697   7.029   5.285   8.535  0.6102 -0.2743  0.3847
 3714SOL     OW15698   6.580   2.964  11.515 -0.3338 -1.0231 -0.7600
 3714SOL    HW115699   6.622   2.963  11.429 -0.1002 -1.4204 -0.6444
 3714SOL    HW215700   6.637   2.909  11.570  1.0128  1.3694  0.3717
 3715SOL     OW15701   0.867  11.957   1.104  0.7207 -0.2514 -0.2621
 3715SOL    HW115702   0.872  11.993   1.193 -1.0254 -0.0197 -0.2217
 3715SOL    HW215703   0.959  11.946   1.078  1.3019  1.2223  0.9399
 3716SOL     OW15704   7.624   1.724   0.764 -0.0701 -0.3868 -0.4547
 3716SOL    HW115705   7.692   1.706   0.830 -0.4055 -1.1502 -0.3006
 3716SOL    HW215706   7.567   1.788   0.806  0.6106  0.3615 -0.6331
 3717SOL     OW15707  10.164   3.485   4.486  0.4101  0.1801  0.3937
 3717SOL    HW115708  10.203   3.558   4.439 -0.1679  0.4082  0.2536
 3717SOL    HW215709  10.176   3.506   4.579  1.4029 -0.1889  0.3600
 3718SOL     OW15710   1.275   2.633   8.861 -0.9541 -0.3993  0.0035
 3718SOL    HW115711   1.276   2.621   8.956 -0.8304  0.3279  0.0983
 3718SOL    HW215712   1.363   2.606   8.833 -1.0415 -0.7643  0.0700
 3719SOL     OW15713   7.043  10.310   9.323  0.0861  0.4056 -0.1547
 3719SOL    HW115714   6.991  10.381   9.287  0.5676  1.0603  0.4166
 3719SOL    HW215715   7.110  10.293   9.257 -1.1407 -0.8230 -1.1553
 3720SOL     OW15716   1.952   8.089   4.086  0.1735 -0.7600  0.3021
 3720SOL    HW115717   1.977   8.011   4.135  0.1080 -0.9072  0.1015
 3720SOL    HW215718   2.004   8.086   4.006  1.4106  0.2811  1.0383
 3721SOL     OW15719   3.134  10.099   8.657  0.0986 -0.3239  0.0740
 3721SOL    HW115720   3.168  10.119   8.744 -0.6124  0.9599  0.0842
 3721SOL    HW215721   3.208  10.061   8.610  0.8215  0.0776  0.8635
 3722SOL     OW15722   5.711   7.794  10.392  0.4123 -0.1195  0.0042
 3722SOL    HW115723   5.702   7.746  10.475 -0.4109  2.9363  1.8462
 3722SOL    HW215724   5.629   7.841  10.382  1.4598  1.5914 -1.1766
 3723SOL     OW15725  10.466   5.047   7.257 -0.3333  1.0368 -0.1821
 3723SOL    HW115726  10.371   5.046   7.254 -0.3850  1.3664  1.0794
 3723SOL    HW215727  10.492   5.116   7.196 -0.9008  1.0200 -0.4428
 3724SOL     OW15728   3.052   0.215   0.348 -0.1514 -0.4373  0.6422
 3724SOL    HW115729   3.100   0.200   0.266 -0.3085 -1.2754  0.7030
 3724SOL    HW215730   3.082   0.146   0.406  0.3353  0.4448  1.4744
 3725SOL     OW15731   9.676   6.756  10.340 -0.5822  0.2333 -0.3436
 3725SOL    HW115732   9.624   6.729  10.264 -1.5419 -0.8415  0.6453
 3725SOL    HW215733   9.645   6.700  10.411 -0.8534  2.2730  1.2478
 3726SOL     OW15734   0.661   3.733  10.236 -0.2286  0.1538  0.2053
 3726SOL    HW115735   0.664   3.798  10.306 -0.5945  1.4663 -0.9661
 3726SOL    HW215736   0.739   3.679  10.250  0.2196  0.9884  1.0498
 3727SOL     OW15737   9.697   2.584   4.720 -0.0285  0.0783  0.4375
 3727SOL    HW115738   9.683   2.679   4.714  0.0459  0.1477  1.3013
 3727SOL    HW215739   9.724   2.569   4.810  0.1809 -0.7449  0.2495
 3728SOL     OW15740   5.036   6.783   4.107 -0.0602  0.1517  0.5519
 3728SOL    HW115741   5.007   6.788   4.016 -1.3342 -0.7327  0.8945
 3728SOL    HW215742   5.001   6.700   4.139  0.9899  0.1070  1.6506
 3729SOL     OW15743   4.150   1.193   2.648 -0.0720 -0.5882 -0.1617
 3729SOL    HW115744   4.083   1.160   2.589  0.5228 -1.0344 -0.5984
 3729SOL    HW215745   4.146   1.288   2.638 -1.5098 -0.5113  0.7966
 3730SOL     OW15746   7.292  11.622   0.989 -0.8261  0.0835 -0.0192
 3730SOL    HW115747   7.294  11.602   0.896 -1.0614  0.9410 -0.2198
 3730SOL    HW215748   7.203  11.654   1.004 -0.8351 -0.1888  0.5328
 3731SOL     OW15749   2.314   4.275   7.616 -0.2660  0.1653  0.2841
 3731SOL    HW115750   2.333   4.187   7.646  0.0990 -0.0299 -0.4867
 3731SOL    HW215751   2.394   4.304   7.573 -1.0151  0.0901 -1.2438
 3732SOL     OW15752   0.389   4.200   9.594  0.1967  0.3275  0.0248
 3732SOL    HW115753   0.341   4.130   9.639  0.4463 -1.6635 -2.5542
 3732SOL    HW215754   0.321   4.256   9.557 -0.0546  0.0995  0.1403
 3733SOL     OW15755  11.599   7.191  11.148 -0.2900 -0.1514  0.3845
 3733SOL    HW115756  11.510   7.216  11.174  0.4024  0.4851  2.2850
 3733SOL    HW215757  11.642   7.274  11.128 -0.2553 -0.4981 -1.0657
 3734SOL     OW15758   9.941   2.303   5.479 -0.3309  0.1367 -0.4283
 3734SOL    HW115759   9.995   2.372   5.517  0.0268  0.4284 -1.4288
 3734SOL    HW215760   9.999   2.259   5.417 -0.3483 -1.5171  0.6789
 3735SOL     OW15761   1.674   1.025   0.876  0.0959  0.5426  0.5170
 3735SOL    HW115762   1.611   0.954   0.885  0.8160  0.0374  1.9865
 3735SOL    HW215763   1.709   1.016   0.787 -0.8128 -0.0686  0.2095
 3736SOL     OW15764   1.564   8.515  10.962 -0.5728 -0.1026  0.1393
 3736SOL    HW115765   1.539   8.428  10.932  0.0618  0.3214 -1.7572
 3736SOL    HW215766   1.528   8.575  10.897 -0.6069  1.0438  1.1590
 3737SOL     OW15767   1.979   5.071   3.260  0.2127 -0.0574  0.6326
 3737SOL    HW115768   2.021   5.055   3.176 -3.2355 -0.6100 -1.1798
 3737SOL    HW215769   1.931   4.990   3.279 -1.6093  1.1527  1.4728
 3738SOL     OW15770   0.114   3.647   7.950  0.5536  0.1012 -0.8922
 3738SOL    HW115771   0.084   3.570   7.998  1.4564 -1.1758 -2.2981
 3738SOL    HW215772   0.103   3.720   8.012  0.0831 -1.2067  0.6204
 3739SOL     OW15773   5.806   7.290   7.742 -0.1837  0.0765  0.6878
 3739SOL    HW115774   5.864   7.249   7.678 -0.1562  0.5844  0.3834
 3739SOL    HW215775   5.733   7.325   7.691 -1.1603 -1.2245  1.1527
 3740SOL     OW15776  11.259   5.215   7.120  0.1314 -0.0590  0.7289
 3740SOL    HW115777  11.245   5.253   7.206  0.4091  2.2156 -0.1529
 3740SOL    HW215778  11.182   5.242   7.069  0.4010 -0.5956  0.0235
 3741SOL     OW15779   6.388   5.869   8.130 -0.4262 -0.2464  0.0150
 3741SOL    HW115780   6.472   5.905   8.103  0.5260 -0.3121  2.6365
 3741SOL    HW215781   6.334   5.946   8.149  0.3897 -0.1219  2.0654
 3742SOL     OW15782  10.140  10.787   9.900  0.1291  0.2549 -0.5526
 3742SOL    HW115783  10.147  10.840   9.820 -0.2114  0.5648 -0.3744
 3742SOL    HW215784  10.222  10.736   9.901  0.2636  0.4548 -0.9499
 3743SOL     OW15785   0.994   4.979  10.814  0.5850  1.2685  0.0482
 3743SOL    HW115786   1.015   4.923  10.739  0.4776  0.3844  0.6582
 3743SOL    HW215787   1.023   5.066  10.788 -1.1690  1.3677 -1.7585
 3744SOL     OW15788   2.750   2.120   1.880  0.2609 -0.1892 -0.3698
 3744SOL    HW115789   2.841   2.150   1.888  0.3444 -0.6540  0.6025
 3744SOL    HW215790   2.705   2.192   1.835  0.7435  0.7953  0.6716
 3745SOL     OW15791   1.393   0.824   2.043 -0.8074 -0.4321 -0.1628
 3745SOL    HW115792   1.381   0.912   2.007  1.5993 -0.4124 -1.0442
 3745SOL    HW215793   1.461   0.785   1.989 -0.4791 -2.1598  1.4260
 3746SOL     OW15794  11.622   3.531   5.324 -0.1500  0.0449 -0.4896
 3746SOL    HW115795  11.626   3.618   5.284 -1.7763 -0.1239 -1.0850
 3746SOL    HW215796  11.590   3.474   5.255  0.3797 -0.9348  0.0559
 3747SOL     OW15797   4.633   0.603   2.162 -0.6810  0.0708 -0.3116
 3747SOL    HW115798   4.582   0.580   2.239 -2.4064  1.1667 -1.0502
 3747SOL    HW215799   4.597   0.548   2.092 -0.0760  0.0530 -0.6156
 3748SOL     OW15800   2.900  11.973   5.533  0.2605 -0.1686 -0.5170
 3748SOL    HW115801   2.928  12.064   5.531 -1.3699  0.3860  0.2699
 3748SOL    HW215802   2.980  11.924   5.555  1.0182  1.1256 -0.2952
 3749SOL     OW15803   1.577   9.689  10.096  0.2035  0.6115  0.2563
 3749SOL    HW115804   1.562   9.596  10.080 -1.9223  1.1248 -1.1588
 3749SOL    HW215805   1.672   9.699  10.090  0.4496 -1.3796  0.0107
 3750SOL     OW15806   1.120   6.313   6.993 -0.1196 -0.2944  0.3457
 3750SOL    HW115807   1.037   6.303   6.947 -0.2160  0.8816  0.2337
 3750SOL    HW215808   1.178   6.250   6.951 -0.0707  1.0385 -1.7374
 3751SOL     OW15809   3.231   8.739   9.282 -0.2094 -0.2356  0.5426
 3751SOL    HW115810   3.302   8.719   9.221  0.1245  1.7765  0.1893
 3751SOL    HW215811   3.237   8.834   9.295 -1.5415 -0.3233  2.1429
 3752SOL     OW15812  10.902   2.391   8.491  0.3353  0.1391 -0.4147
 3752SOL    HW115813  10.940   2.362   8.408  1.0763  1.9698 -0.7695
 3752SOL    HW215814  10.939   2.478   8.504 -1.5197  0.7965  0.7197
 3753SOL     OW15815  11.399   8.883   6.324  0.2289 -0.5473 -0.0538
 3753SOL    HW115816  11.375   8.793   6.342  1.0745 -1.0464 -1.3048
 3753SOL    HW215817  11.316   8.929   6.312 -0.1866 -1.4532 -0.7434
 3754SOL     OW15818   4.505   3.069   2.295 -0.2220 -0.2858  0.2159
 3754SOL    HW115819   4.560   3.085   2.219  0.2682 -2.1201  0.1499
 3754SOL    HW215820   4.428   3.124   2.281  1.1689  1.7000 -0.0951
 3755SOL     OW15821   6.314  11.705  10.902  0.2020  0.3304  0.1893
 3755SOL    HW115822   6.398  11.723  10.860  0.5277 -0.1753  0.6137
 3755SOL    HW215823   6.261  11.783  10.885  0.2992  0.1120 -1.2040
 3756SOL     OW15824   0.188   9.808   8.614  0.1191  0.3148  0.4290
 3756SOL    HW115825   0.150   9.865   8.681 -0.9401 -0.3383  0.4005
 3756SOL    HW215826   0.132   9.731   8.613  0.9675 -0.3177 -0.2110
 3757SOL     OW15827   7.955   0.894   0.639  0.0270  0.0792 -0.0210
 3757SOL    HW115828   7.953   0.952   0.714 -0.4692  1.2108 -0.8865
 3757SOL    HW215829   7.970   0.807   0.676 -0.7661  0.5322  1.4147
 3758SOL     OW15830   7.489   4.033   8.461 -0.5155 -0.0485  0.2647
 3758SOL    HW115831   7.439   4.012   8.540  0.0097 -1.6464  0.2114
 3758SOL    HW215832   7.424   4.038   8.392 -0.9919  1.4424  0.7856
 3759SOL     OW15833   1.414   8.272   8.609 -0.1901  0.0596  0.3871
 3759SOL    HW115834   1.462   8.304   8.685  1.2588  1.6542 -1.0872
 3759SOL    HW215835   1.451   8.186   8.591  2.0049  1.1051 -0.4969
 3760SOL     OW15836   8.688   5.519   9.211  0.5218 -0.0499 -0.5062
 3760SOL    HW115837   8.593   5.506   9.209  0.4441  0.4120  0.0928
 3760SOL    HW215838   8.709   5.534   9.303  1.0867  0.5097 -0.7176
 3761SOL     OW15839   5.266   6.083   3.107 -0.4999 -0.4937  0.2035
 3761SOL    HW115840   5.214   6.081   3.028  0.5560 -1.3621 -0.5007
 3761SOL    HW215841   5.212   6.131   3.170 -1.5206 -0.1309 -0.9046
 3762SOL     OW15842   6.918   8.009   5.529  0.1513  0.0514 -0.6012
 3762SOL    HW115843   7.009   7.988   5.548  0.1359  0.6713  0.1652
 3762SOL    HW215844   6.904   8.096   5.565 -0.1567  0.8980 -2.5921
 3763SOL     OW15845   8.665   7.973   0.653  0.8988  0.1557  0.3138
 3763SOL    HW115846   8.663   8.035   0.580 -1.2570  0.4837  0.5919
 3763SOL    HW215847   8.684   7.889   0.613 -1.5332  0.1026 -0.8731
 3764SOL     OW15848   7.623   9.921   3.953  0.0730 -0.6303 -0.5811
 3764SOL    HW115849   7.692   9.893   3.893  0.8451 -1.3191  0.5702
 3764SOL    HW215850   7.566   9.844   3.961  0.5997 -0.9480  0.3846
 3765SOL     OW15851   9.949   9.696  10.196 -0.2697 -0.2494 -0.2231
 3765SOL    HW115852   9.948   9.736  10.282 -2.5385  0.8596 -0.6831
 3765SOL    HW215853   9.995   9.613  10.208  1.1878  0.7589  1.5915
 3766SOL     OW15854   2.477  10.738   6.662  0.3146 -0.3866 -0.0529
 3766SOL    HW115855   2.552  10.786   6.697  0.0700 -0.3976  0.4918
 3766SOL    HW215856   2.455  10.674   6.730 -1.3185  0.8174  0.6181
 3767SOL     OW15857   3.673  10.375  10.134 -0.2663  0.1581  0.8576
 3767SOL    HW115858   3.767  10.361  10.147  0.3716  3.1233  0.2265
 3767SOL    HW215859   3.659  10.468  10.156 -3.0348 -0.1397  0.7474
 3768SOL     OW15860   1.184   8.434   0.119  0.1840 -0.8440  0.3340
 3768SOL    HW115861   1.152   8.471   0.037  1.4413 -0.3335  0.0514
 3768SOL    HW215862   1.122   8.464   0.185 -1.2595 -1.8623 -0.5040
 3769SOL     OW15863   7.980   6.432   1.121 -0.0445 -0.5047  0.1196
 3769SOL    HW115864   7.982   6.456   1.028  0.7947  0.4497  0.3759
 3769SOL    HW215865   7.908   6.369   1.127 -2.8456  2.3792 -0.4570
 3770SOL     OW15866   1.614   7.865  10.125  0.7121 -0.2567  0.4255
 3770SOL    HW115867   1.581   7.851  10.037 -2.1268  0.8032  1.2107
 3770SOL    HW215868   1.622   7.960  10.133  1.0171 -0.3465  1.2820
 3771SOL     OW15869   2.005   7.249  12.053  0.0720  0.2536  0.0249
 3771SOL    HW115870   1.927   7.228  12.002 -0.2891 -1.5669  1.2195
 3771SOL    HW215871   1.971   7.278  12.138  0.6782  0.8245  0.0753
 3772SOL     OW15872   8.002   3.705   6.399  0.0849 -0.1657 -0.6404
 3772SOL    HW115873   8.000   3.663   6.313 -3.6151  0.9746 -1.3052
 3772SOL    HW215874   7.968   3.793   6.383  0.5831  0.5515  1.8111
 3773SOL     OW15875  11.222   8.644   3.385  0.0874 -0.1253 -0.4179
 3773SOL    HW115876  11.290   8.591   3.426 -0.1728 -1.6477 -1.8286
 3773SOL    HW215877  11.231   8.626   3.291 -1.9591 -0.0612 -0.6868
 3774SOL     OW15878   0.404   3.536   8.934  0.4585 -0.2586 -0.0152
 3774SOL    HW115879   0.357   3.465   8.889 -1.5730  0.3626  1.0345
 3774SOL    HW215880   0.456   3.577   8.865  0.1144 -1.4898 -1.0546
 3775SOL     OW15881   5.948   4.059   4.354 -0.2408 -0.5280  0.4038
 3775SOL    HW115882   5.979   4.060   4.444 -1.0086 -1.8220  0.7092
 3775SOL    HW215883   5.934   3.967   4.334 -1.7968 -0.1497 -0.4331
 3776SOL     OW15884   8.092   4.110  10.067  0.0048 -0.1461 -0.6458
 3776SOL    HW115885   8.118   4.063  10.147 -1.8563 -1.6594 -0.8519
 3776SOL    HW215886   8.060   4.041  10.008 -0.4146  1.1362 -1.9824
 3777SOL     OW15887   8.194   0.188   2.482  0.2166  0.0128  0.0681
 3777SOL    HW115888   8.106   0.223   2.488  0.3673  0.1613  1.6838
 3777SOL    HW215889   8.187   0.097   2.513  0.5837 -0.0521 -0.0284
 3778SOL     OW15890   3.334   8.241   0.069 -0.1058  0.1803  0.0488
 3778SOL    HW115891   3.278   8.193   0.009 -1.6996  1.8058  0.1337
 3778SOL    HW215892   3.287   8.240   0.152  1.2991 -0.6635  0.8843
 3779SOL     OW15893   5.847   4.244  10.185 -0.1615  0.1967  0.2533
 3779SOL    HW115894   5.753   4.252  10.202 -0.7584 -1.0577 -1.9647
 3779SOL    HW215895   5.879   4.334  10.182 -1.1415  0.6259  1.6739
 3780SOL     OW15896   2.047   2.523   9.255 -0.1774  0.2358  0.6756
 3780SOL    HW115897   2.028   2.592   9.192  1.3685  0.4435  0.4039
 3780SOL    HW215898   2.118   2.558   9.309  0.2007 -0.8767  0.9322
 3781SOL     OW15899   4.960   5.608   4.375 -0.6786  0.0944 -0.1191
 3781SOL    HW115900   4.985   5.522   4.410 -2.9608 -0.6434 -0.1916
 3781SOL    HW215901   5.028   5.627   4.310  0.8540 -0.7991  1.1295
 3782SOL     OW15902   7.382  10.756  12.108 -0.6200 -0.1615 -0.1006
 3782SOL    HW115903   7.362  10.683  12.050 -0.4719 -0.7638  0.5867
 3782SOL    HW215904   7.311  10.819  12.093 -1.2021 -0.8076 -0.1067
 3783SOL     OW15905   5.586   2.815  10.238  0.0547 -0.0963  0.2827
 3783SOL    HW115906   5.645   2.805  10.163  0.0264  2.3894 -0.1532
 3783SOL    HW215907   5.606   2.902  10.273 -2.5546  0.3552  0.8502
 3784SOL     OW15908  11.113   6.950  10.726  0.4335  0.2333 -0.4678
 3784SOL    HW115909  11.095   6.922  10.816  0.4812  0.3367 -0.4254
 3784SOL    HW215910  11.083   6.877  10.672  1.4353 -0.3046 -0.3148
 3785SOL     OW15911   6.204   8.093   4.903  0.4633  0.4252  0.0948
 3785SOL    HW115912   6.191   8.056   4.815 -1.1535  1.0488  0.0317
 3785SOL    HW215913   6.172   8.026   4.963  0.2377  0.5608  0.1273
 3786SOL     OW15914  11.268  10.216  11.309  0.0093 -0.0091 -0.1502
 3786SOL    HW115915  11.302  10.216  11.219  0.3132  0.0256 -0.0375
 3786SOL    HW215916  11.346  10.207  11.364 -0.2353 -0.8379  0.0875
 3787SOL     OW15917   4.912   4.800   9.480  1.3748 -0.1071 -0.1497
 3787SOL    HW115918   4.956   4.837   9.404 -0.0953 -0.8368 -1.4038
 3787SOL    HW215919   4.938   4.708   9.481 -1.2779 -1.0069 -1.9312
 3788SOL     OW15920   4.739   1.930  10.792 -0.3103 -0.5266  0.4361
 3788SOL    HW115921   4.794   2.009  10.789 -1.2275  0.0929 -1.1094
 3788SOL    HW215922   4.650   1.963  10.793 -0.7038 -1.5568  0.4944
 3789SOL     OW15923   3.107   7.208   5.229  0.4115  0.4019  0.3069
 3789SOL    HW115924   3.159   7.141   5.273 -0.6990 -0.9957 -0.3953
 3789SOL    HW215925   3.019   7.170   5.225  0.0540  1.3155 -1.3496
 3790SOL     OW15926   5.922  11.388   8.523  0.4039 -0.0824 -0.3180
 3790SOL    HW115927   5.908  11.469   8.573 -1.1073 -0.2720 -0.4078
 3790SOL    HW215928   6.016  11.371   8.532  0.4653  0.8168  1.0266
 3791SOL     OW15929  10.608   4.822   3.778  0.0278  0.1435  0.5263
 3791SOL    HW115930  10.565   4.745   3.742  1.9531 -0.4876 -0.5846
 3791SOL    HW215931  10.688   4.788   3.818 -0.0298  1.3546  1.7414
 3792SOL     OW15932   9.286   9.042   2.738 -0.4122 -0.0075 -0.0586
 3792SOL    HW115933   9.279   9.133   2.769 -0.0456 -0.2845  0.8749
 3792SOL    HW215934   9.361   9.006   2.785 -0.1537 -0.6107 -0.9108
 3793SOL     OW15935   3.132   4.179  12.062 -0.3636 -0.3923 -0.1691
 3793SOL    HW115936   3.117   4.197  11.970 -0.3115  0.1918 -0.0645
 3793SOL    HW215937   3.045   4.160  12.098 -0.1815 -2.4714 -0.7165
 3794SOL     OW15938   6.769   1.534   4.496  0.8203  0.1353 -0.2708
 3794SOL    HW115939   6.696   1.494   4.449  0.2737 -0.6253  1.1570
 3794SOL    HW215940   6.847   1.510   4.447  0.0709  2.0107 -2.5574
 3795SOL     OW15941  11.889   3.122  11.115 -0.1987 -0.0471  0.3006
 3795SOL    HW115942  11.972   3.163  11.091 -1.1346  0.5616 -2.2039
 3795SOL    HW215943  11.902   3.029  11.095  0.1990 -0.1347  0.9294
 3796SOL     OW15944   4.191   8.088  10.096  0.4446  0.7175  0.2223
 3796SOL    HW115945   4.153   8.000  10.091  0.1799  0.7521  1.4201
 3796SOL    HW215946   4.272   8.076  10.146  0.7264  1.0597 -0.1521
 3797SOL     OW15947   8.972   1.002   7.614 -0.5833 -0.1527  0.1417
 3797SOL    HW115948   8.990   0.937   7.546  0.1691 -0.5107  0.6564
 3797SOL    HW215949   9.038   1.070   7.601 -0.7189 -0.0054  0.2297
 3798SOL     OW15950  11.377   4.457  10.195 -0.4895  0.3131 -0.1393
 3798SOL    HW115951  11.428   4.461  10.276  1.0451  0.9566 -1.1061
 3798SOL    HW215952  11.316   4.384  10.209  1.2931 -1.1038  0.7077
 3799SOL     OW15953   3.897   7.492   6.913  0.4084 -0.0388  0.3860
 3799SOL    HW115954   3.852   7.553   6.973 -0.7878 -0.0922 -0.4160
 3799SOL    HW215955   3.973   7.541   6.883 -0.1370  0.8082  0.3214
 3800SOL     OW15956  10.450   4.084   6.148 -0.0068  0.6585  0.3110
 3800SOL    HW115957  10.480   4.136   6.073  0.6508 -0.8995 -0.5646
 3800SOL    HW215958  10.495   4.122   6.223  2.5490 -0.2099 -0.6643
 3801SOL     OW15959   1.832   6.698   5.268 -0.2175 -0.2090 -0.1095
 3801SOL    HW115960   1.787   6.782   5.277  1.2312  0.6703 -0.7455
 3801SOL    HW215961   1.925   6.720   5.266  0.3580 -2.0358  2.0370
 3802SOL     OW15962   0.988   4.063   9.909 -0.0403  0.7121 -0.2115
 3802SOL    HW115963   1.042   3.990   9.877  0.4671  1.2466 -0.6016
 3802SOL    HW215964   1.039   4.102   9.980 -1.8084 -1.3698  2.3673
 3803SOL     OW15965   4.010   2.457   7.704  0.5235 -0.2094  0.1778
 3803SOL    HW115966   4.003   2.536   7.649  0.5069  0.6645  1.3972
 3803SOL    HW215967   3.936   2.403   7.677  0.5558  0.1683 -0.7098
 3804SOL     OW15968   3.834   0.693   9.453 -0.3693  0.2541 -0.1005
 3804SOL    HW115969   3.864   0.654   9.535 -0.6234  0.4072  0.0674
 3804SOL    HW215970   3.766   0.633   9.421 -0.8913  0.6445  0.2520
 3805SOL     OW15971  11.433  10.294   2.297  0.4917 -0.2204 -0.0711
 3805SOL    HW115972  11.511  10.345   2.275 -0.3265  1.0047 -0.2436
 3805SOL    HW215973  11.459  10.241   2.372  1.2563  0.7606  0.3813
 3806SOL     OW15974   4.167   3.204   1.140  0.0571  0.1743  0.0715
 3806SOL    HW115975   4.104   3.276   1.142 -0.9625 -0.6943 -0.0532
 3806SOL    HW215976   4.127   3.135   1.193  0.9944 -0.3223  0.1476
 3807SOL     OW15977  11.135  11.691   8.798  0.1167 -0.3388  0.4181
 3807SOL    HW115978  11.210  11.638   8.824 -1.2137 -1.7254  1.5943
 3807SOL    HW215979  11.109  11.656   8.713 -1.2586 -2.2444  1.5504
 3808SOL     OW15980  11.419   5.172   8.694 -0.6415  0.4732  0.3479
 3808SOL    HW115981  11.404   5.211   8.608 -1.1010 -2.2469 -0.8891
 3808SOL    HW215982  11.364   5.094   8.696 -0.4540  0.3065  3.0354
 3809SOL     OW15983   9.435   5.508   2.980 -0.0445 -0.0298  0.7824
 3809SOL    HW115984   9.375   5.474   2.914 -0.3655 -1.7340  1.8662
 3809SOL    HW215985   9.380   5.524   3.056  0.2791  2.1458  0.6134
 3810SOL     OW15986   0.167  10.119   1.910  0.0598  0.4846 -0.8220
 3810SOL    HW115987   0.114  10.081   1.980 -0.0494  3.2654  0.7314
 3810SOL    HW215988   0.230  10.050   1.888  1.1695 -0.0225  3.2013
 3811SOL     OW15989  11.596  10.252   4.588  0.2202  0.5028  0.3652
 3811SOL    HW115990  11.682  10.210   4.588  0.5063  1.0689 -0.7428
 3811SOL    HW215991  11.615  10.345   4.598 -0.3346  0.5408  1.2161
 3812SOL     OW15992   4.331   2.554   1.254 -0.3148  0.0102 -0.3658
 3812SOL    HW115993   4.338   2.618   1.183  2.9853 -1.7925 -1.9081
 3812SOL    HW215994   4.259   2.496   1.227  0.9965 -0.7629 -2.4810
 3813SOL     OW15995   5.367   1.487   2.654  0.2957 -0.0050  0.5242
 3813SOL    HW115996   5.282   1.448   2.676 -0.4191  1.0873 -0.2033
 3813SOL    HW215997   5.428   1.413   2.654 -0.8530 -0.9850 -0.0285
 3814SOL     OW15998   6.623   1.176   9.070 -0.1808 -0.3367 -0.1252
 3814SOL    HW115999   6.553   1.153   9.010 -1.2582  0.4289  0.7976
 3814SOL    HW216000   6.701   1.180   9.015 -1.2314  0.9888 -1.6277
 3815SOL     OW16001   1.424   5.821   5.494  0.1549 -0.4354 -0.0103
 3815SOL    HW116002   1.457   5.754   5.553  0.0534  0.1995  0.7757
 3815SOL    HW216003   1.501   5.856   5.450  0.6968  1.5598  2.3503
 3816SOL     OW16004  10.237   2.202   1.054 -0.0304  0.5485  0.0516
 3816SOL    HW116005  10.243   2.276   0.993  0.4820  0.7664  0.3619
 3816SOL    HW216006  10.323   2.160   1.050 -0.5334 -0.4452 -0.6311
 3817SOL     OW16007   3.035   9.217   4.038  0.1453  0.1859 -0.4899
 3817SOL    HW116008   2.967   9.155   4.065  0.5464 -0.1162 -0.1617
 3817SOL    HW216009   3.107   9.161   4.008  1.3293  0.4075  1.7373
 3818SOL     OW16010   5.351   4.057   6.610  0.2038 -0.4786 -0.2956
 3818SOL    HW116011   5.415   4.069   6.680  1.8733 -0.9477 -1.6868
 3818SOL    HW216012   5.351   3.963   6.593 -1.9103 -0.6962  0.5799
 3819SOL     OW16013   9.910   6.287  11.923 -0.0044  0.7718  0.2914
 3819SOL    HW116014   9.872   6.353  11.981 -0.4415  1.0953 -0.3551
 3819SOL    HW216015   9.889   6.317  11.835  0.3709  0.1133 -0.0310
 3820SOL     OW16016   7.047   1.652   9.187  0.2505 -0.0532  0.2084
 3820SOL    HW116017   6.956   1.626   9.202 -0.2816  1.3782 -0.4433
 3820SOL    HW216018   7.052   1.670   9.093  1.7492 -2.0723 -0.1666
 3821SOL     OW16019  11.425   4.066   6.430 -0.2650  0.7444  0.3008
 3821SOL    HW116020  11.354   4.017   6.387  1.0186 -1.3634  0.4251
 3821SOL    HW216021  11.450   4.010   6.504  1.6540  1.3381  0.1387
 3822SOL     OW16022   7.329   3.801   4.708 -0.1600 -0.1832 -0.0212
 3822SOL    HW116023   7.334   3.896   4.694 -2.6304  0.0329  0.1889
 3822SOL    HW216024   7.349   3.790   4.801  4.0014 -0.3706 -0.7564
 3823SOL     OW16025   4.517   0.379   9.437 -0.5560  0.0296  0.2942
 3823SOL    HW116026   4.504   0.347   9.526 -0.7592  0.4253  0.4072
 3823SOL    HW216027   4.434   0.358   9.392 -0.0085 -1.2953 -0.1477
 3824SOL     OW16028   6.925   3.746   7.930  0.0957  0.2300 -0.1787
 3824SOL    HW116029   6.956   3.786   8.011 -1.0906  0.4690  0.1749
 3824SOL    HW216030   6.835   3.719   7.949 -0.4957  1.0288 -1.6524
 3825SOL     OW16031  10.336   2.058   9.828 -0.8362  0.2168 -0.2500
 3825SOL    HW116032  10.283   2.092   9.757 -0.8558  1.6566  0.4242
 3825SOL    HW216033  10.423   2.097   9.815 -0.7643  0.2703  0.3476
 3826SOL     OW16034   3.417   7.501   4.241  0.3157 -0.0810  0.2785
 3826SOL    HW116035   3.381   7.556   4.311 -0.7063  1.5854 -1.4699
 3826SOL    HW216036   3.340   7.469   4.194  0.9904  0.4712 -1.2661
 3827SOL     OW16037   4.515  12.067   0.988 -0.2003  0.5069  0.2156
 3827SOL    HW116038   4.512  12.098   1.078 -0.7671 -1.7800  1.0463
 3827SOL    HW216039   4.597  12.018   0.982  0.3103  1.4591 -0.8188
 3828SOL     OW16040  11.327   7.530  10.225 -0.1109 -0.0171 -0.0027
 3828SOL    HW116041  11.392   7.475  10.182 -1.9263 -0.8227 -1.8426
 3828SOL    HW216042  11.287   7.580  10.154 -1.6824  0.2690  1.0408
 3829SOL     OW16043  11.632   6.929   2.790  0.2782 -0.2279 -0.9607
 3829SOL    HW116044  11.703   6.865   2.789 -1.5298 -2.3621 -2.4771
 3829SOL    HW216045  11.611   6.943   2.697 -0.1245  1.7606 -0.6157
 3830SOL     OW16046   0.384   3.279  11.090  0.1333 -0.0317  0.9285
 3830SOL    HW116047   0.338   3.288  11.007  1.9534  1.8938  0.0400
 3830SOL    HW216048   0.413   3.188  11.093 -0.5654 -0.2982 -0.1943
 3831SOL     OW16049   8.412   9.392   0.604  0.1668 -0.4078  0.5438
 3831SOL    HW116050   8.331   9.441   0.591  0.6268  0.7218  1.7516
 3831SOL    HW216051   8.385   9.314   0.654 -0.1069  0.2558  1.4555
 3832SOL     OW16052   9.563  10.720  11.020  0.0250  0.0574 -0.5660
 3832SOL    HW116053   9.555  10.798  11.074  2.6395  1.0772 -1.5204
 3832SOL    HW216054   9.513  10.740  10.941 -0.4071  0.1886 -0.2665
 3833SOL     OW16055   4.699   6.406   2.283 -0.6880 -0.3192 -0.4543
 3833SOL    HW116056   4.634   6.339   2.261 -0.2011 -1.2668  0.8656
 3833SOL    HW216057   4.647   6.486   2.294 -1.6459 -1.0296  0.4295
 3834SOL     OW16058   3.505   5.987   8.072 -0.1099  0.2468 -0.1702
 3834SOL    HW116059   3.545   5.928   8.008  0.4941  0.3256  0.1362
 3834SOL    HW216060   3.575   6.008   8.133 -0.6522  0.2677  0.4558
 3835SOL     OW16061   3.465   1.190   7.013  1.1054 -0.2728 -0.0574
 3835SOL    HW116062   3.555   1.188   6.980  1.1143 -0.6820 -0.0060
 3835SOL    HW216063   3.417   1.130   6.957  1.0780 -0.8232  0.5394
 3836SOL     OW16064   7.951   8.678   6.213 -1.2681  0.1370  0.2190
 3836SOL    HW116065   8.031   8.708   6.256 -1.0599 -0.6820  0.4075
 3836SOL    HW216066   7.981   8.617   6.146 -1.6487  0.8025 -0.5876
 3837SOL     OW16067   0.276   5.075   3.776 -0.3041  0.3781  0.1027
 3837SOL    HW116068   0.204   5.021   3.808 -0.3282 -0.2194 -0.9059
 3837SOL    HW216069   0.273   5.154   3.829 -0.5323 -0.4386  1.3397
 3838SOL     OW16070   0.488   1.382  10.086  0.0270  0.7868  0.8987
 3838SOL    HW116071   0.503   1.296  10.127  1.3540 -0.0299 -1.1839
 3838SOL    HW216072   0.393   1.395  10.094 -0.2046 -0.8628  1.2933
 3839SOL     OW16073  10.281  10.961   0.584  0.8693  0.3575  0.4648
 3839SOL    HW116074  10.363  10.960   0.633  0.6206  0.5520  0.8966
 3839SOL    HW216075  10.230  10.889   0.622  1.2417 -0.4452 -0.5185
 3840SOL     OW16076   1.296   9.955  11.679 -0.0041 -0.3881  0.5032
 3840SOL    HW116077   1.249   9.895  11.620  1.4472 -0.4245 -0.6915
 3840SOL    HW216078   1.285   9.917  11.766 -2.4253 -0.2060  0.3416
 3841SOL     OW16079   1.383   8.569  11.960 -0.2649  0.1695 -0.0144
 3841SOL    HW116080   1.290   8.576  11.941 -0.9517 -1.8980  2.1655
 3841SOL    HW216081   1.407   8.481  11.931  0.8730  0.4534  0.0165
 3842SOL     OW16082   3.723   2.161   3.147  0.1875  0.1852  0.2102
 3842SOL    HW116083   3.719   2.253   3.175  0.7909  0.1578  0.4026
 3842SOL    HW216084   3.768   2.116   3.219 -0.5254 -0.3458  0.3269
 3843SOL     OW16085   0.016   9.659   0.583  0.0195  0.1426  0.7585
 3843SOL    HW116086   0.078   9.716   0.537  0.3749  0.0262  1.0829
 3843SOL    HW216087   0.069   9.585   0.613 -0.1041  0.4305  1.7324
 3844SOL     OW16088   4.440   6.437   7.219 -0.2966 -0.2296  0.2844
 3844SOL    HW116089   4.354   6.455   7.182 -1.7076 -1.9080  2.4854
 3844SOL    HW216090   4.444   6.341   7.226  1.5445 -0.1628  0.6810
 3845SOL     OW16091   8.861   7.774   6.907  0.2011 -0.4738 -0.4237
 3845SOL    HW116092   8.880   7.700   6.849 -2.5367 -2.0996  0.5243
 3845SOL    HW216093   8.791   7.822   6.863  0.2726  0.1222  0.0895
 3846SOL     OW16094   9.300   1.427   0.363  0.2695  0.4350 -0.1852
 3846SOL    HW116095   9.330   1.490   0.428  0.5801  1.4096 -1.2387
 3846SOL    HW216096   9.256   1.480   0.297  0.6203 -0.4383 -1.1502
 3847SOL     OW16097   8.682  11.879   9.005  0.6741  0.5258  0.2126
 3847SOL    HW116098   8.689  11.804   9.063  2.3589 -0.1670 -0.7977
 3847SOL    HW216099   8.624  11.850   8.935 -0.1495  0.8351  0.7543
 3848SOL     OW16100   1.878   1.825   9.837 -0.0082 -0.6900  0.3760
 3848SOL    HW116101   1.846   1.878   9.763  2.2206  0.5953  0.2124
 3848SOL    HW216102   1.813   1.837   9.906 -1.3382 -0.6292 -0.8456
 3849SOL     OW16103   4.705   5.722   6.100 -0.5541  0.3456  0.1009
 3849SOL    HW116104   4.698   5.640   6.149 -1.1557 -0.6240 -1.5274
 3849SOL    HW216105   4.628   5.722   6.042 -0.7617  2.2428  0.3204
 3850SOL     OW16106   1.931   9.661   3.780 -0.2113  0.2978 -0.2900
 3850SOL    HW116107   1.954   9.737   3.726 -0.0011  0.0148 -0.6064
 3850SOL    HW216108   1.890   9.600   3.718  2.8592 -1.3860 -0.8897
 3851SOL     OW16109   9.487   1.933   4.459 -0.2584 -0.2084 -0.1675
 3851SOL    HW116110   9.450   1.985   4.387 -0.1631 -0.6096 -0.5116
 3851SOL    HW216111   9.542   1.995   4.507 -0.6986  0.1831 -0.1554
 3852SOL     OW16112   3.889   2.282  10.861  0.3408 -0.0025  0.4991
 3852SOL    HW116113   3.953   2.280  10.932  0.4396 -0.2828  0.4034
 3852SOL    HW216114   3.940   2.302  10.783  0.5292 -1.5857  0.1984
 3853SOL     OW16115  11.796   6.000  10.061  0.4961  0.2011 -0.4376
 3853SOL    HW116116  11.891   5.999  10.075  0.4303  0.0234  0.0052
 3853SOL    HW216117  11.778   6.087  10.023  0.7017  0.6213  0.4176
 3854SOL     OW16118   5.049   2.264   0.793 -0.1844  0.8021  0.0463
 3854SOL    HW116119   5.007   2.227   0.870  0.5333  0.2116  0.1704
 3854SOL    HW216120   5.139   2.280   0.820  0.6234 -1.2127 -1.1788
 3855SOL     OW16121   7.993   5.488   0.860  0.5983  0.2807 -0.4781
 3855SOL    HW116122   7.976   5.582   0.872 -1.0402 -0.0474  0.0432
 3855SOL    HW216123   7.940   5.464   0.784  1.1281 -0.1972 -0.6963
 3856SOL     OW16124   5.612  11.284   5.179  0.2495  0.4705  0.2054
 3856SOL    HW116125   5.656  11.255   5.099  0.2531  0.0337  0.3626
 3856SOL    HW216126   5.602  11.204   5.231 -1.3939  0.4264 -0.1431
 3857SOL     OW16127   9.992  10.535   4.514  0.2685  0.1010 -0.0741
 3857SOL    HW116128   9.907  10.514   4.474 -0.6032  1.7499  0.7886
 3857SOL    HW216129  10.052  10.545   4.440 -0.9074  1.4165 -0.8924
 3858SOL     OW16130   6.343   3.964   3.709 -0.4219  0.4689 -0.2332
 3858SOL    HW116131   6.415   3.908   3.740 -1.2098  1.0492  3.0535
 3858SOL    HW216132   6.351   4.044   3.762 -1.8063  1.7431 -1.8471
 3859SOL     OW16133   5.757   8.093   3.988  0.4164 -0.5478  0.1256
 3859SOL    HW116134   5.758   8.133   4.075  0.6983 -1.4968  0.5819
 3859SOL    HW216135   5.810   8.151   3.933  0.9125 -0.3585  0.7924
 3860SOL     OW16136  11.131   8.383   5.018  0.7875 -0.1242 -0.2475
 3860SOL    HW116137  11.068   8.311   5.020 -0.9937  1.3469  0.0999
 3860SOL    HW216138  11.206   8.349   4.971  0.4909 -2.5659  0.9191
 3861SOL     OW16139   7.208   9.364   6.464  0.3706 -0.2118  0.1752
 3861SOL    HW116140   7.273   9.341   6.530  0.1980  0.2629  0.5121
 3861SOL    HW216141   7.222   9.458   6.448 -0.6429  0.0449  0.7166
 3862SOL     OW16142   8.892   4.312   3.592  0.3007 -0.8161 -0.7011
 3862SOL    HW116143   8.975   4.341   3.630  0.2530 -2.0532  0.4031
 3862SOL    HW216144   8.872   4.379   3.526  0.6870  1.0962  1.0175
 3863SOL     OW16145  10.641   9.832   9.388  0.7272 -0.4436  0.1669
 3863SOL    HW116146  10.619   9.767   9.322  0.0538 -0.9451  0.8761
 3863SOL    HW216147  10.712   9.793   9.439  0.5300 -0.4988  0.4016
 3864SOL     OW16148   4.581   8.843   6.194 -0.3234  0.4117 -0.2072
 3864SOL    HW116149   4.569   8.894   6.114  0.0845  1.5903  0.4649
 3864SOL    HW216150   4.531   8.890   6.261  0.4438  0.2104  0.5270
 3865SOL     OW16151  10.604   4.553   9.122 -0.3417 -0.0212  0.1464
 3865SOL    HW116152  10.532   4.609   9.094 -1.1267 -0.4151  1.2999
 3865SOL    HW216153  10.645   4.601   9.194  0.1200 -0.1165 -0.0472
 3866SOL     OW16154  10.529   2.436   8.842 -0.3465 -0.0152  0.3573
 3866SOL    HW116155  10.548   2.507   8.780 -0.9836 -0.0100  0.1598
 3866SOL    HW216156  10.508   2.481   8.924  0.2782 -0.0156  0.5260
 3867SOL     OW16157   3.186   9.732  10.425 -0.2508 -0.3665 -0.1257
 3867SOL    HW116158   3.168   9.638  10.417 -0.2249 -0.3855  0.0345
 3867SOL    HW216159   3.155   9.754  10.513 -0.0580 -0.2688 -0.0828
 3868SOL     OW16160   4.031   4.584   8.727  0.2452  0.3022  0.5097
 3868SOL    HW116161   3.974   4.661   8.732  0.0870  0.1669  0.8667
 3868SOL    HW216162   4.018   4.540   8.811  0.7847  0.2019  0.5462
 3869SOL     OW16163   9.516   7.695   4.773  0.3861 -0.3368 -0.1664
 3869SOL    HW116164   9.567   7.650   4.840  0.3561 -1.1968 -0.6999
 3869SOL    HW216165   9.447   7.740   4.821  0.7310 -0.4360  0.4272
 3870SOL     OW16166   6.625   4.738   7.737 -0.2826 -0.6038 -0.5096
 3870SOL    HW116167   6.674   4.820   7.745  1.4301 -1.6508  0.4253
 3870SOL    HW216168   6.550   4.749   7.795  1.1975 -0.5210  1.5078
 3871SOL     OW16169   0.078   2.067   6.007 -0.5887  0.1797 -0.0844
 3871SOL    HW116170   0.079   2.049   6.101  0.4421  0.5142 -0.0186
 3871SOL    HW216171   0.109   2.158   6.000 -0.8780  0.2353 -0.7343
 3872SOL     OW16172   0.405   5.306   9.445  0.2416 -0.0699  0.2834
 3872SOL    HW116173   0.498   5.328   9.456  0.4249 -0.7179  0.1214
 3872SOL    HW216174   0.360   5.352   9.515  0.8675 -0.8781  1.2428
 3873SOL     OW16175   5.328   6.956   6.935 -0.1828 -0.0391 -0.1200
 3873SOL    HW116176   5.269   6.969   6.861 -0.5593  2.1279  0.4795
 3873SOL    HW216177   5.299   7.020   7.000  0.3832 -1.6069  1.7660
 3874SOL     OW16178   6.375   8.088  11.221 -0.0494 -0.0966  0.3385
 3874SOL    HW116179   6.443   8.143  11.261  1.0836 -1.2311  0.0246
 3874SOL    HW216180   6.318   8.064  11.294 -0.7033  1.6207  0.4571
 3875SOL     OW16181   8.755   8.026   8.528  0.4166 -0.4620  0.2670
 3875SOL    HW116182   8.712   7.947   8.495 -0.9315 -0.2000  1.2728
 3875SOL    HW216183   8.812   8.054   8.457 -1.1417 -0.8078 -1.1887
 3876SOL     OW16184   4.367   9.737   2.333 -0.6281  0.1022 -0.4634
 3876SOL    HW116185   4.401   9.706   2.417 -0.4689 -0.1348 -0.6118
 3876SOL    HW216186   4.274   9.717   2.336 -1.0584  2.0793  0.5396
 3877SOL     OW16187   0.795   9.595   4.995  0.0339  0.3359 -0.5231
 3877SOL    HW116188   0.868   9.545   5.031  0.0557  1.0625  0.4649
 3877SOL    HW216189   0.822   9.686   5.001 -1.4980  0.7400  1.1870
 3878SOL     OW16190   9.257   6.490   6.409  0.0499 -0.2245 -0.1589
 3878SOL    HW116191   9.186   6.425   6.411 -0.8776  0.7776  0.7826
 3878SOL    HW216192   9.253   6.532   6.495  1.6421  0.0226 -0.1863
 3879SOL     OW16193   5.946   7.269   1.934  0.3210 -0.3940  0.0271
 3879SOL    HW116194   6.029   7.287   1.978 -0.0932 -2.9244  2.0997
 3879SOL    HW216195   5.969   7.209   1.863  0.2122 -2.1010  1.3690
 3880SOL     OW16196   2.417  11.316  11.300 -0.6220  0.3522  0.0703
 3880SOL    HW116197   2.382  11.252  11.362 -0.4488 -0.3742 -0.5750
 3880SOL    HW216198   2.411  11.274  11.215  2.7505 -0.2701  0.0022
 3881SOL     OW16199   8.821   5.496   3.664 -0.8744  0.5502  0.0812
 3881SOL    HW116200   8.762   5.479   3.591 -0.6792  1.1334 -0.2208
 3881SOL    HW216201   8.787   5.575   3.705 -1.3321 -0.1070  0.9961
 3882SOL     OW16202   0.123   2.881   9.588 -0.4992 -0.4754  0.2022
 3882SOL    HW116203   0.077   2.854   9.508 -0.5366 -1.6572  0.5929
 3882SOL    HW216204   0.170   2.802   9.615  0.0972  0.1275  0.9485
 3883SOL     OW16205   7.865   3.299   0.558 -0.3584  0.6647  0.0008
 3883SOL    HW116206   7.843   3.318   0.466  0.9933  2.5637  0.0132
 3883SOL    HW216207   7.893   3.207   0.557  0.4674  0.8968 -1.6777
 3884SOL     OW16208   0.326   4.894   9.635  0.1008 -0.1147  0.4138
 3884SOL    HW116209   0.388   4.821   9.644  0.6001  0.3136  0.5499
 3884SOL    HW216210   0.335   4.921   9.544 -0.0164 -0.1682  0.3868
 3885SOL     OW16211   6.312   2.175  10.261 -0.1402  0.2675  0.0631
 3885SOL    HW116212   6.287   2.147  10.349  0.2790  0.9109  0.3926
 3885SOL    HW216213   6.273   2.110  10.203 -1.0499  0.2520  0.6792
 3886SOL     OW16214   2.221   0.316   8.686 -0.8506  0.2101  0.3947
 3886SOL    HW116215   2.275   0.394   8.690  0.6561 -0.8667  3.1009
 3886SOL    HW216216   2.172   0.316   8.768 -2.5967 -0.5300 -0.5834
 3887SOL     OW16217   0.081   5.022   6.273  0.4004 -0.6580  0.4044
 3887SOL    HW116218   0.167   4.981   6.260 -0.5928 -3.2903  1.4224
 3887SOL    HW216219   0.058   5.001   6.364 -1.5768 -0.5676 -0.0287
 3888SOL     OW16220   6.110   5.992   1.327 -0.0838  0.1415 -0.2240
 3888SOL    HW116221   6.199   6.015   1.300 -0.0276 -0.5476 -0.6520
 3888SOL    HW216222   6.119   5.958   1.416 -0.0973  1.2630  0.2096
 3889SOL     OW16223   3.166   4.900   3.962  0.2930  0.0794  0.1952
 3889SOL    HW116224   3.124   4.972   4.007 -0.8002 -0.5188  0.1731
 3889SOL    HW216225   3.256   4.899   3.995  0.2831  1.3464  0.2923
 3890SOL     OW16226   8.473   7.357   2.479 -0.1166 -0.2674  0.2284
 3890SOL    HW116227   8.467   7.447   2.446 -1.5163  0.1547  1.5136
 3890SOL    HW216228   8.384   7.322   2.468  0.8422 -2.2411 -2.1219
 3891SOL     OW16229   9.567  12.066   0.611 -0.1605 -0.1288  0.0187
 3891SOL    HW116230   9.603  12.077   0.523 -0.9082  1.6569 -0.1068
 3891SOL    HW216231   9.494  12.004   0.599 -0.0355 -0.1733 -0.5536
 3892SOL     OW16232   8.208  10.168   8.015 -0.7252  0.8605  0.2520
 3892SOL    HW116233   8.259  10.203   7.941  1.1161 -1.4669  0.2972
 3892SOL    HW216234   8.233  10.222   8.089  1.1621  0.2623  0.0993
 3893SOL     OW16235   1.180  12.015  10.248 -0.3648  0.4466 -0.3404
 3893SOL    HW116236   1.253  12.067  10.215  1.0079 -0.9416  0.3632
 3893SOL    HW216237   1.115  12.016  10.177  0.2370  1.8542 -0.9054
 3894SOL     OW16238   5.928   5.023   1.270  0.3460  0.4194 -0.1675
 3894SOL    HW116239   5.967   5.103   1.306 -0.2153  0.8311 -0.4634
 3894SOL    HW216240   5.842   5.017   1.313  0.6253 -0.3536  0.3010
 3895SOL     OW16241   6.721   9.397  11.955  0.2342 -0.6415 -0.7307
 3895SOL    HW116242   6.806   9.434  11.934  0.4639 -0.0963  0.9906
 3895SOL    HW216243   6.741   9.318  12.005 -0.2592 -0.3013  0.0203
 3896SOL     OW16244  10.719   8.201   3.935 -0.4470  0.4580 -0.3981
 3896SOL    HW116245  10.641   8.176   3.984 -1.4272  1.8053 -1.2357
 3896SOL    HW216246  10.779   8.234   4.002 -0.6923 -0.2798  0.2040
 3897SOL     OW16247  10.092   5.431   0.245  0.3281  0.2790 -0.3211
 3897SOL    HW116248  10.069   5.409   0.155  3.1116 -1.5679 -0.7010
 3897SOL    HW216249  10.052   5.362   0.298  0.9979 -0.2260 -0.4643
 3898SOL     OW16250  11.843   1.770   1.769 -0.5716 -0.6526  0.6170
 3898SOL    HW116251  11.893   1.809   1.840 -0.6056  0.4339  0.0594
 3898SOL    HW216252  11.856   1.829   1.695 -0.3297 -1.8784 -0.3681
 3899SOL     OW16253   6.529  11.441   1.523 -0.0291 -0.1673  0.6972
 3899SOL    HW116254   6.606  11.478   1.566  0.4469 -0.6924  0.3121
 3899SOL    HW216255   6.559  11.357   1.489 -0.2972  0.3396 -0.8950
 3900SOL     OW16256   1.760   0.396   9.116  0.0693  0.1092 -0.1196
 3900SOL    HW116257   1.773   0.303   9.095 -2.7910 -0.4637  0.1855
 3900SOL    HW216258   1.848   0.429   9.135  1.0058 -3.0183  1.7066
 3901SOL     OW16259   0.093   7.036  11.023  0.5134 -0.1036 -0.1277
 3901SOL    HW116260   0.038   6.979  11.077  0.3295  0.0250 -0.1813
 3901SOL    HW216261   0.042   7.049  10.943  0.2203  0.7596  0.1956
 3902SOL     OW16262   6.435  10.252  10.399  0.3930  0.3637 -0.2416
 3902SOL    HW116263   6.346  10.268  10.431  0.0843 -1.2327 -0.1989
 3902SOL    HW216264   6.430  10.264  10.305 -0.3682 -1.5067 -0.4958
 3903SOL     OW16265   5.378   7.959   6.833 -0.0380  0.0496  0.0236
 3903SOL    HW116266   5.316   8.025   6.803  1.3204  0.7405 -1.4008
 3903SOL    HW216267   5.403   7.912   6.754  0.6750 -0.7296  0.6900
 3904SOL     OW16268   0.613  11.078   8.613  0.2332 -0.0295  0.3360
 3904SOL    HW116269   0.593  11.164   8.651  0.8695  0.3723 -0.2181
 3904SOL    HW216270   0.649  11.028   8.686  1.0216  0.5891  0.3938
 3905SOL     OW16271   5.860  10.747  11.552 -0.5010 -0.2409  0.0559
 3905SOL    HW116272   5.945  10.792  11.557  0.2799 -1.6982  0.3939
 3905SOL    HW216273   5.799  10.816  11.525  1.1002  0.4698 -2.0855
 3906SOL     OW16274   0.452   3.667   9.582  0.4228  0.7011  0.5727
 3906SOL    HW116275   0.442   3.762   9.587  2.2286  0.9195  0.8697
 3906SOL    HW216276   0.373   3.637   9.537  0.8906  2.5974 -1.7497
 3907SOL     OW16277  11.823  10.809   4.396 -0.3676 -0.0408 -0.7936
 3907SOL    HW116278  11.884  10.862   4.447 -0.7713  0.0672 -0.4215
 3907SOL    HW216279  11.864  10.803   4.309  0.0530  0.2313 -0.6184
 3908SOL     OW16280   2.509   1.865   4.163  0.4862  0.3367  0.4068
 3908SOL    HW116281   2.488   1.892   4.252  0.1973  1.7269 -0.0613
 3908SOL    HW216282   2.497   1.943   4.110  2.1654 -0.0426 -0.6359
 3909SOL     OW16283  10.951   3.048   8.055 -0.7060  0.2826 -0.2350
 3909SOL    HW116284  10.870   2.999   8.059 -0.2944 -0.3403  2.5632
 3909SOL    HW216285  10.929   3.135   8.089 -0.6680  0.9547 -1.8188
 3910SOL     OW16286   8.604   9.986   3.574 -0.4624 -0.2372  0.0104
 3910SOL    HW116287   8.582  10.059   3.632 -0.7900 -0.8966  0.7229
 3910SOL    HW216288   8.589  10.020   3.486 -0.9662  0.4358  0.3517
 3911SOL     OW16289  11.637   1.456   5.551  0.1306 -0.1979  0.6546
 3911SOL    HW116290  11.695   1.519   5.509  1.6793 -0.6550  2.0084
 3911SOL    HW216291  11.567   1.442   5.487 -0.2478  2.7778  0.2655
 3912SOL     OW16292  10.653   6.998   6.247 -0.5670  0.3831 -0.0854
 3912SOL    HW116293  10.636   6.914   6.290  0.8901  0.1222  0.0463
 3912SOL    HW216294  10.620   7.063   6.309  0.6477 -0.0232  1.0394
 3913SOL     OW16295  12.026   1.359   3.178 -0.3107  0.0947 -0.2986
 3913SOL    HW116296  12.060   1.447   3.164  2.0495 -0.7857 -0.4688
 3913SOL    HW216297  12.040   1.342   3.271 -1.7366  0.2385 -0.0279
 3914SOL     OW16298   1.352   1.238   7.192 -0.2108  0.0405 -0.2065
 3914SOL    HW116299   1.272   1.289   7.208 -0.9755 -1.3389  0.5713
 3914SOL    HW216300   1.398   1.286   7.123 -0.2981  2.3899  1.2988
 3915SOL     OW16301   0.300  11.467  11.167  0.1732 -0.2965  0.5577
 3915SOL    HW116302   0.213  11.508  11.161  0.1827 -0.2343  0.8288
 3915SOL    HW216303   0.342  11.490  11.085 -0.1423 -0.4997  0.3376
 3916SOL     OW16304   2.809   8.959   3.115 -0.2124  0.5862  0.4200
 3916SOL    HW116305   2.837   9.047   3.140 -1.5008  1.0023  0.4522
 3916SOL    HW216306   2.785   8.966   3.022  0.6801  0.0057  0.1293
 3917SOL     OW16307   9.934   2.821   2.314  0.6148  0.6739  0.1492
 3917SOL    HW116308  10.016   2.782   2.283  0.3980  1.6173 -1.7665
 3917SOL    HW216309   9.867   2.759   2.289  0.6462  0.2491  1.0647
 3918SOL     OW16310   0.601   2.108   8.816  0.2793 -0.2646 -0.7279
 3918SOL    HW116311   0.653   2.105   8.735  0.7404  0.0787 -0.4497
 3918SOL    HW216312   0.534   2.041   8.804  1.7257 -1.8349 -0.4638
 3919SOL     OW16313  10.503  10.926   9.619  0.1855  0.0036 -0.3497
 3919SOL    HW116314  10.572  10.880   9.668  0.5135 -0.6987 -1.4322
 3919SOL    HW216315  10.422  10.886   9.650  0.3103  0.2840  0.3606
 3920SOL     OW16316   1.152   2.614   2.380 -0.1350 -0.1073  0.0326
 3920SOL    HW116317   1.247   2.609   2.365  0.2205 -0.9028  2.2522
 3920SOL    HW216318   1.144   2.652   2.467 -1.7387 -2.6588  1.1046
 3921SOL     OW16319   2.655  11.090   2.322 -0.0675  0.1815 -0.4460
 3921SOL    HW116320   2.710  11.157   2.282  0.2813  0.7575  0.9386
 3921SOL    HW216321   2.703  11.008   2.308 -0.7214  0.1031 -2.5565
 3922SOL     OW16322   9.519  11.694   2.445 -0.2641  0.1792  0.1502
 3922SOL    HW116323   9.593  11.670   2.501  1.0810  2.5759 -0.4683
 3922SOL    HW216324   9.518  11.790   2.445 -4.3101  0.3612  1.2796
 3923SOL     OW16325   4.853  10.970   6.450  0.1121 -0.1407  0.5636
 3923SOL    HW116326   4.932  10.952   6.501  0.3357  1.3598  0.7820
 3923SOL    HW216327   4.885  10.981   6.360  0.1242  0.2134  0.6101
 3924SOL     OW16328   1.683  11.212   1.017  0.0362 -0.4211  0.3825
 3924SOL    HW116329   1.668  11.262   0.936  1.5368 -0.4865  0.0403
 3924SOL    HW216330   1.718  11.276   1.078 -0.4264 -0.5294  0.7696
 3925SOL     OW16331   1.336   9.714   4.930  0.4038 -0.1149 -0.9610
 3925SOL    HW116332   1.413   9.679   4.976 -1.0024  0.6584  2.2383
 3925SOL    HW216333   1.288   9.637   4.902  2.1185 -0.6114 -2.7520
 3926SOL     OW16334   1.112   5.819   0.882 -0.2909 -0.1303 -0.3340
 3926SOL    HW116335   1.043   5.833   0.947  2.5316  0.6041  2.8058
 3926SOL    HW216336   1.090   5.878   0.810 -1.5220  2.2127  1.8110
 3927SOL     OW16337  11.981   1.652   7.437 -0.2708  0.6153 -0.0293
 3927SOL    HW116338  12.037   1.677   7.511  0.9809  0.7979 -1.0053
 3927SOL    HW216339  12.041   1.619   7.371 -1.3375  0.6797 -1.0751
 3928SOL     OW16340   3.330   1.591  11.739 -0.3337 -0.3825 -0.7132
 3928SOL    HW116341   3.245   1.560  11.767  0.2821 -2.2353 -0.7958
 3928SOL    HW216342   3.344   1.552  11.653  0.6923 -0.3252 -0.5927
 3929SOL     OW16343   6.162   5.144   5.133 -0.0952 -0.3803 -0.5478
 3929SOL    HW116344   6.154   5.124   5.226 -1.1420  0.2644 -0.4764
 3929SOL    HW216345   6.145   5.239   5.127 -2.0400 -0.7267 -1.5702
 3930SOL     OW16346   4.689   0.637   3.925 -0.0106  0.0864  0.0467
 3930SOL    HW116347   4.653   0.649   3.837 -1.2430  0.6458  0.6056
 3930SOL    HW216348   4.779   0.608   3.910 -0.3539 -0.3260 -1.3947
 3931SOL     OW16349   1.448   2.851   8.073 -0.0475  0.3520  0.0171
 3931SOL    HW116350   1.395   2.773   8.085  1.7028 -1.1443 -1.4390
 3931SOL    HW216351   1.461   2.884   8.162  0.9715 -2.2968  0.9459
 3932SOL     OW16352   6.412   9.238   3.585  0.2161 -0.0957 -0.0802
 3932SOL    HW116353   6.463   9.172   3.539 -0.1033 -0.9396  0.7445
 3932SOL    HW216354   6.468   9.265   3.659  0.8282  1.4226 -1.0391
 3933SOL     OW16355   1.353   7.149  10.922 -0.2848  0.0981 -0.1727
 3933SOL    HW116356   1.260   7.174  10.925 -0.9820 -2.2672  0.0765
 3933SOL    HW216357   1.366   7.115  10.834  0.9248  2.2538 -0.8819
 3934SOL     OW16358   1.110   1.736   4.799  0.2454  0.1890 -0.1694
 3934SOL    HW116359   1.030   1.717   4.751 -1.5800  1.4733  2.1405
 3934SOL    HW216360   1.121   1.662   4.858 -0.4549  0.9236  0.9261
 3935SOL     OW16361   4.816   9.647   6.194 -0.3760  0.1899 -0.4820
 3935SOL    HW116362   4.827   9.687   6.108  0.1596 -0.1478 -0.5787
 3935SOL    HW216363   4.875   9.572   6.193 -1.6639 -0.8684 -0.4742
 3936SOL     OW16364  10.539   8.692   5.949 -0.6437  0.1363  0.7650
 3936SOL    HW116365  10.501   8.772   5.986 -1.4464 -0.6816  1.7589
 3936SOL    HW216366  10.546   8.632   6.023  0.1159 -0.6688  0.0695
 3937SOL     OW16367   0.060   7.763  11.538 -0.5033 -0.1291 -0.2300
 3937SOL    HW116368   0.058   7.684  11.592 -0.2110  0.0836  0.0986
 3937SOL    HW216369   0.106   7.738  11.459 -1.2444 -0.5416 -0.5438
 3938SOL     OW16370   2.887   3.547  11.937 -0.6915  0.2660 -0.4628
 3938SOL    HW116371   2.816   3.609  11.954 -1.9439 -0.7095 -1.8404
 3938SOL    HW216372   2.923   3.575  11.853 -0.0554  0.1844 -0.2213
 3939SOL     OW16373   3.206  10.040   6.549 -0.7274  0.3212 -0.2343
 3939SOL    HW116374   3.165  10.062   6.465  1.0464 -0.7299 -1.4503
 3939SOL    HW216375   3.170   9.954   6.571 -1.0363  0.5043 -0.0205
 3940SOL     OW16376   1.695   2.152   9.661  0.0072 -0.3784 -0.1418
 3940SOL    HW116377   1.637   2.116   9.728 -1.0601  0.6130 -0.4926
 3940SOL    HW216378   1.635   2.183   9.593  0.9901  0.2063 -0.7510
 3941SOL     OW16379   9.653   7.306   9.085  0.0195 -0.3998  0.5778
 3941SOL    HW116380   9.605   7.366   9.029 -0.8910 -1.3087  0.3543
 3941SOL    HW216381   9.689   7.360   9.155  1.0765  0.7467 -0.7915
 3942SOL     OW16382   0.401   3.776   2.801  0.2380 -0.1631 -0.1220
 3942SOL    HW116383   0.413   3.775   2.706  2.1343 -0.2936  0.0659
 3942SOL    HW216384   0.372   3.687   2.823 -1.9672  0.3535 -0.7120
 3943SOL     OW16385  11.633   9.138   8.968  0.1618  0.5241 -0.1467
 3943SOL    HW116386  11.695   9.203   8.936 -0.4297  1.0250 -0.2893
 3943SOL    HW216387  11.667   9.112   9.054  0.8905  0.3477 -0.4834
 3944SOL     OW16388   1.791  11.637   5.816 -0.1656 -0.4359  0.0177
 3944SOL    HW116389   1.723  11.569   5.815  0.0147 -0.6276 -1.4967
 3944SOL    HW216390   1.742  11.719   5.828 -0.7877 -0.5065 -1.6917
 3945SOL     OW16391   1.400  11.154  11.809 -0.3839 -0.2348 -0.1912
 3945SOL    HW116392   1.361  11.205  11.881  1.2036  0.4525  0.2313
 3945SOL    HW216393   1.490  11.186  11.803 -0.2632 -0.7963 -2.0305
 3946SOL     OW16394   4.963  10.155   4.663 -0.1281  0.0162 -0.2809
 3946SOL    HW116395   4.978  10.186   4.574 -0.3799 -0.4533 -0.4939
 3946SOL    HW216396   4.968  10.233   4.717 -0.7752  0.4380 -0.8055
 3947SOL     OW16397   2.647  10.099   3.630  0.0658 -0.2760 -0.2966
 3947SOL    HW116398   2.717  10.037   3.647  0.3264  0.1517  0.2410
 3947SOL    HW216399   2.630  10.141   3.715  0.0994  0.5896 -0.7009
 3948SOL     OW16400   3.750   2.993   3.001  0.1934  0.0536 -0.3242
 3948SOL    HW116401   3.799   2.925   3.047  0.9771  0.0003 -1.2034
 3948SOL    HW216402   3.700   2.946   2.934 -0.5628  0.1794  0.1450
 3949SOL     OW16403   9.689   0.412   0.967 -0.1373  0.2017 -0.8110
 3949SOL    HW116404   9.716   0.377   1.052  0.5160  0.5025 -0.8955
 3949SOL    HW216405   9.769   0.419   0.916  0.1239  3.6421 -0.1538
 3950SOL     OW16406  10.743   3.558  10.431 -0.3594  0.4216 -0.1173
 3950SOL    HW116407  10.662   3.588  10.471 -0.1476  0.5634  0.2031
 3950SOL    HW216408  10.768   3.480  10.481 -0.3483  0.3218 -0.2756
 3951SOL     OW16409   7.025   1.012   9.210 -0.3254 -0.0522 -0.1822
 3951SOL    HW116410   7.079   1.052   9.141 -1.8297 -0.6173 -1.7744
 3951SOL    HW216411   6.965   1.082   9.235  0.1883  0.1357  0.5610
 3952SOL     OW16412   9.895   2.936   4.891  0.0216  0.4535 -0.4985
 3952SOL    HW116413   9.923   2.997   4.822 -0.1183  0.3597 -0.6400
 3952SOL    HW216414   9.949   2.958   4.966  0.5428  0.2124 -0.7959
 3953SOL     OW16415   4.461   1.619   0.392  0.1138  0.3936  0.2856
 3953SOL    HW116416   4.509   1.593   0.314  0.6708  0.1140  0.7109
 3953SOL    HW216417   4.527   1.620   0.461 -0.5512 -0.3315  0.9579
 3954SOL     OW16418   2.922   4.559   3.762 -0.2346 -0.1027 -0.4391
 3954SOL    HW116419   2.864   4.582   3.690  1.3293  1.6273 -1.2176
 3954SOL    HW216420   2.886   4.605   3.838 -0.4141  0.1878 -0.7027
 3955SOL     OW16421  11.586   1.936   4.734 -0.0184 -0.4697 -0.5344
 3955SOL    HW116422  11.636   1.926   4.815  1.0040  0.1440 -1.0729
 3955SOL    HW216423  11.651   1.929   4.664 -0.4365  1.6102 -1.2191
 3956SOL     OW16424   3.431   3.711   9.940 -0.1009 -0.1250 -0.2756
 3956SOL    HW116425   3.342   3.738   9.963  0.0102 -0.5804  0.7534
 3956SOL    HW216426   3.433   3.617   9.955  1.6476  0.3334  3.9169
 3957SOL     OW16427   2.767   5.122   4.118  0.0952  0.2795  0.2644
 3957SOL    HW116428   2.795   5.032   4.104  1.5830  1.0019 -1.8325
 3957SOL    HW216429   2.761   5.131   4.213  2.2563 -1.3548  0.6292
 3958SOL     OW16430   5.442   5.380   7.196 -0.0257  0.0204  0.0536
 3958SOL    HW116431   5.374   5.414   7.254  0.9455  1.4780  0.3970
 3958SOL    HW216432   5.446   5.443   7.124 -0.1844 -0.9687 -0.8435
 3959SOL     OW16433   5.599   2.209   9.777  0.0152  0.2765  0.2699
 3959SOL    HW116434   5.610   2.131   9.723 -0.8134  0.7625 -0.6261
 3959SOL    HW216435   5.672   2.266   9.753 -0.6213  0.7003 -0.7424
 3960SOL     OW16436   6.732   2.958   1.529  0.0618  0.1888  0.0564
 3960SOL    HW116437   6.791   2.885   1.547  1.2282  1.3221  0.9994
 3960SOL    HW216438   6.645   2.926   1.552  0.1974 -1.6731 -1.7936
 3961SOL     OW16439  10.450   2.814  10.723 -0.1038 -0.3875 -0.2252
 3961SOL    HW116440  10.411   2.819  10.811 -1.2490  2.0596 -0.7743
 3961SOL    HW216441  10.398   2.749  10.677 -0.7867 -0.2371  0.3188
 3962SOL     OW16442   8.649   7.554   6.709 -0.5461  0.1183  0.1381
 3962SOL    HW116443   8.614   7.531   6.623  0.5643 -0.4165 -0.1897
 3962SOL    HW216444   8.741   7.575   6.692 -0.3135  0.0009  1.1960
 3963SOL     OW16445   4.196   3.031   3.180  0.3113  0.3516  0.0022
 3963SOL    HW116446   4.264   2.998   3.121  0.0956 -0.0391 -0.0346
 3963SOL    HW216447   4.196   3.125   3.166 -1.1477  0.0956 -2.1875
 3964SOL     OW16448   2.754   9.597   2.825  0.1011 -0.4171  0.0579
 3964SOL    HW116449   2.759   9.527   2.890  0.7759 -1.2265 -0.8332
 3964SOL    HW216450   2.661   9.607   2.807 -0.1615  0.2417  1.5644
 3965SOL     OW16451   9.843   5.734  11.829 -0.2877 -0.4605  0.2020
 3965SOL    HW116452   9.762   5.692  11.858  0.0526 -0.4012  1.2767
 3965SOL    HW216453   9.858   5.699  11.741 -1.1211 -0.9791  0.2541
 3966SOL     OW16454   2.636  10.823   5.743  0.6824  0.3583  0.1528
 3966SOL    HW116455   2.630  10.918   5.750  0.2542  0.3337  0.1291
 3966SOL    HW216456   2.548  10.795   5.718  1.4818  0.2250 -2.9315
 3967SOL     OW16457   0.839   2.108   9.767  0.1085  0.3570 -0.0198
 3967SOL    HW116458   0.750   2.126   9.737 -0.1463  1.8783  1.4264
 3967SOL    HW216459   0.888   2.187   9.744  0.7288  0.1201  0.4524
 3968SOL     OW16460   1.218   4.275  10.263  0.5375 -0.0434 -0.4222
 3968SOL    HW116461   1.178   4.193  10.233 -0.2080 -0.2680  1.0397
 3968SOL    HW216462   1.178   4.343  10.208  0.9609 -0.6254 -1.4712
 3969SOL     OW16463   3.186  10.530   2.759  0.3197  0.1613  0.7934
 3969SOL    HW116464   3.120  10.597   2.742 -0.1621 -0.5763 -0.3235
 3969SOL    HW216465   3.176  10.509   2.851 -0.5135  0.5748  0.8040
 3970SOL     OW16466   4.699   8.294  10.877  0.2016  0.1877 -0.1732
 3970SOL    HW116467   4.753   8.220  10.850 -0.8138 -1.0255  0.9569
 3970SOL    HW216468   4.703   8.293  10.973  0.4175  1.8078 -0.1388
 3971SOL     OW16469   8.429   0.302  10.297  0.6611 -0.2999  0.1758
 3971SOL    HW116470   8.447   0.386  10.339 -1.6895 -0.6936  2.1963
 3971SOL    HW216471   8.457   0.236  10.360 -0.1573 -0.9800 -0.1423
 3972SOL     OW16472   5.071   7.845   8.321  1.1426 -0.0028  0.1969
 3972SOL    HW116473   5.146   7.813   8.271 -0.6590 -2.1417 -1.3855
 3972SOL    HW216474   5.001   7.853   8.256 -0.8137 -1.0557  2.0135
 3973SOL     OW16475   5.659  11.458  11.367  0.5567  0.3978  0.3118
 3973SOL    HW116476   5.602  11.532  11.346  1.1941  0.9842  0.5869
 3973SOL    HW216477   5.728  11.496  11.422  0.6414 -0.4956  0.8441
 3974SOL     OW16478   7.698   0.141   8.048  0.2275  0.3267 -0.4249
 3974SOL    HW116479   7.619   0.089   8.034  0.2186  0.1603  0.1870
 3974SOL    HW216480   7.697   0.161   8.142  3.0442 -3.3181  0.6478
 3975SOL     OW16481   3.227   2.788   1.096 -0.1370  0.4565  0.1111
 3975SOL    HW116482   3.280   2.758   1.170  0.2402  1.2074  0.1578
 3975SOL    HW216483   3.156   2.839   1.135  0.2156  1.0821 -0.0497
 3976SOL     OW16484   5.234   5.106   2.696 -0.1613 -0.1953  0.0582
 3976SOL    HW116485   5.224   5.044   2.768  1.3535 -1.6429 -0.9217
 3976SOL    HW216486   5.163   5.084   2.635  0.4767 -1.1436 -0.3717
 3977SOL     OW16487   5.848   9.723  11.983 -0.0363 -0.0904  0.0234
 3977SOL    HW116488   5.919   9.737  11.921  1.0588  0.4348  1.3609
 3977SOL    HW216489   5.779   9.681  11.931 -0.1741  2.5908 -2.1569
 3978SOL     OW16490   5.139   4.403   3.827 -0.4849  0.2151 -0.5208
 3978SOL    HW116491   5.215   4.404   3.885  0.1297 -0.1382 -1.3056
 3978SOL    HW216492   5.175   4.385   3.740 -1.2942  1.5435 -1.1553
 3979SOL     OW16493   8.070   0.909   9.970  0.0996 -0.0130  0.2890
 3979SOL    HW116494   7.981   0.884   9.946 -0.6852  1.9968  0.8904
 3979SOL    HW216495   8.103   0.836  10.021 -1.9816  0.0482  1.8359
 3980SOL     OW16496   5.716   0.783   1.724  0.0651  0.2510  0.2484
 3980SOL    HW116497   5.804   0.774   1.761  0.9952  0.4905 -1.7642
 3980SOL    HW216498   5.724   0.853   1.659 -1.1291 -0.9576 -1.2783
 3981SOL     OW16499   0.377   0.157   9.426  0.2190  0.2765 -0.2476
 3981SOL    HW116500   0.286   0.160   9.396  0.6793 -0.7112 -1.8443
 3981SOL    HW216501   0.414   0.241   9.399 -0.6799  1.5984  2.2362
 3982SOL     OW16502   9.628  11.064  10.604 -0.2888 -0.1914 -0.4133
 3982SOL    HW116503   9.636  11.091  10.513  0.5989 -1.1720 -0.6403
 3982SOL    HW216504   9.534  11.068  10.622 -0.3008  2.1476 -0.6784
 3983SOL     OW16505   1.712   5.151   6.919  0.0600  0.3653 -0.1029
 3983SOL    HW116506   1.776   5.099   6.871  0.3740 -0.1816  0.8815
 3983SOL    HW216507   1.684   5.218   6.857 -0.0391 -0.7076 -1.2630
 3984SOL     OW16508   8.675   2.599   7.048  0.2135 -0.0487 -0.0384
 3984SOL    HW116509   8.670   2.628   6.957  0.1330  1.5008  0.4237
 3984SOL    HW216510   8.584   2.592   7.077  0.2475  0.1948  0.1341
 3985SOL     OW16511   3.002  11.130   4.116  0.5179  0.4234  0.1976
 3985SOL    HW116512   2.936  11.184   4.072  0.0905  0.7529  1.2280
 3985SOL    HW216513   3.018  11.174   4.199  2.2531  0.5071 -0.1355
 3986SOL     OW16514  11.627   9.485   6.060 -0.1668 -0.0564  0.5622
 3986SOL    HW116515  11.682   9.519   5.990 -0.0342  0.2640  0.8164
 3986SOL    HW216516  11.689   9.456   6.127 -0.2840 -0.7037  0.3890
 3987SOL     OW16517   5.180  11.022   5.859  0.0175 -0.1849 -0.1507
 3987SOL    HW116518   5.119  10.951   5.837 -0.2373  0.0566 -0.2306
 3987SOL    HW216519   5.124  11.098   5.874  0.3347  0.2282 -0.9637
 3988SOL     OW16520   3.741   7.014  10.039 -0.4941  0.1417  0.4244
 3988SOL    HW116521   3.719   7.103  10.067 -0.9169 -0.2404  1.3682
 3988SOL    HW216522   3.679   6.995   9.969  0.1048  0.8546 -0.3277
 3989SOL     OW16523   0.115  10.200  10.345 -0.0337 -0.1742 -0.4843
 3989SOL    HW116524   0.185  10.163  10.291 -0.1760 -0.9245 -0.1662
 3989SOL    HW216525   0.043  10.138  10.336  0.1033 -0.5708  0.9569
 3990SOL     OW16526  11.365   3.523  10.935 -0.6518  0.7828  0.3061
 3990SOL    HW116527  11.314   3.591  10.891  0.3744 -0.5597 -3.3751
 3990SOL    HW216528  11.449   3.565  10.954  0.3380  0.4846 -2.8328
 3991SOL     OW16529   3.953   4.902   3.357 -0.0765  0.4915 -0.4058
 3991SOL    HW116530   3.876   4.850   3.333 -0.0245  0.7960 -1.2713
 3991SOL    HW216531   3.952   4.976   3.297  0.3853  0.9905  0.1857
 3992SOL     OW16532   3.774   7.917   4.075 -0.3235  0.1301  0.5691
 3992SOL    HW116533   3.831   7.840   4.076  1.5058  1.3537 -0.8808
 3992SOL    HW216534   3.690   7.886   4.109  1.1277 -1.8201  2.6712
 3993SOL     OW16535  11.984   2.858  10.969 -0.3081  0.3846 -0.3650
 3993SOL    HW116536  11.962   2.863  11.062 -0.9223  1.2505 -0.5434
 3993SOL    HW216537  12.018   2.769  10.957 -1.5410 -0.2233  0.4113
 3994SOL     OW16538   8.986   9.531   8.707 -0.4737  0.4214  0.1288
 3994SOL    HW116539   8.959   9.442   8.686 -1.5828  0.8481 -0.3210
 3994SOL    HW216540   9.015   9.568   8.624 -1.5002  0.9662 -0.0099
 3995SOL     OW16541   8.569   3.579  12.017 -0.0510  0.1456 -0.0044
 3995SOL    HW116542   8.595   3.508  12.076 -0.4983 -1.8977 -2.1253
 3995SOL    HW216543   8.476   3.566  12.002 -0.5154  2.1837  0.7644
 3996SOL     OW16544   2.311   9.540   6.627 -0.0973  0.1762  0.1865
 3996SOL    HW116545   2.335   9.632   6.636 -0.7424  0.3549  0.1246
 3996SOL    HW216546   2.242   9.540   6.560  1.4267 -0.6024 -1.4616
 3997SOL     OW16547   9.319  11.785   8.447  0.6271 -0.0116  0.9803
 3997SOL    HW116548   9.307  11.875   8.417 -1.4922 -0.9400 -1.2843
 3997SOL    HW216549   9.268  11.779   8.528 -2.3615 -0.0026 -0.7603
 3998SOL     OW16550  10.814   5.167   1.038  0.3827 -0.2639 -0.0562
 3998SOL    HW116551  10.730   5.212   1.052  1.6498  1.8925  1.1640
 3998SOL    HW216552  10.842   5.141   1.126  0.6835 -1.6315 -0.5361
 3999SOL     OW16553   5.225   8.203   6.340  0.2291  0.1044  0.3660
 3999SOL    HW116554   5.263   8.291   6.346  0.1878  0.3112 -1.6391
 3999SOL    HW216555   5.298   8.144   6.356  0.4957  0.5166  0.6690
 4000SOL     OW16556   8.762   7.252   7.746  0.0831  0.0711 -0.4963
 4000SOL    HW116557   8.714   7.202   7.681 -0.6496  0.8527 -0.5719
 4000SOL    HW216558   8.844   7.277   7.702  0.8805 -1.7951 -0.1552
 4001SOL     OW16559   2.656  10.341   6.640 -0.4144 -0.0001  0.4420
 4001SOL    HW116560   2.579  10.395   6.655  0.4829  0.6986  3.1259
 4001SOL    HW216561   2.650  10.315   6.548 -3.0772  1.1665  0.2025
 4002SOL     OW16562   7.021  11.912   6.944  0.0905 -0.2390 -0.3555
 4002SOL    HW116563   7.046  11.834   6.995 -0.1148  0.1039  0.2818
 4002SOL    HW216564   7.061  11.985   6.992 -0.3087  0.1104 -0.5562
 4003SOL     OW16565  10.476   9.945   2.551  0.0248  0.1715  0.0794
 4003SOL    HW116566  10.433   9.991   2.623  0.1021  1.0233 -0.3978
 4003SOL    HW216567  10.505  10.015   2.493  1.0623 -0.4365 -0.1628
 4004SOL     OW16568   1.003   2.480   9.696  0.3230  0.2794  0.1368
 4004SOL    HW116569   1.031   2.525   9.775 -1.2553  1.0025  0.3314
 4004SOL    HW216570   1.068   2.411   9.683 -0.9232 -1.8719  3.8064
 4005SOL     OW16571   9.829   1.444   5.746  0.2430 -0.1139 -0.6536
 4005SOL    HW116572   9.822   1.480   5.834  0.0525 -2.4093  0.3462
 4005SOL    HW216573   9.740   1.415   5.725  0.6780 -1.4570 -0.7250
 4006SOL     OW16574   3.449   3.808  11.267 -0.5903 -0.4174 -0.7951
 4006SOL    HW116575   3.419   3.718  11.261 -2.4675  0.0930  0.0120
 4006SOL    HW216576   3.371   3.861  11.246  0.2373  1.0042 -0.4392
 4007SOL     OW16577  11.538   2.378   1.967  0.4226  0.6582  0.3195
 4007SOL    HW116578  11.605   2.406   1.905 -0.3217  2.3231  0.2062
 4007SOL    HW216579  11.580   2.386   2.053  0.6181  0.9105  0.2008
 4008SOL     OW16580  11.362   8.204   6.183 -0.2162  0.5028  0.8399
 4008SOL    HW116581  11.381   8.157   6.102  0.0077  2.1145 -0.0798
 4008SOL    HW216582  11.295   8.151   6.226  0.3517 -0.8868  0.0929
 4009SOL     OW16583   1.261   8.670   6.106 -0.3257  0.4166 -0.3111
 4009SOL    HW116584   1.284   8.586   6.067  0.6739  0.9204 -0.8642
 4009SOL    HW216585   1.168   8.680   6.089 -0.3359 -0.3197 -0.7362
 4010SOL     OW16586  11.040  12.088   3.256  0.4460 -0.0542 -0.7308
 4010SOL    HW116587  10.953  12.084   3.295  1.2355  0.2072  1.1547
 4010SOL    HW216588  11.044  12.011   3.198 -0.9421 -0.1879 -0.6785
 4011SOL     OW16589   6.588   6.277   5.244  0.6895 -0.1491 -0.0764
 4011SOL    HW116590   6.630   6.289   5.159  1.6592 -0.0459  0.4033
 4011SOL    HW216591   6.620   6.192   5.275 -0.8614 -0.9212 -0.4732
 4012SOL     OW16592   9.562   2.773   0.395  0.0481  0.0178  0.2101
 4012SOL    HW116593   9.578   2.841   0.461 -1.0459 -1.0379  1.6060
 4012SOL    HW216594   9.559   2.692   0.445  0.9651 -1.0486 -1.3895
 4013SOL     OW16595   4.674   6.319   8.645  0.6844  0.1213  0.4148
 4013SOL    HW116596   4.745   6.373   8.680  1.6568 -0.3848 -0.6823
 4013SOL    HW216597   4.639   6.369   8.571  1.9956 -0.9255 -0.9944
 4014SOL     OW16598   1.994  10.642  11.003 -0.1838 -0.1430  0.3826
 4014SOL    HW116599   1.981  10.549  10.982  0.1758 -0.5632  1.9481
 4014SOL    HW216600   1.968  10.687  10.923 -4.2171 -1.3255  0.7995
 4015SOL     OW16601   4.156   4.270  10.612 -0.2552 -0.4116  0.3919
 4015SOL    HW116602   4.214   4.196  10.630  0.3451  0.1038  0.6012
 4015SOL    HW216603   4.083   4.258  10.672  0.9976  0.4577  2.1873
 4016SOL     OW16604   5.758  11.601   4.982  0.2005 -0.2347  0.0598
 4016SOL    HW116605   5.783  11.602   5.074 -0.3178 -0.8779  0.2186
 4016SOL    HW216606   5.767  11.692   4.953 -0.1794  0.0755  0.8921
 4017SOL     OW16607   3.135   8.221   4.757  0.1342 -0.0698  0.3425
 4017SOL    HW116608   3.154   8.132   4.729 -0.3654 -0.3689  0.9270
 4017SOL    HW216609   3.040   8.230   4.747  0.0190  0.0046  1.3490
 4018SOL     OW16610   0.198   9.990  10.975 -0.2309 -0.4971  0.4427
 4018SOL    HW116611   0.198   9.918  10.913 -0.0861 -1.5574  1.6291
 4018SOL    HW216612   0.276   9.976  11.029 -1.2183 -0.5635  1.9138
 4019SOL     OW16613  10.975  11.489   3.888  0.0749  0.0970 -0.1655
 4019SOL    HW116614  11.012  11.565   3.845  0.2440 -0.4150 -0.9570
 4019SOL    HW216615  11.050  11.437   3.916 -0.0392  0.1876  0.3328
 4020SOL     OW16616  10.793   1.134   0.516 -0.1848  0.2730 -0.1042
 4020SOL    HW116617  10.722   1.085   0.473 -1.3541  1.5139  0.3517
 4020SOL    HW216618  10.822   1.196   0.449 -0.9757  1.1741  0.3583
 4021SOL     OW16619  11.322   5.662   7.500  0.0569  0.6636  0.0274
 4021SOL    HW116620  11.368   5.727   7.553  0.0623  0.6736  0.0105
 4021SOL    HW216621  11.248   5.634   7.554  0.9256 -0.4549  0.6745
 4022SOL     OW16622  11.900  10.177  12.085 -0.3272 -0.5749 -0.2462
 4022SOL    HW116623  11.962  10.237  12.043 -0.7325  0.5063  0.6527
 4022SOL    HW216624  11.820  10.229  12.097 -1.0553 -1.6191 -0.3962
 4023SOL     OW16625   4.754   4.886   3.094 -0.0403  0.3997 -0.6838
 4023SOL    HW116626   4.672   4.927   3.067  1.1112  1.8214 -2.2460
 4023SOL    HW216627   4.814   4.960   3.108  1.2195 -0.6388 -0.4210
 4024SOL     OW16628   9.360   5.880   9.069  0.0266 -0.1469 -0.0281
 4024SOL    HW116629   9.310   5.930   9.134  0.6267 -1.3477  1.4006
 4024SOL    HW216630   9.342   5.789   9.090  1.5941 -0.5867 -0.4613
 4025SOL     OW16631   1.201  11.786   9.957 -0.0152  0.0818 -0.2292
 4025SOL    HW116632   1.237  11.762   9.872 -0.3623 -1.6013  0.0692
 4025SOL    HW216633   1.146  11.712   9.982  0.3567  0.3749  1.6255
 4026SOL     OW16634   7.247   7.944   4.514 -0.0475 -0.5436 -0.5880
 4026SOL    HW116635   7.267   7.932   4.607 -0.6307 -0.7946 -0.4919
 4026SOL    HW216636   7.245   7.856   4.477  1.0056 -0.3958 -1.0210
 4027SOL     OW16637   6.881  11.888   2.206 -0.0507  0.2061 -0.0667
 4027SOL    HW116638   6.898  11.802   2.243  0.7491  0.1669 -0.4996
 4027SOL    HW216639   6.815  11.927   2.263  0.8363 -0.0154  1.1336
 4028SOL     OW16640  11.175   1.745   8.060  0.8975 -0.2630 -0.3682
 4028SOL    HW116641  11.180   1.839   8.075  2.5745 -0.0365 -1.9486
 4028SOL    HW216642  11.124   1.711   8.134  2.1871  1.5895  1.4742
 4029SOL     OW16643   9.839   6.829   6.747  0.4214 -0.2101 -0.1275
 4029SOL    HW116644   9.818   6.741   6.776 -1.7464  0.6929  1.3165
 4029SOL    HW216645   9.838   6.882   6.827  0.3466  1.3309 -1.0966
 4030SOL     OW16646   9.971  11.858   1.216 -0.1488 -0.0195  0.2231
 4030SOL    HW116647   9.969  11.948   1.185 -0.5131 -0.0075  0.2726
 4030SOL    HW216648   9.947  11.805   1.140  1.2959 -0.1801 -0.1447
 4031SOL     OW16649   3.448   0.948   6.337 -0.0912  0.9908  0.3490
 4031SOL    HW116650   3.450   0.852   6.345 -1.0366  1.0436  1.4959
 4031SOL    HW216651   3.515   0.968   6.271  0.3873 -0.4256  0.3704
 4032SOL     OW16652   9.150   1.843   5.643  0.2864 -0.4771 -0.1825
 4032SOL    HW116653   9.147   1.817   5.550  0.3133  0.9457 -0.6040
 4032SOL    HW216654   9.216   1.912   5.646  0.0552 -0.2914  0.8557
 4033SOL     OW16655   2.835   8.786   3.318 -0.1504  0.2036  0.0540
 4033SOL    HW116656   2.855   8.843   3.243 -0.0969 -1.2162 -1.0677
 4033SOL    HW216657   2.775   8.838   3.372 -0.9041  0.9639 -1.4341
 4034SOL     OW16658  10.005   2.446  10.385  0.0824  0.0391  0.5219
 4034SOL    HW116659  10.009   2.477  10.294  0.4920  2.6711  1.3727
 4034SOL    HW216660   9.932   2.495  10.423 -1.5075 -2.6048  1.1404
 4035SOL     OW16661   9.000   9.627  10.767 -0.0666 -0.3306 -0.1122
 4035SOL    HW116662   9.087   9.664  10.751  0.4059 -1.3607 -0.0583
 4035SOL    HW216663   8.996   9.616  10.862  0.1459 -1.1951 -0.1963
 4036SOL     OW16664   2.222   3.197   8.580  0.1539  0.6371  0.3173
 4036SOL    HW116665   2.251   3.176   8.669  1.8291  0.4060 -0.2548
 4036SOL    HW216666   2.179   3.117   8.549  2.0035 -0.2620 -0.0382
 4037SOL     OW16667   9.994   1.130   6.339  0.0263  0.3864 -0.6052
 4037SOL    HW116668   9.946   1.121   6.257  0.4884  0.0691 -0.8530
 4037SOL    HW216669   9.972   1.217   6.372 -0.2852  0.4520 -0.9887
 4038SOL     OW16670  10.445   6.573   6.531 -0.3085 -0.3940  0.3424
 4038SOL    HW116671  10.406   6.642   6.477  0.3479  0.6807  1.2040
 4038SOL    HW216672  10.403   6.581   6.616 -0.5333 -1.3539  0.3362
 4039SOL     OW16673   1.387   6.304   0.851 -0.0178  0.1720 -0.0303
 4039SOL    HW116674   1.368   6.331   0.762 -0.4553 -0.3906 -0.1076
 4039SOL    HW216675   1.378   6.209   0.851  1.4530  0.0015  0.2524
 4040SOL     OW16676   0.980   2.785  11.765 -0.2591 -0.2916 -0.3357
 4040SOL    HW116677   0.936   2.703  11.742 -0.1321 -0.6053  0.4924
 4040SOL    HW216678   0.963   2.796  11.858  1.1039 -0.2486 -0.0614
 4041SOL     OW16679   4.815  11.948   1.621  0.5239 -0.0526 -0.3814
 4041SOL    HW116680   4.720  11.957   1.619  0.5042 -0.3663 -1.2884
 4041SOL    HW216681   4.846  12.007   1.552  1.1799  2.0271  1.5537
 4042SOL     OW16682  11.788   9.922   3.852  0.0862 -0.0438 -0.6670
 4042SOL    HW116683  11.782   9.911   3.947  3.7177  1.8991 -0.0103
 4042SOL    HW216684  11.765  10.014   3.837 -1.1235 -0.5091 -1.8048
 4043SOL     OW16685  11.321  11.808   8.077 -0.1492 -0.2264  0.3855
 4043SOL    HW116686  11.395  11.775   8.128  0.3508  2.3353  1.4192
 4043SOL    HW216687  11.258  11.736   8.079  1.1867 -1.4447  1.7732
 4044SOL     OW16688   9.095  10.876   8.943  0.7019 -0.1303 -0.3731
 4044SOL    HW116689   9.038  10.801   8.927 -0.9397  0.4326  2.1300
 4044SOL    HW216690   9.181  10.847   8.916 -0.6600 -1.0266 -4.3771
 4045SOL     OW16691   0.694   3.510   4.428 -0.9037  0.1495 -0.4912
 4045SOL    HW116692   0.647   3.570   4.487 -0.9766  0.2049 -0.6036
 4045SOL    HW216693   0.627   3.481   4.366 -0.9182 -0.2198 -0.3060
 4046SOL     OW16694  11.208   1.310   2.438  0.0164 -0.2528  0.3051
 4046SOL    HW116695  11.159   1.229   2.423 -2.2054  1.0321  0.2103
 4046SOL    HW216696  11.262   1.291   2.515 -0.7479 -1.6967  0.5259
 4047SOL     OW16697   0.115   2.996   1.951  0.6974 -0.2214  0.5720
 4047SOL    HW116698   0.048   2.938   1.915  0.2962 -0.6833  2.0095
 4047SOL    HW216699   0.066   3.068   1.991  1.0986 -0.0267  0.7198
 4048SOL     OW16700   3.132   5.006   9.403  0.6093  0.3691  0.8100
 4048SOL    HW116701   3.182   5.086   9.420  1.3870 -0.0343  0.4710
 4048SOL    HW216702   3.041   5.034   9.405  0.8835  1.3529  0.3275
 4049SOL     OW16703   7.690   6.994   1.080 -0.1997  0.4130  0.2112
 4049SOL    HW116704   7.701   6.902   1.058  1.3258  0.8717 -1.1172
 4049SOL    HW216705   7.705   6.998   1.175 -1.3502 -0.8245  0.4800
 4050SOL     OW16706  10.225  11.838   2.442  0.5458 -0.2494  0.0398
 4050SOL    HW116707  10.221  11.830   2.537  1.7909 -0.0298  0.1273
 4050SOL    HW216708  10.138  11.871   2.417  0.3921  0.2429  1.1465
 4051SOL     OW16709   2.138  10.241   2.732  0.0577 -0.0519 -0.6733
 4051SOL    HW116710   2.151  10.255   2.826  0.4064 -0.5958 -0.6362
 4051SOL    HW216711   2.047  10.264   2.716 -0.0534 -0.1363 -0.1665
 4052SOL     OW16712   5.919   7.822   8.297 -0.3832  0.3940 -0.5189
 4052SOL    HW116713   5.863   7.797   8.371 -0.0195 -0.0096 -0.3753
 4052SOL    HW216714   5.961   7.740   8.271 -0.1614  0.6239 -0.8801
 4053SOL     OW16715   0.854   6.401   7.043  0.3979 -0.4932  0.3909
 4053SOL    HW116716   0.870   6.469   6.977  2.2876 -1.2324  0.0033
 4053SOL    HW216717   0.841   6.321   6.992 -2.1740 -0.4458  0.8238
 4054SOL     OW16718   2.076   7.961   5.347  0.2088 -0.2444 -0.1429
 4054SOL    HW116719   2.164   7.925   5.349  0.1669 -0.4534 -1.3531
 4054SOL    HW216720   2.046   7.946   5.257 -1.3773 -0.9616  0.4685
 4055SOL     OW16721   9.695   2.548   0.067  0.4388  0.6558 -0.1479
 4055SOL    HW116722   9.654   2.480   0.120 -0.4882  0.0091 -1.6295
 4055SOL    HW216723   9.665   2.630   0.105 -2.7555  0.2327 -1.4404
 4056SOL     OW16724   6.217   6.882  11.359 -0.1738 -0.0720 -0.3421
 4056SOL    HW116725   6.202   6.882  11.454  0.7866 -0.2709 -0.1815
 4056SOL    HW216726   6.138   6.842  11.322 -0.5529 -0.0030  0.3710
 4057SOL     OW16727   2.580   6.964   6.851  0.1601 -0.2154 -0.4834
 4057SOL    HW116728   2.623   7.047   6.870  1.6860 -1.0173 -0.2471
 4057SOL    HW216729   2.613   6.904   6.918  1.7861 -1.8537 -2.6058
 4058SOL     OW16730   7.899   3.996   1.412  0.0708  0.1975  0.0187
 4058SOL    HW116731   7.864   3.916   1.372  0.5946 -0.0531  0.0542
 4058SOL    HW216732   7.921   4.052   1.338 -0.6886  0.4830  0.0020
 4059SOL     OW16733  11.872   4.700   4.776 -0.1966 -0.0653 -0.1155
 4059SOL    HW116734  11.788   4.704   4.731 -0.5558  0.0929  0.5544
 4059SOL    HW216735  11.863   4.760   4.850  0.5545  0.0567 -0.1158
 4060SOL     OW16736   5.460   7.424   0.382  0.2297  0.4853 -0.2403
 4060SOL    HW116737   5.431   7.503   0.428  0.5671  0.8596 -0.6611
 4060SOL    HW216738   5.469   7.452   0.291 -0.9271 -0.3701 -0.6440
 4061SOL     OW16739   3.349   6.367   8.901 -0.3412 -0.2458 -0.2985
 4061SOL    HW116740   3.390   6.336   8.820 -1.1391 -0.0120 -0.8055
 4061SOL    HW216741   3.348   6.291   8.959 -0.2017 -0.5458 -0.6907
 4062SOL     OW16742   0.469   8.468  11.441 -0.0299  0.4485 -0.0095
 4062SOL    HW116743   0.559   8.474  11.474 -0.2392 -0.0616  0.6617
 4062SOL    HW216744   0.414   8.469  11.519 -0.4834 -1.7343 -0.2493
 4063SOL     OW16745   6.349   8.215   6.409  0.0102 -0.1831 -0.1167
 4063SOL    HW116746   6.394   8.132   6.392 -1.2839 -0.6229 -1.6686
 4063SOL    HW216747   6.383   8.243   6.494 -0.4481 -2.9522  1.1139
 4064SOL     OW16748   7.199  11.049   5.759 -0.2688  0.6867  0.2051
 4064SOL    HW116749   7.188  11.020   5.850  1.5172  1.4755  0.7298
 4064SOL    HW216750   7.191  10.970   5.707  2.1268 -0.4423  1.3878
 4065SOL     OW16751   9.867  11.679   5.265  0.5071  0.2310 -0.4463
 4065SOL    HW116752   9.780  11.716   5.256 -0.1874 -0.9791  0.8156
 4065SOL    HW216753   9.910  11.735   5.330  0.5092  0.5801 -0.7513
 4066SOL     OW16754   8.915   3.660   8.331 -1.1051 -0.2825 -0.2321
 4066SOL    HW116755   9.001   3.660   8.290 -1.3044  0.0429 -0.6495
 4066SOL    HW216756   8.865   3.595   8.282 -1.7281  0.9802 -1.3233
 4067SOL     OW16757  10.528  11.122   4.207 -0.6802 -0.2548  0.0459
 4067SOL    HW116758  10.583  11.088   4.278 -1.6786 -0.4394  0.7510
 4067SOL    HW216759  10.455  11.164   4.252 -0.5326  1.0205 -0.8555
 4068SOL     OW16760   7.137   0.372  12.090  0.4266 -0.0475 -0.4511
 4068SOL    HW116761   7.194   0.331  12.025  0.1150  0.7882 -1.2607
 4068SOL    HW216762   7.085   0.300  12.125  2.2060 -0.9130  0.5866
 4069SOL     OW16763   2.747   4.881   9.244 -0.4695  0.0399  0.1883
 4069SOL    HW116764   2.736   4.974   9.223  0.3233  0.1948  0.4032
 4069SOL    HW216765   2.841   4.871   9.259 -0.1780 -1.2652 -2.0423
 4070SOL     OW16766   9.199   1.539   0.137 -0.0607 -0.3991  0.0248
 4070SOL    HW116767   9.110   1.507   0.123 -0.3325  0.9301 -1.6218
 4070SOL    HW216768   9.255   1.473   0.095 -0.1413 -1.7268  1.8764
 4071SOL     OW16769   7.506   4.161  11.508 -0.8805  0.0809  0.4018
 4071SOL    HW116770   7.591   4.168  11.463 -1.6548  0.1735 -1.1388
 4071SOL    HW216771   7.522   4.103  11.582  0.8207  1.1521  0.9210
 4072SOL     OW16772   6.806   3.070  10.389 -0.1251  0.6175 -0.1159
 4072SOL    HW116773   6.752   3.137  10.347 -0.4272  1.0321  0.9151
 4072SOL    HW216774   6.743   3.014  10.435  0.2160  0.2527 -0.0882
 4073SOL     OW16775   0.098   3.925   2.294 -0.2502 -0.0121  0.4606
 4073SOL    HW116776   0.111   3.831   2.292 -0.5433 -0.1639  3.0196
 4073SOL    HW216777   0.167   3.958   2.352  1.7679  1.8000 -2.6268
 4074SOL     OW16778   2.095   0.979  11.409 -0.0445  0.3738 -0.2635
 4074SOL    HW116779   2.004   0.965  11.383 -0.0796  0.9327 -0.4654
 4074SOL    HW216780   2.092   0.983  11.504 -0.0702 -0.6430 -0.2117
 4075SOL     OW16781   6.948   0.916   6.842  0.2405 -0.5174  0.0773
 4075SOL    HW116782   6.944   0.859   6.765 -0.8661 -0.3793  0.0185
 4075SOL    HW216783   7.030   0.965   6.832 -0.3238  0.1540 -1.4830
 4076SOL     OW16784   7.594  11.316   9.186  0.5406  0.0163  0.2759
 4076SOL    HW116785   7.596  11.380   9.258  0.4619  1.0060 -0.5720
 4076SOL    HW216786   7.541  11.244   9.219 -0.5891  1.0298  0.7515
 4077SOL     OW16787  11.906   9.425   0.560 -0.5317  0.3951  0.3372
 4077SOL    HW116788  11.885   9.407   0.652 -0.0257 -0.7469  0.2456
 4077SOL    HW216789  11.963   9.501   0.562 -0.2114  0.1378  0.9967
 4078SOL     OW16790   2.463   5.210   2.991 -0.0513 -0.0423 -0.0645
 4078SOL    HW116791   2.445   5.229   3.083 -2.3074  0.8893 -0.6312
 4078SOL    HW216792   2.487   5.294   2.953  0.6168 -0.3770 -0.4078
 4079SOL     OW16793   5.957   3.875   5.395 -0.4228  0.3636 -0.1592
 4079SOL    HW116794   5.957   3.961   5.353  0.8703 -0.0255 -1.0319
 4079SOL    HW216795   6.014   3.886   5.471 -1.1073  0.5328  0.3417
 4080SOL     OW16796   5.400   9.893   6.207 -0.5039 -0.4327 -0.4479
 4080SOL    HW116797   5.451   9.892   6.126 -1.6104 -0.3320 -1.1601
 4080SOL    HW216798   5.407   9.803   6.240  0.6845 -0.2585 -0.1599
 4081SOL     OW16799   6.699  10.277   6.661 -0.5852 -0.0697  0.5391
 4081SOL    HW116800   6.650  10.334   6.602 -0.3853  0.0916  0.5279
 4081SOL    HW216801   6.682  10.312   6.749 -1.0753 -0.4545  0.5999
 4082SOL     OW16802   9.223   5.524   1.993 -0.0513 -0.0015 -0.1580
 4082SOL    HW116803   9.244   5.610   1.957 -1.4874  0.6249  0.4334
 4082SOL    HW216804   9.145   5.538   2.047 -1.5938 -2.0292 -1.6684
 4083SOL     OW16805   2.927  12.032   9.900  0.7804  0.1901  0.0316
 4083SOL    HW116806   2.842  12.020   9.858  0.2863  0.3064  0.9582
 4083SOL    HW216807   2.984  12.066   9.831 -0.2792  1.3916 -0.2895
 4084SOL     OW16808   3.356  11.208   5.105 -0.6057  0.8214 -0.2828
 4084SOL    HW116809   3.395  11.295   5.092  2.2601 -0.3583 -0.4295
 4084SOL    HW216810   3.331  11.207   5.197 -1.1098  1.9313 -0.3854
 4085SOL     OW16811  10.117   6.550  11.778  0.1026 -0.6628  0.2933
 4085SOL    HW116812  10.034   6.541  11.730 -0.5355  0.1117  1.2239
 4085SOL    HW216813  10.094   6.530  11.869  1.4099 -2.7057  0.2560
 4086SOL     OW16814   9.086   9.233   8.136  0.4491  0.0732  0.2158
 4086SOL    HW116815   8.992   9.249   8.134 -0.0438 -2.2005  1.8531
 4086SOL    HW216816   9.113   9.257   8.225  1.3811  0.4704 -0.1565
 4087SOL     OW16817   6.734   6.491  11.797  0.2470  0.1713  0.3081
 4087SOL    HW116818   6.802   6.554  11.774  1.5592 -0.8636  1.2073
 4087SOL    HW216819   6.663   6.545  11.834  0.7280  1.2324 -0.2692
 4088SOL     OW16820   8.194   6.905   0.143  0.1211  0.2241 -0.2434
 4088SOL    HW116821   8.237   6.834   0.191 -0.1926 -0.0699 -0.3997
 4088SOL    HW216822   8.141   6.949   0.209 -2.8314 -2.0874 -0.8658
 4089SOL     OW16823   6.441   5.012   5.966  0.2581 -0.0187  0.0244
 4089SOL    HW116824   6.382   5.064   5.911  0.5894 -0.1171 -0.4282
 4089SOL    HW216825   6.526   5.022   5.925  0.3812 -0.6634  0.1235
 4090SOL     OW16826   8.090  11.624   3.338  0.3737  0.1166 -0.0291
 4090SOL    HW116827   8.142  11.544   3.343  1.1359  0.6504  1.0745
 4090SOL    HW216828   8.050  11.632   3.425 -0.1998  0.5901 -0.3332
 4091SOL     OW16829  10.901  10.144  10.821  0.3389  0.0377  0.0819
 4091SOL    HW116830  10.915  10.049  10.819  0.6926  0.0967 -0.3492
 4091SOL    HW216831  10.986  10.181  10.800 -0.3370  0.4044 -2.3846
 4092SOL     OW16832   2.182   4.796   5.443 -0.0775  0.4779  0.1090
 4092SOL    HW116833   2.255   4.837   5.489 -1.4440  2.0560  1.0090
 4092SOL    HW216834   2.189   4.703   5.464  1.6987  0.5808  0.0898
 4093SOL     OW16835   4.320   9.142   0.879 -0.1184  0.0355 -0.9066
 4093SOL    HW116836   4.413   9.149   0.900 -0.1105  0.7566 -1.1309
 4093SOL    HW216837   4.286   9.230   0.894 -1.2523 -0.7299  1.3602
 4094SOL     OW16838   1.874   3.122   5.403 -0.3132 -0.9671 -0.4500
 4094SOL    HW116839   1.959   3.120   5.359  1.5815  0.1539  2.7951
 4094SOL    HW216840   1.866   3.036   5.445  0.4869 -0.2752  1.2310
 4095SOL     OW16841   9.526   6.451  12.064 -0.0025 -0.2067 -0.2122
 4095SOL    HW116842   9.555   6.410  11.983 -1.1712 -0.5747 -0.4580
 4095SOL    HW216843   9.438   6.417  12.078 -0.5374  1.2921  0.2224
 4096SOL     OW16844  11.740   1.685  10.860 -0.0993 -0.0213 -0.3171
 4096SOL    HW116845  11.706   1.597  10.843  1.0002 -0.5715  0.2175
 4096SOL    HW216846  11.691   1.742  10.800  0.2326 -1.2061 -1.7752
 4097SOL     OW16847   0.310  10.241   9.076 -0.1016 -0.3856  0.0152
 4097SOL    HW116848   0.258  10.171   9.116 -1.0833  0.0152 -0.5240
 4097SOL    HW216849   0.245  10.299   9.035  0.7305  0.5407 -0.0223
 4098SOL     OW16850  11.573   0.467   1.126  0.1035  0.2865  0.0388
 4098SOL    HW116851  11.596   0.376   1.104  0.1520  0.2721  0.1463
 4098SOL    HW216852  11.538   0.462   1.215 -0.9466  0.2140 -0.3678
 4099SOL     OW16853   0.229   9.424   3.275 -0.1497 -0.0239  0.3704
 4099SOL    HW116854   0.241   9.364   3.201  1.7941 -0.5480  1.0506
 4099SOL    HW216855   0.151   9.392   3.319 -1.0087 -0.0604 -1.0910
 4100SOL     OW16856   9.772   5.100   2.430  0.9449 -0.4950 -0.0210
 4100SOL    HW116857   9.713   5.147   2.489  0.1895 -0.9004 -0.4231
 4100SOL    HW216858   9.857   5.104   2.472  0.1177 -2.2593  1.9839
 4101SOL     OW16859   7.076   8.138   7.503 -0.4620  0.1265 -0.2461
 4101SOL    HW116860   7.059   8.072   7.437 -0.5706  0.4691 -0.5655
 4101SOL    HW216861   7.140   8.098   7.562 -1.4534 -0.7224  0.2809
 4102SOL     OW16862   9.307   3.263   0.250 -0.3571 -0.1733  0.2247
 4102SOL    HW116863   9.333   3.354   0.265  3.5550 -1.4784  2.6716
 4102SOL    HW216864   9.251   3.242   0.324 -2.9976  0.6416 -1.3958
 4103SOL     OW16865   2.402   9.016   1.600  0.1477 -0.1268 -0.2976
 4103SOL    HW116866   2.369   8.994   1.687  0.1267 -1.9563 -0.7287
 4103SOL    HW216867   2.463   8.946   1.579  1.4689  1.1942 -1.0810
 4104SOL     OW16868  11.777   1.159   7.698  0.0544  0.1164  0.0390
 4104SOL    HW116869  11.743   1.139   7.611 -1.6556  2.0960  0.1858
 4104SOL    HW216870  11.702   1.149   7.757  0.9590 -0.2842  1.1727
 4105SOL     OW16871   5.790   9.113  11.552 -0.2588 -0.4635  0.0080
 4105SOL    HW116872   5.729   9.049  11.515 -1.0482  0.5699 -0.5538
 4105SOL    HW216873   5.733   9.173  11.601 -0.1803  2.3495 -3.0631
 4106SOL     OW16874   9.900   9.629   4.733 -0.0200  0.4682  0.4220
 4106SOL    HW116875   9.827   9.567   4.727  1.6262 -1.5233 -0.1427
 4106SOL    HW216876   9.859   9.715   4.725 -2.5163 -0.4427  1.9814
 4107SOL     OW16877   6.730   0.211   9.140  0.6675  0.2199 -0.1315
 4107SOL    HW116878   6.762   0.299   9.119  2.3198  0.0970  1.5812
 4107SOL    HW216879   6.635   0.218   9.131  0.7609  2.1526 -0.1670
 4108SOL     OW16880   6.789   1.273   1.138 -0.7027 -0.0208  0.5216
 4108SOL    HW116881   6.866   1.225   1.167  0.4034  1.5287  0.2710
 4108SOL    HW216882   6.752   1.220   1.067  1.1360  0.0290 -0.5210
 4109SOL     OW16883   6.250   9.084   5.923 -0.4146  0.5255  0.3102
 4109SOL    HW116884   6.308   9.158   5.937 -0.2774  0.5401 -0.3231
 4109SOL    HW216885   6.190   9.086   5.998 -0.2769  1.1448  0.4089
 4110SOL     OW16886   0.840   4.439   0.230  0.0138  0.3094 -0.5320
 4110SOL    HW116887   0.895   4.377   0.182  0.0341  0.5315 -0.7976
 4110SOL    HW216888   0.871   4.433   0.321 -0.3462 -0.4663 -0.4477
 4111SOL     OW16889   4.167   9.239   2.591 -0.6296  0.3773  0.4537
 4111SOL    HW116890   4.217   9.255   2.671  1.5317 -0.7572 -0.5674
 4111SOL    HW216891   4.126   9.154   2.605  1.0654 -0.5904 -0.1894
 4112SOL     OW16892   4.613   0.459  10.837 -0.2890  0.1422 -0.0659
 4112SOL    HW116893   4.548   0.460  10.908 -1.9195 -0.2573 -1.4637
 4112SOL    HW216894   4.621   0.366  10.814 -1.0691  0.3943 -1.4675
 4113SOL     OW16895   5.409   7.729   2.021  0.1608 -0.0779  0.1630
 4113SOL    HW116896   5.467   7.682   2.081  0.4463 -0.8631 -0.6970
 4113SOL    HW216897   5.349   7.662   1.988 -1.8660  0.8910  1.7115
 4114SOL     OW16898   6.033   8.808  10.132  0.4653  0.2170  0.4390
 4114SOL    HW116899   6.068   8.719  10.134 -1.3956 -0.5602  1.1968
 4114SOL    HW216900   6.027   8.830  10.039  1.5430 -0.1676  0.2631
 4115SOL     OW16901   6.423   4.811  11.899  0.3704  0.2601  0.2715
 4115SOL    HW116902   6.329   4.812  11.915  0.2772 -0.5732 -0.1572
 4115SOL    HW216903   6.460   4.773  11.978  0.0642 -2.1672 -0.6459
 4116SOL     OW16904  10.106   0.277   1.992 -0.0680 -0.3253  0.1351
 4116SOL    HW116905  10.135   0.218   1.923 -0.0678  0.8124 -0.8657
 4116SOL    HW216906  10.061   0.220   2.055  2.3969 -1.8372  0.6780
 4117SOL     OW16907   3.962   5.820   6.254 -0.2912 -0.1056 -0.2544
 4117SOL    HW116908   3.967   5.874   6.175  0.0541  0.7732  0.3499
 4117SOL    HW216909   3.875   5.840   6.290 -1.4069 -2.2360 -1.5894
 4118SOL     OW16910   3.307   9.118   6.631 -0.1734 -0.5408  0.1751
 4118SOL    HW116911   3.354   9.099   6.713  0.1327 -0.9224 -0.0827
 4118SOL    HW216912   3.355   9.191   6.593 -1.6546  1.1527  1.4156
 4119SOL     OW16913   0.134   0.614   3.776 -0.4000  0.5801  0.5873
 4119SOL    HW116914   0.216   0.609   3.728 -0.8092 -1.9103  0.0076
 4119SOL    HW216915   0.070   0.570   3.719 -1.4276 -0.3033  2.3317
 4120SOL     OW16916   8.336   0.344   8.409  0.0938  0.6902  0.9588
 4120SOL    HW116917   8.306   0.401   8.480 -0.1616  0.2057  1.2384
 4120SOL    HW216918   8.258   0.295   8.382  0.5923 -0.5398  1.6603
 4121SOL     OW16919   0.657  12.009   9.748  0.0158  0.2580  0.0143
 4121SOL    HW116920   0.660  12.059   9.666 -1.8872  0.2371 -0.1151
 4121SOL    HW216921   0.730  11.948   9.741  1.2761  1.7607 -0.6363
 4122SOL     OW16922   7.340  12.060  10.718  0.3172 -0.1742 -0.1115
 4122SOL    HW116923   7.411  12.004  10.688  0.9403 -0.7735  2.3298
 4122SOL    HW216924   7.261  12.024  10.677  1.0429 -1.1997 -0.6325
 4123SOL     OW16925   2.589  11.436   3.086 -0.1922 -0.1288 -0.4556
 4123SOL    HW116926   2.568  11.343   3.093 -0.9274 -0.0325 -1.2714
 4123SOL    HW216927   2.680  11.438   3.055  0.0715 -0.5609  0.2635
 4124SOL     OW16928   0.326   1.702   2.255  0.1890 -0.0719 -0.0551
 4124SOL    HW116929   0.363   1.790   2.259 -2.3126  0.9948  1.4063
 4124SOL    HW216930   0.358   1.658   2.334 -1.4591  0.8271  1.1713
 4125SOL     OW16931   1.034   2.386   2.360  0.0620  0.3623  0.6873
 4125SOL    HW116932   1.059   2.475   2.385  3.2117 -0.7919  2.1029
 4125SOL    HW216933   1.072   2.373   2.274 -0.7283  0.4720  0.3116
 4126SOL     OW16934  11.750   1.159   3.478 -0.0765  0.3985 -0.0439
 4126SOL    HW116935  11.777   1.238   3.524  0.9843 -0.2457  0.4624
 4126SOL    HW216936  11.657   1.151   3.498  0.6891 -0.8967  3.6340
 4127SOL     OW16937   5.008   4.084   4.887 -0.6038 -0.2699  0.1328
 4127SOL    HW116938   4.954   4.005   4.889 -1.1983  0.1343  0.0864
 4127SOL    HW216939   5.056   4.078   4.804 -0.7646 -0.5045  0.0564
 4128SOL     OW16940  10.674   5.234   5.408 -0.1861  0.0973 -0.8246
 4128SOL    HW116941  10.648   5.208   5.319  1.6325  0.3616 -1.4816
 4128SOL    HW216942  10.758   5.190   5.422  0.0379  0.8694  0.3815
 4129SOL     OW16943   9.111   8.216  10.939 -0.6000 -0.0221  0.0850
 4129SOL    HW116944   9.028   8.261  10.956  0.2083  1.0532  1.3561
 4129SOL    HW216945   9.145   8.194  11.025  0.4603 -0.4095 -0.4099
 4130SOL     OW16946  11.461   9.750   1.646 -0.2695 -0.4636  0.2282
 4130SOL    HW116947  11.386   9.695   1.626 -0.3595 -1.0864  2.0996
 4130SOL    HW216948  11.424   9.834   1.673 -0.2748 -0.4981  0.3331
 4131SOL     OW16949   9.892   0.956   7.592 -0.0082 -0.6761 -0.6913
 4131SOL    HW116950   9.913   1.046   7.569 -1.7418 -0.2180 -0.6449
 4131SOL    HW216951   9.970   0.906   7.568  0.5366  0.6540 -1.8457
 4132SOL     OW16952   7.479  11.775   1.132 -0.0087 -0.3974  0.6046
 4132SOL    HW116953   7.549  11.760   1.070 -0.3437  2.2318 -0.5234
 4132SOL    HW216954   7.400  11.743   1.088  0.0533 -0.6284  0.6563
 4133SOL     OW16955  10.170  10.968   2.740  0.1586  0.4652  0.2930
 4133SOL    HW116956  10.207  11.015   2.815 -0.0913  0.2620  0.5471
 4133SOL    HW216957  10.130  10.890   2.779 -1.4523  1.1945  0.1541
 4134SOL     OW16958   5.600  11.429   4.796  0.0252 -0.5975 -0.2001
 4134SOL    HW116959   5.578  11.342   4.827  0.8939 -0.6617  0.2548
 4134SOL    HW216960   5.633  11.475   4.873 -2.7045  0.9482  0.1423
 4135SOL     OW16961   2.501   0.262   2.220 -0.9168  0.2058 -0.4567
 4135SOL    HW116962   2.580   0.219   2.187 -0.5139  1.3636 -1.0607
 4135SOL    HW216963   2.502   0.244   2.314  0.7000  1.1116 -0.2501
 4136SOL     OW16964   8.958   9.005   3.335  0.1386 -0.4772  0.0534
 4136SOL    HW116965   9.032   9.047   3.380  1.0114 -0.1235 -1.6412
 4136SOL    HW216966   8.887   9.069   3.341  1.1324  0.8685 -1.5455
 4137SOL     OW16967   5.256  11.507   5.739 -0.2717  0.1475  0.6330
 4137SOL    HW116968   5.326  11.573   5.735 -0.2261  0.0482 -2.2580
 4137SOL    HW216969   5.301  11.424   5.725 -0.8099 -0.0783  0.2341
 4138SOL     OW16970   9.206  10.053   5.560 -0.0614 -0.9641  0.0496
 4138SOL    HW116971   9.277  10.112   5.589 -0.4689  0.6358 -1.9671
 4138SOL    HW216972   9.239   9.965   5.579  3.6587 -0.4914 -2.9293
 4139SOL     OW16973   2.755  10.813   9.699  0.4295  0.3750 -0.1762
 4139SOL    HW116974   2.719  10.845   9.781  1.1237 -0.6892  0.5607
 4139SOL    HW216975   2.842  10.854   9.694  1.5711 -1.7325  1.0633
 4140SOL     OW16976  11.457   1.242   4.853 -0.0932  0.1937 -0.4234
 4140SOL    HW116977  11.387   1.295   4.816  0.1404  0.6185 -0.2713
 4140SOL    HW216978  11.532   1.258   4.795  0.2727  0.8590  0.2119
 4141SOL     OW16979   2.166   1.287   8.212 -0.4462 -0.0301 -0.1271
 4141SOL    HW116980   2.126   1.336   8.284 -0.1207  1.4508 -0.9244
 4141SOL    HW216981   2.118   1.314   8.134 -0.0363 -0.7325 -0.6327
 4142SOL     OW16982   0.583   8.879   1.529  0.2908 -0.2175 -0.2283
 4142SOL    HW116983   0.489   8.884   1.512  0.3265  0.9144 -0.1643
 4142SOL    HW216984   0.592   8.894   1.623  0.4857 -1.2656 -0.0609
 4143SOL     OW16985   5.826   1.395   2.829 -0.3882 -0.1648 -0.0046
 4143SOL    HW116986   5.750   1.340   2.808  0.6875 -0.9919 -1.9760
 4143SOL    HW216987   5.882   1.338   2.882 -0.7833  0.2088  0.8392
 4144SOL     OW16988   8.255   3.467   3.623 -0.3960 -0.8665 -0.4385
 4144SOL    HW116989   8.265   3.498   3.533 -1.0424  0.5414 -0.0543
 4144SOL    HW216990   8.313   3.391   3.629 -0.6508 -1.2307 -2.1536
 4145SOL     OW16991  10.822   9.001   4.381  0.0513 -0.1237 -0.4513
 4145SOL    HW116992  10.871   8.924   4.353 -0.8170 -0.2974 -1.5646
 4145SOL    HW216993  10.736   8.966   4.408  0.1571  0.2910  0.4637
 4146SOL     OW16994   5.232   3.797   1.768 -0.0080 -0.1204  1.1654
 4146SOL    HW116995   5.192   3.860   1.708 -1.0511 -0.9291  0.9839
 4146SOL    HW216996   5.248   3.847   1.848 -0.4838  0.4629  0.9042
 4147SOL     OW16997   6.141   3.576   0.150 -0.5667 -0.1727  0.3157
 4147SOL    HW116998   6.233   3.559   0.170 -0.0413 -0.4695 -2.0431
 4147SOL    HW216999   6.108   3.493   0.116 -1.1156  0.4658 -0.7591
 4148SOL     OW17000   8.155   1.144   7.358 -0.0387  0.0887  0.2760
 4148SOL    HW117001   8.084   1.160   7.296  0.2172  1.9968  0.4196
 4148SOL    HW217002   8.214   1.218   7.347  0.3316  0.1762  2.3674
 4149SOL     OW17003   7.289   1.009   4.972  0.2368  0.2259 -0.1721
 4149SOL    HW117004   7.292   0.914   4.968 -1.0668  0.1042  0.9071
 4149SOL    HW217005   7.317   1.038   4.885 -0.5891 -1.1807 -0.9385
 4150SOL     OW17006   3.968   8.823   3.556 -0.2681 -0.0076  0.0067
 4150SOL    HW117007   3.876   8.824   3.529 -0.4468  2.1645  0.4866
 4150SOL    HW217008   3.975   8.749   3.616 -1.4715 -0.7657 -0.7568
 4151SOL     OW17009   8.153  11.822   7.219  0.2274 -0.0890  0.1991
 4151SOL    HW117010   8.169  11.895   7.159 -0.4486 -0.2885 -0.2464
 4151SOL    HW217011   8.161  11.744   7.164 -0.5438 -0.2679  0.3177
 4152SOL     OW17012   3.865   2.761   3.922 -0.0635  0.3315  0.3169
 4152SOL    HW117013   3.777   2.795   3.940  0.7863  3.3435 -0.6072
 4152SOL    HW217014   3.911   2.834   3.880  3.6151 -0.3185  2.7432
 4153SOL     OW17015   6.196   7.445   9.256  0.5799  0.3100 -0.5195
 4153SOL    HW117016   6.135   7.424   9.185 -1.6916 -0.7915  1.5565
 4153SOL    HW217017   6.212   7.361   9.299 -0.9060  1.2622  2.2275
 4154SOL     OW17018   6.560   6.784   4.000 -0.1519  0.3800  0.0046
 4154SOL    HW117019   6.535   6.774   3.909 -0.4217  0.9085  0.0129
 4154SOL    HW217020   6.530   6.872   4.023  0.5051  0.5093  0.4076
 4155SOL     OW17021   5.295   3.481   7.957  0.1767 -0.0193 -0.3105
 4155SOL    HW117022   5.228   3.479   8.025  1.4624  0.6093  1.0227
 4155SOL    HW217023   5.355   3.410   7.980  2.2390  2.0363  0.9919
 4156SOL     OW17024  10.546   3.910   1.954 -0.0933  0.4396  0.3565
 4156SOL    HW117025  10.501   3.860   2.022 -0.3175 -0.7568 -0.6328
 4156SOL    HW217026  10.574   3.844   1.890 -0.7860  1.6110 -1.2280
 4157SOL     OW17027   5.910   4.854   3.560 -0.0804  0.0268 -0.1909
 4157SOL    HW117028   5.850   4.833   3.631  0.0962 -0.8326 -0.2804
 4157SOL    HW217029   5.888   4.944   3.535 -1.4963 -0.3406 -0.3724
 4158SOL     OW17030   3.516   8.521   8.684  0.2836 -0.2789 -0.0804
 4158SOL    HW117031   3.485   8.602   8.724  1.6769 -0.0618  0.6109
 4158SOL    HW217032   3.502   8.535   8.590  1.3489  1.1719 -0.0684
 4159SOL     OW17033   1.002   4.130  10.953 -0.1468 -0.0552  0.1245
 4159SOL    HW117034   0.909   4.153  10.951 -0.6041 -1.1947  3.0691
 4159SOL    HW217035   1.007   4.047  10.907 -0.9843 -0.9222  1.5147
 4160SOL     OW17036  11.305  11.704   4.665 -0.1170 -0.7178  0.0340
 4160SOL    HW117037  11.391  11.683   4.702  1.0172 -0.3053 -2.2246
 4160SOL    HW217038  11.256  11.622   4.670  0.1781 -0.8339  1.8150
 4161SOL     OW17039   7.482   7.287   1.926 -0.3101  0.4271  0.6456
 4161SOL    HW117040   7.552   7.309   1.988 -0.0494  1.9548 -0.1390
 4161SOL    HW217041   7.527   7.253   1.849 -0.5077  0.2922  0.5880
 4162SOL     OW17042   0.218   6.099   6.723 -0.1094 -0.5902 -0.1434
 4162SOL    HW117043   0.236   6.017   6.677  1.3374 -0.1445 -0.4196
 4162SOL    HW217044   0.247   6.082   6.813  1.1193 -0.1045 -0.4219
 4163SOL     OW17045   9.786   5.503   6.531  0.1512 -0.1294 -0.2429
 4163SOL    HW117046   9.820   5.552   6.457  1.6110  1.1005  1.1789
 4163SOL    HW217047   9.775   5.414   6.497 -2.7357  1.0617 -2.9462
 4164SOL     OW17048   6.072   3.871   1.578  0.0916 -0.4362 -0.4803
 4164SOL    HW117049   6.016   3.854   1.501  0.4240  0.0407 -0.8397
 4164SOL    HW217050   6.099   3.785   1.608 -1.4291 -0.7223  0.1459
 4165SOL     OW17051  10.853   8.773  11.049 -0.4168 -0.0096  0.3240
 4165SOL    HW117052  10.840   8.746  10.958  0.0524 -1.8382  0.7614
 4165SOL    HW217053  10.946   8.795  11.055 -0.1082 -1.3029  0.6671
 4166SOL     OW17054   8.564   2.411  10.647 -0.1456  0.1343  0.3620
 4166SOL    HW117055   8.550   2.367  10.731 -2.3760 -2.4502 -1.1890
 4166SOL    HW217056   8.620   2.351  10.598  1.7808  1.9744  0.1828
 4167SOL     OW17057   1.949   8.858   0.392  0.4411  0.3556 -0.2070
 4167SOL    HW117058   1.903   8.915   0.454  2.7928  0.1904  1.8390
 4167SOL    HW217059   1.891   8.783   0.381 -0.9677  1.3555  0.0826
 4168SOL     OW17060   9.660   3.161   4.524  0.3410 -0.1475  0.0562
 4168SOL    HW117061   9.610   3.179   4.603  1.2687  1.5085  0.3134
 4168SOL    HW217062   9.706   3.079   4.542 -0.9519 -0.8086  0.4477
 4169SOL     OW17063   3.830  10.338  10.383 -0.0884 -0.8704 -0.1777
 4169SOL    HW117064   3.756  10.286  10.352 -0.5035 -0.7905  0.6349
 4169SOL    HW217065   3.903  10.277  10.387  0.3865 -0.5850 -2.6500
 4170SOL     OW17066   1.264  10.783   8.988 -0.2793  0.4037 -0.0526
 4170SOL    HW117067   1.205  10.826   8.926 -0.8148  1.1743  0.9576
 4170SOL    HW217068   1.213  10.711   9.025 -0.0458  0.0969 -0.3257
 4171SOL     OW17069   5.647   9.503   6.880  0.1147 -0.0376  0.5497
 4171SOL    HW117070   5.719   9.529   6.937  0.1206 -0.0244  0.5362
 4171SOL    HW217071   5.645   9.407   6.886  0.3350 -0.0584  0.3041
 4172SOL     OW17072   8.107   0.531   9.182  0.0337  0.1186 -0.0239
 4172SOL    HW117073   8.050   0.602   9.212 -1.8609 -0.9250 -0.9622
 4172SOL    HW217074   8.051   0.453   9.184  1.4501 -0.9635 -0.9726
 4173SOL     OW17075  11.569  11.081   3.136 -0.6317 -0.4440  0.2210
 4173SOL    HW117076  11.487  11.045   3.100 -0.6231 -1.2450  0.9535
 4173SOL    HW217077  11.558  11.074   3.231 -0.8513  2.0577  0.4365
 4174SOL     OW17078  11.279   4.723   2.791  0.0349  0.6340 -0.3221
 4174SOL    HW117079  11.294   4.815   2.811 -1.2678  1.0220 -0.9967
 4174SOL    HW217080  11.187   4.709   2.811  0.1822 -0.4932 -0.3787
 4175SOL     OW17081   7.520   0.220   3.049  0.2076  0.0180  0.4829
 4175SOL    HW117082   7.580   0.275   3.100  0.1716  0.0182  0.5248
 4175SOL    HW217083   7.433   0.240   3.084  0.1784  0.0519  0.3902
 4176SOL     OW17084   2.131   6.911  11.466 -0.1429  0.3353 -0.3306
 4176SOL    HW117085   2.191   6.944  11.399  0.3390  1.1885  0.4891
 4176SOL    HW217086   2.176   6.930  11.549 -1.4304  0.7781  0.2899
 4177SOL     OW17087   5.544   0.320  11.373  0.0137  0.0613  0.2875
 4177SOL    HW117088   5.572   0.291  11.460  0.6877  0.3508  0.1692
 4177SOL    HW217089   5.575   0.410  11.367 -0.0205  0.0371 -0.2581
 4178SOL     OW17090   6.593  10.510   8.130  0.2667 -0.8397 -0.2975
 4178SOL    HW117091   6.620  10.430   8.175 -1.0820 -1.8213 -1.1538
 4178SOL    HW217092   6.530  10.550   8.189  0.5707 -0.6563 -0.0922
 4179SOL     OW17093  10.605   7.468   0.474 -0.4636 -0.0036  0.0593
 4179SOL    HW117094  10.630   7.554   0.506  2.2013 -0.2218 -1.2332
 4179SOL    HW217095  10.647   7.407   0.535  0.3050 -0.3768 -0.8239
 4180SOL     OW17096  11.010   9.151   8.583 -0.0682 -0.2162  0.2687
 4180SOL    HW117097  10.988   9.229   8.634  0.0322  0.1651 -0.2558
 4180SOL    HW217098  11.105   9.157   8.572 -0.2019  0.2224 -0.7669
 4181SOL     OW17099   7.529  11.985   7.374 -0.0431 -0.1114  0.2169
 4181SOL    HW117100   7.553  12.078   7.370 -1.1445  0.4369  3.4880
 4181SOL    HW217101   7.612  11.940   7.392  0.2610  0.4240  0.1689
 4182SOL     OW17102   0.044   8.115   6.726  0.3722  0.1828  0.7877
 4182SOL    HW117103   0.114   8.107   6.661  0.8261  1.1226  1.1498
 4182SOL    HW217104   0.007   8.201   6.710 -0.4295 -0.1368  0.8800
 4183SOL     OW17105   3.322  10.989   4.769  0.1965 -0.2684  0.0391
 4183SOL    HW117106   3.294  11.081   4.766 -1.2111 -0.7102 -1.6468
 4183SOL    HW217107   3.369  10.981   4.853 -0.3580  1.7712  0.5939
 4184SOL     OW17108   6.424   7.050   1.282  0.0279 -0.1951 -0.0641
 4184SOL    HW117109   6.464   7.067   1.367  0.8207  1.8984 -0.7811
 4184SOL    HW217110   6.334   7.025   1.303 -0.4261  2.2653  1.4089
 4185SOL     OW17111   5.041  11.605   0.970  0.0455 -0.3213  0.2830
 4185SOL    HW117112   5.071  11.657   1.045  1.5861 -0.5133 -0.1717
 4185SOL    HW217113   5.004  11.670   0.909 -1.5243 -0.1977  1.3084
 4186SOL     OW17114   6.998   9.098   3.171 -0.0700  0.0764 -0.4809
 4186SOL    HW117115   7.087   9.062   3.161  0.3713  0.9580  0.1112
 4186SOL    HW217116   6.943   9.041   3.118  0.6710 -1.1820  0.0564
 4187SOL     OW17117   2.414  11.983   1.951  0.3828  0.0089  0.2177
 4187SOL    HW117118   2.344  11.919   1.956  1.7409 -1.4616  2.2769
 4187SOL    HW217119   2.458  11.966   1.868  1.4570 -2.6579  1.2349
 4188SOL     OW17120   7.542   0.737   4.669 -0.3580 -0.1503  0.3645
 4188SOL    HW117121   7.450   0.719   4.650 -0.1418 -0.6551 -0.2255
 4188SOL    HW217122   7.591   0.675   4.615  0.3555  0.9478 -0.3059
 4189SOL     OW17123   6.650   9.474  10.589 -0.1520  0.1343 -0.0824
 4189SOL    HW117124   6.649   9.491  10.683 -0.0187  0.2649 -0.1032
 4189SOL    HW217125   6.708   9.542  10.553 -0.7670  0.5367 -0.3449
 4190SOL     OW17126  11.455  10.315   4.346  0.5328 -0.7803 -0.2384
 4190SOL    HW117127  11.520  10.343   4.281  1.4710 -1.6517  0.2966
 4190SOL    HW217128  11.507  10.287   4.421 -0.5367  0.7254  1.1258
 4191SOL     OW17129   5.306   1.669   5.294 -0.0578 -0.4807  0.1413
 4191SOL    HW117130   5.282   1.577   5.279  0.2307 -0.5518  0.1155
 4191SOL    HW217131   5.382   1.665   5.352 -0.0085 -0.2595  0.0935
 4192SOL     OW17132   6.633   7.725   1.893 -0.1284 -0.7195 -0.4387
 4192SOL    HW117133   6.562   7.665   1.918 -0.9361  0.8692  1.4129
 4192SOL    HW217134   6.637   7.719   1.798 -1.6423 -2.0758 -0.4670
 4193SOL     OW17135   2.575   2.275   9.905 -0.3301 -0.3009  0.5556
 4193SOL    HW117136   2.576   2.233   9.819  0.8353 -0.3985  0.5993
 4193SOL    HW217137   2.560   2.204   9.967  2.6356 -0.9345  0.7183
 4194SOL     OW17138  11.611  11.958   2.666 -0.7444 -0.2319 -0.1478
 4194SOL    HW117139  11.617  11.862   2.669 -1.8991 -0.2957  0.8692
 4194SOL    HW217140  11.700  11.986   2.644 -0.9548 -1.6061 -3.5030
 4195SOL     OW17141   8.105   4.750  10.787 -0.2443 -0.2614  0.0748
 4195SOL    HW117142   8.116   4.727  10.695 -1.2090 -1.2398  0.1916
 4195SOL    HW217143   8.077   4.842  10.785 -1.0305 -0.4960 -0.6647
 4196SOL     OW17144   3.834   9.975  12.050  0.1328 -0.1677  0.4317
 4196SOL    HW117145   3.750  10.019  12.063  1.7519  4.0112 -1.3577
 4196SOL    HW217146   3.871   9.967  12.138 -0.5787  1.5705  0.9303
 4197SOL     OW17147   8.047   5.359  10.868 -0.1133 -0.4321 -0.2928
 4197SOL    HW117148   8.094   5.407  10.935  1.1241 -1.7218 -0.1916
 4197SOL    HW217149   8.116   5.318  10.815 -1.0872 -1.7713 -0.5891
 4198SOL     OW17150   5.059   6.154   4.409 -0.0085 -0.1266  0.2812
 4198SOL    HW117151   4.995   6.181   4.474  0.8992 -2.2505  2.1885
 4198SOL    HW217152   5.142   6.190   4.441  0.3384 -0.5881 -0.0875
 4199SOL     OW17153   7.451   0.529  11.065 -0.3603 -0.3751  0.0389
 4199SOL    HW117154   7.501   0.449  11.082  0.4299 -0.1814 -1.1918
 4199SOL    HW217155   7.415   0.553  11.150  2.4434 -0.0187  1.2571
 4200SOL     OW17156   1.777   3.941   0.726 -0.3902  0.0993 -0.0845
 4200SOL    HW117157   1.761   3.910   0.637 -0.3667  2.1318 -0.8467
 4200SOL    HW217158   1.796   3.862   0.775 -2.7104 -1.3774 -1.3382
 4201SOL     OW17159   8.831   0.995   9.675 -0.5768 -0.0243 -0.1111
 4201SOL    HW117160   8.747   1.012   9.633 -1.5651 -0.8267  1.4366
 4201SOL    HW217161   8.868   1.083   9.690 -1.5097  0.3760 -0.0977
 4202SOL     OW17162   9.332   6.703   3.498  0.4846  0.4223  0.3474
 4202SOL    HW117163   9.317   6.740   3.585  1.1455  0.2001  0.5591
 4202SOL    HW217164   9.422   6.729   3.476  0.2016  0.7825 -0.4207
 4203SOL     OW17165   8.158  10.025   2.770  0.0831  0.0043  0.0260
 4203SOL    HW117166   8.170  10.018   2.676 -1.1880 -2.9601 -0.0203
 4203SOL    HW217167   8.221   9.962   2.807 -2.1900 -1.9441  0.8206
 4204SOL     OW17168   9.638   1.450   7.100 -0.0458 -0.6432  0.4373
 4204SOL    HW117169   9.600   1.516   7.043  2.0281 -0.2681 -0.5909
 4204SOL    HW217170   9.659   1.496   7.181 -1.9042 -0.9111  1.1148
 4205SOL     OW17171   0.591   2.737   2.741 -0.2607 -0.4611  0.3887
 4205SOL    HW117172   0.551   2.824   2.747 -0.5627 -0.3170 -2.2720
 4205SOL    HW217173   0.671   2.751   2.690  1.9175 -1.1744  3.3930
 4206SOL     OW17174   6.933   0.601  11.442 -0.3163 -0.2886 -0.4237
 4206SOL    HW117175   6.944   0.696  11.433  0.6175 -0.3520 -0.0404
 4206SOL    HW217176   6.963   0.565  11.358  0.1181 -0.2919 -0.2714
 4207SOL     OW17177  11.312   0.514   5.794  0.1624  0.2538  0.0327
 4207SOL    HW117178  11.378   0.584   5.791 -0.9644  1.5393  2.3264
 4207SOL    HW217179  11.229   0.558   5.773 -0.3340 -0.7761 -0.2470
 4208SOL     OW17180  11.482   1.961   6.032  0.1926  0.4874  0.6991
 4208SOL    HW117181  11.502   1.902   6.104  0.3702  0.0153  0.2697
 4208SOL    HW217182  11.548   2.030   6.038  0.5327  0.1673  0.6763
 4209SOL     OW17183   3.461   2.144   7.875 -0.2042  0.4160  0.2222
 4209SOL    HW117184   3.366   2.142   7.859 -0.1916  0.0786  0.1860
 4209SOL    HW217185   3.471   2.101   7.960 -0.2541  2.0444  1.0821
 4210SOL     OW17186   5.770   8.418  11.699 -0.2799  0.0682  0.0415
 4210SOL    HW117187   5.718   8.493  11.669 -2.7824 -0.4347  2.6428
 4210SOL    HW217188   5.806   8.446  11.783  1.8756 -0.4279 -0.6569
 4211SOL     OW17189   1.878   7.446   4.243 -0.0377 -0.3692  0.1877
 4211SOL    HW117190   1.859   7.461   4.150  1.7942 -1.0503 -0.3410
 4211SOL    HW217191   1.815   7.501   4.290 -0.6357  0.4125 -1.4626
 4212SOL     OW17192   7.466   7.272   4.483  0.0393 -0.2561  0.3672
 4212SOL    HW117193   7.401   7.321   4.532 -2.5306 -2.7040 -0.3476
 4212SOL    HW217194   7.445   7.288   4.391  2.7654  1.6974 -0.0480
 4213SOL     OW17195   9.562   4.670   3.732 -0.0385  0.3136 -0.0638
 4213SOL    HW117196   9.655   4.648   3.735  0.4295  1.9613 -1.3219
 4213SOL    HW217197   9.537   4.654   3.641 -1.4633 -1.7128  0.5977
 4214SOL     OW17198  10.593   1.414  10.492 -0.1951 -0.1887  0.0308
 4214SOL    HW117199  10.625   1.503  10.509 -0.6019 -0.0714  0.2049
 4214SOL    HW217200  10.642   1.385  10.415  1.8525 -0.8184  1.5025
 4215SOL     OW17201  10.649  10.835  11.205  0.7489 -0.0524  0.2280
 4215SOL    HW117202  10.599  10.914  11.184 -0.6801 -1.1760 -0.7455
 4215SOL    HW217203  10.639  10.825  11.300 -0.1973  0.1836  0.1565
 4216SOL     OW17204   8.583   6.239   4.061 -0.3282  0.0828 -0.3391
 4216SOL    HW117205   8.581   6.333   4.044  3.0426  0.2862 -0.2183
 4216SOL    HW217206   8.643   6.229   4.134  2.6123 -2.3413 -2.7996
 4217SOL     OW17207   4.551   6.537  10.784  0.4754 -0.0209  0.2010
 4217SOL    HW117208   4.544   6.507  10.693  1.8646 -0.2918  0.1622
 4217SOL    HW217209   4.515   6.626  10.783 -0.5839 -0.4499 -0.3722
 4218SOL     OW17210   2.700   6.611   8.312 -0.4783 -0.8187 -0.3056
 4218SOL    HW117211   2.677   6.582   8.223 -0.6004 -0.1194 -0.5100
 4218SOL    HW217212   2.736   6.699   8.300  0.7727 -1.2359  0.1988
 4219SOL     OW17213   0.887  11.627  11.865  0.4430 -0.4243 -0.0696
 4219SOL    HW117214   0.940  11.662  11.936 -0.4349  1.3093 -0.2103
 4219SOL    HW217215   0.819  11.693  11.851 -2.0543 -2.7164  0.4066
 4220SOL     OW17216   5.414   5.584   4.508 -0.4776 -0.1164  0.1557
 4220SOL    HW117217   5.346   5.542   4.561 -0.8881 -1.1586 -1.1113
 4220SOL    HW217218   5.387   5.676   4.502  0.0689  0.2307  2.4392
 4221SOL     OW17219   0.350   0.942   4.184  0.1698 -0.1504 -0.1775
 4221SOL    HW117220   0.264   0.911   4.212  0.5527 -0.0023  1.1955
 4221SOL    HW217221   0.349   0.930   4.089 -0.6431 -1.9650  0.0158
 4222SOL     OW17222   4.351   7.326  10.514 -0.0689 -0.0502 -0.1077
 4222SOL    HW117223   4.263   7.358  10.534 -0.3786 -0.7333 -0.3546
 4222SOL    HW217224   4.405   7.359  10.586 -0.0476  2.3756 -1.1410
 4223SOL     OW17225   4.111   4.592   7.006  0.5966 -0.3354  0.7078
 4223SOL    HW117226   4.081   4.596   7.097  0.5415 -1.1335  0.7312
 4223SOL    HW217227   4.176   4.521   7.005 -0.4985 -1.3690 -0.1757
 4224SOL     OW17228   4.342   0.376   7.414  0.3906  0.7192  0.5166
 4224SOL    HW117229   4.253   0.406   7.433  0.3879  0.4914  0.8780
 4224SOL    HW217230   4.340   0.351   7.322 -0.9142 -2.6395  1.3147
 4225SOL     OW17231   4.589   5.535   7.078 -0.4317 -0.2291  0.1594
 4225SOL    HW117232   4.540   5.617   7.072 -0.2497 -0.0179  1.4351
 4225SOL    HW217233   4.668   5.550   7.025 -1.3197 -0.2812 -1.2156
 4226SOL     OW17234   7.546   4.326   8.242  0.4997  0.0588  0.4559
 4226SOL    HW117235   7.567   4.326   8.148  0.8197 -2.4521  0.4759
 4226SOL    HW217236   7.452   4.342   8.245  0.4749  0.1121 -0.2981
 4227SOL     OW17237   0.502   0.030   5.612 -0.3008  0.3654  0.1243
 4227SOL    HW117238   0.453  -0.005   5.538  0.4730  0.6292 -0.5279
 4227SOL    HW217239   0.449   0.008   5.689 -0.3108 -1.3810 -0.3383
 4228SOL     OW17240   7.435   4.189  10.754  0.7433 -0.3957  0.4600
 4228SOL    HW117241   7.414   4.213  10.844 -1.5248 -1.4923  0.2891
 4228SOL    HW217242   7.513   4.241  10.733 -0.5767  2.3868  1.9604
 4229SOL     OW17243   5.756   7.712   2.143 -0.6355  0.0314 -0.0156
 4229SOL    HW117244   5.769   7.806   2.158 -1.0409  0.3201 -1.3413
 4229SOL    HW217245   5.738   7.705   2.050 -2.0814 -1.2138  0.3246
 4230SOL     OW17246   6.782   7.572   8.695 -0.2649  0.3576 -0.7897
 4230SOL    HW117247   6.719   7.590   8.625 -4.6485 -0.2642  2.5229
 4230SOL    HW217248   6.772   7.478   8.713  0.1805  0.6074  1.0068
 4231SOL     OW17249   3.240  10.045   1.859 -0.3063  0.0306  1.0746
 4231SOL    HW117250   3.222  10.137   1.840  1.0180 -0.0677 -0.9708
 4231SOL    HW217251   3.326  10.046   1.901 -0.5498 -0.2460  1.5927
 4232SOL     OW17252   5.715  11.331   8.318 -0.7813 -0.3595  0.9621
 4232SOL    HW117253   5.692  11.422   8.300 -0.0830 -0.4422 -0.4445
 4232SOL    HW217254   5.800  11.336   8.363 -0.1480 -0.3491 -0.2062
 4233SOL     OW17255   6.008   1.691   2.901 -0.1365  0.1195 -0.0485
 4233SOL    HW117256   6.074   1.747   2.860 -0.8243  0.7190 -0.3505
 4233SOL    HW217257   6.059   1.623   2.944  0.6316 -0.1105 -1.2723
 4234SOL     OW17258   2.466   9.981   2.026  0.5418  0.1863  0.2520
 4234SOL    HW117259   2.406  10.045   2.065 -1.6610 -1.1845 -0.7188
 4234SOL    HW217260   2.508  10.028   1.954  2.8073  1.9871  2.5401
 4235SOL     OW17261   9.776   3.571   1.769 -0.2618 -0.7149 -0.4503
 4235SOL    HW117262   9.850   3.551   1.825 -0.2747  0.6842  0.1071
 4235SOL    HW217263   9.786   3.664   1.747 -1.7728 -0.5189 -0.4498
 4236SOL     OW17264   7.971   4.156   0.038 -0.0847 -0.2840 -0.0361
 4236SOL    HW117265   7.994   4.074   0.082 -0.1666  0.7070  1.9547
 4236SOL    HW217266   7.875   4.156   0.036 -0.2890  1.2231  3.1390
 4237SOL     OW17267  10.736   7.938   6.337 -0.3275 -0.2337  0.0724
 4237SOL    HW117268  10.798   7.978   6.277 -0.4509  2.4834  1.6020
 4237SOL    HW217269  10.656   7.990   6.328 -0.5292 -0.1092  2.1333
 4238SOL     OW17270   1.524  11.492   7.746  0.4182 -0.3950  0.0417
 4238SOL    HW117271   1.594  11.507   7.809 -0.2065  1.2828  0.3924
 4238SOL    HW217272   1.529  11.567   7.687 -0.8392 -0.4295 -0.1350
 4239SOL     OW17273   9.391   6.466   7.976  0.0497  0.1913 -0.0280
 4239SOL    HW117274   9.296   6.455   7.965  0.2038 -0.8957 -0.4059
 4239SOL    HW217275   9.429   6.397   7.923  1.0368 -0.1081  1.0290
 4240SOL     OW17276  10.102   3.602  10.546 -0.2739  0.0360 -0.0371
 4240SOL    HW117277  10.159   3.526  10.558  0.4886  0.3752 -1.2835
 4240SOL    HW217278  10.043   3.600  10.621 -1.2029 -2.5816 -0.7113
 4241SOL     OW17279   4.145   5.551   9.322  0.0674 -0.6703 -0.5917
 4241SOL    HW117280   4.136   5.477   9.381 -0.2680  0.0945  0.3335
 4241SOL    HW217281   4.220   5.600   9.356 -0.9923  0.5475  0.0904
 4242SOL     OW17282   6.862   3.899   9.844  0.1754 -0.1123 -0.5434
 4242SOL    HW117283   6.838   3.990   9.827  0.3454  0.0066 -0.1746
 4242SOL    HW217284   6.816   3.877   9.925  1.4430  0.1894  0.2963
 4243SOL     OW17285   3.790   2.517   0.618  0.7000 -0.5130 -0.2903
 4243SOL    HW117286   3.736   2.451   0.662 -0.5750  0.7738  0.1929
 4243SOL    HW217287   3.851   2.548   0.685 -0.1287  0.2673  0.1313
 4244SOL     OW17288   8.461   4.958   7.048  0.2744 -0.4836 -0.7162
 4244SOL    HW117289   8.491   4.988   7.134  0.7583  0.5045 -1.2204
 4244SOL    HW217290   8.499   5.020   6.986 -0.0617 -1.1933 -1.6516
 4245SOL     OW17291   1.712   9.258  11.502 -0.4293 -0.2718  0.5522
 4245SOL    HW117292   1.628   9.304  11.512 -1.3896 -1.6920 -0.6068
 4245SOL    HW217293   1.694   9.188  11.440  1.9282  0.1128 -0.6908
 4246SOL     OW17294  10.747   5.017   3.592  0.0407 -0.5284 -0.3224
 4246SOL    HW117295  10.764   4.950   3.658 -3.8022 -2.3516 -0.8629
 4246SOL    HW217296  10.731   5.097   3.643  2.9271 -0.3254  0.4423
 4247SOL     OW17297   2.155  10.648   5.412  0.1248 -0.1535  0.2659
 4247SOL    HW117298   2.146  10.591   5.335 -0.8966 -1.0511  1.0355
 4247SOL    HW217299   2.241  10.689   5.401  1.2432 -2.4318  0.0795
 4248SOL     OW17300   1.889   9.870   3.550  0.3685  0.3753 -0.2540
 4248SOL    HW117301   1.842   9.807   3.496  0.0336  0.6261 -0.2535
 4248SOL    HW217302   1.955   9.907   3.491  2.3789 -1.8938  0.4146
 4249SOL     OW17303   9.057  12.063   0.715 -0.0646  0.1239  0.2135
 4249SOL    HW117304   8.966  12.056   0.685 -0.5397 -0.4077  1.6905
 4249SOL    HW217305   9.071  12.157   0.725  0.4301  0.4317 -2.4295
 4250SOL     OW17306   1.969   1.255  10.451 -0.5227  0.0842  0.0489
 4250SOL    HW117307   1.954   1.238  10.358  1.1547  0.2327 -0.2832
 4250SOL    HW217308   1.956   1.171  10.493  2.0847 -0.8575 -0.8224
 4251SOL     OW17309   6.555   3.717   2.991 -0.5591  0.1832  0.6937
 4251SOL    HW117310   6.494   3.682   2.926 -0.1114 -0.3612  0.5664
 4251SOL    HW217311   6.514   3.698   3.075 -0.9819  0.5963  0.5835
 4252SOL     OW17312   8.705   2.033   9.198 -0.0235  0.2785  0.2465
 4252SOL    HW117313   8.625   2.085   9.188 -0.3034 -0.2221 -0.1532
 4252SOL    HW217314   8.678   1.959   9.253  0.1134 -0.0081 -0.0738
 4253SOL     OW17315  10.142   7.605   8.775  0.4258 -0.0558  0.2310
 4253SOL    HW117316  10.159   7.679   8.835  1.4964 -0.7337  0.8084
 4253SOL    HW217317  10.190   7.628   8.695  0.2591  0.1479  0.1873
 4254SOL     OW17318  11.701   9.899   7.543 -0.3749 -0.1307  0.2025
 4254SOL    HW117319  11.739   9.816   7.514 -3.1379 -0.9689 -1.4597
 4254SOL    HW217320  11.650   9.877   7.621 -0.4363  0.1806  0.2537
 4255SOL     OW17321   8.202  10.682   5.329 -0.1598  0.2677  0.0313
 4255SOL    HW117322   8.171  10.690   5.238  1.0240 -0.5850 -0.4695
 4255SOL    HW217323   8.212  10.773   5.358 -2.0846  0.5706 -0.1130
 4256SOL     OW17324   5.815   1.084   1.095  0.3117 -0.2825  0.1845
 4256SOL    HW117325   5.771   1.053   1.175  0.3194 -2.1351 -0.5083
 4256SOL    HW217326   5.749   1.075   1.027  1.3840 -2.0812 -0.6723
 4257SOL     OW17327   5.749   5.969   3.786 -0.0178 -0.1746 -0.7968
 4257SOL    HW117328   5.668   5.920   3.772 -2.1039  2.6541  0.2350
 4257SOL    HW217329   5.775   5.999   3.699 -1.6279  1.0113 -0.9139
 4258SOL     OW17330   7.160  10.929  12.057  0.8718  0.0673  0.0206
 4258SOL    HW117331   7.100  10.865  12.019  1.4718 -0.2758 -0.3620
 4258SOL    HW217332   7.109  10.971  12.126  0.6128 -1.1732  0.6254
 4259SOL     OW17333  10.488  11.562   9.258 -0.4834 -0.2705 -0.5955
 4259SOL    HW117334  10.487  11.486   9.317 -2.3136 -1.2025 -1.7381
 4259SOL    HW217335  10.452  11.633   9.311 -0.3355 -0.6017 -0.0315
 4260SOL     OW17336   9.604   2.796   5.645  0.5769 -0.0539  0.0057
 4260SOL    HW117337   9.547   2.772   5.718 -0.8289  0.6550 -0.8236
 4260SOL    HW217338   9.680   2.738   5.654  0.4771  0.0543  2.0557
 4261SOL     OW17339  10.905   3.846   4.229  0.4114 -0.8661  0.4096
 4261SOL    HW117340  10.908   3.788   4.153  2.5588  0.4062 -0.5700
 4261SOL    HW217341  10.860   3.924   4.198  2.6600  0.3098 -0.1651
 4262SOL     OW17342   4.110   1.223   7.013  0.1742  0.0817  0.1487
 4262SOL    HW117343   4.160   1.269   7.080 -1.6029  0.7536  1.0730
 4262SOL    HW217344   4.087   1.290   6.950 -2.2886  0.5570  1.4179
 4263SOL     OW17345   9.631   7.169   8.477 -0.0366  0.3028 -0.4401
 4263SOL    HW117346   9.546   7.152   8.517  0.5647  0.6684  1.0901
 4263SOL    HW217347   9.666   7.083   8.456  0.0165  0.0106  0.7498
 4264SOL     OW17348   2.850   0.949   2.568 -0.0075 -0.0725  0.0418
 4264SOL    HW117349   2.858   0.938   2.663 -0.2222 -0.1863  0.0481
 4264SOL    HW217350   2.939   0.937   2.535 -0.1253 -1.2641  0.1169
 4265SOL     OW17351   6.358   5.592  10.821 -0.2564  0.7571  0.0308
 4265SOL    HW117352   6.442   5.629  10.794  0.4898 -1.2291 -0.5276
 4265SOL    HW217353   6.293   5.653  10.787  0.9322  2.9073  1.3871
 4266SOL     OW17354  11.465   7.392   8.636  0.0938 -0.3212  0.6541
 4266SOL    HW117355  11.475   7.301   8.609 -1.5845 -0.2676 -0.2917
 4266SOL    HW217356  11.382   7.394   8.683  0.3020  0.6586  1.0030
 4267SOL     OW17357  10.232   3.667   4.040 -0.1094  0.3404  0.1515
 4267SOL    HW117358  10.232   3.573   4.023  0.3324  0.2733  0.4834
 4267SOL    HW217359  10.172   3.704   3.975 -0.9343 -0.2617  0.5596
 4268SOL     OW17360   2.905   0.068   9.063  0.3140 -0.8205  0.1391
 4268SOL    HW117361   2.916   0.094   8.972 -0.3406  0.5658  0.4307
 4268SOL    HW217362   2.856  -0.014   9.058 -0.9746 -0.0372 -0.7515
 4269SOL     OW17363  10.344   7.955  10.680 -0.2481  0.2931  0.2373
 4269SOL    HW117364  10.308   8.042  10.664 -2.5506 -0.5676  0.2186
 4269SOL    HW217365  10.325   7.906  10.599 -0.7636 -0.7299  0.9534
 4270SOL     OW17366   6.969  11.601   9.661 -0.0048 -0.3545  0.1182
 4270SOL    HW117367   7.044  11.661   9.658 -0.3947  0.1102 -0.4956
 4270SOL    HW217368   6.916  11.626   9.586 -0.9525 -0.4668  0.7438
 4271SOL     OW17369   8.286   8.466   1.598 -0.1889 -0.2270 -0.0809
 4271SOL    HW117370   8.221   8.473   1.528  0.0148  0.7264 -0.1878
 4271SOL    HW217371   8.362   8.514   1.565 -0.0462  0.1268  0.7462
 4272SOL     OW17372   0.778   7.449  11.983 -0.0953 -0.0564  0.6154
 4272SOL    HW117373   0.844   7.495  12.036  0.0320  2.1622 -1.3259
 4272SOL    HW217374   0.804   7.357  11.988  1.5845  0.4405  2.0416
 4273SOL     OW17375   0.453   2.422  11.380 -0.0984  0.0106  0.0011
 4273SOL    HW117376   0.546   2.400  11.389 -0.5347 -1.2118  2.2807
 4273SOL    HW217377   0.445   2.455  11.291  2.5156  0.1431 -0.2744
 4274SOL     OW17378   1.333   9.277   1.747 -0.1048 -0.1676 -0.0357
 4274SOL    HW117379   1.258   9.322   1.708  1.2477 -0.5234 -3.4694
 4274SOL    HW217380   1.368   9.338   1.811 -1.3765  1.4115 -0.7888
 4275SOL     OW17381   0.852   9.409   3.905 -0.3478 -0.0549  0.2081
 4275SOL    HW117382   0.790   9.425   3.976  0.0786 -2.0248  1.0813
 4275SOL    HW217383   0.922   9.473   3.921 -0.6989  0.1460  1.0306
 4276SOL     OW17384  10.161   2.245   6.968  0.3616 -0.3196 -0.6186
 4276SOL    HW117385  10.083   2.199   6.998  0.5837 -1.5094 -1.8046
 4276SOL    HW217386  10.129   2.332   6.944 -0.2829 -0.2399  0.4529
 4277SOL     OW17387   5.507   3.482   4.821 -1.0380 -0.0064  0.0626
 4277SOL    HW117388   5.450   3.409   4.845  0.0319 -0.0646  2.7497
 4277SOL    HW217389   5.570   3.445   4.759  0.6752 -2.0205  2.7958
 4278SOL     OW17390   4.134   4.354   8.415 -0.0908  0.5966  0.5982
 4278SOL    HW117391   4.163   4.442   8.388  0.1077  0.1096 -0.8888
 4278SOL    HW217392   4.214   4.301   8.413 -0.7318 -0.4365 -2.1627
 4279SOL     OW17393   5.414   8.402   9.178  0.0968 -0.3146 -0.4524
 4279SOL    HW117394   5.364   8.415   9.259  1.1871 -2.8636  0.7196
 4279SOL    HW217395   5.371   8.328   9.135  1.3615 -0.9547 -0.6445
 4280SOL     OW17396   5.687   6.199   2.406 -0.3446  0.4487  0.2985
 4280SOL    HW117397   5.729   6.119   2.372  0.6601  0.7110  0.8796
 4280SOL    HW217398   5.730   6.215   2.490 -1.2592  1.0421  0.6698
 4281SOL     OW17399   4.541  11.576   3.378  0.1058  0.6701 -0.3312
 4281SOL    HW117400   4.543  11.626   3.297  1.2155  0.5650 -0.3879
 4281SOL    HW217401   4.606  11.618   3.434 -0.9557  1.0127  0.6813
 4282SOL     OW17402   0.422   1.728   5.821 -0.2427  0.0800 -0.6060
 4282SOL    HW117403   0.430   1.824   5.819  0.2586  0.0508 -0.1374
 4282SOL    HW217404   0.396   1.705   5.732 -2.4555  0.8205 -0.2102
 4283SOL     OW17405   1.044   6.838   3.496 -0.1002 -0.1401  0.0612
 4283SOL    HW117406   1.136   6.820   3.513 -0.3319 -1.9796 -0.4985
 4283SOL    HW217407   1.009   6.865   3.581  0.6434 -0.8521  0.6071
 4284SOL     OW17408   0.903   0.134   9.037  0.7923 -0.2480 -0.2235
 4284SOL    HW117409   0.899   0.214   9.090 -0.6187  0.4936 -1.3794
 4284SOL    HW217410   0.947   0.071   9.094  0.6804  0.9353  1.2647
 4285SOL     OW17411  10.054   7.517   0.278 -0.0053  0.0918 -0.6572
 4285SOL    HW117412  10.080   7.425   0.276  0.9189  0.3362 -0.2283
 4285SOL    HW217413   9.960   7.515   0.296 -0.0846 -0.7786 -1.1225
 4286SOL     OW17414   7.054   3.502   4.224 -0.4924  0.1820  0.2565
 4286SOL    HW117415   7.035   3.508   4.131  0.2970 -0.8165  0.0109
 4286SOL    HW217416   7.126   3.440   4.230  0.2273  1.0866  1.4460
 4287SOL     OW17417   3.305  11.300   9.593 -0.1396 -0.1748  0.1677
 4287SOL    HW117418   3.341  11.388   9.604  0.4276 -0.2875 -0.6796
 4287SOL    HW217419   3.222  11.302   9.641  1.0560  0.0212  2.3233
 4288SOL     OW17420   7.355  11.440   2.422 -0.1856  0.0758 -0.0621
 4288SOL    HW117421   7.359  11.426   2.517 -0.9685 -0.4273 -0.0953
 4288SOL    HW217422   7.372  11.533   2.411  0.1815  0.0896  0.5528
 4289SOL     OW17423  10.995   4.044  11.132  0.9068  0.2180  0.6182
 4289SOL    HW117424  11.077   4.076  11.094  0.6349 -2.0365 -2.1965
 4289SOL    HW217425  10.930   4.060  11.065 -0.7694  0.7143  2.2720
 4290SOL     OW17426  11.131   3.925  12.076 -0.6224  0.5544  0.1012
 4290SOL    HW117427  11.187   3.974  12.015  2.2148 -0.5556  1.6094
 4290SOL    HW217428  11.115   3.842  12.032 -0.0175  0.4134  0.1307
 4291SOL     OW17429   0.052   5.335   1.576  0.3874 -0.3390  0.3285
 4291SOL    HW117430   0.018   5.252   1.544 -2.4604  0.1927  1.6556
 4291SOL    HW217431   0.061   5.389   1.498 -1.9213 -0.5553 -0.1656
 4292SOL     OW17432   9.088   7.324   9.236  0.1772 -0.0930 -0.0457
 4292SOL    HW117433   9.073   7.229   9.238  0.7848 -0.2018 -0.4594
 4292SOL    HW217434   9.040   7.354   9.159  1.1664 -0.2840 -0.7505
 4293SOL     OW17435   1.267  11.658  10.943 -0.0794 -0.3721 -0.2961
 4293SOL    HW117436   1.320  11.722  10.991 -2.5068 -0.6988  3.1774
 4293SOL    HW217437   1.226  11.709  10.873  2.0805  0.5882 -0.9556
 4294SOL     OW17438  12.094   7.287   7.985 -0.3166 -0.6259  0.6461
 4294SOL    HW117439  12.020   7.319   7.935 -0.4499  0.1498  1.3136
 4294SOL    HW217440  12.121   7.207   7.941  0.9741  1.1128 -2.0060
 4295SOL     OW17441   8.645   9.677   0.201  0.8692 -0.0733  0.4779
 4295SOL    HW117442   8.645   9.633   0.286 -4.1822  1.2555  1.4845
 4295SOL    HW217443   8.690   9.760   0.217 -0.5495  0.4314  2.1310
 4296SOL     OW17444   2.877   2.806   7.443 -0.1612  0.1983  0.4569
 4296SOL    HW117445   2.856   2.775   7.531  0.4135  0.6994  0.7771
 4296SOL    HW217446   2.886   2.726   7.391  0.6245 -0.1576  1.1203
 4297SOL     OW17447  11.657  12.103   2.063 -0.3161  0.0724 -0.2277
 4297SOL    HW117448  11.579  12.064   2.023  0.6833 -0.2054 -2.0152
 4297SOL    HW217449  11.689  12.165   1.998 -0.9336  2.8067  1.8807
 4298SOL     OW17450   2.071   3.087   4.217 -0.5593  0.2868  0.2957
 4298SOL    HW117451   1.990   3.127   4.247  0.4915  2.5553  0.3437
 4298SOL    HW217452   2.140   3.131   4.267  0.8602  0.3111 -1.5535
 4299SOL     OW17453   9.943   7.167   9.188 -0.1660 -0.4353 -0.2223
 4299SOL    HW117454   9.980   7.088   9.228 -2.1458 -0.8605  0.9001
 4299SOL    HW217455   9.854   7.171   9.221 -0.0399  2.4802  0.0207
 4300SOL     OW17456   2.342   3.656   3.872  0.0029 -0.2231  0.0108
 4300SOL    HW117457   2.308   3.594   3.936  1.2281  1.9222  2.9873
 4300SOL    HW217458   2.265   3.690   3.827 -0.7276 -3.3933 -1.3663
 4301SOL     OW17459   1.106   5.841   4.377  0.2238  0.4809  0.3238
 4301SOL    HW117460   1.122   5.868   4.287  0.3692  0.6192  0.3909
 4301SOL    HW217461   1.014   5.813   4.378  0.4191 -0.1867 -0.0324
 4302SOL     OW17462   1.149   2.779   3.971  0.2169 -0.3429 -0.3526
 4302SOL    HW117463   1.060   2.781   4.007  0.8277 -0.4430  1.2364
 4302SOL    HW217464   1.202   2.741   4.040  2.0309  2.4879 -0.0101
 4303SOL     OW17465  10.504   3.112   6.579 -0.0072  0.0930  0.4118
 4303SOL    HW117466  10.512   3.018   6.595 -0.8885  0.1018  0.9655
 4303SOL    HW217467  10.593   3.146   6.589  0.5028 -0.8137 -0.7668
 4304SOL     OW17468   1.684   5.451   7.901  0.1557  0.7070 -0.0485
 4304SOL    HW117469   1.702   5.542   7.924  0.1259  0.3976  1.2543
 4304SOL    HW217470   1.770   5.409   7.901 -0.1194 -0.0386  2.9397
 4305SOL     OW17471   5.987   1.923   6.813 -0.1755  0.2571  0.1801
 4305SOL    HW117472   6.025   1.839   6.839  0.0290  0.4483  0.5130
 4305SOL    HW217473   5.990   1.976   6.892  1.4525  1.2182 -0.4543
 4306SOL     OW17474  11.295   3.525   8.795  0.1962 -0.6494 -0.2043
 4306SOL    HW117475  11.372   3.520   8.851  0.0257 -0.9105  0.0095
 4306SOL    HW217476  11.237   3.456   8.828 -0.0476 -0.5781 -0.4836
 4307SOL     OW17477   5.462   3.360   3.428 -0.1661  0.1079 -0.1587
 4307SOL    HW117478   5.481   3.396   3.514  3.0179 -0.6850 -0.3794
 4307SOL    HW217479   5.384   3.307   3.440  0.0684  0.2008  2.1755
 4308SOL     OW17480   1.693   5.750   7.160 -0.3210 -0.3499  0.1185
 4308SOL    HW117481   1.601   5.765   7.183 -0.8133 -0.5608 -1.5710
 4308SOL    HW217482   1.709   5.806   7.084  1.2053  0.2972  0.8649
 4309SOL     OW17483   8.712   0.149   0.737 -0.1631 -0.1115 -0.2502
 4309SOL    HW117484   8.632   0.172   0.688 -1.1379 -0.7564  0.9874
 4309SOL    HW217485   8.713   0.212   0.809 -0.9640 -1.6757  1.1819
 4310SOL     OW17486   2.288   4.850   4.382 -0.3489 -0.3667 -0.0600
 4310SOL    HW117487   2.248   4.804   4.308  1.5009 -3.1873  0.5344
 4310SOL    HW217488   2.269   4.795   4.457  1.4374  0.1469  0.8214
 4311SOL     OW17489   0.310   6.511   0.012  0.1536  0.5672  0.5399
 4311SOL    HW117490   0.389   6.460  -0.001  0.6012  1.5302 -0.7602
 4311SOL    HW217491   0.239   6.455  -0.020  0.6662  0.8199 -1.1086
 4312SOL     OW17492  10.525   9.234  10.812  0.6883  0.2873 -0.2022
 4312SOL    HW117493  10.603   9.250  10.865  0.2953  1.0144  0.1794
 4312SOL    HW217494  10.520   9.309  10.753  0.2575  0.2617 -0.2010
 4313SOL     OW17495  11.135   9.702   5.495  0.0790 -0.3881 -0.2388
 4313SOL    HW117496  11.059   9.708   5.436  0.3215  0.3244 -0.4938
 4313SOL    HW217497  11.211   9.709   5.438  0.3617  3.4333  0.2860
 4314SOL     OW17498  10.370   0.375   5.870  0.7558 -0.1903  0.3834
 4314SOL    HW117499  10.336   0.457   5.907  0.5876  0.5096 -1.2517
 4314SOL    HW217500  10.327   0.306   5.920 -0.3733  0.7124  0.6909
 4315SOL     OW17501   4.194   8.590   4.223 -0.2684  0.6391  0.4428
 4315SOL    HW117502   4.118   8.534   4.239  0.1159  0.3599  1.4054
 4315SOL    HW217503   4.198   8.600   4.128  0.5480 -2.2639  0.0851
 4316SOL     OW17504   5.814   3.512   0.905 -0.8707  0.3050  0.6370
 4316SOL    HW117505   5.733   3.556   0.931 -2.2388 -1.2140 -0.7829
 4316SOL    HW217506   5.852   3.570   0.840 -1.4662  0.4831  0.4365
 4317SOL     OW17507   7.514   0.373  10.107 -0.0696 -0.4423  0.2601
 4317SOL    HW117508   7.597   0.361  10.154  1.1361  0.3335 -1.5803
 4317SOL    HW217509   7.451   0.395  10.176  1.2018 -1.2061  1.7234
 4318SOL     OW17510  10.261   5.387   2.529 -0.2917 -0.3594 -0.0285
 4318SOL    HW117511  10.348   5.422   2.514 -0.1924 -0.3432  0.5571
 4318SOL    HW217512  10.274   5.315   2.590 -0.8135  0.3571  0.9492
 4319SOL     OW17513   5.899  10.375   7.601 -0.5547  0.4936 -0.2822
 4319SOL    HW117514   5.973  10.420   7.641  0.0092  0.5777 -1.3978
 4319SOL    HW217515   5.841  10.445   7.572  0.4314  0.5794 -2.2281
 4320SOL     OW17516   5.759  11.376   3.733  0.2824 -0.3400  0.6324
 4320SOL    HW117517   5.696  11.416   3.674  1.3406 -1.3146 -1.2796
 4320SOL    HW217518   5.785  11.446   3.792 -0.0876  0.9938 -0.7173
 4321SOL     OW17519   3.078   3.122   0.698  0.5688  0.5518  0.1603
 4321SOL    HW117520   3.128   3.204   0.692  0.5308  0.5068 -1.0272
 4321SOL    HW217521   3.104   3.073   0.620 -0.9071  0.2805 -0.1815
 4322SOL     OW17522   5.323   8.498   9.442 -0.4480 -0.7344 -0.4876
 4322SOL    HW117523   5.318   8.435   9.514 -1.0513 -0.2625 -0.1086
 4322SOL    HW217524   5.412   8.533   9.445 -0.5051 -0.6401  0.0941
 4323SOL     OW17525   0.437  10.742   6.284  0.5194 -0.1049  0.6737
 4323SOL    HW117526   0.515  10.795   6.266  1.6301 -1.7728  0.4062
 4323SOL    HW217527   0.455  10.702   6.369  0.9620 -2.1711 -0.3314
 4324SOL     OW17528   4.107  10.530   8.650  0.4131  0.4381 -0.0001
 4324SOL    HW117529   4.046  10.470   8.605  0.2638 -1.0835  2.0878
 4324SOL    HW217530   4.063  10.614   8.650 -1.3291 -0.4271  0.6647
 4325SOL     OW17531   1.057   6.178  11.783 -0.2036  0.6869 -0.2767
 4325SOL    HW117532   1.102   6.156  11.864  1.0303  1.2399 -0.7943
 4325SOL    HW217533   0.979   6.122  11.784  1.1311 -1.2978  0.0324
 4326SOL     OW17534   8.859   9.602   2.834 -0.3526 -0.1457 -0.9442
 4326SOL    HW117535   8.908   9.629   2.756  1.0504  0.6227  0.1416
 4326SOL    HW217536   8.839   9.685   2.879 -1.2110 -0.5715 -0.5261
 4327SOL     OW17537   8.957  10.945   8.344  0.0054 -0.1551 -0.6075
 4327SOL    HW117538   9.015  11.014   8.376  0.6220  0.6496 -3.1972
 4327SOL    HW217539   8.871  10.987   8.339 -0.1812 -0.4111  0.3372
 4328SOL     OW17540   3.586  12.012   9.939  0.2442  0.0090  0.1683
 4328SOL    HW117541   3.563  11.944  10.003  1.1230 -0.1791  0.2928
 4328SOL    HW217542   3.619  11.963   9.864  0.4143  0.2778  0.0681
 4329SOL     OW17543   0.210   3.314   8.849 -0.4375  0.2388 -0.0010
 4329SOL    HW117544   0.124   3.296   8.889 -1.1120  0.5595 -1.2372
 4329SOL    HW217545   0.195   3.300   8.755  1.3602 -1.5256 -0.0827
 4330SOL     OW17546  11.821   5.517   4.548  0.4349  0.5225  0.0373
 4330SOL    HW117547  11.891   5.578   4.572 -0.9142  2.7504 -1.2784
 4330SOL    HW217548  11.768   5.508   4.627  1.3769 -0.0306  0.6196
 4331SOL     OW17549   5.946  11.628   8.665 -0.0943  0.0819  0.3748
 4331SOL    HW117550   6.039  11.631   8.646  0.0253 -0.2482  0.8854
 4331SOL    HW217551   5.940  11.635   8.760 -0.6017  0.3612  0.3285
 4332SOL     OW17552  11.006   0.126   4.645 -0.1617 -0.4670 -0.3791
 4332SOL    HW117553  11.094   0.090   4.657  0.8201  0.9544 -2.6366
 4332SOL    HW217554  10.949   0.068   4.695  1.9020 -2.1968  0.0940
 4333SOL     OW17555   6.317   8.013   3.366 -0.0273  0.4857 -0.0460
 4333SOL    HW117556   6.243   7.953   3.368 -0.0877  0.5589 -0.0390
 4333SOL    HW217557   6.287   8.090   3.416 -0.3551  0.9854 -0.9907
 4334SOL     OW17558   0.007   7.647   0.977 -0.4472  0.0270 -0.7644
 4334SOL    HW117559  -0.020   7.658   1.068  0.9572  1.4910 -0.4946
 4334SOL    HW217560  -0.074   7.654   0.927 -0.9174  1.8919  0.1887
 4335SOL     OW17561   1.109   4.752  11.347 -0.2172  0.0386 -0.5695
 4335SOL    HW117562   1.032   4.809  11.342 -1.5378 -1.5140  0.6497
 4335SOL    HW217563   1.183   4.811  11.356 -1.3061  1.5906 -1.2910
 4336SOL     OW17564   7.295  11.942  11.749 -0.3559  0.9077  0.1190
 4336SOL    HW117565   7.223  11.890  11.784  0.2575 -1.4585 -1.8354
 4336SOL    HW217566   7.360  11.943  11.818  0.3113 -2.5244 -0.3038
 4337SOL     OW17567   0.734   2.854   6.966 -0.0363  0.1971  0.2904
 4337SOL    HW117568   0.765   2.943   6.980 -0.2818  0.6578 -1.7578
 4337SOL    HW217569   0.749   2.809   7.049  0.1408  2.1224  1.3350
 4338SOL     OW17570   5.370   6.969   1.569  0.0479  0.2145 -0.2882
 4338SOL    HW117571   5.460   6.937   1.560  0.8773  2.6904 -2.0193
 4338SOL    HW217572   5.347   6.950   1.660  2.7916  0.5259  0.5636
 4339SOL     OW17573   9.165   0.245   9.857  0.5915  0.6137  0.4454
 4339SOL    HW117574   9.091   0.239   9.917  0.5740  1.8268  0.5691
 4339SOL    HW217575   9.214   0.322   9.886  2.3596 -0.5822  0.8539
 4340SOL     OW17576   5.060   3.453   3.862 -0.7797 -0.5565 -0.4670
 4340SOL    HW117577   5.127   3.396   3.825  0.4329  1.0509 -0.8720
 4340SOL    HW217578   4.997   3.393   3.902 -1.2727 -2.3376 -3.5563
 4341SOL     OW17579   3.798   7.647   9.902  0.1855 -0.1758 -0.1696
 4341SOL    HW117580   3.850   7.605   9.970  1.1566  1.3831  0.1012
 4341SOL    HW217581   3.783   7.579   9.837  1.7037 -0.9402  0.2479
 4342SOL     OW17582   4.295   6.772   6.318 -0.6209 -0.0556 -0.0386
 4342SOL    HW117583   4.228   6.828   6.358 -0.8084  0.7085 -1.3435
 4342SOL    HW217584   4.378   6.814   6.343 -0.5187 -1.5124  2.3350
 4343SOL     OW17585   4.903   1.540   1.923  0.6306 -0.4855  0.3303
 4343SOL    HW117586   4.881   1.557   1.832  1.4410  0.2523  0.2564
 4343SOL    HW217587   4.878   1.449   1.938 -2.8049  0.3277  0.3647
 4344SOL     OW17588   3.443   4.170   6.373  0.2352 -0.0903  0.1246
 4344SOL    HW117589   3.512   4.198   6.313 -0.2595  1.3548  0.1695
 4344SOL    HW217590   3.434   4.076   6.359  1.3769 -0.0819 -0.7409
 4345SOL     OW17591   2.567   7.154   4.369 -0.0511 -0.2398 -0.0333
 4345SOL    HW117592   2.551   7.239   4.328  1.7421  1.2953  2.2250
 4345SOL    HW217593   2.632   7.112   4.313 -0.1747  0.3133 -0.6064
 4346SOL     OW17594   9.164   8.359   7.036 -0.6171  0.1690 -0.2939
 4346SOL    HW117595   9.069   8.351   7.044 -0.5676 -1.9556 -1.2348
 4346SOL    HW217596   9.179   8.386   6.945 -0.2731 -4.8760 -2.0339
 4347SOL     OW17597   3.954   9.216  11.556  0.1872  0.1178 -0.3677
 4347SOL    HW117598   3.964   9.282  11.487 -2.0835  1.9554  0.9073
 4347SOL    HW217599   3.867   9.179  11.541 -0.0592  0.0670  1.0821
 4348SOL     OW17600   0.904  10.467  12.121  0.3602 -0.1918 -0.1131
 4348SOL    HW117601   0.951  10.385  12.132 -0.7409 -0.8538 -0.1874
 4348SOL    HW217602   0.848  10.453  12.045 -0.5372  0.2890  0.4427
 4349SOL     OW17603  10.234   1.404   3.798  0.9876  0.0437  0.0010
 4349SOL    HW117604  10.209   1.386   3.708  0.5451  0.2517  0.0763
 4349SOL    HW217605  10.302   1.340   3.818 -0.2283 -1.2742  0.1190
 4350SOL     OW17606   7.355   9.775   0.541  0.8431 -0.1453  0.2499
 4350SOL    HW117607   7.357   9.689   0.583  0.6274 -0.7811 -0.9947
 4350SOL    HW217608   7.350   9.837   0.613  0.7466 -1.1906  1.1604
 4351SOL     OW17609   1.417   7.258   2.395  0.0911  0.2140 -0.4451
 4351SOL    HW117610   1.394   7.307   2.474  3.5053  1.0142  0.2272
 4351SOL    HW217611   1.435   7.325   2.329  4.8053  0.2376  0.4869
 4352SOL     OW17612   8.308  10.997  11.148  0.0805 -0.0151  1.0144
 4352SOL    HW117613   8.387  11.043  11.120 -0.8346  1.2991  0.4551
 4352SOL    HW217614   8.337  10.909  11.170  1.4974  0.0550 -0.4225
 4353SOL     OW17615   3.240  11.992   2.054 -0.4863 -0.1383  0.1899
 4353SOL    HW117616   3.296  12.000   1.976 -1.0835 -0.4237 -0.2795
 4353SOL    HW217617   3.154  11.969   2.019 -0.7687 -0.2504  0.9397
 4354SOL     OW17618   3.400  10.653   9.191 -0.7343 -0.7274  0.3498
 4354SOL    HW117619   3.335  10.722   9.204 -0.6182 -0.3510 -0.9515
 4354SOL    HW217620   3.363  10.577   9.237 -0.7910  0.2169  1.9349
 4355SOL     OW17621   4.353   3.453   2.577  0.3407  0.0079 -0.5520
 4355SOL    HW117622   4.289   3.450   2.506 -0.4935 -0.0291  0.1940
 4355SOL    HW217623   4.301   3.457   2.657  1.2650 -0.3361  0.0863
 4356SOL     OW17624   8.858   5.958   0.847 -0.4076  0.0554 -0.0013
 4356SOL    HW117625   8.810   6.008   0.780 -1.1135 -1.4447 -0.6677
 4356SOL    HW217626   8.884   5.877   0.803  1.9065  0.3833  0.6516
 4357SOL     OW17627   0.243  10.115  11.958 -0.2522  0.3719 -0.3684
 4357SOL    HW117628   0.217  10.082  11.872  1.6862 -0.2923 -0.7384
 4357SOL    HW217629   0.299  10.190  11.939 -2.5044  2.4187  0.4381
 4358SOL     OW17630   9.653   6.859   1.303  0.1554 -0.2745 -0.4773
 4358SOL    HW117631   9.615   6.886   1.219  0.4284  0.8251 -0.2646
 4358SOL    HW217632   9.626   6.927   1.365 -0.3121 -1.2378  0.4134
 4359SOL     OW17633   6.384  10.709   2.690 -0.1492  0.2924 -0.2691
 4359SOL    HW117634   6.467  10.728   2.735  0.3367 -0.0826 -0.9893
 4359SOL    HW217635   6.410  10.674   2.605 -1.0438 -0.4862 -0.2440
 4360SOL     OW17636   6.329   1.933   5.701  0.6591  0.4071 -0.5311
 4360SOL    HW117637   6.349   1.855   5.650 -0.3136  0.6606 -1.3078
 4360SOL    HW217638   6.272   1.902   5.771  0.9760  0.2775 -0.3277
 4361SOL     OW17639   5.618   6.321   3.070 -0.5986 -0.0327  0.4527
 4361SOL    HW117640   5.578   6.235   3.085  0.9067 -1.2507 -1.8611
 4361SOL    HW217641   5.706   6.313   3.106 -0.4557  0.5125  0.2294
 4362SOL     OW17642   4.823   4.546   7.974  0.0931  0.3446  0.3137
 4362SOL    HW117643   4.823   4.498   7.891 -1.5822 -2.6088  1.8360
 4362SOL    HW217644   4.907   4.523   8.015  0.1693  0.3582  0.1654
 4363SOL     OW17645   4.446   6.878   6.684  0.2489 -0.4334  0.3636
 4363SOL    HW117646   4.470   6.788   6.706  1.1922 -0.2375  0.2098
 4363SOL    HW217647   4.468   6.886   6.591  1.2926  0.2909  0.6555
 4364SOL     OW17648   8.595  12.056   7.280 -0.4879 -0.1474 -0.1503
 4364SOL    HW117649   8.674  12.062   7.334  0.1326  0.0812 -1.0628
 4364SOL    HW217650   8.539  11.995   7.327  1.8179 -3.5646 -1.4123
 4365SOL     OW17651   8.216  10.552   7.323  0.3450  0.1387 -0.4182
 4365SOL    HW117652   8.264  10.607   7.385 -0.6634 -0.0194  0.5331
 4365SOL    HW217653   8.173  10.614   7.264  1.3615  0.2885 -1.0383
 4366SOL     OW17654   1.261   8.283   3.512 -0.2220  0.0060 -0.0009
 4366SOL    HW117655   1.189   8.300   3.572 -0.5935 -1.9521  0.1742
 4366SOL    HW217656   1.229   8.315   3.427  0.4855  3.2070  0.7948
 4367SOL     OW17657   6.081   3.094   2.144  0.3521  0.6372 -0.3002
 4367SOL    HW117658   6.126   3.079   2.227  2.1844  1.7578 -1.0156
 4367SOL    HW217659   6.099   3.016   2.091 -0.2103  0.2412  0.0793
 4368SOL     OW17660   9.707   0.826  11.010  0.4318 -0.3741  0.0381
 4368SOL    HW117661   9.739   0.750  11.059  3.2051  0.0134 -0.9768
 4368SOL    HW217662   9.714   0.899  11.071 -0.3568 -0.5757  0.3894
 4369SOL     OW17663   2.888   2.763  11.381 -0.3017  0.3081 -0.7654
 4369SOL    HW117664   2.801   2.788  11.412 -0.2588 -0.9737  0.4746
 4369SOL    HW217665   2.887   2.782  11.287 -1.1207  2.4617 -0.3695
 4370SOL     OW17666   3.094   9.963   3.952 -0.6308 -0.7137  0.0142
 4370SOL    HW117667   3.089   9.985   3.859 -1.5430 -1.5676 -0.1604
 4370SOL    HW217668   3.158  10.024   3.988  1.0989 -1.5295 -1.4970
 4371SOL     OW17669   0.868   8.114   3.018  0.3862  0.2701  0.2237
 4371SOL    HW117670   0.851   8.029   2.977  2.1421  0.2990 -0.6500
 4371SOL    HW217671   0.907   8.167   2.949 -1.4941  2.1504  0.4836
 4372SOL     OW17672   4.553   2.574   1.795 -0.6774 -0.0116  0.1696
 4372SOL    HW117673   4.467   2.598   1.832 -1.4052  1.1638 -2.1041
 4372SOL    HW217674   4.565   2.633   1.721  2.2154 -0.0434  0.4980
 4373SOL     OW17675   0.225   7.567   5.478 -0.0155  0.7408  0.6191
 4373SOL    HW117676   0.228   7.513   5.558  0.6109 -0.0225  0.0913
 4373SOL    HW217677   0.248   7.507   5.408 -0.7536  1.3625 -0.1715
 4374SOL     OW17678   2.933   2.931   1.848 -0.1447 -0.3160 -0.3219
 4374SOL    HW117679   2.908   2.874   1.921 -2.4738  0.2223 -0.6383
 4374SOL    HW217680   2.986   3.000   1.889 -0.2471 -0.7871  0.6375
 4375SOL     OW17681   0.468   9.039  10.315 -0.5358  0.2047  0.6210
 4375SOL    HW117682   0.380   9.076  10.324  0.2753  2.2024  0.7650
 4375SOL    HW217683   0.508   9.050  10.401 -0.3184 -1.2927  0.7477
 4376SOL     OW17684   1.836   9.316   9.488  0.1914  0.3477  0.0994
 4376SOL    HW117685   1.834   9.227   9.523  2.6310  0.7468  1.3842
 4376SOL    HW217686   1.772   9.314   9.416  0.1734 -2.4250  0.0904
 4377SOL     OW17687   4.411   8.713   0.490 -0.5797  0.4444  0.1475
 4377SOL    HW117688   4.480   8.779   0.503 -1.0577  0.8128  0.8317
 4377SOL    HW217689   4.452   8.631   0.517  0.2396  0.3280 -1.3255
 4378SOL     OW17690   0.134   4.055   0.582  0.2391  0.5522 -0.2996
 4378SOL    HW117691   0.131   4.127   0.646 -0.2715  1.1842 -1.0140
 4378SOL    HW217692   0.115   3.977   0.633  0.4638  0.9592  0.4353
 4379SOL     OW17693   7.524   7.509  12.047 -0.1676 -0.2406 -0.0172
 4379SOL    HW117694   7.501   7.434  12.101  1.0248 -0.5627  0.0809
 4379SOL    HW217695   7.620   7.513  12.051 -0.2423  1.9434  0.8565
 4380SOL     OW17696  10.942   0.132   8.092  0.1053  0.0539 -0.0215
 4380SOL    HW117697  11.020   0.104   8.141  0.8800 -0.2921 -1.4136
 4380SOL    HW217698  10.936   0.226   8.108  0.7884  0.0781  0.1439
 4381SOL     OW17699  11.532   6.419   6.847  0.2868  0.3791 -0.1147
 4381SOL    HW117700  11.540   6.507   6.885  0.5604  0.2054  0.2347
 4381SOL    HW217701  11.619   6.401   6.811  0.5472 -0.1808  0.7701
 4382SOL     OW17702  11.570   2.687   9.386 -0.2623  0.4967  0.1966
 4382SOL    HW117703  11.497   2.664   9.443  0.1147 -0.1358  0.4385
 4382SOL    HW217704  11.628   2.739   9.442  0.5934 -0.9637  0.7098
 4383SOL     OW17705   8.031  10.026   3.088 -0.2292  0.0733 -0.0863
 4383SOL    HW117706   7.984  10.109   3.085 -0.3481  0.0019 -0.2337
 4383SOL    HW217707   8.086  10.026   3.010 -0.4146 -0.0934 -0.2188
 4384SOL     OW17708   6.298   2.975   6.808  0.4642  0.5157  0.2132
 4384SOL    HW117709   6.214   2.931   6.798 -0.5199  2.3936 -0.3567
 4384SOL    HW217710   6.321   3.003   6.719  1.6109  0.2043  0.3899
 4385SOL     OW17711   9.998   5.312   8.780  0.7766 -0.0508 -0.5116
 4385SOL    HW117712   9.995   5.257   8.858  2.5651 -0.3367 -0.5905
 4385SOL    HW217713   9.914   5.357   8.779  0.4152 -0.6139  1.1513
 4386SOL     OW17714   1.482   6.860   7.432  0.4704  0.0200 -0.3983
 4386SOL    HW117715   1.475   6.937   7.376 -0.2604 -0.9417 -1.6926
 4386SOL    HW217716   1.391   6.834   7.448  0.6515  0.4025  1.4700
 4387SOL     OW17717   1.676   0.578   0.841 -0.4429  0.3629 -0.4053
 4387SOL    HW117718   1.691   0.607   0.751  2.2155 -0.8828 -0.4508
 4387SOL    HW217719   1.621   0.500   0.833  0.2361 -0.0531 -0.9843
 4388SOL     OW17720   7.483   6.957   7.123  0.0407  0.4688 -0.3509
 4388SOL    HW117721   7.420   7.022   7.092  0.3342  1.5800  1.2734
 4388SOL    HW217722   7.460   6.877   7.076 -1.2330  1.3831 -1.3456
 4389SOL     OW17723   6.746   1.783   1.535  0.1773  0.8033 -0.2559
 4389SOL    HW117724   6.773   1.789   1.444 -0.3155 -0.6406 -0.5181
 4389SOL    HW217725   6.822   1.746   1.581  1.0158  3.0001  0.2527
 4390SOL     OW17726   4.148  12.009   0.002  0.1403  0.0835 -0.0547
 4390SOL    HW117727   4.129  11.922   0.036 -0.1024 -0.5328 -1.6765
 4390SOL    HW217728   4.107  12.011  -0.084  0.0623  1.8481 -0.0220
 4391SOL     OW17729   9.328   0.077  11.342 -0.4871 -0.7273  0.6515
 4391SOL    HW117730   9.385   0.126  11.401  0.6103  0.9556 -1.6391
 4391SOL    HW217731   9.349  -0.015  11.358  0.7004 -0.2618  1.9195
 4392SOL     OW17732   3.826  11.332   1.231  0.2333  0.2149 -0.1739
 4392SOL    HW117733   3.834  11.338   1.327  2.0086  0.0355 -0.2761
 4392SOL    HW217734   3.915  11.313   1.201 -0.3655 -0.0774 -1.8474
 4393SOL     OW17735   9.323   7.177  10.936  0.0828  0.4447  0.4428
 4393SOL    HW117736   9.276   7.182  11.018 -0.2771 -2.3839  0.5101
 4393SOL    HW217737   9.398   7.120  10.955 -0.2244 -0.5879 -1.2259
 4394SOL     OW17738   1.814   5.822   6.575 -0.8469 -0.2900 -0.0576
 4394SOL    HW117739   1.827   5.823   6.481 -0.4402 -1.7234 -0.0351
 4394SOL    HW217740   1.875   5.887   6.609  1.3125 -1.9520 -0.5505
 4395SOL     OW17741   7.805   4.415   1.826  0.3473 -0.1395 -0.0523
 4395SOL    HW117742   7.727   4.362   1.842  1.2621 -0.5597  4.0410
 4395SOL    HW217743   7.781   4.504   1.854  1.5874 -0.5666  2.7411
 4396SOL     OW17744   9.584   4.960   5.474 -0.5093 -0.3762 -0.1990
 4396SOL    HW117745   9.636   4.881   5.491 -0.5862 -0.2624  0.6342
 4396SOL    HW217746   9.585   5.007   5.558 -2.2411 -0.5451 -0.0605
 4397SOL     OW17747   2.594   2.102   6.342  0.2665  0.2705  0.1181
 4397SOL    HW117748   2.679   2.143   6.352  1.1148 -1.7233  2.0495
 4397SOL    HW217749   2.534   2.159   6.391  1.1500  0.0559  1.5281
 4398SOL     OW17750   8.978   8.377   7.669 -0.2612  0.3337 -0.2015
 4398SOL    HW117751   9.033   8.449   7.640  0.9002 -0.6287 -0.4837
 4398SOL    HW217752   9.005   8.303   7.614 -1.5089 -0.2849 -0.0138
 4399SOL     OW17753   2.837   9.877   4.463 -0.0574 -0.0609 -0.4492
 4399SOL    HW117754   2.835   9.783   4.478 -1.9077  0.2403  1.6958
 4399SOL    HW217755   2.907   9.909   4.520  1.5441 -0.1985 -2.2173
 4400SOL     OW17756   4.404   8.841   4.896 -0.6007 -0.3825 -0.4660
 4400SOL    HW117757   4.487   8.818   4.856 -0.3170  1.4845 -1.0115
 4400SOL    HW217758   4.408   8.801   4.984  1.0138 -0.0130 -0.3432
 4401SOL     OW17759  10.506   0.158   8.336 -0.1597  0.4194  0.2689
 4401SOL    HW117760  10.568   0.125   8.272  0.3367  3.7047 -1.1761
 4401SOL    HW217761  10.549   0.146   8.420 -0.0902 -2.4387 -0.0938
 4402SOL     OW17762   5.429   1.933   3.466  0.4963  0.3666 -0.1248
 4402SOL    HW117763   5.410   1.851   3.420  1.3692  0.3661 -0.5037
 4402SOL    HW217764   5.387   1.923   3.552 -0.9013  0.2495 -0.7945
 4403SOL     OW17765  11.392   9.388   7.951  0.2237  0.2870  0.2217
 4403SOL    HW117766  11.345   9.447   8.009 -0.2637 -0.8826  1.0509
 4403SOL    HW217767  11.349   9.303   7.962  0.4583 -0.0958 -1.4565
 4404SOL     OW17768   7.041   6.634   7.611  0.7547 -0.4680 -0.3068
 4404SOL    HW117769   7.113   6.680   7.568 -0.2703  0.7733 -0.7577
 4404SOL    HW217770   7.018   6.563   7.550 -1.0348  1.5888 -2.2128
 4405SOL     OW17771  10.926   5.998   9.931 -0.3985 -0.2763 -0.7498
 4405SOL    HW117772  10.861   6.013   9.863 -0.9251 -0.1381 -0.2259
 4405SOL    HW217773  10.875   5.989  10.012  0.1357 -1.5208 -0.5312
 4406SOL     OW17774   5.362   4.997   1.759  0.0489 -0.5443  0.2392
 4406SOL    HW117775   5.331   5.032   1.843  3.4706  2.2429  0.5564
 4406SOL    HW217776   5.318   5.052   1.694 -1.1011 -1.4037  0.2677
 4407SOL     OW17777   9.670  11.037   6.765  0.2994 -0.1679  0.0517
 4407SOL    HW117778   9.597  10.976   6.757  0.3027 -0.2211  0.3832
 4407SOL    HW217779   9.676  11.080   6.680  1.7790 -2.2644 -0.9697
 4408SOL     OW17780   7.654  11.627   5.580  0.8135  0.1832  0.2573
 4408SOL    HW117781   7.642  11.563   5.510 -1.5422  1.7177 -0.8595
 4408SOL    HW217782   7.600  11.593   5.652 -0.6694  1.0029 -0.4378
 4409SOL     OW17783  10.954   4.895   6.695  0.4146 -0.0147  0.0311
 4409SOL    HW117784  10.931   4.966   6.755  0.6176 -0.4140  0.5842
 4409SOL    HW217785  10.887   4.899   6.627  0.1072  0.3563  0.3526
 4410SOL     OW17786   8.075   9.129  11.993  0.1588 -0.0139 -0.3127
 4410SOL    HW117787   8.098   9.221  12.000  1.6412 -0.4116  0.5227
 4410SOL    HW217788   8.050   9.117  11.902 -0.1979  1.2409 -0.3894
 4411SOL     OW17789   8.381   4.362   2.118  0.1501 -0.5301  0.1586
 4411SOL    HW117790   8.330   4.420   2.063 -1.3237 -0.7919  1.2043
 4411SOL    HW217791   8.472   4.386   2.100 -0.3154 -0.0357 -1.7139
 4412SOL     OW17792   8.536   0.413   1.543  0.3833 -0.3823  0.0751
 4412SOL    HW117793   8.466   0.356   1.577 -0.2474  0.3745  0.0608
 4412SOL    HW217794   8.616   0.375   1.579  0.2312 -2.5409 -1.5857
 4413SOL     OW17795   7.602   4.257   4.155  0.1168  0.2343 -0.2224
 4413SOL    HW117796   7.663   4.330   4.152 -0.6447  1.0653  2.0655
 4413SOL    HW217797   7.516   4.298   4.145 -0.2729 -0.4336  0.3517
 4414SOL     OW17798   5.887   0.679  11.460  0.2583 -0.0111 -0.3420
 4414SOL    HW117799   5.946   0.709  11.391  0.1908  1.3557  0.1556
 4414SOL    HW217800   5.836   0.757  11.483 -1.4839 -1.0739 -0.4893
 4415SOL     OW17801   9.255   6.253  11.770 -0.1887  0.8553  0.0331
 4415SOL    HW117802   9.225   6.213  11.852 -1.9876  0.1587 -0.9199
 4415SOL    HW217803   9.291   6.180  11.720  3.2765  1.6494  1.1107
 4416SOL     OW17804   4.534  12.061   8.130 -0.2787 -0.6276  0.4157
 4416SOL    HW117805   4.586  11.992   8.172  2.4679  0.3752 -1.0377
 4416SOL    HW217806   4.556  12.054   8.037 -0.1137  1.9867  0.1893
 4417SOL     OW17807   4.441   8.047   8.207 -0.3657  0.3101  0.3167
 4417SOL    HW117808   4.442   7.952   8.217  0.9350  0.3078  0.3666
 4417SOL    HW217809   4.352   8.068   8.180 -0.6085 -0.9463  0.1031
 4418SOL     OW17810   6.185   0.196   1.047  0.2376 -0.1267 -0.5164
 4418SOL    HW117811   6.111   0.202   1.107 -0.6842  0.3371 -1.6634
 4418SOL    HW217812   6.160   0.251   0.973  2.0185  0.5643 -0.6436
 4419SOL     OW17813  10.429   0.362  10.111  0.5157  0.6949  0.4655
 4419SOL    HW117814  10.509   0.375  10.060  0.3959 -0.1063  0.0507
 4419SOL    HW217815  10.376   0.439  10.093  0.3910  0.3374 -0.8102
 4420SOL     OW17816  11.849   8.886   8.213  0.1079  0.3050  0.5040
 4420SOL    HW117817  11.795   8.932   8.148  2.0400 -0.2371 -1.6327
 4420SOL    HW217818  11.789   8.864   8.283 -1.7757  2.3589 -0.3434
 4421SOL     OW17819   2.091   2.005   3.430 -0.4372  0.1408  0.1842
 4421SOL    HW117820   2.024   1.962   3.375  0.5055  1.1563 -1.8811
 4421SOL    HW217821   2.174   1.973   3.395  0.2226 -0.1111  1.8913
 4422SOL     OW17822   4.840   4.566   7.346  0.1775  0.4152 -0.3383
 4422SOL    HW117823   4.812   4.592   7.258 -0.6820  0.4651 -0.0572
 4422SOL    HW217824   4.760   4.564   7.397  0.5448 -0.4759  0.2340
 4423SOL     OW17825   9.100   1.233   0.835 -0.3043 -0.0829  0.1364
 4423SOL    HW117826   9.143   1.148   0.826  0.0637  0.1072  0.0738
 4423SOL    HW217827   9.018   1.224   0.787  0.0699 -0.1715 -0.4933
 4424SOL     OW17828  11.051   7.647   5.587 -0.6409 -0.2711  0.3588
 4424SOL    HW117829  10.992   7.574   5.606 -3.5713  2.0878  1.1000
 4424SOL    HW217830  11.029   7.671   5.497  2.0464 -1.6615 -0.7831
 4425SOL     OW17831   1.740   0.614  10.902  0.3959 -0.4099  0.1643
 4425SOL    HW117832   1.797   0.672  10.852  1.0549 -1.3378 -0.1698
 4425SOL    HW217833   1.654   0.656  10.897  0.5867 -0.1378 -1.1657
 4426SOL     OW17834   5.111   7.686  11.044 -0.2578  0.1527 -0.3091
 4426SOL    HW117835   5.140   7.777  11.036  0.8181 -0.0169  1.2006
 4426SOL    HW217836   5.180   7.635  11.002 -0.5171 -0.0052 -0.5429
 4427SOL     OW17837   5.011   4.817   6.049  0.0809  0.1015 -0.1147
 4427SOL    HW117838   5.016   4.802   5.955 -0.6562 -0.0291 -0.1409
 4427SOL    HW217839   4.918   4.807   6.070  0.1823  0.4984  0.5634
 4428SOL     OW17840  10.943  11.519  10.365 -0.2050  0.0818 -0.5155
 4428SOL    HW117841  10.903  11.527  10.452 -0.6343 -2.4114 -0.3944
 4428SOL    HW217842  10.880  11.558  10.305 -0.8956 -0.0559  0.1085
 4429SOL     OW17843   8.650   1.715   1.903 -0.6356  0.0952  0.0256
 4429SOL    HW117844   8.722   1.654   1.887 -0.2384  0.1330  1.4947
 4429SOL    HW217845   8.611   1.685   1.985 -1.2736  1.0378  0.0849
 4430SOL     OW17846  11.535   2.254  10.335 -0.2259  0.2685 -0.2418
 4430SOL    HW117847  11.518   2.249  10.429  1.1571 -1.0374 -0.0230
 4430SOL    HW217848  11.572   2.341  10.321  0.5742  0.0826  0.6301
 4431SOL     OW17849  10.845   8.156  11.280  0.1484 -0.4809 -0.3142
 4431SOL    HW117850  10.932   8.160  11.318 -0.0173 -0.1475  0.0390
 4431SOL    HW217851  10.787   8.191  11.348 -0.1183  0.3648 -0.9558
 4432SOL     OW17852   6.452   9.336  11.457  0.6966  0.2599  0.2908
 4432SOL    HW117853   6.382   9.270  11.452  1.3792 -0.5203  0.9101
 4432SOL    HW217854   6.469   9.359  11.366  0.6311 -0.6208  0.0461
 4433SOL     OW17855   8.052   7.673   8.125  0.0512 -0.4086 -0.2438
 4433SOL    HW117856   8.050   7.621   8.044 -1.4688  0.0518 -0.5304
 4433SOL    HW217857   8.145   7.679   8.147  0.5389 -0.1584 -2.2116
 4434SOL     OW17858   5.287   1.485   3.508 -0.1973  0.1942  0.1531
 4434SOL    HW117859   5.247   1.403   3.538  0.2472  0.0945  0.4774
 4434SOL    HW217860   5.357   1.502   3.571  1.5444 -0.6419 -1.4449
 4435SOL     OW17861   8.626   0.738  10.391 -0.9197  0.1971 -0.4092
 4435SOL    HW117862   8.715   0.729  10.356 -0.2119  1.8079  0.8120
 4435SOL    HW217863   8.607   0.831  10.380 -1.5644  0.3031  1.3329
 4436SOL     OW17864   1.570   7.009   9.644  0.8043  0.2819  0.4251
 4436SOL    HW117865   1.614   6.964   9.716 -0.3485 -0.3453  0.7632
 4436SOL    HW217866   1.559   6.942   9.577 -1.5434 -0.2320  1.2026
 4437SOL     OW17867   3.921   7.425   2.893 -0.0060  0.1868  0.5780
 4437SOL    HW117868   3.864   7.400   2.966 -0.9673 -0.7309 -0.4417
 4437SOL    HW217869   3.861   7.438   2.819  1.1076 -1.1205 -0.6238
 4438SOL     OW17870   7.315  10.672   3.616  0.1094  0.2465 -0.1503
 4438SOL    HW117871   7.348  10.762   3.612 -1.7677  0.9580 -1.2035
 4438SOL    HW217872   7.299  10.648   3.524 -0.7410 -0.6147  0.2008
 4439SOL     OW17873   4.435   4.920   3.557 -0.3530  0.4352 -0.1302
 4439SOL    HW117874   4.472   5.007   3.571  1.0651  0.1870 -2.0227
 4439SOL    HW217875   4.416   4.916   3.464  0.2535 -1.5067 -0.2168
 4440SOL     OW17876   8.450  10.662   5.114 -1.0966  0.1300  0.1614
 4440SOL    HW117877   8.480  10.731   5.172 -2.3272  0.1470  0.8160
 4440SOL    HW217878   8.362  10.689   5.088 -1.2583 -0.7599 -0.2729
 4441SOL     OW17879   5.617   4.401   6.527  0.0570 -0.3609 -0.1612
 4441SOL    HW117880   5.664   4.465   6.580 -0.7875 -0.5368  0.8231
 4441SOL    HW217881   5.678   4.327   6.519  0.2445 -0.2702  0.4292
 4442SOL     OW17882  11.736  11.432   9.527  1.0565 -0.2890  0.1481
 4442SOL    HW117883  11.689  11.356   9.561 -0.5368  0.5374 -0.1646
 4442SOL    HW217884  11.753  11.486   9.605 -0.7613  0.6005 -0.0176
 4443SOL     OW17885   8.050   3.420   3.822 -0.0669 -0.2196  0.2375
 4443SOL    HW117886   7.997   3.465   3.756  0.3305 -0.8431 -0.5175
 4443SOL    HW217887   8.139   3.424   3.788  0.4517  1.0258  1.6036
 4444SOL     OW17888   6.974   7.896   7.070 -0.0238 -0.4772 -0.0625
 4444SOL    HW117889   6.898   7.844   7.042 -0.7355  1.0597 -1.1324
 4444SOL    HW217890   7.031   7.897   6.993 -0.5876  1.3016 -0.4846
 4445SOL     OW17891   5.590   6.279  10.117 -0.5539 -0.0207  0.4047
 4445SOL    HW117892   5.665   6.245  10.165  1.1060 -0.1787 -2.1176
 4445SOL    HW217893   5.583   6.370  10.144  1.3702  0.3496 -0.2059
 4446SOL     OW17894   0.787   8.196  11.411  0.5713 -0.4216 -0.0499
 4446SOL    HW117895   0.783   8.232  11.499 -0.8983 -1.3866  0.3107
 4446SOL    HW217896   0.863   8.137  11.413  1.6255  0.8903  0.0037
 4447SOL     OW17897  10.053   2.399  11.949 -0.6038 -0.4374  0.2863
 4447SOL    HW117898  10.028   2.474  12.003  1.4120  0.0134  0.6555
 4447SOL    HW217899  10.076   2.436  11.864 -0.2868 -0.7235  0.2435
 4448SOL     OW17900   9.670   9.424  11.191  0.1354  0.5124 -0.4669
 4448SOL    HW117901   9.705   9.340  11.221  0.6362  0.2360 -1.7778
 4448SOL    HW217902   9.576   9.418  11.206  0.3338  0.3073  0.8226
 4449SOL     OW17903   6.591   8.732   1.715 -0.0370  0.0292 -0.0382
 4449SOL    HW117904   6.619   8.758   1.803  1.9247  1.5274 -1.0417
 4449SOL    HW217905   6.589   8.813   1.665 -0.2303 -0.9141 -1.6340
 4450SOL     OW17906   6.701  11.102   1.009  0.1721  0.3089  0.6615
 4450SOL    HW117907   6.725  11.191   0.985 -0.3653  0.2143 -0.2864
 4450SOL    HW217908   6.628  11.112   1.070  2.5295  0.6002  3.6836
 4451SOL     OW17909   5.674   5.747   3.367 -0.1058 -0.4713 -0.1572
 4451SOL    HW117910   5.624   5.684   3.315 -1.8580  0.3070  0.5189
 4451SOL    HW217911   5.679   5.707   3.454 -1.6455  0.4672  0.4079
 4452SOL     OW17912   4.422   2.162   8.974 -0.3109  0.0537 -0.0012
 4452SOL    HW117913   4.494   2.113   9.013 -0.2929 -0.3651 -0.5461
 4452SOL    HW217914   4.352   2.098   8.963  0.0806 -0.1412 -1.7028
 4453SOL     OW17915   6.741   9.333   0.559 -0.3605  0.2675 -0.0618
 4453SOL    HW117916   6.742   9.330   0.654  1.7956 -1.3810 -0.0441
 4453SOL    HW217917   6.754   9.425   0.537 -2.0363  0.8476  1.1606
 4454SOL     OW17918   3.442   5.145   9.117  0.6100  0.0282 -0.2692
 4454SOL    HW117919   3.396   5.204   9.057  1.8186 -0.3961 -1.6929
 4454SOL    HW217920   3.378   5.077   9.137  0.0742  0.3464 -0.8687
 4455SOL     OW17921   5.097   6.145   9.504  0.4019 -0.1072  0.2904
 4455SOL    HW117922   5.108   6.159   9.410 -0.9978  1.6588  0.3304
 4455SOL    HW217923   5.146   6.065   9.522  0.3972 -0.7103 -2.0101
 4456SOL     OW17924   4.354   2.786   3.501  0.0720  0.0515  0.4667
 4456SOL    HW117925   4.286   2.758   3.561  0.1079  1.4175  1.1847
 4456SOL    HW217926   4.424   2.820   3.558  1.0687 -0.7048 -0.2739
 4457SOL     OW17927   6.996  10.758   6.778 -0.3928  0.3475 -0.2386
 4457SOL    HW117928   7.004  10.831   6.840  2.6220 -0.4628  0.5189
 4457SOL    HW217929   7.058  10.780   6.708 -0.4231 -0.8620 -0.6572
 4458SOL     OW17930   7.117   4.945   2.057  0.2514  0.6575 -0.0568
 4458SOL    HW117931   7.056   5.005   2.013 -0.1606 -1.7391 -3.1117
 4458SOL    HW217932   7.067   4.910   2.130 -0.6215  1.6671 -0.1439
 4459SOL     OW17933   9.189   4.559  11.288  0.2757 -0.8625  0.0955
 4459SOL    HW117934   9.107   4.552  11.338  0.4780 -1.2903  0.3748
 4459SOL    HW217935   9.161   4.571  11.198 -0.1002  0.1012  0.3250
 4460SOL     OW17936   4.751  10.844   8.485 -0.4216 -0.4349  0.1351
 4460SOL    HW117937   4.798  10.898   8.548 -0.4913  0.5036 -0.6022
 4460SOL    HW217938   4.703  10.780   8.539 -0.8652  0.6497  1.0581
 4461SOL     OW17939   1.194  10.897  11.785  0.0021 -0.2352 -0.0629
 4461SOL    HW117940   1.287  10.893  11.762  0.4219  0.8125  1.3491
 4461SOL    HW217941   1.158  10.963  11.725 -0.5600 -2.7109 -2.7015
 4462SOL     OW17942   5.936  10.865  10.371 -0.2772  0.1386  0.1260
 4462SOL    HW117943   5.923  10.923  10.446 -1.5179  0.7010 -0.4923
 4462SOL    HW217944   5.942  10.925  10.295  2.5350 -0.2953 -0.1139
 4463SOL     OW17945   4.374   9.391   0.238  0.0298  0.1677  0.2656
 4463SOL    HW117946   4.333   9.473   0.263 -1.1712 -0.2528 -0.2454
 4463SOL    HW217947   4.350   9.329   0.307 -1.1288 -0.3460 -0.5647
 4464SOL     OW17948  10.655   5.692   5.011  0.1269 -0.6288  0.0885
 4464SOL    HW117949  10.577   5.698   5.065  0.3885 -1.9250  0.6491
 4464SOL    HW217950  10.681   5.600   5.015 -0.3414 -1.0151 -2.9554
 4465SOL     OW17951   5.048   9.835   4.455  0.0908  0.0503  0.6309
 4465SOL    HW117952   5.117   9.886   4.498  0.3366  0.1694  0.1065
 4465SOL    HW217953   5.082   9.745   4.453 -0.3348 -0.1393  1.5393
 4466SOL     OW17954   5.892  10.773   0.783 -0.0720  0.1937 -0.3431
 4466SOL    HW117955   5.843  10.692   0.798  0.3415 -0.5391 -2.6378
 4466SOL    HW217956   5.982  10.751   0.808 -0.4866  1.0046  2.1560
 4467SOL     OW17957   0.607   9.513  11.243 -0.1615  0.1359  0.6752
 4467SOL    HW117958   0.544   9.543  11.308 -0.0067  1.5236  0.2159
 4467SOL    HW217959   0.558   9.510  11.161 -0.0836 -0.5469  0.6511
 4468SOL     OW17960   6.099   2.433   1.019 -0.1572 -0.0302  0.5865
 4468SOL    HW117961   6.063   2.516   0.989 -1.3263  0.2634  2.6280
 4468SOL    HW217962   6.194   2.445   1.016 -0.1782  0.1179 -2.3566
 4469SOL     OW17963   5.515   3.722  11.395  0.2393 -0.0503 -0.1924
 4469SOL    HW117964   5.600   3.737  11.436 -0.4735  2.4798  0.4854
 4469SOL    HW217965   5.465   3.673  11.460  0.4948  0.2872  0.2579
 4470SOL     OW17966  11.620   1.266   9.740 -0.3181 -0.0106 -0.3303
 4470SOL    HW117967  11.596   1.207   9.811  1.2299  1.2579  1.3363
 4470SOL    HW217968  11.544   1.266   9.681 -2.2574 -0.0080  2.0383
 4471SOL     OW17969   0.390   8.822  11.829  1.0697 -0.3263 -0.0686
 4471SOL    HW117970   0.421   8.844  11.917 -1.6154  0.0554  0.8594
 4471SOL    HW217971   0.386   8.906  11.783  0.4375 -0.2205  0.1691
 4472SOL     OW17972   8.011   6.280   5.479 -0.4166  0.3322  0.3090
 4472SOL    HW117973   8.076   6.251   5.415  0.1438 -0.2299  1.1275
 4472SOL    HW217974   7.927   6.261   5.437 -0.0680 -1.1345  0.2134
 4473SOL     OW17975   9.460   6.909  10.268  0.0820  0.1183  0.9654
 4473SOL    HW117976   9.532   6.877  10.322  0.3999 -1.2084 -0.1884
 4473SOL    HW217977   9.387   6.850  10.288  0.5314 -1.1095 -0.8316
 4474SOL     OW17978   2.000   9.650   7.643  0.4187  0.6679 -0.4118
 4474SOL    HW117979   1.970   9.739   7.658  0.7729  1.1218 -2.1790
 4474SOL    HW217980   2.030   9.649   7.552  1.0041 -1.0910 -0.2515
 4475SOL     OW17981   0.819   8.335  11.186 -0.4708  0.3470 -0.1819
 4475SOL    HW117982   0.788   8.279  11.115  0.2771 -0.5501  0.1874
 4475SOL    HW217983   0.796   8.288  11.266 -1.1779  1.2850  0.1891
 4476SOL     OW17984  11.741   1.224  11.821 -0.2205 -0.3329 -0.0186
 4476SOL    HW117985  11.721   1.224  11.728 -0.0312 -1.7861 -0.0781
 4476SOL    HW217986  11.676   1.165  11.859  2.3789 -3.3129  0.1158
 4477SOL     OW17987   8.533   9.439   2.848  0.3670 -0.1781 -0.6660
 4477SOL    HW117988   8.532   9.355   2.894 -3.1317 -0.6013 -1.2401
 4477SOL    HW217989   8.559   9.416   2.758 -0.6406 -0.6917 -0.8377
 4478SOL     OW17990   5.106   7.206   9.712  0.0248 -0.1087 -0.1596
 4478SOL    HW117991   5.138   7.163   9.632 -2.0346  0.0994 -1.1574
 4478SOL    HW217992   5.070   7.135   9.765 -1.3838  0.0817 -0.8232
 4479SOL     OW17993  10.688   5.370  11.279  0.0489  0.7547  0.6404
 4479SOL    HW117994  10.602   5.360  11.319 -0.1627 -1.5882 -0.2243
 4479SOL    HW217995  10.691   5.461  11.250 -1.5186  1.2882  1.9919
 4480SOL     OW17996   4.469   1.201   6.862  0.0683  0.5507  0.1935
 4480SOL    HW117997   4.391   1.155   6.893 -1.6437  3.2290  0.2444
 4480SOL    HW217998   4.505   1.243   6.940 -0.2988  1.8600 -0.3190
 4481SOL     OW17999   3.599   3.189   7.463  0.2006  0.1609  0.5727
 4481SOL    HW118000   3.526   3.141   7.503  0.4062 -0.6588 -0.0148
 4481SOL    HW218001   3.599   3.274   7.507  0.7747 -0.8957  2.7440
 4482SOL     OW18002   0.761   8.569   4.311 -0.1559  0.0302  0.2166
 4482SOL    HW118003   0.666   8.566   4.308 -0.1818  0.1512  0.7958
 4482SOL    HW218004   0.781   8.627   4.385  0.3623  1.1689 -0.7914
 4483SOL     OW18005   8.124   1.055   5.254  0.1406  0.0219  0.6675
 4483SOL    HW118006   8.161   0.978   5.298  0.7902 -0.3437 -0.4696
 4483SOL    HW218007   8.191   1.082   5.192  0.4955  2.3543  1.9447
 4484SOL     OW18008   7.131   5.684   7.443  0.3406 -0.9658 -0.6978
 4484SOL    HW118009   7.102   5.627   7.372 -2.6856 -0.4707  0.0206
 4484SOL    HW218010   7.080   5.656   7.519 -0.2642  1.7468  0.0046
 4485SOL     OW18011   8.568   7.384   3.825 -0.4750  0.2288  0.2617
 4485SOL    HW118012   8.631   7.335   3.879 -0.1494  0.4079  0.0503
 4485SOL    HW218013   8.606   7.472   3.820 -0.0053 -0.0341 -1.0544
 4486SOL     OW18014   5.974   5.428   3.919  0.8353  0.7029 -0.2529
 4486SOL    HW118015   6.018   5.436   4.004  0.3750  0.9138 -0.0323
 4486SOL    HW218016   5.898   5.373   3.936  0.8593  0.5643 -0.5777
 4487SOL     OW18017   7.262   8.628   3.841  0.3033 -0.2960  0.3561
 4487SOL    HW118018   7.189   8.566   3.846 -0.9366  1.1119  0.4633
 4487SOL    HW218019   7.245   8.689   3.913  0.6854  0.9940 -0.6318
 4488SOL     OW18020   6.700  10.609   2.384  0.4752  0.3520  0.0886
 4488SOL    HW118021   6.714  10.702   2.401  0.5901  0.2935  0.3210
 4488SOL    HW218022   6.605  10.598   2.383  0.4637  0.4276  0.3081
 4489SOL     OW18023   5.656   6.628   3.471 -0.2391 -0.1380  0.3052
 4489SOL    HW118024   5.737   6.581   3.454 -0.6620 -0.4371 -1.0486
 4489SOL    HW218025   5.681   6.701   3.527  0.7028 -1.0449  1.0975
 4490SOL     OW18026  12.061   1.444   0.350 -0.3911  0.1573  0.8569
 4490SOL    HW118027  12.120   1.481   0.284  1.0385 -0.9435  1.4593
 4490SOL    HW218028  12.015   1.520   0.386 -1.9673  0.7096 -2.0336
 4491SOL     OW18029  11.486   4.586   2.172 -0.1166 -0.1321  0.6377
 4491SOL    HW118030  11.570   4.570   2.216 -0.4107 -1.0756  0.8793
 4491SOL    HW218031  11.491   4.535   2.092 -0.3318  0.0768  0.4896
 4492SOL     OW18032   1.790   1.872   7.677 -0.3069  0.4388  0.0386
 4492SOL    HW118033   1.870   1.858   7.627 -0.3667 -1.6692  0.4304
 4492SOL    HW218034   1.745   1.942   7.630  0.0213 -0.8914 -2.4593
 4493SOL     OW18035   9.101   1.214  11.369  0.0603 -0.3868  0.5010
 4493SOL    HW118036   9.176   1.240  11.315 -1.1695 -2.2861 -2.3679
 4493SOL    HW218037   9.040   1.288  11.363  0.6020  0.0712  0.6233
 4494SOL     OW18038   6.579   3.098   5.792  0.0649  0.4797  0.2355
 4494SOL    HW118039   6.509   3.115   5.854  0.5338 -0.1766  0.9695
 4494SOL    HW218040   6.576   3.004   5.777  0.0592  0.6074 -0.6283
 4495SOL     OW18041   8.711   4.730   8.343 -0.2684  0.4650  0.3569
 4495SOL    HW118042   8.673   4.716   8.256  0.1089  1.8866 -0.0675
 4495SOL    HW218043   8.790   4.782   8.326 -0.0871  0.6014  1.5388
 4496SOL     OW18044  10.053   8.139   3.926 -0.1385  0.1198 -0.0752
 4496SOL    HW118045   9.990   8.205   3.954 -1.0245 -0.3351 -0.9658
 4496SOL    HW218046  10.094   8.109   4.008 -1.6083 -0.1069  0.6071
 4497SOL     OW18047   0.049  10.795  11.248  0.0028 -0.1800  0.1300
 4497SOL    HW118048   0.017  10.706  11.233 -0.5490  0.3711 -2.3430
 4497SOL    HW218049  -0.011  10.851  11.199  1.0830  1.4535  0.5950
 4498SOL     OW18050   0.447   7.360   5.658 -0.2158  0.1354 -0.2811
 4498SOL    HW118051   0.520   7.358   5.720 -0.1568  1.3940 -0.2896
 4498SOL    HW218052   0.480   7.410   5.583 -1.2581  1.2390 -0.0341
 4499SOL     OW18053   7.352  11.387   5.207 -0.0158  0.1484  0.5342
 4499SOL    HW118054   7.401  11.416   5.130  1.1672 -0.1431  1.1444
 4499SOL    HW218055   7.366  11.292   5.209 -1.8452 -0.1722 -0.0880
 4500SOL     OW18056   4.396  10.477   1.784 -0.0934  0.0074  0.2898
 4500SOL    HW118057   4.363  10.485   1.695 -1.1736  0.2956  0.7089
 4500SOL    HW218058   4.491  10.485   1.775 -0.1983  0.0717 -0.8258
 4501SOL     OW18059   7.966   7.323   4.104  0.5418 -0.1681  0.1127
 4501SOL    HW118060   7.992   7.296   4.192 -2.1235  1.2132  1.4049
 4501SOL    HW218061   7.984   7.417   4.101  0.0796 -0.0961 -0.5969
 4502SOL     OW18062   1.604   4.879   9.867 -0.1449  0.2391 -0.5374
 4502SOL    HW118063   1.521   4.832   9.862 -0.0705  0.1893 -1.5955
 4502SOL    HW218064   1.590   4.948   9.932 -1.0487  0.2976 -0.7926
 4503SOL     OW18065   6.697   9.941   2.077  0.3841 -0.4762 -0.3777
 4503SOL    HW118066   6.769   9.928   2.140  0.4669 -2.8621 -0.9007
 4503SOL    HW218067   6.735   9.998   2.010  0.7624  0.8807  0.9250
 4504SOL     OW18068   8.263   4.151   9.146 -0.0938  0.4340  0.2686
 4504SOL    HW118069   8.177   4.156   9.105  0.1442 -0.3450 -0.3399
 4504SOL    HW218070   8.318   4.107   9.082  0.9226  1.4584  0.3953
 4505SOL     OW18071   5.500   3.209   2.387 -0.2480 -0.0263 -0.0135
 4505SOL    HW118072   5.586   3.168   2.375 -1.5194 -2.8749 -0.1528
 4505SOL    HW218073   5.488   3.263   2.309  1.0286 -0.2669 -0.4044
 4506SOL     OW18074  10.539   0.754  10.888 -0.0927 -0.5010  0.1062
 4506SOL    HW118075  10.544   0.665  10.851 -0.6271 -0.7572  0.6216
 4506SOL    HW218076  10.493   0.805  10.821  0.7601 -0.4620 -0.4538
 4507SOL     OW18077   9.691  11.662   6.856  0.6044  0.0007  0.9394
 4507SOL    HW118078   9.730  11.725   6.917  2.0765 -0.7342  0.8023
 4507SOL    HW218079   9.750  11.662   6.780  0.1168 -0.8485  0.5450
 4508SOL     OW18080   6.642   1.181   3.578 -0.0672 -0.3005  0.0596
 4508SOL    HW118081   6.610   1.250   3.636  0.3423 -1.6726  2.0051
 4508SOL    HW218082   6.583   1.184   3.503 -0.5948  1.5718  0.4797
 4509SOL     OW18083   5.142   9.248   8.357  0.1977 -0.3036  0.7642
 4509SOL    HW118084   5.119   9.272   8.267 -0.2875 -0.1992  0.9119
 4509SOL    HW218085   5.237   9.245   8.357  0.2814  1.3463  0.6606
 4510SOL     OW18086   1.066  10.104   8.162  0.2885  0.0380  0.0066
 4510SOL    HW118087   0.971  10.110   8.166  0.4118  2.8212  2.8325
 4510SOL    HW218088   1.096  10.194   8.172  3.2473 -0.7468 -0.8234
 4511SOL     OW18089   6.018   6.673   6.035  0.0844 -0.0280 -0.4198
 4511SOL    HW118090   5.999   6.654   5.943 -0.4685 -0.5154 -0.2179
 4511SOL    HW218091   6.081   6.606   6.061 -0.6096 -0.5898 -0.1512
 4512SOL     OW18092   2.527   6.505   9.712 -0.2650 -0.2755  0.5491
 4512SOL    HW118093   2.581   6.426   9.704 -0.7256 -0.4969 -0.7996
 4512SOL    HW218094   2.568   6.556   9.781 -0.1589 -1.8594  1.7016
 4513SOL     OW18095   0.384   4.789   8.266 -0.5910  0.1189 -0.7557
 4513SOL    HW118096   0.335   4.707   8.261  0.9424 -0.8409 -0.5283
 4513SOL    HW218097   0.427   4.796   8.180  1.1032 -0.5325 -0.0108
 4514SOL     OW18098   3.096   5.232   8.393 -0.7255  0.0330  0.1492
 4514SOL    HW118099   3.031   5.179   8.440  1.2846 -1.1258  1.7919
 4514SOL    HW218100   3.134   5.288   8.461  0.0770  0.6151 -0.7601
 4515SOL     OW18101   4.307   3.168   4.842  0.0672  0.1461  0.0004
 4515SOL    HW118102   4.245   3.132   4.778  0.0818 -0.8943  0.5576
 4515SOL    HW218103   4.254   3.190   4.918  0.0407  1.4535 -0.3760
 4516SOL     OW18104   4.043   6.665   9.021  0.3870 -0.4380  0.5218
 4516SOL    HW118105   3.955   6.651   8.987 -0.3715 -1.9786  2.8786
 4516SOL    HW218106   4.077   6.577   9.039  1.4574  0.2132  1.8690
 4517SOL     OW18107   4.047   3.228   3.607 -0.6068  0.2283  0.9094
 4517SOL    HW118108   4.017   3.270   3.527 -0.6283 -0.5106  0.5258
 4517SOL    HW218109   3.967   3.207   3.655 -0.6017  0.4749  1.0289
 4518SOL     OW18110   7.046   8.569   6.740 -0.0367  0.0938 -0.4960
 4518SOL    HW118111   7.038   8.485   6.785 -1.7981  0.5932  0.2263
 4518SOL    HW218112   6.960   8.583   6.699  0.5685  1.0546 -1.5089
 4519SOL     OW18113   6.150   0.475   3.094  0.0517 -0.2835  0.4016
 4519SOL    HW118114   6.226   0.499   3.041 -0.6897 -0.0602 -0.6064
 4519SOL    HW218115   6.186   0.457   3.181  1.3746 -1.1783 -0.2962
 4520SOL     OW18116   3.251   4.598   9.730 -0.4061 -0.8283 -0.6253
 4520SOL    HW118117   3.261   4.523   9.672  1.2578 -1.5627  0.5419
 4520SOL    HW218118   3.337   4.609   9.770 -1.2948  0.1110  1.1426
 4521SOL     OW18119   2.902  10.855   7.003 -0.9393 -0.1542 -0.1465
 4521SOL    HW118120   2.913  10.844   7.098  1.9881  1.4321 -0.2046
 4521SOL    HW218121   2.935  10.774   6.965  0.9258  0.4448  0.1251
 4522SOL     OW18122   7.069   0.029   3.535 -0.1143 -0.1889 -0.1716
 4522SOL    HW118123   6.990   0.004   3.487 -0.4012  1.8962 -0.9270
 4522SOL    HW218124   7.036   0.057   3.621 -0.2397  0.7551 -0.5136
 4523SOL     OW18125   8.616  10.177   9.889 -0.0959  0.0888 -0.3427
 4523SOL    HW118126   8.666  10.251   9.923  0.2040 -0.0939 -0.3759
 4523SOL    HW218127   8.616  10.113   9.960  1.2688 -0.6410 -0.9634
 4524SOL     OW18128   5.452   4.759   9.338 -0.2847 -0.0288  0.1151
 4524SOL    HW118129   5.457   4.798   9.251 -3.6091 -0.0400 -0.2113
 4524SOL    HW218130   5.499   4.676   9.329 -0.9326 -0.2473 -1.8497
 4525SOL     OW18131   1.421   3.373  11.623 -0.1232 -0.2709 -0.5808
 4525SOL    HW118132   1.476   3.296  11.608 -1.1516 -0.8268 -1.7494
 4525SOL    HW218133   1.332   3.342  11.605 -1.0378  0.2397  2.4939
 4526SOL     OW18134   3.387   9.022   2.370  0.0710  0.1732  0.3851
 4526SOL    HW118135   3.291   9.020   2.360  0.2897  0.9582 -4.3922
 4526SOL    HW218136   3.404   9.102   2.420 -1.7604  1.5087 -0.9829
 4527SOL     OW18137   4.649  11.515   4.235  0.1108  0.5570  0.2935
 4527SOL    HW118138   4.696  11.596   4.216  1.1207  0.0598  0.6275
 4527SOL    HW218139   4.580  11.511   4.169  0.7249  1.1518 -0.3919
 4528SOL     OW18140   1.558   9.070   5.258  1.3414 -0.4161  0.4166
 4528SOL    HW118141   1.635   9.113   5.221  1.6310 -2.4862 -1.5650
 4528SOL    HW218142   1.500   9.055   5.184 -1.5841  1.9866  1.9860
 4529SOL     OW18143   0.834   4.239   6.608 -0.4094 -0.2838 -0.1823
 4529SOL    HW118144   0.816   4.239   6.514 -0.8822  0.3785 -0.1010
 4529SOL    HW218145   0.748   4.241   6.649 -0.2219 -1.2831  0.2805
 4530SOL     OW18146   1.336   8.730   6.984  0.0456  0.3303 -0.3467
 4530SOL    HW118147   1.316   8.644   6.945  0.1715  0.2441 -0.2247
 4530SOL    HW218148   1.406   8.765   6.928  0.2904  0.1657 -0.1484
 4531SOL     OW18149   6.934   2.257   6.601 -0.6921 -0.6878  0.5037
 4531SOL    HW118150   6.898   2.285   6.685  0.6870  1.0380  0.5755
 4531SOL    HW218151   6.914   2.328   6.541  0.2883 -0.8693 -0.0669
 4532SOL     OW18152   4.965   3.971   7.884  0.3004  0.1218 -0.0924
 4532SOL    HW118153   4.942   4.021   7.805 -0.6234 -0.6619 -0.3410
 4532SOL    HW218154   4.913   3.891   7.878  0.4705 -0.1094  1.1437
 4533SOL     OW18155   6.480   3.367  12.044 -0.5730  0.6853 -0.1838
 4533SOL    HW118156   6.530   3.444  12.016  0.5803 -0.1743 -0.5809
 4533SOL    HW218157   6.446   3.329  11.963  1.5525 -0.9868 -0.3802
 4534SOL     OW18158   8.653   8.991  11.715 -0.1247  0.0820  0.0963
 4534SOL    HW118159   8.710   8.930  11.668  0.4547 -0.6869  1.7275
 4534SOL    HW218160   8.574   8.940  11.734  0.9352 -0.7383  2.7472
 4535SOL     OW18161  12.045   2.211   0.893 -0.1425  0.1216 -0.2817
 4535SOL    HW118162  12.010   2.186   0.978  0.0575  0.6206 -0.0465
 4535SOL    HW218163  12.113   2.147   0.874  0.3449  0.4520  0.2962
 4536SOL     OW18164   5.008  10.156   9.484 -0.4835 -0.9149 -0.2201
 4536SOL    HW118165   4.917  10.127   9.495  0.0663 -2.7660 -0.2964
 4536SOL    HW218166   5.047  10.146   9.571 -0.6818  1.2710  0.1789
 4537SOL     OW18167   5.811   1.128   3.385  0.8128 -0.5100 -0.0723
 4537SOL    HW118168   5.794   1.160   3.297  1.2033 -0.4069 -0.1132
 4537SOL    HW218169   5.728   1.138   3.431  1.1797  1.6729  0.2579
 4538SOL     OW18170   6.028  10.079   5.569  0.3539 -0.2144  0.5835
 4538SOL    HW118171   6.098  10.014   5.578  0.5585  0.0700  1.0905
 4538SOL    HW218172   5.972  10.065   5.645 -0.8025 -1.2008 -0.4047
 4539SOL     OW18173   6.044   4.590   4.567  0.1353  0.3267 -0.2273
 4539SOL    HW118174   6.036   4.660   4.503 -0.8788  0.1141 -0.3580
 4539SOL    HW218175   6.007   4.513   4.523  1.0005 -0.2270  0.0031
 4540SOL     OW18176   6.380   1.470   7.822  0.1690  0.2279  0.0887
 4540SOL    HW118177   6.327   1.429   7.891 -0.1414  0.8988  0.2563
 4540SOL    HW218178   6.462   1.494   7.866  0.1906  0.1526  0.0898
 4541SOL     OW18179   4.450   9.956  10.006  0.5407 -0.0183 -0.7379
 4541SOL    HW118180   4.529   9.973  10.056 -0.2613 -1.3432  1.1206
 4541SOL    HW218181   4.418   9.872  10.039 -1.6198  0.4478 -1.4382
 4542SOL     OW18182   1.296   9.419  10.693  0.3006  0.2020  0.3448
 4542SOL    HW118183   1.353   9.381  10.626 -0.7353 -1.7577  0.4930
 4542SOL    HW218184   1.355   9.439  10.766  0.8686 -1.9385  0.5672
 4543SOL     OW18185   8.921   7.841   5.538  0.2659 -0.1209 -0.4180
 4543SOL    HW118186   9.014   7.852   5.556  0.3988 -1.0086 -0.5045
 4543SOL    HW218187   8.878   7.856   5.622  0.3559  1.6500 -0.6652
 4544SOL     OW18188   6.430   9.046   7.901 -0.3846 -0.2978 -0.4030
 4544SOL    HW118189   6.418   9.115   7.965 -0.8218 -1.1051  0.4097
 4544SOL    HW218190   6.399   8.967   7.945 -0.2628 -0.9447 -1.4475
 4545SOL     OW18191   0.069   0.034   6.091  0.3385 -0.1360  0.1354
 4545SOL    HW118192   0.020   0.006   6.168  1.2304 -1.1975  0.3345
 4545SOL    HW218193   0.156  -0.004   6.102  0.4636 -0.3897 -1.4275
 4546SOL     OW18194   9.911   0.577   5.073  0.2639 -0.3594  0.1663
 4546SOL    HW118195   9.885   0.638   5.003 -1.4473  0.0672  1.1304
 4546SOL    HW218196   9.995   0.542   5.043 -0.7555 -0.7855 -2.4876
 4547SOL     OW18197   6.510   9.432  11.203 -0.0074  0.0169  0.0482
 4547SOL    HW118198   6.494   9.522  11.174 -0.9170 -0.9124 -2.6006
 4547SOL    HW218199   6.529   9.383  11.123 -0.0992 -2.2872  1.3320
 4548SOL     OW18200   5.000   8.095   9.179  0.3372 -0.7824 -0.1273
 4548SOL    HW118201   5.007   8.189   9.160  2.0998 -1.2249 -2.1289
 4548SOL    HW218202   4.987   8.090   9.273  1.9450  1.4536  0.2933
 4549SOL     OW18203   3.734   3.990   6.485  0.4577 -0.5788 -0.0576
 4549SOL    HW118204   3.802   3.932   6.449 -0.4701 -2.4361  1.0115
 4549SOL    HW218205   3.665   3.990   6.419  1.1099  0.6284 -0.7666
 4550SOL     OW18206   7.620   4.617   2.069 -0.1914  0.3773 -0.0665
 4550SOL    HW118207   7.529   4.615   2.099 -0.4331 -0.9513 -0.7993
 4550SOL    HW218208   7.664   4.551   2.123  0.1732  0.5096 -0.1993
 4551SOL     OW18209   4.238   9.408   6.268  0.2404 -0.3361 -0.3902
 4551SOL    HW118210   4.329   9.421   6.241  0.2970 -0.6477 -0.3546
 4551SOL    HW218211   4.197   9.493   6.255  0.2211 -0.5144 -1.5933
 4552SOL     OW18212   5.797  10.637  10.309  0.1811 -0.1810  0.3914
 4552SOL    HW118213   5.702  10.628  10.309 -0.1149  2.0613 -0.9088
 4552SOL    HW218214   5.813  10.722  10.351  1.5985 -0.4841  0.5079
 4553SOL     OW18215  10.800   4.870   3.136  0.3965  0.1633  0.1939
 4553SOL    HW118216  10.823   4.937   3.072  1.5141  1.2638  1.6808
 4553SOL    HW218217  10.849   4.793   3.107  0.9103  0.6448 -0.2657
 4554SOL     OW18218   8.606   8.429   5.902 -0.0803 -0.1880 -0.2751
 4554SOL    HW118219   8.517   8.412   5.932  0.0507 -0.3898  0.0071
 4554SOL    HW218220   8.618   8.524   5.914 -0.0355 -0.2632  0.3046
 4555SOL     OW18221   2.668   4.055   7.348 -0.5191  0.2667 -0.0781
 4555SOL    HW118222   2.694   4.140   7.385 -1.8934  0.6647  0.0351
 4555SOL    HW218223   2.596   4.076   7.289 -0.7931 -0.8122 -0.1450
 4556SOL     OW18224   6.793   0.961   2.160 -0.2369  0.3310  0.0664
 4556SOL    HW118225   6.731   1.033   2.157 -0.1673  0.3816 -0.1787
 4556SOL    HW218226   6.789   0.922   2.073 -1.0147 -0.5860  0.4903
 4557SOL     OW18227   3.127   4.163  10.257  0.8871 -0.2522  0.4718
 4557SOL    HW118228   3.167   4.082  10.287  0.5336 -0.7080 -0.2747
 4557SOL    HW218229   3.118   4.216  10.336 -1.2284 -1.9178  1.4489
 4558SOL     OW18230   3.623   6.675   1.681 -0.3731  0.2862  0.2688
 4558SOL    HW118231   3.669   6.707   1.758 -0.4374  2.3896 -0.5040
 4558SOL    HW218232   3.579   6.596   1.711  1.5481 -0.3164  1.7244
 4559SOL     OW18233  12.092  11.144   7.768  0.0222  0.8752 -0.2473
 4559SOL    HW118234  12.036  11.089   7.822  2.7337  1.0843  3.1117
 4559SOL    HW218235  12.114  11.088   7.693  0.0048 -1.4428  1.3552
 4560SOL     OW18236   1.784  10.044   4.991 -0.8668  0.3051  0.2717
 4560SOL    HW118237   1.699  10.088   4.984 -0.4546  1.0210 -0.4366
 4560SOL    HW218238   1.826  10.061   4.907 -0.6203 -1.3360  0.0365
 4561SOL     OW18239   6.348   2.314   3.753 -0.2735  0.5668 -0.6441
 4561SOL    HW118240   6.363   2.378   3.822 -1.8562 -0.5815  0.8430
 4561SOL    HW218241   6.431   2.266   3.746  0.9076  2.6291 -1.7379
 4562SOL     OW18242   0.206  10.398   5.920 -0.4153  0.2437  0.4396
 4562SOL    HW118243   0.273  10.338   5.953 -0.7952 -0.0555  0.6774
 4562SOL    HW218244   0.138  10.341   5.885 -0.3606  0.5540 -0.1851
 4563SOL     OW18245   3.574   0.259   3.363 -0.9389  0.0980 -0.2883
 4563SOL    HW118246   3.649   0.319   3.360  1.7092 -2.7140  1.8525
 4563SOL    HW218247   3.508   0.305   3.415 -0.4264  2.3630 -1.5227
 4564SOL     OW18248   1.951   0.993   7.988  0.2773 -0.1640  0.3326
 4564SOL    HW118249   2.033   0.965   8.029  0.7561  0.2244 -0.3316
 4564SOL    HW218250   1.966   0.980   7.894 -0.0387  0.8816  0.1289
 4565SOL     OW18251   7.620   2.274   8.663  0.5087  0.1243 -0.1414
 4565SOL    HW118252   7.581   2.345   8.614 -0.3328 -0.5966 -0.5375
 4565SOL    HW218253   7.605   2.296   8.755  0.1519  0.3993 -0.2663
 4566SOL     OW18254  10.179   7.604  11.889  0.5633 -0.5208 -0.2370
 4566SOL    HW118255  10.255   7.549  11.906  0.2841 -1.7807 -2.6157
 4566SOL    HW218256  10.215   7.692  11.874  1.0625 -0.0328  2.9792
 4567SOL     OW18257  11.911  12.050   5.595  0.1501  0.4342  0.2617
 4567SOL    HW118258  11.928  12.037   5.688  0.2107  1.7307  0.4470
 4567SOL    HW218259  11.938  12.140   5.578 -0.3919  0.3962 -0.8866
 4568SOL     OW18260   5.279   8.023  10.585  0.3847 -0.1250  0.2344
 4568SOL    HW118261   5.301   8.071  10.505 -1.3566  1.3460  0.5696
 4568SOL    HW218262   5.326   7.940  10.577 -1.4541 -0.9904 -3.3824
 4569SOL     OW18263   2.308  11.616   5.445 -0.5335 -0.5134  0.3430
 4569SOL    HW118264   2.356  11.697   5.456  0.4163 -0.9669 -0.3485
 4569SOL    HW218265   2.231  11.640   5.394 -1.3841  0.3239  1.9626
 4570SOL     OW18266   3.820   7.564  10.210  0.0508  0.1052 -0.3451
 4570SOL    HW118267   3.805   7.528  10.297 -3.4375 -0.0138 -0.8374
 4570SOL    HW218268   3.857   7.492  10.160  0.1991 -0.4498  0.5377
 4571SOL     OW18269  10.824   9.208   3.573 -0.4669 -0.4585  0.2764
 4571SOL    HW118270  10.772   9.288   3.574 -0.4906 -0.4630  1.6137
 4571SOL    HW218271  10.849   9.196   3.481  0.4736  1.7100  0.1871
 4572SOL     OW18272   7.470  10.768  11.204  0.2632 -0.2705 -0.1281
 4572SOL    HW118273   7.559  10.802  11.197  0.3242 -0.3002  0.4108
 4572SOL    HW218274   7.433  10.779  11.117  0.9797 -0.7805 -0.5069
 4573SOL     OW18275   7.519   0.417   5.061 -0.2515  0.0021  0.1654
 4573SOL    HW118276   7.543   0.508   5.040 -0.7392  0.0580 -0.1482
 4573SOL    HW218277   7.534   0.369   4.979 -2.6897  0.3192 -0.5194
 4574SOL     OW18278   5.133   0.823   3.091  0.1848  0.1921 -0.4497
 4574SOL    HW118279   5.090   0.813   3.176  1.3318  1.3420  0.3025
 4574SOL    HW218280   5.115   0.741   3.045 -2.2899  0.3950  0.0345
 4575SOL     OW18281   7.051   4.176   3.787 -0.0483 -0.3122 -0.2912
 4575SOL    HW118282   7.145   4.174   3.803  0.4609  2.7826 -2.1274
 4575SOL    HW218283   7.022   4.261   3.819 -1.9827 -0.6630 -0.9311
 4576SOL     OW18284   2.045  10.317   0.558 -0.0230 -0.0777  0.2874
 4576SOL    HW118285   2.076  10.392   0.507 -0.0490  0.6533  1.3114
 4576SOL    HW218286   2.118  10.255   0.557 -0.4422 -0.6306 -1.6148
 4577SOL     OW18287   3.897   1.172   8.250 -0.2610 -0.0309 -0.2984
 4577SOL    HW118288   3.897   1.077   8.260  2.3206 -0.0622 -0.0807
 4577SOL    HW218289   3.977   1.192   8.202 -0.3941  2.1074  0.2391
 4578SOL     OW18290   2.698   4.653   4.799 -0.3403 -0.1598 -0.3460
 4578SOL    HW118291   2.746   4.573   4.822 -0.7334 -0.6756 -1.2869
 4578SOL    HW218292   2.631   4.661   4.867  1.0596  0.5899  1.0090
 4579SOL     OW18293   6.964   1.017   3.771  0.8709  0.4119 -0.0374
 4579SOL    HW118294   6.948   1.089   3.710  1.6470  0.0506 -0.6723
 4579SOL    HW218295   6.877   0.985   3.793  0.6069 -0.7956 -2.5482
 4580SOL     OW18296  11.464   1.086   0.993 -0.4315 -0.4962 -1.1154
 4580SOL    HW118297  11.463   0.992   1.008  1.2447 -0.7329 -2.2733
 4580SOL    HW218298  11.555   1.112   1.010 -0.4596  0.6026 -2.4800
 4581SOL     OW18299   2.721  10.364   0.892  0.5051  0.3676 -0.0854
 4581SOL    HW118300   2.734  10.430   0.823  0.1504  0.7976  0.2588
 4581SOL    HW218301   2.697  10.285   0.845  1.4639  0.3272 -0.5473
 4582SOL     OW18302   8.261   4.442   1.570  0.3262  0.0881 -0.3460
 4582SOL    HW118303   8.313   4.521   1.556 -2.3337  2.2891  0.9980
 4582SOL    HW218304   8.312   4.390   1.632  1.9574  0.9370 -0.9092
 4583SOL     OW18305   0.114   9.210   2.480  0.8597  0.0629  0.2898
 4583SOL    HW118306   0.085   9.190   2.569  0.5167  0.5878  0.2978
 4583SOL    HW218307   0.125   9.305   2.479 -1.6568  0.4306 -0.9566
 4584SOL     OW18308   7.952   9.361   3.242  0.4301  0.2567  0.1151
 4584SOL    HW118309   8.034   9.410   3.231  1.7064 -2.1781 -2.8173
 4584SOL    HW218310   7.974   9.291   3.303  1.5661 -2.0016 -2.6404
 4585SOL     OW18311   1.613  10.252   5.644  0.6467  0.1731  0.2019
 4585SOL    HW118312   1.657  10.329   5.609 -0.7975  0.9439  0.0152
 4585SOL    HW218313   1.546  10.287   5.703  0.6745 -0.9887  0.9657
 4586SOL     OW18314   6.043   1.956   4.705 -0.0701  0.3295 -0.2297
 4586SOL    HW118315   6.049   1.897   4.631  1.3670 -1.1723  1.0168
 4586SOL    HW218316   5.977   1.917   4.762 -0.4264  0.9231 -0.2205
 4587SOL     OW18317   1.758  10.715   6.753  0.1530 -0.2947  0.3487
 4587SOL    HW118318   1.773  10.758   6.837  1.7480  1.0768 -0.5696
 4587SOL    HW218319   1.843  10.676   6.730  0.4068  1.2353 -1.5870
 4588SOL     OW18320   8.281   0.675   1.909  0.3045 -0.6226  0.0869
 4588SOL    HW118321   8.333   0.755   1.904 -1.0168  0.1981 -2.3424
 4588SOL    HW218322   8.248   0.674   1.999  0.6430  1.3786  0.2934
 4589SOL     OW18323   8.829   5.042   1.768  0.6411 -0.2053  0.0423
 4589SOL    HW118324   8.769   5.104   1.810  2.9443  0.7074  2.2654
 4589SOL    HW218325   8.775   4.965   1.749 -1.5054  1.0758  0.6473
 4590SOL     OW18326   9.567   8.724   8.862  0.2050 -0.0793  0.3643
 4590SOL    HW118327   9.514   8.761   8.792  2.0018  1.0204 -0.4983
 4590SOL    HW218328   9.598   8.799   8.912  1.9754 -0.5415  0.0423
 4591SOL     OW18329   2.688   0.235   7.880 -0.4386  0.1202  0.2314
 4591SOL    HW118330   2.742   0.313   7.892 -0.4191 -0.0003  0.9352
 4591SOL    HW218331   2.665   0.237   7.787  0.6140  0.2735 -0.0357
 4592SOL     OW18332   7.926   3.750   9.093 -0.6822  0.0100 -0.1659
 4592SOL    HW118333   7.852   3.694   9.117 -0.8914  0.3663  0.0215
 4592SOL    HW218334   7.938   3.734   8.999 -0.1871 -0.9992  0.0532
 4593SOL     OW18335   9.871   1.484   2.468 -0.5844 -0.3618  0.2635
 4593SOL    HW118336   9.826   1.416   2.417 -2.6961  0.7336  0.5264
 4593SOL    HW218337   9.867   1.561   2.411 -1.4733  0.4434  1.3727
 4594SOL     OW18338   7.565   5.409   3.116  0.2491 -0.6971 -0.3470
 4594SOL    HW118339   7.654   5.417   3.150  0.2308  0.6796 -0.5901
 4594SOL    HW218340   7.527   5.496   3.125 -0.9383 -1.1572 -0.6536
 4595SOL     OW18341   0.918   1.704   8.100  0.1109  0.2676  0.4099
 4595SOL    HW118342   1.014   1.701   8.101  0.1031 -0.1109  0.3788
 4595SOL    HW218343   0.896   1.788   8.139  0.4991  1.4875 -1.8211
 4596SOL     OW18344   0.912   4.202   0.150  0.0739  0.2242  0.1087
 4596SOL    HW118345   0.919   4.133   0.216  2.3309 -0.4358 -0.7304
 4596SOL    HW218346   0.873   4.159   0.074 -0.1386  0.3308  0.1564
 4597SOL     OW18347   2.791   1.697   8.070  0.3428 -0.1273 -0.6317
 4597SOL    HW118348   2.790   1.750   7.990 -0.2388  0.1428 -0.4475
 4597SOL    HW218349   2.883   1.673   8.082  0.7317  1.4188 -0.3305
 4598SOL     OW18350  11.283   8.825   5.184 -0.4997 -0.0843 -0.5280
 4598SOL    HW118351  11.244   8.760   5.125 -0.8275 -1.9087  1.5815
 4598SOL    HW218352  11.316   8.774   5.258 -0.9853  2.1620  1.3729
 4599SOL     OW18353   2.426   7.805   0.469  0.2505  0.6423 -0.4659
 4599SOL    HW118354   2.401   7.795   0.561  1.1957  1.6826 -0.0659
 4599SOL    HW218355   2.374   7.878   0.437  0.6150  0.9038 -0.4733
 4600SOL     OW18356   2.967   8.007  11.058 -0.2174  0.0803 -0.7966
 4600SOL    HW118357   2.933   8.093  11.034 -0.2095 -0.1935 -1.8186
 4600SOL    HW218358   3.039   8.026  11.118  0.9315  0.8780 -2.3723
 4601SOL     OW18359  11.772   3.122   8.806 -0.2919 -0.0030 -0.0267
 4601SOL    HW118360  11.773   3.151   8.897 -2.7157 -2.3968  0.9105
 4601SOL    HW218361  11.831   3.046   8.804  0.8703  0.8872 -0.8526
 4602SOL     OW18362  12.028   8.606   0.549 -0.1741 -0.4686 -0.0360
 4602SOL    HW118363  12.123   8.613   0.557 -0.0767  0.0878 -1.4716
 4602SOL    HW218364  12.011   8.512   0.545  0.4500 -0.5576 -0.9871
 4603SOL     OW18365  11.043   8.185   9.891  0.4630 -0.0898 -0.5992
 4603SOL    HW118366  11.015   8.267   9.932  0.1926 -0.4257 -0.1062
 4603SOL    HW218367  10.964   8.131   9.888  0.8284 -0.6671 -0.1160
 4604SOL     OW18368   1.636   7.567   4.358 -0.0075 -0.2201  0.2209
 4604SOL    HW118369   1.634   7.619   4.277 -1.4047  1.4911  1.2565
 4604SOL    HW218370   1.547   7.533   4.366  0.0887 -0.2866  1.0823
 4605SOL     OW18371   2.230   5.933  10.013  0.2148 -0.1094 -0.1076
 4605SOL    HW118372   2.197   5.923  10.102 -0.4753 -0.2856 -0.3761
 4605SOL    HW218373   2.152   5.940   9.959  0.5427 -2.2081 -0.9647
 4606SOL     OW18374   4.936   8.105   7.101  0.8882  0.2057  0.1965
 4606SOL    HW118375   4.952   8.121   7.008 -0.3648 -1.0992 -0.2788
 4606SOL    HW218376   4.970   8.017   7.116  1.7079  0.6778  1.1503
 4607SOL     OW18377   9.296  11.639   5.014  0.2260 -0.0052  0.4159
 4607SOL    HW118378   9.326  11.548   5.017 -1.2588 -0.6829 -2.1551
 4607SOL    HW218379   9.343  11.677   4.939  0.5439  1.2679  1.2243
 4608SOL     OW18380   7.302   8.330   7.398 -0.1234 -0.3206 -0.1841
 4608SOL    HW118381   7.212   8.360   7.415 -0.7266 -1.0292 -1.9271
 4608SOL    HW218382   7.348   8.347   7.480 -1.6887  0.6330  0.5563
 4609SOL     OW18383   1.224  10.883   2.336  0.6245  0.0929 -0.2132
 4609SOL    HW118384   1.201  10.807   2.282  0.8496  0.1609 -0.4062
 4609SOL    HW218385   1.148  10.940   2.330  0.2049 -0.3883  0.4216
 4610SOL     OW18386   7.979   6.760   7.335 -0.6520  0.1470 -0.2257
 4610SOL    HW118387   8.017   6.757   7.247  0.8911  0.5304  0.4013
 4610SOL    HW218388   8.054   6.769   7.393 -1.6171 -0.6146  1.1816
 4611SOL     OW18389   4.247   9.503  11.873 -0.0732 -0.9441  0.0618
 4611SOL    HW118390   4.310   9.454  11.820 -0.2485 -2.2746  1.0318
 4611SOL    HW218391   4.268   9.478  11.963 -1.8232 -1.2145  0.4135
 4612SOL     OW18392   3.695   6.332  11.958 -0.1142  0.4868 -0.4712
 4612SOL    HW118393   3.693   6.261  11.895 -1.7403 -0.6734  0.7892
 4612SOL    HW218394   3.724   6.291  12.040 -1.1073  1.2451  0.2910
 4613SOL     OW18395   4.246   1.974   5.085 -0.0055  0.1377 -0.0957
 4613SOL    HW118396   4.288   2.053   5.052 -1.6122  1.1480  0.1749
 4613SOL    HW218397   4.282   1.903   5.031  0.4732  1.2233 -1.2419
 4614SOL     OW18398  10.983   1.487   4.812  0.1777 -0.2715 -0.2937
 4614SOL    HW118399  11.039   1.526   4.879 -0.7152 -1.2443  1.1001
 4614SOL    HW218400  11.040   1.424   4.767  0.2587 -1.3042  1.1518
 4615SOL     OW18401  10.294   5.480  10.866  0.1568 -0.3489  0.6395
 4615SOL    HW118402  10.281   5.546  10.934 -0.5271  0.8072 -0.5641
 4615SOL    HW218403  10.385   5.491  10.838  0.1376 -0.1138  0.6644
 4616SOL     OW18404  11.328   2.362   0.900 -0.3775  0.2113 -0.2887
 4616SOL    HW118405  11.347   2.330   0.812  0.7481 -0.0985  0.0434
 4616SOL    HW218406  11.289   2.448   0.887  0.4583  0.4865 -1.0765
 4617SOL     OW18407   0.820   6.873   4.879 -0.5756  0.3484  0.2239
 4617SOL    HW118408   0.851   6.882   4.789 -0.4439 -2.0886 -0.0527
 4617SOL    HW218409   0.875   6.933   4.929  2.6731 -1.5855 -0.6906
 4618SOL     OW18410   3.836   9.300   6.985  0.1552 -0.1579 -0.2955
 4618SOL    HW118411   3.827   9.263   7.073 -1.6787  0.5409 -0.1681
 4618SOL    HW218412   3.877   9.229   6.934  0.1236 -1.0015  0.8213
 4619SOL     OW18413   1.316  10.474   4.956  0.2026  0.1378 -0.0039
 4619SOL    HW118414   1.388  10.434   4.906  0.7539  1.9565 -0.7376
 4619SOL    HW218415   1.359  10.535   5.016 -0.6435  0.0823  0.6681
 4620SOL     OW18416   9.286   9.998  11.204  0.1358 -0.1103 -0.1432
 4620SOL    HW118417   9.221  10.047  11.154  1.4443  1.1489 -0.6756
 4620SOL    HW218418   9.321  10.061  11.266  0.1778 -1.0439  0.8127
 4621SOL     OW18419  11.758   7.700   1.100  0.2215 -0.2231 -0.7115
 4621SOL    HW118420  11.830   7.739   1.150 -0.2524 -0.9030  0.5310
 4621SOL    HW218421  11.732   7.624   1.151 -1.9641  0.4943 -0.6817
 4622SOL     OW18422   8.424  10.495   0.268 -0.3320  0.0948 -0.2462
 4622SOL    HW118423   8.511  10.470   0.237 -0.3526 -0.2560 -0.0282
 4622SOL    HW218424   8.371  10.498   0.188 -0.4477 -1.0721 -0.2347
 4623SOL     OW18425  10.391  11.920   3.508 -0.0916  0.5605 -0.1833
 4623SOL    HW118426  10.326  11.851   3.494  0.4537 -0.5122  2.1792
 4623SOL    HW218427  10.340  12.000   3.510 -0.8340  0.2095 -2.1635
 4624SOL     OW18428   5.433  10.938   5.772  0.2453  0.5949  0.4806
 4624SOL    HW118429   5.361  10.998   5.792  1.4383  1.7273  1.5725
 4624SOL    HW218430   5.402  10.853   5.803 -1.3481  0.6668 -0.8052
 4625SOL     OW18431   6.172   7.072   5.288  0.3151 -0.0581  0.2865
 4625SOL    HW118432   6.187   7.094   5.380 -0.0039 -0.1540  0.3602
 4625SOL    HW218433   6.084   7.104   5.270  0.6805  0.7194 -0.2174
 4626SOL     OW18434   4.363   0.521   7.774  0.0775  0.5417 -0.1224
 4626SOL    HW118435   4.408   0.465   7.838  1.0683 -0.5465 -1.6923
 4626SOL    HW218436   4.278   0.480   7.762  0.3799 -0.0006 -0.4456
 4627SOL     OW18437   5.548   0.150   6.466 -0.4531 -0.1706 -0.3307
 4627SOL    HW118438   5.609   0.221   6.485 -0.6942  0.1348 -0.6642
 4627SOL    HW218439   5.601   0.071   6.466  0.0428  0.1558 -1.1557
 4628SOL     OW18440  10.642   3.151   7.131 -0.2960 -0.3105  0.0957
 4628SOL    HW118441  10.704   3.083   7.157  0.3200 -1.1394 -3.1333
 4628SOL    HW218442  10.587   3.110   7.065 -1.7922  1.5349  0.1195
 4629SOL     OW18443   2.215   2.921   3.587 -0.4171 -0.6219 -0.2566
 4629SOL    HW118444   2.156   2.980   3.540  2.3134  2.1882 -0.5218
 4629SOL    HW218445   2.293   2.917   3.533  1.2336 -0.7257  1.9808
 4630SOL     OW18446  10.990   6.564   9.875 -0.4393  0.1119  0.0449
 4630SOL    HW118447  10.935   6.496   9.914 -0.8808  0.1403 -0.5265
 4630SOL    HW218448  11.043   6.597   9.948  0.4309 -1.4612  0.1776
 4631SOL     OW18449   8.601   1.205   5.340 -0.3385  0.3055  0.1275
 4631SOL    HW118450   8.584   1.223   5.247 -0.4661  1.9061  0.4340
 4631SOL    HW218451   8.693   1.178   5.343 -0.1965  0.7255 -0.3987
 4632SOL     OW18452  10.914   5.753   1.651 -0.2608  0.2123 -0.3618
 4632SOL    HW118453  10.954   5.829   1.610  0.0923  0.5060  0.5114
 4632SOL    HW218454  10.931   5.764   1.744  0.9076 -1.5688 -0.3240
 4633SOL     OW18455  11.364  10.052   3.124  0.3833 -0.4759  0.3101
 4633SOL    HW118456  11.307  10.100   3.185  0.7865 -0.4308  0.6544
 4633SOL    HW218457  11.436  10.112   3.106  1.0020 -1.0187  0.9081
 4634SOL     OW18458   6.145   1.973   5.468 -0.6912 -0.0472 -0.1932
 4634SOL    HW118459   6.094   2.051   5.448 -2.4619 -0.2065  2.9801
 4634SOL    HW218460   6.227   2.007   5.504 -0.6229  0.3034 -0.6727
 4635SOL     OW18461  11.512   6.350  11.516  0.2540 -0.2605 -0.3162
 4635SOL    HW118462  11.591   6.327  11.565  0.4746 -0.4193 -0.7355
 4635SOL    HW218463  11.481   6.266  11.480  0.0551 -0.1584 -0.3855
 4636SOL     OW18464   1.855   6.595   2.609  0.1745 -0.1121  0.1284
 4636SOL    HW118465   1.900   6.518   2.647 -0.0551  0.1272  0.9102
 4636SOL    HW218466   1.782   6.611   2.668 -1.6994 -1.2087 -1.7637
 4637SOL     OW18467   1.084  11.438   5.912 -0.1957  0.2492 -0.1766
 4637SOL    HW118468   1.095  11.524   5.870  0.5739 -0.2784 -1.0805
 4637SOL    HW218469   0.989  11.428   5.919 -0.4054  2.7368  3.2872
 4638SOL     OW18470   9.062  11.515   7.659  0.7818  0.0881  0.1095
 4638SOL    HW118471   9.017  11.499   7.576  0.8478  1.5926 -0.2379
 4638SOL    HW218472   8.996  11.499   7.726  0.0329  1.1691 -0.3486
 4639SOL     OW18473   4.525   6.281   5.229 -0.2174  0.8061  0.1299
 4639SOL    HW118474   4.565   6.199   5.260  1.2064  0.6603 -1.8838
 4639SOL    HW218475   4.525   6.338   5.306  4.1502  0.8668  0.3452
 4640SOL     OW18476   1.464   4.978   7.769 -0.2041  0.1329  0.0894
 4640SOL    HW118477   1.512   4.907   7.812  0.8353  0.5795 -0.3113
 4640SOL    HW218478   1.530   5.044   7.749 -0.3210 -0.5743 -3.3259
 4641SOL     OW18479   4.084   4.040  10.965  0.8087  0.0185 -0.0160
 4641SOL    HW118480   4.085   4.015  11.057  0.6571  0.1242  0.0149
 4641SOL    HW218481   4.121   3.964  10.919  1.5772  0.2554  0.1989
 4642SOL     OW18482  10.105   0.736   6.445  0.0211  0.5497  0.0660
 4642SOL    HW118483  10.175   0.767   6.503  0.1983  1.0138 -0.3853
 4642SOL    HW218484  10.026   0.775   6.481 -0.0471 -0.1656  0.7167
 4643SOL     OW18485   3.294  10.069  10.552  0.7789 -0.3158  0.2898
 4643SOL    HW118486   3.369  10.122  10.578 -0.4813  3.2004 -2.4553
 4643SOL    HW218487   3.218  10.124  10.570 -0.8058 -1.8871 -1.1198
 4644SOL     OW18488   8.113  11.305   6.991 -0.3422  0.2050  0.6702
 4644SOL    HW118489   8.151  11.390   7.014 -1.3657  0.6661  0.6915
 4644SOL    HW218490   8.173  11.269   6.926 -1.1084  2.0166 -1.1708
 4645SOL     OW18491  10.451   0.047   9.477  0.5032 -0.0840 -0.4469
 4645SOL    HW118492  10.474   0.123   9.424 -1.0436  2.1093  1.8207
 4645SOL    HW218493  10.368   0.017   9.441  1.4630 -1.2654 -1.8074
 4646SOL     OW18494   9.913   2.158   9.444 -0.1514 -0.3144 -0.6552
 4646SOL    HW118495   9.914   2.250   9.470  0.2081 -0.2714 -0.8186
 4646SOL    HW218496   9.832   2.123   9.483 -0.1492  0.0008 -0.3618
 4647SOL     OW18497   3.327  10.345   6.259 -0.0974 -0.3622  0.0701
 4647SOL    HW118498   3.289  10.363   6.173  1.3189 -2.3017 -1.0439
 4647SOL    HW218499   3.253  10.317   6.312 -1.0491  1.1375 -0.3742
 4648SOL     OW18500  11.948   0.280   6.108  0.0247 -0.6767 -0.2117
 4648SOL    HW118501  12.038   0.312   6.110 -0.2113  0.0396  2.0854
 4648SOL    HW218502  11.951   0.198   6.158 -0.5399 -0.8666 -0.4805
 4649SOL     OW18503  10.669   2.864   7.052  0.2067 -0.5209 -0.4421
 4649SOL    HW118504  10.689   2.906   6.968  0.2165 -3.3072 -1.9346
 4649SOL    HW218505  10.585   2.820   7.037  0.2417 -1.1192  0.9930
 4650SOL     OW18506   4.701   2.815   2.953 -0.0006  0.0617  0.0247
 4650SOL    HW118507   4.703   2.906   2.921  0.9275  0.3426  0.8257
 4650SOL    HW218508   4.707   2.762   2.873 -1.3221  0.6718 -0.5163
 4651SOL     OW18509   0.402   3.261   4.676  0.2706  0.6394 -0.1444
 4651SOL    HW118510   0.438   3.258   4.587 -1.4835  2.4661 -0.9932
 4651SOL    HW218511   0.446   3.189   4.722  1.8563  0.1738 -2.2290
 4652SOL     OW18512   5.723   9.562   3.313  0.5194  0.1788 -0.5733
 4652SOL    HW118513   5.649   9.559   3.253 -1.1650  1.6414  1.2524
 4652SOL    HW218514   5.791   9.610   3.266 -0.5452  0.8173 -1.5067
 4653SOL     OW18515   8.666   8.233   5.736  0.2203 -0.2004 -0.6870
 4653SOL    HW118516   8.570   8.233   5.729  0.1233 -1.6131  0.3698
 4653SOL    HW218517   8.685   8.309   5.791 -0.4434 -0.9881  0.6589
 4654SOL     OW18518  11.739   6.919   9.642 -0.0150  0.4054  0.6276
 4654SOL    HW118519  11.650   6.887   9.657 -0.2332  0.0253 -1.1662
 4654SOL    HW218520  11.727   7.012   9.622  0.0786  0.5217  1.1058
 4655SOL     OW18521   4.980   7.469   6.157  0.4487 -0.1477 -0.5419
 4655SOL    HW118522   4.906   7.408   6.153  0.6115 -0.4464  0.5373
 4655SOL    HW218523   5.044   7.434   6.094  1.5134 -2.4812  1.6467
 4656SOL     OW18524   6.470   7.417   6.104 -0.0745 -0.0523 -0.4481
 4656SOL    HW118525   6.425   7.416   6.189  1.1689  2.1486  0.3207
 4656SOL    HW218526   6.494   7.326   6.089 -1.3405 -0.6762  0.9790
 4657SOL     OW18527   7.881   4.485   2.953  0.0025  0.3832  0.5461
 4657SOL    HW118528   7.924   4.469   2.869 -0.8143  1.7442 -0.1605
 4657SOL    HW218529   7.828   4.406   2.968 -1.1397  0.7999 -1.0645
 4658SOL     OW18530   5.831   7.574   5.206  0.1821 -0.0935 -0.5061
 4658SOL    HW118531   5.775   7.523   5.148 -0.7572  0.1832  0.1152
 4658SOL    HW218532   5.834   7.523   5.287  1.2701 -0.3544 -0.6961
 4659SOL     OW18533   3.901   2.083   9.369  0.2003 -0.2257  0.2299
 4659SOL    HW118534   3.869   2.147   9.304  1.3080  1.6370  1.4326
 4659SOL    HW218535   3.854   2.002   9.348  0.3437  0.3469 -2.7460
 4660SOL     OW18536   9.201   7.582  10.209  0.3335  0.0867  0.2369
 4660SOL    HW118537   9.253   7.632  10.146  1.5707  1.5513  2.2917
 4660SOL    HW218538   9.112   7.613  10.197  0.5103  0.1868 -0.9120
 4661SOL     OW18539   7.426   1.025   9.321  0.3104 -0.3299  0.1982
 4661SOL    HW118540   7.415   1.011   9.415 -1.1782 -2.7540 -0.2611
 4661SOL    HW218541   7.381   1.108   9.304  0.8860  0.3050  1.6469
 4662SOL     OW18542   0.131   8.362   3.362  0.6837 -0.0065 -0.0537
 4662SOL    HW118543   0.113   8.303   3.288 -0.9036 -0.8821  0.9579
 4662SOL    HW218544   0.226   8.360   3.372  0.7406 -1.8530 -0.5350
 4663SOL     OW18545   5.412   6.567   4.015  0.0596 -1.1420  0.3903
 4663SOL    HW118546   5.361   6.588   3.937  0.6908  3.4588  0.9608
 4663SOL    HW218547   5.346   6.559   4.084 -0.4067 -4.1629 -0.2727
 4664SOL     OW18548   7.659   0.510   5.309 -0.0643 -0.4127 -0.2059
 4664SOL    HW118549   7.655   0.465   5.225  3.0773  0.5460 -0.9769
 4664SOL    HW218550   7.738   0.476   5.351  0.7069  2.1156  0.5249
 4665SOL     OW18551  10.460   5.451   6.183  0.2309  0.4897  0.0543
 4665SOL    HW118552  10.418   5.497   6.255 -0.6779 -0.1513 -0.0501
 4665SOL    HW218553  10.554   5.463   6.199  0.0979 -0.6748  2.0661
 4666SOL     OW18554   5.321   9.729   9.915  0.2580 -0.1021 -0.0860
 4666SOL    HW118555   5.403   9.764   9.881  1.2310 -0.4713  1.7383
 4666SOL    HW218556   5.344   9.641   9.945 -0.9667 -0.4498 -0.1223
 4667SOL     OW18557   0.573   9.228   2.528 -0.7463 -0.0778 -0.1162
 4667SOL    HW118558   0.538   9.315   2.548  3.0221  0.9438  3.4329
 4667SOL    HW218559   0.584   9.186   2.613  2.4974 -1.8118 -1.2088
 4668SOL     OW18560   9.832   3.570  10.746 -0.1488 -0.3228  0.0697
 4668SOL    HW118561   9.867   3.481  10.740 -0.2200 -0.3815  0.5163
 4668SOL    HW218562   9.854   3.599  10.835 -2.6967 -0.9889  0.9916
 4669SOL     OW18563   4.232  11.753  11.236 -0.1433 -0.1465  0.3687
 4669SOL    HW118564   4.146  11.775  11.273 -0.3157  2.0175 -1.1236
 4669SOL    HW218565   4.294  11.801  11.290  0.1359 -1.5004  1.2827
 4670SOL     OW18566  11.249  11.907   0.215  0.2483 -0.1878  0.8869
 4670SOL    HW118567  11.187  11.876   0.281  3.1168 -1.2485  3.3264
 4670SOL    HW218568  11.288  11.827   0.179  1.0444  0.4360  0.3106
 4671SOL     OW18569   3.485   4.775   6.105 -0.5203 -0.0371 -0.1765
 4671SOL    HW118570   3.442   4.853   6.140  0.2934 -0.0322  0.8820
 4671SOL    HW218571   3.413   4.712   6.093 -0.8735 -0.0550  1.6246
 4672SOL     OW18572   1.902   0.857   8.601 -0.1727  0.5443  0.0080
 4672SOL    HW118573   1.844   0.827   8.670  0.5263 -0.8528  0.0173
 4672SOL    HW218574   1.916   0.781   8.546  1.3085  0.9493 -0.2255
 4673SOL     OW18575   6.919   4.909  11.121  0.9264  0.6373  0.5407
 4673SOL    HW118576   6.960   4.852  11.056  0.1065  0.6942 -0.0431
 4673SOL    HW218577   6.858   4.852  11.169  1.5291  0.5932  1.2755
 4674SOL     OW18578  11.380   5.819   0.191  0.8784 -0.4431  0.1295
 4674SOL    HW118579  11.405   5.911   0.191  0.1610 -0.1899  2.4060
 4674SOL    HW218580  11.359   5.800   0.099 -2.2537  2.5749  0.0437
 4675SOL     OW18581   1.026   6.542   9.556 -0.0756  0.5509 -0.0364
 4675SOL    HW118582   0.949   6.531   9.611  0.1561 -0.9056  0.0285
 4675SOL    HW218583   1.009   6.623   9.507 -1.1260  0.8495  0.7793
 4676SOL     OW18584  12.022   5.872   5.693 -0.5765 -0.2515 -0.1043
 4676SOL    HW118585  12.105   5.919   5.685 -0.6172 -0.0313  0.6943
 4676SOL    HW218586  12.044   5.793   5.742 -0.8193 -0.2340  0.0341
 4677SOL     OW18587   3.522   8.582  11.577 -0.4517 -0.2851  0.1765
 4677SOL    HW118588   3.429   8.601  11.586 -1.0438 -3.0270  0.5496
 4677SOL    HW218589   3.527   8.488  11.566  2.3468 -0.3224  0.9423
 4678SOL     OW18590  10.763   9.956   8.084  0.4221 -0.1518 -0.2264
 4678SOL    HW118591  10.705   9.972   8.008  0.0407  0.0408  0.1008
 4678SOL    HW218592  10.763   9.861   8.093  0.5415 -0.1827 -0.5256
 4679SOL     OW18593   4.969  11.336   8.616  0.4183 -0.0848  0.1369
 4679SOL    HW118594   4.885  11.304   8.582 -1.0330  1.5110  1.9664
 4679SOL    HW218595   4.948  11.370   8.703  2.3141  3.2213 -0.5321
 4680SOL     OW18596   5.642   1.517   9.679 -0.1551 -0.2361  0.0378
 4680SOL    HW118597   5.726   1.475   9.698 -1.3920 -2.4755  0.9748
 4680SOL    HW218598   5.617   1.481   9.594 -0.7976 -0.6958  0.4136
 4681SOL     OW18599   0.399  10.980  10.114 -0.2493 -0.2654 -0.1138
 4681SOL    HW118600   0.410  10.886  10.103 -0.4313 -0.2745 -0.2150
 4681SOL    HW218601   0.323  11.002  10.060 -0.7401 -0.2007  0.5906
 4682SOL     OW18602   8.161   9.192  11.229 -0.3766 -0.5465 -0.7601
 4682SOL    HW118603   8.222   9.258  11.261 -1.5039 -0.5273  1.5659
 4682SOL    HW218604   8.207   9.149  11.158  2.4412 -0.7018  1.0156
 4683SOL     OW18605   9.254   1.163   8.614  0.3179  0.0963  0.5303
 4683SOL    HW118606   9.176   1.169   8.670 -0.8097 -0.8460 -0.8737
 4683SOL    HW218607   9.286   1.073   8.628 -1.1811 -0.8714 -1.8098
 4684SOL     OW18608   7.883   5.662  10.364 -0.1319 -0.6504 -0.1955
 4684SOL    HW118609   7.971   5.693  10.387  0.3327 -0.5856 -1.8905
 4684SOL    HW218610   7.889   5.567  10.370  0.5770 -0.7476 -1.8671
 4685SOL     OW18611   2.827   0.633   4.697 -0.3015 -0.1797  0.1935
 4685SOL    HW118612   2.917   0.645   4.668 -0.2396  0.0066  0.4566
 4685SOL    HW218613   2.782   0.713   4.670 -0.3856 -0.2696  0.0690
 4686SOL     OW18614   6.995   4.351   0.218  0.6377  0.0419  0.0798
 4686SOL    HW118615   6.950   4.434   0.236  1.3469  0.3483  0.5100
 4686SOL    HW218616   6.951   4.287   0.274  0.3919  0.2318  0.1032
 4687SOL     OW18617   0.781   2.267   0.832 -0.1308  0.1144 -0.1899
 4687SOL    HW118618   0.775   2.172   0.845 -0.5282 -0.1023 -1.6688
 4687SOL    HW218619   0.859   2.279   0.777 -2.4033  0.0808 -3.8027
 4688SOL     OW18620  12.054   3.321   9.829 -0.4860 -0.1432 -0.6704
 4688SOL    HW118621  12.135   3.356   9.865 -0.4593 -1.9097  1.1094
 4688SOL    HW218622  12.083   3.256   9.765 -0.5210  0.0622 -0.8978
 4689SOL     OW18623   3.800  10.208   8.849 -0.0878 -0.0641 -0.0507
 4689SOL    HW118624   3.732  10.259   8.806 -0.2836 -0.5270 -0.2960
 4689SOL    HW218625   3.850  10.169   8.778 -0.7863 -1.3273  0.1108
 4690SOL     OW18626   5.825  11.346  10.735 -0.2487 -0.1063  0.1379
 4690SOL    HW118627   5.914  11.358  10.703 -0.5140  0.9200 -0.2583
 4690SOL    HW218628   5.833  11.352  10.830  0.5227 -3.0657  0.3519
 4691SOL     OW18629  11.144   2.053   8.850  0.1580  0.3925 -0.0411
 4691SOL    HW118630  11.069   2.013   8.894 -0.0072  1.7308  0.9547
 4691SOL    HW218631  11.215   1.990   8.863 -0.1778  0.2455  1.2130
 4692SOL     OW18632   1.062  12.093   0.335 -0.0092  0.3023  0.2250
 4692SOL    HW118633   1.026  12.023   0.281  0.2056  0.6143 -0.3318
 4692SOL    HW218634   0.985  12.137   0.371 -0.2422  1.3385 -1.4383
 4693SOL     OW18635   4.172   1.389   8.203  0.0121 -0.1592  0.0401
 4693SOL    HW118636   4.175   1.473   8.249 -0.9480 -0.4311  0.6293
 4693SOL    HW218637   4.215   1.328   8.263 -0.2146 -0.2920  0.0662
 4694SOL     OW18638   5.388   5.108   1.038 -0.3395 -0.0123 -0.8050
 4694SOL    HW118639   5.396   5.186   1.093  0.8225  1.0110 -2.3572
 4694SOL    HW218640   5.444   5.126   0.962  0.1575 -2.4533 -1.0969
 4695SOL     OW18641   8.908   7.310  10.900 -0.5021  0.1159 -0.0844
 4695SOL    HW118642   8.820   7.283  10.877 -0.0729 -0.9652 -0.5288
 4695SOL    HW218643   8.933   7.371  10.830 -1.1950  1.1401  0.5215
 4696SOL     OW18644  10.250   5.984   3.960 -1.0259  0.0583  0.6213
 4696SOL    HW118645  10.325   5.939   3.998 -1.0446 -0.3860  0.1311
 4696SOL    HW218646  10.194   6.005   4.036 -1.0099 -0.7263  0.8560
 4697SOL     OW18647   5.471   1.944   4.221 -0.6320 -0.1247 -0.0641
 4697SOL    HW118648   5.395   1.930   4.277 -0.1501 -0.1313  0.5883
 4697SOL    HW218649   5.454   2.027   4.178 -2.3278 -1.4066 -2.0667
 4698SOL     OW18650   0.172   0.921   5.024  0.2794  0.1413 -0.7113
 4698SOL    HW118651   0.204   0.936   5.112 -0.9379  0.7233 -0.3567
 4698SOL    HW218652   0.223   0.845   4.993  0.4399 -0.3194  0.6199
 4699SOL     OW18653   0.225   2.906   9.849 -0.1969  0.3674  0.0114
 4699SOL    HW118654   0.314   2.941   9.838 -0.1468  0.2346 -0.0085
 4699SOL    HW218655   0.185   2.913   9.762 -0.5767  1.4285  0.2485
 4700SOL     OW18656   5.343   4.033  11.571  0.4819  0.1759 -0.1852
 4700SOL    HW118657   5.292   4.062  11.647 -0.5100  0.9667 -1.1113
 4700SOL    HW218658   5.426   4.004  11.607 -0.2448 -0.1825  1.2789
 4701SOL     OW18659   4.523  10.980  10.178  0.3761 -1.2408  0.3151
 4701SOL    HW118660   4.538  10.938  10.262  0.0932  0.2228  1.1354
 4701SOL    HW218661   4.444  10.937  10.144 -0.7245 -0.4701  1.7748
 4702SOL     OW18662   1.783  10.064   1.433 -0.3961 -0.0238 -0.7341
 4702SOL    HW118663   1.712  10.128   1.434 -0.7867 -0.4562  0.5024
 4702SOL    HW218664   1.863  10.118   1.434 -0.7197  0.4573  0.1524
 4703SOL     OW18665   5.921   7.176   8.978  0.0871 -0.1831 -0.9577
 4703SOL    HW118666   5.846   7.221   8.940 -0.2623  0.8782  0.8506
 4703SOL    HW218667   5.896   7.084   8.978 -0.9768  0.0918 -0.9510
 4704SOL     OW18668  11.294   9.183   6.822 -0.6930 -0.0839 -0.4783
 4704SOL    HW118669  11.333   9.263   6.786 -1.5265  0.0562 -1.0999
 4704SOL    HW218670  11.344   9.166   6.902 -0.0493  0.6663 -0.7059
 4705SOL     OW18671   0.669   5.438   1.400  0.3329 -0.7220  0.0453
 4705SOL    HW118672   0.721   5.413   1.476  1.0070  0.1067 -0.1287
 4705SOL    HW218673   0.732   5.444   1.329  0.2418  1.4266  0.0754
 4706SOL     OW18674   1.761   9.765   8.117 -0.0906 -0.0004  0.2192
 4706SOL    HW118675   1.832   9.816   8.079  0.5939 -0.4980  0.8059
 4706SOL    HW218676   1.682   9.818   8.102  0.4290  0.6500 -0.2519
 4707SOL     OW18677   4.408   5.386   7.238 -0.0704  0.4309 -0.0031
 4707SOL    HW118678   4.493   5.413   7.203  0.7171 -0.1812  1.4049
 4707SOL    HW218679   4.348   5.455   7.208  0.9281  0.9424 -0.9041
 4708SOL     OW18680   6.350   0.651   3.674 -0.4232  0.7899  0.0657
 4708SOL    HW118681   6.267   0.644   3.628 -0.8826 -1.3971  1.1118
 4708SOL    HW218682   6.349   0.739   3.712 -1.4710  1.4126 -1.3548
 4709SOL     OW18683   6.657   1.780   3.255  0.1362 -0.2022  0.3900
 4709SOL    HW118684   6.579   1.835   3.258 -0.0157 -0.3988  0.1343
 4709SOL    HW218685   6.721   1.831   3.207 -0.5983 -0.9640 -1.4944
 4710SOL     OW18686   5.848   5.816   9.910 -0.5845  1.0064  0.4159
 4710SOL    HW118687   5.911   5.795   9.979  0.1010 -0.7256 -0.6709
 4710SOL    HW218688   5.868   5.907   9.887  0.8295  0.8273  0.8033
 4711SOL     OW18689   7.287   5.031   2.589  0.6190  0.4866 -0.5897
 4711SOL    HW118690   7.347   5.104   2.570  1.0792 -0.2926 -2.2692
 4711SOL    HW218691   7.344   4.960   2.617  0.1723  0.7030  1.0078
 4712SOL     OW18692   1.617   7.424   5.009 -0.1716  0.2146  0.3082
 4712SOL    HW118693   1.707   7.409   5.041  0.8137 -0.5714 -2.5635
 4712SOL    HW218694   1.610   7.519   5.005  1.9508  0.3931 -2.7345
 4713SOL     OW18695   6.462   1.593   3.410 -0.0931  0.4182 -0.8881
 4713SOL    HW118696   6.453   1.646   3.331 -2.8444 -0.0041 -0.9406
 4713SOL    HW218697   6.484   1.506   3.378  3.0943  1.0963 -0.8667
 4714SOL     OW18698  10.073   8.763   9.873 -0.2950  0.5719  0.2730
 4714SOL    HW118699  10.001   8.709   9.906  0.8440 -0.2039  1.6201
 4714SOL    HW218700  10.043   8.793   9.787 -1.7668 -0.6369  0.3147
 4715SOL     OW18701   2.434   1.612   6.936 -0.5806 -0.3597  0.8136
 4715SOL    HW118702   2.452   1.582   7.024  0.0631 -2.0550  0.1493
 4715SOL    HW218703   2.510   1.586   6.885 -0.4835  1.4875 -0.0762
 4716SOL     OW18704   1.754   9.344   6.988  0.1563 -0.4644 -0.5513
 4716SOL    HW118705   1.806   9.415   7.025  0.7850 -1.4202  0.4648
 4716SOL    HW218706   1.673   9.386   6.958  0.8132  0.7783 -0.6405
 4717SOL     OW18707   3.760   9.663   4.027 -0.2592  0.0104 -0.1640
 4717SOL    HW118708   3.790   9.745   3.988 -0.9424  0.4778  0.2776
 4717SOL    HW218709   3.711   9.620   3.957  0.7318 -0.3900 -0.6375
 4718SOL     OW18710   4.665   0.211   7.855 -0.3013 -0.2039  0.0650
 4718SOL    HW118711   4.612   0.204   7.775 -1.5042 -1.0068  0.9038
 4718SOL    HW218712   4.635   0.291   7.897  0.3326  0.2182 -0.2584
 4719SOL     OW18713  11.477   8.172   9.366  0.0906 -0.0573 -0.2749
 4719SOL    HW118714  11.432   8.175   9.281  1.0959 -2.3904 -0.9790
 4719SOL    HW218715  11.570   8.170   9.343  0.3685 -0.9997  0.8351
 4720SOL     OW18716  11.578   9.833   6.827  0.0805 -0.4629  0.0953
 4720SOL    HW118717  11.538   9.777   6.894  0.0310 -0.1367  0.3368
 4720SOL    HW218718  11.611   9.771   6.761 -0.1064 -0.7706  0.2894
 4721SOL     OW18719   9.015   0.507   6.834 -0.0241 -0.2908  0.4528
 4721SOL    HW118720   8.997   0.597   6.862  2.2445  1.3021 -2.5975
 4721SOL    HW218721   8.930   0.463   6.839 -1.2511  2.0250  1.9125
 4722SOL     OW18722   3.849   2.509   5.010 -0.8198  0.0699 -0.1703
 4722SOL    HW118723   3.881   2.419   5.015 -0.2567  0.1134 -2.3222
 4722SOL    HW218724   3.835   2.534   5.102  1.7896 -1.2027  0.6673
 4723SOL     OW18725   3.421   5.486   5.367 -0.1781 -0.3887  0.0847
 4723SOL    HW118726   3.369   5.537   5.305 -1.3306 -0.1645  1.1821
 4723SOL    HW218727   3.501   5.537   5.380 -0.7398  0.5028  0.1654
 4724SOL     OW18728   2.046   4.471   3.493 -0.0093  0.2247  0.3791
 4724SOL    HW118729   1.965   4.509   3.528  0.5079  1.8225 -0.0674
 4724SOL    HW218730   2.113   4.497   3.555  0.8564  2.7628 -1.4429
 4725SOL     OW18731   9.497   6.230   8.900 -0.2975  0.0352 -0.1912
 4725SOL    HW118732   9.485   6.325   8.898 -1.5246 -0.0746  1.0812
 4725SOL    HW218733   9.585   6.219   8.937 -0.8461  0.6635  1.3845
 4726SOL     OW18734   7.833   7.263   3.864 -0.2700  0.7925  0.0725
 4726SOL    HW118735   7.747   7.304   3.852 -0.3305  0.8768  0.7504
 4726SOL    HW218736   7.861   7.293   3.951 -0.6220 -1.1382  0.8951
 4727SOL     OW18737  10.563  10.697   3.588  0.2681  0.2342  0.0241
 4727SOL    HW118738  10.543  10.644   3.665 -0.2716 -0.2486 -0.4391
 4727SOL    HW218739  10.512  10.657   3.518  0.4468  0.9123 -0.4989
 4728SOL     OW18740  10.185  10.871   7.934 -0.5775  0.0777 -0.3677
 4728SOL    HW118741  10.243  10.940   7.967 -0.4410 -1.2320  2.4929
 4728SOL    HW218742  10.243  10.797   7.916 -0.9138  0.1337 -1.8145
 4729SOL     OW18743   2.968  10.204   9.590 -0.2751  0.6765  0.2061
 4729SOL    HW118744   3.020  10.143   9.642  0.8725  1.4785  0.0416
 4729SOL    HW218745   2.885  10.211   9.637  0.2060  0.2809  1.1418
 4730SOL     OW18746   0.654  11.835   8.046 -0.6592 -0.4236  0.1243
 4730SOL    HW118747   0.612  11.749   8.048  1.0962 -1.3190  0.5964
 4730SOL    HW218748   0.738  11.820   8.002 -0.6591  1.2217 -0.4871
 4731SOL     OW18749   3.585  11.772   0.569 -0.4330 -0.4959  0.0138
 4731SOL    HW118750   3.615  11.694   0.614  0.0881  0.5403  1.5412
 4731SOL    HW218751   3.504  11.745   0.525  0.4715 -2.2309 -0.6756
 4732SOL     OW18752  10.968   4.643   1.089  0.3045 -0.0377 -0.8074
 4732SOL    HW118753  10.974   4.682   1.002 -0.3357  0.5163 -0.6102
 4732SOL    HW218754  10.921   4.561   1.076 -0.6340  0.5003 -0.8491
 4733SOL     OW18755   2.554   0.329   2.707  0.3017 -0.0559 -0.2897
 4733SOL    HW118756   2.598   0.414   2.702 -1.2029  0.7363 -0.5948
 4733SOL    HW218757   2.463   0.350   2.728 -0.1328 -1.5912 -0.5110
 4734SOL     OW18758   3.843   3.228   0.558  0.3230 -0.1419 -0.0925
 4734SOL    HW118759   3.756   3.189   0.551 -0.9739  2.3996  0.6394
 4734SOL    HW218760   3.864   3.257   0.469 -0.5562  1.0802  0.0715
 4735SOL     OW18761   3.098  10.899   2.885 -0.0291 -0.3347 -0.1007
 4735SOL    HW118762   3.039  10.943   2.945  0.9064  1.7521 -0.6086
 4735SOL    HW218763   3.185  10.912   2.923  0.4310 -0.2740 -1.1237
 4736SOL     OW18764   3.190   9.603   0.954 -0.1129 -0.4475  0.8574
 4736SOL    HW118765   3.101   9.571   0.939 -0.1351 -0.1331  0.2925
 4736SOL    HW218766   3.180   9.670   1.021 -0.4286  0.1896  0.1863
 4737SOL     OW18767  10.168   6.569   0.621 -0.6710  0.0160  0.6584
 4737SOL    HW118768  10.155   6.486   0.575  0.3629 -0.1219  0.5871
 4737SOL    HW218769  10.091   6.621   0.598  0.1343  0.2328 -1.8634
 4738SOL     OW18770   6.747   4.241  10.582  0.5592  0.3524 -0.3743
 4738SOL    HW118771   6.757   4.292  10.501  1.2243 -0.0167 -0.5320
 4738SOL    HW218772   6.834   4.242  10.621  0.0161  1.4492  0.9069
 4739SOL     OW18773   8.224   9.416   1.659 -0.0928 -0.4684 -0.0739
 4739SOL    HW118774   8.217   9.423   1.564 -0.6283 -1.8830 -0.1594
 4739SOL    HW218775   8.315   9.391   1.674  0.8592  2.6705  0.0245
 4740SOL     OW18776   6.398   7.892   9.406 -0.4639  0.2701  0.2612
 4740SOL    HW118777   6.340   7.887   9.330 -1.9464 -1.1980  1.4036
 4740SOL    HW218778   6.386   7.981   9.439 -2.5930 -0.1261  0.7614
 4741SOL     OW18779   7.336   6.730   5.530 -0.7351  0.0761  0.3208
 4741SOL    HW118780   7.310   6.751   5.619 -0.7688 -0.4425  0.4401
 4741SOL    HW218781   7.260   6.756   5.476 -0.0506  2.0131  0.2144
 4742SOL     OW18782   4.213   7.307   9.393 -0.1636 -0.2617  0.4965
 4742SOL    HW118783   4.162   7.231   9.365  0.4081 -0.6710  0.5532
 4742SOL    HW218784   4.160   7.347   9.462 -0.8541 -0.1316 -0.1029
 4743SOL     OW18785   1.159   5.338   9.739  0.4097 -0.4904 -0.1190
 4743SOL    HW118786   1.177   5.297   9.655  0.9792 -0.2372 -0.1267
 4743SOL    HW218787   1.089   5.401   9.721 -0.7209 -1.6809 -0.0365
 4744SOL     OW18788   2.570   4.100   7.989  0.2926  0.5523  0.4715
 4744SOL    HW118789   2.599   4.143   7.908  0.2258 -0.7925 -0.3017
 4744SOL    HW218790   2.551   4.172   8.049  0.0302  1.6067 -0.8242
 4745SOL     OW18791   9.123  11.450   6.382  0.2573 -0.4673 -0.3962
 4745SOL    HW118792   9.156  11.450   6.293  0.0918  1.6872 -0.5049
 4745SOL    HW218793   9.034  11.485   6.375  0.5769  0.6553  0.6851
 4746SOL     OW18794   9.805   0.469   6.562  0.4416  0.3231 -0.2145
 4746SOL    HW118795   9.834   0.418   6.486  1.0907 -0.4407  0.5275
 4746SOL    HW218796   9.879   0.465   6.623  0.4581  2.0681 -0.0826
 4747SOL     OW18797   1.296   0.220   4.060  0.7055  0.1170 -0.1433
 4747SOL    HW118798   1.207   0.247   4.037 -0.5803 -2.5959  1.1382
 4747SOL    HW218799   1.322   0.160   3.991  1.7126  1.1342 -0.6750
 4748SOL     OW18800   6.388   7.371   2.220 -0.2684 -0.0627 -0.1999
 4748SOL    HW118801   6.470   7.329   2.194  0.9255  2.9051 -1.7905
 4748SOL    HW218802   6.415   7.449   2.267 -2.3352 -0.5492  1.9694
 4749SOL     OW18803   5.621   1.637   8.040 -0.5525 -1.1984  0.2503
 4749SOL    HW118804   5.567   1.678   8.108  0.5735 -1.2500  1.2062
 4749SOL    HW218805   5.690   1.592   8.088 -0.0402 -1.6967 -0.9167
 4750SOL     OW18806   9.690   2.112  11.729  0.2690  0.4500  0.6859
 4750SOL    HW118807   9.629   2.154  11.668  0.0769 -0.8839 -0.0697
 4750SOL    HW218808   9.651   2.026  11.746  1.6575 -0.2091  0.6301
 4751SOL     OW18809   4.560   2.283   2.663  0.0701  0.1930 -0.0001
 4751SOL    HW118810   4.494   2.267   2.595 -0.1648 -0.9033  0.4648
 4751SOL    HW218811   4.632   2.325   2.616  0.1972 -1.1366 -1.0917
 4752SOL     OW18812  11.528   2.080   0.413  0.0297  0.4730 -0.6815
 4752SOL    HW118813  11.441   2.108   0.387 -0.1203 -0.1392 -0.8540
 4752SOL    HW218814  11.519   1.986   0.431  0.7758  0.2708 -1.3034
 4753SOL     OW18815   8.029   1.514   5.677 -0.4037  0.3009 -0.7689
 4753SOL    HW118816   7.948   1.466   5.662  0.0192 -0.3039 -1.1629
 4753SOL    HW218817   8.094   1.471   5.621 -0.0190  1.3665 -1.1897
 4754SOL     OW18818   1.639   4.549  10.867  0.4147  0.2461 -0.0748
 4754SOL    HW118819   1.554   4.510  10.848  1.4188 -1.6851 -0.9997
 4754SOL    HW218820   1.644   4.555  10.962 -0.9052  0.8236 -0.0288
 4755SOL     OW18821   5.659   2.895   1.893 -0.1467 -0.1195 -0.3528
 4755SOL    HW118822   5.611   2.975   1.918  0.4080  0.4661 -1.1318
 4755SOL    HW218823   5.715   2.877   1.968  2.1651  2.1385 -1.4010
 4756SOL     OW18824   6.017   3.768   7.306 -0.4007 -0.3125 -0.2278
 4756SOL    HW118825   6.061   3.832   7.250  1.6772 -0.3555  1.2464
 4756SOL    HW218826   6.008   3.690   7.252  1.3619 -0.2867 -0.5930
 4757SOL     OW18827   3.341   9.027  11.213  0.0736 -0.3622 -0.3261
 4757SOL    HW118828   3.412   8.964  11.220  0.6082  0.2163 -0.3848
 4757SOL    HW218829   3.320   9.030  11.120 -1.3541 -1.9390 -0.0967
 4758SOL     OW18830   8.664   4.068   8.705 -0.5839 -0.0177  0.6101
 4758SOL    HW118831   8.605   4.114   8.646  0.2240  0.1099 -0.1187
 4758SOL    HW218832   8.718   4.014   8.648  1.6964  1.7390  0.9392
 4759SOL     OW18833  10.089  10.441   1.613  0.3564 -0.0900  0.2031
 4759SOL    HW118834  10.119  10.430   1.523 -0.3105 -0.7716  0.0511
 4759SOL    HW218835  10.163  10.416   1.667  0.7028  0.1567 -0.1563
 4760SOL     OW18836   6.015   0.538   7.408  0.4073 -0.2031 -0.4665
 4760SOL    HW118837   6.095   0.503   7.368  1.5801  1.8296 -0.0257
 4760SOL    HW218838   5.973   0.590   7.340  0.0243 -0.3727 -0.3668
 4761SOL     OW18839   3.180  10.822   5.533  0.3114  0.3961  0.4246
 4761SOL    HW118840   3.272  10.818   5.558  0.1660 -2.4030  0.8526
 4761SOL    HW218841   3.132  10.819   5.616 -0.1357 -0.8893  0.1469
 4762SOL     OW18842   3.663   4.459   5.765 -0.2566  0.1153  0.0302
 4762SOL    HW118843   3.671   4.516   5.841 -0.8050  0.4609 -0.1609
 4762SOL    HW218844   3.591   4.400   5.787 -1.1958  0.9550 -0.6584
 4763SOL     OW18845   8.159  10.955  10.875  0.0039 -0.4180  0.3975
 4763SOL    HW118846   8.096  11.018  10.837 -0.8304 -1.5263 -0.1318
 4763SOL    HW218847   8.201  11.003  10.946 -1.2897  0.4401  0.6227
 4764SOL     OW18848   1.661   9.255  10.934 -0.2402 -0.5998  0.0874
 4764SOL    HW118849   1.627   9.166  10.932  1.6469 -1.3567 -0.8940
 4764SOL    HW218850   1.736   9.254  10.873 -0.1897  1.6575  0.0259
 4765SOL     OW18851  11.058   9.242   0.497 -0.5968 -0.0193 -0.1705
 4765SOL    HW118852  11.118   9.180   0.538 -0.1700  0.3300 -0.2637
 4765SOL    HW218853  10.971   9.208   0.517 -0.3839 -0.1429  0.5646
 4766SOL     OW18854   5.290  11.790   3.923  0.2414  0.5092  0.3291
 4766SOL    HW118855   5.212  11.771   3.976  0.9728 -0.5082  1.0878
 4766SOL    HW218856   5.256  11.811   3.836 -0.7993 -2.3307 -0.0549
 4767SOL     OW18857   7.193  11.412   9.676 -0.0881 -0.1569 -0.3450
 4767SOL    HW118858   7.267  11.455   9.633  1.0145 -0.9018  0.6988
 4767SOL    HW218859   7.119  11.470   9.662  1.1180  1.5953  0.1897
 4768SOL     OW18860   1.589  10.197  10.857  0.3148 -0.0113 -0.1766
 4768SOL    HW118861   1.516  10.143  10.826  1.1303 -1.3707  0.1717
 4768SOL    HW218862   1.577  10.203  10.951  1.1408 -1.0595  0.0188
 4769SOL     OW18863   0.531   1.471   6.782  0.1503  0.1173 -0.2317
 4769SOL    HW118864   0.603   1.418   6.816  1.1991  0.4696 -1.7781
 4769SOL    HW218865   0.480   1.496   6.859  2.3564  0.8378  1.0664
 4770SOL     OW18866  11.206  10.166   2.407  0.1494 -0.6545 -0.5782
 4770SOL    HW118867  11.244  10.246   2.442  1.2239 -1.6831  0.7254
 4770SOL    HW218868  11.161  10.193   2.327  2.0826  0.9351 -1.1923
 4771SOL     OW18869  11.183  10.497   9.088 -0.6830  0.2431  0.3652
 4771SOL    HW118870  11.238  10.527   9.160  0.4114 -0.4229 -0.1792
 4771SOL    HW218871  11.105  10.460   9.131  0.6652 -1.6555  1.3421
 4772SOL     OW18872   7.097   8.426   2.695  0.0340  0.0759 -0.2849
 4772SOL    HW118873   7.114   8.509   2.739 -0.2607  0.2972 -0.5849
 4772SOL    HW218874   7.124   8.360   2.758  1.8913  0.3944 -0.6812
 4773SOL     OW18875   7.564   5.257   5.672  0.3775  0.5662 -0.3064
 4773SOL    HW118876   7.494   5.191   5.675  1.0854 -0.1833  0.2384
 4773SOL    HW218877   7.569   5.290   5.761  0.1654  1.2177 -0.5339
 4774SOL     OW18878   0.457   0.832   6.695 -0.0605  0.6347 -0.2070
 4774SOL    HW118879   0.465   0.785   6.778 -0.0359  0.0664 -0.5302
 4774SOL    HW218880   0.462   0.765   6.628  0.7616  1.1858 -0.7125
 4775SOL     OW18881   6.512   5.592  11.083  0.3310  0.2680  0.2477
 4775SOL    HW118882   6.493   5.676  11.042 -1.7785 -0.9045 -1.3936
 4775SOL    HW218883   6.443   5.533  11.051  1.7473 -2.1127  1.2727
 4776SOL     OW18884   9.411   1.607   1.371 -0.6702 -0.6411  0.2091
 4776SOL    HW118885   9.376   1.692   1.399 -2.7951 -1.8055  1.2969
 4776SOL    HW218886   9.364   1.586   1.291 -1.5972 -1.6259  0.9769
 4777SOL     OW18887   1.878  11.023   7.711  0.1054 -0.2403 -0.0038
 4777SOL    HW118888   1.918  11.109   7.723 -1.3943  0.5056 -0.0840
 4777SOL    HW218889   1.849  11.023   7.620 -1.3945 -0.1269  0.4409
 4778SOL     OW18890   5.146   9.538   4.087 -0.1550  0.2324 -0.5729
 4778SOL    HW118891   5.238   9.557   4.100  0.4009 -0.6250 -2.7394
 4778SOL    HW218892   5.102   9.622   4.099  1.0581  0.9186 -0.7706
 4779SOL     OW18893   9.798   6.876   4.862 -0.6878  0.2990  0.6211
 4779SOL    HW118894   9.851   6.796   4.859 -2.6889 -1.0974  0.4047
 4779SOL    HW218895   9.709   6.846   4.845 -1.3695  2.7428 -0.5022
 4780SOL     OW18896   4.310   1.354   3.470 -0.1662  0.4516 -0.2819
 4780SOL    HW118897   4.365   1.329   3.396  0.6654  2.3684 -0.3673
 4780SOL    HW218898   4.223   1.365   3.433 -0.2670 -0.8334 -0.4937
 4781SOL     OW18899   3.238   4.695   6.768 -0.2799  0.8967  0.3568
 4781SOL    HW118900   3.288   4.613   6.775 -0.6466  0.7517  1.5099
 4781SOL    HW218901   3.299   4.757   6.728 -0.1566 -0.0565 -0.9697
 4782SOL     OW18902   5.646   9.793   1.982  0.0899  0.8749  0.5200
 4782SOL    HW118903   5.650   9.699   2.000 -1.0134  0.3092 -1.7409
 4782SOL    HW218904   5.737   9.820   1.972  0.5003  0.3939  2.5838
 4783SOL     OW18905   9.323   9.971   0.708 -0.2903 -0.6033 -0.3065
 4783SOL    HW118906   9.415   9.946   0.698 -0.7662 -2.4618 -0.2865
 4783SOL    HW218907   9.304   9.958   0.801 -0.8563 -1.3047 -0.5130
 4784SOL     OW18908   6.875   5.273   1.478  0.2648  0.3339 -0.1147
 4784SOL    HW118909   6.846   5.211   1.545  1.2198 -1.4142 -1.2667
 4784SOL    HW218910   6.947   5.321   1.520  0.7856 -0.6728  0.1668
 4785SOL     OW18911   6.338   3.479   9.418  0.0676  0.3763  0.0754
 4785SOL    HW118912   6.314   3.536   9.491 -0.2011 -0.1608  0.4142
 4785SOL    HW218913   6.292   3.397   9.436 -1.1061  0.6667 -1.3954
 4786SOL     OW18914   9.507   5.220   8.530 -0.3376 -0.0319  0.3887
 4786SOL    HW118915   9.600   5.240   8.526 -0.3285 -0.2783 -2.1356
 4786SOL    HW218916   9.465   5.295   8.488 -0.9536 -1.4078 -1.5898
 4787SOL     OW18917   5.584   5.222   6.416 -0.1662 -0.0472 -0.6436
 4787SOL    HW118918   5.663   5.220   6.471  0.3138  0.3758 -1.3076
 4787SOL    HW218919   5.533   5.146   6.445  0.7279 -0.6387 -0.5689
 4788SOL     OW18920   0.346   4.113   7.387 -0.2585 -0.1984 -0.0923
 4788SOL    HW118921   0.271   4.129   7.330 -0.6150 -0.7442  0.2084
 4788SOL    HW218922   0.403   4.188   7.375  0.7322 -1.2859 -2.8369
 4789SOL     OW18923  10.990   2.276   1.217  0.1512  0.2594 -0.4467
 4789SOL    HW118924  10.905   2.315   1.238  0.3374  0.1416  0.5712
 4789SOL    HW218925  11.048   2.305   1.288  0.2047 -2.2068  0.6117
 4790SOL     OW18926  11.161   5.688   8.128 -0.0495 -0.0090 -0.2691
 4790SOL    HW118927  11.150   5.594   8.110  0.0186 -0.1567  0.4223
 4790SOL    HW218928  11.170   5.728   8.042 -1.8798 -0.4084 -0.7080
 4791SOL     OW18929   9.060   3.291  10.512  0.5347 -0.2977 -0.9953
 4791SOL    HW118930   8.998   3.350  10.557 -1.5343 -1.2947 -2.3745
 4791SOL    HW218931   9.082   3.225  10.577  1.0960  0.6981 -0.1329
 4792SOL     OW18932   7.295   0.101   9.189 -1.0817  0.3835  0.5279
 4792SOL    HW118933   7.310   0.171   9.253 -0.6375  0.6842  0.0963
 4792SOL    HW218934   7.201   0.106   9.171 -1.0637  0.8402  0.5338
 4793SOL     OW18935   1.285   8.767   0.917 -0.6214  0.7008 -0.0203
 4793SOL    HW118936   1.288   8.716   0.999 -1.1790 -0.2526 -0.5691
 4793SOL    HW218937   1.324   8.851   0.940  0.2785  0.0560  0.9439
 4794SOL     OW18938   6.542   8.509   9.024  0.1793 -0.0367  0.2305
 4794SOL    HW118939   6.488   8.567   9.077 -2.0507 -0.6386 -1.2038
 4794SOL    HW218940   6.536   8.545   8.935 -0.9805 -2.1572 -0.6284
 4795SOL     OW18941   6.894  11.973   2.626 -0.2024  0.2034  0.0051
 4795SOL    HW118942   6.934  12.041   2.571  1.1819  0.1762  0.9288
 4795SOL    HW218943   6.924  11.993   2.715  0.9417 -2.0881  0.2006
 4796SOL     OW18944  10.675   7.572   7.434 -0.6177 -0.4440  0.1261
 4796SOL    HW118945  10.588   7.558   7.397 -0.5252  0.5370 -0.5053
 4796SOL    HW218946  10.711   7.484   7.446 -1.2412 -0.8244 -0.7108
 4797SOL     OW18947   9.397   6.509   3.284 -0.3777 -0.0488  0.5843
 4797SOL    HW118948   9.424   6.582   3.229 -0.9416 -0.2169  0.0649
 4797SOL    HW218949   9.365   6.549   3.365  0.4700  0.1999  0.8012
 4798SOL     OW18950   2.347   5.609   3.402  0.1397 -0.2278  0.4453
 4798SOL    HW118951   2.261   5.584   3.437 -0.6720 -1.0469 -1.9669
 4798SOL    HW218952   2.345   5.704   3.400 -0.1587 -0.1860  1.6133
 4799SOL     OW18953   2.272   9.443   2.003 -0.3199 -0.4382 -0.2919
 4799SOL    HW118954   2.230   9.467   2.085  1.8960 -0.3653  0.9029
 4799SOL    HW218955   2.310   9.525   1.970  0.4625 -0.8233 -0.3644
 4800SOL     OW18956   0.598   3.737   6.532  0.1542 -0.2508  0.3639
 4800SOL    HW118957   0.629   3.666   6.589 -1.6159 -1.1382  0.3036
 4800SOL    HW218958   0.675   3.792   6.519  0.8120 -0.3957  3.0088
 4801SOL     OW18959   5.962   9.153   1.533  0.5495 -0.1780  0.2547
 4801SOL    HW118960   6.037   9.112   1.488  0.7668  0.9294 -0.4271
 4801SOL    HW218961   5.932   9.220   1.472 -1.3347 -0.9448  0.2954
 4802SOL     OW18962   2.690   2.618   2.891  0.3712  0.0739  0.7917
 4802SOL    HW118963   2.653   2.530   2.896  0.1346  0.0668 -0.6356
 4802SOL    HW218964   2.769   2.608   2.838 -1.2316  1.1243 -2.0349
 4803SOL     OW18965   2.755  12.008   1.153 -0.2731 -0.3281 -0.5722
 4803SOL    HW118966   2.828  11.950   1.172 -0.4459 -0.8428 -1.4355
 4803SOL    HW218967   2.755  12.017   1.058  0.8424  2.4994 -0.3987
 4804SOL     OW18968   1.115   0.622   7.441  0.1221  0.1784 -0.1210
 4804SOL    HW118969   1.179   0.572   7.389 -2.0838 -2.7402 -0.2774
 4804SOL    HW218970   1.075   0.556   7.498 -2.8934  1.8187 -0.1854
 4805SOL     OW18971   9.212   0.644   0.412 -0.5476  0.4903 -0.1422
 4805SOL    HW118972   9.299   0.605   0.412 -0.3505  0.8875 -1.3195
 4805SOL    HW218973   9.225   0.731   0.452 -0.9346 -0.4640  2.2112
 4806SOL     OW18974   4.508   1.831   0.997  0.2450 -0.3668  0.1223
 4806SOL    HW118975   4.522   1.784   1.080 -0.2465 -0.8641 -0.0663
 4806SOL    HW218976   4.423   1.875   1.008  0.4603  0.0532  0.1047
 4807SOL     OW18977   4.295   3.980   8.372 -0.2736  0.2124  0.2706
 4807SOL    HW118978   4.352   3.910   8.340  0.4486  1.1405 -0.5686
 4807SOL    HW218979   4.253   3.944   8.449  0.8880 -0.7832  0.4725
 4808SOL     OW18980   1.889   9.457  10.618 -0.7110  0.3000  0.3252
 4808SOL    HW118981   1.892   9.503  10.534 -0.0675  0.7453  0.5877
 4808SOL    HW218982   1.872   9.526  10.683  0.8659  0.2721  0.7902
 4809SOL     OW18983  11.313  11.672   3.437 -0.4144 -0.6768  0.8332
 4809SOL    HW118984  11.326  11.753   3.488 -0.2883 -1.1066  1.5013
 4809SOL    HW218985  11.374  11.609   3.477  1.0889 -0.5233 -1.0367
 4810SOL     OW18986   8.209   9.694  11.829  0.3259  0.1254  0.4705
 4810SOL    HW118987   8.273   9.765  11.830  2.6888 -1.8619  0.3793
 4810SOL    HW218988   8.126   9.735  11.854  1.6458  2.8140  0.7014
 4811SOL     OW18989   8.548   1.615   6.687  0.6794  0.4496 -0.3475
 4811SOL    HW118990   8.577   1.706   6.690  0.3068  0.7403 -3.0403
 4811SOL    HW218991   8.477   1.614   6.623 -2.1153 -1.0982  2.4218
 4812SOL     OW18992   3.717  11.102   6.867 -0.1260  0.0892  0.5656
 4812SOL    HW118993   3.707  11.098   6.772 -0.4318  1.4212  0.5133
 4812SOL    HW218994   3.627  11.112   6.900 -0.1637 -1.7912  1.1134
 4813SOL     OW18995  10.050   7.975   5.489 -0.4978 -0.2154 -0.1468
 4813SOL    HW118996  10.076   7.943   5.576 -0.1407 -1.3411 -0.6566
 4813SOL    HW218997  10.004   7.902   5.449 -1.3327  0.5594 -0.6315
 4814SOL     OW18998   8.818   1.277   3.966 -0.2314  0.0603 -0.2079
 4814SOL    HW118999   8.824   1.191   3.925 -0.8474  0.6999 -1.7203
 4814SOL    HW219000   8.848   1.338   3.899  1.4907  0.9558  1.2868
 4815SOL     OW19001   1.480   7.616   7.232 -0.4019  0.4371  0.2059
 4815SOL    HW119002   1.518   7.680   7.292 -1.1170  3.6113 -2.4268
 4815SOL    HW219003   1.535   7.622   7.154 -1.8146 -0.5343 -0.9035
 4816SOL     OW19004  10.154  11.713   8.277 -0.0964  0.1880 -0.0328
 4816SOL    HW119005  10.194  11.737   8.361  1.0317 -2.0410  0.1514
 4816SOL    HW219006  10.224  11.728   8.213  0.6622 -2.3702  0.0961
 4817SOL     OW19007  10.629   0.663   7.479 -0.0187 -0.4783 -0.4364
 4817SOL    HW119008  10.579   0.679   7.399 -0.1978 -1.8329 -0.6176
 4817SOL    HW219009  10.601   0.576   7.508  1.1322 -0.6284  0.2980
 4818SOL     OW19010   8.495   3.674  11.224 -0.5943 -0.0955 -0.1240
 4818SOL    HW119011   8.514   3.581  11.234 -3.2762 -0.5675  1.6592
 4818SOL    HW219012   8.575   3.718  11.253  0.0318 -1.8599  1.0184
 4819SOL     OW19013   1.981  10.099   4.758 -0.0517  0.6758  0.6495
 4819SOL    HW119014   2.071  10.077   4.782 -0.7474 -2.4417  0.8812
 4819SOL    HW219015   1.973  10.073   4.666 -0.8815  0.2547  0.8293
 4820SOL     OW19016   6.742  10.065   7.918  0.0429 -0.0364 -0.1730
 4820SOL    HW119017   6.663  10.079   7.866 -0.7962  0.3599  1.1357
 4820SOL    HW219018   6.805  10.129   7.884  0.3753 -1.3828 -2.2495
 4821SOL     OW19019   3.205   0.726  10.439  0.0799  0.1220  0.1897
 4821SOL    HW119020   3.259   0.697  10.366 -0.5436 -0.7412  0.0644
 4821SOL    HW219021   3.261   0.716  10.516 -0.1963 -1.7366  0.1988
 4822SOL     OW19022   9.313   8.216   1.019  0.0750  0.7326 -0.2391
 4822SOL    HW119023   9.296   8.203   0.926 -1.2892 -1.1123  0.2210
 4822SOL    HW219024   9.406   8.195   1.030  0.0709  0.2401 -1.0640
 4823SOL     OW19025   9.817   7.042   5.283  0.0503  0.0519  0.1208
 4823SOL    HW119026   9.814   7.136   5.301  0.9511  0.0792  0.1552
 4823SOL    HW219027   9.842   7.002   5.366 -0.5587 -0.2477  0.1686
 4824SOL     OW19028   3.893   5.304   6.493  0.1508 -0.6517  0.2635
 4824SOL    HW119029   3.853   5.223   6.462  1.9236 -1.1843 -0.7479
 4824SOL    HW219030   3.820   5.354   6.531 -1.2667 -1.9756 -0.6196
 4825SOL     OW19031   9.739   2.317   6.568  0.1213 -0.0156 -0.4908
 4825SOL    HW119032   9.833   2.332   6.563  0.2074 -0.3818 -0.0529
 4825SOL    HW219033   9.700   2.399   6.536  0.5901  0.6438  0.5505
 4826SOL     OW19034   1.765   9.598   6.121 -0.4825  0.6141 -0.0888
 4826SOL    HW119035   1.826   9.628   6.054  0.0389 -0.5837 -0.1688
 4826SOL    HW219036   1.704   9.540   6.076 -0.4263  0.1800  0.3836
 4827SOL     OW19037   8.560   9.697  12.040  0.3813  0.3295 -0.1469
 4827SOL    HW119038   8.635   9.749  12.011  0.2398 -0.6781 -2.5101
 4827SOL    HW219039   8.593   9.648  12.115  1.8761  0.4636 -0.6833
 4828SOL     OW19040   8.553   1.202   6.567  0.5533  0.4415  0.2048
 4828SOL    HW119041   8.574   1.128   6.510  0.1451  0.4478  0.0421
 4828SOL    HW219042   8.637   1.245   6.583  0.9476 -0.6056  1.0739
 4829SOL     OW19043   1.564  11.959   2.035 -0.6864  0.2452  0.2699
 4829SOL    HW119044   1.593  11.883   1.984 -0.6626 -0.7092  1.6357
 4829SOL    HW219045   1.645  12.001   2.064 -0.6938  1.1463 -0.9358
 4830SOL     OW19046   8.633   0.984  10.252  0.0479 -0.7467 -0.2485
 4830SOL    HW119047   8.632   1.048  10.323 -3.7502 -0.2795 -0.5046
 4830SOL    HW219048   8.703   1.014  10.194  0.3279  1.4339  1.1040
 4831SOL     OW19049   4.679  11.056   8.313  0.1015  0.0286  0.3438
 4831SOL    HW119050   4.701  10.972   8.353 -0.4928  0.0678  0.7615
 4831SOL    HW219051   4.762  11.087   8.276  0.2731 -0.8562 -0.0425
 4832SOL     OW19052   6.156   3.268   7.967 -0.3775 -0.1592 -0.5933
 4832SOL    HW119053   6.141   3.237   7.878  1.2715  0.9394 -1.2976
 4832SOL    HW219054   6.224   3.212   8.001 -0.5855 -0.1944 -0.2324
 4833SOL     OW19055  11.715   9.050   6.763  0.5461 -0.3030  0.2036
 4833SOL    HW119056  11.753   8.963   6.756 -0.3704 -0.6261 -1.2009
 4833SOL    HW219057  11.665   9.049   6.844  0.6229 -1.0573  0.2448
 4834SOL     OW19058   4.483   3.343   0.033 -0.1152  0.0449 -0.2367
 4834SOL    HW119059   4.440   3.260   0.054  0.1847  0.3243  1.6911
 4834SOL    HW219060   4.531   3.326  -0.048  0.8345 -2.0178  0.6806
 4835SOL     OW19061  11.072   6.790  10.948  0.2717  0.4306  0.0492
 4835SOL    HW119062  11.052   6.697  10.953  1.0975  0.1005 -1.9063
 4835SOL    HW219063  11.149   6.800  11.004  0.4758 -0.1632 -0.1141
 4836SOL     OW19064   9.181   3.546   5.070  0.0761 -0.2450 -0.1676
 4836SOL    HW119065   9.275   3.524   5.068 -0.2977 -1.8891 -1.0724
 4836SOL    HW219066   9.154   3.544   4.979 -0.4407  2.2714 -0.1256
 4837SOL     OW19067   9.425   1.098   6.403  0.0663  0.0859  0.0978
 4837SOL    HW119068   9.454   1.155   6.332  0.8920 -0.1004  0.2646
 4837SOL    HW219069   9.354   1.146   6.445  0.3002  0.6869 -0.1768
 4838SOL     OW19070   3.980  11.688   5.393  0.2729 -0.3897  0.3474
 4838SOL    HW119071   3.955  11.613   5.340 -1.5983  0.6636 -0.3457
 4838SOL    HW219072   3.902  11.709   5.444  0.6298  1.2542  0.2877
 4839SOL     OW19073   0.772   0.276   0.546  0.2443 -0.2505 -0.0983
 4839SOL    HW119074   0.693   0.292   0.598  1.3386 -1.1215  1.9244
 4839SOL    HW219075   0.756   0.322   0.464 -2.2061 -0.0937  0.3885
 4840SOL     OW19076   7.869   5.622   4.773 -0.0777  0.1037  0.4117
 4840SOL    HW119077   7.795   5.562   4.778  0.6334 -0.8540 -0.3032
 4840SOL    HW219078   7.920   5.605   4.851  2.3801 -3.3213 -1.6891
 4841SOL     OW19079   5.485   7.475  11.387  0.0379  0.1813 -0.1874
 4841SOL    HW119080   5.562   7.507  11.435 -0.3109 -0.9317  1.1823
 4841SOL    HW219081   5.433   7.430  11.454 -1.6784  0.6776 -1.1464
 4842SOL     OW19082   5.327   8.815  11.908  0.2154  0.1750  0.1538
 4842SOL    HW119083   5.406   8.801  11.856  1.2154 -0.6298  1.8069
 4842SOL    HW219084   5.348   8.888  11.966 -0.2021 -0.1370  0.7069
 4843SOL     OW19085   2.631   1.691   3.956  0.0714 -0.0565  0.4270
 4843SOL    HW119086   2.592   1.755   4.016 -1.3836  1.5691 -2.0889
 4843SOL    HW219087   2.559   1.663   3.901  1.4711 -0.9628 -1.0155
 4844SOL     OW19088  11.781   9.900   1.834 -0.1016 -0.4452 -0.0128
 4844SOL    HW119089  11.785   9.813   1.875  2.1325 -0.9836 -1.2423
 4844SOL    HW219090  11.788   9.883   1.740  0.5451  1.0560 -0.2626
 4845SOL     OW19091   5.264   3.625   6.215 -0.0929  0.2415  0.6615
 4845SOL    HW119092   5.273   3.558   6.147 -0.8428 -0.1482  0.9373
 4845SOL    HW219093   5.222   3.580   6.288 -1.7713  1.2859  0.4038
 4846SOL     OW19094   6.070   4.965   5.336 -0.1533 -0.5107 -0.0115
 4846SOL    HW119095   6.092   5.000   5.422  0.0627  0.0361 -0.2798
 4846SOL    HW219096   5.989   4.916   5.349  0.0385 -0.6809  0.5578
 4847SOL     OW19097  11.425  11.961   9.090  0.3205 -0.2511  0.1292
 4847SOL    HW119098  11.393  11.872   9.101  1.1438 -0.5461  0.2313
 4847SOL    HW219099  11.495  11.953   9.026 -0.1541  0.4611 -0.4884
 4848SOL     OW19100   8.583   4.895   1.955 -0.8555 -0.1859  0.0536
 4848SOL    HW119101   8.630   4.872   1.874 -0.9807  1.3740 -0.4824
 4848SOL    HW219102   8.494   4.863   1.940 -0.4602 -1.4749  0.3138
 4849SOL     OW19103  11.691   6.340   4.626  0.6751 -0.0753  0.1921
 4849SOL    HW119104  11.734   6.405   4.570  0.4414 -0.4940 -0.4845
 4849SOL    HW219105  11.637   6.289   4.566 -0.9229  0.5436  1.0433
 4850SOL     OW19106  11.243   5.713   9.954  0.0745 -0.1766 -0.1833
 4850SOL    HW119107  11.257   5.663   9.873  1.3286  0.1858 -0.2093
 4850SOL    HW219108  11.193   5.653  10.010 -0.1117 -0.7343 -0.9251
 4851SOL     OW19109   9.398   0.488   9.797 -0.4486  0.1096  0.0320
 4851SOL    HW119110   9.445   0.569   9.778 -1.9271  1.5378  1.9388
 4851SOL    HW219111   9.401   0.481   9.893 -1.6219 -1.2881  0.0043
 4852SOL     OW19112  11.564   7.128   4.411  0.2989 -0.2456 -0.2628
 4852SOL    HW119113  11.600   7.048   4.372 -1.4018 -0.9255 -0.5412
 4852SOL    HW219114  11.619   7.198   4.377 -0.7352 -0.8551 -3.5743
 4853SOL     OW19115   4.819   7.040   2.566  0.0852  0.3488 -0.2213
 4853SOL    HW119116   4.913   7.041   2.548  0.0923 -2.5585 -0.7024
 4853SOL    HW219117   4.813   7.054   2.661  1.0299  0.0617 -0.1113
 4854SOL     OW19118   8.655   3.022   1.245 -0.1646 -0.3457  0.9843
 4854SOL    HW119119   8.579   3.049   1.296 -1.3037 -1.5503 -0.0133
 4854SOL    HW219120   8.650   2.926   1.244  2.3771 -0.5727  2.3830
 4855SOL     OW19121   8.713   4.208   3.267  0.1240 -0.2651 -0.2587
 4855SOL    HW119122   8.772   4.160   3.208  1.3521 -0.8572  1.3786
 4855SOL    HW219123   8.764   4.283   3.296 -0.7586  0.4635 -0.5389
 4856SOL     OW19124   7.231  10.712   4.048  0.0798  0.1746 -0.4435
 4856SOL    HW119125   7.195  10.742   3.964 -0.7532  1.3657  0.3113
 4856SOL    HW219126   7.185  10.630   4.065  0.7302 -0.4305 -1.4398
 4857SOL     OW19127   8.831   5.781   6.407 -0.4114  0.5959 -0.6932
 4857SOL    HW119128   8.917   5.819   6.393  0.2201 -0.7323 -0.6298
 4857SOL    HW219129   8.789   5.783   6.321  0.5487 -0.7200 -1.2333
 4858SOL     OW19130   5.996   0.366   0.197  0.1712  0.4022 -0.2014
 4858SOL    HW119131   5.946   0.436   0.155  0.1560  0.5062 -0.0161
 4858SOL    HW219132   6.062   0.340   0.132 -0.5305 -0.1785 -0.6858
 4859SOL     OW19133   4.103   0.433   8.165  0.2820  0.2408  0.0901
 4859SOL    HW119134   4.120   0.357   8.109 -0.5541 -0.7721  1.1505
 4859SOL    HW219135   4.157   0.419   8.242 -1.1185 -0.1747  1.0346
 4860SOL     OW19136   9.129  12.113   4.604  0.0127 -0.2701  0.2524
 4860SOL    HW119137   9.150  12.207   4.606 -0.5966 -0.0176 -2.2851
 4860SOL    HW219138   9.075  12.099   4.682 -0.2637  1.5899  0.4463
 4861SOL     OW19139   5.163   7.387   1.243 -0.7921 -0.2263  0.3126
 4861SOL    HW119140   5.164   7.482   1.230  0.6122 -0.4688 -2.2055
 4861SOL    HW219141   5.239   7.370   1.299 -1.3765  0.1711  1.2340
 4862SOL     OW19142   0.681   5.429   0.980  0.2751  0.3647 -0.0396
 4862SOL    HW119143   0.646   5.395   0.897  1.2528 -0.4683 -0.1353
 4862SOL    HW219144   0.623   5.393   1.047  0.9843 -1.1402 -0.1781
 4863SOL     OW19145   0.806  10.967  10.132 -0.3652 -0.1464  0.0969
 4863SOL    HW119146   0.864  11.038  10.161 -1.6694  0.5742  1.0939
 4863SOL    HW219147   0.791  10.915  10.211  0.0354 -1.1482 -0.4777
 4864SOL     OW19148   6.851   8.602   5.111  0.3734 -0.2970  0.2391
 4864SOL    HW119149   6.911   8.653   5.166 -1.1356  0.9150  0.8377
 4864SOL    HW219150   6.813   8.538   5.170 -0.2148  0.0897  0.2835
 4865SOL     OW19151   5.627   4.044   0.748 -0.0207  0.1863  0.6200
 4865SOL    HW119152   5.635   4.051   0.653 -1.9304 -0.2129  0.3905
 4865SOL    HW219153   5.559   4.107   0.771  0.4485  0.3101  1.7481
 4866SOL     OW19154   7.756   2.412  11.352  0.3176 -0.1320 -0.0300
 4866SOL    HW119155   7.799   2.367  11.425  0.9684  2.1344  1.0791
 4866SOL    HW219156   7.699   2.476  11.394 -0.3164  0.3314 -1.5361
 4867SOL     OW19157   2.789   7.050   7.380  0.5526  0.8200 -0.2020
 4867SOL    HW119158   2.701   7.082   7.361 -1.4489 -3.7439  0.1535
 4867SOL    HW219159   2.803   7.072   7.472 -1.3633 -0.5289  0.4726
 4868SOL     OW19160   8.154   1.878   0.023 -0.2051 -0.2690  0.1506
 4868SOL    HW119161   8.111   1.873   0.108 -0.7553 -1.9073 -0.1934
 4868SOL    HW219162   8.234   1.827   0.033  0.3898  0.6038  0.0303
 4869SOL     OW19163  10.568   6.911   5.601  0.7848 -0.0664  0.2571
 4869SOL    HW119164  10.558   6.980   5.666 -1.5234  0.9909 -1.1074
 4869SOL    HW219165  10.479   6.886   5.578  1.5430 -1.8514 -1.0275
 4870SOL     OW19166   7.109   8.542   7.660  0.2005  0.6455  0.2420
 4870SOL    HW119167   7.194   8.539   7.703 -0.1778 -1.8565  0.9536
 4870SOL    HW219168   7.046   8.528   7.731 -0.6883  0.5430 -0.5494
 4871SOL     OW19169   7.361   0.826   0.642 -0.5022 -0.0722  0.1578
 4871SOL    HW119170   7.450   0.823   0.677  0.2118  0.1284 -1.5276
 4871SOL    HW219171   7.325   0.739   0.660  0.2412 -0.3458  0.3450
 4872SOL     OW19172   7.702   2.366   4.527  0.0709  0.2585  0.2199
 4872SOL    HW119173   7.714   2.360   4.432 -0.1440  0.2545  0.1921
 4872SOL    HW219174   7.672   2.278   4.553  2.1522 -0.3827  0.5994
 4873SOL     OW19175   3.069   9.547  11.070 -0.1362  0.4199  0.5142
 4873SOL    HW119176   3.111   9.484  11.012  0.2952 -0.9516  2.2174
 4873SOL    HW219177   3.132   9.619  11.077  0.6887 -0.3151  0.8297
 4874SOL     OW19178   3.911   1.815   7.929  0.7776 -1.0294  0.3145
 4874SOL    HW119179   3.875   1.768   8.005 -1.5132 -0.1330 -0.1245
 4874SOL    HW219180   3.960   1.888   7.967 -0.5014 -0.4814  0.9719
 4875SOL     OW19181   3.922  11.921   7.350 -1.0432  0.4778  0.2890
 4875SOL    HW119182   3.844  11.920   7.406 -0.9193  2.5479  0.5891
 4875SOL    HW219183   3.934  12.014   7.328  1.6224  0.3013  0.6772
 4876SOL     OW19184   9.486   0.697   8.779 -0.1085  0.6641  0.0810
 4876SOL    HW119185   9.581   0.690   8.777 -0.2461 -2.1950 -0.7886
 4876SOL    HW219186   9.461   0.677   8.869  0.0796  0.9183  0.1891
 4877SOL     OW19187   8.171   7.485   0.463  0.8062 -0.4881 -0.1552
 4877SOL    HW119188   8.161   7.560   0.404 -2.1305  1.6085  2.6796
 4877SOL    HW219189   8.093   7.431   0.446  0.3681 -0.2936  1.1356
 4878SOL     OW19190   3.382   4.160  10.995 -0.1167  0.2328  1.0296
 4878SOL    HW119191   3.433   4.116  10.927  0.3963  1.4411  0.6202
 4878SOL    HW219192   3.341   4.088  11.043 -0.2354 -0.6579 -0.3463
 4879SOL     OW19193  11.378   8.704   0.389  0.1890 -0.7022  0.1775
 4879SOL    HW119194  11.373   8.797   0.369 -0.5588 -0.7128  0.2909
 4879SOL    HW219195  11.435   8.699   0.466  0.3630 -0.3557  0.0706
 4880SOL     OW19196   4.071   4.430   3.678  0.4795 -0.9813 -0.2373
 4880SOL    HW119197   4.004   4.486   3.715  1.6077 -0.4290  1.0878
 4880SOL    HW219198   4.123   4.487   3.622  0.7987 -1.0118  0.0207
 4881SOL     OW19199   9.941   1.589   2.718  0.1382 -0.2498  0.4356
 4881SOL    HW119200   9.937   1.553   2.630  3.1865 -1.0331  0.5297
 4881SOL    HW219201   9.893   1.672   2.711 -0.1524 -0.5332 -1.8074
 4882SOL     OW19202   6.346   1.924   2.952  0.1835 -0.4060 -0.1946
 4882SOL    HW119203   6.273   1.900   2.894  0.0021  0.4798 -0.3445
 4882SOL    HW219204   6.382   2.004   2.914 -0.5903  0.7772  1.4568
 4883SOL     OW19205   6.544   6.492   7.040  0.0955  0.5858 -0.9571
 4883SOL    HW119206   6.513   6.478   7.130  0.0782 -3.9035 -1.4331
 4883SOL    HW219207   6.612   6.425   7.028  0.5378  1.4815 -4.1060
 4884SOL     OW19208  10.541   7.028   2.133  0.2631  0.0914  0.0379
 4884SOL    HW119209  10.624   7.076   2.136 -1.0627  2.5263  0.3108
 4884SOL    HW219210  10.537   6.994   2.044  0.4163  2.2313 -0.8595
 4885SOL     OW19211   0.697  11.896   5.787 -0.4157  0.3044 -0.1288
 4885SOL    HW119212   0.652  11.906   5.871 -1.7345  1.8775 -0.9865
 4885SOL    HW219213   0.635  11.849   5.732  0.6828 -1.2722 -0.0975
 4886SOL     OW19214  10.195   5.195   6.849  0.0817  0.0135  0.0396
 4886SOL    HW119215  10.241   5.251   6.912  1.0581 -1.5680  0.8066
 4886SOL    HW219216  10.128   5.251   6.811  0.3847  1.4211  1.4763
 4887SOL     OW19217   2.691   5.946   9.418  0.0399  0.2481  0.0740
 4887SOL    HW119218   2.765   5.987   9.463 -0.2796 -0.3754  1.1889
 4887SOL    HW219219   2.614   5.987   9.457 -0.2721 -1.0266  0.8505
 4888SOL     OW19220   6.948   0.762   7.233  0.0025  0.1397  0.0529
 4888SOL    HW119221   6.943   0.856   7.251 -0.0649 -0.0239  0.9864
 4888SOL    HW219222   6.891   0.748   7.158  1.1447  1.0526 -1.0154
 4889SOL     OW19223   1.744   9.696   2.814  0.3279  0.1049  0.2040
 4889SOL    HW119224   1.702   9.677   2.730  1.4254 -2.0984  0.0959
 4889SOL    HW219225   1.671   9.702   2.876 -0.4288  0.8825 -0.7309
 4890SOL     OW19226   2.017   4.428   5.709  0.1076 -0.0968 -0.0410
 4890SOL    HW119227   1.960   4.449   5.783  1.1641 -0.3027  0.8469
 4890SOL    HW219228   1.979   4.350   5.670 -0.8846  0.4448 -0.1971
 4891SOL     OW19229   5.905   4.662  12.078  0.7094 -0.4733  0.3535
 4891SOL    HW119230   5.858   4.627  12.154  1.5685 -0.4214  0.9179
 4891SOL    HW219231   5.923   4.753  12.101  2.7608 -0.9798  0.9954
 4892SOL     OW19232  12.099   6.744   9.862 -0.2273 -0.2190  0.4818
 4892SOL    HW119233  12.120   6.681   9.932  0.8810 -2.2486 -1.5599
 4892SOL    HW219234  12.179   6.795   9.851 -0.5288  0.3613  0.9178
 4893SOL     OW19235  11.984   5.408   5.180 -0.1330 -0.2638  0.2216
 4893SOL    HW119236  12.009   5.343   5.245  1.6883 -0.1252 -0.2899
 4893SOL    HW219237  11.905   5.373   5.139 -1.1102 -0.5102  2.2396
 4894SOL     OW19238   0.665   4.057   4.840  0.7970  0.0084  0.0322
 4894SOL    HW119239   0.738   4.116   4.822  0.2131  0.9017  0.4957
 4894SOL    HW219240   0.617   4.100   4.911  0.1179 -0.8222  0.0880
 4895SOL     OW19241   5.346   0.983   2.495 -0.3664  0.4200  0.2111
 4895SOL    HW119242   5.395   0.906   2.465 -0.1531 -0.0910  1.7634
 4895SOL    HW219243   5.271   0.989   2.437  1.2354  0.9075 -1.9175
 4896SOL     OW19244   4.129   5.042   3.842  0.1029  0.2712 -0.7687
 4896SOL    HW119245   4.217   5.006   3.834  0.5038  0.6594  1.2510
 4896SOL    HW219246   4.074   4.980   3.794  1.1705 -1.3286 -0.0367
 4897SOL     OW19247   5.310   5.360   2.780  0.6589 -0.3677  0.2879
 4897SOL    HW119248   5.237   5.391   2.833  1.1461  2.4073 -0.5369
 4897SOL    HW219249   5.288   5.268   2.761 -1.5896 -0.1954  1.7095
 4898SOL     OW19250  10.588  11.219   6.250 -0.3814  0.0067  0.0959
 4898SOL    HW119251  10.528  11.183   6.315  1.0751 -3.1636 -0.1350
 4898SOL    HW219252  10.545  11.205   6.166 -1.1296  1.7481  0.1399
 4899SOL     OW19253   1.269  11.873   2.901  0.2774  0.6771  0.6644
 4899SOL    HW119254   1.269  11.800   2.839  1.5673 -0.7460  2.2342
 4899SOL    HW219255   1.221  11.839   2.977  0.1491  1.7930  1.0974
 4900SOL     OW19256   8.818   1.903  11.153  0.2902 -0.5643  0.7777
 4900SOL    HW119257   8.846   1.815  11.129  0.5069  0.0007 -1.1594
 4900SOL    HW219258   8.724   1.903  11.139  0.2141 -0.6074  1.2513
 4901SOL     OW19259   0.272   9.055   7.173  0.0603  0.0747 -0.1826
 4901SOL    HW119260   0.247   8.990   7.239 -1.3063 -1.6593 -2.2863
 4901SOL    HW219261   0.192   9.105   7.157  0.8342  1.6600  0.6544
 4902SOL     OW19262   8.116   8.650   8.179 -0.3875 -0.3089 -0.0259
 4902SOL    HW119263   8.125   8.555   8.189  0.2821 -0.1958  0.5495
 4902SOL    HW219264   8.143   8.686   8.264 -0.5344  0.4037 -0.2726
 4903SOL     OW19265   9.607  11.985   9.900  0.0358  0.1299  0.4063
 4903SOL    HW119266   9.648  11.986   9.813 -0.1878 -0.2769  0.2889
 4903SOL    HW219267   9.588  11.892   9.915 -0.1976  0.2357  0.7623
 4904SOL     OW19268   0.949   9.586   1.680 -0.0211 -0.3872  0.2530
 4904SOL    HW119269   0.896   9.542   1.746 -2.2651  0.8522 -0.6060
 4904SOL    HW219270   0.987   9.515   1.629 -1.0577 -1.3440  0.7577
 4905SOL     OW19271   0.183   6.710   6.026  0.4280 -0.7138 -0.0624
 4905SOL    HW119272   0.261   6.700   5.972  0.5142  0.5178 -0.1981
 4905SOL    HW219273   0.212   6.758   6.103  0.2801 -2.3573  1.0808
 4906SOL     OW19274   3.140   3.334   2.440 -0.1329  0.0945  0.6141
 4906SOL    HW119275   3.047   3.325   2.421  0.2374 -1.0833 -0.8234
 4906SOL    HW219276   3.147   3.418   2.486 -1.7210  0.8586 -0.4398
 4907SOL     OW19277   8.871   5.746   3.972 -0.1271  0.3211  0.2336
 4907SOL    HW119278   8.846   5.745   3.880  1.2875 -0.4221 -0.1812
 4907SOL    HW219279   8.863   5.654   4.000  0.0389  0.4399  0.6786
 4908SOL     OW19280  12.046  10.399   4.409  0.2537  0.4515 -0.2365
 4908SOL    HW119281  12.062  10.362   4.496  0.6331 -0.5772 -0.7312
 4908SOL    HW219282  12.123  10.373   4.358 -1.6644 -2.3452 -1.9571
 4909SOL     OW19283   7.461   5.707   0.957 -1.5271 -0.5806 -0.7749
 4909SOL    HW119284   7.383   5.656   0.982 -1.4834  0.2801  1.2542
 4909SOL    HW219285   7.451   5.790   1.002  0.0108 -0.0076 -1.4363
 4910SOL     OW19286   5.947   9.437   2.381  0.2072  0.1862 -0.7957
 4910SOL    HW119287   5.852   9.443   2.392  0.3563  0.7368  0.3912
 4910SOL    HW219288   5.980   9.421   2.470  1.1420 -1.2317 -1.3779
 4911SOL     OW19289  11.889   5.152   2.994 -0.5713 -0.1580 -0.1097
 4911SOL    HW119290  11.980   5.167   3.021 -0.6751 -2.7647  2.0772
 4911SOL    HW219291  11.896   5.111   2.907  0.3473 -0.5492  0.1413
 4912SOL     OW19292   5.465   2.897   8.271  0.3352 -0.1138  0.2315
 4912SOL    HW119293   5.454   2.802   8.277  0.0465 -0.2308 -1.6587
 4912SOL    HW219294   5.544   2.909   8.218 -0.7253  0.6694 -1.2366
 4913SOL     OW19295   9.525   3.215   6.294  0.1723 -0.1619  0.8013
 4913SOL    HW119296   9.587   3.254   6.355  0.8893 -0.0477  0.0034
 4913SOL    HW219297   9.544   3.256   6.210 -0.5373 -0.6148  0.4090
 4914SOL     OW19298   7.089   7.087  11.043  0.3145  0.1656 -0.2820
 4914SOL    HW119299   7.110   7.109  10.953  1.0858 -2.3993 -0.7906
 4914SOL    HW219300   6.997   7.114  11.053  1.1528  3.6738 -0.6497
 4915SOL     OW19301   7.596  11.740  11.730 -0.3894 -0.3893  0.2003
 4915SOL    HW119302   7.552  11.815  11.770 -0.9671  0.2826 -1.5785
 4915SOL    HW219303   7.673  11.777  11.688  0.3474 -1.1157  0.8734
 4916SOL     OW19304  11.587  11.207   4.330 -0.3874  0.2169  0.1582
 4916SOL    HW119305  11.676  11.241   4.319  0.3252 -1.1696  1.2520
 4916SOL    HW219306  11.539  11.241   4.255  0.8511  1.6635 -0.0302
 4917SOL     OW19307   8.435  10.950   7.848  0.0779  0.0444  0.3945
 4917SOL    HW119308   8.511  10.969   7.902 -0.6796 -0.8656  1.8355
 4917SOL    HW219309   8.442  11.011   7.775  2.3556 -0.2199  0.2981
 4918SOL     OW19310   7.582   3.902  10.548 -0.1348 -0.2985  0.2007
 4918SOL    HW119311   7.519   3.906  10.476  0.1702 -1.0561 -0.1195
 4918SOL    HW219312   7.529   3.915  10.627 -0.2844  1.8877 -0.2080
 4919SOL     OW19313   0.439   0.057   8.161 -0.3663  0.1944  0.0688
 4919SOL    HW119314   0.397   0.031   8.243 -1.6786  0.8897 -0.3523
 4919SOL    HW219315   0.531   0.068   8.184 -0.4966 -0.7721  1.1708
 4920SOL     OW19316   4.633  10.499   1.486 -0.0284 -0.2238  0.3431
 4920SOL    HW119317   4.723  10.528   1.500  0.2390 -0.7752 -0.1976
 4920SOL    HW219318   4.627  10.484   1.392 -1.5015  2.4831 -0.1094
 4921SOL     OW19319   1.693  10.290  12.097 -0.2607 -0.0852  0.2835
 4921SOL    HW119320   1.765  10.299  12.158 -0.1943 -0.8378  0.3232
 4921SOL    HW219321   1.616  10.273  12.151 -0.3322 -0.0476  0.1960
 4922SOL     OW19322  11.011   0.025   5.962  0.1590  0.5520  0.1437
 4922SOL    HW119323  11.001   0.099   5.902  3.4280  0.9304 -0.1095
 4922SOL    HW219324  11.091  -0.018   5.934 -0.0101 -1.2841  2.2027
 4923SOL     OW19325   3.659   0.084  10.106  0.1732  0.0630  0.1777
 4923SOL    HW119326   3.627   0.007  10.060  1.3841 -0.4391  0.1376
 4923SOL    HW219327   3.754   0.076  10.103  0.3121  1.3925  0.4643
 4924SOL     OW19328   0.865   6.245   9.993 -0.1562 -1.0235 -0.1496
 4924SOL    HW119329   0.902   6.306  10.056  1.6322 -1.3217 -0.8444
 4924SOL    HW219330   0.772   6.239  10.016 -0.2326  1.4022  0.3487
 4925SOL     OW19331   3.896   5.303   4.088 -0.0478 -0.1573  0.1118
 4925SOL    HW119332   3.920   5.372   4.149 -1.1966  0.0303  0.3765
 4925SOL    HW219333   3.907   5.342   4.002 -1.6339  0.7241  0.2678
 4926SOL     OW19334   0.181   9.817   9.226 -0.1254  0.3789  0.0406
 4926SOL    HW119335   0.172   9.912   9.233 -0.2286  0.3945 -0.2643
 4926SOL    HW219336   0.091   9.785   9.220 -0.0848  0.2752 -0.0091
 4927SOL     OW19337   3.397   1.952   3.701 -0.2267 -0.4762 -0.4588
 4927SOL    HW119338   3.415   2.018   3.768 -0.1985 -2.5533  1.7004
 4927SOL    HW219339   3.307   1.926   3.716 -0.0730 -1.3215 -0.9276
 4928SOL     OW19340   0.918   1.078   7.255  0.2691 -0.3931 -0.2546
 4928SOL    HW119341   0.994   1.102   7.202  0.7209  0.6302  0.8172
 4928SOL    HW219342   0.928   0.984   7.269  0.5721 -0.5295 -1.2812
 4929SOL     OW19343   9.011   5.894   1.777 -0.3229  0.1082 -0.2484
 4929SOL    HW119344   8.942   5.892   1.844 -0.1841 -0.4967 -0.1173
 4929SOL    HW219345   9.081   5.840   1.813  0.4510  1.1578 -0.1467
 4930SOL     OW19346  11.029   2.754   5.504  0.2799  0.0295  0.1766
 4930SOL    HW119347  11.005   2.791   5.420  0.3432  0.9949  0.5674
 4930SOL    HW219348  10.963   2.788   5.565  0.1767 -0.7346  0.5035
 4931SOL     OW19349  10.999   8.256   2.654 -0.1759 -0.3187  0.2765
 4931SOL    HW119350  10.970   8.310   2.728 -0.4443  0.8036 -0.6181
 4931SOL    HW219351  10.945   8.177   2.659  0.3641 -0.6170  1.7312
 4932SOL     OW19352   3.638   5.528   4.318  0.1751  0.3153  0.3832
 4932SOL    HW119353   3.568   5.505   4.378 -0.6438  1.3080 -0.1433
 4932SOL    HW219354   3.708   5.466   4.337 -0.9373 -0.8789  0.7509
 4933SOL     OW19355   2.094   9.351   7.036 -0.2858  0.1435  0.2959
 4933SOL    HW119356   2.067   9.272   6.989 -0.2093 -1.1642  2.3387
 4933SOL    HW219357   2.068   9.423   6.978 -2.7212 -1.2544 -0.5065
 4934SOL     OW19358   9.680   7.591   1.619  0.0802  0.9551 -0.8599
 4934SOL    HW119359   9.766   7.571   1.656 -1.3382 -2.3477  1.0569
 4934SOL    HW219360   9.647   7.663   1.674 -0.1014 -0.7735  1.4584
 4935SOL     OW19361   3.364   0.230   3.564 -0.2554 -0.0034 -0.0295
 4935SOL    HW119362   3.380   0.163   3.629 -0.5724 -0.4327 -0.3825
 4935SOL    HW219363   3.293   0.195   3.510 -1.9469  1.5181  1.0889
 4936SOL     OW19364  10.173  10.157   6.767 -0.4583  0.3939 -0.5151
 4936SOL    HW119365  10.191  10.104   6.690 -0.5390  0.0321 -0.2902
 4936SOL    HW219366  10.102  10.111   6.812 -0.1762  0.4126 -0.0430
 4937SOL     OW19367   3.435  11.288   6.330  0.0227  0.1365  0.0816
 4937SOL    HW119368   3.484  11.363   6.296  0.7271 -0.6068 -0.5641
 4937SOL    HW219369   3.488  11.212   6.306 -0.8780 -0.5973  0.3895
 4938SOL     OW19370   0.407   2.266   3.260  0.7668  0.1216  0.6209
 4938SOL    HW119371   0.323   2.291   3.222  0.9006  3.0238  2.0439
 4938SOL    HW219372   0.470   2.282   3.190  0.2622 -1.7531 -0.3389
 4939SOL     OW19373  10.336  10.994  10.634  0.3077 -0.2675  0.1160
 4939SOL    HW119374  10.366  10.903  10.639  2.1269  0.2223 -0.8631
 4939SOL    HW219375  10.328  11.010  10.540 -0.1463  0.5576  0.2901
 4940SOL     OW19376  11.010   1.218  10.040  0.1433 -0.1244 -0.0148
 4940SOL    HW119377  10.947   1.227   9.969 -0.1013 -0.1371  0.1991
 4940SOL    HW219378  11.093   1.246  10.002  0.1523 -0.7984 -0.5091
 4941SOL     OW19379  11.582  12.001   6.858  0.2332 -0.2909 -0.1023
 4941SOL    HW119380  11.558  11.934   6.921 -1.7084  0.3103 -0.1406
 4941SOL    HW219381  11.499  12.040   6.831  1.3150  2.8738  0.7161
 4942SOL     OW19382   0.545   1.937   2.864 -0.0844  0.5416  0.3172
 4942SOL    HW119383   0.501   2.022   2.867 -2.0542 -0.3912 -0.4222
 4942SOL    HW219384   0.547   1.908   2.956  1.6453  1.8439  0.7302
 4943SOL     OW19385   3.123   2.222   5.254 -0.3393  0.5702 -0.1762
 4943SOL    HW119386   3.211   2.186   5.269 -0.8594 -0.6812  0.0537
 4943SOL    HW219387   3.113   2.290   5.321  0.6795  1.1658 -0.6078
 4944SOL     OW19388   1.499  11.483   3.920  0.0358  0.3008 -0.4323
 4944SOL    HW119389   1.523  11.426   3.993 -0.6006  0.2594 -0.2482
 4944SOL    HW219390   1.526  11.435   3.842 -1.2344 -0.6256 -0.3178
 4945SOL     OW19391   2.707   7.268   9.406 -0.5935  0.9794  0.0357
 4945SOL    HW119392   2.705   7.172   9.408 -1.3598  1.0006  0.9075
 4945SOL    HW219393   2.615   7.294   9.411 -0.3553  1.7725  0.4496
 4946SOL     OW19394   5.753   1.196   7.804  0.1297 -0.3285  0.2868
 4946SOL    HW119395   5.733   1.124   7.864 -1.2235 -0.9643 -0.8649
 4946SOL    HW219396   5.699   1.268   7.835 -1.8836 -1.1629 -1.0843
 4947SOL     OW19397   3.556   4.620   8.541  0.2234  0.2821  0.0940
 4947SOL    HW119398   3.562   4.558   8.468 -0.3326  0.9677 -0.5489
 4947SOL    HW219399   3.587   4.571   8.617 -3.6369 -2.0885  0.4081
 4948SOL     OW19400  11.323  12.082   6.804  0.3504  0.1099  0.0639
 4948SOL    HW119401  11.242  12.127   6.781  0.6357  1.0805  0.8555
 4948SOL    HW219402  11.296  11.993   6.827 -0.7316  0.8333  1.8371
 4949SOL     OW19403   8.586  10.744   1.890 -0.4725 -0.2935 -0.3479
 4949SOL    HW119404   8.502  10.787   1.911 -0.3103  0.3920 -1.0657
 4949SOL    HW219405   8.626  10.729   1.976 -0.2931  1.5193 -0.0689
 4950SOL     OW19406   5.138  10.483   2.808  0.0864 -0.0616 -0.0346
 4950SOL    HW119407   5.075  10.411   2.812  0.7510 -0.8665 -2.5782
 4950SOL    HW219408   5.091  10.554   2.763  1.2502 -1.0704 -3.0141
 4951SOL     OW19409   4.633   0.349   4.134  0.2391  0.4077  0.3957
 4951SOL    HW119410   4.692   0.413   4.174  2.8503 -2.1452  0.8960
 4951SOL    HW219411   4.642   0.364   4.040 -0.4929  1.8061  0.5170
 4952SOL     OW19412   0.530   8.358   8.917  0.5731  0.0031  0.3526
 4952SOL    HW119413   0.481   8.418   8.973  0.2054 -1.6299  1.8732
 4952SOL    HW219414   0.592   8.414   8.870 -0.1613  1.6329  1.2425
 4953SOL     OW19415  11.948   8.462  10.510 -0.3657  0.0233 -0.0948
 4953SOL    HW119416  12.035   8.437  10.479  0.0072 -1.2675  1.7709
 4953SOL    HW219417  11.963   8.496  10.599 -1.6911  0.4060  0.0146
 4954SOL     OW19418   8.546   6.653   2.620  0.4160  0.7659 -0.3653
 4954SOL    HW119419   8.595   6.607   2.688  0.0816  0.7182 -0.1562
 4954SOL    HW219420   8.580   6.742   2.621  0.7814  0.6304 -0.4945
 4955SOL     OW19421   3.226   5.017   8.058 -0.0556  0.6098  0.1513
 4955SOL    HW119422   3.283   4.955   8.105 -1.7218 -0.1633  1.2811
 4955SOL    HW219423   3.156   5.036   8.121 -0.6698  2.0610 -0.9351
 4956SOL     OW19424   2.945  10.058   1.845 -0.1608  0.5533  0.1954
 4956SOL    HW119425   3.038  10.067   1.865 -0.0928  1.3851 -0.4177
 4956SOL    HW219426   2.933   9.966   1.822  0.4291  0.3576  0.6626
 4957SOL     OW19427   5.978   7.997   8.485  0.3933  0.0413  0.2927
 4957SOL    HW119428   6.033   8.050   8.428 -0.6826  0.0101 -0.8253
 4957SOL    HW219429   5.945   7.927   8.428 -1.2250  0.3773  0.7533
 4958SOL     OW19430   0.839   9.202   7.613 -0.6337  0.3696 -0.0821
 4958SOL    HW119431   0.796   9.171   7.533 -0.1144 -1.2828  0.2436
 4958SOL    HW219432   0.770   9.247   7.662 -1.4212 -0.2628 -0.6036
 4959SOL     OW19433   5.076   8.114   7.531 -0.2280  0.2358  0.1175
 4959SOL    HW119434   5.058   8.022   7.514 -1.1217  0.3693  0.2470
 4959SOL    HW219435   5.059   8.124   7.625  2.2030  0.0339  0.6245
 4960SOL     OW19436   6.003   9.689  10.730 -0.4861 -0.3573  0.3413
 4960SOL    HW119437   6.035   9.770  10.771  0.7240 -1.1262  0.9776
 4960SOL    HW219438   6.023   9.621  10.794 -0.4872 -1.3070 -0.6423
 4961SOL     OW19439   5.140   1.027   2.931 -0.3336  0.5282  0.1222
 4961SOL    HW119440   5.186   0.999   2.852  0.1141  0.2549  0.4739
 4961SOL    HW219441   5.122   0.945   2.978  0.4447  0.7599  0.8625
 4962SOL     OW19442   3.965  10.369   9.017  0.4010  0.1820 -0.4736
 4962SOL    HW119443   3.879  10.341   8.986 -0.6223  2.2032  0.3198
 4962SOL    HW219444   3.964  10.464   9.004  2.6991  0.1966 -0.8347
 4963SOL     OW19445   0.700   9.949   0.282  0.0919  0.1739 -0.1241
 4963SOL    HW119446   0.668   9.893   0.353 -1.0657 -0.7887 -1.3528
 4963SOL    HW219447   0.683  10.038   0.313  0.7319 -0.1747  1.3066
 4964SOL     OW19448   6.286   5.321  10.247 -0.8025  0.0101 -0.4673
 4964SOL    HW119449   6.340   5.387  10.204 -0.9907 -0.1390 -0.9420
 4964SOL    HW219450   6.256   5.264  10.175 -3.0076  1.0901 -0.5095
 4965SOL     OW19451   7.792   5.612   6.943 -0.2967  0.3707 -0.1647
 4965SOL    HW119452   7.799   5.693   6.993  0.5183  1.0291 -1.3049
 4965SOL    HW219453   7.763   5.640   6.856 -0.5682 -0.6232 -0.4034
 4966SOL     OW19454  11.807   3.423   9.702 -0.3416  0.0269  0.3041
 4966SOL    HW119455  11.779   3.383   9.785  0.9061 -0.1394  0.6751
 4966SOL    HW219456  11.879   3.481   9.727  1.0788 -1.1749 -0.8198
 4967SOL     OW19457   7.626   5.988   5.153 -0.3747 -0.1847 -0.4678
 4967SOL    HW119458   7.595   6.076   5.131 -0.5581 -0.9105 -3.5954
 4967SOL    HW219459   7.555   5.950   5.204 -2.5890 -0.0739 -3.1935
 4968SOL     OW19460   7.611   7.444   0.754  0.4853  0.7321 -0.1687
 4968SOL    HW119461   7.566   7.452   0.838 -0.1286  2.0268 -0.5818
 4968SOL    HW219462   7.543   7.412   0.694  1.0153 -0.5523 -0.1216
 4969SOL     OW19463  10.448  11.007   8.801  0.3814 -0.5622  0.3728
 4969SOL    HW119464  10.512  11.057   8.852 -0.5138 -0.0529  1.0054
 4969SOL    HW219465  10.469  11.028   8.710  0.9363 -0.1861  0.5797
 4970SOL     OW19466   0.348  12.127   5.848  0.7794 -0.5634  0.4741
 4970SOL    HW119467   0.274  12.069   5.836  1.5986 -1.5333  0.0105
 4970SOL    HW219468   0.339  12.159   5.938 -0.1135 -0.7662  0.4635
 4971SOL     OW19469   1.151   5.423   7.416  0.1350  0.3677  0.1691
 4971SOL    HW119470   1.177   5.331   7.422  0.0455  0.3174 -0.1711
 4971SOL    HW219471   1.231   5.469   7.388  0.9062  0.7898  2.7875
 4972SOL     OW19472   6.328   8.996   9.495  0.3397 -0.0298  0.0278
 4972SOL    HW119473   6.338   9.055   9.569 -0.1795  0.1256 -0.0196
 4972SOL    HW219474   6.271   8.927   9.527  2.3968 -1.5232  0.6591
 4973SOL     OW19475  11.547  10.435   6.885  0.6000 -0.5663  0.5081
 4973SOL    HW119476  11.496  10.409   6.962 -2.8276 -3.5383 -2.3394
 4973SOL    HW219477  11.587  10.353   6.854 -0.1263 -0.0791 -2.0209
 4974SOL     OW19478  10.815  10.764   3.482 -0.0522  0.4760  0.1898
 4974SOL    HW119479  10.817  10.754   3.386 -0.3659  0.9395  0.1255
 4974SOL    HW219480  10.725  10.744   3.506  0.4071 -1.2081  0.5947
 4975SOL     OW19481   3.810  10.520   2.911  0.3032 -0.2862  0.2795
 4975SOL    HW119482   3.757  10.445   2.884  0.4357 -0.6662  1.0726
 4975SOL    HW219483   3.747  10.582   2.948  0.2969 -0.3258  0.3333
 4976SOL     OW19484   3.523   1.163   4.413 -1.0194 -0.0134  0.2343
 4976SOL    HW119485   3.445   1.110   4.431 -0.9267  0.0701  0.9018
 4976SOL    HW219486   3.579   1.105   4.361 -1.1485 -0.3896  0.5048
 4977SOL     OW19487   4.746  11.260   8.498  0.4252 -0.0717 -0.8233
 4977SOL    HW119488   4.718  11.193   8.436 -0.5907  0.2000 -0.6669
 4977SOL    HW219489   4.693  11.337   8.477 -0.8387 -0.3273  1.1418
 4978SOL     OW19490   1.031   3.721   3.403 -0.0113  0.0958  0.3289
 4978SOL    HW119491   0.978   3.762   3.335  0.9079  0.9851  0.1251
 4978SOL    HW219492   1.100   3.675   3.355  0.3693  0.3404  0.6291
 4979SOL     OW19493   6.106   8.389   0.232 -0.0539  0.2323  0.4263
 4979SOL    HW119494   6.011   8.388   0.233 -0.1535 -0.3651 -2.3672
 4979SOL    HW219495   6.131   8.297   0.237  0.5178  0.4448  2.8639
 4980SOL     OW19496   9.118   5.046   1.735 -0.1734  0.2791  0.4907
 4980SOL    HW119497   9.025   5.067   1.732  0.2441  2.4110 -1.4761
 4980SOL    HW219498   9.158   5.122   1.779  0.8659  0.9946 -1.5297
 4981SOL     OW19499  11.208   6.324   1.898 -0.9841 -0.1504  0.3293
 4981SOL    HW119500  11.262   6.300   1.823  0.7280 -0.9446  1.7407
 4981SOL    HW219501  11.241   6.410   1.924 -2.6876  0.8932 -0.7547
 4982SOL     OW19502   5.498  10.813   9.433  0.0799 -0.0874 -0.0989
 4982SOL    HW119503   5.592  10.800   9.428 -0.0812 -0.8713 -1.3182
 4982SOL    HW219504   5.463  10.774   9.353 -1.1100  1.7534 -0.5496
 4983SOL     OW19505   1.291   7.929   7.288  0.7718  0.0597 -0.5178
 4983SOL    HW119506   1.247   7.933   7.203  1.4117 -1.6830 -0.9761
 4983SOL    HW219507   1.376   7.971   7.273  0.7498  0.0607 -0.6430
 4984SOL     OW19508   4.206   8.118   6.952 -0.1669 -0.4212  0.1628
 4984SOL    HW119509   4.207   8.100   6.858  2.7236 -0.2399  0.0652
 4984SOL    HW219510   4.215   8.213   6.958 -1.8204 -0.2639  0.6765
 4985SOL     OW19511   1.402   4.460   9.075 -0.0710 -0.1553  0.1674
 4985SOL    HW119512   1.328   4.399   9.086 -1.8712  2.1647  2.0189
 4985SOL    HW219513   1.383   4.505   8.993 -0.4814  0.0711  0.3786
 4986SOL     OW19514   0.485  11.823   5.350 -0.3337  0.8259 -0.1186
 4986SOL    HW119515   0.461  11.795   5.438  1.2985 -0.8421 -0.1363
 4986SOL    HW219516   0.422  11.892   5.329 -1.5659  0.3937  1.8376
 4987SOL     OW19517   0.880   8.325   4.241  0.0967  0.0113 -0.0066
 4987SOL    HW119518   0.829   8.246   4.223  1.3997 -1.1888  1.2722
 4987SOL    HW219519   0.817   8.386   4.280 -0.2111 -1.9568  2.9399
 4988SOL     OW19520   4.789  10.975   2.920 -0.3384 -0.6009  0.1094
 4988SOL    HW119521   4.758  11.065   2.924  0.6689 -0.2752  0.9182
 4988SOL    HW219522   4.764  10.937   3.004 -0.5911 -1.0176 -0.1530
 4989SOL     OW19523   7.562  11.947   2.026 -0.2527  0.1343  0.3927
 4989SOL    HW119524   7.519  11.871   1.988 -0.5630 -0.2811  1.5143
 4989SOL    HW219525   7.498  12.018   2.020  0.6692  0.8494 -2.2869
 4990SOL     OW19526   8.623   0.661   3.601 -0.0812 -0.8013  0.3845
 4990SOL    HW119527   8.573   0.579   3.610  3.3316 -3.7502 -3.7011
 4990SOL    HW219528   8.576   0.710   3.533 -0.7863 -0.4702  1.0926
 4991SOL     OW19529   6.949   3.744   5.221  0.1028  0.2025 -0.0483
 4991SOL    HW119530   7.001   3.762   5.299  1.5785  1.2126 -1.2039
 4991SOL    HW219531   6.914   3.829   5.195  0.1538 -0.0095 -0.8419
 4992SOL     OW19532   7.276  11.464   9.959  0.5928 -0.6081 -0.2678
 4992SOL    HW119533   7.210  11.530   9.980  0.7517  0.1905 -2.0620
 4992SOL    HW219534   7.265  11.447   9.866  2.3707 -1.0769 -0.4478
 4993SOL     OW19535   8.816  11.560   5.051 -0.5201  0.3953  0.4186
 4993SOL    HW119536   8.800  11.613   4.972 -0.7951 -0.4818 -0.1254
 4993SOL    HW219537   8.846  11.476   5.018  0.6182  0.4287  1.3091
 4994SOL     OW19538   2.194   9.864  10.305 -0.4367 -0.1098  0.1814
 4994SOL    HW119539   2.270   9.857  10.247 -1.3049 -2.1920 -0.8182
 4994SOL    HW219540   2.222   9.821  10.386 -0.3580 -0.4148 -0.0031
 4995SOL     OW19541  11.224   2.602   0.014  0.4294  0.2779 -0.7871
 4995SOL    HW119542  11.208   2.597   0.108  0.5105 -0.8640 -0.8163
 4995SOL    HW219543  11.136   2.603  -0.024  0.3931 -0.3665 -0.7333
 4996SOL     OW19544  11.978   3.318   7.596 -0.0090 -0.1066 -0.7166
 4996SOL    HW119545  12.005   3.402   7.635 -0.6310 -0.8011  1.3650
 4996SOL    HW219546  11.891   3.336   7.559 -1.4716 -0.3876  2.2473
 4997SOL     OW19547   5.482  10.388   7.178  0.8164 -0.3083  0.2130
 4997SOL    HW119548   5.398  10.374   7.135  1.0241  0.7885 -0.6002
 4997SOL    HW219549   5.537  10.315   7.147  0.8113  0.1878 -1.0218
 4998SOL     OW19550   7.643   9.585   8.446 -0.9779 -0.4993  0.0925
 4998SOL    HW119551   7.583   9.511   8.440 -0.6493 -0.7977  0.4354
 4998SOL    HW219552   7.590   9.655   8.486 -0.8360 -1.0687  1.3240
 4999SOL     OW19553   0.817   8.408   1.967  0.2819  0.1982 -0.5010
 4999SOL    HW119554   0.773   8.448   1.892 -0.3648  1.1227  0.3377
 4999SOL    HW219555   0.768   8.440   2.043  0.5463 -1.1861  0.2923
 5000SOL     OW19556  10.073  10.483   9.734 -0.4075  0.5103  0.5847
 5000SOL    HW119557  10.089  10.530   9.816  1.8077 -0.9904  1.0833
 5000SOL    HW219558  10.129  10.406   9.738 -3.1183 -1.7319 -0.6584
 5001SOL     OW19559   9.966   1.131   4.838 -0.4528 -0.1861  0.1045
 5001SOL    HW119560   9.960   1.050   4.789 -4.0847 -1.5278  2.3932
 5001SOL    HW219561   9.892   1.184   4.807  0.2671  1.1421  0.5450
 5002SOL     OW19562  10.479   4.659   5.732 -0.4418  0.0139  0.1122
 5002SOL    HW119563  10.561   4.705   5.710  0.7067 -0.5879  2.7339
 5002SOL    HW219564  10.462   4.682   5.823 -1.7879 -1.9101  0.4166
 5003SOL     OW19565  11.096   5.523   4.434 -0.2264 -0.0724  0.3721
 5003SOL    HW119566  11.060   5.537   4.521 -0.7791  2.3591 -0.1699
 5003SOL    HW219567  11.027   5.553   4.375 -0.0190 -2.0199 -0.9634
 5004SOL     OW19568   6.457   6.043   2.208 -0.5101  0.4707  0.0519
 5004SOL    HW119569   6.474   6.046   2.114 -2.3719  1.6965 -0.2922
 5004SOL    HW219570   6.396   5.970   2.219 -1.1015  0.9770  0.1512
 5005SOL     OW19571   5.240   4.931   5.188 -0.5056 -0.8585  0.1288
 5005SOL    HW119572   5.162   4.964   5.144  1.0185 -0.2270 -2.3212
 5005SOL    HW219573   5.237   4.837   5.174  0.0312 -0.6642 -1.6658
 5006SOL     OW19574   4.607  10.191   2.159 -0.4292  0.1305 -0.1366
 5006SOL    HW119575   4.701  10.171   2.162 -0.2071  1.1483  1.2160
 5006SOL    HW219576   4.572  10.152   2.239 -0.7303  1.5694  0.4686
 5007SOL     OW19577   8.125  11.061   4.577  0.5823  0.7592 -0.0878
 5007SOL    HW119578   8.196  11.080   4.516  1.4712 -0.7609  0.4268
 5007SOL    HW219579   8.065  11.135   4.568  1.7564  1.6081 -1.2228
 5008SOL     OW19580   5.274   1.545  10.919  0.1192 -0.7559  0.3651
 5008SOL    HW119581   5.226   1.584  10.846  0.7345  1.3553  1.0049
 5008SOL    HW219582   5.366   1.567  10.902  0.5523 -2.2859  0.5953
 5009SOL     OW19583   1.877   5.534   5.022  0.0237 -0.1533 -0.0654
 5009SOL    HW119584   1.941   5.569   4.960  1.1015 -1.6517  0.1404
 5009SOL    HW219585   1.930   5.486   5.085 -1.3930 -3.8377 -1.4272
 5010SOL     OW19586   6.279   4.484   2.423  0.3303 -0.4767 -0.4649
 5010SOL    HW119587   6.263   4.574   2.396  0.8004 -0.0321  0.6791
 5010SOL    HW219588   6.205   4.462   2.479  1.1739 -0.0990  0.8524
 5011SOL     OW19589  11.214   7.875   8.947 -0.6785  0.6045 -0.2088
 5011SOL    HW119590  11.133   7.847   8.905 -0.1019 -0.6941 -0.5076
 5011SOL    HW219591  11.207   7.971   8.950 -2.5356  0.5005  0.4389
 5012SOL     OW19592   4.415   5.358   9.206 -0.4072 -0.7139  0.1844
 5012SOL    HW119593   4.335   5.368   9.154  0.1346 -1.7427 -0.8868
 5012SOL    HW219594   4.465   5.438   9.189 -0.6370 -0.6410 -0.1528
 5013SOL     OW19595  10.985   0.454   6.337 -0.3806 -0.3748 -0.0841
 5013SOL    HW119596  10.919   0.483   6.400 -0.9413  1.9368 -1.6259
 5013SOL    HW219597  11.065   0.445   6.389 -0.7509  1.7185  0.9527
 5014SOL     OW19598   1.822   7.977   8.591 -0.0639  0.2023  0.3591
 5014SOL    HW119599   1.795   7.893   8.553  0.6321  1.2060 -2.6435
 5014SOL    HW219600   1.917   7.970   8.602  0.0963  0.7665 -0.5245
 5015SOL     OW19601   9.671   0.772   2.042 -0.2323 -0.1904 -0.0426
 5015SOL    HW119602   9.756   0.805   2.072 -0.0606 -0.6151 -0.0539
 5015SOL    HW219603   9.692   0.720   1.964 -0.4240 -0.8282  0.3238
 5016SOL     OW19604   7.026   9.134  11.619  0.0547  0.0180 -0.2053
 5016SOL    HW119605   7.121   9.142  11.622  0.3175 -1.7808 -1.9687
 5016SOL    HW219606   6.994   9.215  11.659  2.3076  2.2204 -2.4952
 5017SOL     OW19607   4.406   6.369   7.665  0.7007 -0.0508 -0.0783
 5017SOL    HW119608   4.457   6.327   7.596  0.0745  0.9445 -1.1805
 5017SOL    HW219609   4.470   6.419   7.715  1.1014 -0.4423 -0.1889
 5018SOL     OW19610   8.110  10.565   2.590  0.1182  0.3181 -0.9110
 5018SOL    HW119611   8.022  10.602   2.588  0.0114  0.0888 -0.5983
 5018SOL    HW219612   8.168  10.640   2.602 -0.1239  0.3471  0.1284
 5019SOL     OW19613   1.064   7.293   4.884  0.2767  0.5049 -0.0620
 5019SOL    HW119614   1.159   7.290   4.894  0.2847 -1.2731 -0.1869
 5019SOL    HW219615   1.049   7.322   4.794  0.6479  2.0995  0.3793
 5020SOL     OW19616   8.302   5.950   7.813  0.9740  0.0056  0.4172
 5020SOL    HW119617   8.272   5.867   7.850 -0.3054  0.7995  1.2372
 5020SOL    HW219618   8.343   5.926   7.730 -2.0610 -1.1873 -0.8929
 5021SOL     OW19619   9.832   8.393  10.643  0.5561 -0.1691  0.3610
 5021SOL    HW119620   9.919   8.383  10.683  0.5493 -0.3338  0.3369
 5021SOL    HW219621   9.774   8.412  10.717  0.5377 -0.5069  0.4366
 5022SOL     OW19622   1.914  10.767   4.700 -0.3684 -0.2631 -0.0505
 5022SOL    HW119623   1.841  10.726   4.654 -0.2221 -0.0783 -0.4547
 5022SOL    HW219624   1.974  10.696   4.720 -0.4344 -0.3436 -0.1418
 5023SOL     OW19625  10.820   5.374   2.923  0.5952  0.3335  0.0701
 5023SOL    HW119626  10.876   5.392   2.998  3.3436  1.3946 -2.0801
 5023SOL    HW219627  10.858   5.295   2.883 -0.4812  0.1054 -0.5546
 5024SOL     OW19628   8.825  10.967   2.130 -0.2502  0.0438 -0.3541
 5024SOL    HW119629   8.893  10.912   2.169 -0.1644  0.2736 -0.1785
 5024SOL    HW219630   8.758  10.905   2.101 -0.6512 -0.0851  0.7964
 5025SOL     OW19631   9.291  10.751   0.803  0.2561  0.8976 -0.2569
 5025SOL    HW119632   9.220  10.686   0.812  1.2338 -0.5077 -2.0137
 5025SOL    HW219633   9.252  10.822   0.753 -0.2917  0.7731 -0.0152
 5026SOL     OW19634   1.724   7.079   5.844 -0.3642 -0.1987  0.2905
 5026SOL    HW119635   1.663   7.039   5.782 -0.9675  1.3880 -0.2135
 5026SOL    HW219636   1.684   7.164   5.865  1.4830  0.7340  0.2305
 5027SOL     OW19637   7.840   5.402   0.617  0.1779  0.6241  0.5476
 5027SOL    HW119638   7.842   5.416   0.523 -0.7810  0.5331  0.5014
 5027SOL    HW219639   7.767   5.341   0.631  0.5639  0.3156  1.3054
 5028SOL     OW19640   9.150   1.175   9.388 -0.2284  0.2819  0.3247
 5028SOL    HW119641   9.164   1.175   9.483 -0.6757  0.4348  0.3934
 5028SOL    HW219642   9.131   1.083   9.368  0.6264  0.1124  0.2623
 5029SOL     OW19643  11.610   2.891   6.900 -0.1361 -0.3124 -0.6237
 5029SOL    HW119644  11.535   2.839   6.872  0.1132 -0.6505 -0.6579
 5029SOL    HW219645  11.574   2.979   6.912 -0.2041 -0.1039 -2.1978
 5030SOL     OW19646   2.217   4.257   5.928  0.3181 -0.3205 -0.0748
 5030SOL    HW119647   2.212   4.205   6.009  0.8610  0.0084  0.1792
 5030SOL    HW219648   2.200   4.347   5.956  1.7090 -0.0257 -0.1124
 5031SOL     OW19649   8.886   5.853   4.643  0.0087 -0.6608  0.3382
 5031SOL    HW119650   8.867   5.915   4.573 -0.9012 -1.6317 -0.3166
 5031SOL    HW219651   8.915   5.773   4.598  2.9969 -0.1978  1.2175
 5032SOL     OW19652  10.963  10.909   3.116 -0.1684 -0.1565  0.2596
 5032SOL    HW119653  10.876  10.878   3.145 -0.3549  1.0943  1.1145
 5032SOL    HW219654  10.947  10.998   3.084  0.7544 -0.0344  0.1373
 5033SOL     OW19655   7.813   8.128   1.295 -0.0511 -0.0798 -0.1180
 5033SOL    HW119656   7.862   8.053   1.260  0.4387 -1.0592  2.4688
 5033SOL    HW219657   7.880   8.195   1.311 -0.2110  0.2060 -0.6229
 5034SOL     OW19658   7.954   1.955  10.342  0.1136 -0.3491 -0.1969
 5034SOL    HW119659   7.936   1.863  10.323 -0.1080 -0.3565  0.0571
 5034SOL    HW219660   8.047   1.957  10.366 -0.1616 -0.6842  0.9383
 5035SOL     OW19661   3.014   8.605   9.363 -0.5154 -0.4076  0.3614
 5035SOL    HW119662   3.090   8.654   9.331 -1.2745 -0.6871 -2.0772
 5035SOL    HW219663   3.016   8.616   9.458  1.5003  1.1406  0.1932
 5036SOL     OW19664   9.441   1.942   7.646  0.0710 -0.3312  0.3710
 5036SOL    HW119665   9.365   1.906   7.690 -0.0036 -1.1778 -0.4138
 5036SOL    HW219666   9.407   1.979   7.564  0.4462 -0.4262  0.1645
 5037SOL     OW19667  10.285   3.422   9.110  0.1247  0.4342  0.2032
 5037SOL    HW119668  10.285   3.328   9.091  2.2496  0.6074 -0.9171
 5037SOL    HW219669  10.246   3.462   9.032 -1.1691  0.5014  0.8513
 5038SOL     OW19670   1.989   4.283   1.532 -0.1767 -0.9935 -0.2815
 5038SOL    HW119671   1.915   4.294   1.474  1.0085  1.9557 -1.4184
 5038SOL    HW219672   1.956   4.308   1.619 -0.8130 -0.8574 -0.5591
 5039SOL     OW19673   4.909  10.442   5.091 -0.0395 -0.0479  0.5498
 5039SOL    HW119674   4.826  10.471   5.053  0.8522  0.3097 -1.2395
 5039SOL    HW219675   4.969  10.515   5.074  1.0807 -1.0344  0.1652
 5040SOL     OW19676   8.672   4.609   4.252 -0.2273 -0.3654 -0.6912
 5040SOL    HW119677   8.624   4.530   4.229  0.2554 -1.0791  0.6452
 5040SOL    HW219678   8.614   4.657   4.311 -0.3346  0.0607 -1.1338
 5041SOL     OW19679   9.117   7.270   1.301  0.3561 -0.3775 -0.7786
 5041SOL    HW119680   9.091   7.277   1.393  2.6907  0.3210 -0.0949
 5041SOL    HW219681   9.150   7.181   1.292  1.6853  0.0624 -0.4533
 5042SOL     OW19682  10.774   7.666  10.550 -0.1967  0.3767  0.7147
 5042SOL    HW119683  10.760   7.631  10.462  1.0932 -1.7347  1.2947
 5042SOL    HW219684  10.685   7.685  10.581 -1.0453 -2.4594  0.3357
 5043SOL     OW19685   1.779   0.995   0.362 -0.1685 -0.2541  1.2118
 5043SOL    HW119686   1.717   1.040   0.304  0.2289  0.6584  1.4791
 5043SOL    HW219687   1.783   0.906   0.328  2.7356  1.0164 -2.5571
 5044SOL     OW19688  10.930   9.680  12.106 -0.0586  0.5394 -0.3973
 5044SOL    HW119689  10.967   9.611  12.051 -1.1779  0.9180 -1.6737
 5044SOL    HW219690  10.843   9.648  12.129  0.2341  0.5756  0.8358
 5045SOL     OW19691   5.034   1.142   9.089  0.3117  0.6127  0.3452
 5045SOL    HW119692   5.117   1.096   9.087  1.5155  2.6542  0.4455
 5045SOL    HW219693   5.011   1.147   9.182 -0.9660 -1.6130  0.2095
 5046SOL     OW19694   5.005  11.801   4.001  0.1173 -0.7476  0.0670
 5046SOL    HW119695   4.993  11.706   3.997 -4.3362 -0.4452  0.8077
 5046SOL    HW219696   4.954  11.835   3.927 -2.0551  1.0667  2.1974
 5047SOL     OW19697   2.300   6.025   5.810  0.2318 -0.9028 -0.2972
 5047SOL    HW119698   2.270   6.102   5.858  0.6132  0.3220 -1.9145
 5047SOL    HW219699   2.255   5.952   5.851 -1.7761  0.4131 -0.0279
 5048SOL     OW19700   7.776   8.813   4.237  0.4388 -0.4514 -0.0472
 5048SOL    HW119701   7.800   8.736   4.186  0.3093 -1.3870  1.2551
 5048SOL    HW219702   7.858   8.860   4.249  0.8042 -1.1878  0.4189
 5049SOL     OW19703  11.316   7.435   0.129  0.0836 -0.2254  0.0088
 5049SOL    HW119704  11.222   7.417   0.118  0.2922 -1.6055  0.2984
 5049SOL    HW219705  11.327   7.442   0.224  0.5937 -2.1507  0.1336
 5050SOL     OW19706   5.712   7.648   1.891 -0.3779  0.7538 -0.3597
 5050SOL    HW119707   5.640   7.684   1.838 -1.6933  0.6073  1.2401
 5050SOL    HW219708   5.688   7.556   1.904  0.6095  0.4516 -0.5709
 5051SOL     OW19709   6.305  11.078   8.701 -0.3607  0.3961 -0.5784
 5051SOL    HW119710   6.284  11.019   8.773  0.7531  2.4938  1.5970
 5051SOL    HW219711   6.398  11.062   8.684  0.6666  3.0729  1.7617
 5052SOL     OW19712   3.299   8.189   1.527  0.6455  0.2433  0.2882
 5052SOL    HW119713   3.261   8.246   1.460  2.1286  0.1361 -0.6925
 5052SOL    HW219714   3.290   8.238   1.609 -0.5221  0.7014 -0.0975
 5053SOL     OW19715  11.947   7.102   8.161  0.0375 -0.0628 -0.6649
 5053SOL    HW119716  11.856   7.128   8.145 -0.6313 -0.9067  1.4046
 5053SOL    HW219717  11.998   7.182   8.147 -0.7722  0.0897 -3.3406
 5054SOL     OW19718   1.442   0.234   4.409 -0.0973 -0.3698 -0.4880
 5054SOL    HW119719   1.529   0.267   4.431  0.0978 -0.5419 -0.9899
 5054SOL    HW219720   1.409   0.199   4.492 -0.1084  0.6182 -0.0705
 5055SOL     OW19721  10.476   8.356   4.607  0.0196 -0.0252 -0.0308
 5055SOL    HW119722  10.397   8.304   4.624 -0.1192  0.3877  0.6132
 5055SOL    HW219723  10.493   8.402   4.690  2.5730 -2.2568  0.8241
 5056SOL     OW19724   0.735  11.853  11.869  0.2546 -0.3650  0.3734
 5056SOL    HW119725   0.666  11.877  11.931 -1.2434 -0.8264 -1.0495
 5056SOL    HW219726   0.756  11.935  11.824  2.8393  0.4546  2.7808
 5057SOL     OW19727   6.000   5.744   7.217 -0.2662 -0.1844 -0.1217
 5057SOL    HW119728   5.949   5.725   7.138  0.3914 -2.9947  0.0613
 5057SOL    HW219729   6.031   5.659   7.248  2.3312  1.1590  1.2918
 5058SOL     OW19730   7.956   9.214  11.061 -0.0187 -0.1562 -0.1007
 5058SOL    HW119731   7.875   9.228  11.111 -0.4313 -1.6598 -0.2891
 5058SOL    HW219732   8.025   9.216  11.127 -0.3614 -0.2301  0.2693
 5059SOL     OW19733   6.560   3.140   0.585 -0.2164 -0.2040  0.3336
 5059SOL    HW119734   6.631   3.078   0.598  0.6001  0.7556  0.5740
 5059SOL    HW219735   6.496   3.117   0.653  0.6588  0.0311  1.2679
 5060SOL     OW19736   7.629   7.066   8.127 -0.0505 -0.4435  0.7372
 5060SOL    HW119737   7.573   7.070   8.204  0.8804 -1.4272  1.4926
 5060SOL    HW219738   7.690   7.139   8.139 -0.9574  0.4586  0.0503
 5061SOL     OW19739  12.017   5.283   7.610  0.0690  0.2072  0.1978
 5061SOL    HW119740  12.018   5.193   7.578 -0.2389  0.5531 -0.8367
 5061SOL    HW219741  11.940   5.287   7.667 -0.5895  0.1068 -0.6682
 5062SOL     OW19742  10.932  11.899   3.092 -0.5989 -0.3150 -0.0259
 5062SOL    HW119743  10.989  11.936   3.024  0.6590  0.2217  1.2675
 5062SOL    HW219744  10.935  11.805   3.078 -0.2746 -0.2141 -0.6539
 5063SOL     OW19745   3.458  11.232   8.657  0.2405 -0.3764  0.2182
 5063SOL    HW119746   3.544  11.263   8.683  0.1273  0.0579  0.0728
 5063SOL    HW219747   3.470  11.196   8.569 -0.2481  2.0760 -0.9157
 5064SOL     OW19748   4.703  11.988   9.816 -1.0597  0.1946 -0.6137
 5064SOL    HW119749   4.672  11.982   9.725  1.4793 -0.1447 -1.5430
 5064SOL    HW219750   4.677  11.905   9.856 -1.7922  0.1515 -1.1620
 5065SOL     OW19751   3.431   1.745  10.133 -0.0437  0.6518  0.2061
 5065SOL    HW119752   3.379   1.671  10.165  1.2190 -0.5223 -0.3451
 5065SOL    HW219753   3.366   1.809  10.104 -1.1742 -0.3279  0.4881
 5066SOL     OW19754   3.913   5.482   3.875 -0.1577  0.4283  0.3173
 5066SOL    HW119755   3.897   5.480   3.780 -2.2471  1.2122  0.6141
 5066SOL    HW219756   3.880   5.568   3.903 -0.2748 -0.1086  1.8819
 5067SOL     OW19757   7.986   5.286  11.748  0.5136  0.1501  0.8211
 5067SOL    HW119758   8.053   5.238  11.699  0.3528 -0.2200  0.9549
 5067SOL    HW219759   7.906   5.234  11.736  0.5388 -0.1133  1.7292
 5068SOL     OW19760   4.409   7.009   8.616 -1.1779 -0.2549 -0.7915
 5068SOL    HW119761   4.322   7.041   8.639 -1.0883  0.2717 -1.1734
 5068SOL    HW219762   4.464   7.088   8.616  0.0913 -0.9357  2.9185
 5069SOL     OW19763   9.015  10.057   7.196  0.0823 -0.2493  0.4669
 5069SOL    HW119764   9.028   9.964   7.179  0.8575  0.1393 -1.2939
 5069SOL    HW219765   8.991  10.062   7.289 -1.6364 -2.3297  0.2087
 5070SOL     OW19766  10.024   0.992  10.568  0.1430 -0.0066 -0.0291
 5070SOL    HW119767   9.993   0.910  10.606 -2.7026 -0.0060 -2.1004
 5070SOL    HW219768  10.008   1.058  10.636 -0.5440 -0.6703  0.4609
 5071SOL     OW19769   8.512   5.601   2.642  0.0519 -0.1235  0.3946
 5071SOL    HW119770   8.502   5.590   2.547 -0.5625 -1.2134  0.5769
 5071SOL    HW219771   8.602   5.575   2.660 -0.6836 -2.8692  0.4905
 5072SOL     OW19772   7.312   2.923   9.190  0.0593 -0.3180 -0.0261
 5072SOL    HW119773   7.340   3.015   9.190  1.1402 -0.5747 -2.2806
 5072SOL    HW219774   7.393   2.873   9.185 -0.5680 -1.2529 -1.9079
 5073SOL     OW19775   9.237   8.268  10.523  0.1210 -0.3495 -0.3938
 5073SOL    HW119776   9.206   8.321  10.597  1.1293  1.5386 -1.2460
 5073SOL    HW219777   9.159   8.226  10.489 -0.2692 -2.0645  2.2714
 5074SOL     OW19778   3.619   9.463  11.009 -0.1025  0.1176 -0.2304
 5074SOL    HW119779   3.681   9.389  11.007 -0.2396 -0.0076  0.2376
 5074SOL    HW219780   3.673   9.538  11.033  0.0753  0.2130 -0.8937
 5075SOL     OW19781   3.248  10.888   5.198  0.1919  0.5914 -0.6085
 5075SOL    HW119782   3.230  10.795   5.188 -0.2155  0.0887  3.3502
 5075SOL    HW219783   3.164  10.931   5.185 -0.2136  0.0868  0.2943
 5076SOL     OW19784   9.507  10.524  10.352  0.3214  0.1492 -0.2782
 5076SOL    HW119785   9.538  10.614  10.361 -0.3802  0.4231 -0.5805
 5076SOL    HW219786   9.428  10.530  10.299  0.7823 -0.7399 -1.1223
 5077SOL     OW19787   2.580   2.029   6.619 -0.0089 -0.2670  0.2796
 5077SOL    HW119788   2.577   2.123   6.605  0.0882 -0.3940 -0.6783
 5077SOL    HW219789   2.489   2.001   6.615 -0.0080 -0.2600  0.2068
 5078SOL     OW19790   7.342   6.007   1.807 -0.0933  0.0447 -0.7724
 5078SOL    HW119791   7.282   6.026   1.879 -1.6161  2.1246 -2.4850
 5078SOL    HW219792   7.421   6.057   1.828 -0.5504  0.6908 -0.5510
 5079SOL     OW19793   8.057  10.756   1.190 -0.0379 -0.1209  0.6177
 5079SOL    HW119794   8.087  10.717   1.272  0.8957 -0.7880 -0.0145
 5079SOL    HW219795   7.996  10.825   1.216 -1.0004 -1.3774  1.8022
 5080SOL     OW19796  10.100   4.909   3.570 -0.2984  0.7705  0.1926
 5080SOL    HW119797  10.056   4.950   3.646  0.2297  0.6037  0.5948
 5080SOL    HW219798  10.193   4.926   3.585  0.0128 -1.1415  0.7304
 5081SOL     OW19799   2.964   9.574   1.255 -0.1732  0.2965 -0.6429
 5081SOL    HW119800   3.040   9.543   1.206 -1.5910 -1.7943 -1.6826
 5081SOL    HW219801   2.973   9.534   1.342 -0.1490 -0.0748 -0.8146
 5082SOL     OW19802   6.929   7.228   6.140 -0.2266 -0.7869  0.5383
 5082SOL    HW119803   6.895   7.243   6.051  0.2766  0.8696  0.5865
 5082SOL    HW219804   6.960   7.138   6.139  1.1755 -0.3607 -1.4942
 5083SOL     OW19805   0.610   9.389   4.723 -0.3867 -0.2462 -0.4569
 5083SOL    HW119806   0.697   9.409   4.690 -0.6027 -0.6121 -1.2666
 5083SOL    HW219807   0.597   9.297   4.702 -0.1230 -0.8054  1.6017
 5084SOL     OW19808   1.903   2.136   4.115  0.1600  0.3191  0.1219
 5084SOL    HW119809   1.990   2.103   4.135 -0.0616 -0.7025 -0.5244
 5084SOL    HW219810   1.915   2.189   4.036 -0.0930 -1.5128 -1.2205
 5085SOL     OW19811  10.799   1.637   4.009  0.5283 -0.3085  0.3447
 5085SOL    HW119812  10.879   1.587   3.989 -0.0938 -0.6784 -1.3901
 5085SOL    HW219813  10.747   1.578   4.063  0.5277 -0.9206 -0.3016
 5086SOL     OW19814   8.342   8.260   1.230 -0.3934 -0.0957 -0.1655
 5086SOL    HW119815   8.437   8.253   1.236 -0.3610  1.2339  1.7526
 5086SOL    HW219816   8.327   8.320   1.156  0.2443 -0.2129 -0.4002
 5087SOL     OW19817   8.191   5.937  10.753 -0.0293 -0.2876 -0.7486
 5087SOL    HW119818   8.258   5.999  10.780 -2.3189  1.5669  1.1257
 5087SOL    HW219819   8.111   5.989  10.749 -1.7675 -2.7875 -0.8019
 5088SOL     OW19820   3.281   0.613   7.579 -0.2796 -0.4870  0.6833
 5088SOL    HW119821   3.232   0.656   7.650 -0.6857 -1.1002  0.7846
 5088SOL    HW219822   3.253   0.521   7.584  0.2466 -0.6735  0.1950
 5089SOL     OW19823   0.913   4.275   3.212 -0.3872 -0.1149  0.0398
 5089SOL    HW119824   0.903   4.204   3.148 -2.3772 -0.0244  0.1817
 5089SOL    HW219825   0.980   4.243   3.272 -0.3307 -1.3307 -0.6182
 5090SOL     OW19826   6.529   0.133   8.358  0.1329 -0.5081 -0.3895
 5090SOL    HW119827   6.518   0.038   8.358 -0.8373 -0.4312  1.7394
 5090SOL    HW219828   6.612   0.147   8.311  2.4364 -2.7308  2.5730
 5091SOL     OW19829  11.307   8.856   5.896 -0.0112  0.1865 -0.2618
 5091SOL    HW119830  11.398   8.829   5.911  0.7642  0.6734 -3.4063
 5091SOL    HW219831  11.257   8.810   5.963  2.5048 -0.2383  1.4700
 5092SOL     OW19832   4.524   9.550   9.418 -0.2244  0.5740 -0.3129
 5092SOL    HW119833   4.466   9.621   9.443  0.4783  0.8702  0.5341
 5092SOL    HW219834   4.510   9.539   9.324 -0.5523  1.6320 -0.4001
 5093SOL     OW19835   7.024   0.403   0.936  0.1709 -0.0184  0.4105
 5093SOL    HW119836   6.963   0.476   0.952  1.9204  1.9705 -1.4675
 5093SOL    HW219837   7.096   0.419   0.996 -0.0005 -0.9897  0.9002
 5094SOL     OW19838   8.292   5.170   1.890 -0.6922  0.4505  0.2700
 5094SOL    HW119839   8.241   5.137   1.965  0.0877  0.5080  0.8388
 5094SOL    HW219840   8.305   5.093   1.835 -0.7106  0.2620  0.5238
 5095SOL     OW19841  10.146   2.762   6.044  0.1769 -0.3419 -0.0148
 5095SOL    HW119842  10.099   2.744   5.963  1.5927  1.5405 -1.3578
 5095SOL    HW219843  10.133   2.856   6.059  0.4544 -0.5252  1.6377
 5096SOL     OW19844   5.312   2.275   1.658  0.0184 -0.2116 -0.0667
 5096SOL    HW119845   5.300   2.181   1.647 -0.5052 -0.3467  1.4390
 5096SOL    HW219846   5.406   2.289   1.651  0.0971 -0.8466 -0.2916
 5097SOL     OW19847   5.485   2.591   0.829  0.1694 -0.4913 -0.3235
 5097SOL    HW119848   5.403   2.564   0.868  0.6060 -0.8604  0.3514
 5097SOL    HW219849   5.550   2.581   0.899  0.4937  1.5208 -0.2737
 5098SOL     OW19850   4.506   3.064   5.708  0.0565 -0.8053  0.0293
 5098SOL    HW119851   4.422   3.037   5.671  0.7098 -0.7621 -1.5756
 5098SOL    HW219852   4.493   3.155   5.734  0.3711  0.1879 -2.9206
 5099SOL     OW19853   1.006   5.001   6.673 -0.1087 -0.7229  0.7752
 5099SOL    HW119854   1.033   4.927   6.618  0.1471 -1.2632  1.6169
 5099SOL    HW219855   0.918   5.021   6.643  0.4746 -0.1887 -0.6934
 5100SOL     OW19856   1.663  11.356  11.765  0.0216  0.2458 -0.2031
 5100SOL    HW119857   1.661  11.363  11.670 -0.0037 -0.5745 -0.2667
 5100SOL    HW219858   1.754  11.373  11.789 -0.0159  0.6690 -0.3506
 5101SOL     OW19859  11.537   1.860  11.095 -0.4123 -0.9451 -0.4267
 5101SOL    HW119860  11.514   1.933  11.153  2.1083 -0.2321 -0.1991
 5101SOL    HW219861  11.603   1.812  11.144  2.2930  0.0251 -2.8424
 5102SOL     OW19862   8.748   9.190   4.252  0.2601 -0.1943  0.0194
 5102SOL    HW119863   8.823   9.234   4.213 -0.5338  0.8612 -0.3519
 5102SOL    HW219864   8.677   9.202   4.189 -0.4845 -0.3096  0.8140
 5103SOL     OW19865   8.751  11.199   3.049 -0.6927  0.0079 -0.1904
 5103SOL    HW119866   8.792  11.120   3.013  0.2768  0.5829 -0.3892
 5103SOL    HW219867   8.713  11.243   2.973 -1.1492 -0.2150 -0.0935
 5104SOL     OW19868   3.302   0.300   5.590  0.0913  0.2439  0.2144
 5104SOL    HW119869   3.278   0.376   5.537 -0.2870 -1.4769 -2.2479
 5104SOL    HW219870   3.391   0.319   5.621  0.4731  1.1809 -1.3551
 5105SOL     OW19871   7.319   4.496   3.644 -1.0912  0.0474  0.0146
 5105SOL    HW119872   7.350   4.407   3.623  0.3983  0.4320  0.4139
 5105SOL    HW219873   7.394   4.552   3.622 -1.6436  1.0917  0.7458
 5106SOL     OW19874  10.327   3.710   3.555 -0.6470 -0.5497 -0.3222
 5106SOL    HW119875  10.355   3.799   3.533 -1.4110 -0.5186 -1.1900
 5106SOL    HW219876  10.391   3.681   3.621  0.4368  0.1280 -1.0456
 5107SOL     OW19877  11.214   8.013  10.328  0.6433 -0.1601  0.3792
 5107SOL    HW119878  11.301   8.046  10.305 -0.1875  1.6271 -0.3496
 5107SOL    HW219879  11.203   7.934  10.276  1.2206  0.4620 -0.7071
 5108SOL     OW19880   6.727   0.769   5.235 -0.0765  0.1420  0.3955
 5108SOL    HW119881   6.733   0.828   5.159 -1.8658  0.3973  0.3977
 5108SOL    HW219882   6.779   0.812   5.303  1.4889 -0.0495 -0.6238
 5109SOL     OW19883   6.385   1.545   9.880 -0.4118  0.0245  0.0971
 5109SOL    HW119884   6.330   1.480   9.923 -0.5127  0.0774  0.0465
 5109SOL    HW219885   6.474   1.524   9.910 -0.4069 -0.3243 -0.1487
 5110SOL     OW19886   8.914   9.992   0.812  0.2004  0.4487  1.4717
 5110SOL    HW119887   8.892   9.902   0.835 -2.3727  0.5146 -0.2539
 5110SOL    HW219888   8.866  10.046   0.874 -0.3200  0.6011  0.9504
 5111SOL     OW19889  10.841   3.831   1.982 -0.9195 -0.3876 -0.3210
 5111SOL    HW119890  10.805   3.771   2.047  0.1097 -2.3770 -1.5121
 5111SOL    HW219891  10.782   3.823   1.907  0.1518 -1.2435 -1.1047
 5112SOL     OW19892   5.242   1.239   0.725  0.1600  0.0235 -0.4897
 5112SOL    HW119893   5.209   1.151   0.745  0.7682  0.0878  0.8637
 5112SOL    HW219894   5.175   1.276   0.667 -0.9024 -0.7566  0.1952
 5113SOL     OW19895   5.996   7.881  11.301  0.0937  0.4010  0.1619
 5113SOL    HW119896   6.068   7.931  11.340  1.1534 -0.8067 -0.1940
 5113SOL    HW219897   6.036   7.834  11.228 -1.5650  1.5803 -1.6272
 5114SOL     OW19898   8.225   9.766   4.255 -0.1311 -0.0748  0.3243
 5114SOL    HW119899   8.167   9.714   4.312  0.1188 -0.6975  0.0185
 5114SOL    HW219900   8.195   9.856   4.267 -0.5958 -0.2881  0.8399
 5115SOL     OW19901   0.762   7.636   0.514 -0.0565  0.2659 -0.6261
 5115SOL    HW119902   0.697   7.690   0.560  0.0109 -1.2578  1.3834
 5115SOL    HW219903   0.845   7.657   0.556  0.4504  0.6809 -1.7910
 5116SOL     OW19904  11.411   3.626   2.432  0.0670 -0.4752  0.0629
 5116SOL    HW119905  11.436   3.718   2.416  1.3295 -0.8550 -0.2968
 5116SOL    HW219906  11.494   3.582   2.449 -0.3840 -1.7917 -0.9736
 5117SOL     OW19907  11.114   3.693   3.927  0.1839  0.3808 -0.2283
 5117SOL    HW119908  11.191   3.702   3.870  0.4398  0.0440  0.0584
 5117SOL    HW219909  11.140   3.628   3.992 -0.6221 -0.3420 -0.6034
 5118SOL     OW19910   5.594   3.446   8.390  0.3065 -0.4671  0.1342
 5118SOL    HW119911   5.668   3.489   8.347  0.8893 -1.5046  0.0704
 5118SOL    HW219912   5.632   3.405   8.468 -0.7068  1.2485  1.5848
 5119SOL     OW19913   8.302   5.315   1.392 -0.0960 -0.1310 -0.4446
 5119SOL    HW119914   8.343   5.340   1.309  0.8050  0.0398  0.0463
 5119SOL    HW219915   8.208   5.333   1.378 -0.0599 -0.7757 -1.6641
 5120SOL     OW19916  11.933   0.548  11.574 -0.2316  0.0118  0.9610
 5120SOL    HW119917  11.898   0.479  11.630 -0.1568 -1.8997 -1.1760
 5120SOL    HW219918  12.024   0.523  11.560  0.5566  1.9990  2.1598
 5121SOL     OW19919   9.960   6.696   5.293 -0.4334  0.1095  0.0392
 5121SOL    HW119920  10.036   6.750   5.312 -0.0572 -0.6400  0.7592
 5121SOL    HW219921   9.962   6.628   5.360 -1.1732 -0.5033 -0.5380
 5122SOL     OW19922   5.002   0.421   4.523 -0.2027  0.1310 -0.1428
 5122SOL    HW119923   5.069   0.472   4.567 -0.4504  0.9369 -0.6708
 5122SOL    HW219924   5.021   0.431   4.430 -1.5327  1.0925 -0.3450
 5123SOL     OW19925   9.555   8.614   0.481 -0.5395 -0.0762  0.1386
 5123SOL    HW119926   9.469   8.602   0.522 -1.4220  0.9218 -1.2840
 5123SOL    HW219927   9.538   8.605   0.387  0.8310  0.5968 -0.2014
 5124SOL     OW19928   9.681   4.537   8.986  0.2666  0.2238  0.1032
 5124SOL    HW119929   9.588   4.536   8.963  0.7581 -1.0719 -2.1477
 5124SOL    HW219930   9.683   4.525   9.081 -1.8513  0.7069  0.2551
 5125SOL     OW19931   4.389   3.697   1.494  0.2616  0.4052  0.2368
 5125SOL    HW119932   4.303   3.737   1.508 -0.4220 -0.7032 -0.6200
 5125SOL    HW219933   4.425   3.685   1.582 -0.1738  1.4596  0.5699
 5126SOL     OW19934   4.408   8.223   2.392  0.5428 -0.5560 -0.1763
 5126SOL    HW119935   4.339   8.213   2.458  1.3798 -0.0939  0.8079
 5126SOL    HW219936   4.424   8.317   2.388  0.6876 -0.6074 -0.8506
 5127SOL     OW19937   0.132   5.469   5.283  0.1486 -0.4284 -0.1920
 5127SOL    HW119938   0.043   5.436   5.276 -0.4259  1.0521 -0.1968
 5127SOL    HW219939   0.167   5.463   5.194 -0.6116  0.6912 -0.6006
 5128SOL     OW19940   6.696  10.639   3.319 -0.0658 -0.1455 -0.3614
 5128SOL    HW119941   6.701  10.681   3.233  2.3472 -1.2601 -0.8500
 5128SOL    HW219942   6.603  10.625   3.333 -0.5316 -0.1382 -2.9121
 5129SOL     OW19943   2.108   7.681   3.031 -0.1354  0.2882 -0.5756
 5129SOL    HW119944   2.021   7.686   2.991  0.5657  0.7948 -2.0719
 5129SOL    HW219945   2.153   7.610   2.985  0.1543 -0.2150  0.4350
 5130SOL     OW19946   7.422   3.280   0.678  0.0535  0.2456 -0.1548
 5130SOL    HW119947   7.456   3.213   0.618 -0.8142 -1.3849  1.0825
 5130SOL    HW219948   7.328   3.261   0.684  0.1463  0.2483  1.8150
 5131SOL     OW19949   4.430  11.632   7.010 -0.6504 -0.0197  0.1884
 5131SOL    HW119950   4.517  11.594   7.025 -0.3710  0.7996  0.6767
 5131SOL    HW219951   4.413  11.684   7.089 -2.1390 -1.1862  0.6923
 5132SOL     OW19952  11.760   8.046   7.077 -0.2751 -0.3800  0.3649
 5132SOL    HW119953  11.842   8.094   7.064 -0.2047 -0.9228 -1.4669
 5132SOL    HW219954  11.753   8.036   7.171  1.3141  0.4636  0.6073
 5133SOL     OW19955   6.256   1.833   1.536  0.2601 -0.3073 -0.1419
 5133SOL    HW119956   6.283   1.766   1.599 -3.5120 -0.1561  1.9580
 5133SOL    HW219957   6.190   1.790   1.482  0.5102  0.7292 -1.3267
 5134SOL     OW19958   0.309   8.381   4.302  0.2664 -0.0849 -0.3043
 5134SOL    HW119959   0.349   8.311   4.251 -1.1253 -0.6151 -0.7011
 5134SOL    HW219960   0.361   8.384   4.383 -0.2936 -2.3247  0.1978
 5135SOL     OW19961   9.383   6.706   1.728  0.0092 -0.3668  0.4694
 5135SOL    HW119962   9.448   6.656   1.778 -0.2724 -1.2508 -0.0165
 5135SOL    HW219963   9.424   6.791   1.713  2.4627 -1.8376 -2.4813
 5136SOL     OW19964  10.456   1.694   2.199  0.5057  0.2735  0.2670
 5136SOL    HW119965  10.525   1.646   2.245  1.6451  2.3021  0.7913
 5136SOL    HW219966  10.425   1.759   2.262 -3.2595 -1.6697  0.7158
 5137SOL     OW19967   2.221   1.868   4.692 -0.3835  0.4395 -0.1394
 5137SOL    HW119968   2.253   1.857   4.603  1.3507  0.2533  0.4678
 5137SOL    HW219969   2.140   1.918   4.683 -0.8293 -0.5106 -1.8775
 5138SOL     OW19970   1.676   6.511   8.810 -0.1416  0.3470 -0.5170
 5138SOL    HW119971   1.756   6.563   8.802 -0.1882  0.4082 -0.5955
 5138SOL    HW219972   1.685   6.443   8.744  0.8790 -1.0373  0.9841
 5139SOL     OW19973   6.772   4.644   0.006 -0.4166 -0.4661 -0.0049
 5139SOL    HW119974   6.786   4.734  -0.022 -1.0130 -0.0921  0.8474
 5139SOL    HW219975   6.848   4.624   0.060  0.7257 -1.1833 -1.7973
 5140SOL     OW19976  10.985   4.478   5.131 -0.5199  0.5441 -0.3548
 5140SOL    HW119977  10.909   4.437   5.172  0.3427  1.0241  1.8727
 5140SOL    HW219978  11.057   4.417   5.149  0.2727  1.7505  0.7334
 5141SOL     OW19979   8.946   0.583   5.095  0.4288 -0.0413  0.5592
 5141SOL    HW119980   8.870   0.603   5.040  0.1339  2.5973  1.7888
 5141SOL    HW219981   9.016   0.567   5.032 -0.0975  2.0091 -0.6637
 5142SOL     OW19982   6.547   1.887   0.551 -0.3519 -0.2083 -0.3743
 5142SOL    HW119983   6.459   1.873   0.517 -0.8282 -0.2057  0.8167
 5142SOL    HW219984   6.577   1.801   0.578 -0.2546 -0.1091 -0.1614
 5143SOL     OW19985  10.046   0.893   6.813 -1.0150  0.3771 -0.1037
 5143SOL    HW119986  10.016   0.856   6.730 -1.6339  0.9834 -0.1609
 5143SOL    HW219987  10.007   0.836   6.880 -1.5412  0.6168 -0.2015
 5144SOL     OW19988   1.520   4.054   3.231 -0.6439  0.3187  0.0947
 5144SOL    HW119989   1.582   4.112   3.186  1.3255 -1.2191  0.7098
 5144SOL    HW219990   1.547   3.966   3.206 -0.3870 -0.5368  3.0803
 5145SOL     OW19991   2.519  11.772   4.837  0.0787  0.3259 -0.1127
 5145SOL    HW119992   2.461  11.723   4.779 -0.0452  2.0394 -1.5167
 5145SOL    HW219993   2.604  11.768   4.794  0.1002  1.1965 -0.1551
 5146SOL     OW19994   4.389   1.255   8.809 -0.0153 -0.0162 -0.2329
 5146SOL    HW119995   4.294   1.257   8.802 -0.1146  0.6188  1.0426
 5146SOL    HW219996   4.410   1.317   8.878  1.4133  0.6164 -1.1789
 5147SOL     OW19997  11.868   6.139   0.536 -0.4170  0.2295 -0.0929
 5147SOL    HW119998  11.907   6.064   0.491 -0.1412  0.7866 -0.7979
 5147SOL    HW219999  11.863   6.111   0.627 -0.8313 -0.8605 -0.4251
 5148SOL     OW20000   1.365   7.710   4.934 -0.5044 -0.2633 -0.5810
 5148SOL    HW120001   1.389   7.781   4.875  1.3105 -1.4944 -1.4092
 5148SOL    HW220002   1.361   7.632   4.878  0.4156 -1.3161  0.7500
 5149SOL     OW20003   6.466  11.569  11.872 -0.3453  0.0120  0.0478
 5149SOL    HW120004   6.518  11.537  11.946 -0.4322  0.1915  0.1876
 5149SOL    HW220005   6.480  11.664  11.872 -1.3938  0.1784  0.6478
 5150SOL     OW20006   9.019   3.652  11.886 -0.1982  0.1063  0.2772
 5150SOL    HW120007   9.037   3.689  11.972 -0.5944 -0.7170  0.7223
 5150SOL    HW220008   8.958   3.581  11.903  1.0269 -1.1809 -0.4752
 5151SOL     OW20009   8.690   1.660   8.058  0.1639 -0.4603 -0.0400
 5151SOL    HW120010   8.728   1.669   8.146 -2.4075 -2.1190  1.3817
 5151SOL    HW220011   8.726   1.578   8.025  1.3860  0.3265 -0.7323
 5152SOL     OW20012   1.519   5.234   1.856  0.1193 -0.3647  0.0465
 5152SOL    HW120013   1.549   5.176   1.926  0.9046  0.9241  0.8274
 5152SOL    HW220014   1.435   5.198   1.828 -0.5488 -0.5278  2.1403
 5153SOL     OW20015   8.149   2.520  11.777  0.3964  0.6563 -0.3073
 5153SOL    HW120016   8.164   2.503  11.870 -1.5908  0.9627  0.1213
 5153SOL    HW220017   8.087   2.593  11.776 -1.5969 -0.9423 -1.7850
 5154SOL     OW20018   3.785   0.360   6.573  0.0571 -0.1057 -0.5088
 5154SOL    HW120019   3.803   0.267   6.558  0.8648  0.1782 -1.3992
 5154SOL    HW220020   3.813   0.403   6.493  0.7318  1.0393  0.3129
 5155SOL     OW20021  11.954   3.683   6.841  0.0171  0.2375  1.0425
 5155SOL    HW120022  11.961   3.749   6.773 -0.7613 -0.5828  0.1429
 5155SOL    HW220023  11.926   3.604   6.796  0.3953 -0.5749  2.1755
 5156SOL     OW20024   2.796   1.646   4.666 -0.8163 -0.1324 -0.8692
 5156SOL    HW120025   2.847   1.576   4.627 -0.0958 -0.9398  1.3286
 5156SOL    HW220026   2.842   1.726   4.640  0.7190 -0.7521 -0.2009
 5157SOL     OW20027   4.291   0.969   6.862  0.4025 -0.5446  0.0873
 5157SOL    HW120028   4.203   0.998   6.883 -0.3772 -1.0971 -2.1471
 5157SOL    HW220029   4.304   0.889   6.914 -0.7239 -0.9124 -0.1864
 5158SOL     OW20030   3.924  10.680   7.298  0.0563  0.4204  0.5538
 5158SOL    HW120031   3.916  10.612   7.231 -1.1578  1.2393 -0.1633
 5158SOL    HW220032   4.015  10.709   7.293 -0.0247  0.4979 -0.7827
 5159SOL     OW20033   5.184   6.460   9.340 -0.0541 -0.1000  0.6869
 5159SOL    HW120034   5.192   6.463   9.244 -1.1144  2.0207  0.5953
 5159SOL    HW220035   5.097   6.422   9.356  0.0787 -0.3539  0.8101
 5160SOL     OW20036   5.543   6.088   7.147  0.1581  0.3100 -0.3205
 5160SOL    HW120037   5.603   6.162   7.136  2.5896 -1.3169  1.0835
 5160SOL    HW220038   5.469   6.124   7.197  1.6740  1.6206  1.0872
 5161SOL     OW20039   2.390   1.099   9.615  0.4751 -0.5231 -0.0153
 5161SOL    HW120040   2.434   1.053   9.544  0.1965  0.6620 -0.9918
 5161SOL    HW220041   2.384   1.190   9.585 -1.9864 -0.4870  0.3655
 5162SOL     OW20042  12.053   7.908  11.236 -0.4480  0.2621  0.4235
 5162SOL    HW120043  12.147   7.898  11.224 -0.7142 -1.9286 -0.2837
 5162SOL    HW220044  12.030   7.985  11.185  0.6283 -0.6354 -1.5160
 5163SOL     OW20045   1.550   6.529   2.305  0.1003 -0.0164  0.2361
 5163SOL    HW120046   1.567   6.623   2.318  0.9105  0.2324 -2.1438
 5163SOL    HW220047   1.457   6.519   2.327 -0.1811  1.5024 -0.0827
 5164SOL     OW20048   0.685   0.292   9.565  0.7681 -0.1804 -0.3367
 5164SOL    HW120049   0.760   0.314   9.509  0.5951  0.5328 -0.2977
 5164SOL    HW220050   0.683   0.196   9.566  1.5919 -0.2025 -0.4497
 5165SOL     OW20051  11.357   6.495   5.485 -0.2912 -0.0952  0.3974
 5165SOL    HW120052  11.426   6.560   5.477 -0.0542  0.0238  2.6972
 5165SOL    HW220053  11.282   6.544   5.519 -0.1721 -0.9439  1.9664
 5166SOL     OW20054   0.801   0.106   3.193  0.0029 -0.1663 -0.1843
 5166SOL    HW120055   0.818   0.014   3.170 -2.0206 -1.0289  1.3975
 5166SOL    HW220056   0.887   0.146   3.200  0.9176 -1.7732 -1.5136
 5167SOL     OW20057   7.518  11.212   8.899 -0.4169  0.4902  0.1631
 5167SOL    HW120058   7.535  11.206   8.993 -0.8693  3.0052  0.4751
 5167SOL    HW220059   7.483  11.300   8.887 -1.1090 -0.0545 -2.2694
 5168SOL     OW20060   1.775  11.158  10.103  0.4961  0.2960  0.1104
 5168SOL    HW120061   1.800  11.244  10.069 -0.2236  0.4724 -0.0004
 5168SOL    HW220062   1.841  11.138  10.170  0.1249  1.3840  0.8336
 5169SOL     OW20063   6.582   1.785  10.772  0.4682 -0.4178  0.5714
 5169SOL    HW120064   6.519   1.788  10.700  0.0215 -0.5182  0.9480
 5169SOL    HW220065   6.528   1.775  10.850  0.7278  2.3089  1.2053
 5170SOL     OW20066   3.237   0.400  11.403  0.0316  0.2171 -0.2343
 5170SOL    HW120067   3.235   0.410  11.498 -0.3975 -1.3197 -0.0516
 5170SOL    HW220068   3.321   0.437  11.377  0.3076  0.3498  0.7934
 5171SOL     OW20069   9.581   2.201  10.104  0.4502 -0.3903 -0.5520
 5171SOL    HW120070   9.651   2.226  10.043 -0.7384  1.5251 -1.2391
 5171SOL    HW220071   9.548   2.285  10.137 -2.0385 -1.1918 -0.8457
 5172SOL     OW20072   2.748  11.961  12.097  0.5642  0.2764  0.1787
 5172SOL    HW120073   2.823  11.984  12.152  1.8738 -0.6815 -1.1280
 5172SOL    HW220074   2.701  11.895  12.148  0.8701  0.5440  0.8185
 5173SOL     OW20075   1.661   2.469   3.986 -0.2338  0.9075 -0.5895
 5173SOL    HW120076   1.681   2.397   3.925 -1.2801  0.8347 -0.8709
 5173SOL    HW220077   1.697   2.440   4.070  0.4473  0.6110 -0.9777
 5174SOL     OW20078   7.357   3.917  10.377 -0.1875  0.6905  0.0430
 5174SOL    HW120079   7.282   3.868  10.412 -0.0975 -0.3138 -1.0824
 5174SOL    HW220080   7.318   3.981  10.317 -0.1699  0.2232 -0.4792
 5175SOL     OW20081   2.340   5.393   7.199 -1.0073  0.1712  0.9331
 5175SOL    HW120082   2.400   5.451   7.246 -0.2415 -0.1018  0.3013
 5175SOL    HW220083   2.395   5.342   7.141 -1.6718 -1.2042  1.4573
 5176SOL     OW20084   8.711   6.469   8.409  0.5595  0.6303 -0.0520
 5176SOL    HW120085   8.668   6.531   8.467 -0.0237  0.2822 -0.0943
 5176SOL    HW220086   8.639   6.431   8.358  0.9562  0.2563 -0.3397
 5177SOL     OW20087   7.464   7.337  11.231  0.5304 -0.1439  0.5345
 5177SOL    HW120088   7.417   7.269  11.182  1.3711 -0.5028  0.2005
 5177SOL    HW220089   7.500   7.395  11.163 -0.2777  0.7151  0.8216
 5178SOL     OW20090   5.052   5.350   6.253 -1.0131  0.0962  0.0726
 5178SOL    HW120091   5.109   5.372   6.180  0.2453  0.2820  1.0758
 5178SOL    HW220092   5.025   5.259   6.236 -0.5431  0.0574 -0.4858
 5179SOL     OW20093   5.396   3.639   2.015  0.0033 -0.5217  0.0787
 5179SOL    HW120094   5.319   3.665   2.066 -1.3600 -0.6908 -1.8072
 5179SOL    HW220095   5.450   3.718   2.012 -1.1244  0.2620 -0.3554
 5180SOL     OW20096   3.713   8.780   5.112  0.0359  0.6070 -0.2931
 5180SOL    HW120097   3.682   8.866   5.084  0.6342  0.5577 -1.1287
 5180SOL    HW220098   3.633   8.732   5.132 -0.3682  0.9518 -1.0283
 5181SOL     OW20099   6.136   4.381   5.696  0.4058 -0.1872  0.6111
 5181SOL    HW120100   6.047   4.367   5.665  0.2500 -1.2075  1.4823
 5181SOL    HW220101   6.133   4.468   5.737 -1.0897 -1.4777  3.5734
 5182SOL     OW20102  10.837   6.579   7.502  0.5481 -0.1489  0.8236
 5182SOL    HW120103  10.789   6.659   7.480  0.5526 -0.0922  1.0183
 5182SOL    HW220104  10.926   6.595   7.468  0.3216 -0.4348  0.0631
 5183SOL     OW20105   8.444   2.298   6.255  0.0553  0.0469 -0.1417
 5183SOL    HW120106   8.503   2.354   6.205  1.1576  1.0525  2.1531
 5183SOL    HW220107   8.370   2.282   6.196  0.1489  3.0980 -1.2327
 5184SOL     OW20108  10.472  10.750   2.557  0.1958  0.3141 -0.0275
 5184SOL    HW120109  10.503  10.660   2.573 -0.3490 -0.0299 -0.8263
 5184SOL    HW220110  10.376  10.743   2.563  0.2025  1.3500  2.3557
 5185SOL     OW20111   6.941   9.381   8.727 -0.1273 -0.3225 -0.1489
 5185SOL    HW120112   7.008   9.442   8.756 -1.2942  0.4203  1.1518
 5185SOL    HW220113   6.957   9.302   8.778 -1.0989  0.3724  1.3056
 5186SOL     OW20114   9.624  10.948   3.322  0.2202  0.1383 -0.4623
 5186SOL    HW120115   9.714  10.981   3.319 -0.1385  1.1683 -0.2359
 5186SOL    HW220116   9.631  10.865   3.370  1.2615 -0.5647 -1.7525
 5187SOL     OW20117   6.352   6.933   6.375 -0.1185  0.3173 -0.4260
 5187SOL    HW120118   6.311   6.949   6.460 -0.9258 -1.4091 -0.4557
 5187SOL    HW220119   6.284   6.952   6.311  0.5016  1.6567 -0.7223
 5188SOL     OW20120  12.092   6.114   8.814 -0.2554 -0.0745 -0.1216
 5188SOL    HW120121  12.036   6.083   8.742 -0.1421 -1.2835  0.2919
 5188SOL    HW220122  12.073   6.054   8.886  1.6499 -0.5733 -0.0074
 5189SOL     OW20123   7.754   3.777   7.593  0.0003 -0.3941  0.0615
 5189SOL    HW120124   7.710   3.692   7.600 -0.4603 -0.1893 -0.3407
 5189SOL    HW220125   7.692   3.839   7.631 -0.6584  0.0960 -1.7414
 5190SOL     OW20126   0.237  11.193   9.649 -0.0316 -0.5251 -0.5788
 5190SOL    HW120127   0.169  11.247   9.608  0.1253 -0.7073 -1.0959
 5190SOL    HW220128   0.296  11.172   9.577  0.3880 -0.6496 -0.1992
 5191SOL     OW20129   9.214   6.098  10.271  0.0695 -0.4108 -0.5163
 5191SOL    HW120130   9.197   6.150  10.350 -2.1589  1.7845 -2.2770
 5191SOL    HW220131   9.145   6.032  10.271 -0.9624  0.6190 -1.3645
 5192SOL     OW20132   6.930   4.248   9.456 -0.3986 -0.5493  0.6468
 5192SOL    HW120133   6.910   4.155   9.448 -2.7251 -0.1029  0.6274
 5192SOL    HW220134   6.846   4.292   9.442  0.1300  1.4399  3.0342
 5193SOL     OW20135  10.044   0.788   2.306 -0.0016  0.2846 -0.3176
 5193SOL    HW120136  10.092   0.805   2.387 -1.6652  1.2710  0.5120
 5193SOL    HW220137  10.096   0.721   2.261  0.8301 -0.4848  1.6729
 5194SOL     OW20138   1.449   6.887   0.047  0.1541 -0.1981 -0.1798
 5194SOL    HW120139   1.414   6.958   0.101 -1.5429 -1.8222  0.9375
 5194SOL    HW220140   1.380   6.868  -0.016 -0.6077 -2.5929  1.2449
 5195SOL     OW20141   9.201   5.728   1.024  0.0865 -0.6390  0.5740
 5195SOL    HW120142   9.251   5.696   0.949  0.0043 -0.2418  0.3439
 5195SOL    HW220143   9.228   5.819   1.034 -1.3554 -0.0914 -0.2186
 5196SOL     OW20144   2.920   4.134   6.657  0.6201 -0.1432 -0.2236
 5196SOL    HW120145   2.900   4.075   6.731  1.6070  0.8742  0.8927
 5196SOL    HW220146   2.990   4.190   6.689 -0.5364  1.9240 -1.1135
 5197SOL     OW20147   9.698   3.850  11.635  0.1429  0.1387 -0.1819
 5197SOL    HW120148   9.651   3.769  11.657 -0.6679  0.4887 -0.5618
 5197SOL    HW220149   9.638   3.920  11.662  0.2514  0.5954 -1.0739
 5198SOL     OW20150   5.314   8.238   8.604 -0.8092  0.4528 -0.1305
 5198SOL    HW120151   5.327   8.315   8.548  0.1119  0.4928  0.1175
 5198SOL    HW220152   5.272   8.174   8.547 -1.0430  0.9291 -0.5064
 5199SOL     OW20153   9.721   8.907   0.084 -0.4430  0.2484 -0.2352
 5199SOL    HW120154   9.666   8.831   0.103 -0.5401  0.8448  2.2998
 5199SOL    HW220155   9.777   8.879   0.011 -1.8290 -1.5231 -0.6875
 5200SOL     OW20156  11.079   1.595  10.487  0.1477 -0.5381  0.1959
 5200SOL    HW120157  11.042   1.584  10.400 -3.2031 -0.0511  1.4405
 5200SOL    HW220158  11.170   1.620  10.471 -0.1820 -1.0088 -3.1063
 5201SOL     OW20159   8.592   8.636   2.638 -0.0559  1.1573 -0.2609
 5201SOL    HW120160   8.648   8.675   2.704 -0.7173  1.8086 -0.0635
 5201SOL    HW220161   8.640   8.648   2.556  0.3442  1.1944 -0.0238
 5202SOL     OW20162  11.922  10.335   7.241  0.1644  0.3781 -0.5414
 5202SOL    HW120163  11.915  10.240   7.241  0.7292  0.3377 -0.5917
 5202SOL    HW220164  11.936  10.359   7.149 -1.4353  0.6274 -0.7580
 5203SOL     OW20165   0.924   0.582  11.432  0.3345  0.2421  0.4125
 5203SOL    HW120166   0.922   0.489  11.456  1.0396 -0.0118 -0.4714
 5203SOL    HW220167   0.981   0.622  11.498  1.1306 -0.2022  0.0085
 5204SOL     OW20168   7.752   9.801  11.132 -0.0897  0.1522 -0.1372
 5204SOL    HW120169   7.687   9.825  11.065  0.2488  1.0550 -0.1512
 5204SOL    HW220170   7.836   9.821  11.092  0.0842  1.7908  0.9591
 5205SOL     OW20171   6.228   9.349   2.346 -0.3443  0.2577 -0.0610
 5205SOL    HW120172   6.154   9.399   2.314  0.3083  0.5888 -1.1155
 5205SOL    HW220173   6.211   9.259   2.316  0.2411  0.5577 -1.3765
 5206SOL     OW20174   1.964  11.819   0.418  0.0210  0.0600 -0.6243
 5206SOL    HW120175   2.057  11.814   0.397 -0.7076  0.0210 -4.4886
 5206SOL    HW220176   1.922  11.843   0.336 -3.5278 -1.0876  0.6904
 5207SOL     OW20177   2.791  11.820   0.653  0.0753  0.0037  0.0946
 5207SOL    HW120178   2.724  11.808   0.586  0.0795 -0.8350  0.2370
 5207SOL    HW220179   2.745  11.866   0.724 -0.3710 -0.6389  0.2239
 5208SOL     OW20180   5.637   9.386   3.850  0.4224  0.4429  0.0101
 5208SOL    HW120181   5.622   9.481   3.854 -2.0350  0.1127  0.0307
 5208SOL    HW220182   5.557   9.351   3.813  0.4841 -1.8213  1.8052
 5209SOL     OW20183   4.173   8.521   9.770  0.1000 -0.0064 -0.0965
 5209SOL    HW120184   4.202   8.450   9.827 -1.3281 -0.7323 -0.2408
 5209SOL    HW220185   4.243   8.529   9.705  0.5280 -0.9125  0.2315
 5210SOL     OW20186   3.746  11.357  11.511 -0.2065 -0.1247  0.0510
 5210SOL    HW120187   3.800  11.434  11.530  3.2451 -2.3063 -0.0317
 5210SOL    HW220188   3.746  11.307  11.593 -1.3080 -0.6522 -0.2564
 5211SOL     OW20189  11.161   6.125   7.061  0.0568 -0.3565  0.0889
 5211SOL    HW120190  11.201   6.038   7.066 -0.6119 -0.6292  1.1084
 5211SOL    HW220191  11.067   6.107   7.061 -0.1055  0.2904 -1.7595
 5212SOL     OW20192   8.139   0.836   6.189 -0.3827 -0.0118 -0.4333
 5212SOL    HW120193   8.155   0.773   6.259 -0.7893  0.7519  0.3629
 5212SOL    HW220194   8.197   0.910   6.209 -1.1395  0.5828 -0.4037
 5213SOL     OW20195  11.044   0.420   0.092 -0.1241 -0.3903  0.3546
 5213SOL    HW120196  11.121   0.382   0.136  1.0419  0.4817 -0.8651
 5213SOL    HW220197  11.058   0.514   0.098 -0.4021 -0.2456 -1.0661
 5214SOL     OW20198   3.567   9.061   8.366 -0.0015 -0.2864  0.1250
 5214SOL    HW120199   3.565   8.977   8.321  3.3115 -0.3268 -0.1883
 5214SOL    HW220200   3.549   9.126   8.298 -2.3090 -0.6303  0.3208
 5215SOL     OW20201   5.823   6.334   9.835 -0.0546  0.2527  0.1870
 5215SOL    HW120202   5.758   6.388   9.880 -1.9597 -1.4153 -0.4214
 5215SOL    HW220203   5.907   6.360   9.874 -1.2108  1.4307  2.0617
 5216SOL     OW20204   5.161  11.991   2.313  0.3569 -0.4896 -0.1948
 5216SOL    HW120205   5.119  12.047   2.249 -0.9022 -0.3706  0.7120
 5216SOL    HW220206   5.155  12.039   2.395  2.0264 -0.5994  0.0273
 5217SOL     OW20207   9.425  10.352   2.227  0.3999 -0.0801  0.0250
 5217SOL    HW120208   9.357  10.415   2.204  0.3826 -0.5990 -1.4456
 5217SOL    HW220209   9.504  10.384   2.184  0.4158 -0.9874 -0.6600
 5218SOL     OW20210   2.557   7.157   3.665  0.3029 -0.4754  0.8095
 5218SOL    HW120211   2.553   7.177   3.759  1.2917  3.1018  0.2326
 5218SOL    HW220212   2.641   7.194   3.637 -0.1862 -1.0622 -1.5832
 5219SOL     OW20213   8.182   7.558   1.715 -0.0898  0.3973 -0.8890
 5219SOL    HW120214   8.180   7.628   1.650 -0.7581  1.2560  0.0389
 5219SOL    HW220215   8.182   7.603   1.799 -0.9343 -0.7104 -0.2688
 5220SOL     OW20216   3.736   8.078   7.139  0.0791  0.1186 -0.3083
 5220SOL    HW120217   3.811   8.024   7.163 -0.1236  0.4901  1.2853
 5220SOL    HW220218   3.705   8.041   7.056  3.5796  1.5913 -2.4926
 5221SOL     OW20219   6.810   9.741  12.080  0.1162  0.4351 -0.5389
 5221SOL    HW120220   6.852   9.679  12.140 -0.4796  0.0951 -0.4671
 5221SOL    HW220221   6.883   9.788  12.040  0.6003 -0.6335 -0.9364
 5222SOL     OW20222   1.808   8.383   4.055 -0.1994 -0.0332  0.1056
 5222SOL    HW120223   1.885   8.350   4.101 -0.0613  1.1039  0.7183
 5222SOL    HW220224   1.756   8.427   4.123 -0.8587  0.1436 -0.5007
 5223SOL     OW20225   9.953  11.398   3.644 -0.0375 -0.5663  0.6439
 5223SOL    HW120226   9.945  11.474   3.702 -1.4943 -0.1079 -0.1023
 5223SOL    HW220227   9.911  11.327   3.692 -0.5443 -0.3756  0.4915
 5224SOL     OW20228   9.322   9.359   4.084  0.5864 -0.6540 -0.0700
 5224SOL    HW120229   9.308   9.376   3.991  0.8845  0.0180 -0.0001
 5224SOL    HW220230   9.270   9.427   4.128  0.4278 -0.9853  0.2533
 5225SOL     OW20231   0.170  11.887  10.122  0.0461  0.2896  0.2735
 5225SOL    HW120232   0.226  11.925  10.189 -0.0945  0.4948  0.2746
 5225SOL    HW220233   0.119  11.960  10.089 -0.3587  0.0691  0.4057
 5226SOL     OW20234  10.133  10.897   5.595  0.5170  0.1000  0.0128
 5226SOL    HW120235  10.045  10.895   5.633  0.8768  1.0178  0.9580
 5226SOL    HW220236  10.180  10.828   5.641  0.1394 -0.8271 -0.9484
 5227SOL     OW20237   7.643   8.027   5.378 -0.4244  0.3295  0.0854
 5227SOL    HW120238   7.567   7.988   5.420  1.2334 -1.1382  1.9402
 5227SOL    HW220239   7.713   8.020   5.443  1.4609  1.0446 -1.7347
 5228SOL     OW20240  11.630   2.213   6.080 -0.0096  0.6022  0.1670
 5228SOL    HW120241  11.713   2.175   6.053  0.7415  0.9667  1.8377
 5228SOL    HW220242  11.636   2.305   6.055 -0.3241  0.4278 -0.5773
 5229SOL     OW20243   5.822   8.406   5.439  0.2186 -0.8552  0.4791
 5229SOL    HW120244   5.759   8.477   5.427  1.2317 -0.0318 -0.1551
 5229SOL    HW220245   5.771   8.326   5.427 -0.9438 -0.2426  1.2082
 5230SOL     OW20246   2.569   5.447   4.197 -0.0485  0.3392  0.0332
 5230SOL    HW120247   2.571   5.352   4.208 -2.1904  0.3606  1.1681
 5230SOL    HW220248   2.596   5.462   4.107 -0.8164 -1.4559 -0.5379
 5231SOL     OW20249   5.155   7.437   3.471 -0.3431 -0.1794 -1.0178
 5231SOL    HW120250   5.138   7.414   3.563 -0.6655  0.5572 -0.8878
 5231SOL    HW220251   5.225   7.502   3.474 -0.3770 -0.1272 -1.2905
 5232SOL     OW20252   1.386   2.881  10.540  0.2111 -0.4856 -0.1888
 5232SOL    HW120253   1.452   2.951  10.534 -0.7729  0.8161  2.6428
 5232SOL    HW220254   1.367   2.873  10.633 -1.8496 -2.5580 -0.6902
 5233SOL     OW20255   7.232   7.449   1.915 -0.0363 -0.1622 -0.6308
 5233SOL    HW120256   7.301   7.385   1.902 -0.4575 -0.8690  0.4405
 5233SOL    HW220257   7.156   7.397   1.944 -1.0867  0.5635 -1.9644
 5234SOL     OW20258   5.020   5.721   9.562 -0.1346  0.8068  0.1217
 5234SOL    HW120259   5.094   5.738   9.504  0.1627  0.4302  0.3867
 5234SOL    HW220260   4.945   5.759   9.517 -0.1913 -0.8883 -1.2999
 5235SOL     OW20261   1.685   5.201   5.573  0.1344  0.0553  0.4302
 5235SOL    HW120262   1.748   5.218   5.503 -0.9320  0.6934 -0.4052
 5235SOL    HW220263   1.698   5.109   5.594  2.3516  0.4922  1.3320
 5236SOL     OW20264   1.334   2.679   5.939  0.3617  0.1461  0.8251
 5236SOL    HW120265   1.341   2.642   6.026  2.9564 -1.1423  0.1662
 5236SOL    HW220266   1.422   2.672   5.902 -0.5682  0.8782 -1.8144
 5237SOL     OW20267   1.159   1.432   8.364 -0.3149  0.0594  0.4386
 5237SOL    HW120268   1.164   1.489   8.441  0.7480  0.6833 -0.0662
 5237SOL    HW220269   1.209   1.354   8.389 -0.5717 -0.0434  0.6312
 5238SOL     OW20270   4.055   3.047   0.584 -0.5369  0.2464  0.0238
 5238SOL    HW120271   4.020   2.997   0.511 -1.2195 -0.3174  0.7290
 5238SOL    HW220272   4.014   3.133   0.576 -1.2176 -0.0616  0.2016
 5239SOL     OW20273   1.620   9.013   7.586  0.2872  0.0716 -0.3516
 5239SOL    HW120274   1.702   8.973   7.558  0.2697  0.0772 -0.4108
 5239SOL    HW220275   1.617   9.096   7.539  0.7151  0.5176  0.3760
 5240SOL     OW20276   4.820   0.997   4.607 -1.0925 -0.1399  0.1588
 5240SOL    HW120277   4.859   0.971   4.690  0.2157 -0.3838 -0.4995
 5240SOL    HW220278   4.808   1.092   4.614 -2.2955 -0.3442  1.1291
 5241SOL     OW20279   0.410   7.399   9.463  0.0492 -0.1306  0.2784
 5241SOL    HW120280   0.445   7.409   9.552  0.6581  0.7829 -0.0454
 5241SOL    HW220281   0.451   7.319   9.430  0.3236 -0.1204  0.5883
 5242SOL     OW20282   9.016   1.743   1.138 -0.0518 -0.1956  0.7516
 5242SOL    HW120283   8.972   1.827   1.152 -1.5704 -0.8537  0.2341
 5242SOL    HW220284   8.946   1.685   1.108  1.3171 -1.1751 -0.7066
 5243SOL     OW20285   3.642   0.019   3.504  0.1990 -0.3724 -0.2935
 5243SOL    HW120286   3.647   0.026   3.409 -0.4178 -0.2643 -0.3208
 5243SOL    HW220287   3.681   0.101   3.536 -1.4792  0.5528 -0.5027
 5244SOL     OW20288  10.726   0.512   1.767 -0.4311  0.1865 -0.0977
 5244SOL    HW120289  10.664   0.461   1.820 -0.7794  1.7592  1.0813
 5244SOL    HW220290  10.672   0.553   1.700 -0.8857  2.0668  1.3060
 5245SOL     OW20291   9.143   4.410   2.472  0.5919  0.1719 -0.1131
 5245SOL    HW120292   9.160   4.483   2.531 -2.5708 -0.6686  2.0817
 5245SOL    HW220293   9.113   4.339   2.529 -0.1578 -1.5814 -2.5074
 5246SOL     OW20294   9.188   7.201   3.148  0.2995  0.0936  0.1569
 5246SOL    HW120295   9.190   7.142   3.072  1.0782  2.1171 -1.4854
 5246SOL    HW220296   9.112   7.172   3.198 -1.7878  0.1742 -2.6987
 5247SOL     OW20297   3.447  10.848   4.306 -0.8523  0.0647 -0.1297
 5247SOL    HW120298   3.508  10.775   4.299  0.2822  0.7817  1.7154
 5247SOL    HW220299   3.388  10.824   4.378 -1.9769 -0.0442 -1.0484
 5248SOL     OW20300  10.900   1.467   9.096 -0.2460  0.4052 -0.4013
 5248SOL    HW120301  10.828   1.454   9.033 -2.0847 -0.1166  1.6868
 5248SOL    HW220302  10.938   1.380   9.107  0.4537  0.5998 -1.1662
 5249SOL     OW20303   0.705   4.903   3.394 -0.0411  0.0942 -0.3246
 5249SOL    HW120304   0.694   4.980   3.449 -1.2749 -0.6999  0.5966
 5249SOL    HW220305   0.637   4.842   3.424  0.0294 -0.8320 -1.9296
 5250SOL     OW20306   4.276   9.085   4.520  0.2692  0.1289  0.5055
 5250SOL    HW120307   4.364   9.097   4.557  0.7212 -0.3301 -0.3704
 5250SOL    HW220308   4.279   8.999   4.479 -0.1215  0.6820 -0.7460
 5251SOL     OW20309   8.801   5.392   6.505 -0.1898 -0.1422 -0.6421
 5251SOL    HW120310   8.727   5.392   6.567  0.5574 -0.8895  0.2826
 5251SOL    HW220311   8.765   5.357   6.424 -0.4029 -2.5512  0.4105
 5252SOL     OW20312   6.888  10.135  10.912 -0.1526  0.3176 -0.7992
 5252SOL    HW120313   6.980  10.136  10.886  0.1711  0.1473  0.2829
 5252SOL    HW220314   6.877  10.217  10.961 -1.0286  1.1694 -2.3730
 5253SOL     OW20315   1.990  11.262   6.987 -0.0806  0.1655 -0.9893
 5253SOL    HW120316   1.975  11.207   6.910 -0.1684  0.6987 -1.3675
 5253SOL    HW220317   2.059  11.323   6.959 -1.3627  1.5418 -1.2830
 5254SOL     OW20318  10.656   5.878   7.700  0.3041  0.7855 -0.2124
 5254SOL    HW120319  10.638   5.836   7.784 -0.2489 -0.1768 -0.7958
 5254SOL    HW220320  10.622   5.967   7.709  0.6947  0.8513  0.7402
 5255SOL     OW20321   5.202  10.201   0.922  0.7219 -0.0706 -0.6549
 5255SOL    HW120322   5.158  10.195   0.838 -0.4439  1.3495 -0.1885
 5255SOL    HW220323   5.214  10.295   0.937  3.1703 -0.3598 -0.3372
 5256SOL     OW20324   5.339   3.118   8.189  0.7629  0.0441  0.3297
 5256SOL    HW120325   5.390   3.044   8.222 -0.6279 -0.7584  0.7491
 5256SOL    HW220326   5.254   3.109   8.231 -0.3346  0.3130 -1.6995
 5257SOL     OW20327  11.197   2.084   6.093  0.2320 -0.0469 -0.0498
 5257SOL    HW120328  11.262   2.120   6.153  0.6233  0.8532 -0.9880
 5257SOL    HW220329  11.245   2.070   6.011 -0.6122  0.0582 -0.5749
 5258SOL     OW20330   6.127   8.067   6.520  0.0594 -0.4434  0.5508
 5258SOL    HW120331   6.183   8.125   6.468  0.9393 -0.9570  0.9075
 5258SOL    HW220332   6.051   8.051   6.464  1.4733 -1.8733 -1.0898
 5259SOL     OW20333   8.292   2.948   0.534  0.1275  0.1234  0.3239
 5259SOL    HW120334   8.324   2.910   0.453 -0.2464  0.7506 -0.1281
 5259SOL    HW220335   8.206   2.907   0.548 -0.8022  1.5863 -0.7752
 5260SOL     OW20336  11.073   4.679   3.107  0.4655 -0.1466 -0.5793
 5260SOL    HW120337  11.127   4.755   3.130 -0.8229  0.4859  0.4432
 5260SOL    HW220338  11.069   4.628   3.188 -0.6480 -0.0680 -0.5805
 5261SOL     OW20339  10.346   8.540  10.550 -0.9123 -0.1760 -0.2802
 5261SOL    HW120340  10.419   8.602  10.548  0.0863 -1.3008 -0.6971
 5261SOL    HW220341  10.351   8.496  10.465 -2.0745 -0.2889 -0.3005
 5262SOL     OW20342  10.257   7.747   4.074 -0.1730  0.1363  0.6045
 5262SOL    HW120343  10.310   7.762   4.153  0.8617 -0.1683 -0.0182
 5262SOL    HW220344  10.300   7.798   4.006 -0.1476 -0.8132 -0.1162
 5263SOL     OW20345   1.512   8.456   5.090  0.5135  0.0131 -0.4755
 5263SOL    HW120346   1.497   8.400   5.167 -1.3805 -0.4240 -1.1108
 5263SOL    HW220347   1.527   8.394   5.018 -0.4171  0.3119 -0.9499
 5264SOL     OW20348   2.765   2.927   4.532 -0.4642  0.4069 -0.2670
 5264SOL    HW120349   2.732   2.839   4.549 -1.6016  0.8706  0.0198
 5264SOL    HW220350   2.835   2.915   4.467 -0.2078 -0.7509  0.2113
 5265SOL     OW20351  12.078   3.137   0.817  0.0200 -0.1176  1.0409
 5265SOL    HW120352  12.058   3.165   0.906  1.2793 -1.8006  1.9249
 5265SOL    HW220353  12.154   3.079   0.827 -0.9272 -1.8251 -0.8942
 5266SOL     OW20354   7.441  10.123   4.041 -0.0004  0.0012  0.3147
 5266SOL    HW120355   7.464  10.159   4.127 -0.3295  0.9623  0.0076
 5266SOL    HW220356   7.517  10.070   4.016  0.6579  0.8087  0.5926
 5267SOL     OW20357   5.526   9.918   5.957  0.2997  0.0205  0.1361
 5267SOL    HW120358   5.604   9.939   6.007 -0.1238  0.2243  0.7264
 5267SOL    HW220359   5.552   9.930   5.865  0.6602  1.1294  0.3686
 5268SOL     OW20360  11.272   3.101   9.784  0.5004 -0.1002  0.1099
 5268SOL    HW120361  11.229   3.165   9.840 -1.1097 -0.5402 -0.5731
 5268SOL    HW220362  11.297   3.030   9.843 -0.2756 -0.1149  0.4297
 5269SOL     OW20363   9.389   3.749   4.734 -0.2933 -0.0673  0.1663
 5269SOL    HW120364   9.392   3.779   4.825 -0.6052 -0.5984  0.3570
 5269SOL    HW220365   9.478   3.762   4.701 -0.3316  0.7210  0.3498
 5270SOL     OW20366  10.577   0.405   3.931  0.3287  0.3718  0.3363
 5270SOL    HW120367  10.525   0.418   3.851 -2.4656 -1.5339  1.6712
 5270SOL    HW220368  10.618   0.319   3.919  0.6026  0.4662  0.5872
 5271SOL     OW20369   1.321  11.803   4.450 -0.4658 -0.3296  0.7404
 5271SOL    HW120370   1.399  11.755   4.480  0.0255  1.1528  1.9729
 5271SOL    HW220371   1.275  11.827   4.531 -2.2619 -1.2016  0.0313
 5272SOL     OW20372   3.990  11.612   3.649 -0.0932 -0.1165  0.1065
 5272SOL    HW120373   3.902  11.628   3.615 -0.1429 -1.7126 -0.6211
 5272SOL    HW220374   4.018  11.532   3.604  1.2376 -0.3250  1.2572
 5273SOL     OW20375   1.517   3.962   1.287  0.5088 -0.2784 -0.0219
 5273SOL    HW120376   1.556   3.946   1.373  1.1641 -1.8768 -0.5605
 5273SOL    HW220377   1.572   3.911   1.227 -1.0307 -0.7069 -1.1221
 5274SOL     OW20378   1.199   0.214   8.779 -0.3100  0.5257  0.2421
 5274SOL    HW120379   1.276   0.161   8.802 -0.8884 -0.6216 -0.3563
 5274SOL    HW220380   1.228   0.267   8.706 -0.3832 -0.7501 -0.7511
 5275SOL     OW20381   4.927   2.013   8.629  0.6702  0.5124  0.3797
 5275SOL    HW120382   4.988   2.052   8.690 -1.1182  1.1069  1.8704
 5275SOL    HW220383   4.890   1.938   8.676  0.5551 -0.1078 -0.6559
 5276SOL     OW20384   3.002   4.234   2.877  0.5044 -0.2793 -0.3339
 5276SOL    HW120385   3.081   4.227   2.929 -0.3164  1.8925  1.3765
 5276SOL    HW220386   2.932   4.208   2.937 -0.2032 -0.7811 -1.3570
 5277SOL     OW20387  11.135  11.049   8.009  0.5681 -0.0581 -0.2500
 5277SOL    HW120388  11.069  11.033   8.076  0.1476  0.2887 -0.5734
 5277SOL    HW220389  11.098  11.119   7.955  1.6475  0.8601  0.1645
 5278SOL     OW20390   3.646   9.369   6.467 -0.0349 -0.2849  0.2192
 5278SOL    HW120391   3.737   9.357   6.441  0.2877  2.2839 -0.0555
 5278SOL    HW220392   3.648   9.364   6.563  0.5084  0.3228  0.2466
 5279SOL     OW20393   9.110   7.508  10.463 -0.0691 -0.0204 -0.0189
 5279SOL    HW120394   9.091   7.419  10.435 -0.8089  0.2814 -0.5235
 5279SOL    HW220395   9.155   7.548  10.389  1.3654 -0.3050  0.6472
 5280SOL     OW20396   1.624   2.543   7.033 -0.2312 -0.1187 -0.1903
 5280SOL    HW120397   1.530   2.524   7.035 -0.2340 -0.0779  0.1989
 5280SOL    HW220398   1.634   2.605   6.961 -0.6404  0.5788  0.3350
 5281SOL     OW20399   2.816   7.159   4.874 -0.4043 -0.5558  0.0299
 5281SOL    HW120400   2.809   7.096   4.802 -0.4711 -1.3361  0.7134
 5281SOL    HW220401   2.863   7.233   4.836  1.3910 -1.8002 -0.2648
 5282SOL     OW20402  10.418   9.206   8.511 -0.2844  0.3424  0.1524
 5282SOL    HW120403  10.479   9.214   8.437  2.5723 -0.3445  2.2538
 5282SOL    HW220404  10.389   9.115   8.509 -1.2516  0.6515 -0.8126
 5283SOL     OW20405   5.146   0.635   3.752  0.2865 -0.9571  0.7893
 5283SOL    HW120406   5.142   0.704   3.686  0.5442  0.1805  1.9231
 5283SOL    HW220407   5.056   0.626   3.783  0.4874 -0.0054  1.7230
 5284SOL     OW20408  11.374   1.216  11.292 -0.0747  0.0099 -0.1172
 5284SOL    HW120409  11.409   1.144  11.239 -1.7015 -2.1327  1.5306
 5284SOL    HW220410  11.355   1.177  11.377 -1.6049  2.2509  0.6857
 5285SOL     OW20411   6.967   3.837   3.343 -0.2329 -0.6894  0.5115
 5285SOL    HW120412   6.926   3.801   3.264  0.6070  0.9232 -0.7303
 5285SOL    HW220413   7.059   3.850   3.318  0.0072  0.0128  1.6934
 5286SOL     OW20414   1.434   0.539   4.960 -0.1399 -0.2817 -0.5447
 5286SOL    HW120415   1.400   0.456   4.996 -0.8273 -0.3245 -1.2679
 5286SOL    HW220416   1.379   0.606   4.999 -0.4136 -0.2709 -0.9454
 5287SOL     OW20417   3.968   3.212  11.997  0.1311 -0.1497 -0.3530
 5287SOL    HW120418   3.931   3.277  12.056  1.0980 -0.5218  0.7140
 5287SOL    HW220419   3.893   3.176  11.950 -0.5226  1.0229 -0.2393
 5288SOL     OW20420   1.836   7.771   5.873 -0.3130  0.5698  0.5497
 5288SOL    HW120421   1.880   7.694   5.836  0.1469  0.6761  0.8647
 5288SOL    HW220422   1.775   7.799   5.805  1.5430  1.6365 -0.7918
 5289SOL     OW20423  10.142   0.808  11.741 -0.3944 -0.4617  0.2056
 5289SOL    HW120424  10.091   0.793  11.820  0.6978 -2.6952  0.5500
 5289SOL    HW220425  10.161   0.902  11.743 -2.5236  0.0289  1.2081
 5290SOL     OW20426  10.795   7.345  10.969 -0.9315  0.4828 -0.3891
 5290SOL    HW120427  10.815   7.373  10.879 -0.7356  1.7489  0.0414
 5290SOL    HW220428  10.866   7.284  10.990 -1.2960 -0.2848 -1.2870
 5291SOL     OW20429   0.674   0.437   0.238 -0.1482  0.0111  0.1276
 5291SOL    HW120430   0.592   0.474   0.205  0.1121  1.3059  0.8605
 5291SOL    HW220431   0.718   0.510   0.280  1.7410 -0.4807 -0.8637
 5292SOL     OW20432   5.317   2.680   7.183 -0.0745  0.1833 -0.1484
 5292SOL    HW120433   5.246   2.695   7.244  0.6218  0.3091  0.6462
 5292SOL    HW220434   5.303   2.744   7.113  0.0301  1.1308  0.6845
 5293SOL     OW20435   4.923   0.281   1.403 -0.3660  0.4516 -0.0668
 5293SOL    HW120436   4.992   0.343   1.428 -0.5887  0.6137  0.1479
 5293SOL    HW220437   4.844   0.335   1.396 -0.3008  0.4292 -1.2119
 5294SOL     OW20438   0.226   6.947   1.582 -0.4089  0.0225 -0.1250
 5294SOL    HW120439   0.192   6.927   1.669 -0.9354 -2.4500 -0.8156
 5294SOL    HW220440   0.317   6.971   1.597 -0.5204 -0.2496  1.1220
 5295SOL     OW20441   3.889   6.649   8.710  0.0884  0.0871  0.2153
 5295SOL    HW120442   3.854   6.577   8.657 -0.7113  0.0186  0.8099
 5295SOL    HW220443   3.844   6.640   8.794 -2.1532  2.8733 -0.5251
 5296SOL     OW20444   0.024   4.672   1.076  0.3915 -0.4274 -1.4354
 5296SOL    HW120445   0.037   4.767   1.080  0.0868 -0.4310  0.5889
 5296SOL    HW220446  -0.023   4.657   0.994 -2.4561  1.5617 -0.3245
 5297SOL     OW20447   2.854   1.977   4.955 -0.3458 -0.3750 -0.4653
 5297SOL    HW120448   2.814   1.890   4.953 -3.1937  0.7807  0.8903
 5297SOL    HW220449   2.869   1.994   5.048  2.0765 -0.1278 -0.8376
 5298SOL     OW20450  10.216   9.894  11.742 -0.5129 -0.3580  0.0792
 5298SOL    HW120451  10.184   9.899  11.652  0.0818  1.0554 -0.0802
 5298SOL    HW220452  10.190   9.806  11.772 -0.8424 -0.7984 -1.4077
 5299SOL     OW20453  11.183   2.924   4.305 -0.0370 -0.2985 -0.1791
 5299SOL    HW120454  11.274   2.906   4.280  0.0033  0.3846 -0.5486
 5299SOL    HW220455  11.131   2.873   4.243  0.0953 -0.5600 -0.0746
 5300SOL     OW20456   9.577   9.812   3.595 -0.2790 -0.1259  0.3289
 5300SOL    HW120457   9.500   9.771   3.634 -0.3186 -0.6025 -0.2272
 5300SOL    HW220458   9.650   9.783   3.651 -0.5056  0.3671  0.8821
 5301SOL     OW20459   7.141   2.889   0.633 -0.0917  0.1279  0.5578
 5301SOL    HW120460   7.098   2.860   0.553  0.1471  1.1058  0.0609
 5301SOL    HW220461   7.220   2.836   0.639  0.1145  0.3572 -0.0890
 5302SOL     OW20462  10.156   6.955   6.970 -0.0437  0.1244  0.2456
 5302SOL    HW120463  10.144   6.863   6.995  0.2277 -0.6272 -2.1346
 5302SOL    HW220464  10.068   6.986   6.949 -0.0534  0.1996  0.3958
 5303SOL     OW20465   7.922   7.982   7.251  0.3740 -0.2505 -0.4613
 5303SOL    HW120466   8.016   7.965   7.246  0.1385 -1.4622 -1.2708
 5303SOL    HW220467   7.895   7.990   7.159 -0.0831  1.6126 -0.2078
 5304SOL     OW20468   6.651   5.583   9.038 -0.5645 -0.2737 -0.5565
 5304SOL    HW120469   6.688   5.613   9.121 -2.3978  0.6530 -0.0457
 5304SOL    HW220470   6.653   5.660   8.981 -0.5898 -0.5483 -0.9377
 5305SOL     OW20471   1.717  11.754   8.943  0.6681 -0.0929 -0.3788
 5305SOL    HW120472   1.649  11.770   8.877 -1.1438 -1.1006  1.1259
 5305SOL    HW220473   1.792  11.804   8.913 -0.8168  1.2881 -2.0330
 5306SOL     OW20474   6.011   7.293   5.116 -0.8092 -0.1710 -0.2359
 5306SOL    HW120475   5.935   7.350   5.098 -0.9745  0.3201  1.7613
 5306SOL    HW220476   6.085   7.339   5.076 -1.1129  0.9298  0.4268
 5307SOL     OW20477   0.779   5.613  11.853 -0.2405 -0.3298  0.5143
 5307SOL    HW120478   0.720   5.688  11.850 -2.0892 -1.6755 -2.9254
 5307SOL    HW220479   0.753   5.565  11.931 -0.5931  1.3749  1.4968
 5308SOL     OW20480   6.198   6.639   8.550  0.5680  0.8344 -0.1428
 5308SOL    HW120481   6.226   6.730   8.535  0.4184  0.8358 -0.4326
 5308SOL    HW220482   6.158   6.613   8.467  0.3855  0.5863  0.0217
 5309SOL     OW20483   8.492   7.754   4.981 -0.1101  0.2498  0.2645
 5309SOL    HW120484   8.411   7.768   5.030 -1.0410  1.2515 -1.4928
 5309SOL    HW220485   8.561   7.772   5.045 -1.2556  0.1326  1.5901
 5310SOL     OW20486   5.101   8.240   2.908  0.0648  0.4802 -0.2081
 5310SOL    HW120487   5.146   8.294   2.843  0.0166  1.4357  0.5325
 5310SOL    HW220488   5.127   8.278   2.992 -0.7206 -0.0686  0.2852
 5311SOL     OW20489  10.602   2.982  11.843 -0.7342 -0.1490  0.0148
 5311SOL    HW120490  10.564   2.993  11.930 -1.1030  1.7757 -0.3455
 5311SOL    HW220491  10.552   2.910  11.804 -1.4274 -0.1837  0.9372
 5312SOL     OW20492  11.157   0.377   3.011  0.0817 -0.5402 -0.4208
 5312SOL    HW120493  11.140   0.283   3.009  1.7057 -0.9082  0.9469
 5312SOL    HW220494  11.252   0.385   3.001 -0.1839  1.0884 -2.3663
 5313SOL     OW20495   2.979   5.155   5.825 -0.1533 -0.0426  0.1212
 5313SOL    HW120496   3.024   5.239   5.822  0.1875 -0.2502 -2.1291
 5313SOL    HW220497   2.904   5.166   5.768  0.0800 -1.3636 -0.4773
 5314SOL     OW20498   8.962   4.167  11.264  0.1987  0.2315 -0.0413
 5314SOL    HW120499   8.915   4.158  11.348  0.4648  0.4747  0.1344
 5314SOL    HW220500   8.919   4.240  11.220 -0.7258 -0.6649 -0.6439
 5315SOL     OW20501   8.271   8.803   4.602 -0.0509 -0.1613 -0.0412
 5315SOL    HW120502   8.189   8.759   4.581 -1.0174  0.9865  1.1632
 5315SOL    HW220503   8.339   8.744   4.569 -1.2991  0.6137 -4.7922
 5316SOL     OW20504   8.205   3.257   7.295 -0.7465 -0.2776 -0.2996
 5316SOL    HW120505   8.137   3.190   7.286 -0.9583 -0.0573 -0.3331
 5316SOL    HW220506   8.190   3.296   7.380 -1.3087  0.4785 -0.7320
 5317SOL     OW20507   7.102   2.239   0.286  0.0702  0.0100 -0.0468
 5317SOL    HW120508   7.117   2.151   0.253 -0.1080  0.4793 -1.4350
 5317SOL    HW220509   7.182   2.287   0.264 -0.7616  0.7977 -1.4632
 5318SOL     OW20510   3.023   7.609   4.816 -0.4022 -0.0349 -0.1338
 5318SOL    HW120511   3.030   7.630   4.910 -1.8915  0.6930 -0.1526
 5318SOL    HW220512   3.112   7.619   4.783 -0.1346  1.3941  0.8900
 5319SOL     OW20513   8.572   3.859   0.328 -0.3133  0.3052  0.2611
 5319SOL    HW120514   8.537   3.863   0.417 -1.6686 -1.2254 -0.1502
 5319SOL    HW220515   8.508   3.906   0.275 -0.2467 -0.0004 -0.0961
 5320SOL     OW20516  10.872   3.576   0.084 -0.3297 -0.7946 -0.2797
 5320SOL    HW120517  10.796   3.593   0.028 -0.4504 -0.7698 -0.1057
 5320SOL    HW220518  10.905   3.663   0.107 -0.8976 -0.7883  0.5415
 5321SOL     OW20519   1.801   4.704   3.250  0.2001  0.1484  0.1773
 5321SOL    HW120520   1.780   4.765   3.180  1.3895  1.0201  0.5491
 5321SOL    HW220521   1.782   4.752   3.330  0.7328 -0.1304  0.4735
 5322SOL     OW20522   5.891   4.264   9.813  0.1758 -0.4015  0.3999
 5322SOL    HW120523   5.806   4.220   9.818 -0.5388  0.9564  0.5646
 5322SOL    HW220524   5.918   4.275   9.904  0.2389 -0.2931  0.3681
 5323SOL     OW20525   3.147   2.917   7.659 -0.1642  0.0980 -0.6214
 5323SOL    HW120526   3.188   2.831   7.656 -0.1973  0.1049 -1.8349
 5323SOL    HW220527   3.086   2.913   7.733  0.4253 -0.6394 -0.1682
 5324SOL     OW20528   8.873   1.868  10.350  0.3346  0.6708  0.2924
 5324SOL    HW120529   8.854   1.962  10.349  1.5341  0.9245  0.0973
 5324SOL    HW220530   8.819   1.833  10.421  0.2858  1.5937  0.7176
 5325SOL     OW20531   6.591   6.069  10.455  0.3905  0.3344 -0.0650
 5325SOL    HW120532   6.513   6.057  10.401  0.1864  3.0799 -0.5164
 5325SOL    HW220533   6.557   6.102  10.538  0.9744 -0.3880  0.4764
 5326SOL     OW20534  10.849   5.870   3.084 -0.0673 -0.8432  0.2734
 5326SOL    HW120535  10.764   5.910   3.068 -0.3757 -1.3403  0.6447
 5326SOL    HW220536  10.851   5.793   3.026 -0.3500 -1.4846  1.0978
 5327SOL     OW20537   7.896   2.363  11.109  0.1925  0.3887 -0.1587
 5327SOL    HW120538   7.834   2.344  11.179 -1.4760 -0.8349 -1.8767
 5327SOL    HW220539   7.846   2.352  11.028  1.2479  4.5073 -1.6153
 5328SOL     OW20540  12.104  11.155   0.080  0.0573  0.3858  0.2208
 5328SOL    HW120541  12.104  11.115   0.166  1.9481 -1.6478 -0.6328
 5328SOL    HW220542  12.043  11.103   0.029 -0.8929  1.4495  0.2354
 5329SOL     OW20543  10.271   3.875   3.038 -0.0447  0.0150 -0.2254
 5329SOL    HW120544  10.269   3.943   3.106 -1.1298 -2.8465  2.9281
 5329SOL    HW220545  10.213   3.806   3.072  1.5342 -2.8157 -2.7824
 5330SOL     OW20546  11.202   6.172   4.437  0.7616 -0.3248 -0.0661
 5330SOL    HW120547  11.281   6.119   4.428  1.5099  0.5922  0.8867
 5330SOL    HW220548  11.229   6.260   4.411 -0.1433 -0.1354 -0.4240
 5331SOL     OW20549  11.058   5.464   0.415 -0.1095 -0.6688  0.3093
 5331SOL    HW120550  11.132   5.439   0.470  0.3890 -0.5591 -0.3010
 5331SOL    HW220551  11.044   5.557   0.436 -0.8535 -0.9921  1.3033
 5332SOL     OW20552   7.155  10.353   4.541 -0.5198 -0.5742  0.2058
 5332SOL    HW120553   7.065  10.380   4.523  0.7765  2.7772 -2.5337
 5332SOL    HW220554   7.198  10.433   4.571  1.8251 -1.7684  0.2666
 5333SOL     OW20555   7.874   8.253  10.104 -0.2235 -0.4742 -0.1339
 5333SOL    HW120556   7.970   8.259  10.100 -0.1099 -1.6157  0.3794
 5333SOL    HW220557   7.854   8.171  10.059 -0.7331 -1.5815  1.9993
 5334SOL     OW20558   4.339   1.958   2.971 -0.0323 -0.2067  0.0745
 5334SOL    HW120559   4.379   2.004   3.045  0.7498 -1.3158  0.3662
 5334SOL    HW220560   4.369   1.868   2.980  0.7333 -0.2185 -2.0485
 5335SOL     OW20561   8.014   9.976   3.564  0.0191  0.3961  0.0454
 5335SOL    HW120562   8.068   9.986   3.485 -0.0462 -0.2152 -0.0902
 5335SOL    HW220563   7.964   9.895   3.547 -0.2634  0.4634  0.5580
 5336SOL     OW20564   2.421   3.864   0.716 -0.0121  0.0859 -0.4494
 5336SOL    HW120565   2.367   3.934   0.680 -0.0522 -0.3824 -1.3392
 5336SOL    HW220566   2.511   3.898   0.709 -0.0515  0.1521 -0.6438
 5337SOL     OW20567   0.065  11.132   5.860  0.6253  0.6171 -0.3028
 5337SOL    HW120568   0.072  11.042   5.826 -1.4379  0.0250  0.6594
 5337SOL    HW220569   0.080  11.124   5.954 -0.4148  1.1263 -0.0815
 5338SOL     OW20570  11.105   7.417   6.633 -0.2092  0.3334  0.4112
 5338SOL    HW120571  11.099   7.476   6.557 -1.1225 -0.8336 -0.4680
 5338SOL    HW220572  11.199   7.402   6.644 -0.0996 -0.2948 -1.1611
 5339SOL     OW20573  11.724   2.617   6.525  0.3237  0.8822 -0.4433
 5339SOL    HW120574  11.765   2.612   6.438 -2.0396  0.7478 -1.6175
 5339SOL    HW220575  11.653   2.680   6.515 -0.7347  0.0047  1.0635
 5340SOL     OW20576   7.579   9.952   1.357 -0.0805  0.3479 -0.5773
 5340SOL    HW120577   7.522   9.943   1.433  1.2917 -0.7326  0.3734
 5340SOL    HW220578   7.530  10.008   1.297 -1.8301  0.0078  0.4662
 5341SOL     OW20579   4.904   6.944   8.627 -0.0010  0.0839 -0.1749
 5341SOL    HW120580   4.834   6.924   8.565 -0.2959 -0.2205  0.2479
 5341SOL    HW220581   4.940   7.027   8.597 -0.9154  0.5301 -0.0668
 5342SOL     OW20582   2.266   7.245  11.292 -0.2738 -0.0990  0.0648
 5342SOL    HW120583   2.206   7.319  11.300 -0.3700  0.0410 -1.5276
 5342SOL    HW220584   2.300   7.252  11.202  1.5350 -0.6233  0.6648
 5343SOL     OW20585   1.309  10.824   5.475  0.3019 -0.0171  0.5861
 5343SOL    HW120586   1.227  10.776   5.482  0.6368 -0.5016  1.2575
 5343SOL    HW220587   1.298  10.899   5.533 -0.0504  0.4927 -0.1201
 5344SOL     OW20588   9.949   0.106   7.283 -0.4142 -0.0806  0.1022
 5344SOL    HW120589   9.856   0.129   7.282 -1.9126 -5.0307  0.6015
 5344SOL    HW220590   9.958   0.047   7.358  3.1350 -0.0558 -0.1392
 5345SOL     OW20591  11.095   9.758   4.003  0.1475  0.1676  0.2863
 5345SOL    HW120592  11.111   9.664   4.004  0.9599  0.2406 -1.6829
 5345SOL    HW220593  11.034   9.773   4.075 -0.3661 -1.9276  0.3404
 5346SOL     OW20594   6.634   3.852   9.280  0.0760 -0.3771 -0.2773
 5346SOL    HW120595   6.608   3.908   9.353 -0.2576 -1.7510  0.6900
 5346SOL    HW220596   6.605   3.765   9.305  1.9052 -1.2691 -1.0559
 5347SOL     OW20597   4.584   1.078   5.640  0.1556  0.0208 -0.1143
 5347SOL    HW120598   4.663   1.107   5.594  1.1714 -1.0870  0.8705
 5347SOL    HW220599   4.563   0.993   5.601 -0.8804  0.5383 -0.7255
 5348SOL     OW20600   1.278   0.523  11.709 -0.4940 -0.4082 -0.8230
 5348SOL    HW120601   1.218   0.538  11.636 -0.4182 -1.3753 -1.1007
 5348SOL    HW220602   1.225   0.475  11.773 -0.5535  0.4155 -0.2420
 5349SOL     OW20603   8.989   2.860   9.814  0.5801  0.1004 -0.6006
 5349SOL    HW120604   9.079   2.890   9.827 -0.0002  1.3451  0.8033
 5349SOL    HW220605   8.947   2.874   9.899 -1.3911  1.1707 -1.6972
 5350SOL     OW20606   1.196  10.160   5.795 -0.1995 -0.3615 -0.2934
 5350SOL    HW120607   1.244  10.083   5.764  0.1600 -0.7186  1.0486
 5350SOL    HW220608   1.116  10.124   5.834 -0.4687  0.0287 -0.4856
 5351SOL     OW20609   0.704  12.065  11.679  0.2057 -0.6193 -0.2166
 5351SOL    HW120610   0.716  12.159  11.695 -0.6478 -0.6377  0.6072
 5351SOL    HW220611   0.736  12.052  11.589  0.1221  0.5069 -0.4247
 5352SOL     OW20612   8.894   5.902   2.484  0.2454  0.3424 -0.2838
 5352SOL    HW120613   8.970   5.857   2.520  0.6412 -1.5804 -3.2343
 5352SOL    HW220614   8.819   5.848   2.509  0.2378  0.3929 -0.1990
 5353SOL     OW20615   1.294   4.056   5.852 -0.0378 -0.1020  0.2674
 5353SOL    HW120616   1.322   4.011   5.931  0.3255  2.0048  1.3983
 5353SOL    HW220617   1.327   4.002   5.780  0.2390 -1.6778  1.5296
 5354SOL     OW20618   0.206   8.750   1.965 -0.0026  0.5217 -0.0306
 5354SOL    HW120619   0.221   8.659   1.990  2.6608  0.7357 -0.5118
 5354SOL    HW220620   0.271   8.799   2.016 -0.8248  2.0419 -0.4097
 5355SOL     OW20621   4.096   0.111   3.445  0.3612  0.0010 -0.3646
 5355SOL    HW120622   4.051   0.089   3.363  1.5109  0.8490 -1.2518
 5355SOL    HW220623   4.084   0.206   3.454  0.9986  0.0568 -0.0345
 5356SOL     OW20624   1.695   6.259   2.366 -0.2788 -0.1945 -0.2564
 5356SOL    HW120625   1.667   6.340   2.409 -0.2803 -0.1250 -0.3875
 5356SOL    HW220626   1.675   6.190   2.429  0.0942 -0.0531  0.0287
 5357SOL     OW20627   0.002   8.001   0.643 -0.2062  0.8902  0.2270
 5357SOL    HW120628  -0.053   7.923   0.649  0.7152  0.2329  0.4665
 5357SOL    HW220629  -0.017   8.049   0.724  1.5103 -0.6955  1.6918
 5358SOL     OW20630   9.108   0.928   0.790 -0.1452 -0.2016  0.1376
 5358SOL    HW120631   9.107   0.844   0.744 -0.2339 -0.4487  0.5959
 5358SOL    HW220632   9.077   0.909   0.878  2.1343 -0.1506  1.0261
 5359SOL     OW20633  11.893   8.101   5.029 -0.0244 -0.0203 -0.0793
 5359SOL    HW120634  11.883   8.135   5.118 -1.8457  0.6492 -0.4818
 5359SOL    HW220635  11.865   8.009   5.036  1.1460 -0.3614  0.2767
 5360SOL     OW20636   2.903   9.758   1.782  0.2309 -0.0918 -0.0911
 5360SOL    HW120637   2.947   9.690   1.833  0.3606  1.5141  2.1122
 5360SOL    HW220638   2.814   9.726   1.771  0.3874 -0.7898  0.5890
 5361SOL     OW20639   6.503   7.184   1.584  0.2617 -0.0683  0.1210
 5361SOL    HW120640   6.565   7.123   1.624  0.4021 -0.2466 -0.3516
 5361SOL    HW220641   6.520   7.268   1.626  0.6806 -0.1665  0.1485
 5362SOL     OW20642   9.260  10.144   3.808 -0.3623  0.0676 -0.0945
 5362SOL    HW120643   9.183  10.168   3.757 -2.9703 -2.0524  2.4694
 5362SOL    HW220644   9.278  10.221   3.862 -2.1419 -0.1223  0.8319
 5363SOL     OW20645   5.221   4.442   9.627  0.2691  0.0508 -0.3444
 5363SOL    HW120646   5.301   4.411   9.583  0.1845 -0.2577 -0.2808
 5363SOL    HW220647   5.251   4.513   9.684  0.6296 -0.6042  0.2967
 5364SOL     OW20648   1.633  10.338   6.822 -0.3298  0.3753  0.1615
 5364SOL    HW120649   1.704  10.377   6.873 -0.5122 -0.7228  1.3162
 5364SOL    HW220650   1.553  10.370   6.863 -0.5430  1.7956 -1.2803
 5365SOL     OW20651   6.340   2.832   3.954  0.6503 -0.2046  0.1659
 5365SOL    HW120652   6.304   2.918   3.931 -1.4953 -0.9936  0.3865
 5365SOL    HW220653   6.392   2.849   4.033  0.4685  0.9233  0.0603
 5366SOL     OW20654   0.669   0.432   8.907 -0.3922  0.6406 -0.4401
 5366SOL    HW120655   0.639   0.444   8.997 -0.7838 -1.3355 -0.2519
 5366SOL    HW220656   0.750   0.483   8.902 -0.0611  0.3553  1.2089
 5367SOL     OW20657   3.685   5.458  11.974 -0.3749  0.0880 -0.6181
 5367SOL    HW120658   3.652   5.516  11.905 -0.8810  0.4298 -0.0936
 5367SOL    HW220659   3.757   5.410  11.932  1.0024  2.0965 -0.6729
 5368SOL     OW20660   9.226   4.593   5.425  0.2510 -0.0563 -0.3733
 5368SOL    HW120661   9.299   4.648   5.397  1.3398 -1.7347 -1.0231
 5368SOL    HW220662   9.177   4.576   5.345 -0.2788  0.2388 -0.1144
 5369SOL     OW20663   7.564  10.368   5.910 -0.1867 -0.3698 -0.0076
 5369SOL    HW120664   7.625  10.428   5.866 -0.5366 -0.5618 -0.7723
 5369SOL    HW220665   7.588  10.374   6.003  1.6245 -1.1714 -0.3793
 5370SOL     OW20666   1.556  10.674   0.911  0.1269  0.5145 -0.1844
 5370SOL    HW120667   1.555  10.703   0.820  0.3853  0.6887 -0.1336
 5370SOL    HW220668   1.554  10.579   0.907 -0.3733  0.5307 -0.3623
 5371SOL     OW20669   6.751   1.454   0.797 -0.1954 -0.0208 -0.3948
 5371SOL    HW120670   6.803   1.525   0.836 -1.1987  1.0512 -0.9616
 5371SOL    HW220671   6.811   1.411   0.737  1.4924 -1.8816  2.3744
 5372SOL     OW20672  10.900   3.836   4.619 -0.4263  0.5368 -0.3151
 5372SOL    HW120673  10.861   3.786   4.547  0.5898 -0.9661  0.1420
 5372SOL    HW220674  10.940   3.770   4.676 -2.1640  1.5617  2.2867
 5373SOL     OW20675   0.709  10.695   7.768 -0.1360  0.4089 -0.0945
 5373SOL    HW120676   0.698  10.785   7.796 -0.7395 -0.0759  1.2832
 5373SOL    HW220677   0.792  10.667   7.808 -1.0690 -0.3276  1.3910
 5374SOL     OW20678   1.444  11.075   0.376  0.1010 -0.3970  0.0079
 5374SOL    HW120679   1.489  11.139   0.321 -0.7975  1.4433  1.3201
 5374SOL    HW220680   1.427  11.001   0.318  1.8838  0.1988 -1.3547
 5375SOL     OW20681   1.182  11.209   9.855  0.3729  0.0703  0.4252
 5375SOL    HW120682   1.102  11.158   9.844  1.4014 -1.4298 -0.3653
 5375SOL    HW220683   1.238  11.156   9.912  1.7142 -0.0235 -0.9075
 5376SOL     OW20684   7.256   2.368   6.245  0.3034 -0.1470  0.3204
 5376SOL    HW120685   7.188   2.312   6.283 -0.2797 -0.2577 -0.8266
 5376SOL    HW220686   7.208   2.436   6.198  1.0107  1.3440  1.6895
 5377SOL     OW20687  10.186   5.161   4.588 -0.2076 -0.0068 -0.6149
 5377SOL    HW120688  10.140   5.234   4.546 -1.5307  0.2084  1.0999
 5377SOL    HW220689  10.278   5.189   4.589 -0.5570  1.2330 -0.7973
 5378SOL     OW20690  11.742   6.562   6.047  0.3625  0.3009 -0.4288
 5378SOL    HW120691  11.728   6.563   5.952  1.1658 -1.0775 -0.5972
 5378SOL    HW220692  11.837   6.576   6.056  0.3424  0.0648  0.1463
 5379SOL     OW20693   6.181   6.385  10.817  0.1313  0.6545 -0.1422
 5379SOL    HW120694   6.125   6.446  10.866  1.0245  0.9126  0.5961
 5379SOL    HW220695   6.262   6.383  10.867  1.3392  1.4355 -1.9598
 5380SOL     OW20696   6.198   4.224   8.820  0.4800 -0.0342 -0.1259
 5380SOL    HW120697   6.204   4.265   8.734  0.6208 -1.2362 -0.7006
 5380SOL    HW220698   6.280   4.175   8.829  1.8041  2.3050  1.8945
 5381SOL     OW20699   2.945   0.554   2.637 -0.1434 -0.1714 -0.3407
 5381SOL    HW120700   3.014   0.619   2.642  0.4322 -0.7837 -0.1989
 5381SOL    HW220701   2.919   0.539   2.728 -1.7126  1.3372 -0.4776
 5382SOL     OW20702  11.216   5.049   6.043  0.3097 -0.0634 -0.3682
 5382SOL    HW120703  11.177   5.029   6.128  1.6714 -1.0422  0.0608
 5382SOL    HW220704  11.303   5.010   6.046  0.7305  0.6405 -1.8951
 5383SOL     OW20705  10.721   1.904   4.715 -0.4147  0.3411  0.0336
 5383SOL    HW120706  10.716   1.903   4.810  0.1508 -2.6243  0.1258
 5383SOL    HW220707  10.791   1.841   4.693 -0.6351  0.8084 -2.3245
 5384SOL     OW20708   4.425  10.732   9.645 -0.2825 -0.5220 -0.2726
 5384SOL    HW120709   4.335  10.763   9.648 -0.5314 -1.1185 -1.0708
 5384SOL    HW220710   4.427  10.670   9.572  0.9872  0.1477 -0.8417
 5385SOL     OW20711  10.006   1.863  11.840  0.3467  0.6156  0.7826
 5385SOL    HW120712   9.995   1.933  11.776  1.2052  0.8004  0.8372
 5385SOL    HW220713  10.086   1.885  11.887 -0.0803  0.2951  1.6896
 5386SOL     OW20714  11.582   4.537   8.175  0.6965 -0.1338  0.0065
 5386SOL    HW120715  11.557   4.536   8.083  0.2795 -2.3021  0.0688
 5386SOL    HW220716  11.520   4.597   8.217  1.1972  1.2404 -1.1671
 5387SOL     OW20717   2.652  10.839   2.576  0.3157  0.3918 -0.0681
 5387SOL    HW120718   2.595  10.914   2.589 -2.0457 -1.2276 -0.5336
 5387SOL    HW220719   2.701  10.860   2.496 -1.5352  0.8026 -1.1623
 5388SOL     OW20720   2.650  11.746   0.172  0.2079 -0.8176 -0.0794
 5388SOL    HW120721   2.728  11.713   0.127 -1.0967 -2.0503 -1.5812
 5388SOL    HW220722   2.662  11.721   0.264  0.4890 -3.3138 -0.7122
 5389SOL     OW20723   3.710   4.527   6.734 -0.1138 -0.3476 -0.3722
 5389SOL    HW120724   3.723   4.440   6.698  0.5177 -0.2904 -0.2947
 5389SOL    HW220725   3.770   4.584   6.685  0.3010 -0.1613  0.3203
 5390SOL     OW20726   4.110   1.631   9.151  0.1721  0.0135  0.3954
 5390SOL    HW120727   4.196   1.668   9.170  1.9011 -3.4625  0.1378
 5390SOL    HW220728   4.085   1.585   9.231 -1.5234  0.9786  0.4753
 5391SOL     OW20729  11.584  10.900  10.929 -1.1939 -0.2520  0.0566
 5391SOL    HW120730  11.600  10.806  10.939 -0.1583  0.0087  1.0769
 5391SOL    HW220731  11.589  10.934  11.018 -0.5581  0.9093 -0.4046
 5392SOL     OW20732   5.154   5.989   7.144 -0.2532 -1.0915  0.4066
 5392SOL    HW120733   5.095   6.056   7.109  0.3042 -0.5277  0.5134
 5392SOL    HW220734   5.178   5.936   7.068  0.7090 -0.0601 -0.0433
 5393SOL     OW20735  11.200   3.868  11.222 -0.1648  0.4516  0.1433
 5393SOL    HW120736  11.207   3.904  11.311 -2.2707  1.3317  0.0318
 5393SOL    HW220737  11.114   3.898  11.191 -0.0309 -0.8963 -1.7301
 5394SOL     OW20738   2.386   2.745   7.513  0.4908 -0.1263 -0.2302
 5394SOL    HW120739   2.431   2.812   7.461  1.8813 -0.1660  0.8339
 5394SOL    HW220740   2.334   2.794   7.577  0.3573 -0.0648 -0.3874
 5395SOL     OW20741  11.811   0.850   9.106  0.4691 -0.4453  0.0975
 5395SOL    HW120742  11.815   0.873   9.199 -2.3598 -1.2591  0.5374
 5395SOL    HW220743  11.772   0.927   9.064 -3.1377 -1.7907  0.5666
 5396SOL     OW20744   7.271  10.970   6.599  0.9815  0.3643  0.2532
 5396SOL    HW120745   7.179  10.996   6.608  0.7144 -0.7318  0.9648
 5396SOL    HW220746   7.267  10.876   6.579  1.8996  0.8017 -2.2005
 5397SOL     OW20747   0.633  10.479   5.202 -0.2232 -0.2313  0.0750
 5397SOL    HW120748   0.566  10.455   5.138 -1.6735 -0.2422  1.5208
 5397SOL    HW220749   0.643  10.574   5.191  1.3596 -0.5611 -1.7914
 5398SOL     OW20750  10.221   1.600   9.404  0.3999 -0.2574 -0.0344
 5398SOL    HW120751  10.278   1.529   9.435  0.7595  0.0346 -0.0214
 5398SOL    HW220752  10.229   1.668   9.471  0.5422  0.0451 -0.3595
 5399SOL     OW20753   8.890   5.704  10.573  0.0938  0.0050  0.0506
 5399SOL    HW120754   8.832   5.747  10.511  2.3000  0.3046 -1.9659
 5399SOL    HW220755   8.895   5.613  10.544 -0.4433 -0.3785  1.0890
 5400SOL     OW20756   2.467   7.169  10.277 -0.1369 -0.2323 -0.3785
 5400SOL    HW120757   2.537   7.231  10.253 -0.5956  0.3083 -0.3314
 5400SOL    HW220758   2.487   7.146  10.368 -0.3881  0.4320 -0.1492
 5401SOL     OW20759  11.154   4.915   3.206 -0.3100  0.7801 -0.5965
 5401SOL    HW120760  11.127   5.004   3.184 -1.2943  0.5059 -0.5445
 5401SOL    HW220761  11.109   4.896   3.289  0.6277  0.5614 -0.1233
 5402SOL     OW20762   1.840  11.648  10.962 -0.6545  0.0163  0.2416
 5402SOL    HW120763   1.899  11.723  10.950 -1.2454  0.3169 -0.9040
 5402SOL    HW220764   1.753  11.683  10.943 -0.9422 -0.9559 -0.2886
 5403SOL     OW20765   8.910   2.187   8.014  0.2899 -0.1668  0.2044
 5403SOL    HW120766   8.996   2.166   7.979  0.9952  1.2090  1.0062
 5403SOL    HW220767   8.865   2.231   7.942  0.9941  0.8389  0.3511
 5404SOL     OW20768   1.159   9.106   7.882 -0.0010  0.4560 -0.2123
 5404SOL    HW120769   1.140   9.105   7.976  1.7180 -0.5302  0.1808
 5404SOL    HW220770   1.128   9.021   7.850 -0.6836  0.8335 -0.5775
 5405SOL     OW20771   4.730   8.911   8.113  0.0430  0.1093 -0.0437
 5405SOL    HW120772   4.656   8.851   8.120  0.3698 -0.2172  0.7641
 5405SOL    HW220773   4.692   8.992   8.079 -0.6828 -0.0543  0.3520
 5406SOL     OW20774   4.327   3.944  11.907 -0.0841  0.2845  0.1573
 5406SOL    HW120775   4.338   4.033  11.941 -1.2699  0.9452 -1.0625
 5406SOL    HW220776   4.296   3.893  11.982  2.9800  0.2348  1.5451
 5407SOL     OW20777   3.173   6.684   9.364  0.4306  0.3811  0.0818
 5407SOL    HW120778   3.182   6.718   9.454 -1.2096  0.0317  0.4168
 5407SOL    HW220779   3.139   6.758   9.314  0.0350  0.1892  0.0631
 5408SOL     OW20780   1.961   2.326  10.467  0.3988  0.1341  0.3797
 5408SOL    HW120781   1.975   2.387  10.539  0.7237  1.3300 -0.6522
 5408SOL    HW220782   2.038   2.337  10.411 -0.7115  0.6635 -1.1261
 5409SOL     OW20783   5.044   0.987  10.736 -0.4823 -0.2722 -0.1613
 5409SOL    HW120784   5.028   0.919  10.801  0.8567 -0.6122 -0.1447
 5409SOL    HW220785   5.119   1.036  10.771 -1.9155  1.7626  0.2441
 5410SOL     OW20786  10.039  11.999   8.265 -0.2855 -0.0147 -0.2434
 5410SOL    HW120787   9.989  11.934   8.215  0.3554  0.0187 -0.9540
 5410SOL    HW220788  10.129  11.986   8.237 -0.2717  1.9082 -1.2666
 5411SOL     OW20789   1.130  11.975   0.988  0.4938  0.0773  0.1128
 5411SOL    HW120790   1.114  12.063   1.022  1.1666 -0.0856  0.8879
 5411SOL    HW220791   1.220  11.977   0.958  0.6983 -0.5115  0.6770
 5412SOL     OW20792   6.758   6.289   5.033  0.1183  0.0512  0.3129
 5412SOL    HW120793   6.778   6.203   4.997 -0.3657 -0.0510  0.2701
 5412SOL    HW220794   6.811   6.295   5.112  1.7110  0.5554 -0.7498
 5413SOL     OW20795   0.217   9.459   5.030 -0.0536  0.3913  0.1262
 5413SOL    HW120796   0.172   9.387   5.073 -0.3895 -0.7345 -1.9855
 5413SOL    HW220797   0.296   9.420   4.994 -1.1149  0.5748 -2.6128
 5414SOL     OW20798   1.355   8.805   4.963 -0.5512 -0.0973  0.4949
 5414SOL    HW120799   1.410   8.774   4.891 -0.0562 -0.8766  1.1912
 5414SOL    HW220800   1.266   8.787   4.935 -0.4822  1.2612 -0.6878
 5415SOL     OW20801   5.847   4.628   4.162 -0.2484  0.1361 -0.1307
 5415SOL    HW120802   5.883   4.662   4.080  1.0689  0.9196  0.7149
 5415SOL    HW220803   5.773   4.685   4.182 -0.0608  0.4628 -0.3657
 5416SOL     OW20804   4.851   1.241   6.659 -0.1928  0.0363 -0.3964
 5416SOL    HW120805   4.763   1.237   6.622 -0.9356 -1.1368  1.3826
 5416SOL    HW220806   4.899   1.172   6.614 -0.2266  0.5073 -1.1822
 5417SOL     OW20807   7.797   8.580  11.641  0.1547  0.5233 -0.2449
 5417SOL    HW120808   7.816   8.657  11.696 -0.6370  0.7437 -0.2747
 5417SOL    HW220809   7.755   8.615  11.563  0.2538  0.1032 -0.4905
 5418SOL     OW20810   8.409   0.449   6.963 -0.4649  0.0781 -0.1630
 5418SOL    HW120811   8.372   0.496   7.038  0.8269  0.7075  0.1021
 5418SOL    HW220812   8.403   0.512   6.891  0.7668  0.4770  0.0654
 5419SOL     OW20813   7.649   4.358  10.429  0.2625  0.2739 -0.7108
 5419SOL    HW120814   7.610   4.398  10.507  0.5190  2.0798 -1.4515
 5419SOL    HW220815   7.740   4.340  10.455  0.2713  0.6104 -0.4875
 5420SOL     OW20816  10.265   4.361   1.101 -0.0143  0.2370  0.1035
 5420SOL    HW120817  10.201   4.383   1.169 -1.2307  0.2122 -0.9923
 5420SOL    HW220818  10.350   4.383   1.140 -0.7598  1.3551  1.1871
 5421SOL     OW20819   4.385   0.943   2.064 -0.2759  0.4956 -0.0502
 5421SOL    HW120820   4.332   0.960   1.986 -0.1081 -0.0095 -0.2801
 5421SOL    HW220821   4.331   0.883   2.117  0.5653 -1.0432 -0.8723
 5422SOL     OW20822   4.330  11.878   2.486 -0.4079  0.2944 -0.4163
 5422SOL    HW120823   4.359  11.964   2.456 -1.3892  0.8247  0.0795
 5422SOL    HW220824   4.403  11.820   2.469  0.4680  1.3311 -0.2876
 5423SOL     OW20825   9.196   4.043   5.947  0.1411  0.0836  0.1923
 5423SOL    HW120826   9.107   4.034   5.982  0.0826 -0.2028 -0.0284
 5423SOL    HW220827   9.243   3.967   5.982  0.5361  0.6942  1.0188
 5424SOL     OW20828   0.561   6.546   0.597 -0.0929  0.5069 -0.1169
 5424SOL    HW120829   0.652   6.567   0.620  0.3800 -1.7463  0.3432
 5424SOL    HW220830   0.563   6.531   0.503  0.3408 -0.7476  0.0619
 5425SOL     OW20831   9.337   4.670   2.231  0.0486  0.1701 -0.5012
 5425SOL    HW120832   9.322   4.642   2.321  0.1077 -1.1354 -0.8696
 5425SOL    HW220833   9.267   4.732   2.212 -0.0965  0.2716  0.3610
 5426SOL     OW20834   3.683   8.985   3.313  0.2951 -0.3699 -0.7081
 5426SOL    HW120835   3.604   9.026   3.347 -1.5916 -1.6158 -3.2869
 5426SOL    HW220836   3.706   8.921   3.381  0.8272  1.8587  1.3654
 5427SOL     OW20837   8.649  10.619  11.513  0.6258  0.1102  0.3734
 5427SOL    HW120838   8.562  10.651  11.539  0.5921 -0.4154  0.9427
 5427SOL    HW220839   8.679  10.680  11.446 -0.8193 -0.5407 -0.9329
 5428SOL     OW20840   8.932   3.237   7.510  0.0152  0.0368  0.2088
 5428SOL    HW120841   8.843   3.272   7.516 -1.1306 -2.0278 -2.3164
 5428SOL    HW220842   8.935   3.168   7.576 -0.6195 -0.4364 -0.2343
 5429SOL     OW20843   8.095  11.258  11.570  0.4428  0.1681 -0.3263
 5429SOL    HW120844   8.158  11.319  11.530  0.4872  0.0522 -0.4332
 5429SOL    HW220845   8.016  11.311  11.584 -0.1288 -0.1740 -2.0322
 5430SOL     OW20846  11.741   9.397  11.093  0.4103 -0.3343  0.4823
 5430SOL    HW120847  11.715   9.326  11.035  0.8848  1.1695 -1.6933
 5430SOL    HW220848  11.725   9.364  11.181 -2.5384 -1.8876 -0.5308
 5431SOL     OW20849   8.915   7.808   5.020 -0.6389  0.2105  0.3357
 5431SOL    HW120850   8.826   7.798   5.054  0.0698 -0.5187  2.0856
 5431SOL    HW220851   8.972   7.783   5.093  1.0318  1.6808 -0.3821
 5432SOL     OW20852   3.593   7.763  10.284  0.5432  0.4044  0.3906
 5432SOL    HW120853   3.649   7.687  10.266  1.6004  1.1442  0.4164
 5432SOL    HW220854   3.623   7.830  10.221 -0.7645  0.6180 -0.0315
 5433SOL     OW20855   4.023   0.002   8.267 -0.5234  0.1928 -0.2730
 5433SOL    HW120856   3.941   0.032   8.306 -0.2285 -1.6252  1.9421
 5433SOL    HW220857   4.006  -0.089   8.243  0.2988  0.3557 -1.5648
 5434SOL     OW20858  11.991   6.328  11.790 -0.3370 -0.6887 -0.9099
 5434SOL    HW120859  12.043   6.334  11.870 -0.9677 -1.5788 -0.4022
 5434SOL    HW220860  11.954   6.415  11.778 -1.0749 -0.7913  0.3854
 5435SOL     OW20861   1.437   8.902   9.244 -0.6846 -0.1229 -0.6165
 5435SOL    HW120862   1.367   8.863   9.192 -0.3881 -1.4921 -0.0322
 5435SOL    HW220863   1.484   8.959   9.183 -0.6281 -1.3231 -1.7325
 5436SOL     OW20864  11.804   1.879   0.729 -0.1708  0.0701 -0.1139
 5436SOL    HW120865  11.860   1.816   0.775 -2.0705  0.6223  3.2888
 5436SOL    HW220866  11.731   1.827   0.695  1.2099 -0.3310 -2.7176
 5437SOL     OW20867   9.699   8.719   2.219  0.2915  0.0685  0.2609
 5437SOL    HW120868   9.605   8.726   2.208  0.1577 -1.2332  0.4802
 5437SOL    HW220869   9.712   8.648   2.282  1.3869  0.9449  1.0949
 5438SOL     OW20870   0.110   0.020   4.918  0.7294 -0.6980  0.2784
 5438SOL    HW120871   0.163   0.067   4.854 -0.5413  0.4363  0.0342
 5438SOL    HW220872   0.139  -0.071   4.910  1.5499 -0.3547 -0.9246
 5439SOL     OW20873   8.935   4.383   2.252 -0.0334 -0.0744 -0.0348
 5439SOL    HW120874   8.895   4.401   2.337 -0.3914 -0.7288 -0.0608
 5439SOL    HW220875   9.028   4.402   2.265 -0.4723  2.5179 -0.2712
 5440SOL     OW20876  11.476  10.284   0.181  0.3162 -0.6403 -0.5572
 5440SOL    HW120877  11.458  10.226   0.107 -0.3206 -0.9389 -0.1776
 5440SOL    HW220878  11.394  10.331   0.196  1.5288  2.4157 -2.5779
 5441SOL     OW20879   9.504   4.224   1.185 -0.4931  0.8795  0.1179
 5441SOL    HW120880   9.531   4.315   1.198 -1.2956  0.9289  1.6159
 5441SOL    HW220881   9.436   4.209   1.251  0.2602 -1.0808  0.5181
 5442SOL     OW20882  10.234   2.343   4.269 -0.2563 -0.0261  0.0647
 5442SOL    HW120883  10.301   2.276   4.283 -1.1446 -1.2673 -1.2729
 5442SOL    HW220884  10.274   2.424   4.300  1.4165 -0.9251  0.3861
 5443SOL     OW20885   3.226   5.688  10.159 -0.8972  0.4219 -0.2216
 5443SOL    HW120886   3.208   5.760  10.219  0.2740  0.4552  0.1202
 5443SOL    HW220887   3.145   5.637  10.158 -0.4830 -0.5220  2.7485
 5444SOL     OW20888   8.344   3.186   7.597  0.2308 -0.4909  0.1830
 5444SOL    HW120889   8.322   3.238   7.520  0.7788  0.4190  0.6136
 5444SOL    HW220890   8.287   3.220   7.666  1.3614  0.3597  0.7497
 5445SOL     OW20891   4.394   8.595   9.621  0.6827 -0.4864 -0.0672
 5445SOL    HW120892   4.373   8.679   9.579  0.1483 -0.7345 -0.3103
 5445SOL    HW220893   4.462   8.616   9.684 -0.0534  0.2903  0.4896
 5446SOL     OW20894  11.405   0.946   2.164 -0.0397  0.6446  0.0526
 5446SOL    HW120895  11.439   0.924   2.250 -0.0516 -1.0357 -0.3186
 5446SOL    HW220896  11.393   1.041   2.165  1.0681  0.7933  1.4756
 5447SOL     OW20897   9.601   0.783   0.729  0.1509 -0.0936  0.3318
 5447SOL    HW120898   9.538   0.809   0.797 -0.5906 -0.3566 -0.2393
 5447SOL    HW220899   9.575   0.695   0.705  0.8288 -0.2554  0.1710
 5448SOL     OW20900   1.097   1.682   6.856  0.0920  1.1662  0.0582
 5448SOL    HW120901   1.193   1.685   6.859  0.0957  0.3761  1.7377
 5448SOL    HW220902   1.076   1.706   6.766  1.9036  0.4892 -0.6022
 5449SOL     OW20903   2.786   9.577   9.181 -0.4464  0.1986  0.3713
 5449SOL    HW120904   2.775   9.580   9.086  0.6103 -3.1212  0.0027
 5449SOL    HW220905   2.878   9.595   9.195 -0.4508 -0.0112  0.6771
 5450SOL     OW20906  10.131   5.985   5.993 -0.6809 -0.4255 -0.7382
 5450SOL    HW120907  10.201   6.047   6.014 -0.2237 -1.3384  0.4985
 5450SOL    HW220908  10.068   6.037   5.942  1.4406  0.1408 -3.0099
 5451SOL     OW20909   3.297   6.510   9.893  0.6861  0.3829 -0.1150
 5451SOL    HW120910   3.381   6.500   9.938  0.0586  1.6538  1.4473
 5451SOL    HW220911   3.231   6.491   9.961 -0.3059 -0.6446 -1.3168
 5452SOL     OW20912   9.267   4.525   7.691 -0.3907 -0.5707 -0.6002
 5452SOL    HW120913   9.313   4.441   7.692 -0.8808 -0.9260 -2.8344
 5452SOL    HW220914   9.204   4.519   7.763 -0.6263 -2.2372 -0.9137
 5453SOL     OW20915   5.391   0.170   5.100  0.0591 -0.0248 -0.1007
 5453SOL    HW120916   5.395   0.114   5.178  1.4435  0.4482  0.2028
 5453SOL    HW220917   5.360   0.113   5.030 -1.2159 -0.4567  0.7773
 5454SOL     OW20918   6.683  11.748   5.276 -0.2640 -0.2674 -0.0712
 5454SOL    HW120919   6.726  11.700   5.205 -0.4658 -1.9881  0.9160
 5454SOL    HW220920   6.590  11.741   5.258 -0.3007 -0.3790  0.1567
 5455SOL     OW20921   5.299  10.492   1.451 -0.1438 -0.2898 -0.0363
 5455SOL    HW120922   5.357  10.567   1.436 -0.5971  0.0659 -0.0280
 5455SOL    HW220923   5.309  10.471   1.544  0.4450 -0.6357 -0.1664
 5456SOL     OW20924   3.802   4.570  10.102  0.0365 -0.1672 -0.1702
 5456SOL    HW120925   3.737   4.507  10.072  1.1747 -1.0882 -0.7544
 5456SOL    HW220926   3.840   4.606  10.022  1.8819 -1.3689  0.1016
 5457SOL     OW20927   8.019   9.709   5.104 -0.1938 -0.3653 -0.1514
 5457SOL    HW120928   7.932   9.743   5.125 -0.0399 -0.0190 -0.0667
 5457SOL    HW220929   8.031   9.730   5.011  0.3975  0.9370  0.1895
 5458SOL     OW20930   2.140   0.976   5.376 -0.9499  0.0210 -0.2648
 5458SOL    HW120931   2.186   0.912   5.429 -1.0530 -0.5756 -0.8827
 5458SOL    HW220932   2.068   1.006   5.431  0.4070  1.3025  0.8892
 5459SOL     OW20933   7.993   0.909   0.090  0.3272 -0.1069 -0.0054
 5459SOL    HW120934   7.936   0.969   0.041  0.1064 -0.7999 -0.6095
 5459SOL    HW220935   8.081   0.925   0.054  0.3057  0.0197 -0.0031
 5460SOL     OW20936  12.038   6.104   3.704  0.4411  0.5153  0.1849
 5460SOL    HW120937  12.001   6.017   3.696 -0.0684  0.8888 -2.3508
 5460SOL    HW220938  12.041   6.121   3.799 -2.0844 -1.1099  0.6310
 5461SOL     OW20939   3.499   5.776   5.464  0.0270 -0.3880  0.6385
 5461SOL    HW120940   3.581   5.727   5.460 -0.5419 -1.3926  0.9195
 5461SOL    HW220941   3.502   5.835   5.389  0.5549 -1.1402  0.0546
 5462SOL     OW20942   3.327   4.438   4.028 -0.1002  0.2987 -0.1942
 5462SOL    HW120943   3.363   4.515   3.984  0.3023  0.0729 -0.2656
 5462SOL    HW220944   3.251   4.413   3.974 -1.3327  1.7012  0.8220
 5463SOL     OW20945   3.758   8.663   0.467  0.3318 -0.4644  0.3115
 5463SOL    HW120946   3.673   8.690   0.431 -1.0000 -2.3704  1.8187
 5463SOL    HW220947   3.769   8.573   0.437  1.5284 -0.4367  0.6443
 5464SOL     OW20948   4.696   7.519   3.522  0.1884 -0.0672 -0.5164
 5464SOL    HW120949   4.787   7.549   3.519  0.1205  0.0951 -2.7199
 5464SOL    HW220950   4.665   7.542   3.610  2.2764 -0.1987  0.3080
 5465SOL     OW20951   0.699   5.491   3.471  0.2246 -0.3573  0.5632
 5465SOL    HW120952   0.661   5.539   3.397  0.4220  0.1806  0.8051
 5465SOL    HW220953   0.694   5.399   3.445 -2.4680 -0.4631  1.1004
 5466SOL     OW20954   0.544  11.565   0.808 -0.2386 -0.3456 -0.3189
 5466SOL    HW120955   0.463  11.552   0.857  0.2007 -0.5344  0.3571
 5466SOL    HW220956   0.575  11.651   0.835  0.2735 -0.6663  0.1346
 5467SOL     OW20957   7.344  12.025   1.226  0.0918  0.1453  0.3333
 5467SOL    HW120958   7.421  11.968   1.227  0.5209  0.6940 -0.2726
 5467SOL    HW220959   7.287  11.988   1.159  0.3693  0.4188 -0.0580
 5468SOL     OW20960   7.825   8.592   8.001  0.1375  0.1581 -0.4043
 5468SOL    HW120961   7.912   8.631   7.997 -0.4742  1.5275 -1.1665
 5468SOL    HW220962   7.837   8.502   7.970  1.7318 -0.6347  2.2362
 5469SOL     OW20963   6.091   8.970   5.374 -0.1336  0.4895 -0.0877
 5469SOL    HW120964   6.178   8.988   5.338 -0.4709 -1.5239 -2.1580
 5469SOL    HW220965   6.070   9.047   5.426  2.5918  1.3305 -0.0852
 5470SOL     OW20966   6.733  10.199  10.716 -0.2193 -0.4585 -0.3930
 5470SOL    HW120967   6.679  10.263  10.762 -0.0285 -0.4765 -0.1440
 5470SOL    HW220968   6.785  10.157  10.784  0.5065 -0.0573 -0.6879
 5471SOL     OW20969   5.264   1.036   6.404 -0.1695  0.0212  0.1760
 5471SOL    HW120970   5.233   0.991   6.326 -0.2378 -2.3685  1.4665
 5471SOL    HW220971   5.186   1.071   6.445 -0.4107 -0.5555  0.2231
 5472SOL     OW20972   4.314   2.116   1.165  0.6034  0.8623 -0.1339
 5472SOL    HW120973   4.246   2.181   1.181 -0.8427 -0.6855  0.3695
 5472SOL    HW220974   4.370   2.119   1.243 -0.6593  0.1211  0.8373
 5473SOL     OW20975   5.209   8.996  10.999 -0.0903  0.1590 -0.2621
 5473SOL    HW120976   5.161   9.034  11.072 -1.6586  1.8855 -2.0992
 5473SOL    HW220977   5.262   9.068  10.964 -0.5410 -0.2119 -1.7598
 5474SOL     OW20978   3.410   5.217   8.352  0.1348 -0.6408 -0.1995
 5474SOL    HW120979   3.329   5.172   8.331 -0.8781  0.9674  0.1015
 5474SOL    HW220980   3.452   5.234   8.267 -1.3467  1.1453 -0.6491
 5475SOL     OW20981  11.602   6.688   3.764 -0.7093  0.6093 -0.5603
 5475SOL    HW120982  11.649   6.631   3.703 -0.0512 -0.7463  1.1138
 5475SOL    HW220983  11.534   6.631   3.801  2.6785 -0.8244  4.5067
 5476SOL     OW20984   1.684   8.464   3.632  0.1199  0.4231  0.1722
 5476SOL    HW120985   1.702   8.552   3.665 -1.3595  0.6851  0.3567
 5476SOL    HW220986   1.608   8.474   3.575  0.4170 -0.6174 -0.4442
 5477SOL     OW20987   0.852  10.205   4.476  0.2835 -0.1427  0.2495
 5477SOL    HW120988   0.876  10.270   4.409  0.9859  0.8152  1.3971
 5477SOL    HW220989   0.867  10.249   4.559 -0.0880 -1.4894  1.0629
 5478SOL     OW20990   8.239   7.720   2.590 -0.1460  0.1084 -0.1987
 5478SOL    HW120991   8.262   7.718   2.497  0.4643  1.2304 -0.0777
 5478SOL    HW220992   8.320   7.697   2.635 -0.2074  0.4795  0.0950
 5479SOL     OW20993  11.497   3.635  12.020  0.0386 -0.4487 -0.7484
 5479SOL    HW120994  11.556   3.559  12.026  0.7650  0.1264 -0.4898
 5479SOL    HW220995  11.517   3.674  11.936  0.5614  0.1718 -0.3456
 5480SOL     OW20996   0.006   6.517   4.074  0.1774 -0.3386  0.0305
 5480SOL    HW120997  -0.030   6.506   3.986 -0.2761 -0.9667  0.2881
 5480SOL    HW220998   0.057   6.437   4.089 -0.1242 -0.4464  0.5098
 5481SOL     OW20999   5.813   2.061   8.177 -0.1657  0.4743 -0.4154
 5481SOL    HW121000   5.881   2.000   8.207 -1.4163 -0.8705 -0.2300
 5481SOL    HW221001   5.797   2.036   8.086 -2.9240 -1.7000  0.5424
 5482SOL     OW21002  11.841   7.486   8.561  0.2263  0.1821 -0.6277
 5482SOL    HW121003  11.801   7.516   8.643 -0.5975  2.9889 -1.9199
 5482SOL    HW221004  11.890   7.562   8.529  2.8393 -1.7127 -1.4490
 5483SOL     OW21005   1.678   8.542   2.031 -0.0348  0.0339  0.2672
 5483SOL    HW121006   1.748   8.542   1.966 -0.6169  1.6360 -0.4007
 5483SOL    HW221007   1.598   8.525   1.981 -0.4003  0.5669  0.6565
 5484SOL     OW21008   6.030   2.484  10.285 -0.0231 -0.0361 -0.3609
 5484SOL    HW121009   6.003   2.425  10.355  1.8505 -1.5502 -0.8279
 5484SOL    HW221010   6.115   2.518  10.314 -0.5154  1.5387 -0.6576
 5485SOL     OW21011   0.655  11.988   0.511 -1.0959 -0.0591  0.0697
 5485SOL    HW121012   0.653  11.909   0.566 -1.0956  0.2253  0.4766
 5485SOL    HW221013   0.607  12.054   0.561  0.1413  0.6319  0.3917
 5486SOL     OW21014   2.977   3.964   2.300  0.2183 -0.2991 -0.1952
 5486SOL    HW121015   3.045   4.022   2.332  1.4757 -1.7650 -0.1109
 5486SOL    HW221016   2.952   3.912   2.376  0.0952 -0.8053 -0.5748
 5487SOL     OW21017   4.638  10.836   4.327  0.9880 -0.0717 -0.2422
 5487SOL    HW121018   4.594  10.758   4.358 -0.8358  0.9548 -0.0877
 5487SOL    HW221019   4.667  10.814   4.238  0.0551 -0.7725 -0.3869
 5488SOL     OW21020  10.582   2.418   9.964  0.1410 -0.5834 -0.3479
 5488SOL    HW121021  10.618   2.507   9.959  0.3575 -0.6637 -0.2406
 5488SOL    HW221022  10.491   2.430   9.990  0.4827 -0.4553  0.8562
 5489SOL     OW21023   7.288   9.417   6.861  0.4489  0.0962  0.0561
 5489SOL    HW121024   7.366   9.455   6.820  1.1508 -2.0792 -0.7832
 5489SOL    HW221025   7.226   9.405   6.789 -0.2360  0.7381  0.5212
 5490SOL     OW21026   6.939   8.755  10.940 -0.1965 -0.9938 -0.5705
 5490SOL    HW121027   6.904   8.701  10.869 -2.4026 -0.3013 -0.0820
 5490SOL    HW221028   6.889   8.836  10.936  1.5766  0.1866  0.0593
 5491SOL     OW21029   9.142   3.891   9.143 -0.4187  0.5742 -0.3685
 5491SOL    HW121030   9.182   3.974   9.114  0.5597 -0.0413 -0.8303
 5491SOL    HW221031   9.197   3.823   9.104 -2.4899 -0.3367 -1.8661
 5492SOL     OW21032   4.429   8.439   7.568 -0.0406  0.1978  0.0818
 5492SOL    HW121033   4.340   8.473   7.578 -0.2707 -0.2381 -0.4452
 5492SOL    HW221034   4.433   8.408   7.478 -0.1298 -2.0427  0.8058
 5493SOL     OW21035   4.239  10.491   5.410  0.0422  0.2175  0.5625
 5493SOL    HW121036   4.211  10.416   5.461 -0.4640  0.4554  0.6390
 5493SOL    HW221037   4.173  10.558   5.427 -0.5831  0.0514 -0.9978
 5494SOL     OW21038   3.339  11.417   2.165 -0.5080 -0.6346  0.2433
 5494SOL    HW121039   3.272  11.412   2.097  0.3322 -0.6355 -0.6087
 5494SOL    HW221040   3.298  11.468   2.235 -1.0056  0.3956 -0.7481
 5495SOL     OW21041   7.707   1.081   7.217  0.2873  0.1507 -0.2072
 5495SOL    HW121042   7.785   1.133   7.197 -1.4946  2.5671 -1.3642
 5495SOL    HW221043   7.687   1.036   7.134  0.7012 -0.9071  0.2430
 5496SOL     OW21044   8.700   7.193   6.750 -0.1312  0.2208  0.9464
 5496SOL    HW121045   8.652   7.156   6.824  1.1811 -0.0500  1.6948
 5496SOL    HW221046   8.772   7.242   6.791  1.0963 -0.6085 -0.1390
 5497SOL     OW21047   7.872   3.572   3.649  1.1785  0.1368  0.0075
 5497SOL    HW121048   7.889   3.664   3.629 -0.3101  0.6869  1.1268
 5497SOL    HW221049   7.793   3.551   3.598 -1.0067  0.7615  2.8851
 5498SOL     OW21050   7.011   6.788   4.358 -0.1752 -0.7224  0.0685
 5498SOL    HW121051   7.021   6.831   4.273  1.1775 -1.2926 -0.0824
 5498SOL    HW221052   6.981   6.857   4.416  2.0238  0.4995 -0.1500
 5499SOL     OW21053  11.877   0.695   5.453 -0.3337 -0.2107 -0.6164
 5499SOL    HW121054  11.817   0.729   5.387  0.4706  1.8326 -0.3750
 5499SOL    HW221055  11.821   0.652   5.517 -1.3181 -0.3245 -1.5280
 5500SOL     OW21056   9.193   4.015   2.901  0.6913  0.2710  0.4490
 5500SOL    HW121057   9.262   4.030   2.967  1.6184 -1.6041 -0.0087
 5500SOL    HW221058   9.141   3.943   2.938  0.6795 -0.1906 -0.4345
 5501SOL     OW21059   9.478   6.404   9.695  0.1626 -0.0680  0.2220
 5501SOL    HW121060   9.439   6.351   9.625  0.1036 -1.2285  1.0860
 5501SOL    HW221061   9.561   6.434   9.659 -1.0364  1.6349 -1.3063
 5502SOL     OW21062   7.793  12.058   0.798  0.5035 -0.5765 -0.1292
 5502SOL    HW121063   7.765  12.148   0.782  0.3460 -0.6745 -0.3979
 5502SOL    HW221064   7.886  12.066   0.821  0.4745 -0.3414 -0.0885
 5503SOL     OW21065   7.586   9.754   7.042  0.4060  0.3957 -0.3312
 5503SOL    HW121066   7.561   9.820   7.107 -2.9787  2.0032 -2.9564
 5503SOL    HW221067   7.523   9.683   7.055  1.0422 -0.2182 -0.5449
 5504SOL     OW21068   1.050  10.382   7.087 -0.4653  0.3036 -0.5782
 5504SOL    HW121069   0.998  10.436   7.146 -0.5703  1.1716 -1.4246
 5504SOL    HW221070   1.124  10.437   7.064  0.0963 -0.4011 -0.4748
 5505SOL     OW21071   0.559  10.718   6.006 -0.1039  0.1080 -0.0338
 5505SOL    HW121072   0.565  10.799   6.055 -0.7270 -1.3096  2.5639
 5505SOL    HW221073   0.468  10.690   6.016  0.2693 -1.2651 -0.2457
 5506SOL     OW21074   1.442   0.289   6.863  0.4051 -0.1124 -0.4026
 5506SOL    HW121075   1.399   0.372   6.884  1.8477  0.0975  2.2193
 5506SOL    HW221076   1.385   0.223   6.902  0.9068 -0.0465  0.4875
 5507SOL     OW21077   8.301  11.598  10.734 -0.1174 -0.5749  0.7961
 5507SOL    HW121078   8.300  11.508  10.701  0.0490 -0.6024  0.8640
 5507SOL    HW221079   8.235  11.598  10.804 -0.1845 -0.6203  0.7322
 5508SOL     OW21080   1.284   5.998   5.282  0.0340  0.4948 -0.1172
 5508SOL    HW121081   1.298   5.948   5.202  1.2670  0.9650 -0.2133
 5508SOL    HW221082   1.328   5.947   5.350 -3.4155 -1.4485  0.9089
 5509SOL     OW21083   5.282   6.814  10.482  0.7136  0.3491  0.0111
 5509SOL    HW121084   5.223   6.743  10.460  0.2403  0.7107  0.0840
 5509SOL    HW221085   5.296   6.861  10.400 -2.4238  2.7309  0.6160
 5510SOL     OW21086   5.477  12.082   8.439 -0.3039 -0.0884 -0.4641
 5510SOL    HW121087   5.479  11.988   8.462 -1.1572 -0.0031  0.0082
 5510SOL    HW221088   5.390  12.111   8.465  0.5725  1.2783  1.1622
 5511SOL     OW21089   3.906   0.021   7.842 -0.7806 -0.0515 -0.1767
 5511SOL    HW121090   3.857  -0.033   7.905 -1.4170  0.4413 -0.2397
 5511SOL    HW221091   3.852   0.099   7.830 -0.2284  0.2667 -0.6570
 5512SOL     OW21092  10.932   8.976   9.445 -0.0575 -0.0407  0.1263
 5512SOL    HW121093  10.927   8.890   9.403 -2.2735  0.0337  0.1367
 5512SOL    HW221094  11.006   8.968   9.506  1.2780 -1.1362 -1.5148
 5513SOL     OW21095  11.577   7.832  11.551  0.3740 -0.4199  0.1263
 5513SOL    HW121096  11.531   7.803  11.630  0.8419 -0.0983  0.5218
 5513SOL    HW221097  11.600   7.751  11.505 -1.3964 -0.5819 -0.5650
 5514SOL     OW21098  11.341  10.071   1.384 -0.1797  0.1788  0.1101
 5514SOL    HW121099  11.269  10.133   1.394 -1.6231 -1.2015 -1.1629
 5514SOL    HW221100  11.355  10.036   1.472 -0.4359  1.0916  0.5327
 5515SOL     OW21101   2.392  11.236  11.030  0.7578  0.7742 -0.1085
 5515SOL    HW121102   2.304  11.227  10.992 -0.3822  2.5095  1.9604
 5515SOL    HW221103   2.449  11.247  10.954 -0.7521 -0.5606 -1.5205
 5516SOL     OW21104   6.667   0.526   4.552 -0.2138 -0.3021 -0.0553
 5516SOL    HW121105   6.627   0.472   4.620 -1.2889  0.4910 -0.0239
 5516SOL    HW221106   6.717   0.592   4.599 -0.4436 -0.1331 -0.0468
 5517SOL     OW21107   8.800   6.323   8.771 -0.1250 -0.1023  0.1896
 5517SOL    HW121108   8.721   6.282   8.806  0.5696 -1.1034  0.6211
 5517SOL    HW221109   8.809   6.404   8.822 -0.7254 -0.0969  0.3003
 5518SOL     OW21110  11.087   9.029   5.293 -0.4727  0.2243 -0.2321
 5518SOL    HW121111  11.102   8.990   5.379  0.1840  0.8443 -0.0631
 5518SOL    HW221112  11.161   8.999   5.240  0.6092  2.0307  0.1801
 5519SOL     OW21113   4.830  11.686   7.566 -1.4609  0.0620 -0.7384
 5519SOL    HW121114   4.920  11.717   7.559 -1.1063 -0.9245 -0.7035
 5519SOL    HW221115   4.829  11.604   7.517 -2.8032  0.9717 -2.3317
 5520SOL     OW21116   8.674   3.821  11.972  0.1362  0.2580 -0.3130
 5520SOL    HW121117   8.709   3.820  12.061 -3.0476  0.9186  1.0956
 5520SOL    HW221118   8.647   3.731  11.955  1.0603  0.0592 -0.7922
 5521SOL     OW21119   6.630   9.889  11.215  0.1420  0.1769 -0.1839
 5521SOL    HW121120   6.570   9.935  11.156 -0.7061  0.4470  0.8636
 5521SOL    HW221121   6.712   9.938  11.209 -0.6558  1.6878  0.6938
 5522SOL     OW21122   2.876  10.480   9.368  0.1555  0.3398 -0.0796
 5522SOL    HW121123   2.847  10.414   9.430  0.4852 -1.2256 -1.5017
 5522SOL    HW221124   2.822  10.465   9.290  2.8273 -0.9229 -1.8521
 5523SOL     OW21125   3.315   4.964   7.049  0.0617 -0.9479  0.8403
 5523SOL    HW121126   3.365   4.906   7.106 -1.5651 -0.8025  2.5034
 5523SOL    HW221127   3.237   4.987   7.100 -1.1361 -0.2388 -1.1878
 5524SOL     OW21128   6.891   2.527   5.634  0.5332 -0.2019  0.3827
 5524SOL    HW121129   6.876   2.593   5.567  0.1630  0.4142  1.0523
 5524SOL    HW221130   6.986   2.519   5.639  0.6091  0.7970  0.7708
 5525SOL     OW21131   7.691   3.729   8.003 -0.1548  0.0283  0.6384
 5525SOL    HW121132   7.648   3.815   8.001  1.3076  0.7774 -0.7557
 5525SOL    HW221133   7.619   3.666   7.998 -1.2786  1.1356  1.9261
 5526SOL     OW21134   2.389   7.255   5.185  0.3713  0.4284  0.0466
 5526SOL    HW121135   2.300   7.282   5.164 -0.0212  1.4286  2.6180
 5526SOL    HW221136   2.419   7.208   5.107 -2.2200  0.4349 -1.0513
 5527SOL     OW21137   9.256   5.395  12.000 -0.6601  0.1948  0.5033
 5527SOL    HW121138   9.204   5.338  12.056  2.1795 -0.9347  2.1632
 5527SOL    HW221139   9.326   5.340  11.967 -1.1562  1.3062 -2.7783
 5528SOL     OW21140  11.957   3.788   9.962 -0.5776 -0.0176  0.1184
 5528SOL    HW121141  12.037   3.838   9.977 -1.2384  1.1696 -0.1860
 5528SOL    HW221142  11.940   3.743  10.045  0.2889 -0.1265  0.2431
 5529SOL     OW21143   2.952  10.322  11.324  0.0951 -0.1303  0.3706
 5529SOL    HW121144   3.040  10.295  11.298  0.3585  1.2436 -0.2549
 5529SOL    HW221145   2.966  10.388  11.392 -0.4908 -0.7005  1.0591
 5530SOL     OW21146   9.387   8.776   5.929  0.2156  0.1780 -0.0911
 5530SOL    HW121147   9.402   8.864   5.894 -2.5355  0.2257 -1.3867
 5530SOL    HW221148   9.302   8.782   5.974 -0.1899 -1.8729 -0.4806
 5531SOL     OW21149   9.817   0.056   2.083 -0.1677  0.0586  0.1798
 5531SOL    HW121150   9.912   0.049   2.078 -0.0850  1.1395  0.0316
 5531SOL    HW221151   9.785   0.014   2.003  0.1922 -0.0742  0.1058
 5532SOL     OW21152   0.583   6.269   5.840  0.1448 -0.6410  0.3599
 5532SOL    HW121153   0.660   6.325   5.844 -1.1872  1.4599 -1.3480
 5532SOL    HW221154   0.608   6.195   5.784  0.7929  0.2219 -0.5011
 5533SOL     OW21155   7.747   8.504   1.122 -0.1774 -0.2034 -0.3064
 5533SOL    HW121156   7.680   8.572   1.128  0.1693  0.0453  0.9416
 5533SOL    HW221157   7.727   8.458   1.041 -1.7246  0.0095 -0.0637
 5534SOL     OW21158   1.393   2.063   0.200  0.4349 -0.2038  0.5906
 5534SOL    HW121159   1.458   2.106   0.255 -0.3311  0.4131  1.0528
 5534SOL    HW221160   1.339   2.014   0.262  0.9484 -1.3878  0.1279
 5535SOL     OW21161   0.567   1.034   6.303  0.0659 -0.5217 -0.3121
 5535SOL    HW121162   0.537   0.992   6.222 -0.9705 -2.2690  0.9070
 5535SOL    HW221163   0.492   1.029   6.362  0.4728  1.6183  0.4672
 5536SOL     OW21164   4.185   8.947  10.431  0.4196 -0.0610  0.5587
 5536SOL    HW121165   4.217   8.872  10.381  0.7961 -0.3217  1.1733
 5536SOL    HW221166   4.117   8.986  10.376  1.5072  0.2689 -0.6111
 5537SOL     OW21167  10.931   5.924   4.078  0.1454 -0.3176 -0.4515
 5537SOL    HW121168  10.969   5.990   4.136 -1.8639  0.4013  0.1406
 5537SOL    HW221169  10.960   5.948   3.990  0.0649  0.9268 -0.1497
 5538SOL     OW21170   5.182   3.069   1.931 -0.0366  0.5659 -0.4919
 5538SOL    HW121171   5.231   3.145   1.899 -1.7213  0.7033 -3.0774
 5538SOL    HW221172   5.128   3.043   1.856 -1.7912 -1.2909  1.3058
 5539SOL     OW21173   2.373   3.381   2.693  0.2881  0.2833  0.3365
 5539SOL    HW121174   2.419   3.316   2.747  0.0196  0.4982  0.8283
 5539SOL    HW221175   2.290   3.396   2.738  0.4885  1.2153  0.4139
 5540SOL     OW21176  11.526   6.475  11.990  0.0382  0.2156  0.1376
 5540SOL    HW121177  11.457   6.425  11.946 -0.3088  0.1902  0.6984
 5540SOL    HW221178  11.576   6.409  12.039  0.0752  0.3134  0.2323
 5541SOL     OW21179   2.970   0.632   6.015 -0.0795  0.3332 -0.1759
 5541SOL    HW121180   2.926   0.638   5.930  0.1858 -0.0942 -0.3471
 5541SOL    HW221181   2.915   0.574   6.067 -0.3103  0.6995 -0.0132
 5542SOL     OW21182  11.826  11.371  12.065  0.0630  0.4177  0.7742
 5542SOL    HW121183  11.753  11.338  12.117 -1.5273  2.1848 -0.2060
 5542SOL    HW221184  11.856  11.294  12.016 -1.0805 -0.3817  1.2671
 5543SOL     OW21185  10.885  11.455  10.095  0.4239  0.9049  0.2648
 5543SOL    HW121186  10.917  11.367  10.113 -1.7127  0.1768  0.7938
 5543SOL    HW221187  10.790  11.445  10.087  0.2331  2.9930 -0.7462
 5544SOL     OW21188   6.191   6.553  11.147  0.4202 -0.2520 -0.4847
 5544SOL    HW121189   6.143   6.589  11.072 -1.0704  0.5799  0.7989
 5544SOL    HW221190   6.188   6.458  11.134 -1.3277 -0.2090 -0.6392
 5545SOL     OW21191  11.545   8.182   5.660  0.2641  0.5541 -0.3757
 5545SOL    HW121192  11.584   8.174   5.747  2.5800 -0.8879 -1.4699
 5545SOL    HW221193  11.598   8.249   5.616 -1.6306  2.1552 -0.3642
 5546SOL     OW21194   5.892   6.375  10.710  0.6173  0.1986 -0.2219
 5546SOL    HW121195   5.908   6.410  10.623  0.1894  0.4713 -0.1912
 5546SOL    HW221196   5.979   6.366  10.749  0.7406  1.1162 -0.2736
 5547SOL     OW21197   3.084   5.703   8.555  0.1338 -0.5359  0.2638
 5547SOL    HW121198   2.990   5.688   8.556  0.2060 -1.2181 -1.3031
 5547SOL    HW221199   3.109   5.700   8.463  1.4951  0.9941  0.5301
 5548SOL     OW21200   6.975   3.671   0.295 -0.7701  0.0151  0.1484
 5548SOL    HW121201   6.930   3.750   0.325  2.2600  1.6771  0.7621
 5548SOL    HW221202   6.916   3.599   0.317 -3.1965  1.9994  0.5266
 5549SOL     OW21203   4.093  11.340   6.253 -0.1266 -0.0335 -0.2965
 5549SOL    HW121204   4.133  11.293   6.327  0.2459 -0.2543 -0.6358
 5549SOL    HW221205   4.139  11.307   6.176 -0.0559  0.6829 -0.5672
 5550SOL     OW21206   7.513   1.398   6.418  0.3261 -0.3985 -0.1653
 5550SOL    HW121207   7.460   1.435   6.489  1.4468 -0.0535  0.5264
 5550SOL    HW221208   7.555   1.475   6.378  0.3105 -0.6634 -0.6938
 5551SOL     OW21209   4.101  11.808   6.654  0.1294 -0.1633  0.1990
 5551SOL    HW121210   4.080  11.718   6.629 -0.5904  0.9087 -3.6408
 5551SOL    HW221211   4.195  11.806   6.674  0.6218 -1.4185 -1.9669
 5552SOL     OW21212   8.394   7.676   9.227 -0.1944  0.2969 -0.6054
 5552SOL    HW121213   8.489   7.674   9.238 -0.1237 -1.2311 -1.1883
 5552SOL    HW221214   8.377   7.616   9.155 -1.4756  1.9442 -1.7614
 5553SOL     OW21215   9.493  11.977   5.487 -0.2090  0.3814  0.5149
 5553SOL    HW121216   9.444  12.013   5.413 -2.4677 -0.0910  1.6554
 5553SOL    HW221217   9.503  12.051   5.547  0.5365  0.4929  0.2485
 5554SOL     OW21218   9.755   6.090   6.951  0.5165 -0.5750 -0.2007
 5554SOL    HW121219   9.799   6.041   6.882 -0.7026 -0.9195 -0.7562
 5554SOL    HW221220   9.662   6.068   6.942  0.3070 -0.5586  1.4930
 5555SOL     OW21221  10.381   5.750   3.428  0.2231  0.7046  0.8331
 5555SOL    HW121222  10.308   5.715   3.480 -0.7175  0.9400 -0.2967
 5555SOL    HW221223  10.348   5.832   3.391  0.1025 -0.4196 -1.7650
 5556SOL     OW21224   0.802   3.467   4.951  0.3327  0.0056  0.8004
 5556SOL    HW121225   0.722   3.417   4.969 -0.8685  1.4279 -0.3040
 5556SOL    HW221226   0.845   3.418   4.881  1.4792 -1.7897  2.6358
 5557SOL     OW21227   9.777   3.984  10.501 -0.0127 -0.4646 -0.3977
 5557SOL    HW121228   9.863   4.025  10.495  0.2129 -1.1724 -3.7064
 5557SOL    HW221229   9.777   3.915  10.435 -2.2857 -2.2269  1.2359
 5558SOL     OW21230   5.783   9.768   4.206 -0.6282 -0.2329 -0.6022
 5558SOL    HW121231   5.789   9.714   4.285  0.4625 -0.4985 -0.8493
 5558SOL    HW221232   5.754   9.707   4.137 -0.0265 -0.3738 -0.7398
 5559SOL     OW21233  11.191  10.887   3.779  0.5358 -0.7198 -0.1013
 5559SOL    HW121234  11.110  10.929   3.748 -0.1514 -1.4461  0.6525
 5559SOL    HW221235  11.216  10.936   3.857  0.8350 -0.4864 -0.3429
 5560SOL     OW21236   4.585   8.014   6.381 -0.1019 -0.3481 -0.5129
 5560SOL    HW121237   4.503   7.991   6.424 -0.1836  0.5262 -0.1662
 5560SOL    HW221238   4.583   7.967   6.297 -0.3288 -1.4041  0.0665
 5561SOL     OW21239  11.889   5.469   0.590  0.0825  0.2386  0.3221
 5561SOL    HW121240  11.947   5.421   0.650 -1.9445 -0.0422  2.1868
 5561SOL    HW221241  11.889   5.416   0.511  2.6343  0.4729  0.0555
 5562SOL     OW21242   8.934   0.563   7.233  0.0875  0.0789  0.0615
 5562SOL    HW121243   8.868   0.545   7.166  1.8804  0.2000 -1.8743
 5562SOL    HW221244   9.004   0.499   7.215  1.4093  1.3071  0.6174
 5563SOL     OW21245   1.783   8.635   3.234  0.5616  0.7025  0.2995
 5563SOL    HW121246   1.872   8.666   3.214  0.9727 -0.6026 -0.0390
 5563SOL    HW221247   1.784   8.543   3.208 -0.9169  0.6751  0.2614
 5564SOL     OW21248   6.960  10.347   8.354 -0.1663 -0.1778 -0.0305
 5564SOL    HW121249   6.988  10.296   8.278  0.3904 -0.0552  0.0832
 5564SOL    HW221250   6.872  10.377   8.333  0.0960  0.1017 -0.7459
 5565SOL     OW21251   9.915   0.692   9.474  0.0461  0.5573 -0.0017
 5565SOL    HW121252   9.834   0.658   9.435 -0.1422  0.0629  0.7920
 5565SOL    HW221253   9.913   0.659   9.564  1.2405  0.3590 -0.0396
 5566SOL     OW21254   3.174   9.187   5.929  0.3631 -0.5038 -0.1610
 5566SOL    HW121255   3.117   9.110   5.935  0.2365 -0.8403 -3.4938
 5566SOL    HW221256   3.261   9.155   5.953  0.1728 -1.5259 -0.7698
 5567SOL     OW21257  10.576  10.598   1.492  0.1446  0.2644  0.1025
 5567SOL    HW121258  10.491  10.597   1.535 -0.5806 -1.4637 -1.2449
 5567SOL    HW221259  10.628  10.662   1.541 -1.6135  0.6474  1.5352
 5568SOL     OW21260   2.494  10.616  11.139 -0.2670  0.1383 -0.6550
 5568SOL    HW121261   2.443  10.599  11.060 -0.0548  0.6631 -0.9134
 5568SOL    HW221262   2.526  10.705  11.127 -0.2758  0.2376  0.0523
 5569SOL     OW21263   2.204   0.904   3.844 -0.1378 -0.3318 -0.1128
 5569SOL    HW121264   2.289   0.943   3.825  0.5013 -1.3391  0.6255
 5569SOL    HW221265   2.173   0.952   3.921 -0.2836  0.0862 -0.4273
 5570SOL     OW21266   6.940   7.154   3.501  0.2198 -0.1145 -0.4792
 5570SOL    HW121267   6.938   7.213   3.425  1.0423  0.1577 -0.2977
 5570SOL    HW221268   6.982   7.206   3.570 -1.4608  0.0136  0.4953
 5571SOL     OW21269   4.438   6.840   3.928 -0.1058 -0.1049 -0.2681
 5571SOL    HW121270   4.531   6.859   3.925 -0.0923 -0.2322 -0.9280
 5571SOL    HW221271   4.397   6.925   3.944  0.1867 -0.2822  1.6594
 5572SOL     OW21272   0.359   2.253  10.411  0.1055 -0.0271 -0.5135
 5572SOL    HW121273   0.425   2.323  10.406  1.6180 -1.4009 -0.7045
 5572SOL    HW221274   0.363   2.212  10.324 -1.2463  0.0421 -0.6256
 5573SOL     OW21275   2.415   0.501   3.676 -0.1729  0.5633  0.0849
 5573SOL    HW121276   2.437   0.531   3.764 -0.5669  1.5841 -0.1600
 5573SOL    HW221277   2.343   0.558   3.648 -0.1405  0.1603 -0.8481
 5574SOL     OW21278   1.195   9.867   0.033  0.1440 -0.2280 -0.3294
 5574SOL    HW121279   1.236   9.873  -0.053 -1.3779  1.8997 -1.0179
 5574SOL    HW221280   1.139   9.789   0.027 -0.2110  0.0822 -1.4361
 5575SOL     OW21281   0.582   2.658   1.103 -0.2000 -0.3672  0.2526
 5575SOL    HW121282   0.666   2.692   1.074 -0.0747 -1.8973 -1.3934
 5575SOL    HW221283   0.604   2.582   1.157 -0.4996  1.1039  2.5574
 5576SOL     OW21284  11.749   7.251   5.707 -0.0350 -0.5027  0.7477
 5576SOL    HW121285  11.844   7.256   5.708 -0.1049  1.8811  0.2093
 5576SOL    HW221286  11.720   7.328   5.756 -1.7108 -1.0363  0.6774
 5577SOL     OW21287   7.737   1.741   5.926  0.1452 -0.7972  0.6391
 5577SOL    HW121288   7.756   1.651   5.953  0.9821 -0.1629  2.3016
 5577SOL    HW221289   7.778   1.795   5.993  0.9482  0.8804 -1.1267
 5578SOL     OW21290   4.849  11.168   3.809 -0.2459 -0.5836  0.1012
 5578SOL    HW121291   4.845  11.229   3.735 -1.9106  0.9128  1.3371
 5578SOL    HW221292   4.846  11.223   3.887  3.2457 -1.9763  1.4531
 5579SOL     OW21293  11.297   8.323   0.142 -0.3706 -0.4353 -0.3626
 5579SOL    HW121294  11.322   8.358   0.228 -0.3471 -0.3793 -0.3928
 5579SOL    HW221295  11.210   8.360   0.126 -1.0146 -1.5926  0.2978
 5580SOL     OW21296   8.133   2.801  11.334  0.5835 -0.1534 -0.0531
 5580SOL    HW121297   8.133   2.844  11.248 -1.2872  2.1257  0.9583
 5580SOL    HW221298   8.050   2.755  11.338 -0.3130  1.4774  1.2420
 5581SOL     OW21299  10.333  11.610   0.248 -0.3719 -0.2083 -0.3923
 5581SOL    HW121300  10.267  11.552   0.211 -0.3161 -0.2414 -0.4399
 5581SOL    HW221301  10.407  11.603   0.188 -0.4558  0.1028 -0.5382
 5582SOL     OW21302   2.432   1.035   5.412 -0.6087  0.0290 -0.1022
 5582SOL    HW121303   2.435   1.006   5.503  2.4605  0.0827 -0.0983
 5582SOL    HW221304   2.365   1.104   5.411 -1.1163 -0.3714  1.9590
 5583SOL     OW21305   1.270   6.872  11.720 -0.2630  0.0363  0.0540
 5583SOL    HW121306   1.329   6.925  11.667  1.6840  0.2980  2.3116
 5583SOL    HW221307   1.288   6.782  11.694  0.3279  0.1909 -0.0826
 5584SOL     OW21308   6.931   1.831   5.664  0.3367  0.2611  0.0799
 5584SOL    HW121309   7.015   1.792   5.687 -0.0575 -1.0781 -0.5813
 5584SOL    HW221310   6.951   1.894   5.595  0.7592 -0.4268 -0.4452
 5585SOL     OW21311   0.703   9.166   0.118 -0.0809 -0.3471  0.5693
 5585SOL    HW121312   0.795   9.192   0.124  0.4823 -2.0433 -0.0003
 5585SOL    HW221313   0.669   9.175   0.207  0.4724  0.8117  0.6766
 5586SOL     OW21314   7.620   8.775   1.251  0.7132  0.9446 -0.0557
 5586SOL    HW121315   7.598   8.758   1.160 -0.7082 -2.7992  0.7973
 5586SOL    HW221316   7.536   8.776   1.297  1.4546 -1.8317  1.6883
 5587SOL     OW21317  11.394   5.703   5.772 -0.1336 -0.0987  0.5687
 5587SOL    HW121318  11.467   5.648   5.802 -0.0545 -0.3038  0.0112
 5587SOL    HW221319  11.371   5.667   5.686 -0.1343  0.6841  0.2301
 5588SOL     OW21320   0.312   5.497   8.170  0.2620 -0.0256  0.1177
 5588SOL    HW121321   0.327   5.416   8.123  0.6670 -0.4089  0.8819
 5588SOL    HW221322   0.354   5.565   8.117 -0.1086 -0.3099 -0.5389
 5589SOL     OW21323   4.230   6.390   4.864  0.0726 -0.3023 -0.2687
 5589SOL    HW121324   4.166   6.372   4.933  0.9286 -0.7945  0.4278
 5589SOL    HW221325   4.210   6.479   4.836 -1.8816 -0.9614 -1.1670
 5590SOL     OW21326   6.053  11.970   7.043  0.0140 -0.3028 -0.4002
 5590SOL    HW121327   5.984  11.921   6.998 -2.1229  2.2584 -0.2008
 5590SOL    HW221328   6.009  12.049   7.075  2.5704  0.3851  1.8085
 5591SOL     OW21329   6.532   4.769   2.503  0.3396  0.0273 -0.7175
 5591SOL    HW121330   6.538   4.701   2.570  0.0164  0.1978 -0.5171
 5591SOL    HW221331   6.493   4.725   2.427 -2.1279  0.5250  0.1653
 5592SOL     OW21332   6.903   2.437   4.946 -0.2470 -0.6683 -0.0699
 5592SOL    HW121333   6.861   2.379   5.009 -2.6559  1.8351  0.8150
 5592SOL    HW221334   6.963   2.491   4.998 -1.3893  0.6270 -0.0318
 5593SOL     OW21335  10.390   1.877   2.402 -0.5169 -0.1755  0.4562
 5593SOL    HW121336  10.335   1.950   2.374 -0.4978 -1.4999 -3.9144
 5593SOL    HW221337  10.468   1.918   2.439 -1.5960  1.9143  0.5504
 5594SOL     OW21338   0.674   0.749   2.340  0.0182  0.0483 -0.0108
 5594SOL    HW121339   0.748   0.809   2.342 -0.2607  0.3919  0.3198
 5594SOL    HW221340   0.598   0.806   2.322 -0.1303 -0.3302 -0.5955
 5595SOL     OW21341   4.003   9.855   9.224  0.2360  0.5309 -0.3977
 5595SOL    HW121342   3.943   9.902   9.282 -0.2680 -0.4919 -0.0810
 5595SOL    HW221343   3.967   9.767   9.217  1.4371  0.0277 -0.5736
 5596SOL     OW21344  10.651   9.425   4.234  0.0254 -0.9055 -0.1309
 5596SOL    HW121345  10.687   9.368   4.302 -0.7650  0.1045  1.1756
 5596SOL    HW221346  10.728   9.470   4.197  0.5186 -1.8729 -0.3120
 5597SOL     OW21347   0.771   6.881   6.702 -0.0445  0.3166 -0.4250
 5597SOL    HW121348   0.771   6.855   6.610 -0.4148 -1.1736 -0.0325
 5597SOL    HW221349   0.847   6.837   6.740  0.3895  1.3148 -0.1130
 5598SOL     OW21350   1.551   0.775   1.216 -0.5789 -0.4960 -0.1429
 5598SOL    HW121351   1.540   0.681   1.233 -2.8886 -0.7278 -2.2946
 5598SOL    HW221352   1.591   0.779   1.130  0.8626  0.5651  0.5299
 5599SOL     OW21353   8.144   5.110  11.539  0.2130 -0.0312 -0.0997
 5599SOL    HW121354   8.116   5.038  11.595 -0.0234  0.7988  0.8810
 5599SOL    HW221355   8.217   5.075  11.489  1.0556 -0.5355  1.4179
 5600SOL     OW21356   4.094   4.733   4.099 -0.9288 -0.4791 -0.3017
 5600SOL    HW121357   4.124   4.724   4.008 -0.2328  2.5861 -0.4777
 5600SOL    HW221358   4.170   4.768   4.146 -1.4543 -1.4789  1.3956
 5601SOL     OW21359   5.799   1.718  11.036 -0.4502  0.5682  0.2748
 5601SOL    HW121360   5.778   1.809  11.056 -2.3266  0.1929  0.1970
 5601SOL    HW221361   5.717   1.680  11.007  0.3488 -1.1020  0.0570
 5602SOL     OW21362   3.813  10.795   6.281  0.1224 -0.0812 -0.4116
 5602SOL    HW121363   3.897  10.835   6.303  0.2398 -0.5534  0.0103
 5602SOL    HW221364   3.752  10.831   6.346 -0.0942  0.5682 -0.9592
 5603SOL     OW21365   3.172   6.361   4.489  0.0999  0.0556  0.2168
 5603SOL    HW121366   3.249   6.328   4.536 -0.9140 -1.9967  0.5886
 5603SOL    HW221367   3.098   6.327   4.539 -1.1021  2.3885  0.1619
 5604SOL     OW21368   6.312   5.818   2.468  0.4249 -0.4839 -0.5631
 5604SOL    HW121369   6.220   5.844   2.464  0.5210  0.0052  0.2719
 5604SOL    HW221370   6.310   5.723   2.466 -0.0999 -0.4746 -0.5592
 5605SOL     OW21371   8.538  11.618   5.303  0.3080 -0.2744  0.7533
 5605SOL    HW121372   8.567  11.676   5.374  0.1977  0.2899  0.3427
 5605SOL    HW221373   8.465  11.569   5.340 -1.0187  1.3922  0.4381
 5606SOL     OW21374  10.537  11.679   2.031 -0.0334 -0.4855 -0.1478
 5606SOL    HW121375  10.467  11.717   2.084  1.2276  0.1091  1.1362
 5606SOL    HW221376  10.533  11.585   2.050 -0.3291 -0.4235  0.0997
 5607SOL     OW21377   0.912   3.246   1.965 -0.3795 -0.3617 -0.3142
 5607SOL    HW121378   0.984   3.248   1.902 -0.1480 -0.8307 -0.0692
 5607SOL    HW221379   0.854   3.316   1.936  0.7712  0.8514  0.1954
 5608SOL     OW21380   6.588   5.761   3.758  0.3356 -0.2336  0.2441
 5608SOL    HW121381   6.591   5.731   3.849  0.9888  0.3983  0.4381
 5608SOL    HW221382   6.513   5.820   3.755  1.1131  0.7916  0.7099
 5609SOL     OW21383   6.462  10.393   4.692 -0.4583 -0.0462  0.3512
 5609SOL    HW121384   6.481  10.349   4.609  0.2903 -1.4946  1.2603
 5609SOL    HW221385   6.369  10.373   4.708 -0.4884 -0.1257  0.0910
 5610SOL     OW21386   2.562   2.856   8.103  1.0868  0.0468 -0.3246
 5610SOL    HW121387   2.481   2.814   8.074  1.7272 -0.7782 -0.9830
 5610SOL    HW221388   2.559   2.943   8.064  1.0160 -0.3707 -1.3085
 5611SOL     OW21389   7.481   3.027   9.939  0.3498  0.4936 -0.3716
 5611SOL    HW121390   7.469   2.937   9.909 -0.0390  0.0274  1.1024
 5611SOL    HW221391   7.489   3.078   9.859 -1.5151 -0.5565 -1.2893
 5612SOL     OW21392   7.206   7.035  10.268 -0.2176  0.0585 -0.2217
 5612SOL    HW121393   7.202   6.953  10.318  0.5666  0.7396  0.9747
 5612SOL    HW221394   7.291   7.073  10.291  1.0524 -0.4681 -3.4537
 5613SOL     OW21395   5.508   9.365   5.291 -0.3610 -0.0684 -0.1656
 5613SOL    HW121396   5.536   9.430   5.356 -0.9270  0.1089 -0.0920
 5613SOL    HW221397   5.444   9.411   5.237  1.1800  0.2431 -1.7991
 5614SOL     OW21398   1.530   0.251   8.655 -0.8409  0.3490  0.6224
 5614SOL    HW121399   1.502   0.329   8.702 -1.9257  0.2743  0.1188
 5614SOL    HW221400   1.622   0.239   8.682 -0.5313  1.9940  0.4228
 5615SOL     OW21401  11.995   2.355   1.467  0.3020  0.3776 -0.8005
 5615SOL    HW121402  11.998   2.424   1.400 -1.4329  1.4555  0.1469
 5615SOL    HW221403  12.086   2.342   1.492  0.7692  1.5550 -1.7819
 5616SOL     OW21404   3.451   1.622   0.425  0.1472 -0.4237 -0.0315
 5616SOL    HW121405   3.388   1.675   0.474 -1.4230 -1.0018 -1.3431
 5616SOL    HW221406   3.418   1.622   0.335  2.1140 -0.6446 -0.8042
 5617SOL     OW21407   6.377   2.658  10.350 -0.2761  0.0350  0.4206
 5617SOL    HW121408   6.408   2.624  10.434  1.9870 -0.0019 -0.3616
 5617SOL    HW221409   6.391   2.586  10.288  0.3256  0.8413 -0.4101
 5618SOL     OW21410   0.009   5.755   1.078  0.2412 -0.0815 -0.2038
 5618SOL    HW121411   0.045   5.831   1.123  0.9938 -0.1057 -0.7585
 5618SOL    HW221412  -0.048   5.714   1.144  0.5384  0.4446  0.3963
 5619SOL     OW21413   0.521   8.093   9.342 -0.0030  0.8817 -0.4596
 5619SOL    HW121414   0.434   8.053   9.347  0.3719  0.2178  1.0563
 5619SOL    HW221415   0.579   8.022   9.316  0.3333  0.9540  0.0962
 5620SOL     OW21416   9.640   1.037   0.665 -0.1639 -0.4490  0.0827
 5620SOL    HW121417   9.661   0.943   0.669  0.2037 -0.4216 -1.0070
 5620SOL    HW221418   9.618   1.060   0.755  1.3008 -1.2167  0.6701
 5621SOL     OW21419   5.385   9.470   1.281  0.4020  0.1405 -0.1002
 5621SOL    HW121420   5.344   9.556   1.270  0.0230 -0.2011 -1.5776
 5621SOL    HW221421   5.388   9.433   1.192  0.5974 -1.3571  0.4962
 5622SOL     OW21422   4.160   2.186   0.090 -0.0791  0.7815  0.6389
 5622SOL    HW121423   4.101   2.240   0.141  0.8295  1.8692  0.5757
 5622SOL    HW221424   4.244   2.230   0.096  0.8046 -0.8588  0.9299
 5623SOL     OW21425  10.805   0.577  11.877  0.4727  0.3735 -0.6728
 5623SOL    HW121426  10.821   0.629  11.798  0.9189  2.5447  0.7618
 5623SOL    HW221427  10.880   0.518  11.882  0.3727  0.1084 -1.9054
 5624SOL     OW21428   1.573   5.200   4.857  0.0157  0.7546  0.1044
 5624SOL    HW121429   1.655   5.248   4.867  0.7284  0.0984 -1.9989
 5624SOL    HW221430   1.580   5.127   4.919  1.4814  0.1966 -0.6586
 5625SOL     OW21431   3.905   8.271   8.054  0.2860  0.0067  0.5535
 5625SOL    HW121432   3.845   8.330   8.099  0.4838 -0.7858  1.9251
 5625SOL    HW221433   3.992   8.297   8.086  0.4785 -0.2265  0.2193
 5626SOL     OW21434   8.957  10.303  11.576  0.1115  0.3407  0.0610
 5626SOL    HW121435   8.866  10.280  11.596  0.3402  0.4419  1.3657
 5626SOL    HW221436   8.970  10.386  11.623  0.4553  1.0810 -1.3099
 5627SOL     OW21437   1.396   9.562   0.788 -0.1185  0.1168 -0.0609
 5627SOL    HW121438   1.339   9.550   0.863 -0.3301  0.8873 -0.0848
 5627SOL    HW221439   1.424   9.654   0.794  0.1040  0.1016 -0.7464
 5628SOL     OW21440   2.752   8.483   2.430 -0.3556 -0.2162  0.6227
 5628SOL    HW121441   2.666   8.452   2.401 -0.5741 -0.1628  1.1996
 5628SOL    HW221442   2.774   8.554   2.369 -0.7909 -0.1320  0.5618
 5629SOL     OW21443   8.659   0.720   1.290  0.4909 -0.3678  0.0952
 5629SOL    HW121444   8.715   0.700   1.215  2.0123  2.8148  0.1850
 5629SOL    HW221445   8.582   0.762   1.252  0.1099 -0.9688  0.1969
 5630SOL     OW21446   2.317   3.139   5.105  0.0053  0.6106 -0.4686
 5630SOL    HW121447   2.398   3.095   5.131 -1.0574 -1.1527  0.0383
 5630SOL    HW221448   2.291   3.097   5.024 -1.4865 -0.3855  0.4716
 5631SOL     OW21449   6.689   9.380   1.957  0.3497  0.5637 -0.2567
 5631SOL    HW121450   6.606   9.357   1.999 -0.0531  0.3753 -1.1226
 5631SOL    HW221451   6.664   9.437   1.885  0.9364  0.2044 -0.7517
 5632SOL     OW21452   9.106   5.359   3.935  0.7371 -0.1417  0.4125
 5632SOL    HW121453   9.172   5.407   3.885 -0.0890 -0.1504 -0.7119
 5632SOL    HW221454   9.035   5.344   3.873 -0.8655  0.8934  1.9146
 5633SOL     OW21455   8.072   6.286   0.259  0.1246 -0.7115 -0.0682
 5633SOL    HW121456   8.017   6.349   0.307  1.6749  0.3860  0.3376
 5633SOL    HW221457   8.045   6.201   0.294  0.6792 -0.0115  2.2817
 5634SOL     OW21458   7.468   2.610   0.407  0.0222  0.0054  0.1039
 5634SOL    HW121459   7.457   2.563   0.489  1.1282  0.9712  0.8459
 5634SOL    HW221460   7.560   2.600   0.385 -0.1548  0.1601 -0.7720
 5635SOL     OW21461   1.686  10.587   3.123  0.1724  0.5073 -0.6165
 5635SOL    HW121462   1.724  10.634   3.049  0.4854 -0.4648 -1.0915
 5635SOL    HW221463   1.613  10.538   3.086 -0.8368  1.4165  0.0730
 5636SOL     OW21464   6.509   9.115  11.615  0.5457 -0.4030  0.2558
 5636SOL    HW121465   6.582   9.063  11.648 -0.8068 -1.7475  1.2932
 5636SOL    HW221466   6.504   9.189  11.675  2.6411  1.1732 -1.3763
 5637SOL     OW21467   3.196   1.559   9.196 -0.0921  0.2558 -0.4334
 5637SOL    HW121468   3.204   1.640   9.144  0.9579  0.1204 -0.4911
 5637SOL    HW221469   3.263   1.501   9.161  0.8714  0.2706  1.3026
 5638SOL     OW21470   0.837  12.006   2.312 -0.3269 -0.3203  0.6525
 5638SOL    HW121471   0.928  12.035   2.304 -0.4304 -0.3469 -1.1833
 5638SOL    HW221472   0.785  12.085   2.297 -0.5856 -0.6349 -0.2080
 5639SOL     OW21473   8.117   2.582   4.149 -0.4986 -0.0820 -0.6991
 5639SOL    HW121474   8.031   2.591   4.189 -0.6965 -1.2299 -0.8362
 5639SOL    HW221475   8.101   2.535   4.067  0.3611 -1.1801 -0.2702
 5640SOL     OW21476   4.128  11.491   2.196 -0.2696 -0.3245  0.5205
 5640SOL    HW121477   4.047  11.532   2.226  0.6672  0.3514  2.2415
 5640SOL    HW221478   4.102  11.403   2.168 -1.6477  0.0334  0.6210
 5641SOL     OW21479   1.614   7.264   9.743  0.5452  0.2512 -0.4582
 5641SOL    HW121480   1.608   7.171   9.719 -1.5120 -0.2967  1.7498
 5641SOL    HW221481   1.591   7.311   9.664 -2.9012 -1.3303 -0.6052
 5642SOL     OW21482   5.418   7.404   1.350  0.2432 -0.2265 -0.1063
 5642SOL    HW121483   5.496   7.349   1.345  1.2879  1.2628 -1.0834
 5642SOL    HW221484   5.450   7.489   1.381 -1.2900 -0.0674  1.1938
 5643SOL     OW21485   5.055  10.196   2.541  0.5753  0.1924  0.4873
 5643SOL    HW121486   5.009  10.245   2.472  1.1820  2.1382  1.4014
 5643SOL    HW221487   5.097  10.123   2.495 -0.5614  0.3666 -0.8956
 5644SOL     OW21488   4.640   8.099   8.542 -0.0591  0.3166  0.5992
 5644SOL    HW121489   4.666   8.054   8.622  0.5305  1.2538  0.9528
 5644SOL    HW221490   4.714   8.157   8.522 -0.8037  1.1515  0.1823
 5645SOL     OW21491   8.033   5.374  10.476  0.2879 -0.0401 -0.0558
 5645SOL    HW121492   7.941   5.351  10.492 -0.1073  0.8320 -0.9904
 5645SOL    HW221493   8.069   5.297  10.432  0.0385 -0.4366  0.4222
 5646SOL     OW21494   8.341   5.233   9.313  0.5212 -0.7719  0.2270
 5646SOL    HW121495   8.263   5.253   9.261  1.0176  0.0143 -0.2346
 5646SOL    HW221496   8.402   5.304   9.294  0.7267 -0.4524  1.8953
 5647SOL     OW21497  10.945   9.373   4.359 -0.5371 -0.3617  0.2508
 5647SOL    HW121498  10.982   9.461   4.370  1.0582 -0.9016 -0.4605
 5647SOL    HW221499  10.943   9.337   4.447 -0.7904  0.2234  0.4913
 5648SOL     OW21500   8.651   2.695  11.045 -0.2207  0.2021  0.1686
 5648SOL    HW121501   8.745   2.709  11.060  0.1270 -0.7609 -0.9600
 5648SOL    HW221502   8.643   2.687  10.950 -1.2255 -1.1809  0.3439
 5649SOL     OW21503   0.235   3.950   0.339 -0.1028  0.4872  0.1188
 5649SOL    HW121504   0.154   3.944   0.288 -0.3902  0.3177  0.5941
 5649SOL    HW221505   0.206   3.974   0.427  0.1293 -1.8943  0.9207
 5650SOL     OW21506   1.317   4.848   3.848  0.1339  0.1707 -0.1128
 5650SOL    HW121507   1.313   4.754   3.866  1.3400  0.0202 -0.4936
 5650SOL    HW221508   1.265   4.889   3.917 -1.1170 -0.8282 -0.4440
 5651SOL     OW21509   3.197   5.186   7.817 -0.1931  0.2268  0.7344
 5651SOL    HW121510   3.201   5.122   7.889 -0.6960  1.8752  2.3175
 5651SOL    HW221511   3.250   5.148   7.748 -0.4186 -1.8630  1.6366
 5652SOL     OW21512  11.575  11.648   4.689 -0.4745 -0.5398 -0.2890
 5652SOL    HW121513  11.601  11.556   4.699  0.2697 -0.6145 -2.5000
 5652SOL    HW221514  11.635  11.695   4.747  0.7422 -1.2603 -0.9116
 5653SOL     OW21515   5.703   7.361   1.999  0.0635 -0.0134 -0.1618
 5653SOL    HW121516   5.768   7.301   1.963  0.3942 -0.5101  1.2346
 5653SOL    HW221517   5.686   7.329   2.088 -3.0223 -0.6950 -0.8542
 5654SOL     OW21518   9.950  10.319   3.908 -0.3229 -0.0752 -0.6864
 5654SOL    HW121519   9.974  10.404   3.945 -0.4059  0.1643 -1.1865
 5654SOL    HW221520   9.902  10.340   3.829 -2.4222 -0.5385  0.4013
 5655SOL     OW21521   4.619   0.825   5.525  0.3953 -0.5947  0.1136
 5655SOL    HW121522   4.648   0.817   5.434 -1.6529 -0.3050 -0.6389
 5655SOL    HW221523   4.551   0.758   5.533 -1.0446  0.8672  0.6935
 5656SOL     OW21524   6.018   5.144   3.008  0.0850 -0.2543 -0.7919
 5656SOL    HW121525   5.975   5.129   3.093  2.1518  0.0671  0.3618
 5656SOL    HW221526   5.973   5.084   2.948 -1.8581 -0.0228  0.3500
 5657SOL     OW21527   2.868  11.972   7.564 -0.5007 -0.0305 -0.1696
 5657SOL    HW121528   2.838  11.912   7.496  0.5942  0.0738 -0.7816
 5657SOL    HW221529   2.949  12.010   7.528 -0.3516  0.6570  0.8427
 5658SOL     OW21530   2.088   0.525  10.490 -0.5129  0.2277 -0.3746
 5658SOL    HW121531   2.109   0.432  10.493 -0.8561  0.1640  0.5984
 5658SOL    HW221532   2.157   0.564  10.436 -0.7881 -0.6858 -1.3998
 5659SOL     OW21533   0.914   6.651   5.041 -0.5913 -0.6623  0.1621
 5659SOL    HW121534   0.875   6.709   4.975  0.7830  2.4497  1.8677
 5659SOL    HW221535   0.991   6.614   4.998 -0.0695  0.8142 -0.2283
 5660SOL     OW21536   8.877   3.823   6.863  0.1132 -0.7061  0.4733
 5660SOL    HW121537   8.792   3.794   6.898  0.0552 -0.8226  0.2359
 5660SOL    HW221538   8.861   3.914   6.836  0.1176 -0.6640  0.6106
 5661SOL     OW21539   8.753   1.281   5.065 -0.1515  1.0870 -0.7110
 5661SOL    HW121540   8.794   1.202   5.031  2.4153  3.0805 -2.7060
 5661SOL    HW221541   8.668   1.286   5.021  0.0975 -0.0139 -1.3534
 5662SOL     OW21542   7.434  11.872   1.731  0.5134 -0.2201 -0.0257
 5662SOL    HW121543   7.521  11.886   1.694  0.5435  1.2962  0.5319
 5662SOL    HW221544   7.439  11.786   1.772  1.9340  0.0702  0.4803
 5663SOL     OW21545   5.670  11.585   6.736  0.5733  0.3903 -0.2044
 5663SOL    HW121546   5.583  11.616   6.710  0.7354  1.0722  0.0227
 5663SOL    HW221547   5.717  11.574   6.654  0.6756  1.2868 -0.2795
 5664SOL     OW21548   1.207   3.124   6.006  0.2128  0.2468  0.3264
 5664SOL    HW121549   1.126   3.137   6.055 -0.6542  0.8229 -1.1876
 5664SOL    HW221550   1.185   3.148   5.916  2.3069  1.2836  0.0220
 5665SOL     OW21551   4.465  11.930   0.035 -0.2753  0.6772  0.1941
 5665SOL    HW121552   4.473  12.022   0.063 -1.2411  0.4307  1.3754
 5665SOL    HW221553   4.403  11.892   0.097 -0.9168 -0.4491 -1.1030
 5666SOL     OW21554   2.292   8.494   1.312  0.0899 -0.3472  0.1088
 5666SOL    HW121555   2.385   8.505   1.294  0.1839 -0.4499  0.5134
 5666SOL    HW221556   2.256   8.583   1.311  0.1178 -0.3379 -0.4159
 5667SOL     OW21557   4.378   6.318   3.138 -0.0655 -0.1623  0.3224
 5667SOL    HW121558   4.404   6.232   3.104 -1.9538 -1.5838  2.2398
 5667SOL    HW221559   4.289   6.331   3.104 -0.1134  0.6660  0.7476
 5668SOL     OW21560   1.484   0.972   0.485  0.4334 -0.2959  0.5938
 5668SOL    HW121561   1.434   1.052   0.502  0.2790 -0.3058  0.2106
 5668SOL    HW221562   1.545   0.997   0.414  1.0670 -0.2466  1.1423
 5669SOL     OW21563  10.486  12.043  10.586  0.7739  0.4363 -0.2250
 5669SOL    HW121564  10.572  12.085  10.578  0.2108  1.8196  0.6314
 5669SOL    HW221565  10.425  12.105  10.548 -0.0495  0.2980  0.8080
 5670SOL     OW21566  11.981   5.031   7.789  0.0013  0.0485 -0.1530
 5670SOL    HW121567  12.046   4.965   7.813  0.4001  0.0990 -1.0497
 5670SOL    HW221568  11.950   5.003   7.702 -1.0728  0.1019  0.1917
 5671SOL     OW21569   9.726  10.211   2.950 -0.0619 -0.0441  0.4859
 5671SOL    HW121570   9.656  10.213   2.885 -0.8773  2.6525  1.3078
 5671SOL    HW221571   9.806  10.199   2.900 -0.7797  0.8479 -0.9400
 5672SOL     OW21572   9.652   5.236   2.147  0.2030  0.2414  0.0984
 5672SOL    HW121573   9.605   5.156   2.170  0.3523 -0.1960 -1.0767
 5672SOL    HW221574   9.586   5.290   2.104 -0.0184  0.9721  1.2951
 5673SOL     OW21575   7.783   7.957  11.076  0.1552 -0.9024 -0.6392
 5673SOL    HW121576   7.709   7.994  11.029  0.7877  1.4789  0.1140
 5673SOL    HW221577   7.745   7.915  11.153 -0.4846 -0.3750 -0.6660
 5674SOL     OW21578   2.148   3.446   4.916 -0.7842  0.6598 -0.9187
 5674SOL    HW121579   2.060   3.417   4.938  0.3925 -2.0617  0.7262
 5674SOL    HW221580   2.180   3.382   4.853  0.6096  0.5450 -0.1430
 5675SOL     OW21581  11.839  10.508   0.296 -0.2298 -0.1329 -0.3038
 5675SOL    HW121582  11.824  10.556   0.377 -0.1196 -1.8802  0.7961
 5675SOL    HW221583  11.804  10.420   0.313 -1.0466 -0.2851 -2.4697
 5676SOL     OW21584   3.166   1.075   3.611  0.8030  0.2470  0.1235
 5676SOL    HW121585   3.160   1.081   3.515  2.5709 -2.2172 -0.2511
 5676SOL    HW221586   3.223   1.147   3.636  0.8935  0.4999 -0.7779
 5677SOL     OW21587   1.601   2.993   9.441 -0.2579  0.0455  0.0910
 5677SOL    HW121588   1.507   3.003   9.456 -0.8334  0.4632 -3.0952
 5677SOL    HW221589   1.612   2.902   9.415  0.0569  0.2001 -0.3368
 5678SOL     OW21590   1.061   0.743   3.677 -0.7140  0.6331 -0.3451
 5678SOL    HW121591   1.010   0.804   3.731  0.3343  0.3673  1.0000
 5678SOL    HW221592   1.026   0.657   3.699  0.0177  0.4862  0.2659
 5679SOL     OW21593   8.127   6.328   7.786 -0.4219 -0.1810  0.1889
 5679SOL    HW121594   8.155   6.287   7.868  0.3820 -0.4095 -0.1895
 5679SOL    HW221595   8.199   6.387   7.763 -0.3448 -0.5954 -0.6805
 5680SOL     OW21596  12.058   4.808   4.473  0.4207 -0.1703 -0.7038
 5680SOL    HW121597  12.064   4.837   4.383  0.8788  0.1006 -0.5893
 5680SOL    HW221598  12.017   4.881   4.520  0.6472 -0.1062 -0.6021
 5681SOL     OW21599   4.983   2.415  11.464 -0.3094  0.1863  0.3806
 5681SOL    HW121600   4.909   2.458  11.507 -1.3816 -0.6078 -0.5950
 5681SOL    HW221601   5.058   2.471  11.483 -0.6558 -0.1761  3.3767
 5682SOL     OW21602   6.982   8.105   6.758  0.2666  0.1961 -0.0181
 5682SOL    HW121603   6.903   8.052   6.767 -0.0765 -0.1359 -3.4796
 5682SOL    HW221604   7.050   8.043   6.732  1.0305  0.8298  0.4418
 5683SOL     OW21605  10.157   7.502   1.509  0.9396 -0.4920  0.0091
 5683SOL    HW121606  10.223   7.543   1.564  2.1107 -2.9289  0.4983
 5683SOL    HW221607  10.202   7.483   1.427  0.1719 -0.0736 -0.5300
 5684SOL     OW21608  10.305   6.017   3.680  0.0998  0.9910  0.1796
 5684SOL    HW121609  10.277   5.975   3.761  0.1545  0.1228 -0.2463
 5684SOL    HW221610  10.255   6.099   3.677 -0.8078  0.4645  0.4896
 5685SOL     OW21611   3.583   2.913   8.928 -0.2586  0.1798  0.2959
 5685SOL    HW121612   3.532   2.971   8.873  1.3480  0.0191 -1.4555
 5685SOL    HW221613   3.549   2.825   8.908 -0.8654  0.2596  0.9272
 5686SOL     OW21614   5.627   1.669   0.292 -0.4570  0.1952  0.6390
 5686SOL    HW121615   5.610   1.609   0.363 -0.2708 -0.5289  0.0834
 5686SOL    HW221616   5.658   1.614   0.220  0.3203  1.0144  0.3163
 5687SOL     OW21617   5.269   9.738   5.423 -0.3420  0.0044 -0.7722
 5687SOL    HW121618   5.277   9.701   5.511  1.6109  2.2860  0.1030
 5687SOL    HW221619   5.194   9.797   5.429 -0.8896 -0.6577 -0.9812
 5688SOL     OW21620   4.550   5.661   3.760  0.3692 -0.6129  0.7323
 5688SOL    HW121621   4.629   5.658   3.814  0.0850 -2.8221  1.0960
 5688SOL    HW221622   4.480   5.633   3.819 -0.4246 -0.2439 -0.0206
 5689SOL     OW21623   5.019   2.144   4.807 -0.1178 -0.4017 -0.1335
 5689SOL    HW121624   5.056   2.145   4.719  0.9375 -0.8134  0.2914
 5689SOL    HW221625   4.962   2.221   4.810 -3.2242 -2.3219 -2.4191
 5690SOL     OW21626   9.727   3.834   4.160 -0.4052  0.0325 -0.6155
 5690SOL    HW121627   9.784   3.862   4.089 -0.7646  0.7910 -0.6087
 5690SOL    HW221628   9.643   3.816   4.118 -0.9119  1.4626 -0.2468
 5691SOL     OW21629   2.304   8.817  11.307  0.0535  0.3330  0.3808
 5691SOL    HW121630   2.240   8.747  11.295  2.0440 -1.4590 -0.4794
 5691SOL    HW221631   2.277   8.860  11.388 -1.5796 -1.0559  0.6350
 5692SOL     OW21632  11.616   2.404   0.184  0.1093 -0.3802 -0.0869
 5692SOL    HW121633  11.682   2.336   0.182  0.8329  0.2727 -2.8227
 5692SOL    HW221634  11.541   2.367   0.137  0.6717  0.7793 -2.0023
 5693SOL     OW21635   1.554   5.541   3.216  0.0864  0.0487 -0.2511
 5693SOL    HW121636   1.571   5.518   3.308 -1.0872  2.7578  0.7463
 5693SOL    HW221637   1.541   5.635   3.217  0.9638  0.3183 -3.4084
 5694SOL     OW21638   8.491   6.126   4.893 -0.6147 -0.5825 -0.4967
 5694SOL    HW121639   8.578   6.098   4.866 -0.4925 -0.2062 -0.4890
 5694SOL    HW221640   8.473   6.205   4.843 -0.6210 -0.2078  0.0809
 5695SOL     OW21641   9.413   9.677   3.342  0.0831  0.0906 -0.7709
 5695SOL    HW121642   9.423   9.717   3.429 -0.7237 -0.4015 -0.4430
 5695SOL    HW221643   9.394   9.750   3.284  0.2270  0.3788 -0.4572
 5696SOL     OW21644   5.215   4.161   9.106 -0.0398 -0.5949  0.3826
 5696SOL    HW121645   5.199   4.246   9.148 -2.7498 -0.5345 -0.5594
 5696SOL    HW221646   5.287   4.177   9.046 -1.0437  1.3328 -0.4127
 5697SOL     OW21647   6.336   0.770   4.701 -0.7587 -0.1720  0.2265
 5697SOL    HW121648   6.376   0.852   4.728 -2.7620  1.8322 -2.3406
 5697SOL    HW221649   6.254   0.765   4.750 -0.9752 -0.2598 -0.1389
 5698SOL     OW21650   3.264   6.079   6.421 -0.3702  0.3201  0.2799
 5698SOL    HW121651   3.239   6.082   6.513 -1.7570 -0.6428 -0.0344
 5698SOL    HW221652   3.181   6.067   6.374  0.2988  0.8764 -1.1056
 5699SOL     OW21653   6.935   6.634   4.882 -0.1689 -0.3249  0.9178
 5699SOL    HW121654   6.988   6.630   4.962 -0.9778  1.0365  1.5442
 5699SOL    HW221655   7.000   6.634   4.811  0.5825 -0.8375  1.5724
 5700SOL     OW21656   3.664   7.104  10.403  0.5791  0.3581 -0.3517
 5700SOL    HW121657   3.625   7.021  10.374  0.3834 -0.0833  1.0875
 5700SOL    HW221658   3.620   7.171  10.351 -2.0782 -0.1237  1.1282
 5701SOL     OW21659   7.343   1.603   0.159  0.5743 -0.3207  0.1632
 5701SOL    HW121660   7.397   1.644   0.226  0.4666  0.4493 -0.2170
 5701SOL    HW221661   7.256   1.641   0.171  0.4157 -0.6109 -0.0427
 5702SOL     OW21662   2.550   2.665   7.260 -0.5697 -0.2471 -0.7469
 5702SOL    HW121663   2.562   2.574   7.289  2.1055 -0.1299 -1.1780
 5702SOL    HW221664   2.460   2.669   7.230 -0.8083 -2.7460 -0.6043
 5703SOL     OW21665   5.393   6.020   6.651 -0.0265 -0.1991  0.1671
 5703SOL    HW121666   5.379   5.998   6.743 -1.2958  0.2770  0.1119
 5703SOL    HW221667   5.306   6.014   6.612  0.5743 -0.9316 -1.1363
 5704SOL     OW21668  11.786  10.618   9.405  0.3032  0.1543  0.4493
 5704SOL    HW121669  11.805  10.706   9.372 -2.1369 -0.0568 -1.8725
 5704SOL    HW221670  11.726  10.633   9.478 -0.9843  0.4813 -0.6205
 5705SOL     OW21671   9.682   4.042  11.996 -0.2571  0.1901 -0.2256
 5705SOL    HW121672   9.655   3.952  12.015  0.6882  0.0961  0.7605
 5705SOL    HW221673   9.775   4.043  12.016 -0.8435  2.2593  3.2408
 5706SOL     OW21674  11.256  10.709   9.614 -0.5080  0.3499 -0.2694
 5706SOL    HW121675  11.167  10.684   9.590 -0.1800 -0.3686 -0.7763
 5706SOL    HW221676  11.253  10.724   9.708 -1.0647 -0.1167 -0.2130
 5707SOL     OW21677   2.187   0.453  11.133  0.3753  0.3830  0.3804
 5707SOL    HW121678   2.247   0.491  11.198  0.9053 -1.7762  1.2477
 5707SOL    HW221679   2.106   0.502  11.145  1.4264  2.2085  0.3933
 5708SOL     OW21680  10.478   9.968  11.831 -0.4166  0.4364  0.4490
 5708SOL    HW121681  10.455  10.044  11.778  2.1781  0.4002 -0.9062
 5708SOL    HW221682  10.401   9.911  11.826 -0.4544  0.5677 -3.1151
 5709SOL     OW21683  11.527   3.537   4.001 -0.2515 -0.0308  0.2447
 5709SOL    HW121684  11.477   3.589   3.938 -0.2594  0.0140  0.2881
 5709SOL    HW221685  11.461   3.492   4.053 -0.2746  0.8104  0.9671
 5710SOL     OW21686   7.936   8.105   6.735 -0.0120  0.1901 -0.7940
 5710SOL    HW121687   7.934   8.105   6.830 -0.7684  0.5623 -0.8059
 5710SOL    HW221688   8.019   8.148   6.712  0.0212  0.3840 -0.3105
 5711SOL     OW21689   0.294   7.675   1.168  0.1981  0.8531  0.0457
 5711SOL    HW121690   0.375   7.673   1.118 -0.4416  0.4897 -1.0060
 5711SOL    HW221691   0.238   7.609   1.127 -0.9891  1.7831  0.1092
 5712SOL     OW21692   7.329   6.720   1.863 -0.2563  0.0324  0.6424
 5712SOL    HW121693   7.341   6.643   1.919 -1.3947 -0.7951 -0.1916
 5712SOL    HW221694   7.238   6.713   1.833  0.1716  0.7125 -0.9029
 5713SOL     OW21695   4.846   6.379  10.269  0.3265  0.1081  0.2879
 5713SOL    HW121696   4.773   6.386  10.330  0.7493  1.6396  0.6749
 5713SOL    HW221697   4.923   6.400  10.321  0.6334  2.0671 -0.8467
 5714SOL     OW21698   7.741   5.346  11.489 -0.1334  0.2067 -0.0076
 5714SOL    HW121699   7.759   5.253  11.474  0.7438  0.4090 -0.2907
 5714SOL    HW221700   7.822   5.390  11.463 -0.0655  0.9383  1.3346
 5715SOL     OW21701   6.523   3.540   3.844 -0.4824 -0.0816  0.0745
 5715SOL    HW121702   6.551   3.467   3.788  1.6121 -0.3804  1.3750
 5715SOL    HW221703   6.459   3.501   3.903 -1.4987 -0.1500 -1.0372
 5716SOL     OW21704   6.783  12.059   1.410 -0.6091 -0.2906  0.0753
 5716SOL    HW121705   6.800  12.029   1.500 -1.5829 -2.1344 -0.3006
 5716SOL    HW221706   6.869  12.087   1.378 -0.1919  0.1352  1.4731
 5717SOL     OW21707   0.032  10.369  11.040 -0.5139 -0.4057 -0.3337
 5717SOL    HW121708   0.047  10.409  10.954  0.6243  0.2254  0.1370
 5717SOL    HW221709  -0.040  10.307  11.025 -0.4997 -0.1376 -1.6809
 5718SOL     OW21710   1.122   2.072   3.670  0.2433  0.0554 -0.4545
 5718SOL    HW121711   1.178   2.149   3.680  1.1129 -0.5388 -0.6350
 5718SOL    HW221712   1.033   2.105   3.685  0.6879  0.8985  0.4672
 5719SOL     OW21713   7.809   7.365   5.299 -0.0255  0.0193 -0.0191
 5719SOL    HW121714   7.874   7.364   5.370 -0.5762 -3.3456  0.6514
 5719SOL    HW221715   7.735   7.414   5.335  0.7736  0.7689  0.6335
 5720SOL     OW21716   1.496   2.751   5.677  0.7490 -0.2934  0.0229
 5720SOL    HW121717   1.578   2.706   5.699  1.8878  0.6335 -2.0887
 5720SOL    HW221718   1.444   2.685   5.631  0.6275 -0.6237  0.6098
 5721SOL     OW21719   4.731  11.746   5.242  0.4255 -0.2683  0.0267
 5721SOL    HW121720   4.699  11.660   5.217 -0.7695  0.1734 -0.0153
 5721SOL    HW221721   4.724  11.799   5.163 -1.7138  0.6562  0.7512
 5722SOL     OW21722   1.291  10.437  10.934  0.0212  0.1466  0.4774
 5722SOL    HW121723   1.274  10.523  10.973  0.0075  0.1059  0.5626
 5722SOL    HW221724   1.220  10.424  10.872  1.3235  1.2669 -1.3567
 5723SOL     OW21725   0.648   7.888   9.824 -0.2576 -0.0063 -0.2034
 5723SOL    HW121726   0.561   7.917   9.851 -0.3287 -0.7838  0.4497
 5723SOL    HW221727   0.661   7.805   9.870  0.6839 -0.0810 -0.5776
 5724SOL     OW21728   8.739   6.840   6.863  0.0721 -0.4564  0.2682
 5724SOL    HW121729   8.814   6.820   6.806  1.4144 -2.6010  2.5970
 5724SOL    HW221730   8.773   6.905   6.924 -0.3577 -0.5460  0.5988
 5725SOL     OW21731   8.357   7.648   5.292 -0.4435  0.5762  0.5817
 5725SOL    HW121732   8.441   7.619   5.326 -0.6791  0.3489  0.9760
 5725SOL    HW221733   8.358   7.743   5.302  0.1684  0.6827 -0.3436
 5726SOL     OW21734   4.697   9.694   1.714 -0.4304 -0.3042 -0.3365
 5726SOL    HW121735   4.749   9.729   1.642 -0.9968 -0.3693 -0.7870
 5726SOL    HW221736   4.749   9.712   1.792 -1.3460  3.0011 -0.3108
 5727SOL     OW21737   6.657   9.634   3.255 -0.6757  0.2163  0.2883
 5727SOL    HW121738   6.595   9.694   3.297 -0.0734 -0.4592  2.2867
 5727SOL    HW221739   6.714   9.605   3.327  1.3607  0.0757 -1.2970
 5728SOL     OW21740   8.351   4.330   2.920  0.1685  0.1053 -0.6118
 5728SOL    HW121741   8.300   4.317   2.840 -0.7224  0.4409 -0.1131
 5728SOL    HW221742   8.292   4.302   2.991  0.6205  0.6427 -0.0110
 5729SOL     OW21743  12.023   5.644   7.071  0.0623  0.1732 -0.2862
 5729SOL    HW121744  11.928   5.641   7.080 -0.0011 -0.0346 -0.9521
 5729SOL    HW221745  12.053   5.558   7.101  0.0618  0.3168  0.1314
 5730SOL     OW21746   2.903   9.544   4.884  0.2091  0.3423  0.0652
 5730SOL    HW121747   2.991   9.519   4.855  0.4201  2.9078 -1.8038
 5730SOL    HW221748   2.846   9.517   4.812 -0.5010 -0.7647  1.0075
 5731SOL     OW21749   4.153   3.605   3.355 -0.2852 -0.1739  0.7738
 5731SOL    HW121750   4.183   3.590   3.444 -0.7425  2.6900  1.5141
 5731SOL    HW221751   4.233   3.618   3.305  0.0226 -2.7289  0.4741
 5732SOL     OW21752   6.651   0.476  11.854 -0.2695  0.0766 -0.0068
 5732SOL    HW121753   6.731   0.512  11.816  0.3652  0.6990  1.7984
 5732SOL    HW221754   6.639   0.526  11.935 -0.5909 -2.2793  1.4950
 5733SOL     OW21755   1.567   3.039   1.316 -0.1493 -0.3311  0.3609
 5733SOL    HW121756   1.557   2.989   1.235  1.3896 -1.0907  0.6061
 5733SOL    HW221757   1.656   3.020   1.345 -0.5504  0.2225  2.0479
 5734SOL     OW21758   5.850   7.735   0.293  0.4973  0.2564 -0.2216
 5734SOL    HW121759   5.772   7.768   0.339  0.1169 -0.3517 -0.4100
 5734SOL    HW221760   5.876   7.657   0.343  1.0636  0.5267 -0.0877
 5735SOL     OW21761  11.045   8.044   9.262  0.2102  0.0623  0.0606
 5735SOL    HW121762  11.100   8.120   9.245 -1.0274  0.6309 -1.7861
 5735SOL    HW221763  11.039   8.000   9.177 -0.4823 -1.1486  0.7056
 5736SOL     OW21764   2.918   9.521   0.361 -0.0316 -0.1444  0.5136
 5736SOL    HW121765   2.993   9.561   0.316 -1.0102  0.0961 -0.9690
 5736SOL    HW221766   2.854   9.592   0.368 -1.6365 -1.2404 -1.8035
 5737SOL     OW21767  12.020   1.864   6.707 -0.1805  0.2365  0.3181
 5737SOL    HW121768  11.952   1.858   6.641  1.3143  0.9969 -1.3901
 5737SOL    HW221769  12.069   1.943   6.684  2.0855 -0.9809  0.6251
 5738SOL     OW21770   1.751  11.923   1.083 -0.3663 -0.1289  0.0417
 5738SOL    HW121771   1.842  11.913   1.055  0.3080 -0.5599  2.2235
 5738SOL    HW221772   1.748  12.010   1.122 -0.8340 -0.2150  0.1973
 5739SOL     OW21773   4.806   3.621  11.135  0.4257  0.1338  0.0544
 5739SOL    HW121774   4.756   3.606  11.055  0.5088 -2.3232  0.3866
 5739SOL    HW221775   4.862   3.544  11.143  1.2308  0.8428  1.9027
 5740SOL     OW21776   6.126   7.991  11.705  0.6504  0.1544 -0.1026
 5740SOL    HW121777   6.166   8.032  11.781  1.5423  0.6849 -0.8318
 5740SOL    HW221778   6.057   8.053  11.678  1.0699  0.5149 -0.3710
 5741SOL     OW21779   4.040   3.488   9.078 -0.1511 -0.9102 -0.3991
 5741SOL    HW121780   3.990   3.458   9.002  0.7319 -0.1284 -1.3190
 5741SOL    HW221781   4.112   3.426   9.087 -0.9739 -1.7588  0.6320
 5742SOL     OW21782  10.240   0.545  12.055 -0.1125  0.6519 -0.0792
 5742SOL    HW121783  10.261   0.590  11.973  0.1717  1.6180  0.4988
 5742SOL    HW221784  10.218   0.616  12.116  2.3827  0.1952  1.4849
 5743SOL     OW21785   7.700   2.535   7.782  0.1267 -0.5874  0.5154
 5743SOL    HW121786   7.649   2.454   7.770  1.3493 -1.5177  1.3537
 5743SOL    HW221787   7.728   2.559   7.694 -2.0940  0.2146 -0.0356
 5744SOL     OW21788   3.171   9.399   9.779  0.3425 -0.0585  0.3275
 5744SOL    HW121789   3.120   9.431   9.853  2.4646  1.7328  1.1212
 5744SOL    HW221790   3.165   9.469   9.714 -1.5143 -1.6157 -1.3227
 5745SOL     OW21791   2.109   2.765   5.690 -0.3748 -0.3904 -0.0549
 5745SOL    HW121792   2.136   2.674   5.685 -0.6864 -0.5218  0.5155
 5745SOL    HW221793   2.130   2.791   5.779  1.0171  0.5279 -0.6230
 5746SOL     OW21794   9.988  10.204   1.322  0.2361 -0.5072  0.4978
 5746SOL    HW121795   9.912  10.241   1.277  1.2642  0.7948 -0.2621
 5746SOL    HW221796   9.958  10.189   1.411 -0.9433 -0.1184  0.1865
 5747SOL     OW21797   6.794   3.130   7.789  0.3077 -0.4824  0.3887
 5747SOL    HW121798   6.717   3.158   7.739  1.0567 -0.9841 -1.1202
 5747SOL    HW221799   6.762   3.118   7.878 -1.1168  0.3493  0.0208
 5748SOL     OW21800   5.024   6.074   7.408  0.0560 -0.8080  0.1717
 5748SOL    HW121801   5.054   6.026   7.330  0.1624 -0.3419 -0.0807
 5748SOL    HW221802   5.039   6.166   7.386 -2.6937 -0.4444 -0.4552
 5749SOL     OW21803   4.364   3.702  10.468  0.0196 -0.2672  0.5229
 5749SOL    HW121804   4.419   3.686  10.544 -0.5287  0.3107  1.0511
 5749SOL    HW221805   4.278   3.724  10.504 -0.7873 -1.8877 -0.3015
 5750SOL     OW21806   4.857   6.964   9.516 -0.5470 -0.3326  0.0942
 5750SOL    HW121807   4.833   6.983   9.606  2.6762 -0.8782  1.1798
 5750SOL    HW221808   4.876   7.050   9.478 -1.6126 -0.1304 -0.0183
 5751SOL     OW21809   3.710  11.553   9.017  0.0919 -0.9207 -0.2372
 5751SOL    HW121810   3.699  11.464   8.982 -1.0776 -0.0319 -2.3309
 5751SOL    HW221811   3.781  11.590   8.965 -2.1183  0.6527 -2.3830
 5752SOL     OW21812   7.542   6.853   1.715 -0.4021 -0.2113  0.0216
 5752SOL    HW121813   7.469   6.830   1.773  0.3053 -1.6616  0.3516
 5752SOL    HW221814   7.612   6.793   1.738  0.6688  0.6656 -0.8184
 5753SOL     OW21815   0.512   4.806  10.200  0.3394  0.4144  0.5793
 5753SOL    HW121816   0.501   4.844  10.287  2.0246  0.6103  0.7324
 5753SOL    HW221817   0.587   4.853  10.162 -0.9535  1.0316 -1.3853
 5754SOL     OW21818   9.615   5.613   8.065  0.0345 -0.5454 -0.4493
 5754SOL    HW121819   9.564   5.680   8.019  1.9565  0.6458 -0.9519
 5754SOL    HW221820   9.570   5.531   8.045 -3.0160  0.6218  1.0402
 5755SOL     OW21821  11.693  10.827   6.146 -0.1162 -0.0968 -0.0610
 5755SOL    HW121822  11.606  10.794   6.166  0.4313 -0.0110  2.9876
 5755SOL    HW221823  11.678  10.915   6.113 -1.2273  1.5003  4.0801
 5756SOL     OW21824   7.325   3.820  10.988 -0.6200 -0.4353  0.3467
 5756SOL    HW121825   7.353   3.729  10.977 -0.6845 -0.2595 -1.6604
 5756SOL    HW221826   7.396   3.862  11.036  1.0420 -0.7828 -1.6803
 5757SOL     OW21827  10.426   0.569   6.553  0.1484  0.1860 -0.3791
 5757SOL    HW121828  10.433   0.595   6.461  0.5127  0.2095 -0.3500
 5757SOL    HW221829  10.436   0.651   6.601  0.3765  0.1194 -0.3106
 5758SOL     OW21830   1.188   1.459   3.846 -0.0184 -0.1141 -0.0717
 5758SOL    HW121831   1.242   1.397   3.896  0.1026  0.6749  0.7947
 5758SOL    HW221832   1.251   1.511   3.796 -0.1963 -1.9372 -2.3630
 5759SOL     OW21833   6.120   2.637   4.348 -0.6848 -0.8636 -0.3981
 5759SOL    HW121834   6.158   2.640   4.260 -1.3405 -0.5479 -0.6751
 5759SOL    HW221835   6.068   2.557   4.349 -0.8440 -0.7610 -0.3706
 5760SOL     OW21836   0.136   8.595   0.317  0.1517 -0.1010  0.2116
 5760SOL    HW121837   0.102   8.508   0.295 -0.5926  0.0225  0.8109
 5760SOL    HW221838   0.173   8.585   0.405 -0.1791  0.2458  0.3944
 5761SOL     OW21839  11.798  11.517   8.257 -0.0072 -0.4462 -0.1953
 5761SOL    HW121840  11.741  11.554   8.190 -0.8278 -1.2128  0.0525
 5761SOL    HW221841  11.814  11.589   8.319 -0.0458 -0.0074 -0.6941
 5762SOL     OW21842   6.258   1.778   2.154  0.0703 -0.6012 -0.0657
 5762SOL    HW121843   6.351   1.765   2.174 -0.1032  0.3273  1.4621
 5762SOL    HW221844   6.230   1.847   2.213 -1.9106 -1.6885  0.3568
 5763SOL     OW21845   9.658   6.793  11.610  0.4715 -0.1647 -0.2642
 5763SOL    HW121846   9.632   6.848  11.684 -0.4588 -0.6704 -0.2002
 5763SOL    HW221847   9.749   6.770  11.629  0.7355  0.9717 -0.0671
 5764SOL     OW21848  11.598   8.166  12.018  0.2107 -0.5099 -0.1062
 5764SOL    HW121849  11.619   8.208  11.935  0.8568 -0.2772  0.1767
 5764SOL    HW221850  11.637   8.222  12.085 -0.9822 -0.2586  0.4134
 5765SOL     OW21851   3.330   5.457   5.036  0.2610  0.6528 -0.2502
 5765SOL    HW121852   3.295   5.535   5.080  1.6474  1.0949  0.1235
 5765SOL    HW221853   3.295   5.384   5.086 -0.4769  1.0518 -0.1660
 5766SOL     OW21854   2.249  11.767  10.608 -0.2603  0.3163 -0.1734
 5766SOL    HW121855   2.199  11.720  10.541  0.6844  1.4327 -1.7239
 5766SOL    HW221856   2.203  11.850  10.619  0.9165  1.1433 -1.2467
 5767SOL     OW21857   2.473  10.858   9.543  0.5466 -0.0825  0.2261
 5767SOL    HW121858   2.482  10.833   9.451 -0.2505 -0.1342  0.1503
 5767SOL    HW221859   2.427  10.784   9.584  0.6309  0.0684  0.5983
 5768SOL     OW21860   9.591   1.274   9.112  0.8995  0.5087  0.2534
 5768SOL    HW121861   9.630   1.311   9.191 -0.2208 -1.0136  1.5848
 5768SOL    HW221862   9.497   1.289   9.121  0.6511 -0.5952 -0.2823
 5769SOL     OW21863   8.937   7.220   8.259 -0.1847 -0.1932  0.1882
 5769SOL    HW121864   8.856   7.229   8.209 -0.2532  2.3136  0.6113
 5769SOL    HW221865   8.910   7.229   8.350  0.2718 -2.1613  0.5706
 5770SOL     OW21866   9.754   8.116   5.532 -0.5178  0.9827  0.1162
 5770SOL    HW121867   9.789   8.202   5.506  0.7110  0.8816  1.3249
 5770SOL    HW221868   9.784   8.056   5.464 -1.9628  1.5940 -1.1069
 5771SOL     OW21869   4.886   0.140   8.430 -0.3158 -0.3589  0.3459
 5771SOL    HW121870   4.893   0.071   8.364 -1.0019  0.6784 -0.8602
 5771SOL    HW221871   4.932   0.106   8.506 -1.4351 -2.5459  0.1223
 5772SOL     OW21872   6.471   1.698   5.593 -0.4626  0.0938  0.5492
 5772SOL    HW121873   6.548   1.755   5.596 -0.4967  0.1243  0.8063
 5772SOL    HW221874   6.502   1.618   5.549 -0.7222  0.7837 -0.9473
 5773SOL     OW21875   7.921   4.950   6.837 -0.4020 -0.0656 -0.4016
 5773SOL    HW121876   7.909   5.044   6.826 -1.6506 -0.2293 -0.5873
 5773SOL    HW221877   7.855   4.924   6.902  0.5676 -0.6679  0.3854
 5774SOL     OW21878   7.026   9.026   8.627  0.0827  0.5747  0.1167
 5774SOL    HW121879   7.083   8.950   8.622  0.9132  1.2304 -0.4412
 5774SOL    HW221880   7.011   9.051   8.536 -0.1658  1.0976  0.3003
 5775SOL     OW21881   9.262  11.321   4.417  0.1746 -0.0270 -0.8010
 5775SOL    HW121882   9.174  11.283   4.411 -0.0380  0.2072  0.5097
 5775SOL    HW221883   9.279  11.356   4.330 -1.1282  0.1062 -1.0188
 5776SOL     OW21884  10.230   4.108   5.527  0.1051 -0.4234 -0.1281
 5776SOL    HW121885  10.221   4.068   5.614  2.2413  0.1916  0.4232
 5776SOL    HW221886  10.280   4.044   5.477 -0.4037 -0.4045 -0.6664
 5777SOL     OW21887   6.591   1.117   8.282 -0.3755  0.3037 -0.5263
 5777SOL    HW121888   6.581   1.026   8.251 -0.3529  0.4569 -0.9926
 5777SOL    HW221889   6.684   1.136   8.270 -0.2869  0.2299  0.0252
 5778SOL     OW21890   3.291   5.326   8.858 -0.2971 -0.0953  0.2736
 5778SOL    HW121891   3.237   5.368   8.791 -2.0098 -0.8221  1.1392
 5778SOL    HW221892   3.353   5.394   8.884 -0.6164  0.6953 -0.9235
 5779SOL     OW21893   0.435   9.897   6.205  0.6188  0.2030 -0.0307
 5779SOL    HW121894   0.395   9.968   6.156  2.1560 -0.0064 -1.6839
 5779SOL    HW221895   0.381   9.889   6.284 -1.2316  1.3242 -1.1208
 5780SOL     OW21896   8.354   8.480   2.793  0.4184  0.2757  0.4635
 5780SOL    HW121897   8.429   8.494   2.851  0.3419  1.6757  0.2681
 5780SOL    HW221898   8.322   8.568   2.773  1.5444  0.0374 -3.1701
 5781SOL     OW21899   8.278   7.656   1.078 -0.0561  0.0765  0.1114
 5781SOL    HW121900   8.276   7.598   1.154  1.2377 -0.2684 -0.0875
 5781SOL    HW221901   8.363   7.638   1.037 -1.0560 -0.3730 -1.9068
 5782SOL     OW21902   5.533   4.246   2.106  0.4681 -0.0892 -0.4570
 5782SOL    HW121903   5.562   4.333   2.078  0.1919 -1.1098 -4.6616
 5782SOL    HW221904   5.611   4.191   2.099 -0.1813 -0.8925 -1.8936
 5783SOL     OW21905   8.694   6.271  11.648  0.0846  0.6996  0.1265
 5783SOL    HW121906   8.638   6.340  11.611 -0.7875  0.2805  0.6328
 5783SOL    HW221907   8.698   6.204  11.580  2.2947  1.9147 -1.0549
 5784SOL     OW21908  11.263   1.572   0.405  0.2191 -0.0149 -0.0427
 5784SOL    HW121909  11.325   1.519   0.455 -0.8545 -0.6187  0.7004
 5784SOL    HW221910  11.201   1.605   0.470 -0.0775  0.8112 -0.7253
 5785SOL     OW21911   6.716   7.452  10.597  0.6558 -0.2005 -0.5858
 5785SOL    HW121912   6.695   7.360  10.577  0.5127 -0.1436 -0.6973
 5785SOL    HW221913   6.810   7.451  10.616  0.4831 -0.5284  0.3203
 5786SOL     OW21914   4.329   5.550   5.820  0.2042 -0.0622 -0.6228
 5786SOL    HW121915   4.372   5.540   5.735 -2.4327 -1.4124 -1.9343
 5786SOL    HW221916   4.250   5.496   5.813 -1.3593  1.7028  1.8228
 5787SOL     OW21917   5.693  10.125   8.776 -0.1327  0.1814  0.1583
 5787SOL    HW121918   5.778  10.136   8.820 -0.3085  1.0542  0.2977
 5787SOL    HW221919   5.629  10.124   8.847 -0.0686 -3.4459  0.3401
 5788SOL     OW21920   7.922   6.504   1.807  0.1588 -0.1662 -0.6947
 5788SOL    HW121921   7.935   6.467   1.719  1.0249  1.6390 -1.3761
 5788SOL    HW221922   8.009   6.500   1.847 -0.1188 -0.4512 -0.1139
 5789SOL     OW21923  11.334  11.569   2.668 -0.2453 -0.1909  0.1243
 5789SOL    HW121924  11.363  11.626   2.597 -1.0382  0.8334  0.5948
 5789SOL    HW221925  11.382  11.488   2.654  1.2537  0.7226 -0.3149
 5790SOL     OW21926   2.228   4.786   9.660 -0.3159  0.2685 -0.0319
 5790SOL    HW121927   2.221   4.864   9.714  1.0850  1.1310 -1.0166
 5790SOL    HW221928   2.319   4.757   9.672 -0.7322 -1.0595  0.0993
 5791SOL     OW21929   9.522   5.947   0.630 -0.2200 -0.7869 -0.4016
 5791SOL    HW121930   9.586   5.981   0.692 -1.0644 -1.5659  0.9586
 5791SOL    HW221931   9.565   5.870   0.592 -0.5504 -1.6826  0.9746
 5792SOL     OW21932   2.511   9.743   9.633  0.3102 -0.3701  0.1555
 5792SOL    HW121933   2.469   9.802   9.696 -0.7416  1.7343 -2.3617
 5792SOL    HW221934   2.575   9.694   9.686 -1.8653 -0.2166  3.2121
 5793SOL     OW21935   2.118   8.180   5.763 -0.4632  0.4113 -0.8636
 5793SOL    HW121936   2.096   8.088   5.778 -1.7511  0.7683 -0.4507
 5793SOL    HW221937   2.190   8.177   5.700  0.8674 -0.9234  0.6551
 5794SOL     OW21938   7.854   3.522   7.152 -0.0287 -0.2221 -0.7042
 5794SOL    HW121939   7.948   3.508   7.164 -0.1223 -1.1771 -0.9925
 5794SOL    HW221940   7.840   3.613   7.177  1.0186  0.0122 -0.9115
 5795SOL     OW21941   4.936   0.273  11.161 -0.4707  0.3121  0.0918
 5795SOL    HW121942   5.027   0.245  11.173 -0.8575  0.1705  3.7568
 5795SOL    HW221943   4.890   0.193  11.137 -0.2427 -0.6467  2.5513
 5796SOL     OW21944   5.621   2.854   7.573 -0.3203 -0.3724  0.1409
 5796SOL    HW121945   5.633   2.793   7.645  3.0882 -0.8709 -0.6377
 5796SOL    HW221946   5.526   2.865   7.565 -0.9508 -3.1877  2.2509
 5797SOL     OW21947   9.442  10.378   6.096 -0.2034  0.2225 -0.4051
 5797SOL    HW121948   9.456  10.370   6.001 -1.2300 -0.0430 -0.5439
 5797SOL    HW221949   9.468  10.293   6.131  0.9423  0.5811 -0.3332
 5798SOL     OW21950   9.434   0.853   2.155  0.6390  0.8506 -0.7945
 5798SOL    HW121951   9.412   0.943   2.131  0.8769  2.1702  3.1911
 5798SOL    HW221952   9.517   0.837   2.111  0.8689  2.8208 -1.1938
 5799SOL     OW21953   6.122   9.164   6.136 -0.3688  0.2232 -0.1849
 5799SOL    HW121954   6.204   9.193   6.176  0.2598  1.2122 -2.0640
 5799SOL    HW221955   6.056   9.224   6.172 -0.0288  0.3609  0.2260
 5800SOL     OW21956   3.110   2.629   2.513 -0.1359 -0.3298 -0.0389
 5800SOL    HW121957   3.192   2.619   2.464  0.1175 -1.5491  0.6048
 5800SOL    HW221958   3.061   2.694   2.463  1.5726  1.1039  0.0312
 5801SOL     OW21959  10.138   9.906   0.983 -0.4662 -0.3200 -0.1435
 5801SOL    HW121960  10.116   9.999   0.987 -0.5469 -0.3670  1.4252
 5801SOL    HW221961  10.055   9.861   0.995 -0.4035 -0.5979 -0.7300
 5802SOL     OW21962   2.609   4.252  10.678 -0.2214  0.1158  0.0831
 5802SOL    HW121963   2.656   4.170  10.671 -1.3203 -0.5376  0.0729
 5802SOL    HW221964   2.517   4.226  10.689 -0.8868  1.3457 -2.0457
 5803SOL     OW21965   7.137   5.457   8.318  0.0914  0.1455  0.3390
 5803SOL    HW121966   7.208   5.511   8.284  0.9479 -0.1642  1.5537
 5803SOL    HW221967   7.065   5.518   8.332  0.6572  0.7696  0.5894
 5804SOL     OW21968   6.732   6.096   2.507  0.2039  0.1988 -0.0671
 5804SOL    HW121969   6.662   6.032   2.517  1.2049 -0.9760 -0.3573
 5804SOL    HW221970   6.727   6.149   2.587 -0.4076 -0.4811  0.3588
 5805SOL     OW21971   1.169  11.617   5.028 -0.4505  0.1732 -0.9800
 5805SOL    HW121972   1.255  11.576   5.034 -1.8400 -2.7503  2.1387
 5805SOL    HW221973   1.133  11.587   4.945  0.6257 -0.5609 -1.1925
 5806SOL     OW21974  11.317   1.214   2.166 -0.0842  0.0140  0.2295
 5806SOL    HW121975  11.247   1.270   2.200 -0.0801  0.2821 -0.2016
 5806SOL    HW221976  11.398   1.256   2.195  0.0051  1.4525 -1.8784
 5807SOL     OW21977   1.193   7.962   5.764  1.0669 -0.2273 -0.7637
 5807SOL    HW121978   1.178   7.915   5.682  1.1127  0.1730 -1.0041
 5807SOL    HW221979   1.162   7.902   5.832 -0.9830  0.2741 -1.1948
 5808SOL     OW21980   3.023   5.645   8.971 -0.0893  0.3404  0.1986
 5808SOL    HW121981   3.106   5.656   9.016 -0.0667 -0.4089  0.3603
 5808SOL    HW221982   3.006   5.729   8.930 -0.6325  1.4387  2.4778
 5809SOL     OW21983   7.696   7.308   8.245  0.1757 -0.1194  0.6761
 5809SOL    HW121984   7.634   7.376   8.219 -0.4522 -1.2811 -1.0783
 5809SOL    HW221985   7.782   7.350   8.239  0.0144  0.0698 -2.5446
 5810SOL     OW21986   0.548  10.557   5.560 -0.0066  0.2477  0.9622
 5810SOL    HW121987   0.467  10.542   5.510  1.4766 -0.5217 -1.3348
 5810SOL    HW221988   0.551  10.652   5.574 -1.2467  0.2948  1.0176
 5811SOL     OW21989   2.492   6.199   2.235  0.2327  0.3039 -0.5585
 5811SOL    HW121990   2.528   6.142   2.303  1.0980  0.6146 -0.7469
 5811SOL    HW221991   2.441   6.264   2.284 -2.6587 -1.8216 -0.4194
 5812SOL     OW21992  10.873   2.844   2.063 -0.6096  0.5065  0.8338
 5812SOL    HW121993  10.823   2.864   1.984  2.3446 -0.4378 -1.4517
 5812SOL    HW221994  10.897   2.930   2.099 -0.1380  1.0064 -0.6076
 5813SOL     OW21995   7.912   0.934   4.620  0.1887  0.2601 -0.1107
 5813SOL    HW121996   7.895   0.847   4.657 -0.3661  0.2199 -0.4446
 5813SOL    HW221997   7.826   0.965   4.593  0.6097  0.1432 -1.6866
 5814SOL     OW21998  11.465   7.367   8.944  0.0052  0.8160  0.4387
 5814SOL    HW121999  11.428   7.304   9.006 -0.3195  2.5558  2.1225
 5814SOL    HW222000  11.549   7.329   8.918 -0.3320 -0.4606  1.1235
 5815SOL     OW22001   8.884  11.552   5.315  0.7286 -0.3685  0.7229
 5815SOL    HW122002   8.945  11.626   5.314 -0.0842  0.3260  1.1295
 5815SOL    HW222003   8.838  11.559   5.231 -0.8518  0.9086  1.6339
 5816SOL     OW22004   0.613   3.302   6.204 -0.4382 -0.3589 -0.0691
 5816SOL    HW122005   0.671   3.297   6.128  1.2557 -0.5326  1.1697
 5816SOL    HW222006   0.613   3.213   6.239 -1.9152 -0.4858 -0.3504
 5817SOL     OW22007  10.803   0.882   0.298  0.1742  0.1002  0.3582
 5817SOL    HW122008  10.887   0.915   0.330  0.3219  0.0273  0.0592
 5817SOL    HW222009  10.789   0.800   0.347  0.5922 -0.2173 -0.0422
 5818SOL     OW22010   0.271   1.907   7.256  0.1813 -0.2104  0.2397
 5818SOL    HW122011   0.283   1.922   7.349  2.6237 -0.6343  0.0619
 5818SOL    HW222012   0.187   1.949   7.235  1.0104  2.6057  2.0249
 5819SOL     OW22013   5.334   9.516   2.775  0.5568  0.1777  0.0204
 5819SOL    HW122014   5.412   9.555   2.815  1.2368  1.3306 -2.2819
 5819SOL    HW222015   5.294   9.588   2.726 -0.6937 -0.9761 -0.6996
 5820SOL     OW22016   4.077   3.964   9.549  0.1016  0.1824 -0.2543
 5820SOL    HW122017   4.120   4.050   9.554  1.3297 -0.2385 -2.2767
 5820SOL    HW222018   3.983   3.984   9.551  0.3590  1.6318 -1.0311
 5821SOL     OW22019   5.667   5.425   1.227  0.2589  0.4247  0.2735
 5821SOL    HW122020   5.732   5.373   1.180 -1.7424 -1.8909 -0.0918
 5821SOL    HW222021   5.715   5.460   1.302  2.1548 -0.3213 -0.5102
 5822SOL     OW22022   8.610   7.106   3.644 -0.2867  0.3049 -0.1797
 5822SOL    HW122023   8.586   7.055   3.722 -1.3523  0.7721 -0.1771
 5822SOL    HW222024   8.548   7.076   3.577  0.1525  0.4259 -0.6379
 5823SOL     OW22025   7.127   0.531   7.463  0.0567 -0.2020  0.7881
 5823SOL    HW122026   7.132   0.548   7.369  1.2158  1.3733  1.1010
 5823SOL    HW222027   7.160   0.441   7.473 -1.5383 -0.9770 -0.4255
 5824SOL     OW22028   5.373   4.249   0.381  0.6006  0.0771  0.2024
 5824SOL    HW122029   5.378   4.250   0.285  2.2085  0.1333  0.2594
 5824SOL    HW222030   5.280   4.260   0.400  0.1241 -0.8194 -1.3609
 5825SOL     OW22031   2.356   3.213   3.287 -0.2223 -0.6369 -0.5600
 5825SOL    HW122032   2.284   3.211   3.224 -0.5476 -0.2843 -0.2067
 5825SOL    HW222033   2.424   3.265   3.244 -0.0673 -1.1974 -1.0048
 5826SOL     OW22034  11.134   5.237   6.617  0.4354 -0.0629  0.4013
 5826SOL    HW122035  11.043   5.219   6.641  0.8284 -0.3175  1.8121
 5826SOL    HW222036  11.184   5.164   6.655  1.1876 -0.1734 -0.7483
 5827SOL     OW22037   7.028   1.064   6.454 -0.1276  0.4131 -0.2117
 5827SOL    HW122038   7.116   1.098   6.469 -0.0005 -0.3259  0.8407
 5827SOL    HW222039   6.989   1.125   6.391 -0.2455  3.0462  2.2117
 5828SOL     OW22040   3.809   8.693   7.873  0.3104 -0.0532  0.3514
 5828SOL    HW122041   3.747   8.621   7.883 -2.1907  2.1775  2.4050
 5828SOL    HW222042   3.835   8.689   7.781 -1.3620 -2.2801 -0.1190
 5829SOL     OW22043   6.060   3.545   8.849 -0.3954 -0.4875 -0.0100
 5829SOL    HW122044   6.074   3.510   8.761 -0.6499 -0.5142 -0.0379
 5829SOL    HW222045   6.108   3.484   8.906 -0.8646 -0.9029 -0.0566
 5830SOL     OW22046   6.516  11.887  11.909  0.1872  0.7708 -0.1983
 5830SOL    HW122047   6.497  11.884  12.003 -0.6562 -1.1777 -0.3786
 5830SOL    HW222048   6.611  11.903  11.904  0.3390  0.3557  1.0071
 5831SOL     OW22049   8.656   4.751   5.941 -0.3904 -0.1636 -0.0124
 5831SOL    HW122050   8.576   4.702   5.921 -2.0593  2.4763 -0.4731
 5831SOL    HW222051   8.627   4.818   6.003  1.5014  0.8063 -0.1268
 5832SOL     OW22052   8.608   4.460   6.411  0.0646  0.3092  0.4382
 5832SOL    HW122053   8.623   4.532   6.471  0.8113  0.8803 -0.4059
 5832SOL    HW222054   8.585   4.386   6.467 -0.3560  1.1028  1.3373
 5833SOL     OW22055   5.784   2.390   7.889  0.7875 -0.3934 -0.2303
 5833SOL    HW122056   5.745   2.418   7.972  0.3528  2.7508 -1.3489
 5833SOL    HW222057   5.878   2.407   7.900  0.8877 -1.0250 -0.0445
 5834SOL     OW22058   2.011   8.228   6.381 -0.5655 -0.3504  0.5678
 5834SOL    HW122059   2.001   8.133   6.391 -0.5181 -0.5517 -1.0919
 5834SOL    HW222060   1.983   8.246   6.292  3.5368  0.5271 -0.7638
 5835SOL     OW22061   4.002  11.025   0.304  0.4491  0.0042  0.1545
 5835SOL    HW122062   4.076  11.081   0.280  0.6168 -1.1429 -2.4615
 5835SOL    HW222063   4.043  10.946   0.340  0.5336 -0.3637 -0.6969
 5836SOL     OW22064  11.731   2.297   8.533 -0.0760 -0.2574 -0.0061
 5836SOL    HW122065  11.792   2.357   8.575 -0.9379  1.2974 -0.8653
 5836SOL    HW222066  11.678   2.262   8.604  0.2274  0.2775  0.4936
 5837SOL     OW22067   7.522  10.131   8.730 -0.1597 -0.1592 -0.0159
 5837SOL    HW122068   7.518  10.174   8.815  1.5626  1.5702 -0.7269
 5837SOL    HW222069   7.478  10.192   8.670 -3.0419 -2.1880 -0.1783
 5838SOL     OW22070   2.710   7.832   2.369  0.2973  0.0133  0.3837
 5838SOL    HW122071   2.708   7.850   2.463 -1.9684  0.8963  0.2313
 5838SOL    HW222072   2.739   7.741   2.362  1.9573  0.3713  1.8036
 5839SOL     OW22073   6.418   8.620   9.744 -0.0090  0.4241 -0.3903
 5839SOL    HW122074   6.369   8.658   9.817 -1.0873  0.1152 -0.9291
 5839SOL    HW222075   6.463   8.694   9.705  1.3898  0.4467  1.1695
 5840SOL     OW22076   7.607   3.768   3.123 -0.5857 -0.3487 -0.5925
 5840SOL    HW122077   7.578   3.847   3.169  0.5127 -0.6106  0.5921
 5840SOL    HW222078   7.664   3.800   3.053  0.0286 -0.1009  0.0176
 5841SOL     OW22079   7.684   6.128   9.626  0.3437 -0.7987 -0.6666
 5841SOL    HW122080   7.669   6.062   9.694 -0.2959 -1.3713 -1.3557
 5841SOL    HW222081   7.762   6.174   9.656  2.4997 -3.6231 -1.4730
 5842SOL     OW22082   6.119   7.776   8.582 -0.2705  0.4012 -0.4079
 5842SOL    HW122083   6.064   7.846   8.548 -0.1153  0.6504 -0.1461
 5842SOL    HW222084   6.193   7.772   8.521  0.1084  0.9821 -0.0042
 5843SOL     OW22085  12.043   5.925   7.800  0.3913 -0.6128 -0.5050
 5843SOL    HW122086  11.953   5.948   7.823  0.8818  0.0452  0.8821
 5843SOL    HW222087  12.046   5.830   7.803 -0.5031 -0.6862 -1.5827
 5844SOL     OW22088   4.165   4.622   3.236  0.2100  0.1158  0.2055
 5844SOL    HW122089   4.230   4.579   3.181  0.3903  3.3402 -2.4188
 5844SOL    HW222090   4.081   4.602   3.195  0.3014  2.1088 -1.0770
 5845SOL     OW22091  11.000   8.036  10.896  0.0366  0.2074  0.0363
 5845SOL    HW122092  11.052   7.979  10.839  1.1726 -0.0395  1.2658
 5845SOL    HW222093  11.001   8.121  10.852  0.4355 -0.1044 -0.5723
 5846SOL     OW22094   0.420   3.365   7.674  0.0619  0.0773 -0.2315
 5846SOL    HW122095   0.409   3.458   7.691  0.7556  0.1886 -0.3605
 5846SOL    HW222096   0.396   3.322   7.755  1.7127  0.4949  0.5205
 5847SOL     OW22097  10.022   1.928  10.721 -0.4390  0.1268  0.2950
 5847SOL    HW122098   9.949   1.866  10.719  0.0232 -0.4175  0.0168
 5847SOL    HW222099   9.980   2.013  10.730 -1.2685  0.0945 -2.4213
 5848SOL     OW22100   3.196   1.568   2.134  0.3378  0.0516 -0.6545
 5848SOL    HW122101   3.149   1.528   2.061  0.7924  1.6828 -1.8914
 5848SOL    HW222102   3.144   1.545   2.211 -0.7354 -0.8194 -1.6059
 5849SOL     OW22103   3.411   0.435  11.976  0.4532  0.6398 -0.2984
 5849SOL    HW122104   3.334   0.491  11.972 -0.7535 -0.9031  0.4107
 5849SOL    HW222105   3.467   0.465  11.904 -0.3689  2.3829 -0.2552
 5850SOL     OW22106   1.605   5.599   9.380  0.1359 -0.4907 -0.3118
 5850SOL    HW122107   1.641   5.543   9.312 -2.2378 -1.7389 -0.6283
 5850SOL    HW222108   1.577   5.678   9.334 -0.4675 -0.8782 -0.6257
 5851SOL     OW22109  10.912  11.351   6.809 -0.0862  0.0056  0.4922
 5851SOL    HW122110  10.864  11.302   6.875 -0.4055  0.2459  0.4381
 5851SOL    HW222111  10.893  11.305   6.727  0.5076 -0.4418  0.5929
 5852SOL     OW22112   6.491   4.992   5.248  0.0574 -0.6815 -0.0580
 5852SOL    HW122113   6.481   5.016   5.156  0.0445  0.6780  0.2690
 5852SOL    HW222114   6.522   5.072   5.290 -0.2052 -1.1984  1.1651
 5853SOL     OW22115   7.493  10.704   2.239 -0.2800  0.1363  0.5494
 5853SOL    HW122116   7.535  10.678   2.320  0.2085  1.7851  0.8576
 5853SOL    HW222117   7.558  10.759   2.195 -1.5140  1.4456  0.3050
 5854SOL     OW22118   2.429   8.206  10.288 -0.4401 -0.3344  0.0662
 5854SOL    HW122119   2.476   8.126  10.312  1.3721  0.3598 -0.9710
 5854SOL    HW222120   2.473   8.275  10.337 -0.6100  0.2945 -0.6528
 5855SOL     OW22121   7.791   7.661   7.728  0.0036 -0.4245 -0.2300
 5855SOL    HW122122   7.775   7.577   7.772 -2.8532  0.1764  0.0889
 5855SOL    HW222123   7.755   7.649   7.640  1.1633 -0.0406 -0.7719
 5856SOL     OW22124   7.111   2.031   3.204 -0.0632 -0.3696 -0.0245
 5856SOL    HW122125   7.071   2.103   3.157 -2.4117 -1.8345 -0.4257
 5856SOL    HW222126   7.117   1.960   3.139 -0.0590 -1.2856  0.9381
 5857SOL     OW22127   7.047   7.295   2.420  0.2496 -0.5373 -0.2790
 5857SOL    HW122128   6.973   7.293   2.360  1.6817  0.7178 -2.2149
 5857SOL    HW222129   7.022   7.359   2.487 -1.4899 -2.1735  0.7195
 5858SOL     OW22130   9.300   5.867  11.926 -0.0842 -0.1199  0.1537
 5858SOL    HW122131   9.316   5.782  11.968 -2.1379 -1.0210 -0.7101
 5858SOL    HW222132   9.385   5.894  11.892  0.5904 -1.9773  0.2328
 5859SOL     OW22133   1.118  11.680   0.285 -0.1162 -0.0257  0.1105
 5859SOL    HW122134   1.096  11.587   0.282  0.4857 -0.2108  0.9375
 5859SOL    HW222135   1.066  11.715   0.358 -0.8363  0.4359 -0.6084
 5860SOL     OW22136   6.551   8.677   7.331 -0.5886 -0.4066 -0.4203
 5860SOL    HW122137   6.558   8.750   7.392 -0.1308 -1.8151  1.2964
 5860SOL    HW222138   6.638   8.669   7.292 -0.2981 -0.7518  0.2809
 5861SOL     OW22139   6.642   6.672   2.461 -0.2093 -0.4271 -0.0253
 5861SOL    HW122140   6.690   6.735   2.407  2.9876 -1.3284  1.5371
 5861SOL    HW222141   6.571   6.641   2.404  1.5198  0.3951 -2.8452
 5862SOL     OW22142  10.231   9.360   7.475  0.1066 -0.1246 -0.7771
 5862SOL    HW122143  10.310   9.313   7.449 -0.5136 -0.4495 -2.1920
 5862SOL    HW222144  10.248   9.451   7.449  0.5380  0.0794  0.1778
 5863SOL     OW22145   1.663   3.174   9.928 -0.1011  0.1213 -0.1175
 5863SOL    HW122146   1.593   3.133   9.876  0.2529  0.1780 -0.6412
 5863SOL    HW222147   1.676   3.260   9.887 -0.3718  0.4999  0.5620
 5864SOL     OW22148   8.866   7.266   6.471 -0.4091 -0.7776  1.2037
 5864SOL    HW122149   8.839   7.175   6.459 -1.1391 -0.6203  1.6072
 5864SOL    HW222150   8.785   7.316   6.467  0.1899  0.1816 -1.7884
 5865SOL     OW22151  11.877   9.019   1.885  0.1591  0.0638 -0.0335
 5865SOL    HW122152  11.958   9.006   1.934  0.2831  0.5852 -0.0941
 5865SOL    HW222153  11.849   8.931   1.860  0.4151 -0.1603  0.4587
 5866SOL     OW22154   2.245   7.711   3.969 -0.2704 -0.2877  0.1813
 5866SOL    HW122155   2.150   7.697   3.975 -0.3623 -0.4062 -1.1373
 5866SOL    HW222156   2.263   7.704   3.875  0.6663  2.0572  0.1215
 5867SOL     OW22157   9.473   6.985   0.319  0.4410  0.4239  0.3605
 5867SOL    HW122158   9.383   6.953   0.325  0.6148  0.0005  0.8538
 5867SOL    HW222159   9.507   6.976   0.408  0.8943  0.8155  0.2324
 5868SOL     OW22160   9.358   3.051   2.913 -0.3499 -0.2309  0.3510
 5868SOL    HW122161   9.440   3.066   2.959  1.0823 -1.2228 -1.7088
 5868SOL    HW222162   9.324   2.970   2.950  0.9772 -1.2247 -0.5230
 5869SOL     OW22163   7.409  11.242   8.348  0.1822  0.2252  0.1626
 5869SOL    HW122164   7.424  11.158   8.390  0.9509  0.8997  1.3082
 5869SOL    HW222165   7.497  11.275   8.327 -0.1628  0.1934 -1.4274
 5870SOL     OW22166   5.991   8.579   0.013  0.0425  0.6136 -0.5888
 5870SOL    HW122167   6.020   8.668   0.031  3.2924 -0.2623 -0.7862
 5870SOL    HW222168   6.024   8.527   0.087 -1.5808 -0.4938 -0.5867
 5871SOL     OW22169   9.649   6.090   1.154 -0.5536  0.1850 -0.1519
 5871SOL    HW122170   9.626   6.050   1.237  0.1371  1.7485  0.8380
 5871SOL    HW222171   9.567   6.126   1.120 -0.5099  1.3291  0.8907
 5872SOL     OW22172  10.428   0.157   8.016 -0.0408 -0.2472 -0.1432
 5872SOL    HW122173  10.351   0.214   8.019 -0.8679 -1.3364  0.1350
 5872SOL    HW222174  10.493   0.200   8.071  0.1703  1.5299 -1.6606
 5873SOL     OW22175  10.758   7.230   8.933  0.1578  0.1617  0.0614
 5873SOL    HW122176  10.671   7.192   8.939  1.3174 -2.8478 -0.6800
 5873SOL    HW222177  10.758   7.277   8.849 -0.8375  0.4791  0.2312
 5874SOL     OW22178   6.668   8.813   6.997 -0.0635 -0.6005 -0.3478
 5874SOL    HW122179   6.673   8.731   6.947 -1.5154  0.0745 -1.6646
 5874SOL    HW222180   6.575   8.835   6.999  0.4160  1.8166 -1.3663
 5875SOL     OW22181   8.501   0.020  10.871 -0.2953 -0.0271 -0.0974
 5875SOL    HW122182   8.444   0.080  10.920 -0.0173 -0.1309  0.3536
 5875SOL    HW222183   8.576   0.074  10.846 -1.0321  0.3738 -1.5454
 5876SOL     OW22184   1.270   4.534   6.030  0.0494  0.4313  0.3560
 5876SOL    HW122185   1.269   4.559   6.122  1.1777  1.0403  0.2232
 5876SOL    HW222186   1.361   4.545   6.003 -0.5769  2.0770 -1.3240
 5877SOL     OW22187  10.479   6.715   6.256 -0.6308 -0.7352  0.3368
 5877SOL    HW122188  10.406   6.759   6.299  0.6663  1.0601  0.8255
 5877SOL    HW222189  10.550   6.717   6.321  0.6244 -0.0910 -0.9838
 5878SOL     OW22190   3.485   8.677   5.584 -0.0270  0.3722  0.0753
 5878SOL    HW122191   3.551   8.608   5.574 -0.1194  0.2041  0.6000
 5878SOL    HW222192   3.426   8.665   5.509 -0.2966 -0.3981  0.3945
 5879SOL     OW22193   0.625   6.212   2.930  0.1991  0.7207  0.6489
 5879SOL    HW122194   0.568   6.192   2.856  0.3631 -0.3596  0.8032
 5879SOL    HW222195   0.579   6.175   3.006  0.5879  0.7961  0.9222
 5880SOL     OW22196   9.943   4.285   4.687  0.2625  0.3387 -0.1690
 5880SOL    HW122197   9.861   4.315   4.724 -0.2433 -0.4889 -0.5751
 5880SOL    HW222198   9.918   4.210   4.632  1.3747 -0.4303  0.3337
 5881SOL     OW22199   4.894   5.988   8.602  0.3578 -0.0844 -0.5174
 5881SOL    HW122200   4.821   5.934   8.629  0.1292  0.1459 -0.6690
 5881SOL    HW222201   4.937   5.938   8.533 -0.1780  0.1656 -1.0436
 5882SOL     OW22202   8.997   2.965   1.803  0.2467 -0.6141  0.1667
 5882SOL    HW122203   9.047   3.033   1.849 -0.6035  0.7761 -0.9042
 5882SOL    HW222204   8.930   2.937   1.866  0.5768 -0.4542  0.5964
 5883SOL     OW22205   6.208  11.009   0.091  0.3324 -0.0740  0.4860
 5883SOL    HW122206   6.166  10.967   0.016  0.5591  0.7317 -0.1068
 5883SOL    HW222207   6.147  10.997   0.163 -0.0147 -0.6169  0.1057
 5884SOL     OW22208   2.515  12.117   8.987 -0.0710  0.0727  0.0896
 5884SOL    HW122209   2.547  12.204   8.964 -1.3942  0.8672  1.1177
 5884SOL    HW222210   2.472  12.085   8.907 -0.1062  0.6167 -0.1127
 5885SOL     OW22211   1.225   8.321  10.931 -0.2122 -0.3550 -0.3428
 5885SOL    HW122212   1.275   8.240  10.935 -2.8995 -2.1360 -0.9377
 5885SOL    HW222213   1.247   8.358  10.845  0.2154 -0.9985 -0.5169
 5886SOL     OW22214  10.089   4.638   0.906 -0.6028 -0.1657  0.5118
 5886SOL    HW122215  10.032   4.615   0.979 -1.5025 -1.7570 -0.6404
 5886SOL    HW222216  10.059   4.583   0.833  1.1969  0.3155 -0.6625
 5887SOL     OW22217   4.244  10.764   4.590  0.3167  0.4157  0.3235
 5887SOL    HW122218   4.170  10.705   4.573 -1.3119  2.0774  1.2531
 5887SOL    HW222219   4.293  10.720   4.660 -0.1213 -0.4267  0.1223
 5888SOL     OW22220   0.816   2.439  10.801 -0.4886  1.1399 -0.1125
 5888SOL    HW122221   0.785   2.528  10.819 -2.5363  0.5519 -0.5769
 5888SOL    HW222222   0.763   2.383  10.857  1.9786  0.2609  1.5416
 5889SOL     OW22223   8.148   7.393   9.156  0.1268 -0.3492  0.6570
 5889SOL    HW122224   8.208   7.413   9.227  0.3402 -0.5400  0.5321
 5889SOL    HW222225   8.128   7.300   9.167  1.5754 -0.8572 -0.5758
 5890SOL     OW22226  11.154  10.172   9.135  0.3763  0.0781 -0.1479
 5890SOL    HW122227  11.119  10.199   9.051  1.0191  0.8541 -0.1824
 5890SOL    HW222228  11.091  10.108   9.169 -1.2319  1.6562 -0.0459
 5891SOL     OW22229  10.208  11.787   5.282  0.0370  0.1633 -0.2280
 5891SOL    HW122230  10.139  11.846   5.253 -0.8583  0.3681  2.1556
 5891SOL    HW222231  10.253  11.834   5.352  1.8444 -0.4589 -0.9074
 5892SOL     OW22232   5.540  11.345   9.952  0.2338  0.2249 -0.3304
 5892SOL    HW122233   5.456  11.306   9.931 -0.1626  1.0940 -0.4190
 5892SOL    HW222234   5.580  11.363   9.867  0.5859 -0.3385 -0.2883
 5893SOL     OW22235  10.304   6.040   4.548  0.2639  0.0965  0.3362
 5893SOL    HW122236  10.336   6.031   4.637  1.8178  2.6047  0.1338
 5893SOL    HW222237  10.363   6.104   4.508 -0.7454 -0.5159 -2.3248
 5894SOL     OW22238   1.772   2.812   2.253  0.4655  0.1226 -0.7902
 5894SOL    HW122239   1.867   2.826   2.254  0.7031 -1.2331 -1.7997
 5894SOL    HW222240   1.753   2.781   2.164 -1.0573  1.1238 -0.8502
 5895SOL     OW22241   4.113  11.367   9.549 -0.0610  0.0253  0.1952
 5895SOL    HW122242   4.104  11.319   9.631  0.0724  0.7172  0.6160
 5895SOL    HW222243   4.059  11.318   9.487  1.4892 -1.7443  0.1334
 5896SOL     OW22244   0.685   6.612   6.602  0.8767  0.1015  0.3420
 5896SOL    HW122245   0.706   6.524   6.570 -0.8118 -0.6559  1.1783
 5896SOL    HW222246   0.664   6.662   6.523  2.8532  0.1041 -0.2455
 5897SOL     OW22247   5.481  10.500   3.771  0.5736  0.3777  0.3623
 5897SOL    HW122248   5.411  10.455   3.725  0.7584 -0.2830  0.7079
 5897SOL    HW222249   5.544  10.431   3.792  1.1418  0.8940  0.4009
 5898SOL     OW22250  11.774   0.513   9.599 -0.2813 -0.1695  0.4970
 5898SOL    HW122251  11.686   0.507   9.560 -0.0360  2.4905 -0.7147
 5898SOL    HW222252  11.833   0.488   9.528 -0.0010  0.1051  0.6314
 5899SOL     OW22253   8.747   5.544  12.035  0.5299  0.1018 -0.2002
 5899SOL    HW122254   8.769   5.618  12.092  0.1463 -0.8126  1.1634
 5899SOL    HW222255   8.652   5.535  12.043  0.5429 -0.3970 -0.5485
 5900SOL     OW22256   0.373   7.924   6.110 -0.0691 -0.3091  0.5605
 5900SOL    HW122257   0.418   7.888   6.186 -1.9732 -1.1590  1.3319
 5900SOL    HW222258   0.316   7.854   6.080  0.0486  0.2951 -1.1774
 5901SOL     OW22259  11.827  11.812   9.228  0.0972 -0.2938  0.1474
 5901SOL    HW122260  11.866  11.896   9.254  0.4175 -0.2071 -0.5794
 5901SOL    HW222261  11.754  11.799   9.289  1.9445 -1.0505  2.3526
 5902SOL     OW22262   1.204   9.073   9.004  0.1738 -0.0240  0.1825
 5902SOL    HW122263   1.156   9.068   9.087  1.4752  0.0721  0.9768
 5902SOL    HW222264   1.291   9.039   9.025  0.5599  0.1049 -1.1274
 5903SOL     OW22265   1.055  11.197   1.745  0.2550 -0.6488  0.1607
 5903SOL    HW122266   1.098  11.216   1.828  1.9547  1.3741 -1.0890
 5903SOL    HW222267   1.077  11.105   1.728 -2.3984 -2.0022  3.1237
 5904SOL     OW22268   1.352   0.244   5.347 -0.3960 -0.3037 -0.1626
 5904SOL    HW122269   1.427   0.277   5.397  1.8969 -2.8905 -1.5728
 5904SOL    HW222270   1.352   0.150   5.364 -1.4868 -0.7971 -2.4758
 5905SOL     OW22271   5.193   0.240   4.389 -0.3164 -0.3098 -0.4785
 5905SOL    HW122272   5.226   0.212   4.304 -0.1270 -0.3265 -0.4006
 5905SOL    HW222273   5.108   0.196   4.398 -0.5345  0.0405 -0.8469
 5906SOL     OW22274   5.909  10.952   3.543  0.1197 -0.7605  0.5117
 5906SOL    HW122275   5.868  10.903   3.472 -0.2156 -1.3060  1.0756
 5906SOL    HW222276   5.901  11.044   3.516  0.2688 -0.9775 -0.2937
 5907SOL     OW22277  10.269  10.896   6.582  0.5099 -0.1348  0.1770
 5907SOL    HW122278  10.236  10.887   6.493  0.5245 -0.7687  0.2328
 5907SOL    HW222279  10.294  10.808   6.608  2.2920  0.3123  0.1256
 5908SOL     OW22280  11.826   6.282   4.114  0.1040 -0.4880 -0.1189
 5908SOL    HW122281  11.800   6.369   4.143  2.5315  0.2184  0.2059
 5908SOL    HW222282  11.865   6.241   4.191 -0.3482 -1.5899 -0.4576
 5909SOL     OW22283   7.188   6.107   5.702  0.1920  0.3377  0.0687
 5909SOL    HW122284   7.151   6.114   5.614 -2.0165 -1.8247  0.7026
 5909SOL    HW222285   7.112   6.112   5.760  1.5819  1.6463  1.8878
 5910SOL     OW22286   1.415   0.922   0.844  0.1756 -0.0577  0.2489
 5910SOL    HW122287   1.399   0.829   0.825  0.6713  0.2928 -2.1429
 5910SOL    HW222288   1.341   0.968   0.804  0.7174  0.6787  0.0685
 5911SOL     OW22289   0.242   7.344   7.714  1.0645 -0.6092  0.4373
 5911SOL    HW122290   0.266   7.436   7.726  1.1550 -0.7390  1.2817
 5911SOL    HW222291   0.325   7.297   7.717  1.3052 -0.5308 -2.3023
 5912SOL     OW22292   5.356   3.304   9.747 -0.7364 -0.0349  0.0878
 5912SOL    HW122293   5.365   3.350   9.830 -2.4645  0.0419  0.2612
 5912SOL    HW222294   5.315   3.368   9.689  0.9339  0.0943 -1.0291
 5913SOL     OW22295  11.457   2.427   5.228 -0.2148  0.1512 -0.8270
 5913SOL    HW122296  11.511   2.357   5.192 -0.0176 -0.1964  0.0943
 5913SOL    HW222297  11.367   2.403   5.204 -0.1954 -0.6782 -0.1385
 5914SOL     OW22298   5.060   3.416   0.424 -0.1842  0.2439 -0.0659
 5914SOL    HW122299   4.979   3.370   0.446 -0.1287 -0.7986 -1.8275
 5914SOL    HW222300   5.128   3.348   0.430  0.1748  0.5169 -0.9324
 5915SOL     OW22301   8.639   1.009   6.795  0.3332 -0.2265 -0.6261
 5915SOL    HW122302   8.612   0.920   6.815 -0.9140  0.0645 -0.9207
 5915SOL    HW222303   8.590   1.032   6.716 -2.0951  1.9100  1.3211
 5916SOL     OW22304   8.948   1.917   8.095 -0.6261  0.0823  1.1522
 5916SOL    HW122305   8.863   1.921   8.139 -0.0447  0.1126  2.3056
 5916SOL    HW222306   8.960   2.005   8.059 -1.1319  0.0412  0.8711
 5917SOL     OW22307   2.486   1.642   1.349 -0.4248  0.6944 -0.1983
 5917SOL    HW122308   2.526   1.559   1.322 -1.9399  0.1363 -0.8637
 5917SOL    HW222309   2.526   1.661   1.434 -0.1501 -0.8070  0.0390
 5918SOL     OW22310  11.220   4.764   5.334 -0.6856  0.3847 -0.1956
 5918SOL    HW122311  11.241   4.792   5.424 -0.2205 -1.1306  0.1946
 5918SOL    HW222312  11.296   4.713   5.307 -0.2826  1.8161 -1.9295
 5919SOL     OW22313   1.869   3.247   8.502 -0.0937  0.2366  0.0514
 5919SOL    HW122314   1.875   3.339   8.478 -0.1731  0.0119 -0.8685
 5919SOL    HW222315   1.934   3.204   8.447  1.9104  0.0756  2.3841
 5920SOL     OW22316   8.407   0.608   4.909  0.2110  0.0476 -0.1890
 5920SOL    HW122317   8.447   0.665   4.843  0.3518 -1.4029 -1.4171
 5920SOL    HW222318   8.350   0.665   4.959 -0.0699  1.1652 -1.7358
 5921SOL     OW22319   9.635   7.074   1.504 -0.4248  0.2833  0.2422
 5921SOL    HW122320   9.728   7.097   1.510  0.2128 -1.9922 -0.2006
 5921SOL    HW222321   9.591   7.144   1.553  1.7137  0.1339  2.6052
 5922SOL     OW22322   7.505   2.547   9.974  0.0312 -0.0239 -0.0097
 5922SOL    HW122323   7.464   2.530  10.059  0.8415  0.8807  0.5924
 5922SOL    HW222324   7.481   2.472   9.920 -0.0652 -0.8785  1.1795
 5923SOL     OW22325   6.692   6.190   1.282  0.5111 -0.3266 -0.1480
 5923SOL    HW122326   6.776   6.146   1.270 -0.2864 -1.4444 -2.2237
 5923SOL    HW222327   6.715   6.281   1.299  2.1521 -1.0349  1.8331
 5924SOL     OW22328   8.507  11.310   6.538 -0.0730  0.3230  0.3274
 5924SOL    HW122329   8.589  11.267   6.515  0.2035  0.7880  0.4477
 5924SOL    HW222330   8.439  11.253   6.500  0.3629  1.0095 -1.5605
 5925SOL     OW22331   1.227   7.252  10.634 -0.0819 -0.6350  0.2253
 5925SOL    HW122332   1.145   7.294  10.605  0.0184 -0.1665  0.6130
 5925SOL    HW222333   1.290   7.323  10.638  0.1532 -0.8642  0.6696
 5926SOL     OW22334  10.875   6.889   8.007 -0.2728 -0.5688 -0.5361
 5926SOL    HW122335  10.936   6.825   8.043 -0.5536 -1.4021 -1.5007
 5926SOL    HW222336  10.928   6.939   7.945 -0.0725  0.1007  0.1616
 5927SOL     OW22337   5.836   8.905   4.931  0.8102 -0.1738 -0.1838
 5927SOL    HW122338   5.842   8.932   5.023 -0.4968  0.8686 -0.3819
 5927SOL    HW222339   5.920   8.930   4.893  1.1743 -0.1550  0.6113
 5928SOL     OW22340   9.076   0.244   2.412  0.0654 -0.1391 -0.0133
 5928SOL    HW122341   9.069   0.328   2.366  1.0904 -0.3669 -0.6189
 5928SOL    HW222342   8.986   0.218   2.428 -0.2817  1.8856  1.7023
 5929SOL     OW22343   5.614   7.974   0.766 -0.2939 -0.2227 -0.3105
 5929SOL    HW122344   5.604   7.944   0.856  1.2470 -1.5142 -0.5095
 5929SOL    HW222345   5.629   8.068   0.773  0.6386 -0.4326  0.8808
 5930SOL     OW22346   2.415   2.759   9.919  0.6340  0.4143  0.1440
 5930SOL    HW122347   2.347   2.726   9.978 -0.3091  0.2928 -0.9575
 5930SOL    HW222348   2.379   2.842   9.887  0.8990  0.2468 -0.6111
 5931SOL     OW22349   1.159   4.306   0.384 -0.4163 -0.5427 -0.2237
 5931SOL    HW122350   1.076   4.309   0.431 -2.1343 -1.9029 -2.9342
 5931SOL    HW222351   1.189   4.215   0.394  0.7822 -0.0654  0.7241
 5932SOL     OW22352   1.008  11.099   2.347 -0.1230  0.4045  0.1518
 5932SOL    HW122353   0.918  11.107   2.378  0.3214  0.6533  1.4193
 5932SOL    HW222354   1.000  11.050   2.265 -1.4914  1.2324 -0.2430
 5933SOL     OW22355  11.139   6.067  11.189  0.4355 -0.9003  0.3726
 5933SOL    HW122356  11.199   6.010  11.142 -0.5877 -0.6087 -1.3744
 5933SOL    HW222357  11.190   6.146  11.207  0.7128 -0.8309 -0.6758
 5934SOL     OW22358   6.191   4.036  11.087  0.1172 -0.1587  0.3070
 5934SOL    HW122359   6.233   4.120  11.075 -0.0647 -0.3313 -1.9364
 5934SOL    HW222360   6.263   3.974  11.099  0.5618 -0.3001 -2.5014
 5935SOL     OW22361   0.496   2.375   3.510  0.1839 -0.5586 -0.4872
 5935SOL    HW122362   0.469   2.308   3.446  0.9845 -1.2968 -0.0729
 5935SOL    HW222363   0.415   2.421   3.531 -0.4776 -1.7055 -0.4408
 5936SOL     OW22364   2.769   2.548   5.589  0.2459 -0.3340  0.2988
 5936SOL    HW122365   2.681   2.565   5.621  1.0031  1.8642  1.4233
 5936SOL    HW222366   2.786   2.457   5.612 -1.8327 -0.9398 -0.3144
 5937SOL     OW22367  10.940   9.171   7.107 -0.0263  0.1917 -0.2252
 5937SOL    HW122368  10.956   9.214   7.023 -1.6314  1.8928  0.2824
 5937SOL    HW222369  10.878   9.101   7.086 -1.9497  1.8059 -0.2565
 5938SOL     OW22370   3.549   6.079   3.081  0.5225  0.0687  0.1138
 5938SOL    HW122371   3.548   6.174   3.073  0.9028  0.0286 -0.4415
 5938SOL    HW222372   3.456   6.054   3.079  0.4054  0.4473  0.5758
 5939SOL     OW22373  11.661   3.511   2.393  0.1355 -0.4790  0.3428
 5939SOL    HW122374  11.733   3.514   2.457  0.8158 -0.3099 -0.4165
 5939SOL    HW222375  11.691   3.566   2.321 -1.3162  0.6373  0.5514
 5940SOL     OW22376   5.262   3.670   7.536  0.0702  0.3134  0.2334
 5940SOL    HW122377   5.215   3.747   7.503  0.7451 -0.1591 -1.9498
 5940SOL    HW222378   5.207   3.596   7.512  1.6010 -0.2090 -1.9180
 5941SOL     OW22379   9.461   0.583   5.228  0.1934 -0.8577  0.2056
 5941SOL    HW122380   9.373   0.561   5.257 -0.9072  1.2560 -1.2200
 5941SOL    HW222381   9.489   0.653   5.287  0.8457 -1.3435  0.4917
 5942SOL     OW22382   5.583   7.122   9.247 -0.8070  0.3292 -0.4197
 5942SOL    HW122383   5.533   7.066   9.187 -1.0966  0.2457 -0.1063
 5942SOL    HW222384   5.633   7.060   9.300 -0.5439  0.4032 -0.5819
 5943SOL     OW22385   0.476  10.252  11.620 -0.3110 -0.1186 -0.3416
 5943SOL    HW122386   0.566  10.247  11.588 -1.3234 -0.0499 -3.5165
 5943SOL    HW222387   0.436  10.170  11.591 -1.4825  0.1945  0.3412
 5944SOL     OW22388   8.957   1.500   7.288 -0.4582 -0.3045 -0.0633
 5944SOL    HW122389   8.889   1.521   7.353 -0.0561 -0.9123  0.5684
 5944SOL    HW222390   9.022   1.449   7.337 -0.0759 -0.6488 -0.9129
 5945SOL     OW22391   7.064   0.989   4.144 -0.0677 -0.4410  0.2169
 5945SOL    HW122392   6.988   0.931   4.149  1.0975 -2.1742 -0.7271
 5945SOL    HW222393   7.092   0.984   4.052 -0.4813  2.4704 -0.1538
 5946SOL     OW22394   2.675   1.732  10.947 -0.2078  0.0342  0.1875
 5946SOL    HW122395   2.720   1.739  10.863  0.7241  0.9933  0.7445
 5946SOL    HW222396   2.657   1.822  10.973 -1.9398 -0.3071  0.2783
 5947SOL     OW22397   4.848   9.809   1.533 -0.1868 -0.1029  0.3461
 5947SOL    HW122398   4.901   9.743   1.488  1.1184  0.1800  1.4070
 5947SOL    HW222399   4.908   9.882   1.547 -0.4873 -0.2316  2.6366
 5948SOL     OW22400   7.904   4.830   0.469 -0.4961 -0.6237 -0.5915
 5948SOL    HW122401   7.990   4.858   0.500 -0.6445 -2.7859  2.1515
 5948SOL    HW222402   7.917   4.810   0.377  0.8146  3.1287 -1.4073
 5949SOL     OW22403   6.048   7.442   5.662 -0.3956  0.4268 -0.1200
 5949SOL    HW122404   6.041   7.468   5.570  4.0845 -4.1254 -2.1994
 5949SOL    HW222405   6.004   7.357   5.666  2.7124 -1.2763  0.7585
 5950SOL     OW22406  10.258   7.549   4.401  0.5985 -0.0574 -0.1224
 5950SOL    HW122407  10.245   7.536   4.307  1.6924  0.4412 -0.3652
 5950SOL    HW222408  10.238   7.465   4.440 -0.3275 -0.1434 -0.7481
 5951SOL     OW22409   4.830   2.400  12.000 -0.0460 -0.3263  0.2011
 5951SOL    HW122410   4.815   2.305  11.993  0.6474 -0.6487  2.2861
 5951SOL    HW222411   4.753   2.439  11.959  0.2004 -1.7475 -1.7739
 5952SOL     OW22412   4.536   5.595   7.565 -0.5765  0.1672  0.2075
 5952SOL    HW122413   4.447   5.607   7.531 -0.8071  0.1541  0.7936
 5952SOL    HW222414   4.563   5.683   7.593 -0.9652 -0.0641  1.3628
 5953SOL     OW22415   8.495   3.954   6.122  0.5635  0.0327 -0.1224
 5953SOL    HW122416   8.511   3.859   6.123  0.1210 -0.0602 -0.8237
 5953SOL    HW222417   8.412   3.964   6.075 -0.0181  0.6981  1.0094
 5954SOL     OW22418   1.479   1.659   3.026 -0.1403  0.0483  0.2749
 5954SOL    HW122419   1.509   1.737   3.073 -0.2041 -0.0568  0.4937
 5954SOL    HW222420   1.421   1.693   2.958 -0.7502  0.1462  0.8311
 5955SOL     OW22421   2.255   0.763  10.732 -0.0401  0.1102  0.0462
 5955SOL    HW122422   2.221   0.677  10.757 -3.1401  1.9811  3.1462
 5955SOL    HW222423   2.209   0.784  10.651 -1.1343 -0.2481  0.5463
 5956SOL     OW22424   3.359   8.293   2.787 -0.2232  0.4005 -0.1765
 5956SOL    HW122425   3.271   8.264   2.813 -0.7309 -0.8327 -2.9793
 5956SOL    HW222426   3.397   8.328   2.868 -2.1517 -1.8083  1.8296
 5957SOL     OW22427   2.079   3.552   2.299 -0.0478 -0.7186 -0.0362
 5957SOL    HW122428   2.099   3.620   2.364  0.3066 -0.1895 -0.6802
 5957SOL    HW222429   2.100   3.470   2.344 -0.4478 -0.4098  0.7455
 5958SOL     OW22430   1.674   2.214  12.105 -0.3549 -0.2211 -0.3585
 5958SOL    HW122431   1.610   2.153  12.070  0.4749  0.2843 -2.9892
 5958SOL    HW222432   1.745   2.214  12.041  1.0231  1.2670  1.0701
 5959SOL     OW22433   8.151   2.483   6.454  0.0907  0.2182 -0.0613
 5959SOL    HW122434   8.113   2.422   6.518 -1.7577  0.1906 -1.1255
 5959SOL    HW222435   8.244   2.486   6.477 -0.4282 -0.0760  2.3822
 5960SOL     OW22436  10.111  11.064   1.489  0.4343  0.1148 -0.2289
 5960SOL    HW122437  10.128  11.150   1.527 -0.2903  0.5645 -0.8867
 5960SOL    HW222438  10.028  11.075   1.442  0.4446 -0.8852 -0.4931
 5961SOL     OW22439   3.202   0.908   1.095  0.1697 -0.3414 -0.4727
 5961SOL    HW122440   3.144   0.912   1.172 -0.5911 -0.8382 -1.0096
 5961SOL    HW222441   3.172   0.831   1.047  2.3029 -1.5908  0.0397
 5962SOL     OW22442   9.565   5.505   7.255 -0.3153  0.2806  0.1867
 5962SOL    HW122443   9.521   5.542   7.332  0.7667  0.1810  0.8672
 5962SOL    HW222444   9.655   5.536   7.261 -0.3323  0.6937 -1.3352
 5963SOL     OW22445   2.424   0.515  10.831  0.1337 -0.1634  0.1223
 5963SOL    HW122446   2.455   0.548  10.916 -1.2097  2.1282 -0.1806
 5963SOL    HW222447   2.334   0.489  10.847  0.3828 -1.3512 -0.2719
 5964SOL     OW22448   6.321  10.346   4.058 -0.4547  0.5914  0.6662
 5964SOL    HW122449   6.407  10.307   4.071 -0.3778  0.4331 -0.2171
 5964SOL    HW222450   6.276  10.334   4.141 -0.5977 -1.8447  0.3165
 5965SOL     OW22451   7.815  10.590  11.073 -0.3468 -0.0473 -0.2742
 5965SOL    HW122452   7.807  10.684  11.083 -1.4472 -0.2225  0.7356
 5965SOL    HW222453   7.904  10.576  11.041  0.5608  1.2131  1.5440
 5966SOL     OW22454   8.711   6.413   5.135 -0.2167 -0.3753 -0.1222
 5966SOL    HW122455   8.715   6.318   5.120 -0.2501 -0.2131 -1.2221
 5966SOL    HW222456   8.800   6.436   5.162  0.3560 -0.4265 -1.8231
 5967SOL     OW22457   9.834   9.994   6.332 -0.7400 -0.1695 -0.4367
 5967SOL    HW122458   9.868   9.958   6.250  1.1619  2.7439 -1.0555
 5967SOL    HW222459   9.904  10.049   6.366 -2.0150 -0.1340  2.4486
 5968SOL     OW22460   1.716  10.850   7.217 -0.3929  0.1912 -0.0782
 5968SOL    HW122461   1.690  10.792   7.289 -0.7489  0.9138  0.4001
 5968SOL    HW222462   1.637  10.902   7.199  0.2142  1.2748  0.2600
 5969SOL     OW22463   3.466   7.782   0.372  0.1398  0.2489 -0.1418
 5969SOL    HW122464   3.401   7.719   0.404  0.0838  0.2333 -0.2889
 5969SOL    HW222465   3.509   7.813   0.452 -0.1066  0.3258 -0.0366
 5970SOL     OW22466   2.661  10.851   9.968  0.0124 -0.1658  0.5419
 5970SOL    HW122467   2.687  10.943   9.960 -1.3047  0.2128  0.3536
 5970SOL    HW222468   2.588  10.852  10.030 -0.5002 -0.9736 -0.0241
 5971SOL     OW22469   9.763  11.333   3.098 -0.3887  0.0643  0.0600
 5971SOL    HW122470   9.712  11.408   3.067  1.8397  1.5896 -0.1394
 5971SOL    HW222471   9.805  11.364   3.178  0.7858 -0.8617 -0.1706
 5972SOL     OW22472   8.007   0.060  11.621 -0.3381 -0.5767  0.3102
 5972SOL    HW122473   7.965  -0.002  11.562 -1.2552 -0.6434  0.9970
 5972SOL    HW222474   8.099   0.035  11.622 -0.0691  0.0765 -1.8888
 5973SOL     OW22475   2.244   2.310   9.939 -0.3044 -0.0922 -0.7523
 5973SOL    HW122476   2.205   2.379   9.886 -1.2110  0.5365  0.6811
 5973SOL    HW222477   2.322   2.285   9.890  0.3450  2.2907 -1.0807
 5974SOL     OW22478   1.688   6.230   7.115 -0.0252  0.2496  0.2087
 5974SOL    HW122479   1.610   6.179   7.138 -0.0188 -0.4826 -1.2565
 5974SOL    HW222480   1.720   6.264   7.198 -0.9045 -0.8936  1.0491
 5975SOL     OW22481   7.056   6.175   6.340 -0.3064 -0.2247 -0.6386
 5975SOL    HW122482   7.147   6.162   6.370 -0.1197  0.8612 -0.7184
 5975SOL    HW222483   7.024   6.248   6.392 -1.3993 -1.0693 -0.0874
 5976SOL     OW22484   0.006  12.088  11.717 -0.2278 -0.1999  0.2037
 5976SOL    HW122485   0.054  12.025  11.771  0.5372 -0.6568 -0.9751
 5976SOL    HW222486  -0.052  12.035  11.662  0.1804  0.1346 -0.5656
 5977SOL     OW22487   2.162   2.627   7.428  0.4083  0.3904  0.0898
 5977SOL    HW122488   2.199   2.540   7.411 -1.7355 -0.2909 -1.5811
 5977SOL    HW222489   2.238   2.683   7.442  1.8952 -1.5325  0.1773
 5978SOL     OW22490   4.140   3.476   1.480  0.5260 -0.7759  0.4171
 5978SOL    HW122491   4.106   3.388   1.497  0.7616 -1.1074 -0.7271
 5978SOL    HW222492   4.063   3.530   1.468  0.3764 -0.7841  1.2749
 5979SOL     OW22493   4.657  12.120   3.115  0.3034 -0.1176 -0.4076
 5979SOL    HW122494   4.647  12.208   3.152  0.1673 -0.4796  0.4265
 5979SOL    HW222495   4.696  12.135   3.029  0.4959  0.7455 -0.1794
 5980SOL     OW22496   4.863   5.659   7.186  0.5658  0.5320  1.1216
 5980SOL    HW122497   4.853   5.567   7.210  1.2398  0.2787  0.4853
 5980SOL    HW222498   4.932   5.659   7.119  0.1794  1.4321  0.7013
 5981SOL     OW22499   0.642  11.870   4.687 -0.0886 -0.3247  0.0729
 5981SOL    HW122500   0.686  11.955   4.686  0.2593 -0.5055 -0.4425
 5981SOL    HW222501   0.582  11.873   4.613  0.4257 -0.7817 -0.3729
 5982SOL     OW22502   7.551   2.824   1.961 -0.1075 -0.4176  0.0763
 5982SOL    HW122503   7.512   2.782   1.885  0.5412  1.2602 -1.2468
 5982SOL    HW222504   7.535   2.917   1.948  1.4381  0.0456  1.1748
 5983SOL     OW22505   7.914   8.251   5.614  0.0428 -0.0559 -0.5170
 5983SOL    HW122506   7.830   8.295   5.598  0.9157  1.2310 -1.8369
 5983SOL    HW222507   7.900   8.161   5.585 -0.8066  0.2180 -0.9987
 5984SOL     OW22508  10.810   2.351   9.088  0.2102  0.0623  0.1676
 5984SOL    HW122509  10.841   2.297   9.016  0.4931 -0.0263  0.3570
 5984SOL    HW222510  10.826   2.441   9.059 -0.8010  0.0805 -0.3998
 5985SOL     OW22511   2.726   7.184   6.956 -0.0597  0.1192  0.0912
 5985SOL    HW122512   2.701   7.275   6.974  0.8270  0.6520 -1.2246
 5985SOL    HW222513   2.791   7.163   7.023  1.3605  1.2272 -0.8824
 5986SOL     OW22514   0.644   3.608   9.837 -0.2576  0.0537 -0.3285
 5986SOL    HW122515   0.612   3.690   9.801 -0.1256  0.4534  0.4460
 5986SOL    HW222516   0.610   3.606   9.927  1.1231  0.0696  0.2203
 5987SOL     OW22517   9.419   3.304  11.140  0.0020 -1.0971  0.3496
 5987SOL    HW122518   9.427   3.389  11.184  1.8096 -1.4950  0.8640
 5987SOL    HW222519   9.348   3.317  11.076  0.0447  0.7042  0.6096
 5988SOL     OW22520   7.255  10.620  11.516  0.1743  0.0405 -0.1088
 5988SOL    HW122521   7.284  10.558  11.583  2.1565  1.4994  0.4769
 5988SOL    HW222522   7.245  10.567  11.437 -0.4127 -1.3908  0.8805
 5989SOL     OW22523   9.556  12.072  11.984  0.0525 -0.1265 -0.0618
 5989SOL    HW122524   9.487  12.070  11.918 -0.3153  0.1253  0.3078
 5989SOL    HW222525   9.637  12.063  11.935 -0.2603 -0.7415 -0.4740
 5990SOL     OW22526   0.800   1.740   6.294 -0.0982 -0.6349 -0.5731
 5990SOL    HW122527   0.842   1.820   6.328  2.4534 -3.0068  2.4896
 5990SOL    HW222528   0.708   1.749   6.319 -0.3883  2.1378 -2.1765
 5991SOL     OW22529   5.953   6.823   1.336 -0.2572  0.5893 -0.3402
 5991SOL    HW122530   5.941   6.771   1.257  2.0730  0.5729 -0.7438
 5991SOL    HW222531   5.920   6.768   1.407  0.2417 -0.5749 -0.9903
 5992SOL     OW22532  11.849   4.634   8.161  0.1079  1.0096 -0.1271
 5992SOL    HW122533  11.849   4.676   8.247 -0.5026  0.8391 -0.0338
 5992SOL    HW222534  11.840   4.540   8.181  1.8141  0.7822 -0.3146
 5993SOL     OW22535   7.838   1.582   2.385 -0.3977 -0.8359  0.6548
 5993SOL    HW122536   7.777   1.508   2.395 -1.4224  0.1218  1.9270
 5993SOL    HW222537   7.915   1.557   2.436 -0.4218 -1.3387  0.4496
 5994SOL     OW22538  12.115  11.941   8.520  0.1823 -0.1837  1.0064
 5994SOL    HW122539  12.152  11.855   8.502  0.2497 -0.2470  1.4561
 5994SOL    HW222540  12.172  12.002   8.473  0.9518 -0.2676  1.8036
 5995SOL     OW22541  11.573   9.212  10.947 -0.4273 -0.3115  0.0189
 5995SOL    HW122542  11.509   9.141  10.939  1.1450 -1.9796  1.3610
 5995SOL    HW222543  11.609   9.222  10.859 -0.2374 -1.6375 -0.0719
 5996SOL     OW22544  11.170   4.914   2.038 -0.0645 -0.3309 -0.9273
 5996SOL    HW122545  11.091   4.870   2.007 -0.7836  0.6528 -0.5511
 5996SOL    HW222546  11.147   5.007   2.040  1.4125  0.0828 -1.7094
 5997SOL     OW22547   7.498   2.754   9.326  0.5625 -0.0267  0.3146
 5997SOL    HW122548   7.550   2.829   9.358  0.8180 -0.5621  1.1878
 5997SOL    HW222549   7.432   2.740   9.394 -0.6958  0.5805 -0.7373
 5998SOL     OW22550   1.565   3.035   6.462 -0.0286 -0.5291  0.3766
 5998SOL    HW122551   1.583   3.017   6.554  0.4459 -1.1730  0.1675
 5998SOL    HW222552   1.650   3.032   6.420 -0.1726  0.3505  0.0034
 5999SOL     OW22553  10.679  10.271   6.478  0.3049 -0.6322  0.0730
 5999SOL    HW122554  10.675  10.321   6.560 -0.5897  0.5765 -0.6833
 5999SOL    HW222555  10.733  10.325   6.420  1.1606 -1.6100 -0.0753
 6000SOL     OW22556   0.509   9.044  10.595 -0.0035 -0.5036 -0.0476
 6000SOL    HW122557   0.571   8.976  10.623  0.2984 -0.1222  0.2143
 6000SOL    HW222558   0.462   9.068  10.675  1.7731  1.5328  0.4689
 6001SOL     OW22559   5.185   2.844   5.715  0.1146  0.1184 -0.1625
 6001SOL    HW122560   5.205   2.751   5.725  1.6917  0.5415  0.9338
 6001SOL    HW222561   5.099   2.855   5.757  0.0947 -0.7807  0.0408
 6002SOL     OW22562   3.056  11.869   8.962 -0.2236 -0.3631  0.2917
 6002SOL    HW122563   3.033  11.847   8.872 -0.6261  0.8162  0.0962
 6002SOL    HW222564   2.975  11.899   9.002 -0.2811 -1.8173  1.3797
 6003SOL     OW22565   6.293   8.301   7.301  0.3062 -0.1792  0.0619
 6003SOL    HW122566   6.293   8.271   7.210 -1.4672  1.3383 -0.5127
 6003SOL    HW222567   6.345   8.236   7.348 -1.0202 -2.5560 -1.5498
 6004SOL     OW22568  10.268   7.419   9.384 -0.6619 -0.2138 -0.3418
 6004SOL    HW122569  10.236   7.375   9.306 -1.4201 -0.7233  0.2434
 6004SOL    HW222570  10.189   7.438   9.435 -0.2504  0.8512 -0.0761
 6005SOL     OW22571  10.574   4.075   0.009  0.0699 -0.7558 -0.6476
 6005SOL    HW122572  10.505   4.104  -0.050  1.7930  0.2663 -2.2582
 6005SOL    HW222573  10.604   3.992  -0.028  0.1281 -0.8773 -0.3322
 6006SOL     OW22574   9.672   5.904   1.928 -0.3185  0.5254  0.0733
 6006SOL    HW122575   9.583   5.879   1.950 -0.1777  1.7726  2.3585
 6006SOL    HW222576   9.713   5.925   2.012  3.2146 -3.2072 -0.3780
 6007SOL     OW22577   1.457   9.804  10.734 -0.1893 -0.8942 -0.5258
 6007SOL    HW122578   1.423   9.774  10.650 -0.2462 -0.3555 -0.6984
 6007SOL    HW222579   1.379   9.822  10.787 -0.1750 -2.9413  0.2863
 6008SOL     OW22580   0.123   4.014   5.196 -0.4073 -0.1146  0.3456
 6008SOL    HW122581   0.131   3.974   5.283 -0.1744  1.1624  0.9344
 6008SOL    HW222582   0.111   3.940   5.137 -2.6395 -0.9434  1.6953
 6009SOL     OW22583  12.052   6.864  11.164  0.2855  0.0152 -0.0424
 6009SOL    HW122584  11.969   6.897  11.200  1.1743  0.2733  1.8727
 6009SOL    HW222585  12.032   6.774  11.137 -1.5808  1.1983 -3.2990
 6010SOL     OW22586   3.509   8.818  10.131  0.3110  0.3935 -0.3744
 6010SOL    HW122587   3.424   8.775  10.126  0.0747  0.5113  1.7888
 6010SOL    HW222588   3.489   8.910  10.150  0.9008  0.2883  0.8720
 6011SOL     OW22589   9.276  11.780   7.875 -0.2174  0.1155  0.3643
 6011SOL    HW122590   9.295  11.774   7.968 -0.4022  1.9762  0.5637
 6011SOL    HW222591   9.353  11.742   7.832  0.5666  0.6641  1.2561
 6012SOL     OW22592   9.329   4.146   9.812  0.1925 -0.4222  0.6795
 6012SOL    HW122593   9.402   4.194   9.773  0.7882 -1.3166  0.6518
 6012SOL    HW222594   9.348   4.054   9.793  1.6085 -1.1803  4.6862
 6013SOL     OW22595   2.326  10.339   9.537  0.5087  0.4186  0.0137
 6013SOL    HW122596   2.373  10.420   9.522  1.2855  0.2361  1.3101
 6013SOL    HW222597   2.351  10.282   9.464  1.4168  0.7136  0.0856
 6014SOL     OW22598   2.516   0.807   4.506 -0.2587 -0.0511 -0.0090
 6014SOL    HW122599   2.611   0.796   4.503 -0.3523 -0.8243 -0.9141
 6014SOL    HW222600   2.485   0.736   4.562 -0.2775  0.4310  0.5952
 6015SOL     OW22601   5.024   8.942   3.757 -0.0185  0.2458  0.2923
 6015SOL    HW122602   5.105   8.965   3.802  0.4543 -2.1897  0.8810
 6015SOL    HW222603   4.960   9.005   3.788  0.7725 -0.0848  2.8866
 6016SOL     OW22604   2.543   8.639   1.219  0.6171 -0.2042 -0.5556
 6016SOL    HW122605   2.609   8.630   1.287 -0.4528 -0.5529  0.4740
 6016SOL    HW222606   2.512   8.729   1.227 -0.6306 -0.6845  0.5405
 6017SOL     OW22607   9.428   7.589   6.430 -0.4987 -0.2031  0.1901
 6017SOL    HW122608   9.364   7.660   6.435  0.7705  0.9677  0.3335
 6017SOL    HW222609   9.419   7.554   6.341  0.7242  2.0023 -0.8852
 6018SOL     OW22610   8.912  10.854   3.651 -0.0793  0.1267 -0.1633
 6018SOL    HW122611   8.935  10.947   3.654 -1.1363  0.4105 -0.2012
 6018SOL    HW222612   8.929  10.822   3.739 -1.3984  0.8160  0.3764
 6019SOL     OW22613   7.793   6.235   0.421 -0.0143  0.1141  0.0236
 6019SOL    HW122614   7.868   6.176   0.419  0.0562  0.1815  0.6697
 6019SOL    HW222615   7.717   6.177   0.421  0.0164  0.0472 -0.9804
 6020SOL     OW22616   1.245   6.653   6.814  0.3745 -0.2200  0.3771
 6020SOL    HW122617   1.313   6.671   6.748 -1.2745  0.8809 -1.0990
 6020SOL    HW222618   1.243   6.558   6.819 -0.1371 -0.3950 -1.9716
 6021SOL     OW22619  12.107   1.263   5.049  0.1072 -0.0961 -1.1949
 6021SOL    HW122620  12.199   1.275   5.027  0.6745  0.2706  1.1223
 6021SOL    HW222621  12.066   1.347   5.031  0.2158 -0.2486 -2.1921
 6022SOL     OW22622  10.873   9.341   5.379  0.0667  0.4335 -0.1856
 6022SOL    HW122623  10.944   9.341   5.444 -0.4266 -0.9721  0.3903
 6022SOL    HW222624  10.903   9.281   5.310 -0.7520 -0.5857  0.3143
 6023SOL     OW22625   5.857  11.391   1.763 -0.2796  0.0903 -0.4918
 6023SOL    HW122626   5.936  11.352   1.799 -0.5406 -0.2139 -0.2468
 6023SOL    HW222627   5.804  11.316   1.735 -1.4109  0.1854  1.2839
 6024SOL     OW22628   5.343   9.616   8.384 -0.0668 -0.0943 -0.2671
 6024SOL    HW122629   5.359   9.524   8.406  1.1213 -0.2762 -1.7704
 6024SOL    HW222630   5.414   9.664   8.425 -0.5142  0.1314  0.2580
 6025SOL     OW22631   0.340   3.223   0.763  0.2931 -0.3333  0.2088
 6025SOL    HW122632   0.246   3.205   0.774  0.1445  1.1658  1.6579
 6025SOL    HW222633   0.349   3.244   0.670 -0.6680 -1.1937 -0.1050
 6026SOL     OW22634   6.259  11.401   2.386  0.3021 -0.1255 -0.2240
 6026SOL    HW122635   6.331  11.382   2.446 -0.0873  0.3686  0.4163
 6026SOL    HW222636   6.296  11.460   2.320  0.4732  0.1698  0.1335
 6027SOL     OW22637   1.516   7.983   8.601 -0.2921 -0.3314  0.1487
 6027SOL    HW122638   1.580   7.951   8.537  1.5803 -0.3410  1.9145
 6027SOL    HW222639   1.432   7.946   8.572  0.7038 -1.4127 -1.5287
 6028SOL     OW22640   3.670   2.247   8.150 -0.5176  0.0446 -0.8663
 6028SOL    HW122641   3.746   2.284   8.104  1.6645 -2.2571  0.6109
 6028SOL    HW222642   3.630   2.188   8.086  2.1479 -2.6905 -0.2283
 6029SOL     OW22643   6.594   3.423   8.833 -0.5230 -0.0364  0.3398
 6029SOL    HW122644   6.660   3.367   8.793  0.1181  1.2606 -0.5019
 6029SOL    HW222645   6.526   3.432   8.766 -1.4185 -1.1061  1.0803
 6030SOL     OW22646  11.455  10.927   5.828  0.8171 -0.4896 -0.2812
 6030SOL    HW122647  11.371  10.973   5.831  0.9924 -0.0839 -1.3156
 6030SOL    HW222648  11.432  10.835   5.844  0.1695 -0.3995 -0.6613
 6031SOL     OW22649  10.991   4.530  10.185 -0.1401 -0.3513 -0.0469
 6031SOL    HW122650  10.934   4.487  10.249 -0.4353  0.2690  0.1177
 6031SOL    HW222651  11.077   4.532  10.228  0.1123 -1.6419 -0.4595
 6032SOL     OW22652   9.852   9.745   2.743  0.4976  0.1638  0.2205
 6032SOL    HW122653   9.781   9.751   2.679 -0.7678  3.5355  1.7251
 6032SOL    HW222654   9.814   9.697   2.816 -0.5439  2.3842  1.2282
 6033SOL     OW22655   1.519   2.862  11.875 -0.5672 -0.1054 -0.1659
 6033SOL    HW122656   1.593   2.836  11.820  0.3821  0.1980  0.9423
 6033SOL    HW222657   1.450   2.885  11.813 -0.3415 -2.0473 -1.2266
 6034SOL     OW22658   3.126   1.897   6.330  0.6215 -0.7708 -0.8604
 6034SOL    HW122659   3.191   1.827   6.338  3.5996  2.0056  1.8031
 6034SOL    HW222660   3.175   1.974   6.304 -1.5527  1.4839  1.1684
 6035SOL     OW22661   8.266   5.887  12.054 -0.3772  0.0425 -0.4338
 6035SOL    HW122662   8.227   5.877  11.967 -0.8455  0.0973 -0.2301
 6035SOL    HW222663   8.360   5.881  12.038 -0.4436  0.3966 -0.9929
 6036SOL     OW22664   7.218   1.030   2.397  0.2183 -0.5541  0.2937
 6036SOL    HW122665   7.177   1.031   2.310  0.3995 -0.5726  0.2066
 6036SOL    HW222666   7.276   1.106   2.397 -0.4398 -0.0429  0.7247
 6037SOL     OW22667   5.081   2.575   8.300 -0.4819  0.1717 -0.3043
 6037SOL    HW122668   4.993   2.577   8.337  0.5206 -0.6901  2.3783
 6037SOL    HW222669   5.099   2.482   8.284  0.5970  0.1190  1.0292
 6038SOL     OW22670   0.113   4.256   0.741 -0.7935 -0.4218  0.0988
 6038SOL    HW122671   0.145   4.264   0.831 -0.5333 -1.8444  0.1630
 6038SOL    HW222672   0.143   4.335   0.697  0.4199 -0.4292  0.8754
 6039SOL     OW22673   4.648   1.579   9.179  0.0947 -0.5660 -0.1293
 6039SOL    HW122674   4.569   1.532   9.206 -1.7493  1.5380 -1.4484
 6039SOL    HW222675   4.666   1.547   9.090 -0.2543  0.0397 -0.4318
 6040SOL     OW22676   1.786   0.873   3.851  0.8039  0.0359  0.0676
 6040SOL    HW122677   1.781   0.945   3.788 -0.4784  0.4302  0.5830
 6040SOL    HW222678   1.851   0.903   3.915  3.1237 -0.9411 -1.6984
 6041SOL     OW22679   3.353  11.994   3.243 -0.5150 -0.0169 -0.0202
 6041SOL    HW122680   3.442  11.968   3.266 -0.9952 -2.6317 -0.8196
 6041SOL    HW222681   3.364  12.056   3.171  0.6642  0.3827  0.4803
 6042SOL     OW22682   7.394  10.114   2.560 -0.4491 -0.5298  0.1372
 6042SOL    HW122683   7.350  10.029   2.561 -1.5034 -0.0132 -0.1494
 6042SOL    HW222684   7.330  10.174   2.520 -0.5362  0.7888  2.0794
 6043SOL     OW22685   1.073   2.979   3.170  0.3553  0.1214  0.2534
 6043SOL    HW122686   1.108   3.065   3.193  0.7500 -0.2066  0.9247
 6043SOL    HW222687   1.036   2.946   3.252  1.1432 -0.7767  0.2726
 6044SOL     OW22688   1.819   9.793  11.375 -0.0621  0.0797 -0.3754
 6044SOL    HW122689   1.786   9.877  11.406 -0.8757 -0.2285 -0.3872
 6044SOL    HW222690   1.869   9.758  11.448  1.6563  1.2739 -0.8946
 6045SOL     OW22691   4.154   8.889   5.774 -0.2195  0.1576  0.5442
 6045SOL    HW122692   4.224   8.840   5.817  1.1150  0.7636 -0.8412
 6045SOL    HW222693   4.198   8.938   5.705 -2.1846 -0.4544 -1.2597
 6046SOL     OW22694   6.448  11.706   0.246  0.0838  0.3034  0.0358
 6046SOL    HW122695   6.353  11.692   0.246  0.0510  0.1917  2.1608
 6046SOL    HW222696   6.469  11.729   0.336  2.3531 -1.5961  0.0978
 6047SOL     OW22697   9.036   1.589   5.152 -0.2043  0.2014 -0.1154
 6047SOL    HW122698   8.944   1.572   5.135 -1.1908  3.7645  0.8453
 6047SOL    HW222699   9.041   1.600   5.247  0.3656  3.4995 -0.4052
 6048SOL     OW22700  11.569   5.532   8.280  0.1000 -0.2682 -0.3038
 6048SOL    HW122701  11.604   5.573   8.201  0.6168 -1.1947 -0.5740
 6048SOL    HW222702  11.498   5.590   8.307  0.9035  0.8738 -0.5669
 6049SOL     OW22703   3.773   0.797   1.715 -0.1385 -0.1346  0.1384
 6049SOL    HW122704   3.775   0.717   1.767 -0.1262  0.4111  0.9906
 6049SOL    HW222705   3.781   0.868   1.779  0.8863  0.5223 -0.6879
 6050SOL     OW22706   6.344   7.356  10.278 -0.6971  0.2690  0.0503
 6050SOL    HW122707   6.384   7.359  10.364 -1.3381 -2.2092  0.5392
 6050SOL    HW222708   6.270   7.416  10.284  0.0734  1.1758  0.7458
 6051SOL     OW22709   7.638  10.679   1.691 -0.4136  0.4585 -0.1765
 6051SOL    HW122710   7.638  10.637   1.776  0.1514  1.1369  0.1686
 6051SOL    HW222711   7.703  10.749   1.698  1.8158 -1.2848 -2.0628
 6052SOL     OW22712   1.757  10.507   2.145 -0.0393  0.1045 -0.3596
 6052SOL    HW122713   1.823  10.440   2.127 -0.7097 -0.5379 -0.4372
 6052SOL    HW222714   1.743  10.550   2.060 -0.1499 -0.1493 -0.4692
 6053SOL     OW22715   2.300   3.027   5.437 -0.3295 -0.4617  0.0594
 6053SOL    HW122716   2.218   3.045   5.392  0.8217 -0.0638 -1.9798
 6053SOL    HW222717   2.365   3.016   5.367  1.6089  0.4086  1.6149
 6054SOL     OW22718   5.004   6.792   4.477 -0.3417  0.3582 -0.0200
 6054SOL    HW122719   5.092   6.781   4.442 -0.6064  0.5631 -0.7506
 6054SOL    HW222720   4.960   6.851   4.416 -1.1841 -0.2355 -0.0081
 6055SOL     OW22721   1.703   2.674   9.626 -0.4638 -0.3199  0.1120
 6055SOL    HW122722   1.657   2.658   9.544  0.6391  0.4613 -0.6977
 6055SOL    HW222723   1.793   2.694   9.599 -0.8318  3.5233  1.1869
 6056SOL     OW22724   4.433   1.450   9.001 -0.7288 -0.3408  0.2842
 6056SOL    HW122725   4.432   1.528   8.946  1.3472  0.5624  1.4307
 6056SOL    HW222726   4.343   1.444   9.035 -0.5776  2.6118  1.5248
 6057SOL     OW22727   7.191   4.777   4.579 -0.1522 -0.1500 -0.2205
 6057SOL    HW122728   7.147   4.844   4.631 -0.8428 -1.2843  0.6959
 6057SOL    HW222729   7.228   4.825   4.505 -2.1401  0.9868 -0.5470
 6058SOL     OW22730   2.928   9.796   9.878  0.2730  0.0817  0.2980
 6058SOL    HW122731   2.909   9.868   9.938 -0.1309  0.5647 -0.3872
 6058SOL    HW222732   3.011   9.820   9.837  0.7052 -0.3970  0.8639
 6059SOL     OW22733  11.242  11.840   6.859  0.3438  0.5400  0.2366
 6059SOL    HW122734  11.154  11.824   6.893 -0.0105 -0.3875 -1.0541
 6059SOL    HW222735  11.291  11.761   6.882  0.3030  0.2268 -0.7118
 6060SOL     OW22736  11.756   6.981  11.187 -0.4763 -0.3668  0.3512
 6060SOL    HW122737  11.727   6.946  11.271 -0.6248  2.2506  1.5101
 6060SOL    HW222738  11.693   7.051  11.167  1.6453  1.5768  0.0096
 6061SOL     OW22739   0.980  10.165   1.626  0.0517  0.0455  0.0801
 6061SOL    HW122740   1.031  10.223   1.683  1.1496 -0.3453 -0.4736
 6061SOL    HW222741   1.024  10.170   1.541 -2.1083  1.3494 -1.0394
 6062SOL     OW22742  10.893   6.264   1.415  0.6326 -0.2217  0.0278
 6062SOL    HW122743  10.939   6.265   1.499 -0.6199  1.0455  0.7595
 6062SOL    HW222744  10.812   6.216   1.433 -0.4288  1.5063  0.0418
 6063SOL     OW22745   0.167   3.094   7.239  0.4343  0.1010  0.2041
 6063SOL    HW122746   0.074   3.080   7.258 -0.5136  1.6968 -2.6584
 6063SOL    HW222747   0.213   3.033   7.297 -2.2754  0.2590  2.7607
 6064SOL     OW22748  10.081   8.479   4.182 -0.6688  0.5718  0.6194
 6064SOL    HW122749  10.089   8.574   4.183 -1.9598  0.6917  1.0013
 6064SOL    HW222750  10.147   8.450   4.118  2.3684  1.4316  3.0828
 6065SOL     OW22751   0.014   4.781  10.216 -0.0319  0.1359 -0.2350
 6065SOL    HW122752   0.010   4.694  10.176 -0.0077  0.2242 -0.4311
 6065SOL    HW222753   0.044   4.838  10.146  1.4187  0.0641  0.2867
 6066SOL     OW22754   4.917   8.370   6.857 -0.0834  0.0548  0.1824
 6066SOL    HW122755   4.825   8.377   6.831  0.7964  2.8559 -2.8477
 6066SOL    HW222756   4.942   8.281   6.832 -1.5394 -0.1649 -0.5825
 6067SOL     OW22757  11.972  11.459   9.836  0.0867  0.4888  0.2082
 6067SOL    HW122758  11.880  11.475   9.813  0.3639 -1.2024 -2.4841
 6067SOL    HW222759  11.968  11.407   9.916 -1.2231  1.4289  0.7964
 6068SOL     OW22760   6.602   0.286   4.960 -0.3610  0.0400 -1.0086
 6068SOL    HW122761   6.646   0.368   4.983  1.4675 -1.1866  0.1406
 6068SOL    HW222762   6.570   0.252   5.043 -0.9827 -0.4872 -1.4544
 6069SOL     OW22763  10.574   5.980   4.895 -0.2409  0.1767  0.2343
 6069SOL    HW122764  10.665   6.005   4.882  0.4502 -2.4945 -0.7505
 6069SOL    HW222765  10.578   5.896   4.940 -2.2453  0.2196  0.6082
 6070SOL     OW22766   9.259   6.676  10.758  0.3080 -0.3207  0.7971
 6070SOL    HW122767   9.211   6.679  10.840 -0.8091 -0.1816  0.1547
 6070SOL    HW222768   9.191   6.670  10.691  1.2093 -0.7193 -0.1023
 6071SOL     OW22769   9.491   7.840   9.702 -0.4960  0.0460  0.2911
 6071SOL    HW122770   9.551   7.889   9.758  0.8962 -0.3782 -0.7611
 6071SOL    HW222771   9.499   7.882   9.616 -0.4895 -1.0108 -0.2384
 6072SOL     OW22772   9.376   4.761  10.671 -0.0865  0.0726  0.4361
 6072SOL    HW122773   9.360   4.855  10.670 -0.0539  0.0780  0.4519
 6072SOL    HW222774   9.441   4.747  10.602 -0.9368 -0.0882 -0.3693
 6073SOL     OW22775   6.635   9.852   7.161  0.1103 -0.5853  0.0414
 6073SOL    HW122776   6.586   9.793   7.219 -1.6260  1.3404  0.6333
 6073SOL    HW222777   6.610   9.824   7.072  0.7930 -1.9123  0.2434
 6074SOL     OW22778  10.261  10.119   2.270 -0.0619  0.2832 -0.1828
 6074SOL    HW122779  10.292  10.147   2.356  2.4329 -1.5215 -0.3472
 6074SOL    HW222780  10.235  10.028   2.283 -2.5414  0.8492 -0.7718
 6075SOL     OW22781  11.058   4.518   6.483 -0.0025  0.3686 -0.2571
 6075SOL    HW122782  11.127   4.577   6.513  1.3495 -0.7063 -1.1368
 6075SOL    HW222783  11.013   4.491   6.563  1.8821 -0.4522  0.5702
 6076SOL     OW22784   1.422   0.608  11.441 -0.7977  0.0375 -0.3940
 6076SOL    HW122785   1.410   0.526  11.488 -1.5204  0.2280 -0.2456
 6076SOL    HW222786   1.369   0.599  11.362  0.2492 -0.2002 -1.0973
 6077SOL     OW22787  10.561   5.500   0.010  0.3126  0.1900  0.1144
 6077SOL    HW122788  10.629   5.504   0.077  0.4941 -4.7612  0.6321
 6077SOL    HW222789  10.482   5.534   0.052  1.1049  0.0982  1.7362
 6078SOL     OW22790  10.805   8.296   4.199  0.2409 -0.1958  0.6481
 6078SOL    HW122791  10.861   8.237   4.250  0.1392 -1.1885 -0.3514
 6078SOL    HW222792  10.716   8.273   4.227  0.2177 -0.2739  0.5114
 6079SOL     OW22793   9.874   1.036  10.299 -0.3041 -0.4333 -0.1050
 6079SOL    HW122794   9.846   1.052  10.389 -0.1533 -0.1143 -0.1150
 6079SOL    HW222795   9.800   1.065  10.245 -0.8529 -1.6536 -0.0472
 6080SOL     OW22796   6.437   2.831   2.901  0.4835  0.1089  0.0370
 6080SOL    HW122797   6.380   2.803   2.973  2.4925  1.7063  2.4499
 6080SOL    HW222798   6.471   2.750   2.865  0.4890 -0.7818  1.8950
 6081SOL     OW22799   0.549   4.542   4.727  0.4189 -0.3770 -0.0472
 6081SOL    HW122800   0.476   4.482   4.738 -0.6828  0.3774 -2.6287
 6081SOL    HW222801   0.567   4.541   4.633  3.2512  0.0643  0.4103
 6082SOL     OW22802   5.613   5.845   7.214  0.0911 -0.3141 -0.4519
 6082SOL    HW122803   5.566   5.921   7.181  0.2291 -1.0875 -2.6089
 6082SOL    HW222804   5.698   5.880   7.241  0.5160  0.2315 -2.2961
 6083SOL     OW22805   3.689   4.848   3.603 -0.3447 -0.7990 -0.0278
 6083SOL    HW122806   3.708   4.838   3.696 -0.4849  0.3025  0.1284
 6083SOL    HW222807   3.607   4.800   3.591  1.4732 -4.1551 -0.3794
 6084SOL     OW22808   5.528   3.121   1.952 -0.5395  0.2955  0.3361
 6084SOL    HW122809   5.476   3.167   1.886 -0.2561  1.9973  1.2452
 6084SOL    HW222810   5.567   3.191   2.005  0.6446 -0.9906  1.2303
 6085SOL     OW22811   9.964   6.069  11.456 -0.3628  0.0421  0.0172
 6085SOL    HW122812   9.956   6.021  11.539  1.1638  2.0275  1.3984
 6085SOL    HW222813  10.004   6.152  11.480  0.1019  0.7079 -2.7371
 6086SOL     OW22814  11.860   3.994   1.241  0.1904  0.5701  0.4625
 6086SOL    HW122815  11.771   4.025   1.223 -0.0878 -0.1293  0.6065
 6086SOL    HW222816  11.884   4.036   1.323 -1.1342 -1.4537  1.9833
 6087SOL     OW22817   2.617   9.008   8.757  0.1350 -0.7713 -0.2311
 6087SOL    HW122818   2.653   9.048   8.836  1.3122 -1.9404 -0.1403
 6087SOL    HW222819   2.553   8.945   8.789 -1.0687  0.3599 -0.3376
 6088SOL     OW22820   8.121   7.656  11.052  0.4466 -0.0099  0.2410
 6088SOL    HW122821   8.121   7.745  11.086 -0.3659  0.8954 -1.9531
 6088SOL    HW222822   8.122   7.667  10.957  2.9237 -2.3700 -0.1316
 6089SOL     OW22823   8.757   3.795  11.316  0.2464  0.1747  0.0295
 6089SOL    HW122824   8.747   3.743  11.396 -2.4811  1.2154  0.4667
 6089SOL    HW222825   8.750   3.886  11.345  0.2756  0.6130 -1.2736
 6090SOL     OW22826   6.207   7.939   5.345 -1.0024  0.4868  0.5043
 6090SOL    HW122827   6.255   8.019   5.365 -1.0816  0.3211  1.3937
 6090SOL    HW222828   6.121   7.969   5.315 -0.2123  0.8100 -1.6586
 6091SOL     OW22829   8.801  11.796   4.553 -0.3543 -0.6119 -0.6006
 6091SOL    HW122830   8.811  11.888   4.530  1.0208 -0.2308  1.2564
 6091SOL    HW222831   8.733  11.763   4.494 -1.2630  1.7123 -0.9548
 6092SOL     OW22832   6.649   9.798   9.575 -0.0970 -0.2606 -0.2945
 6092SOL    HW122833   6.631   9.707   9.597 -0.6339 -0.1833 -0.4043
 6092SOL    HW222834   6.698   9.832   9.650 -1.7328 -0.0475  0.7379
 6093SOL     OW22835   8.072   2.450   6.156 -0.0213  0.6348 -0.0927
 6093SOL    HW122836   8.105   2.485   6.239 -3.0919  0.4662  1.3435
 6093SOL    HW222837   8.016   2.520   6.121 -0.3991 -0.0841 -0.9611
 6094SOL     OW22838  11.216   5.588  10.178 -0.0487 -0.1621 -0.4099
 6094SOL    HW122839  11.280   5.609  10.246  0.4053 -3.1849  0.2177
 6094SOL    HW222840  11.136   5.565  10.226 -1.5138  2.7681 -1.1696
 6095SOL     OW22841   0.172   4.624  10.696 -0.0504  0.2976 -0.1990
 6095SOL    HW122842   0.188   4.677  10.618 -0.4703  0.3056 -0.2795
 6095SOL    HW222843   0.239   4.556  10.693 -1.1327 -0.7477 -1.4911
 6096SOL     OW22844   2.005   1.059   3.194 -0.1276  0.1242 -0.1414
 6096SOL    HW122845   2.020   0.981   3.141  1.3878  0.6826 -0.5632
 6096SOL    HW222846   1.986   1.025   3.281 -0.0523 -0.7281 -0.4440
 6097SOL     OW22847   6.899   3.208   9.017  0.2090  0.0675  0.0107
 6097SOL    HW122848   6.865   3.253   8.940 -0.7593  1.3826  1.1668
 6097SOL    HW222849   6.928   3.278   9.076  2.2419 -0.9255  0.3076
 6098SOL     OW22850   1.068   4.714   2.983  0.3450  0.0556 -0.0143
 6098SOL    HW122851   1.060   4.624   3.014  1.4943  0.0098  0.2005
 6098SOL    HW222852   0.978   4.743   2.969 -0.0232 -1.3728 -0.8216
 6099SOL     OW22853  12.103  10.864   3.091  0.0053  0.5030  0.7260
 6099SOL    HW122854  12.150  10.813   3.025 -0.3784  1.1835 -0.0827
 6099SOL    HW222855  12.012  10.861   3.064 -0.1864  0.6111  1.3464
 6100SOL     OW22856   1.938   1.039   2.533  0.2691  0.5002 -0.0214
 6100SOL    HW122857   1.878   1.051   2.606  2.0249 -0.7591  1.7407
 6100SOL    HW222858   1.960   1.128   2.504 -1.1360  0.9964  0.3810
 6101SOL     OW22859   9.418   0.409   0.840 -0.7674 -0.3725  0.7595
 6101SOL    HW122860   9.490   0.382   0.898  0.6418 -0.4068 -0.9076
 6101SOL    HW222861   9.415   0.504   0.849 -0.5023 -0.3708  0.8599
 6102SOL     OW22862   2.371  12.102  11.049  0.0065  0.2008  0.3984
 6102SOL    HW122863   2.389  12.111  11.143  1.4391  0.6492  0.1120
 6102SOL    HW222864   2.377  12.192  11.015  0.3103 -0.0536 -0.2393
 6103SOL     OW22865   3.292   5.730   7.994 -0.7437  0.5520  0.2787
 6103SOL    HW122866   3.269   5.655   8.049  0.1904  0.5966  0.7538
 6103SOL    HW222867   3.359   5.776   8.043 -0.8436  1.3488 -0.3052
 6104SOL     OW22868   9.740   5.111   1.715  0.1254 -0.1734  0.3674
 6104SOL    HW122869   9.776   5.164   1.786 -0.0501 -2.1008  1.9754
 6104SOL    HW222870   9.816   5.072   1.672  0.1413 -1.4931  1.5438
 6105SOL     OW22871   6.173   6.251   2.405 -0.0017  0.3836 -0.1873
 6105SOL    HW122872   6.190   6.330   2.457  1.6719 -0.7602  1.1031
 6105SOL    HW222873   6.254   6.200   2.410  0.9586  0.8264 -5.2595
 6106SOL     OW22874   9.527   9.593   6.733 -0.2403 -0.0204 -0.2018
 6106SOL    HW122875   9.448   9.647   6.725 -0.1429  0.0454 -0.7353
 6106SOL    HW222876   9.494   9.503   6.722 -0.0997  0.0708 -1.5015
 6107SOL     OW22877   2.394   6.076   8.736  0.0910 -0.1933  0.5258
 6107SOL    HW122878   2.442   6.040   8.662 -0.0467  0.3459  0.1645
 6107SOL    HW222879   2.438   6.041   8.813  0.3287 -0.6393  0.1891
 6108SOL     OW22880   8.282  11.317  10.639  0.1067  0.3405 -0.0708
 6108SOL    HW122881   8.356  11.258  10.650  1.2429  1.6236 -0.4672
 6108SOL    HW222882   8.228  11.276  10.572 -0.3564 -1.3461  1.2563
 6109SOL     OW22883   9.316   5.439   0.704 -0.0619  0.1881  0.3396
 6109SOL    HW122884   9.390   5.386   0.674  0.4532  1.2567 -0.3272
 6109SOL    HW222885   9.346   5.480   0.785  1.8265  4.0307 -2.0132
 6110SOL     OW22886   5.457   5.951   2.810 -0.3146  0.3175 -0.1911
 6110SOL    HW122887   5.426   5.880   2.755  0.4032  0.1272 -0.3586
 6110SOL    HW222888   5.431   5.926   2.899  0.3930 -0.4183 -0.1804
 6111SOL     OW22889   2.739   2.596   2.562  0.2671 -0.1363 -0.0022
 6111SOL    HW122890   2.812   2.620   2.620 -1.8422  1.3641  2.2403
 6111SOL    HW222891   2.721   2.504   2.584  0.8127 -0.1912  0.2310
 6112SOL     OW22892  10.850   5.593   0.138  0.5933 -0.3711  0.2153
 6112SOL    HW122893  10.929   5.639   0.164 -0.6092  2.1844 -0.2996
 6112SOL    HW222894  10.782   5.626   0.197 -0.3006 -1.7168 -0.0130
 6113SOL     OW22895   7.086   9.885   0.755  0.1360 -0.4018  0.7417
 6113SOL    HW122896   7.047   9.863   0.839 -0.1530 -0.4139  0.6048
 6113SOL    HW222897   7.135   9.806   0.730 -0.1328 -0.5528  0.6928
 6114SOL     OW22898   4.160   7.064  10.696  0.5272 -0.0030  0.1681
 6114SOL    HW122899   4.084   7.092  10.746 -0.4812 -0.8874 -0.7919
 6114SOL    HW222900   4.205   7.145  10.673  0.6665  0.4505  1.9222
 6115SOL     OW22901   6.056   3.046  10.132 -0.7556  0.1311 -0.4823
 6115SOL    HW122902   6.102   2.962  10.136  0.2077  0.5824 -1.3411
 6115SOL    HW222903   5.976   3.032  10.181  0.7346 -0.4117  1.9683
 6116SOL     OW22904   7.981   2.944   2.655  0.1946  0.1064 -0.3715
 6116SOL    HW122905   7.960   2.951   2.562  0.2094  0.9041 -0.3214
 6116SOL    HW222906   8.076   2.932   2.657  0.5482  2.5667 -0.3859
 6117SOL     OW22907   8.297   4.608   0.212  0.0239 -0.6422  0.4586
 6117SOL    HW122908   8.325   4.524   0.250  0.5766 -0.1329  1.2042
 6117SOL    HW222909   8.232   4.584   0.146 -0.3468 -1.6127  1.1511
 6118SOL     OW22910   0.908   3.098  10.002 -0.4215 -0.3368  0.1617
 6118SOL    HW122911   0.913   3.026   9.939 -0.7998 -0.6426  0.4747
 6118SOL    HW222912   0.988   3.091  10.053 -1.0662 -1.3600  1.0627
 6119SOL     OW22913  11.451   6.188   6.982 -0.1375  0.0945  1.0642
 6119SOL    HW122914  11.371   6.219   7.025  0.3590 -0.7181  2.6365
 6119SOL    HW222915  11.474   6.258   6.921 -1.3555  0.8991  1.4937
 6120SOL     OW22916   4.318   4.089   6.948 -0.2296 -0.1784 -0.0617
 6120SOL    HW122917   4.270   4.006   6.951  2.4514 -1.8312  0.6356
 6120SOL    HW222918   4.375   4.081   6.872  0.0674  1.0303  0.0168
 6121SOL     OW22919   3.704   5.101   8.355 -0.2953  0.2477 -0.5629
 6121SOL    HW122920   3.666   5.184   8.383  2.9275  1.9083 -0.7363
 6121SOL    HW222921   3.760   5.074   8.428 -0.3166 -1.1593 -1.0347
 6122SOL     OW22922   6.091   3.947   4.074 -0.8515  0.1573 -0.1490
 6122SOL    HW122923   6.021   3.891   4.110 -0.0884  0.5817  2.1951
 6122SOL    HW222924   6.046   4.028   4.049 -1.6456 -0.7004 -1.6056
 6123SOL     OW22925   3.612   0.231   9.832 -0.2446 -0.3759 -0.3687
 6123SOL    HW122926   3.580   0.302   9.777  2.7123  1.2708 -0.2099
 6123SOL    HW222927   3.660   0.173   9.771 -1.6239 -1.6455 -0.3055
 6124SOL     OW22928   8.446   7.008   4.916 -0.4079  0.1316 -0.2044
 6124SOL    HW122929   8.482   7.095   4.930  0.8205 -0.5128  0.8289
 6124SOL    HW222930   8.522   6.950   4.920 -1.2745 -1.0436 -0.3188
 6125SOL     OW22931   8.068   4.648   8.475  0.7794 -0.1282  0.4144
 6125SOL    HW122932   7.997   4.710   8.490  0.5261 -0.5049  0.8069
 6125SOL    HW222933   8.148   4.700   8.476  0.5798  0.1671  0.8852
 6126SOL     OW22934   5.794   2.923   2.747  0.5881  0.6005 -0.3674
 6126SOL    HW122935   5.738   3.001   2.743  2.3954  2.0338  0.8704
 6126SOL    HW222936   5.865   2.941   2.686 -1.0704 -2.0295 -3.4215
 6127SOL     OW22937   8.612  11.684   4.384  0.0195 -0.3414 -0.2084
 6127SOL    HW122938   8.527  11.716   4.352  0.7460 -0.0330 -1.9413
 6127SOL    HW222939   8.624  11.599   4.341  0.4924 -0.4865  0.1953
 6128SOL     OW22940  11.398   7.462   7.473  0.0670 -0.2094  0.3547
 6128SOL    HW122941  11.429   7.464   7.382  1.1279 -1.1134  0.6735
 6128SOL    HW222942  11.342   7.539   7.481 -1.8924 -1.3074 -1.6866
 6129SOL     OW22943   1.471   8.487   3.462 -0.1852  0.0550 -0.2709
 6129SOL    HW122944   1.476   8.518   3.372 -1.3177 -0.5468 -0.5623
 6129SOL    HW222945   1.407   8.416   3.460 -0.2823  0.0674  1.0181
 6130SOL     OW22946  12.022   9.394   7.573 -0.4156 -0.0376  0.1230
 6130SOL    HW122947  12.069   9.352   7.645 -1.5203 -2.5840 -0.5493
 6130SOL    HW222948  12.088   9.448   7.530  1.1461 -1.1917  0.9630
 6131SOL     OW22949   7.327   6.118   0.913  0.4306 -0.1412  0.4872
 6131SOL    HW122950   7.354   6.041   0.963  0.1525 -0.8726 -0.4496
 6131SOL    HW222951   7.277   6.170   0.975  1.8800  0.0362  1.5523
 6132SOL     OW22952  10.164  11.956   6.367 -0.1889 -0.0484  0.5145
 6132SOL    HW122953  10.108  11.930   6.439 -1.2257  0.2037 -0.1882
 6132SOL    HW222954  10.135  12.044   6.344  0.1213 -0.1279 -0.2227
 6133SOL     OW22955   0.451   2.939   7.107  0.3316  0.7015 -0.9839
 6133SOL    HW122956   0.437   2.865   7.047 -2.9298  0.9616 -0.7202
 6133SOL    HW222957   0.406   3.012   7.065  0.4789  1.6427  0.4415
 6134SOL     OW22958   8.670   6.535  10.570 -0.2483 -0.3419 -0.6047
 6134SOL    HW122959   8.682   6.441  10.554 -2.3921 -0.7018 -0.3256
 6134SOL    HW222960   8.589   6.542  10.619 -0.0801  1.6729 -0.5079
 6135SOL     OW22961   2.443   3.612   9.909  0.8688 -0.5329  0.6227
 6135SOL    HW122962   2.533   3.643   9.915  0.3865  1.0117  0.2802
 6135SOL    HW222963   2.404   3.634   9.993  0.3380  0.4536  0.1385
 6136SOL     OW22964  10.317   5.514   1.721 -0.0702  0.1778  0.0854
 6136SOL    HW122965  10.343   5.521   1.630 -1.1241 -1.8341 -0.4240
 6136SOL    HW222966  10.232   5.557   1.726 -0.0490  0.2186  0.0969
 6137SOL     OW22967   2.762   3.485   6.279  0.2691  0.1800 -0.8509
 6137SOL    HW122968   2.790   3.571   6.310  0.1596 -0.3963  0.9890
 6137SOL    HW222969   2.675   3.474   6.316 -0.0330 -0.4126 -1.7224
 6138SOL     OW22970   2.716   4.133   4.311  0.0795 -0.6007 -0.2618
 6138SOL    HW122971   2.693   4.104   4.223  0.1108 -0.9435 -0.1589
 6138SOL    HW222972   2.634   4.128   4.360  0.0280 -0.2623 -0.3065
 6139SOL     OW22973   2.685   7.550   5.581  0.4393 -0.0942 -0.1243
 6139SOL    HW122974   2.693   7.527   5.489  2.6225 -0.3303  0.0628
 6139SOL    HW222975   2.688   7.466   5.627  2.4311  0.1310  0.2588
 6140SOL     OW22976  11.973   7.601   5.834  0.2597 -0.2288  0.0682
 6140SOL    HW122977  12.035   7.595   5.907 -0.1722  0.1996  0.4811
 6140SOL    HW222978  11.900   7.545   5.860 -0.1937  0.4474  0.2762
 6141SOL     OW22979   3.559   5.988   5.944  0.1664 -0.0527 -0.6564
 6141SOL    HW122980   3.476   6.016   5.984  0.2623  1.1757 -1.2776
 6141SOL    HW222981   3.624   6.051   5.977  1.0848 -1.5915  0.6201
 6142SOL     OW22982  12.068   6.233   0.845  0.4245  0.0532 -0.2401
 6142SOL    HW122983  12.125   6.243   0.921 -1.3573 -1.1310  1.3442
 6142SOL    HW222984  12.100   6.154   0.801  0.6680 -0.0009  0.0316
 6143SOL     OW22985   0.214   4.613  11.987 -0.1120 -0.1099  0.0045
 6143SOL    HW122986   0.260   4.613  12.071  0.4495 -0.3028 -0.2954
 6143SOL    HW222987   0.130   4.655  12.006  0.3110  0.5394  0.4974
 6144SOL     OW22988   1.526   4.209   2.694 -0.0025  0.2540  0.0821
 6144SOL    HW122989   1.466   4.251   2.755 -0.3416  0.2158 -0.2169
 6144SOL    HW222990   1.549   4.278   2.631  2.3299  1.0164  1.6446
 6145SOL     OW22991   7.671   9.511   0.039  0.5588  0.2901  0.3761
 6145SOL    HW122992   7.619   9.483   0.114  0.9039  1.4106  1.0482
 6145SOL    HW222993   7.656   9.605   0.033  0.3395  0.1929 -1.1270
 6146SOL     OW22994   9.786   5.859   5.597 -0.2724  0.2391  0.7123
 6146SOL    HW122995   9.743   5.913   5.531  1.6643 -0.4918 -1.2506
 6146SOL    HW222996   9.781   5.770   5.563  0.5969 -0.1902  1.6338
 6147SOL     OW22997   7.950   2.851  12.058  0.0607 -0.0403  0.0029
 6147SOL    HW122998   7.861   2.852  12.022  0.1061  1.4453 -0.1577
 6147SOL    HW222999   7.998   2.790  12.002 -0.3730  0.6943 -1.2023
 6148SOL     OW23000   7.288   0.479   8.293 -0.3056 -0.6293 -0.0279
 6148SOL    HW123001   7.194   0.492   8.280 -0.3422  0.2376  1.0237
 6148SOL    HW223002   7.301   0.384   8.286 -1.2500 -0.7502 -0.1631
 6149SOL     OW23003   2.992   0.205   7.213 -0.0833 -0.6014  0.1982
 6149SOL    HW123004   3.075   0.173   7.175 -0.4829 -1.2136 -0.1771
 6149SOL    HW223005   3.019   0.275   7.273  0.4725  1.4797 -2.2880
 6150SOL     OW23006   6.918   1.006   6.137 -0.0141 -0.0116 -0.3390
 6150SOL    HW123007   6.916   0.913   6.161  0.4027  0.0622 -0.0055
 6150SOL    HW223008   7.009   1.022   6.110  0.0224  0.3987  0.0135
 6151SOL     OW23009   0.528  10.458  11.322 -0.0481  0.5499 -0.6660
 6151SOL    HW123010   0.461  10.390  11.314 -0.8610  1.2499 -0.0367
 6151SOL    HW223011   0.490  10.521  11.383  1.6024  0.4802  0.4803
 6152SOL     OW23012  11.779  10.335   2.046  0.0711 -0.8463 -0.0671
 6152SOL    HW123013  11.826  10.306   1.968  1.0151  0.4781 -0.0105
 6152SOL    HW223014  11.812  10.278   2.116 -0.8313 -2.0859 -0.5952
 6153SOL     OW23015  11.977   4.803   9.750 -0.0842 -0.0337  0.2637
 6153SOL    HW123016  11.972   4.884   9.699 -2.1713 -0.0715  0.3111
 6153SOL    HW223017  11.944   4.827   9.837 -0.4316 -0.8533  0.3725
 6154SOL     OW23018   3.664   8.094   3.500 -0.1353 -0.2129 -0.3206
 6154SOL    HW123019   3.724   8.090   3.425 -0.6427  1.7789 -0.8875
 6154SOL    HW223020   3.679   8.181   3.538 -2.2217  0.0985 -0.1268
 6155SOL     OW23021   1.040   7.307   2.120  0.2256  0.4120 -0.6644
 6155SOL    HW123022   1.089   7.252   2.182  2.8816  1.9501 -1.2517
 6155SOL    HW223023   0.984   7.362   2.175 -0.5053 -0.9966  0.0613
 6156SOL     OW23024   7.878   9.174   4.842  0.1903 -0.0605 -0.1039
 6156SOL    HW123025   7.952   9.118   4.864 -0.1583 -0.0918  1.0117
 6156SOL    HW223026   7.896   9.256   4.888 -0.1143  0.1776 -0.4085
 6157SOL     OW23027  10.550   3.633  11.658  0.5793  0.9957  0.1094
 6157SOL    HW123028  10.546   3.598  11.747  0.9817 -0.2379 -0.3338
 6157SOL    HW223029  10.564   3.727  11.669 -2.1809  1.3537  1.3747
 6158SOL     OW23030   8.674  10.923   4.984 -0.1142  0.1894  0.0408
 6158SOL    HW123031   8.706  10.993   5.040 -0.5783  0.0410  0.5051
 6158SOL    HW223032   8.647  10.854   5.045  1.5791 -0.9539 -0.4411
 6159SOL     OW23033   6.739  12.006  11.460  0.2010  0.3529  0.2047
 6159SOL    HW123034   6.761  11.913  11.461 -0.0369  0.2442 -1.5067
 6159SOL    HW223035   6.747  12.033  11.551 -0.5954 -1.5430  0.9029
 6160SOL     OW23036   0.605   1.696   1.039 -0.8663  0.1504 -0.0493
 6160SOL    HW123037   0.681   1.664   0.990 -0.3993  0.9670  0.1150
 6160SOL    HW223038   0.578   1.776   0.993 -1.1131  0.3116  0.3647
 6161SOL     OW23039   1.835   7.656   4.544 -0.7399  0.3781 -0.1554
 6161SOL    HW123040   1.763   7.608   4.504 -1.0234 -0.4729  1.3057
 6161SOL    HW223041   1.908   7.595   4.544 -0.7949  0.3095  0.7769
 6162SOL     OW23042   6.841   1.862   6.897 -0.0066  0.4427 -0.7354
 6162SOL    HW123043   6.811   1.772   6.884  1.2361 -0.0183 -0.4904
 6162SOL    HW223044   6.877   1.888   6.812 -1.9687  1.3821 -1.3576
 6163SOL     OW23045   3.266   8.028  10.393 -0.2641 -0.1616 -0.2056
 6163SOL    HW123046   3.304   8.114  10.412 -1.6944  0.7992 -1.4207
 6163SOL    HW223047   3.301   8.004  10.307 -0.3950 -0.4692 -0.1740
 6164SOL     OW23048   8.859   9.588   9.962 -0.4040  0.4630  0.0373
 6164SOL    HW123049   8.891   9.599   9.872  0.9067 -1.7254  0.1513
 6164SOL    HW223050   8.938   9.588  10.016 -1.1740  1.7826  1.2323
 6165SOL     OW23051  12.055   8.612   8.089 -0.3667  0.0770 -0.0069
 6165SOL    HW123052  12.097   8.694   8.112  1.5782 -0.6255 -0.8326
 6165SOL    HW223053  12.058   8.608   7.993  1.1900 -1.6741  0.0403
 6166SOL     OW23054  10.169   3.757   6.345 -0.1873  0.2833  0.6802
 6166SOL    HW123055  10.190   3.816   6.272 -0.8099  1.1502  1.1705
 6166SOL    HW223056  10.223   3.680   6.330 -0.9572  0.0535 -1.1993
 6167SOL     OW23057   5.730   0.081   9.052  0.2831  0.2176  0.0279
 6167SOL    HW123058   5.731   0.039   9.138  1.6380 -0.0417 -0.0895
 6167SOL    HW223059   5.726   0.174   9.071  0.5568  0.1625  0.3733
 6168SOL     OW23060  11.598   4.818  10.522  0.2059  0.1545 -0.2633
 6168SOL    HW123061  11.602   4.775  10.607  3.2455  0.1537 -0.2817
 6168SOL    HW223062  11.620   4.909  10.540  0.5711  0.2222 -1.0083
 6169SOL     OW23063   8.972   0.851   1.670 -0.3002 -0.0126 -0.2367
 6169SOL    HW123064   8.922   0.769   1.660  0.3720 -0.3260 -1.0798
 6169SOL    HW223065   9.008   0.868   1.584 -1.3789  1.8255 -0.3580
 6170SOL     OW23066   0.027   7.279   2.850 -0.2176 -0.2394 -0.1010
 6170SOL    HW123067  -0.020   7.214   2.798  0.4534 -0.9147  0.1203
 6170SOL    HW223068   0.093   7.229   2.898 -1.1773  0.3002  1.8498
 6171SOL     OW23069   7.900   6.559   7.948  0.2738 -0.0496  0.6399
 6171SOL    HW123070   7.827   6.615   7.973 -1.0640 -1.1943 -0.5137
 6171SOL    HW223071   7.871   6.471   7.971  0.6935 -0.6725 -1.0483
 6172SOL     OW23072   0.021   0.072   2.392  0.5075  0.0437 -0.0138
 6172SOL    HW123073  -0.022   0.115   2.465  1.6639  1.2008  0.0260
 6172SOL    HW223074   0.054  -0.010   2.427  0.3352  0.2150  0.5505
 6173SOL     OW23075   2.154   7.694   5.638 -0.3409 -0.6286  0.2329
 6173SOL    HW123076   2.248   7.696   5.621 -0.1781 -3.0912  0.4290
 6173SOL    HW223077   2.138   7.766   5.698  1.6587 -0.9322  1.2025
 6174SOL     OW23078   1.367   1.583   3.696  0.4313  0.0421 -0.1364
 6174SOL    HW123079   1.320   1.660   3.728 -0.3289 -0.6950  0.5302
 6174SOL    HW223080   1.404   1.612   3.612  0.7936  1.3666  0.4444
 6175SOL     OW23081   1.968   6.504   8.012  0.1699  0.1897 -0.7532
 6175SOL    HW123082   1.937   6.490   8.102  0.2167  1.7995 -0.4458
 6175SOL    HW223083   2.020   6.585   8.018 -1.1796  1.2566 -2.5196
 6176SOL     OW23084   3.155  11.831   9.789  0.4054  0.2349 -0.4916
 6176SOL    HW123085   3.191  11.894   9.851 -0.4547 -0.5737  0.9143
 6176SOL    HW223086   3.068  11.810   9.825  0.4003 -1.2171 -1.2747
 6177SOL     OW23087   1.601  11.773   2.956  0.2233  0.1866 -0.1922
 6177SOL    HW123088   1.515  11.766   2.997  0.7411 -0.6989  0.7860
 6177SOL    HW223089   1.590  11.734   2.869 -0.9189  2.1895 -1.0035
 6178SOL     OW23090   3.616   3.167   8.000 -0.1643 -0.2967  0.3079
 6178SOL    HW123091   3.537   3.188   8.050  0.2387  0.3355  0.6989
 6178SOL    HW223092   3.634   3.075   8.020 -0.8089 -0.4461  0.2061
 6179SOL     OW23093   3.813  10.675   0.568  0.2485 -1.3861 -0.3329
 6179SOL    HW123094   3.794  10.699   0.659  0.8875  0.5197 -0.6438
 6179SOL    HW223095   3.898  10.715   0.550 -0.7677  0.0657 -2.3620
 6180SOL     OW23096   4.057   8.713   6.939 -0.7691  0.3808  0.3516
 6180SOL    HW123097   4.116   8.710   6.863 -0.1575 -2.6580  0.8187
 6180SOL    HW223098   3.983   8.658   6.913 -2.0250  1.7534  0.9017
 6181SOL     OW23099   7.559   4.445  10.172 -0.1622 -0.5183 -0.1663
 6181SOL    HW123100   7.614   4.376  10.209 -1.6699 -0.9938  1.3403
 6181SOL    HW223101   7.617   4.521  10.165  0.6749 -0.9467  1.5337
 6182SOL     OW23102   8.722   1.577   5.798  0.1260 -0.1484  0.0076
 6182SOL    HW123103   8.715   1.670   5.817  1.7597  0.1215 -0.5784
 6182SOL    HW223104   8.762   1.539   5.876 -0.6919 -0.4063  0.3135
 6183SOL     OW23105   0.157   5.738   4.389  0.2044  0.0229  0.0224
 6183SOL    HW123106   0.139   5.800   4.460  1.0146  0.2711  0.0234
 6183SOL    HW223107   0.106   5.771   4.315  1.0247  1.0011 -0.1265
 6184SOL     OW23108  10.631   5.141  10.959  0.6891  0.8496 -0.2314
 6184SOL    HW123109  10.668   5.106  11.040 -1.1475  0.8328  0.6607
 6184SOL    HW223110  10.679   5.097  10.889  0.9853 -0.6166  0.8609
 6185SOL     OW23111  11.051   9.480  10.015 -0.0043 -0.5408  0.6214
 6185SOL    HW123112  10.979   9.502   9.956  1.2876  1.6197 -0.2955
 6185SOL    HW223113  11.021   9.507  10.101 -0.6669 -0.6473  0.4334
 6186SOL     OW23114   8.448   2.116   7.940 -0.2540  0.0539  0.0438
 6186SOL    HW123115   8.510   2.169   7.990 -1.3032  1.1082  0.2669
 6186SOL    HW223116   8.493   2.098   7.858 -0.1743  2.0210 -0.3867
 6187SOL     OW23117   7.583   4.242   7.971 -0.3370  0.3740 -0.0170
 6187SOL    HW123118   7.519   4.292   7.920 -0.2080  0.5526 -0.0009
 6187SOL    HW223119   7.644   4.207   7.906 -0.1468  0.6391  0.0210
 6188SOL     OW23120   7.660   2.903  10.284  0.0488 -0.5615 -0.0453
 6188SOL    HW123121   7.748   2.942  10.279  0.2663 -1.1680 -1.3163
 6188SOL    HW223122   7.675   2.809  10.275 -0.7786 -0.6118 -1.1179
 6189SOL     OW23123   6.690   7.344   6.817  0.0270 -0.0038  0.0370
 6189SOL    HW123124   6.635   7.387   6.752  0.4345  2.3089  1.1394
 6189SOL    HW223125   6.777   7.340   6.777  0.6911  2.9738  0.9583
 6190SOL     OW23126   7.997   4.845  11.343  0.1818 -0.0306  0.9232
 6190SOL    HW123127   8.082   4.869  11.306 -0.2908 -0.2222 -0.3293
 6190SOL    HW223128   7.942   4.827  11.267 -1.9364  3.1618  1.4969
 6191SOL     OW23129   4.350   6.018   4.488 -0.4439  0.3920 -0.1831
 6191SOL    HW123130   4.433   5.975   4.510 -1.2828 -1.2983 -0.0957
 6191SOL    HW223131   4.337   6.082   4.558 -0.0589 -0.5705  0.8102
 6192SOL     OW23132   1.072   2.535   0.286  0.5202  0.0019 -0.1059
 6192SOL    HW123133   1.015   2.597   0.331 -0.8407 -0.8713 -0.5665
 6192SOL    HW223134   1.104   2.477   0.355 -1.6687 -1.4214 -0.1779
 6193SOL     OW23135   4.138   9.573   1.609 -0.2082 -0.1786  0.6312
 6193SOL    HW123136   4.141   9.616   1.695  0.6671 -0.7500  0.9085
 6193SOL    HW223137   4.210   9.614   1.560  1.0323 -1.6896  1.1028
 6194SOL     OW23138  11.948   7.719  11.071 -0.3257  0.3047  0.3339
 6194SOL    HW123139  12.000   7.698  10.994 -0.0398  2.5677 -0.1751
 6194SOL    HW223140  12.002   7.783  11.119 -1.7209  1.1332  0.8645
 6195SOL     OW23141  10.040  11.217   2.715  0.2296 -0.4817  0.3624
 6195SOL    HW123142  10.071  11.127   2.726  0.4511 -0.2642  1.7768
 6195SOL    HW223143   9.971  11.226   2.782  1.7774  1.0638  1.8486
 6196SOL     OW23144   2.676   3.992  10.615 -0.3150 -0.1030  0.1969
 6196SOL    HW123145   2.734   3.966  10.687  0.9736  1.4380 -0.2115
 6196SOL    HW223146   2.588   3.985  10.652  0.3026  0.7773  2.0099
 6197SOL     OW23147   5.718   5.667   2.685  0.2192  0.2575 -0.0832
 6197SOL    HW123148   5.629   5.654   2.718  0.4743  0.5017  0.7048
 6197SOL    HW223149   5.728   5.601   2.616 -0.1605 -0.5534  0.6270
 6198SOL     OW23150  10.305  10.541   7.123 -0.3729  0.4017 -0.2773
 6198SOL    HW123151  10.255  10.518   7.045 -1.5570  0.0889  0.5409
 6198SOL    HW223152  10.327  10.457   7.163 -0.0810  0.5683 -0.0804
 6199SOL     OW23153   0.463  11.163   5.676  0.0982  0.4809 -0.5468
 6199SOL    HW123154   0.559  11.167   5.674  0.1040  0.2131 -0.8718
 6199SOL    HW223155   0.436  11.252   5.702  0.5039 -0.1501  2.4531
 6200SOL     OW23156   7.777   7.783   0.038  0.2236  0.2003 -0.2742
 6200SOL    HW123157   7.807   7.813  -0.048 -1.6237  1.6688 -0.4682
 6200SOL    HW223158   7.683   7.771   0.027 -0.2244  1.3742  1.8029
 6201SOL     OW23159   1.300   5.442   5.193  0.1346  0.2086 -0.1326
 6201SOL    HW123160   1.386   5.456   5.154  0.0744  0.0521 -0.3232
 6201SOL    HW223161   1.268   5.529   5.214  0.6596  0.2345  0.6307
 6202SOL     OW23162  11.626   0.966   5.392 -0.1056  0.3387  0.2993
 6202SOL    HW123163  11.661   0.885   5.354  1.0356  0.8937  0.1373
 6202SOL    HW223164  11.700   1.003   5.441 -0.5729  1.3554  0.2561
 6203SOL     OW23165   2.302   7.952   4.097  0.4018 -0.0919  0.1053
 6203SOL    HW123166   2.283   7.882   4.036 -1.1820  0.6293 -0.2833
 6203SOL    HW223167   2.235   7.943   4.165  1.2590 -0.0078  0.9863
 6204SOL     OW23168   3.707   0.902   2.950 -0.3930 -0.1891  0.2271
 6204SOL    HW123169   3.641   0.968   2.970 -1.4949 -1.1148 -0.1992
 6204SOL    HW223170   3.704   0.841   3.024  0.6287  0.2183  0.6283
 6205SOL     OW23171   2.106   9.660   3.503  0.4639  0.2926 -0.0644
 6205SOL    HW123172   2.029   9.664   3.447  0.8398  1.2275 -0.5375
 6205SOL    HW223173   2.179   9.682   3.446  1.1420 -0.9127  0.2979
 6206SOL     OW23174  11.541   1.286   6.959  0.3320  0.6135  0.3897
 6206SOL    HW123175  11.464   1.238   6.929  1.7235 -0.0144 -2.4501
 6206SOL    HW223176  11.569   1.238   7.038  0.7995 -2.4538 -1.4860
 6207SOL     OW23177   5.648   3.157   2.708  0.1933 -0.2756 -0.3731
 6207SOL    HW123178   5.611   3.174   2.794 -1.4726 -2.1449 -0.6509
 6207SOL    HW223179   5.572   3.152   2.649  1.2988  1.1635 -2.0245
 6208SOL     OW23180  10.383   5.485   8.398  0.0591 -0.9359 -0.3459
 6208SOL    HW123181  10.426   5.400   8.402 -0.2742 -1.1423 -0.9380
 6208SOL    HW223182  10.290   5.465   8.411 -0.0112 -0.6529 -0.4109
 6209SOL     OW23183   0.630   9.089  10.084 -0.2697 -0.1731  0.1259
 6209SOL    HW123184   0.583   9.102  10.001 -1.0016  0.3832  0.6091
 6209SOL    HW223185   0.560   9.075  10.149  0.2855 -0.3989  0.6896
 6210SOL     OW23186   9.206   9.347   9.044  0.2731  0.2347 -0.0732
 6210SOL    HW123187   9.173   9.424   8.998  1.7280  1.4836  0.8714
 6210SOL    HW223188   9.294   9.333   9.009  1.4762  1.2865  2.2506
 6211SOL     OW23189   0.627  11.282   8.181 -0.9103 -0.7149  0.5603
 6211SOL    HW123190   0.637  11.202   8.232  1.2287 -0.8775 -0.0260
 6211SOL    HW223191   0.679  11.267   8.103 -2.6313  0.2463 -0.8494
 6212SOL     OW23192   8.913  11.140   5.810  0.1026  0.1476 -0.1496
 6212SOL    HW123193   8.848  11.131   5.740 -0.3457 -0.4947  0.3506
 6212SOL    HW223194   8.869  11.190   5.878 -0.0947 -0.8156  0.4535
 6213SOL     OW23195   8.155   2.070   9.868 -0.3049 -0.0635 -0.3487
 6213SOL    HW123196   8.097   2.077   9.792 -2.3486 -0.2089  1.1139
 6213SOL    HW223197   8.121   2.134   9.930  0.4011 -0.9392  1.0009
 6214SOL     OW23198   3.599   6.799   4.167  0.2979 -0.1692  0.2754
 6214SOL    HW123199   3.562   6.743   4.099 -0.3033  1.7526 -1.0825
 6214SOL    HW223200   3.690   6.771   4.174  0.5243 -0.1139 -1.7310
 6215SOL     OW23201  12.126   4.969   8.604  0.3852  0.4033  0.3486
 6215SOL    HW123202  12.055   4.994   8.662 -0.6490 -1.4290 -0.0287
 6215SOL    HW223203  12.173   4.900   8.651  0.7383  0.2620 -0.1983
 6216SOL     OW23204   0.433   0.721   1.691 -0.7732 -0.0898  0.1175
 6216SOL    HW123205   0.488   0.670   1.632 -0.1172  0.0239  0.6149
 6216SOL    HW223206   0.381   0.777   1.634 -0.4372 -0.2627 -0.3599
 6217SOL     OW23207   5.630   2.317   0.591  0.1259  0.4104  0.6444
 6217SOL    HW123208   5.718   2.280   0.578  0.4015  1.0662  0.6101
 6217SOL    HW223209   5.628   2.395   0.535 -1.1967 -0.6850 -0.9432
 6218SOL     OW23210   2.074   7.642  10.318 -0.2705 -0.3241  0.5701
 6218SOL    HW123211   1.994   7.633  10.267 -0.3239  0.5849  0.4786
 6218SOL    HW223212   2.102   7.733  10.304  0.1957 -0.3188  1.4385
 6219SOL     OW23213   2.051   0.586   8.650  0.1956 -0.4623 -0.0039
 6219SOL    HW123214   2.132   0.637   8.657 -0.8559  1.3025 -0.0794
 6219SOL    HW223215   2.081   0.497   8.631  2.1137  0.1228 -0.0059
 6220SOL     OW23216   1.013   7.248   3.157  0.0902 -0.6786 -0.0683
 6220SOL    HW123217   1.032   7.307   3.084 -1.4602 -0.7064 -0.5261
 6220SOL    HW223218   1.057   7.166   3.134  2.5331  0.3156  0.7232
 6221SOL     OW23219   6.984   5.544   0.376  0.2404 -0.4082 -0.1494
 6221SOL    HW123220   6.980   5.638   0.393  1.7815 -0.2763 -0.3566
 6221SOL    HW223221   6.953   5.534   0.286  0.5046 -0.0413 -0.2825
 6222SOL     OW23222   9.199   0.909   3.776  0.1161 -0.2163  0.7281
 6222SOL    HW123223   9.244   0.836   3.818  1.7383  1.0589  1.3490
 6222SOL    HW223224   9.270   0.961   3.736 -1.1865 -0.2077 -1.7398
 6223SOL     OW23225  10.998   5.458   3.532 -0.1879 -0.6458 -0.1416
 6223SOL    HW123226  10.938   5.532   3.544  0.7170  0.0783  0.0145
 6223SOL    HW223227  10.950   5.398   3.475 -0.6264  0.4398 -0.9623
 6224SOL     OW23228   9.724   6.784   5.162 -0.2178 -0.3741 -0.2382
 6224SOL    HW123229   9.651   6.727   5.136  0.1805 -0.3595 -1.4457
 6224SOL    HW223230   9.781   6.728   5.214 -1.2603 -0.2869  1.0461
 6225SOL     OW23231   1.785   6.385   7.297  0.2628  0.0325  0.1421
 6225SOL    HW123232   1.731   6.464   7.297 -1.4238 -1.0613  0.8176
 6225SOL    HW223233   1.815   6.376   7.387  1.4235  0.5130 -0.1845
 6226SOL     OW23234   9.269   6.504   0.347 -0.2908 -0.0530 -0.1003
 6226SOL    HW123235   9.197   6.567   0.343  0.1293  0.3971 -0.6881
 6226SOL    HW223236   9.296   6.503   0.438  1.0070  2.1062 -0.4028
 6227SOL     OW23237  10.959   2.923   0.110  0.4342 -0.0041 -0.1953
 6227SOL    HW123238  10.903   2.848   0.087  0.6905 -0.6438  1.1404
 6227SOL    HW223239  10.919   2.997   0.066 -1.2567 -0.5186  0.3704
 6228SOL     OW23240  10.490   2.460   8.058  0.5503 -0.4310  0.2996
 6228SOL    HW123241  10.560   2.457   8.123  1.2991  0.1209 -0.4603
 6228SOL    HW223242  10.444   2.377   8.069  1.1977 -0.7159  0.9585
 6229SOL     OW23243   0.996   5.957   5.112 -0.6633 -0.2603 -0.1489
 6229SOL    HW123244   1.031   5.982   5.198  1.3120 -1.6015 -0.5012
 6229SOL    HW223245   1.049   6.006   5.049 -0.9981 -0.5273 -0.6470
 6230SOL     OW23246  10.146   4.728   2.892  0.2058 -0.1288  0.4673
 6230SOL    HW123247  10.129   4.671   2.967  0.5772 -0.1801  0.5149
 6230SOL    HW223248  10.193   4.802   2.928  2.7916 -1.3906 -0.0705
 6231SOL     OW23249   4.671   6.537   5.619  0.1798  0.1855 -0.2754
 6231SOL    HW123250   4.709   6.454   5.648  0.8453  0.2761 -0.8399
 6231SOL    HW223251   4.747   6.588   5.588 -0.4271  0.2348 -1.7966
 6232SOL     OW23252   7.953   6.622   0.345  0.1823 -0.2485 -0.1395
 6232SOL    HW123253   7.975   6.652   0.433 -0.7216  0.0849 -0.0091
 6232SOL    HW223254   8.028   6.648   0.291 -0.3302  1.8525  0.0674
 6233SOL     OW23255  10.231   5.815  11.430  0.1394  0.5269 -0.0132
 6233SOL    HW123256  10.316   5.858  11.438 -0.6605  1.9175  1.9081
 6233SOL    HW223257  10.223   5.762  11.509 -1.2499  1.3832  0.4655
 6234SOL     OW23258   5.195   1.585   9.552 -0.2842  0.5336 -0.7136
 6234SOL    HW123259   5.234   1.581   9.639  0.7451 -0.7253 -1.1919
 6234SOL    HW223260   5.102   1.601   9.568 -0.5443 -1.8936  0.7927
 6235SOL     OW23261   8.634   7.096   6.271  0.3536  0.5987 -0.5094
 6235SOL    HW123262   8.684   7.046   6.207 -0.6456  0.4418 -1.1921
 6235SOL    HW223263   8.658   7.058   6.356  2.1917  1.2399 -0.7004
 6236SOL     OW23264   2.358   2.436   7.384  0.1721  0.2124 -0.6097
 6236SOL    HW123265   2.452   2.425   7.403  0.1991 -1.7167 -1.5588
 6236SOL    HW223266   2.355   2.465   7.293 -0.1458  0.9034 -0.3822
 6237SOL     OW23267   6.270   7.907   5.663 -0.0607 -0.5198 -0.6434
 6237SOL    HW123268   6.240   7.899   5.573 -1.0319  0.1381 -0.3857
 6237SOL    HW223269   6.211   7.851   5.714 -0.4668  0.2872 -0.2147
 6238SOL     OW23270   7.148  10.049   9.730 -0.0647 -0.2015  0.3638
 6238SOL    HW123271   7.084  10.120   9.737 -2.3981 -2.2311  1.3758
 6238SOL    HW223272   7.201  10.071   9.654 -2.1744  1.4859 -0.7277
 6239SOL     OW23273   9.619   0.711   7.365 -0.4122 -0.4094  0.2879
 6239SOL    HW123274   9.645   0.797   7.332 -1.3592  0.4167  1.5838
 6239SOL    HW223275   9.694   0.655   7.347  0.8216  1.0228  0.6780
 6240SOL     OW23276   7.179   3.142  11.015 -0.5391  0.0286  0.0965
 6240SOL    HW123277   7.172   3.053  10.980 -1.7071  0.6150 -1.2450
 6240SOL    HW223278   7.239   3.186  10.955 -0.2902  0.2696  0.5175
 6241SOL     OW23279   8.628   0.009   8.919  0.5667 -0.2489 -0.3899
 6241SOL    HW123280   8.557   0.047   8.971 -0.0435  0.8032 -1.9282
 6241SOL    HW223281   8.651  -0.072   8.966 -2.0351 -0.9264 -0.1258
 6242SOL     OW23282   5.575   3.524   4.156  0.1959 -0.2650  0.2529
 6242SOL    HW123283   5.634   3.467   4.107  1.8964  0.6934  1.1251
 6242SOL    HW223284   5.518   3.562   4.089  0.0456 -1.7665 -0.5152
 6243SOL     OW23285   0.366   3.830   5.710  0.0158  0.3410 -0.2489
 6243SOL    HW123286   0.323   3.807   5.792  1.1362  0.7476  0.4814
 6243SOL    HW223287   0.400   3.747   5.677 -1.8332 -0.1014 -1.1826
 6244SOL     OW23288  11.168   0.871  11.516  0.1798 -0.0280 -0.1023
 6244SOL    HW123289  11.132   0.957  11.539  0.0368 -0.7682  2.8701
 6244SOL    HW223290  11.127   0.849  11.432 -0.3217  2.4571 -0.5864
 6245SOL     OW23291  10.597   1.608   0.597  0.4702  0.4060 -0.4078
 6245SOL    HW123292  10.515   1.628   0.641  1.5122  0.3593  1.6665
 6245SOL    HW223293  10.581   1.526   0.551 -0.1381 -0.5975  1.5016
 6246SOL     OW23294   6.455  11.337   7.382 -0.0993 -0.2305  0.3567
 6246SOL    HW123295   6.410  11.420   7.399 -0.0476  0.0966 -0.9925
 6246SOL    HW223296   6.542  11.348   7.421 -0.2533  0.1605  0.5959
 6247SOL     OW23297  10.230   4.718   1.689  0.6184  0.1499  0.0676
 6247SOL    HW123298  10.151   4.665   1.694  0.2409  0.7085  0.1381
 6247SOL    HW223299  10.237   4.743   1.597  1.6503 -1.2817 -0.2692
 6248SOL     OW23300   5.571   7.506   7.015 -0.7720  0.2557  0.5322
 6248SOL    HW123301   5.512   7.581   7.011  0.9687  1.6661 -2.0871
 6248SOL    HW223302   5.528   7.439   6.961 -0.2465  1.1223 -1.0158
 6249SOL     OW23303   3.734   0.267   2.844 -0.6386 -0.8003 -0.1985
 6249SOL    HW123304   3.821   0.250   2.808 -0.5607 -2.8401  0.7910
 6249SOL    HW223305   3.749   0.332   2.913  0.1620 -1.3674  0.1733
 6250SOL     OW23306   3.377   2.153   3.424  0.3322  0.3539 -0.8624
 6250SOL    HW123307   3.359   2.059   3.435 -0.5578  0.3393 -2.1943
 6250SOL    HW223308   3.328   2.177   3.346  1.6682  1.6349 -1.3501
 6251SOL     OW23309   3.600  10.976   8.265 -0.0831 -0.3417  0.2696
 6251SOL    HW123310   3.539  10.911   8.229 -2.3119  1.7560 -0.0063
 6251SOL    HW223311   3.644  11.013   8.189 -0.4220 -0.0349  0.2197
 6252SOL     OW23312   3.485   1.596   5.766 -0.1074  0.2731  0.1632
 6252SOL    HW123313   3.426   1.524   5.742  2.1555 -2.4150  2.0837
 6252SOL    HW223314   3.549   1.599   5.696  0.2104 -0.0989  0.4339
 6253SOL     OW23315   1.751   2.167   3.464 -0.0162 -0.8220  0.7930
 6253SOL    HW123316   1.659   2.185   3.485 -0.2564 -0.9607 -0.0989
 6253SOL    HW223317   1.797   2.248   3.486 -0.6637 -0.0433 -0.5882
 6254SOL     OW23318  11.833   4.209   3.964  0.3198  0.5663  0.2121
 6254SOL    HW123319  11.891   4.141   3.998 -0.8743  0.7049  2.8384
 6254SOL    HW223320  11.803   4.256   4.043 -0.9842  2.4018 -1.2829
 6255SOL     OW23321   9.842  10.950  11.241  0.1223 -0.2510  0.1190
 6255SOL    HW123322   9.906  10.991  11.299 -0.0781 -0.0125  0.1702
 6255SOL    HW223323   9.847  10.857  11.263  0.9987 -0.3368 -0.4071
 6256SOL     OW23324   1.032  12.064   9.199 -0.5009 -0.7923 -0.4386
 6256SOL    HW123325   1.068  12.015   9.273 -0.2563 -1.0010 -0.6920
 6256SOL    HW223326   1.016  11.997   9.132 -0.8574 -0.6246 -0.5232
 6257SOL     OW23327  10.958  11.619   3.065  0.3466 -0.0890 -0.1877
 6257SOL    HW123328  10.996  11.610   2.978  0.8411  1.9466 -0.2190
 6257SOL    HW223329  11.030  11.602   3.125 -0.0106 -1.5618 -0.1239
 6258SOL     OW23330   1.598  11.548   8.067  0.0985  0.5889 -0.2271
 6258SOL    HW123331   1.572  11.596   7.988  1.4653  0.2795 -0.9068
 6258SOL    HW223332   1.520  11.499   8.092 -0.4733  0.9764 -1.1852
 6259SOL     OW23333   1.084   6.154  11.065  0.1820 -0.4974 -0.1442
 6259SOL    HW123334   1.030   6.136  11.141  0.3987 -0.2705  0.0647
 6259SOL    HW223335   1.033   6.121  10.991 -1.0633  1.3129 -0.1470
 6260SOL     OW23336   3.160   4.951   7.265 -0.6860 -0.4783  0.2908
 6260SOL    HW123337   3.103   4.876   7.284 -0.8551 -0.2990  0.4916
 6260SOL    HW223338   3.149   5.009   7.339 -0.5752 -0.2391  0.1209
 6261SOL     OW23339   8.264   7.252   8.110  0.2266 -0.1499  0.1046
 6261SOL    HW123340   8.355   7.279   8.125  0.5835 -0.3829 -1.4484
 6261SOL    HW223341   8.241   7.291   8.026 -1.1193 -0.1169  0.4734
 6262SOL     OW23342  11.391   4.944   6.544  0.0461  0.3607 -0.0283
 6262SOL    HW123343  11.337   4.866   6.556  1.1097 -0.3095  0.6740
 6262SOL    HW223344  11.352   5.010   6.603  0.6305 -0.4737  1.3490
 6263SOL     OW23345   0.012  11.173   6.156  0.3141 -0.0750  0.7040
 6263SOL    HW123346  -0.054  11.214   6.212 -0.5740 -1.5079  0.7553
 6263SOL    HW223347  -0.036  11.144   6.079  1.3576  1.0415 -0.4100
 6264SOL     OW23348   7.793   3.994   5.317  0.1136  0.3733  0.1773
 6264SOL    HW123349   7.858   3.956   5.258 -0.4470  0.7271 -0.6722
 6264SOL    HW223350   7.740   4.051   5.262 -2.2879 -1.5022  0.3781
 6265SOL     OW23351  10.183   8.939   2.387  0.1974  0.1940 -0.1505
 6265SOL    HW123352  10.216   8.996   2.457  1.0662  0.5896 -0.8568
 6265SOL    HW223353  10.137   8.869   2.433  1.2253  0.1395  0.8624
 6266SOL     OW23354   2.747   8.668   9.758 -0.4649 -0.4280  0.0166
 6266SOL    HW123355   2.716   8.690   9.846 -0.4675  0.6049 -0.2343
 6266SOL    HW223356   2.805   8.593   9.771  0.0696  0.1306  0.9864
 6267SOL     OW23357  11.952   8.379  11.844  0.0834 -0.3171  0.6969
 6267SOL    HW123358  11.868   8.424  11.856 -0.4441 -0.7995 -1.0086
 6267SOL    HW223359  11.928   8.288  11.828  0.8265 -0.2436 -1.0271
 6268SOL     OW23360   1.873   5.992   7.276 -0.0999  0.0755 -0.1859
 6268SOL    HW123361   1.903   6.047   7.203 -0.8126 -0.3186 -0.7826
 6268SOL    HW223362   1.929   5.915   7.272 -0.3518 -0.0905 -0.5137
 6269SOL     OW23363   6.727  10.905   1.662  0.0639 -0.3935 -0.1161
 6269SOL    HW123364   6.691  10.817   1.666 -0.9011 -0.0257 -0.4159
 6269SOL    HW223365   6.666  10.959   1.713  0.0699  0.2834 -0.8070
 6270SOL     OW23366   9.654   8.131  10.514 -0.5229 -0.0668 -0.1003
 6270SOL    HW123367   9.688   8.214  10.545 -1.0610 -0.2143  0.9461
 6270SOL    HW223368   9.725   8.092  10.464 -0.2511  0.9878 -0.5524
 6271SOL     OW23369  11.634   7.842   0.625 -0.2450 -0.3411  0.2123
 6271SOL    HW123370  11.558   7.900   0.618  1.2287  1.7611  0.4730
 6271SOL    HW223371  11.603   7.757   0.594 -2.3459  0.7450 -0.8828
 6272SOL     OW23372  11.177  12.013   4.373  0.0944 -0.0303 -0.0204
 6272SOL    HW123373  11.253  12.003   4.315  1.7894  0.1873  2.0399
 6272SOL    HW223374  11.182  12.104   4.402 -0.5187 -0.2288  0.7133
 6273SOL     OW23375   3.869   4.470   8.458 -0.0007 -0.4226 -0.0318
 6273SOL    HW123376   3.921   4.515   8.526 -0.2938 -1.5355  0.9634
 6273SOL    HW223377   3.916   4.388   8.443  0.5351  0.1565 -1.8391
 6274SOL     OW23378   9.341  12.021   3.264  0.4904  0.3409  0.1074
 6274SOL    HW123379   9.258  12.048   3.225  0.7661  1.0358 -0.0299
 6274SOL    HW223380   9.368  11.944   3.214  0.1726  0.4135 -0.1760
 6275SOL     OW23381   6.355  11.423   6.567  0.0968  0.1396 -0.3304
 6275SOL    HW123382   6.313  11.401   6.650  1.0719 -0.4931  0.0019
 6275SOL    HW223383   6.291  11.480   6.523 -2.0877 -2.4404 -0.7693
 6276SOL     OW23384   2.236   4.250   8.653  0.1246 -0.1281  0.1207
 6276SOL    HW123385   2.175   4.309   8.698  0.9683  0.4093  0.5752
 6276SOL    HW223386   2.286   4.209   8.724 -1.4570 -2.5946 -0.0500
 6277SOL     OW23387  11.668   1.500   6.860  0.3314  0.0332  0.1269
 6277SOL    HW123388  11.639   1.412   6.886 -1.0498  0.4581  0.0721
 6277SOL    HW223389  11.721   1.530   6.934 -0.7320 -0.1275  0.9767
 6278SOL     OW23390   2.517   6.091   3.445  0.0749 -0.2519  0.3512
 6278SOL    HW123391   2.607   6.095   3.476  0.2449  1.2759 -0.2484
 6278SOL    HW223392   2.481   6.177   3.466 -0.3609  0.1850 -1.9131
 6279SOL     OW23393   3.003   0.606   7.032 -0.2433  0.0565 -0.1488
 6279SOL    HW123394   3.030   0.662   7.105 -1.6100  0.0905  0.3455
 6279SOL    HW223395   2.960   0.531   7.073  3.2270 -2.4667 -0.6680
 6280SOL     OW23396   4.070   9.199   9.127  0.0643  0.2213  0.2215
 6280SOL    HW123397   4.025   9.283   9.136 -1.5998 -0.2984 -2.4554
 6280SOL    HW223398   4.019   9.138   9.181 -0.9094  0.1827 -0.7322
 6281SOL     OW23399   8.903   0.911   7.910 -0.8372 -0.7422 -0.2550
 6281SOL    HW123400   8.886   0.950   7.824  0.7777 -1.8114 -1.1120
 6281SOL    HW223401   8.978   0.853   7.895  0.3563  0.0621  2.1903
 6282SOL     OW23402   5.439   2.351  10.870 -0.0118  0.1914 -0.0913
 6282SOL    HW123403   5.463   2.425  10.815  0.7378 -0.5343 -0.7607
 6282SOL    HW223404   5.358   2.379  10.914 -0.2394  1.0431 -1.0226
 6283SOL     OW23405   6.571   3.897  11.006 -0.0350 -0.4786 -0.2646
 6283SOL    HW123406   6.541   3.808  10.992  0.1657 -0.5534 -0.2280
 6283SOL    HW223407   6.531   3.924  11.089  1.3535 -1.1887  0.6799
 6284SOL     OW23408  11.179  11.682   1.658  0.5289 -0.2611  0.3290
 6284SOL    HW123409  11.271  11.656   1.657  0.5526 -0.2531  1.1523
 6284SOL    HW223410  11.170  11.734   1.739 -0.2267 -0.3896  0.3360
 6285SOL     OW23411   1.301  11.135   8.830 -0.5495  0.2564  0.4025
 6285SOL    HW123412   1.343  11.214   8.863  0.2933  0.2838 -0.6643
 6285SOL    HW223413   1.227  11.120   8.889 -1.8172  2.8279 -0.4054
 6286SOL     OW23414   3.240   2.592   3.027 -0.2511  0.8395  0.2230
 6286SOL    HW123415   3.306   2.640   3.077  0.8168 -1.6793  1.4142
 6286SOL    HW223416   3.164   2.590   3.085 -0.5401  1.6511 -0.1193
 6287SOL     OW23417   1.469   9.398   1.965 -0.8385  0.2910  0.7476
 6287SOL    HW123418   1.474   9.311   2.004  1.3744 -0.2428 -0.5518
 6287SOL    HW223419   1.430   9.453   2.033  0.7548 -1.0308  2.8509
 6288SOL     OW23420  11.918  10.203  11.032 -0.0995  0.0228 -0.5803
 6288SOL    HW123421  11.894  10.134  10.970 -0.9277  1.5130 -2.0192
 6288SOL    HW223422  11.865  10.186  11.109 -0.0095 -1.1467 -0.7567
 6289SOL     OW23423   0.021   5.726   3.231  0.4812  0.4576 -0.2215
 6289SOL    HW123424  -0.013   5.642   3.201  0.5334  0.6980 -0.9663
 6289SOL    HW223425   0.109   5.706   3.264  1.1592  0.4612 -1.9073
 6290SOL     OW23426   1.222   5.872   2.025 -0.2170  0.0901  0.3717
 6290SOL    HW123427   1.273   5.797   2.055  0.4512  0.8544  1.2385
 6290SOL    HW223428   1.253   5.889   1.936 -0.3444 -0.6232  0.1878
 6291SOL     OW23429  10.371  10.335   0.765  0.1337 -1.0370  0.9997
 6291SOL    HW123430  10.416  10.380   0.694 -2.2717  0.6902  0.4458
 6291SOL    HW223431  10.331  10.258   0.724 -2.0052  0.4284  0.1393
 6292SOL     OW23432   9.410   9.614   0.367  0.2401  0.3469 -0.1116
 6292SOL    HW123433   9.431   9.521   0.367 -1.3721 -0.1282 -2.6595
 6292SOL    HW223434   9.423   9.642   0.457  1.1138 -2.2602  0.6488
 6293SOL     OW23435   1.191   0.399   4.602 -0.1795 -0.5643  0.0848
 6293SOL    HW123436   1.278   0.437   4.619 -0.8575  0.8907  0.4534
 6293SOL    HW223437   1.176   0.341   4.677  0.8542 -1.5736 -0.4579
 6294SOL     OW23438   4.969   6.487  10.045  0.2653 -0.1241  0.2379
 6294SOL    HW123439   5.058   6.453  10.061  0.8621  1.3154  0.0881
 6294SOL    HW223440   4.919   6.459  10.122  1.3584  0.7436  1.2974
 6295SOL     OW23441   6.299   0.206   7.609 -0.1579 -0.8839 -0.2199
 6295SOL    HW123442   6.208   0.212   7.578 -0.4905  0.6736  0.9287
 6295SOL    HW223443   6.291   0.198   7.704  0.9165 -1.4719 -0.1640
 6296SOL     OW23444   2.748   5.382   8.575 -0.0007  0.2759 -0.8134
 6296SOL    HW123445   2.658   5.362   8.600  0.0364  0.5691 -0.4432
 6296SOL    HW223446   2.758   5.475   8.595  0.2825  0.3216 -1.1593
 6297SOL     OW23447   2.684   4.882   2.921  0.0675 -0.3493  0.5513
 6297SOL    HW123448   2.665   4.961   2.971 -0.0864  0.9389 -1.3984
 6297SOL    HW223449   2.687   4.912   2.830 -1.6776 -2.8719 -0.4539
 6298SOL     OW23450   9.937   5.018   3.783  0.4586 -0.0325  0.3491
 6298SOL    HW123451   9.883   4.989   3.857  1.3300 -1.1296  0.5772
 6298SOL    HW223452   9.874   5.044   3.716 -0.4080 -2.3688  0.1696
 6299SOL     OW23453   5.217   0.960   1.113 -0.2525  0.3755 -0.4244
 6299SOL    HW123454   5.231   1.028   1.179  1.1117  0.7165 -1.0437
 6299SOL    HW223455   5.221   1.006   1.029  3.2280 -0.7455 -1.0168
 6300SOL     OW23456   4.346   6.098   3.689 -0.0570  0.6007  0.0131
 6300SOL    HW123457   4.254   6.090   3.714 -0.0238 -0.0260 -0.0522
 6300SOL    HW223458   4.343   6.116   3.595 -0.1189  0.6628  0.0273
 6301SOL     OW23459  10.848   5.246   9.506 -0.0062 -0.7658 -0.0686
 6301SOL    HW123460  10.772   5.298   9.480  1.2147  1.0678 -0.1731
 6301SOL    HW223461  10.918   5.275   9.447  1.3505 -0.7029  1.4965
 6302SOL     OW23462   4.615   0.229   2.743 -0.2009  0.6933  0.0577
 6302SOL    HW123463   4.682   0.292   2.716 -1.0542  0.7928 -1.9993
 6302SOL    HW223464   4.576   0.267   2.822  0.0465  2.2184 -0.5244
 6303SOL     OW23465   2.045   9.155   4.787 -0.1190 -0.1318  0.5850
 6303SOL    HW123466   2.055   9.128   4.695  1.7150 -0.6034  0.8820
 6303SOL    HW223467   2.118   9.214   4.802 -0.5888  0.1860  1.6643
 6304SOL     OW23468   5.244   4.973  10.374 -0.2405  0.0889  0.6704
 6304SOL    HW123469   5.225   5.063  10.347 -0.4072 -0.3397 -0.7511
 6304SOL    HW223470   5.303   4.982  10.448 -1.1621  1.3783  1.2878
 6305SOL     OW23471   4.754   8.873   9.296  1.1050  0.1541 -0.3373
 6305SOL    HW123472   4.762   8.783   9.264 -0.2718 -0.2049  0.2342
 6305SOL    HW223473   4.660   8.892   9.290  1.5240  2.0377 -1.6777
 6306SOL     OW23474   1.893   2.762   7.971 -0.8851  0.3186 -0.3834
 6306SOL    HW123475   1.964   2.716   7.925  0.3419 -0.7520  2.3735
 6306SOL    HW223476   1.815   2.711   7.951 -0.0539 -1.2477  0.1751
 6307SOL     OW23477  12.005   2.252   9.844 -0.3687 -0.0059 -0.0332
 6307SOL    HW123478  12.013   2.342   9.876 -1.8001  0.7141 -1.6024
 6307SOL    HW223479  11.911   2.237   9.836 -0.2616  0.3415 -4.9281
 6308SOL     OW23480   1.645   3.346   3.826  0.0279  0.2685  0.0813
 6308SOL    HW123481   1.577   3.371   3.763 -0.0060 -0.3338 -0.1314
 6308SOL    HW223482   1.709   3.297   3.774  0.4973  0.6140  0.3300
 6309SOL     OW23483   0.954   5.229  11.407  0.2144 -0.2438 -0.0074
 6309SOL    HW123484   0.875   5.184  11.437 -0.1759  0.6663  0.3535
 6309SOL    HW223485   0.955   5.214  11.313 -0.5507 -0.0178 -0.0601
 6310SOL     OW23486  11.907   2.344   0.110 -0.0809  0.1383  0.5028
 6310SOL    HW123487  11.982   2.376   0.159 -0.8907  0.3107  1.6598
 6310SOL    HW223488  11.862   2.285   0.170  0.3152 -1.7278 -0.9203
 6311SOL     OW23489   4.448   1.848   9.967  0.1394 -0.2852  0.4547
 6311SOL    HW123490   4.475   1.780  10.028  0.4410  0.0282  0.6761
 6311SOL    HW223491   4.530   1.889   9.939  0.0863 -1.0161 -0.8714
 6312SOL     OW23492   7.051  10.932   8.715  0.4370  0.0113 -0.7040
 6312SOL    HW123493   7.046  10.899   8.625 -0.3061  1.1859 -1.1156
 6312SOL    HW223494   7.136  10.977   8.720  1.3044 -1.5986 -0.2397
 6313SOL     OW23495   6.341   2.480   4.029  0.7346  0.6889 -0.3015
 6313SOL    HW123496   6.366   2.419   4.099  1.8063  0.9163 -0.4590
 6313SOL    HW223497   6.247   2.470   4.021  0.7263 -0.0551  0.5126
 6314SOL     OW23498   9.485   1.465   9.771  0.9467 -0.3022  0.3436
 6314SOL    HW123499   9.507   1.408   9.697  2.1911  0.0416  0.4177
 6314SOL    HW223500   9.433   1.535   9.732  1.3696 -0.2660 -0.1749
 6315SOL     OW23501   4.141   7.132   2.024 -0.0223 -0.0210 -0.0501
 6315SOL    HW123502   4.149   7.189   2.100  1.2981  0.2748 -0.3733
 6315SOL    HW223503   4.141   7.192   1.949 -2.3877 -0.2335 -0.2935
 6316SOL     OW23504  10.119   7.702   5.972  0.0375  0.0295 -0.1711
 6316SOL    HW123505  10.107   7.618   6.017 -4.0586  1.1763  1.2678
 6316SOL    HW223506  10.140   7.764   6.042  0.7382  0.6590 -0.9149
 6317SOL     OW23507   5.984   4.322   8.132  0.5293  0.3452 -0.3154
 6317SOL    HW123508   6.031   4.355   8.055 -0.5551  1.6746 -0.4489
 6317SOL    HW223509   6.009   4.381   8.203  1.0056 -0.4762  0.2239
 6318SOL     OW23510  10.993   5.289   1.321  0.4001 -0.0370  0.1130
 6318SOL    HW123511  11.020   5.369   1.276 -0.1892 -0.3030 -0.7437
 6318SOL    HW223512  10.898   5.298   1.331  0.5638  0.1857  1.6699
 6319SOL     OW23513  11.556   9.490   1.601 -0.2797 -0.0732  0.1317
 6319SOL    HW123514  11.500   9.420   1.635  0.3679 -0.9012 -0.4554
 6319SOL    HW223515  11.500   9.568   1.603 -1.6636 -0.9635 -0.9326
 6320SOL     OW23516   7.397   5.043   5.681  0.4587  0.2553  0.0896
 6320SOL    HW123517   7.305   5.021   5.695  0.5164  0.3605  0.6800
 6320SOL    HW223518   7.443   4.960   5.691  0.4418  0.2257 -0.0745
 6321SOL     OW23519   4.447   2.498   9.172 -0.2299  0.6207  0.3800
 6321SOL    HW123520   4.376   2.557   9.198  0.2696  0.9141  1.1348
 6321SOL    HW223521   4.403   2.424   9.131 -0.7590  2.7068 -3.2210
 6322SOL     OW23522  11.315   8.081  10.578  0.4142  0.0957 -0.3216
 6322SOL    HW123523  11.270   8.084  10.494  0.8262 -1.6691 -0.6327
 6322SOL    HW223524  11.330   8.173  10.600 -1.3030  0.6579 -1.2887
 6323SOL     OW23525   4.120   5.977   6.417  0.1426  0.3400 -0.1967
 6323SOL    HW123526   4.040   6.002   6.463 -0.0190  0.9834 -0.8057
 6323SOL    HW223527   4.093   5.907   6.358  0.5401 -1.1471  1.3161
 6324SOL     OW23528   8.299   1.075  11.367 -0.2625 -0.1099  0.1234
 6324SOL    HW123529   8.331   1.163  11.383 -0.8334  0.1703 -0.2424
 6324SOL    HW223530   8.245   1.083  11.288 -0.8256 -0.6649  0.4439
 6325SOL     OW23531   4.936   5.664   5.051 -0.0044 -0.3996  0.6160
 6325SOL    HW123532   4.943   5.749   5.094 -0.0249  0.0480 -0.2346
 6325SOL    HW223533   4.841   5.649   5.043 -0.0010 -0.4134  0.6040
 6326SOL     OW23534   0.004   2.872   0.010  0.2244  0.0336  0.8077
 6326SOL    HW123535  -0.012   2.967   0.008  0.3227  0.0364 -0.5229
 6326SOL    HW223536  -0.071   2.837   0.057  0.6015  0.8368  2.0580
 6327SOL     OW23537  10.920   6.222   0.216  0.4989  0.2591 -0.2422
 6327SOL    HW123538  10.839   6.182   0.185  0.8353 -1.0850  0.5144
 6327SOL    HW223539  10.988   6.159   0.193  0.7991 -0.7355  2.9003
 6328SOL     OW23540   5.811   2.201   2.664 -0.2019  0.0454  0.0975
 6328SOL    HW123541   5.825   2.275   2.724 -0.4319  0.0091  0.1981
 6328SOL    HW223542   5.720   2.177   2.677  0.0206 -0.6111  0.4622
 6329SOL     OW23543   0.092   1.448   1.065  0.8308  0.3077 -0.0088
 6329SOL    HW123544   0.183   1.477   1.060  0.6571  0.7913 -0.4646
 6329SOL    HW223545   0.086   1.377   1.001  1.1823 -0.5573  0.8939
 6330SOL     OW23546   4.585   7.069   4.201 -0.7714  0.2820 -0.6654
 6330SOL    HW123547   4.528   7.097   4.129 -1.5905 -0.0985 -0.1732
 6330SOL    HW223548   4.528   7.067   4.278 -0.4139 -1.3378 -0.4065
 6331SOL     OW23549   9.779   8.984   3.774 -0.0356 -0.1698  0.3512
 6331SOL    HW123550   9.816   8.939   3.698 -0.5455  1.6692 -1.0511
 6331SOL    HW223551   9.855   9.025   3.816  0.6483 -3.2090  2.4109
 6332SOL     OW23552   5.407   8.115   8.258  0.0247  0.3537  0.7062
 6332SOL    HW123553   5.481   8.171   8.283  0.4795  0.0073  0.1839
 6332SOL    HW223554   5.441   8.026   8.269 -0.2437  0.1958  0.2470
 6333SOL     OW23555   9.516   2.249   5.634  0.2520 -0.2971  0.5577
 6333SOL    HW123556   9.466   2.308   5.578 -0.4979  0.3338  1.8361
 6333SOL    HW223557   9.592   2.224   5.581 -1.5985 -1.6515 -1.6362
 6334SOL     OW23558   6.188   5.603   8.852  0.0665  0.1699  0.8042
 6334SOL    HW123559   6.111   5.629   8.902  0.4199 -0.4035  1.6684
 6334SOL    HW223560   6.259   5.658   8.885  0.2824 -0.1416  0.8631
 6335SOL     OW23561   6.021   3.494   7.994 -0.3536  0.3325  0.5497
 6335SOL    HW123562   6.065   3.410   7.982  0.8643  1.0117  0.0872
 6335SOL    HW223563   5.979   3.511   7.910 -0.7198  0.1308  0.6884
 6336SOL     OW23564   2.895   8.216   5.600  0.3230  0.0972  0.0420
 6336SOL    HW123565   2.983   8.214   5.638  0.8328 -1.8099 -1.1582
 6336SOL    HW223566   2.890   8.301   5.557  1.1688  0.6607  0.9869
 6337SOL     OW23567   0.866  10.471   9.418 -0.0355  0.0511  1.0810
 6337SOL    HW123568   0.856  10.520   9.499 -0.1059  0.8362  0.6056
 6337SOL    HW223569   0.955  10.436   9.422 -0.0776 -0.0114  1.5439
 6338SOL     OW23570   8.353   4.283   0.675 -0.2734  0.7483 -0.3651
 6338SOL    HW123571   8.310   4.270   0.759  0.0473 -0.4288 -0.3645
 6338SOL    HW223572   8.400   4.366   0.684 -0.7613  0.9480  0.3867
 6339SOL     OW23573   8.247   0.783  12.081 -0.4359  0.3505 -0.2733
 6339SOL    HW123574   8.320   0.721  12.081 -0.7695 -0.0977  1.1959
 6339SOL    HW223575   8.251   0.826  11.996  1.1449 -0.1188 -0.4625
 6340SOL     OW23576   8.574   5.742   9.557  0.1315 -0.2784  0.3861
 6340SOL    HW123577   8.584   5.819   9.613  0.7928 -0.3282  0.3465
 6340SOL    HW223578   8.658   5.696   9.563 -1.1507 -2.6261  2.7808
 6341SOL     OW23579  10.676   2.206   2.081  0.4203 -0.2591 -0.1538
 6341SOL    HW123580  10.654   2.125   2.126 -0.9640  0.1411 -0.0536
 6341SOL    HW223581  10.761   2.189   2.041 -0.2258 -2.0517 -0.8604
 6342SOL     OW23582   9.772   6.554   2.531 -0.0818  0.2951  0.3715
 6342SOL    HW123583   9.792   6.636   2.577 -2.6148 -0.0410  2.2960
 6342SOL    HW223584   9.691   6.571   2.484 -0.2682 -0.9107  0.2165
 6343SOL     OW23585   3.584   2.877   0.785 -0.2487 -0.3909 -0.0519
 6343SOL    HW123586   3.511   2.925   0.745  0.4703  0.4377 -0.4103
 6343SOL    HW223587   3.625   2.830   0.712 -0.2573 -0.6412  0.1022
 6344SOL     OW23588   1.422  10.900   1.326  0.5937 -0.0695  0.2091
 6344SOL    HW123589   1.444  10.980   1.279  1.1687 -1.3386 -1.8183
 6344SOL    HW223590   1.506  10.856   1.339  0.3748 -0.0027  2.0131
 6345SOL     OW23591   1.039   7.195   0.096  0.2143  0.4586  0.0158
 6345SOL    HW123592   0.980   7.174   0.168  0.3181  0.2774  0.0479
 6345SOL    HW223593   0.986   7.183   0.017 -0.1079  1.3456  0.0884
 6346SOL     OW23594   4.142   6.430   3.445  0.4886 -0.6216  0.0603
 6346SOL    HW123595   4.193   6.501   3.408  2.3441 -1.6800  0.4190
 6346SOL    HW223596   4.070   6.473   3.491  2.1771  1.1290  1.2519
 6347SOL     OW23597   6.338   8.305   2.136  0.4318 -0.1767 -0.0356
 6347SOL    HW123598   6.381   8.311   2.222  0.1135 -0.2932  0.1335
 6347SOL    HW223599   6.283   8.228   2.142 -0.7128  0.6284  0.1744
 6348SOL     OW23600   3.732   6.088   4.770  0.4552  0.1252 -0.4222
 6348SOL    HW123601   3.722   6.153   4.701  1.0604 -0.2394 -0.8664
 6348SOL    HW223602   3.740   6.005   4.723  1.0526 -0.1095  0.0770
 6349SOL     OW23603   9.862   5.670   9.794 -0.0988 -0.3170 -0.1952
 6349SOL    HW123604   9.805   5.650   9.720  0.1460 -0.4666 -0.3453
 6349SOL    HW223605   9.841   5.761   9.816  0.4795  0.0469 -1.0510
 6350SOL     OW23606  11.836   3.034   0.101  0.4614  0.6485  0.4267
 6350SOL    HW123607  11.761   3.016   0.045  1.1772  0.6426 -0.5618
 6350SOL    HW223608  11.852   2.951   0.147  0.5649  0.2968 -0.2304
 6351SOL     OW23609   0.542   3.558   1.363 -0.2159 -0.1468  0.2888
 6351SOL    HW123610   0.521   3.505   1.286  0.1856  0.1210 -0.0073
 6351SOL    HW223611   0.616   3.513   1.404  1.1866  1.0382 -0.8567
 6352SOL     OW23612  10.268  11.578   5.122 -0.1222  1.0183  0.0110
 6352SOL    HW123613  10.263  11.662   5.168  0.4301  0.5666  0.9285
 6352SOL    HW223614  10.362  11.567   5.106 -0.3538  1.5672 -2.0278
 6353SOL     OW23615   5.056   8.939  10.071  0.5612 -0.4872  0.1566
 6353SOL    HW123616   5.122   8.926  10.003  1.3157 -1.5898  1.0682
 6353SOL    HW223617   5.105   8.969  10.147 -0.1295 -0.3094  0.5399
 6354SOL     OW23618   2.682  11.691   3.738  0.0145 -0.4907 -0.0018
 6354SOL    HW123619   2.689  11.768   3.793  0.2568 -0.9391  0.6046
 6354SOL    HW223620   2.683  11.725   3.648 -2.0032  0.3972  0.2560
 6355SOL     OW23621   4.357   0.047   4.038  0.4423  0.3867 -0.0262
 6355SOL    HW123622   4.308  -0.030   4.067  1.1147  0.6907  2.0277
 6355SOL    HW223623   4.300   0.088   3.973 -0.2857 -1.3755 -0.5768
 6356SOL     OW23624  11.549   0.880   7.608  0.2536 -0.0931  0.0314
 6356SOL    HW123625  11.519   0.875   7.699  2.2697  2.0573  0.9320
 6356SOL    HW223626  11.584   0.793   7.589 -1.0389 -0.8512  0.9495
 6357SOL     OW23627   4.338   2.070   5.899  0.0770  0.4105 -0.1365
 6357SOL    HW123628   4.325   2.152   5.852 -0.3655  0.3830 -0.0599
 6357SOL    HW223629   4.380   2.012   5.836  2.0950  1.2568  0.3175
 6358SOL     OW23630   5.847   0.202  11.961  0.4944 -0.5051  0.5954
 6358SOL    HW123631   5.886   0.124  11.923  0.9828 -0.9408  1.9133
 6358SOL    HW223632   5.922   0.258  11.985  0.1458  0.4887 -0.5453
 6359SOL     OW23633  10.878   1.766  10.172  0.3179 -0.1477  0.2250
 6359SOL    HW123634  10.810   1.827  10.143  1.9320  1.8389  0.3671
 6359SOL    HW223635  10.936   1.759  10.096  1.4503  0.4707  1.0047
 6360SOL     OW23636   1.357   4.434   4.718  0.2737 -0.4757  0.1827
 6360SOL    HW123637   1.335   4.436   4.811 -1.8061 -0.8739 -0.2492
 6360SOL    HW223638   1.359   4.341   4.697  1.0885 -0.3982 -0.1189
 6361SOL     OW23639   7.348   6.305   4.821  0.0442 -0.0913 -0.0711
 6361SOL    HW123640   7.276   6.333   4.765  0.9687  0.6510 -0.9472
 6361SOL    HW223641   7.379   6.386   4.862  0.8248 -0.2768 -0.2676
 6362SOL     OW23642   1.244  10.160   9.657 -0.1238 -0.1347 -0.8473
 6362SOL    HW123643   1.336  10.173   9.635 -0.3284  0.3316 -1.4619
 6362SOL    HW223644   1.222  10.075   9.621  0.3123 -0.6811  0.1450
 6363SOL     OW23645   1.161   7.270  10.127 -0.1142  0.1900 -0.3257
 6363SOL    HW123646   1.094   7.316  10.076  0.8939 -0.5982 -2.4912
 6363SOL    HW223647   1.207   7.339  10.174 -1.5983  0.8644  0.2059
 6364SOL     OW23648   0.604   4.809   8.035 -0.0735 -0.3745  0.4270
 6364SOL    HW123649   0.659   4.768   7.968  0.1591  0.7685 -0.0948
 6364SOL    HW223650   0.659   4.813   8.113  0.7135  1.0382 -0.1773
 6365SOL     OW23651   8.300   9.109   6.163  0.1907 -0.4021  0.0730
 6365SOL    HW123652   8.321   9.016   6.154  0.7306 -0.3422  0.7077
 6365SOL    HW223653   8.356   9.140   6.234 -0.3938  0.2839  0.2409
 6366SOL     OW23654   7.596   7.515   6.898 -0.8312 -0.4384  0.3266
 6366SOL    HW123655   7.567   7.426   6.878 -3.1780  0.2536  0.3736
 6366SOL    HW223656   7.661   7.534   6.830  0.2458 -2.3942  0.7240
 6367SOL     OW23657   2.684   0.454   4.390 -0.4392 -0.9776 -0.2928
 6367SOL    HW123658   2.619   0.422   4.454  1.6937 -3.6243  0.7629
 6367SOL    HW223659   2.760   0.476   4.443  0.1381  0.4413 -1.6569
 6368SOL     OW23660   0.781   9.694   3.162  0.3425 -0.3515 -0.1366
 6368SOL    HW123661   0.761   9.769   3.217 -0.2006 -0.6582  0.0897
 6368SOL    HW223662   0.721   9.701   3.088 -0.2630 -0.9920  0.2842
 6369SOL     OW23663  11.828   8.169   5.263  0.2729 -0.6579  0.0354
 6369SOL    HW123664  11.737   8.140   5.262  0.2989 -0.9223  1.8942
 6369SOL    HW223665  11.824   8.264   5.266 -0.1674 -0.6254  4.4636
 6370SOL     OW23666   8.263  11.806  10.584 -0.1484  0.6659  0.5191
 6370SOL    HW123667   8.271  11.724  10.634  0.8834  0.2131 -0.3396
 6370SOL    HW223668   8.181  11.796  10.535  0.8320 -0.6739 -0.9469
 6371SOL     OW23669   5.855   7.374   9.542 -0.1616 -0.1004 -0.3027
 6371SOL    HW123670   5.782   7.435   9.535  0.0261  0.1087 -0.4504
 6371SOL    HW223671   5.917   7.416   9.601  0.1727  0.0611 -0.7627
 6372SOL     OW23672  12.117  10.743   7.794  0.0499 -0.5287 -0.2871
 6372SOL    HW123673  12.088  10.809   7.856  1.9321  0.9349 -0.8522
 6372SOL    HW223674  12.123  10.789   7.711 -1.3058 -2.1660 -1.3584
 6373SOL     OW23675   2.557  10.684   4.480 -0.0132 -0.7298 -0.0455
 6373SOL    HW123676   2.597  10.745   4.418 -0.4198 -1.1088 -0.6900
 6373SOL    HW223677   2.483  10.646   4.433 -0.6506 -0.6469  0.8463
 6374SOL     OW23678   3.969   3.926   3.868  0.2243 -0.3477 -0.6412
 6374SOL    HW123679   3.993   3.991   3.802  0.6289 -0.4875 -0.6358
 6374SOL    HW223680   3.969   3.843   3.821  1.3783 -0.5672 -0.2898
 6375SOL     OW23681   4.463  11.433  10.529 -0.2907  0.2837 -0.0065
 6375SOL    HW123682   4.419  11.389  10.602  2.0544 -0.8040  0.8298
 6375SOL    HW223683   4.471  11.365  10.462 -1.7303  1.0681 -1.0425
 6376SOL     OW23684   6.171  11.184   5.548  0.0886 -0.4026 -0.8451
 6376SOL    HW123685   6.079  11.167   5.566  0.1621  0.0770  0.0398
 6376SOL    HW223686   6.207  11.098   5.525  0.5131 -1.6934  3.7278
 6377SOL     OW23687   4.675   2.278   4.348  0.1606  0.0186  0.3990
 6377SOL    HW123688   4.712   2.362   4.320  1.9015 -1.0518 -0.7762
 6377SOL    HW223689   4.610   2.257   4.281 -2.1233  1.5370  2.0410
 6378SOL     OW23690   0.650   5.804   3.950  0.3193  0.4388 -0.2072
 6378SOL    HW123691   0.638   5.794   3.856 -0.5335 -1.4857  0.0565
 6378SOL    HW223692   0.728   5.752   3.971 -1.3643 -2.0251  0.5242
 6379SOL     OW23693   7.784   0.741   8.668 -0.1317  0.2140 -0.6017
 6379SOL    HW123694   7.721   0.671   8.686 -0.8487  1.1941  0.8543
 6379SOL    HW223695   7.760   0.771   8.580 -1.3098  0.1628 -0.3147
 6380SOL     OW23696   5.418   0.179   0.290  0.3281  0.3603 -0.4391
 6380SOL    HW123697   5.378   0.263   0.309  0.1718  0.0635  0.6410
 6380SOL    HW223698   5.512   0.195   0.299  0.2707  0.2950  0.3576
 6381SOL     OW23699   2.851   3.631   6.605 -0.0273  0.2040  0.2130
 6381SOL    HW123700   2.940   3.664   6.616 -0.1953  1.2123 -1.1177
 6381SOL    HW223701   2.800   3.708   6.579 -1.4867 -0.1849  1.7389
 6382SOL     OW23702   3.423   4.025   9.692 -0.0019  0.1412  0.6703
 6382SOL    HW123703   3.430   4.078   9.613  0.0752  1.5215  1.5793
 6382SOL    HW223704   3.478   3.949   9.674  0.0724  0.4660 -0.5705
 6383SOL     OW23705   8.870   5.680   0.367  0.2847  0.1002  0.0332
 6383SOL    HW123706   8.833   5.632   0.441 -1.4176  0.5754 -0.4722
 6383SOL    HW223707   8.932   5.741   0.407  0.0948 -0.2959  0.9751
 6384SOL     OW23708   8.227  11.495   9.830 -0.6424 -0.0308  0.2087
 6384SOL    HW123709   8.261  11.414   9.868 -0.6846  0.5993  1.6708
 6384SOL    HW223710   8.255  11.563   9.891 -1.6199  0.9148 -0.3653
 6385SOL     OW23711   3.149   6.756   6.224  0.5384 -0.2300 -0.1151
 6385SOL    HW123712   3.071   6.724   6.269  0.5317  0.6157  0.4957
 6385SOL    HW223713   3.220   6.740   6.286  1.0820 -2.1685 -1.1698
 6386SOL     OW23714   8.415   4.100   8.910  0.1901 -0.0183  0.9603
 6386SOL    HW123715   8.395   4.191   8.892 -1.3462 -1.0493 -3.8624
 6386SOL    HW223716   8.497   4.083   8.863  0.1665 -1.2574  1.3227
 6387SOL     OW23717  11.513  11.445   6.450  0.3446 -0.0191 -0.3023
 6387SOL    HW123718  11.549  11.479   6.531  0.8610 -0.5945 -0.2836
 6387SOL    HW223719  11.517  11.349   6.459  1.0871 -0.1040 -1.2849
 6388SOL     OW23720   9.044   4.586   9.028 -0.0093 -0.0679 -0.4557
 6388SOL    HW123721   9.087   4.669   9.010 -1.9511  1.2591  0.6305
 6388SOL    HW223722   8.968   4.585   8.970 -0.1831 -0.9548 -0.2338
 6389SOL     OW23723   5.824   7.487  10.032  0.2675  0.4497  0.4526
 6389SOL    HW123724   5.900   7.428  10.038  0.3875  0.5602  0.0264
 6389SOL    HW223725   5.848   7.561  10.088  0.9369  0.9826 -0.5059
 6390SOL     OW23726  11.982  11.718   4.853 -0.1797 -0.4790 -0.2216
 6390SOL    HW123727  11.888  11.702   4.858 -0.6159  1.5260 -0.8495
 6390SOL    HW223728  11.998  11.785   4.919  0.2829  1.0780 -1.8274
 6391SOL     OW23729  11.603   5.367   7.474  0.3987 -0.1301  0.4511
 6391SOL    HW123730  11.580   5.449   7.430 -1.6182 -1.0666 -0.3885
 6391SOL    HW223731  11.679   5.335   7.426 -0.1427  0.1860 -0.6541
 6392SOL     OW23732   7.213   2.794   4.857  0.1180  0.1393  0.3056
 6392SOL    HW123733   7.244   2.862   4.917 -1.2220 -0.6383  1.9600
 6392SOL    HW223734   7.182   2.843   4.780  0.2157  1.3114  0.9776
 6393SOL     OW23735   6.111  11.437   3.894  0.0414  0.5040  0.2428
 6393SOL    HW123736   6.164  11.374   3.943 -0.0459  1.0953  1.1102
 6393SOL    HW223737   6.069  11.384   3.825  1.4572 -0.0395 -0.2453
 6394SOL     OW23738   4.488   8.473   5.085 -0.3915  0.0702  0.4024
 6394SOL    HW123739   4.503   8.505   4.996 -0.0717  2.1009  1.1378
 6394SOL    HW223740   4.393   8.461   5.090 -0.3285 -0.9777 -0.4746
 6395SOL     OW23741   3.572   0.642   8.272 -0.4501 -0.2218  0.0246
 6395SOL    HW123742   3.613   0.725   8.295 -1.3094  0.0304  0.7099
 6395SOL    HW223743   3.572   0.591   8.353 -2.0883  0.0618  0.2474
 6396SOL     OW23744   5.826   7.612   7.052 -0.4500  0.2521  0.8272
 6396SOL    HW123745   5.738   7.575   7.048 -0.1635 -0.5023  1.3578
 6396SOL    HW223746   5.869   7.564   7.122  0.0563  1.3499  1.2842
 6397SOL     OW23747   0.840   5.390   2.197 -0.4919  0.0477  0.0486
 6397SOL    HW123748   0.809   5.480   2.190 -0.7591 -0.1079 -0.8861
 6397SOL    HW223749   0.761   5.338   2.211 -0.4435 -0.1400 -0.3686
 6398SOL     OW23750   6.138   0.346   7.001 -0.0037  0.5441 -0.4131
 6398SOL    HW123751   6.135   0.262   6.955  2.3540 -0.1476  0.5162
 6398SOL    HW223752   6.193   0.402   6.946  2.3957 -0.1191  1.1281
 6399SOL     OW23753   7.928   0.256   1.476  0.4233  0.6748  0.2317
 6399SOL    HW123754   7.995   0.305   1.524  2.1356 -1.2448 -0.0584
 6399SOL    HW223755   7.858   0.320   1.459  0.9241  2.0889  2.9398
 6400SOL     OW23756   9.028   9.686   5.741  0.0718 -0.1056 -0.1799
 6400SOL    HW123757   9.042   9.739   5.820  0.2604  1.3306 -1.1511
 6400SOL    HW223758   8.992   9.603   5.774  1.5821 -0.1369  1.5477
 6401SOL     OW23759  12.011   9.296  11.432 -0.0292 -0.0641 -0.3713
 6401SOL    HW123760  12.018   9.334  11.345  1.0527  0.6462  0.0001
 6401SOL    HW223761  11.963   9.215  11.420 -2.4933  1.4115 -1.2122
 6402SOL     OW23762   0.219   1.914   6.870  0.3235  0.3843 -0.5266
 6402SOL    HW123763   0.283   1.863   6.821 -1.0587 -1.0306 -0.9538
 6402SOL    HW223764   0.135   1.891   6.831 -0.6735  0.5557  1.3839
 6403SOL     OW23765   1.984   2.576   7.237  0.3228  0.0025 -0.0679
 6403SOL    HW123766   1.943   2.654   7.200  1.1273  0.7237  0.5364
 6403SOL    HW223767   2.022   2.605   7.320 -0.2821 -1.2687  0.7033
 6404SOL     OW23768   9.600   4.112   0.202 -0.0561 -0.5485  0.1550
 6404SOL    HW123769   9.576   4.205   0.207  0.9201 -0.0167 -2.8088
 6404SOL    HW223770   9.524   4.066   0.237 -1.0150  1.3153  0.6972
 6405SOL     OW23771   7.648   6.099   6.800 -0.0590 -0.3385 -0.6459
 6405SOL    HW123772   7.675   6.010   6.821  0.7412 -0.2426 -1.2243
 6405SOL    HW223773   7.554   6.093   6.782 -0.1482 -0.9340  0.0101
 6406SOL     OW23774   5.315   9.066   0.273 -0.5161 -0.3734 -0.0512
 6406SOL    HW123775   5.299   8.973   0.253 -0.2152  0.1038 -3.1206
 6406SOL    HW223776   5.280   9.112   0.197  1.1191  1.8713  0.4691
 6407SOL     OW23777  10.907   8.410   6.223  0.1257  0.3291 -0.0155
 6407SOL    HW123778  10.956   8.353   6.163  0.3786  1.6971 -1.1611
 6407SOL    HW223779  10.841   8.352   6.262  1.3613 -1.0924  0.0647
 6408SOL     OW23780  10.786  11.025   8.810  0.1353  0.4681  0.5506
 6408SOL    HW123781  10.796  11.119   8.824  1.2780  0.1590  2.0926
 6408SOL    HW223782  10.740  11.018   8.726 -0.4616  2.3952  0.6640
 6409SOL     OW23783   3.199   7.856   7.221  0.3577  0.4005 -0.4108
 6409SOL    HW123784   3.132   7.817   7.164  0.1493  0.3913 -0.1635
 6409SOL    HW223785   3.169   7.835   7.310  0.8170  0.1905 -0.3044
 6410SOL     OW23786   5.339   4.627   3.144  0.0856 -0.7026 -0.9381
 6410SOL    HW123787   5.389   4.692   3.095 -1.0688  0.2899 -0.8505
 6410SOL    HW223788   5.301   4.676   3.217 -0.9420 -1.4332 -0.9554
 6411SOL     OW23789   6.936   4.243   4.603  0.3329 -0.0903 -0.2952
 6411SOL    HW123790   7.020   4.198   4.604  0.3017 -0.1565  0.5219
 6411SOL    HW223791   6.935   4.291   4.521  2.5511  2.4487  0.9862
 6412SOL     OW23792   0.829   0.903   0.237  0.3239  0.2311  0.2072
 6412SOL    HW123793   0.903   0.863   0.190  0.2123  0.6574 -0.3361
 6412SOL    HW223794   0.823   0.852   0.318 -0.4207 -1.5064 -0.8760
 6413SOL     OW23795   2.514   7.944   5.795 -0.2227  0.3205 -0.2200
 6413SOL    HW123796   2.585   7.886   5.769  0.0765  0.0078  1.2494
 6413SOL    HW223797   2.557   8.022   5.828 -0.6144  0.9663 -1.1766
 6414SOL     OW23798   5.143   3.933   1.054  0.0363  0.4171  0.1180
 6414SOL    HW123799   5.061   3.948   1.101  0.3421  1.0387  0.4675
 6414SOL    HW223800   5.152   4.010   0.996  0.1120  0.0972 -0.3015
 6415SOL     OW23801   8.998   6.245   7.970 -0.0649 -0.1659  0.6280
 6415SOL    HW123802   8.967   6.328   7.934 -0.7709 -0.9739 -0.7076
 6415SOL    HW223803   9.035   6.268   8.055 -1.2553  1.3515  0.7836
 6416SOL     OW23804   8.985   2.283   4.702 -0.0849  0.0992  0.2497
 6416SOL    HW123805   8.973   2.361   4.647  0.8714  0.8970  1.1430
 6416SOL    HW223806   8.959   2.312   4.790 -1.3140 -1.0777  0.3092
 6417SOL     OW23807   6.735   7.391   2.508  0.0602  0.2179 -0.0364
 6417SOL    HW123808   6.715   7.302   2.536  2.3709 -0.6576 -0.9007
 6417SOL    HW223809   6.801   7.422   2.571 -0.6428  1.3003  0.2019
 6418SOL     OW23810   0.169   1.140   0.412 -0.1624  0.0302 -0.1129
 6418SOL    HW123811   0.252   1.150   0.458 -0.5272 -1.0480  0.8396
 6418SOL    HW223812   0.137   1.054   0.439 -3.0287  1.5728  1.9235
 6419SOL     OW23813   6.793  11.249  10.457  0.0833 -0.1112 -0.0223
 6419SOL    HW123814   6.825  11.220  10.371 -0.3636  0.1048 -0.2691
 6419SOL    HW223815   6.722  11.188  10.478  0.8104 -0.7521  0.6439
 6420SOL     OW23816   9.794   0.857   9.207  0.1116  0.5162  0.5823
 6420SOL    HW123817   9.725   0.920   9.183  0.8315  1.0317 -0.1965
 6420SOL    HW223818   9.746   0.780   9.237 -0.8817  0.1639 -1.6772
 6421SOL     OW23819   8.389   9.854   1.402  0.4968 -0.5200  0.5981
 6421SOL    HW123820   8.444   9.931   1.419 -2.0054  1.8043 -0.9996
 6421SOL    HW223821   8.320   9.859   1.468  0.0704 -1.1743  0.2148
 6422SOL     OW23822   0.338   8.604   3.192  0.9695  0.8377 -0.3205
 6422SOL    HW123823   0.337   8.572   3.102  2.4539 -0.6791  0.1528
 6422SOL    HW223824   0.259   8.566   3.231  1.7785 -0.9302 -0.2650
 6423SOL     OW23825   0.117   2.706   2.230  0.4854 -0.0987 -0.9649
 6423SOL    HW123826   0.076   2.789   2.252  0.1927  0.5834 -3.7481
 6423SOL    HW223827   0.208   2.715   2.260  1.1038  2.2007 -3.1808
 6424SOL     OW23828   6.491   3.153   3.470  0.1684  0.0065 -0.4050
 6424SOL    HW123829   6.425   3.085   3.479  0.5152 -0.1400  1.3160
 6424SOL    HW223830   6.529   3.162   3.557  0.7304  1.8060 -0.7916
 6425SOL     OW23831   9.893  10.398  10.470 -0.4983  0.8639  0.1132
 6425SOL    HW123832   9.917  10.489  10.456  2.2862  0.1521 -0.3290
 6425SOL    HW223833   9.942  10.372  10.548  0.1437 -0.7069 -0.7827
 6426SOL     OW23834   8.995   5.493   0.127  0.7866  0.1716  0.2769
 6426SOL    HW123835   9.010   5.536   0.043  0.3455  0.3161  0.2668
 6426SOL    HW223836   9.002   5.564   0.191  1.7176 -0.0429  0.4238
 6427SOL     OW23837   7.880   4.120   4.501 -0.0038  0.2941  0.1058
 6427SOL    HW123838   7.952   4.058   4.493 -1.4907 -1.4750 -0.1702
 6427SOL    HW223839   7.903   4.174   4.578  1.9391  0.3144 -0.4343
 6428SOL     OW23840   2.204   9.313   6.469 -0.2927 -0.0786  0.7081
 6428SOL    HW123841   2.299   9.311   6.461  0.0311  1.0124  3.3517
 6428SOL    HW223842   2.172   9.278   6.386  2.3933 -0.3827 -0.2805
 6429SOL     OW23843   2.855   6.206   3.948 -0.2320  0.5570  0.2966
 6429SOL    HW123844   2.778   6.262   3.939 -0.5813  0.1613  0.7887
 6429SOL    HW223845   2.887   6.195   3.859 -0.2029  1.4683  0.1815
 6430SOL     OW23846   4.606  10.922   0.198  0.2108 -0.2766 -0.0878
 6430SOL    HW123847   4.677  10.979   0.227 -1.4583  0.5930  2.7131
 6430SOL    HW223848   4.596  10.943   0.105  3.0842  0.0617 -0.4139
 6431SOL     OW23849   8.908   7.738   7.209  0.1165 -0.0093  0.2062
 6431SOL    HW123850   8.897   7.760   7.116 -0.3778 -0.2489  0.2077
 6431SOL    HW223851   8.830   7.773   7.252 -0.2810 -1.0098  0.3310
 6432SOL     OW23852  10.916   2.681   8.480 -0.4886  0.1574  0.4417
 6432SOL    HW123853  10.988   2.737   8.450  0.8716 -1.4552  0.5468
 6432SOL    HW223854  10.837   2.732   8.462  0.4208  0.6850 -2.8735
 6433SOL     OW23855   9.953   1.353   3.128  0.0427 -0.1219  0.4506
 6433SOL    HW123856   9.944   1.433   3.077 -2.9119 -0.4145  0.3607
 6433SOL    HW223857   9.953   1.283   3.063  0.3209 -0.3028  0.6447
 6434SOL     OW23858   4.441   2.932   0.883  0.3469  0.4410  0.5244
 6434SOL    HW123859   4.377   2.998   0.910  0.6560  1.3729 -0.9184
 6434SOL    HW223860   4.492   2.974   0.815  1.0119 -1.0752  0.0363
 6435SOL     OW23861   5.341   0.597   8.738 -0.1147  0.0941  0.3792
 6435SOL    HW123862   5.371   0.662   8.801 -0.1228  0.0285  0.4505
 6435SOL    HW223863   5.399   0.607   8.663 -0.6613  0.7802  0.0408
 6436SOL     OW23864   9.147   2.181   9.863 -0.3643  0.1326  0.1368
 6436SOL    HW123865   9.234   2.205   9.831 -0.8593  0.8040 -0.7545
 6436SOL    HW223866   9.087   2.208   9.793 -1.2389 -0.8888  0.4591
 6437SOL     OW23867   4.610   7.855   2.006 -0.2612 -0.6005  0.6140
 6437SOL    HW123868   4.665   7.839   1.929  0.6658 -0.0124  1.1396
 6437SOL    HW223869   4.570   7.940   1.990  1.5120  0.5036  1.6374
 6438SOL     OW23870   1.129   7.325   6.460 -0.4046 -0.4233 -0.5419
 6438SOL    HW123871   1.100   7.236   6.479 -1.0416 -0.2964 -0.8882
 6438SOL    HW223872   1.048   7.376   6.459 -0.4855 -0.4199 -3.5760
 6439SOL     OW23873   6.237   5.302   7.793 -0.0997  0.2775  0.0691
 6439SOL    HW123874   6.224   5.354   7.873 -0.4809  1.0112 -0.4584
 6439SOL    HW223875   6.326   5.269   7.800 -0.2593  0.0042  0.9840
 6440SOL     OW23876  11.911   4.369   8.223 -0.4758  0.1755  0.2897
 6440SOL    HW123877  11.954   4.375   8.138 -0.9336  0.6013  0.0819
 6440SOL    HW223878  11.939   4.284   8.258 -0.3159 -0.0208 -0.2967
 6441SOL     OW23879   8.110   8.709   4.856  0.0026 -0.1358 -0.2644
 6441SOL    HW123880   8.172   8.770   4.895 -1.3177 -0.0037  1.7945
 6441SOL    HW223881   8.144   8.623   4.878  0.3043 -0.0900 -0.5527
 6442SOL     OW23882   1.125  10.042   5.497 -0.2535 -0.1752  0.0051
 6442SOL    HW123883   1.121  10.013   5.588 -0.3203  1.4495  0.5494
 6442SOL    HW223884   1.214  10.073   5.485  0.3412 -2.0955 -1.0902
 6443SOL     OW23885  10.579   1.188   8.876 -0.1604 -0.3086 -0.1904
 6443SOL    HW123886  10.530   1.264   8.845  1.6845  0.9459 -0.1670
 6443SOL    HW223887  10.526   1.153   8.948 -1.1543  0.8267 -0.3520
 6444SOL     OW23888   0.440  11.617   7.618 -0.7116 -0.3249 -0.5929
 6444SOL    HW123889   0.521  11.618   7.567  0.1340  1.2792  0.7182
 6444SOL    HW223890   0.426  11.524   7.640  0.9928 -0.5767 -0.4905
 6445SOL     OW23891  12.100  10.948   0.605 -0.1358 -0.2043  0.3393
 6445SOL    HW123892  12.042  10.890   0.654 -0.5049 -0.5416 -0.4672
 6445SOL    HW223893  12.188  10.916   0.626 -0.1867  0.6382  1.9745
 6446SOL     OW23894   1.575   6.425   6.204 -0.1174 -0.7627  0.4293
 6446SOL    HW123895   1.494   6.406   6.156 -0.0505 -0.4122  0.1786
 6446SOL    HW223896   1.565   6.379   6.288 -0.9398 -0.0152  0.7464
 6447SOL     OW23897   2.085   5.704   9.782 -0.2374 -0.8653 -0.1127
 6447SOL    HW123898   2.121   5.789   9.805 -1.4924 -0.4947  0.5615
 6447SOL    HW223899   2.018   5.723   9.716 -2.0332 -1.0283  1.5662
 6448SOL     OW23900   7.653   5.065   9.910  0.0952  0.4473 -0.5167
 6448SOL    HW123901   7.582   5.062   9.975  3.0984  0.3562  3.1040
 6448SOL    HW223902   7.679   5.157   9.908  3.0345 -0.1176  2.3229
 6449SOL     OW23903   1.358   2.198   0.575  0.1364 -0.3694 -0.3307
 6449SOL    HW123904   1.368   2.150   0.657 -1.3809 -0.3939 -0.1299
 6449SOL    HW223905   1.341   2.131   0.509  0.0178 -0.2580 -0.4149
 6450SOL     OW23906  10.608   5.667   7.888  0.2649  0.0387  0.0742
 6450SOL    HW123907  10.663   5.652   7.965  2.4087  2.3657 -0.8800
 6450SOL    HW223908  10.659   5.633   7.815 -0.1017  1.1385 -0.7172
 6451SOL     OW23909   2.477   0.999   5.676 -0.2940  0.5936  0.6906
 6451SOL    HW123910   2.508   0.933   5.738  0.1354  1.0143  0.9324
 6451SOL    HW223911   2.381   0.998   5.685 -0.2646  0.2796  0.9767
 6452SOL     OW23912   1.576  11.751   9.753 -0.0867  0.6841 -0.0057
 6452SOL    HW123913   1.594  11.785   9.665  0.2076  3.5196  1.0432
 6452SOL    HW223914   1.526  11.671   9.738 -0.3174  1.2386 -2.7341
 6453SOL     OW23915   6.758   9.264   6.310  0.4683  0.1409 -0.9873
 6453SOL    HW123916   6.820   9.194   6.332 -0.8197 -0.7432  0.0258
 6453SOL    HW223917   6.706   9.228   6.238  0.1386  0.2656 -0.8118
 6454SOL     OW23918  10.485   9.584   9.668  0.7896  0.6773 -0.4469
 6454SOL    HW123919  10.529   9.572   9.583  0.6498  0.1489 -0.4437
 6454SOL    HW223920  10.543   9.643   9.716  1.4159  0.1195 -0.5061
 6455SOL     OW23921   5.497   1.401   4.524  0.6344 -0.0013  0.0792
 6455SOL    HW123922   5.575   1.400   4.580  0.4355 -1.9057  0.4075
 6455SOL    HW223923   5.532   1.394   4.435  0.8842  0.9188  0.0992
 6456SOL     OW23924   9.030  11.236   1.309  0.0722  0.0574  0.0802
 6456SOL    HW123925   9.065  11.248   1.397  0.1852  0.8128 -0.0629
 6456SOL    HW223926   9.010  11.143   1.303  0.0096  0.0161  0.9263
 6457SOL     OW23927   2.691   9.945   9.506  0.0197  0.5627 -0.4550
 6457SOL    HW123928   2.694  10.035   9.540 -3.0610  0.5176  0.2447
 6457SOL    HW223929   2.602   9.916   9.524  0.7076 -2.4235 -1.3233
 6458SOL     OW23930   2.648  11.579   3.406  0.3454  0.3618  0.1761
 6458SOL    HW123931   2.662  11.606   3.315  2.7499  1.0204  0.6697
 6458SOL    HW223932   2.571  11.629   3.434 -1.1197 -0.6736 -1.7554
 6459SOL     OW23933   7.617  10.642  10.778  0.0267 -0.4269 -0.5404
 6459SOL    HW123934   7.605  10.570  10.840  0.6308  0.0601  0.1464
 6459SOL    HW223935   7.700  10.682  10.802 -0.9095  1.3254 -0.0628
 6460SOL     OW23936  10.782   5.459   4.394 -0.2995 -0.0424  0.3138
 6460SOL    HW123937  10.844   5.526   4.365  0.1374  0.5573  2.4619
 6460SOL    HW223938  10.707   5.469   4.335  0.5686  0.9696 -0.6699
 6461SOL     OW23939   5.474  10.412   9.570 -0.0296  0.8387 -0.0246
 6461SOL    HW123940   5.456  10.321   9.594 -0.8540  1.3320  1.3482
 6461SOL    HW223941   5.567  10.424   9.588  0.1192  0.2288 -0.3696
 6462SOL     OW23942   0.197   3.602   2.602  0.2960  0.1429  0.2195
 6462SOL    HW123943   0.261   3.627   2.536  0.4807  0.7247  0.6118
 6462SOL    HW223944   0.248   3.553   2.667 -0.0258 -1.1150 -0.4442
 6463SOL     OW23945   7.024   8.239   8.728  0.6133 -0.1599  0.1863
 6463SOL    HW123946   7.034   8.168   8.792  1.1303  0.9963  1.4257
 6463SOL    HW223947   7.072   8.312   8.766  1.8518  0.2668 -2.0259
 6464SOL     OW23948   0.056   1.637   7.654  0.2970  0.2482  0.7182
 6464SOL    HW123949  -0.010   1.700   7.683  0.7367  1.4736 -0.8327
 6464SOL    HW223950   0.067   1.578   7.729 -0.6068  1.6137  1.9846
 6465SOL     OW23951   2.489   5.492  10.087 -0.0894  0.2631 -0.6546
 6465SOL    HW123952   2.525   5.403  10.084  0.1505  0.1028  2.8446
 6465SOL    HW223953   2.396   5.481  10.071  0.1012 -0.4727 -1.3251
 6466SOL     OW23954   9.965   0.815   8.268  1.1284  0.3192 -0.1161
 6466SOL    HW123955   9.891   0.813   8.208  1.1720  0.1287 -0.1626
 6466SOL    HW223956   9.945   0.887   8.329  1.2558  0.7527 -0.5781
 6467SOL     OW23957   2.288   9.516   6.241 -0.4646  0.1367  0.4090
 6467SOL    HW123958   2.237   9.575   6.185  0.5363  0.2266 -0.4270
 6467SOL    HW223959   2.233   9.438   6.250 -1.2965  0.7235  0.5760
 6468SOL     OW23960   0.494   0.867  10.782 -0.3987 -0.3870  0.0474
 6468SOL    HW123961   0.405   0.844  10.756 -0.8893  0.8433  0.5891
 6468SOL    HW223962   0.491   0.871  10.877  0.3120 -0.6048  0.0834
 6469SOL     OW23963   2.715   4.487   8.971  0.0466 -0.0007  0.0125
 6469SOL    HW123964   2.805   4.467   8.946  0.2058  3.0661 -2.4807
 6469SOL    HW223965   2.719   4.502   9.066  2.3747  0.8543 -0.1594
 6470SOL     OW23966   4.427   3.341   4.335 -0.2713 -0.1397  0.9308
 6470SOL    HW123967   4.372   3.379   4.267  1.3738 -0.5311 -0.7175
 6470SOL    HW223968   4.474   3.416   4.373  0.4403 -0.1268  0.0596
 6471SOL     OW23969   4.592  11.689   8.403  0.7838  0.3856 -0.0271
 6471SOL    HW123970   4.662  11.672   8.466 -1.5417 -0.2911  2.6033
 6471SOL    HW223971   4.556  11.603   8.383 -0.8426  0.8463  0.6957
 6472SOL     OW23972   5.617   1.448   9.411  0.3900 -0.4643  0.3983
 6472SOL    HW123973   5.559   1.518   9.379 -0.4827 -0.7113  1.3787
 6472SOL    HW223974   5.655   1.410   9.332 -0.1016  0.2945 -0.2172
 6473SOL     OW23975   6.368   5.022   3.964  0.4418  0.3871  0.2386
 6473SOL    HW123976   6.318   5.104   3.964  0.6507  0.5154  0.4178
 6473SOL    HW223977   6.453   5.046   3.926  0.3585  0.1622 -0.0992
 6474SOL     OW23978   7.956   5.043   7.414 -0.2564 -0.0238  0.5978
 6474SOL    HW123979   8.004   4.973   7.458 -1.1753  0.0472  1.7614
 6474SOL    HW223980   8.011   5.066   7.338  1.0380 -0.6260  1.3173
 6475SOL     OW23981   8.800  10.631   9.579  0.2090  0.0534  0.2620
 6475SOL    HW123982   8.751  10.578   9.516 -0.3589  0.4477  0.3687
 6475SOL    HW223983   8.891  10.623   9.550 -0.2724  2.4698 -2.3532
 6476SOL     OW23984   5.631   0.104   9.888 -0.0402 -0.0493 -0.0512
 6476SOL    HW123985   5.704   0.129   9.944 -0.4086 -0.0339  0.4322
 6476SOL    HW223986   5.564   0.072   9.949 -1.0305  1.3711 -0.3342
 6477SOL     OW23987   5.149  10.220   9.920 -0.2443 -0.3223  0.3909
 6477SOL    HW123988   5.138  10.219  10.015 -0.4688 -1.9495  0.3742
 6477SOL    HW223989   5.244  10.224   9.907 -0.1633 -1.1679  0.6999
 6478SOL     OW23990   3.120   1.713   0.412  0.0769  0.4864  0.4564
 6478SOL    HW123991   3.037   1.756   0.434  0.1693  0.3327  1.1248
 6478SOL    HW223992   3.182   1.743   0.478  0.6831  0.9624 -0.3110
 6479SOL     OW23993  11.354   0.928  10.636 -0.3972 -0.2773 -0.7324
 6479SOL    HW123994  11.424   0.875  10.598 -0.2751  0.0542 -0.9765
 6479SOL    HW223995  11.305   0.867  10.691  1.2018 -0.1141  0.9662
 6480SOL     OW23996   6.346   0.509   0.724 -0.2474 -0.2950  0.0882
 6480SOL    HW123997   6.282   0.565   0.681  0.2244 -0.3002 -0.6357
 6480SOL    HW223998   6.341   0.534   0.817 -1.0041 -0.0226 -0.0188
 6481SOL     OW23999   2.887   1.684   8.367 -0.1771  0.0142  0.1246
 6481SOL    HW124000   2.936   1.697   8.449 -0.0760 -1.0260  0.2383
 6481SOL    HW224001   2.952   1.650   8.306 -0.6616 -1.0639  0.1816
 6482SOL     OW24002   3.264   8.355   8.690  0.0751  0.3636  0.4934
 6482SOL    HW124003   3.263   8.283   8.627  0.1468 -0.6675  1.6361
 6482SOL    HW224004   3.349   8.397   8.677  1.2201 -1.4587  1.6195
 6483SOL     OW24005   1.918   1.988   0.173  0.4093 -0.2853  0.7247
 6483SOL    HW124006   1.909   1.988   0.077  0.6291 -0.9026  0.7030
 6483SOL    HW224007   1.970   2.066   0.192 -0.3569  0.3110  0.4129
 6484SOL     OW24008   5.859   0.319  10.985  0.6009  0.2955 -0.2339
 6484SOL    HW124009   5.931   0.256  10.990  0.3705  0.0558  0.1161
 6484SOL    HW224010   5.902   0.404  10.973  1.1361  0.6061  3.0732
 6485SOL     OW24011   8.246   8.307   0.113  0.2195 -0.4030  0.7409
 6485SOL    HW124012   8.329   8.301   0.161  0.9600  0.1896 -0.4026
 6485SOL    HW224013   8.226   8.217   0.087  0.8798 -0.4774  0.4507
 6486SOL     OW24014  10.977   5.199   2.761  0.3452 -0.0447  0.2753
 6486SOL    HW124015  11.018   5.121   2.724  0.8169  0.9935 -1.4922
 6486SOL    HW224016  10.947   5.249   2.685 -1.2734  0.8127  1.4146
 6487SOL     OW24017   0.954   2.337   1.958  0.7316 -0.0585  0.0642
 6487SOL    HW124018   0.898   2.399   2.006  0.9447  0.1682  0.0226
 6487SOL    HW224019   0.907   2.321   1.876  1.5887  1.5616 -0.7919
 6488SOL     OW24020   5.515   2.724   1.728 -0.2884 -0.2151 -0.4491
 6488SOL    HW124021   5.577   2.790   1.760 -0.1731 -0.0117 -1.0763
 6488SOL    HW224022   5.548   2.701   1.641 -0.0888 -1.4100 -0.0729
 6489SOL     OW24023   5.372   5.944   5.403 -0.7948  0.8746 -0.1669
 6489SOL    HW124024   5.328   6.019   5.442  0.8773  1.5772  0.4826
 6489SOL    HW224025   5.419   5.981   5.328 -1.0164  0.2180 -0.6330
 6490SOL     OW24026   3.437   9.801   4.577  0.3898 -0.7525  0.6288
 6490SOL    HW124027   3.471   9.853   4.505 -0.6951 -0.1459  0.5330
 6490SOL    HW224028   3.402   9.722   4.536 -0.0576 -0.4932  0.5070
 6491SOL     OW24029   5.683   6.385   6.137  0.5493 -0.2133  0.2935
 6491SOL    HW124030   5.634   6.414   6.214  0.1074 -0.2896  0.0480
 6491SOL    HW224031   5.757   6.336   6.173 -0.5392 -1.6737  0.6723
 6492SOL     OW24032   7.425  10.075  11.036 -0.3839  0.1234  0.3058
 6492SOL    HW124033   7.415   9.980  11.038 -0.1846  0.1043  0.3142
 6492SOL    HW224034   7.341  10.107  11.001 -1.3755  0.0800  2.4757
 6493SOL     OW24035   9.931   2.308   8.779  0.4787  0.0361 -0.2791
 6493SOL    HW124036   9.982   2.293   8.700  1.7643  0.8099  0.3512
 6493SOL    HW224037   9.984   2.270   8.849 -0.7132 -0.7792  0.1992
 6494SOL     OW24038   8.734   1.123   7.545 -0.2251  0.6335 -0.4954
 6494SOL    HW124039   8.678   1.046   7.541 -2.2919  1.9871  0.7768
 6494SOL    HW224040   8.819   1.089   7.575 -1.0251 -1.1710 -0.1371
 6495SOL     OW24041   9.165  10.416   4.960 -0.4427 -0.0090  0.3546
 6495SOL    HW124042   9.109  10.339   4.976 -0.2400 -0.1305  0.4841
 6495SOL    HW224043   9.210  10.431   5.043  0.4768 -0.5336 -0.0307
 6496SOL     OW24044   7.002   0.860  11.316  0.4350 -0.5354 -0.2462
 6496SOL    HW124045   6.965   0.938  11.357  1.5156 -0.2301  0.1832
 6496SOL    HW224046   7.095   0.879  11.306  0.8429 -1.9892  0.4090
 6497SOL     OW24047  10.937   5.839  10.678 -0.0625  0.1402  0.2090
 6497SOL    HW124048  10.921   5.934  10.681  2.1134  0.6036 -0.8272
 6497SOL    HW224049  10.978   5.824  10.593  2.7015 -1.1583  1.6405
 6498SOL     OW24050   3.894   9.331  10.764  0.1036  0.0919 -0.0404
 6498SOL    HW124051   3.896   9.242  10.799  3.1582  0.1189  0.0834
 6498SOL    HW224052   3.842   9.324  10.683  1.1559 -2.0292 -0.5900
 6499SOL     OW24053   7.831   8.665   3.018 -0.1282  0.2607 -0.1214
 6499SOL    HW124054   7.857   8.629   2.933 -0.3934  1.1296 -0.5814
 6499SOL    HW224055   7.909   8.711   3.049 -0.8970  2.5155 -1.3121
 6500SOL     OW24056   3.152   9.378   2.003 -1.0277 -0.0876  0.3282
 6500SOL    HW124057   3.231   9.324   2.009 -0.5675  0.4617 -0.6470
 6500SOL    HW224058   3.105   9.361   2.085  0.1867 -0.2847  0.9953
 6501SOL     OW24059   7.439   4.171   7.513  0.3429 -0.2931  0.0266
 6501SOL    HW124060   7.346   4.190   7.508 -0.1045 -1.6051  2.1866
 6501SOL    HW224061   7.467   4.163   7.422 -2.2534 -2.6279 -0.6954
 6502SOL     OW24062   7.624   1.291   0.101 -0.2545 -0.0203 -0.2703
 6502SOL    HW124063   7.591   1.210   0.063 -2.5629  0.1129  1.2758
 6502SOL    HW224064   7.636   1.271   0.194  2.7897  0.3941 -0.4706
 6503SOL     OW24065   5.620   3.169   6.543 -0.0070  0.2977  0.2184
 6503SOL    HW124066   5.699   3.218   6.567 -0.1481  1.1373 -0.9377
 6503SOL    HW224067   5.574   3.227   6.482 -1.5564 -0.1548  0.9228
 6504SOL     OW24068   8.260  10.810   3.685 -0.0669 -0.7373  0.1789
 6504SOL    HW124069   8.316  10.768   3.749 -0.2112 -1.0068  0.1309
 6504SOL    HW224070   8.171  10.792   3.716 -0.2011 -2.4096 -1.0344
 6505SOL     OW24071   5.730   7.865   9.626 -0.3819 -0.4011  0.3489
 6505SOL    HW124072   5.676   7.935   9.590  0.1923 -0.0475  0.1616
 6505SOL    HW224073   5.671   7.817   9.684 -1.9402 -2.1752 -2.4307
 6506SOL     OW24074   1.234   3.750   7.078 -0.0874  0.0438  0.0228
 6506SOL    HW124075   1.239   3.686   7.007 -0.9172  1.3883 -1.3021
 6506SOL    HW224076   1.293   3.821   7.051 -0.5514  0.6601  0.5794
 6507SOL     OW24077   1.229  12.041   1.662 -0.1315 -0.3585  0.0882
 6507SOL    HW124078   1.239  12.136   1.653 -1.0305 -0.2034  0.5711
 6507SOL    HW224079   1.243  12.024   1.755 -1.9452 -0.3965  0.4031
 6508SOL     OW24080   2.478   5.857  10.090  0.0682 -0.0868  0.1201
 6508SOL    HW124081   2.455   5.808  10.170  0.2125 -2.4393 -1.1797
 6508SOL    HW224082   2.394   5.866  10.044 -0.0397  1.4047  0.5624
 6509SOL     OW24083   9.731   6.160   0.728 -0.7093 -0.0757  0.0230
 6509SOL    HW124084   9.737   6.254   0.745 -0.2540 -0.0549 -0.2409
 6509SOL    HW224085   9.798   6.121   0.784 -0.8068 -0.2300  0.0311
 6510SOL     OW24086   7.974   9.856   1.706  0.5519  0.4975  0.2779
 6510SOL    HW124087   7.944   9.771   1.675  2.4706  0.7489 -2.7778
 6510SOL    HW224088   7.895   9.908   1.716 -0.5008 -1.0055  0.0447
 6511SOL     OW24089   6.537   4.892  10.124  0.0781  0.1210  0.3696
 6511SOL    HW124090   6.578   4.830  10.184 -0.0439 -0.4065 -0.0783
 6511SOL    HW224091   6.444   4.871  10.128  0.1348 -0.3566 -0.4686
 6512SOL     OW24092   2.870   4.028   7.676  0.3051  0.6747  0.6357
 6512SOL    HW124093   2.892   3.980   7.756 -0.5546 -1.3245 -0.2731
 6512SOL    HW224094   2.816   4.101   7.705  1.0872  0.7476  1.9873
 6513SOL     OW24095   7.749  10.677   5.039 -0.1008  0.4137 -0.2215
 6513SOL    HW124096   7.687  10.618   4.996 -0.1220  1.7083 -2.0640
 6513SOL    HW224097   7.821  10.685   4.977  0.4548  1.3659  0.5278
 6514SOL     OW24098   6.833   1.944   0.733 -0.1145  0.0021 -0.2968
 6514SOL    HW124099   6.920   1.923   0.700 -0.4657  0.0933 -1.3423
 6514SOL    HW224100   6.780   1.867   0.711 -0.5085  0.3418 -0.5554
 6515SOL     OW24101   9.658   2.866   2.616 -0.1092  0.0193  0.5581
 6515SOL    HW124102   9.581   2.922   2.607 -0.9009 -1.0554  0.3457
 6515SOL    HW224103   9.654   2.833   2.705  0.8461  0.9742  0.9680
 6516SOL     OW24104   4.727   9.981   3.282  0.0984  0.2506 -0.1000
 6516SOL    HW124105   4.799   9.918   3.284 -0.1459 -0.0570 -0.7055
 6516SOL    HW224106   4.653   9.934   3.321  0.4434  0.8775  1.3947
 6517SOL     OW24107   4.307  10.984   6.336  0.1748 -0.2579 -0.3076
 6517SOL    HW124108   4.385  11.015   6.291 -0.3524 -0.3430 -1.2906
 6517SOL    HW224109   4.324  11.004   6.429  1.4005 -0.3737 -0.4883
 6518SOL     OW24110   5.631   2.053   1.280  0.3784 -0.3333 -0.1350
 6518SOL    HW124111   5.708   2.077   1.330  0.5720 -1.5013  0.1680
 6518SOL    HW224112   5.569   2.020   1.345  0.0446 -0.4278 -0.4954
 6519SOL     OW24113   7.693   1.221   0.829  0.4385 -0.1051  0.0660
 6519SOL    HW124114   7.617   1.164   0.839 -0.0337  0.5083 -0.0081
 6519SOL    HW224115   7.699   1.235   0.734  1.6607 -1.5097 -0.1065
 6520SOL     OW24116   3.082   8.938   8.455  0.3604 -0.5101 -0.1526
 6520SOL    HW124117   3.035   8.895   8.384  1.0823 -1.4222 -0.0973
 6520SOL    HW224118   3.043   9.025   8.461  0.1753 -0.4841 -1.5431
 6521SOL     OW24119   9.906   8.108   5.857  0.4972  0.0835 -0.5334
 6521SOL    HW124120   9.943   8.135   5.942 -0.8077  0.0874  0.0696
 6521SOL    HW224121   9.838   8.173   5.840 -0.4616 -0.9366 -0.6954
 6522SOL     OW24122  10.700   4.883   0.840  0.1814 -0.4987 -0.5879
 6522SOL    HW124123  10.773   4.928   0.882 -0.4059 -0.7204  0.6901
 6522SOL    HW224124  10.707   4.909   0.748  0.8647  0.8397 -0.1917
 6523SOL     OW24125   2.913   3.880   2.560 -0.2204  0.4207  0.3404
 6523SOL    HW124126   2.827   3.919   2.542 -0.1500  0.4875  0.1518
 6523SOL    HW224127   2.920   3.881   2.655 -0.2080  0.8840  0.3355
 6524SOL     OW24128   3.027   4.605   5.708 -0.8474  0.5541  0.1573
 6524SOL    HW124129   3.116   4.619   5.674 -0.3369 -0.7226  0.8953
 6524SOL    HW224130   3.015   4.510   5.705 -2.4362  0.7496 -0.4880
 6525SOL     OW24131   9.412   5.402   9.677 -0.0739  0.6207 -0.7117
 6525SOL    HW124132   9.417   5.497   9.688  3.0813  0.5645 -0.7373
 6525SOL    HW224133   9.391   5.369   9.765  0.8368  1.2633 -0.2389
 6526SOL     OW24134   0.130   5.451   5.798  0.1332  0.0540 -0.3003
 6526SOL    HW124135   0.130   5.420   5.707 -1.1983  0.2453 -0.3829
 6526SOL    HW224136   0.073   5.389   5.844  3.6876 -2.3787  1.2983
 6527SOL     OW24137   9.623   9.250   8.973 -0.0655 -0.0437 -0.2281
 6527SOL    HW124138   9.585   9.327   9.014  0.5622  0.1853 -0.0769
 6527SOL    HW224139   9.717   9.260   8.983  0.0029 -1.8950  1.7684
 6528SOL     OW24140   3.763   3.057   6.494 -0.1230  0.1286  0.1817
 6528SOL    HW124141   3.761   3.072   6.399  0.1001  2.0299  0.4437
 6528SOL    HW224142   3.686   3.104   6.527 -1.5990 -2.4742  0.7548
 6529SOL     OW24143   4.114   0.966   2.990  0.6190  0.5229  0.7317
 6529SOL    HW124144   4.179   1.025   2.951  1.7274 -0.7812  0.5160
 6529SOL    HW224145   4.113   0.989   3.083 -0.2864  2.0554  0.3724
 6530SOL     OW24146   2.597   7.674  11.732  0.5691  0.6280 -0.8169
 6530SOL    HW124147   2.572   7.665  11.640 -0.6210 -0.2350 -0.4381
 6530SOL    HW224148   2.514   7.687  11.778  1.0334 -0.0975  0.2643
 6531SOL     OW24149   1.560   8.636   9.268 -0.0217  0.5946  0.4382
 6531SOL    HW124150   1.520   8.708   9.318 -2.3499  2.2687 -3.3623
 6531SOL    HW224151   1.607   8.680   9.197 -1.2573 -1.4950 -1.8420
 6532SOL     OW24152   9.515   1.142   6.127 -0.5777  0.5340  0.3865
 6532SOL    HW124153   9.562   1.129   6.044  0.9496  2.7647  0.7896
 6532SOL    HW224154   9.466   1.062   6.140  1.3932 -1.0609 -1.2582
 6533SOL     OW24155  10.892   8.622   2.426  0.2758 -0.0045 -0.1636
 6533SOL    HW124156  10.877   8.665   2.510 -0.2703  1.3798 -0.9392
 6533SOL    HW224157  10.983   8.594   2.429  0.5975  1.0614  0.4454
 6534SOL     OW24158   1.433   6.672   4.374 -0.1343 -0.1060  0.2965
 6534SOL    HW124159   1.430   6.577   4.365 -1.7502  0.0042 -0.9032
 6534SOL    HW224160   1.447   6.704   4.285 -0.7503  0.7863  0.4958
 6535SOL     OW24161  11.126   1.736   0.587  0.4803 -0.2200 -0.4253
 6535SOL    HW124162  11.111   1.831   0.584  0.2925 -0.2169  0.3579
 6535SOL    HW224163  11.038   1.698   0.584  0.6113 -0.4886 -3.3606
 6536SOL     OW24164   2.910  11.577   2.685  0.0679  0.1779 -0.0846
 6536SOL    HW124165   2.927  11.647   2.749  1.5254  1.0501 -1.3509
 6536SOL    HW224166   2.996  11.538   2.669 -0.8626 -2.8696  1.5485
 6537SOL     OW24167   0.809   6.716   7.225 -0.0949 -0.5235 -0.2887
 6537SOL    HW124168   0.747   6.656   7.264  0.1838 -0.9470 -0.4900
 6537SOL    HW224169   0.895   6.680   7.246  0.0705 -1.2907 -2.0532
 6538SOL     OW24170   3.907   5.858   8.324  0.0699 -0.0836  0.1041
 6538SOL    HW124171   3.841   5.789   8.323  0.6877 -0.6929 -1.7050
 6538SOL    HW224172   3.860   5.937   8.296 -0.5037  0.1497  1.6213
 6539SOL     OW24173   6.864   6.918   4.815  0.2677  0.0455  0.1884
 6539SOL    HW124174   6.873   6.832   4.855  1.0616 -0.1750 -0.4252
 6539SOL    HW224175   6.867   6.979   4.888 -0.9218 -0.4653  0.6840
 6540SOL     OW24176   1.633   7.691   4.114  0.3468 -0.2937 -0.0988
 6540SOL    HW124177   1.559   7.700   4.054 -0.5303 -1.7886  0.6826
 6540SOL    HW224178   1.690   7.765   4.094 -0.4662 -0.1095 -1.9773
 6541SOL     OW24179   1.441   3.312  10.733  0.4165 -0.0656  0.7316
 6541SOL    HW124180   1.417   3.224  10.763  2.1809 -0.0911  2.2301
 6541SOL    HW224181   1.466   3.300  10.642  0.7506 -1.1488  0.9543
 6542SOL     OW24182   8.927  11.053   0.963 -0.1181 -0.2176 -0.3687
 6542SOL    HW124183   8.864  10.991   0.999 -0.4156 -1.2009 -2.4011
 6542SOL    HW224184   8.922  11.130   1.020 -0.6316 -1.5777  1.5077
 6543SOL     OW24185   3.169   2.698   8.431  0.5002 -0.0171 -0.3023
 6543SOL    HW124186   3.160   2.675   8.339 -0.2349 -2.4166  0.3178
 6543SOL    HW224187   3.161   2.616   8.478 -0.5727  1.3114  2.0157
 6544SOL     OW24188   5.863   3.382  11.890  0.2393  0.3041  0.2541
 6544SOL    HW124189   5.768   3.371  11.883  0.1752  1.5066 -1.4725
 6544SOL    HW224190   5.874   3.460  11.945  0.1964  0.5271 -0.0502
 6545SOL     OW24191   9.765   2.772   7.705 -0.2731 -0.1038 -0.3872
 6545SOL    HW124192   9.672   2.753   7.708 -0.2448 -0.1636  0.9393
 6545SOL    HW224193   9.771   2.862   7.674 -0.7347 -0.2981 -1.0458
 6546SOL     OW24194  10.999   6.562   1.733 -0.4069 -0.0134 -0.0971
 6546SOL    HW124195  10.929   6.542   1.672 -0.1596  0.5190 -0.5676
 6546SOL    HW224196  11.056   6.622   1.685  1.5137 -2.0280 -0.4888
 6547SOL     OW24197   1.592   9.389   1.542 -0.6868 -0.1342  0.2735
 6547SOL    HW124198   1.668   9.425   1.496 -0.9782  0.1756  0.0326
 6547SOL    HW224199   1.605   9.415   1.633 -0.0828 -0.7914  0.3850
 6548SOL     OW24200   9.915   0.041   3.537 -0.1406 -0.1625 -0.0845
 6548SOL    HW124201   9.883   0.001   3.456  0.3450  0.0212 -0.3707
 6548SOL    HW224202   9.835   0.070   3.582 -0.3573  2.2450 -1.7908
 6549SOL     OW24203   7.857   7.800   1.468  0.0011 -0.1528 -0.0971
 6549SOL    HW124204   7.873   7.876   1.524 -2.4490 -1.7941  3.1552
 6549SOL    HW224205   7.764   7.805   1.447 -0.2648 -2.2455  0.3339
 6550SOL     OW24206   9.125   1.386   5.669 -0.0975 -0.2666  0.1274
 6550SOL    HW124207   9.196   1.335   5.707 -0.2143 -1.4637 -1.2064
 6550SOL    HW224208   9.147   1.477   5.690  1.6580 -0.6378  0.0047
 6551SOL     OW24209   8.349   2.361  10.047  0.0488 -0.0712  0.1743
 6551SOL    HW124210   8.368   2.381  10.138  1.4230  1.1924 -0.3634
 6551SOL    HW224211   8.259   2.328  10.048 -0.6219  1.6484  1.7439
 6552SOL     OW24212  11.542   1.880   3.400  0.5901 -0.2931 -0.5607
 6552SOL    HW124213  11.559   1.972   3.421 -0.7427 -0.3620  0.9918
 6552SOL    HW224214  11.628   1.839   3.405  0.7884  0.2731  2.1030
 6553SOL     OW24215   2.718   4.262  11.076 -0.0606 -0.7954  0.4973
 6553SOL    HW124216   2.741   4.348  11.040  1.5438 -0.8011  1.4340
 6553SOL    HW224217   2.642   4.235  11.025 -1.2774  1.6365  0.8855
 6554SOL     OW24218   1.569  11.979   9.090  0.2135 -0.2347  0.2018
 6554SOL    HW124219   1.655  12.014   9.113  0.2282  0.5392 -0.9321
 6554SOL    HW224220   1.588  11.902   9.035  0.1932 -0.0200 -0.1108
 6555SOL     OW24221  12.077   2.161  10.545 -0.3253  0.3662  0.0064
 6555SOL    HW124222  12.128   2.112  10.480 -0.9941 -0.9392  0.4304
 6555SOL    HW224223  12.143   2.195  10.606  0.3658  2.0823 -1.6124
 6556SOL     OW24224   9.712   6.154   9.035 -0.4393  0.1574 -0.4957
 6556SOL    HW124225   9.773   6.181   9.103  0.1201 -0.2596 -0.8239
 6556SOL    HW224226   9.702   6.059   9.046 -2.4054  0.4454  0.6593
 6557SOL     OW24227  11.509   0.956   4.819 -0.1369  0.3906  0.1526
 6557SOL    HW124228  11.506   1.052   4.823 -3.8208  0.4748 -1.5401
 6557SOL    HW224229  11.496   0.928   4.910  1.4350  1.4075  0.7395
 6558SOL     OW24230  11.690   0.004   4.371 -0.0787 -0.1095  0.0606
 6558SOL    HW124231  11.597  -0.005   4.395  0.4034 -0.6592  1.8961
 6558SOL    HW224232  11.692  -0.014   4.277 -1.6458 -1.6003  0.2541
 6559SOL     OW24233  11.490   2.761   7.794 -0.3186 -0.2290  0.1411
 6559SOL    HW124234  11.499   2.844   7.747  1.3820 -0.3583  0.1529
 6559SOL    HW224235  11.440   2.783   7.872  0.3735  0.8747  0.2947
 6560SOL     OW24236   0.608   5.094   3.113  0.3664  0.4357 -0.1480
 6560SOL    HW124237   0.699   5.093   3.144 -0.4657  0.4156  2.4601
 6560SOL    HW224238   0.589   5.002   3.095  0.7096  0.3883 -0.2895
 6561SOL     OW24239   5.298   3.702   8.265 -0.2222 -0.4835  0.2652
 6561SOL    HW124240   5.255   3.753   8.196  0.0550 -0.5315  0.0567
 6561SOL    HW224241   5.379   3.751   8.284 -0.4698 -0.2763  0.8080
 6562SOL     OW24242   6.015   2.644  10.087 -0.0842 -0.2464 -0.3918
 6562SOL    HW124243   6.074   2.708  10.127 -0.6602  0.7198 -1.0479
 6562SOL    HW224244   6.021   2.567  10.144  0.5886  0.3960  0.4388
 6563SOL     OW24245   6.104   7.958   7.695 -0.0928  0.6053 -0.0861
 6563SOL    HW124246   6.035   7.992   7.752 -0.4696  1.3266 -0.9487
 6563SOL    HW224247   6.174   8.024   7.698  0.7498 -0.3060  1.0908
 6564SOL     OW24248  11.779   1.845   7.501 -0.2944 -0.3263  0.4323
 6564SOL    HW124249  11.830   1.766   7.520 -0.9358 -0.9055 -0.1798
 6564SOL    HW224250  11.771   1.846   7.406  0.7738  1.1811  0.3289
 6565SOL     OW24251   6.689   2.436   1.201 -0.2469  0.3744  0.5668
 6565SOL    HW124252   6.723   2.346   1.195  0.1543  0.4979  0.9342
 6565SOL    HW224253   6.628   2.434   1.275  0.3003  0.5675  1.0321
 6566SOL     OW24254  10.761  11.509   8.523 -0.3010  0.1260  0.2058
 6566SOL    HW124255  10.837  11.530   8.576  0.0673 -0.1060 -0.2224
 6566SOL    HW224256  10.710  11.448   8.577 -0.5449  0.8255  0.7760
 6567SOL     OW24257   3.712  12.048   8.004  0.3482 -0.2595 -0.3108
 6567SOL    HW124258   3.700  11.953   8.007  1.3392 -0.3732  0.5245
 6567SOL    HW224259   3.632  12.084   8.043  0.3047 -0.7677  0.0717
 6568SOL     OW24260   9.436   5.992   3.935 -0.0959 -0.0923 -0.6476
 6568SOL    HW124261   9.391   5.949   3.862  0.0046 -2.0464  0.3577
 6568SOL    HW224262   9.367   6.006   4.000  0.0670  0.3911 -0.5773
 6569SOL     OW24263   0.339   1.055   3.730  0.0925 -0.0678 -0.2143
 6569SOL    HW124264   0.387   1.098   3.801 -0.7139  1.0400 -0.2996
 6569SOL    HW224265   0.392   1.071   3.652 -0.7643  1.9197 -0.4671
 6570SOL     OW24266   2.606   5.319   3.465  0.4117  0.6255  0.2974
 6570SOL    HW124267   2.530   5.288   3.514  0.7502 -0.9761 -0.1302
 6570SOL    HW224268   2.680   5.275   3.506  0.8712  0.4902 -0.6552
 6571SOL     OW24269  10.893   4.905   3.855 -0.0314  0.0104 -0.1702
 6571SOL    HW124270  10.938   4.983   3.888 -2.4757  1.8679 -0.9221
 6571SOL    HW224271  10.869   4.856   3.934 -0.5495  1.2879  0.4992
 6572SOL     OW24272   9.473   6.741   3.192  0.0694 -0.1727 -0.1826
 6572SOL    HW124273   9.485   6.827   3.232 -1.9272  0.2258 -0.3209
 6572SOL    HW224274   9.532   6.742   3.116 -0.0468  1.1665 -0.2890
 6573SOL     OW24275   6.071   2.637   7.590 -0.3230 -0.1589  0.4666
 6573SOL    HW124276   5.979   2.614   7.603 -0.5069  0.8791  1.1357
 6573SOL    HW224277   6.098   2.585   7.515 -1.7601  0.3387 -0.4379
 6574SOL     OW24278   8.601   7.912   1.954 -0.3460 -0.0072  0.6483
 6574SOL    HW124279   8.584   7.958   1.871  0.1581  3.8236  2.4469
 6574SOL    HW224280   8.696   7.905   1.958 -0.3743 -0.2750  0.8395
 6575SOL     OW24281  11.472   8.105  10.275 -0.0089 -0.5276 -0.1507
 6575SOL    HW124282  11.499   8.073  10.189  1.5317 -0.3515  0.2306
 6575SOL    HW224283  11.511   8.192  10.281 -1.8572  0.3332 -0.0856
 6576SOL     OW24284   3.045   0.917   7.551  0.2477  0.6775 -0.0063
 6576SOL    HW124285   2.958   0.951   7.574 -0.4436 -1.0965  0.1643
 6576SOL    HW224286   3.101   0.941   7.625 -0.4936  0.4294  0.6503
 6577SOL     OW24287   6.598   9.655   4.838 -0.3673 -0.1084 -0.0533
 6577SOL    HW124288   6.539   9.712   4.887 -0.8821 -0.8101  0.1572
 6577SOL    HW224289   6.586   9.569   4.877  0.4710 -0.3514 -0.3096
 6578SOL     OW24290  10.669   0.447   8.763  0.5963 -0.2217 -0.2616
 6578SOL    HW124291  10.578   0.424   8.744  0.3961 -1.2217  1.6283
 6578SOL    HW224292  10.671   0.461   8.858  2.1499  1.1342 -0.4315
 6579SOL     OW24293   7.189   9.834   5.912 -0.3111  0.5892  0.1543
 6579SOL    HW124294   7.125   9.804   5.978 -0.6438 -0.0845 -0.4643
 6579SOL    HW224295   7.188   9.766   5.845  2.1523 -0.1990  0.8210
 6580SOL     OW24296   4.991   0.509   3.437  0.3544  0.4762 -0.4379
 6580SOL    HW124297   5.055   0.542   3.373 -0.6210 -2.4295 -3.1443
 6580SOL    HW224298   5.033   0.434   3.478 -0.0985  0.6212  0.3331
 6581SOL     OW24299   3.242   8.549   1.848  0.1260 -0.4868  0.1028
 6581SOL    HW124300   3.288   8.558   1.932 -0.0013 -0.1499  0.1391
 6581SOL    HW224301   3.311   8.547   1.783  0.1804  0.6418  0.1048
 6582SOL     OW24302   0.958   0.131   7.508  0.3828 -0.5025  0.5576
 6582SOL    HW124303   1.038   0.114   7.457  0.3598  0.8874  0.0087
 6582SOL    HW224304   0.937   0.047   7.548  0.6812 -1.5597 -1.3591
 6583SOL     OW24305   1.282  11.244   5.895  0.5077 -1.0978  0.4446
 6583SOL    HW124306   1.234  11.325   5.913  1.3707 -0.6229  0.6686
 6583SOL    HW224307   1.243  11.179   5.953  1.3972 -0.2527  2.0477
 6584SOL     OW24308   9.102   1.474   7.668  0.5919 -0.1947  0.2208
 6584SOL    HW124309   9.060   1.415   7.607 -1.7135  0.5959  0.9344
 6584SOL    HW224310   9.158   1.418   7.721 -1.3582 -1.7728  0.7506
 6585SOL     OW24311   7.506  11.177  10.093  0.7910 -0.5495 -0.5314
 6585SOL    HW124312   7.484  11.099  10.144  1.2588 -1.5587 -1.8026
 6585SOL    HW224313   7.508  11.248  10.157  1.0930 -1.6993  0.7904
 6586SOL     OW24314   9.974   7.829   7.015 -0.1844  0.0365  0.2645
 6586SOL    HW124315   9.927   7.749   7.039 -2.3361  0.6443 -1.6323
 6586SOL    HW224316  10.058   7.798   6.981 -1.2237 -1.5026 -1.0240
 6587SOL     OW24317  10.770  11.868   1.420 -1.1325  0.0824  0.3516
 6587SOL    HW124318  10.854  11.865   1.375 -0.7733 -0.4141  1.0478
 6587SOL    HW224319  10.705  11.856   1.350 -0.5256 -3.0149  0.1588
 6588SOL     OW24320   5.364   6.073   6.926 -0.3789 -0.0329 -0.4269
 6588SOL    HW124321   5.320   6.153   6.953 -0.6549  0.4210 -2.1052
 6588SOL    HW224322   5.422   6.051   6.999 -0.6685  1.4110  0.2628
 6589SOL     OW24323   3.875   5.988   7.997 -0.1956  0.4303  0.1135
 6589SOL    HW124324   3.907   6.066   8.043 -0.1707 -0.0861  1.0010
 6589SOL    HW224325   3.932   5.980   7.921  0.4643  0.6957  0.5722
 6590SOL     OW24326   2.039   3.905   4.999 -0.2897 -0.3406  0.0016
 6590SOL    HW124327   2.124   3.907   5.042 -1.4575  0.0973  2.4487
 6590SOL    HW224328   1.977   3.930   5.067 -2.2768  0.5866 -2.0106
 6591SOL     OW24329   6.725   3.821  10.104  0.1064 -0.1059  0.8158
 6591SOL    HW124330   6.728   3.737  10.149  0.4010 -0.7656 -0.3918
 6591SOL    HW224331   6.631   3.838  10.092 -0.0560  0.8854  3.0749
 6592SOL     OW24332   3.821   0.351   0.856  0.7918 -0.2730 -0.6264
 6592SOL    HW124333   3.820   0.260   0.825  0.9009 -0.2994 -0.5548
 6592SOL    HW224334   3.869   0.399   0.788  1.1820 -0.3615 -0.4207
 6593SOL     OW24335   8.131   7.955   3.273 -0.1436 -0.4035  0.5192
 6593SOL    HW124336   8.117   8.046   3.248 -1.2379  0.3130  3.3481
 6593SOL    HW224337   8.209   7.929   3.224 -0.3630  1.7074 -1.1178
 6594SOL     OW24338   8.470   6.156  10.019  0.2037  0.0040  0.3228
 6594SOL    HW124339   8.446   6.119   9.934  1.9351 -0.1567 -0.1333
 6594SOL    HW224340   8.469   6.250  10.005 -1.2834  0.0555  0.6509
 6595SOL     OW24341   1.254  10.486   3.233 -0.5241 -0.3792 -0.1877
 6595SOL    HW124342   1.295  10.416   3.182 -0.3957  1.2877 -2.5694
 6595SOL    HW224343   1.218  10.545   3.167  0.7746  2.6314  1.5786
 6596SOL     OW24344   6.833   7.733   2.888 -0.1619 -0.3651  0.1038
 6596SOL    HW124345   6.902   7.781   2.933  1.0442 -1.5960 -0.3772
 6596SOL    HW224346   6.766   7.719   2.955 -0.2112  1.2890  0.4404
 6597SOL     OW24347   9.590   5.955   5.413  0.2218 -0.7912  0.2565
 6597SOL    HW124348   9.523   5.921   5.473  1.1101 -2.2190  0.4887
 6597SOL    HW224349   9.577   5.904   5.333 -0.9812  1.1224 -0.8534
 6598SOL     OW24350   3.018   6.633   3.755 -0.0480 -0.2189  0.4295
 6598SOL    HW124351   3.044   6.566   3.819 -3.1514 -2.5489 -0.4652
 6598SOL    HW224352   2.983   6.583   3.682  0.3195  2.4326 -1.7100
 6599SOL     OW24353   6.289  10.920   5.768  0.2799  0.4048 -0.3815
 6599SOL    HW124354   6.289  10.826   5.784 -3.5468  0.1646 -0.8833
 6599SOL    HW224355   6.334  10.930   5.684 -1.1692 -1.2940 -1.4149
 6600SOL     OW24356   5.316   9.336   6.775 -0.3305 -0.1609  0.4377
 6600SOL    HW124357   5.269   9.412   6.811 -0.9903  0.5090 -1.7213
 6600SOL    HW224358   5.408   9.353   6.798 -0.4511  1.3642 -0.0424
 6601SOL     OW24359   0.158   0.506   6.699  0.0912 -0.1841 -0.3100
 6601SOL    HW124360   0.169   0.578   6.636 -1.9880  2.1614  1.7607
 6601SOL    HW224361   0.068   0.477   6.686 -0.0747 -0.2779  0.9292
 6602SOL     OW24362   6.429   8.235  11.602 -0.1009 -0.0963  0.3011
 6602SOL    HW124363   6.505   8.197  11.647 -0.0004 -2.1107 -1.3918
 6602SOL    HW224364   6.354   8.188  11.639 -0.3153  0.3995  0.4970
 6603SOL     OW24365   6.201   0.983   2.202  0.1706 -0.0813  0.5392
 6603SOL    HW124366   6.131   0.919   2.188  0.9911 -0.8477 -0.1943
 6603SOL    HW224367   6.219   1.018   2.115  1.7277 -1.0120  0.4483
 6604SOL     OW24368  10.222   3.580   5.787  0.3001 -0.2910  0.1229
 6604SOL    HW124369  10.158   3.637   5.830 -1.1778 -1.5119 -0.3558
 6604SOL    HW224370  10.299   3.635   5.774 -0.2597  0.9203  1.6969
 6605SOL     OW24371   9.862   1.019   0.889  0.1097  0.8928 -0.0808
 6605SOL    HW124372   9.958   1.015   0.898  0.0626 -1.3956  0.0154
 6605SOL    HW224373   9.846   1.095   0.834  2.1568  0.1127 -1.9049
 6606SOL     OW24374   0.910   3.569   2.096  0.4913  0.1084 -0.0060
 6606SOL    HW124375   0.947   3.549   2.010  1.8457 -1.1598  0.8171
 6606SOL    HW224376   0.976   3.538   2.158 -1.6569 -1.6248  1.5547
 6607SOL     OW24377   0.909   2.662   1.672  0.2140 -0.1898 -0.0012
 6607SOL    HW124378   0.840   2.617   1.721  0.7480  0.6839  1.6398
 6607SOL    HW224379   0.873   2.750   1.657  0.4913 -0.1155 -0.2344
 6608SOL     OW24380  11.939  10.666   8.321  0.2987  0.5716 -0.5582
 6608SOL    HW124381  11.981  10.586   8.352  0.8465  1.0895  0.0488
 6608SOL    HW224382  11.989  10.737   8.360  0.8109  1.2651 -2.3611
 6609SOL     OW24383   4.801   2.442   5.814 -0.3599 -0.5349  0.6454
 6609SOL    HW124384   4.733   2.467   5.877  0.0398 -1.3711  1.4291
 6609SOL    HW224385   4.811   2.348   5.826  0.2157 -0.5882 -0.1949
 6610SOL     OW24386  10.800   3.167   3.663  0.0737  0.4837 -0.2487
 6610SOL    HW124387  10.789   3.256   3.630 -0.5672  1.0131  1.3104
 6610SOL    HW224388  10.895   3.155   3.668  0.1743  1.5685  0.7537
 6611SOL     OW24389   9.178   0.202   8.481  0.3369  0.7473 -0.0973
 6611SOL    HW124390   9.095   0.226   8.440  1.2019 -1.5813 -3.7089
 6611SOL    HW224391   9.242   0.260   8.441  0.7719  0.9980  0.9365
 6612SOL     OW24392  10.906   9.940   8.411 -0.4954  0.9397  0.5286
 6612SOL    HW124393  10.831   9.885   8.434  0.2076 -0.1387  0.3150
 6612SOL    HW224394  10.960   9.940   8.490 -0.2956  1.0033  0.3924
 6613SOL     OW24395   5.451  11.458   6.920  0.1803 -0.0082 -0.3714
 6613SOL    HW124396   5.520  11.432   6.859  1.6977 -0.2663  1.3828
 6613SOL    HW224397   5.382  11.494   6.864  1.4078 -0.4261 -2.2361
 6614SOL     OW24398   3.427  11.517   1.401  0.5023 -0.3415  0.3746
 6614SOL    HW124399   3.333  11.504   1.412  0.1590  0.2167 -1.5743
 6614SOL    HW224400   3.435  11.570   1.321  2.4076  0.7725  1.2285
 6615SOL     OW24401   3.065  10.601   4.774  0.4111 -0.4094  0.2473
 6615SOL    HW124402   3.075  10.509   4.750  1.9317 -0.2313  0.0982
 6615SOL    HW224403   3.141  10.644   4.734  0.4117  0.6929  1.3906
 6616SOL     OW24404   7.018   5.647   4.779 -0.5322  0.3768  0.6040
 6616SOL    HW124405   7.074   5.658   4.857 -1.4574  2.3103  1.0549
 6616SOL    HW224406   7.079   5.619   4.710  0.7974  1.1888  1.3948
 6617SOL     OW24407  11.789   9.335   0.789 -0.8701  0.7580  0.1339
 6617SOL    HW124408  11.700   9.325   0.756 -0.8718 -0.6949  0.5019
 6617SOL    HW224409  11.830   9.250   0.775  0.1431  1.0893  0.9089
 6618SOL     OW24410   1.553   7.258  10.431 -0.3390  0.0491 -0.3416
 6618SOL    HW124411   1.643   7.252  10.399 -0.3256  2.4899 -0.9362
 6618SOL    HW224412   1.518   7.338  10.391 -1.2712  1.7291  3.3616
 6619SOL     OW24413  11.272   0.367  11.315 -0.0445 -0.1059 -0.0188
 6619SOL    HW124414  11.235   0.454  11.334 -1.7702 -0.4314 -1.5953
 6619SOL    HW224415  11.261   0.319  11.397  0.1296  0.8993  0.6115
 6620SOL     OW24416  10.992   2.395  10.721  0.3265  0.0651 -0.8592
 6620SOL    HW124417  10.982   2.473  10.776 -0.4358 -0.5467 -0.0943
 6620SOL    HW224418  11.087   2.384  10.711  0.4300  1.2679 -1.2515
 6621SOL     OW24419   6.106   8.051   6.785  0.0999  0.0881 -0.6098
 6621SOL    HW124420   6.094   8.082   6.695 -1.8250 -1.1737 -0.8548
 6621SOL    HW224421   6.149   7.966   6.774 -2.8826 -1.5493 -0.6549
 6622SOL     OW24422   9.418   6.716  11.873  0.0617 -0.5625  0.1213
 6622SOL    HW124423   9.340   6.694  11.822 -0.0740  0.4473 -0.1179
 6622SOL    HW224424   9.383   6.754  11.954  0.2939  0.8646 -0.4215
 6623SOL     OW24425   0.013   6.949   2.712  0.5381 -1.0353  0.2488
 6623SOL    HW124426   0.028   6.956   2.618  1.1095 -1.9371  0.2622
 6623SOL    HW224427  -0.080   6.964   2.724  0.3569 -1.5328 -0.5285
 6624SOL     OW24428   8.142  11.562   8.488  0.2441  0.3632 -0.3363
 6624SOL    HW124429   8.106  11.511   8.416  1.2238  0.8134 -1.1747
 6624SOL    HW224430   8.234  11.535   8.493  1.0914  2.6731 -1.4678
 6625SOL     OW24431   3.814   2.106   2.376 -0.2026  0.0079  0.3432
 6625SOL    HW124432   3.760   2.112   2.297 -0.4836 -1.7407  0.3538
 6625SOL    HW224433   3.763   2.050   2.435  0.1562  1.0158  1.6481
 6626SOL     OW24434   3.266  11.493   5.417 -0.1951  0.0185  0.2485
 6626SOL    HW124435   3.243  11.527   5.503  1.4478 -0.0084  0.7254
 6626SOL    HW224436   3.220  11.551   5.355  0.7314  1.7038  1.0916
 6627SOL     OW24437   5.553   6.385   4.712  0.2233  0.1043 -0.1962
 6627SOL    HW124438   5.586   6.297   4.695  2.7358  0.8675  0.3603
 6627SOL    HW224439   5.521   6.382   4.802  0.2359 -0.2632 -0.2043
 6628SOL     OW24440   5.061  10.126   7.702  0.3281 -0.1780  0.3412
 6628SOL    HW124441   5.009  10.197   7.665  2.1868  0.6774 -0.7639
 6628SOL    HW224442   5.068  10.147   7.795  0.0159  0.5359  0.2056
 6629SOL     OW24443   8.210   0.538   7.187  0.3113  0.7416 -0.2995
 6629SOL    HW124444   8.199   0.633   7.196  0.3541  0.7255 -0.0634
 6629SOL    HW224445   8.264   0.514   7.262 -0.6015  0.3679  0.2534
 6630SOL     OW24446  10.064   4.783   8.121 -0.0159  0.4310  0.1478
 6630SOL    HW124447  10.012   4.702   8.120  0.2537  0.2444  0.8498
 6630SOL    HW224448  10.035   4.830   8.199  2.5054 -0.7960  1.9895
 6631SOL     OW24449   6.594   3.436   5.993  0.1538 -0.1163  0.2332
 6631SOL    HW124450   6.573   3.354   6.037 -0.5287 -0.2491 -0.3153
 6631SOL    HW224451   6.592   3.502   6.062  2.6584 -0.8104  1.0583
 6632SOL     OW24452   0.611   5.164   3.962 -0.0820 -0.0474 -0.2646
 6632SOL    HW124453   0.539   5.227   3.958  1.1520  1.5238  1.2250
 6632SOL    HW224454   0.675   5.196   3.898 -0.4133 -1.1067 -1.1583
 6633SOL     OW24455   0.698   5.754   3.680 -0.1583  0.3808  0.5681
 6633SOL    HW124456   0.762   5.808   3.633 -1.9552  1.4357 -0.7592
 6633SOL    HW224457   0.734   5.665   3.674  0.5711  0.7441 -1.2958
 6634SOL     OW24458   1.603   4.327   7.629 -0.2970 -0.2104  0.6321
 6634SOL    HW124459   1.588   4.412   7.670  1.6950 -0.1756  1.3944
 6634SOL    HW224460   1.543   4.268   7.674 -0.0630  0.3563  1.7132
 6635SOL     OW24461  11.259   9.873   8.169 -0.1873 -0.0224  0.0094
 6635SOL    HW124462  11.333   9.923   8.204 -0.4936  0.1479  0.4153
 6635SOL    HW224463  11.184   9.932   8.179 -0.3833 -0.2053 -0.3771
 6636SOL     OW24464  11.652   6.992   5.807  0.6640 -0.5365 -0.2315
 6636SOL    HW124465  11.595   7.002   5.731 -0.9189  1.8564  1.1501
 6636SOL    HW224466  11.688   7.079   5.821  2.2057 -1.3091  0.8397
 6637SOL     OW24467   9.733  10.198   7.956  0.5668 -0.1459 -0.1014
 6637SOL    HW124468   9.820  10.233   7.979  0.9981 -1.1868 -0.1176
 6637SOL    HW224469   9.751  10.132   7.890 -0.2172 -0.6164  0.1506
 6638SOL     OW24470   4.997  10.021   6.781 -0.0566 -0.0301  0.2976
 6638SOL    HW124471   5.089   9.999   6.795 -0.0751 -1.0286 -0.9684
 6638SOL    HW224472   4.978   9.989   6.693 -1.6750 -0.0283  0.6213
 6639SOL     OW24473   2.892   6.907  11.395 -1.1922  0.1867  0.6428
 6639SOL    HW124474   2.965   6.856  11.360 -1.7365  0.2161 -0.5943
 6639SOL    HW224475   2.912   6.998  11.370 -1.5698  0.2154  0.4390
 6640SOL     OW24476  10.897   9.940   5.759  0.5893  0.6396  0.2178
 6640SOL    HW124477  10.962   9.923   5.690  0.0596 -1.6243  0.1798
 6640SOL    HW224478  10.819   9.970   5.712  1.3495  2.7688  0.2110
 6641SOL     OW24479   3.141   0.342   9.426  0.1793 -0.1109 -0.4029
 6641SOL    HW124480   3.122   0.421   9.376 -0.0466 -0.6924 -1.2636
 6641SOL    HW224481   3.234   0.325   9.410  0.6070  0.7529  0.9427
 6642SOL     OW24482   3.272   2.271   4.164 -0.5915  0.2908 -0.2896
 6642SOL    HW124483   3.235   2.268   4.252  0.9675  0.0420  0.3859
 6642SOL    HW224484   3.360   2.234   4.173  1.1456  3.7867 -1.1570
 6643SOL     OW24485   8.854   6.008   9.043 -0.8015  0.3387 -0.2874
 6643SOL    HW124486   8.824   5.919   9.065  0.5597  0.0269  0.4244
 6643SOL    HW224487   8.786   6.065   9.079 -1.4204 -0.3917 -0.2554
 6644SOL     OW24488   1.003  10.310   7.820 -0.1674  0.0745 -0.9021
 6644SOL    HW124489   1.044  10.238   7.869 -1.2187  0.4416  0.5845
 6644SOL    HW224490   1.077  10.358   7.783  0.7094 -0.0773  0.5616
 6645SOL     OW24491   7.962   4.095   8.623  0.4630 -0.4118  0.3729
 6645SOL    HW124492   7.867   4.104   8.614  0.5938  0.0236 -0.6665
 6645SOL    HW224493   7.993   4.184   8.637  0.7164 -0.5571  0.7369
 6646SOL     OW24494   6.768  10.872   5.796 -0.2780 -0.6237  0.4496
 6646SOL    HW124495   6.791  10.965   5.794 -2.5888  0.0713  2.1873
 6646SOL    HW224496   6.724  10.858   5.712 -0.4057 -0.0065  0.4025
 6647SOL     OW24497   9.515  11.795  11.728  0.2140  0.1728 -0.1677
 6647SOL    HW124498   9.565  11.786  11.647  0.7216 -0.9736  0.2495
 6647SOL    HW224499   9.574  11.842  11.787  0.0060  0.6372 -0.3293
 6648SOL     OW24500   1.120   8.121   9.901 -0.2122 -0.6830  0.9012
 6648SOL    HW124501   1.175   8.074   9.838  0.3371 -0.8783  1.5156
 6648SOL    HW224502   1.031   8.104   9.872  0.0140 -1.2721  0.5266
 6649SOL     OW24503   5.772   9.584  10.399 -0.0161 -0.6304 -0.0203
 6649SOL    HW124504   5.768   9.656  10.336  2.1716 -0.9384 -0.6039
 6649SOL    HW224505   5.866   9.569  10.412 -0.4204 -1.9040  1.8082
 6650SOL     OW24506   7.698   9.956  10.019 -0.0413 -0.3965 -0.8908
 6650SOL    HW124507   7.739   9.953  10.106  1.2222 -0.5392 -1.4688
 6650SOL    HW224508   7.622  10.013  10.031  0.5123  0.1669  0.1566
 6651SOL     OW24509  10.538   0.169  10.299 -0.2971 -0.2215  0.2700
 6651SOL    HW124510  10.466   0.152  10.359 -0.4275  0.2648  0.2487
 6651SOL    HW224511  10.521   0.256  10.264  2.0244  1.3567  2.6993
 6652SOL     OW24512   0.162   7.796   9.980 -0.0951  0.0370  0.0021
 6652SOL    HW124513   0.225   7.780   9.910 -0.0996  0.1996 -0.0393
 6652SOL    HW224514   0.212   7.783  10.060 -0.2220 -0.6748 -0.0276
 6653SOL     OW24515   4.521   3.024   1.921 -0.4297  0.7259  0.1830
 6653SOL    HW124516   4.508   2.945   1.973 -0.2970  1.1291  0.8293
 6653SOL    HW224517   4.592   3.001   1.861 -2.4087 -0.7091 -1.8085
 6654SOL     OW24518  11.173   8.290   9.241 -0.3832 -0.2719  0.4248
 6654SOL    HW124519  11.171   8.312   9.334 -1.7984 -0.7363  0.5281
 6654SOL    HW224520  11.216   8.365   9.199  0.5520 -0.1997  1.4651
 6655SOL     OW24521   3.782   9.077   0.942 -0.0896  0.1056  0.1186
 6655SOL    HW124522   3.794   9.068   0.847 -1.1221  0.0678 -0.0105
 6655SOL    HW224523   3.769   8.988   0.974 -2.4287  0.3090 -0.0936
 6656SOL     OW24524   8.235   7.409   6.490 -0.2764 -0.2667  0.5670
 6656SOL    HW124525   8.265   7.319   6.487  2.3526  0.5510 -1.2479
 6656SOL    HW224526   8.243   7.434   6.582  0.3029 -1.4889  0.8679
 6657SOL     OW24527   0.602   6.496   8.707 -0.1438  0.1522 -0.3799
 6657SOL    HW124528   0.631   6.479   8.796  1.0826  0.9633 -0.5875
 6657SOL    HW224529   0.593   6.592   8.703  0.0745  0.1464 -1.1842
 6658SOL     OW24530   5.884   5.175  10.369  0.4961  0.2100  0.8363
 6658SOL    HW124531   5.848   5.087  10.377 -0.2546  0.2856 -1.0886
 6658SOL    HW224532   5.950   5.181  10.438  1.8425 -2.4982 -0.0901
 6659SOL     OW24533   9.085  11.866  10.251  0.2075 -0.3151  0.4151
 6659SOL    HW124534   9.140  11.907  10.184  1.6832 -0.1794  1.6310
 6659SOL    HW224535   8.996  11.893  10.230  0.7052  0.2227 -1.1153
 6660SOL     OW24536  10.758   6.909   5.873 -0.6297 -0.2839  0.2671
 6660SOL    HW124537  10.827   6.843   5.872 -0.7206 -0.3831 -0.7994
 6660SOL    HW224538  10.804   6.992   5.878 -0.4752 -0.3923  0.6484
 6661SOL     OW24539   9.046   4.067   4.739 -0.2377 -0.2022 -1.1545
 6661SOL    HW124540   8.971   4.105   4.785 -0.3301  0.3116 -1.7185
 6661SOL    HW224541   9.115   4.061   4.805  0.3556  2.5510 -1.3999
 6662SOL     OW24542   2.606   6.570   7.768  0.4796  0.6420 -0.1157
 6662SOL    HW124543   2.591   6.641   7.706 -1.1424  0.2255 -0.2420
 6662SOL    HW224544   2.519   6.537   7.789  1.1797 -1.4622 -0.2323
 6663SOL     OW24545   9.168   0.427   1.085  0.0881  0.0097  0.2120
 6663SOL    HW124546   9.252   0.433   1.040  0.3007 -1.2233  0.3898
 6663SOL    HW224547   9.135   0.340   1.062 -1.8635  1.0012 -1.0574
 6664SOL     OW24548   9.954   7.434   3.281 -0.0884 -0.3178  0.0950
 6664SOL    HW124549   9.964   7.412   3.374  1.8192 -1.6044 -0.3710
 6664SOL    HW224550   9.960   7.530   3.278  2.0507 -0.3589  1.1156
 6665SOL     OW24551   7.326   2.552   1.561  0.8935 -0.4788 -0.8582
 6665SOL    HW124552   7.395   2.489   1.541 -0.0092 -2.1552  1.0067
 6665SOL    HW224553   7.270   2.507   1.624  0.1164  2.1419  0.4584
 6666SOL     OW24554   8.121   6.138   7.587 -0.5778  0.2879  0.3908
 6666SOL    HW124555   8.146   6.164   7.676  0.1399 -0.3875  0.3984
 6666SOL    HW224556   8.105   6.044   7.594  2.9167 -0.5509 -0.8528
 6667SOL     OW24557   4.654   0.008   8.573 -0.4608  0.3152  0.1694
 6667SOL    HW124558   4.736   0.044   8.539 -0.3226 -0.3999 -0.2769
 6667SOL    HW224559   4.675  -0.022   8.661 -0.3228  0.4156  0.1706
 6668SOL     OW24560   3.121   8.951   4.475  0.2652 -0.0198  0.0588
 6668SOL    HW124561   3.035   8.942   4.433 -0.0281 -1.6600  0.9349
 6668SOL    HW224562   3.109   9.020   4.540 -0.4203 -0.2492  0.1862
 6669SOL     OW24563   8.447   6.902   3.315  0.4014  0.5659 -0.0416
 6669SOL    HW124564   8.440   6.973   3.379 -0.8380  0.1568  0.2968
 6669SOL    HW224565   8.396   6.931   3.240  0.6655  0.4352 -0.2729
 6670SOL     OW24566   9.085   9.677   4.456 -0.3283  0.4872  0.0680
 6670SOL    HW124567   9.120   9.640   4.537 -1.8023  0.0482  0.5472
 6670SOL    HW224568   8.991   9.689   4.473 -0.3837  1.9621 -1.0078
 6671SOL     OW24569   8.662   2.813   5.454 -0.3374 -0.5999  0.0932
 6671SOL    HW124570   8.736   2.816   5.515 -0.1944  0.4438 -0.1027
 6671SOL    HW224571   8.696   2.767   5.377 -0.0072 -0.4707  0.1602
 6672SOL     OW24572  11.728  10.824   2.139  0.1402  0.6194 -0.3582
 6672SOL    HW124573  11.758  10.741   2.102 -1.0612 -0.7679  1.5988
 6672SOL    HW224574  11.648  10.802   2.186  1.0272  2.3935  2.2144
 6673SOL     OW24575   3.881   6.874   7.843 -0.4336 -0.0840 -0.0232
 6673SOL    HW124576   3.916   6.868   7.754  1.7259  1.8457  0.5687
 6673SOL    HW224577   3.888   6.785   7.878  1.7626 -0.2765 -0.7772
 6674SOL     OW24578   4.734   4.672  10.072 -0.9735  1.0124  0.6580
 6674SOL    HW124579   4.702   4.581  10.075  1.6684 -0.0121  0.0838
 6674SOL    HW224580   4.698   4.712  10.151 -2.6431 -0.3588  0.6530
 6675SOL     OW24581   0.950   5.283   6.883 -0.0802  0.1197  0.4846
 6675SOL    HW124582   0.887   5.311   6.816  0.3564  0.1662  0.0859
 6675SOL    HW224583   0.905   5.296   6.966 -1.0380 -0.9514  0.1595
 6676SOL     OW24584   2.514   2.107   4.041 -0.1567  0.8712  0.6001
 6676SOL    HW124585   2.461   2.186   4.054  0.3774  1.3229  0.1035
 6676SOL    HW224586   2.552   2.118   3.953  0.8674  0.6201  1.0001
 6677SOL     OW24587   5.037   0.382   2.466 -0.1333  0.0024 -0.5452
 6677SOL    HW124588   5.075   0.294   2.469 -0.5334 -0.1881  2.7849
 6677SOL    HW224589   5.111   0.440   2.484 -0.4887  0.0314  0.8850
 6678SOL     OW24590   6.380   9.878   9.701 -0.1716 -1.1567 -0.3713
 6678SOL    HW124591   6.447   9.836   9.755  0.2431 -0.8515 -0.6383
 6678SOL    HW224592   6.364   9.962   9.742  0.5400 -0.6949 -1.0166
 6679SOL     OW24593   4.087   8.274   7.806 -0.3387 -0.3299  0.4699
 6679SOL    HW124594   4.087   8.365   7.836 -2.0760  0.1910 -0.9822
 6679SOL    HW224595   4.180   8.250   7.805  0.0973  1.1242  1.6890
 6680SOL     OW24596   0.406   7.359   2.474  0.0451  0.4824  0.6890
 6680SOL    HW124597   0.343   7.369   2.546 -0.3434 -1.6395  0.7288
 6680SOL    HW224598   0.431   7.448   2.451 -1.3846  1.3005  2.0806
 6681SOL     OW24599   9.660   0.992   3.547  0.1995  0.1918  0.2545
 6681SOL    HW124600   9.681   0.903   3.576 -0.3365  0.1054  0.3900
 6681SOL    HW224601   9.740   1.042   3.563 -0.0784  0.1508  1.9396
 6682SOL     OW24602   5.890  11.553   1.152  0.5845 -0.0438 -0.2965
 6682SOL    HW124603   5.971  11.570   1.201  1.0330  0.5131 -1.1872
 6682SOL    HW224604   5.857  11.640   1.130  0.4390 -0.2805 -1.0398
 6683SOL     OW24605   8.434   6.875   4.479 -0.1110 -0.9533  0.6567
 6683SOL    HW124606   8.460   6.947   4.421  0.3825 -0.9083  0.9295
 6683SOL    HW224607   8.356   6.838   4.438  0.0771 -0.7494  0.1095
 6684SOL     OW24608  10.907   5.712   9.848  0.1715 -0.5022  0.7105
 6684SOL    HW124609  10.919   5.805   9.868  1.6843 -0.7824  1.2099
 6684SOL    HW224610  10.837   5.684   9.907 -1.2994  0.5990 -0.4151
 6685SOL     OW24611  10.757   5.248   3.770 -0.6151  0.2647  0.0335
 6685SOL    HW124612  10.850   5.266   3.759 -0.1585 -1.0431  1.4553
 6685SOL    HW224613  10.741   5.258   3.864 -1.8325  0.1084 -0.1395
 6686SOL     OW24614   0.955   2.489   5.625 -0.2988  0.0156 -0.3824
 6686SOL    HW124615   0.973   2.544   5.549 -1.3840  1.0492  0.0734
 6686SOL    HW224616   1.029   2.504   5.683  0.2712 -0.3641 -0.9987
 6687SOL     OW24617   2.422   9.726   5.596 -0.2615  0.2895 -0.1411
 6687SOL    HW124618   2.393   9.658   5.535  2.4153 -0.9037 -0.2327
 6687SOL    HW224619   2.441   9.678   5.677 -0.5547  1.3200  0.5523
 6688SOL     OW24620  11.735   3.988   9.795 -0.1734  0.2511  0.3362
 6688SOL    HW124621  11.716   3.984   9.889  1.2085 -1.2480  0.6008
 6688SOL    HW224622  11.752   3.897   9.770 -1.1954  0.5251 -1.5427
 6689SOL     OW24623   3.072   3.765   6.673 -0.3119  0.0384 -0.9527
 6689SOL    HW124624   3.081   3.723   6.759 -2.2589  0.5233 -0.4585
 6689SOL    HW224625   3.153   3.743   6.627 -0.0587 -1.8789  0.2887
 6690SOL     OW24626  11.984   9.551  11.789 -0.4676  0.2104 -0.2212
 6690SOL    HW124627  12.046   9.517  11.725 -1.3092 -2.5493  0.2956
 6690SOL    HW224628  12.032   9.549  11.872 -0.3800  0.7795 -0.2525
 6691SOL     OW24629  11.001   8.784   3.483 -0.3186  0.2077 -0.0264
 6691SOL    HW124630  11.020   8.875   3.509  1.1791 -0.5998  1.9884
 6691SOL    HW224631  11.087   8.749   3.457 -0.8279 -0.7115 -0.4953
 6692SOL     OW24632   0.846   1.025  11.643  0.6311  0.0939 -0.1598
 6692SOL    HW124633   0.926   1.055  11.685 -0.7680  0.6512  2.2716
 6692SOL    HW224634   0.804   1.106  11.611 -1.7444  0.7131  3.8712
 6693SOL     OW24635   9.694   6.296   2.605 -0.0772 -0.4491  0.4684
 6693SOL    HW124636   9.662   6.301   2.515  1.7363 -0.1526 -0.1951
 6693SOL    HW224637   9.737   6.380   2.620 -1.8096  0.2163  2.2474
 6694SOL     OW24638   3.098   8.065   9.104  0.0279  0.0006  0.3558
 6694SOL    HW124639   3.121   8.083   9.013 -2.3344  0.2925 -0.2524
 6694SOL    HW224640   3.115   7.971   9.115  0.0148 -0.1106 -0.5004
 6695SOL     OW24641   5.231  10.061   4.538  0.1583  0.4522 -0.1502
 6695SOL    HW124642   5.239   9.995   4.607  0.6631 -0.7326 -1.2932
 6695SOL    HW224643   5.159  10.118   4.567 -0.7849 -1.0296  0.5400
 6696SOL     OW24644   2.282  11.099   3.279  1.1201 -0.2916 -0.2633
 6696SOL    HW124645   2.247  11.054   3.356  1.1314  1.2980  0.7126
 6696SOL    HW224646   2.205  11.131   3.232  1.1369 -0.6858 -0.5662
 6697SOL     OW24647   0.410   0.247   2.958 -0.1598 -0.5122  0.2416
 6697SOL    HW124648   0.490   0.198   2.973 -0.0862 -0.4014  0.2080
 6697SOL    HW224649   0.355   0.189   2.905 -0.8046 -1.2988  1.7153
 6698SOL     OW24650   5.811   7.893   7.032 -0.2092  0.2942  0.0248
 6698SOL    HW124651   5.719   7.881   7.010  0.0288  0.3221 -1.0459
 6698SOL    HW224652   5.846   7.805   7.043 -0.3714  0.2854  0.5167
 6699SOL     OW24653   1.655  10.794  10.302 -0.0912  0.0154 -0.1128
 6699SOL    HW124654   1.702  10.740  10.239  0.0373  0.6986 -0.6129
 6699SOL    HW224655   1.566  10.800  10.267 -0.0529  0.2901 -0.1679
 6700SOL     OW24656   5.414   3.469   2.614 -0.0747 -0.7192 -0.2127
 6700SOL    HW124657   5.486   3.485   2.554 -1.3908 -0.8920 -1.9085
 6700SOL    HW224658   5.414   3.374   2.627 -0.6510 -0.8419 -1.0791
 6701SOL     OW24659   0.367   1.027   6.485  0.0153 -0.7315  0.1237
 6701SOL    HW124660   0.405   1.006   6.570 -0.8379  1.1553  1.0333
 6701SOL    HW224661   0.281   1.063   6.506  0.6484  1.8348 -1.3640
 6702SOL     OW24662   6.486   9.341   2.684  0.1411  0.3763 -0.4854
 6702SOL    HW124663   6.581   9.333   2.696  0.6395 -0.7168 -4.0274
 6702SOL    HW224664   6.450   9.261   2.723  1.1416 -1.0582 -2.3876
 6703SOL     OW24665  11.645   2.091  12.070 -0.3006  0.2603 -0.9328
 6703SOL    HW124666  11.580   2.021  12.068 -0.5472  0.4596 -3.0253
 6703SOL    HW224667  11.594   2.171  12.080  0.0722  0.1748  2.9416
 6704SOL     OW24668   7.398  11.227   2.260 -0.5767  0.1479  0.7972
 6704SOL    HW124669   7.380  11.316   2.290 -2.0619 -0.0104  0.4652
 6704SOL    HW224670   7.383  11.172   2.336 -1.9592 -0.0228  0.4224
 6705SOL     OW24671   5.796   7.439   2.818  0.1594  0.9625  0.2193
 6705SOL    HW124672   5.881   7.402   2.793  0.1767  0.6150  0.7872
 6705SOL    HW224673   5.789   7.422   2.912 -0.8548  0.3471  0.0452
 6706SOL     OW24674   8.239   7.399   1.160  0.1856  0.3452 -0.2433
 6706SOL    HW124675   8.189   7.318   1.171 -1.0193  1.1435  0.4678
 6706SOL    HW224676   8.296   7.383   1.085  0.5806 -1.4407  0.3942
 6707SOL     OW24677   2.466   4.540   7.945  0.2392 -0.0923 -0.5951
 6707SOL    HW124678   2.415   4.498   7.875  0.1414 -0.3412 -0.3783
 6707SOL    HW224679   2.531   4.594   7.899  0.6394 -0.8084 -0.8819
 6708SOL     OW24680   9.271   5.624   6.199  0.1688  0.3818 -0.2011
 6708SOL    HW124681   9.313   5.595   6.280 -0.2440 -1.5595 -0.6387
 6708SOL    HW224682   9.344   5.639   6.139  0.3770 -0.3344 -0.1335
 6709SOL     OW24683   1.396  10.069   7.318 -0.2574 -0.5263  0.7414
 6709SOL    HW124684   1.487  10.067   7.289  0.0339  0.7131  1.4992
 6709SOL    HW224685   1.376   9.978   7.341  0.4678 -0.9788 -0.3515
 6710SOL     OW24686   2.326   8.091   0.478 -0.3553  0.0297  0.3419
 6710SOL    HW124687   2.376   8.167   0.447 -0.0889  0.0796  0.8731
 6710SOL    HW224688   2.254   8.083   0.416  0.4558 -0.2087 -0.5961
 6711SOL     OW24689   9.922   1.981   8.091 -0.2357 -0.0620 -0.1392
 6711SOL    HW124690   9.881   1.970   8.005  2.4697  1.4338 -1.7596
 6711SOL    HW224691   9.855   2.025   8.144 -1.4580  0.4145 -1.9666
 6712SOL     OW24692   3.286   5.137   3.485  0.4786 -0.1068 -0.4714
 6712SOL    HW124693   3.263   5.208   3.545 -1.3371  0.3691 -1.6595
 6712SOL    HW224694   3.321   5.181   3.407 -1.5143 -0.3721 -1.5896
 6713SOL     OW24695   0.659   5.505   3.919 -0.3536  0.1648  0.3858
 6713SOL    HW124696   0.728   5.491   3.984 -0.6420  1.7752  1.0766
 6713SOL    HW224697   0.698   5.477   3.836  0.4856 -0.6374  1.0249
 6714SOL     OW24698   7.087   4.615  12.120  0.0547  0.1972  0.4142
 6714SOL    HW124699   7.067   4.578  12.206  0.5899  0.1888  0.5348
 6714SOL    HW224700   7.103   4.708  12.137  2.0689 -0.1420  0.6324
 6715SOL     OW24701  10.689   4.624   6.668 -0.6282  0.6433 -0.2831
 6715SOL    HW124702  10.682   4.678   6.747 -1.2816 -0.2379  0.2916
 6715SOL    HW224703  10.651   4.540   6.694 -0.9696  0.3789 -1.5829
 6716SOL     OW24704   0.117   4.126   7.239  0.4737  0.2533 -0.0178
 6716SOL    HW124705   0.077   4.139   7.153 -0.7066 -2.1330  0.0854
 6716SOL    HW224706   0.091   4.038   7.265  2.0539  0.3248  2.1474
 6717SOL     OW24707   1.380   9.229   6.799  0.0926  0.1275  0.0896
 6717SOL    HW124708   1.413   9.309   6.840  0.1801  0.4079 -0.5145
 6717SOL    HW224709   1.415   9.158   6.853  0.4647  0.4752  0.3159
 6718SOL     OW24710   5.714  11.193   3.139 -0.1841 -0.1664 -0.0667
 6718SOL    HW124711   5.701  11.130   3.210 -0.5806  0.9103  0.8532
 6718SOL    HW224712   5.662  11.158   3.067 -0.1595 -1.0454  0.3253
 6719SOL     OW24713   7.651   3.181   3.796  0.2818  0.3631 -0.1143
 6719SOL    HW124714   7.666   3.212   3.706  1.6321  0.9716  0.2900
 6719SOL    HW224715   7.723   3.119   3.812  1.8287  2.3911  1.4736
 6720SOL     OW24716   0.079   9.246   5.105 -0.3947 -0.4672  0.0603
 6720SOL    HW124717   0.015   9.176   5.114  0.1562 -1.1117 -0.9183
 6720SOL    HW224718   0.159   9.212   5.146  0.2527 -0.9431 -1.5321
 6721SOL     OW24719   9.221  11.839   3.055  0.6486 -0.1171  0.9983
 6721SOL    HW124720   9.141  11.857   3.004  0.9139 -1.4163  0.0758
 6721SOL    HW224721   9.250  11.753   3.024  2.8654  0.6733  0.7076
 6722SOL     OW24722   5.905   3.337   2.353 -0.4159 -0.2018 -0.1472
 6722SOL    HW124723   5.858   3.275   2.296 -0.0980 -1.5932  1.0434
 6722SOL    HW224724   5.900   3.298   2.440  2.1732  0.0445  0.1950
 6723SOL     OW24725  11.462   6.351   0.511  0.0129  0.3371 -0.0181
 6723SOL    HW124726  11.515   6.398   0.448 -0.1293 -0.0902 -0.4627
 6723SOL    HW224727  11.489   6.386   0.596  0.5736  0.5473 -0.2789
 6724SOL     OW24728   9.549   4.885   6.028  0.1521  0.2869 -0.7088
 6724SOL    HW124729   9.521   4.874   5.938  0.8788  1.3712 -1.0882
 6724SOL    HW224730   9.520   4.805   6.073 -0.1769 -0.2753 -1.9020
 6725SOL     OW24731   5.648   7.893   4.294  0.0716  0.2475  0.0382
 6725SOL    HW124732   5.629   7.968   4.350  0.2482 -0.2759  0.8082
 6725SOL    HW224733   5.563   7.863   4.264  0.0497  1.7084 -1.5937
 6726SOL     OW24734   1.509  10.100  11.150  0.9442 -0.4249  0.1322
 6726SOL    HW124735   1.559  10.179  11.173  1.5614 -0.6060 -0.5259
 6726SOL    HW224736   1.418  10.129  11.146  1.1817  0.2923 -0.2542
 6727SOL     OW24737   3.514  10.928   2.828 -0.1579 -0.1876  0.3233
 6727SOL    HW124738   3.487  10.874   2.902 -0.7591 -0.3424  0.0034
 6727SOL    HW224739   3.497  11.018   2.856  1.2249 -0.1250  1.0111
 6728SOL     OW24740  12.081   2.541   0.262 -0.4905  0.3887  0.1953
 6728SOL    HW124741  12.149   2.578   0.318  0.0684  2.0897 -1.4900
 6728SOL    HW224742  12.125   2.524   0.179 -1.3911 -1.6728  0.0785
 6729SOL     OW24743  10.079   9.561   0.573  0.3707 -0.2008 -0.0416
 6729SOL    HW124744  10.165   9.555   0.531  0.3056 -0.5750 -0.1258
 6729SOL    HW224745  10.045   9.646   0.546  1.4448  0.7147  1.3914
 6730SOL     OW24746   9.862   8.353   6.047  0.3522 -0.1306 -0.1893
 6730SOL    HW124747   9.839   8.428   6.102  1.7968  1.2556 -1.3707
 6730SOL    HW224748   9.781   8.330   6.002 -0.5352 -0.4708  1.5328
 6731SOL     OW24749   4.481  11.733   0.465  0.1007 -0.4207  0.3877
 6731SOL    HW124750   4.526  11.812   0.496  1.1543 -1.6145  2.0254
 6731SOL    HW224751   4.443  11.694   0.543 -0.5954 -1.4342 -0.4293
 6732SOL     OW24752   9.082   1.714   7.136  0.1782  0.0469 -0.2723
 6732SOL    HW124753   9.025   1.707   7.059  1.0189  0.3304 -0.9335
 6732SOL    HW224754   9.077   1.627   7.177 -1.3653  0.3070  0.1649
 6733SOL     OW24755   3.118   9.308   8.345  0.1282 -0.3197 -0.3313
 6733SOL    HW124756   3.158   9.362   8.276 -1.1468  0.7187 -0.2871
 6733SOL    HW224757   3.185   9.305   8.414  1.3809 -1.2791 -1.5254
 6734SOL     OW24758   3.471   9.686  10.816 -0.3640 -0.5753  0.1614
 6734SOL    HW124759   3.486   9.594  10.797 -1.2407 -0.4676 -1.1107
 6734SOL    HW224760   3.469   9.690  10.912 -0.9199 -1.9756  0.2321
 6735SOL     OW24761   3.224   2.609   5.312 -0.4340  0.1720 -0.5997
 6735SOL    HW124762   3.186   2.648   5.233 -1.5435  2.4883  0.9853
 6735SOL    HW224763   3.317   2.629   5.306 -0.0712 -1.6184 -2.3136
 6736SOL     OW24764   0.138   0.093   3.937  0.4769  0.1481  0.4110
 6736SOL    HW124765   0.208   0.158   3.927 -0.5432  1.2354  0.0717
 6736SOL    HW224766   0.117   0.094   4.030  0.0314  0.8005  0.3128
 6737SOL     OW24767   9.794   5.982   4.175 -0.6203 -0.2867 -0.3834
 6737SOL    HW124768   9.784   5.948   4.086 -1.6607 -0.0164 -0.3888
 6737SOL    HW224769   9.838   6.066   4.164  0.3211 -0.7864 -0.5295
 6738SOL     OW24770   0.722   2.443   4.114 -0.3634  0.6789 -0.4358
 6738SOL    HW124771   0.632   2.474   4.104 -0.2209  0.7553 -1.6093
 6738SOL    HW224772   0.748   2.414   4.026  1.1841  1.8305 -0.4179
 6739SOL     OW24773   0.222  11.673   2.247 -0.4128  0.0801 -0.8328
 6739SOL    HW124774   0.236  11.655   2.154 -1.7983 -0.8007 -0.9150
 6739SOL    HW224775   0.231  11.587   2.289  1.2846  0.6423  0.0230
 6740SOL     OW24776   3.974  12.029   8.625 -0.4673  0.3306 -0.1769
 6740SOL    HW124777   3.899  12.088   8.618  0.4135  1.8161  1.7982
 6740SOL    HW224778   4.050  12.085   8.604  0.3528 -0.1960  1.2352
 6741SOL     OW24779  11.181   2.820   3.964 -0.2132  0.2525  0.4642
 6741SOL    HW124780  11.125   2.896   3.980  1.2245  1.4300  0.1861
 6741SOL    HW224781  11.200   2.824   3.870 -1.6055 -1.5699  0.0419
 6742SOL     OW24782   7.316   8.205   9.408 -0.2291 -0.3636 -0.8319
 6742SOL    HW124783   7.248   8.238   9.467 -0.3167 -1.0909 -0.5096
 6742SOL    HW224784   7.389   8.266   9.419 -0.5505 -0.0146 -0.5973
 6743SOL     OW24785   1.810   4.002   8.857  0.4547 -0.2502  0.3974
 6743SOL    HW124786   1.786   3.963   8.941  0.2657 -0.4970  0.2321
 6743SOL    HW224787   1.887   4.056   8.876 -0.3091  0.6678  0.9713
 6744SOL     OW24788   2.200   6.452  10.115 -1.0666 -0.3056 -0.2184
 6744SOL    HW124789   2.235   6.523  10.061  0.2664 -1.1649 -0.5372
 6744SOL    HW224790   2.276   6.397  10.134 -2.1402 -1.8911 -0.3539
 6745SOL     OW24791   5.618   4.485  10.171 -0.0227 -0.8204  0.4426
 6745SOL    HW124792   5.600   4.562  10.118 -0.5834 -0.8899  0.5249
 6745SOL    HW224793   5.714   4.479  10.173  0.0385  0.1843  0.8985
 6746SOL     OW24794  10.869   7.539   9.014 -0.0982 -0.0392 -0.7562
 6746SOL    HW124795  10.931   7.505   9.078 -0.1049  1.2930 -0.0124
 6746SOL    HW224796  10.783   7.522   9.051 -0.0931  1.0940 -0.2091
 6747SOL     OW24797   0.749   3.119   1.037 -0.3183  0.4495 -0.4910
 6747SOL    HW124798   0.697   3.046   1.002  0.1329 -0.3278  0.4220
 6747SOL    HW224799   0.813   3.138   0.968 -0.4679  0.0089 -0.7546
 6748SOL     OW24800   4.543   0.135   1.847 -0.1117  0.1914  0.5620
 6748SOL    HW124801   4.473   0.077   1.818 -0.8890  0.0658  2.5492
 6748SOL    HW224802   4.585   0.164   1.766 -2.2646  0.0528 -0.6752
 6749SOL     OW24803   4.722   7.666  10.118 -0.3592  0.4507 -0.7309
 6749SOL    HW124804   4.773   7.585  10.123  1.2087  1.4904  2.3654
 6749SOL    HW224805   4.631   7.637  10.128 -0.0837 -1.0700 -2.0785
 6750SOL     OW24806   9.583   6.043   1.420  0.1270  0.1148  0.6167
 6750SOL    HW124807   9.591   6.123   1.472 -2.3992  0.5062  0.5113
 6750SOL    HW224808   9.606   5.973   1.482  1.2536  0.8072  1.0274
 6751SOL     OW24809   0.343  10.069   5.201 -0.2995  0.1055 -0.4965
 6751SOL    HW124810   0.368  10.120   5.124 -0.1595  1.2573  0.2725
 6751SOL    HW224811   0.340   9.978   5.171 -1.2057  0.6288 -2.0902
 6752SOL     OW24812  10.396  10.803   6.290 -0.0148 -0.4846  0.2906
 6752SOL    HW124813  10.440  10.884   6.262  1.5370 -1.0881  0.8582
 6752SOL    HW224814  10.305  10.829   6.305  0.5547  1.2807  0.9365
 6753SOL     OW24815   7.651   7.042   9.900 -0.6974 -0.1064  0.4869
 6753SOL    HW124816   7.735   7.020   9.860  0.2786  0.1872  2.2337
 6753SOL    HW224817   7.627   7.126   9.861 -0.6731 -0.6303 -0.7058
 6754SOL     OW24818   6.541   1.413   4.820 -0.0414  0.0485  0.7477
 6754SOL    HW124819   6.527   1.483   4.757 -1.2819 -0.5253  0.3419
 6754SOL    HW224820   6.453   1.386   4.846  0.3787 -1.5441  0.6533
 6755SOL     OW24821   3.255   4.779   4.511 -0.3066  0.1886  0.6515
 6755SOL    HW124822   3.219   4.854   4.462  0.6541  1.0309  1.1881
 6755SOL    HW224823   3.225   4.702   4.463 -1.4413  0.9106  0.1637
 6756SOL     OW24824   1.004   2.195   9.249  1.0482 -0.6869  0.0043
 6756SOL    HW124825   0.915   2.230   9.254  1.0030 -0.6245 -1.1541
 6756SOL    HW224826   1.044   2.239   9.174  1.6708 -1.6004 -0.2170
 6757SOL     OW24827   5.303   9.828   1.592  0.1552 -0.0780  0.0737
 6757SOL    HW124828   5.233   9.778   1.635  0.3112 -0.8416 -0.5421
 6757SOL    HW224829   5.283   9.919   1.613 -0.4432 -0.3553  0.7663
 6758SOL     OW24830   3.364  11.297   6.570 -0.2585  0.2379  0.4276
 6758SOL    HW124831   3.386  11.283   6.478 -1.5171  1.4363 -0.1099
 6758SOL    HW224832   3.283  11.349   6.567 -0.9880 -0.7043  2.2198
 6759SOL     OW24833   6.622   7.078  12.027 -0.6664 -0.4137  0.0420
 6759SOL    HW124834   6.617   7.083  12.123 -0.1576  2.0378  0.0059
 6759SOL    HW224835   6.712   7.050  12.010  0.1168  1.7741  0.3125
 6760SOL     OW24836   5.270   3.224   6.453  0.0497  0.1677 -0.6828
 6760SOL    HW124837   5.360   3.255   6.443  0.4651  0.1161  2.0882
 6760SOL    HW224838   5.217   3.305   6.454  0.4305  0.4205  0.5339
 6761SOL     OW24839  11.715   6.564   5.726  0.0000  0.2717  0.3816
 6761SOL    HW124840  11.668   6.554   5.642  0.9493  1.2819 -0.2981
 6761SOL    HW224841  11.797   6.517   5.713 -1.1666 -2.4752  1.9665
 6762SOL     OW24842   0.889  11.950  10.259 -0.7372 -0.3690  0.2074
 6762SOL    HW124843   0.933  11.871  10.289  0.5334 -0.3306 -1.3966
 6762SOL    HW224844   0.895  11.946  10.164 -2.3666  0.7178  0.0219
 6763SOL     OW24845   6.330   4.431   8.327 -0.5614  0.0656  0.3675
 6763SOL    HW124846   6.405   4.422   8.268 -1.6527  0.0751 -1.0810
 6763SOL    HW224847   6.337   4.520   8.361 -2.5068  1.9768 -3.6063
 6764SOL     OW24848   9.341   1.488  11.399  0.1304  0.3076  0.2769
 6764SOL    HW124849   9.312   1.528  11.481  0.1327  0.6625  0.1057
 6764SOL    HW224850   9.391   1.556  11.355 -0.0442  0.1873 -0.1131
 6765SOL     OW24851   8.056   7.115  11.466  0.4347 -0.4803  0.8186
 6765SOL    HW124852   7.996   7.055  11.511 -1.1922  0.8536  0.5425
 6765SOL    HW224853   8.072   7.184  11.530  0.4378 -0.0405  0.3461
 6766SOL     OW24854   1.055   7.486  11.760  0.0808  0.2326 -0.1129
 6766SOL    HW124855   0.980   7.429  11.741 -0.5248  1.3598 -1.2624
 6766SOL    HW224856   1.036   7.525  11.845 -1.3135  1.4926 -0.9583
 6767SOL     OW24857   4.467  10.533   3.210  0.3945 -0.2931 -0.6113
 6767SOL    HW124858   4.397  10.590   3.177 -1.7099 -1.2909  1.7961
 6767SOL    HW224859   4.516  10.508   3.132 -2.2971  0.0013 -2.5323
 6768SOL     OW24860   6.636   7.840   0.740  0.5418  0.1814  0.3532
 6768SOL    HW124861   6.662   7.802   0.656  1.0371  1.1015  0.0790
 6768SOL    HW224862   6.551   7.800   0.759  0.2884  0.1810 -0.7249
 6769SOL     OW24863   2.607   7.399   2.964  0.0862 -0.2475  0.5341
 6769SOL    HW124864   2.622   7.338   3.036  0.3021 -0.1051  0.6102
 6769SOL    HW224865   2.608   7.485   3.006 -2.4778 -0.2767  0.8421
 6770SOL     OW24866   3.960   5.998   5.262  0.1309  0.3013  0.3047
 6770SOL    HW124867   3.965   6.075   5.318  0.4544  0.2548  0.3450
 6770SOL    HW224868   4.003   6.024   5.181  0.5580  0.0560  0.4478
 6771SOL     OW24869  11.154   4.130   7.075  0.0434 -0.2502  0.2173
 6771SOL    HW124870  11.211   4.200   7.043  1.6062 -1.9122 -0.7987
 6771SOL    HW224871  11.182   4.116   7.166 -0.7976  0.8928  0.6842
 6772SOL     OW24872   0.742   9.055   3.667 -0.5840  0.8833 -0.0396
 6772SOL    HW124873   0.760   9.078   3.576 -0.1583  4.0365  0.7011
 6772SOL    HW224874   0.823   9.078   3.713 -1.1795  0.4333  1.2713
 6773SOL     OW24875   4.730   9.206  11.165 -0.2579  0.1381 -0.2120
 6773SOL    HW124876   4.639   9.213  11.192 -0.1480 -0.2418  0.2761
 6773SOL    HW224877   4.768   9.142  11.225  0.1472 -0.2689 -0.8929
 6774SOL     OW24878   5.172  10.929   4.910  0.4383  0.5382 -0.2303
 6774SOL    HW124879   5.248  10.972   4.949  0.2113  0.8138 -0.0872
 6774SOL    HW224880   5.109  11.000   4.898 -0.7524 -0.0980  1.9238
 6775SOL     OW24881   7.075   7.325   8.937  0.0685  0.2704  0.6783
 6775SOL    HW124882   7.072   7.382   8.860 -1.9249 -1.2706 -0.4832
 6775SOL    HW224883   7.157   7.275   8.926  2.5243  3.5145  2.3582
 6776SOL     OW24884   0.172  10.013  11.694 -0.0244  0.3436  0.1112
 6776SOL    HW124885   0.119   9.996  11.616 -0.4812 -1.9044  0.8457
 6776SOL    HW224886   0.256   9.972  11.676 -0.7513 -1.9449  1.4646
 6777SOL     OW24887   8.406   1.762   5.977 -0.6381 -0.2226  0.3334
 6777SOL    HW124888   8.351   1.710   6.036  0.9422 -0.8647  1.2914
 6777SOL    HW224889   8.494   1.754   6.013  0.7201 -1.9784 -3.0244
 6778SOL     OW24890   7.920   4.916   6.239 -0.3147  0.1462 -0.0940
 6778SOL    HW124891   7.942   5.002   6.275  2.2756 -0.2628 -0.5340
 6778SOL    HW224892   7.958   4.916   6.151  1.3559 -2.0155  0.5255
 6779SOL     OW24893   7.816   8.233  11.987  0.9540  0.1075 -0.1170
 6779SOL    HW124894   7.785   8.266  11.903 -1.3976 -0.6120  0.4098
 6779SOL    HW224895   7.874   8.161  11.964  1.0421  0.4782 -1.1238
 6780SOL     OW24896   3.576   8.542  10.098 -0.3693 -0.3066  0.3371
 6780SOL    HW124897   3.514   8.492  10.045 -0.0840  0.1804 -0.4734
 6780SOL    HW224898   3.548   8.633  10.089  0.9719  0.0346 -0.7822
 6781SOL     OW24899  10.304   3.241   6.688  0.3313 -0.7474  0.3128
 6781SOL    HW124900  10.339   3.309   6.747  0.5845 -0.1010 -0.5595
 6781SOL    HW224901  10.380   3.190   6.662  0.1170 -1.4814  1.0966
 6782SOL     OW24902   0.536  10.580   1.541 -0.0904 -0.2286  0.2721
 6782SOL    HW124903   0.502  10.580   1.631 -1.5790  1.5995 -0.2392
 6782SOL    HW224904   0.499  10.658   1.501  4.4470  1.8445 -0.5069
 6783SOL     OW24905   5.037   3.294  10.074  0.0726  0.3642  0.1022
 6783SOL    HW124906   5.130   3.277  10.061 -0.0184 -1.4011  1.3049
 6783SOL    HW224907   5.026   3.294  10.169 -1.4057 -1.1587 -0.0223
 6784SOL     OW24908   7.527   8.919   9.787 -0.1029  0.2877 -0.0222
 6784SOL    HW124909   7.591   8.848   9.794 -0.3624  0.1480  1.0440
 6784SOL    HW224910   7.567   8.981   9.726  0.9107  0.0456  0.3735
 6785SOL     OW24911   4.476  10.700   0.316 -0.1305 -0.2269  0.8030
 6785SOL    HW124912   4.537  10.756   0.268  0.4256 -2.1130 -0.8038
 6785SOL    HW224913   4.500  10.713   0.408  1.4087  0.5531  0.3352
 6786SOL     OW24914   7.393   5.253   4.874  0.0939 -0.4283  0.2321
 6786SOL    HW124915   7.349   5.321   4.823  0.0716 -0.7731 -0.2201
 6786SOL    HW224916   7.322   5.193   4.900  0.0030  0.1265  1.2823
 6787SOL     OW24917   2.504  11.849   5.424 -0.0195  0.1335  0.2647
 6787SOL    HW124918   2.500  11.836   5.329 -1.2918  0.2030  0.2817
 6787SOL    HW224919   2.469  11.937   5.438 -0.5487 -0.1535  0.8318
 6788SOL     OW24920   0.961  10.965   8.551  0.4597 -0.0698 -0.0152
 6788SOL    HW124921   0.869  10.946   8.570 -0.0217  0.0833 -1.9762
 6788SOL    HW224922   0.991  10.888   8.502  0.5400  1.0828 -1.8349
 6789SOL     OW24923   4.601   2.322   6.598 -0.1455  0.5387  0.0273
 6789SOL    HW124924   4.666   2.266   6.556 -0.2367  2.3728 -2.8544
 6789SOL    HW224925   4.653   2.385   6.648  0.3535  1.6230 -1.7745
 6790SOL     OW24926   1.218  11.934   1.271 -0.0477 -0.2188 -0.3997
 6790SOL    HW124927   1.226  11.946   1.177  0.9175  0.0872 -0.2903
 6790SOL    HW224928   1.226  11.839   1.284  0.5858 -0.1979 -0.5745
 6791SOL     OW24929   2.812   7.655   9.565 -0.1768 -0.6772 -0.1696
 6791SOL    HW124930   2.890   7.672   9.512  1.4009 -3.3725  1.0791
 6791SOL    HW224931   2.840   7.673   9.655 -1.3271 -0.7208  0.2113
 6792SOL     OW24932  11.509   3.128   3.133 -0.5378 -0.3458 -0.0931
 6792SOL    HW124933  11.440   3.074   3.171 -1.4250  0.2517 -0.8194
 6792SOL    HW224934  11.486   3.134   3.040  0.5519 -0.2277 -0.3665
 6793SOL     OW24935   0.184   4.810   1.513  0.5345 -0.2355  0.4106
 6793SOL    HW124936   0.130   4.800   1.591  0.5655 -0.1828  0.4389
 6793SOL    HW224937   0.165   4.732   1.460  1.0094 -0.6062  0.7713
 6794SOL     OW24938   9.118   6.830   9.370  0.2721  0.2194  0.4118
 6794SOL    HW124939   9.070   6.748   9.361  1.0143 -0.4687  2.3004
 6794SOL    HW224940   9.110   6.854   9.462 -1.8137  3.5229 -0.4667
 6795SOL     OW24941   9.717   3.756   5.400 -0.5663 -0.0706 -0.0141
 6795SOL    HW124942   9.812   3.766   5.396 -0.4709 -0.8711 -0.0472
 6795SOL    HW224943   9.687   3.782   5.313  0.1813 -4.7132 -1.9972
 6796SOL     OW24944   4.965   9.877   1.242 -0.1692  0.7040  0.1701
 6796SOL    HW124945   5.029   9.948   1.247  0.9566 -0.3190  0.6579
 6796SOL    HW224946   4.911   9.900   1.166  1.4369  1.0698 -0.9286
 6797SOL     OW24947   6.491   3.618   5.632  0.0443  0.2500 -0.8453
 6797SOL    HW124948   6.488   3.674   5.554 -0.3317  0.4126 -0.7136
 6797SOL    HW224949   6.421   3.651   5.688  0.7574  0.5763 -0.1312
 6798SOL     OW24950   2.505   0.536   0.532  0.4041  0.5187  0.0359
 6798SOL    HW124951   2.553   0.461   0.568  1.6199  1.8172  1.2297
 6798SOL    HW224952   2.446   0.563   0.602 -0.9578 -0.0551 -0.8435
 6799SOL     OW24953   0.945   1.605   2.862  0.0934 -0.6366  0.2623
 6799SOL    HW124954   0.903   1.668   2.804 -1.4100 -0.4722  1.4760
 6799SOL    HW224955   1.038   1.629   2.860 -0.2250  0.6349 -0.4842
 6800SOL     OW24956  10.767   0.785   5.106 -0.5141 -0.3782 -0.2950
 6800SOL    HW124957  10.819   0.865   5.111  0.0695 -0.7744  0.0362
 6800SOL    HW224958  10.745   0.765   5.197 -0.2899 -0.8306 -0.3371
 6801SOL     OW24959   5.602  10.643   6.231 -0.6320  0.3690  0.0444
 6801SOL    HW124960   5.520  10.594   6.230 -1.1964  1.1867  1.9987
 6801SOL    HW224961   5.658  10.597   6.293 -0.6999  1.4290  0.9301
 6802SOL     OW24962  11.033   9.805   0.199  0.2357  0.4056 -0.1276
 6802SOL    HW124963  10.977   9.762   0.134  0.3609  0.3662 -0.2104
 6802SOL    HW224964  11.121   9.799   0.162  0.4918 -0.7205  0.6060
 6803SOL     OW24965   6.605  10.497   9.440 -0.3715  0.4449  0.1811
 6803SOL    HW124966   6.603  10.421   9.498 -2.3929 -0.3045 -0.7532
 6803SOL    HW224967   6.679  10.481   9.382  1.1799  0.8068  1.9554
 6804SOL     OW24968   2.492   4.868   9.936 -0.5181  0.2245 -0.0740
 6804SOL    HW124969   2.482   4.959   9.907 -1.7804  0.4971  1.0729
 6804SOL    HW224970   2.455   4.868  10.024 -0.6492 -1.4357 -0.1091
 6805SOL     OW24971   9.362   0.258   0.623  0.3038  0.0641  0.4027
 6805SOL    HW124972   9.369   0.341   0.575 -0.2334  0.4512  0.9864
 6805SOL    HW224973   9.406   0.275   0.706  1.1453 -0.5774  0.1073
 6806SOL     OW24974   6.174  11.630  11.759  0.0286 -0.0210 -0.2243
 6806SOL    HW124975   6.079  11.621  11.753  0.1682 -0.6832 -1.8044
 6806SOL    HW224976   6.205  11.626  11.669  1.6839 -1.5006  0.3483
 6807SOL     OW24977   4.468  10.260  11.603  0.0597  0.0081  0.9276
 6807SOL    HW124978   4.412  10.302  11.668 -2.2213 -0.3216 -0.7330
 6807SOL    HW224979   4.428  10.175  11.587  0.7103 -0.0261 -0.7190
 6808SOL     OW24980   5.995   1.147   2.679 -0.0466 -0.0588 -0.0348
 6808SOL    HW124981   6.022   1.095   2.603 -0.5227  0.8298 -0.8194
 6808SOL    HW224982   5.968   1.231   2.643 -0.7595  0.2054  1.0755
 6809SOL     OW24983   5.046   3.971   6.039  0.2752 -0.0608 -0.2587
 6809SOL    HW124984   5.111   4.025   6.085 -0.0186  0.5691 -0.5689
 6809SOL    HW224985   4.961   4.003   6.071  0.1120 -1.8090  1.1952
 6810SOL     OW24986   8.676   7.996   8.985  0.3770 -0.3333 -0.2711
 6810SOL    HW124987   8.709   8.030   9.068  0.1278 -1.9896  0.5651
 6810SOL    HW224988   8.601   8.052   8.964  2.3758  2.1797 -1.1437
 6811SOL     OW24989   5.903   0.013   5.907  0.5091  0.4787 -0.3666
 6811SOL    HW124990   5.899   0.101   5.869 -0.7308  0.2851 -0.7292
 6811SOL    HW224991   5.814  -0.003   5.940 -0.1065 -1.6954 -2.7617
 6812SOL     OW24992   5.662  10.620   1.132  0.2230 -0.3071  0.3245
 6812SOL    HW124993   5.666  10.652   1.222 -0.3759  0.4299  0.0971
 6812SOL    HW224994   5.678  10.526   1.140 -0.1577 -0.3124  1.2438
 6813SOL     OW24995   7.647   5.967  11.706  0.1493  0.0301  0.5727
 6813SOL    HW124996   7.672   5.886  11.750  0.9926  0.1716  0.3745
 6813SOL    HW224997   7.552   5.971  11.714  0.2184 -0.3255  1.7142
 6814SOL     OW24998   5.199   6.362   6.050  0.5903 -0.1013  0.0517
 6814SOL    HW124999   5.252   6.407   5.984  2.6504 -0.2567  1.5125
 6814SOL    HW225000   5.256   6.294   6.085 -1.7237 -2.5547 -0.5782
 6815SOL     OW25001   9.665   7.043   2.863 -0.5035 -0.0238 -0.1518
 6815SOL    HW125002   9.745   7.042   2.810  0.1482  0.5176  0.7877
 6815SOL    HW225003   9.697   7.051   2.953 -1.5420 -1.8294  0.4160
 6816SOL     OW25004   6.539   9.594  12.089 -0.0497  0.0380 -0.5352
 6816SOL    HW125005   6.591   9.532  12.039  1.6859  0.6126  0.4559
 6816SOL    HW225006   6.597   9.669  12.103 -1.8515  1.6664 -1.1553
 6817SOL     OW25007   5.382   0.633  11.045 -0.3533 -0.4129 -0.4744
 6817SOL    HW125008   5.382   0.727  11.027  0.9350 -0.1864  0.5915
 6817SOL    HW225009   5.322   0.622  11.119  0.0434 -0.3185 -0.1335
 6818SOL     OW25010   4.039   8.393   9.138  0.0226 -0.6393 -0.4787
 6818SOL    HW125011   4.122   8.371   9.095  0.9633 -0.7672  1.3008
 6818SOL    HW225012   3.972   8.375   9.072  1.3185 -1.7276 -1.5564
 6819SOL     OW25013   6.295   5.748   1.242 -0.4254 -0.3189  0.5912
 6819SOL    HW125014   6.331   5.835   1.262 -2.1337  0.0897  2.2075
 6819SOL    HW225015   6.304   5.700   1.324 -2.3792 -0.5817  0.6940
 6820SOL     OW25016   7.157   8.414  10.627 -0.0746  0.4279  0.1194
 6820SOL    HW125017   7.084   8.410  10.689 -0.7686  1.8592 -0.5548
 6820SOL    HW225018   7.234   8.428  10.683 -0.1220 -1.9319  0.9039
 6821SOL     OW25019   8.094   7.681   2.966 -0.2708  0.4478  0.5123
 6821SOL    HW125020   8.037   7.657   3.039 -0.4312  0.0153  0.2465
 6821SOL    HW225021   8.106   7.776   2.976  0.2928  0.2827  1.5011
 6822SOL     OW25022  11.520   1.848   0.177  0.3253 -0.6124 -0.1216
 6822SOL    HW125023  11.585   1.781   0.157  0.2161 -0.9052  0.4900
 6822SOL    HW225024  11.497   1.833   0.269 -2.0636 -1.8014 -0.8307
 6823SOL     OW25025   8.547   8.104   1.720 -0.4534 -0.2778 -0.2591
 6823SOL    HW125026   8.508   8.088   1.634  0.4251 -0.3683 -0.6578
 6823SOL    HW225027   8.641   8.099   1.704 -0.2739  0.1145  0.6366
 6824SOL     OW25028  10.420   3.328   5.381 -0.2039  0.4602  0.2171
 6824SOL    HW125029  10.464   3.243   5.394 -1.7023 -0.5507 -0.9327
 6824SOL    HW225030  10.451   3.382   5.453  2.0421 -0.5322  0.0987
 6825SOL     OW25031   5.920   5.479   9.741 -0.0174  0.5260 -0.0674
 6825SOL    HW125032   5.853   5.506   9.679  0.4821 -0.8117 -1.2478
 6825SOL    HW225033   5.999   5.526   9.713 -0.1227  1.0167  0.4472
 6826SOL     OW25034   0.120   0.057   8.857 -0.1690  0.3912 -0.0686
 6826SOL    HW125035   0.203   0.012   8.840  0.4280  2.2393 -2.7479
 6826SOL    HW225036   0.053  -0.011   8.848  0.9789 -1.0043  1.4857
 6827SOL     OW25037   3.396  10.506   9.969  0.3402 -0.3375 -0.1182
 6827SOL    HW125038   3.455  10.572  10.005 -0.2110 -0.5672  1.2817
 6827SOL    HW225039   3.411  10.428  10.023 -1.5811 -0.2463  0.6469
 6828SOL     OW25040   6.558   4.351   3.549  0.3826  0.2926  0.6989
 6828SOL    HW125041   6.619   4.329   3.619  0.3806  0.4865  0.7633
 6828SOL    HW225042   6.536   4.443   3.565  0.8550  0.5163  0.0930
 6829SOL     OW25043   7.460   7.113   5.043  0.3221  0.1807  0.3944
 6829SOL    HW125044   7.404   7.126   4.966  1.3514 -1.0284 -0.6247
 6829SOL    HW225045   7.464   7.018   5.054  1.7606  0.2415  0.7091
 6830SOL     OW25046  12.005   4.959   5.351 -0.1151  0.0295 -0.0794
 6830SOL    HW125047  11.999   4.884   5.410  1.0815  0.4781  0.6336
 6830SOL    HW225048  12.075   4.937   5.291  0.7220  0.8480  0.5683
 6831SOL     OW25049   8.937  11.390   5.528 -0.1074 -0.2739  0.2340
 6831SOL    HW125050   8.916  11.447   5.454  2.0571  0.0082 -0.2477
 6831SOL    HW225051   8.853  11.368   5.566 -1.1632  1.2492 -1.0716
 6832SOL     OW25052   7.351   1.415   2.692 -0.1187  0.3803 -0.0360
 6832SOL    HW125053   7.291   1.465   2.637  0.1276  1.0718  0.3164
 6832SOL    HW225054   7.405   1.481   2.735  2.5764 -0.2218 -2.1646
 6833SOL     OW25055  10.122   1.888   1.761 -0.5323  0.2592 -0.1922
 6833SOL    HW125056  10.116   1.983   1.751  1.1554  0.4008 -0.2536
 6833SOL    HW225057  10.203   1.875   1.810 -1.3769 -1.1087  0.9159
 6834SOL     OW25058   8.477   9.216   6.390 -0.2742  0.4483 -0.2112
 6834SOL    HW125059   8.406   9.277   6.370 -0.9646 -0.3288 -0.1859
 6834SOL    HW225060   8.557   9.263   6.363 -0.9589  0.3150 -2.7691
 6835SOL     OW25061   7.468   1.270   7.306  0.6636 -0.5428  0.0729
 6835SOL    HW125062   7.541   1.227   7.352  2.0568 -0.0530 -1.5613
 6835SOL    HW225063   7.417   1.198   7.269 -0.2993 -0.9322  2.0358
 6836SOL     OW25064   6.552  10.142   5.918  0.3557 -0.1424  0.1018
 6836SOL    HW125065   6.555  10.095   6.001  2.6141  0.7253  0.5917
 6836SOL    HW225066   6.603  10.088   5.857 -1.9492 -1.1829 -1.0327
 6837SOL     OW25067  10.411   5.061   6.059 -0.0989  0.4876 -0.0078
 6837SOL    HW125068  10.484   5.091   6.006 -0.8476  0.7275 -0.9305
 6837SOL    HW225069  10.352   5.018   5.998 -2.2715  3.0765  0.0460
 6838SOL     OW25070   7.308   6.198   3.221  0.0393  0.4183  0.4955
 6838SOL    HW125071   7.217   6.183   3.194  0.3874 -0.0758 -0.4415
 6838SOL    HW225072   7.323   6.291   3.200  0.4364 -0.0530 -1.5262
 6839SOL     OW25073   1.446   7.734  10.270  0.4214 -0.2310 -0.3649
 6839SOL    HW125074   1.438   7.790  10.347 -2.8151  2.3715 -2.3682
 6839SOL    HW225075   1.528   7.761  10.229  1.2863 -0.4139  1.1649
 6840SOL     OW25076   0.566   0.662   8.000  0.0566 -0.1432  0.2541
 6840SOL    HW125077   0.557   0.728   8.069  1.1102  0.4803 -0.1854
 6840SOL    HW225078   0.579   0.580   8.048  0.5425  0.2468  0.8092
 6841SOL     OW25079   2.492   8.596   3.774  0.7265  0.1736 -0.5973
 6841SOL    HW125080   2.547   8.625   3.701  1.7830 -1.2232 -0.3905
 6841SOL    HW225081   2.487   8.672   3.832  1.6582  0.6218 -1.0838
 6842SOL     OW25082   9.844  10.572   2.813  0.0552 -0.0476 -0.1059
 6842SOL    HW125083   9.760  10.578   2.769 -0.0209 -2.4530 -0.4466
 6842SOL    HW225084   9.856  10.478   2.829  2.5366  0.2428  0.1974
 6843SOL     OW25085   1.426  11.287   6.944 -0.2190 -0.2198  0.5440
 6843SOL    HW125086   1.469  11.332   6.871  0.8727  0.7992  1.7830
 6843SOL    HW225087   1.489  11.220   6.971  0.2662  0.7357  1.8375
 6844SOL     OW25088   5.361  11.373   9.664 -0.1741 -0.3551  0.2257
 6844SOL    HW125089   5.313  11.346   9.742 -0.4516  1.6528  0.8054
 6844SOL    HW225090   5.452  11.381   9.693 -0.2440  0.2003  0.2894
 6845SOL     OW25091   6.073   1.875   9.198 -0.5498 -0.3137 -0.0876
 6845SOL    HW125092   6.141   1.936   9.227 -0.3701 -0.9217  0.8297
 6845SOL    HW225093   6.120   1.803   9.158 -0.5355 -1.2918  1.5853
 6846SOL     OW25094   6.725   8.431   6.263 -0.4825  0.4618 -0.3052
 6846SOL    HW125095   6.740   8.509   6.210  0.5627  1.3424  1.2129
 6846SOL    HW225096   6.732   8.358   6.202 -3.0516  1.5654 -2.0935
 6847SOL     OW25097   6.244   6.047   0.672  0.3590 -0.2035 -0.1494
 6847SOL    HW125098   6.156   6.033   0.637 -0.6671  0.2989  2.0171
 6847SOL    HW225099   6.230   6.055   0.767  2.7064  0.2724  0.2037
 6848SOL     OW25100  12.068   5.246   5.904 -0.2648  0.3316  0.2253
 6848SOL    HW125101  12.052   5.185   5.977  0.9466 -0.3746 -0.0755
 6848SOL    HW225102  12.128   5.199   5.847 -0.6500  1.1599 -0.8930
 6849SOL     OW25103  10.747   2.577   4.714  0.3717 -0.3709  0.2177
 6849SOL    HW125104  10.668   2.523   4.700 -0.0803  0.3876 -0.1778
 6849SOL    HW225105  10.800   2.562   4.636  0.3518 -0.4148  0.2119
 6850SOL     OW25106   6.736   3.568  11.741  0.4234 -0.1064 -0.5983
 6850SOL    HW125107   6.810   3.619  11.709  0.5069 -0.5336 -1.1171
 6850SOL    HW225108   6.743   3.484  11.694 -0.2267 -0.2503 -0.4508
 6851SOL     OW25109   7.034   7.343  10.593  0.1584 -0.1697 -0.3640
 6851SOL    HW125110   6.970   7.307  10.531  0.2868  0.2263 -0.7344
 6851SOL    HW225111   7.068   7.421  10.549  1.4358 -0.7732 -0.5062
 6852SOL     OW25112   3.426   5.122   5.009  0.3694  0.1322  0.3836
 6852SOL    HW125113   3.470   5.131   5.094 -2.2529  1.8916  1.6908
 6852SOL    HW225114   3.418   5.027   4.996  1.1898 -0.1700  1.8948
 6853SOL     OW25115   3.160   4.632   9.075 -0.2500  0.4236 -0.1089
 6853SOL    HW125116   3.157   4.537   9.087  1.9973  0.2316 -0.7355
 6853SOL    HW225117   3.153   4.644   8.980  1.2827  0.7532 -0.1975
 6854SOL     OW25118   8.345   0.074   3.955 -0.3129  0.5482  0.5232
 6854SOL    HW125119   8.366   0.110   4.042 -0.4029  1.9040  0.0167
 6854SOL    HW225120   8.423   0.024   3.930 -0.9739 -1.3939  2.1151
 6855SOL     OW25121   4.906   6.361   3.481  0.1773 -0.0159  0.2277
 6855SOL    HW125122   4.894   6.339   3.573 -2.1401 -0.7297 -0.1900
 6855SOL    HW225123   5.001   6.364   3.470  0.6020  2.2969  3.1198
 6856SOL     OW25124  11.241   3.328   3.819  0.0906 -0.1984  0.4512
 6856SOL    HW125125  11.193   3.379   3.753  1.2436  0.2678 -0.0591
 6856SOL    HW225126  11.333   3.340   3.795  0.6071  0.7738  2.7275
 6857SOL     OW25127  10.427   3.416  11.463 -0.4301  0.5579 -0.4430
 6857SOL    HW125128  10.515   3.382  11.476 -0.3964  0.3574 -1.1675
 6857SOL    HW225129  10.369   3.350  11.501 -0.2328  1.3876  1.4305
 6858SOL     OW25130   2.686  10.815  10.411 -0.1251  0.3968 -0.1089
 6858SOL    HW125131   2.612  10.865  10.445 -1.6558 -0.6584 -1.7251
 6858SOL    HW225132   2.648  10.757  10.345  2.1151 -0.3759 -0.8193
 6859SOL     OW25133   7.426   4.628   0.221  0.4992 -0.2798  0.4271
 6859SOL    HW125134   7.465   4.561   0.166 -1.7798 -0.5332 -1.0312
 6859SOL    HW225135   7.386   4.579   0.293  0.4665 -0.2955  0.3981
 6860SOL     OW25136  10.665   6.651  11.532 -0.1932  0.4062 -0.0627
 6860SOL    HW125137  10.641   6.575  11.586  0.6881  1.4782  1.9314
 6860SOL    HW225138  10.637   6.627  11.444 -0.7423 -1.8699  0.6610
 6861SOL     OW25139   2.076   8.853   9.755 -0.2732 -0.1343  0.1239
 6861SOL    HW125140   2.012   8.879   9.822  0.2534  0.7495  0.3060
 6861SOL    HW225141   2.077   8.926   9.693 -0.5355 -0.8163 -0.6971
 6862SOL     OW25142   5.836   8.024   4.803 -0.0880 -0.3663  0.1913
 6862SOL    HW125143   5.842   8.119   4.811 -2.6030 -0.1814  0.6934
 6862SOL    HW225144   5.805   7.995   4.889 -3.6595 -1.0746 -1.1582
 6863SOL     OW25145  10.152   2.484   8.576 -0.7575 -0.5224 -0.3822
 6863SOL    HW125146  10.121   2.438   8.498 -3.7118  1.0240 -0.2382
 6863SOL    HW225147  10.187   2.567   8.543 -0.3733 -0.6026 -0.1863
 6864SOL     OW25148   7.867   0.527   4.608  0.0702 -0.0720  0.1816
 6864SOL    HW125149   7.785   0.536   4.559 -0.6890  0.1662  1.4525
 6864SOL    HW225150   7.859   0.589   4.681  0.3126 -1.7713  1.7283
 6865SOL     OW25151   7.785  10.731   0.691  0.1343  0.5748 -0.0884
 6865SOL    HW125152   7.690  10.744   0.688  0.2134  1.3977  0.4138
 6865SOL    HW225153   7.798  10.639   0.668 -0.8373  0.2585  0.5606
 6866SOL     OW25154   9.281   9.689  10.761 -0.5070 -1.1533  0.7153
 6866SOL    HW125155   9.356   9.681  10.702  0.0515  1.6008  0.9477
 6866SOL    HW225156   9.315   9.662  10.846  0.2995  0.2403  0.8529
 6867SOL     OW25157  10.019   5.681   3.076 -0.7828  0.0732  0.1443
 6867SOL    HW125158   9.953   5.738   3.039  0.6957  1.0233 -1.1429
 6867SOL    HW225159  10.049   5.627   3.003  0.1629 -0.0317  0.5907
 6868SOL     OW25160   8.226   6.966  10.758  0.2557 -0.2806 -0.2990
 6868SOL    HW125161   8.304   6.914  10.741 -0.5353 -1.1111 -1.5327
 6868SOL    HW225162   8.216   7.023  10.681 -0.0460  0.2175  0.0973
 6869SOL     OW25163  11.220   0.779  10.872  1.2835  0.1315  0.1593
 6869SOL    HW125164  11.135   0.804  10.910  1.1921  1.1462 -0.6581
 6869SOL    HW225165  11.235   0.691  10.904  0.1016  0.0794  0.6482
 6870SOL     OW25166   8.956   7.276   0.989  0.3892  0.6185 -0.7205
 6870SOL    HW125167   8.953   7.185   1.018 -0.0719  0.2817 -1.7854
 6870SOL    HW225168   8.886   7.319   1.039 -0.5468 -0.0007 -1.4561
 6871SOL     OW25169   5.960   4.748   9.391 -0.2078  0.2504  0.0073
 6871SOL    HW125170   6.022   4.821   9.394 -1.4370  1.3455 -0.4409
 6871SOL    HW225171   6.003   4.682   9.336  1.0181  0.5193  0.6144
 6872SOL     OW25172   9.916   0.494   0.889  0.1997 -0.2084  0.2616
 6872SOL    HW125173   9.901   0.491   0.795 -0.0689  0.2058  0.2857
 6872SOL    HW225174   9.893   0.584   0.914 -0.7640 -0.6133  0.8878
 6873SOL     OW25175  10.363   7.127   6.937  0.5498  0.0894 -0.7122
 6873SOL    HW125176  10.305   7.053   6.956  0.1453  0.5735 -0.0113
 6873SOL    HW225177  10.446   7.102   6.976  0.9529 -0.7790 -2.0572
 6874SOL     OW25178  11.635   7.140   0.790  0.1707 -0.0709 -0.1463
 6874SOL    HW125179  11.725   7.148   0.760  1.1886 -0.0424  2.6423
 6874SOL    HW225180  11.632   7.188   0.872 -1.7475 -2.0329  1.0604
 6875SOL     OW25181  12.121  11.585   1.595  0.1255 -0.4692  0.0837
 6875SOL    HW125182  12.114  11.561   1.503  1.1033  2.8286 -0.9694
 6875SOL    HW225183  12.043  11.638   1.613 -1.0471 -2.5848  1.7987
 6876SOL     OW25184   7.680   4.109   6.138  0.4946 -0.5963 -0.2334
 6876SOL    HW125185   7.613   4.081   6.076  1.5903 -1.8385 -0.8959
 6876SOL    HW225186   7.735   4.170   6.088  0.0326  0.2143  0.2281
 6877SOL     OW25187   7.928   8.290   2.656 -0.8256 -0.1613 -0.4406
 6877SOL    HW125188   8.022   8.290   2.673 -0.7996  0.3907 -0.5729
 6877SOL    HW225189   7.894   8.361   2.710 -1.4330 -1.4735  0.9995
 6878SOL     OW25190   3.343   5.583   4.173  0.3389 -0.5620  0.7383
 6878SOL    HW125191   3.390   5.658   4.136  0.1461 -0.9894 -0.4000
 6878SOL    HW225192   3.345   5.599   4.268  0.0885  0.9985  0.5124
 6879SOL     OW25193   5.028  11.958   2.963 -0.3193  0.3020 -0.7299
 6879SOL    HW125194   5.038  11.964   3.058  2.5688  0.3973 -0.9581
 6879SOL    HW225195   4.981  11.876   2.948  2.9035 -1.9850  0.6930
 6880SOL     OW25196   4.940   6.605   2.299  0.2513 -0.0742  0.3581
 6880SOL    HW125197   4.888   6.681   2.274  2.6786  1.0956 -1.4745
 6880SOL    HW225198   4.875   6.537   2.317 -1.9434  0.9962 -2.6736
 6881SOL     OW25199   9.150  11.034   4.741  0.3192 -0.5470 -0.1794
 6881SOL    HW125200   9.059  11.004   4.747 -0.0541  0.5510 -0.1061
 6881SOL    HW225201   9.194  10.967   4.688 -0.8141 -0.4836 -1.2535
 6882SOL     OW25202  11.388   6.546  11.699 -0.0129 -0.3660  0.1718
 6882SOL    HW125203  11.378   6.605  11.624  1.4312  0.8379  0.8749
 6882SOL    HW225204  11.435   6.470  11.663 -0.6030 -0.4553 -0.4357
 6883SOL     OW25205   8.991   0.215   7.508 -0.1310  0.3000 -0.0489
 6883SOL    HW125206   8.917   0.221   7.568 -1.3444 -0.4409 -1.4140
 6883SOL    HW225207   9.057   0.274   7.545 -0.9197  0.0651  1.8489
 6884SOL     OW25208   1.065   9.259   1.507 -0.2734  0.3282  0.2429
 6884SOL    HW125209   1.089   9.171   1.478 -0.7546 -0.1859  1.3062
 6884SOL    HW225210   1.148   9.305   1.517 -0.0331  0.0786 -0.5763
 6885SOL     OW25211   7.215   8.918   4.952 -0.5283  0.5775 -0.0251
 6885SOL    HW125212   7.273   8.918   4.876 -0.9841  0.0965 -0.3798
 6885SOL    HW225213   7.274   8.920   5.028 -0.0444 -0.0656 -0.3754
 6886SOL     OW25214   5.094  11.750   7.567  0.0245  0.2064 -0.1535
 6886SOL    HW125215   5.185  11.739   7.540  0.4956  0.8323  1.0708
 6886SOL    HW225216   5.091  11.838   7.605 -1.1053  0.2072 -0.2018
 6887SOL     OW25217  11.343   5.584   2.357 -0.4310 -0.3225 -0.3569
 6887SOL    HW125218  11.317   5.625   2.439 -0.2372 -0.3991 -0.2566
 6887SOL    HW225219  11.386   5.654   2.308  1.7512 -0.8619  0.6432
 6888SOL     OW25220   9.063  10.968   1.356  0.2791  0.4508  0.0539
 6888SOL    HW125221   9.155  10.991   1.347  0.6282 -1.0379 -0.4764
 6888SOL    HW225222   9.061  10.905   1.428 -0.2771  0.2530 -0.1289
 6889SOL     OW25223  11.783   9.672   6.998 -0.5734 -0.1116  0.3204
 6889SOL    HW125224  11.694   9.656   7.029 -0.2195 -0.6967  1.0750
 6889SOL    HW225225  11.805   9.594   6.947  0.2414 -0.9234  1.8706
 6890SOL     OW25226  10.438   1.748   7.904 -0.3201  1.0038  0.2058
 6890SOL    HW125227  10.492   1.820   7.872  0.3755  0.7460  0.7867
 6890SOL    HW225228  10.427   1.765   7.997 -0.1560  0.3665  0.3468
 6891SOL     OW25229   0.104   0.311   9.044 -0.3212  0.7527  0.3235
 6891SOL    HW125230   0.091   0.278   8.955  1.0813  2.1245 -0.4384
 6891SOL    HW225231   0.200   0.312   9.055 -0.4416  1.6814  1.4290
 6892SOL     OW25232   9.934   6.768  11.578  0.0058 -0.0229 -0.0806
 6892SOL    HW125233   9.990   6.692  11.562  0.4201  0.2178  0.1951
 6892SOL    HW225234   9.990   6.844  11.559  0.0888  0.2402  1.1479
 6893SOL     OW25235  11.882   7.380  10.322  0.4577 -0.8035  0.5087
 6893SOL    HW125236  11.835   7.452  10.365 -0.6871 -0.5278 -1.0809
 6893SOL    HW225237  11.974   7.406  10.324  0.1885  0.1607  0.9390
 6894SOL     OW25238   9.731   0.333   1.249  0.6460  0.2124 -0.5607
 6894SOL    HW125239   9.827   0.340   1.250  0.7486 -0.8900 -1.0847
 6894SOL    HW225240   9.714   0.242   1.271 -0.3195  0.5613  0.1654
 6895SOL     OW25241   8.420   8.392   7.147  0.8285 -0.3827  0.4497
 6895SOL    HW125242   8.365   8.424   7.076 -0.4372 -2.4258  0.4211
 6895SOL    HW225243   8.451   8.307   7.116  1.6341 -0.5537  1.6699
 6896SOL     OW25244   4.802  10.840   2.676 -0.0086 -0.0930  0.3619
 6896SOL    HW125245   4.828  10.880   2.593 -3.4672  1.8558  0.0120
 6896SOL    HW225246   4.793  10.914   2.736 -1.9249 -0.8824  1.1247
 6897SOL     OW25247   4.848   2.658   1.707  0.8670  0.4289 -0.0920
 6897SOL    HW125248   4.917   2.594   1.690 -0.1294 -1.2199  1.6533
 6897SOL    HW225249   4.787   2.648   1.634  0.7778 -0.5628  0.1059
 6898SOL     OW25250   2.596   0.005   9.953  0.4052  0.2909  0.7713
 6898SOL    HW125251   2.642   0.073   9.904  0.9846 -0.2498  0.5341
 6898SOL    HW225252   2.517   0.047   9.986 -0.3233  0.5362 -1.1439
 6899SOL     OW25253   3.592   8.792   1.227  0.2170 -0.4619  0.2911
 6899SOL    HW125254   3.598   8.777   1.321 -1.6245  0.7307  0.6461
 6899SOL    HW225255   3.664   8.852   1.208  0.1916 -0.1693  1.0683
 6900SOL     OW25256   7.687   1.435   7.063 -0.1489  0.0080  0.7717
 6900SOL    HW125257   7.665   1.499   7.131  0.6226 -0.2332  1.2581
 6900SOL    HW225258   7.686   1.351   7.108  2.4022  0.0446  1.0080
 6901SOL     OW25259   6.826   0.438   4.333 -0.5405 -0.3493  0.4070
 6901SOL    HW125260   6.784   0.485   4.405 -0.6984  0.2791 -0.0756
 6901SOL    HW225261   6.753   0.401   4.283 -0.3782 -1.9776  1.3394
 6902SOL     OW25262   2.589   5.543   3.664 -0.6599 -0.6086  0.1587
 6902SOL    HW125263   2.556   5.468   3.615 -0.9222 -0.7962  0.6140
 6902SOL    HW225264   2.581   5.617   3.604 -1.1564 -0.8005 -0.0183
 6903SOL     OW25265   9.610   0.277   0.323 -0.2546  0.1426  0.0979
 6903SOL    HW125266   9.691   0.319   0.352  0.9701 -1.5679 -0.6250
 6903SOL    HW225267   9.623   0.263   0.229 -2.1495  1.3763 -0.3860
 6904SOL     OW25268   3.050   9.866  11.962 -0.1413 -0.6971  0.3315
 6904SOL    HW125269   3.101   9.812  11.901  0.2091 -1.4115  1.2352
 6904SOL    HW225270   3.029   9.945  11.912  0.0257 -1.3204 -0.7529
 6905SOL     OW25271  12.043  11.236   5.649  0.0499  0.3255  0.2119
 6905SOL    HW125272  11.975  11.170   5.665 -0.6663  0.7766 -0.8823
 6905SOL    HW225273  12.112  11.215   5.713 -0.0709 -1.5835 -0.2320
 6906SOL     OW25274   6.405   8.286   6.763 -0.3017  0.0808 -0.2433
 6906SOL    HW125275   6.332   8.303   6.822 -0.2761  0.7396 -0.3913
 6906SOL    HW225276   6.416   8.368   6.715  0.8332  0.1466  0.1057
 6907SOL     OW25277   0.983   2.432  11.234  0.4040 -0.3160  0.1691
 6907SOL    HW125278   0.999   2.490  11.159  1.0103 -1.3280 -0.5075
 6907SOL    HW225279   1.049   2.457  11.298  0.7407 -0.3339 -0.1675
 6908SOL     OW25280  10.700  11.703   4.922  0.6922  0.5707  0.5634
 6908SOL    HW125281  10.657  11.714   4.837  1.2021 -0.7983  0.0917
 6908SOL    HW225282  10.674  11.615   4.951  0.7584  0.9039  1.6943
 6909SOL     OW25283   4.677   8.005   8.782 -0.0537  0.2643 -0.1066
 6909SOL    HW125284   4.691   8.082   8.838 -1.0770  0.3670  0.0338
 6909SOL    HW225285   4.626   7.945   8.837 -1.2325  0.4402 -0.9799
 6910SOL     OW25286   8.074   2.506   5.265  0.0232 -0.0150 -0.7926
 6910SOL    HW125287   8.070   2.460   5.181  0.8920 -1.7885  0.0799
 6910SOL    HW225288   8.003   2.469   5.316 -0.3883  0.9276 -0.6758
 6911SOL     OW25289   8.742   7.371   0.097 -0.5452  0.0377  0.2930
 6911SOL    HW125290   8.700   7.395   0.014 -0.0719  1.4366  0.4345
 6911SOL    HW225291   8.788   7.289   0.078  1.0493  1.2378 -1.3646
 6912SOL     OW25292  11.498   4.086   8.390 -0.0848 -0.1963 -0.1500
 6912SOL    HW125293  11.540   4.051   8.311 -1.0285 -1.8463  0.0465
 6912SOL    HW225294  11.518   4.180   8.387  2.3721 -0.6636 -0.8068
 6913SOL     OW25295   7.051   7.990  11.434 -0.3028  0.1441 -0.2444
 6913SOL    HW125296   7.118   7.959  11.373  2.3680  1.3089  1.9291
 6913SOL    HW225297   6.999   7.912  11.454 -0.8300 -0.4325 -3.3003
 6914SOL     OW25298   3.575   9.646   3.079 -0.3962 -0.4016  0.2914
 6914SOL    HW125299   3.563   9.560   3.039  0.0263 -1.2617  1.9123
 6914SOL    HW225300   3.631   9.630   3.155 -1.5519  1.0325  1.5239
 6915SOL     OW25301  11.993   3.738   4.445 -0.6633 -0.4645  0.0797
 6915SOL    HW125302  11.936   3.808   4.478  0.4422  1.7278 -2.3429
 6915SOL    HW225303  11.940   3.695   4.378 -0.6637 -0.7065  0.2342
 6916SOL     OW25304   1.751   3.666   8.976  0.7321 -0.4255 -0.7178
 6916SOL    HW125305   1.756   3.749   9.024  0.3197 -1.4870  1.3035
 6916SOL    HW225306   1.842   3.644   8.956  1.0768 -0.5826  0.8345
 6917SOL     OW25307  11.875  10.693   6.357 -0.3457  0.7442 -0.1127
 6917SOL    HW125308  11.784  10.710   6.336 -0.1608 -2.1665 -4.6801
 6917SOL    HW225309  11.924  10.765   6.317 -0.5218  0.4472 -0.8792
 6918SOL     OW25310   3.325   6.688   5.255  0.3885  0.2029 -0.1360
 6918SOL    HW125311   3.356   6.621   5.196  0.7585  0.1893  0.0729
 6918SOL    HW225312   3.324   6.646   5.341  1.1650  0.6248  0.0882
 6919SOL     OW25313   8.271   7.938   6.987 -0.4315  0.2617 -0.1376
 6919SOL    HW125314   8.299   8.004   6.923 -0.7017  0.6155  0.1030
 6919SOL    HW225315   8.326   7.862   6.968 -1.4339 -0.1260 -1.6695
 6920SOL     OW25316   0.444   2.743   6.922 -0.0611 -0.3326 -0.1491
 6920SOL    HW125317   0.447   2.667   6.865  1.2513  0.8029 -1.6862
 6920SOL    HW225318   0.535   2.768   6.935 -0.4392  0.8214  0.5410
 6921SOL     OW25319   3.677  10.447   6.845  0.0526 -0.5882  0.7036
 6921SOL    HW125320   3.672  10.507   6.919 -2.1950 -0.8984  0.8784
 6921SOL    HW225321   3.770  10.431   6.833  0.7684  2.8907  0.6380
 6922SOL     OW25322   6.505  10.362   2.170 -0.2606 -0.2677 -0.4840
 6922SOL    HW125323   6.585  10.314   2.191 -0.5596 -1.0233 -1.0202
 6922SOL    HW225324   6.435  10.296   2.175 -0.8483  0.3828 -0.0224
 6923SOL     OW25325   3.300   6.948   1.984 -0.0211  1.3421 -0.0431
 6923SOL    HW125326   3.222   6.978   1.937  0.6620  2.9010 -0.2641
 6923SOL    HW225327   3.342   7.029   2.013 -0.2990  0.4822  3.1256
 6924SOL     OW25328   3.403  10.511   2.034 -0.3519 -0.4968 -0.3151
 6924SOL    HW125329   3.436  10.601   2.032 -1.0089 -0.2579 -0.9894
 6924SOL    HW225330   3.434  10.476   2.117  2.5955 -0.6684 -1.3676
 6925SOL     OW25331   4.212   5.840   7.679  0.3650  0.7032 -0.0423
 6925SOL    HW125332   4.263   5.871   7.604 -1.0009  0.9635 -0.8880
 6925SOL    HW225333   4.139   5.901   7.685 -0.1197  0.0515  0.8505
 6926SOL     OW25334   5.175   4.457   0.888  0.4232  0.1564  0.5540
 6926SOL    HW125335   5.258   4.485   0.927  0.5853  0.8469 -0.2695
 6926SOL    HW225336   5.198   4.431   0.799 -0.2925  0.6599  0.2171
 6927SOL     OW25337  11.851  10.139  10.618  0.3949  0.2046  0.6298
 6927SOL    HW125338  11.804  10.149  10.535  1.3179 -0.9142 -0.0463
 6927SOL    HW225339  11.895  10.223  10.630  0.5104  0.2655 -0.1694
 6928SOL     OW25340   1.084   2.511   1.509  0.3004 -0.1220 -0.3955
 6928SOL    HW125341   1.033   2.562   1.572  0.8800 -1.5490  1.2986
 6928SOL    HW225342   1.164   2.488   1.555  1.8394  0.7488 -2.4798
 6929SOL     OW25343   3.098  11.727   7.309  0.1619 -0.4483  0.6524
 6929SOL    HW125344   3.024  11.703   7.253 -0.7868  0.5319  1.4395
 6929SOL    HW225345   3.134  11.805   7.268  1.3831 -1.4416 -0.2488
 6930SOL     OW25346  11.526   7.971   2.320 -0.4157  0.1763 -0.3394
 6930SOL    HW125347  11.616   7.941   2.305  0.3599  1.2851  1.6093
 6930SOL    HW225348  11.473   7.892   2.312  0.9195 -0.7830 -0.2078
 6931SOL     OW25349   7.065   9.176   0.997 -0.5173  0.0721  0.2006
 6931SOL    HW125350   6.980   9.220   0.985 -1.9207 -2.4272  0.2021
 6931SOL    HW225351   7.073   9.120   0.919  1.5523  0.8534 -0.1898
 6932SOL     OW25352   0.204   3.100   2.315  0.2071 -0.1396  0.3815
 6932SOL    HW125353   0.240   3.116   2.228 -0.0385 -0.4645  0.2177
 6932SOL    HW225354   0.125   3.047   2.299  0.9144 -1.3904  0.8925
 6933SOL     OW25355   5.494   7.350   7.817  0.0777  0.1116 -0.2692
 6933SOL    HW125356   5.556   7.417   7.792  0.4358  0.3538  1.1760
 6933SOL    HW225357   5.513   7.333   7.909 -1.3641 -0.4945 -0.0581
 6934SOL     OW25358   6.068   8.271   5.797 -0.4953  0.2663 -0.3025
 6934SOL    HW125359   6.140   8.258   5.736 -0.7745 -2.5421 -0.1470
 6934SOL    HW225360   6.092   8.350   5.847  2.5139 -0.6333 -0.1806
 6935SOL     OW25361  11.713   7.668   1.461  0.2309  0.1822 -0.0458
 6935SOL    HW125362  11.657   7.739   1.431 -1.1695 -0.9288 -0.1575
 6935SOL    HW225363  11.682   7.648   1.549 -0.1071 -0.9840 -0.4160
 6936SOL     OW25364  10.705   4.165   1.229  0.4315 -0.6115  0.2633
 6936SOL    HW125365  10.770   4.203   1.289  0.7169  0.2960 -0.5860
 6936SOL    HW225366  10.742   4.081   1.204  0.9370 -0.4290  0.3665
 6937SOL     OW25367   2.510   2.185   9.486  0.3119  0.3258  0.1462
 6937SOL    HW125368   2.475   2.238   9.415 -0.7616  1.6023  1.5684
 6937SOL    HW225369   2.593   2.226   9.508  0.5951 -0.0081 -0.2759
 6938SOL     OW25370  10.797   2.662   6.318  0.3316  0.7346 -0.4901
 6938SOL    HW125371  10.752   2.725   6.262 -1.0562  0.7420  0.5820
 6938SOL    HW225372  10.881   2.703   6.339 -0.3836  2.0622 -0.1292
 6939SOL     OW25373   3.600   9.149   5.385 -0.1164 -0.2236  0.5360
 6939SOL    HW125374   3.522   9.166   5.333 -0.6672 -0.5828  1.2398
 6939SOL    HW225375   3.673   9.176   5.328 -0.7547  0.3278 -0.0297
 6940SOL     OW25376   3.365   1.973   5.996 -0.5912  0.3736 -0.3341
 6940SOL    HW125377   3.364   1.986   5.901  0.9692  0.3200 -0.3866
 6940SOL    HW225378   3.314   2.046   6.030 -2.5796 -0.5145 -1.2817
 6941SOL     OW25379   3.946   8.443   9.627  0.5461 -0.2534  0.4624
 6941SOL    HW125380   3.973   8.385   9.556  0.5733  0.8322 -0.4449
 6941SOL    HW225381   4.027   8.482   9.659  0.3408  1.0506 -0.5287
 6942SOL     OW25382   3.785   3.257   1.556 -0.5974 -0.2618 -0.3216
 6942SOL    HW125383   3.859   3.298   1.601 -1.5075 -0.4260  1.4111
 6942SOL    HW225384   3.794   3.164   1.577 -0.7953 -0.4063 -0.8661
 6943SOL     OW25385   0.315   3.561   6.382 -0.1727 -0.5809  0.1642
 6943SOL    HW125386   0.378   3.500   6.419  0.0069 -0.2353  0.4214
 6943SOL    HW225387   0.368   3.631   6.344 -0.4392  0.9202  2.4340
 6944SOL     OW25388   5.170   9.626  11.256  0.0034  0.3167 -0.0804
 6944SOL    HW125389   5.175   9.566  11.181 -0.6716 -1.2564  1.0782
 6944SOL    HW225390   5.230   9.697  11.234 -0.7914  0.3487 -2.4829
 6945SOL     OW25391   4.474   4.122   4.549  0.0200 -0.0335 -0.5405
 6945SOL    HW125392   4.392   4.158   4.516 -0.0386  0.0854 -0.2734
 6945SOL    HW225393   4.453   4.095   4.639  0.8728  2.1317  0.3676
 6946SOL     OW25394   3.850   5.912   5.767  0.2708  0.1318  0.1372
 6946SOL    HW125395   3.831   5.824   5.798 -1.2748  0.6853  0.8570
 6946SOL    HW225396   3.915   5.899   5.698 -1.7360 -1.8547 -1.5578
 6947SOL     OW25397   7.648   2.737   1.591 -0.2081 -0.2674  0.2297
 6947SOL    HW125398   7.660   2.646   1.616  1.1279 -0.1336  0.1630
 6947SOL    HW225399   7.736   2.775   1.596 -1.0069  1.5782  2.4530
 6948SOL     OW25400   3.021   9.156   8.975 -0.3184 -0.7172 -0.1601
 6948SOL    HW125401   2.935   9.117   8.990 -0.1552 -0.6940  0.9113
 6948SOL    HW225402   3.083   9.085   8.992 -0.1167 -0.7237 -0.8880
 6949SOL     OW25403   8.031   2.001   8.083 -0.3648  0.2389  0.0255
 6949SOL    HW125404   8.113   1.958   8.060 -0.0976  0.5936  0.2936
 6949SOL    HW225405   7.982   2.005   8.001  1.1210  2.6868 -0.8609
 6950SOL     OW25406   7.177   1.239   0.891  0.0788 -0.0194 -0.2742
 6950SOL    HW125407   7.191   1.172   0.824  0.0402 -0.6632  0.3569
 6950SOL    HW225408   7.166   1.320   0.841 -2.6798 -0.8788 -1.2078
 6951SOL     OW25409   5.368   1.285   6.184 -0.1808  0.4247  0.6620
 6951SOL    HW125410   5.371   1.249   6.096  1.3946 -3.2925  2.0553
 6951SOL    HW225411   5.277   1.271   6.212 -0.1002 -0.6762  0.4331
 6952SOL     OW25412   6.675   1.463   7.854  0.2405  0.7289  0.2305
 6952SOL    HW125413   6.762   1.484   7.887  0.8814  1.0245 -1.5169
 6952SOL    HW225414   6.670   1.367   7.857  1.1818  0.6244 -0.9145
 6953SOL     OW25415   9.434   4.363   8.698 -0.0585 -0.5331 -0.4555
 6953SOL    HW125416   9.363   4.415   8.736 -0.5608 -1.5186 -0.0202
 6953SOL    HW225417   9.435   4.283   8.750  2.1148 -0.0877  0.2909
 6954SOL     OW25418   7.993   5.935   5.419  0.4789 -0.6424  0.0790
 6954SOL    HW125419   8.063   5.869   5.429 -0.1160 -1.3111 -0.1269
 6954SOL    HW225420   8.035   6.006   5.370  1.3162 -0.5687  0.8615
 6955SOL     OW25421   4.031   3.253   7.079 -0.0404 -0.3866  0.2851
 6955SOL    HW125422   4.038   3.235   6.985 -2.8826  0.6095 -0.2182
 6955SOL    HW225423   4.007   3.345   7.084  1.0050 -0.1641  2.0928
 6956SOL     OW25424   6.074   7.314   0.543 -0.4631 -0.1165  0.3058
 6956SOL    HW125425   6.034   7.247   0.598 -0.0704 -1.7898 -1.3482
 6956SOL    HW225426   6.099   7.268   0.463 -1.5959  2.3393 -1.5925
 6957SOL     OW25427   4.595   4.831   8.524 -1.1380 -0.2754 -0.6950
 6957SOL    HW125428   4.601   4.737   8.539 -2.5206 -0.3338 -0.4414
 6957SOL    HW225429   4.503   4.853   8.536 -1.1849  0.7998 -2.5705
 6958SOL     OW25430  12.094   0.546   5.478  0.8958  0.2069 -0.0046
 6958SOL    HW125431  12.014   0.598   5.487 -0.3970 -1.5574 -0.8138
 6958SOL    HW225432  12.120   0.526   5.568 -0.6427 -0.7410  0.2563
 6959SOL     OW25433   5.678  11.288   6.403  0.2315 -0.3533 -0.2485
 6959SOL    HW125434   5.773  11.275   6.416  0.6018  0.8553 -1.6084
 6959SOL    HW225435   5.672  11.354   6.334 -1.5981  1.3538  1.4328
 6960SOL     OW25436   8.644   4.119   1.702  0.1910 -0.0475  0.8532
 6960SOL    HW125437   8.591   4.042   1.681  0.1953 -0.1824  1.3379
 6960SOL    HW225438   8.702   4.129   1.627 -0.4002 -0.0001  0.3896
 6961SOL     OW25439  11.064  10.353  11.672  0.0763  0.6355  0.1944
 6961SOL    HW125440  11.116  10.343  11.752 -1.8463  0.3056  1.4711
 6961SOL    HW225441  11.122  10.399  11.611  2.0559 -0.2777  1.3047
 6962SOL     OW25442   9.163   3.900   6.687  0.2115  0.3212 -0.1507
 6962SOL    HW125443   9.118   3.920   6.605 -0.8107  0.2441  0.3726
 6962SOL    HW225444   9.142   3.809   6.705 -0.6009  0.6684  0.7965
 6963SOL     OW25445   9.007   1.220  10.302  0.1905  0.0388 -0.3812
 6963SOL    HW125446   9.005   1.215  10.207 -1.2087  0.1706 -0.3793
 6963SOL    HW225447   9.063   1.295  10.321  0.2779  0.1623 -1.1038
 6964SOL     OW25448  10.832  11.595  10.588  0.0833 -0.2824  0.5232
 6964SOL    HW125449  10.821  11.690  10.596 -2.4118 -0.3792 -0.8696
 6964SOL    HW225450  10.769  11.558  10.650 -0.8870 -0.9795 -0.8258
 6965SOL     OW25451   4.846   7.358   3.023  0.4148 -0.0469 -0.3202
 6965SOL    HW125452   4.909   7.383   3.090  0.8532 -1.9307  0.0411
 6965SOL    HW225453   4.867   7.413   2.948  2.5214 -0.6235 -0.2097
 6966SOL     OW25454   7.771   3.854   0.888 -0.5154 -0.3015 -0.1215
 6966SOL    HW125455   7.676   3.862   0.876 -0.4641  1.2360  0.3142
 6966SOL    HW225456   7.784   3.762   0.912 -1.9305 -0.4668  0.1183
 6967SOL     OW25457   8.139  11.514   5.878  0.0616  0.3667 -0.0669
 6967SOL    HW125458   8.160  11.423   5.860  0.6986  0.1102  1.7675
 6967SOL    HW225459   8.162  11.560   5.798 -0.4348 -1.0922 -1.0846
 6968SOL     OW25460  11.813   4.897  11.499 -0.3043  0.5898  0.1313
 6968SOL    HW125461  11.730   4.907  11.452  1.1811  1.1851 -2.5292
 6968SOL    HW225462  11.839   4.806  11.481 -1.9591 -0.8542  3.9432
 6969SOL     OW25463   6.933   7.192   4.426 -0.1937  0.3649 -0.1289
 6969SOL    HW125464   6.947   7.286   4.438  2.7837  0.1297 -0.8496
 6969SOL    HW225465   6.865   7.186   4.359  0.4117  2.0617 -0.9548
 6970SOL     OW25466   8.968   4.823  11.242 -0.1939  0.3059 -0.1443
 6970SOL    HW125467   8.950   4.741  11.287 -1.6726  0.4565 -0.4008
 6970SOL    HW225468   8.940   4.808  11.152 -1.2547  1.3191 -0.0111
 6971SOL     OW25469  11.748   4.451   7.707 -0.0018 -0.0749  0.2368
 6971SOL    HW125470  11.715   4.506   7.637 -2.3647  0.0430  1.3252
 6971SOL    HW225471  11.797   4.510   7.764 -1.3764  0.6700  0.6853
 6972SOL     OW25472   4.585   1.946  11.325 -0.1796  0.2487  0.1284
 6972SOL    HW125473   4.545   1.959  11.411 -0.2844  1.0541 -0.0321
 6972SOL    HW225474   4.621   1.858  11.328 -0.4117  0.1756  0.9058
 6973SOL     OW25475   3.622   6.403   5.646  0.1366 -0.5479  0.9553
 6973SOL    HW125476   3.623   6.308   5.631 -2.1973 -0.3425 -1.1133
 6973SOL    HW225477   3.619   6.412   5.741 -1.0270 -2.6220  1.1735
 6974SOL     OW25478   5.154   7.350   6.009 -0.1159  0.0499 -0.4589
 6974SOL    HW125479   5.122   7.334   5.920 -0.1929  3.0322 -1.0626
 6974SOL    HW225480   5.238   7.304   6.013 -1.0183 -1.7778 -1.3443
 6975SOL     OW25481   0.481   5.366   1.195 -0.5938 -0.1570 -0.0736
 6975SOL    HW125482   0.528   5.378   1.277  0.0151 -3.0064  0.0634
 6975SOL    HW225483   0.405   5.424   1.202  0.1219  0.6027  1.9182
 6976SOL     OW25484  11.450   2.229   8.223  0.5050  0.3996 -0.4141
 6976SOL    HW125485  11.443   2.325   8.223  0.6107  0.4623  2.0104
 6976SOL    HW225486  11.544   2.212   8.222  0.4907  0.2520 -1.9765
 6977SOL     OW25487   9.846   7.120   4.318  0.1789  0.3918 -0.2445
 6977SOL    HW125488   9.851   7.040   4.371 -1.7971 -0.2463 -0.9357
 6977SOL    HW225489   9.880   7.189   4.376  0.4751 -0.6913  0.9220
 6978SOL     OW25490   5.071   2.737   6.847  0.2254 -0.3375  0.1149
 6978SOL    HW125491   5.096   2.811   6.792 -2.9227  1.4144  0.7878
 6978SOL    HW225492   5.105   2.759   6.934  1.5610 -1.0315 -0.2120
 6979SOL     OW25493   3.766   7.464   2.655  1.0210 -0.6692  0.2645
 6979SOL    HW125494   3.835   7.501   2.601  0.2740 -1.4740 -1.2910
 6979SOL    HW225495   3.704   7.426   2.593 -0.5523 -0.4530  1.6265
 6980SOL     OW25496   7.976   6.677  11.019  0.2596 -0.1834 -0.1842
 6980SOL    HW125497   8.015   6.596  11.048 -1.3642 -0.8198  0.3376
 6980SOL    HW225498   7.882   6.666  11.035 -0.1170  1.3925 -1.0383
 6981SOL     OW25499   2.243   8.350   2.485  0.4237 -0.4537  0.4522
 6981SOL    HW125500   2.203   8.270   2.451 -0.0132 -0.5314  1.1357
 6981SOL    HW225501   2.175   8.416   2.476  0.4626 -0.3725  0.7580
 6982SOL     OW25502   9.234   6.737   1.201 -0.0477  0.2619  0.2545
 6982SOL    HW125503   9.248   6.829   1.182 -0.3752  0.2283 -0.1773
 6982SOL    HW225504   9.254   6.728   1.294  2.1434  0.3159 -0.1589
 6983SOL     OW25505   7.003   1.708   8.909 -0.0575  1.0291  0.3041
 6983SOL    HW125506   6.923   1.750   8.939 -0.1348 -0.2473  2.0446
 6983SOL    HW225507   7.030   1.760   8.833 -1.2015  2.9457  1.1279
 6984SOL     OW25508   2.607   7.846  10.719 -0.3422 -0.0972 -0.1592
 6984SOL    HW125509   2.617   7.901  10.641  2.6540  0.2107  0.3057
 6984SOL    HW225510   2.603   7.909  10.791  0.9958 -0.3845  0.2004
 6985SOL     OW25511  10.301   1.323   2.791  0.5948 -0.0373  0.0267
 6985SOL    HW125512  10.222   1.321   2.736  0.0609 -0.0313  0.7789
 6985SOL    HW225513  10.364   1.269   2.743 -0.0348 -0.4694 -0.3365
 6986SOL     OW25514   3.290   9.302   3.604 -0.2604  0.3214 -0.0919
 6986SOL    HW125515   3.305   9.234   3.669  0.1100  1.5168  1.1183
 6986SOL    HW225516   3.378   9.321   3.570 -0.0076  1.7985  1.2802
 6987SOL     OW25517  11.268   6.353   9.291  0.5628 -0.9592 -0.1393
 6987SOL    HW125518  11.285   6.324   9.380  0.9059  1.3760  0.6058
 6987SOL    HW225519  11.354   6.366   9.253  0.4119 -1.0694 -0.5277
 6988SOL     OW25520  11.697   4.852   4.930  0.5501 -0.2250  0.0668
 6988SOL    HW125521  11.646   4.895   4.999  0.4230  2.3813 -1.5048
 6988SOL    HW225522  11.638   4.850   4.855  1.7228 -0.0880 -0.8732
 6989SOL     OW25523   1.723  11.466   8.348  0.4363 -0.1518  0.4134
 6989SOL    HW125524   1.648  11.424   8.391  0.5406  0.6691  1.4324
 6989SOL    HW225525   1.704  11.559   8.353  1.4423  0.0566  0.5224
 6990SOL     OW25526   8.894  10.563   1.330  0.1818 -0.2327  0.3300
 6990SOL    HW125527   8.978  10.577   1.373  1.6166  0.5994 -2.5471
 6990SOL    HW225528   8.903  10.478   1.287  0.3943  0.7518 -1.6801
 6991SOL     OW25529  11.664   2.493  10.312 -0.0421 -0.2262  0.6788
 6991SOL    HW125530  11.659   2.587  10.295 -0.3032 -0.1956  0.9138
 6991SOL    HW225531  11.750   2.468  10.280 -0.5229 -0.1839 -0.7211
 6992SOL     OW25532   9.335   1.604   4.443  0.3307  0.1395 -0.1335
 6992SOL    HW125533   9.411   1.578   4.493 -0.9232 -0.5779  1.4856
 6992SOL    HW225534   9.270   1.629   4.509 -1.1914 -0.2983 -1.4014
 6993SOL     OW25535   9.335   1.696   9.065 -0.0947  0.1561 -0.0054
 6993SOL    HW125536   9.268   1.630   9.081  1.2383 -0.9551  1.3043
 6993SOL    HW225537   9.408   1.669   9.121  1.1161  1.8042 -0.7333
 6994SOL     OW25538   6.338   1.119   1.141  0.5887 -0.0291  0.2939
 6994SOL    HW125539   6.400   1.188   1.163 -0.2044  0.4793  0.9829
 6994SOL    HW225540   6.252   1.163   1.142 -0.1442 -1.3882  2.5561
 6995SOL     OW25541   8.287  10.213   3.355 -0.0710  0.8191  0.2546
 6995SOL    HW125542   8.362  10.272   3.363 -0.4515  1.2112  0.9737
 6995SOL    HW225543   8.214  10.270   3.331 -0.2953  0.5356  0.2659
 6996SOL     OW25544   9.689   4.235  10.387 -0.3065  0.1214  0.7746
 6996SOL    HW125545   9.737   4.160  10.421 -0.1076  0.0194  0.2731
 6996SOL    HW225546   9.670   4.288  10.465 -0.2191 -0.3113  1.0981
 6997SOL     OW25547   2.367   9.150   5.310 -0.2676 -0.3845 -0.5260
 6997SOL    HW125548   2.433   9.112   5.368  0.7782  1.4975 -0.4115
 6997SOL    HW225549   2.283   9.132   5.354  0.4880  0.9716  1.6157
 6998SOL     OW25550  11.371   0.715  11.192  0.1257  0.2440 -0.1295
 6998SOL    HW125551  11.399   0.754  11.275  1.0648  0.5262 -0.5671
 6998SOL    HW225552  11.279   0.740  11.184  0.0828  0.4036  0.7142
 6999SOL     OW25553  11.968   9.756   5.075  0.3562  0.5802 -0.4521
 6999SOL    HW125554  11.962   9.671   5.119 -1.2423  0.8339 -0.1102
 6999SOL    HW225555  11.953   9.736   4.983  1.5230  0.3235 -0.6049
 7000SOL     OW25556   1.886   3.069   7.733 -0.1118 -0.3737  0.1190
 7000SOL    HW125557   1.849   2.999   7.679  0.8695 -1.5956  0.9448
 7000SOL    HW225558   1.814   3.130   7.748 -0.6071 -0.4344 -1.8433
 7001SOL     OW25559  12.059  11.623   2.480  0.6713  0.0484 -0.1936
 7001SOL    HW125560  12.133  11.650   2.535 -0.2326  0.7358  0.7040
 7001SOL    HW225561  12.005  11.702   2.472 -0.2705 -0.6009 -0.3605
 7002SOL     OW25562   6.869   5.191   4.500 -0.6272 -0.5572  0.1512
 7002SOL    HW125563   6.805   5.246   4.455  0.0609  1.7299  1.8029
 7002SOL    HW225564   6.856   5.210   4.593  1.4271 -1.1632  0.6219
 7003SOL     OW25565   3.390   1.729   2.916 -0.2834 -0.3837 -0.0088
 7003SOL    HW125566   3.357   1.772   2.995 -0.8222 -1.0933  0.1514
 7003SOL    HW225567   3.314   1.688   2.876  0.3585 -1.9928  0.3366
 7004SOL     OW25568   6.336   6.880   1.581  0.0417  0.1307  0.5287
 7004SOL    HW125569   6.283   6.947   1.539 -0.1520  0.2252  0.9149
 7004SOL    HW225570   6.379   6.925   1.654 -0.1485 -0.1738  0.8372
 7005SOL     OW25571  11.359   4.911   3.482  0.5691 -0.3025 -0.0409
 7005SOL    HW125572  11.329   4.833   3.528  1.8582 -0.2913  0.8710
 7005SOL    HW225573  11.358   4.886   3.390  0.1402 -1.0965  0.1667
 7006SOL     OW25574  10.868   5.961  10.192 -0.4325 -0.0152 -0.0202
 7006SOL    HW125575  10.794   5.919  10.238 -0.4243 -0.9469 -0.8261
 7006SOL    HW225576  10.945   5.931  10.239 -0.3116 -2.1150 -1.3885
 7007SOL     OW25577   2.245   7.350   5.479 -0.1042 -0.4015 -0.2157
 7007SOL    HW125578   2.339   7.332   5.482  0.2707  1.3551 -0.3864
 7007SOL    HW225579   2.221   7.338   5.387  0.7421  2.4577 -0.9276
 7008SOL     OW25580   0.828   9.121   8.005  0.5258 -0.3349  0.2351
 7008SOL    HW125581   0.779   9.196   7.971 -0.5856 -0.2658  1.8954
 7008SOL    HW225582   0.888   9.097   7.934  0.3736  1.6408 -0.6106
 7009SOL     OW25583   2.882   0.373   1.870 -0.2092  0.5298  0.4421
 7009SOL    HW125584   2.924   0.346   1.952  0.2338  0.7434  0.2938
 7009SOL    HW225585   2.863   0.466   1.882 -0.5599  0.4548  0.4732
 7010SOL     OW25586   7.880  11.651   2.345 -0.4800 -0.6248 -0.2671
 7010SOL    HW125587   7.788  11.628   2.330 -0.1796 -2.0460 -0.1089
 7010SOL    HW225588   7.928  11.570   2.327  0.7950  0.1969 -0.7554
 7011SOL     OW25589   3.832  11.334   2.278  0.5054  0.0873 -0.0678
 7011SOL    HW125590   3.824  11.255   2.331  1.3330  0.3254  0.4359
 7011SOL    HW225591   3.744  11.372   2.277  0.7943  1.1323  2.8283
 7012SOL     OW25592   1.233   3.770   1.547  0.0388  0.3032  0.1671
 7012SOL    HW125593   1.254   3.863   1.561 -0.8477  0.6712 -0.8379
 7012SOL    HW225594   1.225   3.761   1.452 -3.3467  0.0256  0.3411
 7013SOL     OW25595  11.926   8.000   8.979  0.3375  0.1128 -0.3803
 7013SOL    HW125596  11.964   7.914   9.000 -0.1561 -0.1560 -0.5712
 7013SOL    HW225597  11.845   7.979   8.932  1.0927  0.7068 -1.9772
 7014SOL     OW25598  10.746   9.236   3.271 -0.6218 -0.2875  0.5679
 7014SOL    HW125599  10.799   9.231   3.191 -2.2430  1.3612 -0.6967
 7014SOL    HW225600  10.719   9.328   3.276 -2.5828 -0.8592  1.6367
 7015SOL     OW25601  11.427   5.964   2.951 -0.3080 -0.5686 -0.2379
 7015SOL    HW125602  11.447   5.875   2.920 -0.9555 -0.7813 -0.0515
 7015SOL    HW225603  11.432   5.957   3.046 -0.0993 -0.3361 -0.2303
 7016SOL     OW25604   2.879   8.093   4.796  0.0937  0.0846 -0.1837
 7016SOL    HW125605   2.932   8.067   4.721  0.4094  3.0295 -1.1168
 7016SOL    HW225606   2.789   8.074   4.769  0.1210  1.8593 -1.7592
 7017SOL     OW25607   9.487   8.866   9.172 -0.0183  0.7736  0.5322
 7017SOL    HW125608   9.429   8.826   9.107  0.0932  1.1547  0.1958
 7017SOL    HW225609   9.430   8.891   9.244  0.0717 -1.1893  1.3491
 7018SOL     OW25610  10.153   3.834   3.860 -0.2569 -0.1863 -0.5244
 7018SOL    HW125611  10.202   3.897   3.807 -0.8990  1.6115  0.9421
 7018SOL    HW225612  10.063   3.868   3.861 -0.4695 -0.7372  0.8906
 7019SOL     OW25613   7.312   8.948   9.622 -0.2815 -0.5870 -0.0889
 7019SOL    HW125614   7.353   8.896   9.552 -0.0349  0.8542 -1.0753
 7019SOL    HW225615   7.370   8.936   9.697  0.4031 -0.8237 -0.6341
 7020SOL     OW25616   2.253   1.500  11.171  0.4858  0.3160 -0.1528
 7020SOL    HW125617   2.309   1.509  11.249  0.8648  1.3014 -0.5122
 7020SOL    HW225618   2.164   1.500  11.205  0.6628  0.2571  0.3178
 7021SOL     OW25619   7.529   4.037   4.025 -0.1694 -0.3915  0.2562
 7021SOL    HW125620   7.568   3.980   4.091  0.1846 -0.1981  0.2149
 7021SOL    HW225621   7.570   4.122   4.040  1.2520 -0.7335 -1.3232
 7022SOL     OW25622   2.103   7.012   2.370 -0.7754 -0.0676 -0.2635
 7022SOL    HW125623   2.129   6.932   2.416  1.3730  1.5936  1.7014
 7022SOL    HW225624   2.044   7.056   2.431 -0.4506  0.7045 -0.4990
 7023SOL     OW25625   2.175   3.271   4.683 -0.6003 -0.0928 -0.2535
 7023SOL    HW125626   2.093   3.265   4.633  0.1949 -0.2566 -1.5994
 7023SOL    HW225627   2.242   3.281   4.616  0.3567  1.5877  0.8780
 7024SOL     OW25628   9.372   6.939   8.272  0.5760 -0.2705 -0.0344
 7024SOL    HW125629   9.403   6.856   8.308 -0.7475 -1.1503 -0.8649
 7024SOL    HW225630   9.448   6.975   8.226  0.8766 -1.5283 -0.5464
 7025SOL     OW25631   4.598   0.355  11.475  0.0703 -0.2222 -0.5111
 7025SOL    HW125632   4.687   0.390  11.467 -0.2124  0.3683 -1.1100
 7025SOL    HW225633   4.594   0.285  11.410  0.0295 -0.1160 -0.6213
 7026SOL     OW25634  10.018   1.899   6.706 -0.3283  0.2587 -0.0873
 7026SOL    HW125635  10.068   1.818   6.702  0.0450  0.5477 -1.6937
 7026SOL    HW225636   9.937   1.881   6.659  0.8763  1.5212 -2.8737
 7027SOL     OW25637   9.800  11.610   7.305 -0.1001  0.0509  0.2156
 7027SOL    HW125638   9.823  11.679   7.243  1.8628  0.9687  1.8271
 7027SOL    HW225639   9.705  11.612   7.309 -0.1444  1.8383 -0.6968
 7028SOL     OW25640   5.111   8.269   5.602  0.0991 -1.1078  0.0306
 7028SOL    HW125641   5.056   8.249   5.678  1.2641  0.1215  1.2467
 7028SOL    HW225642   5.161   8.189   5.587 -1.7137 -2.1460 -0.9041
 7029SOL     OW25643   7.951   7.948   1.128  0.1451  0.3583  0.4368
 7029SOL    HW125644   8.041   7.914   1.123  0.0628  0.2623 -0.7231
 7029SOL    HW225645   7.896   7.871   1.121 -0.0440  0.3670  1.6539
 7030SOL     OW25646   8.329   5.774   3.177 -0.8057 -0.1251 -0.0525
 7030SOL    HW125647   8.281   5.692   3.188 -1.1073  0.1355  0.5953
 7030SOL    HW225648   8.305   5.803   3.089 -2.0499  0.1294  0.3455
 7031SOL     OW25649   9.840   1.309   2.765 -0.1235  0.9389 -0.4951
 7031SOL    HW125650   9.836   1.403   2.748 -0.1324  1.2705  1.1391
 7031SOL    HW225651   9.828   1.301   2.860 -2.0684 -0.8639 -0.8187
 7032SOL     OW25652   3.878  10.828   4.580  0.5414  0.1942 -0.2477
 7032SOL    HW125653   3.874  10.820   4.485  0.9370  0.6757 -0.3122
 7032SOL    HW225654   3.898  10.739   4.610  1.1347  0.1708 -0.6692
 7033SOL     OW25655   0.722   7.208   3.531  0.0854  0.1841 -0.2130
 7033SOL    HW125656   0.742   7.201   3.437  1.9834  2.5250 -0.1060
 7033SOL    HW225657   0.799   7.252   3.568 -0.9887  0.1086  2.3159
 7034SOL     OW25658   6.418   1.952   1.043  0.5191  0.1509  0.0564
 7034SOL    HW125659   6.467   1.905   0.975  1.0313 -0.5410  0.8712
 7034SOL    HW225660   6.476   2.023   1.069  0.1541  0.6605 -0.4965
 7035SOL     OW25661   0.227   1.920   9.370  1.1009 -0.0986 -0.4130
 7035SOL    HW125662   0.167   1.884   9.304  1.5606  0.2675 -1.0361
 7035SOL    HW225663   0.314   1.909   9.332  1.4419 -0.5345  0.4413
 7036SOL     OW25664   2.516  11.103   3.652 -0.8885 -0.3630 -0.5828
 7036SOL    HW125665   2.510  11.125   3.559  0.0048 -3.5393 -1.5288
 7036SOL    HW225666   2.463  11.024   3.662 -2.1401  0.6928  1.9739
 7037SOL     OW25667  10.980   1.431   4.498 -0.0826 -0.4250  0.0799
 7037SOL    HW125668  10.921   1.356   4.497  0.5695 -0.9652  0.8478
 7037SOL    HW225669  11.039   1.415   4.572  1.0546  0.0661 -0.6805
 7038SOL     OW25670   6.335   9.124   1.602  0.3588  0.2672  0.5051
 7038SOL    HW125671   6.323   9.210   1.641  1.5490  0.7642 -0.1727
 7038SOL    HW225672   6.430   9.117   1.589  0.1299 -0.5089 -0.8589
 7039SOL     OW25673   5.379   3.776   6.572  0.2604  0.1529 -0.2499
 7039SOL    HW125674   5.319   3.725   6.626 -0.5303 -0.1541 -1.3702
 7039SOL    HW225675   5.417   3.713   6.511  0.5070  0.6182 -0.5904
 7040SOL     OW25676   9.824   8.286   1.339 -0.1798  0.2521  0.3910
 7040SOL    HW125677   9.756   8.270   1.405 -1.9451 -0.1118 -1.4285
 7040SOL    HW225678   9.907   8.271   1.386 -1.4004 -1.7388  2.0663
 7041SOL     OW25679   2.072   0.637   8.029  0.2140 -0.0493 -0.6291
 7041SOL    HW125680   2.028   0.645   7.944  1.1532  1.6660 -0.9917
 7041SOL    HW225681   2.146   0.698   8.024 -1.0667  1.9513  2.2864
 7042SOL     OW25682   2.143   3.370   9.463  0.5345  0.1195 -0.3256
 7042SOL    HW125683   2.138   3.290   9.516 -0.8764  0.9661  0.9268
 7042SOL    HW225684   2.075   3.359   9.396 -0.6937  0.8122  0.7414
 7043SOL     OW25685   0.395  10.306   7.852 -0.0140  0.0244 -0.3088
 7043SOL    HW125686   0.316  10.359   7.860  0.3687  0.4842  0.6128
 7043SOL    HW225687   0.416  10.308   7.758 -0.7630  0.3762 -0.4737
 7044SOL     OW25688   7.860   8.979   9.380 -0.1062 -1.0087  0.1027
 7044SOL    HW125689   7.911   8.935   9.311 -0.9908 -2.4563  0.3445
 7044SOL    HW225690   7.775   8.935   9.379 -0.9720  0.5775  0.5114
 7045SOL     OW25691   4.876   0.490   6.241 -0.2571 -0.9611 -0.0863
 7045SOL    HW125692   4.949   0.431   6.263  0.9211 -0.2355 -1.8107
 7045SOL    HW225693   4.817   0.483   6.315 -0.0496 -4.1077 -0.0583
 7046SOL     OW25694  11.669   9.442   4.474 -0.0350  0.2071  0.5746
 7046SOL    HW125695  11.654   9.374   4.407  1.2363 -0.5847  1.0591
 7046SOL    HW225696  11.672   9.394   4.557 -1.0278  1.1145  1.1586
 7047SOL     OW25697  11.481   0.385   7.207 -0.2695  0.5203  0.0544
 7047SOL    HW125698  11.395   0.345   7.198 -0.1867  0.2915  0.2667
 7047SOL    HW225699  11.540   0.311   7.225  0.2020  0.4938 -1.4490
 7048SOL     OW25700   3.160   7.572  11.583 -0.1777 -0.6913  0.1146
 7048SOL    HW125701   3.081   7.542  11.628  0.0810  0.1543  1.1862
 7048SOL    HW225702   3.133   7.650  11.536 -0.3421 -1.3249 -0.8710
 7049SOL     OW25703   5.836   0.467   1.997  0.0722 -0.1856  0.4263
 7049SOL    HW125704   5.768   0.492   2.060  0.1793  4.0767 -0.8370
 7049SOL    HW225705   5.788   0.440   1.919 -0.1524 -0.0077  0.5008
 7050SOL     OW25706   7.232   6.515  10.840 -0.4856 -0.1188 -0.7093
 7050SOL    HW125707   7.277   6.438  10.807  0.6215  0.6488 -1.0451
 7050SOL    HW225708   7.156   6.480  10.887 -0.8460 -1.3240 -2.1295
 7051SOL     OW25709  10.451   2.381   3.263  0.3668  0.3214  0.1663
 7051SOL    HW125710  10.499   2.463   3.263 -0.7184  0.9832 -1.0919
 7051SOL    HW225711  10.520   2.313   3.268  1.3581  1.2536 -0.4383
 7052SOL     OW25712   4.068   1.299  11.942  1.1208  0.6080  0.0557
 7052SOL    HW125713   4.092   1.324  12.031 -0.9970 -1.2849  1.2809
 7052SOL    HW225714   4.124   1.224  11.923  1.1901  0.6634  0.0447
 7053SOL     OW25715   2.362  11.296   3.891 -0.7091 -0.2088 -0.1196
 7053SOL    HW125716   2.339  11.307   3.983  0.3959 -0.5064  0.2041
 7053SOL    HW225717   2.294  11.239   3.856 -0.0643 -1.7242  1.0039
 7054SOL     OW25718   0.686   1.151  11.919  0.4164  0.7729  0.2383
 7054SOL    HW125719   0.638   1.158  12.002  0.8468 -0.2736  0.5971
 7054SOL    HW225720   0.772   1.189  11.938  1.3229 -1.4543  0.9907
 7055SOL     OW25721   1.323   0.611   9.141 -0.3751 -0.0060  0.2750
 7055SOL    HW125722   1.370   0.544   9.191  1.0389 -0.0205 -1.0121
 7055SOL    HW225723   1.259   0.563   9.089 -1.1781 -0.0782  1.2953
 7056SOL     OW25724   9.232   9.643   7.663  0.4570 -0.1735 -0.0812
 7056SOL    HW125725   9.178   9.595   7.600  0.1403  0.5787 -0.4020
 7056SOL    HW225726   9.234   9.733   7.629 -0.5290  0.4838  1.4914
 7057SOL     OW25727   9.093   6.646   7.161  0.4366 -0.4307  0.0536
 7057SOL    HW125728   9.049   6.592   7.096  1.2777 -0.8286 -0.1997
 7057SOL    HW225729   9.072   6.736   7.135  1.1609 -0.5660 -1.0732
 7058SOL     OW25730   6.084  10.143   4.750  0.3675  0.4474  0.1317
 7058SOL    HW125731   6.077  10.072   4.685  1.1507  1.1503 -0.7555
 7058SOL    HW225732   5.995  10.156   4.781  0.4014 -2.0342  1.5594
 7059SOL     OW25733   2.554   9.382  11.640 -0.0256  0.7702 -0.3760
 7059SOL    HW125734   2.585   9.444  11.574 -0.5697  0.2861 -1.1084
 7059SOL    HW225735   2.633   9.344  11.677  0.2858  0.2972 -1.4962
 7060SOL     OW25736   4.331  10.498   4.741 -0.4910 -0.0188 -0.6201
 7060SOL    HW125737   4.319  10.432   4.809  0.0241  0.1237 -0.3862
 7060SOL    HW225738   4.259  10.483   4.680 -1.6096  0.5423  0.5073
 7061SOL     OW25739   3.841   2.569   0.343  1.2556  0.3415 -0.7564
 7061SOL    HW125740   3.807   2.537   0.427  0.7080  0.8801 -0.7705
 7061SOL    HW225741   3.764   2.591   0.292  1.4993 -1.4002 -2.0000
 7062SOL     OW25742   4.127   4.717   9.240 -0.0235 -0.3267  0.0164
 7062SOL    HW125743   4.185   4.785   9.207  0.3247 -0.3425  0.5869
 7062SOL    HW225744   4.151   4.638   9.191 -2.5985  0.5853 -3.0529
 7063SOL     OW25745   4.964  10.662   0.797  0.0682  0.5574  0.3442
 7063SOL    HW125746   4.922  10.579   0.816 -2.0243  1.5878  0.4702
 7063SOL    HW225747   5.043  10.638   0.747 -1.5450 -1.3872 -1.4603
 7064SOL     OW25748   6.806   5.206   8.872  0.1925 -0.3674  0.0609
 7064SOL    HW125749   6.881   5.245   8.918  1.6929 -0.4443 -2.1426
 7064SOL    HW225750   6.735   5.270   8.883  0.8026  0.0917  1.5287
 7065SOL     OW25751  11.764   0.063  11.721  0.3502  0.1290  0.0474
 7065SOL    HW125752  11.709  -0.009  11.753  1.0630 -0.5247 -0.1723
 7065SOL    HW225753  11.703   0.136  11.710 -0.4368 -0.5100  0.0256
 7066SOL     OW25754  10.924   8.549  10.769 -0.1247  0.2950  0.6314
 7066SOL    HW125755  10.972   8.553  10.852  1.2438 -0.5479 -0.0858
 7066SOL    HW225756  10.850   8.490  10.788  0.5394 -0.4114  1.0950
 7067SOL     OW25757   3.067  10.201  11.029  0.2070  0.9137  0.2312
 7067SOL    HW125758   3.096  10.263  10.962  0.8189  0.2776 -0.1061
 7067SOL    HW225759   2.978  10.177  11.002  0.4916  0.5693 -0.4427
 7068SOL     OW25760   9.425   2.724   5.838  0.4334 -0.2570  0.0022
 7068SOL    HW125761   9.402   2.654   5.899  0.5617  1.2404  1.8682
 7068SOL    HW225762   9.342   2.748   5.796  0.5812 -2.2840 -1.5944
 7069SOL     OW25763  11.790   7.968   6.255 -0.1080 -0.0429 -1.2176
 7069SOL    HW125764  11.730   8.036   6.223 -1.2515 -0.6309 -0.3541
 7069SOL    HW225765  11.840   8.012   6.324  0.1925  0.3313 -1.6632
 7070SOL     OW25766   6.851   0.641   3.544  0.0181 -0.4484 -0.6814
 7070SOL    HW125767   6.870   0.547   3.551  1.8951 -0.1077 -0.6487
 7070SOL    HW225768   6.905   0.681   3.612 -0.9995  0.6448 -0.4967
 7071SOL     OW25769   0.674   8.276  10.957  0.0227 -0.0059 -0.1779
 7071SOL    HW125770   0.669   8.323  10.874  2.3079  0.1720 -0.2659
 7071SOL    HW225771   0.593   8.301  11.003 -0.8838  0.5498 -1.9752
 7072SOL     OW25772   4.936   5.822   6.394 -0.1481  0.3555  0.1818
 7072SOL    HW125773   4.925   5.727   6.396  0.5150  0.2883  1.6003
 7072SOL    HW225774   4.895   5.849   6.312  0.8419 -1.2925 -0.9058
 7073SOL     OW25775   1.271   3.305   0.189  0.5548  0.5555  0.3864
 7073SOL    HW125776   1.335   3.279   0.123  0.1479  0.9308 -0.1659
 7073SOL    HW225777   1.299   3.392   0.216  0.4437  0.6026  0.3500
 7074SOL     OW25778   1.349   7.195   4.198  0.2694 -0.1107  0.2221
 7074SOL    HW125779   1.409   7.200   4.123  0.0298 -0.3312  0.0111
 7074SOL    HW225780   1.354   7.281   4.239 -0.0285  0.2012 -0.3852
 7075SOL     OW25781   8.607  10.134   0.422 -0.2657 -0.0549  0.1516
 7075SOL    HW125782   8.559  10.093   0.350  1.0064 -0.6895 -0.3634
 7075SOL    HW225783   8.631  10.061   0.479 -0.8926  0.3961  1.0219
 7076SOL     OW25784   9.780  10.398   3.677 -0.0795 -0.0508  0.5010
 7076SOL    HW125785   9.742  10.317   3.711  0.5684  0.0691  1.5451
 7076SOL    HW225786   9.786  10.384   3.582 -2.4827 -0.1646  0.2920
 7077SOL     OW25787   2.250   2.214   7.488 -0.0160 -0.0938  0.9650
 7077SOL    HW125788   2.202   2.179   7.413  1.6550 -2.9782  1.0793
 7077SOL    HW225789   2.296   2.291   7.454  0.1250 -0.9033 -0.7793
 7078SOL     OW25790   5.313   9.987   6.784 -0.1481  0.4956  0.7744
 7078SOL    HW125791   5.406  10.001   6.766 -0.3776  0.0935 -0.8217
 7078SOL    HW225792   5.282  10.073   6.811  0.5230  0.8208  0.5581
 7079SOL     OW25793   4.105  11.667   0.535  0.6472 -0.2807 -0.1155
 7079SOL    HW125794   4.113  11.663   0.630  2.1377  0.0555 -0.2027
 7079SOL    HW225795   4.088  11.577   0.508  1.8103 -0.6690  0.3691
 7080SOL     OW25796   2.937   9.771   0.062  0.3512 -0.4452  0.5099
 7080SOL    HW125797   2.881   9.841   0.096 -1.2240 -1.3226 -0.1658
 7080SOL    HW225798   2.959   9.799  -0.027  0.5063 -0.3785  0.5686
 7081SOL     OW25799   8.517   2.339   1.589 -0.1329  0.1499 -0.3613
 7081SOL    HW125800   8.581   2.326   1.659  0.1783 -0.0930 -0.6859
 7081SOL    HW225801   8.432   2.323   1.630  0.2034 -3.9979 -0.8796
 7082SOL     OW25802   7.440   5.451  10.367  0.3471  0.1802 -0.5628
 7082SOL    HW125803   7.515   5.469  10.310  0.3570  0.3543 -0.4983
 7082SOL    HW225804   7.389   5.385  10.320  0.4073  0.2496 -0.7270
 7083SOL     OW25805   9.758   8.312   5.012 -0.1671 -0.5498 -0.0698
 7083SOL    HW125806   9.778   8.243   4.948 -2.1702 -0.8506 -0.4570
 7083SOL    HW225807   9.670   8.290   5.044  0.8550 -0.5447  3.0249
 7084SOL     OW25808   5.903   4.581   8.833 -0.6563  0.2925 -0.6363
 7084SOL    HW125809   5.921   4.630   8.913  0.2440  0.4439 -0.9246
 7084SOL    HW225810   5.819   4.617   8.802 -0.2311  1.3623 -0.6039
 7085SOL     OW25811   4.196   7.411   3.733 -0.3279  0.6655  0.1119
 7085SOL    HW125812   4.169   7.320   3.725  0.4528  0.5353 -1.3838
 7085SOL    HW225813   4.229   7.434   3.646 -0.3164  2.3143  0.5213
 7086SOL     OW25814   9.973  10.886   6.691 -0.1724  0.2923 -0.0507
 7086SOL    HW125815  10.048  10.846   6.734  0.1559  2.0209  1.0692
 7086SOL    HW225816   9.970  10.845   6.605  0.9634 -1.0945  0.5297
 7087SOL     OW25817  11.373   9.444   8.591 -0.4683  0.3211 -0.2715
 7087SOL    HW125818  11.410   9.463   8.504  1.5913 -0.8058  0.2839
 7087SOL    HW225819  11.424   9.499   8.651 -0.3579 -0.5171  0.4239
 7088SOL     OW25820   4.465  10.514   6.698  0.0327  0.0883  0.2575
 7088SOL    HW125821   4.372  10.497   6.681 -0.0155  1.0642 -0.5416
 7088SOL    HW225822   4.504  10.427   6.707 -1.0969 -0.3420  1.5026
 7089SOL     OW25823   5.636   4.330  11.083 -0.5283  0.3759  0.1274
 7089SOL    HW125824   5.609   4.278  11.158 -0.7736 -0.0604 -0.2571
 7089SOL    HW225825   5.721   4.367  11.108 -0.0785 -0.6742  0.1790
 7090SOL     OW25826   6.052   0.287   0.818 -0.2321 -0.0796 -0.0174
 7090SOL    HW125827   6.014   0.373   0.833 -0.2351  0.2282 -1.6118
 7090SOL    HW225828   6.080   0.289   0.727  1.4896 -1.1244  0.4479
 7091SOL     OW25829   7.947   1.909   2.440  0.4291 -0.0696  0.1119
 7091SOL    HW125830   7.882   1.979   2.433  0.4496 -0.1537 -1.1957
 7091SOL    HW225831   7.905   1.843   2.495 -0.8611 -0.3839 -1.1820
 7092SOL     OW25832   0.771   5.005   5.719 -0.4542  0.1814  0.0350
 7092SOL    HW125833   0.768   5.046   5.632 -1.3098  0.5756  0.2380
 7092SOL    HW225834   0.845   4.944   5.714  0.0840  0.8696 -0.6691
 7093SOL     OW25835   0.045   6.910   4.920  0.4352 -1.0632 -0.1879
 7093SOL    HW125836  -0.045   6.909   4.889 -0.1294 -1.8800  1.3530
 7093SOL    HW225837   0.067   6.817   4.933  0.9366 -0.8046  0.9588
 7094SOL     OW25838   9.170  10.002  11.498  0.4976 -0.1517 -0.2656
 7094SOL    HW125839   9.251   9.977  11.454 -0.3317 -0.9431 -1.3893
 7094SOL    HW225840   9.130  10.067  11.440 -0.1817 -0.5695 -0.2850
 7095SOL     OW25841   1.832   8.627   3.886 -0.4535  0.7362 -0.2733
 7095SOL    HW125842   1.781   8.653   3.963  0.6196 -0.0392  0.7433
 7095SOL    HW225843   1.884   8.552   3.916  1.5261  1.6922 -1.1283
 7096SOL     OW25844   4.168   8.293   4.933 -0.4770 -0.2490  0.3156
 7096SOL    HW125845   4.158   8.321   4.842  3.1410 -1.2138 -0.5527
 7096SOL    HW225846   4.137   8.203   4.934  0.2450 -0.5116 -0.1985
 7097SOL     OW25847   3.842   3.798  10.821 -0.5546 -0.3357 -0.0969
 7097SOL    HW125848   3.801   3.862  10.763 -1.7024 -1.0343 -0.0947
 7097SOL    HW225849   3.917   3.765  10.772 -1.9896 -1.5541 -1.6042
 7098SOL     OW25850  11.609   2.498   5.982  0.1597  0.6200  0.3951
 7098SOL    HW125851  11.631   2.591   5.981 -1.4862  1.0469  0.5511
 7098SOL    HW225852  11.590   2.477   5.890  0.2040  0.5332  0.4059
 7099SOL     OW25853   8.365   1.497   7.923  0.4889  0.5412  0.2025
 7099SOL    HW125854   8.312   1.501   7.843  0.6054 -0.6691  0.0436
 7099SOL    HW225855   8.405   1.410   7.921  0.2428  0.3643  1.7362
 7100SOL     OW25856   3.391  10.361   3.758  0.1661 -0.3284 -0.0837
 7100SOL    HW125857   3.297  10.346   3.751  0.5183 -2.5211 -0.9612
 7100SOL    HW225858   3.417  10.317   3.839  0.4183  0.5255  0.3147
 7101SOL     OW25859  10.389   6.035   1.037 -0.3940  0.1981  0.2091
 7101SOL    HW125860  10.349   6.113   1.076  1.0455  0.8652  0.4114
 7101SOL    HW225861  10.476   6.064   1.009  0.1088 -1.2905  0.1419
 7102SOL     OW25862   6.223   1.043   0.080  0.5825  0.0214 -0.0188
 7102SOL    HW125863   6.152   1.088   0.034  0.1953  1.1155  1.5546
 7102SOL    HW225864   6.249   1.104   0.149  1.7148 -1.1857  0.6651
 7103SOL     OW25865   6.014   1.334   9.182  0.1297  0.0738 -0.7276
 7103SOL    HW125866   6.007   1.263   9.120  0.2359  1.6487 -2.6389
 7103SOL    HW225867   6.102   1.325   9.220  0.4519 -0.3424 -1.5611
 7104SOL     OW25868   8.912  10.402   1.977 -0.0793 -0.3174  0.0183
 7104SOL    HW125869   8.962  10.484   1.980  0.8185 -0.8848  1.1582
 7104SOL    HW225870   8.947  10.355   1.902 -0.7771  0.4371 -0.8009
 7105SOL     OW25871  11.372   5.588   4.386  0.2836 -0.1696 -0.3061
 7105SOL    HW125872  11.353   5.654   4.319 -2.8213  0.3792  0.9403
 7105SOL    HW225873  11.288   5.573   4.429  2.0557 -0.5703  3.4112
 7106SOL     OW25874   5.990   2.223   4.112 -0.1177  0.4092  0.2006
 7106SOL    HW125875   5.896   2.224   4.131  0.2230  1.8734  2.1195
 7106SOL    HW225876   6.005   2.139   4.069 -2.3302  0.2600 -0.4217
 7107SOL     OW25877  11.727  11.456  10.770 -0.2563 -0.0872 -0.3781
 7107SOL    HW125878  11.663  11.450  10.699  0.0138  0.7362 -0.7174
 7107SOL    HW225879  11.731  11.550  10.790  0.1604 -0.2393  0.2667
 7108SOL     OW25880   0.911   6.588   0.324 -0.0884 -0.3110  0.7898
 7108SOL    HW125881   0.996   6.545   0.325  0.4162  0.3048 -2.9432
 7108SOL    HW225882   0.931   6.682   0.326 -0.8911 -0.1265  2.6559
 7109SOL     OW25883   7.876   3.860   3.642 -0.1386 -0.2884 -0.1246
 7109SOL    HW125884   7.957   3.905   3.667 -0.8274  0.2426  1.2538
 7109SOL    HW225885   7.817   3.876   3.715 -1.2107 -1.4046 -0.7271
 7110SOL     OW25886   9.430   9.510   2.712  0.2869 -0.1199 -0.1737
 7110SOL    HW125887   9.501   9.537   2.770  0.9135 -2.8389  0.4477
 7110SOL    HW225888   9.378   9.449   2.765 -0.6157 -0.6922 -1.6713
 7111SOL     OW25889   5.327   8.274   0.142 -0.2289 -0.4297  0.5984
 7111SOL    HW125890   5.408   8.318   0.118 -0.8362  0.5689  0.3140
 7111SOL    HW225891   5.294   8.323   0.217 -1.1564 -0.1050 -0.0093
 7112SOL     OW25892   5.169  10.470   4.740 -0.4594 -0.0391 -0.3298
 7112SOL    HW125893   5.230  10.457   4.668  0.0762  0.3219  0.0508
 7112SOL    HW225894   5.174  10.563   4.760 -0.7902 -0.0881  0.0101
 7113SOL     OW25895   1.168   0.406   9.035  0.2674  0.2002  0.2901
 7113SOL    HW125896   1.167   0.339   8.966 -1.8768 -2.5223  2.6979
 7113SOL    HW225897   1.076   0.430   9.047  0.7315  1.5935  1.3089
 7114SOL     OW25898   7.527   1.333   8.527  0.1591 -0.4491  0.4642
 7114SOL    HW125899   7.592   1.266   8.548 -0.9779 -1.4471  0.9407
 7114SOL    HW225900   7.571   1.392   8.466  1.7764 -0.6060  1.4288
 7115SOL     OW25901  11.119  11.253   4.932  0.1632 -0.1858  0.2319
 7115SOL    HW125902  11.208  11.288   4.936  1.0752 -2.2720 -0.4937
 7115SOL    HW225903  11.130  11.159   4.944 -1.6275 -0.8917 -2.7696
 7116SOL     OW25904   2.768   0.557   3.948 -0.1389 -0.1624  0.4999
 7116SOL    HW125905   2.716   0.584   3.873 -1.3015  0.3736  1.4546
 7116SOL    HW225906   2.775   0.637   4.002  3.7290  0.4872 -0.6639
 7117SOL     OW25907  10.194   8.548   8.590 -0.1078  0.3134 -0.0070
 7117SOL    HW125908  10.194   8.643   8.589  0.9973  0.3177 -1.0615
 7117SOL    HW225909  10.221   8.525   8.679 -2.5031  0.9161  0.9741
 7118SOL     OW25910   7.765   0.780   7.720 -0.0902  0.5320 -0.3062
 7118SOL    HW125911   7.724   0.807   7.638 -0.6462 -1.4617 -0.7199
 7118SOL    HW225912   7.698   0.731   7.766  0.1662  1.7678  1.4563
 7119SOL     OW25913   5.722   0.755  11.896 -0.0847  0.1218  0.1530
 7119SOL    HW125914   5.773   0.727  11.972  0.0701  1.0618  0.4033
 7119SOL    HW225915   5.658   0.684  11.883 -0.4968  0.2217  1.5209
 7120SOL     OW25916   2.266  10.952  10.468  0.0287  0.3689 -0.3390
 7120SOL    HW125917   2.199  10.960  10.399  2.7076 -1.0187 -3.3767
 7120SOL    HW225918   2.284  10.858  10.473 -1.0790  0.1761  3.5561
 7121SOL     OW25919   4.990   9.136   0.450  0.0231  0.2422 -0.7575
 7121SOL    HW125920   5.002   9.079   0.525 -0.6865  1.2173  0.1246
 7121SOL    HW225921   5.066   9.195   0.452  1.3099 -1.2798 -2.2759
 7122SOL     OW25922   8.461   9.310   3.463 -0.0578  0.2093 -0.1542
 7122SOL    HW125923   8.505   9.342   3.384 -0.6437  0.4120 -0.4078
 7122SOL    HW225924   8.398   9.380   3.485 -1.2800 -0.7010 -0.6461
 7123SOL     OW25925   7.267   4.325   0.197 -0.2312  0.2282 -0.2079
 7123SOL    HW125926   7.174   4.349   0.199 -0.4841 -0.7589  0.1260
 7123SOL    HW225927   7.295   4.330   0.289  0.5773  2.4682 -0.5135
 7124SOL     OW25928  11.118   3.850   8.569  0.0335  0.5512  0.1501
 7124SOL    HW125929  11.137   3.940   8.545  0.9357  0.1324 -0.7753
 7124SOL    HW225930  11.129   3.800   8.488 -0.1202 -0.4394  0.7138
 7125SOL     OW25931  10.978   4.705   7.475  0.2054 -0.2467 -0.1175
 7125SOL    HW125932  10.882   4.706   7.481  0.0199  0.0739 -2.2529
 7125SOL    HW225933  11.007   4.685   7.563 -1.7558  1.9666  1.1553
 7126SOL     OW25934   9.210   9.126   9.381 -0.0134  0.0898 -0.4593
 7126SOL    HW125935   9.288   9.170   9.348 -0.3333  1.1893  0.1721
 7126SOL    HW225936   9.144   9.139   9.312  0.0107  0.2636 -0.4520
 7127SOL     OW25937   6.651   4.844  11.734  0.1834  0.3710 -0.5259
 7127SOL    HW125938   6.589   4.848  11.807  0.4675  1.0864 -0.3090
 7127SOL    HW225939   6.613   4.899  11.666  0.6026  0.8720 -0.3650
 7128SOL     OW25940  10.319   0.793   8.991  0.3006  0.1264  0.7352
 7128SOL    HW125941  10.323   0.796   9.086 -1.5872  1.3384  0.8123
 7128SOL    HW225942  10.227   0.776   8.971  0.4748  0.9141 -0.8874
 7129SOL     OW25943   4.129  12.009   2.160 -0.1068  0.2073 -0.0284
 7129SOL    HW125944   4.177  11.967   2.231 -0.7890 -2.6769 -1.0921
 7129SOL    HW225945   4.038  12.009   2.190 -0.2399  0.0559 -0.4256
 7130SOL     OW25946   7.751   8.694   3.701 -0.0063  0.6086 -0.0436
 7130SOL    HW125947   7.787   8.743   3.627 -0.6091 -0.2935 -0.9638
 7130SOL    HW225948   7.661   8.724   3.710 -0.2341  0.0254 -0.3094
 7131SOL     OW25949  11.493   2.977   4.946  0.1818  0.1277 -0.1308
 7131SOL    HW125950  11.517   3.004   4.857  0.4723  0.3022 -0.0012
 7131SOL    HW225951  11.520   3.050   5.001 -1.3778  0.6693 -0.0638
 7132SOL     OW25952   6.321   3.330  11.717 -0.0184 -0.5896 -0.2387
 7132SOL    HW125953   6.413   3.342  11.693 -0.3821 -0.6628 -1.8134
 7132SOL    HW225954   6.315   3.237  11.740  0.4736 -0.3790  0.8081
 7133SOL     OW25955   1.491   5.091   3.804 -0.2282 -0.0227  0.1123
 7133SOL    HW125956   1.437   5.012   3.816 -0.7099  0.1295 -0.9603
 7133SOL    HW225957   1.576   5.066   3.840 -0.9132 -0.3391  1.6376
 7134SOL     OW25958   6.716   9.148  10.592 -0.2175 -0.0919 -0.1695
 7134SOL    HW125959   6.713   9.096  10.672 -1.0283  0.6239  0.2809
 7134SOL    HW225960   6.791   9.206  10.605 -1.7332  1.7329  1.2196
 7135SOL     OW25961   3.459   7.840   8.215 -0.6405  0.4364 -0.3657
 7135SOL    HW125962   3.503   7.862   8.133  0.4611 -1.6516 -0.4207
 7135SOL    HW225963   3.401   7.767   8.192 -0.7787  0.2313  0.5789
 7136SOL     OW25964   9.967   6.701  10.589  0.2501  0.0472 -0.0284
 7136SOL    HW125965   9.997   6.611  10.577 -1.3543 -0.5328  0.0672
 7136SOL    HW225966  10.021   6.734  10.661  0.1334 -1.2093  0.6803
 7137SOL     OW25967   1.781  11.368   3.111 -0.7613 -0.4152 -0.3085
 7137SOL    HW125968   1.827  11.359   3.194 -1.0090  0.1710 -0.1010
 7137SOL    HW225969   1.833  11.432   3.062 -1.1142 -0.0665 -0.2354
 7138SOL     OW25970   5.435   0.343   2.948  0.4442  0.4715 -0.4984
 7138SOL    HW125971   5.425   0.266   2.891  1.5927  1.0048 -1.4614
 7138SOL    HW225972   5.462   0.306   3.032 -2.0307 -0.3884  0.0055
 7139SOL     OW25973   9.356   3.266   4.941 -0.2139  0.2904 -0.3186
 7139SOL    HW125974   9.369   3.240   5.033  0.0992 -0.6348 -0.6169
 7139SOL    HW225975   9.358   3.361   4.943 -0.8638  0.3071  0.7386
 7140SOL     OW25976   9.929   6.277   7.979  0.0315  0.6670 -0.6770
 7140SOL    HW125977   9.957   6.200   8.027 -0.0034  1.1867  0.2011
 7140SOL    HW225978   9.839   6.259   7.954  0.5420 -0.2687 -1.9659
 7141SOL     OW25979   1.652   3.806   4.175 -0.4883  0.0828  0.2301
 7141SOL    HW125980   1.559   3.799   4.196 -0.6666  0.6666 -0.3205
 7141SOL    HW225981   1.676   3.895   4.203 -0.3898  0.3620 -0.7081
 7142SOL     OW25982  11.974   6.789   4.541 -0.6594  0.1472  0.2121
 7142SOL    HW125983  12.047   6.783   4.480 -0.2809 -0.0179  0.6755
 7142SOL    HW225984  11.925   6.707   4.529 -2.0818  1.1869 -1.7114
 7143SOL     OW25985   1.500   5.021   8.925  0.1913 -0.3065 -0.5809
 7143SOL    HW125986   1.556   4.950   8.957  2.7268  2.2527  1.1128
 7143SOL    HW225987   1.560   5.083   8.884 -1.9638  0.8266 -2.2752
 7144SOL     OW25988  11.678   2.153   3.419 -0.0341 -0.0962 -0.1286
 7144SOL    HW125989  11.619   2.170   3.346 -1.1066 -0.0237  0.7130
 7144SOL    HW225990  11.642   2.206   3.491  1.2239  0.1470  0.3401
 7145SOL     OW25991   1.875   1.203   8.152 -0.0686  0.2277  0.2998
 7145SOL    HW125992   1.920   1.126   8.117 -0.6883 -0.4197  0.9062
 7145SOL    HW225993   1.834   1.243   8.076  1.0267  0.4962 -0.1707
 7146SOL     OW25994  10.624   3.784   0.583  0.3496  0.5246  0.0813
 7146SOL    HW125995  10.651   3.694   0.565 -0.0338  0.6753 -1.3499
 7146SOL    HW225996  10.699   3.837   0.558  0.0331  0.6978 -0.5213
 7147SOL     OW25997   0.095   7.979   6.422  0.0420 -0.1560  0.4792
 7147SOL    HW125998   0.166   7.962   6.483 -0.0665  1.7725  1.2051
 7147SOL    HW225999   0.042   7.899   6.423  1.7066 -1.3080  0.5515
 7148SOL     OW26000   8.842   1.166   9.147 -0.2540  0.2588 -0.1643
 7148SOL    HW126001   8.781   1.236   9.172 -0.7930 -1.0346  2.4699
 7148SOL    HW226002   8.790   1.086   9.154  0.9263 -0.6076 -1.0007
 7149SOL     OW26003   4.470   9.994   0.602 -0.0527  0.0107 -0.3018
 7149SOL    HW126004   4.528   9.982   0.526  0.8404 -1.9649  0.6239
 7149SOL    HW226005   4.400  10.052   0.570  1.9822  1.8645 -1.6777
 7150SOL     OW26006   6.540   1.190   7.804 -0.2335  0.1309  0.2218
 7150SOL    HW126007   6.465   1.176   7.862 -1.5241  0.0246 -1.3766
 7150SOL    HW226008   6.509   1.160   7.719  0.9882  1.8510 -0.8902
 7151SOL     OW26009   1.077  11.367   6.254 -0.3832 -0.2567 -0.2730
 7151SOL    HW126010   1.063  11.283   6.298  0.2335  0.7104  1.9198
 7151SOL    HW226011   1.034  11.431   6.311 -3.3941  0.7392 -3.3235
 7152SOL     OW26012   9.482   0.024   8.831  0.6068 -0.1051 -0.2007
 7152SOL    HW126013   9.410   0.084   8.850  0.9906  0.0170  0.9592
 7152SOL    HW226014   9.475  -0.044   8.898  1.2567 -0.3765 -0.3984
 7153SOL     OW26015   9.775   7.385  11.920  0.1333 -0.1947  0.1418
 7153SOL    HW126016   9.833   7.310  11.907  1.3550  0.6581  0.4274
 7153SOL    HW226017   9.828   7.460  11.893 -0.5039  0.7095  1.3564
 7154SOL     OW26018   8.120  11.337   8.324 -0.4690 -0.2854  0.3290
 7154SOL    HW126019   8.201  11.286   8.317 -0.5458 -0.1748 -1.9246
 7154SOL    HW226020   8.052  11.279   8.290 -0.9551  0.4301  0.0572
 7155SOL     OW26021   9.500   1.864   8.677  0.2014 -0.1271 -0.1149
 7155SOL    HW126022   9.443   1.798   8.716 -2.4877  1.8569 -0.3234
 7155SOL    HW226023   9.490   1.851   8.582  1.2276 -0.6368 -0.1582
 7156SOL     OW26024   3.545   5.680   6.907 -0.2381 -0.8392 -0.2419
 7156SOL    HW126025   3.450   5.668   6.908 -0.4377  0.4575 -0.9983
 7156SOL    HW226026   3.561   5.748   6.973 -0.1546  0.7516 -1.8325
 7157SOL     OW26027  10.114   9.209  11.926  0.2374 -0.1382 -0.4420
 7157SOL    HW126028  10.119   9.224  11.832  0.3696 -0.0470 -0.4204
 7157SOL    HW226029  10.051   9.274  11.958 -1.2274 -1.3609 -0.7314
 7158SOL     OW26030   6.223  11.822   4.784  0.3137  0.2006  0.4935
 7158SOL    HW126031   6.178  11.751   4.829 -0.8969 -0.8182 -2.1033
 7158SOL    HW226032   6.233  11.890   4.850 -2.6949 -0.5720  1.9143
 7159SOL     OW26033   6.106   1.235   3.279 -0.3202 -0.2086 -0.0018
 7159SOL    HW126034   6.157   1.316   3.290  0.1083 -0.5398  0.4855
 7159SOL    HW226035   6.067   1.219   3.366  1.4666 -1.7647  0.5697
 7160SOL     OW26036  10.436   0.618   5.530 -0.0290 -0.1039  0.4954
 7160SOL    HW126037  10.382   0.541   5.512  0.5759 -0.0248 -1.9091
 7160SOL    HW226038  10.507   0.614   5.466  1.0613  1.4909  1.5132
 7161SOL     OW26039   3.964   3.512   4.422 -0.1765 -0.0737  0.1389
 7161SOL    HW126040   3.986   3.600   4.393 -2.4644  1.0422  1.4907
 7161SOL    HW226041   3.879   3.521   4.465  0.7124 -2.4294  2.7520
 7162SOL     OW26042   2.503   4.696   3.076 -0.4691 -0.8138  0.0867
 7162SOL    HW126043   2.536   4.705   3.165  0.5314 -3.0990  0.0167
 7162SOL    HW226044   2.563   4.747   3.022  0.0736 -0.9963  0.5105
 7163SOL     OW26045  11.175   8.823   7.890 -0.1837  0.6754 -0.2314
 7163SOL    HW126046  11.130   8.818   7.806  0.0871 -3.3069 -0.3037
 7163SOL    HW226047  11.109   8.797   7.954  0.5530  0.1242  0.3187
 7164SOL     OW26048   6.879   9.387   1.167  0.8104  0.1957  0.0615
 7164SOL    HW126049   6.858   9.406   1.258 -0.2192  0.4319 -0.2147
 7164SOL    HW226050   6.974   9.381   1.165  0.8014 -0.8857  1.3628
 7165SOL     OW26051   8.881   6.610   2.314 -0.5221  0.3995  0.1988
 7165SOL    HW126052   8.912   6.700   2.311 -0.8422  0.5303  0.5740
 7165SOL    HW226053   8.919   6.568   2.238 -0.9902  1.0592 -0.4129
 7166SOL     OW26054   8.610   3.728   6.769  0.1156 -0.0075 -0.3262
 7166SOL    HW126055   8.590   3.666   6.698  0.5107  0.3792 -0.7830
 7166SOL    HW226056   8.533   3.784   6.774  0.5033  0.6220 -1.1620
 7167SOL     OW26057   5.205  10.856   3.387  0.2452  0.3354 -0.6233
 7167SOL    HW126058   5.161  10.825   3.308  0.9333  0.6272 -1.1260
 7167SOL    HW226059   5.289  10.890   3.357  1.2339 -1.0572  0.4291
 7168SOL     OW26060   9.908   7.520   3.811  0.2059  0.0342 -0.2693
 7168SOL    HW126061   9.984   7.577   3.823  0.2667 -0.4011  1.7953
 7168SOL    HW226062   9.884   7.493   3.900 -0.3709 -2.4319 -1.0920
 7169SOL     OW26063  11.548   5.104   4.099 -0.8908 -0.5946 -0.0147
 7169SOL    HW126064  11.514   5.169   4.161 -0.4108 -0.0698 -0.2904
 7169SOL    HW226065  11.548   5.022   4.148 -0.5191 -0.1857  0.6914
 7170SOL     OW26066   1.891  11.526   4.093 -0.3705  0.1079  0.1745
 7170SOL    HW126067   1.887  11.439   4.053 -2.2975 -0.0924  0.6721
 7170SOL    HW226068   1.950  11.576   4.037 -0.8043 -0.9647 -1.2922
 7171SOL     OW26069   4.712   5.896   7.436  0.2219 -0.3340  0.0031
 7171SOL    HW126070   4.711   5.969   7.498 -0.2504 -0.8012  0.5542
 7171SOL    HW226071   4.734   5.937   7.352 -1.8242  0.7416 -0.0703
 7172SOL     OW26072  10.016   8.258   3.503 -0.0557 -0.6687  0.5661
 7172SOL    HW126073   9.947   8.320   3.479  0.9077  0.2045 -0.0633
 7172SOL    HW226074  10.087   8.277   3.441  0.5079 -1.9734  0.7898
 7173SOL     OW26075  10.567   5.300   1.035 -0.4957  0.4256  0.0292
 7173SOL    HW126076  10.537   5.209   1.026 -1.1265  0.6530 -0.2618
 7173SOL    HW226077  10.572   5.332   0.945  1.1465  0.2481  0.0398
 7174SOL     OW26078  11.410   9.556   2.002  0.2424 -0.7146  0.8238
 7174SOL    HW126079  11.440   9.637   1.960 -1.8089 -1.0737 -1.6284
 7174SOL    HW226080  11.362   9.586   2.080  1.3313  0.2416  1.1549
 7175SOL     OW26081   8.161   5.336   3.857 -0.2658 -1.0253  0.0635
 7175SOL    HW126082   8.176   5.264   3.796  0.6627 -1.1622  0.4427
 7175SOL    HW226083   8.183   5.300   3.943 -0.2649 -0.4358  0.3136
 7176SOL     OW26084   2.658  11.183   3.395  0.7876 -0.2465  0.8586
 7176SOL    HW126085   2.644  11.200   3.302  2.4259  0.0336  0.6323
 7176SOL    HW226086   2.745  11.142   3.399  0.6210 -0.5056  2.2383
 7177SOL     OW26087   0.594   6.587   4.178 -0.3237  0.1782  0.0559
 7177SOL    HW126088   0.592   6.491   4.174 -2.7880  0.1931 -0.1923
 7177SOL    HW226089   0.620   6.614   4.090  0.7034 -0.2280  0.2142
 7178SOL     OW26090   4.037   1.710   2.176  0.2878  0.4554 -0.5683
 7178SOL    HW126091   4.095   1.777   2.141  0.8319  0.2243 -0.1303
 7178SOL    HW226092   4.015   1.655   2.100  0.6552  0.5377 -0.7365
 7179SOL     OW26093   8.250   8.942   9.961 -0.7950  0.3016  0.7050
 7179SOL    HW126094   8.266   9.011  10.025 -0.0790  0.5974  0.2222
 7179SOL    HW226095   8.164   8.907   9.984 -0.5168  0.3377  1.8765
 7180SOL     OW26096   4.311   2.669  11.710  0.7319 -0.1481  0.3067
 7180SOL    HW126097   4.298   2.738  11.646  0.2024  0.0789  0.6457
 7180SOL    HW226098   4.319   2.715  11.794 -0.7531 -0.5233  0.6950
 7181SOL     OW26099  11.056   7.406   0.595 -0.6942 -0.4457 -0.2597
 7181SOL    HW126100  11.069   7.484   0.650 -2.9297 -0.8575  0.9692
 7181SOL    HW226101  11.130   7.408   0.534  0.3093  1.6359  0.8863
 7182SOL     OW26102   9.969   7.190   3.149 -0.0756  0.0605  0.1621
 7182SOL    HW126103   9.983   7.265   3.207 -0.3379  0.2908 -0.0667
 7182SOL    HW226104  10.040   7.130   3.169  0.3029  0.5010  0.1427
 7183SOL     OW26105   6.854   4.413   3.230  0.2545  0.5075  0.1657
 7183SOL    HW126106   6.916   4.443   3.164 -0.6768 -0.7855 -1.3433
 7183SOL    HW226107   6.801   4.348   3.186  0.2362 -1.1654  2.4723
 7184SOL     OW26108   3.835  11.857   2.515  0.5027  0.2735  0.0036
 7184SOL    HW126109   3.928  11.838   2.528  0.4528 -0.4194 -0.5813
 7184SOL    HW226110   3.790  11.806   2.583  0.7193  3.8246  3.1205
 7185SOL     OW26111  11.627   6.128   0.393 -0.3455 -0.0832 -0.0282
 7185SOL    HW126112  11.701   6.148   0.450 -0.7016  0.0452  0.4049
 7185SOL    HW226113  11.550   6.137   0.451 -0.9106  2.1522 -1.0038
 7186SOL     OW26114  10.315   1.068   6.834  0.1310 -0.2202  0.0215
 7186SOL    HW126115  10.403   1.098   6.814  0.0267 -0.2996 -0.5598
 7186SOL    HW226116  10.325   1.015   6.913  0.3336  1.1955  0.9730
 7187SOL     OW26117   0.918   6.718   2.629 -0.3891  0.0509  0.3864
 7187SOL    HW126118   0.909   6.805   2.667 -0.9858 -0.3741  1.2236
 7187SOL    HW226119   0.832   6.699   2.591  0.1259  0.3772 -1.0311
 7188SOL     OW26120   4.389   6.948   2.542 -0.2606 -0.1579 -0.4584
 7188SOL    HW126121   4.338   6.870   2.521 -1.1332 -0.4095  2.2367
 7188SOL    HW226122   4.474   6.914   2.570  0.9232  0.1765 -3.2623
 7189SOL     OW26123   0.533  11.840   2.760  0.0864  0.0857 -0.0462
 7189SOL    HW126124   0.538  11.795   2.845 -0.2622  0.9950  0.4723
 7189SOL    HW226125   0.566  11.776   2.697 -0.2247 -0.8265  0.6937
 7190SOL     OW26126  10.771  12.079   6.093 -0.1803 -0.5368 -0.0483
 7190SOL    HW126127  10.837  12.114   6.033 -0.3767 -0.1966 -0.0658
 7190SOL    HW226128  10.690  12.077   6.043 -1.0379  2.4826  0.9969
 7191SOL     OW26129   4.741   5.631   3.966  0.5686  0.0562 -0.2796
 7191SOL    HW126130   4.757   5.599   4.055 -1.4900 -0.7459 -0.1389
 7191SOL    HW226131   4.734   5.726   3.974 -0.2300 -0.0584  0.5615
 7192SOL     OW26132   0.539   9.583   1.966  0.4043  0.4658 -0.0115
 7192SOL    HW126133   0.611   9.551   2.020  0.4067  0.6040  0.0685
 7192SOL    HW226134   0.470   9.604   2.028  0.3203  0.4000 -0.0823
 7193SOL     OW26135   3.582   4.842  10.240 -0.4437  0.3153 -0.6473
 7193SOL    HW126136   3.677   4.832  10.231 -0.2805  1.6128 -0.6951
 7193SOL    HW226137   3.544   4.775  10.184  0.4428 -0.5010 -0.2844
 7194SOL     OW26138   5.569   9.142  11.746  0.0647 -0.0727 -0.1405
 7194SOL    HW126139   5.503   9.208  11.724 -0.4285 -0.0354  1.3562
 7194SOL    HW226140   5.606   9.171  11.829 -0.7349 -2.0700  0.9721
 7195SOL     OW26141   5.513  12.033   3.273 -0.1217 -0.0406 -0.0977
 7195SOL    HW126142   5.503  11.944   3.240 -1.0399 -0.1762  0.4998
 7195SOL    HW226143   5.467  12.032   3.357 -1.5070  1.4095 -0.8050
 7196SOL     OW26144  11.667  10.415   4.983  0.4554  0.0375  0.0702
 7196SOL    HW126145  11.657  10.510   4.971  0.5103  0.3224  1.8910
 7196SOL    HW226146  11.579  10.385   5.007  0.3618 -0.4544 -0.8423
 7197SOL     OW26147   3.530   8.692   6.128  0.6587 -0.1393 -0.1932
 7197SOL    HW126148   3.471   8.636   6.178  1.1372 -1.4130 -1.0124
 7197SOL    HW226149   3.571   8.633   6.064  1.2664  1.1214 -1.0074
 7198SOL     OW26150   2.034   5.770   8.326  0.1380  0.3617 -0.6998
 7198SOL    HW126151   2.098   5.808   8.266 -0.2258  1.2902 -0.5180
 7198SOL    HW226152   1.949   5.791   8.286 -0.0739 -1.3947 -1.2645
 7199SOL     OW26153   9.148   8.430   4.265  0.5647 -0.1264  0.1032
 7199SOL    HW126154   9.237   8.423   4.299  0.7184  0.1503 -0.2321
 7199SOL    HW226155   9.092   8.399   4.336  0.9232 -0.1922  0.3563
 7200SOL     OW26156   6.358  11.925   3.403 -0.2065  0.2599  0.0961
 7200SOL    HW126157   6.356  11.992   3.334  0.0260 -1.1103 -1.3047
 7200SOL    HW226158   6.450  11.918   3.428  0.2600 -1.4753 -1.8238
 7201SOL     OW26159   9.503   5.639   6.047 -0.0054 -0.1434 -0.3581
 7201SOL    HW126160   9.458   5.555   6.052 -0.9263  0.1545 -2.4848
 7201SOL    HW226161   9.595   5.616   6.035 -0.1223 -0.8160 -0.0474
 7202SOL     OW26162   7.815   3.368   0.318 -0.0369 -0.2484  0.1729
 7202SOL    HW126163   7.875   3.355   0.245  2.0842 -0.3644  1.8482
 7202SOL    HW226164   7.739   3.412   0.279  2.0891  2.0745 -1.7147
 7203SOL     OW26165  12.029  11.441   3.016  0.1288  0.1318 -0.6137
 7203SOL    HW126166  12.122  11.464   3.025  0.1941  0.9935 -2.8281
 7203SOL    HW226167  11.991  11.515   2.968 -1.6999 -0.2577  0.1830
 7204SOL     OW26168  11.738  11.411   4.724  0.5017  0.2637 -0.1927
 7204SOL    HW126169  11.802  11.421   4.654  2.1620  1.5937  1.3786
 7204SOL    HW226170  11.770  11.470   4.793 -1.7196 -0.0458  1.1933
 7205SOL     OW26171   6.718   0.651   2.184  0.6353  0.0673  0.4238
 7205SOL    HW126172   6.737   0.738   2.148 -3.1900  1.3613  1.0616
 7205SOL    HW226173   6.754   0.654   2.273 -0.5418  1.5577  0.8986
 7206SOL     OW26174   0.366   6.915   2.542  0.6517 -0.2137  0.5209
 7206SOL    HW126175   0.450   6.948   2.575  0.3669  1.2701 -0.1468
 7206SOL    HW226176   0.341   6.977   2.474 -1.1412 -0.4426  0.9218
 7207SOL     OW26177   8.229   6.546   6.354 -0.5574  0.6075 -0.2343
 7207SOL    HW126178   8.187   6.499   6.425  0.8992  2.2420  1.8434
 7207SOL    HW226179   8.161   6.557   6.288 -2.0542 -0.6918  1.0171
 7208SOL     OW26180   1.902   1.956   1.818  0.0118 -0.5463  0.2588
 7208SOL    HW126181   1.988   1.954   1.858 -0.5497  1.4730  1.7298
 7208SOL    HW226182   1.911   2.018   1.745 -0.1800 -0.2970  0.4422
 7209SOL     OW26183   8.502   6.469   1.453 -0.1338  0.6667  0.4616
 7209SOL    HW126184   8.505   6.532   1.525  1.6036  1.6639 -0.4224
 7209SOL    HW226185   8.451   6.512   1.385 -1.3317 -0.0621  0.8703
 7210SOL     OW26186   5.502  10.202   4.495 -0.0330 -0.4018 -0.6047
 7210SOL    HW126187   5.411  10.177   4.504 -0.2455  0.2291 -0.9137
 7210SOL    HW226188   5.550  10.143   4.554 -0.7803  0.1912  0.6289
 7211SOL     OW26189   7.972   7.932   8.690  0.6533  0.3778  0.0961
 7211SOL    HW126190   8.036   7.882   8.741  1.5670  0.4413 -0.9558
 7211SOL    HW226191   8.008   8.021   8.688  0.4498  0.4536 -0.3437
 7212SOL     OW26192   7.110   2.958  11.365  0.7039 -0.6785  0.0138
 7212SOL    HW126193   7.124   3.043  11.322  2.0753 -0.8705  0.0140
 7212SOL    HW226194   7.199   2.922  11.376  0.2311 -1.5809  1.1003
 7213SOL     OW26195   3.685   5.813   7.907  0.8022 -0.0469 -0.1247
 7213SOL    HW126196   3.745   5.869   7.957 -0.3187  1.4176 -0.3773
 7213SOL    HW226197   3.634   5.873   7.854 -0.7031 -1.2856 -0.1396
 7214SOL     OW26198  11.867   6.869   5.697  0.4264  0.0456 -0.4158
 7214SOL    HW126199  11.777   6.900   5.709 -0.1076 -1.5603  0.0159
 7214SOL    HW226200  11.861   6.773   5.707  1.9040 -0.2701 -2.1097
 7215SOL     OW26201   7.796   8.291   8.890  0.4503  0.1230 -0.3336
 7215SOL    HW126202   7.819   8.330   8.806  0.1932  3.5041  1.0146
 7215SOL    HW226203   7.705   8.264   8.880  0.8772 -0.9943 -1.5642
 7216SOL     OW26204   7.618   4.720   2.363 -0.1325  0.1331 -0.3140
 7216SOL    HW126205   7.528   4.705   2.391  0.0406 -0.1835  0.0831
 7216SOL    HW226206   7.636   4.649   2.302  0.1371 -0.3179  0.2856
 7217SOL     OW26207  10.687   1.969   4.338 -0.4545  0.1342  0.0229
 7217SOL    HW126208  10.697   2.064   4.343 -1.9546  0.2969  0.5038
 7217SOL    HW226209  10.733   1.945   4.257  0.3924  1.1854  0.1674
 7218SOL     OW26210   1.562   8.718   5.110 -0.2308  0.1694  0.1966
 7218SOL    HW126211   1.553   8.624   5.097  2.4062  0.0961 -1.8990
 7218SOL    HW226212   1.483   8.756   5.071 -0.2463 -1.0748 -1.0322
 7219SOL     OW26213  10.142   9.844   0.487  0.6127 -0.1255 -0.0373
 7219SOL    HW126214  10.134   9.935   0.460  2.4333 -0.5813 -2.5086
 7219SOL    HW226215  10.191   9.847   0.569 -0.1919  1.1377  0.4151
 7220SOL     OW26216   6.927   4.654   7.046 -0.1345 -0.0725 -0.5493
 7220SOL    HW126217   6.857   4.692   6.993  1.4227  0.9917 -1.9194
 7220SOL    HW226218   6.916   4.559   7.035 -0.4668  0.1041 -1.9504
 7221SOL     OW26219   6.776   4.170   5.675  0.8476 -0.0797  0.0600
 7221SOL    HW126220   6.824   4.093   5.706  1.6967 -0.2171 -1.5155
 7221SOL    HW226221   6.794   4.238   5.740  0.9154 -0.9174  0.9340
 7222SOL     OW26222   2.552   0.192   7.649 -0.0240  0.2731  0.0234
 7222SOL    HW126223   2.567   0.121   7.586  0.7187  1.1175 -0.7686
 7222SOL    HW226224   2.461   0.178   7.678  0.1269 -1.0414 -0.0448
 7223SOL     OW26225   0.247   2.635   7.563  0.1891  0.0017  0.3366
 7223SOL    HW126226   0.246   2.625   7.467  0.6021 -0.9344  0.4165
 7223SOL    HW226227   0.194   2.561   7.594  2.2523 -1.3067  0.9340
 7224SOL     OW26228  11.510  11.391   9.888 -0.3777 -0.0226 -0.3445
 7224SOL    HW126229  11.562  11.312   9.899 -0.4750  0.1738  2.1682
 7224SOL    HW226230  11.573  11.463   9.900 -0.4928  0.2829 -1.4740
 7225SOL     OW26231   1.206   3.833   0.687 -0.3209 -0.5686 -0.5135
 7225SOL    HW126232   1.226   3.743   0.662 -0.3368 -0.1589 -2.1048
 7225SOL    HW226233   1.111   3.840   0.677 -0.3368 -0.4025 -0.2699
 7226SOL     OW26234   5.911   3.094   7.014  0.5651  1.0634 -0.2928
 7226SOL    HW126235   5.817   3.085   6.996  0.7798 -0.2903 -0.8177
 7226SOL    HW226236   5.915   3.114   7.108 -0.2282  0.9506 -0.2236
 7227SOL     OW26237   0.529   4.220   5.467 -0.7861 -0.1895  0.2192
 7227SOL    HW126238   0.499   4.273   5.393 -0.0766  2.1951  1.5436
 7227SOL    HW226239   0.616   4.189   5.441 -0.7038  0.3032 -0.0980
 7228SOL     OW26240   3.974   1.570   7.034 -0.9459  0.7094 -0.2363
 7228SOL    HW126241   3.925   1.531   6.962  2.0750 -0.4578 -1.8270
 7228SOL    HW226242   3.980   1.663   7.011 -1.3169  0.6263 -0.6906
 7229SOL     OW26243   5.405   9.349   7.779  0.6829 -0.0873 -0.0222
 7229SOL    HW126244   5.387   9.263   7.816 -0.5606 -0.0296 -0.4586
 7229SOL    HW226245   5.324   9.398   7.789  1.3943  1.0746  0.2875
 7230SOL     OW26246   4.335   4.092   5.419 -0.0027  0.2905  0.2417
 7230SOL    HW126247   4.347   4.005   5.455 -1.0315  0.5559  1.2693
 7230SOL    HW226248   4.424   4.123   5.402  0.3573 -1.2607 -0.9616
 7231SOL     OW26249  11.884   8.691   8.579 -0.1506  0.0906  0.0648
 7231SOL    HW126250  11.854   8.758   8.640 -0.5008  1.2385 -1.2993
 7231SOL    HW226251  11.947   8.736   8.523  0.4000 -1.0089 -0.2409
 7232SOL     OW26252   7.867   3.107  10.555 -0.1077 -0.6181 -0.0645
 7232SOL    HW126253   7.853   3.198  10.529  0.7663 -0.3533  0.3636
 7232SOL    HW226254   7.884   3.061  10.472  0.2734 -0.2352 -0.2000
 7233SOL     OW26255   5.181  11.718   0.360  0.5747  0.0936  0.1199
 7233SOL    HW126256   5.111  11.780   0.339  0.5730 -0.7391 -2.6293
 7233SOL    HW226257   5.145  11.666   0.432 -1.7785 -0.4495 -1.3488
 7234SOL     OW26258   5.719   8.289   4.178 -0.2196 -0.3330 -0.4404
 7234SOL    HW126259   5.709   8.239   4.259 -0.2284 -0.6266 -0.6216
 7234SOL    HW226260   5.809   8.323   4.182 -0.6580  0.7889  0.3259
 7235SOL     OW26261   8.806   7.532   1.139 -0.4801 -0.2773 -0.1914
 7235SOL    HW126262   8.723   7.487   1.153  1.1719 -3.0042  1.5444
 7235SOL    HW226263   8.806   7.602   1.204 -0.6749 -1.3620  0.9959
 7236SOL     OW26264   2.323  10.516   2.502  0.5138 -0.1042 -0.3724
 7236SOL    HW126265   2.312  10.601   2.545 -0.7114 -0.7026  0.5575
 7236SOL    HW226266   2.378  10.535   2.426  1.2843  1.2999  0.4782
 7237SOL     OW26267   3.036   4.656   3.468 -0.4889 -0.0420 -0.2052
 7237SOL    HW126268   3.091   4.680   3.393 -0.5177 -1.4870 -0.7242
 7237SOL    HW226269   3.062   4.717   3.537  1.7908 -0.6863 -0.4137
 7238SOL     OW26270   5.819   3.958   3.597  0.0059  0.5071  0.9422
 7238SOL    HW126271   5.739   3.962   3.649  0.1579 -0.6752  1.2895
 7238SOL    HW226272   5.888   3.935   3.660  0.2647 -0.5258  0.3042
 7239SOL     OW26273   4.479   2.884   4.271 -0.2483 -0.4827 -0.1407
 7239SOL    HW126274   4.492   2.815   4.337  0.7715 -0.7871 -0.6371
 7239SOL    HW226275   4.491   2.966   4.320 -3.4981 -0.4976  0.9170
 7240SOL     OW26276   1.826   6.919   4.143 -0.2713  0.1979 -0.8501
 7240SOL    HW126277   1.859   6.833   4.118  0.9073 -0.0317  1.2986
 7240SOL    HW226278   1.889   6.981   4.105  1.0053 -0.0989  0.7061
 7241SOL     OW26279   7.766   0.166   0.528 -0.8680 -0.3325  0.5621
 7241SOL    HW126280   7.676   0.159   0.560 -0.7190  0.2974  1.1559
 7241SOL    HW226281   7.789   0.078   0.500 -1.8448 -0.3979 -0.0777
 7242SOL     OW26282   6.634   6.296   8.334 -0.4878 -0.6770  0.1291
 7242SOL    HW126283   6.690   6.372   8.322 -1.2998 -0.2665 -1.2008
 7242SOL    HW226284   6.686   6.236   8.388  0.3538  0.5954  0.7679
 7243SOL     OW26285  10.056   6.325   0.080 -0.6714  0.0146 -0.4849
 7243SOL    HW126286  10.128   6.339   0.142 -1.6523  0.6186  0.5573
 7243SOL    HW226287  10.024   6.413   0.061 -1.2961 -0.2651 -0.7512
 7244SOL     OW26288   1.158   7.253   9.789  0.6485 -0.8985 -0.2198
 7244SOL    HW126289   1.100   7.203   9.732  0.5288 -0.0565 -0.8459
 7244SOL    HW226290   1.239   7.203   9.789  0.7744 -0.7333 -1.4309
 7245SOL     OW26291   7.455  10.695  10.562  0.0216 -0.2020 -0.5130
 7245SOL    HW126292   7.481  10.709  10.653  1.6040  0.8963 -1.0887
 7245SOL    HW226293   7.470  10.601  10.548 -0.6020 -0.4677  0.4334
 7246SOL     OW26294   8.410   4.114   2.277 -0.1371 -0.3493 -0.1198
 7246SOL    HW126295   8.381   4.172   2.207 -2.0646  0.4756  1.2784
 7246SOL    HW226296   8.396   4.026   2.242 -1.8991  0.0417 -0.4970
 7247SOL     OW26297  10.311   5.181   2.704  0.2706 -0.0205  0.2125
 7247SOL    HW126298  10.361   5.233   2.767  0.5260 -0.3402  0.2765
 7247SOL    HW226299  10.378   5.135   2.653  0.0242 -0.9148  0.6964
 7248SOL     OW26300  11.766   5.562   1.051  0.5511  0.1524  0.4030
 7248SOL    HW126301  11.733   5.533   0.966  1.6348 -1.0044  0.3389
 7248SOL    HW226302  11.844   5.508   1.065  1.1422  1.2710  1.5256
 7249SOL     OW26303   7.989   1.233   5.883  0.3285  0.1033  0.0071
 7249SOL    HW126304   8.058   1.299   5.872  2.1867 -1.6358  0.6238
 7249SOL    HW226305   7.959   1.245   5.974  0.1817  0.5070 -0.0918
 7250SOL     OW26306  11.207  10.393   0.263 -0.4266  0.0596 -0.2638
 7250SOL    HW126307  11.124  10.352   0.239  0.6605 -3.3672  1.2014
 7250SOL    HW226308  11.194  10.420   0.354 -0.2157  0.3314 -0.3147
 7251SOL     OW26309   1.776   7.174   2.198 -0.2459  0.1214  0.1745
 7251SOL    HW126310   1.831   7.101   2.169  0.6892  0.3800  1.2372
 7251SOL    HW226311   1.710   7.132   2.254  0.0739  0.0457  0.4979
 7252SOL     OW26312   2.505   3.810   9.092 -0.5756 -0.2986 -0.0156
 7252SOL    HW126313   2.552   3.744   9.142 -0.1427 -0.1724 -0.2500
 7252SOL    HW226314   2.417   3.774   9.080 -1.1032  0.2234  1.9587
 7253SOL     OW26315  10.825   8.668   6.243  0.2021 -0.0178  0.7112
 7253SOL    HW126316  10.875   8.588   6.227  1.4000  0.7203  0.6527
 7253SOL    HW226317  10.734   8.639   6.245  0.3840 -1.0404 -1.7354
 7254SOL     OW26318   6.316   9.881   3.081 -0.2165  0.2843  0.3845
 7254SOL    HW126319   6.346   9.866   2.992 -1.1543 -2.1031  0.4187
 7254SOL    HW226320   6.393   9.917   3.126  0.5825  0.5102 -1.0990
 7255SOL     OW26321  11.292   4.430   8.719 -0.3648  0.2662  1.0359
 7255SOL    HW126322  11.209   4.396   8.687 -1.2343  2.1584  1.1249
 7255SOL    HW226323  11.358   4.384   8.668 -1.5761  0.5765 -0.9277
 7256SOL     OW26324   7.206   6.948   9.776  0.1255  0.4372  0.0990
 7256SOL    HW126325   7.127   6.957   9.724  1.1704 -0.4381 -1.7573
 7256SOL    HW226326   7.180   6.894   9.851 -1.3371  1.4142  0.3147
 7257SOL     OW26327   5.053   0.632   5.296  0.0232  0.4607 -0.2816
 7257SOL    HW126328   4.970   0.604   5.258 -0.0024  2.1184 -1.5358
 7257SOL    HW226329   5.028   0.693   5.366  0.1819  0.9774 -0.6744
 7258SOL     OW26330   2.517   2.683   7.835 -0.6953 -0.3934  0.3186
 7258SOL    HW126331   2.453   2.689   7.907 -0.3668 -1.0727  0.6772
 7258SOL    HW226332   2.513   2.769   7.793 -2.2820 -0.6131 -0.0497
 7259SOL     OW26333   1.053   5.188   5.433 -0.0512  0.2025  0.3438
 7259SOL    HW126334   1.123   5.184   5.497 -0.0469 -0.2177  0.3156
 7259SOL    HW226335   0.976   5.153   5.479 -0.4643  1.4593  0.6551
 7260SOL     OW26336   3.984   7.730   2.709  0.1350 -0.2290  0.3966
 7260SOL    HW126337   4.014   7.647   2.672 -0.4942 -0.6343  0.7778
 7260SOL    HW226338   3.968   7.785   2.632 -2.2123 -1.4233 -0.0850
 7261SOL     OW26339   6.078   4.275  11.321  0.1361 -0.0108 -0.1594
 7261SOL    HW126340   6.125   4.333  11.261  1.4534 -0.8628  0.0160
 7261SOL    HW226341   6.119   4.289  11.406 -1.5305  0.9739  0.5338
 7262SOL     OW26342   5.359   3.986   7.612  0.0227  0.4120 -0.1217
 7262SOL    HW126343   5.325   4.075   7.619 -0.7781  0.2076 -1.0942
 7262SOL    HW226344   5.294   3.940   7.559 -0.5554 -1.2547  1.8781
 7263SOL     OW26345   7.406   6.245   4.098  0.5149 -0.1926 -0.4368
 7263SOL    HW126346   7.345   6.229   4.170 -0.3257 -1.0772 -1.3122
 7263SOL    HW226347   7.470   6.175   4.104  1.2547  0.5239  0.2585
 7264SOL     OW26348   2.834   7.374   9.695 -0.3141  0.3850  0.1954
 7264SOL    HW126349   2.854   7.461   9.661  0.0912 -0.0089 -0.5959
 7264SOL    HW226350   2.739   7.366   9.685 -0.1048 -0.1206 -1.8752
 7265SOL     OW26351  11.687   4.344   4.151 -0.1832 -0.2002 -0.1106
 7265SOL    HW126352  11.629   4.408   4.111 -0.1421  0.1121  0.3259
 7265SOL    HW226353  11.656   4.335   4.241 -0.5309 -1.2057 -0.3156
 7266SOL     OW26354   2.564   8.777  11.354  0.0938  0.1176 -0.1139
 7266SOL    HW126355   2.550   8.685  11.334 -0.1483  0.6771 -2.9304
 7266SOL    HW226356   2.477   8.815  11.357  0.2543  0.5317 -0.5568
 7267SOL     OW26357   6.792   4.396  10.360  0.1908  0.0825  0.0051
 7267SOL    HW126358   6.884   4.401  10.387  0.0666  0.7231  0.3376
 7267SOL    HW226359   6.788   4.318  10.304  0.7822 -0.3847  0.5851
 7268SOL     OW26360   1.494   1.896   3.415  0.6257 -0.1700  0.3039
 7268SOL    HW126361   1.559   1.911   3.483 -1.6414 -0.1503  2.6023
 7268SOL    HW226362   1.493   1.801   3.403  0.6614 -0.2221  0.7039
 7269SOL     OW26363   7.220   4.163  10.548  0.0958  0.7308  0.4945
 7269SOL    HW126364   7.252   4.139  10.461 -0.7067 -0.0056  0.3862
 7269SOL    HW226365   7.298   4.162  10.604  0.2961 -1.0238  0.2365
 7270SOL     OW26366   9.969  11.692   3.446 -0.0042  0.4030 -0.6681
 7270SOL    HW126367   9.898  11.749   3.476 -1.0009 -1.1366  0.0018
 7270SOL    HW226368  10.049  11.739   3.471 -0.7727  1.8811 -0.8756
 7271SOL     OW26369   5.293   4.638   5.680 -0.0037 -0.5165  0.6904
 7271SOL    HW126370   5.287   4.550   5.718  0.7422 -0.7229  0.3630
 7271SOL    HW226371   5.207   4.653   5.641 -0.6219 -0.4925  2.0241
 7272SOL     OW26372   9.524   1.156   5.485 -0.2757  0.2358  0.3445
 7272SOL    HW126373   9.484   1.242   5.468 -2.6278 -0.9221 -0.4298
 7272SOL    HW226374   9.546   1.123   5.398  1.1616  0.2589  0.6787
 7273SOL     OW26375   5.866  10.173   8.543 -0.3785  0.0977  0.6849
 7273SOL    HW126376   5.853  10.262   8.576 -1.1251 -0.1231  1.0242
 7273SOL    HW226377   5.832  10.117   8.613  0.8765 -0.4956  0.8514
 7274SOL     OW26378  10.074   7.090   0.708 -0.3278 -0.0209 -0.4381
 7274SOL    HW126379  10.001   7.079   0.647 -1.1929 -0.3911  0.6262
 7274SOL    HW226380  10.045   7.159   0.767  0.3958  0.1667 -0.2903
 7275SOL     OW26381   1.262   4.048   0.350 -0.0632  0.3540 -0.3415
 7275SOL    HW126382   1.244   3.986   0.279  1.1387 -0.0240 -0.3267
 7275SOL    HW226383   1.348   4.083   0.331 -0.1943  1.0826  0.3443
 7276SOL     OW26384   5.376   3.256  11.551 -0.0417 -0.0316  0.7205
 7276SOL    HW126385   5.410   3.249  11.640 -1.1204 -2.2470  1.0564
 7276SOL    HW226386   5.348   3.166  11.530 -0.7145  0.6382 -1.4780
 7277SOL     OW26387   1.278  10.448   2.024  0.0684 -0.7382 -0.5146
 7277SOL    HW126388   1.344  10.382   2.047  0.5853 -0.8986 -2.2830
 7277SOL    HW226389   1.248  10.422   1.937 -1.3317  0.1283 -0.3133
 7278SOL     OW26390   2.414   5.885   5.029  0.0602 -0.6133 -0.2096
 7278SOL    HW126391   2.339   5.887   4.969 -0.6240 -1.8945  0.5620
 7278SOL    HW226392   2.488   5.857   4.974 -0.1809 -0.1416 -0.7939
 7279SOL     OW26393   7.745   0.897   7.456  0.0625  0.3555  0.6237
 7279SOL    HW126394   7.733   0.818   7.404  0.0751  0.7923 -0.0547
 7279SOL    HW226395   7.747   0.969   7.392  0.6716  0.8449  1.1663
 7280SOL     OW26396  10.099   6.472   4.713  1.1416  0.8607  0.4951
 7280SOL    HW126397  10.164   6.529   4.754  0.7541  1.6348  0.0555
 7280SOL    HW226398  10.018   6.490   4.761  0.6951  1.7370 -0.5444
 7281SOL     OW26399  10.754   2.309   0.548 -0.3720 -0.4334  0.2305
 7281SOL    HW126400  10.662   2.294   0.568 -0.6942 -0.6918 -1.3198
 7281SOL    HW226401  10.801   2.248   0.605 -0.9189  1.5913  3.0582
 7282SOL     OW26402   6.865   7.070   8.176 -0.8299 -0.1834  0.3573
 7282SOL    HW126403   6.885   6.978   8.193 -0.9654 -0.0291  1.3853
 7282SOL    HW226404   6.933   7.099   8.115 -0.8004 -0.9601  0.0080
 7283SOL     OW26405   7.844   2.633   9.039  0.2282 -0.0598 -0.2687
 7283SOL    HW126406   7.934   2.652   9.014  0.6538 -0.2245  1.0648
 7283SOL    HW226407   7.792   2.699   8.993  1.2267  1.3578  0.5485
 7284SOL     OW26408   0.276   1.692   4.659  0.1541  0.7157 -0.3230
 7284SOL    HW126409   0.317   1.762   4.710 -0.3565  0.7370  0.0782
 7284SOL    HW226410   0.196   1.671   4.708 -0.4965  0.9208 -1.2688
 7285SOL     OW26411   5.046  11.026   5.189 -0.1474  0.7234 -0.6216
 7285SOL    HW126412   5.032  10.944   5.235  1.2285 -0.6425 -2.4976
 7285SOL    HW226413   5.114  11.071   5.239 -0.7623  0.6686  0.2929
 7286SOL     OW26414   2.784   0.775   4.411 -0.0674 -0.1133  0.2461
 7286SOL    HW126415   2.816   0.685   4.404  0.6682  0.1948 -0.5127
 7286SOL    HW226416   2.864   0.828   4.412 -0.4803  0.5058  1.1574
 7287SOL     OW26417   4.185   6.235   7.809 -0.3775 -0.2470  0.1704
 7287SOL    HW126418   4.137   6.293   7.869 -0.8065 -0.9620  0.5262
 7287SOL    HW226419   4.274   6.269   7.809 -0.4943  0.0736  0.8124
 7288SOL     OW26420   7.046   1.531   6.204  0.1147  0.3859 -1.0008
 7288SOL    HW126421   6.991   1.454   6.192  0.4742 -0.2384  1.0430
 7288SOL    HW226422   7.032   1.582   6.125 -2.0531 -0.5739 -1.3168
 7289SOL     OW26423   2.259   3.646   0.634 -0.0952 -0.0616 -0.5703
 7289SOL    HW126424   2.301   3.720   0.677 -0.6776  0.0212 -0.1227
 7289SOL    HW226425   2.323   3.614   0.571  1.7422 -1.6364  1.9258
 7290SOL     OW26426   3.472   3.294  11.613 -0.2782 -0.2050 -0.2954
 7290SOL    HW126427   3.424   3.376  11.625  0.0034  0.1287 -1.3588
 7290SOL    HW226428   3.539   3.314  11.548 -1.7778 -1.8774 -2.5173
 7291SOL     OW26429   9.673   5.198   1.263 -0.5364  0.5860  0.1240
 7291SOL    HW126430   9.637   5.286   1.268 -3.1021 -0.3489 -0.2735
 7291SOL    HW226431   9.740   5.203   1.195  0.7313  2.5957  1.4118
 7292SOL     OW26432   3.055   1.966   3.424 -0.1910 -0.1123 -0.0999
 7292SOL    HW126433   2.981   1.954   3.364 -0.5657 -0.7993  0.4685
 7292SOL    HW226434   3.100   2.044   3.393 -0.2506 -0.5721 -1.3909
 7293SOL     OW26435   6.005   9.059   0.010 -0.3307 -0.2295  0.2580
 7293SOL    HW126436   6.042   9.086  -0.074 -1.5529  0.6628 -0.0334
 7293SOL    HW226437   5.981   9.141   0.052 -0.5054 -0.7099  1.1114
 7294SOL     OW26438   3.094   1.811   4.620 -0.1811 -0.5019  0.0855
 7294SOL    HW126439   3.018   1.866   4.602  1.7045  1.9744 -0.9741
 7294SOL    HW226440   3.077   1.774   4.707 -2.2509  0.5251  0.1822
 7295SOL     OW26441   5.204   0.685   6.366  0.2200 -0.0356  0.4648
 7295SOL    HW126442   5.282   0.730   6.398 -1.2886  2.0418  1.4367
 7295SOL    HW226443   5.196   0.607   6.420  1.4715 -0.1597  0.4922
 7296SOL     OW26444   4.518   3.077  11.156  0.0904  0.1226  0.6814
 7296SOL    HW126445   4.482   3.088  11.068  0.1889  1.6981  0.7992
 7296SOL    HW226446   4.507   3.163  11.197 -0.1888 -0.6502  2.3073
 7297SOL     OW26447  11.749   3.631   3.572  0.1722 -0.5836  0.8147
 7297SOL    HW126448  11.699   3.628   3.491  0.1581  0.2480  0.7878
 7297SOL    HW226449  11.708   3.701   3.623  0.9179 -0.3058  1.0481
 7298SOL     OW26450   9.650   5.376   5.363 -0.1378 -0.7359 -0.3572
 7298SOL    HW126451   9.695   5.314   5.421 -0.8904 -0.6201  0.3666
 7298SOL    HW226452   9.582   5.324   5.321  0.3342 -0.7923 -1.0749
 7299SOL     OW26453   8.710   9.482   3.669 -0.3776  0.0319 -0.2240
 7299SOL    HW126454   8.657   9.527   3.603 -0.1687 -0.2404 -0.5735
 7299SOL    HW226455   8.650   9.470   3.743 -0.6952  0.0760 -0.4735
 7300SOL     OW26456   9.852   4.146   5.802  0.4975 -0.1595  0.5022
 7300SOL    HW126457   9.770   4.097   5.804 -0.0021  0.6077 -0.2684
 7300SOL    HW226458   9.901   4.115   5.878 -1.0325  0.2751  1.7061
 7301SOL     OW26459   7.075   4.967   5.568  0.1494 -0.0135 -0.3434
 7301SOL    HW126460   7.109   5.010   5.490  0.4199  0.3407 -0.0292
 7301SOL    HW226461   6.992   4.928   5.539  0.8319 -0.9372 -1.1272
 7302SOL     OW26462   3.842   1.304  11.186  0.5661 -0.1848 -0.5736
 7302SOL    HW126463   3.806   1.387  11.219  0.7902 -1.1688  2.5104
 7302SOL    HW226464   3.807   1.296  11.098  1.0166  3.4495 -1.2450
 7303SOL     OW26465  11.537   1.424   8.620 -0.2077  0.0416 -0.6938
 7303SOL    HW126466  11.617   1.430   8.671  0.2802  0.9742 -1.5358
 7303SOL    HW226467  11.555   1.475   8.541 -2.0317  1.3083 -0.3616
 7304SOL     OW26468   4.880  11.152  11.218  0.3283 -0.0001 -0.1014
 7304SOL    HW126469   4.972  11.177  11.210  0.1029  1.4336  1.3669
 7304SOL    HW226470   4.854  11.183  11.305 -1.0370 -2.1031  0.2979
 7305SOL     OW26471   6.018   5.270   1.650  0.0297  0.6578 -0.4051
 7305SOL    HW126472   5.928   5.274   1.620 -0.2506  1.4350  0.5013
 7305SOL    HW226473   6.016   5.308   1.738  1.4451  1.8557 -0.8495
 7306SOL     OW26474   7.378   6.159  11.914  0.2979  0.6065 -0.7785
 7306SOL    HW126475   7.378   6.079  11.967 -1.5262  1.7782  1.1472
 7306SOL    HW226476   7.346   6.227  11.973 -0.1226  2.3855 -2.9222
 7307SOL     OW26477   6.382  11.560   5.942  0.9649  0.4590 -0.0583
 7307SOL    HW126478   6.460  11.614   5.952  1.1488  0.1360  0.3029
 7307SOL    HW226479   6.401  11.482   5.995  0.3193  0.4683  0.1882
 7308SOL     OW26480   7.277  10.151   0.231  0.1469 -0.0471  0.0160
 7308SOL    HW126481   7.203  10.098   0.204  0.3440 -0.1246 -0.3802
 7308SOL    HW226482   7.242  10.210   0.298 -0.0232 -0.8073  0.6032
 7309SOL     OW26483   4.549   5.147   3.605 -0.1402 -0.0401 -0.1386
 7309SOL    HW126484   4.498   5.228   3.609  0.6369  0.4614 -0.1990
 7309SOL    HW226485   4.607   5.151   3.681 -0.1698 -0.5967 -0.0814
 7310SOL     OW26486   4.878   0.522   2.957  0.2149  0.6082 -0.2595
 7310SOL    HW126487   4.818   0.479   2.896  0.5655 -0.0465 -0.1537
 7310SOL    HW226488   4.889   0.610   2.922 -0.6823  0.6937 -0.3638
 7311SOL     OW26489   4.834   5.105   9.803  0.0138 -0.0607 -0.4702
 7311SOL    HW126490   4.894   5.165   9.846 -0.9123  0.8347 -0.3854
 7311SOL    HW226491   4.778   5.071   9.873 -2.7534  2.8385 -1.0221
 7312SOL     OW26492   3.118   4.320   7.972 -0.4441 -0.5689  0.0072
 7312SOL    HW126493   3.112   4.387   8.040 -1.1686 -0.8907  0.2714
 7312SOL    HW226494   3.074   4.360   7.896 -3.6414 -1.8037  1.0485
 7313SOL     OW26495   4.088  10.226  10.403  0.6340 -0.5699  0.1121
 7313SOL    HW126496   4.157  10.283  10.371  2.1146 -0.3445  3.2901
 7313SOL    HW226497   4.119  10.138  10.382  1.1375 -0.4089  0.1559
 7314SOL     OW26498  11.297   4.821   5.609  0.5441  0.4007  0.4639
 7314SOL    HW126499  11.258   4.827   5.696  1.1671  1.3123  0.7013
 7314SOL    HW226500  11.368   4.758   5.618  0.5266  0.3994  0.5882
 7315SOL     OW26501  10.860   3.334  11.022  0.1328  0.3575 -0.1279
 7315SOL    HW126502  10.801   3.281  11.077  0.3206 -1.5282 -1.6317
 7315SOL    HW226503  10.936   3.349  11.078  0.2335 -1.3414  0.2680
 7316SOL     OW26504   3.163   7.856   1.728  0.1431  0.0618 -0.0063
 7316SOL    HW126505   3.129   7.771   1.703  1.4289 -0.9367  1.4843
 7316SOL    HW226506   3.167   7.905   1.646  1.3602 -2.0245 -1.2645
 7317SOL     OW26507   4.029   1.022   8.763 -0.2796 -0.1024  0.2658
 7317SOL    HW126508   4.076   1.042   8.843  0.6604 -1.4049  0.0734
 7317SOL    HW226509   4.014   1.107   8.722 -0.7283  0.5823  1.7653
 7318SOL     OW26510   6.080   1.256  10.353  0.4438  0.2843  0.2830
 7318SOL    HW126511   6.144   1.316  10.315  0.6036  0.0801  0.2273
 7318SOL    HW226512   6.095   1.172  10.309 -1.4801  0.7983 -1.5178
 7319SOL     OW26513  10.693   1.689   7.495  0.1193  0.1427  0.2699
 7319SOL    HW126514  10.676   1.779   7.522 -1.9545 -0.3020  0.5784
 7319SOL    HW226515  10.629   1.672   7.426  1.4601 -0.6518 -0.8301
 7320SOL     OW26516   7.805   3.464   0.790 -0.1890  0.0450 -0.9675
 7320SOL    HW126517   7.739   3.513   0.741 -1.2366 -1.2536 -0.8975
 7320SOL    HW226518   7.833   3.395   0.729  0.5267  0.1094 -0.7154
 7321SOL     OW26519   7.705   7.883  10.598 -0.1502  0.0807  0.1155
 7321SOL    HW126520   7.666   7.962  10.636 -0.8308  1.3044 -2.9008
 7321SOL    HW226521   7.630   7.827  10.580  0.0388  0.0566 -0.5886
 7322SOL     OW26522   5.674   9.683   7.600  0.3296  0.6555 -0.6428
 7322SOL    HW126523   5.602   9.704   7.541  0.8132  1.7566 -0.8704
 7322SOL    HW226524   5.663   9.591   7.621 -1.6046  0.9951 -0.0231
 7323SOL     OW26525  11.150   2.327   2.002  0.4056 -0.8046 -0.7845
 7323SOL    HW126526  11.166   2.421   2.001  1.5145 -0.9452 -3.6070
 7323SOL    HW226527  11.215   2.292   2.062 -0.3913  0.2266  0.7506
 7324SOL     OW26528   9.096   3.338   3.204  0.0719 -0.1949 -0.2583
 7324SOL    HW126529   9.189   3.360   3.206  0.0682 -0.2158  0.9027
 7324SOL    HW226530   9.068   3.345   3.295 -0.5902 -2.2775 -0.2494
 7325SOL     OW26531   4.386  11.682   1.085 -0.1666 -0.2775 -0.1541
 7325SOL    HW126532   4.380  11.759   1.030  0.0272 -0.0130  0.1921
 7325SOL    HW226533   4.400  11.716   1.173  2.0814 -0.7282 -0.2860
 7326SOL     OW26534  11.523   2.850   1.693 -0.6717 -0.2688  0.7166
 7326SOL    HW126535  11.534   2.837   1.599 -1.4097  3.7192 -0.1125
 7326SOL    HW226536  11.445   2.800   1.715 -0.7235 -0.9483 -0.8776
 7327SOL     OW26537   5.921  10.113   5.976  0.2777 -0.2542  0.2510
 7327SOL    HW126538   5.986  10.172   5.939  1.9820 -0.7874  2.2012
 7327SOL    HW226539   5.917  10.040   5.915  0.4132  0.4627 -0.6295
 7328SOL     OW26540   1.321   7.008   2.106 -0.3533 -0.6379  0.1430
 7328SOL    HW126541   1.277   7.027   2.188  0.9053 -0.4728  0.8091
 7328SOL    HW226542   1.386   6.942   2.128  0.2381 -0.3403 -0.6393
 7329SOL     OW26543   1.865   1.259   0.209  0.2516  0.0317 -0.3496
 7329SOL    HW126544   1.900   1.181   0.251 -2.0312 -0.4857  0.7103
 7329SOL    HW226545   1.842   1.318   0.281  0.0737  0.8389 -1.0436
 7330SOL     OW26546  10.199   3.922   2.405  0.7221  0.1930  0.2793
 7330SOL    HW126547  10.250   3.921   2.486 -0.2482  0.9839  0.9209
 7330SOL    HW226548  10.127   3.982   2.423 -0.3451 -0.7642 -0.6602
 7331SOL     OW26549   8.906   5.853   5.922  0.1171 -0.3768 -0.4485
 7331SOL    HW126550   8.878   5.849   5.831  2.0391  0.1811 -1.1021
 7331SOL    HW226551   8.951   5.937   5.930 -0.6833 -0.0625  1.2364
 7332SOL     OW26552  11.044   5.771   2.372 -0.4295  0.3969 -1.1071
 7332SOL    HW126553  11.042   5.680   2.344  0.6209  0.5119 -1.6069
 7332SOL    HW226554  10.954   5.791   2.395 -0.8918 -0.4224 -2.1229
 7333SOL     OW26555   3.613  10.102   2.228 -0.1880 -0.4606  0.0275
 7333SOL    HW126556   3.600  10.047   2.305  1.5739 -0.4373  0.3971
 7333SOL    HW226557   3.536  10.158   2.225 -0.4195 -0.6448  1.6123
 7334SOL     OW26558   6.803  12.012   8.100 -0.4080  0.2660  0.0295
 7334SOL    HW126559   6.708  12.015   8.087 -0.9820 -3.0242  2.3670
 7334SOL    HW226560   6.837  11.973   8.020 -0.7473  2.5436 -1.3371
 7335SOL     OW26561   9.181   1.742   6.360  0.0699 -0.1184 -0.1456
 7335SOL    HW126562   9.089   1.725   6.382 -0.2093  0.1013 -1.0628
 7335SOL    HW226563   9.230   1.714   6.437 -0.7794 -0.0937  0.4245
 7336SOL     OW26564   4.234  10.902   5.952  0.0843  0.5709  0.0779
 7336SOL    HW126565   4.281  10.928   5.873 -0.3000  1.0292 -0.0060
 7336SOL    HW226566   4.232  10.806   5.949 -1.1745  0.6082 -1.2139
 7337SOL     OW26567   5.999   1.609   8.498  0.0838 -0.1204 -0.2563
 7337SOL    HW126568   6.063   1.653   8.441  0.9396 -1.0468 -0.0451
 7337SOL    HW226569   6.034   1.520   8.508 -0.6379 -0.2946  0.8146
 7338SOL     OW26570   7.107  10.004  11.598  0.1252  0.2920 -0.3420
 7338SOL    HW126571   7.119  10.098  11.604 -2.1931  0.6518 -0.6723
 7338SOL    HW226572   7.017   9.988  11.624  0.4133 -1.8318 -0.4122
 7339SOL     OW26573   8.862   2.480   4.102 -0.3203 -0.2843 -0.1648
 7339SOL    HW126574   8.911   2.466   4.021  1.9529  1.5398  0.7781
 7339SOL    HW226575   8.806   2.556   4.084 -2.9959 -2.3705 -1.2431
 7340SOL     OW26576   0.611   7.487   6.688 -0.2848  0.4133  0.2676
 7340SOL    HW126577   0.565   7.418   6.640 -0.6988  0.8576  0.0205
 7340SOL    HW226578   0.659   7.440   6.757 -3.5248  0.1318  2.5610
 7341SOL     OW26579   2.523  10.024   0.560  0.4256 -0.1141  0.1519
 7341SOL    HW126580   2.583  10.099   0.559  0.5490 -0.1771  1.4232
 7341SOL    HW226581   2.495  10.017   0.651 -0.2184 -1.1225 -0.1084
 7342SOL     OW26582   6.187   1.658  10.339 -0.4630  0.2157  0.1526
 7342SOL    HW126583   6.215   1.698  10.256 -2.6282  0.0648 -0.7133
 7342SOL    HW226584   6.129   1.724  10.378 -2.0717 -1.0031 -0.0790
 7343SOL     OW26585   0.849   3.856   3.260  0.0874  0.4769  0.3552
 7343SOL    HW126586   0.881   3.909   3.186  1.6973 -1.3497 -0.3517
 7343SOL    HW226587   0.773   3.810   3.224  0.9993 -0.5769 -0.2782
 7344SOL     OW26588   2.627   8.506   6.082 -0.7017 -0.2884 -0.5612
 7344SOL    HW126589   2.549   8.520   6.136 -0.1036  1.4892 -0.0956
 7344SOL    HW226590   2.676   8.587   6.089  2.1303 -1.9675  0.5918
 7345SOL     OW26591  11.111  11.342   2.066 -0.2027  0.4091  0.0909
 7345SOL    HW126592  11.096  11.429   2.104 -0.1906  1.2196 -1.6642
 7345SOL    HW226593  11.100  11.355   1.972  0.0979 -1.4462 -0.2352
 7346SOL     OW26594  10.666  11.264   2.660 -0.3858 -0.0262 -0.4665
 7346SOL    HW126595  10.733  11.308   2.712 -1.8482 -0.6915  2.1689
 7346SOL    HW226596  10.600  11.332   2.644 -0.4957 -0.1224 -0.4158
 7347SOL     OW26597   6.498   6.647   6.831  0.6075  0.1729  0.0599
 7347SOL    HW126598   6.583   6.686   6.808  1.3921 -0.7216  1.3295
 7347SOL    HW226599   6.517   6.591   6.906 -0.7694 -1.5142 -0.7889
 7348SOL     OW26600   8.626   2.886   9.641  0.6002  0.7451  0.0146
 7348SOL    HW126601   8.633   2.943   9.564  0.6066  2.4017  1.2179
 7348SOL    HW226602   8.713   2.846   9.648  0.6150  0.6108 -0.8021
 7349SOL     OW26603  11.977   2.039  11.224 -0.2410 -0.2509 -0.0815
 7349SOL    HW126604  11.963   1.980  11.150 -0.3535 -1.2145  0.6867
 7349SOL    HW226605  12.064   2.015  11.258  0.2596  0.8845 -0.5169
 7350SOL     OW26606   8.989  10.949   8.045  0.3077 -0.2377 -0.5962
 7350SOL    HW126607   8.975  10.909   8.131  1.4193 -0.9421 -0.7235
 7350SOL    HW226608   9.084  10.947   8.033  0.1127 -1.1474 -2.2937
 7351SOL     OW26609  11.493   2.652   3.644 -0.6938  0.0951 -0.3946
 7351SOL    HW126610  11.519   2.683   3.731 -2.3869 -0.8718  0.4966
 7351SOL    HW226611  11.562   2.683   3.586  0.1416  1.3289  1.1927
 7352SOL     OW26612   2.486   2.696   2.199  0.3680  0.2849  0.2476
 7352SOL    HW126613   2.479   2.604   2.171 -0.6324  0.2582  0.5581
 7352SOL    HW226614   2.493   2.745   2.117  0.0779 -0.0045  0.0480
 7353SOL     OW26615   6.264   4.722   2.339 -0.5001  0.1143  0.5802
 7353SOL    HW126616   6.268   4.743   2.246  0.4861  1.0995  0.8177
 7353SOL    HW226617   6.179   4.755   2.367 -0.6705  0.0970  0.0963
 7354SOL     OW26618  11.847   2.107   6.781  0.3183 -0.0961 -0.4993
 7354SOL    HW126619  11.914   2.158   6.734 -0.4766 -1.5591 -3.5113
 7354SOL    HW226620  11.896   2.033   6.818  0.4782 -1.3055 -2.9131
 7355SOL     OW26621   8.258  11.801   6.873  0.3339 -0.0832  0.0162
 7355SOL    HW126622   8.278  11.893   6.892  0.7930  0.1630 -1.5394
 7355SOL    HW226623   8.342  11.764   6.846  0.2089 -1.0550  0.9008
 7356SOL     OW26624   1.019   8.841   5.659 -0.0991  0.0540  0.1840
 7356SOL    HW126625   1.099   8.789   5.658 -0.4233 -0.4740  0.7230
 7356SOL    HW226626   0.950   8.779   5.636 -0.2224  0.7863 -1.6390
 7357SOL     OW26627   3.875   9.671   1.954  0.3064  0.0464  0.4988
 7357SOL    HW126628   3.922   9.588   1.962 -1.2357 -0.8650  0.4808
 7357SOL    HW226629   3.910   9.712   1.875 -0.2873 -1.5356 -0.6396
 7358SOL     OW26630   7.770  10.546   5.772  1.3481 -0.1021  0.0331
 7358SOL    HW126631   7.805  10.592   5.848 -0.4142  0.9239  0.2611
 7358SOL    HW226632   7.739  10.615   5.714  0.6232 -0.9462 -0.6012
 7359SOL     OW26633  10.510   5.120   4.826 -0.3933 -0.5759  0.4497
 7359SOL    HW126634  10.579   5.058   4.849  0.0634 -0.1272  0.3009
 7359SOL    HW226635  10.521   5.136   4.733 -0.0252  0.3071  0.6346
 7360SOL     OW26636   2.382  10.208  12.028  0.2829 -0.1744 -0.1360
 7360SOL    HW126637   2.318  10.235  11.962  0.0471 -0.6118 -0.0846
 7360SOL    HW226638   2.332  10.201  12.108  0.5563  0.2818  0.0826
 7361SOL     OW26639   9.263   7.077   8.686 -0.1469  0.6560 -0.4887
 7361SOL    HW126640   9.188   7.038   8.730 -0.5450 -0.8089 -2.3358
 7361SOL    HW226641   9.225   7.126   8.612  0.6793 -0.4450 -1.6907
 7362SOL     OW26642   6.416   4.172   3.967  0.0925  0.0485 -0.0709
 7362SOL    HW126643   6.502   4.152   3.931 -0.5928  0.4117 -2.0662
 7362SOL    HW226644   6.420   4.265   3.988 -0.2197  0.4106 -1.5108
 7363SOL     OW26645   6.346   7.345   2.974  0.2357  0.4104  0.0243
 7363SOL    HW126646   6.436   7.345   2.942  0.7881 -1.8160  1.3183
 7363SOL    HW226647   6.319   7.253   2.969 -1.6630  0.8904  0.4788
 7364SOL     OW26648   3.611   3.600   1.840  0.2955 -0.0949 -0.4047
 7364SOL    HW126649   3.595   3.610   1.934  1.3284  2.3692 -0.4172
 7364SOL    HW226650   3.705   3.615   1.830  0.1505  0.0034 -1.8717
 7365SOL     OW26651   9.027   7.673   7.753 -0.3912 -0.1271 -1.2063
 7365SOL    HW126652   9.106   7.625   7.731 -0.7015 -0.6459 -1.2270
 7365SOL    HW226653   8.995   7.708   7.670  0.0573  0.4633 -1.1307
 7366SOL     OW26654   3.877   8.273  10.516 -0.1660  0.0078  0.4954
 7366SOL    HW126655   3.905   8.247  10.604 -0.1188 -0.9085  0.2178
 7366SOL    HW226656   3.958   8.286  10.468 -0.1937  0.4243  0.5535
 7367SOL     OW26657   1.160  10.670  10.297  0.3742 -0.0905  0.6002
 7367SOL    HW126658   1.217  10.605  10.337  0.7295  0.0386  0.3074
 7367SOL    HW226659   1.082  10.620  10.270  1.1804 -0.6589 -0.7821
 7368SOL     OW26660   1.156   5.591   6.025  0.4936  0.6480 -0.3980
 7368SOL    HW126661   1.170   5.685   6.039 -2.0795  0.9550  0.6344
 7368SOL    HW226662   1.080   5.570   6.079  1.3569 -2.1880 -0.1454
 7369SOL     OW26663   9.401  11.262   8.727  0.1109 -0.1223  0.3381
 7369SOL    HW126664   9.399  11.355   8.703 -0.6197 -0.6796 -1.9848
 7369SOL    HW226665   9.310  11.241   8.748  0.0922 -0.5260 -0.1248
 7370SOL     OW26666   4.433   3.492  11.906  0.0383  0.1224  0.4398
 7370SOL    HW126667   4.375   3.515  11.834 -2.2477 -1.5477  1.6286
 7370SOL    HW226668   4.492   3.426  11.869  0.1894  0.7090 -0.3893
 7371SOL     OW26669   2.911   2.913   9.929  0.3481  0.4051  0.1035
 7371SOL    HW126670   2.828   2.955   9.905  0.2540 -0.3584 -0.9586
 7371SOL    HW226671   2.904   2.824   9.896  0.6639 -0.4031  2.0675
 7372SOL     OW26672   5.005   2.455  10.701  0.2301  0.4870  0.4433
 7372SOL    HW126673   5.069   2.462  10.771  0.9324  1.6184 -0.2723
 7372SOL    HW226674   5.045   2.397  10.637  0.9555  1.8358 -0.3825
 7373SOL     OW26675   8.633  10.896   8.223 -0.2456  0.2268  0.4017
 7373SOL    HW126676   8.651  10.955   8.296  0.0518  0.8912 -0.1970
 7373SOL    HW226677   8.572  10.832   8.258  2.1988 -1.3087  2.1345
 7374SOL     OW26678  10.715   8.726   3.435 -0.2742 -0.1447  0.6089
 7374SOL    HW126679  10.796   8.716   3.484 -0.1714 -1.0374  0.2757
 7374SOL    HW226680  10.732   8.799   3.375  0.4309 -0.5860  0.2626
 7375SOL     OW26681   1.831  10.286  11.853 -0.4244  0.1820  0.0849
 7375SOL    HW126682   1.810  10.202  11.812  0.5930  0.3514 -0.8395
 7375SOL    HW226683   1.796  10.279  11.942 -0.3818 -1.2115  0.0150
 7376SOL     OW26684  11.778  11.546   1.782 -0.6361  0.4812  0.2051
 7376SOL    HW126685  11.824  11.624   1.750 -0.2669  0.5500  0.8856
 7376SOL    HW226686  11.704  11.581   1.832  0.8501  0.5078  2.5513
 7377SOL     OW26687   7.720  10.397   9.087  0.0452  0.2571 -0.4905
 7377SOL    HW126688   7.691  10.331   9.023  0.0951  0.8217 -1.1010
 7377SOL    HW226689   7.815  10.394   9.082  0.0501  1.8135 -2.0363
 7378SOL     OW26690   4.380  12.000   3.187 -0.2108  0.3071 -0.3122
 7378SOL    HW126691   4.395  12.086   3.147  1.6346  1.4903  2.6070
 7378SOL    HW226692   4.464  11.956   3.180 -0.8953 -0.9453 -0.9444
 7379SOL     OW26693   8.613   7.605   7.535  0.5588 -0.0131  0.3429
 7379SOL    HW126694   8.623   7.688   7.582 -0.2312  0.0836  0.3588
 7379SOL    HW226695   8.559   7.627   7.459  0.7006 -0.4346  0.1143
 7380SOL     OW26696   5.086   4.472  10.202  0.0172  1.2686  0.0130
 7380SOL    HW126697   5.176   4.500  10.221  0.7676 -0.9501  0.0563
 7380SOL    HW226698   5.085   4.457  10.107  0.3740 -0.7641  0.2958
 7381SOL     OW26699   1.604  10.478   8.990 -0.5405 -0.0031 -0.3413
 7381SOL    HW126700   1.679  10.496   8.933 -0.9016  0.6748 -0.6149
 7381SOL    HW226701   1.530  10.521   8.946 -0.7427  0.9074  0.8531
 7382SOL     OW26702   8.432  10.256   8.794  0.3150  0.3374  0.5796
 7382SOL    HW126703   8.526  10.275   8.785  0.0907  1.3410  0.1651
 7382SOL    HW226704   8.406  10.301   8.874 -0.2208  1.8328 -0.3987
 7383SOL     OW26705  10.271   0.105  10.423  0.9087 -0.2468 -0.2187
 7383SOL    HW126706  10.229   0.144  10.500  1.6944 -0.8935  0.5491
 7383SOL    HW226707  10.200   0.100  10.359  0.2192  0.2498  0.4716
 7384SOL     OW26708  11.035   7.057   7.764 -0.2070  0.0242 -0.0528
 7384SOL    HW126709  11.118   7.009   7.760  0.2540  0.8312 -0.4830
 7384SOL    HW226710  11.035   7.096   7.852 -0.4151 -0.4592  0.1656
 7385SOL     OW26711   8.756   4.762   2.142 -0.1666  0.2886 -0.7848
 7385SOL    HW126712   8.711   4.841   2.111  0.8427  1.0024 -0.4887
 7385SOL    HW226713   8.718   4.746   2.229 -1.9574 -0.8735 -1.7184
 7386SOL     OW26714   5.799  10.858   3.857 -0.1848  0.3413  0.0536
 7386SOL    HW126715   5.823  10.833   3.947  0.9573  0.9572 -0.0593
 7386SOL    HW226716   5.750  10.939   3.867 -0.8336 -0.0644  0.1795
 7387SOL     OW26717  11.179   9.128   7.691  0.1478 -0.1441  0.1574
 7387SOL    HW126718  11.218   9.142   7.777  1.8219 -2.6025 -0.0884
 7387SOL    HW226719  11.088   9.157   7.700  0.2759 -0.3404  2.7346
 7388SOL     OW26720   3.247  11.080  12.076  0.5820  0.0394  0.0002
 7388SOL    HW126721   3.211  11.020  12.010 -1.8889 -0.1102  1.3600
 7388SOL    HW226722   3.170  11.121  12.115  2.1057  2.3534  0.7768
 7389SOL     OW26723   6.646  11.310  11.570 -0.4400  0.5702  0.1268
 7389SOL    HW126724   6.651  11.229  11.620  0.0945 -0.1312 -1.0167
 7389SOL    HW226725   6.567  11.353  11.602 -1.3822 -0.9662 -0.0559
 7390SOL     OW26726   7.796   5.097   6.558  0.4536  0.0643 -0.4305
 7390SOL    HW126727   7.718   5.045   6.540  1.2105 -0.7918 -1.3445
 7390SOL    HW226728   7.774   5.147   6.637 -1.1454  0.1308 -0.8864
 7391SOL     OW26729  10.321   9.001  11.990 -0.2053 -0.0827  0.2768
 7391SOL    HW126730  10.263   9.069  11.954  1.3070  0.7124 -0.7718
 7391SOL    HW226731  10.403   9.046  12.007  0.9054 -1.6862 -0.5988
 7392SOL     OW26732  10.317  11.941   5.046  0.2633 -0.4097  0.4912
 7392SOL    HW126733  10.372  11.912   5.119 -0.3468 -0.3607  0.9811
 7392SOL    HW226734  10.227  11.934   5.080 -0.0200 -0.3280 -0.2360
 7393SOL     OW26735  11.525  10.616   9.933 -0.2241 -0.1472  0.2630
 7393SOL    HW126736  11.579  10.662   9.998 -0.5288  0.7719 -0.1145
 7393SOL    HW226737  11.534  10.524   9.956 -0.7795  0.1798  1.9907
 7394SOL     OW26738  11.200   1.152   1.709 -0.3083  0.1358 -0.1756
 7394SOL    HW126739  11.140   1.137   1.782  0.3767  1.4259  0.6972
 7394SOL    HW226740  11.143   1.162   1.633 -1.1221 -0.0317  0.3968
 7395SOL     OW26741   6.546   4.459   6.597  0.2796  0.0534 -1.1897
 7395SOL    HW126742   6.586   4.528   6.544 -1.3228  0.5680 -1.7901
 7395SOL    HW226743   6.472   4.428   6.544  0.4112 -1.4903 -0.5245
 7396SOL     OW26744  11.107   6.987   1.359 -0.2232  0.3368  0.0267
 7396SOL    HW126745  11.025   6.964   1.317 -0.3096  0.2375  0.2446
 7396SOL    HW226746  11.133   6.907   1.406 -1.7052  1.2936  2.7318
 7397SOL     OW26747   9.289   7.863   6.451 -0.1762  0.0553  0.5211
 7397SOL    HW126748   9.381   7.888   6.460  0.2818 -1.7093  1.2774
 7397SOL    HW226749   9.256   7.916   6.379  2.3898 -1.6930 -2.1933
 7398SOL     OW26750   2.219  12.066   8.394  0.0712  0.8594  0.3319
 7398SOL    HW126751   2.157  12.133   8.423  0.4924  0.4760  2.2756
 7398SOL    HW226752   2.301  12.090   8.436  0.4919 -0.2972  0.2060
 7399SOL     OW26753   0.817   4.777   9.391  0.6645  0.0240  0.1117
 7399SOL    HW126754   0.785   4.771   9.481  0.5109  0.0121  0.0563
 7399SOL    HW226755   0.749   4.736   9.338  0.2225  1.0392 -0.1265
 7400SOL     OW26756   0.503   7.665  10.905  0.0773  0.0742 -0.0443
 7400SOL    HW126757   0.541   7.577  10.916  1.2715  0.2489 -2.2459
 7400SOL    HW226758   0.424   7.650  10.854  0.5955  0.3231 -0.9288
 7401SOL     OW26759  11.964  11.186   9.565 -0.3871 -0.2530  0.5837
 7401SOL    HW126760  12.024  11.246   9.609  0.9697 -0.2614 -1.1083
 7401SOL    HW226761  11.951  11.225   9.478 -1.7973 -0.9401  0.4647
 7402SOL     OW26762   0.692  10.591   0.127  0.0289  0.9996  0.7510
 7402SOL    HW126763   0.748  10.581   0.049 -0.8926 -0.4130  0.2243
 7402SOL    HW226764   0.723  10.523   0.187 -0.1226  1.2213  1.0813
 7403SOL     OW26765   6.540   5.388   2.251  0.4887 -0.3666  0.0134
 7403SOL    HW126766   6.617   5.433   2.284  1.4649 -1.8143 -0.2070
 7403SOL    HW226767   6.514   5.438   2.173  1.2174  0.0920  0.0594
 7404SOL     OW26768   4.029   8.875   3.906  0.4212  0.4820 -0.2838
 7404SOL    HW126769   4.114   8.849   3.940  0.8598  1.9928 -0.1607
 7404SOL    HW226770   4.048   8.921   3.825 -0.1383  1.9273  0.3575
 7405SOL     OW26771   9.246   8.310  11.764  0.0030 -0.2693  0.0301
 7405SOL    HW126772   9.237   8.291  11.857 -2.4786  2.3774  0.4638
 7405SOL    HW226773   9.161   8.288  11.726  0.8425 -0.9573 -1.5858
 7406SOL     OW26774  10.752   2.268   8.028 -0.0282 -0.5511  0.2058
 7406SOL    HW126775  10.759   2.337   8.093  1.2326 -1.3569  0.9714
 7406SOL    HW226776  10.696   2.202   8.068 -3.2227  0.9451 -1.4414
 7407SOL     OW26777  10.989   1.088   3.674 -0.9287  0.3890  0.2451
 7407SOL    HW126778  10.957   1.160   3.619 -0.4275  0.3549 -0.1000
 7407SOL    HW226779  11.073   1.121   3.709 -1.7041  0.8138  1.8007
 7408SOL     OW26780   0.643   9.227  11.959 -0.4610 -0.1413  0.4331
 7408SOL    HW126781   0.562   9.228  11.909 -1.3300  2.5877  1.6907
 7408SOL    HW226782   0.621   9.180  12.039 -0.1302 -1.2871 -0.1266
 7409SOL     OW26783   5.172   2.104   2.461  0.8713  0.6155  0.1300
 7409SOL    HW126784   5.189   2.071   2.549  0.7972 -0.8030 -0.3611
 7409SOL    HW226785   5.122   2.185   2.475 -2.2131 -1.3363  1.3885
 7410SOL     OW26786   4.276   7.668   9.053 -0.1397  0.1254 -0.5551
 7410SOL    HW126787   4.217   7.700   8.984 -1.9095  0.4117  1.0009
 7410SOL    HW226788   4.293   7.577   9.029 -0.5487  0.2762 -1.4880
 7411SOL     OW26789   5.752   6.857   6.105 -0.3903  0.1814 -0.4104
 7411SOL    HW126790   5.810   6.790   6.068 -2.0964 -1.7830  0.2394
 7411SOL    HW226791   5.715   6.815   6.184 -1.2191  2.0666  0.2513
 7412SOL     OW26792   2.227   8.734   6.479 -0.6317 -0.0925  0.4539
 7412SOL    HW126793   2.237   8.803   6.413 -0.5317  1.1324  1.7070
 7412SOL    HW226794   2.132   8.721   6.485 -0.6046 -0.8558 -0.5538
 7413SOL     OW26795   1.550   4.149   6.001 -0.1455 -0.2526 -0.4231
 7413SOL    HW126796   1.479   4.185   6.055  0.5208 -0.4455  0.5938
 7413SOL    HW226797   1.527   4.057   5.989  0.6163 -0.6488  1.0564
 7414SOL     OW26798   4.490   1.354  11.582 -0.4005 -0.2227 -0.0381
 7414SOL    HW126799   4.510   1.260  11.579 -0.1612 -0.1706 -0.1255
 7414SOL    HW226800   4.423   1.366  11.515 -0.5101 -0.3499  0.0485
 7415SOL     OW26801   8.243  10.118   2.152  0.4521 -0.2249  0.0885
 7415SOL    HW126802   8.331  10.085   2.169  0.5758  0.2945  0.4545
 7415SOL    HW226803   8.191  10.040   2.132  1.5225 -0.3737 -2.5565
 7416SOL     OW26804   6.597  11.129   2.112  0.1140 -0.2639 -0.3950
 7416SOL    HW126805   6.631  11.202   2.164 -0.2212  0.6820 -1.4575
 7416SOL    HW226806   6.502  11.134   2.123  0.0751 -0.3816 -0.6662
 7417SOL     OW26807   9.584   2.457   0.567  0.0075 -0.5036  0.0555
 7417SOL    HW126808   9.523   2.423   0.632  0.2943  1.2430  1.2873
 7417SOL    HW226809   9.660   2.398   0.572 -0.2924 -0.8362  0.7396
 7418SOL     OW26810   6.212  11.884   9.390 -0.1075  0.3689 -0.0989
 7418SOL    HW126811   6.258  11.961   9.356  0.1140  0.7560  1.0531
 7418SOL    HW226812   6.119  11.904   9.375 -0.0318  0.6936 -0.1579
 7419SOL     OW26813   1.843   7.615   6.360  0.1475  0.2791  0.2849
 7419SOL    HW126814   1.923   7.564   6.348  0.8240  1.7448 -2.3236
 7419SOL    HW226815   1.777   7.570   6.308  0.3345  1.0909 -0.7056
 7420SOL     OW26816   5.467   6.692   8.262  0.3406 -0.3215 -0.1703
 7420SOL    HW126817   5.537   6.724   8.319  0.7262 -1.0888 -0.2052
 7420SOL    HW226818   5.411   6.769   8.247  1.0169  0.2285  0.0858
 7421SOL     OW26819   9.101  11.204   5.604 -0.2012  0.0355  0.1075
 7421SOL    HW126820   9.048  11.272   5.562  0.0105 -0.7741 -1.5817
 7421SOL    HW226821   9.043  11.167   5.671 -1.5519 -0.3243 -1.1816
 7422SOL     OW26822   4.897   8.771  12.028 -0.2333 -0.0299 -0.2299
 7422SOL    HW126823   4.928   8.845  11.977  0.9690 -0.4767 -0.1765
 7422SOL    HW226824   4.977   8.727  12.058 -0.8925 -2.1465 -1.4025
 7423SOL     OW26825   5.883   2.842   2.452 -0.2381 -0.0514 -0.2821
 7423SOL    HW126826   5.933   2.805   2.380  0.9364  1.2085 -0.1514
 7423SOL    HW226827   5.935   2.916   2.483 -0.7920 -0.4382  1.7467
 7424SOL     OW26828   9.101   5.889   3.929  0.3648 -0.1993  0.2489
 7424SOL    HW126829   9.072   5.933   3.849  0.3400  0.3323  0.5466
 7424SOL    HW226830   9.030   5.828   3.949  0.2232 -0.1070  0.0392
 7425SOL     OW26831   2.769   8.404   6.542 -0.1031 -0.0838 -0.5586
 7425SOL    HW126832   2.800   8.317   6.520  0.0914 -0.4279  0.9689
 7425SOL    HW226833   2.849   8.457   6.547 -0.1099 -0.1060 -0.2445
 7426SOL     OW26834   9.766   7.433   9.871 -0.0784  0.2387 -0.7416
 7426SOL    HW126835   9.766   7.343   9.903  0.6808  0.1657 -0.9508
 7426SOL    HW226836   9.673   7.459   9.874 -0.2081 -0.2816  0.0494
 7427SOL     OW26837   3.226   1.365   7.123 -0.2436 -0.0268  0.0819
 7427SOL    HW126838   3.164   1.312   7.173  0.4751 -0.1923  0.8296
 7427SOL    HW226839   3.311   1.326   7.142 -0.0394 -0.7653 -2.1478
 7428SOL     OW26840   7.998   0.490   6.436  0.0070  0.4492 -0.0287
 7428SOL    HW126841   8.055   0.555   6.395 -1.5923  2.0993  0.2324
 7428SOL    HW226842   8.045   0.466   6.517  0.7839  1.0257 -0.2886
 7429SOL     OW26843   4.968  10.473  11.889  0.9564  0.4647  0.3408
 7429SOL    HW126844   4.925  10.469  11.975 -3.0311  1.2407 -1.4032
 7429SOL    HW226845   4.958  10.386  11.853  0.4042  0.7897 -0.2952
 7430SOL     OW26846  11.575   4.366   4.878  0.0063  0.4261 -0.3491
 7430SOL    HW126847  11.616   4.428   4.938 -1.2036  1.0773 -0.1718
 7430SOL    HW226848  11.596   4.280   4.914 -0.4140  0.8027  0.8274
 7431SOL     OW26849   5.498   0.055   3.030 -0.6347  0.6965 -0.1585
 7431SOL    HW126850   5.519  -0.039   3.034 -1.6885  0.4282 -0.4998
 7431SOL    HW226851   5.583   0.099   3.035 -0.0679 -0.2992 -0.6551
 7432SOL     OW26852   5.517   8.490  10.444 -0.1132 -0.4999 -0.6979
 7432SOL    HW126853   5.438   8.446  10.476  0.3015 -0.3955  0.5569
 7432SOL    HW226854   5.540   8.551  10.514  1.5099 -1.0936 -0.6712
 7433SOL     OW26855   4.611   7.464   4.854 -0.0896  0.4440  0.7237
 7433SOL    HW126856   4.604   7.484   4.947  2.4147  1.6621  0.7366
 7433SOL    HW226857   4.692   7.413   4.847  0.0910  0.8898 -0.8560
 7434SOL     OW26858   8.123   6.025  11.568 -0.3783  0.2132 -0.6043
 7434SOL    HW126859   8.063   5.995  11.636 -0.9036  0.0865 -1.1152
 7434SOL    HW226860   8.132   5.950  11.509 -0.9525  0.7394 -1.3755
 7435SOL     OW26861   8.463  11.639   7.468 -0.2088  0.1948  0.0781
 7435SOL    HW126862   8.494  11.572   7.407 -0.6157 -0.8352  0.9842
 7435SOL    HW226863   8.544  11.678   7.502  0.0634 -0.6548  0.4354
 7436SOL     OW26864   6.168  11.758   0.339 -0.1405 -0.0150  0.0617
 7436SOL    HW126865   6.143  11.686   0.282  0.3816  0.2376 -0.4960
 7436SOL    HW226866   6.145  11.837   0.291  2.6028  0.2646 -0.9624
 7437SOL     OW26867   2.799   0.944   1.450  0.2164 -0.1695 -0.0275
 7437SOL    HW126868   2.842   0.938   1.536  0.6402 -1.2004 -0.2950
 7437SOL    HW226869   2.707   0.960   1.470  0.4021  0.1234  0.6074
 7438SOL     OW26870  10.129   6.545   9.757 -0.0083 -0.3720  0.3908
 7438SOL    HW126871  10.056   6.604   9.776  0.2553 -0.6065  2.3266
 7438SOL    HW226872  10.207   6.592   9.789  0.6152 -0.4270 -0.9921
 7439SOL     OW26873   2.801   9.974   7.480  0.7175 -0.4531  0.3889
 7439SOL    HW126874   2.773  10.035   7.548  0.0255 -0.3732  0.0422
 7439SOL    HW226875   2.763  10.009   7.399  3.2368  0.6242 -0.4211
 7440SOL     OW26876   9.513   1.032   4.411  0.4118  0.0569 -0.7164
 7440SOL    HW126877   9.588   1.057   4.359 -0.3854 -0.0724 -1.9678
 7440SOL    HW226878   9.445   1.011   4.347 -0.6291 -0.0169  0.3729
 7441SOL     OW26879   2.052   4.004   3.074  0.1905  0.0358 -0.0697
 7441SOL    HW126880   2.109   4.049   3.138  0.0976 -0.7063  0.5451
 7441SOL    HW226881   1.989   4.071   3.049 -0.4618  0.0483  1.4627
 7442SOL     OW26882   6.120   5.574   0.814  0.2109  0.1017 -0.1003
 7442SOL    HW126883   6.044   5.590   0.758 -0.9841 -2.0837  0.7419
 7442SOL    HW226884   6.090   5.598   0.902  0.5256 -0.6217  0.2139
 7443SOL     OW26885   9.634   0.692   5.543 -0.0674 -0.0189  0.4444
 7443SOL    HW126886   9.549   0.733   5.553 -0.4107 -0.7099  0.3917
 7443SOL    HW226887   9.668   0.725   5.460  0.2403  1.1780  1.0253
 7444SOL     OW26888   5.194  11.291   3.657  0.0546  0.7851 -0.0947
 7444SOL    HW126889   5.197  11.262   3.748  0.9735  3.3773  0.8026
 7444SOL    HW226890   5.102  11.284   3.633  0.0477 -1.6351  0.3546
 7445SOL     OW26891   9.549   8.418   4.750 -0.4764 -0.2373 -0.3181
 7445SOL    HW126892   9.455   8.404   4.764 -0.6246  0.6151 -0.4049
 7445SOL    HW226893   9.590   8.338   4.783 -1.1025  0.0868  1.3559
 7446SOL     OW26894   4.370   0.453   9.095 -0.3235 -0.5167 -0.6633
 7446SOL    HW126895   4.376   0.529   9.038  1.1307 -0.0325  0.0620
 7446SOL    HW226896   4.277   0.441   9.111 -0.5554  1.4885 -0.3197
 7447SOL     OW26897   2.658   5.566   7.835 -0.1906  0.2339 -0.1858
 7447SOL    HW126898   2.576   5.567   7.884  0.6030 -0.0052  1.2105
 7447SOL    HW226899   2.710   5.636   7.875  0.3657  0.2496 -0.9191
 7448SOL     OW26900   5.849   4.599   0.219  0.3438  0.0239 -0.4284
 7448SOL    HW126901   5.850   4.507   0.191 -3.5229 -0.1787 -0.4096
 7448SOL    HW226902   5.818   4.596   0.309  0.2102  1.3625 -0.4179
 7449SOL     OW26903   1.933   3.053   7.380  0.4338 -0.5226  0.6410
 7449SOL    HW126904   1.991   3.078   7.452  0.1963 -1.9519  1.3662
 7449SOL    HW226905   1.992   3.026   7.310  0.6717  1.1391  0.1583
 7450SOL     OW26906   3.502   1.723  10.485 -0.0610 -0.6698  0.3017
 7450SOL    HW126907   3.566   1.659  10.518 -1.5845 -1.4286  1.8919
 7450SOL    HW226908   3.520   1.727  10.391  0.6490 -2.8185  0.2820
 7451SOL     OW26909   2.217   7.927   9.740  0.1453 -0.2014  0.1377
 7451SOL    HW126910   2.193   7.879   9.820  1.9458 -1.2910  0.0734
 7451SOL    HW226911   2.265   7.863   9.687 -2.6110 -0.1071 -2.7475
 7452SOL     OW26912  10.004   5.952   0.122  0.2282 -0.0733 -0.2683
 7452SOL    HW126913   9.918   5.930   0.084 -0.6445  2.3399  0.1229
 7452SOL    HW226914  10.057   5.978   0.046  0.7450 -1.8115 -0.5409
 7453SOL     OW26915  11.632   5.780   6.156 -0.3402 -0.0941 -0.1133
 7453SOL    HW126916  11.539   5.798   6.168 -0.0602  1.9857 -0.7433
 7453SOL    HW226917  11.666   5.769   6.245 -0.9332  0.4990  0.1919
 7454SOL     OW26918   4.172   8.055   8.153 -0.0836  0.0595 -0.8041
 7454SOL    HW126919   4.087   8.026   8.120 -0.1898 -1.9729  1.0489
 7454SOL    HW226920   4.163   8.149   8.164 -2.2219 -0.1510 -0.3372
 7455SOL     OW26921   3.137   1.988   7.283 -0.3210  0.3016  0.7843
 7455SOL    HW126922   3.204   2.010   7.348 -0.1761  0.9317  0.4390
 7455SOL    HW226923   3.132   2.066   7.228  1.4090 -1.1034 -1.5516
 7456SOL     OW26924   6.242   1.342  10.017  0.1348  0.3337 -0.2187
 7456SOL    HW126925   6.183   1.268  10.002 -0.2053  0.5054  0.2567
 7456SOL    HW226926   6.283   1.323  10.102  1.2212 -0.0872 -0.8166
 7457SOL     OW26927  10.287   3.071   9.420 -0.4885 -0.1150  0.2194
 7457SOL    HW126928  10.218   3.044   9.359  1.4453  1.9200 -3.1496
 7457SOL    HW226929  10.296   3.165   9.407  0.4296  0.3454  3.3743
 7458SOL     OW26930   4.963   4.084   0.233  0.2342  0.6140  0.0487
 7458SOL    HW126931   4.990   4.034   0.310  1.9899  1.2591 -0.0888
 7458SOL    HW226932   5.029   4.062   0.167 -1.1875  0.1493 -1.2474
 7459SOL     OW26933   4.583   8.133   9.131 -0.1130 -0.1793  0.0550
 7459SOL    HW126934   4.663   8.148   9.181 -0.5184  0.8841  0.4166
 7459SOL    HW226935   4.599   8.175   9.047 -0.8765  1.4893  0.7086
 7460SOL     OW26936   0.788   7.187   1.984 -0.0401 -0.5639 -0.3697
 7460SOL    HW126937   0.752   7.105   1.950 -1.8432 -0.1643  0.4747
 7460SOL    HW226938   0.863   7.159   2.038  0.7601 -1.4372 -1.8670
 7461SOL     OW26939   8.753   6.337  10.967 -0.2081 -0.0258  0.0428
 7461SOL    HW126940   8.719   6.268  10.910  0.0480 -1.0576  1.0972
 7461SOL    HW226941   8.774   6.409  10.907  1.3333 -1.5426 -1.3689
 7462SOL     OW26942  10.756   9.120  10.266  0.2055 -0.3251 -0.0142
 7462SOL    HW126943  10.716   9.179  10.331 -0.2480 -0.7867  0.1361
 7462SOL    HW226944  10.766   9.173  10.188 -0.1333 -0.0247  0.1435
 7463SOL     OW26945   0.182   6.073   9.269  0.3222 -0.0407  0.5045
 7463SOL    HW126946   0.240   6.060   9.194 -1.5526 -0.1041 -1.0248
 7463SOL    HW226947   0.218   6.149   9.314  0.9944  0.5933 -1.0106
 7464SOL     OW26948   4.008   3.427   9.879 -0.6381 -0.5813 -0.0577
 7464SOL    HW126949   3.920   3.465   9.872 -0.1162  0.9111  1.0130
 7464SOL    HW226950   4.002   3.368   9.955 -1.2285 -2.1301 -1.2373
 7465SOL     OW26951   2.430   1.903   5.684  0.6002  0.0066  0.3914
 7465SOL    HW126952   2.437   1.843   5.610  1.1419  0.2266  0.2581
 7465SOL    HW226953   2.339   1.895   5.714  0.0760  0.6952 -0.9593
 7466SOL     OW26954   9.352   3.801  11.108  0.0309  0.4535 -0.0629
 7466SOL    HW126955   9.423   3.762  11.058  0.7513  0.5405  0.8744
 7466SOL    HW226956   9.378   3.892  11.120 -1.1109  0.9798 -1.2742
 7467SOL     OW26957   4.263   0.397   0.437 -0.2540  0.0519  0.0181
 7467SOL    HW126958   4.353   0.365   0.430 -0.4260 -0.4447  0.0500
 7467SOL    HW226959   4.209   0.325   0.406 -0.6386  0.4020 -0.1471
 7468SOL     OW26960   7.237  10.322  10.460  0.2694 -0.1094  0.1400
 7468SOL    HW126961   7.261  10.402  10.414 -0.2220  0.1535  0.3378
 7468SOL    HW226962   7.299  10.256  10.428  0.9742  0.4557  0.3161
 7469SOL     OW26963  11.688   1.892   5.796  0.2118 -0.3941  0.3925
 7469SOL    HW126964  11.620   1.829   5.821 -0.2056 -0.3226 -0.5113
 7469SOL    HW226965  11.640   1.967   5.762  0.6942  0.5737  1.7370
 7470SOL     OW26966   3.221   0.961   2.947  0.3360  0.1267 -0.2956
 7470SOL    HW126967   3.271   1.003   2.877  0.3005  0.2175 -0.2661
 7470SOL    HW226968   3.281   0.895   2.983  1.2465  1.7043  1.1917
 7471SOL     OW26969   6.657   3.499   6.949  0.0031  0.1918 -0.3526
 7471SOL    HW126970   6.714   3.505   7.026 -0.4457  0.0722 -0.0008
 7471SOL    HW226971   6.716   3.483   6.876  0.3984 -0.1936  0.0452
 7472SOL     OW26972   4.776   3.168   3.095 -0.3438 -0.1901  0.3528
 7472SOL    HW126973   4.743   3.142   3.181 -0.5401  0.2670  0.4162
 7472SOL    HW226974   4.761   3.263   3.091  0.4841 -0.0563  0.1797
 7473SOL     OW26975   3.781  10.762   0.849 -0.1078 -0.0481  0.0388
 7473SOL    HW126976   3.812  10.744   0.938 -1.2645  0.7363  0.6207
 7473SOL    HW226977   3.727  10.687   0.826 -1.4745  0.6587  0.8179
 7474SOL     OW26978   7.652   6.466  10.323  0.4290 -0.0878  0.4116
 7474SOL    HW126979   7.691   6.527  10.385  0.6587 -0.6958  0.8797
 7474SOL    HW226980   7.569   6.507  10.298  1.0428  0.8982 -0.0821
 7475SOL     OW26981   0.710   8.661  11.599  0.0139  0.1877 -0.2164
 7475SOL    HW126982   0.708   8.621  11.512 -0.0535 -1.6959  0.5964
 7475SOL    HW226983   0.631   8.715  11.603 -1.6981 -2.1352 -0.2865
 7476SOL     OW26984   0.528  10.519   9.404  0.5032  0.6011  0.2052
 7476SOL    HW126985   0.487  10.575   9.339 -0.6942  1.5949  1.7406
 7476SOL    HW226986   0.621  10.541   9.400  0.6621 -0.2663 -1.9833
 7477SOL     OW26987   2.935  11.745   2.909  0.1811  0.1315  0.4400
 7477SOL    HW126988   2.918  11.797   2.830 -1.2935  0.3486  0.8789
 7477SOL    HW226989   2.946  11.810   2.979  1.2406 -0.0695  0.4776
 7478SOL     OW26990  12.121   0.572   2.498 -0.0166 -0.3758 -0.0800
 7478SOL    HW126991  12.032   0.575   2.464  0.0416 -3.5304 -0.9016
 7478SOL    HW226992  12.117   0.508   2.570  1.4131  0.1258  0.4877
 7479SOL     OW26993   2.065  11.647   9.193  0.2557 -0.0255 -0.6737
 7479SOL    HW126994   1.971  11.632   9.201 -0.5357  3.8278 -0.6694
 7479SOL    HW226995   2.095  11.659   9.283 -0.2949  3.0649 -0.7774
 7480SOL     OW26996   6.854   8.621  10.730 -0.3108  0.0859 -0.4460
 7480SOL    HW126997   6.787   8.630  10.662  0.5715  0.0775 -1.3336
 7480SOL    HW226998   6.878   8.528  10.729  0.2153  0.2215 -0.6174
 7481SOL     OW26999  11.513  10.631   7.273 -0.2574  0.1659  0.3306
 7481SOL    HW127000  11.605  10.618   7.249 -0.5176 -0.3484 -0.4027
 7481SOL    HW227001  11.491  10.717   7.237 -0.5949 -0.5232 -1.1632
 7482SOL     OW27002   4.467   8.033   7.177  0.1279  0.0966 -0.1203
 7482SOL    HW127003   4.542   8.030   7.118  0.9193 -1.3541  0.9044
 7482SOL    HW227004   4.417   8.109   7.148  1.4554  0.5015 -1.4695
 7483SOL     OW27005  10.318   8.676   9.299  0.6578 -0.6577 -0.2605
 7483SOL    HW127006  10.377   8.728   9.354 -1.1755  1.3728 -0.0691
 7483SOL    HW227007  10.231   8.713   9.316 -0.5160 -2.6781 -1.4931
 7484SOL     OW27008   6.394   6.223  11.164 -0.0334  0.3601  0.1000
 7484SOL    HW127009   6.451   6.147  11.176  1.5843  1.4406 -0.3813
 7484SOL    HW227010   6.392   6.265  11.250 -1.5244 -0.5891  0.5574
 7485SOL     OW27011  11.969  12.039  10.895  0.4429 -0.3435  0.7368
 7485SOL    HW127012  11.977  12.134  10.903  2.8202 -0.3182 -0.9179
 7485SOL    HW227013  11.910  12.026  10.821  0.0941 -0.1713  0.9818
 7486SOL     OW27014   0.439   9.035   5.975 -0.3943  0.0036 -0.6152
 7486SOL    HW127015   0.523   9.055   6.016 -2.7471  1.9101  3.9924
 7486SOL    HW227016   0.425   9.107   5.914  0.9149  0.1021 -0.8362
 7487SOL     OW27017   9.663   7.255   0.781 -0.6050 -0.3265  0.4094
 7487SOL    HW127018   9.687   7.347   0.793 -0.8658 -0.0449 -1.0734
 7487SOL    HW227019   9.667   7.241   0.687  0.7657 -2.2096  0.6905
 7488SOL     OW27020   8.570   5.126   2.856 -0.4167 -0.5835 -0.5761
 7488SOL    HW127021   8.632   5.073   2.806  1.2140  0.7782 -0.0820
 7488SOL    HW227022   8.599   5.216   2.844 -0.8887 -0.0720  1.5605
 7489SOL     OW27023   7.579  11.464   1.128  0.0026 -0.3506 -0.1452
 7489SOL    HW127024   7.563  11.498   1.040  0.0524 -0.2792 -0.1265
 7489SOL    HW227025   7.638  11.389   1.115  1.4279  0.7043 -0.0321
 7490SOL     OW27026   5.208   8.712  11.083  0.0258  0.1694  0.3905
 7490SOL    HW127027   5.220   8.801  11.048  1.3509  0.1567  0.7653
 7490SOL    HW227028   5.121   8.714  11.123  0.1449  1.3978  0.6399
 7491SOL     OW27029   8.110   7.226   0.820  0.5391 -0.0152 -0.4555
 7491SOL    HW127030   8.043   7.170   0.859 -1.1756 -0.0907 -3.2296
 7491SOL    HW227031   8.075   7.315   0.829  1.7411  0.3564  1.0591
 7492SOL     OW27032  11.200   1.306   6.918  0.0805 -0.0842  0.1312
 7492SOL    HW127033  11.236   1.219   6.900  1.6048  0.9660 -2.7042
 7492SOL    HW227034  11.197   1.348   6.832 -0.5826  2.6765  1.3979
 7493SOL     OW27035   8.450   0.336  10.914 -0.1985 -0.6808 -0.0033
 7493SOL    HW127036   8.420   0.410  10.967 -0.5694  0.2634 -1.4675
 7493SOL    HW227037   8.372   0.281  10.904  0.1954 -1.5786  1.4970
 7494SOL     OW27038   5.801   9.335   5.893  0.2172 -0.0490  0.1988
 7494SOL    HW127039   5.882   9.298   5.860  0.1790  0.4287 -0.4544
 7494SOL    HW227040   5.828   9.390   5.967  0.7441  1.5526 -1.1129
 7495SOL     OW27041  11.588   7.025   7.145  0.1012  0.2799 -0.4542
 7495SOL    HW127042  11.596   7.006   7.052 -0.6407  0.0564 -0.4815
 7495SOL    HW227043  11.518   7.090   7.150 -0.4954 -0.3782  0.0114
 7496SOL     OW27044   6.665  10.513   4.580 -0.1223 -0.3118 -0.1524
 7496SOL    HW127045   6.641  10.534   4.489  0.8959 -1.2663 -0.6693
 7496SOL    HW227046   6.583  10.483   4.619 -0.1726 -1.8904 -1.3767
 7497SOL     OW27047   0.080  10.268   8.742  0.0952 -0.6087 -0.9540
 7497SOL    HW127048   0.097  10.177   8.765 -0.9599 -1.1986 -2.3343
 7497SOL    HW227049  -0.014  10.270   8.723 -0.4982  1.3859  1.6944
 7498SOL     OW27050   8.679  10.449   1.715 -0.2665  0.1136  0.0959
 7498SOL    HW127051   8.768  10.469   1.684 -0.2966 -0.9095 -0.6910
 7498SOL    HW227052   8.645  10.534   1.744  1.0486  0.4762  0.6600
 7499SOL     OW27053   5.757  10.956   9.900 -0.1562  0.4734 -0.2631
 7499SOL    HW127054   5.786  11.036   9.855 -1.3156  0.0727 -1.8383
 7499SOL    HW227055   5.762  10.888   9.833 -0.7620 -0.4293  0.5798
 7500SOL     OW27056   2.986   0.819   7.282 -0.7462 -0.0813 -0.3452
 7500SOL    HW127057   3.005   0.890   7.220 -0.2377  0.0464 -0.0493
 7500SOL    HW227058   3.008   0.856   7.368 -2.2779  0.0508  0.0213
 7501SOL     OW27059   4.339   3.362  10.020  0.4393  0.5301  1.0564
 7501SOL    HW127060   4.369   3.428   9.958 -1.9947 -0.3206 -1.1616
 7501SOL    HW227061   4.395   3.286  10.003 -1.6394 -0.4968 -1.9081
 7502SOL     OW27062   0.817   7.421   9.133  0.5557 -0.1191  0.1654
 7502SOL    HW127063   0.726   7.451   9.119 -0.1678 -1.4014  1.8161
 7502SOL    HW227064   0.863   7.499   9.162 -0.0414  0.5287 -0.5756
 7503SOL     OW27065   2.317   8.835   1.330 -0.5837  0.0825  0.3683
 7503SOL    HW127066   2.398   8.869   1.293 -0.3261 -2.3707 -1.6106
 7503SOL    HW227067   2.269   8.912   1.360  1.9361  1.6951  0.5444
 7504SOL     OW27068  10.064   4.472   4.838  0.5954 -0.0685 -0.4108
 7504SOL    HW127069  10.148   4.476   4.794  1.3955 -1.2613  0.9126
 7504SOL    HW227070  10.013   4.409   4.787  0.5429  0.5402 -1.1244
 7505SOL     OW27071   2.028  11.852  10.922 -0.4416 -0.4133 -0.0925
 7505SOL    HW127072   2.032  11.860  10.827 -0.1372  0.1950 -0.0352
 7505SOL    HW227073   2.050  11.940  10.954 -0.2548 -0.6869  0.5418
 7506SOL     OW27074   8.367   4.186  11.061  0.1297 -0.4177 -0.5454
 7506SOL    HW127075   8.277   4.205  11.032 -0.1075 -0.2301  0.2548
 7506SOL    HW227076   8.381   4.249  11.133  1.2013  0.1032 -1.1976
 7507SOL     OW27077   8.949   5.155   2.985  0.4717  0.2163 -0.5134
 7507SOL    HW127078   8.885   5.084   2.992  2.3992 -1.5368  0.4796
 7507SOL    HW227079   8.906   5.230   3.026 -1.2802 -0.6114 -0.7372
 7508SOL     OW27080   3.996  10.085   6.950 -0.0800 -0.2105 -0.1274
 7508SOL    HW127081   4.081  10.060   6.914 -0.4869 -1.7277 -0.1059
 7508SOL    HW227082   3.938  10.092   6.874 -0.4599 -1.4323  0.0314
 7509SOL     OW27083   8.893   9.950   2.254 -0.1351  0.0698  0.2864
 7509SOL    HW127084   8.830  10.018   2.276 -1.8883 -0.7059 -1.8744
 7509SOL    HW227085   8.950   9.990   2.188 -3.5228 -1.3194 -3.9824
 7510SOL     OW27086   9.446   9.279   9.934 -0.0987  0.0383  0.3157
 7510SOL    HW127087   9.421   9.353   9.878 -2.8053 -0.0476  1.2679
 7510SOL    HW227088   9.511   9.232   9.883 -0.1813  1.6676 -1.4229
 7511SOL     OW27089  11.626   9.699   0.722 -0.2958 -0.0482  0.3315
 7511SOL    HW127090  11.690   9.658   0.780 -2.2609 -1.8572  1.3473
 7511SOL    HW227091  11.678   9.729   0.647  1.7070 -1.7250  0.9461
 7512SOL     OW27092   2.258  10.933   4.036 -0.2155 -0.4256 -0.0424
 7512SOL    HW127093   2.272  10.842   4.062 -1.6172 -0.9621 -1.0692
 7512SOL    HW227094   2.278  10.935   3.943  1.1622  0.6639  0.2453
 7513SOL     OW27095   2.039   0.117   6.532 -0.4644 -0.5225  0.2160
 7513SOL    HW127096   2.116   0.111   6.476 -1.4035 -0.0501 -1.1832
 7513SOL    HW227097   1.990   0.036   6.515 -0.7137 -0.4206  0.4293
 7514SOL     OW27098   2.181  10.456   5.209 -0.1825 -0.1209  0.1483
 7514SOL    HW127099   2.208  10.365   5.199  0.3609  0.2544 -2.5847
 7514SOL    HW227100   2.261  10.507   5.193 -0.6607  0.8754  0.7891
 7515SOL     OW27101  11.159   0.049   8.279 -0.9031  0.3047  0.4287
 7515SOL    HW127102  11.233  -0.006   8.250 -1.7721 -0.8520  0.3245
 7515SOL    HW227103  11.199   0.133   8.302  0.4432 -0.2910  0.3583
 7516SOL     OW27104   9.983   9.131  10.118  0.0397  0.1968 -0.0967
 7516SOL    HW127105  10.039   9.137  10.195 -0.4063 -0.1313  0.2602
 7516SOL    HW227106  10.001   9.211  10.068 -0.4895  0.9727  0.9188
 7517SOL     OW27107   1.002   4.835  10.586  0.9892 -0.1776 -0.5065
 7517SOL    HW127108   1.000   4.741  10.602 -2.7407 -0.2721 -0.7572
 7517SOL    HW227109   1.045   4.844  10.501  2.4567 -1.4628  0.0355
 7518SOL     OW27110   1.577  10.565   9.537 -0.3019  0.0920  0.3786
 7518SOL    HW127111   1.556  10.500   9.605  0.0904  0.5956  0.9897
 7518SOL    HW227112   1.506  10.556   9.473 -0.8968 -0.1131  1.0515
 7519SOL     OW27113   0.257   7.517   1.956  0.2272 -0.1764  0.0701
 7519SOL    HW127114   0.322   7.572   1.913 -1.0141  0.0085 -1.6855
 7519SOL    HW227115   0.269   7.430   1.917 -0.1632 -0.2840  0.1865
 7520SOL     OW27116   1.667   9.925  12.107 -0.1001  0.0865  0.1926
 7520SOL    HW127117   1.729   9.894  12.172 -1.6127 -0.0307  1.6199
 7520SOL    HW227118   1.624  10.000  12.148 -2.6621 -1.3332  0.2759
 7521SOL     OW27119  10.835   6.157   1.907  0.0230 -0.6490 -0.2748
 7521SOL    HW127120  10.886   6.169   1.827  0.2891  0.3661  0.0310
 7521SOL    HW227121  10.860   6.230   1.963 -2.7282  0.6936 -0.6138
 7522SOL     OW27122  11.460  10.906   7.255  0.1854  0.2174 -0.2882
 7522SOL    HW127123  11.516  10.905   7.178 -0.8596  0.0666 -1.0705
 7522SOL    HW227124  11.380  10.950   7.226 -0.7315 -0.9833  0.3154
 7523SOL     OW27125   3.424   0.059   3.775  0.6860 -0.1015  0.1364
 7523SOL    HW127126   3.466  -0.026   3.789  1.1372  0.0678 -0.1579
 7523SOL    HW227127   3.485   0.122   3.812 -0.2740  0.0100  1.5968
 7524SOL     OW27128   9.704   1.998   7.436 -0.0029 -0.2083  0.1108
 7524SOL    HW127129   9.612   1.978   7.456 -0.0551  0.9782  1.1714
 7524SOL    HW227130   9.737   2.040   7.515  1.7380 -1.4133  0.0815
 7525SOL     OW27131   6.627   5.671   0.395 -0.0591 -0.5008  0.2164
 7525SOL    HW127132   6.552   5.627   0.435 -0.9125 -0.4340 -1.2717
 7525SOL    HW227133   6.703   5.635   0.442 -0.9460 -1.1324  1.2208
 7526SOL     OW27134   0.985   6.524  12.071  0.4528 -0.5773 -0.6198
 7526SOL    HW127135   0.905   6.530  12.019 -0.0855 -1.1304  0.1313
 7526SOL    HW227136   0.987   6.605  12.121 -0.4275 -1.2002  0.4580
 7527SOL     OW27137   3.246  11.832   2.280 -1.2771 -0.0563 -0.3475
 7527SOL    HW127138   3.311  11.785   2.333 -0.7771 -1.2243 -1.9375
 7527SOL    HW227139   3.298  11.882   2.217 -1.8177 -2.7026 -3.0960
 7528SOL     OW27140   1.176   8.226   5.861 -0.0668  0.0230  0.5508
 7528SOL    HW127141   1.153   8.291   5.794 -0.0312  1.9742  2.3270
 7528SOL    HW227142   1.199   8.148   5.811 -0.5017  1.2202 -1.6869
 7529SOL     OW27143   9.272   5.675   8.851 -0.4073  0.1842 -0.3351
 7529SOL    HW127144   9.301   5.707   8.765 -0.6250  0.0815 -0.4473
 7529SOL    HW227145   9.209   5.741   8.881 -0.2695  0.2633 -0.2156
 7530SOL     OW27146   5.511   2.880   5.401 -0.6337  0.1303  0.4073
 7530SOL    HW127147   5.467   2.916   5.478 -0.8295  0.7479  0.0136
 7530SOL    HW227148   5.586   2.938   5.388 -1.5998  1.1535 -0.9347
 7531SOL     OW27149   0.424   6.590   1.994  0.0202  0.1837 -0.1638
 7531SOL    HW127150   0.463   6.504   2.008  0.9379  0.9171  2.3174
 7531SOL    HW227151   0.361   6.601   2.065 -3.0348  0.0781 -2.6541
 7532SOL     OW27152   2.101   9.782   9.908  0.7546  0.6085  0.7300
 7532SOL    HW127153   2.129   9.690   9.908 -2.9994 -0.7433 -0.1130
 7532SOL    HW227154   2.123   9.813   9.996 -0.0566 -1.9663  1.9638
 7533SOL     OW27155  10.710   7.089   8.096  0.2816  0.3104 -0.2071
 7533SOL    HW127156  10.770   7.019   8.071 -0.0454 -0.0508 -0.0096
 7533SOL    HW227157  10.753   7.170   8.069 -0.7483 -0.0763 -3.5388
 7534SOL     OW27158   7.322  10.373   3.965 -0.7109 -0.0199  0.0684
 7534SOL    HW127159   7.341  10.287   4.004  0.6209 -0.8045 -2.0947
 7534SOL    HW227160   7.321  10.434   4.038  0.4663 -1.5654  1.4371
 7535SOL     OW27161   8.249  10.062   5.491 -0.3827  0.1468 -0.6568
 7535SOL    HW127162   8.293  10.039   5.573 -0.2325  3.3841  0.3381
 7535SOL    HW227163   8.187   9.991   5.476  1.4298 -1.8635  0.8025
 7536SOL     OW27164   8.647  11.022   1.045  0.2059 -0.0856  0.7977
 7536SOL    HW127165   8.576  11.065   0.997  0.5065 -0.1574  0.2824
 7536SOL    HW227166   8.652  11.069   1.128  0.1477  0.5023  0.4744
 7537SOL     OW27167   3.264   9.574  12.097  0.2240 -0.4736  0.0613
 7537SOL    HW127168   3.230   9.645  12.043 -0.3456 -0.2631  0.6882
 7537SOL    HW227169   3.358   9.575  12.081  0.1054 -0.2152 -0.6822
 7538SOL     OW27170  11.525  11.291   9.179  0.1814 -0.0609 -0.1747
 7538SOL    HW127171  11.467  11.353   9.222 -0.8831  0.3415 -2.0855
 7538SOL    HW227172  11.537  11.326   9.091  0.6767 -1.8498 -0.8585
 7539SOL     OW27173   5.399   5.663   3.489 -0.2244 -0.0382  0.7535
 7539SOL    HW127174   5.341   5.663   3.565  0.8974  1.0576  1.6482
 7539SOL    HW227175   5.341   5.678   3.414 -1.1337  0.7554  1.5966
 7540SOL     OW27176  10.197   5.617   3.961 -0.4625 -0.4578  0.2807
 7540SOL    HW127177  10.114   5.657   3.934 -0.0363  0.1157 -0.2362
 7540SOL    HW227178  10.175   5.526   3.978 -0.8135 -0.8456 -1.9422
 7541SOL     OW27179   0.982   5.196   7.847 -0.5935  0.4335 -0.3909
 7541SOL    HW127180   1.074   5.196   7.818 -0.3592 -0.4942  0.3188
 7541SOL    HW227181   0.978   5.129   7.915 -1.6917  0.8276 -0.0469
 7542SOL     OW27182   3.836   1.245   0.174 -0.1472  0.2018  0.6696
 7542SOL    HW127183   3.799   1.329   0.147  0.6826 -0.1336 -1.7591
 7542SOL    HW227184   3.911   1.268   0.229  0.8540  1.1468 -1.0158
 7543SOL     OW27185  10.526   1.481   7.941  0.5322  0.0111  0.0924
 7543SOL    HW127186  10.612   1.502   7.979  0.9372  1.5001 -1.5175
 7543SOL    HW227187  10.474   1.560   7.954 -0.7338 -0.9668  1.2865
 7544SOL     OW27188   7.856   1.332   0.978  0.2271  0.0165  0.1908
 7544SOL    HW127189   7.793   1.285   0.923  1.2898 -1.1360 -0.0694
 7544SOL    HW227190   7.806   1.357   1.056 -0.3556 -1.5969  0.3628
 7545SOL     OW27191   3.937   6.198   3.013 -0.5724 -0.5265 -0.3654
 7545SOL    HW127192   3.929   6.128   3.077  1.5437 -0.8195 -0.3201
 7545SOL    HW227193   4.007   6.254   3.047 -1.4293  0.9862 -0.9683
 7546SOL     OW27194   2.976   9.281   9.442 -0.3222  0.4980 -0.5955
 7546SOL    HW127195   2.960   9.354   9.501  1.1394  0.4924 -0.1470
 7546SOL    HW227196   3.018   9.320   9.365  0.0109  0.2138 -0.5660
 7547SOL     OW27197  10.364   1.571  10.981  0.0862  0.7399 -0.3603
 7547SOL    HW127198  10.377   1.617  10.897  0.6783  1.6241  0.2025
 7547SOL    HW227199  10.291   1.511  10.964  1.1204 -0.1434 -1.9215
 7548SOL     OW27200  10.573   0.507  10.770  0.3806  0.1204  0.0413
 7548SOL    HW127201  10.549   0.416  10.755  0.4875  0.0862  0.0741
 7548SOL    HW227202  10.661   0.516  10.733 -0.5010  0.7941 -1.9895
 7549SOL     OW27203   5.783   9.027   8.894  0.0116 -0.0925  0.0081
 7549SOL    HW127204   5.786   8.932   8.903 -1.6555 -0.4024 -1.8733
 7549SOL    HW227205   5.850   9.047   8.829  0.7209  0.1126  0.7842
 7550SOL     OW27206   9.126  10.205  11.011 -0.7194  0.2569  0.3781
 7550SOL    HW127207   9.214  10.242  11.000 -0.2357 -1.1252 -0.6469
 7550SOL    HW227208   9.090  10.203  10.922 -0.3646 -2.5505  0.2221
 7551SOL     OW27209  11.604  10.942   5.615  0.1175 -0.0524 -0.4399
 7551SOL    HW127210  11.557  10.899   5.544 -0.3645  0.8380 -0.6759
 7551SOL    HW227211  11.541  10.948   5.687 -0.5455  2.0801 -1.1076
 7552SOL     OW27212   6.232  11.974  11.467 -0.6674 -0.0189 -0.5322
 7552SOL    HW127213   6.316  12.013  11.444  0.2442 -1.1666  0.6698
 7552SOL    HW227214   6.233  11.970  11.563 -2.8182  1.4494 -0.3944
 7553SOL     OW27215  10.248   3.140   9.091 -0.2032  0.4852 -0.1762
 7553SOL    HW127216  10.312   3.074   9.120 -1.6668 -0.9316  0.0177
 7553SOL    HW227217  10.218   3.108   9.006 -3.0066 -0.7884  1.1385
 7554SOL     OW27218   5.030   0.722   1.163  0.2343  0.3488  0.1236
 7554SOL    HW127219   5.088   0.766   1.102 -0.8776  0.1651 -1.1111
 7554SOL    HW227220   4.980   0.660   1.109 -0.5790 -0.0279  1.2618
 7555SOL     OW27221   8.060   1.555   0.610 -0.4233 -0.1122 -1.0434
 7555SOL    HW127222   7.967   1.571   0.594 -0.7515 -2.3721 -1.7566
 7555SOL    HW227223   8.063   1.479   0.668  0.9735  0.1734 -0.6933
 7556SOL     OW27224   4.312   9.499   4.544 -0.0607 -0.1467 -0.7147
 7556SOL    HW127225   4.382   9.441   4.574  0.2277 -0.2996 -1.6665
 7556SOL    HW227226   4.231   9.454   4.569  0.1356  0.5428  1.3813
 7557SOL     OW27227  11.083   5.617   1.470  0.2347 -0.1926 -0.6032
 7557SOL    HW127228  11.014   5.675   1.500  1.1142  0.5755 -0.0154
 7557SOL    HW227229  11.047   5.576   1.391 -0.5517  0.8500 -0.8092
 7558SOL     OW27230   7.425   8.944   3.869  0.7629 -0.4199  0.1973
 7558SOL    HW127231   7.368   8.985   3.805  0.9770  3.0541  2.0239
 7558SOL    HW227232   7.377   8.866   3.897 -1.5225  0.5626 -0.7425
 7559SOL     OW27233  11.437   1.641   7.034 -0.5729 -0.7799 -0.1940
 7559SOL    HW127234  11.346   1.624   7.056 -0.2908 -2.3745 -0.1474
 7559SOL    HW227235  11.442   1.627   6.939 -0.5961  0.4364 -0.3921
 7560SOL     OW27236   3.566   0.241   3.963 -0.2593 -0.1202 -0.3404
 7560SOL    HW127237   3.613   0.312   3.918  0.5812 -0.3022  0.2285
 7560SOL    HW227238   3.503   0.286   4.019  1.8936  0.3640  1.8909
 7561SOL     OW27239   2.981   0.071   0.034 -0.0987  0.6628 -0.1164
 7561SOL    HW127240   3.033  -0.009   0.034 -1.5873 -0.4234  2.3593
 7561SOL    HW227241   3.028   0.130  -0.024  2.3463 -1.1700 -0.1642
 7562SOL     OW27242   1.907   6.226   5.224 -0.4751  0.1576 -0.1742
 7562SOL    HW127243   1.912   6.314   5.259 -0.4747  0.9140 -1.9633
 7562SOL    HW227244   1.935   6.169   5.296 -0.0017  1.6410  0.8476
 7563SOL     OW27245  10.661  10.227  10.737 -0.2377 -0.7238  0.3235
 7563SOL    HW127246  10.642  10.310  10.779  0.4675  0.0662 -0.8320
 7563SOL    HW227247  10.749  10.204  10.768 -0.7311 -1.4270  1.2195
 7564SOL     OW27248   7.736   1.918   2.671 -0.1418  0.4516  0.5087
 7564SOL    HW127249   7.787   1.841   2.697  0.3889  0.5503 -0.2090
 7564SOL    HW227250   7.778   1.991   2.716 -0.2353  0.4155  0.6575
 7565SOL     OW27251  10.838   3.384  10.596 -0.2170  0.2367  0.3847
 7565SOL    HW127252  10.790   3.395  10.678  1.3885  0.1245  1.3699
 7565SOL    HW227253  10.900   3.457  10.595  0.8490 -0.6487  0.0477
 7566SOL     OW27254   6.786   5.565   0.613  0.0028  0.8818  0.5893
 7566SOL    HW127255   6.865   5.526   0.577 -1.0990  0.6340 -1.7736
 7566SOL    HW227256   6.740   5.493   0.656  0.9897  1.0247  1.9594
 7567SOL     OW27257   1.083   1.720   1.632 -0.0697 -0.1236  0.0308
 7567SOL    HW127258   1.001   1.754   1.596 -1.2226 -0.0641  2.5225
 7567SOL    HW227259   1.151   1.774   1.591 -1.4368  1.3280 -0.4150
 7568SOL     OW27260   8.627   0.118   4.707  0.2235  0.2072  1.0185
 7568SOL    HW127261   8.577   0.039   4.686  1.6891 -0.3807 -0.5414
 7568SOL    HW227262   8.598   0.142   4.795 -1.8775 -0.7700  0.6723
 7569SOL     OW27263   9.254   2.855   3.090  0.7751  0.4803 -0.0140
 7569SOL    HW127264   9.247   2.865   3.185  0.3843  2.0932 -0.1856
 7569SOL    HW227265   9.260   2.760   3.077 -1.3243  0.0518  1.4850
 7570SOL     OW27266   5.853  10.650   7.821 -0.1712  0.4293 -0.5453
 7570SOL    HW127267   5.794  10.629   7.749  0.6742  0.4332 -1.2559
 7570SOL    HW227268   5.934  10.678   7.778  0.2353  0.7513  0.4071
 7571SOL     OW27269   5.904   1.246   8.441 -0.2167  0.8504  0.8369
 7571SOL    HW127270   5.882   1.300   8.517 -1.7238  0.7498  0.4994
 7571SOL    HW227271   5.824   1.243   8.390  1.0100  1.7072 -1.2676
 7572SOL     OW27272  11.556   4.393   7.889 -0.4422  0.0956  0.5399
 7572SOL    HW127273  11.484   4.351   7.842  0.4252 -1.6224  0.6520
 7572SOL    HW227274  11.625   4.404   7.824  0.6126 -1.9214  1.1934
 7573SOL     OW27275   1.098  10.137   3.322  0.3483  0.2081  0.0952
 7573SOL    HW127276   1.075  10.044   3.324  0.2449  0.2420  0.7114
 7573SOL    HW227277   1.017  10.182   3.347  0.6150  0.4140  0.6094
 7574SOL     OW27278   5.322   8.702   5.986  0.1226  0.1340 -0.2322
 7574SOL    HW127279   5.336   8.795   6.003  0.9001  0.0075 -0.1101
 7574SOL    HW227280   5.391   8.659   6.036 -2.6365 -0.7975  3.1508
 7575SOL     OW27281   6.203   2.854   2.018 -0.1951 -0.1848  0.1254
 7575SOL    HW127282   6.218   2.913   1.945 -0.2400 -1.8516 -1.2860
 7575SOL    HW227283   6.270   2.787   2.009 -1.2888 -1.3739  0.5592
 7576SOL     OW27284   9.922   6.356   0.832  0.2785 -0.4080  0.3404
 7576SOL    HW127285   9.884   6.413   0.765  0.4273  1.2469  1.5948
 7576SOL    HW227286  10.016   6.359   0.816  0.5289  1.6951  1.8086
 7577SOL     OW27287   1.797   0.221   8.079 -0.3519  0.1475 -0.1471
 7577SOL    HW127288   1.855   0.277   8.131  0.0250  1.1315 -1.5577
 7577SOL    HW227289   1.834   0.134   8.087 -0.9102  0.0681  2.0451
 7578SOL     OW27290  10.700   3.275  11.513  0.1297  0.1062  1.1056
 7578SOL    HW127291  10.744   3.360  11.521 -0.7268  0.7850 -0.8044
 7578SOL    HW227292  10.740   3.235  11.435 -1.2436 -0.1056  0.4858
 7579SOL     OW27293   8.448   6.420   8.620  0.2513 -0.4311  0.5884
 7579SOL    HW127294   8.474   6.377   8.702  1.7484 -2.1636 -0.6972
 7579SOL    HW227295   8.354   6.434   8.629  0.1110 -1.9370  2.0190
 7580SOL     OW27296   2.028   0.459   0.271 -0.3684 -0.0831 -0.1385
 7580SOL    HW127297   2.114   0.502   0.279 -0.0244 -0.6676 -0.6043
 7580SOL    HW227298   2.040   0.375   0.316 -0.6204 -0.2663 -0.4122
 7581SOL     OW27299   3.189   7.156  10.934  0.1011  0.3491 -0.1037
 7581SOL    HW127300   3.232   7.234  10.898  0.1651 -0.0154 -0.8247
 7581SOL    HW227301   3.100   7.160  10.899  0.4434 -0.5199 -1.0985
 7582SOL     OW27302   3.313   1.276   3.953 -0.1399  0.3303  0.3663
 7582SOL    HW127303   3.309   1.301   4.046  0.0030  4.7466 -0.6016
 7582SOL    HW227304   3.221   1.267   3.927 -0.1674 -1.6247  1.0231
 7583SOL     OW27305   4.180   7.711   7.867  0.3938 -0.1070 -0.6546
 7583SOL    HW127306   4.117   7.705   7.939  0.4322  0.2066 -0.5961
 7583SOL    HW227307   4.161   7.634   7.813  0.7079 -0.6376 -0.0330
 7584SOL     OW27308   6.001  11.074   1.834 -0.4332  0.0294  0.4103
 7584SOL    HW127309   5.963  11.128   1.904  0.5788  1.5073 -0.1226
 7584SOL    HW227310   6.022  10.991   1.876 -1.4842  0.2458  1.4132
 7585SOL     OW27311  11.738   3.742   3.999 -0.4608 -0.4439  0.0076
 7585SOL    HW127312  11.679   3.668   3.986  0.9365 -1.2787 -2.1190
 7585SOL    HW227313  11.680   3.819   4.003 -1.7813 -1.4030 -0.1355
 7586SOL     OW27314   7.451  10.644   1.187  0.6053  0.4583 -0.2194
 7586SOL    HW127315   7.408  10.568   1.149  1.1338 -0.2486  0.5497
 7586SOL    HW227316   7.410  10.655   1.273  0.7338  0.8500 -0.2070
 7587SOL     OW27317   0.769   2.251   0.351 -0.9092  0.0462 -0.6384
 7587SOL    HW127318   0.781   2.329   0.404  0.6960 -1.0249  0.6827
 7587SOL    HW227319   0.752   2.181   0.414  0.0268 -1.0914 -1.5858
 7588SOL     OW27320  11.346   6.718  11.480  0.3638 -0.0078 -0.0577
 7588SOL    HW127321  11.262   6.680  11.454  0.2274 -0.6695  1.2651
 7588SOL    HW227322  11.336   6.812  11.461 -0.7056 -0.0646  0.1360
 7589SOL     OW27323   0.764   2.750   3.505 -0.2291 -0.2141 -0.0226
 7589SOL    HW127324   0.746   2.690   3.577  1.0466 -1.8939 -1.0113
 7589SOL    HW227325   0.689   2.741   3.447 -0.6547  0.1727  0.4554
 7590SOL     OW27326   7.064   9.011  11.376  0.2065  0.5269  0.2368
 7590SOL    HW127327   7.012   9.053  11.307 -0.2565 -0.6140 -0.1163
 7590SOL    HW227328   7.063   9.075  11.448 -0.0753  1.3329 -0.4631
 7591SOL     OW27329   1.687   8.104   8.144  0.3727 -0.0445  0.4123
 7591SOL    HW127330   1.733   8.036   8.194  1.3427 -0.4137 -0.9444
 7591SOL    HW227331   1.716   8.186   8.184  1.8922 -0.2900 -0.1012
 7592SOL     OW27332   3.306   1.857   7.036  0.9343 -0.2960  0.3796
 7592SOL    HW127333   3.263   1.803   7.103 -1.1094  1.7009  0.8029
 7592SOL    HW227334   3.356   1.922   7.086 -1.6103  2.0128  0.1901
 7593SOL     OW27335   7.881   7.704   8.583 -0.1990  0.6688  0.0889
 7593SOL    HW127336   7.897   7.793   8.616 -0.8487  1.4069 -1.4409
 7593SOL    HW227337   7.791   7.708   8.549 -0.4794 -0.7877  0.6371
 7594SOL     OW27338  10.637   1.952   7.557  0.2210  0.2761  1.0367
 7594SOL    HW127339  10.564   1.975   7.614 -0.6623  1.5194 -0.5159
 7594SOL    HW227340  10.612   1.987   7.471  1.5093 -1.4755 -0.1168
 7595SOL     OW27341   7.091   2.564  11.917 -0.3289 -0.3997  0.1697
 7595SOL    HW127342   7.015   2.511  11.943 -0.0454 -1.4698 -1.0794
 7595SOL    HW227343   7.055   2.652  11.904 -0.9795 -0.4547  1.4357
 7596SOL     OW27344   1.648  10.859   1.086  0.4380 -0.6008  0.4077
 7596SOL    HW127345   1.724  10.892   1.039 -0.2304 -0.0276 -0.3108
 7596SOL    HW227346   1.613  10.790   1.029  0.1582 -0.5452  0.5121
 7597SOL     OW27347   3.817   0.459  10.516  0.2453  0.0440 -0.0943
 7597SOL    HW127348   3.900   0.454  10.563  0.9672  0.2398 -1.2918
 7597SOL    HW227349   3.821   0.542  10.469 -0.4179 -0.1694 -0.5392
 7598SOL     OW27350  11.436   7.555   5.093  0.3343 -0.5470  0.0897
 7598SOL    HW127351  11.435   7.481   5.154 -0.1681  0.3817  1.2309
 7598SOL    HW227352  11.348   7.592   5.098 -0.1095 -1.1402 -2.1015
 7599SOL     OW27353  10.333   1.417   6.253  0.1400  0.6362  0.4582
 7599SOL    HW127354  10.411   1.418   6.308  0.5156 -0.3550 -0.0348
 7599SOL    HW227355  10.320   1.325   6.230 -0.2177  0.9736 -0.7928
 7600SOL     OW27356  10.111   4.066   0.229 -0.0495  0.3172 -0.2884
 7600SOL    HW127357  10.027   4.023   0.247  0.4611 -0.4693  0.2639
 7600SOL    HW227358  10.175   4.016   0.279  1.0256 -0.2320 -2.0958
 7601SOL     OW27359   2.033   8.179   7.517 -0.0677 -0.5810  0.7887
 7601SOL    HW127360   2.021   8.122   7.594  0.9320 -0.4015  1.0955
 7601SOL    HW227361   2.128   8.190   7.511 -0.1465 -0.4698 -0.3966
 7602SOL     OW27362   8.929   7.444  11.511 -0.0716 -0.2459 -0.1082
 7602SOL    HW127363   9.008   7.490  11.484  0.4102 -0.6550  0.5586
 7602SOL    HW227364   8.933   7.443  11.607 -0.6257 -0.7112 -0.0791
 7603SOL     OW27365   4.537   5.118   6.173  0.3505 -0.0898 -0.2910
 7603SOL    HW127366   4.452   5.159   6.190  0.8279  1.4425 -1.3196
 7603SOL    HW227367   4.557   5.142   6.083  1.0733 -1.9685 -0.6711
 7604SOL     OW27368   5.550   2.438  11.744 -0.4087  0.1064  0.1261
 7604SOL    HW127369   5.544   2.519  11.693  0.4744  0.7673  1.0355
 7604SOL    HW227370   5.634   2.400  11.719  0.1934  0.6149  1.3161
 7605SOL     OW27371   2.542   1.285  11.519  0.3742  0.4355 -0.0768
 7605SOL    HW127372   2.453   1.303  11.489  0.4007  0.5650 -0.0793
 7605SOL    HW227373   2.581   1.372  11.530  0.3775  0.3917  0.2941
 7606SOL     OW27374   5.001  11.823   0.833 -0.0541 -0.3713  0.9638
 7606SOL    HW127375   4.908  11.806   0.818 -0.2386 -0.3349  2.0404
 7606SOL    HW227376   5.025  11.883   0.762 -1.2909  1.0339  1.6816
 7607SOL     OW27377   7.686   8.345   3.226  0.3105  0.1917  0.0854
 7607SOL    HW127378   7.731   8.274   3.272  0.9037 -0.3948 -1.3383
 7607SOL    HW227379   7.603   8.306   3.197  0.9616 -0.2069 -1.3559
 7608SOL     OW27380   6.992   2.851   0.391  0.0671 -0.1234  0.7694
 7608SOL    HW127381   6.978   2.762   0.358  1.0147  1.0642 -3.4998
 7608SOL    HW227382   6.950   2.907   0.326  1.5230  2.6104  2.0407
 7609SOL     OW27383  10.331   5.918   2.544 -0.4932  0.7823  0.2934
 7609SOL    HW127384  10.353   5.979   2.474 -0.5057  1.3747  0.7954
 7609SOL    HW227385  10.303   5.838   2.499 -0.0889  1.0050 -0.3685
 7610SOL     OW27386   4.242   2.732   6.182  0.0111  0.0204  0.1740
 7610SOL    HW127387   4.269   2.642   6.167  2.6768  0.7221  0.3000
 7610SOL    HW227388   4.242   2.742   6.277 -1.2181 -0.0792  0.1986
 7611SOL     OW27389  11.888   6.082   4.879 -0.4435  0.1661  0.0390
 7611SOL    HW127390  11.829   6.106   4.951  0.0010  0.5593  0.2809
 7611SOL    HW227391  11.904   5.988   4.890  0.1739  0.3569  0.8762
 7612SOL     OW27392   5.922   2.849  11.714 -0.1912 -0.6279  0.2814
 7612SOL    HW127393   5.987   2.780  11.705  1.2250  0.5091  1.3823
 7612SOL    HW227394   5.871   2.824  11.792  0.2295 -0.5072  0.5968
 7613SOL     OW27395   6.923   6.228   7.872  0.6146 -0.0090  0.2648
 7613SOL    HW127396   6.915   6.195   7.962 -0.7388  2.1811  1.0142
 7613SOL    HW227397   6.833   6.236   7.841  1.0440 -0.0124 -1.0322
 7614SOL     OW27398  10.564  11.407   3.320 -0.0322 -0.1132 -0.2576
 7614SOL    HW127399  10.539  11.384   3.410 -0.4185 -0.1720 -0.3765
 7614SOL    HW227400  10.654  11.438   3.327 -0.1220  0.0517  0.1748
 7615SOL     OW27401   1.622   0.228   5.412  0.1581  0.4184  0.4121
 7615SOL    HW127402   1.596   0.151   5.362  1.2516  0.5549 -0.4265
 7615SOL    HW227403   1.675   0.193   5.484  1.8450  0.4050 -0.7541
 7616SOL     OW27404   5.236   2.830  10.623  0.1248  0.6903  0.1186
 7616SOL    HW127405   5.241   2.823  10.718  0.1547  0.2220  0.0859
 7616SOL    HW227406   5.319   2.870  10.597  0.4333  0.1393  0.2311
 7617SOL     OW27407   0.686   7.529   8.209 -0.4425 -0.1140 -0.4032
 7617SOL    HW127408   0.676   7.438   8.235 -2.0264  0.0986 -0.1281
 7617SOL    HW227409   0.705   7.526   8.116  0.5299 -0.7446 -0.1931
 7618SOL     OW27410   9.278   4.650   6.731 -0.5879 -0.4281 -0.6503
 7618SOL    HW127411   9.289   4.560   6.763  0.5610  0.5777  2.0253
 7618SOL    HW227412   9.362   4.692   6.747 -1.6687  1.6355 -0.0921
 7619SOL     OW27413  11.451   7.865   5.861 -0.0752 -0.2005 -0.4547
 7619SOL    HW127414  11.370   7.829   5.825 -0.9867 -0.2255  1.4839
 7619SOL    HW227415  11.494   7.791   5.904  1.3023 -0.3129 -1.9243
 7620SOL     OW27416   4.522   5.019   3.011  0.7396  0.0278 -0.0633
 7620SOL    HW127417   4.557   5.092   2.960 -1.8528  1.9302  0.6303
 7620SOL    HW227418   4.487   4.958   2.946 -0.5644  1.3603 -0.6843
 7621SOL     OW27419   4.394   4.884   4.873  0.4525  0.4468 -0.2946
 7621SOL    HW127420   4.409   4.967   4.828  1.4103 -1.1496 -3.1406
 7621SOL    HW227421   4.424   4.818   4.812  0.1465 -2.0261  2.0588
 7622SOL     OW27422   2.769   3.521   5.309 -0.3380 -0.6059  0.3367
 7622SOL    HW127423   2.855   3.524   5.352  0.1040 -0.8673 -0.4941
 7622SOL    HW227424   2.751   3.611   5.285  1.1203 -0.8714 -2.1220
 7623SOL     OW27425   1.231  10.976   6.501  0.2102 -0.5407 -0.4986
 7623SOL    HW127426   1.228  10.909   6.432  0.6238  1.2512 -2.3612
 7623SOL    HW227427   1.304  11.032   6.476 -0.9298  1.3717  0.2424
 7624SOL     OW27428   4.508   8.433  10.087 -0.4486 -0.0468  0.1859
 7624SOL    HW127429   4.467   8.471  10.165  0.8694  2.1694 -0.1152
 7624SOL    HW227430   4.580   8.381  10.122 -0.4391  0.1678  0.4985
 7625SOL     OW27431  11.538   5.701   7.046  0.4934  0.7738  0.2419
 7625SOL    HW127432  11.530   5.606   7.049  1.3319  0.7045  0.6327
 7625SOL    HW227433  11.563   5.721   6.956 -0.2619  0.6811  0.0056
 7626SOL     OW27434   6.055   9.829   4.589  0.1138 -0.1042 -0.0620
 7626SOL    HW127435   6.058   9.746   4.542 -0.4104 -0.2119  0.0924
 7626SOL    HW227436   6.137   9.831   4.640 -0.5921 -1.2745  1.1963
 7627SOL     OW27437   4.406   6.108   3.373  0.4418 -0.8590  0.3266
 7627SOL    HW127438   4.395   6.178   3.308  1.7356 -0.5258  0.4527
 7627SOL    HW227439   4.316   6.079   3.391 -0.0966  0.5363  0.0276
 7628SOL     OW27440   9.921   6.463   9.313 -1.1439 -0.4327 -0.8174
 7628SOL    HW127441   9.916   6.536   9.251  2.9083  0.8914  0.1211
 7628SOL    HW227442  10.007   6.424   9.297  1.6263  1.7782  5.4334
 7629SOL     OW27443   6.040  10.971  11.610  0.3047 -0.0783 -0.3678
 7629SOL    HW127444   6.062  11.042  11.550  0.0894 -1.8019 -2.6063
 7629SOL    HW227445   6.028  11.014  11.695  0.5355  2.4818 -1.5488
 7630SOL     OW27446   4.302  11.542   3.804 -0.3233 -0.5871 -0.0671
 7630SOL    HW127447   4.349  11.529   3.721  0.4093 -0.1062  0.2704
 7630SOL    HW227448   4.268  11.632   3.798 -0.5028 -0.6466  0.0447
 7631SOL     OW27449  10.854   1.361   6.096  0.6839 -0.3490  0.0453
 7631SOL    HW127450  10.910   1.391   6.168 -0.9690 -1.6170  1.9694
 7631SOL    HW227451  10.892   1.400   6.018  2.2614  1.5387  1.6585
 7632SOL     OW27452   2.276   7.457   2.962 -0.1796 -0.3303  0.1710
 7632SOL    HW127453   2.370   7.443   2.973  0.1778  1.0073 -0.9330
 7632SOL    HW227454   2.268   7.501   2.877 -1.8761 -1.1158 -0.1232
 7633SOL     OW27455   1.586   7.829   9.132 -0.1088 -0.2967 -0.1067
 7633SOL    HW127456   1.591   7.734   9.122 -0.0219 -0.2317 -0.6824
 7633SOL    HW227457   1.614   7.864   9.048 -1.0854  0.2343 -0.2219
 7634SOL     OW27458   4.939   7.197   8.512  0.6041  0.7630 -0.0836
 7634SOL    HW127459   4.891   7.279   8.511  0.6509  0.7894 -0.3365
 7634SOL    HW227460   4.932   7.163   8.422  0.3537  0.3554  0.0862
 7635SOL     OW27461   5.604   7.141   0.176 -1.2882  0.6716 -0.2251
 7635SOL    HW127462   5.662   7.090   0.120 -1.9012 -0.2435 -0.0379
 7635SOL    HW227463   5.660   7.210   0.212  0.0077 -0.9210  0.9318
 7636SOL     OW27464   6.909  11.232   9.972  0.1459  0.0790  0.4886
 7636SOL    HW127465   6.986  11.194   9.929  0.8739  2.7698 -0.8366
 7636SOL    HW227466   6.867  11.284   9.904 -1.9022  0.0529  1.6530
 7637SOL     OW27467   0.026   4.145  10.694  0.0991  0.4130 -0.0061
 7637SOL    HW127468  -0.055   4.118  10.652  0.4656  1.0055 -1.1209
 7637SOL    HW227469   0.030   4.239  10.680  1.3309  0.2861 -0.5859
 7638SOL     OW27470   6.449   6.641   5.278  0.0531 -0.4499 -0.1514
 7638SOL    HW127471   6.530   6.625   5.229  0.6043  0.0141  0.5803
 7638SOL    HW227472   6.406   6.713   5.231  0.5243 -0.0826 -0.0322
 7639SOL     OW27473   5.585  11.079   7.876  0.3113 -0.5090 -0.7270
 7639SOL    HW127474   5.649  11.140   7.839 -0.1184  1.4933  1.5617
 7639SOL    HW227475   5.625  11.048   7.957 -0.8532 -0.5996 -0.1566
 7640SOL     OW27476   0.325   7.816  10.464 -0.4944 -0.0312 -0.4908
 7640SOL    HW127477   0.264   7.842  10.533  0.3228 -0.1704  0.3011
 7640SOL    HW227478   0.402   7.784  10.510  0.2009  0.1629 -1.4727
 7641SOL     OW27479   6.977   8.442   1.219 -0.8219  0.0520  0.0346
 7641SOL    HW127480   6.972   8.366   1.161  0.9107 -0.9422  1.1102
 7641SOL    HW227481   7.045   8.420   1.282 -1.8460  1.5770  1.7720
 7642SOL     OW27482   6.426  11.124   7.836  0.2200  0.6158  0.0566
 7642SOL    HW127483   6.399  11.171   7.758 -0.6551  0.8682  0.5000
 7642SOL    HW227484   6.397  11.034   7.821  0.2882  0.6068 -0.0203
 7643SOL     OW27485   5.906   4.560   5.451 -0.0894 -0.4517 -0.0019
 7643SOL    HW127486   5.818   4.529   5.470  0.4872 -0.9683  2.0780
 7643SOL    HW227487   5.962   4.483   5.460  0.8109  0.2630  0.7925
 7644SOL     OW27488   3.195  11.181   1.479 -0.0022 -0.6634 -0.0763
 7644SOL    HW127489   3.177  11.269   1.446  0.1474 -0.8198 -0.5875
 7644SOL    HW227490   3.161  11.123   1.411 -1.5664 -1.0420  0.9740
 7645SOL     OW27491   3.306   9.294   5.041 -0.1385  0.0927 -0.0606
 7645SOL    HW127492   3.244   9.298   4.969 -0.6691 -0.5358  0.3422
 7645SOL    HW227493   3.359   9.373   5.033 -0.7718  0.4630 -0.6154
 7646SOL     OW27494   5.511   3.660   1.474 -0.3438  0.1649  0.7820
 7646SOL    HW127495   5.559   3.685   1.553 -0.0411 -0.9581  0.9639
 7646SOL    HW227496   5.569   3.597   1.430  0.4926  2.2775 -1.4383
 7647SOL     OW27497   1.494   0.084   8.446 -0.2087 -0.3085 -0.7301
 7647SOL    HW127498   1.511   0.164   8.496 -2.2796 -0.7640  0.8481
 7647SOL    HW227499   1.405   0.095   8.413 -0.3829 -1.7940 -0.8267
 7648SOL     OW27500   0.246   3.113   8.544 -0.2449 -0.2375  0.0415
 7648SOL    HW127501   0.229   3.207   8.545  1.7844  0.1853  0.7515
 7648SOL    HW227502   0.161   3.073   8.526 -1.2626  1.6937  0.2861
 7649SOL     OW27503  11.186   4.759   6.109 -0.0474 -0.1014  0.8265
 7649SOL    HW127504  11.280   4.778   6.109  0.0468 -0.5029  1.9569
 7649SOL    HW227505  11.181   4.664   6.120 -0.5876 -0.1005  0.6076
 7650SOL     OW27506   3.054   9.636   4.486 -0.3295 -0.1747 -0.4533
 7650SOL    HW127507   2.960   9.625   4.473 -0.4255  1.1999 -1.0933
 7650SOL    HW227508   3.063   9.676   4.572 -0.3086 -0.5470 -0.2810
 7651SOL     OW27509   7.215   3.917   1.472 -1.0706 -0.4483 -0.2821
 7651SOL    HW127510   7.258   3.997   1.503  0.3262 -0.3993 -2.1783
 7651SOL    HW227511   7.216   3.858   1.548 -1.0862  0.9091  0.8066
 7652SOL     OW27512   5.389   9.614   4.215 -0.2138 -0.2444 -0.1542
 7652SOL    HW127513   5.471   9.566   4.202  0.5821  0.2317  2.3855
 7652SOL    HW227514   5.414   9.689   4.269 -2.4028 -0.6087  1.5349
 7653SOL     OW27515   4.577  10.224   8.826  0.3724 -0.1812  0.2911
 7653SOL    HW127516   4.672  10.213   8.829  0.3749  0.0127  1.3600
 7653SOL    HW227517   4.563  10.315   8.852 -0.1042 -0.2241  0.1848
 7654SOL     OW27518   4.726   0.054   4.957 -0.0662  0.3069  0.1698
 7654SOL    HW127519   4.687   0.087   5.037  0.6412  1.2421  0.1428
 7654SOL    HW227520   4.820   0.071   4.967  0.0719  0.1300 -0.7076
 7655SOL     OW27521   3.799   2.909   5.840  0.1566  0.0991 -0.2215
 7655SOL    HW127522   3.751   2.944   5.915  1.7374  0.1036  0.8296
 7655SOL    HW227523   3.891   2.913   5.866  0.7695  0.2306 -2.2164
 7656SOL     OW27524   1.992   0.160   4.160 -0.1663 -0.0314 -0.1126
 7656SOL    HW127525   2.038   0.243   4.166 -1.1765  0.6434 -1.3031
 7656SOL    HW227526   2.061   0.095   4.149  0.5328  1.0723 -3.0676
 7657SOL     OW27527   9.555  11.140   0.389  0.4196 -0.4597  0.1222
 7657SOL    HW127528   9.522  11.091   0.464 -4.6006  1.5125 -0.4134
 7657SOL    HW227529   9.592  11.220   0.427 -0.4779 -0.2783  0.6499
 7658SOL     OW27530   3.340   5.624   6.581  0.5006 -0.5948  0.1091
 7658SOL    HW127531   3.261   5.675   6.566  1.1469  0.2942 -0.3750
 7658SOL    HW227532   3.333   5.593   6.672  0.5723  1.2486  0.7707
 7659SOL     OW27533   0.207   5.194   1.131  0.1946  0.3235  0.3345
 7659SOL    HW127534   0.272   5.158   1.191 -1.2208 -2.4061  0.3912
 7659SOL    HW227535   0.246   5.183   1.044 -0.2672 -1.7118  0.3334
 7660SOL     OW27536   5.722   8.277   6.356  0.0568  0.3532  0.0631
 7660SOL    HW127537   5.745   8.369   6.350  0.1982  0.2964 -0.3127
 7660SOL    HW227538   5.739   8.253   6.447 -0.6658  0.8748  0.3454
 7661SOL     OW27539   2.666   8.193   7.970  0.3292 -0.3334 -0.5533
 7661SOL    HW127540   2.619   8.243   8.037  1.6975  0.3369 -0.0633
 7661SOL    HW227541   2.610   8.116   7.955  0.9281 -1.6541  2.9283
 7662SOL     OW27542   4.121   9.522   7.187  0.2761  0.4816 -0.0879
 7662SOL    HW127543   4.062   9.526   7.111  0.4216 -0.2087 -0.2430
 7662SOL    HW227544   4.188   9.458   7.162  0.0354 -0.1433  0.8354
 7663SOL     OW27545  10.921  11.393  11.916 -0.1154  0.3381  0.0927
 7663SOL    HW127546  10.881  11.464  11.966 -0.7047 -0.5631  0.9242
 7663SOL    HW227547  10.873  11.392  11.834 -0.5128  0.5064  0.3181
 7664SOL     OW27548   8.009   1.267   1.457 -0.4876 -0.1976  0.4154
 7664SOL    HW127549   7.992   1.183   1.499 -1.1694  0.5386  1.6653
 7664SOL    HW227550   8.095   1.258   1.417 -0.5785 -1.4979  0.4996
 7665SOL     OW27551   3.332   2.613   7.895 -0.6892  0.4771 -0.4598
 7665SOL    HW127552   3.331   2.518   7.883 -1.8549  0.2825  0.9536
 7665SOL    HW227553   3.276   2.647   7.825  0.8805  0.2993 -1.8859
 7666SOL     OW27554   1.026   0.344   0.484  0.2834 -0.0329 -0.0753
 7666SOL    HW127555   1.085   0.387   0.545  0.8625  1.5217 -1.6588
 7666SOL    HW227556   0.952   0.315   0.538  1.1448  0.5643  1.4669
 7667SOL     OW27557   3.920   7.922  10.201 -0.8450 -0.2236  0.9190
 7667SOL    HW127558   3.963   7.850  10.156  1.2308  2.3064 -1.5820
 7667SOL    HW227559   3.833   7.927  10.163 -1.0710 -1.4809  1.2514
 7668SOL     OW27560   3.521   5.889   9.415  0.3818  0.1012 -0.0326
 7668SOL    HW127561   3.430   5.878   9.388  0.4973 -1.8665  0.2132
 7668SOL    HW227562   3.524   5.854   9.504  1.3343  0.3632  0.0515
 7669SOL     OW27563   6.946   4.608   0.277 -0.2073  0.5727 -0.0944
 7669SOL    HW127564   6.880   4.614   0.347 -0.3235 -0.4543 -0.0956
 7669SOL    HW227565   6.994   4.690   0.282  0.9512 -0.1540  2.3906
 7670SOL     OW27566   2.864   3.504   3.432  0.2014 -0.7945  0.2343
 7670SOL    HW127567   2.910   3.474   3.510  1.4662 -0.0548 -0.1950
 7670SOL    HW227568   2.771   3.497   3.454  0.5283  0.6412  2.2937
 7671SOL     OW27569   5.445   1.852   1.060  0.7388 -0.1080 -0.1111
 7671SOL    HW127570   5.482   1.793   1.127 -0.4739 -1.0064 -0.1984
 7671SOL    HW227571   5.350   1.844   1.071  0.5381  0.4526 -1.3357
 7672SOL     OW27572   4.507  10.009   4.448 -0.2950 -0.1198  0.4185
 7672SOL    HW127573   4.571  10.079   4.440  1.0090 -1.0398  2.1428
 7672SOL    HW227574   4.423  10.054   4.454  0.5177  1.3209  1.6219
 7673SOL     OW27575   9.231  10.850   7.583  0.1369 -0.6844 -0.0240
 7673SOL    HW127576   9.275  10.935   7.583  1.0000 -1.0742  2.0464
 7673SOL    HW227577   9.141  10.870   7.608  0.2990 -0.3569  0.3166
 7674SOL     OW27578  11.154   9.070   5.952  0.0503 -0.1029 -0.1326
 7674SOL    HW127579  11.217   9.004   5.922 -0.0229 -0.9589  1.4906
 7674SOL    HW227580  11.187   9.152   5.916  1.7968 -0.6039  0.1810
 7675SOL     OW27581  10.410   0.376  11.476  0.5496 -0.0290  0.0125
 7675SOL    HW127582  10.415   0.329  11.559 -2.7623 -1.8358 -0.6530
 7675SOL    HW227583  10.423   0.309  11.409 -1.8217  0.3840 -0.9519
 7676SOL     OW27584   8.842   8.562   4.845 -0.6073 -0.2070 -0.3715
 7676SOL    HW127585   8.781   8.632   4.824 -0.5209 -0.1117 -0.3069
 7676SOL    HW227586   8.891   8.595   4.920  0.0245  0.0210 -0.8785
 7677SOL     OW27587   8.063   2.860   6.702 -0.7426  0.3663  0.4453
 7677SOL    HW127588   8.016   2.808   6.767 -1.7349  0.7452  0.0413
 7677SOL    HW227589   8.120   2.917   6.754 -1.6602  0.7952  1.0050
 7678SOL     OW27590   9.287  11.126   6.523 -0.3333  0.0825 -0.0892
 7678SOL    HW127591   9.316  11.123   6.432  0.3454  1.4103  0.0758
 7678SOL    HW227592   9.365  11.150   6.573 -0.2414 -2.3451  1.0892
 7679SOL     OW27593  11.669  11.513   7.321 -0.6549  0.3236 -0.1147
 7679SOL    HW127594  11.580  11.496   7.289 -0.3723  0.5923 -1.0659
 7679SOL    HW227595  11.695  11.431   7.364 -1.2776  0.1733 -0.0147
 7680SOL     OW27596   0.535   6.038   1.186 -0.2279  0.2165 -0.0316
 7680SOL    HW127597   0.616   6.088   1.175 -0.4993  0.7059  0.1535
 7680SOL    HW227598   0.555   5.974   1.254  0.0222  0.2862 -0.0395
 7681SOL     OW27599   5.767  11.040   8.081 -0.1259  0.6942 -0.2288
 7681SOL    HW127600   5.775  10.951   8.048  0.1385  0.9064 -0.7481
 7681SOL    HW227601   5.841  11.050   8.141 -0.0371  0.6290 -0.3266
 7682SOL     OW27602   0.476   3.346   6.465 -0.2066  0.6203  0.1538
 7682SOL    HW127603   0.556   3.334   6.517 -0.2736  0.2600  0.1807
 7682SOL    HW227604   0.506   3.337   6.374 -0.3241 -0.2032  0.1901
 7683SOL     OW27605   0.811   2.086   7.247  0.2201 -0.3064 -0.0913
 7683SOL    HW127606   0.877   2.130   7.193 -2.1838 -0.0158 -3.0497
 7683SOL    HW227607   0.775   2.155   7.302  0.2164  0.2375 -0.7658
 7684SOL     OW27608  10.424   8.110  10.360  0.0193  0.4111 -0.2946
 7684SOL    HW127609  10.389   8.023  10.383  0.7524 -0.4751 -2.3278
 7684SOL    HW227610  10.519   8.098  10.355 -0.0089  0.6798 -2.8568
 7685SOL     OW27611   3.938   2.284   1.374 -0.1267  0.3020 -0.1390
 7685SOL    HW127612   3.852   2.242   1.372  0.5503 -1.1681  0.3619
 7685SOL    HW227613   3.968   2.274   1.464  1.7711 -1.8714 -0.8961
 7686SOL     OW27614   5.648   9.348   6.588 -0.9038  0.0634 -0.2753
 7686SOL    HW127615   5.733   9.342   6.632 -1.2141  1.6066  0.6297
 7686SOL    HW227616   5.597   9.276   6.625 -0.0974 -0.7091 -0.6246
 7687SOL     OW27617   9.978   0.790   0.784  0.1598  0.0888  0.0415
 7687SOL    HW127618  10.056   0.793   0.839 -0.4213 -1.9561  1.0599
 7687SOL    HW227619   9.929   0.869   0.807  1.5129  0.9957 -0.0487
 7688SOL     OW27620   6.380   4.491  11.983  0.1720  0.5293 -0.4980
 7688SOL    HW127621   6.373   4.399  12.006  0.6795  0.7867  0.7895
 7688SOL    HW227622   6.353   4.495  11.891 -1.5738 -0.6250 -0.0825
 7689SOL     OW27623  10.539   5.246   4.015  0.0523 -0.0585 -0.9912
 7689SOL    HW127624  10.523   5.168   3.962 -2.1995 -0.4415  0.1295
 7689SOL    HW227625  10.489   5.315   3.971 -0.6014 -0.0324 -0.2307
 7690SOL     OW27626   4.227   6.065   5.547 -0.1132  0.6108 -0.2888
 7690SOL    HW127627   4.223   6.152   5.587  0.3732 -0.1846  1.5968
 7690SOL    HW227628   4.288   6.016   5.602 -0.8964 -1.1339 -0.8914
 7691SOL     OW27629  11.180   6.590   9.019 -0.1716 -0.2154  0.1164
 7691SOL    HW127630  11.117   6.521   8.998 -1.5996  1.4653 -1.4212
 7691SOL    HW227631  11.188   6.641   8.939 -1.1495  2.9450  1.8522
 7692SOL     OW27632   2.971   3.463  10.002  0.3232  0.5042 -0.1589
 7692SOL    HW127633   3.024   3.392  10.039 -0.1306 -0.0237 -0.4926
 7692SOL    HW227634   2.924   3.499  10.078  1.0347  0.8804  0.1136
 7693SOL     OW27635   4.075   9.965   7.462  0.2787 -0.3274  0.0810
 7693SOL    HW127636   4.125  10.037   7.425 -0.0944  0.1958  0.5703
 7693SOL    HW227637   4.058   9.907   7.388  0.8360 -0.0661 -0.2604
 7694SOL     OW27638   1.828   4.917   3.043  0.0154  0.4292 -0.3931
 7694SOL    HW127639   1.743   4.897   3.003  0.4936  0.8714 -1.6935
 7694SOL    HW227640   1.826   5.012   3.056 -0.3575  0.2223  1.2169
 7695SOL     OW27641   7.911   8.306   3.062  0.1522  0.3542  0.3590
 7695SOL    HW127642   7.862   8.300   3.144 -0.9012  0.8647 -0.2125
 7695SOL    HW227643   7.895   8.221   3.019 -0.8492  0.7740 -0.1415
 7696SOL     OW27644  10.754   8.682   9.386  0.5825  0.2181 -0.2018
 7696SOL    HW127645  10.722   8.592   9.381  2.7491 -0.6009 -0.3186
 7696SOL    HW227646  10.675   8.735   9.398 -0.6374 -1.8276  1.6647
 7697SOL     OW27647   3.493  10.595   3.502 -0.7283 -0.3669  0.7568
 7697SOL    HW127648   3.436  10.525   3.467  0.2792 -1.1555  0.6493
 7697SOL    HW227649   3.467  10.673   3.453  0.0473 -1.2631 -1.2091
 7698SOL     OW27650   2.523   3.482   5.916 -0.2674 -0.3471 -0.3985
 7698SOL    HW127651   2.528   3.402   5.968 -0.4946  0.4460  0.8926
 7698SOL    HW227652   2.593   3.473   5.851 -0.1615 -1.4981 -0.1410
 7699SOL     OW27653   5.476  10.945   1.418  0.5388 -0.3003 -0.1598
 7699SOL    HW127654   5.507  10.913   1.333 -1.0021 -3.3150  0.2589
 7699SOL    HW227655   5.555  10.963   1.468  1.4774  0.0705 -1.7212
 7700SOL     OW27656   7.906   8.837  10.165 -0.5931 -0.1579 -0.2936
 7700SOL    HW127657   7.971   8.780  10.123  0.1220  0.4926 -0.0939
 7700SOL    HW227658   7.822   8.810  10.127 -0.5248 -2.5622  1.1323
 7701SOL     OW27659   3.242   9.534  11.530  0.1879 -0.0638 -0.3186
 7701SOL    HW127660   3.229   9.470  11.600 -2.1408  0.9488  0.2573
 7701SOL    HW227661   3.158   9.535  11.483  0.0387  2.7000 -0.1419
 7702SOL     OW27662   2.012   0.694   0.890  0.4179  0.2871  0.3001
 7702SOL    HW127663   1.935   0.749   0.875  0.5106  0.3723  0.1279
 7702SOL    HW227664   2.053   0.731   0.968 -0.0282 -0.1127  0.7294
 7703SOL     OW27665   9.347   8.529   0.997 -0.2793  0.2597  0.0092
 7703SOL    HW127666   9.419   8.532   1.060  0.1016  0.3737 -0.4208
 7703SOL    HW227667   9.351   8.441   0.961 -1.6710 -0.4465  1.4638
 7704SOL     OW27668   6.896   4.402  11.676  0.1981 -0.0518 -0.3065
 7704SOL    HW127669   6.916   4.457  11.751  1.1652 -0.0183 -0.5740
 7704SOL    HW227670   6.841   4.332  11.712  0.2523  0.2257  0.3351
 7705SOL     OW27671   9.808   5.306   3.007 -0.3740 -0.5984 -0.3565
 7705SOL    HW127672   9.776   5.218   2.987 -1.8723 -0.6328  1.8596
 7705SOL    HW227673   9.903   5.300   2.995 -0.6298 -1.8222 -2.4958
 7706SOL     OW27674   9.382  11.367   0.490  0.0515 -0.5620  0.9117
 7706SOL    HW127675   9.325  11.297   0.458  0.8638 -0.3978 -1.0661
 7706SOL    HW227676   9.326  11.422   0.544 -0.9686 -1.8685  1.2278
 7707SOL     OW27677   2.334   5.314   5.206  0.0818  0.1712  0.3245
 7707SOL    HW127678   2.396   5.345   5.271 -0.6045 -0.1424  1.1445
 7707SOL    HW227679   2.370   5.343   5.122  1.9734 -1.0379  0.6464
 7708SOL     OW27680   1.669   1.251   5.958  0.0636  0.2074 -0.6732
 7708SOL    HW127681   1.653   1.256   5.864 -0.6594  4.2492 -0.5241
 7708SOL    HW227682   1.764   1.253   5.966  0.1187  0.1910 -1.2921
 7709SOL     OW27683   8.943  11.045  10.962  0.3149  0.0946 -0.0608
 7709SOL    HW127684   8.919  11.126  10.919 -1.4519 -0.0375  0.5976
 7709SOL    HW227685   8.905  11.052  11.050  1.8804 -0.5893  0.7059
 7710SOL     OW27686   8.844   2.588   5.274  0.1683  0.0315  0.3715
 7710SOL    HW127687   8.776   2.598   5.207 -0.1503 -0.5558  0.5968
 7710SOL    HW227688   8.843   2.495   5.295  0.2901  0.1989  1.1683
 7711SOL     OW27689   2.631   9.925   8.430  0.6724 -0.0900 -0.1333
 7711SOL    HW127690   2.667   9.837   8.441  2.3297  0.7103  1.2698
 7711SOL    HW227691   2.541   9.918   8.461  1.2235 -0.9879  1.3616
 7712SOL     OW27692   6.941   7.305   6.688  0.0717 -0.7239 -0.3799
 7712SOL    HW127693   7.035   7.297   6.673  0.4295  0.5447  0.9572
 7712SOL    HW227694   6.902   7.305   6.601  1.4349  0.0478 -1.0144
 7713SOL     OW27695  12.025   9.547   5.844  0.1534 -0.0896  0.8309
 7713SOL    HW127696  12.088   9.512   5.908 -0.9311 -3.0414  0.4337
 7713SOL    HW227697  12.077   9.609   5.792  2.3250 -1.1574  1.5692
 7714SOL     OW27698  12.041   1.476   4.220  0.0784 -0.4934 -0.4581
 7714SOL    HW127699  12.067   1.536   4.149  2.3773  2.2726  2.4252
 7714SOL    HW227700  11.964   1.518   4.259 -1.1094 -1.9435 -1.1717
 7715SOL     OW27701   9.580   9.517   9.483 -0.0780 -0.2849 -0.4359
 7715SOL    HW127702   9.653   9.557   9.530  0.0098 -0.6188 -0.2837
 7715SOL    HW227703   9.566   9.575   9.408 -1.0278  0.9221  0.6350
 7716SOL     OW27704   3.537   9.047   9.663  0.0879  0.5464  1.8824
 7716SOL    HW127705   3.609   9.064   9.603 -1.0031 -0.9601  0.0384
 7716SOL    HW227706   3.496   9.133   9.676  0.2407  0.8826  0.3085
 7717SOL     OW27707   4.015   2.837   9.951 -0.2644 -0.1562 -0.2381
 7717SOL    HW127708   4.098   2.848   9.903 -0.5660 -3.0976 -1.7029
 7717SOL    HW227709   4.041   2.834  10.043  1.0231  0.5952 -0.5481
 7718SOL     OW27710   3.303   6.026   7.096  0.6257  0.1894  0.0211
 7718SOL    HW127711   3.225   5.978   7.121  1.7308 -2.2941 -0.9764
 7718SOL    HW227712   3.319   6.086   7.169 -1.6147  0.0870  0.6629
 7719SOL     OW27713  10.071   5.829  10.076 -0.1456  0.0798  0.4333
 7719SOL    HW127714   9.986   5.844  10.117  0.5225  0.1774  1.8387
 7719SOL    HW227715  10.101   5.746  10.113  1.7729  1.5900  2.4614
 7720SOL     OW27716  10.329   1.583   2.792 -0.3790 -0.5406  1.0409
 7720SOL    HW127717  10.313   1.490   2.808 -0.5369 -0.6298  0.4099
 7720SOL    HW227718  10.302   1.597   2.701  0.9849 -0.1926  0.6580
 7721SOL     OW27719   2.157   3.369   0.705 -0.2755  0.8440 -0.0782
 7721SOL    HW127720   2.187   3.450   0.663 -0.2788  0.5794 -0.5922
 7721SOL    HW227721   2.182   3.380   0.797  1.2999  0.6906 -0.4566
 7722SOL     OW27722   2.929   3.127   5.377 -0.1717  0.5754 -0.0161
 7722SOL    HW127723   2.997   3.072   5.416  1.6441  2.0793 -0.9412
 7722SOL    HW227724   2.961   3.216   5.387 -1.0606  1.2091 -2.2246
 7723SOL     OW27725   2.110   1.891   8.383  0.7134 -0.1661 -0.2051
 7723SOL    HW127726   2.037   1.934   8.339 -0.2108 -0.4734  1.0068
 7723SOL    HW227727   2.108   1.801   8.349 -0.3341 -0.5545  0.8147
 7724SOL     OW27728   1.768   9.050   2.412  0.4524 -0.3853  0.0880
 7724SOL    HW127729   1.798   9.141   2.421  0.9680 -0.6247  0.9317
 7724SOL    HW227730   1.824   9.014   2.343  0.2089 -0.0520 -0.2901
 7725SOL     OW27731   0.099   1.580   1.933  0.5381  0.0710  0.4081
 7725SOL    HW127732   0.146   1.603   1.853 -1.0305  3.0957  0.2096
 7725SOL    HW227733   0.080   1.486   1.924  1.5867  0.0261 -2.1083
 7726SOL     OW27734   3.007   0.665   8.100 -0.7950 -0.4265  0.9339
 7726SOL    HW127735   3.048   0.692   8.017  0.9052 -3.9048  0.4490
 7726SOL    HW227736   3.035   0.732   8.163  0.7357  0.4982 -0.6336
 7727SOL     OW27737   0.032  10.713   0.450  0.4692  0.1757  0.2041
 7727SOL    HW127738  -0.028  10.648   0.486  0.9487 -1.1561 -1.3040
 7727SOL    HW227739  -0.025  10.780   0.411 -0.0661 -0.6748 -0.5124
 7728SOL     OW27740  10.217   9.854   8.704  0.3684  0.1074  0.4478
 7728SOL    HW127741  10.291   9.796   8.722 -0.3704 -1.2744 -0.6669
 7728SOL    HW227742  10.167   9.856   8.785  0.9843  0.0564  0.8300
 7729SOL     OW27743   7.148  11.111  10.170 -0.5317  0.7877 -0.3282
 7729SOL    HW127744   7.057  11.081  10.169 -0.6288  1.0348  0.6263
 7729SOL    HW227745   7.159  11.153  10.084 -1.1418  0.2591 -0.6804
 7730SOL     OW27746  11.919   9.115   4.491 -0.0094  0.1459 -0.1174
 7730SOL    HW127747  11.877   9.074   4.415 -1.1066  2.5441 -0.8964
 7730SOL    HW227748  11.855   9.107   4.561 -0.1364  0.3220 -0.2122
 7731SOL     OW27749   3.952   8.096   3.831 -0.1200 -0.0139 -0.1026
 7731SOL    HW127750   4.014   8.108   3.759 -0.9376 -0.7450 -0.9446
 7731SOL    HW227751   4.003   8.050   3.899  1.0021  1.7490  0.3183
 7732SOL     OW27752   9.477   9.965   4.961  0.3552  0.7147  0.7811
 7732SOL    HW127753   9.529   9.887   4.979 -1.7865 -1.0595 -0.1932
 7732SOL    HW227754   9.394   9.949   5.006 -1.0678  1.2335 -1.4941
 7733SOL     OW27755   9.199   4.386   4.214 -0.7025  0.1078  0.1190
 7733SOL    HW127756   9.122   4.334   4.193 -0.4129  0.1947 -1.2570
 7733SOL    HW227757   9.181   4.420   4.301 -0.5774 -2.8774  1.4488
 7734SOL     OW27758   4.222  10.840   9.880 -0.2688 -0.1994 -0.1188
 7734SOL    HW127759   4.189  10.855   9.791  1.3360  0.4009 -0.6433
 7734SOL    HW227760   4.317  10.838   9.871 -0.1058 -1.8872  1.3331
 7735SOL     OW27761   2.119   3.499   5.737 -0.0384 -0.6086  0.2647
 7735SOL    HW127762   2.172   3.472   5.662  0.1191 -1.7584  0.7640
 7735SOL    HW227763   2.181   3.546   5.793 -0.4332  1.3378 -0.8510
 7736SOL     OW27764   7.317   9.006   7.561 -0.2851 -0.4435  0.4407
 7736SOL    HW127765   7.247   9.006   7.626 -0.0212 -2.1850  0.7490
 7736SOL    HW227766   7.306   8.924   7.513  0.4434  0.1134 -0.7335
 7737SOL     OW27767  10.955   6.029   0.747  0.0453 -0.0050 -0.7107
 7737SOL    HW127768  10.958   6.115   0.788 -2.5450 -0.2008  0.0324
 7737SOL    HW227769  10.944   6.047   0.654  1.5868  0.4092 -0.8542
 7738SOL     OW27770   2.004   9.993   6.477 -0.3732 -0.1017  0.1505
 7738SOL    HW127771   2.022  10.034   6.392  1.9250  2.8918  1.8802
 7738SOL    HW227772   2.070   9.924   6.484 -0.5882 -0.3798 -0.5023
 7739SOL     OW27773   2.212   2.009   6.108 -0.4183  0.4813  0.7082
 7739SOL    HW127774   2.175   2.092   6.078 -2.1541  0.3868  2.4160
 7739SOL    HW227775   2.259   2.031   6.188  1.2625  0.1797 -0.1461
 7740SOL     OW27776   0.258   8.401   2.365  0.0728  0.3861  0.4549
 7740SOL    HW127777   0.234   8.330   2.305 -2.7337  0.6053  1.2042
 7740SOL    HW227778   0.294   8.469   2.307  0.5352 -0.6589 -0.5431
 7741SOL     OW27779  11.109   2.557   4.527  0.3150 -0.5682 -0.6765
 7741SOL    HW127780  11.203   2.561   4.511  0.2387 -1.4576 -1.4159
 7741SOL    HW227781  11.093   2.627   4.591  1.5723 -0.8394 -0.0300
 7742SOL     OW27782   8.107   6.209   9.297  0.1818 -0.1092  0.0589
 7742SOL    HW127783   8.166   6.162   9.356 -1.1602 -1.6381  0.2501
 7742SOL    HW227784   8.128   6.301   9.311  1.0859 -0.5115  1.6458
 7743SOL     OW27785   4.022   7.546  11.348  0.3103 -0.3808 -0.5205
 7743SOL    HW127786   4.091   7.594  11.393 -1.4460 -0.6535  2.7355
 7743SOL    HW227787   3.954   7.612  11.330  0.2020 -0.6465 -1.1312
 7744SOL     OW27788  10.778   4.997   4.237  0.7430  0.0928  0.7598
 7744SOL    HW127789  10.691   5.011   4.275  0.3544 -0.3808  0.0590
 7744SOL    HW227790  10.831   5.070   4.270  0.8437 -1.0464  3.4589
 7745SOL     OW27791   4.610  10.836   5.602 -0.0539  0.0632  0.1629
 7745SOL    HW127792   4.681  10.784   5.640 -0.3586 -0.4155  0.0935
 7745SOL    HW227793   4.636  10.849   5.511  0.6624  1.1827  0.5053
 7746SOL     OW27794   2.431   0.026  11.338  0.4960  0.4863  0.0029
 7746SOL    HW127795   2.486  -0.052  11.333 -1.3482 -0.8185 -1.0761
 7746SOL    HW227796   2.474   0.082  11.403  0.9447 -2.1586  2.1042
 7747SOL     OW27797   6.531  11.878   0.056  0.6786 -0.2417 -0.8209
 7747SOL    HW127798   6.479  11.839   0.127  0.1805 -0.1854 -1.1516
 7747SOL    HW227799   6.580  11.948   0.099 -2.9542  2.8888 -1.2218
 7748SOL     OW27800   1.217  12.097  10.824  0.1616  0.2022  0.5518
 7748SOL    HW127801   1.184  12.087  10.913 -2.2171  0.4464 -0.2446
 7748SOL    HW227802   1.283  12.166  10.831  2.3149 -1.8874  2.5888
 7749SOL     OW27803   9.238   4.406   8.911  0.5833 -0.3267 -0.3170
 7749SOL    HW127804   9.181   4.331   8.891  2.1374 -1.1530 -1.9790
 7749SOL    HW227805   9.179   4.481   8.913 -0.9357 -1.4822  0.7248
 7750SOL     OW27806   0.366   2.121   0.406  0.0846  0.1193  0.0033
 7750SOL    HW127807   0.343   2.051   0.467  0.6934 -1.7086 -1.7559
 7750SOL    HW227808   0.286   2.172   0.396 -1.6532 -2.6714 -1.6012
 7751SOL     OW27809   7.828   7.512   1.209  0.1943  0.2549  0.7404
 7751SOL    HW127810   7.855   7.552   1.127  3.3218 -0.0395  1.5078
 7751SOL    HW227811   7.794   7.426   1.185 -0.4691  0.8040 -0.3455
 7752SOL     OW27812   5.572   9.209  10.020 -0.1594 -0.3155  0.2567
 7752SOL    HW127813   5.552   9.179   9.931  0.6906 -0.1377 -0.0098
 7752SOL    HW227814   5.513   9.160  10.077 -1.2630  0.1331 -0.4670
 7753SOL     OW27815   6.501   7.544   2.433  0.4354  0.4929  0.2405
 7753SOL    HW127816   6.590   7.509   2.443  0.4519  0.8268  1.3638
 7753SOL    HW227817   6.449   7.496   2.498 -0.0113  0.9720  0.2409
 7754SOL     OW27818  10.316   3.110   7.992 -0.0599 -0.3472  0.2044
 7754SOL    HW127819  10.293   3.202   7.982  0.2390 -0.4481 -1.9751
 7754SOL    HW227820  10.373   3.091   7.917 -0.7274 -2.4830  0.1557
 7755SOL     OW27821   6.113   5.456   3.660 -0.2161  0.4412 -0.0279
 7755SOL    HW127822   6.079   5.432   3.747  1.0703  1.7671  0.8981
 7755SOL    HW227823   6.206   5.435   3.664 -0.2227  0.1283 -1.2591
 7756SOL     OW27824  11.079  11.656   2.430 -0.3230 -0.1614 -0.0102
 7756SOL    HW127825  11.046  11.746   2.437  0.3395  0.0843  0.0939
 7756SOL    HW227826  11.061  11.617   2.516  0.2672  0.1922  0.2839
 7757SOL     OW27827   6.490   8.302  11.339  0.2859  0.0906 -0.5825
 7757SOL    HW127828   6.498   8.265  11.426  3.8224 -0.4384 -0.9556
 7757SOL    HW227829   6.479   8.396  11.353 -2.2431 -0.2791  0.3470
 7758SOL     OW27830   8.596  10.249  11.376 -0.2860  0.1698  0.3535
 7758SOL    HW127831   8.622  10.223  11.288  0.1001 -0.5425  0.6673
 7758SOL    HW227832   8.542  10.176  11.407 -2.2929  1.4076 -0.1057
 7759SOL     OW27833   7.016   1.016   2.894 -0.2392 -0.0516  0.3120
 7759SOL    HW127834   6.951   1.002   2.825 -1.4686 -1.3349  1.6694
 7759SOL    HW227835   7.014   1.110   2.909 -0.4182  0.1698 -0.9427
 7760SOL     OW27836  11.254   5.562  10.919 -0.0092 -0.0211 -0.3384
 7760SOL    HW127837  11.247   5.469  10.940 -0.5430  0.3141  1.0142
 7760SOL    HW227838  11.288   5.563  10.829  0.2635 -1.5109 -0.2784
 7761SOL     OW27839   8.276   6.551   7.502  0.5618  0.1500  0.0414
 7761SOL    HW127840   8.279   6.642   7.473  0.8585 -0.5627 -2.4553
 7761SOL    HW227841   8.202   6.547   7.563  0.8619  2.1286  0.5936
 7762SOL     OW27842  10.693   5.535   6.061 -0.6468  0.2135 -0.3900
 7762SOL    HW127843  10.774   5.587   6.059  0.1881 -1.0092  0.4947
 7762SOL    HW227844  10.702   5.474   5.988 -1.4472  1.0072 -1.1799
 7763SOL     OW27845  11.019   0.234   3.870 -0.5704  0.2086 -0.2478
 7763SOL    HW127846  10.977   0.232   3.956 -0.2566 -3.1882 -0.0193
 7763SOL    HW227847  11.081   0.307   3.875 -1.7100  1.1193  1.7862
 7764SOL     OW27848   1.510   0.742   9.001  0.4794  0.1746  0.4552
 7764SOL    HW127849   1.471   0.662   9.036  1.8255 -1.6375 -1.8788
 7764SOL    HW227850   1.435   0.795   8.973 -0.4115 -0.6084  1.2701
 7765SOL     OW27851  11.582   4.318   2.069 -0.5113  0.6363 -0.1579
 7765SOL    HW127852  11.573   4.285   1.980 -0.7011 -0.3027  0.1979
 7765SOL    HW227853  11.634   4.398   2.060  2.4911 -1.2156 -0.7851
 7766SOL     OW27854   7.445   3.535   4.002 -0.4059  0.1246  0.5870
 7766SOL    HW127855   7.532   3.544   4.042  0.1367 -2.2096  0.1142
 7766SOL    HW227856   7.447   3.592   3.926  1.0026 -0.4141  0.1895
 7767SOL     OW27857   7.880   9.460   9.283 -0.3071 -0.8029 -0.3715
 7767SOL    HW127858   7.837   9.505   9.210 -0.2413  0.4201  0.3129
 7767SOL    HW227859   7.891   9.528   9.349  0.5891 -1.6498  0.3715
 7768SOL     OW27860   1.649   5.700   4.671  0.1269  0.2931 -0.3696
 7768SOL    HW127861   1.685   5.613   4.688 -0.6528  0.3550  1.9479
 7768SOL    HW227862   1.616   5.696   4.581 -0.1199 -1.8896 -0.2193
 7769SOL     OW27863   9.795   2.223   3.768 -0.0093  0.9208 -0.0550
 7769SOL    HW127864   9.845   2.302   3.788 -0.3180  1.7455 -2.1861
 7769SOL    HW227865   9.856   2.151   3.783  0.8633  1.6966  0.2006
 7770SOL     OW27866  10.108   3.777   9.180  0.3514  0.2378 -0.0685
 7770SOL    HW127867  10.194   3.746   9.151  0.2849 -1.1246  1.0715
 7770SOL    HW227868  10.060   3.793   9.099  1.3506  0.0657 -0.7129
 7771SOL     OW27869   6.125   7.141  10.464 -0.4135 -0.2287 -0.7543
 7771SOL    HW127870   6.032   7.144  10.484 -0.5954 -0.7902 -1.4710
 7771SOL    HW227871   6.163   7.087  10.533 -0.3049  1.4259  0.5717
 7772SOL     OW27872   6.457   5.024   8.518 -0.5621 -0.4050 -0.2290
 7772SOL    HW127873   6.420   4.941   8.489 -1.0015 -1.2231  2.4182
 7772SOL    HW227874   6.431   5.031   8.610 -1.6300  3.2676 -0.6558
 7773SOL     OW27875   4.010   1.486   1.926 -0.1026  0.8147 -0.2232
 7773SOL    HW127876   3.949   1.451   1.862  0.3088 -1.6826  0.6464
 7773SOL    HW227877   4.097   1.463   1.891  0.1495  0.1174  0.8319
 7774SOL     OW27878  11.328   3.820  11.726  0.5246 -0.3232 -0.3449
 7774SOL    HW127879  11.309   3.824  11.633  1.0558  1.6758 -0.4212
 7774SOL    HW227880  11.281   3.743  11.758 -1.1465 -0.0123 -1.9287
 7775SOL     OW27881   3.226   3.729   2.300 -0.1507  0.4367  0.0814
 7775SOL    HW127882   3.236   3.775   2.217 -0.5552  0.6012  0.1222
 7775SOL    HW227883   3.298   3.761   2.355  1.2418 -1.0037 -0.7906
 7776SOL     OW27884   5.917  10.727   1.495 -0.0796 -0.0917  0.2734
 7776SOL    HW127885   6.005  10.743   1.529 -0.1485  1.3551 -0.1959
 7776SOL    HW227886   5.894  10.806   1.447 -1.6188 -0.4686  0.3255
 7777SOL     OW27887   6.891  10.408   3.361 -0.1978 -0.1698 -0.5039
 7777SOL    HW127888   6.830  10.475   3.332 -0.9285 -0.8048 -0.4489
 7777SOL    HW227889   6.977  10.449   3.353 -0.7050  1.1571  0.6072
 7778SOL     OW27890   0.419   6.995   5.970 -0.4787 -0.0692 -0.3904
 7778SOL    HW127891   0.461   6.915   5.937 -1.5824 -0.7933 -0.0912
 7778SOL    HW227892   0.342   6.964   6.018  0.1906  1.0446  1.5177
 7779SOL     OW27893  10.984   5.184   4.224  0.0509  0.3731  0.5610
 7779SOL    HW127894  11.066   5.233   4.211  0.5771 -0.4649  0.6472
 7779SOL    HW227895  10.966   5.145   4.138 -1.1062  1.7898  0.1122
 7780SOL     OW27896   3.320   0.846  11.901 -0.2686 -0.5261 -0.0198
 7780SOL    HW127897   3.339   0.863  11.809  2.3626 -1.9638  0.1629
 7780SOL    HW227898   3.233   0.884  11.915 -0.4965  0.2481 -2.9143
 7781SOL     OW27899   2.502   1.964   1.222  0.1908 -0.2614 -0.3802
 7781SOL    HW127900   2.538   1.980   1.135 -0.7618 -1.7427 -1.1001
 7781SOL    HW227901   2.522   1.872   1.240  0.8778  0.1718  1.2367
 7782SOL     OW27902   4.967   9.847   7.597  0.2541  0.1764 -0.8217
 7782SOL    HW127903   4.886   9.820   7.554 -0.2877  2.3106 -1.2484
 7782SOL    HW227904   4.973   9.942   7.582  1.3127  0.6094  1.6777
 7783SOL     OW27905  10.822   9.510   8.523 -0.2609 -0.0514 -0.0628
 7783SOL    HW127906  10.783   9.585   8.568  1.7585  2.0265 -1.5374
 7783SOL    HW227907  10.877   9.469   8.590  1.4105  2.0025 -0.0607
 7784SOL     OW27908   5.693   8.014   9.945 -0.2564  0.0922  0.0925
 7784SOL    HW127909   5.652   8.094   9.912  0.3009 -0.1082 -1.1821
 7784SOL    HW227910   5.633   7.944   9.920  1.1556 -0.3100 -2.6345
 7785SOL     OW27911   9.871   1.024  11.991 -0.8519 -0.1760  0.9008
 7785SOL    HW127912   9.825   1.010  11.908 -1.5727  1.1979  1.0187
 7785SOL    HW227913   9.907   0.939  12.015  1.5689 -0.1482 -2.0754
 7786SOL     OW27914   0.474   6.329   9.100 -0.2181  0.1152 -0.7209
 7786SOL    HW127915   0.433   6.243   9.093 -1.2214  0.3170  1.6034
 7786SOL    HW227916   0.409   6.390   9.067 -0.4153  0.1581 -0.2556
 7787SOL     OW27917   2.358   3.594  11.750 -0.4574 -0.6731  0.1237
 7787SOL    HW127918   2.369   3.503  11.721 -0.4141 -0.8554  0.6977
 7787SOL    HW227919   2.384   3.646  11.674 -1.3192 -1.1400 -0.5088
 7788SOL     OW27920   9.561   9.342   8.087 -0.0178  0.0949 -0.3646
 7788SOL    HW127921   9.584   9.273   8.149  1.4384  1.0599  0.2160
 7788SOL    HW227922   9.466   9.342   8.085 -0.0574 -1.1168  0.5466
 7789SOL     OW27923  11.055   0.830   9.854  0.0633 -0.4300  0.0437
 7789SOL    HW127924  11.140   0.845   9.814  0.1130  0.6008  0.4810
 7789SOL    HW227925  10.996   0.810   9.781  0.9138 -2.3635 -0.1415
 7790SOL     OW27926   2.588   4.248   4.709 -0.5206 -0.2252  0.2012
 7790SOL    HW127927   2.554   4.255   4.798 -0.3101  0.1078  0.2570
 7790SOL    HW227928   2.518   4.281   4.653  0.0400  1.3658  0.3793
 7791SOL     OW27929   4.392   3.789  10.204  0.0035 -0.0008  0.2945
 7791SOL    HW127930   4.340   3.720  10.162  0.4919 -0.0744 -0.2133
 7791SOL    HW227931   4.379   3.776  10.298 -0.2631 -0.5105  0.1905
 7792SOL     OW27932   8.341   3.393   6.031 -0.2715 -0.1088 -0.0085
 7792SOL    HW127933   8.349   3.378   6.125 -1.6228 -2.2038 -0.1768
 7792SOL    HW227934   8.407   3.336   5.991 -0.8035 -0.4581 -0.3985
 7793SOL     OW27935   2.903   8.360   9.780  0.1606 -0.6704 -0.0499
 7793SOL    HW127936   2.840   8.326   9.716 -1.4107  0.8858  0.5938
 7793SOL    HW227937   2.937   8.282   9.824  0.1402 -1.6707 -1.6930
 7794SOL     OW27938   9.504   0.704   3.464  0.5486  0.2164 -0.0720
 7794SOL    HW127939   9.438   0.772   3.451 -0.8007 -1.1499 -0.7470
 7794SOL    HW227940   9.482   0.664   3.548  1.1810  0.4424  0.2060
 7795SOL     OW27941   3.430   3.022   2.129  0.6814  0.4172 -0.4374
 7795SOL    HW127942   3.507   3.048   2.179  0.2662  1.7052 -0.4052
 7795SOL    HW227943   3.356   3.054   2.180  0.1321 -0.5235 -0.6217
 7796SOL     OW27944  10.887   6.624   2.478  0.2884 -0.0525  0.0314
 7796SOL    HW127945  10.881   6.636   2.573  0.7013  1.1319 -0.0655
 7796SOL    HW227946  10.875   6.530   2.465  0.3642 -0.2612  1.2677
 7797SOL     OW27947   2.809   8.734   2.276 -0.0191 -0.1036  0.1852
 7797SOL    HW127948   2.842   8.816   2.238 -2.0180  0.6307 -0.0915
 7797SOL    HW227949   2.857   8.725   2.358 -0.6143  2.0504  0.8375
 7798SOL     OW27950   1.085   8.997   0.881  0.0838  0.0920 -0.4334
 7798SOL    HW127951   1.035   8.930   0.928  0.0334  0.9524  0.8098
 7798SOL    HW227952   1.173   8.991   0.918  0.0573  0.7403 -0.2439
 7799SOL     OW27953   3.878   7.461   4.679  0.2422  0.4822 -0.2327
 7799SOL    HW127954   3.817   7.526   4.713  0.6051  0.5756  0.2484
 7799SOL    HW227955   3.878   7.391   4.745  0.6098  0.4546 -0.2588
 7800SOL     OW27956   6.301   5.288   8.626 -0.3606 -0.6794 -0.1210
 7800SOL    HW127957   6.242   5.263   8.555  0.8886 -2.4179 -0.6268
 7800SOL    HW227958   6.388   5.285   8.587  0.1424  1.1797  0.7782
 7801SOL     OW27959   7.946   4.278   2.391  0.1143 -0.6901  0.1318
 7801SOL    HW127960   8.038   4.300   2.381 -0.1176 -0.3511 -1.5636
 7801SOL    HW227961   7.920   4.244   2.305 -1.2091 -1.2670  0.7353
 7802SOL     OW27962   7.465  10.246   8.413 -0.4273  0.2560 -0.3292
 7802SOL    HW127963   7.372  10.267   8.427 -1.1767 -1.6849 -1.8079
 7802SOL    HW227964   7.470  10.226   8.319  1.6224  0.8221 -0.3803
 7803SOL     OW27965   2.408   6.307   7.611  0.1491 -0.0998  0.0323
 7803SOL    HW127966   2.324   6.340   7.580  1.4033  1.6370 -1.7251
 7803SOL    HW227967   2.464   6.307   7.533  2.3505  0.7381  1.5172
 7804SOL     OW27968  11.536   9.053   0.964  0.1502  0.1827 -0.0932
 7804SOL    HW127969  11.606   9.102   1.007  0.2059 -1.1769  1.4400
 7804SOL    HW227970  11.560   9.053   0.872  1.8309  0.2934  0.3189
 7805SOL     OW27971   7.942   5.503   8.601 -0.2027 -0.3866 -0.3549
 7805SOL    HW127972   7.872   5.510   8.666 -0.5890  0.3558 -0.8381
 7805SOL    HW227973   7.898   5.469   8.522  0.2052 -0.9899 -0.3335
 7806SOL     OW27974   1.521   7.408   3.875  0.1597 -0.6875  0.2065
 7806SOL    HW127975   1.557   7.328   3.912  0.7211 -1.0793 -1.1388
 7806SOL    HW227976   1.551   7.409   3.785 -0.7741  0.4765 -0.1252
 7807SOL     OW27977   9.787   0.157   6.921  0.0770 -0.1822  0.5349
 7807SOL    HW127978   9.718   0.218   6.895  1.6364  0.7203 -1.7710
 7807SOL    HW227979   9.833   0.200   6.993  0.8712  1.2305 -0.7628
 7808SOL     OW27980   0.766   3.818   7.940 -0.7430  0.2038  0.0106
 7808SOL    HW127981   0.826   3.781   7.875 -1.3307 -1.4189  0.3363
 7808SOL    HW227982   0.815   3.814   8.022 -0.0260  2.1900 -0.2648
 7809SOL     OW27983   8.068   5.592   8.243  0.4880 -0.0090  0.1850
 7809SOL    HW127984   8.060   5.595   8.147 -1.3210  2.1248  0.3189
 7809SOL    HW227985   8.150   5.638   8.261  0.1590  0.8153 -0.3244
 7810SOL     OW27986   1.777   0.387   0.523  0.2862  0.5275  0.0775
 7810SOL    HW127987   1.701   0.365   0.576  1.8411  1.2531  2.7772
 7810SOL    HW227988   1.757   0.349   0.437 -1.2942 -2.9890  1.7680
 7811SOL     OW27989   1.130   3.760  10.544 -0.1381 -0.5174  0.1230
 7811SOL    HW127990   1.218   3.787  10.518  0.4810 -2.4266  0.0717
 7811SOL    HW227991   1.082   3.842  10.558  1.9646  0.5771  1.2806
 7812SOL     OW27992   6.455   5.382  10.614  0.2774  0.2934 -0.0629
 7812SOL    HW127993   6.417   5.452  10.667  3.8464  1.6509  0.9798
 7812SOL    HW227994   6.417   5.394  10.527 -2.2434  0.8845  1.0285
 7813SOL     OW27995   3.855  10.753  10.211  0.5396 -0.3678  0.6762
 7813SOL    HW127996   3.913  10.680  10.232  0.5128 -0.9449 -1.0494
 7813SOL    HW227997   3.914  10.823  10.184  0.4863 -0.6186 -0.1119
 7814SOL     OW27998   0.525   6.114   3.190 -0.5356  0.3200  0.4153
 7814SOL    HW127999   0.602   6.124   3.246 -0.3949  1.0758  0.1018
 7814SOL    HW228000   0.463   6.180   3.222 -0.9189 -0.0462  0.4410
 7815SOL     OW28001   4.237  11.564   0.060 -0.2807 -0.2038  0.2080
 7815SOL    HW128002   4.163  11.619   0.033 -0.0810 -0.1634 -0.2761
 7815SOL    HW228003   4.288  11.620   0.118  0.2409  0.3415 -0.7538
 7816SOL     OW28004   0.532   9.077  11.056  0.3457  0.4583 -0.0850
 7816SOL    HW128005   0.513   9.013  10.987 -0.2039  0.9445 -0.3960
 7816SOL    HW228006   0.616   9.114  11.031  1.0042 -0.6173  0.4652
 7817SOL     OW28007  10.864   1.163   4.496  0.4465  0.2922 -0.0947
 7817SOL    HW128008  10.825   1.141   4.581  0.9946 -1.2372 -0.2022
 7817SOL    HW228009  10.790   1.167   4.436  0.0756  1.1863  0.3906
 7818SOL     OW28010   7.923   6.665   2.747  0.0555  0.3736 -0.2400
 7818SOL    HW128011   7.874   6.744   2.772 -0.0296  0.4071 -0.5090
 7818SOL    HW228012   7.939   6.676   2.654 -1.3749 -0.6922 -0.6389
 7819SOL     OW28013   7.518   5.190   6.517  0.4598  0.0501 -0.3690
 7819SOL    HW128014   7.551   5.110   6.476  1.1944  0.0579  0.1884
 7819SOL    HW228015   7.542   5.260   6.456 -0.4278 -0.1725 -0.9908
 7820SOL     OW28016   1.796   4.521   8.753 -0.4440 -0.4552 -0.1720
 7820SOL    HW128017   1.829   4.611   8.754  0.0995 -0.6491  0.4444
 7820SOL    HW228018   1.778   4.501   8.845  1.1923 -1.5963 -0.0603
 7821SOL     OW28019   9.001   0.331  10.580  0.0771  0.1718 -0.0984
 7821SOL    HW128020   8.928   0.347  10.521 -0.8363 -0.8982  0.7057
 7821SOL    HW228021   8.995   0.402  10.644 -0.7492 -0.3384  0.4108
 7822SOL     OW28022   6.645  11.835   9.375  0.1452  0.6874  0.1908
 7822SOL    HW128023   6.572  11.799   9.426  1.6640  0.2102  2.1459
 7822SOL    HW228024   6.604  11.900   9.318 -1.9053 -0.1218  0.6413
 7823SOL     OW28025  11.338   1.946   5.821  0.0352  0.2328 -0.0819
 7823SOL    HW128026  11.374   1.940   5.910  0.1310 -1.7241 -0.2098
 7823SOL    HW228027  11.414   1.946   5.764 -0.0511  0.7941 -0.2055
 7824SOL     OW28028  12.058  10.580   4.725  0.2882 -0.1358  0.1296
 7824SOL    HW128029  12.067  10.495   4.681  0.0917 -0.2363  0.2854
 7824SOL    HW228030  12.145  10.599   4.759  0.3255 -0.2869  0.1188
 7825SOL     OW28031   6.216   9.560   8.071 -0.0255  0.3144 -0.3796
 7825SOL    HW128032   6.211   9.531   7.980 -0.1112 -0.4182 -0.1425
 7825SOL    HW228033   6.152   9.631   8.076 -1.5508 -0.9958 -0.3860
 7826SOL     OW28034   9.356   7.518   1.632  0.1258  0.3518  0.0738
 7826SOL    HW128035   9.427   7.573   1.665 -0.4262  0.6455  0.8154
 7826SOL    HW228036   9.358   7.530   1.538 -0.7028  2.6096  0.2849
 7827SOL     OW28037   0.845  10.270   3.822  0.0879 -0.5271  0.1306
 7827SOL    HW128038   0.771  10.327   3.842 -0.9104 -1.3281 -1.0786
 7827SOL    HW228039   0.813  10.214   3.751  1.6660 -1.2997 -0.0140
 7828SOL     OW28040   6.289   7.059   0.204 -0.5045  0.6852 -0.4711
 7828SOL    HW128041   6.285   6.963   0.204 -0.1507  0.6689 -0.5398
 7828SOL    HW228042   6.293   7.083   0.111  1.5611  0.6613 -0.4322
 7829SOL     OW28043   6.755   4.406   7.062  0.5222 -0.0430  0.0224
 7829SOL    HW128044   6.698   4.465   7.013  1.7828  0.5887 -0.7475
 7829SOL    HW228045   6.698   4.335   7.091 -0.5840  0.4210 -0.9654
 7830SOL     OW28046   6.567   4.109   0.920 -0.7965 -0.1196  0.1188
 7830SOL    HW128047   6.500   4.077   0.980 -1.5857  0.1963 -0.5701
 7830SOL    HW228048   6.650   4.091   0.964 -1.2874 -1.4450  0.5415
 7831SOL     OW28049   1.983   2.418   8.814 -0.1217  0.0434  0.9506
 7831SOL    HW128050   1.973   2.512   8.824  0.5481  0.1384  0.7665
 7831SOL    HW228051   1.929   2.395   8.738  0.5881  0.4527  0.3089
 7832SOL     OW28052   4.483  11.149   3.386 -0.2079 -0.1039  0.3265
 7832SOL    HW128053   4.500  11.137   3.293 -0.8848 -1.0243  0.3130
 7832SOL    HW228054   4.521  11.072   3.428 -0.9484 -0.2776  0.6848
 7833SOL     OW28055   9.361   5.152   7.905 -0.3690  0.4923  0.0027
 7833SOL    HW128056   9.376   5.090   7.833 -0.5781 -0.0289  0.4022
 7833SOL    HW228057   9.266   5.157   7.914 -0.3668  1.3347 -0.4184
 7834SOL     OW28058   6.152   8.905   5.732 -0.4632 -0.6891  0.0758
 7834SOL    HW128059   6.195   8.965   5.794  1.6230 -1.4641 -0.5301
 7834SOL    HW228060   6.082   8.957   5.694 -0.1256  0.6532  1.1745
 7835SOL     OW28061  10.775   6.071  11.614  0.1871 -0.2778  0.2463
 7835SOL    HW128062  10.794   6.017  11.690  1.1785 -1.6836 -0.9281
 7835SOL    HW228063  10.680   6.063  11.601 -0.2289  1.0487  2.0373
 7836SOL     OW28064   3.416   4.176   6.644 -0.1296  0.5757 -0.3610
 7836SOL    HW128065   3.444   4.205   6.557 -0.0857 -0.2418 -0.6285
 7836SOL    HW228066   3.485   4.116   6.673 -1.3189 -1.0911 -0.8230
 7837SOL     OW28067   8.841   3.424  10.641  0.0304 -0.7582 -0.4291
 7837SOL    HW128068   8.751   3.417  10.675  0.7088  1.6156  2.1836
 7837SOL    HW228069   8.847   3.513  10.608  1.4937 -0.8093 -0.3436
 7838SOL     OW28070   5.921   7.846  12.060 -0.3117 -0.6736  0.0401
 7838SOL    HW128071   6.009   7.810  12.059 -1.0566 -2.8083  2.1986
 7838SOL    HW228072   5.914   7.892  12.144 -1.3593 -0.8381  0.0599
 7839SOL     OW28073   8.345  11.913   1.392 -0.0578  0.5112 -0.0613
 7839SOL    HW128074   8.387  11.888   1.475 -0.3269 -0.7935 -0.2853
 7839SOL    HW228075   8.324  12.005   1.402  1.1255  0.7190  0.8030
 7840SOL     OW28076   0.370   0.883   3.261  0.2525  0.1306 -0.4984
 7840SOL    HW128077   0.402   0.883   3.351  0.7076 -0.2327 -0.6543
 7840SOL    HW228078   0.409   0.960   3.221 -0.1257  0.4137 -0.3274
 7841SOL     OW28079   0.943   6.333   7.756 -0.4688 -0.3077  0.0688
 7841SOL    HW128080   0.937   6.305   7.848 -1.9255 -1.4562 -0.3361
 7841SOL    HW228081   0.885   6.409   7.750 -1.1336 -0.8293 -0.1111
 7842SOL     OW28082   1.632   2.121   4.620  0.4502 -0.4497  0.2882
 7842SOL    HW128083   1.694   2.125   4.693 -0.1810 -0.2666  0.8195
 7842SOL    HW228084   1.685   2.144   4.543  1.1977 -0.9847  0.6310
 7843SOL     OW28085   0.741   4.585   1.122  0.6338 -0.0616  0.2959
 7843SOL    HW128086   0.788   4.568   1.040 -0.6994 -1.8040 -0.1490
 7843SOL    HW228087   0.766   4.675   1.145 -0.3742  1.1890 -2.9746
 7844SOL     OW28088   8.083   3.479   9.393  0.1805  0.0598 -0.1261
 7844SOL    HW128089   8.065   3.558   9.445  0.7525  1.1320 -1.4978
 7844SOL    HW228090   8.086   3.409   9.457  1.1516  1.3758  1.3431
 7845SOL     OW28091   9.772   7.848   7.795  0.0067 -0.3552 -0.7764
 7845SOL    HW128092   9.858   7.877   7.826 -1.3003  2.6550  0.5050
 7845SOL    HW228093   9.716   7.852   7.872 -1.4372 -1.7383 -1.6864
 7846SOL     OW28094   3.812   1.646   8.115  0.6687  0.3520  0.1991
 7846SOL    HW128095   3.720   1.660   8.096  0.7866  0.8121 -0.0531
 7846SOL    HW228096   3.815   1.629   8.209  0.5233  2.2657  0.5844
 7847SOL     OW28097   6.672  11.139   4.145  0.1357  0.7898  0.2305
 7847SOL    HW128098   6.683  11.127   4.239  2.6002 -0.1444 -0.0816
 7847SOL    HW228099   6.614  11.068   4.118  0.2491  0.4229  0.9234
 7848SOL     OW28100   6.395  10.830   9.302 -0.3425  0.5884 -0.0667
 7848SOL    HW128101   6.343  10.823   9.221  0.3668  0.7939 -0.5511
 7848SOL    HW228102   6.444  10.911   9.292  1.2382 -0.3540 -0.3387
 7849SOL     OW28103   0.849   7.477   2.215  0.3494 -0.1145  0.2592
 7849SOL    HW128104   0.772   7.464   2.159  3.3215 -2.7389 -3.7409
 7849SOL    HW228105   0.886   7.560   2.185  0.0882  0.2597  0.9435
 7850SOL     OW28106   4.534   3.826   3.497 -0.1081  0.2224  0.0102
 7850SOL    HW128107   4.514   3.885   3.424  0.8003  0.7092  0.1332
 7850SOL    HW228108   4.560   3.744   3.454  1.1180  0.7280 -0.2665
 7851SOL     OW28109   5.777  11.786   8.130 -0.0881 -0.0500 -0.2068
 7851SOL    HW128110   5.778  11.832   8.046 -0.6703  0.2348 -0.0615
 7851SOL    HW228111   5.823  11.845   8.190 -1.4355  0.6734  0.1402
 7852SOL     OW28112   3.403   6.186   5.225  0.1789 -0.2057  0.4351
 7852SOL    HW128113   3.388   6.093   5.213  1.0319 -0.4434  1.0637
 7852SOL    HW228114   3.481   6.205   5.172 -1.7629  0.8664 -2.2952
 7853SOL     OW28115   7.774   3.783   0.608 -0.0289 -0.3955 -0.0918
 7853SOL    HW128116   7.865   3.792   0.578 -0.1015 -0.7554 -0.4346
 7853SOL    HW228117   7.776   3.812   0.699 -0.0305  1.8801 -0.7458
 7854SOL     OW28118   2.644   1.141   3.099  0.1089 -0.2123  0.0302
 7854SOL    HW128119   2.641   1.063   3.043  3.3225  0.0757 -0.7130
 7854SOL    HW228120   2.639   1.214   3.037  1.3883  0.1076  0.2779
 7855SOL     OW28121   4.586   2.633  11.415 -0.0486  0.0932  0.1660
 7855SOL    HW128122   4.548   2.684  11.344 -1.5890 -1.9548 -0.5867
 7855SOL    HW228123   4.645   2.571  11.372  1.6549  1.0198  1.0365
 7856SOL     OW28124  10.390   5.298  10.402 -0.2937 -0.5979 -0.0520
 7856SOL    HW128125  10.395   5.391  10.380  0.9989  0.0457  2.5350
 7856SOL    HW228126  10.464   5.258  10.356 -0.5264 -0.2535 -0.7308
 7857SOL     OW28127   3.277   5.680   9.111  0.0732 -0.2619 -0.7240
 7857SOL    HW128128   3.298   5.736   9.036  0.9624  0.2125 -0.1357
 7857SOL    HW228129   3.286   5.737   9.187 -3.8902  0.1572 -0.3480
 7858SOL     OW28130   7.262   2.275   9.801 -0.1013 -0.0643 -0.0318
 7858SOL    HW128131   7.180   2.241   9.766 -1.0385  1.8958  0.1162
 7858SOL    HW228132   7.248   2.370   9.808  1.6729  0.1576  1.3341
 7859SOL     OW28133   5.671   2.423   2.787 -0.0649 -0.6359  0.5133
 7859SOL    HW128134   5.729   2.492   2.755  2.0509 -2.0593  1.0792
 7859SOL    HW228135   5.600   2.469   2.832  0.9884  1.1565  0.3920
 7860SOL     OW28136  10.785   3.940   3.100 -0.0738 -0.6258 -0.0010
 7860SOL    HW128137  10.700   3.913   3.135  0.0593 -1.0960 -0.0438
 7860SOL    HW228138  10.819   3.863   3.056 -0.7130  0.2490 -2.1383
 7861SOL     OW28139  12.101   3.062  11.348  0.4138  0.3612 -0.4965
 7861SOL    HW128140  12.048   2.990  11.315 -0.0857  0.6311 -0.2883
 7861SOL    HW228141  12.048   3.140  11.334  0.8893  0.6758 -0.5826
 7862SOL     OW28142  11.433  10.635   7.910 -0.8812  0.4818  0.2947
 7862SOL    HW128143  11.364  10.667   7.969 -1.1604  1.2908 -0.4491
 7862SOL    HW228144  11.511  10.684   7.935 -0.5223 -0.5060  1.2038
 7863SOL     OW28145   1.007   1.723   0.310  0.0722 -0.1963  0.6750
 7863SOL    HW128146   1.095   1.711   0.345  0.2935  2.5124  1.3375
 7863SOL    HW228147   0.961   1.642   0.330  2.1587 -1.3524  1.0621
 7864SOL     OW28148   3.388   9.243   4.022  0.0049 -0.2291  0.4599
 7864SOL    HW128149   3.357   9.173   3.965 -0.4888 -0.4229  0.9680
 7864SOL    HW228150   3.481   9.253   3.999 -0.0648 -0.6540 -0.0155
 7865SOL     OW28151  10.388   1.012   5.388 -0.1650  0.0122 -0.0370
 7865SOL    HW128152  10.373   0.983   5.298 -1.0865  1.0330 -0.2394
 7865SOL    HW228153  10.338   0.950   5.441 -1.0746  0.4299 -0.3700
 7866SOL     OW28154   3.987   9.853   3.498  0.4307 -0.0595  0.3680
 7866SOL    HW128155   3.897   9.828   3.480  0.4697  0.6171 -0.8076
 7866SOL    HW228156   4.022   9.779   3.549  0.3597 -2.2108 -2.4574
 7867SOL     OW28157   2.717   8.285   4.246  0.0621  0.1411 -0.2997
 7867SOL    HW128158   2.647   8.348   4.265  0.0418 -0.2558  1.0035
 7867SOL    HW228159   2.672   8.201   4.241  0.5620 -0.3129  1.8378
 7868SOL     OW28160   4.501   3.276   0.391 -0.2664  0.0418  0.0155
 7868SOL    HW128161   4.469   3.309   0.475 -0.7294 -0.2478 -0.0388
 7868SOL    HW228162   4.438   3.310   0.327 -0.3681 -0.3983 -0.1182
 7869SOL     OW28163   0.769   9.989   1.200 -0.4044  0.7539 -0.5457
 7869SOL    HW128164   0.716   9.975   1.278  2.0064 -1.4103  0.8764
 7869SOL    HW228165   0.772   9.904   1.157  4.3482 -0.3158  1.2682
 7870SOL     OW28166   2.064  10.564   4.811  0.1194 -0.0876  0.1489
 7870SOL    HW128167   2.036  10.597   4.897 -0.8609 -0.6825  0.0720
 7870SOL    HW228168   2.138  10.507   4.830  1.1041  1.2202  0.4014
 7871SOL     OW28169  10.713   2.657   3.038  0.0461 -0.4675  0.1442
 7871SOL    HW128170  10.777   2.657   3.109  0.9888  0.4846 -0.6750
 7871SOL    HW228171  10.758   2.698   2.964 -1.5293  0.3189 -0.4373
 7872SOL     OW28172   9.212  10.281   0.813 -0.0413 -0.5799 -0.4011
 7872SOL    HW128173   9.222  10.190   0.784 -1.3624 -0.3425 -1.7183
 7872SOL    HW228174   9.185  10.328   0.734  0.3603  0.9197  0.3263
 7873SOL     OW28175   4.575   3.169   7.303 -0.4800 -0.3021 -0.5639
 7873SOL    HW128176   4.542   3.202   7.219  0.0579  1.1933 -0.2271
 7873SOL    HW228177   4.562   3.242   7.364  1.7409 -0.2868 -0.0086
 7874SOL     OW28178   7.005   2.645   8.529 -0.6338 -0.3300 -0.4083
 7874SOL    HW128179   6.945   2.683   8.593 -1.2195 -0.2491 -1.0016
 7874SOL    HW228180   7.013   2.553   8.554 -0.6102 -0.2273 -0.0344
 7875SOL     OW28181   9.504   2.157   7.078  0.4219 -0.3022  0.3302
 7875SOL    HW128182   9.565   2.193   7.143  2.4644 -0.8591 -1.1632
 7875SOL    HW228183   9.489   2.230   7.017  0.2011 -0.3903  0.2782
 7876SOL     OW28184  11.744   3.351  11.040  0.5286 -0.0717 -0.3867
 7876SOL    HW128185  11.796   3.282  11.081  3.1295  1.3896 -1.0161
 7876SOL    HW228186  11.721   3.316  10.954 -0.0810 -0.9702  0.1281
 7877SOL     OW28187   6.387   9.424   7.581 -0.1369  0.3474  0.0340
 7877SOL    HW128188   6.400   9.330   7.590  1.1781  0.5105  0.0115
 7877SOL    HW228189   6.323   9.433   7.509 -1.6124 -0.5583  1.1813
 7878SOL     OW28190  11.599   9.560   8.018  0.0492  0.0748  0.2746
 7878SOL    HW128191  11.680   9.533   7.974  1.1878  2.4720  0.7392
 7878SOL    HW228192  11.533   9.501   7.983  1.5569 -0.4743 -1.9180
 7879SOL     OW28193   0.684   2.752   9.631  0.5493  0.8388 -0.0616
 7879SOL    HW128194   0.611   2.692   9.649  0.1759  1.8356  2.1728
 7879SOL    HW228195   0.643   2.829   9.592  0.3326  1.4003  1.1969
 7880SOL     OW28196   1.729   1.010   1.163  0.6592  0.4746 -0.3585
 7880SOL    HW128197   1.790   0.942   1.137  0.8879  0.2774  0.6511
 7880SOL    HW228198   1.694   1.044   1.081  0.6123 -0.7957 -0.8809
 7881SOL     OW28199   5.040   4.795  10.302 -0.5893  0.8290  0.2916
 7881SOL    HW128200   5.113   4.854  10.318 -1.9073  2.8858 -0.8611
 7881SOL    HW228201   4.980   4.811  10.374 -0.9319  0.8706 -0.0017
 7882SOL     OW28202   0.636   0.152   8.899  0.2055 -0.1286  0.1585
 7882SOL    HW128203   0.712   0.118   8.946  2.1254 -0.0633 -2.6603
 7882SOL    HW228204   0.652   0.246   8.891 -0.1993 -0.1029 -0.4045
 7883SOL     OW28205   3.666   4.157   7.169  0.9080  0.0763  0.2074
 7883SOL    HW128206   3.717   4.103   7.108  0.5581  0.1835 -0.1908
 7883SOL    HW228207   3.578   4.160   7.130 -0.2374 -2.4295  2.2766
 7884SOL     OW28208  11.975   2.371  11.420 -0.3053  0.2477 -0.3808
 7884SOL    HW128209  11.912   2.443  11.430 -2.7421 -1.5623 -1.6357
 7884SOL    HW228210  11.968   2.321  11.501  1.3205  1.2713  0.4509
 7885SOL     OW28211   6.763   9.430   1.662  0.3201 -0.6755  0.0357
 7885SOL    HW128212   6.691   9.384   1.618 -1.0907  0.2086  1.3088
 7885SOL    HW228213   6.819   9.360   1.696 -0.3350 -1.3972 -0.3361
 7886SOL     OW28214  12.033   4.476   7.996  0.7896  0.1820 -0.2125
 7886SOL    HW128215  12.073   4.488   7.910  1.2574  2.2752  0.2481
 7886SOL    HW228216  12.056   4.555   8.044 -0.7506 -0.2665  1.3421
 7887SOL     OW28217   9.910  10.133   7.283 -0.1809  0.0165  0.2187
 7887SOL    HW128218   9.860  10.215   7.288 -1.5121 -0.7034 -0.6445
 7887SOL    HW228219   9.850  10.067   7.317  1.2072 -0.5014  1.7996
 7888SOL     OW28220   3.559   0.996  11.104 -0.0810 -0.2516 -0.2063
 7888SOL    HW128221   3.497   0.954  11.043 -3.4291  2.0753  1.2488
 7888SOL    HW228222   3.541   0.955  11.188  0.9025 -0.0309  0.1164
 7889SOL     OW28223  11.643   7.657  11.353 -0.2959 -0.1936  0.0154
 7889SOL    HW128224  11.736   7.637  11.363 -0.4172 -0.4373  0.7175
 7889SOL    HW228225  11.634   7.683  11.262  0.1730 -1.7844 -0.5178
 7890SOL     OW28226   6.770   3.295  11.642 -0.1047  0.1329 -0.5646
 7890SOL    HW128227   6.799   3.257  11.725 -0.8627 -1.4172 -0.9626
 7890SOL    HW228228   6.850   3.309  11.592  0.2867  0.2278  0.0827
 7891SOL     OW28229   9.559   3.427   3.754 -0.3558 -0.3781  0.2374
 7891SOL    HW128230   9.574   3.419   3.660 -0.7504 -0.6167  0.1931
 7891SOL    HW228231   9.464   3.438   3.762 -0.6473 -2.8347  0.7749
 7892SOL     OW28232  11.615   9.687  10.206  0.0331 -0.1955  0.1481
 7892SOL    HW128233  11.602   9.700  10.300  1.2751 -0.6094  0.4019
 7892SOL    HW228234  11.630   9.775  10.171 -1.6618  0.1053  0.1076
 7893SOL     OW28235   3.651  10.782   6.554 -0.4335 -0.0706 -0.4032
 7893SOL    HW128236   3.576  10.839   6.575 -0.4229 -0.4657  0.8041
 7893SOL    HW228237   3.617  10.693   6.564  0.1483 -0.2549  0.0286
 7894SOL     OW28238   9.818   5.231   5.108 -0.2061  0.5322  0.6960
 7894SOL    HW128239   9.883   5.200   5.045  0.1432  1.8659  0.3765
 7894SOL    HW228240   9.780   5.151   5.144  0.9527 -0.2626  0.2099
 7895SOL     OW28241   3.683   8.192  10.981  0.1839 -0.4194 -0.1850
 7895SOL    HW128242   3.668   8.194  11.076 -1.9562 -0.2914 -0.4765
 7895SOL    HW228243   3.635   8.267  10.947  1.6586  0.0561 -1.3113
 7896SOL     OW28244   4.971   4.507   9.572 -0.6512  0.0552  0.4136
 7896SOL    HW128245   5.060   4.487   9.602  0.1428  4.2552  1.4614
 7896SOL    HW228246   4.921   4.524   9.652 -0.4913  4.0973 -0.1332
 7897SOL     OW28247   5.175   0.982  11.901 -0.2594 -0.1779 -0.4260
 7897SOL    HW128248   5.163   1.010  11.992 -0.0153 -0.5410 -0.2828
 7897SOL    HW228249   5.196   0.889  11.906  0.8466  0.0367 -0.7877
 7898SOL     OW28250   1.217   9.581  11.683 -0.1471 -0.3148  0.0481
 7898SOL    HW128251   1.249   9.604  11.596 -1.5912  0.0174 -0.4240
 7898SOL    HW228252   1.133   9.625  11.689 -0.0025 -0.2234  1.6812
 7899SOL     OW28253   6.894   3.492   7.072  0.2526 -0.0719  0.7730
 7899SOL    HW128254   6.943   3.411   7.057 -1.1694 -1.2558  2.1038
 7899SOL    HW228255   6.937   3.557   7.017  0.2476 -2.1572 -1.8813
 7900SOL     OW28256   6.420   0.031  10.912  0.1571  0.3695 -0.2924
 7900SOL    HW128257   6.502  -0.017  10.898 -0.3541 -0.3658 -0.8576
 7900SOL    HW228258   6.420   0.053  11.005  0.5850 -0.4012 -0.1041
 7901SOL     OW28259  11.866   1.353   2.283 -0.1947 -0.3082  0.5771
 7901SOL    HW128260  11.933   1.290   2.256  0.5944  0.4730  0.6839
 7901SOL    HW228261  11.880   1.363   2.377 -0.7528 -0.4730  0.6794
 7902SOL     OW28262  10.116  11.859   2.085 -0.6414  0.3962 -0.2740
 7902SOL    HW128263  10.021  11.865   2.095 -0.7150  0.6186 -1.0289
 7902SOL    HW228264  10.131  11.878   1.992  0.2083  1.2827  0.0249
 7903SOL     OW28265   7.197   5.886   4.090 -0.7011  0.1612  0.4094
 7903SOL    HW128266   7.281   5.841   4.094 -0.5986  0.4407  2.6140
 7903SOL    HW228267   7.179   5.895   3.997  1.2252 -0.7980 -0.1026
 7904SOL     OW28268   2.403  10.976   1.548  0.2337 -0.5092 -0.2380
 7904SOL    HW128269   2.445  10.892   1.569 -1.2585 -0.4561  3.8501
 7904SOL    HW228270   2.465  11.042   1.578  0.3638 -0.1727 -1.2089
 7905SOL     OW28271   0.161  11.947   5.704 -0.6269  0.4570  0.3710
 7905SOL    HW128272   0.139  12.012   5.638 -1.7363  0.3259  0.5966
 7905SOL    HW228273   0.098  11.961   5.774 -1.2236 -1.1818  0.2103
 7906SOL     OW28274   3.011   8.782   1.620  0.2377 -0.1015  0.1539
 7906SOL    HW128275   3.080   8.722   1.649 -0.2466 -0.8834 -0.2916
 7906SOL    HW228276   2.930   8.734   1.632 -0.2270  0.7612  0.5186
 7907SOL     OW28277   4.381  10.838   3.988 -0.8175 -0.1832  0.1392
 7907SOL    HW128278   4.437  10.914   3.971 -0.0374  0.0163  3.0525
 7907SOL    HW228279   4.436  10.763   3.970 -0.1348  0.0044  1.3727
 7908SOL     OW28280   6.836   3.208   0.212  0.1953  0.1697 -0.0200
 7908SOL    HW128281   6.911   3.264   0.234  0.4633  0.3925 -1.4082
 7908SOL    HW228282   6.874   3.136   0.162 -0.5835  0.6379 -1.3359
 7909SOL     OW28283   2.669   0.559   7.834 -1.1743 -0.1080  0.0041
 7909SOL    HW128284   2.621   0.641   7.833  1.8870  1.9496 -3.2224
 7909SOL    HW228285   2.708   0.554   7.921 -0.3360  2.6675 -0.1388
 7910SOL     OW28286   4.745  11.987   0.040  0.5648 -0.2940  0.5359
 7910SOL    HW128287   4.761  12.080   0.055  0.2674 -0.6400  3.4230
 7910SOL    HW228288   4.651  11.977   0.050  0.5755 -0.8957  0.0964
 7911SOL     OW28289  11.669   8.471   3.607  0.1500 -0.3161 -0.1292
 7911SOL    HW128290  11.650   8.383   3.640 -1.3437  0.5992  1.7230
 7911SOL    HW228291  11.728   8.509   3.673 -0.5389  0.5877 -0.0053
 7912SOL     OW28292  10.568   0.417   3.339 -0.2208 -0.2438 -0.3203
 7912SOL    HW128293  10.582   0.490   3.279  0.4793 -0.0561  0.0603
 7912SOL    HW228294  10.477   0.425   3.366 -0.2287  0.3168 -0.5052
 7913SOL     OW28295   4.313   0.087   2.090 -0.1645  0.0519  0.5597
 7913SOL    HW128296   4.286  -0.005   2.088  1.8763 -0.6310  1.2297
 7913SOL    HW228297   4.303   0.113   2.181 -1.1548  0.6561  0.2888
 7914SOL     OW28298   6.567   7.184  11.427 -0.8660  0.0279 -0.2949
 7914SOL    HW128299   6.588   7.099  11.388 -0.0058 -0.5216  1.2545
 7914SOL    HW228300   6.489   7.167  11.479 -0.6805  0.1690  0.0313
 7915SOL     OW28301   0.413   1.572  11.028 -0.0853  0.0754  0.0207
 7915SOL    HW128302   0.472   1.532  10.964 -0.8958 -2.6977  0.8706
 7915SOL    HW228303   0.326   1.563  10.989 -0.2801  1.3229  0.1291
 7916SOL     OW28304   3.867   3.665   4.918  0.3409  0.2283 -0.6481
 7916SOL    HW128305   3.908   3.668   4.831  0.1283  2.2340 -0.7231
 7916SOL    HW228306   3.777   3.694   4.904  0.4025  0.9282  0.2707
 7917SOL     OW28307   1.933   7.821   9.549  0.0754 -0.0747 -0.1187
 7917SOL    HW128308   1.874   7.847   9.478  2.0632  0.5167 -1.6530
 7917SOL    HW228309   1.983   7.748   9.512  0.2069 -0.6710  1.2041
 7918SOL     OW28310   8.654   3.921   2.562  0.0372 -0.6489  0.5731
 7918SOL    HW128311   8.708   3.889   2.490  1.0121 -3.7316  2.4982
 7918SOL    HW228312   8.569   3.878   2.549 -0.8029  1.1963 -0.3441
 7919SOL     OW28313   8.391  11.513   8.499 -0.2310 -0.4480 -0.4973
 7919SOL    HW128314   8.393  11.499   8.593 -2.1849  0.2974 -0.2908
 7919SOL    HW228315   8.431  11.599   8.486 -1.6090  0.2737 -0.1150
 7920SOL     OW28316   3.368   9.930   3.744 -0.0119  0.1569  0.6597
 7920SOL    HW128317   3.278   9.953   3.722  0.1028 -0.5876 -0.8030
 7920SOL    HW228318   3.372   9.934   3.839 -1.9194 -0.9002  0.8457
 7921SOL     OW28319  10.069   1.600  11.783  0.1937 -0.0357 -0.1177
 7921SOL    HW128320  10.119   1.552  11.849  0.1538  1.6224  1.1938
 7921SOL    HW228321  10.055   1.686  11.822 -0.8621  0.6166 -1.8290
 7922SOL     OW28322   7.675   1.113  11.489 -0.1080  0.1584 -0.2011
 7922SOL    HW128323   7.766   1.139  11.500  0.5412 -1.7462 -0.7275
 7922SOL    HW228324   7.658   1.054  11.563 -0.7516  0.0667 -0.4156
 7923SOL     OW28325   2.511   5.749   4.635  0.0679  0.1412 -0.0947
 7923SOL    HW128326   2.536   5.708   4.552  1.5739 -1.1241  0.9433
 7923SOL    HW228327   2.466   5.680   4.683 -0.5150  0.7772  0.2921
 7924SOL     OW28328   2.509   1.674   9.342  0.4815  0.1678 -0.2446
 7924SOL    HW128329   2.415   1.669   9.355  0.2559  0.5671 -1.5899
 7924SOL    HW228330   2.535   1.757   9.383  0.2407  0.0933  0.0606
 7925SOL     OW28331  11.539   5.612   7.311 -0.3929 -0.5105 -0.6662
 7925SOL    HW128332  11.535   5.650   7.223  0.3132 -0.9243 -0.8897
 7925SOL    HW228333  11.460   5.643   7.355  0.4080  1.6786 -0.6388
 7926SOL     OW28334   7.662   6.228   7.460 -0.2354  0.4216 -0.2031
 7926SOL    HW128335   7.620   6.296   7.407  0.8003  1.7960  0.6724
 7926SOL    HW228336   7.743   6.269   7.491  1.0590 -1.6384 -0.6538
 7927SOL     OW28337   3.171   4.168   8.573  0.1287  0.3433 -0.1418
 7927SOL    HW128338   3.246   4.190   8.516  0.5105 -0.0115  0.2192
 7927SOL    HW228339   3.120   4.106   8.521  1.4052 -1.3730  0.5547
 7928SOL     OW28340   9.994   8.908   5.540  0.1049  0.8480  0.6116
 7928SOL    HW128341  10.043   8.848   5.596  0.5702  0.4344 -0.2084
 7928SOL    HW228342   9.962   8.976   5.599  1.1057  0.7606  1.2822
 7929SOL     OW28343  10.973  11.018   3.956 -0.6796 -0.1939  0.5453
 7929SOL    HW128344  10.959  10.924   3.949  0.7889 -0.3506 -0.8095
 7929SOL    HW228345  10.903  11.057   3.903 -0.8272 -0.5564  0.4707
 7930SOL     OW28346   8.758   9.791   9.529 -0.0021  0.5808  0.0313
 7930SOL    HW128347   8.704   9.819   9.455  1.4835  1.9329 -0.6044
 7930SOL    HW228348   8.731   9.847   9.601 -1.1585 -0.4580  0.4514
 7931SOL     OW28349   0.331   8.522   4.032 -0.2621  0.0487  0.0285
 7931SOL    HW128350   0.404   8.543   3.973 -1.0064  1.6911 -0.3657
 7931SOL    HW228351   0.349   8.432   4.061  2.5641  0.7893  0.9054
 7932SOL     OW28352  11.724   9.838  11.546  0.3063  0.6927  0.1074
 7932SOL    HW128353  11.792   9.794  11.494 -0.3637  1.8082 -1.7909
 7932SOL    HW228354  11.697   9.771  11.609  1.7930 -0.4258 -0.3620
 7933SOL     OW28355   9.064  11.731   2.494 -0.6931 -0.1499 -0.1214
 7933SOL    HW128356   9.104  11.657   2.540  0.5404  0.2859 -0.4525
 7933SOL    HW228357   9.115  11.807   2.522 -2.0975  0.6407  0.4090
 7934SOL     OW28358   7.481   7.447   7.701  0.3237  0.4076 -0.2074
 7934SOL    HW128359   7.441   7.502   7.634 -1.9223 -0.5191  0.2674
 7934SOL    HW228360   7.479   7.358   7.664 -1.9090 -0.2895  1.3785
 7935SOL     OW28361   3.823   1.642   8.424  0.2388 -0.3203  0.3014
 7935SOL    HW128362   3.764   1.688   8.485 -0.4362 -0.3420 -0.3162
 7935SOL    HW228363   3.908   1.682   8.438 -0.2888  0.9917 -0.0587
 7936SOL     OW28364   6.144   6.492   4.996  0.3613 -0.3713  0.2477
 7936SOL    HW128365   6.159   6.486   5.090 -0.5421  0.8448  0.4875
 7936SOL    HW228366   6.232   6.502   4.959  0.6275  0.5812  1.0913
 7937SOL     OW28367  11.577  11.658   6.661 -0.4939  0.0665 -0.2742
 7937SOL    HW128368  11.512  11.727   6.645 -1.0274 -0.7395 -1.7290
 7937SOL    HW228369  11.573  11.643   6.755 -2.1351  0.3323 -0.2748
 7938SOL     OW28370   0.940   9.986   6.176 -0.5850 -0.2171  0.0118
 7938SOL    HW128371   0.867   9.957   6.231 -0.8475  0.3025 -0.0517
 7938SOL    HW228372   1.001   9.913   6.176 -1.4080 -0.9220 -0.4717
 7939SOL     OW28373   9.359   3.827   1.483  0.2500  0.3212  0.3674
 7939SOL    HW128374   9.283   3.840   1.427 -0.2011  0.4896  1.0100
 7939SOL    HW228375   9.396   3.743   1.455 -0.5429 -0.0737  0.4839
 7940SOL     OW28376   9.767  10.344   0.840  0.2780 -0.2341 -0.5123
 7940SOL    HW128377   9.845  10.398   0.838  0.2491 -0.1307  0.6289
 7940SOL    HW228378   9.710  10.385   0.904  0.6400 -2.0901  1.0978
 7941SOL     OW28379   8.084   5.618   5.967 -0.2359  0.4522 -0.3716
 7941SOL    HW128380   8.018   5.573   5.914  0.4297  2.0131 -2.6681
 7941SOL    HW228381   8.137   5.667   5.903  1.4277  1.4247  1.6429
 7942SOL     OW28382   2.121   6.071   6.472 -0.3365  0.0214 -0.2297
 7942SOL    HW128383   2.069   6.044   6.547 -0.3334 -0.5799 -0.4390
 7942SOL    HW228384   2.208   6.034   6.488  0.0233  0.9977  0.1034
 7943SOL     OW28385  11.267   1.535   2.034 -0.2311  0.2511  0.7145
 7943SOL    HW128386  11.330   1.466   2.016 -0.1695  0.5871 -0.4114
 7943SOL    HW228387  11.304   1.583   2.107 -0.2050 -0.8006  1.4260
 7944SOL     OW28388   9.478  11.459  11.998  0.0525  0.1348 -0.0932
 7944SOL    HW128389   9.559  11.509  11.994 -0.3886  0.7900 -1.3640
 7944SOL    HW228390   9.423  11.496  11.929 -1.7451  0.3976  1.3910
 7945SOL     OW28391   9.198   6.149   9.551 -0.2157  0.4565 -0.4554
 7945SOL    HW128392   9.170   6.202   9.626  1.5598 -1.3681  1.6596
 7945SOL    HW228393   9.281   6.188   9.524  0.0473  0.0392 -0.2613
 7946SOL     OW28394   7.974   3.541   5.943  0.1546 -0.5927  0.2364
 7946SOL    HW128395   8.004   3.605   5.878  1.7374 -2.2854 -0.7833
 7946SOL    HW228396   7.883   3.565   5.960  0.1636  0.8219 -1.4543
 7947SOL     OW28397   6.902   2.847   7.957 -0.3309  0.1946 -0.0427
 7947SOL    HW128398   6.967   2.861   8.025 -0.6606  2.6415 -0.1099
 7947SOL    HW228399   6.936   2.895   7.881 -0.8858 -0.8543 -0.9848
 7948SOL     OW28400   9.527   3.500   1.853  0.4358 -0.1715 -0.1686
 7948SOL    HW128401   9.616   3.508   1.820 -0.6240 -1.4646 -3.7909
 7948SOL    HW228402   9.484   3.582   1.829 -0.1070 -0.7601 -1.2856
 7949SOL     OW28403   2.078   6.381   4.132  0.0092 -0.2046  0.0815
 7949SOL    HW128404   2.002   6.373   4.189  1.1217  1.0864  1.8328
 7949SOL    HW228405   2.135   6.307   4.156  0.0959 -0.1626  0.0090
 7950SOL     OW28406   7.518   8.137   2.652 -0.2139 -0.0398 -0.0899
 7950SOL    HW128407   7.440   8.098   2.691  0.3730  1.8348  3.3861
 7950SOL    HW228408   7.501   8.231   2.654  2.0365  0.4173  0.7125
 7951SOL     OW28409   6.030   4.758  11.462  0.4549  0.1383  0.4748
 7951SOL    HW128410   6.070   4.739  11.378  0.6009 -0.3992  0.6597
 7951SOL    HW228411   6.064   4.690  11.521 -1.1324 -0.6929  0.5122
 7952SOL     OW28412   0.232   7.568  11.096 -0.1006 -0.3281  0.4189
 7952SOL    HW128413   0.215   7.475  11.084  1.8997 -0.8245  1.0574
 7952SOL    HW228414   0.231   7.605  11.007 -0.8456 -0.9513  0.1617
 7953SOL     OW28415   5.123   7.331  10.631 -0.8315 -0.6123 -0.2857
 7953SOL    HW128416   5.143   7.315  10.539  0.2302 -0.2215 -0.1412
 7953SOL    HW228417   5.153   7.420  10.647 -1.6353 -0.4305  0.2771
 7954SOL     OW28418   5.120   6.351   9.681  0.4287  0.0738 -0.3201
 7954SOL    HW128419   5.140   6.299   9.603 -0.5594  1.3057 -1.4433
 7954SOL    HW228420   5.072   6.427   9.647 -3.1187 -0.9847  1.7883
 7955SOL     OW28421   7.888   0.581   3.764  0.1762  0.3431 -0.1249
 7955SOL    HW128422   7.836   0.535   3.698  0.0584 -2.5844  1.8268
 7955SOL    HW228423   7.967   0.528   3.774  0.3192  0.8441  1.8698
 7956SOL     OW28424  11.503   3.888   2.948  0.3760 -0.1051  0.5216
 7956SOL    HW128425  11.497   3.803   2.906 -0.3335  0.9333 -1.6190
 7956SOL    HW228426  11.591   3.918   2.929  0.8273 -0.5552  1.7736
 7957SOL     OW28427   2.308   2.975   2.456 -0.0862  0.0404 -0.1924
 7957SOL    HW128428   2.401   2.999   2.455 -0.3107  1.0282 -1.4992
 7957SOL    HW228429   2.271   3.025   2.529  0.0720  1.2066 -0.8788
 7958SOL     OW28430   1.806   3.579   3.135  0.4168 -0.7008  0.0222
 7958SOL    HW128431   1.877   3.643   3.125 -0.4448  0.8294  2.5801
 7958SOL    HW228432   1.759   3.582   3.052  2.1020 -0.1958 -0.9680
 7959SOL     OW28433  11.335   7.001   8.381  0.1385  0.0815  0.3103
 7959SOL    HW128434  11.415   6.949   8.389 -0.1224 -0.3455  0.1667
 7959SOL    HW228435  11.276   6.947   8.329 -0.2673  0.3717  0.4629
 7960SOL     OW28436   6.730   9.331  11.504 -0.5172  0.5850  0.4299
 7960SOL    HW128437   6.756   9.306  11.593  0.6585 -1.6139 -0.4441
 7960SOL    HW228438   6.635   9.321  11.503 -0.2944 -2.6160  0.6486
 7961SOL     OW28439   4.517   8.453   2.612 -0.6260 -0.0223 -0.7765
 7961SOL    HW128440   4.601   8.414   2.635 -1.6981 -2.1619 -0.2812
 7961SOL    HW228441   4.498   8.514   2.683  0.2687  0.1454 -0.6701
 7962SOL     OW28442  10.820   2.430   4.205 -0.1858  0.2517  0.0009
 7962SOL    HW128443  10.865   2.373   4.142 -0.6989  2.0050 -2.0755
 7962SOL    HW228444  10.730   2.397   4.207  0.1182 -0.5675  0.8043
 7963SOL     OW28445   9.069   4.784   5.297  0.1313  0.2324 -0.0127
 7963SOL    HW128446   9.038   4.757   5.384  1.0876 -0.0674  0.2424
 7963SOL    HW228447   9.160   4.811   5.311  0.1645  0.5858 -0.8516
 7964SOL     OW28448  11.489   0.028  11.627  0.0553  0.3081  0.5605
 7964SOL    HW128449  11.547   0.010  11.554 -0.2338 -0.8775  0.6016
 7964SOL    HW228450  11.401   0.020  11.590 -0.1227  2.1092  0.4907
 7965SOL     OW28451   6.220   0.130   6.843 -0.8542 -0.2201  0.2192
 7965SOL    HW128452   6.255   0.060   6.787  0.8559  1.2480 -0.6457
 7965SOL    HW228453   6.261   0.116   6.928 -1.0189 -0.6052  0.2422
 7966SOL     OW28454   6.023   1.313   1.395 -0.0225  0.2576 -0.3514
 7966SOL    HW128455   5.962   1.333   1.467 -0.1295  0.3681 -0.4716
 7966SOL    HW228456   6.109   1.335   1.430  0.1793 -1.6721  0.4949
 7967SOL     OW28457   7.508  10.244  10.713  0.0359 -0.1315 -0.6524
 7967SOL    HW128458   7.436  10.305  10.726 -0.2169 -0.4609 -0.4727
 7967SOL    HW228459   7.467  10.157  10.718  0.5790 -0.3495  0.4215
 7968SOL     OW28460   9.476   4.947   4.294 -0.1734 -0.0123 -0.0308
 7968SOL    HW128461   9.442   4.858   4.284  0.1329 -0.2236  0.7460
 7968SOL    HW228462   9.400   5.003   4.280 -0.0938 -0.3209 -1.9266
 7969SOL     OW28463  11.913   6.979   3.828 -0.1038  0.3821  0.5145
 7969SOL    HW128464  11.858   6.939   3.761  0.3166 -0.4624  0.6588
 7969SOL    HW228465  11.950   7.057   3.786  1.1485 -0.8151 -0.6826
 7970SOL     OW28466   1.056   6.366   1.182  0.1874 -0.4862  0.6415
 7970SOL    HW128467   1.087   6.361   1.092 -0.9730  2.9432 -0.0862
 7970SOL    HW228468   1.085   6.284   1.222  3.6410 -0.7064 -1.8799
 7971SOL     OW28469   4.886   8.630  10.032  0.5755 -0.7285 -0.4067
 7971SOL    HW128470   4.910   8.723  10.038  1.1109 -0.8573 -0.5106
 7971SOL    HW228471   4.849   8.609  10.118 -0.7549 -0.0931 -0.7865
 7972SOL     OW28472   0.632   8.065  10.089  0.0526 -0.4077 -0.1072
 7972SOL    HW128473   0.638   8.042   9.996 -0.8065 -0.9792 -0.0338
 7972SOL    HW228474   0.538   8.061  10.109  0.0342  1.4668  0.3586
 7973SOL     OW28475  11.473   8.337   9.590  0.8060 -0.5891 -0.1459
 7973SOL    HW128476  11.402   8.311   9.648 -0.2797 -0.3360 -1.3095
 7973SOL    HW228477  11.467   8.277   9.515  1.5590 -0.3006 -0.4556
 7974SOL     OW28478   4.905   3.932   3.279 -0.0330 -0.2616 -0.1146
 7974SOL    HW128479   4.880   3.841   3.296 -2.3973  0.2744 -0.2855
 7974SOL    HW228480   4.852   3.957   3.203  0.9108  1.1402 -0.3510
 7975SOL     OW28481   4.191   9.069  12.065  0.1638  1.0181 -0.2783
 7975SOL    HW128482   4.188   9.046  12.158  0.0194 -0.7366 -0.6816
 7975SOL    HW228483   4.142   9.151  12.058  0.4851  1.3636  1.2305
 7976SOL     OW28484   5.078   1.732   3.567 -0.0707  0.1395 -0.0004
 7976SOL    HW128485   4.986   1.707   3.573  0.1601 -1.0807 -1.0608
 7976SOL    HW228486   5.122   1.655   3.532  1.5773  0.2718  1.5998
 7977SOL     OW28487  10.845   0.574   4.531  0.3949  0.0341 -0.0069
 7977SOL    HW128488  10.923   0.522   4.545 -0.2988 -1.3275 -0.9508
 7977SOL    HW228489  10.782   0.513   4.492 -1.7267  0.6468  2.2200
 7978SOL     OW28490  11.472   1.213   6.465  0.2132  0.8181  0.1030
 7978SOL    HW128491  11.463   1.153   6.540 -2.2716  2.5538  1.3354
 7978SOL    HW228492  11.505   1.158   6.394 -1.0746 -1.8195  1.4109
 7979SOL     OW28493   2.342   8.279   2.732  0.7007  0.5047 -0.4814
 7979SOL    HW128494   2.341   8.354   2.793 -1.1967 -0.1432  0.3543
 7979SOL    HW228495   2.321   8.318   2.647  0.8711  1.0653 -0.2772
 7980SOL     OW28496  12.116  11.810   6.435  0.5627 -0.4324 -0.4486
 7980SOL    HW128497  12.178  11.772   6.498  0.7084  0.4344 -0.0603
 7980SOL    HW228498  12.031  11.776   6.463  0.5641  0.3077  0.5166
 7981SOL     OW28499   5.867   0.225   9.323 -0.3992 -0.2015 -0.9009
 7981SOL    HW128500   5.937   0.162   9.341  0.8800  1.3201 -0.2883
 7981SOL    HW228501   5.812   0.222   9.402 -1.3256 -1.7214 -1.5660
 7982SOL     OW28502  10.006   5.927   2.573 -0.1706  0.2815 -0.5716
 7982SOL    HW128503  10.100   5.925   2.557  0.0199  1.6027  0.1810
 7982SOL    HW228504   9.971   5.852   2.525  1.3364 -0.5974 -0.3564
 7983SOL     OW28505  10.240   6.569  11.187  0.1646 -0.4783  0.2780
 7983SOL    HW128506  10.289   6.489  11.171 -1.2816 -1.7307  1.7468
 7983SOL    HW228507  10.149   6.540  11.195 -0.8183  1.6747 -1.8031
 7984SOL     OW28508   4.665   2.570   9.350 -0.5319 -0.0892  0.0764
 7984SOL    HW128509   4.586   2.551   9.299  0.3215  0.8749 -1.6884
 7984SOL    HW228510   4.707   2.484   9.361 -1.3653 -0.4851  0.2678
 7985SOL     OW28511   4.526   2.136   1.676  0.0503  0.3724 -0.1317
 7985SOL    HW128512   4.599   2.167   1.731  0.5406  0.3818 -0.7783
 7985SOL    HW228513   4.466   2.211   1.673  0.9975  1.1219 -1.2809
 7986SOL     OW28514   0.366  10.397   6.753  0.8077  0.4976 -0.2011
 7986SOL    HW128515   0.351  10.335   6.825  0.2707  0.7660 -0.0768
 7986SOL    HW228516   0.351  10.483   6.793 -1.3852  0.5822 -1.0728
 7987SOL     OW28517   4.798   9.329   0.425 -0.1332  0.5190  0.2817
 7987SOL    HW128518   4.788   9.350   0.332  2.2902  4.2338  0.6206
 7987SOL    HW228519   4.865   9.261   0.427  0.3415  0.9257 -0.7081
 7988SOL     OW28520   9.091   3.109  11.559  0.4066 -0.2866 -0.1017
 7988SOL    HW128521   9.118   3.195  11.525 -1.3179  0.1566 -0.4472
 7988SOL    HW228522   9.157   3.049  11.525  1.1439  0.7776 -0.6261
 7989SOL     OW28523   1.717   8.686   5.344 -0.3234  0.1338  0.2958
 7989SOL    HW128524   1.660   8.700   5.269 -2.4033 -1.3191  1.5154
 7989SOL    HW228525   1.786   8.628   5.312 -0.8384  0.0323 -0.6424
 7990SOL     OW28526   7.741   5.309   9.777 -0.0291 -0.0710 -0.8471
 7990SOL    HW128527   7.735   5.402   9.800  0.1534 -0.4524  0.8830
 7990SOL    HW228528   7.834   5.288   9.788 -0.2106 -0.6543 -0.3866
 7991SOL     OW28529   0.527  12.089   1.818 -0.4095  0.1036  0.3522
 7991SOL    HW128530   0.611  12.130   1.798  0.3990 -1.7888 -0.4091
 7991SOL    HW228531   0.472  12.110   1.742  1.0069 -2.6968 -1.6283
 7992SOL     OW28532   6.813   0.578   7.774 -0.2206 -0.2485  0.0352
 7992SOL    HW128533   6.845   0.610   7.690 -0.4783 -1.4657 -0.5343
 7992SOL    HW228534   6.892   0.568   7.827  0.0666 -0.5940 -0.4499
 7993SOL     OW28535   9.730   6.537   1.698  0.1523  0.0795  0.5658
 7993SOL    HW128536   9.640   6.517   1.723 -0.2840  0.1893 -0.8019
 7993SOL    HW228537   9.723   6.575   1.610  1.5860 -0.6129  0.1114
 7994SOL     OW28538  10.835   3.817   5.987  0.3402  0.4385  0.3156
 7994SOL    HW128539  10.769   3.841   6.053 -0.0685  0.1068  0.0374
 7994SOL    HW228540  10.870   3.900   5.957 -0.5129  0.6641 -0.0899
 7995SOL     OW28541  10.418   4.795   5.071 -0.2802 -0.3808 -1.0549
 7995SOL    HW128542  10.383   4.876   5.108  0.7355 -0.2951 -0.2342
 7995SOL    HW228543  10.503   4.819   5.035 -0.6311 -0.7763 -2.1886
 7996SOL     OW28544   9.433   7.236   4.089 -0.5144 -0.7401  0.0907
 7996SOL    HW128545   9.427   7.319   4.041 -1.8291  0.6398  2.4391
 7996SOL    HW228546   9.368   7.244   4.159 -0.1049 -3.4536  0.9010
 7997SOL     OW28547  11.122   6.228   6.718  0.2337 -0.3603 -0.1489
 7997SOL    HW128548  11.209   6.268   6.723  0.1485 -0.0831 -0.8154
 7997SOL    HW228549  11.072   6.272   6.787  0.5168 -0.2448 -0.0146
 7998SOL     OW28550   1.692  10.734   2.832  0.7903 -0.0945 -0.0299
 7998SOL    HW128551   1.757  10.784   2.783 -0.2078  0.0195 -1.2917
 7998SOL    HW228552   1.685  10.651   2.784  0.7703 -0.5261  0.7107
 7999SOL     OW28553   1.363   8.006  11.867  0.2650  0.3611 -0.1091
 7999SOL    HW128554   1.298   7.936  11.874 -0.8081  1.2636 -0.7376
 7999SOL    HW228555   1.336   8.070  11.932  0.3078  0.9206 -0.6389
 8000SOL     OW28556   6.834   2.976   4.739  0.3991 -0.2472  0.2175
 8000SOL    HW128557   6.870   2.933   4.817  1.0761  1.7536  1.0759
 8000SOL    HW228558   6.890   3.052   4.726 -0.5191  0.1975 -1.4673
 8001SOL     OW28559   8.567   1.952   6.201 -0.0924  0.4870 -0.0543
 8001SOL    HW128560   8.471   1.961   6.207 -0.1222 -0.3909  1.3462
 8001SOL    HW228561   8.583   1.859   6.220  1.1535  1.0444  1.8700
 8002SOL     OW28562  11.205   3.454   1.828  0.3312 -0.5600  0.2885
 8002SOL    HW128563  11.257   3.413   1.897  1.9130  0.5873 -0.1788
 8002SOL    HW228564  11.266   3.469   1.756 -1.2658 -1.7053 -1.4188
 8003SOL     OW28565   8.141  10.251   9.557  0.0881 -0.1522  0.1718
 8003SOL    HW128566   8.191  10.249   9.476 -0.2103 -1.7562 -0.0158
 8003SOL    HW228567   8.200  10.290   9.621  2.0405 -2.8538  0.1914
 8004SOL     OW28568   1.724   7.628   9.975 -0.2384 -0.2056  0.6246
 8004SOL    HW128569   1.766   7.598  10.056 -0.2235 -1.4119  0.1899
 8004SOL    HW228570   1.637   7.588   9.977 -0.5073  0.3503  0.3768
 8005SOL     OW28571   5.665   7.535   2.315  0.1062 -0.2220  0.0003
 8005SOL    HW128572   5.667   7.572   2.403  0.0976  0.3991 -0.2601
 8005SOL    HW228573   5.701   7.603   2.258  1.8439 -1.2954 -0.2510
 8006SOL     OW28574   1.978  11.399   6.031  0.4986 -0.0765 -0.1878
 8006SOL    HW128575   2.015  11.484   6.006 -0.3092  0.8616  1.6181
 8006SOL    HW228576   2.009  11.339   5.964  0.8320  1.6988 -1.7092
 8007SOL     OW28577   0.205   6.650   5.637  0.0683 -0.5433 -0.2123
 8007SOL    HW128578   0.233   6.563   5.664  2.2808 -0.0292 -0.6623
 8007SOL    HW228579   0.259   6.670   5.561 -0.8998  0.9507 -0.5516
 8008SOL     OW28580  12.109   3.412   6.250 -1.0729  0.3163  0.1899
 8008SOL    HW128581  12.167   3.365   6.310 -2.2697 -0.0325  1.1081
 8008SOL    HW228582  12.058   3.470   6.306 -0.5503  1.7639 -0.7863
 8009SOL     OW28583   0.581   8.264   5.858 -0.4134 -0.2360  0.0181
 8009SOL    HW128584   0.498   8.298   5.892 -0.8748  1.0088 -2.1821
 8009SOL    HW228585   0.611   8.203   5.926 -1.2313  2.0439  2.6371
 8010SOL     OW28586   1.241   4.897   4.639  0.0982  0.4402 -0.0866
 8010SOL    HW128587   1.321   4.925   4.594  0.5066 -0.3240  0.1370
 8010SOL    HW228588   1.173   4.956   4.608  0.3376 -0.1600 -1.8376
 8011SOL     OW28589   0.687   3.306   5.680 -0.1989  0.3297  0.1219
 8011SOL    HW128590   0.760   3.316   5.618 -0.8617  0.3292 -0.6685
 8011SOL    HW228591   0.696   3.217   5.713  2.1564  1.3499  2.6313
 8012SOL     OW28592  10.805   4.729  11.941 -0.2921 -0.1170  0.2206
 8012SOL    HW128593  10.812   4.714  12.036  0.7485 -2.2455 -0.1313
 8012SOL    HW228594  10.823   4.643  11.902 -3.0393  0.1320 -1.8671
 8013SOL     OW28595   3.083   1.485   2.383  0.1884  0.5797 -0.6173
 8013SOL    HW128596   3.024   1.513   2.453 -0.4886 -0.0901 -0.9031
 8013SOL    HW228597   3.165   1.463   2.428 -0.9025 -1.9269  0.2971
 8014SOL     OW28598   7.430  10.866   9.189  0.3316  0.1825  0.0967
 8014SOL    HW128599   7.367  10.833   9.253  1.3737  0.5250  1.3445
 8014SOL    HW228600   7.381  10.871   9.107 -0.6671 -1.5639  0.5477
 8015SOL     OW28601   8.217   4.749   4.919 -0.3221 -0.1985  0.3473
 8015SOL    HW128602   8.297   4.714   4.880  0.1279 -0.2076  1.2688
 8015SOL    HW228603   8.176   4.673   4.961 -0.6203 -0.1132  0.2161
 8016SOL     OW28604   0.489   1.126  10.216  0.3889  0.0496 -0.7033
 8016SOL    HW128605   0.470   1.035  10.240  0.6482  0.3102  0.5698
 8016SOL    HW228606   0.558   1.153  10.276  0.0687  1.2088 -0.8285
 8017SOL     OW28607   5.688   0.293   1.449 -0.1136  0.1766 -0.4735
 8017SOL    HW128608   5.666   0.200   1.453  0.5537 -0.0649 -1.9549
 8017SOL    HW228609   5.717   0.315   1.538 -0.6958 -0.9094 -0.0029
 8018SOL     OW28610   3.029   4.820   7.912  0.5088  0.4206  0.0425
 8018SOL    HW128611   3.012   4.841   7.820  0.4926  0.5642  0.0778
 8018SOL    HW228612   3.065   4.900   7.949 -0.5730  0.7381  0.4444
 8019SOL     OW28613   9.462  10.542  11.385 -0.1538 -0.0109  0.5536
 8019SOL    HW128614   9.455  10.615  11.447  1.3448  0.3073  0.3838
 8019SOL    HW228615   9.502  10.471  11.435 -2.3637 -1.0710  0.9573
 8020SOL     OW28616   6.042   4.374   9.201 -0.7477  0.0737  0.0645
 8020SOL    HW128617   6.095   4.438   9.248 -1.4569  1.6400 -1.1562
 8020SOL    HW228618   5.955   4.414   9.196 -1.4409 -1.3803 -0.0012
 8021SOL     OW28619  11.089   7.190   8.939 -0.3833 -0.5803 -0.2277
 8021SOL    HW128620  10.994   7.178   8.941 -0.4321 -0.3576 -0.9058
 8021SOL    HW228621  11.120   7.124   8.877 -0.5175  1.7376 -2.9811
 8022SOL     OW28622   5.858   7.330  11.872  0.2284 -0.1663 -0.5356
 8022SOL    HW128623   5.941   7.354  11.830  0.7780 -0.3761  0.4049
 8022SOL    HW228624   5.826   7.257  11.819 -0.2434  1.0218 -1.9428
 8023SOL     OW28625   1.879   9.042   7.284  0.2380 -0.1477  0.2337
 8023SOL    HW128626   1.960   9.089   7.262  0.3863 -0.4492  0.1291
 8023SOL    HW228627   1.908   8.969   7.338 -0.2340  1.2268  2.4601
 8024SOL     OW28628   5.490   2.545   9.009  0.0239  0.0874 -0.0646
 8024SOL    HW128629   5.450   2.531   8.923 -0.4281  0.8560  0.0075
 8024SOL    HW228630   5.416   2.562   9.067  0.2937 -0.9259  0.5864
 8025SOL     OW28631   3.285   8.825   8.583 -0.0963 -0.0120  0.1879
 8025SOL    HW128632   3.212   8.859   8.530  0.6798  0.2389 -0.7489
 8025SOL    HW228633   3.334   8.903   8.609  0.3219 -0.2393  0.0828
 8026SOL     OW28634   9.085   8.515   0.453  0.5474  0.4712  0.0195
 8026SOL    HW128635   9.056   8.590   0.402 -0.8201 -0.8911 -1.3423
 8026SOL    HW228636   9.157   8.477   0.402 -0.1782 -0.3377 -0.4298
 8027SOL     OW28637   4.382   6.672   9.356  0.5521 -0.0807  0.3389
 8027SOL    HW128638   4.460   6.719   9.385  0.3149  0.4062  0.1992
 8027SOL    HW228639   4.339   6.643   9.437 -0.7377  2.2805  0.6008
 8028SOL     OW28640   0.800   1.692   3.106 -0.1951  0.0068 -0.5559
 8028SOL    HW128641   0.848   1.656   3.032 -0.1541 -0.4097 -0.3268
 8028SOL    HW228642   0.708   1.686   3.080 -0.2631 -1.3143 -0.0617
 8029SOL     OW28643   1.476   1.233   0.865  0.0314 -0.2644 -0.1507
 8029SOL    HW128644   1.492   1.138   0.864 -1.1461 -0.4985  0.9052
 8029SOL    HW228645   1.504   1.263   0.778  0.8803 -1.4911 -0.3300
 8030SOL     OW28646   4.104   0.138   8.040  0.1369 -0.2656 -0.8421
 8030SOL    HW128647   4.060   0.100   7.963 -2.0426 -1.1047  0.7034
 8030SOL    HW228648   4.067   0.091   8.114  2.5620  0.1475  0.7426
 8031SOL     OW28649   8.541   8.538   8.148  0.5940 -0.1263 -0.2310
 8031SOL    HW128650   8.568   8.604   8.212 -0.5371 -0.6261  0.8092
 8031SOL    HW228651   8.476   8.582   8.094  2.5268  0.7236 -1.9931
 8032SOL     OW28652   8.161   7.029   2.058 -0.0186  0.0553  0.2166
 8032SOL    HW128653   8.146   7.055   1.967  0.1669  0.7150  0.3703
 8032SOL    HW228654   8.251   7.057   2.076 -0.3160  0.6224  0.8407
 8033SOL     OW28655   8.392  12.082   3.576  0.6708  0.2816  0.3086
 8033SOL    HW128656   8.480  12.086   3.539 -0.4359  0.0393 -2.5692
 8033SOL    HW228657   8.392  12.001   3.628  1.6086 -0.7427 -1.2150
 8034SOL     OW28658   0.051   0.002   2.117 -0.2197  0.0693 -0.4874
 8034SOL    HW128659   0.025   0.042   2.200  0.7028  0.1355 -0.2185
 8034SOL    HW228660   0.143  -0.022   2.130 -0.6683 -1.9945 -0.6850
 8035SOL     OW28661   4.658   0.679   6.353 -0.3102 -0.0447 -0.3340
 8035SOL    HW128662   4.594   0.612   6.378  0.0406 -0.3229 -0.1850
 8035SOL    HW228663   4.637   0.699   6.262 -1.1139  0.4340 -0.0606
 8036SOL     OW28664  11.077   6.507   6.093 -0.1008 -0.6495 -0.8916
 8036SOL    HW128665  11.054   6.543   6.179  1.1395 -2.3396  0.2138
 8036SOL    HW228666  11.131   6.575   6.053  0.2142 -0.2582  0.1423
 8037SOL     OW28667  11.548   2.247   5.431 -0.5830 -0.2438 -0.4366
 8037SOL    HW128668  11.548   2.336   5.394 -1.2344  0.0226  0.1995
 8037SOL    HW228669  11.465   2.209   5.403  0.0304 -0.9582 -1.3817
 8038SOL     OW28670   0.002   3.627  10.537  0.6823  0.1578  0.1158
 8038SOL    HW128671  -0.066   3.559  10.534  0.1892  0.6269  0.4927
 8038SOL    HW228672   0.046   3.621  10.453  0.2116 -0.1921 -0.1085
 8039SOL     OW28673   7.034   0.279   8.384  0.0106 -0.0555  0.5569
 8039SOL    HW128674   7.032   0.223   8.307  1.6159  0.6436 -0.0213
 8039SOL    HW228675   7.045   0.368   8.350  0.5165  0.2927  1.5646
 8040SOL     OW28676   7.614  10.144   4.851 -0.1785 -0.5145 -0.1070
 8040SOL    HW128677   7.558  10.075   4.815 -0.6018 -0.3560  0.2321
 8040SOL    HW228678   7.696  10.136   4.803 -0.3258 -1.0620 -0.2773
 8041SOL     OW28679  11.445   1.902  12.031 -0.4186  0.2126 -0.3536
 8041SOL    HW128680  11.463   1.842  12.104 -0.8225 -1.3158 -1.4493
 8041SOL    HW228681  11.356   1.880  12.003 -0.6824  1.5414 -0.6310
 8042SOL     OW28682  10.779   1.246  10.720  0.0990  0.3349 -0.0262
 8042SOL    HW128683  10.772   1.182  10.648 -1.2403  0.7050 -0.2399
 8042SOL    HW228684  10.839   1.312  10.686  1.8853 -0.9942  0.3686
 8043SOL     OW28685   4.573   5.984   5.905  0.2661  0.3453  0.1304
 8043SOL    HW128686   4.548   5.893   5.924  0.0881  0.3457 -0.0873
 8043SOL    HW228687   4.604   5.982   5.814 -0.0114  0.5516  0.0288
 8044SOL     OW28688   8.250   3.094  11.339 -0.0117 -0.1568 -0.0291
 8044SOL    HW128689   8.330   3.055  11.373  0.1548 -0.2562 -0.5270
 8044SOL    HW228690   8.187   3.021  11.338 -0.3364  0.0897  1.0613
 8045SOL     OW28691   1.398   7.865   5.984  0.1141  0.0353 -0.7048
 8045SOL    HW128692   1.417   7.860   5.890 -0.2938 -1.8771 -0.7119
 8045SOL    HW228693   1.405   7.775   6.015  2.7283  0.9001  1.6235
 8046SOL     OW28694   8.482   8.030   1.028  0.2282  0.1335 -0.0773
 8046SOL    HW128695   8.437   8.001   1.107 -0.5796  0.5950 -0.3570
 8046SOL    HW228696   8.567   7.986   1.031  0.2245  0.1797  1.0651
 8047SOL     OW28697   4.446   6.751   1.803  0.9519  0.1350 -0.2628
 8047SOL    HW128698   4.432   6.839   1.838 -0.0675  0.2800 -0.9920
 8047SOL    HW228699   4.446   6.694   1.880  0.0471  0.5988  0.0971
 8048SOL     OW28700   5.914   6.433  11.153 -0.0276 -0.1516  0.1559
 8048SOL    HW128701   5.876   6.349  11.126 -0.0415 -0.3620  0.8236
 8048SOL    HW228702   5.987   6.410  11.209  1.4317  0.2383 -1.4954
 8049SOL     OW28703  11.637   3.254  10.815 -0.6639 -0.0939 -0.0709
 8049SOL    HW128704  11.625   3.296  10.730  0.5685 -0.4574 -0.4451
 8049SOL    HW228705  11.682   3.172  10.794 -2.4878 -1.3511  0.6900
 8050SOL     OW28706  10.073   5.164   9.810  0.1913  0.3000  0.4664
 8050SOL    HW128707  10.164   5.179   9.783  0.4910 -0.4526  1.0358
 8050SOL    HW228708  10.021   5.214   9.746  0.9843  0.4786 -0.0570
 8051SOL     OW28709   8.213   4.203   6.450  0.1818 -0.0735 -0.2793
 8051SOL    HW128710   8.287   4.240   6.499  1.0885  0.1625 -1.7418
 8051SOL    HW228711   8.234   4.222   6.359 -1.9221  0.3625 -0.7184
 8052SOL     OW28712  11.772   1.371   1.480  0.1175 -0.0446  0.1470
 8052SOL    HW128713  11.770   1.417   1.564 -0.7746 -1.1753  0.7786
 8052SOL    HW228714  11.755   1.280   1.503  1.9643 -0.7479 -1.0404
 8053SOL     OW28715   8.682  10.649  11.806  0.2731  0.3352 -0.2766
 8053SOL    HW128716   8.602  10.697  11.784 -0.9179 -0.8484  1.2336
 8053SOL    HW228717   8.713  10.615  11.722 -0.4460  1.3372 -0.9764
 8054SOL     OW28718   3.566   8.037   3.070 -0.0053  0.0272 -0.2482
 8054SOL    HW128719   3.649   8.041   3.022  0.6465  0.7808  0.8770
 8054SOL    HW228720   3.499   8.035   3.002  0.9091  0.2015 -1.1894
 8055SOL     OW28721   7.387   9.180   6.598  0.3236 -0.2384  0.1491
 8055SOL    HW128722   7.421   9.166   6.510  0.7813 -0.4071  0.3534
 8055SOL    HW228723   7.425   9.110   6.650  0.4445  0.1495  0.5851
 8056SOL     OW28724   4.244   3.550  12.124 -0.2659  0.3163 -0.6857
 8056SOL    HW128725   4.261   3.582  12.035 -0.4579  0.3981 -0.6949
 8056SOL    HW228726   4.326   3.512  12.153 -0.4984 -0.6726 -1.3008
 8057SOL     OW28727  10.960   4.559   4.163  0.2076  0.0271  0.8889
 8057SOL    HW128728  10.931   4.469   4.147 -0.9930  0.5295  0.1312
 8057SOL    HW228729  10.895   4.614   4.120  0.8287  1.2799  1.4827
 8058SOL     OW28730   1.476   1.083   6.716 -0.0106  0.2926  0.1589
 8058SOL    HW128731   1.428   1.126   6.645  0.7156 -0.4263 -0.7907
 8058SOL    HW228732   1.445   0.992   6.715  1.6543 -0.2964 -0.7619
 8059SOL     OW28733   1.916   1.999   1.180 -0.1195 -0.2411  0.1323
 8059SOL    HW128734   1.996   2.025   1.226  0.4290 -0.9136 -0.4286
 8059SOL    HW228735   1.886   1.921   1.226 -1.9592  1.4749  2.0333
 8060SOL     OW28736   1.889   1.444   9.049 -0.4874 -0.1495 -0.1199
 8060SOL    HW128737   1.896   1.384   9.123 -0.4974  1.0173  0.8728
 8060SOL    HW228738   1.942   1.520   9.075 -0.2864  0.1821 -1.4279
 8061SOL     OW28739   8.330   8.442   7.414  0.7505  0.8610  0.4462
 8061SOL    HW128740   8.267   8.392   7.466 -0.8807  1.6197 -0.7066
 8061SOL    HW228741   8.333   8.397   7.330  1.2238  1.2351  0.2603
 8062SOL     OW28742   3.616   1.383   3.272  0.6226 -0.1014 -0.0416
 8062SOL    HW128743   3.698   1.431   3.282 -0.0168  0.9308  0.3297
 8062SOL    HW228744   3.550   1.438   3.313 -0.7079  0.3321 -2.5785
 8063SOL     OW28745   4.522   6.134   7.203 -0.0191 -0.2061 -0.1330
 8063SOL    HW128746   4.538   6.042   7.226 -3.5720 -0.7048  1.0163
 8063SOL    HW228747   4.471   6.129   7.122 -0.1650  0.7552 -0.1040
 8064SOL     OW28748  11.304   1.954   4.128  0.1398 -0.1225  0.3734
 8064SOL    HW128749  11.295   2.049   4.129 -0.5967 -0.1754  2.2709
 8064SOL    HW228750  11.273   1.928   4.041 -1.6935  1.2044  0.5746
 8065SOL     OW28751   8.831   3.471  11.933  0.4922 -0.8573 -0.0739
 8065SOL    HW128752   8.748   3.517  11.945  0.8888 -0.1963  0.1960
 8065SOL    HW228753   8.806   3.379  11.919 -0.2471 -0.7799  0.6714
 8066SOL     OW28754  10.367   7.451   6.327 -0.0969  0.1268  0.4160
 8066SOL    HW128755  10.361   7.543   6.300  0.6633 -0.4474 -1.8828
 8066SOL    HW228756  10.284   7.433   6.371 -0.7519  1.5850 -0.1588
 8067SOL     OW28757   5.117   9.453   7.763 -0.6224 -0.7884  0.0271
 8067SOL    HW128758   5.061   9.403   7.703 -1.6527 -0.4206  0.6614
 8067SOL    HW228759   5.144   9.529   7.711 -3.0589  0.5351  0.5527
 8068SOL     OW28760  10.784   7.037   7.630 -0.6619 -0.1735  0.1837
 8068SOL    HW128761  10.735   7.113   7.662  0.4147  1.3463 -1.6071
 8068SOL    HW228762  10.875   7.057   7.649 -0.4379 -1.5491  0.6741
 8069SOL     OW28763   6.526   7.950   5.598 -0.1716 -0.5110 -0.3883
 8069SOL    HW128764   6.435   7.928   5.621 -0.4716 -1.6030 -2.3823
 8069SOL    HW228765   6.562   7.989   5.677 -1.3433 -3.2070  1.6316
 8070SOL     OW28766   0.889   4.660   4.783  0.1718 -0.1276  0.5526
 8070SOL    HW128767   0.918   4.750   4.769  0.7357 -0.2813  0.6817
 8070SOL    HW228768   0.919   4.639   4.872  0.2526 -0.5140  0.4362
 8071SOL     OW28769   6.786   9.725   5.433 -0.2671  0.2855  0.1070
 8071SOL    HW128770   6.745   9.702   5.350  0.2356 -1.5398  0.3247
 8071SOL    HW228771   6.719   9.707   5.498 -0.2902  0.6406  0.1789
 8072SOL     OW28772   3.718   9.743   0.931  0.7413  0.4676 -0.2328
 8072SOL    HW128773   3.714   9.674   0.998  0.2766  1.2475  0.5633
 8072SOL    HW228774   3.647   9.721   0.871  0.2781  0.5167  0.2874
 8073SOL     OW28775   1.989  10.125   0.852 -1.2235  0.4441  0.3274
 8073SOL    HW128776   2.013  10.035   0.875  1.4350  1.2708  1.1607
 8073SOL    HW228777   1.973  10.167   0.937 -2.0686  0.8757 -0.0379
 8074SOL     OW28778   5.218   6.518   8.995 -0.5630 -0.3788  0.1071
 8074SOL    HW128779   5.281   6.450   9.020  0.1229 -0.0837 -0.7862
 8074SOL    HW228780   5.241   6.540   8.905 -0.6000  1.2435  0.4783
 8075SOL     OW28781   8.493   4.892  10.956  0.1738 -0.4818 -0.4653
 8075SOL    HW128782   8.485   4.986  10.942 -0.3631 -0.5482 -0.6263
 8075SOL    HW228783   8.523   4.884  11.046  0.2566 -0.1562 -0.4611
 8076SOL     OW28784   7.956   4.052   0.873 -0.0914  0.4329  0.3762
 8076SOL    HW128785   7.917   3.965   0.869 -0.5919  0.6289  0.9769
 8076SOL    HW228786   7.896   4.108   0.823  1.0622  0.1489 -1.4354
 8077SOL     OW28787   4.941   1.476   3.217  0.1120  0.0722  0.0026
 8077SOL    HW128788   4.889   1.400   3.245 -2.9056  1.3791 -1.5340
 8077SOL    HW228789   4.962   1.458   3.125  1.5383  0.0575  0.3068
 8078SOL     OW28790   3.006   4.442  11.535  0.1088  0.0524 -0.2894
 8078SOL    HW128791   3.001   4.533  11.504 -0.3820  0.8730  1.9417
 8078SOL    HW228792   3.098   4.419  11.527  0.3906  1.0659 -0.1519
 8079SOL     OW28793  10.533  10.192   2.411 -0.4249 -0.4114 -0.4168
 8079SOL    HW128794  10.517  10.258   2.478 -2.3263  0.3780 -1.5510
 8079SOL    HW228795  10.607  10.226   2.362 -1.2454  0.8426 -0.8578
 8080SOL     OW28796  10.814  10.170   2.952 -0.4503 -0.3613 -0.0081
 8080SOL    HW128797  10.808  10.142   2.861 -0.7863 -1.2094  0.2626
 8080SOL    HW228798  10.748  10.239   2.960  0.6249  0.7858 -0.7704
 8081SOL     OW28799  11.083   3.012   7.387 -0.0121 -0.2738 -0.2906
 8081SOL    HW128800  11.164   2.991   7.435  0.9580 -0.0977 -1.7810
 8081SOL    HW228801  11.028   2.935   7.399  0.7031 -0.7414  0.0758
 8082SOL     OW28802   9.531   4.590   5.610  0.0242  0.2405 -0.0993
 8082SOL    HW128803   9.551   4.571   5.518 -1.5143 -1.3211 -0.1690
 8082SOL    HW228804   9.596   4.540   5.659  0.0920  0.0727 -0.3541
 8083SOL     OW28805   6.206   8.047   8.009 -0.3397  0.1816  0.6653
 8083SOL    HW128806   6.174   7.958   7.997 -0.2336  0.2769 -0.4526
 8083SOL    HW228807   6.296   8.045   7.976 -0.0586  0.5097  1.3970
 8084SOL     OW28808  11.032   5.340   6.069 -0.2284  0.5418  0.1423
 8084SOL    HW128809  11.068   5.398   6.002  0.0651  0.1703 -0.0200
 8084SOL    HW228810  11.102   5.334   6.135 -0.2509  0.3565  0.1489
 8085SOL     OW28811   8.426  10.715   6.208 -0.0875 -0.3610 -0.2041
 8085SOL    HW128812   8.333  10.735   6.208  0.0378  0.2337 -0.5630
 8085SOL    HW228813   8.445  10.688   6.118  0.3927  1.0017 -0.5387
 8086SOL     OW28814   6.487  11.317   0.797 -0.0784 -0.1337 -0.7667
 8086SOL    HW128815   6.563  11.327   0.740 -0.7202  0.0617 -1.6022
 8086SOL    HW228816   6.490  11.393   0.856  1.0941 -0.8127  0.0870
 8087SOL     OW28817   7.876  10.599   9.371 -0.2356 -0.2605  0.3103
 8087SOL    HW128818   7.897  10.596   9.277  0.7826  1.3334  0.4526
 8087SOL    HW228819   7.876  10.692   9.393 -1.6901 -0.5303  1.6581
 8088SOL     OW28820   2.590   3.369   8.871 -0.4679 -0.1746  0.3953
 8088SOL    HW128821   2.592   3.383   8.966 -0.0602  1.5521  0.1576
 8088SOL    HW228822   2.664   3.311   8.854  0.5152  0.8992  0.9376
 8089SOL     OW28823   6.790   1.040   5.851  0.3890  0.3823  0.0418
 8089SOL    HW128824   6.696   1.059   5.842  0.4994  0.5660 -0.8495
 8089SOL    HW228825   6.798   0.998   5.936 -0.7298 -1.0206 -0.5035
 8090SOL     OW28826   3.980   0.921   4.242  0.2552  0.4738 -0.1935
 8090SOL    HW128827   4.027   0.918   4.159  1.4032 -0.7135  0.4679
 8090SOL    HW228828   4.030   0.864   4.300 -0.5221  1.2852  1.3273
 8091SOL     OW28829   5.392  10.667   5.761  0.1224 -0.0012  0.1119
 8091SOL    HW128830   5.408  10.589   5.814  1.7736  0.1597 -0.0971
 8091SOL    HW228831   5.474  10.680   5.713 -0.3022  1.5670 -0.2292
 8092SOL     OW28832  11.891   8.849   1.248 -0.6089 -0.2167  0.5167
 8092SOL    HW128833  11.914   8.756   1.254  3.1234  0.3795 -1.2965
 8092SOL    HW228834  11.944   8.891   1.316 -0.7719  0.7528  0.0609
 8093SOL     OW28835   3.717   2.157   9.752 -0.1762  0.9123  0.7431
 8093SOL    HW128836   3.736   2.185   9.841  1.9378 -0.2580  0.7219
 8093SOL    HW228837   3.784   2.199   9.698  0.9721 -1.3359  0.2710
 8094SOL     OW28838   6.884   2.553   7.981  0.2160 -0.4261 -0.2418
 8094SOL    HW128839   6.940   2.545   7.903 -0.6813  2.2835 -1.2936
 8094SOL    HW228840   6.919   2.629   8.028 -0.6473 -0.6360  0.7763
 8095SOL     OW28841   2.965  10.883   5.357 -0.3187  0.0958 -0.2098
 8095SOL    HW128842   3.046  10.882   5.410 -0.1882  4.0256 -0.0550
 8095SOL    HW228843   2.911  10.814   5.397  2.0492 -1.1756  1.1108
 8096SOL     OW28844   5.722   3.380   5.037 -0.1160  0.2740 -0.1006
 8096SOL    HW128845   5.677   3.338   4.964  1.7972 -0.9936 -0.6292
 8096SOL    HW228846   5.759   3.460   5.000 -0.9745  0.7652  0.0689
 8097SOL     OW28847  11.904  11.779   1.649 -0.2109  0.4146  0.5766
 8097SOL    HW128848  11.979  11.837   1.642  0.0933 -0.0079  0.2874
 8097SOL    HW228849  11.831  11.836   1.675  0.1377  0.8769  0.5387
 8098SOL     OW28850   6.373   3.959   9.752  0.2630 -0.5364  0.0390
 8098SOL    HW128851   6.285   3.978   9.719 -0.1682 -0.7803  1.0250
 8098SOL    HW228852   6.368   3.868   9.782  0.9809 -0.6964 -0.2933
 8099SOL     OW28853   4.510   2.788   2.078  0.7487 -0.4846  0.0751
 8099SOL    HW128854   4.445   2.823   2.140 -0.9098 -0.8625 -1.3531
 8099SOL    HW228855   4.504   2.693   2.089  0.8578 -0.5300 -0.2457
 8100SOL     OW28856  10.803  10.578   8.814 -0.4316  0.1263 -0.1779
 8100SOL    HW128857  10.887  10.618   8.834 -0.2881 -0.5261  0.5919
 8100SOL    HW228858  10.823  10.485   8.802 -0.9721  0.0401 -0.4493
 8101SOL     OW28859  11.811   4.053   1.867  0.5259 -0.2314  0.7125
 8101SOL    HW128860  11.791   4.004   1.947 -0.7232  0.6798  0.9909
 8101SOL    HW228861  11.731   4.101   1.848  1.2629  0.6316 -0.3313
 8102SOL     OW28862   8.742   3.629   9.615  0.5785 -0.3406 -0.4871
 8102SOL    HW128863   8.676   3.693   9.586  0.3549 -0.7204 -0.8225
 8102SOL    HW228864   8.693   3.549   9.630  1.1362 -0.9935 -1.9573
 8103SOL     OW28865   5.379   9.796  11.192 -0.9261  0.2815  0.1991
 8103SOL    HW128866   5.462   9.815  11.237 -0.9092 -2.5695  1.5862
 8103SOL    HW228867   5.405   9.774  11.103 -0.1912 -0.2133  0.5207
 8104SOL     OW28868  11.568   4.171  12.061  0.2622  0.1651  0.0456
 8104SOL    HW128869  11.617   4.174  12.143  0.8193 -1.9772 -0.1426
 8104SOL    HW228870  11.486   4.215  12.080  0.8355  0.6776  1.4227
 8105SOL     OW28871   4.744   3.198   4.186 -0.5004  0.2441 -0.4688
 8105SOL    HW128872   4.758   3.292   4.186 -0.0493  0.1859  0.4867
 8105SOL    HW228873   4.663   3.185   4.236  0.8812 -0.0312  1.8623
 8106SOL     OW28874   4.916   8.734  11.221 -0.3262 -0.0611 -0.0177
 8106SOL    HW128875   4.863   8.684  11.282  0.6807 -0.4471  0.5730
 8106SOL    HW228876   4.869   8.729  11.138 -1.5135  0.1387  0.6219
 8107SOL     OW28877   7.085  11.263   8.950 -0.0424  0.1176 -0.0426
 8107SOL    HW128878   7.004  11.314   8.949  0.3873  0.8143  0.2032
 8107SOL    HW228879   7.146  11.314   9.004 -0.1701 -1.5595  1.7954
 8108SOL     OW28880   6.012  11.606  10.928 -0.4812 -0.4951 -0.3288
 8108SOL    HW128881   5.967  11.689  10.942  0.1961 -0.3888  1.6086
 8108SOL    HW228882   6.105  11.629  10.931 -0.2882 -1.3094  0.3261
 8109SOL     OW28883   4.121   7.959   7.785  0.0017 -0.0900 -0.2869
 8109SOL    HW128884   4.207   8.001   7.785  0.1494 -0.3829 -0.4883
 8109SOL    HW228885   4.139   7.869   7.815 -0.1267 -0.3552 -0.9774
 8110SOL     OW28886   2.877   0.467   0.697 -0.2770 -0.1100  0.5709
 8110SOL    HW128887   2.951   0.416   0.730  0.9573  0.2894 -1.4606
 8110SOL    HW228888   2.916   0.544   0.656 -1.7707 -0.0944 -0.9554
 8111SOL     OW28889  10.997  11.537   7.516 -0.3148  0.0608  0.2463
 8111SOL    HW128890  11.033  11.595   7.583 -0.6672 -1.8771  2.2197
 8111SOL    HW228891  11.070  11.518   7.458  0.6494 -0.1814  1.5181
 8112SOL     OW28892   6.072   8.840   9.537 -0.4402 -0.0056 -0.5604
 8112SOL    HW128893   6.063   8.768   9.475 -2.9138  0.5889 -1.0153
 8112SOL    HW228894   6.049   8.918   9.486  0.0823  0.8309  0.4532
 8113SOL     OW28895   3.270   7.174   7.301 -0.1314  0.0627 -0.2802
 8113SOL    HW128896   3.302   7.224   7.226 -1.3166  0.8618 -0.2793
 8113SOL    HW228897   3.220   7.102   7.263  0.0029 -0.0437 -0.2574
 8114SOL     OW28898   4.558   7.573   5.592  0.0582 -0.4268  0.3457
 8114SOL    HW128899   4.494   7.504   5.579 -0.0000 -0.3510  0.2259
 8114SOL    HW228900   4.627   7.554   5.529 -0.5164  0.2900 -0.5287
 8115SOL     OW28901  10.328   7.086   7.718 -0.3520 -0.2811 -0.2994
 8115SOL    HW128902  10.272   7.053   7.648 -1.8580 -2.0779  1.6441
 8115SOL    HW228903  10.280   7.161   7.753 -0.9330 -1.0231  0.5188
 8116SOL     OW28904   7.565   9.284   8.275 -0.2635  0.0718  0.1939
 8116SOL    HW128905   7.630   9.238   8.327 -0.5595  0.8573  1.3066
 8116SOL    HW228906   7.608   9.301   8.191  0.9129  0.4533  0.8575
 8117SOL     OW28907   9.575   4.694   2.108  1.0636 -0.5496  0.0008
 8117SOL    HW128908   9.638   4.635   2.151  0.0799 -1.7737 -0.1690
 8117SOL    HW228909   9.496   4.687   2.162  0.2555 -1.0295 -1.1931
 8118SOL     OW28910   6.417   4.599   9.148 -0.8134  0.0327  0.3347
 8118SOL    HW128911   6.495   4.653   9.155 -0.1631 -1.0101  1.6279
 8118SOL    HW228912   6.443   4.527   9.090 -0.4237 -0.9206  1.6609
 8119SOL     OW28913   6.371  10.992   5.028 -0.4131  0.3984 -0.3926
 8119SOL    HW128914   6.314  10.915   5.029  0.0987 -0.0232 -1.6480
 8119SOL    HW228915   6.420  10.984   4.946  1.6317  0.6014  0.7480
 8120SOL     OW28916   8.483  11.688   6.765 -0.2202  0.3133 -0.2842
 8120SOL    HW128917   8.485  11.594   6.785 -1.0006  0.3064 -0.2003
 8120SOL    HW228918   8.574  11.715   6.765 -0.0449 -0.2614  0.5628
 8121SOL     OW28919  11.388   7.356  10.849 -0.3901  0.2691  0.4289
 8121SOL    HW128920  11.296   7.336  10.830 -0.7129  1.6445  0.4482
 8121SOL    HW228921  11.385   7.409  10.928  0.3448  0.9839 -0.0077
 8122SOL     OW28922  10.413   7.003   7.296  0.1330  0.0238  0.3644
 8122SOL    HW128923  10.444   6.988   7.207 -0.7372  0.4069 -0.0191
 8122SOL    HW228924  10.326   7.041   7.285  0.0683  0.2088  1.3780
 8123SOL     OW28925   7.202   3.522   2.339 -0.4614 -0.4162  0.5546
 8123SOL    HW128926   7.111   3.550   2.348 -0.6407 -0.9735  0.5067
 8123SOL    HW228927   7.232   3.508   2.428  0.3311  2.0789  0.7396
 8124SOL     OW28928   8.985   0.626   1.120 -0.4196  0.2573 -0.2534
 8124SOL    HW128929   8.902   0.589   1.148 -1.1804 -0.1167 -2.7611
 8124SOL    HW228930   9.046   0.553   1.122 -0.6342  0.0766 -0.2458
 8125SOL     OW28931  10.111   4.573  10.956 -0.2641 -0.5096 -0.0221
 8125SOL    HW128932  10.064   4.605  11.033 -1.1702 -2.6086  0.3868
 8125SOL    HW228933  10.200   4.556  10.988 -0.3826 -0.4877  0.3236
 8126SOL     OW28934   9.925  10.377  11.167  0.1699  0.7811  0.0082
 8126SOL    HW128935   9.842  10.418  11.141  0.3021  0.2632 -1.3135
 8126SOL    HW228936   9.981  10.386  11.089  0.6523 -0.6922  0.1676
 8127SOL     OW28937   9.905   0.878   4.357 -0.3138 -0.3336  0.2034
 8127SOL    HW128938   9.880   0.970   4.347 -0.8564 -0.3996  0.9075
 8127SOL    HW228939   9.984   0.880   4.410  1.7371 -0.0753 -2.6436
 8128SOL     OW28940   9.635   8.317   8.572  0.6041  0.1267 -1.0829
 8128SOL    HW128941   9.684   8.382   8.622  1.1369 -0.2755 -1.0701
 8128SOL    HW228942   9.633   8.351   8.483 -2.2154  1.9302 -0.4379
 8129SOL     OW28943   6.572   4.090  10.001 -0.1211 -0.1960 -0.3784
 8129SOL    HW128944   6.499   4.151  10.017  1.5362  1.6999  0.4783
 8129SOL    HW228945   6.537   4.004  10.026 -1.5911  0.8662  1.5702
 8130SOL     OW28946   1.685  10.206   3.467  0.0907 -0.0836  0.1497
 8130SOL    HW128947   1.637  10.277   3.424 -1.0629 -0.8388  0.1335
 8130SOL    HW228948   1.735  10.164   3.397 -0.7658 -0.5000 -0.2234
 8131SOL     OW28949  10.541   2.059   5.929  0.7214 -0.2727  0.3510
 8131SOL    HW128950  10.468   2.069   5.868  0.6956  0.6046  0.5116
 8131SOL    HW228951  10.517   1.984   5.983  0.1516 -0.2723  0.1069
 8132SOL     OW28952   9.173   9.864   9.610  0.0571 -0.3784 -0.2970
 8132SOL    HW128953   9.269   9.869   9.607  0.1243 -1.1440  0.4058
 8132SOL    HW228954   9.147   9.948   9.648  0.5063 -0.5162  0.3364
 8133SOL     OW28955   4.072  10.943   9.377 -0.4384 -0.2657 -0.0887
 8133SOL    HW128956   4.010  10.920   9.308 -0.3715  2.0596 -0.9968
 8133SOL    HW228957   4.152  10.897   9.354  0.0062  1.5377 -2.3806
 8134SOL     OW28958   3.360   3.077   3.651  0.5402  0.4243  0.5439
 8134SOL    HW128959   3.418   3.014   3.694  0.5177  0.3119  0.4125
 8134SOL    HW228960   3.279   3.072   3.701 -0.4105 -1.6371 -1.0352
 8135SOL     OW28961  10.165   3.944   4.381 -0.1063 -0.0178  0.0734
 8135SOL    HW128962  10.186   3.931   4.473 -1.3755 -0.3295  0.3462
 8135SOL    HW228963  10.088   3.889   4.366  0.1932 -0.1227 -1.2258
 8136SOL     OW28964   5.892   6.260   0.641  0.1367  0.6827 -0.4708
 8136SOL    HW128965   5.818   6.231   0.694 -1.3092  1.2049 -2.0897
 8136SOL    HW228966   5.960   6.283   0.704 -1.6185  1.6347  1.1648
 8137SOL     OW28967   3.084  10.308  12.008 -0.1356  0.4116  0.1640
 8137SOL    HW128968   3.002  10.354  12.024 -0.5023  0.2376 -1.0939
 8137SOL    HW228969   3.144  10.341  12.075 -1.4171 -0.0007  1.5866
 8138SOL     OW28970   6.790  11.380   9.761  0.2403 -0.0715  0.3100
 8138SOL    HW128971   6.826  11.434   9.691  0.0405  1.0424  1.0375
 8138SOL    HW228972   6.727  11.323   9.717 -0.1327  0.8441 -0.3835
 8139SOL     OW28973   8.475   9.617   4.562  0.2206  0.0320 -0.1734
 8139SOL    HW128974   8.527   9.697   4.571  0.9747 -0.3063 -1.2860
 8139SOL    HW228975   8.479   9.596   4.468 -1.0917 -0.5678 -0.1106
 8140SOL     OW28976   1.031   4.367   9.801  0.4548 -0.5577 -0.0293
 8140SOL    HW128977   1.085   4.288   9.802 -0.9461 -1.5814 -1.3877
 8140SOL    HW228978   0.953   4.343   9.753 -0.9949  1.0515  1.3675
 8141SOL     OW28979   5.183   2.694  12.114  0.3731 -0.5873 -0.3932
 8141SOL    HW128980   5.248   2.662  12.052 -1.5266  1.0883 -3.5169
 8141SOL    HW228981   5.109   2.634  12.105  0.7349 -1.4844  1.8614
 8142SOL     OW28982   6.099   3.841   5.628  0.0426 -0.5009 -0.0717
 8142SOL    HW128983   6.049   3.759   5.627  1.1852 -1.2211 -0.8328
 8142SOL    HW228984   6.188   3.814   5.649  0.3121  0.6324  0.2900
 8143SOL     OW28985   5.613   4.080   8.774  0.2858 -0.2213 -0.1997
 8143SOL    HW128986   5.593   3.987   8.763 -3.4531  0.2909  0.9069
 8143SOL    HW228987   5.539   4.115   8.823  1.1557  3.5066 -1.2116
 8144SOL     OW28988   8.754   1.276   2.232  0.0471  0.0802 -0.0229
 8144SOL    HW128989   8.725   1.295   2.321 -0.0633  0.9692 -0.2357
 8144SOL    HW228990   8.763   1.362   2.191 -0.4983 -0.3400 -1.0581
 8145SOL     OW28991   5.866   7.348   3.994 -0.4213 -0.2234 -0.4350
 8145SOL    HW128992   5.844   7.268   4.041  0.7827  0.1021  0.7590
 8145SOL    HW228993   5.840   7.418   4.053  2.1531  0.1887  0.3420
 8146SOL     OW28994   0.842   8.982   5.833  0.3020 -0.0620  0.5235
 8146SOL    HW128995   0.782   8.908   5.842  1.4053 -0.8627  1.8534
 8146SOL    HW228996   0.909   8.950   5.772  1.2276 -0.5191  1.7343
 8147SOL     OW28997   2.170  10.785  11.157 -0.6620 -0.1931  0.5536
 8147SOL    HW128998   2.227  10.722  11.202  0.6389  1.1451  0.8788
 8147SOL    HW228999   2.122  10.733  11.093  1.1563 -1.3766  0.0779
 8148SOL     OW29000   9.880   4.936   9.746 -0.9694  0.3647 -0.0989
 8148SOL    HW129001   9.813   4.981   9.695  0.4166  1.7633 -0.7889
 8148SOL    HW229002   9.928   5.007   9.790 -0.6684 -0.6670  1.2899
 8149SOL     OW29003   5.909   4.480   3.671  0.0426  0.3746 -0.0767
 8149SOL    HW129004   5.966   4.461   3.597  0.5470  2.8361 -0.4037
 8149SOL    HW229005   5.827   4.435   3.650  1.1834 -1.6618 -0.4971
 8150SOL     OW29006   1.673   8.483   8.634 -0.0890  0.2515 -0.7575
 8150SOL    HW129007   1.714   8.400   8.659  0.9603  0.6581 -1.0631
 8150SOL    HW229008   1.728   8.516   8.563 -0.8986  0.8807 -1.1048
 8151SOL     OW29009   1.694   8.062   4.969  0.0012 -0.5817  0.2595
 8151SOL    HW129010   1.599   8.068   4.963 -0.0809 -1.4962  0.4791
 8151SOL    HW229011   1.726   8.139   4.922 -0.8628  0.4426  1.2928
 8152SOL     OW29012  12.047   2.892   5.016  0.1586 -0.7899  0.1027
 8152SOL    HW129013  11.984   2.851   4.955  1.0800 -1.3999 -0.4583
 8152SOL    HW229014  12.011   2.874   5.103  0.0798 -2.0485 -0.1708
 8153SOL     OW29015   7.517   3.860   8.970  0.3657 -0.3499 -0.0417
 8153SOL    HW129016   7.553   3.810   8.896 -0.4817 -1.4959  0.3009
 8153SOL    HW229017   7.424   3.839   8.970  0.1623  0.5232  0.6759
 8154SOL     OW29018   2.917   4.916   8.783 -0.5312 -0.5710 -0.1797
 8154SOL    HW129019   2.950   4.829   8.807  3.2375  0.6922 -0.1164
 8154SOL    HW229020   2.943   4.928   8.692 -0.4411  0.7292 -0.0026
 8155SOL     OW29021   7.543   9.542   1.642 -0.1712 -0.5042 -0.6257
 8155SOL    HW129022   7.547   9.536   1.738 -0.0013 -0.1913 -0.6107
 8155SOL    HW229023   7.464   9.593   1.625 -0.4361 -0.9224 -0.6708
 8156SOL     OW29024   7.454   1.349   6.008 -0.0553 -0.1597  0.0355
 8156SOL    HW129025   7.538   1.344   6.054  1.0664  0.0292 -1.8608
 8156SOL    HW229026   7.458   1.278   5.943 -1.1333  0.1819 -0.4335
 8157SOL     OW29027   4.314  11.390  12.003  0.0684  0.3590  0.0325
 8157SOL    HW129028   4.377  11.442  11.953  0.4302  0.1437  0.2669
 8157SOL    HW229029   4.268  11.454  12.058  0.2341  0.4849  0.0232
 8158SOL     OW29030  10.071  10.187   4.924 -0.0360 -0.4669  0.7605
 8158SOL    HW129031  10.029  10.260   4.878  0.7522 -0.5199 -0.0638
 8158SOL    HW229032  10.005  10.117   4.922  0.5090 -0.9854 -1.6646
 8159SOL     OW29033   4.801   7.477   5.873  0.0821  0.4216 -0.2005
 8159SOL    HW129034   4.801   7.539   5.945 -0.0194  1.0290 -0.7080
 8159SOL    HW229035   4.709   7.475   5.843  0.0396 -0.1493 -0.0396
 8160SOL     OW29036   8.185   0.920   2.432 -1.0563  0.6461  0.5813
 8160SOL    HW129037   8.166   0.928   2.525  0.4951  0.8884  0.8982
 8160SOL    HW229038   8.260   0.861   2.427 -0.0743  1.8982 -0.3608
 8161SOL     OW29039  10.822   6.734   0.934  0.1831  0.0234  0.0591
 8161SOL    HW129040  10.883   6.721   0.861  0.2385 -1.4811  0.3526
 8161SOL    HW229041  10.735   6.735   0.893  0.3596  2.6084 -0.4159
 8162SOL     OW29042   0.840   0.728   8.720 -0.4519  0.4560  0.1080
 8162SOL    HW129043   0.893   0.795   8.676  0.6649 -0.2760  0.2932
 8162SOL    HW229044   0.749   0.755   8.704 -0.0516  1.1840 -1.0987
 8163SOL     OW29045   4.223  11.279   8.137 -0.0202 -0.1209  0.4757
 8163SOL    HW129046   4.254  11.370   8.136  1.9971 -0.7754 -0.0681
 8163SOL    HW229047   4.290  11.231   8.185 -0.3539 -1.5619 -0.4275
 8164SOL     OW29048  11.606   8.000   3.601 -0.0384  0.2985 -0.2113
 8164SOL    HW129049  11.595   7.934   3.532  0.7613 -0.2089  0.1321
 8164SOL    HW229050  11.518   8.013   3.636 -0.3140 -0.0623 -0.7612
 8165SOL     OW29051   7.164   4.111   1.149  0.3526  0.7247  0.1076
 8165SOL    HW129052   7.137   4.130   1.239  1.0798 -0.1645  0.5307
 8165SOL    HW229053   7.260   4.112   1.152  0.4418 -1.4883 -0.1315
 8166SOL     OW29054  11.389   5.963   4.466 -0.4037  0.0376 -0.1161
 8166SOL    HW129055  11.344   5.938   4.547 -1.2794 -1.7862 -1.0966
 8166SOL    HW229056  11.482   5.960   4.488 -0.6224  2.2795  1.5183
 8167SOL     OW29057   0.880  11.242   8.500 -0.5523 -0.0652  0.3473
 8167SOL    HW129058   0.828  11.212   8.425 -0.2611  0.1482  0.0520
 8167SOL    HW229059   0.925  11.163   8.531  1.6493  0.3023 -1.5758
 8168SOL     OW29060   1.383   3.313   4.871 -0.0256  0.0589 -0.4964
 8168SOL    HW129061   1.397   3.218   4.868  1.2448  0.2215 -0.2440
 8168SOL    HW229062   1.347   3.334   4.785 -0.3478 -0.6591 -0.5467
 8169SOL     OW29063  11.247  10.065  11.806 -0.1631  0.0104 -0.0876
 8169SOL    HW129064  11.237  10.004  11.733 -1.4890  0.0587  0.0252
 8169SOL    HW229065  11.273  10.009  11.880 -1.0912 -0.4038 -0.0545
 8170SOL     OW29066   1.438  10.937   8.684  0.3165  0.0615 -0.1186
 8170SOL    HW129067   1.388  10.929   8.603 -1.2223 -2.4203  0.9434
 8170SOL    HW229068   1.393  11.005   8.734 -0.0953  0.0247 -0.4332
 8171SOL     OW29069   6.267  10.190   2.217 -0.1535  0.2956  0.2875
 8171SOL    HW129070   6.189  10.178   2.163 -0.1678 -1.3466  0.6265
 8171SOL    HW229071   6.289  10.102   2.247  0.2043  1.0672  2.4656
 8172SOL     OW29072   0.274   6.773   8.217 -0.3355 -0.0457 -0.3541
 8172SOL    HW129073   0.210   6.789   8.147  0.2672  3.1718 -0.3217
 8172SOL    HW229074   0.223   6.776   8.298 -0.5848 -0.8374 -0.4668
 8173SOL     OW29075   1.494   4.414   6.586  0.3114  0.1392  0.6564
 8173SOL    HW129076   1.543   4.394   6.506  0.0252  1.1514  0.2099
 8173SOL    HW229077   1.405   4.433   6.555 -0.3980 -1.6611  1.4547
 8174SOL     OW29078   2.953   0.537   4.411 -0.0858  0.1038 -0.3238
 8174SOL    HW129079   3.039   0.539   4.455 -0.0134  0.8711 -0.4733
 8174SOL    HW229080   2.957   0.461   4.353  0.0585 -0.5494  0.5204
 8175SOL     OW29081   2.382   3.697  10.175  0.5841  0.4000 -0.0766
 8175SOL    HW129082   2.352   3.620  10.223  0.2827  0.7574  0.3133
 8175SOL    HW229083   2.441   3.741  10.237 -0.1371  1.0899  0.1330
 8176SOL     OW29084  10.089   6.994  10.026  0.1756  0.1961 -0.6376
 8176SOL    HW129085  10.104   6.949  10.109  0.2834  2.4220  0.6442
 8176SOL    HW229086  10.002   7.033  10.035  0.5979  1.3034 -1.1265
 8177SOL     OW29087   8.562   1.976   1.074  0.0366 -0.6392 -0.2129
 8177SOL    HW129088   8.492   2.025   1.118  1.2777 -0.6928  1.9678
 8177SOL    HW229089   8.596   2.036   1.008  2.1008  2.0428  2.9333
 8178SOL     OW29090   1.132   5.434   3.622 -0.0480  0.0380 -0.3905
 8178SOL    HW129091   1.164   5.507   3.674 -1.0279  0.8521 -0.8970
 8178SOL    HW229092   1.169   5.357   3.663 -0.1222  0.7213  0.9993
 8179SOL     OW29093   7.160  11.606   9.027  0.4582 -0.0889  0.1577
 8179SOL    HW129094   7.223  11.665   9.069  0.2300 -0.5197  1.1510
 8179SOL    HW229095   7.127  11.552   9.099 -1.5893  0.5848 -0.2143
 8180SOL     OW29096   6.336  10.391   9.822  0.1170  0.6619  0.0640
 8180SOL    HW129097   6.345  10.449   9.898  3.1241  2.0719 -1.1825
 8180SOL    HW229098   6.401  10.322   9.836 -0.9927 -0.4673 -0.1398
 8181SOL     OW29099   1.776  10.625   8.785 -0.0473 -0.2632  0.0383
 8181SOL    HW129100   1.778  10.595   8.695 -2.4084  0.2598 -0.2657
 8181SOL    HW229101   1.735  10.711   8.781 -0.4054 -0.3214  1.6232
 8182SOL     OW29102   8.210   9.883   0.768  0.2961 -0.1870 -0.1263
 8182SOL    HW129103   8.242   9.972   0.784 -0.3691 -0.3519  2.6537
 8182SOL    HW229104   8.154   9.864   0.843 -2.1067 -1.8520 -2.1793
 8183SOL     OW29105   2.004   1.385  11.221 -0.1977  0.3407 -0.3057
 8183SOL    HW129106   1.953   1.415  11.146 -1.9640  0.9209  1.0485
 8183SOL    HW229107   1.981   1.292  11.229  1.3849 -0.1949 -1.5024
 8184SOL     OW29108  10.104   5.281   3.662 -0.0704 -0.0006  0.3361
 8184SOL    HW129109  10.109   5.188   3.685 -0.0028  0.3900  2.0718
 8184SOL    HW229110  10.046   5.284   3.587  0.5823 -1.5243 -0.2712
 8185SOL     OW29111   2.366  10.095  10.237  0.3488  0.4254 -0.8713
 8185SOL    HW129112   2.275  10.074  10.258  1.0087 -0.6179  1.2456
 8185SOL    HW229113   2.379  10.182  10.275  0.5455  0.0629 -0.0886
 8186SOL     OW29114   4.672   2.227  11.835  0.3470  0.2879  0.3539
 8186SOL    HW129115   4.586   2.228  11.876  0.3246  1.8946  0.3117
 8186SOL    HW229116   4.658   2.262  11.747  0.5273 -2.4284 -0.8658
 8187SOL     OW29117  11.046   1.767   4.763 -0.4890 -0.3282 -0.8711
 8187SOL    HW129118  11.135   1.793   4.739 -0.5835  0.7896 -0.0870
 8187SOL    HW229119  11.054   1.726   4.849 -0.7681  0.1399 -0.6141
 8188SOL     OW29120   9.369   3.396   6.743 -0.1805  0.4229  0.1394
 8188SOL    HW129121   9.439   3.355   6.692 -0.9514 -1.9396  0.8563
 8188SOL    HW229122   9.406   3.404   6.831  0.4649  2.7269 -0.2697
 8189SOL     OW29123  11.349   2.875   9.873 -0.6352  0.5993 -0.1099
 8189SOL    HW129124  11.283   2.810   9.848  1.1076 -0.8641 -1.1689
 8189SOL    HW229125  11.379   2.846   9.960 -2.0408  1.8699  0.8557
 8190SOL     OW29126   8.589   7.271   6.065 -0.1459  0.1079 -0.1423
 8190SOL    HW129127   8.638   7.233   6.138 -2.3364  0.0812  1.4223
 8190SOL    HW229128   8.525   7.204   6.042 -1.5797  1.3527  0.0793
 8191SOL     OW29129   7.954   4.012   8.341 -0.2940 -0.3422 -0.1469
 8191SOL    HW129130   7.953   4.096   8.294  0.8594  0.3422  0.9654
 8191SOL    HW229131   7.946   4.036   8.433 -3.9278 -1.7347  0.0637
 8192SOL     OW29132  11.156   4.800   5.841  0.6380  0.3578 -0.0590
 8192SOL    HW129133  11.181   4.808   5.933 -0.5854  1.0270  0.2419
 8192SOL    HW229134  11.131   4.708   5.831  1.2854  0.1568  0.1353
 8193SOL     OW29135   0.481   3.475   0.294 -0.7758  0.1348  0.3950
 8193SOL    HW129136   0.412   3.459   0.230 -1.1312  1.9256  0.2932
 8193SOL    HW229137   0.562   3.453   0.248 -0.9509  2.1678 -0.9975
 8194SOL     OW29138  10.617   7.941   4.270  0.0094 -0.2578 -0.0887
 8194SOL    HW129139  10.527   7.911   4.284 -0.8356  1.7564 -0.8345
 8194SOL    HW229140  10.648   7.965   4.357  0.5437 -2.6751  0.4573
 8195SOL     OW29141  11.099   0.700   7.259 -0.2366 -0.2308  0.2952
 8195SOL    HW129142  11.111   0.795   7.259 -0.0241 -0.2539 -0.7580
 8195SOL    HW229143  11.074   0.679   7.350  0.9467  0.6656  0.8514
 8196SOL     OW29144   3.120   1.133  10.877  0.2924 -0.3163 -0.1180
 8196SOL    HW129145   3.213   1.150  10.889  0.2308 -0.4125  0.5272
 8196SOL    HW229146   3.112   1.038  10.886  0.0840 -0.2725  0.1549
 8197SOL     OW29147   6.123   9.710   0.405 -0.1270  0.3835 -0.1064
 8197SOL    HW129148   6.072   9.647   0.353 -0.7485 -0.0470  1.0004
 8197SOL    HW229149   6.089   9.795   0.380 -1.8540  0.0797  1.0430
 8198SOL     OW29150   2.378   4.617  10.040 -0.2468 -0.4043  0.0891
 8198SOL    HW129151   2.473   4.612  10.046 -0.3622 -0.7542  1.9090
 8198SOL    HW229152   2.363   4.673   9.963  1.3996 -0.6211 -0.4384
 8199SOL     OW29153   0.623   5.136   4.805 -0.3123  0.1675  0.0576
 8199SOL    HW129154   0.711   5.119   4.772 -0.5254 -1.3287  0.1996
 8199SOL    HW229155   0.575   5.054   4.791 -0.7991 -0.1436  2.8430
 8200SOL     OW29156   8.086   1.132   6.351  0.2878 -0.1629 -0.2644
 8200SOL    HW129157   8.123   1.182   6.424  2.1426 -1.9639  0.1245
 8200SOL    HW229158   8.074   1.044   6.387 -4.0876  0.1353 -0.5307
 8201SOL     OW29159  11.716   7.330   0.978 -0.5177 -0.4701 -0.6545
 8201SOL    HW129160  11.802   7.338   0.936  0.2105 -1.4839  0.5498
 8201SOL    HW229161  11.736   7.300   1.066 -2.0958 -0.0579 -0.1329
 8202SOL     OW29162   7.075   6.842   7.042  0.4463 -0.0909  0.1369
 8202SOL    HW129163   7.143   6.906   7.019 -0.0586  0.3642 -0.1012
 8202SOL    HW229164   7.006   6.894   7.083 -1.0848 -0.0842 -2.2985
 8203SOL     OW29165   2.112   0.381   3.845  0.0450 -0.2052 -0.8393
 8203SOL    HW129166   2.072   0.440   3.781  2.5258 -0.6480 -2.9485
 8203SOL    HW229167   2.176   0.330   3.795  1.8438 -0.8798  1.9065
 8204SOL     OW29168   4.127   1.151  10.103 -0.0076  0.8008 -0.0171
 8204SOL    HW129169   4.034   1.129  10.118 -0.0157 -0.1630 -1.2656
 8204SOL    HW229170   4.125   1.237  10.063 -0.4069  0.5994 -0.4424
 8205SOL     OW29171   8.411   2.447   3.201  0.1890 -0.4282  0.3442
 8205SOL    HW129172   8.425   2.419   3.292  0.2380 -0.4961  0.3156
 8205SOL    HW229173   8.316   2.444   3.190  0.2496 -1.9021 -0.0681
 8206SOL     OW29174   8.582  12.086   3.879  0.1558 -0.4178  0.4883
 8206SOL    HW129175   8.664  12.036   3.885  0.5248  0.0331 -0.5163
 8206SOL    HW229176   8.607  12.166   3.834 -0.6198  0.2614  1.2247
 8207SOL     OW29177   6.589   5.543   3.430 -0.0404 -0.0076 -0.3008
 8207SOL    HW129178   6.647   5.610   3.466  0.8083 -1.1524  0.5269
 8207SOL    HW229179   6.588   5.560   3.336  1.4529  0.1820 -0.2948
 8208SOL     OW29180  11.169   4.987   6.347 -0.1275 -0.3343 -0.1640
 8208SOL    HW129181  11.249   4.998   6.399 -1.0277  0.6986  1.0558
 8208SOL    HW229182  11.154   4.892   6.348  0.4335 -0.4320  0.6162
 8209SOL     OW29183   0.338   2.058   2.004  0.2700 -0.5444 -0.0801
 8209SOL    HW129184   0.304   1.979   1.964 -1.9456 -0.2611  1.0893
 8209SOL    HW229185   0.357   2.032   2.095 -0.3555  0.2037  0.2763
 8210SOL     OW29186  11.235   9.890   2.396 -0.2439  0.2049 -0.5893
 8210SOL    HW129187  11.244   9.985   2.395 -1.1503  0.3614  1.4124
 8210SOL    HW229188  11.324   9.858   2.409 -0.1846  0.9146  1.0015
 8211SOL     OW29189   8.059   5.295   1.199 -0.7767  0.2226  0.2316
 8211SOL    HW129190   8.013   5.254   1.273 -1.5921 -0.7206 -0.7623
 8211SOL    HW229191   8.045   5.389   1.212 -1.8813  0.0156  0.6688
 8212SOL     OW29192  10.645   4.602   8.325 -0.5079  0.3261 -0.0345
 8212SOL    HW129193  10.635   4.697   8.333 -2.2228  0.2823 -1.2518
 8212SOL    HW229194  10.589   4.578   8.252 -0.6751 -1.7335  0.7107
 8213SOL     OW29195   8.404  11.347   3.914  0.4682  1.1010 -0.0346
 8213SOL    HW129196   8.453  11.319   3.991  1.2434  1.6292 -0.3274
 8213SOL    HW229197   8.344  11.274   3.896  0.5319  0.8218  0.8455
 8214SOL     OW29198   0.454   4.335   9.275 -0.0338 -0.1965  0.4995
 8214SOL    HW129199   0.504   4.271   9.326  1.3505  0.5417  0.1176
 8214SOL    HW229200   0.486   4.326   9.186 -0.4439  0.4350  0.2743
 8215SOL     OW29201   4.746  10.634   6.197  0.5551  0.0474 -0.4145
 8215SOL    HW129202   4.830  10.639   6.244  0.3197  0.3225 -0.0127
 8215SOL    HW229203   4.689  10.693   6.245  0.8660  1.9515 -2.2541
 8216SOL     OW29204  11.234   7.979  11.695 -1.0538 -0.2065 -0.2621
 8216SOL    HW129205  11.289   8.002  11.620  0.5242  1.5626  1.3379
 8216SOL    HW229206  11.273   7.899  11.730  0.2432  0.7420  0.5423
 8217SOL     OW29207   7.948   8.010   9.617  0.0426 -0.1770  0.2181
 8217SOL    HW129208   8.007   7.949   9.573  0.3626  1.5456 -1.9231
 8217SOL    HW229209   7.878   8.025   9.554  0.1608  1.8928  0.5221
 8218SOL     OW29210   4.464   1.011   5.221  0.2273 -0.4425  0.1719
 8218SOL    HW129211   4.533   0.945   5.229  0.5134 -0.5611 -2.3421
 8218SOL    HW229212   4.460   1.029   5.127 -0.6975  2.2364  0.6529
 8219SOL     OW29213   8.999   4.463   4.588  0.1302 -0.4966  0.2171
 8219SOL    HW129214   8.997   4.534   4.523  0.6177 -0.6686  0.0090
 8219SOL    HW229215   8.916   4.417   4.576 -0.5040  0.4384  0.8096
 8220SOL     OW29216  10.165   7.344   3.939 -0.2955  0.0784  0.0140
 8220SOL    HW129217  10.089   7.308   3.893 -0.3404  0.5733 -0.3042
 8220SOL    HW229218  10.240   7.298   3.901 -0.5829 -2.6773  2.4221
 8221SOL     OW29219   8.239   7.426  10.443 -0.1049  0.1894 -0.8339
 8221SOL    HW129220   8.264   7.335  10.428 -0.2785 -0.3927  1.7992
 8221SOL    HW229221   8.316   7.466  10.483 -1.2311  0.0226  1.7291
 8222SOL     OW29222   5.868   1.158   8.969 -0.1040 -0.1229 -0.3874
 8222SOL    HW129223   5.779   1.180   8.940  0.0776  0.9152 -0.1982
 8222SOL    HW229224   5.892   1.082   8.916 -0.9322 -0.1431 -0.7552
 8223SOL     OW29225   5.565  10.658   0.730 -0.1292 -0.3217 -0.3129
 8223SOL    HW129226   5.525  10.725   0.676 -1.9692 -0.2379  1.0671
 8223SOL    HW229227   5.522  10.667   0.815  2.7836 -0.2695  1.2908
 8224SOL     OW29228   4.935   9.240  10.689 -0.5040 -0.3731 -0.0616
 8224SOL    HW129229   4.929   9.176  10.760 -0.4100 -1.1210 -0.7056
 8224SOL    HW229230   4.948   9.187  10.610  0.5574  0.4979 -0.4921
 8225SOL     OW29231  11.873   7.876  11.677 -0.0882 -0.3708  0.3999
 8225SOL    HW129232  11.793   7.824  11.682  0.0788 -0.5213  2.5473
 8225SOL    HW229233  11.943   7.811  11.667 -0.1266 -0.3013 -0.4220
 8226SOL     OW29234   7.915   4.132   2.727 -0.1147 -0.0141  0.0015
 8226SOL    HW129235   7.941   4.108   2.816  0.8129  1.4579  0.1667
 8226SOL    HW229236   7.919   4.228   2.727 -1.2271  0.0479 -1.3019
 8227SOL     OW29237  10.753   9.444   9.493 -0.3426  0.4472 -0.5075
 8227SOL    HW129238  10.796   9.360   9.479  0.5132  1.1038 -2.0771
 8227SOL    HW229239  10.660   9.425   9.480 -0.2490 -0.4080 -0.0313
 8228SOL     OW29240   3.311   8.386   5.188 -0.0147 -0.2008 -0.8351
 8228SOL    HW129241   3.291   8.398   5.095 -1.7317 -1.3901 -0.6806
 8228SOL    HW229242   3.340   8.295   5.195  0.5583  0.0178 -0.2717
 8229SOL     OW29243   9.479   9.653   7.347 -0.2308 -0.1938  0.2208
 8229SOL    HW129244   9.388   9.624   7.342  0.4623 -2.3863 -1.0697
 8229SOL    HW229245   9.477   9.727   7.407 -2.6043 -1.2755  1.6385
 8230SOL     OW29246   2.461   7.100   9.827 -0.1904 -0.5887  0.0212
 8230SOL    HW129247   2.533   7.052   9.786 -0.2038 -1.4739  0.9824
 8230SOL    HW229248   2.449   7.057   9.911  0.2953  1.6093  1.2792
 8231SOL     OW29249   9.598   3.058   3.013  0.1864  0.5652  0.1625
 8231SOL    HW129250   9.665   3.114   3.051  2.1727 -1.0647 -0.7768
 8231SOL    HW229251   9.645   2.979   2.985 -2.1787 -0.7947 -0.2523
 8232SOL     OW29252  10.826   7.679   5.769  0.3001 -0.6677 -0.3652
 8232SOL    HW129253  10.831   7.607   5.832  0.0139 -0.0154  0.4052
 8232SOL    HW229254  10.917   7.705   5.755  0.4813 -1.7124 -1.2862
 8233SOL     OW29255   1.473   9.875   2.541  0.2309 -0.1056  0.0802
 8233SOL    HW129256   1.396   9.897   2.489 -0.3792 -0.3841  0.8438
 8233SOL    HW229257   1.511   9.959   2.566  0.4812  0.0301 -0.7291
 8234SOL     OW29258   2.890   8.250   3.178  0.1086 -0.1288  0.4504
 8234SOL    HW129259   2.799   8.245   3.209  0.0115 -1.7085 -0.0030
 8234SOL    HW229260   2.890   8.322   3.115 -1.2652 -1.2208 -0.8595
 8235SOL     OW29261   7.763  10.499  10.380  0.1877 -0.4810 -0.0267
 8235SOL    HW129262   7.792  10.587  10.405  0.9196 -0.9035  0.6187
 8235SOL    HW229263   7.821  10.474  10.308  0.4477 -0.7283  0.2705
 8236SOL     OW29264   7.149   0.244   8.087 -0.7184  0.2097 -0.1465
 8236SOL    HW129265   7.115   0.305   8.021 -0.1601 -0.6758 -1.2704
 8236SOL    HW229266   7.186   0.172   8.037 -0.2234 -0.4603  1.1419
 8237SOL     OW29267   2.805   3.359   3.900 -0.2317  0.4121 -0.2701
 8237SOL    HW129268   2.779   3.291   3.838  0.8509 -0.0903 -0.2054
 8237SOL    HW229269   2.824   3.312   3.981 -0.6348  0.9396  0.1347
 8238SOL     OW29270  10.971   3.172   9.884  0.2668  0.1173  0.3052
 8238SOL    HW129271  10.876   3.157   9.882  0.0110  1.2564  1.8407
 8238SOL    HW229272  10.993   3.171   9.977  1.3330  2.2541  0.1307
 8239SOL     OW29273   2.245   9.225   8.801 -0.8350 -0.3528 -0.7202
 8239SOL    HW129274   2.256   9.226   8.896  1.5332 -1.4009 -0.9016
 8239SOL    HW229275   2.287   9.305   8.770  0.6569 -1.2067 -1.0059
 8240SOL     OW29276   5.004   1.643   2.852 -0.2426  0.3088 -0.3811
 8240SOL    HW129277   4.922   1.627   2.806 -0.1482 -0.1047 -0.4108
 8240SOL    HW229278   5.009   1.738   2.860 -0.3642  0.3747 -1.0359
 8241SOL     OW29279   9.341   9.254   3.140  0.0860 -0.0713  0.3722
 8241SOL    HW129280   9.359   9.347   3.126 -2.4877  0.3176 -0.9190
 8241SOL    HW229281   9.376   9.235   3.227 -0.1693  2.3400  1.0695
 8242SOL     OW29282   9.959   0.722   5.321 -0.1235 -0.1863  0.1782
 8242SOL    HW129283   9.941   0.670   5.243 -1.7022 -0.7074  0.8477
 8242SOL    HW229284  10.011   0.664   5.377 -0.1708 -0.3233  0.0811
 8243SOL     OW29285   4.692   8.423   6.457 -0.0081  0.0918  0.5753
 8243SOL    HW129286   4.635   8.378   6.519  2.1171  0.1183  2.6845
 8243SOL    HW229287   4.734   8.353   6.407 -1.3277  0.0506 -0.5268
 8244SOL     OW29288  12.092  10.445   2.960  0.1278 -0.8779 -0.3276
 8244SOL    HW129289  12.073  10.533   2.926  2.6009 -0.6739 -1.3763
 8244SOL    HW229290  12.013  10.421   3.009 -1.4306  1.0671 -1.7195
 8245SOL     OW29291   6.981   8.074   1.202 -0.2242 -0.7618 -0.0408
 8245SOL    HW129292   6.922   8.092   1.275  0.5810 -0.2629  0.5029
 8245SOL    HW229293   6.923   8.055   1.129 -1.0624 -0.3093  0.4840
 8246SOL     OW29294  11.945   5.382   1.095  0.3791 -0.6696  0.4077
 8246SOL    HW129295  12.035   5.389   1.128  0.8308 -1.6405 -0.5706
 8246SOL    HW229296  11.910   5.305   1.139  0.0516 -0.3456  0.7162
 8247SOL     OW29297   3.302   6.447   2.667 -0.4271  0.0503 -0.0157
 8247SOL    HW129298   3.208   6.430   2.657 -0.6195  0.8589  0.3032
 8247SOL    HW229299   3.327   6.394   2.743 -0.6811  0.0368  0.0615
 8248SOL     OW29300   2.520   8.047   4.234  0.2442  0.2145 -0.4908
 8248SOL    HW129301   2.455   8.001   4.180 -0.5822  0.1253  0.5386
 8248SOL    HW229302   2.468   8.100   4.295  1.1655  1.3267 -0.6335
 8249SOL     OW29303   9.242   6.093   1.542  0.5401  0.0753 -0.9632
 8249SOL    HW129304   9.237   6.078   1.448  0.3302  0.3572 -0.9985
 8249SOL    HW229305   9.328   6.131   1.556  0.7942 -0.4874 -0.9662
 8250SOL     OW29306   1.995   5.056   9.638  0.2625 -0.3719 -0.0602
 8250SOL    HW129307   1.922   5.103   9.677  0.4272  0.3429 -0.5782
 8250SOL    HW229308   1.965   4.965   9.631  0.2657 -0.5516  1.7726
 8251SOL     OW29309   9.939   2.137   7.072 -0.0705 -0.3049  0.0320
 8251SOL    HW129310   9.887   2.159   6.995 -1.6734 -0.2582  1.0755
 8251SOL    HW229311   9.960   2.044   7.062 -1.2194 -0.5734  0.0580
 8252SOL     OW29312   9.373   8.096   2.176 -0.6352 -0.3707  0.1200
 8252SOL    HW129313   9.435   8.069   2.244 -0.4395 -3.0976 -1.0191
 8252SOL    HW229314   9.389   8.190   2.165  0.9883 -0.3386  2.1321
 8253SOL     OW29315   6.939   5.769   0.766 -0.1560  0.1623 -0.5543
 8253SOL    HW129316   7.005   5.813   0.713 -1.1757  1.1689 -1.0264
 8253SOL    HW229317   6.889   5.716   0.704  0.8073 -1.4025 -0.0488
 8254SOL     OW29318   2.476   4.445   2.251 -0.3435 -0.1379 -0.0701
 8254SOL    HW129319   2.468   4.487   2.165  0.0293 -0.5082 -0.2913
 8254SOL    HW229320   2.546   4.493   2.295 -1.3578  0.8498  0.5144
 8255SOL     OW29321   3.210   0.084  11.496 -0.3626 -0.3865  0.1014
 8255SOL    HW129322   3.222   0.138  11.418  1.0043 -1.6756 -0.6446
 8255SOL    HW229323   3.151   0.014  11.469 -1.4824  0.2516  0.8279
 8256SOL     OW29324   8.863  10.569   9.837  0.5076  0.4389 -0.2421
 8256SOL    HW129325   8.839  10.576   9.745 -0.5730  0.3633  0.0123
 8256SOL    HW229326   8.927  10.638   9.851  0.7038  0.4276 -1.0601
 8257SOL     OW29327   4.846   0.539   0.258  0.7275 -0.3751 -0.4365
 8257SOL    HW129328   4.785   0.539   0.184 -0.6482 -1.1504  0.6596
 8257SOL    HW229329   4.806   0.599   0.322  1.7444  0.0539 -0.1877
 8258SOL     OW29330   4.980   9.277  12.047 -0.3289  0.2037  0.3489
 8258SOL    HW129331   4.928   9.261  11.969  0.6663  0.9633 -0.4943
 8258SOL    HW229332   4.917   9.273  12.119 -1.4002  0.2829 -0.5582
 8259SOL     OW29333  10.195   5.789  10.456 -0.1571  0.5633  0.0226
 8259SOL    HW129334  10.218   5.803  10.548 -1.2768  1.5813  0.1769
 8259SOL    HW229335  10.170   5.697  10.452  0.6355  0.3129  0.5627
 8260SOL     OW29336   0.840   7.550   9.674 -0.0458  1.1192  0.1008
 8260SOL    HW129337   0.869   7.640   9.685  1.6744  0.6207  0.0182
 8260SOL    HW229338   0.816   7.544   9.581 -0.5957  1.6052  0.2114
 8261SOL     OW29339   0.401  10.862   7.911  0.1664 -0.3395 -0.0621
 8261SOL    HW129340   0.449  10.779   7.910  0.8703 -0.0236  1.8600
 8261SOL    HW229341   0.435  10.907   7.988 -3.0392  0.0216  1.3172
 8262SOL     OW29342   6.657   8.752   8.398 -0.4865  0.5060  0.4996
 8262SOL    HW129343   6.702   8.741   8.314 -0.9171 -0.6518  0.4059
 8262SOL    HW229344   6.727   8.749   8.463 -0.3539 -0.7227  0.3167
 8263SOL     OW29345   6.889  11.126   3.493 -0.6804 -0.3466  0.2710
 8263SOL    HW129346   6.832  11.202   3.487 -0.2196 -0.0543 -0.5358
 8263SOL    HW229347   6.907  11.102   3.402  2.1446  0.8185  0.4425
 8264SOL     OW29348   7.817  10.330   5.613 -0.0834  0.2927  0.3487
 8264SOL    HW129349   7.794  10.395   5.679 -1.1490  0.6355 -0.3395
 8264SOL    HW229350   7.862  10.379   5.545 -0.1662  0.1715  0.2056
 8265SOL     OW29351   1.860   5.565   3.877  0.6665 -0.2603 -0.4792
 8265SOL    HW129352   1.831   5.502   3.811 -0.4552 -0.2902  0.0078
 8265SOL    HW229353   1.866   5.514   3.958 -2.8406  0.6520  0.5347
 8266SOL     OW29354   9.533  11.563   3.756  0.1428 -0.7047 -0.1131
 8266SOL    HW129355   9.460  11.523   3.710 -0.3990 -0.9931  0.9581
 8266SOL    HW229356   9.605  11.561   3.693 -0.8975  0.0705 -1.3594
 8267SOL     OW29357   6.582   3.559   4.831  0.0764 -0.2810 -0.2938
 8267SOL    HW129358   6.574   3.654   4.835  1.1900 -0.1701 -0.3223
 8267SOL    HW229359   6.603   3.533   4.921 -2.8290 -0.8144  0.3282
 8268SOL     OW29360   1.824  11.190   4.937 -0.2307 -0.7041  0.4552
 8268SOL    HW129361   1.842  11.136   4.860 -0.9749  0.5886 -0.6789
 8268SOL    HW229362   1.743  11.154   4.973 -0.9390 -0.1692 -0.5206
 8269SOL     OW29363   3.320   1.315  12.066 -0.0882  0.3891  0.2916
 8269SOL    HW129364   3.408   1.287  12.039 -0.1257  1.1625 -0.7107
 8269SOL    HW229365   3.298   1.258  12.140  0.5354 -0.9870 -0.5492
 8270SOL     OW29366   8.614  11.108   1.861  0.3279  0.3653 -0.3004
 8270SOL    HW129367   8.553  11.034   1.861  0.3555  0.3290  0.6310
 8270SOL    HW229368   8.591  11.158   1.939  0.6715  1.0388 -0.6249
 8271SOL     OW29369   2.544  11.815   7.839  0.1755 -0.3321  0.0607
 8271SOL    HW129370   2.462  11.841   7.797  1.4405 -1.2280 -3.2608
 8271SOL    HW229371   2.600  11.893   7.834  0.2140 -0.3288  0.4797
 8272SOL     OW29372   9.007   3.156  10.767 -0.4848 -0.3327  0.3043
 8272SOL    HW129373   8.959   3.209  10.831  1.0295 -0.4352  1.6031
 8272SOL    HW229374   8.980   3.066  10.786 -1.8726 -0.1990 -0.8653
 8273SOL     OW29375   8.478  10.814  11.766  0.1653  0.1219 -0.0030
 8273SOL    HW129376   8.384  10.796  11.776 -0.0624  1.4370  0.4755
 8273SOL    HW229377   8.497  10.878  11.834  1.7099 -1.0265  0.7158
 8274SOL     OW29378   2.120   5.848   7.611  0.1989 -0.4616 -0.2628
 8274SOL    HW129379   2.035   5.803   7.613 -0.8015  1.3327 -0.6915
 8274SOL    HW229380   2.173   5.795   7.551 -2.2154  0.9491 -4.0071
 8275SOL     OW29381  11.924   5.812   4.991 -0.1568 -0.3238 -0.2630
 8275SOL    HW129382  11.912   5.798   5.085 -0.5460  0.7008 -0.1440
 8275SOL    HW229383  11.998   5.755   4.968  1.8626  1.4860  1.2644
 8276SOL     OW29384   6.964  11.202   1.604  0.0676 -0.4174  0.2088
 8276SOL    HW129385   6.921  11.288   1.611  1.0720  0.0477  0.8857
 8276SOL    HW229386   6.991  11.181   1.693  1.1059 -0.7497 -0.1672
 8277SOL     OW29387   6.081  10.314  10.774  0.2194  0.3163 -0.4458
 8277SOL    HW129388   5.989  10.317  10.750 -0.1197  2.3851  0.8404
 8277SOL    HW229389   6.090  10.378  10.845  2.9133  1.2717 -1.4979
 8278SOL     OW29390   7.373   0.663   2.748 -0.5984 -0.3997 -0.3180
 8278SOL    HW129391   7.408   0.577   2.772  1.8415  1.3108  3.0719
 8278SOL    HW229392   7.284   0.664   2.783 -0.9723 -1.7903 -1.1697
 8279SOL     OW29393   1.095   0.552   6.148  0.6662  0.4458  0.1993
 8279SOL    HW129394   1.147   0.515   6.219 -0.3911 -0.5708  0.4876
 8279SOL    HW229395   1.004   0.538   6.175  0.2297  1.4750 -0.6351
 8280SOL     OW29396   0.580   2.487   7.039 -0.1178  0.0045  0.1578
 8280SOL    HW129397   0.541   2.510   6.955  1.0413 -1.7402 -0.9073
 8280SOL    HW229398   0.516   2.430   7.081  0.4887 -1.4644 -0.8387
 8281SOL     OW29399   5.773  11.233   5.440 -0.0625  0.1693 -0.1540
 8281SOL    HW129400   5.792  11.311   5.492 -0.2971  1.5209 -2.0192
 8281SOL    HW229401   5.680  11.216   5.454  0.2679 -0.6201  1.3020
 8282SOL     OW29402   2.853  10.446   0.033  0.1988  0.1493 -0.9018
 8282SOL    HW129403   2.804  10.491   0.101 -0.5326 -0.2730 -1.1324
 8282SOL    HW229404   2.920  10.397   0.080  0.5951  0.9727 -0.6035
 8283SOL     OW29405   6.577   9.610  10.227  0.4901  0.2089 -0.0014
 8283SOL    HW129406   6.554   9.703  10.225 -0.0413  0.1240  1.0946
 8283SOL    HW229407   6.671   9.607  10.211  0.1765  0.7540 -2.2624
 8284SOL     OW29408  11.442   0.077   7.478  0.5526 -0.3043  0.4053
 8284SOL    HW129409  11.445   0.047   7.387  0.4377  0.0204  0.2948
 8284SOL    HW229410  11.436  -0.004   7.530 -1.4141 -0.4317  0.0353
 8285SOL     OW29411   6.847  10.700   4.189  0.2571  0.8592 -0.0075
 8285SOL    HW129412   6.783  10.744   4.244  0.6386 -0.2957  1.4512
 8285SOL    HW229413   6.921  10.761   4.184  0.0447  1.1542  0.4268
 8286SOL     OW29414   3.607   4.264   2.330 -0.9701  0.5245 -0.2337
 8286SOL    HW129415   3.614   4.170   2.315  1.1762  0.7977 -1.4497
 8286SOL    HW229416   3.620   4.274   2.425  1.4744 -0.2847 -0.4121
 8287SOL     OW29417   7.062   6.763   9.184 -0.5093 -0.5001  0.5188
 8287SOL    HW129418   6.972   6.755   9.153  0.4438  0.4575 -3.0276
 8287SOL    HW229419   7.094   6.845   9.146  1.2461  0.4461  3.6320
 8288SOL     OW29420   5.585   3.121   9.571 -0.5020 -0.0993 -0.0703
 8288SOL    HW129421   5.545   3.140   9.656 -0.6236  0.7313 -0.3085
 8288SOL    HW229422   5.539   3.177   9.510  0.0006 -0.2516 -0.5962
 8289SOL     OW29423   4.937   5.497   6.682 -0.0644 -0.1205  0.2549
 8289SOL    HW129424   5.000   5.465   6.617 -0.3944 -1.9907  0.7772
 8289SOL    HW229425   4.941   5.592   6.676  2.1042 -0.2141 -0.3941
 8290SOL     OW29426   6.414   4.948   0.415 -0.1825  0.1276  0.0923
 8290SOL    HW129427   6.341   4.971   0.472 -1.5819  0.6201 -1.8360
 8290SOL    HW229428   6.392   4.861   0.382  0.3866  0.0519 -0.0938
 8291SOL     OW29429   0.571   2.758  11.767 -0.3916 -0.6073  0.3691
 8291SOL    HW129430   0.501   2.732  11.707 -0.5498 -2.2024  1.2069
 8291SOL    HW229431   0.534   2.829  11.819 -0.0930  1.1656 -1.6891
 8292SOL     OW29432   1.808   1.836  11.746  0.3889 -0.4591  0.0476
 8292SOL    HW129433   1.767   1.755  11.774  0.1984 -0.3080  0.2114
 8292SOL    HW229434   1.839   1.818  11.657  0.3744 -0.7174  0.0951
 8293SOL     OW29435   4.257   0.680   9.444  0.4945  0.3475  0.2557
 8293SOL    HW129436   4.342   0.721   9.456 -0.3976  1.6640  2.8031
 8293SOL    HW229437   4.257   0.607   9.505 -0.0429  0.0652 -0.0718
 8294SOL     OW29438   7.979   9.530   2.033 -0.0313  0.6507 -0.1744
 8294SOL    HW129439   8.061   9.555   1.992 -0.0435  1.3382  0.2059
 8294SOL    HW229440   7.976   9.581   2.114  0.6148 -1.6624  1.3756
 8295SOL     OW29441   8.975   6.137   1.643  0.5066 -0.2840  0.3828
 8295SOL    HW129442   9.061   6.124   1.601  0.4650 -1.9320  0.7481
 8295SOL    HW229443   8.963   6.059   1.696 -0.7188  0.4812  1.2586
 8296SOL     OW29444   8.141   9.657   5.333 -0.0676  0.0506  0.3947
 8296SOL    HW129445   8.059   9.628   5.371  0.2309 -1.2163  0.1042
 8296SOL    HW229446   8.118   9.685   5.244 -0.2512  0.1079  0.4600
 8297SOL     OW29447   3.481   3.220   3.427 -0.3228  0.3608 -0.1212
 8297SOL    HW129448   3.569   3.222   3.466 -0.4181 -1.2895  0.2859
 8297SOL    HW229449   3.423   3.203   3.502 -0.8354  0.1236 -0.5679
 8298SOL     OW29450   6.079  11.604   6.846  0.0687 -0.0293 -0.1592
 8298SOL    HW129451   6.098  11.653   6.927 -0.0154 -0.1107 -0.0891
 8298SOL    HW229452   6.030  11.527   6.876 -2.6673  1.4236 -0.5412
 8299SOL     OW29453   9.089   2.786   0.044 -0.2852  0.1926  0.8098
 8299SOL    HW129454   9.121   2.737   0.119 -0.6812  0.4008  1.1155
 8299SOL    HW229455   9.160   2.846   0.022  1.1809 -2.0021 -0.9761
 8300SOL     OW29456   7.599   8.195   1.090 -0.0911  0.0567  0.2940
 8300SOL    HW129457   7.664   8.175   1.157  0.0501 -0.7179 -0.0685
 8300SOL    HW229458   7.606   8.290   1.078  1.0372 -0.0264  0.1934
 8301SOL     OW29459   6.238   2.872   4.476  0.4270  0.0898  0.5530
 8301SOL    HW129460   6.191   2.794   4.445 -0.5972  0.5856  0.8073
 8301SOL    HW229461   6.235   2.864   4.572  0.4650  0.3560  0.5765
 8302SOL     OW29462   0.463  10.976   9.425 -0.1906  0.4533 -0.3729
 8302SOL    HW129463   0.438  11.065   9.450 -1.1565 -0.1834  1.0604
 8302SOL    HW229464   0.441  10.971   9.332 -1.3617  1.3284 -0.1746
 8303SOL     OW29465   4.715   2.841   9.275  0.7052 -0.2467 -0.5672
 8303SOL    HW129466   4.726   2.868   9.366  3.0453  0.6809 -1.0677
 8303SOL    HW229467   4.703   2.746   9.280 -2.7357  0.0912  0.8686
 8304SOL     OW29468   9.960   3.972  12.048  0.4902 -0.1393  0.3311
 8304SOL    HW129469   9.952   3.884  12.012  0.0775 -0.4964  1.2837
 8304SOL    HW229470  10.051   3.997  12.029  0.2994 -0.3253 -0.9088
 8305SOL     OW29471   6.721   5.765   3.536  0.0604  0.1370 -0.2797
 8305SOL    HW129472   6.711   5.860   3.530  3.2292  0.5448 -0.8983
 8305SOL    HW229473   6.691   5.743   3.624  1.0884  2.0179  0.5961
 8306SOL     OW29474   3.470   6.218   7.229 -0.6051  0.1379  0.0965
 8306SOL    HW129475   3.539   6.229   7.294  0.0033 -0.3465 -0.4556
 8306SOL    HW229476   3.481   6.292   7.170  0.6254 -0.8958 -1.0351
 8307SOL     OW29477   9.776   7.924   8.381  0.0937  0.0682 -0.8250
 8307SOL    HW129478   9.793   7.980   8.306  1.8652 -0.7822 -1.0932
 8307SOL    HW229479   9.682   7.904   8.375 -0.4049  2.2756 -1.1826
 8308SOL     OW29480   9.334   9.348   1.316 -0.0585  0.2331 -0.7051
 8308SOL    HW129481   9.409   9.396   1.351  1.1516 -0.8194 -1.7543
 8308SOL    HW229482   9.304   9.295   1.390  0.2462  0.6375 -0.2795
 8309SOL     OW29483   8.887   4.874  11.548  0.1738 -0.4426 -0.3191
 8309SOL    HW129484   8.976   4.851  11.572  0.1631 -1.4486 -1.2079
 8309SOL    HW229485   8.892   4.901  11.456 -0.5040 -0.9437 -0.5122
 8310SOL     OW29486  10.958  10.451   6.832  0.0361 -0.0307  0.0575
 8310SOL    HW129487  10.984  10.542   6.844  0.8761 -0.5120  2.5718
 8310SOL    HW229488  11.040  10.404   6.818 -0.2295 -0.5850  0.3204
 8311SOL     OW29489   4.041   5.104   5.752 -0.2065 -0.1398  0.1503
 8311SOL    HW129490   3.965   5.108   5.811 -0.7982 -1.7400 -0.4560
 8311SOL    HW229491   4.082   5.020   5.772 -0.0942 -0.4535 -1.3168
 8312SOL     OW29492  10.138  11.631   9.639  0.1790 -0.4787  0.6077
 8312SOL    HW129493  10.085  11.705   9.670 -0.9789 -0.6653 -0.7880
 8312SOL    HW229494  10.075  11.560   9.629  1.4179 -1.9963  2.8006
 8313SOL     OW29495   7.134   1.128   9.000 -0.4562 -0.3527  0.4350
 8313SOL    HW129496   7.198   1.190   9.032 -1.2546  0.7298 -0.0062
 8313SOL    HW229497   7.150   1.122   8.906 -1.2154  0.2066  0.2594
 8314SOL     OW29498   6.305  11.900  11.723  0.1331  0.2997 -0.4246
 8314SOL    HW129499   6.251  11.826  11.753 -1.6982  2.4786  2.1713
 8314SOL    HW229500   6.371  11.910  11.792 -0.5019  1.8736 -0.0095
 8315SOL     OW29501   5.553   9.916   5.685 -0.5070  0.5422 -0.1698
 8315SOL    HW129502   5.458   9.910   5.674 -0.3075 -2.2474 -1.0336
 8315SOL    HW229503   5.579   9.991   5.630 -2.0237  0.3042 -1.2616
 8316SOL     OW29504   5.698   4.119   7.859  0.1925 -0.2861 -0.1927
 8316SOL    HW129505   5.760   4.151   7.794  0.7712  1.1543  0.9857
 8316SOL    HW229506   5.655   4.044   7.818  1.8478 -0.5692 -1.4983
 8317SOL     OW29507   0.064   1.735   2.142 -0.3614  0.3588 -0.1620
 8317SOL    HW129508   0.078   1.714   2.050  1.8871  1.9026 -0.2563
 8317SOL    HW229509   0.152   1.745   2.178 -1.0674  4.3955  0.9684
 8318SOL     OW29510   6.842   4.933  10.459  0.2793  0.1423 -0.9766
 8318SOL    HW129511   6.753   4.901  10.446  0.2991 -0.2878 -0.1767
 8318SOL    HW229512   6.832   5.018  10.502  0.2420 -0.2899 -0.0921
 8319SOL     OW29513   6.654   5.086   0.573 -0.6282  0.0331 -0.4432
 8319SOL    HW129514   6.704   5.019   0.526  0.8933  0.3053  0.7188
 8319SOL    HW229515   6.580   5.039   0.611 -1.3819 -0.3616 -2.2972
 8320SOL     OW29516   4.165   3.882   1.528 -0.1827 -0.1314  0.3269
 8320SOL    HW129517   4.077   3.914   1.508  0.1050  1.1165  1.0045
 8320SOL    HW229518   4.220   3.960   1.531  0.7041 -0.7579  1.2069
 8321SOL     OW29519   0.796   9.287   1.534 -0.1348  0.1456  0.1379
 8321SOL    HW129520   0.891   9.275   1.537 -0.2595 -0.7492  2.4783
 8321SOL    HW229521   0.770   9.297   1.626 -2.0879  2.4502 -0.5632
 8322SOL     OW29522  11.331  11.414   0.468 -0.2489  0.1475  0.0288
 8322SOL    HW129523  11.375  11.329   0.474 -1.9699 -0.8314 -0.5196
 8322SOL    HW229524  11.398  11.477   0.495  2.1226 -1.0351 -2.5087
 8323SOL     OW29525   5.127   4.445   6.114  0.6705  0.7566  0.8295
 8323SOL    HW129526   5.067   4.482   6.049  0.9270 -0.2869 -0.0205
 8323SOL    HW229527   5.200   4.507   6.116  0.6953  0.7662  0.0629
 8324SOL     OW29528   2.696  11.617   1.766  0.3397  0.1067  0.1292
 8324SOL    HW129529   2.716  11.659   1.850 -1.6245  0.8145  0.2852
 8324SOL    HW229530   2.604  11.638   1.749  0.2509 -1.3049 -1.4694
 8325SOL     OW29531   8.709   4.411   9.893  0.6074 -0.0690  0.0825
 8325SOL    HW129532   8.769   4.409   9.968 -0.5940  2.0827  1.1915
 8325SOL    HW229533   8.723   4.497   9.853 -0.7692 -0.0694 -0.4551
 8326SOL     OW29534  10.069   1.954   7.797  0.0591 -0.0992  0.2398
 8326SOL    HW129535  10.124   2.026   7.825 -2.6543  1.6172  1.5861
 8326SOL    HW229536  10.084   1.946   7.703  0.6508  2.0605  0.1085
 8327SOL     OW29537  10.675   3.032   1.919 -0.7650 -0.3809 -0.1992
 8327SOL    HW129538  10.610   3.047   1.987 -2.3698 -0.5293 -1.6496
 8327SOL    HW229539  10.642   2.958   1.869 -0.3559  0.5841 -1.9914
 8328SOL     OW29540  12.044  10.333  10.158 -0.0596  0.4540 -0.1616
 8328SOL    HW129541  12.124  10.292  10.193  0.2588 -0.6067 -2.0113
 8328SOL    HW229542  12.072  10.376  10.077 -1.6583 -1.6073 -1.9205
 8329SOL     OW29543   5.334  11.944  11.023  0.6074 -0.1477 -0.1250
 8329SOL    HW129544   5.320  11.851  11.006  1.5819 -0.1031 -1.2941
 8329SOL    HW229545   5.262  11.988  10.979 -0.5966 -0.3780  1.5072
 8330SOL     OW29546   6.595  11.389   8.280  0.9148 -0.1346  0.8811
 8330SOL    HW129547   6.502  11.373   8.261  1.3872 -2.5153  0.2151
 8330SOL    HW229548   6.596  11.417   8.371 -0.3879 -1.0575  1.2142
 8331SOL     OW29549   9.283  10.737   8.143 -0.3947  0.3668  0.3832
 8331SOL    HW129550   9.312  10.667   8.201  1.6533  3.1041  2.9796
 8331SOL    HW229551   9.223  10.694   8.082  1.9568 -3.9133  0.6683
 8332SOL     OW29552   1.024  11.134  10.158  0.2285 -0.3721 -0.0874
 8332SOL    HW129553   1.053  11.064  10.216  1.9628  0.0687 -0.3805
 8332SOL    HW229554   1.102  11.160  10.110 -0.5989  1.0839 -0.7148
 8333SOL     OW29555   7.107   1.688   0.200 -0.5597  0.4176  0.4815
 8333SOL    HW129556   7.051   1.715   0.273 -1.1131 -1.2439  0.7164
 8333SOL    HW229557   7.046   1.674   0.127 -0.2525  0.2615  0.2513
 8334SOL     OW29558   2.718   3.850   5.480 -0.7208 -0.2955  0.0043
 8334SOL    HW129559   2.639   3.896   5.450 -1.0224  0.4893  1.8203
 8334SOL    HW229560   2.778   3.853   5.406 -1.3737  1.5848 -0.5021
 8335SOL     OW29561   7.062   3.294   5.782 -0.4765  0.3058 -0.4405
 8335SOL    HW129562   7.079   3.380   5.821  2.9264 -1.1649  1.6847
 8335SOL    HW229563   6.976   3.269   5.817  0.2309  1.2059  2.1803
 8336SOL     OW29564   9.350   3.222   6.033 -0.6411 -0.2313  0.1311
 8336SOL    HW129565   9.349   3.128   6.051  0.4296 -0.4445 -0.8140
 8336SOL    HW229566   9.438   3.239   6.000 -0.3337  1.3946  1.6841
 8337SOL     OW29567  10.972   4.172   1.727 -0.0135 -0.1484 -0.3873
 8337SOL    HW129568  11.061   4.201   1.746 -0.0732 -1.7637  3.1102
 8337SOL    HW229569  10.917   4.224   1.786 -0.8433 -2.2326  0.7691
 8338SOL     OW29570   5.838   7.687   9.427 -0.2007  0.5823 -0.3850
 8338SOL    HW129571   5.784   7.617   9.464 -0.7978  1.1821 -0.1118
 8338SOL    HW229572   5.788   7.767   9.444  0.1651  1.0057 -1.2720
 8339SOL     OW29573   5.255   0.384   9.173 -0.3480 -0.4117  0.1731
 8339SOL    HW129574   5.347   0.382   9.147  0.0565  0.4190  1.4363
 8339SOL    HW229575   5.207   0.370   9.092  0.8410  1.4887 -0.9426
 8340SOL     OW29576   0.632  10.472   5.888  0.2699  0.3233  0.3836
 8340SOL    HW129577   0.633  10.516   5.803  0.5642 -0.4385 -0.0229
 8340SOL    HW229578   0.624  10.542   5.952 -0.4950  0.8726 -0.2973
 8341SOL     OW29579   5.300  11.042  11.417  0.5098 -0.2117 -0.3488
 8341SOL    HW129580   5.361  11.113  11.436  1.7376 -0.1417 -3.8920
 8341SOL    HW229581   5.214  11.084  11.420  1.1725  1.3478 -1.8306
 8342SOL     OW29582   3.754   6.349   5.330  0.2565  0.8942  0.6701
 8342SOL    HW129583   3.847   6.357   5.309  1.1648 -3.5685  1.8794
 8342SOL    HW229584   3.743   6.404   5.407  2.6595 -0.3257  2.0335
 8343SOL     OW29585   8.266   1.097   2.921 -0.4996  0.6260 -0.3325
 8343SOL    HW129586   8.336   1.102   2.986 -0.1154  0.7517 -0.7480
 8343SOL    HW229587   8.205   1.166   2.946 -3.0693 -2.4658  2.9616
 8344SOL     OW29588   8.568   6.215   1.147 -0.0547 -0.1121 -0.8268
 8344SOL    HW129589   8.597   6.138   1.098  1.6566  0.5447 -0.9156
 8344SOL    HW229590   8.603   6.289   1.098 -0.5899  0.6747 -0.0467
 8345SOL     OW29591  10.070   6.516   9.046  0.2912  0.1173 -0.7111
 8345SOL    HW129592  10.138   6.489   9.108  0.2486 -0.7731 -1.0278
 8345SOL    HW229593  10.118   6.561   8.976  0.2572  1.8316  0.3134
 8346SOL     OW29594  11.262  10.066   9.838  0.0797 -0.4014 -0.3345
 8346SOL    HW129595  11.257  10.027   9.926 -1.2594  1.3388  0.4344
 8346SOL    HW229596  11.239   9.994   9.779 -0.9383 -1.1524  0.9094
 8347SOL     OW29597   6.232   8.485   4.242  0.0583  0.2174  0.4211
 8347SOL    HW129598   6.323   8.511   4.253 -0.3769  2.6621 -0.9444
 8347SOL    HW229599   6.236   8.392   4.219  2.1743  0.2230  0.5846
 8348SOL     OW29600   7.864   8.614  11.051  0.5131 -0.1156 -0.1519
 8348SOL    HW129601   7.873   8.678  11.122 -1.2379 -0.3387  0.3278
 8348SOL    HW229602   7.924   8.543  11.075  2.0181  1.0342 -0.3708
 8349SOL     OW29603  11.904   0.636  10.884  0.0145  0.3220  0.5041
 8349SOL    HW129604  11.986   0.588  10.876 -0.1924  0.1391 -0.7621
 8349SOL    HW229605  11.926   0.714  10.935  1.0355  0.4148 -0.0650
 8350SOL     OW29606   4.707   3.100   2.111  0.5756  0.1897  0.5714
 8350SOL    HW129607   4.662   3.075   2.030 -1.0068 -0.9028  1.7164
 8350SOL    HW229608   4.754   3.020   2.137 -0.6893 -0.1981  1.8110
 8351SOL     OW29609   4.926  10.769   4.685 -0.7703 -0.4180  0.0256
 8351SOL    HW129610   4.976  10.796   4.608 -1.9973  2.4795  0.1047
 8351SOL    HW229611   4.988  10.772   4.757 -0.0801 -1.1463 -0.5237
 8352SOL     OW29612   1.245   8.774   5.424 -0.0793  0.5059 -0.5920
 8352SOL    HW129613   1.235   8.825   5.344  0.1495  0.6987 -0.4982
 8352SOL    HW229614   1.339   8.774   5.441 -0.0229 -0.3470 -0.8567
 8353SOL     OW29615  10.029   5.179   8.377 -0.1625  0.5091 -0.2019
 8353SOL    HW129616  10.095   5.109   8.372  0.4737  1.1498 -0.9203
 8353SOL    HW229617   9.956   5.147   8.324 -0.1634  0.0997  0.0372
 8354SOL     OW29618   7.475   5.836   8.915 -0.2010 -0.3204 -0.1710
 8354SOL    HW129619   7.477   5.740   8.912  2.2711 -0.3272 -2.5769
 8354SOL    HW229620   7.445   5.863   8.828  0.6843  1.0625 -0.0844
 8355SOL     OW29621   4.121   4.119   4.287  0.3906 -0.2479 -0.2735
 8355SOL    HW129622   4.134   4.090   4.377  0.3950 -0.1492 -0.2427
 8355SOL    HW229623   4.107   4.214   4.293  2.5782  0.1593 -0.5525
 8356SOL     OW29624  10.162   2.240   4.663  0.0853 -0.1291 -0.2457
 8356SOL    HW129625  10.095   2.258   4.729 -1.6978 -0.6632 -1.8528
 8356SOL    HW229626  10.127   2.276   4.582 -0.1058 -3.8181 -1.9656
 8357SOL     OW29627   0.420   6.832   0.013 -0.4597 -0.1333  0.1250
 8357SOL    HW129628   0.430   6.788   0.098  0.7577 -0.8205 -0.3545
 8357SOL    HW229629   0.404   6.924   0.035 -0.1134 -0.2977  1.0955
 8358SOL     OW29630  11.355   2.636   0.575 -0.1342  0.1420  0.4322
 8358SOL    HW129631  11.398   2.647   0.660  1.2049  1.1869 -0.3332
 8358SOL    HW229632  11.427   2.615   0.515 -1.3197 -3.0017 -0.0795
 8359SOL     OW29633   8.510   0.310   9.776  0.2100 -0.1651  0.6632
 8359SOL    HW129634   8.599   0.344   9.770  0.1798  0.4607  2.9686
 8359SOL    HW229635   8.457   0.374   9.729  0.6958  0.7621  1.3407
 8360SOL     OW29636   4.504   9.121   1.240 -0.2399  0.7181 -0.0316
 8360SOL    HW129637   4.435   9.061   1.213  0.9396 -0.6395 -0.1751
 8360SOL    HW229638   4.480   9.205   1.199  0.1740 -0.6267 -3.4027
 8361SOL     OW29639   6.591   3.671   6.144 -0.2747  0.0361  0.2482
 8361SOL    HW129640   6.586   3.674   6.239 -1.5643 -2.0221  0.3056
 8361SOL    HW229641   6.615   3.760   6.118 -0.1652  0.7049  2.4603
 8362SOL     OW29642   2.623   0.147   8.389  0.2211  0.4376  0.0743
 8362SOL    HW129643   2.623   0.156   8.294 -1.6699  1.2102  0.1104
 8362SOL    HW229644   2.647   0.234   8.421  1.1673  0.0982  0.3283
 8363SOL     OW29645   6.151   7.256   5.936  0.3954  0.2849  0.0728
 8363SOL    HW129646   6.124   7.177   5.984  1.3528  0.0826  0.3021
 8363SOL    HW229647   6.075   7.314   5.941 -0.0527 -0.3243  0.5521
 8364SOL     OW29648  10.670  12.038   4.536  0.2474  0.2949  0.2028
 8364SOL    HW129649  10.639  12.117   4.491  1.2547  1.7331  1.8988
 8364SOL    HW229650  10.689  12.067   4.625  2.1823 -1.4798  0.4517
 8365SOL     OW29651   0.947   4.123   5.966  0.1825  0.2878 -0.3061
 8365SOL    HW129652   0.853   4.108   5.955 -0.4966  1.5073  2.8686
 8365SOL    HW229653   0.963   4.206   5.921 -0.6619  0.9312  0.5370
 8366SOL     OW29654   2.653   4.473   6.194  0.2205  0.1793  0.3386
 8366SOL    HW129655   2.637   4.518   6.111  0.4042 -1.2194 -0.4861
 8366SOL    HW229656   2.745   4.446   6.190  0.9946  2.2525  2.1092
 8367SOL     OW29657   8.488   5.592   4.010 -0.7135 -0.2112  0.3617
 8367SOL    HW129658   8.570   5.557   4.043 -0.4165  0.2112  0.0733
 8367SOL    HW229659   8.513   5.656   3.944 -1.2870 -0.4928 -0.1413
 8368SOL     OW29660  11.848   6.290   1.874  0.2419  0.1310  0.7400
 8368SOL    HW129661  11.898   6.208   1.878 -1.0297 -0.6635  1.0723
 8368SOL    HW229662  11.813   6.293   1.785  1.2528  0.9347  0.3530
 8369SOL     OW29663   5.528   7.032   1.995 -0.1703  0.4451  0.2715
 8369SOL    HW129664   5.618   7.025   1.962  0.2888 -1.0748  1.6834
 8369SOL    HW229665   5.534   7.094   2.067 -0.7133  1.9395 -0.9024
 8370SOL     OW29666   3.345   9.223   7.789  0.3560 -0.2924 -0.4190
 8370SOL    HW129667   3.328   9.292   7.854 -0.4708  0.1079 -1.0342
 8370SOL    HW229668   3.405   9.163   7.832 -0.6937 -0.3967  0.9613
 8371SOL     OW29669   7.884  10.340   5.043  0.5277  0.0283  0.2549
 8371SOL    HW129670   7.922  10.260   5.077 -1.6576 -1.0795  0.2813
 8371SOL    HW229671   7.812  10.361   5.103 -1.3347 -0.1571 -1.7477
 8372SOL     OW29672   5.274   0.567  10.229  0.0581  0.0200 -0.5938
 8372SOL    HW129673   5.223   0.515  10.290  0.0816  0.0204 -0.5738
 8372SOL    HW229674   5.352   0.593  10.278 -1.1458  2.2819  0.2894
 8373SOL     OW29675   4.651  11.242   5.902 -0.9105  0.3200  0.5019
 8373SOL    HW129676   4.735  11.204   5.880 -0.5379  1.9022 -0.9891
 8373SOL    HW229677   4.616  11.184   5.970  1.2570 -0.4932  1.0175
 8374SOL     OW29678   7.431   6.774   0.905 -0.1325  0.0326 -0.5095
 8374SOL    HW129679   7.408   6.712   0.974 -0.2135  1.7801  1.1135
 8374SOL    HW229680   7.426   6.723   0.824 -0.5620 -1.9523  0.7044
 8375SOL     OW29681   2.841   8.385   1.823  0.3072  0.3491  0.0076
 8375SOL    HW129682   2.866   8.352   1.909  2.2927  0.7030 -0.4021
 8375SOL    HW229683   2.824   8.478   1.837 -0.8111  0.1232  0.2703
 8376SOL     OW29684   3.711   5.874   3.053 -0.0245 -0.3415 -0.0206
 8376SOL    HW129685   3.644   5.938   3.075 -0.3316  0.4677 -2.8669
 8376SOL    HW229686   3.792   5.913   3.085 -0.4577  0.5150  0.0763
 8377SOL     OW29687   3.226   7.861   4.246 -0.0188 -0.3195  0.0669
 8377SOL    HW129688   3.184   7.947   4.242 -0.0874 -0.3812 -0.5072
 8377SOL    HW229689   3.302   7.874   4.304  0.0147  0.1412 -0.0797
 8378SOL     OW29690   6.485  10.651   2.950  0.2469 -0.2895  0.6260
 8378SOL    HW129691   6.575  10.675   2.927 -0.4474  0.5599 -1.4301
 8378SOL    HW229692   6.446  10.733   2.981 -0.7702  0.2588 -1.8716
 8379SOL     OW29693   2.175   1.609   8.880  0.6778  0.5114 -0.2373
 8379SOL    HW129694   2.170   1.588   8.974 -1.8266  0.1943 -0.3801
 8379SOL    HW229695   2.193   1.525   8.838 -2.6746 -0.3214 -0.2899
 8380SOL     OW29696   7.601   1.631   6.587  0.5635 -0.1319  0.1426
 8380SOL    HW129697   7.598   1.560   6.651 -3.0547  0.4775  0.8527
 8380SOL    HW229698   7.628   1.708   6.638  0.5825 -0.2162  0.2603
 8381SOL     OW29699   5.767   3.722   8.157  0.3955  0.0210 -0.2726
 8381SOL    HW129700   5.828   3.698   8.087 -0.9941  1.0273 -1.9014
 8381SOL    HW229701   5.790   3.665   8.230  1.4325 -1.5904 -1.7935
 8382SOL     OW29702   4.057   4.529   7.267  0.1541 -0.7083  0.2970
 8382SOL    HW129703   4.125   4.579   7.313 -0.1930 -0.4839  0.5658
 8382SOL    HW229704   4.003   4.493   7.337 -0.1815 -0.6400  0.0745
 8383SOL     OW29705   8.400   9.516   9.394  0.2112  0.0480 -0.1593
 8383SOL    HW129706   8.477   9.476   9.433  0.8679 -0.7395 -2.1286
 8383SOL    HW229707   8.345   9.443   9.368 -0.1589  0.5310 -0.7572
 8384SOL     OW29708   3.750   8.887   4.665  0.1542 -0.3177  0.4081
 8384SOL    HW129709   3.685   8.849   4.723  0.9277 -0.5252  1.1676
 8384SOL    HW229710   3.727   8.855   4.578  0.0339 -1.4843  0.8557
 8385SOL     OW29711   8.293   5.909   1.297  0.3823  0.1701  0.0886
 8385SOL    HW129712   8.349   5.983   1.273 -1.2150  1.1616 -0.8023
 8385SOL    HW229713   8.296   5.906   1.392  0.8426  1.0935  0.1173
 8386SOL     OW29714  11.146   4.782   3.733  0.8966 -0.1913 -0.3521
 8386SOL    HW129715  11.215   4.816   3.790  0.0666 -1.1109  1.2632
 8386SOL    HW229716  11.065   4.819   3.768  0.5099  0.8303 -2.1900
 8387SOL     OW29717  10.532   4.265   6.350  0.0781 -0.4077 -0.5980
 8387SOL    HW129718  10.583   4.334   6.392  1.8442 -1.4780 -0.8662
 8387SOL    HW229719  10.526   4.196   6.416 -1.9220  0.0717 -0.2286
 8388SOL     OW29720   6.170   0.031   4.364 -0.0223 -0.1731 -0.1101
 8388SOL    HW129721   6.123   0.107   4.400  0.5407  0.7507 -1.2711
 8388SOL    HW229722   6.211   0.064   4.284  0.6242 -1.5925 -0.3858
 8389SOL     OW29723   7.028   3.703   9.100  0.0771  0.3312  1.2726
 8389SOL    HW129724   6.964   3.730   9.034  0.4686 -0.2146  0.6594
 8389SOL    HW229725   6.982   3.714   9.184 -0.0407  2.1417  1.0181
 8390SOL     OW29726   9.255   3.519   0.092 -0.5835 -0.1150  0.3512
 8390SOL    HW129727   9.208   3.436   0.077  1.0085 -0.9174 -0.4073
 8390SOL    HW229728   9.288   3.511   0.182  0.1865 -0.6434  0.0320
 8391SOL     OW29729   5.315   6.812  11.218  0.1442 -0.5237  0.0881
 8391SOL    HW129730   5.283   6.897  11.249  1.0611  0.0794 -0.5678
 8391SOL    HW229731   5.258   6.790  11.144  0.5109 -0.0105 -0.3519
 8392SOL     OW29732   2.447   1.106   7.377 -0.1819  0.1650 -0.3668
 8392SOL    HW129733   2.532   1.093   7.420  0.5166 -0.2135 -1.7792
 8392SOL    HW229734   2.424   1.020   7.342 -1.1516  0.2682 -0.0127
 8393SOL     OW29735   3.833   9.080   0.672  0.2639 -0.1439 -0.0767
 8393SOL    HW129736   3.873   8.994   0.656  0.0659  0.3266 -4.1908
 8393SOL    HW229737   3.739   9.065   0.663  0.0624  0.1497  1.4132
 8394SOL     OW29738   1.391  10.492  12.065 -0.4795  0.1863 -0.2461
 8394SOL    HW129739   1.459  10.547  12.027 -1.3889  1.1496 -0.5547
 8394SOL    HW229740   1.363  10.435  11.993  0.8105 -1.0577  0.2117
 8395SOL     OW29741   7.524   7.004   4.530  0.3630 -0.1147  0.0423
 8395SOL    HW129742   7.617   6.992   4.510 -0.3672 -1.1199 -3.5094
 8395SOL    HW229743   7.509   7.098   4.521  1.2902  0.3387  2.5025
 8396SOL     OW29744   1.671   9.189   4.287 -0.3693 -0.1873  0.6877
 8396SOL    HW129745   1.744   9.174   4.347 -0.7796 -1.3391  0.9259
 8396SOL    HW229746   1.670   9.284   4.274 -0.3273  0.1308  2.6009
 8397SOL     OW29747  12.017   9.735   4.238  0.1278  0.3449 -0.3091
 8397SOL    HW129748  11.946   9.722   4.301  0.2051  0.3600 -0.2180
 8397SOL    HW229749  12.094   9.750   4.293  0.1511  0.5956 -0.4072
 8398SOL     OW29750   1.762   3.280   7.207 -0.2396  0.3524  0.4973
 8398SOL    HW129751   1.829   3.223   7.245 -0.2823 -1.0087 -1.3416
 8398SOL    HW229752   1.781   3.279   7.113 -1.5180  1.7257  0.1970
 8399SOL     OW29753  11.754   4.572  11.822 -0.3971  0.5271  0.1375
 8399SOL    HW129754  11.686   4.619  11.871 -2.6281 -1.6701 -0.6119
 8399SOL    HW229755  11.812   4.640  11.789 -0.8463  2.3555  2.7660
 8400SOL     OW29756   2.608   8.810   5.201  0.7584 -0.1242 -0.2163
 8400SOL    HW129757   2.574   8.817   5.290  0.3093 -2.8581 -0.0725
 8400SOL    HW229758   2.537   8.844   5.146  1.1126  1.7489  0.4312
 8401SOL     OW29759   3.387   2.856   0.382  0.2896 -0.2148  0.1690
 8401SOL    HW129760   3.468   2.905   0.368  0.8106 -1.6038 -2.2936
 8401SOL    HW229761   3.415   2.770   0.414 -0.0123 -1.1480 -1.8876
 8402SOL     OW29762   5.096   4.062   3.408 -0.3948 -0.0364 -0.2815
 8402SOL    HW129763   5.027   4.026   3.354  0.5640 -1.7770 -0.4102
 8402SOL    HW229764   5.169   4.075   3.348 -0.6192  1.9654 -0.1916
 8403SOL     OW29765   5.513   3.119   4.416  0.4002 -0.2568 -0.2484
 8403SOL    HW129766   5.551   3.126   4.504 -0.7533  0.8325  0.2002
 8403SOL    HW229767   5.463   3.038   4.418  1.0710 -0.6755 -0.1902
 8404SOL     OW29768   1.611   0.606   0.354 -0.3855 -0.4914  0.0981
 8404SOL    HW129769   1.551   0.631   0.284 -1.4355 -1.1984  0.7082
 8404SOL    HW229770   1.611   0.510   0.352 -3.1358 -0.7319  3.1568
 8405SOL     OW29771   4.270  11.283   2.725 -0.0711  0.3152  0.6803
 8405SOL    HW129772   4.177  11.263   2.739 -0.0693 -2.6385 -2.4858
 8405SOL    HW229773   4.275  11.311   2.634  2.1148  0.9225  0.9434
 8406SOL     OW29774   3.521   7.111   4.212  0.0552 -0.3769 -0.3676
 8406SOL    HW129775   3.564   7.047   4.269 -0.9053  0.3579  1.2815
 8406SOL    HW229776   3.514   7.190   4.267  0.2550  0.8064 -1.9776
 8407SOL     OW29777   8.819   7.154   4.213  0.3103  0.3568 -0.1859
 8407SOL    HW129778   8.902   7.166   4.166  0.4926  1.1025  0.3098
 8407SOL    HW229779   8.805   7.237   4.259  0.8950 -0.8199  2.2964
 8408SOL     OW29780   2.922   1.949  11.622 -0.7616 -0.4618  0.2502
 8408SOL    HW129781   2.953   1.925  11.535 -0.1946  3.4768 -0.8348
 8408SOL    HW229782   2.881   2.035  11.610  0.2545  0.7399  4.0347
 8409SOL     OW29783   8.934   6.805   6.636 -0.3197 -0.5826 -0.3627
 8409SOL    HW129784   9.008   6.861   6.612 -1.1510  1.4256  1.4877
 8409SOL    HW229785   8.975   6.721   6.658  1.3363  0.1864 -0.2914
 8410SOL     OW29786  10.461   1.118   4.840 -0.1175  0.0525  0.2433
 8410SOL    HW129787  10.494   1.208   4.833  2.4899 -0.7492  1.0258
 8410SOL    HW229788  10.402   1.120   4.915 -0.7001  1.2477 -0.2243
 8411SOL     OW29789   2.224   3.142   6.031 -0.9760  0.0106 -0.6629
 8411SOL    HW129790   2.171   3.220   6.041 -1.1807  0.0270 -1.7679
 8411SOL    HW229791   2.282   3.161   5.957  0.2326 -0.1995  0.1949
 8412SOL     OW29792   2.721  10.347   4.767 -0.5356 -0.2128 -0.2431
 8412SOL    HW129793   2.808  10.331   4.731 -0.5420  1.8294 -1.3153
 8412SOL    HW229794   2.680  10.260   4.771  1.4540 -1.1916  0.1461
 8413SOL     OW29795   7.329  10.569   9.405  0.6910  0.1760 -0.2166
 8413SOL    HW129796   7.400  10.565   9.341  1.1889  1.3500  0.2266
 8413SOL    HW229797   7.369  10.612   9.481 -0.0144 -0.7699  0.7170
 8414SOL     OW29798   9.724   7.466   5.212 -0.3599 -0.1495 -0.2412
 8414SOL    HW129799   9.725   7.413   5.292 -0.2000 -0.4888 -0.4633
 8414SOL    HW229800   9.811   7.453   5.174 -0.5969 -0.3854 -0.7189
 8415SOL     OW29801   4.650   0.677   9.839  0.7901  0.4210  0.0820
 8415SOL    HW129802   4.633   0.743   9.907  1.1579  0.7547 -0.1444
 8415SOL    HW229803   4.572   0.623   9.839 -1.3222  3.1544 -2.3634
 8416SOL     OW29804   8.503   7.510   3.109 -0.3921  0.3552  0.5018
 8416SOL    HW129805   8.478   7.497   3.017  0.5551 -1.0475  0.4120
 8416SOL    HW229806   8.470   7.597   3.131  0.9602  1.5093 -1.7041
 8417SOL     OW29807   8.227   1.466   6.598 -0.2898 -0.3259 -0.2493
 8417SOL    HW129808   8.225   1.371   6.592 -2.4539 -0.3386 -0.1239
 8417SOL    HW229809   8.225   1.484   6.692  2.8868 -0.0954 -0.1264
 8418SOL     OW29810  10.539   8.092  11.198 -0.4429  0.4464  0.1317
 8418SOL    HW129811  10.588   8.136  11.129 -0.3280  2.4171  1.4243
 8418SOL    HW229812  10.605   8.042  11.247 -0.5264 -0.9723 -1.1166
 8419SOL     OW29813   4.680  11.197  10.156 -0.1019 -0.1985  0.6044
 8419SOL    HW129814   4.684  11.201  10.060  2.2618 -1.7958  0.5615
 8419SOL    HW229815   4.641  11.111  10.175  0.5672 -0.4040  1.0645
 8420SOL     OW29816   3.811   5.425   7.458  0.3312  0.5429 -0.5155
 8420SOL    HW129817   3.726   5.398   7.423  0.4625 -1.9102  0.7899
 8420SOL    HW229818   3.861   5.453   7.382 -0.8669 -0.2830 -1.6555
 8421SOL     OW29819   5.411  12.031   5.756 -0.1170 -0.7559  0.1020
 8421SOL    HW129820   5.446  12.117   5.780 -0.9356 -0.1122 -0.9397
 8421SOL    HW229821   5.319  12.035   5.782  0.0588 -1.6925  0.9472
 8422SOL     OW29822   2.058  11.637   4.616 -0.0069  0.6497  0.9363
 8422SOL    HW129823   2.032  11.725   4.644  0.7956  0.6563  1.6941
 8422SOL    HW229824   2.122  11.652   4.546 -2.0339  0.6329 -1.0476
 8423SOL     OW29825   2.742   9.368   8.590  0.2506 -0.2514 -0.4385
 8423SOL    HW129826   2.706   9.454   8.566 -1.1753 -0.3837  1.0560
 8423SOL    HW229827   2.731   9.363   8.685 -0.3651 -2.3807 -0.5799
 8424SOL     OW29828   4.652   3.827   8.574  0.0396  0.3284 -0.7026
 8424SOL    HW129829   4.571   3.802   8.618  0.7527 -0.4158  0.2182
 8424SOL    HW229830   4.718   3.826   8.643  1.0844 -0.3155 -1.6787
 8425SOL     OW29831   9.247   0.918   2.864 -0.6304 -0.4413  0.0155
 8425SOL    HW129832   9.329   0.918   2.914 -0.8492  1.1268  0.4201
 8425SOL    HW229833   9.240   1.007   2.829 -1.6493 -0.8568 -0.8809
 8426SOL     OW29834   6.832  11.718   8.797 -0.5636  0.3552 -0.4799
 8426SOL    HW129835   6.753  11.753   8.757 -0.1097  0.5282 -1.2581
 8426SOL    HW229836   6.879  11.795   8.830  0.7326  0.6275 -2.7396
 8427SOL     OW29837   5.533   6.073   3.054 -0.4460  0.2004 -0.4616
 8427SOL    HW129838   5.442   6.053   3.075 -0.8504 -2.3739 -3.8954
 8427SOL    HW229839   5.577   5.988   3.054  1.4335  1.1109 -1.2035
 8428SOL     OW29840   8.998   2.622   2.119 -0.5189  0.0355  0.4438
 8428SOL    HW129841   9.051   2.551   2.154  0.7248  0.3189 -0.7810
 8428SOL    HW229842   8.991   2.603   2.025  2.6575  3.1289 -0.6362
 8429SOL     OW29843   3.718   2.732   0.955 -0.3511 -0.4203  0.2237
 8429SOL    HW129844   3.663   2.803   0.920  1.1927  1.0037  0.5514
 8429SOL    HW229845   3.712   2.741   1.050 -1.5086 -1.8691  0.3242
 8430SOL     OW29846   1.132  10.556   9.115  0.3424  0.2276 -0.1074
 8430SOL    HW129847   1.038  10.546   9.127  0.3813  1.7173  1.8725
 8430SOL    HW229848   1.160  10.474   9.074 -1.2379 -1.9510  2.8099
 8431SOL     OW29849   7.400   4.266   6.105  0.0457 -0.0078  0.5466
 8431SOL    HW129850   7.427   4.241   6.017 -1.0704  0.7215 -0.0253
 8431SOL    HW229851   7.344   4.194   6.135 -3.2505  1.6497 -1.1373
 8432SOL     OW29852   7.911   7.620   4.739  0.8855 -0.0064  0.6661
 8432SOL    HW129853   7.987   7.563   4.746  1.4272  0.4238 -1.2010
 8432SOL    HW229854   7.848   7.569   4.688  1.6700  1.2686 -1.7105
 8433SOL     OW29855   1.698   5.762   4.945  0.6113 -0.0229 -0.2885
 8433SOL    HW129856   1.683   5.745   4.852  0.9831  0.4476 -0.4389
 8433SOL    HW229857   1.779   5.813   4.947  0.6567 -0.1091  0.3019
 8434SOL     OW29858   6.006   1.785   5.626  0.1324 -0.3392  0.3554
 8434SOL    HW129859   6.084   1.818   5.581 -0.4718 -0.7248 -1.0493
 8434SOL    HW229860   6.039   1.717   5.685  0.7994 -1.0585 -0.8059
 8435SOL     OW29861   3.783  11.147   4.789  0.3266  0.1168  0.0769
 8435SOL    HW129862   3.712  11.106   4.739  0.9997  2.3001 -2.9569
 8435SOL    HW229863   3.862  11.104   4.758  0.6462  0.3214  0.5977
 8436SOL     OW29864   6.213  10.384   4.767 -0.4681  0.1781 -0.1441
 8436SOL    HW129865   6.171  10.298   4.757 -0.6262  0.5269 -3.7496
 8436SOL    HW229866   6.140  10.444   4.782 -0.3954 -0.1803  1.9304
 8437SOL     OW29867   4.536   9.345   3.568 -0.0996 -0.3150  0.0960
 8437SOL    HW129868   4.452   9.381   3.541  0.2179 -0.6713 -1.4750
 8437SOL    HW229869   4.516   9.291   3.644 -1.5891 -1.7532 -1.2418
 8438SOL     OW29870   4.660   2.299   8.385 -1.3068  0.4568  0.4459
 8438SOL    HW129871   4.622   2.232   8.329 -0.0862  1.0725 -1.2409
 8438SOL    HW229872   4.617   2.380   8.357  1.9819  1.4486 -2.6349
 8439SOL     OW29873   6.038   0.364   9.160 -0.0104 -0.2981 -0.2959
 8439SOL    HW129874   5.997   0.442   9.122  0.4616 -0.0712 -0.3432
 8439SOL    HW229875   5.979   0.338   9.230  0.4676  0.8600  0.5671
 8440SOL     OW29876   1.367   5.831  10.767 -0.5240  0.5105  0.3865
 8440SOL    HW129877   1.348   5.803  10.856 -1.7563 -0.3609 -0.1283
 8440SOL    HW229878   1.350   5.754  10.713 -1.0069  1.3700 -0.7357
 8441SOL     OW29879   6.695   5.622   5.791 -0.0282  0.1585  0.0805
 8441SOL    HW129880   6.601   5.629   5.808 -0.4560 -1.3419 -1.3603
 8441SOL    HW229881   6.709   5.679   5.715  0.3021  0.6457  0.5038
 8442SOL     OW29882   8.386  11.316   1.767  0.3595  0.8181 -0.4049
 8442SOL    HW129883   8.463  11.263   1.745  0.0304  0.0908  0.1345
 8442SOL    HW229884   8.417  11.376   1.835  0.4806  0.5998 -0.2654
 8443SOL     OW29885   7.553   2.001   2.453  0.4752 -0.2909  0.4856
 8443SOL    HW129886   7.481   1.944   2.480  1.7674 -2.1704  0.1597
 8443SOL    HW229887   7.626   1.975   2.509  1.4119  0.2674 -0.4494
 8444SOL     OW29888  11.094   3.351  11.185 -0.4433  0.0577  0.1720
 8444SOL    HW129889  11.137   3.437  11.193 -1.2541  0.7443 -2.0356
 8444SOL    HW229890  11.154   3.300  11.131 -0.9498 -0.0178 -0.3261
 8445SOL     OW29891   4.653   8.346   0.980  0.0816  0.6495  0.2491
 8445SOL    HW129892   4.640   8.437   0.953  0.6479  0.1563 -1.7990
 8445SOL    HW229893   4.671   8.298   0.899 -0.8823 -1.4342  1.1690
 8446SOL     OW29894   2.393  12.063   0.960 -0.2222  0.7249 -0.2421
 8446SOL    HW129895   2.434  12.125   1.020  0.6943 -1.0560  1.0701
 8446SOL    HW229896   2.302  12.059   0.989  0.1611  0.0506  0.9596
 8447SOL     OW29897   6.452   0.235   9.112  0.0860 -0.1350 -0.5313
 8447SOL    HW129898   6.452   0.329   9.131  1.6359 -0.3954  0.9694
 8447SOL    HW229899   6.359   0.213   9.100 -0.4770  1.2211  1.0235
 8448SOL     OW29900   8.307   5.486   3.239  0.2158 -0.4847  0.0334
 8448SOL    HW129901   8.400   5.487   3.262 -0.1853  0.7991  1.8044
 8448SOL    HW229902   8.296   5.407   3.187  1.6079 -2.7920  2.9657
 8449SOL     OW29903   4.025   2.778  12.097 -0.1141 -0.1231  0.3517
 8449SOL    HW129904   4.058   2.709  12.154 -0.5574  0.9830  2.0295
 8449SOL    HW229905   3.930   2.764  12.095 -0.1451  0.1084  0.2446
 8450SOL     OW29906  11.256   7.036  10.962  0.1555  0.1420 -1.0554
 8450SOL    HW129907  11.307   7.048  11.042  0.4859  2.1996 -1.5240
 8450SOL    HW229908  11.322   7.025  10.893 -0.1169 -0.4764 -1.2324
 8451SOL     OW29909   0.792   8.779   4.868 -0.9207 -0.2588 -0.2347
 8451SOL    HW129910   0.848   8.782   4.790  1.0318 -0.7774  1.0657
 8451SOL    HW229911   0.725   8.714   4.847  0.9672 -2.1812 -0.6544
 8452SOL     OW29912   0.679   3.542   6.719  0.2192  0.3645  0.0855
 8452SOL    HW129913   0.731   3.562   6.796  0.7460  0.9926 -0.4213
 8452SOL    HW229914   0.716   3.461   6.685 -1.2548 -1.0132  1.5582
 8453SOL     OW29915   7.842   7.277   4.393 -0.1730  0.1073 -0.4118
 8453SOL    HW129916   7.933   7.261   4.367  0.0377  0.1394  0.2736
 8453SOL    HW229917   7.790   7.219   4.338  0.3276 -0.4662 -0.2911
 8454SOL     OW29918   4.730   1.825   3.222  0.2488 -0.8662  0.2167
 8454SOL    HW129919   4.702   1.829   3.313 -1.3137 -1.4571 -0.1896
 8454SOL    HW229920   4.724   1.916   3.191 -4.9052 -1.1942 -0.7588
 8455SOL     OW29921   3.260   3.260   6.365  0.4088  0.3010 -0.2406
 8455SOL    HW129922   3.201   3.331   6.389  1.2470  0.7648  0.5001
 8455SOL    HW229923   3.327   3.259   6.433  0.2704 -1.3913 -0.0727
 8456SOL     OW29924   2.780  11.657   2.420 -0.5786 -0.3326  0.1022
 8456SOL    HW129925   2.829  11.731   2.382 -0.6607 -0.9431 -1.2512
 8456SOL    HW229926   2.789  11.669   2.515  1.2519  0.1874 -0.0968
 8457SOL     OW29927   7.494   9.192   5.921  0.0154  0.3602 -0.2533
 8457SOL    HW129928   7.416   9.143   5.898 -0.0357 -0.4368  1.4704
 8457SOL    HW229929   7.532   9.219   5.837 -1.8923  0.4567 -1.1186
 8458SOL     OW29930   6.990   2.489   1.405 -0.6725  0.3960 -0.9280
 8458SOL    HW129931   6.929   2.436   1.456 -0.9070  0.1948 -1.4102
 8458SOL    HW229932   6.992   2.574   1.449 -2.5642  0.9640 -1.8514
 8459SOL     OW29933  10.838   0.862   3.601  0.1465 -0.3482 -0.2512
 8459SOL    HW129934  10.795   0.902   3.526 -1.6824  2.0221  1.8451
 8459SOL    HW229935  10.906   0.925   3.626  0.6687 -1.0464  0.1224
 8460SOL     OW29936   4.055   8.066   7.525 -0.0059  0.5103  0.2349
 8460SOL    HW129937   4.074   8.065   7.619 -0.3778  0.3402  0.3091
 8460SOL    HW229938   4.029   7.976   7.506  2.0334  0.0076 -0.4315
 8461SOL     OW29939   8.881   0.210   4.688 -0.3929  0.2382  0.1124
 8461SOL    HW129940   8.796   0.174   4.711  0.7550 -1.7808  1.4350
 8461SOL    HW229941   8.894   0.186   4.596  0.3603 -2.9914  0.9529
 8462SOL     OW29942  11.005   9.155   8.132 -0.4779  0.2351  0.7231
 8462SOL    HW129943  11.056   9.231   8.160  0.3347 -0.5184  1.3172
 8462SOL    HW229944  11.030   9.086   8.193  0.0084 -0.9536 -0.7710
 8463SOL     OW29945   6.066  10.685   2.386  0.6346  0.9056 -0.2675
 8463SOL    HW129946   6.056  10.631   2.307  0.1614  1.1935 -0.4087
 8463SOL    HW229947   5.977  10.711   2.408  0.3161 -1.6628  2.1268
 8464SOL     OW29948   4.214   1.342   3.720 -0.0050 -0.3343 -0.4025
 8464SOL    HW129949   4.247   1.314   3.635 -0.7668  1.1698 -1.2457
 8464SOL    HW229950   4.283   1.397   3.756 -0.6113  0.9609 -1.1472
 8465SOL     OW29951   4.857   8.228   2.252  0.0190 -0.8475 -0.5973
 8465SOL    HW129952   4.926   8.235   2.318 -0.7688 -1.3024  0.2940
 8465SOL    HW229953   4.792   8.170   2.291 -0.8605 -0.4493 -1.4356
 8466SOL     OW29954   3.416   2.079  10.936  0.0137 -0.5664 -0.4735
 8466SOL    HW129955   3.368   2.098  10.855 -0.5808 -0.5790 -0.1323
 8466SOL    HW229956   3.507   2.069  10.908  0.0431  0.7631 -0.9553
 8467SOL     OW29957   1.486   8.254   7.851  0.6314  0.2221 -0.0038
 8467SOL    HW129958   1.433   8.292   7.920 -0.0454 -1.3752  0.4011
 8467SOL    HW229959   1.422   8.221   7.787  1.0929 -1.4437  0.3364
 8468SOL     OW29960   6.682   1.628  11.603  0.2869 -0.1913  0.1607
 8468SOL    HW129961   6.587   1.618  11.614  0.3262 -1.5161 -0.4585
 8468SOL    HW229962   6.692   1.705  11.547 -0.3794  0.3972  0.8274
 8469SOL     OW29963   4.175  10.266   1.565 -0.1140 -0.5329  0.2778
 8469SOL    HW129964   4.232  10.343   1.570 -0.9296  0.0088  1.7168
 8469SOL    HW229965   4.087  10.302   1.560 -0.5278 -1.3533  1.3514
 8470SOL     OW29966   4.276   3.070   5.571 -0.4491  0.0932  0.3970
 8470SOL    HW129967   4.343   3.121   5.525 -0.8821  0.5531  0.2651
 8470SOL    HW229968   4.195   3.118   5.556 -0.9429 -0.8452 -0.0500
 8471SOL     OW29969   9.554   2.143   6.673  0.1649 -0.0493 -0.2670
 8471SOL    HW129970   9.546   2.188   6.757  0.0614 -0.0236 -0.2897
 8471SOL    HW229971   9.599   2.207   6.616  0.1265 -0.0201 -0.2649
 8472SOL     OW29972   5.222   9.995  11.259 -0.2961 -0.2529 -0.2493
 8472SOL    HW129973   5.249  10.045  11.337 -1.6906  1.3745 -0.7399
 8472SOL    HW229974   5.277   9.917  11.260  0.9136  0.5599  1.4253
 8473SOL     OW29975  11.657   4.154   7.439 -0.6986 -0.5086 -0.0658
 8473SOL    HW129976  11.735   4.184   7.485 -1.1516  1.9144 -0.7709
 8473SOL    HW229977  11.652   4.209   7.361 -1.7218 -2.3450 -1.3688
 8474SOL     OW29978   4.865   2.464  11.021 -0.4619  0.0450  0.0262
 8474SOL    HW129979   4.858   2.558  11.005  0.4239  0.2614  0.8293
 8474SOL    HW229980   4.797   2.446  11.086  0.5819  0.4959  1.2725
 8475SOL     OW29981  11.606   5.026   9.317  0.3017  0.3721 -0.2263
 8475SOL    HW129982  11.562   4.959   9.370 -2.2419  2.5111  0.5753
 8475SOL    HW229983  11.602   4.992   9.228 -0.8746 -0.5830  0.1600
 8476SOL     OW29984   5.539  10.658   4.575  0.1267 -0.2744 -0.3594
 8476SOL    HW129985   5.500  10.682   4.491 -0.7998  1.0377  0.4003
 8476SOL    HW229986   5.541  10.740   4.624  0.3227 -1.0797  1.0278
 8477SOL     OW29987   7.489   6.875   5.137 -0.0833 -0.5233 -0.1869
 8477SOL    HW129988   7.575   6.834   5.129  0.7285  0.8289  1.0721
 8477SOL    HW229989   7.476   6.887   5.231 -0.3072  1.9154 -0.4524
 8478SOL     OW29990   7.242   8.663   4.301 -0.4109  0.4545 -0.3832
 8478SOL    HW129991   7.222   8.724   4.372 -0.8839 -1.1845  0.9625
 8478SOL    HW229992   7.158   8.649   4.257 -0.2070  1.1218 -1.0001
 8479SOL     OW29993   6.585   6.326   2.052  0.2782  0.8209  0.0971
 8479SOL    HW129994   6.510   6.272   2.027 -0.6310  1.5684  1.1075
 8479SOL    HW229995   6.546   6.403   2.095  1.5766  1.8169 -0.4416
 8480SOL     OW29996   0.843   1.925   5.880  0.1688 -0.1706  0.1064
 8480SOL    HW129997   0.898   1.988   5.833  2.0325 -2.2270 -0.5839
 8480SOL    HW229998   0.903   1.876   5.935 -1.4942 -0.2569  1.9702
 8481SOL     OW29999   8.213   1.969   0.908  0.0808  0.5490  0.1799
 8481SOL    HW130000   8.275   1.898   0.921 -0.4166  0.2669  1.0734
 8481SOL    HW230001   8.134   1.927   0.873  0.4510  0.9395 -1.2093
 8482SOL     OW30002   4.115   2.456   7.367 -0.3517  0.1067 -0.2247
 8482SOL    HW130003   4.159   2.518   7.426  0.2867  0.9939 -1.5685
 8482SOL    HW230004   4.178   2.384   7.357  0.5131  0.9754 -1.4715
 8483SOL     OW30005   7.924   0.962   6.837 -0.0879  0.4835 -0.5326
 8483SOL    HW130006   7.858   0.972   6.768 -0.3744  1.2236 -0.1599
 8483SOL    HW230007   7.874   0.962   6.918  0.2110 -0.7786 -0.3311
 8484SOL     OW30008   5.293   3.632   5.222  0.2414 -0.0093  0.0410
 8484SOL    HW130009   5.372   3.655   5.271 -0.3498  3.4309 -0.3804
 8484SOL    HW230010   5.309   3.664   5.134 -0.7963 -1.2939 -0.6477
 8485SOL     OW30011   9.782   0.567   3.243 -0.3469  0.3060 -0.6419
 8485SOL    HW130012   9.735   0.485   3.260 -1.8836  1.3467  0.3480
 8485SOL    HW230013   9.844   0.574   3.315 -2.2052  1.3773  0.9489
 8486SOL     OW30014   9.325   1.240   4.497 -0.3698 -0.4588 -0.1318
 8486SOL    HW130015   9.403   1.197   4.461  1.2454  0.8674  1.5652
 8486SOL    HW230016   9.348   1.333   4.500 -2.7462  0.2401 -1.2347
 8487SOL     OW30017   0.351  10.827   1.455 -0.0344 -0.1071 -0.0214
 8487SOL    HW130018   0.334  10.889   1.526 -0.5745  1.2056 -1.2698
 8487SOL    HW230019   0.357  10.880   1.376 -0.9567 -1.6769 -1.2204
 8488SOL     OW30020  10.948   3.722   3.018  0.2122  0.5264 -0.5660
 8488SOL    HW130021  10.953   3.643   3.073  2.0275 -0.3160 -1.8203
 8488SOL    HW230022  10.890   3.699   2.947 -0.8932  1.0740  0.1342
 8489SOL     OW30023   2.959  11.900   4.069 -0.3349  0.0125 -0.2608
 8489SOL    HW130024   2.982  11.841   3.997  0.1989 -1.9088  1.3964
 8489SOL    HW230025   2.919  11.843   4.135 -2.4014  1.9868  0.3012
 8490SOL     OW30026   9.886   0.197   3.170 -0.4323 -0.2234 -0.4699
 8490SOL    HW130027   9.957   0.200   3.105 -0.4614  0.3437 -0.4833
 8490SOL    HW230028   9.878   0.104   3.193 -0.9058 -0.5299 -1.8054
 8491SOL     OW30029   5.727   7.080  10.280 -0.3300  0.1355  0.1285
 8491SOL    HW130030   5.730   7.062  10.186 -0.1364 -1.2752  0.3920
 8491SOL    HW230031   5.758   7.171  10.287 -1.0791  0.5214 -1.2206
 8492SOL     OW30032   3.331   1.347   1.828 -0.5631  0.6074  0.8176
 8492SOL    HW130033   3.358   1.357   1.737 -0.3923 -1.8222  0.5373
 8492SOL    HW230034   3.237   1.364   1.827 -1.4782 -3.4076 -0.7427
 8493SOL     OW30035   8.034   8.872  12.087  0.3335  0.2291 -0.1534
 8493SOL    HW130036   8.066   8.960  12.067  0.4121  0.5304  1.1958
 8493SOL    HW230037   7.939   8.879  12.078  0.2185  0.8425  1.2764
 8494SOL     OW30038   2.464   1.125  10.022 -0.3935  0.2343  0.3027
 8494SOL    HW130039   2.479   1.219  10.032 -0.5530  0.4204 -1.0615
 8494SOL    HW230040   2.542   1.084  10.059 -0.2390  0.9013  0.7367
 8495SOL     OW30041  11.847  11.268   1.096 -0.6740  0.0120 -0.8041
 8495SOL    HW130042  11.765  11.299   1.057 -0.4503 -1.4994 -2.6027
 8495SOL    HW230043  11.916  11.315   1.049 -0.4596  0.2912 -0.2230
 8496SOL     OW30044   7.902   0.886   4.316  0.4954  0.0046 -0.4051
 8496SOL    HW130045   7.945   0.803   4.339 -0.7346 -1.2044 -2.1442
 8496SOL    HW230046   7.842   0.902   4.388  1.5059 -0.0042  0.4781
 8497SOL     OW30047   1.806  11.002   8.074  0.2650  0.4970  0.1965
 8497SOL    HW130048   1.880  10.944   8.089 -0.8469 -0.8447  0.7861
 8497SOL    HW230049   1.839  11.090   8.093  1.7196 -0.0507  0.3008
 8498SOL     OW30050   7.350   3.183   9.596  0.0611  0.3020 -0.0056
 8498SOL    HW130051   7.263   3.145   9.582  0.1088 -0.0628  0.6459
 8498SOL    HW230052   7.355   3.254   9.532  0.7167 -1.9791 -2.6653
 8499SOL     OW30053  11.423   3.037   8.403 -0.2016 -0.0801  0.6011
 8499SOL    HW130054  11.491   3.079   8.456  0.4545 -1.0217  0.5378
 8499SOL    HW230055  11.470   3.001   8.328 -0.5527 -1.7688  1.1325
 8500SOL     OW30056   2.886   1.648   9.346  0.3092  0.4766  0.0766
 8500SOL    HW130057   2.892   1.560   9.308  1.9857  0.2894  0.7280
 8500SOL    HW230058   2.972   1.665   9.382 -0.3382  1.9266  1.0312
 8501SOL     OW30059   0.873   1.367  10.467 -0.4578 -0.0881  0.3118
 8501SOL    HW130060   0.845   1.447  10.512 -1.4400 -0.5491  0.5360
 8501SOL    HW230061   0.845   1.379  10.377 -0.9466 -0.3438  0.4298
 8502SOL     OW30062  10.240   9.353  10.660  0.7466 -0.1914  0.6048
 8502SOL    HW130063  10.148   9.332  10.678  0.7911  0.1450  1.2559
 8502SOL    HW230064  10.288   9.277  10.690  0.7152 -0.1949  0.6473
 8503SOL     OW30065   8.582   2.954   0.774  0.7516 -0.2269 -0.1257
 8503SOL    HW130066   8.611   3.041   0.803 -1.1267  0.0620  1.0554
 8503SOL    HW230067   8.609   2.950   0.682 -2.5066  3.3227 -1.5384
 8504SOL     OW30068   8.818   0.222   2.420 -0.3997  0.7870 -0.1518
 8504SOL    HW130069   8.751   0.207   2.353  1.1273 -0.8173 -1.3930
 8504SOL    HW230070   8.779   0.288   2.477 -3.2249 -0.3964 -0.5424
 8505SOL     OW30071   6.685   5.890   3.084  0.1010 -0.2622 -0.0755
 8505SOL    HW130072   6.637   5.954   3.031  0.0314 -2.0631 -2.3985
 8505SOL    HW230073   6.745   5.942   3.137 -1.3680  1.8108 -0.3215
 8506SOL     OW30074   0.372   9.382   9.483 -0.1262  0.0493 -0.2793
 8506SOL    HW130075   0.390   9.289   9.503 -1.9756 -0.1377  0.7152
 8506SOL    HW230076   0.448   9.410   9.433  0.2543 -2.1560 -1.0664
 8507SOL     OW30077   8.606   2.871   9.156  0.4939 -0.3086  0.3886
 8507SOL    HW130078   8.670   2.908   9.095 -0.8348  1.5686  0.0534
 8507SOL    HW230079   8.559   2.805   9.104  1.2718 -0.7715  0.2598
 8508SOL     OW30080   2.026   3.538   4.392 -0.6045 -0.2174  0.1321
 8508SOL    HW130081   1.964   3.586   4.447 -0.8067  0.8636 -0.9880
 8508SOL    HW230082   2.006   3.566   4.303  0.5288 -0.9692 -0.3876
 8509SOL     OW30083   9.887   6.657   7.503  0.1670 -0.4792 -0.3376
 8509SOL    HW130084   9.909   6.742   7.540  0.2935 -0.6210 -0.0876
 8509SOL    HW230085   9.803   6.634   7.543 -0.1757 -0.1903 -0.8747
 8510SOL     OW30086   5.404   6.108   8.453 -0.3633 -0.2136 -0.0625
 8510SOL    HW130087   5.357   6.180   8.410 -2.7943 -0.6718  1.6164
 8510SOL    HW230088   5.395   6.127   8.547 -0.2918 -2.2203  0.3814
 8511SOL     OW30089   2.335  10.295   1.850  0.2243 -0.4597 -0.2257
 8511SOL    HW130090   2.303  10.230   1.788  2.8206 -2.5025  0.4411
 8511SOL    HW230091   2.293  10.271   1.933 -0.6237  0.2058 -0.4446
 8512SOL     OW30092  11.868   6.621   8.063  0.2456  0.3626  0.0159
 8512SOL    HW130093  11.902   6.549   8.009  0.4967 -0.3822  1.1199
 8512SOL    HW230094  11.849   6.691   8.001  1.6755 -0.0162 -0.8901
 8513SOL     OW30095   6.923   3.738  11.642 -0.1286 -0.2182 -0.0444
 8513SOL    HW130096   6.928   3.824  11.682  1.0633 -0.0777 -0.4803
 8513SOL    HW230097   7.013   3.705  11.641 -0.2551 -0.6437 -1.6474
 8514SOL     OW30098  10.765   3.304   8.578  0.4220  0.0380  0.2838
 8514SOL    HW130099  10.856   3.283   8.595  0.1780 -1.2472  0.0951
 8514SOL    HW230100  10.748   3.270   8.490 -0.3971 -0.3216  0.5650
 8515SOL     OW30101   3.250   4.968   9.932 -0.3761 -0.5727  0.6145
 8515SOL    HW130102   3.249   4.986   9.838 -2.1545  1.0009  0.8829
 8515SOL    HW230103   3.316   5.028   9.967 -0.7885 -0.0676  0.5412
 8516SOL     OW30104   0.955   6.600   8.187 -0.5691  0.3043 -0.1797
 8516SOL    HW130105   0.883   6.623   8.128 -0.2157  2.0157  0.0018
 8516SOL    HW230106   0.970   6.679   8.239  1.3395 -0.0490 -0.1030
 8517SOL     OW30107   9.847   5.169  11.935 -0.7391  0.0012  0.4038
 8517SOL    HW130108   9.827   5.078  11.956 -1.7146  0.2765  0.7378
 8517SOL    HW230109   9.866   5.169  11.841  1.0177 -0.8184  0.7312
 8518SOL     OW30110  10.980   6.840   3.605  0.4478  0.6138  0.0258
 8518SOL    HW130111  10.937   6.903   3.663 -1.5020 -1.1360  0.6108
 8518SOL    HW230112  10.916   6.823   3.536  0.7137 -1.0773  0.1574
 8519SOL     OW30113   8.102   8.107  10.374  0.4916  0.7457  0.0521
 8519SOL    HW130114   8.089   8.066  10.289  1.8554  0.5949 -0.1153
 8519SOL    HW230115   8.193   8.085  10.397  0.0546  0.5402  1.6810
 8520SOL     OW30116   0.634  10.150   2.868 -0.0819  0.0764 -0.2525
 8520SOL    HW130117   0.726  10.174   2.867 -0.4082  1.4238 -1.1313
 8520SOL    HW230118   0.628  10.072   2.813  0.7841 -1.1764  1.3612
 8521SOL     OW30119   7.868   3.748  10.266 -0.4081  0.2559  0.2711
 8521SOL    HW130120   7.950   3.795  10.279 -0.0500 -0.5908  1.1804
 8521SOL    HW230121   7.892   3.671  10.215 -0.8910  0.7201 -0.6900
 8522SOL     OW30122   5.053  11.555   1.599  0.1436 -0.0717  0.0452
 8522SOL    HW130123   5.121  11.491   1.620  0.6809  0.6662  0.6565
 8522SOL    HW230124   4.970  11.509   1.613  0.4929 -0.1982  2.0873
 8523SOL     OW30125   9.710   8.035   8.644  0.2820  0.1689  0.0937
 8523SOL    HW130126   9.774   8.075   8.703  0.2635  0.6279 -0.1994
 8523SOL    HW230127   9.652   8.106   8.619  0.5927  0.0862 -0.8846
 8524SOL     OW30128   2.437   4.052  11.595 -0.3543  0.3442 -0.4383
 8524SOL    HW130129   2.453   4.116  11.525 -0.6819  0.0455 -0.7905
 8524SOL    HW230130   2.372   3.993  11.558 -1.3433  0.8092  0.5145
 8525SOL     OW30131  11.614   5.260   0.525 -0.5115 -0.3061  0.2862
 8525SOL    HW130132  11.695   5.223   0.491  0.1574  0.8848  0.5583
 8525SOL    HW230133  11.552   5.187   0.524  0.4857 -1.1593 -0.1642
 8526SOL     OW30134  10.472  10.483   0.318 -0.0455  0.1396 -0.2861
 8526SOL    HW130135  10.506  10.427   0.248  0.7175  0.6225 -0.3070
 8526SOL    HW230136  10.421  10.550   0.272  2.1091  1.6756 -0.6013
 8527SOL     OW30137   0.370   8.303  10.383  0.1033  0.2318  0.4182
 8527SOL    HW130138   0.363   8.313  10.478  0.0267  2.6447  0.2287
 8527SOL    HW230139   0.314   8.228  10.362  0.6229 -0.7515  2.3164
 8528SOL     OW30140   1.762   0.545   7.387 -0.4891  0.8107 -0.0757
 8528SOL    HW130141   1.718   0.554   7.302  0.0482 -0.5101 -0.5203
 8528SOL    HW230142   1.854   0.529   7.365 -0.7997 -2.5416  0.5813
 8529SOL     OW30143   7.582   4.209   5.603  0.3793  0.2325  0.3131
 8529SOL    HW130144   7.652   4.270   5.580  1.1722 -0.3197  1.1714
 8529SOL    HW230145   7.512   4.227   5.540  1.7874 -0.0796 -1.4245
 8530SOL     OW30146   8.251   4.529   3.315  0.2508 -0.2380  0.5157
 8530SOL    HW130147   8.337   4.542   3.274 -0.4300 -1.7826 -1.5465
 8530SOL    HW230148   8.245   4.435   3.330 -1.6327 -0.3606 -0.7203
 8531SOL     OW30149   3.453   3.426  11.021  0.1264 -0.6036  0.2206
 8531SOL    HW130150   3.533   3.479  11.010  0.1419 -0.3097  1.5942
 8531SOL    HW230151   3.419   3.452  11.107 -1.7441 -0.3369 -0.5466
 8532SOL     OW30152   1.294   3.813  11.077 -0.2278  0.2521 -0.3864
 8532SOL    HW130153   1.340   3.893  11.054  1.8318 -0.5027  0.8631
 8532SOL    HW230154   1.341   3.744  11.030  0.2948 -0.5869  1.2576
 8533SOL     OW30155   1.053   7.012   7.821  0.5135  0.2311 -0.7542
 8533SOL    HW130156   1.094   6.987   7.738  0.4459 -0.1157 -0.6842
 8533SOL    HW230157   1.000   7.089   7.800 -0.1565 -0.3431 -1.2127
 8534SOL     OW30158   2.060   8.357   9.874  0.0202  0.5779  0.1596
 8534SOL    HW130159   2.106   8.441   9.877  1.0266  0.1081 -1.0677
 8534SOL    HW230160   2.116   8.301   9.820 -0.5134 -0.9633  1.1296
 8535SOL     OW30161   8.707   1.974   8.208 -0.0205 -0.1580  0.1770
 8535SOL    HW130162   8.666   1.919   8.274 -1.6658  0.9560  0.1390
 8535SOL    HW230163   8.707   2.062   8.247 -0.9371  0.4992 -1.2183
 8536SOL     OW30164   9.477   5.824   1.267 -0.1748  0.5713 -0.1250
 8536SOL    HW130165   9.443   5.759   1.329  1.6835  0.4616  0.8506
 8536SOL    HW230166   9.525   5.886   1.322 -0.0222  1.5118 -1.2932
 8537SOL     OW30167   8.071  11.813   8.498  0.3430  0.4021  0.3423
 8537SOL    HW130168   8.108  11.725   8.505 -0.0175  0.2388  0.2251
 8537SOL    HW230169   7.986  11.799   8.457  0.9926  0.9746 -1.2768
 8538SOL     OW30170   1.287   5.737   5.147 -0.2503 -0.3004 -0.4694
 8538SOL    HW130171   1.255   5.731   5.057  0.7875 -0.9966 -0.8086
 8538SOL    HW230172   1.381   5.723   5.140 -0.1991 -0.6873  0.7595
 8539SOL     OW30173   4.172   9.187   1.538 -0.3515 -0.1647 -0.0411
 8539SOL    HW130174   4.086   9.230   1.540  0.0018  0.5329  0.4693
 8539SOL    HW230175   4.232   9.256   1.511 -0.0209 -0.7883 -0.9132
 8540SOL     OW30176   7.838   3.236   8.810  0.1550  0.1488 -0.1916
 8540SOL    HW130177   7.758   3.201   8.848  1.1460 -0.5602  1.3675
 8540SOL    HW230178   7.826   3.330   8.809  0.3410  0.2868  2.6906
 8541SOL     OW30179   8.274   3.036   2.730  0.2955  0.3423 -0.3503
 8541SOL    HW130180   8.264   3.076   2.816 -0.2303  0.8385 -0.6292
 8541SOL    HW230181   8.323   3.100   2.679  1.6839 -0.4619 -0.0967
 8542SOL     OW30182   8.934   3.410   1.801  0.0404  0.5498  0.4729
 8542SOL    HW130183   8.912   3.400   1.708  1.0944  0.9090  0.1787
 8542SOL    HW230184   8.851   3.392   1.847  0.3495 -3.7767 -0.2834
 8543SOL     OW30185   3.369   8.671   3.502 -0.0804  0.3849  1.0615
 8543SOL    HW130186   3.354   8.579   3.481  1.5891  0.0367  1.2421
 8543SOL    HW230187   3.344   8.718   3.422  1.7389 -0.5026 -0.0914
 8544SOL     OW30188  10.041   7.913   9.319 -0.3138  0.1825  0.0760
 8544SOL    HW130189  10.011   7.962   9.242  1.0129 -0.4250 -0.8861
 8544SOL    HW230190   9.965   7.908   9.376 -1.1579  1.2244 -0.9058
 8545SOL     OW30191   4.659   7.632   3.080  0.1052  0.5053 -0.3671
 8545SOL    HW130192   4.641   7.682   3.159 -0.8250 -1.5249  0.7919
 8545SOL    HW230193   4.588   7.657   3.020  0.1573  1.2134 -0.1419
 8546SOL     OW30194   6.327   7.768   7.254  0.0924  0.2507  0.3416
 8546SOL    HW130195   6.336   7.692   7.311 -0.8458  0.4306  0.7607
 8546SOL    HW230196   6.351   7.737   7.167 -0.4338 -0.5673  0.4835
 8547SOL     OW30197   2.054   6.743   3.160 -0.5027  0.4078  0.3864
 8547SOL    HW130198   2.114   6.671   3.144  1.0535  1.9479 -1.1601
 8547SOL    HW230199   2.029   6.735   3.252 -0.6499 -2.2297  0.1785
 8548SOL     OW30200   6.980   9.816   6.393  0.5110  0.2053 -0.5377
 8548SOL    HW130201   6.891   9.808   6.359  1.0764 -1.5080 -1.7418
 8548SOL    HW230202   7.013   9.897   6.355 -1.0128  1.7123  1.1880
 8549SOL     OW30203   5.166   3.486   4.850 -0.0419 -0.4497 -0.1378
 8549SOL    HW130204   5.235   3.420   4.855  0.0217 -0.2863  3.4481
 8549SOL    HW230205   5.213   3.569   4.853 -0.3012 -0.2639 -0.9168
 8550SOL     OW30206   5.605   4.743   0.693  0.0079 -1.1239 -0.0413
 8550SOL    HW130207   5.688   4.772   0.653  0.3858 -1.0999  0.7397
 8550SOL    HW230208   5.592   4.803   0.766 -0.8346 -0.9824 -0.2962
 8551SOL     OW30209   2.631   8.711   9.050 -0.1702 -0.7939  0.1173
 8551SOL    HW130210   2.702   8.768   9.019 -0.2585 -0.4071  0.6257
 8551SOL    HW230211   2.674   8.646   9.104 -0.2722 -0.1490  0.9969
 8552SOL     OW30212   1.735   0.748   1.041 -0.0751 -0.2507  0.7233
 8552SOL    HW130213   1.708   0.679   0.980  0.7460  0.2508 -0.2506
 8552SOL    HW230214   1.783   0.702   1.110  0.7250 -0.6472 -0.0719
 8553SOL     OW30215   8.398   9.841  10.766 -0.4247 -0.0258  0.1167
 8553SOL    HW130216   8.424   9.763  10.814 -0.6728  0.6939  1.4786
 8553SOL    HW230217   8.303   9.835  10.761 -0.6043  0.9583  1.6799
 8554SOL     OW30218   3.806   8.237   7.792  0.2466 -0.6488 -0.1273
 8554SOL    HW130219   3.792   8.263   7.883 -0.9943  0.5874 -0.6363
 8554SOL    HW230220   3.898   8.256   7.776  0.1289  0.4952  0.4665
 8555SOL     OW30221   6.969   7.728   9.763  0.8329  0.0389  0.3847
 8555SOL    HW130222   7.062   7.744   9.753  0.5328  0.6519 -1.9856
 8555SOL    HW230223   6.937   7.712   9.674 -0.9552 -2.4119  1.3409
 8556SOL     OW30224   6.548   3.931   7.371 -0.0015 -0.4667 -0.0056
 8556SOL    HW130225   6.491   3.926   7.294 -1.9916 -1.1543  1.4231
 8556SOL    HW230226   6.613   3.862   7.357 -0.7997 -1.0974 -0.7133
 8557SOL     OW30227   9.655   1.283   1.388 -0.4819  0.6247 -0.2045
 8557SOL    HW130228   9.609   1.249   1.311 -2.4218 -0.5643  1.3698
 8557SOL    HW230229   9.595   1.267   1.461  0.2966  3.7365  1.2935
 8558SOL     OW30230  12.091   0.693  10.135 -0.1277  0.3406  0.0966
 8558SOL    HW130231  12.010   0.645  10.155  0.0597 -0.5140 -1.0657
 8558SOL    HW230232  12.087   0.771  10.190 -0.8240 -0.6281  1.4700
 8559SOL     OW30233   3.626   8.901   9.112 -0.3933  0.1850  0.5896
 8559SOL    HW130234   3.629   8.894   9.017 -0.8843  0.1862  0.5747
 8559SOL    HW230235   3.591   8.988   9.129  0.1127  0.3576  0.7757
 8560SOL     OW30236   3.697   0.247   4.490  0.1713 -0.1023  0.0602
 8560SOL    HW130237   3.750   0.298   4.552 -2.3393  1.4014  1.0957
 8560SOL    HW230238   3.735   0.159   4.494  1.6391  0.5325  1.8902
 8561SOL     OW30239   3.840   3.731   8.978 -0.3265  0.1306 -0.2323
 8561SOL    HW130240   3.747   3.741   8.996 -0.5739 -1.4796 -0.4688
 8561SOL    HW230241   3.882   3.740   9.063 -0.9889 -2.0401  0.3820
 8562SOL     OW30242   7.201   0.942   3.916 -0.0306 -0.2051 -0.2605
 8562SOL    HW130243   7.140   0.971   3.849 -0.2092 -2.3778 -1.1395
 8562SOL    HW230244   7.252   1.020   3.938 -1.7591  1.1839 -0.9520
 8563SOL     OW30245   7.731   0.260   4.437 -0.0968  0.2817 -0.1247
 8563SOL    HW130246   7.784   0.181   4.427  0.5362  0.6969 -0.1789
 8563SOL    HW230247   7.641   0.229   4.445  0.2276 -0.4825  0.6703
 8564SOL     OW30248  10.912   6.962   3.124 -0.3220  0.0920 -0.4597
 8564SOL    HW130249  10.895   6.868   3.117 -1.0076  0.1331  0.3994
 8564SOL    HW230250  10.850   7.003   3.064  0.6962 -0.0426 -1.6345
 8565SOL     OW30251   2.528  12.090   2.178  0.7029  0.1199 -0.1160
 8565SOL    HW130252   2.482  12.034   2.240  2.1334 -0.7554  0.1720
 8565SOL    HW230253   2.481  12.077   2.095 -0.6376  0.5982  0.5358
 8566SOL     OW30254   0.821  10.046   5.724  0.1220  0.1146  0.0877
 8566SOL    HW130255   0.735  10.072   5.692  0.0502  0.9705  0.9294
 8566SOL    HW230256   0.873  10.126   5.721  1.0924 -0.5267 -1.0157
 8567SOL     OW30257   2.969   7.790   4.382  0.1334  0.1553 -0.8724
 8567SOL    HW130258   3.011   7.828   4.305  0.1769  1.7325 -0.0994
 8567SOL    HW230259   2.877   7.781   4.356  0.5183 -1.3993 -1.8489
 8568SOL     OW30260   5.650   7.156   0.722  0.2408 -0.6964  0.0704
 8568SOL    HW130261   5.559   7.184   0.713  1.0113  2.7453  1.6298
 8568SOL    HW230262   5.693   7.185   0.641  0.2031 -1.3936 -0.2114
 8569SOL     OW30263   8.445   4.904   7.952 -0.7500 -0.2759  0.0774
 8569SOL    HW130264   8.359   4.891   7.990 -0.5189  0.7511  0.9932
 8569SOL    HW230265   8.493   4.956   8.017  1.5941 -3.3369  1.0453
 8570SOL     OW30266   1.725   2.316   7.924  0.0427  0.0604  0.2015
 8570SOL    HW130267   1.689   2.233   7.956 -2.6333  0.1450 -2.2260
 8570SOL    HW230268   1.810   2.292   7.886 -1.1745 -1.8965 -1.4976
 8571SOL     OW30269   1.362   9.843  10.003  0.1651  0.0722 -0.1206
 8571SOL    HW130270   1.308   9.855  10.081 -0.9518  0.1480 -0.8762
 8571SOL    HW230271   1.438   9.793  10.033 -0.7299 -0.7559  0.8171
 8572SOL     OW30272   9.625   1.911   5.016  0.4130 -0.6926 -0.1639
 8572SOL    HW130273   9.599   1.904   4.924 -1.5389  0.8307  0.1778
 8572SOL    HW230274   9.568   1.849   5.061 -0.6025  0.5039  0.2689
 8573SOL     OW30275   1.232   9.378   0.207 -0.2881  0.2819 -0.0106
 8573SOL    HW130276   1.270   9.292   0.190 -1.1519 -0.0132 -0.5493
 8573SOL    HW230277   1.290   9.440   0.163 -1.2877 -0.2975 -2.2621
 8574SOL     OW30278   8.636  11.682   3.740  0.7026  0.0568 -0.6689
 8574SOL    HW130279   8.644  11.688   3.836  0.5109  0.7214 -0.6906
 8574SOL    HW230280   8.715  11.724   3.707  1.0364 -0.6685 -0.8007
 8575SOL     OW30281   0.254   0.833  10.651 -0.2534  0.3612  0.0306
 8575SOL    HW130282   0.160   0.823  10.668 -0.3295  0.7735 -0.1472
 8575SOL    HW230283   0.261   0.908  10.593  0.1313 -0.1238 -0.5693
 8576SOL     OW30284   4.733   4.818   3.662 -0.2246 -0.0775  0.0141
 8576SOL    HW130285   4.712   4.746   3.723 -1.0339  0.8407  0.8497
 8576SOL    HW230286   4.735   4.896   3.717  0.8221  0.5321 -0.8545
 8577SOL     OW30287   5.427   7.683   0.458 -0.2049 -0.1498  0.3533
 8577SOL    HW130288   5.500   7.732   0.495 -1.1334  0.5339  1.3449
 8577SOL    HW230289   5.381   7.747   0.403 -0.5668 -0.3104  0.4603
 8578SOL     OW30290   4.038   4.167   1.900 -0.2595 -0.1249  0.2154
 8578SOL    HW130291   4.022   4.083   1.857 -0.1335 -0.5004  0.8862
 8578SOL    HW230292   4.127   4.161   1.932 -0.5070 -0.0422  0.9375
 8579SOL     OW30293   9.886  10.884   0.758  0.2412 -0.4476 -0.1394
 8579SOL    HW130294   9.858  10.975   0.762  1.9149  0.1382 -0.7705
 8579SOL    HW230295   9.831  10.838   0.822 -0.9214  0.9080 -0.1330
 8580SOL     OW30296   4.151   1.929   6.897 -0.5096 -0.3782  0.5926
 8580SOL    HW130297   4.058   1.945   6.883 -0.1064  1.5910 -0.1675
 8580SOL    HW230298   4.165   1.841   6.862 -1.8692 -0.2410 -0.3949
 8581SOL     OW30299  11.517   6.162   6.598 -0.0529  0.1211 -0.2489
 8581SOL    HW130300  11.497   6.116   6.679  1.2817  1.2919  0.8039
 8581SOL    HW230301  11.447   6.137   6.538 -0.6170 -1.4302  0.9852
 8582SOL     OW30302   7.076   9.999   1.795 -0.4396  0.1130  0.0003
 8582SOL    HW130303   7.081   9.960   1.707  2.4549 -0.2863  0.2339
 8582SOL    HW230304   7.067   9.924   1.853  1.9099 -0.0683  0.2382
 8583SOL     OW30305   2.877   7.006   5.869  0.1959 -1.2754 -0.5067
 8583SOL    HW130306   2.925   6.952   5.805 -0.5201 -1.0621 -1.2436
 8583SOL    HW230307   2.942   7.027   5.935  0.7867 -2.0916 -0.7975
 8584SOL     OW30308   1.891   3.382   1.152  0.1121 -0.2354 -0.4342
 8584SOL    HW130309   1.978   3.366   1.191  0.4127  0.3082 -0.8762
 8584SOL    HW230310   1.874   3.304   1.099  0.5524 -0.1331 -0.7342
 8585SOL     OW30311   3.911   6.005   2.500 -0.1898 -0.0401 -0.0725
 8585SOL    HW130312   3.937   6.062   2.427  1.4416 -0.6722 -0.0411
 8585SOL    HW230313   3.931   6.056   2.578 -0.6481  0.1094 -0.0493
 8586SOL     OW30314   4.796   9.344   3.846  0.2569  0.0803  0.2191
 8586SOL    HW130315   4.831   9.428   3.815 -0.4904  0.0912 -0.6415
 8586SOL    HW230316   4.852   9.321   3.920 -0.1262  1.8153  1.1063
 8587SOL     OW30317   0.476   6.212   5.425  0.0737 -0.1134 -0.1917
 8587SOL    HW130318   0.510   6.288   5.378  0.8874  0.5606  1.4032
 8587SOL    HW230319   0.548   6.149   5.426  0.1788  0.0057  0.3889
 8588SOL     OW30320   4.678   2.249   0.884 -0.2563  0.5669  0.3971
 8588SOL    HW130321   4.672   2.256   0.979  0.4758 -1.1686  0.6017
 8588SOL    HW230322   4.771   2.237   0.866 -0.5535 -0.8650 -0.3706
 8589SOL     OW30323  10.552   4.045  10.877 -0.1976 -0.1136  0.0073
 8589SOL    HW130324  10.459   4.064  10.887 -0.0899  0.9778 -0.9466
 8589SOL    HW230325  10.556   3.977  10.809 -0.2783  0.1171 -0.2290
 8590SOL     OW30326   6.277   0.862  10.797 -0.3661 -0.1444 -0.1270
 8590SOL    HW130327   6.298   0.952  10.824 -0.6219 -0.6900  2.0817
 8590SOL    HW230328   6.361   0.818  10.791 -0.2599  0.1585 -0.9350
 8591SOL     OW30329  11.065   9.091   1.950  0.4779 -0.4115  0.1139
 8591SOL    HW130330  11.010   9.057   1.879 -1.2862 -0.3820  1.3870
 8591SOL    HW230331  11.070   9.185   1.933 -0.1046 -0.3743  0.1087
 8592SOL     OW30332   8.394   1.180   4.581  0.5751 -0.4748  0.4454
 8592SOL    HW130333   8.433   1.210   4.663  1.5783 -0.6338  0.0518
 8592SOL    HW230334   8.323   1.121   4.607  0.5523 -0.1140  1.1961
 8593SOL     OW30335   5.081  10.724   6.077  0.2295  0.5145 -0.6532
 8593SOL    HW130336   5.017  10.689   6.139  0.5207  1.0543 -0.0437
 8593SOL    HW230337   5.149  10.763   6.131  1.3420 -0.4991 -1.2883
 8594SOL     OW30338   4.204   7.242   4.653 -0.1707  0.1942  0.6721
 8594SOL    HW130339   4.170   7.210   4.736 -0.9877 -1.0109 -0.0774
 8594SOL    HW230340   4.130   7.234   4.592  0.2867  1.4195 -0.0871
 8595SOL     OW30341   5.324   6.604   2.428  0.3743 -0.3585  0.7449
 8595SOL    HW130342   5.295   6.525   2.475 -0.5461 -0.1438  0.5488
 8595SOL    HW230343   5.391   6.641   2.485  1.4884 -1.7537  0.4187
 8596SOL     OW30344   9.670   5.340   7.062  0.5098  0.4606 -0.0759
 8596SOL    HW130345   9.620   5.379   7.134 -2.0949  1.2080 -2.1536
 8596SOL    HW230346   9.755   5.383   7.066  0.1000  1.2155  1.8950
 8597SOL     OW30347   6.609   3.488   6.662  0.1577  0.2852 -0.1243
 8597SOL    HW130348   6.571   3.552   6.602 -1.6970  0.0616  0.7644
 8597SOL    HW230349   6.700   3.518   6.674 -0.6487  2.7957  0.2997
 8598SOL     OW30350  10.881   3.676   5.538  0.2357 -0.5708  0.1637
 8598SOL    HW130351  10.901   3.627   5.618  1.2319 -3.4867 -1.7016
 8598SOL    HW230352  10.789   3.700   5.547  0.5693  0.0511  2.5672
 8599SOL     OW30353   4.557   0.854   0.703 -0.3304  0.0821  0.3218
 8599SOL    HW130354   4.506   0.785   0.659  1.9977 -2.0353  0.6956
 8599SOL    HW230355   4.558   0.827   0.795 -0.3092  1.2703  0.6795
 8600SOL     OW30356   0.226   0.661  10.304 -0.5762  0.4580 -0.0420
 8600SOL    HW130357   0.131   0.674  10.298 -0.6968  1.1025  2.2627
 8600SOL    HW230358   0.236   0.566  10.313 -0.8376  0.2227 -1.8401
 8601SOL     OW30359   3.282   4.543   5.630  0.1333  0.3121  0.1198
 8601SOL    HW130360   3.290   4.470   5.691 -1.4291  1.8497  2.3360
 8601SOL    HW230361   3.367   4.587   5.634  0.2424  0.0568  0.7225
 8602SOL     OW30362   6.500   0.934   0.578 -0.0022 -0.5118 -0.1536
 8602SOL    HW130363   6.470   0.942   0.668  0.3208 -1.1961  0.0165
 8602SOL    HW230364   6.494   1.023   0.543 -1.9891 -0.5786 -0.0633
 8603SOL     OW30365  11.828   1.406   4.481  0.4156 -0.0515 -0.3081
 8603SOL    HW130366  11.764   1.465   4.520  1.6446  2.2155 -1.5348
 8603SOL    HW230367  11.912   1.436   4.515  1.0939 -0.9846 -1.1110
 8604SOL     OW30368   3.586  10.765   2.572  0.1638 -0.2462  0.0628
 8604SOL    HW130369   3.632  10.824   2.632 -1.3569  1.1763 -0.0798
 8604SOL    HW230370   3.519  10.723   2.626  0.1611 -0.5768 -0.1947
 8605SOL     OW30371   1.903  10.405   2.526 -0.0271  0.0050 -0.2973
 8605SOL    HW130372   1.914  10.348   2.451  1.7709  0.5253 -0.4640
 8605SOL    HW230373   1.941  10.489   2.499 -2.9180  1.4823 -0.2159
 8606SOL     OW30374  11.362   2.924   2.656 -0.4288 -0.2281 -0.2150
 8606SOL    HW130375  11.358   2.997   2.595  0.2674  2.0293  2.2774
 8606SOL    HW230376  11.272   2.910   2.684 -1.0256 -2.3517 -2.7540
 8607SOL     OW30377   3.323   3.250   0.997 -0.0009  0.5477 -0.0972
 8607SOL    HW130378   3.418   3.237   1.004  0.0224  0.1499 -1.0714
 8607SOL    HW230379   3.292   3.175   0.947 -1.0139  0.0355  1.2318
 8608SOL     OW30380   9.955  10.227   5.289 -0.1520 -0.6883  0.6029
 8608SOL    HW130381   9.957  10.312   5.246 -2.3476 -1.0649 -0.3673
 8608SOL    HW230382  10.025  10.177   5.247 -0.5169 -0.1659 -0.6673
 8609SOL     OW30383   3.068   4.800   8.322 -0.5042 -0.0680 -0.4002
 8609SOL    HW130384   3.075   4.829   8.413 -0.6888  1.8039 -0.9515
 8609SOL    HW230385   3.157   4.802   8.288 -0.6378  0.8214 -0.7137
 8610SOL     OW30386  10.619  11.748   2.318 -0.0755  0.2118  0.7770
 8610SOL    HW130387  10.630  11.817   2.383  0.6512  0.0417  0.8486
 8610SOL    HW230388  10.548  11.778   2.262 -0.0528  0.8134  1.0672
 8611SOL     OW30389   2.930   3.761   0.326  0.2936 -0.1123  0.2950
 8611SOL    HW130390   2.852   3.733   0.375 -0.4475 -0.3465 -0.9850
 8611SOL    HW230391   3.001   3.709   0.364 -0.5983 -1.7442 -0.1678
 8612SOL     OW30392   4.440   1.710   5.759  0.2318 -0.3434  0.1892
 8612SOL    HW130393   4.482   1.648   5.699 -0.0304 -0.5027  0.1679
 8612SOL    HW230394   4.352   1.675   5.770  0.2053 -0.1808  0.4790
 8613SOL     OW30395  10.175  11.387   5.829  0.5676 -0.3831 -0.3521
 8613SOL    HW130396  10.211  11.300   5.809 -0.5188 -0.5588 -1.6730
 8613SOL    HW230397  10.244  11.430   5.880  1.1147 -2.0227  0.3700
 8614SOL     OW30398   5.752   4.801  11.589  0.0188 -0.3076  0.7519
 8614SOL    HW130399   5.835   4.810  11.542 -1.7354  0.6303 -2.4459
 8614SOL    HW230400   5.715   4.720  11.557 -1.9948  1.1945 -0.9997
 8615SOL     OW30401   0.044   1.461   8.911 -0.7008 -0.0102 -0.2260
 8615SOL    HW130402   0.082   1.398   8.972 -2.6462 -0.8098  0.2429
 8615SOL    HW230403  -0.034   1.417   8.876 -2.2410  2.1559  0.2356
 8616SOL     OW30404   1.688   6.328   8.626  0.9690  0.3154  0.0415
 8616SOL    HW130405   1.749   6.257   8.605  0.5439  0.2796 -1.1211
 8616SOL    HW230406   1.613   6.313   8.568 -0.3861  0.0692  1.7788
 8617SOL     OW30407   0.043   1.667   8.445 -0.1921  0.7158  0.3942
 8617SOL    HW130408  -0.023   1.662   8.514 -0.3228 -1.1743  0.1949
 8617SOL    HW230409   0.090   1.584   8.450 -0.0101  0.6419 -1.5699
 8618SOL     OW30410  10.059   1.984   5.703 -0.1073  0.1010 -0.4672
 8618SOL    HW130411  10.045   1.939   5.619 -2.4602 -0.8165  0.3355
 8618SOL    HW230412  10.154   1.987   5.713  0.2584  0.1247 -3.0788
 8619SOL     OW30413   4.346   4.303   4.802 -0.4874  0.5267  0.4449
 8619SOL    HW130414   4.371   4.212   4.822 -0.3610  0.1418 -1.3087
 8619SOL    HW230415   4.398   4.355   4.864  1.0601 -0.4987  0.0963
 8620SOL     OW30416   6.743   9.475   2.344  0.3800 -0.2925 -0.0755
 8620SOL    HW130417   6.655   9.476   2.381  0.1798  1.3354 -0.5298
 8620SOL    HW230418   6.777   9.389   2.368 -0.3799 -0.0176  2.3776
 8621SOL     OW30419  11.721   0.212   2.773 -0.2549  0.3876  0.1120
 8621SOL    HW130420  11.774   0.150   2.824 -1.0833 -1.6650 -1.3987
 8621SOL    HW230421  11.718   0.290   2.827  1.4631 -0.6182  1.7890
 8622SOL     OW30422   1.454   8.194   9.363  0.2812  0.2980  0.3269
 8622SOL    HW130423   1.472   8.285   9.387 -1.0378  1.2396 -1.9253
 8622SOL    HW230424   1.499   8.182   9.279 -0.8265 -0.6201 -0.1572
 8623SOL     OW30425   8.932   7.583   6.349 -0.2007  0.6006  0.0497
 8623SOL    HW130426   8.961   7.499   6.312  1.6655 -0.5120  3.5497
 8623SOL    HW230427   8.982   7.649   6.301  0.7031 -0.5546 -0.6487
 8624SOL     OW30428   0.949   2.135   6.672 -0.6157 -0.2006 -0.1033
 8624SOL    HW130429   0.870   2.106   6.717 -0.7769  1.9865  1.1551
 8624SOL    HW230430   1.020   2.084   6.712 -0.9619  0.5326  1.5459
 8625SOL     OW30431   9.332  11.412   9.788 -0.2384 -0.0490 -0.6420
 8625SOL    HW130432   9.271  11.393   9.859  0.8869 -1.4524 -0.0087
 8625SOL    HW230433   9.397  11.342   9.792  0.4347  0.4069 -2.4149
 8626SOL     OW30434   8.812  10.763   4.516  0.4855 -0.2620  0.1574
 8626SOL    HW130435   8.853  10.699   4.574 -1.9438 -0.6990  1.5540
 8626SOL    HW230436   8.740  10.716   4.475  0.2328  0.9029 -0.7818
 8627SOL     OW30437   6.693   1.508   8.846  0.3031  0.2186 -0.3546
 8627SOL    HW130438   6.642   1.434   8.816  0.3760 -0.5488  1.3238
 8627SOL    HW230439   6.783   1.476   8.848  0.3648  0.4140  0.1692
 8628SOL     OW30440   3.452   6.414   4.843 -0.0061  0.7952  0.2175
 8628SOL    HW130441   3.539   6.415   4.803 -0.0607  2.0162  0.0836
 8628SOL    HW230442   3.422   6.324   4.832  0.3447  0.8590 -1.6753
 8629SOL     OW30443   9.773   0.093   1.007 -0.0038  0.7124 -0.4704
 8629SOL    HW130444   9.722   0.139   0.940 -1.3876  0.6056  0.4589
 8629SOL    HW230445   9.831   0.036   0.958 -1.3858  0.2100 -1.6021
 8630SOL     OW30446   7.408   2.347   4.556 -0.3704 -0.4487  0.0184
 8630SOL    HW130447   7.430   2.414   4.492 -1.7790 -0.5598 -0.5992
 8630SOL    HW230448   7.486   2.291   4.559  1.4041  1.8918  1.5348
 8631SOL     OW30449   3.755   2.271   9.197  0.2889  0.0583 -0.3380
 8631SOL    HW130450   3.718   2.194   9.153  1.8240 -1.4415  0.8699
 8631SOL    HW230451   3.783   2.328   9.125 -1.5563 -0.1033 -1.2637
 8632SOL     OW30452   7.606   7.152   5.440  0.2645  0.1810 -0.1917
 8632SOL    HW130453   7.649   7.215   5.498 -0.3712  0.2041  0.2720
 8632SOL    HW230454   7.559   7.207   5.377  0.0231  0.1772 -0.0201
 8633SOL     OW30455   7.620   1.263   9.193 -0.0593 -0.2852 -0.2094
 8633SOL    HW130456   7.627   1.196   9.261 -1.2117  0.5375  0.7900
 8633SOL    HW230457   7.615   1.215   9.111 -0.8633 -1.4405  0.4851
 8634SOL     OW30458   6.440   7.342   7.345  0.0104  0.5954  0.1385
 8634SOL    HW130459   6.512   7.385   7.392 -0.6395  2.6058 -0.5768
 8634SOL    HW230460   6.370   7.408   7.344 -1.9331 -1.3524  0.9395
 8635SOL     OW30461  11.685   4.663   4.398  0.3010  0.0465  0.6294
 8635SOL    HW130462  11.776   4.663   4.367  0.2250  0.9616  0.3681
 8635SOL    HW230463  11.692   4.660   4.493  0.5698 -1.2125  0.5832
 8636SOL     OW30464   3.788   5.516   3.638  0.0080 -0.0321  0.0411
 8636SOL    HW130465   3.862   5.458   3.620  1.4454  1.0402  2.1547
 8636SOL    HW230466   3.792   5.582   3.569  1.7114  0.6296  0.7386
 8637SOL     OW30467   3.177   6.212   9.360 -0.6023 -0.1728 -0.2183
 8637SOL    HW130468   3.083   6.215   9.375 -0.9662 -1.4189 -1.9708
 8637SOL    HW230469   3.203   6.303   9.348 -1.3778  0.2680  1.2132
 8638SOL     OW30470  10.312   9.485  11.908 -0.0161 -0.0256  0.2706
 8638SOL    HW130471  10.387   9.528  11.950 -0.9185  0.4553  1.4275
 8638SOL    HW230472  10.263   9.446  11.980 -0.3355 -1.2459 -0.5722
 8639SOL     OW30473   4.705   1.184  10.490 -0.3435  0.4578  0.1447
 8639SOL    HW130474   4.794   1.147  10.496 -0.0149  1.0749 -0.7013
 8639SOL    HW230475   4.708   1.239  10.412 -1.3440  0.8616  0.3843
 8640SOL     OW30476   3.368   6.831   6.874  1.0535 -0.5699  0.0778
 8640SOL    HW130477   3.394   6.761   6.813 -1.0990 -0.6507 -0.8321
 8640SOL    HW230478   3.314   6.787   6.939  3.7278 -0.5800  2.4926
 8641SOL     OW30479   7.795   1.363   1.264 -0.1780  0.2562 -0.0509
 8641SOL    HW130480   7.845   1.324   1.336 -0.6157 -2.6113 -1.1521
 8641SOL    HW230481   7.703   1.347   1.287 -0.3503  0.1615 -0.7700
 8642SOL     OW30482   5.259   2.592   9.956 -0.3883  0.6023  0.0061
 8642SOL    HW130483   5.223   2.505   9.974  0.5906  0.2502  0.3233
 8642SOL    HW230484   5.291   2.623  10.041  0.3373  0.7760 -0.3264
 8643SOL     OW30485   5.533  10.519   2.462 -0.1551  0.2570  0.0412
 8643SOL    HW130486   5.460  10.478   2.509 -0.3742 -1.1143 -1.4026
 8643SOL    HW230487   5.587  10.557   2.531 -1.3573 -0.1444  1.2692
 8644SOL     OW30488   7.458   6.287   7.635  0.3042  0.4754  0.4232
 8644SOL    HW130489   7.406   6.210   7.656  1.6599  0.1204  2.8450
 8644SOL    HW230490   7.518   6.258   7.567  0.5261 -0.5130  1.0270
 8645SOL     OW30491   9.194   5.593   3.104 -0.1737  0.3655  0.6621
 8645SOL    HW130492   9.108   5.586   3.064 -0.1666 -1.6569  0.8777
 8645SOL    HW230493   9.178   5.586   3.198  0.1960  0.3221  0.7259
 8646SOL     OW30494   3.111  11.260   3.464 -0.4142 -0.3627 -0.3773
 8646SOL    HW130495   3.074  11.330   3.517 -0.1612 -1.6377  1.5769
 8646SOL    HW230496   3.202  11.286   3.449 -0.8703  0.6908 -1.4708
 8647SOL     OW30497   3.052   2.180   3.976  0.7444 -0.1111 -0.3811
 8647SOL    HW130498   3.086   2.226   4.053 -0.1889  0.6933 -0.4369
 8647SOL    HW230499   3.001   2.245   3.929 -0.2406 -1.0784 -0.7070
 8648SOL     OW30500   6.912   0.912   5.364  0.1806 -0.0527 -0.2629
 8648SOL    HW130501   6.895   0.962   5.444  1.8431 -0.2194  0.2244
 8648SOL    HW230502   6.927   0.978   5.297 -1.1392  0.0871 -0.4619
 8649SOL     OW30503   2.503   3.128   8.414  0.1299  0.4173 -0.0558
 8649SOL    HW130504   2.562   3.077   8.360 -1.6703 -2.1279  0.2195
 8649SOL    HW230505   2.538   3.121   8.503 -0.2769 -0.6850  0.0310
 8650SOL     OW30506   2.528   9.959   1.701  0.2718  0.1618 -0.6538
 8650SOL    HW130507   2.584  10.030   1.732 -0.8206  0.2443  1.3227
 8650SOL    HW230508   2.541   9.888   1.765 -0.3168 -0.5818 -1.3329
 8651SOL     OW30509   3.740  12.035   3.156  0.3938  0.1458  0.2864
 8651SOL    HW130510   3.774  11.947   3.175  1.1697  0.3982  0.1330
 8651SOL    HW230511   3.721  12.034   3.063  1.3462  0.4357  0.0800
 8652SOL     OW30512   6.003  10.173   9.504 -0.1426 -0.1856 -0.0100
 8652SOL    HW130513   6.035  10.108   9.567  2.2897 -0.7342 -1.6950
 8652SOL    HW230514   5.995  10.125   9.422 -1.0093  1.0505 -0.6871
 8653SOL     OW30515   6.154   0.899   5.522  0.6217 -0.1972 -0.6550
 8653SOL    HW130516   6.127   0.868   5.436  0.9878 -1.6303 -0.2801
 8653SOL    HW230517   6.225   0.839   5.547  1.2584  0.8762  0.1766
 8654SOL     OW30518   0.788   3.949   6.287  0.0911 -0.2625 -0.1746
 8654SOL    HW130519   0.857   3.955   6.354  0.4156  0.2735 -0.5446
 8654SOL    HW230520   0.771   3.856   6.277 -0.3259 -0.3360  1.0273
 8655SOL     OW30521   0.780  12.068   3.554 -0.0668  0.2987  0.1410
 8655SOL    HW130522   0.826  11.996   3.598  2.3959  1.3032 -0.6255
 8655SOL    HW230523   0.741  12.027   3.476  0.7117 -0.3488  0.0736
 8656SOL     OW30524   0.338  12.024   5.326  0.9667  0.2017 -0.4582
 8656SOL    HW130525   0.351  12.117   5.341  0.8274  0.1833 -0.2204
 8656SOL    HW230526   0.249  12.018   5.289  2.0379  0.4649 -3.3520
 8657SOL     OW30527   8.733   1.633   6.960  0.5225  0.2318 -0.2034
 8657SOL    HW130528   8.708   1.606   7.048  3.3035 -1.0822  0.3097
 8657SOL    HW230529   8.747   1.551   6.913 -2.0379  0.8936 -2.3383
 8658SOL     OW30530   9.851   0.090   8.414 -0.1058  0.2302  0.0031
 8658SOL    HW130531   9.764   0.127   8.405 -0.7781 -1.4007 -0.6307
 8658SOL    HW230532   9.836  -0.001   8.439  1.2800 -0.9919 -3.1838
 8659SOL     OW30533   8.111  11.809   2.342 -0.0074 -0.2226 -0.0073
 8659SOL    HW130534   8.165  11.732   2.355 -0.9221 -0.8952 -0.1430
 8659SOL    HW230535   8.023  11.782   2.368  0.1867  1.7511  3.4121
 8660SOL     OW30536   0.927   1.329   5.725  0.2373  0.2393  0.5048
 8660SOL    HW130537   0.929   1.425   5.725  0.0382  0.2464  0.9721
 8660SOL    HW230538   0.860   1.306   5.790 -1.0227 -0.1917 -0.9017
 8661SOL     OW30539   9.296   6.051  10.820  0.6623 -0.4060  0.0098
 8661SOL    HW130540   9.210   6.010  10.806  0.6263 -0.5187  0.5288
 8661SOL    HW230541   9.285   6.102  10.900  0.7986  0.3854 -0.4712
 8662SOL     OW30542   2.624   0.222   6.169 -0.7478 -0.0533 -0.0410
 8662SOL    HW130543   2.579   0.284   6.111  0.5346  1.5186  0.5437
 8662SOL    HW230544   2.715   0.254   6.170 -0.1698 -1.6564  0.7169
 8663SOL     OW30545   7.578  10.097   0.259 -0.3602 -0.0431 -0.3651
 8663SOL    HW130546   7.489  10.120   0.232 -0.4907  0.1283  0.1939
 8663SOL    HW230547   7.619  10.063   0.180 -0.9499 -0.2053 -0.6094
 8664SOL     OW30548   9.006  10.021   3.979 -0.1813 -0.2813  0.2624
 8664SOL    HW130549   8.963  10.074   3.912 -0.3274  0.4868  0.9461
 8664SOL    HW230550   9.066  10.082   4.023 -1.2066 -0.3524  1.8400
 8665SOL     OW30551   1.207   9.365   8.955 -0.0024  1.1333 -0.3249
 8665SOL    HW130552   1.176   9.398   9.040  1.2146  1.0115  0.1896
 8665SOL    HW230553   1.154   9.287   8.939 -2.4235  2.8323 -1.2017
 8666SOL     OW30554   5.875   1.334  11.221 -0.5336 -0.0131  0.6574
 8666SOL    HW130555   5.895   1.247  11.256 -1.1244  0.2765  1.7594
 8666SOL    HW230556   5.955   1.384  11.234 -0.4907 -0.1369  0.8849
 8667SOL     OW30557   6.216   9.617  11.046  0.2904 -0.4620  0.1184
 8667SOL    HW130558   6.279   9.681  11.012  1.8441  0.2031  3.7750
 8667SOL    HW230559   6.257   9.532  11.030  1.1373 -0.1517  0.5682
 8668SOL     OW30560   6.284  10.056   4.916 -0.0199 -0.1149  0.0095
 8668SOL    HW130561   6.329  10.128   4.960 -1.0797  1.1517 -0.9046
 8668SOL    HW230562   6.223  10.099   4.856 -0.3506 -1.7879 -0.9051
 8669SOL     OW30563   9.261   1.797   7.792 -0.0170 -0.0721 -0.4130
 8669SOL    HW130564   9.244   1.747   7.712  1.0834 -2.4417  0.7275
 8669SOL    HW230565   9.196   1.764   7.854  0.8694 -0.2573  0.4289
 8670SOL     OW30566  10.753  10.674   0.318  0.2222  0.2528  0.2408
 8670SOL    HW130567  10.788  10.630   0.240  2.3973  1.2462  0.5891
 8670SOL    HW230568  10.659  10.655   0.316 -0.2442  1.9565 -3.7815
 8671SOL     OW30569   8.473  11.999  11.493  0.1946  0.0541  0.3294
 8671SOL    HW130570   8.560  12.016  11.455  0.7058 -0.5905  1.1694
 8671SOL    HW230571   8.481  11.912  11.531 -0.5824  0.3172  1.1128
 8672SOL     OW30572  10.179   3.672   5.148 -0.1478 -0.3428  0.1738
 8672SOL    HW130573  10.205   3.705   5.234 -0.5247  0.5638 -0.0501
 8672SOL    HW230574  10.256   3.684   5.093 -0.2768  0.1457  0.0993
 8673SOL     OW30575   2.229  12.084  10.673  0.0060  0.2674  0.6306
 8673SOL    HW130576   2.300  12.148  10.669 -0.4822  0.7856 -2.4857
 8673SOL    HW230577   2.200  12.074  10.582 -1.9477 -2.1681  1.3912
 8674SOL     OW30578   6.926   8.201  10.059  0.4037  0.0939  0.1447
 8674SOL    HW130579   6.850   8.249  10.092 -0.8423 -1.1255 -0.8542
 8674SOL    HW230580   6.889   8.124  10.016  2.2962 -1.2742  0.8721
 8675SOL     OW30581  11.332  11.351   8.651 -0.2541  0.2593  0.4268
 8675SOL    HW130582  11.238  11.338   8.660 -0.2778 -0.0052 -0.2129
 8675SOL    HW230583  11.343  11.394   8.566  0.2651 -0.4256  0.1369
 8676SOL     OW30584   3.637   6.641   3.765 -0.5514 -0.3549  0.0268
 8676SOL    HW130585   3.630   6.732   3.737  0.3015  0.2806  1.7245
 8676SOL    HW230586   3.707   6.604   3.711 -0.5768  0.1296 -0.3414
 8677SOL     OW30587   4.791   5.179   4.721 -0.2591  0.1096  0.7587
 8677SOL    HW130588   4.737   5.134   4.656  0.8419 -0.2855  0.0843
 8677SOL    HW230589   4.780   5.272   4.702  0.2647 -0.0104 -0.1897
 8678SOL     OW30590  10.351  10.138   7.653  0.4693 -0.4606  0.2454
 8678SOL    HW130591  10.397  10.212   7.613 -0.8064 -0.4271 -1.2977
 8678SOL    HW230592  10.263  10.172   7.671  0.9876 -0.4909  3.1809
 8679SOL     OW30593   5.684   1.765   9.146  0.4861 -0.1626  0.1466
 8679SOL    HW130594   5.769   1.778   9.187  1.3924 -0.9058 -1.3966
 8679SOL    HW230595   5.657   1.853   9.119  2.0068 -0.1819 -1.6307
 8680SOL     OW30596   3.420   4.862   4.920  0.0266 -0.0744  0.3279
 8680SOL    HW130597   3.367   4.785   4.902 -0.2514 -0.1395  1.3614
 8680SOL    HW230598   3.507   4.827   4.941  0.1313 -0.0481 -0.0535
 8681SOL     OW30599   3.974  11.976  11.890  0.4721 -0.2500  0.3341
 8681SOL    HW130600   3.944  11.956  11.801  0.6866  1.3671 -0.1327
 8681SOL    HW230601   3.902  12.025  11.930  0.6425 -0.3986  0.8366
 8682SOL     OW30602   7.154   1.401  10.846  0.0644  0.4013 -0.0752
 8682SOL    HW130603   7.165   1.307  10.836 -1.3840  0.0030  1.5158
 8682SOL    HW230604   7.232   1.439  10.805  0.5114 -1.4502 -1.0518
 8683SOL     OW30605  11.179   6.617   3.969 -0.0279 -0.2215  0.1139
 8683SOL    HW130606  11.132   6.602   3.886  0.3021 -2.0179  0.2228
 8683SOL    HW230607  11.139   6.697   4.004 -0.3359  0.4573 -1.6528
 8684SOL     OW30608   0.967  11.241   4.812  0.5623  0.1761  0.1521
 8684SOL    HW130609   0.984  11.237   4.906  0.3780 -1.3865  0.1430
 8684SOL    HW230610   0.875  11.265   4.805  0.3155 -0.6438  0.4165
 8685SOL     OW30611   9.883   6.778  11.848 -0.0681  0.1189 -0.4642
 8685SOL    HW130612   9.910   6.811  11.762 -0.7141 -0.6545 -0.9790
 8685SOL    HW230613   9.791   6.803  11.855  0.3818  1.5456  0.6902
 8686SOL     OW30614   1.622   2.352   0.230  0.1698 -0.4184  0.5712
 8686SOL    HW130615   1.648   2.320   0.143  1.9208  2.6380 -0.2124
 8686SOL    HW230616   1.538   2.394   0.215  0.0370 -0.6877  0.5611
 8687SOL     OW30617   5.325   1.216   6.968  0.5927  0.2652 -1.2012
 8687SOL    HW130618   5.253   1.241   6.910 -0.8910  0.2382  0.5420
 8687SOL    HW230619   5.383   1.292   6.968 -1.9502  2.4277  1.0906
 8688SOL     OW30620   7.380  10.336   9.024 -0.1706 -0.1806 -0.3540
 8688SOL    HW130621   7.308  10.273   9.019 -0.5882  0.1680  0.9039
 8688SOL    HW230622   7.435  10.304   9.095 -1.0294  1.4777  1.1301
 8689SOL     OW30623   5.128   0.317   1.133 -0.0983  0.1250  0.0388
 8689SOL    HW130624   5.091   0.232   1.108  1.8479 -0.6245 -0.4377
 8689SOL    HW230625   5.103   0.327   1.225  0.0648 -1.2028  0.2507
 8690SOL     OW30626   9.746   0.906   1.694  0.3177  0.3030 -0.1172
 8690SOL    HW130627   9.769   0.963   1.620 -0.0120 -0.5187 -0.8815
 8690SOL    HW230628   9.686   0.959   1.747 -0.2257  0.5721 -0.9771
 8691SOL     OW30629   2.345  11.574   5.879 -0.5777  0.3020  0.0058
 8691SOL    HW130630   2.385  11.598   5.963 -1.6540 -0.5097  0.7889
 8691SOL    HW230631   2.300  11.653   5.850  0.2957  0.7604 -0.1101
 8692SOL     OW30632  10.615   5.845  10.278  0.3858 -0.1977  0.4974
 8692SOL    HW130633  10.642   5.823  10.367  0.1375  1.1154  0.9271
 8692SOL    HW230634  10.523   5.870  10.287  0.3747 -0.0007 -0.1152
 8693SOL     OW30635   6.912   7.265   1.792  0.0544  0.1494 -0.2725
 8693SOL    HW130636   6.970   7.277   1.867  1.5289 -0.6132 -1.2294
 8693SOL    HW230637   6.825   7.255   1.829  0.7495 -0.1886  1.3207
 8694SOL     OW30638   5.394   4.559   1.025  0.0076  0.1060 -0.2209
 8694SOL    HW130639   5.482   4.527   1.048 -0.2952 -1.4171 -1.0173
 8694SOL    HW230640   5.400   4.654   1.035  1.9247  0.0972 -0.8409
 8695SOL     OW30641   4.554   9.930   9.384  0.0259  0.5273  0.0355
 8695SOL    HW130642   4.618   9.891   9.323 -0.1302  1.0342 -0.4590
 8695SOL    HW230643   4.550   9.868   9.456  0.9777  0.4127  0.0103
 8696SOL     OW30644   6.950   7.332   9.896  0.2591 -0.1322 -0.6575
 8696SOL    HW130645   6.957   7.270   9.968 -0.0103 -1.0242 -1.3730
 8696SOL    HW230646   7.040   7.344   9.866  0.6835  1.9746  1.1911
 8697SOL     OW30647   1.319  10.144  10.735  0.2999  0.0477  0.7660
 8697SOL    HW130648   1.278  10.220  10.778  1.4678  0.3566  1.3940
 8697SOL    HW230649   1.250  10.106  10.681 -0.1711  1.8953 -0.0123
 8698SOL     OW30650  10.908   6.270   9.480  0.2565  0.0545 -0.5624
 8698SOL    HW130651  10.982   6.271   9.541 -0.6546  0.0141  0.5754
 8698SOL    HW230652  10.887   6.177   9.469 -1.1650  0.1210  1.0980
 8699SOL     OW30653   8.503   0.146  10.494 -0.0528 -0.0162 -0.2472
 8699SOL    HW130654   8.566   0.162  10.564  0.9722 -1.9524 -0.6692
 8699SOL    HW230655   8.476   0.055  10.506 -0.3293 -0.1949 -1.9687
 8700SOL     OW30656   1.152   1.477   4.972 -0.4363  0.1924 -0.5344
 8700SOL    HW130657   1.089   1.478   5.044  2.8234 -1.5683  2.6800
 8700SOL    HW230658   1.109   1.426   4.903 -2.1890 -1.9421  1.9372
 8701SOL     OW30659   9.633  10.263   9.369  0.0048 -0.2700 -0.1473
 8701SOL    HW130660   9.587  10.216   9.299 -1.2241 -2.0741  1.7744
 8701SOL    HW230661   9.654  10.196   9.434  2.2408  1.1334  0.6986
 8702SOL     OW30662  10.852   1.041   5.093 -0.2059  0.6308 -0.1369
 8702SOL    HW130663  10.886   1.102   5.028  0.2178  0.7597  0.1965
 8702SOL    HW230664  10.916   1.044   5.164 -0.2777 -0.0635 -0.0371
 8703SOL     OW30665   8.978   1.229   7.988 -0.4984 -0.0250  0.0646
 8703SOL    HW130666   8.951   1.302   8.045 -0.6637  1.1492 -1.4338
 8703SOL    HW230667   8.901   1.214   7.933 -0.0753 -0.6021 -0.3689
 8704SOL     OW30668   9.194   7.501   2.800 -0.0377 -0.7788  0.5247
 8704SOL    HW130669   9.140   7.462   2.869  1.4987 -0.0283  2.2144
 8704SOL    HW230670   9.273   7.447   2.798  0.4617 -0.0452  0.2090
 8705SOL     OW30671   8.012   5.578   3.844  0.2678  0.2188 -0.5170
 8705SOL    HW130672   8.079   5.510   3.850  1.1873  0.9744 -1.7134
 8705SOL    HW230673   8.061   5.660   3.848 -0.9097  0.9093  2.0710
 8706SOL     OW30674   9.768   1.256   2.298  0.5171 -0.3117  0.3641
 8706SOL    HW130675   9.841   1.195   2.303  1.6268  0.7849 -1.3670
 8706SOL    HW230676   9.690   1.203   2.315  1.3589 -2.4098 -1.8301
 8707SOL     OW30677   4.337   0.361   7.147  0.1089 -0.2543 -0.0326
 8707SOL    HW130678   4.414   0.351   7.092 -0.6942 -1.1601 -1.0389
 8707SOL    HW230679   4.281   0.287   7.123 -0.3979 -0.5174  1.8072
 8708SOL     OW30680   1.271   0.508   2.503 -0.1354  0.1780 -0.4637
 8708SOL    HW130681   1.200   0.535   2.560 -1.1864  0.5590 -1.8858
 8708SOL    HW230682   1.298   0.422   2.535 -2.0915 -0.5457 -0.6368
 8709SOL     OW30683   8.760   2.565  10.317 -0.4224 -0.0841 -0.7069
 8709SOL    HW130684   8.729   2.638  10.371 -0.0950 -0.0160 -0.6094
 8709SOL    HW230685   8.834   2.530  10.365 -0.8175 -0.7371 -0.5604
 8710SOL     OW30686   6.633   3.802   4.987  0.0640 -0.1342  0.2987
 8710SOL    HW130687   6.678   3.719   5.006 -0.6490 -0.5864  0.0689
 8710SOL    HW230688   6.702   3.868   4.991  0.7050 -0.7806  0.1751
 8711SOL     OW30689   7.248   0.827   4.400 -0.2320  0.0607 -0.1417
 8711SOL    HW130690   7.283   0.808   4.313  0.9179  2.0700 -0.1685
 8711SOL    HW230691   7.267   0.748   4.451 -0.0365 -0.7597 -1.4182
 8712SOL     OW30692   8.746  10.161   2.354 -0.2369  0.4104 -0.5705
 8712SOL    HW130693   8.813  10.164   2.422 -0.0485 -0.3710 -0.7113
 8712SOL    HW230694   8.742  10.251   2.321  0.3274  0.5913 -0.1641
 8713SOL     OW30695   2.233   7.743   9.351 -0.0817  0.2219 -0.7181
 8713SOL    HW130696   2.151   7.703   9.380  0.0295  0.2346 -0.3815
 8713SOL    HW230697   2.292   7.734   9.426 -0.0062  0.8821 -0.6861
 8714SOL     OW30698   6.326   2.045   9.796 -0.3772  0.0706 -0.0451
 8714SOL    HW130699   6.243   2.065   9.839 -1.4602 -1.9705 -1.0628
 8714SOL    HW230700   6.315   2.075   9.706 -0.3930 -1.0797 -0.4375
 8715SOL     OW30701   0.638   2.378   4.886 -0.4646 -0.3352  0.1306
 8715SOL    HW130702   0.575   2.365   4.815 -0.7199  0.7756  0.1351
 8715SOL    HW230703   0.626   2.302   4.943 -1.8351 -0.1335  0.1550
 8716SOL     OW30704   2.923   7.384   4.018  0.0473 -0.2033 -0.3976
 8716SOL    HW130705   2.889   7.341   3.940 -1.0057  1.7453 -1.0906
 8716SOL    HW230706   2.866   7.460   4.031  0.3488 -0.3035  2.1355
 8717SOL     OW30707  11.750  10.368  10.178 -0.2614 -0.1175 -0.4754
 8717SOL    HW130708  11.711  10.450  10.150  0.6054  0.0062 -1.3623
 8717SOL    HW230709  11.834  10.364  10.132  0.2946 -0.8782  0.5682
 8718SOL     OW30710  11.849   5.146  11.562 -0.4355  0.6383  0.4672
 8718SOL    HW130711  11.765   5.193  11.569  0.2482  2.2533 -1.1734
 8718SOL    HW230712  11.825   5.058  11.535 -1.6120  1.3831 -1.0843
 8719SOL     OW30713   1.912   4.002  10.133 -0.4970 -0.2219 -0.1743
 8719SOL    HW130714   1.923   4.077  10.192 -1.6405 -0.1018 -0.0743
 8719SOL    HW230715   1.932   4.036  10.046  0.6960 -0.2637  0.0766
 8720SOL     OW30716   6.786   5.546   2.750 -0.4735  0.5548 -0.5624
 8720SOL    HW130717   6.834   5.478   2.703 -1.7258 -0.3813 -0.5463
 8720SOL    HW230718   6.843   5.572   2.822 -0.0441 -0.6004 -0.4809
 8721SOL     OW30719   0.529   4.626   5.505 -0.0869  0.0233  0.3626
 8721SOL    HW130720   0.495   4.591   5.587 -0.1127 -1.5416 -0.2784
 8721SOL    HW230721   0.521   4.554   5.443  1.3998  0.6488 -0.6200
 8722SOL     OW30722   4.604   9.019  11.704 -0.5703 -0.0474 -0.4078
 8722SOL    HW130723   4.568   9.039  11.790 -0.7595  0.5208 -0.6160
 8722SOL    HW230724   4.544   9.061  11.642 -0.7875 -0.9839 -0.8472
 8723SOL     OW30725  10.401   4.331   4.410  0.0757 -0.1281  0.1057
 8723SOL    HW130726  10.390   4.248   4.363  0.1113  0.1878 -0.4691
 8723SOL    HW230727  10.491   4.357   4.391  0.1934 -0.1566  0.6143
 8724SOL     OW30728  11.963   4.886   6.636  0.8448 -0.2392 -0.6777
 8724SOL    HW130729  11.965   4.919   6.726  0.0355 -1.6736 -0.1063
 8724SOL    HW230730  11.871   4.886   6.612  1.1921  2.7934 -2.6054
 8725SOL     OW30731   4.191   7.413   0.981  0.2735 -0.3996 -0.4654
 8725SOL    HW130732   4.260   7.398   1.045 -0.7456 -1.9358  0.3132
 8725SOL    HW230733   4.235   7.456   0.907  1.4710  1.4560  1.2245
 8726SOL     OW30734  12.057   4.002   2.768  0.1944  0.6833 -0.1192
 8726SOL    HW130735  12.091   4.003   2.858  1.5461  1.5989 -0.6125
 8726SOL    HW230736  12.075   4.089   2.735  0.2109  0.1846 -1.4773
 8727SOL     OW30737  10.797   0.796  10.227 -0.1041 -0.3167  0.0989
 8727SOL    HW130738  10.754   0.863  10.174  1.5787 -0.3305 -1.3686
 8727SOL    HW230739  10.836   0.737  10.163 -1.3859 -2.6374  1.3615
 8728SOL     OW30740   9.511   3.513   0.566 -0.0256  0.5149  0.2058
 8728SOL    HW130741   9.465   3.464   0.634  0.3947 -0.1108  0.0519
 8728SOL    HW230742   9.574   3.568   0.614  1.4469 -1.1529  0.2832
 8729SOL     OW30743   8.134   5.451   6.457 -0.5817  0.2172 -0.1763
 8729SOL    HW130744   8.075   5.462   6.383  0.7767  0.8901 -1.2142
 8729SOL    HW230745   8.186   5.532   6.459 -0.0476 -0.1234  1.0290
 8730SOL     OW30746   0.241   7.628   2.941 -0.2736 -0.1985  0.4091
 8730SOL    HW130747   0.333   7.609   2.960  0.0231 -0.1443 -0.8784
 8730SOL    HW230748   0.240   7.722   2.923 -0.7973  0.0248  1.5022
 8731SOL     OW30749   0.605   9.455   0.330 -0.5859 -0.5966 -0.1470
 8731SOL    HW130750   0.688   9.467   0.378  1.0407 -0.9525 -2.6980
 8731SOL    HW230751   0.571   9.371   0.362  1.8196 -2.1655 -1.3814
 8732SOL     OW30752  11.378   8.557   6.690  0.4309  0.3145  0.3221
 8732SOL    HW130753  11.449   8.618   6.667  0.4979  0.2451  0.3419
 8732SOL    HW230754  11.379   8.492   6.620  2.3581 -1.3883  1.8065
 8733SOL     OW30755   2.194   7.796   9.069  0.4144 -0.0269  0.6021
 8733SOL    HW130756   2.101   7.781   9.087  0.3242  0.0639  0.2322
 8733SOL    HW230757   2.232   7.818   9.154 -0.2628  1.7761  0.4970
 8734SOL     OW30758   5.215   4.395   0.614  0.4853  0.4060 -0.2311
 8734SOL    HW130759   5.171   4.361   0.537 -0.8619  1.1041  0.2011
 8734SOL    HW230760   5.282   4.454   0.580  2.0192 -1.6423 -0.9416
 8735SOL     OW30761   8.792   3.623   0.808 -0.7403 -0.0329 -0.2174
 8735SOL    HW130762   8.739   3.688   0.854 -1.8684  0.0853 -1.6486
 8735SOL    HW230763   8.878   3.628   0.851 -1.9726 -0.6129  2.5189
 8736SOL     OW30764   3.183   4.134   5.716  0.1528 -0.2223 -0.6701
 8736SOL    HW130765   3.176   4.065   5.650  0.7611 -1.6995  0.7381
 8736SOL    HW230766   3.197   4.087   5.798 -2.1446  1.4844  0.8004
 8737SOL     OW30767  10.684   8.079   1.302  0.0219 -0.0334  0.3083
 8737SOL    HW130768  10.775   8.094   1.328  0.5221 -1.0482 -0.7621
 8737SOL    HW230769  10.652   8.014   1.364 -0.3858  1.1926  1.4381
 8738SOL     OW30770   3.691   7.406   1.480 -0.6870 -0.5407  0.0620
 8738SOL    HW130771   3.718   7.352   1.554  1.4137 -0.7014 -0.7646
 8738SOL    HW230772   3.694   7.496   1.513 -1.0769 -0.6900  0.5239
 8739SOL     OW30773   3.171   9.673  11.747  0.5948 -1.1247 -0.3470
 8739SOL    HW130774   3.114   9.727  11.691  1.8663  0.2739 -0.3542
 8739SOL    HW230775   3.242   9.646  11.689  1.1072 -0.9757  0.2031
 8740SOL     OW30776   0.255   9.110  11.679  0.0434 -0.1793  0.8568
 8740SOL    HW130777   0.227   9.183  11.624 -0.4850  0.1822  1.6004
 8740SOL    HW230778   0.206   9.034  11.646  0.7396 -0.2640 -0.0454
 8741SOL     OW30779   1.069   8.180   1.491  1.0687  0.1746 -0.1933
 8741SOL    HW130780   1.150   8.134   1.471  0.0406 -1.1437 -1.5069
 8741SOL    HW230781   1.001   8.114   1.482 -0.1895  1.3387  0.5261
 8742SOL     OW30782   6.856   9.611  10.259 -0.2589  0.0111 -0.2132
 8742SOL    HW130783   6.865   9.640  10.350  0.4678  0.1809 -0.3312
 8742SOL    HW230784   6.922   9.662  10.211 -1.8997  1.3040 -1.1723
 8743SOL     OW30785  11.253   0.282   8.384 -0.2200  0.1190 -0.2850
 8743SOL    HW130786  11.314   0.249   8.451 -0.5389 -2.5065 -1.1610
 8743SOL    HW230787  11.183   0.323   8.435  0.3524 -0.3310  0.9220
 8744SOL     OW30788  11.202  12.070   1.186 -0.3139  0.2037 -0.3976
 8744SOL    HW130789  11.257  12.038   1.257 -0.3321  0.5991 -0.2029
 8744SOL    HW230790  11.242  12.034   1.107 -0.5519 -0.6130 -0.1632
 8745SOL     OW30791   2.813   9.935   4.178 -0.0708 -0.2703  0.2878
 8745SOL    HW130792   2.855   9.905   4.258 -0.3709  0.7998  0.8652
 8745SOL    HW230793   2.843  10.025   4.166  0.2171 -0.5076 -0.9812
 8746SOL     OW30794   7.016   9.378   1.976  0.5769 -0.1698  0.5653
 8746SOL    HW130795   6.979   9.327   2.048  1.3925 -0.7062  0.6092
 8746SOL    HW230796   7.067   9.447   2.018 -0.2818  0.5327  0.5023
 8747SOL     OW30797   3.238   2.820   9.567 -0.5729  0.3782 -0.2293
 8747SOL    HW130798   3.262   2.798   9.657 -2.4320  0.7049  0.3911
 8747SOL    HW230799   3.321   2.842   9.525  0.4716 -0.8143  1.0880
 8748SOL     OW30800   0.479   4.660   9.484  0.6251 -0.5292  0.1721
 8748SOL    HW130801   0.392   4.697   9.473 -0.4440 -2.2591  1.9835
 8748SOL    HW230802   0.519   4.663   9.397 -1.0371  0.7324 -0.5937
 8749SOL     OW30803   1.095   6.681   2.065 -0.0309 -0.0739  0.3692
 8749SOL    HW130804   1.136   6.707   1.983  0.7607 -2.2060  0.0188
 8749SOL    HW230805   1.136   6.598   2.087 -0.5223  0.2243  2.7323
 8750SOL     OW30806   8.936   1.165   0.622  0.5240 -0.1785  0.3116
 8750SOL    HW130807   8.915   1.074   0.603  1.1064  0.1668 -2.5188
 8750SOL    HW230808   8.853   1.212   0.612  0.6300 -0.1437 -0.4977
 8751SOL     OW30809   8.401  11.812   5.722  0.2024 -0.0188 -0.1132
 8751SOL    HW130810   8.316  11.769   5.710  0.5580 -0.2693 -2.1971
 8751SOL    HW230811   8.379  11.897   5.759 -1.2487  0.8358 -2.6807
 8752SOL     OW30812   2.951   9.189   8.514  0.3961 -0.3267 -0.6454
 8752SOL    HW130813   2.879   9.248   8.535 -2.4783 -2.3821 -3.6000
 8752SOL    HW230814   3.001   9.236   8.447  0.8458  0.4676  0.2312
 8753SOL     OW30815   8.783  10.211   8.333 -0.5157  0.1237 -0.3212
 8753SOL    HW130816   8.754  10.129   8.294  0.5590 -0.4839  0.1345
 8753SOL    HW230817   8.710  10.271   8.318 -2.2636 -1.4946  1.2590
 8754SOL     OW30818   7.302   7.940   4.783 -0.3997 -0.4443 -0.5847
 8754SOL    HW130819   7.315   8.018   4.836 -1.4545  0.7571 -2.0199
 8754SOL    HW230820   7.246   7.884   4.836 -0.2655  0.1031  0.1522
 8755SOL     OW30821   6.041   5.083   7.824 -0.0766  0.6034  0.4845
 8755SOL    HW130822   6.089   5.166   7.829  1.2116 -0.1754  3.2319
 8755SOL    HW230823   5.951   5.106   7.849 -0.1886  1.4233 -0.5966
 8756SOL     OW30824   4.730   6.297   3.255 -0.3518 -0.4495  0.2179
 8756SOL    HW130825   4.810   6.299   3.202 -1.4444  2.0849 -1.5511
 8756SOL    HW230826   4.762   6.299   3.346  1.5775 -1.0699 -0.3859
 8757SOL     OW30827   5.016   0.571   8.878 -0.5086  0.2447 -0.1739
 8757SOL    HW130828   5.044   0.627   8.806  1.6343 -0.4430  0.0687
 8757SOL    HW230829   5.043   0.618   8.957  1.7895 -1.2524  0.0238
 8758SOL     OW30830   9.126  11.988   1.960 -0.3439 -0.6037  0.5131
 8758SOL    HW130831   9.062  11.989   2.031  0.4571 -0.7689  1.2535
 8758SOL    HW230832   9.206  12.023   1.999  0.4626 -1.8431  0.0419
 8759SOL     OW30833   5.894   0.120   0.946 -0.1459 -0.0320  0.1427
 8759SOL    HW130834   5.957   0.151   0.882  0.7037 -0.9127  0.5238
 8759SOL    HW230835   5.912   0.171   1.025  2.1141 -2.2067  1.1782
 8760SOL     OW30836  11.443  10.309   7.604  0.1678 -0.3994  0.1536
 8760SOL    HW130837  11.531  10.273   7.601 -0.2063 -1.3581  0.2933
 8760SOL    HW230838  11.408  10.280   7.688  0.0171  0.7225  0.4996
 8761SOL     OW30839  10.018  11.904   7.045 -0.1188 -0.0935 -0.2444
 8761SOL    HW130840  10.074  11.981   7.049  0.2821 -0.4081  0.3362
 8761SOL    HW230841  10.071  11.833   7.081 -1.2784 -0.1596  1.4778
 8762SOL     OW30842   4.006   2.287   5.369 -0.6986  0.3170  0.3382
 8762SOL    HW130843   4.079   2.312   5.313 -1.3843  1.3650 -0.1069
 8762SOL    HW230844   3.988   2.365   5.422  0.1114 -0.7230  2.2412
 8763SOL     OW30845   5.315   6.670   6.337 -0.3390  0.1030  0.1364
 8763SOL    HW130846   5.246   6.628   6.285  0.1153 -0.0769 -0.3330
 8763SOL    HW230847   5.323   6.757   6.299 -0.4718  0.2104  0.3506
 8764SOL     OW30848  11.069   2.496   7.046 -0.5521 -0.0786  0.2889
 8764SOL    HW130849  11.151   2.540   7.067 -0.2593 -0.1147 -0.7283
 8764SOL    HW230850  11.001   2.563   7.058 -0.4217 -0.1144  1.3626
 8765SOL     OW30851  11.540   4.493   5.750  0.3409  0.1859  0.3035
 8765SOL    HW130852  11.530   4.573   5.802  1.7790  0.0557  0.8231
 8765SOL    HW230853  11.540   4.524   5.659 -1.6185  0.4703  0.3512
 8766SOL     OW30854   6.516   2.235   7.613 -0.0942 -0.1940 -0.2469
 8766SOL    HW130855   6.605   2.270   7.599  0.3831 -0.9850  0.7441
 8766SOL    HW230856   6.459   2.310   7.597  0.8062  0.5718  0.0263
 8767SOL     OW30857   9.862   8.136   2.312 -0.4405 -0.5219  0.2945
 8767SOL    HW130858   9.956   8.144   2.331 -0.2009 -0.4383 -0.8504
 8767SOL    HW230859   9.856   8.060   2.254 -0.7445  0.9551 -1.7090
 8768SOL     OW30860   3.550   1.684   7.289 -0.2958  0.7053  0.0486
 8768SOL    HW130861   3.530   1.626   7.362  0.0083  0.9766  0.3547
 8768SOL    HW230862   3.609   1.634   7.233 -1.5181  0.0279 -0.6859
 8769SOL     OW30863   0.671   9.483  10.410 -0.4531 -0.2670 -0.6380
 8769SOL    HW130864   0.626   9.443  10.484 -0.6030 -0.9694 -1.1018
 8769SOL    HW230865   0.749   9.523  10.448 -0.7710 -0.2162 -0.0322
 8770SOL     OW30866  10.470  11.962   9.125  0.1288 -0.1527  0.2145
 8770SOL    HW130867  10.452  11.972   9.219  0.7644 -0.1092  0.3369
 8770SOL    HW230868  10.421  11.884   9.099 -1.5704  0.8834  0.1665
 8771SOL     OW30869   6.454   0.658   6.646  0.2551 -0.5391 -0.1055
 8771SOL    HW130870   6.513   0.609   6.588  5.0585  0.2931  3.4525
 8771SOL    HW230871   6.463   0.748   6.618  0.0589 -0.4906 -0.0142
 8772SOL     OW30872   4.296   0.374   8.357  0.3137 -0.0752 -0.0273
 8772SOL    HW130873   4.369   0.315   8.340  1.4768  1.1267  0.5148
 8772SOL    HW230874   4.325   0.426   8.432 -0.7028  1.0798 -0.3937
 8773SOL     OW30875   7.619   9.934   2.030  0.2669 -0.6100  0.2819
 8773SOL    HW130876   7.686   9.967   2.090 -0.4836 -1.5042  1.6548
 8773SOL    HW230877   7.642   9.842   2.017  0.2545 -0.4980 -0.5916
 8774SOL     OW30878   5.936   1.759   2.434  0.3098 -0.2890 -0.1945
 8774SOL    HW130879   5.897   1.747   2.520 -0.0642  1.3523 -0.1020
 8774SOL    HW230880   5.871   1.726   2.373  0.8951 -2.1899  0.1412
 8775SOL     OW30881  11.329   7.368   9.318 -0.0527 -0.3883 -0.3097
 8775SOL    HW130882  11.250   7.422   9.319  0.6280  0.6237 -0.4588
 8775SOL    HW230883  11.322   7.317   9.237 -0.4429 -0.1529 -0.4240
 8776SOL     OW30884   0.850  11.643   8.665 -0.3924 -0.1636  0.1215
 8776SOL    HW130885   0.938  11.674   8.684 -0.0683 -1.6094  1.1845
 8776SOL    HW230886   0.798  11.669   8.742 -1.2371  1.8019 -1.0453
 8777SOL     OW30887   9.268   6.131   7.913 -0.2284 -0.6586 -0.5183
 8777SOL    HW130888   9.272   6.089   7.828 -0.5868  1.1666 -1.4931
 8777SOL    HW230889   9.174   6.142   7.930 -0.1538  0.6147 -0.7860
 8778SOL     OW30890   3.367   2.899   1.494  0.0904 -0.4185  0.0232
 8778SOL    HW130891   3.300   2.865   1.553  0.7567 -0.6097  0.6835
 8778SOL    HW230892   3.443   2.914   1.550  0.8206 -0.8458 -0.8263
 8779SOL     OW30893  10.625  11.408   0.545  0.1543 -0.5047  0.5928
 8779SOL    HW130894  10.539  11.366   0.553  0.1714 -0.7003 -0.1925
 8779SOL    HW230895  10.655  11.386   0.457 -0.4125  2.2327 -0.3914
 8780SOL     OW30896   5.972  11.913   0.077 -0.0351  0.0766 -0.0994
 8780SOL    HW130897   5.960  11.818   0.078 -0.2447  0.1064  0.2827
 8780SOL    HW230898   5.884  11.949   0.086 -0.1235  0.3178 -1.6313
 8781SOL     OW30899   2.041   0.244   4.733 -0.7962 -0.2007  0.0538
 8781SOL    HW130900   2.004   0.196   4.659  0.0339 -0.5755 -0.1344
 8781SOL    HW230901   1.972   0.306   4.758 -0.7109  0.6994 -1.7224
 8782SOL     OW30902   8.104  11.387   1.085  0.1544 -0.0867 -0.5570
 8782SOL    HW130903   8.088  11.466   1.033 -0.6139  0.1710  0.0555
 8782SOL    HW230904   8.147  11.419   1.164 -0.9640 -0.1597  0.0970
 8783SOL     OW30905   3.914  11.389   5.653  0.1746 -0.0840 -0.3474
 8783SOL    HW130906   3.957  11.461   5.699 -0.0192  0.7232 -1.3966
 8783SOL    HW230907   3.834  11.428   5.618  1.4857  0.0531 -3.5133
 8784SOL     OW30908   9.409   9.687   5.355 -0.2261 -0.1147  0.1924
 8784SOL    HW130909   9.443   9.618   5.297 -0.7777 -3.4818  3.4220
 8784SOL    HW230910   9.324   9.655   5.383 -0.8435  2.3077  1.3464
 8785SOL     OW30911   4.706  10.806   4.063  0.5290  0.2691  0.5857
 8785SOL    HW130912   4.772  10.868   4.093  1.0863  0.5393 -1.0848
 8785SOL    HW230913   4.659  10.853   3.994 -0.1065 -0.6240  0.3904
 8786SOL     OW30914   1.134   1.941  11.457 -0.3487 -0.0965 -0.6181
 8786SOL    HW130915   1.174   1.972  11.376  1.0525  0.1064  0.1045
 8786SOL    HW230916   1.206   1.942  11.520 -2.0097  2.8335  1.4985
 8787SOL     OW30917   5.292   0.717   7.885 -0.4946  0.2966 -0.0572
 8787SOL    HW130918   5.204   0.699   7.851 -0.6304  0.9729 -0.0733
 8787SOL    HW230919   5.277   0.767   7.965 -0.1160  0.9524 -0.3862
 8788SOL     OW30920   7.031  10.041   0.167  0.3080  0.3357  0.0819
 8788SOL    HW130921   6.986   9.974   0.115  2.7155  0.2888 -2.1465
 8788SOL    HW230922   7.012  10.123   0.123 -1.6730  1.0918  2.1353
 8789SOL     OW30923   2.256   3.825  10.837 -0.0123 -0.2250 -0.1292
 8789SOL    HW130924   2.194   3.773  10.786  0.2754  0.0596 -0.7776
 8789SOL    HW230925   2.335   3.771  10.839  0.0620 -0.1193 -0.2096
 8790SOL     OW30926   1.823   7.217  10.307  0.0771  0.0207 -0.1170
 8790SOL    HW130927   1.905   7.242  10.265 -0.2079 -0.5848 -1.0602
 8790SOL    HW230928   1.803   7.131  10.271 -1.5026  0.5947 -0.7188
 8791SOL     OW30929   0.578   3.630  11.110  0.1062  0.0556  0.2848
 8791SOL    HW130930   0.570   3.700  11.044 -0.6381  2.5163  2.7756
 8791SOL    HW230931   0.488   3.608  11.132  0.2980  0.5948  1.7102
 8792SOL     OW30932   1.324  11.800   3.340  0.1446  0.4798 -0.3510
 8792SOL    HW130933   1.274  11.787   3.259  0.6369  1.2317 -0.7823
 8792SOL    HW230934   1.320  11.715   3.384  0.1926 -0.0487 -1.3416
 8793SOL     OW30935   3.339  11.040   2.523 -0.3114  0.3300  0.5241
 8793SOL    HW130936   3.407  11.104   2.500  0.8745 -0.2897  2.0777
 8793SOL    HW230937   3.388  10.963   2.551 -1.6975 -0.6116  0.4380
 8794SOL     OW30938   8.499   5.849   6.253 -0.0940  0.9382 -0.5982
 8794SOL    HW130939   8.578   5.843   6.199  0.0540 -0.9238 -0.2365
 8794SOL    HW230940   8.505   5.934   6.296  2.9065 -0.0490  1.1922
 8795SOL     OW30941  11.384   7.189   1.806 -0.0637 -0.7876  0.0909
 8795SOL    HW130942  11.395   7.127   1.734 -0.8677 -1.3370  0.4373
 8795SOL    HW230943  11.420   7.145   1.882  2.2084  0.3833 -0.2135
 8796SOL     OW30944   7.982  10.111   0.404 -0.1667 -0.3405 -0.0971
 8796SOL    HW130945   8.034  10.051   0.351 -0.0477  1.4625 -2.1777
 8796SOL    HW230946   8.046  10.173   0.439 -0.4442 -0.6043  0.9282
 8797SOL     OW30947  10.207   0.022   4.864  0.1340 -0.7060 -0.1459
 8797SOL    HW130948  10.222  -0.018   4.949  0.8560  0.2447  0.1954
 8797SOL    HW230949  10.270   0.095   4.860 -0.7904  0.0826 -0.9363
 8798SOL     OW30950   7.083   8.766  10.638 -0.5215 -0.5346  0.4010
 8798SOL    HW130951   7.011   8.715  10.674 -0.0759 -1.9606 -0.6625
 8798SOL    HW230952   7.141   8.702  10.597  0.1460  0.8056 -0.8646
 8799SOL     OW30953  11.358   7.202  11.255  0.4747  0.4750  0.3521
 8799SOL    HW130954  11.326   7.289  11.281  1.6935  0.5643  1.7161
 8799SOL    HW230955  11.336   7.146  11.329  0.5563 -0.1743 -0.1087
 8800SOL     OW30956   6.361   7.028   5.677  0.2691 -0.0012  0.1896
 8800SOL    HW130957   6.288   7.001   5.622 -0.2022 -2.0952  1.6952
 8800SOL    HW230958   6.335   7.114   5.710 -0.6336  0.1182 -0.7639
 8801SOL     OW30959   7.751   8.166   3.881  0.0290 -0.3002 -0.3988
 8801SOL    HW130960   7.675   8.199   3.831 -0.2740 -2.5902 -1.5839
 8801SOL    HW230961   7.807   8.127   3.814  1.7315  0.3130  0.6217
 8802SOL     OW30962  10.548   0.962   0.464 -0.2267 -0.3569 -0.8370
 8802SOL    HW130963  10.552   0.883   0.410 -1.7102 -1.2346  0.2711
 8802SOL    HW230964  10.461   0.998   0.447  0.0356  0.4515 -0.5130
 8803SOL     OW30965   3.230   1.497   6.069  0.3134  0.1538  0.4193
 8803SOL    HW130966   3.158   1.489   6.006  1.0717 -0.6306 -0.3779
 8803SOL    HW230967   3.309   1.495   6.014  0.9947 -0.6730  1.4008
 8804SOL     OW30968   4.483   8.608   1.808 -0.5185 -0.8112  0.9066
 8804SOL    HW130969   4.555   8.648   1.758 -0.3671  0.9027  2.3936
 8804SOL    HW230970   4.495   8.514   1.794 -0.4238 -0.4712 -2.1324
 8805SOL     OW30971   9.695   6.253  11.007  0.2375  0.2644  0.0566
 8805SOL    HW130972   9.778   6.293  10.982 -0.4655  1.5940 -0.2641
 8805SOL    HW230973   9.705   6.233  11.100 -0.3070  3.8334  1.0303
 8806SOL     OW30974   5.676  10.869   1.646  0.3602 -0.8082 -0.1464
 8806SOL    HW130975   5.737  10.836   1.581 -0.2835 -2.0960 -0.1134
 8806SOL    HW230976   5.636  10.791   1.684 -1.2969 -0.0145 -0.1583
 8807SOL     OW30977   2.042  12.118   5.987 -0.7379  0.3438 -0.4025
 8807SOL    HW130978   2.137  12.103   5.984 -0.5489  1.5548 -2.3006
 8807SOL    HW230979   2.008  12.045   6.038  0.8687 -2.0778 -2.5641
 8808SOL     OW30980  11.738   2.586   6.799  0.6402  0.0066  0.0161
 8808SOL    HW130981  11.736   2.593   6.703  0.2542  0.0760  0.0303
 8808SOL    HW230982  11.657   2.627   6.828 -0.1149 -1.6036  0.2820
 8809SOL     OW30983   8.410  11.932   7.405  0.0018 -0.1592  0.1735
 8809SOL    HW130984   8.329  11.981   7.418 -0.0926 -0.0028 -0.9169
 8809SOL    HW230985   8.384  11.840   7.406  0.1191 -0.2095  1.8091
 8810SOL     OW30986   6.476   9.269   5.734  0.1588  0.4028 -0.0159
 8810SOL    HW130987   6.399   9.262   5.678 -0.1426 -1.3831  0.5667
 8810SOL    HW230988   6.547   9.292   5.675 -0.4363  0.0331 -0.8910
 8811SOL     OW30989   6.708  10.850   6.944 -0.1472  0.1417  0.0790
 8811SOL    HW130990   6.765  10.817   6.874 -0.1693 -1.2887  0.6875
 8811SOL    HW230991   6.620  10.824   6.917  0.1418 -4.0693  2.3715
 8812SOL     OW30992   2.506   3.836   6.414 -0.1430 -0.1109 -0.1723
 8812SOL    HW130993   2.601   3.834   6.401 -0.1357  0.3231 -0.2029
 8812SOL    HW230994   2.483   3.928   6.404 -0.4002 -0.0393  0.9725
 8813SOL     OW30995   0.563   7.690   2.643  0.2664 -0.0684 -0.3724
 8813SOL    HW130996   0.657   7.706   2.645  0.5824 -1.7936 -0.0140
 8813SOL    HW230997   0.534   7.726   2.559  1.8970 -2.5702 -2.1530
 8814SOL     OW30998   4.395   8.031   3.749 -0.3972  0.4410  0.0347
 8814SOL    HW130999   4.470   8.081   3.717 -0.5188  0.6660  0.1048
 8814SOL    HW231000   4.372   8.072   3.833  0.6188 -0.8372  0.9787
 8815SOL     OW31001   1.257   8.983   7.158 -0.0036  0.0381 -0.2592
 8815SOL    HW131002   1.259   8.916   7.089  0.6053 -0.6803  0.4213
 8815SOL    HW231003   1.195   9.048   7.127  2.0183  0.9938 -2.6434
 8816SOL     OW31004   2.403   9.322   4.201 -0.5869 -0.0061 -0.2329
 8816SOL    HW131005   2.410   9.292   4.111 -0.7523  0.6780 -0.4768
 8816SOL    HW231006   2.320   9.369   4.205 -0.8234 -0.4588  0.4068
 8817SOL     OW31007   8.054   2.865  10.133  0.5222 -0.2271 -0.2778
 8817SOL    HW131008   8.120   2.798  10.115 -1.9871 -3.2384  0.7280
 8817SOL    HW231009   8.009   2.876  10.049 -0.1806 -1.1956 -0.0444
 8818SOL     OW31010   4.743   5.939   7.944 -0.1124  0.3121  0.5199
 8818SOL    HW131011   4.767   5.932   8.036 -1.6143 -1.7724  0.8298
 8818SOL    HW231012   4.805   6.002   7.907  2.5591 -1.1165  2.2499
 8819SOL     OW31013   9.532   7.700   0.045 -0.0850  0.2215 -0.1988
 8819SOL    HW131014   9.535   7.604   0.050 -0.1287  0.1498 -1.2738
 8819SOL    HW231015   9.472   7.718  -0.027 -0.7726  1.0897  0.5685
 8820SOL     OW31016   4.892   9.973   7.103  0.0580 -0.2906  0.2511
 8820SOL    HW131017   4.955  10.023   7.050  0.1312 -0.8752 -0.2295
 8820SOL    HW231018   4.815  10.029   7.107  0.3956  0.1783  0.3387
 8821SOL     OW31019   8.502   2.341   4.609  0.7735 -0.6987  0.5645
 8821SOL    HW131020   8.406   2.339   4.604  0.5938  1.7725  1.5393
 8821SOL    HW231021   8.530   2.262   4.562 -1.7366 -1.9003  0.8935
 8822SOL     OW31022   8.531   7.111   7.591 -0.0211  0.2116 -0.5699
 8822SOL    HW131023   8.469   7.144   7.526  0.3473  1.3187 -0.3858
 8822SOL    HW231024   8.506   7.154   7.673  0.5342  0.1076 -0.3382
 8823SOL     OW31025   6.654   9.853   4.392 -0.1585  0.3616  0.5114
 8823SOL    HW131026   6.718   9.901   4.339 -1.2016 -0.9884 -2.1516
 8823SOL    HW231027   6.703   9.825   4.470  2.2307  0.1784 -0.9582
 8824SOL     OW31028   3.875   7.998   1.710  0.2419  0.1779 -0.2727
 8824SOL    HW131029   3.824   7.919   1.688 -0.2545  0.4493 -0.1086
 8824SOL    HW231030   3.873   8.050   1.630 -1.5103  1.1358  0.3476
 8825SOL     OW31031  11.557   5.189  11.586  0.3520  0.2317 -0.3690
 8825SOL    HW131032  11.566   5.258  11.653  2.5965 -1.2903  1.0357
 8825SOL    HW231033  11.463   5.182  11.571 -0.1087  1.8026  1.3882
 8826SOL     OW31034   4.070   0.358   1.811  0.2287  1.1561 -0.0619
 8826SOL    HW131035   4.095   0.339   1.901 -1.0298  3.1482  0.7865
 8826SOL    HW231036   4.143   0.326   1.758  0.4481 -1.2128  1.5078
 8827SOL     OW31037   0.279  10.942   6.623 -0.1581  0.3012 -0.0813
 8827SOL    HW131038   0.340  10.900   6.684  1.1557  1.3376 -0.6001
 8827SOL    HW231039   0.235  10.870   6.578  0.5321 -0.4892  0.4868
 8828SOL     OW31040   6.060  10.884   9.220  0.0969 -0.0500 -0.7146
 8828SOL    HW131041   5.985  10.915   9.169  0.3975  1.9731 -0.0304
 8828SOL    HW231042   6.134  10.934   9.186  0.4483  0.7327  1.1088
 8829SOL     OW31043   6.290   0.116   5.131 -0.0352  0.3107 -0.1955
 8829SOL    HW131044   6.336   0.149   5.208 -0.2753 -0.5321  0.3187
 8829SOL    HW231045   6.212   0.171   5.124 -1.8550 -1.7648  2.2517
 8830SOL     OW31046   1.576   4.952   5.190  0.2925  0.2298 -0.4816
 8830SOL    HW131047   1.539   4.864   5.188  0.2972  0.1370  1.3618
 8830SOL    HW231048   1.500   5.010   5.194  0.2914  0.1785  0.4975
 8831SOL     OW31049   5.914  11.010   8.795 -0.0263  0.6154  0.4759
 8831SOL    HW131050   5.866  10.929   8.779  0.5150  0.2535  0.6608
 8831SOL    HW231051   5.876  11.073   8.734 -0.2759  0.1499  0.1482
 8832SOL     OW31052   4.680   0.161   0.126  0.3135 -0.2128 -0.0243
 8832SOL    HW131053   4.619   0.133   0.194  0.4761 -1.2594 -0.2951
 8832SOL    HW231054   4.762   0.178   0.173  0.1350  0.1000  0.1797
 8833SOL     OW31055   5.039   2.178   1.619  0.9381  0.7403  0.2804
 8833SOL    HW131056   5.074   2.227   1.544  2.0251  1.0415  0.9516
 8833SOL    HW231057   5.013   2.246   1.682  0.9428  0.4837  0.5626
 8834SOL     OW31058   5.644   1.177   9.512  0.5698  0.4574  0.0750
 8834SOL    HW131059   5.573   1.118   9.539  1.1433 -0.2068  0.1830
 8834SOL    HW231060   5.600   1.257   9.484 -0.2137  0.0951  0.2393
 8835SOL     OW31061  10.226  11.141   8.108  0.0067  0.0969  0.5548
 8835SOL    HW131062  10.250  11.231   8.130 -0.1166  0.6870 -1.5274
 8835SOL    HW231063  10.193  11.104   8.190  1.3700  1.4900  1.7852
 8836SOL     OW31064   9.887  10.927   5.672 -0.2004  0.7908  0.4805
 8836SOL    HW131065   9.893  11.020   5.693 -1.8437  1.1922 -0.6412
 8836SOL    HW231066   9.818  10.894   5.729  0.7577  0.1008  1.2761
 8837SOL     OW31067   0.081   3.152   9.658 -0.5465  0.3986 -0.4225
 8837SOL    HW131068   0.173   3.172   9.679 -0.3490  1.4978 -2.1532
 8837SOL    HW231069   0.085   3.067   9.614 -0.1141  1.1408 -1.8944
 8838SOL     OW31070   0.685   0.276   7.792  0.1083 -0.0971  0.0584
 8838SOL    HW131071   0.743   0.350   7.803  1.6419 -0.7647 -2.5988
 8838SOL    HW231072   0.742   0.199   7.801 -0.7276 -0.8246 -0.6224
 8839SOL     OW31073   2.796   6.164   5.876  0.4931 -0.0294 -0.1483
 8839SOL    HW131074   2.838   6.249   5.886  1.5239 -0.6313  0.7238
 8839SOL    HW231075   2.749   6.171   5.793  0.2623  1.5069  0.0861
 8840SOL     OW31076  11.493   4.593   3.405  0.3372 -0.1123  0.1360
 8840SOL    HW131077  11.573   4.550   3.376 -0.0190 -0.5566 -0.2065
 8840SOL    HW231078  11.448   4.526   3.457 -0.4357 -0.3054 -0.7745
 8841SOL     OW31079   2.380   8.966   8.599 -0.3621 -0.6304  0.1065
 8841SOL    HW131080   2.406   8.885   8.554 -0.1714  0.8155 -2.5683
 8841SOL    HW231081   2.445   8.976   8.669  0.7574 -1.8033 -0.7042
 8842SOL     OW31082  10.673   1.526   8.893  0.3816  0.3310  0.3109
 8842SOL    HW131083  10.588   1.499   8.858  0.7810  1.3569 -1.6093
 8842SOL    HW231084  10.693   1.607   8.847  2.2660  0.2805  0.9491
 8843SOL     OW31085   6.749  11.521   1.648  0.2061 -0.4985  0.5140
 8843SOL    HW131086   6.751  11.499   1.741  0.4020  0.4275  0.7399
 8843SOL    HW231087   6.744  11.617   1.646  2.7182 -0.3002 -0.4302
 8844SOL     OW31088   2.912   5.483   3.941 -0.3874  0.1260  0.0057
 8844SOL    HW131089   2.959   5.497   3.860 -0.3305  0.0564  0.0263
 8844SOL    HW231090   2.866   5.565   3.957 -0.6458  0.0355 -0.2591
 8845SOL     OW31091   0.390   1.223   0.551  0.5415  0.3368  0.1629
 8845SOL    HW131092   0.381   1.183   0.638 -0.4025  0.3301  0.0669
 8845SOL    HW231093   0.387   1.317   0.568  1.2690  0.3559  0.2262
 8846SOL     OW31094   6.276   4.862  10.736  0.9405  0.5758  0.2879
 8846SOL    HW131095   6.320   4.779  10.755  0.2346  0.2581  0.5675
 8846SOL    HW231096   6.190   4.853  10.775  0.1470  0.6987 -1.3613
 8847SOL     OW31097  10.618   6.286   1.347  0.0823  0.3935  0.1656
 8847SOL    HW131098  10.554   6.227   1.306 -1.3542  0.5777  1.9792
 8847SOL    HW231099  10.648   6.342   1.275  0.8383 -1.9026 -1.4393
 8848SOL     OW31100   1.335   4.268   1.442  0.2828 -0.8952  0.3964
 8848SOL    HW131101   1.295   4.244   1.526 -0.7136 -0.0138  0.1989
 8848SOL    HW231102   1.401   4.333   1.465 -0.9843  0.4349  0.3815
 8849SOL     OW31103   4.014   4.057   4.578  0.0193 -0.3273 -0.2175
 8849SOL    HW131104   4.020   4.042   4.672 -0.6225  0.7073  0.0178
 8849SOL    HW231105   4.084   4.120   4.559  1.4726 -2.0614 -0.8313
 8850SOL     OW31106   9.343   5.581   5.629  0.6016 -0.2448  0.0574
 8850SOL    HW131107   9.404   5.524   5.676 -0.2407  1.1206  3.0171
 8850SOL    HW231108   9.263   5.529   5.621  0.7873 -0.5306  0.0318
 8851SOL     OW31109   7.016   9.160   7.167  0.3829  1.2095  0.3934
 8851SOL    HW131110   7.026   9.109   7.246 -0.7929  1.0115  0.4298
 8851SOL    HW231111   6.921   9.170   7.156  0.4092 -0.4620 -2.0534
 8852SOL     OW31112   5.499  11.710  10.311 -0.4951  0.4247 -0.3609
 8852SOL    HW131113   5.471  11.619  10.313  0.1451  0.1791 -1.6743
 8852SOL    HW231114   5.485  11.738  10.220  0.1192  1.3684 -0.1802
 8853SOL     OW31115   0.664   9.781  11.490 -0.2896 -0.1590  0.1347
 8853SOL    HW131116   0.754   9.786  11.523  0.0351 -0.7830 -0.6379
 8853SOL    HW231117   0.648   9.867  11.450 -0.1564  0.0684  0.5617
 8854SOL     OW31118   3.980   7.477   2.511  0.1396 -0.3827  0.0090
 8854SOL    HW131119   3.934   7.468   2.427 -0.5719 -0.7675  0.4384
 8854SOL    HW231120   4.006   7.388   2.533  0.9826 -0.1856 -0.1606
 8855SOL     OW31121  11.751   7.713   3.909  0.4039  0.0374 -0.2909
 8855SOL    HW131122  11.675   7.733   3.963  0.7594  0.9700 -0.1110
 8855SOL    HW231123  11.714   7.682   3.826 -0.1735  0.3046 -0.1363
 8856SOL     OW31124   9.516   6.742   9.124  0.1951  0.2835 -0.4428
 8856SOL    HW131125   9.507   6.781   9.036 -0.1238  1.0087 -0.1029
 8856SOL    HW231126   9.496   6.814   9.183  0.9550 -0.0561  0.2417
 8857SOL     OW31127   1.840   1.617   7.591 -0.0271  0.1673 -0.1660
 8857SOL    HW131128   1.786   1.693   7.614  0.8183  1.2153 -1.4483
 8857SOL    HW231129   1.777   1.549   7.568 -0.8226 -0.0516  2.4476
 8858SOL     OW31130  11.592   0.127   0.305 -0.3423 -0.2796  0.6353
 8858SOL    HW131131  11.577   0.082   0.222 -0.7202 -0.4962  0.8215
 8858SOL    HW231132  11.684   0.155   0.301 -0.9959  1.9318 -0.9447
 8859SOL     OW31133   1.153   8.521   9.120  0.1347  0.7992 -0.1968
 8859SOL    HW131134   1.173   8.609   9.087  1.0318  0.8951  0.5503
 8859SOL    HW231135   1.238   8.479   9.128 -0.2082  0.1973  0.3683
 8860SOL     OW31136  10.945   7.884   8.181  0.0850 -0.2441  0.1502
 8860SOL    HW131137  10.941   7.833   8.100 -2.1119 -1.4386  0.9019
 8860SOL    HW231138  10.976   7.822   8.247 -0.4868  0.0085  0.6673
 8861SOL     OW31139   2.478   8.880  10.165 -0.6900 -0.2916 -0.0347
 8861SOL    HW131140   2.470   8.919  10.252 -3.2734  0.8710 -0.7039
 8861SOL    HW231141   2.572   8.865  10.154 -0.3070 -0.6750  3.0035
 8862SOL     OW31142   8.360   0.980  10.533 -0.7255 -0.4211  0.6823
 8862SOL    HW131143   8.451   0.955  10.516 -0.7003 -0.4938  0.9286
 8862SOL    HW231144   8.311   0.939  10.461 -0.7982 -1.9376  1.5479
 8863SOL     OW31145   8.613   6.912   2.661 -0.1221  0.6295 -0.1217
 8863SOL    HW131146   8.705   6.927   2.684 -0.0941 -0.5129  0.6069
 8863SOL    HW231147   8.563   6.960   2.727 -0.0305 -0.9296  1.1421
 8864SOL     OW31148   5.942  10.417   3.497  0.2967 -0.1115  0.1980
 8864SOL    HW131149   5.923  10.478   3.426  2.0127  2.1584  1.5463
 8864SOL    HW231150   5.934  10.469   3.577  2.1640 -1.5128  1.4077
 8865SOL     OW31151   2.174   4.133   9.563  0.1514 -0.2904 -0.1658
 8865SOL    HW131152   2.177   4.193   9.637  3.0962  0.2090 -0.5693
 8865SOL    HW231153   2.213   4.182   9.490 -0.7600 -1.4763 -1.5311
 8866SOL     OW31154  12.000   9.025  11.395 -0.4512  0.0116  0.2241
 8866SOL    HW131155  12.072   9.007  11.334 -1.1498 -0.9693 -0.3446
 8866SOL    HW231156  11.984   8.941  11.438 -0.1601  0.6183  1.5912
 8867SOL     OW31157   0.957   9.553   0.176  0.2587  0.1624  0.2011
 8867SOL    HW131158   0.955   9.561   0.080 -0.5246 -0.0143  0.2023
 8867SOL    HW231159   0.933   9.641   0.207 -0.4254 -0.0291  0.2283
 8868SOL     OW31160   3.755  11.633   6.376  0.2140  0.0157  0.4910
 8868SOL    HW131161   3.848  11.634   6.354  0.2791  1.6044  0.7323
 8868SOL    HW231162   3.714  11.582   6.306  1.1962 -0.2806  0.1143
 8869SOL     OW31163   0.503  12.029   7.902  0.3902 -0.1830  0.6242
 8869SOL    HW131164   0.555  11.974   7.961 -0.9327 -1.5462  0.6006
 8869SOL    HW231165   0.462  11.967   7.841  2.1517  1.2239 -2.1705
 8870SOL     OW31166   8.801   9.480   7.531 -0.2382 -0.0670 -0.5421
 8870SOL    HW131167   8.890   9.445   7.534 -0.4865 -0.6737  0.0886
 8870SOL    HW231168   8.761   9.436   7.456 -0.3689 -0.6966 -0.1057
 8871SOL     OW31169   1.606  11.852  11.588  0.5419  0.0981 -0.4154
 8871SOL    HW131170   1.515  11.852  11.558  0.5585  1.2434 -0.5295
 8871SOL    HW231171   1.657  11.829  11.510  0.4622  1.3232 -0.8568
 8872SOL     OW31172   9.144   8.890   1.860 -0.0886  0.4101  0.0443
 8872SOL    HW131173   9.154   8.938   1.778 -1.3462 -1.4943 -1.2915
 8872SOL    HW231174   9.224   8.837   1.867  0.8702  1.8893  1.0541
 8873SOL     OW31175   0.454   3.687  10.028  0.1113  0.4296 -0.1594
 8873SOL    HW131176   0.439   3.751   9.959 -1.7863  1.3593  1.0301
 8873SOL    HW231177   0.514   3.731  10.089 -1.6422  1.4014  0.9540
 8874SOL     OW31178   8.690   8.878  10.006  0.3222  0.2430  0.6520
 8874SOL    HW131179   8.759   8.933   9.968 -0.8366  0.7451 -0.8124
 8874SOL    HW231180   8.614   8.935  10.011 -0.3060 -0.6256  1.2037
 8875SOL     OW31181   0.212  11.334   7.595 -0.1464 -0.2631  0.3529
 8875SOL    HW131182   0.232  11.284   7.516  1.3735  1.0561 -0.1483
 8875SOL    HW231183   0.227  11.273   7.667 -0.9255 -1.2859 -0.3198
 8876SOL     OW31184   6.837  10.933   6.395 -1.0427  0.0612 -0.1971
 8876SOL    HW131185   6.773  10.868   6.424 -1.4921  0.4167 -0.3727
 8876SOL    HW231186   6.785  11.000   6.350 -0.9302  1.7986  2.0643
 8877SOL     OW31187   2.833   6.795   8.736 -0.1670  0.2077  0.1643
 8877SOL    HW131188   2.768   6.786   8.807 -0.3869  0.6762  0.0256
 8877SOL    HW231189   2.817   6.719   8.680  0.0499 -0.2039  0.6485
 8878SOL     OW31190   2.197   6.893   9.829 -0.1923 -0.1087 -0.0415
 8878SOL    HW131191   2.205   6.962   9.763 -0.3434 -2.5410 -2.7951
 8878SOL    HW231192   2.223   6.813   9.784  2.7446 -1.6266  3.7261
 8879SOL     OW31193   1.981   4.543   3.884 -0.4493  0.8404  0.1801
 8879SOL    HW131194   2.067   4.518   3.852 -1.6869 -0.7980 -2.2114
 8879SOL    HW231195   1.950   4.466   3.933 -1.2183  0.7240 -0.4730
 8880SOL     OW31196   1.740  10.737   5.689 -0.3838 -0.0419 -0.0846
 8880SOL    HW131197   1.772  10.647   5.686 -1.0748 -0.3275  0.8791
 8880SOL    HW231198   1.779  10.774   5.768 -0.4507  0.3911 -0.2467
 8881SOL     OW31199   4.948   0.417   9.670  0.3336  0.4399 -0.0437
 8881SOL    HW131200   4.976   0.386   9.756 -1.2160 -0.5034  0.1603
 8881SOL    HW231201   4.865   0.371   9.654  0.4459  0.8178 -1.9144
 8882SOL     OW31202   6.428  11.560  10.617 -0.3554 -0.7430  0.3544
 8882SOL    HW131203   6.336  11.534  10.627 -0.6197 -0.3470 -0.8974
 8882SOL    HW231204   6.424  11.646  10.575  0.5984 -1.0621 -0.4120
 8883SOL     OW31205   1.557   0.132   3.689  0.5250 -0.5281 -0.2843
 8883SOL    HW131206   1.518   0.209   3.648  0.6209  0.0917  0.7363
 8883SOL    HW231207   1.503   0.058   3.660 -1.4131  0.2828  1.0202
 8884SOL     OW31208  11.240   0.558  10.350 -0.2542 -0.3921 -0.3323
 8884SOL    HW131209  11.212   0.650  10.358 -1.2564 -0.5517 -1.7133
 8884SOL    HW231210  11.191   0.524  10.276 -0.0470 -2.1283  0.2799
 8885SOL     OW31211  10.800   2.653   7.386  0.7277  0.3055  0.2369
 8885SOL    HW131212  10.730   2.640   7.322 -0.0463  1.3170  0.8322
 8885SOL    HW231213  10.792   2.578   7.446  0.5130  0.1236 -0.0175
 8886SOL     OW31214   2.427   9.463   4.847 -0.1616  0.0719  0.3361
 8886SOL    HW131215   2.333   9.447   4.835  0.3362 -2.2879 -1.0856
 8886SOL    HW231216   2.469   9.388   4.805  2.3495  0.4765  1.9481
 8887SOL     OW31217   9.413   0.980   1.016  0.4106  0.2945  0.4913
 8887SOL    HW131218   9.341   1.006   1.073 -1.8418 -1.0618 -1.5506
 8887SOL    HW231219   9.397   0.887   0.998  1.4509  0.4695 -1.6700
 8888SOL     OW31220   5.484   0.908  11.776 -0.5437 -0.4530  0.1880
 8888SOL    HW131221   5.436   0.901  11.859 -1.0530  0.9554  0.0529
 8888SOL    HW231222   5.574   0.887  11.799 -0.9529 -1.7152  0.7496
 8889SOL     OW31223   3.294  10.727   1.514  0.1193  0.1018 -0.3817
 8889SOL    HW131224   3.286  10.750   1.421  0.0543 -1.6371 -0.8349
 8889SOL    HW231225   3.229  10.782   1.558  0.1614  0.9612 -1.3413
 8890SOL     OW31226  10.532   9.738   5.835 -0.1443 -0.0282  0.0112
 8890SOL    HW131227  10.481   9.817   5.854 -0.3809  0.1474 -1.2459
 8890SOL    HW231228  10.550   9.700   5.920 -1.2516  0.6238  0.5592
 8891SOL     OW31229   0.812   7.830   2.606  0.0579  0.2116 -0.0534
 8891SOL    HW131230   0.837   7.749   2.562  0.6119  0.1705  0.3248
 8891SOL    HW231231   0.816   7.896   2.536  0.8312  0.1278 -0.1017
 8892SOL     OW31232  11.490   7.326   2.451  0.2908 -0.7692  0.0000
 8892SOL    HW131233  11.542   7.344   2.373 -0.1097  0.7161  0.0588
 8892SOL    HW231234  11.549   7.343   2.524  0.0863 -0.2626  0.0485
 8893SOL     OW31235   3.027   3.841   9.078 -0.1264  0.4211 -0.5135
 8893SOL    HW131236   2.973   3.860   9.001  0.9185 -1.1679 -1.7140
 8893SOL    HW231237   3.112   3.816   9.042  0.1114 -1.3025  1.0888
 8894SOL     OW31238   9.051   6.103   7.586 -0.2802 -0.0678  0.3219
 8894SOL    HW131239   9.036   6.047   7.662  0.3238  0.8701  1.1580
 8894SOL    HW231240   9.042   6.045   7.511 -0.2502 -1.1495  1.1393
 8895SOL     OW31241  10.043   2.483   6.964  0.1980 -0.3295 -0.4882
 8895SOL    HW131242  10.032   2.570   7.003  1.4420 -0.4231  0.1392
 8895SOL    HW231243  10.091   2.498   6.883  1.8398 -0.5083  0.3811
 8896SOL     OW31244   9.527  10.755   6.026 -0.3941 -0.0491 -0.0758
 8896SOL    HW131245   9.499  10.836   5.985 -0.8940  0.4230  1.1510
 8896SOL    HW231246   9.583  10.713   5.961  1.1573  1.9990 -0.1617
 8897SOL     OW31247   9.821   3.263   2.646 -0.6849  1.1391 -0.2210
 8897SOL    HW131248   9.753   3.209   2.687 -0.4380  1.0055  0.0148
 8897SOL    HW231249   9.852   3.209   2.573  0.0821  0.6381  0.4640
 8898SOL     OW31250  11.484   9.734   1.340  0.2567  0.7077  0.0379
 8898SOL    HW131251  11.500   9.811   1.394 -1.8910 -0.3659  2.4025
 8898SOL    HW231252  11.393   9.744   1.311  0.9071  0.5153 -2.2508
 8899SOL     OW31253   4.025   4.030   5.187 -0.2544 -0.0910  0.0564
 8899SOL    HW131254   3.979   4.114   5.179  0.1564  0.0507 -0.9196
 8899SOL    HW231255   3.960   3.971   5.226 -0.4187  0.7771  1.1545
 8900SOL     OW31256   5.611   2.543   8.632  0.0200 -0.8224  0.0964
 8900SOL    HW131257   5.635   2.624   8.677  3.3603 -0.8921 -1.2286
 8900SOL    HW231258   5.661   2.475   8.677 -0.0420 -1.5836 -0.9428
 8901SOL     OW31259  11.803  10.335   0.912 -0.3071 -0.1192  0.2655
 8901SOL    HW131260  11.792  10.335   0.817 -1.8755 -2.7844  0.3440
 8901SOL    HW231261  11.881  10.282   0.927  0.4915  1.0740  0.4856
 8902SOL     OW31262   2.407   8.586   2.165  0.3681  0.1601  0.1359
 8902SOL    HW131263   2.464   8.659   2.142  1.2633 -0.4572  0.3407
 8902SOL    HW231264   2.396   8.538   2.082 -1.6107  1.4363 -0.3947
 8903SOL     OW31265   4.297   9.630   5.134 -0.4086  0.0563  0.7914
 8903SOL    HW131266   4.309   9.576   5.212 -0.7693 -0.4922  0.4739
 8903SOL    HW231267   4.222   9.591   5.090  0.8347 -0.7214 -0.7336
 8904SOL     OW31268   5.666   8.884   1.627 -0.1666  0.3673  0.0290
 8904SOL    HW131269   5.641   8.957   1.683  3.2239  0.5936  1.5296
 8904SOL    HW231270   5.695   8.924   1.546 -0.9174  0.4309 -0.2102
 8905SOL     OW31271  11.711   9.431   8.888  0.0271 -0.2807  0.3918
 8905SOL    HW131272  11.654   9.506   8.873  1.0170  0.4854  0.3005
 8905SOL    HW231273  11.754   9.451   8.971  0.4952 -0.6080  0.2304
 8906SOL     OW31274   4.627  12.044   7.869  0.1380  0.3803  0.6295
 8906SOL    HW131275   4.664  12.131   7.854  2.7795 -0.6524  0.5264
 8906SOL    HW231276   4.633  12.000   7.784 -0.1328 -0.2526  0.9298
 8907SOL     OW31277  10.305   2.961  11.525 -0.2234  0.2684  0.6425
 8907SOL    HW131278  10.288   2.867  11.529  1.1063 -0.0099  0.1584
 8907SOL    HW231279  10.360   2.973  11.447 -0.4433  1.4588  0.6430
 8908SOL     OW31280   7.971   4.616  10.997 -0.0008  0.2193 -0.2523
 8908SOL    HW131281   7.929   4.698  11.027 -1.1922 -0.9421  1.4801
 8908SOL    HW231282   8.033   4.644  10.931  0.9500  2.7620  1.5413
 8909SOL     OW31283   2.987   7.407   5.095  0.1754  0.1784  0.3867
 8909SOL    HW131284   3.049   7.420   5.023 -0.8107 -1.9448 -0.9509
 8909SOL    HW231285   3.028   7.340   5.150 -0.7641 -1.0733 -0.3859
 8910SOL     OW31286   8.525   4.148   0.523  0.4465 -0.0255 -0.1460
 8910SOL    HW131287   8.517   4.056   0.549 -2.1994 -0.1071 -0.9450
 8910SOL    HW231288   8.451   4.192   0.566  1.8715  1.8440  0.5334
 8911SOL     OW31289   3.373   9.996   3.192  0.4978 -0.2459 -0.4744
 8911SOL    HW131290   3.410  10.064   3.136  1.1283  0.4424  0.7350
 8911SOL    HW231291   3.447   9.964   3.243  0.2788 -2.0868 -1.2090
 8912SOL     OW31292   3.991  11.363   6.642  0.1572  0.6434  0.1830
 8912SOL    HW131293   4.014  11.297   6.576  1.0966  1.7208 -0.6133
 8912SOL    HW231294   3.985  11.314   6.724  0.4967 -0.4866 -0.4450
 8913SOL     OW31295   7.283   0.812   5.680 -0.4761 -0.7253 -0.7034
 8913SOL    HW131296   7.340   0.742   5.711  2.2237  1.1748 -1.0416
 8913SOL    HW231297   7.198   0.793   5.720  0.4153 -3.5457  0.0768
 8914SOL     OW31298   9.910   3.578   6.027 -0.4806  0.0715  0.3065
 8914SOL    HW131299   9.839   3.572   5.963  0.2348  0.1778 -0.5197
 8914SOL    HW231300   9.867   3.608   6.107 -1.4325 -0.2783 -0.0530
 8915SOL     OW31301   8.706   6.311   9.514 -0.3807 -0.2218 -0.3361
 8915SOL    HW131302   8.744   6.259   9.443 -0.7508 -0.1250 -0.6096
 8915SOL    HW231303   8.689   6.248   9.584  2.1311  0.0246  0.5921
 8916SOL     OW31304   3.219   7.717   5.284  0.1158  0.6740  0.0873
 8916SOL    HW131305   3.134   7.701   5.325  0.2514 -0.6295 -0.1078
 8916SOL    HW231306   3.241   7.806   5.310 -2.2205  1.8189 -1.4834
 8917SOL     OW31307   7.286   8.666   5.515 -0.1528  0.6120  0.5007
 8917SOL    HW131308   7.275   8.626   5.601  0.1751 -2.4030 -0.7212
 8917SOL    HW231309   7.341   8.604   5.467  0.1948  2.4995 -1.6909
 8918SOL     OW31310   8.942   1.941   9.872 -0.8082  0.4623 -0.8158
 8918SOL    HW131311   8.888   2.005   9.918 -0.4760  0.6164 -0.6403
 8918SOL    HW231312   9.026   1.985   9.859 -0.2301 -0.2790  0.2133
 8919SOL     OW31313  11.399  11.255   3.887  0.1415 -0.3463 -0.0047
 8919SOL    HW131314  11.384  11.161   3.881 -1.2927 -0.1671  0.2884
 8919SOL    HW231315  11.466  11.264   3.955 -0.8060 -1.1047  1.0889
 8920SOL     OW31316   9.246   6.633   4.723 -0.0422  0.2148 -0.2039
 8920SOL    HW131317   9.242   6.698   4.793  0.3660  0.1499 -0.1180
 8920SOL    HW231318   9.228   6.684   4.643  0.9372  0.5722 -0.2158
 8921SOL     OW31319   7.406   2.798   7.691 -0.3956 -0.0534  0.2861
 8921SOL    HW131320   7.462   2.754   7.628 -1.3397 -0.9551  0.0533
 8921SOL    HW231321   7.450   2.786   7.775  0.9715  1.3313 -0.1959
 8922SOL     OW31322   2.347   5.396   8.851 -0.4057  0.1197 -0.3872
 8922SOL    HW131323   2.266   5.346   8.862 -0.2869 -0.1072 -0.5347
 8922SOL    HW231324   2.318   5.485   8.829 -0.6865  0.7984  2.3526
 8923SOL     OW31325   1.423   1.213  11.880 -0.1466 -0.5854 -0.7498
 8923SOL    HW131326   1.370   1.203  11.959  0.6314  0.2574 -0.0990
 8923SOL    HW231327   1.364   1.256  11.818 -0.2803  0.2404 -0.0714
 8924SOL     OW31328   7.073   1.443   0.361 -0.2057  0.3240  0.2123
 8924SOL    HW131329   7.057   1.538   0.358 -1.0169  0.1709 -0.6088
 8924SOL    HW231330   7.128   1.426   0.285  2.0581  0.4824  1.7266
 8925SOL     OW31331  11.299   3.022   3.292  0.7286  0.6253  0.0145
 8925SOL    HW131332  11.242   3.098   3.281  1.4713  1.2531  0.4410
 8925SOL    HW231333  11.294   3.000   3.385 -1.1423 -1.2039 -0.4337
 8926SOL     OW31334   8.244  10.984   3.286 -0.7616  0.4264  1.2031
 8926SOL    HW131335   8.195  10.973   3.368  0.3895  0.5849  1.9327
 8926SOL    HW231336   8.261  11.078   3.281 -1.8549  0.5985  0.1444
 8927SOL     OW31337   4.934   9.853  12.063 -0.3698  0.3686  0.4389
 8927SOL    HW131338   5.019   9.818  12.090 -1.7574 -1.8149  2.3574
 8927SOL    HW231339   4.952   9.897  11.980  2.1714 -2.3811 -0.6767
 8928SOL     OW31340   0.026   1.731   4.995 -0.2294 -0.2001 -0.4357
 8928SOL    HW131341  -0.021   1.814   4.991  0.2332  0.0271 -1.6911
 8928SOL    HW231342   0.026   1.707   5.087 -0.6907  1.0089 -0.1110
 8929SOL     OW31343   1.165   2.237   7.368  0.5450  0.3419  0.0402
 8929SOL    HW131344   1.122   2.164   7.413  1.2986  0.5040  1.0899
 8929SOL    HW231345   1.115   2.315   7.395  0.6205  0.3668  0.1115
 8930SOL     OW31346  11.167   3.696   1.038  0.0542 -0.0176  0.2355
 8930SOL    HW131347  11.096   3.722   0.979 -0.2119 -1.3678 -0.0645
 8930SOL    HW231348  11.150   3.743   1.119 -0.0681  1.1901 -0.4705
 8931SOL     OW31349   6.765   9.028   5.118  0.3434 -0.1455 -0.2677
 8931SOL    HW131350   6.755   8.939   5.152  1.5915 -0.3117 -0.2862
 8931SOL    HW231351   6.859   9.043   5.119  0.1295  1.3066  0.0400
 8932SOL     OW31352   4.801   0.627   4.694 -0.1984  0.1367 -0.7681
 8932SOL    HW131353   4.877   0.570   4.686 -0.0742  0.2624 -0.4711
 8932SOL    HW231354   4.747   0.604   4.618 -0.4516 -0.8281 -0.3189
 8933SOL     OW31355   0.293   7.947   9.314  0.3011 -0.3958 -0.0821
 8933SOL    HW131356   0.361   7.884   9.293  0.4181 -0.1335 -0.5068
 8933SOL    HW231357   0.259   7.975   9.229  1.6538  1.6483 -0.0248
 8934SOL     OW31358   3.835  11.642   4.379  0.0590 -0.7577  0.5137
 8934SOL    HW131359   3.774  11.606   4.315  0.0513  0.8881 -0.4638
 8934SOL    HW231360   3.920  11.603   4.356 -0.2511 -1.4965  0.6002
 8935SOL     OW31361   2.914   6.149   5.119 -0.1727  0.0160 -0.6622
 8935SOL    HW131362   2.908   6.245   5.124  0.4228  0.1192 -1.7446
 8935SOL    HW231363   2.823   6.120   5.116 -0.3581  0.5525 -0.4271
 8936SOL     OW31364   3.128  10.041   9.098 -0.4807  0.7410 -0.2590
 8936SOL    HW131365   3.111  10.059   9.005  0.5956 -0.2913 -0.6821
 8936SOL    HW231366   3.211  10.085   9.115  0.2775 -0.6236 -0.3078
 8937SOL     OW31367  10.857   4.469  11.918  0.5260 -0.0345  0.3445
 8937SOL    HW131368  10.811   4.394  11.955  0.4936  0.6047  1.6569
 8937SOL    HW231369  10.881   4.442  11.829 -0.8320 -1.0182  0.2529
 8938SOL     OW31370   9.577  10.168   0.032  0.6379  0.2869 -0.0392
 8938SOL    HW131371   9.590  10.087   0.080  1.6547  0.3595 -0.1705
 8938SOL    HW231372   9.576  10.141  -0.060 -1.4141  0.1312 -0.0311
 8939SOL     OW31373   3.910   1.794   6.463 -0.1837  0.2580  0.0800
 8939SOL    HW131374   3.852   1.834   6.528  1.1539  0.6193  1.0863
 8939SOL    HW231375   3.978   1.860   6.449 -0.5995  0.3192 -1.9505
 8940SOL     OW31376   2.074  10.294   1.497 -0.0051  0.0933 -0.4961
 8940SOL    HW131377   2.073  10.389   1.513 -2.1238  0.0954 -0.4174
 8940SOL    HW231378   2.029  10.257   1.572  1.0680 -1.0341 -0.3857
 8941SOL     OW31379   9.495   0.776   4.164  0.1143  0.0452 -0.5742
 8941SOL    HW131380   9.548   0.786   4.243 -1.3431  0.1320  0.4084
 8941SOL    HW231381   9.551   0.723   4.106  1.4439  0.4810  0.2512
 8942SOL     OW31382   7.074   4.779   6.346 -0.5127  0.2805  0.3604
 8942SOL    HW131383   7.078   4.705   6.285 -1.2782 -0.8717  1.6226
 8942SOL    HW231384   7.131   4.845   6.308 -0.2194 -0.7585 -1.0987
 8943SOL     OW31385   6.529   5.044  11.543  0.2658  0.3246 -0.1852
 8943SOL    HW131386   6.451   4.990  11.557  0.0756  0.6457  0.0165
 8943SOL    HW231387   6.508   5.099  11.468  0.6851 -0.2860 -0.7653
 8944SOL     OW31388   0.605   2.662   5.227 -0.1749  0.2392  0.0284
 8944SOL    HW131389   0.643   2.700   5.148 -1.0839 -0.2609 -0.6695
 8944SOL    HW231390   0.521   2.626   5.199  0.0317 -1.0571  0.9605
 8945SOL     OW31391   9.982   4.458  10.129 -0.3002 -0.3237  0.0706
 8945SOL    HW131392  10.072   4.437  10.102 -0.6953 -1.0237 -0.7373
 8945SOL    HW231393   9.970   4.409  10.210 -0.1415 -0.6965 -0.1277
 8946SOL     OW31394   2.140   8.109  10.055  0.0996 -0.3360  0.0960
 8946SOL    HW131395   2.052   8.132  10.027  0.6086  1.9280  0.1191
 8946SOL    HW231396   2.197   8.165  10.002  1.4048 -0.3780  1.4004
 8947SOL     OW31397   7.784   5.096  10.960  0.5280 -0.2518 -0.8464
 8947SOL    HW131398   7.745   5.165  10.906 -0.8921 -0.7903 -0.5452
 8947SOL    HW231399   7.811   5.141  11.040 -0.8218 -0.0981 -0.4510
 8948SOL     OW31400   0.431   9.343   4.314  0.4512  0.2700  0.2735
 8948SOL    HW131401   0.471   9.292   4.243 -1.9642 -1.0061 -0.3030
 8948SOL    HW231402   0.365   9.284   4.351  0.5380  1.4928  2.5470
 8949SOL     OW31403  11.753   2.096   9.436 -0.1068 -0.3016  0.0086
 8949SOL    HW131404  11.710   2.050   9.363  1.0462 -0.4946 -0.5743
 8949SOL    HW231405  11.833   2.046   9.452  1.3529  1.5941 -0.8555
 8950SOL     OW31406   0.570   3.753   8.800  0.2807 -0.0475 -1.0105
 8950SOL    HW131407   0.517   3.832   8.806  0.3291 -0.1403  2.2470
 8950SOL    HW231408   0.621   3.764   8.720  0.9987  3.6958 -0.2218
 8951SOL     OW31409  11.109   2.009   9.492  0.0209  0.3571 -0.3456
 8951SOL    HW131410  11.130   1.927   9.447 -0.1399 -0.1751  0.5248
 8951SOL    HW231411  11.018   2.000   9.518  0.9748 -0.8351  3.0694
 8952SOL     OW31412   1.364  10.606   9.902 -0.1358 -0.0852  0.0323
 8952SOL    HW131413   1.336  10.611   9.811 -2.3624 -0.2928  0.6458
 8952SOL    HW231414   1.337  10.519   9.931 -0.1052  0.2359  1.0837
 8953SOL     OW31415   2.319  10.677   4.015 -0.3634 -0.3067  0.0467
 8953SOL    HW131416   2.260  10.624   3.962  0.0577 -1.6359  0.8538
 8953SOL    HW231417   2.405  10.665   3.975 -0.4118  0.5732 -0.3451
 8954SOL     OW31418   7.398  10.459   2.133 -0.1060 -0.1488  0.2414
 8954SOL    HW131419   7.408  10.501   2.047 -2.0181  1.1801  0.6045
 8954SOL    HW231420   7.396  10.532   2.195  0.1152 -1.0205  1.2954
 8955SOL     OW31421   6.731   3.673   2.664 -0.0182  0.4750  0.3252
 8955SOL    HW131422   6.745   3.601   2.725  0.4793  0.5714  0.3309
 8955SOL    HW231423   6.731   3.752   2.718 -0.5633  0.4840  0.3193
 8956SOL     OW31424  10.124   9.161   5.971 -0.0387  0.5473  0.2848
 8956SOL    HW131425  10.208   9.162   5.927 -0.5365  1.6128 -0.6941
 8956SOL    HW231426  10.128   9.234   6.033  0.2548 -0.2717  1.2689
 8957SOL     OW31427  10.116  11.589   7.965  0.0071  0.0304 -0.1136
 8957SOL    HW131428  10.091  11.496   7.962 -0.4906  0.1556  0.0218
 8957SOL    HW231429  10.186  11.597   7.900  1.0500 -0.7345  0.8680
 8958SOL     OW31430   0.166   8.831  10.522  0.1850  0.1562  0.4309
 8958SOL    HW131431   0.167   8.898  10.454 -0.8178  0.2190  0.4688
 8958SOL    HW231432   0.214   8.758  10.483  0.4723  0.5500  0.0323
 8959SOL     OW31433   6.655  11.138  11.774 -0.0344 -0.6800  0.2112
 8959SOL    HW131434   6.702  11.209  11.817 -0.1587 -0.6828  0.3508
 8959SOL    HW231435   6.708  11.060  11.793  1.0340 -0.3845 -1.3708
 8960SOL     OW31436   5.622   7.595  11.639  0.7706 -0.1061  0.4273
 8960SOL    HW131437   5.614   7.583  11.734 -1.3490  1.3315  0.4915
 8960SOL    HW231438   5.607   7.688  11.625  2.9686  0.0721 -1.2068
 8961SOL     OW31439   5.676   8.704   1.148  0.0769  0.0587  0.5949
 8961SOL    HW131440   5.648   8.754   1.071  1.1641 -1.0512 -0.5722
 8961SOL    HW231441   5.596   8.662   1.180 -0.8879  2.5035  1.6522
 8962SOL     OW31442   5.825   5.270   2.726 -0.2066 -0.0995 -0.1624
 8962SOL    HW131443   5.738   5.292   2.692 -1.1852 -2.0584  0.8970
 8962SOL    HW231444   5.849   5.189   2.682 -0.6611 -1.6370  2.2367
 8963SOL     OW31445   3.952  10.557   3.588  0.5992  0.1023  0.1591
 8963SOL    HW131446   4.005  10.564   3.667  0.8599 -1.5498  0.1722
 8963SOL    HW231447   3.876  10.505   3.615  0.5648 -0.2565 -0.6089
 8964SOL     OW31448   8.224   6.281   9.026 -0.2824 -0.0094  0.5050
 8964SOL    HW131449   8.167   6.259   9.099 -0.8218  1.1341  0.4524
 8964SOL    HW231450   8.244   6.197   8.985 -0.9094 -0.5484  1.2704
 8965SOL     OW31451   9.667   5.049  10.892  0.0604 -0.1033  0.6948
 8965SOL    HW131452   9.639   5.082  10.977 -1.0079 -1.7400  1.0103
 8965SOL    HW231453   9.607   5.090  10.829 -0.4409 -0.4472  0.9462
 8966SOL     OW31454   1.419  10.279   8.173 -0.2617 -0.2461  0.0762
 8966SOL    HW131455   1.454  10.343   8.236 -1.5121  0.6302 -0.0975
 8966SOL    HW231456   1.494  10.222   8.154  0.8960  1.1553  0.2319
 8967SOL     OW31457  10.272   7.008   0.552 -0.3501 -0.3720  0.6717
 8967SOL    HW131458  10.193   7.030   0.601  0.1031 -0.5088  1.4879
 8967SOL    HW231459  10.306   7.092   0.522  0.2026 -0.1259  1.9295
 8968SOL     OW31460   0.102   5.537   0.670 -0.2667 -0.3240 -0.0316
 8968SOL    HW131461   0.120   5.464   0.729  0.6921 -0.8503 -0.9473
 8968SOL    HW231462   0.114   5.501   0.582 -2.0699  0.3292 -0.5981
 8969SOL     OW31463   9.180   8.942   8.185 -0.4795  0.0202 -0.2862
 8969SOL    HW131464   9.268   8.954   8.221 -0.5498  0.1749 -0.1666
 8969SOL    HW231465   9.148   9.031   8.169 -0.1582 -0.0498 -1.4386
 8970SOL     OW31466  11.050   0.303   6.709  0.2612  0.1129  0.0844
 8970SOL    HW131467  10.986   0.351   6.656  0.3083  0.3236  0.2187
 8970SOL    HW231468  11.032   0.211   6.690  0.1913  0.1835 -0.1965
 8971SOL     OW31469  10.820   4.176   6.752  0.3365  0.1658  0.3058
 8971SOL    HW131470  10.882   4.136   6.691 -1.4420 -0.9455 -0.8719
 8971SOL    HW231471  10.738   4.179   6.704 -0.8430  0.3898  2.2394
 8972SOL     OW31472   1.858   4.226   2.107 -0.3980 -0.4709  0.0851
 8972SOL    HW131473   1.866   4.188   2.020 -0.5049 -1.4165  0.4712
 8972SOL    HW231474   1.894   4.158   2.166 -0.2348  0.1886  0.7631
 8973SOL     OW31475   6.806   8.628   6.089  0.1940  0.5668 -0.0990
 8973SOL    HW131476   6.749   8.705   6.097  2.5797  2.5027 -0.5034
 8973SOL    HW231477   6.805   8.607   5.995  0.1609  0.6161 -0.1098
 8974SOL     OW31478  11.949   6.020   7.532 -0.2698 -0.1282 -0.0064
 8974SOL    HW131479  11.863   5.983   7.514 -1.1093  0.9316  1.5778
 8974SOL    HW231480  12.010   5.949   7.513 -1.3205 -0.4359 -2.5986
 8975SOL     OW31481   3.050   5.102   4.104  0.0557 -0.0048  0.3979
 8975SOL    HW131482   3.086   5.190   4.092  0.1819  0.0757  1.3092
 8975SOL    HW231483   2.966   5.117   4.148  0.5948 -0.3865  1.6013
 8976SOL     OW31484   4.366   1.083   9.525 -0.0216 -0.0355  0.6302
 8976SOL    HW131485   4.354   1.010   9.464  0.4313  0.6687 -0.3207
 8976SOL    HW231486   4.338   1.048   9.609 -2.6181 -0.4557 -0.2999
 8977SOL     OW31487   0.490  12.085   1.534 -0.7435  0.5814 -0.1589
 8977SOL    HW131488   0.483  11.990   1.535 -3.3582  0.7049  0.8985
 8977SOL    HW231489   0.540  12.105   1.454  0.8911 -1.6724  0.2179
 8978SOL     OW31490  11.951  11.857   1.187 -0.1740  0.0343 -0.5417
 8978SOL    HW131491  12.017  11.899   1.242 -1.4179  0.5208  0.6268
 8978SOL    HW231492  11.996  11.782   1.148  1.0861  0.4123  0.1425
 8979SOL     OW31493   4.103   6.386   8.996  0.0391 -0.1662 -0.1371
 8979SOL    HW131494   4.132   6.334   8.921  1.7968 -0.3570  0.6211
 8979SOL    HW231495   4.038   6.331   9.040  2.0175 -1.9062  0.7748
 8980SOL     OW31496   0.472   1.768   1.941  0.2493 -0.3752 -0.3898
 8980SOL    HW131497   0.521   1.779   1.860 -0.8130  0.4599 -0.9454
 8980SOL    HW231498   0.539   1.762   2.009  1.1514  1.9447 -0.9758
 8981SOL     OW31499  10.757   3.253   6.572  0.0481 -0.0167  0.2536
 8981SOL    HW131500  10.809   3.248   6.493 -0.7336 -1.2669 -0.2226
 8981SOL    HW231501  10.820   3.271   6.642  0.7781  0.8002 -0.6024
 8982SOL     OW31502   8.215   4.788  11.956  0.0909  0.0359 -0.3165
 8982SOL    HW131503   8.159   4.751  12.024  1.7269  0.6372  1.4775
 8982SOL    HW231504   8.216   4.882  11.974  1.4909  0.0644 -0.4007
 8983SOL     OW31505   5.135  10.789   6.608 -0.5405 -0.2277  0.3352
 8983SOL    HW131506   5.132  10.849   6.533  1.1683 -1.0924 -0.5026
 8983SOL    HW231507   5.214  10.813   6.655 -0.9119 -0.5439  1.1371
 8984SOL     OW31508  11.130  10.430   5.081  0.4557  0.3499  0.0022
 8984SOL    HW131509  11.140  10.515   5.125  0.7302 -0.3091  1.2612
 8984SOL    HW231510  11.051  10.392   5.119  0.2564  0.0960 -0.6563
 8985SOL     OW31511   1.313   4.074   9.061  0.1637 -0.2114 -0.3259
 8985SOL    HW131512   1.275   4.109   8.980  0.4107  1.2049  0.1462
 8985SOL    HW231513   1.291   3.981   9.059  2.3878 -0.8194 -3.2765
 8986SOL     OW31514   7.407   3.911   2.918  0.4061 -0.1504 -0.1314
 8986SOL    HW131515   7.492   3.953   2.909  0.2578  0.2620  0.3450
 8986SOL    HW231516   7.386   3.917   3.012  0.9284 -2.3734  0.1859
 8987SOL     OW31517   3.448  10.331  10.840 -0.1453  0.2418  0.3148
 8987SOL    HW131518   3.489  10.289  10.764 -0.8259 -0.0392  0.1000
 8987SOL    HW231519   3.424  10.258  10.898 -2.6691  0.1830 -0.7200
 8988SOL     OW31520   2.277   5.605   9.352  0.8954  0.0569 -0.4461
 8988SOL    HW131521   2.362   5.649   9.350 -0.2549  2.4805 -2.8123
 8988SOL    HW231522   2.217   5.667   9.311 -2.0626 -1.5721  1.0702
 8989SOL     OW31523   1.758  11.462   1.207 -0.4769 -0.2791  0.1529
 8989SOL    HW131524   1.700  11.528   1.166 -0.9760 -1.0197 -0.3593
 8989SOL    HW231525   1.825  11.514   1.251 -1.1155  0.5892  0.1356
 8990SOL     OW31526   7.221   3.760  10.583 -0.3676 -0.2232  0.6614
 8990SOL    HW131527   7.265   3.833  10.625 -0.3440  0.6739 -0.8382
 8990SOL    HW231528   7.129   3.767  10.611 -0.8544  1.7573 -1.1495
 8991SOL     OW31529   8.478   3.904   9.148  0.3602 -0.1313  0.3192
 8991SOL    HW131530   8.399   3.853   9.132 -0.0458  0.9294 -1.1839
 8991SOL    HW231531   8.509   3.929   9.061  1.5536  0.6817  0.9500
 8992SOL     OW31532   6.439  12.060   8.752 -0.6206  0.0282  0.0882
 8992SOL    HW131533   6.443  12.156   8.753  0.5397  0.0973 -2.7554
 8992SOL    HW231534   6.346  12.040   8.741 -0.6343  0.9689 -1.9294
 8993SOL     OW31535   0.901   1.154   0.229  0.7213  0.0401  0.5575
 8993SOL    HW131536   0.977   1.144   0.287  0.1091  1.1581  1.6158
 8993SOL    HW231537   0.856   1.069   0.233  2.0268 -0.7310 -0.3074
 8994SOL     OW31538   9.208   9.593   7.335 -0.3170 -0.1912 -1.0819
 8994SOL    HW131539   9.178   9.684   7.327  3.3825  1.0924 -2.1490
 8994SOL    HW231540   9.206   9.559   7.246  0.5529 -0.3479 -1.0457
 8995SOL     OW31541   4.947   7.383   2.753  0.5056 -0.2490 -0.4728
 8995SOL    HW131542   4.858   7.376   2.719  0.4666 -1.2644 -0.1992
 8995SOL    HW231543   4.981   7.293   2.748  1.7938  0.2603 -1.3275
 8996SOL     OW31544   8.424   0.578   0.525  0.3047  0.5683  0.8379
 8996SOL    HW131545   8.466   0.645   0.472 -0.7754 -0.3914 -1.3823
 8996SOL    HW231546   8.469   0.581   0.609  2.0909  2.1979 -0.1143
 8997SOL     OW31547   0.878   4.703   7.141 -0.4239  0.4268  0.3533
 8997SOL    HW131548   0.886   4.798   7.130 -0.3249  0.3364 -0.3404
 8997SOL    HW231549   0.957   4.666   7.103 -0.7803  0.0194 -0.0068
 8998SOL     OW31550  10.929   3.395   9.113  0.0016  0.0482 -0.7876
 8998SOL    HW131551  10.951   3.303   9.095  1.0120  0.3665 -1.2479
 8998SOL    HW231552  10.864   3.417   9.047  0.0151 -0.2336 -0.8992
 8999SOL     OW31553   4.617   4.652   5.669  0.0853 -0.4448  0.0333
 8999SOL    HW131554   4.617   4.732   5.616  0.4948  0.5557  1.4939
 8999SOL    HW231555   4.684   4.597   5.628 -1.8085 -1.0963 -2.4316
 9000SOL     OW31556   6.502   7.313   5.524  0.1243  0.0697  0.7535
 9000SOL    HW131557   6.552   7.388   5.558 -0.3048  0.7103  0.0193
 9000SOL    HW231558   6.425   7.307   5.582 -0.9263  1.5470 -0.4141
 9001SOL     OW31559   9.323   4.986   3.544  0.0439 -0.0034 -0.2369
 9001SOL    HW131560   9.234   5.021   3.542  0.0515  0.0023 -2.0182
 9001SOL    HW231561   9.376   5.059   3.576  0.0978  1.8694 -4.1072
 9002SOL     OW31562  11.858   8.392  10.204  0.1716 -0.1796  0.2103
 9002SOL    HW131563  11.910   8.462  10.243 -0.9659  0.9568 -0.2483
 9002SOL    HW231564  11.860   8.410  10.110  0.5688 -1.2695 -0.0035
 9003SOL     OW31565   2.593   8.371   8.925 -0.1355 -0.0221 -1.0507
 9003SOL    HW131566   2.672   8.424   8.924 -0.0670 -0.0141  0.8276
 9003SOL    HW231567   2.564   8.373   9.017 -1.3942 -1.3691 -1.3828
 9004SOL     OW31568   8.159   2.168  12.102  0.2419 -0.1554  0.8822
 9004SOL    HW131569   8.160   2.073  12.110  0.6276 -0.1519  0.8762
 9004SOL    HW231570   8.203   2.187  12.019 -1.1851 -0.0384  0.1079
 9005SOL     OW31571   2.413  11.275   0.809 -0.0382  0.0936 -0.1626
 9005SOL    HW131572   2.388  11.364   0.833  0.7719  0.4571 -0.6022
 9005SOL    HW231573   2.330  11.228   0.799 -0.4477  0.6062  0.7694
 9006SOL     OW31574   2.421  10.161   5.869  0.1346  0.2423 -0.0122
 9006SOL    HW131575   2.404  10.177   5.962  1.8702  1.6258  0.1033
 9006SOL    HW231576   2.475  10.082   5.868 -1.1144 -0.6363  0.0249
 9007SOL     OW31577   7.277   3.581   5.099  0.0363 -0.0583 -0.2764
 9007SOL    HW131578   7.286   3.659   5.044 -0.8845  1.3881  1.4913
 9007SOL    HW231579   7.313   3.608   5.184 -1.6230 -1.0750  0.7952
 9008SOL     OW31580   6.311   7.712  10.258 -0.2384  0.1135  0.6644
 9008SOL    HW131581   6.307   7.706  10.354 -0.1605 -0.1641  0.6519
 9008SOL    HW231582   6.318   7.805  10.240  0.1999  0.1399  0.9486
 9009SOL     OW31583   9.127   2.390   8.353 -0.1760  0.0849 -0.0955
 9009SOL    HW131584   9.182   2.355   8.282 -0.5554  1.7211 -1.2576
 9009SOL    HW231585   9.039   2.395   8.315 -0.4739  0.5901  0.6345
 9010SOL     OW31586   3.704   7.688   6.998 -0.0924 -0.0051  0.3989
 9010SOL    HW131587   3.771   7.756   7.008 -1.8348  1.9556 -0.5557
 9010SOL    HW231588   3.625   7.727   7.035 -1.1507 -1.5451 -0.1424
 9011SOL     OW31589   8.078   0.778   7.209 -0.0263  0.0210  0.0048
 9011SOL    HW131590   7.995   0.810   7.243  0.0827 -0.1907  0.4814
 9011SOL    HW231591   8.055   0.699   7.159  0.0140 -0.7413  1.1526
 9012SOL     OW31592   4.569   7.822   4.855  0.3199 -0.4064 -0.1112
 9012SOL    HW131593   4.522   7.863   4.927  0.8008  0.2695 -0.1742
 9012SOL    HW231594   4.506   7.816   4.783 -0.0826 -0.8436  0.2736
 9013SOL     OW31595   6.990   4.302   6.926 -0.2225  0.2486  0.2852
 9013SOL    HW131596   6.922   4.308   6.858  0.6306 -2.9668 -1.0190
 9013SOL    HW231597   6.941   4.287   7.007 -1.1812 -1.1328 -0.5011
 9014SOL     OW31598   5.381   4.395   6.926 -0.1647  0.1974  0.3070
 9014SOL    HW131599   5.426   4.441   6.856  0.2629  1.6722  1.4948
 9014SOL    HW231600   5.446   4.334   6.961  0.0835  0.4834  0.3435
 9015SOL     OW31601   9.698   4.733   9.710 -0.2618 -0.1348 -0.0040
 9015SOL    HW131602   9.760   4.792   9.752  0.6572 -0.5279 -0.7680
 9015SOL    HW231603   9.690   4.659   9.770  1.0932 -0.7262 -0.5248
 9016SOL     OW31604   7.289   6.489   7.516  0.1282  0.5472  0.2074
 9016SOL    HW131605   7.344   6.421   7.554 -0.0564 -0.1742 -0.7872
 9016SOL    HW231606   7.331   6.511   7.432  0.6628  2.2761  0.8681
 9017SOL     OW31607   5.837   6.473   7.707 -0.3641 -0.5052 -0.2074
 9017SOL    HW131608   5.776   6.461   7.634 -0.5441  0.6733 -0.2744
 9017SOL    HW231609   5.921   6.493   7.664 -0.7095  1.2932 -0.1260
 9018SOL     OW31610   0.896   7.220   3.841 -0.1436  0.5058 -0.2546
 9018SOL    HW131611   0.914   7.263   3.757 -0.7283 -0.5079 -0.9182
 9018SOL    HW231612   0.951   7.141   3.839 -0.5166  0.2364  0.1125
 9019SOL     OW31613  11.511   6.667   5.939 -0.6563  0.2354 -0.0426
 9019SOL    HW131614  11.572   6.687   5.868 -1.7284  0.8772 -0.8058
 9019SOL    HW231615  11.567   6.644   6.013  0.5063  0.7553 -0.7387
 9020SOL     OW31616   7.923   0.356   2.401 -0.1825 -0.0284 -0.5313
 9020SOL    HW131617   7.864   0.339   2.474  0.4196 -1.9440 -0.4220
 9020SOL    HW231618   7.879   0.318   2.325  0.5366 -0.7886 -0.5848
 9021SOL     OW31619   3.761   2.454   3.216 -0.5634 -0.2586  0.4920
 9021SOL    HW131620   3.737   2.514   3.287  1.2437  1.8065 -0.5077
 9021SOL    HW231621   3.854   2.436   3.231 -0.6162 -1.2955 -0.3413
 9022SOL     OW31622   7.258   4.468   9.776  0.7758  0.5807  0.5153
 9022SOL    HW131623   7.340   4.421   9.760  1.2666  1.8793 -0.9896
 9022SOL    HW231624   7.196   4.428   9.715  1.0932  1.5578 -0.4853
 9023SOL     OW31625   6.113   0.509   8.580 -0.2723 -0.3043 -0.1603
 9023SOL    HW131626   6.032   0.559   8.571  0.7798  1.3375 -1.0726
 9023SOL    HW231627   6.164   0.556   8.646  1.6211  1.2586 -2.5218
 9024SOL     OW31628   6.816   0.568   0.090  0.0049  0.3903  0.5904
 9024SOL    HW131629   6.826   0.485   0.043 -0.2557 -0.5111  2.0602
 9024SOL    HW231630   6.729   0.599   0.064 -0.7805 -0.8676  1.5944
 9025SOL     OW31631   9.300   7.174   9.397 -0.3328 -0.7655 -0.2380
 9025SOL    HW131632   9.263   7.254   9.359 -0.5047 -1.4381 -1.5620
 9025SOL    HW231633   9.224   7.126   9.428 -0.1179  0.3053  2.1464
 9026SOL     OW31634   3.572   4.219   9.815  0.0490 -0.4556  0.0136
 9026SOL    HW131635   3.578   4.278   9.740 -1.1415  0.7986  0.8485
 9026SOL    HW231636   3.525   4.143   9.783  1.4718 -0.9199 -1.0478
 9027SOL     OW31637   4.717   9.576  11.049 -0.2744  0.1186 -0.1246
 9027SOL    HW131638   4.716   9.509  10.980  0.5109 -0.2875  0.2500
 9027SOL    HW231639   4.740   9.657  11.003 -0.5756  0.0088 -0.4755
 9028SOL     OW31640   4.076   5.502   7.935 -0.2603 -0.1607  0.0260
 9028SOL    HW131641   4.045   5.466   7.852  2.0136 -0.7852 -0.6098
 9028SOL    HW231642   4.098   5.593   7.914  2.0873 -0.8239 -0.5936
 9029SOL     OW31643   4.372   5.800  10.024 -0.2597  0.0835  0.0451
 9029SOL    HW131644   4.374   5.713   9.984 -0.1488 -0.1609  0.5669
 9029SOL    HW231645   4.464   5.827  10.027 -0.4297  1.1466 -2.0453
 9030SOL     OW31646   6.929   6.241   1.416  0.4441 -0.0816 -0.0694
 9030SOL    HW131647   7.017   6.271   1.441  1.1856 -1.3174 -1.0271
 9030SOL    HW231648   6.890   6.315   1.370  0.3038  1.0731  1.8158
 9031SOL     OW31649   4.996   4.742   8.251 -0.6118  0.2239 -0.4161
 9031SOL    HW131650   5.013   4.648   8.248 -1.4621  0.0869 -1.3267
 9031SOL    HW231651   5.076   4.782   8.216 -0.1008 -0.1364  0.3329
 9032SOL     OW31652   0.277   4.457  11.131 -0.3068 -0.2876 -0.6100
 9032SOL    HW131653   0.356   4.479  11.180 -1.7910  0.6714  1.5037
 9032SOL    HW231654   0.262   4.532  11.073 -1.3735  1.0893  1.3406
 9033SOL     OW31655  11.611   1.362  12.050  0.0398 -0.0542 -0.1058
 9033SOL    HW131656  11.582   1.287  12.102 -1.5933 -0.4116 -1.4659
 9033SOL    HW231657  11.674   1.325  11.988 -0.3215 -0.2191 -0.3832
 9034SOL     OW31658   6.600   5.367   5.689 -0.4717  0.0993  0.8316
 9034SOL    HW131659   6.511   5.377   5.655  0.0889 -0.5326 -0.9582
 9034SOL    HW231660   6.626   5.456   5.714 -1.7342  0.2266  1.7739
 9035SOL     OW31661   6.413   3.152   9.452 -0.5321  0.1996  0.0690
 9035SOL    HW131662   6.330   3.176   9.495  0.6459  1.1042  1.9664
 9035SOL    HW231663   6.386   3.117   9.367 -2.9209 -0.4025  0.9867
 9036SOL     OW31664   4.265   5.569   2.443 -1.2019  0.1782  0.5227
 9036SOL    HW131665   4.334   5.533   2.498  0.7267  1.7622 -0.7362
 9036SOL    HW231666   4.235   5.647   2.491 -0.2095  1.0035 -0.1757
 9037SOL     OW31667   9.357   2.735  12.030  0.3922  0.0099 -0.5969
 9037SOL    HW131668   9.337   2.693  12.114 -1.1810 -0.0109 -0.9426
 9037SOL    HW231669   9.451   2.750  12.033  0.5222 -0.8138  0.7916
 9038SOL     OW31670   3.602   7.164   8.478 -0.5055 -0.5602 -0.5778
 9038SOL    HW131671   3.514   7.134   8.455 -0.3733 -1.3073 -0.1287
 9038SOL    HW231672   3.653   7.151   8.398 -0.4230 -1.6452 -0.3525
 9039SOL     OW31673  11.320   7.147   3.775 -0.2854  0.1917  0.3836
 9039SOL    HW131674  11.384   7.193   3.829 -0.8511  1.7369 -0.1994
 9039SOL    HW231675  11.367   7.069   3.743  0.8863  0.6365  0.9503
 9040SOL     OW31676  11.452  10.443   9.226 -0.0792 -0.2170 -0.1020
 9040SOL    HW131677  11.464  10.534   9.251 -2.6513  0.0495  0.4356
 9040SOL    HW231678  11.517  10.427   9.158  1.1347  1.6755  0.5627
 9041SOL     OW31679  12.091   0.467   8.345 -0.1020 -0.2951  0.0447
 9041SOL    HW131680  12.076   0.466   8.251 -1.0038 -2.5292  0.1437
 9041SOL    HW231681  12.099   0.560   8.368 -0.7713  0.3295 -2.0774
 9042SOL     OW31682  12.122  11.131   6.753 -0.6221  0.0205  0.0783
 9042SOL    HW131683  12.129  11.198   6.822  1.3086 -1.0284  0.9813
 9042SOL    HW231684  12.163  11.171   6.677 -0.8008  0.3894  0.1694
 9043SOL     OW31685  10.967   6.540   3.337  0.2608 -0.3592 -0.9555
 9043SOL    HW131686  10.946   6.497   3.420  0.0810  2.6751  0.7499
 9043SOL    HW231687  11.036   6.486   3.298 -0.4724 -2.5243  0.5648
 9044SOL     OW31688   6.002  11.701   3.044 -0.0847  0.0940  0.7192
 9044SOL    HW131689   5.927  11.734   3.093 -1.2211  0.0779 -0.9512
 9044SOL    HW231690   6.039  11.778   3.002 -0.9527 -0.2838 -0.7966
 9045SOL     OW31691   3.681   1.350  10.170  0.7490  0.0228 -0.2394
 9045SOL    HW131692   3.742   1.412  10.131  1.5142 -0.1828  0.6005
 9045SOL    HW231693   3.728   1.314  10.245  0.6849 -2.2620 -1.2158
 9046SOL     OW31694  10.668   6.531   7.844 -0.1369 -0.3391 -0.3849
 9046SOL    HW131695  10.585   6.532   7.796 -1.2782 -0.5017  1.4760
 9046SOL    HW231696  10.684   6.622   7.867 -1.5913 -0.5925  2.0366
 9047SOL     OW31697  10.462   6.306  10.673 -0.2576  0.2556  0.5103
 9047SOL    HW131698  10.538   6.304  10.614 -2.4399 -0.4899 -2.4959
 9047SOL    HW231699  10.452   6.398  10.695 -0.6022  0.9453 -2.1417
 9048SOL     OW31700   1.687   1.107   3.417 -0.1653  1.4654 -0.1517
 9048SOL    HW131701   1.601   1.081   3.449  0.1223 -2.8236 -2.1211
 9048SOL    HW231702   1.669   1.174   3.351 -2.8571 -2.4335 -3.9195
 9049SOL     OW31703   3.912   3.108   9.943  0.4556  0.0352  0.2313
 9049SOL    HW131704   3.872   3.098   9.856  1.9253  0.8912 -0.5653
 9049SOL    HW231705   3.991   3.054   9.940  0.7034  0.3461  0.9195
 9050SOL     OW31706  11.299  11.163   8.385  0.5751  0.4016 -0.8346
 9050SOL    HW131707  11.319  11.130   8.473  1.9478 -0.4080 -1.4150
 9050SOL    HW231708  11.288  11.084   8.332 -0.4259  0.8854 -1.3619
 9051SOL     OW31709   1.169   3.333  11.950 -0.9334 -0.1081 -0.0056
 9051SOL    HW131710   1.246   3.279  11.965 -1.0417 -0.7230 -1.5014
 9051SOL    HW231711   1.201   3.408  11.900 -0.9407  0.7995  1.2977
 9052SOL     OW31712   6.737   6.373   9.182 -0.2164  0.1674 -0.2873
 9052SOL    HW131713   6.717   6.414   9.097  1.8326  1.7896 -0.0602
 9052SOL    HW231714   6.826   6.340   9.172 -0.6451 -1.3778  0.6593
 9053SOL     OW31715   8.874   8.774   5.354  0.5681  0.6645  0.4441
 9053SOL    HW131716   8.818   8.789   5.278  1.4893 -3.8315 -1.4437
 9053SOL    HW231717   8.901   8.862   5.381 -0.1776  2.6080 -4.1701
 9054SOL     OW31718   6.485  11.414   3.207  0.2341  0.0335 -0.3900
 9054SOL    HW131719   6.572  11.450   3.222  0.1486 -0.3580  1.1368
 9054SOL    HW231720   6.432  11.489   3.179  1.3179  0.0548 -2.6108
 9055SOL     OW31721  11.141   7.841   4.195  0.7277 -0.0171  0.0734
 9055SOL    HW131722  11.175   7.851   4.284 -0.7776 -0.7693  0.7746
 9055SOL    HW231723  11.047   7.827   4.208  0.6143 -0.9156 -1.6064
 9056SOL     OW31724   9.339   5.655   1.435 -0.5727 -0.2889  0.3195
 9056SOL    HW131725   9.346   5.560   1.427 -2.7130 -0.6002  1.2987
 9056SOL    HW231726   9.391   5.676   1.513 -2.7586 -1.1914  2.1265
 9057SOL     OW31727   2.405   5.754   2.357  0.5016 -0.2126 -0.1739
 9057SOL    HW131728   2.325   5.762   2.304  0.4455 -3.0175 -0.6911
 9057SOL    HW231729   2.474   5.738   2.293  1.4992  1.8400  0.3023
 9058SOL     OW31730   8.967   5.439  10.140 -0.1041  0.0615  0.0436
 9058SOL    HW131731   8.893   5.384  10.167  0.0928 -0.9331 -1.3565
 9058SOL    HW231732   8.927   5.514  10.096 -0.3062  0.0567  0.2167
 9059SOL     OW31733   6.090   3.191   3.368  0.8154 -0.1447 -0.6780
 9059SOL    HW131734   6.166   3.159   3.320  1.7078  0.2301  0.4195
 9059SOL    HW231735   6.123   3.205   3.457 -0.3792  0.6437 -0.3364
 9060SOL     OW31736   0.288   7.060   0.436 -0.6959 -0.0682 -0.1476
 9060SOL    HW131737   0.277   7.095   0.524  1.3644  1.0481 -0.2573
 9060SOL    HW231738   0.354   6.991   0.446 -1.3794 -0.8016 -0.6331
 9061SOL     OW31739   1.896   0.377   8.289 -0.3547  0.0138 -0.3012
 9061SOL    HW131740   1.985   0.362   8.321 -0.3023  0.1487 -0.3831
 9061SOL    HW231741   1.846   0.398   8.368 -0.6685 -1.6167 -0.0326
 9062SOL     OW31742   7.308  11.597   9.330 -0.0174  0.3556  0.0706
 9062SOL    HW131743   7.294  11.513   9.375 -0.7601  0.7261  0.5456
 9062SOL    HW231744   7.312  11.662   9.400 -1.4346  0.9747 -0.3922
 9063SOL     OW31745  11.950   4.410   4.793  0.1651 -0.4640  0.1162
 9063SOL    HW131746  12.036   4.420   4.753  0.3090 -0.3891  0.4391
 9063SOL    HW231747  11.911   4.497   4.788  0.0993 -0.5018 -0.0450
 9064SOL     OW31748   5.734   7.660   9.856 -0.0644 -0.2126 -0.2766
 9064SOL    HW131749   5.756   7.602   9.928 -1.6877 -2.7505 -1.6778
 9064SOL    HW231750   5.818   7.677   9.813  0.6340 -0.3083  0.9978
 9065SOL     OW31751   0.217   3.504  11.386  0.0370 -0.5709 -0.6536
 9065SOL    HW131752   0.304   3.499  11.347 -0.9919 -0.6044 -3.1333
 9065SOL    HW231753   0.195   3.413  11.406  0.8343 -0.4895  0.7246
 9066SOL     OW31754   0.720   6.905   9.240 -0.4268  0.2379 -1.1948
 9066SOL    HW131755   0.646   6.963   9.258  0.0508  0.5154 -0.0560
 9066SOL    HW231756   0.797   6.962   9.246  0.0009 -0.3794 -0.6661
 9067SOL     OW31757  11.217  10.278   1.068 -0.3566  0.2269  0.4616
 9067SOL    HW131758  11.136  10.306   1.111 -0.3103  1.1912 -0.0460
 9067SOL    HW231759  11.194  10.272   0.975 -0.0922 -0.4575  0.4328
 9068SOL     OW31760   3.967   4.334   4.397  0.0285 -0.4565  0.6546
 9068SOL    HW131761   3.953   4.362   4.488 -1.8770  3.0982 -0.5557
 9068SOL    HW231762   4.021   4.403   4.359  0.0439 -1.4100 -1.1658
 9069SOL     OW31763   9.033   8.502  11.392 -0.0136 -0.0858 -0.1115
 9069SOL    HW131764   9.116   8.544  11.415  0.4742  0.7265 -2.8599
 9069SOL    HW231765   9.007   8.546  11.311 -2.2053 -1.5897 -0.2996
 9070SOL     OW31766   0.816   5.464  10.858 -0.4001 -0.0191 -0.2895
 9070SOL    HW131767   0.770   5.482  10.940  0.4140 -1.8833  0.6446
 9070SOL    HW231768   0.850   5.548  10.829 -2.2227  0.9705  0.3242
 9071SOL     OW31769   3.584  11.206   5.686  0.1541 -0.1434 -0.2585
 9071SOL    HW131770   3.579  11.272   5.616  0.1205 -1.2760 -1.3532
 9071SOL    HW231771   3.624  11.130   5.644  2.5095 -0.0553  1.5922
 9072SOL     OW31772   0.348   8.266   6.013  0.0461  0.0263 -0.5514
 9072SOL    HW131773   0.311   8.179   6.030  0.2221  0.0846  0.1813
 9072SOL    HW231774   0.271   8.322   6.001 -0.1760  0.2524  1.5029
 9073SOL     OW31775   6.401  10.374   5.902 -0.3280 -0.0669 -0.1360
 9073SOL    HW131776   6.449  10.293   5.918 -0.1593  0.0061 -0.2684
 9073SOL    HW231777   6.310  10.353   5.922 -0.3654 -0.4426 -0.6945
 9074SOL     OW31778  11.723   1.336   0.388  0.5122  0.2752 -0.1755
 9074SOL    HW131779  11.777   1.413   0.371  1.3906  0.4754  2.9024
 9074SOL    HW231780  11.747   1.309   0.476 -3.5516 -0.4045  0.9072
 9075SOL     OW31781   9.576  12.071   6.627  0.1857  0.2339  0.3641
 9075SOL    HW131782   9.600  12.051   6.717  0.1137  1.1820  0.6087
 9075SOL    HW231783   9.490  12.030   6.616  0.5273 -0.5257  0.4773
 9076SOL     OW31784   6.759   4.992   1.467  0.4714  0.6339 -0.5005
 9076SOL    HW131785   6.846   4.964   1.436  0.5249 -1.8562  1.5417
 9076SOL    HW231786   6.774   5.019   1.557 -0.8990 -0.2832  0.0343
 9077SOL     OW31787   2.565   6.077   5.297  0.1590 -0.2454 -0.4287
 9077SOL    HW131788   2.540   6.086   5.205 -0.8692 -0.1794 -0.1628
 9077SOL    HW231789   2.491   6.032   5.337  1.2860 -1.7333  0.0608
 9078SOL     OW31790   6.707   4.452   1.854  0.3731 -0.2144 -0.1517
 9078SOL    HW131791   6.616   4.457   1.825  0.2828  0.4138  0.2300
 9078SOL    HW231792   6.752   4.406   1.782 -0.4629 -1.6567  0.2013
 9079SOL     OW31793   2.408   7.332   9.334 -0.5054 -0.3339  0.1349
 9079SOL    HW131794   2.400   7.237   9.330  0.6025 -0.4108 -0.5616
 9079SOL    HW231795   2.413   7.360   9.243  1.7789  0.1290  0.3529
 9080SOL     OW31796   6.731   4.824   6.951  0.1002  0.1609  0.3005
 9080SOL    HW131797   6.767   4.864   7.030  1.3768  0.2854 -0.3154
 9080SOL    HW231798   6.731   4.895   6.886  0.5214 -0.3131 -0.2344
 9081SOL     OW31799  11.910  10.183   8.832  0.1919  0.4363  0.1933
 9081SOL    HW131800  11.945  10.148   8.750 -0.5745 -1.3262  0.5703
 9081SOL    HW231801  11.833  10.130   8.850 -0.2046  1.4227  1.5745
 9082SOL     OW31802   9.991   6.941   9.358  0.4213  0.1327  0.2854
 9082SOL    HW131803   9.896   6.942   9.345  0.4879 -1.5145 -0.6006
 9082SOL    HW231804  10.013   6.848   9.363  2.1012  0.4638 -0.3547
 9083SOL     OW31805   8.911   3.781  11.589 -0.0468  0.6032  0.1127
 9083SOL    HW131806   8.828   3.779  11.637 -0.5481  1.6399 -0.6857
 9083SOL    HW231807   8.889   3.817  11.504  1.6457  3.3951  0.7231
 9084SOL     OW31808   7.541  10.043  11.537 -0.3823  0.0033 -0.8881
 9084SOL    HW131809   7.582   9.972  11.488 -2.5860 -0.4972 -2.1526
 9084SOL    HW231810   7.472  10.001  11.588 -0.7744  1.0661 -0.5100
 9085SOL     OW31811   6.588  11.798   8.702 -0.0070 -0.1053  1.0720
 9085SOL    HW131812   6.556  11.886   8.721 -0.6438 -0.3171  1.0021
 9085SOL    HW231813   6.559  11.780   8.613  0.0612 -0.4106  1.1082
 9086SOL     OW31814   8.574   8.003   3.418  0.4296  0.0782 -0.3960
 9086SOL    HW131815   8.523   8.083   3.405  0.8631  0.9141  2.3950
 9086SOL    HW231816   8.659   8.023   3.380  0.3390  0.7253 -0.2805
 9087SOL     OW31817   3.497  10.110  11.148 -0.1287  0.2720  0.4652
 9087SOL    HW131818   3.499  10.175  11.218  1.5411  0.6652  0.0929
 9087SOL    HW231819   3.584  10.070  11.150 -0.4960 -0.6354 -0.5491
 9088SOL     OW31820   8.269   6.329   3.393 -0.1428 -0.5494  0.3326
 9088SOL    HW131821   8.264   6.298   3.302  0.1538  1.0315 -0.2513
 9088SOL    HW231822   8.360   6.312   3.419 -0.1648 -0.7921  0.2501
 9089SOL     OW31823   8.107   0.583  10.886 -0.4386  0.2846 -0.5571
 9089SOL    HW131824   8.047   0.616  10.953  1.6220  1.3446  0.9129
 9089SOL    HW231825   8.069   0.500  10.857 -3.2323  1.5294 -0.6954
 9090SOL     OW31826   1.298   7.420   7.236 -0.0347 -0.5180 -0.1349
 9090SOL    HW131827   1.365   7.487   7.247  0.3681 -1.0129  0.4915
 9090SOL    HW231828   1.337   7.355   7.177 -0.7596  0.2197 -1.4876
 9091SOL     OW31829  11.159   4.199   2.057 -0.5165  0.6180  0.2578
 9091SOL    HW131830  11.083   4.150   2.088 -0.6544  1.7014  1.7413
 9091SOL    HW231831  11.213   4.212   2.135  0.9158  0.3987 -0.6541
 9092SOL     OW31832   7.431   6.613  11.009  0.0704 -0.0176  0.3069
 9092SOL    HW131833   7.359   6.570  10.961 -0.1263  1.2140 -0.5537
 9092SOL    HW231834   7.395   6.697  11.036  0.7102 -0.0319  1.2458
 9093SOL     OW31835  11.613   8.325   7.666  0.2286  0.7593  0.0901
 9093SOL    HW131836  11.554   8.369   7.605  0.5731  0.6531 -0.3155
 9093SOL    HW231837  11.557   8.303   7.741 -0.2087  0.8067 -0.2226
 9094SOL     OW31838   5.299  11.019   7.075  0.4424 -0.6103  0.7644
 9094SOL    HW131839   5.232  10.966   7.031 -0.5518  0.3508  1.0846
 9094SOL    HW231840   5.373  10.958   7.087  0.0584 -1.4022 -0.5654
 9095SOL     OW31841   5.020   8.111  11.273 -0.1439  0.2745  0.1506
 9095SOL    HW131842   4.981   8.075  11.352  1.5172  0.3082  1.0252
 9095SOL    HW231843   4.947   8.151  11.226 -0.9457  1.7298  2.4767
 9096SOL     OW31844   2.553  11.351   4.711  0.3822  0.0881 -0.1968
 9096SOL    HW131845   2.509  11.270   4.737  1.5417 -0.2432  0.8181
 9096SOL    HW231846   2.621  11.364   4.777  1.4111  0.9081 -1.3796
 9097SOL     OW31847   6.237   0.474   9.327 -0.6627  0.0063  0.4810
 9097SOL    HW131848   6.165   0.465   9.264 -0.5715 -0.9745  0.5074
 9097SOL    HW231849   6.315   0.487   9.273 -0.5718 -0.9142  0.3648
 9098SOL     OW31850   6.738   4.906   2.344 -0.5852  0.2891 -0.2353
 9098SOL    HW131851   6.697   4.884   2.260 -1.3629  0.3475  0.1226
 9098SOL    HW231852   6.677   4.874   2.410 -0.4602  1.1419  0.3066
 9099SOL     OW31853   6.604   8.751   9.576 -0.3321 -0.0904 -0.5377
 9099SOL    HW131854   6.669   8.788   9.635 -0.7799  1.9215 -1.2338
 9099SOL    HW231855   6.641   8.666   9.550  0.8836 -0.0427  0.8791
 9100SOL     OW31856  11.473   9.679   9.192  0.1080  0.2275  0.5139
 9100SOL    HW131857  11.478   9.758   9.245  1.8003  0.7844 -0.3952
 9100SOL    HW231858  11.505   9.609   9.249  1.0496  0.6608  0.5224
 9101SOL     OW31859   9.822   4.301   0.609  0.0615 -0.2591  0.2002
 9101SOL    HW131860   9.789   4.211   0.604  0.4793 -0.3689 -0.7077
 9101SOL    HW231861   9.863   4.317   0.524 -0.9314  1.1534 -0.0474
 9102SOL     OW31862   8.652   5.317   9.404 -0.2820 -0.0454 -0.5356
 9102SOL    HW131863   8.698   5.313   9.320  1.9024 -0.2103  0.6086
 9102SOL    HW231864   8.718   5.292   9.469 -1.8470  0.2982  1.2639
 9103SOL     OW31865   5.262   0.093   3.488 -0.1486 -0.6501 -0.0911
 9103SOL    HW131866   5.217   0.008   3.484 -0.0130 -0.9819  2.9845
 9103SOL    HW231867   5.348   0.072   3.523  0.0389  0.6991  0.2880
 9104SOL     OW31868   9.867   5.831   9.482 -0.3798 -0.1528  0.4004
 9104SOL    HW131869   9.776   5.858   9.473 -0.2295  1.0987  2.2516
 9104SOL    HW231870   9.862   5.739   9.506 -1.1891  0.0295  0.9874
 9105SOL     OW31871   0.226   8.077  10.358 -0.4721  0.3752  0.3596
 9105SOL    HW131872   0.233   7.989  10.393  0.0202  0.2611 -0.0063
 9105SOL    HW231873   0.132   8.094  10.352 -0.6040 -0.7670 -1.1528
 9106SOL     OW31874   3.316   3.520   9.493 -0.3577  0.4054 -0.5809
 9106SOL    HW131875   3.352   3.605   9.520  0.0190  0.4950 -1.3544
 9106SOL    HW231876   3.262   3.541   9.417 -0.7066  0.0261 -0.4384
 9107SOL     OW31877  11.606   1.470   0.736  0.0829  0.4848  0.1676
 9107SOL    HW131878  11.595   1.481   0.830  0.5254  0.0834  0.2667
 9107SOL    HW231879  11.664   1.395   0.726 -1.1066 -0.3827 -0.4641
 9108SOL     OW31880   0.620   9.546   0.635  0.2519 -0.0621  0.1195
 9108SOL    HW131881   0.696   9.521   0.687 -0.0867 -0.4657  0.4244
 9108SOL    HW231882   0.656   9.562   0.547  0.5962 -0.9232  0.0875
 9109SOL     OW31883   3.395   4.777   3.346  0.2264  0.3640  0.2669
 9109SOL    HW131884   3.448   4.739   3.276 -0.5904  0.1521 -0.2503
 9109SOL    HW231885   3.390   4.709   3.413 -2.8473 -1.3481 -1.4645
 9110SOL     OW31886   3.786   9.623   4.286  0.3546 -0.0367  0.4609
 9110SOL    HW131887   3.860   9.565   4.300  0.4042  0.1017  0.7785
 9110SOL    HW231888   3.764   9.612   4.193  1.5319  0.8218  0.0485
 9111SOL     OW31889   4.453   0.117   5.788  0.0169  0.1109  0.4743
 9111SOL    HW131890   4.532   0.168   5.806 -0.8479  1.4875  0.4435
 9111SOL    HW231891   4.381   0.168   5.826 -1.0886 -0.1277 -1.1824
 9112SOL     OW31892   1.176   7.136   7.076 -0.0919  0.2090  0.4426
 9112SOL    HW131893   1.222   7.052   7.071  0.0910  0.0895  2.7450
 9112SOL    HW231894   1.130   7.133   7.160 -1.9417  1.5238 -0.4587
 9113SOL     OW31895   6.561   3.533  11.174  0.1443  0.3747 -0.6883
 9113SOL    HW131896   6.495   3.580  11.122 -0.0566  0.0968 -0.6912
 9113SOL    HW231897   6.637   3.528  11.117  0.8275  2.3140 -0.0236
 9114SOL     OW31898   5.923  11.531   1.502 -0.3802  0.3113 -0.5440
 9114SOL    HW131899   5.845  11.484   1.472 -0.7754  1.3048 -1.1017
 9114SOL    HW231900   5.957  11.477   1.573 -0.7297 -0.9103 -1.2737
 9115SOL     OW31901   1.805   2.313   2.042 -0.0865 -0.0104 -0.0339
 9115SOL    HW131902   1.823   2.290   2.134 -1.7677 -1.2608  0.0328
 9115SOL    HW231903   1.885   2.354   2.012  0.9156 -0.5805  1.6823
 9116SOL     OW31904  10.216   5.742   9.405 -0.0510  0.5629  0.1578
 9116SOL    HW131905  10.288   5.752   9.343 -0.6173  2.2944 -0.2761
 9116SOL    HW231906  10.138   5.729   9.350 -0.4058  1.0861  0.5237
 9117SOL     OW31907   6.791   5.831   9.672  0.1279 -0.3866  0.0911
 9117SOL    HW131908   6.873   5.828   9.624  0.6931  1.6259  0.8741
 9117SOL    HW231909   6.738   5.896   9.626 -0.3018 -0.2859  0.7206
 9118SOL     OW31910   4.850  10.463  11.081 -0.4320 -0.2731 -0.3038
 9118SOL    HW131911   4.836  10.479  10.988  1.3078 -2.6696 -1.0632
 9118SOL    HW231912   4.778  10.404  11.106  0.4441 -1.5793 -0.7784
 9119SOL     OW31913   2.123   1.011   4.086  0.0708  0.0112 -0.1110
 9119SOL    HW131914   2.182   1.034   4.159  0.3951 -1.4689  0.1184
 9119SOL    HW231915   2.065   0.945   4.123  0.6990 -1.2837 -1.3884
 9120SOL     OW31916   6.623   9.534   9.585 -0.1492 -0.3628  0.0780
 9120SOL    HW131917   6.717   9.536   9.603 -0.1992 -0.1581  0.3283
 9120SOL    HW231918   6.598   9.443   9.596  0.4905 -0.9437 -2.4889
 9121SOL     OW31919   9.024   1.419   4.362 -0.8799  0.0948  0.2264
 9121SOL    HW131920   9.093   1.467   4.317 -0.9187 -0.6750 -0.6992
 9121SOL    HW231921   9.000   1.349   4.301 -2.6116  0.4598  0.4496
 9122SOL     OW31922   5.879   8.315   3.863  0.5519 -0.2510 -0.0396
 9122SOL    HW131923   5.814   8.359   3.808  0.5254  0.2160  0.3622
 9122SOL    HW231924   5.934   8.386   3.897  2.0259 -0.7169 -1.3288
 9123SOL     OW31925   6.061   7.142  11.239  0.0293 -0.2433 -0.4478
 9123SOL    HW131926   6.007   7.175  11.311 -0.9374  1.3639 -1.8354
 9123SOL    HW231927   6.135   7.203  11.235 -0.2918  0.1069 -1.2423
 9124SOL     OW31928   0.498   4.950   4.124  0.7764  0.2541 -0.2459
 9124SOL    HW131929   0.495   4.989   4.211 -0.1495  1.4098 -0.7614
 9124SOL    HW231930   0.564   5.000   4.077  0.4623  0.4070 -0.5366
 9125SOL     OW31931   0.959  11.568   4.122  0.0457 -0.5398 -0.2506
 9125SOL    HW131932   0.978  11.477   4.146 -0.5136 -0.7760 -0.6816
 9125SOL    HW231933   0.962  11.616   4.205  0.8429 -0.8566 -0.0917
 9126SOL     OW31934  11.050   7.105   8.599  0.2808  0.2385  0.1940
 9126SOL    HW131935  11.069   7.084   8.508  0.4345  0.8611  0.0800
 9126SOL    HW231936  11.079   7.196   8.610 -1.9726  1.0097  0.2059
 9127SOL     OW31937   6.210   0.886   7.627  0.1079  0.5970 -0.0486
 9127SOL    HW131938   6.165   0.888   7.712  0.3234 -0.1735  0.0867
 9127SOL    HW231939   6.288   0.939   7.641  0.3068  0.2111  0.3343
 9128SOL     OW31940   6.514   7.950   3.643 -0.1525  0.5882  0.9376
 9128SOL    HW131941   6.422   7.922   3.650  0.5107 -1.8153  1.1662
 9128SOL    HW231942   6.525   8.012   3.714 -1.3955  0.2199  1.4925
 9129SOL     OW31943  11.767  11.560  11.187  0.5799  0.0817 -0.3283
 9129SOL    HW131944  11.739  11.537  11.099 -1.4779 -0.2812  0.3788
 9129SOL    HW231945  11.853  11.601  11.175  0.4445 -0.1659 -2.4521
 9130SOL     OW31946  10.828  11.829   6.030 -0.6689  0.6391  0.2191
 9130SOL    HW131947  10.922  11.825   6.043 -0.4519  2.5854 -0.3777
 9130SOL    HW231948  10.797  11.894   6.095 -1.5674  0.1808  0.2734
 9131SOL     OW31949   5.209  11.208   4.673 -0.1944  0.3724 -0.5058
 9131SOL    HW131950   5.250  11.291   4.648 -0.0449 -0.0248 -1.6651
 9131SOL    HW231951   5.252  11.143   4.618  1.6094 -0.9283  2.2519
 9132SOL     OW31952  10.831   4.393   9.668 -0.1829 -0.1701 -0.5302
 9132SOL    HW131953  10.863   4.397   9.578 -0.0401  1.6226 -0.4441
 9132SOL    HW231954  10.782   4.474   9.679 -0.9206 -0.7643  0.7626
 9133SOL     OW31955   1.586   6.395  11.195 -0.1405  0.1911  0.0563
 9133SOL    HW131956   1.586   6.315  11.142  0.2209 -1.0230  1.8281
 9133SOL    HW231957   1.675   6.402  11.228 -0.3092  1.0351  0.3564
 9134SOL     OW31958  10.086   8.318   1.921  0.1147 -0.0912 -0.4294
 9134SOL    HW131959  10.060   8.401   1.881  0.5843 -0.9412 -2.6689
 9134SOL    HW231960  10.004   8.269   1.930 -0.1241  0.4854  0.6228
 9135SOL     OW31961   0.031   4.521   0.179 -0.3424  0.0257 -0.4947
 9135SOL    HW131962   0.069   4.609   0.185 -0.4237  0.1290 -1.4057
 9135SOL    HW231963   0.104   4.462   0.194  0.3041  0.2137 -2.5810
 9136SOL     OW31964  11.430   6.806   9.696  0.7214  0.1895 -0.4314
 9136SOL    HW131965  11.484   6.816   9.774  1.9436  1.2260 -1.3611
 9136SOL    HW231966  11.364   6.741   9.720 -0.2739  2.0030  2.1474
 9137SOL     OW31967   6.987   3.320  11.139 -0.3836  0.0704 -0.2144
 9137SOL    HW131968   7.046   3.253  11.106 -1.2365 -1.1871  0.7358
 9137SOL    HW231969   7.045   3.383  11.183  0.2298 -1.6334  1.5557
 9138SOL     OW31970   8.647   3.810   9.341  0.0368 -0.0735  0.1905
 9138SOL    HW131971   8.575   3.776   9.393  0.3958  0.6787  1.1953
 9138SOL    HW231972   8.606   3.837   9.258 -0.5700 -1.0490  0.1619
 9139SOL     OW31973   0.940   5.930  10.006  0.6971 -0.1046  0.1731
 9139SOL    HW131974   0.896   6.014  10.018 -0.2105 -0.3706 -1.0011
 9139SOL    HW231975   0.909   5.899   9.920  1.5168 -1.3273  0.2881
 9140SOL     OW31976   2.332   5.049   4.565 -0.2285 -0.0878 -0.5424
 9140SOL    HW131977   2.388   5.124   4.543 -0.5298 -0.3353 -2.3159
 9140SOL    HW231978   2.354   4.983   4.500 -0.4105 -1.3391  0.6277
 9141SOL     OW31979   5.092   6.355   4.194 -0.6625  0.2356  0.3235
 9141SOL    HW131980   5.036   6.416   4.241  0.6006  0.0709  2.1365
 9141SOL    HW231981   5.077   6.271   4.238  0.7720  0.1353  0.6589
 9142SOL     OW31982   4.905   1.408   6.382  0.5874  0.3305  0.2498
 9142SOL    HW131983   4.906   1.481   6.444 -1.0514  1.8814 -1.3865
 9142SOL    HW231984   4.939   1.446   6.300  0.0242 -0.8347 -0.5545
 9143SOL     OW31985   6.552   3.176   4.172  0.0155  0.2361 -0.0785
 9143SOL    HW131986   6.522   3.094   4.210  1.7552  0.4769  2.0680
 9143SOL    HW231987   6.645   3.161   4.153  0.3348  1.6520  0.2454
 9144SOL     OW31988   4.712   3.609   4.952 -0.4936 -0.1750 -0.0893
 9144SOL    HW131989   4.652   3.606   5.027  0.9086 -0.5216  1.0720
 9144SOL    HW231990   4.657   3.587   4.877 -1.9185  0.0061  0.8471
 9145SOL     OW31991   6.855   3.152  10.075  0.3502  0.9265  0.2536
 9145SOL    HW131992   6.871   3.224  10.014 -2.8569 -0.2879 -2.3481
 9145SOL    HW231993   6.928   3.091  10.059 -0.7107  0.3069 -3.1709
 9146SOL     OW31994   6.177  11.109   0.836 -0.5928  0.3686 -0.3352
 9146SOL    HW131995   6.216  11.128   0.922  0.2270 -0.4478 -0.5053
 9146SOL    HW231996   6.201  11.185   0.782  1.7931 -0.5647 -0.7423
 9147SOL     OW31997   5.744  11.481   0.933 -0.2322  0.4692  0.5498
 9147SOL    HW131998   5.812  11.513   0.991  0.1695  1.2521 -0.3211
 9147SOL    HW231999   5.738  11.387   0.952  0.7224  0.4923  0.9966
 9148SOL     OW32000  10.036   9.528   1.092 -0.1641  0.2171 -0.1251
 9148SOL    HW132001  10.041   9.477   1.173  0.5577 -1.1140 -0.9720
 9148SOL    HW232002  10.116   9.505   1.045 -0.7937  0.6064 -1.4204
 9149SOL     OW32003   0.006   5.623   5.064 -0.3783  0.0170  0.6146
 9149SOL    HW132004   0.070   5.644   5.133 -0.2591  0.0345  0.4995
 9149SOL    HW232005  -0.038   5.545   5.097  0.8779 -1.0233 -0.0646
 9150SOL     OW32006   3.809   1.377   5.955 -0.8606  0.0293 -0.3576
 9150SOL    HW132007   3.886   1.422   5.922 -0.1073 -0.3569  0.8033
 9150SOL    HW232008   3.739   1.442   5.951 -0.7397  0.0835 -2.3564
 9151SOL     OW32009  11.423   4.289   3.936  0.2368 -0.0196 -0.3310
 9151SOL    HW132010  11.489   4.247   3.881 -0.4896  0.0275 -1.2609
 9151SOL    HW232011  11.472   4.356   3.984  0.8469  0.1097 -1.1038
 9152SOL     OW32012  11.098   8.743   1.933 -0.0589  0.2402 -0.4731
 9152SOL    HW132013  11.111   8.805   2.004 -0.5564 -0.7717  0.5331
 9152SOL    HW232014  11.011   8.706   1.948 -0.3067  0.2340 -1.7981
 9153SOL     OW32015  10.715   8.752   7.188 -0.4449  1.0797 -0.0115
 9153SOL    HW132016  10.755   8.738   7.102 -0.9953  1.1330 -0.2756
 9153SOL    HW232017  10.680   8.666   7.212 -2.4083  1.5789 -0.9167
 9154SOL     OW32018   9.533   7.125   9.523 -0.3720  0.3464  0.2134
 9154SOL    HW132019   9.450   7.136   9.477 -0.1858 -0.0215 -0.2242
 9154SOL    HW232020   9.522   7.172   9.605 -0.4437  1.6599 -0.5339
 9155SOL     OW32021   6.868   5.854   2.363 -0.0144  0.0258 -0.2128
 9155SOL    HW132022   6.936   5.870   2.429 -0.4045 -2.7349  0.9999
 9155SOL    HW232023   6.786   5.877   2.406 -0.1752 -0.6534 -0.1493
 9156SOL     OW32024   5.674   3.429   4.596 -0.0117 -0.1485  0.1828
 9156SOL    HW132025   5.610   3.438   4.526 -0.0247 -2.2028 -0.1347
 9156SOL    HW232026   5.734   3.502   4.583  0.2044 -0.6550 -2.2426
 9157SOL     OW32027   5.629   1.550   8.447 -0.3911 -0.2639 -0.2270
 9157SOL    HW132028   5.621   1.524   8.355 -2.4054  0.2910 -0.2590
 9157SOL    HW232029   5.716   1.590   8.453 -0.9462  1.4910 -2.3972
 9158SOL     OW32030   0.665   6.650   3.931 -0.2701  0.3215 -0.1923
 9158SOL    HW132031   0.755   6.684   3.935 -0.2808  0.2732  1.3536
 9158SOL    HW232032   0.639   6.661   3.840  1.4803 -0.1126 -0.7882
 9159SOL     OW32033   2.551  10.847   7.863  0.0504 -0.1960 -0.2520
 9159SOL    HW132034   2.625  10.908   7.860  1.2369 -1.5926 -0.6368
 9159SOL    HW232035   2.546  10.820   7.954 -0.8800  0.9077  0.0479
 9160SOL     OW32036  11.947   7.888   3.908  0.4004 -0.0181 -0.3622
 9160SOL    HW132037  11.880   7.823   3.927  0.9282 -0.7890 -1.1045
 9160SOL    HW232038  12.012   7.842   3.855  1.2194  0.8769 -0.1729
 9161SOL     OW32039   7.181   2.408   6.715  0.2931  0.6510  0.3051
 9161SOL    HW132040   7.139   2.331   6.677  1.4537 -1.5568  3.1347
 9161SOL    HW232041   7.110   2.453   6.761 -0.0863  0.3317  0.0424
 9162SOL     OW32042   1.761   8.162   5.684 -0.3102 -0.1705 -0.0639
 9162SOL    HW132043   1.779   8.253   5.659  1.2901 -0.1683  0.9929
 9162SOL    HW232044   1.834   8.112   5.646 -2.6118 -1.5372 -3.1703
 9163SOL     OW32045   1.348   0.901   7.003 -0.2725 -0.4109 -0.0078
 9163SOL    HW132046   1.435   0.942   7.000  0.1878 -1.3907 -0.3323
 9163SOL    HW232047   1.296   0.953   6.941  0.7631 -1.2944 -1.6897
 9164SOL     OW32048  11.698  11.682   5.618  0.4220  0.2576  0.0487
 9164SOL    HW132049  11.729  11.750   5.558  0.7098 -0.4029 -0.5588
 9164SOL    HW232050  11.777  11.651   5.663  0.3465  0.0693  0.0536
 9165SOL     OW32051   0.855   0.616   9.178 -0.3017  0.2887  0.2289
 9165SOL    HW132052   0.883   0.608   9.087  2.3702 -0.5240  1.0500
 9165SOL    HW232053   0.865   0.528   9.214 -0.2150  0.8434  1.6089
 9166SOL     OW32054   8.029   9.634  11.089 -0.2708  0.1506 -0.2426
 9166SOL    HW132055   8.029   9.606  11.181 -1.4745 -1.5255 -0.6953
 9166SOL    HW232056   8.120   9.620  11.061  0.0316  0.3383  0.5862
 9167SOL     OW32057   6.567   2.495   0.225  0.0475 -0.6825  0.7471
 9167SOL    HW132058   6.573   2.400   0.213 -2.3445 -0.7968 -0.0899
 9167SOL    HW232059   6.497   2.507   0.289 -0.5378  0.5240 -0.0695
 9168SOL     OW32060   7.570   5.260   4.317  0.4492  0.9362  0.5100
 9168SOL    HW132061   7.560   5.272   4.222 -3.0115  1.1494  0.7686
 9168SOL    HW232062   7.500   5.199   4.340  1.1317  1.0069  2.9829
 9169SOL     OW32063   0.038   3.307  11.074  0.2088 -0.5837  0.0049
 9169SOL    HW132064   0.082   3.374  11.126  2.9095 -2.2907  0.1208
 9169SOL    HW232065   0.077   3.314  10.987 -1.3950 -0.3274 -0.7228
 9170SOL     OW32066   7.413   3.170   2.257 -0.0932 -0.3713 -0.0725
 9170SOL    HW132067   7.472   3.206   2.192  0.0250  0.3299  0.4127
 9170SOL    HW232068   7.469   3.153   2.333 -0.2292 -1.1683 -0.1458
 9171SOL     OW32069   4.683   7.202   4.571  0.4411 -0.1080  0.2951
 9171SOL    HW132070   4.605   7.250   4.545  0.3405 -0.7786 -0.6709
 9171SOL    HW232071   4.656   7.150   4.646 -0.4292 -1.3434 -0.8302
 9172SOL     OW32072  11.171  11.024   4.616  0.3804  0.2220  0.8608
 9172SOL    HW132073  11.249  11.074   4.594  0.0319  0.7108  0.7153
 9172SOL    HW232074  11.152  11.049   4.707  1.4859 -1.3526  1.5710
 9173SOL     OW32075   9.001   9.937  11.957  0.7118  0.0905 -0.4306
 9173SOL    HW132076   8.996   9.859  11.901  0.0223  1.2010 -2.0101
 9173SOL    HW232077   9.049  10.001  11.904  2.0698  0.5009  1.1938
 9174SOL     OW32078   2.301   1.457   6.721 -0.2994  0.1248  0.0650
 9174SOL    HW132079   2.356   1.535   6.718 -1.0807  0.6700 -1.4641
 9174SOL    HW232080   2.307   1.420   6.633 -0.6311 -1.0440  0.5222
 9175SOL     OW32081   2.260   5.475   1.846  0.4870 -0.0408 -0.8532
 9175SOL    HW132082   2.289   5.391   1.881 -0.3250 -0.2797 -0.7413
 9175SOL    HW232083   2.294   5.540   1.908  0.4243 -0.3423 -0.5066
 9176SOL     OW32084   0.259  11.552   1.553 -0.8159 -0.4933 -0.5380
 9176SOL    HW132085   0.250  11.457   1.543 -2.0180 -0.2639 -2.0830
 9176SOL    HW232086   0.169  11.583   1.565 -0.5597  0.5404 -1.1730
 9177SOL     OW32087   4.345  10.032  11.569 -0.2780  0.3380  0.7966
 9177SOL    HW132088   4.374   9.971  11.501 -0.8880  1.1991 -0.2687
 9177SOL    HW232089   4.256  10.005  11.589 -1.7582  2.6273 -1.9189
 9178SOL     OW32090   0.929   2.819  12.014  0.3383 -0.6042  0.2448
 9178SOL    HW132091   0.837   2.810  12.040  0.3748 -0.0009  0.6077
 9178SOL    HW232092   0.976   2.759  12.072  0.0132 -2.2374 -1.0948
 9179SOL     OW32093   0.600   2.956   5.395 -0.2096  0.9919  0.1028
 9179SOL    HW132094   0.549   3.005   5.459 -2.5082  0.2677 -1.0396
 9179SOL    HW232095   0.635   2.881   5.444 -1.0569  0.9958  0.7341
 9180SOL     OW32096   0.925   5.255   9.310  0.0772 -0.1931  0.0270
 9180SOL    HW132097   0.840   5.276   9.349  0.4801  0.4342  0.5949
 9180SOL    HW232098   0.908   5.181   9.252 -0.9033  0.0901 -0.0532
 9181SOL     OW32099   5.448   7.862   4.994 -0.0300  0.7331 -0.8225
 9181SOL    HW132100   5.509   7.792   4.972  0.5352  0.9864 -0.1129
 9181SOL    HW232101   5.483   7.900   5.075 -1.8027  0.0830  0.3129
 9182SOL     OW32102   2.729   1.526   9.666  0.0165 -0.1114 -0.2459
 9182SOL    HW132103   2.717   1.480   9.583  0.3888 -1.5946  0.4909
 9182SOL    HW232104   2.642   1.558   9.688 -0.3524 -0.8795 -0.5524
 9183SOL     OW32105   1.890   2.748  10.874  0.2075 -0.1948  0.2698
 9183SOL    HW132106   1.809   2.699  10.860  0.9007 -1.0736 -0.8273
 9183SOL    HW232107   1.874   2.833  10.831 -0.0077 -0.5034 -0.2787
 9184SOL     OW32108   1.263   1.168   2.493  0.0373  0.5083  0.1526
 9184SOL    HW132109   1.222   1.241   2.447  0.5792 -0.1186 -1.4160
 9184SOL    HW232110   1.286   1.106   2.423 -0.9811 -1.4618  1.4744
 9185SOL     OW32111   4.168   9.754   7.626  0.6187  0.4432  0.3726
 9185SOL    HW132112   4.179   9.836   7.578 -0.1974  0.5609  0.3654
 9185SOL    HW232113   4.150   9.689   7.558  2.1200  0.0807  0.3056
 9186SOL     OW32114  10.565   5.404   0.497  0.1197  0.7489 -0.0934
 9186SOL    HW132115  10.655   5.436   0.504  0.6284 -0.9205  1.6517
 9186SOL    HW232116  10.564   5.352   0.416  0.7370  0.7360 -0.0923
 9187SOL     OW32117   3.296   2.438   8.405  0.3819  0.0953  0.1071
 9187SOL    HW132118   3.248   2.393   8.475  0.9777 -0.8975 -0.0953
 9187SOL    HW232119   3.389   2.423   8.427  0.5835  0.6742 -0.3344
 9188SOL     OW32120  11.561   7.212   3.430  0.2688  0.0917 -0.2960
 9188SOL    HW132121  11.474   7.251   3.422 -0.2695 -0.9303  0.3588
 9188SOL    HW232122  11.622   7.285   3.418 -0.6865  0.9114 -0.2280
 9189SOL     OW32123   4.871   1.512   6.667 -0.3983 -0.0755  0.5522
 9189SOL    HW132124   4.844   1.423   6.645 -1.6581  0.2617  0.6639
 9189SOL    HW232125   4.916   1.503   6.751 -0.2364 -0.6417  0.4119
 9190SOL     OW32126   2.540  11.370   3.555 -0.0894  0.5065  0.0345
 9190SOL    HW132127   2.588  11.294   3.523  0.1541  0.2435  0.9988
 9190SOL    HW232128   2.586  11.446   3.518 -1.1616  0.1868 -2.0919
 9191SOL     OW32129  10.277   4.947  11.226 -0.1767  0.9003  0.1933
 9191SOL    HW132130  10.350   4.988  11.272  0.3784 -0.2016  0.3439
 9191SOL    HW232131  10.217   4.919  11.296 -0.1226  0.6778  0.1529
 9192SOL     OW32132   0.696   2.848   8.193 -0.3847  0.7536 -0.0045
 9192SOL    HW132133   0.691   2.846   8.098  1.2388  0.4395 -0.1210
 9192SOL    HW232134   0.616   2.892   8.221 -0.5680  1.4575 -1.5469
 9193SOL     OW32135  11.754   4.770   5.684 -0.6686 -0.0535 -0.7582
 9193SOL    HW132136  11.796   4.844   5.728  0.4686 -0.1749 -1.5976
 9193SOL    HW232137  11.824   4.707   5.670 -1.7056 -1.5833  0.4409
 9194SOL     OW32138   5.987   5.036   4.245  0.3129  0.0380 -0.4785
 9194SOL    HW132139   5.992   5.132   4.251  0.6515  0.4607 -4.7245
 9194SOL    HW232140   6.058   5.011   4.186 -0.6441 -2.6787 -0.6366
 9195SOL     OW32141  11.820   6.636   8.778  0.0690 -0.4531 -0.0809
 9195SOL    HW132142  11.763   6.601   8.847  0.8283 -1.0500  0.2625
 9195SOL    HW232143  11.773   6.618   8.697  0.0480 -1.5213  0.1536
 9196SOL     OW32144   7.379   6.066  11.666 -0.1019 -0.1214  0.0647
 9196SOL    HW132145   7.326   5.987  11.656 -1.2939  0.6642  0.0334
 9196SOL    HW232146   7.361   6.096  11.756  0.1944  0.2226  0.0119
 9197SOL     OW32147   7.484  10.187   7.870 -0.0913 -0.0199 -0.0390
 9197SOL    HW132148   7.504  10.273   7.908 -0.0965  0.8733 -1.9366
 9197SOL    HW232149   7.388  10.185   7.866 -0.2410 -1.2088  2.2530
 9198SOL     OW32150   2.369   4.030  10.030 -0.5019 -0.1721  0.1341
 9198SOL    HW132151   2.465   4.029  10.030 -0.4605 -1.0046 -1.8757
 9198SOL    HW232152   2.346   4.122  10.045  0.6341  0.1968 -0.2439
 9199SOL     OW32153   4.509  11.410   5.746  0.3314 -0.6789 -0.5669
 9199SOL    HW132154   4.517  11.502   5.772  0.8306 -0.6395 -0.8406
 9199SOL    HW232155   4.559  11.362   5.812 -0.9573 -0.8921  0.2977
 9200SOL     OW32156   1.342   9.760   2.786  0.5111 -0.4803 -0.3815
 9200SOL    HW132157   1.376   9.753   2.696  0.8252  1.2570 -0.4359
 9200SOL    HW232158   1.249   9.742   2.777  0.4704  0.0131 -1.1376
 9201SOL     OW32159   7.555   9.307   5.066 -0.3833 -0.2105 -0.5255
 9201SOL    HW132160   7.471   9.340   5.033  0.1805  1.5164 -0.3630
 9201SOL    HW232161   7.537   9.281   5.156 -0.7973 -0.1207 -0.5771
 9202SOL     OW32162   8.053   3.211   3.265  0.4324 -0.6538  0.4710
 9202SOL    HW132163   8.100   3.247   3.190  0.9498  0.7138  1.4107
 9202SOL    HW232164   8.100   3.130   3.286  0.1974 -1.1159 -0.7420
 9203SOL     OW32165   9.064   5.966   3.656  0.2955  0.0368 -0.3219
 9203SOL    HW132166   9.034   6.056   3.651 -0.5132 -0.1822  0.3329
 9203SOL    HW232167   9.029   5.924   3.578  1.2923  0.4568 -1.0073
 9204SOL     OW32168   5.993  11.020   0.257  0.4365  0.3137  0.3165
 9204SOL    HW132169   5.919  10.973   0.297  1.3093 -0.5611  0.9547
 9204SOL    HW232170   5.954  11.100   0.222 -0.7861 -0.0456  0.7939
 9205SOL     OW32171   5.225   6.533   7.710  0.0256 -0.1491 -0.3443
 9205SOL    HW132172   5.303   6.585   7.689  0.8961 -1.6172 -0.8727
 9205SOL    HW232173   5.159   6.599   7.732  0.4227  1.3557 -3.0911
 9206SOL     OW32174   0.375   3.171   5.145 -0.3112  0.3063  0.4232
 9206SOL    HW132175   0.357   3.199   5.234  0.4079  0.8919  0.4028
 9206SOL    HW232176   0.368   3.251   5.093 -0.0124  0.1105  0.0739
 9207SOL     OW32177  10.217  10.444   8.494 -0.3291 -0.1857 -0.4613
 9207SOL    HW132178  10.183  10.515   8.439  0.1692  0.8422  0.5348
 9207SOL    HW232179  10.246  10.487   8.574  1.2095 -1.3324 -0.3606
 9208SOL     OW32180  11.908  10.168   2.780  0.3819 -0.1840  0.1491
 9208SOL    HW132181  11.871  10.083   2.805  0.5951 -0.7822 -1.4582
 9208SOL    HW232182  12.000  10.163   2.806  0.2218 -0.1409  0.7395
 9209SOL     OW32183   8.547   4.317   0.933 -0.4866  0.0513 -0.5147
 9209SOL    HW132184   8.537   4.351   0.844  2.6321  0.3209 -0.8840
 9209SOL    HW232185   8.620   4.367   0.970 -0.3627 -1.4553  1.4575
 9210SOL     OW32186  10.354   6.935   6.654 -0.0884  0.0750 -0.8532
 9210SOL    HW132187  10.430   6.937   6.713  0.6513  0.4037 -1.7921
 9210SOL    HW232188  10.280   6.916   6.711  1.0116 -2.9301 -0.2323
 9211SOL     OW32189   7.870  12.121   3.091  0.5212 -0.1333  0.5584
 9211SOL    HW132190   7.905  12.172   3.165  1.7883  2.3306 -1.5506
 9211SOL    HW232191   7.916  12.038   3.095  2.3594  0.8586  1.2413
 9212SOL     OW32192   3.770  11.906   9.100 -0.8219 -0.1585 -0.1183
 9212SOL    HW132193   3.709  11.945   9.037 -0.1160  0.6991 -0.2996
 9212SOL    HW232194   3.857  11.924   9.063 -0.4499 -1.4825  0.0663
 9213SOL     OW32195   4.733   9.660   0.954  0.6565 -0.2987 -0.2983
 9213SOL    HW132196   4.639   9.679   0.953  0.6549 -0.1960  0.6019
 9213SOL    HW232197   4.769   9.719   1.020  0.9221 -2.1714  1.3372
 9214SOL     OW32198   1.566   3.697   5.700 -0.1356  0.3855  0.2536
 9214SOL    HW132199   1.532   3.786   5.686  0.4613  0.6837  0.6667
 9214SOL    HW232200   1.607   3.674   5.617  0.6759  0.9332  0.4949
 9215SOL     OW32201  11.801  12.120   7.816  0.2941  0.3031  0.0127
 9215SOL    HW132202  11.856  12.090   7.888 -0.1900  1.3783  0.8563
 9215SOL    HW232203  11.713  12.125   7.854  0.1850  1.7586 -0.3633
 9216SOL     OW32204   3.048   8.068   4.201  0.0556  0.2432 -0.3185
 9216SOL    HW132205   3.059   8.146   4.255 -0.3305  0.0806  0.0032
 9216SOL    HW232206   2.972   8.023   4.239 -0.0544 -0.0126 -0.8299
 9217SOL     OW32207   8.688   0.986   1.618 -0.2984 -0.2628  0.5344
 9217SOL    HW132208   8.599   0.955   1.605  0.1072 -0.7975 -1.2690
 9217SOL    HW232209   8.735   0.910   1.653 -0.3220 -0.3192  0.4461
 9218SOL     OW32210  10.875   3.138  11.322 -0.0436  0.7061  0.6849
 9218SOL    HW132211  10.930   3.098  11.255 -0.7365 -0.7991  0.9725
 9218SOL    HW232212  10.909   3.104  11.405 -1.2918 -0.1534  0.8714
 9219SOL     OW32213   8.508   9.360   8.423 -0.1051 -0.0266  0.1723
 9219SOL    HW132214   8.476   9.390   8.508  0.7255 -0.4601  0.6568
 9219SOL    HW232215   8.557   9.280   8.443  0.0911 -0.1351 -0.7135
 9220SOL     OW32216  10.557   1.133   5.991 -0.2677 -0.5356 -0.6745
 9220SOL    HW132217  10.632   1.144   6.050  0.2837 -2.7208 -0.8896
 9220SOL    HW232218  10.592   1.150   5.904 -0.9796  2.2329 -0.5328
 9221SOL     OW32219   9.798   4.376   1.275 -0.1106  0.4444 -0.8744
 9221SOL    HW132220   9.807   4.423   1.358 -0.9259 -1.1073  0.1425
 9221SOL    HW232221   9.706   4.389   1.251 -0.0383  0.3469 -1.2005
 9222SOL     OW32222   3.630   0.914   0.934  0.0579 -0.7401 -0.0053
 9222SOL    HW132223   3.705   0.864   0.902 -0.7547 -2.0136 -0.0010
 9222SOL    HW232224   3.577   0.850   0.981 -0.8278  0.2278  0.3605
 9223SOL     OW32225  11.833   6.624   3.372  0.4505 -0.3813  0.4652
 9223SOL    HW132226  11.743   6.598   3.353  0.1421  0.5580  0.6318
 9223SOL    HW232227  11.887   6.558   3.327 -0.2729 -3.1321  3.2340
 9224SOL     OW32228   3.872   6.468   9.741 -0.2249  0.6459 -0.5724
 9224SOL    HW132229   3.864   6.396   9.804 -2.0577 -1.0060 -2.5609
 9224SOL    HW232230   3.896   6.544   9.795 -0.0351 -1.0237  1.8621
 9225SOL     OW32231   3.916  11.246  11.889 -0.2498 -0.2361  0.2256
 9225SOL    HW132232   3.985  11.263  11.824 -0.6103  3.6962  0.6425
 9225SOL    HW232233   3.834  11.256  11.840 -0.4994  0.7495  0.8066
 9226SOL     OW32234  11.547   1.823   6.327  0.7295 -0.2035 -0.0565
 9226SOL    HW132235  11.456   1.839   6.351  0.6305 -1.2230  0.3076
 9226SOL    HW232236  11.559   1.729   6.339  1.9821 -0.0083  0.4304
 9227SOL     OW32237   0.774   2.065   1.135 -0.4065 -0.3929  0.0274
 9227SOL    HW132238   0.758   2.036   1.045 -0.5359 -1.0383  0.2501
 9227SOL    HW232239   0.859   2.027   1.158  0.4674  1.2046 -0.3978
 9228SOL     OW32240   8.169   6.673   9.535  0.1872  0.7831 -0.4383
 9228SOL    HW132241   8.228   6.736   9.494 -0.8181  1.4464 -0.8897
 9228SOL    HW232242   8.082   6.708   9.521 -0.4845 -1.1422 -1.4591
 9229SOL     OW32243   4.832   5.316   3.466 -0.1771 -0.2633 -0.0572
 9229SOL    HW132244   4.912   5.337   3.514  0.0271  0.1177 -0.5509
 9229SOL    HW232245   4.765   5.372   3.505 -0.7184 -2.0453  1.7754
 9230SOL     OW32246   3.448   7.093   8.126 -0.5861 -0.0702 -0.3014
 9230SOL    HW132247   3.540   7.088   8.153 -0.7079  0.1264  0.1571
 9230SOL    HW232248   3.411   7.161   8.181 -1.0567 -0.2837 -0.3534
 9231SOL     OW32249   1.421   4.280  11.879 -0.2060 -0.0537 -0.5578
 9231SOL    HW132250   1.507   4.257  11.842 -0.5702 -0.7530 -0.9914
 9231SOL    HW232251   1.427   4.250  11.970  0.3848  0.8828 -0.2766
 9232SOL     OW32252   6.000   9.562   4.220 -0.4127  0.6157 -0.4200
 9232SOL    HW132253   5.976   9.472   4.195 -0.0057  0.3485  0.1280
 9232SOL    HW232254   6.025   9.603   4.137 -1.4226  0.4927 -0.8039
 9233SOL     OW32255   8.460   5.571   0.714  0.5659  0.2664  0.1973
 9233SOL    HW132256   8.470   5.582   0.809 -0.6262  1.3477  0.2140
 9233SOL    HW232257   8.498   5.650   0.676 -1.5900  1.2547 -0.0446
 9234SOL     OW32258   3.535   8.824  11.203 -0.6810  0.0532 -0.0360
 9234SOL    HW132259   3.487   8.744  11.180 -0.3547 -0.2508  0.3457
 9234SOL    HW232260   3.627   8.801  11.194 -0.5440  0.0260  1.2139
 9235SOL     OW32261   6.328  11.036  10.237  0.2186 -0.2207  0.0015
 9235SOL    HW132262   6.242  10.998  10.222  0.5225 -1.4335  1.2200
 9235SOL    HW232263   6.310  11.123  10.274 -0.4816 -0.5732  0.5038
 9236SOL     OW32264   0.405   4.819   8.817 -0.3425  0.1520  0.4116
 9236SOL    HW132265   0.471   4.889   8.814 -0.6675  0.4312 -1.6513
 9236SOL    HW232266   0.325   4.863   8.844 -0.4773  0.5505 -0.5874
 9237SOL     OW32267   5.217   4.000   8.302 -0.4110  0.1504 -0.2436
 9237SOL    HW132268   5.189   3.947   8.227 -0.8735  0.7518 -0.5085
 9237SOL    HW232269   5.163   4.080   8.296 -0.2105  0.3492  0.5356
 9238SOL     OW32270   5.528   2.368   5.058 -0.1187  0.1085  0.1809
 9238SOL    HW132271   5.502   2.412   5.138  1.1640  2.8582 -0.7942
 9238SOL    HW232272   5.470   2.292   5.052 -2.5842  1.7243  1.9244
 9239SOL     OW32273   3.133   5.657   4.556  0.0385  0.8797 -0.0796
 9239SOL    HW132274   3.056   5.637   4.503 -0.0089  0.0623  0.2962
 9239SOL    HW232275   3.114   5.620   4.642  0.2461  1.9279  0.4375
 9240SOL     OW32276   9.242   8.464   1.407 -0.0686  0.3936  0.3362
 9240SOL    HW132277   9.307   8.478   1.338 -0.6039  0.0895 -0.2359
 9240SOL    HW232278   9.249   8.542   1.462  0.2364  0.7298 -0.1681
 9241SOL     OW32279  11.389   3.548   0.663  0.0324  0.1132 -0.1055
 9241SOL    HW132280  11.404   3.524   0.572  0.9855 -1.3700  0.3947
 9241SOL    HW232281  11.396   3.643   0.665 -1.6467  0.3343 -1.8448
 9242SOL     OW32282   5.730   1.987   5.915  0.1322  0.1695  0.0835
 9242SOL    HW132283   5.668   2.010   5.846  0.5679  1.5333  0.1098
 9242SOL    HW232284   5.683   2.004   5.997 -0.9809 -3.0180  0.2495
 9243SOL     OW32285   3.967   5.631   4.579 -0.1334  0.1576 -0.8280
 9243SOL    HW132286   4.019   5.641   4.499 -0.7886  1.4014 -1.1263
 9243SOL    HW232287   3.997   5.701   4.636 -0.0966 -0.3519 -0.2179
 9244SOL     OW32288   2.709   6.063   7.523  0.0260  0.1554 -0.0088
 9244SOL    HW132289   2.777   6.121   7.557 -0.0313  0.5407 -0.5543
 9244SOL    HW232290   2.639   6.121   7.495  0.1520 -0.1358 -0.9771
 9245SOL     OW32291   8.543   8.546   6.157  0.5158  0.1240 -0.4229
 9245SOL    HW132292   8.553   8.486   6.231  0.5675 -1.5695 -1.7394
 9245SOL    HW232293   8.608   8.615   6.173  1.5791 -1.0161  0.3416
 9246SOL     OW32294   8.230   9.467   0.297  0.2602  0.2242 -0.1335
 9246SOL    HW132295   8.139   9.446   0.320 -0.3256  1.6909 -0.9236
 9246SOL    HW232296   8.276   9.384   0.302 -1.1660 -0.5953  0.1046
 9247SOL     OW32297   3.212   4.106   9.858  1.0609 -0.5097  0.2535
 9247SOL    HW132298   3.201   4.196   9.826 -0.0505 -0.5057  0.6312
 9247SOL    HW232299   3.270   4.065   9.793 -0.2313 -0.1827 -1.1544
 9248SOL     OW32300   5.410   9.350  10.579  0.4637  0.6088  0.3883
 9248SOL    HW132301   5.470   9.334  10.505 -1.5182  1.1905 -1.4491
 9248SOL    HW232302   5.393   9.444  10.577 -1.2183  0.3320  0.2405
 9249SOL     OW32303   2.736   1.312   4.833  0.1510  0.5026 -0.4807
 9249SOL    HW132304   2.717   1.282   4.921  1.1183 -1.9088 -0.9957
 9249SOL    HW232305   2.652   1.312   4.788  0.1423 -2.5731 -0.6800
 9250SOL     OW32306   8.950   3.199   0.864 -0.3375 -0.6343  0.1117
 9250SOL    HW132307   9.009   3.136   0.904  0.4479  1.2746  2.1825
 9250SOL    HW232308   8.964   3.280   0.913 -1.9493  0.9289 -1.8121
 9251SOL     OW32309   0.398   3.125   8.913 -0.0328 -0.0604 -0.0841
 9251SOL    HW132310   0.324   3.183   8.895  1.0076  0.8951 -1.6186
 9251SOL    HW232311   0.474   3.183   8.910  1.0310 -1.4381 -1.5367
 9252SOL     OW32312   0.367   2.215   0.964 -0.0983 -0.8105 -0.1199
 9252SOL    HW132313   0.283   2.249   0.995  1.0954  0.4184  2.0066
 9252SOL    HW232314   0.356   2.207   0.869 -1.0845  4.1149 -0.6862
 9253SOL     OW32315   2.723   0.971   7.509  0.6690  0.4151  0.0777
 9253SOL    HW132316   2.661   0.902   7.532  1.9610 -1.2427 -1.2253
 9253SOL    HW232317   2.756   1.002   7.593  0.5630 -1.0269  0.6790
 9254SOL     OW32318   4.888   9.030   0.233 -0.5502 -0.1594 -0.2106
 9254SOL    HW132319   4.936   9.070   0.306  1.2343 -0.3636 -1.2146
 9254SOL    HW232320   4.851   9.104   0.185 -0.8177  0.0357  0.2878
 9255SOL     OW32321   3.582  11.173  10.367 -0.1267 -0.2234 -0.0811
 9255SOL    HW132322   3.635  11.094  10.364  1.6291  0.8778  0.1765
 9255SOL    HW232323   3.566  11.188  10.460 -0.9108 -0.5491 -0.1576
 9256SOL     OW32324  10.745   3.373  10.182  0.0389 -0.4214  0.0725
 9256SOL    HW132325  10.720   3.284  10.206  0.4814 -0.3668  0.7358
 9256SOL    HW232326  10.836   3.381  10.208  0.3672 -0.1641 -1.0910
 9257SOL     OW32327   6.403   0.514   3.265  0.2109  0.2084 -0.2333
 9257SOL    HW132328   6.336   0.472   3.319 -1.3648  0.0567 -2.1987
 9257SOL    HW232329   6.473   0.536   3.327 -0.8764 -1.2027  1.6087
 9258SOL     OW32330   2.063   9.417   2.958  0.4001  0.2074 -0.5805
 9258SOL    HW132331   2.003   9.491   2.966  0.8066  0.4501  0.4733
 9258SOL    HW232332   2.089   9.416   2.866  0.0512  1.1086 -0.6924
 9259SOL     OW32333   1.183   2.939   5.177  0.0584 -0.0073  0.0327
 9259SOL    HW132334   1.183   2.892   5.260  0.6973 -0.1357 -0.0312
 9259SOL    HW232335   1.182   3.032   5.202 -2.5806  0.0017  0.1543
 9260SOL     OW32336   7.982   9.705   9.387  0.1584  0.0142  0.6050
 9260SOL    HW132337   7.913   9.726   9.450 -0.7527  0.4454 -0.5033
 9260SOL    HW232338   8.061   9.694   9.440 -0.5330  0.6061  1.7868
 9261SOL     OW32339   5.106   6.244   4.730  0.6974 -0.5297 -0.2817
 9261SOL    HW132340   5.176   6.244   4.665 -1.1769  0.6933 -2.4531
 9261SOL    HW232341   5.026   6.232   4.679 -0.8701  0.3375  1.8214
 9262SOL     OW32342   0.822   4.091   3.902  0.0352  0.2281  0.1499
 9262SOL    HW132343   0.810   4.126   3.813 -0.5241  1.5298  0.7043
 9262SOL    HW232344   0.897   4.032   3.895 -0.9239 -0.8627 -1.4972
 9263SOL     OW32345   7.229   3.539   4.687 -0.1440  0.3319  0.3833
 9263SOL    HW132346   7.259   3.630   4.696 -0.6732  0.5384  0.1027
 9263SOL    HW232347   7.212   3.529   4.594  0.1823 -0.1483  0.3715
 9264SOL     OW32348   5.055   9.225   6.818 -0.2205  0.1882  0.0415
 9264SOL    HW132349   5.149   9.240   6.829 -0.1352 -0.4901  0.2545
 9264SOL    HW232350   5.023   9.307   6.780  0.8678 -0.3733 -2.2905
 9265SOL     OW32351   5.729   2.381   1.328 -0.2722  0.2584  0.4473
 9265SOL    HW132352   5.669   2.336   1.268 -1.0559  1.5533  0.2345
 9265SOL    HW232353   5.680   2.457   1.358  0.7546  0.5615  1.3937
 9266SOL     OW32354  11.873   1.909   5.167  0.0240 -0.2659  0.0378
 9266SOL    HW132355  11.824   1.895   5.085  0.0139 -0.8446  0.1426
 9266SOL    HW232356  11.827   1.982   5.209  1.4456  1.7113 -1.5780
 9267SOL     OW32357   3.672   7.439   5.001 -0.1382 -0.1962 -0.0190
 9267SOL    HW132358   3.597   7.414   5.055 -0.1048 -0.8168 -0.2611
 9267SOL    HW232359   3.697   7.360   4.955  0.3978  0.1137 -0.2760
 9268SOL     OW32360  10.043   7.579   8.442  0.1693 -0.3371  0.4775
 9268SOL    HW132361  10.133   7.600   8.469  0.5805  1.8956 -2.2162
 9268SOL    HW232362   9.988   7.641   8.490  0.3656  0.1351  0.1012
 9269SOL     OW32363   8.019  12.090   6.666 -0.3997  0.1537  0.7505
 9269SOL    HW132364   7.947  12.057   6.613 -0.1019 -0.7437  0.8911
 9269SOL    HW232365   7.994  12.070   6.756  0.1147 -0.3665  0.7869
 9270SOL     OW32366   0.539   8.675   5.351  0.5079 -0.3262  0.4285
 9270SOL    HW132367   0.630   8.691   5.324 -0.3270 -0.6095 -2.9488
 9270SOL    HW232368   0.510   8.602   5.296 -2.5213  1.3857 -0.4722
 9271SOL     OW32369   3.662   4.766   4.973  0.3276 -0.1617  0.4177
 9271SOL    HW132370   3.710   4.703   5.027  1.0828  1.2557  1.4982
 9271SOL    HW232371   3.705   4.850   4.991  0.8193  0.3600 -2.6544
 9272SOL     OW32372   6.506  10.587   4.884  0.4384 -0.2760  0.5593
 9272SOL    HW132373   6.482  10.660   4.827  3.4819  0.5407  0.1628
 9272SOL    HW232374   6.477  10.509   4.836  0.6308  0.5178 -0.9181
 9273SOL     OW32375   0.478   8.667   7.522 -0.0066  0.0455 -0.6661
 9273SOL    HW132376   0.536   8.735   7.558 -1.4750  0.9282  0.1721
 9273SOL    HW232377   0.483   8.679   7.427  0.4359  0.7671 -0.5625
 9274SOL     OW32378  11.912   5.619   2.398  0.5250 -0.0213  0.0119
 9274SOL    HW132379  11.947   5.609   2.486  0.7409  1.0130  0.0594
 9274SOL    HW232380  11.902   5.714   2.387  1.8558 -0.0254 -1.5822
 9275SOL     OW32381   8.761   9.945   0.579  0.4666 -0.4875  0.1640
 9275SOL    HW132382   8.803   9.972   0.661  1.6952  1.1277 -0.9160
 9275SOL    HW232383   8.812   9.869   0.550  0.2205 -0.8732  0.7186
 9276SOL     OW32384  10.951   4.269   8.989 -0.0518  0.1717  0.5013
 9276SOL    HW132385  10.958   4.352   9.036 -0.2711  0.5795 -0.1735
 9276SOL    HW232386  10.983   4.204   9.051 -0.9443  0.6121  1.4515
 9277SOL     OW32387   3.516   1.984  11.171 -0.1499  0.2817  1.1791
 9277SOL    HW132388   3.462   1.988  11.092  1.2074  0.5179  0.2257
 9277SOL    HW232389   3.583   2.051  11.157  2.5116 -2.2896  0.6619
 9278SOL     OW32390   1.453   9.380  11.759  0.4304 -0.1979 -0.1741
 9278SOL    HW132391   1.371   9.418  11.728 -0.3162 -0.1495  1.7521
 9278SOL    HW232392   1.501   9.455  11.796 -0.0177 -0.6798  1.4690
 9279SOL     OW32393   1.065   0.806   2.352 -0.1931 -0.0746 -0.4843
 9279SOL    HW132394   1.012   0.854   2.289  2.6047  1.9162 -1.4963
 9279SOL    HW232395   1.038   0.840   2.437 -0.7383  0.6663 -0.9392
 9280SOL     OW32396   7.382  10.854  11.449 -0.2021  0.0358 -0.3767
 9280SOL    HW132397   7.414  10.830  11.362  1.1100  0.9539 -0.1835
 9280SOL    HW232398   7.341  10.774  11.482  0.8931 -0.8795 -1.1314
 9281SOL     OW32399  11.039   9.923   8.666 -0.1354 -0.0675  0.4079
 9281SOL    HW132400  11.124   9.888   8.642 -0.2511  0.7320 -1.2601
 9281SOL    HW232401  11.048   9.945   8.759  1.8531  1.0511  0.0063
 9282SOL     OW32402   0.162   2.007   5.567  0.0639  0.2003 -0.4904
 9282SOL    HW132403   0.220   1.960   5.508  1.2907  1.3966 -0.2673
 9282SOL    HW232404   0.132   1.940   5.629 -1.3736 -1.1044 -2.4972
 9283SOL     OW32405   9.788  11.614   6.599  0.5668 -0.3234  0.2460
 9283SOL    HW132406   9.717  11.608   6.535 -0.4162  1.1631  1.1095
 9283SOL    HW232407   9.841  11.536   6.584 -0.2002 -0.5404 -1.6695
 9284SOL     OW32408   1.073   4.152   6.201 -0.3794  0.6219 -0.2377
 9284SOL    HW132409   1.067   4.071   6.251 -0.3886  1.2496  0.8288
 9284SOL    HW232410   1.015   4.139   6.126 -0.7463 -0.1751  0.1758
 9285SOL     OW32411   4.423   8.774   5.790 -0.1943  0.5287 -0.8032
 9285SOL    HW132412   4.421   8.846   5.727  0.7368  1.1437 -0.1524
 9285SOL    HW232413   4.498   8.721   5.762 -1.2596 -0.5792 -1.6712
 9286SOL     OW32414  10.153   1.594   3.533  0.7528 -0.2497  0.9422
 9286SOL    HW132415  10.151   1.500   3.517  1.5323 -0.0847 -0.1972
 9286SOL    HW232416  10.134   1.634   3.448  1.0593  0.6225  1.2679
 9287SOL     OW32417   1.776   2.179   4.393  0.0031  0.0109 -0.4666
 9287SOL    HW132418   1.814   2.104   4.349  1.9070  0.7522 -0.1708
 9287SOL    HW232419   1.721   2.221   4.327  2.4262  0.8454 -2.0706
 9288SOL     OW32420   1.677  11.789   1.611  0.4991 -0.0111  0.4233
 9288SOL    HW132421   1.716  11.777   1.525 -2.3507 -0.1463 -0.9292
 9288SOL    HW232422   1.659  11.883   1.616  1.2568  0.1116  1.1992
 9289SOL     OW32423   7.561   2.974   7.937  0.6147 -0.2068  0.3069
 9289SOL    HW132424   7.531   2.884   7.924  1.7188 -0.2264 -3.2432
 9289SOL    HW232425   7.485   3.020   7.974 -0.9499 -1.9901 -0.5425
 9290SOL     OW32426   2.168   9.174   4.365 -0.3488  0.4326 -0.3134
 9290SOL    HW132427   2.218   9.248   4.330 -1.2250  0.7438 -0.9375
 9290SOL    HW232428   2.109   9.150   4.294 -0.3456 -0.6161  0.0357
 9291SOL     OW32429  10.487   5.850  11.192 -0.4811 -0.2268  0.4976
 9291SOL    HW132430  10.439   5.928  11.221 -0.2361 -0.1764  0.7701
 9291SOL    HW232431  10.572   5.883  11.165  0.0973 -0.5490  1.8384
 9292SOL     OW32432   1.551  10.623   0.239 -0.1455 -0.1212  0.4303
 9292SOL    HW132433   1.620  10.574   0.284  2.5317 -1.0084 -4.0284
 9292SOL    HW232434   1.481  10.560   0.224  0.4544 -0.7751  0.3381
 9293SOL     OW32435   7.855   2.518   1.159 -0.0114  0.1803 -0.2062
 9293SOL    HW132436   7.915   2.579   1.201 -2.0906  2.2846 -0.0473
 9293SOL    HW232437   7.892   2.432   1.176  2.0883  1.2683  1.1938
 9294SOL     OW32438   1.114   2.841   8.922  0.1209 -0.2035 -0.2260
 9294SOL    HW132439   1.166   2.765   8.897  0.7952 -0.3831  1.5966
 9294SOL    HW232440   1.136   2.907   8.856  1.4398 -0.7968 -0.4115
 9295SOL     OW32441  11.452   0.777  10.027 -0.1526  0.6114 -0.1133
 9295SOL    HW132442  11.421   0.768  10.117  2.1076 -0.6748  0.5958
 9295SOL    HW232443  11.483   0.868  10.022  2.2229 -0.0476  1.3213
 9296SOL     OW32444   7.446   8.785   2.265  0.4898 -0.1165 -0.0486
 9296SOL    HW132445   7.441   8.701   2.218 -0.3831 -1.2841  2.0039
 9296SOL    HW232446   7.533   8.818   2.245  1.1490 -1.8778 -0.3146
 9297SOL     OW32447   8.220   8.718   2.743  0.1209  0.3019 -0.2320
 9297SOL    HW132448   8.238   8.812   2.745 -0.4725  0.4118  1.2868
 9297SOL    HW232449   8.127   8.712   2.722 -0.4337  0.2064  1.9447
 9298SOL     OW32450   3.811  10.817   1.159 -0.1073  0.0717  0.2074
 9298SOL    HW132451   3.814  10.722   1.153 -0.7094  0.1267 -1.9359
 9298SOL    HW232452   3.887  10.841   1.212 -0.4765 -1.6168  1.5787
 9299SOL     OW32453   7.126   8.829   9.037 -0.3950  0.6134 -0.1743
 9299SOL    HW132454   7.218   8.841   9.011  0.6919 -2.1920  1.8849
 9299SOL    HW232455   7.122   8.863   9.126 -1.4679  1.0203 -0.3666
 9300SOL     OW32456   9.608   2.152   2.757 -0.0077  0.2278 -0.2693
 9300SOL    HW132457   9.683   2.200   2.722  0.5118 -0.7708 -0.5563
 9300SOL    HW232458   9.639   2.118   2.841 -0.2976  0.2106 -0.1696
 9301SOL     OW32459  11.963  11.444   8.057  0.1711  0.4585  0.5191
 9301SOL    HW132460  11.925  11.502   8.123 -1.1185 -0.3103  0.4968
 9301SOL    HW232461  11.934  11.356   8.082  1.1018 -0.0478 -0.1072
 9302SOL     OW32462   7.169   0.751   8.666  0.3933  0.3183 -0.7694
 9302SOL    HW132463   7.198   0.660   8.664 -2.5023 -0.7653  0.5810
 9302SOL    HW232464   7.107   0.758   8.593 -0.8006  0.6268  0.2403
 9303SOL     OW32465   7.372  10.261   0.770 -0.2254 -0.1584  0.8639
 9303SOL    HW132466   7.406  10.344   0.737  2.1572 -1.6785 -0.8271
 9303SOL    HW232467   7.337  10.282   0.856  0.8941  2.4650  0.7682
 9304SOL     OW32468   2.646  10.193   2.602  0.2717 -0.1548  0.6065
 9304SOL    HW132469   2.618  10.280   2.572  0.5648 -0.0986  0.4984
 9304SOL    HW232470   2.631  10.136   2.527 -1.7127 -0.5805  1.2556
 9305SOL     OW32471   6.344   6.199   5.507 -0.0628  0.2737 -0.6261
 9305SOL    HW132472   6.379   6.212   5.418  0.4162  0.0109 -0.4772
 9305SOL    HW232473   6.253   6.171   5.493  0.2438 -0.5382 -1.0547
 9306SOL     OW32474   0.124   9.397   1.755 -0.1306 -0.0407 -0.8431
 9306SOL    HW132475   0.189   9.409   1.686 -1.2378  1.1121 -1.7329
 9306SOL    HW232476   0.052   9.456   1.731 -0.2566  0.9336  1.6867
 9307SOL     OW32477   0.840   4.017  11.214 -0.0147  0.2721 -0.7265
 9307SOL    HW132478   0.894   3.954  11.167 -0.1378 -0.6037  0.2716
 9307SOL    HW232479   0.821   4.085  11.149  0.1149 -0.7093 -1.8382
 9308SOL     OW32480   5.826   1.877  10.084 -0.6925  0.4574 -0.9764
 9308SOL    HW132481   5.733   1.861  10.096 -0.5781  0.3884 -0.1458
 9308SOL    HW232482   5.854   1.812  10.019 -1.0601 -0.0273 -0.6498
 9309SOL     OW32483   3.572   0.207   8.428  0.2611  0.0782 -0.2171
 9309SOL    HW132484   3.617   0.173   8.351 -1.7656 -2.1022 -0.5759
 9309SOL    HW232485   3.505   0.266   8.394 -0.5672 -0.8055 -0.1856
 9310SOL     OW32486   2.876   3.420   2.738  0.0354 -0.1623  0.3468
 9310SOL    HW132487   2.957   3.372   2.755  0.0016 -0.9674 -1.5206
 9310SOL    HW232488   2.844   3.385   2.655 -0.5081  2.4053 -0.6470
 9311SOL     OW32489  10.013   8.032  11.632  0.3345 -0.2216 -0.0816
 9311SOL    HW132490  10.052   8.010  11.716  0.0627 -0.3087  0.0235
 9311SOL    HW232491   9.964   8.113  11.649  1.4962  0.5950 -0.5156
 9312SOL     OW32492   0.572   6.575  10.636  0.0584  0.2816  0.3640
 9312SOL    HW132493   0.608   6.489  10.619 -1.3116 -0.2736  0.1547
 9312SOL    HW232494   0.485   6.573  10.597  0.8999  2.6361 -1.9446
 9313SOL     OW32495   2.466   0.949   1.790  0.0411 -0.0882  0.1334
 9313SOL    HW132496   2.398   1.004   1.829  1.1353  0.4547  1.3658
 9313SOL    HW232497   2.460   0.867   1.839  1.1581  0.4556  1.2412
 9314SOL     OW32498   5.851   2.706   9.604 -0.0485 -0.4618  0.0433
 9314SOL    HW132499   5.760   2.687   9.580 -0.5060  2.6234 -1.2047
 9314SOL    HW232500   5.898   2.703   9.521  0.4883  0.2513  0.3169
 9315SOL     OW32501  10.833   1.337  10.981 -0.5426  0.2162  0.6110
 9315SOL    HW132502  10.800   1.299  10.900  1.6307  0.1215 -0.3114
 9315SOL    HW232503  10.829   1.432  10.967  0.2399  0.1933  0.1977
 9316SOL     OW32504   4.462   5.783   2.615 -0.4991  0.2490  0.4178
 9316SOL    HW132505   4.433   5.831   2.692  1.1982 -0.3638  1.5054
 9316SOL    HW232506   4.538   5.832   2.583 -0.8180  0.1599 -0.5220
 9317SOL     OW32507   5.580   4.130   4.106  0.2033 -0.0589 -0.1355
 9317SOL    HW132508   5.583   4.211   4.157 -0.1840 -0.7711  1.0464
 9317SOL    HW232509   5.487   4.118   4.085  0.5004  1.0991 -2.5180
 9318SOL     OW32510   6.056  10.692   5.966  0.2399 -0.3286 -0.2652
 9318SOL    HW132511   6.098  10.702   6.051 -1.2864 -1.3180  0.6543
 9318SOL    HW232512   6.031  10.781   5.941 -0.7364 -0.1757  1.1191
 9319SOL     OW32513  10.420   1.688   6.414 -0.5991  0.6707 -0.1197
 9319SOL    HW132514  10.488   1.755   6.423  0.0990  0.0705 -0.7657
 9319SOL    HW232515  10.342   1.736   6.387  0.1254  1.1284 -1.4861
 9320SOL     OW32516   3.556   9.443   9.980  0.2824 -0.7068  0.4035
 9320SOL    HW132517   3.613   9.445   9.903  1.3157 -0.6104  1.1415
 9320SOL    HW232518   3.539   9.535  10.000  0.6273 -0.7071  0.7150
 9321SOL     OW32519   1.005  11.746   9.361  0.0601 -0.3715  0.6323
 9321SOL    HW132520   1.012  11.655   9.331  1.1990  0.1851 -0.9431
 9321SOL    HW232521   0.911  11.763   9.366 -0.1837 -1.7898  1.5296
 9322SOL     OW32522   2.798   0.442   8.493 -0.4231 -0.2139 -0.2558
 9322SOL    HW132523   2.865   0.434   8.561 -0.7966 -1.2411  0.0105
 9322SOL    HW232524   2.786   0.536   8.482 -0.7483 -0.0278  1.4845
 9323SOL     OW32525   9.461  10.126   1.087  0.3538 -0.1739  0.2021
 9323SOL    HW132526   9.510  10.051   1.120  0.8593  1.0249  2.3525
 9323SOL    HW232527   9.373  10.091   1.071  0.8699 -1.4730  0.0367
 9324SOL     OW32528   6.479   6.932  10.334  0.2244 -0.5133 -0.3742
 9324SOL    HW132529   6.399   6.888  10.365 -0.8419  0.7318 -1.2294
 9324SOL    HW232530   6.510   6.980  10.411 -0.2547 -0.4490 -0.2120
 9325SOL     OW32531   0.081   5.780   3.531  0.1751 -0.3746  0.5470
 9325SOL    HW132532   0.122   5.702   3.492  2.3670  0.5122  0.9538
 9325SOL    HW232533  -0.008   5.751   3.553  0.0719 -1.9945 -1.6373
 9326SOL     OW32534   3.143   9.685   3.771  0.0206 -0.2171  0.3278
 9326SOL    HW132535   3.223   9.633   3.761 -0.0043 -0.3161  0.6324
 9326SOL    HW232536   3.170   9.761   3.821  0.2036  0.4183 -0.7011
 9327SOL     OW32537   0.703   8.286   1.149  0.4496 -0.0765 -0.3845
 9327SOL    HW132538   0.721   8.259   1.239  1.1002 -0.6320 -0.6721
 9327SOL    HW232539   0.612   8.317   1.151  0.3996 -0.2492  0.4189
 9328SOL     OW32540  11.235   4.594   6.830  0.2870 -0.2922  0.0737
 9328SOL    HW132541  11.250   4.503   6.804  0.4252 -0.6024  1.1881
 9328SOL    HW232542  11.168   4.588   6.898  1.0410  0.3376  0.8926
 9329SOL     OW32543   0.700   6.828   9.547 -0.1152  0.1382  1.0046
 9329SOL    HW132544   0.664   6.741   9.534 -0.9598  0.6674 -0.4283
 9329SOL    HW232545   0.788   6.823   9.509 -0.8176  0.3643 -0.7319
 9330SOL     OW32546   7.982   4.963   4.992 -0.8568  0.5497  0.5185
 9330SOL    HW132547   8.017   5.040   5.038  2.6423 -0.0113 -0.8612
 9330SOL    HW232548   8.026   4.889   5.034 -0.6710 -0.2742 -1.0634
 9331SOL     OW32549   2.382   9.384   5.875  0.2455 -0.3803  0.0859
 9331SOL    HW132550   2.410   9.324   5.944  0.6221  1.2786  1.4336
 9331SOL    HW232551   2.286   9.376   5.874  0.1647  0.2936  1.4850
 9332SOL     OW32552  10.164   2.152  11.885  0.0483  0.5263 -0.2552
 9332SOL    HW132553  10.107   2.212  11.932 -1.6618 -0.5319 -0.9094
 9332SOL    HW232554  10.198   2.203  11.811 -1.9371  0.5531 -1.2168
 9333SOL     OW32555  11.526   7.423  11.410 -0.3256  0.0951 -0.1398
 9333SOL    HW132556  11.596   7.358  11.419 -0.4236  0.1869  2.0297
 9333SOL    HW232557  11.571   7.507  11.407 -0.2700  0.0426 -0.7504
 9334SOL     OW32558  11.687   8.683  10.315 -0.0201  0.7410  0.4160
 9334SOL    HW132559  11.742   8.636  10.253  0.1675 -0.8327  1.7011
 9334SOL    HW232560  11.700   8.776  10.294  2.6410  0.4165  0.2614
 9335SOL     OW32561   5.423   1.669   8.223  0.3731 -0.1509  0.7395
 9335SOL    HW132562   5.340   1.684   8.177  0.0847 -0.5625  1.1147
 9335SOL    HW232563   5.406   1.695   8.313  0.3342 -1.1862  1.0465
 9336SOL     OW32564   7.820   1.532   6.372 -0.3723 -0.3325 -0.6282
 9336SOL    HW132565   7.759   1.589   6.419  0.5541  2.5477 -2.6011
 9336SOL    HW232566   7.782   1.445   6.379 -2.8893  0.7816  1.0578
 9337SOL     OW32567  10.826   6.918  10.921  0.1392 -0.0041  0.4059
 9337SOL    HW132568  10.907   6.881  10.953 -0.0858 -0.8478  0.0334
 9337SOL    HW232569  10.759   6.854  10.944 -0.1107 -0.3644 -1.1654
 9338SOL     OW32570   6.300   7.294   3.703  0.2632 -0.0381 -0.1877
 9338SOL    HW132571   6.218   7.284   3.751  0.8932  2.1261  1.5082
 9338SOL    HW232572   6.340   7.207   3.706 -1.4144 -0.8611 -0.0721
 9339SOL     OW32573   0.773   3.247  11.779  0.2327  0.8144  0.3176
 9339SOL    HW132574   0.690   3.210  11.749  0.6331 -0.0359  0.2075
 9339SOL    HW232575   0.791   3.319  11.718  0.2530  0.1065 -0.5368
 9340SOL     OW32576   4.258   8.822   9.545 -0.1483 -0.2279 -0.3543
 9340SOL    HW132577   4.241   8.904   9.499  2.6990  1.1737  0.8149
 9340SOL    HW232578   4.185   8.812   9.605 -0.2364  1.8985 -0.0200
 9341SOL     OW32579   3.580   3.177   0.499  0.2622  0.8452  0.3822
 9341SOL    HW132580   3.560   3.098   0.448  1.7789 -0.0673  1.1208
 9341SOL    HW232581   3.545   3.158   0.586  1.2989  0.6582  0.7654
 9342SOL     OW32582   2.342   2.462  10.141 -1.2023  0.3663 -0.2030
 9342SOL    HW132583   2.315   2.394  10.079 -1.6631  0.1049  0.2823
 9342SOL    HW232584   2.292   2.540  10.115 -1.3212  0.2855 -0.2131
 9343SOL     OW32585   0.171   0.404   9.473 -0.1645 -0.1291 -0.2930
 9343SOL    HW132586   0.265   0.416   9.460  0.5590 -3.3009  1.1723
 9343SOL    HW232587   0.136   0.493   9.475  2.7309  1.1556 -1.1205
 9344SOL     OW32588   0.514   0.465   9.799 -0.1054  0.0861 -0.4130
 9344SOL    HW132589   0.487   0.392   9.856 -0.2319 -0.2941 -0.9511
 9344SOL    HW232590   0.551   0.422   9.722 -2.0545  0.5477 -1.6670
 9345SOL     OW32591  10.849   3.570   1.524 -0.1307  0.5786  0.2359
 9345SOL    HW132592  10.804   3.547   1.442 -0.1506  1.4461 -0.0100
 9345SOL    HW232593  10.879   3.487   1.559  0.0965  0.2091 -0.7898
 9346SOL     OW32594  11.539   0.479   5.153  0.2986 -0.1237 -0.4382
 9346SOL    HW132595  11.628   0.477   5.187  0.5102 -1.3845 -1.0140
 9346SOL    HW232596  11.533   0.402   5.097 -1.2784 -0.2613 -0.1227
 9347SOL     OW32597   7.603   3.381   8.262  0.6018 -0.2953 -0.2518
 9347SOL    HW132598   7.690   3.362   8.227  0.8859 -0.3254  0.4408
 9347SOL    HW232599   7.558   3.297   8.264  0.4799 -0.2448 -0.8096
 9348SOL     OW32600   1.502   1.676   3.981  0.8601  0.6794  0.3551
 9348SOL    HW132601   1.460   1.656   4.065  0.8898  0.5299  0.3337
 9348SOL    HW232602   1.443   1.639   3.916  1.7871 -0.9212  0.3716
 9349SOL     OW32603   7.553   7.151   1.693  0.0164 -0.5701  0.6935
 9349SOL    HW132604   7.503   7.148   1.612  1.1000 -0.5275  0.0023
 9349SOL    HW232605   7.580   7.060   1.708  0.0674 -0.5311  0.8419
 9350SOL     OW32606   1.647   7.556   7.018 -0.2931 -0.3969 -0.2012
 9350SOL    HW132607   1.733   7.553   7.059 -0.3403 -0.4628 -0.1063
 9350SOL    HW232608   1.658   7.614   6.943 -0.3572  0.2527  0.2727
 9351SOL     OW32609   4.640   9.966   5.922  0.1567  0.8205  0.2560
 9351SOL    HW132610   4.665   9.964   5.830 -0.0404 -1.6085  0.1990
 9351SOL    HW232611   4.696   9.900   5.964  1.0393  2.6475  2.1291
 9352SOL     OW32612   7.271   9.564  11.577 -0.2123  0.2246  0.1565
 9352SOL    HW132613   7.203   9.518  11.527  0.7570 -0.4542 -0.5832
 9352SOL    HW232614   7.282   9.511  11.656  0.2870 -0.3475 -0.2863
 9353SOL     OW32615   7.775   5.579   2.903 -0.2056  0.1675 -0.7117
 9353SOL    HW132616   7.694   5.609   2.860 -0.8086  0.7020  0.7307
 9353SOL    HW232617   7.766   5.609   2.993  1.5298  0.0454 -0.4758
 9354SOL     OW32618   4.372   0.179   2.601  0.2600 -0.1320  0.0867
 9354SOL    HW132619   4.441   0.243   2.620 -2.6456  3.2013  0.1783
 9354SOL    HW232620   4.370   0.123   2.680  0.2618  2.2227  1.8605
 9355SOL     OW32621   0.004   9.237   7.060  0.5069 -0.0383  0.3458
 9355SOL    HW132622   0.067   9.245   6.988 -0.6933  0.3938 -0.6966
 9355SOL    HW232623   0.029   9.307   7.121  0.3244  0.9043 -0.6321
 9356SOL     OW32624   1.890  10.225  11.494  0.6683 -0.3892  0.4352
 9356SOL    HW132625   1.905  10.179  11.577  1.9289  0.9730  0.9976
 9356SOL    HW232626   1.818  10.177  11.453 -1.1244 -0.1185  3.0518
 9357SOL     OW32627  10.522   7.047  11.869  0.1491  1.0030  0.1878
 9357SOL    HW132628  10.600   7.045  11.924  1.3176  2.1388 -1.3321
 9357SOL    HW232629  10.477   7.128  11.893 -0.8549  0.1408  1.3668
 9358SOL     OW32630   5.100   9.956   3.851  0.4761  0.5712 -0.8021
 9358SOL    HW132631   5.107   9.879   3.907 -0.9780  2.6152  2.5436
 9358SOL    HW232632   5.123   9.925   3.764  2.9248 -2.8990  0.8607
 9359SOL     OW32633  10.937   4.310   6.984  0.0249  0.3421  0.3882
 9359SOL    HW132634  10.914   4.266   6.903 -0.3986 -1.1426  1.2681
 9359SOL    HW232635  11.005   4.255   7.023  1.3476  1.8622  0.3355
 9360SOL     OW32636   5.238  12.115   4.603  0.3113 -0.2996 -0.2495
 9360SOL    HW132637   5.322  12.151   4.574 -0.3837  0.8701 -0.9214
 9360SOL    HW232638   5.180  12.191   4.606 -0.2708 -0.7696  2.0030
 9361SOL     OW32639   1.713   0.110   4.297 -0.2886  0.4167 -0.2336
 9361SOL    HW132640   1.776   0.117   4.225 -0.1865 -1.7579 -0.4313
 9361SOL    HW232641   1.687   0.018   4.296 -0.9985  0.5504  1.9255
 9362SOL     OW32642   2.113   8.600   0.828  0.3411 -0.5772  0.1324
 9362SOL    HW132643   2.125   8.510   0.795  0.8320 -0.2626 -0.5866
 9362SOL    HW232644   2.199   8.641   0.816 -0.2425  0.4080 -0.9039
 9363SOL     OW32645   4.677   8.551   1.230 -0.0883  0.8747 -0.2601
 9363SOL    HW132646   4.621   8.620   1.193 -0.0496  2.9546  3.0859
 9363SOL    HW232647   4.759   8.596   1.252  0.4212 -0.5284  0.8974
 9364SOL     OW32648   0.174   0.304  11.215 -0.2299 -0.5576 -0.3139
 9364SOL    HW132649   0.225   0.351  11.150 -1.7437 -0.8857 -1.8236
 9364SOL    HW232650   0.115   0.370  11.252  2.8591  0.4852  3.3954
 9365SOL     OW32651   8.367   0.671   6.130 -0.1192 -0.1661 -0.0179
 9365SOL    HW132652   8.282   0.697   6.095  0.3921  1.2936 -0.2465
 9365SOL    HW232653   8.353   0.661   6.224 -1.0717 -2.3004 -0.3351
 9366SOL     OW32654   8.979  10.492   7.431  0.5716  0.0206 -0.7173
 9366SOL    HW132655   8.916  10.443   7.485  1.8995  0.6549  1.5441
 9366SOL    HW232656   8.926  10.528   7.360 -2.0570  1.9119  1.9291
 9367SOL     OW32657   2.526   2.296   4.849 -0.0284 -0.1150 -0.1867
 9367SOL    HW132658   2.604   2.247   4.823  0.2693 -1.6319  3.0295
 9367SOL    HW232659   2.462   2.229   4.870 -0.8720  0.9659  0.8373
 9368SOL     OW32660  11.004  10.358   3.748  0.5345  0.3824 -0.4354
 9368SOL    HW132661  10.997  10.428   3.812  1.1305 -0.2013  0.2834
 9368SOL    HW232662  10.980  10.279   3.796  1.6492 -0.1601 -0.7443
 9369SOL     OW32663   7.749   0.463  11.623 -0.3118 -0.6223 -0.4189
 9369SOL    HW132664   7.729   0.482  11.714 -0.1686 -2.6863  0.1011
 9369SOL    HW232665   7.841   0.486  11.612 -0.3870 -0.1712 -0.1153
 9370SOL     OW32666   1.097   2.253   1.233  0.0787  0.3391 -0.1842
 9370SOL    HW132667   1.173   2.203   1.263  1.0867  2.6427  1.4125
 9370SOL    HW232668   1.032   2.240   1.301 -0.5438 -0.6328 -0.9389
 9371SOL     OW32669   7.497   5.690   3.741  0.2950 -0.0815  0.4076
 9371SOL    HW132670   7.560   5.715   3.674 -0.7133  0.6682 -0.2877
 9371SOL    HW232671   7.414   5.682   3.695 -0.3291 -0.0114  1.4766
 9372SOL     OW32672  11.012   3.130   9.043 -0.2375  0.0998 -0.1095
 9372SOL    HW132673  10.999   3.060   9.107 -1.4026 -0.7577 -1.2221
 9372SOL    HW232674  11.088   3.102   8.992  0.7966  0.8676  0.9677
 9373SOL     OW32675  11.164   9.517   8.773 -0.3747  0.5729 -0.0435
 9373SOL    HW132676  11.191   9.495   8.684  1.3189  3.9701 -0.5289
 9373SOL    HW232677  11.241   9.497   8.826 -0.5251  0.8027  0.2609
 9374SOL     OW32678   4.967   0.010   8.649 -0.7189  0.3388 -0.7555
 9374SOL    HW132679   4.949  -0.014   8.740 -0.5569  1.6797 -0.3372
 9374SOL    HW232680   5.053  -0.026   8.631 -0.4123  0.7099 -0.1017
 9375SOL     OW32681   0.855  10.856   2.637  0.1728  0.4488  0.6248
 9375SOL    HW132682   0.944  10.836   2.664  1.2044  1.4834 -1.7228
 9375SOL    HW232683   0.820  10.773   2.605  0.2599  0.0359  1.5791
 9376SOL     OW32684   2.262   1.014   8.838 -0.0732 -0.0246  0.1431
 9376SOL    HW132685   2.171   1.032   8.817  0.2895  0.1545 -1.4173
 9376SOL    HW232686   2.310   1.091   8.809  0.7678 -0.8457 -0.7387
 9377SOL     OW32687   6.888   6.765  10.892  0.2949 -0.1000  0.5478
 9377SOL    HW132688   6.883   6.809  10.807 -2.7643  0.2404  0.7852
 9377SOL    HW232689   6.867   6.833  10.956  1.3301 -0.6307  1.4788
 9378SOL     OW32690   1.778   9.333   2.123  0.2008  0.1369  0.6101
 9378SOL    HW132691   1.857   9.293   2.086 -1.0102 -0.6699 -1.2663
 9378SOL    HW232692   1.729   9.258   2.159 -0.5280  0.3817  0.1380
 9379SOL     OW32693  10.180   0.318   1.492 -0.1543  0.1447 -0.7360
 9379SOL    HW132694  10.177   0.407   1.529 -1.9946 -0.1424 -0.1120
 9379SOL    HW232695  10.210   0.331   1.402 -1.4972  1.5444 -1.0166
 9380SOL     OW32696   4.000   9.698  10.256  0.1081  0.0277 -0.0922
 9380SOL    HW132697   3.912   9.667  10.277  0.5942 -0.7648  0.8506
 9380SOL    HW232698   4.052   9.619  10.247  0.8708  0.4993  0.0316
 9381SOL     OW32699   2.008   5.548   4.487  0.3687 -0.6125  0.0214
 9381SOL    HW132700   1.929   5.520   4.441 -1.0424  1.8789  0.7290
 9381SOL    HW232701   2.078   5.539   4.423 -0.6058 -2.0137 -0.9185
 9382SOL     OW32702  11.344   8.692   9.757  1.1633 -0.2273 -0.4315
 9382SOL    HW132703  11.300   8.764   9.713  1.5153  0.4826  0.3384
 9382SOL    HW232704  11.280   8.622   9.760  0.2385  0.6163  0.2298
 9383SOL     OW32705   6.625  11.591   3.749  0.6501  0.1253 -0.2161
 9383SOL    HW132706   6.631  11.500   3.777 -0.8799  0.6363  2.0816
 9383SOL    HW232707   6.586  11.636   3.824  0.4860  2.5093 -1.6411
 9384SOL     OW32708   1.861   1.462   2.141 -0.2747 -0.3932 -0.0495
 9384SOL    HW132709   1.771   1.484   2.120 -0.8662 -1.1383  1.5458
 9384SOL    HW232710   1.913   1.512   2.078 -1.6680  2.1856  0.7092
 9385SOL     OW32711   0.307   5.342   4.233 -0.3086  0.2221  0.2129
 9385SOL    HW132712   0.333   5.426   4.271  1.4376 -0.0569 -0.3206
 9385SOL    HW232713   0.351   5.338   4.149 -0.6492 -1.0910  0.0702
 9386SOL     OW32714  11.159   0.554   9.685  0.1214 -0.1054 -0.1189
 9386SOL    HW132715  11.154   0.486   9.618  0.6104  0.3389 -0.6203
 9386SOL    HW232716  11.071   0.592   9.687 -0.0540 -0.5086 -0.0866
 9387SOL     OW32717   3.981   3.803   3.303 -0.5484  1.0661  0.3354
 9387SOL    HW132718   4.023   3.725   3.337  0.0840 -0.0493 -2.6889
 9387SOL    HW232719   3.888   3.780   3.300 -0.5161  0.8961  0.5986
 9388SOL     OW32720   5.537   7.158   9.531 -0.9031  0.4166 -0.5295
 9388SOL    HW132721   5.543   7.217   9.456 -3.3238 -1.0026 -1.9516
 9388SOL    HW232722   5.588   7.081   9.506 -1.4573  0.0695 -0.6045
 9389SOL     OW32723   4.315   7.642   9.966 -0.6169 -0.1486 -0.1001
 9389SOL    HW132724   4.389   7.665   9.910 -0.4940  2.3328  0.9402
 9389SOL    HW232725   4.330   7.691  10.047 -2.5015 -0.9815  0.8196
 9390SOL     OW32726   3.583  10.140   9.445 -0.1706  0.9112  0.8179
 9390SOL    HW132727   3.580  10.235   9.437 -0.0354  0.7962 -1.3093
 9390SOL    HW232728   3.493  10.112   9.433 -0.0093  0.7199 -0.0300
 9391SOL     OW32729   9.542   6.965   5.383 -0.0978 -0.1457 -0.1780
 9391SOL    HW132730   9.619   6.970   5.327 -0.1846  0.9047 -0.2241
 9391SOL    HW232731   9.565   7.014   5.462 -1.3892  2.0691 -1.0556
 9392SOL     OW32732   5.653   0.197   4.968 -0.0895  0.2556 -0.1310
 9392SOL    HW132733   5.558   0.201   4.972 -0.1127  2.0098 -1.3864
 9392SOL    HW232734   5.681   0.215   5.058 -0.9161 -1.7681  0.5771
 9393SOL     OW32735   2.927  10.823   0.654  0.0505 -0.8263  0.0809
 9393SOL    HW132736   2.910  10.877   0.577  2.6065 -0.0633 -0.0342
 9393SOL    HW232737   2.933  10.886   0.726  0.9041 -1.1522  0.3117
 9394SOL     OW32738   9.185   1.346   5.249 -0.0556 -0.2964  0.4605
 9394SOL    HW132739   9.090   1.349   5.259  0.1231  0.2350  2.3906
 9394SOL    HW232740   9.202   1.391   5.166 -1.4888 -0.7993 -0.1470
 9395SOL     OW32741   0.041   3.462   3.126 -0.6440 -0.7631 -0.2921
 9395SOL    HW132742   0.121   3.426   3.086  0.2446  1.1493 -0.3679
 9395SOL    HW232743   0.027   3.409   3.204  0.8790 -0.9802 -0.1285
 9396SOL     OW32744   1.807   6.771   8.007  0.1722  0.0958 -0.3847
 9396SOL    HW132745   1.715   6.747   8.016 -0.0946  0.5795 -1.5910
 9396SOL    HW232746   1.848   6.741   8.089 -1.1760  0.4723  0.4684
 9397SOL     OW32747  11.434   1.968   9.424 -0.0420  0.1783  0.3798
 9397SOL    HW132748  11.513   1.913   9.422 -0.0161  0.2243 -1.7844
 9397SOL    HW232749  11.365   1.913   9.386 -0.4659  0.9757 -0.0254
 9398SOL     OW32750   4.871   6.867   7.355 -0.0673 -0.0972 -0.1071
 9398SOL    HW132751   4.780   6.888   7.375 -0.8065 -0.6186 -2.5692
 9398SOL    HW232752   4.871   6.851   7.260  2.8152  1.0271 -0.3795
 9399SOL     OW32753   7.521   6.322   3.623  0.1122 -0.2884  0.0421
 9399SOL    HW132754   7.522   6.358   3.711 -0.6208 -0.4107  0.1134
 9399SOL    HW232755   7.517   6.227   3.636  2.1419 -0.4406 -0.1438
 9400SOL     OW32756   2.986   9.170  10.378  0.3875  0.4974 -0.2351
 9400SOL    HW132757   3.065   9.164  10.323 -0.9804  1.7633 -2.5059
 9400SOL    HW232758   2.959   9.079  10.391  0.6201  0.1424 -1.9553
 9401SOL     OW32759   6.780  10.942   0.797  0.1830 -0.2108  0.5904
 9401SOL    HW132760   6.833  10.902   0.865  0.2156  0.7665  1.1674
 9401SOL    HW232761   6.734  11.014   0.842  0.7843  0.9285 -0.5624
 9402SOL     OW32762  11.806   9.515   1.810  0.4216  0.3566 -0.1548
 9402SOL    HW132763  11.800   9.567   1.890 -2.0405  0.3664 -0.2872
 9402SOL    HW232764  11.774   9.572   1.741 -0.2072 -0.5912 -0.6710
 9403SOL     OW32765   3.497  11.894   9.593  0.1613  0.0381 -0.0482
 9403SOL    HW132766   3.461  11.805   9.593 -0.2553  0.1566 -1.8591
 9403SOL    HW232767   3.510  11.914   9.500  1.5910  1.3407  0.3947
 9404SOL     OW32768   8.320  10.566   3.121  0.2036  0.4960  0.5643
 9404SOL    HW132769   8.302  10.641   3.064  0.7591 -0.1037 -0.4206
 9404SOL    HW232770   8.397  10.592   3.171  1.4232 -0.0107 -0.9547
 9405SOL     OW32771   6.658   3.793  11.380  0.3209  0.0245  0.5597
 9405SOL    HW132772   6.575   3.744  11.375  0.3766 -0.0070 -0.1456
 9405SOL    HW232773   6.654   3.837  11.466  0.7353 -2.0287  1.6990
 9406SOL     OW32774   0.939  10.581   7.859 -0.0682 -0.4348 -0.2061
 9406SOL    HW132775   0.942  10.486   7.863 -2.8786 -0.5655  0.9441
 9406SOL    HW232776   0.983  10.610   7.939  1.3504 -0.6913 -0.8626
 9407SOL     OW32777   8.925   3.450   3.413  0.2514  0.2322 -0.2266
 9407SOL    HW132778   8.836   3.417   3.424  0.6755 -1.3456 -1.2908
 9407SOL    HW232779   8.921   3.507   3.337 -0.1084  1.2657  0.5443
 9408SOL     OW32780   8.781  10.875   9.328 -0.3010 -0.2778  0.0624
 9408SOL    HW132781   8.838  10.846   9.399 -2.0119  0.1126  1.6863
 9408SOL    HW232782   8.750  10.794   9.288  1.7625 -0.4917 -1.2255
 9409SOL     OW32783  10.784   3.196   2.575 -0.1226  1.1852  0.1407
 9409SOL    HW132784  10.845   3.220   2.644 -1.1407  0.2542  1.4014
 9409SOL    HW232785  10.803   3.258   2.504  2.6952  0.5360  0.2217
 9410SOL     OW32786   6.434   0.693   1.306 -0.3342  0.1989  0.7055
 9410SOL    HW132787   6.481   0.621   1.264 -0.4288 -0.6318  1.9898
 9410SOL    HW232788   6.476   0.772   1.272  1.7901 -0.4962  1.5572
 9411SOL     OW32789   2.874   4.659   7.717  0.7014 -0.4019  0.4196
 9411SOL    HW132790   2.801   4.634   7.774  1.3907  2.1696  2.6567
 9411SOL    HW232791   2.851   4.747   7.688  1.2774 -0.9520 -1.8652
 9412SOL     OW32792   2.326   5.322   2.299  0.0059 -0.1392  0.1989
 9412SOL    HW132793   2.343   5.339   2.392 -0.1492  0.9078  0.0529
 9412SOL    HW232794   2.235   5.291   2.297 -0.5050  1.2965  0.2642
 9413SOL     OW32795   7.236   0.503  11.529  0.0861 -0.1443  0.2142
 9413SOL    HW132796   7.314   0.460  11.563  0.4015  0.5341  0.3485
 9413SOL    HW232797   7.167   0.437  11.536  0.3372 -0.2896  1.3641
 9414SOL     OW32798  11.400   8.005   9.574 -0.1268  0.0155  0.8206
 9414SOL    HW132799  11.458   8.031   9.502 -1.1752  0.5438  0.1321
 9414SOL    HW232800  11.355   7.928   9.542 -0.3060  0.0153  1.0712
 9415SOL     OW32801   9.112   8.175  11.377  0.2263 -0.3311 -0.8542
 9415SOL    HW132802   9.106   8.269  11.393  0.1420 -0.5190  0.2660
 9415SOL    HW232803   9.045   8.158  11.310 -1.2655  0.0631  0.4827
 9416SOL     OW32804   6.273  11.879   8.481  0.1389  0.0068  0.7243
 9416SOL    HW132805   6.199  11.823   8.460  0.6792 -0.3119 -0.3963
 9416SOL    HW232806   6.255  11.910   8.570 -1.4003  0.0795  0.4125
 9417SOL     OW32807   8.157   9.345   5.988 -0.2137  0.1389 -0.5947
 9417SOL    HW132808   8.096   9.276   6.015  1.1630 -0.4550  1.2716
 9417SOL    HW232809   8.169   9.331   5.894 -0.8511 -1.4473 -0.4795
 9418SOL     OW32810   0.737   1.293   1.935  0.8121 -0.0196  0.3533
 9418SOL    HW132811   0.732   1.336   1.850 -0.5554 -1.8737 -0.5680
 9418SOL    HW232812   0.655   1.315   1.979 -0.3142 -2.2359 -0.4804
 9419SOL     OW32813   9.755   2.584  10.498  0.1558 -0.0558  0.1612
 9419SOL    HW132814   9.792   2.657  10.547  0.3167 -0.3690  0.5111
 9419SOL    HW232815   9.684   2.622  10.447 -0.5359  0.1322  1.2407
 9420SOL     OW32816   8.189   8.199   7.480 -0.1984 -0.2112 -0.0232
 9420SOL    HW132817   8.272   8.152   7.488 -0.6235 -1.0615 -0.5064
 9420SOL    HW232818   8.192   8.239   7.393 -0.4580 -0.5689 -0.1978
 9421SOL     OW32819   0.704  10.532  10.817 -0.2893  0.0454 -0.8081
 9421SOL    HW132820   0.740  10.600  10.760  0.1881  0.6880  0.2444
 9421SOL    HW232821   0.611  10.553  10.822 -0.4427 -0.3410 -1.7801
 9422SOL     OW32822  10.112   1.778   5.887 -0.2349 -0.1896 -0.4730
 9422SOL    HW132823  10.183   1.758   5.827  2.4260  3.9964  0.8366
 9422SOL    HW232824  10.078   1.863   5.857 -0.9400  0.5112  2.0355
 9423SOL     OW32825   5.381  12.093   5.292 -0.0406  0.7379  0.8363
 9423SOL    HW132826   5.317  12.024   5.310 -0.3918  1.3528  1.9765
 9423SOL    HW232827   5.449  12.048   5.241 -2.0239  0.3908 -1.7175
 9424SOL     OW32828   8.229   1.827   7.694  0.2481 -0.1327  0.3656
 9424SOL    HW132829   8.242   1.859   7.783  0.4047 -0.1114  0.3350
 9424SOL    HW232830   8.306   1.774   7.676  0.2363 -0.1034  0.2275
 9425SOL     OW32831   9.283  10.817   4.593 -0.2925  0.3318 -0.5900
 9425SOL    HW132832   9.254  10.749   4.654 -0.0699  0.1309 -0.7088
 9425SOL    HW232833   9.364  10.783   4.556 -1.0664 -0.1259 -1.9497
 9426SOL     OW32834   8.524   2.428   9.856  0.5287 -0.6261  0.7109
 9426SOL    HW132835   8.541   2.344   9.813 -1.9188 -0.8949  0.1285
 9426SOL    HW232836   8.469   2.406   9.931 -1.5100  0.5225 -0.3416
 9427SOL     OW32837   7.245   4.129   0.007  0.6352 -0.1554  0.0615
 9427SOL    HW132838   7.174   4.073   0.040 -0.2653  1.3796  0.8215
 9427SOL    HW232839   7.243   4.206   0.064  0.2837  1.7608 -2.4154
 9428SOL     OW32840  10.926   6.634   2.005 -0.7602  0.2392  0.5477
 9428SOL    HW132841  10.974   6.587   2.074  0.5345  1.5210  0.5538
 9428SOL    HW232842  10.960   6.599   1.923 -0.4938  0.4717  0.5572
 9429SOL     OW32843   4.271   5.405   9.747  0.3835  0.5505 -0.5102
 9429SOL    HW132844   4.230   5.375   9.666 -0.2095  0.9013 -0.3450
 9429SOL    HW232845   4.210   5.470   9.782 -0.0382 -0.5624  0.9163
 9430SOL     OW32846   9.160   3.091   0.055 -0.0291 -0.2435  0.4098
 9430SOL    HW132847   9.099   3.070   0.126  1.6987  0.8273  2.2861
 9430SOL    HW232848   9.119   3.165   0.010 -0.3779  0.1387  1.3295
 9431SOL     OW32849   9.929   8.491   9.409 -0.1963  0.7615  0.3823
 9431SOL    HW132850   9.906   8.403   9.437 -0.7479  0.6246 -0.4365
 9431SOL    HW232851   9.890   8.548   9.475 -1.5488  0.4576 -0.1115
 9432SOL     OW32852   6.844   3.745   1.577  1.0484 -0.0628 -0.1342
 9432SOL    HW132853   6.868   3.794   1.498 -0.1888  0.6998 -0.0700
 9432SOL    HW232854   6.923   3.697   1.601  2.0015  1.1516 -0.7640
 9433SOL     OW32855   1.970   1.607   5.584 -0.0851 -0.1330 -0.1242
 9433SOL    HW132856   1.876   1.625   5.594  0.4273  3.0641  0.0804
 9433SOL    HW232857   2.003   1.603   5.673  0.3060  1.3312 -0.1714
 9434SOL     OW32858   4.347   4.225   8.803  0.0101  0.3150  0.3569
 9434SOL    HW132859   4.289   4.188   8.871 -1.0668 -1.3580 -1.3743
 9434SOL    HW232860   4.420   4.164   8.798 -1.0336 -0.8729 -1.4816
 9435SOL     OW32861   9.851   7.413   6.273  0.2133  0.3022 -0.0526
 9435SOL    HW132862   9.836   7.469   6.196 -0.1789  0.2212 -0.0380
 9435SOL    HW232863   9.849   7.324   6.238  0.7556  0.2889 -0.0619
 9436SOL     OW32864   7.743   7.012  10.892 -0.4200  0.0077  0.2082
 9436SOL    HW132865   7.824   6.963  10.877 -0.5543 -0.1026 -0.1839
 9436SOL    HW232866   7.741   7.028  10.986 -0.7884 -1.4646  0.4764
 9437SOL     OW32867   9.787   8.313  11.100  0.2383  0.8376 -0.1865
 9437SOL    HW132868   9.712   8.284  11.151 -0.4263 -0.1536 -1.6702
 9437SOL    HW232869   9.863   8.277  11.147 -0.1200  2.2637  1.5968
 9438SOL     OW32870  11.353   7.064   9.736  0.0457  0.5859  0.0446
 9438SOL    HW132871  11.371   6.974   9.706  1.1318  0.8267 -0.0693
 9438SOL    HW232872  11.327   7.111   9.657  3.2798  1.3163 -0.7204
 9439SOL     OW32873   0.855   2.493  12.050 -0.2100 -0.4214 -0.2479
 9439SOL    HW132874   0.870   2.443  12.130  0.0295  1.8061  1.2050
 9439SOL    HW232875   0.936   2.485  12.000 -0.8013 -2.8596 -0.9626
 9440SOL     OW32876   2.996   3.456   4.675 -0.0531 -0.0912 -0.0381
 9440SOL    HW132877   3.011   3.540   4.632 -0.9597 -0.6153 -1.4180
 9440SOL    HW232878   3.012   3.391   4.607  0.2872 -1.0343  0.9182
 9441SOL     OW32879   3.155   7.174   8.019 -0.4033  0.0116  0.4221
 9441SOL    HW132880   3.240   7.129   8.020 -0.8771 -1.0096 -1.2545
 9441SOL    HW232881   3.175   7.262   7.987 -0.0739 -0.5075 -0.8614
 9442SOL     OW32882   2.542   0.523   0.097  0.3813 -0.4888  0.2395
 9442SOL    HW132883   2.524   0.574   0.176  1.2847 -1.1334  0.8774
 9442SOL    HW232884   2.458   0.522   0.050 -0.2566 -0.3429  1.3328
 9443SOL     OW32885   3.208   8.404  11.787  0.4805  0.7641 -0.2523
 9443SOL    HW132886   3.211   8.431  11.695 -0.8242 -0.9396 -0.8518
 9443SOL    HW232887   3.116   8.412  11.812  0.4647 -0.7011  0.2551
 9444SOL     OW32888   9.965   2.455   7.325  0.1848 -0.4890  0.2098
 9444SOL    HW132889   9.984   2.374   7.373  1.9004 -0.9235 -1.1163
 9444SOL    HW232890   9.918   2.425   7.247  1.9282 -0.3985 -0.9216
 9445SOL     OW32891   4.843   5.924   4.220  0.6060 -0.3464 -0.0582
 9445SOL    HW132892   4.934   5.954   4.228  1.5603 -3.1030  0.5859
 9445SOL    HW232893   4.839   5.883   4.134 -1.4873  3.8005 -2.2095
 9446SOL     OW32894   7.873   1.584  10.834  0.1060 -0.0515 -0.3993
 9446SOL    HW132895   7.833   1.634  10.764 -1.7228  0.3736  0.8786
 9446SOL    HW232896   7.803   1.529  10.868  0.5264  0.7281  1.9532
 9447SOL     OW32897   9.591   7.778   5.129 -0.0564  0.2404 -0.2253
 9447SOL    HW132898   9.624   7.688   5.136  3.7589  1.4982  0.6940
 9447SOL    HW232899   9.630   7.811   5.048  1.1191  1.8800  0.9445
 9448SOL     OW32900   0.923  11.297   0.492  0.1774  0.0036 -0.1788
 9448SOL    HW132901   0.938  11.284   0.586 -3.8741  0.1377  0.6324
 9448SOL    HW232902   0.922  11.209   0.455  0.3937 -0.1339  0.1360
 9449SOL     OW32903   7.833  11.589   1.137  0.0376  0.2610 -0.3150
 9449SOL    HW132904   7.888  11.580   1.059 -3.1259  1.0000 -2.8411
 9449SOL    HW232905   7.745  11.568   1.107 -1.6771  2.5582  2.5694
 9450SOL     OW32906   8.265   6.039   8.900 -0.5723  0.1314  0.1868
 9450SOL    HW132907   8.330   6.028   8.830 -2.3791  1.6124 -1.9067
 9450SOL    HW232908   8.269   5.958   8.950  0.6967 -1.1222 -1.7959
 9451SOL     OW32909   0.868  10.629  11.514  0.1069  0.2497 -0.2950
 9451SOL    HW132910   0.872  10.720  11.544 -1.5594  0.3467 -0.2488
 9451SOL    HW232911   0.817  10.633  11.433 -0.9496 -0.7408  0.2812
 9452SOL     OW32912  11.269  10.177   7.065 -0.5223 -0.3088 -0.2447
 9452SOL    HW132913  11.267  10.083   7.081 -0.6252 -0.0081  1.7562
 9452SOL    HW232914  11.362  10.198   7.059 -0.3396 -0.1940  1.9956
 9453SOL     OW32915   5.527  10.544   2.809 -0.1907  0.3864  0.0106
 9453SOL    HW132916   5.507  10.451   2.814  0.0368  0.2096 -1.7076
 9453SOL    HW232917   5.445  10.588   2.829 -1.4724 -0.2863 -3.1636
 9454SOL     OW32918  10.304  11.676   3.989  0.0403 -0.4851 -0.5551
 9454SOL    HW132919  10.234  11.623   3.949 -0.7530 -0.2219  0.4444
 9454SOL    HW232920  10.363  11.612   4.028 -0.3071 -0.6779 -0.3359
 9455SOL     OW32921   3.282   8.411   4.901 -0.1677  0.7183  0.5657
 9455SOL    HW132922   3.194   8.393   4.867 -1.5514  1.1090  3.6044
 9455SOL    HW232923   3.337   8.344   4.861 -2.1647 -0.6076 -0.1517
 9456SOL     OW32924  10.499   5.765   5.975  0.4816 -0.1647  0.2019
 9456SOL    HW132925  10.545   5.689   6.011 -1.1564 -1.1129  0.3901
 9456SOL    HW232926  10.563   5.836   5.981  1.4821 -1.1192  1.6260
 9457SOL     OW32927   5.733  10.660   2.966 -0.0107  0.5942  0.4513
 9457SOL    HW132928   5.668  10.609   2.918  0.7310  0.2723 -0.2301
 9457SOL    HW232929   5.736  10.619   3.052 -0.5161  0.4388  0.3991
 9458SOL     OW32930   2.503   3.752   8.402  0.2105  0.5174 -0.1260
 9458SOL    HW132931   2.411   3.760   8.378  0.2136 -2.3200 -1.4964
 9458SOL    HW232932   2.547   3.727   8.320  1.9277  0.1577  0.8489
 9459SOL     OW32933   8.533   0.738   5.310  0.0866  0.3675  0.4341
 9459SOL    HW132934   8.601   0.753   5.375  0.2988 -0.7293  0.4814
 9459SOL    HW232935   8.558   0.656   5.267 -0.8899  0.2520  0.0607
 9460SOL     OW32936   4.477   1.440  10.963  0.3848  0.3453  0.1096
 9460SOL    HW132937   4.457   1.529  10.935  2.5462  0.8308 -0.0886
 9460SOL    HW232938   4.397   1.391  10.947 -0.4315  1.9649 -1.0246
 9461SOL     OW32939   0.797   4.433  11.298 -0.9321 -0.7677  0.7498
 9461SOL    HW132940   0.804   4.401  11.387 -0.3058  0.9310  1.3566
 9461SOL    HW232941   0.886   4.457  11.274 -1.4500  1.3824  0.7338
 9462SOL     OW32942   9.260   5.387   2.798 -0.6415 -0.0115  0.3281
 9462SOL    HW132943   9.292   5.323   2.735 -3.6062 -0.7900 -0.5791
 9462SOL    HW232944   9.243   5.336   2.877 -0.3546  0.2230  0.5397
 9463SOL     OW32945  11.216   4.250  10.281  0.3635  0.7186 -0.0878
 9463SOL    HW132946  11.133   4.209  10.258 -0.8105  2.1553  1.3016
 9463SOL    HW232947  11.259   4.185  10.337 -0.5328  0.5308  0.4164
 9464SOL     OW32948   8.877  11.810   1.953 -0.7596 -0.0018 -0.1293
 9464SOL    HW132949   8.856  11.892   1.998 -0.7441  1.3452 -2.4035
 9464SOL    HW232950   8.908  11.752   2.022 -1.3806  1.6818  1.6650
 9465SOL     OW32951   3.621   4.265   9.104  0.4908 -0.4852  0.4100
 9465SOL    HW132952   3.532   4.238   9.123  0.5261 -0.2709  0.9035
 9465SOL    HW232953   3.616   4.360   9.095  1.1600 -0.0366  3.5720
 9466SOL     OW32954  11.947  10.224   3.919  0.5064 -0.3237 -0.4203
 9466SOL    HW132955  11.875  10.218   3.856  0.7180 -0.0666 -0.6920
 9466SOL    HW232956  11.936  10.149   3.977 -0.7874  0.4689  0.3948
 9467SOL     OW32957   2.295  10.292  11.254  0.3368 -0.2921  1.1661
 9467SOL    HW132958   2.242  10.351  11.307 -1.5971 -0.5952 -0.3040
 9467SOL    HW232959   2.260  10.205  11.272  0.6128 -0.5556  0.4649
 9468SOL     OW32960   5.411   2.930   6.543  0.3511  0.6015  0.1541
 9468SOL    HW132961   5.503   2.955   6.550  0.0400  1.5593  1.0202
 9468SOL    HW232962   5.368   3.008   6.507 -0.1374  0.1794 -0.1893
 9469SOL     OW32963   1.591  11.692  11.844  0.2847  0.1732  0.2964
 9469SOL    HW132964   1.595  11.784  11.819  1.6708  0.1801  0.4841
 9469SOL    HW232965   1.667  11.652  11.802  1.9213 -0.0905  3.2670
 9470SOL     OW32966   1.739   6.387   3.301  0.1801 -0.1245  0.2486
 9470SOL    HW132967   1.681   6.442   3.249  1.4407 -1.2954 -2.6069
 9470SOL    HW232968   1.820   6.382   3.251  1.5725 -1.2580  2.4338
 9471SOL     OW32969   2.166   6.822   6.734  0.2114  0.2676  0.3879
 9471SOL    HW132970   2.178   6.910   6.698 -0.7896  0.6822  1.0360
 9471SOL    HW232971   2.084   6.827   6.783 -1.1944 -1.6680 -1.5446
 9472SOL     OW32972   6.732   5.148   5.593  0.3328  0.2515  0.0875
 9472SOL    HW132973   6.665   5.080   5.604  1.4605 -0.9019 -0.0158
 9472SOL    HW232974   6.686   5.229   5.615 -1.2070 -0.4551 -0.3419
 9473SOL     OW32975   7.309   3.666  10.047 -0.3694  0.5898 -0.6980
 9473SOL    HW132976   7.269   3.583  10.074  0.8914 -0.5518 -2.1271
 9473SOL    HW232977   7.237   3.718  10.012 -1.2440  0.2842  0.6088
 9474SOL     OW32978   0.937   7.339  11.164 -0.2890 -0.5553 -0.0671
 9474SOL    HW132979   0.992   7.348  11.242  0.2848  1.7047 -0.6708
 9474SOL    HW232980   0.891   7.422  11.157 -1.2266 -1.1510 -1.5057
 9475SOL     OW32981   0.701  11.352   5.038  0.0057 -0.4680 -0.2149
 9475SOL    HW132982   0.639  11.410   5.083 -0.2508  0.2264 -1.4199
 9475SOL    HW232983   0.714  11.393   4.952  1.2768 -1.2081 -0.3977
 9476SOL     OW32984   9.881   9.366   1.930 -0.4449 -0.1457  0.4275
 9476SOL    HW132985   9.796   9.361   1.886 -1.0327 -0.2232  1.5546
 9476SOL    HW232986   9.864   9.416   2.010  0.1761 -1.6909  1.5783
 9477SOL     OW32987   1.003  11.289   7.580  0.3343 -0.4533 -0.3820
 9477SOL    HW132988   1.041  11.286   7.668 -1.3130 -1.1678  0.3451
 9477SOL    HW232989   1.075  11.265   7.522  1.7692  1.1352  0.6343
 9478SOL     OW32990  10.178   4.523   3.559 -0.6194  0.3581 -1.1190
 9478SOL    HW132991  10.146   4.489   3.476  0.2093  2.6930 -2.4945
 9478SOL    HW232992  10.115   4.591   3.582  0.0284  0.8133 -0.6721
 9479SOL     OW32993   0.706   3.760   7.217 -0.0468  0.6781  0.0639
 9479SOL    HW132994   0.791   3.793   7.187 -0.1365  1.7663  0.9208
 9479SOL    HW232995   0.659   3.839   7.247 -0.7664 -0.0760  0.9898
 9480SOL     OW32996   7.709   9.797   4.459 -0.9483 -0.1298  0.2910
 9480SOL    HW132997   7.762   9.790   4.539  0.3323  1.9545 -0.2923
 9480SOL    HW232998   7.677   9.709   4.444  0.5205 -1.0116  1.9387
 9481SOL     OW32999   3.203   9.827   9.925  0.3410 -0.0640  0.1046
 9481SOL    HW133000   3.216   9.759   9.991  0.9315 -0.9250 -0.8719
 9481SOL    HW233001   3.182   9.905   9.976 -0.0291 -0.8815  1.2747
 9482SOL     OW33002   6.025  11.462   6.422 -0.3305  0.1681  0.2704
 9482SOL    HW133003   6.089  11.529   6.448 -1.0889  0.5481  1.2088
 9482SOL    HW233004   6.015  11.474   6.327 -0.8538  1.7670  0.4907
 9483SOL     OW33005   4.031   1.520   0.498  0.0724 -0.1378  0.0530
 9483SOL    HW133006   3.954   1.561   0.460 -0.9990 -2.1519 -0.0992
 9483SOL    HW233007   4.047   1.443   0.442 -0.8278 -2.5417  2.8454
 9484SOL     OW33008   5.499   4.180  11.893 -0.3650  0.8108  0.0974
 9484SOL    HW133009   5.433   4.115  11.867  0.5857  0.5751 -1.9472
 9484SOL    HW233010   5.479   4.257  11.840 -0.3847  1.5756  1.1833
 9485SOL     OW33011   0.013   9.069   8.448 -0.5496  0.1358  0.1662
 9485SOL    HW133012   0.062   8.987   8.451 -0.6119  0.0487 -0.7811
 9485SOL    HW233013  -0.045   9.065   8.524  0.7602  0.1616  1.1954
 9486SOL     OW33014   3.000  10.705   8.496 -0.4020  0.1260  0.0342
 9486SOL    HW133015   3.081  10.755   8.489  0.6729 -1.0424  2.7768
 9486SOL    HW233016   2.943  10.760   8.551 -0.1012 -0.5697  1.0700
 9487SOL     OW33017   4.724   5.396   5.477  0.0253  0.2025  0.1254
 9487SOL    HW133018   4.698   5.481   5.441 -0.3717  0.4618  1.0008
 9487SOL    HW233019   4.763   5.417   5.562  1.4436 -0.3507 -0.3515
 9488SOL     OW33020   9.023   0.983   9.011  0.2391 -0.0766 -0.3565
 9488SOL    HW133021   8.938   1.019   9.036 -0.8253 -3.2042  1.0297
 9488SOL    HW233022   9.003   0.919   8.943  1.5585 -0.5399 -0.3400
 9489SOL     OW33023   6.338   3.824   9.428 -0.3819  0.1791  0.2809
 9489SOL    HW133024   6.288   3.898   9.394 -0.0837 -0.1920 -1.0366
 9489SOL    HW233025   6.429   3.856   9.431 -0.5423  0.5297  1.7079
 9490SOL     OW33026   1.576   2.730   6.435  0.6233  0.1747 -0.1914
 9490SOL    HW133027   1.590   2.780   6.516 -0.1775  0.0341  0.0482
 9490SOL    HW233028   1.524   2.788   6.380  1.8037  0.5722 -0.9351
 9491SOL     OW33029  10.688   4.187   1.950  0.6163  0.6034 -0.2356
 9491SOL    HW133030  10.637   4.265   1.927 -1.1917  0.2497  2.1038
 9491SOL    HW233031  10.623   4.116   1.952  1.3916 -0.1211  1.6236
 9492SOL     OW33032   1.981   9.921  11.192 -0.4332  0.0071 -0.0264
 9492SOL    HW133033   1.935   9.861  11.251 -0.2604 -0.6848 -0.5845
 9492SOL    HW233034   1.912   9.965  11.142 -0.5074 -1.6496 -1.4737
 9493SOL     OW33035   3.710  10.193   4.212  0.2392 -0.1497 -0.2282
 9493SOL    HW133036   3.758  10.234   4.284  0.6331 -0.2065 -0.4542
 9493SOL    HW233037   3.718  10.099   4.229 -0.9904 -0.1417  0.5030
 9494SOL     OW33038   3.462   8.723   2.186 -0.0251 -0.2104  0.2640
 9494SOL    HW133039   3.473   8.810   2.147 -1.0553 -0.2716 -0.1927
 9494SOL    HW233040   3.549   8.701   2.219  0.3482  0.8164  0.0232
 9495SOL     OW33041   6.893   6.775   8.739 -0.2844  0.3087  0.5233
 9495SOL    HW133042   6.967   6.721   8.767 -0.8837 -0.2545  1.0380
 9495SOL    HW233043   6.875   6.831   8.814  1.1508  2.1834 -0.4342
 9496SOL     OW33044   9.609   6.667   5.842  0.5891 -0.1510  0.0410
 9496SOL    HW133045   9.519   6.696   5.826  0.5261 -0.0904  0.4893
 9496SOL    HW233046   9.600   6.582   5.884  0.7466 -0.2505 -0.1243
 9497SOL     OW33047   2.327   8.590   7.448  0.7449  0.1542 -0.5230
 9497SOL    HW133048   2.237   8.600   7.479  1.2417 -0.9479  1.4606
 9497SOL    HW233049   2.318   8.581   7.353 -1.4071 -1.5096 -0.2576
 9498SOL     OW33050   3.401   3.889   2.433 -0.0172  0.0423  0.2392
 9498SOL    HW133051   3.371   3.922   2.517 -1.0544 -0.6813  0.1688
 9498SOL    HW233052   3.490   3.923   2.424 -0.4530  1.4362  0.8990
 9499SOL     OW33053   5.780  11.141   0.068  0.0333  0.0407 -0.1897
 9499SOL    HW133054   5.721  11.145   0.144  0.3131  0.9402  0.0013
 9499SOL    HW233055   5.733  11.188  -0.001  1.2637  2.4925  0.5247
 9500SOL     OW33056  11.074   6.860  11.464 -0.0460  0.0729  0.7176
 9500SOL    HW133057  11.023   6.845  11.543  0.4088 -0.2597  0.9514
 9500SOL    HW233058  11.013   6.844  11.392  0.1580 -2.0761  0.9549
 9501SOL     OW33059   5.311   1.154  11.484  0.4291  0.5442  0.3093
 9501SOL    HW133060   5.248   1.125  11.549  0.1438  1.5648  0.5045
 9501SOL    HW233061   5.260   1.158  11.402  0.8574 -1.0280 -0.0727
 9502SOL     OW33062   9.540   4.482   7.149  0.0921  0.6384 -0.1002
 9502SOL    HW133063   9.454   4.440   7.144  0.1531  0.6790 -2.8687
 9502SOL    HW233064   9.584   4.438   7.222 -1.3094 -1.2839 -0.3525
 9503SOL     OW33065   9.354   6.745   4.139 -0.3934  0.4133 -0.2107
 9503SOL    HW133066   9.313   6.676   4.192  0.0995  0.5925  0.4101
 9503SOL    HW233067   9.298   6.821   4.153 -2.0076 -0.2632 -2.3169
 9504SOL     OW33068   3.517   0.475   5.610  0.1495  0.3416 -0.1101
 9504SOL    HW133069   3.510   0.521   5.694 -0.4207  0.0184  0.0240
 9504SOL    HW233070   3.545   0.387   5.632  0.9340  0.5217 -0.3442
 9505SOL     OW33071   9.488   5.909   5.820 -0.0858 -0.2338  0.1777
 9505SOL    HW133072   9.489   5.822   5.859  0.0691 -0.2339  0.1748
 9505SOL    HW233073   9.443   5.898   5.736 -1.6813  0.0318  0.9649
 9506SOL     OW33074   4.390   8.244   3.963  0.6565  0.1653 -0.8328
 9506SOL    HW133075   4.309   8.259   4.011  0.9078 -0.2600 -0.2708
 9506SOL    HW233076   4.393   8.315   3.898 -2.0164 -1.8321 -3.4265
 9507SOL     OW33077   2.998   7.433   8.290 -0.6548 -0.6262  0.3280
 9507SOL    HW133078   2.997   7.470   8.202 -2.3546 -2.9785 -0.7528
 9507SOL    HW233079   2.975   7.341   8.278  0.8904 -1.4968  3.0701
 9508SOL     OW33080   6.831   0.245  11.197  0.4261 -0.5567  0.1929
 9508SOL    HW133081   6.765   0.291  11.146  0.2412 -0.7312  0.2777
 9508SOL    HW233082   6.908   0.303  11.194 -0.1368  0.2598  1.1843
 9509SOL     OW33083   1.280   5.175   3.668 -0.1376 -0.5940  1.5750
 9509SOL    HW133084   1.365   5.139   3.697  0.8924 -1.6045 -2.1463
 9509SOL    HW233085   1.246   5.109   3.608 -1.2295  1.8430 -0.7002
 9510SOL     OW33086  11.832   8.753   7.403  0.1710 -0.4008 -0.4399
 9510SOL    HW133087  11.829   8.800   7.319  1.2310  1.1127  0.3349
 9510SOL    HW233088  11.802   8.665   7.381 -2.4413  0.7088 -1.8391
 9511SOL     OW33089   3.292   0.058   5.437  0.1519  0.4334 -0.8263
 9511SOL    HW133090   3.308   0.137   5.490 -1.4251  1.5686 -1.9333
 9511SOL    HW233091   3.369   0.051   5.381  0.4005  1.0795 -0.5783
 9512SOL     OW33092   5.431  10.007   6.447 -0.4833  0.3566 -0.0435
 9512SOL    HW133093   5.486   9.954   6.504 -0.0257 -0.4293 -1.1737
 9512SOL    HW233094   5.439   9.965   6.361  0.7394  2.8516 -1.2463
 9513SOL     OW33095   9.518   3.794   5.744 -0.1334  0.3736  0.3734
 9513SOL    HW133096   9.433   3.827   5.716  1.3929  2.6272 -2.1600
 9513SOL    HW233097   9.538   3.723   5.683 -0.5497 -0.8527  1.6041
 9514SOL     OW33098   8.229   3.577   6.731  0.1938  0.0781  0.4090
 9514SOL    HW133099   8.195   3.552   6.817 -0.6102  0.6192  0.2572
 9514SOL    HW233100   8.287   3.651   6.749  0.3147 -0.0391  0.5162
 9515SOL     OW33101   1.862   9.334  10.317 -0.4584 -0.0746  0.0212
 9515SOL    HW133102   1.903   9.417  10.292 -1.4294  1.0775  2.0814
 9515SOL    HW233103   1.770   9.355  10.329 -1.1975 -2.0114 -1.7015
 9516SOL     OW33104   3.063  10.690  12.041  0.4018 -0.3679 -0.1323
 9516SOL    HW133105   3.007  10.742  12.099  1.8368  1.4385 -0.2724
 9516SOL    HW233106   3.002  10.635  11.991 -1.1253  0.6180  0.5716
 9517SOL     OW33107   9.929   7.168   3.817 -0.1607  0.2905 -0.0709
 9517SOL    HW133108   9.899   7.159   3.727  0.9178  3.7068 -0.9176
 9517SOL    HW233109   9.865   7.226   3.858 -0.0230 -0.3246  1.0552
 9518SOL     OW33110   0.313   7.510   5.890 -0.5190 -0.0547 -0.3466
 9518SOL    HW133111   0.342   7.476   5.805 -2.6383  0.7461 -1.4854
 9518SOL    HW233112   0.289   7.601   5.871  3.9861  2.0267  2.3386
 9519SOL     OW33113  11.776  11.936   6.299  0.2429  0.0817  0.4354
 9519SOL    HW133114  11.807  11.877   6.368 -0.3757 -0.8917 -0.1057
 9519SOL    HW233115  11.686  11.956   6.323  1.3001  3.4066  2.3411
 9520SOL     OW33116   0.767   5.620   5.292  0.5540  0.1175 -0.2714
 9520SOL    HW133117   0.808   5.541   5.326  2.8790  0.9049 -1.0487
 9520SOL    HW233118   0.697   5.588   5.234  0.8741 -1.3253  0.1090
 9521SOL     OW33119   0.565   6.627   1.537  0.0519 -0.5636 -0.0112
 9521SOL    HW133120   0.598   6.683   1.467 -2.7118  0.6227 -0.4809
 9521SOL    HW233121   0.644   6.590   1.577  1.8041  0.4191 -2.3269
 9522SOL     OW33122   7.986   8.329   9.069  0.4568 -0.1929 -0.7226
 9522SOL    HW133123   8.047   8.273   9.021  0.1134  0.4901 -2.0060
 9522SOL    HW233124   7.903   8.321   9.021 -0.3825 -0.8190  0.7747
 9523SOL     OW33125   4.799   8.873  10.457 -0.3408  0.0602 -0.1327
 9523SOL    HW133126   4.891   8.854  10.474 -0.0814  0.4048 -1.1014
 9523SOL    HW233127   4.800   8.948  10.399 -1.2094 -0.4318 -0.8160
 9524SOL     OW33128   9.508   8.834   7.469  0.3595 -0.2738  0.1716
 9524SOL    HW133129   9.511   8.824   7.373  2.8689  1.8546 -0.0872
 9524SOL    HW233130   9.445   8.905   7.483  0.5233 -0.1065  0.0564
 9525SOL     OW33131  10.228   7.444   7.148  0.3969 -0.2953 -0.2510
 9525SOL    HW133132  10.185   7.479   7.226 -0.3918 -2.4193  0.3403
 9525SOL    HW233133  10.156   7.411   7.094  1.0293 -0.0838 -1.2502
 9526SOL     OW33134   3.634   1.782   0.907 -0.4367  0.3040  0.0812
 9526SOL    HW133135   3.542   1.759   0.921 -0.3205 -0.3202 -0.1438
 9526SOL    HW233136   3.667   1.713   0.849  0.6100 -0.3976  1.4755
 9527SOL     OW33137  10.452   1.082   8.084 -0.1571  0.0754  0.3921
 9527SOL    HW133138  10.475   1.008   8.028  0.0294 -0.5311  1.2606
 9527SOL    HW233139  10.382   1.049   8.141 -2.4121  1.5039 -1.3492
 9528SOL     OW33140  12.007  11.359   9.311  0.7471 -0.4001  0.2886
 9528SOL    HW133141  11.986  11.433   9.255 -1.6027 -1.0751  0.1738
 9528SOL    HW233142  11.953  11.288   9.278  1.7594 -1.7361  1.3934
 9529SOL     OW33143   8.676   6.123   2.679  0.0430  0.1901 -0.7194
 9529SOL    HW133144   8.639   6.209   2.697  1.0890  1.2923 -3.2593
 9529SOL    HW233145   8.602   6.070   2.649 -0.2537  0.9555 -1.3828
 9530SOL     OW33146   8.557   4.005  10.993  0.1630 -0.6510  0.2210
 9530SOL    HW133147   8.485   3.974  10.937 -0.4722  2.0044 -0.5800
 9530SOL    HW233148   8.516   4.068  11.052  1.3856 -1.1196  1.6204
 9531SOL     OW33149  11.434   6.855   7.991  0.1428 -0.2450  0.3253
 9531SOL    HW133150  11.431   6.761   7.977  0.3711 -0.4684  1.6497
 9531SOL    HW233151  11.365   6.872   8.055  0.7083  0.3459  0.7875
 9532SOL     OW33152   6.535   0.824   8.629  0.1120 -0.1555  0.4938
 9532SOL    HW133153   6.536   0.815   8.724  0.0197  1.3432  0.6680
 9532SOL    HW233154   6.625   0.803   8.602 -0.1050 -1.5517  0.7785
 9533SOL     OW33155   6.727   7.157   7.405  0.2998 -0.1083  0.1239
 9533SOL    HW133156   6.753   7.100   7.477 -0.1858  0.9768  1.2090
 9533SOL    HW233157   6.669   7.103   7.351 -0.8490 -0.4249  1.5916
 9534SOL     OW33158   6.360   1.274   3.661  0.1932  0.3758 -0.4987
 9534SOL    HW133159   6.424   1.345   3.658  0.2721  0.4433  1.5944
 9534SOL    HW233160   6.280   1.311   3.623  1.1720  0.4682 -2.6005
 9535SOL     OW33161   9.543   1.549   3.687  0.4978 -0.4186  0.3140
 9535SOL    HW133162   9.511   1.479   3.745 -0.4348 -0.5881 -0.3764
 9535SOL    HW233163   9.556   1.506   3.603  0.9980  0.0129  0.1671
 9536SOL     OW33164   8.516  10.861   9.946  0.2363 -0.1230 -0.3163
 9536SOL    HW133165   8.518  10.945   9.992 -1.5222  0.0691 -0.5243
 9536SOL    HW233166   8.594  10.815   9.976  0.6711  1.1648  0.6040
 9537SOL     OW33167   8.652   1.431   8.931  0.5697  0.5349 -0.3117
 9537SOL    HW133168   8.716   1.361   8.918 -0.3805 -0.4063 -0.0155
 9537SOL    HW233169   8.705   1.511   8.936  1.9586 -0.4274  2.1842
 9538SOL     OW33170   2.446   9.926   4.346 -0.3152  0.2912  0.3670
 9538SOL    HW133171   2.462   9.859   4.279 -0.6294 -0.7332  1.2931
 9538SOL    HW233172   2.474  10.008   4.305  0.0892 -0.4019 -0.7860
 9539SOL     OW33173   0.087   2.078   7.170  0.2705 -0.3733 -0.3119
 9539SOL    HW133174   0.171   2.118   7.147  0.2600 -0.1438  0.0374
 9539SOL    HW233175   0.029   2.101   7.097 -0.0250  1.1770  0.3595
 9540SOL     OW33176   2.865  10.645   1.794  0.2100  0.0912  0.4964
 9540SOL    HW133177   2.856  10.648   1.699  0.3266 -1.5291  0.4065
 9540SOL    HW233178   2.867  10.737   1.821  2.3960  0.6261 -1.2697
 9541SOL     OW33179   4.067   3.259   4.455  0.2575 -0.0968  0.8531
 9541SOL    HW133180   4.034   3.341   4.418  0.2041 -0.3718  0.2803
 9541SOL    HW233181   4.074   3.200   4.380 -1.6077 -1.2628  1.5328
 9542SOL     OW33182   8.984   6.643   5.842 -0.2679  0.0299  0.3386
 9542SOL    HW133183   9.050   6.648   5.911  0.4922 -0.2166 -0.3506
 9542SOL    HW233184   8.937   6.561   5.860 -0.6213  0.3740  1.0257
 9543SOL     OW33185   2.389   1.660   0.616 -0.0298  0.0586  0.3104
 9543SOL    HW133186   2.301   1.667   0.579 -0.0091  0.7356  0.3894
 9543SOL    HW233187   2.443   1.627   0.543 -0.5214 -1.2971  0.5318
 9544SOL     OW33188   3.504  10.018  11.636 -0.3856 -0.6037 -0.3964
 9544SOL    HW133189   3.558  10.085  11.680 -1.0570 -0.0843 -0.3448
 9544SOL    HW233190   3.550   9.936  11.653  1.1476 -0.0271 -1.5327
 9545SOL     OW33191   2.388   5.909   6.431  0.0594  0.0136  0.4477
 9545SOL    HW133192   2.406   5.977   6.496 -1.8135  1.2494 -0.2412
 9545SOL    HW233193   2.396   5.827   6.479  2.7379  0.6251  1.2325
 9546SOL     OW33194   2.657   6.998  10.818  0.2307  0.4972 -0.1225
 9546SOL    HW133195   2.708   6.946  10.880  0.6750  1.0537 -0.0027
 9546SOL    HW233196   2.706   6.992  10.736 -0.6344 -0.6651 -0.5767
 9547SOL     OW33197   5.438   8.613   1.247 -0.6892 -0.0043  0.1594
 9547SOL    HW133198   5.450   8.625   1.341 -1.6622  0.4675  0.2448
 9547SOL    HW233199   5.409   8.522   1.237  1.7000 -0.8261  0.0449
 9548SOL     OW33200   6.206   2.857   3.050  0.5705  0.9122 -0.8893
 9548SOL    HW133201   6.170   2.827   2.967  3.0056  0.0451 -1.7318
 9548SOL    HW233202   6.219   2.951   3.037  1.9648  0.6177 -1.9993
 9549SOL     OW33203   5.970   3.465   5.797 -0.0721  0.4949 -0.1374
 9549SOL    HW133204   5.951   3.411   5.873 -0.7487  0.9760  0.0547
 9549SOL    HW233205   6.045   3.423   5.755 -0.9786 -0.9699 -0.3676
 9550SOL     OW33206   1.377  11.428   2.219  0.0246 -0.6818 -0.1432
 9550SOL    HW133207   1.329  11.347   2.236 -1.2173 -0.6084 -2.7910
 9550SOL    HW233208   1.311  11.488   2.185  1.7535 -0.3507 -3.2715
 9551SOL     OW33209   6.849   5.243   5.343  0.3457  0.1825  0.0573
 9551SOL    HW133210   6.816   5.332   5.329 -0.2486  0.1931  1.3665
 9551SOL    HW233211   6.812   5.217   5.428  0.2064 -1.4565 -0.4792
 9552SOL     OW33212   7.148  10.965   1.100 -0.4510 -0.5455  0.3880
 9552SOL    HW133213   7.217  10.899   1.097 -1.7762 -1.9342 -0.8121
 9552SOL    HW233214   7.123  10.979   1.009  1.4565  3.5351  0.2827
 9553SOL     OW33215   5.883   4.317   5.595 -0.3651  0.1423 -0.2278
 9553SOL    HW133216   5.837   4.257   5.536 -0.4865 -0.7524  0.7539
 9553SOL    HW233217   5.823   4.327   5.669  0.2403  0.4074  0.2273
 9554SOL     OW33218   9.764   4.832  10.263 -0.2976 -0.0161 -0.0920
 9554SOL    HW133219   9.726   4.876  10.188  0.0371 -0.3056 -0.4383
 9554SOL    HW233220   9.833   4.891  10.293  0.2580 -0.3662 -0.6552
 9555SOL     OW33221   4.680   0.443   1.795 -0.0044 -0.1845 -0.7308
 9555SOL    HW133222   4.719   0.361   1.765 -0.1944 -0.1404 -1.1059
 9555SOL    HW233223   4.753   0.492   1.833  0.5584  0.4011 -2.4945
 9556SOL     OW33224   4.615  10.230   3.386  0.5699  0.3158 -0.0011
 9556SOL    HW133225   4.647  10.146   3.353 -0.7614 -1.0813  1.9793
 9556SOL    HW233226   4.687  10.264   3.439  0.3709 -0.6740  0.9370
 9557SOL     OW33227   3.657   7.205   5.365 -0.9384 -0.2951 -0.8128
 9557SOL    HW133228   3.712   7.273   5.403 -1.0335 -0.9282  0.4849
 9557SOL    HW233229   3.713   7.127   5.361 -1.3660 -0.6201 -0.6209
 9558SOL     OW33230  11.286   4.080   8.751 -0.1193  0.5542 -0.1675
 9558SOL    HW133231  11.378   4.104   8.738 -0.3683  0.8664 -1.6197
 9558SOL    HW233232  11.251   4.074   8.662 -1.6377  0.9534  0.3794
 9559SOL     OW33233   9.744   3.159   1.305  0.0815 -0.2847 -0.3450
 9559SOL    HW133234   9.768   3.130   1.392 -0.1771 -0.2080 -0.2460
 9559SOL    HW233235   9.665   3.213   1.318  0.4292  0.2870 -0.5445
 9560SOL     OW33236   8.869   3.357   4.416  0.1336 -0.4420 -0.3359
 9560SOL    HW133237   8.924   3.348   4.338 -0.8206  1.1192 -1.2445
 9560SOL    HW233238   8.833   3.445   4.410 -1.2307 -0.8544  1.0586
 9561SOL     OW33239   5.670   0.016   4.644 -0.5125  0.4209 -0.8356
 9561SOL    HW133240   5.626  -0.065   4.618 -0.1502 -0.1096  0.1322
 9561SOL    HW233241   5.647   0.079   4.576 -0.8480 -0.4788 -1.5803
 9562SOL     OW33242   8.578   9.032   9.696  0.1811 -0.7253  0.1255
 9562SOL    HW133243   8.485   9.048   9.714  0.2600  2.5847 -1.7116
 9562SOL    HW233244   8.580   9.008   9.603  1.2355  1.0308 -0.3526
 9563SOL     OW33245   6.973   9.695   1.159 -0.2361 -0.6435  0.2303
 9563SOL    HW133246   6.884   9.728   1.175 -0.1288 -0.4380  0.4190
 9563SOL    HW233247   6.970   9.660   1.070 -0.7783 -1.5745  0.6058
 9564SOL     OW33248   1.404  11.037   8.307  0.4489  0.0471  0.2999
 9564SOL    HW133249   1.324  11.089   8.313 -0.3406 -1.1435  0.4728
 9564SOL    HW233250   1.473  11.096   8.337 -0.2863  1.2321 -0.2365
 9565SOL     OW33251  11.511   5.515   5.384  0.2661  0.1437 -0.4025
 9565SOL    HW133252  11.458   5.455   5.332  0.2098  0.3821 -0.6210
 9565SOL    HW233253  11.601   5.486   5.370  0.1866 -0.3945  0.1373
 9566SOL     OW33254   1.715   9.939   3.775  0.3338 -0.2866 -0.1392
 9566SOL    HW133255   1.674   9.854   3.794 -1.4598  0.3209 -1.0070
 9566SOL    HW233256   1.778   9.920   3.706 -1.0139 -0.7400 -1.2956
 9567SOL     OW33257   9.013   0.092   0.327  0.3436  0.1799  0.3223
 9567SOL    HW133258   9.056   0.165   0.284 -0.0180  0.7384  0.8759
 9567SOL    HW233259   8.920   0.117   0.328  0.5279  1.1681  3.1429
 9568SOL     OW33260  11.570   5.373   6.430 -0.3042 -0.0948  0.3599
 9568SOL    HW133261  11.488   5.386   6.476 -0.5781  0.3919 -0.2605
 9568SOL    HW233262  11.620   5.313   6.486 -0.6157  0.5042  1.2949
 9569SOL     OW33263   7.429   6.266   5.659  0.1666 -0.0994 -0.0034
 9569SOL    HW133264   7.383   6.343   5.692 -0.1830  0.0642 -0.8404
 9569SOL    HW233265   7.365   6.195   5.663 -0.1147  0.0849 -0.9910
 9570SOL     OW33266   3.405   6.711   2.650  0.0027  0.0332 -0.4537
 9570SOL    HW133267   3.421   6.745   2.562 -0.8802  0.2236 -0.5557
 9570SOL    HW233268   3.364   6.626   2.635  1.8197 -0.9336 -0.2023
 9571SOL     OW33269   6.667  10.663   0.414  0.2331 -0.5089  0.0538
 9571SOL    HW133270   6.726  10.598   0.453  0.0233 -0.2927  0.7430
 9571SOL    HW233271   6.633  10.712   0.488 -1.2077 -0.9572 -0.2735
 9572SOL     OW33272   7.757   8.927   7.689  0.1804  0.0065 -0.1310
 9572SOL    HW133273   7.727   9.015   7.711  2.7671  1.3752 -1.5322
 9572SOL    HW233274   7.826   8.909   7.753  1.6491  0.2851 -1.5720
 9573SOL     OW33275   8.115   8.856   1.560 -0.0004  0.0152  0.0843
 9573SOL    HW133276   8.039   8.908   1.587  0.0167  0.5996 -0.9541
 9573SOL    HW233277   8.077   8.770   1.540 -0.3151  0.1642  0.0240
 9574SOL     OW33278  11.907   0.369   7.945 -0.0775 -0.4995  0.4798
 9574SOL    HW133279  11.862   0.312   8.007  1.6688  0.3969  2.7205
 9574SOL    HW233280  11.972   0.313   7.903 -0.3216 -0.7842  0.4780
 9575SOL     OW33281   1.906   1.953   0.897  0.4242 -0.0096 -0.1060
 9575SOL    HW133282   1.937   2.029   0.847 -1.6694  1.0414  0.0825
 9575SOL    HW233283   1.894   1.986   0.986  0.1886 -0.7518  0.1484
 9576SOL     OW33284   7.696  10.892   9.210  0.2359 -0.2740  0.2199
 9576SOL    HW133285   7.604  10.882   9.188  0.6171 -0.1501 -1.5628
 9576SOL    HW233286   7.739  10.815   9.172  0.7511 -0.9063  1.9719
 9577SOL     OW33287   8.638   6.957   0.743  0.2784 -0.2006  0.0661
 9577SOL    HW133288   8.620   6.995   0.656 -0.1968 -2.5835 -0.9471
 9577SOL    HW233289   8.567   6.989   0.798  0.0202  0.5380 -0.6725
 9578SOL     OW33290   5.326   6.359   3.767  0.2145 -0.2659 -0.5169
 9578SOL    HW133291   5.308   6.453   3.762  1.5931  0.1425  1.3266
 9578SOL    HW233292   5.258   6.324   3.825  0.3111 -0.2355 -0.3866
 9579SOL     OW33293  10.073   1.617   4.566  0.1316  0.0094  0.4044
 9579SOL    HW133294  10.029   1.632   4.650  0.0216  1.0295  0.1734
 9579SOL    HW233295  10.117   1.532   4.577 -0.4567 -0.1976  1.2418
 9580SOL     OW33296  10.634   0.228   5.479  0.6425 -0.2947  0.5483
 9580SOL    HW133297  10.572   0.154   5.477  1.3767 -0.9628  1.4495
 9580SOL    HW233298  10.629   0.259   5.570 -0.0362  1.1196  0.0550
 9581SOL     OW33299   1.579   7.338  10.737 -0.1687 -0.8722 -0.0292
 9581SOL    HW133300   1.576   7.247  10.764 -0.3336 -0.9860 -0.4179
 9581SOL    HW233301   1.656   7.344  10.680  0.1145 -0.6605  0.3729
 9582SOL     OW33302   9.200   1.012   4.330  0.0751  0.0310  0.4452
 9582SOL    HW133303   9.128   1.070   4.305 -1.0433 -1.3182  0.4180
 9582SOL    HW233304   9.249   1.062   4.395 -0.4152  1.2910 -0.1244
 9583SOL     OW33305  10.364   6.513  12.067  0.2493 -0.0547 -0.3833
 9583SOL    HW133306  10.390   6.539  12.155 -0.0548  1.2626 -0.6598
 9583SOL    HW233307  10.274   6.545  12.058 -0.2543 -1.4847 -0.6589
 9584SOL     OW33308   0.754   7.298   9.933 -0.6060 -0.2353  0.3007
 9584SOL    HW133309   0.694   7.288  10.007  0.8986 -0.8309  1.4730
 9584SOL    HW233310   0.822   7.358   9.965 -0.8937  0.9909 -1.2404
 9585SOL     OW33311  10.447   2.520   6.657  0.6093  0.3979 -0.3124
 9585SOL    HW133312  10.472   2.611   6.639 -1.3197  0.9382 -0.5395
 9585SOL    HW233313  10.505   2.468   6.602 -0.8569  1.7015 -3.3451
 9586SOL     OW33314   9.102   7.240   5.025  0.2080  0.0934  0.2937
 9586SOL    HW133315   9.102   7.296   4.947 -0.6096 -0.0646  0.1801
 9586SOL    HW233316   9.021   7.262   5.070  0.5851  0.0416  1.0069
 9587SOL     OW33317   8.388  10.486  11.334 -0.1426 -0.7139  0.4855
 9587SOL    HW133318   8.355  10.435  11.259 -0.9144 -0.7135  0.8112
 9587SOL    HW233319   8.451  10.428  11.376  0.5826 -0.5712 -0.3752
 9588SOL     OW33320   4.216   6.598   9.615 -0.9759 -0.2431 -0.1604
 9588SOL    HW133321   4.201   6.616   9.707 -1.2307 -1.4923  0.0618
 9588SOL    HW233322   4.273   6.521   9.614  0.4198  0.7516 -1.0491
 9589SOL     OW33323   6.229   6.066   9.517 -0.0599 -0.5759  0.2825
 9589SOL    HW133324   6.302   6.128   9.521 -1.2831  0.9639 -0.2758
 9589SOL    HW233325   6.213   6.041   9.608 -1.2831  2.0963  0.8934
 9590SOL     OW33326   2.113   5.959  10.569  0.2471  0.1791  0.1165
 9590SOL    HW133327   2.192   5.956  10.623  1.5807 -0.5658 -1.7693
 9590SOL    HW233328   2.095   6.052  10.556  1.5739  0.3651 -0.4679
 9591SOL     OW33329  12.015   4.991   0.146 -0.2142 -0.2201 -0.0081
 9591SOL    HW133330  11.933   4.950   0.174 -0.7796  0.4187 -0.6938
 9591SOL    HW233331  11.988   5.063   0.089  0.7977  0.5398  0.4456
 9592SOL     OW33332  11.724   7.796  10.699 -0.2512 -0.3158  0.0172
 9592SOL    HW133333  11.629   7.793  10.697 -0.2586  0.1625 -1.2715
 9592SOL    HW233334  11.747   7.869  10.641  0.8600  0.7834  1.7218
 9593SOL     OW33335   1.493   3.503   5.171  0.2102 -0.0835  0.2639
 9593SOL    HW133336   1.454   3.577   5.125 -1.4424  0.0123  1.7005
 9593SOL    HW233337   1.541   3.543   5.244  0.7801 -0.3508  0.0431
 9594SOL     OW33338   8.585   1.294   7.332 -0.0219 -0.4081  0.2670
 9594SOL    HW133339   8.504   1.255   7.300 -0.7383 -0.3753  1.9488
 9594SOL    HW233340   8.612   1.238   7.405  1.5393 -0.4717 -0.3213
 9595SOL     OW33341   5.214  11.312  10.181  0.0872  0.4136  0.1726
 9595SOL    HW133342   5.249  11.235  10.226  1.3521  0.9764  0.1953
 9595SOL    HW233343   5.130  11.328  10.224  0.8599  0.4133  1.7860
 9596SOL     OW33344   6.255   6.561   8.848 -0.2450 -0.3965 -0.0452
 9596SOL    HW133345   6.328   6.499   8.846  0.0932  0.0089 -1.2610
 9596SOL    HW233346   6.234   6.577   8.756 -2.0985 -0.7463  0.2646
 9597SOL     OW33347  11.981   3.386   0.650 -0.2655 -0.4725  0.5435
 9597SOL    HW133348  12.067   3.403   0.613 -0.0575  0.0829  1.2548
 9597SOL    HW233349  11.992   3.305   0.700 -0.3388 -0.7740  0.0805
 9598SOL     OW33350   7.463   5.206   3.246  0.5331 -0.2955 -0.6827
 9598SOL    HW133351   7.478   5.296   3.217  1.3603  0.0256  0.6608
 9598SOL    HW233352   7.374   5.186   3.216  0.2510  1.0388 -0.7975
 9599SOL     OW33353  11.655   7.006   2.243  0.0177  0.0214 -0.2000
 9599SOL    HW133354  11.571   7.038   2.209 -1.2560 -1.8702  1.0150
 9599SOL    HW233355  11.701   6.975   2.165 -0.5543  0.7151 -0.8418
 9600SOL     OW33356  11.396  11.996  11.011 -0.7781  0.1691 -0.4298
 9600SOL    HW133357  11.365  11.955  10.930  0.8552  1.9089 -2.0324
 9600SOL    HW233358  11.317  12.016  11.060 -2.0589  1.6149 -2.9100
 9601SOL     OW33359   6.369  11.386   4.142 -0.0613 -0.0040 -0.0943
 9601SOL    HW133360   6.455  11.357   4.174  0.1359  1.4150  0.7500
 9601SOL    HW233361   6.369  11.361   4.049  1.4771  0.4300 -0.2440
 9602SOL     OW33362   6.161   3.107   8.608  0.2003 -0.6178 -0.1140
 9602SOL    HW133363   6.237   3.064   8.569 -1.1799 -2.8250 -0.5497
 9602SOL    HW233364   6.087   3.080   8.554 -0.8976  1.8620 -0.0059
 9603SOL     OW33365  10.447   5.155  11.654 -0.0488 -0.3161  0.4640
 9603SOL    HW133366  10.500   5.235  11.658 -0.0934 -0.3091  3.8491
 9603SOL    HW233367  10.361   5.185  11.627  1.0930 -0.1272 -3.7000
 9604SOL     OW33368   2.106   2.850   4.924 -0.0732 -0.1667  0.4890
 9604SOL    HW133369   2.024   2.827   4.881 -1.1086  0.1480  2.2117
 9604SOL    HW233370   2.127   2.937   4.890  0.7414 -1.0978 -1.5796
 9605SOL     OW33371   7.957   4.875   6.560  0.4219  0.2462 -0.2705
 9605SOL    HW133372   7.911   4.955   6.586  1.9922  0.8233  0.8530
 9605SOL    HW233373   8.000   4.845   6.640 -0.6200 -2.0919 -0.5196
 9606SOL     OW33374   1.120   0.673  10.021 -0.7004  0.3163 -0.4385
 9606SOL    HW133375   1.111   0.727  10.100 -1.6514  0.0118 -0.3235
 9606SOL    HW233376   1.031   0.642  10.003 -0.3032 -0.5608 -0.9591
 9607SOL     OW33377   9.142   7.789   7.421 -0.0511  0.0233  0.0111
 9607SOL    HW133378   9.071   7.781   7.358 -1.3947 -2.8266  1.6534
 9607SOL    HW233379   9.216   7.822   7.370 -1.2966 -1.2293 -2.8526
 9608SOL     OW33380   5.440   0.922   0.558 -0.5338  0.1546  0.5823
 9608SOL    HW133381   5.534   0.939   0.567 -0.4621 -0.1046  0.3402
 9608SOL    HW233382   5.417   0.877   0.639  0.2175 -2.6205 -0.6126
 9609SOL     OW33383   7.465  10.141   5.702 -0.0957  0.1393 -0.5195
 9609SOL    HW133384   7.553  10.134   5.665  0.0822 -2.0285  0.1419
 9609SOL    HW233385   7.476  10.197   5.779  0.6373  0.2268 -0.6796
 9610SOL     OW33386   8.259   0.016   8.651 -0.2791  0.3168 -0.3599
 9610SOL    HW133387   8.235  -0.049   8.585  0.7515 -0.7302  0.2417
 9610SOL    HW233388   8.340  -0.019   8.689  1.0149  2.5624 -0.8547
 9611SOL     OW33389   7.226   3.776   1.777  0.2351  0.2986 -0.3522
 9611SOL    HW133390   7.310   3.765   1.822  0.9538  0.9626 -1.4600
 9611SOL    HW233391   7.195   3.863   1.805  1.3671  1.3371 -2.1155
 9612SOL     OW33392  11.133   6.343   3.215 -0.2949  0.3438  0.0383
 9612SOL    HW133393  11.068   6.273   3.214 -2.9098  2.5213 -3.3182
 9612SOL    HW233394  11.210   6.304   3.173 -0.7311 -1.2151  0.6026
 9613SOL     OW33395   2.703   4.864   5.973 -0.4233 -0.2010 -0.6631
 9613SOL    HW133396   2.751   4.824   5.900  1.0811  0.6918 -0.2096
 9613SOL    HW233397   2.633   4.914   5.931 -2.1472 -2.9463 -1.2499
 9614SOL     OW33398  10.315   9.068   7.269  0.2583  0.1015  0.1207
 9614SOL    HW133399  10.255   9.141   7.281  0.5958  0.5426 -0.8183
 9614SOL    HW233400  10.400   9.102   7.296  0.0014 -0.7707  2.2661
 9615SOL     OW33401   2.593   8.134   0.986  0.5459 -0.5433  0.3690
 9615SOL    HW133402   2.538   8.104   1.058 -0.2933 -0.7655 -0.3418
 9615SOL    HW233403   2.542   8.115   0.907  0.8376  0.9560 -0.2179
 9616SOL     OW33404   7.890   8.236   4.513 -0.8253  0.2620 -0.3667
 9616SOL    HW133405   7.871   8.306   4.575  0.8526  0.4092  0.0436
 9616SOL    HW233406   7.920   8.281   4.435 -1.1476  0.0249 -0.6299
 9617SOL     OW33407   4.945   8.768   1.899  0.0784  0.4827  0.0950
 9617SOL    HW133408   4.986   8.799   1.818 -0.7221 -3.1042 -1.9136
 9617SOL    HW233409   5.017   8.729   1.949 -0.0508 -1.7087 -1.3027
 9618SOL     OW33410   4.086   8.059   2.402  0.4232  0.1824 -0.4767
 9618SOL    HW133411   4.147   8.038   2.331 -1.1807 -0.8715 -1.6162
 9618SOL    HW233412   4.075   8.154   2.397  0.5880  0.1584 -1.4094
 9619SOL     OW33413   7.565   0.145   6.046 -0.5587 -0.1762 -0.5856
 9619SOL    HW133414   7.636   0.113   5.991 -0.9821  2.0762 -2.5857
 9619SOL    HW233415   7.604   0.215   6.098 -0.8174 -0.4635  0.0152
 9620SOL     OW33416   8.806   4.468   6.649 -0.3123 -0.3240 -0.4260
 9620SOL    HW133417   8.871   4.513   6.595 -0.8925 -0.7455 -1.5068
 9620SOL    HW233418   8.791   4.527   6.723 -0.8042  1.1015 -1.6296
 9621SOL     OW33419  11.960   9.762  10.240 -0.3075  0.0930  0.1973
 9621SOL    HW133420  11.927   9.773  10.151  0.9502 -1.5017 -0.5156
 9621SOL    HW233421  11.975   9.851  10.271 -0.7382  0.6797 -1.1911
 9622SOL     OW33422   2.606   3.465   3.505 -0.1693  0.3739  0.3832
 9622SOL    HW133423   2.526   3.414   3.508 -0.1104  0.3376  1.7602
 9622SOL    HW233424   2.590   3.539   3.563  0.7770  0.3843  0.6525
 9623SOL     OW33425   7.691  11.877   1.593  0.1038  0.0468 -0.6515
 9623SOL    HW133426   7.765  11.924   1.630 -0.1604  0.4759 -0.6567
 9623SOL    HW233427   7.683  11.911   1.504 -0.2863  0.2289 -0.5502
 9624SOL     OW33428   2.458   7.969   3.767  0.5308 -0.3237 -0.5591
 9624SOL    HW133429   2.465   8.033   3.697 -0.1585 -1.2964 -1.5430
 9624SOL    HW233430   2.383   7.915   3.744 -1.0811  0.6149  2.0117
 9625SOL     OW33431  10.197   8.474   2.138 -0.5299 -0.3726  0.0597
 9625SOL    HW133432  10.177   8.423   2.060 -0.3302  0.3081 -0.4414
 9625SOL    HW233433  10.142   8.552   2.131  0.4223  0.3026 -0.0542
 9626SOL     OW33434   2.888   1.648   4.387  0.1435  0.0104 -0.1958
 9626SOL    HW133435   2.812   1.605   4.349 -0.5979 -0.5099  1.7405
 9626SOL    HW233436   2.886   1.737   4.353 -1.2703 -0.0327 -0.2757
 9627SOL     OW33437   9.410   9.337  11.276  0.3751  0.9003 -1.1719
 9627SOL    HW133438   9.376   9.264  11.226 -0.2983  1.3582 -1.4011
 9627SOL    HW233439   9.339   9.401  11.276 -0.5753  0.0442  2.2788
 9628SOL     OW33440   4.379  10.304  11.087 -0.0898 -0.1332 -0.0054
 9628SOL    HW133441   4.396  10.341  11.000  2.7594  1.5656  1.1354
 9628SOL    HW233442   4.284  10.288  11.088 -0.1736 -0.7310 -3.5529
 9629SOL     OW33443   9.062  12.074   2.711  0.3630  0.1121 -0.0065
 9629SOL    HW133444   8.989  12.099   2.654 -0.4359 -0.2444  0.8269
 9629SOL    HW233445   9.074  12.149   2.769 -1.0464 -0.7519  1.5109
 9630SOL     OW33446   6.990   3.520   6.325  0.5923 -0.1001 -0.0175
 9630SOL    HW133447   6.914   3.474   6.289 -0.5405  0.0901  2.0094
 9630SOL    HW233448   7.065   3.470   6.294 -0.4818 -1.9173  0.1794
 9631SOL     OW33449   7.967  10.325   9.031 -1.0029 -0.2041 -0.1484
 9631SOL    HW133450   8.021  10.345   8.954 -0.7132 -1.1306 -0.2075
 9631SOL    HW233451   7.980  10.231   9.045 -1.3800 -0.1294  0.7855
 9632SOL     OW33452   2.805   5.186   2.976  0.0262  0.3422 -0.2191
 9632SOL    HW133453   2.765   5.154   3.057  0.2385 -0.4797 -0.4319
 9632SOL    HW233454   2.742   5.251   2.943 -0.7198 -0.2971 -0.0978
 9633SOL     OW33455   5.916   0.135   8.267  0.2741 -0.7070 -0.1686
 9633SOL    HW133456   5.941   0.156   8.357 -0.8856 -0.5820  0.1477
 9633SOL    HW233457   5.861   0.057   8.275 -1.8439  0.6600 -0.4548
 9634SOL     OW33458  10.693   7.562   9.675  0.0045 -0.2804  0.0147
 9634SOL    HW133459  10.642   7.490   9.637 -1.5441  1.0202 -0.4641
 9634SOL    HW233460  10.632   7.607   9.733  1.2567  0.0485  1.1261
 9635SOL     OW33461  12.054   4.571   0.837  0.8845  0.0046  0.5861
 9635SOL    HW133462  12.022   4.480   0.836  4.2082 -1.3194  0.4814
 9635SOL    HW233463  12.051   4.598   0.745  0.7072 -0.3564  0.4840
 9636SOL     OW33464   8.355  10.816  12.104 -0.8168 -0.1679 -0.2834
 9636SOL    HW133465   8.434  10.867  12.123  0.2992 -2.2284  0.8624
 9636SOL    HW233466   8.292  10.881  12.072  0.4476  1.9698  1.3159
 9637SOL     OW33467  11.707   5.689   1.433  0.1901 -0.0874 -0.3494
 9637SOL    HW133468  11.722   5.783   1.444  0.0148  0.0142 -0.9382
 9637SOL    HW233469  11.676   5.659   1.519  0.1227  0.4171 -0.1955
 9638SOL     OW33470  10.381   9.722  11.009  0.2408  0.1707  0.1396
 9638SOL    HW133471  10.330   9.697  11.086 -2.0163  0.2818 -1.2072
 9638SOL    HW233472  10.344   9.806  10.982  2.4648  1.2206  0.1358
 9639SOL     OW33473   7.217   6.724   1.514  0.1434 -0.5727  0.4536
 9639SOL    HW133474   7.219   6.735   1.419 -0.0381 -0.0209  0.5079
 9639SOL    HW233475   7.170   6.801   1.546  1.6971  0.1339  1.1304
 9640SOL     OW33476   9.562   4.716   6.732 -0.2531 -0.1809  0.4373
 9640SOL    HW133477   9.596   4.805   6.737  0.6273 -0.4610 -0.2780
 9640SOL    HW233478   9.597   4.672   6.809 -0.4995  0.0207  0.6669
 9641SOL     OW33479   8.205   9.934   1.586  0.0482 -0.0671  0.3554
 9641SOL    HW133480   8.117   9.916   1.618  0.2117  1.6494  1.9731
 9641SOL    HW233481   8.192   9.998   1.516  0.0141  0.2951  0.6920
 9642SOL     OW33482   9.628  10.731  12.105 -0.0147  0.1792 -0.1802
 9642SOL    HW133483   9.573  10.661  12.071  0.3172  0.3081 -0.9953
 9642SOL    HW233484   9.700  10.739  12.042  0.0250  1.1617 -0.0345
 9643SOL     OW33485  11.525  10.032  10.409  0.1387  0.0149  0.2392
 9643SOL    HW133486  11.441  10.029  10.364  0.7441  1.3391 -1.0833
 9643SOL    HW233487  11.507   9.997  10.496 -1.5610 -0.5999 -0.3169
 9644SOL     OW33488   9.315   8.283  10.265  0.4120  0.0743 -0.5148
 9644SOL    HW133489   9.265   8.364  10.256 -0.6120 -0.2372  1.6431
 9644SOL    HW233490   9.338   8.279  10.358  0.0395 -2.3185 -0.4539
 9645SOL     OW33491   5.167   6.044   4.927 -0.2018 -0.5436 -0.5054
 9645SOL    HW133492   5.125   6.081   5.004 -0.2675 -2.8391  0.6637
 9645SOL    HW233493   5.143   6.102   4.855 -0.4038  1.4905  1.1235
 9646SOL     OW33494   7.586   2.618  11.456 -0.2323  0.0573  0.1015
 9646SOL    HW133495   7.535   2.662  11.524  0.1544  0.6962 -0.0120
 9646SOL    HW233496   7.658   2.678  11.438  0.6353 -0.8887  0.3500
 9647SOL     OW33497   4.796   4.847   4.771 -0.0961 -1.0740 -0.0313
 9647SOL    HW133498   4.861   4.785   4.806  0.8897  0.6346  1.3466
 9647SOL    HW233499   4.809   4.926   4.823 -0.9072  0.5065 -2.1245
 9648SOL     OW33500   2.707  11.665  11.021 -0.2589  0.3689  0.1700
 9648SOL    HW133501   2.658  11.632  11.096 -1.6544 -0.6499 -1.1208
 9648SOL    HW233502   2.686  11.758  11.018  0.3292  0.5490  1.4063
 9649SOL     OW33503   7.938   2.269   4.143 -0.4180 -0.3909  0.0937
 9649SOL    HW133504   7.959   2.177   4.160 -0.1383 -0.1969  0.7934
 9649SOL    HW233505   7.920   2.272   4.049  1.0349 -0.8880 -0.2330
 9650SOL     OW33506   4.459   5.729   5.977  0.0436  0.1051  0.0813
 9650SOL    HW133507   4.407   5.686   5.909  0.2186 -0.8345  0.5326
 9650SOL    HW233508   4.395   5.780   6.027  0.0487  1.6005 -1.3615
 9651SOL     OW33509   4.428   0.176   3.704 -0.1197 -0.4674  0.0931
 9651SOL    HW133510   4.481   0.255   3.700 -0.9524  0.0668 -0.9387
 9651SOL    HW233511   4.346   0.204   3.746 -0.1963 -0.9285  0.2636
 9652SOL     OW33512   3.942   0.093   3.199  0.1288 -0.0753  0.3177
 9652SOL    HW133513   3.882   0.163   3.176 -0.6379  0.3156  3.1691
 9652SOL    HW233514   3.886   0.015   3.208  0.8020 -0.8520 -1.6261
 9653SOL     OW33515   0.674   0.022  11.301  0.2406  0.2924  0.4006
 9653SOL    HW133516   0.701  -0.024  11.221  2.1536  1.2860  0.4280
 9653SOL    HW233517   0.579   0.031  11.291  0.0523 -1.8746 -0.5135
 9654SOL     OW33518   2.132   8.789   3.938  0.8715 -0.4174  0.2311
 9654SOL    HW133519   2.113   8.695   3.947  0.9568 -0.7747 -2.3786
 9654SOL    HW233520   2.211   8.802   3.990 -0.5865 -1.1500  2.8139
 9655SOL     OW33521   0.060   2.087   4.812 -0.4947  0.3177 -0.2055
 9655SOL    HW133522  -0.008   2.140   4.852 -1.1034 -1.1794  0.8127
 9655SOL    HW233523   0.021   2.000   4.803 -0.3478  0.4534 -3.9176
 9656SOL     OW33524   5.692  10.181   1.457  0.7235  0.6101 -0.5610
 9656SOL    HW133525   5.643  10.117   1.405 -0.1659  0.4699  0.4223
 9656SOL    HW233526   5.669  10.266   1.417 -0.2818  0.5396 -0.1571
 9657SOL     OW33527   1.413  10.658   4.601 -0.1884  0.8034  0.1553
 9657SOL    HW133528   1.446  10.720   4.666 -0.7149 -0.4088  1.6214
 9657SOL    HW233529   1.344  10.707   4.556  0.0972  1.6209  0.5825
 9658SOL     OW33530   6.588   9.914  10.291 -0.3109 -0.1458 -0.6377
 9658SOL    HW133531   6.605   9.958  10.375 -0.5660 -0.7487 -0.2632
 9658SOL    HW233532   6.496   9.888  10.296  0.1284 -1.7195 -0.3725
 9659SOL     OW33533   9.991   6.258   8.992  0.8075  0.5570 -0.5386
 9659SOL    HW133534  10.010   6.339   9.039  0.7755  1.0382 -1.3263
 9659SOL    HW233535   9.954   6.287   8.908 -0.8530 -0.3154 -0.1414
 9660SOL     OW33536   5.850  11.786   1.518 -0.5483  0.0801 -0.1191
 9660SOL    HW133537   5.893  11.701   1.513  1.8375  1.2104  0.1301
 9660SOL    HW233538   5.813  11.790   1.606 -0.2517 -0.4878  0.0310
 9661SOL     OW33539   1.081   0.274   5.241  0.2449  0.1200 -0.3579
 9661SOL    HW133540   1.009   0.226   5.283  1.1837  0.5461  1.8967
 9661SOL    HW233541   1.158   0.252   5.293  1.4789  0.8400 -1.8091
 9662SOL     OW33542   3.915   0.050  10.160  0.3199 -0.4968  0.3518
 9662SOL    HW133543   3.934   0.143  10.171  0.5288 -0.6350  1.1750
 9662SOL    HW233544   3.970   0.024  10.086 -1.3145  0.4951 -1.3031
 9663SOL     OW33545  11.995   3.302   1.557  0.1751  0.8164 -0.2751
 9663SOL    HW133546  12.071   3.277   1.505 -0.3801  1.2062 -1.2828
 9663SOL    HW233547  11.944   3.360   1.501 -1.1227  0.1774  0.1929
 9664SOL     OW33548   9.704   4.327   3.367  0.6993 -0.1219  0.3123
 9664SOL    HW133549   9.687   4.309   3.275  1.8421  3.5428 -0.7776
 9664SOL    HW233550   9.634   4.281   3.414 -1.2696 -0.2986 -2.5475
 9665SOL     OW33551   9.056   8.762   0.363  0.2786 -0.6610 -0.1144
 9665SOL    HW133552   9.128   8.762   0.300  2.0921  1.4524  1.7909
 9665SOL    HW233553   9.001   8.836   0.338  0.8081 -0.0331  0.5527
 9666SOL     OW33554   0.886   2.215   5.652  0.2512 -0.1731  0.5846
 9666SOL    HW133555   0.953   2.168   5.701 -1.1431 -2.1022  0.7553
 9666SOL    HW233556   0.908   2.308   5.664  2.0378 -0.6987  1.7905
 9667SOL     OW33557   2.586  11.303   7.418  0.0797 -0.3750  0.0193
 9667SOL    HW133558   2.570  11.226   7.472 -1.3083 -0.0763  0.0929
 9667SOL    HW233559   2.523  11.295   7.347 -0.3130  0.8458  0.2084
 9668SOL     OW33560   1.419   0.940  11.264  0.4942 -0.2451 -0.1343
 9668SOL    HW133561   1.509   0.913  11.281  0.7284 -0.3620 -1.4147
 9668SOL    HW233562   1.417   1.032  11.287  0.7392 -0.4143  0.5966
 9669SOL     OW33563   2.609  10.072  10.037  0.0134  0.2287 -0.1360
 9669SOL    HW133564   2.560  10.129   9.978 -0.1708  0.3953  0.1776
 9669SOL    HW233565   2.558  10.070  10.118  0.0890 -0.2674 -0.0939
 9670SOL     OW33566   1.771  10.106   5.262  0.1695 -0.6185 -0.2360
 9670SOL    HW133567   1.802  10.070   5.179 -2.5669 -2.7087 -0.5079
 9670SOL    HW233568   1.682  10.137   5.243 -0.1041 -0.1229  1.6630
 9671SOL     OW33569   8.525   2.835   2.079 -0.0227 -0.1088  0.7769
 9671SOL    HW133570   8.591   2.767   2.081  0.7018  0.5769  0.7201
 9671SOL    HW233571   8.500   2.848   2.171  0.4694  0.1473  0.8758
 9672SOL     OW33572   9.682  12.061   2.776 -0.0927  0.2641 -0.3315
 9672SOL    HW133573   9.746  12.118   2.817 -0.7763  0.9993 -0.2611
 9672SOL    HW233574   9.597  12.092   2.809 -0.5135 -0.4390 -0.7151
 9673SOL     OW33575  11.854   4.687   1.136 -0.0791 -0.2534 -0.5823
 9673SOL    HW133576  11.890   4.729   1.058 -0.8149  1.7319  0.0768
 9673SOL    HW233577  11.919   4.701   1.204 -0.9298  1.1074 -0.0130
 9674SOL     OW33578  11.356   6.728   1.446 -1.0915  0.5421 -0.0045
 9674SOL    HW133579  11.404   6.687   1.518 -1.0877 -0.8412 -0.7458
 9674SOL    HW233580  11.422   6.778   1.399 -0.8348  0.4388  0.2402
 9675SOL     OW33581   4.510   0.758   9.562 -0.8046 -0.0084  0.0212
 9675SOL    HW133582   4.502   0.723   9.651 -1.0097 -0.9385 -0.3529
 9675SOL    HW233583   4.515   0.853   9.574  0.3019 -0.1854  1.0901
 9676SOL     OW33584  11.765   4.416   5.893 -0.0286 -0.8633  0.6514
 9676SOL    HW133585  11.698   4.461   5.842  2.3998  3.2614  0.6787
 9676SOL    HW233586  11.730   4.414   5.983 -1.5676 -2.2367  0.0762
 9677SOL     OW33587   7.186  12.042   3.886 -0.7572 -0.3503  0.4776
 9677SOL    HW133588   7.223  12.034   3.799 -1.2863 -0.1432  0.2326
 9677SOL    HW233589   7.143  12.127   3.887  1.7986  1.0814  1.9209
 9678SOL     OW33590   0.662   3.384  10.489 -0.0391  0.1485 -0.1313
 9678SOL    HW133591   0.619   3.308  10.529 -1.5675  0.1285 -1.7025
 9678SOL    HW233592   0.716   3.346  10.419  1.1290  0.3319  0.6558
 9679SOL     OW33593   1.799   8.550   4.973 -0.3638 -0.2140 -0.4053
 9679SOL    HW133594   1.739   8.550   5.048  0.8508 -1.4261  0.6169
 9679SOL    HW233595   1.859   8.478   4.991 -0.6187 -1.1957 -3.0703
 9680SOL     OW33596  11.445   6.181   8.684  0.1744  0.2294  0.2716
 9680SOL    HW133597  11.495   6.231   8.749 -0.1147  0.0398  0.6442
 9680SOL    HW233598  11.428   6.097   8.727  0.3762 -0.0676 -0.2251
 9681SOL     OW33599  11.791   9.428   6.256  0.8752  0.2468 -0.2791
 9681SOL    HW133600  11.787   9.515   6.296 -0.2948  0.7603 -1.4385
 9681SOL    HW233601  11.744   9.371   6.318 -0.9745  1.0423 -0.8813
 9682SOL     OW33602   5.753   5.778   5.998 -0.0560 -0.7504 -0.0128
 9682SOL    HW133603   5.725   5.703   6.050  0.3264 -1.9456 -1.4703
 9682SOL    HW233604   5.751   5.851   6.060 -0.7777 -1.8705  1.3622
 9683SOL     OW33605   0.041   7.102   4.509 -0.3457  0.2543 -0.5927
 9683SOL    HW133606   0.087   7.096   4.593 -0.1854  0.6669 -0.6505
 9683SOL    HW233607   0.097   7.053   4.448  0.1378  0.9347 -0.7099
 9684SOL     OW33608   2.388   0.567   3.053 -0.1703  0.0988 -0.4087
 9684SOL    HW133609   2.304   0.536   3.019  0.0637 -0.2707 -0.6490
 9684SOL    HW233610   2.413   0.639   2.995 -1.2396  1.4941  0.7844
 9685SOL     OW33611   9.783   4.024   3.108  0.5200 -0.1002  0.0394
 9685SOL    HW133612   9.839   4.038   3.184  1.8326 -0.2151 -0.8791
 9685SOL    HW233613   9.712   4.087   3.118  0.7482 -0.0199  1.2737
 9686SOL     OW33614   1.425  10.231  10.438 -0.1671  0.3996 -0.2397
 9686SOL    HW133615   1.350  10.207  10.493  1.1107  0.5029  1.6640
 9686SOL    HW233616   1.501  10.206  10.490  1.2179 -2.5375 -3.3576
 9687SOL     OW33617   4.381   5.024   8.344  0.4648 -0.2730  0.1321
 9687SOL    HW133618   4.314   4.959   8.326 -0.3854  0.7945 -0.6764
 9687SOL    HW233619   4.461   4.987   8.305  0.0570 -0.9360 -0.0962
 9688SOL     OW33620  11.226   0.324   1.477 -0.4464  0.1266 -0.4378
 9688SOL    HW133621  11.227   0.262   1.550  1.0959  1.1956  0.5230
 9688SOL    HW233622  11.211   0.271   1.399 -0.1738 -1.3055  0.4605
 9689SOL     OW33623   5.962   1.473   3.835 -0.4059 -0.0268 -0.0452
 9689SOL    HW133624   6.000   1.560   3.824  0.7276 -0.6841 -1.8465
 9689SOL    HW233625   6.032   1.420   3.872 -0.3177 -0.6873 -1.1133
 9690SOL     OW33626   9.227   6.505  10.048  0.3581 -0.1753  0.3493
 9690SOL    HW133627   9.241   6.547  10.133 -2.1591  1.6177 -0.0275
 9690SOL    HW233628   9.190   6.419  10.069  0.1773  0.0771  1.0854
 9691SOL     OW33629   0.314   8.720   8.776 -0.6040  0.5508 -0.3009
 9691SOL    HW133630   0.390   8.722   8.718 -2.8717 -1.7854 -3.7111
 9691SOL    HW233631   0.254   8.658   8.735 -3.4501  0.4887  3.4360
 9692SOL     OW33632   5.976   8.825   9.157  0.6185 -0.3535  0.1804
 9692SOL    HW133633   5.970   8.738   9.196  1.5983  0.0395  1.2591
 9692SOL    HW233634   6.014   8.810   9.070  0.5586 -1.0269  0.2698
 9693SOL     OW33635   7.075   7.687   1.176  0.4285  0.9906  0.6250
 9693SOL    HW133636   7.118   7.772   1.178  0.3291  1.0853 -0.5830
 9693SOL    HW233637   7.051   7.674   1.084 -0.5994  0.1816  0.9800
 9694SOL     OW33638   5.089   3.791   2.619  0.0136 -0.0300 -0.4305
 9694SOL    HW133639   5.135   3.785   2.535 -0.2267  0.5246 -0.6072
 9694SOL    HW233640   5.014   3.848   2.601  0.9022  1.5109  0.5610
 9695SOL     OW33641   8.410   6.015   5.149 -0.3457 -0.1404  0.1674
 9695SOL    HW133642   8.440   6.062   5.071 -0.4275  0.4547  0.4927
 9695SOL    HW233643   8.327   6.056   5.172  0.3332  0.6095  1.3693
 9696SOL     OW33644   1.504   0.372   3.897  0.0288 -0.4515 -0.0073
 9696SOL    HW133645   1.415   0.345   3.920  0.0469 -1.6834 -1.2268
 9696SOL    HW233646   1.506   0.369   3.801  0.6548  2.0967 -0.1374
 9697SOL     OW33647  11.326   2.646   8.260 -0.1333  0.0296 -0.2072
 9697SOL    HW133648  11.363   2.605   8.182  2.0362  1.9950 -0.3208
 9697SOL    HW233649  11.401   2.684   8.305 -1.4259 -0.3610  2.4614
 9698SOL     OW33650   8.105  11.911   7.753  0.5818 -0.1944 -0.3598
 9698SOL    HW133651   8.112  11.906   7.658  1.6607 -1.8813 -0.2222
 9698SOL    HW233652   8.015  11.941   7.769  0.0433 -0.9080 -1.8837
 9699SOL     OW33653   6.395   3.138   0.816  0.5850  0.2515  0.0031
 9699SOL    HW133654   6.395   3.233   0.809  3.1456  0.2270 -1.1137
 9699SOL    HW233655   6.419   3.121   0.908 -0.6860  0.6266  0.4321
 9700SOL     OW33656   9.368   3.512   8.793  0.1235  0.5105  0.1697
 9700SOL    HW133657   9.421   3.526   8.872  1.4150 -0.0149 -0.5701
 9700SOL    HW233658   9.336   3.422   8.802  0.5433  0.3349 -0.0437
 9701SOL     OW33659   7.288   2.999   5.024 -0.5473  0.1351 -0.1219
 9701SOL    HW133660   7.250   2.994   5.112 -0.6938  1.0884 -0.1149
 9701SOL    HW233661   7.375   2.959   5.033 -0.5813  0.1839  0.4457
 9702SOL     OW33662   7.609   5.531   1.353  0.1405  0.4006  0.0428
 9702SOL    HW133663   7.593   5.558   1.443 -0.0416  0.4655 -0.0083
 9702SOL    HW233664   7.700   5.556   1.336  0.6110 -0.8302  0.6474
 9703SOL     OW33665  10.715   2.848   2.624 -0.2692  0.3934 -0.4886
 9703SOL    HW133666  10.649   2.797   2.672  1.0118 -0.6857  0.1925
 9703SOL    HW233667  10.723   2.803   2.540  0.1039  0.1142 -0.3011
 9704SOL     OW33668   4.424  11.779   1.352  0.1014  0.3401 -0.0718
 9704SOL    HW133669   4.479  11.722   1.404 -0.8150 -1.2074 -0.7139
 9704SOL    HW233670   4.358  11.812   1.413  1.0788  1.3611  0.4647
 9705SOL     OW33671   4.246  10.127   7.354 -0.0836 -0.1292 -0.0523
 9705SOL    HW133672   4.331  10.127   7.310  0.8498 -1.0217  1.6680
 9705SOL    HW233673   4.220  10.219   7.356  2.5157  0.6721  2.4201
 9706SOL     OW33674   3.123   5.360   4.065  0.5357  0.0068 -0.4326
 9706SOL    HW133675   3.203   5.384   4.019  0.6713  2.2134  0.7890
 9706SOL    HW233676   3.052   5.397   4.013  0.5016  0.2029 -0.2499
 9707SOL     OW33677  11.755  11.528   6.029  0.2423  0.0495 -0.0196
 9707SOL    HW133678  11.717  11.555   6.113 -2.3608 -2.5893 -0.2055
 9707SOL    HW233679  11.722  11.593   5.966 -1.7770 -0.5869  0.3072
 9708SOL     OW33680   1.845   2.742   1.475  0.0262  0.0639 -0.3043
 9708SOL    HW133681   1.888   2.660   1.501  2.7160  2.1728  2.6783
 9708SOL    HW233682   1.766   2.745   1.529  2.1131  1.2191  3.0064
 9709SOL     OW33683   3.260  11.521  11.878  0.0682  0.2868  0.1751
 9709SOL    HW133684   3.252  11.537  11.783  0.7511  1.3000  0.2665
 9709SOL    HW233685   3.342  11.474  11.887 -0.4517 -0.6297  0.1900
 9710SOL     OW33686   8.638   0.834  11.777 -0.2170 -0.4501  0.1583
 9710SOL    HW133687   8.601   0.837  11.689 -1.3361 -0.6113  0.6160
 9710SOL    HW233688   8.685   0.750  11.780  0.8845  0.0962 -0.6722
 9711SOL     OW33689   2.754   8.091   5.199 -0.1147  0.2005  0.0433
 9711SOL    HW133690   2.806   8.140   5.135 -0.9959  0.4570 -0.4793
 9711SOL    HW233691   2.728   8.012   5.152 -0.3757  0.1747  0.2351
 9712SOL     OW33692   0.259  11.551   3.834 -0.4098  0.5112 -0.6841
 9712SOL    HW133693   0.194  11.533   3.902 -1.4316  0.9506 -1.5135
 9712SOL    HW233694   0.330  11.597   3.880 -0.9443  0.5413  0.1340
 9713SOL     OW33695   8.583   0.370   1.285 -0.4104  0.4068 -0.0509
 9713SOL    HW133696   8.570   0.347   1.376 -0.5367 -0.0866 -0.1900
 9713SOL    HW233697   8.504   0.417   1.260 -2.0373 -2.4916 -0.8702
 9714SOL     OW33698   1.753   6.241   1.724  0.1252  0.2786  0.2569
 9714SOL    HW133699   1.708   6.164   1.688 -1.7639  0.4042  2.1194
 9714SOL    HW233700   1.802   6.207   1.798  2.3860  0.3339 -1.1264
 9715SOL     OW33701   0.996   0.933   5.065 -0.0108  0.0307  0.0591
 9715SOL    HW133702   0.925   0.925   5.129  0.3391 -1.1872  0.3266
 9715SOL    HW233703   0.976   0.867   4.999  0.6911 -0.0866 -0.0403
 9716SOL     OW33704   7.755   9.231   9.264  0.8183  0.2718  0.4877
 9716SOL    HW133705   7.765   9.323   9.291 -0.5240  1.0956 -1.5265
 9716SOL    HW233706   7.826   9.185   9.308  1.6342  2.3033  1.4388
 9717SOL     OW33707   3.106   3.838  10.628 -0.2446 -0.6195  0.0919
 9717SOL    HW133708   3.080   3.924  10.661 -2.2196 -1.2079  0.2424
 9717SOL    HW233709   3.024   3.788  10.624  0.7377 -2.2837 -0.6373
 9718SOL     OW33710   8.756   9.127   2.876 -0.3392  0.4669  0.0371
 9718SOL    HW133711   8.677   9.169   2.910 -0.8759 -1.2951  1.0750
 9718SOL    HW233712   8.822   9.140   2.943 -1.4840 -3.2897  2.2194
 9719SOL     OW33713   9.389  11.244   9.422  0.5374  0.6502  0.4648
 9719SOL    HW133714   9.372  11.204   9.508 -0.3766 -0.7889 -0.3459
 9719SOL    HW233715   9.380  11.171   9.360 -0.1006  1.9086 -0.9791
 9720SOL     OW33716   9.992  11.463   0.414 -0.2119 -0.3462  0.6928
 9720SOL    HW133717  10.050  11.431   0.345 -0.7615 -0.6193  0.3505
 9720SOL    HW233718  10.049  11.514   0.471  0.0115  0.9679 -0.6522
 9721SOL     OW33719   1.312   6.568   2.460  0.2258  0.5075  0.1231
 9721SOL    HW133720   1.269   6.506   2.402  3.8955 -2.7285  0.4606
 9721SOL    HW233721   1.254   6.575   2.536 -0.9532 -1.4622 -0.5300
 9722SOL     OW33722   9.390  10.906   1.823  0.4220  0.4168 -0.3789
 9722SOL    HW133723   9.418  10.997   1.825  1.8780 -0.0058  1.3596
 9722SOL    HW233724   9.460  10.861   1.775  1.2157 -0.1935  1.2990
 9723SOL     OW33725  11.630   4.406   9.941 -0.2909 -0.2989 -0.2726
 9723SOL    HW133726  11.580   4.375   9.866  0.1743 -0.8657 -0.3612
 9723SOL    HW233727  11.691   4.471   9.904  1.0559 -1.7302 -0.7052
 9724SOL     OW33728   7.480   3.491   3.654 -0.1048  0.3345 -0.2666
 9724SOL    HW133729   7.570   3.474   3.627 -0.6035  1.0469 -2.6119
 9724SOL    HW233730   7.427   3.443   3.591 -1.3870  1.4740 -0.1005
 9725SOL     OW33731   7.839   1.911  11.668 -0.9122  0.1512  0.1671
 9725SOL    HW133732   7.804   1.832  11.627  0.7235 -0.7835  0.4983
 9725SOL    HW233733   7.884   1.957  11.597 -0.2103 -0.1975  0.3867
 9726SOL     OW33734   7.149   2.612  11.179  0.3417  0.0530 -0.0520
 9726SOL    HW133735   7.180   2.523  11.160 -0.2077  0.1066 -1.3098
 9726SOL    HW233736   7.130   2.611  11.273 -0.0570 -1.2973 -0.1185
 9727SOL     OW33737   2.189   4.755   2.139  0.2820 -0.0739 -0.2418
 9727SOL    HW133738   2.200   4.787   2.228 -1.0325  1.5149 -0.5932
 9727SOL    HW233739   2.128   4.682   2.146 -0.3637  0.4870  0.1146
 9728SOL     OW33740   5.091  11.797   1.155 -0.6376  0.4454  0.3829
 9728SOL    HW133741   5.114  11.820   1.245 -0.2629  0.9453  0.1647
 9728SOL    HW233742   5.104  11.878   1.105  0.7297 -0.2081 -0.4008
 9729SOL     OW33743   0.609   2.814   8.584  0.3763 -0.4181 -0.1299
 9729SOL    HW133744   0.619   2.783   8.674  2.4842  0.5886  0.0385
 9729SOL    HW233745   0.668   2.889   8.577 -0.5904  0.2520 -2.0419
 9730SOL     OW33746  11.468  11.982   4.816 -0.3737 -0.7617 -0.2100
 9730SOL    HW133747  11.446  12.037   4.891  3.2850 -0.4686  0.8556
 9730SOL    HW233748  11.471  11.893   4.853 -0.5796 -0.8912 -0.5057
 9731SOL     OW33749  10.811   2.145   0.323 -0.5400  0.0850  0.2720
 9731SOL    HW133750  10.720   2.164   0.299 -0.2570  0.2340 -0.7000
 9731SOL    HW233751  10.830   2.207   0.393 -0.6739  1.1849 -0.6307
 9732SOL     OW33752  11.101   8.057  11.421 -0.0868 -0.6961 -0.4264
 9732SOL    HW133753  11.055   8.038  11.502  0.5083  1.0662  0.3679
 9732SOL    HW233754  11.193   8.064  11.446  0.0567  0.3187 -1.1450
 9733SOL     OW33755   6.763   7.836   2.439 -0.7228 -0.4489  0.1181
 9733SOL    HW133756   6.750   7.844   2.534  0.2643 -0.0168  0.2361
 9733SOL    HW233757   6.715   7.911   2.402  1.0916  0.9960  0.5198
 9734SOL     OW33758   1.871   6.899  11.468 -0.5901 -0.5043 -0.4966
 9734SOL    HW133759   1.838   6.981  11.506 -0.6879 -0.7579 -0.0307
 9734SOL    HW233760   1.966   6.902  11.484 -0.9430 -1.9931  2.5521
 9735SOL     OW33761  10.751   6.782   1.395 -0.4479 -0.0008 -0.0055
 9735SOL    HW133762  10.763   6.688   1.404  0.4363  0.1888  1.0346
 9735SOL    HW233763  10.787   6.819   1.476 -0.9564  1.2165 -0.3098
 9736SOL     OW33764   1.237   1.116   0.729  0.3566 -0.2958  0.4471
 9736SOL    HW133765   1.240   1.102   0.634 -0.4918 -0.1326  0.3809
 9736SOL    HW233766   1.286   1.197   0.743  0.9720 -0.6230  0.2223
 9737SOL     OW33767   7.696   3.517   5.905 -0.8409 -0.1345  0.3342
 9737SOL    HW133768   7.645   3.513   5.824 -0.5729  1.2754  0.0667
 9737SOL    HW233769   7.651   3.459   5.965 -2.0621  0.1361 -0.2809
 9738SOL     OW33770   9.958   8.780   8.149  0.0003  0.3245 -0.2030
 9738SOL    HW133771  10.033   8.776   8.090 -0.5252  0.7609 -0.9197
 9738SOL    HW233772   9.986   8.732   8.227  1.0717  0.6111 -0.3956
 9739SOL     OW33773  11.180   8.599   7.646  0.6212 -0.1241 -0.2457
 9739SOL    HW133774  11.249   8.659   7.616  0.1758 -0.7291 -2.7229
 9739SOL    HW233775  11.100   8.651   7.640  0.4826 -0.3611 -0.4684
 9740SOL     OW33776   8.581  10.125  11.120 -0.4007 -0.5304  0.1823
 9740SOL    HW133777   8.501  10.134  11.068 -1.6275 -0.7462  1.9422
 9740SOL    HW233778   8.652  10.130  11.056 -1.7718  0.6141 -1.3312
 9741SOL     OW33779   3.071   2.629   1.465  0.6563  0.9087 -0.1700
 9741SOL    HW133780   3.074   2.575   1.544  0.4012  2.2577  0.7967
 9741SOL    HW233781   2.980   2.624   1.437  0.3661  1.7226  0.5794
 9742SOL     OW33782   7.214   0.933   7.548 -0.1221  0.1444 -0.3859
 9742SOL    HW133783   7.161   0.888   7.482  0.7715  0.4043 -1.3202
 9742SOL    HW233784   7.216   1.024   7.518 -1.1234  0.6433  0.9609
 9743SOL     OW33785   2.791   9.292   4.454  0.0661  0.1171 -0.5746
 9743SOL    HW133786   2.803   9.368   4.396  0.1298  0.1926 -0.4646
 9743SOL    HW233787   2.814   9.217   4.400  1.5819  0.2958 -0.2258
 9744SOL     OW33788   4.388   4.235   8.336 -0.1601 -0.1633 -0.2907
 9744SOL    HW133789   4.393   4.140   8.345 -0.3559 -0.1950 -0.4922
 9744SOL    HW233790   4.446   4.255   8.263  0.4612 -0.0451  0.2350
 9745SOL     OW33791   2.888   9.696   7.852 -0.1913 -0.2483  0.0668
 9745SOL    HW133792   2.938   9.777   7.841  0.3924 -0.5238  0.6364
 9745SOL    HW233793   2.835   9.691   7.773 -1.5417  1.5774  0.7783
 9746SOL     OW33794   5.273  11.959  12.105  0.2663 -0.2078 -0.0888
 9746SOL    HW133795   5.340  11.933  12.168 -1.8113 -0.5061  2.1750
 9746SOL    HW233796   5.199  11.901  12.124 -0.2108 -0.9147 -3.4665
 9747SOL     OW33797   8.687  10.279   7.993  0.6002  0.1169 -0.2599
 9747SOL    HW133798   8.695  10.291   8.087 -1.3454 -1.6330  0.1977
 9747SOL    HW233799   8.608  10.327   7.969  1.9993  2.0369 -1.4022
 9748SOL     OW33800   3.301   6.158   9.083 -0.5991 -0.4226 -0.2444
 9748SOL    HW133801   3.370   6.095   9.102 -1.0742 -0.1751  2.7115
 9748SOL    HW233802   3.274   6.191   9.168 -2.5492  1.4697 -1.4882
 9749SOL     OW33803  11.245   9.455   4.013 -0.1300 -0.1385 -0.1522
 9749SOL    HW133804  11.296   9.527   3.975  0.3371 -0.8257 -0.8688
 9749SOL    HW233805  11.303   9.416   4.077 -0.3232  0.0159  0.1169
 9750SOL     OW33806  11.887   5.714   3.483  0.6055 -0.7370  0.4533
 9750SOL    HW133807  11.849   5.656   3.549  0.7373 -2.2951 -0.8018
 9750SOL    HW233808  11.820   5.719   3.414  0.8007  0.2248  0.3198
 9751SOL     OW33809   4.774   0.146   2.502  0.0697 -0.5298  0.2344
 9751SOL    HW133810   4.694   0.177   2.460 -0.0105  0.4827  1.1078
 9751SOL    HW233811   4.756   0.149   2.595  0.0940 -3.1999  0.4172
 9752SOL     OW33812   6.236   9.456   8.450  0.2121  0.5275 -0.0283
 9752SOL    HW133813   6.148   9.486   8.469  0.1904 -1.2008  3.1589
 9752SOL    HW233814   6.293   9.525   8.484  0.1026  0.4356  0.3432
 9753SOL     OW33815   9.363   0.045   0.941 -0.0162 -0.1354  0.1869
 9753SOL    HW133816   9.450   0.067   0.910 -0.5601  2.9569  0.5116
 9753SOL    HW233817   9.362  -0.051   0.946  3.4542 -0.2749  0.5462
 9754SOL     OW33818   4.210   6.618   1.720 -0.1040  0.2804  0.0274
 9754SOL    HW133819   4.221   6.538   1.669 -2.5502  0.6679 -1.2833
 9754SOL    HW233820   4.298   6.641   1.749  0.6381 -3.0050  0.7194
 9755SOL     OW33821   0.401   2.095  10.644  0.2573  0.3609 -0.1732
 9755SOL    HW133822   0.482   2.055  10.614 -0.8142 -2.2387  0.0973
 9755SOL    HW233823   0.368   2.143  10.568  1.6141  0.7852 -0.5218
 9756SOL     OW33824   0.388  10.365   0.725  0.1013 -0.6220  0.7603
 9756SOL    HW133825   0.450  10.308   0.679 -0.3714 -0.3201 -0.3001
 9756SOL    HW233826   0.332  10.400   0.655 -0.8887 -0.4354  1.6233
 9757SOL     OW33827   6.424  10.572   2.455 -0.3361 -0.9465 -0.4154
 9757SOL    HW133828   6.416  10.496   2.511 -0.9398  0.7306  1.9037
 9757SOL    HW233829   6.347  10.569   2.398 -1.5718 -0.8983  1.2048
 9758SOL     OW33830  10.438   8.062   3.625  0.4146  0.1333  0.1320
 9758SOL    HW133831  10.352   8.094   3.654 -0.5209 -1.2927 -0.9153
 9758SOL    HW233832  10.454   7.985   3.679  0.7524  0.0607 -0.0712
 9759SOL     OW33833   3.038   2.216  10.912 -0.3078  0.3226 -0.4171
 9759SOL    HW133834   3.040   2.285  10.979  2.8661  0.7737 -0.8274
 9759SOL    HW233835   2.970   2.245  10.851 -0.0245  2.4171  0.1551
 9760SOL     OW33836   0.069   4.863  11.006  0.2016 -0.0945  0.0466
 9760SOL    HW133837   0.029   4.850  11.092  0.2809 -0.0767  0.0857
 9760SOL    HW233838  -0.003   4.893  10.951  0.5275  1.7505  0.5523
 9761SOL     OW33839   5.858  10.147   5.347  0.1434 -0.0046  0.4468
 9761SOL    HW133840   5.938  10.152   5.399 -0.0188  3.1051  0.5831
 9761SOL    HW233841   5.883  10.181   5.261 -0.8173  0.0995  0.1961
 9762SOL     OW33842   2.747   1.122   6.132  0.0862 -0.5798  0.0773
 9762SOL    HW133843   2.689   1.106   6.206  0.3288  1.1829  0.7008
 9762SOL    HW233844   2.748   1.039   6.083 -1.9120 -1.0471  0.7439
 9763SOL     OW33845   2.539   4.546   8.764  0.4653 -0.0248  0.1359
 9763SOL    HW133846   2.599   4.521   8.835  1.2713 -0.8297 -0.7881
 9763SOL    HW233847   2.550   4.477   8.698 -1.1601  0.0553 -0.2618
 9764SOL     OW33848  10.014   2.397   8.346  0.3229 -0.2484 -0.1839
 9764SOL    HW133849   9.933   2.347   8.356 -0.7889  1.4985  0.1412
 9764SOL    HW233850  10.000   2.450   8.267  1.2690 -0.1146 -0.2777
 9765SOL     OW33851   6.609   2.814   5.778  0.2895 -0.1432 -0.3432
 9765SOL    HW133852   6.698   2.796   5.808  0.8538  0.7395 -1.4123
 9765SOL    HW233853   6.597   2.757   5.702  0.9217  1.5493 -1.7788
 9766SOL     OW33854   6.906   0.912   7.678  0.1513  0.1312  0.2028
 9766SOL    HW133855   6.873   0.843   7.621 -1.7761 -1.1259  2.6407
 9766SOL    HW233856   6.999   0.893   7.689  0.7186  0.6788 -2.7050
 9767SOL     OW33857   0.797   5.827   9.774  0.0404 -0.0223  0.2187
 9767SOL    HW133858   0.758   5.756   9.825 -0.4139  0.0042 -0.0918
 9767SOL    HW233859   0.724   5.865   9.725 -0.1369  2.0445  1.9589
 9768SOL     OW33860   1.086   8.042   1.147 -0.1753  0.6579  0.1542
 9768SOL    HW133861   1.106   8.128   1.183 -1.4448  1.0885 -0.1238
 9768SOL    HW233862   1.005   8.054   1.098  0.4827 -0.3563 -1.2357
 9769SOL     OW33863  10.771   5.879   0.867 -0.2880 -0.3451  0.1096
 9769SOL    HW133864  10.713   5.839   0.802 -0.4862  0.1198 -0.0096
 9769SOL    HW233865  10.840   5.921   0.814 -1.4778  1.6782  0.0483
 9770SOL     OW33866   0.543   0.664  10.035 -0.1522 -0.5555  0.0139
 9770SOL    HW133867   0.504   0.749  10.012  1.6575  0.3706  0.2215
 9770SOL    HW233868   0.523   0.608   9.960 -2.3544 -0.3344  0.3492
 9771SOL     OW33869  11.398   0.299   9.772  0.5682 -0.1186 -1.2724
 9771SOL    HW133870  11.378   0.223   9.827  2.3870 -0.3062 -0.8130
 9771SOL    HW233871  11.347   0.371   9.811  1.4770 -0.3379  0.4333
 9772SOL     OW33872   7.182  10.473   8.074 -0.4459 -0.1271 -0.5019
 9772SOL    HW133873   7.145  10.525   8.003 -2.0459 -1.9252 -1.0785
 9772SOL    HW233874   7.155  10.518   8.154  0.0307  1.0580 -0.9889
 9773SOL     OW33875   6.923   2.232   2.949  0.2856  0.1107  0.0897
 9773SOL    HW133876   6.900   2.287   2.875  0.0758 -0.5631 -0.3588
 9773SOL    HW233877   7.019   2.227   2.946  0.2767  0.0634 -0.1563
 9774SOL     OW33878  10.378  10.360   4.345  0.4523  0.7102 -0.5607
 9774SOL    HW133879  10.289  10.392   4.362 -0.6833 -2.9912  1.5000
 9774SOL    HW233880  10.419  10.358   4.431  1.3919 -0.5715 -1.0154
 9775SOL     OW33881  10.793   5.617   9.016 -0.0996 -0.3955  0.3624
 9775SOL    HW133882  10.733   5.654   8.952 -0.3120 -1.3428 -0.0127
 9775SOL    HW233883  10.737   5.568   9.076  0.3947 -3.4963 -1.4891
 9776SOL     OW33884   3.943   3.705   3.661  0.2574 -0.0111 -0.2961
 9776SOL    HW133885   3.903   3.716   3.575 -0.4664 -0.0757  0.0313
 9776SOL    HW233886   3.881   3.652   3.710  1.3199 -1.1807 -0.1837
 9777SOL     OW33887   6.597   7.081   0.155  0.9387  0.5285  0.1374
 9777SOL    HW133888   6.506   7.074   0.185  0.6250 -0.3626 -0.9586
 9777SOL    HW233889   6.644   7.115   0.231 -0.0782 -0.2599  1.1681
 9778SOL     OW33890   8.334   6.426   4.100 -0.2930  0.1819  0.8616
 9778SOL    HW133891   8.309   6.335   4.085  2.7866 -0.5557 -0.6741
 9778SOL    HW233892   8.380   6.426   4.183 -1.0395  0.5619  1.2920
 9779SOL     OW33893   6.991   1.888   4.468  0.2674  0.1769  0.3314
 9779SOL    HW133894   7.004   1.879   4.563 -0.6733 -1.3109  0.3539
 9779SOL    HW233895   7.070   1.932   4.437  1.1546 -0.4163  1.6443
 9780SOL     OW33896   6.670   3.238   9.779 -0.2146  0.1146 -0.0178
 9780SOL    HW133897   6.641   3.263   9.867 -1.8305  0.6210 -0.6619
 9780SOL    HW233898   6.687   3.144   9.786 -4.0506 -0.7732  0.0108
 9781SOL     OW33899   4.423   5.475   2.654 -0.1492 -0.5548  0.5795
 9781SOL    HW133900   4.383   5.510   2.734  0.3799 -1.6042  1.3309
 9781SOL    HW233901   4.508   5.520   2.648  1.5115 -3.0756  2.7388
 9782SOL     OW33902   2.656   4.720   7.874  0.0784  0.1167  0.4065
 9782SOL    HW133903   2.706   4.746   7.952  2.1377  0.2733 -0.8823
 9782SOL    HW233904   2.670   4.792   7.812 -2.1941  0.3809  0.1231
 9783SOL     OW33905   9.726   4.692   0.477 -0.2403  0.1933  0.7141
 9783SOL    HW133906   9.696   4.651   0.558  1.6939  1.4479  2.1459
 9783SOL    HW233907   9.787   4.760   0.505 -0.0726  1.1834 -1.7820
 9784SOL     OW33908   7.615   7.792   5.804 -0.0524 -0.5752 -0.0681
 9784SOL    HW133909   7.604   7.769   5.896 -0.7617  0.4647  0.1177
 9784SOL    HW233910   7.587   7.883   5.798 -1.4604 -1.0533 -1.5735
 9785SOL     OW33911   9.414   4.493   4.114  0.2699 -0.2614  0.0740
 9785SOL    HW133912   9.380   4.513   4.026  0.9913 -1.1001 -0.4152
 9785SOL    HW233913   9.352   4.429   4.149 -0.5207  0.7393  0.5520
 9786SOL     OW33914  10.119   6.613   3.293 -0.1496 -0.1416  0.0098
 9786SOL    HW133915  10.176   6.688   3.311  0.1359 -0.4718  0.4881
 9786SOL    HW233916  10.174   6.551   3.246 -0.5640  0.2107 -0.9631
 9787SOL     OW33917  11.261   9.670   8.351 -0.1580 -0.3249 -0.0210
 9787SOL    HW133918  11.341   9.624   8.328 -0.7006 -2.6048  2.2173
 9787SOL    HW233919  11.254   9.740   8.287  3.1710 -0.5402 -0.7556
 9788SOL     OW33920   8.638   1.347   9.208  0.4282  0.0589 -0.6101
 9788SOL    HW133921   8.599   1.381   9.128 -1.1280  0.9168  0.4644
 9788SOL    HW233922   8.694   1.418   9.240 -2.6262  1.7371  1.4991
 9789SOL     OW33923   4.978   6.773  10.543 -0.1641 -0.7768  0.2565
 9789SOL    HW133924   4.887   6.803  10.534  0.7693  2.1856 -0.6609
 9789SOL    HW233925   4.977   6.682  10.514 -2.8825 -0.9932  0.7341
 9790SOL     OW33926  11.009   4.055   8.763 -0.2281 -0.3567  0.2867
 9790SOL    HW133927  11.100   4.073   8.786  0.0936 -0.9806 -0.4538
 9790SOL    HW233928  10.957   4.105   8.826  0.6255  1.0121 -0.0815
 9791SOL     OW33929   6.207   1.656   9.100 -0.5593  0.2390 -0.1712
 9791SOL    HW133930   6.248   1.651   9.014 -0.1426  0.0043  0.0401
 9791SOL    HW233931   6.245   1.583   9.149 -0.0966  0.9359  0.5177
 9792SOL     OW33932   3.306   7.866  10.111 -0.2635 -0.0345 -0.4937
 9792SOL    HW133933   3.359   7.906  10.042 -0.4227  1.1571  0.0566
 9792SOL    HW233934   3.341   7.777  10.120 -0.2295 -0.1997 -2.0818
 9793SOL     OW33935   5.511  10.173   2.177 -0.3273  0.2268 -0.1864
 9793SOL    HW133936   5.464  10.168   2.260 -0.8984  0.1788 -0.5127
 9793SOL    HW233937   5.443  10.174   2.110 -0.0136  3.0939 -0.5724
 9794SOL     OW33938   7.086   6.484   1.604  0.1299  0.1390  0.7064
 9794SOL    HW133939   7.012   6.544   1.595  0.6334  0.8231  1.0531
 9794SOL    HW233940   7.163   6.540   1.599  0.9631 -0.9951 -4.7133
 9795SOL     OW33941   3.069   5.297   7.122  0.0047  0.5366  0.1767
 9795SOL    HW133942   3.035   5.245   7.048  0.1626 -0.8407  1.0519
 9795SOL    HW233943   2.996   5.301   7.184  0.0694  1.1930  0.2230
 9796SOL     OW33944   3.446   4.885   5.379 -0.6602 -0.5836 -0.0447
 9796SOL    HW133945   3.479   4.954   5.322 -0.3229 -1.6595 -1.1866
 9796SOL    HW233946   3.381   4.929   5.434  0.8640  1.0236  0.5413
 9797SOL     OW33947   7.415   7.965   9.520 -0.0375 -0.1253  0.0212
 9797SOL    HW133948   7.382   8.039   9.469  2.4971 -0.2684 -2.0184
 9797SOL    HW233949   7.411   7.994   9.611 -1.0660  1.6822 -0.5576
 9798SOL     OW33950   9.641  10.617   7.172 -0.4427  0.4089 -0.2807
 9798SOL    HW133951   9.701  10.544   7.186 -0.8471  0.3403  1.2877
 9798SOL    HW233952   9.569  10.580   7.121  0.6189  0.4023 -1.8535
 9799SOL     OW33953   9.991   7.302   0.827  0.4860 -0.2739  0.4304
 9799SOL    HW133954   9.910   7.353   0.824 -0.3313 -1.5862 -0.9531
 9799SOL    HW233955  10.061   7.368   0.829 -0.5639  0.8973 -0.0787
 9800SOL     OW33956   2.998   4.631   6.333  0.0724 -0.1048 -0.5664
 9800SOL    HW133957   3.068   4.679   6.377 -1.3443  1.6884 -0.1631
 9800SOL    HW233958   2.955   4.695   6.277  0.0396 -1.6826 -2.4634
 9801SOL     OW33959  11.311   5.502   0.812 -0.3812 -0.0192  0.0450
 9801SOL    HW133960  11.321   5.537   0.901  0.6959  0.1314 -0.1221
 9801SOL    HW233961  11.400   5.478   0.786 -0.9326 -2.0462 -0.1981
 9802SOL     OW33962   0.674  10.982   4.318 -0.3573  0.0807 -0.2661
 9802SOL    HW133963   0.693  10.918   4.387  0.5265  1.2782  0.6604
 9802SOL    HW233964   0.684  11.067   4.361  0.4503  0.8834 -1.9263
 9803SOL     OW33965   2.319   1.009   1.374 -0.1310 -0.2232  0.2155
 9803SOL    HW133966   2.277   0.989   1.291 -1.0603  0.4209  0.5185
 9803SOL    HW233967   2.350   1.099   1.364  0.4258 -0.3980  0.3080
 9804SOL     OW33968   6.575   5.905   0.130  0.7179  0.1710  0.1512
 9804SOL    HW133969   6.481   5.892   0.147  0.9716 -3.0603 -0.2574
 9804SOL    HW233970   6.610   5.939   0.212 -0.3316 -1.7943  1.5046
 9805SOL     OW33971   3.892   5.772   5.374 -0.1988 -0.0224  0.3077
 9805SOL    HW133972   3.956   5.774   5.445  1.6906 -0.6078 -1.2966
 9805SOL    HW233973   3.904   5.855   5.328  0.3231 -0.6561 -0.7358
 9806SOL     OW33974   5.069  10.414   8.985 -0.4244 -0.2416 -0.7087
 9806SOL    HW133975   4.992  10.365   9.014 -0.2699 -1.0898 -1.6458
 9806SOL    HW233976   5.035  10.498   8.954 -0.5343  0.9742  2.3699
 9807SOL     OW33977   9.810   2.201   6.268  0.0222  0.2831  0.6324
 9807SOL    HW133978   9.720   2.219   6.297  0.0469  1.2729  0.1302
 9807SOL    HW233979   9.808   2.214   6.173  0.6291  0.0097  0.5778
 9808SOL     OW33980   1.234   7.664   1.413 -0.1556 -0.3637  0.1273
 9808SOL    HW133981   1.150   7.681   1.456 -0.2718 -1.0476  0.1937
 9808SOL    HW233982   1.220   7.690   1.322  0.0833  1.0653  0.4757
 9809SOL     OW33983   2.252  10.992   8.330 -0.2044  0.4028 -0.0821
 9809SOL    HW133984   2.286  11.005   8.241 -0.5060  1.4902 -0.0535
 9809SOL    HW233985   2.207  10.907   8.326  0.0615  0.2906 -0.8824
 9810SOL     OW33986   0.731   3.532   7.889 -0.0735 -0.5006 -0.1671
 9810SOL    HW133987   0.775   3.599   7.837 -0.7963  0.6171  0.6128
 9810SOL    HW233988   0.803   3.479   7.924  0.6392  0.7916  0.4185
 9811SOL     OW33989   1.773  10.852   3.785 -0.5952 -0.7131 -0.2220
 9811SOL    HW133990   1.765  10.793   3.860 -0.1591 -0.4534  0.0327
 9811SOL    HW233991   1.731  10.933   3.814 -1.7675 -1.0900 -0.7967
 9812SOL     OW33992   8.060   0.934   6.560  0.4449  0.4866 -0.3884
 9812SOL    HW133993   8.126   0.939   6.629 -0.1356 -0.0786  0.2243
 9812SOL    HW233994   8.075   0.848   6.519  0.2214  0.4486 -0.3879
 9813SOL     OW33995   0.589   6.494   9.465  0.0685 -0.3929 -0.1739
 9813SOL    HW133996   0.505   6.540   9.469  0.4387  0.2671  0.1133
 9813SOL    HW233997   0.612   6.496   9.372 -0.6271 -1.3131 -0.3831
 9814SOL     OW33998   2.964   2.401   1.611  0.2244 -0.3303  0.5249
 9814SOL    HW133999   2.880   2.413   1.656 -0.1512 -3.0522  0.7187
 9814SOL    HW234000   2.941   2.388   1.519  0.4108 -1.0430  0.5721
 9815SOL     OW34001   6.983   7.503   2.597  0.4187  0.3144  0.1527
 9815SOL    HW134002   6.959   7.497   2.690  0.3483 -0.1627  0.1054
 9815SOL    HW234003   7.072   7.538   2.597  1.1362 -1.4105  0.4827
 9816SOL     OW34004   7.333   4.920   0.896 -0.1959  0.3920  0.6275
 9816SOL    HW134005   7.362   4.838   0.855  0.8539 -0.4817  2.9013
 9816SOL    HW234006   7.413   4.971   0.907 -0.6539  1.1682  0.4265
 9817SOL     OW34007   4.080   6.691   7.321 -0.2381  0.3687 -0.2614
 9817SOL    HW134008   4.121   6.760   7.268 -0.6119 -0.2198 -1.3481
 9817SOL    HW234009   4.143   6.675   7.391 -0.0743  1.6980 -0.0811
 9818SOL     OW34010   4.661   9.741   5.231 -0.7571  0.5753 -0.0029
 9818SOL    HW134011   4.721   9.804   5.192  0.1277 -0.4926 -0.4171
 9818SOL    HW234012   4.665   9.665   5.173  0.0332 -0.7775  1.7351
 9819SOL     OW34013   8.036  10.208  11.321 -0.5067  0.2752 -0.5214
 9819SOL    HW134014   7.946  10.182  11.302 -1.3357  1.9184  0.8072
 9819SOL    HW234015   8.069  10.245  11.239 -1.0401 -0.3288 -1.0097
 9820SOL     OW34016   6.240  10.065   0.412  0.3732 -0.2960 -0.6091
 9820SOL    HW134017   6.182  10.040   0.341  0.4999  0.0200 -0.8257
 9820SOL    HW234018   6.182  10.106   0.477  0.4585  0.7843 -1.1905
 9821SOL     OW34019   6.689   4.744   5.751  0.1690 -0.0775  0.2902
 9821SOL    HW134020   6.630   4.725   5.825 -1.0449 -2.1977 -1.1246
 9821SOL    HW234021   6.651   4.822   5.711 -1.0333 -0.7308  0.0980
 9822SOL     OW34022   0.549  10.231   8.087 -0.1505  0.3177 -0.1625
 9822SOL    HW134023   0.503  10.264   8.010 -1.1831  1.4240  0.8758
 9822SOL    HW234024   0.482  10.185   8.137  0.3521  0.1682  0.3822
 9823SOL     OW34025   7.383   0.949   8.941  0.2228  0.4725  0.0527
 9823SOL    HW134026   7.318   0.990   8.884  0.7168  0.8584 -0.2384
 9823SOL    HW234027   7.340   0.945   9.027 -0.7090 -0.5550 -0.4302
 9824SOL     OW34028   2.670  11.515  11.962 -0.3286  0.3731  0.1916
 9824SOL    HW134029   2.651  11.423  11.981  0.0161  0.4640  0.9970
 9824SOL    HW234030   2.718  11.513  11.880 -0.5028 -0.1516  0.0985
 9825SOL     OW34031   6.816   1.974   3.846 -0.1043  0.5978  0.2756
 9825SOL    HW134032   6.735   1.934   3.879  1.1636 -2.3996  0.0567
 9825SOL    HW234033   6.803   1.980   3.752  0.2099 -0.6535  0.1430
 9826SOL     OW34034  10.113   7.714   8.088  0.1039 -0.8246 -0.5891
 9826SOL    HW134035  10.103   7.625   8.121  0.4197 -0.0921  1.6907
 9826SOL    HW234036  10.176   7.754   8.148 -0.0557  0.9343 -1.5410
 9827SOL     OW34037   1.803   8.575   0.631 -0.4087 -0.4105 -0.4808
 9827SOL    HW134038   1.870   8.511   0.609  1.8778  1.5182  0.3729
 9827SOL    HW234039   1.787   8.622   0.548 -0.4807 -0.6790 -0.6197
 9828SOL     OW34040   8.688   2.961  11.541  0.1513 -0.2319  0.3311
 9828SOL    HW134041   8.631   2.932  11.612 -0.3940  0.2520  0.1042
 9828SOL    HW234042   8.629   2.968  11.465  0.7529 -0.8987 -0.2067
 9829SOL     OW34043   3.598   1.918   9.865 -0.6727 -0.0600 -0.2652
 9829SOL    HW134044   3.650   1.987   9.823 -0.5910  0.4344  0.6320
 9829SOL    HW234045   3.589   1.946   9.956 -2.3307 -0.2306 -0.3426
 9830SOL     OW34046   9.192  11.645   4.670  0.3220 -0.1490 -0.5491
 9830SOL    HW134047   9.161  11.681   4.587  1.0929 -1.0372 -1.2305
 9830SOL    HW234048   9.138  11.689   4.736 -1.7176 -0.9094 -1.6212
 9831SOL     OW34049  10.453   3.907   2.651 -0.3923  0.1914 -0.1891
 9831SOL    HW134050  10.479   3.839   2.589 -0.1658 -0.1501  0.2706
 9831SOL    HW234051  10.493   3.987   2.618  2.2993 -0.4958  1.1038
 9832SOL     OW34052   1.274   6.122   1.380 -0.0435 -0.2361 -0.1711
 9832SOL    HW134053   1.195   6.128   1.433 -0.6380 -0.9821 -0.9320
 9832SOL    HW234054   1.346   6.131   1.442 -0.7242 -0.3457  0.6487
 9833SOL     OW34055  10.225  11.245   3.926 -0.3404 -0.0351 -0.3682
 9833SOL    HW134056  10.253  11.259   4.017  2.1862 -0.1489 -1.0506
 9833SOL    HW234057  10.176  11.324   3.904 -0.2671  0.3775  0.8392
 9834SOL     OW34058   1.736   9.662   6.644 -0.3508  0.7146  0.0369
 9834SOL    HW134059   1.643   9.683   6.639  0.1541  3.0780 -0.5540
 9834SOL    HW234060   1.760   9.638   6.554  0.0622  2.3882 -0.3242
 9835SOL     OW34061   1.783   6.646  11.420 -0.8322  0.0731 -0.0477
 9835SOL    HW134062   1.818   6.635  11.331  0.4906 -1.1085  0.5807
 9835SOL    HW234063   1.816   6.731  11.448  0.8641 -0.6315  0.2016
 9836SOL     OW34064   3.087  10.558  11.427  0.4747  0.1815  0.4480
 9836SOL    HW134065   3.138  10.531  11.350  3.1202  1.2028  1.7150
 9836SOL    HW234066   3.120  10.646  11.448 -0.7339  0.2550  2.3143
 9837SOL     OW34067   8.778  10.578   1.001 -1.1847 -0.3483 -0.3283
 9837SOL    HW134068   8.745  10.618   1.081  0.2658  0.1236  0.0741
 9837SOL    HW234069   8.772  10.648   0.935  0.9399  0.4979  0.2710
 9838SOL     OW34070  12.006   2.189   4.969 -0.0228 -0.2204  0.4346
 9838SOL    HW134071  11.929   2.229   4.927 -0.1521 -0.7088  0.1925
 9838SOL    HW234072  12.037   2.255   5.031  0.5967  0.8217 -0.9264
 9839SOL     OW34073  11.843   2.781   5.774  0.6426 -0.3113  0.5647
 9839SOL    HW134074  11.763   2.755   5.728  0.3707 -0.7775  1.2742
 9839SOL    HW234075  11.901   2.705   5.766  0.9871 -0.0024  0.1156
 9840SOL     OW34076   0.029   4.086   1.304  0.0299  0.5854 -0.2401
 9840SOL    HW134077  -0.044   4.026   1.289  0.9081 -0.5998  0.0033
 9840SOL    HW234078   0.033   4.095   1.399  0.7844 -0.1569 -0.1843
 9841SOL     OW34079  11.180   8.791   8.568 -0.1414  0.7135  0.1097
 9841SOL    HW134080  11.194   8.795   8.663  0.0856 -0.8364  0.1759
 9841SOL    HW234081  11.267   8.809   8.531  0.0891 -0.0593  0.2535
 9842SOL     OW34082  10.789  10.158   7.021 -0.4329 -0.2704  0.9278
 9842SOL    HW134083  10.880  10.144   6.995 -0.6137  0.5576 -0.2338
 9842SOL    HW234084  10.738  10.110   6.956 -0.8905  1.6611 -0.2179
 9843SOL     OW34085   3.994  10.172   2.614  0.0346  0.0109 -0.0655
 9843SOL    HW134086   4.045  10.097   2.584  1.1799 -1.0458  4.0208
 9843SOL    HW234087   3.909  10.135   2.637 -1.1312  0.9632 -2.4266
 9844SOL     OW34088   4.524   9.623   3.557 -0.0536 -0.5194 -0.0096
 9844SOL    HW134089   4.431   9.644   3.565 -0.3559 -1.8739  0.1732
 9844SOL    HW234090   4.526   9.530   3.534  1.2375 -0.3124 -0.8058
 9845SOL     OW34091   2.137   1.133   6.822  0.5822 -0.2939 -0.2060
 9845SOL    HW134092   2.116   1.197   6.890  1.5090  0.2056 -0.3799
 9845SOL    HW234093   2.199   1.178   6.765 -0.7407 -0.4417 -1.8145
 9846SOL     OW34094   4.392   3.094  10.310  0.5597  0.6859 -0.2568
 9846SOL    HW134095   4.311   3.096  10.258  0.9834 -0.3888 -0.9966
 9846SOL    HW234096   4.460   3.118  10.248  0.7662  2.1866  0.5099
 9847SOL     OW34097   5.676   4.056   1.589 -0.2526  0.2250  0.8082
 9847SOL    HW134098   5.592   4.100   1.573  0.1389  0.7160 -0.0065
 9847SOL    HW234099   5.655   3.986   1.651 -1.3945 -0.0986  0.0946
 9848SOL     OW34100   8.177   8.297   2.266  0.0107  0.6280  0.1974
 9848SOL    HW134101   8.177   8.375   2.210  0.5959  0.1345 -0.5074
 9848SOL    HW234102   8.202   8.226   2.207 -1.0064 -0.1802  0.7173
 9849SOL     OW34103   0.575   1.645   3.573 -0.0161 -0.4459 -0.0004
 9849SOL    HW134104   0.618   1.729   3.584 -0.2886 -0.4155  0.8569
 9849SOL    HW234105   0.598   1.594   3.651 -0.1455 -1.0359 -0.3358
 9850SOL     OW34106   2.884   6.501   2.324  0.2753  0.1335  0.7064
 9850SOL    HW134107   2.907   6.468   2.237  0.4523 -0.6810  1.0532
 9850SOL    HW234108   2.795   6.469   2.339  0.7166 -0.8306  1.3460
 9851SOL     OW34109   6.008   5.600  10.079  0.1695 -1.2525  0.0026
 9851SOL    HW134110   6.066   5.597  10.003 -2.3009 -3.0554 -1.9752
 9851SOL    HW234111   6.009   5.510  10.113 -0.3048 -0.9314  0.8963
 9852SOL     OW34112   4.639   9.064   8.774 -0.2554 -0.0708 -0.1492
 9852SOL    HW134113   4.560   9.096   8.816  0.5057  0.2521  1.0989
 9852SOL    HW234114   4.702   9.055   8.845  0.8008 -0.4287 -1.0949
 9853SOL     OW34115   9.347   4.240   2.682  0.1453 -0.0130  0.0584
 9853SOL    HW134116   9.258   4.253   2.715  0.3294 -0.8477  0.9139
 9853SOL    HW234117   9.335   4.206   2.593 -0.3952 -0.0916  0.1609
 9854SOL     OW34118   5.242   9.527   6.960 -0.1302 -0.3681 -0.2760
 9854SOL    HW134119   5.150   9.530   6.935 -0.1917 -0.9090 -0.1403
 9854SOL    HW234120   5.269   9.619   6.965 -1.5662  0.0285  3.0164
 9855SOL     OW34121   1.275   1.521  11.325  0.1277 -0.7647 -0.1236
 9855SOL    HW134122   1.216   1.595  11.335  1.9259  0.5343  1.9237
 9855SOL    HW234123   1.311   1.530  11.236 -0.6697  0.0133 -0.3760
 9856SOL     OW34124   2.886   1.844  10.799  0.3944 -0.0149  0.3585
 9856SOL    HW134125   2.929   1.929  10.804 -2.7735  1.7857 -0.4165
 9856SOL    HW234126   2.884   1.823  10.705 -0.5835  0.0871  0.3398
 9857SOL     OW34127   5.799   8.558  11.933 -0.1647 -0.1188  0.1888
 9857SOL    HW134128   5.799   8.654  11.938 -2.0892 -0.1347  1.0593
 9857SOL    HW234129   5.850   8.531  12.010  0.5094  0.1806 -0.1363
 9858SOL     OW34130   5.629   2.726  11.669 -0.0746  0.0892  0.3915
 9858SOL    HW134131   5.655   2.719  11.761 -0.1746  1.2764  0.5344
 9858SOL    HW234132   5.699   2.778  11.629  0.0194 -0.5094 -0.2239
 9859SOL     OW34133   2.201  10.889   2.483  0.1072  0.4788  0.0851
 9859SOL    HW134134   2.165  10.868   2.397 -1.7725  0.8423  0.7325
 9859SOL    HW234135   2.217  10.983   2.480 -1.2139  0.7486  0.5124
 9860SOL     OW34136  11.626   6.333   2.379 -0.8989 -0.5636  0.3134
 9860SOL    HW134137  11.675   6.287   2.311 -0.5834 -0.0808  0.2098
 9860SOL    HW234138  11.539   6.346   2.342 -0.3082  1.0287 -0.6147
 9861SOL     OW34139   4.441   5.549   2.928  0.1366 -0.1193 -0.2287
 9861SOL    HW134140   4.410   5.467   2.965 -0.5042  0.5006  0.6571
 9861SOL    HW234141   4.521   5.570   2.978 -0.6366  0.6322  0.7455
 9862SOL     OW34142   6.184   1.427   8.780  0.4024  0.0479 -0.0212
 9862SOL    HW134143   6.175   1.365   8.708  1.2978 -1.6018  1.2158
 9862SOL    HW234144   6.095   1.451   8.804  0.0813  0.0406 -1.1701
 9863SOL     OW34145  11.424   5.314   9.407 -0.5346  0.1430 -0.2812
 9863SOL    HW134146  11.445   5.223   9.429  0.9548  0.6326  0.4973
 9863SOL    HW234147  11.400   5.311   9.314 -0.3500 -1.0201 -0.3078
 9864SOL     OW34148   8.242   9.470   3.182 -0.1273 -0.6148 -0.3586
 9864SOL    HW134149   8.310   9.522   3.226 -1.6682  0.2046  1.1412
 9864SOL    HW234150   8.207   9.528   3.114  0.1600 -0.7787 -0.6514
 9865SOL     OW34151  11.847   0.098   0.760 -0.1860  0.0811  0.5419
 9865SOL    HW134152  11.768   0.054   0.793 -1.2691  0.6342 -1.1518
 9865SOL    HW234153  11.851   0.180   0.809  0.1528 -0.5663  1.6254
 9866SOL     OW34154   2.469  10.914   8.154  0.1901  0.0777 -0.0067
 9866SOL    HW134155   2.560  10.886   8.166  0.1513  0.4170  1.1817
 9866SOL    HW234156   2.476  11.008   8.135  0.0961  0.0580 -0.1388
 9867SOL     OW34157   0.959   6.463  10.148 -0.7319  0.0042 -0.0683
 9867SOL    HW134158   0.915   6.527  10.204  0.0400 -0.7346  1.4621
 9867SOL    HW234159   1.019   6.417  10.207  1.3181  0.2391 -1.8183
 9868SOL     OW34160   1.190  11.601   6.164 -0.1064 -0.6416 -0.4214
 9868SOL    HW134161   1.172  11.507   6.164  0.5248 -1.0272  4.4805
 9868SOL    HW234162   1.123  11.637   6.222  1.1861  1.5257 -0.1892
 9869SOL     OW34163   3.179  10.732   6.432 -0.2296 -0.3679 -0.2035
 9869SOL    HW134164   3.122  10.670   6.388 -1.2994  0.6396 -0.2833
 9869SOL    HW234165   3.200  10.797   6.365  1.1012 -0.7712 -0.2010
 9870SOL     OW34166   8.065   1.224   2.541  0.2472 -0.2508 -0.0325
 9870SOL    HW134167   8.074   1.167   2.464 -0.6356 -1.5172  0.7626
 9870SOL    HW234168   7.987   1.191   2.585 -1.0261  2.3486 -0.1556
 9871SOL     OW34169   2.850   3.674  11.022 -0.4195  0.4431  0.0577
 9871SOL    HW134170   2.861   3.755  11.073 -1.0184  0.5072  0.1020
 9871SOL    HW234171   2.865   3.604  11.085 -1.2589  0.5224  0.3569
 9872SOL     OW34172   3.595   3.717   4.948 -0.2494 -0.6412 -0.0694
 9872SOL    HW134173   3.534   3.671   5.006 -1.1743  1.0490  0.3679
 9872SOL    HW234174   3.539   3.749   4.877  0.5644 -1.0816 -0.9297
 9873SOL     OW34175   7.967   6.321   4.897 -0.5554  0.0199  0.7012
 9873SOL    HW134176   8.000   6.302   4.809 -2.9353 -1.4915  0.0359
 9873SOL    HW234177   8.030   6.382   4.934  1.0410 -0.0591 -1.6918
 9874SOL     OW34178   1.687   4.455  10.207  0.4385  0.5075  0.4763
 9874SOL    HW134179   1.638   4.499  10.139 -0.2050 -1.5342 -0.4583
 9874SOL    HW234180   1.772   4.499  10.208  1.0937 -0.4494 -2.8589
 9875SOL     OW34181   5.998  12.019   1.887  0.0920  0.0296  0.1264
 9875SOL    HW134182   6.008  11.936   1.933  2.0454 -0.1171 -0.4729
 9875SOL    HW234183   5.992  12.084   1.957 -0.2422 -0.4839  0.5880
 9876SOL     OW34184   6.810   5.586  12.037 -0.1671  0.5702  0.1070
 9876SOL    HW134185   6.906   5.586  12.042 -0.0836 -2.2351  0.4220
 9876SOL    HW234186   6.782   5.563  12.125 -0.9130 -1.8276 -0.6699
 9877SOL     OW34187  10.552   9.109   9.623  0.9563  0.3283  0.0709
 9877SOL    HW134188  10.585   9.168   9.555  0.3063 -0.9336 -1.3986
 9877SOL    HW234189  10.470   9.076   9.588  0.4070 -0.0696  1.6664
 9878SOL     OW34190   7.663   7.626  11.082 -0.4887 -0.0047  0.1959
 9878SOL    HW134191   7.642   7.696  11.020 -0.6497  0.9724  1.3163
 9878SOL    HW234192   7.617   7.549  11.049 -0.2109  0.3669 -1.1275
 9879SOL     OW34193  10.689   0.887   4.315  0.3867  0.2657  0.3188
 9879SOL    HW134194  10.695   0.867   4.409 -0.7379  1.2440  0.6205
 9879SOL    HW234195  10.744   0.965   4.304  0.3227  0.2962  0.2173
 9880SOL     OW34196  10.158   2.880   8.559  0.1025 -0.1789 -0.1728
 9880SOL    HW134197  10.151   2.842   8.471 -0.4942  0.3984 -0.3869
 9880SOL    HW234198  10.228   2.830   8.601  0.8512 -0.0289 -1.1958
 9881SOL     OW34199   3.063  10.142   6.066 -0.1819  0.4770 -0.8756
 9881SOL    HW134200   3.060  10.214   6.003  2.9601  0.4618 -1.1971
 9881SOL    HW234201   3.042  10.064   6.014 -0.4110  0.7991 -1.2722
 9882SOL     OW34202  10.669   8.586   0.997 -0.0174 -0.1900  0.3258
 9882SOL    HW134203  10.636   8.520   0.936  0.0198 -0.5145  0.6480
 9882SOL    HW234204  10.732   8.538   1.051 -0.2766  0.0186  0.8172
 9883SOL     OW34205   7.014   7.648   5.140  0.0252 -0.1483 -0.6371
 9883SOL    HW134206   7.010   7.573   5.199 -0.2827 -1.3302 -2.0952
 9883SOL    HW234207   7.097   7.690   5.162  0.5406 -1.3104 -0.2326
 9884SOL     OW34208   8.225  10.381   1.271 -0.1292 -0.6699 -0.1679
 9884SOL    HW134209   8.152  10.410   1.325 -0.3795 -0.4091 -0.6449
 9884SOL    HW234210   8.279  10.459   1.260 -1.5453  0.0760 -2.6699
 9885SOL     OW34211   8.248   2.001   3.023  0.1179 -0.0872 -0.4247
 9885SOL    HW134212   8.201   2.074   3.063  2.0139  0.5273  0.8106
 9885SOL    HW234213   8.339   2.015   3.048  0.7966 -1.9063 -1.6867
 9886SOL     OW34214   0.630   0.036   8.654  0.5571 -0.0660  0.7552
 9886SOL    HW134215   0.634   0.063   8.745  0.8208 -2.7287  1.5983
 9886SOL    HW234216   0.661  -0.054   8.653  2.0412  0.3328 -2.2119
 9887SOL     OW34217  11.248   5.513  10.599  0.0774  0.3563 -0.2203
 9887SOL    HW134218  11.272   5.429  10.560 -0.0642  1.4903 -3.0117
 9887SOL    HW234219  11.153   5.512  10.604  0.1209 -1.0576  3.4601
 9888SOL     OW34220   5.669   0.810   8.896  0.2364  0.0068  0.0799
 9888SOL    HW134221   5.636   0.807   8.806 -1.8229  1.9399  0.6847
 9888SOL    HW234222   5.603   0.764   8.947  1.4765 -1.2308  0.6684
 9889SOL     OW34223  10.287   6.031   5.632  0.5368 -0.3241 -0.0003
 9889SOL    HW134224  10.194   6.008   5.629 -0.0709  1.5343  1.9239
 9889SOL    HW234225  10.328   5.958   5.679 -0.6881  0.6222  2.6962
 9890SOL     OW34226  10.001   9.741   2.028 -0.0978  0.1870 -0.3886
 9890SOL    HW134227  10.065   9.682   1.988 -1.6635 -0.5325 -1.9324
 9890SOL    HW234228   9.934   9.683   2.064 -1.9815  0.9424 -2.4742
 9891SOL     OW34229  11.238   2.613   9.819 -0.4094 -0.2461 -0.8552
 9891SOL    HW134230  11.168   2.582   9.761 -0.7077 -1.4941  0.1436
 9891SOL    HW234231  11.249   2.544   9.884  2.0448 -0.2706 -1.1941
 9892SOL     OW34232   6.462   7.009   4.107  0.3410 -0.1311  0.3701
 9892SOL    HW134233   6.443   6.969   4.192  0.1418  0.2515  0.5059
 9892SOL    HW234234   6.449   7.103   4.121  2.4845  0.2037  0.5411
 9893SOL     OW34235  10.448   2.784  11.764 -0.5359  0.0906 -0.7069
 9893SOL    HW134236  10.362   2.746  11.782 -0.2015  0.0812  1.1436
 9893SOL    HW234237  10.497   2.714  11.721 -0.6204 -0.8863  0.7015
 9894SOL     OW34238   9.123   2.422   1.256  0.1386  0.2085  0.1131
 9894SOL    HW134239   9.041   2.445   1.211 -0.2070 -0.3236  0.4553
 9894SOL    HW234240   9.122   2.476   1.335 -1.7734 -2.3984  2.0816
 9895SOL     OW34241   0.227   2.001   4.058 -0.1237 -0.5868  0.0199
 9895SOL    HW134242   0.142   2.043   4.068 -0.1547 -0.5736 -0.2958
 9895SOL    HW234243   0.258   1.989   4.148 -0.6093 -0.9059  0.1499
 9896SOL     OW34244   0.138   1.701   7.053  0.0456 -0.2339  0.2316
 9896SOL    HW134245   0.206   1.769   7.057  1.0580 -1.1139 -1.1073
 9896SOL    HW234246   0.107   1.692   7.143 -0.0187  1.8800  0.4755
 9897SOL     OW34247   7.953  10.017   3.827 -0.3481  0.1620  0.7891
 9897SOL    HW134248   7.996  10.007   3.741  1.1274  1.2460  1.3487
 9897SOL    HW234249   7.950   9.929   3.862  0.2670 -0.1232  0.1670
 9898SOL     OW34250   7.431   8.961  10.033 -0.0459 -0.1042  0.1802
 9898SOL    HW134251   7.486   8.949   9.956 -0.0190 -1.2088  0.3409
 9898SOL    HW234252   7.368   8.889  10.028 -2.2097  1.7339 -0.5759
 9899SOL     OW34253   7.483   4.823   7.588 -0.4000 -0.0817 -0.1759
 9899SOL    HW134254   7.563   4.776   7.563  0.6285  0.7954  1.3764
 9899SOL    HW234255   7.510   4.914   7.596 -1.7002  0.3166 -0.2039
 9900SOL     OW34256   6.999   6.602   3.397 -0.3621  0.3861 -0.4407
 9900SOL    HW134257   7.082   6.562   3.370 -0.8093 -0.0169 -1.2491
 9900SOL    HW234258   7.020   6.695   3.408  0.2748  0.2302 -0.2885
 9901SOL     OW34259   9.297   8.416   4.896 -0.1589 -0.3065 -0.0135
 9901SOL    HW134260   9.314   8.494   4.948 -0.7831 -0.3008  0.1940
 9901SOL    HW234261   9.220   8.439   4.843 -0.9123 -1.0833  0.7136
 9902SOL     OW34262   1.147  10.332   5.583  0.2162 -0.0301  0.2978
 9902SOL    HW134263   1.229  10.381   5.583  0.4183 -0.3563  0.0695
 9902SOL    HW234264   1.160  10.263   5.649  0.8470 -1.2267 -1.0212
 9903SOL     OW34265  10.251   8.860   4.514 -0.9228  0.1098  0.3597
 9903SOL    HW134266  10.323   8.831   4.458 -0.9445  1.3955 -0.3930
 9903SOL    HW234267  10.205   8.926   4.461 -1.1604  1.1117  1.7473
 9904SOL     OW34268   1.629   4.538   5.071 -0.0429  0.0146 -0.1618
 9904SOL    HW134269   1.603   4.630   5.065  0.7837  0.2731  0.1249
 9904SOL    HW234270   1.547   4.491   5.089 -0.2229  0.8829  1.4463
 9905SOL     OW34271   5.859   6.659   0.757  0.7603 -0.5409 -0.1819
 9905SOL    HW134272   5.833   6.651   0.665 -0.9796  0.8043  0.1322
 9905SOL    HW234273   5.832   6.577   0.797 -0.0040 -0.4857 -0.5658
 9906SOL     OW34274  11.587   7.880   7.479  0.1961 -0.3349 -0.5098
 9906SOL    HW134275  11.522   7.864   7.411 -0.3471 -0.2352 -0.0134
 9906SOL    HW234276  11.541   7.931   7.545  0.4156 -1.3247  0.4252
 9907SOL     OW34277  11.981  11.211   1.325 -0.3881  0.6554 -0.4056
 9907SOL    HW134278  11.923  11.204   1.250  0.5264 -2.4013 -0.9580
 9907SOL    HW234279  11.943  11.153   1.391  1.2075 -0.2842 -0.2617
 9908SOL     OW34280   9.426   8.512  10.602  0.0135 -0.1565 -0.3420
 9908SOL    HW134281   9.438   8.528  10.696 -1.6558  0.1782 -0.1672
 9908SOL    HW234282   9.362   8.441  10.598  0.3355 -0.4094 -1.2333
 9909SOL     OW34283   9.506   9.980   3.362  0.9059 -0.1316  0.1183
 9909SOL    HW134284   9.577   9.938   3.411  2.4177 -0.2095 -2.0153
 9909SOL    HW234285   9.461  10.035   3.427  1.9173 -1.2769  1.8664
 9910SOL     OW34286   3.541   7.460   0.957  0.2380 -0.0577  0.0824
 9910SOL    HW134287   3.630   7.483   0.931  0.2133  0.9861  0.8481
 9910SOL    HW234288   3.486   7.520   0.906  0.2187  2.6642  2.9524
 9911SOL     OW34289   4.548   2.746   8.701  0.3829 -0.3953  0.6037
 9911SOL    HW134290   4.472   2.755   8.759  0.0774 -0.5281  0.2367
 9911SOL    HW234291   4.624   2.751   8.759  0.0627 -2.7041  1.3571
 9912SOL     OW34292   6.802   2.765   8.294  0.5721  0.6142 -0.0377
 9912SOL    HW134293   6.875   2.803   8.343 -0.0605  1.9315 -0.1005
 9912SOL    HW234294   6.808   2.805   8.208  2.6930 -2.8817 -1.7860
 9913SOL     OW34295   8.994  11.923   3.329  0.5682  0.5685  0.9876
 9913SOL    HW134296   8.959  11.946   3.243  2.6179 -1.9825 -0.6995
 9913SOL    HW234297   8.965  11.994   3.387 -0.4584  2.6861 -1.8811
 9914SOL     OW34298   1.965   6.465   9.387 -0.2814 -0.2553 -0.0822
 9914SOL    HW134299   1.986   6.426   9.472  1.0621  0.7961  0.1136
 9914SOL    HW234300   2.003   6.406   9.323 -0.3134 -0.4763  0.0998
 9915SOL     OW34301   3.807   9.150   1.445  0.3033 -0.7581  0.6594
 9915SOL    HW134302   3.819   9.235   1.402 -1.2448 -1.8005 -2.0701
 9915SOL    HW234303   3.784   9.172   1.535 -1.7078  1.8544 -0.3532
 9916SOL     OW34304   8.605   1.840   4.635 -0.6567  0.1501 -0.7255
 9916SOL    HW134305   8.627   1.759   4.681  1.4851  0.7628 -0.5274
 9916SOL    HW234306   8.629   1.823   4.543  0.1248  0.6211 -0.6253
 9917SOL     OW34307   4.521   0.395   0.305  0.4669 -0.3151  0.0001
 9917SOL    HW134308   4.546   0.478   0.263 -2.2868  0.3825 -0.4509
 9917SOL    HW234309   4.605   0.350   0.320  1.9636  1.9518 -0.9303
 9918SOL     OW34310   6.493   2.604   5.272 -0.3115  0.1925  0.9657
 9918SOL    HW134311   6.466   2.640   5.357 -0.9509 -1.8720  1.6896
 9918SOL    HW234312   6.411   2.591   5.225 -0.0621  0.0481  0.5725
 9919SOL     OW34313   5.754   4.213   4.523 -0.0120 -0.2409 -0.3465
 9919SOL    HW134314   5.798   4.296   4.537  0.0153 -0.5068  1.3363
 9919SOL    HW234315   5.715   4.221   4.436 -0.9661  1.9773  0.2095
 9920SOL     OW34316  10.889  10.420   7.548  0.4465  0.4021  0.9383
 9920SOL    HW134317  10.842  10.502   7.534  0.4797  0.5092  1.4235
 9920SOL    HW234318  10.819  10.355   7.559  0.4147  0.4538  1.0466
 9921SOL     OW34319  11.150   1.064   7.749 -0.1860  0.4430 -0.7132
 9921SOL    HW134320  11.144   1.160   7.747  0.7254  0.5010 -1.8630
 9921SOL    HW234321  11.115   1.036   7.664 -0.2221 -0.2333 -0.4818
 9922SOL     OW34322   6.562   5.322   8.522  0.1042 -0.0994 -0.0852
 9922SOL    HW134323   6.532   5.323   8.431  0.2526 -0.8000 -0.1523
 9922SOL    HW234324   6.632   5.387   8.526 -1.2944  1.4735  0.0323
 9923SOL     OW34325  10.273   0.744   2.127  0.3544  0.5011 -0.2756
 9923SOL    HW134326  10.279   0.838   2.146  1.1355  0.3827  0.0928
 9923SOL    HW234327  10.341   0.729   2.061  1.6735 -0.1767  1.1809
 9924SOL     OW34328   6.781   5.034   7.153  0.1849  0.4669 -0.2197
 9924SOL    HW134329   6.777   5.078   7.068  0.2266  0.4505 -0.2304
 9924SOL    HW234330   6.695   5.048   7.192 -0.6157 -1.4054 -1.1995
 9925SOL     OW34331   4.270   4.362   7.028 -0.1013 -0.4423  0.0364
 9925SOL    HW134332   4.331   4.373   6.956  1.4702 -0.7520  1.2763
 9925SOL    HW234333   4.238   4.272   7.018 -2.7194  0.6019 -2.3180
 9926SOL     OW34334   2.780   3.420   6.789  0.1325  0.1285 -0.4495
 9926SOL    HW134335   2.782   3.468   6.706 -1.4176  0.2828 -0.4361
 9926SOL    HW234336   2.718   3.348   6.774  1.2570 -0.9608  0.0152
 9927SOL     OW34337   2.886  11.270   8.366  0.3067  0.0587  0.3204
 9927SOL    HW134338   2.805  11.311   8.396  0.9128  1.1258  0.5430
 9927SOL    HW234339   2.877  11.178   8.390 -0.0051  0.5392  2.1357
 9928SOL     OW34340   7.250   3.061   0.068 -0.3913  0.1421  0.6159
 9928SOL    HW134341   7.298   3.131   0.024 -0.2694 -0.4620 -0.2495
 9928SOL    HW234342   7.262   2.985   0.011 -1.4892 -0.2922  0.9360
 9929SOL     OW34343  10.145   6.836   0.815  0.6253  0.3036  0.2199
 9929SOL    HW134344  10.141   6.925   0.780  2.4239  0.8365  1.2036
 9929SOL    HW234345  10.163   6.781   0.738 -0.8139  0.7115 -0.4433
 9930SOL     OW34346   9.807   1.940   2.473 -0.1479 -0.1653  0.6530
 9930SOL    HW134347   9.890   1.987   2.480  0.3222 -0.4209 -2.2564
 9930SOL    HW234348   9.802   1.890   2.555  2.2758  0.2698  1.1631
 9931SOL     OW34349   6.232   1.211   2.786  0.4675 -0.6931  0.2429
 9931SOL    HW134350   6.217   1.284   2.846  1.0061  1.0093 -1.5830
 9931SOL    HW234351   6.145   1.173   2.774  0.3643 -1.1466  2.1255
 9932SOL     OW34352   1.726   3.471   0.839  0.5403  0.1839  0.1236
 9932SOL    HW134353   1.798   3.414   0.810  1.1398  0.0195  1.8243
 9932SOL    HW234354   1.670   3.415   0.892  0.0028  0.6895  0.1021
 9933SOL     OW34355   9.672   7.637   5.623  0.0776  0.3108 -0.6579
 9933SOL    HW134356   9.731   7.708   5.648  0.0339  0.1111  0.0255
 9933SOL    HW234357   9.687   7.569   5.688  1.1266 -0.8866 -2.0678
 9934SOL     OW34358   3.635   2.407  10.931 -0.4582 -0.0298 -0.1501
 9934SOL    HW134359   3.720   2.382  10.895 -0.2316  0.6624 -0.1065
 9934SOL    HW234360   3.628   2.359  11.013 -0.6998 -1.1309 -0.7894
 9935SOL     OW34361   0.370   7.130   9.087  0.5698  0.1876 -0.0050
 9935SOL    HW134362   0.383   7.092   9.000 -0.8390 -0.7168  0.1554
 9935SOL    HW234363   0.409   7.217   9.081 -2.5682  1.6172 -2.6716
 9936SOL     OW34364   7.267   1.407   3.803 -0.1970  0.2346  0.1877
 9936SOL    HW134365   7.200   1.447   3.748  0.0125  1.0475  0.5004
 9936SOL    HW234366   7.287   1.474   3.869 -1.4641 -1.2430  2.1613
 9937SOL     OW34367   7.294   8.054   6.109 -0.1794  0.1208  0.2703
 9937SOL    HW134368   7.281   8.008   6.191  2.8009 -1.5697 -0.0517
 9937SOL    HW234369   7.320   8.143   6.135 -0.8014  0.0711  1.0783
 9938SOL     OW34370   6.832   0.318  12.113 -0.6545  0.0405 -0.0246
 9938SOL    HW134371   6.853   0.246  12.171 -1.5698 -0.5116 -0.3556
 9938SOL    HW234372   6.807   0.276  12.030  0.4018  0.7980 -0.7479
 9939SOL     OW34373   4.804   7.297   1.875 -0.1323  0.1002 -0.7250
 9939SOL    HW134374   4.889   7.285   1.834 -0.1192 -0.7135 -0.4761
 9939SOL    HW234375   4.821   7.295   1.969 -0.5229 -0.9406 -0.6611
 9940SOL     OW34376   1.877  11.712  10.052 -0.3405 -0.1968  0.2941
 9940SOL    HW134377   1.878  11.755   9.966  1.3222 -0.4172  0.1762
 9940SOL    HW234378   1.813  11.761  10.103 -1.8705 -0.4713 -1.2592
 9941SOL     OW34379   4.054   3.639   2.719  0.4930  0.2417 -0.3902
 9941SOL    HW134380   4.032   3.730   2.701  0.4403  0.3057 -0.0124
 9941SOL    HW234381   3.975   3.601   2.758  0.7634  0.2494  0.1870
 9942SOL     OW34382   8.067   6.315  11.818  0.5329  0.3925 -0.2041
 9942SOL    HW134383   7.979   6.345  11.841  0.0651 -0.9393 -0.1667
 9942SOL    HW234384   8.071   6.225  11.851  1.4474 -0.0072 -1.3399
 9943SOL     OW34385   3.691   1.499   6.601  0.0784  0.1087  0.9395
 9943SOL    HW134386   3.617   1.463   6.649  0.1408 -1.6567 -0.1871
 9943SOL    HW234387   3.669   1.592   6.588 -1.5356 -0.1876  1.3484
 9944SOL     OW34388   1.326   0.536   2.011 -0.0989  0.2169  0.1875
 9944SOL    HW134389   1.340   0.630   1.999  1.5435 -0.0925 -0.5780
 9944SOL    HW234390   1.282   0.529   2.095 -1.5606  1.7582 -0.3865
 9945SOL     OW34391   5.318  10.699   0.119  0.0455 -0.1862 -0.0652
 9945SOL    HW134392   5.292  10.676   0.030  0.6328 -3.2577  0.4508
 9945SOL    HW234393   5.411  10.722   0.112 -0.0757  0.2539 -0.3072
 9946SOL     OW34394   4.202   3.787   3.083  0.7826  0.2701  0.7531
 9946SOL    HW134395   4.115   3.819   3.107  0.0442 -0.5862 -0.6674
 9946SOL    HW234396   4.220   3.827   2.998  0.6271 -1.5866 -0.1950
 9947SOL     OW34397   4.075   9.361   3.169 -0.0245 -0.9271 -0.3685
 9947SOL    HW134398   4.130   9.426   3.124 -1.1751 -0.6164 -1.3692
 9947SOL    HW234399   4.138   9.304   3.213  1.0474  0.4086 -0.0909
 9948SOL     OW34400   5.460   4.294   0.737  0.2539 -0.0863  0.2357
 9948SOL    HW134401   5.420   4.360   0.679  3.1774  0.4220 -1.3739
 9948SOL    HW234402   5.518   4.345   0.793  1.3922 -1.1250  0.0182
 9949SOL     OW34403   8.516  11.066   3.137 -0.5735 -0.0137 -0.2327
 9949SOL    HW134404   8.572  11.138   3.108 -0.2508 -0.5833 -1.0683
 9949SOL    HW234405   8.444  11.065   3.074 -0.4584 -0.5556 -0.3664
 9950SOL     OW34406   8.803  10.314   9.021 -0.6073 -0.4935 -0.6142
 9950SOL    HW134407   8.712  10.316   9.051 -0.1185  1.2537  0.8673
 9950SOL    HW234408   8.848  10.260   9.086 -0.1281  0.7873  0.1567
 9951SOL     OW34409   2.144  10.318   5.978  0.0847 -0.3227  0.3619
 9951SOL    HW134410   2.135  10.307   5.884 -1.2849  0.1051  0.4145
 9951SOL    HW234411   2.206  10.390   5.988 -0.8013  0.5664 -0.2723
 9952SOL     OW34412   4.379   8.983   1.532 -0.0035 -0.1623  0.1834
 9952SOL    HW134413   4.377   9.077   1.518  0.6329 -0.1502  0.1607
 9952SOL    HW234414   4.335   8.970   1.616  0.2632  0.1918  0.3792
 9953SOL     OW34415  10.077   7.215   6.043 -0.2086 -0.1271  0.1004
 9953SOL    HW134416   9.984   7.237   6.057 -0.3733 -0.2509 -0.7687
 9953SOL    HW234417  10.091   7.138   6.098 -1.0065 -0.9664 -0.8169
 9954SOL     OW34418  11.838   6.928   6.173 -0.5178 -0.3244  0.9087
 9954SOL    HW134419  11.904   6.992   6.149  1.4740 -1.8265  2.0592
 9954SOL    HW234420  11.845   6.921   6.268 -0.9402 -1.9403  0.8513
 9955SOL     OW34421  10.682  10.480   1.167  0.2860 -0.0433 -0.2505
 9955SOL    HW134422  10.708  10.572   1.155  1.8707 -0.4848 -0.3584
 9955SOL    HW234423  10.588  10.479   1.146  0.3979  1.4178 -0.9522
 9956SOL     OW34424   1.836   1.811  10.598 -0.5653 -0.1315  0.5520
 9956SOL    HW134425   1.762   1.750  10.593  0.6922 -1.6500 -0.6858
 9956SOL    HW234426   1.912   1.754  10.612  0.3838  1.3900  1.8357
 9957SOL     OW34427  11.614   1.997   9.699  0.1155 -0.2491  0.5841
 9957SOL    HW134428  11.662   1.917   9.719  2.3618  0.5183 -1.1728
 9957SOL    HW234429  11.586   1.986   9.608 -0.2469  0.6135  0.5777
 9958SOL     OW34430   2.043   5.743   9.216 -0.2029 -0.2800 -0.0060
 9958SOL    HW134431   2.057   5.796   9.138 -1.4481 -0.7580 -0.5811
 9958SOL    HW234432   1.960   5.699   9.201  0.9040 -2.6780  0.2758
 9959SOL     OW34433   5.219   5.711   3.676  0.0213  0.4336 -0.2867
 9959SOL    HW134434   5.213   5.730   3.769  0.1450  0.0201 -0.1947
 9959SOL    HW234435   5.138   5.747   3.639 -1.2741 -1.6196  0.3575
 9960SOL     OW34436   9.581   2.198   4.926 -0.3993  0.2448  0.6627
 9960SOL    HW134437   9.564   2.279   4.878 -2.7806 -0.3821  0.3483
 9960SOL    HW234438   9.605   2.134   4.859 -1.7239 -0.1101  0.5047
 9961SOL     OW34439   2.583   3.360   2.443 -0.2515 -0.3754 -0.1290
 9961SOL    HW134440   2.522   3.329   2.376 -0.4351  0.1359 -0.1972
 9961SOL    HW234441   2.533   3.357   2.525 -0.6217  0.7764 -0.2987
 9962SOL     OW34442   2.450   2.730   6.382  0.2866 -0.4792 -0.3346
 9962SOL    HW134443   2.493   2.792   6.325 -0.9415 -0.4498 -1.2772
 9962SOL    HW234444   2.356   2.748   6.372 -0.1330 -2.5564 -0.7849
 9963SOL     OW34445   4.362   6.041   8.065  0.3840 -0.0361  0.0921
 9963SOL    HW134446   4.279   6.004   8.094  0.0034 -0.0962 -1.0540
 9963SOL    HW234447   4.364   6.128   8.105 -0.0920 -0.1428  0.3596
 9964SOL     OW34448  11.169   2.124   7.767  0.0919 -0.3094 -0.2932
 9964SOL    HW134449  11.215   2.193   7.719  0.9126  0.0929  0.9989
 9964SOL    HW234450  11.205   2.129   7.856  1.3343 -3.4052 -0.4741
 9965SOL     OW34451  10.467   1.863   8.666  0.4596  0.4291  0.5343
 9965SOL    HW134452  10.411   1.786   8.661  1.2457 -0.1161 -0.1443
 9965SOL    HW234453  10.463   1.901   8.578  0.7675  0.6630  0.6200
 9966SOL     OW34454  10.033   8.724   1.098 -0.7112 -0.0753 -0.4454
 9966SOL    HW134455   9.951   8.729   1.051 -2.0756  0.9541  1.8701
 9966SOL    HW234456  10.022   8.782   1.173  2.0450 -0.0929  0.0992
 9967SOL     OW34457   9.189   3.497   9.827  0.5501  0.1639  0.0953
 9967SOL    HW134458   9.257   3.506   9.894  1.5433  1.2118 -1.0243
 9967SOL    HW234459   9.228   3.531   9.747 -0.7708 -0.6405 -0.9445
 9968SOL     OW34460   9.494   8.672   0.792  0.0103 -0.4493  0.5744
 9968SOL    HW134461   9.441   8.701   0.718 -0.1646 -0.1301  0.8209
 9968SOL    HW234462   9.430   8.641   0.856  0.1964 -1.3707  0.3173
 9969SOL     OW34463   7.581   0.126   6.359  0.2340  0.2670  0.0755
 9969SOL    HW134464   7.560   0.144   6.450 -3.3603  0.5060 -0.6390
 9969SOL    HW234465   7.646   0.192   6.335  1.3055  0.1422  2.4387
 9970SOL     OW34466   4.661  11.367   6.846  0.0468 -0.0844 -0.1395
 9970SOL    HW134467   4.751  11.335   6.850  0.9554  2.1523 -1.2246
 9970SOL    HW234468   4.641  11.370   6.752 -0.4885  1.0941 -0.0064
 9971SOL     OW34469   6.834   6.939   8.941  0.2477 -0.1274  0.0749
 9971SOL    HW134470   6.806   6.895   9.022  0.4297 -0.3196  0.0348
 9971SOL    HW234471   6.815   7.031   8.956 -0.3359 -0.2402  0.0842
 9972SOL     OW34472  10.536   7.727   0.226  0.1910 -0.0175  0.3015
 9972SOL    HW134473  10.479   7.650   0.230  0.4546 -0.3909 -1.7462
 9972SOL    HW234474  10.558   7.747   0.317  1.0705 -3.0826  0.8591
 9973SOL     OW34475   3.822   9.020  10.493  0.3107 -0.2492  0.1066
 9973SOL    HW134476   3.882   8.985  10.558  0.4206  0.4530  0.3895
 9973SOL    HW234477   3.766   8.946  10.470 -0.8317 -0.1162  2.2202
 9974SOL     OW34478  10.836   7.760   2.694  0.3906 -0.8711  0.4323
 9974SOL    HW134479  10.858   7.676   2.735 -0.1210 -3.0000 -3.2185
 9974SOL    HW234480  10.741   7.759   2.687  0.4546 -0.5458 -0.6237
 9975SOL     OW34481  10.682   3.858   7.612 -0.0197  0.2825  0.5825
 9975SOL    HW134482  10.627   3.908   7.552 -0.1511 -1.2734 -0.6741
 9975SOL    HW234483  10.764   3.845   7.564 -0.3362 -1.4763  0.4680
 9976SOL     OW34484   3.782   1.211   1.329 -0.4631 -0.6160  0.3811
 9976SOL    HW134485   3.873   1.209   1.356 -0.1004 -0.2122 -0.7662
 9976SOL    HW234486   3.774   1.289   1.274 -1.2781 -1.1316 -0.2698
 9977SOL     OW34487   2.613   2.902   6.231 -0.5838  0.3437 -0.6878
 9977SOL    HW134488   2.657   2.918   6.148 -0.9734 -0.2116 -1.0095
 9977SOL    HW234489   2.540   2.964   6.232  1.0172  2.3451  0.5292
 9978SOL     OW34490   0.551   1.384  10.802 -0.2439  0.1629 -0.3682
 9978SOL    HW134491   0.616   1.314  10.796  0.1532  0.3665  1.1332
 9978SOL    HW234492   0.467   1.340  10.785  0.2567  0.0131 -2.9982
 9979SOL     OW34493   9.282   9.789   2.635  0.2988 -0.5175 -0.6266
 9979SOL    HW134494   9.268   9.756   2.724  0.8672 -1.4285 -0.8651
 9979SOL    HW234495   9.198   9.773   2.591  0.5410 -1.6126 -0.7182
 9980SOL     OW34496   4.494   6.343   5.912  0.2704  0.3489  0.0406
 9980SOL    HW134497   4.427   6.370   5.849 -0.1699  3.0019  1.5003
 9980SOL    HW234498   4.453   6.356   5.997  1.3625 -1.7377  0.9626
 9981SOL     OW34499   9.327   2.652   1.401  0.1743  0.3509  0.1060
 9981SOL    HW134500   9.246   2.641   1.452  0.3736  1.1849  0.6149
 9981SOL    HW234501   9.311   2.728   1.346  0.2039 -0.1638 -0.6297
 9982SOL     OW34502   8.907   6.742   2.707  0.0390 -0.1498  0.0182
 9982SOL    HW134503   8.862   6.685   2.769  0.6983 -0.1302  0.5267
 9982SOL    HW234504   8.923   6.823   2.756 -2.5183  1.2345 -1.2415
 9983SOL     OW34505   0.570   7.573   1.590 -0.1330 -0.5152 -0.5300
 9983SOL    HW134506   0.498   7.631   1.617 -0.7969 -1.4550 -0.2148
 9983SOL    HW234507   0.538   7.530   1.511  1.2282  1.1324 -2.0662
 9984SOL     OW34508   0.224   5.118  10.127 -0.2095 -0.1724  0.0298
 9984SOL    HW134509   0.143   5.153  10.090 -1.2672 -1.7043  0.7871
 9984SOL    HW234510   0.239   5.170  10.206 -1.9141 -1.5007  1.3005
 9985SOL     OW34511   2.501   5.908   8.955 -0.3326 -0.2866 -0.4376
 9985SOL    HW134512   2.561   5.919   9.029 -0.4960 -0.2136 -0.3146
 9985SOL    HW234513   2.433   5.849   8.988 -1.0036  0.6098 -0.1692
 9986SOL     OW34514   1.501   1.687   8.532  0.2458  0.0317  0.2719
 9986SOL    HW134515   1.454   1.605   8.519 -3.2796  2.0292 -1.3202
 9986SOL    HW234516   1.479   1.713   8.622 -0.9085  0.3992 -0.0891
 9987SOL     OW34517   3.834  10.600   2.492  0.0898 -0.6487 -0.7004
 9987SOL    HW134518   3.896  10.665   2.456  0.8731  0.0499  1.7499
 9987SOL    HW234519   3.752  10.648   2.501  0.4815 -0.1624  0.4443
 9988SOL     OW34520   1.990   4.326   8.041  0.0076 -0.6556 -0.6088
 9988SOL    HW134521   2.001   4.403   7.985  0.4482 -0.1354  0.1748
 9988SOL    HW234522   1.947   4.360   8.120  2.1279 -0.7839  0.6678
 9989SOL     OW34523   9.147   9.030   8.476 -0.5608  0.2650  0.2431
 9989SOL    HW134524   9.079   9.034   8.409  0.0356 -2.3671 -0.6777
 9989SOL    HW234525   9.227   9.009   8.427  0.0249 -1.1063  1.6986
 9990SOL     OW34526  10.705   9.722  10.524 -0.0841  0.3765 -0.5006
 9990SOL    HW134527  10.638   9.689  10.464 -0.4511 -0.8937  0.5741
 9990SOL    HW234528  10.666   9.800  10.564 -0.3498  0.4592 -0.9155
 9991SOL     OW34529  11.565   9.056   6.518 -0.1782  0.1747 -0.2163
 9991SOL    HW134530  11.588   9.035   6.609 -0.9133 -0.3732 -0.1465
 9991SOL    HW234531  11.472   9.032   6.511 -0.7826  2.3705 -0.4434
 9992SOL     OW34532   7.676   7.899   9.476 -0.3055  0.1235  0.2020
 9992SOL    HW134533   7.705   7.825   9.422 -0.0588 -0.3188  0.9277
 9992SOL    HW234534   7.581   7.891   9.478 -0.4037  0.7036 -0.9405
 9993SOL     OW34535   4.212  11.311  10.290 -0.2152 -0.0143  0.3097
 9993SOL    HW134536   4.130  11.352  10.264 -0.1719  0.3822  0.7934
 9993SOL    HW234537   4.220  11.328  10.384  0.0699 -0.6677  0.4097
 9994SOL     OW34538   7.702   7.668   9.311 -0.3054  0.6620  0.0665
 9994SOL    HW134539   7.722   7.576   9.294 -0.4857  0.5574  0.4192
 9994SOL    HW234540   7.608   7.670   9.326 -0.5214  1.0914 -1.1797
 9995SOL     OW34541  11.907   1.442   7.654  0.2305  0.2969 -0.3272
 9995SOL    HW134542  11.976   1.388   7.615 -0.6066 -1.4219  0.4802
 9995SOL    HW234543  11.843   1.453   7.585  0.4498  0.3443 -0.5239
 9996SOL     OW34544   3.842   9.858   8.430 -0.0089 -0.5337 -0.8453
 9996SOL    HW134545   3.918   9.863   8.488 -0.4634 -0.1030 -0.2621
 9996SOL    HW234546   3.821   9.765   8.426  1.3191 -0.8063 -2.0595
 9997SOL     OW34547   4.874   6.234   4.605 -0.1022  0.2775  0.3222
 9997SOL    HW134548   4.857   6.327   4.619 -0.2587  0.4413 -0.8609
 9997SOL    HW234549   4.820   6.190   4.671 -1.9423  0.9507 -0.6599
 9998SOL     OW34550   4.052   1.647  11.300 -0.5053 -0.0944  0.2393
 9998SOL    HW134551   4.061   1.671  11.392 -0.6347 -2.9249  1.0744
 9998SOL    HW234552   4.142   1.646  11.267 -0.3704 -0.0033  0.5991
 9999SOL     OW34553   3.859   6.003   9.570 -0.4649  0.2825  0.3035
 9999SOL    HW134554   3.854   5.933   9.636 -2.8974  0.1262  0.0229
 9999SOL    HW234555   3.920   5.969   9.505  0.8283 -0.2066  1.6993
10000SOL     OW34556   8.963   7.784   5.824 -0.3361  0.3917  0.2018
10000SOL    HW134557   8.956   7.878   5.839  2.2191  0.6855  0.0817
10000SOL    HW234558   9.050   7.773   5.785  0.0043 -2.1360  1.4686
10001SOL     OW34559   3.512   9.381   1.461  1.1018 -0.5590  0.1388
10001SOL    HW134560   3.427   9.342   1.478  0.9306  0.1430  0.9587
10001SOL    HW234561   3.560   9.314   1.412 -0.1017 -0.7413 -0.8274
10002SOL     OW34562  10.688   1.066   2.333  0.0998  0.8531 -0.3003
10002SOL    HW134563  10.726   1.009   2.266  0.0620 -2.2330  2.0880
10002SOL    HW234564  10.601   1.087   2.300  0.0211 -0.6983 -1.1756
10003SOL     OW34565   4.425  11.514   6.649 -0.6088 -0.2910 -0.0684
10003SOL    HW134566   4.435  11.605   6.621  1.8036 -0.1235  1.1169
10003SOL    HW234567   4.498  11.468   6.608 -0.3702 -1.1765  1.2753
10004SOL     OW34568   4.339   9.512   5.368 -0.3282 -0.7484  0.3314
10004SOL    HW134569   4.350   9.520   5.463 -1.8469 -1.2029  0.5768
10004SOL    HW234570   4.253   9.472   5.358 -0.8649  0.7052 -1.2754
10005SOL     OW34571  10.721   9.396   2.180 -0.2789  0.5050  0.1352
10005SOL    HW134572  10.717   9.466   2.245 -0.3588  1.2932 -0.6974
10005SOL    HW234573  10.762   9.436   2.104  2.1720 -1.0686  0.5228
10006SOL     OW34574   5.620   4.337   2.932  0.0457 -0.1145  0.0739
10006SOL    HW134575   5.535   4.335   2.887  0.9356 -0.2084 -1.6544
10006SOL    HW234576   5.678   4.285   2.877  1.8487  1.9548 -0.1122
10007SOL     OW34577   8.349   1.138   5.117 -0.0827  0.1912  0.5566
10007SOL    HW134578   8.333   1.175   5.030 -0.5222 -0.1296  0.4954
10007SOL    HW234579   8.431   1.089   5.108  0.3838  0.9625  0.5804
10008SOL     OW34580  11.592   3.942  11.907  0.5074 -0.2399  0.4455
10008SOL    HW134581  11.613   3.873  11.969 -2.4377 -0.9823  0.7875
10008SOL    HW234582  11.574   4.019  11.961 -1.2204 -0.6574  0.5259
10009SOL     OW34583  10.895   8.786   4.685  0.1115  0.0971 -0.0260
10009SOL    HW134584  10.915   8.696   4.708  0.8489  0.2305 -0.1411
10009SOL    HW234585  10.977   8.823   4.654  0.1038  1.1434  1.0980
10010SOL     OW34586   9.035   8.902   7.348  0.6673  0.1863  0.3331
10010SOL    HW134587   8.998   8.933   7.265 -1.1866 -0.2448  0.9398
10010SOL    HW234588   9.053   8.809   7.333 -0.3852 -0.0803  0.6000
10011SOL     OW34589   6.538  11.259   6.890 -0.4570  0.7948  0.0935
10011SOL    HW134590   6.571  11.187   6.837  0.7703  1.8133 -0.5862
10011SOL    HW234591   6.449  11.274   6.857  0.3259  1.5099 -1.8445
10012SOL     OW34592   6.416   7.509   1.056 -0.2525  0.8132 -0.3064
10012SOL    HW134593   6.460   7.434   1.098  2.1995  1.8384 -0.8670
10012SOL    HW234594   6.366   7.470   0.985  0.6733 -0.3744 -0.3531
10013SOL     OW34595   8.442   6.033   3.914  0.0181  0.0927 -0.1815
10013SOL    HW134596   8.356   6.067   3.891  0.3920 -0.2789 -2.4097
10013SOL    HW234597   8.480   6.100   3.971 -1.6762  0.2998  0.7750
10014SOL     OW34598   7.893   0.118   8.943 -0.1997 -0.0326  0.4394
10014SOL    HW134599   7.892   0.207   8.908 -1.3858  0.5665  1.8449
10014SOL    HW234600   7.836   0.069   8.884  0.1944  0.2094 -0.1528
10015SOL     OW34601  10.941   8.903   8.658 -0.1986 -0.0001 -0.3717
10015SOL    HW134602  10.957   8.996   8.641 -2.5178  1.0833  2.4787
10015SOL    HW234603  11.004   8.857   8.603  1.3425  3.2558 -1.5688
10016SOL     OW34604   2.744   0.437   5.884  0.4044  0.1719 -0.0848
10016SOL    HW134605   2.655   0.416   5.855  0.2761 -1.4880  1.3688
10016SOL    HW234606   2.732   0.480   5.969  1.0000 -0.6488  0.4252
10017SOL     OW34607   2.901   9.764   9.414  0.0593 -0.5825 -0.4706
10017SOL    HW134608   2.827   9.815   9.447 -1.4008 -1.3572 -2.3629
10017SOL    HW234609   2.900   9.683   9.465 -0.2459 -0.4787 -0.3130
10018SOL     OW34610   4.971   9.643   9.162 -0.2627  0.0784 -0.6610
10018SOL    HW134611   5.026   9.573   9.197 -0.5107 -0.1531 -0.7350
10018SOL    HW234612   4.995   9.649   9.070  1.6146  1.8119 -0.1657
10019SOL     OW34613   6.004   3.764   1.861 -0.0292  0.3688  0.2646
10019SOL    HW134614   5.988   3.822   1.787 -0.4822  0.6734  0.5953
10019SOL    HW234615   6.054   3.691   1.824  1.5827  1.5154  0.0495
10020SOL     OW34616  10.280   5.320   6.041 -0.2620 -0.6051  0.0114
10020SOL    HW134617  10.350   5.370   6.084 -0.7195 -2.1055  2.7365
10020SOL    HW234618  10.295   5.230   6.068 -1.1543 -1.5450 -2.3999
10021SOL     OW34619   3.188   8.311   2.176  0.0463  0.5549 -0.3348
10021SOL    HW134620   3.232   8.389   2.141 -1.5518  1.8968  0.4410
10021SOL    HW234621   3.140   8.344   2.253 -1.5381 -0.9608 -0.6056
10022SOL     OW34622   3.174   9.319   1.277 -0.4784  0.0826  0.0068
10022SOL    HW134623   3.139   9.305   1.190  0.1663  0.0448 -0.2513
10022SOL    HW234624   3.268   9.335   1.264  0.0541 -1.9955  0.8378
10023SOL     OW34625   7.910   1.830   6.777 -0.0320 -0.5905 -0.0730
10023SOL    HW134626   7.897   1.756   6.718 -0.8991  0.1979 -0.9067
10023SOL    HW234627   8.004   1.845   6.776  0.1683 -1.6948  0.1519
10024SOL     OW34628   2.274   8.894   6.256  0.4705  0.1614  0.0678
10024SOL    HW134629   2.296   8.979   6.293  3.3300 -0.1948 -0.6319
10024SOL    HW234630   2.261   8.911   6.163  2.3614 -0.3215 -0.3123
10025SOL     OW34631  10.683   8.398   3.408 -0.6008 -0.2468  0.2052
10025SOL    HW134632  10.777   8.390   3.395 -0.1143  2.4889  1.4310
10025SOL    HW234633  10.665   8.492   3.401 -3.2509 -0.6869  0.0325
10026SOL     OW34634   8.232  11.023   2.464 -0.2371 -0.6085  0.6086
10026SOL    HW134635   8.197  11.035   2.375 -1.7676  0.6762  1.3326
10026SOL    HW234636   8.224  11.109   2.505 -1.6971 -1.6454  2.7058
10027SOL     OW34637   0.676   2.890   0.012 -0.4655 -0.0824  0.5904
10027SOL    HW134638   0.688   2.965   0.070  1.5583 -0.3618  0.6156
10027SOL    HW234639   0.621   2.923  -0.059  1.3890  1.8564 -0.0644
10028SOL     OW34640  11.677   7.796   6.578  0.4432  0.2431 -0.3741
10028SOL    HW134641  11.595   7.749   6.562 -0.1547  0.4395  1.7633
10028SOL    HW234642  11.708   7.762   6.663  1.5037  1.6439 -0.1639
10029SOL     OW34643   5.227  10.388   4.307 -0.1244  0.0913 -0.0185
10029SOL    HW134644   5.268  10.441   4.376 -1.0273  2.1055 -0.9530
10029SOL    HW234645   5.288  10.392   4.234 -0.0495 -0.4634  0.0074
10030SOL     OW34646   9.801   5.916   9.899 -0.5109 -0.1765 -0.0386
10030SOL    HW134647   9.762   5.895   9.984  1.2564  1.5327  1.2822
10030SOL    HW234648   9.762   6.000   9.875  1.6785  1.2507  1.0066
10031SOL     OW34649   8.634   2.877  10.171  0.3300  0.4950 -0.5171
10031SOL    HW134650   8.585   2.795  10.161 -1.8090  1.1563  2.7589
10031SOL    HW234651   8.613   2.928  10.092  0.3059 -1.4108 -1.7951
10032SOL     OW34652   9.420   0.371  12.046 -0.3097 -0.1615 -0.2853
10032SOL    HW134653   9.470   0.343  11.969 -0.6344  0.3728 -0.6942
10032SOL    HW234654   9.481   0.425  12.096  0.6775 -2.3488  1.0470
10033SOL     OW34655   8.293   0.987   6.771 -0.0085  0.2068  0.4991
10033SOL    HW134656   8.310   0.944   6.855 -3.6597 -3.3091 -0.2321
10033SOL    HW234657   8.346   0.938   6.708 -0.4245  0.0548  0.2638
10034SOL     OW34658   0.609   5.156   2.733 -0.9109  0.1261 -0.4074
10034SOL    HW134659   0.669   5.134   2.661  0.4060 -0.8829  0.9319
10034SOL    HW234660   0.573   5.071   2.761 -0.9653  0.4298  0.4864
10035SOL     OW34661   6.834   3.170   4.087  0.2207  0.0738 -0.3278
10035SOL    HW134662   6.854   3.263   4.087 -0.6440  0.2766  0.6230
10035SOL    HW234663   6.890   3.133   4.156 -1.5723  0.4137  1.3783
10036SOL     OW34664   2.359   0.597   8.554  0.9712 -0.4298 -0.0231
10036SOL    HW134665   2.372   0.645   8.636  1.6831 -1.7507  0.6794
10036SOL    HW234666   2.363   0.664   8.486 -1.3094  0.9714  1.0876
10037SOL     OW34667   7.640   0.955   6.978  0.0421 -0.1109  0.5155
10037SOL    HW134668   7.637   0.870   6.934 -2.3228 -0.0686  0.4813
10037SOL    HW234669   7.624   1.019   6.908 -0.2847  0.2190  0.8909
10038SOL     OW34670   5.395   3.024   5.630 -0.1649  0.5279 -0.2499
10038SOL    HW134671   5.450   3.033   5.708  0.7849  0.6062 -0.9080
10038SOL    HW234672   5.321   2.970   5.659  0.7930 -0.4838  0.4048
10039SOL     OW34673   1.621   0.195   3.139 -0.2044  0.0512 -0.2295
10039SOL    HW134674   1.680   0.248   3.085 -3.1261  1.8966 -1.8812
10039SOL    HW234675   1.600   0.120   3.084 -1.5662  0.8795 -0.8931
10040SOL     OW34676   4.288   4.410   1.769  0.1078 -0.5741 -0.3983
10040SOL    HW134677   4.329   4.349   1.831 -1.1141 -1.6819 -0.6416
10040SOL    HW234678   4.314   4.377   1.683  0.1892 -0.2053 -0.5156
10041SOL     OW34679   6.374   6.710   4.561 -0.0534  0.1452 -0.1791
10041SOL    HW134680   6.458   6.665   4.568  0.0855  0.1350 -1.6501
10041SOL    HW234681   6.309   6.641   4.571  0.0718  0.2303  1.5279
10042SOL     OW34682   9.398   2.484   3.287  0.5955  0.2324 -0.1371
10042SOL    HW134683   9.440   2.400   3.308  1.0028  0.4885  0.0642
10042SOL    HW234684   9.310   2.476   3.322  0.7171 -0.0112  0.1145
10043SOL     OW34685   3.519   4.650   5.276  0.0919  0.2965  0.6980
10043SOL    HW134686   3.609   4.627   5.303  0.3174 -0.0147 -0.2784
10043SOL    HW234687   3.506   4.739   5.310  1.5962  1.2433 -1.0060
10044SOL     OW34688   5.828  11.046   0.766  0.5671  0.1556 -1.1435
10044SOL    HW134689   5.859  11.081   0.849 -0.1214  0.9559 -1.2068
10044SOL    HW234690   5.858  10.955   0.765  2.8658  0.8475 -1.1995
10045SOL     OW34691  11.158   2.076   0.869  0.4373  0.0539  0.0874
10045SOL    HW134692  11.068   2.069   0.900 -0.2106 -0.5200 -1.8096
10045SOL    HW234693  11.196   2.147   0.921 -1.7081  1.6514 -0.4247
10046SOL     OW34694   7.360   5.794   9.192  0.3196  0.4486 -0.0354
10046SOL    HW134695   7.296   5.760   9.129 -0.3809  0.3873  0.6965
10046SOL    HW234696   7.427   5.725   9.197 -1.4035 -1.2211  1.9217
10047SOL     OW34697   7.826   3.795   1.227 -0.0254  0.5605 -0.2465
10047SOL    HW134698   7.810   3.851   1.151  0.1718 -0.2707 -0.9162
10047SOL    HW234699   7.860   3.714   1.190  2.3732  0.9724  0.8901
10048SOL     OW34700  10.333   7.776   7.327 -0.5040  0.4937  0.2101
10048SOL    HW134701  10.276   7.700   7.337 -0.1458  0.1312 -0.4382
10048SOL    HW234702  10.376   7.763   7.243  0.3656  0.8788  0.5863
10049SOL     OW34703  11.978   8.065  12.017  0.0176 -0.3501 -0.2404
10049SOL    HW134704  12.022   7.997  12.068  0.3585  1.1635  1.6314
10049SOL    HW234705  12.044   8.093  11.953  0.8877  0.0990  0.8183
10050SOL     OW34706   6.130   9.316   3.852 -0.0038 -0.0726  0.3541
10050SOL    HW134707   6.061   9.259   3.886 -0.2432  0.1901  0.3112
10050SOL    HW234708   6.130   9.391   3.912 -0.5234  0.4618 -0.3034
10051SOL     OW34709   6.710   2.288   3.985 -0.3297 -0.2285 -0.7209
10051SOL    HW134710   6.654   2.256   4.055  0.8307 -0.4544  0.1213
10051SOL    HW234711   6.739   2.374   4.015 -1.0882  0.3733 -1.6537
10052SOL     OW34712   2.553   4.786   9.407 -0.0819  0.5164 -0.2174
10052SOL    HW134713   2.623   4.820   9.351 -0.2611  0.4718 -0.4692
10052SOL    HW234714   2.562   4.835   9.489 -0.5731  1.4606 -0.7045
10053SOL     OW34715  10.156   9.734   8.176  0.0361 -0.2942  0.4893
10053SOL    HW134716  10.127   9.706   8.262 -0.0137 -1.1658  0.2043
10053SOL    HW234717  10.108   9.815   8.159  1.3122  0.8276  1.9691
10054SOL     OW34718   3.597   0.626   0.675 -0.3627  0.1684  0.4923
10054SOL    HW134719   3.600   0.699   0.613  0.7269 -0.6452 -0.4619
10054SOL    HW234720   3.507   0.625   0.707 -0.8135  0.9360 -0.6950
10055SOL     OW34721  11.720   0.586   3.130 -0.0962 -0.5090  0.6297
10055SOL    HW134722  11.719   0.673   3.170  1.5393 -0.3917  0.4969
10055SOL    HW234723  11.810   0.576   3.097  0.3247 -2.9488  2.2262
10056SOL     OW34724   3.004   6.249   3.036  0.6718  0.0599  0.1371
10056SOL    HW134725   3.003   6.345   3.043 -1.6099  0.0937  0.1455
10056SOL    HW234726   3.017   6.232   2.942  1.4961  0.3474  0.1906
10057SOL     OW34727   5.634   7.786   6.023  0.0515  0.3105 -0.4582
10057SOL    HW134728   5.624   7.751   5.935  1.8758 -0.2713 -0.4649
10057SOL    HW234729   5.553   7.835   6.038 -0.5402 -0.0462 -2.2242
10058SOL     OW34730   9.342   0.098   6.869 -0.2612  0.5137  0.2389
10058SOL    HW134731   9.410   0.141   6.817  1.0441 -1.0378  0.5876
10058SOL    HW234732   9.276   0.166   6.882  1.0788  2.0062 -0.3540
10059SOL     OW34733  11.794   9.680   2.011 -0.3164  0.5028 -0.2216
10059SOL    HW134734  11.867   9.671   2.072  0.5719  1.2886 -1.1297
10059SOL    HW234735  11.722   9.714   2.064  0.3700  0.9577  0.4394
10060SOL     OW34736   1.830   2.994   8.125  0.4536 -0.2347 -0.3452
10060SOL    HW134737   1.856   2.913   8.083 -0.7314 -0.3403 -0.8885
10060SOL    HW234738   1.749   3.020   8.082 -0.1010  0.3441  0.9653
10061SOL     OW34739   1.457   9.068   6.995  0.2890 -0.0766 -1.1178
10061SOL    HW134740   1.545   9.035   7.011  0.7134 -0.0953 -3.2082
10061SOL    HW234741   1.403   9.027   7.063  1.9384  0.3504  0.5151
10062SOL     OW34742   1.563   7.029   6.398  0.1218  0.5318 -0.3087
10062SOL    HW134743   1.479   7.052   6.358 -0.3004  0.9892  0.8168
10062SOL    HW234744   1.603   6.969   6.335 -0.3327  1.5415 -1.6090
10063SOL     OW34745   4.730   2.083   3.136  0.4211 -0.2874 -0.6777
10063SOL    HW134746   4.639   2.113   3.132  0.1694 -1.0345 -0.6961
10063SOL    HW234747   4.773   2.128   3.063  0.5112  1.4806  0.4165
10064SOL     OW34748   2.624  10.108   0.836  0.5145 -0.3977 -0.8092
10064SOL    HW134749   2.602  10.076   0.923 -1.2003  0.6510 -0.8119
10064SOL    HW234750   2.695  10.051   0.807  0.6352 -1.2225  0.9726
10065SOL     OW34751   8.436   5.534  10.020 -0.1692 -0.0627  0.4487
10065SOL    HW134752   8.398   5.621  10.012 -1.7024 -0.4910  2.3683
10065SOL    HW234753   8.405   5.488   9.942 -0.1459  0.7975 -0.0865
10066SOL     OW34754   4.893   2.516   6.558 -0.2050  0.5394  0.5422
10066SOL    HW134755   4.950   2.471   6.497  0.4848  1.0261  0.8128
10066SOL    HW234756   4.913   2.477   6.643 -2.0010 -0.9722  0.3442
10067SOL     OW34757   6.000   1.902   0.712  0.0188  0.1380  0.2685
10067SOL    HW134758   5.914   1.926   0.747  0.6207  1.3753  0.9754
10067SOL    HW234759   5.989   1.901   0.617 -0.9943 -0.6581  0.3790
10068SOL     OW34760   0.102   9.742   5.222 -0.6264 -0.1870 -0.0669
10068SOL    HW134761   0.089   9.671   5.285 -2.7653  2.4945  2.8920
10068SOL    HW234762   0.014   9.761   5.189 -0.1440  1.1391 -0.6566
10069SOL     OW34763   8.761  10.342   5.023  0.0435  0.1850 -0.1560
10069SOL    HW134764   8.707  10.316   5.098  0.6300  0.5792  0.4151
10069SOL    HW234765   8.709  10.320   4.946 -0.6023 -0.1473  0.3754
10070SOL     OW34766   1.879   2.326   8.578  0.7770  0.3957  0.1305
10070SOL    HW134767   1.861   2.353   8.488 -0.0650  0.2384  0.2408
10070SOL    HW234768   1.922   2.241   8.569  1.6359  0.8450 -0.1499
10071SOL     OW34769  10.280   2.814  10.271  0.0937  0.0018  0.2360
10071SOL    HW134770  10.336   2.857  10.336  0.2883  0.4155 -0.2035
10071SOL    HW234771  10.297   2.861  10.190  1.6145 -1.9880 -0.6662
10072SOL     OW34772   8.056   3.740   9.544 -0.1631 -0.4394 -0.2444
10072SOL    HW134773   8.086   3.708   9.629  1.9469  0.5795 -0.5332
10072SOL    HW234774   7.982   3.796   9.564  0.2019 -0.3472  0.9114
10073SOL     OW34775   3.036  10.139  11.830 -0.2151  0.3080  0.5418
10073SOL    HW134776   2.944  10.127  11.853 -0.2970 -0.6762 -0.2066
10073SOL    HW234777   3.070  10.200  11.895 -1.2783  0.3169  1.1077
10074SOL     OW34778   2.416   8.755   9.249  0.2662  0.1775  0.2319
10074SOL    HW134779   2.334   8.777   9.204  1.5263  1.1414 -1.7237
10074SOL    HW234780   2.477   8.736   9.178  2.0750  0.7049  1.5926
10075SOL     OW34781  11.320   3.683  10.115 -0.0008  0.9320 -0.1905
10075SOL    HW134782  11.334   3.732  10.034 -0.7154  0.6449 -0.4954
10075SOL    HW234783  11.389   3.713  10.174  2.6748 -1.2024 -1.9733
10076SOL     OW34784   6.168   1.357   3.938  0.0103 -0.3442  0.4291
10076SOL    HW134785   6.183   1.273   3.893 -0.3100  0.1687 -0.6686
10076SOL    HW234786   6.245   1.370   3.992  0.6987 -0.6904 -0.4507
10077SOL     OW34787   3.157   2.531   5.717  0.1893  0.0958  0.0461
10077SOL    HW134788   3.147   2.494   5.630 -1.9482 -2.2998  1.1965
10077SOL    HW234789   3.128   2.462   5.777 -0.1994  2.2828  2.5816
10078SOL     OW34790  11.921   5.476  10.375  0.2108 -0.1825 -0.3817
10078SOL    HW134791  11.907   5.445  10.465 -0.3120 -0.0465 -0.4132
10078SOL    HW234792  11.929   5.396  10.324  3.3235 -0.3388  0.1604
10079SOL     OW34793   8.782  12.022   5.206  0.2392  0.3179  0.4301
10079SOL    HW134794   8.722  11.953   5.177  0.0322  0.6111  0.1391
10079SOL    HW234795   8.813  12.063   5.124 -0.6372  1.3990  0.6063
10080SOL     OW34796   5.773   2.330  11.333 -0.3863  0.0049 -0.1726
10080SOL    HW134797   5.747   2.246  11.295  1.2757  0.2543 -2.0354
10080SOL    HW234798   5.849   2.358  11.281  1.1620  1.1138  2.4409
10081SOL     OW34799  10.888   8.680  11.863  0.1568 -0.1411  0.9145
10081SOL    HW134800  10.898   8.758  11.918 -1.6025 -0.0442  1.1535
10081SOL    HW234801  10.795   8.677  11.842  0.8279  0.3023 -2.8110
10082SOL     OW34802   0.139  11.141   4.506  0.1286 -0.0271  0.0021
10082SOL    HW134803   0.085  11.164   4.581  0.9546 -1.6891  1.1677
10082SOL    HW234804   0.224  11.120   4.543  1.0204  0.5991 -1.5829
10083SOL     OW34805   6.007   1.468   2.339  0.0406  0.0204  0.0940
10083SOL    HW134806   6.024   1.562   2.338  1.2891 -0.1378  1.5981
10083SOL    HW234807   5.913   1.460   2.323 -0.0837  1.5231 -0.0290
10084SOL     OW34808  11.353   9.162   9.726 -0.1818 -0.1947  0.1226
10084SOL    HW134809  11.403   9.109   9.665  0.6400  0.3889  0.2758
10084SOL    HW234810  11.300   9.100   9.775 -0.3657 -0.7282 -0.7252
10085SOL     OW34811   1.011   4.260   1.281  0.0980  0.0000 -0.0850
10085SOL    HW134812   1.101   4.293   1.286  0.0910 -0.1444  1.4046
10085SOL    HW234813   1.016   4.171   1.316 -0.6820  0.1165  0.3474
10086SOL     OW34814   8.007   9.648   2.286 -0.0569 -0.2695 -0.0729
10086SOL    HW134815   7.928   9.686   2.323 -0.3856 -1.5779  0.6108
10086SOL    HW234816   8.069   9.645   2.359 -0.2006 -1.4768  0.0156
10087SOL     OW34817   7.965   4.397   8.529  0.5734  0.4455  0.4161
10087SOL    HW134818   8.010   4.478   8.505  1.1521 -0.2957 -1.0680
10087SOL    HW234819   7.906   4.380   8.457  1.1797 -0.9828  0.2309
10088SOL     OW34820   7.190   7.107   1.511 -0.4512  0.0545  0.7381
10088SOL    HW134821   7.096   7.114   1.493 -0.4817 -0.3842  0.7221
10088SOL    HW234822   7.201   7.152   1.595 -0.3531  1.8189 -0.1729
10089SOL     OW34823  10.002  11.904   0.106  0.1547  0.7021  0.1491
10089SOL    HW134824   9.995  11.983   0.054 -0.6637  0.5636  0.0350
10089SOL    HW234825  10.001  11.934   0.197 -0.5983  0.8000  0.1149
10090SOL     OW34826   4.400   1.199   6.195  0.0310  0.0324  0.0711
10090SOL    HW134827   4.381   1.265   6.262 -1.7297 -1.4660  1.1276
10090SOL    HW234828   4.495   1.187   6.199  0.4450  2.5760 -0.2967
10091SOL     OW34829   6.411   2.567   0.033 -0.6455 -0.0431  0.4342
10091SOL    HW134830   6.336   2.517   0.066  0.5103 -1.4580  0.9960
10091SOL    HW234831   6.476   2.562   0.103 -0.1190  1.4460  0.0958
10092SOL     OW34832   7.117   4.195  11.392  0.3284 -0.1425 -0.1957
10092SOL    HW134833   7.180   4.135  11.351 -0.4282 -0.4609 -0.9267
10092SOL    HW234834   7.155   4.214  11.478  1.5446 -0.1282 -0.7073
10093SOL     OW34835   0.824   3.227  10.304  0.2570 -0.1095  0.5551
10093SOL    HW134836   0.882   3.160  10.339  1.8314  1.0632  0.3296
10093SOL    HW234837   0.844   3.230  10.211 -0.9022 -0.3483  0.2800
10094SOL     OW34838   3.215   3.513   2.677 -0.2679 -0.2441  0.9417
10094SOL    HW134839   3.183   3.428   2.707 -0.5053 -0.9590 -1.1253
10094SOL    HW234840   3.150   3.541   2.613  1.5237 -0.1731 -0.9460
10095SOL     OW34841   0.733   9.779   8.901 -0.4238  0.3615  0.1096
10095SOL    HW134842   0.723   9.856   8.958  0.2076 -0.4796  1.3913
10095SOL    HW234843   0.650   9.732   8.908  0.7492 -1.5490  3.1449
10096SOL     OW34844   4.246   9.487   5.643  0.3481  0.6982  0.0692
10096SOL    HW134845   4.189   9.432   5.696  0.6415 -0.5843 -0.9198
10096SOL    HW234846   4.239   9.574   5.683 -0.2324 -0.0086  1.5621
10097SOL     OW34847   7.518   6.677  10.191 -0.6485  0.7690  0.0220
10097SOL    HW134848   7.544   6.697  10.101 -0.4421 -2.4334 -0.7722
10097SOL    HW234849   7.423   6.664  10.185 -0.6393  0.5841  0.2807
10098SOL     OW34850   2.594   2.668   3.715 -0.3051  0.0321  0.1322
10098SOL    HW134851   2.685   2.683   3.740 -0.2134  0.1001 -0.2426
10098SOL    HW234852   2.592   2.681   3.620 -0.9222  1.1276  0.2688
10099SOL     OW34853   3.360   3.365   1.681  0.0046 -0.4106 -0.2206
10099SOL    HW134854   3.333   3.457   1.682 -1.0881 -0.6430 -2.1636
10099SOL    HW234855   3.311   3.324   1.752  1.3150  0.6616  1.3662
10100SOL     OW34856   6.246   0.811   9.786 -0.0165 -0.0770 -0.0007
10100SOL    HW134857   6.200   0.733   9.755 -0.8549  1.0524 -1.7111
10100SOL    HW234858   6.210   0.827   9.874 -2.4938  0.4152 -1.0309
10101SOL     OW34859   9.907   4.733  10.034  0.2763 -0.0540  0.4392
10101SOL    HW134860   9.864   4.768  10.112  1.7637  1.1370  0.7633
10101SOL    HW234861   9.933   4.644  10.059 -0.6323 -0.2496  0.7419
10102SOL     OW34862   4.156  12.100   1.547  0.0280  0.1811 -0.2817
10102SOL    HW134863   4.173  12.159   1.621 -0.0319  0.8603 -0.8011
10102SOL    HW234864   4.126  12.019   1.588 -1.8027  1.1457  0.4142
10103SOL     OW34865  11.253   9.769   0.051  0.3794  0.8067 -0.4952
10103SOL    HW134866  11.267   9.803  -0.037 -1.2298 -0.2528 -1.2108
10103SOL    HW234867  11.238   9.675   0.038 -1.2522  0.8605  0.7331
10104SOL     OW34868   6.587   3.798   3.709  0.0360 -0.0923  0.0830
10104SOL    HW134869   6.663   3.767   3.661  0.3196  1.1499 -0.2975
10104SOL    HW234870   6.543   3.718   3.738  0.0943 -0.8726 -1.8555
10105SOL     OW34871  10.404   0.034  10.892 -0.2200  0.4077 -0.6298
10105SOL    HW134872  10.322   0.001  10.855 -0.2850 -1.5554  1.0587
10105SOL    HW234873  10.380   0.068  10.978  0.9146 -2.2205  0.8689
10106SOL     OW34874   0.534   8.998   0.679  0.1023  0.0305  0.1492
10106SOL    HW134875   0.588   8.978   0.756  2.1182  1.4847 -0.8027
10106SOL    HW234876   0.519   9.092   0.684 -0.5570 -0.0180 -0.7297
10107SOL     OW34877   8.140   6.388   2.083 -0.0611  0.3546 -0.1348
10107SOL    HW134878   8.231   6.385   2.114  0.1331  0.5467 -0.6849
10107SOL    HW234879   8.123   6.300   2.050  0.1897  0.5431 -0.7757
10108SOL     OW34880   0.291   3.852  11.733  0.0176  0.3739 -0.1381
10108SOL    HW134881   0.355   3.805  11.786  0.2963  0.8720 -0.0248
10108SOL    HW234882   0.249   3.785  11.680 -0.8524 -0.2595  1.2988
10109SOL     OW34883   0.051   0.188   8.373 -0.4201  0.1610 -0.4328
10109SOL    HW134884   0.048   0.213   8.465  1.1018 -0.7284 -0.1153
10109SOL    HW234885   0.066   0.271   8.327  0.0590  0.4439  0.2194
10110SOL     OW34886   2.344   0.184   6.588 -0.0494 -0.4977 -0.0332
10110SOL    HW134887   2.345   0.209   6.681  0.4505 -1.3408  0.1984
10110SOL    HW234888   2.325   0.090   6.589 -0.6143 -0.4037 -0.8186
10111SOL     OW34889   6.573   9.847   0.473  0.1829 -0.2716 -0.0425
10111SOL    HW134890   6.542   9.786   0.406  0.0175  0.7080 -0.8891
10111SOL    HW234891   6.548   9.807   0.556 -1.5416 -0.5079 -0.6336
10112SOL     OW34892   0.461   9.089   1.165 -0.4353  0.1406 -0.7206
10112SOL    HW134893   0.544   9.042   1.174 -0.5480  0.2538  1.5517
10112SOL    HW234894   0.487   9.177   1.136  0.4962  0.7519  1.7119
10113SOL     OW34895  10.979   0.547   1.434  0.1968  0.5089  0.4092
10113SOL    HW134896  11.023   0.515   1.355 -1.7889 -0.9035 -0.2208
10113SOL    HW234897  10.965   0.469   1.487 -2.4755  0.6533  0.0481
10114SOL     OW34898   9.526  10.676  11.636  0.8370 -0.3388  0.0785
10114SOL    HW134899   9.452  10.708  11.687 -0.9055 -2.9137 -0.6190
10114SOL    HW234900   9.591  10.650  11.701  0.5403  0.6386  0.7750
10115SOL     OW34901   7.041  10.983   6.923  0.0646 -0.6297 -0.7618
10115SOL    HW134902   6.966  11.037   6.897 -0.2653 -1.4006 -1.4771
10115SOL    HW234903   7.044  10.989   7.018 -0.7158 -0.3256 -0.7502
10116SOL     OW34904   6.832   1.509   5.744  0.6428  0.5414  0.0441
10116SOL    HW134905   6.869   1.598   5.742  0.6946  0.5149 -0.2072
10116SOL    HW234906   6.881   1.465   5.813  1.2115  0.4538 -0.3997
10117SOL     OW34907   6.507   1.028  12.076 -0.0469  0.1086 -0.3359
10117SOL    HW134908   6.425   1.010  12.123 -0.2640 -1.5247 -1.2861
10117SOL    HW234909   6.547   1.100  12.125 -1.2642 -0.1436  1.0956
10118SOL     OW34910   6.551   7.811   1.455 -0.3474  0.2097  0.3494
10118SOL    HW134911   6.583   7.882   1.511 -0.8375 -0.7790  1.9286
10118SOL    HW234912   6.571   7.841   1.366 -0.8834  2.5193  0.9190
10119SOL     OW34913   7.454   0.142  11.330 -0.1424 -0.5980 -0.1678
10119SOL    HW134914   7.421   0.071  11.384  0.4877 -0.7245  0.0615
10119SOL    HW234915   7.382   0.205  11.326 -0.3373 -0.7719  0.4908
10120SOL     OW34916  10.993   0.262  11.197  0.1524 -0.0577 -0.2979
10120SOL    HW134917  11.025   0.349  11.174  0.8219 -0.0007  0.7489
10120SOL    HW234918  10.982   0.266  11.292  2.2622 -1.7499  0.0882
10121SOL     OW34919   1.087  11.970  11.120 -0.0870 -0.3354  0.0407
10121SOL    HW134920   1.011  11.941  11.172  0.5176 -1.3125  0.4081
10121SOL    HW234921   1.148  12.005  11.185  0.4581 -1.0819 -0.0606
10122SOL     OW34922   1.507   9.462   6.916  0.2440 -0.2881  0.4166
10122SOL    HW134923   1.492   9.532   6.852  2.1825  0.7461  1.0094
10122SOL    HW234924   1.476   9.498   6.999  0.3090 -0.5266  0.5451
10123SOL     OW34925   2.880   4.023   8.059  0.1701 -0.0899  0.3157
10123SOL    HW134926   2.822   3.989   7.992 -0.1980  2.2169 -0.6160
10123SOL    HW234927   2.968   4.000   8.028  0.0447  1.3592 -1.2976
10124SOL     OW34928   3.060   9.648   8.337 -0.3611  0.5161  0.4132
10124SOL    HW134929   3.065   9.554   8.350 -0.1176  0.3675 -0.6345
10124SOL    HW234930   3.018   9.682   8.416  1.3210 -0.2467  1.7097
10125SOL     OW34931  11.964   2.664   3.407 -0.3754 -0.2747  0.2667
10125SOL    HW134932  11.916   2.609   3.469  0.1330 -0.3964  0.5523
10125SOL    HW234933  11.924   2.643   3.322 -0.9374 -0.2527  0.5226
10126SOL     OW34934   9.057   6.669  10.954  0.1281 -0.5357  0.3170
10126SOL    HW134935   9.105   6.752  10.957 -0.0509 -0.4381  0.5185
10126SOL    HW234936   9.066   6.634  11.043 -2.9345  1.0611  1.3945
10127SOL     OW34937  10.937  11.235  10.455  0.4502  0.2856 -0.4361
10127SOL    HW134938  10.975  11.315  10.418 -0.8490  0.3257 -1.7831
10127SOL    HW234939  10.960  11.167  10.391 -1.2937  0.2269 -1.0406
10128SOL     OW34940   1.439   5.859   7.244  0.2474  0.3974  0.1101
10128SOL    HW134941   1.495   5.898   7.312 -1.0087 -1.2723  2.2439
10128SOL    HW234942   1.359   5.911   7.246  0.4888  0.8128 -0.6719
10129SOL     OW34943   3.322   6.976   1.666 -0.1767  0.1236  0.1529
10129SOL    HW134944   3.231   6.972   1.636 -0.1750 -1.8002  0.2813
10129SOL    HW234945   3.342   6.887   1.694  1.7402  0.5187  0.1911
10130SOL     OW34946   5.253   3.988   9.684  0.2606  0.3246  0.2239
10130SOL    HW134947   5.267   3.957   9.773  0.6716  0.9348  0.3834
10130SOL    HW234948   5.164   4.021   9.683 -0.5532 -1.7334 -0.2257
10131SOL     OW34949   7.567   5.527  11.459 -0.4118  0.0789 -0.0780
10131SOL    HW134950   7.495   5.503  11.401 -0.7529  1.2737 -0.1775
10131SOL    HW234951   7.616   5.446  11.471 -1.7584 -0.7586 -0.0170
10132SOL     OW34952   6.624  10.039   2.573 -0.1418  0.2399 -0.3016
10132SOL    HW134953   6.691  10.090   2.618  2.1176 -1.2479 -1.7656
10132SOL    HW234954   6.579   9.991   2.643 -1.3969  3.0188  0.9548
10133SOL     OW34955   5.380   9.781  11.656 -0.1104 -0.0244  0.3773
10133SOL    HW134956   5.376   9.686  11.654 -1.6024  0.0390 -0.5628
10133SOL    HW234957   5.474   9.801  11.651  0.2763 -1.4277  1.4720
10134SOL     OW34958   8.614   1.103   3.891  0.3987  0.5584  0.7224
10134SOL    HW134959   8.643   1.061   3.810  1.5667  1.8901  0.4142
10134SOL    HW234960   8.577   1.187   3.863  0.9512  1.0973  1.5816
10135SOL     OW34961   5.752   4.151   2.401  0.1261 -0.0781 -0.2303
10135SOL    HW134962   5.835   4.137   2.446  0.0147 -0.3927 -0.1224
10135SOL    HW234963   5.708   4.066   2.405 -1.1650  0.6014  1.6786
10136SOL     OW34964   5.111   8.734   1.673  0.4253  0.0677  0.1054
10136SOL    HW134965   5.194   8.749   1.718  0.5304  0.6461 -0.2619
10136SOL    HW234966   5.120   8.784   1.591  0.8241 -2.1135 -1.2567
10137SOL     OW34967  11.621   7.978   5.482  0.5850 -0.2237  0.1672
10137SOL    HW134968  11.622   8.052   5.542 -0.7158 -0.1731  0.1588
10137SOL    HW234969  11.612   8.018   5.395 -0.4677 -0.3699  0.1879
10138SOL     OW34970   7.463  10.337   2.848  0.4731 -0.3874 -0.2481
10138SOL    HW134971   7.413  10.260   2.820 -0.4504  0.3704 -0.7304
10138SOL    HW234972   7.550  10.324   2.810  0.3049 -1.1500 -0.3923
10139SOL     OW34973   7.880  10.287   9.728  0.2729  0.1270 -0.2369
10139SOL    HW134974   7.963  10.244   9.751 -0.1260 -0.2362  0.5988
10139SOL    HW234975   7.900  10.339   9.651  1.6867  1.2914  0.8472
10140SOL     OW34976   3.917  10.460   7.675 -0.3522 -0.2947  0.0681
10140SOL    HW134977   3.976  10.391   7.703 -0.4061 -0.4563 -0.2133
10140SOL    HW234978   3.862  10.478   7.751 -1.3343 -1.6041 -0.2941
10141SOL     OW34979   9.531   3.587   0.012 -0.7336  0.0392 -0.2563
10141SOL    HW134980   9.536   3.642  -0.066  0.4991  0.6157  0.2018
10141SOL    HW234981   9.437   3.580   0.030 -0.9911  0.6737 -1.2410
10142SOL     OW34982   4.429   3.284   5.496 -0.8014 -0.2731  0.0159
10142SOL    HW134983   4.391   3.365   5.531 -1.2562 -0.7226  0.5931
10142SOL    HW234984   4.522   3.303   5.486 -0.3316 -0.5536  2.8845
10143SOL     OW34985  11.335   1.346   5.695 -0.5387 -0.2267  0.0939
10143SOL    HW134986  11.268   1.280   5.682 -0.6151  0.1925 -2.1874
10143SOL    HW234987  11.311   1.390   5.776 -0.4838 -2.9262  1.6666
10144SOL     OW34988   9.730  11.291   1.394  0.3304 -0.1587  0.2108
10144SOL    HW134989   9.730  11.203   1.432  0.1632 -0.6543 -0.8841
10144SOL    HW234990   9.822  11.307   1.371  0.2516 -0.3655 -0.2696
10145SOL     OW34991   2.148   7.025   3.506 -0.5519  0.0821 -0.3133
10145SOL    HW134992   2.085   7.009   3.435 -0.0195 -2.0795 -0.3590
10145SOL    HW234993   2.190   6.940   3.521  2.4081  1.4072 -0.3174
10146SOL     OW34994   8.935  12.014   2.149 -0.2220 -0.5276  0.0497
10146SOL    HW134995   8.929  12.103   2.115  0.8856 -0.3219  0.3663
10146SOL    HW234996   8.917  12.023   2.243 -1.5816 -0.8613 -0.1529
10147SOL     OW34997   0.570   1.334   5.080 -0.3308 -0.4536  0.1880
10147SOL    HW134998   0.551   1.394   5.152 -1.8932 -0.7355  0.0558
10147SOL    HW234999   0.508   1.262   5.093 -0.1085 -0.8795 -0.9927
10148SOL     OW35000   8.143  10.128   4.663 -1.2242 -0.0812  0.0628
10148SOL    HW135001   8.210  10.165   4.721 -2.0936  1.8591 -0.1104
10148SOL    HW235002   8.154  10.033   4.672  0.4673  0.1809  1.2778
10149SOL     OW35003   9.250   6.005   4.143  0.0097  0.3319 -0.0487
10149SOL    HW135004   9.210   6.082   4.183 -0.2023 -0.3324  1.0352
10149SOL    HW235005   9.186   5.975   4.078 -0.2777  0.5539  0.1328
10150SOL     OW35006   5.217   7.214   4.841  0.1108  0.2026 -0.3721
10150SOL    HW135007   5.302   7.209   4.885  0.6386  0.1140 -1.3685
10150SOL    HW235008   5.232   7.272   4.766 -0.3398 -0.8601 -1.3206
10151SOL     OW35009   6.123   8.843  10.907  0.2754  0.4273  0.7858
10151SOL    HW135010   6.060   8.771  10.900  0.5630  0.2102  0.4190
10151SOL    HW235011   6.075   8.912  10.953 -1.0253  1.1650 -1.5175
10152SOL     OW35012   1.825   7.383  10.640 -0.4389  0.3715 -0.0436
10152SOL    HW135013   1.809   7.477  10.632 -0.1898  0.3820 -0.4286
10152SOL    HW235014   1.889   7.363  10.572 -1.5335 -0.3442 -0.8911
10153SOL     OW35015   0.260   6.318   9.941 -0.1160  0.1854  1.0407
10153SOL    HW135016   0.219   6.395   9.902 -0.7545 -0.8928 -0.5080
10153SOL    HW235017   0.208   6.300  10.019 -0.2797  1.0054  1.1259
10154SOL     OW35018   3.673   2.387   9.959  0.6182  0.5932  0.0560
10154SOL    HW135019   3.607   2.355  10.020  0.2071  1.5101  0.1067
10154SOL    HW235020   3.623   2.417   9.883  1.1237 -0.5395 -0.7550
10155SOL     OW35021   5.091   2.205   6.624 -0.5017 -0.0399  0.1048
10155SOL    HW135022   5.132   2.197   6.710 -0.6574 -0.0963  0.1729
10155SOL    HW235023   5.105   2.121   6.582 -1.2161 -0.3204  0.4189
10156SOL     OW35024   3.989   4.542   2.870 -0.3408  0.2897 -0.5724
10156SOL    HW135025   3.981   4.635   2.847 -1.1481  0.6096  0.8524
10156SOL    HW235026   3.964   4.538   2.962  1.4405 -1.0886 -0.0876
10157SOL     OW35027   3.126   5.773   6.576 -0.0031  0.4327 -0.1344
10157SOL    HW135028   3.105   5.864   6.593 -0.1105  0.5350 -0.8043
10157SOL    HW235029   3.042   5.732   6.556  0.2235  0.5269 -1.3661
10158SOL     OW35030   0.011  11.943   9.782  0.0771 -0.0416  0.3242
10158SOL    HW135031  -0.035  11.983   9.855  2.0923  0.5712  1.3236
10158SOL    HW235032   0.053  11.866   9.820  0.4007 -0.2380 -0.4108
10159SOL     OW35033   5.464   4.833   9.053  0.4241  0.3477 -0.6885
10159SOL    HW135034   5.410   4.816   8.976 -0.5382  1.9123 -0.3963
10159SOL    HW235035   5.506   4.918   9.035  1.0879  0.1852  0.0201
10160SOL     OW35036   5.259  10.576   3.409  0.0593  0.2646  0.3424
10160SOL    HW135037   5.213  10.493   3.419  0.6095  0.1584  2.6464
10160SOL    HW235038   5.189  10.642   3.411 -0.2461 -0.0599  0.5055
10161SOL     OW35039   6.710   1.542   2.499  0.4618 -0.0668 -0.0193
10161SOL    HW135040   6.726   1.518   2.591 -1.6271 -0.6436  0.2619
10161SOL    HW235041   6.641   1.482   2.471 -0.4957  1.5422 -1.2836
10162SOL     OW35042   4.001   3.323   2.788  0.4999 -0.0878 -0.0052
10162SOL    HW135043   3.977   3.337   2.696  2.1899  0.6673 -0.3750
10162SOL    HW235044   3.918   3.304   2.832 -0.4689  0.4336 -1.5235
10163SOL     OW35045   5.118   1.932   2.919 -0.1833  0.0824  0.5195
10163SOL    HW135046   5.116   1.944   3.014 -0.8890  0.6504  0.4341
10163SOL    HW235047   5.163   2.010   2.886 -0.7897  0.3464  0.3128
10164SOL     OW35048   9.037   6.110   5.969  0.2391 -0.1146 -0.5817
10164SOL    HW135049   8.994   6.119   6.054  0.6445 -1.0495 -0.2525
10164SOL    HW235050   9.128   6.088   5.992  0.3321 -0.4349 -1.2549
10165SOL     OW35051   0.979   6.220   6.256  0.1690  0.2463  0.5991
10165SOL    HW135052   0.901   6.275   6.251 -0.6164 -0.9046 -0.4523
10165SOL    HW235053   1.005   6.206   6.165 -0.7515 -2.5390  0.6733
10166SOL     OW35054  10.409   7.222   0.467 -0.0203 -0.4764  0.0537
10166SOL    HW135055  10.483   7.161   0.471 -0.6216 -1.2019  0.5788
10166SOL    HW235056  10.428   7.288   0.534  0.9620  0.3188 -0.9744
10167SOL     OW35057   4.336  10.875   2.124  0.6005 -0.0174 -0.4424
10167SOL    HW135058   4.329  10.845   2.215  0.6681  0.1138 -0.3944
10167SOL    HW235059   4.373  10.800   2.077  3.6964  0.9250  0.2151
10168SOL     OW35060   0.362   7.323  11.981  0.6636  0.3681 -1.1609
10168SOL    HW135061   0.448   7.339  12.021  0.7553 -1.6341 -0.4433
10168SOL    HW235062   0.304   7.386  12.024  1.7562  1.8918 -1.7975
10169SOL     OW35063   8.309   6.431   0.568  0.0937  0.3017  0.4335
10169SOL    HW135064   8.390   6.379   0.564  0.5059  0.6770  2.6254
10169SOL    HW235065   8.243   6.370   0.601 -0.0693  0.4827  0.4423
10170SOL     OW35066   2.180   1.344  11.833  0.2194 -0.4842 -0.4482
10170SOL    HW135067   2.161   1.251  11.843  0.7911 -0.6345 -0.7277
10170SOL    HW235068   2.270   1.347  11.799 -0.2312  0.1330 -1.6090
10171SOL     OW35069   2.282   1.909   2.252  0.2185  0.0693 -0.3183
10171SOL    HW135070   2.335   1.986   2.271  1.4521 -0.6351 -0.7973
10171SOL    HW235071   2.308   1.844   2.317 -1.4833  0.3149  0.6758
10172SOL     OW35072   9.640   5.561   8.996  0.5131  0.3063  0.5313
10172SOL    HW135073   9.656   5.513   8.915  0.2230 -1.7563  1.6221
10172SOL    HW235074   9.722   5.605   9.016 -0.0976  2.9292 -2.1006
10173SOL     OW35075   0.533   3.757  11.834 -0.3801 -0.1046  0.2975
10173SOL    HW135076   0.546   3.806  11.915  0.1856 -1.3201  0.9764
10173SOL    HW235077   0.499   3.672  11.863 -2.4284  0.2233 -0.9141
10174SOL     OW35078   7.494   1.963   0.845 -0.5964  0.0319 -0.2533
10174SOL    HW135079   7.425   1.962   0.912 -0.6727 -0.1895 -0.3339
10174SOL    HW235080   7.466   2.030   0.783 -0.8333 -0.1823 -0.3811
10175SOL     OW35081   9.140   4.607   2.661  0.0853  0.3417  0.1315
10175SOL    HW135082   9.150   4.646   2.748 -0.8758  0.9682 -0.0273
10175SOL    HW235083   9.223   4.625   2.617 -0.1175  1.7336  0.2691
10176SOL     OW35084   5.061   5.621   4.819  0.0614  0.4306  0.3004
10176SOL    HW135085   5.045   5.640   4.911 -2.1610 -2.0870  0.5430
10176SOL    HW235086   5.014   5.691   4.772  1.7776  2.1236  0.9751
10177SOL     OW35087   1.665   8.083   2.490  0.5509  0.1138 -0.1352
10177SOL    HW135088   1.665   8.175   2.517  0.8489 -0.2314  1.1079
10177SOL    HW235089   1.729   8.079   2.418  0.3640  0.9128 -0.3554
10178SOL     OW35090   7.404   8.547   9.273 -0.4823 -0.0238  0.3599
10178SOL    HW135091   7.464   8.510   9.208 -0.4226  2.1957 -0.9253
10178SOL    HW235092   7.318   8.542   9.231 -0.7771 -0.5821  1.0240
10179SOL     OW35093   4.843   8.684   8.492  0.2793  0.2665  0.1159
10179SOL    HW135094   4.807   8.650   8.574  0.0901  0.1501 -0.0164
10179SOL    HW235095   4.774   8.741   8.458  0.9418  1.5434  0.8063
10180SOL     OW35096   5.063   5.493   8.073  0.0345 -0.1011  0.8159
10180SOL    HW135097   4.990   5.539   8.032  1.4007  1.8313  0.4058
10180SOL    HW235098   5.126   5.478   8.002 -0.0693 -2.0465  1.0908
10181SOL     OW35099   9.099   6.262   9.787  0.2451 -0.2188 -0.2348
10181SOL    HW135100   9.149   6.263   9.869  1.2058  1.2904 -0.7834
10181SOL    HW235101   9.008   6.250   9.814  0.3599  1.6923  1.2047
10182SOL     OW35102   3.262   4.333  11.481  0.1230  0.1767 -0.0541
10182SOL    HW135103   3.314   4.408  11.510  1.0387 -0.9755  1.4503
10182SOL    HW235104   3.325   4.277  11.434 -0.5628  0.3630 -1.2230
10183SOL     OW35105   6.622   9.277   5.494  0.4191 -0.3784 -0.0843
10183SOL    HW135106   6.695   9.274   5.431  0.0984  0.3105 -0.4954
10183SOL    HW235107   6.554   9.328   5.450  0.0382 -0.2144  0.6779
10184SOL     OW35108   1.430   9.544   3.179 -0.5067 -0.1036 -0.2678
10184SOL    HW135109   1.343   9.532   3.142 -0.1425  0.1743 -1.2267
10184SOL    HW235110   1.454   9.458   3.213  0.4426 -1.2622 -3.5090
10185SOL     OW35111   7.229   6.898  11.299  0.1433 -0.0391  0.2929
10185SOL    HW135112   7.209   6.977  11.349  0.1870  0.2928 -0.2038
10185SOL    HW235113   7.154   6.887  11.240  0.1394 -0.3690  0.3528
10186SOL     OW35114   3.923   2.206   6.540  0.3094  0.7582 -0.1824
10186SOL    HW135115   3.892   2.256   6.464 -3.5460 -0.5987  0.2646
10186SOL    HW235116   3.983   2.142   6.503 -0.3332  1.0785 -1.8833
10187SOL     OW35117  10.328  10.119   8.632  0.1870 -0.0375 -0.3333
10187SOL    HW135118  10.297  10.035   8.664  1.8254  0.2894  2.4514
10187SOL    HW235119  10.419  10.104   8.607 -0.4146  0.2467 -3.0142
10188SOL     OW35120   2.912  11.543   9.714  0.6760 -0.2508 -0.0530
10188SOL    HW135121   2.915  11.627   9.758 -0.7254  0.5340 -1.3771
10188SOL    HW235122   2.819  11.521   9.708  0.9821 -1.6708 -0.1585
10189SOL     OW35123   1.163   1.898   8.903 -0.0227 -0.2285  0.1695
10189SOL    HW135124   1.156   1.906   8.998 -0.4691  0.4488  0.0830
10189SOL    HW235125   1.102   1.963   8.869 -1.3077 -1.7479 -0.5692
10190SOL     OW35126   5.150   1.687   6.298 -0.2788  0.0322 -0.4394
10190SOL    HW135127   5.100   1.766   6.282 -0.8688 -0.2136  0.1653
10190SOL    HW235128   5.125   1.627   6.227  1.8599  1.1295 -2.2635
10191SOL     OW35129   1.669   0.386  10.343 -0.1501 -0.6810 -0.1552
10191SOL    HW135130   1.611   0.462  10.344 -2.1564 -2.0672 -1.8509
10191SOL    HW235131   1.667   0.353  10.433 -2.1814 -0.7923 -0.2130
10192SOL     OW35132  12.106   9.453   7.269 -0.7535 -0.1438  0.1730
10192SOL    HW135133  12.122   9.520   7.335  0.2928 -0.3258  0.1257
10192SOL    HW235134  12.011   9.450   7.260 -0.8182  1.7032 -0.2008
10193SOL     OW35135   1.840   0.555   1.202 -0.1543  0.4130  0.6637
10193SOL    HW135136   1.929   0.524   1.183 -0.0915 -0.0887  1.7253
10193SOL    HW235137   1.835   0.556   1.297 -1.7118 -0.8353  0.6341
10194SOL     OW35138  11.211   7.259   5.206 -0.1798  0.1360 -0.0901
10194SOL    HW135139  11.271   7.187   5.189  0.0559  0.0304  1.1050
10194SOL    HW235140  11.236   7.292   5.292 -0.9252  1.0091 -0.1854
10195SOL     OW35141   6.501   8.732   2.899 -0.1930  0.5885 -0.4725
10195SOL    HW135142   6.518   8.818   2.860 -0.5234  0.9294  0.1238
10195SOL    HW235143   6.575   8.678   2.872  1.3145  1.7355  1.1650
10196SOL     OW35144   3.305   6.723   1.831 -0.1766  0.4766 -0.4632
10196SOL    HW135145   3.231   6.674   1.865  0.3401 -0.1130 -0.1743
10196SOL    HW235146   3.312   6.799   1.889  0.9616 -0.7336  1.0796
10197SOL     OW35147   1.147   0.828   8.237 -0.2529  0.1819  0.0401
10197SOL    HW135148   1.158   0.752   8.180  1.3494  0.8287 -0.5948
10197SOL    HW235149   1.075   0.878   8.197 -1.2808 -0.9302  0.4364
10198SOL     OW35150   4.014  10.626   8.308 -0.3467 -0.1083  0.5997
10198SOL    HW135151   4.002  10.542   8.352  1.4018 -0.7861 -0.1516
10198SOL    HW235152   3.958  10.619   8.230  0.7951 -1.1475 -0.1661
10199SOL     OW35153  11.659  10.634   1.583 -0.6881 -0.9545  0.3998
10199SOL    HW135154  11.749  10.612   1.557  0.4707  1.0144  2.3172
10199SOL    HW235155  11.640  10.575   1.656 -1.1153 -1.6228 -0.2455
10200SOL     OW35156   0.844   3.498   1.069  0.1350  0.5139  0.2360
10200SOL    HW135157   0.882   3.486   1.156 -0.7096  1.1457  0.7183
10200SOL    HW235158   0.760   3.541   1.086  0.0681  0.8727 -0.9120
10201SOL     OW35159   4.553   0.731   2.593 -0.6166 -0.4164  0.1789
10201SOL    HW135160   4.644   0.755   2.610 -1.0248  0.3745  1.3382
10201SOL    HW235161   4.522   0.798   2.531  0.2744 -2.1300 -2.2885
10202SOL     OW35162   3.903   4.379   4.664 -0.2810  0.5697  0.0392
10202SOL    HW135163   3.881   4.466   4.700  2.9522  1.6452 -0.2661
10202SOL    HW235164   3.935   4.330   4.739  0.0922  0.4633 -0.1892
10203SOL     OW35165   8.447   6.821  10.581  0.6782 -0.7234  0.6244
10203SOL    HW135166   8.425   6.870  10.502 -0.9560  1.2759  2.2296
10203SOL    HW235167   8.540   6.841  10.596  0.7166 -0.2570 -0.1724
10204SOL     OW35168   5.612   9.538  11.890 -0.3662  0.0140 -0.5375
10204SOL    HW135169   5.638   9.586  11.811  0.0752  0.6749  0.0027
10204SOL    HW235170   5.681   9.472  11.902 -0.0673  0.3637 -0.3186
10205SOL     OW35171   7.871   7.449   6.797  1.1299  0.3272  0.1715
10205SOL    HW135172   7.937   7.449   6.866  0.7466 -1.0813  0.5707
10205SOL    HW235173   7.891   7.526   6.744  3.4641 -0.3807 -0.0727
10206SOL     OW35174   2.377   9.836   3.853 -0.4154  0.7049 -0.5988
10206SOL    HW135175   2.389   9.820   3.759  1.1732 -1.7831 -0.0752
10206SOL    HW235176   2.283   9.825   3.867 -0.6412  0.8736 -1.8392
10207SOL     OW35177   5.134   8.778   7.849  0.1270 -0.3688  0.5169
10207SOL    HW135178   5.066   8.714   7.827  0.2999 -0.4616  0.2512
10207SOL    HW235179   5.087   8.846   7.897  0.2014 -1.4408  2.1781
10208SOL     OW35180   8.388   1.120   8.802  0.4700  0.6296  0.4848
10208SOL    HW135181   8.389   1.029   8.774  2.1798  0.3145  1.4109
10208SOL    HW235182   8.347   1.119   8.888 -1.9051  1.1600 -0.5519
10209SOL     OW35183   7.964   0.640   1.284 -0.2939  0.2392 -0.1665
10209SOL    HW135184   7.892   0.624   1.222  0.3222  0.5017 -0.9560
10209SOL    HW235185   8.007   0.554   1.292  0.1187  0.3846 -0.7402
10210SOL     OW35186   6.480   6.087   8.855 -0.1414 -0.5200 -0.6339
10210SOL    HW135187   6.490   6.072   8.949  1.2094  0.8697 -0.5057
10210SOL    HW235188   6.453   6.003   8.819 -2.4154 -0.6790  1.2088
10211SOL     OW35189   2.547   7.517   9.543 -0.1115  0.5202 -0.3577
10211SOL    HW135190   2.547   7.520   9.447 -0.6683  2.1054 -0.3305
10211SOL    HW235191   2.614   7.580   9.568 -0.3470  0.5090  0.3008
10212SOL     OW35192   8.577   4.883   9.295 -0.0355 -0.3473  0.1263
10212SOL    HW135193   8.553   4.791   9.294 -0.8263 -0.1616  0.9080
10212SOL    HW235194   8.637   4.892   9.368 -0.8540 -0.0449  0.7824
10213SOL     OW35195  12.101   2.952   3.471  0.0463 -0.3673  0.0639
10213SOL    HW135196  12.073   3.006   3.545 -0.2301 -1.0369  0.4551
10213SOL    HW235197  12.046   2.874   3.477  2.1054 -1.8220  0.9611
10214SOL     OW35198   1.236   9.724   3.777  0.1845  0.0356 -0.0511
10214SOL    HW135199   1.249   9.658   3.710 -0.3138 -0.6415  0.5033
10214SOL    HW235200   1.143   9.743   3.775  0.1464 -0.0544  0.4893
10215SOL     OW35201   2.538   1.251   0.337 -0.5839 -0.0157  0.6046
10215SOL    HW135202   2.593   1.222   0.264  0.6303 -1.2054  1.9105
10215SOL    HW235203   2.449   1.228   0.311 -0.0745 -1.2805 -0.1247
10216SOL     OW35204  11.786   0.797   5.146  0.0110  0.1436  0.0314
10216SOL    HW135205  11.875   0.792   5.181 -0.0443  0.0709  0.1595
10216SOL    HW235206  11.797   0.839   5.061  0.0089  1.4847  0.6651
10217SOL     OW35207   5.693  11.687  11.850 -0.4488  0.0305  0.2417
10217SOL    HW135208   5.695  11.782  11.862 -1.8406  0.0099  0.7777
10217SOL    HW235209   5.752  11.654  11.917  1.2093  0.5713 -0.8945
10218SOL     OW35210   1.182   1.141   3.173  0.7950  0.2108 -0.1837
10218SOL    HW135211   1.229   1.224   3.170  1.7483 -0.3252 -0.2890
10218SOL    HW235212   1.187   1.107   3.084  2.4469 -1.0553  0.3413
10219SOL     OW35213   1.972   3.718   4.821  0.2579  0.4209  0.1503
10219SOL    HW135214   2.000   3.775   4.893  2.6986 -0.5736  0.0904
10219SOL    HW235215   2.006   3.632   4.844  0.3310 -0.1051 -1.7822
10220SOL     OW35216  10.153   8.072   8.061 -0.5741 -0.5543  0.4737
10220SOL    HW135217  10.165   8.126   7.983  0.4038 -0.7772  0.4516
10220SOL    HW235218  10.105   7.995   8.030  0.1381 -0.8207 -0.0009
10221SOL     OW35219   6.966   3.018   0.062 -0.2171 -0.3947  0.3011
10221SOL    HW135220   7.061   3.028   0.065 -0.0626 -1.8329  1.9896
10221SOL    HW235221   6.944   3.016  -0.031  1.3161  0.5255 -0.1151
10222SOL     OW35222   8.831  10.233   2.824  0.0439 -0.0237 -0.2636
10222SOL    HW135223   8.764  10.301   2.823 -0.6728 -0.6814  0.5931
10222SOL    HW235224   8.785  10.154   2.793  0.7506 -0.2155 -0.8557
10223SOL     OW35225   9.129  10.905   0.011 -0.1458  0.1714  0.0431
10223SOL    HW135226   9.066  10.834   0.002  1.9281 -1.7615 -0.0928
10223SOL    HW235227   9.162  10.898   0.101  0.4177  0.6505 -0.1138
10224SOL     OW35228   2.318   9.721   4.169 -0.5469  0.0845  0.3128
10224SOL    HW135229   2.392   9.758   4.121 -1.2454  0.1127 -0.8075
10224SOL    HW235230   2.241   9.753   4.121 -1.2559 -0.5206  1.0167
10225SOL     OW35231   7.211   2.759   9.770 -0.1035  0.0754 -0.3561
10225SOL    HW135232   7.177   2.761   9.681  1.3280  0.6896 -0.9012
10225SOL    HW235233   7.303   2.782   9.762  0.0987 -0.0476  1.2654
10226SOL     OW35234   5.429   5.246   6.053 -0.0565 -0.2456 -0.1297
10226SOL    HW135235   5.391   5.175   6.104 -0.7290  0.7836  0.8614
10226SOL    HW235236   5.429   5.214   5.963 -0.4125 -1.4588  0.2786
10227SOL     OW35237   5.556  11.515  11.085  0.0253 -0.2336  0.4422
10227SOL    HW135238   5.479  11.572  11.092 -0.5819 -1.0924  0.8352
10227SOL    HW235239   5.521  11.426  11.082  0.9514 -0.5947 -0.4410
10228SOL     OW35240   7.554   5.927   8.533 -0.0617 -0.1332 -0.2964
10228SOL    HW135241   7.517   5.847   8.496 -0.8927  0.4380 -0.7199
10228SOL    HW235242   7.573   5.982   8.457  0.2844  0.1773  0.0075
10229SOL     OW35243   4.134   8.452   1.394  0.1643 -0.4231  0.4110
10229SOL    HW135244   4.175   8.468   1.479  2.1832  1.6091 -0.7884
10229SOL    HW235245   4.088   8.534   1.374  0.2394 -0.6259 -0.6732
10230SOL     OW35246   8.212   8.980   2.944  0.5456  0.2399  0.2185
10230SOL    HW135247   8.248   9.060   2.984  0.3441  0.2943  0.2909
10230SOL    HW235248   8.251   8.978   2.857  0.1001  0.7319 -0.0012
10231SOL     OW35249   2.297   3.759   2.919 -0.5075 -0.3672  0.2831
10231SOL    HW135250   2.297   3.800   3.006  0.8325  0.8943 -0.2641
10231SOL    HW235251   2.361   3.688   2.925  0.7906  0.7317 -0.0739
10232SOL     OW35252  10.004   1.028   3.542  0.2555  0.0314 -0.4274
10232SOL    HW135253  10.050   0.964   3.597  0.2146 -0.8947 -1.4351
10232SOL    HW235254   9.963   0.975   3.473 -1.6426  0.9175 -0.0303
10233SOL     OW35255   3.151   9.923   1.382  0.8676 -0.2860 -0.9842
10233SOL    HW135256   3.111   9.995   1.335 -0.4420 -0.5597 -0.3399
10233SOL    HW235257   3.077   9.873   1.418  1.7741 -0.1289  1.2763
10234SOL     OW35258   5.028  12.008   7.658 -0.0380 -0.6557 -0.4902
10234SOL    HW135259   5.000  12.060   7.583 -1.3274 -2.0921 -1.0732
10234SOL    HW235260   5.086  12.066   7.707 -1.3185  1.2804 -1.1269
10235SOL     OW35261  10.489   3.886   1.020 -0.7638 -0.6133  0.1927
10235SOL    HW135262  10.469   3.980   1.013  0.0652 -0.5610 -2.3416
10235SOL    HW235263  10.404   3.844   1.031 -1.2456  0.3429  0.2684
10236SOL     OW35264   2.261   0.296   5.466 -0.2150 -0.1923 -0.2416
10236SOL    HW135265   2.201   0.293   5.541  0.6302  1.1305  0.5425
10236SOL    HW235266   2.212   0.255   5.395 -1.7268  0.0789  0.5800
10237SOL     OW35267   2.643   3.148  10.093  0.2068 -0.0999  0.3532
10237SOL    HW135268   2.574   3.205  10.126  1.1318  0.4467  1.4276
10237SOL    HW235269   2.693   3.123  10.171  0.2903 -1.7781 -0.1875
10238SOL     OW35270   5.421   7.399   1.710  0.2356  0.3598  0.8023
10238SOL    HW135271   5.371   7.322   1.682  1.3283 -0.0844  0.0105
10238SOL    HW235272   5.365   7.473   1.687  0.2954 -0.0818 -0.9160
10239SOL     OW35273   7.418   9.392  10.782 -0.1798 -0.3902  0.2450
10239SOL    HW135274   7.446   9.357  10.697  0.3123  1.0432 -0.2160
10239SOL    HW235275   7.475   9.349  10.845  1.5767  0.7525 -0.4649
10240SOL     OW35276   4.385   0.588   9.798  0.3582 -0.5780 -0.0663
10240SOL    HW135277   4.370   0.527   9.726  0.0036  0.7139 -1.1295
10240SOL    HW235278   4.305   0.584   9.850  0.3006 -0.9501 -0.1811
10241SOL     OW35279   3.906   3.753   7.930 -0.2943 -0.3061  0.2723
10241SOL    HW135280   3.837   3.695   7.961 -1.2070  0.9734  0.7013
10241SOL    HW235281   3.926   3.809   8.005  2.4849 -1.7338  0.7655
10242SOL     OW35282   9.349   7.997  10.992  0.3678 -0.1225  0.3078
10242SOL    HW135283   9.422   7.940  10.970  0.5540  0.3473 -0.3134
10242SOL    HW235284   9.310   7.957  11.070 -0.1961 -1.7144 -0.7701
10243SOL     OW35285   1.870   3.658   4.566 -0.9915  0.6880  0.0611
10243SOL    HW135286   1.807   3.594   4.601 -0.3818  1.4284  2.8041
10243SOL    HW235287   1.904   3.702   4.644  1.0429  2.0894 -1.5210
10244SOL     OW35288  11.236  10.310   8.524 -0.2585 -0.5624 -0.0915
10244SOL    HW135289  11.306  10.358   8.567  0.9770 -2.1372 -0.2657
10244SOL    HW235290  11.156  10.354   8.553  0.7403  0.8529  0.6564
10245SOL     OW35291   0.652   3.720   5.509  0.3983  0.0328  0.5460
10245SOL    HW135292   0.590   3.729   5.437  0.3276 -0.8434  0.4962
10245SOL    HW235293   0.721   3.785   5.490  0.7236 -0.6424 -0.6539
10246SOL     OW35294   5.775  10.356   3.008  0.1113 -0.2993 -0.1642
10246SOL    HW135295   5.688  10.366   3.046  0.8937  0.0084  1.6720
10246SOL    HW235296   5.775  10.414   2.932 -1.0751  0.1585  0.1577
10247SOL     OW35297   7.067   3.330   8.023 -0.3643  1.1458  0.0581
10247SOL    HW135298   7.103   3.304   8.108 -0.5091 -1.1176 -0.5014
10247SOL    HW235299   7.136   3.307   7.960 -1.5894 -0.5990 -0.7438
10248SOL     OW35300  10.458   1.524   9.173  0.3857  0.7721  0.1452
10248SOL    HW135301  10.550   1.498   9.172 -0.0172 -0.7856  0.8150
10248SOL    HW235302  10.431   1.514   9.265 -0.9274 -0.6898 -0.3505
10249SOL     OW35303   9.133   1.675   0.471 -0.2667  0.3589  0.4649
10249SOL    HW135304   9.117   1.643   0.559  0.8487  0.1835  0.6234
10249SOL    HW235305   9.069   1.630   0.416  0.1486 -0.8448  0.9431
10250SOL     OW35306   8.108  11.436   9.208  0.1919 -0.5403 -0.4706
10250SOL    HW135307   8.096  11.354   9.255  0.7523 -0.4384 -0.1392
10250SOL    HW235308   8.029  11.445   9.155 -0.9781 -0.1443  1.2261
10251SOL     OW35309   3.484   3.017  11.552  0.1679 -0.6073  0.2729
10251SOL    HW135310   3.461   3.109  11.565 -1.2059 -1.0858  1.4899
10251SOL    HW235311   3.408   2.969  11.583  1.5048 -2.2146  1.1941
10252SOL     OW35312   1.938   2.423   5.031  0.5782 -0.1887 -0.3991
10252SOL    HW135313   1.925   2.500   4.975  0.1207  1.1577  1.4410
10252SOL    HW235314   1.975   2.357   4.973 -1.3358  0.5816 -2.6324
10253SOL     OW35315   0.020   2.160   4.140 -0.3978 -0.3231 -0.1460
10253SOL    HW135316   0.069   2.166   4.222 -0.2517 -1.5552 -0.1304
10253SOL    HW235317  -0.066   2.199   4.160 -0.0761  0.1422  0.3442
10254SOL     OW35318  10.483   5.488   4.509  0.4740 -0.2232  0.6533
10254SOL    HW135319  10.466   5.579   4.533  0.3834  0.1758 -0.8356
10254SOL    HW235320  10.571   5.489   4.471 -0.6842 -0.0865 -2.3424
10255SOL     OW35321  11.673  10.770   7.992 -0.6798  0.7017  0.1423
10255SOL    HW135322  11.649  10.856   7.957 -1.1862  1.9384  3.1814
10255SOL    HW235323  11.766  10.777   8.012 -0.8525  0.7804  0.9464
10256SOL     OW35324  10.125   4.999   6.415 -0.9560 -0.1854 -0.1468
10256SOL    HW135325  10.202   4.977   6.363 -0.5199  1.7220 -0.3750
10256SOL    HW235326  10.151   4.981   6.506 -1.5858 -3.1453 -0.4632
10257SOL     OW35327   0.840   3.980   7.440  0.0089  0.2203 -0.4166
10257SOL    HW135328   0.766   3.926   7.412  1.4184 -0.8456 -2.3872
10257SOL    HW235329   0.817   4.069   7.411 -0.5505 -0.0822 -0.9288
10258SOL     OW35330   9.007  11.464   8.310 -0.2480  0.7619 -0.3722
10258SOL    HW135331   9.040  11.510   8.234 -0.2904  0.0753 -0.8142
10258SOL    HW235332   8.961  11.531   8.361 -1.2999  0.9809 -1.5628
10259SOL     OW35333  11.710   4.209   6.973 -0.0370  0.5134  0.3214
10259SOL    HW135334  11.761   4.156   7.035 -1.2421 -0.4222  0.5455
10259SOL    HW235335  11.776   4.248   6.916  0.9985  0.1151  1.1978
10260SOL     OW35336   6.093   6.069   8.241  0.2895  0.4814  0.2889
10260SOL    HW135337   6.101   6.026   8.156  0.4580  0.4007  0.3443
10260SOL    HW235338   6.000   6.059   8.264 -0.0768  1.7855 -0.5448
10261SOL     OW35339   2.655   7.449   8.022 -0.0560  0.1476  0.0964
10261SOL    HW135340   2.750   7.442   8.024  0.0035  0.8667  2.1284
10261SOL    HW235341   2.624   7.358   8.021  0.5931 -0.1130 -2.1576
10262SOL     OW35342  11.121   0.472  11.908 -0.0087  0.6374 -0.3111
10262SOL    HW135343  11.171   0.496  11.986 -0.6502 -0.4317  0.4702
10262SOL    HW235344  11.110   0.554  11.860 -0.9990  1.6698  1.5617
10263SOL     OW35345   5.550   7.951   1.993 -0.6734 -0.1226 -0.0190
10263SOL    HW135346   5.575   7.969   1.902 -0.9576  0.9184  0.0988
10263SOL    HW235347   5.488   7.878   1.987 -1.3088  0.4703 -0.7293
10264SOL     OW35348   3.443   1.288  10.550 -0.3276 -0.0816 -0.2792
10264SOL    HW135349   3.529   1.267  10.512 -0.7522 -0.5462 -0.9951
10264SOL    HW235350   3.413   1.206  10.588  0.0455  0.3545  1.0074
10265SOL     OW35351   9.345  10.823   3.322  0.6405 -0.0175 -0.1974
10265SOL    HW135352   9.407  10.875   3.271  1.1501 -0.6200 -0.1981
10265SOL    HW235353   9.364  10.732   3.299  1.0588 -0.3243  1.2569
10266SOL     OW35354   7.586   4.343   6.929 -0.0371 -0.1176  0.0440
10266SOL    HW135355   7.510   4.330   6.986 -0.4425 -2.2142 -0.8782
10266SOL    HW235356   7.582   4.436   6.906 -2.1628 -0.0945  0.2784
10267SOL     OW35357   4.940   5.609   3.366  0.5192  0.2799  0.1520
10267SOL    HW135358   4.866   5.660   3.398  0.3719  0.3370 -0.2635
10267SOL    HW235359   4.945   5.534   3.424  0.4310  0.5202  0.4720
10268SOL     OW35360   2.109  10.948   1.205 -0.2827 -0.6261 -0.1998
10268SOL    HW135361   2.102  10.926   1.113  1.4048 -1.3424 -0.1977
10268SOL    HW235362   2.203  10.942   1.224 -0.5126  0.2250  1.3824
10269SOL     OW35363   2.350   4.018   8.343  0.4642  0.3173  0.0185
10269SOL    HW135364   2.446   4.023   8.345  0.6123  0.9425 -3.2529
10269SOL    HW235365   2.324   4.097   8.296 -1.6965  0.1827  0.9065
10270SOL     OW35366   0.721   6.925   0.721 -0.3260 -0.0527  0.5889
10270SOL    HW135367   0.700   6.842   0.763 -0.6070  0.2897  1.1209
10270SOL    HW235368   0.817   6.927   0.721 -0.2960 -0.6485  0.0203
10271SOL     OW35369   2.525   6.286   9.454 -0.1898  0.2654 -0.2079
10271SOL    HW135370   2.566   6.251   9.375  0.3678 -0.8298  0.5356
10271SOL    HW235371   2.431   6.280   9.438 -0.1650 -2.6287  0.2667
10272SOL     OW35372  11.409   0.025   9.924  0.2714 -0.1269  0.3853
10272SOL    HW135373  11.398   0.038  10.018 -0.1113  0.1854  0.3014
10272SOL    HW235374  11.426  -0.068   9.914  2.5914  0.1684  0.9601
10273SOL     OW35375   5.848   1.278   7.456 -0.0243 -0.4029 -0.3895
10273SOL    HW135376   5.850   1.183   7.468 -1.6325 -0.2803  1.1792
10273SOL    HW235377   5.933   1.299   7.416  0.1874 -2.5250 -1.1766
10274SOL     OW35378   7.180   2.336   1.761  0.5789  0.5104  0.1906
10274SOL    HW135379   7.132   2.409   1.798  0.2611  0.1993  0.3983
10274SOL    HW235380   7.169   2.265   1.825 -0.1119 -0.0887 -0.5696
10275SOL     OW35381   0.250   8.628  12.038  0.0106  0.2685  0.4262
10275SOL    HW135382   0.169   8.674  12.061 -1.5121 -1.6362 -0.8008
10275SOL    HW235383   0.296   8.617  12.121 -0.8702  1.6003  1.1153
10276SOL     OW35384   5.983   3.500  10.596  0.0110  0.0293  0.3953
10276SOL    HW135385   6.011   3.592  10.593 -0.4983  0.2086  0.9202
10276SOL    HW235386   5.990   3.470  10.506  0.9678  0.3434  0.3482
10277SOL     OW35387   3.406   0.259   6.595 -0.0523 -0.4182  0.6899
10277SOL    HW135388   3.432   0.302   6.513 -1.2920 -0.5912  0.1797
10277SOL    HW235389   3.435   0.169   6.585 -1.4218 -0.7976 -0.1929
10278SOL     OW35390  10.514   6.163  10.903  0.0659 -0.1086 -0.0314
10278SOL    HW135391  10.431   6.117  10.919 -0.6442  1.6883  1.9597
10278SOL    HW235392  10.505   6.200  10.815 -0.5721 -1.2302 -0.4604
10279SOL     OW35393   8.354   8.025   4.372 -0.1281  0.5303 -0.7875
10279SOL    HW135394   8.447   8.001   4.362 -0.3945 -1.2294  0.4875
10279SOL    HW235395   8.335   8.079   4.296  1.0060 -2.0921 -3.0891
10280SOL     OW35396   8.444   4.612   3.081  0.0191  0.1301  0.0478
10280SOL    HW135397   8.509   4.543   3.066  0.5802  0.4588  0.9319
10280SOL    HW235398   8.398   4.620   2.997  1.0451 -0.1843 -0.5547
10281SOL     OW35399   8.551  10.498   5.697 -0.3235  0.0297 -0.4180
10281SOL    HW135400   8.632  10.547   5.691  0.1890 -0.7727 -0.1973
10281SOL    HW235401   8.499  10.528   5.623  0.1853  0.5198 -0.5843
10282SOL     OW35402   5.542   9.093   5.397  0.3600 -0.5151 -0.2428
10282SOL    HW135403   5.499   9.036   5.333  0.5459  0.4838 -1.2820
10282SOL    HW235404   5.510   9.181   5.377 -1.0609 -0.3737  2.2686
10283SOL     OW35405   6.289  11.285   0.001 -0.0837 -0.7980  0.8885
10283SOL    HW135406   6.315  11.294  -0.091 -0.1114  0.1328  0.9586
10283SOL    HW235407   6.314  11.196   0.024  1.9906 -0.3602  0.6047
10284SOL     OW35408  11.711   7.228  11.413 -0.4076 -0.0217 -0.2719
10284SOL    HW135409  11.701   7.175  11.334 -2.0483 -1.0130  0.5627
10284SOL    HW235410  11.792   7.196  11.454  0.0812  0.0317 -1.1649
10285SOL     OW35411   5.175   4.531   1.538 -0.0149  0.4971 -0.6143
10285SOL    HW135412   5.213   4.618   1.546 -0.4371  0.8561 -2.1248
10285SOL    HW235413   5.190   4.507   1.447 -2.3981  0.2087 -0.9905
10286SOL     OW35414  10.905   8.796  11.531 -0.1976 -0.5738  0.8754
10286SOL    HW135415  10.811   8.783  11.539 -0.7364  0.4370 -2.3367
10286SOL    HW235416  10.943   8.724  11.582 -2.8078 -4.0333 -1.5051
10287SOL     OW35417   0.722   1.373   5.977  0.2670  0.0324  0.6633
10287SOL    HW135418   0.694   1.360   6.068  0.1809  0.9052  0.7751
10287SOL    HW235419   0.729   1.468   5.968 -3.5475  0.3004 -1.3529
10288SOL     OW35420   4.706   3.652   6.175 -0.1317  0.8846 -0.5362
10288SOL    HW135421   4.704   3.614   6.087 -1.7275 -1.8418  0.5511
10288SOL    HW235422   4.615   3.674   6.194  0.2257  1.6263  0.3593
10289SOL     OW35423   5.061   2.904   1.561 -0.6197  0.2776  0.0104
10289SOL    HW135424   5.154   2.896   1.544 -0.4666  0.8634  0.5287
10289SOL    HW235425   5.029   2.813   1.564  0.0021  0.0604  0.1936
10290SOL     OW35426   3.529   9.606  11.964  0.2267 -0.5802  0.1783
10290SOL    HW135427   3.531   9.530  11.906  0.7269 -0.9430  0.6536
10290SOL    HW235428   3.620   9.633  11.970  0.2207 -0.7211  1.0053
10291SOL     OW35429   0.628   7.589   3.292 -0.6625  0.6514 -0.1810
10291SOL    HW135430   0.576   7.641   3.354 -0.0268  0.3690  0.5984
10291SOL    HW235431   0.611   7.498   3.315  0.5568  0.5541  0.4278
10292SOL     OW35432  11.394   2.905   0.120  0.2193 -0.0529 -0.6023
10292SOL    HW135433  11.464   2.854   0.160  0.3826  0.4805 -0.1915
10292SOL    HW235434  11.393   2.876   0.029  0.0052 -1.1092 -0.2803
10293SOL     OW35435   5.284   9.957   5.653  0.2427  0.8599 -0.3085
10293SOL    HW135436   5.210   9.899   5.637 -0.0318  0.2645  2.5623
10293SOL    HW235437   5.247  10.045   5.653 -0.5706  0.5594  1.1937
10294SOL     OW35438   5.407   2.428   5.938 -0.4208 -0.1331 -0.0774
10294SOL    HW135439   5.347   2.398   5.869 -0.8116  1.1417 -0.3105
10294SOL    HW235440   5.364   2.402   6.019  0.0868 -1.7291 -0.2746
10295SOL     OW35441   9.791   3.048   1.065 -0.0849  0.5117  0.2886
10295SOL    HW135442   9.754   3.113   1.005 -1.6655  0.7771  1.4994
10295SOL    HW235443   9.798   3.094   1.149  1.8234  0.0559  0.4316
10296SOL     OW35444  10.399   9.585   8.593  0.1023 -0.3309  0.1602
10296SOL    HW135445  10.394   9.491   8.613 -3.0198 -0.3985 -0.4606
10296SOL    HW235446  10.421   9.626   8.677  4.0308 -1.6418 -0.0263
10297SOL     OW35447   0.463   9.899   8.688 -0.1469  0.1807  0.2190
10297SOL    HW135448   0.427   9.881   8.601  1.9029  0.1098 -0.6815
10297SOL    HW235449   0.463   9.814   8.731  0.1146 -0.0737 -0.2632
10298SOL     OW35450   9.246   7.749   9.783  0.8822 -0.3470  0.3132
10298SOL    HW135451   9.311   7.801   9.736 -0.7894  0.5675 -1.1225
10298SOL    HW235452   9.173   7.809   9.798 -0.1718 -1.6641  0.7219
10299SOL     OW35453   5.256   2.018   0.829  0.7216  0.4701 -0.4391
10299SOL    HW135454   5.283   2.105   0.797  1.1885  1.2314  1.8584
10299SOL    HW235455   5.337   1.977   0.858  0.2756 -0.0347  0.1024
10300SOL     OW35456  10.252   0.224  11.023 -0.2030 -0.0202 -0.2048
10300SOL    HW135457  10.289   0.203  11.109 -0.5032 -1.5454 -0.4220
10300SOL    HW235458  10.222   0.315  11.032  0.0419 -0.0522  1.2043
10301SOL     OW35459  10.423   6.238   0.038 -0.4755  0.1408 -0.6439
10301SOL    HW135460  10.422   6.324  -0.003 -0.1156 -0.2759 -1.5397
10301SOL    HW235461  10.515   6.212   0.038 -0.6111 -0.3533 -0.6019
10302SOL     OW35462   1.708   7.205   3.302 -0.1211  0.3825 -0.1488
10302SOL    HW135463   1.733   7.272   3.239  0.0144  1.3481  0.9078
10302SOL    HW235464   1.612   7.209   3.304 -0.1163  0.4883 -0.1397
10303SOL     OW35465   4.587   8.876   5.463 -0.4513  0.1329  0.3543
10303SOL    HW135466   4.620   8.790   5.490 -1.9113  0.1003  2.2548
10303SOL    HW235467   4.603   8.880   5.369  0.7543 -1.7067  0.4386
10304SOL     OW35468   7.137   1.888  10.462  0.3735  0.6400 -0.0637
10304SOL    HW135469   7.140   1.794  10.481  2.4681  0.5280 -0.6419
10304SOL    HW235470   7.095   1.894  10.377 -1.8220  0.4788  0.9287
10305SOL     OW35471   6.985   4.065   0.113  0.0317  0.1160  0.1088
10305SOL    HW135472   6.990   4.121   0.191  2.3306 -0.5451  0.5157
10305SOL    HW235473   6.913   4.102   0.062 -1.2649  0.8363  2.3167
10306SOL     OW35474   5.463   7.808   9.764 -0.2989 -0.4385  0.2079
10306SOL    HW135475   5.399   7.880   9.759 -0.5675 -0.6600  0.3961
10306SOL    HW235476   5.416   7.732   9.729  0.1120 -0.4426 -0.3449
10307SOL     OW35477   7.788   2.142   7.371  0.1067  0.4690  0.1598
10307SOL    HW135478   7.768   2.128   7.278  0.1255 -2.8062  0.5219
10307SOL    HW235479   7.852   2.074   7.392 -1.4623 -0.2761  3.0440
10308SOL     OW35480   6.913   7.176   1.495  0.3112 -0.4728 -0.4819
10308SOL    HW135481   6.840   7.206   1.441 -0.9352 -2.2647  0.1152
10308SOL    HW235482   6.946   7.256   1.537 -0.5338  0.5316 -1.6701
10309SOL     OW35483  10.019  10.161   4.619 -0.3663 -0.2461  0.0901
10309SOL    HW135484  10.015  10.166   4.524  2.0560  0.6546 -0.0399
10309SOL    HW235485  10.040  10.250   4.647  1.5269 -0.9660  1.2048
10310SOL     OW35486   0.653   7.293   2.701 -0.5530  0.0317  0.1826
10310SOL    HW135487   0.588   7.228   2.675 -0.3921 -0.2677  0.5151
10310SOL    HW235488   0.643   7.364   2.638 -0.1463 -0.6877 -0.7122
10311SOL     OW35489   3.867   4.758   4.206 -0.4914 -0.0334  0.3067
10311SOL    HW135490   3.849   4.851   4.191 -0.4655 -0.1433 -0.4306
10311SOL    HW235491   3.946   4.740   4.155 -0.5302 -0.4780  0.3986
10312SOL     OW35492   5.133   7.545   0.173 -0.0129 -0.3409 -0.1374
10312SOL    HW135493   5.150   7.634   0.142  2.4022 -0.3287  1.0613
10312SOL    HW235494   5.202   7.492   0.134  1.2939 -0.8557  2.6355
10313SOL     OW35495   7.132   7.246   0.429  0.1367  0.5764 -0.2403
10313SOL    HW135496   7.061   7.193   0.463 -0.3340  1.0817 -0.4151
10313SOL    HW235497   7.186   7.185   0.378 -0.4650  0.2911 -0.5457
10314SOL     OW35498   1.942   9.835   7.211 -0.8470  0.1487 -0.0437
10314SOL    HW135499   1.873   9.896   7.235 -0.2830  0.3271  1.1965
10314SOL    HW235500   2.012   9.889   7.175 -0.8983  0.0880 -0.2360
10315SOL     OW35501  10.063   6.522   1.090 -0.3786  0.1513  0.2229
10315SOL    HW135502  10.034   6.580   1.161 -3.1139  1.6967 -1.9307
10315SOL    HW235503  10.013   6.441   1.103 -0.0689  0.0282  0.6514
10316SOL     OW35504   6.375   4.444   4.400  0.3848  0.0724  0.5477
10316SOL    HW135505   6.343   4.366   4.446 -0.6693  0.7664  1.0266
10316SOL    HW235506   6.300   4.473   4.348  0.8899  0.5547  0.0850
10317SOL     OW35507   0.848   5.758   6.783 -0.3207 -0.4717 -0.4143
10317SOL    HW135508   0.853   5.743   6.877  0.8227  0.0094 -0.3770
10317SOL    HW235509   0.785   5.693   6.751 -1.1964 -0.2254  0.7569
10318SOL     OW35510   7.463   7.898   1.954  0.1149  0.2540  0.1644
10318SOL    HW135511   7.501   7.886   2.041  1.1098 -0.1551 -0.3070
10318SOL    HW235512   7.492   7.820   1.906  1.6616  1.6284 -1.2495
10319SOL     OW35513   1.151   6.860   4.069 -0.1201 -0.0832 -0.6273
10319SOL    HW135514   1.081   6.907   4.115  1.2170  1.0818  0.3218
10319SOL    HW235515   1.146   6.770   4.101 -0.1584  0.3752  0.7102
10320SOL     OW35516   7.781   6.889   2.736 -1.0099  0.0568  0.0835
10320SOL    HW135517   7.689   6.894   2.761 -0.7792 -0.3000  1.0796
10320SOL    HW235518   7.826   6.944   2.799 -0.5226  0.1024 -0.2973
10321SOL     OW35519   4.392   5.957   5.109  0.3199  0.6767  0.4545
10321SOL    HW135520   4.480   5.992   5.120  0.5324 -0.4904  3.2221
10321SOL    HW235521   4.338   6.008   5.169 -1.4225  2.6742 -2.5479
10322SOL     OW35522   2.409   4.041   3.772  0.0742  0.4245 -0.3484
10322SOL    HW135523   2.431   3.960   3.726 -2.0390 -0.9961  0.9556
10322SOL    HW235524   2.330   4.072   3.728  0.3538  1.3174 -0.2428
10323SOL     OW35525   3.035  10.366   1.468  0.4630 -0.1562 -0.1928
10323SOL    HW135526   3.115  10.396   1.511 -0.0062  0.5415  0.1919
10323SOL    HW235527   3.049  10.387   1.375  0.3517  0.7988 -0.0032
10324SOL     OW35528   6.011   1.422  10.836  0.5920  1.0673  0.2764
10324SOL    HW135529   6.054   1.346  10.796  0.3912  1.4113 -0.6067
10324SOL    HW235530   5.933   1.386  10.879  0.6243  0.7482  0.0681
10325SOL     OW35531   7.459   0.448   6.502  0.0508  0.0118  0.1638
10325SOL    HW135532   7.385   0.389   6.518 -0.4841  0.4463 -0.6143
10325SOL    HW235533   7.458   0.461   6.407 -0.3999  1.9622  0.3930
10326SOL     OW35534   2.924   0.288  10.687 -0.4583 -0.3157 -0.4757
10326SOL    HW135535   2.958   0.221  10.628 -1.1720 -0.5972 -0.5813
10326SOL    HW235536   2.949   0.371  10.646  0.0183 -0.5145 -0.5885
10327SOL     OW35537   5.625   8.775   2.679  0.4818 -0.0190  0.3974
10327SOL    HW135538   5.707   8.740   2.713  2.1907  2.1612 -1.1534
10327SOL    HW235539   5.575   8.799   2.757  2.2509  0.5577  1.4099
10328SOL     OW35540   5.237   3.574  10.331  0.4499  0.5372  0.0932
10328SOL    HW135541   5.146   3.555  10.353  0.0898  2.3452  0.2944
10328SOL    HW235542   5.283   3.567  10.415  0.7979 -1.6423 -0.1995
10329SOL     OW35543   1.772  11.584  11.668  0.3000  0.4947 -0.6977
10329SOL    HW135544   1.819  11.658  11.632  0.3011 -0.5330 -3.0066
10329SOL    HW235545   1.839  11.518  11.684  0.1774  0.6128  0.3993
10330SOL     OW35546   7.988   6.343   8.448  0.1092  0.1552 -0.1304
10330SOL    HW135547   8.010   6.297   8.367  0.3050  1.1185 -0.6342
10330SOL    HW235548   7.983   6.273   8.514 -0.6243 -0.7063 -1.0699
10331SOL     OW35549  11.818   3.122   7.265 -0.5238 -0.0438  0.1012
10331SOL    HW135550  11.803   3.032   7.236  0.3259  0.1777 -1.1258
10331SOL    HW235551  11.816   3.173   7.184 -0.8727  1.0260  0.7723
10332SOL     OW35552   2.836   7.135   5.157  0.4889 -0.3832  0.4948
10332SOL    HW135553   2.742   7.150   5.171  0.0790 -0.9982 -1.3266
10332SOL    HW235554   2.849   7.152   5.064  1.9914 -1.3294  0.5083
10333SOL     OW35555   0.363   8.869   2.194 -0.4741  0.3929 -0.1122
10333SOL    HW135556   0.312   8.848   2.272 -0.3739  1.4832  0.2521
10333SOL    HW235557   0.452   8.884   2.227 -0.2285 -0.0568 -0.5585
10334SOL     OW35558   7.225   1.948   1.755 -0.4074  0.5817  0.5087
10334SOL    HW135559   7.181   1.875   1.798 -0.3031  0.2436  0.0426
10334SOL    HW235560   7.212   2.022   1.815  0.2662 -0.0179  1.4384
10335SOL     OW35561   4.408   5.001   4.553  0.1571  0.1606  0.3606
10335SOL    HW135562   4.353   5.058   4.607 -1.1027 -0.7230  0.0455
10335SOL    HW235563   4.356   4.984   4.475  1.5946  0.7023 -0.7612
10336SOL     OW35564   1.904   6.218   6.144 -0.3526 -0.0940 -0.3046
10336SOL    HW135565   1.974   6.181   6.091 -0.4087  0.0971 -0.5114
10336SOL    HW235566   1.835   6.240   6.081 -0.3842  0.2120 -0.1650
10337SOL     OW35567  10.132   7.215   2.109 -0.3730  0.1410 -0.3798
10337SOL    HW135568  10.215   7.211   2.156 -0.2516  1.2460 -0.4629
10337SOL    HW235569  10.121   7.129   2.070 -0.7846 -1.0458  2.1863
10338SOL     OW35570   5.869   7.074   5.222  0.0364 -0.1069 -0.3208
10338SOL    HW135571   5.896   7.152   5.173 -1.5419  0.2879 -0.6275
10338SOL    HW235572   5.861   7.006   5.155  1.4969 -0.5886 -0.0410
10339SOL     OW35573   9.896   5.698   8.908 -0.1517  0.1591 -0.4158
10339SOL    HW135574   9.954   5.637   8.954 -0.5877  1.3785  1.8900
10339SOL    HW235575   9.955   5.750   8.853  0.6766 -0.0029  0.2989
10340SOL     OW35576   9.115   8.870   5.985 -0.2434 -0.1133 -0.0759
10340SOL    HW135577   9.064   8.882   6.065 -0.2370 -0.4768 -0.0185
10340SOL    HW235578   9.094   8.947   5.931  1.1596  1.1231  1.0389
10341SOL     OW35579   9.356  11.445   4.639 -0.2448 -0.3506  0.4666
10341SOL    HW135580   9.327  11.527   4.680 -2.5950 -0.8437 -0.0412
10341SOL    HW235581   9.291  11.429   4.571  0.8989 -1.9964 -0.2820
10342SOL     OW35582   6.184   1.307   8.532  0.0455 -0.1098 -0.5328
10342SOL    HW135583   6.263   1.338   8.487  1.7209 -0.1104  2.2006
10342SOL    HW235584   6.192   1.211   8.532 -0.1991 -0.1318 -0.6307
10343SOL     OW35585   5.821   3.283   5.257  0.1569 -0.1226  0.4211
10343SOL    HW135586   5.794   3.348   5.322  0.1643 -0.1492  0.4506
10343SOL    HW235587   5.793   3.320   5.173  1.0069  0.3681  0.3437
10344SOL     OW35588   2.772   2.384   6.488 -0.5493 -0.7531 -0.1690
10344SOL    HW135589   2.782   2.479   6.480 -0.5133 -0.8652 -2.0275
10344SOL    HW235590   2.677   2.370   6.495 -0.4889 -0.5339  1.1487
10345SOL     OW35591   9.336   1.664   8.791  0.4659 -0.3602 -0.2048
10345SOL    HW135592   9.382   1.580   8.783 -2.4477 -2.0920 -0.6338
10345SOL    HW235593   9.303   1.665   8.881 -0.3003 -0.1693 -0.4741
10346SOL     OW35594   4.059  11.745   5.098 -0.1284  0.0099 -0.1722
10346SOL    HW135595   4.000  11.689   5.047 -0.5248 -0.7905  1.0987
10346SOL    HW235596   4.037  11.725   5.189 -0.9822  3.0081  0.3647
10347SOL     OW35597   5.647   5.365   3.609 -0.4262 -0.6535 -0.1121
10347SOL    HW135598   5.610   5.319   3.685  0.5137 -0.9684  0.1724
10347SOL    HW235599   5.657   5.296   3.543 -0.5293 -0.5328 -0.2528
10348SOL     OW35600  10.211   6.010   7.511  0.2818 -0.2740 -0.4559
10348SOL    HW135601  10.147   6.000   7.581  1.8775 -2.0998  0.8451
10348SOL    HW235602  10.234   6.103   7.513 -0.9137  0.0263  0.3059
10349SOL     OW35603   5.568   7.870  11.636 -0.4200 -0.1319  0.1135
10349SOL    HW135604   5.601   7.941  11.580 -0.1032 -0.7179 -0.4652
10349SOL    HW235605   5.472   7.875  11.626 -0.3970  0.1661  0.0182
10350SOL     OW35606  10.990   5.026   0.378 -0.2137  0.1588 -0.0477
10350SOL    HW135607  11.063   5.082   0.404 -0.8429  0.0706  2.0871
10350SOL    HW235608  10.992   4.953   0.439 -0.7628 -1.0092 -1.3783
10351SOL     OW35609  11.729   8.041   3.864 -0.2227 -0.2996  0.2164
10351SOL    HW135610  11.706   8.010   3.776  1.6221 -0.3159 -0.3166
10351SOL    HW235611  11.813   7.998   3.883 -1.8136 -2.4552  3.1554
10352SOL     OW35612  10.903   6.780   9.696 -0.4161 -0.2964  0.2225
10352SOL    HW135613  10.850   6.732   9.632  1.1885 -0.2071 -1.2547
10352SOL    HW235614  10.939   6.713   9.753 -0.2236 -0.6109 -0.2598
10353SOL     OW35615   0.995   3.796   9.325  0.1694  0.3383  0.2269
10353SOL    HW135616   0.926   3.836   9.378 -0.0589 -1.1296  1.1019
10353SOL    HW235617   1.004   3.707   9.361  0.4141 -0.5289 -1.8320
10354SOL     OW35618   3.250  11.273   4.826 -0.3526 -0.4954  0.1983
10354SOL    HW135619   3.318  11.289   4.892  0.4776 -0.4850 -0.6301
10354SOL    HW235620   3.184  11.340   4.843 -0.5413 -0.9664  1.4891
10355SOL     OW35621   4.889   9.196   4.696  0.0750  0.6226 -0.3436
10355SOL    HW135622   4.817   9.254   4.670 -0.6378  0.3522  0.9712
10355SOL    HW235623   4.848   9.111   4.711  0.8552  0.1774 -0.6708
10356SOL     OW35624   8.682   6.048   5.424  0.5978  0.5459  0.2910
10356SOL    HW135625   8.601   6.003   5.449  0.4093  0.3953 -0.5667
10356SOL    HW235626   8.671   6.137   5.457 -0.4618  0.8763 -0.8543
10357SOL     OW35627   1.800   8.732  12.038 -0.4260 -0.3385  0.9655
10357SOL    HW135628   1.708   8.726  12.013 -0.2601 -0.3744  0.3393
10357SOL    HW235629   1.817   8.826  12.044 -0.2043 -0.2935 -0.1101
10358SOL     OW35630   0.000   1.227   3.433 -0.4174 -0.0005 -0.0701
10358SOL    HW135631   0.003   1.255   3.525 -0.7809 -2.3076  0.7192
10358SOL    HW235632   0.091   1.202   3.414 -0.3661  0.3596 -0.2899
10359SOL     OW35633   0.026  10.134   2.907 -0.5105  0.1880  0.2614
10359SOL    HW135634  -0.045  10.106   2.965 -0.4047  1.1067  0.8619
10359SOL    HW235635   0.106  10.120   2.957 -0.5118  2.5440  1.0726
10360SOL     OW35636  11.391   4.823  10.348  0.1200  0.1866  0.0665
10360SOL    HW135637  11.436   4.820  10.433  1.9063 -1.0629 -0.8509
10360SOL    HW235638  11.309   4.868  10.366  0.7750  0.6206  2.3021
10361SOL     OW35639   0.094   5.301   5.575  0.0095 -0.7234 -0.0521
10361SOL    HW135640   0.079   5.207   5.586 -0.7891 -0.9102 -2.2181
10361SOL    HW235641   0.070   5.319   5.484  1.4161  1.3462 -0.0995
10362SOL     OW35642   1.207   3.580   5.914  0.1115 -0.0847 -0.1707
10362SOL    HW135643   1.128   3.554   5.868 -0.7497  0.7834  0.7706
10362SOL    HW235644   1.179   3.651   5.972  0.8435 -1.9774  2.7094
10363SOL     OW35645   2.686   3.834  10.860 -0.0344  0.1720  0.5106
10363SOL    HW135646   2.617   3.773  10.832  1.3756 -1.1196 -0.3537
10363SOL    HW235647   2.737   3.784  10.924  0.6702  0.7337  0.4004
10364SOL     OW35648   2.870  11.811   5.162  0.1416 -0.2057 -0.1174
10364SOL    HW135649   2.873  11.854   5.247 -0.7046 -0.0864 -0.1396
10364SOL    HW235650   2.819  11.731   5.177  0.0539 -0.2211 -0.4967
10365SOL     OW35651  11.121   3.233   3.281  0.7018  0.3301  0.3161
10365SOL    HW135652  11.125   3.281   3.198  0.7567 -2.3524 -1.3591
10365SOL    HW235653  11.032   3.250   3.314 -0.0120 -0.0720 -1.3082
10366SOL     OW35654  11.005   1.869   6.051 -0.4617 -0.0848  0.2504
10366SOL    HW135655  10.947   1.875   5.974 -1.2282  0.6445  0.8646
10366SOL    HW235656  11.088   1.838   6.015 -1.2025 -1.1063 -0.6682
10367SOL     OW35657   1.327   7.004   1.826 -0.2627  0.0211 -0.1170
10367SOL    HW135658   1.333   7.047   1.911  1.8544 -1.3365  0.4986
10367SOL    HW235659   1.257   6.940   1.836 -0.8548  0.7025  0.1782
10368SOL     OW35660   8.044   2.451  11.497  0.4660  0.0039  0.3540
10368SOL    HW135661   8.082   2.482  11.579 -0.8291  0.5435  0.7827
10368SOL    HW235662   7.973   2.392  11.525 -2.2116  2.7281 -0.1869
10369SOL     OW35663   7.187   6.888   7.819 -0.0391  0.2074 -0.0166
10369SOL    HW135664   7.258   6.941   7.784  1.9367 -0.3783  2.7930
10369SOL    HW235665   7.210   6.798   7.793 -0.1054  0.0854  0.3458
10370SOL     OW35666   3.335   0.470   9.045 -0.2783 -0.1122 -0.1614
10370SOL    HW135667   3.371   0.479   9.133 -0.2239  0.1775 -0.2110
10370SOL    HW235668   3.348   0.378   9.023  1.6956  0.2400 -0.7177
10371SOL     OW35669   1.786   1.749   1.204 -0.3653 -0.1851  0.4836
10371SOL    HW135670   1.819   1.666   1.238 -0.7252 -0.8071 -0.6250
10371SOL    HW235671   1.703   1.726   1.162 -0.3363  0.6889 -0.0775
10372SOL     OW35672   6.924  11.013   2.221  0.0293  0.1218 -0.3085
10372SOL    HW135673   6.970  10.978   2.144 -0.6402  1.0591 -1.1641
10372SOL    HW235674   6.831  11.010   2.197 -0.1244  1.2625  0.0964
10373SOL     OW35675   7.039  11.718   1.015  0.1758  0.4026 -0.3332
10373SOL    HW135676   7.006  11.735   1.103 -0.5020  1.6795 -0.8056
10373SOL    HW235677   6.961  11.709   0.961  0.4726 -2.9899 -0.4474
10374SOL     OW35678   0.786   1.300   9.981 -0.1191  0.1842 -0.2367
10374SOL    HW135679   0.852   1.293   9.913  0.3750 -0.4675  0.2938
10374SOL    HW235680   0.713   1.346   9.940 -0.0253 -0.6263 -1.3477
10375SOL     OW35681  10.281  10.897   6.944 -0.0049  0.1987  0.3251
10375SOL    HW135682  10.324  10.900   7.030 -0.3418 -0.7266  0.5432
10375SOL    HW235683  10.315  10.973   6.897 -1.1941  1.8030  1.9358
10376SOL     OW35684   2.894   1.091   7.075 -0.0242  0.3350  0.3014
10376SOL    HW135685   2.973   1.124   7.118  0.1677 -0.4841  0.5853
10376SOL    HW235686   2.925   1.053   6.993 -0.0839 -0.2379  0.5410
10377SOL     OW35687   0.471   0.066  10.136 -0.9015  0.3552  0.3509
10377SOL    HW135688   0.534  -0.004  10.150 -0.4065  0.9162  0.9797
10377SOL    HW235689   0.460   0.106  10.222 -0.9728  1.2190 -0.0503
10378SOL     OW35690   5.412   9.417   0.026 -0.2297 -0.0878 -0.1061
10378SOL    HW135691   5.486   9.371  -0.012  0.7823  0.3827  1.2240
10378SOL    HW235692   5.431   9.510   0.012 -0.9651  0.0227 -0.4507
10379SOL     OW35693  11.315   3.189   0.541 -0.6192  0.1738 -0.6563
10379SOL    HW135694  11.316   3.097   0.516 -0.1052  0.2101 -0.7825
10379SOL    HW235695  11.246   3.196   0.607 -1.9156  0.0465 -1.9493
10380SOL     OW35696   4.997   1.465   8.428  0.4614  0.1522  0.5167
10380SOL    HW135697   5.039   1.499   8.507  0.5450 -1.2232  1.0732
10380SOL    HW235698   5.066   1.417   8.383  0.2891  0.5332 -0.1652
10381SOL     OW35699   8.037   6.825  12.065 -0.1074  0.1386  0.0462
10381SOL    HW135700   8.080   6.848  12.147  0.7605 -0.9221 -0.0900
10381SOL    HW235701   8.101   6.847  11.997  0.2182 -1.3925 -0.1664
10382SOL     OW35702   4.989   5.062   8.701  0.4748 -0.1500  0.1872
10382SOL    HW135703   5.075   5.030   8.676  0.2653 -1.3606  0.9535
10382SOL    HW235704   4.928   5.001   8.659 -0.0621  1.1662 -1.0255
10383SOL     OW35705   8.321   9.168   4.245  0.8217 -0.1398 -0.4858
10383SOL    HW135706   8.273   9.113   4.307 -0.4578 -0.6203 -1.8609
10383SOL    HW235707   8.370   9.106   4.191  2.4823  0.3094  0.4237
10384SOL     OW35708   6.796   6.506   6.759 -0.7813  0.1603  0.2473
10384SOL    HW135709   6.886   6.523   6.786  0.3693 -1.4701 -2.1837
10384SOL    HW235710   6.757   6.592   6.748  1.4901  1.0704 -1.5704
10385SOL     OW35711   3.707   3.535   7.647  0.7654  0.1375 -0.1007
10385SOL    HW135712   3.789   3.525   7.696  0.5360  0.3547  0.3315
10385SOL    HW235713   3.665   3.612   7.686  0.1928 -0.1794 -0.0889
10386SOL     OW35714   0.814   3.014  11.328 -0.4136 -0.1586 -0.2047
10386SOL    HW135715   0.764   3.040  11.406  1.7256 -1.0803  1.6021
10386SOL    HW235716   0.882   3.081  11.320  1.6965 -1.9733  1.1167
10387SOL     OW35717   5.625   8.491   6.574 -0.6219 -0.0095  0.1951
10387SOL    HW135718   5.699   8.429   6.566 -0.5721  0.1884 -1.1365
10387SOL    HW235719   5.654   8.568   6.526 -1.1833  0.5818  0.8011
10388SOL     OW35720   4.502   9.496  11.721  0.4850 -0.2572 -0.2974
10388SOL    HW135721   4.451   9.565  11.679  2.1365  0.4970 -1.1383
10388SOL    HW235722   4.563   9.466  11.654  0.3181 -2.0355  0.2888
10389SOL     OW35723  11.023  10.564   1.985 -0.1535  0.0552 -0.1171
10389SOL    HW135724  11.053  10.653   2.003  0.2882 -0.3685  1.3952
10389SOL    HW235725  11.103  10.512   1.982 -0.2209 -0.0209 -3.0293
10390SOL     OW35726  10.402   2.326   4.538 -0.3047 -0.1635 -0.1485
10390SOL    HW135727  10.321   2.283   4.566  0.0748 -1.6089 -1.1566
10390SOL    HW235728  10.378   2.419   4.530 -1.7082 -0.4751  0.0859
10391SOL     OW35729  10.956   4.584  11.318 -0.2587  0.7174  0.0856
10391SOL    HW135730  10.861   4.592  11.312 -0.3493 -0.5204 -0.5786
10391SOL    HW235731  10.973   4.568  11.411 -0.8508 -0.4599  0.0117
10392SOL     OW35732  11.341  10.849   5.563 -0.2104  0.5351  0.3429
10392SOL    HW135733  11.325  10.943   5.552  1.1034  0.9406  1.6165
10392SOL    HW235734  11.401  10.827   5.493  0.5320  0.9586  0.8324
10393SOL     OW35735   7.742   0.477   8.202 -0.4687  0.2274  0.4537
10393SOL    HW135736   7.802   0.543   8.237 -1.2155  0.4408  1.3874
10393SOL    HW235737   7.799   0.408   8.169  0.3185  0.0234  2.1054
10394SOL     OW35738   6.397   6.172   3.104 -0.2091  0.2363 -0.9358
10394SOL    HW135739   6.339   6.155   3.178 -2.0384  1.8660 -1.9173
10394SOL    HW235740   6.470   6.221   3.142  0.5120 -1.6261  0.2665
10395SOL     OW35741   8.885   8.446   9.106 -0.6195 -0.3765 -0.0879
10395SOL    HW135742   8.840   8.362   9.109 -0.2681 -0.5584  0.2139
10395SOL    HW235743   8.842   8.494   9.035 -0.6151 -0.9320 -0.4744
10396SOL     OW35744   1.358   6.584   3.287 -0.2419 -0.1652 -0.0414
10396SOL    HW135745   1.274   6.540   3.303 -1.1182  1.6730  0.6522
10396SOL    HW235746   1.335   6.669   3.253  1.2758  0.9504  1.5134
10397SOL     OW35747   4.913   8.196   3.781 -0.3794  0.3627 -0.0120
10397SOL    HW135748   4.835   8.143   3.794 -1.1633  1.7257  1.0404
10397SOL    HW235749   4.959   8.154   3.708 -0.9298 -1.7695  0.8014
10398SOL     OW35750   3.695   7.934  10.069 -0.6905 -0.6249 -0.0830
10398SOL    HW135751   3.649   8.018  10.067  1.2617  0.5087 -0.4402
10398SOL    HW235752   3.693   7.903   9.979  1.8108  0.9947 -0.8037
10399SOL     OW35753   3.101   8.778   0.365 -0.4164  0.0117 -0.0850
10399SOL    HW135754   3.039   8.763   0.436  0.9362 -1.6800  0.8080
10399SOL    HW235755   3.159   8.848   0.397 -1.4437  1.1684 -0.6763
10400SOL     OW35756  11.230   2.802  10.674 -0.1291 -0.0697 -0.1566
10400SOL    HW135757  11.198   2.842  10.594 -1.0575  0.0546  0.2589
10400SOL    HW235758  11.309   2.756  10.648 -0.0348  0.5428 -0.9997
10401SOL     OW35759  10.493  11.912   8.609 -0.0152 -0.2397  0.0467
10401SOL    HW135760  10.402  11.900   8.581 -0.9151 -0.2277  2.6890
10401SOL    HW235761  10.540  11.838   8.570 -1.2184 -0.5058 -0.9765
10402SOL     OW35762   1.594   2.030  11.663 -0.5859  0.0768 -0.0903
10402SOL    HW135763   1.679   2.072  11.649 -1.6736  2.0738 -1.2964
10402SOL    HW235764   1.536   2.103  11.685 -2.6416 -0.7037 -2.4776
10403SOL     OW35765  10.901   4.996  11.825  0.1244  0.7912 -0.0059
10403SOL    HW135766  10.896   4.918  11.880  0.6652  1.8680  1.6516
10403SOL    HW235767  10.990   4.997  11.791  0.2583  0.9191  0.3462
10404SOL     OW35768  11.312  10.032   5.676  0.2653 -0.1394 -0.1928
10404SOL    HW135769  11.240  10.056   5.734  0.2634  0.0144 -0.2594
10404SOL    HW235770  11.271  10.021   5.590  0.1167 -1.1997 -0.0041
10405SOL     OW35771   7.335   2.786   3.074 -0.2503 -0.4128  0.0506
10405SOL    HW135772   7.332   2.724   3.002 -0.8806  0.0628 -0.3423
10405SOL    HW235773   7.429   2.802   3.088 -0.1231 -0.5344 -0.6331
10406SOL     OW35774   2.577   1.881   4.684 -0.5478  0.6337 -0.1226
10406SOL    HW135775   2.556   1.831   4.763  0.1736  1.4848  0.6325
10406SOL    HW235776   2.542   1.969   4.701 -2.1624  0.3237 -1.5932
10407SOL     OW35777   3.562   1.307   0.270  0.4122  0.7906  0.6668
10407SOL    HW135778   3.658   1.307   0.269  0.4950 -1.9334  1.4608
10407SOL    HW235779   3.537   1.279   0.182  0.2966  1.8242  0.3544
10408SOL     OW35780   2.442   0.258   9.274  0.2006  0.7317 -0.4203
10408SOL    HW135781   2.510   0.255   9.341 -0.8549  0.1153  0.6561
10408SOL    HW235782   2.363   0.224   9.318 -1.3332  3.3045 -0.9865
10409SOL     OW35783   8.510   3.927   1.885  0.0467 -0.3159 -0.0029
10409SOL    HW135784   8.444   3.988   1.917 -1.5017 -2.4822  1.2533
10409SOL    HW235785   8.588   3.946   1.938  0.3469  1.9212 -1.1370
10410SOL     OW35786   2.300   8.082   6.458  0.0655  0.6819  0.0192
10410SOL    HW135787   2.273   8.017   6.394 -1.2651 -0.0187  1.2433
10410SOL    HW235788   2.346   8.149   6.406 -0.3603 -0.1917 -1.5460
10411SOL     OW35789  11.286   4.937   1.360 -0.8321 -0.6424 -0.0327
10411SOL    HW135790  11.364   4.972   1.316 -1.3327  0.5446 -0.0024
10411SOL    HW235791  11.238   5.014   1.389 -1.7945 -1.3713  0.3610
10412SOL     OW35792   7.449   3.982   6.936  0.6088  0.1220  0.1311
10412SOL    HW135793   7.540   3.953   6.938  0.8398  0.7380 -0.6714
10412SOL    HW235794   7.442   4.031   6.854 -0.8407 -1.2287 -0.6081
10413SOL     OW35795   0.859   4.282   2.404  0.3159  0.1613  0.0506
10413SOL    HW135796   0.903   4.198   2.413 -0.1189  0.0405  1.1653
10413SOL    HW235797   0.871   4.305   2.312 -0.0672 -1.3942 -0.4150
10414SOL     OW35798   3.414   3.285   9.460  0.2928  0.7159  0.0420
10414SOL    HW135799   3.365   3.226   9.517  0.1252  0.8455  0.0337
10414SOL    HW235800   3.368   3.369   9.467  0.2279  0.7163 -0.3392
10415SOL     OW35801   3.079   1.953   2.628 -0.1705  0.4643  0.0118
10415SOL    HW135802   3.090   1.888   2.697  0.6281  2.6772  2.1288
10415SOL    HW235803   3.094   2.037   2.671  1.0413  1.9758 -3.0184
10416SOL     OW35804   0.745   7.399   0.389 -0.8129 -0.6719  0.0318
10416SOL    HW135805   0.747   7.486   0.429 -0.5979 -0.9251  0.5932
10416SOL    HW235806   0.660   7.363   0.415 -0.5377 -0.9625  0.5488
10417SOL     OW35807   6.250   2.278  10.604  0.2997 -0.3205  0.1546
10417SOL    HW135808   6.344   2.260  10.599  0.7022  1.4724  0.7598
10417SOL    HW235809   6.243   2.362  10.650 -1.5344  0.1861 -0.9235
10418SOL     OW35810   6.883   2.828   3.654 -0.2227  0.6964 -0.0637
10418SOL    HW135811   6.893   2.741   3.694  3.2108  1.2347  0.5388
10418SOL    HW235812   6.830   2.812   3.576  0.7660 -2.0799 -0.2970
10419SOL     OW35813   8.469   9.042   8.025 -0.5927  0.1747 -0.6976
10419SOL    HW135814   8.544   8.985   8.007 -0.1151  0.7101 -0.4471
10419SOL    HW235815   8.496   9.128   7.991 -0.6596  0.6233  0.3371
10420SOL     OW35816   8.564   3.979   4.521  0.1194  0.3912 -0.0773
10420SOL    HW135817   8.605   3.982   4.434  2.9721  2.0507  1.1837
10420SOL    HW235818   8.624   3.926   4.574 -1.6908 -0.7785  0.8842
10421SOL     OW35819   2.154   2.786  10.941 -0.0276 -0.4569  0.0812
10421SOL    HW135820   2.164   2.825  11.027  0.1617  0.1452 -0.2141
10421SOL    HW235821   2.059   2.789  10.924  0.2121  3.0813 -1.3987
10422SOL     OW35822   1.383   3.556  11.388 -0.1520  0.0000  0.2865
10422SOL    HW135823   1.294   3.558  11.425 -0.2818 -2.1570  0.1781
10422SOL    HW235824   1.437   3.521  11.458  0.9960  2.8390  0.9442
10423SOL     OW35825   9.613   9.178   9.736 -0.3370 -0.1349  0.7519
10423SOL    HW135826   9.696   9.223   9.723  0.6505 -2.3941 -1.4530
10423SOL    HW235827   9.561   9.200   9.659 -1.1695 -0.0615  1.3153
10424SOL     OW35828   1.655   4.883   9.453  0.0855 -0.4321  0.1767
10424SOL    HW135829   1.606   4.966   9.447 -1.2609 -1.0153  1.9945
10424SOL    HW235830   1.625   4.832   9.378  0.0729  0.2910 -0.3248
10425SOL     OW35831   3.917   4.594   3.155  0.0053 -0.0722 -0.2457
10425SOL    HW135832   3.897   4.508   3.191 -0.0966 -0.8651 -2.0615
10425SOL    HW235833   3.882   4.656   3.219 -0.4932 -1.3729  0.7855
10426SOL     OW35834  11.802   3.011   3.783 -0.5590 -0.4071  0.0861
10426SOL    HW135835  11.851   2.962   3.849 -0.1036 -0.3174 -0.1805
10426SOL    HW235836  11.712   2.982   3.793 -0.4095 -0.7628  0.4127
10427SOL     OW35837   1.148   7.842   8.208  0.4582  0.2617 -0.4030
10427SOL    HW135838   1.092   7.858   8.283  1.5567 -1.0723  0.7606
10427SOL    HW235839   1.099   7.782   8.153  0.6242 -0.7241  0.4971
10428SOL     OW35840   2.627   3.987  10.213  0.2651 -0.2291 -0.7852
10428SOL    HW135841   2.608   3.932  10.289 -0.5621  0.6460 -0.3473
10428SOL    HW235842   2.697   3.940  10.167  0.0147 -1.3276 -0.0896
10429SOL     OW35843   4.751   2.391  10.596  0.1992 -0.2865 -0.9175
10429SOL    HW135844   4.697   2.427  10.667  0.1857 -0.1002 -1.0205
10429SOL    HW235845   4.840   2.390  10.631  0.3102  0.4958 -1.1515
10430SOL     OW35846   6.645  10.108   3.670 -0.2211 -0.3619  0.3470
10430SOL    HW135847   6.686  10.043   3.613  1.1952  1.8788 -1.3532
10430SOL    HW235848   6.586  10.157   3.612  1.1329  1.8824  0.7479
10431SOL     OW35849  11.643   5.295  10.957 -0.2596  0.4881 -0.2698
10431SOL    HW135850  11.599   5.334  10.882  0.0345 -0.2214 -0.8207
10431SOL    HW235851  11.687   5.217  10.922 -2.2898 -1.4030  1.0954
10432SOL     OW35852   8.003   0.008   1.404 -0.0386  0.2393 -0.0832
10432SOL    HW135853   7.920  -0.034   1.427  1.0473 -0.7104  2.4137
10432SOL    HW235854   7.989   0.100   1.426 -0.3513  0.0393  0.5840
10433SOL     OW35855   8.646   1.846   8.468  0.2060 -0.1307  0.2135
10433SOL    HW135856   8.556   1.822   8.493  0.1858  1.0876  1.4197
10433SOL    HW235857   8.674   1.907   8.536  2.8568 -2.2915  1.2369
10434SOL     OW35858  12.068   5.742  10.160  0.0374  0.5588  0.3871
10434SOL    HW135859  12.157   5.713  10.139 -0.2464 -0.3396  0.3956
10434SOL    HW235860  12.044   5.800  10.088 -0.7925 -2.1905 -1.7096
10435SOL     OW35861   7.479   8.073   4.433  0.3378 -0.0858  0.6925
10435SOL    HW135862   7.395   8.033   4.454  0.0162 -0.0082 -0.3890
10435SOL    HW235863   7.542   8.000   4.434 -0.2297 -0.6392 -1.1924
10436SOL     OW35864   3.072   7.880   2.880 -0.2487  0.0249  0.3233
10436SOL    HW135865   3.073   7.965   2.924  1.1288  0.6989 -0.9523
10436SOL    HW235866   3.040   7.819   2.947 -0.4242  1.3869  1.5276
10437SOL     OW35867   5.529   0.383   4.307  0.0846 -0.3608  0.4886
10437SOL    HW135868   5.547   0.296   4.272 -1.1415 -0.4476  0.0358
10437SOL    HW235869   5.561   0.379   4.397 -0.9009 -1.6356  0.8121
10438SOL     OW35870   3.061  11.297   0.317 -0.1102  0.0626  0.4550
10438SOL    HW135871   3.141  11.347   0.299 -0.1068 -0.7116 -2.1553
10438SOL    HW235872   2.990  11.356   0.289 -0.1218 -1.0706 -2.2450
10439SOL     OW35873   7.313   5.933   7.762  0.3539  0.1445 -0.5424
10439SOL    HW135874   7.398   5.893   7.778  0.1313 -0.4471 -0.8163
10439SOL    HW235875   7.251   5.860   7.766 -0.3534  0.7995  1.3082
10440SOL     OW35876   6.490   5.632   6.288 -0.6383 -0.0433  0.0814
10440SOL    HW135877   6.506   5.569   6.218  0.8667  0.6940 -0.2842
10440SOL    HW235878   6.578   5.654   6.321 -1.2164  0.8373  1.0983
10441SOL     OW35879   8.765   3.839  11.003  0.1694  0.0692  0.9696
10441SOL    HW135880   8.681   3.885  11.005  0.5051  0.7197  0.1560
10441SOL    HW235881   8.801   3.852  11.091  0.1997  1.2745  0.8005
10442SOL     OW35882  11.543   1.108   7.209 -0.6946 -0.0479 -0.0640
10442SOL    HW135883  11.586   1.032   7.171 -0.0145  0.5429 -0.5028
10442SOL    HW235884  11.452   1.102   7.178 -0.2514  0.1983 -1.4824
10443SOL     OW35885   8.872  11.983   6.355 -0.4203  0.0246  0.6888
10443SOL    HW135886   8.880  12.073   6.388 -0.3293 -0.3374  1.6797
10443SOL    HW235887   8.917  11.985   6.270  0.1301  0.7685  0.9888
10444SOL     OW35888  11.466   1.741  10.089  0.0115  0.2924  0.6750
10444SOL    HW135889  11.479   1.836  10.092  0.2779  0.3076 -0.4470
10444SOL    HW235890  11.396   1.728  10.025  1.3974 -0.3585 -0.7892
10445SOL     OW35891   5.935   3.399   3.189 -0.3963 -0.3978  0.4112
10445SOL    HW135892   5.946   3.494   3.192 -0.8008 -0.3759  1.9564
10445SOL    HW235893   6.014   3.365   3.232  1.6705 -0.9989 -3.3941
10446SOL     OW35894   0.920   0.747  11.884 -0.4143  0.0557 -0.0031
10446SOL    HW135895   0.834   0.776  11.854  0.2824  1.6122 -0.6215
10446SOL    HW235896   0.902   0.679  11.949 -2.0469 -0.8250 -1.3244
10447SOL     OW35897   8.157   5.173   6.608 -0.3968 -0.4570  0.1511
10447SOL    HW135898   8.200   5.201   6.688  0.8501 -0.5108 -0.4716
10447SOL    HW235899   8.149   5.253   6.555  0.2127 -0.6790 -0.2947
10448SOL     OW35900   9.571  10.990   8.467  0.2551  0.2634 -0.1651
10448SOL    HW135901   9.650  11.002   8.413 -0.4230 -1.5755 -1.7148
10448SOL    HW235902   9.507  10.953   8.406 -0.7721 -1.3225  1.7695
10449SOL     OW35903   3.807   2.876  11.644 -0.4475  0.0406  0.1915
10449SOL    HW135904   3.723   2.831  11.657 -0.7094 -0.0380 -1.5699
10449SOL    HW235905   3.844   2.836  11.565  0.6969  0.9018  0.2656
10450SOL     OW35906  10.972  10.759   2.823  0.2396 -0.1699  0.0321
10450SOL    HW135907  10.968  10.825   2.892 -1.1854 -1.3748  1.1636
10450SOL    HW235908  10.912  10.690   2.852  0.3827 -1.1864 -1.9296
10451SOL     OW35909   8.253   3.150   0.177  0.2399 -0.0349  0.1567
10451SOL    HW135910   8.338   3.107   0.188 -0.5580 -1.6541  0.3350
10451SOL    HW235911   8.189   3.081   0.193 -1.1227  1.0370 -0.4328
10452SOL     OW35912   6.872   5.797  11.490  0.1399 -0.2661 -0.0035
10452SOL    HW135913   6.838   5.793  11.579 -1.0199  0.5592 -0.3863
10452SOL    HW235914   6.861   5.708  11.456 -0.0333 -0.4244  0.4612
10453SOL     OW35915   8.164   6.137   5.268 -0.1011  0.3252 -0.5753
10453SOL    HW135916   8.226   6.208   5.253 -0.4859  0.8322  0.1936
10453SOL    HW235917   8.100   6.146   5.198 -0.0274  0.5954 -0.6078
10454SOL     OW35918   8.253   5.687   1.952  0.2159  0.2450  0.2759
10454SOL    HW135919   8.242   5.592   1.950 -0.4382  0.3258 -1.0559
10454SOL    HW235920   8.324   5.702   2.014  0.7207 -1.1593  0.0673
10455SOL     OW35921   6.599   3.181   2.598 -0.2096  0.1564  0.1560
10455SOL    HW135922   6.688   3.156   2.573 -0.0308  1.1916 -0.3197
10455SOL    HW235923   6.586   3.142   2.684 -0.1525 -1.9681 -0.7289
10456SOL     OW35924  11.914   9.211   8.220  0.0123 -0.2539 -0.0538
10456SOL    HW135925  11.947   9.193   8.132 -0.2688  1.2581 -0.4944
10456SOL    HW235926  11.952   9.142   8.274  0.2096 -1.1899 -1.3459
10457SOL     OW35927   8.404   5.940  11.606 -0.1621  0.4100 -0.0174
10457SOL    HW135928   8.322   5.989  11.599 -1.0717 -0.8644  0.9634
10457SOL    HW235929   8.376   5.848  11.611  1.5258 -0.4430 -3.4746
10458SOL     OW35930   6.334   3.891   7.194 -0.0841 -0.5868 -0.3160
10458SOL    HW135931   6.253   3.914   7.148  0.0553  0.0874 -0.2283
10458SOL    HW235932   6.399   3.879   7.124  0.2180  0.7924 -0.2907
10459SOL     OW35933   6.764   1.383   9.561 -0.0519 -0.6152  0.3835
10459SOL    HW135934   6.806   1.355   9.643 -0.5574  0.3115  0.9739
10459SOL    HW235935   6.683   1.426   9.589 -0.7696 -1.2365 -0.6685
10460SOL     OW35936   5.884   7.348   7.989 -0.3049 -0.2360 -0.2708
10460SOL    HW135937   5.808   7.326   8.043  0.0876 -1.5167 -0.2104
10460SOL    HW235938   5.858   7.324   7.900  0.1018 -0.8800 -0.2178
10461SOL     OW35939   7.032   4.576   4.558  0.0831  0.2930  0.5786
10461SOL    HW135940   7.101   4.642   4.547 -0.3065  0.8304  1.2944
10461SOL    HW235941   7.075   4.503   4.602  0.2749  0.4959  0.7319
10462SOL     OW35942   5.520  10.138  11.640  0.2570  0.2734  0.3001
10462SOL    HW135943   5.587  10.070  11.629  1.6403  1.7572 -0.9384
10462SOL    HW235944   5.516  10.152  11.735  1.3544 -0.1963  0.4392
10463SOL     OW35945   9.133   3.467   8.404 -0.7026  0.0513 -0.1052
10463SOL    HW135946   9.083   3.524   8.347  0.5859 -0.0620 -1.4300
10463SOL    HW235947   9.187   3.526   8.457 -0.3950  0.1168 -0.4847
10464SOL     OW35948  11.132   7.672   7.427  0.7908  0.8881 -0.3334
10464SOL    HW135949  11.084   7.625   7.359 -0.4494  1.4199  0.1503
10464SOL    HW235950  11.114   7.765   7.411  3.0214  1.2505 -1.1392
10465SOL     OW35951  12.051   7.050   6.660 -0.4672 -0.1272 -0.1796
10465SOL    HW135952  12.129   6.997   6.675 -0.3382  0.1742  0.2254
10465SOL    HW235953  11.998   7.038   6.739 -2.2988 -2.7907 -1.6674
10466SOL     OW35954  12.061   1.920   8.777  0.2941  0.0390  0.6925
10466SOL    HW135955  11.979   1.969   8.786 -1.7263 -1.1713 -5.7785
10466SOL    HW235956  12.127   1.987   8.757 -0.3708  0.6691  0.5657
10467SOL     OW35957   6.782  10.621   5.962 -0.3753  0.2883  0.7437
10467SOL    HW135958   6.754  10.707   5.932 -1.1329  0.1303  0.9875
10467SOL    HW235959   6.703  10.580   5.996 -0.5720 -1.4964 -1.6522
10468SOL     OW35960   6.762   3.673   3.934  0.1331 -0.3498  0.0123
10468SOL    HW135961   6.689   3.613   3.919 -2.1061  1.7964  1.5257
10468SOL    HW235962   6.811   3.671   3.852 -0.1969 -3.6380 -0.2558
10469SOL     OW35963   1.388  10.405   5.722 -0.1203 -0.0213 -0.0955
10469SOL    HW135964   1.324  10.418   5.791 -1.9415  0.7463 -1.8282
10469SOL    HW235965   1.411  10.494   5.693  1.8657 -0.2665  0.5519
10470SOL     OW35966   8.933   2.907   2.079 -0.1543  0.7668 -0.1075
10470SOL    HW135967   8.983   2.968   2.133 -0.8370 -0.8858  2.5685
10470SOL    HW235968   8.965   2.821   2.105 -2.0515 -0.1815 -0.7981
10471SOL     OW35969   4.940   0.822   4.400  0.3515 -0.0253  0.2371
10471SOL    HW135970   4.932   0.844   4.493  2.1483  0.1933  0.3756
10471SOL    HW235971   5.033   0.834   4.380  0.0592 -0.3576 -1.5249
10472SOL     OW35972   0.682   2.148   9.527 -0.5381  0.1064  0.5397
10472SOL    HW135973   0.603   2.179   9.482 -0.3872 -0.5998 -0.2487
10472SOL    HW235974   0.752   2.205   9.493 -0.4636 -0.2720  0.0418
10473SOL     OW35975   1.931   1.205   7.731 -0.3938 -0.5775 -0.6540
10473SOL    HW135976   2.010   1.251   7.758 -0.2767 -1.0619 -0.1478
10473SOL    HW235977   1.865   1.232   7.795 -0.4242 -0.8212 -0.5839
10474SOL     OW35978   0.975   4.026   6.938 -0.1863  0.1102  0.2436
10474SOL    HW135979   0.962   3.952   6.997 -1.4965  0.3934  0.3398
10474SOL    HW235980   0.981   3.986   6.851 -1.3351 -0.0871  0.2453
10475SOL     OW35981  12.043   8.718   9.603 -0.1126  0.0589  0.0913
10475SOL    HW135982  11.954   8.749   9.585 -0.6072 -2.0311 -1.2871
10475SOL    HW235983  12.062   8.656   9.533  3.0669  1.5750 -0.5551
10476SOL     OW35984   3.620   1.572   6.003 -0.7779  0.0535 -0.2461
10476SOL    HW135985   3.571   1.567   5.921 -0.7691 -3.1121 -0.1749
10476SOL    HW235986   3.571   1.634   6.056 -2.3324  0.1223 -1.6742
10477SOL     OW35987   7.997  10.432   2.826 -0.0034  0.0197 -0.6269
10477SOL    HW135988   8.001  10.486   2.904 -0.6333  0.0777 -0.6289
10477SOL    HW235989   8.033  10.486   2.756  1.0849 -0.2328 -0.2755
10478SOL     OW35990  11.771   1.101  10.537 -0.9649 -0.1790 -0.7623
10478SOL    HW135991  11.705   1.163  10.569 -0.0804 -0.4363  1.7758
10478SOL    HW235992  11.734   1.015  10.555  0.2288 -0.3291  1.2493
10479SOL     OW35993   6.803   6.778   3.715 -0.2189 -0.1168 -0.0144
10479SOL    HW135994   6.798   6.719   3.790 -0.3465 -1.5043 -1.0783
10479SOL    HW235995   6.897   6.790   3.701 -0.1922 -0.1177  0.1553
10480SOL     OW35996   2.194   5.853   8.956 -0.5175  0.1720  0.0911
10480SOL    HW135997   2.170   5.911   8.883  0.0105  1.0108  0.5675
10480SOL    HW235998   2.228   5.774   8.913 -1.3158  0.1783 -0.5710
10481SOL     OW35999   0.183   1.744   2.527  0.2305  0.2170 -0.0769
10481SOL    HW136000   0.232   1.662   2.517  2.9120  1.8202 -1.0339
10481SOL    HW236001   0.217   1.783   2.607  1.2713  1.7706 -1.2111
10482SOL     OW36002  11.562   9.381   5.738  0.2740 -0.3203 -0.5506
10482SOL    HW136003  11.624   9.437   5.785  0.0904 -1.6077  1.3749
10482SOL    HW236004  11.616   9.322   5.686  0.6719 -0.9714  0.5696
10483SOL     OW36005  10.983   4.813   3.449 -0.0203 -0.4928  0.1413
10483SOL    HW136006  11.005   4.865   3.527  1.7946  2.4873 -2.1451
10483SOL    HW236007  11.034   4.732   3.459  1.7772  0.6875  1.1452
10484SOL     OW36008   4.463   9.473   2.876  0.1002  0.1175 -0.2439
10484SOL    HW136009   4.503   9.536   2.815 -0.2157  1.0524  0.4994
10484SOL    HW236010   4.427   9.526   2.946  0.1405 -0.9206  0.5968
10485SOL     OW36011   1.009   6.118   8.796  0.1424 -0.1197 -0.2795
10485SOL    HW136012   1.014   6.129   8.701  0.8939  1.2468 -0.1136
10485SOL    HW236013   0.915   6.111   8.814 -0.2146  2.1328 -0.9173
10486SOL     OW36014  11.296   0.869   2.425  1.2836  0.1314 -0.5955
10486SOL    HW136015  11.352   0.886   2.501 -0.1594  2.0412  0.1164
10486SOL    HW236016  11.248   0.790   2.448  0.5796  0.8935  0.7080
10487SOL     OW36017   6.240   6.925   3.123  0.6870  0.2234 -0.3216
10487SOL    HW136018   6.284   6.854   3.171  1.4860  0.8942 -0.0451
10487SOL    HW236019   6.174   6.957   3.184 -0.8020 -1.3193 -1.0285
10488SOL     OW36020   7.723   0.327   8.804 -0.3719 -0.2227 -0.3825
10488SOL    HW136021   7.695   0.348   8.893  4.3535  2.2369  0.8165
10488SOL    HW236022   7.704   0.406   8.753  2.4278  0.8762  0.0960
10489SOL     OW36023  11.455   5.878  12.035  0.1045  0.2935  0.0781
10489SOL    HW136024  11.542   5.839  12.038 -0.7362 -1.6536  0.1386
10489SOL    HW236025  11.470   5.968  12.004  2.0844 -0.0758 -0.1342
10490SOL     OW36026   1.692   6.358   5.719 -0.4882 -0.5991  0.3418
10490SOL    HW136027   1.729   6.288   5.772  1.0159  0.7660  1.1815
10490SOL    HW236028   1.657   6.420   5.783 -0.8075 -0.0680 -0.3399
10491SOL     OW36029   4.903   9.174   4.381 -0.1611 -0.2767  0.5538
10491SOL    HW136030   4.863   9.260   4.391  0.3537 -0.1291  1.4311
10491SOL    HW236031   4.914   9.142   4.470  1.3989 -0.4367  0.3259
10492SOL     OW36032   4.903   3.271   4.678 -0.0574 -0.1102 -0.6339
10492SOL    HW136033   4.901   3.351   4.625  0.9990 -1.2949 -2.5577
10492SOL    HW236034   4.995   3.249   4.685 -0.3190 -0.9888  0.1551
10493SOL     OW36035   5.545   0.471   7.577  0.2905  0.0753  0.2298
10493SOL    HW136036   5.461   0.513   7.596 -0.1278 -1.3441  1.7466
10493SOL    HW236037   5.599   0.542   7.543 -1.5592  0.9918 -0.9788
10494SOL     OW36038   8.642   4.952   2.578 -0.5227 -0.1349  0.4471
10494SOL    HW136039   8.713   4.892   2.601  0.8111  1.7210  1.4546
10494SOL    HW236040   8.562   4.902   2.594  0.4880 -2.4423 -1.1526
10495SOL     OW36041   6.269   8.469  10.768 -0.1673  0.2898 -0.3249
10495SOL    HW136042   6.343   8.423  10.805  0.0457 -0.3188 -1.4513
10495SOL    HW236043   6.295   8.488  10.678 -0.4646  2.1417 -0.0679
10496SOL     OW36044   7.673   2.518   9.364  0.7490  0.4083  0.0431
10496SOL    HW136045   7.664   2.608   9.395  1.9352  0.6094 -0.1433
10496SOL    HW236046   7.621   2.466   9.426 -1.5579  1.3835 -0.9471
10497SOL     OW36047   0.886   4.130   4.656 -0.9444 -0.3488 -0.0167
10497SOL    HW136048   0.871   4.199   4.720  1.0455  1.8278 -1.7025
10497SOL    HW236049   0.822   4.145   4.587 -0.8391 -0.5195 -0.1552
10498SOL     OW36050   0.280   2.558   7.313  0.6944 -0.9728 -0.2595
10498SOL    HW136051   0.359   2.521   7.275  1.1152  0.8958 -1.3514
10498SOL    HW236052   0.238   2.604   7.240  0.8881  1.7123  1.1846
10499SOL     OW36053   8.556   7.684   1.778  0.5849  0.5581  0.5993
10499SOL    HW136054   8.603   7.761   1.810  2.8452 -0.8020  0.7161
10499SOL    HW236055   8.582   7.676   1.686 -1.8197  1.4491 -0.2412
10500SOL     OW36056   0.021   0.050   3.533  0.1293  0.2404 -0.1872
10500SOL    HW136057   0.113   0.022   3.536 -0.5114 -1.9742  0.9383
10500SOL    HW236058  -0.002   0.045   3.440  1.0577  0.5248 -0.4466
10501SOL     OW36059   0.786   5.969   2.226  0.3399  0.2603 -0.2172
10501SOL    HW136060   0.874   5.958   2.189  0.5829 -2.1296  0.8884
10501SOL    HW236061   0.801   6.009   2.312  0.5143 -1.4644  0.5802
10502SOL     OW36062   3.002   5.153   3.173  0.1075 -0.6106 -0.0031
10502SOL    HW136063   3.084   5.176   3.128 -0.4361  0.4276 -0.4954
10502SOL    HW236064   2.934   5.168   3.108 -0.5556 -0.6889  0.6575
10503SOL     OW36065   3.831   1.378   2.143  1.0546  0.3519  0.1745
10503SOL    HW136066   3.828   1.430   2.224  2.9228 -0.6323  0.9206
10503SOL    HW236067   3.915   1.401   2.103  1.0912 -0.7582 -0.3999
10504SOL     OW36068   5.398   0.949   5.265  0.4800 -0.2416 -0.1750
10504SOL    HW136069   5.377   1.013   5.197 -0.2099 -0.4596 -0.1720
10504SOL    HW236070   5.419   0.869   5.217 -0.0407 -0.4053 -0.1399
10505SOL     OW36071   1.535   7.276   5.879  0.3333  0.0836  0.2667
10505SOL    HW136072   1.470   7.339   5.910  1.0594  0.8655  0.2253
10505SOL    HW236073   1.617   7.305   5.918  0.6946 -0.7990  0.1875
10506SOL     OW36074   6.039   2.267   8.204 -0.5639 -0.3436  0.3188
10506SOL    HW136075   6.083   2.324   8.267 -2.1966 -0.7094  1.8628
10506SOL    HW236076   5.946   2.285   8.216 -0.9410  0.0052 -2.4510
10507SOL     OW36077   4.737   0.405   6.743 -0.0056 -0.4267 -0.1124
10507SOL    HW136078   4.686   0.383   6.821  0.6603 -0.1627  0.4147
10507SOL    HW236079   4.732   0.500   6.737  0.2035 -0.4213 -0.2123
10508SOL     OW36080   9.331  12.034   4.444  0.1991 -0.3605  0.4118
10508SOL    HW136081   9.270  11.992   4.384 -0.2336  0.3907  0.3158
10508SOL    HW236082   9.277  12.067   4.516  0.3412  1.1089 -0.1142
10509SOL     OW36083  10.497   9.915   6.176  0.3967  0.2282 -0.2018
10509SOL    HW136084  10.523  10.006   6.192 -1.2204  1.0057 -1.7020
10509SOL    HW236085  10.471   9.882   6.263  0.0056  1.5538  0.2112
10510SOL     OW36086   6.128   9.832   4.986 -0.0550  0.4239 -0.1339
10510SOL    HW136087   6.131   9.781   5.068  0.7571 -0.4060 -0.6505
10510SOL    HW236088   6.205   9.889   4.991 -0.9020  1.5481  0.3906
10511SOL     OW36089   2.911   8.902   4.916  0.2789 -0.0040  0.5166
10511SOL    HW136090   2.999   8.864   4.906  0.5350  0.4116  1.1403
10511SOL    HW236091   2.916   8.952   4.997 -0.5385  0.0337  0.5442
10512SOL     OW36092   0.827   4.239   1.624  0.0032  0.1089 -0.4924
10512SOL    HW136093   0.797   4.309   1.682  0.6690  0.1311 -0.1675
10512SOL    HW236094   0.814   4.273   1.536  0.0561  0.5275 -0.3384
10513SOL     OW36095  11.970   1.454  11.580  0.2854  0.0099  0.2465
10513SOL    HW136096  12.066   1.460  11.572  0.4438 -0.9445  1.1577
10513SOL    HW236097  11.948   1.519  11.647  0.2982  0.1862  0.0816
10514SOL     OW36098   3.264   8.452   9.648  0.4791  0.3677 -0.0499
10514SOL    HW136099   3.211   8.519   9.608  0.2694  0.1925 -0.0661
10514SOL    HW236100   3.219   8.370   9.629  0.8973  0.1918 -0.2963
10515SOL     OW36101   6.380   6.019   1.269 -0.3262  0.4516  0.8956
10515SOL    HW136102   6.445   6.045   1.204 -1.4728 -1.0461 -0.9523
10515SOL    HW236103   6.418   6.046   1.352  2.4146  0.1399 -0.1364
10516SOL     OW36104   7.240   8.722   7.500  0.4657 -0.1206  0.3753
10516SOL    HW136105   7.323   8.717   7.548 -0.0858  0.4980  1.4278
10516SOL    HW236106   7.186   8.653   7.539 -0.7010  1.6806  2.1342
10517SOL     OW36107  11.516   5.852  11.692 -0.0302  0.0007 -0.0199
10517SOL    HW136108  11.597   5.814  11.726  0.4723  0.2030 -0.9641
10517SOL    HW236109  11.472   5.780  11.646 -0.3321 -0.0752  0.3775
10518SOL     OW36110   5.036   4.839   6.404  0.0301 -0.1221  0.2732
10518SOL    HW136111   5.124   4.802   6.395 -0.1646 -0.3696 -0.7837
10518SOL    HW236112   5.020   4.882   6.320 -0.8430 -0.0541  0.4713
10519SOL     OW36113   2.079   9.734   2.003  0.6235 -0.7055 -0.1473
10519SOL    HW136114   2.084   9.668   2.072 -0.5232 -0.1728  0.4733
10519SOL    HW236115   1.989   9.729   1.971  0.8224 -0.1714 -0.8276
10520SOL     OW36116   0.124   6.677   1.516  0.1819  0.2216  0.3434
10520SOL    HW136117   0.157   6.722   1.594 -2.1822  2.4653  0.1766
10520SOL    HW236118   0.158   6.727   1.443 -0.3510  0.1818  0.0596
10521SOL     OW36119   0.389   6.881   7.004  0.3655  0.1107 -0.3984
10521SOL    HW136120   0.407   6.873   6.911 -0.2376  0.5416 -0.5526
10521SOL    HW236121   0.436   6.807   7.044  1.7882  0.7285 -0.8745
10522SOL     OW36122   0.955   5.996  10.891  0.4435  0.3520 -0.4974
10522SOL    HW136123   0.915   5.931  10.948 -1.0968  1.2308 -0.5438
10522SOL    HW236124   0.972   5.949  10.809 -0.5440 -0.0401 -0.4892
10523SOL     OW36125   3.181   9.002   0.098 -0.8884  0.3404 -0.1965
10523SOL    HW136126   3.205   8.909   0.095  0.1472  0.5939 -0.2353
10523SOL    HW236127   3.233   9.038   0.170  0.4349  1.3411 -1.5930
10524SOL     OW36128   0.153  12.099   0.321  0.7346 -0.0343  0.3848
10524SOL    HW136129   0.116  12.099   0.409  0.3055 -0.8843  0.2121
10524SOL    HW236130   0.238  12.055   0.331  0.1214 -1.3033  0.1590
10525SOL     OW36131   7.166   5.292   5.552 -0.5924 -0.0004  0.1390
10525SOL    HW136132   7.089   5.303   5.497 -0.0378  0.6445 -0.5313
10525SOL    HW236133   7.239   5.288   5.491 -0.0354 -0.0380  0.7919
10526SOL     OW36134   0.802   5.388   7.123  0.3952  0.7101 -0.5002
10526SOL    HW136135   0.709   5.407   7.111  0.5809  0.9109 -1.7669
10526SOL    HW236136   0.824   5.431   7.206 -0.3869  1.6683 -0.7593
10527SOL     OW36137   0.003   2.559   4.297 -0.3863 -0.4736  0.4059
10527SOL    HW136138   0.028   2.467   4.290 -0.9682 -0.5892 -0.2441
10527SOL    HW236139   0.081   2.607   4.270 -0.3774 -0.7970 -0.1515
10528SOL     OW36140   7.709   0.010   5.117 -0.8444  0.1128 -0.0421
10528SOL    HW136141   7.652  -0.043   5.062 -1.8834  0.0397  1.0516
10528SOL    HW236142   7.683  -0.012   5.207 -1.1362  2.2343  0.4657
10529SOL     OW36143   8.003   2.563   7.763  0.8680 -0.6212 -0.5253
10529SOL    HW136144   8.086   2.580   7.719  0.6579 -0.5499 -0.8994
10529SOL    HW236145   7.975   2.477   7.729  1.1468 -0.9880  0.1550
10530SOL     OW36146   2.967   7.702  10.948 -0.6789  0.2877 -0.1627
10530SOL    HW136147   2.873   7.684  10.939 -1.5647  3.5710  0.8461
10530SOL    HW236148   2.970   7.787  10.991  2.8248  0.1061  0.2110
10531SOL     OW36149   7.985   7.355   6.349  0.2158 -0.4090  0.6761
10531SOL    HW136150   7.992   7.320   6.438 -1.0966  1.8336  1.7232
10531SOL    HW236151   8.070   7.395   6.333  0.1278  0.0522  1.3209
10532SOL     OW36152   2.062  10.459   4.488 -0.0994  0.4406 -0.0692
10532SOL    HW136153   2.078  10.492   4.576 -2.9272  2.6610 -0.2356
10532SOL    HW236154   2.082  10.534   4.431 -0.7559 -0.1280 -1.0743
10533SOL     OW36155   3.093   7.245   2.092 -0.4549 -0.0998  0.0973
10533SOL    HW136156   3.025   7.182   2.114 -0.6295 -0.0749 -0.3593
10533SOL    HW236157   3.074   7.321   2.146 -1.1350  0.1239 -0.4347
10534SOL     OW36158   5.904   9.307   4.339  0.2135  0.1806  0.0616
10534SOL    HW136159   5.976   9.307   4.276 -0.9593  2.3339 -1.4073
10534SOL    HW236160   5.943   9.278   4.421  2.7173  1.2037 -0.6940
10535SOL     OW36161   1.148   9.858   8.309  0.5675  0.2716  0.3092
10535SOL    HW136162   1.113   9.837   8.395  0.1313 -1.9202 -0.3459
10535SOL    HW236163   1.117   9.947   8.291  0.7043  0.7850  2.3906
10536SOL     OW36164   6.262   3.243   4.510 -0.2347  0.2616  0.6015
10536SOL    HW136165   6.286   3.209   4.596  0.1857  0.0085  0.3832
10536SOL    HW236166   6.177   3.286   4.524 -1.0423 -1.3096  0.7793
10537SOL     OW36167   7.623   4.828   0.861 -0.6883 -0.2440  0.5646
10537SOL    HW136168   7.714   4.802   0.850 -0.9052 -0.5084 -0.8101
10537SOL    HW236169   7.573   4.754   0.827 -1.4318 -0.2203  1.5772
10538SOL     OW36170  11.163   9.498   0.603 -0.1352  0.0965 -0.2941
10538SOL    HW136171  11.138   9.407   0.586 -0.8236  0.1113  0.5371
10538SOL    HW236172  11.252   9.492   0.638 -0.0532 -0.2291 -0.5540
10539SOL     OW36173  10.527   5.030   0.285  0.2077 -0.0718  0.3174
10539SOL    HW136174  10.467   5.102   0.307 -0.3156 -0.2199 -0.5691
10539SOL    HW236175  10.478   4.951   0.305 -0.5801 -0.2336 -1.9475
10540SOL     OW36176   7.195   2.988   1.948 -0.2017  0.0047  0.5867
10540SOL    HW136177   7.290   3.002   1.950 -0.4024  1.4901  0.9116
10540SOL    HW236178   7.160   3.070   1.913 -1.2685 -1.1186 -1.1201
10541SOL     OW36179   8.816   4.389  10.344 -0.0729  0.5273  0.1893
10541SOL    HW136180   8.812   4.307  10.393  0.1370  1.5677  2.0216
10541SOL    HW236181   8.897   4.384  10.294 -0.0862 -0.3970  0.2487
10542SOL     OW36182   9.272   4.138  10.727  0.2678 -0.1856  0.1297
10542SOL    HW136183   9.292   4.138  10.820 -0.4496  0.7839  0.2901
10542SOL    HW236184   9.191   4.187  10.719  0.5647  0.1483 -1.0557
10543SOL     OW36185   4.076   0.674   6.505  0.5231 -0.1564 -0.1449
10543SOL    HW136186   4.052   0.610   6.438 -0.4246 -0.0019  0.0367
10543SOL    HW236187   4.051   0.634   6.588 -1.9500  1.1914 -0.1332
10544SOL     OW36188   6.500   4.874   0.736 -0.3273  0.4710 -0.4182
10544SOL    HW136189   6.472   4.794   0.691 -0.4389 -0.0013  0.4576
10544SOL    HW236190   6.418   4.912   0.768 -0.2055  0.4742 -0.1037
10545SOL     OW36191   7.379   6.025   0.654  0.0854 -0.4218 -0.3672
10545SOL    HW136192   7.448   5.966   0.686  0.4746  0.4955  0.5605
10545SOL    HW236193   7.344   6.066   0.733 -1.6445 -0.9714 -0.8165
10546SOL     OW36194   7.552   3.038   5.289 -0.4672 -0.0065 -0.3534
10546SOL    HW136195   7.496   3.060   5.363 -0.4891  0.4686 -0.5070
10546SOL    HW236196   7.510   3.079   5.213 -0.7062 -0.8938 -0.7156
10547SOL     OW36197  11.218   5.188   7.682 -0.1208  0.0990  0.7375
10547SOL    HW136198  11.177   5.177   7.597  0.6763 -0.1830  0.3734
10547SOL    HW236199  11.227   5.099   7.716  1.0920  0.0533  0.3537
10548SOL     OW36200   9.785   5.298   8.498  0.0707 -0.1271 -0.3550
10548SOL    HW136201   9.761   5.351   8.422  1.2021  0.1647 -0.5388
10548SOL    HW236202   9.876   5.271   8.480  0.0616 -0.7764  0.4930
10549SOL     OW36203   2.122   5.539   3.543  0.3726  0.0897 -0.4150
10549SOL    HW136204   2.130   5.499   3.630 -0.4029  1.6371  0.4159
10549SOL    HW236205   2.101   5.465   3.485 -0.6554 -0.7796  0.9879
10550SOL     OW36206   9.474   9.113   0.183  0.1144 -0.4034  0.0948
10550SOL    HW136207   9.568   9.127   0.192 -0.1521  1.3476  0.5571
10550SOL    HW236208   9.439   9.199   0.161 -1.3534 -1.0910 -0.4219
10551SOL     OW36209  10.635   9.188   8.340  0.0838 -0.1444  0.0638
10551SOL    HW136210  10.655   9.107   8.292  1.2998  1.9149 -3.2428
10551SOL    HW236211  10.710   9.244   8.325 -1.4881  2.2780  0.7071
10552SOL     OW36212   3.988   9.048   9.721  0.3981 -0.4036 -0.2499
10552SOL    HW136213   3.968   8.955   9.733  0.9813 -0.2937  2.1411
10552SOL    HW236214   4.072   9.060   9.765  0.0670  1.3481 -0.0064
10553SOL     OW36215  11.755  10.637  10.119 -0.4162 -0.1660  0.0845
10553SOL    HW136216  11.796  10.660  10.202  0.5911  0.1798 -0.4913
10553SOL    HW236217  11.790  10.700  10.056 -2.0706  0.3480 -0.4001
10554SOL     OW36218   2.033   1.492   4.625  0.5289  0.1396 -0.6168
10554SOL    HW136219   2.050   1.405   4.589  1.7167  0.4735 -0.9091
10554SOL    HW236220   2.115   1.540   4.611 -1.0737  2.3088 -3.3011
10555SOL     OW36221   4.017   4.472   8.958  0.3891  0.1677  0.7902
10555SOL    HW136222   4.007   4.382   8.990  1.1359 -0.3817 -0.4471
10555SOL    HW236223   4.108   4.494   8.979 -0.0419  0.9796  1.8839
10556SOL     OW36224   0.821  11.332   9.438  0.6686  0.4148 -0.1046
10556SOL    HW136225   0.873  11.408   9.412  0.4946  0.9298  0.9817
10556SOL    HW236226   0.866  11.296   9.514 -0.7456  1.1472  1.1507
10557SOL     OW36227   9.901   5.706   2.479  0.9351 -0.0227 -0.1620
10557SOL    HW136228   9.958   5.629   2.486  1.2422  0.2156  0.0116
10557SOL    HW236229   9.844   5.700   2.556  0.9542 -0.0829 -0.1519
10558SOL     OW36230  10.349   5.339   5.110 -0.2197  0.6189  0.1791
10558SOL    HW136231  10.298   5.393   5.171 -0.9364  0.4797 -0.2824
10558SOL    HW236232  10.337   5.382   5.025 -0.3267  0.0623 -0.0933
10559SOL     OW36233   8.401   6.604   0.276  0.2890  0.9096  0.0118
10559SOL    HW136234   8.329   6.586   0.336 -1.3632 -0.7337 -2.3223
10559SOL    HW236235   8.359   6.628   0.194  2.4686  2.2404 -0.8127
10560SOL     OW36236   2.938   1.048   9.798 -0.1554  0.1003 -0.2614
10560SOL    HW136237   2.981   1.025   9.880  0.2432 -0.2351 -0.5565
10560SOL    HW236238   2.963   1.138   9.781 -1.1358  0.5470  0.5382
10561SOL     OW36239  11.677   2.417  11.836 -0.0806 -0.2298  0.6346
10561SOL    HW136240  11.609   2.352  11.820  0.7715 -0.7433 -1.1554
10561SOL    HW236241  11.629   2.496  11.862 -1.4104 -0.4571 -0.9743
10562SOL     OW36242  11.443   6.736   0.193 -0.2535 -0.3579  0.7838
10562SOL    HW136243  11.348   6.724   0.200 -0.5153  1.4122  0.9335
10562SOL    HW236244  11.455   6.830   0.207  1.5338 -0.5651  0.7776
10563SOL     OW36245  10.842  11.796   7.137  0.5056  0.2791  0.1595
10563SOL    HW136246  10.819  11.707   7.109 -0.4629  0.7322 -0.5275
10563SOL    HW236247  10.758  11.837   7.158  0.9343  1.1053  0.2849
10564SOL     OW36248   1.101   3.181   5.289 -0.1030  0.1474 -0.5892
10564SOL    HW136249   1.069   3.212   5.373  0.7130  0.1937 -0.2842
10564SOL    HW236250   1.133   3.260   5.245  2.8324 -0.2962  0.5631
10565SOL     OW36251   8.278   3.586   7.033  0.0203 -0.2888  0.5002
10565SOL    HW136252   8.274   3.499   6.992 -0.5783  0.1542 -0.4134
10565SOL    HW236253   8.220   3.579   7.108 -1.7352 -0.0692 -0.7936
10566SOL     OW36254   9.248   9.956   0.965 -0.1346  0.0141 -0.1319
10566SOL    HW136255   9.181   9.887   0.964  0.4852 -0.5938 -0.8678
10566SOL    HW236256   9.225  10.010   1.041 -0.9812 -0.6547  0.1106
10567SOL     OW36257   5.789   1.050   8.068  0.1844 -0.7899 -0.0021
10567SOL    HW136258   5.879   1.021   8.079  0.3603  0.0895  0.8851
10567SOL    HW236259   5.764   1.086   8.153 -1.3713 -2.0157  0.1092
10568SOL     OW36260  10.930  10.216   0.517  0.1515 -0.0868  0.1587
10568SOL    HW136261  10.954  10.126   0.494 -1.3216 -0.4256 -0.1600
10568SOL    HW236262  10.835  10.214   0.524  0.1607  1.2702  0.9799
10569SOL     OW36263   0.005  10.905   1.102 -0.7093 -0.3411 -0.0619
10569SOL    HW136264   0.098  10.903   1.124 -0.2265  0.4788 -1.8954
10569SOL    HW236265  -0.020  10.813   1.096  0.4119 -0.5879 -1.2277
10570SOL     OW36266  11.657  11.728   4.026  0.0314  0.5254  0.0866
10570SOL    HW136267  11.589  11.691   3.970  1.0215 -0.3319 -0.5841
10570SOL    HW236268  11.717  11.772   3.965 -0.9224  3.0186  0.8278
10571SOL     OW36269   5.139   0.712   1.973  0.4550  0.1771 -0.7886
10571SOL    HW136270   5.083   0.680   2.044  0.5060  0.2230 -0.7279
10571SOL    HW236271   5.138   0.807   1.983  0.8209  0.1587 -0.5819
10572SOL     OW36272   7.342   0.064   7.677  0.0533 -0.7975  0.0791
10572SOL    HW136273   7.262   0.027   7.713  0.3955 -2.2710 -0.6371
10572SOL    HW236274   7.402  -0.010   7.671  0.5203 -0.2924 -2.0658
10573SOL     OW36275  10.654   5.455   5.615 -0.6859  0.3296  0.1153
10573SOL    HW136276  10.651   5.378   5.558 -0.4481  0.0857  0.4194
10573SOL    HW236277  10.606   5.523   5.568 -2.0524 -0.3868  0.4241
10574SOL     OW36278   8.301  11.103   5.099 -0.3388  0.3025  0.1619
10574SOL    HW136279   8.372  11.167   5.099 -0.2815  0.3058 -1.7297
10574SOL    HW236280   8.221  11.155   5.108 -0.2312  0.5336 -0.2210
10575SOL     OW36281   7.955   2.705  11.781  0.2676 -0.0494  0.1943
10575SOL    HW136282   7.872   2.737  11.816 -0.5047 -1.0528 -0.6819
10575SOL    HW236283   7.968   2.754  11.700 -0.4104 -1.2089 -0.6281
10576SOL     OW36284  10.473  11.873   1.826  0.0323  0.0872 -0.3341
10576SOL    HW136285  10.383  11.861   1.795  1.1298 -1.8536 -3.1355
10576SOL    HW236286  10.484  11.808   1.895 -0.4557 -0.3132 -0.6279
10577SOL     OW36287   2.912   2.174   2.738  0.1795 -0.4109  0.4495
10577SOL    HW136288   2.839   2.113   2.747 -0.2875 -0.9632 -4.3705
10577SOL    HW236289   2.873   2.261   2.745 -0.1830 -0.6444  1.5936
10578SOL     OW36290  11.224   3.598  11.503 -0.2250 -0.3221  0.0386
10578SOL    HW136291  11.207   3.526  11.442 -1.9347 -0.8319  1.0469
10578SOL    HW236292  11.195   3.676  11.457 -0.5363 -0.5739 -0.1985
10579SOL     OW36293   3.582   6.931   1.554 -0.6740 -0.3858 -0.1799
10579SOL    HW136294   3.490   6.944   1.530 -0.9237  0.2824  1.0943
10579SOL    HW236295   3.585   6.843   1.593 -0.6434 -0.6382 -0.7268
10580SOL     OW36296  11.380   8.424   1.513 -0.3613  0.5128  0.3017
10580SOL    HW136297  11.349   8.511   1.486  2.1902  1.5643  0.5053
10580SOL    HW236298  11.419   8.439   1.600 -0.3859 -0.9691  0.5930
10581SOL     OW36299   4.115   4.828   4.578 -0.5143 -0.1006 -0.5976
10581SOL    HW136300   4.166   4.760   4.621 -0.4774 -0.7546 -1.6410
10581SOL    HW236301   4.033   4.786   4.554 -0.1282 -0.0752 -2.0829
10582SOL     OW36302  10.655   1.815   0.956  0.3029 -0.0332  0.1239
10582SOL    HW136303  10.659   1.733   1.005 -3.1164 -1.5021 -1.7570
10582SOL    HW236304  10.591   1.868   1.004 -0.3593 -0.0459 -0.7260
10583SOL     OW36305   1.945   7.445   2.500 -0.5919  0.0270  0.4711
10583SOL    HW136306   2.036   7.469   2.516 -0.7275  0.6176  0.3790
10583SOL    HW236307   1.918   7.399   2.579  0.4035 -2.0414 -0.3216
10584SOL     OW36308   2.341   6.510   7.825 -0.6671 -0.0451 -0.6205
10584SOL    HW136309   2.364   6.452   7.752 -0.8936 -0.3827 -0.4209
10584SOL    HW236310   2.282   6.459   7.879 -0.8396  0.3588 -0.4234
10585SOL     OW36311   2.600   1.529   3.177 -0.2751 -0.1629  0.7979
10585SOL    HW136312   2.676   1.527   3.234 -0.0909 -0.7627  0.5360
10585SOL    HW236313   2.626   1.477   3.101 -0.8973 -0.2598  0.6480
10586SOL     OW36314   1.971   4.014   8.185 -0.3586  0.2913  0.3362
10586SOL    HW136315   2.028   3.939   8.203  1.4696  1.6653  0.6379
10586SOL    HW236316   1.922   4.027   8.266 -0.5050 -0.4275  0.3656
10587SOL     OW36317   0.703   4.611   7.611 -0.3678 -0.2235 -0.0687
10587SOL    HW136318   0.608   4.621   7.612 -0.3947  0.8723 -3.0531
10587SOL    HW236319   0.717   4.526   7.568  0.0570 -0.9698  1.4645
10588SOL     OW36320   2.752   9.201   1.406 -0.7365  0.0706 -0.3432
10588SOL    HW136321   2.825   9.200   1.468  1.8131 -1.8582 -3.0724
10588SOL    HW236322   2.778   9.266   1.340 -2.5233  0.8085 -0.3897
10589SOL     OW36323   1.435  11.036   2.299  0.2719  0.1402 -0.3416
10589SOL    HW136324   1.348  10.995   2.290 -0.3230  0.9744  1.1742
10589SOL    HW236325   1.495  10.973   2.258 -0.3809 -3.1368  3.0904
10590SOL     OW36326   1.699   9.355  11.975 -0.5476  0.0757 -0.2271
10590SOL    HW136327   1.766   9.312  12.027 -0.3600 -0.3376 -0.8098
10590SOL    HW236328   1.666   9.287  11.916 -0.7525  0.5389 -0.6575
10591SOL     OW36329   2.661   8.982  10.551 -0.6227 -0.0893 -0.0182
10591SOL    HW136330   2.618   9.067  10.544  1.6023  1.1247  0.1352
10591SOL    HW236331   2.598   8.920  10.516 -2.7294  1.4657  0.8105
10592SOL     OW36332   7.990   5.993   1.672 -0.4118 -0.2833 -0.4634
10592SOL    HW136333   8.051   5.938   1.721 -1.3393 -0.4566  0.5384
10592SOL    HW236334   7.906   5.947   1.678 -0.9963  0.7750 -0.4143
10593SOL     OW36335   3.959  10.405   1.289 -0.2145  0.0504 -0.2563
10593SOL    HW136336   4.042  10.453   1.290 -0.8616  1.2205 -0.0744
10593SOL    HW236337   3.934  10.397   1.381 -0.1982 -0.4868 -0.2975
10594SOL     OW36338   3.708  11.420  10.305 -0.4191 -0.4899  0.1655
10594SOL    HW136339   3.643  11.485  10.333  0.7770  1.8550 -2.0924
10594SOL    HW236340   3.660  11.337  10.308 -2.4335  0.6084  1.9011
10595SOL     OW36341   5.967   4.281   5.056 -0.0443 -0.3017 -0.0301
10595SOL    HW136342   6.014   4.264   4.975 -1.0908  1.1573 -0.9809
10595SOL    HW236343   5.970   4.376   5.067  1.7782 -0.5527  2.7273
10596SOL     OW36344   2.772   9.745   0.404  0.1598 -0.2156 -0.1424
10596SOL    HW136345   2.748   9.823   0.354 -1.1106 -0.8618 -0.5716
10596SOL    HW236346   2.800   9.779   0.489  0.1052  0.7352 -0.4906
10597SOL     OW36347   2.085   7.962   3.530  0.4091 -0.2291  0.0721
10597SOL    HW136348   1.998   8.001   3.537  1.4273  2.1028  0.9541
10597SOL    HW236349   2.135   8.024   3.476  1.1645 -2.2819 -1.7174
10598SOL     OW36350  12.108  11.151   2.746 -0.9010  0.0164  0.3131
10598SOL    HW136351  12.135  11.237   2.713 -0.3659 -0.2072  0.1650
10598SOL    HW236352  12.190  11.107   2.767 -1.0593 -1.2559 -1.5744
10599SOL     OW36353  10.188   4.870   2.568 -0.0095  0.3415 -0.1657
10599SOL    HW136354  10.206   4.904   2.656  0.4105  1.1319 -0.5542
10599SOL    HW236355  10.268   4.822   2.544 -0.0488  0.2932 -0.2011
10600SOL     OW36356   7.906   1.134   4.956 -0.1793 -0.6110  0.3271
10600SOL    HW136357   7.867   1.115   5.041 -2.4616  3.2791  0.3972
10600SOL    HW236358   7.834   1.124   4.893  0.4996  0.0569 -0.5976
10601SOL     OW36359   0.280   1.912   8.286 -0.1699  0.8622 -0.1202
10601SOL    HW136360   0.186   1.910   8.306 -0.2186 -0.3163 -0.4042
10601SOL    HW236361   0.322   1.893   8.369 -0.2220  0.3497 -0.2094
10602SOL     OW36362   0.649   8.128   8.842  0.2446  0.4491  0.0056
10602SOL    HW136363   0.592   8.201   8.866  0.9502  1.0717 -0.1928
10602SOL    HW236364   0.737   8.160   8.858  0.5221 -0.8854  1.3686
10603SOL     OW36365   6.337   2.402   6.154 -0.3703  0.2758 -0.4685
10603SOL    HW136366   6.294   2.487   6.148 -1.0340  0.0041  0.2983
10603SOL    HW236367   6.337   2.369   6.065 -3.2167 -0.4090 -0.3030
10604SOL     OW36368   4.722   0.705  10.988  0.1432  0.0906 -0.1351
10604SOL    HW136369   4.699   0.617  10.961 -0.7371 -0.0805  1.1317
10604SOL    HW236370   4.639   0.748  11.007  0.6278  0.8138  0.4335
10605SOL     OW36371   9.490   8.122   4.648 -0.3201 -0.1351 -0.2830
10605SOL    HW136372   9.514   8.064   4.575 -0.7106 -1.0336  0.2971
10605SOL    HW236373   9.395   8.131   4.641 -0.2774  0.3188 -0.2805
10606SOL     OW36374   7.141   9.994   4.837  0.2547  0.2178 -0.5399
10606SOL    HW136375   7.140  10.088   4.859 -1.9160  0.1563 -0.2136
10606SOL    HW236376   7.074   9.984   4.770  0.2217 -1.1680 -0.3249
10607SOL     OW36377   5.975  11.348   9.768 -0.3044 -0.4346 -0.5563
10607SOL    HW136378   5.946  11.333   9.678  0.8208  0.4532 -1.0905
10607SOL    HW236379   5.922  11.422   9.799  1.4245  1.3739 -1.6287
10608SOL     OW36380   9.677   0.049   5.372  0.0228 -0.5358  0.0617
10608SOL    HW136381   9.725  -0.013   5.317 -1.6297 -2.3778  0.6066
10608SOL    HW236382   9.603   0.076   5.318 -0.6340 -0.9849  0.7253
10609SOL     OW36383   4.904   0.310   8.789 -0.1713 -0.6699  0.2811
10609SOL    HW136384   4.948   0.367   8.853 -0.3704  0.2790 -0.4091
10609SOL    HW236385   4.961   0.313   8.712 -0.8567 -0.3303 -0.2198
10610SOL     OW36386   5.505   4.487   8.486 -0.2364  0.5130 -0.2506
10610SOL    HW136387   5.429   4.434   8.510 -0.4775  0.7362 -0.5222
10610SOL    HW236388   5.510   4.480   8.390 -0.3075  1.0382 -0.2927
10611SOL     OW36389   8.107   8.284   9.424  0.1774  0.1551  0.4112
10611SOL    HW136390   8.088   8.198   9.388 -0.1421  0.7365 -0.8645
10611SOL    HW236391   8.141   8.266   9.511 -0.6378 -1.2178  0.4822
10612SOL     OW36392   3.651   5.211   4.902  0.1338 -0.1641  0.6852
10612SOL    HW136393   3.716   5.141   4.892  0.1483 -0.1436  0.6352
10612SOL    HW236394   3.573   5.167   4.935 -0.0645 -0.3111  0.0403
10613SOL     OW36395   6.816   3.580  10.287 -0.2578  0.1595  0.7750
10613SOL    HW136396   6.862   3.549  10.365 -2.2154  0.8641  2.3140
10613SOL    HW236397   6.747   3.637  10.322 -0.9575  0.8132 -1.5242
10614SOL     OW36398   0.691  11.445   6.478  0.5752  0.1026 -0.6142
10614SOL    HW136399   0.653  11.532   6.467  0.6511  0.0558 -1.2376
10614SOL    HW236400   0.676  11.425   6.571 -0.4785  0.2984 -0.7206
10615SOL     OW36401   6.826  10.258  10.451  0.0948 -0.3037 -0.2294
10615SOL    HW136402   6.776  10.332  10.417  2.0009  1.1656  0.0595
10615SOL    HW236403   6.794  10.247  10.541 -1.5847 -1.1700 -0.8765
10616SOL     OW36404   0.580   0.290   1.228  0.1648  0.1744 -0.3073
10616SOL    HW136405   0.512   0.289   1.161  0.6026  2.2235 -0.8676
10616SOL    HW236406   0.533   0.307   1.310 -0.0945  0.7827 -0.5760
10617SOL     OW36407   9.229   1.289   6.484 -0.0900  0.2993  0.6231
10617SOL    HW136408   9.285   1.333   6.548 -0.9981  0.6127  1.2399
10617SOL    HW236409   9.144   1.283   6.528 -0.3074 -0.9801  0.0719
10618SOL     OW36410  10.155   8.544   1.231 -0.0985  0.2492  0.3653
10618SOL    HW136411  10.123   8.615   1.176  0.2911  0.8310  0.8855
10618SOL    HW236412  10.116   8.465   1.193 -0.7082  0.7582 -0.0828
10619SOL     OW36413   8.791   8.564   7.827 -0.1846 -0.0460 -0.1569
10619SOL    HW136414   8.801   8.523   7.913  1.9098  1.3538  0.3447
10619SOL    HW236415   8.821   8.497   7.766 -0.9313 -0.7678  0.2377
10620SOL     OW36416   8.969   2.333   8.713  0.3822  0.3191 -0.5533
10620SOL    HW136417   8.919   2.381   8.779 -0.4579 -0.9338 -0.2209
10620SOL    HW236418   9.040   2.392   8.688  0.7321  0.8376  1.4838
10621SOL     OW36419  11.648   7.465   7.573  0.1058 -0.4903 -0.1786
10621SOL    HW136420  11.561   7.447   7.538  0.5891 -1.7705 -0.7914
10621SOL    HW236421  11.681   7.379   7.602  1.4487 -0.1650 -0.6682
10622SOL     OW36422   1.092   6.338  10.605  0.0530  0.0113 -0.3128
10622SOL    HW136423   1.098   6.358  10.698  0.7020  0.1855 -0.3824
10622SOL    HW236424   1.142   6.408  10.562  1.9085 -1.4109 -0.6070
10623SOL     OW36425   2.553  10.156   2.858 -0.0589  0.0291 -0.4691
10623SOL    HW136426   2.492  10.228   2.837  1.0586  0.8805 -0.8940
10623SOL    HW236427   2.616  10.157   2.786  0.7492 -0.5184  0.2168
10624SOL     OW36428   6.601   4.982  11.005  0.0891  0.4151  0.5130
10624SOL    HW136429   6.570   4.892  11.016 -0.5644  0.4088 -1.0715
10624SOL    HW236430   6.673   4.976  10.943 -1.3850  1.1655 -1.3711
10625SOL     OW36431   9.183  11.638   1.587 -0.3216  0.0279  0.2945
10625SOL    HW136432   9.224  11.717   1.550  0.7651 -0.4662  0.4097
10625SOL    HW236433   9.175  11.657   1.681  0.7534 -0.3179  0.4733
10626SOL     OW36434   0.527   9.635   6.454  0.2216 -0.2126  0.4255
10626SOL    HW136435   0.591   9.684   6.400  0.3904 -0.3630  0.4878
10626SOL    HW236436   0.579   9.599   6.525  0.5288 -2.3451 -0.8013
10627SOL     OW36437   6.984  10.386   8.726 -0.1806 -0.0746  0.3317
10627SOL    HW136438   6.903  10.430   8.698  0.3880 -0.1707 -1.6274
10627SOL    HW236439   7.054  10.443   8.694  0.5465 -0.5305  1.0723
10628SOL     OW36440   4.371  11.011   8.674  0.2778 -0.9457  0.0031
10628SOL    HW136441   4.353  10.970   8.589  0.5416  0.8178 -0.9496
10628SOL    HW236442   4.464  10.994   8.689  0.0509 -1.9616  0.3687
10629SOL     OW36443   5.485   0.680   8.502  0.3555  0.3417  0.2684
10629SOL    HW136444   5.569   0.726   8.501  0.4663  0.1620  0.9102
10629SOL    HW236445   5.436   0.718   8.430  0.3162  1.7296  0.9977
10630SOL     OW36446   9.100   6.020   1.003  0.6540 -0.2278  0.0591
10630SOL    HW136447   9.022   5.999   0.953  0.3099  0.7610  0.1625
10630SOL    HW236448   9.168   6.036   0.937  0.1181  1.4066 -0.1338
10631SOL     OW36449   1.456   3.008   7.289  0.4445  0.2930  0.5454
10631SOL    HW136450   1.467   3.073   7.219 -1.7370  1.4691  1.2147
10631SOL    HW236451   1.546   2.983   7.312  1.4789  3.5035  0.6079
10632SOL     OW36452   3.260   0.951   8.537 -0.0048  0.4836  0.4147
10632SOL    HW136453   3.248   0.942   8.631 -1.9767  0.3751  0.1914
10632SOL    HW236454   3.305   1.035   8.526 -1.1336  1.2478  1.3836
10633SOL     OW36455   3.285   8.593   5.381 -0.2547 -0.9803  0.4370
10633SOL    HW136456   3.193   8.588   5.406 -0.5638  0.4469 -0.3218
10633SOL    HW236457   3.296   8.526   5.314 -0.4177 -2.0018  1.3983
10634SOL     OW36458   8.916   5.779   8.150  0.2048  0.2214 -0.1679
10634SOL    HW136459   8.852   5.711   8.170  1.0075 -0.6600 -0.4927
10634SOL    HW236460   8.914   5.837   8.226 -0.8125  0.0837 -0.0828
10635SOL     OW36461  11.812   5.704  10.546 -0.4110 -0.4479 -0.8412
10635SOL    HW136462  11.810   5.628  10.489 -0.4279 -0.7925 -0.3834
10635SOL    HW236463  11.749   5.765  10.507 -1.2023 -1.0971 -0.6066
10636SOL     OW36464   1.083  11.618   2.476 -0.0032 -0.4705 -0.4258
10636SOL    HW136465   1.000  11.606   2.431  1.1099 -3.4920 -1.9134
10636SOL    HW236466   1.130  11.683   2.424 -0.7724  0.0260 -0.5098
10637SOL     OW36467   0.475   5.062  11.245 -0.0611 -0.3276 -0.2682
10637SOL    HW136468   0.502   5.039  11.334  0.9729  1.0936 -0.1752
10637SOL    HW236469   0.476   4.979  11.197 -0.2888 -1.0546  0.9562
10638SOL     OW36470   9.390   8.341   0.559  0.1674 -0.0055  0.1608
10638SOL    HW136471   9.314   8.334   0.617 -0.2617 -0.3172 -0.4317
10638SOL    HW236472   9.435   8.257   0.568  0.3656  0.1289  0.4111
10639SOL     OW36473   4.885   6.912   5.559 -0.4556 -0.1587 -0.1824
10639SOL    HW136474   4.961   6.971   5.551  0.2211 -1.1985 -1.7414
10639SOL    HW236475   4.896   6.872   5.646  1.7132 -1.4877 -0.9958
10640SOL     OW36476   8.930   0.374   8.448  0.3636 -0.3570 -0.1468
10640SOL    HW136477   8.970   0.387   8.535 -1.8925 -0.8403  1.0306
10640SOL    HW236478   8.939   0.459   8.405  1.3064 -0.0387  0.6249
10641SOL     OW36479   7.790   7.308   1.035  0.4995 -0.0630  0.2663
10641SOL    HW136480   7.799   7.213   1.046 -0.0804 -0.4455 -2.0085
10641SOL    HW236481   7.868   7.334   0.986  0.0645  0.4296 -0.1705
10642SOL     OW36482   5.544   7.490  11.126 -0.0501  0.4947  0.0026
10642SOL    HW136483   5.534   7.468  11.219  1.4531 -0.9115 -0.1252
10642SOL    HW236484   5.612   7.557  11.125 -0.8703  1.3526 -0.0299
10643SOL     OW36485   9.794   8.574   5.771 -0.7346 -0.0252  0.1838
10643SOL    HW136486   9.707   8.541   5.747 -0.4278  1.4829 -3.5280
10643SOL    HW236487   9.777   8.661   5.808 -0.8192  0.2313 -0.4542
10644SOL     OW36488   8.739   5.927  11.913 -0.1539 -0.1069 -0.1162
10644SOL    HW136489   8.820   5.976  11.895 -0.4351  0.4440  0.0889
10644SOL    HW236490   8.669   5.984  11.880 -0.5299 -0.0796  0.7027
10645SOL     OW36491   4.726   3.210   8.880  0.5946  0.1362  0.4981
10645SOL    HW136492   4.807   3.173   8.915  0.1107  0.1996  1.7267
10645SOL    HW236493   4.657   3.151   8.909  0.2992 -0.7951 -1.8315
10646SOL     OW36494   7.321   4.039   9.760 -0.2500  0.5697 -0.1531
10646SOL    HW136495   7.410   4.043   9.726 -0.3344  0.4508 -0.3970
10646SOL    HW236496   7.267   4.070   9.687 -0.6790 -2.2160 -1.1125
10647SOL     OW36497  10.022   3.962   0.664  0.0520  0.0490  0.3654
10647SOL    HW136498   9.943   3.954   0.610 -0.4164 -1.1249  1.1663
10647SOL    HW236499  10.091   3.920   0.613 -0.2976 -0.6957  0.4978
10648SOL     OW36500   3.307  11.561   3.289 -0.1613 -0.2099  0.8334
10648SOL    HW136501   3.237  11.614   3.326  0.4159  0.5428  0.8696
10648SOL    HW236502   3.326  11.495   3.355 -2.1598 -1.6720  0.0303
10649SOL     OW36503   5.248  11.733  11.884  0.1215  0.1838 -0.1536
10649SOL    HW136504   5.249  11.828  11.892  0.4707  0.2135 -0.5409
10649SOL    HW236505   5.308  11.714  11.812  0.3143 -0.3466  0.1359
10650SOL     OW36506   7.287   1.859   7.653  0.2180  0.2462  0.0840
10650SOL    HW136507   7.218   1.842   7.589  0.7004  0.8244 -0.5918
10650SOL    HW236508   7.263   1.805   7.729 -0.4923 -0.2399 -0.4809
10651SOL     OW36509   9.828   8.124   6.269  0.7921  0.2247  0.3799
10651SOL    HW136510   9.800   8.191   6.207 -0.6424 -1.2655 -0.6788
10651SOL    HW236511   9.914   8.153   6.299  1.0191  1.5910 -1.4279
10652SOL     OW36512   1.985   6.804   2.881  0.0269 -0.3350  0.0053
10652SOL    HW136513   1.976   6.734   2.946  0.8703 -1.0625 -0.6342
10652SOL    HW236514   2.066   6.783   2.835 -0.7447 -0.0603 -1.5473
10653SOL     OW36515   1.381   2.326   1.065  0.1014 -0.2733 -0.8728
10653SOL    HW136516   1.372   2.259   1.133 -0.7027 -0.5733 -1.2620
10653SOL    HW236517   1.400   2.407   1.112  1.5532 -0.8491 -0.4151
10654SOL     OW36518   1.194   2.634   9.312  0.0607  0.1950  0.2193
10654SOL    HW136519   1.128   2.570   9.288  0.2393 -0.0300  0.3328
10654SOL    HW236520   1.258   2.631   9.240 -0.7921  1.4548 -0.6401
10655SOL     OW36521   3.326   5.870   3.169  0.5802  0.3720  0.6187
10655SOL    HW136522   3.325   5.779   3.199  1.9660  0.0647 -0.1940
10655SOL    HW236523   3.239   5.884   3.131  1.2688 -1.5758 -1.9253
10656SOL     OW36524   1.642   6.854   6.184  0.0952  0.7641 -0.4161
10656SOL    HW136525   1.689   6.788   6.134 -0.1025  1.4032 -1.4599
10656SOL    HW236526   1.692   6.935   6.170 -0.0881  1.0007  0.2403
10657SOL     OW36527   1.428   6.211   7.234  0.4320 -0.3314  0.7048
10657SOL    HW136528   1.423   6.217   7.330 -0.9112 -0.3970  0.6559
10657SOL    HW236529   1.347   6.166   7.209 -0.3159  1.6467 -0.6211
10658SOL     OW36530   6.481   4.545   5.496  0.8061 -0.6443  0.2185
10658SOL    HW136531   6.552   4.570   5.555  0.9821  1.1501 -0.6585
10658SOL    HW236532   6.456   4.457   5.524  2.5377 -0.8418  1.3352
10659SOL     OW36533   9.784   1.939   0.765  0.3291 -0.0083  0.2958
10659SOL    HW136534   9.688   1.930   0.762  0.1867  1.0782  1.0687
10659SOL    HW236535   9.815   1.884   0.693 -0.9542  0.7145 -0.8512
10660SOL     OW36536  10.480   4.871   3.493  0.3329  0.0620 -0.1742
10660SOL    HW136537  10.570   4.900   3.507  0.6734 -1.0989  0.1975
10660SOL    HW236538  10.427   4.929   3.547  0.7673  1.2555 -0.9979
10661SOL     OW36539   8.076   8.807   7.251 -0.4973 -0.3828  0.6489
10661SOL    HW136540   8.098   8.856   7.331  0.3461 -0.8708  0.7263
10661SOL    HW236541   8.147   8.744   7.241  0.6084  1.1095 -1.6907
10662SOL     OW36542   9.200  11.799   3.661 -0.1531 -0.2478  0.1310
10662SOL    HW136543   9.169  11.709   3.670  0.8540 -0.6700 -0.4243
10662SOL    HW236544   9.240  11.801   3.573  1.9269  0.0589  1.0135
10663SOL     OW36545   7.233   2.078   2.691 -0.3961  0.2432  0.3407
10663SOL    HW136546   7.268   1.998   2.730 -2.6295 -0.2134  1.5601
10663SOL    HW236547   7.240   2.143   2.760  1.4983  1.2174 -0.6769
10664SOL     OW36548   9.587   6.878   2.102 -0.2105  0.2392  0.4523
10664SOL    HW136549   9.614   6.966   2.077 -0.7008  0.6254  1.2110
10664SOL    HW236550   9.638   6.858   2.180 -0.1834 -0.1019  0.3508
10665SOL     OW36551   5.828   3.857  10.738 -0.9897  0.2430  0.7276
10665SOL    HW136552   5.809   3.895  10.824 -0.6639  0.0402  0.8913
10665SOL    HW236553   5.909   3.900  10.711 -2.2150  1.9437 -0.4767
10666SOL     OW36554   3.288   1.202  11.778  0.6212  0.8214 -0.2194
10666SOL    HW136555   3.368   1.150  11.773 -0.2640 -0.8103  1.2705
10666SOL    HW236556   3.299   1.255  11.857  0.5443  1.1539 -0.4314
10667SOL     OW36557   8.008   0.954   5.997  0.2678 -0.1569  0.8920
10667SOL    HW136558   8.075   0.919   6.055  0.9688  0.5200  0.5101
10667SOL    HW236559   8.053   1.021   5.945 -0.4970 -0.2925  0.0226
10668SOL     OW36560   1.938   2.098   3.712 -0.2371  0.4505  0.1594
10668SOL    HW136561   1.969   2.028   3.771 -0.5682 -0.5299 -0.7922
10668SOL    HW236562   1.989   2.086   3.632 -0.6282  1.0162 -0.1814
10669SOL     OW36563   2.796   2.281   1.092 -0.3348  0.5839 -0.7989
10669SOL    HW136564   2.795   2.311   1.001  0.0573 -1.8230 -1.6563
10669SOL    HW236565   2.885   2.301   1.123  1.1467 -2.6854 -2.5116
10670SOL     OW36566   0.473   4.393  10.942 -1.0265  0.8143 -0.2567
10670SOL    HW136567   0.404   4.396  11.008 -1.0703  0.7453 -0.2989
10670SOL    HW236568   0.548   4.436  10.983 -1.6731  2.6538 -0.8906
10671SOL     OW36569   1.349   2.842   7.597 -0.2506  0.0615  0.4238
10671SOL    HW136570   1.258   2.819   7.582 -0.4752  1.4531 -0.4921
10671SOL    HW236571   1.399   2.772   7.555 -0.9028  0.1126 -0.4615
10672SOL     OW36572   0.948   6.089   6.500 -0.5726  0.7598  0.2320
10672SOL    HW136573   0.961   6.115   6.409  0.4363  0.8729  0.3917
10672SOL    HW236574   1.032   6.106   6.542 -0.3388 -1.2534  0.7052
10673SOL     OW36575   2.149  11.774   1.473 -0.3375 -0.0672  0.4877
10673SOL    HW136576   2.118  11.833   1.541 -0.4699  0.4398 -0.0014
10673SOL    HW236577   2.168  11.831   1.399  0.3185 -0.5458  0.2774
10674SOL     OW36578   4.725   2.461   2.514 -0.3131 -0.2352  0.4708
10674SOL    HW136579   4.768   2.544   2.492  0.7483 -0.9138 -0.1067
10674SOL    HW236580   4.699   2.424   2.429 -0.4919 -0.6470  0.7022
10675SOL     OW36581   2.097   8.402  12.024 -0.2880 -0.1275  0.3376
10675SOL    HW136582   2.094   8.497  12.009 -0.5729 -0.3531 -1.2974
10675SOL    HW236583   2.155   8.390  12.098 -1.1031  1.3999  1.2674
10676SOL     OW36584   2.859   3.724   1.243 -0.5847 -0.7538  0.2894
10676SOL    HW136585   2.776   3.686   1.270  0.4173 -2.0911  1.6563
10676SOL    HW236586   2.908   3.651   1.204 -0.6098  0.3521 -2.0102
10677SOL     OW36587   4.082   2.410   1.809  0.0967  0.0136  0.3109
10677SOL    HW136588   4.177   2.411   1.792  0.0637  0.5083  0.1403
10677SOL    HW236589   4.047   2.352   1.742  0.4241 -1.2713  1.2059
10678SOL     OW36590   0.299   4.812   7.119 -0.6384  0.3248 -0.2513
10678SOL    HW136591   0.207   4.784   7.128 -0.5718  0.3515  0.5777
10678SOL    HW236592   0.350   4.738   7.153 -0.3844  0.5883 -0.0508
10679SOL     OW36593   5.871   7.966   3.503 -0.4108  0.1541  0.3849
10679SOL    HW136594   5.812   7.928   3.567 -3.1117  1.9698 -0.8541
10679SOL    HW236595   5.830   7.949   3.419  1.3905  0.6245 -0.6465
10680SOL     OW36596   0.275   9.795   4.172 -0.6602 -0.3962  0.4790
10680SOL    HW136597   0.258   9.714   4.221  1.1727 -0.5456  0.9437
10680SOL    HW236598   0.259   9.865   4.235  0.4864 -0.5340  0.9379
10681SOL     OW36599   0.268   7.121   2.390  0.0730  0.6839 -0.2095
10681SOL    HW136600   0.232   7.142   2.303  0.9578  1.8157 -0.3286
10681SOL    HW236601   0.305   7.204   2.421  1.5381 -0.1582  0.3859
10682SOL     OW36602   7.305   6.254   9.342  0.0564  0.1666  0.6236
10682SOL    HW136603   7.366   6.289   9.407 -0.2177  0.0017  0.9712
10682SOL    HW236604   7.361   6.207   9.280  0.2338 -0.4804  1.2598
10683SOL     OW36605   9.769   8.516   8.729 -0.5327  0.2525  0.3033
10683SOL    HW136606   9.864   8.500   8.727 -0.4024  1.0471 -0.6911
10683SOL    HW236607   9.752   8.550   8.817  0.1039  0.0954  0.4925
10684SOL     OW36608   9.663   3.611   3.518 -0.3535 -0.0547 -0.6486
10684SOL    HW136609   9.662   3.668   3.441 -0.4967  0.4352 -0.2926
10684SOL    HW236610   9.756   3.593   3.533 -0.3636 -0.7055 -1.3301
10685SOL     OW36611   0.210   7.784  12.124 -0.4348  0.1369 -0.4022
10685SOL    HW136612   0.249   7.791  12.037 -1.1057  0.2639 -0.6960
10685SOL    HW236613   0.259   7.846  12.178  0.7896 -0.8110 -0.3890
10686SOL     OW36614   5.848   7.147   3.393  0.3643  0.2893  0.2866
10686SOL    HW136615   5.826   7.186   3.309  1.1194 -1.1061 -0.6064
10686SOL    HW236616   5.776   7.172   3.451 -0.1915  1.2479 -0.7695
10687SOL     OW36617  10.636  11.068   8.572  0.3700  0.0528  0.4299
10687SOL    HW136618  10.719  11.108   8.544  0.5302 -0.4228  0.2184
10687SOL    HW236619  10.654  10.974   8.575  0.1426  0.0330  1.4409
10688SOL     OW36620  11.084   6.188   8.521 -0.4061 -0.2554 -0.5178
10688SOL    HW136621  10.997   6.205   8.557 -0.5520 -1.4006 -0.2898
10688SOL    HW236622  11.091   6.092   8.521  1.6314 -0.1587  1.3318
10689SOL     OW36623   1.959  10.830   1.408  0.5336  0.8443 -0.6713
10689SOL    HW136624   1.986  10.867   1.325  1.4343 -0.2073 -0.8804
10689SOL    HW236625   2.030  10.851   1.469  0.7076  0.1293 -0.6138
10690SOL     OW36626   4.918   2.786   8.655 -0.3805  0.4634 -0.0699
10690SOL    HW136627   4.984   2.813   8.720 -0.4257 -0.1717  0.2484
10690SOL    HW236628   4.838   2.775   8.707 -0.4527  0.0914 -0.2642
10691SOL     OW36629   2.731  11.123  11.542  0.0749  0.2847 -0.4668
10691SOL    HW136630   2.729  11.080  11.457  0.2527  1.4266 -1.0712
10691SOL    HW236631   2.642  11.153  11.556 -0.2053 -0.8252  0.2631
10692SOL     OW36632  11.557   2.706   8.420 -0.4473  0.3455  0.1426
10692SOL    HW136633  11.627   2.656   8.377  0.2475  0.8789  0.6300
10692SOL    HW236634  11.579   2.797   8.404 -0.1439  0.5625  1.6208
10693SOL     OW36635  10.477  11.926  11.168 -0.0621  0.1386 -0.3565
10693SOL    HW136636  10.452  11.858  11.106 -1.6738  0.3510  0.0181
10693SOL    HW236637  10.398  11.942  11.220  1.0672  0.3649  1.3870
10694SOL     OW36638   1.281  10.230   6.738  0.0676 -0.5437  0.0437
10694SOL    HW136639   1.254  10.252   6.650 -2.3726  2.2294  1.3515
10694SOL    HW236640   1.251  10.140   6.750 -2.0421 -0.0528 -1.0828
10695SOL     OW36641   4.938   6.221   6.473 -0.1664  0.3157  0.0714
10695SOL    HW136642   4.996   6.227   6.398 -0.0783  2.9194  0.2750
10695SOL    HW236643   4.850   6.226   6.437 -0.1998 -0.4113  0.0258
10696SOL     OW36644   5.533   2.785   9.789 -0.1099 -0.9195 -0.3369
10696SOL    HW136645   5.618   2.829   9.780 -0.3574 -0.0550  1.1908
10696SOL    HW236646   5.478   2.848   9.836 -1.8601 -1.1715 -1.9431
10697SOL     OW36647   7.671   9.413   3.271  0.4649  0.3463 -0.3014
10697SOL    HW136648   7.743   9.360   3.238  1.3192  2.3083 -1.7512
10697SOL    HW236649   7.698   9.438   3.360  1.6685  1.1720 -0.8819
10698SOL     OW36650   6.058   4.028   6.862  0.1655 -0.5883 -0.4410
10698SOL    HW136651   6.084   4.119   6.874  0.6794 -0.9295  1.3160
10698SOL    HW236652   6.087   4.006   6.774  2.4812  0.1554  0.0852
10699SOL     OW36653  12.015   3.503   5.453 -0.7097  0.3471  0.0063
10699SOL    HW136654  12.017   3.510   5.358 -0.5105  2.4560  0.1174
10699SOL    HW236655  12.079   3.434   5.473 -1.3525 -0.7036 -1.3966
10700SOL     OW36656   9.279   0.515  10.919  0.4042  0.1695  0.4011
10700SOL    HW136657   9.253   0.543  10.831 -0.0185 -1.7520 -0.1351
10700SOL    HW236658   9.279   0.419  10.914  0.8711  0.0367  2.3648
10701SOL     OW36659  11.108   3.178   4.310  0.1276 -0.5357  0.3990
10701SOL    HW136660  11.035   3.204   4.254  2.5643  1.1242 -2.3000
10701SOL    HW236661  11.125   3.087   4.286  0.3299 -0.2326 -0.6762
10702SOL     OW36662   7.135   1.731  10.740  0.2991 -0.1769  0.3640
10702SOL    HW136663   7.058   1.728  10.797 -0.5039  3.1345 -0.2907
10702SOL    HW236664   7.103   1.702  10.655 -0.2126  0.9575  0.1523
10703SOL     OW36665   5.271   2.817   3.265  0.2268 -0.0341 -0.2806
10703SOL    HW136666   5.196   2.838   3.209  0.4864  1.6872 -0.0228
10703SOL    HW236667   5.344   2.865   3.226  0.4111  1.2424  1.5122
10704SOL     OW36668   6.880   9.959   2.265  0.0452 -0.1352 -0.2113
10704SOL    HW136669   6.889   9.878   2.316  1.5255 -0.2942 -0.6840
10704SOL    HW236670   6.946  10.017   2.301 -1.7530  1.3353  0.8925
10705SOL     OW36671   5.327   3.898   2.285 -0.1400 -0.5105  0.0285
10705SOL    HW136672   5.338   3.898   2.380 -0.4533 -0.3079  0.0651
10705SOL    HW236673   5.268   3.825   2.268 -1.2405  0.3376  0.1283
10706SOL     OW36674   6.415   3.530   2.831 -0.1971  0.1108  0.3153
10706SOL    HW136675   6.422   3.458   2.894 -0.9292 -0.6944 -0.5007
10706SOL    HW236676   6.435   3.490   2.746  0.4006  1.0958 -0.0236
10707SOL     OW36677   8.069   4.103   9.392  0.5118  0.0119  0.0032
10707SOL    HW136678   8.120   4.166   9.340  0.0757 -0.2457 -0.7537
10707SOL    HW236679   8.006   4.067   9.330 -1.3405  1.1092  1.1684
10708SOL     OW36680  10.279   0.368   1.242  0.5581 -0.2547  0.0618
10708SOL    HW136681  10.347   0.303   1.226  0.7528  0.1982 -1.0963
10708SOL    HW236682  10.278   0.421   1.162 -0.7983  0.0743  0.2773
10709SOL     OW36683   0.821   3.402   7.263 -0.4909 -0.1302  0.2608
10709SOL    HW136684   0.822   3.428   7.355  3.2852  0.8572  0.0918
10709SOL    HW236685   0.782   3.477   7.218  0.2854  0.6215  0.8088
10710SOL     OW36686  11.031   9.136  10.499 -0.4288  0.2433 -0.1096
10710SOL    HW136687  11.059   9.058  10.451  1.6390  0.2345  1.0230
10710SOL    HW236688  11.073   9.209  10.453 -0.2091  0.4424  0.4079
10711SOL     OW36689   5.654   9.021   0.259  0.6622  0.0233  0.1125
10711SOL    HW136690   5.721   8.969   0.303 -0.0726 -0.2157  0.9786
10711SOL    HW236691   5.622   9.081   0.327 -3.1445 -2.8193  1.1570
10712SOL     OW36692   5.857   0.918   4.228 -0.1781  0.2452 -0.0894
10712SOL    HW136693   5.793   0.853   4.199 -0.5886  1.1946 -1.4162
10712SOL    HW236694   5.941   0.881   4.202 -0.2462 -0.5449  0.7537
10713SOL     OW36695   0.132   2.772   8.380 -0.0606  0.0952 -0.4439
10713SOL    HW136696   0.056   2.725   8.416 -0.6356 -0.5741 -2.3765
10713SOL    HW236697   0.205   2.747   8.437 -0.9438 -0.7449  0.3647
10714SOL     OW36698   4.036  11.270   9.075  0.1792 -0.0144  0.3955
10714SOL    HW136699   4.012  11.241   8.987  1.9359 -0.2618 -0.0479
10714SOL    HW236700   3.971  11.229   9.132 -1.0606  0.2378 -0.7664
10715SOL     OW36701   2.160  10.993   3.495 -0.1666 -0.1683  0.2432
10715SOL    HW136702   2.202  10.957   3.574 -0.9074 -0.9482  0.3006
10715SOL    HW236703   2.068  11.002   3.520 -0.0122  1.7598  0.2016
10716SOL     OW36704   3.005   2.067   8.801  0.5445  0.4532  0.0285
10716SOL    HW136705   2.983   2.129   8.731 -1.8140 -1.3384 -0.9364
10716SOL    HW236706   3.083   2.022   8.769 -0.4007 -0.2177 -1.4254
10717SOL     OW36707   9.263   6.364   1.721 -0.2767  0.2893  0.2092
10717SOL    HW136708   9.190   6.311   1.755  0.0163 -0.7540 -0.7268
10717SOL    HW236709   9.232   6.396   1.637  0.1194  0.3532  0.0881
10718SOL     OW36710   6.139   3.003  11.746  0.3025  0.4883  0.7418
10718SOL    HW136711   6.192   2.978  11.670  0.1058 -0.5237  0.9232
10718SOL    HW236712   6.058   2.953  11.735  0.1349  0.6047  1.4337
10719SOL     OW36713   7.822   7.452   1.896  0.0120 -0.3353 -0.0191
10719SOL    HW136714   7.907   7.414   1.874  0.7880  0.6598  1.1523
10719SOL    HW236715   7.814   7.528   1.838 -0.2991 -0.6823 -0.4408
10720SOL     OW36716  10.697   9.014   7.039 -0.0991  0.0731 -0.2917
10720SOL    HW136717  10.629   9.012   6.971 -0.4453  1.5413 -0.0167
10720SOL    HW236718  10.737   8.927   7.035 -2.2683 -1.0182 -0.1898
10721SOL     OW36719   6.407   7.584   5.438  0.5256  0.2890 -0.1151
10721SOL    HW136720   6.456   7.617   5.513 -0.3463 -2.2159  1.7202
10721SOL    HW236721   6.315   7.595   5.463  0.1775  0.8592 -1.5496
10722SOL     OW36722   6.754   6.022   0.348  0.2134  0.0772  0.0290
10722SOL    HW136723   6.725   6.112   0.361  0.4104 -0.0613  1.6480
10722SOL    HW236724   6.735   5.978   0.432 -0.3739 -1.5228 -0.8927
10723SOL     OW36725   9.934   9.706   7.349 -0.5551 -0.5981 -0.3701
10723SOL    HW136726   9.937   9.792   7.391 -0.1050 -0.6189 -0.3471
10723SOL    HW236727   9.875   9.717   7.275  1.1180  0.3319 -1.6439
10724SOL     OW36728  11.241   7.285   4.711  0.4585 -1.1140 -0.0230
10724SOL    HW136729  11.230   7.222   4.640  1.5561 -1.8782  0.4617
10724SOL    HW236730  11.333   7.277   4.737  1.0404  1.6410 -0.8182
10725SOL     OW36731   1.896  10.811  11.505 -0.1142 -0.3990 -0.0324
10725SOL    HW136732   1.809  10.828  11.542 -0.6713  0.1728 -1.5434
10725SOL    HW236733   1.881  10.742  11.440  0.7539 -1.0066  0.3955
10726SOL     OW36734   6.197   8.750   3.231 -0.4351 -0.2276 -0.1228
10726SOL    HW136735   6.254   8.796   3.293  0.8447 -2.4017  0.4129
10726SOL    HW236736   6.226   8.782   3.145 -0.0144  0.4393  0.2556
10727SOL     OW36737  10.036   2.976  10.271 -0.0049 -0.2796  0.0250
10727SOL    HW136738  10.009   3.048  10.328 -1.9784  0.3483 -1.5811
10727SOL    HW236739  10.130   2.967  10.286 -0.3361  0.1684  2.9479
10728SOL     OW36740  12.082  12.093  10.018  0.3293  0.1062 -0.3401
10728SOL    HW136741  12.037  12.164   9.972 -0.0705 -0.9443 -1.6608
10728SOL    HW236742  12.162  12.133  10.053  0.2485  1.1388 -1.2754
10729SOL     OW36743   1.206   6.177   6.631 -0.4362 -0.0818  0.2971
10729SOL    HW136744   1.225   6.136   6.715 -0.9782 -1.4762 -0.2397
10729SOL    HW236745   1.290   6.182   6.587 -0.4991 -1.6952 -0.0768
10730SOL     OW36746   3.809   7.963   9.471 -0.3447 -0.3046  0.6805
10730SOL    HW136747   3.862   7.917   9.536 -1.6030 -1.1981  1.1256
10730SOL    HW236748   3.790   8.047   9.512 -1.0077 -0.8040  1.4390
10731SOL     OW36749  11.751   1.544  11.461 -0.0046 -0.4262  0.2490
10731SOL    HW136750  11.758   1.472  11.399  2.2781  0.7517 -1.0126
10731SOL    HW236751  11.837   1.547  11.503 -0.4454  0.8395  1.1178
10732SOL     OW36752   7.312   2.504  10.903  0.2178 -0.2703 -0.4439
10732SOL    HW136753   7.264   2.522  10.822 -0.6871 -0.5084  0.0238
10732SOL    HW236754   7.340   2.590  10.933  0.6958 -0.1944 -1.0884
10733SOL     OW36755   0.597  11.046   1.085 -0.2676 -0.4196  0.4227
10733SOL    HW136756   0.682  11.088   1.090 -1.0657  1.3357 -0.1720
10733SOL    HW236757   0.613  10.957   1.118  1.8152 -0.2182  0.1020
10734SOL     OW36758   3.977   4.504   1.530 -0.0697  0.1166  0.1089
10734SOL    HW136759   3.967   4.432   1.591  0.4961 -0.5788 -0.5972
10734SOL    HW236760   4.022   4.466   1.454  2.4816  1.7073  0.6960
10735SOL     OW36761   1.959  10.617   7.083 -0.0485  0.6755  0.5932
10735SOL    HW136762   1.882  10.565   7.061  0.5370  0.0024  0.0984
10735SOL    HW236763   1.967  10.609   7.178  1.0988 -1.7113  0.3549
10736SOL     OW36764   9.953   3.279   9.393  0.0574 -0.0808 -0.4693
10736SOL    HW136765   9.906   3.337   9.454  1.9302  2.6006 -1.3461
10736SOL    HW236766  10.039   3.320   9.385  0.7901 -1.9187 -2.7899
10737SOL     OW36767   3.822   1.893   2.164 -0.5156  0.4267  0.2907
10737SOL    HW136768   3.891   1.830   2.187 -0.3415  0.5375  0.0751
10737SOL    HW236769   3.792   1.866   2.077 -2.3388 -1.0059  1.2866
10738SOL     OW36770   6.004   0.770   1.552 -0.6899  0.1198  0.0047
10738SOL    HW136771   6.003   0.676   1.534  0.8063  0.3322 -1.4215
10738SOL    HW236772   6.078   0.782   1.611 -1.1976  0.3389  0.5978
10739SOL     OW36773   7.944  11.906   2.671 -0.1082 -0.3500 -0.3032
10739SOL    HW136774   7.864  11.951   2.698  0.4781 -0.6973  2.3002
10739SOL    HW236775   7.920  11.813   2.673 -0.2325 -0.3655 -1.7659
10740SOL     OW36776   4.491   5.782   9.708  0.4128 -0.7675 -0.0934
10740SOL    HW136777   4.480   5.720   9.779 -0.7604  0.2483  0.6535
10740SOL    HW236778   4.490   5.868   9.750 -0.6860 -0.1237 -1.3601
10741SOL     OW36779   9.523   7.611   2.784 -0.2360  0.1217 -0.7742
10741SOL    HW136780   9.542   7.703   2.765 -0.3416 -0.2246 -2.7315
10741SOL    HW236781   9.534   7.604   2.879  0.4523  1.9887 -0.6661
10742SOL     OW36782   8.039   6.986   8.952  0.5820 -0.1202 -0.1780
10742SOL    HW136783   8.003   7.057   8.898  0.0350  1.1472  1.7426
10742SOL    HW236784   7.962   6.948   8.995  1.2551  1.8230  3.0471
10743SOL     OW36785   4.067   7.436   5.263  0.0995  0.1197  0.3221
10743SOL    HW136786   3.985   7.479   5.288  0.1761  0.2709  0.3116
10743SOL    HW236787   4.135   7.499   5.285  0.3237 -0.5151  1.5691
10744SOL     OW36788   3.335   7.066   9.028 -0.4856  0.1680 -0.2477
10744SOL    HW136789   3.400   7.069   8.958 -1.0666  2.5993 -0.7735
10744SOL    HW236790   3.255   7.033   8.985 -0.5417  0.5990 -0.4826
10745SOL     OW36791   9.430   8.684  11.336 -0.5047 -0.1929  0.4298
10745SOL    HW136792   9.354   8.641  11.374  1.3571 -1.4405  3.0985
10745SOL    HW236793   9.501   8.665  11.397  1.6808  2.0463 -1.1965
10746SOL     OW36794   9.708   6.642  10.588  0.0387 -0.3876  0.0285
10746SOL    HW136795   9.717   6.546  10.583  0.1042 -0.3201 -1.7599
10746SOL    HW236796   9.793   6.672  10.622 -0.6288 -1.0499  2.4362
10747SOL     OW36797   8.989   1.781   9.027  0.0124 -0.0128  0.3406
10747SOL    HW136798   9.000   1.875   9.017  2.1833  0.1343  2.9476
10747SOL    HW236799   9.042   1.743   8.956  0.8928  0.7744  0.5488
10748SOL     OW36800   9.180   4.107   2.096 -0.3510  0.3046  0.3940
10748SOL    HW136801   9.105   4.058   2.129 -0.5242  0.5553  0.3795
10748SOL    HW236802   9.146   4.196   2.085  0.2014  0.6377  1.3063
10749SOL     OW36803  11.430   2.967  11.321 -0.8624  0.0757 -0.3763
10749SOL    HW136804  11.354   2.909  11.329  0.5932 -1.9854 -0.6907
10749SOL    HW236805  11.435   2.989  11.228 -1.3852  0.6874 -0.2649
10750SOL     OW36806   9.839   3.942   0.229 -0.0456  0.3840  0.0594
10750SOL    HW136807   9.756   3.982   0.202  0.9156  2.4501 -0.0068
10750SOL    HW236808   9.858   3.878   0.161 -0.9014  0.8651 -0.6594
10751SOL     OW36809   5.344  10.455   0.489  0.0857 -0.1123  0.3087
10751SOL    HW136810   5.394  10.485   0.413 -0.5785  0.1347 -0.0446
10751SOL    HW236811   5.385  10.372   0.514  0.6780  0.0946  0.0435
10752SOL     OW36812   7.503   7.865   6.348 -0.0625 -0.3123  0.1148
10752SOL    HW136813   7.546   7.828   6.425  2.5290 -1.5024 -1.7860
10752SOL    HW236814   7.442   7.797   6.320  0.7910 -0.9308 -0.2777
10753SOL     OW36815  11.045   7.396   7.577 -0.5059  0.1797 -0.2111
10753SOL    HW136816  11.081   7.484   7.563 -0.4539  0.0316 -1.1078
10753SOL    HW236817  11.083   7.343   7.507 -0.2410 -0.6537  0.5410
10754SOL     OW36818   8.718   2.896   0.523  0.6784  0.2539 -0.8101
10754SOL    HW136819   8.807   2.863   0.514  1.2676  0.6854  2.2795
10754SOL    HW236820   8.712   2.969   0.461  2.0224 -0.5523 -1.9376
10755SOL     OW36821   6.510   6.257   2.380  0.0618  0.6336  0.4401
10755SOL    HW136822   6.497   6.194   2.451 -1.8809  1.1965  0.6310
10755SOL    HW236823   6.523   6.203   2.302  2.0242  0.0114  1.1387
10756SOL     OW36824   7.717   9.768   5.124  0.2420  0.2482 -0.0161
10756SOL    HW136825   7.668   9.791   5.045  0.8982  0.7005 -0.2901
10756SOL    HW236826   7.652   9.724   5.180 -0.2196 -0.1001 -0.8093
10757SOL     OW36827   7.590   9.913   7.278 -0.8029 -0.6376  0.6384
10757SOL    HW136828   7.562   9.995   7.317 -1.0502 -0.0738 -0.6985
10757SOL    HW236829   7.656   9.879   7.338 -0.4030  0.7406  0.9914
10758SOL     OW36830   1.889   4.375   9.750 -0.2481  0.3753  0.0892
10758SOL    HW136831   1.917   4.467   9.747  0.6725  0.0884 -1.2069
10758SOL    HW236832   1.955   4.329   9.699 -1.2571 -0.8604 -0.1428
10759SOL     OW36833   7.445   9.327   6.199  0.0652  0.2364 -0.9609
10759SOL    HW136834   7.493   9.301   6.121 -0.8565 -1.3213 -1.0583
10759SOL    HW236835   7.470   9.263   6.265 -0.2521  0.6770 -0.4075
10760SOL     OW36836   0.069   9.061   2.251 -0.1780 -0.0924 -0.1417
10760SOL    HW136837   0.089   9.150   2.281  0.3334 -0.5195  0.8336
10760SOL    HW236838   0.152   9.014   2.256 -0.7724 -1.0912  1.0807
10761SOL     OW36839   5.900  11.707   9.492 -0.0212 -0.6847 -0.1101
10761SOL    HW136840   5.990  11.683   9.513 -0.7771 -1.5033  2.6339
10761SOL    HW236841   5.856  11.624   9.476 -0.3660 -0.3019 -1.2349
10762SOL     OW36842   5.913   9.062   1.170  0.2650  0.5575 -0.1006
10762SOL    HW136843   5.964   9.138   1.198  1.8599 -0.9575  1.3030
10762SOL    HW236844   5.977   9.006   1.126 -0.7797 -0.2124 -0.6689
10763SOL     OW36845   9.285   3.583   3.699 -0.1843 -0.2632  0.1620
10763SOL    HW136846   9.275   3.497   3.742  0.2761 -0.8421 -0.8509
10763SOL    HW236847   9.213   3.636   3.734 -0.8753 -1.2651  0.3051
10764SOL     OW36848   5.991   0.568   0.446 -0.2043 -0.4762  0.2413
10764SOL    HW136849   6.025   0.489   0.489 -1.8737 -0.7117  1.1992
10764SOL    HW236850   6.050   0.581   0.372  2.8695  0.0012  2.5773
10765SOL     OW36851   4.384  11.151   6.624 -0.2569 -0.2174 -0.1785
10765SOL    HW136852   4.394  11.142   6.719 -1.7472  1.3640  0.1945
10765SOL    HW236853   4.473  11.165   6.592  0.3590 -1.5230  0.8703
10766SOL     OW36854   1.135   9.840   4.116  0.0510 -0.0765  0.4300
10766SOL    HW136855   1.113   9.771   4.053  0.6768 -2.7765  2.9160
10766SOL    HW236856   1.210   9.885   4.078  0.5551 -1.7479 -0.6761
10767SOL     OW36857   5.389  10.759  11.523  0.0354 -0.0722  0.0143
10767SOL    HW136858   5.307  10.781  11.479 -0.3380 -0.3939  0.5240
10767SOL    HW236859   5.443  10.720  11.455  0.1578  1.0750 -0.5587
10768SOL     OW36860   1.519   4.757   3.691 -0.9126 -0.3331 -0.0823
10768SOL    HW136861   1.545   4.670   3.720  1.9933  0.4559  0.0467
10768SOL    HW236862   1.455   4.787   3.756 -1.1361 -1.9498  0.4717
10769SOL     OW36863  12.120   0.817  11.192 -0.3652  0.3299 -0.5480
10769SOL    HW136864  12.076   0.862  11.264 -0.8894 -0.0638 -0.6146
10769SOL    HW236865  12.211   0.844  11.200 -0.5439  0.8676 -0.1801
10770SOL     OW36866   5.618  10.549   8.779 -0.5668 -0.3246  0.7723
10770SOL    HW136867   5.580  10.479   8.727  0.2605 -0.2843  0.0995
10770SOL    HW236868   5.542  10.592   8.820 -1.3789  0.4127 -1.3420
10771SOL     OW36869   9.803   6.276   3.714 -0.2394 -0.0699 -0.2696
10771SOL    HW136870   9.787   6.340   3.783 -0.7460 -0.6669  0.1758
10771SOL    HW236871   9.849   6.325   3.646  0.1975  0.5459  0.4550
10772SOL     OW36872   2.934  11.701   6.139 -0.1649 -0.3192 -0.2089
10772SOL    HW136873   2.888  11.639   6.195 -0.6018 -0.4497 -0.7034
10772SOL    HW236874   3.021  11.664   6.129  0.5470  0.6254  1.8743
10773SOL     OW36875  10.765  11.275   7.358 -0.3960  0.0428 -0.1340
10773SOL    HW136876  10.820  11.255   7.434 -0.6941  0.9075  0.3248
10773SOL    HW236877  10.720  11.193   7.339 -1.0996  0.0708  1.2784
10774SOL     OW36878  11.392   8.097   5.947 -0.1001 -0.1727  0.3045
10774SOL    HW136879  11.310   8.078   5.901 -0.9848  0.1115  1.7141
10774SOL    HW236880  11.457   8.040   5.905 -1.0054 -0.4085 -0.8242
10775SOL     OW36881   6.880  10.544   1.637 -0.1424 -0.0912  0.1602
10775SOL    HW136882   6.963  10.496   1.642 -0.7907 -1.3025 -0.3528
10775SOL    HW236883   6.848  10.528   1.548 -2.4120 -2.2402  1.2574
10776SOL     OW36884   7.464   0.277   2.284 -0.1225  0.1920 -0.1227
10776SOL    HW136885   7.543   0.235   2.249 -0.4805  0.3282 -1.1066
10776SOL    HW236886   7.409   0.293   2.208 -1.3489 -0.3957  0.6116
10777SOL     OW36887   7.216   9.910   8.096 -0.0827  0.2855  0.0089
10777SOL    HW136888   7.274   9.844   8.057  1.8154  2.7434 -1.7036
10777SOL    HW236889   7.248   9.919   8.186  0.3037 -0.4324 -0.0477
10778SOL     OW36890   9.709   3.317   8.393  0.1544  0.0377 -0.3092
10778SOL    HW136891   9.774   3.322   8.463 -1.3986 -0.4734  1.2329
10778SOL    HW236892   9.756   3.280   8.319  2.4062  2.5320 -0.2927
10779SOL     OW36893  11.204   3.658   7.621 -0.6045  0.2034 -0.7426
10779SOL    HW136894  11.251   3.593   7.568 -0.0289 -1.0656  1.2220
10779SOL    HW236895  11.265   3.732   7.626 -0.0948 -0.2078 -0.7408
10780SOL     OW36896   4.320  11.802   9.803  0.3665  0.1878  0.6337
10780SOL    HW136897   4.296  11.711   9.789 -0.3249  0.4756 -0.1908
10780SOL    HW236898   4.246  11.852   9.768 -0.2153  1.0517  2.9029
10781SOL     OW36899   6.403   4.063   1.145 -0.2065 -0.4196  0.0857
10781SOL    HW136900   6.335   4.124   1.116 -0.0465  0.2152  0.9850
10781SOL    HW236901   6.394   4.060   1.240  1.5205  0.3208  0.3172
10782SOL     OW36902   0.214  11.459   0.360 -0.2529  0.3146  0.3656
10782SOL    HW136903   0.183  11.493   0.444  0.0481  1.0063  0.1974
10782SOL    HW236904   0.229  11.536   0.306 -1.2669 -0.1421 -0.6237
10783SOL     OW36905   3.825  10.370   4.777 -0.3042  0.0644 -0.0371
10783SOL    HW136906   3.838  10.342   4.868 -0.6223 -2.1184 -0.6272
10783SOL    HW236907   3.731  10.391   4.772  0.0934  2.2625  0.6295
10784SOL     OW36908   8.029   6.068   0.426  0.0213 -0.2087  0.1348
10784SOL    HW136909   8.107   6.066   0.481 -0.9625 -0.5718  1.5618
10784SOL    HW236910   7.977   5.994   0.456 -1.4442  0.7692  0.0688
10785SOL     OW36911   3.104   6.920   9.253  0.3586 -0.6433 -0.1074
10785SOL    HW136912   3.089   7.012   9.273  0.0018 -0.6897 -0.1656
10785SOL    HW236913   3.114   6.918   9.158  0.7057 -0.6174 -0.0731
10786SOL     OW36914   3.794  10.312   2.479  0.1071 -0.1600 -0.2862
10786SOL    HW136915   3.875  10.278   2.517 -0.4067  1.1221  2.2655
10786SOL    HW236916   3.811  10.405   2.466 -0.8436  0.0811  0.0578
10787SOL     OW36917   1.558   0.787   3.028  0.1420 -0.6883  0.2722
10787SOL    HW136918   1.645   0.809   2.995 -0.0898  0.2105  0.2534
10787SOL    HW236919   1.575   0.724   3.099  0.8144 -0.4053  0.3722
10788SOL     OW36920   2.099   5.481   5.255 -0.0979  0.3136  0.5241
10788SOL    HW136921   2.179   5.430   5.243 -0.3333  0.3974 -2.0426
10788SOL    HW236922   2.036   5.419   5.291  0.7989 -0.0550  1.4754
10789SOL     OW36923   0.273   7.091   2.859  0.4328  0.5468 -0.1571
10789SOL    HW136924   0.330   7.061   2.930 -1.9358 -1.2871  1.0945
10789SOL    HW236925   0.283   7.024   2.791  0.3445  0.6473 -0.2694
10790SOL     OW36926   4.926  11.587   7.856 -0.6155 -0.7175  0.2539
10790SOL    HW136927   4.974  11.670   7.853 -1.0512 -0.4922 -1.3968
10790SOL    HW236928   4.978  11.527   7.803 -0.2215 -1.5770  1.5600
10791SOL     OW36929   7.742   5.907   3.983 -0.7682 -0.0705 -0.3451
10791SOL    HW136930   7.695   5.844   3.929 -0.3658  0.3260 -1.1770
10791SOL    HW236931   7.775   5.856   4.057  0.0311 -0.9646 -1.2905
10792SOL     OW36932   2.887   6.247   7.731  0.2062  0.1987 -0.1088
10792SOL    HW136933   2.981   6.229   7.732  0.1980  0.1621  0.1988
10792SOL    HW236934   2.880   6.339   7.708  0.3592  0.4255  0.7307
10793SOL     OW36935  11.593  11.164   4.777 -0.2049  0.4684  0.3928
10793SOL    HW136936  11.621  11.101   4.711 -0.2433  0.3380  0.4998
10793SOL    HW236937  11.643  11.243   4.758 -0.9147  0.7469 -0.3860
10794SOL     OW36938   8.436   2.676   9.015 -0.0357  0.4625  0.0304
10794SOL    HW136939   8.408   2.596   9.059  0.5436  0.9655  1.3640
10794SOL    HW236940   8.398   2.670   8.927 -1.6933 -0.2949  0.7704
10795SOL     OW36941   1.170  11.132   4.643 -0.8659 -0.1952  0.6692
10795SOL    HW136942   1.101  11.132   4.709 -1.5684 -0.6510 -0.0400
10795SOL    HW236943   1.123  11.129   4.560 -0.0307  1.4760  0.0926
10796SOL     OW36944   4.517   1.014   1.442  0.0206 -0.3876  0.2358
10796SOL    HW136945   4.575   1.063   1.384 -0.9499  0.6617  0.1215
10796SOL    HW236946   4.572   0.945   1.479  1.2260  0.3450 -0.1635
10797SOL     OW36947  11.991   0.742   4.574 -0.3377  0.2178 -0.0348
10797SOL    HW136948  11.971   0.807   4.507 -1.1509  0.0346  0.0119
10797SOL    HW236949  12.043   0.789   4.639  0.8505  0.2766 -1.0074
10798SOL     OW36950  11.675   9.207   1.843  0.3992 -0.2141 -0.1307
10798SOL    HW136951  11.604   9.155   1.805 -0.2801 -0.3984  1.3300
10798SOL    HW236952  11.752   9.150   1.834  0.0641 -0.6466 -0.3559
10799SOL     OW36953  11.866   1.740   9.195 -0.0442  0.2899  0.0833
10799SOL    HW136954  11.946   1.745   9.141  0.1788  1.1367  0.4736
10799SOL    HW236955  11.898   1.731   9.285 -0.4184 -1.2933  0.0985
10800SOL     OW36956   1.235   3.302   0.516  0.5588  0.4413  0.4502
10800SOL    HW136957   1.260   3.219   0.556  0.1415 -0.1791 -0.5272
10800SOL    HW236958   1.144   3.290   0.488  0.6406  1.0481 -0.1287
10801SOL     OW36959   8.397   0.961   0.924  0.3121  0.1277  0.7064
10801SOL    HW136960   8.450   0.958   0.845 -0.8868 -0.1933 -0.1018
10801SOL    HW236961   8.347   1.042   0.918  0.0323 -0.0171  1.0202
10802SOL     OW36962  12.004   2.119   4.457 -0.5188 -0.7743 -0.4801
10802SOL    HW136963  12.020   2.212   4.471 -1.1287 -0.9385  1.5563
10802SOL    HW236964  12.091   2.080   4.449 -0.2301 -0.1840 -0.2062
10803SOL     OW36965   4.395   3.758   4.505 -0.2808 -0.4413 -0.5928
10803SOL    HW136966   4.349   3.728   4.584  1.7290 -2.0773  0.0388
10803SOL    HW236967   4.437   3.840   4.532 -1.5432  0.2814 -0.7352
10804SOL     OW36968  10.863   8.023   9.029  0.5059 -0.2005 -0.2185
10804SOL    HW136969  10.823   7.979   9.103  0.6574 -0.1474 -0.1030
10804SOL    HW236970  10.809   8.101   9.015  0.3948 -0.2836 -0.2559
10805SOL     OW36971  12.090   6.443   4.344  0.2503  0.0969  0.2885
10805SOL    HW136972  12.108   6.453   4.250  1.7039  1.4309  0.6541
10805SOL    HW236973  12.127   6.522   4.384 -0.2292 -0.4980  2.0087
10806SOL     OW36974   2.954   1.211   2.804 -0.0559 -0.1498  0.2132
10806SOL    HW136975   2.896   1.222   2.729 -1.8826  0.3882  1.6168
10806SOL    HW236976   3.038   1.184   2.766 -1.0969 -0.6111 -1.9423
10807SOL     OW36977  11.012   7.033   0.811 -0.3922  0.1056  0.8839
10807SOL    HW136978  10.993   7.097   0.742  1.2731 -1.3476 -1.0232
10807SOL    HW236979  11.062   6.965   0.768  0.2182 -1.1937  3.4463
10808SOL     OW36980   0.233   5.752   9.785  0.7152  0.4096  0.0630
10808SOL    HW136981   0.317   5.711   9.763  0.4519  0.3461 -0.8604
10808SOL    HW236982   0.184   5.752   9.703 -0.8746 -1.1369  0.9541
10809SOL     OW36983  11.128  10.751   2.529 -0.0803  0.4218  0.4311
10809SOL    HW136984  11.139  10.742   2.624  1.2443  1.4311  0.4052
10809SOL    HW236985  11.034  10.762   2.517 -0.2535  0.4487  1.6387
10810SOL     OW36986   9.454   2.702   6.364 -0.1830  0.4942  0.1152
10810SOL    HW136987   9.380   2.697   6.424  0.1706 -2.4733  0.4658
10810SOL    HW236988   9.469   2.796   6.351 -2.2759  1.1865  2.1291
10811SOL     OW36989   4.660   9.453   0.212  0.8377  0.4537  0.7589
10811SOL    HW136990   4.567   9.432   0.204  0.8218  0.8952 -0.3749
10811SOL    HW236991   4.662   9.546   0.237  0.9753  0.6590  0.0044
10812SOL     OW36992   2.953   9.969   7.785 -0.1574  0.5625  0.3928
10812SOL    HW136993   2.960  10.014   7.870  0.9003  0.0420  0.5876
10812SOL    HW236994   2.934  10.040   7.723 -1.2211  0.9218  1.0786
10813SOL     OW36995  10.388   4.708   9.037 -0.2052 -0.0144  0.1963
10813SOL    HW136996  10.307   4.680   8.995 -0.2856  0.1732  0.2259
10813SOL    HW236997  10.360   4.746   9.121 -0.2425  1.4775 -0.4488
10814SOL     OW36998   2.304   6.913   8.724  0.4857 -0.0509  0.1741
10814SOL    HW136999   2.372   6.956   8.672 -0.9668  0.8123 -1.0976
10814SOL    HW237000   2.292   6.971   8.800  1.4940 -0.4877  0.6932
10815SOL     OW37001   0.057   2.928   0.429 -0.0726 -0.1835 -0.0360
10815SOL    HW137002   0.037   3.022   0.429  2.4899  0.4466 -0.5021
10815SOL    HW237003   0.152   2.924   0.444  0.0180 -2.6724 -0.8159
10816SOL     OW37004   8.782   9.677  10.242  0.3845 -0.1408  0.3999
10816SOL    HW137005   8.822   9.607  10.293 -1.3186 -0.4565  1.4085
10816SOL    HW237006   8.777   9.644  10.153  0.1367 -1.0799  0.7543
10817SOL     OW37007   9.982   5.456   4.220  0.1605 -0.1309  0.0466
10817SOL    HW137008   9.955   5.548   4.212  0.6025  0.1271  1.2993
10817SOL    HW237009  10.036   5.440   4.142  1.1509  1.0733  0.4460
10818SOL     OW37010   2.786   4.270   8.272  0.1691 -0.1217 -0.1299
10818SOL    HW137011   2.879   4.275   8.294 -0.0449 -0.2498  0.8954
10818SOL    HW237012   2.763   4.178   8.282 -0.1422 -0.0360 -0.0171
10819SOL     OW37013  11.076   2.122   9.246 -0.1293 -0.0195 -0.0044
10819SOL    HW137014  11.152   2.180   9.239  0.8714 -1.4221 -1.9370
10819SOL    HW237015  11.078   2.092   9.337 -0.0376  2.0570  0.7303
10820SOL     OW37016   1.232   8.742   2.014 -0.5115 -0.4601  0.2053
10820SOL    HW137017   1.238   8.806   1.944  2.4150 -0.6724  0.1400
10820SOL    HW237018   1.164   8.776   2.072  0.5279  2.4111 -0.1231
10821SOL     OW37019   2.251   7.060   6.652 -0.5214 -0.3394 -0.8414
10821SOL    HW137020   2.228   7.040   6.561 -0.5495 -1.4927 -0.5916
10821SOL    HW237021   2.337   7.101   6.647 -0.5810 -0.2799 -1.3926
10822SOL     OW37022   4.202   8.333   0.027  0.4091  0.1623 -0.2374
10822SOL    HW137023   4.173   8.413  -0.016  0.0723  0.1293 -0.0773
10822SOL    HW237024   4.123   8.279   0.034  1.0130 -1.1433 -2.3500
10823SOL     OW37025  12.101   6.254   1.655  1.1089  0.2986  0.4163
10823SOL    HW137026  12.114   6.214   1.569  1.7495  0.7534  0.2875
10823SOL    HW237027  12.034   6.201   1.697  0.8623  0.0121 -0.3285
10824SOL     OW37028  11.165   2.397  10.057 -0.1851 -0.1676  0.4400
10824SOL    HW137029  11.247   2.348  10.061  0.1610  0.1280 -1.6447
10824SOL    HW237030  11.123   2.382  10.141  1.6166 -1.0119  1.2323
10825SOL     OW37031   5.170   4.208   8.742 -0.6439  0.2898  0.4106
10825SOL    HW137032   5.181   4.215   8.647  0.7126 -1.0020  0.4358
10825SOL    HW237033   5.173   4.298   8.773  0.5364  0.6339 -0.6210
10826SOL     OW37034  10.005   4.105   6.028  0.2474 -0.0575  0.4939
10826SOL    HW137035  10.053   4.062   6.098 -0.8583 -0.7960  0.8254
10826SOL    HW237036   9.947   4.166   6.072 -0.9737 -1.0354  0.3140
10827SOL     OW37037   5.343   7.464   0.037 -0.1629 -0.0883  0.1614
10827SOL    HW137038   5.420   7.485   0.091 -1.2461  0.0924  1.7104
10827SOL    HW237039   5.371   7.392  -0.018  0.9438 -0.4287  1.1275
10828SOL     OW37040   5.027   0.616   5.718 -0.1166  0.0797  0.6917
10828SOL    HW137041   4.995   0.704   5.741  1.0714  0.3085  1.5980
10828SOL    HW237042   5.122   0.623   5.728  0.1838 -0.7365 -1.2978
10829SOL     OW37043   4.818   8.200   9.677  0.6390 -0.1403 -0.8693
10829SOL    HW137044   4.756   8.138   9.714 -0.3360  0.1873 -1.9093
10829SOL    HW237045   4.880   8.217   9.748  0.0741 -1.1659 -0.1044
10830SOL     OW37046   4.272   5.612   8.947 -0.2272 -0.3746 -0.0210
10830SOL    HW137047   4.343   5.591   8.887 -0.9992  0.8644 -1.4292
10830SOL    HW237048   4.235   5.527   8.971 -0.6806 -0.8989 -2.3292
10831SOL     OW37049   0.796   9.284  11.209  0.4694  0.5009  0.3305
10831SOL    HW137050   0.880   9.326  11.191  0.5905  1.0838  2.0899
10831SOL    HW237051   0.740   9.354  11.241 -0.9972  0.2812 -1.6020
10832SOL     OW37052   1.072   6.848   5.624  0.6025 -0.7053  0.4840
10832SOL    HW137053   1.033   6.819   5.707 -1.9895  2.3374  0.5227
10832SOL    HW237054   1.023   6.800   5.557 -0.5725  0.1615  0.6716
10833SOL     OW37055   5.068  11.994   3.501  0.1765 -0.3523  0.0697
10833SOL    HW137056   4.990  11.959   3.543  0.9234 -2.2377 -0.0172
10833SOL    HW237057   5.045  11.997   3.408 -0.0470 -0.1883  0.1298
10834SOL     OW37058   5.639  11.492   6.127  0.0069  0.1959  0.2462
10834SOL    HW137059   5.673  11.529   6.045 -0.1871 -0.3750 -0.0953
10834SOL    HW237060   5.549  11.526   6.133  0.1003  0.4324  0.3508
10835SOL     OW37061   8.677   0.646   8.416 -0.6488  0.0127 -0.5895
10835SOL    HW137062   8.629   0.569   8.384  0.8068 -1.3405  0.3288
10835SOL    HW237063   8.715   0.685   8.337 -1.2445 -0.2988 -1.0461
10836SOL     OW37064   9.441   6.245   9.487 -0.2540 -0.5054  0.5349
10836SOL    HW137065   9.472   6.271   9.400  0.6140  1.0188  1.2460
10836SOL    HW237066   9.522   6.230   9.537 -0.5637  2.3194  2.0865
10837SOL     OW37067   8.932   0.612   5.763  0.2634  0.0092  0.4908
10837SOL    HW137068   8.906   0.567   5.843 -0.8046 -0.0908  0.1003
10837SOL    HW237069   9.022   0.582   5.747  0.3795 -0.2067  1.4697
10838SOL     OW37070   5.164   0.043   6.296 -0.2237  0.0283 -0.0054
10838SOL    HW137071   5.076   0.008   6.311  0.0488 -0.7499 -0.1641
10838SOL    HW237072   5.174   0.044   6.201  0.9017 -2.4837 -0.0144
10839SOL     OW37073   8.183   9.054   6.489  0.5851  0.5200  0.1705
10839SOL    HW137074   8.197   9.092   6.403  1.3776  0.5749  0.3156
10839SOL    HW237075   8.208   8.962   6.480 -0.1838  0.3089  0.1220
10840SOL     OW37076   5.285   1.928   5.486 -0.3651 -0.1812 -0.3082
10840SOL    HW137077   5.327   1.918   5.571 -0.4827  1.0764 -0.0847
10840SOL    HW237078   5.273   1.838   5.455 -0.9173 -0.7054  1.2888
10841SOL     OW37079   6.427   1.297   9.714 -0.2924 -0.5518 -0.5493
10841SOL    HW137080   6.341   1.254   9.710 -0.2899 -0.6014 -0.0453
10841SOL    HW237081   6.407   1.387   9.736 -0.1484 -0.7928  0.5950
10842SOL     OW37082  12.002   3.130   3.642 -0.0436 -0.0841 -0.0426
10842SOL    HW137083  12.026   3.203   3.699  0.7849  0.1965 -0.7318
10842SOL    HW237084  11.927   3.089   3.685  0.9011 -0.2220  1.5262
10843SOL     OW37085  11.840   3.118   8.009  0.3692  0.6250 -0.3641
10843SOL    HW137086  11.930   3.093   8.032  0.0576  0.0468  0.2367
10843SOL    HW237087  11.839   3.116   7.913  0.6245 -0.7432 -0.3596
10844SOL     OW37088   6.474  10.377   3.790 -0.3557  0.0019 -0.6981
10844SOL    HW137089   6.533  10.446   3.762 -0.2786  0.5693  0.7735
10844SOL    HW237090   6.491  10.367   3.883 -0.8691 -1.5188 -0.7338
10845SOL     OW37091  10.424  11.881  10.216 -0.3772  0.5523  0.3684
10845SOL    HW137092  10.330  11.879  10.234 -0.4051  1.5051  0.3792
10845SOL    HW237093  10.434  11.947  10.148  0.2320  0.1003  0.0143
10846SOL     OW37094   6.455   6.006   9.139  0.7000  0.4088  0.4187
10846SOL    HW137095   6.441   5.933   9.200  3.5575 -0.7196 -0.1500
10846SOL    HW237096   6.514   6.065   9.185  0.1215  1.3195  0.0315
10847SOL     OW37097   9.918   3.718   5.102 -0.3532 -0.5776  0.0551
10847SOL    HW137098   9.914   3.791   5.039 -1.5379  0.6631  1.4744
10847SOL    HW237099  10.010   3.714   5.128 -0.0128 -0.5272 -1.0871
10848SOL     OW37100  12.001  11.411   7.800 -0.2297 -0.5610 -0.2144
10848SOL    HW137101  11.989  11.404   7.895  3.4941 -2.5803  0.3087
10848SOL    HW237102  12.041  11.328   7.775 -2.2015 -0.6027 -3.8534
10849SOL     OW37103   7.429   3.610   6.058  0.1129 -0.1172  0.2662
10849SOL    HW137104   7.414   3.642   5.969 -0.0548  0.0961  0.3690
10849SOL    HW237105   7.497   3.667   6.093  0.8421 -0.7891 -0.0395
10850SOL     OW37106   7.295   1.482  11.265  0.2891 -0.2826 -0.3035
10850SOL    HW137107   7.290   1.560  11.320  3.1998  0.7628 -1.3067
10850SOL    HW237108   7.236   1.419  11.306  0.8588  1.0870  2.8749
10851SOL     OW37109   8.921  11.067  10.389 -0.0805 -0.0331  0.1291
10851SOL    HW137110   8.978  11.139  10.416 -2.3858  1.5606  1.1421
10851SOL    HW237111   8.850  11.110  10.341 -1.6084 -1.5882  0.8916
10852SOL     OW37112   1.638   2.673   0.869  0.5756 -0.6879  0.3466
10852SOL    HW137113   1.587   2.715   0.938  0.3557  0.6857 -0.5997
10852SOL    HW237114   1.580   2.605   0.835 -1.7988  2.2838 -2.2616
10853SOL     OW37115  10.591   0.920   9.622  0.5414 -0.0447  0.7072
10853SOL    HW137116  10.520   0.956   9.569  0.1593 -0.1838  1.1196
10853SOL    HW237117  10.627   0.850   9.568  0.1414 -0.1986  0.6312
10854SOL     OW37118  11.626   4.039  11.087 -0.6685  0.0117 -0.5862
10854SOL    HW137119  11.701   4.080  11.044 -1.4030  0.8955 -1.0582
10854SOL    HW237120  11.663   4.002  11.167  0.1803  0.8872 -0.5444
10855SOL     OW37121   5.962   8.623   1.698 -0.6388  0.3727  0.4077
10855SOL    HW137122   5.932   8.685   1.631 -1.5950  1.0826  1.4731
10855SOL    HW237123   5.923   8.654   1.779 -0.0703 -0.8885  1.1895
10856SOL     OW37124   9.655   1.357   3.543 -0.5447  0.3643 -0.2865
10856SOL    HW137125   9.730   1.366   3.484 -0.0770  2.1012  0.4995
10856SOL    HW237126   9.692   1.313   3.620 -0.4546  0.7463 -0.1108
10857SOL     OW37127  11.335   2.324   1.168  0.1596  0.3442  0.0315
10857SOL    HW137128  11.350   2.328   1.073  2.4472 -1.7411  0.2016
10857SOL    HW237129  11.392   2.391   1.204 -0.1963  0.6793 -0.0273
10858SOL     OW37130  11.695   5.209   6.639  0.5136  0.2540  0.0096
10858SOL    HW137131  11.700   5.118   6.610 -1.4028  0.1121 -0.0651
10858SOL    HW237132  11.637   5.206   6.715 -0.4093  1.5077 -0.6087
10859SOL     OW37133   9.418   0.743   9.749 -0.1246  0.2866 -0.4110
10859SOL    HW137134   9.329   0.774   9.761  0.3234  1.4809 -0.0621
10859SOL    HW237135   9.444   0.776   9.663 -0.0321 -0.1028 -0.5360
10860SOL     OW37136   1.903   2.696   8.827 -0.0732  0.1464 -0.2334
10860SOL    HW137137   1.885   2.733   8.741  0.7995  0.7463 -0.1650
10860SOL    HW237138   1.817   2.688   8.869 -0.3501  1.3404 -0.5534
10861SOL     OW37139   9.070   2.698   1.822  0.5512 -0.4233  0.4815
10861SOL    HW137140   9.163   2.713   1.838  0.3360  0.5041  0.9323
10861SOL    HW237141   9.033   2.786   1.810 -0.0912 -0.8280 -0.7408
10862SOL     OW37142   8.196   4.008   7.164 -0.3267 -0.1105  0.3843
10862SOL    HW137143   8.114   4.048   7.138  0.1465  0.5413 -0.1369
10862SOL    HW237144   8.242   3.991   7.082 -0.7289 -2.2576  0.5471
10863SOL     OW37145   7.820   6.976   3.381  0.5916  0.0885  0.0799
10863SOL    HW137146   7.802   6.884   3.404  2.0070 -0.0315  0.7912
10863SOL    HW237147   7.804   7.024   3.463  3.0271  0.0178  0.6718
10864SOL     OW37148   3.988   2.826   2.353 -0.2094  0.2698  0.1700
10864SOL    HW137149   4.057   2.887   2.380  0.4002  0.0220 -0.7913
10864SOL    HW237150   3.912   2.881   2.337  0.7080  0.9845 -1.9929
10865SOL     OW37151   5.704   2.894   6.214  0.1969 -0.5468 -0.4816
10865SOL    HW137152   5.743   2.902   6.301 -0.9564  2.8028 -0.1328
10865SOL    HW237153   5.619   2.852   6.230  0.1266 -0.2416 -0.0539
10866SOL     OW37154   1.133   0.646   6.447 -0.2503  0.4943  0.3349
10866SOL    HW137155   1.042   0.645   6.478 -0.4157 -0.1695 -0.1593
10866SOL    HW237156   1.151   0.738   6.428 -0.0512  0.9892  2.6385
10867SOL     OW37157  11.914   5.469   4.270  0.6248  0.2046  0.0931
10867SOL    HW137158  11.861   5.499   4.345  0.0286 -1.1654  0.2353
10867SOL    HW237159  11.850   5.437   4.207  1.2062  0.1564 -0.4741
10868SOL     OW37160   1.975   2.497   1.541 -0.0926 -0.0349  0.2059
10868SOL    HW137161   1.981   2.420   1.484  0.3665 -0.8527  1.3216
10868SOL    HW237162   2.065   2.525   1.553 -0.3752  3.1332 -3.2927
10869SOL     OW37163  11.642  10.605   8.697  0.2127 -0.6326  0.2754
10869SOL    HW137164  11.684  10.524   8.670  4.0359  1.4176 -0.7088
10869SOL    HW237165  11.699  10.640   8.766 -1.0233  1.4293  0.3540
10870SOL     OW37166   2.283  11.973   4.837 -0.1874  0.0278 -0.0307
10870SOL    HW137167   2.267  11.949   4.745 -0.3652  0.6214 -0.1546
10870SOL    HW237168   2.356  11.917   4.864  2.4740  2.4516 -1.6619
10871SOL     OW37169   6.796  10.494   3.855  0.6806  0.0861 -0.3138
10871SOL    HW137170   6.776  10.519   3.765  0.6105  1.9237  0.1770
10871SOL    HW237171   6.879  10.537   3.874  0.2404  0.4818  0.7971
10872SOL     OW37172   1.117   9.632   9.968 -0.2519 -0.5127  0.0005
10872SOL    HW137173   1.079   9.713  10.002 -1.6180 -2.0700  2.4702
10872SOL    HW237174   1.148   9.656   9.881 -1.4611  2.4115  0.2330
10873SOL     OW37175   3.479   6.888   2.398 -0.8121 -0.0548 -0.4174
10873SOL    HW137176   3.532   6.965   2.416 -0.6224  0.0142 -1.2435
10873SOL    HW237177   3.505   6.860   2.311 -0.5117 -1.3692  0.0663
10874SOL     OW37178   0.170  10.115   9.271  0.4276 -0.1976  0.3612
10874SOL    HW137179   0.172  10.211   9.268 -1.3749 -0.0982 -3.6291
10874SOL    HW237180   0.085  10.095   9.309  0.3476 -0.1952  0.1825
10875SOL     OW37181  10.208   2.880   3.346  0.2818 -0.0217 -0.8995
10875SOL    HW137182  10.166   2.870   3.432  0.5665 -0.6972 -0.8360
10875SOL    HW237183  10.301   2.868   3.364  0.2750 -0.8872 -1.4127
10876SOL     OW37184   3.757   1.633   3.624  0.0458 -0.2072  0.6391
10876SOL    HW137185   3.770   1.728   3.628  1.4023 -0.3347 -0.0135
10876SOL    HW237186   3.830   1.597   3.675 -0.1472 -0.9171  0.4226
10877SOL     OW37187   1.176   7.787  11.825  0.4767  0.7201  1.0054
10877SOL    HW137188   1.144   7.732  11.897 -0.9989  1.3532  0.8583
10877SOL    HW237189   1.209   7.724  11.761 -0.5149  0.0177  1.1505
10878SOL     OW37190   4.413   2.276   7.116  0.6279 -0.2620 -0.4038
10878SOL    HW137191   4.414   2.223   7.035  0.7053  1.6377 -1.7019
10878SOL    HW237192   4.470   2.350   7.096  0.8345  0.1279  1.5216
10879SOL     OW37193   1.513   4.426   3.553  0.7458 -0.5712  0.3138
10879SOL    HW137194   1.519   4.377   3.471 -1.8781 -0.4908 -0.0111
10879SOL    HW237195   1.465   4.369   3.612  0.3546  0.3807  0.9406
10880SOL     OW37196   0.631   5.089   1.998 -0.3529  0.5368  0.0277
10880SOL    HW137197   0.593   5.003   1.981  0.8220  0.3322 -1.7488
10880SOL    HW237198   0.717   5.071   2.035 -0.1888  0.9607 -0.1385
10881SOL     OW37199   8.830   8.674   8.592 -0.0447 -0.3353  0.1283
10881SOL    HW137200   8.858   8.761   8.622  0.1295 -0.1124 -0.6532
10881SOL    HW237201   8.904   8.640   8.543 -0.2791 -0.7405  0.0479
10882SOL     OW37202  10.113   3.709   8.212 -0.6567 -0.1890  0.2084
10882SOL    HW137203  10.052   3.750   8.150  0.0229  1.6292  0.6851
10882SOL    HW237204  10.198   3.712   8.167 -0.7619 -2.2407 -0.2407
10883SOL     OW37205   0.244   0.900   3.917  0.0270  0.1992  1.1285
10883SOL    HW137206   0.288   0.958   3.855  2.0036  0.1530  2.3967
10883SOL    HW237207   0.259   0.812   3.883 -0.7191  0.2810  0.5760
10884SOL     OW37208   5.726   4.273   5.950 -0.0557  0.4710 -0.3978
10884SOL    HW137209   5.679   4.291   5.869 -0.1062 -0.5673 -0.6035
10884SOL    HW237210   5.704   4.183   5.972  1.2874  0.1795 -0.1351
10885SOL     OW37211   3.433   2.898   7.875  0.0176 -0.1996  0.2144
10885SOL    HW137212   3.351   2.929   7.913  0.4690  0.5731  0.5820
10885SOL    HW237213   3.438   2.940   7.789 -2.5520 -4.3280 -2.3261
10886SOL     OW37214   4.081   4.305   1.351 -0.2386 -0.2737 -0.1084
10886SOL    HW137215   4.107   4.315   1.260  0.5737  0.6395  0.2026
10886SOL    HW237216   3.997   4.260   1.348 -0.4124  0.1034 -1.3244
10887SOL     OW37217   8.670  10.289   5.281  0.1044 -0.4477 -0.0798
10887SOL    HW137218   8.618  10.220   5.323 -0.2536 -0.9580 -1.3307
10887SOL    HW237219   8.746  10.299   5.338 -0.0744 -1.5361  0.3774
10888SOL     OW37220   8.901  11.216   6.847  0.3390 -0.3088  0.0151
10888SOL    HW137221   8.874  11.288   6.790  0.2883 -0.6148 -0.3490
10888SOL    HW237222   8.994  11.204   6.828  0.4232 -0.1311  0.3077
10889SOL     OW37223  11.291   3.064   2.940 -0.3474  0.2747  0.0960
10889SOL    HW137224  11.200   3.090   2.952 -0.3442  0.2715  0.1294
10889SOL    HW237225  11.302   2.987   2.996  0.0458  1.0819  1.1554
10890SOL     OW37226   2.802   7.262   9.009 -0.2212  0.0595  0.7381
10890SOL    HW137227   2.716   7.220   9.015 -0.1681 -0.2951 -0.5300
10890SOL    HW237228   2.830   7.245   8.919  1.5662 -0.5936  1.3785
10891SOL     OW37229   1.096   4.692   4.512 -0.5309 -0.3101  0.3583
10891SOL    HW137230   1.066   4.620   4.567  1.1086 -1.2051  0.1594
10891SOL    HW237231   1.146   4.748   4.572  1.7154 -1.5675 -0.2387
10892SOL     OW37232   9.539   3.698   7.800  0.2308 -0.0407 -0.0829
10892SOL    HW137233   9.461   3.662   7.843  0.5483 -0.7586 -0.0773
10892SOL    HW237234   9.510   3.780   7.760 -0.4820 -0.2153  0.0625
10893SOL     OW37235   6.445   3.867   9.062  0.3724 -0.0122  0.0163
10893SOL    HW137236   6.479   3.819   9.137  1.5768 -0.5415 -0.8412
10893SOL    HW237237   6.358   3.830   9.047  1.6933 -2.8589 -1.3344
10894SOL     OW37238   9.670   3.012  11.435  0.1900  0.4201  0.2404
10894SOL    HW137239   9.707   2.934  11.394  0.6921  0.5163  0.4946
10894SOL    HW237240   9.588   2.983  11.474 -0.3725  0.3553 -0.9314
10895SOL     OW37241   3.551   3.040   9.719 -0.7098  0.5466 -0.4174
10895SOL    HW137242   3.646   3.036   9.711 -0.8515 -0.4870 -1.7943
10895SOL    HW237243   3.517   2.997   9.641 -2.3147  0.1129  0.4609
10896SOL     OW37244   1.814   1.984   6.479  0.0230  0.5017  0.2005
10896SOL    HW137245   1.731   2.032   6.492 -1.1855 -1.5558  0.5365
10896SOL    HW237246   1.867   2.010   6.554 -0.7069  1.0866  0.5383
10897SOL     OW37247  10.357  11.001   2.503  0.3837 -0.0094 -0.0343
10897SOL    HW137248  10.342  11.094   2.489  0.9543  0.5496  2.5380
10897SOL    HW237249  10.326  10.984   2.592 -0.1256 -2.3986 -0.5854
10898SOL     OW37250   7.249   8.597   8.579 -0.2108 -0.1735 -0.6838
10898SOL    HW137251   7.179   8.567   8.521  0.0762  0.3027 -1.2867
10898SOL    HW237252   7.212   8.590   8.667 -1.9617  2.4447 -1.1018
10899SOL     OW37253   2.024   5.063   8.489  0.2077  0.7678 -0.1289
10899SOL    HW137254   2.037   4.976   8.452 -1.4815  0.1430  0.6624
10899SOL    HW237255   2.085   5.066   8.563 -0.4442 -0.1566  0.4679
10900SOL     OW37256   8.917   2.646   9.412  0.6271  0.6504  0.1288
10900SOL    HW137257   8.890   2.661   9.503 -0.6020 -0.6440  0.0151
10900SOL    HW237258   8.997   2.697   9.402  1.2974  0.1277  2.2218
10901SOL     OW37259   4.485   8.726   7.931 -0.2152 -0.5305 -0.0955
10901SOL    HW137260   4.498   8.634   7.909  1.2843 -1.3731  3.5839
10901SOL    HW237261   4.472   8.727   8.026  0.6970  3.1130  0.1471
10902SOL     OW37262   7.071   2.809   3.171  0.3746  0.3254 -0.3589
10902SOL    HW137263   7.064   2.865   3.248  2.2036 -0.4081  0.3904
10902SOL    HW237264   7.164   2.811   3.148  0.3966 -1.9460 -0.6371
10903SOL     OW37265  10.165   0.533   7.364  0.0108  0.3301 -0.6186
10903SOL    HW137266  10.235   0.470   7.346 -0.8991 -1.1972  0.9083
10903SOL    HW237267  10.088   0.496   7.322 -0.5179  0.4640  0.2231
10904SOL     OW37268   2.595   3.088  11.258  0.5849 -0.5784  0.0788
10904SOL    HW137269   2.593   3.059  11.166 -1.5478 -0.3965  0.0290
10904SOL    HW237270   2.570   3.011  11.308 -0.5750 -0.0765  0.3026
10905SOL     OW37271   7.736   2.170   0.766  0.0267 -0.1374  0.2204
10905SOL    HW137272   7.692   2.191   0.849 -0.5879  1.5893 -0.4917
10905SOL    HW237273   7.664   2.156   0.704  0.4323  0.9670 -0.5501
10906SOL     OW37274   4.164  11.508  11.140  0.2464 -0.2668 -0.2559
10906SOL    HW137275   4.207  11.442  11.194  0.2267 -0.1127 -0.0538
10906SOL    HW237276   4.195  11.592  11.174  1.9367 -0.1714 -1.8367
10907SOL     OW37277   8.117   6.459  10.191  0.5121 -0.1075  0.3241
10907SOL    HW137278   8.116   6.370  10.158  0.1672  0.2047 -0.5443
10907SOL    HW237279   8.027   6.490  10.182  0.8257  0.6576 -0.3541
10908SOL     OW37280   1.896   8.443  10.548  0.2609 -0.0271 -0.0779
10908SOL    HW137281   1.931   8.416  10.463  0.5853  0.9406 -0.2663
10908SOL    HW237282   1.972   8.440  10.607  0.9325  2.7786 -0.6455
10909SOL     OW37283  11.444   3.742   1.051 -0.7279 -0.6967 -0.4250
10909SOL    HW137284  11.355   3.717   1.026 -1.3430 -0.6320  1.5109
10909SOL    HW237285  11.467   3.682   1.121  0.2254  0.1374  0.0023
10910SOL     OW37286   2.604   9.385   7.318  0.3014  0.0687  0.3529
10910SOL    HW137287   2.570   9.473   7.305  0.0789  0.0562  0.8311
10910SOL    HW237288   2.527   9.328   7.307  0.2568  0.0062  0.9799
10911SOL     OW37289  10.768   7.985   5.351 -0.0601  0.7856  0.1521
10911SOL    HW137290  10.715   7.953   5.424 -0.3743 -1.2081 -0.8592
10911SOL    HW237291  10.846   8.023   5.392 -0.5052  0.2496  1.5361
10912SOL     OW37292   1.727  11.767   6.351  0.1271 -0.0108  0.1344
10912SOL    HW137293   1.656  11.787   6.291  1.3475  1.2788 -0.9506
10912SOL    HW237294   1.793  11.723   6.297  0.5654 -0.3244  0.9052
10913SOL     OW37295  10.842   6.018   4.959 -0.2771  0.2869 -0.4862
10913SOL    HW137296  10.912   5.971   5.005 -0.9191 -0.0547  0.1623
10913SOL    HW237297  10.853   6.110   4.985 -0.1485  0.2148 -0.2883
10914SOL     OW37298   6.723   4.559   8.905 -0.4278 -0.5656  0.4965
10914SOL    HW137299   6.723   4.508   8.986 -0.4046 -0.6141  0.4663
10914SOL    HW237300   6.796   4.621   8.915 -0.6935 -0.2837  0.6915
10915SOL     OW37301   4.968   3.133   0.505 -0.0411 -0.3282  0.2648
10915SOL    HW137302   5.015   3.143   0.589 -1.0141  0.5542  0.7261
10915SOL    HW237303   4.915   3.054   0.516  0.5996 -0.7909  0.0920
10916SOL     OW37304   5.267   0.339  11.429  0.3237  0.2075  0.3437
10916SOL    HW137305   5.358   0.361  11.410  0.2787  0.9035  0.8687
10916SOL    HW237306   5.232   0.306  11.346  1.6421 -2.1999  0.6667
10917SOL     OW37307   5.214   0.573   4.593  0.9063  0.0338  0.1458
10917SOL    HW137308   5.218   0.579   4.497  1.6682 -1.6623  0.0266
10917SOL    HW237309   5.229   0.662   4.623  2.4316  0.3224 -1.2972
10918SOL     OW37310   4.153   7.112   7.289  0.6312 -0.4385 -0.0534
10918SOL    HW137311   4.122   7.119   7.199  2.5484  0.2042 -0.7072
10918SOL    HW237312   4.076   7.084   7.339 -0.3558 -1.2664 -1.9453
10919SOL     OW37313   2.532   6.306   4.039  0.0898 -0.3522  0.3289
10919SOL    HW137314   2.445   6.323   4.004  0.0150  1.5060  1.2603
10919SOL    HW237315   2.576   6.391   4.037  0.4990 -0.3549  3.4409
10920SOL     OW37316   1.459  11.274   2.481 -0.5867 -0.5990  0.1694
10920SOL    HW137317   1.382  11.235   2.522 -0.4231  0.6408  1.7249
10920SOL    HW237318   1.437  11.366   2.469  0.6469 -0.2049  0.6935
10921SOL     OW37319   4.907   2.960   3.799  0.0070 -0.4391  0.4800
10921SOL    HW137320   4.911   2.968   3.894 -0.0327 -3.2942  0.8007
10921SOL    HW237321   4.964   2.886   3.779  1.2502  1.0427 -1.9358
10922SOL     OW37322   9.485   2.716   6.953 -0.3375  0.6420 -0.0955
10922SOL    HW137323   9.433   2.796   6.952  0.0847  0.9644  1.1271
10922SOL    HW237324   9.572   2.744   6.983  0.1969 -0.0696 -0.9233
10923SOL     OW37325   0.461   6.987   8.122  0.1296  0.0638 -0.1080
10923SOL    HW137326   0.400   6.928   8.166 -2.9028  3.0556  0.0932
10923SOL    HW237327   0.534   6.997   8.184 -0.3776 -1.5967  0.8232
10924SOL     OW37328   8.747   3.845   4.776  0.2062  0.8499  0.1132
10924SOL    HW137329   8.831   3.824   4.818 -0.2057 -0.8161  0.1692
10924SOL    HW237330   8.681   3.829   4.844 -0.2221  1.3503 -0.1791
10925SOL     OW37331   6.907  11.591   2.063 -0.4727 -0.3836 -0.6989
10925SOL    HW137332   6.900  11.571   2.156  0.4769 -1.2139 -0.7908
10925SOL    HW237333   6.915  11.687   2.060 -0.9959 -0.3102  0.0297
10926SOL     OW37334  11.298   9.396   2.804  0.4609  0.1248  0.1874
10926SOL    HW137335  11.264   9.478   2.841  0.7483  0.6548 -0.7016
10926SOL    HW237336  11.232   9.368   2.742  0.6331 -0.0109  0.0652
10927SOL     OW37337   9.258   2.028  10.176  0.2134  0.6327 -0.3558
10927SOL    HW137338   9.343   2.027  10.219  0.3481  0.1491 -0.6185
10927SOL    HW237339   9.220   1.942  10.197 -0.1734  0.8083 -0.3161
10928SOL     OW37340  10.386   1.047   0.079 -0.2808  0.2327 -0.4082
10928SOL    HW137341  10.472   1.087   0.081  0.2151 -0.8438  0.6155
10928SOL    HW237342  10.375   1.018  -0.012  0.3167  0.5868 -0.5965
10929SOL     OW37343   8.739   1.869   5.346  0.1280  0.8212  0.4326
10929SOL    HW137344   8.796   1.904   5.277  1.4878 -2.5671 -0.3988
10929SOL    HW237345   8.793   1.873   5.425  1.5072 -1.7980 -0.2339
10930SOL     OW37346   0.036   5.969   3.348 -0.4701  0.0746  0.4961
10930SOL    HW137347   0.049   5.913   3.424  2.6358 -0.3912 -0.2181
10930SOL    HW237348   0.029   5.909   3.274  2.2091  0.4382 -0.1903
10931SOL     OW37349   2.603  10.066   8.780 -0.0786  0.4036 -0.5155
10931SOL    HW137350   2.521  10.025   8.806  0.5810 -0.3649  0.3940
10931SOL    HW237351   2.578  10.156   8.757 -0.9108  0.7192  1.4617
10932SOL     OW37352   8.129   8.061   4.023 -0.0386  0.5253 -0.3752
10932SOL    HW137353   8.186   7.991   4.054  0.8268  0.7739 -1.3378
10932SOL    HW237354   8.040   8.029   4.039  0.2934 -1.3369 -1.8767
10933SOL     OW37355   1.279   9.886   5.790  0.2505  0.1873 -0.6268
10933SOL    HW137356   1.200   9.891   5.844  0.7032  2.4594 -0.0519
10933SOL    HW237357   1.351   9.896   5.853  0.9751 -1.1875 -1.2173
10934SOL     OW37358   6.709   9.886  10.879  0.0220 -0.7217 -0.0338
10934SOL    HW137359   6.719   9.981  10.890 -0.2406 -0.1165 -3.7311
10934SOL    HW237360   6.798   9.855  10.862  0.0790 -1.1584  0.9721
10935SOL     OW37361   7.879   3.638   1.770 -0.5258  0.3416 -0.0081
10935SOL    HW137362   7.885   3.579   1.694  1.1490 -1.4707  1.4516
10935SOL    HW237363   7.908   3.722   1.736  1.3604 -0.7041 -1.1447
10936SOL     OW37364   0.178  10.182   7.580 -0.2431  0.4715 -0.2100
10936SOL    HW137365   0.272  10.175   7.567 -0.2760  1.2054 -0.9926
10936SOL    HW237366   0.155  10.267   7.542 -1.0163  0.9392  1.2318
10937SOL     OW37367   4.194   8.515   5.125  1.0806  0.5208  0.1854
10937SOL    HW137368   4.110   8.559   5.109  0.4935 -0.6418 -0.0809
10937SOL    HW237369   4.191   8.439   5.067  0.2029 -2.2219  3.5326
10938SOL     OW37370   6.452   7.377   3.492  0.2081 -0.1592  0.3604
10938SOL    HW137371   6.402   7.456   3.473  1.3616  0.5641  0.2038
10938SOL    HW237372   6.398   7.328   3.554 -0.8055  0.4405 -0.0279
10939SOL     OW37373   0.979  11.360   9.683  0.2222  0.0319  0.1000
10939SOL    HW137374   1.058  11.375   9.630  0.8773 -1.6927  0.5074
10939SOL    HW237375   0.994  11.274   9.723 -1.0375  0.5097  1.6875
10940SOL     OW37376   0.382   3.936   9.423 -0.8721 -0.0556  0.2891
10940SOL    HW137377   0.317   3.879   9.382 -0.8242 -0.2813  0.5301
10940SOL    HW237378   0.331   4.005   9.464 -0.9532 -0.1746  0.3873
10941SOL     OW37379   7.805  10.634   7.922 -0.6059 -0.1855  0.0562
10941SOL    HW137380   7.790  10.676   7.838  1.6370 -0.3459 -0.5002
10941SOL    HW237381   7.808  10.540   7.902  0.7840 -0.1766  0.1174
10942SOL     OW37382   7.291  10.708  11.824  0.0007  0.2685 -0.5820
10942SOL    HW137383   7.257  10.775  11.764 -1.9420 -1.5022 -1.5726
10942SOL    HW237384   7.214  10.655  11.846  1.4315 -1.5111  0.3440
10943SOL     OW37385   3.984   5.516   7.656 -0.5947  0.2766 -0.2574
10943SOL    HW137386   3.932   5.471   7.590 -0.4612  1.1342 -0.9650
10943SOL    HW237387   4.068   5.534   7.613 -0.0178 -0.3159  0.5814
10944SOL     OW37388   9.055   1.196   4.597  0.5107 -0.2067  0.3371
10944SOL    HW137389   9.102   1.155   4.670  0.6558  0.8715  0.8671
10944SOL    HW237390   9.121   1.250   4.554  0.6038 -1.3460 -1.0357
10945SOL     OW37391  11.505   6.209   2.062 -0.1368 -0.6694  0.6712
10945SOL    HW137392  11.445   6.170   1.999  2.2549 -0.4597 -1.9301
10945SOL    HW237393  11.470   6.297   2.077 -1.5335 -1.2307  0.7945
10946SOL     OW37394   3.090   1.540   3.598 -0.0198 -0.3108  0.1819
10946SOL    HW137395   3.008   1.585   3.621  1.3865  3.0068 -0.8295
10946SOL    HW237396   3.063   1.472   3.536 -1.8320  2.2731 -2.0836
10947SOL     OW37397   5.576   8.819   8.891 -0.4424 -0.1536 -0.6153
10947SOL    HW137398   5.609   8.738   8.853  1.4559  0.6168 -0.7197
10947SOL    HW237399   5.595   8.812   8.985 -1.2435 -0.2493 -0.4462
10948SOL     OW37400   7.008   5.440   9.361 -0.2365 -0.2449 -0.8676
10948SOL    HW137401   7.080   5.502   9.368 -1.5146  1.5990 -2.7801
10948SOL    HW237402   7.045   5.356   9.389  1.4529  1.3976  2.2148
10949SOL     OW37403  12.030   3.685   5.840 -0.0806 -0.4007 -0.2994
10949SOL    HW137404  12.074   3.693   5.925  0.6664 -1.0894 -0.6152
10949SOL    HW237405  11.984   3.601   5.845 -0.4037 -0.2307 -0.4097
10950SOL     OW37406   9.894   1.631   4.882  0.1410 -0.3907  0.3722
10950SOL    HW137407   9.922   1.718   4.853 -0.3331 -0.0357  0.9675
10950SOL    HW237408   9.948   1.613   4.959  0.5737 -0.8352 -0.0273
10951SOL     OW37409   0.681   9.997  11.707  0.1838 -0.0146  0.2037
10951SOL    HW137410   0.668  10.003  11.612  0.7207 -0.4497  0.1009
10951SOL    HW237411   0.758  10.051  11.724  1.9431 -2.3120 -0.0395
10952SOL     OW37412   1.896   3.556   9.646  0.0548 -0.2425  0.2530
10952SOL    HW137413   1.910   3.586   9.556  1.8346  0.9748  0.8798
10952SOL    HW237414   1.897   3.636   9.698  0.9299 -1.0615  1.5556
10953SOL     OW37415   2.202  10.570   3.796  0.6914  0.2673  0.1748
10953SOL    HW137416   2.233  10.489   3.755 -0.4166 -0.2187  0.2741
10953SOL    HW237417   2.137  10.604   3.735  0.4077  0.5390  0.6288
10954SOL     OW37418   3.024   9.469   7.894 -0.4247  0.4346  0.1727
10954SOL    HW137419   2.980   9.553   7.889 -1.6813 -0.2915 -1.8558
10954SOL    HW237420   3.040   9.444   7.803  0.6927 -1.1488  0.7508
10955SOL     OW37421   3.286   6.478   4.267  0.2706  0.2146  0.3254
10955SOL    HW137422   3.287   6.440   4.179  1.4217  0.2944  0.2796
10955SOL    HW237423   3.234   6.418   4.320 -1.2959  0.6884 -0.6235
10956SOL     OW37424   2.910  11.396   0.799 -0.3412  0.0993  0.1212
10956SOL    HW137425   2.818  11.374   0.780 -0.0345  1.4554 -3.8636
10956SOL    HW237426   2.961  11.333   0.748  0.8336  1.3015 -0.2510
10957SOL     OW37427   7.741   3.415   2.481  0.2304 -0.2075  0.7345
10957SOL    HW137428   7.669   3.472   2.455  0.9328 -0.1698 -1.3473
10957SOL    HW237429   7.701   3.347   2.535 -0.9192  1.1935  1.6993
10958SOL     OW37430   0.045   4.661   2.473 -0.1651  0.0742  0.4129
10958SOL    HW137431   0.114   4.684   2.536  1.4511 -3.1102  0.0516
10958SOL    HW237432   0.090   4.606   2.409 -2.8677 -1.2986 -0.4202
10959SOL     OW37433  10.494   9.661   8.344  0.0945 -0.7658  0.6889
10959SOL    HW137434  10.439   9.623   8.412 -0.3750 -2.4843 -0.6094
10959SOL    HW237435  10.458   9.749   8.330  0.2516 -0.3341  2.6594
10960SOL     OW37436   7.503   9.209   0.688 -0.0623 -0.5757 -0.1065
10960SOL    HW137437   7.544   9.177   0.768 -0.6117 -2.7320 -0.6249
10960SOL    HW237438   7.543   9.157   0.618  0.4486  1.3015 -1.2676
10961SOL     OW37439   7.832   7.429   5.020  0.1411  0.0571  0.2797
10961SOL    HW137440   7.818   7.414   5.114 -1.0189  1.0352  0.2801
10961SOL    HW237441   7.925   7.409   5.007  0.2236 -0.5182  1.5432
10962SOL     OW37442   6.107   9.779   1.725  0.3905  0.7354 -0.3536
10962SOL    HW137443   6.038   9.769   1.660  0.2646 -0.1891 -0.0919
10962SOL    HW237444   6.067   9.751   1.807  0.8045  1.0800 -0.0235
10963SOL     OW37445   3.066  10.374   4.096 -0.2229 -0.0223 -0.2973
10963SOL    HW137446   3.116  10.445   4.056  2.4214 -1.4322  0.3293
10963SOL    HW237447   3.044  10.407   4.183  0.1167  0.4130 -0.3721
10964SOL     OW37448   1.601   8.025   8.873  0.2760  0.1499  0.1086
10964SOL    HW137449   1.549   8.014   8.794  1.1682  1.2844 -0.6630
10964SOL    HW237450   1.676   7.968   8.861  1.6368  2.0594 -1.0006
10965SOL     OW37451   5.437   2.584  10.639  0.4559 -0.2223 -0.0639
10965SOL    HW137452   5.444   2.635  10.558  3.6239  0.2600  0.4023
10965SOL    HW237453   5.414   2.496  10.609 -0.0002  0.3081 -1.3471
10966SOL     OW37454   8.459   1.230   7.956  0.7934 -0.6340  0.3952
10966SOL    HW137455   8.468   1.158   7.893  1.8904 -0.2216  0.0560
10966SOL    HW237456   8.447   1.187   8.040  1.8231 -1.2285  0.2506
10967SOL     OW37457   0.848   1.889   7.077  0.2218 -0.2283 -0.0859
10967SOL    HW137458   0.939   1.918   7.092  0.5625 -1.6106  0.6851
10967SOL    HW237459   0.800   1.924   7.152  0.5771 -1.3738  0.6962
10968SOL     OW37460   9.974  10.633   4.032  0.2873  0.3302  0.4485
10968SOL    HW137461   9.887  10.593   4.036  0.2287 -0.0862 -2.7423
10968SOL    HW237462   9.959  10.724   4.058 -1.2237  0.3710 -0.4160
10969SOL     OW37463   9.304   9.607  10.997  0.2142 -0.1288 -0.6192
10969SOL    HW137464   9.330   9.629  11.086  1.6519 -2.9748 -0.2085
10969SOL    HW237465   9.212   9.582  11.004  0.4242 -0.7042  0.1533
10970SOL     OW37466   1.940   9.480   5.353 -0.8440  0.1287 -0.0234
10970SOL    HW137467   1.900   9.407   5.401 -1.1678  1.4665  1.8235
10970SOL    HW237468   1.889   9.557   5.379  1.1614  1.4514  0.1825
10971SOL     OW37469   9.027  12.075   4.885  0.5698  0.1335 -0.2562
10971SOL    HW137470   9.028  11.985   4.915 -0.0979  0.5113  0.9931
10971SOL    HW237471   8.960  12.117   4.939 -1.2806  0.7022 -2.8025
10972SOL     OW37472   6.526   9.030   6.438  0.1597  0.1447  0.7751
10972SOL    HW137473   6.515   9.081   6.518  0.2724  1.0702  0.2196
10972SOL    HW237474   6.619   9.008   6.435 -0.0165 -0.7502  1.3868
10973SOL     OW37475   9.517   5.895   6.141 -0.5871  0.1090 -0.3632
10973SOL    HW137476   9.489   5.821   6.088 -1.4155  1.0229 -1.2566
10973SOL    HW237477   9.606   5.873   6.168 -1.1271 -1.5874  0.1356
10974SOL     OW37478   6.193   1.703   0.814 -0.1211 -0.1679 -0.7600
10974SOL    HW137479   6.140   1.777   0.786 -0.8871 -1.1701 -2.1349
10974SOL    HW237480   6.282   1.737   0.820 -0.4817  0.8919 -1.2137
10975SOL     OW37481   9.701  11.245   9.436  0.0939  0.2094 -0.5877
10975SOL    HW137482   9.612  11.279   9.424 -0.0990  0.1203  0.5159
10975SOL    HW237483   9.703  11.166   9.383 -1.2479 -1.0624  1.1432
10976SOL     OW37484   2.669   7.777   6.193 -0.3194  0.4727  0.1786
10976SOL    HW137485   2.688   7.704   6.252 -0.7158  1.3019  1.3785
10976SOL    HW237486   2.660   7.737   6.107  2.1242 -0.5486  0.3146
10977SOL     OW37487   5.691   9.002   2.217  0.6344  0.2460 -0.1496
10977SOL    HW137488   5.767   8.956   2.181  0.8009 -0.0016  0.5197
10977SOL    HW237489   5.705   9.004   2.311  0.5991  1.6184 -0.1452
10978SOL     OW37490   6.589   2.264   5.329  0.1972  0.2249  0.0944
10978SOL    HW137491   6.573   2.319   5.253  4.1133 -1.4814 -2.2995
10978SOL    HW237492   6.507   2.216   5.342 -1.0636  1.6233 -2.0907
10979SOL     OW37493   1.041  11.741  12.096  0.3707  0.6346 -0.0146
10979SOL    HW137494   1.062  11.831  12.072 -1.0313  1.5111  1.8641
10979SOL    HW237495   1.127  11.699  12.108  1.1147  0.8914 -3.4392
10980SOL     OW37496   0.373   9.946   4.388 -0.3441  0.0675 -0.0936
10980SOL    HW137497   0.361   9.929   4.481  2.2999  0.1781  0.3677
10980SOL    HW237498   0.465   9.972   4.380 -0.2097 -0.8548 -2.8757
10981SOL     OW37499   2.137   3.996   8.536  0.3183  0.1842  0.0957
10981SOL    HW137500   2.205   3.998   8.468  2.4731 -2.7355  1.8883
10981SOL    HW237501   2.155   4.073   8.590 -0.4868  1.7117 -1.7288
10982SOL     OW37502  10.215   4.426  10.707 -0.1299  0.3489  0.1783
10982SOL    HW137503  10.256   4.409  10.792  0.0675 -0.6164 -0.0909
10982SOL    HW237504  10.164   4.506  10.720  0.9568  0.9523  0.8234
10983SOL     OW37505   2.051   4.029   1.627  0.2415 -0.2315  0.6364
10983SOL    HW137506   2.027   4.110   1.582 -1.4147  0.2955  2.3370
10983SOL    HW237507   2.129   3.998   1.580  0.3207  1.7841 -0.7072
10984SOL     OW37508   6.087   1.377   2.096  0.5074  0.3158 -0.7595
10984SOL    HW137509   6.072   1.374   2.190 -0.6464  1.5507 -0.8685
10984SOL    HW237510   6.182   1.374   2.087  0.5942 -1.6489  0.3181
10985SOL     OW37511   0.667   5.766  11.473 -0.5104 -0.8510 -0.2722
10985SOL    HW137512   0.599   5.825  11.440 -1.0054 -1.1538  0.1783
10985SOL    HW237513   0.713   5.736  11.395  1.2863  1.8920 -0.3869
10986SOL     OW37514  10.719   7.801   6.911 -0.9030  0.0495 -0.2997
10986SOL    HW137515  10.717   7.754   6.828  0.9913  0.4501 -0.6122
10986SOL    HW237516  10.744   7.890   6.887 -1.6485  0.5142  0.5824
10987SOL     OW37517   5.694   5.603   4.070 -0.0007  0.5933 -0.2850
10987SOL    HW137518   5.643   5.618   3.990 -0.1637  2.6653  0.1590
10987SOL    HW237519   5.631   5.614   4.141  0.2351 -0.8386  0.1879
10988SOL     OW37520  11.745   2.491   9.965  0.0306 -0.4289 -0.2288
10988SOL    HW137521  11.803   2.559   9.929  0.6229  0.5941  2.4179
10988SOL    HW237522  11.796   2.451  10.035 -1.2529 -1.9040 -0.0894
10989SOL     OW37523   4.180   9.159   1.197  0.3939  0.0905  0.3383
10989SOL    HW137524   4.218   9.230   1.145 -3.3132  3.0269  1.2184
10989SOL    HW237525   4.192   9.187   1.288 -0.1413 -0.9896  0.7595
10990SOL     OW37526   5.860  11.574  12.014 -0.3463 -0.3890  0.2196
10990SOL    HW137527   5.805  11.553  12.089  0.6472  1.3521  1.5226
10990SOL    HW237528   5.942  11.527  12.031 -0.5251 -0.9307 -0.3947
10991SOL     OW37529   1.637   6.716   8.357 -0.4446  0.8453  0.3582
10991SOL    HW137530   1.658   6.769   8.434  1.3766  1.3397 -0.4293
10991SOL    HW237531   1.720   6.708   8.310 -1.2611 -0.4500 -0.9531
10992SOL     OW37532   7.571   3.457   1.657 -0.1823  0.6014  0.2302
10992SOL    HW137533   7.646   3.402   1.679 -0.7425  0.0661  0.8396
10992SOL    HW237534   7.606   3.522   1.596  0.4195 -0.6541 -0.8314
10993SOL     OW37535  10.187   7.904   6.138 -0.5324  0.2532  0.6137
10993SOL    HW137536  10.183   7.944   6.225 -2.1036  0.9173  0.2726
10993SOL    HW237537  10.160   7.974   6.079  1.4891  0.1097 -0.5513
10994SOL     OW37538   0.808   2.774  11.184 -0.4554  0.4020 -0.0131
10994SOL    HW137539   0.786   2.729  11.265  0.8401  0.7462  0.5367
10994SOL    HW237540   0.813   2.867  11.208  1.0550  0.3911 -0.2243
10995SOL     OW37541   7.448   4.864   1.722  1.0004  0.2100 -0.0212
10995SOL    HW137542   7.390   4.889   1.650  1.6949 -0.7919 -0.9572
10995SOL    HW237543   7.389   4.840   1.793  0.2738 -0.1422 -0.7285
10996SOL     OW37544   2.778   3.081   2.918  0.7407  0.3409  0.8420
10996SOL    HW137545   2.833   3.030   2.857 -0.5805 -1.3569  0.9855
10996SOL    HW237546   2.827   3.080   3.000  1.2950  0.3321  0.5217
10997SOL     OW37547  11.857   4.223   9.170  0.5472  0.3638 -0.8484
10997SOL    HW137548  11.818   4.188   9.250  2.1842 -2.6582 -1.2521
10997SOL    HW237549  11.911   4.297   9.200 -1.0714  1.1101  0.3856
10998SOL     OW37550   2.079   3.768  11.852  0.4645 -0.2169 -0.5997
10998SOL    HW137551   2.106   3.677  11.859 -1.4599 -0.7536  0.8183
10998SOL    HW237552   2.141   3.807  11.790  1.5399 -2.3747 -0.9846
10999SOL     OW37553   1.737  10.879   4.947  0.1174  1.2036 -0.9410
10999SOL    HW137554   1.810  10.925   4.987 -0.0168  1.6940 -1.2427
10999SOL    HW237555   1.659  10.922   4.984 -0.0219  0.6506 -0.5791
11000SOL     OW37556   8.320  11.512   9.070 -0.1446 -0.0280 -0.1760
11000SOL    HW137557   8.398  11.496   9.122  0.0954  0.5993 -0.3366
11000SOL    HW237558   8.254  11.454   9.107  1.1837 -2.8796 -1.9282
11001SOL     OW37559   7.220   8.262   7.953  0.1692 -0.8201 -0.1667
11001SOL    HW137560   7.157   8.196   7.924 -0.6646 -0.3962  0.5996
11001SOL    HW237561   7.231   8.244   8.047  1.1688 -0.8539 -0.2804
11002SOL     OW37562   3.053   4.889  10.131  0.1062 -0.0023 -0.3325
11002SOL    HW137563   2.963   4.866  10.112  0.5268 -2.4304  0.3748
11002SOL    HW237564   3.099   4.877  10.048  0.2911 -1.6834 -0.0083
11003SOL     OW37565   2.926   0.549   5.717  0.0898 -0.2013  0.0463
11003SOL    HW137566   2.864   0.571   5.647 -0.3743 -1.4155  0.0483
11003SOL    HW237567   2.873   0.506   5.784  0.5774  0.7159  1.0443
11004SOL     OW37568   4.977   0.104   4.461 -0.4692  0.0133 -0.1932
11004SOL    HW137569   4.891   0.128   4.494 -0.3596  0.5942 -0.3120
11004SOL    HW237570   4.986   0.011   4.480 -0.8198  0.1192  0.4927
11005SOL     OW37571   5.488   1.142   9.213 -0.2532  0.2473  0.5713
11005SOL    HW137572   5.514   1.113   9.300 -0.4718 -0.1351  0.5114
11005SOL    HW237573   5.507   1.236   9.212 -0.5710  0.3185  1.1446
11006SOL     OW37574   4.251   8.864   5.434  0.0419 -0.2648  0.2941
11006SOL    HW137575   4.307   8.860   5.512  0.5712  0.0291 -0.0706
11006SOL    HW237576   4.251   8.956   5.408 -2.3353  0.1803  1.5237
11007SOL     OW37577  10.779  10.523   5.207  0.1107  0.0458  0.3910
11007SOL    HW137578  10.704  10.583   5.201 -0.0297 -0.0689  0.9385
11007SOL    HW237579  10.791  10.492   5.118  0.8814  1.7232 -0.1304
11008SOL     OW37580   2.859   4.384   4.330  0.7777 -0.4301 -0.6247
11008SOL    HW137581   2.814   4.300   4.340  0.4642 -0.0761  1.2901
11008SOL    HW237582   2.792   4.450   4.345  1.1959  0.1680 -1.3072
11009SOL     OW37583   7.623  11.675   3.950  0.0649  0.4063 -0.3681
11009SOL    HW137584   7.578  11.734   4.011  2.4293  0.6278  1.2974
11009SOL    HW237585   7.603  11.587   3.982  2.0754  0.5336  1.4619
11010SOL     OW37586   2.251   9.056   2.372 -0.1449 -0.1623  0.6958
11010SOL    HW137587   2.266   9.029   2.281  0.3971  0.7124  0.5112
11010SOL    HW237588   2.239   8.974   2.420 -0.1628 -0.6447 -0.1164
11011SOL     OW37589   4.021  11.514   8.132 -0.4020 -0.6099  0.1058
11011SOL    HW137590   3.965  11.578   8.087  0.3144 -0.3235 -0.3842
11011SOL    HW237591   4.106  11.557   8.139  0.3699 -1.8533 -1.0851
11012SOL     OW37592   2.566   2.571   8.541  0.1791 -0.6394 -0.1118
11012SOL    HW137593   2.511   2.580   8.618 -0.3326 -3.0124 -0.1270
11012SOL    HW237594   2.531   2.635   8.479  0.2666  0.9245  1.3866
11013SOL     OW37595  10.594   5.899   2.129  0.3939 -0.0386 -0.5556
11013SOL    HW137596  10.591   5.951   2.210  0.4233 -0.1033 -0.5127
11013SOL    HW237597  10.552   5.815   2.153  1.7653 -0.6379 -0.1825
11014SOL     OW37598  10.936   6.439   7.851 -0.5298  0.5840  0.4247
11014SOL    HW137599  10.964   6.374   7.786  1.0630  0.6104  1.0500
11014SOL    HW237600  10.847   6.462   7.824  0.2066  0.9091 -2.0006
11015SOL     OW37601   9.589   3.380   8.057  0.5223 -0.0553  0.0434
11015SOL    HW137602   9.509   3.387   8.005  0.4980  1.1376  0.2193
11015SOL    HW237603   9.573   3.305   8.115  0.0743 -0.6511 -0.8246
11016SOL     OW37604   7.690   9.315   5.755  0.1694  0.7639 -0.4451
11016SOL    HW137605   7.719   9.375   5.824  0.7621  0.0679 -0.0791
11016SOL    HW237606   7.771   9.281   5.716 -0.0491 -1.8789  1.1749
11017SOL     OW37607   9.261   7.884   9.182 -0.2421 -0.1373 -0.2395
11017SOL    HW137608   9.284   7.793   9.195 -1.3566 -0.3670  0.2780
11017SOL    HW237609   9.224   7.887   9.093 -2.2717 -0.6796  0.5169
11018SOL     OW37610   3.372   9.508   0.621  0.2388 -0.0043 -0.5956
11018SOL    HW137611   3.331   9.445   0.680 -1.2963  1.7315  0.2899
11018SOL    HW237612   3.452   9.465   0.591 -1.3224 -2.8651 -0.9995
11019SOL     OW37613   1.519   7.857   1.279  0.6678 -0.0283  0.1289
11019SOL    HW137614   1.544   7.796   1.348  1.9642 -0.4981 -0.7191
11019SOL    HW237615   1.583   7.842   1.209  0.1825  1.3369 -0.6530
11020SOL     OW37616   0.311   8.379   0.425  0.0975  0.2219  0.2757
11020SOL    HW137617   0.239   8.320   0.446 -0.0136  0.0388 -0.5883
11020SOL    HW237618   0.385   8.322   0.407  0.0992  0.3548 -0.1590
11021SOL     OW37619  10.979   5.607  11.666 -0.2777 -0.8747 -0.1549
11021SOL    HW137620  10.930   5.617  11.584  0.5685  0.2655 -0.5617
11021SOL    HW237621  10.913   5.587  11.731 -1.3815  0.9325 -0.6242
11022SOL     OW37622   3.758   9.695   5.947  0.4409 -0.0112  0.4202
11022SOL    HW137623   3.812   9.616   5.939  0.3785 -0.0479  0.3649
11022SOL    HW237624   3.816   9.759   5.987  0.8449  0.2691 -0.5832
11023SOL     OW37625  11.129   3.374   8.300  0.1892  0.8254  0.0489
11023SOL    HW137626  11.058   3.379   8.236 -0.2242  0.5902  0.4863
11023SOL    HW237627  11.206   3.349   8.249 -0.2985 -0.1076 -0.2377
11024SOL     OW37628   0.523  11.924   9.974  0.0020  0.1528  0.6015
11024SOL    HW137629   0.562  11.975  10.045  2.2624 -0.3835 -0.1850
11024SOL    HW237630   0.547  11.971   9.894 -0.7364 -0.3604  0.0698
11025SOL     OW37631   2.282   1.264   5.423 -0.1077 -0.2660 -0.5617
11025SOL    HW137632   2.187   1.270   5.412 -0.3353 -1.9445  0.1027
11025SOL    HW237633   2.303   1.330   5.488 -0.8987 -0.2262 -0.3357
11026SOL     OW37634   2.065   7.529   4.572  0.8124  0.1806 -0.3986
11026SOL    HW137635   2.126   7.534   4.645  0.6406 -0.3543 -0.2103
11026SOL    HW237636   2.068   7.438   4.544 -1.4023 -0.4057  0.9604
11027SOL     OW37637   6.462  10.414   7.044  0.5998  0.7679  0.0286
11027SOL    HW137638   6.375  10.439   7.011  0.8100  0.8142 -0.4935
11027SOL    HW237639   6.448  10.328   7.083  0.5072  0.3613 -0.8806
11028SOL     OW37640   4.242   1.567   1.603 -0.1696 -0.2980 -0.2260
11028SOL    HW137641   4.175   1.564   1.535  0.5006 -1.4267 -0.8607
11028SOL    HW237642   4.311   1.623   1.567 -0.8109  1.0042  0.4960
11029SOL     OW37643   5.440  10.168  11.882  0.2408 -0.0570 -0.1139
11029SOL    HW137644   5.353  10.146  11.851  0.2543  1.4290 -1.3536
11029SOL    HW237645   5.426  10.211  11.966  0.0114 -1.9585  0.8762
11030SOL     OW37646   7.573   6.751   1.254  0.6028  0.2068  0.4725
11030SOL    HW137647   7.501   6.809   1.276 -1.2914 -1.8356  0.0353
11030SOL    HW237648   7.577   6.689   1.327  0.9910 -0.5303 -0.1616
11031SOL     OW37649   4.394   7.856   6.547 -0.5954  0.1319 -0.1790
11031SOL    HW137650   4.381   7.845   6.642  0.5799 -1.1047 -0.1288
11031SOL    HW237651   4.474   7.806   6.528 -0.0779  1.4385 -1.6155
11032SOL     OW37652   7.629   0.496   7.054 -0.1868  0.4047  0.0321
11032SOL    HW137653   7.561   0.519   6.992 -0.2670  0.1970  0.0422
11032SOL    HW237654   7.600   0.413   7.093  0.5781 -0.2405 -0.7283
11033SOL     OW37655   8.639  11.912   0.765  0.5106 -0.1681  0.1175
11033SOL    HW137656   8.685  11.968   0.702  0.5620  1.8201  1.8109
11033SOL    HW237657   8.696  11.910   0.842 -1.0078  0.2337  1.3177
11034SOL     OW37658   5.785   9.226   5.279 -0.1393  0.3088 -0.4007
11034SOL    HW137659   5.709   9.210   5.334 -1.6030  2.7618 -1.5417
11034SOL    HW237660   5.751   9.274   5.204  2.3490  0.3108 -1.6446
11035SOL     OW37661   5.637   7.538   7.661 -0.4091 -0.3580  0.2553
11035SOL    HW137662   5.665   7.537   7.569 -0.4708 -0.2469  0.2356
11035SOL    HW237663   5.707   7.584   7.707 -0.9774  0.7306  0.0703
11036SOL     OW37664   0.998   9.674   8.845 -0.6353 -0.0155  0.2977
11036SOL    HW137665   0.905   9.689   8.862 -0.7827 -0.7004  0.1099
11036SOL    HW237666   1.005   9.580   8.832  0.4517 -0.2844  2.4558
11037SOL     OW37667   3.748   2.838  10.035  0.3381  0.0510  0.1928
11037SOL    HW137668   3.826   2.826   9.981  0.1438 -1.2293  0.1619
11037SOL    HW237669   3.741   2.933  10.046  0.1056  0.4357 -2.4635
11038SOL     OW37670   1.350   0.523   3.180  0.0561  0.4575 -0.2400
11038SOL    HW137671   1.322   0.597   3.235  0.0263  1.4757 -1.5496
11038SOL    HW237672   1.371   0.564   3.096 -4.3901 -1.4417 -2.6359
11039SOL     OW37673   3.313   3.823   5.231  0.1757 -1.1295 -0.0908
11039SOL    HW137674   3.326   3.917   5.241 -0.9855 -0.8082 -1.2858
11039SOL    HW237675   3.397   3.784   5.257  1.2861  0.3645 -1.2411
11040SOL     OW37676   4.011   1.369   6.815  0.0055 -0.4906  0.1364
11040SOL    HW137677   3.991   1.439   6.753  1.6984  1.2918  1.4866
11040SOL    HW237678   3.925   1.337   6.844 -0.8571  1.7813  0.2755
11041SOL     OW37679  12.104   4.596   8.797  0.5849  0.0995 -0.1776
11041SOL    HW137680  12.058   4.515   8.820  1.6631 -0.8819 -1.3474
11041SOL    HW237681  12.042   4.665   8.821 -0.4074 -1.0521  0.7588
11042SOL     OW37682   6.236   9.857  11.239  0.5064  0.4542 -0.4492
11042SOL    HW137683   6.275   9.814  11.315  2.1892 -0.4298 -1.7461
11042SOL    HW237684   6.212   9.785  11.180 -0.1748  1.1427 -1.0363
11043SOL     OW37685   6.357   4.493   6.791 -0.6823  0.2672  0.6846
11043SOL    HW137686   6.418   4.483   6.718 -0.1863  0.6605  1.0340
11043SOL    HW237687   6.356   4.588   6.808  1.3793 -0.0026  2.9770
11044SOL     OW37688   5.266   2.722   3.760  0.1789  0.1229  0.0074
11044SOL    HW137689   5.235   2.778   3.689 -0.5113 -0.0349  0.1799
11044SOL    HW237690   5.201   2.733   3.829  1.1173  0.6763  0.8223
11045SOL     OW37691  10.425  11.520   2.348 -0.0977 -0.2238  0.2124
11045SOL    HW137692  10.482  11.483   2.282  0.9470  0.6048  0.6186
11045SOL    HW237693  10.437  11.615   2.341 -0.3622 -0.0948  1.2333
11046SOL     OW37694   9.766   7.467   8.242 -0.5959 -0.3221  0.2285
11046SOL    HW137695   9.733   7.542   8.192 -0.7141 -1.8039 -2.0284
11046SOL    HW237696   9.857   7.458   8.216 -0.6457 -1.0923  0.2862
11047SOL     OW37697   3.033   8.701   5.364  0.4296 -0.0406 -0.0290
11047SOL    HW137698   2.987   8.667   5.287 -0.1180  0.1664  0.2053
11047SOL    HW237699   3.059   8.790   5.338  1.8165 -0.5852 -0.6224
11048SOL     OW37700   1.358   3.833   6.492  0.6362 -0.5785  0.5217
11048SOL    HW137701   1.362   3.891   6.568  1.7714  0.2658 -0.1463
11048SOL    HW237702   1.337   3.747   6.528 -2.4687  0.4196  1.4188
11049SOL     OW37703  11.494   4.293   3.304  0.4759  0.2813  0.1495
11049SOL    HW137704  11.509   4.382   3.273 -1.3738 -0.4133 -3.1962
11049SOL    HW237705  11.399   4.286   3.312  0.6490 -1.1251  1.2654
11050SOL     OW37706   6.112   5.496   6.836  0.0677  0.0683  0.1140
11050SOL    HW137707   6.074   5.573   6.793  0.2124 -0.5724 -1.2121
11050SOL    HW237708   6.181   5.531   6.892  0.6832  0.8560 -1.0951
11051SOL     OW37709   5.809   7.081  10.555 -0.0052  0.0520 -0.1106
11051SOL    HW137710   5.880   7.086  10.618 -0.2210  0.4633  0.1108
11051SOL    HW237711   5.729   7.086  10.609 -0.1955  2.0992 -0.4951
11052SOL     OW37712  11.348   4.405   5.174  0.0124  0.0982 -0.3019
11052SOL    HW137713  11.339   4.500   5.180  1.6057  0.4412 -2.2760
11052SOL    HW237714  11.418   4.383   5.235 -0.4066  0.1517  0.2113
11053SOL     OW37715   4.515  10.276   7.243 -0.4022 -0.2713 -0.4186
11053SOL    HW137716   4.464  10.326   7.180  0.8288  0.9210 -0.5053
11053SOL    HW237717   4.519  10.332   7.320 -0.0810 -0.8030 -0.0445
11054SOL     OW37718   5.947   4.454   4.354  0.0254 -0.0239  0.0655
11054SOL    HW137719   5.932   4.513   4.281  0.1354 -2.0186 -1.6563
11054SOL    HW237720   6.013   4.392   4.322  1.2717 -0.0371  2.4305
11055SOL     OW37721   9.150   9.990   5.003  0.1488 -0.3194  0.4619
11055SOL    HW137722   9.197  10.011   5.084 -0.7090  0.4373  0.7775
11055SOL    HW237723   9.061   9.968   5.031  0.2882 -1.8065 -0.1229
11056SOL     OW37724   8.328   4.000   0.177 -0.5240 -0.3768 -0.1255
11056SOL    HW137725   8.290   3.940   0.114 -0.3445 -2.4576  1.6389
11056SOL    HW237726   8.256   4.021   0.236 -0.5047  0.9504 -0.5407
11057SOL     OW37727   9.631   5.239   2.644  0.0495 -0.1191  0.3772
11057SOL    HW137728   9.653   5.322   2.602 -0.9338 -0.3472 -0.6464
11057SOL    HW237729   9.536   5.233   2.636 -0.0976 -0.4720  2.1204
11058SOL     OW37730  11.948  10.978   2.129 -0.0653 -0.0736  0.5141
11058SOL    HW137731  12.036  10.947   2.107  0.2143  0.4008  0.9506
11058SOL    HW237732  11.897  10.898   2.142  0.2016 -0.3526 -0.1164
11059SOL     OW37733  11.176   3.490   7.268 -0.3312  0.6779 -0.3208
11059SOL    HW137734  11.252   3.477   7.326 -0.5847 -0.1454 -0.1642
11059SOL    HW237735  11.117   3.418   7.290 -1.4245  1.6377 -0.0302
11060SOL     OW37736   5.273   1.377   5.126 -0.3065 -0.3472 -0.7198
11060SOL    HW137737   5.225   1.446   5.082 -1.1204 -0.2285  0.2962
11060SOL    HW237738   5.230   1.296   5.099  1.1192 -0.5714 -2.5061
11061SOL     OW37739   9.657   2.513  11.161  0.2520 -0.9209  0.2836
11061SOL    HW137740   9.750   2.489  11.161  0.2393 -0.9997 -0.7257
11061SOL    HW237741   9.654   2.599  11.120 -0.3154 -1.7973 -1.5972
11062SOL     OW37742   3.947   0.900   5.730 -0.2148  0.3857 -0.0544
11062SOL    HW137743   4.014   0.836   5.706 -1.7131 -1.6833  0.9826
11062SOL    HW237744   3.974   0.933   5.816  0.3827  0.9286 -0.4421
11063SOL     OW37745   5.182   3.939   5.103  1.2771 -0.3030  0.1511
11063SOL    HW137746   5.133   3.926   5.185 -0.8095  0.1679 -0.9458
11063SOL    HW237747   5.265   3.978   5.131  0.3019  0.6130  1.9794
11064SOL     OW37748   8.873   4.761   2.667 -0.4547 -0.2884 -0.3772
11064SOL    HW137749   8.902   4.714   2.588 -2.8916 -0.8541 -1.0251
11064SOL    HW237750   8.953   4.778   2.716  1.0590 -0.5614 -2.6323
11065SOL     OW37751   8.398   7.945  10.121 -0.0734 -0.2025  0.2068
11065SOL    HW137752   8.403   8.021  10.062  0.3875  0.4004  0.9869
11065SOL    HW237753   8.437   7.977  10.202  0.1120 -1.2866  0.5525
11066SOL     OW37754   0.535  11.731   1.488  0.0906  0.3852 -0.2315
11066SOL    HW137755   0.507  11.692   1.405 -1.9209  1.6089 -0.1886
11066SOL    HW237756   0.630  11.733   1.482  0.1296 -1.7977 -1.4393
11067SOL     OW37757   4.646  10.632   0.830  0.0788 -0.6471 -0.0429
11067SOL    HW137758   4.723  10.689   0.833  0.9140 -1.7575  1.4722
11067SOL    HW237759   4.582  10.674   0.887 -0.3143  0.0905 -1.0109
11068SOL     OW37760   2.743  10.335   3.774 -0.3203  0.2581  0.0096
11068SOL    HW137761   2.726  10.332   3.868  2.0234 -2.7326  0.5057
11068SOL    HW237762   2.812  10.400   3.764 -0.0709  0.0781  0.5041
11069SOL     OW37763   5.481  11.317   5.551  0.4885  0.0099 -0.2166
11069SOL    HW137764   5.519  11.322   5.638 -1.4424 -0.5573  0.7116
11069SOL    HW237765   5.467  11.223   5.536 -1.6371  0.2345  0.0346
11070SOL     OW37766   5.820  11.430  11.014  0.1664 -0.2728 -0.0720
11070SOL    HW137767   5.745  11.474  11.054  0.3007  0.0762 -0.1975
11070SOL    HW237768   5.879  11.501  10.990 -1.4269 -0.0449 -4.1142
11071SOL     OW37769   3.923   6.536   3.252 -0.0117 -0.3919 -0.2233
11071SOL    HW137770   3.911   6.520   3.346 -0.9440 -2.8542 -0.6952
11071SOL    HW237771   3.878   6.619   3.236  0.2723  0.1338  1.5039
11072SOL     OW37772   3.727   1.404   6.901 -0.6776 -0.4250 -0.0262
11072SOL    HW137773   3.671   1.394   6.823  0.3971 -0.8343 -0.7773
11072SOL    HW237774   3.714   1.323   6.950  0.0578 -1.0018 -0.7559
11073SOL     OW37775   8.720   8.072   4.677  0.1028 -0.2623 -0.0179
11073SOL    HW137776   8.644   8.028   4.714 -1.0221  0.4930 -1.3541
11073SOL    HW237777   8.755   8.124   4.750 -1.1895  0.0695  0.3924
11074SOL     OW37778   5.339   0.482   3.507 -0.7786  0.5557  0.4609
11074SOL    HW137779   5.269   0.429   3.547 -0.1960 -1.1606 -0.6644
11074SOL    HW237780   5.420   0.444   3.541 -0.3466  1.1087  0.0689
11075SOL     OW37781   8.881   2.157  10.302  0.1764 -0.5759 -0.0996
11075SOL    HW137782   8.820   2.211  10.251 -0.3129 -1.0946 -0.0646
11075SOL    HW237783   8.967   2.183  10.270 -0.0408  0.3464  0.0278
11076SOL     OW37784   1.838   0.383  11.780  0.0347 -0.2349  0.2671
11076SOL    HW137785   1.779   0.439  11.730  2.1450  0.4125 -1.7003
11076SOL    HW237786   1.781   0.323  11.827 -2.2347  1.8831  0.4141
11077SOL     OW37787   3.248   1.881   0.174 -0.1070  0.0649 -0.0974
11077SOL    HW137788   3.192   1.847   0.104  1.2791  0.0839 -1.2668
11077SOL    HW237789   3.226   1.829   0.251 -1.3623 -0.2512 -0.6593
11078SOL     OW37790   8.623   0.541   9.571  0.5918  0.5762  0.4900
11078SOL    HW137791   8.675   0.588   9.507  1.6857 -0.4950  0.5613
11078SOL    HW237792   8.637   0.448   9.551 -2.6365  0.1748 -0.5816
11079SOL     OW37793  10.530   3.428   5.605 -0.1541  0.4664  0.3244
11079SOL    HW137794  10.568   3.351   5.648  1.3500  0.8187 -0.3060
11079SOL    HW237795  10.514   3.490   5.676  1.2622  0.6186  0.5449
11080SOL     OW37796  10.718   1.568   1.082 -0.2193 -0.5291  0.0421
11080SOL    HW137797  10.789   1.511   1.052  0.8153  0.3852  0.6631
11080SOL    HW237798  10.663   1.512   1.136  0.2573 -1.1632 -0.1214
11081SOL     OW37799   2.641   2.862  11.763  0.2097 -0.5032 -0.1440
11081SOL    HW137800   2.667   2.771  11.749  2.4119  0.0132  0.1776
11081SOL    HW237801   2.655   2.877  11.856 -0.0195  0.2037 -0.2163
11082SOL     OW37802   1.000   3.384   6.506 -0.0104 -0.3416  0.1027
11082SOL    HW137803   0.938   3.412   6.438  2.1747  3.1607 -0.7007
11082SOL    HW237804   1.075   3.350   6.458  0.1826 -1.1490  0.9375
11083SOL     OW37805   8.604  11.896   5.948 -0.2635  0.4225 -0.1226
11083SOL    HW137806   8.540  11.949   5.901 -1.4671  1.1004  2.1587
11083SOL    HW237807   8.566  11.809   5.952 -1.7896  1.1099  2.3519
11084SOL     OW37808  11.967   5.093   0.700 -0.6365  0.0670 -0.1260
11084SOL    HW137809  12.012   5.171   0.733 -0.3740 -1.0330  2.3711
11084SOL    HW237810  11.982   5.095   0.606  0.9565  2.0283  0.0882
11085SOL     OW37811   2.096  11.157   3.063  0.1723  0.3690  0.1561
11085SOL    HW137812   2.005  11.186   3.065  0.3277  0.8441  1.6675
11085SOL    HW237813   2.144  11.232   3.029  0.2024  0.7680  1.0646
11086SOL     OW37814   5.467   5.171   5.135 -0.5130  0.0583 -0.1529
11086SOL    HW137815   5.500   5.105   5.196 -1.4055 -0.7795 -0.5508
11086SOL    HW237816   5.413   5.229   5.190 -0.9614 -0.4394 -0.0590
11087SOL     OW37817   9.430   9.618   7.064  0.3851 -0.7643  0.3921
11087SOL    HW137818   9.439   9.631   7.158 -0.4385 -0.1134  0.3878
11087SOL    HW237819   9.491   9.547   7.044  1.1031 -0.4224  1.2914
11088SOL     OW37820   3.997  11.617   6.307  0.4478 -0.4731 -0.2902
11088SOL    HW137821   4.044  11.568   6.375  2.1086  1.2928 -0.0756
11088SOL    HW237822   4.049  11.603   6.228  1.4882  1.5382 -0.0407
11089SOL     OW37823   6.431   4.964   2.111 -0.2506 -0.3196 -0.5492
11089SOL    HW137824   6.352   4.927   2.072  0.4264 -0.2863 -2.0231
11089SOL    HW237825   6.401   5.040   2.160 -1.1338 -0.3862 -0.9822
11090SOL     OW37826   8.495   9.371   0.217 -0.1527 -0.6436  0.5149
11090SOL    HW137827   8.502   9.463   0.243  1.8124 -0.4399 -0.5173
11090SOL    HW237828   8.555   9.326   0.277  2.7451 -0.4659 -1.9748
11091SOL     OW37829   6.250   0.596   2.776  0.0957 -0.0830 -0.2663
11091SOL    HW137830   6.165   0.605   2.820  1.5491 -0.9657  3.0982
11091SOL    HW237831   6.302   0.669   2.811  1.4965 -1.1221 -0.1120
11092SOL     OW37832   3.317   5.385  10.145  0.3108 -0.4322  0.0642
11092SOL    HW137833   3.317   5.439  10.223  0.1419 -0.3297 -0.0042
11092SOL    HW237834   3.289   5.298  10.175  0.9691 -0.5891  0.2420
11093SOL     OW37835   1.005   7.518   6.658  0.1783  0.6678 -0.3957
11093SOL    HW137836   0.929   7.548   6.708 -0.1908 -0.4495 -0.2482
11093SOL    HW237837   1.059   7.471   6.722  1.5237  2.3015 -0.2713
11094SOL     OW37838  10.855  10.546  11.739  0.1589  1.0756  0.0486
11094SOL    HW137839  10.884  10.457  11.759  0.1967  1.3289  1.1677
11094SOL    HW237840  10.936  10.596  11.731  0.2982  0.5375 -3.2028
11095SOL     OW37841   6.213   6.493   1.813 -0.1891  0.4568 -0.6552
11095SOL    HW137842   6.282   6.466   1.752  2.3792  0.8584  1.8869
11095SOL    HW237843   6.173   6.569   1.771 -0.0755 -0.5961 -2.8177
11096SOL     OW37844   3.283  10.439   1.638  0.3382 -0.2071 -0.3933
11096SOL    HW137845   3.377  10.445   1.621  0.4725  0.7274  0.6112
11096SOL    HW237846   3.275  10.375   1.709  0.2683  0.2100 -0.0266
11097SOL     OW37847  11.418   8.705  10.015 -0.1150 -0.2975  0.0091
11097SOL    HW137848  11.513   8.714  10.006 -0.1978  0.1204 -0.5117
11097SOL    HW237849  11.388   8.679   9.927 -0.4777 -0.4618  0.1780
11098SOL     OW37850   3.133  10.101   0.160  0.4042 -0.2326 -0.0228
11098SOL    HW137851   3.215  10.150   0.161  0.2096  0.1312 -0.8759
11098SOL    HW237852   3.131  10.056   0.244  0.9256  0.6689  0.4852
11099SOL     OW37853   9.517   7.157   7.081  0.3198 -0.5851  0.2909
11099SOL    HW137854   9.526   7.179   6.988  0.9013 -1.1557  0.2115
11099SOL    HW237855   9.514   7.242   7.125 -1.9685 -0.2331 -0.4046
11100SOL     OW37856   5.800   5.112   5.527 -0.6609  0.0432  0.3233
11100SOL    HW137857   5.740   5.038   5.540  0.6066 -1.1448 -0.2860
11100SOL    HW237858   5.773   5.176   5.592 -1.3036 -1.2876  1.4201
11101SOL     OW37859   7.103   5.405   1.590 -0.2619 -0.5492 -0.3824
11101SOL    HW137860   7.152   5.386   1.670 -2.9021 -0.0470  1.4720
11101SOL    HW237861   7.161   5.463   1.540  1.1586 -0.2262  1.5215
11102SOL     OW37862   7.501   9.851   6.794 -0.3737 -0.0133 -0.3344
11102SOL    HW137863   7.547   9.827   6.874 -0.3633  0.8354 -0.0786
11102SOL    HW237864   7.501   9.947   6.794  0.9296  0.0469 -2.0809
11103SOL     OW37865   1.895  11.376  11.883  0.7022  0.0814  0.1843
11103SOL    HW137866   1.958  11.310  11.853  0.9138  0.3376  0.0650
11103SOL    HW237867   1.941  11.424  11.952 -0.0597 -1.0236  1.5032
11104SOL     OW37868   4.333   3.451   1.029 -0.2137  0.2808 -0.0347
11104SOL    HW137869   4.250   3.417   1.060  0.3150 -0.4041  0.6625
11104SOL    HW237870   4.316   3.544   1.011 -0.9675  0.2826  0.6687
11105SOL     OW37871   5.238   5.415   4.808 -0.2427  0.0600  0.0829
11105SOL    HW137872   5.203   5.327   4.794 -1.8925  0.2226  2.5477
11105SOL    HW237873   5.161   5.472   4.804  0.4887  1.1084  0.6222
11106SOL     OW37874  11.495   9.426   6.865 -0.0376  0.5777 -0.5414
11106SOL    HW137875  11.542   9.391   6.790  2.3166  2.2757  0.0279
11106SOL    HW237876  11.411   9.455   6.829 -0.3180 -1.6188 -1.8080
11107SOL     OW37877   7.987  11.517   9.695 -0.1689 -0.6348 -0.5888
11107SOL    HW137878   8.072  11.491   9.732  0.1481  0.3234 -0.6110
11107SOL    HW237879   7.927  11.511   9.769  0.2324  0.1544 -0.1856
11108SOL     OW37880   2.381   0.324   0.372 -0.1422 -0.1776 -0.6135
11108SOL    HW137881   2.473   0.304   0.387 -0.0602 -0.0493 -0.9237
11108SOL    HW237882   2.369   0.412   0.408 -0.1707 -0.2407 -0.4698
11109SOL     OW37883   4.073  10.367   4.253  0.4025  0.1696 -0.8664
11109SOL    HW137884   4.061  10.282   4.296  0.9417  0.5831  0.1272
11109SOL    HW237885   4.148  10.355   4.195 -0.1380 -0.3020 -1.4888
11110SOL     OW37886   9.908  11.663   3.823  0.4737 -0.3123  0.5417
11110SOL    HW137887   9.824  11.700   3.797  0.5049  0.2434  1.2060
11110SOL    HW237888   9.967  11.738   3.827  0.9406 -0.6653  0.3333
11111SOL     OW37889   5.559   8.073   1.725  0.2381 -0.1269  0.4817
11111SOL    HW137890   5.468   8.046   1.734  0.5866 -1.0165  1.6110
11111SOL    HW237891   5.581   8.055   1.634  0.5024 -4.0943  1.1398
11112SOL     OW37892   8.287   3.993  10.240  0.0160  0.1694 -0.1567
11112SOL    HW137893   8.309   4.060  10.305 -1.1219 -1.1038  1.6277
11112SOL    HW237894   8.372   3.965  10.206  0.6548  0.7497  0.8957
11113SOL     OW37895   1.953   8.935   5.981 -0.4935 -0.4325 -0.2313
11113SOL    HW137896   1.925   9.023   5.955 -1.0848 -0.0515  1.5893
11113SOL    HW237897   1.873   8.890   6.005 -0.0050 -0.7684  0.8413
11114SOL     OW37898   8.052   5.629   6.871  0.4184 -0.3843 -0.6615
11114SOL    HW137899   8.022   5.720   6.870  0.2976 -0.4085  0.0966
11114SOL    HW237900   7.974   5.578   6.850 -0.3406 -0.4943  2.0093
11115SOL     OW37901   8.037   2.572   7.081 -0.3158 -0.4275  0.1070
11115SOL    HW137902   8.078   2.486   7.090  3.4105  1.2095  0.6643
11115SOL    HW237903   7.989   2.584   7.163 -0.4327 -1.7080  0.2566
11116SOL     OW37904  11.936   6.742   1.043  0.1236 -0.7113  0.4761
11116SOL    HW137905  11.951   6.831   1.010  0.7751 -1.2386 -0.7167
11116SOL    HW237906  11.942   6.687   0.966  0.2227 -1.8566  1.2780
11117SOL     OW37907   7.029   4.616   8.033  0.1383  0.3705 -0.3853
11117SOL    HW137908   6.934   4.607   8.046  0.2727 -0.1345  0.3346
11117SOL    HW237909   7.052   4.697   8.079  0.5517 -1.2143  2.4585
11118SOL     OW37910   3.472   2.676   1.844  0.1129 -0.1681 -0.5863
11118SOL    HW137911   3.464   2.626   1.763 -1.4678 -0.0794 -0.5120
11118SOL    HW237912   3.461   2.611   1.913 -1.0338  0.1180 -0.4814
11119SOL     OW37913   3.530   4.451   1.641 -0.0861  0.0981  0.6402
11119SOL    HW137914   3.544   4.356   1.640 -0.4728  0.0370  0.8820
11119SOL    HW237915   3.479   4.467   1.720  0.6543  0.6080  1.0225
11120SOL     OW37916   3.305   2.535   2.748  0.7395  0.4918 -0.2879
11120SOL    HW137917   3.310   2.568   2.838 -0.7924 -1.3365  0.5215
11120SOL    HW237918   3.226   2.575   2.712  0.3921 -0.1408 -0.2302
11121SOL     OW37919   2.205   0.075   4.436  0.0692  0.2420  0.0706
11121SOL    HW137920   2.210   0.032   4.351  0.2791 -1.4029  0.8739
11121SOL    HW237921   2.259   0.021   4.493 -0.6056  0.9375  1.4113
11122SOL     OW37922   5.507   1.071  11.258  0.2891 -0.4097 -0.7174
11122SOL    HW137923   5.462   1.099  11.338  1.1960 -1.4756  0.2000
11122SOL    HW237924   5.554   1.149  11.228 -0.0702  0.0045 -0.2103
11123SOL     OW37925   7.901   7.901   4.140  0.4993  0.4269  0.3942
11123SOL    HW137926   7.849   7.965   4.092 -1.8734 -0.8373  1.0997
11123SOL    HW237927   7.933   7.949   4.217 -1.8161  0.7030  1.2809
11124SOL     OW37928   6.096   7.123   8.350 -0.1118 -0.8430 -0.3598
11124SOL    HW137929   6.183   7.098   8.379 -0.7197 -2.0162  0.4939
11124SOL    HW237930   6.058   7.169   8.424  0.2116  0.8254 -1.1749
11125SOL     OW37931   5.936   6.856   0.976 -0.2049 -0.2000  0.6778
11125SOL    HW137932   5.884   6.936   0.967 -0.7890 -0.6758 -0.4738
11125SOL    HW237933   5.912   6.803   0.899  2.4104 -0.1979 -0.2734
11126SOL     OW37934   8.348   3.793   3.559  0.4807 -0.4976  0.2243
11126SOL    HW137935   8.395   3.788   3.476  0.5198 -1.2510  0.2864
11126SOL    HW237936   8.292   3.716   3.560  0.4930 -0.5041  0.8985
11127SOL     OW37937   7.768   2.271   6.356  0.2808 -0.3768  0.0254
11127SOL    HW137938   7.802   2.253   6.268  1.0495  0.9238  0.0217
11127SOL    HW237939   7.673   2.272   6.346  0.2612 -2.3969 -0.3230
11128SOL     OW37940   7.049  11.064   4.495  0.6152  0.9100 -0.0437
11128SOL    HW137941   7.093  11.058   4.579  0.2765  1.0498  0.1464
11128SOL    HW237942   7.066  11.153   4.465 -3.1690  2.6281  2.1034
11129SOL     OW37943   5.344   9.218   6.199  0.0676 -0.1118  0.0187
11129SOL    HW137944   5.385   9.201   6.284  0.8979 -2.6363 -0.8215
11129SOL    HW237945   5.407   9.273   6.152  0.7930 -0.8603  0.1052
11130SOL     OW37946   0.281   9.703   0.150 -0.0628 -0.0359  0.2114
11130SOL    HW137947   0.294   9.777   0.091 -0.8475  0.6771  0.9069
11130SOL    HW237948   0.196   9.667   0.126  0.3887 -0.8415 -0.2393
11131SOL     OW37949   1.873   3.885   7.439 -0.0331 -0.6022  0.4644
11131SOL    HW137950   1.885   3.948   7.367 -1.7890  1.3158  1.7314
11131SOL    HW237951   1.853   3.803   7.395 -1.5414  0.6170 -1.3021
11132SOL     OW37952   9.575   5.209   3.278  0.1770 -0.0986 -0.5368
11132SOL    HW137953   9.586   5.224   3.372 -0.7872 -0.7321 -0.3074
11132SOL    HW237954   9.628   5.277   3.236  0.9969 -0.1000  0.4605
11133SOL     OW37955   0.136   8.459   1.750 -0.5553  0.4647  0.0354
11133SOL    HW137956   0.119   8.375   1.708 -0.5730  0.1874  0.5968
11133SOL    HW237957   0.219   8.448   1.795  0.0973  1.1585 -0.9461
11134SOL     OW37958   4.369   2.626  12.089 -0.1922  0.0574 -1.0082
11134SOL    HW137959   4.410   2.701  12.133  0.1027 -0.4955 -0.3245
11134SOL    HW237960   4.279   2.625  12.122  0.0178 -0.3346 -0.4212
11135SOL     OW37961   1.004   6.782   6.791 -0.3143  0.4047  0.0937
11135SOL    HW137962   0.981   6.689   6.797  0.9265  0.0930  0.1877
11135SOL    HW237963   1.099   6.784   6.802  0.3658  1.2425 -4.2303
11136SOL     OW37964   0.025   1.332   9.839  0.5541  0.2586 -0.0768
11136SOL    HW137965   0.013   1.251   9.888  2.6624 -0.8796 -1.3133
11136SOL    HW237966   0.044   1.398   9.905 -0.7628 -0.2984  0.9133
11137SOL     OW37967  10.835   1.290   9.848  0.0288  0.3106  0.3182
11137SOL    HW137968  10.839   1.244   9.764  2.1469 -0.8897  0.9959
11137SOL    HW237969  10.824   1.382   9.824 -0.7122 -0.1394 -1.2125
11138SOL     OW37970   8.255  10.200   1.782 -0.0467 -0.5660 -0.3239
11138SOL    HW137971   8.234  10.123   1.834  0.5442 -0.1814  0.5080
11138SOL    HW237972   8.325  10.244   1.831 -1.3322  1.2654 -0.0217
11139SOL     OW37973   0.290   2.133  11.229 -0.1624  0.2996  0.5372
11139SOL    HW137974   0.342   2.075  11.174 -1.7112 -0.4305 -0.2171
11139SOL    HW237975   0.222   2.077  11.266  2.2718  0.0652  5.4662
11140SOL     OW37976  11.087   2.608   2.539  0.8088  0.7364  0.0268
11140SOL    HW137977  11.044   2.533   2.580  0.0970 -0.6424 -2.9761
11140SOL    HW237978  11.173   2.612   2.581  0.5368 -1.2332  0.8860
11141SOL     OW37979   3.709  10.315   6.461  0.1306  0.1699  0.2195
11141SOL    HW137980   3.684  10.302   6.369 -0.0357  1.3725  0.0837
11141SOL    HW237981   3.724  10.409   6.469  1.8462 -0.1432  1.0124
11142SOL     OW37982  10.633  10.276  11.926 -0.0972  0.0729  0.2634
11142SOL    HW137983  10.580  10.334  11.872  0.2364 -0.4491 -0.6480
11142SOL    HW237984  10.581  10.197  11.935 -1.0067  0.8209  2.3649
11143SOL     OW37985   4.039   9.791   6.658 -0.3970 -0.1002  0.2052
11143SOL    HW137986   3.961   9.837   6.625 -0.3007  0.1475  0.3172
11143SOL    HW237987   4.004   9.720   6.712 -0.5544  0.5175  0.9503
11144SOL     OW37988  10.070   0.516   1.904 -0.3800  0.2873 -0.2596
11144SOL    HW137989  10.109   0.516   1.817  0.9083  1.2365  0.2775
11144SOL    HW237990  10.076   0.426   1.934  0.0080  0.1336 -0.7899
11145SOL     OW37991   2.790   6.884   4.715  0.4708  0.1926 -0.2265
11145SOL    HW137992   2.792   6.791   4.736 -0.0935  0.1834 -0.1962
11145SOL    HW237993   2.702   6.912   4.739  1.4229  1.3235  2.2216
11146SOL     OW37994   1.653   0.377   6.066  0.3914  0.0501  0.1454
11146SOL    HW137995   1.736   0.376   6.113  0.2726  0.6477  0.3726
11146SOL    HW237996   1.612   0.460   6.090  1.0938  1.2184 -2.3374
11147SOL     OW37997   0.098  11.911  11.163 -0.1535 -0.3411  0.4885
11147SOL    HW137998   0.149  11.837  11.195  1.2455 -0.1357 -1.1376
11147SOL    HW237999   0.125  11.985  11.216 -0.2374 -0.6343  0.9416
11148SOL     OW38000   3.708   2.137  10.223  0.2813  0.4651 -0.3687
11148SOL    HW138001   3.629   2.094  10.192  0.5805 -1.9247  1.7897
11148SOL    HW238002   3.681   2.225  10.248 -1.5974 -0.1613 -0.0918
11149SOL     OW38003   9.365   2.316  10.439 -0.2801 -0.5120 -0.1381
11149SOL    HW138004   9.446   2.267  10.426 -0.7145 -1.1061 -0.6484
11149SOL    HW238005   9.302   2.250  10.469 -0.0733  0.2804  2.2648
11150SOL     OW38006   3.199   0.524   1.514 -0.3617 -0.7827 -0.6799
11150SOL    HW138007   3.177   0.449   1.570 -0.8308 -0.5435 -0.5447
11150SOL    HW238008   3.116   0.570   1.502  0.0526  0.1146 -0.1840
11151SOL     OW38009  11.890   3.940   3.403  0.2883  0.2341  0.0328
11151SOL    HW138010  11.846   3.878   3.462  1.7605 -0.0826  0.8674
11151SOL    HW238011  11.826   4.009   3.388 -1.0583 -0.9976 -0.1416
11152SOL     OW38012   9.408   2.546   7.182  0.0583 -0.0113 -0.4124
11152SOL    HW138013   9.416   2.604   7.106 -0.5804 -1.3011 -1.5062
11152SOL    HW238014   9.458   2.468   7.158 -0.6605 -0.6864  0.2330
11153SOL     OW38015   6.512  11.708   7.641 -0.3726  0.4366 -0.4534
11153SOL    HW138016   6.480  11.798   7.645 -0.0468  0.5074  0.7382
11153SOL    HW238017   6.433  11.655   7.632 -0.6469  0.7760 -0.0847
11154SOL     OW38018   3.610   5.771   7.210  0.2448 -0.0705  0.4997
11154SOL    HW138019   3.535   5.730   7.254  0.8740 -0.8287  0.8877
11154SOL    HW238020   3.682   5.764   7.273  0.9076 -0.2878 -0.2588
11155SOL     OW38021   0.100   0.825   2.101  0.2801  0.2261  0.0937
11155SOL    HW138022   0.149   0.791   2.026  1.8145  1.4636  0.4812
11155SOL    HW238023   0.024   0.768   2.108  0.7250 -0.6467 -1.6642
11156SOL     OW38024  11.128   5.871   9.645  0.1301 -0.5897 -0.1553
11156SOL    HW138025  11.187   5.797   9.636  0.1961 -0.4804 -0.6387
11156SOL    HW238026  11.051   5.835   9.690 -0.7547 -1.4741 -2.2466
11157SOL     OW38027  11.059   5.292   9.350 -0.3189  0.4500 -0.1323
11157SOL    HW138028  11.071   5.347   9.273 -0.1001  1.3713  0.5381
11157SOL    HW238029  11.083   5.204   9.322  0.6411  0.9360 -0.8585
11158SOL     OW38030   6.698   8.883   7.654  0.3252  0.3978  0.3968
11158SOL    HW138031   6.778   8.856   7.609 -0.0261 -1.7866  0.9537
11158SOL    HW238032   6.725   8.956   7.709  1.4790  0.9732 -0.8785
11159SOL     OW38033   0.355  11.804  10.881 -0.7667  0.4218 -0.7237
11159SOL    HW138034   0.320  11.716  10.866 -0.5859  0.1106  0.5566
11159SOL    HW238035   0.279  11.854  10.912 -0.5232  0.2628  0.1563
11160SOL     OW38036   1.403   1.648   3.342  0.2170  0.1821 -0.0684
11160SOL    HW138037   1.470   1.585   3.370 -0.4308 -0.2950  0.4401
11160SOL    HW238038   1.346   1.597   3.284 -0.4739  0.2230  0.5733
11161SOL     OW38039   7.162   5.302   2.273 -0.3356 -0.2240 -0.8164
11161SOL    HW138040   7.152   5.240   2.345 -0.8850  0.5269 -0.2409
11161SOL    HW238041   7.072   5.329   2.252 -0.0867  0.4864 -0.9730
11162SOL     OW38042   3.945   8.401   4.475  0.2632 -0.1888 -0.2849
11162SOL    HW138043   4.021   8.352   4.508  2.3810  2.8537 -0.1700
11162SOL    HW238044   3.888   8.410   4.551  0.8161 -0.7611  0.2114
11163SOL     OW38045   8.643   2.213   2.754  0.6898 -0.1291 -0.0269
11163SOL    HW138046   8.590   2.281   2.713 -1.1173 -1.7155 -0.4804
11163SOL    HW238047   8.632   2.227   2.848  1.3326  0.9199 -0.1006
11164SOL     OW38048   7.065  11.780   0.170 -0.6779 -0.2343  0.3456
11164SOL    HW138049   7.127  11.755   0.238  0.1578 -0.2653 -0.4151
11164SOL    HW238050   7.100  11.742   0.090 -2.1055 -0.9604  0.0143
11165SOL     OW38051   1.298   2.418   4.706 -1.1003 -0.4115  0.5857
11165SOL    HW138052   1.242   2.442   4.781 -2.3111 -3.5673  0.8239
11165SOL    HW238053   1.245   2.439   4.629 -1.0305  0.1569  0.6881
11166SOL     OW38054   6.098   1.138   9.503  0.0116  0.0709 -0.3275
11166SOL    HW138055   6.128   1.122   9.592 -0.9646 -0.7948 -0.1415
11166SOL    HW238056   6.110   1.232   9.491  4.9691 -0.3908 -1.1100
11167SOL     OW38057   0.252   5.844   0.569  0.9394 -0.0845 -0.2350
11167SOL    HW138058   0.199   5.779   0.616  1.1882 -0.2983 -0.2468
11167SOL    HW238059   0.188   5.907   0.535  0.7131 -0.2123 -0.0516
11168SOL     OW38060   9.670   0.759  10.380 -0.0264  0.4128 -0.2331
11168SOL    HW138061   9.692   0.847  10.408  1.5544  0.3197 -1.0580
11168SOL    HW238062   9.653   0.767  10.286  0.4943 -0.2079 -0.3885
11169SOL     OW38063   0.305   0.031   9.756  0.1051 -0.0704 -0.0902
11169SOL    HW138064   0.233  -0.022   9.723  1.0018 -1.3764 -0.0070
11169SOL    HW238065   0.375   0.020   9.691 -0.0218  1.8672 -0.6304
11170SOL     OW38066   2.066   3.788   2.484  0.0523 -0.3147 -0.1252
11170SOL    HW138067   2.116   3.836   2.418  1.4325 -1.5877 -0.0795
11170SOL    HW238068   1.980   3.774   2.445  0.2830  0.4389 -0.9292
11171SOL     OW38069   6.101   6.890   0.490 -0.1468 -0.3015  0.1849
11171SOL    HW138070   6.064   6.802   0.487 -0.2617 -0.2220 -1.4187
11171SOL    HW238071   6.195   6.877   0.478  0.0694 -0.3109  1.7020
11172SOL     OW38072   0.057  10.489   1.685  0.1879  0.1991  0.2015
11172SOL    HW138073   0.015  10.445   1.759  0.6805 -0.1708  0.2652
11172SOL    HW238074   0.097  10.418   1.635 -0.9688  0.3311 -0.9729
11173SOL     OW38075   4.562   8.466   2.261  0.2961  0.5647  0.0633
11173SOL    HW138076   4.613   8.456   2.341  1.7167 -1.2676 -1.0007
11173SOL    HW238077   4.623   8.445   2.190 -1.6387 -0.7187 -1.3301
11174SOL     OW38078   0.668   4.819   9.881  0.5179  0.1547 -0.1021
11174SOL    HW138079   0.602   4.888   9.880 -0.5564 -0.8631 -0.4523
11174SOL    HW238080   0.711   4.829   9.966 -0.7503  0.2091  0.5581
11175SOL     OW38081   2.918  10.369   6.396  0.6508 -0.1821  0.1013
11175SOL    HW138082   2.902  10.404   6.484  0.0071 -0.3615  0.0602
11175SOL    HW238083   2.832  10.364   6.356  0.7401 -1.6696  0.0410
11176SOL     OW38084   9.772   4.388   7.347 -0.1807 -0.0340  0.3391
11176SOL    HW138085   9.855   4.360   7.309 -1.3307 -1.3090 -1.4331
11176SOL    HW238086   9.734   4.308   7.385 -1.1403  0.2260 -0.0262
11177SOL     OW38087   7.289   5.034   2.882 -0.0361  0.0077  0.0468
11177SOL    HW138088   7.224   4.965   2.870 -0.8070  0.4947  1.2154
11177SOL    HW238089   7.303   5.069   2.793  0.5999 -1.7917 -0.6120
11178SOL     OW38090   6.996   4.035   1.904  0.4642  0.1485 -0.0868
11178SOL    HW138091   6.998   4.068   1.994 -0.2780  0.5404 -0.2021
11178SOL    HW238092   6.926   3.970   1.904  1.2108 -0.6702 -0.1210
11179SOL     OW38093   7.054   1.706   6.404  0.2180  0.0647  0.6520
11179SOL    HW138094   6.977   1.762   6.396 -0.2384 -0.3744  1.8114
11179SOL    HW238095   7.038   1.635   6.342 -0.1574  0.1332  0.6663
11180SOL     OW38096   2.957   6.812  10.000 -0.0610  0.4205  0.3157
11180SOL    HW138097   2.907   6.850   9.928 -2.1137 -1.6854  0.5164
11180SOL    HW238098   3.040   6.785   9.960  0.7078  3.2764 -0.2028
11181SOL     OW38099   0.151   6.644   4.469 -0.3315  0.1629  0.5111
11181SOL    HW138100   0.174   6.717   4.526 -1.7879  2.3326 -1.4672
11181SOL    HW238101   0.227   6.635   4.410  0.5966 -1.1847  1.8330
11182SOL     OW38102   6.775  10.169   2.763 -0.0797  0.0599  0.8132
11182SOL    HW138103   6.722  10.096   2.794  0.3061 -0.4459  0.3102
11182SOL    HW238104   6.828  10.194   2.839 -0.3829 -0.0313  1.0553
11183SOL     OW38105   3.449   0.365   4.519 -0.0966 -0.0895  0.6647
11183SOL    HW138106   3.517   0.309   4.481 -0.8580 -1.0714  0.6932
11183SOL    HW238107   3.443   0.336   4.610 -0.5613 -0.0213  0.6556
11184SOL     OW38108   5.239   0.518  11.877 -0.1932  0.3100  0.3364
11184SOL    HW138109   5.179   0.469  11.933 -0.4108 -0.0746 -0.2254
11184SOL    HW238110   5.203   0.508  11.788  1.6398 -1.3951 -0.2828
11185SOL     OW38111  11.769  11.302   0.333  0.4171  0.5719 -0.2323
11185SOL    HW138112  11.839  11.240   0.313 -0.5778 -1.0381  1.0556
11185SOL    HW238113  11.710  11.298   0.258  0.8341  0.6592 -0.5654
11186SOL     OW38114   1.815   4.547   5.365  0.1338 -0.1776  0.1625
11186SOL    HW138115   1.771   4.559   5.281  1.5334  0.5512 -0.5130
11186SOL    HW238116   1.762   4.482   5.411 -0.4228 -0.9411 -1.4609
11187SOL     OW38117   4.822   2.783   6.622 -0.2584 -0.1554 -0.2391
11187SOL    HW138118   4.864   2.770   6.706  0.5250 -0.9061 -0.7336
11187SOL    HW238119   4.853   2.711   6.567  1.3105  1.6836 -1.9552
11188SOL     OW38120   1.746   2.548   4.272 -0.2988  0.7017  0.1670
11188SOL    HW138121   1.678   2.524   4.335  0.3332  1.0008  0.9825
11188SOL    HW238122   1.773   2.636   4.297  0.3300  0.6190 -0.1898
11189SOL     OW38123   0.483   5.614   5.624 -0.0586 -0.5392  0.4923
11189SOL    HW138124   0.492   5.659   5.709  0.7151  1.1863 -0.4511
11189SOL    HW238125   0.573   5.592   5.599 -0.3457 -1.7598  0.4517
11190SOL     OW38126   6.543   6.662  11.931  0.2140 -0.1142  0.1915
11190SOL    HW138127   6.616   6.700  11.979 -2.0248  1.9956  2.1786
11190SOL    HW238128   6.504   6.600  11.992 -0.9663  0.4573  0.0354
11191SOL     OW38129   7.531   8.115   2.969 -0.5563  0.1505  0.2401
11191SOL    HW138130   7.436   8.129   2.961 -0.6648 -1.4068 -2.5440
11191SOL    HW238131   7.540   8.036   3.022 -0.8167  0.1907  0.3446
11192SOL     OW38132   3.438   3.190   0.214  0.0275  0.2464 -0.3916
11192SOL    HW138133   3.485   3.265   0.176  0.0108  0.7085  0.4788
11192SOL    HW238134   3.390   3.152   0.140 -0.8803  1.7829 -0.6419
11193SOL     OW38135   4.532   7.513  10.336 -0.6833 -0.2123 -0.4241
11193SOL    HW138136   4.456   7.498  10.279 -0.4229 -0.4650 -0.7116
11193SOL    HW238137   4.552   7.427  10.372 -1.8500  0.2125  1.3653
11194SOL     OW38138   7.174   8.339   1.417 -0.2131  0.4923  0.4996
11194SOL    HW138139   7.091   8.315   1.460 -1.3593  0.6918 -1.4883
11194SOL    HW238140   7.215   8.255   1.396 -1.9069  0.1771 -2.0925
11195SOL     OW38141   9.708   5.557   2.933 -0.2403 -0.0810  1.0818
11195SOL    HW138142   9.751   5.471   2.942 -0.3371 -0.0771  1.6111
11195SOL    HW238143   9.617   5.541   2.958 -0.4010  0.0551  0.6071
11196SOL     OW38144   6.293   9.135   8.830 -0.3280 -0.0352  0.4823
11196SOL    HW138145   6.378   9.110   8.795  0.3332 -0.4800  2.3200
11196SOL    HW238146   6.292   9.101   8.920 -2.3238  0.2086  0.6142
11197SOL     OW38147   5.180   3.833   8.981 -0.2127 -0.1191 -0.0366
11197SOL    HW138148   5.107   3.879   9.022 -0.2858 -0.4610  0.2280
11197SOL    HW238149   5.140   3.784   8.909 -0.1218  0.2922 -0.3718
11198SOL     OW38150   7.110   4.340   7.224  0.1731  0.0118 -0.5307
11198SOL    HW138151   7.044   4.270   7.230  0.1929 -0.0163 -0.6329
11198SOL    HW238152   7.062   4.420   7.245  0.1565 -0.0368 -0.3821
11199SOL     OW38153   8.881   6.176   9.342 -0.1153  0.0071 -0.6014
11199SOL    HW138154   8.952   6.227   9.380 -0.6723  0.7123 -0.4773
11199SOL    HW238155   8.852   6.228   9.267 -2.0838  0.9723  0.7456
11200SOL     OW38156   6.305  11.280  11.846 -0.1085  0.2972 -0.9079
11200SOL    HW138157   6.296  11.375  11.838 -0.1200  0.2072 -2.3039
11200SOL    HW238158   6.374  11.258  11.783  1.0281 -0.4491  0.5337
11201SOL     OW38159  11.667   8.070  10.078 -0.3543  0.5566 -0.2504
11201SOL    HW138160  11.704   8.135  10.018  0.8947 -0.8803 -1.1273
11201SOL    HW238161  11.598   8.028  10.027  1.7635 -1.7887 -1.4630
11202SOL     OW38162   8.237   4.888  11.179 -0.3026  0.1917 -0.1259
11202SOL    HW138163   8.282   4.813  11.141  0.7499  0.0606  1.2968
11202SOL    HW238164   8.219   4.946  11.104  1.0931 -0.3457 -0.9056
11203SOL     OW38165   2.185   8.294   3.667  0.2315 -0.1571 -0.0967
11203SOL    HW138166   2.208   8.357   3.735 -3.2992 -0.0937  1.2397
11203SOL    HW238167   2.118   8.339   3.615  1.7789 -0.7666 -2.7999
11204SOL     OW38168   4.890   2.728   0.280 -0.0631  0.0793 -0.0598
11204SOL    HW138169   4.836   2.698   0.353  0.6876 -0.0558  0.4473
11204SOL    HW238170   4.903   2.821   0.297  0.7865 -0.1182  0.4279
11205SOL     OW38171   9.032   6.917   7.139  0.1558  0.4601 -0.6505
11205SOL    HW138172   9.126   6.931   7.128  0.3721 -0.2022  0.2684
11205SOL    HW238173   8.993   6.959   7.062  1.2199  0.4426 -1.2235
11206SOL     OW38174   0.072   5.331   3.974 -0.7068 -0.5522 -0.2138
11206SOL    HW138175   0.120   5.356   3.895 -0.6308 -0.6114 -0.1867
11206SOL    HW238176   0.063   5.412   4.024 -1.2360 -0.4039 -0.5377
11207SOL     OW38177  10.571   7.499   2.061 -0.2847 -0.2296 -0.1782
11207SOL    HW138178  10.630   7.547   2.118 -0.2389 -1.1736  0.6059
11207SOL    HW238179  10.499   7.560   2.042  0.8875  0.9054 -1.0955
11208SOL     OW38180   1.297   1.607   2.518  0.7698  0.7091  0.2156
11208SOL    HW138181   1.279   1.700   2.527 -1.1347  0.2873  1.3524
11208SOL    HW238182   1.359   1.587   2.588  0.8520  1.0475  0.2369
11209SOL     OW38183   8.652   8.960   9.073  0.0686 -0.3351  0.1653
11209SOL    HW138184   8.715   8.963   9.145 -0.1191  0.7767  0.3096
11209SOL    HW238185   8.566   8.959   9.116 -0.0312 -0.3715 -0.0323
11210SOL     OW38186  12.027   7.032   5.853  0.0515  0.2651  0.2309
11210SOL    HW138187  11.985   6.964   5.800  0.3966 -0.1421  0.4752
11210SOL    HW238188  12.103   7.059   5.801  0.0851  0.2476  0.2710
11211SOL     OW38189   1.395   3.715   4.202 -0.2804 -0.0637 -0.0020
11211SOL    HW138190   1.339   3.767   4.260 -0.0667 -1.1068  1.1759
11211SOL    HW238191   1.422   3.641   4.255  2.3201  0.4290 -0.4965
11212SOL     OW38192  10.914   0.957   8.284  0.0732 -0.1281  0.5538
11212SOL    HW138193  10.944   0.982   8.197 -1.6793  2.5723  0.6072
11212SOL    HW238194  10.831   0.912   8.269 -1.3586  2.2555  0.8072
11213SOL     OW38195   0.089  11.326  12.006 -0.1467 -0.3842  0.0344
11213SOL    HW138196   0.050  11.286  12.083 -1.3178  0.0643 -0.3060
11213SOL    HW238197   0.141  11.399  12.041 -1.2279  0.2447  0.3596
11214SOL     OW38198   0.850   2.737   5.886  0.3053  0.0805  0.1846
11214SOL    HW138199   0.769   2.759   5.840 -0.0102  0.9633  1.1283
11214SOL    HW238200   0.858   2.642   5.878 -1.2557 -0.1225  0.7794
11215SOL     OW38201   6.988  11.173   9.485 -0.0240 -0.0088 -0.1804
11215SOL    HW138202   6.954  11.087   9.461  1.1361 -1.3922  2.7001
11215SOL    HW238203   6.910  11.226   9.503 -0.8450  0.3154 -3.8494
11216SOL     OW38204   9.291   0.907   7.949 -0.3474 -0.0883  0.0307
11216SOL    HW138205   9.286   1.000   7.969  0.5137 -0.3365  1.5054
11216SOL    HW238206   9.341   0.903   7.867 -1.9597  0.8100 -1.0623
11217SOL     OW38207   4.439   8.412   9.382 -0.1482 -0.3899 -0.0688
11217SOL    HW138208   4.401   8.483   9.435 -0.1896 -1.0430  0.8050
11217SOL    HW238209   4.364   8.361   9.352 -0.0799 -0.4625 -0.1172
11218SOL     OW38210   5.415   8.854   6.417  0.1974 -0.3792  0.0312
11218SOL    HW138211   5.414   8.949   6.409  2.3407 -0.1362  1.6846
11218SOL    HW238212   5.323   8.830   6.435 -0.7489  1.0846 -2.4666
11219SOL     OW38213   6.441   1.659   5.941 -0.5463  0.0906  0.0768
11219SOL    HW138214   6.427   1.640   5.848 -1.5219 -0.6163  0.3410
11219SOL    HW238215   6.376   1.726   5.962 -0.5165  0.0496  0.3047
11220SOL     OW38216   3.310   5.016   9.678  0.2215 -0.6141 -0.4737
11220SOL    HW138217   3.391   5.009   9.629  0.7842 -2.9327  0.6507
11220SOL    HW238218   3.241   4.992   9.616  0.4044  0.8074 -1.2700
11221SOL     OW38219   8.627   0.840   1.961 -0.7527  0.4441 -0.1330
11221SOL    HW138220   8.594   0.796   2.040 -0.9906  2.4919  0.9775
11221SOL    HW238221   8.601   0.783   1.889 -0.8119 -1.3391  1.2172
11222SOL     OW38222   4.128   6.139   3.538  0.3286 -0.1924  0.1737
11222SOL    HW138223   4.119   6.222   3.491  0.1945 -0.2224  0.1471
11222SOL    HW238224   4.083   6.154   3.621  2.1872  0.5179  1.1311
11223SOL     OW38225  11.366   9.416   6.080 -0.3647 -0.8665 -0.3070
11223SOL    HW138226  11.365   9.324   6.105  0.4085 -1.2044 -1.4547
11223SOL    HW238227  11.458   9.437   6.066 -0.6055 -0.1451 -0.8852
11224SOL     OW38228   6.043   1.759   5.320  0.2852  0.0200 -0.4574
11224SOL    HW138229   6.081   1.832   5.368 -0.2399 -0.4498  0.6990
11224SOL    HW238230   5.986   1.801   5.255 -2.6413  0.7115  2.3022
11225SOL     OW38231   0.788   8.484   0.790 -0.1051 -0.2526 -0.1526
11225SOL    HW138232   0.884   8.481   0.784 -0.1358 -0.1781 -0.7488
11225SOL    HW238233   0.771   8.553   0.855  0.2300  0.5236 -0.8722
11226SOL     OW38234  12.115   2.859   8.753  0.5355 -0.1010  0.2018
11226SOL    HW138235  12.164   2.788   8.712  0.5037 -0.6675  1.1180
11226SOL    HW238236  12.175   2.895   8.819  0.4381  0.5240 -0.0393
11227SOL     OW38237   0.579   0.733   4.575 -0.1869 -0.3731 -0.0705
11227SOL    HW138238   0.564   0.663   4.639  0.1712 -0.9676 -0.6197
11227SOL    HW238239   0.496   0.743   4.529  0.0405 -1.1839 -0.6978
11228SOL     OW38240   5.642   3.413   1.380 -0.1529 -0.0577  0.2451
11228SOL    HW138241   5.673   3.353   1.448 -2.5387  0.4033  1.8675
11228SOL    HW238242   5.556   3.380   1.355 -0.0951  0.8320 -1.2859
11229SOL     OW38243   5.878   8.592   2.599  0.1529 -0.4949  0.3133
11229SOL    HW138244   5.816   8.519   2.610 -0.5098 -0.2518 -1.5203
11229SOL    HW238245   5.924   8.572   2.517  1.9319 -0.2190  1.1888
11230SOL     OW38246   8.838   6.133   6.625 -0.0258 -0.3121 -0.5058
11230SOL    HW138247   8.929   6.107   6.616  0.2086 -0.0817  0.8465
11230SOL    HW238248   8.789   6.051   6.631  0.4226 -0.4875  1.3389
11231SOL     OW38249   3.234   5.079   4.777  0.0151  0.2879  0.5810
11231SOL    HW138250   3.304   5.047   4.721 -0.2713  2.1906 -0.9777
11231SOL    HW238251   3.276   5.099   4.860  0.8313 -0.8331  0.4571
11232SOL     OW38252  10.929   9.903   4.273 -0.2999 -0.4343  0.1886
11232SOL    HW138253  10.873   9.937   4.203 -0.2067 -0.8682 -0.0993
11232SOL    HW238254  11.000   9.966   4.280  0.4503 -1.0997 -1.0772
11233SOL     OW38255   5.826  10.766   6.806 -0.1710  0.4182  0.5750
11233SOL    HW138256   5.733  10.785   6.819 -0.3379  2.4863 -2.5988
11233SOL    HW238257   5.868  10.851   6.798  2.1791 -0.4543  2.4561
11234SOL     OW38258  11.283   7.091   4.132  0.5644 -0.0320  0.3069
11234SOL    HW138259  11.353   7.146   4.097  0.2971 -0.6264 -1.2443
11234SOL    HW238260  11.292   7.008   4.084  0.4575 -1.0767  2.0127
11235SOL     OW38261   1.953   7.880  11.312  0.1955  0.1537  0.3111
11235SOL    HW138262   2.044   7.897  11.290  0.0885 -0.5571 -0.7549
11235SOL    HW238263   1.951   7.880  11.408  1.2002  0.7050  0.3467
11236SOL     OW38264   9.636   6.135   7.442 -0.0734 -0.3421  0.7350
11236SOL    HW138265   9.704   6.068   7.435 -0.6469 -0.9121  0.5570
11236SOL    HW238266   9.559   6.088   7.473 -1.0307 -0.1403 -1.2225
11237SOL     OW38267  11.458   8.448   4.293  0.6060  0.1860 -0.1232
11237SOL    HW138268  11.480   8.507   4.221  0.0593  0.4492 -0.0798
11237SOL    HW238269  11.504   8.485   4.369 -0.3574  1.0158  0.0738
11238SOL     OW38270   9.181   2.470   8.632 -0.0745  0.8286  0.2998
11238SOL    HW138271   9.190   2.457   8.537  0.6112  0.8798  0.3514
11238SOL    HW238272   9.216   2.558   8.647 -0.2941  0.8686  0.5872
11239SOL     OW38273   9.447  10.599   3.588 -0.0606  0.0220  0.7844
11239SOL    HW138274   9.408  10.516   3.615 -0.3140 -0.3907 -0.7636
11239SOL    HW238275   9.464  10.589   3.494 -2.0383  2.4259  0.0235
11240SOL     OW38276   6.122   3.282   1.946  0.7394 -0.0442 -0.1745
11240SOL    HW138277   6.144   3.254   2.035  2.9372 -0.5229 -0.7995
11240SOL    HW238278   6.190   3.345   1.924  0.6847 -0.5183 -1.7788
11241SOL     OW38279   0.127   5.545  11.785 -0.1365 -0.2212 -0.3280
11241SOL    HW138280   0.053   5.495  11.819 -1.3484  1.8154  0.1996
11241SOL    HW238281   0.142   5.511  11.697  0.3296 -2.7442  0.6510
11242SOL     OW38282   7.649   6.613   1.756 -0.7232  0.1552 -0.8472
11242SOL    HW138283   7.599   6.542   1.797 -1.9760 -0.0968 -2.6911
11242SOL    HW238284   7.739   6.582   1.754 -0.8413 -0.3432  0.5049
11243SOL     OW38285   5.609   8.312  10.097 -0.5916  0.5548 -0.2614
11243SOL    HW138286   5.531   8.366  10.111  0.1145  0.9847  2.5862
11243SOL    HW238287   5.624   8.269  10.181  1.4948 -0.5484 -1.1305
11244SOL     OW38288   0.853   1.456  11.776 -0.5869  0.1299 -0.2704
11244SOL    HW138289   0.902   1.538  11.780  1.5469 -1.1222  0.9338
11244SOL    HW238290   0.832   1.436  11.867 -0.0648 -1.2261 -0.4290
11245SOL     OW38291   5.574   4.809   4.970 -0.2189 -0.0015 -0.0978
11245SOL    HW138292   5.647   4.868   4.983 -1.7633  1.8759  0.5801
11245SOL    HW238293   5.497   4.866   4.964 -2.0478 -1.9265  2.2566
11246SOL     OW38294   7.247  10.720   6.233 -0.0449 -0.5958  0.2315
11246SOL    HW138295   7.174  10.777   6.208 -1.4623 -1.5834  1.8577
11246SOL    HW238296   7.240  10.645   6.175  1.5086  0.5473 -1.5606
11247SOL     OW38297   7.337   7.022   0.792 -0.0612 -0.3079  0.6642
11247SOL    HW138298   7.357   6.940   0.837  0.1074  0.5060  2.1495
11247SOL    HW238299   7.423   7.062   0.777  0.0795 -1.4705 -2.3166
11248SOL     OW38300   2.479  11.140   5.678  0.3908  0.4716  0.2514
11248SOL    HW138301   2.460  11.210   5.741 -1.3964  1.7959 -1.6190
11248SOL    HW238302   2.554  11.172   5.628 -0.4195  1.1016 -0.5967
11249SOL     OW38303   8.954   7.184   2.619  0.1918 -0.2781  0.1377
11249SOL    HW138304   9.026   7.246   2.605  1.4417 -1.6403  0.3212
11249SOL    HW238305   8.875   7.237   2.606  1.1719  1.6018  1.2819
11250SOL     OW38306   3.285   1.665   4.997  0.0869 -0.6229  0.1834
11250SOL    HW138307   3.259   1.593   5.054  1.3713 -0.0178  1.5790
11250SOL    HW238308   3.344   1.624   4.933  0.6449 -0.8608  0.8377
11251SOL     OW38309  11.099   3.671   9.894 -0.4252  0.2635 -0.4647
11251SOL    HW138310  11.082   3.598   9.954  1.4129  0.8823  0.8947
11251SOL    HW238311  11.035   3.738   9.918 -0.4331  0.0729  0.0443
11252SOL     OW38312   3.203  10.800   6.850  0.0424 -0.0953  0.6416
11252SOL    HW138313   3.236  10.721   6.893  0.5111 -0.1814  0.1437
11252SOL    HW238314   3.114  10.778   6.824 -0.3739  0.0827  1.8700
11253SOL     OW38315  11.927  11.258  10.412  0.8523  0.8127  0.2261
11253SOL    HW138316  11.873  11.312  10.355  1.3183  0.5137 -0.5106
11253SOL    HW238317  11.950  11.315  10.485 -1.1178  0.7072  0.9767
11254SOL     OW38318   9.207   8.945   4.421 -0.5264  0.2261 -0.6201
11254SOL    HW138319   9.147   8.899   4.480  1.2232 -3.7859 -1.6475
11254SOL    HW238320   9.283   8.887   4.414  1.4798  2.8680 -2.9869
11255SOL     OW38321   3.846   1.737   6.795 -0.5613 -0.6871 -0.5384
11255SOL    HW138322   3.752   1.728   6.813 -0.4317 -0.2214  0.4491
11255SOL    HW238323   3.862   1.831   6.799  0.1968 -0.8562  0.6850
11256SOL     OW38324   9.794   3.203  10.819 -0.4455 -0.2454 -0.4192
11256SOL    HW138325   9.751   3.263  10.879  0.2826 -1.4257  1.3712
11256SOL    HW238326   9.879   3.244  10.800 -0.9699  0.4802 -1.2738
11257SOL     OW38327   8.125  11.831   7.482  0.2443  0.0073  0.1897
11257SOL    HW138328   8.136  11.821   7.388 -2.7884  2.9437 -0.6525
11257SOL    HW238329   8.060  11.765   7.506  2.6641 -2.3304  0.8536
11258SOL     OW38330   9.794   6.778   8.124 -0.2932  0.2632 -0.3766
11258SOL    HW138331   9.843   6.696   8.112  0.2806  0.1517  2.2015
11258SOL    HW238332   9.707   6.749   8.152  0.5073  0.4214  2.6317
11259SOL     OW38333   5.817   8.840  11.948  0.2795  0.1322 -0.0845
11259SOL    HW138334   5.911   8.854  11.943  0.4752 -0.4235  1.4595
11259SOL    HW238335   5.788   8.897  12.020 -0.6223  0.5159 -0.7269
11260SOL     OW38336   5.491  11.331   1.582 -0.3600  0.5574  0.1401
11260SOL    HW138337   5.494  11.335   1.486  0.1193  1.1243  0.1724
11260SOL    HW238338   5.543  11.406   1.611 -1.9633  1.4410  0.8528
11261SOL     OW38339   5.114  10.577   0.264  0.2118 -0.2985 -0.0644
11261SOL    HW138340   5.057  10.654   0.274  1.5586  0.7206  0.0415
11261SOL    HW238341   5.194  10.612   0.225  0.6882 -1.7423 -0.4267
11262SOL     OW38342  11.941   6.257  10.999  0.0889  0.1677 -0.2431
11262SOL    HW138343  11.909   6.185  10.944 -2.1411  0.6369  0.3429
11262SOL    HW238344  12.008   6.216  11.054  0.5410 -0.8931 -1.5244
11263SOL     OW38345   9.897   9.367   6.144 -0.2785  0.4596 -0.1972
11263SOL    HW138346   9.885   9.442   6.203 -0.2431  1.1713 -1.0677
11263SOL    HW238347   9.984   9.334   6.166 -0.0104  1.0972 -0.2526
11264SOL     OW38348   7.239   1.976   8.967 -0.1129 -0.1907 -0.3250
11264SOL    HW138349   7.202   2.063   8.982  2.0778  0.4838  1.6919
11264SOL    HW238350   7.257   1.941   9.054  0.0066 -2.2564 -1.1174
11265SOL     OW38351   0.123   2.919   6.913  0.3581 -0.1311 -0.0261
11265SOL    HW138352   0.031   2.938   6.934  0.5229  0.1840  0.4294
11265SOL    HW238353   0.167   3.004   6.918  0.9976 -0.5146  1.4418
11266SOL     OW38354   0.889   4.723   2.631  0.3144 -0.5938  0.2494
11266SOL    HW138355   0.932   4.805   2.606 -1.1657  0.0095 -0.4598
11266SOL    HW238356   0.861   4.737   2.721 -2.7404  1.0080 -0.8198
11267SOL     OW38357   0.235   6.120   8.813 -0.1347  0.3849  0.2584
11267SOL    HW138358   0.140   6.127   8.801 -0.5175 -0.7458  2.0831
11267SOL    HW238359   0.273   6.176   8.746 -2.0810  0.3742 -0.9143
11268SOL     OW38360   1.306   5.309   7.967  0.5971  0.0583 -0.9378
11268SOL    HW138361   1.281   5.276   7.880 -0.1182 -1.2500 -0.2726
11268SOL    HW238362   1.384   5.258   7.989 -1.6716 -2.9703  0.9792
11269SOL     OW38363   2.887   9.605   6.653  0.0694 -0.0769  0.1420
11269SOL    HW138364   2.807   9.602   6.601  1.6106  0.8384 -2.5030
11269SOL    HW238365   2.931   9.521   6.635  0.1416 -0.1941  0.8352
11270SOL     OW38366   9.955   1.318   1.538  0.0555 -0.5509 -0.0780
11270SOL    HW138367   9.922   1.323   1.627  1.7569 -1.2636  0.6352
11270SOL    HW238368  10.043   1.356   1.543 -0.6955  1.7171 -1.9843
11271SOL     OW38369   1.160   7.160   2.630  0.3113  0.3166  0.4020
11271SOL    HW138370   1.072   7.133   2.604  1.2330 -2.8751  0.1711
11271SOL    HW238371   1.150   7.250   2.663 -2.5076  1.0610 -2.1395
11272SOL     OW38372   1.482   9.951   2.192  0.2378 -0.0406  0.0992
11272SOL    HW138373   1.530   9.869   2.189 -0.9959 -0.8070  0.4254
11272SOL    HW238374   1.466   9.966   2.286  0.5057  0.6053  0.0475
11273SOL     OW38375   6.183   0.695  10.333  0.2068 -0.3047  0.0198
11273SOL    HW138376   6.089   0.703  10.317 -0.5329 -2.2385  2.6752
11273SOL    HW238377   6.224   0.736  10.256 -2.7562  0.7806 -1.1367
11274SOL     OW38378   3.447   9.616   8.941  0.3706  0.5165  0.2639
11274SOL    HW138379   3.403   9.652   9.018 -0.2930 -0.3292  0.2883
11274SOL    HW238380   3.489   9.692   8.900  0.1074  1.0956  1.0430
11275SOL     OW38381   4.307   9.818   2.046 -0.5866  0.3943 -0.5978
11275SOL    HW138382   4.334   9.836   2.136 -0.2725 -0.9988 -0.3896
11275SOL    HW238383   4.388   9.791   2.002 -0.4699  2.3460 -1.6798
11276SOL     OW38384   9.432   3.371   2.072  0.4989 -0.6307 -0.2321
11276SOL    HW138385   9.348   3.415   2.081  0.9812  0.4691 -0.9224
11276SOL    HW238386   9.476   3.416   2.000  1.7908 -1.0054  0.2888
11277SOL     OW38387   8.756   9.585   8.042  0.0768 -0.1264 -0.3179
11277SOL    HW138388   8.785   9.674   8.022  0.9767 -0.0104  1.4005
11277SOL    HW238389   8.742   9.545   7.956 -1.4952  2.0134 -1.1182
11278SOL     OW38390   3.123   4.699   8.730  0.2694 -0.3265 -0.1913
11278SOL    HW138391   3.041   4.677   8.685  0.1608  0.1568 -0.2339
11278SOL    HW238392   3.160   4.770   8.678  0.4199 -0.1367  0.1764
11279SOL     OW38393   8.980   8.467   1.677 -0.1423 -0.3111  0.2525
11279SOL    HW138394   9.054   8.522   1.653 -0.3662 -0.1408 -0.0427
11279SOL    HW238395   9.012   8.377   1.666 -0.0524 -0.2362 -0.1025
11280SOL     OW38396  10.875   6.667   6.601 -0.3454  0.0357 -0.3107
11280SOL    HW138397  10.959   6.713   6.603  0.5325 -1.3786 -1.6327
11280SOL    HW238398  10.839   6.678   6.688 -0.5528  3.7670 -0.7143
11281SOL     OW38399   5.637   3.661   2.194 -0.7820 -0.2722  0.0006
11281SOL    HW138400   5.629   3.744   2.240  0.1220 -0.0211 -0.2800
11281SOL    HW238401   5.584   3.672   2.114 -0.8271 -0.0481  0.0624
11282SOL     OW38402  11.219   7.026   7.322  0.4598  0.1469  0.6601
11282SOL    HW138403  11.282   6.997   7.389  0.7539  0.2912  0.4502
11282SOL    HW238404  11.222   7.122   7.326  0.7506  0.1619  0.1972
11283SOL     OW38405   2.271  10.321   9.226 -0.3220  0.0360  0.4742
11283SOL    HW138406   2.177  10.314   9.242 -0.5291 -0.3262 -0.7594
11283SOL    HW238407   2.278  10.336   9.131  0.8765 -0.6869  0.4237
11284SOL     OW38408   9.442   2.499   5.991 -0.1442  0.3302 -0.0549
11284SOL    HW138409   9.531   2.513   6.022 -0.7647  0.5161  1.7435
11284SOL    HW238410   9.441   2.408   5.960  1.5577  1.3225 -3.5001
11285SOL     OW38411  10.750   0.154   2.440  0.0361 -0.1926  0.3528
11285SOL    HW138412  10.801   0.222   2.396  0.7577  0.2210  1.7469
11285SOL    HW238413  10.678   0.202   2.481  0.5011 -0.2480  1.2701
11286SOL     OW38414  11.202   3.750   2.840 -0.1122 -0.4066 -0.0892
11286SOL    HW138415  11.166   3.672   2.882 -2.0581 -0.2268 -1.3085
11286SOL    HW238416  11.159   3.823   2.885  0.2223 -0.0995 -0.2680
11287SOL     OW38417   7.159   5.178   8.234 -0.1310  0.0278  0.5544
11287SOL    HW138418   7.174   5.271   8.254  1.1782  0.2526 -1.2238
11287SOL    HW238419   7.080   5.156   8.283 -0.5849  2.1179  0.8924
11288SOL     OW38420   9.037   3.253  11.806  0.6963  0.2636 -0.4403
11288SOL    HW138421   9.032   3.158  11.820  1.3422  0.2471 -0.2746
11288SOL    HW238422   8.985   3.268  11.727  1.3947 -0.3745 -1.0450
11289SOL     OW38423   5.649   7.082   4.448 -0.0504 -0.4141  0.1180
11289SOL    HW138424   5.626   7.174   4.458 -0.4132 -0.5417  0.5340
11289SOL    HW238425   5.727   7.070   4.503 -0.4932 -0.5349  0.7241
11290SOL     OW38426   8.211   7.338   7.848 -0.6500  0.0054  0.1346
11290SOL    HW138427   8.249   7.270   7.792 -1.8647  0.2839 -1.0995
11290SOL    HW238428   8.227   7.420   7.801 -3.6516  0.0357 -1.0890
11291SOL     OW38429  11.722   4.198  10.412 -0.4467 -0.7988 -0.2894
11291SOL    HW138430  11.720   4.217  10.318 -0.7149 -0.2170 -0.1648
11291SOL    HW238431  11.633   4.171  10.433 -1.9206  4.0507  0.8185
11292SOL     OW38432   9.144   4.478   9.474 -0.0766  0.1561 -0.5647
11292SOL    HW138433   9.113   4.557   9.518  1.2281  0.4791 -0.1940
11292SOL    HW238434   9.132   4.408   9.538 -0.3669  0.2111 -0.5574
11293SOL     OW38435   2.968   1.977   0.589  0.3888  0.1541  0.0105
11293SOL    HW138436   3.041   2.017   0.542  0.8150 -0.0100  0.5133
11293SOL    HW238437   2.964   2.026   0.672 -0.4701  0.5712 -0.2694
11294SOL     OW38438   7.672   6.054  11.033  0.5180 -0.2469 -0.1471
11294SOL    HW138439   7.601   6.112  11.008 -0.3882 -0.6473  1.3445
11294SOL    HW238440   7.631   5.968  11.042  1.7847 -1.1320 -2.0854
11295SOL     OW38441   6.266  10.183   7.344 -0.2934 -0.1718 -0.1276
11295SOL    HW138442   6.246  10.184   7.250 -0.8059 -0.0301 -0.0195
11295SOL    HW238443   6.339  10.243   7.353 -0.1835 -0.2511 -0.4496
11296SOL     OW38444   2.191   5.681   6.252  0.5142  0.3305  0.2420
11296SOL    HW138445   2.250   5.728   6.311  1.3667  1.1088 -1.1678
11296SOL    HW238446   2.169   5.745   6.185 -3.1810  0.5589  1.4627
11297SOL     OW38447   4.114   4.075   2.874  0.4145 -0.1790 -0.0427
11297SOL    HW138448   4.101   4.151   2.816  0.1745 -0.5752 -0.5166
11297SOL    HW238449   4.082   4.104   2.959 -1.1326 -0.2531 -0.5749
11298SOL     OW38450   9.904   0.109   4.886 -0.5284 -0.0965 -0.5277
11298SOL    HW138451   9.873   0.040   4.945 -0.3820  1.9561  2.1401
11298SOL    HW238452   9.984   0.074   4.847 -0.4889 -1.4764  0.7180
11299SOL     OW38453   3.788   1.549   1.202 -0.4262 -0.1038 -0.7874
11299SOL    HW138454   3.737   1.628   1.184  0.7174  1.1397  0.9999
11299SOL    HW238455   3.848   1.575   1.271  0.3850 -2.4215 -0.5187
11300SOL     OW38456   4.104  10.787  10.864  0.1980  0.0723 -0.1260
11300SOL    HW138457   4.118  10.824  10.777  0.4081  0.1244 -0.0714
11300SOL    HW238458   4.009  10.776  10.871  0.2820 -1.5461 -1.0410
11301SOL     OW38459   1.307   1.042  10.499 -0.0786  0.7671  0.0423
11301SOL    HW138460   1.258   0.979  10.446  0.4545  0.4206 -0.0383
11301SOL    HW238461   1.356   1.094  10.436 -0.3614  1.1395  0.1220
11302SOL     OW38462  11.661  10.932   7.757  0.1334 -0.1151  0.1012
11302SOL    HW138463  11.646  10.990   7.683 -0.3353  0.1760  0.4169
11302SOL    HW238464  11.578  10.885   7.767  1.1872 -2.6056 -1.6344
11303SOL     OW38465   1.808   2.400   1.109  0.0495 -0.3466  0.7006
11303SOL    HW138466   1.722   2.440   1.099 -0.1311  0.0893  3.2753
11303SOL    HW238467   1.834   2.375   1.020 -2.3939  0.1673 -0.2249
11304SOL     OW38468   9.864   5.290   1.118 -0.0155 -0.5917  0.1156
11304SOL    HW138469   9.921   5.367   1.119 -1.6289  0.6574  1.6264
11304SOL    HW238470   9.896   5.237   1.045  0.2328  2.2117 -1.9267
11305SOL     OW38471   0.067   9.726   2.084  0.2899 -0.7522 -0.1167
11305SOL    HW138472   0.116   9.767   2.013  1.7220 -0.3755  1.0449
11305SOL    HW238473   0.131   9.671   2.129  0.9334  2.8128  3.9665
11306SOL     OW38474   2.841   5.673   3.579  0.1052  0.0571 -0.3614
11306SOL    HW138475   2.769   5.617   3.609 -1.3100  0.6426 -2.3626
11306SOL    HW238476   2.836   5.751   3.634  0.0043 -0.4394  0.3342
11307SOL     OW38477   2.865   9.547  11.850  0.4210  0.4652 -0.3476
11307SOL    HW138478   2.853   9.547  11.945  1.1438 -0.3339 -0.2413
11307SOL    HW238479   2.890   9.457  11.829  1.0803  0.8274 -1.1878
11308SOL     OW38480   2.202   6.376   4.974 -0.7262  0.0240  0.3766
11308SOL    HW138481   2.249   6.355   5.055 -1.0753 -2.8496 -0.0763
11308SOL    HW238482   2.270   6.388   4.909 -0.5265 -1.1551  0.3592
11309SOL     OW38483   4.004   1.537   9.659 -0.1496 -0.3355 -0.2293
11309SOL    HW138484   4.071   1.471   9.676 -0.0092 -0.2040 -0.2719
11309SOL    HW238485   4.015   1.601   9.730 -1.1116 -1.0018  0.5535
11310SOL     OW38486   6.686   4.396   0.434 -0.3325  0.4174  0.0870
11310SOL    HW138487   6.755   4.350   0.482  0.9931 -0.9980 -2.9120
11310SOL    HW238488   6.708   4.489   0.443  1.3450  0.0482  0.1782
11311SOL     OW38489   6.413   9.648   3.939  0.1848  0.1641 -0.2591
11311SOL    HW138490   6.346   9.713   3.959  0.3372  0.2666 -0.0830
11311SOL    HW238491   6.405   9.583   4.008  0.1089  0.0543 -0.3712
11312SOL     OW38492   9.866   4.533  10.784  0.1245  0.4957  0.1523
11312SOL    HW138493   9.792   4.583  10.819 -2.6517 -1.1175 -2.8481
11312SOL    HW238494   9.914   4.597  10.731 -2.4590  0.5857 -2.3515
11313SOL     OW38495   7.652   1.352   2.448 -0.0729 -0.2032  0.3419
11313SOL    HW138496   7.585   1.286   2.428 -0.5339 -0.4501  2.5035
11313SOL    HW238497   7.618   1.398   2.524  0.7021  1.9201 -0.5352
11314SOL     OW38498  10.077   8.546   6.954 -0.8929  0.7720 -0.3012
11314SOL    HW138499  10.124   8.469   6.921  1.7634  1.0646  2.3566
11314SOL    HW238500  10.020   8.510   7.022  1.5077  1.1162  2.0731
11315SOL     OW38501  10.623   7.433   2.679 -0.4609  0.0006  0.3781
11315SOL    HW138502  10.571   7.444   2.600 -0.6969 -0.0464  0.5261
11315SOL    HW238503  10.563   7.454   2.750 -0.3859 -0.4203  0.5705
11316SOL     OW38504   0.097   9.969   9.697 -0.2734 -0.4697  0.9312
11316SOL    HW138505   0.180  10.015   9.692 -0.1582 -0.7310  0.2043
11316SOL    HW238506   0.097   9.927   9.782  0.0774  0.0157  1.1733
11317SOL     OW38507   4.133   1.703   7.673 -0.1299 -0.5134  0.1713
11317SOL    HW138508   4.050   1.707   7.626  0.2078 -0.8159 -0.4722
11317SOL    HW238509   4.109   1.709   7.766 -0.8545 -0.4740 -0.0134
11318SOL     OW38510  11.921   6.690   0.603  0.3094 -0.2982  0.1068
11318SOL    HW138511  11.989   6.630   0.575 -0.4091 -0.4400 -1.4468
11318SOL    HW238512  11.951   6.776   0.573  0.2358 -0.2304  0.2255
11319SOL     OW38513   7.072   8.673   6.190 -0.8517  0.0306 -0.2173
11319SOL    HW138514   6.981   8.655   6.169 -1.6559 -2.2516  3.9886
11319SOL    HW238515   7.068   8.720   6.274  1.7422 -1.7203  1.0378
11320SOL     OW38516   7.073   5.239   3.513 -0.9165  0.1117 -0.4932
11320SOL    HW138517   7.134   5.192   3.456  1.4567  0.3167  1.6577
11320SOL    HW238518   7.002   5.176   3.528  0.7883 -1.8257  0.0740
11321SOL     OW38519   0.713   9.555   2.185  0.6365  0.3447  0.0720
11321SOL    HW138520   0.793   9.503   2.184  1.0676  1.0031 -0.0084
11321SOL    HW238521   0.723   9.614   2.260 -0.3042 -0.3697  0.7919
11322SOL     OW38522   1.292   7.125   6.290 -0.0408  0.3574  0.7794
11322SOL    HW138523   1.235   7.078   6.229  1.5477 -3.4278  1.8666
11322SOL    HW238524   1.233   7.152   6.361 -1.1965  0.8970 -0.3442
11323SOL     OW38525   7.584   9.589   3.729  0.4683 -0.0078 -0.0761
11323SOL    HW138526   7.494   9.607   3.703  0.0862  2.0063  2.2142
11323SOL    HW238527   7.628   9.562   3.649 -2.2059 -1.3635 -1.2011
11324SOL     OW38528   5.615   0.108   4.197  0.1402  0.4384  0.2673
11324SOL    HW138529   5.658   0.129   4.114  0.1704 -1.1659 -0.1496
11324SOL    HW238530   5.687   0.096   4.258  0.1679  0.3178  0.2100
11325SOL     OW38531  10.214   5.180  11.925  0.1834 -0.4681 -0.3392
11325SOL    HW138532  10.128   5.168  11.884 -0.0275  2.7083 -1.0806
11325SOL    HW238533  10.266   5.106  11.893 -2.1694 -2.4458  0.0614
11326SOL     OW38534   8.005   6.233   0.783  0.2813  0.8457 -0.4185
11326SOL    HW138535   8.054   6.178   0.844 -0.2556 -0.6607 -1.2775
11326SOL    HW238536   7.936   6.176   0.750 -1.4783  2.5966  0.0162
11327SOL     OW38537   6.599   5.569   4.062 -0.5061 -0.0550 -0.1871
11327SOL    HW138538   6.530   5.525   4.010  0.3645  1.6513 -3.0071
11327SOL    HW238539   6.561   5.653   4.085 -0.6350 -0.5460  1.4849
11328SOL     OW38540   6.334   3.799   2.801  0.6732  0.4161  0.3995
11328SOL    HW138541   6.352   3.712   2.837  1.6901  0.3531 -0.2280
11328SOL    HW238542   6.302   3.849   2.875 -0.3169 -0.6003  0.6922
11329SOL     OW38543  11.268   3.495   2.231  0.0932  0.1062  0.5639
11329SOL    HW138544  11.324   3.522   2.304  0.0210  1.8971  0.0011
11329SOL    HW238545  11.196   3.557   2.232 -1.8378 -2.0163  1.1287
11330SOL     OW38546   8.701   6.665  10.337  0.4627 -0.2035 -0.5463
11330SOL    HW138547   8.670   6.597  10.278  0.7026 -0.6570 -0.1605
11330SOL    HW238548   8.653   6.651  10.419 -0.9014  1.2784 -1.0357
11331SOL     OW38549   8.724   3.756   6.366  0.1584 -0.0704  0.1182
11331SOL    HW138550   8.674   3.814   6.424  0.4687  0.9884 -0.6443
11331SOL    HW238551   8.659   3.716   6.310  0.0512  0.4144 -0.1030
11332SOL     OW38552   4.837   1.935   7.723 -0.5534  0.4372  0.1692
11332SOL    HW138553   4.744   1.921   7.740 -0.8075  2.0041  0.2137
11332SOL    HW238554   4.842   1.957   7.630 -0.2238  0.3016  0.1545
11333SOL     OW38555  10.152  11.058   3.095  0.7144  0.2892  0.5285
11333SOL    HW138556  10.230  11.036   3.043 -0.3283  0.4031 -1.1595
11333SOL    HW238557  10.187  11.097   3.175  2.5362 -3.5057  1.8295
11334SOL     OW38558   5.363   3.136  10.365  0.2763  0.1126 -0.3432
11334SOL    HW138559   5.379   3.186  10.445  1.1195  0.0866 -0.4865
11334SOL    HW238560   5.448   3.131  10.322 -0.0702 -0.2835 -1.0117
11335SOL     OW38561  11.308   3.186  10.094  0.4779  0.4453 -0.1489
11335SOL    HW138562  11.310   3.280  10.074  2.6579  0.4333 -0.2136
11335SOL    HW238563  11.290   3.182  10.188  0.6265  0.9296 -0.0966
11336SOL     OW38564   5.465   9.742   3.536 -0.6599  0.4073  0.3084
11336SOL    HW138565   5.520   9.668   3.562 -0.1471  0.3328 -0.9131
11336SOL    HW238566   5.375   9.710   3.544 -0.4436 -0.3458 -0.2044
11337SOL     OW38567  11.265   1.486  11.789  0.1544  0.4864  0.2076
11337SOL    HW138568  11.209   1.426  11.740 -0.8131  1.4358  0.1374
11337SOL    HW238569  11.302   1.431  11.859 -0.5688 -0.2449  0.0356
11338SOL     OW38570   0.698   6.955   0.049  0.0202  0.0440  0.0037
11338SOL    HW138571   0.635   6.901   0.001 -0.5010  1.0024 -0.4162
11338SOL    HW238572   0.650   7.035   0.070  0.7037  0.2484  0.8423
11339SOL     OW38573   6.479   0.630   8.008 -0.2714 -0.3820  0.4332
11339SOL    HW138574   6.458   0.544   7.971 -0.6346 -0.0436 -0.1509
11339SOL    HW238575   6.504   0.611   8.098 -1.5027 -0.9752  0.6714
11340SOL     OW38576  10.001   4.414   0.770  0.1602  0.1452 -0.2700
11340SOL    HW138577   9.914   4.381   0.748  0.0081  1.3155 -1.5945
11340SOL    HW238578  10.055   4.394   0.693  0.4318  1.5662 -0.4937
11341SOL     OW38579  11.802   9.787  11.253  0.4485 -0.1996 -0.0444
11341SOL    HW138580  11.779   9.718  11.315  1.3049 -0.4724 -0.0077
11341SOL    HW238581  11.718   9.820  11.220 -0.0092 -0.0951  1.1928
11342SOL     OW38582   0.402   6.367   8.604  0.2711  0.2765 -0.6468
11342SOL    HW138583   0.475   6.415   8.644 -0.6087  0.2793  1.0535
11342SOL    HW238584   0.327   6.389   8.659 -0.5101 -1.6698 -0.8704
11343SOL     OW38585   4.770  10.574   7.110  0.4507 -0.5346  0.4118
11343SOL    HW138586   4.764  10.479   7.117  1.9938 -0.8594 -1.7064
11343SOL    HW238587   4.820  10.589   7.030  0.8893  2.0612  1.0823
11344SOL     OW38588   4.546   6.639   7.756  0.3681  0.1958  0.9685
11344SOL    HW138589   4.516   6.695   7.827 -0.3864 -0.4710  1.1959
11344SOL    HW238590   4.560   6.554   7.797 -1.2201 -0.5144  0.1232
11345SOL     OW38591  10.632   1.146   7.414  0.1452 -0.1892 -0.1111
11345SOL    HW138592  10.712   1.147   7.467  0.0557 -0.5296  0.0386
11345SOL    HW238593  10.569   1.098   7.468 -0.4699  0.9442  0.2096
11346SOL     OW38594  10.748   7.585   3.235 -0.0332 -0.1532 -0.3656
11346SOL    HW138595  10.840   7.558   3.239 -0.1107 -0.3875 -0.1669
11346SOL    HW238596  10.724   7.602   3.326 -0.4035 -0.8221 -0.3318
11347SOL     OW38597   7.939  10.588   0.363  0.1227  0.0141 -0.4156
11347SOL    HW138598   7.960  10.503   0.324 -0.6524 -1.3635  1.9307
11347SOL    HW238599   8.017  10.610   0.415  0.1739  0.5411 -0.7180
11348SOL     OW38600   5.638   7.348   4.627 -0.0707  0.4474 -0.7211
11348SOL    HW138601   5.700   7.287   4.667  0.1378 -0.2046 -1.9959
11348SOL    HW238602   5.656   7.432   4.670  0.7736 -0.0318 -0.1191
11349SOL     OW38603   3.893   4.784   6.588  0.2024 -0.2032 -0.3550
11349SOL    HW138604   3.892   4.780   6.492 -0.6532 -0.3983 -0.3454
11349SOL    HW238605   3.878   4.877   6.608  0.2020 -0.1925 -0.4068
11350SOL     OW38606   7.123   4.382   2.623  0.3681  0.0637  0.0405
11350SOL    HW138607   7.080   4.330   2.555 -1.0794 -1.1471  1.8164
11350SOL    HW238608   7.087   4.470   2.612  0.9616  0.1552 -1.4087
11351SOL     OW38609   1.708   4.905   4.264 -0.2566  0.4540 -0.4416
11351SOL    HW138610   1.674   4.865   4.344  1.8270 -0.4339  0.0623
11351SOL    HW238611   1.637   4.896   4.201 -2.5285  2.4388  1.6113
11352SOL     OW38612  11.578   1.749  11.381 -0.4168  0.2895  0.5776
11352SOL    HW138613  11.647   1.689  11.409 -0.5570  0.8080  2.1633
11352SOL    HW238614  11.503   1.692  11.363 -0.1528 -0.1186  0.7506
11353SOL     OW38615  11.279  11.270  11.711 -0.2014 -0.2594  0.0069
11353SOL    HW138616  11.268  11.344  11.770 -0.0310 -0.8407  0.7869
11353SOL    HW238617  11.373  11.256  11.706 -0.2151 -0.2066 -0.4139
11354SOL     OW38618   8.571  10.729  11.085  0.4879 -0.3788  0.0806
11354SOL    HW138619   8.581  10.641  11.047  0.7794 -0.2236 -0.2055
11354SOL    HW238620   8.485  10.759  11.056  0.1200 -0.8155  0.6880
11355SOL     OW38621   5.297   3.191   4.004 -0.4188 -0.7233 -0.7537
11355SOL    HW138622   5.325   3.210   4.093 -1.1149 -0.1979 -0.6465
11355SOL    HW238623   5.376   3.203   3.951 -0.5128  1.2078 -0.5175
11356SOL     OW38624   9.476   9.854  12.024 -0.1721  0.1054  0.6247
11356SOL    HW138625   9.464   9.815  12.111 -2.1662 -0.7765  0.0147
11356SOL    HW238626   9.531   9.793  11.976  0.4709  0.3211  1.0714
11357SOL     OW38627   2.061   2.005   9.055 -0.0723  0.4521  0.0997
11357SOL    HW138628   2.120   2.075   9.082 -0.2190  0.1201  1.3518
11357SOL    HW238629   2.105   1.963   8.981  1.7185 -0.3332  1.5242
11358SOL     OW38630  10.233   5.052   9.459  0.4473  0.1164 -0.6061
11358SOL    HW138631  10.142   5.072   9.434  0.4100  0.2862 -0.3415
11358SOL    HW238632  10.241   4.958   9.447 -0.0411 -0.0437  0.2471
11359SOL     OW38633   6.775  10.530   5.529 -0.0290  0.4464  0.4880
11359SOL    HW138634   6.712  10.499   5.594  0.8424  0.7842  1.5250
11359SOL    HW238635   6.813  10.451   5.492 -1.4293  0.2256 -0.5469
11360SOL     OW38636   5.565   2.737   4.410  0.0400 -0.2698 -0.0474
11360SOL    HW138637   5.618   2.779   4.341  0.5572 -0.2659  0.3483
11360SOL    HW238638   5.589   2.644   4.405  1.5062 -0.0116  1.3512
11361SOL     OW38639   6.736   7.962   1.631 -0.1841  0.0410 -0.4315
11361SOL    HW138640   6.663   7.946   1.690  0.4288 -0.5949  0.1634
11361SOL    HW238641   6.790   8.028   1.675 -0.7161  0.9971 -1.1623
11362SOL     OW38642   6.531  10.695   7.949  0.5334  0.2491 -0.4119
11362SOL    HW138643   6.566  10.624   8.002  3.3085  0.6736 -1.4952
11362SOL    HW238644   6.532  10.771   8.007 -1.4747 -0.3112  0.4357
11363SOL     OW38645   9.625  11.493   7.916  0.3038 -0.1445 -0.7689
11363SOL    HW138646   9.627  11.400   7.893  1.7011 -0.5371  0.7423
11363SOL    HW238647   9.674  11.498   7.998  0.5928  1.9954 -1.0204
11364SOL     OW38648   7.869   2.049   7.872 -0.4793 -0.4445 -0.3142
11364SOL    HW138649   7.910   2.135   7.861 -0.5030 -0.2145  1.1308
11364SOL    HW238650   7.797   2.049   7.810  0.1091  0.1989 -1.0164
11365SOL     OW38651   2.119   2.465   5.690  0.2452  0.3040  0.3153
11365SOL    HW138652   2.146   2.374   5.677  0.6100  0.3449  0.7438
11365SOL    HW238653   2.024   2.464   5.678  0.3348  0.0117 -0.4472
11366SOL     OW38654   5.673   4.703   3.362  0.1373 -0.9789  0.8026
11366SOL    HW138655   5.768   4.697   3.359  0.2355  0.3352  0.7801
11366SOL    HW238656   5.652   4.782   3.312 -0.9908 -1.4396  0.5246
11367SOL     OW38657   0.177   7.124   4.737 -0.3702  0.1188 -0.4295
11367SOL    HW138658   0.146   7.097   4.823 -0.4792 -1.8912 -1.0464
11367SOL    HW238659   0.244   7.190   4.755 -1.1752  0.5415  1.1307
11368SOL     OW38660   1.769   0.368  10.993 -0.2244 -0.7362 -0.1448
11368SOL    HW138661   1.742   0.452  10.957  0.8449 -0.3214  0.0033
11368SOL    HW238662   1.737   0.370  11.083  0.7711  0.0027  0.2126
11369SOL     OW38663  11.760   2.827   8.055  0.3779  0.1086  0.3314
11369SOL    HW138664  11.789   2.810   7.965  1.2459  2.0317  0.2077
11369SOL    HW238665  11.813   2.901   8.084 -0.6591  0.2263  2.0566
11370SOL     OW38666   2.143   8.813   7.308 -0.0243  0.2755  0.2097
11370SOL    HW138667   2.138   8.813   7.404  1.1175 -1.2222  0.3171
11370SOL    HW238668   2.225   8.857   7.288  0.0793 -0.0325 -0.0452
11371SOL     OW38669   0.360   5.677  11.818  0.2858  0.5961  0.3498
11371SOL    HW138670   0.280   5.644  11.778 -0.3139  2.4873 -0.1383
11371SOL    HW238671   0.430   5.645  11.762 -0.2153 -0.0932  0.0985
11372SOL     OW38672   0.286   0.065   4.415 -0.3603  0.1849  0.4246
11372SOL    HW138673   0.338   0.070   4.334  0.1126  0.6464  0.7517
11372SOL    HW238674   0.209   0.013   4.391  0.3050 -0.6121 -0.0426
11373SOL     OW38675   0.162  11.080   8.243  0.1175  0.5938 -0.4247
11373SOL    HW138676   0.121  11.166   8.254 -0.2098  0.2496  1.4371
11373SOL    HW238677   0.223  11.073   8.317 -0.3613 -1.0346 -0.1426
11374SOL     OW38678   5.088   6.556   5.764 -0.6831  0.7604 -0.6478
11374SOL    HW138679   5.151   6.491   5.796 -1.5311 -0.0268 -0.5561
11374SOL    HW238680   5.067   6.527   5.675 -1.0348  0.9421 -0.6230
11375SOL     OW38681   8.434  11.058   2.121 -0.0015  0.8691 -0.0185
11375SOL    HW138682   8.528  11.041   2.115  0.3453  2.4286  0.4415
11375SOL    HW238683   8.425  11.110   2.201 -1.0368  1.9750 -0.8196
11376SOL     OW38684   8.106   7.267   8.321 -0.2310 -0.4766 -0.1087
11376SOL    HW138685   8.164   7.238   8.251  1.8927 -0.0266  1.3680
11376SOL    HW238686   8.064   7.346   8.288  2.3357  0.9489 -0.1889
11377SOL     OW38687   4.520   5.281   2.472  0.3151 -0.0074  0.6828
11377SOL    HW138688   4.482   5.326   2.548  1.7189  1.9249  0.3172
11377SOL    HW238689   4.526   5.349   2.405  2.2245 -0.8168 -0.0202
11378SOL     OW38690   0.449   9.472  11.013 -0.3008  0.1710 -0.2763
11378SOL    HW138691   0.385   9.403  11.031 -1.0087  0.4089 -1.7451
11378SOL    HW238692   0.500   9.438  10.939 -0.0105  0.8168 -0.3758
11379SOL     OW38693   8.424   3.790   8.041 -0.0224  0.1753  0.0011
11379SOL    HW138694   8.369   3.866   8.061 -0.3068 -0.0906  0.2381
11379SOL    HW238695   8.372   3.715   8.071 -0.0526 -0.1630 -0.8792
11380SOL     OW38696   2.694   2.028   8.848 -0.4347 -0.1503 -0.0900
11380SOL    HW138697   2.714   2.037   8.755 -0.8561  2.1552 -0.0163
11380SOL    HW238698   2.598   2.026   8.852 -0.4152 -0.7595  0.2779
11381SOL     OW38699   9.936   2.745   6.344 -0.4993 -0.3918  0.0344
11381SOL    HW138700   9.864   2.683   6.334 -0.4100 -1.0504  2.7193
11381SOL    HW238701  10.015   2.694   6.325 -0.5930 -0.2589 -0.7398
11382SOL     OW38702   6.726   0.883   9.754 -0.4610  0.0026 -0.1488
11382SOL    HW138703   6.697   0.965   9.795  1.3533 -0.1481  1.6269
11382SOL    HW238704   6.738   0.905   9.662 -0.9962  1.4522  0.1006
11383SOL     OW38705   5.659   7.068   7.117  0.3880 -0.1522 -0.7133
11383SOL    HW138706   5.646   6.994   7.058 -2.6781  0.4175 -0.9044
11383SOL    HW238707   5.745   7.052   7.157 -0.8923 -4.8713  0.7661
11384SOL     OW38708   9.218   5.010   3.987 -0.0461 -0.6886 -0.5450
11384SOL    HW138709   9.270   5.090   3.996  0.9092 -1.3550  0.0918
11384SOL    HW238710   9.141   5.036   3.937 -1.0739  1.2160  1.8597
11385SOL     OW38711   5.824  11.635   4.412  0.5880 -0.8013  0.1977
11385SOL    HW138712   5.848  11.711   4.465 -0.3933 -0.6372  0.4264
11385SOL    HW238713   5.737  11.656   4.378 -0.6000 -2.6056  1.8573
11386SOL     OW38714   1.306   5.425   3.082 -0.1212 -0.0362 -0.2262
11386SOL    HW138715   1.249   5.401   3.155 -0.2741  0.0563 -0.3156
11386SOL    HW238716   1.391   5.442   3.122 -0.2134  0.0444 -0.0673
11387SOL     OW38717   0.482   8.508   6.494  0.4423  0.4589 -0.4565
11387SOL    HW138718   0.483   8.576   6.427  0.1433 -0.0614 -0.9952
11387SOL    HW238719   0.451   8.430   6.449 -1.8764  0.6002  0.7271
11388SOL     OW38720   8.537   3.608   1.511  0.1139 -0.2832  0.0101
11388SOL    HW138721   8.481   3.666   1.459  0.5259 -0.2521 -0.4103
11388SOL    HW238722   8.594   3.668   1.561 -0.8092 -0.2963  1.1125
11389SOL     OW38723   8.730   1.501  10.046  0.5465  0.5561  0.4207
11389SOL    HW138724   8.763   1.586  10.073  0.0418  1.6885 -2.2245
11389SOL    HW238725   8.770   1.486   9.960 -0.0675 -1.4959  0.4261
11390SOL     OW38726   8.680   3.418   1.128  0.4069  0.5018 -0.8043
11390SOL    HW138727   8.718   3.333   1.151  0.3304  0.3891 -1.0941
11390SOL    HW238728   8.746   3.482   1.154  0.2319  0.3919 -0.0583
11391SOL     OW38729   9.686   5.565   7.563 -0.3864  0.0345 -0.0952
11391SOL    HW138730   9.736   5.596   7.638  0.3284 -0.0556 -0.5239
11391SOL    HW238731   9.672   5.643   7.509  0.7377 -0.2334 -0.7909
11392SOL     OW38732  11.210   9.805   5.020  0.5090 -0.0407  0.0395
11392SOL    HW138733  11.302   9.822   5.038  0.7256 -0.2614 -0.8033
11392SOL    HW238734  11.172   9.892   5.005  0.3595  0.1315  1.3075
11393SOL     OW38735  12.052   3.868   2.514 -0.0336 -0.0312  0.6645
11393SOL    HW138736  12.060   3.890   2.607 -0.3683  2.8930  0.1109
11393SOL    HW238737  12.120   3.921   2.471 -1.3896  0.4835 -0.9568
11394SOL     OW38738  11.108   2.550   0.901 -0.1775  0.0866  0.0415
11394SOL    HW138739  11.094   2.551   0.806  0.7986  0.9354 -0.1060
11394SOL    HW238740  11.021   2.533   0.937 -0.4813 -0.7083 -1.0092
11395SOL     OW38741   0.230   1.083   9.816 -0.6287  0.2667 -0.2420
11395SOL    HW138742   0.238   0.991   9.789  1.9652  1.1921 -3.2103
11395SOL    HW238743   0.201   1.078   9.907  2.3542 -3.6155  0.7875
11396SOL     OW38744   0.115   1.548   1.335 -0.0818 -0.2589  0.1158
11396SOL    HW138745   0.044   1.507   1.383 -1.0803  1.1284 -0.1450
11396SOL    HW238746   0.102   1.519   1.244 -0.1049 -0.2659  0.1214
11397SOL     OW38747  10.841   3.944   1.169  0.2400 -0.1046 -0.1398
11397SOL    HW138748  10.908   3.951   1.101 -0.5714 -2.6762 -1.3440
11397SOL    HW238749  10.877   3.882   1.232  0.0387  0.5185  0.6085
11398SOL     OW38750   8.901   6.556   4.287 -0.1523 -0.0241  0.2829
11398SOL    HW138751   8.923   6.610   4.210  2.1120  0.5905  1.2867
11398SOL    HW238752   8.912   6.616   4.361 -0.4436 -1.1096  1.2112
11399SOL     OW38753   0.615   3.007   9.615 -0.2123  0.2082  0.1777
11399SOL    HW138754   0.581   2.991   9.703 -0.0530  1.0436  0.3972
11399SOL    HW238755   0.653   3.094   9.620 -0.8931  0.5849 -0.9334
11400SOL     OW38756   6.115  10.034   4.369 -0.5839  0.6279  0.1550
11400SOL    HW138757   6.125   9.939   4.360 -1.6642  0.5343 -0.2079
11400SOL    HW238758   6.183  10.060   4.431 -0.9034 -0.5268  1.0192
11401SOL     OW38759   2.789   5.216   4.968 -0.2748  0.3888  0.2463
11401SOL    HW138760   2.818   5.263   4.890 -0.9366  0.8568  0.2742
11401SOL    HW238761   2.694   5.223   4.966 -0.3639 -0.6421  0.4537
11402SOL     OW38762   7.964   8.061   0.618 -0.5506 -0.1606 -0.5356
11402SOL    HW138763   7.980   7.969   0.638  1.0963  0.4183  1.0348
11402SOL    HW238764   8.032   8.085   0.556 -1.5006 -0.1754 -1.6270
11403SOL     OW38765   9.499   6.209   8.027 -0.4181 -0.0637 -0.0208
11403SOL    HW138766   9.415   6.199   7.983 -0.2207 -2.0778 -0.0452
11403SOL    HW238767   9.477   6.210   8.120 -0.7274  2.9943 -0.0444
11404SOL     OW38768  10.749  11.507   4.091 -0.0606  0.0501  0.2223
11404SOL    HW138769  10.831  11.514   4.043 -0.5305  2.5272 -0.3631
11404SOL    HW238770  10.744  11.588   4.142 -1.0512 -1.1135  2.0782
11405SOL     OW38771   7.833   9.460   3.504 -0.2858 -0.8350  0.0230
11405SOL    HW138772   7.899   9.529   3.498  0.3335 -1.5330 -2.2804
11405SOL    HW238773   7.862   9.405   3.577  0.3673  0.1603  0.5304
11406SOL     OW38774   7.499   0.502   6.231 -0.0710  0.0783 -0.8480
11406SOL    HW138775   7.581   0.463   6.201 -0.2964  0.7610 -2.4650
11406SOL    HW238776   7.521   0.595   6.244  0.6738 -0.5333  3.7157
11407SOL     OW38777   4.990   6.134   8.830  0.6168  0.0320 -0.1324
11407SOL    HW138778   4.952   6.130   8.918  2.0569 -1.6063  0.4731
11407SOL    HW238779   4.939   6.071   8.779  1.0225 -0.4839  0.0823
11408SOL     OW38780   5.582   5.128   1.650 -0.3449 -0.3546 -0.1583
11408SOL    HW138781   5.512   5.080   1.695 -0.2956 -0.5333 -0.2731
11408SOL    HW238782   5.661   5.110   1.702 -0.4483  0.1334  0.1758
11409SOL     OW38783   6.364   5.397   9.589 -0.0761  0.3502 -0.2161
11409SOL    HW138784   6.389   5.305   9.582  0.6421  0.2623  2.4338
11409SOL    HW238785   6.435   5.445   9.547  1.6534 -0.1878  1.9311
11410SOL     OW38786  10.091   2.328   2.158  0.3638 -0.2475 -0.0894
11410SOL    HW138787  10.068   2.236   2.143  0.0752 -0.3707  1.0294
11410SOL    HW238788  10.034   2.376   2.098 -1.2303 -0.6869  1.0018
11411SOL     OW38789   2.255   1.794   8.598  0.1161  0.4705  0.2317
11411SOL    HW138790   2.230   1.852   8.526  1.0397  0.5975  0.0031
11411SOL    HW238791   2.310   1.727   8.558 -0.4789 -0.2566  0.5948
11412SOL     OW38792   7.748   4.203   7.454  0.1184  0.1382 -0.3160
11412SOL    HW138793   7.752   4.296   7.430  0.3583 -0.0443 -1.0111
11412SOL    HW238794   7.661   4.175   7.428 -0.4870  0.5033  1.2101
11413SOL     OW38795   4.961   4.975   7.119 -0.1104 -0.6985 -0.2893
11413SOL    HW138796   4.942   4.882   7.106 -1.5018 -0.2379 -1.9364
11413SOL    HW238797   4.931   5.017   7.038 -0.0922  1.2589  0.6608
11414SOL     OW38798  11.216   3.475   5.265  0.6038  0.4090 -0.2263
11414SOL    HW138799  11.227   3.505   5.174  0.7903  0.0838 -0.3145
11414SOL    HW238800  11.247   3.385   5.264  0.3771  0.3253  0.1108
11415SOL     OW38801  11.855   4.630   6.966  0.7114 -0.2716 -0.1606
11415SOL    HW138802  11.860   4.610   7.060  1.1838  0.7609  0.0520
11415SOL    HW238803  11.943   4.659   6.943  0.2567  0.8476 -0.5814
11416SOL     OW38804   8.142   7.020   3.635  0.4812  0.4979  0.8943
11416SOL    HW138805   8.226   7.064   3.645 -0.3739  2.6828 -0.7043
11416SOL    HW238806   8.135   7.004   3.541  0.1364 -1.9161  1.2746
11417SOL     OW38807   9.800   4.290  11.645  0.3739 -0.0621 -0.7182
11417SOL    HW138808   9.849   4.303  11.727  0.2334 -2.0766 -0.2536
11417SOL    HW238809   9.712   4.320  11.665  0.1016 -1.4111  0.2091
11418SOL     OW38810   3.750   5.316   6.840  0.0881 -0.9971 -0.2186
11418SOL    HW138811   3.759   5.247   6.773  1.9984 -0.2950 -0.7619
11418SOL    HW238812   3.699   5.276   6.909 -1.5773 -1.9103 -1.8914
11419SOL     OW38813   1.610   7.315   7.481 -0.7508  0.3013  0.8802
11419SOL    HW138814   1.543   7.260   7.441 -0.1884 -0.6205  1.1961
11419SOL    HW238815   1.642   7.265   7.555  0.4225  0.6442  0.6285
11420SOL     OW38816   5.634  10.004  11.183  0.1168  0.6264 -0.9957
11420SOL    HW138817   5.659  10.077  11.240 -0.3097  1.3968 -1.7725
11420SOL    HW238818   5.646   9.926  11.237 -0.1053  1.3227  0.0891
11421SOL     OW38819   6.728   9.951  10.078  0.2236  0.3416  0.0966
11421SOL    HW138820   6.668   9.939  10.151  1.4321 -0.5143  0.9787
11421SOL    HW238821   6.802   9.999  10.115  1.0956 -0.5737 -0.4286
11422SOL     OW38822  11.866  10.687  11.065 -0.4727 -0.3289 -0.1025
11422SOL    HW138823  11.774  10.664  11.069 -0.1967 -1.2811  1.5687
11422SOL    HW238824  11.872  10.772  11.110 -0.6850  0.3863 -1.3632
11423SOL     OW38825   7.312   5.184   4.428 -0.2844 -0.2790  0.1641
11423SOL    HW138826   7.283   5.221   4.511 -1.4731 -1.1020  0.1436
11423SOL    HW238827   7.259   5.105   4.417 -0.4040 -0.0038 -1.5373
11424SOL     OW38828   8.619   0.208   7.993  0.0296 -0.0952  0.0211
11424SOL    HW138829   8.546   0.150   7.972  0.8246 -0.1362 -3.1480
11424SOL    HW238830   8.692   0.148   8.013 -0.0722 -0.1048  0.3671
11425SOL     OW38831  11.925   4.591   2.837 -0.2929  0.4595 -0.4904
11425SOL    HW138832  11.869   4.517   2.862  0.6259  0.3511  1.4409
11425SOL    HW238833  11.912   4.600   2.743 -1.6302 -1.1486 -0.5132
11426SOL     OW38834   9.900   8.165   2.728 -0.4306  0.1333 -0.6301
11426SOL    HW138835   9.914   8.253   2.764 -0.6784 -0.6293  1.4484
11426SOL    HW238836   9.986   8.136   2.700  0.1824 -0.0164  1.2975
11427SOL     OW38837   0.560   7.136   2.294  0.2682 -0.0588  0.1128
11427SOL    HW138838   0.532   7.063   2.239 -0.2594 -1.0377  1.6177
11427SOL    HW238839   0.479   7.183   2.314  0.1331 -0.9317  1.7267
11428SOL     OW38840   1.361  10.436   3.499  0.1024  0.1145 -0.6692
11428SOL    HW138841   1.321  10.446   3.413 -1.1328 -0.9928 -0.2561
11428SOL    HW238842   1.455  10.432   3.481 -0.0779  0.7586 -1.8659
11429SOL     OW38843   7.669   3.806   8.509 -0.6977 -0.3747  0.1430
11429SOL    HW138844   7.646   3.743   8.440 -1.5185  1.4295 -1.3096
11429SOL    HW238845   7.614   3.882   8.492 -0.1504  0.5542  2.1866
11430SOL     OW38846   8.928   4.624   4.085  0.1218 -0.1323  0.1577
11430SOL    HW138847   8.980   4.557   4.041  2.4328 -0.7824  3.4660
11430SOL    HW238848   8.979   4.704   4.076  0.1415 -0.0683  0.7570
11431SOL     OW38849   2.801   1.382   3.365 -0.5358 -0.1345  0.1665
11431SOL    HW138850   2.811   1.292   3.334  1.1964  0.0373  0.0822
11431SOL    HW238851   2.822   1.378   3.458 -0.9999  0.1028  0.2861
11432SOL     OW38852   2.806  11.958   8.397 -0.1091  0.5491  0.3063
11432SOL    HW138853   2.757  12.006   8.463 -1.3951  0.5298 -0.6034
11432SOL    HW238854   2.757  11.971   8.316  0.8308 -0.3307 -0.4369
11433SOL     OW38855   0.911   2.758   6.485 -0.7423 -0.3395  0.1914
11433SOL    HW138856   0.932   2.843   6.447  1.8039 -1.3196 -0.7917
11433SOL    HW238857   0.837   2.776   6.544  1.0575  2.9633  1.7022
11434SOL     OW38858   8.873   5.335   3.396 -0.8440  0.1373  0.0857
11434SOL    HW138859   8.853   5.302   3.308 -1.4407 -1.4792  0.7804
11434SOL    HW238860   8.826   5.276   3.455 -2.1881  2.4302  1.4521
11435SOL     OW38861   4.338   4.879   3.313  0.4481 -0.0068  0.7164
11435SOL    HW138862   4.249   4.846   3.305 -0.1669  1.1745  2.3692
11435SOL    HW238863   4.387   4.831   3.245 -1.3588 -0.8486 -0.0568
11436SOL     OW38864   7.844   2.240  10.865  0.2846 -0.1044  0.5237
11436SOL    HW138865   7.863   2.249  10.771 -0.0779  0.0790  0.4656
11436SOL    HW238866   7.856   2.147  10.883  3.6708  0.3200  1.0418
11437SOL     OW38867   1.329   1.668   1.458 -0.6505  0.0598  0.3585
11437SOL    HW138868   1.270   1.614   1.405  0.7017 -0.8821 -0.2295
11437SOL    HW238869   1.355   1.612   1.531  0.1195  0.1859  0.1902
11438SOL     OW38870   6.890   4.529   8.391 -0.6409  0.1776  0.1770
11438SOL    HW138871   6.799   4.503   8.405 -0.9375  1.6293  1.2019
11438SOL    HW238872   6.921   4.471   8.321 -2.4139 -0.1960 -0.3594
11439SOL     OW38873   1.671   7.783   8.467 -0.5731  0.2827  0.7889
11439SOL    HW138874   1.660   7.763   8.375  0.2951 -1.6888  1.0596
11439SOL    HW238875   1.636   7.706   8.513 -0.8311  1.1460  2.1091
11440SOL     OW38876   6.119   9.486   2.101  0.6917  0.1134  0.0197
11440SOL    HW138877   6.186   9.457   2.039  0.2693  1.0358 -0.8944
11440SOL    HW238878   6.049   9.422   2.093  0.6475  0.2145 -0.4554
11441SOL     OW38879  10.982   2.415   8.788 -0.2417  0.2750  0.6888
11441SOL    HW138880  11.048   2.472   8.750  1.1144 -1.5097  0.2251
11441SOL    HW238881  10.939   2.373   8.714 -0.1653 -0.4341  1.0313
11442SOL     OW38882   3.244   1.701  10.882 -0.7940  0.1644  0.1698
11442SOL    HW138883   3.274   1.661  10.964  0.9047  2.0371  0.5412
11442SOL    HW238884   3.159   1.739  10.904 -0.2813  0.8024  1.1591
11443SOL     OW38885   6.566   3.085   2.824  0.5841  0.2354 -0.2151
11443SOL    HW138886   6.526   3.004   2.855 -3.3303  1.5534 -1.1777
11443SOL    HW238887   6.575   3.139   2.903  2.2237 -0.6619  0.2634
11444SOL     OW38888   9.015  11.661   2.160  0.3426  0.1426  0.1331
11444SOL    HW138889   9.090  11.719   2.173  0.4565  0.0715 -0.1973
11444SOL    HW238890   9.037  11.582   2.209  0.1965  0.3677  0.5676
11445SOL     OW38891   4.503   1.589   2.507 -0.1506 -0.6350  0.1763
11445SOL    HW138892   4.518   1.651   2.579 -1.4194 -0.2781  0.1623
11445SOL    HW238893   4.582   1.595   2.454  0.1723  0.2386  0.7173
11446SOL     OW38894   2.932   2.354   7.885 -0.0471 -0.8085  0.6445
11446SOL    HW138895   2.969   2.431   7.928 -0.6553 -0.3311  0.3303
11446SOL    HW238896   2.837   2.363   7.896 -0.4420  0.4751 -2.5722
11447SOL     OW38897  10.287   3.688  11.001 -0.3729  0.3643  0.0821
11447SOL    HW138898  10.311   3.595  11.003  1.3445  0.7838  1.9552
11447SOL    HW238899  10.331   3.723  10.924 -0.2008 -0.1623 -0.0669
11448SOL     OW38900   9.538   9.530   9.069 -0.2729  0.0045  0.1978
11448SOL    HW138901   9.549   9.584   9.147 -1.4446  0.5658 -0.0028
11448SOL    HW238902   9.452   9.555   9.035 -0.9748 -2.1760  0.2376
11449SOL     OW38903   0.324   5.275   2.782 -0.7477  0.5673  0.0555
11449SOL    HW138904   0.238   5.233   2.771 -1.4015  2.0312 -0.7629
11449SOL    HW238905   0.378   5.237   2.713 -1.3682  1.0879 -0.7487
11450SOL     OW38906   4.372   5.748   4.283  0.4392 -0.0907 -0.8300
11450SOL    HW138907   4.444   5.695   4.318  1.5049  1.7893 -0.0208
11450SOL    HW238908   4.382   5.833   4.326 -0.2916  1.2530 -3.1540
11451SOL     OW38909   6.758   7.626  11.751  0.1233  0.3616  0.2496
11451SOL    HW138910   6.673   7.583  11.757 -0.8377  2.0770 -0.4451
11451SOL    HW238911   6.808   7.591  11.825 -0.0889 -2.8703 -0.9630
11452SOL     OW38912  11.059   0.915   0.848 -0.3543 -0.1050  0.2194
11452SOL    HW138913  11.092   0.953   0.929  1.5038 -1.6646  0.2618
11452SOL    HW238914  11.121   0.944   0.781 -1.7623  1.0073 -0.6688
11453SOL     OW38915   5.037   2.773   9.926 -0.2140 -0.3978 -0.1910
11453SOL    HW138916   4.974   2.708   9.957  0.3926 -0.2950  1.3649
11453SOL    HW238917   5.122   2.731   9.937  0.1829  0.5874  0.7476
11454SOL     OW38918   3.817   0.087   6.421 -0.3759 -0.2024 -0.2874
11454SOL    HW138919   3.881   0.017   6.419 -0.2728 -0.1084 -0.2999
11454SOL    HW238920   3.822   0.127   6.334  0.8787  0.9959  0.3063
11455SOL     OW38921  11.281   3.230   5.328  0.0839 -0.1191  0.0492
11455SOL    HW138922  11.370   3.240   5.361  0.3819  0.1869 -0.8207
11455SOL    HW238923  11.284   3.153   5.272  0.1828  0.7698 -1.2020
11456SOL     OW38924   2.863   4.583   7.300  0.5280  0.0046  0.3584
11456SOL    HW138925   2.819   4.520   7.243 -0.4068  0.0288  1.0394
11456SOL    HW238926   2.829   4.668   7.272  1.4754  0.2036 -0.2776
11457SOL     OW38927   7.319  10.430  11.069 -0.0970  0.1515  0.6915
11457SOL    HW138928   7.334  10.451  11.161 -0.4816 -0.8886  1.0005
11457SOL    HW238929   7.403  10.447  11.026  1.0449 -2.2454  1.7816
11458SOL     OW38930   1.005  11.832   5.703 -0.2693  0.6049  0.7375
11458SOL    HW138931   1.013  11.744   5.666  2.4192  1.2355 -0.3693
11458SOL    HW238932   0.917  11.860   5.677 -0.6234 -1.1853 -0.1798
11459SOL     OW38933   1.808   5.184   8.270 -0.1785  0.8072  0.1404
11459SOL    HW138934   1.872   5.113   8.268 -0.7744  0.1905  1.7437
11459SOL    HW238935   1.740   5.154   8.330 -0.3493  2.8224  1.0337
11460SOL     OW38936   5.980   7.595   4.823  0.3334  0.2286  0.0051
11460SOL    HW138937   5.918   7.540   4.870 -1.5403  1.5042 -0.8423
11460SOL    HW238938   6.045   7.621   4.889  0.5404 -1.8922  0.6953
11461SOL     OW38939   7.980   6.797   1.647 -0.0085  0.4193 -0.5158
11461SOL    HW138940   8.049   6.792   1.713 -1.0340  2.1499  0.7658
11461SOL    HW238941   7.974   6.709   1.611  0.0794 -0.7808  2.2367
11462SOL     OW38942   0.313   2.760   5.699  0.2647 -0.0804 -0.1662
11462SOL    HW138943   0.335   2.853   5.694  0.6401 -0.1631 -0.1397
11462SOL    HW238944   0.306   2.732   5.608 -1.2402  0.2782 -0.1873
11463SOL     OW38945   5.916   3.378   7.761  0.1715 -0.2594 -0.0772
11463SOL    HW138946   5.850   3.440   7.729 -0.8176 -1.7350 -1.0439
11463SOL    HW238947   5.869   3.323   7.823  0.7696 -0.6505  0.0395
11464SOL     OW38948   1.110   0.434   1.833 -0.0246  0.1314  0.2392
11464SOL    HW138949   1.162   0.495   1.886  0.7464  0.0525 -0.4179
11464SOL    HW238950   1.146   0.348   1.853  0.3379  0.1111 -0.4912
11465SOL     OW38951   0.383   6.458   3.942  0.1245  0.0997  0.3337
11465SOL    HW138952   0.357   6.397   4.010  0.4448  0.0089  0.3775
11465SOL    HW238953   0.344   6.542   3.968  0.6775  0.1855  0.9068
11466SOL     OW38954  12.086  11.496   1.346  0.5584  0.7482 -0.1634
11466SOL    HW138955  12.007  11.524   1.300  1.0964 -0.9723 -2.3482
11466SOL    HW238956  12.094  11.403   1.324  2.1180  0.3980  1.6530
11467SOL     OW38957   9.511   9.468   3.221 -0.1849  0.0543 -0.3820
11467SOL    HW138958   9.480   9.536   3.281  0.8044 -0.2986  0.5669
11467SOL    HW238959   9.592   9.437   3.261 -0.1127 -1.0017 -1.3205
11468SOL     OW38960   7.894   2.537   3.633 -0.8107  0.1283  0.8549
11468SOL    HW138961   7.884   2.560   3.541  0.5181  0.2787  0.7218
11468SOL    HW238962   7.806   2.515   3.662 -1.0346 -1.4125 -0.8435
11469SOL     OW38963   0.458   0.130   8.478  0.1587  0.7518 -0.8809
11469SOL    HW138964   0.422   0.212   8.512 -2.4758  0.1675 -2.0400
11469SOL    HW238965   0.517   0.099   8.547 -0.0298  2.7822  0.2668
11470SOL     OW38966   8.913   9.711   0.485  0.2482  0.0608  0.1660
11470SOL    HW138967   8.907   9.639   0.422  0.7239 -0.0726  0.2699
11470SOL    HW238968   8.981   9.768   0.448  0.9387 -0.3104  0.8529
11471SOL     OW38969   3.240   9.372  11.802 -0.1679  0.0564  0.0320
11471SOL    HW138970   3.217   9.422  11.880  1.7928 -0.6275  1.1446
11471SOL    HW238971   3.217   9.281  11.824 -2.1377  0.1750 -1.3052
11472SOL     OW38972  11.931   3.206   5.293 -0.9752 -0.3656 -0.3724
11472SOL    HW138973  12.017   3.221   5.252 -0.4419 -0.3713  0.7164
11472SOL    HW238974  11.917   3.282   5.349 -1.1310 -0.9261  0.3660
11473SOL     OW38975   7.166  11.145   0.654  0.3274  0.0384  0.2317
11473SOL    HW138976   7.193  11.199   0.728 -0.0377 -0.4681  0.7478
11473SOL    HW238977   7.146  11.059   0.693  0.2199 -0.2610 -0.4656
11474SOL     OW38978   1.523   2.323  11.624  0.1194 -0.4865  0.0336
11474SOL    HW138979   1.543   2.324  11.530  0.4632  0.3975  0.0979
11474SOL    HW238980   1.578   2.394  11.660  0.9573 -1.6326  1.0996
11475SOL     OW38981  11.466   0.235   8.564 -0.2372  0.2192  0.5439
11475SOL    HW138982  11.461   0.242   8.659 -1.5828 -0.3107  0.5392
11475SOL    HW238983  11.525   0.306   8.538  0.9698 -0.2632  1.8370
11476SOL     OW38984   6.461   0.797   1.967 -0.5175 -0.7514  0.0710
11476SOL    HW138985   6.417   0.862   1.911  0.5223  0.2045  0.3135
11476SOL    HW238986   6.467   0.719   1.912 -0.3375 -0.1199 -0.8394
11477SOL     OW38987   3.907   9.093   8.529 -0.6069 -0.0568  0.9911
11477SOL    HW138988   3.999   9.070   8.513 -0.6241  0.0932  0.6743
11477SOL    HW238989   3.887   9.050   8.613 -0.9572 -2.1614 -0.0961
11478SOL     OW38990   7.269  11.673   2.779 -1.0535  0.0211 -0.2985
11478SOL    HW138991   7.323  11.706   2.851  0.9344 -0.8092 -1.3451
11478SOL    HW238992   7.308  11.712   2.701 -2.1303 -0.4277 -1.0772
11479SOL     OW38993   2.809   2.067   9.377  0.0275 -0.2068  0.4784
11479SOL    HW138994   2.896   2.075   9.339  0.2472  1.3944  1.2375
11479SOL    HW238995   2.749   2.073   9.302  0.5408 -0.2097  0.0660
11480SOL     OW38996   1.579  10.190   1.580  0.1388 -0.0925  0.4996
11480SOL    HW138997   1.492  10.156   1.602  0.0498  0.5112  1.1567
11480SOL    HW238998   1.593  10.261   1.644  0.1663  1.2987 -0.9968
11481SOL     OW38999   8.915  11.436   4.547 -0.3523  0.0758 -0.7435
11481SOL    HW139000   8.905  11.484   4.465  0.4455  0.7575 -0.4598
11481SOL    HW239001   8.919  11.344   4.522  0.8563  0.3309 -1.5825
11482SOL     OW39002   0.365   1.552   0.105  0.0902 -0.2963 -0.3065
11482SOL    HW139003   0.393   1.633   0.062  1.5166  0.6509  2.2430
11482SOL    HW239004   0.446   1.511   0.134 -0.7251 -1.7803 -0.0652
11483SOL     OW39005   9.186   9.434   1.105  0.4164 -0.5524  0.5569
11483SOL    HW139006   9.182   9.521   1.144 -1.4183 -1.5934  2.9236
11483SOL    HW239007   9.234   9.381   1.168 -0.3040 -1.7040  0.1797
11484SOL     OW39008   9.687   9.332   3.422 -0.1079 -0.5297  0.6948
11484SOL    HW139009   9.722   9.319   3.511  2.4251  3.4836  0.5456
11484SOL    HW239010   9.710   9.252   3.375  2.0510 -1.1866  2.6873
11485SOL     OW39011  10.821  11.768   4.132  0.1076  0.1179 -0.4508
11485SOL    HW139012  10.912  11.797   4.128  0.6696 -1.1338  1.6746
11485SOL    HW239013  10.787  11.805   4.213 -0.7038 -0.9055 -0.2953
11486SOL     OW39014   6.011   6.950   4.303  0.0780 -0.0907  0.2630
11486SOL    HW139015   6.039   6.865   4.268  1.2409  0.5737 -0.4953
11486SOL    HW239016   5.915   6.945   4.303  0.1199 -1.9356  1.6246
11487SOL     OW39017   8.343   8.149   8.423 -0.0392  0.2983  0.1370
11487SOL    HW139018   8.327   8.220   8.360 -0.1100 -0.3471 -0.5933
11487SOL    HW239019   8.332   8.069   8.371  0.3637 -0.2407  0.8732
11488SOL     OW39020   0.854   1.946   9.449  0.2550 -0.2389  0.0077
11488SOL    HW139021   0.842   1.869   9.504  0.3457  1.1981  2.1621
11488SOL    HW239022   0.797   2.012   9.487  2.0954  1.5436 -0.1393
11489SOL     OW39023   9.067   3.106   8.217 -0.2876 -0.2978  0.0177
11489SOL    HW139024   9.104   3.040   8.158 -0.3723  0.0998 -0.4946
11489SOL    HW239025   9.036   3.056   8.293 -1.6880 -1.0382 -0.9905
11490SOL     OW39026   1.917   6.625   8.762  0.0008  1.0404  0.2511
11490SOL    HW139027   1.951   6.678   8.690 -1.4256 -0.2435 -1.4770
11490SOL    HW239028   1.976   6.642   8.835  1.7456  2.1185 -1.3262
11491SOL     OW39029   8.025   6.616   7.694 -0.0826 -0.1284 -0.2851
11491SOL    HW139030   7.986   6.599   7.779 -1.5415  1.1434 -0.6696
11491SOL    HW239031   8.060   6.705   7.700  1.0411 -0.5219 -0.5992
11492SOL     OW39032   9.197   3.614   0.715 -0.1791  0.4110 -0.2106
11492SOL    HW139033   9.127   3.624   0.779 -0.3606 -0.7407 -0.2076
11492SOL    HW239034   9.222   3.522   0.721 -0.0755  0.3167 -1.6582
11493SOL     OW39035   5.467   6.144   7.587 -0.2543  0.5176  0.0136
11493SOL    HW139036   5.405   6.216   7.582  0.0837  0.9643  1.5335
11493SOL    HW239037   5.413   6.067   7.605 -0.4647  0.7084  0.2028
11494SOL     OW39038   9.426   1.435  10.034  0.3022 -0.3404 -0.2616
11494SOL    HW139039   9.457   1.466   9.949 -1.0745 -1.0535 -1.0379
11494SOL    HW239040   9.470   1.351  10.047  1.1908  0.1671  0.1677
11495SOL     OW39041   7.490   2.697   7.917 -0.2390 -0.3090  0.3809
11495SOL    HW139042   7.465   2.656   8.000  0.9607 -0.7037  0.5614
11495SOL    HW239043   7.560   2.641   7.883 -1.2005 -0.5736 -1.2651
11496SOL     OW39044   0.462  10.185   3.490  0.0874 -0.2418  0.5105
11496SOL    HW139045   0.442  10.278   3.497 -2.8243 -0.5850 -1.4219
11496SOL    HW239046   0.399  10.142   3.548 -1.3166 -1.1437 -1.5746
11497SOL     OW39047   6.176   1.893   6.232 -0.1413  0.1693  0.4379
11497SOL    HW139048   6.096   1.944   6.234  0.3414  1.0499 -1.1558
11497SOL    HW239049   6.238   1.944   6.284  0.1716  0.9513 -0.6685
11498SOL     OW39050   3.303   9.870   7.210  0.5874  0.0643  1.0804
11498SOL    HW139051   3.386   9.894   7.168 -0.1920  0.7226 -0.1460
11498SOL    HW239052   3.246   9.845   7.137 -0.1595 -0.8257  1.9420
11499SOL     OW39053   2.560   9.725   0.827  0.4824 -0.4083  0.0921
11499SOL    HW139054   2.478   9.773   0.836 -0.8407 -1.8860 -2.6771
11499SOL    HW239055   2.626   9.782   0.865 -1.7046  1.1734  1.7236
11500SOL     OW39056   5.648   7.085   2.480  0.1441  0.0756  0.2007
11500SOL    HW139057   5.562   7.099   2.521  0.3037 -0.6957  0.8449
11500SOL    HW239058   5.636   7.006   2.427 -0.2393  1.4247 -1.8389
11501SOL     OW39059   4.838   6.000   6.602 -0.6838 -0.4236  0.2942
11501SOL    HW139060   4.863   5.914   6.568  0.8322 -1.7958  4.2745
11501SOL    HW239061   4.866   6.061   6.534  0.3341 -2.9011 -1.6994
11502SOL     OW39062  11.462   2.251   7.859  0.1622  0.5041  0.1084
11502SOL    HW139063  11.401   2.278   7.790 -0.3287  0.4913  0.5334
11502SOL    HW239064  11.440   2.160   7.876  1.2108  0.0862 -0.6798
11503SOL     OW39065   6.803  10.576   1.903 -1.2505 -0.4086  0.5689
11503SOL    HW139066   6.820  10.486   1.930 -0.8188 -0.5464 -0.1235
11503SOL    HW239067   6.811  10.574   1.808 -0.8678  0.4294  0.5716
11504SOL     OW39068   0.009  11.653   8.417  0.5225 -0.0003 -0.0814
11504SOL    HW139069   0.035  11.616   8.332  3.1331  0.5708  0.3700
11504SOL    HW239070   0.091  11.659   8.466 -0.4535  2.4621  1.4104
11505SOL     OW39071   9.578  10.631   7.643  0.1983  0.9514  0.0519
11505SOL    HW139072   9.633  10.566   7.599 -0.4497  0.1504  0.3840
11505SOL    HW239073   9.606  10.715   7.607  1.5520  0.5597  0.1473
11506SOL     OW39074   6.549  10.803   1.234 -0.1325  0.0769 -0.3100
11506SOL    HW139075   6.555  10.759   1.150  0.2671  2.0713 -1.4083
11506SOL    HW239076   6.512  10.889   1.213  0.0796  0.6610  1.5321
11507SOL     OW39077   5.184  10.908   1.468  0.9650 -0.4611 -0.6090
11507SOL    HW139078   5.275  10.920   1.444  1.5149 -3.7325 -0.6796
11507SOL    HW239079   5.135  10.921   1.386  1.3591  1.0879 -0.6148
11508SOL     OW39080   7.106   1.106   5.759  0.3796 -0.3113 -0.0310
11508SOL    HW139081   7.151   1.190   5.751  0.6472 -0.4386  0.1288
11508SOL    HW239082   7.119   1.080   5.850  0.7387 -0.7715 -0.2102
11509SOL     OW39083   8.365   0.123   9.068 -0.1825 -0.2104  0.2919
11509SOL    HW139084   8.395   0.138   9.158 -0.6764  0.1986  0.3879
11509SOL    HW239085   8.367   0.209   9.028  0.8033 -0.5008 -0.3390
11510SOL     OW39086   9.320   2.127   3.417  0.6930  0.1671 -0.1788
11510SOL    HW139087   9.348   2.037   3.433  0.6193  0.2038  0.1511
11510SOL    HW239088   9.399   2.170   3.383  0.9220  0.1586  0.3381
11511SOL     OW39089   0.203   2.148   3.413  0.0022  0.3622  0.4227
11511SOL    HW139090   0.280   2.159   3.468 -1.0136 -1.4078  2.3446
11511SOL    HW239091   0.236   2.112   3.331  1.3915  1.4720  0.4705
11512SOL     OW39092   6.904   3.135   3.148  0.1192  0.5393  0.3733
11512SOL    HW139093   6.925   3.085   3.069  3.3261  1.7933  0.2803
11512SOL    HW239094   6.937   3.081   3.220  1.3294  1.3269  0.4486
11513SOL     OW39095  10.765   4.583   4.679  0.1251  0.1056 -0.9588
11513SOL    HW139096  10.691   4.643   4.683  0.7229  0.8168 -0.1434
11513SOL    HW239097  10.727   4.499   4.650 -1.0955  0.2677  0.1077
11514SOL     OW39098  10.612   3.870  11.740 -0.3731 -0.6526 -0.1362
11514SOL    HW139099  10.621   3.872  11.836 -0.4208  0.5555 -0.1347
11514SOL    HW239100  10.568   3.953  11.719  0.1962 -0.6158 -1.2632
11515SOL     OW39101   0.521   9.536   7.080 -0.0314 -0.4623 -0.5592
11515SOL    HW139102   0.540   9.613   7.027  0.6768 -0.1611  0.1200
11515SOL    HW239103   0.547   9.560   7.168 -1.8879 -0.6886  0.1079
11516SOL     OW39104  10.539  11.092  11.180 -0.3298  0.6495  0.3154
11516SOL    HW139105  10.604  11.084  11.110 -0.6891  0.5550 -0.0127
11516SOL    HW239106  10.563  11.173  11.226 -0.1981  0.8097 -0.0315
11517SOL     OW39107   4.977  11.950   6.873 -0.2904 -0.2374  0.2141
11517SOL    HW139108   5.043  11.976   6.808  0.0205 -1.0989  0.1671
11517SOL    HW239109   4.930  12.031   6.893  1.7827  0.7617  1.4150
11518SOL     OW39110   2.173   7.773   6.678  0.2441  0.4267 -0.1764
11518SOL    HW139111   2.100   7.776   6.740  0.7499 -0.6488  0.5039
11518SOL    HW239112   2.135   7.802   6.595 -0.4193  1.9701  0.6383
11519SOL     OW39113   1.230   9.824  10.265  0.0432  0.2529 -0.1001
11519SOL    HW139114   1.138   9.816  10.288  0.6646 -1.3763  2.2275
11519SOL    HW239115   1.258   9.906  10.306 -0.7877  2.0891 -2.8715
11520SOL     OW39116   9.267   4.818   8.537 -0.2546  0.0660  0.1623
11520SOL    HW139117   9.213   4.889   8.502 -0.8142 -0.0937  0.6799
11520SOL    HW239118   9.357   4.841   8.512 -0.3234  1.4257  1.0655
11521SOL     OW39119   3.222  10.381   0.978  0.1851 -0.0218  0.7187
11521SOL    HW139120   3.161  10.398   1.050 -1.7383  3.6521 -1.4935
11521SOL    HW239121   3.171  10.329   0.916 -0.8811  2.9623 -1.0857
11522SOL     OW39122   6.160   2.997   0.316  0.7537 -0.0617 -0.3073
11522SOL    HW139123   6.103   2.979   0.391  0.6544 -1.0285 -0.6098
11522SOL    HW239124   6.173   3.092   0.319 -1.0817  0.2326 -0.3771
11523SOL     OW39125   1.156  12.032   6.089 -0.0598  0.6036  0.1612
11523SOL    HW139126   1.080  12.083   6.059  0.4922  1.9047  0.8790
11523SOL    HW239127   1.208  12.018   6.010 -1.1499 -0.5580 -0.3991
11524SOL     OW39128   4.802   0.726   4.958  0.4387 -0.6565 -0.5873
11524SOL    HW139129   4.800   0.702   4.865 -0.0989 -0.8152 -0.5367
11524SOL    HW239130   4.865   0.665   4.997  0.7383 -0.5255 -0.8657
11525SOL     OW39131   7.266   5.870   7.087  0.2579 -0.0394  0.2656
11525SOL    HW139132   7.184   5.829   7.058 -1.1690  0.8383  2.7191
11525SOL    HW239133   7.285   5.935   7.019 -1.3614  0.0725 -0.1376
11526SOL     OW39134   9.161   9.700   9.389 -0.4385  0.5745 -0.2984
11526SOL    HW139135   9.167   9.739   9.477 -0.9548  1.3932 -0.6125
11526SOL    HW239136   9.118   9.616   9.403 -1.7448  1.2779  0.0916
11527SOL     OW39137   5.775  10.514  10.989 -0.4052 -0.5340  0.0580
11527SOL    HW139138   5.774  10.467  10.906  1.2024  0.6483 -0.6884
11527SOL    HW239139   5.703  10.476  11.039 -0.0259 -2.7931 -1.0097
11528SOL     OW39140   4.513   7.195   2.465 -0.4174 -0.4974  0.2094
11528SOL    HW139141   4.496   7.246   2.544 -1.1756 -0.3878 -0.0179
11528SOL    HW239142   4.453   7.120   2.471  1.4415 -2.0293  1.1045
11529SOL     OW39143   8.950   3.114   0.292  1.0485  0.2682  0.3568
11529SOL    HW139144   8.924   3.180   0.357 -0.0742  1.3678 -1.1586
11529SOL    HW239145   8.878   3.110   0.230  1.8215 -1.2133 -0.5120
11530SOL     OW39146   8.510   5.137   9.072 -0.2296  0.4577 -0.5087
11530SOL    HW139147   8.431   5.115   9.023 -0.2686 -3.0434  0.8111
11530SOL    HW239148   8.485   5.126   9.164  1.4205  0.5978 -0.0094
11531SOL     OW39149   5.706   0.679   4.624 -0.0281  0.0051 -0.3802
11531SOL    HW139150   5.649   0.733   4.679  3.4121  2.0675  1.5500
11531SOL    HW239151   5.770   0.643   4.685  0.3526 -2.9085 -2.2833
11532SOL     OW39152   3.478  10.318  12.054 -0.2156  0.1084  0.2481
11532SOL    HW139153   3.454  10.398  12.100 -1.0079 -0.1848  0.3686
11532SOL    HW239154   3.410  10.308  11.987 -0.6926 -0.9617  0.8553
11533SOL     OW39155  11.691   0.001   9.177 -0.4198  0.1063  0.0716
11533SOL    HW139156  11.692   0.017   9.082  0.4847  0.6702  0.1582
11533SOL    HW239157  11.783  -0.020   9.198 -0.2709  1.6574  1.0835
11534SOL     OW39158   5.590   2.949   3.494 -0.2198  0.3998 -0.2387
11534SOL    HW139159   5.596   2.989   3.407  1.2423 -2.4859 -1.6110
11534SOL    HW239160   5.658   2.993   3.545  0.1318  0.9007 -1.1122
11535SOL     OW39161   7.794  10.081   1.124  0.1690 -0.4984 -0.4353
11535SOL    HW139162   7.875  10.131   1.112  0.1287 -0.7328 -1.8491
11535SOL    HW239163   7.735  10.114   1.057 -0.2804 -1.5921 -0.5945
11536SOL     OW39164   3.719   1.325  10.949 -0.2196  0.5501 -0.1602
11536SOL    HW139165   3.714   1.244  10.897  2.3451  0.5662 -0.5840
11536SOL    HW239166   3.668   1.389  10.900 -1.6242 -0.5774 -0.2358
11537SOL     OW39167   6.143   0.209  10.449  0.1735 -0.2307  0.0090
11537SOL    HW139168   6.187   0.129  10.479  0.9651  1.1609  2.8977
11537SOL    HW239169   6.212   0.275  10.446 -0.9627  1.0248  0.5932
11538SOL     OW39170   8.430   4.023   0.909 -1.0633  0.2052 -0.1248
11538SOL    HW139171   8.495   4.089   0.885 -1.2923 -0.2721 -2.2325
11538SOL    HW239172   8.347   4.070   0.911 -1.2025  0.0539 -1.4673
11539SOL     OW39173   7.279   6.059  11.061 -0.2115 -0.6787 -0.3218
11539SOL    HW139174   7.299   6.023  11.147 -0.8313 -0.3345 -0.0262
11539SOL    HW239175   7.191   6.027  11.041 -0.3239 -0.2414 -0.5451
11540SOL     OW39176   3.513   0.694   6.421  0.0560  0.1639 -0.3876
11540SOL    HW139177   3.549   0.623   6.474 -1.0094 -0.8084 -0.9156
11540SOL    HW239178   3.587   0.752   6.404  0.9205 -0.7529  0.1726
11541SOL     OW39179  11.470   8.532   0.022  0.0036 -0.6702 -0.0146
11541SOL    HW139180  11.429   8.600   0.077 -0.2724 -1.1901  0.4327
11541SOL    HW239181  11.397   8.496  -0.029  0.5013  0.9767 -2.0482
11542SOL     OW39182   4.700   6.071   9.361  0.3814 -0.6716 -0.5983
11542SOL    HW139183   4.664   6.106   9.443  0.1153 -1.8664 -0.1763
11542SOL    HW239184   4.631   6.085   9.296 -0.0516 -1.1187 -0.2495
11543SOL     OW39185   1.947   8.053   0.200  0.1245  0.1196 -0.3116
11543SOL    HW139186   1.853   8.062   0.189  0.1787 -0.4880 -1.4471
11543SOL    HW239187   1.982   8.052   0.111  1.2947  1.1489  0.1145
11544SOL     OW39188   5.852   6.284   1.740  0.0892 -0.0222  0.1823
11544SOL    HW139189   5.896   6.246   1.663 -0.0379 -0.2627  0.2259
11544SOL    HW239190   5.803   6.358   1.705 -0.1602 -0.2757 -0.0128
11545SOL     OW39191   8.901  11.992  11.904 -0.4069 -0.6653 -0.0347
11545SOL    HW139192   8.842  12.042  11.847  1.3740  2.5974  0.6854
11545SOL    HW239193   8.972  11.965  11.846 -1.8098 -3.4324 -0.6247
11546SOL     OW39194  11.394   2.374   4.059 -0.2373 -0.2690  0.7060
11546SOL    HW139195  11.350   2.305   4.010 -0.5610 -0.0034  0.6156
11546SOL    HW239196  11.432   2.330   4.135 -0.8644 -0.4635  0.9124
11547SOL     OW39197   0.311  11.584   6.439 -0.2499  0.2317 -0.5128
11547SOL    HW139198   0.387  11.603   6.495 -0.9928  1.2003  0.2090
11547SOL    HW239199   0.316  11.650   6.369 -0.7359  0.6897 -0.1294
11548SOL     OW39200   3.877   1.930  10.046  0.5750 -0.2820  0.4022
11548SOL    HW139201   3.885   2.007  10.103 -2.5181  0.9406 -0.6242
11548SOL    HW239202   3.828   1.866  10.098 -0.3108 -0.0085 -0.0735
11549SOL     OW39203   9.940   3.465   5.246  0.1226  0.2614  0.2432
11549SOL    HW139204  10.029   3.437   5.270 -0.3845 -1.1743  0.5715
11549SOL    HW239205   9.952   3.546   5.197  1.5369  0.6832  1.2262
11550SOL     OW39206   8.136   6.707   5.276  0.6561 -0.5569 -0.6017
11550SOL    HW139207   8.171   6.690   5.363  0.4499 -2.0592 -0.7848
11550SOL    HW239208   8.081   6.785   5.287  0.2725 -0.9952  0.7109
11551SOL     OW39209   0.121   6.988  10.426  0.2618  0.0075 -0.3163
11551SOL    HW139210   0.203   6.944  10.404 -0.6319 -1.9762  0.1567
11551SOL    HW239211   0.079   7.005  10.342  0.2253 -0.8398 -0.4733
11552SOL     OW39212   1.980  10.983  10.841 -0.4755  0.7537 -0.7190
11552SOL    HW139213   1.907  10.983  10.902 -0.0488  0.3702 -0.1972
11552SOL    HW239214   1.987  10.893  10.812 -1.4167  1.1472 -2.2583
11553SOL     OW39215  11.143   4.288   3.901  0.6148 -0.0352 -0.1376
11553SOL    HW139216  11.237   4.294   3.917  0.7964 -1.4225 -0.5571
11553SOL    HW239217  11.116   4.377   3.878  1.5453  0.6658  1.3955
11554SOL     OW39218   5.991   4.698   9.069  0.2570  0.3486  0.0286
11554SOL    HW139219   6.022   4.773   9.018  0.4270 -0.3802 -0.9766
11554SOL    HW239220   6.069   4.670   9.118  0.1524  0.9151  0.5277
11555SOL     OW39221   8.402  10.972   9.600  0.1186  0.7105 -0.0959
11555SOL    HW139222   8.379  10.880   9.582 -1.2770 -0.0217  4.0895
11555SOL    HW239223   8.325  11.021   9.572 -0.6739  0.0632  0.8486
11556SOL     OW39224   5.596   4.663   5.615 -0.1381  0.5775  0.0845
11556SOL    HW139225   5.559   4.656   5.703  0.0957 -2.3528  0.0593
11556SOL    HW239226   5.520   4.675   5.558 -0.3770  1.5288  0.5868
11557SOL     OW39227   8.738   7.684   0.020 -0.1090  0.0983 -0.1486
11557SOL    HW139228   8.720   7.678   0.113 -0.6028  0.3519 -0.2250
11557SOL    HW239229   8.833   7.689   0.014 -0.1344  1.8292  0.4467
11558SOL     OW39230   7.411  11.229   7.591 -0.0857  0.1623 -0.4946
11558SOL    HW139231   7.326  11.199   7.622 -0.1147  0.8461  0.1223
11558SOL    HW239232   7.460  11.149   7.573 -0.2188 -0.2552  0.9302
11559SOL     OW39233   0.599   2.158   1.961  0.4020  0.3100  0.2145
11559SOL    HW139234   0.514   2.118   1.946  0.9944 -0.0539 -2.7761
11559SOL    HW239235   0.643   2.099   2.023 -0.5226 -1.0297 -0.3713
11560SOL     OW39236   0.240   6.454   9.007  0.3855 -0.4773  0.0662
11560SOL    HW139237   0.173   6.409   9.060  0.2759  2.1516  2.4230
11560SOL    HW239238   0.205   6.453   8.918 -1.5074 -1.5209  0.7589
11561SOL     OW39239   5.215   0.095   3.031 -0.0148  0.8240 -0.0594
11561SOL    HW139240   5.191   0.164   3.093  0.0861  0.8211 -0.0173
11561SOL    HW239241   5.311   0.098   3.027 -0.0858  1.9525 -1.5116
11562SOL     OW39242  11.026   0.220   7.018  0.4030 -1.2020  0.2368
11562SOL    HW139243  11.017   0.198   6.926  0.0379 -1.5186  0.3449
11562SOL    HW239244  10.977   0.152   7.064  0.3635 -0.9009  0.6478
11563SOL     OW39245   9.853  11.759  11.769 -0.2703 -0.4622 -0.3206
11563SOL    HW139246   9.906  11.736  11.693  0.4437  0.2848 -0.0690
11563SOL    HW239247   9.838  11.853  11.761  0.3156 -0.2558  0.7499
11564SOL     OW39248   9.054   3.013   1.037 -0.0860 -0.2007  0.4923
11564SOL    HW139249   9.130   2.959   1.060 -0.6549 -0.3720  2.1077
11564SOL    HW239250   8.995   3.003   1.111 -1.2525  0.7488 -0.2788
11565SOL     OW39251   8.239  12.127  11.456 -0.3689 -0.1169 -0.1036
11565SOL    HW139252   8.323  12.096  11.489 -1.3861 -0.4604  2.3615
11565SOL    HW239253   8.233  12.092  11.367  1.1878 -1.8335  0.4155
11566SOL     OW39254   8.244  11.311   0.325  0.1874 -0.5793 -0.5139
11566SOL    HW139255   8.319  11.368   0.310  0.2786 -0.6003 -0.1601
11566SOL    HW239256   8.276  11.223   0.302  0.1446 -0.5309 -0.7561
11567SOL     OW39257   4.906   3.878   5.227  0.3034 -0.3089  0.4087
11567SOL    HW139258   4.952   3.832   5.297  1.1650 -0.0484  0.0237
11567SOL    HW239259   4.879   3.961   5.266  0.1548 -0.4630  0.6351
11568SOL     OW39260   4.736   1.961  11.751 -0.2865 -0.0075 -0.4494
11568SOL    HW139261   4.647   1.972  11.717  0.0593  0.2095 -1.2990
11568SOL    HW239262   4.751   2.038  11.806 -0.8126 -0.3124  0.1409
11569SOL     OW39263   8.325  10.721   9.620 -0.5604 -0.6232 -0.4262
11569SOL    HW139264   8.267  10.646   9.607 -1.6628 -0.1060  1.1552
11569SOL    HW239265   8.307  10.750   9.709  0.9646  0.5860 -0.4631
11570SOL     OW39266   9.555   6.597   8.141 -0.2657 -0.1314  0.1489
11570SOL    HW139267   9.503   6.536   8.088  2.3554 -3.0325  0.6215
11570SOL    HW239268   9.502   6.612   8.219 -1.5915 -0.6225 -0.6126
11571SOL     OW39269   2.860   8.441  11.478 -0.5486 -0.3170  0.7583
11571SOL    HW139270   2.844   8.514  11.417 -0.3017  0.9463  2.1530
11571SOL    HW239271   2.789   8.446  11.541  0.7412  0.2164  2.2310
11572SOL     OW39272   2.164   5.762   3.180 -0.1624 -0.2167 -0.0501
11572SOL    HW139273   2.220   5.783   3.105  0.5238 -0.4578  0.3820
11572SOL    HW239274   2.203   5.810   3.252  0.1295 -1.2152  0.4835
11573SOL     OW39275   9.420   1.813   5.167  0.2560  0.3850 -0.3382
11573SOL    HW139276   9.440   1.832   5.258 -1.5209  2.7154 -0.3548
11573SOL    HW239277   9.329   1.839   5.156  0.7279  1.2026 -3.0318
11574SOL     OW39278   5.425   6.110   4.982 -0.8436  0.6080  0.2529
11574SOL    HW139279   5.339   6.070   4.987 -0.7248  0.4080  0.7954
11574SOL    HW239280   5.485   6.036   4.966 -0.6514  0.5927  1.0102
11575SOL     OW39281   1.509  10.923   3.615  0.2675 -0.6063  0.0028
11575SOL    HW139282   1.473  10.974   3.687  0.9633 -0.2707  0.1275
11575SOL    HW239283   1.504  10.981   3.540 -0.8166 -1.0954 -0.3179
11576SOL     OW39284   7.406   6.210   6.672 -0.1037  0.2299  0.0433
11576SOL    HW139285   7.378   6.143   6.611  0.9213 -0.3899  0.2181
11576SOL    HW239286   7.352   6.286   6.652 -1.4224 -0.6941 -0.0374
11577SOL     OW39287   0.316   1.169   8.965 -0.0843  0.0396 -0.4706
11577SOL    HW139288   0.358   1.083   8.962 -1.9083 -0.9363 -0.1735
11577SOL    HW239289   0.313   1.197   8.873  2.6108  0.9295 -0.3469
11578SOL     OW39290   0.042   5.496   8.296 -0.4560  0.5092  0.1405
11578SOL    HW139291  -0.019   5.569   8.288 -1.7924 -0.6738 -0.9254
11578SOL    HW239292   0.121   5.526   8.251  0.0327  2.2588  1.9812
11579SOL     OW39293   2.185   3.325   1.256 -0.1067  0.1386  0.0774
11579SOL    HW139294   2.145   3.240   1.275  0.1705  0.0894  0.4477
11579SOL    HW239295   2.242   3.342   1.331  0.1881  0.4382 -0.2136
11580SOL     OW39296  10.628   6.775  12.013  0.3619  0.3349  0.1000
11580SOL    HW139297  10.680   6.722  12.074  1.2540 -0.3187 -1.2072
11580SOL    HW239298  10.688   6.842  11.981 -0.9500  2.7427  2.3188
11581SOL     OW39299   9.338   1.720   2.262 -0.1499 -0.0156 -0.1371
11581SOL    HW139300   9.352   1.645   2.204  0.0471 -0.1146  0.0372
11581SOL    HW239301   9.302   1.682   2.342  0.8155 -0.0402  0.3018
11582SOL     OW39302   5.086   2.650   4.501  0.2958 -0.1952 -0.6022
11582SOL    HW139303   5.059   2.676   4.589 -1.2608  0.4484 -1.2269
11582SOL    HW239304   5.121   2.562   4.511  2.2071  0.6687  0.9836
11583SOL     OW39305   7.998   3.876   7.541 -0.0249 -0.0494 -0.9510
11583SOL    HW139306   7.980   3.950   7.482 -0.2457  0.3473 -0.3983
11583SOL    HW239307   7.912   3.841   7.562  0.0263  0.0387 -0.5832
11584SOL     OW39308  10.559   9.509  10.674  0.3332 -0.1450 -1.0318
11584SOL    HW139309  10.473   9.536  10.706  0.0991 -0.5393 -1.3199
11584SOL    HW239310  10.581   9.575  10.607  0.6734  0.4845 -0.3152
11585SOL     OW39311   3.833   5.139   8.620  0.2956 -0.3239 -0.2599
11585SOL    HW139312   3.903   5.107   8.563 -0.5979  2.0084 -2.9114
11585SOL    HW239313   3.858   5.230   8.639 -1.5793  0.2788 -0.5669
11586SOL     OW39314   9.661   0.486   8.834  0.2031  0.1920 -0.2451
11586SOL    HW139315   9.610   0.439   8.769 -0.4834  0.9782 -0.2855
11586SOL    HW239316   9.730   0.530   8.784  0.0615  0.2758 -0.3678
11587SOL     OW39317   3.771  11.803   7.800  0.1224 -0.0730  0.7825
11587SOL    HW139318   3.761  11.853   7.719 -0.6958 -0.9095  0.3578
11587SOL    HW239319   3.686  11.763   7.815  0.3836 -0.2678  1.8464
11588SOL     OW39320   6.263   7.533   7.387  0.0744  0.2311  0.2122
11588SOL    HW139321   6.168   7.534   7.374  0.2361  0.1073 -1.0324
11588SOL    HW239322   6.274   7.568   7.476 -1.1188  0.4499  0.3000
11589SOL     OW39323   9.101   6.548   8.601 -0.1994 -0.2563  0.4738
11589SOL    HW139324   9.036   6.491   8.560  0.4139 -0.5212 -0.1530
11589SOL    HW239325   9.082   6.635   8.567 -1.6333  0.0822  2.0394
11590SOL     OW39326   0.459   9.895   5.830 -0.1702 -0.7429  0.2228
11590SOL    HW139327   0.497   9.942   5.756 -1.6684 -1.3056 -0.9536
11590SOL    HW239328   0.487   9.945   5.907  2.0306 -0.5520 -0.6125
11591SOL     OW39329   1.195   0.242   6.525 -0.1519 -0.3656 -0.1204
11591SOL    HW139330   1.139   0.266   6.599 -0.7477 -3.5505  0.6249
11591SOL    HW239331   1.141   0.259   6.447 -1.9396 -2.4706  0.5387
11592SOL     OW39332   1.263   8.890  11.431 -0.6920 -0.0172  0.7305
11592SOL    HW139333   1.194   8.824  11.420 -0.7091 -0.2671  2.1495
11592SOL    HW239334   1.344   8.840  11.428 -0.5167  0.3048 -1.1611
11593SOL     OW39335   3.102   1.114   8.200  0.0013 -0.6236 -0.0108
11593SOL    HW139336   3.188   1.154   8.195 -0.4331  0.4016  0.3452
11593SOL    HW239337   3.041   1.186   8.179 -0.7535 -1.3743 -0.4689
11594SOL     OW39338   3.507   1.998   6.835  0.5333 -0.0869  0.2541
11594SOL    HW139339   3.555   2.038   6.907 -0.9595 -0.5410  1.5472
11594SOL    HW239340   3.423   2.043   6.833  0.6943  0.2139 -1.5173
11595SOL     OW39341   5.112   1.121   4.176 -0.7230 -0.0366  0.2541
11595SOL    HW139342   5.154   1.207   4.174  1.4801 -0.8923  3.0085
11595SOL    HW239343   5.176   1.062   4.136 -1.3173 -0.7145  0.2810
11596SOL     OW39344  11.074  11.457  11.230  0.0258 -0.1372  0.1084
11596SOL    HW139345  11.108  11.396  11.296  0.0517  0.7185  0.9188
11596SOL    HW239346  10.989  11.484  11.264 -0.2596 -0.1996 -0.5515
11597SOL     OW39347   1.550   0.998  10.737 -0.6691 -0.3797 -0.6175
11597SOL    HW139348   1.588   1.067  10.791 -1.0233 -1.6422  1.3801
11597SOL    HW239349   1.459   0.992  10.766 -1.2224 -0.3048 -2.2405
11598SOL     OW39350   0.949   5.807   7.453 -0.2983  0.3840 -0.0550
11598SOL    HW139351   0.964   5.898   7.476 -0.7349  0.7684 -1.1997
11598SOL    HW239352   1.015   5.758   7.503  1.6488  1.5537 -1.3494
11599SOL     OW39353   8.925   3.942   9.743 -0.5036 -0.2166  0.9101
11599SOL    HW139354   9.020   3.945   9.752 -0.6047  1.6225  1.9425
11599SOL    HW239355   8.903   4.028   9.707 -1.5786 -1.6420 -2.2356
11600SOL     OW39356   0.675   9.273   5.140 -0.4002 -0.0186  0.3664
11600SOL    HW139357   0.747   9.270   5.077 -0.1096  1.0883  0.6071
11600SOL    HW239358   0.693   9.201   5.200  0.5786  0.2862  0.4708
11601SOL     OW39359   6.326   7.847   6.739 -0.2074  0.4852  0.0108
11601SOL    HW139360   6.299   7.832   6.649  2.8972 -0.9437 -0.8274
11601SOL    HW239361   6.396   7.912   6.733  1.4787 -1.1228  1.0502
11602SOL     OW39362   1.701   1.949   4.124 -0.3218  0.0644 -0.5978
11602SOL    HW139363   1.748   2.030   4.104  0.7788  0.4147  2.8245
11602SOL    HW239364   1.762   1.899   4.179 -2.6008 -1.0811  1.0556
11603SOL     OW39365  11.603   5.128   0.965 -0.5619 -0.3098 -0.3062
11603SOL    HW139366  11.541   5.073   1.013 -1.4539  1.0500  0.1449
11603SOL    HW239367  11.574   5.217   0.982  1.6951  0.3962  0.1432
11604SOL     OW39368   4.244  10.357   4.968 -0.1511  0.1037  0.0907
11604SOL    HW139369   4.303  10.316   5.031  0.5713 -0.9249 -1.1825
11604SOL    HW239370   4.184  10.408   5.020  1.4817  0.6781  1.5030
11605SOL     OW39371   0.100   4.901   5.167 -0.0692  0.1578  0.0871
11605SOL    HW139372   0.170   4.873   5.107 -0.2129  0.5070 -0.2472
11605SOL    HW239373   0.146   4.940   5.241  0.0732  1.5217 -0.6954
11606SOL     OW39374  12.021   9.021  10.318 -0.6161  0.3045 -0.8532
11606SOL    HW139375  11.957   9.083  10.281 -2.2351 -1.0384 -0.3928
11606SOL    HW239376  11.968   8.951  10.356  1.1529 -1.0273 -0.7215
11607SOL     OW39377   3.836  11.792   8.601  0.6478 -0.0739  0.7487
11607SOL    HW139378   3.873  11.880   8.602 -0.2102  0.2905  1.6855
11607SOL    HW239379   3.814  11.776   8.509 -1.7947  1.8189  0.9204
11608SOL     OW39380   7.758   5.786   9.153 -0.2130 -0.4532  0.6145
11608SOL    HW139381   7.723   5.715   9.099  0.5042  0.8258 -1.6512
11608SOL    HW239382   7.850   5.762   9.168 -0.0213 -0.1211  0.0063
11609SOL     OW39383  11.515   7.255   0.267  0.5104 -0.1308  0.8540
11609SOL    HW139384  11.461   7.269   0.189 -0.1370 -2.6139  0.7808
11609SOL    HW239385  11.458   7.279   0.341 -0.4637 -1.9198  0.7328
11610SOL     OW39386   2.394   1.590  10.428 -0.2593 -0.0594 -0.2792
11610SOL    HW139387   2.366   1.499  10.422 -1.1063  0.1201  0.6809
11610SOL    HW239388   2.457   1.591  10.501 -0.7083  0.2139  0.1146
11611SOL     OW39389   8.877   9.722   8.299  0.0705  0.0598  0.4367
11611SOL    HW139390   8.871   9.691   8.209 -1.4280  1.5792 -0.0244
11611SOL    HW239391   8.899   9.814   8.292  0.2172  0.1314  1.6511
11612SOL     OW39392   7.887   1.166   5.275  0.0272 -0.2501  0.3926
11612SOL    HW139393   7.968   1.124   5.246  0.7502  0.4262  1.3728
11612SOL    HW239394   7.844   1.102   5.331  0.8532  0.0706  1.4323
11613SOL     OW39395   1.983   3.908   2.801  0.1617 -0.1025 -0.2423
11613SOL    HW139396   2.035   3.922   2.880 -0.6151  0.3169  0.1971
11613SOL    HW239397   2.043   3.931   2.730  0.1097  1.9253  0.3154
11614SOL     OW39398   2.616  10.515   5.597  0.8780 -0.2171 -0.4905
11614SOL    HW139399   2.602  10.508   5.502 -0.1718  0.0135 -0.3580
11614SOL    HW239400   2.559  10.449   5.635  2.4884 -1.4292 -0.0789
11615SOL     OW39401   2.985   8.167   6.265 -0.4805  0.2698 -0.2798
11615SOL    HW139402   2.985   8.244   6.209 -0.8348 -1.3627 -2.6693
11615SOL    HW239403   2.897   8.164   6.303 -0.6604  0.6850 -0.6582
11616SOL     OW39404   3.599   3.224   1.006  0.1540 -0.0264 -0.4806
11616SOL    HW139405   3.683   3.233   1.052  0.3647 -4.5656  0.4275
11616SOL    HW239406   3.623   3.222   0.913  1.1774 -1.6133 -0.2201
11617SOL     OW39407  11.551   8.567  10.547 -0.4608 -0.3903  0.0281
11617SOL    HW139408  11.612   8.621  10.497  0.1193 -0.5673  0.5275
11617SOL    HW239409  11.529   8.620  10.623  1.7640 -1.6015  1.6376
11618SOL     OW39410   4.657   9.418   5.484 -0.2281  0.1769  0.6055
11618SOL    HW139411   4.676   9.364   5.560  0.2447 -0.6184 -0.0561
11618SOL    HW239412   4.605   9.491   5.518 -1.1688 -0.8634  1.4561
11619SOL     OW39413   1.330   7.498   4.747  0.2522  0.0591  0.4541
11619SOL    HW139414   1.244   7.492   4.705  0.8144 -0.7351 -0.6223
11619SOL    HW239415   1.326   7.433   4.817  0.3557 -0.8052 -0.3226
11620SOL     OW39416   9.539   7.771  11.004  0.2868 -0.0248  0.0019
11620SOL    HW139417   9.534   7.760  10.909 -0.2806 -0.3552  0.0653
11620SOL    HW239418   9.502   7.691  11.040  1.8281 -0.5332  0.5283
11621SOL     OW39419   4.742   9.546   9.554  0.2480 -0.2198 -0.5222
11621SOL    HW139420   4.654   9.537   9.516 -0.6357  0.0510  1.3425
11621SOL    HW239421   4.797   9.489   9.500 -0.8030  0.4888 -2.4584
11622SOL     OW39422   3.747   8.661   6.924  0.0480 -0.0538  0.2219
11622SOL    HW139423   3.689   8.585   6.931  0.5007 -0.3893  0.3552
11622SOL    HW239424   3.767   8.684   7.015  3.1152 -2.2489  0.2364
11623SOL     OW39425   7.945   0.841  11.563  0.5897  0.0791 -0.2152
11623SOL    HW139426   7.953   0.817  11.655 -0.6909 -1.1970 -0.4084
11623SOL    HW239427   7.856   0.816  11.539  0.1184  2.4255 -1.2352
11624SOL     OW39428   0.914   0.661   3.374 -0.3877  0.4912  0.3302
11624SOL    HW139429   0.989   0.717   3.398  0.3849  0.1742 -1.2288
11624SOL    HW239430   0.954   0.580   3.344 -1.4205 -0.0827  0.4751
11625SOL     OW39431   9.650   4.132   7.525  0.1594 -0.6192 -0.2568
11625SOL    HW139432   9.670   4.200   7.589 -1.1646  0.2512 -0.7242
11625SOL    HW239433   9.590   4.073   7.570  1.5582 -1.6912  0.2537
11626SOL     OW39434   4.354   7.964   3.463 -0.5043  0.0423  0.1339
11626SOL    HW139435   4.270   7.933   3.496 -0.5681 -0.4907 -0.5099
11626SOL    HW239436   4.346   7.959   3.368  0.3243 -0.2081  0.0689
11627SOL     OW39437  11.878  11.018   0.310  0.3920  0.3357  0.4701
11627SOL    HW139438  11.929  10.938   0.298 -1.0430 -0.7193  1.1136
11627SOL    HW239439  11.841  11.010   0.398 -1.1929  0.8627 -0.1084
11628SOL     OW39440   4.424   6.617   2.082  0.1453 -0.0673 -0.1963
11628SOL    HW139441   4.415   6.607   2.177 -0.4367  0.6560 -0.1668
11628SOL    HW239442   4.518   6.617   2.066  0.2626  0.5419  0.4666
11629SOL     OW39443   2.156   6.759   2.079  0.3422 -0.1869  0.1326
11629SOL    HW139444   2.099   6.694   2.039  0.7953  0.6549 -1.9997
11629SOL    HW239445   2.235   6.711   2.104  0.4358 -0.5749 -0.8805
11630SOL     OW39446   5.023   8.971   5.571  0.0573  0.5046  0.0290
11630SOL    HW139447   5.054   9.009   5.654 -1.5553 -1.4232  1.5924
11630SOL    HW239448   4.965   9.038   5.535  1.2251  1.6088  0.1261
11631SOL     OW39449  10.929   5.017   7.761 -0.0353  0.1765 -0.3599
11631SOL    HW139450  11.017   4.982   7.773 -0.7388 -2.4226 -1.9623
11631SOL    HW239451  10.872   4.952   7.803 -1.2485  1.7535  0.5531
11632SOL     OW39452   7.918   4.191   1.671 -0.4974 -0.2407  0.2360
11632SOL    HW139453   7.905   4.125   1.740 -1.2768  1.1906  1.5309
11632SOL    HW239454   7.883   4.272   1.709  0.7942  1.0184 -1.1440
11633SOL     OW39455   2.170   6.080   2.566 -0.9936 -0.3811 -1.0689
11633SOL    HW139456   2.126   5.995   2.575  0.0131 -0.7716  0.4665
11633SOL    HW239457   2.110   6.131   2.511 -1.3519 -2.2364 -2.5177
11634SOL     OW39458  10.865   1.612  11.052 -0.0193  0.3991  0.1729
11634SOL    HW139459  10.782   1.597  11.098  0.9139 -1.5677  1.3640
11634SOL    HW239460  10.919   1.659  11.116  0.0885  0.8715 -0.2644
11635SOL     OW39461  10.679   6.720   2.076 -0.0150  0.2694  0.0196
11635SOL    HW139462  10.774   6.704   2.076 -0.2766 -1.5982 -1.4027
11635SOL    HW239463  10.663   6.768   2.157  1.6787 -2.5212  2.1610
11636SOL     OW39464   6.982   6.623   2.313 -0.3588  0.4680 -0.0269
11636SOL    HW139465   7.053   6.687   2.318  0.7341 -0.6057 -0.8938
11636SOL    HW239466   6.966   6.599   2.404  0.5722  0.5684  0.1820
11637SOL     OW39467   7.002   1.031  10.692  0.0191 -0.6899 -0.2014
11637SOL    HW139468   6.936   0.964  10.707 -0.9843  0.0128 -1.3214
11637SOL    HW239469   6.953   1.106  10.659  1.3198  0.0148 -0.5909
11638SOL     OW39470   6.409  10.390   7.439  0.3616  0.1732 -0.3515
11638SOL    HW139471   6.458  10.447   7.498 -2.0685  1.3169  0.7055
11638SOL    HW239472   6.340  10.446   7.404 -1.5992 -1.8784  0.0175
11639SOL     OW39473   2.474   2.990   4.672  0.0481  0.2290  0.2112
11639SOL    HW139474   2.504   3.030   4.590  1.9148  2.0167  1.6537
11639SOL    HW239475   2.554   2.966   4.717 -0.9853 -2.6987  0.6805
11640SOL     OW39476   9.179   4.373   9.238 -0.1541  0.2952 -0.1031
11640SOL    HW139477   9.156   4.426   9.315  0.5776  0.5083 -0.0207
11640SOL    HW239478   9.117   4.301   9.239 -0.5350  0.6209  0.3512
11641SOL     OW39479   8.326   4.972   9.284  0.3887  0.3009 -0.1809
11641SOL    HW139480   8.316   5.067   9.296 -0.0340  0.5358 -2.0624
11641SOL    HW239481   8.421   4.960   9.273  0.2663  0.8795 -2.2856
11642SOL     OW39482   5.301  10.983   3.765  0.3021  0.5557  0.0168
11642SOL    HW139483   5.388  10.971   3.805  0.4160  1.9093  0.2031
11642SOL    HW239484   5.274  11.071   3.792 -0.0718  1.1091 -2.0497
11643SOL     OW39485   2.316   9.491   9.214  0.0713  0.3857  0.0805
11643SOL    HW139486   2.355   9.404   9.208 -0.7693  0.0961 -1.5553
11643SOL    HW239487   2.391   9.551   9.204  1.0617 -0.0127  3.6545
11644SOL     OW39488   2.463   6.827   5.397 -0.2901  0.5129 -0.2871
11644SOL    HW139489   2.485   6.888   5.327 -0.2600  0.8639  0.0224
11644SOL    HW239490   2.517   6.750   5.380  0.6604  1.0786  0.0588
11645SOL     OW39491   3.706   6.367   6.565  0.2316  0.1598 -0.1371
11645SOL    HW139492   3.781   6.344   6.620 -1.7708 -0.2380  2.6368
11645SOL    HW239493   3.652   6.288   6.565 -0.9645  0.9560 -0.6949
11646SOL     OW39494   1.133   5.091   6.883  0.2791 -0.4990  0.2781
11646SOL    HW139495   1.100   5.044   6.806 -1.8560 -1.0481  1.4302
11646SOL    HW239496   1.072   5.164   6.894  1.4994  0.5125  0.5502
11647SOL     OW39497   5.585   4.729   0.055  0.3031 -0.0336 -0.5550
11647SOL    HW139498   5.540   4.813   0.040  0.1222 -0.2696 -1.3884
11647SOL    HW239499   5.673   4.743   0.021  1.8009  1.2555  3.2989
11648SOL     OW39500  11.473   2.086   3.717 -0.1448  0.0742  0.5116
11648SOL    HW139501  11.378   2.086   3.704  0.0424 -0.5117 -1.0370
11648SOL    HW239502  11.497   2.179   3.717 -0.3175  0.2282 -2.8141
11649SOL     OW39503   3.328  11.689   8.702  0.3893 -0.6067  0.0488
11649SOL    HW139504   3.316  11.595   8.695  0.2309 -0.4875 -1.5484
11649SOL    HW239505   3.422  11.702   8.695  0.2979 -0.5510 -1.1545
11650SOL     OW39506   2.636   1.587   7.854 -0.7572  0.3865 -0.0532
11650SOL    HW139507   2.688   1.668   7.849 -1.4964  0.8209 -1.5274
11650SOL    HW239508   2.694   1.524   7.895 -0.4774  1.8866  2.0124
11651SOL     OW39509  10.825   4.509   2.756  0.3487  0.0152  0.3208
11651SOL    HW139510  10.787   4.504   2.668  0.8578 -0.1380  0.1078
11651SOL    HW239511  10.772   4.448   2.808 -0.4344  0.6671  0.3061
11652SOL     OW39512   3.599   3.924   2.650 -0.2529 -0.3463 -0.3656
11652SOL    HW139513   3.508   3.922   2.680 -0.3669 -0.2142 -0.6908
11652SOL    HW239514   3.600   3.991   2.582 -0.0402 -0.7374 -0.7582
11653SOL     OW39515   8.744   0.677   8.083  0.0247  0.2150  0.0769
11653SOL    HW139516   8.791   0.749   8.042 -0.2779 -0.2624 -1.1553
11653SOL    HW239517   8.721   0.619   8.010 -1.9838  0.1667  0.6971
11654SOL     OW39518  11.448   6.467  11.102  0.0003  0.0592 -0.0761
11654SOL    HW139519  11.529   6.434  11.064  0.5984 -0.4360  1.5509
11654SOL    HW239520  11.474   6.505  11.186 -1.4934 -0.4556  0.6654
11655SOL     OW39521   2.929   0.654   3.709 -0.4325 -0.2313  0.3555
11655SOL    HW139522   2.843   0.686   3.735  0.1851  0.5613  1.4723
11655SOL    HW239523   2.987   0.678   3.781  0.2144 -3.3761  1.0568
11656SOL     OW39524  10.655   4.504   2.489  0.4813 -0.1324 -0.0627
11656SOL    HW139525  10.646   4.450   2.411 -0.8793  1.1620 -0.8622
11656SOL    HW239526  10.596   4.463   2.553 -1.7415  1.1393 -1.1584
11657SOL     OW39527   8.256   6.149   4.090  0.0082  0.4357 -0.2103
11657SOL    HW139528   8.262   6.121   4.181  0.9477 -0.4265 -0.5202
11657SOL    HW239529   8.186   6.096   4.053 -1.5640  1.9966  0.4112
11658SOL     OW39530   1.991   0.789   5.170 -0.1513 -0.1110  0.0743
11658SOL    HW139531   2.030   0.860   5.222 -3.0467  0.5671  1.4825
11658SOL    HW239532   1.981   0.717   5.232  0.7204 -1.0235 -0.8078
11659SOL     OW39533   8.085   4.166   0.569 -0.1332 -0.1257  0.4122
11659SOL    HW139534   8.168   4.192   0.609 -0.2134  1.0640 -0.1416
11659SOL    HW239535   8.101   4.174   0.475 -0.3151 -1.7042  0.2265
11660SOL     OW39536   6.584   3.709   8.834 -0.3658 -0.4901 -0.3907
11660SOL    HW139537   6.573   3.763   8.912  0.2402  0.1105 -0.7139
11660SOL    HW239538   6.614   3.625   8.867  0.1725 -0.1474  0.0083
11661SOL     OW39539   0.372   2.754  10.530 -0.6233 -0.2815  0.1906
11661SOL    HW139540   0.429   2.795  10.465 -2.8019  1.1170 -0.9733
11661SOL    HW239541   0.397   2.793  10.613  1.0210 -0.7621 -0.0434
11662SOL     OW39542   4.104   5.800   4.150 -0.5078  0.0648 -0.2081
11662SOL    HW139543   4.171   5.787   4.217 -1.9719  1.6141  1.7039
11662SOL    HW239544   4.052   5.873   4.183 -2.6521 -0.5546 -1.9736
11663SOL     OW39545   3.929   7.092   9.604  0.3221 -0.2427 -0.2245
11663SOL    HW139546   3.889   7.008   9.580 -3.1560  1.0385  0.6451
11663SOL    HW239547   3.916   7.148   9.527  4.4628 -0.8394 -1.6538
11664SOL     OW39548   3.121   0.296   6.648  0.6057 -0.4589  0.1231
11664SOL    HW139549   3.131   0.332   6.737  1.3245 -1.0148  0.2795
11664SOL    HW239550   3.211   0.290   6.615  0.2881  0.6698 -1.0317
11665SOL     OW39551   7.780   3.314   6.900  0.4576 -0.6091  0.2004
11665SOL    HW139552   7.836   3.287   6.827  1.6095  1.3061  0.3059
11665SOL    HW239553   7.803   3.255   6.971 -0.3915 -2.2472 -0.8298
11666SOL     OW39554   4.577  10.774   8.085  0.1197  0.3664 -0.7798
11666SOL    HW139555   4.664  10.758   8.121 -0.1581 -0.6477 -0.5299
11666SOL    HW239556   4.526  10.697   8.110 -0.0606 -0.4710 -3.4322
11667SOL     OW39557   6.263   0.863  11.131  0.3058 -0.0558  0.2255
11667SOL    HW139558   6.317   0.797  11.088  1.0019  1.5582 -1.5462
11667SOL    HW239559   6.311   0.884  11.211  0.5028 -1.0938  0.3915
11668SOL     OW39560  11.388   2.753   6.769 -0.5304  0.1221  0.4226
11668SOL    HW139561  11.419   2.681   6.825 -2.2704  0.0491  1.3579
11668SOL    HW239562  11.301   2.774   6.803 -0.5250  1.9263 -0.5539
11669SOL     OW39563   0.256   9.822   1.909 -0.6347 -0.1094  0.1593
11669SOL    HW139564   0.308   9.783   1.979 -0.8239  1.5467  1.2891
11669SOL    HW239565   0.311   9.812   1.831  1.3347  1.3406  1.2626
11670SOL     OW39566   7.026   8.321  10.404 -0.5194  0.0495  1.2334
11670SOL    HW139567   7.015   8.409  10.367  0.5406 -0.7196 -1.1004
11670SOL    HW239568   7.057   8.336  10.493  1.3669  2.0898  0.3246
11671SOL     OW39569   0.816   1.131   1.400  0.0370 -0.5574 -0.7614
11671SOL    HW139570   0.849   1.098   1.483 -0.0422  0.8847 -0.1162
11671SOL    HW239571   0.895   1.155   1.351  0.0718  1.3087  0.1046
11672SOL     OW39572   6.582   2.514   2.064  0.3889 -0.2798 -0.5260
11672SOL    HW139573   6.577   2.580   2.133  0.5005  1.0982 -1.7740
11672SOL    HW239574   6.524   2.444   2.093  0.2783  0.3453  0.8559
11673SOL     OW39575   6.156   5.464   4.689 -0.3075 -0.3099  0.2618
11673SOL    HW139576   6.152   5.408   4.766 -1.1187  0.2495  0.6377
11673SOL    HW239577   6.229   5.429   4.637  1.1887  0.1717  1.9359
11674SOL     OW39578   9.410   3.805   0.778 -0.5419 -0.0278 -0.2387
11674SOL    HW139579   9.439   3.768   0.862  2.1746 -0.4761 -1.2691
11674SOL    HW239580   9.340   3.746   0.750 -0.0435 -1.1439  0.7358
11675SOL     OW39581   5.924   5.318   1.132 -0.4372 -0.0040 -0.6204
11675SOL    HW139582   5.942   5.412   1.136  0.7810 -0.2282 -0.5914
11675SOL    HW239583   6.010   5.276   1.138 -1.0171 -1.1527  0.2377
11676SOL     OW39584   5.113   5.995   3.508 -0.0893 -0.0851 -0.0336
11676SOL    HW139585   5.044   5.943   3.548  0.6319 -0.9841  0.0665
11676SOL    HW239586   5.094   5.992   3.414  0.6667 -1.6635 -0.1762
11677SOL     OW39587   6.570   3.975   9.529  0.1262 -0.3955 -0.0885
11677SOL    HW139588   6.598   3.982   9.621 -0.8903 -3.5740  0.5746
11677SOL    HW239589   6.498   4.038   9.521  0.2506 -0.0500  1.2702
11678SOL     OW39590   7.981   7.050   8.479  0.0406 -0.7713 -0.4819
11678SOL    HW139591   8.021   7.119   8.427 -0.2711 -0.3306 -0.1395
11678SOL    HW239592   7.922   7.006   8.418  0.5450 -1.0028 -0.8088
11679SOL     OW39593   8.211  10.936  11.822 -0.2167 -0.3231  0.3828
11679SOL    HW139594   8.244  10.978  11.901 -1.8035 -0.8997  1.3988
11679SOL    HW239595   8.149  10.870  11.853 -1.5561  0.0303 -1.3651
11680SOL     OW39596  10.675   7.062  11.197 -0.0375  0.3353 -0.4861
11680SOL    HW139597  10.661   7.155  11.180  0.6087  0.5820  0.2798
11680SOL    HW239598  10.768   7.054  11.217 -0.0673 -0.4899 -0.6201
11681SOL     OW39599   8.152   6.137   8.001  0.1227 -0.0187 -0.4157
11681SOL    HW139600   8.083   6.073   7.983  0.4854 -0.1222 -1.4462
11681SOL    HW239601   8.225   6.112   7.944  1.4479 -0.5685  1.4208
11682SOL     OW39602   0.341   4.890   7.948 -0.1298  0.2579  0.2010
11682SOL    HW139603   0.342   4.985   7.934  0.7228  0.0383 -1.5385
11682SOL    HW239604   0.431   4.869   7.971 -0.1655 -0.2115 -0.0869
11683SOL     OW39605   2.055   7.169   5.932 -0.3396  0.4521 -0.5307
11683SOL    HW139606   2.050   7.091   5.876  0.5959 -0.4160  0.5489
11683SOL    HW239607   2.138   7.211   5.907  1.4039 -1.3042  1.8105
11684SOL     OW39608   4.755   1.126   3.590 -0.1516 -0.4538  0.0967
11684SOL    HW139609   4.846   1.148   3.572 -0.2553  0.0755  0.2092
11684SOL    HW239610   4.741   1.153   3.681 -0.8007  0.7372 -0.3377
11685SOL     OW39611   7.990   8.650  11.421  0.5158  0.9016 -0.0417
11685SOL    HW139612   7.898   8.625  11.414  0.3784  1.4659 -0.3840
11685SOL    HW239613   8.001   8.719  11.355  0.9070  1.6212  0.7516
11686SOL     OW39614   9.234   0.911   5.757 -0.3248 -0.1401 -0.0226
11686SOL    HW139615   9.219   0.817   5.764 -2.0360  0.0409 -0.7091
11686SOL    HW239616   9.270   0.936   5.842  2.5439 -1.7689 -0.6172
11687SOL     OW39617   5.558  11.787   6.187  0.4745 -0.1968 -0.1475
11687SOL    HW139618   5.584  11.768   6.277  0.0926  2.7270  0.6838
11687SOL    HW239619   5.488  11.724   6.168  0.0353 -0.3723  1.8765
11688SOL     OW39620   1.519   9.152   8.793  0.1058  0.3898  0.0233
11688SOL    HW139621   1.465   9.210   8.739 -1.5666 -0.8909  0.2629
11688SOL    HW239622   1.546   9.082   8.734  0.1379  0.1644  0.3032
11689SOL     OW39623   3.646  10.083   7.365 -0.8856  0.3446 -0.7509
11689SOL    HW139624   3.621  10.012   7.424 -1.6563 -0.1317 -1.6284
11689SOL    HW239625   3.682  10.151   7.423 -2.3424  0.2204  0.3570
11690SOL     OW39626   0.016   5.260  10.028 -0.5230  0.1826  0.4171
11690SOL    HW139627  -0.021   5.339  10.066  0.1757  0.8526 -0.2680
11690SOL    HW239628  -0.060   5.204  10.011 -1.3746  1.7921 -1.5845
11691SOL     OW39629   8.565   5.951   4.328 -0.0755 -0.0201  0.1226
11691SOL    HW139630   8.478   5.918   4.303 -0.1842  0.2546  0.1395
11691SOL    HW239631   8.617   5.945   4.248  0.0954 -0.8542  0.2824
11692SOL     OW39632   6.824   8.724   7.236  0.5591 -0.0180  0.0542
11692SOL    HW139633   6.886   8.656   7.209  1.2894  1.3455 -1.8950
11692SOL    HW239634   6.771   8.740   7.158 -0.5571  0.6653  0.9229
11693SOL     OW39635   9.477   7.958   5.440  0.6803  0.2498 -0.5886
11693SOL    HW139636   9.453   8.049   5.455  0.1856  0.0809 -0.3352
11693SOL    HW239637   9.436   7.935   5.357 -0.8355 -0.3057  0.2785
11694SOL     OW39638   7.687   2.907   3.444  0.2494 -0.3851 -0.1700
11694SOL    HW139639   7.614   2.942   3.495 -0.6599  0.6741 -2.0461
11694SOL    HW239640   7.759   2.901   3.506  0.0077  3.3951  0.7156
11695SOL     OW39641   7.359  11.314   6.158  0.1303  0.3175 -0.3635
11695SOL    HW139642   7.306  11.234   6.153  0.0281  0.3004  0.6623
11695SOL    HW239643   7.294  11.384   6.165  0.2157  0.5249 -1.5821
11696SOL     OW39644   5.470  11.246  11.459 -0.4245  0.3304  0.4538
11696SOL    HW139645   5.520  11.221  11.537 -0.2587  0.2467  0.3212
11696SOL    HW239646   5.529  11.305  11.412 -0.2015 -0.2572 -0.0168
11697SOL     OW39647   9.222   6.409   5.837 -0.1273 -0.3681  0.0616
11697SOL    HW139648   9.284   6.445   5.901 -1.6536  0.7513  0.9662
11697SOL    HW239649   9.259   6.323   5.814  1.7841  0.2889  0.5014
11698SOL     OW39650   2.436   7.363   7.631 -0.6906  0.1579 -0.0291
11698SOL    HW139651   2.529   7.372   7.613 -0.8311  1.3333 -0.3038
11698SOL    HW239652   2.431   7.298   7.701  0.3703  0.3536  0.2517
11699SOL     OW39653   9.768   9.712   7.142  0.3182 -0.1712  0.1532
11699SOL    HW139654   9.772   9.624   7.180  0.6434 -0.9236 -1.5461
11699SOL    HW239655   9.758   9.698   7.048 -0.3979  1.6232 -0.0905
11700SOL     OW39656   6.929   3.240   0.720  0.0790 -0.1458 -0.0620
11700SOL    HW139657   6.981   3.191   0.783 -0.0253 -2.5152 -1.7195
11700SOL    HW239658   6.839   3.235   0.754  0.2203 -0.2119  0.2982
11701SOL     OW39659   3.107   8.216   9.599 -0.0766  0.1795  0.0753
11701SOL    HW139660   3.026   8.225   9.649  0.0346  2.5852 -0.0694
11701SOL    HW239661   3.078   8.184   9.514 -0.6203 -0.9426  0.6592
11702SOL     OW39662   5.963   1.262   6.506 -0.4476  0.0614  0.3811
11702SOL    HW139663   6.022   1.316   6.559 -2.0781  0.5583  1.8221
11702SOL    HW239664   5.999   1.265   6.418  0.2501  2.4805  0.6785
11703SOL     OW39665   0.712  10.530   1.035 -0.0854  0.0018  0.5746
11703SOL    HW139666   0.751  10.495   0.955 -0.5167  1.7720 -0.4680
11703SOL    HW239667   0.664  10.457   1.073  1.7045 -1.3919  0.2750
11704SOL     OW39668   6.533   8.907  11.107 -0.2081 -0.4528  0.2066
11704SOL    HW139669   6.452   8.869  11.071 -0.3065 -0.6755  0.6535
11704SOL    HW239670   6.515   8.917  11.201 -0.9525  2.6210 -0.1527
11705SOL     OW39671   7.216   6.660  10.176  0.1641 -0.2971 -0.4598
11705SOL    HW139672   7.212   6.675  10.270  1.5225  0.3853 -0.4861
11705SOL    HW239673   7.177   6.739  10.138  1.5511  0.3930 -0.4901
11706SOL     OW39674  12.022   5.763   7.413  0.1816  0.0496 -1.0398
11706SOL    HW139675  12.038   5.761   7.319 -0.0593 -2.0090 -1.0700
11706SOL    HW239676  12.060   5.682   7.446 -0.0974  0.5433  0.5910
11707SOL     OW39677   2.820   7.341   8.621 -0.1557  0.1128  0.0214
11707SOL    HW139678   2.804   7.294   8.539  2.7599 -3.8833  1.4085
11707SOL    HW239679   2.891   7.292   8.663  0.6751  3.8135  3.5393
11708SOL     OW39680   5.823   0.834   3.394  0.1027  0.0497 -0.5860
11708SOL    HW139681   5.755   0.797   3.339  0.9428  0.2688 -1.8105
11708SOL    HW239682   5.817   0.929   3.379 -0.4436  0.2240  0.6424
11709SOL     OW39683  11.042   4.044  10.446  0.0586 -0.0679  0.2926
11709SOL    HW139684  10.981   4.100  10.398 -1.0331 -1.0289  0.5017
11709SOL    HW239685  11.054   4.090  10.530 -0.8021 -0.1088  0.4556
11710SOL     OW39686   4.656  11.223  11.969 -0.0035  0.1261  0.3131
11710SOL    HW139687   4.746  11.204  11.995 -0.2985  0.3161  1.5278
11710SOL    HW239688   4.661  11.308  11.926  0.1897  0.8574  1.7313
11711SOL     OW39689   7.560   7.140   2.482  0.0367 -0.0784  0.0547
11711SOL    HW139690   7.654   7.138   2.461  0.3981 -2.2840  1.5272
11711SOL    HW239691   7.518   7.096   2.408  0.1639  0.7248 -0.5076
11712SOL     OW39692  10.096   8.824   7.052 -0.1735  0.8445  0.3220
11712SOL    HW139693  10.099   8.741   7.004 -0.6491  1.4678 -0.8239
11712SOL    HW239694  10.016   8.819   7.103  0.4667  0.0659  1.2973
11713SOL     OW39695   9.010   0.841   5.449  0.1206  0.1747  0.2783
11713SOL    HW139696   9.081   0.782   5.426  1.3826  0.5101  2.9205
11713SOL    HW239697   8.945   0.784   5.490  0.7619  0.3840  1.6412
11714SOL     OW39698   9.501   4.552   8.223  0.5273 -0.1015 -0.3585
11714SOL    HW139699   9.579   4.607   8.211  0.1844  0.6805  0.8781
11714SOL    HW239700   9.505   4.524   8.314  0.4181 -1.7466 -0.8296
11715SOL     OW39701   1.539   8.451   3.178  0.3878 -0.0034 -0.5614
11715SOL    HW139702   1.495   8.426   3.097  0.1371 -0.0864 -0.4006
11715SOL    HW239703   1.611   8.389   3.187 -0.1928 -0.6430 -0.1964
11716SOL     OW39704   7.206   6.765   6.048 -0.8004  0.0518 -0.1340
11716SOL    HW139705   7.165   6.748   6.133 -1.2139 -2.0148 -0.6935
11716SOL    HW239706   7.273   6.831   6.067 -1.3692  0.1858  1.6451
11717SOL     OW39707  11.924   6.936   4.813 -0.2860  0.5603  0.6145
11717SOL    HW139708  11.856   6.890   4.764 -0.5437 -0.8441  2.2172
11717SOL    HW239709  11.908   7.029   4.793 -2.3292  0.2389  0.5244
11718SOL     OW39710  11.062   4.547   7.024 -1.1365 -0.7341  0.4600
11718SOL    HW139711  11.037   4.455   7.018 -1.7612 -0.5597  0.3320
11718SOL    HW239712  10.996   4.587   7.080 -1.1169 -0.2751  0.1634
11719SOL     OW39713   5.307   0.317   4.636 -0.2168 -0.1415 -0.4677
11719SOL    HW139714   5.286   0.409   4.648  0.2574 -0.1286  0.3961
11719SOL    HW239715   5.287   0.299   4.544  0.2052  0.9571 -0.7899
11720SOL     OW39716   2.652   1.192   0.108  0.1877 -0.4085 -0.0798
11720SOL    HW139717   2.618   1.103   0.099 -1.7647  0.2618  0.1233
11720SOL    HW239718   2.690   1.212   0.023  0.1907 -1.2516 -0.2867
11721SOL     OW39719   2.232   4.168   5.652  0.4603 -0.0448 -0.1888
11721SOL    HW139720   2.158   4.108   5.654  1.7969 -1.7575  1.5392
11721SOL    HW239721   2.233   4.208   5.739  2.2648 -1.0495  0.3077
11722SOL     OW39722   8.598   1.552   7.192  0.2544 -0.4825  0.0365
11722SOL    HW139723   8.629   1.583   7.277 -2.0031  0.3763  0.6440
11722SOL    HW239724   8.539   1.479   7.213 -1.9070  0.9891 -0.5093
11723SOL     OW39725   2.743  10.556   9.616  0.3617 -0.1295 -0.3519
11723SOL    HW139726   2.796  10.534   9.693 -0.0232 -0.0501 -0.0606
11723SOL    HW239727   2.725  10.649   9.625 -0.0465 -0.2095 -0.3045
11724SOL     OW39728   5.505   5.400   2.967  0.1151  0.2885 -0.4962
11724SOL    HW139729   5.568   5.329   2.955  0.1619  0.1574  0.4398
11724SOL    HW239730   5.429   5.375   2.915 -0.5813 -1.3456  1.2013
11725SOL     OW39731   5.271   7.157   7.096  0.1307 -0.0835 -0.1372
11725SOL    HW139732   5.209   7.229   7.082  0.4449  0.0016 -1.1459
11725SOL    HW239733   5.235   7.109   7.171 -2.5441 -1.4874 -2.1517
11726SOL     OW39734   2.969   8.705   3.536 -0.3680 -0.2705 -0.1659
11726SOL    HW139735   2.995   8.789   3.574  0.7316  0.4922 -2.4027
11726SOL    HW239736   2.935   8.728   3.449 -0.1277 -2.1208 -0.7876
11727SOL     OW39737   5.304   4.720   8.234 -0.4461 -0.5152  0.5371
11727SOL    HW139738   5.395   4.749   8.239 -0.4000 -0.4190 -0.6293
11727SOL    HW239739   5.308   4.635   8.190 -1.0360  0.2689 -1.1274
11728SOL     OW39740   3.497   4.506   4.307 -0.3415  0.1418  0.0922
11728SOL    HW139741   3.486   4.411   4.307  0.6838 -0.0047  0.9365
11728SOL    HW239742   3.501   4.530   4.400  0.7593  0.8233 -0.1082
11729SOL     OW39743   5.336   5.283   6.625  0.5170  0.2473  0.7563
11729SOL    HW139744   5.301   5.206   6.670 -0.1774  0.1432  0.0555
11729SOL    HW239745   5.264   5.316   6.572  1.8658 -1.0648 -2.1768
11730SOL     OW39746   2.196  10.428  10.563 -0.6044 -0.4023 -0.1316
11730SOL    HW139747   2.184  10.334  10.575  0.8101 -0.3478  2.1961
11730SOL    HW239748   2.121  10.468  10.607  0.5170 -0.4197  1.9129
11731SOL     OW39749   7.513   8.024  12.001  0.8180  0.0346 -0.5346
11731SOL    HW139750   7.496   7.937  12.037 -0.8804 -0.2553 -1.9080
11731SOL    HW239751   7.530   8.079  12.078  0.5334 -1.2099  0.4547
11732SOL     OW39752   2.994  11.191   0.546 -0.0567 -0.4059 -0.3338
11732SOL    HW139753   3.016  11.225   0.459 -0.3473  0.2013 -0.1762
11732SOL    HW239754   3.078  11.187   0.591  0.2283 -1.5981 -0.9357
11733SOL     OW39755  11.334   0.872   1.114 -0.1595 -0.4493 -0.3358
11733SOL    HW139756  11.262   0.936   1.116  0.5580  0.3702  1.0542
11733SOL    HW239757  11.319   0.817   1.191  0.9561  0.0499  0.2622
11734SOL     OW39758   8.435   4.454   0.378 -0.1474 -0.3776  0.2033
11734SOL    HW139759   8.458   4.369   0.415  1.4953 -0.3728 -0.7363
11734SOL    HW239760   8.449   4.515   0.450  0.1385 -0.7219  0.4445
11735SOL     OW39761  10.881   8.634   9.629 -0.1240  0.2569  0.0207
11735SOL    HW139762  10.828   8.654   9.552  0.1723 -2.9034 -1.1406
11735SOL    HW239763  10.825   8.579   9.683  0.7166 -0.1174  0.5357
11736SOL     OW39764   8.254   8.498   6.923 -0.1783 -1.3721 -0.0053
11736SOL    HW139765   8.214   8.582   6.902  0.8142 -1.0895 -0.8421
11736SOL    HW239766   8.208   8.434   6.869  0.4184 -1.0625 -0.8952
11737SOL     OW39767   2.159   9.769   5.269 -0.0990  0.3569 -0.5491
11737SOL    HW139768   2.162   9.674   5.262  1.0423  0.4570 -1.8191
11737SOL    HW239769   2.107   9.797   5.194  1.5677  0.8203 -1.5915
11738SOL     OW39770  10.924   6.509  10.963  0.2972  0.2393  0.0104
11738SOL    HW139771  10.844   6.458  10.964  0.5271 -0.1310  1.4377
11738SOL    HW239772  10.939   6.529  10.870 -0.7148 -0.8052 -0.3933
11739SOL     OW39773   5.440  11.470  10.197  0.7002  0.1473  0.4376
11739SOL    HW139774   5.364  11.413  10.185  0.9149 -0.2757  1.0738
11739SOL    HW239775   5.504  11.437  10.134 -0.2433  1.6200 -1.4027
11740SOL     OW39776  11.618   2.174   2.977  0.3880  0.1673  0.4215
11740SOL    HW139777  11.668   2.213   2.905  1.0168 -1.2973  0.0172
11740SOL    HW239778  11.571   2.101   2.936 -0.0563 -0.0483  1.3017
11741SOL     OW39779   7.919   3.733  11.138 -0.3880  0.2719 -0.1622
11741SOL    HW139780   7.824   3.748  11.138 -0.8024 -2.0702  0.5014
11741SOL    HW239781   7.946   3.756  11.049 -1.5901  0.7692 -0.4273
11742SOL     OW39782   6.330   7.741   3.977  0.0689  0.5311 -0.2357
11742SOL    HW139783   6.367   7.732   3.889  1.8061  2.9278  0.1404
11742SOL    HW239784   6.334   7.835   3.996 -2.4591  0.3878  1.5341
11743SOL     OW39785   5.862   3.528   2.017  0.0822  0.0899  0.1308
11743SOL    HW139786   5.873   3.602   1.958  2.1115 -0.1352  0.1360
11743SOL    HW239787   5.857   3.567   2.104  1.1878  0.2501  0.1381
11744SOL     OW39788   9.851  11.932   6.019 -0.0950 -0.3558 -0.0029
11744SOL    HW139789   9.775  11.925   5.960  0.4256  0.0179 -0.7347
11744SOL    HW239790   9.843  11.856   6.077 -1.0325 -0.3113 -0.0577
11745SOL     OW39791   5.428   4.800   5.369  0.4590 -0.3797 -0.4214
11745SOL    HW139792   5.400   4.742   5.297 -0.9288  0.8493 -0.9180
11745SOL    HW239793   5.376   4.880   5.357  1.9298  0.7693  0.5676
11746SOL     OW39794   8.156  10.875   9.054  0.2056  0.2285 -0.0804
11746SOL    HW139795   8.100  10.912   8.986 -0.7928  1.4649  1.3709
11746SOL    HW239796   8.189  10.951   9.103  0.8464 -0.6281  0.8662
11747SOL     OW39797   5.735   0.373   0.402  0.1293  0.2797 -0.4439
11747SOL    HW139798   5.809   0.408   0.451 -0.8001  0.7328  0.7109
11747SOL    HW239799   5.677   0.449   0.391 -0.5109 -0.2340 -0.6391
11748SOL     OW39800   2.173   6.908   3.834  0.3811  0.2938 -0.1870
11748SOL    HW139801   2.182   6.881   3.743  0.1835  0.3250 -0.2146
11748SOL    HW239802   2.260   6.943   3.857  1.1976 -1.8925  0.3596
11749SOL     OW39803   9.085   5.416   5.599 -0.5404 -0.1123  0.2818
11749SOL    HW139804   9.086   5.330   5.642  0.9210 -1.5045 -2.2841
11749SOL    HW239805   9.002   5.417   5.551 -1.0151  0.3544  1.1040
11750SOL     OW39806   0.406   9.999   7.504 -0.1471  0.0810  0.2510
11750SOL    HW139807   0.342   9.989   7.434 -1.8492  0.6728  1.6439
11750SOL    HW239808   0.421   9.910   7.536  1.8642 -0.4127 -1.8064
11751SOL     OW39809   3.543   6.816   2.150 -0.6529  0.0367  0.2868
11751SOL    HW139810   3.453   6.785   2.137 -0.3999 -0.4275 -0.3979
11751SOL    HW239811   3.548   6.897   2.100 -0.7164  0.1166  0.4081
11752SOL     OW39812   9.714   1.916   6.973  0.1747  0.5403  0.5235
11752SOL    HW139813   9.619   1.901   6.982  0.2654 -1.6476 -1.3075
11752SOL    HW239814   9.721   1.984   6.907 -0.0773  3.0501  2.8823
11753SOL     OW39815   5.069   9.548   8.005  0.2598  0.0319 -0.2182
11753SOL    HW139816   4.978   9.532   8.027 -0.4587  4.4110  0.9770
11753SOL    HW239817   5.075   9.527   7.912 -1.3416 -2.2227  0.1053
11754SOL     OW39818   7.159   3.730   7.232  0.5367 -0.0558 -0.0122
11754SOL    HW139819   7.232   3.762   7.285  0.6462 -0.1925 -0.0769
11754SOL    HW239820   7.081   3.747   7.284  0.7750 -2.0196  1.1130
11755SOL     OW39821   9.531   2.740   9.316  0.0221  0.1994 -0.5329
11755SOL    HW139822   9.480   2.810   9.276 -0.0461  0.9299  0.7776
11755SOL    HW239823   9.475   2.705   9.384  1.1829  0.9200  0.8389
11756SOL     OW39824   3.421  11.972  11.844  0.0099 -0.0026 -0.1383
11756SOL    HW139825   3.430  11.880  11.818  1.3966  0.2818 -0.7222
11756SOL    HW239826   3.419  12.020  11.762 -0.4781  0.5271  0.1745
11757SOL     OW39827  11.195   0.693   7.765 -0.1687  0.6614 -0.1806
11757SOL    HW139828  11.264   0.747   7.804  0.3108 -1.6367  2.4465
11757SOL    HW239829  11.219   0.687   7.672  0.7685  3.3079 -0.1946
11758SOL     OW39830   7.343  10.484   6.081  0.2013 -0.0606 -0.4467
11758SOL    HW139831   7.404  10.508   6.150 -1.0201  1.0460  0.3007
11758SOL    HW239832   7.373  10.398   6.050  2.3482  0.6217 -0.4020
11759SOL     OW39833   8.256  10.364   6.898 -0.0064 -0.0809 -0.2766
11759SOL    HW139834   8.349  10.382   6.904 -0.0496  0.6299 -1.4159
11759SOL    HW239835   8.235  10.316   6.978  1.7578 -2.1441 -0.9737
11760SOL     OW39836   8.241   5.818   2.615 -0.8868 -0.5019 -0.0252
11760SOL    HW139837   8.173   5.856   2.671 -1.6658 -1.2875 -0.4073
11760SOL    HW239838   8.259   5.732   2.653 -0.1649 -0.3397  0.0159
11761SOL     OW39839   1.100   4.711   9.310 -0.1343  0.4093  0.1061
11761SOL    HW139840   1.028   4.773   9.300 -0.0712  0.3018 -1.1706
11761SOL    HW239841   1.077   4.660   9.388 -0.9987  0.9388  0.2152
11762SOL     OW39842   1.439   6.246   5.616  0.0331 -0.2037  0.1068
11762SOL    HW139843   1.405   6.326   5.578 -0.6683  0.0810  1.3018
11762SOL    HW239844   1.529   6.268   5.641 -0.7258  0.8062  2.1026
11763SOL     OW39845   5.783  10.123   7.501  0.3087  0.0328  0.1555
11763SOL    HW139846   5.819  10.047   7.455  0.3501  0.1707 -0.0415
11763SOL    HW239847   5.718  10.159   7.440  0.4556  0.2929  0.1501
11764SOL     OW39848  10.932   6.690   5.921 -0.3923 -0.4340  0.1313
11764SOL    HW139849  10.958   6.628   5.854 -0.3111 -1.4917  1.1179
11764SOL    HW239850  10.846   6.660   5.950 -1.2417  1.0463 -0.7161
11765SOL     OW39851   1.368   7.401   0.518 -0.1091  0.1210 -0.1819
11765SOL    HW139852   1.372   7.309   0.491  0.1816 -0.1397  0.7281
11765SOL    HW239853   1.324   7.445   0.445 -1.0324 -0.8826 -0.2650
11766SOL     OW39854  11.367   2.683   0.827 -0.1920 -0.2394  0.1028
11766SOL    HW139855  11.448   2.704   0.874 -0.1403 -2.0235  0.8663
11766SOL    HW239856  11.302   2.671   0.895 -0.9129  0.3310 -0.4709
11767SOL     OW39857   5.786   7.681   3.560 -0.3366  0.1361  0.1350
11767SOL    HW139858   5.737   7.682   3.642 -1.2999  2.8144 -0.3787
11767SOL    HW239859   5.719   7.671   3.492  0.0871  1.0490 -0.4445
11768SOL     OW39860   0.822   0.052   6.338 -0.0190  0.3622  0.5631
11768SOL    HW139861   0.770  -0.013   6.384  1.3240  0.2523  1.9796
11768SOL    HW239862   0.850   0.008   6.258  0.5068 -0.6695  1.2933
11769SOL     OW39863  10.016   1.140   4.354 -0.2569 -0.1336  0.0272
11769SOL    HW139864  10.099   1.095   4.341 -0.0912 -0.0998  0.9251
11769SOL    HW239865  10.038   1.218   4.404 -0.8133 -0.0656  0.1712
11770SOL     OW39866   1.503   7.091   6.927  0.1158  0.4708  0.7912
11770SOL    HW139867   1.565   7.022   6.952 -0.6602  0.6093  3.4707
11770SOL    HW239868   1.421   7.044   6.911  0.7118  0.3189 -2.4482
11771SOL     OW39869  11.117   5.923   8.526 -0.9214  0.5156 -0.0502
11771SOL    HW139870  11.159   5.856   8.579  1.0262  0.7165 -1.2733
11771SOL    HW239871  11.156   5.915   8.439 -1.6930  2.2870 -0.6291
11772SOL     OW39872   6.291   3.227  10.048 -0.2617 -0.7423  0.3438
11772SOL    HW139873   6.310   3.165  10.119 -2.1583 -1.4769  0.2667
11772SOL    HW239874   6.198   3.248  10.059  0.1429  1.5717 -0.0765
11773SOL     OW39875   0.765   5.339   3.193 -0.1458 -0.2380 -0.2164
11773SOL    HW139876   0.707   5.387   3.135 -0.5358 -1.5331 -0.9186
11773SOL    HW239877   0.708   5.307   3.263 -0.0192 -0.2965 -0.1397
11774SOL     OW39878   9.888   1.263   4.082  0.1736 -0.7828  0.8962
11774SOL    HW139879   9.963   1.254   4.141  1.0698 -0.7146 -0.2134
11774SOL    HW239880   9.889   1.355   4.055 -0.6914 -0.6244  1.3483
11775SOL     OW39881  11.180   4.439  11.551  0.5381  1.0813 -0.5254
11775SOL    HW139882  11.086   4.444  11.569  0.3917  1.3350 -1.3213
11775SOL    HW239883  11.220   4.426  11.637 -0.2492  0.5713 -0.2226
11776SOL     OW39884   7.105   5.504  11.622 -0.0334 -0.1502  0.2377
11776SOL    HW139885   7.017   5.510  11.585 -0.3160 -1.3645  0.6548
11776SOL    HW239886   7.162   5.538  11.554 -0.5790 -1.8424 -1.1452
11777SOL     OW39887   1.369   6.415  11.337  0.0995 -0.1493  0.0056
11777SOL    HW139888   1.362   6.508  11.358  3.7479 -0.1464  2.0920
11777SOL    HW239889   1.451   6.408  11.289 -0.0996 -2.3142 -0.1020
11778SOL     OW39890   4.184   9.644   9.098 -1.0283 -0.1522 -0.0985
11778SOL    HW139891   4.119   9.713   9.085 -0.3945  0.4556 -0.1024
11778SOL    HW239892   4.210   9.618   9.009 -0.0954  0.7447 -0.1081
11779SOL     OW39893   6.389   8.260   9.061 -0.3114 -0.0269  0.2084
11779SOL    HW139894   6.451   8.333   9.061  0.3958 -0.6081  1.0970
11779SOL    HW239895   6.407   8.214   9.143 -1.0985 -0.9057 -0.1031
11780SOL     OW39896   5.744   3.145   8.182  0.8763 -0.1516  0.4719
11780SOL    HW139897   5.722   3.216   8.242  0.0547  0.8528 -0.9483
11780SOL    HW239898   5.743   3.186   8.095  0.3114 -1.8925 -0.3959
11781SOL     OW39899   4.570   9.851   8.013 -0.2670 -0.3653  0.0420
11781SOL    HW139900   4.497   9.792   7.998 -0.0359 -0.2096 -1.9653
11781SOL    HW239901   4.530   9.938   8.020 -0.2318 -0.1338 -2.1773
11782SOL     OW39902   3.527   9.552   7.133  0.2681 -0.2871 -0.4343
11782SOL    HW139903   3.497   9.596   7.053  0.6156 -1.3768 -1.1923
11782SOL    HW239904   3.586   9.615   7.174 -0.1503  0.4113 -0.8758
11783SOL     OW39905   6.302   5.874   7.131  0.0741 -0.3583 -0.0589
11783SOL    HW139906   6.379   5.930   7.117 -0.5073  0.6173  0.5755
11783SOL    HW239907   6.325   5.821   7.208  0.4452 -0.7058 -0.3965
11784SOL     OW39908   5.660   6.837   4.372  0.0203  0.5441  0.2436
11784SOL    HW139909   5.646   6.926   4.404 -1.2893  0.7470 -0.7845
11784SOL    HW239910   5.636   6.781   4.446 -1.0579  1.0270  0.2775
11785SOL     OW39911   8.976   8.331   8.505  0.8374  0.4994  0.5280
11785SOL    HW139912   9.037   8.297   8.570  1.2434 -0.3783 -0.3021
11785SOL    HW239913   8.945   8.254   8.457 -0.4959  0.9867  0.5546
11786SOL     OW39914  10.329   0.887   6.049  0.5643 -0.2507 -0.0720
11786SOL    HW139915  10.252   0.835   6.071  0.5224 -0.3618 -0.4940
11786SOL    HW239916  10.400   0.846   6.097  0.6942 -1.2081 -1.0606
11787SOL     OW39917  11.156  11.670   2.849  0.2379 -0.0273 -0.1791
11787SOL    HW139918  11.154  11.766   2.849  0.5994 -0.0171 -0.5096
11787SOL    HW239919  11.231  11.648   2.794 -0.6522 -0.5179 -1.2307
11788SOL     OW39920  11.168   3.792   4.293 -0.0507 -0.5422 -0.2006
11788SOL    HW139921  11.161   3.699   4.317 -0.6965 -0.3165  0.5224
11788SOL    HW239922  11.078   3.824   4.296 -0.0168 -0.2012 -1.7815
11789SOL     OW39923   1.813  10.523   1.591  0.2228  0.0827 -1.0976
11789SOL    HW139924   1.895  10.547   1.634 -0.2621  1.8911 -1.1088
11789SOL    HW239925   1.808  10.580   1.514 -0.6930 -0.5381 -1.5237
11790SOL     OW39926   9.689  12.091   7.409 -0.3711  0.2793 -0.3703
11790SOL    HW139927   9.770  12.051   7.441 -2.2103 -2.6039  1.2558
11790SOL    HW239928   9.674  12.165   7.468  0.8664  0.6330 -0.4716
11791SOL     OW39929   4.267   2.241   7.346 -0.0952 -0.1625 -0.1837
11791SOL    HW139930   4.321   2.248   7.267  0.5100 -2.9149 -0.1113
11791SOL    HW239931   4.330   2.219   7.415 -1.1137 -2.3850  0.1061
11792SOL     OW39932  10.285   6.465   5.111  0.4299 -0.2588  0.0728
11792SOL    HW139933  10.212   6.448   5.169  0.7215 -2.4602 -0.1246
11792SOL    HW239934  10.352   6.402   5.137  0.5332 -1.4355 -2.6644
11793SOL     OW39935   3.780   8.071   2.878  0.1092 -0.0891 -0.1367
11793SOL    HW139936   3.752   7.988   2.839  0.2634 -0.5222  0.6574
11793SOL    HW239937   3.790   8.130   2.803  0.1210 -0.8205 -0.7275
11794SOL     OW39938   7.131  11.906   9.358  0.2150 -0.2966 -0.0500
11794SOL    HW139939   7.137  11.982   9.416  0.1659 -0.2802 -0.0659
11794SOL    HW239940   7.040  11.907   9.328  0.0825 -0.6379  0.3249
11795SOL     OW39941  11.040  10.835   0.282  0.4819 -0.2972  0.2182
11795SOL    HW139942  10.984  10.897   0.235 -1.6434 -2.0460  0.2603
11795SOL    HW239943  11.051  10.762   0.221 -0.7708 -1.7960  1.7004
11796SOL     OW39944   5.172  11.428   3.209  0.3233  0.0270 -0.2143
11796SOL    HW139945   5.178  11.524   3.207 -0.4890  0.0792 -0.4778
11796SOL    HW239946   5.118  11.408   3.285  1.7880 -0.3146  0.7718
11797SOL     OW39947  10.222  11.252   4.520  0.1290 -0.6765  0.5456
11797SOL    HW139948  10.250  11.223   4.607  0.7521  0.8740  0.8807
11797SOL    HW239949  10.148  11.310   4.537 -0.2132 -0.9439 -0.0221
11798SOL     OW39950   2.373   1.678  11.008  0.4662  0.1195  0.5768
11798SOL    HW139951   2.345   1.606  11.065 -0.5262 -0.6558 -0.8074
11798SOL    HW239952   2.468   1.666  10.999  0.4982 -0.2561  1.3593
11799SOL     OW39953   6.607   2.103  11.765 -0.1807 -0.0808  0.2313
11799SOL    HW139954   6.631   2.018  11.730  0.5919  0.8488 -1.6508
11799SOL    HW239955   6.620   2.095  11.860  0.3473 -1.8855  0.0420
11800SOL     OW39956   4.679   1.700  11.351  0.1686  0.1156 -0.0829
11800SOL    HW139957   4.773   1.698  11.364  0.0064 -1.6209  1.2202
11800SOL    HW239958   4.643   1.663  11.432 -1.3934 -3.1170 -2.0277
11801SOL     OW39959  10.151   7.251   0.300  0.0522  0.0025 -0.3549
11801SOL    HW139960  10.087   7.181   0.312  0.3777 -0.1236  0.7021
11801SOL    HW239961  10.230   7.221   0.345 -0.0004  1.3074  0.6942
11802SOL     OW39962   1.690   2.749   1.168 -0.4419 -0.7099  0.4188
11802SOL    HW139963   1.621   2.684   1.184 -1.6971  0.6860  0.9443
11802SOL    HW239964   1.771   2.704   1.191 -1.2707 -2.0744  0.8103
11803SOL     OW39965   2.156  10.438  11.445  0.3054 -0.1208  0.2144
11803SOL    HW139966   2.226  10.496  11.477 -0.8909  1.4037  0.2274
11803SOL    HW239967   2.089  10.442  11.514 -2.0761  2.7480 -1.9567
11804SOL     OW39968   1.532  11.637   4.479  0.4711 -0.2180  0.0446
11804SOL    HW139969   1.558  11.546   4.496 -0.6231 -0.2737  1.7135
11804SOL    HW239970   1.519  11.641   4.385  0.6480 -1.7757 -0.0818
11805SOL     OW39971   4.481   0.097   7.057  0.0071  0.1513  0.0903
11805SOL    HW139972   4.514   0.008   7.051  0.0183  0.2319 -2.5391
11805SOL    HW239973   4.392   0.088   7.090  0.2863 -0.7364  0.6300
11806SOL     OW39974   8.004  10.228   4.023  0.3240 -0.2126 -0.3358
11806SOL    HW139975   7.989  10.162   3.955  0.7281  0.5987 -1.2221
11806SOL    HW239976   7.920  10.234   4.069 -0.6476  0.7733 -2.1337
11807SOL     OW39977   6.748   3.499   2.881  0.1812 -0.1015 -0.3484
11807SOL    HW139978   6.727   3.587   2.913  0.8657  0.2724 -0.8926
11807SOL    HW239979   6.772   3.449   2.959  1.0298  0.5587 -0.1788
11808SOL     OW39980  10.742   5.639   8.121 -0.3005 -0.1326  0.2636
11808SOL    HW139981  10.802   5.692   8.174 -2.2676  3.1864 -0.4892
11808SOL    HW239982  10.666   5.626   8.177 -0.2255 -1.4106  0.0922
11809SOL     OW39983   7.818   6.843   9.045 -0.4708 -0.0792 -0.1701
11809SOL    HW139984   7.807   6.887   9.130  3.7896  0.6798  0.2118
11809SOL    HW239985   7.818   6.750   9.066 -1.5732  0.0147  0.2958
11810SOL     OW39986   2.456   6.124  10.347 -0.2764 -0.6893 -0.0495
11810SOL    HW139987   2.420   6.115  10.259 -1.1002  1.2939  0.0434
11810SOL    HW239988   2.518   6.052  10.355  0.0976 -0.6907 -2.3904
11811SOL     OW39989   9.391   1.170   6.847 -0.3118  0.0020 -0.2243
11811SOL    HW139990   9.439   1.088   6.841 -0.8166 -0.2187 -1.5764
11811SOL    HW239991   9.423   1.211   6.928  0.5716 -1.1119  0.0112
11812SOL     OW39992   0.728   5.573   6.158  0.1905  0.4850  0.2001
11812SOL    HW139993   0.711   5.479   6.157  1.4692  0.2386 -0.0540
11812SOL    HW239994   0.695   5.603   6.073  0.3121  0.1583  0.0334
11813SOL     OW39995  11.679   9.669   8.254  0.3160 -0.1500 -0.0580
11813SOL    HW139996  11.771   9.644   8.254  0.1658 -0.7466 -0.7485
11813SOL    HW239997  11.644   9.629   8.174 -0.4720  0.3124  0.0505
11814SOL     OW39998   9.267   6.774   2.819  0.0850  0.2329  0.0036
11814SOL    HW139999   9.229   6.687   2.811  1.7886 -0.5154 -0.5539
11814SOL    HW240000   9.355   6.758   2.853  0.3867  1.7528 -0.0087
11815SOL     OW40001   5.877   9.484   7.046 -0.2592  0.1732 -0.5862
11815SOL    HW140002   5.944   9.485   7.114 -0.5388 -0.0225 -0.3068
11815SOL    HW240003   5.922   9.517   6.968  0.5107 -1.1205 -0.7190
11816SOL     OW40004   7.012   2.395   7.224 -0.0867  0.3408 -0.6054
11816SOL    HW140005   7.063   2.323   7.187  2.3319  1.5575  0.1491
11816SOL    HW240006   7.018   2.464   7.158  0.5258  0.9933  0.1126
11817SOL     OW40007   1.861   8.109   1.729 -0.2817  0.1483 -0.4893
11817SOL    HW140008   1.796   8.062   1.678  0.4373 -0.6984 -0.6385
11817SOL    HW240009   1.823   8.196   1.742 -0.6454  0.2517 -2.1156
11818SOL     OW40010  10.955  11.452   6.406 -0.4461  0.3404  0.1662
11818SOL    HW140011  10.999  11.374   6.441 -1.2213  0.0641  0.5519
11818SOL    HW240012  11.014  11.524   6.425 -0.7827  0.1818  1.9532
11819SOL     OW40013   6.232   0.577   3.995 -0.4165  0.0611  0.1704
11819SOL    HW140014   6.322   0.545   4.002 -0.5699 -0.4282 -0.1114
11819SOL    HW240015   6.239   0.671   4.012  0.2791  0.2002 -0.8189
11820SOL     OW40016   3.336   8.601   7.600  0.6210  0.1969 -0.3465
11820SOL    HW140017   3.293   8.553   7.671  2.2903  0.1832  0.7006
11820SOL    HW240018   3.403   8.654   7.644  2.0286 -0.1643 -1.9624
11821SOL     OW40019   1.462   7.687   6.359  0.3085  0.0244  0.6555
11821SOL    HW140020   1.497   7.713   6.444  1.8484 -0.3887  0.1910
11821SOL    HW240021   1.537   7.694   6.299 -1.0972  1.7914 -1.0057
11822SOL     OW40022  10.328   5.380   7.419  0.4467 -0.1706  0.3527
11822SOL    HW140023  10.397   5.446   7.422  0.6461 -0.3751  0.3341
11822SOL    HW240024  10.352   5.317   7.488  0.8801 -0.8291 -0.3890
11823SOL     OW40025   8.771   4.037   3.477  0.3346  0.0266  0.1751
11823SOL    HW140026   8.759   4.104   3.410  1.4937 -0.9766 -1.1097
11823SOL    HW240027   8.865   4.025   3.483  0.3389  0.6947  2.6947
11824SOL     OW40028   0.657   9.160   2.819  0.0911 -0.5214 -0.1142
11824SOL    HW140029   0.704   9.131   2.897  0.3029  0.9411  0.3281
11824SOL    HW240030   0.593   9.223   2.852  1.4320  1.5618 -1.3027
11825SOL     OW40031   7.842  11.030  11.742 -0.4860  0.2911  0.6153
11825SOL    HW140032   7.873  11.066  11.825 -0.1091  1.2453  0.0800
11825SOL    HW240033   7.922  11.011  11.694 -0.6705  2.1347 -0.5152
11826SOL     OW40034   5.353  10.425   2.034 -0.5434 -0.0754 -0.2197
11826SOL    HW140035   5.426  10.453   1.978 -2.1074  2.1316 -1.2737
11826SOL    HW240036   5.359  10.480   2.111 -0.2291 -0.9586  0.4018
11827SOL     OW40037   0.849  10.669   8.907 -0.7785  0.0616  0.2605
11827SOL    HW140038   0.934  10.657   8.865 -1.2216  1.3851 -1.1072
11827SOL    HW240039   0.844  10.599   8.972  2.0843  1.0172  1.6603
11828SOL     OW40040   6.919   5.285   5.981  0.6657  0.1105 -0.0603
11828SOL    HW140041   7.004   5.325   6.002  1.0836 -1.7347  2.3295
11828SOL    HW240042   6.932   5.245   5.895  2.1166  0.1731  0.0959
11829SOL     OW40043   4.234   3.768   4.262  0.0478 -0.8517  0.0744
11829SOL    HW140044   4.283   3.760   4.344 -0.7887 -0.9428  0.5693
11829SOL    HW240045   4.153   3.813   4.286  0.4517  0.5022 -0.9684
11830SOL     OW40046  11.645   1.712   8.774 -0.0471 -0.5699 -0.3689
11830SOL    HW140047  11.606   1.649   8.834 -1.9410  1.1042  0.2863
11830SOL    HW240048  11.731   1.730   8.811  0.5693 -2.7679 -0.6246
11831SOL     OW40049   5.287   0.933   4.065 -0.4077 -0.0304  0.2409
11831SOL    HW140050   5.349   1.000   4.036  0.6490 -1.7537 -1.7881
11831SOL    HW240051   5.311   0.855   4.016 -1.3780 -2.0414  2.6878
11832SOL     OW40052  10.810  10.793   3.774  0.5727  0.4754 -1.0142
11832SOL    HW140053  10.853  10.775   3.690  0.9668 -0.9879 -0.5300
11832SOL    HW240054  10.783  10.707   3.806 -1.8339  1.2277 -0.7976
11833SOL     OW40055   9.933   2.106   7.354  0.2696  0.1653 -0.3897
11833SOL    HW140056   9.930   2.104   7.258 -0.9856  0.6611 -0.3718
11833SOL    HW240057   9.850   2.068   7.382 -0.1431  1.6038  0.4597
11834SOL     OW40058   1.181  10.819   4.281  0.2762  0.0462 -0.1027
11834SOL    HW140059   1.251  10.850   4.224  1.8710  0.2185  1.8775
11834SOL    HW240060   1.185  10.724   4.275  0.0701  0.0698 -0.6756
11835SOL     OW40061   8.423   3.982   1.545 -0.4986 -0.2887 -0.0238
11835SOL    HW140062   8.351   4.007   1.603  0.2505 -0.4793  1.0026
11835SOL    HW240063   8.397   3.896   1.510 -1.0004 -0.1244 -0.0565
11836SOL     OW40064  11.478   6.202   3.358 -0.1517  0.7117 -0.5641
11836SOL    HW140065  11.401   6.185   3.413 -1.0767  0.0892 -1.9898
11836SOL    HW240066  11.533   6.260   3.411 -0.9149  0.0135  1.0713
11837SOL     OW40067   1.883   3.838   7.068  0.2353  0.0980 -0.4442
11837SOL    HW140068   1.942   3.895   7.017 -0.2330  0.7758 -0.2432
11837SOL    HW240069   1.857   3.892   7.143 -1.5528  0.2458 -1.1210
11838SOL     OW40070   6.209   2.905   7.578  0.8612  0.4360  0.2515
11838SOL    HW140071   6.288   2.919   7.631  1.2360  0.2471 -0.2463
11838SOL    HW240072   6.192   2.811   7.584  0.9065  0.4136  0.0324
11839SOL     OW40073   3.751   9.609  10.336  0.0231  0.1757  0.0612
11839SOL    HW140074   3.655   9.615  10.339  0.0849  0.5510  1.9456
11839SOL    HW240075   3.769   9.515  10.338 -0.2904  0.0971 -0.4671
11840SOL     OW40076  11.687   9.210   2.645 -0.4177 -0.0511  0.5147
11840SOL    HW140077  11.693   9.153   2.569 -2.3244  0.4773 -0.0925
11840SOL    HW240078  11.737   9.166   2.713  1.3500 -0.5253 -1.0369
11841SOL     OW40079   9.705  10.429   5.087  0.4452 -0.2105 -0.6347
11841SOL    HW140080   9.629  10.485   5.073  0.6154 -0.1530 -1.3505
11841SOL    HW240081   9.680  10.345   5.047  0.8053 -0.1522 -0.9870
11842SOL     OW40082   1.938   9.707   6.350 -0.5051  0.6378  0.8131
11842SOL    HW140083   2.016   9.762   6.352 -1.0032  1.3862  0.3783
11842SOL    HW240084   1.965   9.625   6.392  1.1613  0.0289 -1.2761
11843SOL     OW40085   9.103   2.567   1.551 -0.3219  0.7615 -0.0907
11843SOL    HW140086   9.015   2.554   1.518 -1.1682  1.8705  1.5743
11843SOL    HW240087   9.091   2.611   1.635  1.7776  0.0347  0.6685
11844SOL     OW40088   6.592   4.549  11.561 -0.0592  0.0893 -0.1393
11844SOL    HW140089   6.657   4.617  11.547  1.4008 -1.1209  0.5611
11844SOL    HW240090   6.641   4.474  11.595 -1.5247 -1.5004 -1.3115
11845SOL     OW40091   5.633   4.379   5.717  0.3871 -0.2482  0.4665
11845SOL    HW140092   5.652   4.462   5.672 -2.0260  0.8112  1.2246
11845SOL    HW240093   5.581   4.329   5.655 -1.0880  0.2989  1.2209
11846SOL     OW40094   9.002  10.083   6.286 -0.0013 -0.4022 -0.3885
11846SOL    HW140095   9.016  10.150   6.353  1.2336 -0.3642 -0.6649
11846SOL    HW240096   8.909  10.062   6.292 -0.0709  0.1848  0.7857
11847SOL     OW40097   5.804   9.532   1.786  0.0443 -0.2794 -0.3150
11847SOL    HW140098   5.798   9.466   1.716  2.8856  0.9034 -1.8445
11847SOL    HW240099   5.806   9.616   1.739  1.8127  0.5634  1.1481
11848SOL     OW40100   2.382   6.350   8.995 -0.4654  0.5442  0.2128
11848SOL    HW140101   2.436   6.287   9.043 -1.4734 -0.1511  0.4706
11848SOL    HW240102   2.386   6.320   8.904  0.8964  1.4680 -0.0707
11849SOL     OW40103   0.829   1.617   6.946  0.5413  0.1830  0.0012
11849SOL    HW140104   0.828   1.581   7.034  1.5828 -0.0548 -0.0708
11849SOL    HW240105   0.921   1.642   6.931  0.5049 -0.3422 -1.2289
11850SOL     OW40106   2.404   2.047   4.897 -0.0089  0.0324  0.3402
11850SOL    HW140107   2.316   2.013   4.881  0.4292 -1.4683  0.9479
11850SOL    HW240108   2.424   2.021   4.987  0.7367  1.0953  0.5027
11851SOL     OW40109  10.731   9.617  10.215 -0.3992 -0.2018 -0.3728
11851SOL    HW140110  10.637   9.635  10.221 -0.5800 -0.8737 -0.9970
11851SOL    HW240111  10.765   9.685  10.157 -0.4548  0.1851  0.0431
11852SOL     OW40112   4.825  11.429   3.179  0.5697  0.2739  0.0223
11852SOL    HW140113   4.787  11.345   3.156  0.4202  0.1268  0.7796
11852SOL    HW240114   4.770  11.494   3.133 -0.3581  0.0453  0.7852
11853SOL     OW40115   3.261   3.554   6.950  0.5281  0.4273 -0.3123
11853SOL    HW140116   3.245   3.647   6.963  1.4190  0.6615 -0.8072
11853SOL    HW240117   3.175   3.518   6.926 -0.1906  0.7869  1.5761
11854SOL     OW40118   2.569   1.313  10.749 -0.0616 -0.7993 -0.1343
11854SOL    HW140119   2.583   1.257  10.673  0.2640 -1.5495  0.4566
11854SOL    HW240120   2.487   1.359  10.731 -0.4644 -1.6487 -0.5291
11855SOL     OW40121   6.443   9.966  11.504  0.1033 -0.4069 -0.4649
11855SOL    HW140122   6.475  10.034  11.445 -0.3601 -0.5913 -0.9323
11855SOL    HW240123   6.506   9.895  11.495  0.6200 -0.0258  0.0646
11856SOL     OW40124  11.891   7.854   0.340  0.3505 -0.4000 -0.2364
11856SOL    HW140125  11.852   7.920   0.283 -0.9903 -0.3870  0.6435
11856SOL    HW240126  11.962   7.900   0.385 -0.5116  0.4293  0.3051
11857SOL     OW40127   0.264  10.661   5.967 -0.2689 -0.3795 -0.5541
11857SOL    HW140128   0.262  10.566   5.951 -2.0034 -0.2855 -1.1692
11857SOL    HW240129   0.207  10.673   6.043  1.1582  0.0520  0.4897
11858SOL     OW40130   6.212   2.480  11.509  0.1308  0.0773 -0.5060
11858SOL    HW140131   6.223   2.522  11.424  0.9924 -1.4520 -1.1891
11858SOL    HW240132   6.182   2.392  11.488  0.3312 -0.3163  0.7774
11859SOL     OW40133   9.295   4.847  10.134 -0.1961 -0.3956  0.2057
11859SOL    HW140134   9.344   4.888  10.063  0.5009 -1.4511  0.0470
11859SOL    HW240135   9.352   4.858  10.211 -0.6599  0.1866  0.4707
11860SOL     OW40136   6.226   6.784  10.188 -0.1603  0.0819  0.5344
11860SOL    HW140137   6.157   6.847  10.168  0.1571  0.5868  1.0014
11860SOL    HW240138   6.227   6.779  10.284 -0.4793 -0.9712  0.4986
11861SOL     OW40139   9.818   9.340   9.730  0.1755  0.2745  0.0452
11861SOL    HW140140   9.824   9.384   9.645 -1.6431 -2.8671 -1.8947
11861SOL    HW240141   9.888   9.275   9.729 -0.0135  0.0404  0.8675
11862SOL     OW40142   6.506   6.682   9.183  0.3979  0.2619 -0.3258
11862SOL    HW140143   6.442   6.612   9.198 -0.9296  1.4970 -0.0030
11862SOL    HW240144   6.481   6.721   9.099  0.0366  1.4254  0.2934
11863SOL     OW40145   7.056   7.103   0.815 -0.3703  0.5224  0.3052
11863SOL    HW140146   7.037   7.060   0.731  1.6878  1.1988 -0.5625
11863SOL    HW240147   7.151   7.104   0.821 -0.4126  2.4954  1.6127
11864SOL     OW40148   0.153   5.013   7.294  0.5003  0.1056  0.1478
11864SOL    HW140149   0.240   4.993   7.261  0.9231 -0.0456  1.3243
11864SOL    HW240150   0.128   4.937   7.346  0.2622  0.7395  0.9904
11865SOL     OW40151   6.566   8.788  10.360 -0.0505  0.2184 -0.5536
11865SOL    HW140152   6.484   8.822  10.395  0.8061  1.6681  0.1465
11865SOL    HW240153   6.627   8.791  10.434  0.9499  0.3054 -1.3527
11866SOL     OW40154  11.001   5.623  10.504 -0.7226 -0.6644 -0.4239
11866SOL    HW140155  10.980   5.579  10.421 -0.6350  0.3177 -0.9793
11866SOL    HW240156  10.946   5.579  10.569 -3.1947  0.6241 -1.5174
11867SOL     OW40157   3.002   9.927   5.867  0.2231 -0.0505  0.2917
11867SOL    HW140158   2.980   9.914   5.774 -0.6949  1.1783  0.3158
11867SOL    HW240159   3.041   9.844   5.894  1.4187 -0.1011 -1.4419
11868SOL     OW40160  11.815   3.540   9.456  0.2442  0.2472 -0.2913
11868SOL    HW140161  11.897   3.561   9.410  1.0833 -1.3977  0.3899
11868SOL    HW240162  11.820   3.446   9.472 -0.8882  0.4492  1.5027
11869SOL     OW40163   1.455  11.500   1.052 -0.1059 -0.6600 -0.1599
11869SOL    HW140164   1.505  11.578   1.027  0.1679 -1.1197 -1.1224
11869SOL    HW240165   1.484  11.480   1.140  1.4446 -0.9239 -0.6998
11870SOL     OW40166   5.124  10.576   7.091 -0.1292 -0.2346 -0.3448
11870SOL    HW140167   5.062  10.577   7.019  0.7272 -0.7652 -1.1057
11870SOL    HW240168   5.186  10.646   7.071 -0.6677  0.5525  0.6087
11871SOL     OW40169   7.384   2.020   6.210  0.5575 -0.0654 -0.0834
11871SOL    HW140170   7.317   2.006   6.143  0.6092  2.7593 -0.8800
11871SOL    HW240171   7.341   1.997   6.292 -0.9252  0.3343 -0.7147
11872SOL     OW40172   8.280  11.959   0.864  0.4964  0.1285  0.2845
11872SOL    HW140173   8.321  11.874   0.846 -0.7612 -0.1360 -1.6043
11872SOL    HW240174   8.353  12.018   0.881  1.5326 -0.8460 -0.6404
11873SOL     OW40175   8.013  11.769  10.484  0.0194  0.5256  0.0018
11873SOL    HW140176   7.992  11.684  10.523 -1.1268  1.0428  0.5556
11873SOL    HW240177   7.941  11.786  10.423  1.1381  0.3171 -1.4498
11874SOL     OW40178   0.830  11.097   3.352  0.1307 -0.3962  0.3253
11874SOL    HW140179   0.803  11.157   3.283  0.0513 -0.8583 -0.0561
11874SOL    HW240180   0.813  11.010   3.316  3.4282 -0.8225 -0.5897
11875SOL     OW40181  10.696   9.156   0.873 -0.2097  0.2199  0.2210
11875SOL    HW140182  10.668   9.244   0.847  0.5453 -0.1569 -2.0807
11875SOL    HW240183  10.620   9.101   0.859 -0.0194  0.1459 -0.6033
11876SOL     OW40184   1.751   9.085   0.493 -0.3828 -0.8069  0.1287
11876SOL    HW140185   1.662   9.054   0.476 -1.3389  2.0401 -0.6039
11876SOL    HW240186   1.745   9.130   0.577  0.5322 -1.1345  0.3782
11877SOL     OW40187   3.496   0.335   1.233 -0.5321 -0.5133  0.0911
11877SOL    HW140188   3.547   0.371   1.161 -0.7276 -1.3765 -0.4923
11877SOL    HW240189   3.511   0.396   1.305 -0.0394  0.1657 -0.5627
11878SOL     OW40190   8.443   1.117   2.672 -0.1331 -0.2194  0.2900
11878SOL    HW140191   8.371   1.114   2.735 -1.5698 -0.4705 -1.2933
11878SOL    HW240192   8.495   1.039   2.692  0.3233  0.4982  2.1077
11879SOL     OW40193   1.019   8.987   6.998 -0.0557  0.5343 -0.2793
11879SOL    HW140194   0.956   8.917   6.983 -0.6726  1.0498 -0.1026
11879SOL    HW240195   0.997   9.022   7.084  0.9219  0.2511  0.0959
11880SOL     OW40196   4.546   9.121   0.057  0.0375  0.1657  0.7461
11880SOL    HW140197   4.458   9.085   0.064 -0.1434  0.3327 -0.4957
11880SOL    HW240198   4.598   9.050   0.018  0.0747  0.6090 -0.0401
11881SOL     OW40199  10.758   8.633   4.407 -0.4961 -0.3864  0.1860
11881SOL    HW140200  10.726   8.715   4.368 -0.2205  0.8180  2.3668
11881SOL    HW240201  10.853   8.636   4.394 -0.3738  0.1471  1.1480
11882SOL     OW40202   2.342   7.868   1.108 -0.5267 -0.5315  0.1930
11882SOL    HW140203   2.377   7.943   1.155 -1.5744 -0.3858  0.7802
11882SOL    HW240204   2.321   7.901   1.021 -1.9421  0.1448  0.7653
11883SOL     OW40205  11.853   7.322   2.894  0.2462  0.1602 -0.0976
11883SOL    HW140206  11.921   7.273   2.940 -0.7899  0.1666  1.5287
11883SOL    HW240207  11.802   7.364   2.964 -0.3269  1.6431 -1.3480
11884SOL     OW40208   6.434   2.537  10.581 -0.5674  0.3549 -0.1633
11884SOL    HW140209   6.351   2.538  10.628 -1.1682 -0.1330 -1.1799
11884SOL    HW240210   6.501   2.534  10.650 -1.4049  0.1630  0.6580
11885SOL     OW40211   3.111   0.310   1.690 -0.3959  0.4082  0.2017
11885SOL    HW140212   3.032   0.333   1.641 -0.3001  1.2643  0.4345
11885SOL    HW240213   3.080   0.289   1.778 -0.2038  2.6619  0.8638
11886SOL     OW40214   5.930   8.372   7.047 -0.1226  0.1081  0.0681
11886SOL    HW140215   5.960   8.370   7.138 -1.3243  0.0507  0.4875
11886SOL    HW240216   5.924   8.280   7.021 -1.0864  0.0582  0.4081
11887SOL     OW40217  11.528   7.332  10.165 -0.0928  0.9733  0.0463
11887SOL    HW140218  11.588   7.378  10.107  0.1212 -1.1946 -1.6124
11887SOL    HW240219  11.585   7.277  10.220 -0.4338  0.8310  0.2632
11888SOL     OW40220   8.381   3.017   9.288 -0.1255 -0.4247  0.4394
11888SOL    HW140221   8.446   3.011   9.218  0.6692  0.0756  1.1255
11888SOL    HW240222   8.353   2.927   9.302 -0.1327 -0.5592 -0.3610
11889SOL     OW40223   7.715   0.134   1.642  0.0266  0.6544  0.6586
11889SOL    HW140224   7.778   0.203   1.626 -0.1817  0.5751 -0.5760
11889SOL    HW240225   7.768   0.059   1.672  0.6509  0.3068 -1.1975
11890SOL     OW40226  11.382   5.959   6.210 -0.7440  0.0995 -0.3592
11890SOL    HW140227  11.327   5.888   6.176 -1.4588  1.7284 -2.8184
11890SOL    HW240228  11.417   6.002   6.133  0.7582  1.6295  1.0955
11891SOL     OW40229   6.664   7.374   9.130  0.0963 -0.1236 -0.5267
11891SOL    HW140230   6.623   7.386   9.044  0.1296 -2.0906 -0.8723
11891SOL    HW240231   6.616   7.433   9.188 -1.0586  0.0123 -1.5691
11892SOL     OW40232   0.909   3.611  10.257  0.1258  0.0604 -0.0826
11892SOL    HW140233   0.958   3.567  10.327 -0.7756  1.8578  1.8058
11892SOL    HW240234   0.976   3.655  10.205  0.7149  0.4004  0.9217
11893SOL     OW40235   1.617   3.206   7.727  0.0115 -0.2031 -0.3711
11893SOL    HW140236   1.634   3.242   7.640  2.9838  1.6012  0.8016
11893SOL    HW240237   1.522   3.213   7.737 -0.2525  1.0067 -2.8372
11894SOL     OW40238   0.095  10.384   2.216 -0.2681  0.0997  0.3588
11894SOL    HW140239   0.063  10.413   2.301 -1.9444 -2.2616  0.6405
11894SOL    HW240240   0.189  10.397   2.219 -0.5157  1.9580  1.7495
11895SOL     OW40241   1.610  10.383   4.868  0.0570 -1.0405 -0.0843
11895SOL    HW140242   1.618  10.461   4.923 -1.4243 -0.1515 -1.0450
11895SOL    HW240243   1.699  10.363   4.841  0.2839  2.1930 -2.2972
11896SOL     OW40244  11.443  11.783   6.239 -0.0681 -0.6511  0.0928
11896SOL    HW140245  11.458  11.866   6.284 -0.6699 -0.8565  0.6859
11896SOL    HW240246  11.411  11.808   6.152  0.1431 -0.2624  0.1254
11897SOL     OW40247   9.868   3.823   1.699  0.3567 -0.2668  0.4775
11897SOL    HW140248   9.831   3.893   1.646  0.1202 -0.7699 -0.0360
11897SOL    HW240249   9.963   3.833   1.689  0.3154 -0.2931  0.0448
11898SOL     OW40250   1.359   8.977  11.205 -0.3016  0.0837  0.6255
11898SOL    HW140251   1.312   8.965  11.287  0.9949  1.9948  1.7274
11898SOL    HW240252   1.418   8.901  11.200 -0.0079  0.2264  1.7587
11899SOL     OW40253  11.178   5.172   1.510  0.2752 -0.0992  0.2781
11899SOL    HW140254  11.131   5.215   1.438  0.4112 -0.8590 -0.2778
11899SOL    HW240255  11.123   5.188   1.587 -0.9523 -1.0206 -0.3613
11900SOL     OW40256   4.705   0.191   8.154 -0.5833 -0.2210  0.1853
11900SOL    HW140257   4.720   0.098   8.169 -0.9882 -0.0348  1.8704
11900SOL    HW240258   4.638   0.194   8.085 -0.7586 -1.1687  0.3046
11901SOL     OW40259   0.272  10.743  11.110 -0.2237  0.4097  0.3247
11901SOL    HW140260   0.211  10.753  11.183 -1.0188 -2.8414  0.2462
11901SOL    HW240261   0.215  10.742  11.033  0.3982  1.4595 -0.1789
11902SOL     OW40262   2.413   3.682   2.189  0.3207 -0.2758  0.7197
11902SOL    HW140263   2.509   3.685   2.179  0.2654  1.2830  0.4544
11902SOL    HW240264   2.399   3.694   2.283  0.3762 -1.0409  0.8397
11903SOL     OW40265   8.054  10.520  10.969 -0.2542  0.0151  0.3069
11903SOL    HW140266   8.063  10.553  10.879 -2.0340 -0.2237 -0.0092
11903SOL    HW240267   8.116  10.572  11.020 -2.0165  3.0516 -0.3578
11904SOL     OW40268   5.391   4.467  11.489 -0.7655 -0.7647  0.6548
11904SOL    HW140269   5.300   4.479  11.461  0.1194  1.9952 -1.5462
11904SOL    HW240270   5.430   4.414  11.420 -0.6314 -1.7453  1.4747
11905SOL     OW40271  11.323   2.364   4.604 -0.1587 -0.4532  0.7086
11905SOL    HW140272  11.367   2.296   4.654 -0.5819  0.1211  1.9061
11905SOL    HW240273  11.384   2.438   4.606  0.4593 -0.8685 -0.8900
11906SOL     OW40274   8.293   8.872   5.014  0.0350 -0.0491 -0.4348
11906SOL    HW140275   8.277   8.824   5.095  1.1295  0.3291  0.0173
11906SOL    HW240276   8.387   8.867   5.000 -0.0162  0.7047 -1.1703
11907SOL     OW40277   7.039   6.276  10.683 -0.0039 -0.4239  0.5216
11907SOL    HW140278   7.006   6.333  10.614  1.4154  0.2546  0.3682
11907SOL    HW240279   6.997   6.308  10.763  0.6440  0.7511  0.4136
11908SOL     OW40280  11.494   3.311   4.767 -0.5694 -0.3400 -0.5644
11908SOL    HW140281  11.579   3.355   4.769 -0.4355 -0.4839  2.9159
11908SOL    HW240282  11.515   3.217   4.766 -0.6386 -0.3831  0.8174
11909SOL     OW40283   8.825  10.890   3.017 -0.3589  0.3727 -1.0296
11909SOL    HW140284   8.780  10.807   3.002  0.0576 -0.3334  1.1646
11909SOL    HW240285   8.905  10.883   2.965  0.0411 -0.9762 -0.3047
11910SOL     OW40286   0.277   4.749   8.590 -0.2404  0.1535 -0.1395
11910SOL    HW140287   0.328   4.761   8.670 -1.2162  1.7432  0.2910
11910SOL    HW240288   0.336   4.776   8.519  1.1101 -2.5615 -0.1641
11911SOL     OW40289   8.832   9.524   3.113 -0.2407 -0.2638  0.3724
11911SOL    HW140290   8.877   9.597   3.154  0.4580 -0.9218  0.7925
11911SOL    HW240291   8.788   9.563   3.037  0.4774  0.5101  0.3387
11912SOL     OW40292  11.541  10.851   0.761 -0.0476  0.6800 -0.3140
11912SOL    HW140293  11.449  10.832   0.775 -0.4692  2.9731  0.3767
11912SOL    HW240294  11.587  10.775   0.798 -1.5271  1.2156  2.9549
11913SOL     OW40295  11.430   1.607   9.276  0.4472 -0.2560  0.0199
11913SOL    HW140296  11.398   1.517   9.277 -1.8033  0.4884 -0.0916
11913SOL    HW240297  11.525   1.598   9.268  0.3694 -2.6156  0.9153
11914SOL     OW40298   5.094   2.142  10.293  0.3975 -0.5600 -0.1110
11914SOL    HW140299   5.010   2.143  10.247  0.0099 -2.6324  0.4265
11914SOL    HW240300   5.156   2.105  10.230  0.4160 -1.0667  0.2003
11915SOL     OW40301   2.198   8.571   4.683  0.0228  0.1136 -0.0513
11915SOL    HW140302   2.125   8.611   4.730 -0.7424  0.7971 -1.7429
11915SOL    HW240303   2.257   8.644   4.664  0.9737 -0.3657  0.9112
11916SOL     OW40304  10.138   9.914   4.865  0.1295  0.0352  0.5877
11916SOL    HW140305  10.220   9.961   4.876  0.6844 -0.9373  0.7711
11916SOL    HW240306  10.133   9.896   4.771  1.8104 -2.7429  0.9316
11917SOL     OW40307   0.095  11.984  10.476 -0.4769  0.0370  0.7671
11917SOL    HW140308   0.146  12.025  10.546  4.7033  0.7359 -2.8554
11917SOL    HW240309   0.043  12.056  10.439 -0.2274  0.5765  1.4330
11918SOL     OW40310   6.472   6.326   6.825  0.4078 -0.2904 -0.6281
11918SOL    HW140311   6.564   6.333   6.850 -0.1400 -0.2908  1.5715
11918SOL    HW240312   6.446   6.416   6.804  0.6880 -0.1648 -0.4457
11919SOL     OW40313  10.395   5.493   0.255  0.5219  0.0406 -0.4374
11919SOL    HW140314  10.314   5.540   0.275 -0.4096 -0.7201 -2.2125
11919SOL    HW240315  10.367   5.404   0.236  1.7830 -0.2566 -0.9789
11920SOL     OW40316   2.463   0.894   9.838  0.0392 -0.2743  0.3913
11920SOL    HW140317   2.464   0.854   9.925 -2.8321  0.2003  0.7609
11920SOL    HW240318   2.435   0.823   9.780  1.3252 -0.4222 -0.0750
11921SOL     OW40319   6.597  11.748   2.507  0.1397 -0.2161  0.1058
11921SOL    HW140320   6.510  11.710   2.523 -0.1436  0.0522 -0.7346
11921SOL    HW240321   6.603  11.821   2.568 -0.2851 -0.1513  0.0726
11922SOL     OW40322   6.950   8.895   1.025 -0.1512  0.1302 -0.5498
11922SOL    HW140323   6.971   8.976   1.072 -2.0905  0.4142 -0.0796
11922SOL    HW240324   6.882   8.921   0.963 -0.4143 -1.0307 -0.7583
11923SOL     OW40325   5.957   0.881   0.728 -0.0016  0.0117 -0.8322
11923SOL    HW140326   5.954   0.851   0.819 -1.7508  0.9373 -0.5374
11923SOL    HW240327   6.027   0.830   0.688  0.5924 -0.6437  0.9512
11924SOL     OW40328  11.275  11.244  10.402 -0.4286  0.2082 -0.2854
11924SOL    HW140329  11.312  11.332  10.392  0.8626 -0.1017  1.5037
11924SOL    HW240330  11.317  11.192  10.333 -1.6565  1.0757 -1.7603
11925SOL     OW40331   9.681   7.791   3.813  0.2223  0.0220  0.4580
11925SOL    HW140332   9.754   7.853   3.806  0.5562 -0.5221 -1.4602
11925SOL    HW240333   9.604   7.843   3.791 -0.0926  0.6868  2.8381
11926SOL     OW40334   3.832   6.821   6.267  0.3287 -0.3229 -1.2143
11926SOL    HW140335   3.817   6.813   6.361 -0.6619 -2.0637 -1.4901
11926SOL    HW240336   3.763   6.879   6.236  0.0041 -0.6042 -1.0215
11927SOL     OW40337   7.237  11.094   4.238  0.0280 -0.4812  0.4128
11927SOL    HW140338   7.272  11.024   4.293  1.7927  1.1306  1.4858
11927SOL    HW240339   7.250  11.173   4.290  1.1367  1.0592 -2.0435
11928SOL     OW40340   3.063   3.714  11.325 -0.4351 -0.0809 -0.0141
11928SOL    HW140341   3.096   3.648  11.386 -3.0980 -0.1014  1.5617
11928SOL    HW240342   3.005   3.665  11.266  1.4401  0.0936 -2.1586
11929SOL     OW40343   9.021   6.690   0.464  0.4730  0.1744 -0.1565
11929SOL    HW140344   9.057   6.681   0.552  1.5340  1.4149 -0.4430
11929SOL    HW240345   8.935   6.731   0.478  0.5424  0.1721  0.3094
11930SOL     OW40346   5.158   8.753   6.245  0.0906  0.4545  0.1360
11930SOL    HW140347   5.195   8.793   6.166 -1.8876  0.2519 -0.9355
11930SOL    HW240348   5.105   8.681   6.213  0.0221 -0.2462  1.7390
11931SOL     OW40349   2.801  11.192  10.606  0.3764 -0.1437  0.0220
11931SOL    HW140350   2.815  11.191  10.701  0.0514 -0.9672  0.0747
11931SOL    HW240351   2.739  11.264  10.592  1.4166  0.8206  0.2712
11932SOL     OW40352   0.764  10.787   4.561  1.1878 -0.0843 -0.4699
11932SOL    HW140353   0.679  10.790   4.604  0.6327 -0.0838 -1.5354
11932SOL    HW240354   0.827  10.791   4.633  0.3026 -1.3189  0.4187
11933SOL     OW40355  10.883   3.816   1.406 -0.2526  0.1613 -0.1468
11933SOL    HW140356  10.844   3.883   1.462  1.6008  0.3310  0.9970
11933SOL    HW240357  10.888   3.738   1.462 -0.3470 -0.3080 -0.7761
11934SOL     OW40358   2.360  11.861   0.435 -0.0419 -0.6109 -0.2702
11934SOL    HW140359   2.448  11.860   0.472  0.2914  1.5325 -0.8298
11934SOL    HW240360   2.362  11.796   0.365  0.2571 -2.4589  1.4024
11935SOL     OW40361   8.295   8.901   1.763 -0.1087 -0.2210 -0.1989
11935SOL    HW140362   8.247   8.928   1.841  0.4856 -0.3644  0.2298
11935SOL    HW240363   8.227   8.879   1.699 -0.6958 -2.4436  1.0765
11936SOL     OW40364   5.022   3.148   2.974 -0.1363 -0.5098  0.2696
11936SOL    HW140365   5.074   3.216   3.017  0.5279 -0.8308 -0.0187
11936SOL    HW240366   4.934   3.159   3.011  0.6379 -1.5208  2.5785
11937SOL     OW40367   2.418   8.822   8.082  0.1347 -0.2948  0.0599
11937SOL    HW140368   2.485   8.852   8.144  0.4562 -0.3786 -0.2394
11937SOL    HW240369   2.467   8.772   8.017 -0.4605 -1.9851  0.8534
11938SOL     OW40370   7.610   5.608   8.545  0.0751 -0.0929  0.1736
11938SOL    HW140371   7.590   5.543   8.612  0.5059  0.6875  1.0840
11938SOL    HW240372   7.605   5.560   8.462 -0.8372 -0.9815  0.7279
11939SOL     OW40373  11.267   1.089   0.799 -0.4987  0.1004  0.2823
11939SOL    HW140374  11.345   1.101   0.853 -1.1724 -0.3539  1.3731
11939SOL    HW240375  11.272   1.161   0.735  0.2943  0.6656  0.9455
11940SOL     OW40376   8.397   6.906   7.244  0.0492  0.3336 -0.3148
11940SOL    HW140377   8.436   6.819   7.258  0.6081  0.5911 -0.2451
11940SOL    HW240378   8.471   6.966   7.248 -0.5532  1.0258  1.5939
11941SOL     OW40379  11.057   7.580   8.638 -0.1710 -0.2108  0.5252
11941SOL    HW140380  10.987   7.598   8.701 -1.2539 -0.6502 -0.5018
11941SOL    HW240381  11.131   7.552   8.691 -1.2180 -1.0824  1.5661
11942SOL     OW40382   4.309   2.161  11.321  0.2530 -0.1526 -0.2605
11942SOL    HW140383   4.252   2.105  11.269  2.6735 -1.8764 -1.2476
11942SOL    HW240384   4.308   2.123  11.408 -1.6039  1.0698  0.3248
11943SOL     OW40385   5.276  10.436   1.720 -0.1730  0.3404 -0.0677
11943SOL    HW140386   5.273  10.345   1.749 -0.4293 -0.0357 -1.2339
11943SOL    HW240387   5.217  10.482   1.781 -1.9286 -0.7005 -0.8891
11944SOL     OW40388   8.298   6.864  10.326  0.3668 -0.1725 -0.3895
11944SOL    HW140389   8.280   6.863  10.232 -0.7111  0.5311 -0.2028
11944SOL    HW240390   8.296   6.772  10.351 -0.7662 -0.2879 -0.8149
11945SOL     OW40391   5.651   8.676   7.114  0.0694  0.1366 -0.3594
11945SOL    HW140392   5.610   8.756   7.083  0.5961  1.4334  2.0600
11945SOL    HW240393   5.742   8.699   7.130  0.8165 -1.6025 -1.7554
11946SOL     OW40394   0.194   3.494   5.594 -0.1492 -0.3879 -0.1286
11946SOL    HW140395   0.191   3.541   5.510  0.0169 -0.4714 -0.1811
11946SOL    HW240396   0.282   3.511   5.627 -0.4497  0.2287  0.3626
11947SOL     OW40397   4.844  11.142   9.582  0.0688  0.1702 -0.5961
11947SOL    HW140398   4.818  11.051   9.569 -0.1277 -0.0528  1.0493
11947SOL    HW240399   4.938  11.138   9.597  0.0158  0.1857 -0.2376
11948SOL     OW40400   9.943   1.292   8.269 -0.5310  0.5148 -0.3517
11948SOL    HW140401   9.945   1.228   8.198  1.5612 -1.4253  1.2789
11948SOL    HW240402   9.853   1.290   8.302 -1.3304  0.8927 -2.3671
11949SOL     OW40403   8.054   9.936   8.083 -0.4860 -0.4326  0.3249
11949SOL    HW140404   7.974   9.988   8.092 -0.4868 -0.5083  0.7629
11949SOL    HW240405   8.120   9.998   8.055 -0.4815 -0.1910  0.8726
11950SOL     OW40406  11.975   1.436   8.328 -0.3670  0.0715 -0.0739
11950SOL    HW140407  11.982   1.361   8.269  0.0165  0.9188 -1.1507
11950SOL    HW240408  12.035   1.417   8.400 -0.0171 -0.4932 -0.5102
11951SOL     OW40409   3.782   3.640   9.566  0.3411  0.5912  0.1325
11951SOL    HW140410   3.861   3.694   9.567  1.0299 -0.3608 -0.2079
11951SOL    HW240411   3.796   3.580   9.492 -1.9903  2.2481 -1.7782
11952SOL     OW40412   6.389   5.864   3.277 -0.0742  0.1951 -0.4961
11952SOL    HW140413   6.441   5.789   3.246 -1.2624 -1.5054  1.3739
11952SOL    HW240414   6.429   5.887   3.361 -1.1639  0.0718  0.0693
11953SOL     OW40415   2.270   3.840   7.409 -0.5494  0.3150  0.2278
11953SOL    HW140416   2.309   3.771   7.355 -1.8550 -0.4111  0.1781
11953SOL    HW240417   2.299   3.921   7.368  1.1298 -0.1725  0.3638
11954SOL     OW40418   4.904   5.799   4.664  0.2419 -0.2908  0.2519
11954SOL    HW140419   4.925   5.741   4.591 -0.5241 -0.6412  0.3006
11954SOL    HW240420   4.873   5.879   4.622  0.4429 -0.2406  0.1947
11955SOL     OW40421   7.345   3.130   8.493  0.3570  0.1473 -0.4333
11955SOL    HW140422   7.328   3.148   8.586  2.3254  0.7106 -0.1475
11955SOL    HW240423   7.361   3.036   8.489  0.0278  0.0822 -0.2548
11956SOL     OW40424   3.432   2.984  10.603 -0.0755 -0.4561 -0.2634
11956SOL    HW140425   3.374   2.981  10.527 -0.0605 -3.1046 -0.2495
11956SOL    HW240426   3.520   2.991  10.566 -0.2077  1.3774 -0.3371
11957SOL     OW40427   8.348   5.313  12.026  0.9292 -0.0322 -0.2314
11957SOL    HW140428   8.382   5.274  11.946 -0.8920  0.0693 -1.0934
11957SOL    HW240429   8.388   5.263  12.097  1.0771 -1.3816 -1.2510
11958SOL     OW40430   5.440   9.612   1.727  0.1803  0.0948  0.7704
11958SOL    HW140431   5.397   9.671   1.665 -0.5341  0.1176  1.2692
11958SOL    HW240432   5.501   9.668   1.775  1.3168 -0.0757 -0.4179
11959SOL     OW40433  10.774   9.897   9.042 -0.2560 -0.3030 -0.2029
11959SOL    HW140434  10.780   9.816   9.093  0.8018 -0.4464 -0.5328
11959SOL    HW240435  10.680   9.909   9.027 -0.4425 -1.3296  0.0627
11960SOL     OW40436   4.318   8.303   2.017 -0.2503  0.0756 -0.7464
11960SOL    HW140437   4.327   8.326   1.924 -0.8764 -2.8564 -1.6369
11960SOL    HW240438   4.239   8.348   2.045  0.4528  1.7675 -1.2970
11961SOL     OW40439   9.859   9.141   0.635  0.0079 -0.4124 -0.2075
11961SOL    HW140440   9.946   9.101   0.644  0.6055  0.7399 -0.6768
11961SOL    HW240441   9.851   9.197   0.712 -0.3212 -0.5110 -0.1701
11962SOL     OW40442  10.640   9.176   5.083 -0.2452 -0.1332  0.1092
11962SOL    HW140443  10.593   9.198   5.164  0.8482  1.7250  0.3197
11962SOL    HW240444  10.730   9.203   5.101 -0.4145  2.7118 -2.5094
11963SOL     OW40445  10.804   1.973   5.859  0.4440  0.0295 -0.2459
11963SOL    HW140446  10.804   1.981   5.764  0.1447  0.2108 -0.2331
11963SOL    HW240447  10.726   2.021   5.887 -0.3935 -1.4000 -0.0228
11964SOL     OW40448   2.656   3.665   5.684  0.5739 -0.0607  0.3134
11964SOL    HW140449   2.644   3.603   5.612  2.2733 -1.4181  1.1026
11964SOL    HW240450   2.682   3.747   5.642  2.2229 -1.0085 -0.6516
11965SOL     OW40451   6.707  10.295   4.149  0.1205  0.0322  0.4549
11965SOL    HW140452   6.787  10.306   4.200  0.0580 -0.4057  0.6546
11965SOL    HW240453   6.737  10.275   4.060  0.2448 -0.9536  0.7064
11966SOL     OW40454   3.036  10.512   5.073  0.1307 -0.2730 -0.1217
11966SOL    HW140455   3.024  10.545   4.984  1.9349 -0.9781 -0.6677
11966SOL    HW240456   2.974  10.440   5.081 -1.5612  1.1193 -0.0233
11967SOL     OW40457  10.152   0.552   9.052 -0.0971  0.4096 -0.2294
11967SOL    HW140458  10.115   0.639   9.040  0.9679  1.2591  2.0054
11967SOL    HW240459  10.103   0.515   9.126  2.2486  0.9225  1.7201
11968SOL     OW40460  10.416   6.394   1.552  0.0437  0.6096  0.3154
11968SOL    HW140461  10.380   6.444   1.479  1.2447 -0.1670 -0.8692
11968SOL    HW240462  10.508   6.380   1.527  0.2989 -0.2458  1.6697
11969SOL     OW40463   8.303   4.558   6.452 -0.2668  0.1075 -0.0102
11969SOL    HW140464   8.307   4.480   6.508  1.8489 -0.2701 -0.5869
11969SOL    HW240465   8.388   4.600   6.463  0.1813  0.1231 -2.7444
11970SOL     OW40466   7.249   1.373   5.683  0.1365  0.1336 -0.0505
11970SOL    HW140467   7.253   1.305   5.616 -1.1222  0.7444 -0.7885
11970SOL    HW240468   7.192   1.441   5.646  1.1274  1.4818  0.7647
11971SOL     OW40469   7.070  10.126   2.360 -0.3111  0.2117  0.3795
11971SOL    HW140470   7.121  10.192   2.313  0.4069  0.2460  1.1745
11971SOL    HW240471   7.130  10.053   2.373 -0.4879  0.1921  1.2006
11972SOL     OW40472   3.344  11.011   9.625 -0.6665  0.1713 -0.1180
11972SOL    HW140473   3.330  11.097   9.585  0.4680 -0.0941 -1.1482
11972SOL    HW240474   3.277  11.005   9.694 -1.7861  1.2251 -1.0632
11973SOL     OW40475   6.677  10.143   0.143  0.0918  0.5330  0.0034
11973SOL    HW140476   6.746  10.170   0.204  0.9067 -0.6073 -0.3783
11973SOL    HW240477   6.709  10.171   0.058 -0.1878  0.4899 -0.1155
11974SOL     OW40478   0.881   3.576   8.237 -0.5682  0.1023 -0.5377
11974SOL    HW140479   0.904   3.524   8.160 -0.7539 -1.1600  0.2262
11974SOL    HW240480   0.949   3.555   8.301  0.3361  2.1314 -0.7351
11975SOL     OW40481   7.150  10.424   1.671  1.1272 -0.4201 -0.2575
11975SOL    HW140482   7.200  10.353   1.630  1.5206 -1.3219  1.7014
11975SOL    HW240483   7.137  10.395   1.761  1.9209  2.3248  0.8053
11976SOL     OW40484   9.048   7.071   8.836  0.2365  0.2434  0.0821
11976SOL    HW140485   8.966   7.040   8.798 -0.3245  0.7714  0.8219
11976SOL    HW240486   9.037   7.057   8.930  0.7965  0.7686  0.2286
11977SOL     OW40487   3.520   0.127   2.395  0.8355 -0.1213  0.2983
11977SOL    HW140488   3.480   0.091   2.316  1.1760 -0.9118  0.4789
11977SOL    HW240489   3.474   0.210   2.410  1.7154  0.7572 -1.5118
11978SOL     OW40490   1.803   8.559   2.627  0.0315  0.4169  0.1427
11978SOL    HW140491   1.809   8.541   2.721  1.7043  1.0017  0.1724
11978SOL    HW240492   1.782   8.652   2.622 -0.3386  0.3237 -0.0740
11979SOL     OW40493   4.151   5.177   7.302 -0.5084  0.1032  0.0471
11979SOL    HW140494   4.102   5.100   7.330 -0.7938  0.3011  0.1002
11979SOL    HW240495   4.223   5.142   7.250 -1.4865 -0.1249 -1.2175
11980SOL     OW40496   6.793  10.244   1.680 -0.0483 -0.5853  0.0620
11980SOL    HW140497   6.751  10.217   1.598 -0.0669 -0.2944 -0.0264
11980SOL    HW240498   6.734  10.310   1.716  1.1354  1.0527 -0.8913
11981SOL     OW40499  11.833   6.739   5.387 -0.2262 -0.5115 -0.1720
11981SOL    HW140500  11.886   6.766   5.312 -0.5889  2.1282  0.4281
11981SOL    HW240501  11.895   6.736   5.460 -0.6151  1.3551  0.2785
11982SOL     OW40502   7.667   9.035   4.743  0.5471  0.3831 -0.4546
11982SOL    HW140503   7.747   9.087   4.754  0.0739  1.5351 -2.1290
11982SOL    HW240504   7.689   8.950   4.782  1.4301  1.6840  2.0932
11983SOL     OW40505  11.112  11.422   9.601  0.1264 -0.7259 -0.4765
11983SOL    HW140506  11.128  11.449   9.511 -2.2767  0.4544 -0.6513
11983SOL    HW240507  11.083  11.503   9.645  0.6830 -1.3967  1.2054
11984SOL     OW40508   1.178  11.428  11.588 -0.4656  0.5223  0.1122
11984SOL    HW140509   1.200  11.435  11.681 -0.2276 -0.3274  0.1245
11984SOL    HW240510   1.091  11.389  11.587 -1.1268  1.9336  0.0041
11985SOL     OW40511   7.909   3.200   7.100  0.5768  0.2747  0.0857
11985SOL    HW140512   7.931   3.110   7.123 -1.1759 -0.1750  0.1176
11985SOL    HW240513   7.834   3.221   7.155  1.6363  2.1837  0.9170
11986SOL     OW40514   6.198   2.095   1.955  0.0127  0.5822 -0.5991
11986SOL    HW140515   6.176   2.025   1.894  1.0658 -0.4492  0.1549
11986SOL    HW240516   6.293   2.090   1.965 -0.2532 -0.6735  2.6726
11987SOL     OW40517   4.872   2.596   8.455  0.7310  0.4926 -0.4130
11987SOL    HW140518   4.817   2.540   8.510  0.5298 -0.2106 -1.3019
11987SOL    HW240519   4.892   2.671   8.510  0.8082 -0.3429  0.7290
11988SOL     OW40520   4.446   7.335   3.823 -0.1903 -0.0633 -0.4637
11988SOL    HW140521   4.365   7.378   3.797 -0.1719 -0.6642 -1.5573
11988SOL    HW240522   4.506   7.407   3.844 -1.2431  0.3855  1.1941
11989SOL     OW40523   9.765   6.263   4.231 -0.4461 -0.6407  0.2367
11989SOL    HW140524   9.692   6.295   4.284  0.3683  1.2962  0.2635
11989SOL    HW240525   9.724   6.237   4.148 -1.2534 -0.1236  0.4582
11990SOL     OW40526   7.276  11.398   2.708  0.2524 -0.1421 -0.1216
11990SOL    HW140527   7.301  11.490   2.714 -1.1887  0.3513 -1.0189
11990SOL    HW240528   7.194  11.399   2.659 -0.0706 -1.8677  0.3153
11991SOL     OW40529  10.480   6.724   1.592 -0.6399  0.2875  0.0398
11991SOL    HW140530  10.532   6.719   1.512 -0.5863 -0.9243  0.1297
11991SOL    HW240531  10.543   6.706   1.662 -1.0341 -0.4467  0.2090
11992SOL     OW40532   1.076   9.845   9.069  0.1941  1.0291 -0.3734
11992SOL    HW140533   1.054   9.924   9.020  0.2226  1.5360  0.4155
11992SOL    HW240534   1.078   9.776   9.003 -1.2709  1.4139 -0.8575
11993SOL     OW40535   8.278   2.532   0.845 -0.2434 -0.1355  0.4962
11993SOL    HW140536   8.231   2.469   0.791 -0.2057  0.3324 -0.0931
11993SOL    HW240537   8.263   2.617   0.803  0.7546  0.0865  0.5445
11994SOL     OW40538   0.742   7.815   0.299 -0.3703  0.0468  0.7476
11994SOL    HW140539   0.728   7.770   0.383  0.3198  0.9170  1.3424
11994SOL    HW240540   0.754   7.744   0.236  0.3192 -0.6230  1.5992
11995SOL     OW40541   3.116   3.774   5.388 -0.3606  0.8762  0.4976
11995SOL    HW140542   3.152   3.801   5.472 -0.1463  0.6854  0.4708
11995SOL    HW240543   3.185   3.796   5.325  0.7938 -1.6948  0.7252
11996SOL     OW40544  10.736   0.332   5.195  0.1281  0.1628 -0.1058
11996SOL    HW140545  10.796   0.373   5.133  0.9982 -1.3657 -0.3089
11996SOL    HW240546  10.664   0.299   5.140  1.2277 -1.7942 -0.4546
11997SOL     OW40547   5.364   0.816   8.290  0.3908 -0.1144  0.2158
11997SOL    HW140548   5.432   0.848   8.231 -0.0558  1.8431  0.6945
11997SOL    HW240549   5.284   0.818   8.238  0.0812  1.1559  0.6991
11998SOL     OW40550   3.474   4.982   7.652 -0.0428  0.4850  0.5546
11998SOL    HW140551   3.449   4.999   7.561  1.2444 -0.8272 -0.0794
11998SOL    HW240552   3.566   5.009   7.657  0.7507 -1.9882  0.6648
11999SOL     OW40553   2.899   9.106  11.628  0.4553 -0.0649  0.0557
11999SOL    HW140554   2.869   9.189  11.592 -0.9938 -0.2983  0.6274
11999SOL    HW240555   2.858   9.040  11.572 -0.8051 -0.4071  1.3262
12000SOL     OW40556   9.060   7.586   8.145  0.2284  0.0046  0.4303
12000SOL    HW140557   9.107   7.559   8.224 -1.8572 -1.7634  1.1906
12000SOL    HW240558   9.060   7.508   8.089  1.8887  1.3069 -1.5131
12001SOL     OW40559   6.727   5.130   0.874 -0.5322  0.1155  0.2125
12001SOL    HW140560   6.713   5.088   0.789 -1.4240 -0.4580  0.6254
12001SOL    HW240561   6.688   5.217   0.865  1.8284  1.1745 -0.8361
12002SOL     OW40562   1.362  11.598  10.438 -0.9509 -0.4872 -0.0619
12002SOL    HW140563   1.397  11.675  10.483 -0.8611 -0.2674 -0.5012
12002SOL    HW240564   1.410  11.595  10.355 -0.6188 -1.2901  0.1537
12003SOL     OW40565   7.182   3.656   9.604  0.0190 -1.2204  0.7016
12003SOL    HW140566   7.184   3.668   9.699  1.1637  0.9968  0.4650
12003SOL    HW240567   7.173   3.745   9.569 -3.0026 -2.1253 -1.2635
12004SOL     OW40568  10.555   9.534   7.439 -0.6108 -0.0684  0.0281
12004SOL    HW140569  10.498   9.585   7.495  0.8968  0.8857  0.7681
12004SOL    HW240570  10.643   9.548   7.474  0.0222 -2.1413 -0.5514
12005SOL     OW40571   4.571   8.904   5.177  0.1237  0.1834 -0.4132
12005SOL    HW140572   4.484   8.864   5.185  0.3499 -0.1263  0.6739
12005SOL    HW240573   4.553   8.994   5.151 -0.7134  0.9221  2.4091
12006SOL     OW40574   3.952   8.070   2.064 -0.1328  0.0115  0.7854
12006SOL    HW140575   3.905   8.052   2.145 -2.2908 -1.4529 -0.6952
12006SOL    HW240576   3.967   7.984   2.024  0.3923  0.7119 -0.6156
12007SOL     OW40577   9.072  10.210  11.351  0.2871  0.2148  0.0880
12007SOL    HW140578   9.086  10.293  11.304 -3.4368  1.9636  1.6651
12007SOL    HW240579   9.017  10.234  11.426  1.4002 -3.3133  2.2372
12008SOL     OW40580  11.301   6.621   0.508 -0.2932 -0.5387  0.7399
12008SOL    HW140581  11.277   6.568   0.432 -1.1241 -0.0587  0.6635
12008SOL    HW240582  11.394   6.602   0.521  0.2832  0.5538 -1.3582
12009SOL     OW40583   1.114   4.686   9.006 -0.4474 -0.2123 -0.9134
12009SOL    HW140584   1.143   4.772   8.974  0.0010 -0.5829 -1.5121
12009SOL    HW240585   1.089   4.702   9.097  2.1018  0.0502 -0.1835
12010SOL     OW40586  10.610   9.802   1.061 -0.5102 -0.3078  0.2408
12010SOL    HW140587  10.516   9.792   1.045 -0.3112  1.0287 -2.2809
12010SOL    HW240588  10.619   9.891   1.097 -0.2002 -0.3346  0.2320
12011SOL     OW40589   7.273   8.221  10.872 -0.3959 -0.1342  0.0173
12011SOL    HW140590   7.215   8.145  10.872 -0.3271 -0.1878  0.5665
12011SOL    HW240591   7.224   8.288  10.920 -1.4144  0.9171 -2.2910
12012SOL     OW40592  11.980   4.123   9.943  0.9847 -0.0098 -0.1884
12012SOL    HW140593  11.976   4.126  10.039  0.9861  2.2791 -0.2226
12012SOL    HW240594  11.924   4.048   9.920 -1.6027  1.2655  1.4817
12013SOL     OW40595   6.464  10.583   5.522  0.2121  0.4675  0.6846
12013SOL    HW140596   6.458  10.502   5.471 -1.2405  0.9431  0.0142
12013SOL    HW240597   6.535  10.632   5.481  0.3135  0.0244  0.3235
12014SOL     OW40598   5.746   9.075   0.718 -0.1257  0.3899  0.0092
12014SOL    HW140599   5.660   9.100   0.754  0.3368  0.5536  1.0403
12014SOL    HW240600   5.741   9.098   0.626 -0.9512  1.0514  0.2083
12015SOL     OW40601   4.282   9.038   6.691 -0.3429 -0.5840 -0.4952
12015SOL    HW140602   4.246   9.059   6.777  0.0313  0.6341 -0.6101
12015SOL    HW240603   4.216   9.070   6.629  0.6139  1.1334 -0.6929
12016SOL     OW40604   4.331   4.582   8.314 -0.0132 -0.3771 -0.2488
12016SOL    HW140605   4.382   4.599   8.234  1.1015  0.0814  0.5376
12016SOL    HW240606   4.377   4.509   8.356 -1.8588 -2.1042 -1.0829
12017SOL     OW40607   8.762   9.037   6.951 -0.6018  0.2034 -0.0009
12017SOL    HW140608   8.781   8.943   6.956  0.4205  0.3864 -0.2609
12017SOL    HW240609   8.767   9.067   7.042 -0.2404  0.1267  0.0081
12018SOL     OW40610  10.322   1.805   9.592  0.6437 -0.0472  0.2722
12018SOL    HW140611  10.387   1.874   9.586 -0.8190  1.3967  0.4736
12018SOL    HW240612  10.281   1.818   9.678 -0.1512 -0.7012  0.0061
12019SOL     OW40613  11.900   8.046   8.572  0.0952 -0.7596  0.9653
12019SOL    HW140614  11.859   7.960   8.584  0.7901 -1.5762 -1.8785
12019SOL    HW240615  11.994   8.027   8.565  0.2278  0.1883 -0.0361
12020SOL     OW40616   6.102   6.981   5.609  0.7208  0.1096  0.2683
12020SOL    HW140617   6.047   6.994   5.686  2.2272 -1.0403  1.6043
12020SOL    HW240618   6.040   6.973   5.536 -0.6762  2.9882  1.0153
12021SOL     OW40619   8.521   3.403   5.323 -0.3243 -0.0353  0.4542
12021SOL    HW140620   8.469   3.428   5.399 -0.2205  0.7320  0.2798
12021SOL    HW240621   8.462   3.417   5.248 -0.3283 -0.4952  0.3713
12022SOL     OW40622   1.852   6.771   6.023  0.2598 -0.5231  0.1454
12022SOL    HW140623   1.838   6.838   5.956 -0.7044  0.1900  1.0217
12022SOL    HW240624   1.940   6.738   6.006  0.5297  0.5621 -0.6683
12023SOL     OW40625  10.212   6.189  10.345  0.0079 -0.6042 -0.1830
12023SOL    HW140626  10.199   6.276  10.305 -1.4251  0.1221  1.7566
12023SOL    HW240627  10.124   6.152  10.352  0.3282 -1.1141  1.3865
12024SOL     OW40628   8.889  10.832  10.542  0.2776  0.1668 -0.1951
12024SOL    HW140629   8.877  10.909  10.487  0.1316  0.4052  0.1700
12024SOL    HW240630   8.965  10.853  10.597 -0.3133  0.4131  0.5304
12025SOL     OW40631   8.769   5.348   2.752  0.7893 -0.1515 -0.1761
12025SOL    HW140632   8.847   5.388   2.712  0.4677  1.2475  0.5249
12025SOL    HW240633   8.745   5.408   2.822 -1.7880  0.2343 -1.2866
12026SOL     OW40634   7.046   1.246   9.404 -0.3451  0.1251 -0.0017
12026SOL    HW140635   7.103   1.292   9.341 -1.5180  0.0205 -1.1809
12026SOL    HW240636   6.965   1.298   9.405 -0.6856 -0.4102  0.7123
12027SOL     OW40637   0.455   5.663   9.611  0.2169  0.5759  0.3200
12027SOL    HW140638   0.520   5.653   9.541  0.5715  1.9180  0.4250
12027SOL    HW240639   0.405   5.581   9.610  1.7283 -0.3726  0.0561
12028SOL     OW40640   6.553   0.315   1.942 -0.1854  0.2738  0.2955
12028SOL    HW140641   6.476   0.260   1.933  0.8114 -1.5853  2.2537
12028SOL    HW240642   6.625   0.262   1.910  0.7564  0.5223  1.8751
12029SOL     OW40643   3.161  11.471   1.462 -0.0645 -0.1232  0.4807
12029SOL    HW140644   3.098  11.490   1.392  0.8438  0.4874 -0.1894
12029SOL    HW240645   3.109  11.474   1.542 -0.8755  0.4291 -0.0520
12030SOL     OW40646  10.888   5.238   7.621 -0.1071  0.4725  0.0906
12030SOL    HW140647  10.884   5.155   7.669  1.7912 -0.5492 -1.3890
12030SOL    HW240648  10.979   5.245   7.593 -0.4923  2.5050 -0.8056
12031SOL     OW40649   2.251  10.629   8.693  0.3123  0.0840  0.5270
12031SOL    HW140650   2.193  10.693   8.735 -0.7967 -1.2219  1.0673
12031SOL    HW240651   2.217  10.621   8.604 -0.8659 -1.2397  1.0646
12032SOL     OW40652  12.020   1.174   0.305  0.5105 -0.0643  0.4408
12032SOL    HW140653  12.104   1.175   0.352  0.9967  0.2953 -0.4044
12032SOL    HW240654  11.989   1.264   0.309  0.0159 -0.2593  1.0066
12033SOL     OW40655   7.077   0.248   9.554 -0.0931 -0.0633 -0.0043
12033SOL    HW140656   7.035   0.296   9.483 -2.0978 -0.8400  0.5617
12033SOL    HW240657   7.007   0.236   9.618  0.8379 -2.0420  0.7113
12034SOL     OW40658   4.466   3.543   8.482 -0.5744  0.0642 -0.0272
12034SOL    HW140659   4.549   3.557   8.528 -1.8310  0.7442  2.1873
12034SOL    HW240660   4.479   3.461   8.434  1.4796  0.3499 -0.0750
12035SOL     OW40661  11.001   8.563  12.108 -0.2846 -0.4390 -0.5215
12035SOL    HW140662  10.954   8.626  12.162 -0.6510 -0.4254 -0.8497
12035SOL    HW240663  11.004   8.483  12.162  2.4099  0.5405  0.9663
12036SOL     OW40664   4.892   3.807   4.942 -0.1066  0.2176 -0.1475
12036SOL    HW140665   4.912   3.814   5.035  0.3183 -1.9356 -0.0350
12036SOL    HW240666   4.823   3.742   4.937  0.3052 -0.1572 -1.3927
12037SOL     OW40667   5.016   0.714  10.901  0.2783 -0.0681 -0.1977
12037SOL    HW140668   4.933   0.717  10.948  0.4030  0.3509 -0.0014
12037SOL    HW240669   5.039   0.621  10.898 -0.6112 -0.2719 -0.9865
12038SOL     OW40670   9.234   4.882   1.928  0.1106 -0.1356 -0.7012
12038SOL    HW140671   9.177   4.946   1.885  0.1922  1.5714  1.5331
12038SOL    HW240672   9.182   4.848   2.001  0.3449 -2.1287 -1.3995
12039SOL     OW40673   8.015   8.166   8.285 -0.1826  0.0011  0.6688
12039SOL    HW140674   7.934   8.165   8.234  0.1185 -0.6541  0.1887
12039SOL    HW240675   8.025   8.075   8.315 -0.1140  0.2771  1.5069
12040SOL     OW40676   1.759   8.826   2.606  0.0527  0.3717  0.0180
12040SOL    HW140677   1.749   8.899   2.545  1.3451 -0.0421 -0.7301
12040SOL    HW240678   1.841   8.844   2.652  0.8662 -1.0283 -0.8088
12041SOL     OW40679   4.945   8.417   7.126  0.0695 -0.1946 -0.1593
12041SOL    HW140680   4.973   8.326   7.142 -0.8433 -0.1524  1.9409
12041SOL    HW240681   4.928   8.420   7.032  0.3796 -2.1297 -0.3251
12042SOL     OW40682   3.496  11.713   8.343  0.1351 -0.1074 -0.0246
12042SOL    HW140683   3.468  11.734   8.432  0.5360  0.7139 -0.0798
12042SOL    HW240684   3.414  11.703   8.294 -0.0795  0.1597  0.2735
12043SOL     OW40685   6.922   7.576   4.201 -0.0590 -0.1345  0.3012
12043SOL    HW140686   6.964   7.519   4.136 -1.1158 -0.0400 -0.4850
12043SOL    HW240687   6.841   7.605   4.159  0.8589  2.7541  0.2478
12044SOL     OW40688   1.831   7.970   0.449 -0.5718  0.3063  0.4009
12044SOL    HW140689   1.852   8.038   0.386 -0.4516  2.9943  3.0939
12044SOL    HW240690   1.736   7.975   0.458 -0.5602  0.1479  0.6181
12045SOL     OW40691   8.652   9.310   5.034  0.3972 -0.3257  0.0090
12045SOL    HW140692   8.711   9.358   4.976  0.2560  0.1782  0.2764
12045SOL    HW240693   8.645   9.223   4.995  0.0920  0.0848 -0.8881
12046SOL     OW40694  11.421   3.462   6.936  0.0866  0.5089  0.2133
12046SOL    HW140695  11.433   3.542   6.886  0.7990  0.3178  0.0692
12046SOL    HW240696  11.447   3.392   6.876 -0.5977  0.1625  0.3100
12047SOL     OW40697   3.745   1.358   7.876  0.0357  0.0560 -0.2387
12047SOL    HW140698   3.740   1.426   7.809  0.2058 -0.6975 -1.0335
12047SOL    HW240699   3.667   1.305   7.863 -0.9956  1.0491  1.4724
12048SOL     OW40700   6.622   7.006   6.717  0.5437  0.3231 -0.1407
12048SOL    HW140701   6.680   7.032   6.789 -0.6426  1.9550  0.2771
12048SOL    HW240702   6.653   7.056   6.642  1.3669 -0.8903 -0.6511
12049SOL     OW40703   4.892   2.624  12.111  0.0442  0.3227  0.2496
12049SOL    HW140704   4.876   2.532  12.089 -0.9599  0.4351  0.4655
12049SOL    HW240705   4.863   2.632  12.202 -0.5369  1.0040  0.0153
12050SOL     OW40706   0.691   3.760   3.730 -0.7316 -0.2172  0.3196
12050SOL    HW140707   0.605   3.720   3.722 -0.3623 -0.6342 -2.3775
12050SOL    HW240708   0.750   3.687   3.751 -0.6160 -0.4869 -0.8760
12051SOL     OW40709   9.605   6.500   0.760  0.3971 -0.5569  0.1269
12051SOL    HW140710   9.632   6.571   0.819  0.0935 -0.9018  0.6928
12051SOL    HW240711   9.593   6.425   0.818  1.1329 -1.1890 -0.5291
12052SOL     OW40712   4.216  11.677   8.257  0.1385 -0.2767 -0.0519
12052SOL    HW140713   4.228  11.684   8.352  2.3364 -2.9137 -0.0383
12052SOL    HW240714   4.159  11.751   8.235 -0.5293  0.3668  3.3065
12053SOL     OW40715   9.185   9.594   5.471 -0.2986 -0.2456  0.1841
12053SOL    HW140716   9.152   9.638   5.550 -1.5948 -1.7793  0.5727
12053SOL    HW240717   9.107   9.556   5.431  0.5934 -1.0961 -0.8065
12054SOL     OW40718   6.271  11.627   9.220  0.7030  0.1790  0.5897
12054SOL    HW140719   6.310  11.661   9.300  0.1876 -1.6526  1.6671
12054SOL    HW240720   6.345  11.622   9.158  1.7694 -1.1263  1.8941
12055SOL     OW40721   8.967   8.688   5.046 -0.5081  0.4019 -0.0008
12055SOL    HW140722   9.061   8.680   5.028 -0.4633  1.6030 -0.3576
12055SOL    HW240723   8.951   8.782   5.048 -2.3346  0.3455 -3.5428
12056SOL     OW40724   0.841   2.584   2.108 -0.1663  0.3193 -0.7675
12056SOL    HW140725   0.810   2.546   2.190 -0.4101  1.0850 -0.4948
12056SOL    HW240726   0.910   2.646   2.134  1.1978 -0.9203 -1.3210
12057SOL     OW40727   4.930  11.742   1.808  0.2121  0.5408 -0.5564
12057SOL    HW140728   4.894  11.812   1.753 -1.6038 -0.8385 -1.1990
12057SOL    HW240729   4.989  11.694   1.750 -0.8919 -0.2747 -1.0343
12058SOL     OW40730  10.776   0.946   3.313 -0.1759  0.2748  0.4471
12058SOL    HW140731  10.826   1.026   3.296  0.8501 -0.1334  1.3764
12058SOL    HW240732  10.777   0.898   3.230  1.8371 -0.1621  0.6653
12059SOL     OW40733   1.387   7.776   2.272  0.2514 -0.3111 -0.0083
12059SOL    HW140734   1.388   7.695   2.221  2.7288 -0.1672 -0.3217
12059SOL    HW240735   1.295   7.790   2.294 -0.2632 -3.1507 -0.0225
12060SOL     OW40736   5.903   6.335   6.722  0.1567 -0.4260 -0.1330
12060SOL    HW140737   5.871   6.313   6.635  2.0715 -0.3159 -0.9152
12060SOL    HW240738   5.925   6.250   6.761 -1.1860 -0.5171  0.4784
12061SOL     OW40739   6.517   1.103   5.851  0.4452 -0.4716  0.1730
12061SOL    HW140740   6.549   1.049   5.779  0.8291 -0.5586  0.4047
12061SOL    HW240741   6.528   1.193   5.822  2.3974 -0.4544  0.8637
12062SOL     OW40742   2.826  11.656   6.772 -0.2400 -0.0435 -0.1436
12062SOL    HW140743   2.792  11.742   6.745  1.3733  0.5028 -0.5477
12062SOL    HW240744   2.752  11.615   6.817 -1.1081  1.4914 -0.0686
12063SOL     OW40745  11.414   8.057   1.652  0.3926 -0.6425  0.2971
12063SOL    HW140746  11.414   8.102   1.567  0.5156 -1.4027 -0.1104
12063SOL    HW240747  11.504   8.024   1.661  0.4310 -0.4039  0.8139
12064SOL     OW40748   4.938   3.678   0.073  0.1016  0.4741 -0.5890
12064SOL    HW140749   5.017   3.629   0.090  0.7903  1.6377 -0.3145
12064SOL    HW240750   4.892   3.681   0.157 -0.1653 -0.0529 -0.7090
12065SOL     OW40751   7.712  10.362   8.155 -0.1246 -0.2039  1.0128
12065SOL    HW140752   7.760  10.430   8.203 -0.3053 -0.7902  2.0373
12065SOL    HW240753   7.704  10.398   8.067  0.8755  0.5652  1.2070
12066SOL     OW40754   6.108   6.104   4.382 -0.4654 -0.2420  0.6321
12066SOL    HW140755   6.180   6.131   4.325 -0.8317  0.2626  0.4007
12066SOL    HW240756   6.151   6.075   4.463 -0.0386  0.8910  0.8315
12067SOL     OW40757   5.703   6.540   2.532  0.3099  0.6914 -0.3772
12067SOL    HW140758   5.661   6.624   2.513  1.4029  1.4164  0.3139
12067SOL    HW240759   5.632   6.476   2.524 -0.3239  1.5276 -1.9721
12068SOL     OW40760   2.444   8.123  11.613 -0.1626  0.5948  0.1269
12068SOL    HW140761   2.522   8.094  11.660 -0.6477 -0.4888  0.2949
12068SOL    HW240762   2.374   8.067  11.645 -0.4350 -0.5455 -2.2323
12069SOL     OW40763   9.562   1.475   5.602 -0.1762  0.3329 -0.8412
12069SOL    HW140764   9.603   1.539   5.543 -0.8677 -0.2494 -1.9867
12069SOL    HW240765   9.492   1.435   5.550 -1.0943  0.0848  0.5090
12070SOL     OW40766   7.473   6.459   9.140  0.4823 -0.6575 -0.0568
12070SOL    HW140767   7.423   6.385   9.175  1.0179 -1.6451 -1.3070
12070SOL    HW240768   7.553   6.420   9.105  0.9742  0.5809 -0.3742
12071SOL     OW40769   4.799   1.972   8.159  0.2243  0.6069 -0.5464
12071SOL    HW140770   4.775   1.997   8.070 -0.3583  0.5801 -0.4021
12071SOL    HW240771   4.892   1.993   8.166  0.5402 -0.3552 -1.5013
12072SOL     OW40772  10.660   9.346   8.904 -0.2565  0.4702  0.2474
12072SOL    HW140773  10.739   9.322   8.856 -0.9011  1.1827 -1.2269
12072SOL    HW240774  10.604   9.269   8.899 -1.1568  1.1814 -2.0100
12073SOL     OW40775   8.749   8.466   1.346 -0.0562  0.3164 -0.0195
12073SOL    HW140776   8.767   8.527   1.417 -1.4880 -0.0229  0.6556
12073SOL    HW240777   8.822   8.405   1.348  0.1787  0.6162  0.8146
12074SOL     OW40778   2.283  11.405   3.633  0.5910 -0.1542  0.0772
12074SOL    HW140779   2.372  11.399   3.599  1.6378  0.2475  2.5464
12074SOL    HW240780   2.264  11.317   3.666  0.3634 -0.0349  0.2693
12075SOL     OW40781  10.341   1.523   1.326  0.1521 -0.1096  0.3104
12075SOL    HW140782  10.259   1.569   1.307  1.2207  2.1371  0.7708
12075SOL    HW240783  10.360   1.475   1.245 -2.3356 -1.9407  0.7185
12076SOL     OW40784   9.304  12.087   2.627  0.1912 -0.2377 -0.2757
12076SOL    HW140785   9.209  12.090   2.636  0.1477  1.0633 -0.8985
12076SOL    HW240786   9.335  12.049   2.710 -0.8675 -0.9264 -0.1764
12077SOL     OW40787   9.884   2.614   2.568  0.0578 -0.6066  0.2141
12077SOL    HW140788   9.860   2.583   2.480  1.3360 -2.6813  0.5135
12077SOL    HW240789   9.952   2.680   2.552  2.5989 -3.1506 -0.4379
12078SOL     OW40790  11.212   6.431   7.112 -0.4993  0.4682 -0.0491
12078SOL    HW140791  11.213   6.365   7.043  0.3980 -1.4058  1.6508
12078SOL    HW240792  11.298   6.473   7.105  0.2588 -0.8468  0.8848
12079SOL     OW40793   5.706  10.341  10.514  0.4511 -0.1002 -0.2054
12079SOL    HW140794   5.736  10.257  10.480 -3.2368 -1.4497 -0.6144
12079SOL    HW240795   5.635  10.367  10.456 -0.7801  1.5737  1.8862
12080SOL     OW40796   6.954  11.426   4.666  0.0640  0.9774 -0.0664
12080SOL    HW140797   6.888  11.431   4.597 -0.5660 -0.5120  0.3687
12080SOL    HW240798   6.946  11.336   4.699  2.0720  0.8787  0.2470
12081SOL     OW40799  10.658   3.585   2.458  0.0519 -0.1473  0.2777
12081SOL    HW140800  10.583   3.645   2.453  0.5967  0.4622 -1.8713
12081SOL    HW240801  10.620   3.501   2.481 -1.0927  0.4611  0.6980
12082SOL     OW40802   1.005   1.884   1.155  0.6738 -0.1740 -0.6091
12082SOL    HW140803   1.004   1.790   1.139  2.2625 -0.7009  1.8255
12082SOL    HW240804   1.081   1.898   1.212  0.4833  2.5981 -0.8902
12083SOL     OW40805   0.615  11.677   2.556  0.3280 -0.0399 -0.2866
12083SOL    HW140806   0.591  11.585   2.547 -0.9510  0.1287  0.9964
12083SOL    HW240807   0.605  11.713   2.467  0.2240 -0.9901 -0.6725
12084SOL     OW40808   3.474   9.583   2.252 -0.1391 -0.2605  0.2599
12084SOL    HW140809   3.540   9.647   2.225 -0.0281 -0.6262 -0.3513
12084SOL    HW240810   3.434   9.554   2.169  1.0714 -2.3575  0.3620
12085SOL     OW40811   3.600   8.198  11.981 -0.1622  0.5960 -1.1862
12085SOL    HW140812   3.543   8.192  11.904 -0.5310 -0.4153 -0.8563
12085SOL    HW240813   3.551   8.154  12.050  0.7188  0.3559 -0.7016
12086SOL     OW40814   9.343  10.670   1.947  0.4187  0.0361  0.3540
12086SOL    HW140815   9.363  10.752   1.902 -1.1138 -0.0593 -0.5741
12086SOL    HW240816   9.267  10.691   2.002 -0.9705 -1.0699 -1.0389
12087SOL     OW40817   0.728   3.112   0.158  0.4654 -0.2289  0.3815
12087SOL    HW140818   0.650   3.164   0.137  0.9502 -0.0844 -1.1350
12087SOL    HW240819   0.729   3.109   0.254 -0.5253  1.0986  0.4631
12088SOL     OW40820   9.041   2.795  11.593 -0.0483 -0.3644 -0.4611
12088SOL    HW140821   9.104   2.797  11.521  2.0823 -1.3368  1.2640
12088SOL    HW240822   9.043   2.704  11.623 -1.3310 -0.1050  0.4853
12089SOL     OW40823   2.096   8.653   5.789  0.4749 -0.7578 -0.4357
12089SOL    HW140824   2.002   8.643   5.799  0.6167 -1.3240  0.4866
12089SOL    HW240825   2.108   8.743   5.758 -0.2505  0.0687  1.4952
12090SOL     OW40826   0.268   7.371   2.738 -0.1175  0.0572 -0.0974
12090SOL    HW140827   0.243   7.284   2.767 -1.8732  0.2973 -0.7868
12090SOL    HW240828   0.190   7.424   2.750  0.8798  1.5359  0.2076
12091SOL     OW40829  10.420   4.971   3.000 -0.8353 -0.1602 -0.1440
12091SOL    HW140830  10.423   4.921   3.082 -0.3587 -0.2527 -0.2095
12091SOL    HW240831  10.492   5.034   3.009  0.9777 -1.8704 -1.5436
12092SOL     OW40832   3.770   4.610   5.402  0.4765 -0.1661  0.6454
12092SOL    HW140833   3.805   4.526   5.433 -0.3823 -1.3539 -1.4302
12092SOL    HW240834   3.845   4.669   5.407  2.1296 -1.9497 -1.1030
12093SOL     OW40835   3.410   8.766   2.444 -0.0690  0.0663 -0.8396
12093SOL    HW140836   3.407   8.861   2.454 -0.9245 -0.0901  0.7409
12093SOL    HW240837   3.411   8.752   2.350  0.4967  1.6458 -1.0997
12094SOL     OW40838   4.205   1.631   5.343  0.0369 -0.2948 -0.2820
12094SOL    HW140839   4.294   1.596   5.354  2.0013  3.7988 -1.1795
12094SOL    HW240840   4.185   1.616   5.251  0.1275 -0.5372 -0.2639
12095SOL     OW40841   5.185  11.514   8.550  0.1485  0.3813  0.1852
12095SOL    HW140842   5.114  11.463   8.591 -0.1661  1.2669  0.8038
12095SOL    HW240843   5.246  11.531   8.622  0.5993  0.2875 -0.1726
12096SOL     OW40844   9.825   1.817   6.518 -0.4988 -0.0663 -0.3475
12096SOL    HW140845   9.841   1.909   6.495 -0.9723 -0.1870 -1.1883
12096SOL    HW240846   9.865   1.768   6.446 -2.8486 -0.4298 -1.4989
12097SOL     OW40847   7.278   6.200   8.621  0.1853 -0.2292 -0.2145
12097SOL    HW140848   7.333   6.251   8.561 -1.1538  1.6013  0.0194
12097SOL    HW240849   7.210   6.163   8.565  0.0366 -0.1228 -0.1051
12098SOL     OW40850   2.590   0.518  10.604  0.2070  0.0227  0.4408
12098SOL    HW140851   2.652   0.585  10.633  0.7267 -1.3646  2.8366
12098SOL    HW240852   2.525   0.513  10.674 -1.9392  0.5062 -1.3960
12099SOL     OW40853   1.689   8.358   6.563 -0.0824 -0.5864  0.2875
12099SOL    HW140854   1.621   8.301   6.527 -0.4397  0.9906 -1.7168
12099SOL    HW240855   1.757   8.359   6.496 -0.7528  2.4327 -0.5066
12100SOL     OW40856   1.905   8.936   9.966  0.1818  0.1336 -0.2665
12100SOL    HW140857   1.828   8.885   9.993  1.6639 -1.9709  0.2722
12100SOL    HW240858   1.943   8.967  10.048  1.3736 -1.1932 -0.2680
12101SOL     OW40859   1.769   7.391  10.971  0.1476 -0.1100 -0.3504
12101SOL    HW140860   1.859   7.360  10.984 -0.0351  0.1709  2.0199
12101SOL    HW240861   1.751   7.374  10.878  2.3037 -1.0301 -0.6642
12102SOL     OW40862  10.324   0.533   8.128 -0.0169  0.4195  0.4861
12102SOL    HW140863  10.235   0.555   8.155  0.3511  1.4486  0.9092
12102SOL    HW240864  10.381   0.586   8.185  0.8475  0.2944 -0.2304
12103SOL     OW40865   8.074   2.940   2.357 -0.3852  0.0260  0.0345
12103SOL    HW140866   8.131   2.863   2.363 -0.3318  0.0333 -0.3548
12103SOL    HW240867   8.126   3.005   2.311 -0.3193  0.4063  0.6380
12104SOL     OW40868   5.227  11.361   6.444 -0.2869  0.4634 -0.2768
12104SOL    HW140869   5.158  11.423   6.469 -2.2927 -1.5795 -0.4896
12104SOL    HW240870   5.221  11.355   6.349  1.0411  1.1294 -0.4381
12105SOL     OW40871   0.508   7.147  10.906  0.0531  0.1803  0.0116
12105SOL    HW140872   0.517   7.223  10.848 -0.6279  0.5637  0.3965
12105SOL    HW240873   0.592   7.142  10.952 -0.4003  1.6474  1.0989
12106SOL     OW40874   8.279   5.266   7.712 -0.2234 -0.2706  0.4675
12106SOL    HW140875   8.369   5.233   7.701 -0.1296 -0.1944  0.9819
12106SOL    HW240876   8.251   5.289   7.623  0.6895  0.8182  0.4413
12107SOL     OW40877   1.416   3.261   1.947 -0.2383  0.3014  0.3740
12107SOL    HW140878   1.348   3.194   1.945  1.1148 -1.3403  3.5897
12107SOL    HW240879   1.367   3.343   1.958 -1.8291 -0.2582 -1.8680
12108SOL     OW40880  10.344   2.785   0.681 -0.6356  0.3517 -0.4926
12108SOL    HW140881  10.352   2.690   0.691  0.0739  0.3303 -1.1501
12108SOL    HW240882  10.426   2.820   0.718 -1.7011  0.8657  1.5237
12109SOL     OW40883   1.139   1.847   5.318 -0.6440  0.5851  0.2251
12109SOL    HW140884   1.126   1.941   5.308 -1.3094  0.6849  1.7403
12109SOL    HW240885   1.233   1.837   5.335 -0.8829  1.2321  2.2049
12110SOL     OW40886   6.562   6.041  11.691  0.6974 -0.4202  0.4391
12110SOL    HW140887   6.645   6.070  11.728  0.3969  0.2217  0.6392
12110SOL    HW240888   6.497   6.102  11.728  0.1758 -0.7617  0.1007
12111SOL     OW40889   7.719   7.040   8.654  0.1855 -0.1116 -0.0650
12111SOL    HW140890   7.704   6.966   8.713  0.7819 -0.1832  0.0034
12111SOL    HW240891   7.811   7.063   8.668 -0.1260  0.9806  0.3090
12112SOL     OW40892  11.708   5.735   3.292  0.1338 -0.8528 -0.2181
12112SOL    HW140893  11.710   5.675   3.218  2.6911 -0.3919 -0.6194
12112SOL    HW240894  11.643   5.801   3.269 -0.5716 -1.8448 -1.1143
12113SOL     OW40895   2.590   7.471   2.164 -0.2508 -0.0567  0.3032
12113SOL    HW140896   2.580   7.404   2.096  0.1562 -1.7788  1.8340
12113SOL    HW240897   2.678   7.506   2.151 -1.0941  1.5262 -1.5968
12114SOL     OW40898  11.400   5.231   9.136  0.0010  0.4695  0.5796
12114SOL    HW140899  11.341   5.202   9.066  1.0218  0.6563 -0.3869
12114SOL    HW240900  11.440   5.150   9.168  1.0236  0.5282 -0.4542
12115SOL     OW40901   8.077   0.132   2.162 -0.1625  0.3920  0.1820
12115SOL    HW140902   8.021   0.056   2.179 -0.4457  0.7518  0.9038
12115SOL    HW240903   8.032   0.205   2.203  1.5469  0.4299  2.2304
12116SOL     OW40904   9.286   3.268   8.303 -0.2262 -0.1060  0.4210
12116SOL    HW140905   9.217   3.248   8.240  0.6593 -0.2596 -0.5413
12116SOL    HW240906   9.271   3.360   8.327 -2.0600 -0.7541  1.9550
12117SOL     OW40907   3.592   7.893   3.833 -0.2045 -0.3960  0.0299
12117SOL    HW140908   3.609   7.926   3.745  0.1615 -1.3022 -0.2534
12117SOL    HW240909   3.612   7.800   3.828 -3.5733 -1.2571  0.1272
12118SOL     OW40910   2.917   7.648   7.562 -0.4168  0.3115 -0.3683
12118SOL    HW140911   2.924   7.652   7.658 -0.5172  0.8828 -0.3835
12118SOL    HW240912   2.971   7.720   7.531 -0.1754 -0.0371 -0.7531
12119SOL     OW40913  10.041   0.025  11.100  0.4092 -0.4343  0.3083
12119SOL    HW140914  10.059   0.076  11.179  0.3381 -0.7106  0.5087
12119SOL    HW240915  10.051   0.087  11.028  3.1580 -0.7616  0.3108
12120SOL     OW40916   0.129   3.780   4.332 -0.4396  0.2104  0.0809
12120SOL    HW140917   0.193   3.790   4.402  0.2642  0.1651 -0.5325
12120SOL    HW240918   0.048   3.818   4.367 -0.0776  0.2694  0.8717
12121SOL     OW40919   7.610   8.809   6.421 -0.4084 -0.9175 -0.6072
12121SOL    HW140920   7.700   8.841   6.434 -1.8418  2.7907  1.9399
12121SOL    HW240921   7.586   8.842   6.335  0.4323 -1.4688 -1.0764
12122SOL     OW40922   6.622  11.051   3.310 -0.4951 -0.2099 -0.0208
12122SOL    HW140923   6.587  11.115   3.248  1.8125  0.2877 -0.9140
12122SOL    HW240924   6.550  11.036   3.372 -1.8767  1.5058 -1.1000
12123SOL     OW40925   6.146   3.315   5.634  0.5534  0.3866  0.0596
12123SOL    HW140926   6.190   3.379   5.579  1.1718  1.1789  1.4347
12123SOL    HW240927   6.150   3.233   5.584 -0.1540  1.3700 -1.6690
12124SOL     OW40928  11.951   8.458   5.541  0.0911  0.1951  0.5246
12124SOL    HW140929  11.942   8.551   5.566 -0.0216  0.4601 -0.4618
12124SOL    HW240930  11.916   8.454   5.453 -0.2067 -0.8685  0.6820
12125SOL     OW40931   9.302   9.318   6.744 -0.2249  0.7325 -0.0570
12125SOL    HW140932   9.322   9.299   6.836 -2.5097 -0.9280  0.1845
12125SOL    HW240933   9.386   9.314   6.699  0.9280  1.4859  1.9224
12126SOL     OW40934   7.646   4.443  10.710  0.2371  0.2968  0.3836
12126SOL    HW140935   7.607   4.495  10.780  0.3449  0.4819  0.3078
12126SOL    HW240936   7.730   4.486  10.692  0.5397 -0.1748  0.6384
12127SOL     OW40937  11.126   4.999   5.286 -0.1654  0.1990  0.8104
12127SOL    HW140938  11.172   5.028   5.208  0.2592 -1.9186  0.2159
12127SOL    HW240939  11.156   4.909   5.300 -2.1836 -0.3691  1.8904
12128SOL     OW40940   3.813   4.532   6.994  0.5316  0.4355 -0.1333
12128SOL    HW140941   3.780   4.535   6.905 -1.5373  0.5597  0.5772
12128SOL    HW240942   3.905   4.557   6.987  0.3523  0.6739 -2.1743
12129SOL     OW40943   1.177   6.464   2.240 -0.5902  0.3967 -0.0171
12129SOL    HW140944   1.251   6.453   2.180 -0.3632  2.2700 -0.1555
12129SOL    HW240945   1.120   6.389   2.224  1.7012 -1.6573  0.7535
12130SOL     OW40946   4.192   2.848   7.432 -0.4342 -0.2837  0.4143
12130SOL    HW140947   4.238   2.928   7.456 -0.3253 -0.3633  0.4725
12130SOL    HW240948   4.188   2.850   7.336 -0.8051 -0.0005  0.4352
12131SOL     OW40949   2.243   7.972   1.551  0.1766  0.2962  0.3673
12131SOL    HW140950   2.328   7.957   1.511 -0.8466 -1.8135 -1.1905
12131SOL    HW240951   2.214   7.885   1.578 -1.0741  1.1066  1.7833
12132SOL     OW40952   9.860   4.708   4.806 -0.1943 -0.4449  0.7381
12132SOL    HW140953   9.804   4.685   4.731  1.9351 -1.0847 -0.7438
12132SOL    HW240954   9.938   4.653   4.795 -0.0438 -0.9872  3.7888
12133SOL     OW40955   9.457   8.764   7.198  0.6022 -0.2543 -0.6128
12133SOL    HW140956   9.407   8.844   7.181  1.3979  0.2639 -0.5721
12133SOL    HW240957   9.413   8.697   7.146 -0.2805  0.1328 -0.3778
12134SOL     OW40958  10.298   0.932   7.337  0.2124 -0.3205  0.1863
12134SOL    HW140959  10.238   0.874   7.384 -0.2198 -0.2237 -0.2430
12134SOL    HW240960  10.293   1.015   7.385 -0.8164  0.0157 -0.4677
12135SOL     OW40961   9.850   6.953   8.920  0.0518  0.3528 -0.1844
12135SOL    HW140962   9.844   7.031   8.864 -0.3335  0.3634 -0.1316
12135SOL    HW240963   9.810   6.981   9.003  2.5848  1.0616  0.9035
12136SOL     OW40964   5.920   9.369   9.082 -0.0016 -0.1455 -0.3909
12136SOL    HW140965   5.934   9.278   9.057  2.2152  0.4089 -1.4861
12136SOL    HW240966   5.836   9.393   9.043 -0.0061 -1.3783 -1.1638
12137SOL     OW40967   1.504   2.388   8.891 -0.1214  0.1069 -0.4038
12137SOL    HW140968   1.421   2.392   8.843 -0.5967 -2.7928  0.0227
12137SOL    HW240969   1.495   2.456   8.958 -0.5736  2.3298 -2.5731
12138SOL     OW40970   6.823   8.924   6.154  0.3776  0.3620  0.2224
12138SOL    HW140971   6.733   8.907   6.180 -0.0967  1.0458 -0.8768
12138SOL    HW240972   6.853   8.994   6.213 -0.9774  2.5280 -1.4965
12139SOL     OW40973  11.903   5.340   6.115 -0.0152  0.1070 -0.4854
12139SOL    HW140974  11.947   5.361   6.033 -0.5810  0.7789 -0.6246
12139SOL    HW240975  11.818   5.383   6.108  0.6437  1.8243  1.2602
12140SOL     OW40976  10.894   0.924   2.679 -0.1341  0.1276  0.6238
12140SOL    HW140977  10.974   0.950   2.631  0.4184 -2.7672 -0.2163
12140SOL    HW240978  10.927   0.881   2.758 -0.8042 -1.3426  0.1336
12141SOL     OW40979   8.802   8.900   0.274  0.4109 -0.3100  0.0746
12141SOL    HW140980   8.744   8.843   0.324  1.6939 -2.1893 -0.4620
12141SOL    HW240981   8.753   8.921   0.195  0.3468 -1.6895 -0.2789
12142SOL     OW40982  10.092   2.450  11.692 -0.7404  0.2105 -0.5667
12142SOL    HW140983  10.141   2.496  11.624  0.9531 -0.0127  0.4611
12142SOL    HW240984  10.000   2.462  11.667 -0.1849 -0.1766 -3.0864
12143SOL     OW40985  10.466   6.487   9.199 -0.1404 -0.1250 -0.1391
12143SOL    HW140986  10.486   6.577   9.172 -2.4924  0.6155  0.3618
12143SOL    HW240987  10.499   6.433   9.127  1.0631  1.1456 -0.5861
12144SOL     OW40988   2.134   4.461   2.138  0.1688 -0.0130  0.1252
12144SOL    HW140989   2.174   4.374   2.132  1.8341  0.7243 -0.0065
12144SOL    HW240990   2.113   4.484   2.047 -1.2333 -0.6730  0.2571
12145SOL     OW40991  11.720   7.237   9.319 -0.5740 -0.1026  0.3848
12145SOL    HW140992  11.680   7.319   9.291  1.5610  0.4252 -1.3357
12145SOL    HW240993  11.727   7.184   9.239 -0.5655 -1.3808  1.1932
12146SOL     OW40994   5.215  11.358   1.657 -0.2121  0.2578 -0.2444
12146SOL    HW140995   5.297  11.325   1.619  0.9631  0.4776  1.9689
12146SOL    HW240996   5.157  11.282   1.656  1.3372 -1.0649  1.6854
12147SOL     OW40997   0.208   4.403   4.588 -0.2449 -0.1496 -0.5835
12147SOL    HW140998   0.249   4.395   4.674  0.2236 -1.0805 -0.8787
12147SOL    HW240999   0.126   4.450   4.604 -0.6831 -1.2397  0.5460
12148SOL     OW41000   9.439  10.431   6.789 -0.3264  0.0189 -0.4965
12148SOL    HW141001   9.491  10.482   6.727 -0.9524  1.6987  0.2920
12148SOL    HW241002   9.383  10.377   6.734 -0.8268  1.4299 -1.4397
12149SOL     OW41003  11.504   7.180  11.640 -0.2450 -0.3779 -0.3103
12149SOL    HW141004  11.554   7.213  11.715 -0.8530 -1.4675  0.6097
12149SOL    HW241005  11.546   7.220  11.564  1.4348 -0.5196  0.4909
12150SOL     OW41006  10.300   6.009  10.972 -0.3552 -0.2985 -0.1905
12150SOL    HW141007  10.260   5.984  11.056  0.1340  1.5916  0.6510
12150SOL    HW241008  10.231   5.993  10.907 -1.2617 -0.3893  0.7691
12151SOL     OW41009   5.928  10.915   6.080  0.2998  0.2349  0.3716
12151SOL    HW141010   5.992  10.986   6.093 -0.9326  1.2325  1.2431
12151SOL    HW241011   5.863  10.929   6.149  0.4033 -2.2198  1.0721
12152SOL     OW41012   7.106   3.941  11.117  0.4552 -0.4978  0.4097
12152SOL    HW141013   7.194   3.921  11.086  0.3262 -0.9607  0.3391
12152SOL    HW241014   7.055   3.950  11.036 -0.0878 -2.6226  0.4595
12153SOL     OW41015  10.777   1.355  10.302 -0.0049  0.1326  0.3613
12153SOL    HW141016  10.740   1.343  10.215 -0.7293  0.2651  0.6473
12153SOL    HW241017  10.865   1.391  10.286  0.2165 -0.6997 -0.3307
12154SOL     OW41018   1.837   8.586   5.835  0.2858 -0.6941 -0.0787
12154SOL    HW141019   1.804   8.535   5.909 -1.0886 -0.4990 -0.5379
12154SOL    HW241020   1.772   8.655   5.822  0.5604 -0.6617 -1.4051
12155SOL     OW41021  11.144   4.509  10.429  0.1052 -0.0401 -0.0818
12155SOL    HW141022  11.182   4.491  10.514  0.8070 -2.7401 -0.8897
12155SOL    HW241023  11.171   4.436  10.374 -0.6267  1.4234 -2.5491
12156SOL     OW41024   7.591   7.884   1.440 -0.0114 -0.0009  0.0912
12156SOL    HW141025   7.572   7.976   1.460 -1.9556 -0.3191 -0.1341
12156SOL    HW241026   7.548   7.835   1.510  1.6223 -0.7486  0.6204
12157SOL     OW41027   9.625  10.648   8.372  0.0072  0.8745 -0.1529
12157SOL    HW141028   9.672  10.705   8.311 -0.2211 -0.2550 -1.4233
12157SOL    HW241029   9.693  10.618   8.433  0.9330 -0.4042 -1.7127
12158SOL     OW41030   0.022   1.667   6.382  0.2303  0.5800 -0.7059
12158SOL    HW141031   0.065   1.616   6.451 -1.6209 -1.5532 -0.9937
12158SOL    HW241032   0.071   1.749   6.379  2.4602 -0.5633  0.8447
12159SOL     OW41033   5.265   7.429   4.634 -0.1092  0.4608 -0.2809
12159SOL    HW141034   5.192   7.474   4.677 -1.0432 -0.7046 -0.5749
12159SOL    HW241035   5.332   7.496   4.623  0.0834  0.8695  2.7168
12160SOL     OW41036   5.211   1.317   2.430 -0.1423 -0.2497  0.6290
12160SOL    HW141037   5.198   1.229   2.396  1.9343 -0.5021  0.3334
12160SOL    HW241038   5.228   1.371   2.352  1.0045 -0.1043  0.9568
12161SOL     OW41039   4.391  12.115   9.840 -0.3171 -0.0439 -0.0977
12161SOL    HW141040   4.458  12.164   9.888  0.6126 -0.5586 -0.8404
12161SOL    HW241041   4.348  12.061   9.906 -0.3502  0.6669  0.4722
12162SOL     OW41042   4.265   7.578   9.343  0.0235 -0.0872  0.8693
12162SOL    HW141043   4.280   7.567   9.249 -0.4843  0.0922  0.7632
12162SOL    HW241044   4.242   7.491   9.374 -0.5618 -0.0100  0.6779
12163SOL     OW41045  11.126   8.367  11.286  0.3480  0.1454  0.0159
12163SOL    HW141046  11.111   8.372  11.381 -0.2794 -2.2616  0.1126
12163SOL    HW241047  11.044   8.397  11.248  0.7900  1.6459  0.1854
12164SOL     OW41048   0.682   0.512   2.743  0.4253 -0.1945 -0.2489
12164SOL    HW141049   0.741   0.563   2.688  0.3382  1.3636  1.0411
12164SOL    HW241050   0.715   0.422   2.736  0.8539  0.0756 -2.2131
12165SOL     OW41051   7.819   6.267   3.876  0.0441  0.1911  0.2633
12165SOL    HW141052   7.878   6.284   3.949  1.1559 -0.6027 -0.4197
12165SOL    HW241053   7.786   6.354   3.852  2.2724  0.9167 -0.4203
12166SOL     OW41054   6.314   6.872   4.854 -0.2926 -0.6694  0.5446
12166SOL    HW141055   6.383   6.901   4.794 -1.1658  1.9156  0.6605
12166SOL    HW241056   6.268   6.953   4.877 -3.0262 -2.2363  0.8970
12167SOL     OW41057   9.508   9.527   1.421  0.3199  0.0862  0.8144
12167SOL    HW141058   9.597   9.531   1.386  0.3336  2.6005  0.9570
12167SOL    HW241059   9.520   9.496   1.511  0.9615 -0.2830  0.6131
12168SOL     OW41060   7.130   2.596   5.010 -0.1605  0.0228  0.0882
12168SOL    HW141061   7.205   2.542   5.037 -0.8205 -0.4006  1.1275
12168SOL    HW241062   7.168   2.660   4.949  1.0096 -0.3011  0.4424
12169SOL     OW41063   5.055   0.041  10.108  0.5221  0.0838 -0.9522
12169SOL    HW141064   5.038   0.033  10.015  0.0244  1.8132 -1.0351
12169SOL    HW241065   5.142   0.081  10.113 -0.2503  1.8408 -0.7537
12170SOL     OW41066   8.877  10.116  11.082 -0.3838 -0.2872 -0.1155
12170SOL    HW141067   8.970  10.137  11.082 -0.6032  0.7434  0.3005
12170SOL    HW241068   8.870  10.042  11.142  0.0716  0.1233  0.4611
12171SOL     OW41069   6.618   7.151   8.392 -0.3720  0.0231 -0.9246
12171SOL    HW141070   6.602   7.209   8.317  1.0356  1.2082 -0.3529
12171SOL    HW241071   6.627   7.210   8.467 -0.4126 -1.0555 -0.0349
12172SOL     OW41072   0.677  10.756   5.125 -0.4970 -0.0508  0.1005
12172SOL    HW141073   0.657  10.783   5.215 -2.5792 -2.9936  0.6867
12172SOL    HW241074   0.770  10.772   5.115 -0.4577  1.5991  2.3042
12173SOL     OW41075   9.781  10.102   8.389  0.4872  0.4902  0.1640
12173SOL    HW141076   9.819  10.072   8.472  0.2519 -0.5752 -0.1061
12173SOL    HW241077   9.852  10.151   8.347  0.6014  1.0630  0.9977
12174SOL     OW41078   3.920   6.956   4.368 -0.1361  0.3544  0.3004
12174SOL    HW141079   3.876   7.039   4.347  0.5506  1.0412  1.5103
12174SOL    HW241080   3.927   6.956   4.463  0.9519 -0.5442  0.2268
12175SOL     OW41081   5.078  11.144  10.508  0.2147  0.0819  0.0103
12175SOL    HW141082   5.065  11.091  10.429  1.5619  0.0259 -0.2028
12175SOL    HW241083   5.000  11.127  10.561 -0.0482 -1.0021 -0.6819
12176SOL     OW41084  11.460   5.492  10.051  0.2833 -0.1586  0.1709
12176SOL    HW141085  11.417   5.570  10.085 -0.1507 -0.8682  1.2862
12176SOL    HW241086  11.552   5.503  10.075  0.0602 -0.4327  1.1873
12177SOL     OW41087   1.475   5.987   6.854 -0.6155  0.5309 -0.0810
12177SOL    HW141088   1.391   5.971   6.813  0.3152 -1.3764 -1.4029
12177SOL    HW241089   1.480   5.923   6.925  0.1824 -0.2126 -0.7832
12178SOL     OW41090   3.006   2.592   0.296 -0.0026 -0.2974 -0.1229
12178SOL    HW141091   2.949   2.520   0.272 -0.1298 -0.2168 -0.0626
12178SOL    HW241092   3.090   2.550   0.317  0.8232 -0.2098 -2.8249
12179SOL     OW41093   7.953   2.205   7.057 -0.6618  0.2293 -0.1160
12179SOL    HW141094   7.936   2.173   6.969 -0.4833 -2.3784  0.7271
12179SOL    HW241095   7.886   2.272   7.071  0.4623  2.1547 -2.8346
12180SOL     OW41096  10.593  10.341   2.967 -0.4463  0.2464 -0.1444
12180SOL    HW141097  10.566  10.413   3.024 -1.2229  0.1491 -0.3810
12180SOL    HW241098  10.567  10.368   2.879  2.3079  1.1944 -0.8027
12181SOL     OW41099   4.803   4.214   1.270  0.0481  0.3353 -0.0649
12181SOL    HW141100   4.711   4.206   1.244  0.4115 -1.3064 -1.0098
12181SOL    HW241101   4.842   4.270   1.204 -0.0598  0.1562 -0.2824
12182SOL     OW41102  10.364   1.370   7.378  0.0788  0.2277  0.0776
12182SOL    HW141103  10.414   1.383   7.297  3.7917  1.5389  2.3164
12182SOL    HW241104  10.415   1.305   7.427 -1.3127  0.4158  1.8699
12183SOL     OW41105   4.205   5.125   3.478 -0.1874 -0.0762 -0.5452
12183SOL    HW141106   4.281   5.102   3.531 -1.4225 -1.7115  0.5988
12183SOL    HW241107   4.173   5.042   3.443 -2.0635  0.4144 -0.1165
12184SOL     OW41108  10.371  11.259   7.262  0.3402 -0.0899 -0.1882
12184SOL    HW141109  10.285  11.289   7.234  0.8116  0.2903 -1.2893
12184SOL    HW241110  10.368  11.164   7.248 -0.1994 -0.2007  0.6385
12185SOL     OW41111  11.487   8.466   7.472  0.2193 -0.1977  0.6428
12185SOL    HW141112  11.394   8.450   7.457  0.1044 -0.0643  1.2221
12185SOL    HW241113  11.491   8.547   7.522  0.6692  0.0032  0.2939
12186SOL     OW41114  11.361   5.247   4.492  0.6798 -0.3862 -0.6092
12186SOL    HW141115  11.320   5.167   4.525  0.5807 -0.1372 -0.1185
12186SOL    HW241116  11.323   5.317   4.545  0.8788 -0.0288 -0.9338
12187SOL     OW41117   2.397  10.288   9.936  0.1560  0.2098 -0.1748
12187SOL    HW141118   2.402  10.352   9.866 -0.0907  0.8160  0.3574
12187SOL    HW241119   2.367  10.337  10.013 -2.5477 -0.9942 -0.3600
12188SOL     OW41120   0.454   8.397  11.044 -0.6678  0.0768  0.4835
12188SOL    HW141121   0.375   8.372  10.996 -0.5409 -0.8187  0.7360
12188SOL    HW241122   0.423   8.457  11.112 -0.8575  1.3459 -0.6761
12189SOL     OW41123   5.475   0.676   1.786  0.0732 -0.5591  0.4402
12189SOL    HW141124   5.460   0.664   1.880  1.6644 -1.0040  0.6654
12189SOL    HW241125   5.551   0.735   1.781  1.3073 -2.1586 -0.5195
12190SOL     OW41126   1.613  11.146   8.438  0.3567  0.3171  0.0233
12190SOL    HW141127   1.646  11.145   8.527  1.6267  0.9969 -0.4034
12190SOL    HW241128   1.691  11.130   8.384 -0.2119  0.8466 -0.9846
12191SOL     OW41129   8.343   4.321   6.214  0.2629 -0.3372 -0.0719
12191SOL    HW141130   8.370   4.398   6.264  1.7111 -1.9981  1.8574
12191SOL    HW241131   8.289   4.357   6.143  2.4771  2.6121 -0.4579
12192SOL     OW41132  11.378   0.911   3.530 -0.2091 -0.0793 -0.5414
12192SOL    HW141133  11.439   0.858   3.479 -0.8360 -0.5914 -0.7756
12192SOL    HW241134  11.431   0.984   3.563  1.1809 -1.9314  1.5473
12193SOL     OW41135   4.847   6.231   9.211 -1.3177 -0.4030 -0.0627
12193SOL    HW141136   4.841   6.186   9.127 -0.5842 -1.2579  0.3271
12193SOL    HW241137   4.818   6.166   9.275  0.2272 -0.5255  0.5609
12194SOL     OW41138   8.842   5.271   6.832 -0.0400  0.3492 -0.3255
12194SOL    HW141139   8.919   5.276   6.775  0.2367  0.9919  0.0969
12194SOL    HW241140   8.782   5.336   6.796  0.3971  1.2255  0.4914
12195SOL     OW41141   1.935   7.855   1.590  0.6259  0.2786 -0.8477
12195SOL    HW141142   2.014   7.801   1.602 -1.4440 -2.8363 -0.0317
12195SOL    HW241143   1.902   7.868   1.679 -0.8851 -0.3363 -1.2940
12196SOL     OW41144   0.218   0.731   5.612  0.1103  0.0591 -0.2581
12196SOL    HW141145   0.187   0.707   5.524  0.5528  0.5681 -0.5618
12196SOL    HW241146   0.249   0.821   5.602  2.5363 -0.6993 -0.2068
12197SOL     OW41147   8.467   6.836   1.464 -0.7446  0.1077  0.1594
12197SOL    HW141148   8.446   6.927   1.482 -0.3617 -0.0891  1.8665
12197SOL    HW241149   8.559   6.836   1.439 -0.5889  0.1626  0.7034
12198SOL     OW41150   4.068   3.847  11.347  0.7123 -0.3488 -0.6981
12198SOL    HW141151   4.120   3.769  11.326  0.3957 -0.7077 -0.2013
12198SOL    HW241152   4.125   3.921  11.325  1.8820 -0.7274  0.8562
12199SOL     OW41153  11.637   4.136   0.859  0.1542 -0.3676  0.3445
12199SOL    HW141154  11.719   4.099   0.826  0.2668  0.1310  0.0637
12199SOL    HW241155  11.569   4.079   0.822  0.4076 -1.3102  1.2797
12200SOL     OW41156   9.115   9.057   0.381  0.3909  0.1102 -0.2487
12200SOL    HW141157   9.171   9.007   0.322  0.9372 -0.6681  0.8932
12200SOL    HW241158   9.047   9.093   0.325  1.7519  0.6852 -1.6081
12201SOL     OW41159   6.380   4.516   3.089  0.6212 -0.1725 -0.1459
12201SOL    HW141160   6.404   4.506   3.181  1.8615  1.3329 -0.2696
12201SOL    HW241161   6.411   4.436   3.047  1.8435 -0.0073  0.4140
12202SOL     OW41162   3.886   6.073   3.710  0.0166  0.0781  0.0145
12202SOL    HW141163   3.940   6.046   3.785 -1.2803  1.1238  1.3951
12202SOL    HW241164   3.806   6.020   3.718 -0.5652  0.9397 -0.0070
12203SOL     OW41165   8.348   3.193   4.845 -0.0916  0.5321  0.4196
12203SOL    HW141166   8.338   3.171   4.752  0.9913  1.0867  0.1544
12203SOL    HW241167   8.329   3.286   4.850 -3.7209 -0.1336  1.3884
12204SOL     OW41168   1.408   8.305  10.284  0.0450  0.4076  0.3976
12204SOL    HW141169   1.418   8.244  10.357 -0.7018 -0.9054 -0.5490
12204SOL    HW241170   1.326   8.278  10.242 -0.2877  2.0574 -0.0776
12205SOL     OW41171  10.056  10.980  11.811 -0.2588  0.0326  0.4588
12205SOL    HW141172  10.132  10.929  11.842  0.1381  0.5764  0.3904
12205SOL    HW241173  10.087  11.071  11.810 -0.8896  0.2484  0.3524
12206SOL     OW41174   1.795   1.048   0.639  0.0244 -0.4248 -0.3124
12206SOL    HW141175   1.827   1.138   0.646  0.5989 -0.5791 -0.7467
12206SOL    HW241176   1.806   1.027   0.546 -1.3283 -0.5109 -0.4669
12207SOL     OW41177   8.193   0.685  10.071  0.2088 -0.1280  0.0807
12207SOL    HW141178   8.175   0.597  10.104 -0.5850  0.6668  1.9304
12207SOL    HW241179   8.285   0.701  10.094  0.6052 -0.7551 -1.0085
12208SOL     OW41180   8.485   8.299   0.277 -0.4822  0.0382  0.3610
12208SOL    HW141181   8.562   8.261   0.319 -0.9234 -1.2058  0.0932
12208SOL    HW241182   8.480   8.388   0.311  0.4626 -0.2121  1.1907
12209SOL     OW41183   8.977  10.320   8.622  0.1805 -0.1973  0.6192
12209SOL    HW141184   9.018  10.397   8.584  0.0499 -0.7818 -0.7341
12209SOL    HW241185   8.983  10.252   8.555 -1.3345 -0.8428  1.0773
12210SOL     OW41186   0.007   9.549   5.466 -0.1660  0.1607 -0.3263
12210SOL    HW141187   0.055   9.485   5.518  1.3938  1.9645  0.6004
12210SOL    HW241188   0.002   9.627   5.522 -2.0647  0.8566 -1.3628
12211SOL     OW41189   3.184   6.702   7.514 -0.5472 -0.2941 -0.2949
12211SOL    HW141190   3.154   6.681   7.426 -0.3755  0.2963 -0.4958
12211SOL    HW241191   3.103   6.704   7.567 -1.1839  3.0319 -1.1695
12212SOL     OW41192   4.826   9.829   8.288  0.1385  0.8757 -0.1382
12212SOL    HW141193   4.919   9.852   8.277  0.6201 -0.7510  0.3480
12212SOL    HW241194   4.826   9.736   8.309 -1.6896  0.5503 -1.3108
12213SOL     OW41195  12.005   2.010   2.786 -0.0041 -0.1171  0.1024
12213SOL    HW141196  11.966   1.961   2.714  0.5653  1.0189 -1.0241
12213SOL    HW241197  12.099   2.010   2.767  0.1117  0.5303  0.6147
12214SOL     OW41198   0.951   4.165   8.592 -0.3156  0.1410  0.3680
12214SOL    HW141199   0.890   4.189   8.522 -0.9682 -0.5132  0.7004
12214SOL    HW241200   0.900   4.108   8.650  0.9611 -1.4317  0.0129
12215SOL     OW41201   1.457   0.200   6.008  0.8199  0.3230  0.1408
12215SOL    HW141202   1.532   0.249   6.043  0.1525  0.3494  1.6015
12215SOL    HW241203   1.388   0.266   6.000  0.9508  0.3141 -1.2823
12216SOL     OW41204  11.927   1.073   3.288 -0.8114 -0.2393  0.5039
12216SOL    HW141205  11.878   1.118   3.356  0.6047 -0.5376  1.7677
12216SOL    HW241206  11.997   1.133   3.264  0.6084 -1.3593  1.6355
12217SOL     OW41207   3.420  11.158   2.896  0.4831  0.2351 -0.4367
12217SOL    HW141208   3.360  11.190   2.828  0.3450  1.0003  0.0351
12217SOL    HW241209   3.430  11.233   2.955 -2.5656 -1.4986  2.6540
12218SOL     OW41210   9.517   3.952   3.867 -0.3575  0.5095  0.5030
12218SOL    HW141211   9.541   4.026   3.923  0.6696  0.6319 -0.0817
12218SOL    HW241212   9.484   3.886   3.928  1.8507  0.1807  1.4222
12219SOL     OW41213   8.566   6.373   0.922  0.0453 -0.3964 -0.5693
12219SOL    HW141214   8.605   6.447   0.876  0.1794 -0.4687 -0.5728
12219SOL    HW241215   8.473   6.394   0.926  0.4930  2.0672  3.4862
12220SOL     OW41216  10.354   6.348   6.962  0.0660 -0.9312 -0.3116
12220SOL    HW141217  10.398   6.263   6.967 -0.1027 -0.9393  1.7064
12220SOL    HW241218  10.363   6.385   7.050 -0.2605  0.9530 -1.0269
12221SOL     OW41219   4.123   4.616   5.614 -0.7400 -0.1429  0.2152
12221SOL    HW141220   4.208   4.578   5.592 -0.5224  0.9139 -0.8723
12221SOL    HW241221   4.097   4.573   5.695  1.0412 -0.1488  0.8104
12222SOL     OW41222  12.005   9.020   7.363 -0.1031 -0.4857  0.7691
12222SOL    HW141223  11.962   8.951   7.313  1.8425  1.3633 -3.9971
12222SOL    HW241224  12.095   8.989   7.376 -0.1073 -0.1963  1.5661
12223SOL     OW41225  10.308   8.502   8.829 -0.1855  0.4612  0.1083
12223SOL    HW141226  10.359   8.445   8.886  0.2648 -1.6865 -2.2354
12223SOL    HW241227  10.359   8.582   8.824  0.2154  0.3699  1.9208
12224SOL     OW41228   4.796   5.359   3.200 -0.2802 -0.0494 -0.4276
12224SOL    HW141229   4.807   5.333   3.291 -0.1929 -1.6841 -0.8548
12224SOL    HW241230   4.733   5.431   3.202 -0.9329 -0.6158  0.8698
12225SOL     OW41231   7.272   5.917   7.421 -0.3825 -0.1450 -0.7146
12225SOL    HW141232   7.240   5.913   7.331  1.3055 -0.9955 -1.3119
12225SOL    HW241233   7.242   5.834   7.460  0.5646 -0.6733 -1.0957
12226SOL     OW41234  10.960   1.071   7.016  0.4106 -0.4058 -0.0926
12226SOL    HW141235  10.985   1.003   6.954  0.0340 -0.7686  0.1510
12226SOL    HW241236  10.967   1.152   6.966  0.7125 -0.6369 -0.4277
12227SOL     OW41237   5.638   8.216   0.882 -0.2865  0.4669  0.2079
12227SOL    HW141238   5.578   8.174   0.944 -0.4049 -0.8918 -0.7733
12227SOL    HW241239   5.614   8.309   0.885  0.5903  0.6944  3.1161
12228SOL     OW41240   0.799   3.543   8.914  0.8418 -0.2247 -0.4467
12228SOL    HW141241   0.752   3.608   8.862 -0.0007  0.2604  0.8717
12228SOL    HW241242   0.748   3.536   8.995  1.5830 -1.6573 -0.0757
12229SOL     OW41243   8.891  11.517   7.418  0.3015  0.1461 -0.2498
12229SOL    HW141244   8.879  11.607   7.388  3.0229  0.4002 -0.8246
12229SOL    HW241245   8.937  11.474   7.346  2.5928 -0.5737  1.5464
12230SOL     OW41246   4.028   1.396  10.016  0.1642 -0.0523 -0.3523
12230SOL    HW141247   4.101   1.456  10.002  0.2607  0.0304  0.4481
12230SOL    HW241248   3.950   1.451  10.008  0.2473  0.1626  0.2310
12231SOL     OW41249  10.762  11.143   9.917 -0.0782  0.1905  0.0323
12231SOL    HW141250  10.817  11.180   9.847  0.0717 -1.7118 -0.9427
12231SOL    HW241251  10.776  11.048   9.909 -2.2398 -0.2449  0.8349
12232SOL     OW41252   9.330   9.409   8.275 -0.2944 -0.2367  0.2722
12232SOL    HW141253   9.251   9.376   8.316 -0.9994  0.3164 -0.5997
12232SOL    HW241254   9.322   9.384   8.183 -0.3004  1.3020 -0.1749
12233SOL     OW41255   3.052   8.978   6.116 -0.4571  0.1222 -0.4024
12233SOL    HW141256   2.967   8.988   6.158 -0.0904  0.6718  0.2293
12233SOL    HW241257   3.113   8.967   6.189  0.2184  1.2525 -0.7808
12234SOL     OW41258   2.793   3.187   0.175  0.1502 -0.1369  0.6665
12234SOL    HW141259   2.843   3.129   0.118 -1.6813 -0.9110 -0.2347
12234SOL    HW241260   2.779   3.135   0.255  0.1373 -0.2094  0.6171
12235SOL     OW41261  11.141   8.693   3.863 -0.3197 -0.3333 -0.6810
12235SOL    HW141262  11.235   8.677   3.864 -0.1246  0.6608  1.2626
12235SOL    HW241263  11.103   8.607   3.843  0.9657 -0.8722 -0.9062
12236SOL     OW41264   3.055   1.035   5.675 -0.1474  0.0208  0.0352
12236SOL    HW141265   3.108   1.047   5.753 -1.4820 -0.9974  1.1635
12236SOL    HW241266   3.026   1.123   5.651 -2.2477  0.1486  2.6044
12237SOL     OW41267   6.273   6.976   9.893  0.4269  0.5040  0.1347
12237SOL    HW141268   6.286   6.979   9.987 -0.8417  0.1876  0.3458
12237SOL    HW241269   6.262   7.068   9.867  0.7143  0.5872  0.3071
12238SOL     OW41270   3.078  10.215  10.590 -0.0195 -0.0070  0.1974
12238SOL    HW141271   2.997  10.164  10.581 -1.8222  2.8530 -1.5054
12238SOL    HW241272   3.069  10.260  10.674  0.3526 -0.5469  0.5287
12239SOL     OW41273  11.555   3.055   6.455  0.2370  0.4418  0.0715
12239SOL    HW141274  11.501   3.134   6.448  0.2690  0.5961  1.3052
12239SOL    HW241275  11.627   3.080   6.513  1.6613  0.2387 -1.5332
12240SOL     OW41276  12.115   1.159   1.381  0.3223  0.1252  0.2918
12240SOL    HW141277  12.137   1.093   1.316  0.8623  0.5476  0.0398
12240SOL    HW241278  12.179   1.147   1.451  1.2008  1.1519 -0.3027
12241SOL     OW41279   2.062   2.624   7.680  0.0043  0.0329 -0.1484
12241SOL    HW141280   2.095   2.623   7.590  0.1514 -1.3298 -0.1067
12241SOL    HW241281   1.968   2.639   7.671 -0.0252 -0.3913 -0.5534
12242SOL     OW41282   2.467   2.959   7.793  0.7925  0.2512 -0.1056
12242SOL    HW141283   2.372   2.950   7.782  0.7898  0.4038 -0.2077
12242SOL    HW241284   2.476   3.011   7.873  0.8002 -0.2338  0.2160
12243SOL     OW41285   4.857  11.450  10.932 -0.2459 -0.0501  0.3577
12243SOL    HW141286   4.790  11.509  10.897  0.0992 -0.3137 -0.7579
12243SOL    HW241287   4.812  11.365  10.941 -0.1403 -0.1542 -0.1055
12244SOL     OW41288   9.549   5.840   5.166 -0.1146 -0.5292  0.2468
12244SOL    HW141289   9.516   5.873   5.083  1.2682  0.4612  0.0618
12244SOL    HW241290   9.596   5.760   5.144 -0.3935 -0.6839  0.2006
12245SOL     OW41291   4.591   2.623   7.267 -0.2470 -0.0197 -0.1125
12245SOL    HW141292   4.685   2.618   7.250 -0.2057 -2.4401  0.4677
12245SOL    HW241293   4.551   2.624   7.180  0.2868  0.6820 -0.3584
12246SOL     OW41294   4.435   0.669   3.007 -0.5159  0.1878  0.4029
12246SOL    HW141295   4.499   0.662   3.078  0.4579 -1.5350 -0.5934
12246SOL    HW241296   4.445   0.759   2.975  0.9930  0.1376  0.6579
12247SOL     OW41297   8.635   0.155   2.187  0.7751  0.1722  0.3224
12247SOL    HW141298   8.545   0.183   2.169  0.2353 -0.3229  1.9746
12247SOL    HW241299   8.625   0.069   2.229  1.8642  0.8502  2.1147
12248SOL     OW41300   8.063   1.299   4.732  0.0256  0.1782  0.6504
12248SOL    HW141301   8.066   1.357   4.655  0.2984  1.1814  1.4011
12248SOL    HW241302   8.101   1.217   4.701 -2.7630 -0.5736 -1.2138
12249SOL     OW41303  11.628   6.699   0.556 -0.4045 -0.3356  0.4205
12249SOL    HW141304  11.721   6.686   0.572 -0.7861 -1.0774  2.4023
12249SOL    HW241305  11.612   6.655   0.472  1.1197  0.4209 -0.3139
12250SOL     OW41306  11.702   5.395   0.836 -0.5248  0.1636 -0.3917
12250SOL    HW141307  11.721   5.403   0.743  1.2444  0.2744 -0.0664
12250SOL    HW241308  11.699   5.301   0.853  1.9290  0.0482 -0.1330
12251SOL     OW41309  10.446   2.306   7.350 -0.1343 -0.3299 -0.7417
12251SOL    HW141310  10.471   2.238   7.287  1.9215 -0.3380 -0.0112
12251SOL    HW241311  10.378   2.356   7.306  0.4472 -1.0320 -2.5312
12252SOL     OW41312   5.930   6.997   7.070 -0.0488 -0.5791 -0.2631
12252SOL    HW141313   5.948   7.089   7.090 -0.8249 -0.8426  1.9303
12252SOL    HW241314   5.984   6.978   6.994 -0.0998  1.7721 -0.9586
12253SOL     OW41315   5.841   7.935   1.763 -0.6032  0.0278 -0.6294
12253SOL    HW141316   5.750   7.908   1.746 -0.8912 -1.1915  2.3731
12253SOL    HW241317   5.892   7.887   1.698 -1.8217 -2.1141 -0.1032
12254SOL     OW41318   9.157   3.700   8.220 -0.1665 -0.1878 -0.0881
12254SOL    HW141319   9.251   3.682   8.222 -0.2505 -0.8732 -1.0945
12254SOL    HW241320   9.151   3.795   8.214  0.4547 -0.1199  0.2664
12255SOL     OW41321   1.543   8.772   2.153 -0.3601 -0.2372 -0.0688
12255SOL    HW141322   1.619   8.722   2.125  0.3469  0.1223  1.1556
12255SOL    HW241323   1.468   8.720   2.123  0.3541 -0.9580 -0.6401
12256SOL     OW41324   3.964   2.999   1.657  0.2738 -0.4323  0.3474
12256SOL    HW141325   3.903   2.955   1.597 -1.9395  1.4779  1.0656
12256SOL    HW241326   3.936   2.970   1.744 -0.0816  1.0104  0.7257
12257SOL     OW41327   8.839   5.883   3.480 -0.4698  0.1469 -0.2257
12257SOL    HW141328   8.838   5.879   3.385 -0.6622  2.5921 -0.3984
12257SOL    HW241329   8.755   5.922   3.504 -1.3518 -2.4108  1.1422
12258SOL     OW41330   9.288   6.361   4.200  0.2423  0.2556  0.6020
12258SOL    HW141331   9.245   6.320   4.275 -2.3823 -0.4833 -1.1271
12258SOL    HW241332   9.216   6.402   4.151  1.9043  1.1757 -1.2297
12259SOL     OW41333   1.984   2.181   9.967 -0.1661  0.2712  1.0141
12259SOL    HW141334   1.970   2.130   9.887  1.6698 -0.4527  1.1046
12259SOL    HW241335   2.075   2.211   9.960 -0.3420  1.1683  2.3028
12260SOL     OW41336   0.936   2.173   2.880 -0.2085 -0.1393 -0.3009
12260SOL    HW141337   0.958   2.160   2.788 -1.1100 -0.3544 -0.4994
12260SOL    HW241338   1.018   2.197   2.922  0.7508 -2.4050 -0.7132
12261SOL     OW41339   9.011  10.104   0.584  0.2604 -0.3606  0.2023
12261SOL    HW141340   8.999  10.086   0.677  2.3681  0.4679  0.7050
12261SOL    HW241341   8.925  10.131   0.553 -0.5684 -1.0287  1.8189
12262SOL     OW41342   2.539  12.007   1.321  0.1643  0.2198  0.0935
12262SOL    HW141343   2.601  11.991   1.250  0.9795  0.3120  0.7713
12262SOL    HW241344   2.564  11.945   1.389 -0.8545 -0.1321  0.1719
12263SOL     OW41345   3.269   1.335   4.224 -0.0672 -0.6499 -0.0309
12263SOL    HW141346   3.212   1.325   4.301  0.3654 -0.1067  0.3747
12263SOL    HW241347   3.354   1.357   4.261 -0.0085  0.2913 -0.6927
12264SOL     OW41348   4.860  10.766   5.752  0.2293  0.3068 -0.2848
12264SOL    HW141349   4.805  10.763   5.830 -1.1178  2.3076 -1.0897
12264SOL    HW241350   4.945  10.735   5.782 -0.2166  1.0843  2.0050
12265SOL     OW41351   5.649   4.571  11.492  0.0034 -0.2665  0.6688
12265SOL    HW141352   5.555   4.558  11.484  0.2962 -1.8226 -0.6374
12265SOL    HW241353   5.678   4.498  11.548  0.6230 -0.7273 -0.2322
12266SOL     OW41354   5.838   0.925   7.246  0.0865 -0.1415 -0.0377
12266SOL    HW141355   5.813   1.012   7.215  0.3549 -0.5694 -1.5298
12266SOL    HW241356   5.852   0.936   7.340  1.9846  1.8962 -0.4797
12267SOL     OW41357   6.619   5.315   0.290  1.2446  0.0671 -0.1589
12267SOL    HW141358   6.577   5.251   0.232  0.1241 -0.3044  1.0107
12267SOL    HW241359   6.638   5.266   0.370  1.0933  0.9970  0.4616
12268SOL     OW41360   2.572   4.651  10.747  0.0718  0.0234  0.3164
12268SOL    HW141361   2.533   4.564  10.742  0.9540 -0.3195 -1.0734
12268SOL    HW241362   2.664   4.638  10.724 -0.0349  1.4894 -1.1276
12269SOL     OW41363  10.628  10.996   6.025  0.3266 -0.7925 -0.0524
12269SOL    HW141364  10.677  10.980   6.106 -0.1268 -0.7179  0.2385
12269SOL    HW241365  10.694  10.988   5.956  0.8646 -0.1175  0.3727
12270SOL     OW41366   1.482   4.373   7.992  0.1162 -0.1163 -0.5903
12270SOL    HW141367   1.453   4.456   8.028  0.5682 -0.7130  1.2514
12270SOL    HW241368   1.505   4.320   8.069  2.5400 -0.9673 -1.8009
12271SOL     OW41369   9.539   8.856   3.895 -0.7791  0.3597  0.2218
12271SOL    HW141370   9.553   8.913   3.970 -0.4879 -0.7533  1.0363
12271SOL    HW241371   9.611   8.876   3.835  0.9055 -1.0225  1.6888
12272SOL     OW41372   8.087   9.899  10.240 -0.6034 -0.3010  0.2238
12272SOL    HW141373   8.172   9.916  10.199 -0.5583 -0.5653  0.2034
12272SOL    HW241374   8.098   9.814  10.284 -0.4327  0.2960  1.3707
12273SOL     OW41375   6.525   7.689  10.076  0.4388 -0.1695 -0.1515
12273SOL    HW141376   6.451   7.694  10.136  0.5646 -0.4643  0.0340
12273SOL    HW241377   6.517   7.603  10.035 -0.2568  0.4621 -1.3656
12274SOL     OW41378   1.906   9.842   0.683 -0.1683  0.3452  0.3562
12274SOL    HW141379   1.849   9.766   0.697 -0.6359  0.8757  1.3965
12274SOL    HW241380   1.987   9.820   0.728  0.2229 -0.1071 -0.5278
12275SOL     OW41381   2.745   6.869   8.354  0.5039  0.5891 -0.5999
12275SOL    HW141382   2.809   6.887   8.423 -0.8363  0.3415  0.7756
12275SOL    HW241383   2.693   6.949   8.348 -0.7088 -0.0979  0.2047
12276SOL     OW41384   6.103  10.402   2.019 -0.2348 -0.1099 -1.0372
12276SOL    HW141385   6.069  10.313   2.032  0.2484  0.1383  3.9172
12276SOL    HW241386   6.153  10.396   1.938  1.5267 -5.0842  0.0145
12277SOL     OW41387   4.670   2.265   1.195  1.0974 -0.1568 -0.0682
12277SOL    HW141388   4.606   2.214   1.244  1.2587 -0.4005 -0.1059
12277SOL    HW241389   4.676   2.348   1.242 -0.0559  0.2918 -0.7023
12278SOL     OW41390   5.463   0.569  12.037 -0.0715  0.7467  0.0617
12278SOL    HW141391   5.508   0.485  12.037 -2.2311 -0.4995 -0.6932
12278SOL    HW241392   5.386   0.555  11.982 -0.7721  3.0863  0.3167
12279SOL     OW41393   8.659  10.167   0.079 -0.6762  0.7020 -0.0912
12279SOL    HW141394   8.654  10.127  -0.008 -3.3421 -0.3685  0.4346
12279SOL    HW241395   8.750  10.195   0.088  0.4581 -1.9697 -1.9746
12280SOL     OW41396   2.654   9.496   2.373 -0.0536  0.4126  0.2562
12280SOL    HW141397   2.718   9.546   2.423 -1.3826  1.4210  1.0132
12280SOL    HW241398   2.574   9.499   2.426 -0.5336 -1.4780 -0.2764
12281SOL     OW41399  11.608   9.756  10.474 -0.1960  0.1097 -0.3630
12281SOL    HW141400  11.692   9.722  10.505 -0.3022 -0.3334 -0.5547
12281SOL    HW241401  11.609   9.849  10.498  0.5213  0.2048 -0.7230
12282SOL     OW41402   3.508   0.845   1.507 -0.3597  0.5031  0.3803
12282SOL    HW141403   3.527   0.936   1.528 -0.1387  0.3170  1.0082
12282SOL    HW241404   3.571   0.795   1.558  0.8224  0.0499 -1.4426
12283SOL     OW41405  10.904   9.544   6.966 -0.1894  0.0930  0.7231
12283SOL    HW141406  10.808   9.551   6.974 -0.0150  4.8958  1.4936
12283SOL    HW241407  10.923   9.576   6.878  0.7636  1.3973  1.3758
12284SOL     OW41408   3.481   2.976   8.551  0.4599  0.5211  0.5577
12284SOL    HW141409   3.429   2.996   8.630  1.6135 -0.2776  1.5554
12284SOL    HW241410   3.463   2.884   8.534  1.7582  0.1445  1.1020
12285SOL     OW41411   7.073   6.414   9.790 -0.1721 -0.4953  0.2138
12285SOL    HW141412   7.036   6.493   9.829 -1.3061 -0.8507 -0.0771
12285SOL    HW241413   7.001   6.378   9.738  0.3965 -1.5918  0.1608
12286SOL     OW41414  11.634   2.425   9.143 -0.2933 -0.3197  0.0019
12286SOL    HW141415  11.698   2.450   9.209 -0.0953 -0.1356 -0.2594
12286SOL    HW241416  11.615   2.333   9.162 -0.4828 -0.1804  0.5149
12287SOL     OW41417   8.432   2.101   4.169  0.3463  0.2477 -0.0464
12287SOL    HW141418   8.430   2.148   4.085 -2.1075  2.8432  1.2901
12287SOL    HW241419   8.352   2.049   4.168  0.1803  0.4776  0.7536
12288SOL     OW41420   8.102   9.762   4.855 -0.0669  0.1842  0.2588
12288SOL    HW141421   8.140   9.802   4.777 -0.8771 -0.0521 -0.2745
12288SOL    HW241422   8.177   9.733   4.907  0.5191  1.5942  0.2441
12289SOL     OW41423  11.601   8.744   2.069 -0.0521  0.0206 -0.1982
12289SOL    HW141424  11.600   8.814   2.003  1.0906 -0.2579 -0.5484
12289SOL    HW241425  11.522   8.757   2.120  0.0090  1.4234 -0.4251
12290SOL     OW41426   4.662   0.309  10.415  0.7472 -1.1354 -0.1788
12290SOL    HW141427   4.677   0.403  10.420  2.8579 -1.3245 -1.4823
12290SOL    HW241428   4.602   0.290  10.486 -0.8699  1.3866 -0.7558
12291SOL     OW41429   3.195   2.798   3.532 -0.2438 -0.1115  0.3574
12291SOL    HW141430   3.176   2.742   3.606 -0.2111 -0.3286  0.2034
12291SOL    HW241431   3.231   2.878   3.570 -0.5305 -0.0929  0.5902
12292SOL     OW41432   0.531   5.894   2.877 -0.1698 -0.1113  0.3931
12292SOL    HW141433   0.538   5.944   2.959 -0.0658 -0.7375  0.7675
12292SOL    HW241434   0.532   5.803   2.904  0.3568 -0.3358 -0.3485
12293SOL     OW41435  10.159   0.497  10.034  0.7391  0.4281 -0.7109
12293SOL    HW141436  10.093   0.449  10.085 -0.0119  0.4100 -1.6694
12293SOL    HW241437  10.130   0.588  10.037  1.0962  0.5382 -0.5076
12294SOL     OW41438   4.742   0.856   2.269  0.2330  0.6903  0.2209
12294SOL    HW141439   4.666   0.836   2.323 -0.8097  0.8984 -1.1392
12294SOL    HW241440   4.743   0.788   2.202  0.1752  1.7208 -0.8513
12295SOL     OW41441   4.959   3.579  10.337  0.1953  0.0371  0.6873
12295SOL    HW141442   4.938   3.492  10.372 -0.4240  0.1863  0.6910
12295SOL    HW241443   4.889   3.636  10.370 -0.0884  0.2971 -0.3129
12296SOL     OW41444  11.621   4.823   2.407  0.5207  0.1625  0.4546
12296SOL    HW141445  11.602   4.864   2.322  1.2833  1.0533  0.6887
12296SOL    HW241446  11.536   4.794   2.440  0.1612  0.2082 -0.4097
12297SOL     OW41447   6.031   2.919  11.447  0.2194 -0.3116  0.1985
12297SOL    HW141448   6.005   2.836  11.409  0.0410 -0.8707  1.4882
12297SOL    HW241449   6.126   2.911  11.461  0.1874 -0.3296  0.4041
12298SOL     OW41450   8.249  10.052   6.039 -0.2355 -0.3805 -0.1531
12298SOL    HW141451   8.192  10.000   5.982 -0.3068 -1.1179  0.5792
12298SOL    HW241452   8.205  10.051   6.124  1.5828 -2.2255  0.8397
12299SOL     OW41453   1.265   2.180   8.309  0.3822 -0.6477  0.1474
12299SOL    HW141454   1.181   2.226   8.306  1.2606  0.9468 -0.7960
12299SOL    HW241455   1.246   2.100   8.358 -1.0217  1.0528  2.5599
12300SOL     OW41456  11.713   6.662   0.853 -0.2303 -0.0351 -0.1867
12300SOL    HW141457  11.714   6.684   0.760  1.7601 -0.4270 -0.2909
12300SOL    HW241458  11.669   6.737   0.894 -0.3048  0.5769 -1.3280
12301SOL     OW41459  10.254   7.848   9.711  0.2341 -0.0978  0.3528
12301SOL    HW141460  10.279   7.823   9.622 -0.4805 -0.9101  0.3685
12301SOL    HW241461  10.211   7.933   9.702  0.2153 -0.1524 -0.0632
12302SOL     OW41462  10.881  10.529   0.627 -0.4426 -0.1635 -0.0119
12302SOL    HW141463  10.893  10.603   0.569 -0.2837  0.0652  0.3061
12302SOL    HW241464  10.956  10.472   0.609 -0.1330  0.1389  0.3070
12303SOL     OW41465   0.796   1.726  10.739  0.2524 -0.3402 -0.1448
12303SOL    HW141466   0.705   1.750  10.758  0.5036  0.6703 -0.1646
12303SOL    HW241467   0.804   1.636  10.770  0.0770  0.5312  2.7980
12304SOL     OW41468   3.302   2.677  10.668 -0.6436  0.3117  0.3206
12304SOL    HW141469   3.376   2.714  10.717 -0.3314 -0.4139  0.4185
12304SOL    HW241470   3.268   2.608  10.726  0.0075 -0.8673 -0.6342
12305SOL     OW41471   1.957   0.426   9.487  0.0870  0.5243  0.5363
12305SOL    HW141472   2.044   0.453   9.460 -0.6490  0.9905 -1.5870
12305SOL    HW241473   1.902   0.502   9.467 -0.7894  0.2921  1.9668
12306SOL     OW41474   4.771   3.483   8.918  0.0007  0.1464  0.0699
12306SOL    HW141475   4.866   3.489   8.926  0.7058 -0.2584 -4.6864
12306SOL    HW241476   4.752   3.390   8.928  0.3416  0.0395 -0.2321
12307SOL     OW41477   3.031   1.138   3.063  0.1131 -0.0607 -0.1897
12307SOL    HW141478   3.093   1.071   3.036 -0.1690 -0.8141  0.9583
12307SOL    HW241479   2.988   1.166   2.982  2.8706  1.4971 -1.2524
12308SOL     OW41480  11.777   1.689   5.506  0.8263 -0.2622 -0.3578
12308SOL    HW141481  11.708   1.756   5.506 -0.1103 -1.1591  1.2061
12308SOL    HW241482  11.843   1.722   5.445 -0.5810  1.0471 -1.2305
12309SOL     OW41483   3.390   8.610   9.035  0.3780 -0.1582 -0.5132
12309SOL    HW141484   3.458   8.640   8.974  1.3343 -1.7276 -0.2943
12309SOL    HW241485   3.322   8.573   8.979  0.3266  0.2118 -0.6957
12310SOL     OW41486   6.475   9.144   7.653  0.1576  0.3739 -0.6957
12310SOL    HW141487   6.450   9.122   7.743 -2.1224  0.2445 -1.3090
12310SOL    HW241488   6.469   9.061   7.605  2.6516  0.1476 -0.7911
12311SOL     OW41489  10.453  10.271   1.048 -0.0245 -0.0072  0.9020
12311SOL    HW141490  10.436  10.285   0.954 -0.9192 -0.3410  1.0050
12311SOL    HW241491  10.426  10.353   1.089 -2.2621 -0.8047  1.1532
12312SOL     OW41492   9.625   4.205   2.387 -0.2568 -0.3117  0.1068
12312SOL    HW141493   9.534   4.232   2.397  0.0970  1.3900 -0.8432
12312SOL    HW241494   9.668   4.235   2.466 -0.4958 -1.1518  0.5745
12313SOL     OW41495   5.597   2.543   9.931 -0.0875  0.0585  0.2987
12313SOL    HW141496   5.645   2.618   9.967 -0.6301  0.9436 -0.7546
12313SOL    HW241497   5.647   2.467   9.960  2.0872  0.9391 -0.9133
12314SOL     OW41498   7.519   7.929   8.500  0.1303 -0.0103  0.2680
12314SOL    HW141499   7.545   7.844   8.535  0.6830 -0.1908 -0.5550
12314SOL    HW241500   7.593   7.956   8.445 -0.9219 -0.0054 -1.2142
12315SOL     OW41501   0.683   6.485   2.853  0.1749  0.4023  0.5489
12315SOL    HW141502   0.656   6.412   2.910  0.1521  1.9958  2.6979
12315SOL    HW241503   0.636   6.561   2.888 -0.0888  1.4133 -1.8655
12316SOL     OW41504   4.080  11.514   4.292  0.3225  0.1529  0.2946
12316SOL    HW141505   4.108  11.462   4.368  1.3369 -1.4600 -1.1096
12316SOL    HW241506   4.152  11.574   4.276  1.2143 -1.1704 -0.8198
12317SOL     OW41507  11.108   1.453   0.896 -0.1320  0.6644 -0.3641
12317SOL    HW141508  11.166   1.422   0.965  0.0327  1.4064 -0.1641
12317SOL    HW241509  11.138   1.408   0.817 -0.8714 -0.8748  0.1850
12318SOL     OW41510   1.950   6.412   5.527 -0.1567 -0.4472  0.4166
12318SOL    HW141511   1.975   6.447   5.441 -0.0970 -2.1282 -0.2961
12318SOL    HW241512   1.871   6.460   5.550 -0.6597 -0.5406 -0.9973
12319SOL     OW41513   9.814  10.193   7.628  0.1583  0.4096 -0.3513
12319SOL    HW141514   9.891  10.239   7.663 -0.2272  1.1812 -0.4862
12319SOL    HW241515   9.805  10.116   7.683 -0.1433  1.3435  0.9702
12320SOL     OW41516   6.041   5.556   0.527  0.0501  0.1216  0.6528
12320SOL    HW141517   5.949   5.533   0.514  0.6582 -1.4065 -1.4448
12320SOL    HW241518   6.038   5.645   0.562 -2.2159  1.2659 -1.9939
12321SOL     OW41519   9.892   0.223   7.641 -0.1780  0.2545 -0.3275
12321SOL    HW141520   9.962   0.285   7.620 -0.0871  1.3406  2.6724
12321SOL    HW241521   9.936   0.153   7.690 -0.5975 -1.3123 -2.0373
12322SOL     OW41522   8.511   4.845  10.666 -0.3569  0.4495 -0.4580
12322SOL    HW141523   8.478   4.755  10.672  1.4493 -0.1683  0.7962
12322SOL    HW241524   8.500   4.881  10.754  0.4873  0.8729 -0.5167
12323SOL     OW41525   6.606   9.547   3.618 -0.1509  0.0179  0.2987
12323SOL    HW141526   6.668   9.480   3.591 -1.2784 -1.0463  0.2583
12323SOL    HW241527   6.536   9.499   3.662 -0.0573  1.3589  2.0463
12324SOL     OW41528  11.518   7.986   4.978 -0.4326 -0.0897 -0.5367
12324SOL    HW141529  11.570   7.906   4.971  1.2364  0.8906  0.0647
12324SOL    HW241530  11.455   7.980   4.906 -0.0581 -1.7127 -0.7819
12325SOL     OW41531   3.444   4.174   9.476 -0.3660 -0.0433  0.2141
12325SOL    HW141532   3.433   4.176   9.381 -0.0142  1.8483  0.1801
12325SOL    HW241533   3.398   4.252   9.507  0.0343 -0.3081  1.5381
12326SOL     OW41534   8.028   8.949   0.236  0.2153 -0.4994 -0.1662
12326SOL    HW141535   7.997   8.996   0.158  1.6362 -1.2777 -1.2404
12326SOL    HW241536   7.958   8.887   0.256 -0.7192  0.5516 -0.0315
12327SOL     OW41537   3.051   5.647   3.109 -0.1060 -0.2159 -0.1392
12327SOL    HW141538   2.999   5.617   3.184 -0.0753  0.4782  0.1680
12327SOL    HW241539   3.140   5.620   3.130  0.3026  1.9040  1.1759
12328SOL     OW41540   5.742   3.958   6.882 -0.4925 -0.3022 -0.0148
12328SOL    HW141541   5.708   3.897   6.948 -0.0981  0.8491  1.3147
12328SOL    HW241542   5.832   3.929   6.867 -0.6163 -0.6324 -0.1296
12329SOL     OW41543   8.840   1.436   3.291  0.3081  0.2780  0.4378
12329SOL    HW141544   8.926   1.396   3.306 -0.5533 -1.8225  0.0778
12329SOL    HW241545   8.812   1.402   3.206 -1.5781 -0.4098  1.2888
12330SOL     OW41546   2.262   0.778   5.482 -0.1473  0.2326  0.0165
12330SOL    HW141547   2.347   0.765   5.440  0.5035  1.1456  1.0108
12330SOL    HW241548   2.253   0.705   5.543  0.0658  0.3047  0.1340
12331SOL     OW41549  10.484   8.675   1.998  0.6184  0.6400  0.3642
12331SOL    HW141550  10.519   8.586   1.991  1.2107  0.8574  0.4904
12331SOL    HW241551  10.512   8.705   2.084  2.8850  1.9654 -0.7557
12332SOL     OW41552  10.347   9.737   3.833  0.4101  0.4783 -0.3755
12332SOL    HW141553  10.279   9.671   3.848  1.4720 -0.5100  0.3371
12332SOL    HW241554  10.399   9.702   3.761  0.4866  0.9415 -0.5465
12333SOL     OW41555   0.346   8.010   4.719 -0.1488  0.1291 -0.0704
12333SOL    HW141556   0.392   8.054   4.791  0.4410  0.2579 -0.5175
12333SOL    HW241557   0.359   8.067   4.643 -0.7691 -0.0025 -0.2853
12334SOL     OW41558   0.172  10.671   0.880 -0.2278  0.1235 -0.2337
12334SOL    HW141559   0.186  10.742   0.818  0.3136  1.2240  1.0831
12334SOL    HW241560   0.258  10.631   0.890 -0.7573 -1.5637 -1.8790
12335SOL     OW41561  10.688   0.747   8.603 -0.1361 -0.2991 -0.8532
12335SOL    HW141562  10.635   0.754   8.683  1.9481  2.1723  0.4476
12335SOL    HW241563  10.639   0.797   8.538 -0.3696  0.3144 -0.2225
12336SOL     OW41564   2.621   6.594   4.075  0.0000 -0.2740  0.2632
12336SOL    HW141565   2.606   6.658   4.144 -0.0480  0.5950 -0.5272
12336SOL    HW241566   2.716   6.587   4.068  0.0099 -0.0453  0.1463
12337SOL     OW41567   9.056   4.926   1.472  0.3859  0.3381  0.1358
12337SOL    HW141568   9.074   4.975   1.553  0.7965  0.1241  0.1805
12337SOL    HW241569   9.068   4.835   1.497  0.7404  0.2835 -0.2212
12338SOL     OW41570   1.175  11.264   9.329 -0.0043 -0.6116 -0.5626
12338SOL    HW141571   1.155  11.226   9.415 -0.5583 -0.8904 -0.8107
12338SOL    HW241572   1.270  11.268   9.326  0.0470 -1.4396 -0.2929
12339SOL     OW41573  11.188  11.850  10.106  0.0749  0.3267 -0.0579
12339SOL    HW141574  11.157  11.761  10.090 -0.7292  0.4441  0.7998
12339SOL    HW241575  11.113  11.906  10.084  0.5380  0.7884 -0.4828
12340SOL     OW41576   0.224   8.458   1.438  0.1626 -0.1747 -0.3049
12340SOL    HW141577   0.221   8.538   1.489 -0.5711 -0.2495 -0.2179
12340SOL    HW241578   0.142   8.457   1.389 -0.0487 -1.0913  0.0378
12341SOL     OW41579   8.693   3.369   7.456  0.0222  0.0204 -0.2527
12341SOL    HW141580   8.669   3.453   7.493  0.3706  0.6488 -1.3882
12341SOL    HW241581   8.695   3.384   7.361  2.4434 -0.6169 -0.3643
12342SOL     OW41582   5.268   8.645   5.718 -0.5389  0.0239  0.0769
12342SOL    HW141583   5.276   8.631   5.813 -1.2071 -0.9342  0.0064
12342SOL    HW241584   5.342   8.702   5.696  0.4289 -0.8519  0.9500
12343SOL     OW41585   4.789   2.109   7.072 -0.5211 -0.1841 -0.0995
12343SOL    HW141586   4.802   2.131   6.979 -0.7769 -0.3117 -0.1634
12343SOL    HW241587   4.702   2.070   7.076 -1.2987  1.5186  0.4783
12344SOL     OW41588   7.684   9.318   1.070  0.2080  0.0863 -0.0742
12344SOL    HW141589   7.756   9.316   1.133  0.0458 -1.0365  0.1023
12344SOL    HW241590   7.715   9.372   0.999  1.5436 -0.9934 -0.3508
12345SOL     OW41591  11.170   2.411   7.400 -0.5153 -0.7481  0.4662
12345SOL    HW141592  11.169   2.449   7.488 -1.1078 -0.8322  0.4986
12345SOL    HW241593  11.083   2.372   7.390  0.1732 -2.3463  0.5385
12346SOL     OW41594   7.118   1.841   2.154 -0.3124 -0.3617  0.2148
12346SOL    HW141595   7.067   1.818   2.231  0.2002 -0.2614  0.5877
12346SOL    HW241596   7.207   1.854   2.187  0.1069 -1.2391 -0.5363
12347SOL     OW41597  11.160   7.183   8.232  0.7543 -0.3466  0.0276
12347SOL    HW141598  11.250   7.152   8.222  0.7595 -0.0314 -0.9139
12347SOL    HW241599  11.166   7.249   8.302  0.9114 -1.6833  1.3453
12348SOL     OW41600   9.592   5.653   4.843 -0.0768  0.5173  0.3118
12348SOL    HW141601   9.562   5.570   4.882  2.3051 -0.5944 -0.0585
12348SOL    HW241602   9.531   5.669   4.772  0.1552 -1.6742 -0.4664
12349SOL     OW41603   5.360   2.922   7.606  0.3515 -0.0814 -0.6589
12349SOL    HW141604   5.378   2.984   7.677  1.3528 -0.8219 -0.2352
12349SOL    HW241605   5.299   2.859   7.645  0.7594 -0.3850 -0.5026
12350SOL     OW41606  10.903   0.720   1.119 -0.3556 -0.1120  0.6717
12350SOL    HW141607  10.848   0.664   1.174 -0.2307  0.0103  0.9215
12350SOL    HW241608  10.875   0.809   1.138 -1.0853 -0.1219 -0.3009
12351SOL     OW41609   4.233   0.061   1.798 -0.1551 -0.4474  0.4531
12351SOL    HW141610   4.202   0.088   1.884  0.3531 -0.9739  0.8065
12351SOL    HW241611   4.221  -0.034   1.797 -0.2613 -0.4355 -0.1021
12352SOL     OW41612   8.266   9.418   6.367 -0.4118  0.2478  0.3564
12352SOL    HW141613   8.190   9.360   6.379 -0.6170  0.3404 -0.4398
12352SOL    HW241614   8.230   9.506   6.380 -1.0142  0.4897 -2.3233
12353SOL     OW41615   6.721  11.845   9.952 -0.0608 -0.3223  0.3002
12353SOL    HW141616   6.718  11.911   9.883  0.6499 -0.1431  0.4356
12353SOL    HW241617   6.666  11.773   9.919 -1.0011  0.4092  0.2381
12354SOL     OW41618   6.668   6.678   5.080 -0.5245  0.3957 -0.2294
12354SOL    HW141619   6.738   6.652   5.139 -1.8140  0.7320  1.5432
12354SOL    HW241620   6.689   6.636   4.997  1.4535  0.0470  0.4087
12355SOL     OW41621   0.520   4.518   3.899  0.3208  0.2805 -0.0011
12355SOL    HW141622   0.440   4.570   3.903 -0.5942 -1.1326  1.3688
12355SOL    HW241623   0.510   4.466   3.819 -0.0734  0.2336  0.0753
12356SOL     OW41624   7.147   6.979   1.179  0.1536  0.5016 -0.1568
12356SOL    HW141625   7.085   7.013   1.114  0.7365  1.3785 -0.2682
12356SOL    HW241626   7.137   7.036   1.255 -1.3470 -1.1962  1.0135
12357SOL     OW41627   5.934   0.357   2.985 -0.3475  0.3316 -0.2812
12357SOL    HW141628   6.015   0.407   3.000 -1.5673  2.9780 -1.8624
12357SOL    HW241629   5.938   0.333   2.892 -1.3506  0.4558 -0.3620
12358SOL     OW41630  10.352  11.450   9.753 -0.1691 -0.3942  0.0445
12358SOL    HW141631  10.289  11.496   9.697  1.4995  1.3373 -0.5259
12358SOL    HW241632  10.413  11.409   9.691  0.1629 -0.7222  0.5834
12359SOL     OW41633   9.730   5.466   0.629 -0.1640  0.3112  0.2287
12359SOL    HW141634   9.663   5.400   0.645 -1.1854  1.6226  1.6663
12359SOL    HW241635   9.812   5.422   0.653 -0.4927 -1.1749 -1.1485
12360SOL     OW41636   4.295  11.047   0.996 -0.3467 -0.3785 -0.5454
12360SOL    HW141637   4.298  11.093   1.080 -2.3027 -0.4677 -0.3811
12360SOL    HW241638   4.356  11.096   0.940  0.0527  0.4329  0.5434
12361SOL     OW41639   5.370   7.154   0.292  0.1697 -0.8409 -0.2553
12361SOL    HW141640   5.441   7.148   0.227 -0.7773 -0.1931 -1.4022
12361SOL    HW241641   5.381   7.241   0.330 -0.4350 -0.4357 -0.9779
12362SOL     OW41642   2.258   4.884   8.332 -0.0228  0.0248  0.2726
12362SOL    HW141643   2.259   4.912   8.241  1.3918  1.8542  0.7926
12362SOL    HW241644   2.314   4.806   8.334 -0.0570 -0.0223 -0.4005
12363SOL     OW41645  10.621   4.669  10.919 -0.3460 -0.3755 -1.0619
12363SOL    HW141646  10.560   4.686  10.848 -0.3418 -2.0880 -1.5159
12363SOL    HW241647  10.570   4.680  10.999 -0.1847  2.2386 -1.2339
12364SOL     OW41648   4.447   4.069   0.396 -0.6518 -0.4758  0.6059
12364SOL    HW141649   4.484   4.027   0.474 -1.0202  0.9617  1.5816
12364SOL    HW241650   4.516   4.059   0.330 -1.1480 -3.5757  0.3978
12365SOL     OW41651   1.970   8.916  10.950  0.1705  0.3645 -0.1345
12365SOL    HW141652   1.946   8.932  11.042  2.1854 -0.3826  0.5611
12365SOL    HW241653   2.023   8.992  10.926 -0.5791  0.6925 -0.7999
12366SOL     OW41654  10.170   2.815   6.632 -0.4982 -0.1012 -0.3481
12366SOL    HW141655  10.124   2.882   6.581 -1.7367 -1.2390 -0.7957
12366SOL    HW241656  10.103   2.779   6.690 -0.2604 -1.9515 -1.1499
12367SOL     OW41657   1.902   4.568   2.501 -0.9821  0.6680 -0.4654
12367SOL    HW141658   1.918   4.589   2.409  0.0758  2.0341  0.0009
12367SOL    HW241659   1.968   4.501   2.522 -0.6736  0.9624 -0.4860
12368SOL     OW41660  10.248   8.124   3.077  0.0633  0.2622  0.2165
12368SOL    HW141661  10.198   8.201   3.104  0.5448  1.0771 -1.1372
12368SOL    HW241662  10.184   8.070   3.030 -0.5784 -0.7876  2.1907
12369SOL     OW41663   9.213   6.979   2.331  0.0734  0.7533  0.0830
12369SOL    HW141664   9.186   6.903   2.383 -1.9781  1.3252 -0.0760
12369SOL    HW241665   9.231   6.943   2.244 -0.7613  0.4243  0.0441
12370SOL     OW41666   3.646  11.897   6.197  0.2224 -0.0167  0.3957
12370SOL    HW141667   3.680  11.838   6.129  1.6440  1.6386 -0.3878
12370SOL    HW241668   3.724  11.924   6.245 -0.6110  0.0051  1.7682
12371SOL     OW41669  11.571   8.747   6.575  0.1742  0.3056  0.4650
12371SOL    HW141670  11.581   8.681   6.507 -1.4077 -0.1521  0.6392
12371SOL    HW241671  11.550   8.827   6.528  1.6747  0.6307  0.2835
12372SOL     OW41672   8.358   8.340  11.016  0.1507 -0.3522  0.2300
12372SOL    HW141673   8.375   8.255  11.056  1.7191 -0.9879 -1.6324
12372SOL    HW241674   8.442   8.386  11.019 -0.7856  1.4290  1.7132
12373SOL     OW41675   3.545  10.300  11.736 -0.0176  0.0702  0.0162
12373SOL    HW141676   3.546  10.396  11.746  1.1738  0.0092  0.6235
12373SOL    HW241677   3.472  10.271  11.789 -0.6263  0.6655 -0.4751
12374SOL     OW41678   3.199   0.982   6.224  0.1530 -0.2554 -0.1867
12374SOL    HW141679   3.269   0.987   6.289 -0.7968  0.6175  0.8029
12374SOL    HW241680   3.174   1.073   6.209 -0.1780 -0.5025 -1.2067
12375SOL     OW41681   8.657   7.626   9.219  0.0115 -0.0404  0.0220
12375SOL    HW141682   8.662   7.655   9.128 -1.1588  3.8410  0.9772
12375SOL    HW241683   8.698   7.697   9.269  0.9743 -2.2041  2.5702
12376SOL     OW41684   7.535  11.044   4.604 -1.0943 -0.1167 -0.4803
12376SOL    HW141685   7.527  11.024   4.697  0.3118 -0.9984 -0.5071
12376SOL    HW241686   7.553  10.959   4.563 -2.9309  0.0595 -1.7404
12377SOL     OW41687   4.102   4.283  10.134  0.4234  0.3256 -0.1879
12377SOL    HW141688   4.176   4.223  10.144  0.3508  0.4177  1.1417
12377SOL    HW241689   4.116   4.350  10.201 -1.7299 -0.5811  1.2910
12378SOL     OW41690  10.085  12.025   5.914  0.3747  0.2244 -0.0748
12378SOL    HW141691  10.002  12.029   5.963  0.7839  0.3705  0.6134
12378SOL    HW241692  10.071  11.956   5.850  0.2736 -0.8487  1.0760
12379SOL     OW41693   9.229   2.675   2.498 -0.7721 -0.0943  0.0318
12379SOL    HW141694   9.193   2.755   2.537  0.6753  0.4528  0.3084
12379SOL    HW241695   9.324   2.686   2.504 -0.4488 -0.2310 -3.1121
12380SOL     OW41696   8.936   8.153   9.869  0.1287  0.5645 -0.3147
12380SOL    HW141697   8.904   8.189   9.952  0.6498  3.4211 -1.2159
12380SOL    HW241698   8.858   8.144   9.814 -0.0128  0.2973 -0.0716
12381SOL     OW41699  10.210   6.386   9.251  0.5725  0.7279  0.7004
12381SOL    HW141700  10.302   6.367   9.236  0.6648 -1.2451  3.0766
12381SOL    HW241701  10.178   6.312   9.303 -2.0024  2.0234  1.1650
12382SOL     OW41702   5.349   3.245   1.779 -0.2136 -0.5403 -0.1026
12382SOL    HW141703   5.364   3.335   1.808 -4.4110  0.6896 -1.0196
12382SOL    HW241704   5.348   3.251   1.683 -0.6022 -1.5348 -0.1690
12383SOL     OW41705   1.931   6.983   7.531  0.0627  0.1528  0.3560
12383SOL    HW141706   1.976   7.035   7.464 -2.4786  1.6081 -0.3607
12383SOL    HW241707   1.904   6.903   7.484  1.3176 -0.4453  0.6272
12384SOL     OW41708   9.755   6.837   3.962 -0.0207 -0.1515 -0.0891
12384SOL    HW141709   9.772   6.859   3.870  2.9827  0.1807  0.4361
12384SOL    HW241710   9.713   6.916   3.997  0.0522  0.2533 -0.8748
12385SOL     OW41711   6.727   1.087   0.914 -0.2460  0.2892  0.1649
12385SOL    HW141712   6.760   1.007   0.956  0.6208  1.0817  1.0479
12385SOL    HW241713   6.773   1.092   0.831 -0.3497 -0.1580  0.0771
12386SOL     OW41714   9.371   4.175   8.261 -0.8223  0.6112 -0.4296
12386SOL    HW141715   9.327   4.095   8.291 -0.5290  0.8447  0.6789
12386SOL    HW241716   9.341   4.243   8.322  0.7372  0.8599  0.1015
12387SOL     OW41717   0.426  11.031  12.043 -0.4014  0.1300  0.5610
12387SOL    HW141718   0.445  11.124  12.055 -1.7573  0.5340 -0.2162
12387SOL    HW241719   0.496  10.986  12.090  0.4327  1.5350  0.7218
12388SOL     OW41720   1.379   9.130   7.498 -0.0927 -0.3553  0.1448
12388SOL    HW141721   1.455   9.152   7.445  0.7265 -0.4240  1.2506
12388SOL    HW241722   1.380   9.193   7.570 -1.7456  0.3722 -0.4113
12389SOL     OW41723   6.853   1.995   6.205  0.1425  0.0276 -0.2409
12389SOL    HW141724   6.851   1.910   6.250  0.1125  0.6071  0.8974
12389SOL    HW241725   6.772   1.997   6.154  0.8254 -1.2089 -1.4210
12390SOL     OW41726   2.400   3.445  10.477 -0.1358 -0.2147 -0.8165
12390SOL    HW141727   2.315   3.401  10.470 -0.1831 -0.1265 -0.7967
12390SOL    HW241728   2.378   3.536  10.497 -0.0787  0.0753 -1.9966
12391SOL     OW41729  10.789   1.136   0.778  0.3364 -0.0489  0.3663
12391SOL    HW141730  10.805   1.043   0.795 -0.6554 -0.4808 -0.8566
12391SOL    HW241731  10.790   1.143   0.683 -0.7846  0.9534  0.3983
12392SOL     OW41732   4.673   8.363   7.938  0.2550  0.2100 -0.0370
12392SOL    HW141733   4.612   8.324   8.000 -1.6366  1.0237 -1.2829
12392SOL    HW241734   4.707   8.440   7.984  1.3429 -0.8968  1.1141
12393SOL     OW41735   2.547   2.175   3.491  0.2497  0.4308 -0.2693
12393SOL    HW141736   2.473   2.232   3.469 -0.3525  0.9140  2.5913
12393SOL    HW241737   2.620   2.235   3.507 -0.5298  0.6826  3.3206
12394SOL     OW41738   9.721   0.414   0.551  0.2503 -0.1939  0.6674
12394SOL    HW141739   9.791   0.477   0.567  0.0965 -0.0017  0.5896
12394SOL    HW241740   9.763   0.329   0.560  0.9766 -0.1056 -1.3439
12395SOL     OW41741   8.722   6.946  10.218 -0.2272  0.3033  0.4165
12395SOL    HW141742   8.815   6.942  10.242  0.1995  1.0925 -0.9857
12395SOL    HW241743   8.685   6.864  10.252  1.5002 -1.1536 -0.9573
12396SOL     OW41744   5.521   6.144   5.305 -0.1842 -0.1484 -0.1010
12396SOL    HW141745   5.520   6.178   5.395  0.4614  0.2814 -0.2527
12396SOL    HW241746   5.463   6.203   5.257 -1.9561 -1.4016  0.3718
12397SOL     OW41747   4.888   6.720   4.781 -0.5391  0.1641  0.0422
12397SOL    HW141748   4.962   6.769   4.748 -0.2888  0.5505  1.1374
12397SOL    HW241749   4.887   6.738   4.875 -0.4890 -1.8484  0.4791
12398SOL     OW41750   8.222   9.657   1.840 -0.4468  0.3277  0.4602
12398SOL    HW141751   8.222   9.593   1.769 -1.0732 -0.8413  1.4982
12398SOL    HW241752   8.184   9.736   1.801  0.8719  0.2880 -0.9918
12399SOL     OW41753   4.226   6.902   4.731  0.3302  0.5981  0.1914
12399SOL    HW141754   4.269   6.855   4.659  0.3492  1.1758 -0.1804
12399SOL    HW241755   4.294   6.909   4.798  0.3360  0.1258  0.2419
12400SOL     OW41756   9.467  10.448   8.987 -0.1461  0.3178 -0.6878
12400SOL    HW141757   9.541  10.482   9.037  0.0336 -0.7978 -0.1755
12400SOL    HW241758   9.390  10.488   9.028  0.0237 -0.2907  0.2471
12401SOL     OW41759   7.291   3.951   5.773  0.2108 -0.0877 -0.6894
12401SOL    HW141760   7.260   3.992   5.693 -2.1301 -0.7012 -0.1761
12401SOL    HW241761   7.284   3.857   5.756  1.0844 -0.2430 -0.2570
12402SOL     OW41762   0.185  10.558   4.885  0.2801  0.0768 -0.3777
12402SOL    HW141763   0.130  10.586   4.958 -0.2083 -1.8249  0.0530
12402SOL    HW241764   0.259  10.618   4.885  1.1498 -0.8066  2.7648
12403SOL     OW41765   6.752   1.738   8.141  0.5157 -0.6588 -0.0281
12403SOL    HW141766   6.798   1.659   8.169  0.0131 -0.4135  1.5328
12403SOL    HW241767   6.688   1.707   8.077 -0.0853 -1.6217  1.0054
12404SOL     OW41768   5.747   1.944   0.566 -0.0285 -0.5005 -0.5360
12404SOL    HW141769   5.723   1.953   0.659  0.2766  1.8767 -0.6111
12404SOL    HW241770   5.688   2.004   0.521  1.6717  0.4989 -1.5196
12405SOL     OW41771   8.623   2.152   6.916  0.3394  0.0365  0.1836
12405SOL    HW141772   8.638   2.058   6.929  1.5969  0.2710  0.5341
12405SOL    HW241773   8.676   2.194   6.983  0.5817  1.0238 -0.6146
12406SOL     OW41774   9.095  10.072   2.101 -0.0024 -0.3568  0.2791
12406SOL    HW141775   9.189  10.064   2.120 -0.2560  0.8349  2.2950
12406SOL    HW241776   9.091  10.130   2.024  0.9177 -1.5115 -0.6920
12407SOL     OW41777   8.465  11.551   0.562  0.2806 -0.3917  0.3948
12407SOL    HW141778   8.506  11.471   0.595  1.9172 -0.4850 -1.6200
12407SOL    HW241779   8.383  11.521   0.522  0.2542 -0.8630  0.7962
12408SOL     OW41780   1.665   0.194   7.728  0.2286  0.2442  0.3458
12408SOL    HW141781   1.739   0.149   7.769 -0.7140 -1.5199  0.2184
12408SOL    HW241782   1.588   0.157   7.771 -0.6013  2.4829  0.9000
12409SOL     OW41783   3.739  11.086   1.104  0.2495 -0.1888  0.1081
12409SOL    HW141784   3.795  11.117   1.175  0.0323 -0.3879  0.3681
12409SOL    HW241785   3.737  10.991   1.115  0.1805 -0.2155 -0.1376
12410SOL     OW41786   6.172   1.864   8.517  0.2713 -0.8195  0.0974
12410SOL    HW141787   6.206   1.949   8.543  0.3246 -0.7392 -0.2342
12410SOL    HW241788   6.204   1.804   8.585  1.1072 -0.7550 -0.2254
12411SOL     OW41789   4.930  10.276   2.793  0.0145 -0.6176  0.1721
12411SOL    HW141790   4.957  10.251   2.705  0.6640 -1.0534  0.4846
12411SOL    HW241791   4.907  10.194   2.836  2.3520 -0.7984  1.2637
12412SOL     OW41792   6.821   9.973   0.567  0.0217  0.1354 -0.1788
12412SOL    HW141793   6.785  10.011   0.647 -0.7021 -0.5068 -0.1880
12412SOL    HW241794   6.907   9.940   0.592 -0.3835 -0.4718  0.4610
12413SOL     OW41795   4.040   5.536   4.111  0.0841  0.6069 -0.5895
12413SOL    HW141796   4.044   5.521   4.017  2.6916 -0.1061 -0.4535
12413SOL    HW241797   4.060   5.629   4.121  0.5764  0.5205 -0.7290
12414SOL     OW41798  10.627   6.381   7.592  0.1275  0.0730  0.5327
12414SOL    HW141799  10.539   6.419   7.599  0.4231  0.9242 -0.1773
12414SOL    HW241800  10.686   6.454   7.612  0.6867 -0.3888  0.5916
12415SOL     OW41801  11.034   1.684   2.682 -0.2586 -0.0890  0.0093
12415SOL    HW141802  11.083   1.686   2.600 -0.9295  0.7389 -0.3764
12415SOL    HW241803  11.072   1.610   2.730 -0.5888 -1.2782 -1.4982
12416SOL     OW41804   0.344   7.842   2.785  0.2002 -0.2665 -0.2569
12416SOL    HW141805   0.413   7.780   2.764  0.6888 -0.3348  1.3856
12416SOL    HW241806   0.389   7.924   2.804 -0.0697 -0.4531  1.3695
12417SOL     OW41807  10.242   6.969   8.292 -0.2992  0.5285  0.3374
12417SOL    HW141808  10.186   6.926   8.228  0.5404 -2.4981  1.4670
12417SOL    HW241809  10.289   7.036   8.242 -1.0632 -0.4319 -1.7553
12418SOL     OW41810   7.055   3.504   1.396 -0.0346 -0.0442  0.3630
12418SOL    HW141811   7.143   3.475   1.373 -0.5350 -1.2859 -0.0447
12418SOL    HW241812   7.060   3.525   1.490  1.5007  3.1179 -0.2727
12419SOL     OW41813   6.265   8.538   7.065  0.0722  0.0523 -0.3112
12419SOL    HW141814   6.301   8.620   7.031 -0.8909  0.6257  0.0265
12419SOL    HW241815   6.231   8.493   6.989  0.3674  0.0835 -0.4644
12420SOL     OW41816   1.223   8.562   7.794  0.8953  0.5913 -0.1485
12420SOL    HW141817   1.261   8.544   7.880  0.0294  0.5965  0.2424
12420SOL    HW241818   1.195   8.476   7.762 -1.1257  0.8791  0.7103
12421SOL     OW41819  11.622   0.180   9.684  0.1618  0.0286  0.2042
12421SOL    HW141820  11.607   0.168   9.590  0.3205 -2.3672  0.4206
12421SOL    HW241821  11.550   0.237   9.713 -0.1755  0.3917 -1.2546
12422SOL     OW41822   2.003   1.997  11.360 -0.1644  0.1420 -0.9355
12422SOL    HW141823   2.091   1.967  11.383  0.2555  1.1461 -1.1755
12422SOL    HW241824   2.002   1.995  11.264 -0.5250 -0.1879 -0.9281
12423SOL     OW41825   4.868  10.473   8.237  0.5409  0.4874  0.6856
12423SOL    HW141826   4.832  10.474   8.326 -0.8820 -0.4498  0.1598
12423SOL    HW241827   4.828  10.396   8.197  3.0295 -0.5305 -0.0295
12424SOL     OW41828   5.015   8.078   8.842  0.1269  0.4451 -0.2812
12424SOL    HW141829   5.073   8.019   8.890  0.0378  0.1684 -0.5045
12424SOL    HW241830   5.058   8.163   8.846  0.3594  0.3229 -0.1240
12425SOL     OW41831  11.295   0.894   9.619 -0.7511  0.0623  0.7337
12425SOL    HW141832  11.294   0.966   9.556  1.3743 -0.4935 -0.0410
12425SOL    HW241833  11.301   0.815   9.565 -0.0969 -0.4948  1.5864
12426SOL     OW41834   9.845   4.245   6.201  0.5555 -0.0599  0.1994
12426SOL    HW141835   9.796   4.294   6.267 -0.0507 -0.4412  0.0479
12426SOL    HW241836   9.793   4.165   6.188  1.4676 -0.6964  0.3746
12427SOL     OW41837   0.235   5.447   3.748 -0.1844  0.0036  0.4292
12427SOL    HW141838   0.183   5.454   3.668  2.3762 -1.5497 -1.4951
12427SOL    HW241839   0.263   5.537   3.766 -1.1318  0.4326 -0.1270
12428SOL     OW41840   6.709   0.580   5.458  0.0482 -0.5891 -0.0511
12428SOL    HW141841   6.744   0.626   5.535 -0.0056  0.0803 -0.4155
12428SOL    HW241842   6.717   0.644   5.387 -4.3546  0.7426  0.3269
12429SOL     OW41843   3.730   6.285   3.608  0.8518 -0.5705 -1.0153
12429SOL    HW141844   3.777   6.367   3.588 -0.5652  0.2589 -1.0768
12429SOL    HW241845   3.794   6.232   3.655  1.4147  1.1334  0.2691
12430SOL     OW41846   4.262   2.448   6.354 -0.1651  0.0970  0.1481
12430SOL    HW141847   4.217   2.446   6.269  0.5109 -0.7208 -0.2046
12430SOL    HW241848   4.217   2.516   6.403 -3.0516 -1.8750  0.5061
12431SOL     OW41849   4.183   7.090   3.424  0.2834  0.1646  0.2580
12431SOL    HW141850   4.129   7.036   3.366  0.1521 -0.3042  0.7994
12431SOL    HW241851   4.189   7.175   3.381 -0.2447 -0.0222 -0.1843
12432SOL     OW41852   8.248   8.834   0.342 -0.3684  0.6935 -0.1762
12432SOL    HW141853   8.165   8.873   0.317 -1.0045 -0.9035 -0.6774
12432SOL    HW241854   8.234   8.740   0.334  1.1597  0.3446  0.7878
12433SOL     OW41855   2.800   9.249  11.844 -0.0991 -0.4040  0.3070
12433SOL    HW141856   2.864   9.235  11.915  0.1051 -2.4498 -0.2194
12433SOL    HW241857   2.826   9.187  11.776  0.4979  2.3366 -2.1996
12434SOL     OW41858   2.222   4.626   5.039  0.1988 -0.0158  0.5115
12434SOL    HW141859   2.173   4.550   5.005  0.6287 -0.5383  1.0393
12434SOL    HW241860   2.242   4.603   5.130 -0.4871  1.1497  0.9675
12435SOL     OW41861   7.972  10.247   1.008  0.2692 -0.3188 -0.9327
12435SOL    HW141862   8.057  10.211   1.034 -0.6405 -2.6129 -0.8744
12435SOL    HW241863   7.983  10.342   1.014  1.7557 -0.5597  2.5283
12436SOL     OW41864   7.745   3.954   0.311 -0.0601  0.1220 -0.0157
12436SOL    HW141865   7.832   3.967   0.276  0.3741  0.4104  1.1230
12436SOL    HW241866   7.727   3.861   0.297  1.5606 -0.5913  2.1310
12437SOL     OW41867   3.449   7.443   8.846  0.2131 -0.3425  0.1356
12437SOL    HW141868   3.507   7.385   8.797  0.7476 -1.0937  1.6138
12437SOL    HW241869   3.499   7.524   8.855 -0.1713  0.0638 -1.1320
12438SOL     OW41870   5.527   5.118   4.393 -0.1368 -0.3168  0.0061
12438SOL    HW141871   5.463   5.096   4.326 -0.2842 -0.1735  0.0971
12438SOL    HW241872   5.564   5.202   4.366 -1.1006  0.3666  0.7405
12439SOL     OW41873  10.084   4.739   5.752 -0.3351 -0.5968  0.0227
12439SOL    HW141874  10.105   4.653   5.715  0.5234 -0.5914  0.4897
12439SOL    HW241875  10.057   4.721   5.842 -0.2766 -0.3875  0.0824
12440SOL     OW41876   3.795   4.782   2.758  0.5867  0.1360 -0.0493
12440SOL    HW141877   3.814   4.866   2.717 -0.0617  0.9957  1.3128
12440SOL    HW241878   3.830   4.791   2.847 -2.3416  0.2302  1.1978
12441SOL     OW41879   1.668  10.787   1.363  0.1932  0.0895 -0.5778
12441SOL    HW141880   1.682  10.817   1.273 -0.6408 -0.5089 -0.9091
12441SOL    HW241881   1.728  10.841   1.415 -0.3229  1.4112 -1.3181
12442SOL     OW41882   8.434   5.489   9.215  0.1788  0.1072  0.2321
12442SOL    HW141883   8.380   5.497   9.136  0.6766 -1.3161 -0.2738
12442SOL    HW241884   8.380   5.528   9.284 -1.3258 -0.8532 -0.3327
12443SOL     OW41885   9.792  11.578  11.059 -0.2816  0.5574 -0.1836
12443SOL    HW141886   9.721  11.524  11.024 -0.0009 -1.6712  2.3853
12443SOL    HW241887   9.872  11.530  11.036  0.0973  0.7740  0.6404
12444SOL     OW41888   6.212   8.124   2.804 -0.0251 -0.4604  0.1274
12444SOL    HW141889   6.298   8.167   2.814 -1.4747  2.8265 -0.0559
12444SOL    HW241890   6.171   8.134   2.890 -1.0327  0.0794 -0.3997
12445SOL     OW41891   9.659   7.980  11.127 -0.2109 -1.0016  0.2057
12445SOL    HW141892   9.612   8.011  11.204 -0.6919 -0.7758 -0.1772
12445SOL    HW241893   9.599   7.920  11.084 -0.5363 -0.0162 -0.7803
12446SOL     OW41894   3.144   7.522   7.746 -0.1489  0.5095 -0.0183
12446SOL    HW141895   3.226   7.517   7.697 -0.1909  1.7098 -0.2494
12446SOL    HW241896   3.083   7.469   7.696  0.5070 -0.4979  0.2206
12447SOL     OW41897   8.460   0.852   8.748  0.1740 -0.0616  0.0483
12447SOL    HW141898   8.547   0.812   8.745  0.5230  0.7333 -0.7792
12447SOL    HW241899   8.411   0.806   8.679 -0.4893 -1.3989  1.3393
12448SOL     OW41900  11.178   0.058   0.871  0.7338 -0.4354 -0.1897
12448SOL    HW141901  11.216   0.145   0.870  0.5742 -0.3622 -0.8469
12448SOL    HW241902  11.141   0.048   0.783  2.6630 -2.0125 -0.8995
12449SOL     OW41903   7.899   4.817   9.245  0.3303 -0.8276 -0.2597
12449SOL    HW141904   7.970   4.849   9.188  0.2941 -1.2504 -0.5414
12449SOL    HW241905   7.910   4.722   9.246 -0.7389 -0.9665 -0.9663
12450SOL     OW41906   7.720   6.695   5.176 -0.7520 -0.1700  0.1710
12450SOL    HW141907   7.745   6.643   5.252 -1.8895 -1.0985 -0.0698
12450SOL    HW241908   7.787   6.673   5.110 -0.0892  0.2118  0.6967
12451SOL     OW41909   1.345   5.040   8.075 -0.0137  0.4450 -0.7488
12451SOL    HW141910   1.422   5.086   8.040  1.2950 -0.9235  0.1745
12451SOL    HW241911   1.301   5.006   7.998  1.5101 -0.5208 -1.2530
12452SOL     OW41912   2.454   2.912   1.685 -0.1959  0.1094  0.0323
12452SOL    HW141913   2.454   2.986   1.624 -0.8917  0.4633  0.4477
12452SOL    HW241914   2.386   2.934   1.748 -0.2156 -0.7603  0.3186
12453SOL     OW41915   3.776   5.066   5.623 -0.2548 -0.1166 -0.8961
12453SOL    HW141916   3.772   5.157   5.652  0.8979 -0.6978  1.4150
12453SOL    HW241917   3.696   5.026   5.657  0.2945 -0.4160  0.1145
12454SOL     OW41918  11.801   9.467   5.082  0.4142 -0.7064 -0.1961
12454SOL    HW141919  11.886   9.465   5.126 -0.5161 -0.8668  1.6645
12454SOL    HW241920  11.789   9.378   5.050  1.9388 -0.1556 -2.5854
12455SOL     OW41921   0.325   9.610   1.048 -0.6729 -0.1606  0.1066
12455SOL    HW141922   0.364   9.693   1.020 -0.4689 -0.1254  0.4969
12455SOL    HW241923   0.376   9.543   1.002 -0.0106 -0.1247  0.7814
12456SOL     OW41924   7.043   1.372   8.293  0.1628  0.0471  0.2178
12456SOL    HW141925   7.121   1.411   8.253  0.2810 -1.2744 -0.8853
12456SOL    HW241926   7.059   1.379   8.387  0.9587  1.0562  0.0340
12457SOL     OW41927   1.922   7.846   3.255 -0.1317  0.2740  0.6684
12457SOL    HW141928   1.989   7.895   3.207 -1.1030  1.1567  0.1959
12457SOL    HW241929   1.875   7.798   3.187 -0.9817  0.8814  0.8133
12458SOL     OW41930   6.176   0.692   4.994 -0.2368 -0.3438  0.0760
12458SOL    HW141931   6.229   0.771   4.986  2.2799 -1.8659  0.5492
12458SOL    HW241932   6.176   0.673   5.088 -3.3403  0.6027  0.3861
12459SOL     OW41933   7.430   6.397   0.290  0.0037 -0.4884 -0.3929
12459SOL    HW141934   7.341   6.433   0.287  0.1470 -0.1571 -0.6541
12459SOL    HW241935   7.480   6.451   0.229  0.6612  0.1049  0.6405
12460SOL     OW41936   0.971   3.473   2.574  0.1013 -0.3831  0.3558
12460SOL    HW141937   0.930   3.398   2.532  1.4114 -0.1082 -1.5435
12460SOL    HW241938   0.900   3.535   2.590 -0.4762 -0.5657 -1.3835
12461SOL     OW41939   6.905   7.346   1.073 -0.5311  0.0553 -0.2852
12461SOL    HW141940   6.990   7.386   1.088 -0.0254 -0.8039 -0.7756
12461SOL    HW241941   6.877   7.380   0.988 -0.1107 -0.5771 -0.6918
12462SOL     OW41942  11.448   7.290   3.975  0.3079  0.6043 -0.3336
12462SOL    HW141943  11.485   7.341   3.903  0.8967  0.9805  0.2271
12462SOL    HW241944  11.506   7.306   4.049  0.4507 -0.8017 -0.1069
12463SOL     OW41945   0.515   8.650   0.972 -0.7175 -0.0622  0.5094
12463SOL    HW141946   0.496   8.737   0.936 -0.4928  0.0034  0.5526
12463SOL    HW241947   0.479   8.589   0.907  2.5223 -0.0380 -1.5178
12464SOL     OW41948   9.651   9.396  11.738 -0.1564  0.2554 -0.4009
12464SOL    HW141949   9.566   9.399  11.695 -0.6404 -0.4281  0.4782
12464SOL    HW241950   9.708   9.349  11.676 -0.9603 -1.1356 -0.1313
12465SOL     OW41951   9.782   5.810   1.506 -0.2940 -0.3934 -0.4166
12465SOL    HW141952   9.857   5.863   1.533 -0.0217 -1.3557  0.7707
12465SOL    HW241953   9.807   5.775   1.420  0.4491 -0.4045 -0.2001
12466SOL     OW41954   7.768   5.752  11.783  0.0207 -0.1365 -0.8653
12466SOL    HW141955   7.762   5.726  11.875 -2.3234  1.3838 -0.5294
12466SOL    HW241956   7.818   5.681  11.742 -1.2946 -2.2907  1.0294
12467SOL     OW41957   5.732   8.684   3.617  0.0932 -0.0799 -0.3822
12467SOL    HW141958   5.725   8.607   3.674 -0.5127 -0.0297 -0.3795
12467SOL    HW241959   5.812   8.670   3.568  0.4468 -0.2876  0.2450
12468SOL     OW41960  11.843   2.224   4.729  0.6992  0.0252 -0.3477
12468SOL    HW141961  11.857   2.138   4.689  0.1289  0.4648 -1.5424
12468SOL    HW241962  11.769   2.261   4.680  1.1392  1.3265 -0.0573
12469SOL     OW41963   3.711   2.756  11.381 -0.0493  0.0847 -0.0939
12469SOL    HW141964   3.624   2.786  11.356  0.4766  0.2985 -1.7778
12469SOL    HW241965   3.754   2.735  11.298  1.4085 -0.2886  0.7246
12470SOL     OW41966   7.710   6.426   8.400 -0.1883  0.1318  0.6829
12470SOL    HW141967   7.726   6.500   8.459  1.5527  0.6449 -0.3794
12470SOL    HW241968   7.796   6.389   8.384 -0.8693 -1.2034 -0.0282
12471SOL     OW41969   0.131   7.949   1.492 -0.2319 -0.4980 -0.0377
12471SOL    HW141970   0.102   7.933   1.581  0.5919 -2.9667 -0.1315
12471SOL    HW241971   0.175   7.868   1.466 -1.0636 -0.1305 -2.9407
12472SOL     OW41972   6.958   2.905   6.746  0.5269 -0.6620  0.0562
12472SOL    HW141973   6.998   2.992   6.745 -0.2177 -0.3129 -0.9772
12472SOL    HW241974   7.031   2.845   6.729  0.9350 -0.1960  0.1476
12473SOL     OW41975   3.676  11.425   8.646  0.1161 -0.4794  0.2000
12473SOL    HW141976   3.692  11.403   8.738  0.0678 -3.5493 -0.4013
12473SOL    HW241977   3.763  11.445   8.611  1.1959 -4.7506 -0.1850
12474SOL     OW41978   3.986   4.442   4.928  0.2951  0.1504 -0.2991
12474SOL    HW141979   4.071   4.458   4.969 -0.4737  0.3625  1.2883
12474SOL    HW241980   3.966   4.351   4.948 -0.1281  0.2796 -0.1236
12475SOL     OW41981   4.741   6.734   3.248 -0.2363  0.2236  0.1762
12475SOL    HW141982   4.686   6.809   3.272 -1.1891  0.4290 -2.2817
12475SOL    HW241983   4.678   6.666   3.225  0.4494  0.3183 -2.2835
12476SOL     OW41984   7.900   9.391   6.787  0.1860 -0.7731  0.2360
12476SOL    HW141985   7.981   9.364   6.829 -0.0269 -1.6547  0.0965
12476SOL    HW241986   7.836   9.325   6.813 -0.5085 -0.0613  0.3905
12477SOL     OW41987   4.397   3.027  11.765  0.2961  0.0000  0.4118
12477SOL    HW141988   4.462   2.978  11.715  1.0776  0.5324  0.8853
12477SOL    HW241989   4.313   2.993  11.734  0.5748  1.9979 -3.1510
12478SOL     OW41990   5.966   1.752  11.882 -0.0954 -0.1424  0.0168
12478SOL    HW141991   5.936   1.753  11.972 -1.6136 -0.1465 -0.4685
12478SOL    HW241992   5.888   1.732  11.830  1.0519 -1.7630 -1.1880
12479SOL     OW41993   7.745   7.936   1.902  0.0193  0.1518  0.6665
12479SOL    HW141994   7.760   8.030   1.905  1.0729  0.0295 -0.1917
12479SOL    HW241995   7.675   7.925   1.838 -0.5568  0.3963  1.2520
12480SOL     OW41996   8.460   8.190   8.942  0.1591 -0.1500 -0.1152
12480SOL    HW141997   8.392   8.258   8.947  0.3049  0.0210 -0.4123
12480SOL    HW241998   8.481   8.185   8.849 -0.3827 -1.1308 -0.1971
12481SOL     OW41999   6.589   5.362   0.648 -0.3881  0.1478 -0.0481
12481SOL    HW142000   6.545   5.416   0.583 -0.5954  0.4055  0.2972
12481SOL    HW242001   6.620   5.286   0.600 -1.0979  0.0229 -0.3285
12482SOL     OW42002   0.829   2.191   7.970 -0.0716 -0.4963  0.7245
12482SOL    HW142003   0.774   2.230   7.902 -0.0416 -0.0534  0.9461
12482SOL    HW242004   0.864   2.111   7.931 -2.3024 -1.7811  1.1974
12483SOL     OW42005   5.735   2.037  12.016  0.7080  0.3273 -0.7392
12483SOL    HW142006   5.681   1.987  12.076  0.7535  0.6612 -0.4187
12483SOL    HW242007   5.703   2.013  11.929 -0.6735  1.3023 -0.5452
12484SOL     OW42008   2.145   7.890   0.355  0.2559  0.0977  0.2993
12484SOL    HW142009   2.094   7.958   0.311 -0.0460  0.3502  1.0245
12484SOL    HW242010   2.162   7.825   0.287 -1.5131 -0.2696  0.1460
12485SOL     OW42011   6.960   5.065   2.802 -0.1298  0.1060  0.2388
12485SOL    HW142012   6.955   5.066   2.898 -1.4897 -0.4728  0.1910
12485SOL    HW242013   6.996   4.978   2.782 -1.1603 -0.3245  0.1951
12486SOL     OW42014   3.249  10.209   8.066 -0.1361 -1.1409 -0.5960
12486SOL    HW142015   3.181  10.195   8.000 -0.0972  1.0783 -1.1956
12486SOL    HW242016   3.202  10.206   8.149 -1.2165  1.2088 -1.0379
12487SOL     OW42017   1.841  10.798   5.425  0.6803  0.7304  0.1319
12487SOL    HW142018   1.837  10.804   5.521  0.9184 -0.7333  0.2556
12487SOL    HW242019   1.933  10.814   5.405  0.7604  0.3869  0.2132
12488SOL     OW42020   0.137   8.333   9.279 -0.1383  0.3412  0.2600
12488SOL    HW142021   0.138   8.295   9.191 -1.0893  0.0448  0.3649
12488SOL    HW242022   0.228   8.328   9.308  0.2211  0.6076 -0.7689
12489SOL     OW42023   0.468  10.069   0.449  0.1728  0.0450  0.0317
12489SOL    HW142024   0.540  10.132   0.446  0.0039  0.2064 -1.9781
12489SOL    HW242025   0.413  10.093   0.375 -0.9462 -1.2628  0.4061
12490SOL     OW42026   9.522   7.163   3.158 -0.1399 -0.3064  0.1131
12490SOL    HW142027   9.454   7.228   3.173 -0.8750 -0.8912 -0.6268
12490SOL    HW242028   9.501   7.125   3.073  0.5479 -1.1833  0.3221
12491SOL     OW42029   7.267   6.819   8.143  0.4970 -0.0180  0.3402
12491SOL    HW142030   7.199   6.778   8.090  1.4834 -2.1237  0.6235
12491SOL    HW242031   7.220   6.887   8.193 -1.3621 -1.2455  0.3641
12492SOL     OW42032   6.263   2.734   8.346  0.7517 -0.0088 -0.2928
12492SOL    HW142033   6.182   2.690   8.370 -1.0751  2.8881 -0.7190
12492SOL    HW242034   6.277   2.711   8.254  1.5299 -1.9900  0.2577
12493SOL     OW42035   0.314   4.431   1.539  0.2243  0.1897 -0.3019
12493SOL    HW142036   0.241   4.392   1.492 -0.6860  1.2460  0.1647
12493SOL    HW242037   0.392   4.403   1.491 -0.2992 -2.4968  0.2635
12494SOL     OW42038   4.333  10.030  11.970  0.1235  0.2273 -0.0736
12494SOL    HW142039   4.408  10.084  11.994 -0.1046  0.7183 -0.4603
12494SOL    HW242040   4.273  10.090  11.926  0.3218 -0.5488 -1.4544
12495SOL     OW42041   6.254   2.398   7.122 -0.4132 -0.0642  0.5779
12495SOL    HW142042   6.337   2.441   7.100 -0.2684 -1.1335 -1.1383
12495SOL    HW242043   6.207   2.392   7.039 -0.8969 -2.1548  0.9459
12496SOL     OW42044   0.258  11.208   6.059  0.2727 -0.6170  0.2799
12496SOL    HW142045   0.275  11.292   6.102 -0.5016  0.0984 -0.7607
12496SOL    HW242046   0.195  11.164   6.117 -0.0010 -0.0955  0.3875
12497SOL     OW42047   8.855   1.165   3.131 -0.2251 -0.0522 -0.0630
12497SOL    HW142048   8.827   1.228   3.064  0.9691 -0.9329 -1.4342
12497SOL    HW242049   8.789   1.097   3.129 -0.1204 -0.1467 -0.4695
12498SOL     OW42050   4.005   5.405   6.052  0.1712 -0.5192 -0.2312
12498SOL    HW142051   4.024   5.478   6.111  1.3309 -0.3476 -0.7787
12498SOL    HW242052   3.987   5.331   6.110 -0.6223  0.0978  0.3297
12499SOL     OW42053   5.849   0.301   7.139 -0.1481  0.0166 -0.1227
12499SOL    HW142054   5.894   0.360   7.079 -0.9123 -1.4494 -2.2404
12499SOL    HW242055   5.761   0.293   7.103 -0.3085 -1.7500  0.5601
12500SOL     OW42056   5.250   3.305  11.825  0.2238 -0.3415 -0.0658
12500SOL    HW142057   5.251   3.390  11.869 -0.5675 -0.9979  1.2783
12500SOL    HW242058   5.159   3.294  11.797  0.6297 -0.1300 -1.5164
12501SOL     OW42059  11.538   1.788   4.146  0.4068  0.1721 -0.1451
12501SOL    HW142060  11.609   1.830   4.098  0.7431  1.5459  1.4624
12501SOL    HW242061  11.477   1.860   4.166 -0.9866 -0.8099 -0.6726
12502SOL     OW42062   3.162   0.191  11.794  0.3556  0.2633 -0.0643
12502SOL    HW142063   3.209   0.261  11.748 -1.2282  1.6665  0.3690
12502SOL    HW242064   3.168   0.116  11.735  1.8839  0.8100 -0.6597
12503SOL     OW42065   2.448   3.740   1.817 -0.0267 -0.3917  0.2986
12503SOL    HW142066   2.441   3.678   1.744 -0.7271 -0.5285  0.4697
12503SOL    HW242067   2.542   3.753   1.829  0.1029 -0.6769 -0.3675
12504SOL     OW42068   2.621   6.018   6.785 -0.4130  0.0942 -0.7885
12504SOL    HW142069   2.573   5.936   6.778  0.1284 -0.3050  0.0252
12504SOL    HW242070   2.652   6.036   6.696  0.8978 -1.4782 -0.6921
12505SOL     OW42071   7.137   7.544   9.549 -0.1084 -0.2354 -0.0286
12505SOL    HW142072   7.173   7.626   9.516 -3.4710  0.8004 -1.6672
12505SOL    HW242073   7.043   7.563   9.561 -0.8973 -3.6431  0.2046
12506SOL     OW42074   0.851  10.716   2.247  0.1330  0.1534 -0.6667
12506SOL    HW142075   0.879  10.627   2.268  0.1057  0.1637 -0.5904
12506SOL    HW242076   0.821  10.753   2.330  0.6324  0.4114 -0.5992
12507SOL     OW42077   9.793   8.191   4.507  0.0405 -0.2389 -0.4044
12507SOL    HW142078   9.888   8.201   4.512  0.0037  1.2578 -1.9947
12507SOL    HW242079   9.776   8.156   4.420 -0.9794  1.9410 -1.1566
12508SOL     OW42080  11.797   8.974   0.296 -0.2937 -0.4285  0.9048
12508SOL    HW142081  11.785   8.899   0.354  1.7678  0.0916  2.1015
12508SOL    HW242082  11.830   9.044   0.353  3.1379 -0.2844 -0.9526
12509SOL     OW42083   8.534   1.023  10.898  0.0944  0.4029 -0.0303
12509SOL    HW142084   8.599   0.970  10.853 -0.2575  0.7817 -1.0189
12509SOL    HW242085   8.450   0.994  10.863 -0.2957 -0.1099  1.2610
12510SOL     OW42086  11.123   7.488  11.507  0.2030 -1.0430  0.2228
12510SOL    HW142087  11.148   7.497  11.415  1.3467 -1.9383  0.4271
12510SOL    HW242088  11.098   7.576  11.534 -1.0531 -0.9323 -1.1849
12511SOL     OW42089   4.973   3.601   6.224 -0.3344 -0.0941 -0.0098
12511SOL    HW142090   5.025   3.575   6.147 -0.1141  0.2201  0.0303
12511SOL    HW242091   4.890   3.632   6.187 -0.9561 -1.6520 -0.0145
12512SOL     OW42092   1.023  11.249   5.086 -0.0103  0.2537  0.0207
12512SOL    HW142093   0.951  11.187   5.101  0.2136 -0.0202 -0.0362
12512SOL    HW242094   0.979  11.334   5.079 -0.2477  0.2167  0.8919
12513SOL     OW42095   3.365   0.332   8.317 -0.0348  0.4762 -0.3148
12513SOL    HW142096   3.290   0.280   8.346  1.4257 -0.6452  1.7531
12513SOL    HW242097   3.327   0.416   8.292 -2.0786 -0.3568 -0.2733
12514SOL     OW42098  10.965   7.540   7.254  0.1185 -0.9281  0.4840
12514SOL    HW142099  10.897   7.516   7.317  0.0542  3.0046  2.2327
12514SOL    HW242100  10.924   7.607   7.200  2.2130  0.8879  0.9903
12515SOL     OW42101   6.778  10.463   4.908  0.0574  0.1996 -0.4368
12515SOL    HW142102   6.684  10.477   4.895 -0.0386 -0.5885 -0.6440
12515SOL    HW242103   6.818  10.507   4.833 -0.2132 -0.3327 -0.9004
12516SOL     OW42104   6.563   2.430  10.794 -0.0751 -0.1886  0.4007
12516SOL    HW142105   6.514   2.413  10.874  0.1852 -0.4643  0.5035
12516SOL    HW242106   6.636   2.368  10.796 -0.4116 -0.6239 -0.3467
12517SOL     OW42107   8.367   4.313  10.819 -0.2091  0.3555  0.3858
12517SOL    HW142108   8.342   4.283  10.906  0.3483  3.3468  1.6830
12517SOL    HW242109   8.462   4.304  10.817 -0.3417 -1.5469 -0.7599
12518SOL     OW42110   0.053   3.631   3.417  0.3100 -0.4315 -0.3892
12518SOL    HW142111   0.061   3.611   3.511  1.4163  2.1118  0.1212
12518SOL    HW242112  -0.034   3.670   3.408 -0.1998 -1.5607 -0.6628
12519SOL     OW42113   6.480   2.725   6.067  0.2049 -0.8951 -0.2494
12519SOL    HW142114   6.553   2.663   6.072 -0.3175 -1.5430 -0.4481
12519SOL    HW242115   6.443   2.712   5.980  0.5193  0.2121 -0.5603
12520SOL     OW42116   7.588   8.917   3.333 -0.6491 -0.6510  0.6333
12520SOL    HW142117   7.611   8.839   3.283 -1.6750 -0.1001 -0.7853
12520SOL    HW242118   7.645   8.986   3.298  0.1966 -0.7192  1.8207
12521SOL     OW42119   8.058  10.991   2.839  0.2006 -0.5465 -0.7173
12521SOL    HW142120   7.999  11.066   2.852  0.1786 -0.5726 -0.6629
12521SOL    HW242121   8.063  10.980   2.745  0.1804 -0.4947 -0.7246
12522SOL     OW42122   3.215   7.326   9.060  0.1751  0.0530 -0.4623
12522SOL    HW142123   3.176   7.346   8.974  0.4933  0.1014 -0.5949
12522SOL    HW242124   3.288   7.268   9.039 -0.5243 -0.9946 -0.1194
12523SOL     OW42125  11.430   9.528   0.665  0.7192  0.1228 -0.2706
12523SOL    HW142126  11.502   9.549   0.724  0.5774 -1.2631  0.4237
12523SOL    HW242127  11.463   9.551   0.578  1.7234  0.1744  0.1140
12524SOL     OW42128  11.913   4.008   8.956 -0.0985  0.3525 -0.3726
12524SOL    HW142129  11.893   4.056   9.037 -0.3929  0.3231 -0.4250
12524SOL    HW242130  11.830   4.010   8.907 -0.1226 -0.2443 -0.3546
12525SOL     OW42131   9.261   5.685   7.289 -0.2205 -0.5621  0.4386
12525SOL    HW142132   9.252   5.671   7.383 -0.2301 -1.0340  0.3671
12525SOL    HW242133   9.190   5.633   7.250 -0.5932  0.1020  0.2051
12526SOL     OW42134   6.409   7.016   3.671  0.2548  0.0566  0.7248
12526SOL    HW142135   6.386   6.940   3.724 -0.4683  0.4247  0.9528
12526SOL    HW242136   6.489   6.990   3.625  0.2172 -0.7046  1.0753
12527SOL     OW42137   1.702  10.922  10.851  0.4938  0.4401 -0.4617
12527SOL    HW142138   1.694  10.843  10.797 -1.3437  0.8532 -0.8772
12527SOL    HW242139   1.699  10.994  10.788 -1.5767  0.9303  0.1062
12528SOL     OW42140   7.829   0.705   6.123 -0.1189 -0.4488  0.3588
12528SOL    HW142141   7.827   0.778   6.063 -0.2404 -0.7829 -0.0480
12528SOL    HW242142   7.901   0.649   6.093 -0.6116 -0.9604  0.1010
12529SOL     OW42143   4.232   3.476   0.755  0.1089 -0.3471  0.2040
12529SOL    HW142144   4.258   3.547   0.815  1.6638  0.2565 -1.0947
12529SOL    HW242145   4.142   3.455   0.780 -0.1994  1.6821  1.0426
12530SOL     OW42146   8.928   8.455   9.853  0.2145  0.5711 -0.3360
12530SOL    HW142147   8.854   8.499   9.896  1.4166  1.6644  0.7291
12530SOL    HW242148   8.965   8.399   9.921 -0.2251 -0.7604 -1.1669
12531SOL     OW42149   2.605   7.007   5.872  0.0261 -0.3038 -0.2423
12531SOL    HW142150   2.575   7.004   5.781  0.9189  3.2651 -0.7984
12531SOL    HW242151   2.695   6.975   5.868  0.2933  0.4846 -0.7597
12532SOL     OW42152   4.639   3.327  11.042  0.0429 -0.1682 -0.4636
12532SOL    HW142153   4.650   3.354  11.133 -1.3675 -0.6463 -0.1393
12532SOL    HW242154   4.728   3.331  11.006  0.9620 -1.7218  1.4154
12533SOL     OW42155   8.869   4.561   8.810 -0.0538 -0.6735 -0.1065
12533SOL    HW142156   8.802   4.629   8.810 -0.5779 -1.1741 -0.4474
12533SOL    HW242157   8.880   4.539   8.717 -1.1767 -2.2786  0.0976
12534SOL     OW42158   9.496   5.360   5.745 -0.2454  0.4522  0.1736
12534SOL    HW142159   9.432   5.310   5.794 -0.4942  1.5580  0.9976
12534SOL    HW242160   9.562   5.386   5.810  0.7840 -0.2384 -0.5606
12535SOL     OW42161   4.545   6.185   9.141 -0.2132 -0.0599 -0.7906
12535SOL    HW142162   4.503   6.269   9.161 -0.1997 -0.2474  0.0666
12535SOL    HW242163   4.550   6.183   9.046 -0.5614  0.7448 -0.8355
12536SOL     OW42164   4.957   9.499   9.941  0.1010  0.2757 -0.0649
12536SOL    HW142165   4.980   9.442   9.868  1.6296  0.0843  0.5338
12536SOL    HW242166   4.881   9.548   9.910 -0.2818 -0.9547 -1.1742
12537SOL     OW42167   3.231   8.978  10.661 -0.0780 -0.3694  0.6914
12537SOL    HW142168   3.161   8.914  10.676  0.3897 -0.8254  0.9949
12537SOL    HW242169   3.299   8.928  10.615  0.1976 -0.0351  0.7311
12538SOL     OW42170   3.968   8.497   1.631 -0.3094  0.4251 -0.1471
12538SOL    HW142171   3.963   8.584   1.591  0.3898  0.2944 -0.5402
12538SOL    HW242172   4.038   8.505   1.697  1.1235 -0.3335 -1.5151
12539SOL     OW42173   1.118   8.789   0.136 -0.0250 -0.7040 -0.4190
12539SOL    HW142174   1.091   8.844   0.209  2.9926 -0.9243  1.0016
12539SOL    HW242175   1.153   8.850   0.071 -0.5301 -0.6858 -0.6824
12540SOL     OW42176   9.830   5.144   6.891  0.0722  0.6146  0.8157
12540SOL    HW142177   9.734   5.151   6.899 -0.1532  0.8245 -1.3635
12540SOL    HW242178   9.852   5.062   6.934 -1.1248  0.3809  1.0246
12541SOL     OW42179   2.064   5.534   7.042 -0.0868 -0.4742 -0.0839
12541SOL    HW142180   1.975   5.543   7.010  0.0185 -0.2482 -0.3101
12541SOL    HW242181   2.054   5.513   7.135 -0.3660  0.0381 -0.0001
12542SOL     OW42182   8.918   5.635   6.947  0.9635  0.3705 -0.5367
12542SOL    HW142183   8.920   5.581   6.868  0.8637 -0.0813 -0.2371
12542SOL    HW242184   8.852   5.702   6.929 -0.2324 -0.6795 -0.2411
12543SOL     OW42185   8.194   4.844   0.940  0.2870  0.1292  0.1077
12543SOL    HW142186   8.179   4.794   0.860 -0.8077 -0.0292  0.3871
12543SOL    HW242187   8.145   4.926   0.926  2.0007  1.1309 -0.3203
12544SOL     OW42188   9.846   6.668   9.082  0.3895  0.3003  0.3016
12544SOL    HW142189   9.807   6.677   8.995  1.6837 -0.6069 -0.4056
12544SOL    HW242190   9.922   6.612   9.069  0.5758  0.0802  2.0458
12545SOL     OW42191   6.929   1.874   1.017 -0.4897 -0.0963 -0.3283
12545SOL    HW142192   6.965   1.948   0.969 -0.8448  0.5400  0.3581
12545SOL    HW242193   6.971   1.880   1.103 -1.6887  0.2461  0.2510
12546SOL     OW42194   7.043   6.858   4.083  0.6429 -0.0253 -0.2095
12546SOL    HW142195   7.116   6.915   4.059  0.9793 -0.3487  0.0376
12546SOL    HW242196   6.968   6.917   4.089  1.0171  0.4217  0.1834
12547SOL     OW42197   2.909  11.920   2.384  0.5079 -0.4307  0.0787
12547SOL    HW142198   2.988  11.956   2.424 -0.0182  0.4583  0.3477
12547SOL    HW242199   2.847  11.993   2.384  0.1091 -0.7466 -1.2947
12548SOL     OW42200   7.100   9.951  11.181 -0.1566 -0.5568 -0.7313
12548SOL    HW142201   7.147   9.975  11.261 -0.9398 -1.3377 -0.0148
12548SOL    HW242202   7.078   9.859  11.194 -0.2742 -0.6955 -1.8718
12549SOL     OW42203   7.698   8.650  10.582 -0.1311  0.4130  0.4868
12549SOL    HW142204   7.706   8.557  10.602 -2.6277 -0.1213 -0.6534
12549SOL    HW242205   7.777   8.671  10.532 -0.2036 -1.4757 -0.4801
12550SOL     OW42206   5.469   9.938   7.789  0.0104  0.5107  0.3751
12550SOL    HW142207   5.550   9.934   7.840 -0.2845  1.3307  0.9213
12550SOL    HW242208   5.420   9.860   7.816  0.5960  0.0178  0.0525
12551SOL     OW42209   3.243  11.226   8.167 -0.0388 -0.5019  0.1455
12551SOL    HW142210   3.280  11.151   8.120  1.3164  0.2975 -0.1209
12551SOL    HW242211   3.279  11.218   8.256  0.4663  0.0632 -0.0037
12552SOL     OW42212   8.954  10.834   8.584  0.3283  0.5975 -0.0733
12552SOL    HW142213   8.951  10.860   8.492 -0.3555 -0.3173 -0.3298
12552SOL    HW242214   8.870  10.864   8.620  0.1322  0.0181 -0.0299
12553SOL     OW42215   0.688   6.775  10.079 -0.2648 -0.0582 -0.3891
12553SOL    HW142216   0.705   6.788  10.172  1.5834 -0.2072 -0.6702
12553SOL    HW242217   0.716   6.857  10.038 -2.1501  0.4595 -0.7328
12554SOL     OW42218  11.789   8.614   8.131 -0.6410 -0.0448 -0.7587
12554SOL    HW142219  11.885   8.611   8.130 -0.6469 -1.3636 -2.1366
12554SOL    HW242220  11.764   8.608   8.038 -2.0545 -1.4123 -0.3356
12555SOL     OW42221   3.808   8.729   5.379  0.2432 -0.0648 -0.0959
12555SOL    HW142222   3.739   8.702   5.318  0.6207 -1.0789 -0.0937
12555SOL    HW242223   3.762   8.738   5.463  0.1739 -1.1766  0.0023
12556SOL     OW42224   7.861   8.152   7.663  0.4090 -0.2537  0.2793
12556SOL    HW142225   7.939   8.150   7.719  0.6369 -1.0439 -0.0508
12556SOL    HW242226   7.827   8.063   7.667  1.1139 -0.6587 -1.7965
12557SOL     OW42227   9.196   8.587   3.730  0.3082 -0.0780  0.7782
12557SOL    HW142228   9.142   8.667   3.730 -1.8793 -1.4728  0.5902
12557SOL    HW242229   9.259   8.601   3.659 -1.5287  0.5761 -0.8139
12558SOL     OW42230   8.278   0.046   3.164 -0.1667  0.3233 -0.1568
12558SOL    HW142231   8.330   0.100   3.224  0.3040  0.0407 -0.3092
12558SOL    HW242232   8.250  -0.029   3.218 -0.3651  0.4403 -0.0939
12559SOL     OW42233   2.481   3.663  10.866 -0.0429  0.2432  0.2984
12559SOL    HW142234   2.514   3.621  10.946 -3.6007 -2.7436  0.4638
12559SOL    HW242235   2.493   3.596  10.798  0.7083  1.8395 -1.2180
12560SOL     OW42236   3.928  10.623  11.513  0.7702 -0.9406 -0.1925
12560SOL    HW142237   3.973  10.680  11.451  0.5517 -1.4134 -0.7964
12560SOL    HW242238   3.996  10.564  11.545  0.8492 -0.8003 -0.0995
12561SOL     OW42239   0.609   4.442   3.159 -0.0528  0.0531 -0.2341
12561SOL    HW142240   0.697   4.406   3.151 -0.1479 -0.3074  0.2597
12561SOL    HW242241   0.558   4.372   3.200  0.1942  1.3620  2.5277
12562SOL     OW42242   9.913   0.313  11.428 -0.0701 -0.1527 -0.1693
12562SOL    HW142243   9.986   0.283  11.482  0.7310  0.3107 -0.9704
12562SOL    HW242244   9.953   0.338  11.345 -1.4382 -2.3767 -1.6131
12563SOL     OW42245   0.967   8.171  10.895 -0.3768  0.4038 -0.5687
12563SOL    HW142246   0.904   8.201  10.829  0.9269 -0.3778 -2.2561
12563SOL    HW242247   1.039   8.234  10.889  0.3293 -0.4038 -0.8572
12564SOL     OW42248   0.821   9.327   9.093 -0.5658  0.2237  0.3326
12564SOL    HW142249   0.786   9.365   9.012  0.1040  0.6128  0.2209
12564SOL    HW242250   0.815   9.398   9.157 -0.0931  0.2572  0.3431
12565SOL     OW42251   5.904   0.330   5.403  0.0853  0.1031 -0.1570
12565SOL    HW142252   5.898   0.410   5.455  0.8744 -0.9742  1.6662
12565SOL    HW242253   5.995   0.328   5.374  0.3480 -0.6415  0.6872
12566SOL     OW42254  10.711   3.154   5.110 -0.4428 -0.2545  0.4753
12566SOL    HW142255  10.800   3.133   5.138 -0.5459 -1.2402  0.0968
12566SOL    HW242256  10.662   3.164   5.191 -0.5398 -2.2125  0.7134
12567SOL     OW42257   2.950   2.785   2.385  0.2200 -0.4679  0.1086
12567SOL    HW142258   3.000   2.831   2.317 -0.9375  0.5297 -0.0993
12567SOL    HW242259   2.859   2.806   2.366 -0.1780 -0.9155  1.4457
12568SOL     OW42260   3.456   7.911   9.548  0.2509  0.0489  0.1490
12568SOL    HW142261   3.546   7.900   9.517  0.3330  0.8402  0.0858
12568SOL    HW242262   3.438   8.004   9.536 -0.8962 -0.2682 -0.6973
12569SOL     OW42263   4.736   3.528   8.499 -0.0103 -0.1043  0.3964
12569SOL    HW142264   4.815   3.475   8.511 -0.2074  0.0549  2.7690
12569SOL    HW242265   4.737   3.590   8.571 -1.8640  0.4930 -0.0374
12570SOL     OW42266   4.974   4.808  10.040  0.3079  0.9418 -0.6585
12570SOL    HW142267   4.914   4.734  10.028 -0.5897  1.9376 -2.7648
12570SOL    HW242268   5.004   4.800  10.131 -1.1673 -0.9524 -0.2778
12571SOL     OW42269  10.134   6.804  10.334 -0.2397  0.2816  0.2435
12571SOL    HW142270  10.218   6.758  10.328 -0.0783 -0.0182  3.4570
12571SOL    HW242271  10.074   6.741  10.372 -1.2115  1.3489  0.5404
12572SOL     OW42272  11.055   1.720   0.920  0.5261  0.1411  0.0549
12572SOL    HW142273  11.071   1.625   0.919 -0.4919 -0.0539 -1.1177
12572SOL    HW242274  11.009   1.736   0.838  0.2250  1.5852  0.4914
12573SOL     OW42275  10.244   5.568   9.643  0.0543 -0.6949 -0.3244
12573SOL    HW142276  10.257   5.641   9.582 -1.0581  0.2822  0.5718
12573SOL    HW242277  10.218   5.609   9.725 -0.9735 -2.1238  0.0990
12574SOL     OW42278   5.584   4.146   3.145  0.0497  0.0614 -0.3947
12574SOL    HW142279   5.638   4.150   3.224  0.2639 -0.2064 -0.5251
12574SOL    HW242280   5.602   4.229   3.100 -1.4887  1.0723  0.7377
12575SOL     OW42281   1.703   9.987   6.313  0.2474  0.7120 -0.6037
12575SOL    HW142282   1.736  10.030   6.392 -0.8045 -0.5875  0.5973
12575SOL    HW242283   1.632  10.044   6.283  0.5188  1.1081 -0.5055
12576SOL     OW42284   4.174  11.557   6.543 -0.3653 -0.1285 -0.2368
12576SOL    HW142285   4.258  11.524   6.574  0.3608  1.5387 -0.3468
12576SOL    HW242286   4.110  11.494   6.576  0.8137 -0.8106  0.8156
12577SOL     OW42287   6.175   6.987   1.357  0.4393  0.2226  0.1647
12577SOL    HW142288   6.108   6.921   1.339  0.9259 -0.1028 -0.4424
12577SOL    HW242289   6.127   7.070   1.356  0.1975  0.0775 -1.1565
12578SOL     OW42290   6.636   1.900   1.757  0.0531 -0.4289  0.0597
12578SOL    HW142291   6.710   1.928   1.811  0.5435  0.3314 -0.9770
12578SOL    HW242292   6.676   1.850   1.686 -0.5497 -1.0451  0.1430
12579SOL     OW42293   9.934   9.170   1.096 -0.0815 -0.2729 -0.1553
12579SOL    HW142294   9.978   9.156   1.180  1.7474  1.9550 -0.6289
12579SOL    HW242295   9.990   9.127   1.032 -0.5462 -0.4892 -0.4216
12580SOL     OW42296  10.755   5.191   0.264 -0.3928 -0.1018  0.6720
12580SOL    HW142297  10.815   5.117   0.252 -1.0365 -0.5114 -0.0973
12580SOL    HW242298  10.669   5.150   0.270 -1.1364  0.7118 -2.5885
12581SOL     OW42299   0.133   2.259  11.023  0.4485 -0.2095  0.1737
12581SOL    HW142300   0.183   2.234  11.101  0.6138 -0.3626  0.0199
12581SOL    HW242301   0.044   2.270  11.055  0.8322  1.6105  0.7802
12582SOL     OW42302   3.963   9.608   0.819 -0.0322  0.3132 -0.1588
12582SOL    HW142303   3.896   9.668   0.853  0.9844  2.3179 -1.5065
12582SOL    HW242304   4.030   9.606   0.887  1.2429  3.0373 -1.1875
12583SOL     OW42305   0.389   6.734   1.282  0.2531 -0.1332  0.0328
12583SOL    HW142306   0.452   6.790   1.328  0.3289  0.7082 -1.0407
12583SOL    HW242307   0.442   6.665   1.243  0.5877  0.7502 -1.1320
12584SOL     OW42308   0.375   2.624   8.169  0.3202  0.1442 -0.6488
12584SOL    HW142309   0.341   2.666   8.248  2.2375 -1.0702  0.9144
12584SOL    HW242310   0.322   2.545   8.158  1.2442 -0.6891  0.6050
12585SOL     OW42311   1.054   9.423   0.707 -0.2460  0.0862  0.0110
12585SOL    HW142312   1.142   9.394   0.681  0.1935  0.4945  0.9873
12585SOL    HW242313   1.031   9.490   0.642 -1.0355 -1.9385 -1.9311
12586SOL     OW42314   6.227   4.640  10.972  0.0490  0.0986 -0.4828
12586SOL    HW142315   6.163   4.703  11.006  1.5413  2.0860 -1.1268
12586SOL    HW242316   6.200   4.556  11.008 -1.1272  1.3455  1.7513
12587SOL     OW42317  11.164  11.978   6.437  0.3885  0.0938 -0.3234
12587SOL    HW142318  11.182  12.013   6.349 -0.2344 -1.2892 -1.0298
12587SOL    HW242319  11.144  12.056   6.490 -0.2559  0.8769 -1.6512
12588SOL     OW42320   5.505   3.423   2.908  0.1083 -0.3681 -0.1789
12588SOL    HW142321   5.453   3.438   2.987 -4.1834  1.1209 -2.9248
12588SOL    HW242322   5.554   3.504   2.897 -1.2275  0.4654 -0.2711
12589SOL     OW42323   9.067   8.230   8.851 -0.3614  0.3039  0.1915
12589SOL    HW142324   9.144   8.177   8.870 -0.1493  1.0852  1.5614
12589SOL    HW242325   8.994   8.167   8.852 -0.0959 -0.0102  1.6857
12590SOL     OW42326   0.871   1.713   9.567 -0.0654 -0.2591 -0.3444
12590SOL    HW142327   0.842   1.702   9.658 -0.4297  1.0699 -0.2743
12590SOL    HW242328   0.966   1.709   9.571 -0.1133 -2.4330 -0.2465
12591SOL     OW42329   6.581   5.864   2.557 -0.0413 -0.0237 -0.3742
12591SOL    HW142330   6.594   5.833   2.646 -0.1442  0.4469 -0.1929
12591SOL    HW242331   6.498   5.825   2.529 -0.1452  0.0494 -0.1670
12592SOL     OW42332  11.692   7.815   3.339  0.3386 -0.6365  0.0076
12592SOL    HW142333  11.761   7.764   3.297 -0.8890 -0.3759 -2.5134
12592SOL    HW242334  11.624   7.824   3.272 -1.5378  0.3406  1.8952
12593SOL     OW42335  10.555   2.674   0.367  0.2029  0.0918  0.3943
12593SOL    HW142336  10.627   2.711   0.419 -0.8174  1.4621  0.9083
12593SOL    HW242337  10.485   2.659   0.430 -0.3414 -0.1740 -0.2606
12594SOL     OW42338  11.084   3.076   3.645 -0.5135 -0.0811  0.1211
12594SOL    HW142339  11.154   3.136   3.669 -2.7135  2.2159  1.2847
12594SOL    HW242340  11.051   3.043   3.729 -0.9446 -0.9764 -0.3880
12595SOL     OW42341   4.348   8.336   0.862 -0.3110  0.2852 -0.7301
12595SOL    HW142342   4.342   8.382   0.945  1.9999  0.0555 -0.3820
12595SOL    HW242343   4.277   8.272   0.865 -0.8994  0.9615  0.6076
12596SOL     OW42344   0.646   1.780   4.780  0.7083  0.1132  0.3702
12596SOL    HW142345   0.712   1.743   4.722  1.6636  1.6782  0.3915
12596SOL    HW242346   0.654   1.729   4.861  0.1541 -1.3305 -0.4519
12597SOL     OW42347  10.525   2.207   1.519  0.0042 -0.1920  0.0726
12597SOL    HW142348  10.456   2.273   1.523 -0.2389 -0.4915  1.0594
12597SOL    HW242349  10.537   2.191   1.425  1.8123  3.0225 -0.3985
12598SOL     OW42350   0.452   9.091   5.587  0.1731 -0.2958  0.2896
12598SOL    HW142351   0.414   9.144   5.657 -1.3574  0.7228 -1.2113
12598SOL    HW242352   0.377   9.047   5.547  1.1404 -1.6822 -0.0420
12599SOL     OW42353   5.676  10.313   3.819  0.2689 -0.5632 -0.0986
12599SOL    HW142354   5.771  10.325   3.811  0.2479 -0.9647 -1.1851
12599SOL    HW242355   5.664  10.271   3.904  0.9878  0.1640  0.3890
12600SOL     OW42356  11.465   6.901   6.673 -0.0746 -0.1975  0.5670
12600SOL    HW142357  11.519   6.897   6.595  0.2135  1.7690  0.6101
12600SOL    HW242358  11.384   6.942   6.645 -1.3868 -2.5862  0.6319
12601SOL     OW42359   1.981   2.272   9.363  0.0301 -0.0897 -0.1491
12601SOL    HW142360   1.904   2.258   9.308 -1.7136  0.2589  2.0597
12601SOL    HW242361   1.997   2.367   9.359  0.5498 -0.1937 -0.8075
12602SOL     OW42362   4.877   8.849   7.412 -0.4514  0.0737  1.1229
12602SOL    HW142363   4.916   8.807   7.335 -3.9895  0.2894 -1.0100
12602SOL    HW242364   4.948   8.853   7.476  2.6651 -0.3051 -2.0178
12603SOL     OW42365   1.239   5.445   1.920 -0.4588  0.8739  0.0382
12603SOL    HW142366   1.266   5.522   1.969  3.5164  0.0823 -0.5761
12603SOL    HW242367   1.285   5.453   1.836 -2.6141 -0.5669 -1.3901
12604SOL     OW42368   0.155   2.606   5.886  0.0699  0.1894  0.2969
12604SOL    HW142369   0.168   2.662   5.963 -0.2329  0.5198  0.1078
12604SOL    HW242370   0.198   2.653   5.815  2.4306 -1.1983  0.6832
12605SOL     OW42371   4.159  11.610   7.788  0.8852 -0.4205 -0.0027
12605SOL    HW142372   4.105  11.532   7.778  0.3156  0.1770 -2.1563
12605SOL    HW242373   4.244  11.584   7.752  1.2426 -0.5493  0.9050
12606SOL     OW42374   6.686   0.102   3.179 -0.0995 -0.2415  0.2012
12606SOL    HW142375   6.637   0.161   3.237  0.0644 -1.5055  1.6908
12606SOL    HW242376   6.755   0.156   3.143 -2.1798  1.4644 -1.5135
12607SOL     OW42377   5.551   1.154   0.404  0.3589 -0.3542 -0.5526
12607SOL    HW142378   5.593   1.231   0.365  0.5287  0.8546  1.8353
12607SOL    HW242379   5.458   1.164   0.384  0.1039  1.5259  1.2467
12608SOL     OW42380   0.714  11.746   9.922  0.3618 -0.3000  0.4151
12608SOL    HW142381   0.690  11.656   9.901 -0.4409 -0.1398  0.6281
12608SOL    HW242382   0.631  11.789   9.943  0.8464  0.2465  1.2546
12609SOL     OW42383  10.567   3.651   9.700 -0.3549  0.2484  0.3315
12609SOL    HW142384  10.626   3.599   9.645  0.8525  0.8053  1.0612
12609SOL    HW242385  10.505   3.690   9.638 -0.8801 -1.5050 -0.2961
12610SOL     OW42386   6.480   9.572   1.205  0.2943 -0.5891 -0.3004
12610SOL    HW142387   6.443   9.575   1.117 -0.2772 -0.3281 -0.0551
12610SOL    HW242388   6.453   9.487   1.240  0.6562 -0.7609 -0.4305
12611SOL     OW42389   8.666   2.306  10.169  0.1553 -0.2429 -0.5285
12611SOL    HW142390   8.713   2.388  10.183 -0.5437  0.3350 -1.4645
12611SOL    HW242391   8.576   2.326  10.195  0.1085 -0.9032 -0.1702
12612SOL     OW42392   9.005  10.297   9.407 -0.1660  0.1223 -0.2288
12612SOL    HW142393   8.969  10.236   9.343  0.2891 -0.0926 -0.2847
12612SOL    HW242394   8.975  10.263   9.492  0.0918 -0.1842 -0.2594
12613SOL     OW42395  11.199   6.069   2.818 -0.2472 -0.3819  1.0090
12613SOL    HW142396  11.152   5.986   2.825  1.3110 -1.3007  1.0747
12613SOL    HW242397  11.278   6.055   2.870 -0.0305  1.2116  1.1424
12614SOL     OW42398   5.383   2.657   0.417  0.2478  0.2894  0.0384
12614SOL    HW142399   5.339   2.679   0.336 -0.0197 -0.3644  0.0013
12614SOL    HW242400   5.465   2.616   0.390 -0.2227 -0.7180  0.0703
12615SOL     OW42401   2.617   0.732   7.111 -0.0585  0.2568  0.1314
12615SOL    HW142402   2.653   0.793   7.175 -1.0628  1.4602 -0.3991
12615SOL    HW242403   2.631   0.775   7.027 -0.0475 -0.6299 -0.3255
12616SOL     OW42404   4.574   9.118   0.952 -0.3378 -0.0174 -0.1534
12616SOL    HW142405   4.645   9.054   0.948  0.5180  0.9578 -1.6575
12616SOL    HW242406   4.610   9.191   1.004  0.1244  0.8513 -1.6411
12617SOL     OW42407   9.197   4.593  11.678 -0.3891 -0.7218  0.1788
12617SOL    HW142408   9.212   4.502  11.654 -0.7589 -0.9730  0.8830
12617SOL    HW242409   9.114   4.593  11.725 -0.9257  0.1509 -0.7311
12618SOL     OW42410   3.959   9.305   1.045  1.0640  0.0520  0.0694
12618SOL    HW142411   3.976   9.293   1.138 -0.9531 -1.7010  0.2895
12618SOL    HW242412   3.919   9.223   1.017  0.5079  0.9813 -2.0835
12619SOL     OW42413   5.543   6.970   3.349  0.1658  0.0715  0.5108
12619SOL    HW142414   5.523   7.036   3.416 -0.0738 -0.8472  1.3722
12619SOL    HW242415   5.458   6.932   3.327  0.1250  0.9434 -0.9675
12620SOL     OW42416   4.156   8.996   6.122 -0.0297  0.0234 -0.4727
12620SOL    HW142417   4.155   8.936   6.197  0.1393 -0.3169 -0.7377
12620SOL    HW242418   4.079   8.971   6.071 -1.0799  1.3383  0.4205
12621SOL     OW42419   9.023  11.176   2.888  0.0476  0.3336  0.2934
12621SOL    HW142420   9.104  11.204   2.931  0.2584  0.4539 -0.1740
12621SOL    HW242421   8.970  11.255   2.881  0.1969  0.4044 -0.0619
12622SOL     OW42422   6.070  10.739   9.640  0.2907  0.1150  0.6772
12622SOL    HW142423   6.013  10.816   9.634 -1.2657 -1.0676 -0.6569
12622SOL    HW242424   6.063  10.711   9.731  0.0179  0.9298  0.9158
12623SOL     OW42425   2.020   3.094   8.299 -0.2081 -0.5251  0.1940
12623SOL    HW142426   2.110   3.112   8.272 -0.3044  0.6137  0.5748
12623SOL    HW242427   1.977   3.062   8.219  0.2914 -0.1642 -0.2229
12624SOL     OW42428   4.527   5.201   5.438  0.4861 -0.4797  0.3607
12624SOL    HW142429   4.599   5.253   5.473  1.6613 -2.4131  0.9604
12624SOL    HW242430   4.455   5.215   5.500  0.7824  0.3759  0.5241
12625SOL     OW42431   1.385   2.363   2.420 -0.0972  0.0965  0.4955
12625SOL    HW142432   1.296   2.337   2.444 -0.1376 -0.4128 -0.1804
12625SOL    HW242433   1.432   2.369   2.503 -0.5996 -0.2372  0.8062
12626SOL     OW42434   6.016   4.733   2.469  0.2480  0.0154 -0.1160
12626SOL    HW142435   6.055   4.673   2.532 -0.1182  0.0969  0.1935
12626SOL    HW242436   6.033   4.820   2.505  1.9680  0.1856 -1.2422
12627SOL     OW42437  11.653   6.031   5.402 -0.3259 -0.6171 -0.3977
12627SOL    HW142438  11.738   6.055   5.440 -1.1767  1.3789  0.4246
12627SOL    HW242439  11.654   5.936   5.399  2.0572 -0.6655 -0.7332
12628SOL     OW42440   4.632   4.149   3.596  0.1213  0.1163  0.3494
12628SOL    HW142441   4.607   4.105   3.678  0.6403 -0.7125  0.0739
12628SOL    HW242442   4.716   4.111   3.573  0.8785  1.6949  0.3992
12629SOL     OW42443   4.743  11.770   0.749 -0.3055  0.3721 -0.2274
12629SOL    HW142444   4.652  11.742   0.765 -0.5874  1.0914 -0.5108
12629SOL    HW242445   4.740  11.814   0.664  0.2873  0.5051 -0.1821
12630SOL     OW42446   6.562  11.725   8.413 -0.3991  0.0878  0.6120
12630SOL    HW142447   6.510  11.700   8.337 -1.9620 -0.1167  1.7104
12630SOL    HW242448   6.571  11.644   8.464 -0.1101  0.4132  1.0850
12631SOL     OW42449   3.298   1.192   2.063  0.2471 -0.4649  0.2167
12631SOL    HW142450   3.387   1.156   2.070 -0.4153 -2.0826  0.6045
12631SOL    HW242451   3.304   1.255   1.991  0.7540 -3.6846 -2.8238
12632SOL     OW42452   5.837   8.118   7.528  0.3363  0.1220 -0.2039
12632SOL    HW142453   5.904   8.182   7.550  1.1628 -0.7931  0.0519
12632SOL    HW242454   5.832   8.120   7.433  1.7415 -0.7332 -0.3413
12633SOL     OW42455   5.392   6.662   1.956  0.1370  0.2490  0.2637
12633SOL    HW142456   5.367   6.741   1.908 -0.6442 -0.0435  0.1831
12633SOL    HW242457   5.346   6.669   2.040 -0.4533 -0.4266  0.0033
12634SOL     OW42458   0.948   2.923   3.396  0.2102  0.2383  0.5417
12634SOL    HW142459   0.891   2.857   3.436  1.1359  0.0541  1.5988
12634SOL    HW242460   0.920   3.006   3.433  0.0833  0.2525  0.4156
12635SOL     OW42461   4.394   1.082   3.345  0.0480 -0.0908  0.5379
12635SOL    HW142462   4.438   1.113   3.424  1.2920 -0.7390  0.1291
12635SOL    HW242463   4.463   1.078   3.279 -1.1309  1.2895 -0.8652
12636SOL     OW42464   3.265   1.306   0.781  0.4229 -0.2191  0.4379
12636SOL    HW142465   3.301   1.298   0.869 -0.1762 -0.2959  0.6827
12636SOL    HW242466   3.337   1.280   0.723  1.3412  1.3330  0.8138
12637SOL     OW42467   1.442   0.095  11.084  0.5337  0.6410 -0.5781
12637SOL    HW142468   1.407   0.173  11.040 -0.4740  0.5551  0.0481
12637SOL    HW242469   1.529   0.122  11.114 -0.0868  1.7861  0.2904
12638SOL     OW42470  10.178  10.071   9.977  0.7846 -0.1222 -0.1379
12638SOL    HW142471  10.101  10.071  10.034 -0.3449 -1.0990 -1.6014
12638SOL    HW242472  10.237  10.007  10.016  1.1182  0.9856  1.2663
12639SOL     OW42473   9.187   5.523  10.478 -0.1268 -0.3109  0.2783
12639SOL    HW142474   9.098   5.505  10.508 -0.4093 -0.2247 -0.4942
12639SOL    HW242475   9.189   5.618  10.465  0.3460 -0.1899  1.1139
12640SOL     OW42476  10.023   2.010  11.272  0.0288  0.3561 -0.4678
12640SOL    HW142477   9.991   1.950  11.204 -1.3975  1.5452 -0.8940
12640SOL    HW242478  10.093   2.059  11.228  0.0990  0.1244 -0.6207
12641SOL     OW42479   9.108   2.225  10.118  0.2907 -0.1470 -0.4963
12641SOL    HW142480   9.158   2.150  10.149  0.3396 -0.0477 -0.3358
12641SOL    HW242481   9.117   2.223  10.022  1.1396  0.2504 -0.4353
12642SOL     OW42482   5.090   1.235   6.286  0.0710  0.2344  0.1749
12642SOL    HW142483   5.018   1.286   6.323  0.7765  1.8742 -0.5900
12642SOL    HW242484   5.053   1.195   6.207 -1.0459 -2.1482  1.8027
12643SOL     OW42485   9.927   5.960   3.523  0.2278  0.5597  0.4609
12643SOL    HW142486   9.929   5.904   3.446  0.1141  1.1822 -0.0009
12643SOL    HW242487   9.932   6.049   3.488  0.9992  0.8291  1.2072
12644SOL     OW42488  11.178   8.324   2.441 -0.7281  0.3102  0.1440
12644SOL    HW142489  11.168   8.419   2.450 -2.0703  0.1819  0.1133
12644SOL    HW242490  11.119   8.288   2.507 -2.5053 -0.5350 -1.8277
12645SOL     OW42491  10.611  10.134   1.701 -0.5868  0.3791  0.7213
12645SOL    HW142492  10.687  10.158   1.647 -0.3562 -2.3046 -0.2691
12645SOL    HW242493  10.536  10.153   1.645 -0.4419 -0.5029  0.2136
12646SOL     OW42494   7.091  11.117   1.864  0.0011 -0.2096 -0.5497
12646SOL    HW142495   7.135  11.061   1.800 -0.8550 -0.5717 -0.8338
12646SOL    HW242496   7.150  11.118   1.940  0.2980 -1.0180 -0.7645
12647SOL     OW42497   5.687   6.555  11.201 -0.4214 -0.2390 -0.2292
12647SOL    HW142498   5.652   6.590  11.120  0.4741 -0.1656 -0.6009
12647SOL    HW242499   5.766   6.507  11.175 -0.2988 -0.4898  0.5548
12648SOL     OW42500   9.625   0.423  11.725 -0.6797 -0.0439 -0.3681
12648SOL    HW142501   9.654   0.347  11.675 -2.5253 -0.3614 -1.0588
12648SOL    HW242502   9.703   0.454  11.770 -0.1471 -3.2500  1.1753
12649SOL     OW42503   7.826   0.373   7.708  0.4159 -0.0983  0.2098
12649SOL    HW142504   7.893   0.439   7.723 -0.4730  1.0320 -0.6045
12649SOL    HW242505   7.845   0.305   7.773  3.2731 -0.6002 -1.0100
12650SOL     OW42506   7.977   0.881   3.487 -0.6944  0.1651 -0.4371
12650SOL    HW142507   7.982   0.790   3.458  0.1440  0.4257 -1.1780
12650SOL    HW242508   7.905   0.919   3.436 -1.2302 -0.1498  0.0806
12651SOL     OW42509   6.167  10.092  10.677 -0.7194  0.1445  0.3418
12651SOL    HW142510   6.075  10.069  10.659 -1.2440  1.5868  1.0413
12651SOL    HW242511   6.163  10.182  10.708  0.9956  0.3464  0.0335
12652SOL     OW42512   7.565   9.491   9.722 -0.2933  0.4974  0.0271
12652SOL    HW142513   7.495   9.447   9.769  0.5030 -0.1357  0.6445
12652SOL    HW242514   7.521   9.540   9.653 -1.4196  0.8853  1.0020
12653SOL     OW42515  11.358   2.885  10.359 -0.3721 -0.0957 -0.1220
12653SOL    HW142516  11.322   2.797  10.350 -1.0138  0.0394  0.9301
12653SOL    HW242517  11.282   2.943  10.349  0.0195  0.3383 -0.6551
12654SOL     OW42518   8.931   4.184  11.854 -0.1775 -0.0693 -0.8868
12654SOL    HW142519   8.926   4.201  11.760  2.7732 -0.1901 -1.1582
12654SOL    HW242520   8.914   4.090  11.862  0.1221 -0.1689 -1.3734
12655SOL     OW42521   6.793   0.559   0.511  0.5931  0.0349  0.4115
12655SOL    HW142522   6.751   0.626   0.564 -0.2389  0.1683 -0.3862
12655SOL    HW242523   6.721   0.517   0.463  1.4555  1.3427 -2.2393
12656SOL     OW42524   6.331  11.552   6.303 -0.0371  0.4119  0.2452
12656SOL    HW142525   6.307  11.462   6.283 -1.5865  0.8032  0.1541
12656SOL    HW242526   6.410  11.568   6.252  0.0686 -0.7930  0.0124
12657SOL     OW42527  11.900   8.293   5.738  0.2341 -0.2724 -0.1445
12657SOL    HW142528  11.961   8.340   5.795  0.6062 -1.3484  0.3674
12657SOL    HW242529  11.886   8.352   5.664  1.4283  0.2417  0.0206
12658SOL     OW42530   3.104   1.439   4.425  0.0746  0.0773 -0.1151
12658SOL    HW142531   3.041   1.505   4.452  0.3460  0.0255  0.6797
12658SOL    HW242532   3.081   1.362   4.478  1.5659  0.4373  1.1166
12659SOL     OW42533   3.932  11.088   3.818 -0.3559 -0.0593 -0.2619
12659SOL    HW142534   4.003  11.119   3.761 -0.3116 -0.5550 -0.4812
12659SOL    HW242535   3.929  11.152   3.890 -1.7606  1.7803 -1.8384
12660SOL     OW42536   8.137   4.836   4.020  0.5518  0.6226  0.6865
12660SOL    HW142537   8.149   4.927   4.045  2.3407  0.6907 -0.2383
12660SOL    HW242538   8.153   4.835   3.925 -1.6215 -0.3189  0.2710
12661SOL     OW42539   6.596   8.294   3.584  0.0844 -0.0534 -0.0820
12661SOL    HW142540   6.665   8.311   3.648  0.2878 -0.2667 -0.2436
12661SOL    HW242541   6.525   8.354   3.608 -0.4625 -1.1906  1.2886
12662SOL     OW42542   3.308   4.444   7.778 -0.1610  0.1894  0.1614
12662SOL    HW142543   3.319   4.532   7.742 -0.3491 -0.5548 -1.8816
12662SOL    HW242544   3.214   4.429   7.778 -0.0689 -0.5302 -0.9483
12663SOL     OW42545   5.820  10.072   2.988  0.5679  0.7235  0.2146
12663SOL    HW142546   5.768  10.151   3.004  0.9474  0.8906  0.6250
12663SOL    HW242547   5.792  10.011   3.056 -0.5318  0.0935 -0.7628
12664SOL     OW42548   7.182   0.841   1.620  0.0419 -0.0323  0.1629
12664SOL    HW142549   7.142   0.755   1.633 -1.9392  0.5648 -1.4737
12664SOL    HW242550   7.267   0.821   1.580 -0.8302 -1.2219 -1.1946
12665SOL     OW42551   8.872   5.804   0.128  0.6183  0.1585 -0.0828
12665SOL    HW142552   8.871   5.766   0.216 -0.3086 -0.9420 -0.5344
12665SOL    HW242553   8.940   5.755   0.082  1.2913  0.9185  0.0769
12666SOL     OW42554   4.702  11.512   7.077 -0.3344 -0.3280 -0.1862
12666SOL    HW142555   4.671  11.456   7.006 -0.3039 -0.6529  0.0557
12666SOL    HW242556   4.774  11.463   7.117  0.4693  0.4066 -0.7161
12667SOL     OW42557   6.636   0.591   9.403 -0.5529 -0.5351  0.0813
12667SOL    HW142558   6.722   0.549   9.407 -0.4902 -0.3532  0.6891
12667SOL    HW242559   6.590   0.560   9.481 -0.0819  1.4133  1.2179
12668SOL     OW42560   0.179   3.947   6.586 -0.3513 -0.2880 -0.4893
12668SOL    HW142561   0.209   4.020   6.641 -1.0675 -0.6007  0.3500
12668SOL    HW242562   0.191   3.978   6.496  3.0180 -0.6082 -0.2886
12669SOL     OW42563   6.201  10.796   2.888  0.7995  0.0880 -0.3082
12669SOL    HW142564   6.250  10.815   2.808 -0.2740  0.9960 -0.7808
12669SOL    HW242565   6.197  10.700   2.891  2.1257  0.0090 -0.5326
12670SOL     OW42566   3.264  11.441  11.293 -0.2126  0.4908  0.1922
12670SOL    HW142567   3.193  11.427  11.357 -0.3526  0.2320 -0.0189
12670SOL    HW242568   3.249  11.374  11.226  1.2571 -0.7220  1.0185
12671SOL     OW42569   5.352   5.404   4.134 -0.1936 -0.0727 -0.2954
12671SOL    HW142570   5.423   5.341   4.144  0.3476  0.6340  0.4731
12671SOL    HW242571   5.355   5.430   4.042  0.7714  0.2212 -0.1805
12672SOL     OW42572  10.989   0.966   7.991 -0.0419 -0.2251 -0.1145
12672SOL    HW142573  10.900   1.002   7.985  0.4960  1.0997 -0.4525
12672SOL    HW242574  11.031   0.991   7.909  0.3972 -1.5896 -0.3345
12673SOL     OW42575   9.644   3.125   2.328 -0.4234  0.7419 -0.6078
12673SOL    HW142576   9.595   3.043   2.339 -0.0911  0.5740 -0.3567
12673SOL    HW242577   9.725   3.100   2.284  0.8038  0.5113  1.6024
12674SOL     OW42578   8.442   3.292   7.924  0.5816 -0.5261  0.1375
12674SOL    HW142579   8.379   3.254   7.984 -0.9495 -1.9015 -2.2012
12674SOL    HW242580   8.390   3.348   7.866  1.9139  0.3060 -0.3101
12675SOL     OW42581   7.222   1.061   0.686 -0.2287 -0.1963 -0.2063
12675SOL    HW142582   7.239   0.969   0.669 -0.1406 -0.2591  0.2296
12675SOL    HW242583   7.174   1.091   0.608 -2.1106 -1.1128  0.5427
12676SOL     OW42584  11.676   9.383   0.419 -0.0922 -0.5884  0.0567
12676SOL    HW142585  11.644   9.471   0.399 -1.0743 -1.3244 -1.9012
12676SOL    HW242586  11.761   9.398   0.460  1.0222  1.2920 -2.5938
12677SOL     OW42587  10.795   3.911   6.414 -0.0378 -0.3231  0.2189
12677SOL    HW142588  10.883   3.876   6.400  0.2007  0.8805 -1.6730
12677SOL    HW242589  10.753   3.906   6.329 -1.8336 -0.8761  1.0968
12678SOL     OW42590  10.738   3.358   4.349 -0.4639  0.2156  0.0225
12678SOL    HW142591  10.723   3.264   4.361 -1.4138  0.1343 -1.4990
12678SOL    HW242592  10.654   3.398   4.368  0.3071  0.9707  2.1452
12679SOL     OW42593   8.395  11.107   0.697 -0.4766  0.5391 -0.0717
12679SOL    HW142594   8.301  11.120   0.685 -0.3378  2.7879  0.8699
12679SOL    HW242595   8.407  11.106   0.792  0.4574  0.2214 -0.1811
12680SOL     OW42596   3.740   9.465  11.374 -0.0494 -0.0894 -0.4379
12680SOL    HW142597   3.725   9.558  11.386  1.4022 -0.0280  1.3806
12680SOL    HW242598   3.834   9.458  11.355  0.0954 -1.2296  0.5391
12681SOL     OW42599   5.398   2.166   5.347  0.1541  0.4997  0.0613
12681SOL    HW142600   5.362   2.099   5.405  0.3310  0.8908  0.6409
12681SOL    HW242601   5.484   2.185   5.384 -0.5445  2.2451  0.9416
12682SOL     OW42602   5.398  11.388  11.800  0.1403 -0.4403  0.0266
12682SOL    HW142603   5.483  11.357  11.767 -0.3203 -1.1365 -0.5439
12682SOL    HW242604   5.396  11.481  11.778  0.3648 -0.6240 -0.8308
12683SOL     OW42605   5.392   3.898   1.133 -0.4975  0.3996  0.1970
12683SOL    HW142606   5.409   3.912   1.226 -0.5758 -1.2882  0.4982
12683SOL    HW242607   5.301   3.927   1.121 -0.4386  0.7640  0.5956
12684SOL     OW42608   1.521  10.990   9.377  0.0217  0.6323  0.3163
12684SOL    HW142609   1.437  10.966   9.416 -0.5053 -0.1848 -1.2520
12684SOL    HW242610   1.537  10.924   9.311  1.2842  1.5145 -0.3124
12685SOL     OW42611   1.840   0.637   8.194  0.4095 -0.4088 -0.0021
12685SOL    HW142612   1.856   0.543   8.208  2.3488 -0.0548  0.4179
12685SOL    HW242613   1.912   0.666   8.139 -0.8685  0.6126 -1.2035
12686SOL     OW42614   6.790   9.821   8.967 -0.6080  0.2178 -0.0971
12686SOL    HW142615   6.789   9.748   9.030 -0.0094  1.3583  1.2955
12686SOL    HW242616   6.726   9.795   8.900  0.3035 -2.0228 -0.2014
12687SOL     OW42617   4.115   4.642   6.644  0.1297  0.0006 -0.0922
12687SOL    HW142618   4.030   4.682   6.623  0.6079  1.2554  0.2797
12687SOL    HW242619   4.176   4.715   6.644  1.5698 -1.0838 -2.1019
12688SOL     OW42620   1.020   2.913   5.726  0.3328  0.0873  0.8547
12688SOL    HW142621   1.084   2.984   5.736 -1.2263  1.7848 -0.5178
12688SOL    HW242622   0.978   2.906   5.812  0.2881  1.0721  0.9242
12689SOL     OW42623   7.748  11.849  11.384 -0.3012  0.8142 -0.3861
12689SOL    HW142624   7.746  11.867  11.478 -2.7352 -1.3725  0.1016
12689SOL    HW242625   7.786  11.928  11.345  2.5789  1.0464  2.5169
12690SOL     OW42626   8.885   7.417   9.521  0.2038  0.2205 -0.0583
12690SOL    HW142627   8.908   7.503   9.486  1.7342  0.1924  0.7868
12690SOL    HW242628   8.808   7.434   9.576  0.9346  1.2097  0.7005
12691SOL     OW42629   6.420   2.702   1.940 -0.0763  0.5052 -0.4351
12691SOL    HW142630   6.477   2.648   1.995 -0.4630  0.6707  0.1328
12691SOL    HW242631   6.374   2.639   1.884 -0.9958  0.1815  0.6629
12692SOL     OW42632   2.546   3.669  11.216 -0.2040  0.4496  0.1109
12692SOL    HW142633   2.530   3.592  11.161 -2.3970  1.1600 -0.3262
12692SOL    HW242634   2.607   3.638  11.284 -1.4196 -1.8057  0.2511
12693SOL     OW42635   5.525   9.902   9.772  0.4922  0.2735  0.1204
12693SOL    HW142636   5.515   9.993   9.747 -2.3015 -0.4255 -1.7322
12693SOL    HW242637   5.561   9.859   9.695 -0.8561 -0.6145 -0.0487
12694SOL     OW42638   0.369   0.738   0.009  0.2431  0.5569 -0.3092
12694SOL    HW142639   0.350   0.813  -0.046  1.5814  1.1136 -0.0516
12694SOL    HW242640   0.425   0.772   0.079  0.2224 -0.5250  0.2689
12695SOL     OW42641   5.955   8.179  11.592 -0.5543 -0.0548 -0.3373
12695SOL    HW142642   6.012   8.243  11.550 -1.5892  1.5410  0.5600
12695SOL    HW242643   5.935   8.218  11.677 -0.0955 -2.2553  0.8480
12696SOL     OW42644   2.199   7.509   3.683 -0.6466 -0.4720  0.2183
12696SOL    HW142645   2.233   7.425   3.653 -2.0766  0.0777 -3.5089
12696SOL    HW242646   2.104   7.499   3.681 -0.8350  0.9416  0.6305
12697SOL     OW42647   5.899   1.305   8.064 -0.2428  0.5430 -0.1747
12697SOL    HW142648   5.981   1.266   8.036 -0.0316  0.7257  0.1788
12697SOL    HW242649   5.831   1.253   8.021 -0.0912 -2.0168  2.3711
12698SOL     OW42650  10.551   3.574  11.922 -0.0294  0.5124  0.1732
12698SOL    HW142651  10.506   3.539  11.999  1.3958 -1.1546  0.3281
12698SOL    HW242652  10.603   3.647  11.955  0.0313  0.2495  0.6628
12699SOL     OW42653  11.741  10.039   6.480  0.1829  0.0566 -0.3135
12699SOL    HW142654  11.802  10.015   6.410  1.2002 -1.5343  1.0708
12699SOL    HW242655  11.685   9.963   6.491  0.1737  0.2021  0.7402
12700SOL     OW42656  11.619   4.497  11.556  0.0374  0.2008  0.5014
12700SOL    HW142657  11.594   4.455  11.638 -1.4695  1.4758  0.7525
12700SOL    HW242658  11.700   4.544  11.577  0.4464 -0.6354  0.8380
12701SOL     OW42659   8.566   9.321   4.421 -0.0254  0.3722  0.5230
12701SOL    HW142660   8.614   9.289   4.344  1.0004  0.1542  1.2355
12701SOL    HW242661   8.493   9.259   4.431  0.0766  0.1551 -0.0215
12702SOL     OW42662   2.192   0.995   8.193 -0.3806 -0.0206 -0.5302
12702SOL    HW142663   2.198   1.090   8.208  1.5458  0.0138 -1.2158
12702SOL    HW242664   2.133   0.964   8.261 -0.2286  1.5419  0.3693
12703SOL     OW42665  10.636   9.653   5.598 -0.5607 -0.8166 -0.7682
12703SOL    HW142666  10.724   9.625   5.624 -0.4996 -0.4205 -0.5394
12703SOL    HW242667  10.594   9.681   5.679 -1.1782 -1.7446 -0.7509
12704SOL     OW42668   3.385   6.446  10.676  0.0607 -0.2117 -0.4363
12704SOL    HW142669   3.346   6.378  10.731  1.3577 -1.0466 -0.4799
12704SOL    HW242670   3.421   6.509  10.738 -0.6851  0.1682 -0.3850
12705SOL     OW42671   5.099   8.287   3.979 -0.2375 -0.7134 -0.1190
12705SOL    HW142672   5.045   8.255   3.907  1.4895 -1.2353 -1.2170
12705SOL    HW242673   5.189   8.284   3.947  0.2882  3.7822  0.1889
12706SOL     OW42674   7.081   4.994   3.792  0.0948 -0.4773  0.2563
12706SOL    HW142675   7.132   5.072   3.813 -1.1200  0.3485  0.2293
12706SOL    HW242676   7.103   4.975   3.701  0.2954 -0.0887  0.2208
12707SOL     OW42677  10.231   6.887   4.582 -0.6295  0.3579  0.0052
12707SOL    HW142678  10.299   6.942   4.544 -0.7553  1.0744  0.8010
12707SOL    HW242679  10.199   6.835   4.509  1.1774 -0.4264 -0.2869
12708SOL     OW42680   6.416   5.701   5.622 -0.1796  0.0642 -0.6129
12708SOL    HW142681   6.447   5.712   5.532 -0.5794  0.0306 -0.7597
12708SOL    HW242682   6.448   5.779   5.668  0.5914 -0.2434 -0.6194
12709SOL     OW42683   0.645   4.239   4.221  0.3837  0.0536  0.3401
12709SOL    HW142684   0.718   4.269   4.167 -0.5634  2.3871  0.2276
12709SOL    HW242685   0.567   4.262   4.170 -0.5173 -3.3166 -0.0326
12710SOL     OW42686   5.405   4.233   1.130  0.1473  0.2611 -0.1292
12710SOL    HW142687   5.472   4.167   1.112 -0.2633  0.0471 -0.9660
12710SOL    HW242688   5.443   4.290   1.196  1.7363  0.9879 -1.5965
12711SOL     OW42689   4.261   0.917   9.298  0.0795 -0.6973 -0.2739
12711SOL    HW142690   4.183   0.970   9.282  0.2088 -0.5747 -0.4991
12711SOL    HW242691   4.226   0.830   9.318 -0.1537 -0.3779  0.7317
12712SOL     OW42692  11.265   3.826   0.612 -0.5432 -0.0887 -0.1361
12712SOL    HW142693  11.189   3.789   0.658 -1.8084  0.2560 -1.8745
12712SOL    HW242694  11.253   3.799   0.521  0.2431  1.8405 -0.8435
12713SOL     OW42695  11.932   9.594   8.197  0.0796  0.3596  0.2190
12713SOL    HW142696  11.930   9.614   8.103 -1.6793 -0.3316  0.0741
12713SOL    HW242697  11.981   9.512   8.203 -0.1742  0.1773 -0.1529
12714SOL     OW42698  12.000   4.532   2.199  0.3624 -0.0027 -0.1652
12714SOL    HW142699  12.015   4.611   2.250  1.4240 -0.0150 -0.4323
12714SOL    HW242700  11.978   4.563   2.111 -0.5145  0.0053  0.0502
12715SOL     OW42701   0.338   2.443   1.288 -0.8536 -0.1829  0.6902
12715SOL    HW142702   0.397   2.369   1.304 -0.2684  0.2764  0.6872
12715SOL    HW242703   0.290   2.418   1.209  0.0496 -0.1352  0.1081
12716SOL     OW42704  10.322   6.413   7.228  0.8079 -0.1268  0.0240
12716SOL    HW142705  10.317   6.370   7.314  1.4463  1.0025  0.6450
12716SOL    HW242706  10.406   6.459   7.229 -0.1625  1.7670 -0.2951
12717SOL     OW42707   7.152   0.676   3.076 -0.4144 -0.1147  0.1242
12717SOL    HW142708   7.062   0.682   3.107 -0.2556 -0.4541  0.6730
12717SOL    HW242709   7.157   0.591   3.033 -0.3987 -0.0250 -0.0524
12718SOL     OW42710   0.020   9.125   3.582  0.0925 -0.2250  0.0117
12718SOL    HW142711  -0.055   9.093   3.634  0.1464 -0.0955  0.1698
12718SOL    HW242712   0.092   9.131   3.646 -0.1509  1.1022  0.1893
12719SOL     OW42713  11.518   1.315   6.090  0.1709 -0.0232  0.0646
12719SOL    HW142714  11.468   1.272   6.020  0.4572  2.5655 -1.9081
12719SOL    HW242715  11.460   1.313   6.166 -0.5603 -2.1003 -0.4902
12720SOL     OW42716   2.657   0.581   1.542  0.7541  1.0229  0.0202
12720SOL    HW142717   2.670   0.653   1.604  1.2862  0.5888  0.4171
12720SOL    HW242718   2.629   0.624   1.461 -0.2452  1.5722  0.6449
12721SOL     OW42719   3.761   1.895   5.545  0.3232  0.0563  0.0395
12721SOL    HW142720   3.840   1.942   5.521  0.5454 -1.3683 -2.3390
12721SOL    HW242721   3.696   1.963   5.562  1.2517  1.2207 -0.9189
12722SOL     OW42722   0.923   1.151   2.875 -0.1972 -0.0752  0.2488
12722SOL    HW142723   0.929   1.066   2.919 -1.4443 -0.1749  0.2694
12722SOL    HW242724   0.830   1.160   2.853  0.0599  0.9023 -0.5249
12723SOL     OW42725   3.019   2.709  10.794 -0.3073 -0.1441  0.0331
12723SOL    HW142726   2.985   2.791  10.830 -2.3381 -0.9721  0.1283
12723SOL    HW242727   3.098   2.691  10.845 -0.3184  1.2866  0.5964
12724SOL     OW42728   5.300   5.155   7.308 -0.1991 -0.2420  0.5590
12724SOL    HW142729   5.264   5.244   7.307  0.9466  0.2515  1.0755
12724SOL    HW242730   5.235   5.104   7.355 -1.2520  0.1324 -0.4268
12725SOL     OW42731   4.745   4.375   2.318  0.4901 -0.0078  0.4842
12725SOL    HW142732   4.716   4.440   2.382 -0.6152 -0.4421  0.4591
12725SOL    HW242733   4.699   4.295   2.342  0.5947 -0.3612 -0.4311
12726SOL     OW42734   7.244   6.240   9.663 -0.9940  0.0170 -0.1234
12726SOL    HW142735   7.332   6.256   9.629 -0.9241 -0.2967 -0.0929
12726SOL    HW242736   7.226   6.315   9.720 -0.1555 -0.6511  1.0444
12727SOL     OW42737   9.254  10.955   7.931  0.2264  0.0048 -0.5310
12727SOL    HW142738   9.337  10.945   7.979 -0.0064 -0.6776 -0.2633
12727SOL    HW242739   9.266  11.035   7.879  0.1819  1.2834  1.3052
12728SOL     OW42740   3.102   3.155   5.737 -0.1837  0.4059 -0.1380
12728SOL    HW142741   3.156   3.092   5.690  1.3181  0.5596  1.3278
12728SOL    HW242742   3.013   3.136   5.706  0.5794 -0.2990 -2.0930
12729SOL     OW42743  10.543   2.295   9.161  0.0876 -0.0943 -0.2900
12729SOL    HW142744  10.625   2.316   9.117  0.7154 -0.6368  0.5827
12729SOL    HW242745  10.499   2.235   9.101  0.7757 -0.5616 -0.3454
12730SOL     OW42746  11.027   5.133   3.952  0.2341 -0.1419  0.3671
12730SOL    HW142747  11.118   5.108   3.940 -0.2806 -1.3514 -1.6570
12730SOL    HW242748  11.016   5.210   3.895 -0.4692 -1.3566 -1.2393
12731SOL     OW42749  11.449   1.604   1.430  0.3264  0.2561  0.1774
12731SOL    HW142750  11.512   1.637   1.494 -0.9725 -0.0174  1.6688
12731SOL    HW242751  11.438   1.512   1.452 -0.9141  0.4019  0.2399
12732SOL     OW42752  11.414   2.149   8.541 -1.2416 -0.0539 -0.2462
12732SOL    HW142753  11.334   2.098   8.533 -1.3781  0.1387 -0.1148
12732SOL    HW242754  11.482   2.085   8.560 -1.5763 -0.0798  0.9009
12733SOL     OW42755   4.572   8.005   1.710  0.1139  0.0077 -0.3192
12733SOL    HW142756   4.566   8.022   1.804  3.2169 -1.2852  0.2516
12733SOL    HW242757   4.511   7.933   1.694 -1.0040  0.7367  0.5106
12734SOL     OW42758   4.702   8.343   6.077 -0.1675 -0.3936 -0.0292
12734SOL    HW142759   4.649   8.412   6.038 -1.2382 -1.2377 -0.1197
12734SOL    HW242760   4.749   8.304   6.003  0.9885  0.6814  0.1197
12735SOL     OW42761   0.105   9.783   1.672 -0.2588  0.3040  0.3081
12735SOL    HW142762   0.054   9.704   1.687  0.5747 -0.6150 -1.4476
12735SOL    HW242763   0.143   9.803   1.758 -1.3409 -0.5651  1.0124
12736SOL     OW42764   9.308  11.819   8.737 -0.6326 -0.0597  0.1484
12736SOL    HW142765   9.287  11.864   8.819  0.1202 -0.6679  0.6988
12736SOL    HW242766   9.387  11.862   8.705 -1.2418  0.5478 -0.5675
12737SOL     OW42767   2.758   2.604  11.741 -0.2203  0.2145 -0.3929
12737SOL    HW142768   2.844   2.598  11.699  0.2632 -2.4631  0.7720
12737SOL    HW242769   2.776   2.598  11.835 -1.6454  0.2112 -0.0984
12738SOL     OW42770   8.036   8.045   4.645 -0.0956  0.3965 -0.0720
12738SOL    HW142771   7.981   7.970   4.668  0.7787 -0.2358  0.0042
12738SOL    HW242772   7.974   8.116   4.629 -0.8750  0.4990  2.7698
12739SOL     OW42773   2.238   7.005  10.578  0.4066 -0.5016 -0.0948
12739SOL    HW142774   2.259   6.916  10.551 -2.8683 -1.4208  0.0464
12739SOL    HW242775   2.302   7.025  10.646  0.4345 -3.2482  0.8096
12740SOL     OW42776   7.669   7.892   3.750 -0.1771 -0.1982  0.3366
12740SOL    HW142777   7.713   7.812   3.779 -0.4502 -1.3217 -2.0948
12740SOL    HW242778   7.613   7.916   3.824  0.7168 -1.6193  1.5465
12741SOL     OW42779   7.114   2.225   5.456 -0.2592 -0.0454 -0.1784
12741SOL    HW142780   7.018   2.225   5.451 -0.2946  0.5565  0.3769
12741SOL    HW242781   7.134   2.260   5.542  0.4284 -4.5358  1.7640
12742SOL     OW42782   2.992  10.997   0.082 -0.0011 -0.1105 -0.4260
12742SOL    HW142783   3.051  10.957   0.146  0.3708  1.4165  0.2225
12742SOL    HW242784   2.947  10.923   0.042  0.1793 -1.1423  1.1985
12743SOL     OW42785   8.168   7.734   4.864  0.2477  0.3863 -0.6919
12743SOL    HW142786   8.180   7.639   4.871  0.4575  0.3596 -1.3418
12743SOL    HW242787   8.207   7.757   4.780  0.3468  1.0788 -0.4599
12744SOL     OW42788   0.779   5.968   5.964 -0.6525  0.3513 -0.5334
12744SOL    HW142789   0.693   5.992   5.930 -0.4150 -0.7208 -2.0342
12744SOL    HW242790   0.763   5.940   6.054 -1.1486  4.3682  0.8073
12745SOL     OW42791   1.570   0.130   1.681 -0.0211  0.1469  0.1268
12745SOL    HW142792   1.665   0.142   1.689  0.2246 -0.8792 -0.9772
12745SOL    HW242793   1.557   0.109   1.589 -1.3709  0.6025  0.2023
12746SOL     OW42794   9.392   0.916   4.629  0.1636 -0.2981  0.1074
12746SOL    HW142795   9.438   0.938   4.548  2.1161 -0.8994  1.0025
12746SOL    HW242796   9.398   0.821   4.635 -0.2735 -0.2916  0.7795
12747SOL     OW42797   7.612   4.929   6.370  0.0816  0.7023  0.3845
12747SOL    HW142798   7.557   4.875   6.314  1.9349 -1.5745  0.6111
12747SOL    HW242799   7.680   4.962   6.312 -0.1476  1.5143  0.5672
12748SOL     OW42800   3.714  11.747  11.213 -0.0236  0.0516  0.0110
12748SOL    HW142801   3.683  11.838  11.220  0.9216  0.2468  2.6480
12748SOL    HW242802   3.644  11.695  11.253  0.5861 -0.0853  0.9108
12749SOL     OW42803   9.292   8.214  12.034  0.2576  0.0854  0.0817
12749SOL    HW142804   9.225   8.238  12.098 -1.8653 -4.7267  0.1431
12749SOL    HW242805   9.367   8.187  12.088  0.3077  0.6030  0.2778
12750SOL     OW42806   3.321   0.334   2.019 -0.1090 -0.3480  0.3825
12750SOL    HW142807   3.362   0.335   1.933 -1.6191 -0.3381 -0.3805
12750SOL    HW242808   3.323   0.242   2.046  0.1413 -0.3905  0.2180
12751SOL     OW42809   8.558   6.773   6.143  0.1855 -0.3540 -0.1309
12751SOL    HW142810   8.620   6.836   6.106 -1.8997  1.8891 -0.0284
12751SOL    HW242811   8.604   6.737   6.219  0.9664  2.1700  0.7082
12752SOL     OW42812   6.516   2.452   5.533  0.1124 -0.1453 -0.3923
12752SOL    HW142813   6.530   2.422   5.443  0.1317 -0.3583 -0.3185
12752SOL    HW242814   6.470   2.380   5.575 -0.2486  0.1144 -0.3380
12753SOL     OW42815   7.441   7.513   2.123 -0.2733  0.1448  0.4002
12753SOL    HW142816   7.410   7.447   2.185  2.7354  0.2983  2.2870
12753SOL    HW242817   7.378   7.585   2.131 -0.7965 -0.4652  2.2100
12754SOL     OW42818   5.242   1.884   1.315  0.8084  0.4439 -0.1053
12754SOL    HW142819   5.230   1.947   1.244 -0.5294 -0.3081 -0.5920
12754SOL    HW242820   5.232   1.799   1.273  0.4733 -0.0243  0.9021
12755SOL     OW42821   2.188   9.063   1.410  0.0218  0.2166 -0.2652
12755SOL    HW142822   2.237   9.062   1.492  1.1927 -0.2565 -0.9431
12755SOL    HW242823   2.100   9.036   1.435  0.4143 -0.1330  0.8063
12756SOL     OW42824   7.037   7.123   7.971  0.2983 -0.4494 -0.0766
12756SOL    HW142825   7.112   7.175   7.942  0.9845 -0.5439  1.3989
12756SOL    HW242826   7.050   7.037   7.932  0.2757 -0.1167 -0.8390
12757SOL     OW42827   5.968   2.321  11.787  0.8969  0.2761 -0.4706
12757SOL    HW142828   6.015   2.362  11.714  2.1216  1.1112  0.7455
12757SOL    HW242829   5.876   2.330  11.763  1.2613  0.6047 -1.8712
12758SOL     OW42830   8.972  11.303   9.334  0.0440 -0.2305 -0.2890
12758SOL    HW142831   8.894  11.265   9.375  0.1746  0.1822  0.3564
12758SOL    HW242832   9.009  11.360   9.401  1.7140 -1.5126 -0.0464
12759SOL     OW42833  11.920   3.715   0.261  0.0896 -0.1405  0.1820
12759SOL    HW142834  11.886   3.650   0.322 -1.1339 -0.7788 -1.1282
12759SOL    HW242835  11.866   3.793   0.275 -1.3054 -0.8138 -1.1633
12760SOL     OW42836   5.637   3.346  11.056 -0.4442 -0.6461  0.3002
12760SOL    HW142837   5.682   3.263  11.067  0.2207 -0.6499 -2.0280
12760SOL    HW242838   5.549   3.330  11.089 -0.8137 -2.7874 -1.5083
12761SOL     OW42839   6.241  10.373   0.305  0.4920  0.3931  0.0330
12761SOL    HW142840   6.313  10.318   0.274  1.3798  1.2114  0.5642
12761SOL    HW242841   6.164  10.316   0.302  0.8678 -0.0717 -1.9260
12762SOL     OW42842   4.634   3.836   3.749  0.0353 -0.0505 -0.5427
12762SOL    HW142843   4.618   3.848   3.655 -0.7352  0.8386 -0.3092
12762SOL    HW242844   4.576   3.898   3.792  1.7501  0.9217  0.4750
12763SOL     OW42845   3.197   3.999   7.268 -0.3071 -0.0754  0.1339
12763SOL    HW142846   3.202   3.904   7.258  0.2000  0.1872 -2.8195
12763SOL    HW242847   3.156   4.011   7.354 -2.0117 -2.9546 -0.1328
12764SOL     OW42848   5.210   7.283   5.149  0.0892 -0.2241  0.1687
12764SOL    HW142849   5.261   7.311   5.225 -1.6738  0.8159  1.0067
12764SOL    HW242850   5.251   7.327   5.075  0.5545  0.3960  0.7881
12765SOL     OW42851   9.782   9.515   0.662  0.3832 -0.2713  0.3694
12765SOL    HW142852   9.877   9.513   0.676  0.4048 -0.0792  0.2561
12765SOL    HW242853   9.746   9.546   0.745  0.4986  0.7085  0.0609
12766SOL     OW42854   0.908   1.044   1.626  0.4124  0.8589 -0.7417
12766SOL    HW142855   0.894   0.950   1.621  1.3862  0.6891 -0.4152
12766SOL    HW242856   0.992   1.059   1.582  1.8635  1.1492  1.9250
12767SOL     OW42857   3.068   3.523   8.616  0.1395  0.0025  0.4745
12767SOL    HW142858   3.121   3.499   8.539  0.6815  0.5166  0.6758
12767SOL    HW242859   3.104   3.608   8.643 -0.5695  0.1946  0.8241
12768SOL     OW42860   0.322   1.689  10.158 -0.2379 -0.5218  0.3441
12768SOL    HW142861   0.365   1.761  10.204 -0.4543 -0.2642  0.1487
12768SOL    HW242862   0.298   1.627  10.226 -2.8192  0.9921  0.9391
12769SOL     OW42863   7.878   7.588   3.128 -0.2349  0.3503  0.7556
12769SOL    HW142864   7.787   7.598   3.158 -0.0357  2.0063  0.8807
12769SOL    HW242865   7.917   7.527   3.191 -0.9291  0.5989  1.4425
12770SOL     OW42866   0.332   2.484   4.807 -0.0639 -0.3273 -0.1406
12770SOL    HW142867   0.352   2.471   4.900 -1.5779 -3.1351 -0.0847
12770SOL    HW242868   0.379   2.413   4.763 -2.7899 -1.7971 -0.9169
12771SOL     OW42869   6.772   2.577   1.887 -0.1350 -0.1934 -0.1119
12771SOL    HW142870   6.697   2.542   1.936  0.2285  0.8241  1.2381
12771SOL    HW242871   6.748   2.667   1.869 -0.1033 -0.4515 -1.5519
12772SOL     OW42872   8.064   4.028   4.071  0.4667 -0.4716 -0.4736
12772SOL    HW142873   7.993   3.974   4.035  0.2407 -2.3223  2.4313
12772SOL    HW242874   8.090   3.983   4.151  3.1250  1.6275 -0.0148
12773SOL     OW42875   2.575   6.292   7.405  0.5731 -0.8113  0.0273
12773SOL    HW142876   2.553   6.384   7.392  0.3030 -0.8020  0.5353
12773SOL    HW242877   2.620   6.266   7.324 -2.1985 -1.1289 -1.5333
12774SOL     OW42878   6.060   9.014   8.196 -0.0020 -0.5852  0.2227
12774SOL    HW142879   6.112   9.090   8.171 -2.1750  0.7744 -0.4081
12774SOL    HW242880   6.078   9.003   8.290 -0.3888  1.3415  0.5575
12775SOL     OW42881   5.651   5.696   4.570  0.2642  0.2643  0.6015
12775SOL    HW142882   5.584   5.626   4.569 -1.0665  1.4581  1.5766
12775SOL    HW242883   5.716   5.665   4.633 -0.2494 -0.1583  0.9395
12776SOL     OW42884   0.053   7.652   8.560 -0.0978 -0.2415 -0.1186
12776SOL    HW142885   0.144   7.681   8.570  0.0352  0.2286 -2.1683
12776SOL    HW242886   0.060   7.559   8.539 -0.1471 -0.4146  0.6358
12777SOL     OW42887   9.979   4.190   2.013 -0.3625 -0.1044  0.3754
12777SOL    HW142888   9.938   4.277   2.009 -1.7974 -0.7369  0.6415
12777SOL    HW242889   9.999   4.169   1.922  0.5629  0.7440  0.3610
12778SOL     OW42890   6.058  11.740   8.346  0.3512  0.0307  0.5246
12778SOL    HW142891   6.038  11.691   8.266 -0.3161 -1.5006  1.5870
12778SOL    HW242892   5.973  11.768   8.379  0.7668  3.1398 -0.7229
12779SOL     OW42893   6.831   8.355  11.264  0.6451 -0.6882 -0.6981
12779SOL    HW142894   6.907   8.331  11.317  0.4737  0.0523 -0.0856
12779SOL    HW242895   6.760   8.300  11.297  0.9327 -1.4540 -1.3414
12780SOL     OW42896   6.809   8.463   7.564  0.0545 -0.2699  0.1366
12780SOL    HW142897   6.903   8.458   7.584  0.3006 -0.4918 -1.0207
12780SOL    HW242898   6.803   8.440   7.472 -1.2902 -1.6237  0.5243
12781SOL     OW42899   8.882   4.924   8.281  0.0819 -0.6480  0.3818
12781SOL    HW142900   8.944   4.908   8.210  0.2807 -0.1046  0.4305
12781SOL    HW242901   8.877   5.019   8.289 -0.8099 -0.6831  0.3417
12782SOL     OW42902   0.211   4.346   9.385  0.1109 -0.3091  0.2238
12782SOL    HW142903   0.195   4.252   9.377 -0.3589 -0.3196  1.1372
12782SOL    HW242904   0.299   4.358   9.350  0.2644 -1.1258  0.3039
12783SOL     OW42905   7.523  11.996   4.991 -0.2445  0.0067 -0.5223
12783SOL    HW142906   7.566  11.913   5.009  2.0962  1.0701 -0.7730
12783SOL    HW242907   7.512  11.998   4.896 -1.7441 -0.6370 -0.3856
12784SOL     OW42908   0.900  11.823   5.355  0.1639 -0.4017 -0.1079
12784SOL    HW142909   0.993  11.816   5.333  0.8864 -0.3745  2.6762
12784SOL    HW242910   0.882  11.747   5.409 -0.6622  1.0994  1.8278
12785SOL     OW42911   5.920   5.856   8.543  0.6658 -0.2422 -0.8926
12785SOL    HW142912   5.926   5.766   8.577  2.1363 -0.0830 -0.6902
12785SOL    HW242913   5.977   5.907   8.600 -1.3425  1.1538 -0.0374
12786SOL     OW42914  11.216   1.340   0.006  0.2884 -0.1252  0.1042
12786SOL    HW142915  11.259   1.323  -0.077  0.0380  0.2928 -0.1145
12786SOL    HW242916  11.155   1.268   0.017 -0.0667  0.1009 -0.3416
12787SOL     OW42917   9.894  11.852   4.131 -0.2168 -0.0535 -0.2968
12787SOL    HW142918   9.852  11.888   4.052 -1.0506  1.5144  0.8083
12787SOL    HW242919   9.830  11.791   4.166  0.2159 -0.8643 -0.9026
12788SOL     OW42920   4.432   1.118   7.695  0.1410 -0.2341  0.2529
12788SOL    HW142921   4.337   1.106   7.688 -0.0788  1.7486 -1.0805
12788SOL    HW242922   4.443   1.201   7.740  1.2559 -0.3428  0.2230
12789SOL     OW42923   2.107   8.327   4.569  0.4277  0.0834 -0.2624
12789SOL    HW142924   2.118   8.417   4.600  0.4372  0.8757 -2.3659
12789SOL    HW242925   2.028   8.296   4.613  0.6086  0.9847  0.7608
12790SOL     OW42926  10.439   1.584   3.086 -0.2158 -0.3630  0.5724
12790SOL    HW142927  10.397   1.586   3.000 -0.1470  1.4158  0.5424
12790SOL    HW242928  10.393   1.515   3.134 -0.2614 -1.3878 -0.8698
12791SOL     OW42929   7.330   3.530   2.108 -0.1348  1.0879  0.3407
12791SOL    HW142930   7.286   3.529   2.192 -1.7365  2.9237 -0.3824
12791SOL    HW242931   7.276   3.588   2.053  0.6579 -0.2726 -2.0494
12792SOL     OW42932   0.350   4.599   0.086  0.8907  0.5452 -0.1420
12792SOL    HW142933   0.442   4.586   0.063  1.6814 -0.1711  2.9771
12792SOL    HW242934   0.333   4.533   0.154 -2.3435 -0.2358 -1.5090
12793SOL     OW42935   8.086   7.088   3.985 -0.3804 -0.6637 -0.8936
12793SOL    HW142936   8.062   7.031   3.912 -1.0564  0.1540 -1.3235
12793SOL    HW242937   8.019   7.156   3.986  0.2709 -0.0081 -0.2380
12794SOL     OW42938   1.661   6.758   2.378  0.3634  1.4042 -0.6500
12794SOL    HW142939   1.667   6.775   2.472 -0.2986 -1.1159 -0.0795
12794SOL    HW242940   1.750   6.736   2.352  0.1607 -0.1824 -0.0795
12795SOL     OW42941   7.524  10.653   9.609 -0.2256 -0.0137 -0.9978
12795SOL    HW142942   7.579  10.600   9.667  1.7279  0.5785 -2.1870
12795SOL    HW242943   7.568  10.738   9.607 -0.8269  0.2892 -2.5201
12796SOL     OW42944   9.284   4.714   4.239 -0.2643  0.1067 -0.4914
12796SOL    HW142945   9.308   4.655   4.168 -1.2641 -0.2044 -0.5909
12796SOL    HW242946   9.189   4.724   4.231 -0.2225  1.1142 -0.0016
12797SOL     OW42947   7.753  10.449  12.061 -0.1307 -0.3376 -0.1922
12797SOL    HW142948   7.699  10.471  12.137 -1.6855 -1.1901 -0.9841
12797SOL    HW242949   7.742  10.354  12.051  1.4549 -0.5128 -0.4647
12798SOL     OW42950   7.008   6.029  12.046  0.0683 -0.0137 -0.2232
12798SOL    HW142951   7.046   5.957  11.996 -0.6966 -0.9409  0.4886
12798SOL    HW242952   6.934   6.060  11.994  0.1798  0.0162 -0.3633
12799SOL     OW42953   9.119  10.240   0.335  0.1507  0.5625  0.1958
12799SOL    HW142954   9.196  10.296   0.319  0.5038 -0.1202 -0.5677
12799SOL    HW242955   9.128  10.212   0.426  1.2860 -0.1936 -0.1223
12800SOL     OW42956   6.722   8.020  11.463  0.5061 -0.1461  0.2647
12800SOL    HW142957   6.723   8.008  11.368  0.9578  1.0455  0.1031
12800SOL    HW242958   6.785   7.956  11.496 -0.5312 -1.4245 -0.0941
12801SOL     OW42959   1.614   1.644   6.994  0.2001 -1.0778 -0.5759
12801SOL    HW142960   1.625   1.688   7.079 -0.4195  0.5620 -1.2994
12801SOL    HW242961   1.692   1.669   6.945  0.5405 -1.9972 -0.5092
12802SOL     OW42962   4.408   9.923   3.037 -0.1484 -0.0204 -0.1736
12802SOL    HW142963   4.396  10.001   3.092  0.7565 -0.4031  0.5927
12802SOL    HW242964   4.497   9.894   3.056 -0.4353 -1.1810 -0.5335
12803SOL     OW42965   0.307   6.678   2.380  0.0357 -0.2004 -0.4405
12803SOL    HW142966   0.326   6.757   2.430 -0.4739  0.4801 -1.2935
12803SOL    HW242967   0.374   6.615   2.408  0.8628  0.7453 -0.2228
12804SOL     OW42968   8.115   5.614   2.745 -0.1284  0.0642  0.1352
12804SOL    HW142969   8.137   5.522   2.732  1.1857  0.2337  0.9584
12804SOL    HW242970   8.037   5.628   2.691 -0.1950 -1.4553 -0.2049
12805SOL     OW42971  11.532   7.249   4.836  0.7702  0.2223 -0.5530
12805SOL    HW142972  11.554   7.181   4.773 -1.0381 -0.5707 -0.3922
12805SOL    HW242973  11.615   7.271   4.878  1.6388 -0.7860 -1.6801
12806SOL     OW42974   7.640  11.015   1.698 -0.3330 -0.2664  0.0673
12806SOL    HW142975   7.669  11.051   1.782 -0.9818  1.0340 -0.2484
12806SOL    HW242976   7.644  11.088   1.637 -2.4201 -0.4924 -0.4191
12807SOL     OW42977   7.908   7.050   2.228 -0.1555 -0.3366 -0.1437
12807SOL    HW142978   7.962   6.975   2.201 -0.5214 -0.9489  0.7951
12807SOL    HW242979   7.874   7.025   2.314 -1.0207  0.5271 -0.2264
12808SOL     OW42980  10.390   7.250   2.184 -0.2552  0.3468 -0.2107
12808SOL    HW142981  10.418   7.311   2.116 -0.2674 -0.5252 -1.0123
12808SOL    HW242982  10.439   7.169   2.166 -1.7022 -0.5271 -0.3802
12809SOL     OW42983  10.279   1.486   4.914 -0.5257 -0.4721 -0.7438
12809SOL    HW142984  10.240   1.573   4.902 -0.7892 -0.4381  0.2847
12809SOL    HW242985  10.373   1.502   4.913 -0.5740 -0.1709 -0.5709
12810SOL     OW42986   7.333   2.023   9.865 -0.6086  0.1199 -0.3059
12810SOL    HW142987   7.310   2.113   9.840 -0.1390 -0.1758 -1.8716
12810SOL    HW242988   7.250   1.981   9.884 -0.7912  1.0569  1.1214
12811SOL     OW42989   6.883   4.134   8.313  0.2155  0.1185 -0.3043
12811SOL    HW142990   6.959   4.092   8.354  1.5666  1.1581 -1.6046
12811SOL    HW242991   6.834   4.172   8.386  1.9687  1.0151  0.4574
12812SOL     OW42992   0.124   7.204   6.989  0.2975 -0.3974 -0.2292
12812SOL    HW142993   0.210   7.189   6.950  0.9230  1.2305  0.4227
12812SOL    HW242994   0.081   7.265   6.929 -0.4558 -1.2732 -0.5998
12813SOL     OW42995   2.342   3.779   9.562  0.5254 -0.0583 -0.1508
12813SOL    HW142996   2.310   3.720   9.630  1.3758 -0.0761  0.2427
12813SOL    HW242997   2.336   3.867   9.601  1.6075 -0.1261  0.1956
12814SOL     OW42998   4.110   1.224   4.062  0.4288 -0.4800  0.3785
12814SOL    HW142999   4.024   1.220   4.103  1.0321 -1.6401  1.6150
12814SOL    HW243000   4.092   1.245   3.970 -1.0106  1.3835  1.0249
12815SOL     OW43001   5.478   4.391   8.917 -0.0505 -0.0282  0.0542
12815SOL    HW143002   5.412   4.434   8.863 -0.9490 -2.0116 -0.5096
12815SOL    HW243003   5.521   4.329   8.859  1.6493  0.5085  0.6808
12816SOL     OW43004   1.525   2.368   5.553 -0.4578  0.3439 -0.5280
12816SOL    HW143005   1.545   2.309   5.481  0.0832  1.6193 -1.4487
12816SOL    HW243006   1.458   2.427   5.519 -0.7991  0.4536  0.2902
12817SOL     OW43007  10.276   3.209  10.653  0.1396  0.2944  0.2579
12817SOL    HW143008  10.297   3.293  10.612  1.9137  0.4257  1.3272
12817SOL    HW243009  10.354   3.187  10.704 -0.0989 -2.2226 -0.3247
12818SOL     OW43010   8.793   4.607  10.784  0.0937 -0.0316 -0.1890
12818SOL    HW143011   8.731   4.594  10.712 -1.0394 -2.1562  1.0782
12818SOL    HW243012   8.823   4.519  10.806  0.4397  0.5590  1.8906
12819SOL     OW43013  11.544   0.038   3.349 -0.2607  0.2356 -0.2038
12819SOL    HW143014  11.450   0.052   3.363 -0.0267  0.6912  1.0414
12819SOL    HW243015  11.585   0.118   3.382  0.5854 -0.0364 -0.5695
12820SOL     OW43016   4.549  10.560   5.720 -0.0354 -0.1793 -0.0732
12820SOL    HW143017   4.611  10.606   5.776  0.3575 -2.4058  1.4682
12820SOL    HW243018   4.604  10.513   5.657 -0.1047 -1.7675  0.9897
12821SOL     OW43019   8.561   3.050   2.378  0.3817  0.4844  0.3782
12821SOL    HW143020   8.544   2.956   2.374 -1.0052  0.6541  1.5415
12821SOL    HW243021   8.519   3.079   2.459 -2.4188  2.7256 -1.6637
12822SOL     OW43022   9.870   8.128   9.970  0.2929  0.3542 -0.2804
12822SOL    HW143023   9.960   8.153   9.991 -0.3911  2.4449  0.5051
12822SOL    HW243024   9.851   8.053  10.025  1.9205 -0.9161 -1.3767
12823SOL     OW43025   6.101   2.551   6.502  0.5919  0.2863  0.7633
12823SOL    HW143026   6.056   2.539   6.585 -0.9537 -0.6356 -0.1722
12823SOL    HW243027   6.084   2.471   6.453  2.9996  0.0185  0.2109
12824SOL     OW43028   0.660   3.188  10.007  0.0854 -0.4575 -0.1205
12824SOL    HW143029   0.688   3.277  10.029  0.7774 -0.2572 -1.6681
12824SOL    HW243030   0.741   3.138  10.004 -0.2370 -1.0010  0.0987
12825SOL     OW43031   0.140   2.204   4.376 -0.0681  0.2634  0.2025
12825SOL    HW143032   0.139   2.156   4.459 -0.1845  0.4612  0.3148
12825SOL    HW243033   0.232   2.211   4.353  0.0345  1.0920  0.8224
12826SOL     OW43034   9.841   7.369   1.994  0.4618 -0.0275  0.0780
12826SOL    HW143035   9.847   7.327   2.079  1.1291  1.7204  0.9534
12826SOL    HW243036   9.831   7.297   1.932 -4.8944 -1.2749  1.8954
12827SOL     OW43037   9.066   4.285  10.598 -0.0199  0.3175  0.1112
12827SOL    HW143038   9.118   4.361  10.625 -0.3071  0.2424  0.8929
12827SOL    HW243039   9.106   4.258  10.515  0.4361  0.9812  0.1025
12828SOL     OW43040   1.612  10.380   5.191 -0.2399  0.2530 -0.0251
12828SOL    HW143041   1.681  10.412   5.249 -1.5114 -0.4728  2.0009
12828SOL    HW243042   1.576  10.459   5.150 -1.3115  1.2287  2.5675
12829SOL     OW43043   3.283   5.712   5.193 -0.0772  0.4508  0.1119
12829SOL    HW143044   3.373   5.743   5.202 -0.1909  0.3482  1.8001
12829SOL    HW243045   3.248   5.712   5.282 -1.7566  0.4932 -0.5079
12830SOL     OW43046  11.940   3.913   8.558  0.5197 -0.0458  0.2760
12830SOL    HW143047  11.966   3.869   8.639 -1.4908 -2.0380 -0.0677
12830SOL    HW243048  11.846   3.898   8.551  0.3300  1.5601 -1.5923
12831SOL     OW43049   7.957  11.970   4.582 -0.1210 -0.1573 -0.3602
12831SOL    HW143050   8.044  12.006   4.597  0.0794 -0.1888 -1.4029
12831SOL    HW243051   7.958  11.886   4.628 -0.1065  0.4881  0.8568
12832SOL     OW43052   5.058   7.792  11.787 -0.2040  0.3869 -0.4604
12832SOL    HW143053   4.995   7.860  11.810  0.3851  0.1511  2.1486
12832SOL    HW243054   5.142   7.824  11.821  0.4746 -0.6934 -1.0739
12833SOL     OW43055   1.587   3.069   7.988  0.0181 -0.2669  0.1176
12833SOL    HW143056   1.541   2.985   7.992 -2.3092  0.9332  0.0286
12833SOL    HW243057   1.592   3.089   7.894 -0.0434  0.0001  0.1713
12834SOL     OW43058   8.186   2.329   7.039  0.5364 -0.5346 -0.4987
12834SOL    HW143059   8.250   2.288   7.098  0.3157 -1.5988 -0.9749
12834SOL    HW243060   8.102   2.293   7.066 -0.0451  1.6147  0.7811
12835SOL     OW43061   4.794   5.038   3.852 -0.0252  0.0511  0.0513
12835SOL    HW143062   4.790   5.131   3.874 -1.5153 -0.5599  2.9016
12835SOL    HW243063   4.864   5.004   3.908 -0.7686 -0.8406  0.4516
12836SOL     OW43064   2.594   0.809   7.954  0.3984  0.0923  0.1094
12836SOL    HW143065   2.629   0.884   8.002 -1.5934  1.0017  0.2594
12836SOL    HW243066   2.549   0.756   8.020  0.8406 -0.6506 -0.1745
12837SOL     OW43067   2.504  11.128   9.566 -0.4190  0.0448  0.0762
12837SOL    HW143068   2.530  11.036   9.556 -0.8613 -0.0191 -0.5475
12837SOL    HW243069   2.586  11.173   9.587 -0.0207 -0.3433 -0.5918
12838SOL     OW43070   3.723   3.657   5.405  0.1682 -0.4245  0.2601
12838SOL    HW143071   3.650   3.594   5.401 -1.1135  0.8772  1.9355
12838SOL    HW243072   3.746   3.661   5.497 -0.4307  2.2345  0.3544
12839SOL     OW43073   4.322   0.643   8.867 -0.4345  0.6522  0.1012
12839SOL    HW143074   4.350   0.715   8.924 -1.8078  0.7920  0.6181
12839SOL    HW243075   4.255   0.682   8.811  2.3247  1.1722 -3.2523
12840SOL     OW43076   7.745  10.131  11.257 -0.0129  0.1173  0.2795
12840SOL    HW143077   7.724  10.130  11.163 -1.4905 -1.2964  0.5825
12840SOL    HW243078   7.710  10.215  11.288 -0.9944 -0.1110 -0.1521
12841SOL     OW43079   5.352   6.619   5.144  0.1828 -0.4474 -0.2853
12841SOL    HW143080   5.422   6.648   5.203 -1.1119 -0.1860  1.1602
12841SOL    HW243081   5.352   6.683   5.073  1.9492 -0.9231 -0.7683
12842SOL     OW43082   9.835   3.534   0.200 -0.0573 -0.5402 -0.1504
12842SOL    HW143083   9.863   3.558   0.112  1.3070  1.8751  0.8512
12842SOL    HW243084   9.751   3.578   0.211  0.0118 -0.4318 -0.0639
12843SOL     OW43085   8.050   5.986  10.002  1.0223  0.5173 -0.3365
12843SOL    HW143086   7.966   5.993   9.957  0.0260 -0.0108  1.3698
12843SOL    HW243087   8.077   5.895   9.989  1.2765  0.6509 -0.7674
12844SOL     OW43088   6.557   7.614  10.982  0.1898  0.3307  0.1449
12844SOL    HW143089   6.635   7.592  11.032  0.1260 -1.6135 -0.5155
12844SOL    HW243090   6.590   7.632  10.893 -0.0320  0.4437  0.0848
12845SOL     OW43091   3.036   0.640   5.308  0.5667 -0.4481  0.2306
12845SOL    HW143092   2.993   0.617   5.390  1.0969  1.2260  1.0337
12845SOL    HW243093   3.115   0.586   5.307  1.6709  0.9711  1.9552
12846SOL     OW43094   3.342   9.908   5.074  0.3189 -0.2573 -0.2305
12846SOL    HW143095   3.389   9.824   5.077 -0.2878 -0.5744  0.4081
12846SOL    HW243096   3.312   9.915   4.983 -1.6880 -1.8956  0.2299
12847SOL     OW43097   3.195   7.571   8.023  0.1466 -0.9227  0.1218
12847SOL    HW143098   3.166   7.558   7.933  0.3988  0.1978 -0.1361
12847SOL    HW243099   3.138   7.640   8.057 -0.1794 -1.5778  0.9476
12848SOL     OW43100  10.560   1.616   8.503 -0.2205 -0.2504 -0.0283
12848SOL    HW143101  10.536   1.632   8.412  1.3111  2.4900 -0.0967
12848SOL    HW243102  10.478   1.619   8.551 -1.0925 -2.0773 -1.3001
12849SOL     OW43103   6.218  11.470   0.364  0.2910 -0.0608 -0.3187
12849SOL    HW143104   6.302  11.461   0.408  0.5276  0.3918 -0.6768
12849SOL    HW243105   6.190  11.560   0.381 -1.2143 -0.8243  1.7150
12850SOL     OW43106   4.481  11.492   4.926 -0.0902 -0.1491 -0.4089
12850SOL    HW143107   4.484  11.587   4.943  0.8300 -0.4178  1.0630
12850SOL    HW243108   4.434  11.456   5.000 -1.7529 -0.7294 -1.6983
12851SOL     OW43109   8.938   0.501  10.025  0.5871 -0.3142 -0.1192
12851SOL    HW143110   9.030   0.518  10.045  0.5843  0.0747 -0.4195
12851SOL    HW243111   8.893   0.581  10.053  0.0779 -1.1780  1.7049
12852SOL     OW43112  10.650   7.821   7.681 -0.2002 -0.2352 -0.2700
12852SOL    HW143113  10.724   7.828   7.742 -0.4524 -0.4753  0.0702
12852SOL    HW243114  10.682   7.765   7.611 -0.1520 -0.5879  0.0288
12853SOL     OW43115   1.582   2.669  11.151 -0.0068 -0.1422  0.2442
12853SOL    HW143116   1.513   2.732  11.171 -1.6671 -2.0185  0.7211
12853SOL    HW243117   1.561   2.636  11.064  2.2418  1.6203 -1.0867
12854SOL     OW43118   8.672   0.520   9.848 -0.8570  0.3561 -0.2301
12854SOL    HW143119   8.689   0.560   9.763 -2.0196  1.0813 -0.1440
12854SOL    HW243120   8.707   0.582   9.912  0.5084 -0.4422 -0.1709
12855SOL     OW43121   2.369   3.809  12.049 -0.4641 -0.1065  0.7466
12855SOL    HW143122   2.460   3.825  12.074  0.6975 -1.0890 -2.3794
12855SOL    HW243123   2.348   3.879  11.988 -1.2825 -0.7729  0.2392
12856SOL     OW43124   2.410   8.208   3.960  0.0920 -0.1857  0.0297
12856SOL    HW143125   2.417   8.118   3.928  0.7658  0.2405 -1.0757
12856SOL    HW243126   2.458   8.208   4.043 -0.2411 -0.9224  0.2306
12857SOL     OW43127   2.053   6.577   6.661 -0.0537 -0.0001 -0.5495
12857SOL    HW143128   2.105   6.521   6.603  0.0205  0.2046 -0.6812
12857SOL    HW243129   2.108   6.654   6.675 -0.1922  0.0791 -0.4399
12858SOL     OW43130   9.261   6.529   6.811  0.2160  0.4625  0.3567
12858SOL    HW143131   9.276   6.453   6.755  0.3255  1.2400 -0.7109
12858SOL    HW243132   9.348   6.556   6.839  0.1660  0.1117  0.8439
12859SOL     OW43133  12.061  11.501  11.352  0.8035 -0.5778 -0.1593
12859SOL    HW143134  12.093  11.484  11.440  1.3373 -0.2528 -0.2839
12859SOL    HW243135  12.038  11.593  11.351  0.3548 -0.6863 -0.2278
12860SOL     OW43136   9.301   5.259  10.528  0.5866  0.3871 -0.1395
12860SOL    HW143137   9.384   5.302  10.550  0.0472  0.9640  0.7922
12860SOL    HW243138   9.242   5.331  10.505 -0.4955  0.2473  1.9718
12861SOL     OW43139   8.447   5.078   3.667  0.5378  0.4424 -0.1121
12861SOL    HW143140   8.363   5.119   3.645  0.3830  0.6097  0.7509
12861SOL    HW243141   8.472   5.032   3.587 -1.4609 -1.4661  0.2507
12862SOL     OW43142  10.597  11.722  11.448 -0.2626 -0.3005  0.2281
12862SOL    HW143143  10.684  11.715  11.408 -0.5609 -1.3426 -0.2712
12862SOL    HW243144  10.600  11.805  11.497  0.0749  1.0991 -2.0325
12863SOL     OW43145   7.913   8.661   7.007  0.5394  0.2043 -0.2556
12863SOL    HW143146   7.990   8.678   6.953  0.1723  0.7125 -0.6239
12863SOL    HW243147   7.856   8.607   6.952 -0.4041  1.7737 -0.8944
12864SOL     OW43148   2.222   1.408   7.516  0.7103 -0.5933 -0.1794
12864SOL    HW143149   2.188   1.366   7.595 -1.1255  1.5782  0.2934
12864SOL    HW243150   2.218   1.339   7.449  1.4146 -2.1956  1.3532
12865SOL     OW43151   9.967   7.280  11.225  0.2883  0.2149  0.0572
12865SOL    HW143152   9.882   7.244  11.248  0.5390 -0.9853 -0.8077
12865SOL    HW243153  10.023   7.204  11.212  0.8419  0.8862 -1.8037
12866SOL     OW43154   8.875   8.297  10.105  0.1980 -0.3001 -0.2878
12866SOL    HW143155   8.810   8.246  10.153 -0.3468  0.0608 -0.6275
12866SOL    HW243156   8.914   8.355  10.171 -0.5402  0.1881 -0.2630
12867SOL     OW43157   1.794   3.877   9.127 -0.9131 -0.1300 -0.4450
12867SOL    HW143158   1.790   3.840   9.216  1.6588 -0.6842 -0.4860
12867SOL    HW243159   1.866   3.940   9.131 -0.7040 -0.2270 -2.1607
12868SOL     OW43160   6.843   9.714   8.514 -0.1021  0.1175 -0.4911
12868SOL    HW143161   6.928   9.674   8.495  0.2968  1.0162 -0.6348
12868SOL    HW243162   6.785   9.681   8.445  0.2713 -0.0457 -0.7275
12869SOL     OW43163   0.519   7.351  11.171  0.4180  0.4492 -0.4040
12869SOL    HW143164   0.456   7.289  11.209  0.9511  0.5628  0.7114
12869SOL    HW243165   0.503   7.347  11.077  0.2473 -1.1676 -0.3265
12870SOL     OW43166   8.918   2.254  11.001 -0.4430 -0.5623 -0.1860
12870SOL    HW143167   8.900   2.290  11.088  1.0160 -0.7657  0.2237
12870SOL    HW243168   8.972   2.320  10.958  1.1550 -1.6213  0.1005
12871SOL     OW43169   8.216   0.056  11.916 -0.2685 -0.5464 -0.0516
12871SOL    HW143170   8.268  -0.022  11.900  1.2788  0.8384 -2.5191
12871SOL    HW243171   8.280   0.124  11.938 -1.4900  0.2213  1.2997
12872SOL     OW43172   9.493   2.348   4.699  0.8538  0.0171 -0.4360
12872SOL    HW143173   9.546   2.404   4.643  0.8511  1.4504  0.9284
12872SOL    HW243174   9.414   2.329   4.647  0.6741  1.6180 -0.7897
12873SOL     OW43175   9.683   9.878   9.419 -0.5627 -0.6290  0.5097
12873SOL    HW143176   9.724   9.849   9.337 -2.5920 -2.0478 -0.0593
12873SOL    HW243177   9.755   9.875   9.483  0.5689 -1.5863 -0.7385
12874SOL     OW43178   6.450   7.835   4.940  0.2830 -0.3081  0.2141
12874SOL    HW143179   6.454   7.861   5.032 -0.4101 -0.2718  0.2428
12874SOL    HW243180   6.516   7.888   4.896  0.7288 -0.4414  0.7191
12875SOL     OW43181   2.137  11.764   5.695 -0.5147  0.0062 -0.1645
12875SOL    HW143182   2.147  11.834   5.631  1.1801  0.1059  0.1627
12875SOL    HW243183   2.116  11.687   5.643 -1.2506  0.5073 -0.6275
12876SOL     OW43184   6.688   7.450   9.760  0.0993 -0.1567 -0.2052
12876SOL    HW143185   6.665   7.543   9.762  4.2309  1.0506 -0.2686
12876SOL    HW243186   6.699   7.427   9.852 -0.8983 -0.6496 -0.1914
12877SOL     OW43187   5.225   4.521   2.124  0.2960  0.2997 -0.2939
12877SOL    HW143188   5.145   4.474   2.144  1.0726 -0.9823 -0.0988
12877SOL    HW243189   5.215   4.548   2.032 -0.0591 -0.4753 -0.4899
12878SOL     OW43190   8.668   0.665   0.409 -0.2122  0.1268  0.0786
12878SOL    HW143191   8.733   0.719   0.365 -1.5425  0.9161 -1.0110
12878SOL    HW243192   8.718   0.610   0.469  1.3934  0.9860 -0.4324
12879SOL     OW43193   5.944  11.926   9.336 -0.4133  0.6877 -0.4015
12879SOL    HW143194   5.921  11.997   9.396 -1.6767  0.2861 -0.3764
12879SOL    HW243195   5.918  11.846   9.383  2.4370  0.0265  0.2623
12880SOL     OW43196  10.239   0.329   7.962 -0.1260 -0.1033  0.5141
12880SOL    HW143197  10.195   0.388   7.900  0.2424  0.0910  0.4338
12880SOL    HW243198  10.286   0.388   8.021  0.0001 -0.3088  0.6189
12881SOL     OW43199   6.168   0.921  10.551  0.1067  0.1238  0.0511
12881SOL    HW143200   6.218   0.889  10.477  1.0155 -0.4302  0.8856
12881SOL    HW243201   6.196   0.867  10.625 -2.4423 -0.9243  0.3839
12882SOL     OW43202   0.739   5.874   5.059 -0.4284 -0.0809 -0.3530
12882SOL    HW143203   0.776   5.882   4.971 -0.1231  1.0827 -0.1281
12882SOL    HW243204   0.803   5.915   5.116 -0.1482 -1.6904  0.5626
12883SOL     OW43205  11.434   4.771   6.921  0.0471  0.4014  0.2460
12883SOL    HW143206  11.395   4.855   6.945 -1.8366 -0.7165  1.3432
12883SOL    HW243207  11.368   4.728   6.869  0.7929 -0.6144  0.1074
12884SOL     OW43208   4.323   2.818   9.785 -0.2056  0.1226 -0.5987
12884SOL    HW143209   4.357   2.782   9.867 -0.7660  0.3092 -0.2798
12884SOL    HW243210   4.383   2.785   9.718  0.4873  0.2855 -0.0722
12885SOL     OW43211   6.254   1.127   1.971 -0.2110 -0.2826  0.4716
12885SOL    HW143212   6.162   1.121   1.946  0.0263 -1.7681 -0.1242
12885SOL    HW243213   6.258   1.203   2.030 -1.7728 -0.0910  0.3646
12886SOL     OW43214  11.567   3.577   7.679  0.6558 -0.1003 -0.7047
12886SOL    HW143215  11.583   3.670   7.698  0.4582  0.1012 -1.4987
12886SOL    HW243216  11.642   3.550   7.627  2.4522 -1.3015  2.2862
12887SOL     OW43217  10.737   3.598   3.359 -0.0696  0.2276  0.2291
12887SOL    HW143218  10.649   3.588   3.323  0.6002 -0.5090 -1.2568
12887SOL    HW243219  10.748   3.693   3.369 -1.2540  0.3018  1.0674
12888SOL     OW43220   9.691   4.389  10.620  0.7696 -0.7059  0.1361
12888SOL    HW143221   9.655   4.466  10.664  1.4944  0.0632 -0.5975
12888SOL    HW243222   9.783   4.388  10.645  1.0960 -0.5030 -1.0142
12889SOL     OW43223   7.572   5.325   0.500 -0.0225  0.2633  0.5868
12889SOL    HW143224   7.566   5.363   0.412 -0.9977 -0.5456  0.2898
12889SOL    HW243225   7.516   5.380   0.554  0.1629  0.4474  0.5935
12890SOL     OW43226   7.313   1.811  10.184  0.1434  0.3649 -0.1574
12890SOL    HW143227   7.354   1.787  10.267  0.9431 -1.7163 -1.0993
12890SOL    HW243228   7.336   1.740  10.124 -0.9880  1.4681 -1.9899
12891SOL     OW43229  10.045   2.278   6.169 -0.6803 -0.3726 -0.0401
12891SOL    HW143230  10.018   2.367   6.149  0.6506  0.3523  1.2306
12891SOL    HW243231  10.016   2.264   6.259  0.5726 -0.6035  0.3455
12892SOL     OW43232   1.061  10.198   6.297  0.6646 -0.0666  0.1749
12892SOL    HW143233   1.014  10.279   6.277 -0.1600  0.0312  2.2682
12892SOL    HW243234   1.024  10.134   6.236 -0.3765  0.5960  0.0761
12893SOL     OW43235   4.941   5.616   5.660  0.5657  0.5286  0.1174
12893SOL    HW143236   4.876   5.547   5.675  0.7419  0.6159  1.4020
12893SOL    HW243237   5.023   5.570   5.645  0.6897  0.4363  1.0086
12894SOL     OW43238   0.252   4.411   8.636 -0.0288  0.5050 -0.3285
12894SOL    HW143239   0.343   4.429   8.657  0.2842  0.1035 -1.2812
12894SOL    HW243240   0.232   4.470   8.562 -1.5018  2.8855  1.7944
12895SOL     OW43241  11.502   6.283   7.499 -0.6781 -0.3576 -0.2676
12895SOL    HW143242  11.527   6.241   7.416 -2.5290  0.6829 -1.4183
12895SOL    HW243243  11.569   6.350   7.512 -0.2225 -0.7033 -0.7756
12896SOL     OW43244  11.187  11.318  11.439 -0.7222 -0.6640 -0.0943
12896SOL    HW143245  11.244  11.394  11.435 -1.2031 -0.1866  1.2691
12896SOL    HW243246  11.209  11.276  11.523 -1.0565 -1.5340 -0.4344
12897SOL     OW43247   4.879   0.294   4.722  0.4522  0.0448  0.0743
12897SOL    HW143248   4.947   0.305   4.788  1.7991  2.2377 -1.5033
12897SOL    HW243249   4.925   0.308   4.639 -1.5470 -0.5075 -1.1864
12898SOL     OW43250   5.587   5.194   7.379 -0.2947  0.3912  0.3465
12898SOL    HW143251   5.494   5.208   7.364 -0.6091  1.2964  2.6723
12898SOL    HW243252   5.628   5.203   7.293 -2.4473 -1.2096 -0.9247
12899SOL     OW43253   0.267  10.532   0.173  0.0933  0.2404  0.1143
12899SOL    HW143254   0.199  10.467   0.157  0.3498 -0.3998  1.5179
12899SOL    HW243255   0.221  10.607   0.210 -0.1342  0.6886 -1.0404
12900SOL     OW43256   3.895   0.883  12.084  0.1765  0.1286 -0.3685
12900SOL    HW143257   3.918   0.963  12.132 -0.8847 -0.1989  0.7401
12900SOL    HW243258   3.943   0.814  12.128 -1.8617 -0.3823  1.2025
12901SOL     OW43259   1.306   0.477   6.338  0.4805 -0.0655  0.0720
12901SOL    HW143260   1.331   0.408   6.399  0.8089  0.4064  0.4783
12901SOL    HW243261   1.238   0.526   6.384  1.0651  0.5825  0.2630
12902SOL     OW43262  10.960   4.179   8.483  0.0142  0.4314 -0.6081
12902SOL    HW143263  10.901   4.255   8.487 -0.4279  0.0368  1.0534
12902SOL    HW243264  10.973   4.154   8.574 -0.5340 -2.0196 -1.1297
12903SOL     OW43265   5.865   0.953  11.795 -0.0556  0.3266  0.1966
12903SOL    HW143266   5.874   0.939  11.700  2.1008  0.7680  0.2869
12903SOL    HW243267   5.815   0.877  11.826  0.2343 -0.4292 -1.1219
12904SOL     OW43268   8.378  11.839   0.101 -0.1964  0.0427  0.2376
12904SOL    HW143269   8.374  11.933   0.083  1.1435 -0.1561 -1.3661
12904SOL    HW243270   8.471  11.820   0.106 -0.4570 -0.9253  2.3578
12905SOL     OW43271   1.072   2.777  10.538 -0.3636  0.0557  0.5921
12905SOL    HW143272   1.156   2.791  10.583  0.8224  1.2736 -1.8271
12905SOL    HW243273   1.007   2.814  10.598  0.9218  0.0349  2.0671
12906SOL     OW43274   7.905   9.660   7.786  0.1108  0.3022 -0.4689
12906SOL    HW143275   7.935   9.620   7.705 -1.0206  0.3576 -0.9262
12906SOL    HW243276   7.915   9.591   7.852  0.4377  0.0522 -0.7782
12907SOL     OW43277   6.335   0.468   1.620 -0.3494  0.1182  0.1163
12907SOL    HW143278   6.320   0.374   1.625 -1.4333  0.1495 -1.7508
12907SOL    HW243279   6.255   0.503   1.582  0.8078  1.5497 -1.1280
12908SOL     OW43280   7.099  10.292   0.402  0.2644  0.4466 -0.8694
12908SOL    HW143281   7.091  10.232   0.476 -0.6424 -0.7331 -1.8804
12908SOL    HW243282   7.015  10.286   0.357  0.6659  1.4155 -1.7928
12909SOL     OW43283   6.232  11.315   8.613 -0.6408 -0.2493 -0.2135
12909SOL    HW143284   6.258  11.229   8.645  0.3097  0.0712 -0.0793
12909SOL    HW243285   6.244  11.374   8.688  1.6292  0.5125 -1.0879
12910SOL     OW43286  11.048   7.966   6.873 -0.1763  0.6064  0.3256
12910SOL    HW143287  11.013   7.886   6.833  0.9841 -0.1986  0.8558
12910SOL    HW243288  10.993   8.036   6.838 -1.1701 -0.4075 -0.2230
12911SOL     OW43289   2.337   5.560   7.854 -0.9518  0.7020 -0.1996
12911SOL    HW143290   2.374   5.566   7.942 -0.5447 -1.0429 -0.2092
12911SOL    HW243291   2.242   5.570   7.867 -0.9688 -0.2774  0.5576
12912SOL     OW43292   8.074   1.549   3.065  0.0772 -0.0888 -0.1906
12912SOL    HW143293   8.033   1.595   3.138  1.0833  0.0512  0.3004
12912SOL    HW243294   8.107   1.619   3.008 -1.5436 -0.1741 -1.3079
12913SOL     OW43295   2.186   1.137  10.776  0.4692  0.0097  0.3646
12913SOL    HW143296   2.254   1.147  10.710 -0.1378  0.2824 -0.2404
12913SOL    HW243297   2.195   1.214  10.832  0.9124 -0.1634  0.5311
12914SOL     OW43298   8.836   8.608   6.358  0.4121  0.0259  0.1628
12914SOL    HW143299   8.785   8.651   6.426  0.2465 -0.7601  0.5418
12914SOL    HW243300   8.843   8.517   6.386  0.6273 -0.2385 -0.6981
12915SOL     OW43301   5.388  10.238  10.627 -0.3332 -0.2629  0.3100
12915SOL    HW143302   5.319  10.252  10.692 -0.5079  1.1581 -0.1496
12915SOL    HW243303   5.461  10.201  10.677 -0.1405  1.6327  1.5231
12916SOL     OW43304   9.413   8.371  10.006  0.2814  0.4547  0.2493
12916SOL    HW143305   9.463   8.449  10.031  0.2085  0.6016 -0.0614
12916SOL    HW243306   9.402   8.322  10.088  1.5655  0.0524  0.1972
12917SOL     OW43307   4.448   8.630   4.296 -0.3224  0.3052 -0.0060
12917SOL    HW143308   4.366   8.590   4.264 -0.1684  0.7326 -0.9822
12917SOL    HW243309   4.470   8.695   4.229  0.6723  0.3867  0.3859
12918SOL     OW43310  11.151   3.244   1.497 -0.2315 -0.2115  0.5328
12918SOL    HW143311  11.120   3.185   1.565  0.9247 -0.0471  1.2348
12918SOL    HW243312  11.242   3.218   1.483 -0.3205  0.0670 -0.6251
12919SOL     OW43313   1.671  11.940   3.805  0.3466  0.1921 -0.3920
12919SOL    HW143314   1.670  11.845   3.815  0.9077  0.1976 -0.2728
12919SOL    HW243315   1.580  11.966   3.821 -0.3995 -0.5594 -2.8974
12920SOL     OW43316   6.064  11.050   7.504 -0.6032 -0.2044  1.0081
12920SOL    HW143317   6.070  11.137   7.466 -0.5117 -1.5936 -2.5421
12920SOL    HW243318   6.155  11.024   7.518 -0.5698 -0.1934  0.8222
12921SOL     OW43319   0.161   9.614  10.669 -0.6535 -0.1679 -0.2192
12921SOL    HW143320   0.190   9.648  10.753 -1.5400  2.7244 -0.9630
12921SOL    HW243321   0.239   9.614  10.614 -0.0004 -2.3801  0.5992
12922SOL     OW43322   1.955  11.452   2.921  0.1440  0.9921 -0.2397
12922SOL    HW143323   2.031  11.417   2.873 -0.0686 -1.3974  0.9856
12922SOL    HW243324   1.887  11.386   2.909 -0.8126  1.7001  1.0212
12923SOL     OW43325   5.169   4.239   1.280 -0.1623 -0.4430  0.1819
12923SOL    HW143326   5.108   4.271   1.213 -0.4540 -1.7918 -0.2207
12923SOL    HW243327   5.251   4.226   1.232  0.5940  1.6413  0.7773
12924SOL     OW43328   3.687   6.499   8.344  0.1683 -0.2514 -0.3885
12924SOL    HW143329   3.690   6.480   8.438  1.7885  0.2678 -0.3075
12924SOL    HW243330   3.759   6.449   8.307  0.1896  0.3647 -1.2025
12925SOL     OW43331   6.236   7.952  11.441 -0.3734  0.0014 -0.1213
12925SOL    HW143332   6.323   7.915  11.456 -0.6806 -0.8933 -0.4340
12925SOL    HW243333   6.211   7.991  11.525  0.0017 -0.4519  0.2091
12926SOL     OW43334   3.630   6.966   6.165  0.1387 -0.0521  0.3137
12926SOL    HW143335   3.559   6.932   6.110  0.1624 -0.7963  0.7447
12926SOL    HW243336   3.588   7.035   6.217  0.3236  1.4006 -1.3288
12927SOL     OW43337   9.795  10.460   9.385  0.0500  0.1170 -0.1946
12927SOL    HW143338   9.883  10.423   9.380 -0.8155 -2.0355 -1.1050
12927SOL    HW243339   9.738  10.383   9.397 -1.7498  1.3755 -0.2484
12928SOL     OW43340   0.147   7.331   5.631  0.2319  0.5217 -0.1481
12928SOL    HW143341   0.069   7.371   5.591  0.0586 -1.2008 -1.6524
12928SOL    HW243342   0.173   7.263   5.570  1.8174 -0.2090  1.2630
12929SOL     OW43343  10.467   3.541   0.267 -0.0461 -0.0147  0.5481
12929SOL    HW143344  10.511   3.620   0.235 -0.5268  0.2226  0.4627
12929SOL    HW243345  10.428   3.501   0.189  1.7684 -1.3717  0.2773
12930SOL     OW43346   9.117   5.506   7.095 -0.4026 -0.0229  0.0355
12930SOL    HW143347   9.022   5.503   7.085 -0.7929  0.9922  2.5793
12930SOL    HW243348   9.137   5.430   7.150  0.5630 -1.2063 -1.8292
12931SOL     OW43349   1.795   6.134   6.902 -0.2228 -0.1405  0.5515
12931SOL    HW143350   1.824   6.223   6.881 -1.0233 -0.1436 -0.7185
12931SOL    HW243351   1.741   6.144   6.980  0.2934  0.3803  0.8462
12932SOL     OW43352   6.018   0.175   5.001 -0.1013 -0.0052  0.1201
12932SOL    HW143353   6.060   0.131   4.927 -0.5260  0.6970 -0.5527
12932SOL    HW243354   6.026   0.268   4.980 -0.8490  0.1743  0.6179
12933SOL     OW43355   6.426   4.456   1.828 -0.3402 -0.6048  0.3300
12933SOL    HW143356   6.392   4.462   1.739  1.0232  0.2704 -0.1646
12933SOL    HW243357   6.369   4.512   1.880  0.2033  0.6870 -0.4390
12934SOL     OW43358   8.027   5.333   1.494  0.1119 -0.0456 -0.3816
12934SOL    HW143359   7.962   5.403   1.495 -0.8879 -0.9486  0.1145
12934SOL    HW243360   8.021   5.293   1.581  0.3449 -1.0178 -0.7946
12935SOL     OW43361  11.679   2.767   0.981  0.4854  0.1140  0.2669
12935SOL    HW143362  11.629   2.788   1.061 -0.7960 -0.2465 -0.4180
12935SOL    HW243363  11.695   2.852   0.941 -1.0033  0.1443 -0.3237
12936SOL     OW43364   7.113   0.019  11.741 -0.7891 -0.5346 -0.3575
12936SOL    HW143365   7.184  -0.023  11.693  0.0958 -0.0193  0.4684
12936SOL    HW243366   7.152   0.098  11.778 -0.7935 -1.9414  2.9816
12937SOL     OW43367   5.469   3.681  11.129  0.0082  0.0953 -0.4832
12937SOL    HW143368   5.557   3.650  11.108 -0.4638 -1.2972 -0.4750
12937SOL    HW243369   5.460   3.666  11.223 -0.5431 -0.5987 -0.6373
12938SOL     OW43370   5.143  11.156   1.887  0.6016  0.3140  0.2004
12938SOL    HW143371   5.221  11.114   1.851  0.4203  0.5264 -0.4553
12938SOL    HW243372   5.163  11.169   1.980  1.2552  0.1684  0.0824
12939SOL     OW43373  10.444  10.774   4.394 -0.1309  0.2670 -0.4185
12939SOL    HW143374  10.525  10.823   4.379  0.4926 -0.4906  0.3173
12939SOL    HW243375  10.397  10.777   4.311  0.8444  0.3881 -0.9709
12940SOL     OW43376   0.660   0.888  11.848  0.3693 -0.3084 -0.0350
12940SOL    HW143377   0.670   0.904  11.942 -1.0052  0.9726 -0.0672
12940SOL    HW243378   0.687   0.971  11.807 -1.3002 -0.0224 -0.6035
12941SOL     OW43379   0.297   7.356  11.727  0.0057  0.1633 -0.3137
12941SOL    HW143380   0.378   7.322  11.690 -0.9875 -1.0079 -1.5030
12941SOL    HW243381   0.305   7.339  11.821  1.1212  0.0619 -0.4101
12942SOL     OW43382   4.883   8.724   5.621 -0.2495 -0.0771 -0.0428
12942SOL    HW143383   4.927   8.810   5.616 -1.7654  0.7586  0.4051
12942SOL    HW243384   4.941   8.665   5.572  0.8864  1.1705 -0.2792
12943SOL     OW43385   1.371  11.451   9.495  0.0363 -0.4621 -0.6948
12943SOL    HW143386   1.361  11.542   9.467 -1.8288 -1.0388 -2.1315
12943SOL    HW243387   1.386  11.456   9.590  2.8837  1.4182 -1.1450
12944SOL     OW43388   1.458   3.603   6.632  0.0321 -0.5736  0.0215
12944SOL    HW143389   1.451   3.510   6.613 -2.6231 -0.7637  1.5151
12944SOL    HW243390   1.536   3.631   6.583 -0.1064 -3.1652 -1.9285
12945SOL     OW43391   6.009   5.126   3.803  0.3571 -0.0402 -0.3477
12945SOL    HW143392   5.969   5.042   3.826 -0.5465  0.5580  0.3214
12945SOL    HW243393   5.982   5.142   3.712  0.3219 -0.3466 -0.3929
12946SOL     OW43394   1.525   1.070   2.680 -0.3964  0.2509 -0.5061
12946SOL    HW143395   1.539   0.979   2.706 -1.0900 -0.0116 -1.0111
12946SOL    HW243396   1.445   1.096   2.726 -0.0649  0.6822 -0.1746
12947SOL     OW43397   9.831  11.865   7.678 -0.2691 -0.2711  0.0382
12947SOL    HW143398   9.813  11.882   7.770  0.0511 -0.2904  0.1054
12947SOL    HW243399   9.780  11.787   7.658 -0.3849 -0.2326  0.1839
12948SOL     OW43400   0.541   0.722   9.518  0.3299 -0.6532 -0.2280
12948SOL    HW143401   0.547   0.779   9.595  0.7806  0.3276 -0.9708
12948SOL    HW243402   0.615   0.747   9.463 -1.8363  1.1434 -2.5897
12949SOL     OW43403   0.374   8.780   5.519  0.6004  0.3258 -0.3485
12949SOL    HW143404   0.427   8.747   5.446 -0.4400 -1.0216 -0.5217
12949SOL    HW243405   0.374   8.710   5.583  0.3820  0.9754  0.3836
12950SOL     OW43406  11.015   9.735   1.375  0.2640 -0.1304  0.1296
12950SOL    HW143407  10.935   9.763   1.330  0.1458 -0.5066  0.0944
12950SOL    HW243408  10.995   9.747   1.468  0.6004  0.8817  0.0766
12951SOL     OW43409   7.000  10.063   7.506  0.6010 -0.3956 -0.5009
12951SOL    HW143410   6.965  10.133   7.560  1.4224  0.4599 -1.0520
12951SOL    HW243411   7.025   9.995   7.569 -1.8698 -1.0193 -0.0687
12952SOL     OW43412   5.749   5.270   3.971  0.4659 -0.0868 -0.0207
12952SOL    HW143413   5.708   5.235   3.891 -0.7128  0.1811  0.4493
12952SOL    HW243414   5.773   5.193   4.021  0.2841 -0.2439 -0.1733
12953SOL     OW43415   4.494  10.843   1.863  0.4888 -0.5644  0.4660
12953SOL    HW143416   4.456  10.925   1.895  0.6040 -0.1384 -0.4549
12953SOL    HW243417   4.440  10.775   1.902  0.5054 -0.0660  1.3968
12954SOL     OW43418   6.995   4.105   2.492 -0.7914  0.3380  0.9522
12954SOL    HW143419   6.900   4.091   2.499 -0.7018 -0.3585  0.8507
12954SOL    HW243420   7.032   4.049   2.561 -0.4248  0.2260  0.6656
12955SOL     OW43421   8.535   7.470   6.949 -0.4997 -0.6034 -0.4929
12955SOL    HW143422   8.544   7.381   6.914  1.1610 -1.3935  1.7553
12955SOL    HW243423   8.577   7.526   6.883  1.4242 -1.8917 -0.4339
12956SOL     OW43424   1.837   9.683   5.868 -0.3426 -0.3061  0.6710
12956SOL    HW143425   1.776   9.642   5.807  1.4228 -2.2364  0.0628
12956SOL    HW243426   1.902   9.726   5.811 -0.9192  1.4397  1.2890
12957SOL     OW43427   6.551   8.598   8.728 -0.3310 -0.0586 -0.1692
12957SOL    HW143428   6.611   8.548   8.672 -0.2734 -0.2402  0.0557
12957SOL    HW243429   6.589   8.686   8.732 -0.1146 -0.1579 -0.0751
12958SOL     OW43430   1.685   1.578   9.860  0.9526 -0.3191 -0.3814
12958SOL    HW143431   1.721   1.645   9.918  1.4036 -0.0328 -0.9797
12958SOL    HW243432   1.672   1.622   9.777 -1.9702 -0.0729  0.0926
12959SOL     OW43433  10.177  11.457   3.466 -0.2209 -0.1575  0.3311
12959SOL    HW143434  10.244  11.463   3.535 -0.2605 -1.0578  0.4618
12959SOL    HW243435  10.094  11.447   3.514 -0.3324 -0.0443  0.1618
12960SOL     OW43436   4.126   5.662   6.898  0.2823  0.6211 -0.7009
12960SOL    HW143437   4.147   5.727   6.831  2.4782  0.6969 -0.0310
12960SOL    HW243438   4.138   5.578   6.854  1.1981  0.6762 -0.5833
12961SOL     OW43439   0.429   4.656   9.053  0.1354  0.1366 -0.3519
12961SOL    HW143440   0.334   4.647   9.048  0.2746 -1.2350 -1.2515
12961SOL    HW243441   0.454   4.694   8.969  0.5466 -1.7642 -1.1556
12962SOL     OW43442  11.303  10.547   7.057  0.1783 -0.1870  0.1258
12962SOL    HW143443  11.369  10.617   7.058 -1.3762  1.3613 -0.0534
12962SOL    HW243444  11.226  10.586   7.100 -0.1456 -2.4765  1.7892
12963SOL     OW43445   8.384   2.805   5.529 -0.0618  0.0578  0.4484
12963SOL    HW143446   8.475   2.833   5.518 -0.3888  0.5192 -1.3961
12963SOL    HW243447   8.341   2.830   5.447 -1.8162 -0.3183  1.2073
12964SOL     OW43448   7.821   4.486   2.519 -0.3136  0.3640 -0.4950
12964SOL    HW143449   7.863   4.409   2.482  0.2431 -0.0947  1.0338
12964SOL    HW243450   7.767   4.452   2.590 -2.1599  1.1075 -1.4709
12965SOL     OW43451   9.155   2.965   6.748  0.1913 -0.6113  0.6916
12965SOL    HW143452   9.110   2.929   6.672 -0.6337 -0.6171  1.1622
12965SOL    HW243453   9.087   3.015   6.794  1.3333  1.7599 -0.0497
12966SOL     OW43454   8.615   9.914  10.059 -0.8597 -0.6979  0.2847
12966SOL    HW143455   8.526   9.879  10.067 -2.0869  1.9917 -0.2969
12966SOL    HW243456   8.639   9.938  10.148 -0.9191 -1.0294  0.3890
12967SOL     OW43457  10.073   1.324   9.913 -0.6557 -0.0925 -0.2103
12967SOL    HW143458  10.135   1.300   9.844 -0.7203  2.0867 -1.0879
12967SOL    HW243459  10.060   1.242   9.962  0.2915 -1.4137 -2.0324
12968SOL     OW43460   1.527   1.058   3.080  0.2471 -0.5340  0.0616
12968SOL    HW143461   1.501   0.969   3.055  2.9110 -1.6268  0.8546
12968SOL    HW243462   1.495   1.113   3.008  0.0647 -2.3659 -1.3425
12969SOL     OW43463  10.674   0.627   6.135  0.0165 -0.0353 -0.0242
12969SOL    HW143464  10.745   0.563   6.137 -1.0619 -1.2577 -0.2217
12969SOL    HW243465  10.688   0.674   6.052  1.0343  0.2872  0.3059
12970SOL     OW43466   0.343   1.798  11.462  0.1629  0.5605 -0.0018
12970SOL    HW143467   0.369   1.886  11.488 -2.2126  1.6042 -0.8629
12970SOL    HW243468   0.347   1.747  11.543  1.1090  1.5598  0.6070
12971SOL     OW43469  11.344   5.105   5.552 -0.7011 -0.6517  0.2278
12971SOL    HW143470  11.326   5.014   5.573  2.7273 -1.1128  1.8691
12971SOL    HW243471  11.320   5.153   5.632  0.2519 -0.5609  0.4670
12972SOL     OW43472   7.568  10.490   3.349  0.0444  0.8875  0.1362
12972SOL    HW143473   7.618  10.572   3.348  0.7498  0.4856  0.9582
12972SOL    HW243474   7.539  10.481   3.440  1.7304 -0.7994  0.5507
12973SOL     OW43475   1.351   3.754   3.026  0.2972  0.1443  0.6059
12973SOL    HW143476   1.369   3.792   2.940 -1.3858  1.5685  0.8259
12973SOL    HW243477   1.430   3.773   3.077  1.4768 -1.0583 -0.6862
12974SOL     OW43478  10.130   1.193   1.969  0.3084 -0.1033 -0.0313
12974SOL    HW143479  10.152   1.285   1.961 -0.8519  0.4171  2.0333
12974SOL    HW243480  10.106   1.166   1.880 -0.1726  1.8141 -0.5314
12975SOL     OW43481   9.188   4.873   1.036  0.5060  0.6531  0.5043
12975SOL    HW143482   9.093   4.860   1.036 -0.0682  3.9234 -0.4295
12975SOL    HW243483   9.202   4.951   1.090  2.3339  1.7453 -1.3873
12976SOL     OW43484   2.869   0.050   3.144 -0.0721 -0.1820 -0.6629
12976SOL    HW143485   2.883   0.110   3.217  1.1517  0.7849 -1.6401
12976SOL    HW243486   2.785   0.008   3.162  1.3297 -1.9797  2.6896
12977SOL     OW43487   8.232   0.555   5.247 -0.7476  0.1328  0.0802
12977SOL    HW143488   8.260   0.475   5.202  0.0742  0.0749  0.6624
12977SOL    HW243489   8.287   0.624   5.211 -0.2855  0.1352  0.7662
12978SOL     OW43490   4.526   1.464   8.501  0.1829 -0.0789 -0.1929
12978SOL    HW143491   4.530   1.511   8.418 -0.6984  0.3167 -0.0218
12978SOL    HW243492   4.478   1.383   8.480  1.8374 -1.0275 -0.5256
12979SOL     OW43493   5.550   3.060   3.834  0.5627  0.5040 -0.5031
12979SOL    HW143494   5.541   3.155   3.826 -1.0720  0.3083 -1.3089
12979SOL    HW243495   5.498   3.025   3.762  0.0338 -1.0215  0.5819
12980SOL     OW43496  10.841   5.908  11.851  0.7100  0.1165 -0.1869
12980SOL    HW143497  10.910   5.894  11.787  0.7722  0.6886 -0.2573
12980SOL    HW243498  10.828   5.823  11.893  0.3856 -0.3672 -1.2348
12981SOL     OW43499   9.217   4.630   8.174 -0.0551 -0.3293 -0.3956
12981SOL    HW143500   9.310   4.618   8.193  0.2042  0.8851 -0.7867
12981SOL    HW243501   9.173   4.563   8.226  0.8153  1.0261  2.2944
12982SOL     OW43502   9.703  10.120   3.694 -0.2627  0.2504  0.4233
12982SOL    HW143503   9.703  10.067   3.774 -1.6315  0.6674  0.7316
12982SOL    HW243504   9.751  10.067   3.630 -0.1743 -0.6125  1.1808
12983SOL     OW43505  10.972   9.128   2.219  0.3181 -0.5747  0.0316
12983SOL    HW143506  10.991   9.119   2.126 -0.8308 -0.7407 -0.2049
12983SOL    HW243507  11.051   9.167   2.256  0.0022  1.5862 -1.3953
12984SOL     OW43508   7.827   1.879   8.552 -0.4294  0.2755 -0.5278
12984SOL    HW143509   7.861   1.795   8.581 -1.8460 -0.1969 -0.1610
12984SOL    HW243510   7.809   1.867   8.459  1.3396  0.8592 -0.9724
12985SOL     OW43511  11.606   1.612   7.230 -0.2609 -0.3767 -0.5910
12985SOL    HW143512  11.565   1.590   7.147 -0.6760 -0.9676 -0.2368
12985SOL    HW243513  11.645   1.698   7.216 -0.4772 -0.3971 -1.3392
12986SOL     OW43514   0.860   2.315   8.581 -0.2902 -0.3143  0.2468
12986SOL    HW143515   0.874   2.404   8.549  2.4354 -1.4996 -2.4620
12986SOL    HW243516   0.768   2.296   8.562 -1.0450  1.9949  1.2917
12987SOL     OW43517  11.674   8.122  10.659 -0.0885 -0.0439  0.1886
12987SOL    HW143518  11.604   8.085  10.605 -0.2589  1.5907 -0.7764
12987SOL    HW243519  11.650   8.215  10.669 -0.1439 -0.2727  3.2051
12988SOL     OW43520   1.270   2.794  10.854 -0.7151  0.5892  0.2273
12988SOL    HW143521   1.250   2.865  10.915 -1.4721  1.1199 -0.6000
12988SOL    HW243522   1.198   2.732  10.864  2.1917 -2.7041  4.4785
12989SOL     OW43523  10.399   7.097   3.337 -0.4601  0.6780  0.1945
12989SOL    HW143524  10.468   7.065   3.395  0.8443 -1.1384 -2.1755
12989SOL    HW243525  10.318   7.083   3.386  0.6812  1.1030  2.3120
12990SOL     OW43526  11.946   3.335  10.082 -0.5085 -0.0943  0.1594
12990SOL    HW143527  11.975   3.310   9.994  1.3919  0.4006  0.5937
12990SOL    HW243528  11.986   3.270  10.140 -0.8952  0.1822  0.7457
12991SOL     OW43529   2.854   5.957   4.587 -0.0533  0.3154 -0.1268
12991SOL    HW143530   2.910   5.892   4.630 -1.6789  0.5168  2.4686
12991SOL    HW243531   2.913   6.031   4.569  0.7810  0.0756  1.4582
12992SOL     OW43532   4.143   6.227   3.814  0.2117 -0.3278  0.0051
12992SOL    HW143533   4.228   6.216   3.856  0.6793 -0.1801 -0.8894
12992SOL    HW243534   4.145   6.315   3.777 -0.1820 -0.4706 -0.3650
12993SOL     OW43535  11.151   9.469   9.244 -0.0383 -0.4594  0.3718
12993SOL    HW143536  11.237   9.427   9.250 -0.2590 -0.8816  0.5992
12993SOL    HW243537  11.161   9.552   9.291  0.3962 -0.2566 -0.0702
12994SOL     OW43538  11.164   5.363   8.325 -0.7220  0.4567  0.3103
12994SOL    HW143539  11.081   5.411   8.335 -2.0434 -1.6533  0.0610
12994SOL    HW243540  11.186   5.374   8.232  0.3392  2.5862  0.7630
12995SOL     OW43541   5.070   3.093   0.032 -0.4800 -0.4254  0.3951
12995SOL    HW143542   5.115   3.071   0.114  0.5574  2.2415  0.6286
12995SOL    HW243543   5.026   3.176   0.050 -0.5861  0.0074 -1.6231
12996SOL     OW43544   4.934   8.623   7.714 -0.3682  0.0236  0.1538
12996SOL    HW143545   4.880   8.697   7.684 -1.6470  0.2084  2.6414
12996SOL    HW243546   4.897   8.547   7.670 -1.0007  0.4961 -0.1469
12997SOL     OW43547   5.241   1.527  11.341  0.1058  0.4060  0.1373
12997SOL    HW143548   5.211   1.617  11.341 -0.6825  0.1569 -0.8921
12997SOL    HW243549   5.209   1.491  11.423 -0.3043  0.8340  0.1691
12998SOL     OW43550   7.894   1.398   4.180 -0.0188  0.2042  0.1863
12998SOL    HW143551   7.866   1.406   4.089  1.0324  0.7300 -0.1031
12998SOL    HW243552   7.827   1.344   4.221 -0.0070 -0.8448 -1.1236
12999SOL     OW43553   2.756   6.942   4.463  0.3236  0.0935 -0.2186
12999SOL    HW143554   2.769   6.897   4.547  2.2732 -2.1766 -1.6207
12999SOL    HW243555   2.799   7.027   4.475  0.4161 -0.1085  1.0937
13000SOL     OW43556   7.940   1.145  11.567  0.8611 -0.3155 -0.3874
13000SOL    HW143557   7.990   1.194  11.632  1.9653 -1.0434 -0.6447
13000SOL    HW243558   7.956   1.053  11.589  1.1939 -0.5767 -1.6266
13001SOL     OW43559   9.178   1.334   5.980 -0.1447  0.1124 -0.4616
13001SOL    HW143560   9.255   1.351   5.926 -0.0143 -0.5418 -0.4959
13001SOL    HW243561   9.213   1.321   6.069 -0.1950 -0.3020 -0.4982
13002SOL     OW43562  11.056   3.724   7.160 -0.8554 -0.1996  0.2483
13002SOL    HW143563  11.111   3.645   7.168 -2.2398 -1.2384 -0.1930
13002SOL    HW243564  11.047   3.756   7.250 -2.2589 -1.9658  0.7909
13003SOL     OW43565   4.471   8.181   0.520 -0.3135 -0.0701 -0.0982
13003SOL    HW143566   4.533   8.141   0.580 -0.9437  0.5787  1.0296
13003SOL    HW243567   4.407   8.224   0.577 -0.9167  0.5989 -1.2367
13004SOL     OW43568   0.939   1.122   6.525 -0.2835  0.7598  0.7040
13004SOL    HW143569   0.929   1.217   6.520 -1.2858  0.8194  2.6603
13004SOL    HW243570   0.886   1.097   6.601  0.6920 -1.2584  0.7769
13005SOL     OW43571   1.940   4.449   7.784  0.1458 -0.1583  0.2321
13005SOL    HW143572   1.908   4.507   7.714 -0.6147 -0.9022 -0.0584
13005SOL    HW243573   1.953   4.365   7.741  1.8251 -0.0759  0.5192
13006SOL     OW43574   4.262  10.484  10.073 -0.6976  0.0181  0.1627
13006SOL    HW143575   4.331  10.446  10.019 -0.2719 -0.2033  0.8431
13006SOL    HW243576   4.269  10.437  10.156 -0.8764  0.8422  0.6528
13007SOL     OW43577  12.036  10.499  10.401  0.1796 -0.2596  0.9830
13007SOL    HW143578  11.978  10.569  10.369 -0.4548 -0.2476  2.1050
13007SOL    HW243579  12.029  10.430  10.335  0.4673  0.5399  0.0818
13008SOL     OW43580   4.530   3.908   5.403 -0.0450 -0.3574  0.1508
13008SOL    HW143581   4.546   3.814   5.410  2.1063 -0.0750 -0.3464
13008SOL    HW243582   4.593   3.939   5.338 -1.0198  1.3768 -0.0389
13009SOL     OW43583   9.615   8.951   4.354  0.0818  0.5069  0.0556
13009SOL    HW143584   9.564   8.999   4.420 -0.2114 -0.5792  0.6411
13009SOL    HW243585   9.682   9.013   4.326 -1.4601  1.9431 -0.6392
13010SOL     OW43586   3.405  11.049   7.207 -0.2207 -0.3977 -0.3259
13010SOL    HW143587   3.487  11.098   7.198  0.3056 -1.0113  0.8797
13010SOL    HW243588   3.337  11.111   7.180  0.5144  0.6457  0.1125
13011SOL     OW43589   6.464   1.665  11.384  0.5195  0.0233 -0.2771
13011SOL    HW143590   6.407   1.618  11.444 -1.1399  0.7455 -1.1995
13011SOL    HW243591   6.426   1.649  11.297  1.6069  0.6981 -0.9096
13012SOL     OW43592  10.845  11.859   5.572  0.0113  0.4016 -0.5305
13012SOL    HW143593  10.893  11.929   5.529  0.6687  0.0680 -0.3525
13012SOL    HW243594  10.756  11.893   5.582 -0.0911  0.5929 -1.8899
13013SOL     OW43595   2.526   6.873  10.294 -0.2380  0.2041 -0.2424
13013SOL    HW143596   2.613   6.874  10.253 -0.8765  2.1058 -1.7044
13013SOL    HW243597   2.466   6.899  10.224 -1.9895 -0.8376  0.7977
13014SOL     OW43598   8.283   8.982   2.673  0.0021  0.2217  0.4899
13014SOL    HW143599   8.378   8.983   2.683  0.0730 -1.2487  0.1362
13014SOL    HW243600   8.266   9.043   2.601  0.8011 -0.5015 -0.3274
13015SOL     OW43601   6.582   2.789  10.842  0.4292 -0.4964  0.2330
13015SOL    HW143602   6.582   2.857  10.910  0.1898 -0.1872 -0.0697
13015SOL    HW243603   6.674   2.775  10.823  0.4711  1.1203 -1.0350
13016SOL     OW43604   2.338   0.418   7.445  0.5492  0.3487  0.1595
13016SOL    HW143605   2.429   0.404   7.473  0.1236  0.0992  1.4977
13016SOL    HW243606   2.294   0.451   7.523 -1.0651 -1.8438  0.2742
13017SOL     OW43607   6.314   8.750   4.398  0.3246 -0.1065  0.1973
13017SOL    HW143608   6.383   8.811   4.422  0.9632 -1.0938  0.9546
13017SOL    HW243609   6.339   8.668   4.440 -1.4167 -0.4349  0.6776
13018SOL     OW43610  11.531   0.685   5.847  0.4943  0.0965  0.3497
13018SOL    HW143611  11.571   0.649   5.926  2.2179  2.3749  0.6119
13018SOL    HW243612  11.496   0.770   5.873 -0.9415 -0.0776 -0.8499
13019SOL     OW43613   5.505   1.823  11.186 -0.1990  0.1223  0.5788
13019SOL    HW143614   5.496   1.906  11.232  2.4079  0.4327  0.6991
13019SOL    HW243615   5.550   1.845  11.105  1.0783 -1.2048  0.8801
13020SOL     OW43616   2.971   4.238  10.528  0.6196  0.6194 -0.3520
13020SOL    HW143617   3.030   4.308  10.499  0.2895  1.0006 -0.1182
13020SOL    HW243618   2.999   4.219  10.618  2.2021 -1.1536 -1.1487
13021SOL     OW43619   1.687   4.212   7.375 -0.1414 -0.4718 -0.0410
13021SOL    HW143620   1.612   4.183   7.427  0.4923 -0.2105  1.0460
13021SOL    HW243621   1.698   4.304   7.398  0.9424 -0.6869  0.3341
13022SOL     OW43622   5.043  10.154  11.144  0.1359 -0.0475  0.1402
13022SOL    HW143623   5.014  10.215  11.213 -0.8606  0.1076 -0.3914
13022SOL    HW243624   5.095  10.089  11.191 -0.2685  0.2220  1.0051
13023SOL     OW43625  11.807  10.116   2.198 -0.4351 -0.4454 -0.2145
13023SOL    HW143626  11.755  10.056   2.252 -1.5211  0.7406  0.1168
13023SOL    HW243627  11.872  10.060   2.156 -0.2624 -1.5730  1.4543
13024SOL     OW43628   4.759   9.461   8.707  0.2999  0.2219  0.1048
13024SOL    HW143629   4.747   9.420   8.621  1.0570  0.7207 -0.2467
13024SOL    HW243630   4.829   9.411   8.748 -0.5109 -0.4359  0.7103
13025SOL     OW43631   1.192   8.869   6.399  0.1468 -0.1589 -0.4242
13025SOL    HW143632   1.168   8.778   6.413 -0.6247 -0.0116 -0.7311
13025SOL    HW243633   1.250   8.890   6.473 -1.6334 -0.1948  1.0480
13026SOL     OW43634  10.175   1.438   0.985 -0.0550  0.6632 -0.6586
13026SOL    HW143635  10.137   1.389   0.912 -0.2846  1.2925 -0.9642
13026SOL    HW243636  10.227   1.507   0.943 -1.3471  1.9261 -0.2373
13027SOL     OW43637   8.464   2.730   3.644  0.4433 -0.4310  0.4512
13027SOL    HW143638   8.461   2.736   3.548 -0.5099  0.9460  0.5424
13027SOL    HW243639   8.446   2.637   3.662  2.5812 -1.1604 -0.7197
13028SOL     OW43640  11.765   3.428   7.472 -0.1588 -0.5191  0.4765
13028SOL    HW143641  11.712   3.349   7.477 -1.5829  0.4429  0.8870
13028SOL    HW243642  11.768   3.449   7.378 -1.7697  0.2415  0.5756
13029SOL     OW43643   7.160   5.574   4.553  0.5483  0.4114 -0.0605
13029SOL    HW143644   7.109   5.514   4.499  2.1786 -1.6703  0.5889
13029SOL    HW243645   7.189   5.642   4.493 -1.1590  0.4925 -0.8587
13030SOL     OW43646  11.673   9.683   5.314  0.2320 -0.1896 -0.3601
13030SOL    HW143647  11.698   9.769   5.282  0.2624  0.1530  0.5478
13030SOL    HW243648  11.628   9.641   5.241 -0.3901  0.8551 -0.5888
13031SOL     OW43649   8.200   4.356   2.343  0.1551 -0.2314 -0.4140
13031SOL    HW143650   8.212   4.450   2.327 -1.3176 -0.0524 -0.5841
13031SOL    HW243651   8.270   4.314   2.294  2.5485  0.8850  1.8190
13032SOL     OW43652   7.378   2.930   3.511 -0.5671  0.0975 -0.5602
13032SOL    HW143653   7.366   2.965   3.423 -1.2270 -0.5001 -0.7161
13032SOL    HW243654   7.351   3.001   3.569  3.2711  1.8800 -0.6858
13033SOL     OW43655   1.144  10.931   1.383  0.2319 -0.7871  0.6936
13033SOL    HW143656   1.125  10.841   1.356  1.5536 -1.1465  0.8835
13033SOL    HW243657   1.237  10.943   1.364  0.1994  0.3682  1.1608
13034SOL     OW43658   8.365   7.791  11.548 -0.8748  0.0792 -0.0620
13034SOL    HW143659   8.345   7.698  11.556  0.2276 -0.1468  0.0894
13034SOL    HW243660   8.361   7.808  11.453 -1.4361 -0.0291 -0.0632
13035SOL     OW43661   3.457   5.316   4.715  0.5365 -0.1675 -0.4948
13035SOL    HW143662   3.367   5.297   4.743  1.0539 -1.3199  0.4301
13035SOL    HW243663   3.510   5.305   4.794  1.9087 -2.5184 -1.6378
13036SOL     OW43664   0.123  10.032   0.396  0.0821  0.1764  0.0151
13036SOL    HW143665   0.167  10.109   0.361 -0.4243  0.0528 -0.9348
13036SOL    HW243666   0.070  10.065   0.468  1.3184  0.3993  0.8454
13037SOL     OW43667   9.862   1.693   5.956 -0.1618 -0.3497  0.3148
13037SOL    HW143668   9.956   1.712   5.948 -0.2515  0.4885  1.1852
13037SOL    HW243669   9.830   1.755   6.021 -1.3821 -0.4505 -0.1635
13038SOL     OW43670   0.060   4.927   3.055 -0.1842 -0.2264  0.4985
13038SOL    HW143671   0.024   4.998   3.108 -0.9718  0.6408 -1.1416
13038SOL    HW243672  -0.016   4.871   3.036  0.0534 -0.4197  0.1132
13039SOL     OW43673   5.422   3.533   9.352 -0.8466 -0.2221  0.3621
13039SOL    HW143674   5.507   3.527   9.308 -0.0940  3.2389  1.0684
13039SOL    HW243675   5.384   3.614   9.319 -1.8748  0.6194  3.2980
13040SOL     OW43676  11.907   8.443   1.650 -0.2686 -0.5220  0.7186
13040SOL    HW143677  11.863   8.391   1.718  0.1092  1.1195  2.2964
13040SOL    HW243678  11.867   8.415   1.568 -3.2956 -0.0905  1.9429
13041SOL     OW43679   5.863   6.184   3.126  0.1003 -0.1535  0.0456
13041SOL    HW143680   5.880   6.092   3.106 -0.8997 -0.3430  0.0176
13041SOL    HW243681   5.944   6.215   3.166  0.6051 -0.9253 -0.3556
13042SOL     OW43682  10.509   2.730   9.422  0.9342  0.7907  0.0052
13042SOL    HW143683  10.475   2.676   9.351  0.3788  1.0472  0.0729
13042SOL    HW243684  10.602   2.707   9.427  0.9360  0.6352 -0.6759
13043SOL     OW43685   0.097   0.996   7.571  0.1630 -0.0675 -0.1320
13043SOL    HW143686   0.034   1.007   7.500 -0.3290 -1.2694  0.0966
13043SOL    HW243687   0.054   1.037   7.647 -0.0336 -0.2396 -0.1482
13044SOL     OW43688   9.397   2.739   0.837  0.0305 -0.3513 -0.4854
13044SOL    HW143689   9.371   2.718   0.927 -0.8071 -1.1910 -0.9064
13044SOL    HW243690   9.492   2.732   0.837  0.1694  0.9630  0.6465
13045SOL     OW43691   3.536   5.927   5.251 -0.2911  0.0834 -0.6512
13045SOL    HW143692   3.582   5.945   5.169  0.6381  0.1504 -0.1279
13045SOL    HW243693   3.574   5.988   5.314 -1.5779  0.6095 -0.3447
13046SOL     OW43694   4.790   3.723   7.886 -0.2285  0.4286  0.0270
13046SOL    HW143695   4.782   3.747   7.978 -2.7946 -2.4109  0.6721
13046SOL    HW243696   4.718   3.768   7.842  0.8428  1.5842 -0.6366
13047SOL     OW43697   7.995   3.278   3.548  0.0333  0.9239  0.0078
13047SOL    HW143698   8.072   3.331   3.570 -0.0673  0.6267  1.1763
13047SOL    HW243699   8.015   3.241   3.462  1.8143 -0.1989  0.8441
13048SOL     OW43700   9.703   8.586   1.842 -0.3045 -0.0478  0.7582
13048SOL    HW143701   9.798   8.590   1.851  0.1369 -1.9016 -1.9464
13048SOL    HW243702   9.679   8.500   1.877 -0.8755  0.0893  0.7091
13049SOL     OW43703   2.773   9.209   2.379  0.3938  0.1520  0.7729
13049SOL    HW143704   2.774   9.288   2.434 -0.5300  0.3351  0.5404
13049SOL    HW243705   2.690   9.214   2.331  1.3165  0.1624 -0.8909
13050SOL     OW43706   3.330   8.167   6.910 -0.0455  0.0700  0.6452
13050SOL    HW143707   3.279   8.245   6.892 -1.6920 -1.0447  0.3125
13050SOL    HW243708   3.302   8.140   6.998  0.6952 -0.0275  0.8609
13051SOL     OW43709   8.941   1.822   3.330 -0.3531 -0.1557  0.5572
13051SOL    HW143710   8.989   1.783   3.256 -0.6307 -1.4683  1.0316
13051SOL    HW243711   8.980   1.908   3.341 -0.7405  0.3541 -1.5349
13052SOL     OW43712   8.242   2.533   2.914  0.4500  0.7554 -0.3108
13052SOL    HW143713   8.157   2.492   2.927  0.3164  0.0283 -3.0170
13052SOL    HW243714   8.223   2.617   2.873  1.0214  0.8534 -0.3905
13053SOL     OW43715   6.303   9.266   5.518  0.0210 -0.1633 -0.1301
13053SOL    HW143716   6.229   9.220   5.477  1.2944 -2.6370  0.2378
13053SOL    HW243717   6.364   9.280   5.446  0.8141 -1.5441  0.2465
13054SOL     OW43718   1.520   9.469   4.987  0.1235 -0.0349  0.0967
13054SOL    HW143719   1.527   9.379   4.955  1.1111  0.3869 -0.9228
13054SOL    HW243720   1.610   9.502   4.988 -0.1288  0.7136  1.1941
13055SOL     OW43721   4.927   7.448   0.926  0.2061  0.0715  0.0644
13055SOL    HW143722   4.974   7.447   1.009 -1.1622 -1.1946  0.8631
13055SOL    HW243723   4.846   7.495   0.945 -0.6490 -1.2465 -0.2119
13056SOL     OW43724   8.456   2.126   6.481  0.4524  0.0349  0.1968
13056SOL    HW143725   8.467   2.168   6.395  1.7713 -0.0238  0.3229
13056SOL    HW243726   8.505   2.181   6.541  2.0350 -1.5125  0.4006
13057SOL     OW43727  11.886   5.395   6.696  0.6930  0.0114  0.3361
13057SOL    HW143728  11.833   5.465   6.659  2.1487 -0.2148 -2.3597
13057SOL    HW243729  11.833   5.316   6.683  0.2909  0.1988  0.7730
13058SOL     OW43730  10.350   8.938   8.495 -0.3090 -0.2332  0.2507
13058SOL    HW143731  10.278   8.912   8.553  1.1063 -0.0712  2.1678
13058SOL    HW243732  10.410   8.863   8.497  0.4110  0.3337  0.1190
13059SOL     OW43733  10.533   2.715   4.394  0.1667 -0.2050 -0.0977
13059SOL    HW143734  10.542   2.756   4.308  0.3678 -0.1067 -0.0316
13059SOL    HW243735  10.624   2.703   4.424  0.1917 -2.0230 -0.7432
13060SOL     OW43736   2.812  12.057  11.861 -0.5330  0.3380 -0.2885
13060SOL    HW143737   2.745  12.096  11.918 -1.6943 -0.8787 -0.7767
13060SOL    HW243738   2.849  11.986  11.913 -0.4411  0.2558 -0.4683
13061SOL     OW43739   4.837   9.633   7.392 -0.5624  0.0747 -0.3744
13061SOL    HW143740   4.830   9.627   7.487  1.1825 -2.4875 -0.3072
13061SOL    HW243741   4.767   9.576   7.360 -0.2362 -0.2227 -0.5651
13062SOL     OW43742   8.441   5.742   2.149 -0.3501 -0.2400 -0.2865
13062SOL    HW143743   8.490   5.679   2.202 -1.4424 -1.4345 -0.6461
13062SOL    HW243744   8.413   5.809   2.211  0.5140 -0.2987  0.1766
13063SOL     OW43745  10.281   7.287   2.871  0.4881 -0.3298 -0.4264
13063SOL    HW143746  10.340   7.264   2.799  0.4560 -0.8243 -0.3002
13063SOL    HW243747  10.331   7.348   2.925  0.6226 -0.1948 -0.7038
13064SOL     OW43748  10.604   1.094   3.619  0.1635  0.2602  0.8448
13064SOL    HW143749  10.534   1.045   3.660 -0.6972  0.8380  0.0980
13064SOL    HW243750  10.604   1.065   3.528  4.1866 -3.4957  1.7153
13065SOL     OW43751  11.048   0.759  10.640 -0.1946 -0.4091  0.3116
13065SOL    HW143752  10.965   0.805  10.628  0.5872  0.8959 -0.2261
13065SOL    HW243753  11.073   0.778  10.730 -0.5344 -0.9358  0.5263
13066SOL     OW43754  11.478   7.469   7.187 -0.3365  0.4209  0.3429
13066SOL    HW143755  11.543   7.482   7.118 -0.5368  0.0780  0.0834
13066SOL    HW243756  11.395   7.495   7.146 -0.9336 -2.5105 -0.5574
13067SOL     OW43757  10.677   6.116   3.390 -0.1515  0.1885  0.3564
13067SOL    HW143758  10.682   6.021   3.375 -0.3062  0.1331  0.6707
13067SOL    HW243759  10.655   6.125   3.482  0.4693  0.5407  0.4761
13068SOL     OW43760   7.267   4.089   4.841  0.2365 -0.1418 -0.7578
13068SOL    HW143761   7.219   4.167   4.869 -1.4236 -1.1915 -0.5707
13068SOL    HW243762   7.344   4.088   4.899 -0.9652  0.0436  0.9319
13069SOL     OW43763   5.534   9.933   1.051  0.5527  0.6325 -0.0429
13069SOL    HW143764   5.441   9.954   1.038 -0.3016  0.0535  3.8006
13069SOL    HW243765   5.562   9.991   1.122  2.7256 -0.2193 -0.1252
13070SOL     OW43766   4.989   2.620   6.012  0.3353  0.0255  0.0818
13070SOL    HW143767   4.990   2.588   5.922  2.6226 -1.0564  0.4066
13070SOL    HW243768   5.022   2.710   6.006 -0.1445  0.1834 -0.2128
13071SOL     OW43769   7.589  12.004   9.868  0.3614  0.3626 -0.3994
13071SOL    HW143770   7.578  11.910   9.879 -0.6200  0.2558 -1.8999
13071SOL    HW243771   7.683  12.018   9.868  0.5255 -0.6830 -0.6051
13072SOL     OW43772   9.352   0.471   6.003  0.6601 -0.0654  0.2645
13072SOL    HW143773   9.325   0.500   6.090 -0.6128 -0.0397 -0.1238
13072SOL    HW243774   9.374   0.379   6.014 -1.0926 -0.5055  0.3017
13073SOL     OW43775   6.412   1.924  11.512  0.3121 -0.7182 -0.2675
13073SOL    HW143776   6.397   1.855  11.576 -0.5755 -0.6428 -0.3877
13073SOL    HW243777   6.349   1.993  11.536  1.2544  0.1053 -0.0743
13074SOL     OW43778   8.014   9.461  11.289  0.0539 -0.2837 -0.0381
13074SOL    HW143779   7.967   9.532  11.334  2.2160  1.6029 -0.5831
13074SOL    HW243780   8.001   9.385  11.345 -1.1831  0.8703  1.3333
13075SOL     OW43781   9.739   3.882   9.554  0.0448 -0.2154  0.5594
13075SOL    HW143782   9.731   3.838   9.469  0.4835 -1.8350  1.3160
13075SOL    HW243783   9.777   3.968   9.534 -0.2487 -0.4151 -0.9140
13076SOL     OW43784   2.538   8.698   4.851  0.0844 -0.3182 -0.3683
13076SOL    HW143785   2.557   8.620   4.903  1.8694  0.6715  0.5358
13076SOL    HW243786   2.511   8.763   4.915  1.4348  0.6537 -0.7524
13077SOL     OW43787  11.328   0.290   4.855 -0.2779  0.1814 -0.1264
13077SOL    HW143788  11.290   0.232   4.789  0.3241  0.0909 -0.4030
13077SOL    HW243789  11.284   0.374   4.842  0.6415  0.5039 -1.4420
13078SOL     OW43790   4.722   8.408   0.537 -0.4585 -0.9658  0.7687
13078SOL    HW143791   4.641   8.418   0.587 -0.9110 -0.9831  0.0604
13078SOL    HW243792   4.693   8.388   0.448  0.2725  0.5174  0.1482
13079SOL     OW43793   0.870   0.767   7.089 -0.5476 -0.3605 -0.2760
13079SOL    HW143794   0.790   0.776   7.141 -0.6548  0.9416 -0.6340
13079SOL    HW243795   0.941   0.787   7.150 -0.5741 -0.2889 -0.2689
13080SOL     OW43796  10.446   9.410  11.093  0.3109 -0.4517 -0.1500
13080SOL    HW143797  10.521   9.450  11.048 -0.8410  1.3057 -0.6069
13080SOL    HW243798  10.482   9.331  11.134  1.8423 -1.0961 -2.5251
13081SOL     OW43799  10.387  11.217  12.032  0.2136 -0.2506 -0.0489
13081SOL    HW143800  10.475  11.180  12.039 -0.0674 -0.8506  0.2950
13081SOL    HW243801  10.328  11.144  12.048 -0.3485  0.4534  1.1976
13082SOL     OW43802   8.985   9.040   2.240  0.0567 -0.2356  0.0217
13082SOL    HW143803   9.059   9.096   2.215 -1.2391  0.3174 -3.1866
13082SOL    HW243804   8.992   8.964   2.182 -1.0130 -0.9248  0.7700
13083SOL     OW43805  11.358  10.375   8.931  0.5058 -0.0932  0.4761
13083SOL    HW143806  11.289  10.405   8.990 -0.6439  0.6669 -1.1846
13083SOL    HW243807  11.434  10.428   8.954 -0.3318  1.2050  0.3476
13084SOL     OW43808   7.306   1.339   4.933 -0.2764 -0.7839  0.1897
13084SOL    HW143809   7.230   1.288   4.904 -0.0328 -1.7895  1.2585
13084SOL    HW243810   7.382   1.288   4.904 -0.0234 -0.8690  0.9841
13085SOL     OW43811   5.641   8.392   2.544 -0.2052 -0.1997 -0.2776
13085SOL    HW143812   5.676   8.303   2.539 -0.0454 -0.3100  1.9128
13085SOL    HW243813   5.639   8.412   2.638 -3.1121  0.9769 -0.4898
13086SOL     OW43814   8.015   5.742   9.156 -0.2717  0.2346  0.3077
13086SOL    HW143815   8.091   5.692   9.127 -1.0839  0.2449 -1.9882
13086SOL    HW243816   8.047   5.789   9.234  2.1205  0.3766 -0.6596
13087SOL     OW43817   0.007   3.887  11.077 -0.6370 -0.7495 -0.2048
13087SOL    HW143818  -0.079   3.862  11.044 -0.5400  1.0873 -1.9858
13087SOL    HW243819   0.058   3.907  10.999  0.3165  1.6198  0.9432
13088SOL     OW43820   8.004   3.091  11.941  0.7283 -0.2826 -0.5018
13088SOL    HW143821   7.984   3.010  11.987  0.9902 -1.9259 -3.0849
13088SOL    HW243822   8.070   3.134  11.995  2.6626 -3.1552 -0.3591
13089SOL     OW43823  10.595  11.482   4.694  0.5442 -0.3404  0.1969
13089SOL    HW143824  10.555  11.429   4.625 -0.0763 -0.5111  0.6761
13089SOL    HW243825  10.563  11.571   4.677  1.7521 -0.0602 -0.7307
13090SOL     OW43826   0.830  12.048   2.823  0.5961 -0.1452  0.2734
13090SOL    HW143827   0.830  12.009   2.736  0.9344 -0.6484  0.4946
13090SOL    HW243828   0.823  11.974   2.883 -1.1663  0.2851  0.6554
13091SOL     OW43829  10.694  10.154   0.279 -0.7461 -0.1161  0.7489
13091SOL    HW143830  10.655  10.162   0.366 -1.7788 -3.2205  0.6862
13091SOL    HW243831  10.678  10.063   0.253  2.7683 -0.3875 -1.1549
13092SOL     OW43832  10.843   4.388   0.811 -0.1622  0.1274 -0.6019
13092SOL    HW143833  10.832   4.406   0.904 -0.0740 -2.0394 -0.1310
13092SOL    HW243834  10.759   4.350   0.784  0.1587 -0.1774 -1.1780
13093SOL     OW43835   3.558   8.257   4.913  0.2678 -0.0343  0.2076
13093SOL    HW143836   3.587   8.231   5.001  0.5176 -1.2820 -0.2229
13093SOL    HW243837   3.612   8.333   4.891  2.1910 -1.3719  0.0435
13094SOL     OW43838   2.615  11.147   3.964 -0.4804  0.3206  0.3463
13094SOL    HW143839   2.660  11.062   3.967  0.8078  0.9887  0.5506
13094SOL    HW243840   2.596  11.166   4.056  0.0058  0.6584  0.3750
13095SOL     OW43841   3.741   5.847   4.300 -0.2661  0.1057  0.2213
13095SOL    HW143842   3.828   5.884   4.286  0.5537 -1.5051  0.7357
13095SOL    HW243843   3.741   5.767   4.247 -1.1950 -0.2607  0.7566
13096SOL     OW43844   4.950   9.540  10.247 -0.0495 -0.3484 -0.5698
13096SOL    HW143845   5.043   9.519  10.238  0.1617  0.8783 -1.7653
13096SOL    HW243846   4.930   9.524  10.339  1.1400 -1.3831 -0.4644
13097SOL     OW43847   4.875   3.335   5.216  0.2002 -0.1140 -0.4323
13097SOL    HW143848   4.898   3.377   5.133  3.9700 -1.4156 -0.2757
13097SOL    HW243849   4.940   3.367   5.278 -1.0566 -0.9872  1.4392
13098SOL     OW43850   7.037   7.881   2.632  0.3856  0.2323 -0.4531
13098SOL    HW143851   7.089   7.817   2.583  0.5544 -0.9105  1.1261
13098SOL    HW243852   6.973   7.828   2.679 -0.4037  1.3816 -0.1873
13099SOL     OW43853   8.799   5.828   3.187  0.0636  0.2555 -0.9231
13099SOL    HW143854   8.835   5.742   3.209  1.5159  0.6807 -1.5113
13099SOL    HW243855   8.844   5.853   3.106 -0.7303  1.3369 -1.0552
13100SOL     OW43856   0.826   2.332  11.558  0.4318  0.1771  0.0888
13100SOL    HW143857   0.887   2.260  11.575  0.1807  0.1811  1.0814
13100SOL    HW243858   0.783   2.307  11.476 -0.4329 -1.3670  0.9590
13101SOL     OW43859   0.559   2.234  11.868  0.3664 -0.2459  0.5110
13101SOL    HW143860   0.558   2.330  11.860  3.7357 -0.2201 -1.8040
13101SOL    HW243861   0.468   2.208  11.856 -0.8832  2.6363  2.3549
13102SOL     OW43862   6.626  10.815   4.326  0.4384  0.0554 -0.3225
13102SOL    HW143863   6.546  10.868   4.318 -0.2439 -0.7569  0.7995
13102SOL    HW243864   6.672  10.850   4.402  1.4368  0.8500 -1.2670
13103SOL     OW43865   2.866   5.968   6.972 -0.4674  0.4541  0.3947
13103SOL    HW143866   2.784   5.918   6.966 -0.3489  0.4164 -1.2796
13103SOL    HW243867   2.934   5.905   6.950 -0.0985  0.8127  0.5073
13104SOL     OW43868   3.649   3.214   4.955 -0.3111 -0.0368 -0.2129
13104SOL    HW143869   3.684   3.277   5.018  0.4402  0.0001 -0.6411
13104SOL    HW243870   3.672   3.252   4.869  0.0778 -0.8485 -0.4723
13105SOL     OW43871   9.230   7.609   0.668 -0.4113  0.1165  0.4289
13105SOL    HW143872   9.201   7.577   0.753 -0.4646  2.1087  1.2192
13105SOL    HW243873   9.168   7.679   0.646  0.8289  1.0630 -0.2157
13106SOL     OW43874   8.822   9.665   4.579  0.4544 -0.5408 -0.6003
13106SOL    HW143875   8.848   9.669   4.671  2.3020 -0.3242 -1.0924
13106SOL    HW243876   8.821   9.572   4.558 -0.1067 -0.5982 -0.3338
13107SOL     OW43877  11.497   8.769   9.221 -0.6642 -0.2274  0.1959
13107SOL    HW143878  11.458   8.701   9.277 -1.1378 -0.7792 -0.7797
13107SOL    HW243879  11.548   8.720   9.157 -1.7702  0.2670 -1.1050
13108SOL     OW43880   1.211   7.608   3.308  0.4681  0.3964 -0.3341
13108SOL    HW143881   1.118   7.593   3.292  0.6573 -0.9751 -0.2259
13108SOL    HW243882   1.255   7.572   3.231  1.0242 -0.9116  0.5682
13109SOL     OW43883   1.902   7.905   7.431  1.0073 -0.0066 -0.5890
13109SOL    HW143884   1.812   7.873   7.424  1.0629 -0.2816 -0.1491
13109SOL    HW243885   1.906   7.944   7.519  0.9204  1.2982 -1.1545
13110SOL     OW43886   3.420   7.956   9.893  0.2920  0.1717 -0.3582
13110SOL    HW143887   3.380   8.017   9.832  0.0875 -0.3961 -0.8008
13110SOL    HW243888   3.498   7.924   9.847 -1.0122 -1.9169 -1.2871
13111SOL     OW43889   1.542   3.342  11.295 -0.0468 -0.2376  0.1119
13111SOL    HW143890   1.627   3.382  11.314  0.5351 -0.5574 -1.6036
13111SOL    HW243891   1.479   3.413  11.302  0.3650  0.0166  1.3553
13112SOL     OW43892   8.011   9.406   9.570  0.4869  0.1127  0.2012
13112SOL    HW143893   8.103   9.393   9.550 -0.2870 -0.5072 -3.8285
13112SOL    HW243894   7.973   9.318   9.566 -0.6171  0.6013 -0.4152
13113SOL     OW43895   1.656   8.776   5.816  0.0439  0.1173  0.0771
13113SOL    HW143896   1.568   8.790   5.780 -0.1120 -1.9772 -0.4845
13113SOL    HW243897   1.715   8.811   5.750 -0.3251 -0.9848 -0.8644
13114SOL     OW43898   2.359   6.064  10.763 -0.2103 -0.2240  0.0037
13114SOL    HW143899   2.293   6.079  10.831 -0.7123 -0.8649 -0.3258
13114SOL    HW243900   2.433   6.025  10.809  0.1475  0.9487  0.4575
13115SOL     OW43901   0.419  11.292   9.459  0.5115  0.6070 -0.6714
13115SOL    HW143902   0.499  11.267   9.412  0.8430  0.6045 -0.1176
13115SOL    HW243903   0.444  11.368   9.511  0.3011  0.2925 -0.0970
13116SOL     OW43904   8.008  10.267   1.918 -0.0650  0.0819  0.0435
13116SOL    HW143905   8.076  10.284   1.853 -0.1886  0.7815  0.0850
13116SOL    HW243906   8.026  10.329   1.989 -1.0697  0.6901 -0.1988
13117SOL     OW43907   8.003  11.796   1.608  0.6447 -0.3371  0.1460
13117SOL    HW143908   7.993  11.703   1.629  1.0222 -0.4247 -0.0598
13117SOL    HW243909   8.058  11.798   1.530 -1.3632 -0.0441 -1.3418
13118SOL     OW43910   2.011   2.584   6.571 -0.0593  0.0344  0.1158
13118SOL    HW143911   2.000   2.597   6.665 -0.8617 -2.8455  0.5328
13118SOL    HW243912   1.921   2.575   6.538  0.1556  2.0893 -1.1745
13119SOL     OW43913   1.349   6.848   8.679  0.8016  0.7157  0.1960
13119SOL    HW143914   1.360   6.763   8.720 -0.0623  1.6351  2.5428
13119SOL    HW243915   1.404   6.907   8.731  1.9353  1.4990 -1.8087
13120SOL     OW43916   7.685   6.219   5.550  0.0145  0.2394 -0.2667
13120SOL    HW143917   7.596   6.240   5.576 -0.0380  0.5558 -0.6890
13120SOL    HW243918   7.688   6.237   5.456  0.1929 -0.9027 -0.5038
13121SOL     OW43919   1.492   0.363  12.055  0.1694  0.3094 -0.3003
13121SOL    HW143920   1.404   0.397  12.042  0.3070  0.8279  0.0489
13121SOL    HW243921   1.541   0.438  12.092  0.2092 -0.5523  1.5348
13122SOL     OW43922   9.857   8.086   6.965  0.0814  0.0505 -0.0606
13122SOL    HW143923   9.871   7.998   6.998 -1.1832 -0.4903 -0.8619
13122SOL    HW243924   9.922   8.097   6.895  0.0600 -0.3574 -0.1456
13123SOL     OW43925  11.052   2.754   4.695  1.0222 -0.2876  0.5516
13123SOL    HW143926  11.105   2.804   4.756 -0.0947  0.1873  1.1649
13123SOL    HW243927  11.011   2.820   4.639  3.5066 -0.7525 -2.0731
13124SOL     OW43928   6.309   3.306   6.053 -0.2019  0.0120  0.2036
13124SOL    HW143929   6.304   3.242   5.982 -2.4058  2.0132 -1.6284
13124SOL    HW243930   6.268   3.263   6.128  0.7327 -1.5897 -0.1572
13125SOL     OW43931   1.278   2.375  10.184 -0.3471 -0.1292  0.1735
13125SOL    HW143932   1.278   2.280  10.173  0.2930  0.0586 -1.8952
13125SOL    HW243933   1.297   2.409  10.097 -0.3300  1.9091  0.9210
13126SOL     OW43934   7.957   3.588   5.385  0.0943  0.1428  0.6086
13126SOL    HW143935   8.026   3.601   5.321 -2.3755 -0.2356 -2.3763
13126SOL    HW243936   7.915   3.673   5.393  0.5279  0.2445  1.9762
13127SOL     OW43937   1.079   8.794   7.337 -0.1378 -0.0264 -0.4552
13127SOL    HW143938   0.992   8.828   7.320 -0.4574 -0.9433 -0.7414
13127SOL    HW243939   1.137   8.870   7.333 -1.2506  1.1579  2.8064
13128SOL     OW43940   0.341   0.924   5.240 -0.3820 -0.1898  0.1318
13128SOL    HW143941   0.285   0.910   5.316  0.8455  0.5389  1.2206
13128SOL    HW243942   0.421   0.876   5.261 -0.1358 -0.2274 -0.8483
13129SOL     OW43943   6.536   6.968   1.752 -0.2175 -0.0662  0.0093
13129SOL    HW143944   6.582   7.001   1.829 -1.5440  0.3669  0.6542
13129SOL    HW243945   6.603   6.965   1.683  0.7902  0.3839  0.9410
13130SOL     OW43946  10.580   1.295   0.781 -0.3130  0.3535 -0.0564
13130SOL    HW143947  10.609   1.385   0.787 -1.3562  0.6663  0.5341
13130SOL    HW243948  10.653   1.243   0.816  0.3760  0.9325 -0.6109
13131SOL     OW43949   0.654   8.835   7.631  0.0435 -0.0066  0.2726
13131SOL    HW143950   0.625   8.926   7.626  2.9183  1.1026  1.6069
13131SOL    HW243951   0.749   8.839   7.618  0.1835 -2.9295 -0.4090
13132SOL     OW43952   3.952   0.161   2.717  0.0542  0.0316  0.6743
13132SOL    HW143953   4.014   0.144   2.645 -0.5037 -0.3746  0.2792
13132SOL    HW243954   3.908   0.077   2.730  0.0867  0.1305  1.4351
13133SOL     OW43955   0.736  11.342  11.170 -0.4484 -0.2194 -0.2298
13133SOL    HW143956   0.671  11.364  11.103  0.2047 -1.8632 -1.4669
13133SOL    HW243957   0.759  11.251  11.152  0.1435 -0.5602  1.9318
13134SOL     OW43958   5.948   9.717   4.837  0.1202 -0.2739  0.0919
13134SOL    HW143959   5.967   9.736   4.745 -1.5725 -2.0183 -0.6766
13134SOL    HW243960   6.026   9.747   4.884  0.9997  0.7190 -1.8806
13135SOL     OW43961  11.926   1.928   8.146 -0.0592 -0.1465  0.0203
13135SOL    HW143962  11.972   1.977   8.078 -0.8963 -0.1731 -0.5920
13135SOL    HW243963  11.921   1.839   8.113  0.7838 -0.4968  0.7863
13136SOL     OW43964  12.078   5.951   9.023  0.6138 -0.1187 -0.8044
13136SOL    HW143965  12.013   5.883   9.008 -1.9015  2.0665 -0.5564
13136SOL    HW243966  12.130   5.920   9.097 -2.8594 -0.2564  1.7818
13137SOL     OW43967   8.825   1.961   2.396 -0.1190 -0.2972  0.3241
13137SOL    HW143968   8.806   2.039   2.344  1.1818 -0.6976 -0.8183
13137SOL    HW243969   8.763   1.964   2.469 -3.4001 -0.6599 -2.2099
13138SOL     OW43970  10.906   7.779  10.791 -0.0403 -0.2305  0.2649
13138SOL    HW143971  10.865   7.720  10.728  0.3987 -1.4830  1.1058
13138SOL    HW243972  10.999   7.757  10.788 -0.1362 -1.1166  2.0948
13139SOL     OW43973   4.971   6.124   7.901  0.7858  0.0567 -0.3226
13139SOL    HW143974   4.969   6.093   7.810 -1.0523  1.2338 -0.7228
13139SOL    HW243975   5.044   6.187   7.903  1.9598 -1.2482 -0.5024
13140SOL     OW43976  10.102   4.647   2.135 -0.0711 -0.0367 -0.4697
13140SOL    HW143977  10.060   4.708   2.196 -0.3376 -0.2246 -0.4645
13140SOL    HW243978  10.136   4.703   2.065 -0.0194  0.1514 -0.2949
13141SOL     OW43979  10.395   0.158   2.364 -0.1055 -0.3550  0.6680
13141SOL    HW143980  10.300   0.167   2.367 -0.1771 -0.2497 -0.8639
13141SOL    HW243981  10.429   0.225   2.423 -0.9779 -0.3551  1.1726
13142SOL     OW43982   8.806   2.934   3.480 -0.1810 -0.3094 -0.4081
13142SOL    HW143983   8.745   2.860   3.483 -2.5193  1.4850 -0.6610
13142SOL    HW243984   8.860   2.925   3.558 -0.4148 -2.2568 -0.4326
13143SOL     OW43985   8.679   0.884   2.512  0.4056  0.1407  0.1434
13143SOL    HW143986   8.770   0.888   2.481 -0.2258  0.5221 -1.7276
13143SOL    HW243987   8.668   0.793   2.541  0.5352 -0.7556 -2.4164
13144SOL     OW43988   1.728  12.087   2.372  0.1563  0.0021 -0.1488
13144SOL    HW143989   1.686  12.001   2.374 -1.4867  0.6267 -2.6992
13144SOL    HW243990   1.691  12.134   2.446 -0.0494 -0.9998  0.4023
13145SOL     OW43991   2.004   6.718   4.684 -0.0535  0.0671  0.2583
13145SOL    HW143992   1.922   6.736   4.637 -0.6912 -2.1123  0.4099
13145SOL    HW243993   2.003   6.623   4.697  1.9670  0.1443  1.2908
13146SOL     OW43994   5.979   2.398   2.809 -0.0555 -0.3269  0.1239
13146SOL    HW143995   5.956   2.469   2.870 -1.5771 -1.5980  1.0961
13146SOL    HW243996   5.972   2.438   2.722  0.7827  1.1456  0.6969
13147SOL     OW43997  11.337   4.320   7.002  0.8893 -0.1563  0.2926
13147SOL    HW143998  11.327   4.344   6.910  1.5549 -1.2565 -0.0838
13147SOL    HW243999  11.393   4.389   7.039  0.5373  0.3407 -0.0942
13148SOL     OW44000   6.749   3.571   9.511 -0.4196 -0.0490 -0.0351
13148SOL    HW144001   6.701   3.491   9.535 -0.4199  0.8020  3.2143
13148SOL    HW244002   6.689   3.617   9.451 -1.3026 -1.4719 -0.3143
13149SOL     OW44003   6.726  10.544   3.584  0.0458  0.4498 -0.2565
13149SOL    HW144004   6.695  10.503   3.504  0.7909 -1.0290  0.1740
13149SOL    HW244005   6.775  10.621   3.554 -2.3574  1.7806 -1.0197
13150SOL     OW44006   8.286   5.367   5.643  0.0048 -0.3732  0.3584
13150SOL    HW144007   8.197   5.351   5.610  0.0923 -0.0988 -0.0198
13150SOL    HW244008   8.289   5.321   5.727 -0.4038 -0.6192  0.2421
13151SOL     OW44009   7.432   6.575   5.235  0.0826 -0.3481 -0.1784
13151SOL    HW144010   7.521   6.572   5.200 -0.6184 -0.2112 -2.1113
13151SOL    HW244011   7.379   6.608   5.163 -1.6896 -1.3660  0.5870
13152SOL     OW44012   1.295   7.653   0.585 -0.3218 -0.1384  0.2150
13152SOL    HW144013   1.294   7.670   0.491 -0.5722  0.5678  0.3435
13152SOL    HW244014   1.320   7.560   0.592  0.9606  0.1259 -0.4973
13153SOL     OW44015   7.236   9.036   4.159  0.1607  0.0545 -0.3817
13153SOL    HW144016   7.151   9.071   4.187  0.4133  0.2627  0.1249
13153SOL    HW244017   7.282   9.113   4.124  0.6539  0.2009  0.5790
13154SOL     OW44018  10.647   5.213  10.320 -0.1726 -0.1593 -0.0029
13154SOL    HW144019  10.662   5.293  10.269 -0.3848 -1.3559 -2.0361
13154SOL    HW244020  10.734   5.189  10.352  0.4380 -0.7482 -1.9779
13155SOL     OW44021  10.691   4.833   5.221  0.3161  0.3318 -0.7895
13155SOL    HW144022  10.761   4.801   5.278 -0.4274  2.0399  1.2329
13155SOL    HW244023  10.620   4.855   5.282 -0.9199  1.2650 -2.5132
13156SOL     OW44024   9.633   6.275   5.553  0.6907 -0.6266 -0.5707
13156SOL    HW144025   9.645   6.186   5.587 -0.1514 -1.0111 -1.2486
13156SOL    HW244026   9.704   6.326   5.594 -0.5767 -0.9111  2.2250
13157SOL     OW44027   1.221  10.793   5.081 -0.0582  0.2360 -0.4143
13157SOL    HW144028   1.273  10.717   5.055  0.1169  0.6735 -1.3791
13157SOL    HW244029   1.284  10.852   5.122 -0.4451 -0.7366  1.7502
13158SOL     OW44030   4.778   2.903   0.485 -0.0894  0.3162 -0.2016
13158SOL    HW144031   4.710   2.911   0.419 -0.1241  1.9381 -0.0149
13158SOL    HW244032   4.750   2.830   0.540 -1.0987  0.2395 -0.7941
13159SOL     OW44033   5.744  10.807   1.951  0.3193  0.4754 -0.4860
13159SOL    HW144034   5.745  10.711   1.950  2.0170  0.4639 -0.5499
13159SOL    HW244035   5.766  10.831   1.861 -3.1376  1.0198 -1.3461
13160SOL     OW44036   4.872  12.098   2.235  0.1705  0.6920  0.2642
13160SOL    HW144037   4.828  12.165   2.287  0.8490  2.5542 -1.4248
13160SOL    HW244038   4.801  12.057   2.185 -0.2060  0.3666  1.0403
13161SOL     OW44039  11.317   4.266   2.491 -0.2788  0.4468 -0.5477
13161SOL    HW144040  11.408   4.293   2.475 -0.1604  0.2481 -0.2250
13161SOL    HW244041  11.317   4.235   2.581  0.2343 -3.2390 -1.6568
13162SOL     OW44042  10.669   8.521  11.719  0.1884  0.0702  0.0326
13162SOL    HW144043  10.716   8.440  11.739  2.7192  1.7840  1.7900
13162SOL    HW244044  10.622   8.542  11.799 -4.6936 -1.9848 -1.8945
13163SOL     OW44045   6.063   5.658  10.361 -0.2375 -0.2322  0.6084
13163SOL    HW144046   6.040   5.585  10.418 -0.1866 -0.6559  0.1001
13163SOL    HW244047   6.041   5.627  10.273 -1.2324  0.7590  0.4794
13164SOL     OW44048   3.821   0.918   8.105 -0.2789  0.0224 -0.1745
13164SOL    HW144049   3.848   0.966   8.027 -0.7164  1.5134  0.5577
13164SOL    HW244050   3.793   0.833   8.072 -2.9937  1.4834 -2.0308
13165SOL     OW44051   0.370   1.985   3.137 -0.0648  0.2300 -0.5137
13165SOL    HW144052   0.408   1.964   3.222 -0.1027 -2.0067 -0.9650
13165SOL    HW244053   0.421   2.059   3.105  0.4178  0.6435  1.1217
13166SOL     OW44054   9.429   1.959   7.365 -0.0922  0.1113 -0.3218
13166SOL    HW144055   9.420   1.867   7.388  0.7099  0.2260  0.4750
13166SOL    HW244056   9.428   1.959   7.269  0.8656 -0.8333 -0.3479
13167SOL     OW44057   6.165  11.799   7.951 -0.2469 -0.4416 -0.0830
13167SOL    HW144058   6.205  11.833   8.031  0.8228  2.3265 -1.6301
13167SOL    HW244059   6.071  11.808   7.966 -0.0902 -0.5401  1.0659
13168SOL     OW44060  10.060   3.434   4.947  0.0868 -0.3200  0.4789
13168SOL    HW144061  10.121   3.415   5.018 -1.1333  0.2184  1.7279
13168SOL    HW244062  10.019   3.349   4.928 -1.0327 -0.1406  1.8742
13169SOL     OW44063   3.722   4.647   4.701 -0.1500  0.3785 -0.1486
13169SOL    HW144064   3.647   4.590   4.681 -0.5404 -0.0734  2.2442
13169SOL    HW244065   3.703   4.680   4.789  1.1402  2.5150 -0.6179
13170SOL     OW44066   1.482   1.782   1.152 -0.3420  0.2615 -0.0906
13170SOL    HW144067   1.513   1.698   1.118  1.6907  1.2824 -0.9579
13170SOL    HW244068   1.460   1.833   1.074 -0.7797  0.8133  0.3839
13171SOL     OW44069   6.438   5.295   3.418  0.4442 -0.7205 -0.6585
13171SOL    HW144070   6.502   5.356   3.385 -0.2472  0.5760  0.3042
13171SOL    HW244071   6.478   5.209   3.406  1.9227 -0.0152 -0.9903
13172SOL     OW44072   5.729   9.038  12.122 -0.2237  0.0791  0.0319
13172SOL    HW144073   5.823   9.044  12.140 -0.3866  0.4244  0.8136
13172SOL    HW244074   5.688   9.043  12.208 -1.0135  0.9818 -0.3866
13173SOL     OW44075   8.527  11.089   7.441 -0.1035 -0.1031  0.0212
13173SOL    HW144076   8.432  11.095   7.442 -0.0549  0.9982 -0.4775
13173SOL    HW244077   8.554  11.123   7.526 -0.0591  2.2064 -0.8635
13174SOL     OW44078   4.876   6.552   5.145  0.2595  0.2056  0.3852
13174SOL    HW144079   4.963   6.514   5.128  0.0917  0.1190 -0.2956
13174SOL    HW244080   4.818   6.508   5.083 -0.0782  1.0386  0.1025
13175SOL     OW44081   2.062  11.551  10.568 -0.0293 -0.2307  0.3073
13175SOL    HW144082   2.080  11.553  10.662 -0.5739 -2.2789  0.5046
13175SOL    HW244083   1.978  11.505  10.561 -0.2959  0.4440 -1.1541
13176SOL     OW44084   1.756   7.956   3.944 -0.5503 -0.2897 -0.0536
13176SOL    HW144085   1.812   8.034   3.946 -0.4927 -0.3387  0.4099
13176SOL    HW244086   1.693   7.971   4.015 -0.0893 -0.9964  0.5083
13177SOL     OW44087   0.001   5.820   2.953  0.5739  0.1030 -0.1183
13177SOL    HW144088   0.011   5.787   3.042 -0.7272  1.0265  0.4067
13177SOL    HW244089   0.028   5.912   2.958  1.6974 -0.1578 -0.9762
13178SOL     OW44090  10.906   0.289  11.505 -0.1529  0.3304  0.5077
13178SOL    HW144091  10.812   0.298  11.525 -0.2935  1.4652 -0.5259
13178SOL    HW244092  10.950   0.307  11.588 -0.8184  1.1674  0.6953
13179SOL     OW44093   7.297   9.005   9.194  0.2850  0.6126 -0.2705
13179SOL    HW144094   7.340   9.060   9.129  3.0347  1.3683  1.9873
13179SOL    HW244095   7.339   8.920   9.186 -0.9822  0.0210 -0.9378
13180SOL     OW44096   4.581  10.838  10.670  0.2330  0.0873  0.1469
13180SOL    HW144097   4.553  10.906  10.731 -0.1667  1.3080 -1.3295
13180SOL    HW244098   4.534  10.760  10.697 -2.1236  1.2858 -0.2566
13181SOL     OW44099  10.499   9.072   9.046 -0.0492 -0.0103  0.0244
13181SOL    HW144100  10.550   8.991   9.043 -0.7941 -0.4741 -0.5089
13181SOL    HW244101  10.495   9.101   8.955 -1.9241 -0.7640 -0.1773
13182SOL     OW44102   5.665   5.044   1.403  0.0441  0.2448 -0.6498
13182SOL    HW144103   5.593   4.982   1.395  1.1339 -0.9875 -1.3136
13182SOL    HW244104   5.649   5.089   1.486 -0.5907 -1.1840  0.0266
13183SOL     OW44105   2.046   9.478   3.994  0.4270 -0.3472  0.5126
13183SOL    HW144106   2.024   9.533   3.919 -1.6960 -1.4934  0.2381
13183SOL    HW244107   2.066   9.392   3.957  1.8044 -0.3234  1.1080
13184SOL     OW44108  11.507   0.456   6.941  0.9621  0.2484  0.3853
13184SOL    HW144109  11.509   0.419   7.029  1.9314  0.2682  0.3827
13184SOL    HW244110  11.429   0.418   6.901  0.2575  0.5862  1.3932
13185SOL     OW44111   5.471   7.190   1.050 -0.7784 -0.0917  0.2114
13185SOL    HW144112   5.441   7.235   1.130 -0.1373 -0.3726  0.6116
13185SOL    HW244113   5.564   7.211   1.044 -0.4315 -1.4884  0.4837
13186SOL     OW44114   6.013   4.656   0.522 -0.3682  0.1144  0.3378
13186SOL    HW144115   6.074   4.584   0.503  1.1291  1.0766  1.2975
13186SOL    HW244116   5.926   4.618   0.507  0.4195 -1.5014 -0.4301
13187SOL     OW44117   4.948   1.349   5.176 -0.5428  0.0739  0.7979
13187SOL    HW144118   4.890   1.367   5.249 -1.3919  2.1987 -0.3173
13187SOL    HW244119   4.939   1.425   5.118 -0.5078 -1.8236 -1.9128
13188SOL     OW44120   0.966   7.663   8.108  0.7024 -0.0741  0.2092
13188SOL    HW144121   0.902   7.681   8.177  0.1271 -1.1453 -0.0215
13188SOL    HW244122   0.948   7.573   8.082  0.9039  0.3253 -1.3706
13189SOL     OW44123   4.253   6.878   9.211 -0.5226 -0.2823 -0.3360
13189SOL    HW144124   4.283   6.872   9.121  0.8761 -0.0756  0.0956
13189SOL    HW244125   4.283   6.797   9.252  1.2448  0.7886  0.5997
13190SOL     OW44126   9.080   0.234  11.656 -0.4300 -0.1626 -0.0069
13190SOL    HW144127   9.053   0.144  11.639 -3.3115  0.7568 -0.9060
13190SOL    HW244128   9.002   0.278  11.688  0.8121  2.0942  0.2141
13191SOL     OW44129   7.907   0.626   3.393 -0.4046 -0.5151 -0.6603
13191SOL    HW144130   7.972   0.560   3.369  1.0605  1.0282 -1.2117
13191SOL    HW244131   7.873   0.658   3.309 -0.2931  0.1666 -0.4549
13192SOL     OW44132   7.777   8.324   9.282  0.0647 -0.5036  0.4273
13192SOL    HW144133   7.732   8.239   9.282 -0.7337 -0.1329 -1.7223
13192SOL    HW244134   7.864   8.305   9.247  0.3353 -0.6242  1.1498
13193SOL     OW44135   2.882   2.871  10.400  0.0678  0.5049  0.2070
13193SOL    HW144136   2.858   2.960  10.427 -0.5565 -0.0337  1.4807
13193SOL    HW244137   2.977   2.873  10.396  0.1720  0.7979  1.9143
13194SOL     OW44138   6.039   5.238   9.346 -0.0494  0.6320  0.2412
13194SOL    HW144139   5.997   5.324   9.340  1.9978  1.7252  0.7708
13194SOL    HW244140   6.093   5.232   9.268 -0.3410 -0.3149  0.0882
13195SOL     OW44141   3.252   0.194  12.053 -0.7499  0.0831  0.0414
13195SOL    HW144142   3.277   0.286  12.058  1.3895 -0.3983 -0.7657
13195SOL    HW244143   3.228   0.180  11.961  0.2592 -0.4630 -0.1481
13196SOL     OW44144  10.282  10.314   5.523 -0.5253 -0.4608 -0.5339
13196SOL    HW144145  10.367  10.295   5.563  0.4172  0.0400 -2.1820
13196SOL    HW244146  10.238  10.230   5.519 -1.5349 -0.3007  3.2386
13197SOL     OW44147   0.934  11.691  10.312 -0.0706 -1.1420  0.2033
13197SOL    HW144148   0.935  11.628  10.240 -1.2674  0.4900 -1.3069
13197SOL    HW244149   1.025  11.694  10.342  0.6947 -1.0693 -1.9723
13198SOL     OW44150   6.918   5.414   3.026  0.2721 -0.2664 -0.4663
13198SOL    HW144151   7.012   5.411   3.046  0.0837  0.8279  0.7827
13198SOL    HW244152   6.897   5.508   3.027 -1.1079 -0.5438  0.7647
13199SOL     OW44153   7.395   7.357   5.526 -0.0458  0.4524  0.6491
13199SOL    HW144154   7.422   7.287   5.585 -1.3093 -1.9240 -1.3826
13199SOL    HW244155   7.307   7.332   5.498 -0.1142  2.2982 -0.9628
13200SOL     OW44156   2.076   4.612   8.043  0.3235  0.1770 -0.1285
13200SOL    HW144157   2.161   4.656   8.044 -0.3695  1.5545  0.6693
13200SOL    HW244158   2.078   4.555   8.119  0.9026 -0.5775 -0.6889
13201SOL     OW44159   5.265  11.446   4.561 -0.3332 -0.2186  0.1712
13201SOL    HW144160   5.352  11.485   4.575  1.0862 -1.9400 -2.7374
13201SOL    HW244161   5.231  11.492   4.484 -2.1286  0.4862  1.3182
13202SOL     OW44162   2.494   4.027   6.023  0.6148  0.0692 -0.1925
13202SOL    HW144163   2.478   3.985   5.938 -0.5070  1.8803 -0.9432
13202SOL    HW244164   2.533   4.111   6.000 -0.4499  0.9213  1.0380
13203SOL     OW44165  10.199   4.853  11.815 -0.0464 -0.1702 -0.3034
13203SOL    HW144166  10.257   4.859  11.891 -0.4304 -0.4625  0.0146
13203SOL    HW244167  10.183   4.759  11.804 -1.4083 -0.0272  0.3354
13204SOL     OW44168   6.102   7.506  10.166  0.3696 -0.0711  0.3398
13204SOL    HW144169   6.038   7.572  10.193  0.4351 -0.2818  1.0252
13204SOL    HW244170   6.186   7.551  10.167  0.1385  0.4985 -1.5754
13205SOL     OW44171   6.059   1.135  10.013  0.8882 -0.3070 -0.2056
13205SOL    HW144172   5.964   1.130  10.028  1.0765  1.0578  1.8861
13205SOL    HW244173   6.097   1.081  10.083  1.6699  0.1286 -0.2766
13206SOL     OW44174   1.002   9.693   0.540  0.3001  0.3778 -0.2341
13206SOL    HW144175   1.095   9.708   0.557  0.2737  0.4983 -0.1899
13206SOL    HW244176   0.957   9.752   0.601  0.1930  0.2228 -0.1627
13207SOL     OW44177  10.164   8.850   2.904  0.0706  0.3293 -0.2627
13207SOL    HW144178  10.204   8.772   2.942 -0.8496 -0.6449 -1.2167
13207SOL    HW244179  10.237   8.896   2.863  0.6696  0.1040  0.5269
13208SOL     OW44180   2.877   4.123   9.089 -0.0930  0.3161 -0.1791
13208SOL    HW144181   2.877   4.062   9.015 -0.0213  0.3041 -0.1684
13208SOL    HW244182   2.795   4.104   9.136 -0.1470  0.3351 -0.2647
13209SOL     OW44183  11.800   1.035  10.267  0.6756 -0.0355  0.1378
13209SOL    HW144184  11.779   1.046  10.360 -1.5517  0.2746 -0.3457
13209SOL    HW244185  11.811   0.940  10.257  0.3584 -0.1285  0.6112
13210SOL     OW44186   7.995   4.843   4.424 -0.1248  0.3285 -0.2741
13210SOL    HW144187   7.914   4.800   4.450  0.4352 -0.3287  0.4603
13210SOL    HW244188   8.055   4.827   4.498  0.9896 -0.1065 -1.2414
13211SOL     OW44189   9.612   5.065   4.794  0.7308  0.4590  0.8722
13211SOL    HW144190   9.523   5.069   4.829  0.7970 -0.2247  1.1477
13211SOL    HW244191   9.604   5.018   4.711  0.5707  2.1051 -0.0641
13212SOL     OW44192   9.795  10.986   5.405  0.2087 -0.6941  0.4585
13212SOL    HW144193   9.804  11.000   5.500 -0.8170 -1.0577  0.6163
13212SOL    HW244194   9.703  10.965   5.392 -0.6738  3.1629 -1.1193
13213SOL     OW44195   2.264   1.367   2.006  0.2098  0.3085 -0.1451
13213SOL    HW144196   2.182   1.369   2.054 -0.1232 -1.6839 -0.5724
13213SOL    HW244197   2.331   1.352   2.073 -0.2110 -2.0516 -0.1965
13214SOL     OW44198   6.773   7.496   5.669 -0.5011 -0.1330 -0.0891
13214SOL    HW144199   6.756   7.532   5.582  0.1012  1.3256  0.3631
13214SOL    HW244200   6.722   7.552   5.728 -2.0637 -1.9706  0.4287
13215SOL     OW44201   8.556  10.487   7.418 -0.6411  0.0327 -0.1577
13215SOL    HW144202   8.501  10.564   7.405 -0.4724  0.2212  0.2230
13215SOL    HW244203   8.525  10.424   7.352 -1.9554 -0.2226  0.6490
13216SOL     OW44204   1.463  11.925   7.324 -0.0591 -0.4863  0.1592
13216SOL    HW144205   1.444  11.861   7.255 -0.3647  0.4229 -0.6202
13216SOL    HW244206   1.388  11.918   7.384  0.2726 -1.3719  0.4856
13217SOL     OW44207  10.733  11.442   1.929  0.3728  0.1894  0.5720
13217SOL    HW144208  10.743  11.350   1.952  1.2663  0.1911  0.2490
13217SOL    HW244209  10.756  11.446   1.836  3.1386  1.1372  1.1959
13218SOL     OW44210   8.608  10.863   6.760  0.4850 -0.3298  0.7561
13218SOL    HW144211   8.666  10.929   6.721 -1.2254  1.5400  1.1772
13218SOL    HW244212   8.655  10.832   6.838  1.6231 -0.1351  0.1657
13219SOL     OW44213   2.603  11.872  10.705  0.1571 -0.6242  0.1096
13219SOL    HW144214   2.678  11.812  10.708 -0.4244 -1.3368  1.0262
13219SOL    HW244215   2.639  11.956  10.733  0.6109 -0.9757  0.6194
13220SOL     OW44216   5.739   7.985   2.203  0.1008 -0.7414 -0.0537
13220SOL    HW144217   5.675   7.973   2.132 -0.4027 -1.6339  0.5337
13220SOL    HW244218   5.686   8.003   2.280  0.4993 -2.1234  0.5761
13221SOL     OW44219   7.910   9.272   0.162 -0.3515  0.3026  0.0352
13221SOL    HW144220   7.922   9.311   0.076  0.5181  1.1068  0.5006
13221SOL    HW244221   7.983   9.306   0.214 -1.6703  1.0048  1.4987
13222SOL     OW44222  10.597   4.116   2.562 -0.0585  0.7646  0.2166
13222SOL    HW144223  10.568   4.200   2.597  0.0156  1.0420 -0.3756
13222SOL    HW244224  10.613   4.133   2.470  0.7589  0.2981  0.2666
13223SOL     OW44225  11.628   1.292   4.269  0.1038  0.0193 -1.0829
13223SOL    HW144226  11.545   1.278   4.224 -0.9845 -0.1490  0.8585
13223SOL    HW244227  11.661   1.204   4.286  0.1672  0.0676 -0.9523
13224SOL     OW44228   8.007   4.715   1.436  0.2839  0.3199  0.3393
13224SOL    HW144229   8.073   4.785   1.434 -0.2594  0.8317 -0.1389
13224SOL    HW244230   7.974   4.715   1.526 -0.4645  1.4133  0.0886
13225SOL     OW44231  11.104   8.481  10.991  0.2051 -0.0395  0.4440
13225SOL    HW144232  11.173   8.431  11.035 -0.9797 -0.2276  2.1854
13225SOL    HW244233  11.033   8.485  11.055 -1.8265 -0.7176 -1.6305
13226SOL     OW44234   2.812   4.684  11.196  0.4079  0.0743  0.5595
13226SOL    HW144235   2.822   4.620  11.267  2.1298 -0.6067 -0.2573
13226SOL    HW244236   2.738   4.652  11.144  1.5192 -1.5270 -0.0846
13227SOL     OW44237   6.922   3.580   2.313 -0.2610  0.3995 -0.5757
13227SOL    HW144238   6.906   3.671   2.338 -0.7885  0.1179  0.1331
13227SOL    HW244239   6.906   3.578   2.218 -1.3399  0.8095 -0.4103
13228SOL     OW44240   1.872   0.449   4.777  0.1788 -0.4111  0.0229
13228SOL    HW144241   1.848   0.494   4.858  2.3619  2.2100 -0.6242
13228SOL    HW244242   1.810   0.481   4.712  0.4695  0.1106 -0.0043
13229SOL     OW44243   5.271  11.424  11.405  0.2138 -0.2912 -0.6606
13229SOL    HW144244   5.344  11.366  11.429  0.4253  0.3465  0.3262
13229SOL    HW244245   5.228  11.444  11.489 -0.0528  0.6902 -1.0178
13230SOL     OW44246  10.635   5.637   7.214  0.1348  0.1284  0.1107
13230SOL    HW144247  10.653   5.597   7.129 -0.0715  0.4708 -0.0960
13230SOL    HW244248  10.540   5.634   7.223  0.1222  0.5114  0.1201
13231SOL     OW44249   9.870  10.406   1.754 -0.0276  0.0167 -0.2123
13231SOL    HW144250   9.947  10.416   1.697  2.5792  1.3587  3.1821
13231SOL    HW244251   9.869  10.313   1.777  2.3833  0.3902  1.7950
13232SOL     OW44252   5.353  10.533   6.715  0.1449  0.6468 -0.1146
13232SOL    HW144253   5.259  10.533   6.694 -0.2861 -1.0068  1.6110
13232SOL    HW244254   5.396  10.537   6.629 -1.5012 -0.8269 -1.0807
13233SOL     OW44255   6.304   2.895   6.195 -0.3724 -0.8134  0.3200
13233SOL    HW144256   6.283   2.864   6.283 -3.3268 -2.1716 -0.7121
13233SOL    HW244257   6.360   2.826   6.158 -0.7537 -1.2371  0.5158
13234SOL     OW44258   1.308   6.711   5.001  0.5158 -0.0629  0.4190
13234SOL    HW144259   1.403   6.705   5.009  0.4385 -1.3099  0.7012
13234SOL    HW244260   1.278   6.736   5.089  0.5529 -0.1345  0.4522
13235SOL     OW44261   9.377  10.254   0.243  0.0629  0.4426 -0.2795
13235SOL    HW144262   9.367  10.205   0.324 -0.3394  1.1824  0.1270
13235SOL    HW244263   9.426  10.196   0.185 -1.8922 -1.1482 -0.4341
13236SOL     OW44264   4.777  11.421   8.868 -0.0537  0.2817  0.1885
13236SOL    HW144265   4.727  11.440   8.947  0.9863 -1.1398  1.2321
13236SOL    HW244266   4.808  11.331   8.880  0.2532  0.0867 -1.7774
13237SOL     OW44267   9.814   8.301   5.320  0.5535 -0.4510 -0.3781
13237SOL    HW144268   9.869   8.375   5.292  0.3171  0.7949  2.1577
13237SOL    HW244269   9.876   8.229   5.330  1.0668 -0.1563 -1.2478
13238SOL     OW44270   0.173   9.678  11.363 -0.4181  0.2910 -0.5211
13238SOL    HW144271   0.180   9.691  11.269 -0.3300 -2.9376 -1.0618
13238SOL    HW244272   0.257   9.640  11.389 -1.0824 -0.5568  0.5000
13239SOL     OW44273   7.194   2.133   6.602  0.3401 -0.1719 -0.1631
13239SOL    HW144274   7.102   2.143   6.579  0.1941 -1.2246 -0.0663
13239SOL    HW244275   7.229   2.070   6.539  1.4485  1.5092 -1.3148
13240SOL     OW44276   5.843   5.991   8.304  0.0112  0.8581 -0.3488
13240SOL    HW144277   5.786   6.065   8.323  0.5360  0.9360  1.0594
13240SOL    HW244278   5.859   5.951   8.389 -1.1124 -1.5390 -1.1815
13241SOL     OW44279   8.636   9.135   9.371 -0.3614 -0.1207 -0.1197
13241SOL    HW144280   8.554   9.108   9.330 -2.0333  2.0726  1.5074
13241SOL    HW244281   8.699   9.068   9.345 -2.2472 -1.0554 -2.7611
13242SOL     OW44282   4.868   3.134   7.018 -0.5808  0.3221  0.2236
13242SOL    HW144283   4.807   3.206   7.033 -0.7062  0.3257 -0.2580
13242SOL    HW244284   4.843   3.100   6.932 -0.3058 -0.0794  0.3007
13243SOL     OW44285   6.152   8.362  11.569 -0.3898  0.2078  0.5673
13243SOL    HW144286   6.107   8.446  11.567 -0.9583 -0.0540  1.6777
13243SOL    HW244287   6.240   8.382  11.601 -0.5527  0.3684  0.9160
13244SOL     OW44288   7.546   1.344   8.799  0.1825  0.1332  0.4903
13244SOL    HW144289   7.514   1.411   8.860  2.4226  0.8641  0.9875
13244SOL    HW244290   7.505   1.366   8.715 -0.6616  0.9110  1.0816
13245SOL     OW44291   1.219   5.194   7.738 -0.1391  0.4958  0.2361
13245SOL    HW144292   1.248   5.269   7.686  0.4162  0.5168  0.5691
13245SOL    HW244293   1.263   5.119   7.699  1.0748  0.6342  1.2629
13246SOL     OW44294   0.859   8.195   0.185  0.4589  0.2557  0.6970
13246SOL    HW144295   0.858   8.254   0.110 -1.5346 -0.1496  0.3288
13246SOL    HW244296   0.883   8.110   0.148 -0.6262  0.0340  0.4650
13247SOL     OW44297  11.334  10.304   6.348 -0.5698  0.2385 -0.3599
13247SOL    HW144298  11.289  10.348   6.420  0.6099  1.4294 -0.2905
13247SOL    HW244299  11.407  10.363   6.327  0.7669 -1.4284 -0.6468
13248SOL     OW44300   3.424   8.513   2.479  0.1247 -0.1562  0.4618
13248SOL    HW144301   3.443   8.598   2.439  0.5975 -0.9008 -0.9764
13248SOL    HW244302   3.334   8.522   2.511  0.7246  1.4156  1.8803
13249SOL     OW44303   0.629   7.424  10.904  0.1475  0.7267 -0.0264
13249SOL    HW144304   0.724   7.421  10.916 -0.0723  1.0468  2.2761
13249SOL    HW244305   0.616   7.412  10.810  2.5240  1.9391 -0.5930
13250SOL     OW44306   4.737   3.355   2.228  0.4512 -0.1132  0.0234
13250SOL    HW144307   4.718   3.271   2.187  1.0096  0.0494 -0.5934
13250SOL    HW244308   4.766   3.333   2.317  2.1537 -0.7112 -0.6329
13251SOL     OW44309  10.570   4.303   5.567  0.2178  0.2199  0.4047
13251SOL    HW144310  10.537   4.340   5.649  0.4965 -0.4097  0.8096
13251SOL    HW244311  10.496   4.311   5.506  0.0139  0.7093  0.7040
13252SOL     OW44312   1.139  11.687   2.739  0.2922  0.2128  1.0924
13252SOL    HW144313   1.085  11.638   2.802 -0.4853  0.6542  0.7835
13252SOL    HW244314   1.105  11.662   2.653  1.1404 -0.1401  0.8517
13253SOL     OW44315   0.328   6.231  10.534  0.0537 -0.0303 -0.4698
13253SOL    HW144316   0.234   6.247  10.523 -0.0555 -1.1529 -1.2971
13253SOL    HW244317   0.338   6.211  10.628 -0.1086  2.5526  0.1839
13254SOL     OW44318  10.620   0.713   9.373  0.2663  0.4575  0.0246
13254SOL    HW144319  10.544   0.662   9.343  0.4761  0.1641 -0.0080
13254SOL    HW244320  10.651   0.759   9.295  0.7829 -0.2681 -0.2072
13255SOL     OW44321   1.097   0.949  11.981 -0.7039 -0.0343 -0.4803
13255SOL    HW144322   1.185   0.917  11.962  0.0491 -0.5644  3.1962
13255SOL    HW244323   1.039   0.874  11.963 -0.1015 -0.4423 -0.7297
13256SOL     OW44324   7.078   2.448   9.321 -0.2690 -0.3789 -0.1796
13256SOL    HW144325   7.089   2.531   9.273  0.2183 -1.5154 -2.1501
13256SOL    HW244326   6.993   2.455   9.363 -0.9428  0.5022 -1.6387
13257SOL     OW44327  11.831   4.532  10.727 -0.4660 -0.0056 -0.1550
13257SOL    HW144328  11.904   4.523  10.788  0.4242  0.3736 -1.1339
13257SOL    HW244329  11.777   4.601  10.764  0.6588  1.0218 -0.3470
13258SOL     OW44330   6.618  11.373   5.448  0.2169  0.3809  0.4223
13258SOL    HW144331   6.657  11.291   5.417  1.5472  0.4866  1.6756
13258SOL    HW244332   6.528  11.370   5.418 -0.0248 -1.9546  1.1559
13259SOL     OW44333   5.558   5.876   9.690 -0.5116  0.8044  0.4100
13259SOL    HW144334   5.512   5.949   9.649  2.3603  2.2005 -0.6174
13259SOL    HW244335   5.574   5.906   9.780  0.4737  1.3832  0.0531
13260SOL     OW44336   0.076   5.966   4.550  0.0216 -0.4412 -0.1160
13260SOL    HW144337   0.060   6.054   4.584 -1.5268 -1.0806  0.8987
13260SOL    HW244338   0.143   5.930   4.608  0.0285 -0.2393  0.0027
13261SOL     OW44339   8.384   8.223   6.108 -0.6463 -0.6321 -0.0087
13261SOL    HW144340   8.329   8.164   6.056  0.2622 -0.4004 -1.2827
13261SOL    HW244341   8.360   8.310   6.077  1.3884 -0.5767 -1.6475
13262SOL     OW44342   0.111   3.949   4.642  0.3073  0.1836 -0.1555
13262SOL    HW144343   0.175   3.882   4.666  0.2523  0.1896  0.0123
13262SOL    HW244344   0.156   4.005   4.579 -0.0094 -0.6557 -1.1451
13263SOL     OW44345   2.605   7.342   6.070 -0.1280 -0.1442  0.1620
13263SOL    HW144346   2.599   7.436   6.054  0.0177 -0.4952 -2.4503
13263SOL    HW244347   2.517   7.309   6.054  0.1484 -0.6032 -0.5016
13264SOL     OW44348   9.821   6.600   9.842 -0.1908 -0.1477 -0.1580
13264SOL    HW144349   9.798   6.689   9.817  2.0200  0.2437 -1.0190
13264SOL    HW244350   9.791   6.545   9.769  0.2244  0.1476 -0.5515
13265SOL     OW44351  11.258   7.134   9.486 -0.0781 -0.1258 -0.2134
13265SOL    HW144352  11.172   7.100   9.462 -1.0809  0.9835  1.6039
13265SOL    HW244353  11.269   7.212   9.431 -0.2825 -0.2205 -0.3885
13266SOL     OW44354   9.251   0.026   7.674 -0.7267  0.1929  0.3091
13266SOL    HW144355   9.189  -0.011   7.611  0.1286 -1.1264  0.1952
13266SOL    HW244356   9.196   0.057   7.746 -1.5709 -0.3813 -0.0644
13267SOL     OW44357   1.062   4.428   5.238  0.4665 -0.0409 -0.2845
13267SOL    HW144358   1.090   4.487   5.307 -3.9146  1.1520  0.7876
13267SOL    HW244359   1.007   4.363   5.282  0.1567 -1.2159 -2.2612
13268SOL     OW44360   9.842   9.546   2.165  0.0854 -0.4783 -0.2398
13268SOL    HW144361   9.750   9.528   2.181  0.4367 -1.4851  0.7703
13268SOL    HW244362   9.888   9.500   2.235  1.3716 -0.2399 -0.9029
13269SOL     OW44363   2.865   7.202   4.490 -0.0658  0.5296 -0.1494
13269SOL    HW144364   2.939   7.240   4.538  0.6565 -1.9039  0.8435
13269SOL    HW244365   2.789   7.224   4.543  0.3240  0.6720  0.3666
13270SOL     OW44366  10.641   5.667   2.598 -0.0003 -0.2061  0.2789
13270SOL    HW144367  10.598   5.606   2.538  0.1524  0.2699 -0.3237
13270SOL    HW244368  10.661   5.614   2.675  1.8786 -1.4212 -0.9669
13271SOL     OW44369  11.217   6.263   6.164  0.4747  0.1727 -0.0512
13271SOL    HW144370  11.161   6.338   6.143 -0.7193 -0.8563 -0.7058
13271SOL    HW244371  11.208   6.206   6.088  1.9214 -0.3203  0.1338
13272SOL     OW44372   3.760   7.331   3.087 -0.0071 -0.5191 -0.0573
13272SOL    HW144373   3.677   7.366   3.054 -0.6647 -0.7948  1.2392
13272SOL    HW244374   3.739   7.241   3.111  1.6244 -1.9241 -3.2418
13273SOL     OW44375   4.705  11.830   6.063 -0.5070 -0.3842 -0.0866
13273SOL    HW144376   4.764  11.800   5.993  1.0964  1.2213  0.4919
13273SOL    HW244377   4.746  11.910   6.095 -2.8381  0.5655  0.6543
13274SOL     OW44378   8.403   1.645   0.975  0.1029 -0.0847  0.3380
13274SOL    HW144379   8.394   1.560   0.931 -1.5363 -0.2926  0.9944
13274SOL    HW244380   8.322   1.654   1.025  1.1534  0.9512  1.9170
13275SOL     OW44381   0.200   3.619   7.598 -0.7113 -0.0425  0.0785
13275SOL    HW144382   0.114   3.578   7.589 -1.0494  0.0726  2.2801
13275SOL    HW244383   0.230   3.631   7.507 -2.0172 -2.1112 -0.7087
13276SOL     OW44384  10.363   2.434   6.279 -0.2375 -0.5202 -0.3530
13276SOL    HW144385  10.331   2.344   6.288 -1.5048 -0.0705 -0.2227
13276SOL    HW244386  10.451   2.424   6.241  0.2961 -1.8758  1.1214
13277SOL     OW44387   0.171   7.358   0.624 -0.1632  0.0369 -0.8201
13277SOL    HW144388   0.115   7.356   0.547 -0.4365 -0.0237 -0.6238
13277SOL    HW244389   0.178   7.266   0.651 -1.9936  0.2481  0.5863
13278SOL     OW44390   6.691   2.741   0.475 -0.1614 -0.3138 -0.7874
13278SOL    HW144391   6.773   2.694   0.459  1.4854  1.9835  0.2982
13278SOL    HW244392   6.684   2.804   0.403 -0.4327  0.1644 -0.3530
13279SOL     OW44393   5.185   8.268   8.842  0.2039  0.4057  0.1179
13279SOL    HW144394   5.262   8.267   8.785 -1.8322 -0.1771 -2.8599
13279SOL    HW244395   5.119   8.316   8.792 -1.4105  0.9397  2.5800
13280SOL     OW44396   7.159   4.565   9.013  0.4999 -0.4280  0.3406
13280SOL    HW144397   7.066   4.569   8.992  0.6450  2.0840 -0.0743
13280SOL    HW244398   7.199   4.522   8.937 -0.2497 -1.0580  0.2957
13281SOL     OW44399  11.738  10.694   5.705 -0.3745  0.2445  0.0979
13281SOL    HW144400  11.708  10.783   5.689 -1.1982  0.3744  2.1744
13281SOL    HW244401  11.747  10.656   5.617 -1.0961  1.9907 -0.7750
13282SOL     OW44402   0.395  11.864   7.429 -0.2114 -0.2260  0.0637
13282SOL    HW144403   0.362  11.954   7.425  3.3202  1.2325 -1.8876
13282SOL    HW244404   0.462  11.866   7.497  0.2976 -1.2039 -0.3783
13283SOL     OW44405   2.208   2.242   1.114 -0.1920  0.5189 -0.1831
13283SOL    HW144406   2.209   2.179   1.042 -0.2832  0.8349 -0.4645
13283SOL    HW244407   2.185   2.190   1.191 -1.0446  0.3471 -0.5458
13284SOL     OW44408   9.748   7.501   0.861 -0.1124  0.4781  0.3132
13284SOL    HW144409   9.801   7.500   0.941  1.0504 -0.6135 -0.4344
13284SOL    HW244410   9.741   7.594   0.839  1.1491  0.6909  0.6795
13285SOL     OW44411   8.705   8.063   4.417  0.3916  0.7786 -0.6682
13285SOL    HW144412   8.664   8.149   4.401  2.5062  1.7643 -1.1196
13285SOL    HW244413   8.715   8.059   4.512 -3.1204 -0.7225 -0.1915
13286SOL     OW44414   4.321   0.836   6.625  0.0025 -1.0027 -0.3527
13286SOL    HW144415   4.408   0.874   6.612 -0.1562  0.2100  1.7353
13286SOL    HW244416   4.279   0.894   6.688 -1.5818 -2.7290  0.2548
13287SOL     OW44417   5.719   1.974   3.433  0.1599  0.0774 -0.2555
13287SOL    HW144418   5.656   1.918   3.387  0.5305 -1.9916  1.6263
13287SOL    HW244419   5.740   2.042   3.369 -2.6914 -0.0759 -1.5467
13288SOL     OW44420   7.884   7.955   5.517 -0.3353  0.4454 -0.2308
13288SOL    HW144421   7.878   7.861   5.531 -0.8916  0.4580 -0.3542
13288SOL    HW244422   7.961   7.966   5.462 -0.3252  0.0528 -0.2972
13289SOL     OW44423  11.773   7.005   0.184  0.4879 -0.0660 -0.0455
13289SOL    HW144424  11.737   7.064   0.117  0.3144  0.0616  0.1575
13289SOL    HW244425  11.753   6.917   0.152  0.7592 -0.0177 -0.3560
13290SOL     OW44426   2.903   4.000  10.426  0.1409  0.1213 -0.0821
13290SOL    HW144427   2.945   4.082  10.451  1.9342 -0.5438 -0.7539
13290SOL    HW244428   2.823   3.997  10.478  1.0828  1.2955  1.5244
13291SOL     OW44429   7.512   7.913   7.572 -1.0412  0.0343 -0.4430
13291SOL    HW144430   7.540   7.942   7.486  0.9741 -0.7646 -0.1105
13291SOL    HW244431   7.593   7.911   7.624 -1.7847 -1.8719  0.7532
13292SOL     OW44432  11.056   2.599   6.576 -1.0365  0.1546 -0.4770
13292SOL    HW144433  11.056   2.648   6.658 -0.9106  0.2573 -0.5376
13292SOL    HW244434  11.134   2.544   6.581 -1.6106 -0.6334 -0.0575
13293SOL     OW44435   2.729   5.575   7.536 -0.4174  0.3433 -0.2751
13293SOL    HW144436   2.678   5.579   7.616  1.6064 -0.8841  1.1649
13293SOL    HW244437   2.747   5.667   7.514 -2.3521  0.7576 -0.3107
13294SOL     OW44438   0.333   7.446   6.157  0.1534  0.1041  0.1121
13294SOL    HW144439   0.408   7.386   6.157 -0.8527 -1.2208  1.1908
13294SOL    HW244440   0.321   7.468   6.065  1.3420 -0.3301 -0.1751
13295SOL     OW44441   3.447   2.013   8.094 -0.2222  0.1654  0.5640
13295SOL    HW144442   3.455   1.918   8.094  0.1436  0.1653  2.5000
13295SOL    HW244443   3.353   2.030   8.091 -0.2860 -0.2487  0.2454
13296SOL     OW44444   5.716   5.399   1.658 -0.1046  0.8704 -0.2708
13296SOL    HW144445   5.662   5.462   1.704  0.8844  0.2655  1.8168
13296SOL    HW244446   5.657   5.326   1.639 -0.5667  1.2153 -0.1813
13297SOL     OW44447   5.104   7.847   7.487  0.2216  0.2936  0.0568
13297SOL    HW144448   5.127   7.822   7.397  1.2716 -0.6549  0.5470
13297SOL    HW244449   5.012   7.823   7.496  0.3937 -0.6098 -0.4498
13298SOL     OW44450   6.011   7.283   3.170 -0.2256 -0.1440 -0.7725
13298SOL    HW144451   6.030   7.309   3.079  1.0542  0.5285 -0.3481
13298SOL    HW244452   5.925   7.242   3.166 -0.7164  0.9280 -2.1027
13299SOL     OW44453   6.340  10.544   9.584 -0.2090 -0.3488 -0.1225
13299SOL    HW144454   6.249  10.569   9.603 -0.0031 -0.0603  0.5274
13299SOL    HW244455   6.373  10.511   9.668  0.8214  1.2224  0.1199
13300SOL     OW44456   2.072   3.303  11.457  0.1579  0.5352  0.0367
13300SOL    HW144457   1.988   3.301  11.412  0.6804  0.4749 -0.9564
13300SOL    HW244458   2.063   3.240  11.529 -0.4549  0.1190 -0.4007
13301SOL     OW44459   2.876   1.007   7.766  0.1363 -0.2420 -0.0971
13301SOL    HW144460   2.938   1.079   7.779 -0.8750  0.2493  2.8162
13301SOL    HW244461   2.832   0.998   7.850 -2.2741 -1.9831 -1.4143
13302SOL     OW44462   1.521   1.824   0.485  0.0009 -0.2315  0.9240
13302SOL    HW144463   1.572   1.744   0.473  0.3146  0.1580 -0.6255
13302SOL    HW244464   1.575   1.893   0.446 -1.1135  0.4133  0.4717
13303SOL     OW44465   5.405  11.418   5.061 -1.0185 -0.1653  0.9106
13303SOL    HW144466   5.474  11.386   5.119 -2.6053  0.3743  3.2337
13303SOL    HW244467   5.396  11.350   4.995  1.0628 -0.6829  1.1014
13304SOL     OW44468   3.452   0.959   3.976  0.5106 -0.5005 -0.1815
13304SOL    HW144469   3.416   0.971   3.889 -1.1192 -0.8208  0.4079
13304SOL    HW244470   3.438   0.866   3.996  0.0564 -0.2519  0.7389
13305SOL     OW44471  10.790   5.260   9.887 -0.0990 -0.5031 -0.2995
13305SOL    HW144472  10.732   5.265   9.811 -1.3116  1.6690  0.6592
13305SOL    HW244473  10.859   5.323   9.869  0.8872 -1.6025 -0.5258
13306SOL     OW44474   1.989   8.802   2.797  0.3321 -0.2262  0.1966
13306SOL    HW144475   2.000   8.718   2.843  0.3399 -0.5404 -0.3771
13306SOL    HW244476   2.033   8.866   2.854 -0.5673 -0.4324  1.1586
13307SOL     OW44477   7.515   0.871   5.952  0.0219 -0.4648  0.3276
13307SOL    HW144478   7.443   0.868   6.015  0.6608 -2.2154  1.0374
13307SOL    HW244479   7.590   0.902   6.002  0.2586 -0.7352  0.1473
13308SOL     OW44480   6.894   6.920  10.632 -0.2221 -0.0980  0.2903
13308SOL    HW144481   6.919   6.851  10.571  2.3872  0.2965  0.7973
13308SOL    HW244482   6.884   6.998  10.577 -1.4018 -0.4628 -0.0434
13309SOL     OW44483   5.357  10.582   8.875  0.5399  0.9768  0.3128
13309SOL    HW144484   5.348  10.503   8.929 -2.7166 -1.2908 -3.0558
13309SOL    HW244485   5.317  10.651   8.927  0.0527 -0.4377  1.9145
13310SOL     OW44486   0.602   9.983   1.433 -0.0798 -0.1574  0.3061
13310SOL    HW144487   0.509  10.000   1.451 -0.2337 -0.7396  0.0744
13310SOL    HW244488   0.648  10.034   1.499 -0.5616  0.2702  0.3197
13311SOL     OW44489   3.705   5.091   9.989 -0.3601 -0.0235 -0.5243
13311SOL    HW144490   3.685   5.004   9.953  0.3287 -0.5807  0.3962
13311SOL    HW244491   3.779   5.122   9.936 -0.1112 -0.3346 -0.3646
13312SOL     OW44492   8.306   7.818   2.309  0.1190 -0.3962  0.0541
13312SOL    HW144493   8.231   7.877   2.303  0.0579 -0.2986  1.3206
13312SOL    HW244494   8.377   7.864   2.264 -0.4431 -0.2522 -0.6835
13313SOL     OW44495   2.711   6.188   7.164  0.2854 -0.2695  0.2551
13313SOL    HW144496   2.723   6.171   7.070 -0.2406 -1.6364  0.4070
13313SOL    HW244497   2.776   6.130   7.206 -0.0025 -0.2321  0.7508
13314SOL     OW44498   5.647   8.662   0.363 -0.4678  0.1095 -0.1854
13314SOL    HW144499   5.704   8.586   0.349 -0.4519  0.3970 -1.9198
13314SOL    HW244500   5.670   8.693   0.450  1.1459 -0.5236 -0.3432
13315SOL     OW44501   6.327   8.750  11.862 -0.2077 -0.3036  0.0766
13315SOL    HW144502   6.350   8.730  11.953  0.7519 -0.1091 -0.1035
13315SOL    HW244503   6.337   8.667  11.816  0.7766 -0.1052 -0.1077
13316SOL     OW44504   7.755   5.306   5.155  0.3174 -0.9095  0.1487
13316SOL    HW144505   7.803   5.380   5.117 -0.0138  0.2508  1.8832
13316SOL    HW244506   7.720   5.259   5.079  0.9625  0.4130 -1.0196
13317SOL     OW44507   0.689   2.610   1.865  0.5980  0.1767 -0.0137
13317SOL    HW144508   0.755   2.585   1.930  1.5771  0.6782 -0.7848
13317SOL    HW244509   0.613   2.556   1.887  0.9420  0.2447  1.4633
13318SOL     OW44510   2.911   5.954   4.057  0.2843  0.3046 -0.0721
13318SOL    HW144511   2.947   5.980   4.142  1.2425 -1.1575  0.0129
13318SOL    HW244512   2.885   6.036   4.016 -0.5994  1.0235  1.7854
13319SOL     OW44513   4.712  11.528   0.990 -0.5630 -0.1019 -0.2688
13319SOL    HW144514   4.751  11.583   1.059  1.0815  0.5362 -1.6314
13319SOL    HW244515   4.623  11.562   0.980 -0.2553  0.9382  0.3659
13320SOL     OW44516  10.233   1.156   7.513  0.6509 -0.3871  0.3157
13320SOL    HW144517  10.289   1.224   7.552  0.9416 -1.1767  1.3327
13320SOL    HW244518  10.146   1.174   7.549  0.2404  0.7647 -1.1672
13321SOL     OW44519  10.257   9.948  10.954  1.2400  0.4516 -0.6077
13321SOL    HW144520  10.188  10.011  10.972  1.9068  1.0395 -0.0507
13321SOL    HW244521  10.336  10.001  10.940  1.6473 -0.2173 -0.8956
13322SOL     OW44522   2.403  11.602   8.004  0.0190  0.1988  0.0249
13322SOL    HW144523   2.460  11.627   7.932  0.4582 -3.1813 -0.9698
13322SOL    HW244524   2.316  11.595   7.965 -0.2516  0.8903  0.4776
13323SOL     OW44525   5.518  10.884   7.715  0.0833  0.3424 -0.1152
13323SOL    HW144526   5.540  10.959   7.771  1.1494 -1.1036  1.5097
13323SOL    HW244527   5.560  10.809   7.758 -1.2248 -1.2536 -1.4982
13324SOL     OW44528   6.202   5.217   4.825  0.2410 -0.0701 -0.4221
13324SOL    HW144529   6.243   5.201   4.909  0.6941  1.2090 -0.3712
13324SOL    HW244530   6.148   5.140   4.809  1.3791 -1.0365  0.2828
13325SOL     OW44531  10.337  11.141   9.767  0.1449  0.5623  0.0992
13325SOL    HW144532  10.291  11.223   9.785  0.0510  0.8613 -1.3776
13325SOL    HW244533  10.403  11.165   9.701 -0.4732 -0.7121 -1.0344
13326SOL     OW44534  11.754   5.296   1.549  0.2550 -0.0940  0.2542
13326SOL    HW144535  11.662   5.323   1.539  0.2655  0.0496  0.5458
13326SOL    HW244536  11.803   5.377   1.537  0.4291 -0.3868 -1.2289
13327SOL     OW44537  10.974   3.803   0.870 -0.0929 -0.1648  0.2254
13327SOL    HW144538  10.879   3.796   0.861 -0.1425  0.0262  0.5761
13327SOL    HW244539  11.008   3.789   0.781 -0.2407 -3.3454  0.5607
13328SOL     OW44540   2.539   8.909   3.129 -0.2233  0.5682 -0.6249
13328SOL    HW144541   2.634   8.926   3.133 -0.5136  2.2842  3.0357
13328SOL    HW244542   2.531   8.817   3.155  0.4556  0.6120 -0.2049
13329SOL     OW44543  10.432  11.357   6.008 -0.3594  0.5600  0.0434
13329SOL    HW144544  10.473  11.307   5.937 -2.7014  0.0143 -1.0288
13329SOL    HW244545  10.435  11.448   5.978  1.4527  0.7736  0.7430
13330SOL     OW44546   3.548   8.347   3.643 -0.0570 -0.1544 -0.2536
13330SOL    HW144547   3.623   8.406   3.655  0.5249 -0.7908 -0.6958
13330SOL    HW244548   3.555   8.284   3.714 -2.1768  1.7802  1.8533
13331SOL     OW44549   8.454   8.411  12.007 -0.3290 -0.4604  0.1904
13331SOL    HW144550   8.395   8.469  12.056 -0.4370 -1.8901  1.8686
13331SOL    HW244551   8.395   8.362  11.949 -0.5497 -0.4898  0.4331
13332SOL     OW44552   4.725   6.307   5.747 -0.2591  0.1178 -0.8125
13332SOL    HW144553   4.638   6.290   5.785 -1.7722 -1.9647 -4.5917
13332SOL    HW244554   4.773   6.225   5.761 -0.7760 -0.6106 -2.9680
13333SOL     OW44555   6.568   6.964   5.183 -0.0405  0.2684 -0.1047
13333SOL    HW144556   6.587   6.872   5.165 -1.5944 -0.6329  2.3256
13333SOL    HW244557   6.516   6.992   5.108 -0.6843 -1.2510 -0.2756
13334SOL     OW44558   7.792  10.555   1.135 -0.1956 -0.1971  0.5586
13334SOL    HW144559   7.875  10.538   1.092 -1.0742 -0.1217 -1.2562
13334SOL    HW244560   7.789  10.494   1.208  0.8313 -1.1918 -0.2045
13335SOL     OW44561   3.242   0.386   9.738  0.1335  0.1293 -0.6880
13335SOL    HW144562   3.158   0.341   9.739 -0.9951  2.1321 -1.1548
13335SOL    HW244563   3.224   0.471   9.699  2.0512  1.2422  0.6556
13336SOL     OW44564   8.092   1.250   3.293 -0.1345  0.4366  0.4828
13336SOL    HW144565   8.093   1.156   3.277 -1.1018  0.5239 -0.2590
13336SOL    HW244566   8.100   1.289   3.206 -2.3420  0.9897  0.4516
13337SOL     OW44567   4.791   7.436  11.201 -0.1163  0.3083 -0.1234
13337SOL    HW144568   4.765   7.407  11.113  0.3950  1.6516 -0.7385
13337SOL    HW244569   4.836   7.519  11.187  0.9794 -0.0024  1.3165
13338SOL     OW44570   7.704  10.347   1.908  0.1418  0.4759 -0.1561
13338SOL    HW144571   7.773  10.413   1.906  1.3312 -0.7074  0.6401
13338SOL    HW244572   7.719  10.294   1.830  0.5791 -0.2182  0.3942
13339SOL     OW44573   4.543   2.999   0.338  0.3353 -0.2264 -0.1492
13339SOL    HW144574   4.514   3.090   0.330  0.9049  0.1318  1.4125
13339SOL    HW244575   4.469   2.953   0.378  0.6787 -0.0384  0.7298
13340SOL     OW44576   3.074   6.013   6.239  0.0524  0.2946  0.8091
13340SOL    HW144577   3.055   5.927   6.201  0.7507  0.3910  0.2398
13340SOL    HW244578   2.999   6.067   6.214 -1.0347 -0.4594  2.2521
13341SOL     OW44579   9.076   6.572   9.821  0.0086  0.2937  0.3751
13341SOL    HW144580   9.142   6.560   9.889 -0.6024 -0.5301  0.8457
13341SOL    HW244581   9.018   6.497   9.831 -1.4052  1.3572  0.4262
13342SOL     OW44582   2.589   9.881   6.459  0.0092 -0.3324 -0.1467
13342SOL    HW144583   2.592   9.916   6.548  0.2804  0.6596 -0.5319
13342SOL    HW244584   2.680   9.885   6.429  0.2505 -2.3759  0.1465
13343SOL     OW44585  11.844   8.786   9.889 -0.2990  0.0236  0.4546
13343SOL    HW144586  11.766   8.842   9.890 -0.7845 -0.5659 -1.2193
13343SOL    HW244587  11.857   8.764   9.797  0.7400 -1.4455  0.9105
13344SOL     OW44588   7.814   3.313   1.750 -0.1039 -0.2573 -0.2707
13344SOL    HW144589   7.831   3.230   1.793 -1.3640 -1.4159 -1.8745
13344SOL    HW244590   7.838   3.298   1.659 -0.9004  0.9399 -0.7061
13345SOL     OW44591   3.472   8.160   4.669  0.4272 -0.2893 -0.0695
13345SOL    HW144592   3.486   8.183   4.761  0.3390  0.7106 -0.2958
13345SOL    HW244593   3.538   8.210   4.621  1.4906 -1.9454 -0.4578
13346SOL     OW44594   1.966   5.244   9.121 -0.1592 -0.2595  0.5110
13346SOL    HW144595   2.035   5.177   9.115 -0.5267 -0.5440 -0.8060
13346SOL    HW244596   1.969   5.273   9.213  2.1011  0.1496  0.3631
13347SOL     OW44597   3.985   0.800   9.003 -0.3156 -0.3607  0.0772
13347SOL    HW144598   4.027   0.772   9.084 -1.5610 -1.8036  0.2591
13347SOL    HW244599   4.057   0.820   8.944  0.6234  0.8223  1.5483
13348SOL     OW44600  11.220   3.603  12.049 -0.4346 -0.4338  0.5395
13348SOL    HW144601  11.309   3.611  12.082 -0.9172 -0.4770  1.9172
13348SOL    HW244602  11.230   3.566  11.961  0.7940 -4.2099  2.0237
13349SOL     OW44603   0.134   1.864   0.201 -0.2742  0.1574  0.1208
13349SOL    HW144604   0.159   1.862   0.293 -0.5574  0.2092  0.2005
13349SOL    HW244605   0.063   1.800   0.194 -0.0862 -0.0284 -0.1126
13350SOL     OW44606   4.222   5.025   2.834 -0.2359  0.3188  0.7591
13350SOL    HW144607   4.250   4.936   2.857  0.0082 -0.3210 -1.7659
13350SOL    HW244608   4.167   5.052   2.908  1.0902 -1.2260  2.4051
13351SOL     OW44609   6.663   8.344  10.867 -0.3802 -0.3175 -0.6782
13351SOL    HW144610   6.676   8.427  10.912  0.1599  0.0312 -1.4556
13351SOL    HW244611   6.619   8.288  10.931  1.7215 -0.3433  0.8459
13352SOL     OW44612   6.509   1.781   6.567 -0.4391  0.1688 -0.0639
13352SOL    HW144613   6.462   1.813   6.643  1.1826  1.8794  0.2973
13352SOL    HW244614   6.548   1.698   6.595 -0.0794  0.6504  0.9183
13353SOL     OW44615   8.930   2.949  11.352 -0.1188  0.3928 -0.4619
13353SOL    HW144616   8.888   2.887  11.412  0.7039 -2.2122 -2.3701
13353SOL    HW244617   9.021   2.954  11.381 -0.1105  0.4642 -0.5003
13354SOL     OW44618  10.000   8.485   8.364 -0.0530 -0.2682  0.0729
13354SOL    HW144619  10.066   8.523   8.422 -0.5149  0.0610  0.3784
13354SOL    HW244620  10.019   8.391   8.365 -1.2986 -0.5571  2.3652
13355SOL     OW44621  11.553   4.190   8.111 -0.0650 -0.1114 -0.5704
13355SOL    HW144622  11.544   4.098   8.089  0.2967 -0.1610 -0.5239
13355SOL    HW244623  11.597   4.228   8.035 -0.5810  0.1037 -0.7642
13356SOL     OW44624   1.716   5.832   5.809 -0.1636  0.3388 -0.2905
13356SOL    HW144625   1.748   5.753   5.855  0.9941  1.0964  0.2567
13356SOL    HW244626   1.621   5.829   5.821  0.0200  0.0730  1.4903
13357SOL     OW44627   5.634   3.016   3.227 -0.2414  0.0950  0.0255
13357SOL    HW144628   5.576   3.001   3.152  1.1936  0.7548 -1.2691
13357SOL    HW244629   5.647   3.110   3.229 -0.5767  0.1395  1.4035
13358SOL     OW44630   4.510   2.515   6.421 -0.2420 -0.0019 -0.3055
13358SOL    HW144631   4.549   2.438   6.464 -0.4461 -1.5335 -2.6940
13358SOL    HW244632   4.420   2.488   6.402 -1.4482  2.1261  1.7623
13359SOL     OW44633   7.264   5.645   0.452 -0.2102 -0.0136  0.6277
13359SOL    HW144634   7.177   5.617   0.480  0.1590 -2.1002 -0.1271
13359SOL    HW244635   7.323   5.607   0.517  0.4546 -2.7874 -1.4222
13360SOL     OW44636   4.821   7.777   2.168 -0.0503  0.5109  0.3280
13360SOL    HW144637   4.897   7.796   2.113 -0.9013 -0.5746 -1.3082
13360SOL    HW244638   4.746   7.806   2.115 -0.9301 -1.0015  0.6819
13361SOL     OW44639   8.286   7.579   9.585 -0.1914  0.4146 -0.3399
13361SOL    HW144640   8.281   7.668   9.551  1.2916  0.6043 -0.1230
13361SOL    HW244641   8.355   7.582   9.652  0.4003 -1.0369 -0.8402
13362SOL     OW44642   0.947   9.987   4.662 -0.0938 -0.1090 -0.0883
13362SOL    HW144643   0.928  10.036   4.582  0.6497  1.2426  0.5301
13362SOL    HW244644   0.888  10.024   4.728 -0.5132 -1.0284  0.0683
13363SOL     OW44645  10.691   9.799   8.511  1.1479 -0.7608  0.0635
13363SOL    HW144646  10.672   9.890   8.489  5.3779  0.0904 -1.0150
13363SOL    HW244647  10.644   9.748   8.445  0.1100  0.7427 -0.4151
13364SOL     OW44648   1.229   1.807   3.769 -0.0757  0.2684 -0.0690
13364SOL    HW144649   1.181   1.879   3.728 -3.2683 -2.2970 -1.2865
13364SOL    HW244650   1.168   1.773   3.835  1.4807 -1.0752  0.7413
13365SOL     OW44651   9.511   6.474   1.872  0.5242 -0.0775  0.4998
13365SOL    HW144652   9.547   6.395   1.912 -0.7504 -0.1170  1.6545
13365SOL    HW244653   9.442   6.443   1.814  0.5294  0.1369  0.3786
13366SOL     OW44654   7.070  10.860   7.890  0.1672  0.1739 -0.0488
13366SOL    HW144655   7.095  10.860   7.982 -0.4764 -5.6609  0.4752
13366SOL    HW244656   6.986  10.906   7.888 -0.9509 -1.5342  2.7945
13367SOL     OW44657   5.039   1.337   2.147  0.7523 -0.4219 -0.4384
13367SOL    HW144658   5.118   1.305   2.189  1.4682  0.6112 -0.9467
13367SOL    HW244659   5.036   1.291   2.063  0.9956 -0.2367 -0.5518
13368SOL     OW44660  10.730   0.318   2.215  0.3981 -0.2670  0.5809
13368SOL    HW144661  10.660   0.383   2.217  0.3145 -0.3458  0.3159
13368SOL    HW244662  10.693   0.242   2.261  0.3571 -0.2582  0.5635
13369SOL     OW44663   7.582   6.366   4.294  0.8528 -0.0992  0.0258
13369SOL    HW144664   7.624   6.445   4.259  0.8545  0.0768  0.4182
13369SOL    HW244665   7.503   6.355   4.241 -1.2900  2.4168  2.3718
13370SOL     OW44666   1.563   7.156   4.023 -0.4134  0.1353  0.2914
13370SOL    HW144667   1.535   7.142   3.933 -1.2143  0.3616  0.4938
13370SOL    HW244668   1.638   7.098   4.035 -0.3644  0.0334 -0.4864
13371SOL     OW44669  11.188   7.286   7.312 -0.4112 -0.3580 -0.0778
13371SOL    HW144670  11.269   7.300   7.363 -0.4805 -0.7034  0.1286
13371SOL    HW244671  11.195   7.348   7.240 -0.8652  0.9945  1.0022
13372SOL     OW44672   6.741  11.337   9.397 -0.1673 -0.5183 -0.3142
13372SOL    HW144673   6.682  11.408   9.375  0.6375 -0.4261 -2.4336
13372SOL    HW244674   6.693  11.257   9.373 -0.5356 -0.6276  0.7460
13373SOL     OW44675   8.960   4.637   7.684 -0.0838 -0.2721  0.4525
13373SOL    HW144676   8.966   4.733   7.681  0.4401 -0.3323 -2.0293
13373SOL    HW244677   9.050   4.607   7.669 -0.3300 -1.1627  0.7097
13374SOL     OW44678   5.263   0.851   4.951  0.3008  0.0010  0.6299
13374SOL    HW144679   5.265   0.755   4.954  2.1387 -0.0677 -0.9307
13374SOL    HW244680   5.205   0.872   4.877 -0.7191  0.1540  1.4442
13375SOL     OW44681   5.291   3.325   7.719  0.2683  0.6308 -0.4460
13375SOL    HW144682   5.213   3.275   7.743 -0.2439  1.2914 -0.7224
13375SOL    HW244683   5.287   3.403   7.775  0.7082  0.6905 -0.4959
13376SOL     OW44684   9.156   5.742   0.239 -0.1541 -0.0831 -0.1823
13376SOL    HW144685   9.130   5.771   0.326  0.8925 -1.4716  0.6290
13376SOL    HW244686   9.201   5.817   0.201 -0.1653  0.3743  0.6856
13377SOL     OW44687   5.071   8.030  10.323  0.4653 -0.1922  0.0874
13377SOL    HW144688   5.163   8.051  10.339  1.0636 -1.9861 -0.7879
13377SOL    HW244689   5.073   7.943  10.284 -1.4272  0.7582 -2.3172
13378SOL     OW44690  11.239   4.663   9.447 -0.4242 -0.4143  0.0687
13378SOL    HW144691  11.173   4.712   9.496  0.6138  0.0078  1.0752
13378SOL    HW244692  11.236   4.575   9.485 -0.1599 -0.2961  0.3676
13379SOL     OW44693   8.185   5.510   4.450 -0.1505  0.1569 -0.5984
13379SOL    HW144694   8.265   5.475   4.489  0.7132  2.3286 -0.3100
13379SOL    HW244695   8.204   5.513   4.356  0.6026  1.7097 -0.4349
13380SOL     OW44696   5.028   8.350   9.300 -0.2058  0.0224 -0.4588
13380SOL    HW144697   5.015   8.319   9.389  2.7435 -0.8706 -0.2268
13380SOL    HW244698   5.123   8.358   9.290 -0.3999 -0.0071 -3.5551
13381SOL     OW44699  11.155   8.785  10.187 -0.3514  0.2020  0.0923
13381SOL    HW144700  11.222   8.726  10.154 -0.2165  1.3909 -1.8882
13381SOL    HW244701  11.072   8.744  10.163 -0.2950 -0.0496  0.3241
13382SOL     OW44702   7.037   3.176   9.741 -0.0507 -0.0803 -0.1144
13382SOL    HW144703   7.045   3.111   9.671 -2.6169  0.4287 -0.9701
13382SOL    HW244704   7.010   3.256   9.697 -0.9084  0.4823  1.3708
13383SOL     OW44705   4.746   4.484   6.521  0.0184 -0.2606  0.0476
13383SOL    HW144706   4.812   4.464   6.588  0.0882 -0.3572 -0.0495
13383SOL    HW244707   4.721   4.575   6.539  0.2181 -0.2050  0.0520
13384SOL     OW44708   2.082   2.247   6.863 -0.4126  0.0679 -0.0050
13384SOL    HW144709   2.126   2.191   6.927  1.9777 -0.7988 -2.2433
13384SOL    HW244710   2.011   2.288   6.912  0.6843 -1.2703  2.9261
13385SOL     OW44711   9.506   1.615  11.188 -0.6060  0.1636  0.1876
13385SOL    HW144712   9.426   1.636  11.140 -1.1900  1.4303  1.6334
13385SOL    HW244713   9.552   1.699  11.198  0.6861 -0.4663 -0.2128
13386SOL     OW44714   3.711   6.126   3.382 -0.2709 -0.4183 -0.1328
13386SOL    HW144715   3.717   6.154   3.473  1.0699  1.3241 -0.6915
13386SOL    HW244716   3.657   6.047   3.384  0.0387 -0.6375  2.2046
13387SOL     OW44717   7.302   2.126   1.291  0.0306 -0.0567 -0.1081
13387SOL    HW144718   7.370   2.071   1.330  0.9166  0.3625 -1.0282
13387SOL    HW244719   7.255   2.162   1.366  1.7052  0.7465  0.6088
13388SOL     OW44720   6.316   4.497   7.880 -0.5878  0.6532  0.0248
13388SOL    HW144721   6.335   4.440   7.806  0.0628  1.4138 -0.4008
13388SOL    HW244722   6.221   4.494   7.889 -0.5465 -0.9505  0.3871
13389SOL     OW44723   6.401   0.469   2.590  0.1499 -0.2257  0.3097
13389SOL    HW144724   6.310   0.454   2.564 -0.6155  1.9340  1.4410
13389SOL    HW244725   6.395   0.536   2.658  2.5876 -0.2388  0.6116
13390SOL     OW44726  10.318   6.932   9.887  0.2997  0.0256 -0.3872
13390SOL    HW144727  10.242   6.961   9.936 -0.0786 -1.1276 -0.2781
13390SOL    HW244728  10.390   6.935   9.949  0.7931  2.9025 -0.9428
13391SOL     OW44729  10.052  12.106   3.017 -0.1094  0.1731  0.4942
13391SOL    HW144730   9.995  12.149   2.953  0.1932 -0.7252 -0.3932
13391SOL    HW244731   9.991  12.071   3.083 -0.3838  1.6293  1.0705
13392SOL     OW44732   6.124   5.399   7.554  0.2730 -0.5341  0.3920
13392SOL    HW144733   6.161   5.360   7.633 -0.3102 -0.0350  0.9218
13392SOL    HW244734   6.034   5.367   7.552  0.4278 -0.9381 -0.3393
13393SOL     OW44735   9.137   9.037   0.645 -0.6140  0.2244  0.1424
13393SOL    HW144736   9.229   9.048   0.668 -0.5336 -0.2768  0.0646
13393SOL    HW244737   9.133   9.051   0.551 -0.4494 -0.7541 -0.0191
13394SOL     OW44738   6.385   1.083   4.753  0.3396  0.1380 -0.4274
13394SOL    HW144739   6.407   1.153   4.692  1.0208  0.8633  0.6129
13394SOL    HW244740   6.327   1.124   4.817  1.9274  0.1968  1.0501
13395SOL     OW44741  10.744   6.118   9.757  0.1168 -0.6749 -0.2395
13395SOL    HW144742  10.765   6.162   9.674  1.2867 -2.2054 -0.8139
13395SOL    HW244743  10.657   6.150   9.781 -0.2674 -0.2386 -2.0932
13396SOL     OW44744   7.029   8.553  12.073 -0.2396  0.3170  0.7047
13396SOL    HW144745   7.015   8.540  11.980 -1.5644  1.5807  0.7008
13396SOL    HW244746   6.942   8.554  12.112  0.2144  1.0134  1.7827
13397SOL     OW44747   8.810   0.179   9.640 -0.4785  0.3681  0.0364
13397SOL    HW144748   8.833   0.245   9.706  0.8372 -0.9425  0.9626
13397SOL    HW244749   8.804   0.097   9.689 -0.7838 -0.4329 -1.2831
13398SOL     OW44750   0.415   1.300   5.720 -0.1425  0.0860 -0.1220
13398SOL    HW144751   0.461   1.238   5.778 -0.3288  0.2605  0.2147
13398SOL    HW244752   0.337   1.324   5.769 -0.6646 -0.3089 -0.7547
13399SOL     OW44753  10.955   4.070   3.260 -0.3470 -0.1601  0.1539
13399SOL    HW144754  10.888   4.039   3.199 -1.4867  1.7084  0.3837
13399SOL    HW244755  11.029   4.094   3.205 -1.0435  0.6977 -0.4265
13400SOL     OW44756  11.478   8.811   8.543  0.0258  0.0071 -0.0270
13400SOL    HW144757  11.554   8.820   8.485  0.2222 -1.0053  0.0605
13400SOL    HW244758  11.515   8.784   8.627 -0.4394 -0.5711 -0.0070
13401SOL     OW44759   4.122   0.597  11.568  0.0984 -0.0371  0.2870
13401SOL    HW144760   4.160   0.526  11.516  0.8313  2.6995 -3.3177
13401SOL    HW244761   4.197   0.649  11.595 -0.5706  0.8732  0.4339
13402SOL     OW44762   7.923   3.774   8.201  0.2739 -0.1965  0.3685
13402SOL    HW144763   7.937   3.868   8.212 -2.5852  0.1509  2.1273
13402SOL    HW244764   7.860   3.767   8.129 -0.2438 -0.6527  0.8482
13403SOL     OW44765  10.932   3.392   7.891 -0.2004 -0.0534  0.3123
13403SOL    HW144766  10.897   3.433   7.970 -1.8781 -2.6621  1.0266
13403SOL    HW244767  11.018   3.360   7.918  0.4739  1.5146  0.1758
13404SOL     OW44768   5.772   8.061   9.405 -0.2224 -0.4616 -0.2543
13404SOL    HW144769   5.717   8.011   9.345 -0.0870 -0.0619 -0.7189
13404SOL    HW244770   5.857   8.065   9.362  0.4891 -1.9482  0.9229
13405SOL     OW44771   2.960  10.211   0.866  0.0755  0.3033  0.8478
13405SOL    HW144772   2.977  10.124   0.903  0.7653 -0.2990 -0.8022
13405SOL    HW244773   2.914  10.257   0.935  2.1483 -0.4278  2.8576
13406SOL     OW44774   3.429  10.613  10.374 -0.7649 -0.2224 -0.5940
13406SOL    HW144775   3.357  10.611  10.310 -0.0728 -1.1531 -1.3732
13406SOL    HW244776   3.454  10.521  10.385 -0.2929  0.0101  0.3698
13407SOL     OW44777   8.251   4.641   7.026 -0.2699  0.0383  0.2109
13407SOL    HW144778   8.328   4.697   7.041 -2.0802  2.5320  0.7510
13407SOL    HW244779   8.204   4.685   6.955 -1.2342 -1.4290 -0.0776
13408SOL     OW44780  10.216   8.111   6.357 -0.2631  0.7221  0.1539
13408SOL    HW144781  10.224   8.083   6.448 -2.3927  0.8782  0.4476
13408SOL    HW244782  10.172   8.196   6.361  1.7861  1.9137 -0.9483
13409SOL     OW44783   5.329   1.419   2.951  0.3432  0.1580  0.4780
13409SOL    HW144784   5.414   1.424   2.907 -0.0923  2.2144 -0.2273
13409SOL    HW244785   5.312   1.509   2.980 -2.3519  0.1736 -0.9208
13410SOL     OW44786  11.788   2.399  10.662 -0.2030  0.3270 -0.1815
13410SOL    HW144787  11.801   2.357  10.747 -1.1966 -1.5266 -0.8986
13410SOL    HW244788  11.779   2.492  10.683  2.0392  0.2641  1.4703
13411SOL     OW44789   5.752   6.159   1.966 -0.5273  0.4865 -0.1876
13411SOL    HW144790   5.662   6.189   1.972 -0.6752  0.0856 -0.3462
13411SOL    HW244791   5.781   6.185   1.878 -0.5955  0.3250 -0.2576
13412SOL     OW44792   0.379   6.698   5.149  0.1014  0.2482 -0.4946
13412SOL    HW144793   0.370   6.788   5.117 -0.9819 -0.0660 -1.1563
13412SOL    HW244794   0.462   6.667   5.112  0.7078  1.1093  0.1171
13413SOL     OW44795   6.693  10.622   6.329 -0.1173 -0.3840  0.2093
13413SOL    HW144796   6.631  10.636   6.257  1.0242 -1.2620 -1.0014
13413SOL    HW244797   6.644  10.571   6.394 -0.9819 -0.1285 -0.2355
13414SOL     OW44798   4.889  10.920  11.378  0.1151  0.3324  0.0778
13414SOL    HW144799   4.888  10.851  11.312  1.2445  0.5005 -0.1278
13414SOL    HW244800   4.900  11.001  11.328  0.7624  0.4773  0.4450
13415SOL     OW44801   9.848  11.098   9.258 -0.1178  0.1252 -0.0932
13415SOL    HW144802   9.909  11.046   9.311  0.3059  2.1942  1.5986
13415SOL    HW244803   9.903  11.161   9.212 -0.8082  0.8274  0.0214
13416SOL     OW44804  11.018   1.838   1.958 -0.4317  0.5477  0.0977
13416SOL    HW144805  10.933   1.797   1.976 -0.0559 -0.9147 -1.2695
13416SOL    HW244806  11.044   1.877   2.041 -2.8016  1.7428  0.3756
13417SOL     OW44807   5.575   5.928  10.542  0.1843 -0.3997  0.0088
13417SOL    HW144808   5.551   5.866  10.473 -1.3255  0.6616 -0.4496
13417SOL    HW244809   5.546   6.013  10.510  1.2890  0.4078  1.0855
13418SOL     OW44810   6.945   5.013   7.892 -0.4107  0.3674 -0.1642
13418SOL    HW144811   6.985   4.947   7.835  0.4316  1.3963 -0.8111
13418SOL    HW244812   7.019   5.053   7.938 -0.7395  1.7136 -0.7377
13419SOL     OW44813  10.402   6.099  11.708  0.3187 -0.0059 -0.3888
13419SOL    HW144814  10.401   6.184  11.753  1.6156 -1.2113  2.1507
13419SOL    HW244815  10.361   6.039  11.770  1.4703 -1.6393 -1.1295
13420SOL     OW44816  10.925   3.782  11.565 -0.0430 -0.3614 -0.6522
13420SOL    HW144817  10.913   3.699  11.520  0.5530 -0.5379 -0.5003
13420SOL    HW244818  10.910   3.849  11.498  2.3715 -0.6296 -1.5462
13421SOL     OW44819   8.037   6.072  11.978 -0.5125 -0.4147 -0.2143
13421SOL    HW144820   7.959   6.079  12.033 -0.0054  0.7112  0.3901
13421SOL    HW244821   8.108   6.054  12.040 -0.0219  0.3078 -0.5630
13422SOL     OW44822   5.630  11.185   2.788 -0.2743  0.2856 -0.1821
13422SOL    HW144823   5.723  11.208   2.794 -0.4652  0.8949  0.7367
13422SOL    HW244824   5.613  11.135   2.868 -0.2179 -1.9093 -1.4474
13423SOL     OW44825   0.501   7.062   0.810 -0.0257  0.4891 -0.0226
13423SOL    HW144826   0.507   7.048   0.904 -0.7060 -5.4751 -0.4486
13423SOL    HW244827   0.575   7.014   0.774 -1.2222  0.3475 -2.5182
13424SOL     OW44828   6.986   6.827   8.063  0.1090 -0.0975  0.3790
13424SOL    HW144829   6.935   6.752   8.096 -0.2078  1.0115  2.6006
13424SOL    HW244830   6.961   6.833   7.971  0.4614 -2.9507 -0.0087
13425SOL     OW44831   5.640   2.184   9.271  0.2582  0.0889 -0.0172
13425SOL    HW144832   5.569   2.129   9.303  1.0282 -2.1654 -1.8695
13425SOL    HW244833   5.685   2.212   9.350 -1.6787  0.1797  1.1094
13426SOL     OW44834   4.524   1.941   6.749  0.0894  0.7416  0.2798
13426SOL    HW144835   4.593   1.984   6.801  1.7445 -0.0681 -1.1245
13426SOL    HW244836   4.571   1.872   6.701 -1.8313 -0.2053 -0.3163
13427SOL     OW44837   1.010   8.224   0.399 -0.1478 -0.3729 -0.2050
13427SOL    HW144838   0.963   8.241   0.318 -1.9126 -1.5094  0.5189
13427SOL    HW244839   0.997   8.131   0.416  0.4050 -0.2166  1.2442
13428SOL     OW44840  11.925  11.913   3.992  0.2540  0.0902 -1.0705
13428SOL    HW144841  11.934  12.002   4.026  0.4745  0.4492 -2.0568
13428SOL    HW244842  12.014  11.886   3.971  0.3531 -0.8627  0.4296
13429SOL     OW44843  11.986   3.835   5.274  0.2174 -0.4824  0.0129
13429SOL    HW144844  12.060   3.778   5.252 -0.4237 -1.9594  1.5136
13429SOL    HW244845  11.910   3.788   5.242 -0.1956  0.4784 -0.4622
13430SOL     OW44846   3.464  10.920  10.991 -0.3884  1.1138  0.4285
13430SOL    HW144847   3.528  10.891  11.057 -0.5602 -0.8654 -0.2362
13430SOL    HW244848   3.445  10.842  10.940 -1.1222  2.3561 -1.2779
13431SOL     OW44849   7.574  10.482   8.541 -0.0117 -0.1504 -0.1536
13431SOL    HW144850   7.624  10.539   8.483  1.6156 -1.7740 -0.4688
13431SOL    HW244851   7.566  10.400   8.492 -1.4272 -0.5206  0.6512
13432SOL     OW44852   9.321   8.621   9.112  0.3023 -0.2513 -0.0250
13432SOL    HW144853   9.287   8.535   9.085 -2.1382  0.7685 -0.5510
13432SOL    HW244854   9.369   8.604   9.193  1.0749 -2.2803 -0.8367
13433SOL     OW44855   1.218   5.854   6.079 -0.0783  0.7320 -0.2447
13433SOL    HW144856   1.288   5.875   6.018  0.0689  0.3709 -0.2066
13433SOL    HW244857   1.172   5.936   6.094  1.5566  1.4336  1.2986
13434SOL     OW44858   7.730  10.708   3.372 -0.6563  0.0506 -0.6859
13434SOL    HW144859   7.743  10.793   3.415  0.2002 -0.8932  1.0015
13434SOL    HW244860   7.811  10.660   3.389 -0.3331 -0.4684 -3.2544
13435SOL     OW44861   0.330   5.480   7.514 -0.4662  0.1321  0.2660
13435SOL    HW144862   0.283   5.398   7.498 -0.3147 -0.5788  3.0617
13435SOL    HW244863   0.288   5.518   7.591 -0.2707  2.5436 -0.7050
13436SOL     OW44864   1.064   3.557   8.708 -0.4256 -0.3931  0.2849
13436SOL    HW144865   1.096   3.607   8.783  1.0590 -0.2701 -0.3873
13436SOL    HW244866   0.972   3.582   8.700 -1.0802 -1.5700  2.9573
13437SOL     OW44867   7.083  10.272   4.827  0.4682  0.3266  0.1528
13437SOL    HW144868   7.110  10.269   4.735  1.3069 -0.8571  0.4187
13437SOL    HW244869   7.160  10.305   4.874  0.8438 -1.2403  0.6889
13438SOL     OW44870   9.429   8.216   6.531 -0.3523  0.1560 -0.2512
13438SOL    HW144871   9.433   8.207   6.626  2.0969 -3.1320 -0.4887
13438SOL    HW244872   9.497   8.280   6.510  1.7828 -1.8163  0.1512
13439SOL     OW44873   8.117   1.675  11.684  0.1396 -0.4912 -0.1497
13439SOL    HW144874   8.177   1.703  11.615 -1.5191  0.3887 -1.3097
13439SOL    HW244875   8.095   1.756  11.731  1.4732 -1.1180  1.6519
13440SOL     OW44876  11.257   2.325   9.194 -0.2453  0.5438  0.7319
13440SOL    HW144877  11.226   2.322   9.103  0.1909 -2.4268  0.5783
13440SOL    HW244878  11.339   2.277   9.193 -0.7830 -0.5581  2.8661
13441SOL     OW44879   1.530   5.629   9.862 -0.3669 -0.2143  0.0545
13441SOL    HW144880   1.485   5.707   9.897  1.3058  1.3706 -1.1050
13441SOL    HW244881   1.559   5.581   9.939 -0.3367  0.9915  0.8234
13442SOL     OW44882   7.369   1.723   5.774 -0.5372 -0.1651  0.2866
13442SOL    HW144883   7.445   1.778   5.753 -1.1217  0.3806 -0.4804
13442SOL    HW244884   7.367   1.719   5.869  0.7248 -0.5795  0.3154
13443SOL     OW44885   4.258   3.168   0.207 -0.5330 -0.1188  0.0741
13443SOL    HW144886   4.247   3.188   0.113  2.3917 -0.1233 -0.3525
13443SOL    HW244887   4.250   3.253   0.250 -0.6130  0.0836 -0.3339
13444SOL     OW44888  11.804   2.562   5.047  0.2870 -0.0867 -0.1332
13444SOL    HW144889  11.850   2.534   4.968 -2.0980  0.4417 -1.8055
13444SOL    HW244890  11.722   2.599   5.016 -1.1288 -0.5784  2.6552
13445SOL     OW44891   7.260   7.354   0.947  0.4256 -0.5792 -0.0285
13445SOL    HW144892   7.350   7.360   0.977  0.7435 -0.9599 -0.8759
13445SOL    HW244893   7.208   7.349   1.027  0.9646  1.8667  0.5404
13446SOL     OW44894  10.851  10.506   0.057  0.1856  0.3407 -0.4963
13446SOL    HW144895  10.793  10.562   0.005  0.8890  0.6719 -0.9233
13446SOL    HW244896  10.933  10.503   0.008  0.5463 -0.1060  0.1213
13447SOL     OW44897   4.666   3.966   0.281 -0.7586  0.2194 -0.1116
13447SOL    HW144898   4.705   3.879   0.270 -0.6343  0.2836 -0.1827
13447SOL    HW244899   4.739   4.026   0.268 -0.2308  0.2654  2.5193
13448SOL     OW44900   8.144   1.086   4.616 -0.5340 -0.0394 -0.0007
13448SOL    HW144901   8.162   1.084   4.522 -0.2472 -0.9985  0.0622
13448SOL    HW244902   8.072   1.024   4.628  0.0196 -0.6027  0.5171
13449SOL     OW44903  10.753   1.891   0.444  0.0351  0.6139 -0.1254
13449SOL    HW144904  10.687   1.915   0.510  0.0942  1.9909 -0.5209
13449SOL    HW244905  10.781   1.975   0.408  0.9871 -0.0437 -0.9611
13450SOL     OW44906   7.294   0.459   1.543 -0.7057  0.2603 -0.1667
13450SOL    HW144907   7.300   0.550   1.516 -0.0661  0.2428 -0.1121
13450SOL    HW244908   7.364   0.415   1.495  1.5761  0.5277  2.5699
13451SOL     OW44909  10.963   5.024   0.881  0.2377  0.1850 -0.3761
13451SOL    HW144910  10.916   5.074   0.948 -0.4666  0.0826 -0.7833
13451SOL    HW244911  11.019   5.089   0.838 -1.5007  0.9051 -1.6630
13452SOL     OW44912  11.131  10.107   4.007  0.0131 -0.4841 -0.5962
13452SOL    HW144913  11.191  10.173   3.975 -0.3681 -0.4658 -1.2915
13452SOL    HW244914  11.047  10.152   4.015 -0.7414 -1.3153 -2.9986
13453SOL     OW44915   5.555   8.074   7.480 -0.0972  0.2530 -0.0397
13453SOL    HW144916   5.499   8.150   7.496  1.3687  1.4552 -0.3865
13453SOL    HW244917   5.644   8.106   7.496  0.5395 -1.4971  0.1566
13454SOL     OW44918   1.753   8.729  10.099  0.4832 -0.2032 -0.4475
13454SOL    HW144919   1.743   8.648  10.048  0.0539 -0.8996  0.6878
13454SOL    HW244920   1.673   8.734  10.151  1.5590 -0.3504  1.2840
13455SOL     OW44921   6.968   0.214   4.491  0.2329 -0.2085  0.0543
13455SOL    HW144922   6.929   0.288   4.445 -1.3941 -0.5051  0.8887
13455SOL    HW244923   7.052   0.200   4.447  1.3226  3.0555  0.7880
13456SOL     OW44924   0.557   8.646   6.959 -0.2838  0.0321 -0.4910
13456SOL    HW144925   0.477   8.660   7.009 -0.6538 -0.9077 -0.7967
13456SOL    HW244926   0.527   8.640   6.868  0.0888 -0.6371 -0.5758
13457SOL     OW44927   3.101   2.813   3.861  0.1356  0.2689 -0.1139
13457SOL    HW144928   3.091   2.781   3.951 -1.5999 -0.0876 -0.3989
13457SOL    HW244929   3.194   2.799   3.841  0.5538  0.3850  1.6201
13458SOL     OW44930   0.400   6.450  10.300  0.1332 -0.3272  0.9772
13458SOL    HW144931   0.374   6.501  10.224  0.0769  1.3147  2.0468
13458SOL    HW244932   0.395   6.359  10.271 -0.4773  0.2311 -0.7780
13459SOL     OW44933   7.244   2.984   3.838 -0.1148 -0.0663  0.3307
13459SOL    HW144934   7.223   3.047   3.769  1.7454  0.9982  0.6521
13459SOL    HW244935   7.215   2.900   3.804  1.9706  0.1838 -2.4381
13460SOL     OW44936  10.850   0.417   6.111  0.8233 -0.4548 -0.7898
13460SOL    HW144937  10.793   0.359   6.161  0.2744  0.5867 -0.1901
13460SOL    HW244938  10.907   0.457   6.176  0.9883 -0.0905 -1.1575
13461SOL     OW44939   9.922   1.515  12.028  0.4464 -0.1318 -0.2611
13461SOL    HW144940   9.990   1.474  11.974  1.1058 -0.3841  0.7297
13461SOL    HW244941   9.862   1.443  12.050  0.1687 -0.0256 -0.6526
13462SOL     OW44942   2.665   8.560  11.623  0.2739  0.0238 -0.1190
13462SOL    HW144943   2.606   8.577  11.549  0.7719 -0.7486 -0.7078
13462SOL    HW244944   2.609   8.522  11.690 -0.3044  1.2807  0.1505
13463SOL     OW44945   1.696   2.605  10.597 -0.1204  0.0126 -0.1270
13463SOL    HW144946   1.614   2.616  10.645 -0.0347  0.6244 -0.1100
13463SOL    HW244947   1.723   2.694  10.575  1.8533  0.0520  2.0529
13464SOL     OW44948   5.660   3.293   3.227 -0.1876  0.8400 -0.4078
13464SOL    HW144949   5.731   3.354   3.205 -0.9131  2.4319  1.4124
13464SOL    HW244950   5.615   3.334   3.300 -1.5862 -1.2662 -0.0095
13465SOL     OW44951   2.223   6.706   5.479  0.1968 -0.9570  0.3073
13465SOL    HW144952   2.191   6.793   5.504 -0.5646 -0.9147 -0.7825
13465SOL    HW244953   2.304   6.724   5.431  0.2229 -0.8808  0.3785
13466SOL     OW44954   4.784   0.927   6.312 -0.0474  0.2423  0.0761
13466SOL    HW144955   4.713   0.870   6.344 -0.6973  0.0461 -1.6156
13466SOL    HW244956   4.849   0.867   6.276  0.0731  0.4986 -0.1366
13467SOL     OW44957   8.632   3.281   4.041 -0.3324  0.1774  0.1055
13467SOL    HW144958   8.553   3.231   4.021 -0.2622 -0.5264  1.4976
13467SOL    HW244959   8.704   3.220   4.027 -0.0725  0.5856 -0.4034
13468SOL     OW44960  10.337   3.032   7.726 -0.2505  0.0271 -0.0326
13468SOL    HW144961  10.290   2.950   7.710 -0.0045 -0.6481  2.2917
13468SOL    HW244962  10.276   3.100   7.698 -0.9488 -0.9197 -0.8765
13469SOL     OW44963   7.622   9.262  10.919  0.1867  0.5062 -0.4076
13469SOL    HW144964   7.631   9.167  10.917  0.2872  0.4971  0.3448
13469SOL    HW244965   7.711   9.296  10.910  0.1697  0.5281 -0.4975
13470SOL     OW44966  10.473   1.964   1.609  0.2893  0.1928 -0.3507
13470SOL    HW144967  10.489   2.057   1.590  1.0225  0.1661  0.0858
13470SOL    HW244968  10.492   1.955   1.702  0.3666 -0.4293 -0.4226
13471SOL     OW44969   3.173   4.036   8.021 -0.3873 -0.3111  1.1799
13471SOL    HW144970   3.224   4.066   8.097  0.2986  0.5797  0.3923
13471SOL    HW244971   3.147   4.117   7.977  0.2109 -0.8356 -0.1744
13472SOL     OW44972   0.919  11.140  11.391  0.3804  0.0868 -0.3187
13472SOL    HW144973   0.837  11.104  11.425 -0.3094  0.7809 -1.1636
13472SOL    HW244974   0.923  11.109  11.301  1.0893  0.0070 -0.2616
13473SOL     OW44975   5.619   7.222   7.496 -0.6417 -0.3342 -0.1310
13473SOL    HW144976   5.578   7.210   7.410  2.1770  0.3695 -1.7001
13473SOL    HW244977   5.619   7.134   7.534 -3.1395 -0.4321 -0.1873
13474SOL     OW44978   3.924   2.714  10.961 -0.0914  0.4111 -0.0557
13474SOL    HW144979   3.848   2.743  10.910  0.3697  0.3462 -0.7972
13474SOL    HW244980   3.994   2.707  10.897 -0.0160 -1.7755  0.1907
13475SOL     OW44981   4.237   3.875  10.758  0.3263 -0.2487  0.1567
13475SOL    HW144982   4.213   3.812  10.826  0.6310 -0.6205 -0.0775
13475SOL    HW244983   4.173   3.860  10.688 -0.6959  0.9033  0.8062
13476SOL     OW44984   1.388   1.951   6.009 -0.5965  0.2334  0.1583
13476SOL    HW144985   1.330   1.943   5.933 -0.7763 -0.9581  0.3877
13476SOL    HW244986   1.342   1.905   6.079 -0.4267  1.3071  0.9982
13477SOL     OW44987   9.242   1.170   1.436 -0.2996 -0.4347  0.2125
13477SOL    HW144988   9.328   1.167   1.478  0.2252 -1.9568 -0.9174
13477SOL    HW244989   9.185   1.211   1.502  1.3293  0.9061  0.8562
13478SOL     OW44990   1.556   4.639   6.060  0.1162 -0.9547  0.6065
13478SOL    HW144991   1.598   4.723   6.075 -1.1622 -0.5713  2.4630
13478SOL    HW244992   1.616   4.591   6.002  0.8186  1.2287 -0.5703
13479SOL     OW44993   1.875  10.020   4.494  0.3181 -0.2312 -1.1089
13479SOL    HW144994   1.854  10.099   4.445 -0.6044 -0.8229 -1.6896
13479SOL    HW244995   1.941   9.975   4.441 -0.2744 -0.5974 -1.5427
13480SOL     OW44996   9.408   3.761   9.399  0.1080  0.2117  0.8494
13480SOL    HW144997   9.377   3.744   9.310  1.0058  1.9701  0.1650
13480SOL    HW244998   9.450   3.847   9.395  1.2085 -0.1706  2.7198
13481SOL     OW44999   1.344  12.112   5.379 -1.0679 -0.3859  0.1768
13481SOL    HW145000   1.366  12.033   5.330  0.3000 -0.1345  0.3341
13481SOL    HW245001   1.331  12.082   5.468  2.0036 -0.2160  0.8208
13482SOL     OW45002   6.820   0.974   0.444  0.1208  0.3570  0.3442
13482SOL    HW145003   6.910   0.941   0.446 -0.0722 -0.1773  0.3801
13482SOL    HW245004   6.783   0.937   0.364  0.1338  1.1178 -0.0147
13483SOL     OW45005   7.624   3.240  11.244 -0.1386  0.1184  0.4727
13483SOL    HW145006   7.662   3.184  11.176  0.0808  2.5624 -1.5718
13483SOL    HW245007   7.699   3.271  11.294 -0.0428  0.2222  0.2681
13484SOL     OW45008  11.379   2.750  11.047 -0.0034 -0.1884  0.1894
13484SOL    HW145009  11.449   2.812  11.028  1.0961 -0.3021  3.3025
13484SOL    HW245010  11.383   2.686  10.975  0.4581  1.9153 -1.7619
13485SOL     OW45011  10.164  11.378   1.542 -0.5905 -0.1493 -0.0986
13485SOL    HW145012  10.072  11.399   1.526 -1.3952 -1.5193  2.1815
13485SOL    HW245013  10.197  11.452   1.592 -0.9434 -0.3651  0.4671
13486SOL     OW45014   0.228   3.844   1.339  0.0765 -0.2930  0.0422
13486SOL    HW145015   0.167   3.915   1.357  1.1584  0.7461 -0.2674
13486SOL    HW245016   0.175   3.778   1.295 -0.4834  1.3752 -1.9492
13487SOL     OW45017   6.735   5.556   8.641  0.1258  0.0381  0.4079
13487SOL    HW145018   6.776   5.634   8.604  0.2016 -0.2371 -0.0885
13487SOL    HW245019   6.805   5.514   8.691  0.3975 -0.3156 -0.2610
13488SOL     OW45020   3.418   1.952  10.602  0.5524  0.0968  0.2950
13488SOL    HW145021   3.434   1.863  10.570  2.5243  1.0099 -1.4651
13488SOL    HW245022   3.473   2.008  10.547 -0.7702  2.4510  1.2253
13489SOL     OW45023   4.308   2.896  11.292  0.7435  0.6915  0.0734
13489SOL    HW145024   4.401   2.919  11.294  0.5966  1.4649 -1.0692
13489SOL    HW245025   4.272   2.946  11.219  0.0876 -2.1052 -1.6784
13490SOL     OW45026   9.258   0.894   3.326  0.0417  0.3762 -0.7044
13490SOL    HW145027   9.178   0.947   3.322 -0.7547 -0.7725 -0.6659
13490SOL    HW245028   9.327   0.951   3.292 -0.5817  1.7710  0.2710
13491SOL     OW45029   8.187   2.322   4.680  0.2807 -0.4399  0.3498
13491SOL    HW145030   8.092   2.331   4.687  0.2525 -0.3174 -0.1422
13491SOL    HW245031   8.207   2.344   4.589  0.5641 -2.4116 -0.0924
13492SOL     OW45032  10.227  12.082   9.319  0.8601  0.0421 -0.5800
13492SOL    HW145033  10.198  12.000   9.358  1.2705  0.0345 -0.2826
13492SOL    HW245034  10.236  12.063   9.226 -0.3329  0.1195 -0.7192
13493SOL     OW45035  11.832   5.471   9.906  0.2560  0.5406  0.0428
13493SOL    HW145036  11.851   5.563   9.884 -1.6091  0.9720  0.0948
13493SOL    HW245037  11.813   5.473   9.999 -1.0061  0.3301 -0.1971
13494SOL     OW45038   8.129   8.015   2.216  0.5940 -0.1350 -0.4445
13494SOL    HW145039   8.059   8.033   2.279  2.3832  0.6299  1.4594
13494SOL    HW245040   8.084   8.001   2.133 -1.7580  0.8675  0.5681
13495SOL     OW45041   9.252   1.498   4.199  0.0418 -0.0076 -0.3607
13495SOL    HW145042   9.310   1.555   4.250 -1.0283  0.4037  0.4317
13495SOL    HW245043   9.309   1.430   4.164  1.3058  1.3651 -1.0568
13496SOL     OW45044  11.129   6.808   1.911  0.3389  0.0599 -0.5718
13496SOL    HW145045  11.119   6.859   1.991 -1.7711  0.3519 -0.9490
13496SOL    HW245046  11.053   6.749   1.911  0.3202  0.0435 -2.3273
13497SOL     OW45047   9.639   0.346   3.920 -0.2788  0.0689 -0.1003
13497SOL    HW145048   9.584   0.284   3.968  1.1887 -1.7076 -0.5863
13497SOL    HW245049   9.615   0.334   3.828  0.9638 -0.8632 -0.3390
13498SOL     OW45050   3.839   2.795   3.157 -0.5160 -0.1151 -0.4522
13498SOL    HW145051   3.781   2.740   3.209  0.6278 -1.3297 -0.4130
13498SOL    HW245052   3.874   2.859   3.220 -0.0792 -0.8089  0.0230
13499SOL     OW45053   6.183   5.239   1.154 -0.1146  0.0539 -0.1696
13499SOL    HW145054   6.240   5.169   1.122 -0.2621 -0.0079 -0.2983
13499SOL    HW245055   6.217   5.259   1.241 -1.0347 -1.2737  0.5318
13500SOL     OW45056   0.098   1.363   3.958  0.0105 -0.0936 -0.1071
13500SOL    HW145057   0.106   1.269   3.973 -0.6105 -0.0967  0.2672
13500SOL    HW245058   0.153   1.403   4.025 -3.6723 -0.0715  3.2726
13501SOL     OW45059   1.308   1.636   4.194  0.3173 -0.1019  0.1295
13501SOL    HW145060   1.251   1.700   4.237  0.4162  0.6521 -0.8207
13501SOL    HW245061   1.257   1.555   4.194  0.4660 -0.2215  1.9635
13502SOL     OW45062  10.888   6.173   0.484 -0.1567  0.3617 -0.3242
13502SOL    HW145063  10.798   6.193   0.509 -0.1483  0.1957 -0.1595
13502SOL    HW245064  10.896   6.208   0.395 -0.8018 -0.8263 -0.8819
13503SOL     OW45065   4.422   8.949   3.255  0.1701 -0.3172  0.5184
13503SOL    HW145066   4.331   8.925   3.235  0.6960 -0.0251 -2.8466
13503SOL    HW245067   4.451   8.882   3.317 -1.5041 -2.1567 -0.5637
13504SOL     OW45068   0.175   6.022   3.668 -0.0636 -0.1865 -0.3323
13504SOL    HW145069   0.097   6.076   3.655  0.0427 -0.3800 -1.8482
13504SOL    HW245070   0.146   5.932   3.652  0.0945 -0.4603  0.7881
13505SOL     OW45071   6.077   1.407   8.280 -0.3928  0.7787  0.1352
13505SOL    HW145072   6.101   1.339   8.343  0.0384 -0.3739 -1.2276
13505SOL    HW245073   5.992   1.378   8.245  0.2079  0.4387 -1.0955
13506SOL     OW45074   0.067   6.807   0.524  0.4840 -0.3915 -0.0042
13506SOL    HW145075   0.106   6.721   0.543  0.8012 -0.2786 -0.1438
13506SOL    HW245076   0.100   6.864   0.593  1.1354 -0.1283 -0.5287
13507SOL     OW45077  10.101   5.508  10.495 -0.0644 -0.3505  0.6748
13507SOL    HW145078  10.108   5.424  10.449 -1.5297  0.2316 -0.7445
13507SOL    HW245079  10.034   5.492  10.562 -1.0242 -0.1062 -0.1989
13508SOL     OW45080   8.980   2.089  11.528 -0.5515 -0.1529 -0.2089
13508SOL    HW145081   9.072   2.093  11.552 -0.6938 -0.0593  0.3374
13508SOL    HW245082   8.980   2.066  11.435  0.0093 -0.6658 -0.0870
13509SOL     OW45083  10.940   5.441  10.677 -0.0689 -0.3255  0.2836
13509SOL    HW145084  10.986   5.365  10.714  1.6545  0.8752  0.7304
13509SOL    HW245085  10.849   5.412  10.669  0.4045 -2.2039  1.0667
13510SOL     OW45086   6.424   6.699  11.224 -0.0401  0.1039 -0.1192
13510SOL    HW145087   6.390   6.650  11.149  0.2500 -0.0930 -0.1224
13510SOL    HW245088   6.348   6.709  11.282  0.4833 -2.9023  1.2696
13511SOL     OW45089   8.073   4.528   0.060 -0.5474  0.2662 -0.0222
13511SOL    HW145090   8.122   4.485  -0.011 -0.1786 -0.9949  0.9479
13511SOL    HW245091   7.986   4.542   0.023 -0.0911  0.5472 -1.0496
13512SOL     OW45092   8.306   6.853   9.383 -0.1619  0.0921 -0.2551
13512SOL    HW145093   8.252   6.860   9.304 -0.1606  0.7242 -0.2088
13512SOL    HW245094   8.395   6.846   9.350 -0.0509  1.4831 -0.3128
13513SOL     OW45095   4.700   4.485   6.940  0.0984 -0.0710 -0.2001
13513SOL    HW145096   4.779   4.529   6.910  0.7138 -1.0986 -0.1493
13513SOL    HW245097   4.636   4.555   6.952  1.5731  1.0561  1.6197
13514SOL     OW45098   5.909  11.195   9.457  0.3841 -0.0577  0.2007
13514SOL    HW145099   5.826  11.241   9.443 -0.4815 -1.1283  1.5211
13514SOL    HW245100   5.975  11.253   9.419 -0.9772  0.7154 -1.1009
13515SOL     OW45101   8.810   8.871   1.360  0.0512 -0.0671 -0.3868
13515SOL    HW145102   8.786   8.783   1.330  0.1705 -0.1434 -0.2586
13515SOL    HW245103   8.737   8.926   1.332  0.2179 -0.1143 -0.9288
13516SOL     OW45104  10.164   6.292   3.064 -0.5778  0.0396 -0.2943
13516SOL    HW145105  10.079   6.248   3.069 -0.0530 -1.0599 -0.6393
13516SOL    HW245106  10.207   6.252   2.988  0.0607  0.9252 -0.4185
13517SOL     OW45107   2.748   4.031   4.855 -0.1473 -0.4324 -0.4273
13517SOL    HW145108   2.828   3.982   4.871 -0.2375 -0.5566 -0.3595
13517SOL    HW245109   2.778   4.121   4.842 -0.1147 -0.2131  1.0057
13518SOL     OW45110   9.813  11.760   6.239 -0.0887  0.1179 -0.4283
13518SOL    HW145111   9.817  11.803   6.324  0.5711 -0.5737 -0.0951
13518SOL    HW245112   9.890  11.702   6.237 -0.7613 -0.7976 -0.9858
13519SOL     OW45113   0.497   3.767   6.291 -1.1080  0.0021 -0.1713
13519SOL    HW145114   0.526   3.731   6.375  0.8542 -0.4450 -0.9672
13519SOL    HW245115   0.492   3.861   6.305 -1.1779 -0.0996  0.5351
13520SOL     OW45116  11.696   4.002   6.111  0.7527  0.4833 -0.3901
13520SOL    HW145117  11.614   3.992   6.062  1.1032 -1.9772 -0.5944
13520SOL    HW245118  11.757   4.039   6.048 -0.1581  2.5333 -0.1871
13521SOL     OW45119   2.081   4.249   6.316  0.2848  0.3203 -0.1314
13521SOL    HW145120   2.129   4.328   6.339 -0.2798  1.0273 -1.2872
13521SOL    HW245121   2.131   4.178   6.357  0.7607  1.2563  0.9903
13522SOL     OW45122   1.507  11.096   3.423  0.2396 -0.0783 -0.0831
13522SOL    HW145123   1.499  11.189   3.404  2.3758  0.1188 -0.2018
13522SOL    HW245124   1.514  11.054   3.338  3.1930  0.1177 -0.0281
13523SOL     OW45125  10.616   3.805   8.382  0.6803  0.5450 -0.2370
13523SOL    HW145126  10.691   3.747   8.392  0.0533  0.0078  1.9612
13523SOL    HW245127  10.545   3.747   8.353  0.3737  0.4171  0.7206
13524SOL     OW45128   1.436   3.003   5.032 -0.0701 -0.0390  0.3351
13524SOL    HW145129   1.451   3.043   5.118 -0.2627  1.2461 -0.2009
13524SOL    HW245130   1.351   2.961   5.039 -0.1817  0.2509  0.7036
13525SOL     OW45131   5.326   3.111  12.020 -0.1750  0.4417  0.3898
13525SOL    HW145132   5.326   3.178  11.952 -2.4410  0.7242  0.6122
13525SOL    HW245133   5.238   3.112  12.055  0.6261 -0.5056  2.5768
13526SOL     OW45134   0.191  10.591   2.469  0.4915  0.4818 -0.6269
13526SOL    HW145135   0.277  10.591   2.428  2.2700 -0.7225  2.7271
13526SOL    HW245136   0.187  10.508   2.517 -1.1794  1.8721  1.8748
13527SOL     OW45137   1.735   2.918   2.558 -0.0215 -0.4559 -0.9899
13527SOL    HW145138   1.765   3.009   2.551 -1.0254  0.0377  0.6029
13527SOL    HW245139   1.664   2.912   2.494 -1.6260  0.6740  0.5807
13528SOL     OW45140   7.021  10.789  11.564 -0.0348 -0.1492  0.0792
13528SOL    HW145141   7.061  10.706  11.537 -0.1403 -0.3900  0.6628
13528SOL    HW245142   6.930  10.782  11.536 -0.5151 -1.0017  1.7638
13529SOL     OW45143   9.222   0.789   7.085  0.4200 -0.1612  0.1016
13529SOL    HW145144   9.166   0.779   7.162  0.1802 -0.1474 -0.0709
13529SOL    HW245145   9.295   0.843   7.116 -0.1110  0.5736  0.0958
13530SOL     OW45146   5.899   4.280   6.700 -0.4435  0.0075  0.2256
13530SOL    HW145147   5.986   4.292   6.738 -1.1254 -2.0299  2.6858
13530SOL    HW245148   5.913   4.286   6.605  2.7240 -2.1189  0.4204
13531SOL     OW45149   5.356   2.593  11.076 -0.7186 -0.3307  0.2320
13531SOL    HW145150   5.418   2.599  11.149 -0.0851  0.8354 -0.3560
13531SOL    HW245151   5.280   2.548  11.112  0.2206 -1.2351  1.1508
13532SOL     OW45152   5.245   1.456   7.396  0.2479  0.1257  0.0818
13532SOL    HW145153   5.258   1.485   7.486 -0.5721 -0.9139  0.5647
13532SOL    HW245154   5.284   1.525   7.342 -1.3003  1.9275  1.1488
13533SOL     OW45155   4.215  10.271   1.894 -0.0591  0.6041  0.2322
13533SOL    HW145156   4.268  10.318   1.830  0.7076  0.3966  0.7036
13533SOL    HW245157   4.276  10.210   1.936 -1.0637 -0.9869 -0.5132
13534SOL     OW45158  11.584   3.585   0.156  0.1339 -0.6653  1.0643
13534SOL    HW145159  11.553   3.629   0.077 -1.9489 -1.5554  1.3246
13534SOL    HW245160  11.624   3.504   0.125  1.0532 -0.1425  0.8259
13535SOL     OW45161   9.623   8.391   0.048 -0.3201  0.3316 -0.1642
13535SOL    HW145162   9.688   8.460   0.061  0.6345 -0.7557  1.1459
13535SOL    HW245163   9.608   8.355   0.136 -2.2679  0.1496 -0.5157
13536SOL     OW45164   7.573   3.658   4.468 -0.2274 -0.1963 -0.9274
13536SOL    HW145165   7.544   3.734   4.418 -0.2559 -0.6865 -1.6754
13536SOL    HW245166   7.498   3.638   4.525 -1.1113 -0.9981 -2.3155
13537SOL     OW45167   1.812   4.698  10.681 -0.4629  0.2101  0.3408
13537SOL    HW145168   1.720   4.707  10.705 -0.4595 -0.8090  0.7751
13537SOL    HW245169   1.857   4.686  10.765  0.2671  2.1028  0.2705
13538SOL     OW45170   5.990   0.565   0.793 -0.1984 -0.0838  0.3086
13538SOL    HW145171   6.066   0.603   0.748 -1.7600  1.4768 -1.1167
13538SOL    HW245172   5.980   0.618   0.872 -1.5915  1.7791 -1.0358
13539SOL     OW45173   1.758   0.770  11.977 -0.8468  0.3347  0.0101
13539SOL    HW145174   1.833   0.781  12.036 -0.8134  0.1792 -0.0020
13539SOL    HW245175   1.713   0.854  11.980 -0.8886  0.3026  0.3183
13540SOL     OW45176   8.257   1.561   5.451  0.1208  0.4220 -0.2967
13540SOL    HW145177   8.208   1.482   5.429  2.1250 -0.9307 -0.1656
13540SOL    HW245178   8.190   1.623   5.483 -1.6786 -0.6816 -1.7232
13541SOL     OW45179   8.815   1.582   9.295  0.0260  0.5824  0.0131
13541SOL    HW145180   8.900   1.540   9.310 -0.5552 -0.4254  0.5918
13541SOL    HW245181   8.805   1.641   9.370  0.0687  0.4598  0.1164
13542SOL     OW45182   9.533   8.487   1.195 -0.7216 -0.0024  0.3138
13542SOL    HW145183   9.565   8.454   1.279 -0.0948 -0.2768 -0.0276
13542SOL    HW245184   9.588   8.564   1.177  0.2557 -0.8848 -0.6132
13543SOL     OW45185   4.232   8.482   5.515 -0.3439 -0.8305  0.0905
13543SOL    HW145186   4.206   8.573   5.503  0.0143 -0.4268  2.1317
13543SOL    HW245187   4.323   8.478   5.483  0.5381  0.1679  2.3123
13544SOL     OW45188   9.163   7.590  11.394  0.4816  0.0748  0.9301
13544SOL    HW145189   9.164   7.648  11.470  1.4509 -1.1936  1.9476
13544SOL    HW245190   9.185   7.646  11.320  0.7212  1.1179  1.7712
13545SOL     OW45191   1.913   4.432   5.946 -0.1446 -0.0501  0.6483
13545SOL    HW145192   1.972   4.496   5.985  0.8346 -0.6009  0.1029
13545SOL    HW245193   1.906   4.362   6.010  0.9038 -0.6257  0.1532
13546SOL     OW45194   4.792   1.186   2.952 -0.3906 -0.2445  0.2454
13546SOL    HW145195   4.878   1.229   2.950 -0.4258 -0.1213 -2.5070
13546SOL    HW245196   4.730   1.257   2.938 -0.9109 -0.4792  1.2429
13547SOL     OW45197   5.424   3.499  10.138 -0.5968  0.0990  0.4560
13547SOL    HW145198   5.345   3.521  10.186 -1.1941  1.6811 -1.1657
13547SOL    HW245199   5.438   3.572  10.078  1.9258 -0.2859  0.4608
13548SOL     OW45200   7.294   9.312   0.886 -0.4100 -0.3805 -0.1133
13548SOL    HW145201   7.370   9.307   0.828 -0.1747 -0.2834  0.1871
13548SOL    HW245202   7.220   9.324   0.827 -0.0984  0.4042 -0.3542
13549SOL     OW45203   5.995   5.413   2.869  0.7082  0.0384  0.3362
13549SOL    HW145204   5.944   5.362   2.806  0.1436  2.1984 -1.0988
13549SOL    HW245205   6.019   5.351   2.937 -1.6899 -1.6533 -0.2237
13550SOL     OW45206   3.948   0.518   1.064  0.0557  0.0718  0.1434
13550SOL    HW145207   4.043   0.509   1.072  0.0179  0.4990  1.1146
13550SOL    HW245208   3.925   0.461   0.990  1.1159  0.3032 -0.3754
13551SOL     OW45209  11.225   3.939  11.488 -0.0255 -0.1065 -0.6033
13551SOL    HW145210  11.178   3.934  11.571 -3.4246 -0.0448 -2.3473
13551SOL    HW245211  11.301   3.994  11.506  0.0494 -1.0890  2.6887
13552SOL     OW45212   9.471  12.116  11.657  0.1080 -0.3581  0.3087
13552SOL    HW145213   9.415  12.185  11.692  0.6703  1.0637 -1.4245
13552SOL    HW245214   9.558  12.136  11.691 -0.0001 -1.1512  1.0675
13553SOL     OW45215   1.361   7.659   2.838  0.7112  0.1999  0.3475
13553SOL    HW145216   1.306   7.585   2.812  0.7776  0.2863 -0.0413
13553SOL    HW245217   1.303   7.735   2.830 -0.0704 -0.0246  2.9205
13554SOL     OW45218  11.245   5.272  10.198  0.0116  0.0269  0.0391
13554SOL    HW145219  11.292   5.338  10.146  1.1163 -0.2067  0.7065
13554SOL    HW245220  11.161   5.262  10.154  1.0811 -0.5081 -1.9840
13555SOL     OW45221   6.254   8.784   0.642  0.3461 -0.0661  0.9349
13555SOL    HW145222   6.188   8.853   0.629 -0.1144 -0.3331  1.8268
13555SOL    HW245223   6.232   8.718   0.576 -0.7973 -0.5337  1.7688
13556SOL     OW45224   7.835   1.440   0.007 -0.5785  0.1843  0.4102
13556SOL    HW145225   7.771   1.385   0.053 -0.7060  0.4212  0.5174
13556SOL    HW245226   7.804   1.442  -0.083 -1.4905  1.3933  0.7176
13557SOL     OW45227   6.709   9.730   6.919  0.3251 -0.0017  0.3291
13557SOL    HW145228   6.736   9.664   6.984 -2.0624  0.1002  1.5202
13557SOL    HW245229   6.620   9.704   6.895  0.1490  1.5791 -0.8353
13558SOL     OW45230   1.020   0.713  11.642 -0.1857 -0.1898  0.3864
13558SOL    HW145231   1.069   0.792  11.619  1.9848 -1.6148 -0.1669
13558SOL    HW245232   1.009   0.719  11.737  2.2605 -0.4123  0.7396
13559SOL     OW45233   9.035   3.240   4.658 -0.3905  0.1359  0.1757
13559SOL    HW145234   8.963   3.203   4.608 -1.4876  1.9233  0.3392
13559SOL    HW245235   9.055   3.322   4.613 -0.7735  1.3203  2.0721
13560SOL     OW45236  11.169   4.019   6.298 -0.0563 -0.3504  0.7144
13560SOL    HW145237  11.181   4.023   6.203 -2.0328 -0.8469  0.4056
13560SOL    HW245238  11.120   3.938   6.313 -1.1012  0.4854  1.9883
13561SOL     OW45239   1.183   8.430   3.304  0.3635  0.4930  0.8074
13561SOL    HW145240   1.188   8.468   3.216  2.0949  0.2719  0.7693
13561SOL    HW245241   1.173   8.505   3.362 -1.2477  0.6103  0.4242
13562SOL     OW45242   4.849   1.608   1.677  0.0617  0.0143  0.0801
13562SOL    HW145243   4.804   1.691   1.694  0.8852  0.3234  0.8920
13562SOL    HW245244   4.788   1.557   1.624 -0.0387  1.5347 -1.3238
13563SOL     OW45245   5.498   4.260   5.074 -0.8570 -0.1628  0.8736
13563SOL    HW145246   5.524   4.311   5.151  0.3209 -0.6690  0.8381
13563SOL    HW245247   5.442   4.319   5.024 -0.7717  0.5444  1.5917
13564SOL     OW45248   9.887  10.050   9.014 -0.4504 -0.6601  0.4943
13564SOL    HW145249   9.957  10.114   9.004 -1.4111  0.3892  0.2018
13564SOL    HW245250   9.807  10.100   8.997 -1.1542 -2.3496 -1.6227
13565SOL     OW45251   0.749   9.855   1.750 -0.1023 -0.1537 -0.0397
13565SOL    HW145252   0.776   9.797   1.678  3.4443  0.1157  0.9046
13565SOL    HW245253   0.738   9.941   1.709  2.3851  0.1073 -0.3017
13566SOL     OW45254   3.337  10.853   6.628 -0.3102  0.3667  0.0062
13566SOL    HW145255   3.295  10.793   6.566 -2.2870  1.8025 -0.1631
13566SOL    HW245256   3.300  10.830   6.713  1.7838 -1.0651  0.5908
13567SOL     OW45257   1.893   9.673   1.108  0.1699 -0.2386 -0.1958
13567SOL    HW145258   1.896   9.702   1.199 -0.0684 -0.2163 -0.1944
13567SOL    HW245259   1.966   9.719   1.066  2.6516 -2.9556  0.7518
13568SOL     OW45260   6.509   0.176   8.841  0.6288  0.4633 -0.4660
13568SOL    HW145261   6.488   0.262   8.804  0.4204  0.3546 -0.6035
13568SOL    HW245262   6.478   0.181   8.931  0.1313  0.3528 -0.6289
13569SOL     OW45263  10.813  10.784   4.559 -0.0608  0.6374  0.0790
13569SOL    HW145264  10.874  10.853   4.533 -0.6743  0.8780 -0.7455
13569SOL    HW245265  10.867  10.723   4.610  0.4149  1.8798  1.1214
13570SOL     OW45266   1.792   7.693   4.973  0.7932 -0.1008  0.4231
13570SOL    HW145267   1.783   7.695   5.068  0.8150 -1.5800  0.4793
13570SOL    HW245268   1.859   7.758   4.954  0.4984  0.5088  1.3692
13571SOL     OW45269   3.618   2.298   2.876  0.6428  0.1323  0.2832
13571SOL    HW145270   3.666   2.274   2.797 -0.1278  0.3951 -0.2796
13571SOL    HW245271   3.643   2.389   2.892 -0.1888  0.4956 -0.4159
13572SOL     OW45272   5.832   7.415   5.437  0.1881  0.2827  0.6974
13572SOL    HW145273   5.847   7.323   5.457  1.2444  0.4259  0.5805
13572SOL    HW245274   5.749   7.436   5.482 -0.4770 -0.9157  0.0765
13573SOL     OW45275   5.901   5.912   4.314 -0.2075 -0.3006 -0.0621
13573SOL    HW145276   5.938   5.855   4.247 -0.7144 -0.2864 -0.3575
13573SOL    HW245277   5.970   5.976   4.332 -0.3918  0.2383 -1.2146
13574SOL     OW45278   9.871   3.290   7.091 -0.0720  0.1451 -0.0487
13574SOL    HW145279   9.778   3.265   7.096  0.6452 -2.6738  1.2452
13574SOL    HW245280   9.887   3.302   6.997 -0.9607 -3.1762 -0.7554
13575SOL     OW45281   8.195   3.915  10.853  0.3255 -0.2647  0.0178
13575SOL    HW145282   8.237   3.907  10.938  0.3661 -1.2517 -0.0869
13575SOL    HW245283   8.108   3.875  10.865 -1.1669  2.8575  0.5864
13576SOL     OW45284   4.188   4.109  11.284  0.5384  0.0055  0.3886
13576SOL    HW145285   4.231   4.163  11.218  0.9277  1.1693  1.5527
13576SOL    HW245286   4.207   4.152  11.367 -0.8838 -0.7847  1.1737
13577SOL     OW45287  10.658   9.326   4.550  0.0447 -1.0034 -0.3976
13577SOL    HW145288  10.664   9.311   4.644 -1.3267 -0.8700 -0.2633
13577SOL    HW245289  10.630   9.417   4.542 -0.1213 -1.0973 -0.9207
13578SOL     OW45290   6.129   0.993   5.067 -0.1715 -0.3974  0.6630
13578SOL    HW145291   6.045   0.974   5.110  0.5874 -2.9222  1.1838
13578SOL    HW245292   6.116   0.965   4.976 -0.5619  1.3463  0.1480
13579SOL     OW45293  10.124   7.977  12.000 -0.5183  0.1341 -0.6601
13579SOL    HW145294  10.201   7.930  11.966  1.2911  1.9738  0.6622
13579SOL    HW245295  10.101   7.930  12.080 -1.0186 -0.6201 -1.2317
13580SOL     OW45296   0.473   5.800   5.352  0.2515  0.3617 -0.0453
13580SOL    HW145297   0.491   5.752   5.433  0.6984 -0.1649 -0.4498
13580SOL    HW245298   0.465   5.731   5.286 -1.5331  0.6885 -0.2042
13581SOL     OW45299   1.318   0.064   4.577 -0.4561  0.0185  0.1577
13581SOL    HW145300   1.256   0.032   4.511 -1.4702 -0.0429  1.1082
13581SOL    HW245301   1.265   0.077   4.656  0.5070  1.1819  0.6526
13582SOL     OW45302   2.156   2.722  10.648  0.3598 -0.4011 -0.3109
13582SOL    HW145303   2.138   2.810  10.615  0.3593 -0.3513 -0.1762
13582SOL    HW245304   2.151   2.730  10.743  0.6180 -0.4906 -0.2878
13583SOL     OW45305   7.249  11.636   6.496 -0.4720 -0.0928 -0.2792
13583SOL    HW145306   7.252  11.599   6.584  4.0529  0.7092  0.1248
13583SOL    HW245307   7.311  11.584   6.446 -1.8875  0.3842 -2.6789
13584SOL     OW45308  12.068  12.100   5.862 -0.5369  0.1461  0.2343
13584SOL    HW145309  12.091  12.167   5.797 -0.2546 -1.1558 -1.0851
13584SOL    HW245310  12.105  12.132   5.944  1.5067  0.6006 -0.7932
13585SOL     OW45311   5.829   2.536   7.637  0.2837 -0.1913  0.1601
13585SOL    HW145312   5.836   2.467   7.703 -0.4145  0.1828  0.6328
13585SOL    HW245313   5.761   2.594   7.669  0.0092  0.0672 -0.8397
13586SOL     OW45314   9.040  10.132  10.159  0.2558  0.0879  0.0495
13586SOL    HW145315   8.960  10.183  10.170  1.0549  1.1204  1.4385
13586SOL    HW245316   9.019  10.046  10.195  0.3355  0.9783  2.4168
13587SOL     OW45317   9.233   4.099   7.801 -0.3738  0.1268 -0.5286
13587SOL    HW145318   9.286   4.176   7.779  0.2462  0.4586  1.7954
13587SOL    HW245319   9.153   4.110   7.750  0.4264  1.3706 -1.6019
13588SOL     OW45320   6.102   2.948  10.699 -0.3341  0.0284  0.3291
13588SOL    HW145321   6.123   3.041  10.693  0.1137 -0.0287  0.9307
13588SOL    HW245322   6.118   2.925  10.790  0.6826 -0.9060 -0.0637
13589SOL     OW45323  10.016   9.468  11.232 -0.0171 -0.3327  0.2187
13589SOL    HW145324   9.946   9.491  11.293  0.0272 -1.2899  0.6580
13589SOL    HW245325   9.981   9.488  11.145  0.6220  2.8799  0.6076
13590SOL     OW45326   8.514   0.638   3.084 -0.4157 -0.0996 -0.0645
13590SOL    HW145327   8.548   0.727   3.090 -0.1864 -0.0753 -1.4234
13590SOL    HW245328   8.573   0.586   3.139 -0.1949  0.4892  0.2588
13591SOL     OW45329   3.730   9.080   7.781 -0.1074 -0.0232 -0.2105
13591SOL    HW145330   3.682   9.161   7.769  1.6308  0.8278 -1.8190
13591SOL    HW245331   3.674   9.012   7.742 -0.1379  0.8955 -1.8162
13592SOL     OW45332   8.885   4.064   3.098 -0.4220  0.3222  0.1387
13592SOL    HW145333   8.845   4.014   3.026  2.4191 -0.6305 -0.9284
13592SOL    HW245334   8.935   3.999   3.147 -0.2514  1.4122  1.4626
13593SOL     OW45335   6.975   8.056   0.518 -0.1105  0.2891  0.8331
13593SOL    HW145336   7.034   8.041   0.592  0.1657  2.1436  1.0347
13593SOL    HW245337   7.001   7.991   0.453  2.4458  1.2892  0.7587
13594SOL     OW45338   1.075   9.394   1.900  0.5458  0.1517  0.1118
13594SOL    HW145339   1.085   9.401   1.995  0.1944 -0.1137  0.1720
13594SOL    HW245340   1.096   9.481   1.867  3.1644 -0.3761  0.1922
13595SOL     OW45341  11.684   4.596   0.312 -0.0757  0.2420  0.0826
13595SOL    HW145342  11.699   4.574   0.404 -0.0969  2.4884  0.6793
13595SOL    HW245343  11.709   4.688   0.306  0.5909 -0.0399 -2.3375
13596SOL     OW45344  11.816   0.497  11.901 -0.2238  0.1374  0.4765
13596SOL    HW145345  11.889   0.436  11.894  0.1329  0.6582 -0.4473
13596SOL    HW245346  11.745   0.456  11.854 -0.1173  0.2330  0.2314
13597SOL     OW45347   4.290  11.747   7.562  0.0975  0.4315  0.2112
13597SOL    HW145348   4.223  11.728   7.628  0.4177 -0.3889  0.3214
13597SOL    HW245349   4.362  11.687   7.584 -0.2388 -0.7077 -1.5547
13598SOL     OW45350   1.901   1.632   6.590 -0.2598 -0.0106 -0.7684
13598SOL    HW145351   1.817   1.593   6.568 -0.2989 -0.6162  0.3729
13598SOL    HW245352   1.931   1.583   6.667  0.3179  1.3209 -0.1067
13599SOL     OW45353   2.102   5.146   2.323 -0.0651 -0.1837 -0.3320
13599SOL    HW145354   2.122   5.053   2.327  0.3202 -0.1972 -1.8819
13599SOL    HW245355   2.037   5.160   2.392  1.3499 -1.1866  1.2735
13600SOL     OW45356   1.644   5.279   1.607 -0.9783 -0.0557  0.4412
13600SOL    HW145357   1.676   5.218   1.541 -2.2919  0.9824 -1.2498
13600SOL    HW245358   1.593   5.225   1.667 -1.7258 -0.7324 -0.7580
13601SOL     OW45359   8.476   3.878   9.688 -0.0911 -0.0621 -0.1070
13601SOL    HW145360   8.446   3.790   9.710  2.4785 -1.0554 -0.2271
13601SOL    HW245361   8.533   3.903   9.761 -0.0262  1.0934 -0.5296
13602SOL     OW45362  10.044  12.127  12.026  0.6868 -0.2789 -0.2495
13602SOL    HW145363  10.001  12.092  11.948 -0.0674  0.4068 -0.1584
13602SOL    HW245364   9.995  12.206  12.047  2.2187  0.7359 -0.3316
13603SOL     OW45365   7.483   9.736  11.579  0.3218 -0.5801 -0.1409
13603SOL    HW145366   7.563   9.728  11.528  1.0216 -2.2946  1.1413
13603SOL    HW245367   7.419   9.684  11.531  0.4420 -0.6050 -0.2731
13604SOL     OW45368   0.406   3.400   6.965  0.0894 -0.7224  0.2061
13604SOL    HW145369   0.436   3.429   6.879 -0.2712 -1.9899 -0.3742
13604SOL    HW245370   0.472   3.434   7.026  0.2013  0.4132 -0.5340
13605SOL     OW45371   4.790   6.471   8.113  0.0799 -0.1990  0.1290
13605SOL    HW145372   4.882   6.447   8.111 -0.0448 -0.6337 -1.0287
13605SOL    HW245373   4.753   6.418   8.184  0.6126 -0.4073  0.2545
13606SOL     OW45374   7.642  11.474   5.341  0.2424  0.1509 -0.6889
13606SOL    HW145375   7.602  11.546   5.292 -0.3620  0.5188  0.3324
13606SOL    HW245376   7.568  11.425   5.376  0.6689 -0.1923 -0.2619
13607SOL     OW45377   8.732  11.525   2.302 -0.4215 -0.3189 -0.3539
13607SOL    HW145378   8.658  11.525   2.363 -0.7766  0.5739 -0.7558
13607SOL    HW245379   8.758  11.433   2.295  1.1657 -0.2926  2.9342
13608SOL     OW45380   0.505   3.996   4.628  0.0474 -0.5180  0.1511
13608SOL    HW145381   0.556   4.007   4.708 -0.5806  0.2052  0.4606
13608SOL    HW245382   0.430   4.054   4.639  0.2986  0.1176 -1.2498
13609SOL     OW45383  10.652   4.255   0.394 -0.1397 -0.5704 -0.2212
13609SOL    HW145384  10.566   4.249   0.352 -1.2239  2.3425  1.2999
13609SOL    HW245385  10.635   4.238   0.486  0.9697 -0.2058  0.0673
13610SOL     OW45386   6.791   5.627  10.044 -0.0129 -0.6107  0.1340
13610SOL    HW145387   6.866   5.683  10.026 -1.0992  0.8206 -0.1391
13610SOL    HW245388   6.828   5.551  10.089  1.4590  0.5359  0.9581
13611SOL     OW45389   4.152   0.371   0.892 -0.7950 -0.1840  0.2304
13611SOL    HW145390   4.242   0.399   0.906 -0.1221 -1.6448 -0.9234
13611SOL    HW245391   4.150   0.280   0.923 -0.9370 -1.3007 -2.7120
13612SOL     OW45392   9.271   6.312   0.762 -0.1993  0.2852  0.0696
13612SOL    HW145393   9.254   6.368   0.686  1.8541  0.7881 -0.0893
13612SOL    HW245394   9.284   6.372   0.834 -0.0249 -0.0869  0.3541
13613SOL     OW45395   2.379   1.535   7.895  0.1883  0.4958  0.1022
13613SOL    HW145396   2.472   1.538   7.872 -0.2208 -0.3994 -1.8225
13613SOL    HW245397   2.373   1.464   7.959  0.7978  0.4692  0.1409
13614SOL     OW45398   9.718   5.463   2.474 -0.6247 -0.4771 -0.0476
13614SOL    HW145399   9.765   5.525   2.529 -0.7284 -1.8056  1.6077
13614SOL    HW245400   9.759   5.472   2.388  0.4759  0.6708  0.5663
13615SOL     OW45401   7.923  10.537   1.867 -0.3763 -0.0680 -0.7961
13615SOL    HW145402   8.003  10.499   1.830  0.0867  0.1787 -0.0599
13615SOL    HW245403   7.927  10.630   1.842 -0.5818 -0.1125 -1.0031
13616SOL     OW45404  12.053   1.826  12.027 -0.5554 -0.5874  0.5679
13616SOL    HW145405  12.044   1.905  12.080  2.1723 -0.3602  0.8746
13616SOL    HW245406  12.145   1.828  11.998 -0.9469 -2.6543 -1.0326
13617SOL     OW45407   4.210   3.869   8.602 -0.2075 -0.0755  0.2205
13617SOL    HW145408   4.290   3.886   8.650  0.4244 -1.1396 -0.4064
13617SOL    HW245409   4.166   3.800   8.652  0.0935 -0.6646 -0.3056
13618SOL     OW45410   6.564   7.892   3.338  0.2509  0.2463 -0.6492
13618SOL    HW145411   6.606   7.915   3.420  0.1921 -0.2222 -0.4837
13618SOL    HW245412   6.484   7.944   3.336  0.2499  0.2542 -0.4075
13619SOL     OW45413   7.772   7.151   7.896 -0.4190 -0.2350 -0.4009
13619SOL    HW145414   7.688   7.122   7.932 -0.4299  0.2814  0.0124
13619SOL    HW245415   7.828   7.162   7.973  0.7029 -2.5878 -0.8183
13620SOL     OW45416   6.466   7.525   9.242  0.2079 -0.0732 -0.1595
13620SOL    HW145417   6.478   7.501   9.334 -1.2408 -2.0196 -0.4168
13620SOL    HW245418   6.376   7.499   9.222 -0.3491  2.5234 -1.5164
13621SOL     OW45419  10.772   3.625   2.195 -0.0558 -0.5269  0.2895
13621SOL    HW145420  10.721   3.606   2.273 -0.2298 -2.2607 -0.2122
13621SOL    HW245421  10.863   3.625   2.225 -0.1604 -0.5045  0.6118
13622SOL     OW45422   9.084   9.961   6.590 -0.5056  0.5888  0.1852
13622SOL    HW145423   9.177   9.961   6.566 -0.4642 -0.2394  0.3215
13622SOL    HW245424   9.083   9.977   6.684 -0.3618 -1.4713  0.5867
13623SOL     OW45425  11.919  11.949   2.873 -0.2897 -0.9793  0.2595
13623SOL    HW145426  11.944  11.858   2.888  2.2171 -0.6582 -1.4939
13623SOL    HW245427  11.991  12.001   2.909  0.5767  0.0831 -2.6922
13624SOL     OW45428   4.762   9.945   2.614  0.2169 -0.2431  0.0324
13624SOL    HW145429   4.740   9.986   2.697  1.7727 -0.6021  0.6668
13624SOL    HW245430   4.835   9.886   2.634  1.5376  0.6373 -1.7819
13625SOL     OW45431   4.982   1.605   0.710  0.0378 -0.0393 -0.3026
13625SOL    HW145432   5.030   1.576   0.632  0.8302 -2.3457  0.9509
13625SOL    HW245433   4.928   1.530   0.735 -0.0971  0.5834  1.4270
13626SOL     OW45434   4.841   0.726   2.588  0.2897 -0.3208  0.3510
13626SOL    HW145435   4.909   0.698   2.526 -0.5079  1.5745 -1.5294
13626SOL    HW245436   4.872   0.811   2.620 -0.6351  0.0102  0.3936
13627SOL     OW45437   4.197   2.534   8.602 -0.2563  0.4954  0.3723
13627SOL    HW145438   4.253   2.469   8.644  0.5917  1.8054  1.3393
13627SOL    HW245439   4.257   2.584   8.546 -0.7711  0.9139  0.1945
13628SOL     OW45440   1.231   9.152  11.734  0.0868  0.3882 -0.0359
13628SOL    HW145441   1.178   9.080  11.767 -1.9075  2.3753  1.3921
13628SOL    HW245442   1.167   9.221  11.712  1.9447  2.1344 -0.3053
13629SOL     OW45443   3.875   3.087   8.211 -0.7569  0.6521  0.4798
13629SOL    HW145444   3.897   3.134   8.291  0.0689 -0.4465  0.9387
13629SOL    HW245445   3.949   3.103   8.152 -0.2985 -0.3316  0.7722
13630SOL     OW45446  12.100   0.807   5.184 -0.3572  0.0886 -0.6212
13630SOL    HW145447  12.169   0.810   5.117 -0.2989 -1.3266 -0.6700
13630SOL    HW245448  12.138   0.754   5.254 -0.3062  1.8121  0.7010
13631SOL     OW45449   1.676  11.915   0.708 -0.3182 -0.5264  0.0030
13631SOL    HW145450   1.764  11.878   0.711 -0.3389 -0.5026  1.1191
13631SOL    HW245451   1.689  12.009   0.711 -0.4011 -0.5370  1.2571
13632SOL     OW45452  11.023   4.628   4.687  0.2781  0.3820  0.1951
13632SOL    HW145453  10.928   4.624   4.684  0.2358  1.3470 -0.2554
13632SOL    HW245454  11.043   4.643   4.780  0.0093 -0.0152  0.3201
13633SOL     OW45455   1.911   2.814   4.226 -0.2187 -0.3939  0.3479
13633SOL    HW145456   1.818   2.833   4.221 -0.1676 -0.3700 -0.8963
13633SOL    HW245457   1.954   2.890   4.186  0.3902 -0.0252  1.6650
13634SOL     OW45458   5.053   1.878  10.862 -0.2467 -0.5544  0.0982
13634SOL    HW145459   5.015   1.947  10.807 -0.8180 -0.2634  0.8405
13634SOL    HW245460   5.007   1.799  10.836  0.0652 -0.5710 -0.4138
13635SOL     OW45461   5.034   8.494   9.820  0.3500 -0.0058 -0.2353
13635SOL    HW145462   4.979   8.548   9.876  0.0145  1.1665 -1.6367
13635SOL    HW245463   5.103   8.462   9.877 -0.4940  0.3756  1.0367
13636SOL     OW45464   8.374   0.607  11.897 -0.0171  0.4967  0.5151
13636SOL    HW145465   8.450   0.583  11.949  0.0393  0.2512  0.3231
13636SOL    HW245466   8.389   0.698  11.872  1.0509 -0.0352 -0.9412
13637SOL     OW45467  11.870  11.738   9.632 -0.0803 -0.0008 -0.3947
13637SOL    HW145468  11.911  11.752   9.546  1.0468  1.0746  0.2720
13637SOL    HW245469  11.825  11.821   9.650 -1.3980 -0.6783 -0.4934
13638SOL     OW45470   2.474   0.326  11.298 -0.1238  0.3432 -0.3277
13638SOL    HW145471   2.438   0.397  11.351  0.0614  0.0673  0.1763
13638SOL    HW245472   2.561   0.310  11.334  0.3438  0.7025 -1.2511
13639SOL     OW45473   7.587  10.343  11.808 -0.5876  0.1535  0.1591
13639SOL    HW145474   7.649  10.291  11.756 -0.9317 -0.1869  0.0837
13639SOL    HW245475   7.555  10.409  11.748 -0.7717 -0.0639  0.0161
13640SOL     OW45476  11.561   7.495   5.499 -0.2053  0.0696  0.2008
13640SOL    HW145477  11.613   7.418   5.474 -0.7473  0.1104 -1.0941
13640SOL    HW245478  11.487   7.495   5.439 -0.9524  0.8369  1.0854
13641SOL     OW45479   2.917   1.514   2.588  0.8662 -0.3101 -0.4398
13641SOL    HW145480   2.842   1.573   2.594  0.4364 -0.8206 -0.6611
13641SOL    HW245481   2.878   1.426   2.584  1.5206 -0.7103  1.1901
13642SOL     OW45482  10.449   8.501   7.957  0.3725 -0.2221  0.2432
13642SOL    HW145483  10.499   8.447   8.018 -1.8225 -0.8694  1.5764
13642SOL    HW245484  10.405   8.439   7.899  0.8600  0.3284 -0.7642
13643SOL     OW45485   2.398   6.046   8.082  1.1244 -0.1329 -0.2794
13643SOL    HW145486   2.470   5.985   8.072  0.6161 -0.8183  0.1474
13643SOL    HW245487   2.367   6.062   7.993  0.4395 -1.5187 -0.3120
13644SOL     OW45488   9.728  10.124   1.978  1.2458  0.3854  0.2224
13644SOL    HW145489   9.695  10.206   2.015  1.5272  1.3741 -1.6089
13644SOL    HW245490   9.669  10.105   1.906  1.9912 -0.2802 -0.2257
13645SOL     OW45491  11.470   5.143   0.057 -0.0368  0.1610 -0.0033
13645SOL    HW145492  11.437   5.228   0.026  1.5776  0.6706 -0.3946
13645SOL    HW245493  11.533   5.116  -0.009 -0.7475 -1.5366 -0.0490
13646SOL     OW45494   5.877   9.935   9.897  0.2307 -0.0322  0.3563
13646SOL    HW145495   5.927   9.930   9.978  1.3841 -0.6497 -0.3717
13646SOL    HW245496   5.833   9.850   9.890  1.8249 -0.8232 -0.6912
13647SOL     OW45497   9.554   8.682   8.081  0.2008  0.1865 -0.4286
13647SOL    HW145498   9.461   8.664   8.089  0.5729 -1.0667  2.1717
13647SOL    HW245499   9.593   8.599   8.052  0.7420 -0.0850  0.9856
13648SOL     OW45500   2.962  11.185   9.506 -0.0198 -0.5658  0.6310
13648SOL    HW145501   2.899  11.235   9.454  0.9748 -1.6635 -1.8021
13648SOL    HW245502   2.992  11.246   9.573 -1.2243  1.0168 -0.2011
13649SOL     OW45503   1.664   5.167   4.136  0.1299  0.2123  0.6053
13649SOL    HW145504   1.602   5.239   4.140  0.3096  0.3280  2.0867
13649SOL    HW245505   1.691   5.154   4.227 -0.7417 -2.4517  0.5843
13650SOL     OW45506   1.314   2.030   2.224 -0.3138  0.7580  0.5327
13650SOL    HW145507   1.375   2.076   2.166  0.9750  0.8040  1.8882
13650SOL    HW245508   1.303   2.088   2.299 -1.7759  0.5908  0.4620
13651SOL     OW45509   3.616   1.661   2.782  0.0460  0.4555  0.3500
13651SOL    HW145510   3.593   1.569   2.795  2.3904 -0.0122  1.9823
13651SOL    HW245511   3.549   1.710   2.831 -1.1845 -0.3365 -0.4835
13652SOL     OW45512   7.190   0.824  12.044  0.0659  0.5021  0.1898
13652SOL    HW145513   7.153   0.882  12.109  0.5904  2.8827 -1.5099
13652SOL    HW245514   7.182   0.736  12.082 -2.4760  1.4368  2.0596
13653SOL     OW45515   8.165   8.069   1.886  0.5788 -0.1518 -0.0881
13653SOL    HW145516   8.224   8.131   1.929  1.2235  0.2598 -1.5307
13653SOL    HW245517   8.180   8.081   1.793  0.0747 -1.8743 -0.4309
13654SOL     OW45518   2.429   6.151   7.129 -0.0962  0.7672 -0.4590
13654SOL    HW145519   2.458   6.123   7.043 -2.1155 -1.5040 -0.5116
13654SOL    HW245520   2.509   6.167   7.178  1.1966 -1.6112 -1.6359
13655SOL     OW45521  10.074  11.707   1.413 -0.4796  0.0808  0.0213
13655SOL    HW145522  10.021  11.744   1.342  1.1334  1.8397 -0.3873
13655SOL    HW245523  10.164  11.712   1.380  0.2446  0.2247  1.8760
13656SOL     OW45524   4.791   4.175   8.139 -0.1613 -0.2797  0.0177
13656SOL    HW145525   4.731   4.149   8.209 -0.7603 -0.2267 -0.4735
13656SOL    HW245526   4.878   4.154   8.174 -0.2616  1.6897  1.6525
13657SOL     OW45527   8.992   6.304   3.349  0.5887  0.2715  0.3478
13657SOL    HW145528   8.990   6.268   3.438 -0.5007 -1.1491 -0.1967
13657SOL    HW245529   8.925   6.372   3.348 -1.2645 -1.4685 -0.0152
13658SOL     OW45530   1.425   4.041  10.508 -0.4153 -0.1417 -0.7923
13658SOL    HW145531   1.516   4.017  10.524 -0.7547 -0.1618  1.3416
13658SOL    HW245532   1.388   3.967  10.460  0.5781 -0.2893 -1.3558
13659SOL     OW45533   6.290  10.246   6.818  0.5339  0.4099  0.3894
13659SOL    HW145534   6.223  10.222   6.754 -0.0026 -1.3623  1.5384
13659SOL    HW245535   6.364  10.188   6.796  1.0507  1.1225  0.2205
13660SOL     OW45536  11.744   9.309   6.674  0.1524 -0.1122 -0.0711
13660SOL    HW145537  11.743   9.218   6.705 -2.4208 -0.0384  0.2962
13660SOL    HW245538  11.688   9.308   6.596 -1.5879  1.4227  1.0571
13661SOL     OW45539   3.940   4.976   4.729  0.1430  0.1333 -0.1772
13661SOL    HW145540   3.935   4.927   4.811  2.2428  0.2467  0.0668
13661SOL    HW245541   4.027   4.956   4.694  0.4876  2.4892 -0.8208
13662SOL     OW45542   6.269   9.656  12.058 -0.2136 -0.1811 -0.1842
13662SOL    HW145543   6.302   9.695  11.977 -0.8262 -0.9915 -0.8362
13662SOL    HW245544   6.346   9.613  12.096  0.7889  2.5621  1.1730
13663SOL     OW45545   2.945   1.179   9.079 -0.9426  0.1258 -0.0487
13663SOL    HW145546   3.005   1.175   9.005  0.5585  1.0301  1.0742
13663SOL    HW245547   2.861   1.205   9.040  0.4009  3.2710 -1.1843
13664SOL     OW45548  11.062   2.222  11.052 -0.5792 -0.2686 -0.5472
13664SOL    HW145549  11.147   2.247  11.016 -0.5690  0.5190  0.0030
13664SOL    HW245550  11.041   2.139  11.009  0.2793 -0.2663 -0.9845
13665SOL     OW45551   6.761   2.277   8.567 -0.6001 -0.1856 -0.9926
13665SOL    HW145552   6.700   2.278   8.641 -1.4073 -1.7435 -1.5959
13665SOL    HW245553   6.716   2.327   8.498 -0.3827  0.2337 -0.8301
13666SOL     OW45554   6.292   3.683   5.777  0.5364  0.0906 -0.1964
13666SOL    HW145555   6.222   3.623   5.801  1.0504 -0.0985  0.9181
13666SOL    HW245556   6.352   3.680   5.852  3.4033 -2.1987 -2.3443
13667SOL     OW45557   1.528   6.638  10.878  0.8370 -0.3574  0.0242
13667SOL    HW145558   1.539   6.623  10.972  1.4341  2.8930  0.5864
13667SOL    HW245559   1.617   6.642  10.843  0.6692  0.0373 -0.3731
13668SOL     OW45560   6.620   8.259   0.117  0.2043  0.2956 -0.7790
13668SOL    HW145561   6.553   8.315   0.078  1.7702  1.4750 -1.9163
13668SOL    HW245562   6.668   8.224   0.042  0.2630 -1.3156 -0.0211
13669SOL     OW45563   7.593   5.482   7.614 -0.2089  0.3884 -0.8018
13669SOL    HW145564   7.653   5.506   7.544 -1.0513  1.3037 -1.2352
13669SOL    HW245565   7.515   5.449   7.568 -1.1731  1.9349 -0.3728
13670SOL     OW45566   3.777   8.690   7.195 -0.2311 -0.6834 -0.0643
13670SOL    HW145567   3.854   8.685   7.252 -1.7847 -1.1035  2.1117
13670SOL    HW245568   3.706   8.655   7.248 -2.3421  1.5401 -1.2383
13671SOL     OW45569   8.499   7.962   8.065  0.1416  0.2143  0.2161
13671SOL    HW145570   8.589   7.942   8.091  0.3695  0.1805 -0.5697
13671SOL    HW245571   8.499   8.056   8.051  0.2664  0.1060 -0.5482
13672SOL     OW45572   8.888  11.692   0.754 -0.3266  0.0399  0.1810
13672SOL    HW145573   8.820  11.755   0.778 -0.7476  0.0381 -0.9220
13672SOL    HW245574   8.969  11.729   0.789 -0.8823  0.0193  1.5591
13673SOL     OW45575   3.019   1.194  11.872 -0.0847  0.4430 -0.0314
13673SOL    HW145576   3.022   1.175  11.966 -0.5192  0.8908  0.0715
13673SOL    HW245577   3.102   1.159  11.839 -0.2709 -0.4201  0.3817
13674SOL     OW45578  11.096   7.617   6.404  0.5547  0.2231 -0.2259
13674SOL    HW145579  11.006   7.646   6.418  1.0167  2.5178 -1.4888
13674SOL    HW245580  11.089   7.542   6.345 -0.5592 -0.2222  0.4596
13675SOL     OW45581   3.362   3.240  10.883  0.6829 -0.5337 -0.0118
13675SOL    HW145582   3.409   3.311  10.927 -1.1330  1.9014 -1.6733
13675SOL    HW245583   3.427   3.171  10.872  3.2165  1.6897 -0.1163
13676SOL     OW45584  10.589   2.603  10.478  0.0491 -0.7093 -0.1459
13676SOL    HW145585  10.562   2.511  10.484  1.6179 -1.2632 -0.9157
13676SOL    HW245586  10.559   2.631  10.391  0.8671 -0.9711 -0.5244
13677SOL     OW45587   6.022   9.689  10.442  0.2880 -0.2801 -0.2880
13677SOL    HW145588   6.024   9.698  10.537 -0.9988  0.5900 -0.3239
13677SOL    HW245589   6.036   9.777  10.408 -2.0532 -0.0311 -0.8234
13678SOL     OW45590   8.311   2.081   8.615  0.0861 -0.4473 -0.4240
13678SOL    HW145591   8.317   2.064   8.709  0.0018  0.9406 -0.1537
13678SOL    HW245592   8.366   2.158   8.601 -1.5862  0.6570 -1.1506
13679SOL     OW45593  10.176   2.935   4.671  0.1912  0.3934  0.1779
13679SOL    HW145594  10.134   2.906   4.590 -0.6563  2.1490 -0.0646
13679SOL    HW245595  10.266   2.904   4.665 -0.0653 -0.1366 -1.0949
13680SOL     OW45596   2.078  10.451   6.911  0.2514  0.0378  0.5516
13680SOL    HW145597   2.043  10.519   6.968  1.8727  0.7918  0.7082
13680SOL    HW245598   2.060  10.483   6.822 -2.4253 -1.2174  0.5325
13681SOL     OW45599   0.346   0.344   1.837 -0.4231 -0.2192  0.0777
13681SOL    HW145600   0.376   0.270   1.890 -1.3714 -1.6872 -1.3149
13681SOL    HW245601   0.426   0.381   1.801  0.0704 -0.6396  0.7148
13682SOL     OW45602   3.557   2.371   3.940  0.2840 -0.1596  0.3088
13682SOL    HW145603   3.569   2.342   4.031  0.3610 -0.3855  0.2287
13682SOL    HW245604   3.645   2.394   3.911  0.4443 -1.1613 -0.0619
13683SOL     OW45605  11.340   9.328  10.688 -0.0851  0.0607 -0.3118
13683SOL    HW145606  11.271   9.389  10.663 -0.2011  0.5173  1.0422
13683SOL    HW245607  11.324   9.250  10.634 -1.5436  0.2328 -0.1767
13684SOL     OW45608   0.344   9.557   6.810  0.0841  0.5555 -0.0289
13684SOL    HW145609   0.430   9.599   6.806 -0.9048  2.6032 -0.8616
13684SOL    HW245610   0.330   9.541   6.904  1.2614  0.3830  0.1333
13685SOL     OW45611   2.954   8.124   7.981  0.5805  0.1690 -0.1518
13685SOL    HW145612   2.977   8.154   8.069 -0.8927 -0.7090  0.5668
13685SOL    HW245613   2.859   8.116   7.982  0.6223 -0.8449 -1.5079
13686SOL     OW45614   4.999   5.864   8.370  0.0718  0.1509  0.3708
13686SOL    HW145615   4.994   5.815   8.289 -1.2969  0.1891  0.4162
13686SOL    HW245616   5.093   5.872   8.388  0.3341 -1.6736 -0.0799
13687SOL     OW45617  10.292   6.762   3.447  0.0752 -0.3515  0.1780
13687SOL    HW145618  10.388   6.765   3.454  0.0211  1.9801  0.5736
13687SOL    HW245619  10.264   6.853   3.460 -2.2216 -1.0222  0.2749
13688SOL     OW45620  11.912   0.157  11.381  0.1720 -0.0561  0.1758
13688SOL    HW145621  11.928   0.215  11.307  0.9873 -0.4383  0.0465
13688SOL    HW245622  11.934   0.210  11.458  1.0243 -0.2206  0.0532
13689SOL     OW45623   5.310   9.634  10.934 -0.1699 -0.2662 -0.3450
13689SOL    HW145624   5.362   9.560  10.964 -0.4621  0.0189  0.9113
13689SOL    HW245625   5.220   9.600  10.933 -0.1998 -0.1784 -0.5952
13690SOL     OW45626   3.551   5.799   6.535  0.0535  0.4560 -0.0960
13690SOL    HW145627   3.540   5.874   6.594 -1.3100  0.8936 -0.8724
13690SOL    HW245628   3.491   5.733   6.569 -0.4868  0.5858 -0.7689
13691SOL     OW45629  11.875  11.144  11.928  0.1663 -0.0055 -0.5801
13691SOL    HW145630  11.785  11.129  11.898 -0.8829  0.6195  1.9420
13691SOL    HW245631  11.922  11.064  11.907 -1.3960 -0.9448 -0.6218
13692SOL     OW45632   1.483   6.412   4.304  0.0126  0.4768  0.3933
13692SOL    HW145633   1.516   6.375   4.222 -0.4398 -1.1591  0.9171
13692SOL    HW245634   1.398   6.371   4.317 -0.3370  1.4176  1.2283
13693SOL     OW45635   7.755   0.769   5.068  0.2004 -0.1075  0.0727
13693SOL    HW145636   7.669   0.727   5.060  0.1814  0.1471 -1.3177
13693SOL    HW245637   7.735   0.863   5.073  0.3820 -0.0728  0.1428
13694SOL     OW45638   6.477   3.498   5.239  0.2889  0.1107 -0.3116
13694SOL    HW145639   6.420   3.502   5.163  0.3922 -0.7077 -0.4361
13694SOL    HW245640   6.556   3.454   5.208  0.4620  0.0603  0.1875
13695SOL     OW45641   9.441   0.004   7.134  0.5439  0.3177 -0.3499
13695SOL    HW145642   9.394   0.039   7.058  0.3678 -1.2874 -1.0188
13695SOL    HW245643   9.432   0.073   7.201 -0.6489  1.0976 -1.2545
13696SOL     OW45644   4.905   9.587   3.761 -0.1275 -0.5082  0.2286
13696SOL    HW145645   4.966   9.526   3.720  2.5958  1.6691  0.7407
13696SOL    HW245646   4.866   9.636   3.688  0.3024 -0.5499 -0.0302
13697SOL     OW45647  11.433  10.443  11.119 -0.9495 -0.2889  0.0849
13697SOL    HW145648  11.456  10.351  11.130 -0.4261 -0.3339 -1.1447
13697SOL    HW245649  11.425  10.454  11.024 -0.0089  1.1605  0.1450
13698SOL     OW45650   7.560   6.757   9.936 -0.9417  0.5539 -0.2626
13698SOL    HW145651   7.646   6.797   9.924 -0.9748  0.3589 -1.1630
13698SOL    HW245652   7.520   6.758   9.849 -1.9700  0.8994  0.1953
13699SOL     OW45653   9.081  11.390   9.609  0.4268  0.0896 -0.4765
13699SOL    HW145654   9.031  11.347   9.679  0.8305  2.6437  1.5809
13699SOL    HW245655   9.173  11.373   9.631  0.5563  0.7973 -0.4467
13700SOL     OW45656   4.301   1.815   9.174  0.3248 -0.1891  0.4985
13700SOL    HW145657   4.270   1.826   9.084 -0.6700  1.0307  0.9523
13700SOL    HW245658   4.271   1.894   9.219 -0.1214 -1.2540  2.1659
13701SOL     OW45659  11.121   9.012   2.874  0.3506 -0.7066 -0.2402
13701SOL    HW145660  11.156   8.941   2.928  0.2940 -1.4060 -1.0850
13701SOL    HW245661  11.187   9.025   2.806  0.2196 -0.1519 -0.2652
13702SOL     OW45662  11.222   9.508   0.032  0.4681 -0.3297 -0.6978
13702SOL    HW145663  11.171   9.511  -0.049  0.9927  1.5585 -1.0028
13702SOL    HW245664  11.164   9.466   0.095 -0.0498 -1.6151 -1.9573
13703SOL     OW45665   7.639   0.012  10.244 -0.9607  0.4522  0.0441
13703SOL    HW145666   7.627   0.004  10.150  1.0018 -0.3243 -0.1966
13703SOL    HW245667   7.567  -0.038  10.282 -0.8933 -0.5588 -1.0946
13704SOL     OW45668   7.486  11.601   1.379  0.0287 -0.1984 -0.0522
13704SOL    HW145669   7.468  11.670   1.315  1.1623  0.2603  0.0974
13704SOL    HW245670   7.498  11.522   1.326 -0.5806 -0.1427 -0.2794
13705SOL     OW45671   9.482   9.201  11.552  0.1688  0.4727 -0.0701
13705SOL    HW145672   9.486   9.247  11.468 -3.5830  0.1766 -0.5660
13705SOL    HW245673   9.483   9.108  11.528 -0.6389  0.3887  0.1929
13706SOL     OW45674   6.875   2.546  12.073  0.0846 -0.3521 -0.5124
13706SOL    HW145675   6.869   2.635  12.109 -1.5098  0.0041 -1.5250
13706SOL    HW245676   6.851   2.489  12.146  0.8296  0.0608  0.0699
13707SOL     OW45677   0.627   3.395  11.977  0.3478 -0.4270  0.7048
13707SOL    HW145678   0.642   3.368  11.887 -0.4391  1.3227 -0.0190
13707SOL    HW245679   0.578   3.323  12.016 -1.7702 -0.1077 -1.1320
13708SOL     OW45680   9.063   4.269   5.262  0.1511  0.6112 -0.7492
13708SOL    HW145681   9.157   4.279   5.276 -0.0996 -1.3493  3.9773
13708SOL    HW245682   9.055   4.187   5.212  0.8883  1.6119 -2.5974
13709SOL     OW45683   7.258   2.873  11.947  0.2206 -0.3857  0.2738
13709SOL    HW145684   7.251   2.934  11.873  0.5645  0.5737  1.0186
13709SOL    HW245685   7.171   2.834  11.954 -0.0363  0.1014 -0.1356
13710SOL     OW45686   9.101   9.309   8.383  0.3976  0.4276 -0.0368
13710SOL    HW145687   9.121   9.302   8.476  1.8387  1.7247 -0.1968
13710SOL    HW245688   9.013   9.347   8.380 -0.5662 -1.6272  0.7467
13711SOL     OW45689   6.849   3.288   8.760 -0.0288  0.2973  0.1092
13711SOL    HW145690   6.866   3.266   8.669 -0.7738 -2.2712  0.5160
13711SOL    HW245691   6.933   3.323   8.792  0.3984  0.7247 -1.3788
13712SOL     OW45692  11.288   2.834   4.849 -0.0710  0.3717 -0.8917
13712SOL    HW145693  11.313   2.829   4.756  2.0782  0.1454 -0.3540
13712SOL    HW245694  11.356   2.887   4.889 -0.4845 -0.2620  0.7186
13713SOL     OW45695  10.851   2.776   2.850  0.1639 -0.4063 -0.1304
13713SOL    HW145696  10.863   2.850   2.909 -0.5206 -0.7767  0.4803
13713SOL    HW245697  10.815   2.815   2.770  0.7021  0.0412 -0.1570
13714SOL     OW45698   3.906  11.625   8.799 -0.0093 -0.2227  0.0839
13714SOL    HW145699   3.884  11.695   8.737 -1.7198 -0.1824  0.6859
13714SOL    HW245700   4.001  11.627   8.803  0.1318  0.3073 -1.9268
13715SOL     OW45701   8.728   5.332   4.630  0.4337  0.5426  0.0866
13715SOL    HW145702   8.634   5.346   4.631  0.4213  1.0882 -2.1627
13715SOL    HW245703   8.765   5.420   4.637  0.8469  0.2729  1.7863
13716SOL     OW45704   2.707   6.498   6.945  0.0560  0.0151 -0.4813
13716SOL    HW145705   2.766   6.429   6.914 -0.8841 -1.1213  0.1521
13716SOL    HW245706   2.764   6.572   6.963  1.5623 -1.5168  1.5723
13717SOL     OW45707   6.855   1.465   8.134  0.0886 -0.1060 -0.1290
13717SOL    HW145708   6.917   1.436   8.201  1.0546  2.6025  0.3016
13717SOL    HW245709   6.910   1.509   8.069 -1.2048  0.6867 -0.7220
13718SOL     OW45710   0.073   9.287   9.002  0.4926 -0.7791  0.4171
13718SOL    HW145711   0.079   9.256   9.092  0.0294 -0.3634  0.5972
13718SOL    HW245712   0.151   9.342   8.991  0.2087 -0.2874  0.7888
13719SOL     OW45713   2.324  11.170   8.112 -0.2813  0.0457 -0.0164
13719SOL    HW145714   2.395  11.232   8.129 -0.1108  0.3826 -1.7835
13719SOL    HW245715   2.322  11.161   8.017 -0.0363 -3.0105  0.1737
13720SOL     OW45716   0.217  10.918   7.668  0.0298  0.4676 -0.7895
13720SOL    HW145717   0.285  10.904   7.602  1.0003  0.5723  0.1592
13720SOL    HW245718   0.265  10.926   7.750 -1.1483  0.4469 -0.0793
13721SOL     OW45719  11.159   8.724   6.791 -0.0587  0.2841  0.6275
13721SOL    HW145720  11.089   8.761   6.845 -0.4529 -0.3738  0.5789
13721SOL    HW245721  11.236   8.776   6.814 -0.7098  1.5329  0.1236
13722SOL     OW45722  11.271   9.859   9.655 -0.2116 -0.7218 -0.0526
13722SOL    HW145723  11.283   9.854   9.560  1.3395 -0.0414  0.0673
13722SOL    HW245724  11.329   9.791   9.690  1.0914  0.6019  0.4711
13723SOL     OW45725   5.823  10.801  11.928  0.7507  0.1159  0.0458
13723SOL    HW145726   5.845  10.839  11.843  1.1860  0.1240  0.1589
13723SOL    HW245727   5.895  10.827  11.985 -0.0675  1.0198  0.6952
13724SOL     OW45728   3.713  11.649  10.092 -0.4526 -0.6679  0.4176
13724SOL    HW145729   3.692  11.562  10.126  1.1735 -0.6488  1.5914
13724SOL    HW245730   3.809  11.652  10.092 -0.4703  0.7776 -0.5467
13725SOL     OW45731   7.406   9.903   8.784 -0.4456 -0.1178 -0.3886
13725SOL    HW145732   7.446   9.989   8.776 -1.0171  0.1796 -0.1568
13725SOL    HW245733   7.315   9.917   8.757 -0.9930 -0.2703  1.2644
13726SOL     OW45734   9.977  10.584   3.281  0.2429  0.0471  0.6490
13726SOL    HW145735  10.010  10.534   3.356  0.5483  1.1427  1.2712
13726SOL    HW245736   9.933  10.519   3.227  2.2129 -1.2404  0.4795
13727SOL     OW45737   1.989   6.487  10.263  0.2519 -0.0705 -0.3063
13727SOL    HW145738   1.928   6.536  10.208  1.9972  2.4035 -0.1514
13727SOL    HW245739   2.068   6.478  10.210  0.8268 -0.5240  0.5990
13728SOL     OW45740  12.043  10.940  10.651 -0.2904 -0.4019  0.2759
13728SOL    HW145741  12.094  10.887  10.590 -0.9539 -0.6185 -0.0926
13728SOL    HW245742  12.072  11.030  10.635 -1.5906 -0.2597 -1.4892
13729SOL     OW45743   7.884   2.919   3.630 -0.0895  0.2162  0.2662
13729SOL    HW145744   7.966   2.957   3.661 -0.0364  0.2131  0.1276
13729SOL    HW245745   7.848   2.876   3.708  1.0057 -1.5032 -0.1173
13730SOL     OW45746   7.014   1.747   2.375  0.0885  0.6207  0.3248
13730SOL    HW145747   6.924   1.773   2.394  0.5530  2.6520 -0.0418
13730SOL    HW245748   7.068   1.807   2.427  1.2478 -0.8080  0.8374
13731SOL     OW45749   3.024  10.499   5.695 -0.7559  0.1766  0.3853
13731SOL    HW145750   2.976  10.491   5.612 -2.4984  0.7229  1.2821
13731SOL    HW245751   3.077  10.578   5.684  0.7342 -0.9358 -0.9589
13732SOL     OW45752   2.131   0.257  10.175  0.0172  0.0156 -0.2660
13732SOL    HW145753   2.084   0.227  10.097 -0.0449 -1.5300  0.3213
13732SOL    HW245754   2.204   0.308  10.141 -3.1202  4.4795 -1.2238
13733SOL     OW45755  11.338   3.543   7.853  0.0704 -0.1241  0.1341
13733SOL    HW145756  11.306   3.476   7.794 -1.5147  0.1645  0.6102
13733SOL    HW245757  11.415   3.579   7.810 -1.5148  0.6863 -2.1978
13734SOL     OW45758   9.279   3.697   5.483 -0.1087 -0.4349  0.4368
13734SOL    HW145759   9.242   3.741   5.406  0.6046 -0.8154 -0.1375
13734SOL    HW245760   9.263   3.758   5.555 -1.2832 -0.3114  0.1049
13735SOL     OW45761   7.300   1.636   8.631 -0.1522 -0.0556 -0.4633
13735SOL    HW145762   7.257   1.706   8.681  1.0669 -0.3600  1.0863
13735SOL    HW245763   7.365   1.681   8.578 -1.0112  0.2067 -1.3135
13736SOL     OW45764   5.362   2.817   9.421  0.6156  0.3830  0.0251
13736SOL    HW145765   5.331   2.845   9.335 -1.2883  0.4001  0.6812
13736SOL    HW245766   5.365   2.897   9.473  1.2253  0.2879  0.1424
13737SOL     OW45767   3.494  11.744   7.807 -0.1023 -0.2573 -0.1436
13737SOL    HW145768   3.433  11.806   7.767 -0.8227 -0.3132  0.8279
13737SOL    HW245769   3.507  11.676   7.741 -0.2624  0.2963 -0.7550
13738SOL     OW45770   1.015   4.107   5.536 -0.3496 -0.4221  0.0924
13738SOL    HW145771   0.996   4.067   5.621 -0.8986 -0.0177  0.1631
13738SOL    HW245772   1.095   4.158   5.552 -0.7582  0.0971  0.5108
13739SOL     OW45773   7.595   1.423  11.484 -0.4385 -0.5348  0.0253
13739SOL    HW145774   7.528   1.373  11.437 -0.0163 -0.2019 -0.9497
13739SOL    HW245775   7.545   1.484  11.538 -0.9324 -0.3113 -0.6709
13740SOL     OW45776  10.376   6.401   8.460 -0.4584 -0.2513 -0.7760
13740SOL    HW145777  10.415   6.455   8.392  0.0330  0.2948 -0.0714
13740SOL    HW245778  10.399   6.444   8.542 -1.6378 -0.4999 -0.2853
13741SOL     OW45779   4.051   4.551   5.856  0.1355 -0.2558 -0.4886
13741SOL    HW145780   4.090   4.539   5.943 -1.5034 -1.4431  0.1299
13741SOL    HW245781   4.032   4.645   5.851  0.3228 -0.1584  0.3916
13742SOL     OW45782   9.324  12.101   2.106 -0.4072  0.4028  0.1782
13742SOL    HW145783   9.326  12.153   2.186 -1.7230  0.2394  0.3381
13742SOL    HW245784   9.400  12.042   2.114 -1.0708 -0.2959  1.7962
13743SOL     OW45785   6.627   1.683   4.170 -0.1511 -0.0827  0.1282
13743SOL    HW145786   6.608   1.610   4.229  1.0881 -0.2838  0.3031
13743SOL    HW245787   6.723   1.686   4.165 -0.1978  1.0563 -0.4726
13744SOL     OW45788   7.810   5.064  11.395  0.0961 -0.3759  0.7459
13744SOL    HW145789   7.879   5.109  11.345  0.5502  0.1463  1.8261
13744SOL    HW245790   7.856   4.992  11.439 -0.7702 -2.6176 -1.7234
13745SOL     OW45791  10.272  12.118   5.752 -0.3384 -0.1660  0.5216
13745SOL    HW145792  10.266  12.213   5.761 -0.2995 -0.1608  0.4942
13745SOL    HW245793  10.206  12.083   5.812 -0.1987 -0.1259  0.7007
13746SOL     OW45794  11.582   3.260   2.284 -0.1028  0.2359  0.1380
13746SOL    HW145795  11.672   3.231   2.271 -0.1023  0.6791 -1.0393
13746SOL    HW245796  11.591   3.348   2.321  0.1381  2.1787 -4.0058
13747SOL     OW45797   7.819   6.337   9.332  0.0451 -0.3026 -0.0694
13747SOL    HW145798   7.906   6.338   9.370  0.4732 -0.4158 -1.0132
13747SOL    HW245799   7.795   6.244   9.330  1.6155 -0.7684 -3.4986
13748SOL     OW45800   8.828  11.285   0.198  0.0263  0.1959  0.1439
13748SOL    HW145801   8.909  11.235   0.187  1.1416  1.7636  0.9194
13748SOL    HW245802   8.852  11.357   0.256 -1.8421  0.9098  0.0866
13749SOL     OW45803   7.199   9.804  11.449 -0.1197 -0.3499  0.1873
13749SOL    HW145804   7.234   9.729  11.497 -1.1594 -0.5046  0.7259
13749SOL    HW245805   7.170   9.865  11.517 -0.8043 -0.1931 -0.2370
13750SOL     OW45806   1.438   7.388   1.386  0.0509  0.1133 -0.1057
13750SOL    HW145807   1.370   7.450   1.360  0.7502  0.7968 -0.3579
13750SOL    HW245808   1.520   7.429   1.358  0.8642  0.8279  2.9309
13751SOL     OW45809   0.775   3.223   9.682 -0.1518  0.4019  0.5032
13751SOL    HW145810   0.842   3.232   9.749 -0.2641 -0.5722  0.7546
13751SOL    HW245811   0.761   3.313   9.650  3.1301  0.3911 -1.3861
13752SOL     OW45812   8.931   6.201   3.678 -0.4871 -0.2042 -0.1431
13752SOL    HW145813   8.940   6.289   3.717 -1.3035 -0.5628  0.9042
13752SOL    HW245814   8.888   6.149   3.746  0.1695 -1.4819 -0.6744
13753SOL     OW45815   9.688   5.005   5.219 -0.3167 -0.2273 -0.0383
13753SOL    HW145816   9.694   4.961   5.304 -0.5802 -0.8906 -0.3595
13753SOL    HW245817   9.614   5.065   5.228 -0.8990 -0.9251 -0.0754
13754SOL     OW45818   3.329   4.288   4.750  0.1111 -0.2282  0.0660
13754SOL    HW145819   3.247   4.338   4.758  0.6056  0.9479 -1.6336
13754SOL    HW245820   3.302   4.205   4.711 -0.1384  0.8371 -2.2051
13755SOL     OW45821   2.220   1.620   5.351 -0.4538  0.4744 -0.5896
13755SOL    HW145822   2.158   1.621   5.423  1.2333  1.2092  0.9150
13755SOL    HW245823   2.178   1.671   5.282 -3.3616 -2.6273 -1.3445
13756SOL     OW45824   8.559   2.305   1.324  0.6584  0.0874  0.7739
13756SOL    HW145825   8.579   2.309   1.417  0.0403 -0.4482  0.9393
13756SOL    HW245826   8.622   2.242   1.289  0.7820  0.1646  0.8544
13757SOL     OW45827   3.020   7.784   1.979 -0.1343  0.5950  0.5568
13757SOL    HW145828   3.065   7.821   1.903  2.6690  0.8710  2.2262
13757SOL    HW245829   2.952   7.848   2.000  0.0064  1.2298 -0.8130
13758SOL     OW45830   1.905   9.609  12.000 -0.3601 -0.2282 -0.5321
13758SOL    HW145831   1.831   9.627  12.058  0.8705 -1.2132  1.4599
13758SOL    HW245832   1.945   9.530  12.036  2.3594  0.9055 -0.7664
13759SOL     OW45833   8.564   2.767  11.714  0.2446  0.0116  0.2888
13759SOL    HW145834   8.541   2.772  11.807 -0.2099 -0.7965  0.2291
13759SOL    HW245835   8.544   2.677  11.689 -0.0333  0.3285 -0.6985
13760SOL     OW45836   0.422   3.366   5.336  0.5132  0.4471  0.5468
13760SOL    HW145837   0.380   3.451   5.324  0.0780  0.4095  1.6344
13760SOL    HW245838   0.515   3.383   5.323  0.4286  1.0832  0.7203
13761SOL     OW45839   1.827  11.318   6.692  0.1345  0.1794 -0.2808
13761SOL    HW145840   1.864  11.231   6.684  2.0744  0.8831  0.5015
13761SOL    HW245841   1.866  11.368   6.621  1.2319  1.0798  0.8920
13762SOL     OW45842   4.145   3.103   6.512 -0.3955 -0.1002 -0.1564
13762SOL    HW145843   4.107   3.176   6.461 -0.0852  0.9651  1.0903
13762SOL    HW245844   4.239   3.109   6.495 -0.2471  0.4948  0.8010
13763SOL     OW45845   0.915   9.577   4.151 -0.8850 -0.3600  0.2178
13763SOL    HW145846   0.829   9.545   4.126 -1.2930  1.8472 -1.5707
13763SOL    HW245847   0.898   9.643   4.218 -0.5392 -0.3033  0.2535
13764SOL     OW45848  12.099  10.435   0.417 -0.3029  0.0603  0.2244
13764SOL    HW145849  12.079  10.343   0.401  1.3487 -0.0124 -1.6844
13764SOL    HW245850  12.049  10.483   0.351 -0.9663  0.5430  1.0544
13765SOL     OW45851   2.655   6.632   3.506 -0.4097  0.4838 -0.0904
13765SOL    HW145852   2.634   6.686   3.582 -0.2378  0.0453  0.2691
13765SOL    HW245853   2.739   6.592   3.526 -0.0952  0.7835 -0.7462
13766SOL     OW45854   7.175   3.686   0.905  0.4890  0.1184  0.0007
13766SOL    HW145855   7.095   3.739   0.898  0.3893  0.3244  2.0784
13766SOL    HW245856   7.156   3.607   0.855 -0.6110  0.6394 -0.4322
13767SOL     OW45857   0.888   0.662   6.547  0.2126 -0.0088 -0.7529
13767SOL    HW145858   0.846   0.736   6.503  0.2149 -0.1448 -0.9875
13767SOL    HW245859   0.819   0.626   6.603 -0.6672 -1.5084 -2.6773
13768SOL     OW45860  11.896   0.236   8.395  0.1030 -0.0084 -0.4954
13768SOL    HW145861  11.914   0.330   8.389  0.2425  0.0107  0.1439
13768SOL    HW245862  11.981   0.194   8.382  0.4968  0.0488  1.5514
13769SOL     OW45863   5.379   8.100  11.227 -0.7492 -1.0790 -0.3788
13769SOL    HW145864   5.393   8.027  11.287 -2.8064 -1.8660 -0.7669
13769SOL    HW245865   5.313   8.154  11.270  0.6962  0.5470 -0.1391
13770SOL     OW45866  11.288   6.689   6.807  0.4696  0.7668  0.0032
13770SOL    HW145867  11.374   6.726   6.789  0.2333  0.2965 -2.3898
13770SOL    HW245868  11.295   6.598   6.780 -0.5951  0.5479  0.4221
13771SOL     OW45869   8.606  11.026   8.459 -0.1541  0.4230  0.7716
13771SOL    HW145870   8.532  10.973   8.489 -1.3334 -0.8314 -3.5671
13771SOL    HW245871   8.567  11.109   8.431  0.6908  1.1255  1.5927
13772SOL     OW45872   3.848   2.357  11.730 -0.3325 -0.4403 -0.3826
13772SOL    HW145873   3.765   2.346  11.776 -0.0683 -0.0158  0.2097
13772SOL    HW245874   3.824   2.391  11.644 -0.7239  0.4148  0.0564
13773SOL     OW45875  11.302   5.518   5.592  0.6644 -0.2240 -0.1620
13773SOL    HW145876  11.217   5.491   5.556  1.0060  0.7424 -1.7923
13773SOL    HW245877  11.354   5.541   5.516  1.5461  1.6426  0.9278
13774SOL     OW45878   7.349   3.006   4.107  0.9558 -0.5881  0.0753
13774SOL    HW145879   7.405   3.082   4.090  1.2580 -1.0343 -1.0592
13774SOL    HW245880   7.279   3.013   4.043  0.5602 -0.8565  0.4721
13775SOL     OW45881   4.744   4.268   7.884  0.4073 -0.4186 -0.2145
13775SOL    HW145882   4.791   4.205   7.830  0.1913 -0.1681 -0.6927
13775SOL    HW245883   4.781   4.256   7.972  0.5370 -1.0412 -0.3491
13776SOL     OW45884   2.807   3.210   8.765  0.1284 -0.2751 -0.2387
13776SOL    HW145885   2.892   3.213   8.809  0.7056 -2.2518 -1.0877
13776SOL    HW245886   2.829   3.211   8.672 -0.7031 -1.7323 -0.4708
13777SOL     OW45887  11.597   9.816   0.189  0.5654 -0.0032 -0.1237
13777SOL    HW145888  11.599   9.763   0.110 -0.3607 -0.7106  0.3052
13777SOL    HW245889  11.685   9.807   0.226  0.6646 -0.5739 -0.4875
13778SOL     OW45890   5.918   3.047   3.039 -0.0534  0.0286  0.0864
13778SOL    HW145891   6.001   3.089   3.021 -0.7005  0.9327 -0.8894
13778SOL    HW245892   5.873   3.105   3.101  1.1767 -1.8944  3.0569
13779SOL     OW45893   9.046   9.822   9.155  0.4762 -0.3467  0.0593
13779SOL    HW145894   9.047   9.764   9.078 -1.3998 -0.0981 -0.2215
13779SOL    HW245895   9.040   9.762   9.229  1.4141 -0.5685 -0.0374
13780SOL     OW45896   8.829   5.334   5.966 -0.6184  0.7879  0.5178
13780SOL    HW145897   8.823   5.296   5.878 -0.1160 -1.0909  1.2393
13780SOL    HW245898   8.876   5.417   5.953  1.1534 -0.3370 -0.7834
13781SOL     OW45899   5.944  10.248   5.102  0.2189  0.5638 -0.2263
13781SOL    HW145900   5.910  10.313   5.041 -2.0018  0.1459  0.4595
13781SOL    HW245901   5.935  10.165   5.056 -1.9000  0.1912  0.7389
13782SOL     OW45902   3.791  10.042   9.269  0.5812  0.2629 -0.8061
13782SOL    HW145903   3.865  10.082   9.314 -0.2938  1.9471 -0.7675
13782SOL    HW245904   3.717  10.055   9.329  0.2774 -1.6281 -0.7132
13783SOL     OW45905   9.524   1.666   7.576 -0.4887  0.0489  0.1375
13783SOL    HW145906   9.453   1.727   7.557  0.0091  0.6060  0.0277
13783SOL    HW245907   9.559   1.696   7.660 -0.3421 -0.1815  0.1595
13784SOL     OW45908   0.023   3.204  10.559  0.5310  0.1639 -0.4011
13784SOL    HW145909  -0.031   3.137  10.601 -0.4114  0.9104 -0.3788
13784SOL    HW245910   0.100   3.210  10.615  1.0716 -1.5253 -0.9089
13785SOL     OW45911   3.906   5.522   4.935 -0.3849  0.0841 -0.1560
13785SOL    HW145912   3.995   5.497   4.963 -1.0838 -1.7849  0.5640
13785SOL    HW245913   3.879   5.587   4.999 -0.6938 -1.6965  1.6127
13786SOL     OW45914   4.126  10.235   9.439 -0.2328  0.2264  0.3901
13786SOL    HW145915   4.201  10.189   9.478 -1.1867 -1.8253 -0.0980
13786SOL    HW245916   4.052  10.214   9.496 -0.5360  2.1025  0.7775
13787SOL     OW45917  11.719  10.099   9.028 -0.6553  0.4329  0.5579
13787SOL    HW145918  11.629  10.129   9.012 -0.4770  0.6531 -0.0775
13787SOL    HW245919  11.749  10.153   9.102 -0.8025  0.8679  0.3064
13788SOL     OW45920   4.342   7.607   7.101 -0.3127 -0.1462  0.1520
13788SOL    HW145921   4.419   7.600   7.158 -1.3125  1.5807  1.8493
13788SOL    HW245922   4.314   7.516   7.089  0.5736 -0.6542  1.5752
13789SOL     OW45923   9.816   3.298   4.309 -0.0347 -0.7921 -0.4285
13789SOL    HW145924   9.733   3.264   4.343 -0.1848  1.3463  1.6282
13789SOL    HW245925   9.883   3.259   4.366  0.4070 -2.2936 -1.9086
13790SOL     OW45926   2.145   4.775  10.795  0.5977 -0.3005  0.4019
13790SOL    HW145927   2.125   4.859  10.753 -0.0960  0.3354  1.9185
13790SOL    HW245928   2.192   4.725  10.728  0.9663  1.2642 -0.5592
13791SOL     OW45929   0.770   9.641   7.985  0.5018 -0.0783 -0.6904
13791SOL    HW145930   0.843   9.661   8.044  1.9411 -4.5636 -0.5638
13791SOL    HW245931   0.813   9.613   7.904 -1.2181 -0.5037 -1.4860
13792SOL     OW45932   0.098   7.681   2.121  0.1608  0.1647 -0.0109
13792SOL    HW145933   0.151   7.611   2.082  0.2990  0.2566  0.0119
13792SOL    HW245934   0.009   7.662   2.092  0.4015  0.8363 -1.2795
13793SOL     OW45935   2.137   2.679   3.820 -0.4826  0.9165 -0.1729
13793SOL    HW145936   2.043   2.679   3.802 -0.2593  0.8434 -1.4767
13793SOL    HW245937   2.173   2.745   3.760  0.4840 -0.1728 -0.8353
13794SOL     OW45938   2.596   9.566   6.836 -0.6637 -0.7365 -0.0043
13794SOL    HW145939   2.595   9.542   6.743 -2.6594 -2.2642  0.3379
13794SOL    HW245940   2.689   9.576   6.857 -0.0487 -2.2258 -1.7304
13795SOL     OW45941   9.595   6.203   1.936  0.0741 -0.2186  0.1641
13795SOL    HW145942   9.657   6.174   1.868 -0.4718  1.7142 -1.2519
13795SOL    HW245943   9.636   6.175   2.018  2.1338 -0.2436 -0.7906
13796SOL     OW45944   9.255   8.404   7.400 -0.2368  0.3541 -0.1956
13796SOL    HW145945   9.217   8.320   7.425  0.7824 -0.1869 -0.4394
13796SOL    HW245946   9.230   8.463   7.471  1.4568 -0.8295  1.4829
13797SOL     OW45947   4.090   7.953   5.686  0.2264 -0.0059 -0.1061
13797SOL    HW145948   4.075   8.033   5.635 -1.3284 -1.0227 -1.3235
13797SOL    HW245949   4.110   7.985   5.774  0.1395  1.7254 -0.6622
13798SOL     OW45950   6.576  11.968   4.943  0.1900 -0.0873  0.0060
13798SOL    HW145951   6.579  11.873   4.955  0.0356 -0.5438 -2.8403
13798SOL    HW245952   6.667  11.995   4.941  0.2410 -0.2137  0.6013
13799SOL     OW45953   9.936   1.461  10.313 -0.0277  0.1842 -0.0935
13799SOL    HW145954   9.878   1.407  10.259 -0.9052 -0.4516  1.4109
13799SOL    HW245955   9.979   1.399  10.372  1.5608  0.7612 -0.6097
13800SOL     OW45956   8.884   1.650  10.793  0.4058  0.2516 -0.2318
13800SOL    HW145957   8.906   1.698  10.713  2.3369 -2.5382 -1.5535
13800SOL    HW245958   8.806   1.599  10.769  2.0029 -1.9569 -1.1102
13801SOL     OW45959   4.612   1.920   5.734 -0.3223 -0.3200 -0.0359
13801SOL    HW145960   4.579   1.831   5.737  0.9408 -0.7890  1.7083
13801SOL    HW245961   4.707   1.910   5.732 -0.1677  0.9858 -0.0802
13802SOL     OW45962  10.909   6.159   9.059  0.0345  0.0322  0.2824
13802SOL    HW145963  10.982   6.145   9.119 -0.2865  2.2227  1.2969
13802SOL    HW245964  10.944   6.217   8.991 -0.5267  0.4745  0.3571
13803SOL     OW45965   3.396   3.405   3.934 -0.1811  0.5576 -0.2877
13803SOL    HW145966   3.381   3.348   4.009 -0.1125 -0.7709 -1.2388
13803SOL    HW245967   3.312   3.447   3.918 -0.0882  1.1821  0.7708
13804SOL     OW45968   3.779   8.255  10.172 -0.3781 -0.1045  0.2215
13804SOL    HW145969   3.709   8.256  10.107 -0.7683  1.4166  0.6285
13804SOL    HW245970   3.734   8.248  10.256 -0.0280  0.6760  0.4781
13805SOL     OW45971   6.410  10.312  10.717 -0.1322 -1.0234 -0.4363
13805SOL    HW145972   6.488  10.351  10.756 -0.6223 -1.7582  1.3745
13805SOL    HW245973   6.433  10.300  10.625  0.9161  1.1776 -0.5343
13806SOL     OW45974   7.881   0.837  11.840  0.6277 -0.1291  0.1842
13806SOL    HW145975   7.839   0.759  11.878  0.0229 -0.1045 -0.4239
13806SOL    HW245976   7.924   0.879  11.915  1.8071 -1.5580  0.3619
13807SOL     OW45977   2.041   0.938   7.084  0.4619  0.2906  0.4263
13807SOL    HW145978   1.956   0.950   7.043  1.4179  2.2919 -1.1446
13807SOL    HW245979   2.058   1.021   7.129  1.9372  0.2502 -0.0091
13808SOL     OW45980   7.679   4.064   9.005  0.2221  0.4293  0.1114
13808SOL    HW145981   7.753   4.038   8.948  0.9169 -0.6974  1.4686
13808SOL    HW245982   7.622   3.987   9.005  1.1767 -0.3499  2.3938
13809SOL     OW45983   0.208   3.429   1.592  1.0340  0.2185 -0.2349
13809SOL    HW145984   0.264   3.506   1.606  1.3541 -0.3123  1.7665
13809SOL    HW245985   0.199   3.390   1.679  1.4438 -2.4279 -1.2810
13810SOL     OW45986   6.551   5.932   8.488 -0.4054 -0.5290 -0.3346
13810SOL    HW145987   6.544   6.013   8.438 -1.8099 -0.3216  0.1612
13810SOL    HW245988   6.483   5.939   8.555 -0.5509 -2.1214 -0.2803
13811SOL     OW45989   5.726   1.349   2.335  0.5141 -0.1413 -1.1815
13811SOL    HW145990   5.779   1.288   2.285  3.4767  1.0113  0.2822
13811SOL    HW245991   5.701   1.300   2.414  2.6099  0.3343 -0.1621
13812SOL     OW45992   1.419   7.273   2.098  0.5079 -0.3844 -0.0937
13812SOL    HW145993   1.503   7.277   2.052  0.2603 -0.1585 -0.5330
13812SOL    HW245994   1.395   7.181   2.099  0.5183 -0.3892 -0.4098
13813SOL     OW45995   2.916   8.370   5.193 -0.3593  0.4531 -0.1678
13813SOL    HW145996   2.886   8.392   5.281 -1.4803  0.5244 -0.5634
13813SOL    HW245997   2.949   8.452   5.157  1.5278  0.1516  0.6945
13814SOL     OW45998   3.255   3.857   8.312  0.6784 -0.0446 -0.0883
13814SOL    HW145999   3.299   3.784   8.268 -1.2203  0.0738 -2.4038
13814SOL    HW246000   3.324   3.921   8.328  1.9870 -1.4048 -0.0312
13815SOL     OW46001  10.943   4.696  11.561 -0.1222 -0.1905 -0.0094
13815SOL    HW146002  10.936   4.769  11.622 -1.3014 -1.4477  1.4217
13815SOL    HW246003  10.866   4.642  11.579  0.0567 -1.1580 -1.9005
13816SOL     OW46004   7.743  11.982  11.057 -0.4859 -0.3261  0.6205
13816SOL    HW146005   7.787  12.046  11.112  0.4151  0.6053 -1.0978
13816SOL    HW246006   7.673  11.947  11.112 -0.3800  1.4028  1.9436
13817SOL     OW46007   9.901   3.543   4.414  0.2397 -0.2770  0.8832
13817SOL    HW146008   9.870   3.463   4.373 -0.1322  0.4098 -0.2102
13817SOL    HW246009   9.995   3.531   4.422  0.1726 -0.8673  0.8287
13818SOL     OW46010   2.955   6.076   7.259 -0.3884  0.4082  0.5556
13818SOL    HW146011   2.941   5.992   7.217 -0.1147 -0.4283  2.0441
13818SOL    HW246012   3.023   6.058   7.325 -0.3890  1.7684  0.9507
13819SOL     OW46013   3.519   3.188  10.351 -0.5844  0.4852 -0.3519
13819SOL    HW146014   3.441   3.146  10.387  0.7150 -1.0730  0.7949
13819SOL    HW246015   3.588   3.171  10.416  0.4676  2.8174 -0.7589
13820SOL     OW46016   3.300   1.032   7.446  0.1781 -0.3312 -0.5616
13820SOL    HW146017   3.368   0.964   7.445  1.1223  0.5763 -2.0630
13820SOL    HW246018   3.219   0.984   7.427  0.4793 -1.3195  0.4907
13821SOL     OW46019   2.653   5.571   4.917 -0.1042 -0.0968  0.1171
13821SOL    HW146020   2.718   5.629   4.956  0.2387 -1.6293  2.0359
13821SOL    HW246021   2.692   5.542   4.835  1.3255 -0.3564  0.8585
13822SOL     OW46022   4.169   6.773   3.261 -0.3511  0.3582  0.1184
13822SOL    HW146023   4.224   6.708   3.216  2.0122  1.2892  1.5022
13822SOL    HW246024   4.146   6.835   3.192 -0.9411 -0.8188 -0.7926
13823SOL     OW46025   1.202   2.488   1.894 -0.1694  0.2899 -0.1415
13823SOL    HW146026   1.236   2.459   1.809  0.0166 -0.7097  0.2602
13823SOL    HW246027   1.116   2.447   1.901  0.7579 -1.5392  1.1316
13824SOL     OW46028  12.039  11.397   2.650  0.1785 -0.2485 -0.5043
13824SOL    HW146029  11.967  11.356   2.602 -0.4393 -0.8406  0.8585
13824SOL    HW246030  12.028  11.491   2.635 -2.1279 -0.1464  1.2530
13825SOL     OW46031   6.237   2.650   5.205 -0.5508 -0.0948  0.5873
13825SOL    HW146032   6.224   2.744   5.213  0.0537 -0.0455  1.1589
13825SOL    HW246033   6.180   2.612   5.272 -0.1654 -0.0765  0.9308
13826SOL     OW46034   5.515   5.485   4.786  0.1232 -0.1295 -0.4679
13826SOL    HW146035   5.421   5.469   4.791 -0.0141  0.9092  0.5974
13826SOL    HW246036   5.550   5.446   4.866  0.2483  1.6188  0.3738
13827SOL     OW46037   3.742   1.574   9.635 -0.3592 -0.0634  0.2433
13827SOL    HW146038   3.688   1.571   9.714 -0.2162  0.9122  0.3961
13827SOL    HW246039   3.831   1.558   9.666  0.3917  4.3036  1.0429
13828SOL     OW46040  11.204  10.740   4.700 -0.0177 -0.4585  0.4117
13828SOL    HW146041  11.172  10.829   4.682  1.2495 -0.0540  0.0412
13828SOL    HW246042  11.292  10.739   4.664 -0.1567 -2.0187  0.0392
13829SOL     OW46043   6.542   4.820   2.865  0.2028  0.0660 -0.2996
13829SOL    HW146044   6.493   4.880   2.920  1.0392  0.0481  0.4880
13829SOL    HW246045   6.601   4.877   2.815  0.5185 -0.0485 -0.0551
13830SOL     OW46046   0.566   4.828   4.739 -0.0799  0.2310  0.5892
13830SOL    HW146047   0.593   4.853   4.651  0.3774  1.1120  0.9742
13830SOL    HW246048   0.566   4.732   4.738 -0.8984  0.2305 -0.6136
13831SOL     OW46049   4.734   3.023   0.872  0.5474 -0.0282  0.0327
13831SOL    HW146050   4.695   3.110   0.881  1.2430  0.6178 -2.3419
13831SOL    HW246051   4.667   2.973   0.824  0.2712 -0.7486  1.1355
13832SOL     OW46052   9.800   8.002   9.486 -0.7088  0.6959  0.0474
13832SOL    HW146053   9.752   8.004   9.568 -1.6997  0.3057 -0.5143
13832SOL    HW246054   9.797   7.910   9.458  1.6176  0.3350  0.7089
13833SOL     OW46055   9.186   4.348   6.874 -0.4860  0.4635  0.0573
13833SOL    HW146056   9.157   4.421   6.929  1.2401  0.3453  1.1982
13833SOL    HW246057   9.105   4.307   6.844 -1.4949  1.1060  1.7623
13834SOL     OW46058   5.671   2.717   4.829  0.4572 -0.0211 -0.0371
13834SOL    HW146059   5.631   2.760   4.905  1.3050 -0.0208  0.4113
13834SOL    HW246060   5.596   2.695   4.773 -0.0460  1.7247 -0.1302
13835SOL     OW46061   5.530   6.481   8.417  0.2868  0.3473  0.1656
13835SOL    HW146062   5.482   6.543   8.362 -0.4634 -0.0310  0.3833
13835SOL    HW246063   5.619   6.517   8.421 -0.0768  1.2883  0.1140
13836SOL     OW46064   8.434   5.223   6.273 -0.0395 -0.2255  0.0228
13836SOL    HW146065   8.479   5.140   6.286  0.8923  0.2517 -0.0147
13836SOL    HW246066   8.341   5.202   6.277  0.1894 -1.1416  0.7432
13837SOL     OW46067   5.815   3.742   3.433 -0.1147  0.0418 -0.4292
13837SOL    HW146068   5.808   3.677   3.503  4.4409  1.8884  2.2113
13837SOL    HW246069   5.795   3.825   3.476 -2.8748  0.8594 -2.9773
13838SOL     OW46070   5.593   4.847   0.982 -0.5887 -0.0714 -0.0899
13838SOL    HW146071   5.648   4.783   1.027 -0.3556  0.5081  0.4650
13838SOL    HW246072   5.516   4.854   1.038 -0.4147  0.4569  0.0858
13839SOL     OW46073   4.985   7.720   0.329 -0.1751  0.0882  0.0843
13839SOL    HW146074   5.043   7.732   0.403 -0.0595  1.7266 -0.2313
13839SOL    HW246075   5.031   7.659   0.271 -0.1107 -0.9184  1.1578
13840SOL     OW46076   0.568   3.103  10.525  0.1256  0.4055 -0.3104
13840SOL    HW146077   0.551   3.099  10.431 -0.5521  0.2160 -0.1859
13840SOL    HW246078   0.608   3.018  10.545  0.1845  0.4098 -0.4038
13841SOL     OW46079   0.492   7.085   6.355 -0.2514 -0.4368  0.3593
13841SOL    HW146080   0.552   7.010   6.358  1.0069  0.5624  1.2571
13841SOL    HW246081   0.497   7.117   6.265  1.2620  0.1616  0.6375
13842SOL     OW46082   2.080   9.971   1.548 -0.3221  0.2769 -0.3646
13842SOL    HW146083   2.152  10.031   1.531 -0.0340 -0.2391 -1.0263
13842SOL    HW246084   2.018  10.022   1.599 -0.1271  1.1682 -0.9916
13843SOL     OW46085  11.131   2.212   5.130 -0.2969  0.0288 -0.1032
13843SOL    HW146086  11.078   2.135   5.151  0.4206 -1.0018 -1.8893
13843SOL    HW246087  11.102   2.239   5.043  1.0582  0.3349 -0.4899
13844SOL     OW46088   3.048   8.024   0.571 -0.3688 -0.1805 -0.0114
13844SOL    HW146089   3.024   8.081   0.645 -0.9449  1.0935 -1.1489
13844SOL    HW246090   2.972   8.027   0.513 -0.9806 -3.1874  0.4590
13845SOL     OW46091   9.810   1.022   8.525  0.0997  1.0171  0.0831
13845SOL    HW146092   9.727   0.991   8.562 -0.5353  1.9197 -0.5420
13845SOL    HW246093   9.871   1.019   8.599 -0.8842  1.8261  0.9740
13846SOL     OW46094  10.177   4.000   7.933  0.4050  0.2793  0.7452
13846SOL    HW146095  10.213   4.024   8.018  0.7708  0.9072  0.4197
13846SOL    HW246096  10.108   3.937   7.953  1.1101 -0.2901  1.4402
13847SOL     OW46097   5.113  10.463   6.007 -0.0365 -0.0319  0.3187
13847SOL    HW146098   5.131  10.553   6.033  0.4279 -0.2971  0.9257
13847SOL    HW246099   5.059  10.428   6.078  1.4334 -0.8360  1.0752
13848SOL     OW46100  10.985  11.634   9.695 -0.6098  0.0243  0.2718
13848SOL    HW146101  10.956  11.625   9.605  0.4491 -0.2695 -0.0496
13848SOL    HW246102  10.904  11.637   9.746 -1.2783  1.5975 -0.7924
13849SOL     OW46103   2.382   4.968   8.840  0.5079  0.3748 -0.6851
13849SOL    HW146104   2.336   4.894   8.801 -0.2386 -0.4809  1.6638
13849SOL    HW246105   2.471   4.936   8.855  0.1176 -0.1906  0.5667
13850SOL     OW46106   2.577  10.620   1.864  0.3712  0.4537  0.1582
13850SOL    HW146107   2.666  10.636   1.833  0.1202 -0.6939 -1.2845
13850SOL    HW246108   2.585  10.543   1.920  0.4953  1.2665  1.2921
13851SOL     OW46109   0.637   5.031   8.816  0.3696 -0.2692 -0.2727
13851SOL    HW146110   0.622   5.038   8.722  0.1914 -0.0933 -0.2325
13851SOL    HW246111   0.583   5.100   8.854  0.6909 -0.1315 -0.0643
13852SOL     OW46112   6.020   6.840   2.967  0.1759  0.1261 -0.9927
13852SOL    HW146113   6.031   6.752   2.930 -1.0178 -1.3118  1.7663
13852SOL    HW246114   6.097   6.851   3.023 -0.2933  0.3147 -0.3845
13853SOL     OW46115   5.629   0.271   2.476 -0.5348 -0.2732 -0.0540
13853SOL    HW146116   5.534   0.271   2.492 -0.7039 -1.2837 -0.9490
13853SOL    HW246117   5.637   0.257   2.382  0.5113 -1.5644  0.1963
13854SOL     OW46118   2.187   1.053  11.938 -0.1645  0.0500 -0.5588
13854SOL    HW146119   2.133   1.000  11.880  0.0951 -1.7966  0.7812
13854SOL    HW246120   2.276   1.019  11.926 -0.1278 -0.4806  0.9712
13855SOL     OW46121   8.171   9.349   1.121 -0.1108  0.4552 -0.3367
13855SOL    HW146122   8.136   9.386   1.039 -0.2342  2.3450  0.5040
13855SOL    HW246123   8.266   9.349   1.108 -0.1778 -0.2259 -0.8575
13856SOL     OW46124   4.463   8.619  10.310  0.5397  0.1815  0.6192
13856SOL    HW146125   4.411   8.698  10.299  2.1836  1.2565  0.2829
13856SOL    HW246126   4.433   8.582  10.393 -1.3873  0.2111  0.0074
13857SOL     OW46127   1.006   2.594   6.754 -0.3632  0.2938  0.0733
13857SOL    HW146128   1.050   2.516   6.789  1.2698  0.8670 -0.5579
13857SOL    HW246129   1.071   2.633   6.695 -0.8177  2.5585  0.9551
13858SOL     OW46130   6.354   0.483   4.586  0.4717 -0.0074  0.1165
13858SOL    HW146131   6.359   0.427   4.663  1.3990  0.5901  0.5036
13858SOL    HW246132   6.321   0.566   4.620  0.5244  0.1431 -0.1996
13859SOL     OW46133   7.298   5.518  11.050  0.6728 -0.3144  0.6614
13859SOL    HW146134   7.265   5.503  10.961 -1.1451 -1.2102  1.4431
13859SOL    HW246135   7.387   5.550  11.036  0.9457 -1.7095 -1.4723
13860SOL     OW46136   3.935   0.989  10.766 -0.8132 -0.5378 -0.7301
13860SOL    HW146137   3.910   0.904  10.731 -0.1013 -1.9993  2.0274
13860SOL    HW246138   4.021   1.007  10.729 -0.5729 -1.4867 -0.6468
13861SOL     OW46139  10.485   7.466   3.956 -0.1210 -0.1549 -0.3553
13861SOL    HW146140  10.554   7.426   4.009 -1.0821 -1.4480 -0.0385
13861SOL    HW246141  10.426   7.505   4.021 -0.7844 -0.8923 -0.5014
13862SOL     OW46142  11.888   2.072   3.015 -0.5476  0.5270 -0.2674
13862SOL    HW146143  11.793   2.084   3.019 -0.4332  1.5327 -0.1917
13862SOL    HW246144  11.906   2.060   2.922 -0.6942  0.8653 -0.3416
13863SOL     OW46145   5.815  10.315  10.758  0.6040 -0.0589  0.3463
13863SOL    HW146146   5.758  10.339  10.685  0.5411 -1.2214 -0.0063
13863SOL    HW246147   5.769  10.244  10.802  1.2218 -0.2045  0.7737
13864SOL     OW46148   2.410   9.559   1.438 -0.5055  0.5522 -0.3096
13864SOL    HW146149   2.357   9.488   1.475 -1.4822  1.5837  0.3597
13864SOL    HW246150   2.352   9.635   1.441  0.5386  1.3961 -0.9446
13865SOL     OW46151   5.487   3.850   3.516 -0.1568  0.8057 -0.1480
13865SOL    HW146152   5.540   3.917   3.559 -0.7183  1.1403  0.0379
13865SOL    HW246153   5.509   3.857   3.423  0.6606  0.4449  0.0091
13866SOL     OW46154  11.885   5.986   3.347 -0.2991 -0.4942 -0.5023
13866SOL    HW146155  11.977   5.972   3.324 -0.3285 -0.7542 -0.4539
13866SOL    HW246156  11.846   5.899   3.345 -0.9114 -0.2116 -2.0537
13867SOL     OW46157  11.519   8.838  11.628  0.2899  0.1141  0.3719
13867SOL    HW146158  11.582   8.779  11.668  0.0542 -0.9899 -0.7892
13867SOL    HW246159  11.538   8.833  11.534 -1.5995 -0.3754 -0.0243
13868SOL     OW46160  10.826  10.900   9.814  0.6112 -0.2102  0.2290
13868SOL    HW146161  10.900  10.933   9.763  2.2382 -2.0990  1.2294
13868SOL    HW246162  10.785  10.834   9.758  1.8812 -1.6723  0.9396
13869SOL     OW46163   9.401   0.411   1.944 -0.2105 -0.6047  0.0100
13869SOL    HW146164   9.362   0.328   1.916  1.9010 -1.8218  0.5042
13869SOL    HW246165   9.429   0.452   1.862 -1.0308 -0.4704 -0.2157
13870SOL     OW46166   3.117   7.800   9.109  0.4121  0.4374  0.2998
13870SOL    HW146167   3.101   7.717   9.154 -0.4608 -1.2521 -2.7589
13870SOL    HW246168   3.204   7.790   9.071  0.0795  0.6399 -0.5469
13871SOL     OW46169  11.195   1.186  11.517  0.2240 -0.3578  0.0496
13871SOL    HW146170  11.138   1.144  11.453 -1.1953  1.2814  0.1572
13871SOL    HW246171  11.138   1.205  11.592  1.4935 -0.8678  1.1873
13872SOL     OW46172   9.856   4.021   8.382 -0.3022  0.0306  0.1835
13872SOL    HW146173   9.901   4.041   8.300  1.3055 -0.9490  0.7771
13872SOL    HW246174   9.767   4.055   8.369  0.0514  0.3642 -1.7484
13873SOL     OW46175   8.294  10.508   3.783 -0.0662  0.2135  0.0987
13873SOL    HW146176   8.325  10.508   3.692 -1.2520 -2.3981 -0.3950
13873SOL    HW246177   8.214  10.456   3.781 -1.1730  1.6856  2.3683
13874SOL     OW46178   0.100   5.065   9.152  0.1581  0.2685  0.1457
13874SOL    HW146179   0.018   5.108   9.129 -0.3285 -0.8626 -0.2860
13874SOL    HW246180   0.079   4.972   9.156  1.5162 -0.1073 -0.5040
13875SOL     OW46181   1.731   3.889  11.780 -0.3356 -0.3107  0.2103
13875SOL    HW146182   1.783   3.941  11.841 -1.4473  1.1753 -0.0469
13875SOL    HW246183   1.788   3.816  11.755  0.2113 -0.8709  2.8511
13876SOL     OW46184   0.068   3.475   3.670 -0.5361  0.2961  0.3523
13876SOL    HW146185   0.143   3.424   3.702  0.3709  1.6014  0.3754
13876SOL    HW246186   0.016   3.493   3.748 -0.9160 -0.6354  0.3332
13877SOL     OW46187   3.805   4.147   2.775  0.0773  0.1916  0.3178
13877SOL    HW146188   3.849   4.222   2.816  1.4398  0.4855 -1.5530
13877SOL    HW246189   3.720   4.181   2.747 -0.0302  0.5369  1.0468
13878SOL     OW46190   8.468  11.327   5.108 -0.1214  0.3400 -0.2177
13878SOL    HW146191   8.420  11.403   5.139  0.6177  0.6467  0.2229
13878SOL    HW246192   8.479  11.341   5.014 -1.5234 -0.1064 -0.4660
13879SOL     OW46193   6.940  11.444  11.353  0.2939  0.7508 -0.3951
13879SOL    HW146194   6.988  11.483  11.426  0.9070 -0.0108 -0.3808
13879SOL    HW246195   7.001  11.448  11.280  0.4889 -0.4666 -0.3111
13880SOL     OW46196  11.064   9.626   1.967 -1.1006  0.0065 -0.7290
13880SOL    HW146197  11.016   9.546   1.989 -1.1216  0.5236  1.3471
13880SOL    HW246198  11.136   9.629   2.029 -0.0435  0.7214 -1.9350
13881SOL     OW46199   4.082   8.296   3.174 -0.4474  0.0670 -0.2337
13881SOL    HW146200   3.995   8.256   3.174 -1.1640  1.5700 -0.7656
13881SOL    HW246201   4.068   8.387   3.200  1.0857  0.1293  0.4994
13882SOL     OW46202   2.914   5.846   3.320  0.2981  0.2060 -0.1186
13882SOL    HW146203   2.901   5.752   3.321  2.7855 -0.2170  1.6818
13882SOL    HW246204   2.977   5.861   3.250  0.2106  0.4922 -0.1387
13883SOL     OW46205   0.349   1.351   8.693 -0.7272  0.2547 -0.0033
13883SOL    HW146206   0.263   1.308   8.686 -0.8974  0.7003 -0.6800
13883SOL    HW246207   0.391   1.335   8.609 -0.0227 -0.1906  0.4191
13884SOL     OW46208   1.471   4.015  10.955 -0.0305  0.7986 -0.0369
13884SOL    HW146209   1.428   4.065  10.886  1.9156  1.9330 -0.5105
13884SOL    HW246210   1.532   3.958  10.909 -1.0058 -0.8101  0.6069
13885SOL     OW46211   3.787   2.956   8.594 -0.3785  0.0930 -0.3015
13885SOL    HW146212   3.799   2.862   8.579 -0.3991  0.2755 -1.6431
13885SOL    HW246213   3.692   2.969   8.594 -0.5531 -0.3227  3.2158
13886SOL     OW46214   7.178   5.297  10.293  0.5478  0.9723 -0.2026
13886SOL    HW146215   7.152   5.254  10.375  1.4267  1.2981  0.2576
13886SOL    HW246216   7.157   5.233  10.225  2.4085 -0.4757  0.5145
13887SOL     OW46217   5.215   3.466   8.310  0.0620 -0.2009 -0.5316
13887SOL    HW146218   5.141   3.475   8.250 -0.0250 -0.9364 -0.5408
13887SOL    HW246219   5.266   3.546   8.298 -0.1270 -0.1939 -1.3482
13888SOL     OW46220   2.870   7.308   2.778  0.1556  0.0660  0.6476
13888SOL    HW146221   2.778   7.288   2.760  0.8232 -2.6604 -0.2752
13888SOL    HW246222   2.884   7.275   2.867  0.3425  0.1617  0.6531
13889SOL     OW46223   5.409  11.491   1.861  0.0519  0.0828 -0.2562
13889SOL    HW146224   5.489  11.506   1.810 -0.8195  0.6009 -1.5191
13889SOL    HW246225   5.355  11.435   1.806 -0.4716 -0.2460  0.5731
13890SOL     OW46226  10.011  11.307   1.269 -0.1034  0.2602 -0.1315
13890SOL    HW146227   9.965  11.287   1.188  0.0332 -2.5159  0.3631
13890SOL    HW246228  10.103  11.289   1.249  0.2263  1.6158  0.0833
13891SOL     OW46229   6.759   9.330   3.565  0.2957  0.1680  0.2667
13891SOL    HW146230   6.836   9.279   3.538  0.4317  0.4449  0.1189
13891SOL    HW246231   6.686   9.289   3.520  0.6514  1.2625 -1.4086
13892SOL     OW46232   5.608  10.497   2.002 -0.0936  0.0375  0.5068
13892SOL    HW146233   5.650  10.531   2.081  1.7166 -0.9830  0.0438
13892SOL    HW246234   5.639  10.407   1.995  0.0963  0.2071 -1.5554
13893SOL     OW46235  10.927   0.718   9.646 -0.2721 -0.3087  0.0378
13893SOL    HW146236  10.881   0.639   9.618 -0.5659  0.5210 -1.9621
13893SOL    HW246237  10.966   0.753   9.566  0.1826  1.3758  0.9513
13894SOL     OW46238   1.934   6.829   6.878 -0.0102 -0.0069 -0.0007
13894SOL    HW146239   1.864   6.800   6.820  3.1287 -0.8566 -3.7815
13894SOL    HW246240   1.942   6.923   6.862 -0.2041  0.0747  0.3670
13895SOL     OW46241   7.715   5.052   0.420  0.0261  0.4890 -0.4623
13895SOL    HW146242   7.638   5.056   0.478 -0.8149  1.5510 -1.6066
13895SOL    HW246243   7.765   4.977   0.453 -1.3610 -0.0762  0.4777
13896SOL     OW46244   7.403   8.907   5.175 -0.4717  0.0259 -0.0519
13896SOL    HW146245   7.444   8.964   5.110 -0.9985 -1.2046 -1.5398
13896SOL    HW246246   7.476   8.859   5.214 -0.3358 -2.8902 -3.3912
13897SOL     OW46247   6.112   9.253   2.668 -0.1469 -0.7135 -0.6366
13897SOL    HW146248   6.151   9.275   2.584  1.2090 -0.4619  0.0427
13897SOL    HW246249   6.070   9.334   2.697 -0.0393 -0.6120 -0.7618
13898SOL     OW46250   9.439   1.897   5.437 -0.0729  0.2991 -0.0562
13898SOL    HW146251   9.397   1.978   5.407  2.1937  0.8985 -1.9355
13898SOL    HW246252   9.508   1.927   5.497  0.9932 -0.1871 -1.0139
13899SOL     OW46253   2.081   1.747  12.015  0.4097  0.0927 -0.2076
13899SOL    HW146254   2.151   1.690  12.045 -0.1059 -0.7046 -0.5024
13899SOL    HW246255   2.062   1.718  11.926 -1.0056 -0.4039  0.2363
13900SOL     OW46256   9.150   4.634   0.251 -0.0817  0.6541  0.2622
13900SOL    HW146257   9.131   4.541   0.239 -0.9377  0.9074 -0.4201
13900SOL    HW246258   9.152   4.646   0.346  3.2469 -0.6799  0.5110
13901SOL     OW46259   1.554  10.424  11.641  0.1907 -0.0967  0.1668
13901SOL    HW146260   1.602  10.501  11.671  0.0914 -0.3449  1.0006
13901SOL    HW246261   1.620  10.355  11.635  0.2922  0.0603 -0.6457
13902SOL     OW46262   4.415  11.250   3.677  0.3688 -0.6258  0.7695
13902SOL    HW146263   4.418  11.187   3.605  2.3869 -0.3149  0.5175
13902SOL    HW246264   4.396  11.334   3.635 -1.2502 -0.8440  0.9816
13903SOL     OW46265   3.724   0.482   9.290 -0.6274  0.0820 -0.2250
13903SOL    HW146266   3.708   0.538   9.214  1.7081  0.7344 -0.3143
13903SOL    HW246267   3.734   0.394   9.253 -1.9397 -0.0384 -0.3506
13904SOL     OW46268   8.905   9.621   0.169 -0.3539 -0.5344  0.1057
13904SOL    HW146269   8.816   9.641   0.139  0.1258 -1.1351 -1.8678
13904SOL    HW246270   8.942   9.706   0.193 -1.6796 -0.3693  1.6616
13905SOL     OW46271   1.758   9.236   3.927 -0.2500  0.1599 -0.1947
13905SOL    HW146272   1.682   9.276   3.884 -0.7062 -0.7583 -0.2744
13905SOL    HW246273   1.833   9.281   3.889 -0.6078 -0.8910 -2.2965
13906SOL     OW46274   6.751  11.085   4.411 -0.2399 -0.2941  0.5064
13906SOL    HW146275   6.736  11.147   4.482  1.1101  1.7752 -0.8884
13906SOL    HW246276   6.844  11.065   4.416 -0.5334 -1.7837  0.5405
13907SOL     OW46277   1.528   4.472   7.216  0.8509  0.1285 -0.3770
13907SOL    HW146278   1.576   4.463   7.134  2.5718 -1.0863  0.7011
13907SOL    HW246279   1.596   4.486   7.282 -0.1684 -2.3121  1.3178
13908SOL     OW46280   0.343   4.689   6.590 -0.4106 -0.1228  0.4055
13908SOL    HW146281   0.422   4.732   6.556 -2.2346  0.8199 -3.1595
13908SOL    HW246282   0.340   4.714   6.682  2.1715  1.8441  0.0742
13909SOL     OW46283   4.067   4.029   2.239 -0.0784  0.1865  0.3271
13909SOL    HW146284   4.004   3.970   2.196 -1.2093  0.7327  1.1731
13909SOL    HW246285   4.049   4.115   2.201 -1.0973  0.6789  1.8105
13910SOL     OW46286  10.822   6.999   9.888 -0.3500  0.1921 -0.2074
13910SOL    HW146287  10.857   6.945   9.817  1.4576  1.6603 -0.4959
13910SOL    HW246288  10.786   6.935   9.950  0.4116 -1.2724 -1.2008
13911SOL     OW46289   3.450   0.546   1.603  0.4942  0.3416 -0.1421
13911SOL    HW146290   3.366   0.525   1.562  0.4530  1.9542 -0.9310
13911SOL    HW246291   3.516   0.518   1.540  0.5393 -0.1548  0.1179
13912SOL     OW46292   0.295   3.148   6.998 -0.2301 -0.0031  0.1710
13912SOL    HW146293   0.238   3.158   7.074  2.4499  1.1995  2.1781
13912SOL    HW246294   0.307   3.238   6.966  1.2357 -0.0970  0.4010
13913SOL     OW46295   6.444   1.446  10.787  0.4605 -0.1675 -0.1257
13913SOL    HW146296   6.445   1.497  10.706  0.7894  0.0887  0.0336
13913SOL    HW246297   6.498   1.369  10.767 -0.8247 -0.9467 -0.6679
13914SOL     OW46298   4.418   2.174   5.058 -0.2164 -0.1775  0.3790
13914SOL    HW146299   4.450   2.196   4.971  0.0948 -2.4528 -0.1392
13914SOL    HW246300   4.494   2.186   5.116  0.1424 -0.6171  0.0024
13915SOL     OW46301  11.447   0.850   4.584 -0.3385  0.0822 -0.4362
13915SOL    HW146302  11.488   0.887   4.662 -1.3637 -1.6141  1.0056
13915SOL    HW246303  11.469   0.757   4.588 -0.7972 -0.1170 -1.9407
13916SOL     OW46304   7.220   9.750   2.706  0.0939  0.0847  0.2781
13916SOL    HW146305   7.302   9.712   2.739 -0.0020 -0.4535 -0.0993
13916SOL    HW246306   7.183   9.796   2.782 -0.0889 -1.0690  0.9094
13917SOL     OW46307   3.039   2.623   9.596 -0.5702  0.0930  0.7288
13917SOL    HW146308   3.086   2.707   9.595 -1.0180  0.3559 -0.7235
13917SOL    HW246309   3.101   2.561   9.635  0.5034  0.6940  0.0119
13918SOL     OW46310  10.309   1.157   6.117 -0.2101 -0.2348  0.1578
13918SOL    HW146311  10.396   1.166   6.079 -0.7334 -0.1056 -1.0944
13918SOL    HW246312  10.292   1.063   6.118  0.3115 -0.3242  1.3109
13919SOL     OW46313   4.548   7.762   3.306 -0.1197 -0.6751  0.1715
13919SOL    HW146314   4.532   7.692   3.369 -1.5004  1.3201  2.2129
13919SOL    HW246315   4.460   7.795   3.284  0.4523 -0.0191 -1.2866
13920SOL     OW46316   1.898   3.070  11.098  0.4567 -0.2652 -0.0808
13920SOL    HW146317   1.879   3.052  11.006  1.5635  1.2068 -0.6438
13920SOL    HW246318   1.990   3.097  11.098 -0.1925  2.2173  1.0479
13921SOL     OW46319   0.283   0.334   3.738 -0.4261  0.1077 -0.4171
13921SOL    HW146320   0.196   0.354   3.705 -0.8508  1.0645  1.1907
13921SOL    HW246321   0.306   0.408   3.794  0.9942 -0.6089  0.0052
13922SOL     OW46322   5.340   9.427   0.779  0.6518  0.0670  0.3347
13922SOL    HW146323   5.403   9.422   0.707  1.0853  0.2997  0.6912
13922SOL    HW246324   5.262   9.381   0.746 -0.4805  3.0613 -1.6566
13923SOL     OW46325   2.405   9.084   5.597 -0.2843 -0.0371  0.2237
13923SOL    HW146326   2.489   9.122   5.620  0.0461 -0.1839 -0.6959
13923SOL    HW246327   2.353   9.090   5.677  0.1819  1.1770  0.4510
13924SOL     OW46328   7.376   4.860  11.369  0.0228 -0.6718  0.3353
13924SOL    HW146329   7.303   4.904  11.413 -1.5804 -1.3300 -1.5482
13924SOL    HW246330   7.454   4.893  11.414 -1.1721  2.6433  0.2766
13925SOL     OW46331   2.752   4.270   9.770  0.8805 -0.1898 -0.3558
13925SOL    HW146332   2.801   4.187   9.771  0.8749 -0.1920 -0.1132
13925SOL    HW246333   2.816   4.336   9.796  0.9318 -0.0905 -0.7325
13926SOL     OW46334  11.941  11.897   5.340  0.4353  0.3475  0.2661
13926SOL    HW146335  11.935  11.947   5.422  0.5596 -1.0061  1.1340
13926SOL    HW246336  11.860  11.917   5.294 -0.4383 -0.1845  1.5171
13927SOL     OW46337   2.054   9.556   6.816  0.1674  0.3372 -0.3392
13927SOL    HW146338   2.025   9.643   6.844 -0.2945  0.8504 -2.2680
13927SOL    HW246339   2.149   9.563   6.812  0.0713  1.9847 -3.8229
13928SOL     OW46340   4.693   5.810   6.892  0.1004 -0.8787 -0.5465
13928SOL    HW146341   4.650   5.848   6.969  0.4762  1.0608 -1.2390
13928SOL    HW246342   4.627   5.816   6.823  0.5475 -0.3881 -0.9416
13929SOL     OW46343  10.103  11.783   4.752  0.0735 -0.4491  0.0676
13929SOL    HW146344  10.033  11.839   4.786  0.3241  0.3045 -0.6474
13929SOL    HW246345  10.116  11.718   4.822  0.1903  0.7292  1.1878
13930SOL     OW46346   6.698   7.839   9.657 -0.7888  0.2538  0.2807
13930SOL    HW146347   6.677   7.777   9.727  1.1469  0.2514  0.9373
13930SOL    HW246348   6.768   7.796   9.608  1.3308  2.2534  1.3725
13931SOL     OW46349   5.800   5.422   8.087  0.3950 -0.3012 -0.0612
13931SOL    HW146350   5.780   5.396   7.997  1.1458 -0.8877 -0.0694
13931SOL    HW246351   5.851   5.502   8.078 -0.9611  0.5989 -0.0768
13932SOL     OW46352   0.624  10.810   2.934  0.2061  0.0772 -0.2146
13932SOL    HW146353   0.609  10.861   2.854 -0.8792  2.0641  1.1567
13932SOL    HW246354   0.537  10.805   2.975  1.3144  2.9216  2.9394
13933SOL     OW46355  10.901   6.636   4.849 -0.2279 -0.1175 -0.2176
13933SOL    HW146356  10.861   6.640   4.763  0.1103  2.0578 -0.3426
13933SOL    HW246357  10.988   6.597   4.833  0.3225  1.3823 -1.1149
13934SOL     OW46358   6.060   7.302   2.859  0.3249  0.1597  0.0497
13934SOL    HW146359   6.122   7.257   2.802 -1.2282 -0.0336 -1.5980
13934SOL    HW246360   6.082   7.395   2.850  1.1149  0.0082  0.4149
13935SOL     OW46361   9.424   6.478   5.530  0.0639 -0.2665  0.3766
13935SOL    HW146362   9.496   6.540   5.529  0.7236 -1.0216 -0.5495
13935SOL    HW246363   9.467   6.392   5.535 -0.7873 -0.6994  0.4304
13936SOL     OW46364   2.319  12.127   7.117  0.1623  0.4248  0.1683
13936SOL    HW146365   2.228  12.136   7.088 -0.5857 -0.6068  2.0144
13936SOL    HW246366   2.327  12.188   7.190  0.6025 -0.3112  0.7470
13937SOL     OW46367   5.252   1.075   0.432 -0.8668  0.2051 -0.0367
13937SOL    HW146368   5.311   1.020   0.484 -0.3371  0.8879  0.0992
13937SOL    HW246369   5.172   1.023   0.424 -0.4651 -0.4802  0.2982
13938SOL     OW46370   9.613   0.770   3.166  0.2452  0.3905  0.4504
13938SOL    HW146371   9.605   0.788   3.260 -0.1919 -2.0773  0.9530
13938SOL    HW246372   9.669   0.692   3.162 -1.9046 -1.1687 -1.1306
13939SOL     OW46373  11.807   3.913   5.549  0.3904 -1.4966 -0.4484
13939SOL    HW146374  11.837   3.825   5.570  0.2498 -1.3213  0.5647
13939SOL    HW246375  11.732   3.927   5.607  0.2726 -0.7956 -0.7590
13940SOL     OW46376   0.971   5.571   9.643 -0.1565  0.1787  0.0424
13940SOL    HW146377   0.997   5.548   9.554  0.9764  0.5855  0.2432
13940SOL    HW246378   0.987   5.665   9.649 -2.2891  0.5861  0.0250
13941SOL     OW46379   9.582  10.329   6.455 -0.7697 -0.1274 -0.2347
13941SOL    HW146380   9.597  10.282   6.537 -0.4628  0.8391  0.2757
13941SOL    HW246381   9.606  10.267   6.387  2.8514  0.3179  0.4556
13942SOL     OW46382   1.511   6.864   5.600  0.6570  0.0149  0.1806
13942SOL    HW146383   1.460   6.910   5.533  0.0082 -1.6473 -0.5243
13942SOL    HW246384   1.446   6.827   5.659  1.1304 -0.4065  0.4465
13943SOL     OW46385   6.920   8.104   1.814  0.4565  0.2560  0.2008
13943SOL    HW146386   6.991   8.040   1.809  1.1775  0.9728  0.8794
13943SOL    HW246387   6.914   8.125   1.907  0.2012  1.1215 -0.0021
13944SOL     OW46388   7.320   8.825   7.031 -0.0520 -0.0839 -0.2635
13944SOL    HW146389   7.304   8.856   7.120 -1.5454  0.1108 -0.5686
13944SOL    HW246390   7.297   8.733   7.032  1.5573 -0.5176 -0.0708
13945SOL     OW46391   6.581   8.033   7.215 -0.2283  0.1284  0.3117
13945SOL    HW146392   6.521   8.075   7.277 -2.1099 -0.9323 -0.7356
13945SOL    HW246393   6.602   7.949   7.255  0.6625  0.5081  0.6919
13946SOL     OW46394  11.541   6.116   9.304  0.2180 -0.0274  0.0419
13946SOL    HW146395  11.631   6.087   9.320 -0.3342 -1.3464  0.9293
13946SOL    HW246396  11.487   6.042   9.332 -1.1628  0.8921 -0.1243
13947SOL     OW46397   5.848   6.712  10.780 -0.3585 -0.0779 -0.3950
13947SOL    HW146398   5.793   6.786  10.805 -1.7254 -0.5468 -1.8601
13947SOL    HW246399   5.786   6.641  10.764  0.9508 -1.8772  1.8601
13948SOL     OW46400   0.840   4.247   2.691 -0.0699 -0.5194  0.0024
13948SOL    HW146401   0.931   4.232   2.717  0.4055  1.8867 -0.0030
13948SOL    HW246402   0.846   4.285   2.604 -1.1140 -0.6844 -0.1516
13949SOL     OW46403   8.412   0.799   2.443 -0.2115  0.2021  0.6281
13949SOL    HW146404   8.462   0.771   2.519 -0.2190 -0.8327  0.2652
13949SOL    HW246405   8.474   0.797   2.371 -0.2057  1.1710  0.5992
13950SOL     OW46406   0.195   0.524   0.417 -0.8828 -0.4754  0.3602
13950SOL    HW146407   0.187   0.610   0.375  0.5057 -1.1621 -1.4624
13950SOL    HW246408   0.107   0.486   0.410 -1.2160  0.3139  0.0863
13951SOL     OW46409   8.219   0.127   6.236  0.1519 -0.7896  0.2550
13951SOL    HW146410   8.297   0.085   6.200  2.6161  2.3033  1.4791
13951SOL    HW246411   8.213   0.092   6.325  0.1627 -0.9822  0.1822
13952SOL     OW46412   6.946   5.115   5.758  0.0222 -1.2034 -0.4807
13952SOL    HW146413   6.872   5.132   5.700  0.6755 -2.0170 -1.6134
13952SOL    HW246414   7.010   5.071   5.702  1.0815 -1.1518  0.6378
13953SOL     OW46415   7.947   8.867   5.617  0.7206 -0.4500 -0.2158
13953SOL    HW146416   7.887   8.902   5.552 -0.0877  0.0732  0.8026
13953SOL    HW246417   7.951   8.773   5.597  0.1178 -0.3725 -0.7276
13954SOL     OW46418   6.385   7.778   2.565 -0.4144  0.0453 -0.0945
13954SOL    HW146419   6.406   7.689   2.536  0.4543 -0.4621  1.9166
13954SOL    HW246420   6.463   7.807   2.611 -1.9712  0.3732  2.5572
13955SOL     OW46421   2.471  11.703  10.175 -0.1653  0.2704  0.3053
13955SOL    HW146422   2.527  11.626  10.190 -0.7088 -0.3164 -0.5882
13955SOL    HW246423   2.477  11.752  10.257  0.0874 -0.7907  0.9512
13956SOL     OW46424   5.746   8.078   6.814 -0.2771 -0.1907 -0.4205
13956SOL    HW146425   5.792   8.011   6.865 -0.6624 -0.5836 -0.5791
13956SOL    HW246426   5.688   8.120   6.878 -0.1747 -0.1363 -0.3626
13957SOL     OW46427   3.572   3.684   6.804 -0.1188  0.3060  0.2070
13957SOL    HW146428   3.641   3.696   6.740  0.6970 -1.1127  0.7774
13957SOL    HW246429   3.527   3.769   6.807  2.4044  1.7360  0.7611
13958SOL     OW46430   4.665   7.289  10.409 -0.0857 -0.3019 -0.2789
13958SOL    HW146431   4.706   7.325  10.487 -0.4877 -0.6287  0.0892
13958SOL    HW246432   4.738   7.266  10.352  0.3324 -2.1884  0.9408
13959SOL     OW46433  10.343   4.639   3.779 -0.1362  0.5511  0.2314
13959SOL    HW146434  10.293   4.585   3.717  1.6882  1.2531 -1.9970
13959SOL    HW246435  10.303   4.726   3.773  0.9110  0.9681 -1.1030
13960SOL     OW46436   9.497  11.794   3.518  0.1586  0.2844 -0.2070
13960SOL    HW146437   9.561  11.730   3.488  0.8903  1.0390 -0.2803
13960SOL    HW246438   9.423  11.741   3.549  0.5617 -0.5744 -0.6804
13961SOL     OW46439  11.310   8.590  11.253 -0.2096  0.3482 -0.3527
13961SOL    HW146440  11.262   8.508  11.265 -2.5870  1.6477 -0.4976
13961SOL    HW246441  11.294   8.640  11.333  1.4454  0.6118 -0.1435
13962SOL     OW46442   2.310   9.702  11.221  0.3113 -0.4212  0.7392
13962SOL    HW146443   2.403   9.714  11.202 -0.0681  1.1523 -0.3718
13962SOL    HW246444   2.289   9.616  11.185  0.8005  0.2959 -1.3869
13963SOL     OW46445  11.211   5.340   4.259 -0.1385  0.4834 -0.0170
13963SOL    HW146446  11.174   5.413   4.308  1.3511  0.7178  0.8123
13963SOL    HW246447  11.274   5.300   4.319 -1.8968 -2.3924  0.0954
13964SOL     OW46448  11.708   3.680   2.962  0.0993  0.1280  0.2951
13964SOL    HW146449  11.706   3.768   2.925  0.5464 -0.0778 -0.2434
13964SOL    HW246450  11.794   3.673   3.002 -0.4616  0.4236  1.6021
13965SOL     OW46451   6.836   7.847   3.181 -0.1054  0.1924  0.0734
13965SOL    HW146452   6.888   7.891   3.249 -0.7428  2.0168 -0.5525
13965SOL    HW246453   6.751   7.833   3.222 -0.1180  0.1795  0.0428
13966SOL     OW46454   1.405   0.329   1.868 -0.5214 -0.2222 -0.3917
13966SOL    HW146455   1.379   0.405   1.920 -1.4748  0.6826 -2.1064
13966SOL    HW246456   1.485   0.298   1.910 -0.5170  1.2685  0.8012
13967SOL     OW46457   4.764   4.784   8.107  0.2806  0.1628  0.3796
13967SOL    HW146458   4.772   4.704   8.056 -1.5431  0.5625 -0.6456
13967SOL    HW246459   4.845   4.790   8.156  1.8978 -0.5692 -2.0327
13968SOL     OW46460   6.744   8.522  11.043 -0.8459 -0.6040  0.3927
13968SOL    HW146461   6.767   8.476  11.124 -3.5197  0.7995  2.0797
13968SOL    HW246462   6.800   8.600  11.043 -1.6537  0.0040  1.5737
13969SOL     OW46463   7.827   8.618   4.064 -0.1112 -0.5303 -0.0789
13969SOL    HW146464   7.895   8.640   4.001 -0.3835 -1.8196 -0.8697
13969SOL    HW246465   7.855   8.533   4.099 -0.1982 -0.0475  1.2276
13970SOL     OW46466   1.803   7.659   3.064  0.0577  0.0026 -0.1213
13970SOL    HW146467   1.814   7.587   3.126 -1.9160 -1.6033 -1.5146
13970SOL    HW246468   1.748   7.623   2.995 -2.0475  3.2141 -0.3141
13971SOL     OW46469  10.842   5.879   1.120  0.4072  0.1210 -0.0891
13971SOL    HW146470  10.839   5.971   1.145 -1.2271  0.6022 -1.8505
13971SOL    HW246471  10.829   5.879   1.026 -1.3478 -1.9925  0.0738
13972SOL     OW46472   9.042   2.046   3.450  0.2432  0.0729  0.6465
13972SOL    HW146473   8.960   2.095   3.455 -1.4057 -2.3365 -0.6373
13972SOL    HW246474   9.087   2.080   3.373  0.2979  1.1596  1.1491
13973SOL     OW46475   9.394  10.011  10.231  0.2575 -0.0234 -0.2778
13973SOL    HW146476   9.364  10.097  10.200  0.8467  0.9388  1.6614
13973SOL    HW246477   9.357  10.003  10.319  1.6520 -0.9817  0.2599
13974SOL     OW46478   3.855   6.278   9.926  0.3466 -0.7991  0.0126
13974SOL    HW146479   3.891   6.287  10.014  2.6975 -1.0851 -0.8360
13974SOL    HW246480   3.865   6.185   9.905  1.0257 -0.5242 -0.9940
13975SOL     OW46481   4.624   3.169   8.046 -0.2288 -0.2075  0.2581
13975SOL    HW146482   4.666   3.255   8.047  0.5522 -0.5424 -0.8550
13975SOL    HW246483   4.599   3.153   8.136 -1.7619  1.8282  0.2709
13976SOL     OW46484   7.222   0.584   0.720  0.5319 -0.2349 -0.3481
13976SOL    HW146485   7.192   0.513   0.777  1.1400  1.3321  2.0461
13976SOL    HW246486   7.141   0.623   0.687  0.1340 -0.6760  0.0855
13977SOL     OW46487   6.553  10.613   2.008 -0.0343 -0.1558  0.4074
13977SOL    HW146488   6.544  10.526   2.047 -2.5294 -0.3521 -0.4272
13977SOL    HW246489   6.634  10.609   1.956  0.1686 -1.7785  0.8148
13978SOL     OW46490  10.977   7.719   6.737  0.1109  0.0421 -0.0942
13978SOL    HW146491  10.908   7.655   6.755  1.4880 -2.0641 -1.7496
13978SOL    HW246492  11.041   7.706   6.807 -0.9521  1.8172  1.2946
13979SOL     OW46493   9.778  11.071   8.246 -0.2056 -0.2000 -0.0411
13979SOL    HW146494   9.797  11.108   8.160  0.2895  2.3165  1.0797
13979SOL    HW246495   9.820  10.984   8.243  2.4796  1.0066 -1.3326
13980SOL     OW46496   0.334   4.560   4.417 -0.0492 -0.2417 -0.1421
13980SOL    HW146497   0.426   4.535   4.408  0.9364  2.5473  1.0391
13980SOL    HW246498   0.295   4.489   4.468  1.4327 -1.4489 -0.6101
13981SOL     OW46499   3.502   3.727   0.608  0.0791  0.0406 -0.6574
13981SOL    HW146500   3.591   3.746   0.638 -0.8271  1.0249  1.6708
13981SOL    HW246501   3.457   3.811   0.610 -1.2842 -0.6654 -0.3100
13982SOL     OW46502   9.261  12.048   0.285  0.2133 -0.3551 -0.0551
13982SOL    HW146503   9.311  12.029   0.206  0.9895 -0.0598  0.3506
13982SOL    HW246504   9.305  12.124   0.323  0.0469 -0.6870  0.8206
13983SOL     OW46505   5.938   9.950   0.404  0.2321  0.2580 -0.0363
13983SOL    HW146506   5.953  10.014   0.334 -0.7594  1.0761  0.4617
13983SOL    HW246507   5.954   9.999   0.485 -3.5398  0.8811  0.4948
13984SOL     OW46508   7.476   9.678  11.960 -0.1528  0.3956 -0.3085
13984SOL    HW146509   7.562   9.673  11.917  0.0455 -0.9842  0.1902
13984SOL    HW246510   7.434   9.754  11.921  1.3785  1.2245 -0.4166
13985SOL     OW46511  10.326   9.072  10.572 -0.3915 -0.8074  0.1167
13985SOL    HW146512  10.240   9.111  10.588 -0.9302 -1.9333  0.0511
13985SOL    HW246513  10.325   8.989  10.620  0.8188 -0.6476  0.4555
13986SOL     OW46514   5.889   6.998   5.787  0.0819  0.2814 -0.0297
13986SOL    HW146515   5.856   7.054   5.857 -0.1598 -0.3849  0.3981
13986SOL    HW246516   5.815   6.943   5.763  0.0662  0.7137 -1.0388
13987SOL     OW46517  10.873  10.117   3.818 -0.1355 -0.1113  0.3362
13987SOL    HW146518  10.803  10.130   3.753  1.4730  0.2545 -1.4241
13987SOL    HW246519  10.904  10.028   3.801 -0.7188 -0.6090  1.7244
13988SOL     OW46520   3.332  10.214   7.224  0.0464  0.2437 -0.0085
13988SOL    HW146521   3.389  10.140   7.207  0.0630  0.0068  1.0185
13988SOL    HW246522   3.387  10.276   7.273  0.0061  0.9061 -0.7696
13989SOL     OW46523   7.766   7.688   5.597  0.1710 -0.3925 -0.2780
13989SOL    HW146524   7.710   7.624   5.551 -0.3658 -0.5554  0.5798
13989SOL    HW246525   7.712   7.718   5.670  0.0084  1.8572 -1.2544
13990SOL     OW46526   2.211   9.358   4.711  0.0568  0.0991 -0.0589
13990SOL    HW146527   2.142   9.342   4.646  1.8486 -2.5138 -1.5166
13990SOL    HW246528   2.292   9.329   4.668  2.1438  2.8606  1.6202
13991SOL     OW46529   7.175  10.037  10.183 -0.0431  0.1402  0.5256
13991SOL    HW146530   7.085  10.034  10.216 -0.1093  1.6280  0.5530
13991SOL    HW246531   7.168  10.006  10.093 -0.3439 -1.0760  0.9518
13992SOL     OW46532   9.114   8.144   2.246 -0.2853 -0.3580 -0.2880
13992SOL    HW146533   9.207   8.139   2.222  0.4166 -1.9179  2.3632
13992SOL    HW246534   9.112   8.201   2.322 -1.6274  0.1751 -0.6931
13993SOL     OW46535   4.248   4.590   8.986  0.8005  0.2089 -0.2774
13993SOL    HW146536   4.268   4.623   8.899  0.4519  0.0425 -0.4241
13993SOL    HW246537   4.331   4.557   9.019  1.0032  0.5897 -0.4083
13994SOL     OW46538   5.312   1.504   4.115  0.2193 -0.0979  0.0210
13994SOL    HW146539   5.352   1.540   4.036  0.0958 -1.6412 -0.7815
13994SOL    HW246540   5.225   1.545   4.119  0.6229  0.7756 -0.0547
13995SOL     OW46541   0.113   5.120   8.414  0.3666 -0.3776  0.3968
13995SOL    HW146542   0.071   5.063   8.478 -1.2022  0.8109  0.4884
13995SOL    HW246543   0.118   5.205   8.457 -0.0480  0.2604 -0.7832
13996SOL     OW46544   2.759   1.932   2.387 -0.3126  0.1116  0.2469
13996SOL    HW146545   2.831   1.976   2.341 -0.8744  0.6912 -0.1047
13996SOL    HW246546   2.748   1.982   2.468 -0.0412 -0.2399  0.5025
13997SOL     OW46547   7.126   3.631   0.549  0.0363 -0.2321 -0.5068
13997SOL    HW146548   7.077   3.603   0.626  1.2519  0.1176  0.4223
13997SOL    HW246549   7.060   3.636   0.479 -0.6909 -2.7433 -0.0787
13998SOL     OW46550   0.775   7.512   9.421  0.4016  0.1806  0.0146
13998SOL    HW146551   0.699   7.469   9.380  1.3418 -2.4807  0.8503
13998SOL    HW246552   0.843   7.508   9.353  0.5593  0.1109  0.1769
13999SOL     OW46553   2.749   0.420  10.396 -0.6910  0.4107  0.0962
13999SOL    HW146554   2.700   0.392  10.474  0.0486 -0.0070  0.4221
13999SOL    HW246555   2.841   0.412  10.422 -0.4461  1.1577 -0.5183
14000SOL     OW46556   7.150   3.428   0.089  0.2115  0.6237 -0.0369
14000SOL    HW146557   7.193   3.364   0.032 -0.4651  1.0730 -1.0835
14000SOL    HW246558   7.134   3.380   0.171 -2.1210 -1.2835 -1.4530
14001SOL     OW46559   8.868   4.779  10.553  0.2289  0.1182 -0.0680
14001SOL    HW146560   8.946   4.786  10.608  0.1915 -0.6625  0.0888
14001SOL    HW246561   8.795   4.789  10.614  0.1961  1.7140 -0.3335
14002SOL     OW46562   6.534   3.219  11.605 -0.2502 -0.3631  0.0489
14002SOL    HW146563   6.623   3.250  11.623 -0.3961  0.1250 -0.0607
14002SOL    HW246564   6.545   3.127  11.583  0.1895 -0.3921  0.3786
14003SOL     OW46565  11.419   4.975  10.777  0.5243 -0.2189  0.2947
14003SOL    HW146566  11.504   5.007  10.806 -0.0202  2.0552 -0.4717
14003SOL    HW246567  11.401   5.023  10.697 -1.2165 -1.1171  0.1072
14004SOL     OW46568   2.085   4.363   2.531  0.3196  0.5228 -0.3814
14004SOL    HW146569   2.080   4.318   2.446  0.4420  0.4328 -0.3411
14004SOL    HW246570   2.090   4.292   2.595 -1.5626  0.5352 -0.1634
14005SOL     OW46571   7.856  10.727   9.922 -0.3714 -0.1207 -0.1554
14005SOL    HW146572   7.825  10.638   9.907  1.2235 -1.1591  2.0822
14005SOL    HW246573   7.859  10.767   9.835  0.2897 -2.7656 -1.4474
14006SOL     OW46574   2.931   2.563   2.736 -0.2538 -0.1727  0.2456
14006SOL    HW146575   2.980   2.510   2.798 -0.3794  0.7182  1.1281
14006SOL    HW246576   2.996   2.589   2.670 -0.2651 -1.6638 -0.3935
14007SOL     OW46577   4.941   3.904   9.646 -0.9665 -0.3795 -0.2594
14007SOL    HW146578   4.874   3.944   9.700  0.1439 -1.0341  1.7142
14007SOL    HW246579   4.967   3.972   9.584 -0.4336  1.3503  1.7664
14008SOL     OW46580   0.223   5.221   3.363  0.2082 -0.1280  0.5293
14008SOL    HW146581   0.206   5.142   3.415  1.2270 -0.5409  0.2524
14008SOL    HW246582   0.249   5.187   3.277 -0.5064  0.5363  0.0350
14009SOL     OW46583   8.645   3.508   2.418  0.3051 -0.4443 -0.3827
14009SOL    HW146584   8.667   3.513   2.511 -0.9073 -2.5889  0.0810
14009SOL    HW246585   8.668   3.419   2.393  0.3873  0.0285 -2.1017
14010SOL     OW46586   4.594  11.681   2.018 -0.4433  0.2169 -0.5335
14010SOL    HW146587   4.663  11.615   2.009 -1.0843 -0.3690 -1.3400
14010SOL    HW246588   4.540  11.649   2.089 -1.7633 -1.1116 -2.0518
14011SOL     OW46589   0.451   0.471   9.481  0.5181 -0.4258 -0.0596
14011SOL    HW146590   0.484   0.561   9.473  0.4415 -0.3919  0.0101
14011SOL    HW246591   0.513   0.428   9.540 -0.2822 -0.0073  1.1230
14012SOL     OW46592   7.781   6.772  10.163 -1.2286 -0.2839  0.5951
14012SOL    HW146593   7.784   6.863  10.134 -0.4264 -0.2898  0.6397
14012SOL    HW246594   7.690   6.759  10.191 -1.7802 -0.0008 -0.9849
14013SOL     OW46595   5.871   4.707   4.803  0.1033  0.3595  0.1727
14013SOL    HW146596   5.922   4.673   4.730 -0.6918 -1.8161  0.5706
14013SOL    HW246597   5.781   4.711   4.770 -0.1216  0.1892  0.7465
14014SOL     OW46598   8.542   9.239   2.597 -0.0367  0.3314 -0.4945
14014SOL    HW146599   8.489   9.317   2.580 -1.2589 -0.5741 -0.9601
14014SOL    HW246600   8.570   9.210   2.510 -2.0101 -1.3726 -0.6310
14015SOL     OW46601  11.346   8.792   0.741  0.0733 -0.4810  0.4463
14015SOL    HW146602  11.418   8.761   0.685  0.6764  1.6277 -0.0354
14015SOL    HW246603  11.389   8.848   0.806 -1.0372  0.2212  0.5960
14016SOL     OW46604   6.236   9.862   7.352  0.1624 -0.5289 -0.3405
14016SOL    HW146605   6.310   9.847   7.411 -0.8198 -0.3173  0.9972
14016SOL    HW246606   6.237   9.957   7.335  0.3929 -0.5767 -0.5953
14017SOL     OW46607   2.525  10.022   5.073  0.3287 -0.1547  0.2210
14017SOL    HW146608   2.551  10.109   5.042 -0.7915 -0.2808 -1.1896
14017SOL    HW246609   2.593   9.996   5.134  1.1682  1.3258 -0.0547
14018SOL     OW46610   4.679   6.185   5.463 -0.3040  0.5979  0.2502
14018SOL    HW146611   4.761   6.196   5.414 -0.0616 -0.2240  0.4463
14018SOL    HW246612   4.645   6.274   5.474  0.0793  0.8740 -0.6522
14019SOL     OW46613   2.280   9.074   5.830 -0.4250  0.3074  0.7491
14019SOL    HW146614   2.269   8.984   5.860 -0.6353  0.5703  1.5011
14019SOL    HW246615   2.339   9.114   5.895  0.7961  0.3494 -0.3331
14020SOL     OW46616   4.471   7.767   7.826  0.3411  0.2111  0.9310
14020SOL    HW146617   4.400   7.716   7.865  0.0538  0.2489  0.4653
14020SOL    HW246618   4.430   7.849   7.798  0.8058  0.7276  1.7044
14021SOL     OW46619   5.394   2.044   1.938 -0.2380 -0.2334  0.8789
14021SOL    HW146620   5.441   2.126   1.950 -0.0063 -0.1306 -0.5603
14021SOL    HW246621   5.310   2.058   1.981 -0.1566  0.7215  0.7495
14022SOL     OW46622   2.414   0.444  11.860  0.3557  0.1116  0.2947
14022SOL    HW146623   2.376   0.369  11.815 -0.9453  1.0989 -0.3187
14022SOL    HW246624   2.361   0.454  11.939  2.3517 -1.3459  1.9448
14023SOL     OW46625   0.289   5.872  10.735 -0.0480 -0.4760 -0.0140
14023SOL    HW146626   0.232   5.938  10.776 -0.3264  0.2654 -1.5347
14023SOL    HW246627   0.234   5.830  10.669  0.8442 -0.4963 -0.7656
14024SOL     OW46628   1.151   7.806   2.418  0.3236 -0.2307 -0.1624
14024SOL    HW146629   1.068   7.812   2.371 -0.7432 -0.4611  1.6050
14024SOL    HW246630   1.140   7.864   2.494  2.9639  2.2494 -1.4965
14025SOL     OW46631   4.744   0.936   2.919  0.6989 -0.4771  0.1277
14025SOL    HW146632   4.783   1.015   2.956  1.1732 -0.8680  0.4765
14025SOL    HW246633   4.668   0.967   2.869  0.9072  0.1969  0.2282
14026SOL     OW46634   8.455   3.709   8.501 -0.4662 -0.2206  0.3826
14026SOL    HW146635   8.549   3.724   8.512 -0.2285 -1.3660  0.0316
14026SOL    HW246636   8.421   3.794   8.474  0.3223  0.4275  1.3585
14027SOL     OW46637   4.828   7.916  10.069  0.3018 -0.1801  0.3123
14027SOL    HW146638   4.906   7.910  10.013  0.3606 -1.6184  0.5033
14027SOL    HW246639   4.816   7.827  10.101 -0.7454  0.2775  1.2229
14028SOL     OW46640   5.521   4.646   7.358  0.3815 -0.5968 -0.3249
14028SOL    HW146641   5.544   4.725   7.309  1.2377 -1.3476 -1.1814
14028SOL    HW246642   5.542   4.667   7.449 -1.8044  1.0353 -0.1216
14029SOL     OW46643   0.490   2.981  11.957  0.1946  0.0758 -0.3498
14029SOL    HW146644   0.476   3.061  11.905  0.9002  2.1096  2.3725
14029SOL    HW246645   0.409   2.969  12.005  0.0964 -0.8647 -0.7435
14030SOL     OW46646   9.302   4.349   7.244 -0.3479 -0.1377  0.3099
14030SOL    HW146647   9.347   4.364   7.328 -1.2404 -2.3661  1.2617
14030SOL    HW246648   9.322   4.258   7.222 -2.0475 -0.3120 -0.6927
14031SOL     OW46649   0.343  11.461   8.809  0.0505 -0.1553  0.2700
14031SOL    HW146650   0.397  11.434   8.883  0.0226  0.1986  0.4258
14031SOL    HW246651   0.400  11.452   8.733  1.4386  3.1446  0.7487
14032SOL     OW46652   5.376  11.064   5.111  0.2884  0.0579 -1.1511
14032SOL    HW146653   5.326  11.073   5.192 -0.6757  1.1480 -1.8300
14032SOL    HW246654   5.443  10.998   5.131  0.0784  0.3024  0.5198
14033SOL     OW46655  10.643   3.089  10.185 -0.1377  0.0291 -0.6370
14033SOL    HW146656  10.597   3.083  10.268 -0.2622  1.3516 -0.5978
14033SOL    HW246657  10.731   3.055  10.204 -0.3118 -0.1344 -0.0971
14034SOL     OW46658   0.720   6.670  10.332 -0.6386 -0.5252 -0.3360
14034SOL    HW146659   0.797   6.673  10.388 -1.0566 -1.4774  0.3371
14034SOL    HW246660   0.692   6.578  10.336 -2.3459 -0.0270  0.2128
14035SOL     OW46661  11.171  11.250   6.752  0.1285  0.2104 -0.5890
14035SOL    HW146662  11.165  11.156   6.736 -1.3643  0.5630 -2.3861
14035SOL    HW246663  11.082  11.276   6.777  0.9117  0.8875  1.7961
14036SOL     OW46664  10.335  10.906   4.803  0.0071  0.2567 -0.4011
14036SOL    HW146665  10.274  10.845   4.762  1.0041  0.2185 -1.9020
14036SOL    HW246666  10.421  10.880   4.770  0.6464  1.4324  0.2549
14037SOL     OW46667   6.684   4.788   8.261  0.5134  0.2535 -0.1431
14037SOL    HW146668   6.628   4.734   8.317  1.4501  0.0336  0.6188
14037SOL    HW246669   6.631   4.865   8.241  0.2191  0.4465  1.2547
14038SOL     OW46670  11.863   6.967   9.904  0.5388  0.4794 -0.1085
14038SOL    HW146671  11.905   7.034   9.958 -0.0000 -0.2947  1.3020
14038SOL    HW246672  11.771   6.992   9.902  0.6631  0.9267 -1.3477
14039SOL     OW46673   2.970   4.262   3.856 -0.0531 -0.3832  0.5801
14039SOL    HW146674   2.885   4.219   3.863 -1.0144  1.6428  2.1172
14039SOL    HW246675   2.979   4.312   3.937  2.3147 -0.0019  0.1583
14040SOL     OW46676   7.692   6.622  11.129 -0.1106 -0.4794 -0.3607
14040SOL    HW146677   7.636   6.699  11.136 -0.0984 -0.5248  0.3843
14040SOL    HW246678   7.632   6.549  11.114 -0.1630 -0.3913 -0.5781
14041SOL     OW46679   9.578   6.185   5.217 -0.1177  0.1987 -0.8204
14041SOL    HW146680   9.566   6.090   5.216 -0.0470  0.1884 -1.9107
14041SOL    HW246681   9.580   6.208   5.310  2.6694 -1.2327 -0.4188
14042SOL     OW46682   3.557   6.226   3.829 -0.0546  0.6338 -0.1011
14042SOL    HW146683   3.621   6.260   3.767  0.6271 -1.4396 -0.5998
14042SOL    HW246684   3.571   6.131   3.829 -3.7329 -0.0590 -0.9550
14043SOL     OW46685  10.212   3.886  10.531  0.2078 -0.2904  0.6863
14043SOL    HW146686  10.158   3.808  10.533  0.8451 -0.7667  0.0612
14043SOL    HW246687  10.180   3.935  10.455  0.7072 -0.6279  0.2473
14044SOL     OW46688  10.527   7.838   9.127 -0.3756  0.5814  0.1856
14044SOL    HW146689  10.505   7.759   9.176  0.5548  0.7092  0.8361
14044SOL    HW246690  10.603   7.874   9.173  0.4237  0.7921 -1.2602
14045SOL     OW46691   2.652  12.061   3.253  0.0104 -0.1386 -0.1051
14045SOL    HW146692   2.572  12.100   3.288 -0.5474  1.0514 -2.5037
14045SOL    HW246693   2.674  11.991   3.315 -2.0172  0.4966  1.4250
14046SOL     OW46694  10.143   0.334   3.185  0.7030  1.2676 -0.4677
14046SOL    HW146695  10.199   0.343   3.262  0.3246  0.1265 -0.0442
14046SOL    HW246696  10.054   0.331   3.220  0.6023 -0.7062 -0.7866
14047SOL     OW46697   2.904   2.958   3.754  0.5837  0.0972  0.1713
14047SOL    HW146698   2.879   2.912   3.674  0.2703  0.2943  0.1570
14047SOL    HW246699   2.956   2.894   3.803  2.4749  0.5806 -1.0770
14048SOL     OW46700   8.007   2.925   6.018  0.1258  0.0850  0.3295
14048SOL    HW146701   8.046   2.971   6.092 -0.8900  0.5344  0.5990
14048SOL    HW246702   8.063   2.949   5.944 -0.6373  2.1988  0.3641
14049SOL     OW46703   5.771  12.098   2.268  0.0781 -0.1288  0.1497
14049SOL    HW146704   5.728  12.181   2.288 -0.0956  0.0385 -0.8584
14049SOL    HW246705   5.863  12.119   2.258  0.1724 -0.2210  0.7913
14050SOL     OW46706   4.542   1.367   0.774  0.0067 -0.5806 -0.2064
14050SOL    HW146707   4.459   1.397   0.736  0.4973  2.3381  0.7927
14050SOL    HW246708   4.516   1.297   0.834 -2.3221  2.2655  2.4627
14051SOL     OW46709   5.763  11.438   0.152 -1.0150 -0.0582 -0.0152
14051SOL    HW146710   5.819  11.373   0.195 -1.3758  0.3296  1.0994
14051SOL    HW246711   5.690  11.451   0.214  0.3393  3.3036  1.1213
14052SOL     OW46712   7.579   1.670   6.899  0.4827 -0.6117  0.2752
14052SOL    HW146713   7.646   1.733   6.924  0.2028  0.2223 -0.9503
14052SOL    HW246714   7.603   1.589   6.944  2.8053 -0.5783 -0.7834
14053SOL     OW46715   1.717   7.692   7.694 -0.0241  0.2912  0.7529
14053SOL    HW146716   1.712   7.698   7.790  2.1941 -1.7805  1.0690
14053SOL    HW246717   1.644   7.636   7.670  0.4992 -0.7103  1.4504
14054SOL     OW46718   3.362   8.228   1.194 -0.4697  0.4083  0.1916
14054SOL    HW146719   3.366   8.308   1.142  0.2146  0.9830  1.1069
14054SOL    HW246720   3.405   8.162   1.140  0.6988  1.1172  0.2167
14055SOL     OW46721   9.478   2.208   1.254 -0.3018  0.1263 -0.0376
14055SOL    HW146722   9.466   2.113   1.261 -0.2871  0.1499  0.3632
14055SOL    HW246723   9.418   2.235   1.185  0.0916 -0.2498 -0.5332
14056SOL     OW46724   3.486   6.649  10.863  0.5249 -0.0919  0.2292
14056SOL    HW146725   3.536   6.646  10.944  3.6099  0.8171 -1.4737
14056SOL    HW246726   3.403   6.691  10.887  1.7562  1.1143  2.7074
14057SOL     OW46727   1.339   6.358   6.096  0.2620  0.3478  0.0929
14057SOL    HW146728   1.284   6.283   6.118 -0.0696  0.5402 -0.0660
14057SOL    HW246729   1.310   6.384   6.008  2.3979 -1.1759 -1.1579
14058SOL     OW46730   0.946   2.902   4.075 -0.1572 -0.5378 -0.2292
14058SOL    HW146731   1.019   2.959   4.099 -1.5614  1.1409  0.2672
14058SOL    HW246732   0.887   2.958   4.024 -1.8802 -1.3188  0.7931
14059SOL     OW46733   4.039   9.236   2.177 -0.8047  0.3557 -0.9494
14059SOL    HW146734   4.121   9.253   2.223  0.4029 -1.8070 -2.1498
14059SOL    HW246735   3.976   9.216   2.246  0.6628 -1.6513 -0.1133
14060SOL     OW46736   5.100   8.154   0.706  0.5561  0.2873  0.6398
14060SOL    HW146737   5.056   8.134   0.624  0.5562 -1.3524  1.0093
14060SOL    HW246738   5.054   8.232   0.739 -1.5952 -0.8965  0.6437
14061SOL     OW46739   7.453   9.930   5.244 -0.4267 -0.1380 -0.4998
14061SOL    HW146740   7.385   9.959   5.304 -0.3258  0.4253 -0.6536
14061SOL    HW246741   7.434   9.837   5.229  0.1879 -0.5819  1.2711
14062SOL     OW46742   4.627   7.606   4.578  0.7382  0.2106 -0.0823
14062SOL    HW146743   4.617   7.580   4.669 -0.5592 -0.3951 -0.3648
14062SOL    HW246744   4.547   7.655   4.558  2.1192  2.5389 -0.2166
14063SOL     OW46745  10.865  10.404   4.946  0.1758 -0.0409 -0.0133
14063SOL    HW146746  10.809  10.468   4.901 -0.3311  0.4397  1.2453
14063SOL    HW246747  10.948  10.407   4.899 -0.8658 -0.8335 -1.9838
14064SOL     OW46748   2.889   7.207   6.631  0.2152 -0.5254  0.0500
14064SOL    HW146749   2.863   7.285   6.679  0.6615 -0.7886  0.7239
14064SOL    HW246750   2.975   7.227   6.595  0.3660 -0.7336  0.2905
14065SOL     OW46751   0.833   0.865   6.151 -0.2305 -0.2945 -0.2091
14065SOL    HW146752   0.871   0.952   6.138  2.2105 -1.2015  0.2125
14065SOL    HW246753   0.855   0.817   6.071 -1.5715 -0.5372 -0.4479
14066SOL     OW46754   3.211   1.728   5.690  0.0409  1.1201  0.1172
14066SOL    HW146755   3.280   1.663   5.704  0.5156  1.7508  0.7738
14066SOL    HW246756   3.130   1.676   5.685  0.3305  0.5124  1.3094
14067SOL     OW46757   9.798   6.041   2.742 -1.2097  0.0122  0.1636
14067SOL    HW146758   9.853   6.004   2.673 -0.5632  0.4908  0.4207
14067SOL    HW246759   9.785   6.132   2.718  0.7127  0.7606  1.6760
14068SOL     OW46760   1.787   1.879   8.820 -0.0871 -0.1400  0.3282
14068SOL    HW146761   1.843   1.834   8.757  1.2893 -0.0436  1.4571
14068SOL    HW246762   1.842   1.893   8.897 -1.4737  0.5177  1.2470
14069SOL     OW46763   4.040   8.712   5.467  0.2061  0.2333  0.1588
14069SOL    HW146764   3.950   8.734   5.443 -0.2822  0.1063  1.7873
14069SOL    HW246765   4.087   8.795   5.467  0.0796  0.3080 -0.6291
14070SOL     OW46766   6.054   6.096   9.331 -0.5140 -0.4664 -0.1335
14070SOL    HW146767   6.121   6.088   9.399 -2.1320  0.5215  1.6659
14070SOL    HW246768   6.019   6.007   9.320 -0.0724 -0.6736  0.1198
14071SOL     OW46769   2.275  11.812   3.746 -0.2764  0.0446 -0.3963
14071SOL    HW146770   2.289  11.738   3.806 -1.3974 -1.2211 -1.6101
14071SOL    HW246771   2.345  11.874   3.767 -0.7811 -0.1985  2.3993
14072SOL     OW46772   0.658   8.691   9.017 -0.0685  0.7334  0.4655
14072SOL    HW146773   0.572   8.656   9.037  0.3007 -0.2603  0.3724
14072SOL    HW246774   0.657   8.780   9.052 -1.4504  1.0761 -0.3778
14073SOL     OW46775   7.952   5.255   3.139  0.0113 -0.5174  0.1077
14073SOL    HW146776   7.892   5.191   3.177  1.3741 -1.1063  1.3324
14073SOL    HW246777   7.931   5.255   3.045 -1.3334 -1.2807  0.3833
14074SOL     OW46778   8.001   7.275   3.286 -0.8593 -0.3144  0.6905
14074SOL    HW146779   8.027   7.358   3.325  0.1131 -0.4212  0.3053
14074SOL    HW246780   8.041   7.276   3.199  1.1579 -2.1307  1.4952
14075SOL     OW46781  10.444   4.665  10.714  0.1370 -0.5828 -0.3260
14075SOL    HW146782  10.467   4.592  10.657  2.5104  0.0651 -0.3091
14075SOL    HW246783  10.447   4.742  10.657  0.7175 -0.1590  0.2472
14076SOL     OW46784   3.506   8.791   7.742  0.1152 -0.2413 -0.0689
14076SOL    HW146785   3.569   8.755   7.805  1.7109  1.6788 -0.4758
14076SOL    HW246786   3.457   8.856   7.791 -1.2663 -1.3407  0.0962
14077SOL     OW46787   2.450  11.492   5.256  0.3140 -0.3990 -0.1118
14077SOL    HW146788   2.399  11.429   5.206  1.1780 -1.3539  0.1657
14077SOL    HW246789   2.388  11.531   5.317 -0.6955  0.5988 -1.7175
14078SOL     OW46790   0.309   4.927   0.059  0.0899  0.7367 -0.3274
14078SOL    HW146791   0.367   4.992   0.098 -0.3011  0.1886  1.2100
14078SOL    HW246792   0.368   4.864   0.018  0.4988  1.3610 -0.7247
14079SOL     OW46793   0.790   3.266   4.482  0.4776  0.6788 -0.7322
14079SOL    HW146794   0.774   3.357   4.458 -0.5044  0.8627  0.5499
14079SOL    HW246795   0.706   3.222   4.467  1.5952 -0.6893 -4.0123
14080SOL     OW46796   1.622   5.852   7.706  0.6233  0.4252  0.3025
14080SOL    HW146797   1.588   5.879   7.791  0.7829 -0.0245  0.5103
14080SOL    HW246798   1.545   5.836   7.653  0.5203  1.2593  0.1788
14081SOL     OW46799  11.500   3.119  11.109 -0.0003 -0.1699  0.1350
14081SOL    HW146800  11.545   3.198  11.139  1.5873 -0.9338 -0.1230
14081SOL    HW246801  11.429   3.151  11.054  0.5840  1.0731  0.0642
14082SOL     OW46802   4.214   2.324   0.763  0.5703 -0.1309 -0.0920
14082SOL    HW146803   4.205   2.269   0.685  0.7562  1.6282 -1.4127
14082SOL    HW246804   4.288   2.287   0.811 -0.2582 -1.9213 -0.1246
14083SOL     OW46805   0.646   4.620   6.633  0.1584  0.4141 -0.0588
14083SOL    HW146806   0.682   4.647   6.717 -1.1765 -0.7122  0.9292
14083SOL    HW246807   0.582   4.553   6.655 -0.6028  0.4566 -1.9420
14084SOL     OW46808   5.435  10.840   2.569  0.4809 -0.2100 -0.1263
14084SOL    HW146809   5.460  10.931   2.584  0.6937 -0.4213  0.8828
14084SOL    HW246810   5.518  10.792   2.573  0.3984 -0.4230 -0.8937
14085SOL     OW46811   4.866   8.424  10.216  0.1632  0.3674  0.2445
14085SOL    HW146812   4.849   8.330  10.215 -2.3273  0.7673  0.5006
14085SOL    HW246813   4.937   8.435  10.280 -2.3491 -0.9727  3.5255
14086SOL     OW46814   2.739   0.319   9.166  0.6111 -0.4681  0.1771
14086SOL    HW146815   2.696   0.241   9.130  0.8285 -0.8526  0.7434
14086SOL    HW246816   2.721   0.316   9.259  0.2350  0.4182  0.1378
14087SOL     OW46817   7.263   5.460   5.165  0.7935 -0.2226  0.0178
14087SOL    HW146818   7.176   5.427   5.146  0.8831  0.4450 -1.7679
14087SOL    HW246819   7.301   5.396   5.226 -1.2700  0.0245  1.6751
14088SOL     OW46820   8.273   1.909   7.964 -0.4850 -0.0169  0.1037
14088SOL    HW146821   8.339   1.979   7.956 -1.4660  0.8757 -0.5279
14088SOL    HW246822   8.324   1.831   7.986  0.8114  0.6017 -0.5283
14089SOL     OW46823   1.331   1.951   8.492  0.3741  0.9788 -0.0503
14089SOL    HW146824   1.364   1.868   8.526  1.5283 -0.1898 -3.5764
14089SOL    HW246825   1.390   2.017   8.528  0.4449  0.0992  1.5164
14090SOL     OW46826   6.461   8.422   6.131  0.1388  0.1369 -0.0019
14090SOL    HW146827   6.501   8.336   6.117  0.2039  0.2932 -0.8765
14090SOL    HW246828   6.506   8.457   6.208  2.4498  0.7096 -1.4831
14091SOL     OW46829  12.123  11.980   1.689 -0.9228 -0.6345  0.5767
14091SOL    HW146830  12.103  12.065   1.649 -0.2245 -0.9233 -0.4298
14091SOL    HW246831  12.096  11.990   1.780 -2.9811 -0.0935 -0.0316
14092SOL     OW46832  10.601   5.717   5.379 -0.2284  0.2654 -0.0110
14092SOL    HW146833  10.577   5.694   5.289 -0.1347  0.3969 -0.0689
14092SOL    HW246834  10.656   5.795   5.371  0.4255 -0.1824  0.1130
14093SOL     OW46835   0.821  11.817   8.907  0.2702 -0.2848 -0.3918
14093SOL    HW146836   0.817  11.747   8.972  3.0228  1.0445  1.3670
14093SOL    HW246837   0.910  11.852   8.914 -1.2775  4.2838 -0.1216
14094SOL     OW46838   7.118  11.235   6.815 -0.2054 -0.4243  0.5170
14094SOL    HW146839   7.119  11.145   6.847  0.2574 -0.7505 -0.3930
14094SOL    HW246840   7.206  11.249   6.781 -0.4732  0.1517  0.0546
14095SOL     OW46841  11.938   8.135  11.708  0.3787  0.0738  0.1088
14095SOL    HW146842  11.859   8.166  11.665  1.5293  2.4566 -0.4335
14095SOL    HW246843  11.919   8.043  11.729 -2.1902  0.3358 -0.7037
14096SOL     OW46844   6.401   0.328   4.120  0.1258 -0.6270 -0.2427
14096SOL    HW146845   6.377   0.279   4.042 -1.1946 -2.0682  1.0195
14096SOL    HW246846   6.481   0.286   4.151  0.4671 -0.2636 -0.6144
14097SOL     OW46847  12.001   6.247   1.366  0.0157 -0.6638  0.5312
14097SOL    HW146848  11.984   6.332   1.405  0.3139  0.0784 -0.8907
14097SOL    HW246849  12.029   6.266   1.276 -0.3583 -2.2761  0.0241
14098SOL     OW46850   4.987   7.525   7.851  0.7246  0.0510  0.2948
14098SOL    HW146851   4.928   7.590   7.812  1.4402  0.7211  0.2858
14098SOL    HW246852   4.951   7.440   7.826 -0.5129  0.4398  0.7328
14099SOL     OW46853   3.800   0.141   0.687  0.7186  0.3164  0.2078
14099SOL    HW146854   3.798   0.196   0.609 -1.8811 -0.8655 -0.6816
14099SOL    HW246855   3.824   0.054   0.654 -0.2193 -0.1559  0.7362
14100SOL     OW46856  10.240  10.654   3.302 -0.1253 -0.4613 -0.1152
14100SOL    HW146857  10.152  10.624   3.278 -0.3763  0.9737 -1.0921
14100SOL    HW246858  10.279  10.682   3.219  0.8299 -0.0183  0.4716
14101SOL     OW46859  11.734   8.420   9.014  0.6277 -0.1528 -0.3459
14101SOL    HW146860  11.694   8.358   8.953 -0.2289  0.1075 -0.0657
14101SOL    HW246861  11.817   8.380   9.038  0.0679 -1.2303 -0.1260
14102SOL     OW46862   8.671  10.613   9.231  0.5601  0.7177 -0.2099
14102SOL    HW146863   8.736  10.612   9.161 -0.0558  0.9229 -0.7908
14102SOL    HW246864   8.697  10.541   9.288  0.5900  0.0261 -1.0774
14103SOL     OW46865   6.870   9.271   2.479 -0.1611  1.0056 -0.3743
14103SOL    HW146866   6.816   9.208   2.526 -0.5884  1.2501 -0.5400
14103SOL    HW246867   6.952   9.223   2.461 -1.6478 -0.6876 -3.4601
14104SOL     OW46868   3.489  10.087   8.756 -0.1498 -0.1460 -0.0019
14104SOL    HW146869   3.446  10.023   8.699 -0.2497  0.3521 -0.4951
14104SOL    HW246870   3.545  10.034   8.813 -0.0557 -0.6602 -0.5537
14105SOL     OW46871   0.466   2.489   0.650  0.4003 -0.3626  0.4498
14105SOL    HW146872   0.381   2.461   0.617  0.7900 -2.7298  1.2511
14105SOL    HW246873   0.455   2.494   0.745  1.0933 -0.5482  0.5489
14106SOL     OW46874   7.856  11.532   0.234  0.1762 -0.2706  0.2089
14106SOL    HW146875   7.831  11.463   0.296  1.6347 -1.1353 -0.1292
14106SOL    HW246876   7.929  11.495   0.185  0.7304  1.3764 -0.2649
14107SOL     OW46877   0.190   0.619   8.489 -0.5742  0.2140  0.3058
14107SOL    HW146878   0.265   0.628   8.548 -1.5477 -0.1401  1.6112
14107SOL    HW246879   0.116   0.600   8.546 -1.3052 -1.4921 -1.1255
14108SOL     OW46880   8.290   6.469   0.927 -0.4701 -0.7235 -0.2685
14108SOL    HW146881   8.215   6.501   0.877 -1.1039  2.1111  2.1745
14108SOL    HW246882   8.254   6.444   1.012  1.1081 -0.9721  0.3659
14109SOL     OW46883   1.394  10.829   0.133 -0.6013  0.0415  0.1524
14109SOL    HW146884   1.432  10.746   0.160  1.4412 -0.0359 -2.5708
14109SOL    HW246885   1.343  10.808   0.055 -1.3644  1.1269  0.3355
14110SOL     OW46886  11.977  11.341  10.101  0.5506 -0.4374 -0.3685
14110SOL    HW146887  11.927  11.399  10.159 -0.5642  0.6894 -2.3585
14110SOL    HW246888  12.068  11.350  10.131  0.0272  0.1151  1.1611
14111SOL     OW46889   4.256   5.503   8.136 -0.2645  0.1029  0.8250
14111SOL    HW146890   4.187   5.477   8.074  2.0801 -0.0806 -1.9125
14111SOL    HW246891   4.264   5.597   8.124  1.2735 -0.1528 -0.4329
14112SOL     OW46892   9.823   4.701   8.597 -0.2941 -0.0111  0.2140
14112SOL    HW146893   9.761   4.767   8.628  0.7598  1.9721 -1.5775
14112SOL    HW246894   9.852   4.656   8.676 -1.5951  1.2197  1.4423
14113SOL     OW46895   2.545   0.958   1.518  0.3960 -0.6950  0.0822
14113SOL    HW146896   2.514   0.909   1.594 -0.0939 -1.9428 -0.8794
14113SOL    HW246897   2.468   0.966   1.462  1.0793 -1.1524 -0.9644
14114SOL     OW46898   9.529   4.370   0.281  0.6174  0.3559  0.4432
14114SOL    HW146899   9.476   4.389   0.359 -0.7225 -1.5129  0.0714
14114SOL    HW246900   9.512   4.443   0.222  0.8163  1.2725  1.4879
14115SOL     OW46901   7.909  11.149  10.929 -0.4324 -0.0249  0.0074
14115SOL    HW146902   7.818  11.154  10.960  0.1652  1.9970  1.6462
14115SOL    HW246903   7.961  11.178  11.004  1.4246  0.8214 -1.5388
14116SOL     OW46904   3.343   3.101   1.318  0.1206 -0.0335  0.2507
14116SOL    HW146905   3.254   3.129   1.295  0.3389 -0.5222 -1.3012
14116SOL    HW246906   3.331   3.030   1.380 -0.6861 -1.5124 -1.4985
14117SOL     OW46907   9.113   0.440   7.633 -0.3873  0.1101  0.5266
14117SOL    HW146908   9.207   0.429   7.641 -0.1606  1.4218 -0.0245
14117SOL    HW246909   9.102   0.525   7.590 -1.7964 -0.6457 -0.7213
14118SOL     OW46910   6.019   1.664   6.938  0.0337  0.6177  0.3124
14118SOL    HW146911   5.989   1.705   7.019 -0.0018 -0.0814  0.6623
14118SOL    HW246912   6.093   1.610   6.964 -1.3319 -1.3481  0.3026
14119SOL     OW46913   8.120   7.563   4.118  0.6347  0.4465 -0.2371
14119SOL    HW146914   8.145   7.634   4.059  0.2129 -0.4950 -1.6027
14119SOL    HW246915   8.180   7.492   4.096  0.4282  0.0574  0.4400
14120SOL     OW46916   9.407   1.821   3.400 -0.4361 -0.6587 -0.0743
14120SOL    HW146917   9.482   1.768   3.373  0.4507  1.2083 -1.5422
14120SOL    HW246918   9.380   1.866   3.320 -0.2700  2.0784  1.3087
14121SOL     OW46919   1.311  11.028  10.062  0.1158  0.1599  0.5933
14121SOL    HW146920   1.398  11.004  10.092  0.0091  2.0815  2.7174
14121SOL    HW246921   1.252  10.998  10.132 -0.9136 -0.6017 -0.5408
14122SOL     OW46922   0.636   1.890  11.292  0.3514 -0.1644  0.3838
14122SOL    HW146923   0.725   1.916  11.315  1.2595 -1.6193 -1.2208
14122SOL    HW246924   0.631   1.798  11.317 -0.8338 -0.0170  0.7466
14123SOL     OW46925   1.896  10.660  11.274  0.3343  0.0276  0.4247
14123SOL    HW146926   1.898  10.672  11.179 -0.9189  0.1771  0.4025
14123SOL    HW246927   1.901  10.565  11.286 -2.2490 -0.2254  0.0583
14124SOL     OW46928   7.715   6.661   3.231 -0.0856 -0.5492 -0.5378
14124SOL    HW146929   7.628   6.622   3.240  0.4028 -1.3978  0.9502
14124SOL    HW246930   7.748   6.664   3.321  1.2903  0.0544 -1.0490
14125SOL     OW46931  10.991   7.588   1.978 -0.5000 -0.1659  0.2039
14125SOL    HW146932  10.928   7.651   1.944  0.0687  0.0545 -0.4587
14125SOL    HW246933  10.968   7.505   1.935 -0.4250 -0.1135  0.0605
14126SOL     OW46934   5.414  11.651   0.501 -0.5323  0.9423 -0.0650
14126SOL    HW146935   5.398  11.605   0.584  0.2957 -0.0181 -0.4272
14126SOL    HW246936   5.335  11.703   0.487 -0.7401  1.0160  1.2619
14127SOL     OW46937   0.499   6.274   4.971  0.0312  0.5705 -0.1388
14127SOL    HW146938   0.490   6.179   4.967  5.4805 -0.3086  0.6317
14127SOL    HW246939   0.539   6.298   4.887  1.9268  1.5269  0.9689
14128SOL     OW46940   2.128   2.236   1.904  0.4629  0.5927  0.2792
14128SOL    HW146941   2.195   2.203   1.844 -1.0164 -2.1145 -0.0524
14128SOL    HW246942   2.051   2.251   1.849 -0.0170  1.0179  1.0455
14129SOL     OW46943  10.531   1.427   6.597 -0.0440 -0.2718  0.1782
14129SOL    HW146944  10.505   1.442   6.506 -0.9333 -0.8589  0.3177
14129SOL    HW246945  10.626   1.417   6.593 -0.0405 -0.0395 -0.6491
14130SOL     OW46946   8.035   3.406   4.132 -0.6905  0.0785 -0.6703
14130SOL    HW146947   8.122   3.443   4.147 -0.3138 -0.3921 -1.6241
14130SOL    HW246948   8.040   3.369   4.044 -1.6231 -0.6163 -0.4404
14131SOL     OW46949   9.001   6.149   5.146 -0.0554  0.8498  0.5537
14131SOL    HW146950   8.941   6.088   5.189  1.3576  0.7069  2.4492
14131SOL    HW246951   8.975   6.235   5.179 -0.4923  1.0167 -0.2106
14132SOL     OW46952   9.157   3.766   2.684 -0.6175  0.1944 -0.1408
14132SOL    HW146953   9.125   3.851   2.654 -1.2129  0.7629  1.9391
14132SOL    HW246954   9.211   3.786   2.761  0.0751 -1.2300 -0.2168
14133SOL     OW46955  11.600   6.703   6.895 -0.2173  0.1196  0.3380
14133SOL    HW146956  11.597   6.794   6.865  0.2012  0.1525  0.4026
14133SOL    HW246957  11.686   6.671   6.868 -1.3293 -1.0936 -2.1340
14134SOL     OW46958   6.971   7.702   0.469  0.4508 -0.4987 -0.1317
14134SOL    HW146959   6.985   7.722   0.561 -0.0541  3.5147 -0.7627
14134SOL    HW246960   6.876   7.697   0.459  0.5079 -1.1706 -0.4566
14135SOL     OW46961   4.231   0.975   4.886  0.1216  0.0150  0.4245
14135SOL    HW146962   4.260   1.047   4.942 -0.8957  0.4000  0.4834
14135SOL    HW246963   4.175   0.922   4.943 -1.1894  0.5850 -0.2794
14136SOL     OW46964   3.661   2.604  10.141  0.5088  0.3652 -0.1911
14136SOL    HW146965   3.693   2.694  10.135 -0.9475  0.8761 -0.6405
14136SOL    HW246966   3.684   2.565  10.056  1.3093  0.2409  0.0745
14137SOL     OW46967   4.403  11.324   0.544  0.1681 -0.2501  0.5015
14137SOL    HW146968   4.406  11.229   0.554  0.1723  0.0063  4.2316
14137SOL    HW246969   4.467  11.343   0.475 -0.0800 -2.9113 -0.5906
14138SOL     OW46970   6.109   1.150   7.498 -0.1068  0.0463 -0.8226
14138SOL    HW146971   6.065   1.065   7.504  0.1221 -0.0471 -0.4211
14138SOL    HW246972   6.167   1.141   7.423  0.1770 -0.2760 -0.5675
14139SOL     OW46973   1.655   1.069   5.185 -0.1522  0.3158  0.1096
14139SOL    HW146974   1.607   1.045   5.105  0.3405 -2.3647  0.5121
14139SOL    HW246975   1.621   1.008   5.251  4.0524 -2.1947  0.2976
14140SOL     OW46976   2.049   2.248   0.405 -0.6604  0.4768  0.3385
14140SOL    HW146977   2.005   2.293   0.333  0.5817 -1.2932 -1.6447
14140SOL    HW246978   2.139   2.277   0.400  0.0787 -1.7270 -0.7124
14141SOL     OW46979   2.994  11.757   2.200  0.0722 -0.0486  0.0589
14141SOL    HW146980   2.953  11.817   2.262  0.3461  1.3099 -1.0096
14141SOL    HW246981   3.088  11.761   2.221 -0.1968 -2.9490  2.3299
14142SOL     OW46982  11.424   6.414   2.187  0.2129 -0.2176 -0.0773
14142SOL    HW146983  11.450   6.505   2.183 -1.5107  0.3048 -0.3265
14142SOL    HW246984  11.335   6.416   2.222  0.6339 -1.9092  1.2149
14143SOL     OW46985   4.690  11.551   9.132 -0.2931 -0.4261  0.2105
14143SOL    HW146986   4.724  11.629   9.176 -1.7452  0.6671 -0.5174
14143SOL    HW246987   4.735  11.478   9.174  2.6652  0.8600 -0.4789
14144SOL     OW46988   6.505   8.954   4.464 -0.7155 -0.0962 -0.2088
14144SOL    HW146989   6.519   8.999   4.548 -0.2394  0.8277 -0.7696
14144SOL    HW246990   6.470   9.022   4.406  0.4166 -0.3280 -1.1935
14145SOL     OW46991  10.067   7.254   4.453 -0.3607  0.3221 -0.0902
14145SOL    HW146992  10.104   7.295   4.531 -3.0667 -0.0047  1.4648
14145SOL    HW246993  10.139   7.202   4.417  1.2953  1.4098  1.4893
14146SOL     OW46994   8.718   6.673   5.508 -0.9114 -0.3541  0.3895
14146SOL    HW146995   8.813   6.662   5.519 -0.5527  0.9768 -1.0287
14146SOL    HW246996   8.680   6.612   5.571  0.8897  0.3395  2.2936
14147SOL     OW46997   4.786  11.776   5.806 -0.0472  0.0520  0.2024
14147SOL    HW146998   4.771  11.735   5.721  1.2557  0.7288 -0.3702
14147SOL    HW246999   4.826  11.860   5.786  1.0569 -0.1335  1.5123
14148SOL     OW47000   8.230   2.989   6.174 -0.0351  0.4395  0.1395
14148SOL    HW147001   8.295   3.052   6.142 -1.5213  1.8176 -0.3005
14148SOL    HW247002   8.229   3.002   6.269  0.1014  0.6303  0.1157
14149SOL     OW47003   1.636  10.824   6.523 -0.2898  0.2400 -0.1959
14149SOL    HW147004   1.697  10.796   6.592  0.2792 -0.9443 -1.1468
14149SOL    HW247005   1.675  10.903   6.487 -0.4047  0.6633  0.5715
14150SOL     OW47006   2.136   9.828   2.314 -0.2538 -0.9858  0.0522
14150SOL    HW147007   2.162   9.747   2.271  0.5009 -0.8155  0.1709
14150SOL    HW247008   2.201   9.840   2.383  0.9439  0.8112 -1.2971
14151SOL     OW47009   5.423   4.449   8.115 -0.0283 -0.3060 -0.2234
14151SOL    HW147010   5.338   4.458   8.072  0.6975  0.3143 -1.5589
14151SOL    HW247011   5.486   4.437   8.044  0.9551 -1.2757  0.7694
14152SOL     OW47012   9.568   0.049   1.712  0.0106 -0.3104  0.6027
14152SOL    HW147013   9.622   0.113   1.757 -0.1406  0.4361 -0.2504
14152SOL    HW247014   9.504   0.101   1.663 -1.3088 -1.1608  1.3570
14153SOL     OW47015  10.888  10.053   2.630 -0.6209 -0.0833  0.4574
14153SOL    HW147016  10.856  10.142   2.621  0.1999  0.1824  0.1581
14153SOL    HW247017  10.983  10.059   2.618 -0.4848 -0.9086  0.9937
14154SOL     OW47018   6.232   0.292   2.221 -0.3794  0.3872 -0.5779
14154SOL    HW147019   6.145   0.292   2.259 -0.4459 -1.2129 -0.6543
14154SOL    HW247020   6.287   0.250   2.287  0.1017  0.3296 -1.0065
14155SOL     OW47021   0.638   6.282   6.733  0.0343  0.1218  0.0426
14155SOL    HW147022   0.550   6.270   6.699 -0.3295  1.9861  0.2385
14155SOL    HW247023   0.642   6.225   6.809  0.0005 -2.1442 -1.5659
14156SOL     OW47024   2.516   7.409   4.787 -0.6962 -0.4689 -0.5698
14156SOL    HW147025   2.542   7.489   4.741 -1.3841  0.8637  1.2215
14156SOL    HW247026   2.575   7.342   4.754  1.9356  1.4086 -0.0078
14157SOL     OW47027   7.429   5.861   5.277  0.2595 -0.3029  0.5921
14157SOL    HW147028   7.449   5.774   5.243 -0.8831  0.1253 -1.3856
14157SOL    HW247029   7.376   5.846   5.355  1.6759 -1.3494  1.3935
14158SOL     OW47030   7.923   8.464   9.479  0.0183 -0.1959  0.5104
14158SOL    HW147031   8.008   8.425   9.458 -0.2380 -1.6535  1.9442
14158SOL    HW247032   7.860   8.412   9.429 -0.2097 -0.6976  1.3072
14159SOL     OW47033   6.892  11.827  10.548  0.2396 -0.0467 -0.3470
14159SOL    HW147034   6.951  11.798  10.479  1.8426 -1.8444  1.6323
14159SOL    HW247035   6.921  11.780  10.626 -2.3824  0.7717  1.2728
14160SOL     OW47036   8.271   9.917   5.183  0.2586  0.6038  0.0219
14160SOL    HW147037   8.316   9.982   5.129 -1.7239  1.9469 -0.1302
14160SOL    HW247038   8.303   9.933   5.272 -0.4223  2.0565  0.0437
14161SOL     OW47039   6.691   7.806   7.369  0.0549  0.2229 -0.1624
14161SOL    HW147040   6.628   7.804   7.441  0.7106  1.3018  0.4714
14161SOL    HW247041   6.771   7.767   7.406  0.2592  0.3677 -0.4486
14162SOL     OW47042   0.325   7.433   6.906  0.0069  0.5260 -0.1027
14162SOL    HW147043   0.372   7.371   6.962  0.4524  0.9923  0.0427
14162SOL    HW247044   0.368   7.425   6.820 -0.9323 -0.4808 -0.5107
14163SOL     OW47045   5.813   8.152   4.460  1.0369 -0.0470 -0.3825
14163SOL    HW147046   5.756   8.222   4.493  0.0265 -0.1653 -1.8143
14163SOL    HW247047   5.902   8.188   4.468  0.5144  1.6247 -1.5653
14164SOL     OW47048   3.428   3.470  10.297 -0.2512  0.1052  0.8856
14164SOL    HW147049   3.466   3.385  10.321 -0.5146  0.1119  1.3435
14164SOL    HW247050   3.437   3.474  10.201  1.2063  0.2658  1.0090
14165SOL     OW47051   4.747   4.907   6.131  1.0545 -0.2732  0.4152
14165SOL    HW147052   4.677   4.854   6.167  0.0346  1.5448  1.2311
14165SOL    HW247053   4.712   4.996   6.130  2.7837  0.4523 -0.6493
14166SOL     OW47054   3.665   8.906   5.541  0.0556  0.4480  0.0411
14166SOL    HW147055   3.584   8.864   5.572 -0.9639  2.2044 -0.1219
14166SOL    HW247056   3.635   8.985   5.495  1.7827  0.3399 -1.4029
14167SOL     OW47057   4.714   9.873   3.837  0.3389  0.1050  0.0508
14167SOL    HW147058   4.777   9.929   3.883  0.5574 -0.9046  1.0277
14167SOL    HW247059   4.685   9.810   3.903 -2.4494  1.1041 -0.1101
14168SOL     OW47060  10.389   9.945   0.284 -0.5954 -0.2476 -0.0659
14168SOL    HW147061  10.469   9.929   0.234 -1.3154 -0.5020 -1.1645
14168SOL    HW247062  10.398   9.891   0.362  0.2006 -0.4610 -0.2963
14169SOL     OW47063   1.221  10.846   3.352 -0.1463 -0.1435  0.6500
14169SOL    HW147064   1.167  10.768   3.341 -0.2647 -0.0685  0.6895
14169SOL    HW247065   1.310  10.818   3.330 -0.6685  0.5093 -2.7943
14170SOL     OW47066   6.607   6.030   9.539 -0.4143 -0.0238  0.1609
14170SOL    HW147067   6.570   6.049   9.625 -3.4334 -0.9648 -0.7617
14170SOL    HW247068   6.595   6.111   9.489  0.2758  0.1607  0.2847
14171SOL     OW47069   1.236   9.468   8.463 -0.7059 -0.1565 -0.2625
14171SOL    HW147070   1.166   9.437   8.406 -2.1218  1.3570  0.5855
14171SOL    HW247071   1.253   9.558   8.435 -0.7913  0.3022  1.0605
14172SOL     OW47072   8.803   1.584   4.524 -0.1707 -0.1891  0.2013
14172SOL    HW147073   8.708   1.578   4.515 -0.8472  1.4752  4.1449
14172SOL    HW247074   8.825   1.671   4.492  0.1118 -0.6968 -1.0164
14173SOL     OW47075   0.671   2.018   0.512  0.2988  0.8587 -0.0141
14173SOL    HW147076   0.595   1.971   0.477  1.2034 -0.7327  0.0968
14173SOL    HW247077   0.634   2.075   0.579 -0.6370 -1.3493  1.4671
14174SOL     OW47078   5.584   1.187   3.156  0.0471  0.2778  0.0560
14174SOL    HW147079   5.492   1.165   3.141 -0.1256  1.0695 -0.0711
14174SOL    HW247080   5.611   1.232   3.076  0.3028  0.8032  0.4344
14175SOL     OW47081   6.773   5.499   5.349 -0.0123 -0.2277 -0.6906
14175SOL    HW147082   6.686   5.526   5.379 -0.3921  0.3668 -2.2635
14175SOL    HW247083   6.816   5.581   5.324  1.6015 -0.3223  1.4706
14176SOL     OW47084   2.460  11.079  11.714 -0.0115  0.2814 -0.0816
14176SOL    HW147085   2.404  11.054  11.640  1.8797  0.2201 -1.5481
14176SOL    HW247086   2.416  11.156  11.752 -1.0810  0.2364 -1.1866
14177SOL     OW47087   1.893  10.858   9.298 -0.2312  0.2623  0.1582
14177SOL    HW147088   1.937  10.927   9.348 -0.0420  0.9554 -0.9402
14177SOL    HW247089   1.846  10.807   9.364  2.2214 -0.5471  1.4322
14178SOL     OW47090   2.769   7.502   3.199  0.3145  0.2009 -0.8299
14178SOL    HW147091   2.711   7.429   3.221  0.0249  0.2128 -1.5400
14178SOL    HW247092   2.823   7.514   3.277 -0.8801  0.4184 -0.0051
14179SOL     OW47093   0.512   5.990   9.992  0.4724 -0.5794 -0.6381
14179SOL    HW147094   0.458   6.010   9.915  2.0088 -0.9535 -1.8499
14179SOL    HW247095   0.492   5.899  10.012  0.5041 -0.6581 -0.9582
14180SOL     OW47096  11.784   6.336   7.546  0.0272 -0.3351  0.4285
14180SOL    HW147097  11.827   6.410   7.587  0.7859  1.0737 -2.6315
14180SOL    HW247098  11.825   6.259   7.586  1.0656  0.8886  1.8297
14181SOL     OW47099   6.279   0.680   1.000 -0.7965 -0.3038  0.2310
14181SOL    HW147100   6.241   0.720   1.079  1.7040 -0.3220  1.5433
14181SOL    HW247101   6.333   0.609   1.033  1.2266  0.3947 -1.3727
14182SOL     OW47102   0.319   6.217   0.054 -0.0377 -0.2490  0.1202
14182SOL    HW147103   0.376   6.175   0.118  0.2640  0.9582  0.6835
14182SOL    HW247104   0.266   6.146   0.018 -1.6075 -0.7480  3.0935
14183SOL     OW47105   9.485   6.378   3.958  0.3161  0.2588  0.5740
14183SOL    HW147106   9.420   6.377   4.028 -0.0264 -0.1002  0.2516
14183SOL    HW247107   9.548   6.310   3.982 -0.4485 -0.7013 -0.0681
14184SOL     OW47108   0.702  10.256  10.270 -0.4849  0.3796  0.0719
14184SOL    HW147109   0.694  10.313  10.346  1.1911  0.1671  0.4317
14184SOL    HW247110   0.796  10.241  10.260 -0.5827  0.9135 -2.4304
14185SOL     OW47111   1.567   9.700   3.732 -0.6620 -0.0372  0.3999
14185SOL    HW147112   1.552   9.625   3.675 -0.2724  0.1033  0.1092
14185SOL    HW247113   1.487   9.753   3.723 -1.0518 -0.5374  0.8113
14186SOL     OW47114   1.552   5.947   9.748  0.0182  0.0665  0.0739
14186SOL    HW147115   1.541   5.894   9.827  0.2087 -0.4586 -0.2496
14186SOL    HW247116   1.565   6.036   9.781  0.9558 -0.2744  0.6726
14187SOL     OW47117   6.339   5.180   2.254 -0.2138  0.0216 -0.0930
14187SOL    HW147118   6.395   5.257   2.255 -0.6713  0.4454  2.7350
14187SOL    HW247119   6.375   5.124   2.323 -2.6539 -0.0739  1.2376
14188SOL     OW47120   4.064   6.592   6.019  0.2724 -0.6449 -0.3418
14188SOL    HW147121   4.070   6.510   5.970  0.3360 -0.1357 -1.2157
14188SOL    HW247122   4.056   6.566   6.110 -0.2261 -1.6287 -0.6589
14189SOL     OW47123  11.467  10.003   7.821 -0.4073  0.0579  0.6326
14189SOL    HW147124  11.439   9.977   7.733 -0.7278  1.6880  0.2204
14189SOL    HW247125  11.418  10.084   7.839  1.6979  1.2862  1.1734
14190SOL     OW47126  11.933  11.550   4.543  0.1552 -0.1303 -0.5401
14190SOL    HW147127  11.942  11.532   4.450 -3.5362 -0.3412 -1.0258
14190SOL    HW247128  11.906  11.642   4.548 -0.9485 -0.4607  0.1313
14191SOL     OW47129   4.046   1.249   1.308  0.3067 -0.1840 -0.6566
14191SOL    HW147130   4.103   1.172   1.302 -0.4894 -0.8239 -0.2432
14191SOL    HW247131   4.021   1.267   1.218  0.2921 -0.5650 -0.7304
14192SOL     OW47132   7.368   5.160   8.525  0.1494 -0.3012  0.2984
14192SOL    HW147133   7.397   5.191   8.611 -1.4884  1.0333  0.4290
14192SOL    HW247134   7.387   5.233   8.466 -0.2858 -0.5359 -0.1394
14193SOL     OW47135   6.840  11.648   9.414  0.2584  0.5751  0.0766
14193SOL    HW147136   6.779  11.720   9.397  2.1282  2.3796  0.6168
14193SOL    HW247137   6.864  11.615   9.328  0.9405  1.9988 -0.2995
14194SOL     OW47138  12.102   6.543   8.227  0.0175 -0.2636 -0.5012
14194SOL    HW147139  12.010   6.571   8.226  0.4721  1.3534  0.1997
14194SOL    HW247140  12.121   6.524   8.319  1.0336  1.8084 -0.2331
14195SOL     OW47141   8.654   6.831   4.950 -0.4108  0.1486  0.2237
14195SOL    HW147142   8.711   6.841   5.026  2.0896  0.7019 -1.6102
14195SOL    HW247143   8.663   6.740   4.924  0.7995  0.5505 -0.8706
14196SOL     OW47144   2.401  11.792   5.173 -0.5885  0.0989  0.0483
14196SOL    HW147145   2.418  11.707   5.133  1.9627  0.1449  0.8470
14196SOL    HW247146   2.306  11.800   5.175 -0.8578 -2.1037 -1.3121
14197SOL     OW47147   5.833   2.363   6.530  0.5825 -0.3259  0.1880
14197SOL    HW147148   5.818   2.344   6.623  1.2571 -0.9688  0.1732
14197SOL    HW247149   5.824   2.458   6.523  0.7037 -0.2536  0.9411
14198SOL     OW47150  10.265   9.178   3.394 -0.2833 -0.2682 -0.5993
14198SOL    HW147151  10.351   9.136   3.386  0.4029  1.3240 -2.2499
14198SOL    HW247152  10.229   9.144   3.476  2.7141  0.4108  1.1276
14199SOL     OW47153   6.225   1.453   2.508 -0.1489  0.0842  0.1718
14199SOL    HW147154   6.149   1.479   2.456 -0.0983  1.0867  0.5888
14199SOL    HW247155   6.230   1.358   2.496 -2.1647 -0.1836  1.0446
14200SOL     OW47156   8.705  10.966   0.322  0.0607  0.4029 -0.4466
14200SOL    HW147157   8.654  10.916   0.385  0.4730  1.1252  0.4882
14200SOL    HW247158   8.656  11.048   0.312 -0.8131 -0.2802 -2.2480
14201SOL     OW47159   7.687   5.944   0.041  0.2463  0.3568  0.4911
14201SOL    HW147160   7.728   6.022   0.005 -0.8265  0.7130 -0.0185
14201SOL    HW247161   7.593   5.957   0.024 -0.2021  0.0540  2.4791
14202SOL     OW47162   8.497   1.015   5.514  0.0532 -0.2527 -0.7557
14202SOL    HW147163   8.526   1.084   5.455 -0.5079  1.2681  0.6665
14202SOL    HW247164   8.457   1.061   5.588 -2.2029 -2.1436 -0.6726
14203SOL     OW47165   4.568  11.680  12.093 -0.0929  0.0257 -0.2297
14203SOL    HW147166   4.590  11.649  12.181  0.9540  1.2895 -0.0096
14203SOL    HW247167   4.526  11.765  12.107  1.5548  1.0111 -0.9861
14204SOL     OW47168   1.156   6.288  10.282 -0.0520 -0.0958 -0.5538
14204SOL    HW147169   1.157   6.224  10.211 -2.1826  0.1505 -0.8829
14204SOL    HW247170   1.163   6.236  10.362 -0.6504 -0.6727 -0.8601
14205SOL     OW47171   3.116   0.504   3.549 -0.2448  0.0935  0.3757
14205SOL    HW147172   3.107   0.420   3.595  0.8724  0.6754  1.7486
14205SOL    HW247173   3.063   0.565   3.601 -0.7017  0.3307 -0.3633
14206SOL     OW47174   4.428   8.677   3.312  0.2836  0.2272 -0.0671
14206SOL    HW147175   4.341   8.661   3.275  0.1008 -2.2830  1.2429
14206SOL    HW247176   4.489   8.653   3.242 -0.0396  1.2954 -0.7370
14207SOL     OW47177   9.169   2.596   6.897  0.6081 -0.2326 -0.0151
14207SOL    HW147178   9.189   2.509   6.933  0.1566 -0.7293 -0.9487
14207SOL    HW247179   9.099   2.629   6.952  0.8652 -0.4003  0.4220
14208SOL     OW47180   3.166   6.945   8.775 -0.4059  0.2085 -0.1841
14208SOL    HW147181   3.131   6.910   8.693  1.2499 -2.2710  0.0577
14208SOL    HW247182   3.256   6.912   8.779  0.5954  2.7924  1.2207
14209SOL     OW47183  10.609   7.730   4.069 -0.7982 -0.1468  0.3315
14209SOL    HW147184  10.624   7.816   4.109 -0.3203 -0.4237  0.7589
14209SOL    HW247185  10.551   7.748   3.995  0.6414  0.7978 -0.6286
14210SOL     OW47186   2.532   4.443   9.454 -0.0944 -0.3861 -0.4596
14210SOL    HW147187   2.526   4.490   9.537  1.3416 -1.6094  0.3980
14210SOL    HW247188   2.532   4.511   9.387  5.7514  1.4626  0.7898
14211SOL     OW47189   1.367   7.291   4.944  0.0300 -0.4760  0.1061
14211SOL    HW147190   1.425   7.321   5.014  0.6025 -0.1378 -0.5008
14211SOL    HW247191   1.426   7.246   4.883 -0.3972 -0.4032 -0.3597
14212SOL     OW47192   5.363   3.781   9.219 -0.1469  0.2106 -0.0453
14212SOL    HW147193   5.302   3.842   9.260  1.1826  1.3187  0.3830
14212SOL    HW247194   5.366   3.807   9.127 -3.8035 -2.8325 -1.2684
14213SOL     OW47195  11.290   2.377   3.537 -0.2720  0.1103  0.3168
14213SOL    HW147196  11.273   2.285   3.559 -0.0372 -0.4897 -1.7619
14213SOL    HW247197  11.214   2.424   3.571 -0.9803 -1.0326  0.3821
14214SOL     OW47198   1.574   2.998   0.405 -0.0952  0.5766 -0.0048
14214SOL    HW147199   1.623   2.948   0.470  1.1624  0.8465 -0.7083
14214SOL    HW247200   1.515   3.053   0.456  0.7029  0.6147  0.8984
14215SOL     OW47201   4.351   2.175   6.454  0.4155  0.1985 -0.3862
14215SOL    HW147202   4.342   2.253   6.400 -1.0711  0.8484  0.7382
14215SOL    HW247203   4.396   2.205   6.533 -2.4103  0.5527  1.1851
14216SOL     OW47204   4.651  10.828   6.363 -0.2167  0.8248  0.2474
14216SOL    HW147205   4.701  10.904   6.391  3.0910 -1.5776  1.4683
14216SOL    HW247206   4.665  10.763   6.431  0.3095 -2.1328 -2.4295
14217SOL     OW47207  10.461   0.873  10.653  0.6207  0.2013  0.1244
14217SOL    HW147208  10.468   0.968  10.665 -2.1160  0.5803 -0.6271
14217SOL    HW247209  10.483   0.859  10.561 -0.1597  0.2952 -0.0835
14218SOL     OW47210   3.055   1.283   9.563 -0.4086  0.1125 -0.1007
14218SOL    HW147211   3.028   1.352   9.503 -1.0695 -0.4393 -0.4501
14218SOL    HW247212   3.024   1.202   9.523  0.6526 -0.4370  0.1300
14219SOL     OW47213   3.826   1.636   1.519 -0.6791 -0.4048 -0.4450
14219SOL    HW147214   3.774   1.673   1.448 -1.7991 -2.2136 -0.6442
14219SOL    HW247215   3.902   1.597   1.475 -0.7376 -0.4322 -0.5221
14220SOL     OW47216   2.402   4.158   1.790  0.0780 -0.6819 -0.1623
14220SOL    HW147217   2.488   4.178   1.826 -0.0934 -1.0805  0.4855
14220SOL    HW247218   2.380   4.071   1.825 -0.8102 -0.3663  0.1050
14221SOL     OW47219   6.598  10.068  10.524  0.2064  0.3073 -0.0833
14221SOL    HW147220   6.556  10.142  10.479 -1.0969 -0.7351 -0.6834
14221SOL    HW247221   6.663  10.108  10.581  0.7937  1.7976 -1.7065
14222SOL     OW47222   3.707  11.363   9.781  0.3883  0.3243 -0.5077
14222SOL    HW147223   3.619  11.396   9.795 -1.0549 -3.0410 -0.7010
14222SOL    HW247224   3.712  11.284   9.835  2.6632 -0.4901 -1.7544
14223SOL     OW47225   1.391   9.675  10.506  0.1293 -0.4789 -0.4799
14223SOL    HW147226   1.474   9.628  10.509  0.6487  0.4472  0.8096
14223SOL    HW247227   1.382   9.703  10.415  1.3235 -0.4355 -0.5973
14224SOL     OW47228   2.481   3.283   9.645 -0.0200  0.3027 -0.1410
14224SOL    HW147229   2.400   3.261   9.690  0.2229  0.8319  0.5642
14224SOL    HW247230   2.545   3.298   9.714  1.2074 -1.9284 -0.7057
14225SOL     OW47231   8.452   5.965   7.342 -0.2058 -0.5814 -0.2293
14225SOL    HW147232   8.372   6.013   7.361  0.3695  0.0061  0.7502
14225SOL    HW247233   8.504   6.024   7.288 -0.3098 -0.8603 -0.6428
14226SOL     OW47234   4.074  10.360   6.312  0.6528 -0.6422 -0.0248
14226SOL    HW147235   4.159  10.321   6.333  0.8885 -0.1649 -0.0846
14226SOL    HW247236   4.071  10.440   6.364  0.0018 -0.9329  0.4028
14227SOL     OW47237   7.524   8.387   9.490  0.4880 -0.1046  0.4689
14227SOL    HW147238   7.501   8.433   9.571 -0.5730 -0.2349  0.2541
14227SOL    HW247239   7.510   8.452   9.421 -0.4086 -0.5324  0.2253
14228SOL     OW47240   5.356   7.109   7.707 -0.6104 -0.2770 -0.0045
14228SOL    HW147241   5.412   7.185   7.723 -1.0834 -0.2052  1.4318
14228SOL    HW247242   5.417   7.036   7.695 -0.1617  0.2601 -1.1431
14229SOL     OW47243   8.331   7.683   8.103  0.1279  0.0180 -0.1171
14229SOL    HW147244   8.357   7.687   8.011 -0.5525 -1.2145 -0.3852
14229SOL    HW247245   8.389   7.617   8.142  1.2006  1.3327  0.6522
14230SOL     OW47246   0.891   2.480  10.521 -0.6428  0.0401  0.3364
14230SOL    HW147247   0.931   2.567  10.524 -3.6075  1.6065 -0.8273
14230SOL    HW247248   0.841   2.473  10.602 -0.4699 -0.5308  0.3933
14231SOL     OW47249  11.402   4.140  11.516 -0.1707 -0.4620 -0.0536
14231SOL    HW147250  11.434   4.187  11.439 -0.4803 -1.2020 -0.6472
14231SOL    HW247251  11.418   4.200  11.589 -0.4516  0.5133 -0.7690
14232SOL     OW47252   9.272   8.681   8.760 -0.4754 -0.0849  0.0642
14232SOL    HW147253   9.203   8.621   8.733  0.3473 -1.0588  0.0690
14232SOL    HW247254   9.294   8.655   8.849  0.5656 -0.4302 -0.2832
14233SOL     OW47255  10.151   7.942  10.222  0.0416  0.2633  0.0038
14233SOL    HW147256  10.143   8.032  10.255  0.3552  2.5494 -5.2314
14233SOL    HW247257  10.061   7.917  10.201  0.1169 -0.0761  0.0863
14234SOL     OW47258   0.199   0.192   4.679  0.2996 -0.2799 -0.0340
14234SOL    HW147259   0.198   0.158   4.589  0.0042 -0.4477  0.0306
14234SOL    HW247260   0.283   0.237   4.687  0.4494 -0.5091 -0.3040
14235SOL     OW47261   1.235   1.632   7.252  0.3097 -0.2890  0.0177
14235SOL    HW147262   1.262   1.660   7.165  0.0537  0.5457  0.2033
14235SOL    HW247263   1.164   1.691   7.276  0.2720 -0.6097  0.7339
14236SOL     OW47264   0.750   0.034   5.688 -0.1364 -0.3478  0.3099
14236SOL    HW147265   0.676   0.017   5.630 -0.5519  1.5022  0.2203
14236SOL    HW247266   0.782  -0.052   5.713 -1.0500 -1.1853 -1.2671
14237SOL     OW47267   1.486   7.181  10.153 -0.2325 -0.0541  0.2134
14237SOL    HW147268   1.455   7.272  10.151  2.0035  0.7769 -0.4534
14237SOL    HW247269   1.475   7.154  10.244  0.2082  1.3339  0.7078
14238SOL     OW47270   4.861   8.016   1.370 -0.2586 -0.2044  0.4123
14238SOL    HW147271   4.791   8.058   1.420 -2.1881 -2.6874 -0.0270
14238SOL    HW247272   4.815   7.963   1.304  2.0352 -1.7650 -0.0492
14239SOL     OW47273   6.003   3.080   8.224  0.3868  0.3981 -0.4984
14239SOL    HW147274   6.018   3.163   8.179 -1.7698 -0.1756 -2.4890
14239SOL    HW247275   5.908   3.069   8.223  0.4773 -1.1429  1.5528
14240SOL     OW47276   0.169  10.913   0.030  0.5966  0.2359  0.2297
14240SOL    HW147277   0.139  10.992   0.074  1.2425  0.8628 -0.4112
14240SOL    HW247278   0.241  10.943  -0.026  1.0276 -0.8522  0.1690
14241SOL     OW47279   1.740   2.640   2.545  0.1816  0.3637 -0.0210
14241SOL    HW147280   1.765   2.605   2.460 -0.0855 -1.0818  0.4645
14241SOL    HW247281   1.743   2.736   2.534  0.4324  0.2015 -1.5474
14242SOL     OW47282   6.402   2.894   9.646  0.5563  0.3719 -0.3095
14242SOL    HW147283   6.393   2.968   9.707 -0.4981 -0.0450  0.0857
14242SOL    HW247284   6.417   2.818   9.703 -0.2686  0.0025 -0.5528
14243SOL     OW47285  10.507   5.766   7.497  0.1318 -0.1938  0.4297
14243SOL    HW147286  10.562   5.788   7.572 -0.4191 -1.4580  1.2516
14243SOL    HW247287  10.568   5.758   7.423  1.5999 -4.0912  1.7760
14244SOL     OW47288   9.576   4.490   8.470 -0.0185  0.0064  0.4700
14244SOL    HW147289   9.519   4.507   8.545  0.6373 -1.2568  1.2869
14244SOL    HW247290   9.662   4.520   8.498 -0.3126  2.4796 -0.9795
14245SOL     OW47291   1.746   5.712  10.664  0.0769 -0.0619  0.2134
14245SOL    HW147292   1.772   5.769  10.592  0.3561 -0.1297  0.2598
14245SOL    HW247293   1.806   5.637  10.659 -0.2254 -0.3075  0.2088
14246SOL     OW47294   2.445   8.012   1.808 -0.4741  0.0256 -0.5524
14246SOL    HW147295   2.529   8.057   1.805 -0.6798  0.3828 -1.3499
14246SOL    HW247296   2.437   7.971   1.721 -1.1347  0.0205 -0.4943
14247SOL     OW47297   0.559   1.450  11.916 -0.0083  0.2345 -0.5779
14247SOL    HW147298   0.543   1.445  11.822  1.7492 -1.3665 -0.8580
14247SOL    HW247299   0.610   1.371  11.936  0.7919  1.1982  1.4787
14248SOL     OW47300  10.396   4.943   6.308  0.4251 -0.0757  0.2555
14248SOL    HW147301  10.393   4.974   6.217 -0.0524 -0.2188  0.2191
14248SOL    HW247302  10.413   5.021   6.360 -1.9117  0.4978  0.2692
14249SOL     OW47303   0.968  11.593   7.154  0.0239  0.3614 -0.2819
14249SOL    HW147304   0.987  11.526   7.089 -0.2694  1.3027 -1.3699
14249SOL    HW247305   0.919  11.660   7.106  1.0458  1.7609  0.5623
14250SOL     OW47306  11.093   3.647  10.251  0.0145  0.2953  0.8467
14250SOL    HW147307  11.173   3.662  10.200 -0.5694  1.0106  0.1120
14250SOL    HW247308  11.105   3.699  10.331  0.9178 -0.8001  1.4508
14251SOL     OW47309   8.452   1.785   7.157  0.5020  0.5162  0.2674
14251SOL    HW147310   8.484   1.695   7.165  0.1737  0.5044  1.8941
14251SOL    HW247311   8.426   1.794   7.065 -1.8620 -1.9142  0.5627
14252SOL     OW47312   9.873  10.943   1.400  0.4247 -0.5010 -0.1789
14252SOL    HW147313   9.793  10.973   1.442  1.1504 -0.4536  1.2162
14252SOL    HW247314   9.893  10.860   1.441 -0.8520 -2.4314 -3.1084
14253SOL     OW47315   6.771   7.956   6.817  0.1666 -0.7088 -0.3614
14253SOL    HW147316   6.708   7.966   6.745  0.0379 -1.1585 -0.3186
14253SOL    HW247317   6.736   7.883   6.869  0.5648 -0.7658 -0.1710
14254SOL     OW47318   8.841   8.534   6.840 -0.3168 -0.0328  0.0720
14254SOL    HW147319   8.898   8.515   6.765 -0.3601  0.2957 -0.0452
14254SOL    HW247320   8.785   8.456   6.847  0.0675 -0.3073  0.1195
14255SOL     OW47321   0.654   2.123   6.589 -0.8850 -0.0552  0.1336
14255SOL    HW147322   0.571   2.162   6.616 -1.7172 -1.1587 -0.6759
14255SOL    HW247323   0.691   2.087   6.670 -0.7950  1.1280  0.6346
14256SOL     OW47324   7.695   5.414  11.160  0.1536 -0.6664 -0.7212
14256SOL    HW147325   7.727   5.469  11.088  2.5312  1.3160  1.6349
14256SOL    HW247326   7.741   5.447  11.238 -0.3544 -4.2736  1.3490
14257SOL     OW47327  10.372  10.445   3.480 -0.4733 -0.0567  0.2543
14257SOL    HW147328  10.421  10.419   3.402 -0.6276 -2.3252  0.8294
14257SOL    HW247329  10.289  10.479   3.446 -0.6645 -1.3020 -0.6172
14258SOL     OW47330   1.244  10.187   1.250 -0.1592  0.6022 -0.2752
14258SOL    HW147331   1.260  10.257   1.313 -0.1244  0.5147 -0.1858
14258SOL    HW247332   1.163  10.145   1.281 -0.0009  0.3944 -0.1389
14259SOL     OW47333   3.758   1.503   7.636 -0.0147  0.2380  0.2876
14259SOL    HW147334   3.783   1.595   7.639 -0.0665  0.2306  1.0234
14259SOL    HW247335   3.690   1.498   7.569  0.4662  0.6167 -0.2339
14260SOL     OW47336   0.943   6.153   1.815 -0.1600  0.3729  0.0558
14260SOL    HW147337   0.991   6.091   1.759  2.7699  1.4275  1.2197
14260SOL    HW247338   0.874   6.187   1.759  0.0504 -1.6609 -1.5730
14261SOL     OW47339   4.194  10.741   6.267 -0.4820  0.2069 -0.2971
14261SOL    HW147340   4.150  10.744   6.182  4.0817 -0.2047 -3.0556
14261SOL    HW247341   4.228  10.830   6.280  0.7437 -0.2582 -0.1230
14262SOL     OW47342   2.520   3.676   0.913 -0.3115  0.3407  0.0834
14262SOL    HW147343   2.470   3.728   0.850 -2.3392 -0.0035  1.3432
14262SOL    HW247344   2.494   3.709   0.999 -0.6425 -1.7992  0.8685
14263SOL     OW47345   8.077   1.422   7.744  0.0533 -0.4554  0.0033
14263SOL    HW147346   8.160   1.397   7.703  0.5146 -0.0052  0.6457
14263SOL    HW247347   8.021   1.345   7.732  0.2406 -0.4125 -1.2737
14264SOL     OW47348   1.070   0.513  10.319 -0.1821  0.1958 -0.6902
14264SOL    HW147349   1.029   0.590  10.279  1.1397  0.2611 -2.0240
14264SOL    HW247350   1.008   0.442  10.305 -1.2749  0.9339  0.2708
14265SOL     OW47351   0.574  10.218   3.120  0.2944 -0.1264 -0.0880
14265SOL    HW147352   0.649  10.276   3.130 -0.0699  0.3850 -0.2823
14265SOL    HW247353   0.564  10.206   3.026  0.2012 -0.2762 -0.0599
14266SOL     OW47354  10.760   5.009   1.730  0.1581  0.1626  0.0716
14266SOL    HW147355  10.749   5.098   1.696 -0.1886  0.4423  0.8895
14266SOL    HW247356  10.681   4.962   1.701  0.1698  0.2151 -0.0500
14267SOL     OW47357   1.705   9.972   0.291  0.6603 -0.5545  0.1207
14267SOL    HW147358   1.799   9.966   0.272  0.4989 -1.0100 -0.5416
14267SOL    HW247359   1.677   9.881   0.304  0.0030 -0.5667 -1.2239
14268SOL     OW47360   8.820  11.454   8.723  0.0270  0.3785 -0.4083
14268SOL    HW147361   8.832  11.382   8.661  0.3537 -0.4106  0.5492
14268SOL    HW247362   8.736  11.435   8.766 -0.8411  1.6155 -1.4965
14269SOL     OW47363   1.671   1.329  11.148  0.5094  0.1463  0.0958
14269SOL    HW147364   1.638   1.413  11.118  0.0731 -0.0420  0.0459
14269SOL    HW247365   1.624   1.312  11.229  3.2488  1.7202  2.2069
14270SOL     OW47366   7.975   7.689   2.594  0.0689 -0.1370 -0.2320
14270SOL    HW147367   7.975   7.596   2.618 -0.6881  0.4194  2.1766
14270SOL    HW247368   8.068   7.713   2.592  0.2182 -0.5009  1.1916
14271SOL     OW47369   7.545   5.122   7.363 -0.0719 -0.2242 -0.0083
14271SOL    HW147370   7.611   5.057   7.339 -0.8554 -0.8836 -0.4137
14271SOL    HW247371   7.555   5.191   7.297 -1.2703 -1.3729 -1.4663
14272SOL     OW47372  11.780   6.433   8.320 -0.1001 -0.2254  0.0821
14272SOL    HW147373  11.841   6.369   8.284  1.4795  0.4403  1.4503
14272SOL    HW247374  11.697   6.386   8.328  0.5879 -1.5776 -0.5271
14273SOL     OW47375   2.980   2.055   0.939 -0.0598 -0.0096 -0.2899
14273SOL    HW147376   2.969   2.147   0.915  0.8549  0.2183  0.1175
14273SOL    HW247377   2.967   2.053   1.033  0.8391 -0.1419 -0.1655
14274SOL     OW47378   9.322   9.246   3.682  0.8166  0.1490  0.0144
14274SOL    HW147379   9.336   9.307   3.754  1.4707  0.2327 -0.1778
14274SOL    HW247380   9.376   9.170   3.704  0.8696  0.0954 -0.2939
14275SOL     OW47381   0.443   6.674   0.214 -0.4239  0.4602 -0.2472
14275SOL    HW147382   0.506   6.611   0.250 -0.9619  0.6501  1.0755
14275SOL    HW247383   0.410   6.632   0.134 -0.2794 -0.6321  0.2553
14276SOL     OW47384   5.996   8.074   3.757  0.0758  0.4594 -0.4557
14276SOL    HW147385   5.939   8.149   3.775 -2.1580 -1.6662  2.2261
14276SOL    HW247386   5.941   8.014   3.707 -0.2156 -1.6094  2.1251
14277SOL     OW47387   4.443   7.619   6.776 -0.1242  0.0727 -0.2493
14277SOL    HW147388   4.517   7.560   6.764  1.0282  1.2640  0.6554
14277SOL    HW247389   4.482   7.700   6.810 -1.7089  1.1531 -0.8802
14278SOL     OW47390  10.881   7.478   5.943  0.2572 -0.6004  0.3509
14278SOL    HW147391  10.884   7.529   6.024  0.0315  0.2056 -0.1341
14278SOL    HW247392  10.842   7.395   5.969 -0.2784 -0.1705  0.9861
14279SOL     OW47393   5.131   6.867   3.252  0.0829  0.5929  0.5411
14279SOL    HW147394   5.180   6.902   3.326 -0.4934 -0.5952  1.5177
14279SOL    HW247395   5.101   6.781   3.281 -0.9869  0.5013 -0.7189
14280SOL     OW47396   0.637  10.858   3.915 -0.0269  0.0570 -0.0910
14280SOL    HW147397   0.632  10.817   3.828 -1.6667  0.2421 -0.1250
14280SOL    HW247398   0.702  10.806   3.962  0.7370 -0.1794 -1.3574
14281SOL     OW47399   9.852   4.066   4.540 -0.5715 -0.3171  0.5282
14281SOL    HW147400   9.882   3.989   4.490 -1.0155 -0.1004 -0.0801
14281SOL    HW247401   9.814   4.124   4.474  1.3795  1.2657  0.6825
14282SOL     OW47402   1.329   7.925   5.471 -0.1910 -0.0881  0.3364
14282SOL    HW147403   1.236   7.907   5.486 -0.4177  1.7381  1.3662
14282SOL    HW247404   1.360   7.963   5.553  1.4076 -0.3422 -0.1073
14283SOL     OW47405   9.927   4.672   3.556  0.2053  0.0347 -0.2165
14283SOL    HW147406   9.873   4.670   3.477  0.1288  0.4553 -0.1780
14283SOL    HW247407   9.979   4.752   3.547  0.0819  0.1669  0.2372
14284SOL     OW47408   0.046   2.992   1.356  0.2563  0.4968 -0.1315
14284SOL    HW147409   0.068   3.068   1.302 -2.9129  1.1935 -0.6506
14284SOL    HW247410   0.067   3.019   1.446  2.4247  0.5920 -0.6177
14285SOL     OW47411   9.431   3.207  12.087  0.0321  0.0418 -0.3121
14285SOL    HW147412   9.365   3.236  12.023 -0.4132 -2.7108 -1.2602
14285SOL    HW247413   9.514   3.234  12.049 -0.0907 -2.8689 -3.0369
14286SOL     OW47414   4.424   6.429   9.166 -0.5445 -0.1149  1.2346
14286SOL    HW147415   4.331   6.424   9.142 -0.4145  0.5728  0.5375
14286SOL    HW247416   4.432   6.509   9.217 -0.1779  0.3152  0.5146
14287SOL     OW47417  11.361  11.894   2.155  0.1597  0.2154  0.0202
14287SOL    HW147418  11.330  11.876   2.066  0.2856  0.0717  0.0045
14287SOL    HW247419  11.336  11.985   2.171 -0.8452 -0.0901  0.2489
14288SOL     OW47420   2.761   9.858   4.844 -0.3211 -0.3573  0.4576
14288SOL    HW147421   2.847   9.851   4.804 -0.0085  1.7049  0.6714
14288SOL    HW247422   2.708   9.791   4.799  0.9374 -0.5313 -0.8331
14289SOL     OW47423   9.292   5.030  10.664  0.2604 -0.5405  0.1875
14289SOL    HW147424   9.385   5.053  10.667  0.0471  0.4428 -0.1380
14289SOL    HW247425   9.250   5.110  10.632 -0.8521 -0.4994  1.6960
14290SOL     OW47426   8.687   5.230   1.985 -0.2272 -0.0655 -0.5591
14290SOL    HW147427   8.627   5.257   1.915 -0.4374  0.2468 -0.2637
14290SOL    HW247428   8.632   5.228   2.064  0.3762  1.2817 -0.0742
14291SOL     OW47429   6.521   4.224   7.336 -0.0591 -0.3336  0.2743
14291SOL    HW147430   6.566   4.265   7.410 -2.2287 -0.1907  1.5858
14291SOL    HW247431   6.547   4.132   7.340 -0.6688 -0.4728  1.6781
14292SOL     OW47432   4.622   2.733   6.339 -0.3283 -0.0772  0.2482
14292SOL    HW147433   4.676   2.699   6.267  1.5631  0.3884  1.3697
14292SOL    HW247434   4.573   2.657   6.370  0.1351 -0.6739 -0.4335
14293SOL     OW47435   8.368   8.238   1.956  0.0954  0.3311  0.3113
14293SOL    HW147436   8.433   8.205   1.894  0.5192  0.5624  0.6185
14293SOL    HW247437   8.391   8.331   1.967 -1.1455  0.7672 -0.6310
14294SOL     OW47438   4.432   7.736  10.484  0.3478  0.2363  0.0396
14294SOL    HW147439   4.474   7.656  10.453  0.9683  0.5670  0.0129
14294SOL    HW247440   4.361   7.751  10.422 -0.4807 -0.8954  0.6818
14295SOL     OW47441   9.465   2.082   9.848  0.2228 -0.3641 -0.1268
14295SOL    HW147442   9.457   2.107   9.940 -0.7790 -0.7999 -0.0913
14295SOL    HW247443   9.478   2.165   9.802  2.4734 -0.2691  0.5617
14296SOL     OW47444   7.499  10.255  12.037  0.1178  0.7372 -0.0215
14296SOL    HW147445   7.404  10.261  12.037  0.0173 -0.4870 -0.4201
14296SOL    HW247446   7.526  10.286  11.951  0.2548  2.8769  0.7393
14297SOL     OW47447   0.756   3.450  10.062 -0.4485  0.4560  0.3308
14297SOL    HW147448   0.765   3.512  10.134  0.1623  0.7276  0.0379
14297SOL    HW247449   0.821   3.480   9.998  0.7130 -1.1919  0.6969
14298SOL     OW47450   9.530   6.614   2.445 -0.7426  0.0270 -0.2342
14298SOL    HW147451   9.448   6.564   2.445 -0.7157 -0.0867  1.7411
14298SOL    HW247452   9.516   6.683   2.510  0.6169  0.2267 -0.1245
14299SOL     OW47453   5.277   0.800   6.802 -0.5245 -0.2537  0.3678
14299SOL    HW147454   5.252   0.879   6.849 -0.9291 -0.0072 -0.2437
14299SOL    HW247455   5.335   0.831   6.732 -0.0542 -0.5939  0.6015
14300SOL     OW47456   0.309   3.238   5.571 -0.8165  0.1135  0.3318
14300SOL    HW147457   0.220   3.274   5.571 -0.2706  1.5252  0.0358
14300SOL    HW247458   0.348   3.272   5.491  0.8728  1.8283  1.7941
14301SOL     OW47459  11.411   0.923   7.872 -0.6724  0.0952 -0.2676
14301SOL    HW147460  11.413   0.847   7.930  0.0422 -0.9622 -1.6129
14301SOL    HW247461  11.347   0.982   7.912 -2.1878 -1.7466  0.1743
14302SOL     OW47462   4.179   6.315   7.184  0.1888 -0.0374  0.0265
14302SOL    HW147463   4.107   6.358   7.229 -1.9165 -1.5405 -1.7226
14302SOL    HW247464   4.205   6.243   7.243 -0.3377 -0.0207  0.2803
14303SOL     OW47465   8.875   3.976   9.416  0.0161 -0.0855  0.2474
14303SOL    HW147466   8.809   3.910   9.396  1.6429 -1.3760 -1.2696
14303SOL    HW247467   8.826   4.051   9.450 -1.9895 -1.7113  1.1409
14304SOL     OW47468   5.027   2.401   2.804 -0.3698  0.1851 -0.1484
14304SOL    HW147469   5.059   2.394   2.714 -1.6702 -0.1702 -0.6110
14304SOL    HW247470   4.994   2.491   2.811  0.0133  0.3121  0.0861
14305SOL     OW47471   3.614   6.731   5.075 -0.3285 -0.9130  0.1428
14305SOL    HW147472   3.566   6.648   5.079  0.3238 -1.2568  1.1337
14305SOL    HW247473   3.593   6.775   5.157 -0.7370 -0.0457 -0.4126
14306SOL     OW47474   9.606  10.142   6.241 -0.1188  0.5975  0.1239
14306SOL    HW147475   9.542  10.084   6.199  0.6325 -0.0087 -0.1953
14306SOL    HW247476   9.674  10.084   6.273 -0.3402  1.1212  1.6172
14307SOL     OW47477  10.582   3.432   6.437  0.5042  0.1801 -0.1182
14307SOL    HW147478  10.647   3.419   6.506  1.0559 -0.2685 -0.7216
14307SOL    HW247479  10.548   3.345   6.419 -1.2941  0.5608  1.1592
14308SOL     OW47480   7.959   3.769  10.807  0.1875  0.1490 -0.1944
14308SOL    HW147481   7.937   3.677  10.790 -3.9432  1.0873 -0.9619
14308SOL    HW247482   7.955   3.811  10.721  0.3976  1.3088  0.3421
14309SOL     OW47483   2.195   2.562   4.278 -0.2152 -0.1869  0.6227
14309SOL    HW147484   2.149   2.631   4.325 -0.8709 -0.6027  0.6065
14309SOL    HW247485   2.187   2.485   4.335  0.7988 -0.1743  0.8017
14310SOL     OW47486   9.478   3.313   1.370 -0.1214 -0.8559 -0.2327
14310SOL    HW147487   9.431   3.344   1.447 -1.6148  0.1841 -1.4824
14310SOL    HW247488   9.545   3.380   1.355 -0.7808 -0.2644 -0.6413
14311SOL     OW47489   9.205   1.136   2.610 -0.0757  0.3067 -0.2554
14311SOL    HW147490   9.195   1.163   2.702 -0.2151 -2.4108  0.6503
14311SOL    HW247491   9.135   1.072   2.597  0.1334  0.4236 -2.1916
14312SOL     OW47492   6.629   2.588   8.924 -0.4617 -0.4313 -0.5486
14312SOL    HW147493   6.590   2.661   8.876  0.9092 -0.0490 -1.1084
14312SOL    HW247494   6.720   2.587   8.896  0.6054  0.2510  2.5241
14313SOL     OW47495  12.080   7.953   9.935  0.0754 -0.7090  0.0668
14313SOL    HW147496  12.013   7.913   9.990 -1.8850 -0.5415 -2.0924
14313SOL    HW247497  12.151   7.888   9.933  0.7477 -0.2900  3.5456
14314SOL     OW47498  10.434  10.663  12.008  0.6633 -0.4648  0.3975
14314SOL    HW147499  10.418  10.576  12.045  1.4124 -1.0568 -0.6371
14314SOL    HW247500  10.529  10.669  11.999  0.6126  0.3959  0.2620
14315SOL     OW47501   1.328   2.516  11.821  0.0258  0.2439 -0.3016
14315SOL    HW147502   1.391   2.539  11.890 -0.0589 -1.6967  0.4781
14315SOL    HW247503   1.350   2.574  11.748  0.9152  1.5023  0.9111
14316SOL     OW47504   0.088   2.935   3.801 -0.2349  0.0307  0.0192
14316SOL    HW147505   0.011   2.932   3.858 -0.9194  0.8570 -0.8445
14316SOL    HW247506   0.106   2.844   3.781 -0.9352 -0.1788  0.3061
14317SOL     OW47507   6.721   9.560   5.832  1.2134  0.3527 -0.4944
14317SOL    HW147508   6.765   9.644   5.844  0.2906  0.8147 -0.3011
14317SOL    HW247509   6.717   9.523   5.920  0.6747  0.5845 -0.4217
14318SOL     OW47510   4.152   1.373   0.888 -0.0588  0.1475 -0.2329
14318SOL    HW147511   4.074   1.334   0.928 -0.8653  0.7735 -1.1607
14318SOL    HW247512   4.162   1.458   0.933  0.9056 -0.4954  0.8332
14319SOL     OW47513   8.761   1.394   3.007 -0.9598 -0.1054 -0.5919
14319SOL    HW147514   8.683   1.376   2.954 -1.6561  0.8118  0.0893
14319SOL    HW247515   8.812   1.455   2.953 -1.6671  0.8270 -0.2230
14320SOL     OW47516   6.485  10.894  11.454 -0.1430  0.2975  0.2013
14320SOL    HW147517   6.412  10.936  11.407  0.2873  0.0210 -0.7326
14320SOL    HW247518   6.564  10.932  11.415  0.2601 -1.3026 -0.6378
14321SOL     OW47519   0.311   8.205   3.795 -0.1839 -0.3147  0.1696
14321SOL    HW147520   0.365   8.213   3.716 -0.4703  1.3797  0.1059
14321SOL    HW247521   0.221   8.196   3.761 -0.5199  2.2003  0.2577
14322SOL     OW47522   2.862   3.916  11.163 -0.0147 -0.0567  0.8248
14322SOL    HW147523   2.896   3.984  11.221  2.6637  2.6557 -3.3782
14322SOL    HW247524   2.771   3.941  11.148 -0.2610  0.1327  2.4121
14323SOL     OW47525   7.803   6.977   9.284 -0.4615  0.2357 -0.5429
14323SOL    HW147526   7.852   7.047   9.326 -0.5995  0.8966 -1.4549
14323SOL    HW247527   7.716   7.014   9.268 -1.0147 -0.6436  0.3016
14324SOL     OW47528   7.182   9.346   5.874 -0.1258 -0.0291 -0.1800
14324SOL    HW147529   7.140   9.384   5.951 -0.2138 -0.1812 -0.1527
14324SOL    HW247530   7.179   9.251   5.889  1.0740 -0.0144  0.2762
14325SOL     OW47531   2.500   3.426   8.350  0.2379  0.2007 -0.1753
14325SOL    HW147532   2.495   3.330   8.357  1.3028  0.0892 -0.7975
14325SOL    HW247533   2.430   3.457   8.407 -0.8636 -0.9667 -0.8357
14326SOL     OW47534   0.588   8.391   7.401 -0.0284 -0.3936  0.6694
14326SOL    HW147535   0.677   8.388   7.366 -0.3393 -0.2282 -0.1690
14326SOL    HW247536   0.584   8.475   7.448 -0.0578  0.1146 -0.2126
14327SOL     OW47537  12.013   4.114   2.277  0.3339  0.0426  0.1182
14327SOL    HW147538  12.085   4.050   2.283 -0.7762 -1.2742 -0.0339
14327SOL    HW247539  12.046   4.181   2.217  0.1146 -2.4838 -3.1274
14328SOL     OW47540   6.300   8.738   2.417  0.0759 -0.1945 -0.4679
14328SOL    HW147541   6.293   8.811   2.355  0.0014  2.5474  2.5499
14328SOL    HW247542   6.219   8.688   2.404 -2.1375  2.9104  0.3856
14329SOL     OW47543  11.026   0.234   9.657  0.1823  0.0572 -0.3652
14329SOL    HW147544  11.092   0.173   9.688 -0.0989 -0.3543 -0.5711
14329SOL    HW247545  11.070   0.286   9.590  0.1381 -0.6113 -0.9255
14330SOL     OW47546   8.528  12.106   1.709  0.5094  0.2972  0.7177
14330SOL    HW147547   8.567  12.155   1.636  0.2796 -1.1774 -0.4568
14330SOL    HW247548   8.592  12.038   1.729  0.0935  0.0323  1.1780
14331SOL     OW47549   9.441   0.223   9.731 -0.0284  0.2352  0.4070
14331SOL    HW147550   9.421   0.313   9.759  0.4201  0.2302  0.7559
14331SOL    HW247551   9.533   0.211   9.754  0.3926  0.2584 -1.1567
14332SOL     OW47552   2.319  11.309   1.597 -0.1113  0.2880  0.4065
14332SOL    HW147553   2.358  11.385   1.641  1.0106 -0.2395  0.3660
14332SOL    HW247554   2.312  11.243   1.665  0.8444 -0.2504 -0.0015
14333SOL     OW47555   2.753  10.740   6.404 -0.6405  0.6068 -0.3666
14333SOL    HW147556   2.725  10.766   6.316 -0.1103  0.9969 -0.4240
14333SOL    HW247557   2.731  10.647   6.409 -0.1844  0.4482 -1.1179
14334SOL     OW47558   6.518   3.356  10.012  0.1233  1.0294 -0.2112
14334SOL    HW147559   6.432   3.315  10.006  0.8809 -0.5047 -1.9158
14334SOL    HW247560   6.502   3.442  10.050 -2.0326  0.4670  0.2720
14335SOL     OW47561   0.478   3.533   5.645  0.1196 -0.3623 -0.2513
14335SOL    HW147562   0.522   3.471   5.703 -0.2900  2.1180  3.0011
14335SOL    HW247563   0.550   3.575   5.598  1.0588  0.9062  2.1177
14336SOL     OW47564   1.388   7.251  11.352  0.5028  0.0691  0.3781
14336SOL    HW147565   1.430   7.334  11.374  1.6837 -0.9856  2.4629
14336SOL    HW247566   1.433   7.222  11.272  0.2039  1.3327 -0.2600
14337SOL     OW47567   3.523   9.741   8.034 -0.4122  0.0712  0.1037
14337SOL    HW147568   3.478   9.801   8.093  1.6166  1.1256  0.6706
14337SOL    HW247569   3.535   9.790   7.953 -0.6883 -0.3610 -0.2010
14338SOL     OW47570   6.963   3.583   5.670  0.1677  0.6152 -0.0864
14338SOL    HW147571   6.950   3.533   5.590  1.6626 -0.9862  0.5939
14338SOL    HW247572   6.885   3.566   5.723  0.1625 -0.0898 -0.3193
14339SOL     OW47573  10.565   8.528  10.355 -0.2051  0.1605  0.4839
14339SOL    HW147574  10.557   8.455  10.293 -2.5359 -1.0081  2.0186
14339SOL    HW247575  10.641   8.506  10.408  1.1154  0.5886 -1.1358
14340SOL     OW47576   3.481   0.511   7.912  0.2531  0.1261 -0.3143
14340SOL    HW147577   3.489   0.475   7.823 -1.7816  0.2718 -0.6084
14340SOL    HW247578   3.491   0.436   7.969  1.4571  0.0069 -0.6518
14341SOL     OW47579   9.586   7.970  10.730 -0.1791  0.1698 -0.1729
14341SOL    HW147580   9.529   7.926  10.668  0.9245 -0.9285 -0.4347
14341SOL    HW247581   9.613   8.050  10.686  1.2229 -0.9674 -1.4871
14342SOL     OW47582   5.916   3.046   6.683 -0.1792  0.0117 -0.3584
14342SOL    HW147583   5.962   2.963   6.694 -0.5096 -0.1449 -0.1467
14342SOL    HW247584   5.878   3.065   6.768  0.2879  0.6231 -0.2734
14343SOL     OW47585   1.312   0.710   2.817  0.1015  0.1385  0.1204
14343SOL    HW147586   1.229   0.711   2.768  0.6729  0.5813 -0.8649
14343SOL    HW247587   1.340   0.619   2.814 -1.3183 -0.4526  2.2018
14344SOL     OW47588   1.835   7.243  11.317 -0.1188 -0.6796  0.1341
14344SOL    HW147589   1.773   7.298  11.269  2.4269  0.2108 -2.4401
14344SOL    HW247590   1.822   7.155  11.283 -0.1457 -0.5477 -0.1926
14345SOL     OW47591   9.673   0.435   5.073 -0.3987  0.0117  0.1029
14345SOL    HW147592   9.598   0.489   5.097 -0.0114  0.0940  1.2420
14345SOL    HW247593   9.747   0.496   5.071 -0.1904 -0.2376  0.0606
14346SOL     OW47594   7.527  11.776   0.389 -0.0855  0.0312 -0.0593
14346SOL    HW147595   7.570  11.692   0.405  1.6562  0.4933 -1.9327
14346SOL    HW247596   7.521  11.817   0.475  1.7051 -0.8248  0.5188
14347SOL     OW47597   0.161   8.905  11.280 -0.4954  0.0622  0.0214
14347SOL    HW147598   0.155   8.877  11.371  0.7870  2.1556  0.8200
14347SOL    HW247599   0.253   8.890  11.256 -0.4580  0.9159 -0.4161
14348SOL     OW47600   4.710  11.953   7.569 -0.3837 -0.5561 -0.1831
14348SOL    HW147601   4.754  11.868   7.560 -1.2149 -0.8657 -1.7010
14348SOL    HW247602   4.775  12.017   7.540 -0.0733 -0.7580  0.0590
14349SOL     OW47603   5.580  11.181   6.143 -0.3487  0.3611  0.2842
14349SOL    HW147604   5.656  11.134   6.108 -1.1989 -1.2867  0.5981
14349SOL    HW247605   5.593  11.272   6.114  0.9262 -0.1994 -1.0063
14350SOL     OW47606   9.177   6.522   2.767 -0.1347 -0.3864 -0.0778
14350SOL    HW147607   9.253   6.486   2.722  1.1297  0.5651  1.2034
14350SOL    HW247608   9.105   6.465   2.741  0.5674 -0.0853 -2.9620
14351SOL     OW47609  11.371   9.366   8.892 -0.1577 -0.3674 -0.4382
14351SOL    HW147610  11.342   9.291   8.945 -0.3153 -0.3662 -0.5217
14351SOL    HW247611  11.466   9.367   8.902 -0.2660  0.2705  0.6991
14352SOL     OW47612   3.874   4.049   7.664 -0.5154 -0.1321 -0.0363
14352SOL    HW147613   3.823   4.061   7.584 -0.2984 -0.1483 -0.1774
14352SOL    HW247614   3.809   4.029   7.731 -0.7905  0.8072 -0.0071
14353SOL     OW47615   4.623   6.980   3.299 -0.6599 -0.5467 -0.0941
14353SOL    HW147616   4.548   7.024   3.259 -0.6927 -1.9785 -1.7572
14353SOL    HW247617   4.698   7.008   3.246 -0.4124 -1.0263 -0.0051
14354SOL     OW47618   2.458   0.217   3.104  0.4118 -0.1935 -0.7520
14354SOL    HW147619   2.376   0.217   3.055 -0.8816 -1.2820  1.2221
14354SOL    HW247620   2.443   0.154   3.175  2.1384  1.2105  0.9898
14355SOL     OW47621  10.154  11.914  10.210  0.4788  0.0243 -0.0248
14355SOL    HW147622  10.129  11.962  10.289  1.0731 -0.3293  0.3844
14355SOL    HW247623  10.129  11.824  10.227  0.3060  0.0017 -0.3788
14356SOL     OW47624   6.564   5.668   3.192  0.2313  0.0331  0.2908
14356SOL    HW147625   6.585   5.755   3.160  0.6229 -0.8420 -2.0073
14356SOL    HW247626   6.549   5.616   3.113  0.2536 -2.0481  1.5759
14357SOL     OW47627   8.461   3.219   2.590  0.2797  0.1945 -0.0614
14357SOL    HW147628   8.533   3.204   2.651  0.1479  0.0213  0.0516
14357SOL    HW247629   8.451   3.314   2.586 -0.3023  0.1854  0.8749
14358SOL     OW47630   7.126   9.889   9.356 -0.1666  0.0486 -0.1267
14358SOL    HW147631   7.148   9.979   9.335 -1.1823  0.2432 -0.4113
14358SOL    HW247632   7.146   9.840   9.277  1.3932 -0.1729  0.3721
14359SOL     OW47633   8.798   1.532   2.131  0.3924  0.1768  0.3358
14359SOL    HW147634   8.730   1.539   2.198 -1.6195  1.6685 -1.7158
14359SOL    HW247635   8.839   1.618   2.129 -0.6823  0.6887 -1.3925
14360SOL     OW47636   5.742   5.358   4.645  0.5463  0.7268 -0.3026
14360SOL    HW147637   5.695   5.363   4.562 -1.9172 -0.3449  0.9291
14360SOL    HW247638   5.674   5.361   4.712  2.1380 -1.7691  1.6093
14361SOL     OW47639   4.890   9.139   5.400  0.2299 -0.3180  0.2366
14361SOL    HW147640   4.843   9.222   5.415  0.7846 -0.2459  1.6902
14361SOL    HW247641   4.845   9.100   5.325 -1.0574  0.5607  0.5084
14362SOL     OW47642   6.217   9.855   5.906 -0.7965  0.6431 -0.0865
14362SOL    HW147643   6.284   9.917   5.877 -0.8346  0.1467 -1.2848
14362SOL    HW247644   6.261   9.770   5.906 -0.7643  0.6262  1.4687
14363SOL     OW47645   6.054   2.571   5.395  0.1329 -0.1717 -0.5423
14363SOL    HW147646   6.039   2.520   5.475  1.9022 -1.8055 -1.1904
14363SOL    HW247647   6.003   2.651   5.408  1.0942  0.0493  2.6337
14364SOL     OW47648   7.174   0.763   7.745  0.4391 -0.5751  0.2006
14364SOL    HW147649   7.192   0.825   7.674  0.0395 -1.4697 -0.6871
14364SOL    HW247650   7.248   0.702   7.743  0.3375 -0.7075  0.4481
14365SOL     OW47651   3.047   7.323   3.623  0.2751  0.1360 -0.1094
14365SOL    HW147652   3.047   7.377   3.703  0.8359 -0.1732  0.1055
14365SOL    HW247653   3.061   7.234   3.654 -1.8026 -0.3260 -0.3628
14366SOL     OW47654  11.642   2.610   9.692 -0.0862  0.0296 -0.2260
14366SOL    HW147655  11.684   2.595   9.776 -0.9756  1.1202  0.4481
14366SOL    HW247656  11.577   2.540   9.684  0.7180 -0.6967 -0.5151
14367SOL     OW47657   7.074   5.921  10.412 -0.1906 -0.3179 -0.3768
14367SOL    HW147658   7.138   5.914  10.484  0.0265  1.1872 -0.4084
14367SOL    HW247659   6.990   5.933  10.456 -0.3926 -1.6657 -0.3500
14368SOL     OW47660   4.646   1.708   2.137  0.5753  0.4369 -0.2049
14368SOL    HW147661   4.575   1.694   2.074 -0.8468 -0.2748  1.4935
14368SOL    HW247662   4.697   1.780   2.099 -0.1884  0.0139 -2.1745
14369SOL     OW47663   7.775   2.515  11.946 -0.1376 -0.2435  0.3941
14369SOL    HW147664   7.693   2.547  11.907 -0.2343  0.8711  1.4183
14369SOL    HW247665   7.843   2.540  11.884 -0.6689 -2.6590 -1.2911
14370SOL     OW47666   6.602   9.710  11.393  0.0885 -0.1045 -0.2608
14370SOL    HW147667   6.629   9.783  11.338  1.5849 -1.2941 -1.1811
14370SOL    HW247668   6.681   9.659  11.407 -0.3462 -0.1721  2.5992
14371SOL     OW47669   5.535   7.403   9.730 -0.0965 -0.1654  0.2897
14371SOL    HW147670   5.568   7.320   9.697  0.5541  0.3999 -0.5030
14371SOL    HW247671   5.576   7.413   9.816  0.3389 -0.3504  0.1052
14372SOL     OW47672   0.721   9.084   5.617 -0.7275 -0.5314 -0.2478
14372SOL    HW147673   0.737   9.029   5.694 -1.6520 -1.0716 -0.4222
14372SOL    HW247674   0.630   9.066   5.594 -0.8170  0.5266 -0.7560
14373SOL     OW47675   0.856   4.161  10.249 -0.4470  0.2345 -0.7378
14373SOL    HW147676   0.810   4.087  10.208  0.8474  0.8198 -3.4465
14373SOL    HW247677   0.811   4.239  10.216  1.3332  0.7592 -2.0924
14374SOL     OW47678   2.908   7.070  10.561  0.1255 -0.4295 -0.1392
14374SOL    HW147679   2.902   6.998  10.624  0.2083 -2.1087 -1.9542
14374SOL    HW247680   2.999   7.099  10.566 -0.0113 -0.1360  0.9022
14375SOL     OW47681   2.809   9.666   5.925 -0.4675 -0.6905 -1.2907
14375SOL    HW147682   2.815   9.631   6.014 -3.1820 -0.9363 -1.1232
14375SOL    HW247683   2.813   9.761   5.936 -1.8333 -0.6758 -0.7488
14376SOL     OW47684   6.067   2.278  10.049  0.4077 -0.4065  0.0036
14376SOL    HW147685   6.044   2.352  10.105  2.1153  1.8639 -2.0392
14376SOL    HW247686   6.105   2.213  10.109 -1.1841  0.3041  1.8830
14377SOL     OW47687   9.933   4.272   0.369  0.6517 -0.6217 -0.4573
14377SOL    HW147688   9.860   4.271   0.307 -0.5171 -1.1975  0.8687
14377SOL    HW247689  10.010   4.248   0.317  0.3777  2.1951 -2.3833
14378SOL     OW47690   7.914   9.775  11.890  0.3603  0.0817  0.3462
14378SOL    HW147691   7.853   9.841  11.922 -0.7728 -0.9717  0.4287
14378SOL    HW247692   7.935   9.722  11.968 -1.8640 -2.0623 -0.4016
14379SOL     OW47693   3.932   2.896   4.711 -0.1638 -0.0919 -0.0781
14379SOL    HW147694   3.888   2.924   4.791  1.7209  1.6737  0.4137
14379SOL    HW247695   3.974   2.813   4.735  1.9703  1.3177  1.4613
14380SOL     OW47696   4.821   5.052   7.334  0.5738 -0.0431 -0.1351
14380SOL    HW147697   4.748   5.097   7.292  0.1886  0.8611  1.4297
14380SOL    HW247698   4.886   5.040   7.265 -0.1445  1.1312 -1.0337
14381SOL     OW47699   5.408   5.037   4.922  0.1876 -0.0334  0.1744
14381SOL    HW147700   5.414   5.089   5.002  2.2205  0.5372 -0.2848
14381SOL    HW247701   5.458   5.087   4.857  2.2546 -2.4997 -0.3081
14382SOL     OW47702   4.061  11.842   0.298  0.1240  0.0957  0.2369
14382SOL    HW147703   3.971  11.868   0.278 -0.3555 -2.0263 -0.6131
14382SOL    HW247704   4.053  11.787   0.376  1.0231  1.7125  1.5500
14383SOL     OW47705   0.665   3.680   3.214  0.6011  0.0416  0.1707
14383SOL    HW147706   0.680   3.637   3.298  0.8716  0.0984  0.1526
14383SOL    HW247707   0.598   3.628   3.172 -1.3336  1.3606  1.4440
14384SOL     OW47708  10.531   0.811   7.248 -0.2923  0.1389  0.1345
14384SOL    HW147709  10.609   0.865   7.238  1.1034 -1.7348  0.3992
14384SOL    HW247710  10.468   0.867   7.293  1.2722  1.3581  0.8762
14385SOL     OW47711   9.512  12.066   4.731 -0.1070 -0.0170  0.2562
14385SOL    HW147712   9.443  12.028   4.784 -1.3191  0.0824 -1.1806
14385SOL    HW247713   9.483  12.155   4.713 -0.2344 -0.3468 -1.3554
14386SOL     OW47714   2.094   7.949  12.096  0.0779  0.0022  0.3409
14386SOL    HW147715   2.115   7.981  12.009 -0.4330  0.8107  0.5035
14386SOL    HW247716   2.095   7.853  12.088  1.4245  0.0540 -0.2064
14387SOL     OW47717   6.992  11.717  10.282 -0.1276 -0.2498 -0.0340
14387SOL    HW147718   6.963  11.788  10.225  2.2151  0.6405 -0.2055
14387SOL    HW247719   6.989  11.639  10.227  1.5841  0.5079 -1.2751
14388SOL     OW47720  11.533  10.300   3.072 -0.0447 -0.0645 -0.2630
14388SOL    HW147721  11.459  10.349   3.109 -1.2035  0.1109 -2.6085
14388SOL    HW247722  11.566  10.355   3.002  0.9638 -1.0905 -0.6277
14389SOL     OW47723   2.449   7.347   6.820 -0.1555 -0.1132 -0.0107
14389SOL    HW147724   2.394   7.395   6.757  2.4715  1.6430 -1.1451
14389SOL    HW247725   2.475   7.413   6.884  0.7264 -0.8659  0.4285
14390SOL     OW47726   6.549   7.233   0.698 -0.1370  0.5718  0.6977
14390SOL    HW147727   6.470   7.257   0.747  0.0857  3.2489 -0.0597
14390SOL    HW247728   6.608   7.198   0.764 -0.5133  2.3694  2.0858
14391SOL     OW47729   0.062   1.860  10.446 -0.2192  0.0964 -0.1188
14391SOL    HW147730   0.105   1.855  10.532  0.3202 -2.0136 -0.4379
14391SOL    HW247731  -0.024   1.819  10.461 -0.5071  0.5988 -0.3851
14392SOL     OW47732   6.399   8.198   1.646  0.0639 -0.1800  0.1575
14392SOL    HW147733   6.450   8.279   1.648  1.3481 -0.9161  3.9673
14392SOL    HW247734   6.308   8.227   1.647  0.5037  1.2708  1.7030
14393SOL     OW47735   4.334   7.524   3.526  0.3224  0.1228 -0.0174
14393SOL    HW147736   4.391   7.466   3.476 -0.2176 -0.0363 -0.4651
14393SOL    HW247737   4.391   7.595   3.555  1.0044 -0.6569  0.5887
14394SOL     OW47738   3.911   6.365   2.103  0.7359 -0.4091  0.7776
14394SOL    HW147739   3.824   6.404   2.111  0.8594  0.0958 -0.1996
14394SOL    HW247740   3.965   6.434   2.066  1.3062 -1.0542  0.3766
14395SOL     OW47741   8.393   1.567   6.414 -0.6718  0.1963 -0.7012
14395SOL    HW147742   8.399   1.662   6.424  0.9771 -0.0347  0.8448
14395SOL    HW247743   8.320   1.542   6.470 -0.2186  0.4243  0.0095
14396SOL     OW47744   6.172   3.560  11.713 -0.4157 -0.5730 -0.5889
14396SOL    HW147745   6.161   3.571  11.619  2.4574 -0.1343 -0.9603
14396SOL    HW247746   6.212   3.474  11.723 -0.4332 -0.4932  0.2066
14397SOL     OW47747   3.179   7.574   9.596  0.0841  0.2316  0.0716
14397SOL    HW147748   3.155   7.584   9.504  0.0234  4.0097  0.3153
14397SOL    HW247749   3.257   7.518   9.594 -0.6609 -0.8429 -2.1095
14398SOL     OW47750   7.254   1.300   0.164 -0.1214 -0.3436  0.3222
14398SOL    HW147751   7.303   1.382   0.172 -1.6701  0.9618 -2.2311
14398SOL    HW247752   7.318   1.231   0.181  1.5929  1.3560  1.0500
14399SOL     OW47753   0.404  10.518   0.956  0.5351 -0.2791 -0.3739
14399SOL    HW147754   0.470  10.468   1.003  0.8999  0.6856  0.1541
14399SOL    HW247755   0.380  10.461   0.882  1.2965 -1.0166 -0.0747
14400SOL     OW47756   5.484  11.039   5.535  0.0597 -0.0508 -0.0113
14400SOL    HW147757   5.461  10.995   5.617 -1.5118  1.0217  0.1653
14400SOL    HW247758   5.560  10.991   5.503  1.4721  0.1682  2.6569
14401SOL     OW47759   9.971  11.173   5.747  0.3326  0.1690 -0.4399
14401SOL    HW147760  10.059  11.145   5.774  0.6794  0.9680 -0.7082
14401SOL    HW247761   9.974  11.268   5.751 -1.6477  0.2530  3.1451
14402SOL     OW47762   6.784   4.337   4.140 -0.2070 -0.1914 -0.1481
14402SOL    HW147763   6.714   4.305   4.196  1.4149 -1.9920  0.9445
14402SOL    HW247764   6.807   4.262   4.084  0.4952  0.5348 -0.8678
14403SOL     OW47765   8.999   7.814   0.717  0.6094 -0.2360  0.5858
14403SOL    HW147766   8.908   7.807   0.747  0.3492  3.0417  0.8527
14403SOL    HW247767   8.994   7.806   0.622  0.2392 -1.2107  0.6712
14404SOL     OW47768   5.058   4.406   2.668  0.5274  0.1050  0.8543
14404SOL    HW147769   5.002   4.482   2.654 -1.6750 -1.8274 -1.9499
14404SOL    HW247770   5.139   4.427   2.620 -0.2700  0.5178 -0.3607
14405SOL     OW47771   1.473   1.125   6.107  0.3336 -0.0614  0.1329
14405SOL    HW147772   1.551   1.158   6.063 -0.3270 -0.8017 -1.6841
14405SOL    HW247773   1.433   1.203   6.146  0.0092  0.9922 -2.1267
14406SOL     OW47774   7.040   2.424   3.656  0.1792 -0.2635 -0.6137
14406SOL    HW147775   7.032   2.329   3.662  0.4217 -0.2237  0.8318
14406SOL    HW247776   7.123   2.439   3.610 -0.1498 -0.7337 -1.3766
14407SOL     OW47777   6.254  11.472   1.169  0.0308  0.3067  0.1990
14407SOL    HW147778   6.208  11.541   1.217 -1.0876 -0.4856  0.2847
14407SOL    HW247779   6.274  11.512   1.084  1.4708  1.5070  1.0479
14408SOL     OW47780   0.914   7.675   4.222 -0.2094 -0.1020  0.2751
14408SOL    HW147781   0.889   7.690   4.314 -1.3177 -1.2002  0.1746
14408SOL    HW247782   0.943   7.761   4.191 -0.6635  0.4833  1.4041
14409SOL     OW47783  11.297  10.293   3.961 -0.2972 -0.9786 -0.2729
14409SOL    HW147784  11.246  10.370   3.985 -1.3779 -1.9555  0.7174
14409SOL    HW247785  11.387  10.323   3.957 -0.3875 -0.1408  2.4459
14410SOL     OW47786   7.910   7.406  10.146  0.4239  0.2170  0.1110
14410SOL    HW147787   7.956   7.487  10.169  1.0901  0.2337 -1.2013
14410SOL    HW247788   7.828   7.410  10.196  0.1304  2.0176 -0.4403
14411SOL     OW47789   0.504   9.278   1.758  0.1239 -0.0669 -0.1125
14411SOL    HW147790   0.518   9.362   1.801 -0.2857 -0.0954  0.0755
14411SOL    HW247791   0.476   9.220   1.828 -0.1778 -0.2097 -0.3514
14412SOL     OW47792   0.558   5.595  11.658 -0.2347 -0.3674  0.4164
14412SOL    HW147793   0.589   5.650  11.587  1.0478  0.9556  1.9330
14412SOL    HW247794   0.630   5.534  11.674 -0.7647 -1.0636  0.2068
14413SOL     OW47795   0.235  11.832  11.596  0.4228 -0.4230 -0.3206
14413SOL    HW147796   0.236  11.906  11.657 -0.1976 -1.4153  0.9289
14413SOL    HW247797   0.316  11.784  11.614  1.1452  0.2633 -1.5759
14414SOL     OW47798   8.255   1.378   0.388 -0.4162 -0.2993 -0.4727
14414SOL    HW147799   8.181   1.423   0.429 -0.1927  0.1083 -0.5058
14414SOL    HW247800   8.217   1.301   0.347 -1.1609  0.8795 -2.1376
14415SOL     OW47801   8.245   9.452  10.164 -0.0263  1.0524  0.5754
14415SOL    HW147802   8.180   9.516  10.137 -1.2372  0.4870  2.0441
14415SOL    HW247803   8.328   9.501  10.166 -0.5433  2.0024 -0.4277
14416SOL     OW47804  10.369   7.528   4.856 -0.3021 -0.2966 -0.1156
14416SOL    HW147805  10.423   7.595   4.898 -0.5808  0.2546 -0.6292
14416SOL    HW247806  10.432   7.466   4.818  0.0108 -1.8693  2.6771
14417SOL     OW47807   0.211   5.889   8.527 -0.0950  0.0533 -0.4822
14417SOL    HW147808   0.213   5.970   8.476  1.2863 -0.0018 -0.5316
14417SOL    HW247809   0.223   5.819   8.463 -0.2751 -0.1330 -0.3145
14418SOL     OW47810   0.612  11.101   1.586 -0.2490 -0.9846  0.6887
14418SOL    HW147811   0.666  11.172   1.550 -1.7039  0.4999  1.3123
14418SOL    HW247812   0.674  11.046   1.634  0.7647  0.5605  1.2283
14419SOL     OW47813  11.361   9.481   6.382 -0.7644  0.3447 -0.3514
14419SOL    HW147814  11.342   9.387   6.378  0.6811 -0.3460  3.8522
14419SOL    HW247815  11.328   9.516   6.299 -1.8328 -3.7436 -1.8863
14420SOL     OW47816   8.315   3.682   0.141  0.4591  0.2996  0.0460
14420SOL    HW147817   8.336   3.590   0.121 -1.4333  0.0716 -1.1496
14420SOL    HW247818   8.331   3.728   0.058 -0.6833  0.6371 -0.0038
14421SOL     OW47819   9.243   5.290  10.173  0.3522  0.1397 -0.3779
14421SOL    HW147820   9.194   5.290  10.255  0.7458  1.3393 -0.1238
14421SOL    HW247821   9.178   5.309  10.106  0.0972 -0.4516 -0.3027
14422SOL     OW47822   4.569   7.990  10.228 -0.1890  0.4860 -0.2968
14422SOL    HW147823   4.576   7.992  10.323 -0.8717  1.2866 -0.2510
14422SOL    HW247824   4.658   7.974  10.197  0.0360  0.2235  0.4690
14423SOL     OW47825   9.569  11.282   7.073  0.1203 -0.4012  0.3148
14423SOL    HW147826   9.604  11.195   7.091  0.0702 -0.5308 -0.2191
14423SOL    HW247827   9.572  11.290   6.978 -1.8342 -0.6489  0.2042
14424SOL     OW47828  11.312   0.329  11.701  0.3509 -0.1995 -0.5172
14424SOL    HW147829  11.276   0.246  11.670 -1.4749  1.4493 -3.2174
14424SOL    HW247830  11.239   0.371  11.747  0.3514  1.0132 -1.5574
14425SOL     OW47831   4.953   8.374   8.717 -0.1040 -0.0407 -0.4981
14425SOL    HW147832   4.864   8.409   8.727 -0.3070 -1.0591  2.2862
14425SOL    HW247833   5.002   8.443   8.673 -2.6398 -0.1792 -3.9543
14426SOL     OW47834   7.409   3.076   7.433  0.0978 -0.0496  0.1606
14426SOL    HW147835   7.396   2.988   7.468  0.8525 -1.0028 -1.7779
14426SOL    HW247836   7.324   3.120   7.444  0.0095 -0.6240  2.0898
14427SOL     OW47837   2.591   7.642  11.182  0.0741 -0.0132 -0.1794
14427SOL    HW147838   2.537   7.714  11.147 -1.2278 -0.1694  1.3499
14427SOL    HW247839   2.590   7.575  11.114 -0.0115  0.7977 -0.9897
14428SOL     OW47840   6.202   9.570   5.845  0.1897  0.0180 -0.1491
14428SOL    HW147841   6.142   9.496   5.839  0.9830 -0.9553  2.4556
14428SOL    HW247842   6.266   9.556   5.776  0.2702 -1.7158  0.2440
14429SOL     OW47843   2.281   2.430   4.691 -0.4892  0.4686  0.3668
14429SOL    HW147844   2.256   2.417   4.783  0.0714 -0.4696  0.4019
14429SOL    HW247845   2.377   2.429   4.692 -0.4657 -1.4518 -0.4652
14430SOL     OW47846  12.116   5.150   4.773 -0.9968 -0.2122  0.1747
14430SOL    HW147847  12.069   5.091   4.714  0.3838  1.2934 -2.6838
14430SOL    HW247848  12.049   5.182   4.833 -2.2384 -2.8193  0.3204
14431SOL     OW47849   8.685   1.049   0.061 -0.0381  0.1663 -0.1085
14431SOL    HW147850   8.759   1.070   0.118  0.0961 -1.8878  0.5783
14431SOL    HW247851   8.617   1.017   0.121 -1.0629  0.8988 -0.8436
14432SOL     OW47852  10.037  11.787  11.035  0.5223 -0.0447 -0.9819
14432SOL    HW147853  10.046  11.706  10.985  0.4858 -0.5342 -0.2110
14432SOL    HW247854   9.988  11.846  10.978 -1.7455 -1.4352 -0.5728
14433SOL     OW47855   9.650   4.523   9.290 -0.2777  0.1241 -0.3804
14433SOL    HW147856   9.568   4.508   9.336 -1.0721  1.2287 -1.3545
14433SOL    HW247857   9.680   4.609   9.321 -0.1660  0.2973 -0.9419
14434SOL     OW47858   4.577   1.078   7.128 -0.2053 -0.2672  0.7420
14434SOL    HW147859   4.501   1.052   7.179 -0.4126 -0.5258  0.3005
14434SOL    HW247860   4.631   0.999   7.123  0.1189 -0.0727  1.0960
14435SOL     OW47861   2.266   2.126   3.054  0.7714  0.2972  0.2465
14435SOL    HW147862   2.316   2.135   2.974  0.5244 -0.0683  0.0483
14435SOL    HW247863   2.331   2.106   3.121  0.7744 -1.5046 -0.2469
14436SOL     OW47864  11.720   2.899   4.210  0.1405  0.0469  0.5366
14436SOL    HW147865  11.660   2.840   4.164 -0.1800  0.6476  0.1732
14436SOL    HW247866  11.796   2.906   4.151 -0.1416  0.5831  0.2404
14437SOL     OW47867   5.388  10.464   6.286  0.2559 -0.5653 -0.2472
14437SOL    HW147868   5.402  10.402   6.357 -0.9314 -0.3113  0.2508
14437SOL    HW247869   5.344  10.413   6.218 -0.5899 -0.3237  0.1042
14438SOL     OW47870  10.152   6.689   0.003  0.2622  0.2588 -0.1759
14438SOL    HW147871  10.182   6.753  -0.061 -0.9963  1.5514  0.4891
14438SOL    HW247872  10.154   6.734   0.087  1.0660 -1.1444  0.6046
14439SOL     OW47873  10.941  11.489  11.604 -0.1222 -0.9269 -0.2869
14439SOL    HW147874  11.034  11.467  11.594  0.0012 -0.2586 -0.6758
14439SOL    HW247875  10.895  11.412  11.572  0.3027 -0.9398 -0.8817
14440SOL     OW47876   4.171   7.592   6.849 -0.7129 -0.2108 -0.0122
14440SOL    HW147877   4.264   7.599   6.828 -0.4778 -0.4195  0.8917
14440SOL    HW247878   4.150   7.674   6.892 -0.6613 -0.5899  0.7643
14441SOL     OW47879   3.208  11.095  10.399 -0.4218  0.5166  0.1465
14441SOL    HW147880   3.116  11.115  10.382  0.1029  1.7980 -1.4047
14441SOL    HW247881   3.257  11.161  10.350  1.3485 -0.8008  0.0281
14442SOL     OW47882   6.821   6.254   3.149 -0.6158 -1.0405  0.0008
14442SOL    HW147883   6.869   6.172   3.137 -0.7923 -1.2650  0.8235
14442SOL    HW247884   6.842   6.305   3.071  2.0974 -0.5561  0.9599
14443SOL     OW47885   8.324   2.803   0.822  0.1403 -0.4596  0.0135
14443SOL    HW147886   8.391   2.854   0.776 -0.8291 -0.7817 -1.8282
14443SOL    HW247887   8.261   2.868   0.852  0.4017 -0.3182  0.2698
14444SOL     OW47888   6.812   6.690   6.230  0.3760  0.6798 -0.1078
14444SOL    HW147889   6.773   6.660   6.148 -0.4188  1.3274  0.0202
14444SOL    HW247890   6.774   6.777   6.244  1.3835  1.0585  0.3602
14445SOL     OW47891   2.111   6.139  10.894 -0.1370  0.1576 -1.0216
14445SOL    HW147892   2.019   6.123  10.911 -0.1097  2.2426  1.8312
14445SOL    HW247893   2.113   6.226  10.854  0.6161  2.0383  2.6347
14446SOL     OW47894   8.103   0.405   1.703  0.4592 -0.8631  0.4268
14446SOL    HW147895   8.133   0.496   1.692  0.2957 -1.0210 -1.6112
14446SOL    HW247896   8.120   0.386   1.795 -0.2410  1.4954  1.1168
14447SOL     OW47897   1.403   6.156   1.614  0.7255  0.2475  0.1173
14447SOL    HW147898   1.372   6.096   1.682 -1.5414  0.6601 -0.4509
14447SOL    HW247899   1.436   6.232   1.662 -0.2093  0.2485  0.7876
14448SOL     OW47900   0.149   1.592  10.906  0.3103 -0.0886 -0.4145
14448SOL    HW147901   0.086   1.616  10.838 -0.7577 -1.0411  0.2091
14448SOL    HW247902   0.103   1.610  10.989  0.0842 -2.5766  0.0646
14449SOL     OW47903   9.747   2.303   8.074  0.1179  0.4037 -0.8061
14449SOL    HW147904   9.802   2.229   8.049 -0.6789 -0.4959  0.0583
14449SOL    HW247905   9.809   2.376   8.084  0.9843 -0.2728 -1.0858
14450SOL     OW47906   9.479   8.582   1.594  0.0871 -0.2867  0.8039
14450SOL    HW147907   9.540   8.562   1.665 -0.2846 -0.3710  1.1017
14450SOL    HW247908   9.482   8.505   1.538  0.6844 -0.0552  0.5055
14451SOL     OW47909   5.099   2.386   9.824  0.1226  0.0312 -0.2098
14451SOL    HW147910   5.192   2.365   9.822 -0.0338 -0.9156  1.0126
14451SOL    HW247911   5.057   2.312   9.779 -0.1437 -0.4004  0.7142
14452SOL     OW47912   6.821   6.189   6.584 -0.0824  0.0328  0.2664
14452SOL    HW147913   6.811   6.118   6.648 -1.4999  1.9318  2.3108
14452SOL    HW247914   6.908   6.224   6.601  0.0189 -0.2384  0.3145
14453SOL     OW47915   6.787   2.183   0.869 -0.2780 -0.0786  0.4009
14453SOL    HW147916   6.798   2.096   0.832 -1.3408  0.0434 -0.2505
14453SOL    HW247917   6.876   2.210   0.894  0.4078 -0.4497 -1.4662
14454SOL     OW47918  10.871   4.092   4.679  0.3183  0.0692  0.1206
14454SOL    HW147919  10.873   4.005   4.637  0.2384  0.1811 -0.1193
14454SOL    HW247920  10.953   4.097   4.728 -0.1628 -0.5607  0.9963
14455SOL     OW47921   9.169  11.620  12.079  0.3209 -0.0765 -0.2134
14455SOL    HW147922   9.218  11.617  11.997  2.0590  0.1879  0.7636
14455SOL    HW247923   9.160  11.528  12.106  1.1147 -0.0769  0.0632
14456SOL     OW47924   5.956   2.185   2.995 -0.4976 -0.0762 -0.0565
14456SOL    HW147925   5.964   2.254   2.930 -0.7424  0.0109  0.0059
14456SOL    HW247926   5.913   2.113   2.948 -0.0889 -0.2503 -0.1691
14457SOL     OW47927  10.735   2.682  11.151  0.2862 -0.0470 -0.0184
14457SOL    HW147928  10.661   2.629  11.180 -0.5807 -0.0906 -2.1243
14457SOL    HW247929  10.810   2.623  11.153 -0.1762 -0.6375 -0.0079
14458SOL     OW47930   9.273   3.620   8.570  0.2676 -0.2227  0.1537
14458SOL    HW147931   9.301   3.591   8.657 -0.0155  1.7589  0.9619
14458SOL    HW247932   9.353   3.652   8.529  0.6033 -2.1042 -0.7849
14459SOL     OW47933   3.322  11.607   0.043 -0.1799  0.5701 -0.2842
14459SOL    HW147934   3.341  11.624  -0.049 -0.2354  0.6476 -0.2809
14459SOL    HW247935   3.402  11.632   0.089 -0.4004  1.1961 -0.2362
14460SOL     OW47936  11.593   2.624   2.988 -0.0314 -0.0221  0.5714
14460SOL    HW147937  11.518   2.568   2.969 -0.2058  0.5658 -0.5761
14460SOL    HW247938  11.597   2.685   2.914  1.0543  0.5154  1.0450
14461SOL     OW47939   2.454  10.351   5.065  0.5646 -0.0476 -0.8764
14461SOL    HW147940   2.536  10.308   5.089  0.1690  0.1892  1.0591
14461SOL    HW247941   2.471  10.444   5.078  0.1253  0.0429 -0.9295
14462SOL     OW47942   8.406   0.187  11.174 -0.1453  0.0357  0.7149
14462SOL    HW147943   8.439   0.243  11.245  1.7001 -0.9525  0.6916
14462SOL    HW247944   8.444   0.225  11.094 -1.2169  0.4105  0.3615
14463SOL     OW47945  10.680   2.006   2.630 -0.5938  0.5074 -0.2701
14463SOL    HW147946  10.760   1.958   2.651  0.1996  1.8413 -0.1495
14463SOL    HW247947  10.710   2.083   2.582 -1.8708  0.6706 -0.8437
14464SOL     OW47948   4.000   0.455   2.996  0.5295 -0.2226 -0.1017
14464SOL    HW147949   3.911   0.484   3.017 -0.0286 -0.9576 -1.3154
14464SOL    HW247950   4.047   0.535   2.975  0.3231  0.2308  1.0839
14465SOL     OW47951   6.380  11.678  10.059 -0.1415  0.3619  0.0981
14465SOL    HW147952   6.403  11.621   9.985  0.4509 -0.3756  0.8324
14465SOL    HW247953   6.338  11.753  10.018 -0.8764 -0.5571 -0.9139
14466SOL     OW47954  11.107   1.064   2.531 -0.2369 -0.1483 -0.0274
14466SOL    HW147955  11.167   1.072   2.605  0.3922  1.4919 -0.6713
14466SOL    HW247956  11.141   0.990   2.480  0.4064 -0.1346  0.3705
14467SOL     OW47957   8.742   0.316  11.621 -1.0124 -0.6764  0.1248
14467SOL    HW147958   8.766   0.320  11.529 -0.7217 -0.2153  0.2197
14467SOL    HW247959   8.667   0.376  11.630 -0.3439  0.1337  0.3992
14468SOL     OW47960   7.608   6.724  11.482 -0.4576 -0.1069 -0.0598
14468SOL    HW147961   7.655   6.782  11.423 -0.2195  1.5140  1.6394
14468SOL    HW247962   7.541   6.779  11.523 -1.6748 -1.5682  0.0242
14469SOL     OW47963  10.226   3.979   5.803  0.0514 -0.5156  0.6278
14469SOL    HW147964  10.159   3.914   5.826 -2.0262  0.9175 -0.9391
14469SOL    HW247965  10.214   4.048   5.867  0.7611 -0.7025  0.9658
14470SOL     OW47966   4.763   8.214   6.308  0.0569 -0.0278 -0.3542
14470SOL    HW147967   4.747   8.241   6.218 -1.4364  1.0376  0.2004
14470SOL    HW247968   4.699   8.145   6.324 -2.3073  2.3398  1.0085
14471SOL     OW47969   1.579   9.998   8.914  0.7691 -0.5190 -0.4967
14471SOL    HW147970   1.613   9.912   8.937 -0.8656 -1.1862 -0.3931
14471SOL    HW247971   1.600  10.008   8.821  0.0987 -1.5006 -0.7772
14472SOL     OW47972   7.497   5.348   0.930 -0.2701  0.0228  0.9670
14472SOL    HW147973   7.408   5.355   0.963  0.0959 -1.2504  2.3217
14472SOL    HW247974   7.517   5.255   0.933  0.7880  0.1788 -0.2356
14473SOL     OW47975   9.794   1.631   3.786  0.2625  0.0778 -0.0325
14473SOL    HW147976   9.782   1.696   3.855  0.0816  0.4926 -0.4478
14473SOL    HW247977   9.705   1.608   3.759  0.2166 -1.9251  1.5430
14474SOL     OW47978   7.224   6.555   0.242 -0.1436  0.6818 -0.5852
14474SOL    HW147979   7.306   6.588   0.204 -0.1597 -0.9503 -2.1542
14474SOL    HW247980   7.168   6.537   0.166 -1.1919 -0.1805  0.3676
14475SOL     OW47981   8.757   5.418   0.279  0.0685  0.2568  0.0765
14475SOL    HW147982   8.834   5.468   0.250 -0.5246  1.8248  1.0493
14475SOL    HW247983   8.684   5.455   0.229 -0.4364  0.6453  1.0653
14476SOL     OW47984   3.293   9.172   1.725  0.0016  0.7174  0.4741
14476SOL    HW147985   3.337   9.121   1.793  0.5334 -0.4296 -0.6754
14476SOL    HW247986   3.299   9.263   1.755  2.9759  0.6085  0.5115
14477SOL     OW47987  11.897   1.955  10.203  0.2092  0.1792 -0.5415
14477SOL    HW147988  11.844   2.033  10.186 -0.6918 -0.3938 -0.4179
14477SOL    HW247989  11.862   1.888  10.144  0.4078 -0.3732 -0.0460
14478SOL     OW47990   4.337  10.241   1.284 -0.1064 -0.3679 -0.4824
14478SOL    HW147991   4.403  10.187   1.241  0.3599 -0.4874  0.3659
14478SOL    HW247992   4.360  10.239   1.376  0.9351  2.6175 -0.5680
14479SOL     OW47993  10.024   0.409   7.027 -0.0058  0.2929  0.2735
14479SOL    HW147994  10.004   0.439   7.116  0.8950  2.0362 -0.0536
14479SOL    HW247995  10.092   0.343   7.039  0.5863  0.9921  0.8611
14480SOL     OW47996   4.488   8.517   7.019  0.1538  0.3208 -0.1314
14480SOL    HW147997   4.462   8.605   6.994 -2.4606 -0.3011  0.0330
14480SOL    HW247998   4.537   8.528   7.100 -1.2590  1.5599  0.5972
14481SOL     OW47999  12.122   5.837  11.556  0.6031 -0.5942 -0.2152
14481SOL    HW148000  12.097   5.866  11.469  3.2733 -0.9925 -1.2078
14481SOL    HW248001  12.100   5.744  11.558 -1.8710 -0.0550  0.5642
14482SOL     OW48002   8.091   5.976   2.810  0.1555  0.1114  0.4953
14482SOL    HW148003   8.020   6.015   2.759  0.4671 -0.4369 -0.3826
14482SOL    HW248004   8.119   6.046   2.869 -1.9046 -0.0202  1.7293
14483SOL     OW48005   8.231   0.699   3.340  0.0475 -0.0403  0.1075
14483SOL    HW148006   8.227   0.669   3.431  1.5977  0.0815  0.2475
14483SOL    HW248007   8.224   0.618   3.288  0.4588 -0.2572  0.3814
14484SOL     OW48008   0.461   2.097   3.625  0.1440  0.0707 -0.2485
14484SOL    HW148009   0.509   2.179   3.636  0.9737 -0.1787 -1.7582
14484SOL    HW248010   0.399   2.096   3.697  2.5880  0.2713  2.0317
14485SOL     OW48011   5.219   2.060   9.357  0.1042  0.2148  0.1344
14485SOL    HW148012   5.224   2.154   9.338 -1.9861  0.5533  1.0930
14485SOL    HW248013   5.252   2.052   9.446 -1.9178  0.4146  0.9447
14486SOL     OW48014   7.773  10.402   1.355 -0.1706 -0.0337  0.6483
14486SOL    HW148015   7.682  10.386   1.381  0.2151 -0.8412  1.5414
14486SOL    HW248016   7.819  10.421   1.436  0.3773  0.8807  0.1441
14487SOL     OW48017   7.883  10.702   5.956 -0.1281 -0.4953 -0.5344
14487SOL    HW148018   7.883  10.788   5.914  0.8022 -0.4645 -0.4885
14487SOL    HW248019   7.868  10.720   6.049 -0.4018 -0.4265 -0.5899
14488SOL     OW48020  12.058   1.457   5.333 -0.2755 -0.0607  0.7974
14488SOL    HW148021  12.136   1.505   5.360  2.0688 -1.9144 -2.1827
14488SOL    HW248022  12.030   1.499   5.252 -2.4203  0.4872  1.7341
14489SOL     OW48023   7.892   9.381  10.029 -0.0626  0.2181  0.3065
14489SOL    HW148024   7.816   9.428  10.063 -1.2354 -0.7580 -0.8170
14489SOL    HW248025   7.898   9.410   9.938  0.4806 -0.2337  0.1962
14490SOL     OW48026   6.857   2.370  10.148 -0.1662  0.4905 -0.2631
14490SOL    HW148027   6.796   2.300  10.171 -1.0268  1.2220 -0.2645
14490SOL    HW248028   6.801   2.441  10.116  0.7047  1.0969 -0.4739
14491SOL     OW48029   5.303   6.285   5.237  0.0679 -0.1235  0.1664
14491SOL    HW148030   5.244   6.349   5.196  0.5414  1.7946  2.2582
14491SOL    HW248031   5.349   6.335   5.304  1.3627 -2.4443  1.1157
14492SOL     OW48032   0.093  10.619   9.516 -0.2832 -0.0713 -0.3113
14492SOL    HW148033   0.019  10.659   9.471  0.9319  0.1017 -2.2665
14492SOL    HW248034   0.145  10.693   9.548 -0.7780 -0.1880  0.7982
14493SOL     OW48035   3.361  11.706   1.111 -0.7681  0.2276 -0.1783
14493SOL    HW148036   3.327  11.795   1.113 -1.2221  0.0435  1.0538
14493SOL    HW248037   3.456  11.717   1.098 -0.9369  0.8378 -0.9667
14494SOL     OW48038   5.191  10.036   2.356 -0.5214  0.4443  0.1517
14494SOL    HW148039   5.198  10.023   2.262 -1.1612  2.0003 -0.1470
14494SOL    HW248040   5.168   9.950   2.391  0.2670 -0.2644 -1.0366
14495SOL     OW48041   2.723   9.383   0.236 -0.3139  0.4165  0.0593
14495SOL    HW148042   2.746   9.290   0.234 -0.8765  0.2932 -1.3013
14495SOL    HW248043   2.779   9.420   0.305  0.8974 -0.6677 -0.3042
14496SOL     OW48044  10.068   0.437   3.789 -0.6849  0.5163 -0.3813
14496SOL    HW148045  10.007   0.392   3.731 -0.1522 -1.3801  0.4581
14496SOL    HW248046  10.042   0.410   3.877 -0.4328  2.0122  0.1806
14497SOL     OW48047   5.735   3.922   3.944 -0.4816 -0.0997 -0.0634
14497SOL    HW148048   5.782   4.004   3.957 -1.7614  0.6880 -0.3355
14497SOL    HW248049   5.704   3.898   4.031 -0.2460 -0.2222 -0.0109
14498SOL     OW48050   3.787  11.095   9.888  0.1698 -0.8718 -0.1587
14498SOL    HW148051   3.874  11.069   9.919  0.0970  0.3122  1.1263
14498SOL    HW248052   3.726  11.041   9.938  0.1197 -0.6090  0.0639
14499SOL     OW48053   9.786   7.654   6.156  0.1317  0.3542 -0.3894
14499SOL    HW148054   9.731   7.732   6.146  0.1133  0.4039  0.0764
14499SOL    HW248055   9.852   7.680   6.221  0.0761 -0.0454 -0.1731
14500SOL     OW48056   2.628  11.413   1.179  0.2409 -0.4190  0.1594
14500SOL    HW148057   2.619  11.381   1.269  3.2400 -1.7125  0.1452
14500SOL    HW248058   2.638  11.333   1.127 -0.9659  0.3359 -1.2938
14501SOL     OW48059  11.001   7.159   8.001  0.5694 -0.0539 -0.1210
14501SOL    HW148060  11.042   7.161   8.087 -1.1732  0.5580  0.7490
14501SOL    HW248061  10.940   7.233   8.002 -0.6990 -1.0217 -1.2275
14502SOL     OW48062   9.878   5.805  10.600  0.2352 -0.1739 -0.0169
14502SOL    HW148063   9.889   5.842  10.687 -1.4596  1.8509 -0.5783
14502SOL    HW248064   9.936   5.856  10.544 -2.8416  2.6440 -0.9734
14503SOL     OW48065   9.596   0.104   4.465  0.0940  0.4889 -0.4798
14503SOL    HW148066   9.545   0.023   4.474 -1.0700  0.9868 -2.1469
14503SOL    HW248067   9.639   0.095   4.380  0.1313  1.5058 -0.5739
14504SOL     OW48068   6.725   2.474  11.835 -0.5088 -0.1703  0.3070
14504SOL    HW148069   6.769   2.523  11.904 -0.6933  2.9970 -1.6111
14504SOL    HW248070   6.632   2.475  11.860 -0.4002 -0.3566  0.7243
14505SOL     OW48071   9.610   0.413   9.480  0.3290  0.5606 -0.2785
14505SOL    HW148072   9.697   0.386   9.507 -0.0546 -0.1340  0.3025
14505SOL    HW248073   9.552   0.342   9.510 -0.5599  1.4750  0.2361
14506SOL     OW48074   0.930   4.369   5.762  0.0467 -0.3016 -0.7562
14506SOL    HW148075   0.945   4.464   5.767  0.6323 -0.4383  1.9183
14506SOL    HW248076   1.015   4.333   5.738  0.6832 -0.2587  1.2083
14507SOL     OW48077   9.600  11.618  10.201  0.0378 -0.0270 -0.5564
14507SOL    HW148078   9.620  11.545  10.143 -1.0209 -0.7128 -0.0933
14507SOL    HW248079   9.575  11.577  10.284 -0.5354  0.8531 -0.2770
14508SOL     OW48080   5.623   2.890   2.471  0.3612  0.4554  0.2347
14508SOL    HW148081   5.625   2.980   2.504  2.2786  0.7213 -0.5052
14508SOL    HW248082   5.715   2.865   2.461 -0.0586 -0.3340 -2.8586
14509SOL     OW48083   7.253   7.072   2.469 -0.2739 -0.3376 -0.5230
14509SOL    HW148084   7.217   7.158   2.449 -0.7758 -0.7053 -1.2382
14509SOL    HW248085   7.258   7.069   2.565 -1.9652 -0.1921 -0.4053
14510SOL     OW48086   8.223   9.783   6.717 -0.0770  0.7058  0.4782
14510SOL    HW148087   8.299   9.772   6.660 -0.4028 -1.4416  0.3786
14510SOL    HW248088   8.156   9.725   6.680 -1.2816  1.4544  1.4022
14511SOL     OW48089   5.534   1.514  10.829  0.3268  0.1513 -0.2973
14511SOL    HW148090   5.513   1.507  10.735  0.2488  0.5898 -0.3119
14511SOL    HW248091   5.607   1.454  10.841 -0.2899 -0.6600 -0.4469
14512SOL     OW48092   8.004   2.296   7.864 -0.2235 -0.5432  0.0512
14512SOL    HW148093   7.969   2.374   7.906 -1.2351 -0.8440 -0.1935
14512SOL    HW248094   8.099   2.307   7.867 -0.3511  0.8033 -0.1921
14513SOL     OW48095   5.665  10.968  10.467 -0.2980  0.1930 -0.6616
14513SOL    HW148096   5.638  11.059  10.457 -0.1902  0.3688  0.5364
14513SOL    HW248097   5.743  10.972  10.522 -1.3251 -0.7447  0.9161
14514SOL     OW48098   1.313   8.045   8.221  0.0279 -0.4465  0.4727
14514SOL    HW148099   1.386   8.032   8.161 -1.0820 -0.9872 -0.7977
14514SOL    HW248100   1.261   7.965   8.214  0.8595 -1.4285  3.6445
14515SOL     OW48101   6.774  10.493   7.319  0.0534 -0.0721 -0.0092
14515SOL    HW148102   6.750  10.577   7.279 -0.2653 -0.5187 -0.7688
14515SOL    HW248103   6.784  10.513   7.412 -1.9345  0.4270  0.1375
14516SOL     OW48104   5.977  10.571   4.771  0.5291  0.3255 -0.8030
14516SOL    HW148105   5.949  10.661   4.756  1.0501  0.7983  0.7751
14516SOL    HW248106   5.925  10.519   4.711 -0.5427  1.5819 -1.0073
14517SOL     OW48107   9.209   6.813   7.381  0.5229 -0.2036  0.1707
14517SOL    HW148108   9.177   6.748   7.318 -0.3706 -0.7559  1.1641
14517SOL    HW248109   9.254   6.761   7.448  1.1289  0.3449  0.2025
14518SOL     OW48110   0.047   9.273   9.833  0.0106 -0.1237 -0.4616
14518SOL    HW148111   0.138   9.246   9.818  0.1530  0.8416 -1.4735
14518SOL    HW248112  -0.004   9.194   9.821  0.5881 -0.3624 -1.4499
14519SOL     OW48113   8.914  10.808   0.535 -0.2482 -0.1211 -0.5050
14519SOL    HW148114   8.849  10.752   0.579  2.3242 -1.3675  2.0794
14519SOL    HW248115   8.872  10.893   0.529 -2.3090 -0.9745  0.5965
14520SOL     OW48116   2.072   6.664   9.035 -0.3288 -0.2088  0.0227
14520SOL    HW148117   2.126   6.607   9.089  0.8729 -0.7930 -1.6911
14520SOL    HW248118   2.134   6.727   8.998 -1.2349  0.6206 -0.1046
14521SOL     OW48119   5.532  10.837   5.223  0.1239 -0.1530 -0.0483
14521SOL    HW148120   5.501  10.772   5.287 -0.6537  0.8658  0.6294
14521SOL    HW248121   5.615  10.868   5.259  0.7169 -1.0446 -0.5884
14522SOL     OW48122  10.414   1.702   7.340  0.3066  0.0530  0.2661
14522SOL    HW148123  10.402   1.607   7.336  2.8674 -0.2937 -3.3255
14522SOL    HW248124  10.325   1.737   7.341 -0.7285 -2.2664  2.5979
14523SOL     OW48125   9.392   2.593   6.744 -0.3363  0.5873  0.4054
14523SOL    HW148126   9.450   2.637   6.805 -0.2321 -1.0796  1.5731
14523SOL    HW248127   9.305   2.599   6.784 -0.2305 -0.7146  0.8945
14524SOL     OW48128   6.659   8.877   8.760 -0.2943 -0.5874 -0.0162
14524SOL    HW148129   6.687   8.903   8.848 -1.3551 -1.2823  0.5641
14524SOL    HW248130   6.622   8.957   8.722  0.1181 -0.2932  0.1966
14525SOL     OW48131   6.121   2.657  11.030  0.4368  0.3869  0.3909
14525SOL    HW148132   6.076   2.739  11.012  1.5209  0.9909  0.3486
14525SOL    HW248133   6.211   2.672  11.002  0.9210 -0.4351  1.4058
14526SOL     OW48134  10.673  12.030   8.747  0.1927  0.1916 -0.3133
14526SOL    HW148135  10.718  11.964   8.799  0.5066  1.7010  1.4200
14526SOL    HW248136  10.611  11.980   8.694  0.9224 -1.5417  0.3713
14527SOL     OW48137   6.144  10.550   6.555 -0.4331 -0.2145 -0.0879
14527SOL    HW148138   6.075  10.617   6.553 -0.7054 -0.4904 -0.0097
14527SOL    HW248139   6.161  10.532   6.462  0.0055  0.3310 -0.1188
14528SOL     OW48140   3.804   3.785   2.756  0.3531 -0.3440 -0.1778
14528SOL    HW148141   3.879   3.844   2.747  0.6601 -0.8414 -0.9505
14528SOL    HW248142   3.729   3.839   2.730  0.4302  0.1716  0.6516
14529SOL     OW48143   8.874   8.066   7.180  0.4701 -0.3036  0.1219
14529SOL    HW148144   8.810   8.041   7.246  0.9599 -0.8335  0.4049
14529SOL    HW248145   8.959   8.056   7.223  0.7237  1.2762  0.0479
14530SOL     OW48146   1.159   3.782  12.102  0.1385  0.5675 -0.0822
14530SOL    HW148147   1.095   3.711  12.101  0.9062 -0.1600  0.5306
14530SOL    HW248148   1.121   3.850  12.047 -1.8518  0.7765  1.4322
14531SOL     OW48149   8.576   5.948   3.546  0.3001 -0.3590  0.2305
14531SOL    HW148150   8.486   5.924   3.570 -0.5234  1.2552 -1.0437
14531SOL    HW248151   8.573   5.960   3.451  1.8495 -0.1203  0.1862
14532SOL     OW48152   9.989  11.140   6.425 -0.5157 -0.0661 -0.1515
14532SOL    HW148153  10.047  11.136   6.501 -1.6196 -1.9851  0.6713
14532SOL    HW248154   9.902  11.157   6.463 -0.9192  0.0434 -1.0898
14533SOL     OW48155  11.903   8.937   4.836 -0.3909 -0.4368  0.5120
14533SOL    HW148156  11.919   9.024   4.872 -1.4856  0.0001 -0.0448
14533SOL    HW248157  11.989   8.893   4.841  0.4622  1.0758 -0.3654
14534SOL     OW48158   5.677   9.423   2.428 -0.4056 -0.1863 -0.8548
14534SOL    HW148159   5.650   9.403   2.518 -0.6992 -1.7370 -1.2678
14534SOL    HW248160   5.636   9.508   2.409  0.9189  0.9413  0.9730
14535SOL     OW48161   7.432  11.562   3.122  0.6152  0.4061 -0.4756
14535SOL    HW148162   7.422  11.652   3.092 -0.9633  0.7318  0.8712
14535SOL    HW248163   7.524  11.554   3.146  1.0350  1.2828 -1.7119
14536SOL     OW48164  11.165   5.064   8.453  0.0581 -0.5000 -0.0435
14536SOL    HW148165  11.091   5.010   8.482 -0.9664  1.4410  1.1309
14536SOL    HW248166  11.133   5.106   8.373  0.2891 -0.4734 -0.1214
14537SOL     OW48167   8.457   7.515   8.679 -0.2230 -0.4573  0.2101
14537SOL    HW148168   8.527   7.576   8.703  0.5133 -1.1733 -0.0444
14537SOL    HW248169   8.379   7.569   8.670  0.2712  0.3418  0.6460
14538SOL     OW48170   4.850   3.086   5.626 -0.0921 -0.0091 -0.0876
14538SOL    HW148171   4.814   3.010   5.671 -1.5839  0.2632 -0.7672
14538SOL    HW248172   4.815   3.081   5.537 -0.6042  1.6930 -0.0270
14539SOL     OW48173   0.114   0.364   7.335  0.3565  0.2351  0.1002
14539SOL    HW148174   0.100   0.378   7.242  0.7073  2.4481  0.3381
14539SOL    HW248175   0.027   0.341   7.369  0.2945 -0.9135 -0.7960
14540SOL     OW48176  10.159   0.279   0.669  0.0845 -0.0706  0.5189
14540SOL    HW148177  10.208   0.212   0.621 -1.2412  0.7202 -2.1333
14540SOL    HW248178  10.206   0.360   0.653  0.1881  0.0561  1.4382
14541SOL     OW48179   5.966   1.081   0.269  0.1013 -0.4150  0.0305
14541SOL    HW148180   5.982   1.171   0.241  2.1532 -0.3298  1.2522
14541SOL    HW248181   5.946   1.089   0.363 -0.0011 -1.2109  0.0802
14542SOL     OW48182   4.263  10.763   6.694 -0.5519  0.2198 -0.1278
14542SOL    HW148183   4.219  10.848   6.701  1.0420  1.0366  0.6486
14542SOL    HW248184   4.345  10.776   6.741  1.2520 -0.7194 -2.8134
14543SOL     OW48185   1.350   2.027  10.003 -0.0255 -0.1710 -0.1029
14543SOL    HW148186   1.271   2.024   9.949 -0.2040 -1.3910  0.1904
14543SOL    HW248187   1.319   2.005  10.091  0.7403 -1.5495 -0.1412
14544SOL     OW48188  10.865   0.417   8.130  0.2487 -0.2281  0.0079
14544SOL    HW148189  10.915   0.459   8.200 -2.1127  1.2519  0.9273
14544SOL    HW248190  10.891   0.464   8.051  1.3127 -0.4318  0.2169
14545SOL     OW48191   1.142   6.414   5.616  0.1571  0.7014  0.2569
14545SOL    HW148192   1.069   6.384   5.562 -0.7216  0.6124  1.4352
14545SOL    HW248193   1.182   6.485   5.566  0.0209 -0.0310 -0.9430
14546SOL     OW48194   4.353  10.308   8.029 -0.8809  0.3675 -0.3479
14546SOL    HW148195   4.282  10.272   8.083  0.0482  0.2930  0.8446
14546SOL    HW248196   4.315  10.387   7.991 -1.7675  0.0683 -0.1318
14547SOL     OW48197   1.165   2.769   8.252 -0.5994 -0.3793 -0.1446
14547SOL    HW148198   1.111   2.832   8.300  0.3174 -0.6747  1.3251
14547SOL    HW248199   1.139   2.684   8.287 -1.2283 -0.7881 -1.5197
14548SOL     OW48200   4.518   8.603  10.994 -0.2552  0.5225 -0.0465
14548SOL    HW148201   4.450   8.580  11.058 -0.2050  1.2174  0.2626
14548SOL    HW248202   4.500   8.547  10.919 -0.3241 -0.2946  0.5715
14549SOL     OW48203   9.308   1.895   9.723  0.2308 -0.5712  0.9431
14549SOL    HW148204   9.372   1.954   9.765 -0.2039  0.8020 -0.2475
14549SOL    HW248205   9.292   1.934   9.637  0.7424 -3.0566 -0.3784
14550SOL     OW48206  10.014  11.986   6.604 -0.4853  0.1660  0.8240
14550SOL    HW148207   9.931  11.946   6.577  0.9910 -1.1467 -2.1671
14550SOL    HW248208  10.002  12.079   6.587 -0.0529 -0.3913 -4.1368
14551SOL     OW48209   3.444   9.272   9.728  0.1162 -0.7180  0.0831
14551SOL    HW148210   3.367   9.300   9.679  0.5868 -0.9734 -0.8311
14551SOL    HW248211   3.495   9.353   9.740  2.2412 -1.2115 -3.9136
14552SOL     OW48212   3.296  11.561   0.883 -0.1131 -0.1064  0.2288
14552SOL    HW148213   3.329  11.614   0.955  1.9942 -2.1042  0.8767
14552SOL    HW248214   3.294  11.472   0.917 -2.0463 -0.7070 -1.2724
14553SOL     OW48215   2.120   2.618   0.240 -0.0608 -0.4345 -0.0662
14553SOL    HW148216   2.140   2.646   0.329 -0.7231 -1.2450  0.3541
14553SOL    HW248217   2.045   2.559   0.250 -0.3054 -0.3393 -1.1863
14554SOL     OW48218  11.005   5.811   0.236 -0.1889  0.1805 -0.0832
14554SOL    HW148219  11.044   5.823   0.150  0.1096 -0.3318 -0.0237
14554SOL    HW248220  11.047   5.878   0.291  2.8238 -2.0908  0.6963
14555SOL     OW48221   4.743   1.105   6.870  0.1169 -0.0451 -0.0867
14555SOL    HW148222   4.658   1.127   6.907  0.3292  0.7014 -0.0318
14555SOL    HW248223   4.768   1.181   6.818  0.4188 -0.5576 -0.7089
14556SOL     OW48224   5.471   1.459   9.893  0.1041 -0.2658 -0.0726
14556SOL    HW148225   5.525   1.454   9.973 -0.4476  0.3906  0.3450
14556SOL    HW248226   5.532   1.486   9.825  0.5019 -0.4604  0.2003
14557SOL     OW48227  10.509   3.709   6.375  0.5248 -0.6880  0.1452
14557SOL    HW148228  10.488   3.743   6.462  0.6965 -0.4042  0.0756
14557SOL    HW248229  10.510   3.614   6.386 -0.0413 -0.6771  0.3204
14558SOL     OW48230   3.289   1.429   5.689  0.1142 -0.5165 -0.8768
14558SOL    HW148231   3.203   1.394   5.666  0.8223 -1.3709 -2.3955
14558SOL    HW248232   3.326   1.363   5.748  0.0275 -0.5366 -0.8444
14559SOL     OW48233  10.134   9.534   2.263 -0.0875 -0.2549  0.0075
14559SOL    HW148234  10.146   9.456   2.316 -1.2011  0.4685  1.4029
14559SOL    HW248235  10.161   9.606   2.320  0.8653  0.4034 -1.2274
14560SOL     OW48236   7.210   7.796   0.347  0.2603  0.5804  0.0506
14560SOL    HW148237   7.245   7.812   0.434 -1.9066  2.3787  0.6972
14560SOL    HW248238   7.119   7.769   0.363 -0.0400  0.4928 -1.6273
14561SOL     OW48239  10.210   6.885   2.592  0.0699 -0.0646  0.0765
14561SOL    HW148240  10.207   6.826   2.517  2.6213 -1.0682  0.6323
14561SOL    HW248241  10.131   6.866   2.642 -1.0295 -0.2727 -1.6889
14562SOL     OW48242   9.148   3.708  10.940 -0.8484  0.2945 -0.1429
14562SOL    HW148243   9.208   3.739  11.007 -1.6919  0.2864  0.6392
14562SOL    HW248244   9.161   3.613  10.938 -0.7929  0.2993 -0.0211
14563SOL     OW48245   1.371   2.063   4.194  0.3780  0.3266 -0.3548
14563SOL    HW148246   1.335   1.998   4.134  3.4196 -0.5945 -1.3956
14563SOL    HW248247   1.382   2.016   4.277 -0.5889  0.5570 -0.0894
14564SOL     OW48248   2.122   9.570   8.322 -0.3896 -0.5583  0.3393
14564SOL    HW148249   2.038   9.608   8.350 -0.3951 -0.2252 -0.1260
14564SOL    HW248250   2.180   9.646   8.314  0.3211 -0.9024  1.8958
14565SOL     OW48251   1.659   9.529   0.685 -0.5551 -0.1854 -0.0535
14565SOL    HW148252   1.574   9.502   0.719 -0.1163  0.2464  1.4295
14565SOL    HW248253   1.711   9.449   0.682 -1.0774 -0.5128 -1.2732
14566SOL     OW48254   0.924   4.653   2.246  0.2619  0.0677 -0.3361
14566SOL    HW148255   0.856   4.675   2.310 -0.1788 -0.3850 -0.6353
14566SOL    HW248256   0.879   4.659   2.162  0.4910 -0.6208 -0.5090
14567SOL     OW48257  10.377   6.342  10.055 -0.2263 -0.1314  0.1474
14567SOL    HW148258  10.402   6.278  10.122  0.6757 -0.7271 -0.7245
14567SOL    HW248259  10.291   6.374  10.083  0.0218 -0.5573  1.4366
14568SOL     OW48260   2.779   7.668   3.539 -0.0566  0.2165  0.2555
14568SOL    HW148261   2.790   7.726   3.464 -0.7998 -1.5058 -1.2514
14568SOL    HW248262   2.747   7.725   3.609  0.3872  1.8160 -0.7905
14569SOL     OW48263  12.081   8.082   4.081  0.2541  0.4472 -0.1841
14569SOL    HW148264  12.090   8.143   4.008  0.9330  1.5369  0.7778
14569SOL    HW248265  12.068   7.996   4.040  2.2251  0.7747 -1.6230
14570SOL     OW48266  10.976  11.231   4.643  0.1527  0.3275  0.2310
14570SOL    HW148267  10.963  11.306   4.585  1.7095 -0.1982 -0.8562
14570SOL    HW248268  11.027  11.169   4.591  0.5337 -0.6795  1.7451
14571SOL     OW48269   9.518   3.667   7.399 -0.0054 -0.6553  0.0667
14571SOL    HW148270   9.579   3.686   7.471  0.0944 -0.3828 -0.0898
14571SOL    HW248271   9.464   3.595   7.432  0.2498 -0.7425  0.2936
14572SOL     OW48272   8.351   3.008   9.670  0.7340 -0.4282  0.2485
14572SOL    HW148273   8.262   3.039   9.656  0.6439 -1.1755 -1.0972
14572SOL    HW248274   8.405   3.065   9.614  0.7578 -1.5851 -0.9600
14573SOL     OW48275   7.289   1.794   4.424 -0.4462 -0.0049  0.0344
14573SOL    HW148276   7.294   1.886   4.400 -0.7883 -0.0798 -0.3296
14573SOL    HW248277   7.295   1.793   4.519  1.1593  0.2822 -0.0251
14574SOL     OW48278  11.368  11.578   1.055  0.2695  0.3878 -0.0896
14574SOL    HW148279  11.292  11.612   1.009 -1.1245 -0.6517  1.3269
14574SOL    HW248280  11.346  11.587   1.148  1.7107 -0.3039  0.3479
14575SOL     OW48281   7.395  11.027   0.159 -0.5271 -0.2940  0.2585
14575SOL    HW148282   7.301  11.016   0.173 -0.5214 -0.3106  0.2838
14575SOL    HW248283   7.412  11.119   0.180 -0.8231  0.1472 -1.3369
14576SOL     OW48284   1.431   8.702   3.651  0.3505  0.2873 -0.5554
14576SOL    HW148285   1.343   8.672   3.677  0.1920  0.6465 -0.6782
14576SOL    HW248286   1.457   8.641   3.582  0.3333 -0.0184 -0.2945
14577SOL     OW48287   7.707   4.431   5.470  0.3623 -0.1826  0.2092
14577SOL    HW148288   7.721   4.433   5.375  1.2113 -1.4172  0.2830
14577SOL    HW248289   7.626   4.481   5.483  0.9552  1.1692 -1.0107
14578SOL     OW48290   3.544   4.223   8.551 -0.1279  0.5854 -0.1984
14578SOL    HW148291   3.504   4.177   8.625  0.4840  0.3535 -0.0041
14578SOL    HW248292   3.626   4.258   8.586  0.8546 -0.7047 -1.1034
14579SOL     OW48293  11.682   2.838  11.381  0.0186 -0.0522  0.8519
14579SOL    HW148294  11.596   2.876  11.363  0.2691  1.0065  1.7645
14579SOL    HW248295  11.668   2.780  11.455 -0.1618 -0.9668  0.1166
14580SOL     OW48296   8.132  10.720   1.468  0.4353 -0.4339 -0.0421
14580SOL    HW148297   8.093  10.800   1.502 -0.6888 -0.7324 -0.5853
14580SOL    HW248298   8.222  10.722   1.500 -0.2643 -0.2222  2.1156
14581SOL     OW48299   5.310   4.162   2.254 -0.3649  0.2391  0.0119
14581SOL    HW148300   5.387   4.198   2.209 -0.2040 -1.1161 -0.8504
14581SOL    HW248301   5.326   4.068   2.258 -1.8320 -0.0301  0.1406
14582SOL     OW48302  11.592  11.690   1.902 -0.5940 -0.3278 -0.4625
14582SOL    HW148303  11.540  11.656   1.976 -2.8384  0.3942 -1.6009
14582SOL    HW248304  11.554  11.776   1.884  2.7997  1.4621  0.2502
14583SOL     OW48305   0.115   5.729  10.556  0.8423 -0.0325 -0.1388
14583SOL    HW148306   0.081   5.652  10.601  1.6167  0.5073  1.4354
14583SOL    HW248307   0.038   5.770  10.515  0.4342 -1.6404 -1.0535
14584SOL     OW48308   2.552   2.385   6.137 -0.1750 -0.2130  0.6590
14584SOL    HW148309   2.553   2.297   6.097 -0.6050  0.8448 -1.9201
14584SOL    HW248310   2.512   2.440   6.070  0.3380  2.0222  2.1032
14585SOL     OW48311   9.537  10.802   6.413 -0.3276 -0.3645  0.7454
14585SOL    HW148312   9.628  10.832   6.404 -0.7169  0.4077 -1.3675
14585SOL    HW248313   9.529  10.732   6.348 -1.5075  0.3021  0.1449
14586SOL     OW48314   7.395   5.520   0.641  0.7276  0.4247 -0.0042
14586SOL    HW148315   7.466   5.546   0.700  1.2716 -1.9100  0.4955
14586SOL    HW248316   7.319   5.509   0.698  0.3948  1.2648 -0.2732
14587SOL     OW48317   3.467   8.764  10.694 -0.0362 -0.0303 -0.0672
14587SOL    HW148318   3.478   8.814  10.774 -0.4380  1.1570 -0.7347
14587SOL    HW248319   3.542   8.787  10.640 -0.2161 -0.1557 -0.3760
14588SOL     OW48320   0.045   7.387   8.529 -0.4779 -0.4858  0.1118
14588SOL    HW148321   0.076   7.322   8.592 -0.9040  0.3692  1.2474
14588SOL    HW248322   0.100   7.374   8.452  1.4396 -0.2551  1.3771
14589SOL     OW48323   7.850   3.272   5.971 -0.8116  0.5035  0.0985
14589SOL    HW148324   7.945   3.259   5.969 -1.0975 -2.1856 -0.2261
14589SOL    HW248325   7.838   3.363   5.947  1.6861  0.9174  0.1225
14590SOL     OW48326   1.824   4.245  11.270 -0.0907  0.4207  0.0878
14590SOL    HW148327   1.753   4.194  11.230 -0.0668  1.4959 -1.4326
14590SOL    HW248328   1.867   4.184  11.329  1.6475 -2.3171 -3.5655
14591SOL     OW48329   7.058   6.400   9.328  1.2527 -0.0841 -0.5550
14591SOL    HW148330   7.134   6.342   9.330  0.8945 -0.5722 -0.6000
14591SOL    HW248331   7.015   6.380   9.245  0.2902 -0.8820  0.0965
14592SOL     OW48332  11.271   9.367   4.934 -0.5035 -0.3641  0.6028
14592SOL    HW148333  11.185   9.392   4.902 -0.6426 -2.6243 -0.9437
14592SOL    HW248334  11.332   9.425   4.888 -1.1092  0.5619  0.9471
14593SOL     OW48335   5.576   7.788   8.014  0.3750 -0.0031  0.0311
14593SOL    HW148336   5.495   7.823   7.977  1.2560  0.4814 -1.5367
14593SOL    HW248337   5.593   7.842   8.091 -1.8640 -1.4566  1.6627
14594SOL     OW48338   5.656   1.384   0.305 -0.8829 -0.6489  0.6534
14594SOL    HW148339   5.735   1.410   0.351 -1.0655 -0.2184  0.7233
14594SOL    HW248340   5.687   1.344   0.224 -0.6219  0.5334  0.1519
14595SOL     OW48341  11.436   6.079   1.092 -0.0100 -0.0959 -0.2618
14595SOL    HW148342  11.442   6.090   1.187 -2.2836  0.2864 -0.0938
14595SOL    HW248343  11.445   5.985   1.079 -3.4011 -0.7409  0.8519
14596SOL     OW48344   9.932   1.073   0.378 -0.1618 -0.0553 -0.2549
14596SOL    HW148345   9.950   1.128   0.302  1.3974  1.6263  1.2368
14596SOL    HW248346   9.844   1.038   0.362 -0.7984  2.0481 -1.7901
14597SOL     OW48347   4.544   4.724   7.717 -0.0764 -0.1862 -0.0194
14597SOL    HW148348   4.541   4.629   7.722 -1.2655 -0.2156 -0.9147
14597SOL    HW248349   4.591   4.743   7.636  1.6296  0.0399  0.9702
14598SOL     OW48350   6.330   7.126   2.007 -0.1299  0.3636  0.3081
14598SOL    HW148351   6.301   7.115   1.916  0.6021 -2.6224  0.3420
14598SOL    HW248352   6.275   7.196   2.041 -1.1908  0.8086 -2.1092
14599SOL     OW48353   6.293   1.656   8.673  0.2509 -0.2382 -0.2116
14599SOL    HW148354   6.372   1.620   8.634 -0.9294 -1.9140 -1.2141
14599SOL    HW248355   6.244   1.580   8.704 -0.4926  0.8249  1.3858
14600SOL     OW48356   3.230   0.649   8.535  0.3318  0.1421 -0.2674
14600SOL    HW148357   3.233   0.642   8.440  0.3406  0.0867 -0.2638
14600SOL    HW248358   3.286   0.723   8.556 -0.9676  1.1942 -0.4193
14601SOL     OW48359   2.700   2.248   2.212  0.3197  0.8496 -0.4515
14601SOL    HW148360   2.774   2.198   2.176  0.1227 -0.6195  1.0475
14601SOL    HW248361   2.737   2.298   2.284  0.3235  2.2214 -1.3596
14602SOL     OW48362   6.503   0.824   1.558  0.1850  0.2313  0.1985
14602SOL    HW148363   6.424   0.877   1.570 -0.4849 -1.1230  2.5784
14602SOL    HW248364   6.478   0.758   1.494 -0.5133  0.0858  0.6043
14603SOL     OW48365   4.840  10.004   5.041  0.2819 -0.1198 -0.2160
14603SOL    HW148366   4.921  10.009   5.092 -0.1005  2.4399  0.3079
14603SOL    HW248367   4.870   9.997   4.950  1.0048 -2.0393  0.1300
14604SOL     OW48368   0.961   5.728   8.315  0.5776  0.1363  0.4256
14604SOL    HW148369   0.973   5.738   8.221  0.5842 -1.1575  0.2736
14604SOL    HW248370   1.040   5.684   8.346  0.5137  0.4189  1.0045
14605SOL     OW48371   0.637  11.165   4.750 -0.1225  0.0795  0.1502
14605SOL    HW148372   0.586  11.232   4.796  2.5853 -0.2257  4.1045
14605SOL    HW248373   0.641  11.092   4.812  0.8599 -1.9350 -2.1499
14606SOL     OW48374   7.096   5.493   6.075  0.2136  0.5469 -0.3268
14606SOL    HW148375   7.038   5.538   6.014 -0.3260  0.7914  0.3516
14606SOL    HW248376   7.079   5.534   6.160  1.6581  0.8781 -0.1717
14607SOL     OW48377   9.013  10.644   6.869  0.4090 -0.3936 -0.6532
14607SOL    HW148378   9.089  10.666   6.922 -0.5924 -0.8990  1.0932
14607SOL    HW248379   8.971  10.728   6.851  1.6943 -0.0410 -2.2099
14608SOL     OW48380  10.749   1.604   3.045  0.3767 -0.4325  0.6023
14608SOL    HW148381  10.662   1.566   3.060  0.5507 -0.8574  0.5217
14608SOL    HW248382  10.810   1.533   3.063  0.8069  0.3104  2.3461
14609SOL     OW48383   1.745   9.397   3.136 -0.3945 -0.0044  0.5997
14609SOL    HW148384   1.834   9.431   3.133 -0.4860  0.3523  1.5653
14609SOL    HW248385   1.690   9.475   3.138 -0.6994 -0.2185  0.5990
14610SOL     OW48386   5.752   4.416   1.190 -0.0792  0.6366  0.0306
14610SOL    HW148387   5.818   4.443   1.255  0.1863  1.4464 -0.5638
14610SOL    HW248388   5.799   4.359   1.130  0.2501  1.6684 -0.7244
14611SOL     OW48389   8.239   4.948   8.768 -0.0963 -0.3286  0.6922
14611SOL    HW148390   8.221   4.992   8.685 -0.1770 -1.4721  0.0796
14611SOL    HW248391   8.209   5.010   8.835 -0.2779  0.4974 -0.1304
14612SOL     OW48392   2.851   0.153   8.765  0.2134 -0.1223 -0.0603
14612SOL    HW148393   2.823   0.245   8.762  1.3872  0.2608  0.0850
14612SOL    HW248394   2.939   0.154   8.728 -0.3028 -1.4340 -1.3831
14613SOL     OW48395   7.686   8.386   0.889  0.4980 -0.5172 -0.1448
14613SOL    HW148396   7.757   8.327   0.863  0.1416 -1.2918  0.6039
14613SOL    HW248397   7.638   8.402   0.808  1.0515 -0.6266 -0.5033
14614SOL     OW48398   4.626   3.609  10.109  0.6067 -0.0867 -0.3094
14614SOL    HW148399   4.551   3.662  10.136  0.4621 -0.5556  0.2256
14614SOL    HW248400   4.633   3.624  10.015 -1.8511 -2.1208 -0.9297
14615SOL     OW48401   7.222   6.113   1.599 -0.1896  0.8165 -0.4248
14615SOL    HW148402   7.276   6.078   1.670  1.5489  2.0696 -1.0602
14615SOL    HW248403   7.132   6.096   1.627  0.4913 -0.5617  1.0984
14616SOL     OW48404   2.710   1.132   5.648  0.0422 -0.3234 -0.1789
14616SOL    HW148405   2.691   1.201   5.712  0.9694 -1.2265  1.1227
14616SOL    HW248406   2.635   1.073   5.653 -0.2642  0.0279 -0.5368
14617SOL     OW48407   4.428   4.407   6.812 -0.1519 -0.3107 -0.1679
14617SOL    HW148408   4.456   4.492   6.777 -0.4181 -0.1794 -0.0640
14617SOL    HW248409   4.509   4.357   6.819 -0.2181 -0.7643 -2.1208
14618SOL     OW48410   2.507   6.012   2.438  0.2755  0.4852  0.1680
14618SOL    HW148411   2.472   5.929   2.405  1.2938  1.2784 -3.2738
14618SOL    HW248412   2.590   5.988   2.479 -0.6112 -0.4447  1.4993
14619SOL     OW48413   3.525   3.451   9.200 -0.1029 -0.7901 -0.5000
14619SOL    HW148414   3.534   3.546   9.187 -1.8847 -0.7607 -1.9151
14619SOL    HW248415   3.431   3.437   9.207  0.1048 -2.5413 -0.8778
14620SOL     OW48416   0.105  10.348   2.660 -0.1995 -0.6225  0.6694
14620SOL    HW148417   0.194  10.332   2.692  0.4523  3.4196  1.4058
14620SOL    HW248418   0.048  10.321   2.732  0.9000  2.3755  2.8542
14621SOL     OW48419   7.570   5.066   0.980 -0.4350  0.1175 -0.3443
14621SOL    HW148420   7.601   4.986   0.936 -1.5204 -0.2170 -0.5463
14621SOL    HW248421   7.538   5.035   1.064  1.0683  0.6697  0.4677
14622SOL     OW48422   4.911   0.871   5.681 -0.1349 -0.4904 -0.2554
14622SOL    HW148423   4.930   0.947   5.736  1.0116  1.0044 -2.5723
14622SOL    HW248424   4.817   0.857   5.693 -0.2901  1.0114  0.5836
14623SOL     OW48425   6.998   5.424  10.074  0.4021 -0.2804  0.2203
14623SOL    HW148426   7.029   5.394  10.160 -0.7391  0.3556  0.8763
14623SOL    HW248427   7.078   5.440  10.024  1.0792 -1.5384  0.8490
14624SOL     OW48428   4.772  11.475   2.059  0.3841 -0.4877  0.0683
14624SOL    HW148429   4.857  11.470   2.015  0.9820 -1.0240  1.2488
14624SOL    HW248430   4.733  11.389   2.046  0.3014 -0.4523  0.0822
14625SOL     OW48431  11.954   4.660  11.430 -0.2938  0.4052  0.2055
14625SOL    HW148432  11.979   4.587  11.374 -0.9781 -0.5151  1.0555
14625SOL    HW248433  12.024   4.667  11.495 -0.3975  0.2817  0.3310
14626SOL     OW48434   1.628   8.140  10.133 -0.2795  0.1919 -0.1616
14626SOL    HW148435   1.602   8.224  10.172  0.7033 -0.4211  1.9481
14626SOL    HW248436   1.720   8.152  10.110  0.0361 -0.4672  0.7039
14627SOL     OW48437   7.346   4.561  11.610  0.3908 -0.0482  0.1420
14627SOL    HW148438   7.328   4.629  11.675 -2.7881 -0.0105 -0.6022
14627SOL    HW248439   7.318   4.480  11.652 -0.6442 -0.1736 -0.7603
14628SOL     OW48440   1.986   8.691   7.042 -0.0477  0.4888 -0.0748
14628SOL    HW148441   2.033   8.706   7.124  1.4378 -0.5004 -0.7159
14628SOL    HW248442   1.906   8.646   7.068  1.4243 -1.8332  0.6798
14629SOL     OW48443   2.263  11.355   9.043 -0.1967 -0.1537 -0.6949
14629SOL    HW148444   2.195  11.419   9.022 -0.5847 -0.9364 -1.9719
14629SOL    HW248445   2.215  11.274   9.059  0.3918 -0.5715 -1.0198
14630SOL     OW48446   9.894   0.196   0.703 -0.2429 -0.3577 -0.4005
14630SOL    HW148447   9.975   0.246   0.697 -1.6194  1.8900 -1.5966
14630SOL    HW248448   9.922   0.107   0.726  2.4340  0.5825  0.2814
14631SOL     OW48449   5.028   8.010  11.528 -0.1662 -0.0261  0.1810
14631SOL    HW148450   5.072   8.078  11.578  0.0174  1.5172 -1.9693
14631SOL    HW248451   5.076   7.930  11.549  0.0330  0.5695  2.2427
14632SOL     OW48452   4.897   0.739   8.215 -0.2042  0.3525 -0.0528
14632SOL    HW148453   4.840   0.669   8.248  1.9209 -1.1363  0.7349
14632SOL    HW248454   4.937   0.777   8.293  1.1515  0.1725 -0.6213
14633SOL     OW48455   7.749   1.534   4.886 -0.1579  0.3744  0.4845
14633SOL    HW148456   7.801   1.614   4.876  0.9583 -0.3235  0.5181
14633SOL    HW248457   7.801   1.479   4.945 -1.1706 -0.1596  0.9040
14634SOL     OW48458   4.484   6.678   8.244  0.3606 -0.0084 -0.1270
14634SOL    HW148459   4.388   6.672   8.250  0.4739 -0.2199  3.3320
14634SOL    HW248460   4.501   6.770   8.224 -0.5429 -0.0189 -1.0137
14635SOL     OW48461   0.765   3.954  10.782  0.1494  0.0886  0.3901
14635SOL    HW148462   0.721   3.945  10.867 -0.1226 -0.2671  0.2082
14635SOL    HW248463   0.702   3.999  10.727  0.5758  0.9287  0.5674
14636SOL     OW48464   2.123   3.223   6.354 -0.1891 -0.1228 -0.0275
14636SOL    HW148465   2.050   3.183   6.401  0.2077  0.0693  0.7736
14636SOL    HW248466   2.167   3.150   6.310 -0.0420 -0.4364  0.6318
14637SOL     OW48467   4.858   6.801   5.058 -0.2718 -0.1647 -0.4426
14637SOL    HW148468   4.867   6.708   5.079 -0.1080  0.2236  1.3066
14637SOL    HW248469   4.779   6.829   5.105  1.4806  1.3009  1.8272
14638SOL     OW48470   6.295   8.519   3.864 -0.1067 -0.3141  0.2436
14638SOL    HW148471   6.275   8.426   3.861  0.9518 -0.5844  0.8790
14638SOL    HW248472   6.211   8.562   3.873 -0.4606 -1.3418  2.3851
14639SOL     OW48473   3.010   6.786   4.194 -0.6806 -0.2694  0.8637
14639SOL    HW148474   3.092   6.834   4.182 -2.2759  2.9312  1.6698
14639SOL    HW248475   3.021   6.739   4.276  1.0116 -1.6105 -0.0593
14640SOL     OW48476   0.789   7.095   8.672  0.9919  0.2276  0.8530
14640SOL    HW148477   0.786   7.000   8.663  2.2638  0.2148  0.3223
14640SOL    HW248478   0.790   7.110   8.767  0.0245 -0.2471  0.9433
14641SOL     OW48479  11.296   7.739   0.483 -0.7802  0.1347 -0.1596
14641SOL    HW148480  11.255   7.684   0.416 -0.2830  0.8314 -1.0640
14641SOL    HW248481  11.225   7.795   0.514 -0.6395  1.0502 -1.4205
14642SOL     OW48482   8.730  11.112   5.608 -0.0993  0.2254  0.1791
14642SOL    HW148483   8.743  11.074   5.522 -2.4876  3.2892 -1.7479
14642SOL    HW248484   8.638  11.093   5.629 -0.2297  1.5089  0.9071
14643SOL     OW48485  10.829  10.766   1.837 -0.0105 -0.0809  0.1510
14643SOL    HW148486  10.813  10.808   1.921  0.1178  0.0577  0.1069
14643SOL    HW248487  10.755  10.707   1.825  0.8843 -1.4925  1.2264
14644SOL     OW48488   4.962   5.789   3.649 -0.4511 -0.4811 -0.2391
14644SOL    HW148489   4.939   5.836   3.730 -0.4424  1.7145 -1.4464
14644SOL    HW248490   4.884   5.797   3.594 -0.2096 -1.3840 -0.7263
14645SOL     OW48491   8.238   2.564   4.979 -0.2440  0.3590  0.1048
14645SOL    HW148492   8.258   2.596   5.067  0.0290  0.8913 -0.1430
14645SOL    HW248493   8.156   2.609   4.956  0.3037  1.1374 -0.3668
14646SOL     OW48494   2.174   6.014   9.682  0.2107 -0.2099 -0.3388
14646SOL    HW148495   2.129   5.979   9.605 -0.6290 -0.6637  0.3335
14646SOL    HW248496   2.113   6.078   9.719  0.1426 -0.7604  0.5340
14647SOL     OW48497   0.528   1.500   5.279 -0.1177  0.4177  0.2827
14647SOL    HW148498   0.592   1.521   5.347  1.1737 -0.1689 -0.6864
14647SOL    HW248499   0.450   1.548   5.303  0.2530  0.1321  2.2376
14648SOL     OW48500   2.362   6.980  11.326 -0.0411  0.8646 -0.2473
14648SOL    HW148501   2.320   7.064  11.313 -1.6195 -0.0176 -1.1786
14648SOL    HW248502   2.455   6.999  11.330  0.0573  2.2561 -4.5990
14649SOL     OW48503  11.310   6.180   8.334  0.1484  0.1615  0.2535
14649SOL    HW148504  11.267   6.103   8.297  0.6997 -1.8187  3.3143
14649SOL    HW248505  11.242   6.221   8.388  0.6760  0.0106  1.0429
14650SOL     OW48506   5.766   1.152   5.000 -0.3614  0.2004 -0.3769
14650SOL    HW148507   5.783   1.165   5.093  0.7687 -0.0216 -0.5394
14650SOL    HW248508   5.717   1.071   4.996  0.7110 -0.4853 -0.0556
14651SOL     OW48509   0.338   7.829  10.191 -0.4946  0.0183 -0.2572
14651SOL    HW148510   0.411   7.775  10.162 -0.3810  0.9006 -1.7017
14651SOL    HW248511   0.346   7.831  10.287  2.7128  1.8578 -0.4276
14652SOL     OW48512   2.221  11.460   5.642 -0.9899  0.0567  0.3021
14652SOL    HW148513   2.249  11.523   5.575  0.8750 -1.8165 -0.7778
14652SOL    HW248514   2.264  11.490   5.722  1.2643 -0.7141 -0.5621
14653SOL     OW48515   1.382   3.362   7.825  0.3404  0.0014 -0.5319
14653SOL    HW148516   1.357   3.395   7.911 -0.3743  2.2990 -1.5234
14653SOL    HW248517   1.450   3.423   7.795 -0.8857  0.5575 -2.3827
14654SOL     OW48518   0.739   0.634  10.599  0.3469 -0.2510 -0.3580
14654SOL    HW148519   0.731   0.637  10.694 -1.0117 -1.0003 -0.4158
14654SOL    HW248520   0.804   0.565  10.582  0.9760  0.2404  0.0268
14655SOL     OW48521   5.956   2.164   9.296 -0.3534 -0.0877  0.3677
14655SOL    HW148522   6.000   2.087   9.259 -0.6919 -0.1374  0.0682
14655SOL    HW248523   5.948   2.224   9.222  0.6961  0.5972  0.7937
14656SOL     OW48524   8.915   9.091   2.658 -0.0569  0.2971 -0.0053
14656SOL    HW148525   8.852   9.094   2.730 -1.6412  0.3013 -1.3259
14656SOL    HW248526   8.861   9.087   2.579  1.6161  0.4602 -1.2166
14657SOL     OW48527   5.569   8.218   9.754  0.8769  0.2614  0.1981
14657SOL    HW148528   5.635   8.263   9.701 -0.5036  1.3998 -0.6495
14657SOL    HW248529   5.564   8.130   9.717  2.1153  0.0551  0.4802
14658SOL     OW48530   5.383   8.431   6.360 -0.7096  0.4983 -0.1287
14658SOL    HW148531   5.312   8.478   6.404  0.5946  1.0676  1.4613
14658SOL    HW248532   5.412   8.492   6.291  0.6160  1.8989  1.5815
14659SOL     OW48533   6.345   8.916   9.100  0.0809  0.4514  0.0369
14659SOL    HW148534   6.424   8.968   9.117 -0.0746  0.1961  1.6648
14659SOL    HW248535   6.352   8.841   9.158 -0.9779  0.0074 -0.3820
14660SOL     OW48536   6.153   8.723   6.183  0.3027 -0.8013  0.2990
14660SOL    HW148537   6.200   8.663   6.242  0.3587 -1.0615 -0.0035
14660SOL    HW248538   6.073   8.676   6.160  0.5216 -0.9206 -0.2365
14661SOL     OW48539   8.368   4.650   8.862 -0.2937  0.4342  0.1229
14661SOL    HW148540   8.344   4.742   8.852  1.3680  1.2411  2.6621
14661SOL    HW248541   8.373   4.636   8.956  0.1233 -2.1219 -0.1963
14662SOL     OW48542   9.101   1.296   1.630 -0.2796 -0.2249  0.0239
14662SOL    HW148543   9.110   1.281   1.724 -0.0936  0.6058  0.1426
14662SOL    HW248544   9.009   1.280   1.612 -0.4863  0.3984  0.4982
14663SOL     OW48545   6.895   7.357   7.277 -0.0244  0.1114  0.6619
14663SOL    HW148546   6.855   7.285   7.326 -0.9853  1.1246  1.4341
14663SOL    HW248547   6.898   7.429   7.340  0.5339  0.8756 -0.2130
14664SOL     OW48548   5.259   1.797  11.481  0.3545 -0.0501 -0.0266
14664SOL    HW148549   5.239   1.778  11.573 -2.1937  0.4386 -0.4035
14664SOL    HW248550   5.289   1.888  11.482  0.6402 -0.1435  0.3384
14665SOL     OW48551   3.575   6.921   4.420 -0.6490 -0.0089 -0.3118
14665SOL    HW148552   3.572   6.871   4.339 -1.7973 -0.9775  0.3023
14665SOL    HW248553   3.635   6.872   4.476 -0.1750  0.4349 -0.4295
14666SOL     OW48554  11.838   2.932   6.682  0.0060 -0.4013  0.6383
14666SOL    HW148555  11.865   3.015   6.721 -1.0358  0.1509  0.2148
14666SOL    HW248556  11.806   2.880   6.756  0.0976 -0.1980  0.8234
14667SOL     OW48557   4.158   3.947   0.267  0.3303  0.1358 -0.0605
14667SOL    HW148558   4.234   3.889   0.270  0.1896 -0.0435  0.0175
14667SOL    HW248559   4.083   3.890   0.284 -0.1221 -0.2119 -2.7753
14668SOL     OW48560   2.942   2.989   7.810 -0.0548 -0.2500  0.3228
14668SOL    HW148561   2.921   3.023   7.723 -1.3966  0.4916  0.9039
14668SOL    HW248562   2.891   3.044   7.869  0.5589 -0.9829  1.5545
14669SOL     OW48563   8.486   9.042   5.373 -0.6408 -0.3519 -0.3247
14669SOL    HW148564   8.449   8.954   5.381 -0.5282 -0.5212 -1.5072
14669SOL    HW248565   8.411   9.101   5.380 -1.0203 -0.6463 -1.6194
14670SOL     OW48566   7.417   4.704   6.665  0.2699 -0.3727 -0.0925
14670SOL    HW148567   7.385   4.791   6.688 -0.3985  0.0862 -2.4538
14670SOL    HW248568   7.351   4.670   6.604  1.5817 -1.6547 -0.8501
14671SOL     OW48569   3.330   4.524   8.821  0.1053 -0.2630  0.1436
14671SOL    HW148570   3.272   4.598   8.806  0.6950  0.2763  0.4554
14671SOL    HW248571   3.410   4.546   8.773  0.3574 -0.6002  0.4041
14672SOL     OW48572   9.856   5.999   6.719  0.3262  0.3848  0.0500
14672SOL    HW148573   9.814   5.914   6.703 -1.1299  1.1199 -0.2535
14672SOL    HW248574   9.896   6.022   6.635  0.1083  0.3073 -0.0776
14673SOL     OW48575  10.418   7.728  11.028 -0.2955 -0.4352  0.3654
14673SOL    HW148576  10.433   7.660  11.094  2.0285 -1.2054 -0.8560
14673SOL    HW248577  10.370   7.684  10.959 -2.1624  0.2109  1.1841
14674SOL     OW48578   3.824   8.573   9.406  0.3167 -0.1516  0.4696
14674SOL    HW148579   3.773   8.621   9.471  1.1492  0.3218  0.7819
14674SOL    HW248580   3.884   8.519   9.457 -0.0338 -0.9054  0.1080
14675SOL     OW48581  10.136   0.166   7.084  0.7010  0.3765 -0.3962
14675SOL    HW148582  10.066   0.140   7.142  1.3467 -0.6874 -0.0731
14675SOL    HW248583  10.185   0.086   7.067  2.1014  1.1609 -0.2522
14676SOL     OW48584   7.509   3.882   2.374  0.4476 -0.1454  0.2759
14676SOL    HW148585   7.541   3.934   2.448  2.3058  2.3346 -2.0459
14676SOL    HW248586   7.427   3.924   2.349  0.4765 -0.1529  0.1668
14677SOL     OW48587   7.881   9.023   1.625  0.3399  0.1405 -0.3287
14677SOL    HW148588   7.872   8.996   1.534 -0.1959  2.6037 -1.0862
14677SOL    HW248589   7.798   9.067   1.645  0.7071  0.2161  1.1297
14678SOL     OW48590   7.444  11.470   7.460  0.3622  0.3805 -0.2150
14678SOL    HW148591   7.418  11.386   7.498  1.1337  0.1199 -0.2612
14678SOL    HW248592   7.538  11.463   7.448  0.3752  1.1152 -0.5713
14679SOL     OW48593   7.106   6.273   3.753 -0.2132 -0.7032 -0.2740
14679SOL    HW148594   7.157   6.306   3.679 -0.4244  0.0473 -0.0918
14679SOL    HW248595   7.113   6.341   3.819 -2.2588 -0.1247 -0.6014
14680SOL     OW48596   2.495   5.459   2.927  1.0439 -0.3259  0.3693
14680SOL    HW148597   2.553   5.534   2.919  0.8099 -0.0603  1.0833
14680SOL    HW248598   2.438   5.480   3.001  0.6759 -1.0071  0.2908
14681SOL     OW48599   5.262   9.875   4.725 -0.0332 -0.2682 -0.0030
14681SOL    HW148600   5.334   9.812   4.735 -0.2158 -0.4920 -0.0930
14681SOL    HW248601   5.198   9.849   4.791 -0.6670 -0.9562 -0.8672
14682SOL     OW48602   0.844   9.525   0.420  0.7962  0.0682 -0.5513
14682SOL    HW148603   0.915   9.583   0.449  0.7939 -0.5707  0.7866
14682SOL    HW248604   0.860   9.514   0.326  1.0668  1.8384 -0.7456
14683SOL     OW48605   5.778   5.599   1.468 -0.3427 -0.0125 -0.3147
14683SOL    HW148606   5.749   5.513   1.498  0.9065 -0.4126 -0.1707
14683SOL    HW248607   5.865   5.609   1.507 -0.7395  1.6137  0.2208
14684SOL     OW48608   9.591   6.353   8.342  0.0734 -0.8962 -0.3965
14684SOL    HW148609   9.634   6.437   8.331  1.5523 -1.4194  1.0446
14684SOL    HW248610   9.546   6.360   8.427 -1.4748 -0.8913 -1.1846
14685SOL     OW48611   1.780   3.567   7.974 -0.0816  0.5581 -0.1615
14685SOL    HW148612   1.711   3.580   7.910 -0.4063  1.0220  0.2799
14685SOL    HW248613   1.757   3.485   8.018  0.5522 -0.1724 -1.1433
14686SOL     OW48614  10.972   0.530   9.302  0.2831  0.2263 -0.3149
14686SOL    HW148615  10.928   0.554   9.221  0.9178  3.1073  0.0616
14686SOL    HW248616  10.902   0.521   9.366 -0.0091  2.1751 -0.3005
14687SOL     OW48617   8.416  10.053   8.508 -0.6494  0.1237 -0.0848
14687SOL    HW148618   8.322  10.073   8.512 -0.6605  0.6284 -1.8644
14687SOL    HW248619   8.457  10.123   8.559 -1.1438  0.9003 -0.7242
14688SOL     OW48620   7.887   2.960   7.181 -0.2583 -0.0648 -0.1454
14688SOL    HW148621   7.964   2.909   7.205  0.1726  1.4750  2.0703
14688SOL    HW248622   7.816   2.921   7.233 -0.0088  1.2107  1.2398
14689SOL     OW48623  10.778   0.893   7.130  0.3738 -0.3537 -0.1397
14689SOL    HW148624  10.819   0.977   7.107  0.8224  0.1622  2.2551
14689SOL    HW248625  10.826   0.828   7.079  0.1308  0.7918 -1.9120
14690SOL     OW48626   3.168   7.166  10.486  0.2712  0.1936  0.1776
14690SOL    HW148627   3.150   7.258  10.469  0.3897  0.1960  0.0653
14690SOL    HW248628   3.168   7.125  10.399 -0.9124 -0.1158  0.2998
14691SOL     OW48629   9.863  10.780   7.323  1.2522 -0.4848  0.2030
14691SOL    HW148630   9.778  10.813   7.293  1.1774  1.3297  2.1865
14691SOL    HW248631   9.860  10.686   7.305 -1.1300 -0.4502  0.1247
14692SOL     OW48632   3.558   8.906   6.284  0.4795  0.1446  0.7983
14692SOL    HW148633   3.652   8.919   6.298  0.5880 -0.8527  1.0251
14692SOL    HW248634   3.552   8.840   6.215 -0.0459 -0.4817  1.4241
14693SOL     OW48635   9.679   6.785   0.395 -0.3614  0.1654 -0.0690
14693SOL    HW148636   9.628   6.721   0.347 -1.4420  1.8601 -1.3066
14693SOL    HW248637   9.671   6.759   0.487 -0.8914 -1.3417 -0.5182
14694SOL     OW48638   0.056   4.611   8.528  0.8911 -0.4148  0.2333
14694SOL    HW148639   0.028   4.583   8.615 -0.0222  1.8356  0.7349
14694SOL    HW248640   0.134   4.665   8.544  2.3223 -2.1103 -0.6473
14695SOL     OW48641   5.799   2.719   3.957  0.1874 -0.3874 -0.4563
14695SOL    HW148642   5.798   2.745   4.049 -1.8171 -0.9437 -0.2801
14695SOL    HW248643   5.716   2.750   3.922  2.0907  2.5958 -2.9802
14696SOL     OW48644   4.563  10.929   3.628  0.3120  0.7162 -0.1653
14696SOL    HW148645   4.575  10.922   3.722 -0.4041 -2.2012 -0.1920
14696SOL    HW248646   4.469  10.942   3.616  0.0428 -1.2326 -0.4733
14697SOL     OW48647  11.039   0.567   7.947 -0.2011  0.0199  0.4425
14697SOL    HW148648  11.092   0.487   7.951 -1.0178 -0.6215 -1.0767
14697SOL    HW248649  11.081   0.621   7.880 -0.5076  0.2237  0.4125
14698SOL     OW48650  10.924   8.825   9.127  0.1238  0.0174 -0.0105
14698SOL    HW148651  10.946   8.882   9.053  0.4538 -1.8420 -1.4186
14698SOL    HW248652  10.831   8.808   9.118 -0.0867  0.6911  0.7121
14699SOL     OW48653   0.653   0.761   1.855  0.1862 -0.0836  0.1551
14699SOL    HW148654   0.569   0.761   1.809 -0.2439  1.2794  0.8556
14699SOL    HW248655   0.685   0.851   1.846  0.9341 -0.2460  1.0055
14700SOL     OW48656   9.391   6.397   7.640  0.2685  0.6411  0.2632
14700SOL    HW148657   9.483   6.419   7.628 -0.2349  2.1618 -1.1240
14700SOL    HW248658   9.384   6.305   7.614  1.3367  0.6032  0.0875
14701SOL     OW48659   7.189   0.173  10.686  0.1182  0.1725 -0.2696
14701SOL    HW148660   7.226   0.198  10.601 -0.3921  0.5832 -0.3769
14701SOL    HW248661   7.237   0.093  10.710 -0.3426 -0.4657 -1.3675
14702SOL     OW48662   3.241   4.386   2.160 -0.5818 -0.3544  0.4451
14702SOL    HW148663   3.147   4.404   2.159 -0.5931  0.0518  3.0134
14702SOL    HW248664   3.279   4.458   2.209  1.1296 -0.4717 -0.6236
14703SOL     OW48665  10.501   2.884   3.368  0.3970  0.6256  0.1485
14703SOL    HW148666  10.587   2.846   3.385  0.9567  1.2927 -1.0454
14703SOL    HW248667  10.518   2.975   3.347 -0.5395  0.6429 -0.6312
14704SOL     OW48668   9.134   3.326   6.630 -0.6371  0.3306 -0.2011
14704SOL    HW148669   9.201   3.306   6.564 -0.0110 -2.3874  1.1018
14704SOL    HW248670   9.183   3.356   6.706 -0.8639 -1.3424  0.6419
14705SOL     OW48671   3.711   5.251   0.647  0.0672 -0.3534  0.4003
14705SOL    HW148672   3.734   5.313   0.578  0.9161  0.9083  1.7720
14705SOL    HW248673   3.631   5.288   0.686  1.7461  1.1951  2.6511
14706SOL     OW48674   5.064   0.736   9.083  0.3204 -0.6743  0.7826
14706SOL    HW148675   5.061   0.682   9.161  1.2203 -0.8285  0.7182
14706SOL    HW248676   5.129   0.804   9.102 -0.6036  0.2350  0.7622
14707SOL     OW48677   6.618   2.558   3.735  0.4293  0.3010 -0.0548
14707SOL    HW148678   6.711   2.537   3.744  0.4789  0.2676 -0.6106
14707SOL    HW248679   6.589   2.575   3.824  0.5061 -1.6787  0.4071
14708SOL     OW48680  11.272   1.817   6.273 -0.5145 -0.6303 -0.0456
14708SOL    HW148681  11.206   1.759   6.312 -1.2374  0.2849  0.1404
14708SOL    HW248682  11.223   1.897   6.253  0.1108 -0.6358 -1.7198
14709SOL     OW48683   2.690   4.596   8.338  0.9345 -0.1074  0.4218
14709SOL    HW148684   2.693   4.675   8.286  1.2257 -1.4979 -1.8042
14709SOL    HW248685   2.768   4.547   8.313 -1.7435 -3.4613 -2.4093
14710SOL     OW48686   9.142   9.674   2.257  0.3623 -0.5394 -0.5388
14710SOL    HW148687   9.131   9.733   2.332 -0.1606 -1.0569 -0.2003
14710SOL    HW248688   9.214   9.617   2.283  1.2540  0.2909 -1.1018
14711SOL     OW48689   4.049   8.389   5.894 -0.3650  0.2083 -0.0749
14711SOL    HW148690   4.025   8.357   5.981  1.7289 -0.6633  0.2580
14711SOL    HW248691   4.109   8.461   5.910  0.0078  0.0693 -0.7759
14712SOL     OW48692  10.912  10.132  11.588  0.1942  0.0114  0.4751
14712SOL    HW148693  10.969  10.199  11.627 -0.3633  0.0533  1.2384
14712SOL    HW248694  10.879  10.173  11.508 -1.8514  1.5681  1.9881
14713SOL     OW48695   9.276   3.318   3.798 -0.2170 -0.4723 -0.6678
14713SOL    HW148696   9.318   3.245   3.843  0.2172  0.1682 -0.0317
14713SOL    HW248697   9.193   3.281   3.767 -1.1906 -0.6003  1.8437
14714SOL     OW48698   1.416   2.617   6.223 -0.3278 -0.1922  0.2881
14714SOL    HW148699   1.459   2.532   6.234 -1.2024 -0.6940 -0.0841
14714SOL    HW248700   1.331   2.607   6.264 -0.3885  0.5515  0.3583
14715SOL     OW48701  11.252   1.308   6.213  0.0176 -0.3076  0.0157
14715SOL    HW148702  11.203   1.237   6.253 -0.5946 -0.0753 -0.3139
14715SOL    HW248703  11.217   1.388   6.253  1.7396 -0.2390  1.5092
14716SOL     OW48704   7.925   3.784   4.561 -0.5363  0.2286 -0.6890
14716SOL    HW148705   7.892   3.717   4.501 -1.1603 -0.0461 -0.0554
14716SOL    HW248706   7.854   3.797   4.624 -0.0492  0.7967 -0.2438
14717SOL     OW48707   6.169   4.676   3.238 -0.2454  0.0730  0.2003
14717SOL    HW148708   6.241   4.633   3.192 -0.4442 -1.7184  1.4124
14717SOL    HW248709   6.189   4.663   3.331 -2.0959 -0.4923  0.5729
14718SOL     OW48710   2.985   5.605  10.087  0.0070 -0.8191 -0.3276
14718SOL    HW148711   2.902   5.595  10.134  0.3998 -1.8057  0.1957
14718SOL    HW248712   2.969   5.677  10.026 -2.1794 -2.7672 -2.2751
14719SOL     OW48713   1.033   7.569   1.908 -0.6154 -0.2449 -0.1504
14719SOL    HW148714   1.019   7.474   1.901 -1.0577 -0.3384  1.5470
14719SOL    HW248715   1.052   7.597   1.818  0.8495 -2.1394 -0.4975
14720SOL     OW48716   2.055  10.334   9.642 -0.3435 -0.7747  0.3007
14720SOL    HW148717   2.016  10.358   9.558 -0.5964  0.8745  0.8634
14720SOL    HW248718   2.148  10.319   9.622 -0.4871 -0.8225 -0.3513
14721SOL     OW48719   3.716   0.315   3.660 -0.1724 -0.4373  0.4181
14721SOL    HW148720   3.621   0.323   3.675 -0.6965 -2.0112 -1.6962
14721SOL    HW248721   3.754   0.384   3.715 -2.6292  1.1958  0.2325
14722SOL     OW48722   5.418   5.037   3.307 -0.0306 -0.5435  0.5760
14722SOL    HW148723   5.414   5.011   3.399 -1.6347 -1.2267  0.3329
14722SOL    HW248724   5.434   5.132   3.311  0.8455 -0.7000  1.5205
14723SOL     OW48725   9.635   9.593   8.111 -0.2296  0.4064  0.1593
14723SOL    HW148726   9.728   9.585   8.087 -0.0383 -0.8365  1.2005
14723SOL    HW248727   9.599   9.505   8.097 -1.1944  0.8110  0.0257
14724SOL     OW48728   9.785  10.728   3.426  0.4615 -0.3021 -0.0415
14724SOL    HW148729   9.724  10.672   3.378  1.2696 -0.7892 -0.5086
14724SOL    HW248730   9.866  10.727   3.375  0.7406  0.6861  0.3412
14725SOL     OW48731   3.429   7.565   6.486 -0.4443  0.2278  0.0076
14725SOL    HW148732   3.446   7.648   6.529 -2.8953  0.4357  0.6947
14725SOL    HW248733   3.426   7.501   6.558  0.2197 -0.2617 -0.3879
14726SOL     OW48734   2.982   5.842   2.431 -0.0876  0.0940  0.2120
14726SOL    HW148735   2.970   5.795   2.348  1.2724  1.3072 -0.7331
14726SOL    HW248736   2.958   5.932   2.411 -0.7568  0.1969  1.4463
14727SOL     OW48737   6.709   5.353   6.811  0.1975 -0.4193  0.4783
14727SOL    HW148738   6.773   5.355   6.740 -1.9156 -1.0815 -1.5946
14727SOL    HW248739   6.678   5.443   6.818  2.1528  0.1842  2.3823
14728SOL     OW48740   1.492   9.773   6.616  0.2142 -0.0898  0.0716
14728SOL    HW148741   1.409   9.770   6.663 -1.1059  0.1988 -2.0891
14728SOL    HW248742   1.535   9.852   6.648  0.5372 -1.1526  2.4992
14729SOL     OW48743   4.509   9.985   5.481  0.3781 -0.1499 -0.1315
14729SOL    HW148744   4.456  10.065   5.479 -0.2585 -0.5246  1.0036
14729SOL    HW248745   4.576   9.999   5.414 -0.0372  1.1085 -0.3097
14730SOL     OW48746   0.741  10.833   3.180 -0.6399 -0.5211  0.1371
14730SOL    HW148747   0.675  10.791   3.235 -1.3502 -0.5663 -0.7287
14730SOL    HW248748   0.691  10.880   3.114  0.1784  0.8663  0.4817
14731SOL     OW48749   1.704  10.766   3.428  0.0070  1.0011 -0.6987
14731SOL    HW148750   1.629  10.740   3.375 -0.2605  0.1361  0.0822
14731SOL    HW248751   1.749  10.831   3.374 -0.9157  1.0327 -1.4693
14732SOL     OW48752   2.818   9.591   7.148 -0.3694 -0.5842 -0.1897
14732SOL    HW148753   2.725   9.571   7.160 -0.3233 -0.3467  0.6518
14732SOL    HW248754   2.824   9.625   7.058 -0.7931 -2.2260 -0.8676
14733SOL     OW48755   8.795   0.342   9.246 -0.2724 -0.0133 -0.3434
14733SOL    HW148756   8.717   0.312   9.293 -0.3797 -0.8289 -0.9994
14733SOL    HW248757   8.763   0.361   9.157  0.4424 -1.3573 -0.9181
14734SOL     OW48758   4.264   6.727   3.727  0.4544  0.4076 -0.0115
14734SOL    HW148759   4.341   6.758   3.775  1.7462  0.7199 -2.1599
14734SOL    HW248760   4.277   6.759   3.638 -0.0139 -3.0521 -1.4859
14735SOL     OW48761   8.933   6.145  11.859  0.6916  0.0980 -0.1103
14735SOL    HW148762   8.983   6.110  11.933 -0.6524 -0.7519  0.4387
14735SOL    HW248763   8.916   6.236  11.881  0.7746 -0.0033  0.3800
14736SOL     OW48764   2.758  11.071   7.797  0.3331  0.3434  0.0908
14736SOL    HW148765   2.829  11.062   7.861  0.6348  0.2629 -0.2545
14736SOL    HW248766   2.762  11.162   7.768  2.3507 -0.4136 -2.2897
14737SOL     OW48767   0.525   9.067   7.646  0.3154  0.2713 -0.2032
14737SOL    HW148768   0.438   9.039   7.617 -0.2396  0.9294  0.7562
14737SOL    HW248769   0.521   9.062   7.742  1.5463 -0.2914 -0.1665
14738SOL     OW48770  11.891   0.387  10.384  0.1632  0.2083 -0.2990
14738SOL    HW148771  11.847   0.318  10.334 -0.8581  0.6004  0.0401
14738SOL    HW248772  11.828   0.411  10.452  0.6585  1.2205 -0.1854
14739SOL     OW48773   3.969   8.741   3.046  0.5259 -0.2374 -0.7337
14739SOL    HW148774   4.045   8.723   2.991  1.3149 -0.5086  0.4222
14739SOL    HW248775   3.930   8.655   3.062  0.9292 -0.2937  0.0010
14740SOL     OW48776   0.006   6.972   6.108  0.8011 -0.5118  0.3053
14740SOL    HW148777  -0.050   7.002   6.036 -0.7920 -1.2815  1.1940
14740SOL    HW248778   0.028   6.882   6.085 -1.9535 -1.7319  1.9986
14741SOL     OW48779   2.332   2.685   4.053 -0.6120  0.2244 -0.6104
14741SOL    HW148780   2.263   2.698   3.989 -0.3626 -1.0685 -1.1599
14741SOL    HW248781   2.327   2.593   4.077  0.5936  0.2174 -0.2838
14742SOL     OW48782   9.708   3.651   1.099  0.5060  0.9077  0.0206
14742SOL    HW148783   9.734   3.742   1.110  0.6111  1.2193 -2.3823
14742SOL    HW248784   9.721   3.633   1.006  0.7428 -1.6503  0.4706
14743SOL     OW48785   7.442   3.797   7.160  0.1323 -0.3510 -0.0922
14743SOL    HW148786   7.487   3.821   7.241  0.2262 -0.2742 -0.1665
14743SOL    HW248787   7.405   3.880   7.129 -1.2280 -0.6383  0.6802
14744SOL     OW48788   0.726   6.456   6.202  0.0187  0.4159  0.0440
14744SOL    HW148789   0.634   6.481   6.204  0.1829  1.2189 -1.2638
14744SOL    HW248790   0.753   6.457   6.293 -1.5169 -0.8566  0.5573
14745SOL     OW48791  11.996   0.129   6.687 -0.6474 -0.7214 -0.0008
14745SOL    HW148792  11.991   0.033   6.686 -1.0868 -0.7108 -1.9769
14745SOL    HW248793  12.086   0.149   6.662 -0.0989 -0.5783  1.8936
14746SOL     OW48794  11.218  10.419   4.448 -0.2029 -0.4319 -0.2701
14746SOL    HW148795  11.145  10.360   4.433 -0.0284 -0.1580 -2.5242
14746SOL    HW248796  11.296  10.367   4.427  0.2023 -0.3782  1.0075
14747SOL     OW48797  11.358   1.457   8.373  0.1372  0.0756 -0.3611
14747SOL    HW148798  11.419   1.389   8.344 -2.1699 -1.6713 -1.4193
14747SOL    HW248799  11.280   1.443   8.320 -1.6608  1.4412  1.7770
14748SOL     OW48800   5.943   7.496   5.955 -0.6194 -0.0857 -0.1843
14748SOL    HW148801   5.899   7.543   6.026 -1.8516 -0.3833 -0.7412
14748SOL    HW248802   6.020   7.550   5.935  0.1183 -0.3078  1.7814
14749SOL     OW48803   6.842   9.999   5.497 -0.0985  0.2815  0.1566
14749SOL    HW148804   6.828   9.951   5.415 -1.2092  0.9836 -0.0772
14749SOL    HW248805   6.884   9.935   5.555 -1.8864 -1.1074 -0.0141
14750SOL     OW48806   2.734   2.151   4.727  0.7570  0.5122 -0.2403
14750SOL    HW148807   2.812   2.204   4.712  2.0620 -1.5695 -1.0609
14750SOL    HW248808   2.759   2.090   4.797 -0.2464  0.0221 -0.2864
14751SOL     OW48809   7.902   2.056   9.075  0.5062 -0.2282 -0.0144
14751SOL    HW148810   7.893   2.067   8.981  0.4560 -0.2099 -0.0074
14751SOL    HW248811   7.813   2.067   9.110  0.3935 -1.0114 -0.0443
14752SOL     OW48812  10.176  10.687   1.899  0.1614  0.3211 -0.5429
14752SOL    HW148813  10.217  10.603   1.917  0.2737  0.7762  1.5092
14752SOL    HW248814  10.106  10.695   1.963  1.5701  2.7296  0.8419
14753SOL     OW48815   2.522   7.669  11.470 -0.1717  0.0521 -0.3273
14753SOL    HW148816   2.438   7.636  11.502 -0.0458  0.9387  0.9859
14753SOL    HW248817   2.508   7.681  11.376 -1.1845 -0.7644 -0.3007
14754SOL     OW48818   1.616  11.262   9.068 -0.2845 -0.5658  0.0431
14754SOL    HW148819   1.607  11.286   9.160 -0.1738  1.9406 -0.5381
14754SOL    HW248820   1.551  11.315   9.022  0.4856 -0.8568 -1.4550
14755SOL     OW48821   7.225   8.607   9.808 -0.1714  0.3848 -0.0207
14755SOL    HW148822   7.305   8.621   9.757 -1.1676  0.5332 -1.6102
14755SOL    HW248823   7.255   8.563   9.888  1.5508  0.9114 -0.3299
14756SOL     OW48824   3.039  12.094  11.018  0.9681 -0.2753  0.3942
14756SOL    HW148825   3.128  12.121  10.994  0.3415  0.5304 -1.1349
14756SOL    HW248826   3.021  12.018  10.963  0.0847  0.6360 -0.6172
14757SOL     OW48827  10.308   0.632   3.045 -0.0927  0.3916 -0.7513
14757SOL    HW148828  10.403   0.624   3.047 -0.1017 -0.2907 -1.8787
14757SOL    HW248829  10.276   0.542   3.045 -0.7368  0.6178 -0.3778
14758SOL     OW48830   6.821  10.930  11.812  0.0742 -0.3597  0.1559
14758SOL    HW148831   6.811  10.887  11.896 -0.8604  1.1701  0.8721
14758SOL    HW248832   6.888  10.878  11.766 -1.1258 -2.6446  0.8444
14759SOL     OW48833  10.761   0.384  10.950 -0.0864 -0.1872  0.9869
14759SOL    HW148834  10.750   0.304  10.898  1.2367 -1.1144  2.0614
14759SOL    HW248835  10.803   0.446  10.889  1.2181 -1.1764  0.8308
14760SOL     OW48836   8.500   2.304   1.001 -0.1531 -0.7283 -0.3411
14760SOL    HW148837   8.413   2.334   1.028 -0.0460 -1.0200  0.3486
14760SOL    HW248838   8.483   2.234   0.938 -0.4648 -1.8742  0.9476
14761SOL     OW48839   0.458  11.331   9.049  0.2047 -0.3447 -0.3858
14761SOL    HW148840   0.522  11.277   9.095 -1.4622 -0.3492  2.1645
14761SOL    HW248841   0.379  11.276   9.046 -0.5610  0.7472 -0.6959
14762SOL     OW48842  11.856   5.275   4.871 -0.3482 -0.0815 -0.4179
14762SOL    HW148843  11.807   5.264   4.952  0.0463  0.0725 -0.1522
14762SOL    HW248844  11.856   5.370   4.856  2.6573  0.3525  1.3978
14763SOL     OW48845   7.885   3.458   5.056  0.3558  0.1933  0.4031
14763SOL    HW148846   7.831   3.536   5.042 -0.9478 -0.8340 -0.5678
14763SOL    HW248847   7.914   3.433   4.968 -0.5659 -1.2868  0.4839
14764SOL     OW48848   7.906  11.698   8.282 -0.5182 -0.5865  0.1757
14764SOL    HW148849   7.906  11.788   8.250 -0.4249  0.0803  1.9294
14764SOL    HW248850   7.895  11.645   8.203 -1.1000  0.9619 -0.8428
14765SOL     OW48851  11.730   0.425   6.182 -0.4633  0.1960 -0.6804
14765SOL    HW148852  11.809   0.394   6.137 -0.8248  0.2589 -1.3711
14765SOL    HW248853  11.672   0.349   6.185 -0.6080  0.3054 -0.6881
14766SOL     OW48854   5.339   5.814   6.198  0.1329  0.2296  0.2859
14766SOL    HW148855   5.403   5.873   6.160 -1.3872  1.5653 -0.3448
14766SOL    HW248856   5.257   5.835   6.154 -0.4840 -2.4976 -0.0781
14767SOL     OW48857   4.377   1.528  10.255  0.2252 -0.4802 -0.5161
14767SOL    HW148858   4.321   1.486  10.320  1.4997 -1.1086  0.2337
14767SOL    HW248859   4.392   1.616  10.290  1.2138 -0.9405  0.2774
14768SOL     OW48860   6.965   5.824   1.626 -0.6055  0.3663  0.0517
14768SOL    HW148861   6.962   5.919   1.615  0.5468  0.4109  0.0120
14768SOL    HW248862   7.051   5.799   1.591 -0.9542 -0.7025 -0.0490
14769SOL     OW48863   7.422   5.164   3.597  0.1980 -0.4632 -0.1200
14769SOL    HW148864   7.495   5.222   3.578  0.1743 -0.5907 -0.6043
14769SOL    HW248865   7.423   5.099   3.527  0.6130 -1.4302  0.7499
14770SOL     OW48866   8.581   4.776   2.355 -0.9058 -0.5254  0.3282
14770SOL    HW148867   8.587   4.871   2.345  1.8350 -0.7792 -1.5955
14770SOL    HW248868   8.545   4.763   2.442  1.8857  2.2978  2.0996
14771SOL     OW48869   7.214   7.017   3.215  0.8647  0.3210 -0.5225
14771SOL    HW148870   7.271   7.038   3.289 -0.1732  0.8278  0.1709
14771SOL    HW248871   7.228   7.089   3.153  0.5942  0.7342 -0.1153
14772SOL     OW48872   5.235   0.837   4.645 -0.2673  0.3360  0.2624
14772SOL    HW148873   5.175   0.892   4.595  0.0069  0.0161 -0.4296
14772SOL    HW248874   5.321   0.874   4.628 -0.2467  0.7856  1.2437
14773SOL     OW48875   6.746   7.365   3.488 -0.0678  0.1419 -0.1996
14773SOL    HW148876   6.651   7.362   3.482 -0.1766 -0.0024  1.3206
14773SOL    HW248877   6.764   7.382   3.580  1.3878  0.0457 -0.4406
14774SOL     OW48878   9.816   0.635   2.265 -0.2187  0.3180  0.1575
14774SOL    HW148879   9.843   0.624   2.174 -0.7624  0.4861 -0.0290
14774SOL    HW248880   9.876   0.700   2.301 -0.3676  0.6820 -0.2467
14775SOL     OW48881   3.456   6.477   2.042 -0.4301  0.0128  0.1016
14775SOL    HW148882   3.381   6.432   2.003 -0.1188  0.1251 -0.6533
14775SOL    HW248883   3.420   6.560   2.074 -0.7405 -0.1823  0.2606
14776SOL     OW48884   3.785  10.802   3.081  0.2639 -0.0127 -0.2412
14776SOL    HW148885   3.874  10.800   3.116  0.3740 -0.7560 -0.5409
14776SOL    HW248886   3.738  10.734   3.129 -0.3720  0.9234  0.4856
14777SOL     OW48887   6.983   5.995   3.580 -0.2822  0.1901  0.3890
14777SOL    HW148888   7.018   5.924   3.527 -0.3841  1.1301 -0.9797
14777SOL    HW248889   6.987   6.072   3.523 -2.8563  0.7117  0.7971
14778SOL     OW48890   1.462  10.639   5.630 -0.4212  0.2869  0.6960
14778SOL    HW148891   1.543  10.690   5.639 -0.3389  0.1569  0.7004
14778SOL    HW248892   1.398  10.702   5.595 -1.2000  1.2572  3.5631
14779SOL     OW48893   8.551   5.292   7.294 -0.6876 -0.4536  0.0207
14779SOL    HW148894   8.573   5.379   7.327 -1.6592 -0.4998  0.8198
14779SOL    HW248895   8.460   5.278   7.319 -0.7466 -1.4504 -0.6587
14780SOL     OW48896   3.079   2.836   7.255  0.0494  0.3618  0.3495
14780SOL    HW148897   3.027   2.840   7.335 -1.5963 -0.3330 -0.6329
14780SOL    HW248898   3.132   2.757   7.264 -1.4981 -0.7640  0.0061
14781SOL     OW48899   2.793   7.186   4.180 -0.3290  0.7181  0.4455
14781SOL    HW148900   2.837   7.167   4.263 -0.2601  0.3289  0.3209
14781SOL    HW248901   2.833   7.268   4.151 -0.9104  1.2765  1.1778
14782SOL     OW48902   8.469   1.516   9.801  0.0459  0.0184 -0.3504
14782SOL    HW148903   8.458   1.426   9.832  0.8210  0.1202  0.2491
14782SOL    HW248904   8.546   1.549   9.848 -0.5083  1.1612 -0.1928
14783SOL     OW48905   3.217   8.580   7.338 -0.3984 -0.9332  0.0013
14783SOL    HW148906   3.217   8.484   7.340 -0.4872 -0.9214  0.9114
14783SOL    HW248907   3.244   8.606   7.426  0.4461 -0.1165 -0.4881
14784SOL     OW48908   0.092   7.695   8.053  0.0506  0.2598  0.2003
14784SOL    HW148909   0.159   7.751   8.013 -0.7297  1.0450 -0.0469
14784SOL    HW248910   0.023   7.688   7.986  0.1864 -1.1203  0.1774
14785SOL     OW48911   1.392   7.920   4.714 -0.4327  0.2841 -0.2058
14785SOL    HW148912   1.477   7.875   4.718 -0.2263  0.7218  0.3138
14785SOL    HW248913   1.402   7.983   4.643  0.0490  1.1011  0.5827
14786SOL     OW48914   8.183   9.186   2.432  0.2693  0.4051 -0.0757
14786SOL    HW148915   8.164   9.252   2.498 -1.1328 -0.3331  0.2886
14786SOL    HW248916   8.142   9.219   2.352 -1.6371 -0.6231  0.4278
14787SOL     OW48917   7.453   4.480   7.136 -0.2975 -0.1769  0.0354
14787SOL    HW148918   7.499   4.561   7.112 -1.3756  0.0721 -1.2975
14787SOL    HW248919   7.423   4.496   7.225  2.5873 -0.5592  1.1976
14788SOL     OW48920   9.890   2.126  10.537 -0.4692  0.1904  0.1109
14788SOL    HW148921   9.883   2.079  10.454  0.8597  0.1763 -0.0156
14788SOL    HW248922   9.799   2.140  10.564 -0.9993  1.5080 -2.0714
14789SOL     OW48923   3.989   9.684   5.427  0.3535 -0.1138  0.0459
14789SOL    HW148924   3.989   9.704   5.333  1.5676  0.2031  0.0901
14789SOL    HW248925   3.993   9.588   5.431 -1.0119 -0.1940 -0.2030
14790SOL     OW48926   2.466   8.187   6.231  0.1227 -0.3764 -0.5674
14790SOL    HW148927   2.400   8.228   6.176  0.2865 -3.0011 -2.9412
14790SOL    HW248928   2.509   8.123   6.174  1.5354 -2.0485  2.1437
14791SOL     OW48929   4.676  11.221   9.401 -0.2814  0.1580  0.2350
14791SOL    HW148930   4.753  11.189   9.448  2.3263  1.9175 -2.4253
14791SOL    HW248931   4.603  11.172   9.437  2.2300 -2.4855  2.1584
14792SOL     OW48932   7.006  11.733   1.566 -0.4679 -0.2718 -0.2312
14792SOL    HW148933   7.017  11.775   1.481 -0.1672 -2.3595 -1.2656
14792SOL    HW248934   6.917  11.755   1.592 -0.1277  1.5001 -0.4095
14793SOL     OW48935   0.412   4.976   9.379  0.1840  0.0051  0.2206
14793SOL    HW148936   0.332   4.950   9.333  0.5729 -0.4851 -0.1754
14793SOL    HW248937   0.394   5.066   9.408 -0.2440  0.1424 -0.4613
14794SOL     OW48938   6.305   6.439   0.203 -0.8141  0.1926  0.2697
14794SOL    HW148939   6.311   6.374   0.274  1.4829  0.5552  0.4799
14794SOL    HW248940   6.212   6.439   0.179 -1.3905 -1.0729  2.2120
14795SOL     OW48941   6.817   4.701   2.630  0.1224 -0.3788  0.4287
14795SOL    HW148942   6.792   4.650   2.553 -0.3815 -0.0548  0.3781
14795SOL    HW248943   6.747   4.764   2.641  0.6411  0.1696  0.6194
14796SOL     OW48944   1.586   8.027   0.693 -0.2782 -0.3797  0.0147
14796SOL    HW148945   1.542   7.948   0.724  0.6780 -0.5060  1.0759
14796SOL    HW248946   1.537   8.051   0.614 -1.7264 -0.9825  0.6829
14797SOL     OW48947  10.365   6.638  10.329  0.5862  0.0113 -0.1924
14797SOL    HW148948  10.424   6.637  10.254  0.6947  0.2132 -0.1096
14797SOL    HW248949  10.422   6.641  10.405  0.4671  0.5049 -0.1198
14798SOL     OW48950   9.456   3.401   2.700 -0.0825  0.2140 -0.0007
14798SOL    HW148951   9.365   3.429   2.712 -0.7772 -1.0728 -1.7830
14798SOL    HW248952   9.476   3.424   2.609  1.0202 -0.4101  0.0726
14799SOL     OW48953   8.675   5.263  10.154 -0.2185 -0.2584  0.4822
14799SOL    HW148954   8.634   5.178  10.138  0.7952 -0.7268  0.2935
14799SOL    HW248955   8.712   5.289  10.070  0.5018 -0.1989  0.8073
14800SOL     OW48956   4.968  11.154   2.214  0.1393  0.2673  0.0200
14800SOL    HW148957   4.896  11.150   2.151  1.7595 -1.4406 -1.8672
14800SOL    HW248958   4.983  11.248   2.228 -0.6200  0.6923 -1.7368
14801SOL     OW48959   1.151   6.144  10.043  0.0349  0.0806 -0.0473
14801SOL    HW148960   1.075   6.097  10.009  0.4350 -1.3057  0.9004
14801SOL    HW248961   1.189   6.186   9.966 -0.0608 -1.5755 -1.0513
14802SOL     OW48962   4.271   5.593   4.596  0.3550 -0.0839 -0.3567
14802SOL    HW148963   4.228   5.670   4.560 -0.2527  0.3858  1.2884
14802SOL    HW248964   4.351   5.582   4.543 -0.0913  1.0211 -1.2826
14803SOL     OW48965   3.330   8.525   4.526  0.3158 -0.4574 -0.6861
14803SOL    HW148966   3.300   8.565   4.445 -0.6918  3.0679  1.2520
14803SOL    HW248967   3.250   8.495   4.569  0.5026  0.3681  0.2715
14804SOL     OW48968   2.263   6.777  10.425  0.3711 -0.5154  0.0686
14804SOL    HW148969   2.346   6.795  10.381  1.2190 -1.0829  1.3701
14804SOL    HW248970   2.269   6.684  10.449  0.5256  0.0397  2.4609
14805SOL     OW48971  10.043   9.793   5.759 -0.2572  0.2374 -0.6220
14805SOL    HW148972  10.007   9.731   5.696 -1.8920 -0.2053  0.6753
14805SOL    HW248973  10.085   9.738   5.826 -3.4081  0.2300  1.5931
14806SOL     OW48974   7.934   4.823   5.784  0.0348 -0.6302 -0.0233
14806SOL    HW148975   7.875   4.886   5.741  1.5774 -0.1414 -1.5727
14806SOL    HW248976   7.972   4.872   5.856 -1.9951 -1.2110  1.5435
14807SOL     OW48977   0.248   8.874   5.190  0.3678 -0.0350  0.3322
14807SOL    HW148978   0.290   8.847   5.109  0.0184 -0.8585  0.4141
14807SOL    HW248979   0.318   8.913   5.242  0.7113 -0.0331 -0.1279
14808SOL     OW48980  10.872  10.523  11.458 -0.2027 -0.0248 -0.1010
14808SOL    HW148981  10.855  10.456  11.524  0.6287 -1.0563 -0.9129
14808SOL    HW248982  10.895  10.601  11.510  0.2745 -0.7623  0.8428
14809SOL     OW48983   3.799   9.868  10.081 -0.2374  0.4213 -0.0753
14809SOL    HW148984   3.864   9.811  10.122  0.2999  0.8906 -0.2637
14809SOL    HW248985   3.832   9.957  10.097 -0.8098  0.6620 -0.2100
14810SOL     OW48986  11.037   7.887   8.631 -0.0247  0.0085 -0.3316
14810SOL    HW148987  11.029   7.824   8.703  0.4197 -0.0887 -0.3648
14810SOL    HW248988  11.003   7.969   8.667 -1.5620 -0.4772 -0.6028
14811SOL     OW48989  10.000  11.227   9.068  0.1619 -0.0120 -0.0620
14811SOL    HW148990   9.982  11.137   9.040 -1.5613  0.4909 -0.6920
14811SOL    HW248991  10.095  11.230   9.081  0.1619 -2.1588  0.8428
14812SOL     OW48992   0.087   2.558   8.049  0.4412  0.0000 -0.1628
14812SOL    HW148993   0.010   2.503   8.058  0.1001  0.8087  4.0510
14812SOL    HW248994   0.057   2.646   8.075  2.7591  0.2426  2.0586
14813SOL     OW48995   0.497   5.489   2.566  0.1790 -0.1518 -0.0935
14813SOL    HW148996   0.509   5.479   2.472  0.5842 -0.9974  0.0358
14813SOL    HW248997   0.561   5.428   2.605 -0.7129 -0.6037  0.7073
14814SOL     OW48998   1.790   1.110   2.772  0.4241 -0.2779  0.7451
14814SOL    HW148999   1.696   1.098   2.756  0.2441  0.5053  1.1735
14814SOL    HW249000   1.795   1.132   2.865  1.0126 -0.0891  0.6681
14815SOL     OW49001   6.149   6.672   0.044 -0.2119  0.9352 -0.1790
14815SOL    HW149002   6.194   6.718   0.115 -1.2256 -0.2000  1.2741
14815SOL    HW249003   6.166   6.580   0.061 -0.9496  0.6156 -1.0992
14816SOL     OW49004   3.446   4.520   6.781  0.4480 -0.3086  0.5706
14816SOL    HW149005   3.441   4.495   6.873 -1.2550  0.1026  0.6167
14816SOL    HW249006   3.539   4.514   6.760  0.7132 -1.6828  1.9468
14817SOL     OW49007   2.918   3.493   9.569  0.0451 -0.5019  0.2096
14817SOL    HW149008   2.967   3.421   9.608  0.5174 -0.2399  0.1106
14817SOL    HW249009   2.865   3.527   9.640  0.0156 -0.7821  0.3215
14818SOL     OW49010   4.235   0.648   5.027 -0.6385  0.4970  0.1836
14818SOL    HW149011   4.325   0.680   5.018 -0.2819  0.9581  3.8925
14818SOL    HW249012   4.220   0.597   4.947  2.6289  0.9474 -0.8844
14819SOL     OW49013  11.138   1.654   9.049 -0.0864  0.4358 -0.0640
14819SOL    HW149014  11.060   1.611   9.013  0.9818 -2.4655  0.7619
14819SOL    HW249015  11.134   1.635   9.143  1.2285  0.8672  0.0924
14820SOL     OW49016   5.484   1.015   5.677 -0.1381  0.3661 -0.5485
14820SOL    HW149017   5.512   0.965   5.754 -0.8948 -0.3100 -0.6942
14820SOL    HW249018   5.389   1.003   5.673 -0.0524 -0.1057 -1.9107
14821SOL     OW49019   7.838   5.085   8.283 -0.0417  0.0910  0.6766
14821SOL    HW149020   7.802   5.172   8.297 -0.6005 -0.0871  0.3915
14821SOL    HW249021   7.761   5.030   8.268  0.4090  0.0984 -2.1722
14822SOL     OW49022   4.621   6.778   7.083  1.0652  0.0856 -0.0819
14822SOL    HW149023   4.651   6.702   7.033  0.4600  0.5368 -1.1827
14822SOL    HW249024   4.687   6.845   7.066  0.9302  0.1967 -0.1754
14823SOL     OW49025   1.108   6.657   7.305  0.3593  0.1871  0.3193
14823SOL    HW149026   1.168   6.638   7.233 -0.6105 -0.1228 -0.4189
14823SOL    HW249027   1.098   6.572   7.350  2.2083  0.6933  1.8335
14824SOL     OW49028   2.729  12.020   7.798  0.3848  0.0783  0.0210
14824SOL    HW149029   2.740  12.112   7.821 -2.4872  0.4086  0.3920
14824SOL    HW249030   2.755  12.015   7.706  0.2243  1.3449 -0.1091
14825SOL     OW49031  11.492   5.334  11.173 -0.6669 -0.1793 -0.0522
14825SOL    HW149032  11.547   5.320  11.096  0.2011 -1.6187  0.7791
14825SOL    HW249033  11.452   5.420  11.159  0.7019  0.2928 -1.3381
14826SOL     OW49034   3.364   1.690   5.333 -0.3460  0.3524 -0.5027
14826SOL    HW149035   3.377   1.596   5.321  0.1686  0.2217  0.8292
14826SOL    HW249036   3.280   1.709   5.292 -0.9428 -0.8952  0.1029
14827SOL     OW49037   3.232  11.038   1.910  0.0825 -0.2670  0.4846
14827SOL    HW149038   3.309  10.996   1.949 -0.1860 -0.8491  0.4059
14827SOL    HW249039   3.163  11.024   1.974 -0.2539 -0.8309  0.0037
14828SOL     OW49040   0.738   3.883   1.140 -0.3442 -0.2836  0.1214
14828SOL    HW149041   0.785   3.899   1.222 -1.4367  2.1144  0.3376
14828SOL    HW249042   0.653   3.848   1.168 -0.1181 -1.0381 -0.0999
14829SOL     OW49043   7.738   4.258   1.280 -0.0511  0.1830  0.2456
14829SOL    HW149044   7.688   4.326   1.234 -0.8677 -0.1176  0.6772
14829SOL    HW249045   7.828   4.272   1.251 -0.6667 -0.7726 -2.4643
14830SOL     OW49046   8.265   7.470   6.749 -0.6569  0.0277  0.1663
14830SOL    HW149047   8.271   7.377   6.772 -0.2417 -0.0853 -0.3819
14830SOL    HW249048   8.185   7.500   6.793  1.0637  0.3146  3.3170
14831SOL     OW49049   2.205   0.455   6.021  0.1479  0.2161 -0.8145
14831SOL    HW149050   2.182   0.493   6.105  0.1712  0.7764 -1.0605
14831SOL    HW249051   2.217   0.530   5.962  1.1797 -0.1240 -1.0536
14832SOL     OW49052  10.127   3.695   2.216 -0.3358 -0.1809 -0.0670
14832SOL    HW149053  10.129   3.601   2.231  1.2298 -0.4205 -1.5448
14832SOL    HW249054  10.107   3.732   2.302  0.9835 -1.7634  0.9852
14833SOL     OW49055   4.545  11.813   2.884  0.2805  0.3098  0.1480
14833SOL    HW149056   4.590  11.897   2.894  1.3515 -0.3784  1.5650
14833SOL    HW249057   4.459  11.835   2.849  1.0260  1.8615 -0.7915
14834SOL     OW49058  11.467   7.510   8.397  0.9367  0.5724  0.0374
14834SOL    HW149059  11.471   7.477   8.487  0.9883  0.2242 -0.0945
14834SOL    HW249060  11.546   7.475   8.355  0.7063  0.4043 -0.2581
14835SOL     OW49061   5.579   0.154   8.281  0.2839 -0.3935  0.1189
14835SOL    HW149062   5.654   0.099   8.258 -0.9232 -2.0440 -0.1056
14835SOL    HW249063   5.517   0.093   8.323 -0.0944  1.3196  2.2008
14836SOL     OW49064   9.966   1.594   2.032  0.1585 -0.1712  0.2170
14836SOL    HW149065  10.047   1.543   2.031  0.3377  0.0867 -1.0632
14836SOL    HW249066   9.897   1.530   2.014  0.1933 -0.2396  0.3296
14837SOL     OW49067   6.141   5.795   5.636  0.2388  0.3808 -0.4297
14837SOL    HW149068   6.118   5.790   5.729  2.3658  1.0430  0.1959
14837SOL    HW249069   6.221   5.743   5.629 -0.2172 -0.1617 -2.0543
14838SOL     OW49070   0.597   8.913   3.255  0.3610 -0.0338 -0.1252
14838SOL    HW149071   0.636   8.839   3.208 -2.6771 -0.5115 -2.1245
14838SOL    HW249072   0.619   8.989   3.202 -0.2249 -0.1206 -0.4991
14839SOL     OW49073   8.987   3.912  10.318 -0.1693  0.5202 -0.4991
14839SOL    HW149074   9.042   3.894  10.242  0.6136 -2.7712  0.6703
14839SOL    HW249075   8.907   3.863  10.302  0.7306 -1.8022  1.4661
14840SOL     OW49076   2.309  10.646   1.954 -0.4243 -0.0054  0.0916
14840SOL    HW149077   2.378  10.653   1.888 -0.6333  0.5270 -0.0781
14840SOL    HW249078   2.337  10.573   2.011  0.8694  0.9442  0.7278
14841SOL     OW49079   5.777   2.921   9.767  0.5060 -0.6953 -0.3274
14841SOL    HW149080   5.802   2.848   9.710  1.8167 -0.4039 -0.1696
14841SOL    HW249081   5.843   2.988   9.750 -0.2380  0.1568  0.0927
14842SOL     OW49082   5.248  10.979   7.819 -0.6507 -0.3957  0.2050
14842SOL    HW149083   5.230  11.008   7.730 -1.0748 -1.4169 -0.0656
14842SOL    HW249084   5.253  10.883   7.812 -0.8239 -0.4993  1.2976
14843SOL     OW49085   0.201   1.381   5.845 -0.1763 -0.2847  0.3359
14843SOL    HW149086   0.212   1.418   5.932  0.8221  0.4722 -0.0890
14843SOL    HW249087   0.160   1.451   5.794  0.0582 -0.4061 -0.0198
14844SOL     OW49088   2.973   5.630   2.834 -0.0454  0.3878  0.0984
14844SOL    HW149089   3.006   5.664   2.917 -0.2385 -0.9005  0.7388
14844SOL    HW249090   3.046   5.580   2.797  0.4750  2.0041 -1.1778
14845SOL     OW49091   8.169   8.929   8.686  0.1278  0.2612  0.3046
14845SOL    HW149092   8.225   8.965   8.616  1.1582 -0.1426  0.8942
14845SOL    HW249093   8.091   8.898   8.640 -1.0186  3.4962 -0.2082
14846SOL     OW49094  10.962   6.887   1.119  0.0431 -0.6301 -0.6310
14846SOL    HW149095  10.963   6.807   1.172  0.7527 -0.4461 -0.3533
14846SOL    HW249096  10.950   6.857   1.029  0.1607 -1.0390 -0.5118
14847SOL     OW49097   7.115  10.197   7.129 -0.0408 -0.4777 -0.1324
14847SOL    HW149098   7.026  10.161   7.128 -0.8218  1.2986 -1.0126
14847SOL    HW249099   7.119  10.250   7.049  0.6415  2.1143  1.5186
14848SOL     OW49100   3.996   2.277   5.068  0.4457 -0.4577 -0.0898
14848SOL    HW149101   3.970   2.204   5.125 -0.1663 -0.0098  0.2127
14848SOL    HW249102   4.083   2.303   5.100  0.4548 -0.7395  0.1130
14849SOL     OW49103   4.010   4.238   7.130  0.1452 -0.1623  0.6703
14849SOL    HW149104   4.015   4.332   7.144 -0.9298 -0.0477  0.3292
14849SOL    HW249105   4.004   4.228   7.035 -0.5670 -0.5338  0.7496
14850SOL     OW49106   3.098   3.608   1.756  0.0949  0.0724  0.6671
14850SOL    HW149107   3.062   3.623   1.669 -0.3846  0.4551  0.9310
14850SOL    HW249108   3.043   3.539   1.794 -0.8027  1.1120  1.3186
14851SOL     OW49109  11.223   2.313   4.354 -0.4515 -0.5386 -0.5124
14851SOL    HW149110  11.269   2.355   4.427  1.6323 -0.1804 -1.9528
14851SOL    HW249111  11.143   2.278   4.393  1.5482 -2.2602  2.4119
14852SOL     OW49112   3.163   9.586   9.567 -0.3120  0.4632 -1.2342
14852SOL    HW149113   3.222   9.536   9.511  2.7304  2.9353 -0.5315
14852SOL    HW249114   3.210   9.668   9.584 -1.6961  0.5641  3.5451
14853SOL     OW49115   7.015   5.046   9.242  0.1205 -0.0321  0.2392
14853SOL    HW149116   6.967   5.084   9.315  1.0110 -1.1389  1.4546
14853SOL    HW249117   7.092   5.005   9.282  0.8340 -0.3486 -1.3654
14854SOL     OW49118   0.953   4.856   9.708 -0.4181 -1.0357 -0.1769
14854SOL    HW149119   0.900   4.936   9.710  1.1052  0.0064  0.6845
14854SOL    HW249120   0.890   4.785   9.715 -1.8578  0.0508 -1.4359
14855SOL     OW49121   2.937  11.643  11.162  0.7281 -0.1743  0.6444
14855SOL    HW149122   2.875  11.663  11.092  1.2478  0.2135  0.2847
14855SOL    HW249123   2.934  11.547  11.171  0.9030 -0.2605 -0.1433
14856SOL     OW49124  10.469   9.244   7.407  0.1201 -0.1660 -0.2129
14856SOL    HW149125  10.505   9.331   7.387  0.7955 -0.1952  0.8310
14856SOL    HW249126  10.544   9.185   7.402 -0.0471 -0.4524  0.6067
14857SOL     OW49127   4.067   7.760   6.012 -0.2297 -0.1248  0.0028
14857SOL    HW149128   4.020   7.726   6.088 -0.4384 -0.0760 -0.1026
14857SOL    HW249129   4.154   7.720   6.017 -0.0828  0.2455  0.5295
14858SOL     OW49130   1.866   5.694   7.652  0.7761  0.0600 -0.4525
14858SOL    HW149131   1.778   5.731   7.653  0.2587 -1.1508 -0.1818
14858SOL    HW249132   1.855   5.605   7.618  1.6676 -0.6442  0.9879
14859SOL     OW49133   8.437   5.753   6.874 -0.1502  0.2790  0.3692
14859SOL    HW149134   8.380   5.823   6.845  1.3106  0.9608 -1.0381
14859SOL    HW249135   8.442   5.693   6.799  1.3359  0.5065  0.2462
14860SOL     OW49136   2.942   7.474   6.423  0.4166 -0.2284  0.2233
14860SOL    HW149137   2.953   7.404   6.359 -0.5400 -0.4344  0.2599
14860SOL    HW249138   2.857   7.513   6.402 -0.1937 -0.6731  1.6907
14861SOL     OW49139   9.812   4.016   1.493 -0.1573  0.8459 -0.0277
14861SOL    HW149140   9.720   4.036   1.507 -0.6121 -1.6390  1.2580
14861SOL    HW249141   9.828   4.038   1.401 -2.9042 -1.3590 -1.1998
14862SOL     OW49142   1.754   5.681   3.045  0.3316 -0.0212  0.1190
14862SOL    HW149143   1.801   5.623   2.985  0.2349  0.5953 -0.5709
14862SOL    HW249144   1.687   5.626   3.084  1.0021 -0.6749  0.3844
14863SOL     OW49145  11.034  10.680   1.197 -0.3398  0.1057  0.1358
14863SOL    HW149146  10.955  10.686   1.143  0.8979 -1.8775 -2.0682
14863SOL    HW249147  11.061  10.771   1.210 -0.5281  0.7111 -2.9437
14864SOL     OW49148  11.888   5.293  11.338  0.0224  0.3547  0.4710
14864SOL    HW149149  11.915   5.214  11.384  0.3035 -0.6783 -1.3525
14864SOL    HW249150  11.944   5.296  11.261 -2.3693  0.3065 -1.3938
14865SOL     OW49151   4.342   4.124  10.724  0.1830  0.3354 -0.0123
14865SOL    HW149152   4.405   4.127  10.797  0.1527 -1.5657  0.1451
14865SOL    HW249153   4.305   4.036  10.728 -0.2744  0.3915 -1.9568
14866SOL     OW49154   0.393  10.596   4.360 -0.4244  0.2988  0.3020
14866SOL    HW149155   0.443  10.518   4.336 -2.2011 -0.1063 -2.5566
14866SOL    HW249156   0.351  10.573   4.443  1.2741 -0.6582  0.9469
14867SOL     OW49157   3.010   7.825   7.978  0.2753 -0.6441  0.7974
14867SOL    HW149158   2.987   7.918   7.990 -0.5777 -0.6933 -0.2130
14867SOL    HW249159   2.945   7.793   7.915 -0.4254 -2.3463  2.2938
14868SOL     OW49160  10.222   5.726   5.977  0.1615  0.1029  0.4404
14868SOL    HW149161  10.178   5.810   5.991  0.0431  0.0427  0.4341
14868SOL    HW249162  10.315   5.745   5.987  0.3174  0.6650 -1.5473
14869SOL     OW49163  10.905  11.872   2.377  0.0733 -1.0630 -0.0480
14869SOL    HW149164  10.879  11.927   2.302  1.0719  0.0045  0.3525
14869SOL    HW249165  10.837  11.806   2.383 -0.6101 -0.5041 -1.2225
14870SOL     OW49166   1.930   2.056   6.716 -0.2777 -0.4038 -0.5735
14870SOL    HW149167   1.973   1.974   6.738 -1.9380 -0.5260  2.9917
14870SOL    HW249168   1.978   2.123   6.765 -1.0570  0.1731 -0.5642
14871SOL     OW49169   5.512   6.747   2.586  0.2707 -0.3369  0.4617
14871SOL    HW149170   5.545   6.837   2.584 -0.8608  0.0871 -0.8249
14871SOL    HW249171   5.484   6.733   2.676  0.0468  0.7672  0.5736
14872SOL     OW49172   9.799  10.576  10.912  0.0667 -0.5136 -0.0200
14872SOL    HW149173   9.746  10.648  10.944  0.2272 -0.9068  1.1675
14872SOL    HW249174   9.766  10.560  10.823 -1.4141 -0.3700  0.4726
14873SOL     OW49175  11.605   1.986   2.378  0.4512 -0.0877 -0.0831
14873SOL    HW149176  11.675   2.032   2.332  0.2629  0.3942  0.0992
14873SOL    HW249177  11.643   1.962   2.462  0.8117 -1.0112 -0.4938
14874SOL     OW49178  11.780   3.570   8.790 -0.7648  0.0001  0.1927
14874SOL    HW149179  11.863   3.523   8.778 -0.3767  0.7796 -0.2793
14874SOL    HW249180  11.762   3.609   8.705 -0.5393  1.5404  0.8235
14875SOL     OW49181   7.376  10.736   8.630  0.2161  0.4681 -0.6333
14875SOL    HW149182   7.454  10.683   8.645  0.0894  0.5573  0.3559
14875SOL    HW249183   7.398  10.790   8.554  1.2759  0.7954 -0.0987
14876SOL     OW49184   9.454   6.967   7.487  0.3065  0.0497  0.0504
14876SOL    HW149185   9.391   6.895   7.494  1.4671 -0.9404  0.7153
14876SOL    HW249186   9.464   6.998   7.577  2.3008 -1.1973  0.3129
14877SOL     OW49187   6.464   3.613   1.024  0.3562 -0.0427 -0.0535
14877SOL    HW149188   6.493   3.703   1.041  1.1897 -0.3208  0.0633
14877SOL    HW249189   6.450   3.576   1.111  0.7165 -0.2396 -0.0759
14878SOL     OW49190   0.992   2.038   7.527  0.9392 -0.2723  0.2092
14878SOL    HW149191   0.999   1.996   7.613  0.8607 -2.2456 -0.6937
14878SOL    HW249192   0.907   2.082   7.529  1.4026  0.6574  1.4953
14879SOL     OW49193   2.023   1.005  11.687 -0.2332 -0.1862 -0.2066
14879SOL    HW149194   1.935   0.995  11.651 -1.1680  1.8178  1.3459
14879SOL    HW249195   2.038   0.923  11.735 -1.4102 -0.3899 -0.1565
14880SOL     OW49196   8.400   7.388  11.379 -0.4244  0.7556 -0.3195
14880SOL    HW149197   8.496   7.397  11.381 -0.4044  0.7078 -0.7544
14880SOL    HW249198   8.386   7.294  11.367 -0.5140  0.8126 -0.6715
14881SOL     OW49199   8.323   3.898  10.627  0.0896  0.3488  0.0668
14881SOL    HW149200   8.289   3.919  10.713 -0.5697  0.6125 -0.2571
14881SOL    HW249201   8.257   3.929  10.566 -1.7001 -3.8103 -0.4318
14882SOL     OW49202   3.516   1.462   4.269  1.0426 -0.0540  0.0043
14882SOL    HW149203   3.547   1.529   4.207  0.5808  0.8026  0.6676
14882SOL    HW249204   3.584   1.458   4.336  1.0545 -0.2205 -0.0191
14883SOL     OW49205   0.632   9.888   8.128  0.4182 -0.0454 -0.0722
14883SOL    HW149206   0.703   9.831   8.096  0.3710  0.5638 -1.3441
14883SOL    HW249207   0.643   9.969   8.078  0.3514  0.9964  1.5468
14884SOL     OW49208   3.408   5.913   5.695  0.0996 -0.5063 -0.4593
14884SOL    HW149209   3.485   5.920   5.751 -0.2802 -0.0992  0.0263
14884SOL    HW249210   3.435   5.856   5.624  0.5957 -1.0446  0.1445
14885SOL     OW49211  12.004   9.287   6.160 -0.0143 -0.3286 -0.4775
14885SOL    HW149212  11.953   9.366   6.174  1.2250  0.5256 -0.6229
14885SOL    HW249213  11.952   9.217   6.201 -1.1217  0.5436 -0.3453
14886SOL     OW49214   5.561   8.620   9.413  0.5147 -0.4109 -0.5149
14886SOL    HW149215   5.616   8.667   9.476  0.3250 -1.3683  0.4038
14886SOL    HW249216   5.501   8.686   9.380  0.8157  0.1796  0.0863
14887SOL     OW49217  10.398   3.622  10.336  0.2652  0.4552  0.0694
14887SOL    HW149218  10.431   3.591  10.251  0.4402 -1.1420  0.6792
14887SOL    HW249219  10.449   3.700  10.354  2.1198 -0.6450 -0.1013
14888SOL     OW49220   4.465   2.375   9.897  0.6183 -0.0127  0.0777
14888SOL    HW149221   4.545   2.426   9.907  0.1904  1.4105 -2.6264
14888SOL    HW249222   4.442   2.347   9.986  3.5450  0.3398  1.0424
14889SOL     OW49223   1.133   3.558   7.704  0.3912  0.2810 -0.7111
14889SOL    HW149224   1.214   3.556   7.655  0.5025 -1.1479 -0.5055
14889SOL    HW249225   1.081   3.485   7.669 -0.1740  0.2302  0.1912
14890SOL     OW49226  10.501   0.668   1.139  0.3357  0.1802 -0.2400
14890SOL    HW149227  10.502   0.669   1.235 -1.8038  0.0098 -0.1793
14890SOL    HW249228  10.559   0.595   1.115 -0.3965 -0.8485  0.9864
14891SOL     OW49229   0.872   5.210   4.622  0.3214  0.6262 -0.0498
14891SOL    HW149230   0.925   5.265   4.680  1.1360 -0.4489  0.2701
14891SOL    HW249231   0.919   5.210   4.539  0.6960 -0.0941  0.1482
14892SOL     OW49232  11.436  12.064   3.860  0.7103  0.3969 -0.5587
14892SOL    HW149233  11.460  12.155   3.875  0.7070  0.2790  0.2153
14892SOL    HW249234  11.406  12.061   3.769  2.8561  0.6991 -1.3426
14893SOL     OW49235   4.487   7.363  10.777 -0.1075 -0.0540 -0.0707
14893SOL    HW149236   4.482   7.458  10.789 -0.1849 -0.3092  2.5013
14893SOL    HW249237   4.512   7.329  10.863 -2.1542 -2.5383 -0.3160
14894SOL     OW49238   2.379   9.391   0.469 -0.2777  0.3734  0.5274
14894SOL    HW149239   2.343   9.380   0.557 -1.3489  0.4128  0.1169
14894SOL    HW249240   2.407   9.303   0.443 -0.9118  0.1662  0.5221
14895SOL     OW49241   5.899  11.246   1.392 -0.1886 -0.2894 -0.3286
14895SOL    HW149242   5.872  11.209   1.476  0.1457  0.0124 -0.0799
14895SOL    HW249243   5.833  11.312   1.372  1.1871  1.6919  1.1338
14896SOL     OW49244  11.981   0.883  10.983 -0.1039 -0.4405  0.0351
14896SOL    HW149245  11.898   0.868  11.028  1.1543 -1.4922  2.1998
14896SOL    HW249246  12.047   0.876  11.052  1.7158  1.8425 -1.3152
14897SOL     OW49247  10.760   3.029   1.496  0.0011 -0.2483  0.2738
14897SOL    HW149248  10.811   3.071   1.565  0.6619 -0.5991  0.0026
14897SOL    HW249249  10.789   3.072   1.416  0.4697 -1.0068  0.0251
14898SOL     OW49250   0.527   4.332   3.661 -0.0179  0.4952  0.2990
14898SOL    HW149251   0.537   4.237   3.665 -1.2933 -0.0760 -4.2242
14898SOL    HW249252   0.616   4.363   3.642 -0.2411 -0.5064 -3.1057
14899SOL     OW49253  10.027   1.609   6.934 -0.3454  0.0660  0.1537
14899SOL    HW149254  10.029   1.598   7.029  1.5783  2.4202  0.5021
14899SOL    HW249255  10.102   1.666   6.916 -2.0821  1.7147 -2.4848
14900SOL     OW49256   0.366   0.424   6.085 -0.3204 -0.6134 -0.2537
14900SOL    HW149257   0.435   0.404   6.148  0.2162 -1.2077 -1.0070
14900SOL    HW249258   0.379   0.516   6.063 -0.2489 -0.5175  0.1843
14901SOL     OW49259   3.929  11.085  10.539  0.1464 -0.2925  0.1588
14901SOL    HW149260   4.000  11.136  10.580  0.2486  0.5121 -0.9662
14901SOL    HW249261   3.850  11.117  10.582  0.2842  0.2782  0.0057
14902SOL     OW49262   1.556  10.354   6.531  0.1286 -0.1118 -0.9471
14902SOL    HW149263   1.583  10.331   6.620 -2.0709  0.7129 -0.0022
14902SOL    HW249264   1.513  10.275   6.497  0.7706 -0.3531 -1.2185
14903SOL     OW49265   2.870   3.898   6.135 -0.4802 -0.3687  0.2536
14903SOL    HW149266   2.880   3.906   6.040  0.3950  2.3582  0.4815
14903SOL    HW249267   2.792   3.845   6.147 -0.8041 -0.4773 -1.9940
14904SOL     OW49268   6.196   3.773   7.846  0.2408  0.0780  0.7974
14904SOL    HW149269   6.134   3.816   7.904  0.4218  0.2254  0.8840
14904SOL    HW249270   6.143   3.740   7.773  0.3860  2.5716 -0.5293
14905SOL     OW49271   9.263   2.319   4.548  0.0410  0.3000 -0.3133
14905SOL    HW149272   9.243   2.240   4.498 -0.3164  1.6162 -2.3574
14905SOL    HW249273   9.198   2.320   4.618 -0.9959 -0.3908 -1.2223
14906SOL     OW49274   3.080   7.723   6.406 -0.1178 -0.3776 -0.3601
14906SOL    HW149275   3.075   7.640   6.359  1.7414 -0.4927 -0.4177
14906SOL    HW249276   3.055   7.700   6.496 -1.6037 -0.5724 -0.7972
14907SOL     OW49277   7.305   6.769   4.287  0.1794 -0.5317 -0.2552
14907SOL    HW149278   7.257   6.690   4.310 -0.0820  0.4020  3.0492
14907SOL    HW249279   7.239   6.838   4.289  0.9824  0.2551  0.8018
14908SOL     OW49280   4.930   6.544   4.317  0.0756  0.9020  0.1806
14908SOL    HW149281   4.837   6.540   4.296 -0.0601  3.4557  0.0404
14908SOL    HW249282   4.934   6.581   4.405  0.9780 -0.0111  0.5575
14909SOL     OW49283  11.916   7.617   9.843 -0.1094  0.8382 -0.0482
14909SOL    HW149284  11.963   7.651   9.766 -1.2043  0.2219 -1.0180
14909SOL    HW249285  11.976   7.630   9.915 -0.2068  4.3886 -0.4227
14910SOL     OW49286  11.133   9.981  11.094  0.1563 -0.2371 -0.1507
14910SOL    HW149287  11.212   9.963  11.145  1.5125  0.2125 -1.9921
14910SOL    HW249288  11.125  10.076  11.095  0.0982 -0.2335 -0.6170
14911SOL     OW49289  10.852   8.097   8.042 -0.0555  0.1784  0.6233
14911SOL    HW149290  10.886   8.180   8.075  0.3249  0.5354 -0.6042
14911SOL    HW249291  10.899   8.030   8.092  2.2149  0.6638 -0.7431
14912SOL     OW49292   9.385   4.063  11.039 -0.0064 -0.2202  0.3306
14912SOL    HW149293   9.453   4.124  11.012 -0.5113 -0.3848 -1.4894
14912SOL    HW249294   9.327   4.114  11.094  0.0022  0.7458 -0.5299
14913SOL     OW49295   8.062  10.607  10.413  0.0751 -0.1242 -0.4283
14913SOL    HW149296   7.999  10.636  10.478  0.4727  0.9342 -0.4947
14913SOL    HW249297   8.038  10.655  10.333  1.5615  1.1133 -0.1888
14914SOL     OW49298   6.560   2.894  10.196 -0.2611  0.5271 -0.1298
14914SOL    HW149299   6.547   2.800  10.211 -1.0047  0.5738 -0.4454
14914SOL    HW249300   6.646   2.912  10.234 -1.0200  0.1587  1.8889
14915SOL     OW49301   1.617  11.368   4.575 -0.2885 -0.2614  0.0212
14915SOL    HW149302   1.711  11.383   4.571 -0.4291  0.5975 -0.2691
14915SOL    HW249303   1.591  11.399   4.662 -0.1997 -1.1907  0.3931
14916SOL     OW49304  10.683   7.774   3.492  0.1677 -0.4300 -0.1979
14916SOL    HW149305  10.712   7.822   3.570 -1.5149  0.3694 -0.0141
14916SOL    HW249306  10.639   7.697   3.527  0.0166 -0.4277 -0.3825
14917SOL     OW49307   8.542   4.568   6.981 -0.2692  0.3403  0.3578
14917SOL    HW149308   8.590   4.494   7.017 -0.1525  1.2898  2.3446
14917SOL    HW249309   8.607   4.621   6.936 -0.3826 -0.8038 -1.2150
14918SOL     OW49310   8.255   2.453   5.786  0.0357 -0.0393 -0.2044
14918SOL    HW149311   8.263   2.543   5.818  0.1993  0.2839 -1.1338
14918SOL    HW249312   8.176   2.455   5.731 -0.3192 -0.6210  0.2731
14919SOL     OW49313   6.173  10.824   1.484  0.7274  0.1346  0.0377
14919SOL    HW149314   6.155  10.885   1.413 -0.5074  1.7807  1.6604
14919SOL    HW249315   6.268  10.825   1.494  0.8325  0.6065 -0.9621
14920SOL     OW49316   0.883  10.481   1.953 -0.2502 -0.4600  0.3496
14920SOL    HW149317   0.936  10.426   1.895  0.9236  0.6203  0.3557
14920SOL    HW249318   0.939  10.497   2.029 -1.3522 -0.9413  1.2961
14921SOL     OW49319   0.417   6.663  10.094 -0.6887  0.3722  0.4163
14921SOL    HW149320   0.413   6.652   9.999 -0.5218  1.8487  0.2055
14921SOL    HW249321   0.506   6.695  10.110 -0.7446  0.2143  1.0559
14922SOL     OW49322   6.743   9.104   9.368  0.8171 -0.1471 -0.0910
14922SOL    HW149323   6.656   9.090   9.329  0.5656  0.6154  0.1821
14922SOL    HW249324   6.781   9.016   9.373  0.0640 -0.4913 -0.2181
14923SOL     OW49325  11.774   1.726  12.008  0.3837 -0.7933  0.6752
14923SOL    HW149326  11.814   1.807  12.042 -0.0218  0.7446 -2.1751
14923SOL    HW249327  11.845   1.685  11.958 -0.3474 -0.2761 -0.8456
14924SOL     OW49328   0.886  10.668   4.342 -0.3679 -0.0143 -0.6119
14924SOL    HW149329   0.847  10.712   4.418 -0.0368  0.4011 -0.6765
14924SOL    HW249330   0.966  10.718   4.324 -1.7183  1.5581 -2.8099
14925SOL     OW49331  10.915   5.804   3.787 -0.0858  0.0381 -0.1068
14925SOL    HW149332  10.825   5.812   3.818 -0.3262  1.1559 -1.0402
14925SOL    HW249333  10.952   5.734   3.841 -1.1673  0.3269  1.0719
14926SOL     OW49334   7.375   2.186  10.752 -0.3386 -0.4755  0.0411
14926SOL    HW149335   7.422   2.269  10.754  0.0092 -0.6671 -0.1084
14926SOL    HW249336   7.283   2.210  10.755 -0.2295 -0.1038  0.6267
14927SOL     OW49337  10.398   7.998   4.714  0.3693  0.6165 -0.8954
14927SOL    HW149338  10.380   8.006   4.808  0.8445  0.4376 -0.7838
14927SOL    HW249339  10.412   7.904   4.700  2.2737  0.8362 -0.7523
14928SOL     OW49340   2.724   0.873  11.405 -0.0714  0.4832  0.0168
14928SOL    HW149341   2.681   0.877  11.320  1.1106  0.0191 -0.6304
14928SOL    HW249342   2.816   0.890  11.386  0.4770 -1.1857  0.9689
14929SOL     OW49343  10.177   7.066  11.145 -0.2955  0.0244 -0.3462
14929SOL    HW149344  10.221   6.982  11.141  0.1262  0.2622 -0.8382
14929SOL    HW249345  10.248   7.130  11.152 -0.3566  0.5833 -3.3494
14930SOL     OW49346  10.469   4.313   7.427 -0.1469 -0.1910  0.3137
14930SOL    HW149347  10.467   4.271   7.513 -1.1770 -0.0214  0.3791
14930SOL    HW249348  10.423   4.396   7.439  2.8356  1.5967  0.4686
14931SOL     OW49349   7.366   0.311   9.337  0.5348  0.8608 -0.8413
14931SOL    HW149350   7.399   0.293   9.425 -1.2246  0.0283 -0.3045
14931SOL    HW249351   7.392   0.402   9.321  0.4615  1.1996  0.7521
14932SOL     OW49352   8.206   9.468   6.787  0.3401  0.2806  0.0665
14932SOL    HW149353   8.297   9.498   6.795  0.7606 -0.5085 -1.3379
14932SOL    HW249354   8.214   9.373   6.782 -0.6297  0.1700  0.5229
14933SOL     OW49355   4.903   2.187  10.877 -0.6725 -0.6411  0.1991
14933SOL    HW149356   4.898   2.138  10.959  0.6259 -2.5677 -0.8090
14933SOL    HW249357   4.920   2.277  10.905 -0.0440 -1.2806  2.0548
14934SOL     OW49358   7.180   9.758   0.044  0.1820  0.0979 -0.4278
14934SOL    HW149359   7.247   9.766   0.112 -0.4477 -2.0942  0.5372
14934SOL    HW249360   7.202   9.677  -0.002 -2.6231 -1.6843  1.0211
14935SOL     OW49361   6.898   3.780   8.893 -0.2702  0.5585 -0.0440
14935SOL    HW149362   6.920   3.870   8.872  2.6843 -0.1712 -0.4750
14935SOL    HW249363   6.885   3.738   8.808 -0.2071  0.2485  0.0981
14936SOL     OW49364   6.456  11.180  10.855  0.6060 -0.3905 -0.2317
14936SOL    HW149365   6.522  11.165  10.923  1.9865  0.7521 -1.2578
14936SOL    HW249366   6.503  11.226  10.786 -0.8140 -1.2908 -1.8707
14937SOL     OW49367   2.951  11.803   9.486 -0.4607  0.4781  0.1448
14937SOL    HW149368   2.982  11.861   9.417  0.6847 -0.5632 -0.2599
14937SOL    HW249369   3.022  11.740   9.498 -1.0791  0.0011  1.5420
14938SOL     OW49370   3.920  11.259   0.026 -0.0194 -0.4624  0.0627
14938SOL    HW149371   3.933  11.235  -0.065  0.8924  0.5075 -0.0753
14938SOL    HW249372   3.826  11.280   0.032  0.1898  0.9245 -1.0198
14939SOL     OW49373   7.436   7.907   5.530  0.0571 -0.0089 -0.0680
14939SOL    HW149374   7.427   7.823   5.576  1.3421 -0.3694 -0.4415
14939SOL    HW249375   7.451   7.971   5.599  0.0949 -0.2536  0.1528
14940SOL     OW49376  11.120   8.529   7.004  0.3045  0.2854  0.2491
14940SOL    HW149377  11.136   8.533   7.098  1.1130  0.7940  0.1000
14940SOL    HW249378  11.038   8.576   6.992 -0.2311 -0.4883  0.7916
14941SOL     OW49379   7.313  11.424   5.478 -0.0130 -0.1742  0.1402
14941SOL    HW149380   7.334  11.339   5.517 -4.6445 -2.6812 -1.9569
14941SOL    HW249381   7.331  11.414   5.385 -1.7026  0.6132 -0.3238
14942SOL     OW49382   2.227   7.819   8.224  0.0164 -0.2424 -0.2344
14942SOL    HW149383   2.199   7.896   8.175  0.8744  0.6374  0.6203
14942SOL    HW249384   2.317   7.803   8.195 -0.2872 -1.1961 -0.7126
14943SOL     OW49385   7.945   1.667   3.269  0.7907 -0.4112  0.2681
14943SOL    HW149386   7.914   1.757   3.281 -0.7270 -0.9059  0.3682
14943SOL    HW249387   7.942   1.630   3.357 -0.2591 -1.0369 -0.0139
14944SOL     OW49388   9.369   1.971   3.139 -0.3207  0.1618  0.1454
14944SOL    HW149389   9.418   2.052   3.126 -0.4734  0.5788  1.8747
14944SOL    HW249390   9.401   1.912   3.071  0.2121  1.4763 -0.7876
14945SOL     OW49391   9.173  10.199   4.079  0.7467  0.6148 -0.5072
14945SOL    HW149392   9.249  10.257   4.077  2.0826 -1.0084  0.6743
14945SOL    HW249393   9.133  10.214   4.164  1.2801 -0.3810 -0.0678
14946SOL     OW49394   7.173   0.450   4.777 -0.1581  0.4205 -0.2223
14946SOL    HW149395   7.203   0.423   4.863 -0.0984  1.8756  0.2448
14946SOL    HW249396   7.109   0.384   4.751 -2.2192  1.3488  2.1266
14947SOL     OW49397   1.264   4.167   9.933 -0.5260 -0.5644 -0.5572
14947SOL    HW149398   1.339   4.145   9.989  0.6258 -1.0776 -2.2334
14947SOL    HW249399   1.257   4.092   9.873 -1.7656 -0.0574 -1.0581
14948SOL     OW49400   4.385   0.943   0.257 -0.4060 -0.5790 -0.4198
14948SOL    HW149401   4.440   0.870   0.228  1.1894  0.4572 -0.1179
14948SOL    HW249402   4.441   1.020   0.247 -0.9907  0.2473  2.1278
14949SOL     OW49403  10.901  11.128  11.996  0.3859 -0.2953 -0.3523
14949SOL    HW149404  10.980  11.157  12.041 -0.1526 -2.0507  1.8856
14949SOL    HW249405  10.879  11.201  11.938  3.1587  0.5698 -0.4740
14950SOL     OW49406   9.644   9.930   0.268 -0.3562 -0.0829  0.3685
14950SOL    HW149407   9.717   9.981   0.231 -2.9252  2.1562 -2.0703
14950SOL    HW249408   9.667   9.920   0.361  3.0750  0.3341 -0.2794
14951SOL     OW49409   0.060   2.317   5.296  0.3848 -0.5884  0.4957
14951SOL    HW149410   0.125   2.364   5.348 -1.3880  0.6121  1.7702
14951SOL    HW249411   0.087   2.331   5.206  0.6362  1.9389  0.8681
14952SOL     OW49412   8.776   7.606   2.587 -0.0129  0.2257 -0.1079
14952SOL    HW149413   8.851   7.665   2.586  1.0849 -1.1282 -1.4423
14952SOL    HW249414   8.747   7.603   2.496 -0.6236 -0.6101  0.1038
14953SOL     OW49415   3.332  11.059   1.217 -0.4896  0.0438  0.3051
14953SOL    HW149416   3.393  11.018   1.156 -0.6978 -0.3064  0.3257
14953SOL    HW249417   3.380  11.133   1.253 -1.2809  2.0065 -2.3739
14954SOL     OW49418   7.603   2.117   4.562  0.0429  0.5726 -0.3739
14954SOL    HW149419   7.546   2.044   4.583 -0.0383  0.3492 -1.2984
14954SOL    HW249420   7.692   2.083   4.577  0.0741 -0.1656 -2.0021
14955SOL     OW49421   1.589   1.916   3.891 -0.1935  0.2473  0.2033
14955SOL    HW149422   1.538   1.836   3.900  3.3342 -2.2630  0.2186
14955SOL    HW249423   1.627   1.931   3.977  0.5362  0.9483 -0.2239
14956SOL     OW49424   3.304   3.109   5.311  0.4530 -0.6640  0.0814
14956SOL    HW149425   3.359   3.078   5.239 -0.4334 -2.0260 -0.0441
14956SOL    HW249426   3.229   3.049   5.312 -2.0496  2.1810 -0.9468
14957SOL     OW49427   1.190   8.797   3.275 -0.7338  0.0678 -0.2266
14957SOL    HW149428   1.281   8.772   3.259 -0.2997  1.8846 -0.8474
14957SOL    HW249429   1.163   8.742   3.350  0.9971 -0.1931  0.2598
14958SOL     OW49430   8.482   2.636   3.009 -0.1066 -0.0972 -0.5108
14958SOL    HW149431   8.407   2.595   2.966 -0.3598  0.0797 -0.2431
14958SOL    HW249432   8.494   2.587   3.090  1.5194 -1.6271 -1.5832
14959SOL     OW49433  10.779  11.130   4.852  0.3683  0.1008 -1.0252
14959SOL    HW149434  10.707  11.083   4.810 -1.9271  1.1333  1.4813
14959SOL    HW249435  10.821  11.178   4.782 -1.8638  0.0359 -2.4926
14960SOL     OW49436   4.549   3.575   3.833 -0.4081 -0.1965 -0.1028
14960SOL    HW149437   4.582   3.650   3.783  2.2191 -1.2114 -0.0440
14960SOL    HW249438   4.502   3.615   3.906 -0.4571  1.3525 -0.9191
14961SOL     OW49439  10.680   9.067   7.318  0.0545 -0.3012 -0.2887
14961SOL    HW149440  10.687   9.055   7.223  0.9846  1.2678 -0.4570
14961SOL    HW249441  10.770   9.066   7.349 -0.2644 -1.1658  0.6551
14962SOL     OW49442  11.407  10.107   6.534 -0.2260 -0.2156  0.0044
14962SOL    HW149443  11.378  10.169   6.468 -2.8576 -0.1387  1.1064
14962SOL    HW249444  11.437  10.031   6.484 -1.1450  0.2369 -1.2754
14963SOL     OW49445  11.147   5.639   6.761  0.0127  0.5963  0.1079
14963SOL    HW149446  11.085   5.566   6.756  0.1547  0.5548 -1.2936
14963SOL    HW249447  11.230   5.598   6.784  0.6658 -0.1089 -2.9929
14964SOL     OW49448   9.239  10.143   1.685 -0.0352  0.6715  0.0975
14964SOL    HW149449   9.223  10.051   1.707 -0.3701  0.5821 -0.4966
14964SOL    HW249450   9.335  10.150   1.681  0.0568  0.7410  1.7295
14965SOL     OW49451   6.695   0.214  11.869 -0.0763  0.5057 -0.3663
14965SOL    HW149452   6.682   0.185  11.778 -0.7722  0.4295 -0.2416
14965SOL    HW249453   6.668   0.305  11.869 -2.9578 -0.2707  0.4114
14966SOL     OW49454   6.533   7.702   2.188  0.4581 -0.0628 -0.5783
14966SOL    HW149455   6.571   7.781   2.149 -0.1003 -0.0878 -1.1926
14966SOL    HW249456   6.551   7.711   2.282 -2.4172  2.4517 -0.0888
14967SOL     OW49457   4.131   5.153   8.906 -0.0839 -0.0183  0.7330
14967SOL    HW149458   4.142   5.058   8.908 -0.5549 -0.1025 -0.0824
14967SOL    HW249459   4.038   5.166   8.888 -0.0035  0.5965  0.7405
14968SOL     OW49460  12.025   1.646   8.147  0.0045  0.0749  0.1213
14968SOL    HW149461  12.007   1.590   8.222  0.7444 -2.8143 -1.6913
14968SOL    HW249462  12.120   1.656   8.147  0.1347 -0.9685 -1.0556
14969SOL     OW49463   0.346   3.835   0.939 -0.0681  0.2637 -1.0620
14969SOL    HW149464   0.345   3.745   0.974 -1.1540  0.9163  0.7203
14969SOL    HW249465   0.435   3.846   0.906  0.0255 -1.5422 -1.5575
14970SOL     OW49466   1.360   3.814  10.362 -0.0673 -0.4189 -0.6462
14970SOL    HW149467   1.359   3.839  10.270  1.2515  0.5255 -0.4314
14970SOL    HW249468   1.430   3.749  10.369 -1.9506 -2.6084 -0.7625
14971SOL     OW49469  11.392   9.933   9.376  0.0420 -0.7529 -0.1289
14971SOL    HW149470  11.339  10.012   9.390 -1.2125 -1.6047  0.0241
14971SOL    HW249471  11.478   9.967   9.351 -1.1300  0.6696 -2.6443
14972SOL     OW49472   2.275   6.501   6.013  0.3819 -0.1122  0.3893
14972SOL    HW149473   2.191   6.513   6.056 -0.2951 -1.2555 -0.5472
14972SOL    HW249474   2.268   6.551   5.931  0.0643 -1.2937 -0.3374
14973SOL     OW49475   1.863   4.443   6.344 -0.0930  0.9583  0.0315
14973SOL    HW149476   1.907   4.386   6.407  0.5483  0.7919 -0.5599
14973SOL    HW249477   1.776   4.405   6.334  0.4688 -0.1722 -0.6782
14974SOL     OW49478   7.576   8.724   5.287 -0.0936  0.3502  0.3693
14974SOL    HW149479   7.543   8.674   5.361 -1.2265 -0.1993 -0.4783
14974SOL    HW249480   7.655   8.677   5.260 -0.1539  0.0559  0.6941
14975SOL     OW49481   8.207   2.628   7.400 -0.4399  0.3778 -0.4493
14975SOL    HW149482   8.273   2.565   7.371 -0.1369  1.5194 -2.4409
14975SOL    HW249483   8.232   2.650   7.489 -0.0720 -1.6478 -0.0010
14976SOL     OW49484   4.298  11.254   4.195 -0.0992 -0.4607 -0.6139
14976SOL    HW149485   4.281  11.295   4.280 -0.7398  1.4390 -1.6064
14976SOL    HW249486   4.243  11.302   4.133 -0.3828 -2.4201 -1.9850
14977SOL     OW49487   9.981   2.910  11.985 -0.1911  0.0534 -0.3935
14977SOL    HW149488  10.018   2.963  11.914  0.1324  1.3337  0.6857
14977SOL    HW249489   9.932   2.973  12.038  0.3646 -0.6957  1.0529
14978SOL     OW49490   6.451  10.769   4.669  0.2539  0.2029  0.1528
14978SOL    HW149491   6.379  10.786   4.608 -1.4527 -0.8086  1.7774
14978SOL    HW249492   6.519  10.832   4.644 -1.1719  1.1934 -1.4451
14979SOL     OW49493  11.825   2.154   7.119 -0.2619 -1.0172 -0.1365
14979SOL    HW149494  11.742   2.199   7.101 -0.2162 -1.0687 -0.4768
14979SOL    HW249495  11.866   2.143   7.034 -0.1683 -1.5057 -0.0337
14980SOL     OW49496   9.971   4.861   8.376  0.1620 -0.3460  0.0333
14980SOL    HW149497   9.897   4.913   8.345 -0.4824 -0.6214  1.0653
14980SOL    HW249498   9.939   4.818   8.456  1.1432 -1.1852 -0.0015
14981SOL     OW49499   3.126   2.016  10.506  0.1174  0.2571  0.1098
14981SOL    HW149500   3.157   2.040  10.418 -0.6938 -0.4125 -0.3712
14981SOL    HW249501   3.206   1.996  10.555  0.7628  2.6769  0.1776
14982SOL     OW49502   4.073   6.526   3.786  0.0138  0.2296 -0.3376
14982SOL    HW149503   4.146   6.582   3.763 -0.5019  1.2761  0.4956
14982SOL    HW249504   4.007   6.544   3.719 -0.1352  0.5757 -0.0952
14983SOL     OW49505   4.781   0.963   0.307 -0.3686 -0.6034 -0.0129
14983SOL    HW149506   4.765   1.049   0.346 -1.7398 -0.3309 -1.1000
14983SOL    HW249507   4.870   0.940   0.335  0.1715  1.3251 -0.0088
14984SOL     OW49508   7.264   4.136  10.247 -0.3451  0.6270 -0.6429
14984SOL    HW149509   7.287   4.228  10.230  2.3754  0.1655  0.0725
14984SOL    HW249510   7.207   4.112  10.173  0.2835  2.4046 -1.7877
14985SOL     OW49511   0.659   5.383   4.241  0.2805  0.0177 -0.0162
14985SOL    HW149512   0.621   5.309   4.289  0.5580 -1.0658 -1.4133
14985SOL    HW249513   0.746   5.394   4.278  0.3054 -0.4885  0.0866
14986SOL     OW49514   6.842   4.063   3.455  0.0588 -0.2009  0.0452
14986SOL    HW149515   6.775   3.995   3.460 -1.2422  0.6969 -2.8707
14986SOL    HW249516   6.907   4.028   3.395  0.8338  0.0288  0.7392
14987SOL     OW49517   3.849   2.143   5.995  0.2208  0.5952  0.1337
14987SOL    HW149518   3.768   2.115   6.036  0.5304 -1.8734 -0.7586
14987SOL    HW249519   3.831   2.231   5.961 -1.2929  1.0311  1.9484
14988SOL     OW49520   1.994  10.979   2.272 -0.2225 -0.3252  0.1183
14988SOL    HW149521   1.959  11.040   2.336  0.1886  0.4992 -0.4324
14988SOL    HW249522   2.023  11.033   2.199 -0.1560 -1.1997 -0.5301
14989SOL     OW49523   7.943  10.964  10.470 -0.1789  0.0378  0.2546
14989SOL    HW149524   8.014  11.023  10.447 -0.1922 -0.4103 -1.0041
14989SOL    HW249525   7.871  11.021  10.496  0.4322  0.5076  0.9680
14990SOL     OW49526   7.581  10.449   0.694 -0.2167  0.0938  0.0197
14990SOL    HW149527   7.670  10.440   0.662 -0.4647 -0.1533 -0.6235
14990SOL    HW249528   7.589  10.455   0.789  0.6636  2.3543 -0.1398
14991SOL     OW49529   3.693   4.668   7.401 -0.0438 -0.0345  0.7140
14991SOL    HW149530   3.654   4.602   7.459  0.9664 -0.9251  0.4248
14991SOL    HW249531   3.742   4.617   7.337 -1.0377  0.9271 -0.8838
14992SOL     OW49532  10.543   6.655  11.257 -0.2010  0.4186 -0.2316
14992SOL    HW149533  10.506   6.579  11.304  0.0629  1.0932  1.1080
14992SOL    HW249534  10.484   6.667  11.182 -1.2134 -0.0994  0.4531
14993SOL     OW49535   4.148   3.257   4.057  0.1530  0.2594  0.0977
14993SOL    HW149536   4.179   3.286   3.971 -0.7502  0.9588 -0.0032
14993SOL    HW249537   4.192   3.315   4.119  0.5259 -0.0099  0.0875
14994SOL     OW49538  11.570   7.620   4.280 -0.4180 -0.1704  0.7063
14994SOL    HW149539  11.623   7.543   4.260  0.6629  0.7466 -0.0946
14994SOL    HW249540  11.483   7.585   4.300  0.5468 -1.7531  2.4620
14995SOL     OW49541   9.429   1.498  10.513  0.4892 -0.2480 -0.4923
14995SOL    HW149542   9.450   1.582  10.470 -0.2571 -0.0944 -0.5754
14995SOL    HW249543   9.374   1.522  10.587  2.3277 -0.4537  1.0004
14996SOL     OW49544   2.292   3.785   7.800  0.0759 -0.5615  0.1219
14996SOL    HW149545   2.377   3.743   7.808  1.2410  1.5887 -0.0725
14996SOL    HW249546   2.236   3.720   7.758  1.8811 -1.7089 -0.6233
14997SOL     OW49547   4.363   9.036   8.922  0.6557 -0.3598 -0.5872
14997SOL    HW149548   4.377   9.036   9.016 -0.1680  1.6666 -0.4170
14997SOL    HW249549   4.380   8.945   8.895 -2.4172 -1.9108  2.0069
14998SOL     OW49550   1.144   1.725   3.242  0.3907 -0.3611 -0.2853
14998SOL    HW149551   1.232   1.748   3.272  1.1282 -0.6879 -2.0494
14998SOL    HW249552   1.098   1.809   3.238  0.6216 -0.1783  0.5887
14999SOL     OW49553   0.702   3.692   1.760  0.1125  0.0547  0.2524
14999SOL    HW149554   0.757   3.727   1.690  0.6659  0.1486  0.7157
14999SOL    HW249555   0.620   3.741   1.754 -0.3057 -0.7602 -1.0636
15000SOL     OW49556   8.056   7.627  10.773  0.1341 -0.6485 -0.3085
15000SOL    HW149557   7.989   7.692  10.795  0.1632 -0.7357  0.0412
15000SOL    HW249558   8.096   7.660  10.693  1.6545  0.9300  1.0413
15001SOL     OW49559   5.098   6.521   3.129  0.0864 -0.1488 -0.0239
15001SOL    HW149560   5.098   6.512   3.224  1.9399 -1.3399 -0.0909
15001SOL    HW249561   5.064   6.609   3.113  0.5534  0.4023  1.7731
15002SOL     OW49562   7.047   7.850   8.737 -0.0354  0.1711  0.6010
15002SOL    HW149563   7.060   7.906   8.661  0.1811  0.5807  0.9375
15002SOL    HW249564   7.112   7.880   8.801  1.1355 -1.4439  0.2491
15003SOL     OW49565   8.908   4.366   5.664 -0.1771 -0.0177 -0.0216
15003SOL    HW149566   8.920   4.459   5.683 -0.0312 -0.1127  0.3574
15003SOL    HW249567   8.982   4.322   5.706 -1.3328 -0.5144  1.5690
15004SOL     OW49568   9.339   7.312  10.100  0.1503  0.3541 -0.6212
15004SOL    HW149569   9.409   7.331  10.163  0.5533 -0.0804 -0.9281
15004SOL    HW249570   9.269   7.374  10.122 -0.0568 -0.3347  0.8067
15005SOL     OW49571   4.430   8.340   7.326  0.3004 -0.1125  0.0697
15005SOL    HW149572   4.355   8.356   7.269  0.2639  0.6631  0.3349
15005SOL    HW249573   4.504   8.381   7.281  0.2422  0.6447  0.6487
15006SOL     OW49574   1.551   4.565   2.857 -0.4953 -0.4588 -0.2699
15006SOL    HW149575   1.572   4.639   2.915 -1.2459  0.3858 -1.0439
15006SOL    HW249576   1.635   4.521   2.844 -0.1041  0.0059  0.5385
15007SOL     OW49577   1.527   8.013   5.674 -0.1946 -0.4349 -0.0716
15007SOL    HW149578   1.563   7.929   5.647  0.0704 -0.5234  0.5289
15007SOL    HW249579   1.603   8.071   5.680 -0.3847 -0.1370 -0.5472
15008SOL     OW49580   4.686   1.137   1.251 -0.0776  0.0527 -0.8761
15008SOL    HW149581   4.628   1.086   1.196 -0.0510  2.5273 -3.4224
15008SOL    HW249582   4.773   1.098   1.237 -0.3028 -0.2661 -1.4041
15009SOL     OW49583   4.501   2.208   7.458 -0.4878 -0.0013  0.0622
15009SOL    HW149584   4.513   2.233   7.550  0.3048 -0.3992  0.0779
15009SOL    HW249585   4.515   2.289   7.409 -2.5097  0.5801  0.3607
15010SOL     OW49586  11.597   8.579   9.668  0.0657 -0.9586 -0.1141
15010SOL    HW149587  11.518   8.628   9.688  0.4870  0.7484 -2.2986
15010SOL    HW249588  11.567   8.504   9.617 -0.1606 -0.0350 -1.3925
15011SOL     OW49589   9.323   8.230   9.174 -0.2905  0.8226  0.0497
15011SOL    HW149590   9.241   8.279   9.171 -0.6519  0.2458  0.3799
15011SOL    HW249591   9.334   8.197   9.085 -0.7467  0.3766  0.1533
15012SOL     OW49592   9.899   5.994   0.857  0.2720  0.3977  0.2573
15012SOL    HW149593   9.985   5.978   0.896  0.1434 -0.3856  0.2343
15012SOL    HW249594   9.873   5.910   0.822 -0.5135  0.6287  0.2720
15013SOL     OW49595   7.001   0.716   0.635  0.1321 -0.2153 -0.2598
15013SOL    HW149596   7.025   0.775   0.564  0.0489  0.7170  0.4632
15013SOL    HW249597   6.928   0.664   0.599 -0.9539  1.3066 -0.3694
15014SOL     OW49598   6.421   0.610   7.536 -0.1640 -0.0437 -0.7792
15014SOL    HW149599   6.462   0.525   7.523 -1.5276 -1.2586  2.0324
15014SOL    HW249600   6.477   0.654   7.601 -0.6546  0.2813 -0.5681
15015SOL     OW49601  11.321   4.630   9.997 -0.5430  0.0212  0.5451
15015SOL    HW149602  11.345   4.599   9.909 -0.1463  0.8203  0.3564
15015SOL    HW249603  11.330   4.554  10.053  0.3288 -0.2239  0.0878
15016SOL     OW49604  11.773  11.572   2.677  0.2169  0.0084  0.0207
15016SOL    HW149605  11.707  11.631   2.642  0.0355  1.1002  2.0420
15016SOL    HW249606  11.740  11.484   2.657 -1.4648  0.5467  0.2725
15017SOL     OW49607   8.447  11.205   0.116  0.1363 -0.0554  0.0592
15017SOL    HW149608   8.535  11.204   0.153 -0.0641 -0.1533  0.5437
15017SOL    HW249609   8.393  11.160   0.181  0.1304 -2.1127 -1.2532
15018SOL     OW49610   8.813   5.471  11.058  0.3342 -0.6393  0.6466
15018SOL    HW149611   8.749   5.487  10.989  1.8680  2.0339 -0.2901
15018SOL    HW249612   8.857   5.390  11.031 -1.5402 -1.6731  0.5248
15019SOL     OW49613   9.929   6.219   5.605 -0.0304  0.2988 -0.0193
15019SOL    HW149614  10.008   6.256   5.645 -0.1352 -0.7089  1.2149
15019SOL    HW249615   9.857   6.258   5.655 -0.3274  1.1130 -1.0555
15020SOL     OW49616   9.535   2.337  11.635  0.6070  0.0367  0.4096
15020SOL    HW149617   9.523   2.357  11.728 -2.4402  1.7662 -0.2318
15020SOL    HW249618   9.504   2.415  11.589 -1.1951 -1.9691 -2.0886
15021SOL     OW49619   0.426   8.856   0.490  0.4902  0.1544 -0.5003
15021SOL    HW149620   0.461   8.899   0.568  1.4200 -1.1125 -0.1744
15021SOL    HW249621   0.418   8.764   0.516 -0.7381 -0.0141 -1.3870
15022SOL     OW49622   2.565   0.893   1.023  0.0944  0.0005 -0.4785
15022SOL    HW149623   2.601   0.926   0.941  2.9947 -0.9420  0.2862
15022SOL    HW249624   2.642   0.879   1.079 -1.5124 -2.0664  1.3956
15023SOL     OW49625   9.505   2.835   8.545  0.7528  0.0246  1.1144
15023SOL    HW149626   9.569   2.873   8.484 -0.6709 -2.6131 -2.4440
15023SOL    HW249627   9.421   2.868   8.514  0.0301 -0.7132  2.2426
15024SOL     OW49628   7.968   2.395   8.386  0.4086  0.1515 -0.2016
15024SOL    HW149629   8.036   2.420   8.449 -1.0416 -1.4388  2.1500
15024SOL    HW249630   8.014   2.338   8.324  1.5596  0.3973  0.3921
15025SOL     OW49631   9.347   5.144   6.673  0.1191 -0.2818 -0.7033
15025SOL    HW149632   9.397   5.198   6.611  2.1772  0.3242  1.3248
15025SOL    HW249633   9.406   5.071   6.693 -0.6111 -0.6023  0.3211
15026SOL     OW49634  10.851   5.904   9.176 -0.6359  0.0104 -0.0409
15026SOL    HW149635  10.859   5.976   9.113 -0.4294 -0.2154 -0.2742
15026SOL    HW249636  10.939   5.867   9.182 -0.7164 -0.1479  0.1694
15027SOL     OW49637   1.637   2.717   9.359 -0.6466  0.2856 -0.3302
15027SOL    HW149638   1.579   2.661   9.306 -1.1405  0.5609 -0.0880
15027SOL    HW249639   1.689   2.766   9.294 -2.1507  1.5827 -0.6137
15028SOL     OW49640   2.671   2.557   3.262  0.3772 -0.3057  0.4672
15028SOL    HW149641   2.744   2.495   3.268 -0.0499 -1.3507 -3.1197
15028SOL    HW249642   2.596   2.503   3.239 -0.3533  1.3420 -1.2146
15029SOL     OW49643   7.582   4.999   4.266  0.0094 -0.1964  0.3350
15029SOL    HW149644   7.664   4.990   4.217  0.6618 -0.0995  1.3942
15029SOL    HW249645   7.603   5.055   4.340 -0.7503 -1.0058  1.2033
15030SOL     OW49646  10.672   3.734   0.863 -0.6010  0.0959 -0.1643
15030SOL    HW149647  10.603   3.764   0.921 -0.5476  0.0535 -0.0779
15030SOL    HW249648  10.647   3.765   0.776 -0.2910  0.8201 -0.0001
15031SOL     OW49649   5.630  11.638   3.591  0.1044  0.1431 -0.0728
15031SOL    HW149650   5.543  11.600   3.582 -0.4282  1.3470 -0.1674
15031SOL    HW249651   5.650  11.673   3.504 -0.4594  2.2107  0.5936
15032SOL     OW49652   3.829   4.005   2.076 -0.5035  0.7930  0.3686
15032SOL    HW149653   3.841   3.914   2.051 -2.0329  0.3852  1.0089
15032SOL    HW249654   3.823   4.052   1.992  0.9797  0.4335  0.0360
15033SOL     OW49655   7.409   8.924   4.447 -0.0359  0.2244 -0.1189
15033SOL    HW149656   7.338   8.866   4.475  0.4387 -1.1731 -1.6391
15033SOL    HW249657   7.374   9.012   4.456 -1.2910 -0.3627  0.9317
15034SOL     OW49658   6.028   2.973   5.798  0.9803  0.6458 -0.3231
15034SOL    HW149659   6.010   2.882   5.777  0.2793  0.7249 -0.0911
15034SOL    HW249660   6.093   3.000   5.733 -0.7844  0.7612 -2.1722
15035SOL     OW49661  10.210   4.260   2.114 -0.2616 -0.2475 -0.6062
15035SOL    HW149662  10.265   4.183   2.125  1.7490  1.4542  3.6392
15035SOL    HW249663  10.125   4.225   2.086  0.7427 -3.9017  0.3685
15036SOL     OW49664  10.250   4.718   8.552 -0.2522  0.3128  0.1117
15036SOL    HW149665  10.309   4.686   8.619 -0.0991 -0.6936 -0.4894
15036SOL    HW249666  10.162   4.700   8.586 -0.2751  2.0296  1.1156
15037SOL     OW49667   2.210   7.325   9.016 -0.4724  0.0311  0.2389
15037SOL    HW149668   2.297   7.362   9.030 -0.7307  1.0000 -0.5921
15037SOL    HW249669   2.153   7.401   9.003 -1.5487 -0.5729  1.2881
15038SOL     OW49670   6.860   6.552  11.226  0.0119 -0.5018  0.6316
15038SOL    HW149671   6.929   6.544  11.292  0.8613 -0.0674 -0.1739
15038SOL    HW249672   6.830   6.462  11.211  1.8279 -0.9836 -0.4514
15039SOL     OW49673   2.331  10.628  11.563  0.0497 -0.0790  0.0763
15039SOL    HW149674   2.320  10.578  11.645 -1.9372  1.5014  0.8663
15039SOL    HW249675   2.426  10.631  11.550  0.4215 -0.6806  2.1352
15040SOL     OW49676   2.508  11.371   9.226  0.0521  0.1948  0.5538
15040SOL    HW149677   2.446  11.388   9.154 -1.1904 -1.4897  1.1358
15040SOL    HW249678   2.553  11.290   9.200 -0.4223 -0.4446  1.6393
15041SOL     OW49679  10.673   5.784   1.340  0.0990  0.6564  0.5838
15041SOL    HW149680  10.731   5.828   1.277 -0.1683 -1.3154 -1.1506
15041SOL    HW249681  10.589   5.779   1.295  0.2498 -1.9871  0.4672
15042SOL     OW49682   3.506   4.479   9.385  0.4884 -0.0112  0.1485
15042SOL    HW149683   3.546   4.508   9.303 -0.2866  1.1736  0.1476
15042SOL    HW249684   3.447   4.551   9.409  1.0494 -0.1256  2.0007
15043SOL     OW49685  10.526  12.120   4.966  0.0118  0.6098  0.4000
15043SOL    HW149686  10.484  12.034   4.965 -0.3071  0.7052  1.9147
15043SOL    HW249687  10.542  12.141   4.874 -0.8181 -0.6246 -0.0500
15044SOL     OW49688   0.713  10.324   8.639  0.5181  0.5780 -0.2403
15044SOL    HW149689   0.681  10.344   8.726  2.6890 -2.8715  1.6120
15044SOL    HW249690   0.636  10.296   8.590 -0.3263 -0.8105  1.7702
15045SOL     OW49691   7.313   9.325   2.755 -0.2807 -0.5643  0.0835
15045SOL    HW149692   7.393   9.292   2.795  0.1107  0.4896  0.2013
15045SOL    HW249693   7.322   9.420   2.758 -1.5232 -0.4283  0.0771
15046SOL     OW49694   4.898  10.129   2.186 -0.0128  0.2877  0.0013
15046SOL    HW149695   4.987  10.128   2.150 -0.3442  1.0325 -0.8729
15046SOL    HW249696   4.894  10.212   2.235 -0.3028  0.3766 -0.1729
15047SOL     OW49697   1.544   1.986   6.933  0.0185  0.3862  0.4462
15047SOL    HW149698   1.630   1.995   6.974  0.3607  1.7220 -0.4927
15047SOL    HW249699   1.563   1.958   6.843 -0.4374  1.7573 -0.0987
15048SOL     OW49700  10.725   7.948   9.306  0.6223 -0.3270 -0.4454
15048SOL    HW149701  10.739   7.856   9.332 -1.2198 -0.6305 -0.3901
15048SOL    HW249702  10.755   7.998   9.382 -1.2738 -1.0619  0.8801
15049SOL     OW49703   0.908  10.796   4.790  0.1485  0.3077  0.0248
15049SOL    HW149704   1.002  10.781   4.802  0.5570  2.9213  0.8670
15049SOL    HW249705   0.878  10.827   4.875 -1.4394 -0.2125 -0.3196
15050SOL     OW49706  11.830   4.426   1.059 -0.0637 -0.4881  0.6567
15050SOL    HW149707  11.840   4.521   1.063  0.3373 -0.5471  1.0373
15050SOL    HW249708  11.887   4.399   0.987 -2.1893 -0.1666 -1.2736
15051SOL     OW49709   6.370   4.621  11.701  0.3184  0.3582  0.1031
15051SOL    HW149710   6.402   4.685  11.764  1.8852  0.1969 -0.4687
15051SOL    HW249711   6.439   4.616  11.635 -1.0168  0.1138 -1.3443
15052SOL     OW49712   9.590   9.884   8.902  0.1735 -0.0342 -0.1062
15052SOL    HW149713   9.669   9.868   8.851  0.5142  1.3086 -0.0124
15052SOL    HW249714   9.618   9.875   8.993  0.2713  0.6363 -0.0661
15053SOL     OW49715   5.128   7.037   2.006 -0.0396  0.5651 -0.2953
15053SOL    HW149716   5.126   7.132   2.018  1.3872  0.4246  1.6302
15053SOL    HW249717   5.108   7.002   2.093 -0.9741 -0.9221 -1.0798
15054SOL     OW49718   2.712   7.017   7.766 -0.1645  0.0434  0.2997
15054SOL    HW149719   2.711   7.014   7.862  0.6807  1.1966  0.3630
15054SOL    HW249720   2.623   6.990   7.741 -1.0249  1.6133  1.4873
15055SOL     OW49721   9.032   3.084   3.066  0.0651 -0.3212 -0.3010
15055SOL    HW149722   9.084   3.004   3.059 -1.2375 -1.1756 -0.5673
15055SOL    HW249723   9.091   3.148   3.105  0.7743 -1.7539  1.0581
15056SOL     OW49724   2.261   7.902   5.834  0.1945 -0.4884  0.3030
15056SOL    HW149725   2.352   7.923   5.812  0.0711  0.3566  0.5580
15056SOL    HW249726   2.268   7.834   5.901  0.6527 -0.3314  0.4214
15057SOL     OW49727   3.184   6.418   8.606  0.0889 -0.3566  0.5577
15057SOL    HW149728   3.199   6.465   8.688 -0.5477 -0.7013  0.8775
15057SOL    HW249729   3.221   6.475   8.539  0.4165  0.0340  1.0603
15058SOL     OW49730  11.779  11.367   8.859 -0.0309  0.1831 -0.1552
15058SOL    HW149731  11.851  11.304   8.855 -0.9739 -0.9052 -0.7946
15058SOL    HW249732  11.799  11.432   8.793 -0.0022 -0.5419 -0.8742
15059SOL     OW49733   0.801  11.870   0.838  0.6567 -0.1331 -0.6396
15059SOL    HW149734   0.827  11.949   0.792  3.2684  0.5095  1.6677
15059SOL    HW249735   0.800  11.895   0.930  0.8283 -2.6051  0.1038
15060SOL     OW49736  10.555   1.895   6.675  0.0394  0.0576  0.0456
15060SOL    HW149737  10.563   1.966   6.739  0.8552 -0.6551  0.7623
15060SOL    HW249738  10.494   1.928   6.610  0.2959  1.3658  0.4411
15061SOL     OW49739  10.173   6.725   2.364  0.4662  0.2485 -0.5422
15061SOL    HW149740  10.136   6.690   2.282  2.4518 -0.3900 -1.2250
15061SOL    HW249741  10.187   6.648   2.418  0.8412  0.4748 -0.3184
15062SOL     OW49742   9.807   7.143   0.984 -0.1959  0.3400 -0.3186
15062SOL    HW149743   9.760   7.166   0.904  0.2333  0.3737 -0.5662
15062SOL    HW249744   9.892   7.187   0.975 -0.2921  0.6742  0.3378
15063SOL     OW49745  11.578  10.773  11.762 -0.2214  0.3111 -0.5501
15063SOL    HW149746  11.623  10.840  11.710 -0.5837  1.7776  0.9595
15063SOL    HW249747  11.496  10.758  11.715  0.5404 -0.2793 -1.7558
15064SOL     OW49748   4.568   9.241   1.725  0.5623  0.0508  0.0931
15064SOL    HW149749   4.526   9.266   1.643 -0.5443  1.3569  1.0268
15064SOL    HW249750   4.616   9.319   1.753  1.9477 -0.7619  0.1114
15065SOL     OW49751   3.887   7.133   1.815  0.2184  0.0249  0.5097
15065SOL    HW149752   3.865   7.101   1.903  0.8144 -0.7979  0.3810
15065SOL    HW249753   3.958   7.075   1.787 -2.2344 -2.0702 -1.9355
15066SOL     OW49754   4.166   6.477   2.242 -0.3684 -0.4056  0.2303
15066SOL    HW149755   4.153   6.475   2.147 -0.0906 -1.0853  0.2016
15066SOL    HW249756   4.079   6.459   2.279 -0.3177 -0.9688  0.0886
15067SOL     OW49757   4.431  11.397   1.235  0.0111 -0.0381  0.3779
15067SOL    HW149758   4.428  11.456   1.310 -2.1422 -1.0797  1.2214
15067SOL    HW249759   4.410  11.452   1.160  0.2969  0.6749  0.8097
15068SOL     OW49760  10.297   3.885   7.465 -0.2788 -0.5172  0.2372
15068SOL    HW149761  10.291   3.790   7.456  0.7034 -0.4756 -1.1902
15068SOL    HW249762  10.224   3.919   7.413 -0.7992 -0.4686  0.9721
15069SOL     OW49763   2.465   4.991   4.976  0.6513 -0.4891  0.6525
15069SOL    HW149764   2.484   5.047   5.051  1.3555 -1.1035  0.9365
15069SOL    HW249765   2.415   5.048   4.917  2.7448  1.0105  0.1862
15070SOL     OW49766   0.898   2.760   4.861 -0.6715 -0.2152  0.5384
15070SOL    HW149767   0.864   2.838   4.905 -1.6716 -0.9481  1.1109
15070SOL    HW249768   0.865   2.686   4.912  0.9427 -1.0212  0.4887
15071SOL     OW49769   0.682   8.650   8.368  0.2559 -0.4829 -0.5370
15071SOL    HW149770   0.746   8.668   8.299 -1.6947 -0.4575 -2.4417
15071SOL    HW249771   0.672   8.733   8.415  1.6735 -0.5299 -0.0931
15072SOL     OW49772   3.537  11.404   8.346 -0.0471 -0.0126 -0.3202
15072SOL    HW149773   3.555  11.490   8.309  0.8300  0.0844  0.2919
15072SOL    HW249774   3.565  11.411   8.438  2.0326 -1.5341 -0.7363
15073SOL     OW49775   5.641   9.209   0.497 -0.3853 -0.2922 -0.1962
15073SOL    HW149776   5.593   9.291   0.490 -0.8978 -0.5967 -0.3480
15073SOL    HW249777   5.574   9.144   0.519 -0.3221 -0.9958 -1.8838
15074SOL     OW49778   0.609   9.254   0.769  0.3123 -0.3301  0.3140
15074SOL    HW149779   0.684   9.290   0.722  0.4597 -0.4929  0.4260
15074SOL    HW249780   0.642   9.238   0.858 -0.2751  1.1060  0.8290
15075SOL     OW49781   5.117   4.604   5.452  0.2641  0.1339 -0.0210
15075SOL    HW149782   5.178   4.548   5.405  2.6250  2.1272  0.4252
15075SOL    HW249783   5.143   4.693   5.427 -1.3343  1.1161  1.5773
15076SOL     OW49784   6.044   7.637   4.272 -0.0893  0.1095 -0.0623
15076SOL    HW149785   6.110   7.704   4.263 -0.5608  0.4668 -1.0185
15076SOL    HW249786   6.088   7.564   4.316  0.5438  0.8597  0.5590
15077SOL     OW49787   7.650   8.781  11.017 -0.1109 -0.2597 -0.8782
15077SOL    HW149788   7.576   8.734  10.977 -0.4742 -0.5827  0.1542
15077SOL    HW249789   7.723   8.718  11.013  0.4860  0.4629 -2.9687
15078SOL     OW49790   7.585   1.263   4.921  0.0691 -0.2199  0.4180
15078SOL    HW149791   7.548   1.329   4.980  0.4844  0.6413 -0.2595
15078SOL    HW249792   7.655   1.309   4.874 -0.6086 -0.7085 -1.1389
15079SOL     OW49793   2.080   0.709   6.933 -0.4976 -0.0340 -0.7167
15079SOL    HW149794   2.058   0.785   6.986 -0.3901 -1.5524  1.6392
15079SOL    HW249795   2.175   0.713   6.923 -0.1056 -1.2131  1.7782
15080SOL     OW49796  10.360  11.171   8.509  0.1154 -0.0760  0.1893
15080SOL    HW149797  10.296  11.139   8.445 -0.2252 -1.3359  1.1208
15080SOL    HW249798  10.423  11.100   8.516  0.3190  0.1804  1.0250
15081SOL     OW49799   4.873   9.913   2.372  0.5748  0.2407  0.8006
15081SOL    HW149800   4.899   9.991   2.322  0.3674  0.1624  0.5724
15081SOL    HW249801   4.811   9.947   2.437 -0.8247  0.0065 -0.3841
15082SOL     OW49802   7.081  11.816  10.992  0.5171  0.0983  0.7372
15082SOL    HW149803   7.094  11.910  11.005 -0.7113  0.8945 -2.7358
15082SOL    HW249804   6.989  11.802  11.015 -0.2452  0.5153 -1.7975
15083SOL     OW49805   1.316   9.930   1.974 -0.4383  0.1808 -0.0793
15083SOL    HW149806   1.288  10.017   1.944 -0.8862  0.2292  0.4746
15083SOL    HW249807   1.349   9.945   2.062 -2.9770 -0.6160  1.0821
15084SOL     OW49808   0.474   4.219   3.253 -1.0641  0.0103 -0.1230
15084SOL    HW149809   0.431   4.220   3.338 -1.1081 -1.2146 -0.1126
15084SOL    HW249810   0.513   4.132   3.247 -0.2774  0.4049 -0.9696
15085SOL     OW49811   5.491   6.627  10.074 -0.0821 -0.1009 -0.1625
15085SOL    HW149812   5.535   6.593  10.151  0.2520  1.0677  0.1753
15085SOL    HW249813   5.401   6.597  10.083  0.4824 -2.0809 -0.6028
15086SOL     OW49814   6.537   6.349   0.864  0.1506 -0.6143 -0.4076
15086SOL    HW149815   6.473   6.415   0.839  1.5303  1.0151  0.1485
15086SOL    HW249816   6.611   6.363   0.805  0.3874 -1.8196 -0.4223
15087SOL     OW49817   4.151   7.428   3.030  0.1480  0.3121  0.0027
15087SOL    HW149818   4.080   7.442   2.967  1.1750 -2.4575 -1.9920
15087SOL    HW249819   4.217   7.494   3.006 -0.5093  0.9519 -0.0971
15088SOL     OW49820   9.423   9.080   0.674  0.7129 -0.4460  0.1110
15088SOL    HW149821   9.461   9.165   0.650  1.9664 -1.1209 -0.3290
15088SOL    HW249822   9.448   9.021   0.602 -2.4150 -0.6185 -1.0151
15089SOL     OW49823   1.818   3.005   1.394 -0.2239 -0.4372  0.0974
15089SOL    HW149824   1.792   3.052   1.473 -1.7702  0.1228 -0.6910
15089SOL    HW249825   1.813   2.913   1.418 -0.0688 -0.2648  0.8191
15090SOL     OW49826   2.249  11.526   9.617 -0.3566 -0.2705  0.2262
15090SOL    HW149827   2.271  11.468   9.544  1.8995 -0.4894  1.0082
15090SOL    HW249828   2.218  11.468   9.686  2.1031 -0.6863  1.0856
15091SOL     OW49829   5.013   0.003   4.955  0.3659 -0.0218  0.1808
15091SOL    HW149830   5.006  -0.071   5.016  0.9194 -0.4512 -0.2646
15091SOL    HW249831   5.100  -0.006   4.917  0.1752  0.4696 -0.3842
15092SOL     OW49832   6.896   5.441   3.549 -0.2093  0.1599  0.0295
15092SOL    HW149833   6.885   5.453   3.455  0.9878  1.2155  0.0000
15092SOL    HW249834   6.967   5.377   3.557  1.0987  1.5528  0.1663
15093SOL     OW49835   5.476  11.806  11.497 -0.6413  0.4539 -0.2312
15093SOL    HW149836   5.395  11.808  11.446 -0.2390 -0.5682 -0.9484
15093SOL    HW249837   5.545  11.805  11.431 -0.1174 -1.8906  0.2609
15094SOL     OW49838   7.716   3.974  10.159  0.2435 -0.1599 -0.4000
15094SOL    HW149839   7.794   3.920  10.170  0.0185 -0.2387  1.1430
15094SOL    HW249840   7.643   3.913  10.170 -0.0272  0.4957  2.3323
15095SOL     OW49841   4.653   4.110   2.420 -0.4069 -0.2693 -0.3945
15095SOL    HW149842   4.637   4.146   2.507  1.9640  0.7349 -0.2826
15095SOL    HW249843   4.730   4.054   2.432 -1.2354 -1.6900 -1.4935
15096SOL     OW49844  11.134   2.945   5.863  0.5138 -0.7182 -0.8908
15096SOL    HW149845  11.100   3.035   5.871 -0.0527 -0.8997 -1.1932
15096SOL    HW249846  11.225   2.951   5.892  0.9567  0.2679 -2.3764
15097SOL     OW49847   1.550   8.929   8.666 -0.1315 -0.2939  0.1787
15097SOL    HW149848   1.522   8.837   8.668 -0.3338 -0.2288  0.4165
15097SOL    HW249849   1.522   8.961   8.580  1.7565 -1.0091 -0.7568
15098SOL     OW49850   5.410   3.674  12.024 -0.5708 -0.0405  0.5762
15098SOL    HW149851   5.478   3.681  12.091  2.3642  0.0544 -2.1446
15098SOL    HW249852   5.371   3.762  12.020  1.0147  0.6952  0.4764
15099SOL     OW49853   2.749   5.460   5.631  0.4765  0.0195 -0.0789
15099SOL    HW149854   2.833   5.479   5.673 -0.3589  1.0180  1.2071
15099SOL    HW249855   2.720   5.545   5.597 -0.2986 -0.1977  0.0265
15100SOL     OW49856  11.102   0.957  10.131 -0.1322 -0.2908  0.0494
15100SOL    HW149857  11.085   0.899  10.058 -0.0189 -0.0276 -0.1886
15100SOL    HW249858  11.043   1.031  10.117 -0.5257 -0.5083  0.5381
15101SOL     OW49859   5.686   4.403   3.369  0.1870  0.0374  0.5342
15101SOL    HW149860   5.625   4.376   3.437  0.5675  1.6293  1.5454
15101SOL    HW249861   5.650   4.484   3.334 -0.3063 -1.0340 -1.6117
15102SOL     OW49862  10.502   1.068   3.309  0.1338  0.0611  0.8628
15102SOL    HW149863  10.524   1.045   3.218 -2.9781  0.0507 -0.0142
15102SOL    HW249864  10.425   1.015   3.328 -0.4073  1.4761  2.8486
15103SOL     OW49865   1.759  11.064   7.465 -0.1419  0.3774  0.2607
15103SOL    HW149866   1.674  11.107   7.455 -0.2271  0.1172 -0.1686
15103SOL    HW249867   1.806  11.087   7.386 -0.7333 -1.5318 -0.7000
15104SOL     OW49868   6.042   0.969   3.915 -0.0901  0.0152 -0.4275
15104SOL    HW149869   6.044   1.001   3.825  1.3506  0.7301 -0.1728
15104SOL    HW249870   6.001   0.883   3.909 -1.2599  0.6140 -1.5627
15105SOL     OW49871   6.316   4.581   9.529 -0.0716  0.7520 -0.3318
15105SOL    HW149872   6.306   4.576   9.624 -0.2076 -2.0622 -0.4248
15105SOL    HW249873   6.379   4.653   9.516  1.4104 -0.0099  2.0135
15106SOL     OW49874   5.638   0.389   4.544  0.0295 -0.5082 -0.4897
15106SOL    HW149875   5.585   0.362   4.619  0.3907 -2.1518 -0.7810
15106SOL    HW249876   5.659   0.481   4.561  1.3022 -1.1785  2.1779
15107SOL     OW49877  11.932   1.226   4.000 -0.2914 -0.0886  0.2819
15107SOL    HW149878  12.023   1.251   3.986 -0.1715 -1.1448 -0.9838
15107SOL    HW249879  11.923   1.223   4.096  0.7230  0.9393  0.4366
15108SOL     OW49880   0.561   3.797   4.211 -0.2764 -0.0484 -0.3714
15108SOL    HW149881   0.656   3.785   4.208 -0.2495 -0.1411  0.7018
15108SOL    HW249882   0.542   3.854   4.136  0.6169 -0.0636 -0.6182
15109SOL     OW49883   7.046   2.935   9.927 -0.4452 -0.4078 -0.4615
15109SOL    HW149884   7.119   2.899   9.876  0.0820 -0.1105  0.0710
15109SOL    HW249885   7.008   3.002   9.871  0.9356  0.8173  0.0207
15110SOL     OW49886   3.980  11.671  10.216  0.0557  0.0081 -0.6741
15110SOL    HW149887   4.064  11.682  10.172 -0.9900  1.0416 -2.5076
15110SOL    HW249888   3.958  11.758  10.247 -0.0266 -0.3986  0.4533
15111SOL     OW49889  10.125  10.490   1.032 -0.3621 -0.3590 -0.0469
15111SOL    HW149890  10.071  10.557   1.072  0.4155 -0.0652  0.5373
15111SOL    HW249891  10.094  10.484   0.941 -2.4065 -1.3085  0.6550
15112SOL     OW49892   3.915  10.754   4.328 -0.7109  0.2798  0.1846
15112SOL    HW149893   3.883  10.664   4.327  0.8961 -0.3211 -0.3128
15112SOL    HW249894   3.933  10.774   4.236 -1.0328  1.0945  0.2983
15113SOL     OW49895   8.170   8.985   7.440 -0.1387  0.3124 -0.5614
15113SOL    HW149896   8.185   8.991   7.534 -0.1954  2.7184 -0.6537
15113SOL    HW249897   8.256   8.968   7.403 -0.2044 -1.2221 -0.0726
15114SOL     OW49898  11.884   3.253   2.355 -0.0925  0.2248 -0.1531
15114SOL    HW149899  11.921   3.256   2.443  0.1417 -1.4183 -0.1609
15114SOL    HW249900  11.933   3.319   2.305  0.0097  0.9189  0.8397
15115SOL     OW49901   6.408   6.042  10.718 -0.9681 -0.2958  0.3101
15115SOL    HW149902   6.353   6.063  10.794  0.9932  1.4317  1.3614
15115SOL    HW249903   6.406   6.122  10.665  0.1839 -0.3446  0.1746
15116SOL     OW49904   2.416   1.965  10.634 -0.2919 -0.1731 -0.3161
15116SOL    HW149905   2.450   2.051  10.658 -2.2828  1.0971 -1.7691
15116SOL    HW249906   2.490   1.921  10.593  0.4959  1.2256 -0.4575
15117SOL     OW49907  11.322  11.708   9.071  0.0294  0.0822 -0.3028
15117SOL    HW149908  11.265  11.654   9.127  0.2182 -0.2464 -0.4306
15117SOL    HW249909  11.339  11.654   8.994  0.7954  0.0454 -0.1111
15118SOL     OW49910   2.865   2.239   6.726  0.8044 -0.0879 -0.0511
15118SOL    HW149911   2.830   2.291   6.654  2.5374  0.6986 -0.3890
15118SOL    HW249912   2.896   2.159   6.684 -2.1090 -1.6505  0.5046
15119SOL     OW49913   7.187   2.146   1.963 -0.1692  0.4424  0.2036
15119SOL    HW149914   7.249   2.104   2.022 -0.0957 -3.4156 -2.2598
15119SOL    HW249915   7.132   2.200   2.020  2.2141 -0.0079  3.1571
15120SOL     OW49916  11.488  10.547   5.590 -0.0557  0.0402 -0.3170
15120SOL    HW149917  11.494  10.497   5.672  0.4264 -1.2355 -1.0879
15120SOL    HW249918  11.410  10.601   5.600 -0.1122 -0.2433  0.9070
15121SOL     OW49919   1.137   3.795   9.106  0.6213 -0.6375  0.0079
15121SOL    HW149920   1.074   3.826   9.171  1.5000 -0.1771  0.6655
15121SOL    HW249921   1.186   3.727   9.151  0.8351 -0.7421 -0.3830
15122SOL     OW49922   0.026   6.802   6.480 -0.9507 -0.3958 -0.8907
15122SOL    HW149923   0.066   6.835   6.400 -0.1449 -2.4129 -1.3742
15122SOL    HW249924   0.099   6.788   6.540 -1.3569 -0.5171 -0.4180
15123SOL     OW49925   2.777   8.069   2.228  0.0585 -0.3751  0.0351
15123SOL    HW149926   2.799   7.993   2.284  1.3786 -0.1394 -0.1252
15123SOL    HW249927   2.860   8.115   2.217 -0.3880  0.1597 -1.2896
15124SOL     OW49928  11.314   5.738   6.018 -0.2917  0.1578  0.1031
15124SOL    HW149929  11.282   5.648   6.021 -1.2667  0.4819 -0.4705
15124SOL    HW249930  11.359   5.745   5.933  0.7334 -0.0867  0.6036
15125SOL     OW49931   1.647  11.729   6.943 -0.1629  0.4904  0.5079
15125SOL    HW149932   1.602  11.795   6.890 -1.7810 -0.2581  0.8726
15125SOL    HW249933   1.604  11.734   7.029 -0.0097 -0.7060  0.6786
15126SOL     OW49934   8.531   7.701   1.009 -0.1113 -0.3615 -0.2284
15126SOL    HW149935   8.510   7.739   0.924  0.4858 -0.0326 -0.2304
15126SOL    HW249936   8.569   7.774   1.059 -0.9926 -0.3888  0.5273
15127SOL     OW49937  11.676   8.976   0.020  0.8820  0.4113 -0.6423
15127SOL    HW149938  11.685   8.955   0.113  0.7898 -1.6680 -1.0518
15127SOL    HW249939  11.592   9.021   0.013  1.1598  1.1233  0.3366
15128SOL     OW49940   9.104   9.748   1.992  0.2528 -0.3781  0.2862
15128SOL    HW149941   9.133   9.837   1.974 -1.1783  0.1335  0.4009
15128SOL    HW249942   9.142   9.727   2.078  0.0955  0.3339  0.5300
15129SOL     OW49943   9.192   0.625   4.151 -0.6107 -0.3266  0.1597
15129SOL    HW149944   9.275   0.665   4.176 -0.6643 -0.6630  0.8834
15129SOL    HW249945   9.126   0.688   4.179 -0.6341 -0.3746  0.2135
15130SOL     OW49946  10.913   8.526   0.617  1.1252  0.3227  0.5853
15130SOL    HW149947  10.915   8.488   0.529  0.9446  2.5712 -0.4486
15130SOL    HW249948  11.005   8.538   0.640  1.2473 -1.9490  1.5433
15131SOL     OW49949   6.876   5.692   2.978  0.0488 -0.2736  0.1906
15131SOL    HW149950   6.931   5.749   2.925  0.3521 -0.5178  0.2358
15131SOL    HW249951   6.812   5.750   3.019  0.7699  0.1262  0.7637
15132SOL     OW49952  12.024   6.053  11.714 -0.6191  0.2735 -0.2201
15132SOL    HW149953  12.095   6.015  11.663 -1.0260 -0.8995  0.0546
15132SOL    HW249954  12.068   6.109  11.778 -0.0322  0.6722 -0.9645
15133SOL     OW49955   9.418  10.503   8.268  0.8581  0.4588  0.6418
15133SOL    HW149956   9.453  10.421   8.230  0.0029  0.6287 -0.5580
15133SOL    HW249957   9.489  10.535   8.323  1.7485 -0.3739  0.0232
15134SOL     OW49958   3.726   1.861  11.713  0.2113  0.5694 -0.7876
15134SOL    HW149959   3.758   1.771  11.705  1.8844  1.1056 -0.6502
15134SOL    HW249960   3.634   1.852  11.735  0.5303 -1.1369  0.0263
15135SOL     OW49961   6.500   8.327   8.101  0.5859  0.3748 -0.6052
15135SOL    HW149962   6.479   8.291   8.016  1.5943  0.2007 -0.7921
15135SOL    HW249963   6.486   8.421   8.092  0.9914  0.3930 -1.0624
15136SOL     OW49964   6.704   2.828   1.818 -0.1691  0.5282  0.6233
15136SOL    HW149965   6.742   2.913   1.839  2.1412  0.4494 -2.5153
15136SOL    HW249966   6.631   2.848   1.759  2.0354  0.4705 -2.3855
15137SOL     OW49967   9.880   1.544  11.041 -0.0861 -0.1566  0.1509
15137SOL    HW149968   9.902   1.628  11.001 -0.0221 -0.4580 -0.4626
15137SOL    HW249969   9.932   1.480  10.992  0.6512 -0.4472  1.2883
15138SOL     OW49970   7.206   7.680   2.029  0.3390  0.0954 -0.1061
15138SOL    HW149971   7.234   7.608   1.974  0.9977  0.6277 -0.4795
15138SOL    HW249972   7.171   7.745   1.968 -1.4584 -0.4040  0.3111
15139SOL     OW49973   0.963   2.838   5.349 -0.3607 -0.3194 -0.3170
15139SOL    HW149974   0.973   2.869   5.259  1.5959 -0.5291 -0.2157
15139SOL    HW249975   0.907   2.904   5.390 -1.5289 -0.3719 -1.7314
15140SOL     OW49976   3.390   2.638   5.773 -0.4780 -0.2371  0.2432
15140SOL    HW149977   3.457   2.576   5.744  1.1579  0.4840  2.3286
15140SOL    HW249978   3.307   2.596   5.747  0.6526 -2.1400 -0.5179
15141SOL     OW49979  10.208   3.867   0.479 -0.1642 -0.5702 -0.2331
15141SOL    HW149980  10.205   3.772   0.495 -1.1008 -0.9451 -2.3646
15141SOL    HW249981  10.292   3.881   0.436  0.5303 -0.1882  1.1645
15142SOL     OW49982   3.381   2.344   5.757  0.3691  0.6242 -1.0323
15142SOL    HW149983   3.316   2.322   5.824  1.0688  2.5494  0.3848
15142SOL    HW249984   3.333   2.338   5.675 -0.7613 -0.9562 -0.3086
15143SOL     OW49985   8.505  12.112   1.030 -0.0873  0.0817  0.4322
15143SOL    HW149986   8.575  12.175   1.047  0.9558 -1.1322  0.8178
15143SOL    HW249987   8.548  12.027   1.039 -0.6425 -0.7529 -3.1760
15144SOL     OW49988   7.828   4.745   9.536 -0.5985  0.2436  0.0532
15144SOL    HW149989   7.838   4.790   9.451 -0.1367  0.1787  0.0692
15144SOL    HW249990   7.889   4.791   9.594 -1.6648  0.9570  0.6286
15145SOL     OW49991   5.817  10.944   1.367  0.1280 -0.8140 -0.1995
15145SOL    HW149992   5.890  11.006   1.362 -0.2816 -0.0283  2.0950
15145SOL    HW249993   5.799  10.920   1.276  1.8258  0.6405 -0.9806
15146SOL     OW49994   9.119   5.833   1.470  0.3843 -0.2963 -0.1875
15146SOL    HW149995   9.194   5.775   1.458  0.8135 -0.0125  0.9626
15146SOL    HW249996   9.145   5.891   1.542 -1.1814 -0.6222  0.6851
15147SOL     OW49997   9.566   3.300   9.470  0.1102 -0.0771  0.0237
15147SOL    HW149998   9.473   3.289   9.491  0.2273  1.1010  1.2933
15147SOL    HW249999   9.592   3.217   9.430 -1.3259 -0.6545  0.2446
15148SOL     OW50000  12.038   7.202   8.946 -0.7754 -0.7454  0.2244
15148SOL    HW150001  12.090   7.128   8.914 -0.2041 -1.2035  2.0842
15148SOL    HW250002  12.049   7.270   8.880 -1.6064 -2.3994 -1.7377
15149SOL     OW50003   6.068   7.930   5.064  0.2098  0.1678 -0.3891
15149SOL    HW150004   5.993   7.894   5.016  0.3163 -0.6099  0.0063
15149SOL    HW250005   6.031   7.958   5.148  0.3593 -0.2226 -0.1912
15150SOL     OW50006   9.061   9.006  10.696 -0.0446 -0.4764 -0.5403
15150SOL    HW150007   9.155   9.016  10.679  0.0536 -0.3104  0.0616
15150SOL    HW250008   9.057   8.940  10.765 -0.3703 -0.4611 -0.5437
15151SOL     OW50009   2.976  11.739   5.798 -0.2808 -0.5599 -0.7251
15151SOL    HW150010   2.984  11.689   5.879 -1.0585 -0.0872 -0.3419
15151SOL    HW250011   2.984  11.674   5.728  1.1058 -0.8695 -0.2950
15152SOL     OW50012   4.190   7.712   5.616 -0.3114 -0.0614 -0.4951
15152SOL    HW150013   4.139   7.791   5.634 -0.5800 -0.1603 -0.8101
15152SOL    HW250014   4.268   7.744   5.571 -0.8240 -0.0481 -1.3996
15153SOL     OW50015   7.484   4.759   6.203 -0.2619 -0.5329  0.1133
15153SOL    HW150016   7.407   4.775   6.148 -0.8428  0.9247  1.2783
15153SOL    HW250017   7.488   4.664   6.212 -1.1201 -0.7028 -1.0557
15154SOL     OW50018   6.870   9.382   3.211  0.6406 -0.6322 -0.6868
15154SOL    HW150019   6.928   9.307   3.208  0.7360 -0.5997  0.2667
15154SOL    HW250020   6.917   9.448   3.263  0.6982  0.2151 -1.7597
15155SOL     OW50021   4.832  10.000   0.580 -0.2670  0.3188  0.0575
15155SOL    HW150022   4.765  10.024   0.515  0.0249 -1.6061 -1.0478
15155SOL    HW250023   4.799   9.918   0.618  1.0234 -0.1752  0.1423
15156SOL     OW50024   8.368   6.153   1.318  0.5596 -0.1428 -0.5470
15156SOL    HW150025   8.314   6.200   1.255  1.3344  2.5606  0.6508
15156SOL    HW250026   8.458   6.174   1.294  0.9075 -0.2884  0.5560
15157SOL     OW50027   2.992   0.488   0.402  0.1414 -0.4993 -0.4715
15157SOL    HW150028   3.019   0.396   0.395 -1.0157 -1.0735  1.7284
15157SOL    HW250029   2.966   0.512   0.313  1.0566 -2.0851 -1.2154
15158SOL     OW50030   6.666   1.743   0.979  1.0186  0.5788 -0.1819
15158SOL    HW150031   6.744   1.798   0.990  0.7158  0.8850  0.4427
15158SOL    HW250032   6.679   1.672   1.042 -0.8688  2.5002  2.5505
15159SOL     OW50033   7.194   8.562   1.630 -0.2350 -0.2299  0.1579
15159SOL    HW150034   7.189   8.469   1.608 -0.2710  0.0383 -1.0472
15159SOL    HW250035   7.147   8.606   1.560 -0.8256  0.6615  1.0861
15160SOL     OW50036  11.939   8.399   8.580 -0.5172  0.2973  0.1269
15160SOL    HW150037  11.932   8.493   8.599 -3.0778  0.0259  1.0337
15160SOL    HW250038  12.029   8.376   8.603 -0.8605  1.8185  3.8049
15161SOL     OW50039   3.528   9.717  10.069  0.3667  0.1539  0.6048
15161SOL    HW150040   3.456   9.778  10.082  1.7774  2.0203  0.1471
15161SOL    HW250041   3.606   9.768  10.091  1.6220 -1.4398 -0.0101
15162SOL     OW50042  11.745   8.816   0.795 -0.2308 -0.4693 -0.4885
15162SOL    HW150043  11.671   8.799   0.854 -1.9287 -1.5995 -2.8005
15162SOL    HW250044  11.792   8.733   0.790  2.1589  0.5498  1.9757
15163SOL     OW50045   7.640   9.786   6.517  0.5178  0.3782 -0.4048
15163SOL    HW150046   7.658   9.692   6.522  2.5671  0.7784  0.7700
15163SOL    HW250047   7.597   9.806   6.600  0.4405  0.5355 -0.4848
15164SOL     OW50048   2.655   7.732   1.989 -0.3394 -0.1908 -0.0561
15164SOL    HW150049   2.719   7.668   2.020 -1.7989 -1.1855  1.0167
15164SOL    HW250050   2.708   7.803   1.953  1.3484 -1.2366  0.2476
15165SOL     OW50051  11.247  10.973   0.564 -0.1686  0.3162  0.2017
15165SOL    HW150052  11.171  10.945   0.616 -0.0441 -0.0469  0.1905
15165SOL    HW250053  11.256  10.905   0.497  1.2642 -0.6270  1.3021
15166SOL     OW50054   5.863   4.060   1.365  0.2756 -0.3499 -0.2018
15166SOL    HW150055   5.791   4.061   1.429 -0.4393 -2.2181 -0.8991
15166SOL    HW250056   5.822   4.031   1.284  1.4714  0.4609 -1.1235
15167SOL     OW50057   8.252  10.299  10.748  0.2362  0.2544 -0.5381
15167SOL    HW150058   8.276  10.363  10.681  0.4581  1.1867  0.4182
15167SOL    HW250059   8.333  10.250  10.764 -0.0055 -0.4956 -1.4796
15168SOL     OW50060  10.748   5.893   5.918  0.9319  0.0703 -0.3323
15168SOL    HW150061  10.842   5.906   5.914  0.6467  2.7376  0.2146
15168SOL    HW250062  10.717   5.957   5.981 -1.3104 -0.4712 -0.7863
15169SOL     OW50063   0.475   8.199   1.354  0.1752 -0.1721  0.5200
15169SOL    HW150064   0.466   8.270   1.290  1.0916  0.3241  0.9234
15169SOL    HW250065   0.569   8.192   1.369  0.0844 -1.3429  0.6495
15170SOL     OW50066   4.359   9.695  10.684 -0.2009  0.4131 -0.5400
15170SOL    HW150067   4.382   9.713  10.593 -0.1932  0.3934 -0.5418
15170SOL    HW250068   4.267   9.669  10.681 -0.2700  0.6472 -0.5152
15171SOL     OW50069   9.706   2.718  11.634 -0.4000 -0.1831  0.1879
15171SOL    HW150070   9.786   2.740  11.586 -0.6353 -1.5626 -0.9019
15171SOL    HW250071   9.729   2.639  11.683 -0.8451 -0.0914  0.5425
15172SOL     OW50072   3.709   2.966   2.607 -0.2524 -0.4697 -0.1070
15172SOL    HW150073   3.729   2.872   2.612  2.0410  0.0255  2.3415
15172SOL    HW250074   3.787   3.005   2.567 -0.9759  0.4801 -0.6469
15173SOL     OW50075   8.766   2.071   7.528  0.0081 -0.0074  0.9055
15173SOL    HW150076   8.835   2.137   7.535  1.8525 -1.7892  0.2625
15173SOL    HW250077   8.720   2.093   7.446  0.6745  0.4134  0.6370
15174SOL     OW50078  10.915   0.684   7.500 -0.1918 -0.6124 -0.1503
15174SOL    HW150079  10.938   0.602   7.544 -0.0003 -0.2187  0.4814
15174SOL    HW250080  10.820   0.677   7.486 -0.0897 -1.1924 -0.6362
15175SOL     OW50081  12.037   6.839  10.275 -0.2990  0.1145 -0.0212
15175SOL    HW150082  12.090   6.767  10.310  0.9268  0.9975  0.0324
15175SOL    HW250083  12.014   6.891  10.352 -0.9128 -0.0445 -0.0935
15176SOL     OW50084   1.542  10.044   6.655  0.2190  0.0925 -0.3696
15176SOL    HW150085   1.619  10.087   6.617  0.4949 -0.6221 -0.6476
15176SOL    HW250086   1.542  10.070   6.747  0.5739  0.4018 -0.4542
15177SOL     OW50087  10.615   4.046   5.449 -0.1532 -0.4176 -0.0321
15177SOL    HW150088  10.698   4.036   5.403 -0.8286 -1.0532 -1.1488
15177SOL    HW250089  10.606   4.140   5.464  0.3160 -0.2599 -0.7520
15178SOL     OW50090   2.753   0.644  10.178 -0.4197  0.2307  0.1565
15178SOL    HW150091   2.738   0.579  10.247  0.2641 -0.7381 -0.5767
15178SOL    HW250092   2.844   0.671  10.190  0.3699 -1.4011 -1.4866
15179SOL     OW50093   5.411   4.305   4.521  0.3527  0.4559 -0.6850
15179SOL    HW150094   5.472   4.349   4.578 -0.3116  0.7255 -0.1671
15179SOL    HW250095   5.426   4.212   4.536  0.8860  0.5134 -0.8459
15180SOL     OW50096  11.771   9.267   3.663  0.2643 -0.0136  0.0839
15180SOL    HW150097  11.693   9.211   3.662  0.0883  0.2295  0.0399
15180SOL    HW250098  11.830   9.228   3.598 -0.1408  0.2541 -0.4484
15181SOL     OW50099   3.441  10.601   5.899  0.0213  0.2448 -0.6330
15181SOL    HW150100   3.505  10.639   5.959 -1.7262  1.5371  0.5128
15181SOL    HW250101   3.492  10.576   5.822  2.0150  0.4043  0.5650
15182SOL     OW50102   0.936   1.934   8.266  0.4768 -0.3430  0.1891
15182SOL    HW150103   1.005   1.949   8.201 -1.6707  0.2177 -2.0894
15182SOL    HW250104   0.917   2.021   8.301  0.9305 -0.5029  0.8441
15183SOL     OW50105   7.643   9.926   3.273 -0.8007  0.3552 -0.1435
15183SOL    HW150106   7.561   9.926   3.322 -0.8426  1.1843 -0.2135
15183SOL    HW250107   7.635   9.999   3.212 -0.5785 -0.3996 -1.1136
15184SOL     OW50108  10.317   9.857  10.619  0.1809 -0.3979 -0.0137
15184SOL    HW150109  10.407   9.875  10.646 -0.3644  1.3257  0.7828
15184SOL    HW250110  10.297   9.771  10.656  0.9095 -0.0003  1.3625
15185SOL     OW50111   2.421   1.516   5.218  0.1648  0.3419  0.1153
15185SOL    HW150112   2.429   1.431   5.262 -0.9660 -0.7157 -1.5621
15185SOL    HW250113   2.337   1.551   5.248 -0.0613  0.1577 -0.2857
15186SOL     OW50114   1.789   7.977   6.548 -0.2481 -0.3453  0.3256
15186SOL    HW150115   1.854   7.942   6.488 -0.5747 -1.6610  0.7004
15186SOL    HW250116   1.729   8.026   6.493  0.4112 -0.0841 -0.1752
15187SOL     OW50117   7.629  11.656   8.350  0.1568  0.3107  0.0641
15187SOL    HW150118   7.602  11.703   8.429 -0.7751  0.0104 -0.0645
15187SOL    HW250119   7.722  11.676   8.341  0.1394  0.8247  0.9074
15188SOL     OW50120   2.845   6.476   5.821 -0.1880 -0.0843  0.3767
15188SOL    HW150121   2.899   6.510   5.893  2.2483  2.2574 -2.2250
15188SOL    HW250122   2.906   6.423   5.770 -1.3314 -0.2633 -0.8351
15189SOL     OW50123   2.028   4.748   4.413 -0.0257  0.3810  0.3528
15189SOL    HW150124   2.024   4.822   4.353 -2.4154  0.3438  0.3407
15189SOL    HW250125   1.975   4.774   4.488  0.0912 -0.8493  0.8967
15190SOL     OW50126   3.642  11.498   1.688 -0.3337 -0.1626 -0.2648
15190SOL    HW150127   3.686  11.563   1.741  0.3615 -2.0193  1.5861
15190SOL    HW250128   3.554  11.533   1.674 -0.0769  1.0200  0.9167
15191SOL     OW50129   2.578   6.907   2.406 -0.0012  0.1968 -0.5702
15191SOL    HW150130   2.558   6.954   2.487 -0.1880 -0.6113 -0.1392
15191SOL    HW250131   2.671   6.886   2.413 -0.4539 -1.6802  0.4162
15192SOL     OW50132  11.589   7.700   9.726 -0.0870  0.9297 -0.3112
15192SOL    HW150133  11.675   7.658   9.724 -1.2546 -1.7955  1.1205
15192SOL    HW250134  11.600   7.776   9.784  1.3273  0.5748 -0.0930
15193SOL     OW50135   2.960  10.770   9.410  0.2238 -0.2741 -0.2155
15193SOL    HW150136   2.953  10.816   9.494 -1.2076 -1.0525  0.1264
15193SOL    HW250137   2.951  10.677   9.433 -0.9606 -0.4472 -1.3027
15194SOL     OW50138   0.994   8.742  11.636  0.4900  0.3071 -0.3485
15194SOL    HW150139   0.915   8.688  11.638  0.5570  0.2275  0.6316
15194SOL    HW250140   1.038   8.717  11.554 -1.5186  1.8848 -2.0399
15195SOL     OW50141   7.712   4.075   2.523 -0.5042 -0.3928 -0.2298
15195SOL    HW150142   7.766   4.039   2.453  1.7835 -0.3358  1.3801
15195SOL    HW250143   7.774   4.099   2.591 -2.1517  3.7172  0.1200
15196SOL     OW50144   7.568   3.985   3.283  0.5188  0.0203 -0.7451
15196SOL    HW150145   7.489   3.981   3.336 -0.3186  1.3771 -1.8280
15196SOL    HW250146   7.635   4.020   3.341 -0.3578  1.3986 -0.5254
15197SOL     OW50147   6.182   2.157   3.213 -0.6391 -0.2535 -0.4672
15197SOL    HW150148   6.196   2.200   3.297 -1.4536 -0.8869  0.0109
15197SOL    HW250149   6.099   2.193   3.181  0.5376  1.3297 -1.8898
15198SOL     OW50150   8.169  11.627   0.035 -0.4797  0.0004  0.2736
15198SOL    HW150151   8.217  11.612  -0.046  0.0189  1.1529  0.3327
15198SOL    HW250152   8.112  11.702   0.016 -1.1420 -0.3924  0.6699
15199SOL     OW50153  10.231   4.348  10.368  0.2053  0.0554 -0.1598
15199SOL    HW150154  10.144   4.344  10.407  0.4883  1.2384  0.6426
15199SOL    HW250155  10.249   4.442  10.360  1.9648 -0.1474  0.9914
15200SOL     OW50156   5.061   5.765   3.000  0.3413  0.0848  0.0182
15200SOL    HW150157   4.982   5.812   3.025  1.4905  2.1889 -0.0919
15200SOL    HW250158   5.031   5.676   2.982 -1.7038  0.3784  1.5957
15201SOL     OW50159   7.816   6.917   8.317  0.4794 -0.2152  0.1705
15201SOL    HW150160   7.754   6.884   8.382  0.4788  1.4434  1.0758
15201SOL    HW250161   7.797   6.867   8.237 -1.2482 -0.5370  0.7425
15202SOL     OW50162   3.609   2.131   2.182  0.2595 -0.2848 -0.1285
15202SOL    HW150163   3.571   2.171   2.104  0.7013 -0.2555 -0.3292
15202SOL    HW250164   3.565   2.046   2.189 -0.1587 -0.0703 -0.1099
15203SOL     OW50165   4.467   1.181   8.537 -0.3221  0.5879 -0.1320
15203SOL    HW150166   4.471   1.212   8.627 -0.3802 -0.4578  0.2470
15203SOL    HW250167   4.516   1.099   8.537 -1.3535 -0.0629 -0.7617
15204SOL     OW50168  11.592   8.162   8.138 -0.4307  0.0422 -0.2814
15204SOL    HW150169  11.545   8.214   8.202  0.4391  0.2597  0.1882
15204SOL    HW250170  11.574   8.071   8.164  1.3128  0.1144  1.3430
15205SOL     OW50171   8.863   0.893  11.464 -0.2893 -0.0712 -0.2099
15205SOL    HW150172   8.890   0.847  11.385  0.2402  0.2439 -0.2148
15205SOL    HW250173   8.781   0.850  11.490 -1.4395  0.9821 -1.9045
15206SOL     OW50174   0.578   6.662   5.576  0.3165  0.4529 -0.3685
15206SOL    HW150175   0.524   6.680   5.499  1.3079  0.2089 -1.1440
15206SOL    HW250176   0.577   6.567   5.586 -0.6212  0.5364  0.5466
15207SOL     OW50177   5.267   9.967   1.028  0.2572  0.1776 -0.6431
15207SOL    HW150178   5.242  10.046   0.979 -0.9750  0.4750  0.4034
15207SOL    HW250179   5.206   9.965   1.102  0.4200 -1.6462 -0.5240
15208SOL     OW50180   5.724   6.569   1.240 -0.2251 -0.1833  0.2385
15208SOL    HW150181   5.650   6.619   1.207 -0.6408 -1.1522 -0.3517
15208SOL    HW250182   5.712   6.481   1.204  2.0187 -0.0268 -1.1496
15209SOL     OW50183   6.268  11.492  10.204  0.2189  0.0409  0.0095
15209SOL    HW150184   6.309  11.562  10.153  0.2328  1.1784  1.4983
15209SOL    HW250185   6.174  11.514  10.203  0.2480  0.2395  0.6543
15210SOL     OW50186   2.189   2.027   1.312  0.4636 -0.1736 -0.2900
15210SOL    HW150187   2.185   2.014   1.407  1.9872  0.3705 -0.1211
15210SOL    HW250188   2.273   1.990   1.286  1.2708  1.9655 -0.9841
15211SOL     OW50189   8.703   7.525  10.716  0.4828  0.2407  0.4138
15211SOL    HW150190   8.771   7.592  10.723 -0.4314  1.1800  0.5910
15211SOL    HW250191   8.730   7.470  10.643  0.7399  1.4132 -0.3889
15212SOL     OW50192   3.080   1.976   2.323 -0.4382  1.0410 -0.1969
15212SOL    HW150193   3.132   1.902   2.294 -0.4598  1.2553 -0.8070
15212SOL    HW250194   3.080   1.971   2.418 -0.4593  0.2461 -0.2362
15213SOL     OW50195   5.763   9.363   8.150  0.4083  0.3134  0.1821
15213SOL    HW150196   5.854   9.336   8.159  0.4176 -0.4110 -1.5767
15213SOL    HW250197   5.716   9.281   8.131 -0.1941  0.9852 -1.3813
15214SOL     OW50198   0.739   7.408  10.341  0.4424 -0.3518  0.1152
15214SOL    HW150199   0.799   7.479  10.317  0.2308  0.1889  1.1196
15214SOL    HW250200   0.796   7.339  10.376  0.5193  0.0391  0.7828
15215SOL     OW50201   9.301   9.035   8.782 -0.0464  0.1722  0.0150
15215SOL    HW150202   9.339   8.979   8.715  0.5530  0.1293  0.3872
15215SOL    HW250203   9.356   9.114   8.781 -0.7559  0.6748 -0.3636
15216SOL     OW50204   8.147   2.304   8.876  0.4260  0.3701  0.2107
15216SOL    HW150205   8.179   2.217   8.899  1.3632  0.5990 -0.1530
15216SOL    HW250206   8.054   2.291   8.856  0.8694 -0.8403 -1.2711
15217SOL     OW50207   6.871   9.570  11.415  0.2761 -0.0391  0.0863
15217SOL    HW150208   6.950   9.519  11.394 -0.4762 -0.1347 -3.1554
15217SOL    HW250209   6.814   9.509  11.462  1.4960 -0.4419  1.0800
15218SOL     OW50210   2.094  10.003  12.057  0.1183 -0.2053  0.0268
15218SOL    HW150211   2.156   9.958  12.113  1.7363  1.1145 -0.6151
15218SOL    HW250212   2.082   9.944  11.982  1.3525 -0.0914 -0.2863
15219SOL     OW50213   5.978  11.895  10.907  0.3492 -0.0314 -0.2122
15219SOL    HW150214   6.043  11.889  10.837  0.8911  1.2623  0.1531
15219SOL    HW250215   5.960  11.989  10.916 -1.3751 -0.3451 -0.1156
15220SOL     OW50216   9.818   8.748   7.146  0.0876 -0.4009  0.5416
15220SOL    HW150217   9.802   8.827   7.197 -0.5092 -0.0802 -0.1180
15220SOL    HW250218   9.849   8.684   7.209 -0.4768  0.0347  1.2738
15221SOL     OW50219   4.579  10.653  11.797  0.4236  0.3804 -0.5142
15221SOL    HW150220   4.648  10.667  11.732 -0.0910 -0.8211 -1.3567
15221SOL    HW250221   4.528  10.734  11.795  1.2210  0.8962 -0.5835
15222SOL     OW50222   5.215   2.757  10.904 -0.7532 -0.1073 -0.0086
15222SOL    HW150223   5.246   2.839  10.940 -1.1237  0.6094 -1.2467
15222SOL    HW250224   5.246   2.690  10.965 -0.2076  0.9173  0.8683
15223SOL     OW50225   7.296   2.996   6.511  0.3921  0.7850  0.3133
15223SOL    HW150226   7.334   3.060   6.452 -1.7849  0.9123 -1.0780
15223SOL    HW250227   7.278   2.920   6.455  2.5157 -0.9327  1.8298
15224SOL     OW50228   5.925   3.790   2.746  0.5622  0.3644  0.0233
15224SOL    HW150229   5.996   3.835   2.699 -1.5557  1.9108 -1.9230
15224SOL    HW250230   5.882   3.736   2.680 -0.2182 -0.3794  1.1036
15225SOL     OW50231   0.835   6.386   5.814  0.4465 -0.2588 -0.0496
15225SOL    HW150232   0.866   6.440   5.741  1.7163  1.6170  1.7545
15225SOL    HW250233   0.892   6.310   5.813  2.2082  0.9746  0.4420
15226SOL     OW50234   8.664   7.324   2.126  0.0098  0.0964  0.1491
15226SOL    HW150235   8.666   7.240   2.170  2.3584 -0.8698 -1.6132
15226SOL    HW250236   8.601   7.312   2.054 -0.8559  0.4044  0.8365
15227SOL     OW50237  10.300   0.881  10.107 -0.3177  0.3696 -0.0946
15227SOL    HW150238  10.302   0.920  10.019 -1.5871  0.8551  0.0665
15227SOL    HW250239  10.290   0.956  10.165  0.2787  0.0274  0.4620
15228SOL     OW50240   2.709   7.402   7.556 -0.5775 -0.2929 -0.2276
15228SOL    HW150241   2.795   7.416   7.595 -1.3937  0.5260  1.4079
15228SOL    HW250242   2.714   7.443   7.470  0.4601  0.3687  0.1319
15229SOL     OW50243   5.103   8.218   4.901 -0.1875 -0.4465  0.7720
15229SOL    HW150244   5.026   8.235   4.846  0.3880  1.0133  0.3665
15229SOL    HW250245   5.152   8.152   4.852  0.9577  1.7149 -1.2591
15230SOL     OW50246   3.177   7.054   6.885 -0.8124  0.2240  0.1450
15230SOL    HW150247   3.228   6.979   6.915  0.7197  1.0903 -0.1892
15230SOL    HW250248   3.101   7.016   6.840 -0.7762 -1.0939  1.1656
15231SOL     OW50249   5.098   9.676   1.711 -0.3682 -0.0155  0.1725
15231SOL    HW150250   5.087   9.605   1.648  0.4536 -0.5178  0.5772
15231SOL    HW250251   5.050   9.646   1.788  1.6768 -1.1181  1.0884
15232SOL     OW50252  11.162  11.648   7.722  0.3018 -0.0229 -0.2041
15232SOL    HW150253  11.228  11.584   7.749  0.1176 -0.1676 -0.0853
15232SOL    HW250254  11.092  11.637   7.787 -0.8609 -1.5059 -1.6222
15233SOL     OW50255  11.571   4.836   9.925 -0.2547 -0.1599 -0.1665
15233SOL    HW150256  11.571   4.775   9.999 -1.7247  0.4818  0.3994
15233SOL    HW250257  11.513   4.907   9.953 -1.6623 -0.3882 -2.3010
15234SOL     OW50258   7.618   7.608   3.255 -0.9754 -0.2879 -0.0900
15234SOL    HW150259   7.620   7.689   3.205  0.5310  0.0893  0.5427
15234SOL    HW250260   7.640   7.634   3.344  2.8868 -1.7488 -0.4606
15235SOL     OW50261  11.833   9.998  10.869  0.2584 -0.6656 -0.2054
15235SOL    HW150262  11.830  10.050  10.789 -2.1946 -0.3068  0.0217
15235SOL    HW250263  11.882   9.920  10.845 -1.5678 -1.2339 -2.5384
15236SOL     OW50264  11.400   8.004   0.455  0.2242 -0.2741  0.1464
15236SOL    HW150265  11.408   7.920   0.410  0.7050 -1.0148  1.5538
15236SOL    HW250266  11.307   8.013   0.474 -0.0219  0.1682 -1.1826
15237SOL     OW50267   0.856   9.993   6.736  0.5981 -0.5183 -0.0598
15237SOL    HW150268   0.775  10.042   6.724 -0.3342 -1.8722  0.4392
15237SOL    HW250269   0.886  10.019   6.823 -0.1088 -1.1052  0.3725
15238SOL     OW50270   7.418   0.368   2.775 -0.0873  0.7329 -0.0379
15238SOL    HW150271   7.444   0.374   2.867  0.0616  0.4359 -0.0627
15238SOL    HW250272   7.389   0.278   2.764 -2.3997  1.3636  0.3350
15239SOL     OW50273  11.763   6.337   9.981 -0.0677 -0.2081 -0.2614
15239SOL    HW150274  11.739   6.425   9.952 -1.6206 -0.9151 -1.2756
15239SOL    HW250275  11.692   6.282   9.950  0.6605 -1.7731  0.7316
15240SOL     OW50276   5.288   0.106  11.888  0.0130 -0.8677 -0.0200
15240SOL    HW150277   5.322   0.106  11.798 -2.2108 -3.6373 -0.9743
15240SOL    HW250278   5.367   0.113  11.942  1.4449  0.6559 -2.1220
15241SOL     OW50279  10.965   1.413   3.870  0.7181  1.0072 -0.4635
15241SOL    HW150280  10.984   1.389   3.780 -0.5241 -0.3515 -0.3940
15241SOL    HW250281  11.027   1.484   3.890  0.7653  1.5849 -2.4767
15242SOL     OW50282   1.774   0.105   9.109 -0.3368  0.2371 -0.3449
15242SOL    HW150283   1.707   0.098   9.177 -0.1125 -1.5858 -0.2595
15242SOL    HW250284   1.809   0.016   9.101  1.9632  1.1013 -0.5014
15243SOL     OW50285   8.914   6.492   8.257 -0.2859 -0.2145  0.4014
15243SOL    HW150286   8.834   6.495   8.310 -0.0322 -1.3851  0.8759
15243SOL    HW250287   8.898   6.554   8.186 -2.1311 -1.3004 -0.2076
15244SOL     OW50288   0.112   2.291   1.511  0.7498 -0.0596  0.0118
15244SOL    HW150289   0.152   2.222   1.564 -0.6050 -1.1111 -0.2411
15244SOL    HW250290   0.177   2.361   1.508  1.6785 -0.8132  1.3288
15245SOL     OW50291   0.248   7.229   5.049  0.7526 -0.4491 -0.0685
15245SOL    HW150292   0.199   7.195   5.124 -0.6984  0.5277 -0.5272
15245SOL    HW250293   0.206   7.313   5.029  1.1093 -0.6801 -1.9809
15246SOL     OW50294   6.224   7.854   6.227 -0.8476  0.8993 -0.2573
15246SOL    HW150295   6.198   7.877   6.138 -0.0159 -0.4270 -0.8801
15246SOL    HW250296   6.211   7.759   6.232 -3.1337  1.2481  1.8414
15247SOL     OW50297  10.742   3.124   4.584  0.6977  0.0745 -0.0846
15247SOL    HW150298  10.735   3.029   4.582  0.0229  0.1165  0.1047
15247SOL    HW250299  10.691   3.150   4.662  0.7841  0.5940 -0.1971
15248SOL     OW50300   4.336   7.535   8.708 -0.6928  0.2379  0.0668
15248SOL    HW150301   4.432   7.533   8.713 -0.5885 -0.2517 -1.4800
15248SOL    HW250302   4.317   7.601   8.641 -1.3563 -0.7570 -0.7558
15249SOL     OW50303   3.701  10.431   7.432  0.1005  0.0432  0.1067
15249SOL    HW150304   3.783  10.397   7.468  0.6683  0.0437 -1.1316
15249SOL    HW250305   3.709  10.526   7.439 -0.5122  0.0175  1.4740
15250SOL     OW50306   6.551   2.197   6.922 -0.3516 -0.2112  0.6207
15250SOL    HW150307   6.484   2.189   6.855  0.8450  1.0945 -0.7859
15250SOL    HW250308   6.631   2.220   6.875  1.4967 -3.0818  2.0468
15251SOL     OW50309   1.574   9.383   5.952  0.4123  0.4498  0.1986
15251SOL    HW150310   1.547   9.475   5.954  1.0742  0.6474  0.7121
15251SOL    HW250311   1.641   9.379   5.884 -0.0217  0.2200 -0.2219
15252SOL     OW50312   7.688   0.182   7.211 -0.2095 -0.3185  0.2658
15252SOL    HW150313   7.694   0.092   7.179 -0.3949  0.1850 -1.3000
15252SOL    HW250314   7.767   0.225   7.177 -0.6615  0.3731  0.0703
15253SOL     OW50315   1.738   2.882   9.148  0.3556  0.1137  0.7668
15253SOL    HW150316   1.698   2.962   9.113 -0.0166  0.5701  2.1858
15253SOL    HW250317   1.725   2.817   9.079  1.6140  1.5179 -0.8953
15254SOL     OW50318   0.491  10.030   8.918 -0.1723 -0.3246 -0.0983
15254SOL    HW150319   0.424  10.098   8.914  0.8028  0.6246 -2.8244
15254SOL    HW250320   0.474   9.975   8.842  0.4150 -1.8283  0.8215
15255SOL     OW50321   8.892   6.060   8.787  0.1627 -0.2437  0.0139
15255SOL    HW150322   8.896   6.155   8.783 -1.2224 -0.2036 -1.4994
15255SOL    HW250323   8.864   6.041   8.877 -2.4465  0.9687 -0.4551
15256SOL     OW50324   4.899   1.628   5.207  0.2213 -0.1410  0.0701
15256SOL    HW150325   4.956   1.705   5.209  0.3717 -0.2552  0.2025
15256SOL    HW250326   4.889   1.603   5.299 -0.8434  0.4681  0.1284
15257SOL     OW50327   0.179   6.010   1.486 -0.1971  0.1243 -0.6548
15257SOL    HW150328   0.229   6.065   1.426  1.1842 -1.0895 -0.6905
15257SOL    HW250329   0.245   5.978   1.548 -0.8977 -1.6387 -0.7743
15258SOL     OW50330   2.492   6.310   8.509 -0.6423  0.0765 -0.2899
15258SOL    HW150331   2.429   6.362   8.459 -0.8249  0.5740  0.4329
15258SOL    HW250332   2.535   6.255   8.444 -0.2992  1.2816 -1.1118
15259SOL     OW50333   8.473  10.485  10.024  0.7891  0.0470  0.6262
15259SOL    HW150334   8.448  10.560  10.078  0.0907  0.1218  0.2030
15259SOL    HW250335   8.481  10.522   9.935 -2.8793 -0.9637 -0.2725
15260SOL     OW50336   2.517   7.505   3.475  0.0422 -0.0510 -0.1483
15260SOL    HW150337   2.532   7.412   3.456 -0.9974 -0.0921 -0.8624
15260SOL    HW250338   2.577   7.525   3.547  2.0087 -0.6536 -1.5440
15261SOL     OW50339   2.078   8.377   7.313 -0.3134  0.5323 -0.8016
15261SOL    HW150340   2.053   8.427   7.390  1.3256 -3.4237  2.6804
15261SOL    HW250341   2.155   8.422   7.279  0.7683  0.7954  1.7904
15262SOL     OW50342   1.630   6.733  10.406 -0.1204 -0.0494  0.2730
15262SOL    HW150343   1.555   6.683  10.372 -0.4862 -0.0605  1.0609
15262SOL    HW250344   1.692   6.666  10.434 -0.6131 -0.0854  1.3341
15263SOL     OW50345   6.441   8.611   8.043 -0.1999 -0.6484  0.1400
15263SOL    HW150346   6.387   8.657   8.107  1.2432  0.7746  0.4005
15263SOL    HW250347   6.435   8.664   7.964  0.7867 -0.4723  0.1715
15264SOL     OW50348   6.491   6.415   7.326 -0.0317 -0.0585  0.1910
15264SOL    HW150349   6.459   6.436   7.414 -0.2388 -1.0702  0.3669
15264SOL    HW250350   6.418   6.370   7.284  1.0003 -2.1300  0.4951
15265SOL     OW50351   6.982   2.011   4.103 -0.0665  0.1556  0.3507
15265SOL    HW150352   7.016   2.085   4.053 -0.7183  0.7304  0.7448
15265SOL    HW250353   6.916   1.972   4.046  1.3680 -1.1202 -0.5250
15266SOL     OW50354   3.821   5.667   9.986 -0.1299 -0.1636 -0.6465
15266SOL    HW150355   3.766   5.739  10.014  0.5949  0.0726  0.2169
15266SOL    HW250356   3.781   5.589  10.024 -1.2855 -0.3331 -2.1169
15267SOL     OW50357  10.782   1.481   8.263 -0.0135 -0.5472  0.1588
15267SOL    HW150358  10.691   1.506   8.246 -0.3200 -1.4803  0.3612
15267SOL    HW250359  10.776   1.400   8.313  0.9352 -0.5612  0.2748
15268SOL     OW50360   9.290   4.876   3.127  0.2730 -0.2269  0.1388
15268SOL    HW150361   9.329   4.963   3.121 -1.8019  0.7493  0.0247
15268SOL    HW250362   9.355   4.824   3.176  1.0599  1.6734  1.2208
15269SOL     OW50363  11.274   6.666   2.723  0.2913 -0.0684  0.4642
15269SOL    HW150364  11.345   6.721   2.757  0.9706  0.8167 -2.1957
15269SOL    HW250365  11.226   6.638   2.802  0.1600  3.9511  2.0636
15270SOL     OW50366  11.115   9.792   9.079 -0.8862  0.5123  0.1761
15270SOL    HW150367  11.191   9.735   9.080 -0.9336  0.4479 -0.0055
15270SOL    HW250368  11.053   9.751   9.139 -0.4285  1.0432  1.0444
15271SOL     OW50369   7.254   3.779   8.939 -0.0694  0.3477 -0.6448
15271SOL    HW150370   7.227   3.752   8.851 -0.2776  2.8972 -1.4440
15271SOL    HW250371   7.179   3.759   8.995 -0.7202  0.5299 -1.4400
15272SOL     OW50372   2.870   3.987   3.333  0.0028  0.4069 -0.3995
15272SOL    HW150373   2.884   4.032   3.416  0.2310  1.4440 -0.9867
15272SOL    HW250374   2.921   4.037   3.270 -0.2818 -0.2917 -1.1981
15273SOL     OW50375   2.931  10.825   6.583  0.4173  0.3490  0.3667
15273SOL    HW150376   2.865  10.803   6.517  1.5719 -2.4292  0.0151
15273SOL    HW250377   3.011  10.839   6.534  1.0209 -0.5350  1.0652
15274SOL     OW50378   9.112   8.621   5.279 -0.3214  0.4296  0.2514
15274SOL    HW150379   9.023   8.628   5.243 -0.8452 -2.7349  0.6400
15274SOL    HW250380   9.134   8.711   5.304 -3.1525  1.4462 -0.4251
15275SOL     OW50381   6.574   6.310   3.253  0.2876 -0.1895 -0.1359
15275SOL    HW150382   6.659   6.291   3.213  0.5679  0.8677 -0.0758
15275SOL    HW250383   6.543   6.388   3.206 -0.4291 -0.2928  0.1619
15276SOL     OW50384   7.328  11.290   0.258  0.0563 -0.1881 -0.0143
15276SOL    HW150385   7.247  11.298   0.208  0.8755 -0.8294 -1.5177
15276SOL    HW250386   7.375  11.371   0.239 -0.1949  0.1617  0.8166
15277SOL     OW50387   2.125   7.104   7.935  0.0114 -0.3865  0.2342
15277SOL    HW150388   2.117   7.057   8.018 -1.0327  0.9475  0.9348
15277SOL    HW250389   2.081   7.048   7.872  1.9695 -2.0578  0.2538
15278SOL     OW50390   8.374   6.370   4.374  0.4453  0.0592  0.4286
15278SOL    HW150391   8.463   6.336   4.384  0.9846  1.0642 -0.6653
15278SOL    HW250392   8.318   6.293   4.373  1.3327 -0.6082  0.8186
15279SOL     OW50393  11.888   4.131   0.055  0.0155 -0.1083  0.8136
15279SOL    HW150394  11.961   4.192   0.044 -0.2068 -0.0295 -0.3475
15279SOL    HW250395  11.821   4.182   0.101  0.6004 -0.1258  1.7197
15280SOL     OW50396   0.276   1.567   0.432 -0.8251  0.1748 -0.4114
15280SOL    HW150397   0.211   1.594   0.496  0.0503  1.9300 -0.2049
15280SOL    HW250398   0.225   1.545   0.354 -1.8965 -1.8759  0.7841
15281SOL     OW50399  11.690   6.384   7.168 -0.4802 -0.4499  0.0451
15281SOL    HW150400  11.759   6.450   7.178  0.0589 -1.0061  0.0726
15281SOL    HW250401  11.731   6.302   7.195 -1.8965 -0.4306  2.5221
15282SOL     OW50402   3.435   1.413   5.217 -0.3971 -0.6665 -0.4578
15282SOL    HW150403   3.476   1.387   5.299 -1.0921 -1.4037 -0.3347
15282SOL    HW250404   3.482   1.363   5.150  0.1659 -0.0696 -0.5211
15283SOL     OW50405   9.200   5.377   8.093 -0.3006 -0.2950  0.1748
15283SOL    HW150406   9.210   5.324   8.172 -3.5926 -0.4970  0.5909
15283SOL    HW250407   9.136   5.330   8.040 -2.1563  2.3283 -0.1556
15284SOL     OW50408  10.579  11.067   9.407 -0.5260 -0.2846  0.3898
15284SOL    HW150409  10.539  11.029   9.486  0.1310  2.2111  2.0529
15284SOL    HW250410  10.542  11.017   9.335 -2.1646 -1.8576  2.2066
15285SOL     OW50411   7.516   1.278  11.212  0.5925  0.4552 -0.1462
15285SOL    HW150412   7.480   1.193  11.237 -0.3146 -0.8940 -5.0207
15285SOL    HW250413   7.462   1.341  11.259 -1.0707 -1.6310  0.9281
15286SOL     OW50414   4.669   2.027   9.928  0.3356  0.1721 -0.1331
15286SOL    HW150415   4.637   2.087   9.861  1.3192  1.0453  0.1649
15286SOL    HW250416   4.763   2.020   9.911  0.3046 -0.9707  0.0944
15287SOL     OW50417   9.918  11.437   4.239  0.3728 -0.0113 -0.2910
15287SOL    HW150418   9.847  11.412   4.181 -1.7070  1.5491  1.4076
15287SOL    HW250419   9.908  11.381   4.316  0.9713  0.2222 -0.0322
15288SOL     OW50420  10.613   7.713   8.516 -0.3733  0.0953 -0.0487
15288SOL    HW150421  10.644   7.765   8.591 -1.7191  0.9264 -0.0185
15288SOL    HW250422  10.559   7.775   8.466 -0.9049 -0.9238 -0.7542
15289SOL     OW50423  10.589   1.287   5.265 -0.1986  0.0877  0.6705
15289SOL    HW150424  10.543   1.332   5.195 -1.0887 -1.0763  0.4834
15289SOL    HW250425  10.681   1.315   5.255 -0.4652  0.6310 -0.3819
15290SOL     OW50426   9.242   0.193   9.498  0.8111  0.6354  0.5446
15290SOL    HW150427   9.159   0.235   9.475  0.5111  0.7743  1.8309
15290SOL    HW250428   9.299   0.211   9.423  0.4030  2.5439  0.6436
15291SOL     OW50429   2.099  10.186  10.372 -0.3260 -0.2063  0.2263
15291SOL    HW150430   2.096  10.224  10.284 -1.4501 -0.3465  0.1934
15291SOL    HW250431   2.024  10.224  10.417 -1.0058 -1.7372  0.4533
15292SOL     OW50432   9.728  11.062   5.935 -0.5102  0.0307  0.2437
15292SOL    HW150433   9.651  11.075   5.880  1.1869  0.9350 -2.0761
15292SOL    HW250434   9.787  11.134   5.912  2.7708 -2.8382 -1.2854
15293SOL     OW50435   7.588  11.884   2.500  0.8266  0.1960 -0.4063
15293SOL    HW150436   7.633  11.809   2.540  0.0305 -1.1680 -1.9610
15293SOL    HW250437   7.603  11.956   2.562 -0.3510 -1.7470  2.3796
15294SOL     OW50438   9.380   7.383   5.819  0.1148 -0.1885 -0.1125
15294SOL    HW150439   9.366   7.436   5.740  1.4791  0.7806  0.2611
15294SOL    HW250440   9.420   7.303   5.787  0.7248  0.2268 -0.4157
15295SOL     OW50441   5.191   5.121   1.572  0.2192  0.7890 -0.1136
15295SOL    HW150442   5.107   5.075   1.572  2.1176 -3.1071  0.0550
15295SOL    HW250443   5.215   5.126   1.479 -0.7068  3.1946 -0.2928
15296SOL     OW50444   8.702   7.066   7.985 -0.1585 -0.3809  0.1992
15296SOL    HW150445   8.744   6.981   7.971  0.1358 -0.4698  1.5454
15296SOL    HW250446   8.768   7.130   7.960 -0.2760 -0.5229 -0.5250
15297SOL     OW50447  11.225   3.947   3.847 -0.1228 -0.6259 -0.2258
15297SOL    HW150448  11.130   3.963   3.850 -0.0436 -0.2270  0.2442
15297SOL    HW250449  11.251   3.939   3.939  0.7271  1.8072 -0.1905
15298SOL     OW50450   4.695   5.045   8.783  0.2752  0.0623  0.0314
15298SOL    HW150451   4.727   5.037   8.693 -0.1306  0.8362 -0.1928
15298SOL    HW250452   4.743   5.120   8.819  0.5936 -0.3760  0.5340
15299SOL     OW50453  11.545   6.139   7.255 -0.3847  0.3237  0.0524
15299SOL    HW150454  11.610   6.075   7.224 -2.8058 -2.1949 -0.2403
15299SOL    HW250455  11.513   6.181   7.176 -1.0922 -0.5340 -0.1394
15300SOL     OW50456   3.248   2.720   5.078  0.7467 -0.1076 -0.6224
15300SOL    HW150457   3.340   2.727   5.052  1.0014 -0.5502  0.1158
15300SOL    HW250458   3.205   2.676   5.005  1.5671 -1.9333 -0.0605
15301SOL     OW50459   4.411  11.549   7.681  0.5475 -0.2394  0.3036
15301SOL    HW150460   4.486  11.564   7.739  0.1074 -3.2699  1.7965
15301SOL    HW250461   4.419  11.458   7.654 -3.0279 -0.9340  1.1750
15302SOL     OW50462   4.981   2.242   8.445  0.0428  0.1877 -0.4382
15302SOL    HW150463   4.930   2.319   8.419  2.1986  3.5953  3.9839
15302SOL    HW250464   4.919   2.187   8.494 -0.6557  1.3967  0.0778
15303SOL     OW50465   3.682   6.573   2.176 -0.2010  0.2967 -0.0462
15303SOL    HW150466   3.659   6.665   2.183  0.2484  0.4057 -0.0431
15303SOL    HW250467   3.617   6.537   2.114  0.3763  0.8667 -0.9950
15304SOL     OW50468   0.241  11.188   7.833 -0.1251  0.5309  0.0847
15304SOL    HW150469   0.292  11.108   7.844  0.4595  1.0940  1.7761
15304SOL    HW250470   0.152  11.158   7.814  0.2984 -0.5000 -0.3014
15305SOL     OW50471   9.269   3.310   6.372 -0.0474  0.7306  0.7862
15305SOL    HW150472   9.356   3.270   6.370  0.4816  1.8678  0.4851
15305SOL    HW250473   9.216   3.254   6.315  0.7060  0.5335  0.2672
15306SOL     OW50474   0.304   4.885   1.104 -0.6508 -0.0145 -0.4497
15306SOL    HW150475   0.312   4.854   1.194  2.7231 -0.8622 -0.9193
15306SOL    HW250476   0.224   4.938   1.104 -0.5273  0.4250  3.1413
15307SOL     OW50477   9.011   1.746   2.636  0.5758  0.3156 -0.4753
15307SOL    HW150478   8.928   1.741   2.588 -0.1750 -0.0138  0.8033
15307SOL    HW250479   9.037   1.837   2.630  0.6309  0.2316 -1.7076
15308SOL     OW50480   5.582   1.070   1.569  0.2428 -0.0397  0.3936
15308SOL    HW150481   5.555   1.153   1.609 -3.0208  0.2596 -2.0747
15308SOL    HW250482   5.623   1.096   1.486 -2.4977 -0.8090 -1.3055
15309SOL     OW50483   4.028   4.497   1.846 -0.8923  0.1752  0.0671
15309SOL    HW150484   3.964   4.428   1.826 -1.3445  0.5052  0.3749
15309SOL    HW250485   4.113   4.457   1.826 -1.1734 -0.3648 -0.0617
15310SOL     OW50486   1.267  11.318   2.695  0.1495  0.7280  0.1210
15310SOL    HW150487   1.177  11.296   2.672 -0.4227  2.1049  0.9114
15310SOL    HW250488   1.309  11.233   2.710 -1.1613  0.0791  0.3035
15311SOL     OW50489  10.623   3.764   0.197 -0.2078  0.0684 -0.3341
15311SOL    HW150490  10.625   3.785   0.104  0.3987 -1.1942 -0.6319
15311SOL    HW250491  10.689   3.822   0.236 -0.4660  0.6027 -0.6737
15312SOL     OW50492   5.648   2.202   2.245  0.1468  0.1003 -0.3784
15312SOL    HW150493   5.579   2.232   2.186 -1.3043  1.6437  1.9575
15312SOL    HW250494   5.722   2.259   2.228 -0.3460  0.6939 -0.5526
15313SOL     OW50495   3.982   6.502   8.360 -0.2273 -0.6970  0.4266
15313SOL    HW150496   3.953   6.420   8.401 -0.7549 -0.0588  1.3721
15313SOL    HW250497   4.045   6.538   8.422  0.4814 -0.6817 -0.2841
15314SOL     OW50498  11.252   9.149  11.453  0.1316  0.3292  0.0112
15314SOL    HW150499  11.215   9.063  11.438 -0.0630  0.7003 -1.8240
15314SOL    HW250500  11.245   9.194  11.369  2.2612  1.3621  0.3116
15315SOL     OW50501   4.541   5.207   5.155 -0.1289 -0.1373 -0.2011
15315SOL    HW150502   4.508   5.192   5.244 -0.7882 -2.1020 -0.7073
15315SOL    HW250503   4.605   5.277   5.164  0.2080 -0.6432  1.9133
15316SOL     OW50504   4.419  11.029   7.192  0.3094  0.2231 -0.8547
15316SOL    HW150505   4.463  10.945   7.204  1.1075  0.5407 -1.4516
15316SOL    HW250506   4.335  11.007   7.151 -0.4475 -0.4512  0.9511
15317SOL     OW50507   8.526   0.157  11.823 -0.2372 -0.0301 -0.1130
15317SOL    HW150508   8.470   0.159  11.745 -0.5060 -1.2266  0.0322
15317SOL    HW250509   8.484   0.218  11.884 -0.1670  0.7168 -0.8047
15318SOL     OW50510  10.794  10.087   9.485 -0.4069 -0.0132  0.4449
15318SOL    HW150511  10.856  10.030   9.530  2.2243 -0.5171 -3.3535
15318SOL    HW250512  10.744  10.027   9.429 -1.9284  0.8328  0.8418
15319SOL     OW50513  10.472   6.071   6.943  0.3365 -0.2505  0.3888
15319SOL    HW150514  10.398   6.016   6.916 -1.2640  1.9087  0.1459
15319SOL    HW250515  10.527   6.012   6.996  0.3194 -2.8643 -2.2595
15320SOL     OW50516   9.698   4.250   7.763 -0.0739  0.4544  0.0203
15320SOL    HW150517   9.741   4.335   7.770 -1.4776  1.3631 -1.5103
15320SOL    HW250518   9.733   4.199   7.836  0.4425  2.4971  1.2933
15321SOL     OW50519   5.014   2.621   2.650  0.2190 -0.1551  0.2566
15321SOL    HW150520   5.094   2.674   2.660  0.4061 -0.6406  1.5575
15321SOL    HW250521   4.943   2.684   2.663  0.4448 -0.2845  2.6005
15322SOL     OW50522   4.718   9.358   1.003  0.3467 -0.1806  0.0648
15322SOL    HW150523   4.697   9.400   1.087 -0.5766 -0.3270 -0.0812
15322SOL    HW250524   4.754   9.428   0.950  0.1823  0.1002  0.3179
15323SOL     OW50525  10.470   3.246   8.188  0.5125  0.0674 -0.3217
15323SOL    HW150526  10.452   3.329   8.145  2.0740  0.0924 -0.9747
15323SOL    HW250527  10.451   3.180   8.121 -1.7021 -0.2318  0.4956
15324SOL     OW50528   4.972   1.633   4.518  0.1816  0.1843 -0.2371
15324SOL    HW150529   4.903   1.700   4.526  0.4863  0.4329  0.4455
15324SOL    HW250530   5.052   1.678   4.547 -0.1056 -1.3056  3.4851
15325SOL     OW50531   1.467  11.495   1.938  0.1238  0.1607  0.0708
15325SOL    HW150532   1.436  11.469   2.024  2.0291  0.3824  0.8769
15325SOL    HW250533   1.388  11.495   1.883 -1.1683  0.1825  1.8259
15326SOL     OW50534   2.155  11.210   0.890 -0.5588  0.4228  0.1147
15326SOL    HW150535   2.107  11.197   0.808  0.8634 -1.7334 -0.4529
15326SOL    HW250536   2.091  11.248   0.949 -1.8791  1.2136 -1.7232
15327SOL     OW50537   5.799  11.624   6.456  0.2189 -0.5594 -0.2339
15327SOL    HW150538   5.814  11.546   6.403 -0.0457 -1.2653  0.7078
15327SOL    HW250539   5.711  11.653   6.432  0.1070 -0.8668 -0.2026
15328SOL     OW50540   5.175   5.281   8.535 -0.3024 -0.1179  0.1250
15328SOL    HW150541   5.265   5.249   8.533 -0.8853 -1.9440  0.7982
15328SOL    HW250542   5.151   5.291   8.443  0.0230 -1.3534 -0.1099
15329SOL     OW50543   3.957   8.986   6.990 -0.8830 -0.5425 -0.6521
15329SOL    HW150544   3.981   8.893   6.999 -1.8396 -0.8513 -1.1350
15329SOL    HW250545   4.000   9.029   7.063  1.2668 -1.0249 -1.5560
15330SOL     OW50546  11.682   7.292   2.674 -0.1790  0.9305  0.5485
15330SOL    HW150547  11.755   7.307   2.733 -0.2304  2.0723  0.3327
15330SOL    HW250548  11.606   7.285   2.732 -0.0669  0.9006  0.6926
15331SOL     OW50549  11.998   8.870  11.669 -0.1264 -0.0493 -0.8654
15331SOL    HW150550  12.026   8.810  11.737 -1.5636  0.9840  0.7240
15331SOL    HW250551  11.968   8.948  11.716  0.5333  1.4532 -2.7756
15332SOL     OW50552   7.686   6.656   7.132  0.4831  0.2469 -0.0185
15332SOL    HW150553   7.644   6.645   7.047 -1.7505 -0.5556  1.1137
15332SOL    HW250554   7.710   6.748   7.135 -0.3903  0.5335 -1.1105
15333SOL     OW50555   9.953   1.539   1.087 -0.3391 -0.2924  0.1282
15333SOL    HW150556  10.037   1.507   1.055 -0.3673  0.8286 -1.1447
15333SOL    HW250557   9.907   1.460   1.118  0.5002 -1.1378 -0.7293
15334SOL     OW50558   0.586   9.773   1.011 -0.1774 -0.2591 -0.5456
15334SOL    HW150559   0.629   9.807   0.932  1.8450  0.1510  0.6634
15334SOL    HW250560   0.644   9.704   1.043  0.1072  0.8591  1.5923
15335SOL     OW50561  11.213  10.695   9.325 -0.0145 -0.2472 -0.0978
15335SOL    HW150562  11.259  10.771   9.289  0.7377  0.0597  1.4125
15335SOL    HW250563  11.271  10.663   9.394 -0.5248 -1.9447 -0.4142
15336SOL     OW50564   5.814   5.927   4.604 -0.0503 -0.0557  0.5355
15336SOL    HW150565   5.878   5.901   4.537 -0.0926  0.4164  0.3032
15336SOL    HW250566   5.744   5.863   4.597  0.0270 -0.1108  0.2469
15337SOL     OW50567   4.219   9.913   0.073  0.1673 -0.2054  0.2016
15337SOL    HW150568   4.176   9.830   0.055 -0.6811  0.4126 -0.7224
15337SOL    HW250569   4.268   9.933  -0.007  0.2468  0.2555  0.3616
15338SOL     OW50570   7.469   0.829   2.207 -0.2766 -0.5188  0.0107
15338SOL    HW150571   7.412   0.757   2.181  1.6264 -1.5121 -1.6793
15338SOL    HW250572   7.524   0.793   2.277  2.2989 -1.6577 -2.3966
15339SOL     OW50573   8.800   5.892   5.650 -0.0005 -0.1954 -0.0636
15339SOL    HW150574   8.783   5.830   5.579 -1.7559 -0.7103  0.7439
15339SOL    HW250575   8.836   5.970   5.606 -0.4458 -0.7245 -1.4272
15340SOL     OW50576   3.688   3.971   3.927 -0.1363  0.1894 -0.5139
15340SOL    HW150577   3.768   3.922   3.905  0.3581  0.6083  0.3311
15340SOL    HW250578   3.675   4.029   3.852  0.1514 -0.1295 -0.8165
15341SOL     OW50579  11.738   8.263   1.805 -0.1724 -0.5449 -0.0570
15341SOL    HW150580  11.707   8.251   1.895  1.3511  0.3749  0.6364
15341SOL    HW250581  11.706   8.186   1.758 -2.5621 -0.1682  0.8120
15342SOL     OW50582   9.326  10.373   2.631  0.4169  0.0783 -0.5306
15342SOL    HW150583   9.327  10.392   2.537  0.6193  3.0136 -0.0157
15342SOL    HW250584   9.235  10.390   2.657  0.7553  1.0109  0.0828
15343SOL     OW50585   9.319   1.105   2.370  0.5845  0.4341  0.1232
15343SOL    HW150586   9.271   1.140   2.445  3.1193 -1.5037  2.8530
15343SOL    HW250587   9.252   1.060   2.318 -1.0715  0.6913  1.9106
15344SOL     OW50588   4.805   0.328   9.327 -0.2978  0.2051  0.3117
15344SOL    HW150589   4.713   0.302   9.331 -0.3571  0.4736  3.5114
15344SOL    HW250590   4.812   0.401   9.389  1.8212  1.1573 -0.9372
15345SOL     OW50591   4.878  11.177   8.983 -0.5390  0.3369 -0.8152
15345SOL    HW150592   4.930  11.141   9.055 -0.2261  1.8038 -0.2885
15345SOL    HW250593   4.834  11.101   8.946  0.2412 -0.6222  0.1452
15346SOL     OW50594   5.317   1.971   8.601  0.0048  0.5108  0.0885
15346SOL    HW150595   5.291   2.056   8.565  1.6532  1.3805  0.8627
15346SOL    HW250596   5.388   1.941   8.545 -0.7492 -0.5154 -0.3489
15347SOL     OW50597  10.018   7.875   7.890 -0.3697 -0.3920  0.2471
15347SOL    HW150598  10.091   7.878   7.828  0.0778  0.2930  0.7949
15347SOL    HW250599  10.041   7.806   7.952  0.1054  0.2203  0.7642
15348SOL     OW50600  10.432   2.855   8.919  0.3600  0.3999  0.1685
15348SOL    HW150601  10.477   2.776   8.890  0.8078  0.4771  0.6388
15348SOL    HW250602  10.431   2.848   9.014 -1.1098  0.1366  0.1643
15349SOL     OW50603   1.425   6.118   3.901  0.8229  0.0375  0.2114
15349SOL    HW150604   1.477   6.038   3.912  0.3180 -0.3343 -0.0675
15349SOL    HW250605   1.353   6.092   3.844  1.2680  0.9657 -0.8134
15350SOL     OW50606   8.063   0.007   1.911  0.4778  0.0684  0.0077
15350SOL    HW150607   8.152  -0.011   1.880  0.9270  0.4335  1.0247
15350SOL    HW250608   8.074   0.079   1.973 -0.8745  1.9176 -1.7643
15351SOL     OW50609   6.230   8.412   1.923 -0.1219 -0.1336 -0.2797
15351SOL    HW150610   6.282   8.369   1.990  0.7173  1.1277 -0.1006
15351SOL    HW250611   6.147   8.432   1.966  0.7939  1.6363  0.7660
15352SOL     OW50612   3.540   9.814   2.863  0.2211  0.0959 -0.4291
15352SOL    HW150613   3.515   9.773   2.946  0.5139  0.9355  0.0916
15352SOL    HW250614   3.548   9.742   2.801 -0.5275 -0.4871  0.1434
15353SOL     OW50615  11.148  11.767   1.934  0.2477  0.4519 -0.7207
15353SOL    HW150616  11.117  11.708   2.002  1.1075  0.4250 -0.3478
15353SOL    HW250617  11.092  11.845   1.942  0.7194  0.6853  0.3994
15354SOL     OW50618  10.976   5.559   3.946  0.0171  0.1933  0.1896
15354SOL    HW150619  10.937   5.503   4.014 -0.6269  0.6408  0.1975
15354SOL    HW250620  11.070   5.555   3.964 -0.2142  1.3271  1.9257
15355SOL     OW50621   1.011   3.061   2.178 -0.4405 -0.0289  0.2291
15355SOL    HW150622   0.993   3.129   2.114  0.3002 -0.9832 -1.0291
15355SOL    HW250623   1.077   3.099   2.236  0.2369  0.2036 -0.6863
15356SOL     OW50624   5.704   5.155   8.309 -0.1521 -0.2896  0.3060
15356SOL    HW150625   5.681   5.232   8.360  0.6355 -0.1983  0.5413
15356SOL    HW250626   5.671   5.173   8.221  0.1599  0.3829  0.3211
15357SOL     OW50627   6.237   0.774   1.691  0.5061  0.2452 -0.0995
15357SOL    HW150628   6.261   0.702   1.749  2.1734 -1.1837 -2.4345
15357SOL    HW250629   6.304   0.841   1.706  1.8616 -0.7673 -1.4262
15358SOL     OW50630   0.364   3.656   4.123 -0.2012 -0.3706 -0.2120
15358SOL    HW150631   0.441   3.689   4.169  0.5181 -0.9063 -1.0154
15358SOL    HW250632   0.290   3.683   4.178  0.4139  1.6338 -0.2911
15359SOL     OW50633   1.569   6.496  11.928 -0.2595 -0.7116 -0.5211
15359SOL    HW150634   1.573   6.546  11.846  0.2810  0.4208  0.1723
15359SOL    HW250635   1.487   6.522  11.968  0.3592  0.2183  0.1883
15360SOL     OW50636   0.148   1.237  11.706  0.0293  0.2983  0.4001
15360SOL    HW150637   0.080   1.212  11.768  0.4203  1.8046  1.4927
15360SOL    HW250638   0.227   1.247  11.760  0.8698 -0.3407 -0.6725
15361SOL     OW50639   6.336  11.348   5.377  0.1915  0.4276 -0.0413
15361SOL    HW150640   6.265  11.304   5.422 -1.7246  1.1615 -2.1701
15361SOL    HW250641   6.340  11.435   5.417 -0.2241  0.4360 -0.0169
15362SOL     OW50642   3.925   0.501  11.882 -0.4506  0.3272  0.1565
15362SOL    HW150643   3.906   0.506  11.975 -0.6151 -2.4290  0.3479
15362SOL    HW250644   3.932   0.408  11.863  0.8612  0.8221 -2.3513
15363SOL     OW50645   4.332  11.596   2.578 -0.5287  0.3685  0.1915
15363SOL    HW150646   4.292  11.539   2.512  1.1387 -1.5258  0.7088
15363SOL    HW250647   4.406  11.637   2.534 -0.7879  0.9092  0.2566
15364SOL     OW50648   3.504   4.200   3.115  0.3432  0.2622  0.6183
15364SOL    HW150649   3.475   4.115   3.151  0.2955  0.5413  1.2507
15364SOL    HW250650   3.523   4.253   3.192  4.2480 -0.4380  0.3063
15365SOL     OW50651   3.664   9.097  11.549  0.3193  0.2332  0.3217
15365SOL    HW150652   3.640   9.008  11.525  0.4368  0.3739 -0.3208
15365SOL    HW250653   3.651   9.100  11.644 -1.1841 -0.0082  0.1468
15366SOL     OW50654   4.399   6.347   2.300  0.0551  0.5992 -0.3946
15366SOL    HW150655   4.312   6.369   2.268 -0.7206 -0.9307  0.5333
15366SOL    HW250656   4.431   6.280   2.240  1.6966  2.8420 -2.2071
15367SOL     OW50657   7.565  11.587   7.065 -0.7119 -0.2482 -0.1609
15367SOL    HW150658   7.520  11.593   7.149  1.1784 -0.6573  0.9363
15367SOL    HW250659   7.539  11.501   7.030 -3.3751  0.8856 -1.1959
15368SOL     OW50660   7.674   6.007   2.236  0.0753  0.5494  0.3472
15368SOL    HW150661   7.703   6.098   2.228  1.6254  0.1091  0.4391
15368SOL    HW250662   7.719   5.975   2.314  1.8110 -1.0369 -1.2006
15369SOL     OW50663   0.730   8.144   3.904  0.0558 -0.3245 -0.5416
15369SOL    HW150664   0.679   8.133   3.823 -1.0332 -2.3298  0.3455
15369SOL    HW250665   0.772   8.230   3.894  0.2477 -0.6412 -3.3763
15370SOL     OW50666   8.250   2.729   6.025  0.1067 -0.2106  0.2148
15370SOL    HW150667   8.304   2.760   5.952  1.4148 -0.0210  1.2338
15370SOL    HW250668   8.231   2.807   6.076 -1.4480 -0.2225 -0.2978
15371SOL     OW50669   2.825   3.724   0.092 -0.0271  0.0762  0.1324
15371SOL    HW150670   2.914   3.707   0.062  0.2285 -0.4409  1.1361
15371SOL    HW250671   2.834   3.741   0.186 -0.8572  1.0964  0.0434
15372SOL     OW50672  10.749  10.610   7.255 -0.4286 -0.1314 -0.0309
15372SOL    HW150673  10.696  10.531   7.268 -0.5131 -0.2446 -1.0182
15372SOL    HW250674  10.837  10.585   7.285 -0.7699 -0.1483  0.9852
15373SOL     OW50675   6.218  11.958  10.257  0.2644 -0.1865  0.4657
15373SOL    HW150676   6.128  11.971  10.285  0.9708  0.5505  2.5887
15373SOL    HW250677   6.214  11.953  10.162 -1.8755  0.8601  0.4636
15374SOL     OW50678  10.496   1.400   7.160 -0.1392 -0.0371  0.3883
15374SOL    HW150679  10.581   1.356   7.149 -0.4695 -0.3584 -1.0453
15374SOL    HW250680  10.485   1.451   7.080 -0.9938  0.5590  0.8687
15375SOL     OW50681   5.412   7.773  10.290 -0.2801  0.5987  0.4607
15375SOL    HW150682   5.326   7.791  10.253 -0.0283  0.4723 -0.1916
15375SOL    HW250683   5.460   7.727  10.221  1.2730  3.0878 -0.2862
15376SOL     OW50684   3.424  11.160   8.390  0.5171  0.1460 -0.1834
15376SOL    HW150685   3.477  11.100   8.338  0.9084  0.1952  0.1541
15376SOL    HW250686   3.461  11.247   8.371 -0.2826  0.3338 -0.9613
15377SOL     OW50687   3.588   5.097   8.714  0.7210  0.6075 -0.2139
15377SOL    HW150688   3.672   5.136   8.691  1.0368  0.5089  0.7364
15377SOL    HW250689   3.578   5.023   8.654  1.0830  0.9126 -0.6536
15378SOL     OW50690   2.845   0.713   3.447 -0.0075 -0.5976  0.2024
15378SOL    HW150691   2.889   0.714   3.532 -1.3076  0.1873  0.9133
15378SOL    HW250692   2.768   0.659   3.461  1.4074 -3.2228 -1.4368
15379SOL     OW50693   4.608   4.383  10.790  0.5294 -0.3509 -0.1300
15379SOL    HW150694   4.522   4.402  10.752  0.6256 -0.3241 -0.3379
15379SOL    HW250695   4.665   4.375  10.714  1.0243  1.1341  0.0477
15380SOL     OW50696   3.085   2.649   0.032  0.1182 -0.1136 -0.0053
15380SOL    HW150697   3.083   2.575   0.093  1.5556 -0.1509  0.0420
15380SOL    HW250698   3.109   2.724   0.086  0.8567 -0.0427 -0.4145
15381SOL     OW50699   2.790   1.286   2.599 -0.0866 -0.0751  0.6105
15381SOL    HW150700   2.701   1.254   2.584 -0.3194  1.4352 -1.6136
15381SOL    HW250701   2.837   1.266   2.518  1.1844  0.4800  1.1843
15382SOL     OW50702  10.003   0.043  10.632 -0.0689 -0.2785  0.3155
15382SOL    HW150703   9.915   0.062  10.666  0.3491  1.1347  0.6463
15382SOL    HW250704  10.035   0.127  10.599  0.5681 -1.0938 -1.2366
15383SOL     OW50705   5.907   4.692   7.330 -0.2314  0.8141  0.0497
15383SOL    HW150706   5.972   4.640   7.378 -0.7566  1.1299  1.1289
15383SOL    HW250707   5.959   4.746   7.270  0.3584 -0.5131 -0.6886
15384SOL     OW50708   5.713  10.773   8.004 -0.6422 -0.3281 -0.1272
15384SOL    HW150709   5.668  10.692   8.029 -0.5421 -0.8097 -1.4535
15384SOL    HW250710   5.760  10.751   7.924  2.1583  0.0997  1.2818
15385SOL     OW50711   2.178   8.332   8.585  0.1325 -0.0330  0.6294
15385SOL    HW150712   2.214   8.256   8.539  1.6666  0.3903  1.0762
15385SOL    HW250713   2.190   8.405   8.524 -1.8677 -0.1861 -0.0426
15386SOL     OW50714   0.053   6.230   3.950  0.3712  0.5984 -0.4148
15386SOL    HW150715  -0.013   6.163   3.967 -1.4849  2.3103 -0.4947
15386SOL    HW250716   0.120   6.215   4.017 -0.9627 -0.1133  0.8185
15387SOL     OW50717   0.431  11.004   6.012  0.1071 -0.0695 -0.6879
15387SOL    HW150718   0.381  10.957   5.945  0.6166 -1.0877 -0.3840
15387SOL    HW250719   0.378  11.081   6.032 -0.7244 -0.4757 -1.2623
15388SOL     OW50720   0.099   6.817   8.436 -0.3723  0.0101 -0.2230
15388SOL    HW150721   0.031   6.811   8.503  0.3297  2.0603  0.7541
15388SOL    HW250722   0.104   6.910   8.415  1.0197 -0.3016 -1.4522
15389SOL     OW50723  10.216   4.306   8.533  0.2448  0.2346  0.1317
15389SOL    HW150724  10.228   4.324   8.440 -0.3015 -0.7635 -0.1409
15389SOL    HW250725  10.124   4.283   8.542  0.2723  0.3970  0.9401
15390SOL     OW50726   1.483   1.361   4.279 -0.9924 -0.4489 -0.0391
15390SOL    HW150727   1.542   1.401   4.216 -0.3736 -1.2068  0.0401
15390SOL    HW250728   1.416   1.318   4.226 -0.8907 -0.4593 -0.1583
15391SOL     OW50729   3.976   9.876   5.989 -0.0553 -0.3467 -0.1400
15391SOL    HW150730   4.022   9.943   5.937  2.4046 -1.8562 -0.0673
15391SOL    HW250731   3.985   9.906   6.079 -2.9057  1.4309 -0.3210
15392SOL     OW50732   9.061   4.620   5.834  0.2370  0.4855  0.2684
15392SOL    HW150733   9.144   4.581   5.864 -0.0241  0.5535  1.1112
15392SOL    HW250734   8.994   4.561   5.867 -0.1447  1.4146  1.2363
15393SOL     OW50735  11.767   3.016   0.841  0.2707 -0.0432 -0.1440
15393SOL    HW150736  11.721   3.094   0.870 -1.1711 -0.8300 -0.2027
15393SOL    HW250737  11.860   3.040   0.841  0.0529  0.9843  1.9320
15394SOL     OW50738   2.998   2.988   5.964  0.4495 -0.0055 -0.8022
15394SOL    HW150739   3.016   2.908   5.915 -0.8847  0.4618 -2.1374
15394SOL    HW250740   3.044   3.056   5.914  0.3983  0.2637 -0.4833
15395SOL     OW50741  11.345   2.645   4.423  0.3916 -0.2084 -0.4101
15395SOL    HW150742  11.337   2.652   4.328  1.0301 -0.2790 -0.4737
15395SOL    HW250743  11.431   2.682   4.442  0.2384 -0.1355  0.1491
15396SOL     OW50744  10.003  10.404   4.759  0.6594  0.4248  0.3196
15396SOL    HW150745  10.020  10.462   4.834  2.2347 -0.3009  0.5592
15396SOL    HW250746   9.992  10.463   4.685  0.8680  1.0795  0.8000
15397SOL     OW50747   7.891  11.387   2.560 -0.2013 -0.2320 -0.7437
15397SOL    HW150748   7.805  11.383   2.518 -0.1861  1.0950 -0.9409
15397SOL    HW250749   7.947  11.430   2.495  0.5624 -0.8615 -0.5187
15398SOL     OW50750   6.280   2.868   8.854 -0.1105 -0.1398 -0.5513
15398SOL    HW150751   6.186   2.847   8.851  0.2485 -1.7183 -2.1850
15398SOL    HW250752   6.294   2.897   8.944 -1.6131 -2.8462  0.7014
15399SOL     OW50753   0.830   8.429   2.979 -0.2013 -0.4413 -0.1583
15399SOL    HW150754   0.909   8.380   2.998  0.1270 -0.3845 -1.2834
15399SOL    HW250755   0.839   8.456   2.887 -0.1825  2.0647  0.4884
15400SOL     OW50756   4.742   2.645   6.116 -0.3412  1.1062 -0.1032
15400SOL    HW150757   4.685   2.570   6.097 -0.6396  1.5251 -0.9079
15400SOL    HW250758   4.829   2.616   6.090 -0.2959  0.7055  0.4823
15401SOL     OW50759   3.707   8.639   2.255 -0.3560 -0.2926  0.2607
15401SOL    HW150760   3.705   8.575   2.326 -0.1617  0.4736  0.9609
15401SOL    HW250761   3.758   8.596   2.186  0.7669 -0.4569  1.1648
15402SOL     OW50762   5.531   2.643   5.300 -0.1999 -0.1602 -0.2394
15402SOL    HW150763   5.544   2.729   5.341  3.4008 -0.6248 -0.0920
15402SOL    HW250764   5.554   2.581   5.369  0.0283 -1.1641 -1.2014
15403SOL     OW50765   8.746   1.736  10.552 -0.0589  0.0164 -0.1887
15403SOL    HW150766   8.662   1.771  10.582  0.3981  2.2462 -1.3318
15403SOL    HW250767   8.732   1.641  10.547 -2.1636  0.2271  0.6388
15404SOL     OW50768   4.417   0.139   4.527 -1.3504 -0.2014  0.2161
15404SOL    HW150769   4.501   0.100   4.552 -1.4701 -0.5089  0.1413
15404SOL    HW250770   4.426   0.158   4.433 -1.6004 -0.8448  0.0588
15405SOL     OW50771   9.569   4.340  11.325 -0.2106 -0.4767 -0.1282
15405SOL    HW150772   9.476   4.320  11.341 -1.2551  3.2133 -0.6666
15405SOL    HW250773   9.594   4.281  11.253 -1.5574 -2.7153  1.1183
15406SOL     OW50774   0.537  10.627   8.145  0.5022 -0.3713 -0.0991
15406SOL    HW150775   0.444  10.645   8.155  0.7333  0.8300 -0.0154
15406SOL    HW250776   0.549  10.610   8.051 -0.0773 -2.3159  0.1343
15407SOL     OW50777  11.771   5.773   9.912  0.1980  0.0195  0.3551
15407SOL    HW150778  11.691   5.753   9.960  1.0354 -1.9681  1.0133
15407SOL    HW250779  11.808   5.849   9.957 -0.8545  0.4187  0.5710
15408SOL     OW50780   4.814   7.914   4.408  0.1841 -0.5932  0.0924
15408SOL    HW150781   4.740   7.971   4.385  1.5116  0.2208 -2.6137
15408SOL    HW250782   4.818   7.917   4.503 -1.2635  1.9436  0.1777
15409SOL     OW50783   0.594   0.657   1.469 -0.0597 -0.0805  0.4149
15409SOL    HW150784   0.677   0.691   1.437 -0.1188 -0.2472  0.0704
15409SOL    HW250785   0.533   0.670   1.396 -0.5679  0.8910  0.9995
15410SOL     OW50786   7.771   1.266   0.557 -0.0094  0.2982  0.3802
15410SOL    HW150787   7.719   1.335   0.516 -0.8151 -1.6863 -2.2178
15410SOL    HW250788   7.785   1.202   0.488  2.5655 -1.1643  2.0813
15411SOL     OW50789   9.015   4.882   0.771 -0.1151  0.4175  0.4232
15411SOL    HW150790   8.939   4.914   0.724  0.2129  2.0092  0.9106
15411SOL    HW250791   9.080   4.952   0.764  0.4995  0.0504  1.8978
15412SOL     OW50792   0.601  10.385   6.404 -0.1191 -0.0429 -0.6195
15412SOL    HW150793   0.514  10.394   6.443 -0.2736  1.3801 -1.2180
15412SOL    HW250794   0.660  10.428   6.466 -0.2582  1.5125 -1.5005
15413SOL     OW50795   0.049   1.728   4.444  0.4290 -0.0928 -0.2270
15413SOL    HW150796   0.054   1.814   4.485  2.2880  0.4527 -1.4805
15413SOL    HW250797   0.138   1.708   4.416 -0.0404 -2.2209 -0.4432
15414SOL     OW50798   8.975   2.975   5.091 -0.3357 -0.5321 -0.2525
15414SOL    HW150799   8.888   2.996   5.057  0.0904  2.1643  0.1275
15414SOL    HW250800   9.035   3.012   5.027  0.5615 -1.8188 -0.1925
15415SOL     OW50801   0.297   5.303   1.993 -0.0518  0.2135 -0.1366
15415SOL    HW150802   0.280   5.335   2.082 -2.0742 -2.9662  0.8236
15415SOL    HW250803   0.219   5.327   1.943 -1.6735 -2.8835  0.6387
15416SOL     OW50804   7.210  11.811   7.286  0.1211 -0.0598  0.0623
15416SOL    HW150805   7.292  11.762   7.291  0.0296 -0.4426 -1.5131
15416SOL    HW250806   7.167  11.795   7.370  1.2370 -0.5864  0.5593
15417SOL     OW50807   2.999   8.750  11.967  0.0004 -1.1019  0.5888
15417SOL    HW150808   3.061   8.801  11.916  0.4485 -1.1558  1.0707
15417SOL    HW250809   2.913   8.773  11.931  0.1538  0.3529  1.1019
15418SOL     OW50810   0.621  10.056   4.433 -0.2973 -0.6779  0.0926
15418SOL    HW150811   0.585  10.097   4.512 -1.4279  1.4959 -1.4547
15418SOL    HW250812   0.706  10.097   4.420 -0.7472  0.0489 -0.6023
15419SOL     OW50813   9.858   1.761   0.516 -1.2022  0.0226 -0.6720
15419SOL    HW150814   9.880   1.731   0.427  1.2000  1.5969 -0.7014
15419SOL    HW250815   9.779   1.712   0.538 -1.2583 -1.2572 -3.2365
15420SOL     OW50816  10.324   2.654   5.600  0.0031 -0.3717  0.2120
15420SOL    HW150817  10.403   2.638   5.652  0.9316  2.8553 -0.0187
15420SOL    HW250818  10.291   2.738   5.632 -1.7517 -0.2855 -1.6326
15421SOL     OW50819   5.986  10.159   2.104  0.3837  0.2479  0.1109
15421SOL    HW150820   6.002  10.084   2.047  1.5378  1.1449 -0.7956
15421SOL    HW250821   5.941  10.122   2.180 -0.2444 -1.1463 -0.8894
15422SOL     OW50822   7.417   4.691   0.770  0.7166  0.7099 -0.2503
15422SOL    HW150823   7.346   4.627   0.778  2.9405 -1.9568 -0.1885
15422SOL    HW250824   7.460   4.668   0.687  1.4197  2.3628 -0.3802
15423SOL     OW50825   5.902  10.727   2.722 -0.4435 -0.3268  0.4624
15423SOL    HW150826   5.919  10.759   2.811  0.1210  1.3976 -0.2213
15423SOL    HW250827   5.976  10.668   2.703  0.3206  0.5640  0.5717
15424SOL     OW50828   4.176   3.532  10.836 -0.4449 -0.1964 -0.2683
15424SOL    HW150829   4.261   3.552  10.875  0.9747 -3.6999 -1.2055
15424SOL    HW250830   4.117   3.517  10.910  0.0013  1.1323  0.3873
15425SOL     OW50831  10.716  10.826   2.349 -0.3108  0.0343 -0.2804
15425SOL    HW150832  10.762  10.748   2.379  0.8513 -0.0862 -2.2041
15425SOL    HW250833  10.775  10.867   2.286 -1.2527  2.0149  0.0295
15426SOL     OW50834   9.283   9.375   7.997  0.4484 -0.5233  0.8084
15426SOL    HW150835   9.311   9.465   7.981  1.2078 -0.3904  2.6361
15426SOL    HW250836   9.191   9.383   8.023  0.2813 -0.3678  0.1724
15427SOL     OW50837   1.080   5.311  10.857  0.3616  0.1173  0.1875
15427SOL    HW150838   1.153   5.298  10.919  0.1072 -0.4869  0.3612
15427SOL    HW250839   1.016   5.361  10.908  1.2573  2.0187 -0.4218
15428SOL     OW50840  12.030   7.217   3.740 -0.0123 -0.6571  0.2847
15428SOL    HW150841  12.065   7.227   3.651 -0.8902 -0.5020 -0.0536
15428SOL    HW250842  12.086   7.273   3.794 -0.0481 -0.0057 -0.3274
15429SOL     OW50843  10.606   8.218   7.810 -0.6160 -0.0538 -0.1792
15429SOL    HW150844  10.616   8.251   7.899  1.2455  0.4424 -0.5391
15429SOL    HW250845  10.566   8.131   7.821 -0.7851  0.1701  1.0970
15430SOL     OW50846   7.847   2.976   9.104 -0.3662  0.3212  0.2968
15430SOL    HW150847   7.835   2.928   9.187  1.1905 -0.2249  0.2415
15430SOL    HW250848   7.847   3.068   9.130  0.9397  0.1436  1.0782
15431SOL     OW50849   1.389   2.794   2.559  0.6617 -0.1439  0.3042
15431SOL    HW150850   1.433   2.784   2.643  1.4284 -0.2240 -0.0936
15431SOL    HW250851   1.337   2.874   2.568 -0.0049 -0.6635  1.1596
15432SOL     OW50852   3.091   5.424   8.191  0.1069 -0.2894 -0.5872
15432SOL    HW150853   3.019   5.477   8.225  0.7017  0.4135 -0.4051
15432SOL    HW250854   3.106   5.358   8.259  0.2569  0.1424 -0.2031
15433SOL     OW50855   8.141   9.653   0.944  0.0946 -0.1047  0.0409
15433SOL    HW150856   8.237   9.645   0.950  0.3167  1.9699  0.1014
15433SOL    HW250857   8.111   9.565   0.922  2.0872 -0.6487 -0.7518
15434SOL     OW50858   7.440   0.389  11.674 -0.4086 -0.5509 -0.3075
15434SOL    HW150859   7.456   0.297  11.692  0.8480 -0.1349  0.8682
15434SOL    HW250860   7.519   0.418  11.627  0.2884  0.4372  1.3703
15435SOL     OW50861   9.597   9.878   6.117 -0.5842 -0.0255  0.1001
15435SOL    HW150862   9.688   9.852   6.102  0.0268  2.0130 -0.0788
15435SOL    HW250863   9.556   9.801   6.155  1.0104 -1.2567 -0.5531
15436SOL     OW50864  10.282   7.392   7.872  0.1046  0.5376  0.3274
15436SOL    HW150865  10.304   7.485   7.865  1.3349  0.2121 -0.3419
15436SOL    HW250866  10.277   7.376   7.966 -2.3379  1.7555  0.4758
15437SOL     OW50867   9.164   1.733   4.607  0.5946  0.2286  0.2929
15437SOL    HW150868   9.070   1.754   4.601  0.6202  0.8685  1.7421
15437SOL    HW250869   9.195   1.785   4.680  2.9972  3.1106 -2.4845
15438SOL     OW50870  10.822   6.774  11.267  0.2779 -0.3991  0.3905
15438SOL    HW150871  10.727   6.768  11.275  0.0976  0.1435 -1.0736
15438SOL    HW250872  10.840   6.867  11.257  0.9308 -0.5294  0.2639
15439SOL     OW50873   9.756   4.376   9.559  0.0396  0.0044 -0.0294
15439SOL    HW150874   9.841   4.381   9.516 -0.1042  2.3412 -0.1811
15439SOL    HW250875   9.770   4.420   9.644 -0.6881 -0.8136  0.5312
15440SOL     OW50876   0.385  11.897   2.314  0.0748 -0.2786  0.5392
15440SOL    HW150877   0.473  11.859   2.310  0.0423 -0.2744 -2.2476
15440SOL    HW250878   0.326  11.822   2.306 -0.2778 -0.3586  3.0786
15441SOL     OW50879  10.833  11.904  10.815 -0.0052 -0.2740 -0.1739
15441SOL    HW150880  10.852  11.968  10.746 -1.1176 -0.0220 -0.2637
15441SOL    HW250881  10.739  11.911  10.829  0.1826 -0.3930  1.3091
15442SOL     OW50882   6.251   5.347   8.899  0.3387  0.1135 -0.5563
15442SOL    HW150883   6.197   5.426   8.900 -1.4565 -1.0832 -0.2229
15442SOL    HW250884   6.256   5.322   8.806  0.1503  0.1049 -0.5638
15443SOL     OW50885   4.361   2.877   6.930  0.1327 -0.2408  0.6296
15443SOL    HW150886   4.396   2.934   6.998 -0.4143  0.1250  0.6122
15443SOL    HW250887   4.397   2.912   6.848 -0.2198  0.1045  0.6168
15444SOL     OW50888   4.916   8.133   8.485  0.1451 -0.1923 -0.1310
15444SOL    HW150889   4.996   8.134   8.433  0.0554  2.8261 -0.3556
15444SOL    HW250890   4.945   8.158   8.573 -0.3104 -0.9771  0.2516
15445SOL     OW50891  12.027   4.170   6.570  0.2740  0.2196 -0.3778
15445SOL    HW150892  12.056   4.127   6.489  1.7372  1.4012 -0.5217
15445SOL    HW250893  12.078   4.250   6.575 -1.1871  1.1463  0.7464
15446SOL     OW50894   3.658   0.046   9.427  1.0576 -0.2142 -0.2631
15446SOL    HW150895   3.622   0.098   9.355 -0.0733 -1.3289 -0.5521
15446SOL    HW250896   3.647   0.101   9.504 -0.0242  0.0377 -0.5721
15447SOL     OW50897   6.000   6.546   5.326  0.2010 -0.1369 -0.6302
15447SOL    HW150898   5.964   6.473   5.377  0.1565  1.1331  1.2877
15447SOL    HW250899   5.938   6.558   5.254  0.7204 -2.5624 -1.5530
15448SOL     OW50900  12.022   8.199   7.642 -0.4297 -0.0890 -0.6579
15448SOL    HW150901  12.109   8.218   7.609  0.0447 -2.0299 -0.6262
15448SOL    HW250902  12.036   8.147   7.721 -1.6020  1.7781  0.8819
15449SOL     OW50903   5.732   2.359   9.468  0.4639  0.2250  0.1246
15449SOL    HW150904   5.789   2.390   9.397  0.1081  1.5723  0.4058
15449SOL    HW250905   5.775   2.388   9.548 -0.4093  0.9243  0.3525
15450SOL     OW50906   6.486   1.750   0.782 -0.0277 -0.2412  0.7726
15450SOL    HW150907   6.566   1.753   0.835  1.1174  1.0279 -0.9274
15450SOL    HW250908   6.482   1.661   0.748  1.1614 -0.0700  0.1648
15451SOL     OW50909   0.549   0.186   6.688 -0.3665  0.1168 -0.0952
15451SOL    HW150910   0.479   0.138   6.733  0.5479  0.6718  2.0529
15451SOL    HW250911   0.558   0.142   6.603 -0.3731 -2.7864  1.2743
15452SOL     OW50912   6.544   2.798   8.163 -0.0888 -0.1149  0.3205
15452SOL    HW150913   6.494   2.734   8.113 -1.1000  1.5960 -0.9987
15452SOL    HW250914   6.596   2.746   8.224 -2.8324 -2.0710  1.2064
15453SOL     OW50915   4.977   8.070  11.884  0.7840  0.0130  0.5725
15453SOL    HW150916   5.002   8.125  11.810  1.1762 -0.3053  0.4645
15453SOL    HW250917   4.916   8.124  11.934  1.3893  0.6580  0.6343
15454SOL     OW50918   6.499   5.230   9.088 -0.1832 -0.2762 -0.7085
15454SOL    HW150919   6.529   5.260   9.002 -0.7921  0.8845 -0.5374
15454SOL    HW250920   6.408   5.258   9.092  0.3275  1.3292  1.0244
15455SOL     OW50921  10.668   3.056   9.186  0.0487 -0.0153 -0.1067
15455SOL    HW150922  10.718   3.127   9.145  1.1433 -0.6701  0.0256
15455SOL    HW250923  10.719   2.977   9.166 -0.2168 -0.5405  1.2056
15456SOL     OW50924   7.357   3.502   7.706  0.2364 -0.0137  0.0209
15456SOL    HW150925   7.442   3.545   7.692  0.8881 -1.3008 -0.1307
15456SOL    HW250926   7.296   3.550   7.649  1.1081  0.1756 -0.7833
15457SOL     OW50927   1.151   2.387   6.094 -0.1238 -0.5510  0.3460
15457SOL    HW150928   1.099   2.308   6.111 -0.0629 -0.9220 -1.0449
15457SOL    HW250929   1.113   2.454   6.151 -0.9734 -1.2738  0.6515
15458SOL     OW50930  11.008   8.735   6.554 -0.4837  0.1957  0.3279
15458SOL    HW150931  10.932   8.685   6.582 -0.3701  0.0240  0.3336
15458SOL    HW250932  11.074   8.719   6.622  0.3826 -1.6045 -0.8457
15459SOL     OW50933  11.039   7.681   3.174  0.5246 -0.5609 -0.6016
15459SOL    HW150934  11.063   7.724   3.093  0.6635 -0.7878 -0.6837
15459SOL    HW250935  11.001   7.750   3.228 -2.2008 -0.9362 -1.8865
15460SOL     OW50936   9.426   7.366   8.098 -0.2588  0.0914  0.1227
15460SOL    HW150937   9.490   7.433   8.122 -0.4420  0.0138  0.8631
15460SOL    HW250938   9.478   7.292   8.066 -0.0124  0.2841  0.0827
15461SOL     OW50939   2.212   0.444   7.007  0.2170 -0.5147 -0.4178
15461SOL    HW150940   2.228   0.502   6.933  1.0665 -1.5287 -1.0501
15461SOL    HW250941   2.251   0.490   7.082  0.3553  0.0060 -0.8034
15462SOL     OW50942   1.649   6.508   5.966 -0.7215  0.2653 -0.4633
15462SOL    HW150943   1.603   6.474   6.042 -0.0473 -0.2349 -0.2697
15462SOL    HW250944   1.738   6.524   5.997 -1.2439  3.2937 -0.2295
15463SOL     OW50945  10.177   4.028   6.214 -0.0936 -0.1222  0.3997
15463SOL    HW150946  10.176   4.082   6.293  1.7939  3.4962 -1.7678
15463SOL    HW250947  10.269   4.030   6.185 -0.8570 -0.5614 -2.2972
15464SOL     OW50948   9.539   9.046   2.902 -0.0961  0.1570  0.7704
15464SOL    HW150949   9.556   9.012   2.990 -3.8492 -0.5679  1.3712
15464SOL    HW250950   9.514   9.137   2.916 -1.1045 -0.0729  0.5601
15465SOL     OW50951  11.880   5.176   4.359 -0.2454  0.0584  0.4454
15465SOL    HW150952  11.882   5.126   4.277 -1.1218 -0.0676  0.4928
15465SOL    HW250953  11.933   5.253   4.340 -2.0815  1.0783 -0.9803
15466SOL     OW50954   3.746   3.035   2.299 -0.0221 -0.0753  0.2647
15466SOL    HW150955   3.733   3.036   2.394  2.7175  0.1018  0.7017
15466SOL    HW250956   3.716   3.121   2.270  0.9887  0.6545  1.2860
15467SOL     OW50957  10.164   2.143   3.741  0.3865  0.1139 -0.5616
15467SOL    HW150958  10.150   2.123   3.649 -1.4939  0.2558 -0.3662
15467SOL    HW250959  10.093   2.097   3.787  1.1882  0.1650  0.7924
15468SOL     OW50960   2.801   7.007   3.809 -0.3297  0.5635  0.8523
15468SOL    HW150961   2.768   7.014   3.899  0.1048  0.4766  1.0200
15468SOL    HW250962   2.891   6.977   3.819  0.7172  3.3256  0.5486
15469SOL     OW50963   5.241   7.312   3.050 -0.5215  0.2150 -0.2050
15469SOL    HW150964   5.232   7.372   2.976 -1.2790 -0.9637 -1.0902
15469SOL    HW250965   5.186   7.351   3.118  0.2955  1.3829 -0.1818
15470SOL     OW50966  11.625   3.136   7.498 -0.1849  0.0742 -0.2699
15470SOL    HW150967  11.688   3.133   7.426 -1.0438 -0.6723 -1.0087
15470SOL    HW250968  11.592   3.047   7.506 -0.1869  0.1715  0.9853
15471SOL     OW50969   7.852   7.881   6.383 -0.1225 -0.0620  0.0555
15471SOL    HW150970   7.842   7.956   6.324 -1.1776 -0.5963 -0.4676
15471SOL    HW250971   7.907   7.820   6.333  2.9030  1.3222  1.4509
15472SOL     OW50972   8.426  11.740   3.410 -0.2402  0.1132 -0.3140
15472SOL    HW150973   8.519  11.755   3.397 -0.6192  2.0411 -1.0751
15472SOL    HW250974   8.400  11.805   3.476 -1.2710  0.4450 -1.0165
15473SOL     OW50975  11.090   9.582   4.875  0.0334 -0.5433  0.1295
15473SOL    HW150976  11.007   9.597   4.830 -0.0822 -0.2871  0.4244
15473SOL    HW250977  11.106   9.662   4.925  1.0804 -0.0909 -0.8846
15474SOL     OW50978  10.390  10.048   8.165  0.0709  0.1052 -0.1862
15474SOL    HW150979  10.419  10.136   8.141 -1.3924  0.5176 -0.5693
15474SOL    HW250980  10.331  10.022   8.094  1.0021 -1.4892 -0.4232
15475SOL     OW50981  11.437   8.960   3.223 -0.0708  0.0506 -0.5026
15475SOL    HW150982  11.423   8.922   3.309  1.7663 -1.5120 -0.8149
15475SOL    HW250983  11.441   9.055   3.238  1.4642 -0.2569  1.3777
15476SOL     OW50984   3.928   4.762   1.823  0.1502  0.1616 -0.2095
15476SOL    HW150985   3.974   4.679   1.838  1.7631  0.8436 -1.0528
15476SOL    HW250986   3.947   4.815   1.901 -1.4832 -0.4808  0.6606
15477SOL     OW50987   5.993   8.035   9.249 -0.5562  0.6932  0.2331
15477SOL    HW150988   5.978   7.942   9.232  0.8067  0.7534 -1.6202
15477SOL    HW250989   6.038   8.067   9.171 -0.0147  2.6765  1.2810
15478SOL     OW50990   1.943   7.660  11.554  0.0388 -0.2888  0.1533
15478SOL    HW150991   1.856   7.700  11.555  0.6119  1.0861  1.8890
15478SOL    HW250992   2.002   7.732  11.531  0.8012 -0.9653 -0.0382
15479SOL     OW50993   7.575   1.740   5.040 -0.2307  0.1070  0.2149
15479SOL    HW150994   7.579   1.675   4.970 -0.8253 -0.0277  0.2958
15479SOL    HW250995   7.651   1.796   5.025  0.7928 -1.1206  0.6699
15480SOL     OW50996   9.291   2.878   1.190 -0.1650  0.2004  0.0639
15480SOL    HW150997   9.278   2.948   1.253  1.2387  0.7643 -0.2118
15480SOL    HW250998   9.322   2.924   1.111 -0.2498 -0.6366 -0.4623
15481SOL     OW50999   2.453   8.518   1.006 -0.4890  0.1924 -0.6848
15481SOL    HW151000   2.503   8.552   1.080  2.6651 -1.3645 -1.9346
15481SOL    HW251001   2.394   8.590   0.982  2.5195  2.9973 -0.3382
15482SOL     OW51002   0.624  11.747   2.042 -0.1033  0.2721  0.3650
15482SOL    HW151003   0.697  11.792   2.000  1.1110 -1.3770  0.5878
15482SOL    HW251004   0.549  11.767   1.988  1.1444 -0.6084 -1.8261
15483SOL     OW51005  10.666   7.657   6.596 -0.3742 -0.3523 -0.2037
15483SOL    HW151006  10.595   7.720   6.609 -0.2130 -0.3457  0.7493
15483SOL    HW251007  10.626   7.583   6.553 -0.4747  0.5862 -1.7953
15484SOL     OW51008   3.930  10.129   8.481 -0.1302  0.2200 -0.0285
15484SOL    HW151009   3.892  10.045   8.455  0.8446  0.1338 -1.2577
15484SOL    HW251010   4.020  10.108   8.505  0.3878  1.0304 -1.1912
15485SOL     OW51011   9.102   4.963   6.741  0.5189 -0.2205 -0.2329
15485SOL    HW151012   9.047   4.942   6.666  0.1205 -2.2694  0.5620
15485SOL    HW251013   9.166   5.025   6.708  0.2848 -0.9967 -2.2397
15486SOL     OW51014   6.151   0.363  10.753 -0.1252  0.5504 -0.2038
15486SOL    HW151015   6.211   0.398  10.819 -0.8813 -0.1611  0.9158
15486SOL    HW251016   6.174   0.270  10.748  0.8397  0.8449 -2.0017
15487SOL     OW51017   9.644   3.710   5.150 -0.1436 -0.0005 -0.0415
15487SOL    HW151018   9.730   3.724   5.109  0.0323  0.0043  0.3258
15487SOL    HW251019   9.648   3.619   5.182  0.4785  0.6193  1.7536
15488SOL     OW51020   9.064   8.615   5.584 -0.3156  0.6591 -0.1337
15488SOL    HW151021   9.059   8.644   5.493 -1.2662  1.4539  0.1658
15488SOL    HW251022   8.989   8.655   5.627 -0.7857 -0.9703  0.6593
15489SOL     OW51023   4.225   8.945   3.523  0.9259  0.0569 -0.6081
15489SOL    HW151024   4.248   8.895   3.445  0.6441 -1.2865  0.1438
15489SOL    HW251025   4.135   8.919   3.542  0.5657  1.3051 -0.5194
15490SOL     OW51026   0.888   1.989  10.651  0.2602  0.2740  0.1092
15490SOL    HW151027   0.858   1.901  10.673 -0.2944  0.3687 -0.2581
15490SOL    HW251028   0.876   1.996  10.556 -1.5283  1.4176  0.3703
15491SOL     OW51029   4.745  12.037   1.874 -0.4983  0.4461 -0.1286
15491SOL    HW151030   4.784  12.010   1.791 -2.5793  1.2628 -1.4414
15491SOL    HW251031   4.802  12.107   1.906  1.5314 -1.2897  0.2789
15492SOL     OW51032   9.768   2.140   4.249  0.3151  0.3191  0.3205
15492SOL    HW151033   9.706   2.093   4.193 -1.9294  1.8723  1.3763
15492SOL    HW251034   9.818   2.195   4.189 -1.1466  0.9659 -0.3605
15493SOL     OW51035   1.599  12.089   0.313  0.1738  0.1789  0.4651
15493SOL    HW151036   1.561  12.040   0.385 -0.6340  0.1041  0.0004
15493SOL    HW251037   1.603  12.027   0.240  0.2771  0.4580  0.2286
15494SOL     OW51038   3.270   1.124   7.714 -0.5208 -0.1286  0.1222
15494SOL    HW151039   3.234   1.047   7.757 -1.1059 -0.7109 -1.3488
15494SOL    HW251040   3.280   1.099   7.622  0.0433  1.2825 -0.2414
15495SOL     OW51041   0.441  11.927   9.033  0.1868 -0.5470  0.2743
15495SOL    HW151042   0.427  11.948   9.126 -0.4541  1.4483 -0.2375
15495SOL    HW251043   0.389  11.848   9.018 -0.7422 -0.1543  1.3136
15496SOL     OW51044   5.948  10.050  11.805 -0.0821 -0.3443 -0.0387
15496SOL    HW151045   5.955   9.955  11.818 -0.2119 -0.6400 -1.8143
15496SOL    HW251046   5.895  10.080  11.879 -0.5125 -1.7447  0.2650
15497SOL     OW51047   1.435   4.747  10.965 -0.1525  0.5334  0.3991
15497SOL    HW151048   1.428   4.676  11.030  0.6558  0.4532  0.4188
15497SOL    HW251049   1.397   4.823  11.009 -1.5955 -0.0204  0.1460
15498SOL     OW51050   2.180   3.832   9.999 -0.1831 -0.2843 -0.5614
15498SOL    HW151051   2.217   3.920   9.997  0.1185 -0.4002 -0.3507
15498SOL    HW251052   2.225   3.789  10.072 -1.8116  0.0376  0.7000
15499SOL     OW51053   7.007   8.233   3.516 -0.1093  0.3587 -0.3562
15499SOL    HW151054   6.919   8.265   3.533  0.0976  0.0668  1.5422
15499SOL    HW251055   7.057   8.310   3.489 -0.5833  0.8396  0.1235
15500SOL     OW51056  10.386   3.181   3.893  0.4829 -0.3525  0.3108
15500SOL    HW151057  10.424   3.147   3.974  2.2175  1.5968  0.4076
15500SOL    HW251058  10.435   3.137   3.823  0.7890 -0.1368  0.3861
15501SOL     OW51059   3.608   9.440   1.926  0.3186  0.0738  0.1596
15501SOL    HW151060   3.591   9.523   1.882  1.0459 -0.7211 -1.7610
15501SOL    HW251061   3.704   9.433   1.926  0.2481 -1.0111 -0.2382
15502SOL     OW51062   9.446   7.760   4.160  0.7996  0.2428  0.2608
15502SOL    HW151063   9.396   7.842   4.166  1.9857  1.1685 -1.5268
15502SOL    HW251064   9.533   7.787   4.132  1.1171 -1.6602 -0.7771
15503SOL     OW51065  10.975   6.903   2.440  0.3947 -0.4618  0.2402
15503SOL    HW151066  11.013   6.912   2.528 -1.6626 -1.3227  1.2753
15503SOL    HW251067  10.955   6.809   2.433 -0.2344 -0.2543 -0.8318
15504SOL     OW51068   3.194   7.593   3.243 -0.2401  0.0126  0.2307
15504SOL    HW151069   3.147   7.675   3.260  1.7399  1.1839  0.3820
15504SOL    HW251070   3.255   7.615   3.173 -0.1901 -1.5694 -0.2453
15505SOL     OW51071   9.185   8.013   9.389  0.2819  0.4453  0.4142
15505SOL    HW151072   9.092   8.033   9.385  0.2380  0.2085  0.1943
15505SOL    HW251073   9.202   7.963   9.309  0.2085 -1.1422  1.3547
15506SOL     OW51074   3.630   1.125   4.095 -0.0475 -0.3294 -0.2387
15506SOL    HW151075   3.570   1.057   4.063 -1.6418  0.8944  0.0625
15506SOL    HW251076   3.665   1.165   4.015 -1.5445  0.5818 -0.4657
15507SOL     OW51077   8.892   8.971  10.230  0.0171 -0.0797 -0.4056
15507SOL    HW151078   8.965   8.964  10.291 -0.5179 -1.8715  0.0683
15507SOL    HW251079   8.814   8.962  10.284 -0.5430  0.5298 -1.0831
15508SOL     OW51080   8.701   1.705   0.111  0.2259  0.2561  0.6776
15508SOL    HW151081   8.702   1.799   0.099 -0.1761  0.2806  0.8163
15508SOL    HW251082   8.619   1.687   0.157  0.7486 -0.0600  1.5070
15509SOL     OW51083   3.813   0.478   0.021 -0.5437 -0.2247 -0.1553
15509SOL    HW151084   3.840   0.413   0.086  1.1193  1.0769  0.5412
15509SOL    HW251085   3.812   0.561   0.069 -0.9919  0.5236 -1.4017
15510SOL     OW51086   4.432   4.190   3.042  0.1171 -0.1118 -0.2492
15510SOL    HW151087   4.475   4.107   3.022  0.7759  0.1503  0.0294
15510SOL    HW251088   4.463   4.213   3.130 -1.1718 -0.2644  0.2715
15511SOL     OW51089  10.560   6.070   0.581  0.0436  0.2816  0.2451
15511SOL    HW151090  10.552   6.147   0.524 -0.7571  0.0574  0.0368
15511SOL    HW251091  10.611   6.007   0.529  0.2695  0.4905  0.2146
15512SOL     OW51092   7.452   6.954   1.482 -0.0124  0.0337  0.0409
15512SOL    HW151093   7.468   6.896   1.556  1.6200  0.7358  0.2661
15512SOL    HW251094   7.370   6.998   1.504  0.5310  0.3555  1.5262
15513SOL     OW51095   3.889   4.324   5.823  0.0743  0.0651  0.0148
15513SOL    HW151096   3.805   4.367   5.807 -0.0200  0.0581  0.4842
15513SOL    HW251097   3.952   4.396   5.833 -0.0751  0.1035  0.7552
15514SOL     OW51098   3.628  11.784  11.538 -0.2548  0.4164 -0.8065
15514SOL    HW151099   3.585  11.730  11.471  1.2395 -1.0054 -0.6875
15514SOL    HW251100   3.588  11.870  11.529 -1.3312 -0.2033 -2.3492
15515SOL     OW51101   4.796   5.983   4.491  0.2849 -0.5164 -0.0989
15515SOL    HW151102   4.820   6.075   4.502 -0.2602 -0.5576  1.6504
15515SOL    HW251103   4.816   5.964   4.399  1.8106  0.9186 -0.0948
15516SOL     OW51104   0.271  10.422   0.506  0.5023  0.2519 -0.5307
15516SOL    HW151105   0.283  10.383   0.420 -0.3570 -2.3385  0.4200
15516SOL    HW251106   0.179  10.445   0.509  0.9224  2.2019 -0.9417
15517SOL     OW51107   2.587  10.806   7.109  0.6761 -0.1789 -0.3398
15517SOL    HW151108   2.648  10.742   7.072 -0.4110 -0.6670 -1.3513
15517SOL    HW251109   2.641  10.859   7.168  1.8784 -1.1687 -0.5001
15518SOL     OW51110   9.726   4.400   4.791 -0.0936 -0.9033 -0.0858
15518SOL    HW151111   9.711   4.484   4.749 -1.3032  0.3791  2.6909
15518SOL    HW251112   9.638   4.365   4.808  0.3676 -1.9776  0.1824
15519SOL     OW51113   7.411   3.248   8.964 -0.7090 -0.1888  0.0184
15519SOL    HW151114   7.431   3.341   8.960 -0.1638 -0.3387 -1.3690
15519SOL    HW251115   7.410   3.228   9.057 -1.7019  1.3746  0.3794
15520SOL     OW51116   8.857   2.204   6.073  0.0760  0.1958 -0.3633
15520SOL    HW151117   8.782   2.165   6.028 -1.1172  0.5054  1.2695
15520SOL    HW251118   8.919   2.223   6.003 -0.1588 -2.6273 -1.5071
15521SOL     OW51119  10.164   7.112   7.205 -0.4264 -0.1399 -0.0787
15521SOL    HW151120  10.194   7.099   7.115 -0.1400  0.2401 -0.0401
15521SOL    HW251121  10.069   7.097   7.201 -0.7389  1.7957 -0.8238
15522SOL     OW51122   3.267  11.690  10.225  0.5984 -0.2856  0.3051
15522SOL    HW151123   3.294  11.680  10.316  1.2084  0.5622  0.2367
15522SOL    HW251124   3.172  11.691  10.228  0.6185  0.3062  1.0123
15523SOL     OW51125   6.951   9.966   1.550  0.5558 -0.1532 -0.5173
15523SOL    HW151126   6.857   9.951   1.552  0.7379 -1.7507  2.3985
15523SOL    HW251127   6.961  10.054   1.512 -1.9843 -0.3003 -1.7313
15524SOL     OW51128   0.676   1.678  10.432  0.0105 -0.0813 -0.1954
15524SOL    HW151129   0.625   1.607  10.472 -0.8235 -1.1919 -2.9300
15524SOL    HW251130   0.612   1.724  10.377  1.5331 -0.4848 -2.4572
15525SOL     OW51131   3.292   6.379   5.369 -0.0572  0.2414 -0.4451
15525SOL    HW151132   3.239   6.328   5.430  0.8172  0.1832  0.2870
15525SOL    HW251133   3.341   6.314   5.319 -0.8463  0.2830 -1.3124
15526SOL     OW51134   0.828   4.629   4.395  0.1931 -0.0980 -0.2325
15526SOL    HW151135   0.843   4.720   4.422  1.2722  0.0789 -1.3630
15526SOL    HW251136   0.889   4.578   4.447 -0.1251 -0.1396  0.1052
15527SOL     OW51137  11.411   3.477   1.630  0.1548 -0.3067  0.0850
15527SOL    HW151138  11.500   3.469   1.663 -0.4551 -1.3245  1.6446
15527SOL    HW251139  11.403   3.409   1.563 -0.1197 -1.8879  1.6551
15528SOL     OW51140  10.701   2.848   8.471 -0.0363  0.1510 -0.3225
15528SOL    HW151141  10.633   2.903   8.509 -0.8366 -0.5476 -0.7020
15528SOL    HW251142  10.738   2.901   8.401 -0.2466  0.5046 -0.1704
15529SOL     OW51143   5.887   3.619  12.070 -0.2227 -0.1011  0.3554
15529SOL    HW151144   5.968   3.620  12.121  0.0827  0.8898 -0.1293
15529SOL    HW251145   5.823   3.666  12.123 -0.3573 -0.4833  0.5348
15530SOL     OW51146   9.849   9.779   3.174 -0.0704 -0.1190  0.1750
15530SOL    HW151147   9.931   9.804   3.216 -0.1944  0.1423  0.2629
15530SOL    HW251148   9.813   9.861   3.141  0.3386 -0.3898 -1.0147
15531SOL     OW51149   8.867   9.958   1.944  0.0940 -0.7248  0.2718
15531SOL    HW151150   8.811   9.897   1.992  1.1032 -1.0986  1.0010
15531SOL    HW251151   8.897  10.020   2.009 -0.7942  0.4854 -0.4385
15532SOL     OW51152   7.042   7.996   3.949  0.1029  0.4847 -0.2660
15532SOL    HW151153   7.084   7.932   4.006  0.7561  0.1541 -1.0903
15532SOL    HW251154   6.971   8.033   4.001  0.6238  0.1214  0.7166
15533SOL     OW51155   5.355   9.902   0.700 -0.0555  0.0677  0.3177
15533SOL    HW151156   5.367   9.927   0.792 -0.5646  1.1984  0.0924
15533SOL    HW251157   5.375   9.982   0.651 -0.5919 -0.2974 -0.5108
15534SOL     OW51158   9.609   2.806  12.018  0.1873  0.1508  0.6512
15534SOL    HW151159   9.647   2.836  12.101 -1.7219  0.0371  1.6088
15534SOL    HW251160   9.611   2.884  11.962 -0.3299  0.7908  1.4935
15535SOL     OW51161  10.329   0.922   1.381  0.6719  0.2545 -0.2408
15535SOL    HW151162  10.307   0.910   1.289  0.2363  1.3717 -0.2884
15535SOL    HW251163  10.385   0.847   1.402  1.4323  0.4130 -1.6242
15536SOL     OW51164   3.741   5.098   6.698 -0.3349  0.0468 -0.0255
15536SOL    HW151165   3.740   5.082   6.604  0.0059 -1.1824  0.1664
15536SOL    HW251166   3.718   5.014   6.737  2.7997 -0.4366  1.0665
15537SOL     OW51167   8.320   5.578   4.797  0.5038  0.3331 -0.0200
15537SOL    HW151168   8.392   5.641   4.788 -0.0581  0.8811 -0.7943
15537SOL    HW251169   8.332   5.518   4.723  1.2983 -0.7562  0.9671
15538SOL     OW51170  11.234   2.059  11.486  0.4924 -0.4095 -0.1920
15538SOL    HW151171  11.216   2.027  11.575  0.8856  1.0128  0.4272
15538SOL    HW251172  11.318   2.106  11.494  0.4443 -0.1066 -1.2805
15539SOL     OW51173   8.739   7.740   0.507  0.4711 -0.2578  0.5773
15539SOL    HW151174   8.732   7.689   0.588  0.3705 -0.2056  0.6005
15539SOL    HW251175   8.815   7.702   0.462  1.1504  0.3898  1.1687
15540SOL     OW51176   9.102   0.273   6.888 -0.2754 -0.0091  0.0154
15540SOL    HW151177   9.092   0.366   6.866  1.1025  0.4769  1.2526
15540SOL    HW251178   9.013   0.237   6.884 -1.0791  1.7378  1.0691
15541SOL     OW51179   9.895   8.018   0.694 -0.3794 -0.1634 -0.5140
15541SOL    HW151180   9.851   8.007   0.778  2.2836 -1.1467  0.8963
15541SOL    HW251181   9.949   8.096   0.704 -0.4737  0.0531 -1.5353
15542SOL     OW51182   9.255   3.841   6.989  0.4791  0.0189  0.1590
15542SOL    HW151183   9.207   3.866   6.910 -0.4673 -1.3388  0.2777
15542SOL    HW251184   9.346   3.829   6.959  0.3318  0.4971 -0.5039
15543SOL     OW51185   9.227   6.982   6.838  0.6853 -0.5065 -0.7385
15543SOL    HW151186   9.289   7.053   6.853  0.6478 -0.5858 -0.1648
15543SOL    HW251187   9.255   6.913   6.899  0.1534 -0.6188 -0.6192
15544SOL     OW51188   4.547   6.390   6.588  0.1996  0.8347  0.0303
15544SOL    HW151189   4.609   6.381   6.660  0.3771 -0.1399 -0.2325
15544SOL    HW251190   4.517   6.301   6.570 -1.7925  1.3443  0.5810
15545SOL     OW51191   8.097  11.624   8.754 -0.1203 -0.3860 -0.3575
15545SOL    HW151192   8.187  11.655   8.766 -0.1809 -0.3661  0.0921
15545SOL    HW251193   8.094  11.592   8.664  0.2780 -0.1940 -0.4422
15546SOL     OW51194   5.687   3.086   0.702 -0.0391  0.1387  0.0769
15546SOL    HW151195   5.729   3.042   0.628  1.8070  2.6589 -0.4787
15546SOL    HW251196   5.606   3.122   0.666  1.9299  3.3665 -1.5302
15547SOL     OW51197   3.770   5.295   5.903  0.9315 -0.0366  0.6964
15547SOL    HW151198   3.679   5.301   5.872  0.6727 -3.8140  0.2468
15547SOL    HW251199   3.806   5.383   5.889 -1.6986  0.7680 -2.1866
15548SOL     OW51200   2.260   4.563   2.423 -0.1677 -0.5599 -0.5587
15548SOL    HW151201   2.196   4.517   2.477 -0.7304 -0.8071 -1.4097
15548SOL    HW251202   2.283   4.500   2.354 -1.0533  0.4510 -1.8253
15549SOL     OW51203   8.549  10.646   8.308 -0.3861  0.6366  0.2276
15549SOL    HW151204   8.535  10.591   8.231  2.2515  1.7366 -1.1794
15549SOL    HW251205   8.599  10.591   8.369 -2.4350 -0.2187  1.2257
15550SOL     OW51206   7.936   6.915   8.030 -0.3330  0.6314  0.0127
15550SOL    HW151207   7.847   6.881   8.016  0.1972 -0.6224 -0.4978
15550SOL    HW251208   7.924   6.993   8.084 -1.6663 -0.1049  0.8310
15551SOL     OW51209   5.741   8.095  10.913 -0.1514  0.1819 -0.0638
15551SOL    HW151210   5.772   8.135  10.995 -0.0359 -0.2027  0.0841
15551SOL    HW251211   5.814   8.040  10.884  0.7339  2.0703 -1.6673
15552SOL     OW51212  10.929   5.807   8.248 -0.6308 -0.0846 -0.2967
15552SOL    HW151213  11.004   5.774   8.198  0.8000  0.3728  1.4079
15552SOL    HW251214  10.938   5.902   8.244  0.3013 -0.0133  1.7778
15553SOL     OW51215   4.365   2.027   3.771  0.3201  0.1491 -0.0067
15553SOL    HW151216   4.274   2.007   3.793  0.8097 -0.1071  1.9147
15553SOL    HW251217   4.389   2.098   3.830  1.4243  0.0830 -0.3593
15554SOL     OW51218  11.592   8.119   4.566 -0.2019 -0.0753 -0.1413
15554SOL    HW151219  11.662   8.099   4.628 -0.0189 -0.7084 -0.5521
15554SOL    HW251220  11.554   8.035   4.544  0.2698  0.0445 -1.5158
15555SOL     OW51221  10.576   0.945   3.066 -0.3610 -0.0562 -0.1255
15555SOL    HW151222  10.577   0.856   3.031 -1.2416  0.0079 -0.3466
15555SOL    HW251223  10.616   0.998   2.996 -0.4058 -0.1904 -0.2530
15556SOL     OW51224  10.889   8.449  11.149  0.5539  0.8301  0.0839
15556SOL    HW151225  10.869   8.365  11.108  0.4049  0.0245  1.7244
15556SOL    HW251226  10.812   8.469  11.202 -0.2843  3.0363 -1.7768
15557SOL     OW51227   6.641   0.208  10.558  0.1286 -0.2258 -0.0150
15557SOL    HW151228   6.645   0.114  10.577 -0.8202 -0.5006 -1.0526
15557SOL    HW251229   6.733   0.236  10.558  0.5770 -1.5404 -1.4047
15558SOL     OW51230   7.311   8.987   7.983  0.2658 -0.2371 -0.3766
15558SOL    HW151231   7.290   8.896   7.963 -1.8423  0.0056  0.4610
15558SOL    HW251232   7.268   9.037   7.913 -0.8058  0.2175  0.5793
15559SOL     OW51233   8.229   0.867   8.135  0.1413  0.0901 -0.2802
15559SOL    HW151234   8.320   0.877   8.108 -0.0367 -0.1178 -0.9709
15559SOL    HW251235   8.223   0.776   8.166  0.0090 -0.0986 -0.8598
15560SOL     OW51236   5.452   7.265   4.110  0.0383 -0.5788 -0.3753
15560SOL    HW151237   5.468   7.292   4.200 -0.8108 -0.0286 -0.3762
15560SOL    HW251238   5.508   7.189   4.097  1.5351  0.4251  0.0221
15561SOL     OW51239   3.245   1.717   6.495  0.5724 -0.8756  0.7940
15561SOL    HW151240   3.334   1.712   6.461  0.1698 -0.1004 -0.4777
15561SOL    HW251241   3.213   1.627   6.492  0.8129 -0.9452 -0.2185
15562SOL     OW51242   8.525   5.819  12.035 -0.0632  0.1972  0.2336
15562SOL    HW151243   8.505   5.743  11.980 -0.4511 -0.4019  1.1827
15562SOL    HW251244   8.583   5.872  11.981  0.8452 -1.1439 -0.1850
15563SOL     OW51245  10.857   3.941   7.811  0.0823 -0.2019  0.1406
15563SOL    HW151246  10.813   3.986   7.739 -0.6137 -0.5649  0.3248
15563SOL    HW251247  10.887   3.859   7.774 -0.2582 -0.3795  0.2473
15564SOL     OW51248   9.502   3.150   8.387  0.0248  0.0169  0.6129
15564SOL    HW151249   9.443   3.206   8.336  0.1828  0.3262  0.7645
15564SOL    HW251250   9.580   3.204   8.400 -0.1221  0.0495  1.4198
15565SOL     OW51251   3.830   0.316   6.855  0.3548  0.3188 -0.2078
15565SOL    HW151252   3.797   0.351   6.772 -0.6096 -0.2876 -0.0939
15565SOL    HW251253   3.871   0.233   6.831 -1.4575 -0.7276  0.1124
15566SOL     OW51254   2.781  11.819   3.229  0.2641 -0.4490 -0.0415
15566SOL    HW151255   2.811  11.872   3.155 -0.4698  0.0615  0.0156
15566SOL    HW251256   2.698  11.782   3.200 -0.6185  0.6912  0.9292
15567SOL     OW51257  11.115  10.532   7.429 -0.2096  0.1130  0.1999
15567SOL    HW151258  11.101  10.438   7.415  1.0184 -0.2862  1.4090
15567SOL    HW251259  11.112  10.543   7.524 -2.7118  1.7446  0.0367
15568SOL     OW51260   1.642   6.381   4.544 -0.2170 -0.4343  0.5698
15568SOL    HW151261   1.599   6.386   4.459  2.4210  1.3564 -0.8056
15568SOL    HW251262   1.700   6.305   4.538  1.8086  1.0881 -0.2883
15569SOL     OW51263  11.678   8.922   9.367 -0.4398 -0.1044 -0.0749
15569SOL    HW151264  11.737   8.969   9.308  0.4741 -2.2764 -1.0086
15569SOL    HW251265  11.610   8.887   9.310 -1.2419  0.2907  0.6296
15570SOL     OW51266  11.411  11.648   8.462 -0.0091 -0.1071  0.3525
15570SOL    HW151267  11.479  11.581   8.456  0.1937  0.1452 -0.3130
15570SOL    HW251268  11.427  11.704   8.386 -0.5866  0.3082  0.5342
15571SOL     OW51269   7.829   7.239   5.986  0.3034 -0.4059  0.1630
15571SOL    HW151270   7.742   7.249   5.948 -0.5968 -2.5205  1.4713
15571SOL    HW251271   7.886   7.293   5.932 -1.5339 -0.3071 -1.7781
15572SOL     OW51272   0.902  10.415   4.657  0.1831  0.5656 -0.7392
15572SOL    HW151273   0.883  10.437   4.749  1.6232  0.9068 -0.5061
15572SOL    HW251274   0.991  10.446   4.643  0.1614  0.0483 -2.1190
15573SOL     OW51275   7.443   6.705   6.692  0.0899 -0.1669  0.4328
15573SOL    HW151276   7.497   6.784   6.698  1.4680 -1.0435  0.2031
15573SOL    HW251277   7.483   6.654   6.621 -0.7693 -1.0572  0.5617
15574SOL     OW51278   0.650   7.771  11.116  0.6380  0.3768 -0.1328
15574SOL    HW151279   0.620   7.778  11.026  1.5355 -0.8475 -0.5579
15574SOL    HW251280   0.603   7.840  11.163 -0.8185  0.1976 -1.2661
15575SOL     OW51281   3.939   9.776   0.328  0.0282  0.8266 -0.0410
15575SOL    HW151282   3.916   9.867   0.310 -1.4236  0.4248 -0.3711
15575SOL    HW251283   3.855   9.734   0.347  0.8793  0.0663  2.5179
15576SOL     OW51284  10.338   5.661  11.050  1.0161 -0.1855  0.1039
15576SOL    HW151285  10.398   5.718  11.003  1.5469 -0.9299 -0.1528
15576SOL    HW251286  10.334   5.697  11.138  1.8049 -0.0956  0.1075
15577SOL     OW51287   7.213   7.584   8.510  0.0194 -0.5532  0.4426
15577SOL    HW151288   7.168   7.535   8.441 -0.5474 -0.5812  0.8230
15577SOL    HW251289   7.274   7.521   8.549 -0.4564 -0.8604  0.6985
15578SOL     OW51290   4.402   2.693   8.451 -0.0825 -0.6216 -0.6837
15578SOL    HW151291   4.370   2.765   8.397  0.0845 -0.0021  0.0369
15578SOL    HW251292   4.444   2.735   8.526 -2.3892 -1.4607  1.1823
15579SOL     OW51293   6.282   1.313   4.904  0.3415 -0.7156  0.0264
15579SOL    HW151294   6.275   1.304   4.999 -1.3826 -1.3977 -0.1300
15579SOL    HW251295   6.193   1.304   4.872  1.0781 -2.1126 -1.8052
15580SOL     OW51296   6.259   8.336  11.094 -0.1923  0.5297  0.8739
15580SOL    HW151297   6.315   8.259  11.095 -2.7324 -1.5224 -0.7567
15580SOL    HW251298   6.319   8.410  11.097  2.4401 -1.4883  1.1013
15581SOL     OW51299   9.284   0.363   3.102 -0.9735  0.3280  0.2426
15581SOL    HW151300   9.318   0.442   3.145 -1.1670 -0.0643  1.1374
15581SOL    HW251301   9.322   0.366   3.014  0.3657  0.5557  0.8058
15582SOL     OW51302   9.190   9.416  10.270  0.0533  0.4346 -0.2885
15582SOL    HW151303   9.263   9.461  10.227  0.5990 -1.9723 -2.1199
15582SOL    HW251304   9.228   9.380  10.350  0.0799  1.5689  0.2363
15583SOL     OW51305   9.599   6.662   5.515  0.3740  0.0129  0.0275
15583SOL    HW151306   9.581   6.738   5.460 -1.2762  0.8642  1.6214
15583SOL    HW251307   9.680   6.684   5.561  0.9834 -0.0906 -0.9633
15584SOL     OW51308  11.669   5.826   0.198  0.0461  0.5403  0.3264
15584SOL    HW151309  11.716   5.752   0.237  1.0024  0.6805 -0.5174
15584SOL    HW251310  11.578   5.813   0.223  0.4742  0.0683  1.7207
15585SOL     OW51311   4.142   7.942   8.434 -0.4683  1.4466  0.3130
15585SOL    HW151312   4.149   7.934   8.339 -2.3962  0.5202  0.2135
15585SOL    HW251313   4.049   7.934   8.453  0.0321 -0.7290  2.4490
15586SOL     OW51314   3.591   1.388   8.568  0.0555  0.6110  0.0972
15586SOL    HW151315   3.542   1.423   8.494  2.2253 -0.3522 -1.9033
15586SOL    HW251316   3.679   1.427   8.559 -0.0418  1.8677  3.2370
15587SOL     OW51317   1.678   2.568   5.824  0.0125 -0.1708 -0.1087
15587SOL    HW151318   1.670   2.588   5.917  0.7155  0.6065 -0.2081
15587SOL    HW251319   1.696   2.474   5.821  0.3154 -0.1361  0.5556
15588SOL     OW51320   0.158   9.603   4.674  0.2691 -0.3177 -0.4240
15588SOL    HW151321   0.140   9.532   4.613  0.1916 -1.3898  0.7990
15588SOL    HW251322   0.253   9.600   4.687  0.1852 -0.7088  0.1866
15589SOL     OW51323   3.653  11.365   0.102 -0.0322 -0.4297  0.1071
15589SOL    HW151324   3.573  11.315   0.086  0.6278 -1.3398 -0.4212
15589SOL    HW251325   3.638  11.408   0.186 -0.2955 -2.1973  1.0076
15590SOL     OW51326   8.744   0.733   4.888 -0.1679 -0.0451 -0.0340
15590SOL    HW151327   8.682   0.802   4.866 -0.8416 -0.0067  1.8163
15590SOL    HW251328   8.822   0.753   4.837 -0.1725  2.3632  0.7781
15591SOL     OW51329   8.089   9.654   9.138  0.7427  0.4308 -0.1852
15591SOL    HW151330   8.048   9.641   9.223  0.2712  1.6145 -0.2214
15591SOL    HW251331   8.043   9.592   9.081 -1.2631  1.8994 -0.2845
15592SOL     OW51332   3.702   5.425  10.007 -0.0814  0.0196  0.1114
15592SOL    HW151333   3.735   5.342  10.042 -0.3488  0.2314  0.8944
15592SOL    HW251334   3.710   5.416   9.912 -0.2234 -0.9482  0.1759
15593SOL     OW51335   9.077   5.278   6.633  0.7095  0.3883 -0.1317
15593SOL    HW151336   9.169   5.267   6.655  0.6108  1.9518  1.2426
15593SOL    HW251337   9.070   5.250   6.542  2.7786  1.3302 -0.6258
15594SOL     OW51338   7.707   1.274   4.435  0.1657 -0.2610  0.2435
15594SOL    HW151339   7.660   1.329   4.372 -0.3736 -0.8521  0.1098
15594SOL    HW251340   7.744   1.204   4.381 -0.4293 -0.8566  0.5944
15595SOL     OW51341   3.364   1.563   0.153 -0.2556 -0.8589 -0.6022
15595SOL    HW151342   3.362   1.469   0.174  1.4682 -1.1924 -1.6890
15595SOL    HW251343   3.312   1.570   0.073  1.1817 -1.2373 -1.5955
15596SOL     OW51344   1.741   2.051   0.620 -0.1578 -0.8525 -0.5215
15596SOL    HW151345   1.738   2.045   0.525  0.8116 -0.6304 -0.5795
15596SOL    HW251346   1.830   2.024   0.643 -0.3345 -0.7564  0.3090
15597SOL     OW51347  10.506  11.858   5.346  0.0037 -0.7544 -1.0552
15597SOL    HW151348  10.545  11.856   5.259  1.6119 -1.7121 -0.3488
15597SOL    HW251349  10.531  11.774   5.386 -0.3525 -0.1646  0.4827
15598SOL     OW51350   6.196   4.874   4.101  0.5785  0.0771  0.1501
15598SOL    HW151351   6.238   4.835   4.178 -0.1682  0.6020  0.8310
15598SOL    HW251352   6.257   4.943   4.074  0.9280 -0.2206  0.1619
15599SOL     OW51353   4.599   9.205   2.067  0.0260  0.0389 -0.8296
15599SOL    HW151354   4.517   9.168   2.101  0.1888  0.0544 -0.4097
15599SOL    HW251355   4.647   9.129   2.032  1.2640 -0.5611  1.8568
15600SOL     OW51356  11.357   1.660  10.468  0.0667 -0.0145 -0.0597
15600SOL    HW151357  11.435   1.617  10.503  0.4631  0.8224  0.1169
15600SOL    HW251358  11.387   1.749  10.446 -0.6481  0.0676 -0.7300
15601SOL     OW51359  10.618   8.620   3.673 -0.3609  0.1397 -0.1587
15601SOL    HW151360  10.701   8.571   3.675  0.8105  1.9488  2.8893
15601SOL    HW251361  10.624   8.673   3.594  0.6716 -0.8811 -0.8075
15602SOL     OW51362  10.214   5.971   9.132  0.1811 -0.2831 -0.3154
15602SOL    HW151363  10.190   6.058   9.166  0.6015  0.6691 -2.2956
15602SOL    HW251364  10.303   5.957   9.165  0.2358  0.1821 -0.2498
15603SOL     OW51365   1.177   4.950   2.799  0.1566  0.6409 -0.0282
15603SOL    HW151366   1.164   4.873   2.854 -0.7069  0.4282 -0.5028
15603SOL    HW251367   1.182   5.023   2.861 -1.7993  0.5338  0.3415
15604SOL     OW51368   1.575   7.287   7.105 -0.2569 -0.0413 -0.2170
15604SOL    HW151369   1.591   7.373   7.066 -0.1672 -0.3640 -0.9208
15604SOL    HW251370   1.588   7.225   7.033  0.0024 -0.6723  0.3554
15605SOL     OW51371   8.203   4.083  11.424  0.1949 -0.3039 -0.1007
15605SOL    HW151372   8.215   4.105  11.332 -0.6428  1.3961  0.1703
15605SOL    HW251373   8.152   4.155  11.460 -2.0353 -2.3039  1.0530
15606SOL     OW51374   7.240   1.161   9.603 -0.2055  0.2032  1.1734
15606SOL    HW151375   7.256   1.255   9.613 -0.0601  0.3187 -0.0502
15606SOL    HW251376   7.164   1.154   9.546  0.9904 -0.4096 -0.4143
15607SOL     OW51377   1.354  10.509   6.308  0.0945  0.3940  0.5715
15607SOL    HW151378   1.273  10.468   6.340  0.6414  0.8706  2.7446
15607SOL    HW251379   1.422  10.473   6.364  1.4498 -0.0054 -1.2335
15608SOL     OW51380   1.620   1.485   7.502 -0.0746 -0.1696 -0.5971
15608SOL    HW151381   1.602   1.405   7.552 -0.1611 -0.4279 -1.0439
15608SOL    HW251382   1.543   1.540   7.517  1.3761  1.2687  2.4846
15609SOL     OW51383   4.970   7.462   9.052  0.1588 -0.2716 -0.1286
15609SOL    HW151384   4.980   7.389   8.991  1.2566  0.0947 -0.4156
15609SOL    HW251385   5.029   7.440   9.125 -0.0718 -0.0275  0.1352
15610SOL     OW51386   1.000   9.960   2.593  0.7299  0.0561 -0.4840
15610SOL    HW151387   0.976   9.917   2.675  0.6882  1.1824  0.1275
15610SOL    HW251388   0.930   9.937   2.532 -0.4352  0.9518  0.4439
15611SOL     OW51389   7.664   7.219   6.795 -0.5958 -0.4902 -0.0956
15611SOL    HW151390   7.729   7.285   6.819 -1.0488 -0.2985  0.6316
15611SOL    HW251391   7.716   7.141   6.774 -0.0358  0.1642 -1.2703
15612SOL     OW51392   9.073   7.503   1.157 -0.2203 -0.0588 -0.1659
15612SOL    HW151393   8.978   7.502   1.144 -0.5025  0.1240  1.6451
15612SOL    HW251394   9.093   7.417   1.193  0.5213 -0.5621 -1.6991
15613SOL     OW51395   4.193   1.848   9.626  0.0745  0.3717 -1.0610
15613SOL    HW151396   4.249   1.888   9.693  0.0274  0.1489 -0.8855
15613SOL    HW251397   4.110   1.894   9.633 -1.1185 -1.8601  1.3873
15614SOL     OW51398   5.643  10.074   2.445 -0.3175  0.4147 -0.2154
15614SOL    HW151399   5.658  10.050   2.537 -0.3964 -0.3766 -0.4018
15614SOL    HW251400   5.549  10.090   2.440 -0.8992 -2.5236 -0.7824
15615SOL     OW51401   8.660   8.916   0.050  0.0012 -0.3549 -0.1274
15615SOL    HW151402   8.621   8.856  -0.014 -1.6650  1.3778 -0.8198
15615SOL    HW251403   8.623   9.001   0.029  1.3055  0.7170  1.6453
15616SOL     OW51404   9.574   5.067   9.257 -0.0565 -0.0096  0.2410
15616SOL    HW151405   9.519   5.145   9.260 -0.3056 -0.1694 -0.1156
15616SOL    HW251406   9.527   5.007   9.199  0.5386 -0.1149 -0.1329
15617SOL     OW51407   8.315   0.423   5.708 -0.9707  0.0634  0.0145
15617SOL    HW151408   8.266   0.434   5.627 -0.0224  1.9861 -0.3446
15617SOL    HW251409   8.254   0.450   5.777 -0.9900  0.8121 -0.2857
15618SOL     OW51410   8.424  10.957   0.471 -0.5546 -0.8401 -0.0730
15618SOL    HW151411   8.463  10.870   0.464  0.1750 -0.5444  0.2354
15618SOL    HW251412   8.414  10.971   0.565 -0.6027 -0.5608 -0.1194
15619SOL     OW51413   0.955   7.953   0.054  0.1636  0.2272  0.0344
15619SOL    HW151414   0.882   7.892   0.052 -1.2479  1.6831  2.4309
15619SOL    HW251415   0.964   7.982  -0.037 -2.5086  0.2418 -0.3044
15620SOL     OW51416   1.673   8.787   4.096 -0.2256 -0.0190 -0.1114
15620SOL    HW151417   1.759   8.810   4.132  0.3683  1.2614 -2.1595
15620SOL    HW251418   1.628   8.871   4.086 -0.4367 -0.3268 -2.0628
15621SOL     OW51419   5.780   3.015   0.439  0.4188  0.4085 -0.1200
15621SOL    HW151420   5.746   3.101   0.414  0.2665  0.5767  0.6256
15621SOL    HW251421   5.751   2.957   0.369  1.5514  1.1690 -1.2469
15622SOL     OW51422   5.178   5.625   4.183 -0.5364  0.2226 -0.3061
15622SOL    HW151423   5.240   5.552   4.182  0.2794  0.8816 -2.0396
15622SOL    HW251424   5.224   5.694   4.231  0.5024  0.9846 -2.2614
15623SOL     OW51425  10.366  11.000   2.977  0.2597 -0.6942  0.0631
15623SOL    HW151426  10.447  11.034   3.014  0.1161  1.3255 -1.3494
15623SOL    HW251427  10.394  10.933   2.914  0.6778 -1.5327  1.1122
15624SOL     OW51428   1.256   1.926  11.813  0.1778  0.1834  0.0247
15624SOL    HW151429   1.292   2.014  11.823 -0.9315  0.6009  0.4786
15624SOL    HW251430   1.294   1.894  11.731  1.6879  0.5258  0.5491
15625SOL     OW51431  10.869   0.670   9.076 -0.4417  0.0507  0.1828
15625SOL    HW151432  10.850   0.759   9.107 -1.6415  0.4946 -1.6985
15625SOL    HW251433  10.790   0.643   9.029  0.8545 -1.0000 -1.4996
15626SOL     OW51434   3.012   3.734   1.500  0.1850  0.1659 -0.0246
15626SOL    HW151435   2.945   3.735   1.431 -0.3038 -2.0142  0.3491
15626SOL    HW251436   2.979   3.795   1.566 -1.5094 -0.9112  0.1766
15627SOL     OW51437  11.502  11.997   7.226 -0.2497 -0.8518 -0.0909
15627SOL    HW151438  11.479  11.919   7.277 -0.9054 -1.4151 -1.2122
15627SOL    HW251439  11.593  11.982   7.199  0.0451 -0.6282  0.7601
15628SOL     OW51440  10.339   8.044   0.250 -0.2437  0.7435  0.2315
15628SOL    HW151441  10.407   8.015   0.189  0.3359  1.7183  0.3817
15628SOL    HW251442  10.269   7.979   0.242 -0.3064  0.9867 -1.6886
15629SOL     OW51443   4.572   2.833   0.058 -0.0771 -0.0194  0.4312
15629SOL    HW151444   4.660   2.854   0.026 -0.4456 -0.5550 -0.9879
15629SOL    HW251445   4.528   2.917   0.064  0.3096  0.1824  0.5092
15630SOL     OW51446  10.925  10.411  10.554 -0.7350 -0.0041 -0.6393
15630SOL    HW151447  10.956  10.449  10.472 -0.6106 -1.0379 -1.0783
15630SOL    HW251448  10.895  10.323  10.531 -0.3845 -0.4365  0.4814
15631SOL     OW51449   2.628   7.170   4.640 -0.0571  0.7410  0.0615
15631SOL    HW151450   2.564   7.123   4.693  0.3935 -0.3915 -0.3759
15631SOL    HW251451   2.597   7.160   4.550  1.2650 -0.7181 -0.2661
15632SOL     OW51452   9.105   1.778  10.879 -0.4531  0.2988  0.0990
15632SOL    HW151453   9.050   1.719  10.827  0.2536  0.4520 -0.8617
15632SOL    HW251454   9.045   1.848  10.907 -0.6526  0.8156 -1.4796
15633SOL     OW51455   7.802   2.054   0.137  0.7192 -0.0971  0.4378
15633SOL    HW151456   7.735   1.997   0.098  0.3546  0.0113  0.8901
15633SOL    HW251457   7.817   2.121   0.072 -0.4251  0.5070  0.7606
15634SOL     OW51458   5.371   4.615   6.013  0.4382  0.2529  0.3334
15634SOL    HW151459   5.351   4.546   5.950  0.5940 -0.9942  1.6044
15634SOL    HW251460   5.455   4.650   5.985  1.1645 -1.2173  0.6029
15635SOL     OW51461   4.877   8.147   1.823 -0.6610 -0.1221  0.0031
15635SOL    HW151462   4.843   8.206   1.756 -1.5742 -0.8697 -0.2087
15635SOL    HW251463   4.835   8.176   1.904 -0.3798  0.1080  0.0685
15636SOL     OW51464   6.081   3.278   4.912  1.1092  0.5314  0.0626
15636SOL    HW151465   6.138   3.237   4.848 -1.5201 -1.0414 -1.4460
15636SOL    HW251466   6.115   3.250   4.997  2.5320 -0.3216 -0.7641
15637SOL     OW51467   1.406   2.531   0.327  0.0352  0.6399 -0.2726
15637SOL    HW151468   1.431   2.623   0.315 -0.7053  0.6299 -2.1056
15637SOL    HW251469   1.341   2.534   0.398  0.2056  1.5035 -0.1395
15638SOL     OW51470   4.018   2.144   7.860 -0.3722 -0.3119 -0.1585
15638SOL    HW151471   4.105   2.183   7.849 -0.2974 -0.0757  1.1845
15638SOL    HW251472   3.988   2.128   7.770 -0.1437  2.2776 -0.7887
15639SOL     OW51473   7.887   9.330  11.833 -0.3596  0.2282  0.1759
15639SOL    HW151474   7.932   9.369  11.908 -0.7966 -0.1770  0.6548
15639SOL    HW251475   7.895   9.396  11.764 -1.1237  1.1934  0.9782
15640SOL     OW51476   9.423   9.062   2.122 -0.4861 -0.4839 -0.1368
15640SOL    HW151477   9.463   8.981   2.089  0.2032  0.6211 -2.2250
15640SOL    HW251478   9.497   9.119   2.141 -0.9750  0.3411 -0.6384
15641SOL     OW51479   1.166   8.508   3.978  0.2349 -0.1880  0.1316
15641SOL    HW151480   1.102   8.533   4.045  2.0115  0.3830  1.7034
15641SOL    HW251481   1.231   8.456   4.025  0.7725 -1.0200 -1.4746
15642SOL     OW51482   7.321  10.380  11.663  0.2715 -0.5200  0.2057
15642SOL    HW151483   7.234  10.341  11.667  0.7083 -1.4394  1.9132
15642SOL    HW251484   7.381  10.305  11.654  0.8983  0.1113 -1.2519
15643SOL     OW51485   1.133   6.921   4.640  0.2099  0.0222  0.3127
15643SOL    HW151486   1.166   6.943   4.728  0.0654  1.7965 -0.0369
15643SOL    HW251487   1.067   6.987   4.622 -1.7216 -1.9175 -0.0858
15644SOL     OW51488   3.611   4.722   4.153 -0.0372 -0.2233  0.0760
15644SOL    HW151489   3.703   4.751   4.150 -0.0632 -0.0859  0.4856
15644SOL    HW251490   3.611   4.654   4.220 -0.4099  0.4282  0.7504
15645SOL     OW51491   3.070   1.440   0.503  0.3850  0.0255  0.6730
15645SOL    HW151492   3.026   1.451   0.588  0.7722 -0.5011  0.9469
15645SOL    HW251493   3.085   1.530   0.473  0.9839  0.2464  1.5621
15646SOL     OW51494   0.070   0.988   8.479 -0.0381  0.4120  0.0373
15646SOL    HW151495   0.067   1.074   8.436  1.0251 -0.2470 -1.4570
15646SOL    HW251496   0.030   0.929   8.415  0.3806 -0.3983  0.5130
15647SOL     OW51497   0.844   0.513   2.089 -0.4896  0.5159 -0.2530
15647SOL    HW151498   0.762   0.562   2.090  0.4081  2.1569  2.0387
15647SOL    HW251499   0.909   0.576   2.058  0.0702 -0.5246 -1.2803
15648SOL     OW51500   0.871   8.675   9.302 -0.3382  0.3340  0.2800
15648SOL    HW151501   0.846   8.763   9.331  1.5023  0.5694  1.3715
15648SOL    HW251502   0.952   8.689   9.253 -1.4174 -0.5106 -1.8201
15649SOL     OW51503   5.254   3.371   4.557  0.4877  0.3814  0.0730
15649SOL    HW151504   5.328   3.411   4.511  0.0657  0.1685 -0.8223
15649SOL    HW251505   5.181   3.381   4.497 -0.0574 -0.0294  0.6544
15650SOL     OW51506   7.372  11.239   6.645  0.1381  0.0286 -0.2369
15650SOL    HW151507   7.457  11.227   6.603 -0.2029  1.4755 -1.4307
15650SOL    HW251508   7.318  11.167   6.611  0.2034  0.5153 -1.4322
15651SOL     OW51509  11.704  11.631   2.988  0.1142  0.1538  0.2079
15651SOL    HW151510  11.685  11.541   3.012  1.7552 -0.5544 -0.9546
15651SOL    HW251511  11.789  11.627   2.943  0.2115  2.2656  0.0844
15652SOL     OW51512  10.108   5.611  11.296  0.4157  0.1593 -0.1923
15652SOL    HW151513  10.118   5.706  11.304  0.1436  0.1177  0.8999
15652SOL    HW251514  10.180   5.575  11.349  2.2314 -0.3242 -2.7737
15653SOL     OW51515   0.900   5.879   9.020  0.4066  0.0901  0.3028
15653SOL    HW151516   0.840   5.924   9.080 -0.4451 -1.9736  1.0979
15653SOL    HW251517   0.960   5.832   9.078  2.1119  1.1749 -0.4966
15654SOL     OW51518  12.001  10.720  11.648  0.8094 -0.0707 -0.3474
15654SOL    HW151519  11.947  10.793  11.618  0.2307 -0.9581 -1.5639
15654SOL    HW251520  12.078  10.761  11.688 -0.3642  1.2167  0.6845
15655SOL     OW51521  11.931   0.934   9.834  0.5186  0.2916  0.1615
15655SOL    HW151522  11.905   0.991   9.762  1.8641  1.6022  0.6717
15655SOL    HW251523  11.897   0.847   9.810 -2.1686  1.3857 -0.3374
15656SOL     OW51524  10.516   2.478   2.995  0.3040 -0.9378  0.2970
15656SOL    HW151525  10.440   2.516   3.039  0.4257  0.7138 -0.8343
15656SOL    HW251526  10.591   2.525   3.032  0.5351 -0.6198 -0.5662
15657SOL     OW51527   6.705   4.089   8.533  0.4926  0.1511  0.3492
15657SOL    HW151528   6.740   4.001   8.542  1.2035  0.1423 -1.8311
15657SOL    HW251529   6.621   4.078   8.488  0.5199  0.5626  0.1892
15658SOL     OW51530   9.132   2.082   7.385  0.0554 -0.2497 -0.2063
15658SOL    HW151531   9.204   2.127   7.341  0.9556 -0.4430  1.0415
15658SOL    HW251532   9.074   2.152   7.415  0.3190 -0.0410 -0.1859
15659SOL     OW51533   7.118   6.884  10.037  0.0985  0.1729 -0.0761
15659SOL    HW151534   7.166   6.944  10.094 -0.2338  2.5697 -2.1845
15659SOL    HW251535   7.032   6.925  10.026 -0.3646 -1.0090 -1.0705
15660SOL     OW51536   2.489   7.256   1.537 -0.7491 -0.3616  0.1312
15660SOL    HW151537   2.528   7.189   1.480 -1.0369 -0.8307  0.4815
15660SOL    HW251538   2.552   7.267   1.608 -0.8360 -0.4672  0.2242
15661SOL     OW51539   3.515   7.513   9.334  0.1243  0.0322 -0.7013
15661SOL    HW151540   3.445   7.578   9.339  0.8436  0.9323 -1.7862
15661SOL    HW251541   3.499   7.467   9.252 -0.1495 -0.9020 -0.1292
15662SOL     OW51542  11.863   9.457   5.540  0.2731 -0.2747 -0.7510
15662SOL    HW151543  11.803   9.532   5.543 -1.1511 -1.1049 -4.0048
15662SOL    HW251544  11.935   9.487   5.485  0.4277 -0.8467 -0.8600
15663SOL     OW51545   0.435   1.161   8.154 -0.4748 -0.3318  0.4970
15663SOL    HW151546   0.442   1.065   8.155 -0.0299 -0.2998  0.7448
15663SOL    HW251547   0.511   1.190   8.104 -0.8326 -0.1184  0.0628
15664SOL     OW51548   1.265   3.119   0.702 -0.4086  0.5962  0.0818
15664SOL    HW151549   1.239   3.046   0.645 -2.0799  0.9115  0.3683
15664SOL    HW251550   1.299   3.077   0.781  0.7986  0.1560 -0.6398
15665SOL     OW51551   8.420   4.270   1.703  0.2194  0.3882  0.3170
15665SOL    HW151552   8.351   4.205   1.711 -2.5156  2.6461 -2.4743
15665SOL    HW251553   8.496   4.220   1.672 -0.6543 -1.9185  1.6443
15666SOL     OW51554  10.201   6.675   6.146  0.3453  0.5719  0.0599
15666SOL    HW151555  10.169   6.649   6.233 -0.8237  1.7310  0.0101
15666SOL    HW251556  10.287   6.635   6.139  0.5145  0.5592  1.8090
15667SOL     OW51557   4.942   7.261   6.465 -0.4547  0.2103 -0.2904
15667SOL    HW151558   5.037   7.244   6.471 -0.6267 -0.3247  1.2707
15667SOL    HW251559   4.933   7.353   6.489 -0.1719  0.8252 -2.3513
15668SOL     OW51560   5.860   6.528   9.623 -0.3698 -0.3567  0.5214
15668SOL    HW151561   5.876   6.478   9.703 -0.2528 -1.3940 -0.1329
15668SOL    HW251562   5.947   6.555   9.594 -0.3415 -0.6698  0.3139
15669SOL     OW51563  11.022   1.347   7.992 -0.2010 -0.0153 -0.3755
15669SOL    HW151564  10.959   1.419   7.988 -0.3920 -0.1732 -0.2905
15669SOL    HW251565  11.011   1.301   7.909 -0.6536 -0.4115 -0.1069
15670SOL     OW51566   6.628   5.707   7.954  0.3718 -0.7588  0.5949
15670SOL    HW151567   6.716   5.702   7.990  0.4274  0.1274  0.5873
15670SOL    HW251568   6.582   5.632   7.994  0.8595 -0.6823  1.3275
15671SOL     OW51569   1.683   1.030  11.673 -0.4193 -0.4321  0.4690
15671SOL    HW151570   1.689   1.051  11.766 -0.1192 -1.1061  0.6086
15671SOL    HW251571   1.599   0.987  11.663 -0.4109 -0.4438  0.4485
15672SOL     OW51572   4.038   6.354   5.643 -0.0227  0.3764  0.1581
15672SOL    HW151573   4.088   6.358   5.561  0.3376  0.3668  0.3756
15672SOL    HW251574   3.957   6.402   5.624  0.2713  0.7960 -0.0553
15673SOL     OW51575  10.095   1.194   9.308 -0.1551  0.4291 -0.3975
15673SOL    HW151576  10.102   1.212   9.401  0.5476 -0.7708 -0.1983
15673SOL    HW251577  10.089   1.098   9.302  2.2081  0.2674 -1.6630
15674SOL     OW51578   7.910   9.039   2.722 -0.3293  0.7629 -0.0264
15674SOL    HW151579   7.968   9.085   2.783 -0.9141  1.0625  0.3147
15674SOL    HW251580   7.966   8.974   2.679  0.4526  1.6071 -0.3146
15675SOL     OW51581   8.291   9.929   1.150  0.3861  0.1606 -0.3423
15675SOL    HW151582   8.198   9.907   1.146 -0.0046  1.7499 -0.7958
15675SOL    HW251583   8.325   9.877   1.223 -0.6828 -0.9865 -0.6269
15676SOL     OW51584   2.858   4.243   4.657 -0.4463 -0.0625 -0.0901
15676SOL    HW151585   2.872   4.186   4.582 -1.2111  2.3447 -2.2171
15676SOL    HW251586   2.764   4.235   4.676 -0.2221 -0.8000  0.7672
15677SOL     OW51587   5.185   8.316   5.143 -0.4147  0.2050  0.3312
15677SOL    HW151588   5.175   8.272   5.059 -1.4168  0.8380  0.1038
15677SOL    HW251589   5.213   8.246   5.203  1.0020 -0.1138 -0.6422
15678SOL     OW51590   7.812   4.644   6.224  0.2877 -0.2077 -0.4112
15678SOL    HW151591   7.840   4.561   6.184  3.0172  0.5211 -0.2559
15678SOL    HW251592   7.756   4.685   6.158  0.4818 -1.3289 -1.3132
15679SOL     OW51593   1.978  10.714  10.512 -0.3931 -0.4027 -0.7136
15679SOL    HW151594   1.923  10.792  10.502  2.7328  2.3597  1.4644
15679SOL    HW251595   2.004  10.691  10.423 -1.2780  1.1554 -1.4139
15680SOL     OW51596   5.960   6.381   2.157 -0.2182 -0.2815 -0.0162
15680SOL    HW151597   6.019   6.352   2.226 -0.9656  0.0177  0.7720
15680SOL    HW251598   5.984   6.329   2.080  0.5157 -0.7361  0.5193
15681SOL     OW51599  11.911   5.795   1.887 -0.1913  0.3209  0.4654
15681SOL    HW151600  11.874   5.746   1.813  1.6322  1.6182 -1.4236
15681SOL    HW251601  11.894   5.740   1.963 -0.6863 -1.9011 -1.1540
15682SOL     OW51602   3.450   9.051   6.831  0.1373 -0.1917  0.1673
15682SOL    HW151603   3.460   9.024   6.922 -1.5265 -0.0251  0.4332
15682SOL    HW251604   3.518   9.003   6.784  1.2295 -0.0361  1.5276
15683SOL     OW51605   9.916  10.386   4.256 -0.3785 -0.8048  0.1957
15683SOL    HW151606   9.854  10.439   4.207  1.0347  1.4434  0.6693
15683SOL    HW251607  10.000  10.401   4.213  0.2184 -1.9536  0.9034
15684SOL     OW51608   6.355   9.893   9.438 -0.2204  0.5117 -0.0406
15684SOL    HW151609   6.357   9.886   9.533  0.7424  0.0854 -0.0856
15684SOL    HW251610   6.439   9.859   9.409 -0.5790  0.4482 -1.0616
15685SOL     OW51611   4.791   8.030  10.743  0.8524  0.3909 -0.7842
15685SOL    HW151612   4.863   8.054  10.685  2.4900 -0.3734  0.8426
15685SOL    HW251613   4.824   7.954  10.792 -0.7676  0.5044  0.5606
15686SOL     OW51614   4.266   7.013   5.062 -0.2959  0.2327 -0.2527
15686SOL    HW151615   4.310   7.021   5.147 -1.3005  0.4518  0.2783
15686SOL    HW251616   4.323   6.958   5.009 -0.1903 -0.8844  0.9665
15687SOL     OW51617  11.537   5.172   2.544  0.9007  0.0783  0.3183
15687SOL    HW151618  11.578   5.112   2.481  0.5989  1.2447 -1.0195
15687SOL    HW251619  11.466   5.214   2.496  0.6617  1.0119  1.4366
15688SOL     OW51620   6.837   9.575   2.108  0.0070  0.4146  0.0075
15688SOL    HW151621   6.831   9.495   2.055  0.4728  0.3925 -0.0141
15688SOL    HW251622   6.821   9.545   2.198  0.8854  0.1800  0.0897
15689SOL     OW51623  11.341   4.151   9.546  0.1589  0.4208  0.5416
15689SOL    HW151624  11.377   4.163   9.458 -2.0768 -1.7234 -0.7933
15689SOL    HW251625  11.354   4.057   9.564 -0.8938  0.4965  1.7863
15690SOL     OW51626   0.908   6.531   3.314  0.0630  0.0416 -0.0268
15690SOL    HW151627   0.992   6.500   3.347 -0.1851  1.4682  2.1615
15690SOL    HW251628   0.926   6.620   3.283 -0.6135  0.3601  0.4622
15691SOL     OW51629  11.032   9.739   5.225 -0.2927 -0.0754 -0.5334
15691SOL    HW151630  11.077   9.777   5.150  1.0483 -1.7424 -0.6442
15691SOL    HW251631  10.954   9.698   5.188 -0.7462  0.9017 -0.6824
15692SOL     OW51632   3.025  10.121  11.522  0.1447  0.6821  0.0180
15692SOL    HW151633   2.992  10.149  11.608 -0.9631 -0.8747  0.1585
15692SOL    HW251634   3.118  10.142  11.523  0.2196  0.3879  1.7536
15693SOL     OW51635   1.248   7.312   8.164  0.0535  0.0229 -0.2142
15693SOL    HW151636   1.336   7.345   8.184 -0.1129  0.8421 -0.7856
15693SOL    HW251637   1.260   7.218   8.151  0.4128 -0.3319  2.2381
15694SOL     OW51638   9.163   5.633  10.074  0.2993  0.4912 -0.3646
15694SOL    HW151639   9.133   5.543  10.079  1.2407  0.1234 -0.9546
15694SOL    HW251640   9.137   5.662   9.986  2.3334 -0.1289 -1.2458
15695SOL     OW51641   0.146   1.825   0.479  0.3708  0.1089 -0.2314
15695SOL    HW151642   0.136   1.774   0.559 -0.5677 -1.8038 -1.5065
15695SOL    HW251643   0.111   1.912   0.502 -0.3459 -0.5367  1.2720
15696SOL     OW51644   0.653  11.461   8.410  0.5665  0.1140 -0.3866
15696SOL    HW151645   0.714  11.524   8.374  1.5223 -0.7105 -0.2535
15696SOL    HW251646   0.652  11.389   8.347 -0.1747  0.0604 -0.3255
15697SOL     OW51647  10.350   1.323   7.719  0.5540 -0.1263  0.3764
15697SOL    HW151648  10.406   1.392   7.685 -0.0349 -0.5131 -1.4742
15697SOL    HW251649  10.289   1.369   7.777 -0.4368  1.1397 -1.5339
15698SOL     OW51650   7.660   9.805   2.720 -0.5961 -0.2948  0.2014
15698SOL    HW151651   7.748   9.771   2.703  0.1652  1.9914 -0.7796
15698SOL    HW251652   7.614   9.794   2.637 -0.8762 -0.4324  0.3730
15699SOL     OW51653   6.438   1.730   1.714 -0.0600  0.0352 -0.0781
15699SOL    HW151654   6.401   1.695   1.795  1.6879 -0.6162  0.4959
15699SOL    HW251655   6.494   1.802   1.743  1.3681 -0.8437 -0.5572
15700SOL     OW51656   1.336  10.248   6.009  0.1676 -0.3308  0.8912
15700SOL    HW151657   1.282  10.326   6.019  0.6512  0.0376  0.6745
15700SOL    HW251658   1.301  10.204   5.932  1.0281  0.6183 -0.0687
15701SOL     OW51659   9.385  10.323   5.603  0.2492 -0.5933 -0.7567
15701SOL    HW151660   9.426  10.352   5.684 -1.6205  0.4778 -0.1556
15701SOL    HW251661   9.459  10.294   5.548  1.5243 -1.6663  1.3988
15702SOL     OW51662   9.494   0.518   0.432  0.0960  0.0509  0.2186
15702SOL    HW151663   9.480   0.452   0.365  3.3836  0.2990 -0.8801
15702SOL    HW251664   9.571   0.487   0.480  0.1115  1.7875  1.4003
15703SOL     OW51665   0.475   1.894   0.909 -0.1064  0.2470  0.5183
15703SOL    HW151666   0.440   1.833   0.844  1.2263  0.2827 -0.2579
15703SOL    HW251667   0.398   1.941   0.941 -0.9736 -0.7983  0.0573
15704SOL     OW51668   1.917   4.814   5.299 -0.0251 -0.0877  0.2505
15704SOL    HW151669   1.880   4.788   5.384 -0.0155  2.2292  1.0481
15704SOL    HW251670   2.010   4.832   5.318 -0.4176  2.3139  0.3000
15705SOL     OW51671  11.685   2.592   1.794 -0.0792  0.2027 -0.3151
15705SOL    HW151672  11.603   2.636   1.773  0.2760  1.1932  0.2958
15705SOL    HW251673  11.712   2.550   1.712 -1.3116 -0.3668 -0.4590
15706SOL     OW51674  10.746   3.439   9.901 -0.1586  0.0035  0.2372
15706SOL    HW151675  10.665   3.479   9.870 -0.3567  0.6245  1.5031
15706SOL    HW251676  10.720   3.351   9.929 -0.1712 -0.1858 -0.3427
15707SOL     OW51677   7.112  10.794  11.221 -0.0273  0.2293  0.3332
15707SOL    HW151678   7.189  10.851  11.213  1.4361 -1.3731  1.8456
15707SOL    HW251679   7.058  10.836  11.288  0.2452  0.6524  0.2940
15708SOL     OW51680   9.827  11.595   2.328  0.1190 -0.1336 -0.2845
15708SOL    HW151681   9.805  11.530   2.261  1.9359 -0.1528 -0.9186
15708SOL    HW251682   9.807  11.679   2.287  1.4135 -0.1355 -0.9821
15709SOL     OW51683   2.331  10.444  10.169 -0.3294 -0.1233 -0.8558
15709SOL    HW151684   2.348  10.535  10.142 -1.9664  0.4398 -0.1151
15709SOL    HW251685   2.398  10.426  10.235  1.0604 -0.0698 -2.1888
15710SOL     OW51686   5.541   0.848   7.841 -0.0398 -0.3905 -0.0701
15710SOL    HW151687   5.523   0.922   7.783  0.4240 -1.3055 -1.4401
15710SOL    HW251688   5.458   0.800   7.846 -0.1319 -0.2093  0.2036
15711SOL     OW51689   0.368  11.566   6.096 -0.0670  0.3317 -0.2551
15711SOL    HW151690   0.331  11.644   6.137 -2.2381 -0.2885 -0.9350
15711SOL    HW251691   0.368  11.500   6.164  0.9310  0.6386  0.0652
15712SOL     OW51692   0.391   9.012   6.408  0.2440  0.6034  0.0384
15712SOL    HW151693   0.309   8.970   6.381  0.7164 -0.5843  0.3925
15712SOL    HW251694   0.375   9.106   6.396 -1.0242  0.3645 -0.2755
15713SOL     OW51695   8.226   7.873   1.197  0.5176 -0.1433 -0.0336
15713SOL    HW151696   8.228   7.793   1.143  0.6064 -0.8739  1.0312
15713SOL    HW251697   8.271   7.849   1.278 -0.6876  0.5561  0.8829
15714SOL     OW51698  12.104   1.096  10.029  0.5332  0.1047  0.5731
15714SOL    HW151699  12.035   1.034  10.006 -1.1688  2.4229 -1.0951
15714SOL    HW251700  12.148   1.058  10.104 -0.9134 -2.6905  0.1040
15715SOL     OW51701   9.580   8.915   3.138  0.1715 -0.6974  0.1533
15715SOL    HW151702   9.537   8.896   3.221  0.3480  1.6879  0.8761
15715SOL    HW251703   9.669   8.881   3.148  0.5976  0.7075  1.4956
15716SOL     OW51704   8.836   1.308   7.166 -0.3372 -0.5060 -0.7222
15716SOL    HW151705   8.755   1.291   7.215  0.6061 -2.5000  0.3102
15716SOL    HW251706   8.882   1.374   7.218  0.4806 -2.3329  1.0097
15717SOL     OW51707  12.091   3.004   8.050 -0.4189 -0.7771  0.1603
15717SOL    HW151708  12.171   3.000   8.102 -0.4473  1.2231  0.4388
15717SOL    HW251709  12.116   3.049   7.969 -1.2791  0.0204  0.3184
15718SOL     OW51710   6.281   4.614   4.705 -0.2590  0.9681 -0.0857
15718SOL    HW151711   6.307   4.526   4.677  1.4703  1.2550  0.4845
15718SOL    HW251712   6.193   4.625   4.671 -0.8819 -1.3388  0.6133
15719SOL     OW51713   3.159   1.291   1.346 -0.4423  0.2156  0.3467
15719SOL    HW151714   3.204   1.218   1.305 -1.3109 -0.2827  0.2723
15719SOL    HW251715   3.082   1.306   1.292 -0.4661  0.9580  0.5685
15720SOL     OW51716  10.789   8.907   5.119 -0.2287 -0.2017  0.6479
15720SOL    HW151717  10.711   8.905   5.175 -0.4004  0.0037  0.4173
15720SOL    HW251718  10.829   8.992   5.138 -0.0863 -0.2848  0.7266
15721SOL     OW51719   2.690   7.104   6.187 -0.4474 -0.2997  0.4907
15721SOL    HW151720   2.664   7.044   6.117 -0.3003  0.1759  0.0263
15721SOL    HW251721   2.699   7.189   6.144 -0.8986  0.1135  1.1911
15722SOL     OW51722   0.792   4.513   5.447 -0.0413  0.4774 -0.5515
15722SOL    HW151723   0.735   4.571   5.397  1.7258  1.2795 -1.7514
15722SOL    HW251724   0.791   4.431   5.397 -1.3506 -0.0604  0.3121
15723SOL     OW51725  10.298   5.711  11.687 -0.4725  0.0747  0.1748
15723SOL    HW151726  10.278   5.788  11.739 -2.1173  0.3065 -0.7343
15723SOL    HW251727  10.277   5.637  11.744  0.9236  0.2611  0.9797
15724SOL     OW51728   1.550   9.471  11.423 -0.3002  0.3468 -0.4766
15724SOL    HW151729   1.459   9.448  11.404 -0.1476 -1.8103  1.0284
15724SOL    HW251730   1.544   9.556  11.468 -1.9396 -1.0442  2.2223
15725SOL     OW51731   4.217   3.700   0.939 -0.1019  0.2397 -0.6924
15725SOL    HW151732   4.274   3.755   0.885  1.3963 -0.4178  0.1520
15725SOL    HW251733   4.161   3.762   0.985  1.3004  1.0826 -0.0303
15726SOL     OW51734   5.209   4.566   7.089  0.6303 -0.2140  0.1802
15726SOL    HW151735   5.299   4.555   7.057  0.7143 -0.1009  0.3757
15726SOL    HW251736   5.166   4.483   7.069  0.6801 -0.1400 -0.2324
15727SOL     OW51737   2.787   6.290   2.569 -0.1424  0.9849  0.0391
15727SOL    HW151738   2.785   6.309   2.663 -0.4348  0.9817  0.0322
15727SOL    HW251739   2.718   6.345   2.532 -1.2278 -0.3417  0.0562
15728SOL     OW51740   3.919   3.272   8.913  0.8202 -0.2209 -0.7109
15728SOL    HW151741   4.009   3.255   8.943  0.6727  0.9614  0.4982
15728SOL    HW251742   3.867   3.202   8.954  0.9417  0.1174  0.0281
15729SOL     OW51743   4.302  11.029   0.253 -0.3519 -0.4495  0.4214
15729SOL    HW151744   4.336  11.115   0.226 -1.5619 -0.0536  0.1138
15729SOL    HW251745   4.376  10.988   0.298  0.5795  0.3356 -0.3210
15730SOL     OW51746   8.699   2.274   8.356 -0.0998 -0.4027  0.7532
15730SOL    HW151747   8.752   2.352   8.370  0.0222 -0.5109  0.9030
15730SOL    HW251748   8.654   2.260   8.440  0.4693 -0.9320  0.9816
15731SOL     OW51749   8.108   5.717   8.710 -0.0676  0.3132 -0.0620
15731SOL    HW151750   8.059   5.644   8.672  0.4126  0.5495 -1.1708
15731SOL    HW251751   8.132   5.687   8.798 -0.7335 -0.4685 -0.1410
15732SOL     OW51752  10.091   5.967   9.582  0.3154 -0.0498 -0.4253
15732SOL    HW151753  10.022   5.914   9.541  0.1565 -0.3931  0.2810
15732SOL    HW251754  10.171   5.917   9.566  0.0115 -1.1601  1.3067
15733SOL     OW51755   4.443   8.799  11.904  0.3025 -0.3053  0.0320
15733SOL    HW151756   4.466   8.707  11.915  2.3412 -0.4704 -3.7737
15733SOL    HW251757   4.520   8.847  11.937 -0.7968  0.1332  2.1070
15734SOL     OW51758  11.575  11.474   6.892 -0.2959 -0.1668 -0.2344
15734SOL    HW151759  11.533  11.429   6.819 -1.1852 -1.5900  1.0815
15734SOL    HW251760  11.669  11.462   6.877 -0.5004 -2.3984 -0.0226
15735SOL     OW51761  11.412  10.636   4.534 -0.2370  0.4434  0.5226
15735SOL    HW151762  11.501  10.600   4.528 -0.3228  0.3895 -0.6899
15735SOL    HW251763  11.355  10.563   4.512 -0.5214  0.7719  0.1530
15736SOL     OW51764   9.634   3.299   6.034 -0.4372  0.3589 -0.3111
15736SOL    HW151765   9.621   3.390   6.063 -4.4669 -0.0997 -0.1168
15736SOL    HW251766   9.625   3.302   5.939  0.0353  0.2204 -0.3634
15737SOL     OW51767   0.468   0.243   4.743 -0.0989 -0.2179  0.2551
15737SOL    HW151768   0.481   0.164   4.796  0.5478 -0.4532 -0.2356
15737SOL    HW251769   0.551   0.255   4.697 -0.8632 -0.4112 -1.2271
15738SOL     OW51770  10.335   6.522   3.643  0.3126 -0.1912 -0.3069
15738SOL    HW151771  10.427   6.506   3.618  0.5916 -0.7867  1.0386
15738SOL    HW251772  10.304   6.584   3.577  1.8067  0.3577 -0.5493
15739SOL     OW51773  10.837   2.582   0.636  0.3208  0.1935  0.1155
15739SOL    HW151774  10.924   2.552   0.611  0.3159  0.5725 -0.3637
15739SOL    HW251775  10.778   2.514   0.605  0.4788 -0.3264  0.9073
15740SOL     OW51776   2.692   9.842   2.139 -0.3303 -0.5818 -0.0692
15740SOL    HW151777   2.774   9.889   2.158 -1.5797  1.3026  1.0420
15740SOL    HW251778   2.631   9.911   2.114 -2.1295 -1.6744  1.0854
15741SOL     OW51779   2.552   5.576   3.934 -0.1926  0.2018  0.0859
15741SOL    HW151780   2.621   5.641   3.947 -2.0996  2.3309  0.1996
15741SOL    HW251781   2.556   5.556   3.840 -0.1694  1.2280 -0.1481
15742SOL     OW51782   3.656  11.242  11.764 -0.0654  0.3466  0.7432
15742SOL    HW151783   3.625  11.173  11.705  0.1384  0.1657  0.8420
15742SOL    HW251784   3.597  11.238  11.839 -0.2649  0.5117  0.5975
15743SOL     OW51785   9.693   1.379  10.136 -0.0152 -0.5085  0.1099
15743SOL    HW151786   9.610   1.425  10.134 -0.3878 -1.1835 -0.2296
15743SOL    HW251787   9.742   1.415  10.062 -0.5166 -1.0434 -0.4861
15744SOL     OW51788   7.540  10.424   6.610  0.2585 -0.4719  0.3028
15744SOL    HW151789   7.629  10.413   6.643  0.0159  0.3838  1.2970
15744SOL    HW251790   7.535  10.515   6.583 -0.8854  0.0681  2.1445
15745SOL     OW51791  10.273   7.812   2.797  0.3341 -0.1029 -0.2601
15745SOL    HW151792  10.331   7.784   2.868 -1.7881  0.3982  1.7421
15745SOL    HW251793  10.217   7.736   2.781  2.4048 -1.2235 -3.3649
15746SOL     OW51794   3.776   1.768   3.362 -0.1458  0.3904 -0.7259
15746SOL    HW151795   3.751   1.723   3.443 -0.1798  0.6789 -0.5712
15746SOL    HW251796   3.780   1.700   3.296 -0.5351  0.2147 -0.5697
15747SOL     OW51797   0.920   1.843  11.912 -0.2669 -0.6762  0.0570
15747SOL    HW151798   0.979   1.860  11.985 -1.1717 -0.7936  0.8298
15747SOL    HW251799   0.870   1.924  11.902 -0.3258 -0.7506 -0.2680
15748SOL     OW51800  10.315   6.750   0.391  0.1256 -0.0593 -0.1054
15748SOL    HW151801  10.337   6.823   0.449  0.0050 -0.4777  0.4711
15748SOL    HW251802  10.226   6.769   0.361 -0.3266 -0.5175  0.9110
15749SOL     OW51803   5.856   2.447   9.732  0.5207 -0.3486 -0.4302
15749SOL    HW151804   5.821   2.438   9.821  0.8469  0.3485 -0.2300
15749SOL    HW251805   5.951   2.444   9.743  0.6762  2.5560 -0.4097
15750SOL     OW51806   6.822   3.167   2.433  0.1988  0.4773 -0.3577
15750SOL    HW151807   6.916   3.188   2.433 -0.2872  2.8691  0.0084
15750SOL    HW251808   6.778   3.252   2.436 -2.0026 -0.5999 -0.2818
15751SOL     OW51809   9.306   3.293  11.878 -0.3346 -0.1344  0.4981
15751SOL    HW151810   9.219   3.270  11.846  0.1396  0.1615 -1.1317
15751SOL    HW251811   9.366   3.255  11.813  0.6264  2.0979 -0.0247
15752SOL     OW51812   9.769   0.389   8.016 -0.0751 -0.4146  0.4873
15752SOL    HW151813   9.799   0.390   8.107 -1.1133 -2.0785  0.8982
15752SOL    HW251814   9.778   0.297   7.989  0.0646  0.0296 -1.0424
15753SOL     OW51815   1.712   9.787   2.208 -0.7508  0.3612 -0.4860
15753SOL    HW151816   1.711   9.692   2.223  2.4199  0.5419  2.0149
15753SOL    HW251817   1.751   9.823   2.288  0.3427  3.5599 -2.2963
15754SOL     OW51818   5.753   3.569  11.673  0.2444  0.1835  0.6364
15754SOL    HW151819   5.790   3.482  11.688 -0.7658 -0.0071  2.1638
15754SOL    HW251820   5.668   3.567  11.716 -0.4063  1.4929 -0.5079
15755SOL     OW51821   6.921   3.544  11.364 -0.4129 -0.1379  0.6574
15755SOL    HW151822   6.907   3.535  11.270  0.7117 -0.5396  0.5095
15755SOL    HW251823   6.897   3.634  11.384  0.8724  0.4416 -0.3194
15756SOL     OW51824   4.785   8.494   8.307  0.0536  0.3048 -0.1638
15756SOL    HW151825   4.809   8.565   8.366 -0.4923 -0.2928  0.7867
15756SOL    HW251826   4.708   8.453   8.346  0.3123 -0.7743 -0.7228
15757SOL     OW51827   7.940  12.044   8.658  0.5924  0.2542 -0.0189
15757SOL    HW151828   7.860  12.047   8.709  0.7653 -0.6456  0.3318
15757SOL    HW251829   7.962  11.951   8.653  0.4589  0.2842 -1.9264
15758SOL     OW51830  11.362   3.091  10.749 -0.1867 -0.0895  0.5227
15758SOL    HW151831  11.398   3.033  10.682  1.5964  0.2972  1.0907
15758SOL    HW251832  11.438   3.119  10.800 -0.9932  2.5444  0.4268
15759SOL     OW51833   2.038   2.553   0.919 -0.3385  0.2009  0.1995
15759SOL    HW151834   2.117   2.598   0.951 -0.1638  0.4951 -0.6221
15759SOL    HW251835   2.067   2.464   0.901 -0.0620  0.4536 -0.6115
15760SOL     OW51836   3.688  10.596   3.303  0.2910  0.2364 -0.0087
15760SOL    HW151837   3.674  10.509   3.265 -0.7156  0.7288 -0.8279
15760SOL    HW251838   3.641  10.594   3.386 -1.3801  0.5779 -0.9023
15761SOL     OW51839   6.433   2.907   4.185  0.3921 -0.0008  0.1104
15761SOL    HW151840   6.479   2.835   4.229  1.8025  0.6607 -0.2291
15761SOL    HW251841   6.374   2.942   4.252  1.5511  0.1345  1.0976
15762SOL     OW51842   8.622   1.844  11.801 -0.3562 -0.1490  0.6457
15762SOL    HW151843   8.703   1.836  11.749  1.2290  0.8595  2.8077
15762SOL    HW251844   8.600   1.754  11.824 -0.1328 -0.4771 -0.3603
15763SOL     OW51845   4.048   3.117   2.097  0.2915 -0.1658 -0.3985
15763SOL    HW151846   4.002   3.185   2.048  0.2449  1.2216  1.4410
15763SOL    HW251847   3.983   3.085   2.160  1.0951  0.0079  0.5413
15764SOL     OW51848   0.132   1.411   4.382  0.0949 -0.4008  0.7688
15764SOL    HW151849   0.184   1.360   4.320  0.7875 -0.8119  1.6504
15764SOL    HW251850   0.074   1.464   4.328  1.7398  0.4016 -0.2927
15765SOL     OW51851  10.693  10.546   4.480 -0.2615  0.3860  0.2087
15765SOL    HW151852  10.765  10.609   4.487  0.8287 -0.7819  0.1300
15765SOL    HW251853  10.615  10.599   4.465  0.6709  1.6794 -0.2577
15766SOL     OW51854   8.317   0.632   6.776  0.3733 -0.0135  1.0904
15766SOL    HW151855   8.247   0.682   6.819 -0.8745 -2.1619  1.7368
15766SOL    HW251856   8.294   0.633   6.683 -0.4836 -0.5786  1.2786
15767SOL     OW51857   1.871   1.579   5.262  0.3514  0.1429  0.4199
15767SOL    HW151858   1.883   1.533   5.179  2.1912  0.2993  0.5628
15767SOL    HW251859   1.825   1.659   5.239  1.9093  0.7793 -0.6830
15768SOL     OW51860   6.101   0.007   1.654 -0.4565  0.2053  0.4476
15768SOL    HW151861   6.042  -0.001   1.728 -0.3423 -1.5099  0.3834
15768SOL    HW251862   6.169   0.068   1.684 -0.2266 -0.7224  1.8807
15769SOL     OW51863   3.618  11.667   3.618 -0.1501 -0.1221  0.2906
15769SOL    HW151864   3.583  11.610   3.550  0.0707 -0.5841  0.5632
15769SOL    HW251865   3.635  11.750   3.573 -1.9881  0.2702  0.2417
15770SOL     OW51866  10.618   9.065  10.630 -0.2790 -0.4864 -0.2307
15770SOL    HW151867  10.678   9.126  10.586 -0.2981  0.4213  0.9539
15770SOL    HW251868  10.579   9.116  10.701 -0.9230 -1.6552  0.2920
15771SOL     OW51869  11.256   3.456   4.061  0.2721 -0.1577 -0.2773
15771SOL    HW151870  11.203   3.428   4.135  0.7159 -1.2778 -0.3637
15771SOL    HW251871  11.213   3.418   3.985 -0.8432  1.9417 -0.7529
15772SOL     OW51872   6.004   1.395  11.849 -0.1822  0.6547 -0.1118
15772SOL    HW151873   6.023   1.406  11.942 -0.3596  1.2188 -0.1394
15772SOL    HW251874   5.916   1.356  11.847  0.8464 -1.8134  0.0102
15773SOL     OW51875   5.696   3.661   2.872 -0.3928 -0.6894 -0.0675
15773SOL    HW151876   5.654   3.747   2.865 -1.0656 -0.9818  0.2911
15773SOL    HW251877   5.789   3.678   2.853 -0.6656 -0.0319 -0.8592
15774SOL     OW51878   6.618  10.867   5.568  0.0676 -0.0982 -0.2911
15774SOL    HW151879   6.681  10.877   5.497  0.4876 -0.9277 -0.0412
15774SOL    HW251880   6.535  10.899   5.532  0.6026  0.9582 -0.6381
15775SOL     OW51881  11.118   0.923  11.947 -0.2149  0.5329 -0.7385
15775SOL    HW151882  11.111   0.836  11.908  1.1147  0.2508 -0.3871
15775SOL    HW251883  11.182   0.913  12.017 -0.5786  1.6401 -0.2211
15776SOL     OW51884   2.534   3.345  10.239 -0.3199 -0.2356  0.0442
15776SOL    HW151885   2.625   3.347  10.268 -0.4411  0.7074  0.3817
15776SOL    HW251886   2.486   3.391  10.308 -1.1283 -1.1222  0.1060
15777SOL     OW51887   0.779   4.679   2.006  0.2189  0.2629  0.5107
15777SOL    HW151888   0.786   4.756   1.950 -0.4271 -0.3564 -0.4535
15777SOL    HW251889   0.700   4.694   2.058  0.2243  0.3606  0.4901
15778SOL     OW51890   6.440   4.755   6.819  0.3715 -0.6397  0.0159
15778SOL    HW151891   6.364   4.800   6.782 -0.2873 -1.2276  0.6317
15778SOL    HW251892   6.515   4.790   6.770 -0.1710  0.7749  0.1490
15779SOL     OW51893  10.196   3.578  11.387 -0.5507 -0.4013 -0.3161
15779SOL    HW151894  10.283   3.557  11.421 -0.6187 -1.9009 -0.9608
15779SOL    HW251895  10.138   3.572  11.463 -0.4434 -1.9483 -0.3163
15780SOL     OW51896   8.090   6.704   8.100  0.1315  0.4344 -0.5915
15780SOL    HW151897   8.041   6.661   8.030 -1.0736  0.1367  0.4150
15780SOL    HW251898   8.045   6.787   8.114 -1.4549 -0.7023  1.7397
15781SOL     OW51899   7.501   0.664   7.837  0.1600  0.3396  0.1840
15781SOL    HW151900   7.467   0.635   7.752 -1.8857  1.8368  0.4187
15781SOL    HW251901   7.511   0.583   7.887 -0.3944 -0.4067 -0.8728
15782SOL     OW51902   6.954   4.416   3.858  0.2407 -0.0061  0.4852
15782SOL    HW151903   7.013   4.481   3.895 -0.7230  1.5609 -0.6324
15782SOL    HW251904   6.867   4.442   3.890 -0.2333 -0.3451 -0.5158
15783SOL     OW51905  11.874   3.224   7.000 -0.0914 -1.1004 -0.8816
15783SOL    HW151906  11.946   3.286   7.011 -1.1614 -0.2774  3.5201
15783SOL    HW251907  11.814   3.267   6.939  1.0826  0.2874 -1.1063
15784SOL     OW51908   2.310   4.024   6.221  0.1215  0.4878 -0.4276
15784SOL    HW151909   2.367   4.031   6.145  0.6751  0.7995  0.0087
15784SOL    HW251910   2.345   4.088   6.283 -0.2344  0.1407  0.1424
15785SOL     OW51911   3.672  11.594   3.314  0.1039  0.5593 -0.4770
15785SOL    HW151912   3.739  11.661   3.326  1.2310 -0.4215 -1.0678
15785SOL    HW251913   3.696  11.525   3.376 -0.8821  0.5734 -0.0652
15786SOL     OW51914   3.918   5.005   9.176  0.4100 -0.1184 -0.3181
15786SOL    HW151915   3.966   4.942   9.122 -1.1185 -1.8180  0.1970
15786SOL    HW251916   3.829   5.003   9.142 -0.2844 -0.2606  1.3850
15787SOL     OW51917   8.292  10.410   2.484 -0.9854 -0.2312 -0.2540
15787SOL    HW151918   8.228  10.459   2.536  0.3485  0.6868  0.5855
15787SOL    HW251919   8.258  10.413   2.395 -2.6830 -0.7639  0.3246
15788SOL     OW51920  10.304   8.332   2.887  0.1266 -0.1067  0.2131
15788SOL    HW151921  10.330   8.328   2.795  2.4520  0.8152  0.7800
15788SOL    HW251922  10.294   8.241   2.914 -2.6868 -0.4163 -1.4166
15789SOL     OW51923   5.316  10.210   8.544 -0.3770  0.3943 -0.0376
15789SOL    HW151924   5.246  10.176   8.489 -0.5629 -0.6548  0.8261
15789SOL    HW251925   5.298  10.174   8.630  0.9449  0.5414  0.3081
15790SOL     OW51926   3.468   7.457   8.104 -0.3014  0.1632 -0.2599
15790SOL    HW151927   3.376   7.479   8.092  0.0657  2.8842  1.0387
15790SOL    HW251928   3.485   7.476   8.196  1.0308 -2.7167  0.2005
15791SOL     OW51929   9.688   7.915   6.182 -0.2153 -0.0504  0.0825
15791SOL    HW151930   9.621   7.952   6.125  0.0291  0.1991 -0.0443
15791SOL    HW251931   9.737   7.990   6.213  0.2984 -0.2667 -0.1937
15792SOL     OW51932  10.600   7.744   8.867  0.3907 -0.2003  0.4134
15792SOL    HW151933  10.673   7.689   8.896 -0.4441 -1.1431  0.7761
15792SOL    HW251934  10.559   7.774   8.948  0.6814  0.7707  0.2166
15793SOL     OW51935   7.364   5.527   2.818 -0.0278 -0.0142 -0.7250
15793SOL    HW151936   7.296   5.538   2.884  0.3696  0.1719 -0.3400
15793SOL    HW251937   7.434   5.587   2.844  1.3780 -1.9800  0.3282
15794SOL     OW51938  10.186   1.433   8.661  0.1916  0.2610  0.1116
15794SOL    HW151939  10.113   1.404   8.716 -0.6741  0.0726 -1.0953
15794SOL    HW251940  10.178   1.380   8.581  1.1123  0.8787 -0.4025
15795SOL     OW51941   4.050  12.036   3.835  0.1976 -0.2907 -0.0984
15795SOL    HW151942   3.962  12.004   3.855 -0.6015  2.5307  1.4016
15795SOL    HW251943   4.036  12.116   3.785  1.9460 -0.0814 -0.3185
15796SOL     OW51944  11.175   3.709   6.731  0.5564  0.3994 -0.4098
15796SOL    HW151945  11.158   3.703   6.826  3.1432  2.1986  0.2605
15796SOL    HW251946  11.109   3.770   6.699 -0.7440 -0.6993  0.0588
15797SOL     OW51947   0.081   5.389   1.287 -0.3411  0.4425 -0.3165
15797SOL    HW151948   0.113   5.317   1.234  1.7405  0.1030  1.2409
15797SOL    HW251949   0.132   5.465   1.257 -0.0644  0.5157  0.3211
15798SOL     OW51950   0.488  11.466   3.372  0.5115  0.6437  0.2912
15798SOL    HW151951   0.480  11.371   3.379  0.2474  0.2692 -3.1796
15798SOL    HW251952   0.408  11.500   3.410  0.1492 -0.6030  0.6815
15799SOL     OW51953  10.785   9.235  10.531  0.1352 -0.4974 -0.1471
15799SOL    HW151954  10.871   9.198  10.511 -0.5420 -1.0963 -2.2436
15799SOL    HW251955  10.804   9.323  10.564  1.5913 -1.1923  1.0047
15800SOL     OW51956   0.955   1.905   0.634 -0.1331  0.1955  0.3697
15800SOL    HW151957   0.992   1.936   0.717  0.9344 -0.4272  0.1310
15800SOL    HW251958   0.995   1.961   0.568 -1.9904  1.6096  0.3273
15801SOL     OW51959   7.584   5.307   4.575  0.0106 -0.0703 -0.0546
15801SOL    HW151960   7.503   5.356   4.589  1.0322  1.5942  0.2907
15801SOL    HW251961   7.591   5.299   4.480 -0.8533 -0.7924 -0.0731
15802SOL     OW51962   7.091   4.051   9.231 -0.2352 -0.0081  0.1596
15802SOL    HW151963   7.016   3.996   9.208  1.4659 -2.0611 -0.8177
15802SOL    HW251964   7.054   4.138   9.243 -2.6526 -0.7569 -1.1736
15803SOL     OW51965   6.385   5.412   4.543 -0.5327  0.1556 -0.5003
15803SOL    HW151966   6.446   5.468   4.495 -0.1808  0.6351  0.4755
15803SOL    HW251967   6.400   5.324   4.509 -0.6768  0.5566 -1.6405
15804SOL     OW51968  11.769   2.160  11.804  0.6050 -0.6642  0.3129
15804SOL    HW151969  11.736   2.249  11.819 -2.7739 -1.8689  0.7828
15804SOL    HW251970  11.723   2.106  11.869 -0.8026 -3.3765 -2.6957
15805SOL     OW51971   0.994   1.693  11.728  0.1728  0.0221 -0.2283
15805SOL    HW151972   1.083   1.726  11.716  1.1220 -1.1299  2.8702
15805SOL    HW251973   0.958   1.746  11.798 -0.6768 -1.1561  0.2563
15806SOL     OW51974   0.508   3.144   1.649 -0.4875 -0.1121  0.1499
15806SOL    HW151975   0.432   3.090   1.670 -2.1398  2.2934  0.7325
15806SOL    HW251976   0.580   3.102   1.696 -1.3586 -2.5237 -0.5004
15807SOL     OW51977   4.078   9.403   4.619  0.1005  0.4556 -0.2896
15807SOL    HW151978   4.068   9.336   4.687 -2.7178  1.3477  0.3254
15807SOL    HW251979   3.989   9.418   4.587 -0.0762  5.9972  1.7258
15808SOL     OW51980   7.241   8.856   8.634 -0.1401 -0.6808  0.2380
15808SOL    HW151981   7.302   8.875   8.705  0.0509  0.2603 -0.1747
15808SOL    HW251982   7.275   8.775   8.594  2.2539  1.0361 -1.4834
15809SOL     OW51983   8.013  11.917   6.197 -0.4418  0.5073  0.2718
15809SOL    HW151984   8.065  11.878   6.268 -0.6853 -1.0106 -0.3483
15809SOL    HW251985   7.978  11.998   6.235  1.5136  1.0549  1.0324
15810SOL     OW51986   2.766   4.200   6.266  0.5568 -0.2071 -0.5336
15810SOL    HW151987   2.694   4.194   6.203  0.9892 -0.6349 -0.9995
15810SOL    HW251988   2.818   4.275   6.236 -0.4660  1.0204  0.6414
15811SOL     OW51989  10.935   1.929   2.717 -0.4295  0.3002 -0.0306
15811SOL    HW151990  10.945   1.930   2.812 -1.0084  1.2006  0.0345
15811SOL    HW251991  10.965   1.843   2.690  0.9569  0.4942  0.8293
15812SOL     OW51992  10.013   4.569   1.615 -0.6310 -0.1298  0.4263
15812SOL    HW151993   9.930   4.575   1.568  0.2971  1.5273 -1.1149
15812SOL    HW251994  10.056   4.491   1.578 -0.0302  0.9986 -1.3735
15813SOL     OW51995  11.152   7.926  10.020 -0.3660  0.4850  0.4225
15813SOL    HW151996  11.071   7.876  10.013 -0.4090  0.5428  0.5183
15813SOL    HW251997  11.130   8.013   9.987  0.0805  0.0336 -1.1675
15814SOL     OW51998   8.589   7.734   8.973 -0.0359 -0.2938  0.2408
15814SOL    HW151999   8.494   7.745   8.978 -0.2152 -2.2084  2.2335
15814SOL    HW252000   8.623   7.823   8.982 -1.5990  0.3597  0.0640
15815SOL     OW52001   1.988   3.587  11.534 -0.3913 -0.0852 -0.5384
15815SOL    HW152002   2.019   3.497  11.530  1.5402  0.5631 -1.8886
15815SOL    HW252003   1.928   3.589  11.608  1.0165 -2.0330  0.7499
15816SOL     OW52004   9.050   7.844  11.844  0.0825  0.1517 -0.8440
15816SOL    HW152005   8.993   7.876  11.774 -0.3370  2.6855  0.5198
15816SOL    HW252006   9.139   7.856  11.809 -0.1254  1.1943 -1.0480
15817SOL     OW52007   0.986   1.755   2.051 -0.0614 -0.0875 -0.1154
15817SOL    HW152008   1.058   1.754   2.114  1.4629  1.7839 -1.6513
15817SOL    HW252009   0.986   1.845   2.018 -1.5194 -0.6988 -1.9363
15818SOL     OW52010   1.222   7.603   9.860 -0.4931 -0.1807  0.2735
15818SOL    HW152011   1.273   7.669   9.906  2.2221 -1.4330 -0.7460
15818SOL    HW252012   1.226   7.628   9.768 -0.5182 -1.0751  0.0161
15819SOL     OW52013  11.035   8.949   2.605 -0.4428 -0.4531 -0.1852
15819SOL    HW152014  10.976   9.025   2.607  0.7304  0.5452 -1.6214
15819SOL    HW252015  11.076   8.948   2.691 -0.0463  0.9102 -0.3360
15820SOL     OW52016   3.091   8.692   4.584 -0.3767 -0.1139 -0.1505
15820SOL    HW152017   2.999   8.676   4.567 -0.4325 -0.2637  0.2984
15820SOL    HW252018   3.110   8.775   4.538 -1.1880  0.9050  1.2858
15821SOL     OW52019   5.578   7.895  11.942 -0.0570  0.4986 -0.3047
15821SOL    HW152020   5.620   7.830  11.885  0.7682  1.1199 -0.4153
15821SOL    HW252021   5.635   7.972  11.937  1.4688 -0.2027  3.2917
15822SOL     OW52022   6.679   3.497   0.854  0.2081  0.1329 -0.7688
15822SOL    HW152023   6.681   3.404   0.879  0.7089  1.0402  3.0806
15822SOL    HW252024   6.607   3.534   0.903  0.4940  1.9736 -1.6618
15823SOL     OW52025   4.299   9.866   2.743  0.4243 -0.7534 -0.3736
15823SOL    HW152026   4.347   9.895   2.821  0.8315 -1.2082 -0.4472
15823SOL    HW252027   4.213   9.839   2.775  0.5403 -0.8003 -0.1024
15824SOL     OW52028   9.596  10.190   4.011 -0.0799  0.0309  0.1314
15824SOL    HW152029   9.630  10.172   4.099 -0.1631 -1.3277 -0.0865
15824SOL    HW252030   9.616  10.110   3.962 -1.3161  0.2137 -0.6889
15825SOL     OW52031   1.935   9.813   9.145  0.3064 -0.1548  0.2446
15825SOL    HW152032   2.029   9.794   9.142 -0.0924 -2.2908 -0.6987
15825SOL    HW252033   1.894   9.727   9.154 -1.5918  0.7086  0.2759
15826SOL     OW52034  10.107  10.514   9.474 -0.7030 -0.2020 -0.3628
15826SOL    HW152035  10.047  10.583   9.445  0.2346  0.9838  0.4062
15826SOL    HW252036  10.104  10.519   9.570  1.5595  0.7991 -0.2703
15827SOL     OW52037   0.861   8.966  12.079 -0.0116  0.4739  0.6714
15827SOL    HW152038   0.776   8.994  12.114 -0.6183 -0.8099  0.2701
15827SOL    HW252039   0.886   8.892  12.134  0.3699  0.2082  0.1412
15828SOL     OW52040   5.824   3.863   1.168 -0.3600  0.2760  0.2487
15828SOL    HW152041   5.769   3.788   1.190  2.4248 -2.5132 -1.3285
15828SOL    HW252042   5.830   3.861   1.072  3.0883 -0.3367  0.3097
15829SOL     OW52043   7.933   4.230   8.123 -0.3914  0.0979 -0.4408
15829SOL    HW152044   8.023   4.246   8.095  0.0131  2.1514  1.6848
15829SOL    HW252045   7.879   4.254   8.048  0.7338  2.4036 -0.5886
15830SOL     OW52046   4.351  11.247   8.509  0.5122 -0.4673  0.1773
15830SOL    HW152047   4.305  11.323   8.546  0.1565 -1.2534  1.3714
15830SOL    HW252048   4.329  11.175   8.567 -0.0177 -1.7463 -1.5461
15831SOL     OW52049   2.604   8.262   3.299  0.1348 -0.2406 -0.5502
15831SOL    HW152050   2.634   8.273   3.389  1.9771 -0.8449 -1.0441
15831SOL    HW252051   2.596   8.167   3.288 -0.2271 -0.1620 -0.9767
15832SOL     OW52052   0.415  11.284   8.459  0.5847 -0.8040  0.5736
15832SOL    HW152053   0.381  11.333   8.385 -0.7076 -0.8258  1.1146
15832SOL    HW252054   0.496  11.329   8.484 -0.6831  1.2543  1.2213
15833SOL     OW52055  10.208   4.249   8.262  0.1965 -0.1837 -0.0384
15833SOL    HW152056  10.215   4.153   8.268 -0.1876 -0.3213 -1.3158
15833SOL    HW252057  10.294   4.278   8.233 -0.2787 -0.4020 -1.8124
15834SOL     OW52058   6.554   5.862   1.594  0.4532 -0.9445  0.1601
15834SOL    HW152059   6.603   5.945   1.594 -0.3270 -0.4690  0.6686
15834SOL    HW252060   6.498   5.867   1.672  0.7109 -2.1515  0.4466
15835SOL     OW52061   6.548   8.857   9.350 -0.1663  0.1038  0.0675
15835SOL    HW152062   6.470   8.913   9.356 -0.9112 -0.8338 -0.5653
15835SOL    HW252063   6.563   8.829   9.440 -1.1357 -0.4574  0.0660
15836SOL     OW52064  11.202   2.299   8.911  0.7109  0.1413  0.8204
15836SOL    HW152065  11.211   2.208   8.884  3.0522  0.7619 -0.8281
15836SOL    HW252066  11.113   2.323   8.887  0.6895 -1.1870 -0.5387
15837SOL     OW52067  10.369   5.520   6.469  0.2373 -0.5977 -0.3493
15837SOL    HW152068  10.299   5.481   6.520  0.5802  0.0409  0.6565
15837SOL    HW252069  10.433   5.549   6.535  1.4414 -1.1481 -1.2241
15838SOL     OW52070  10.635   9.463   5.395  0.0858  0.1704  0.1462
15838SOL    HW152071  10.613   9.547   5.436 -1.0210 -0.5571  1.1180
15838SOL    HW252072  10.714   9.434   5.441  0.3878  0.6005 -0.0925
15839SOL     OW52073   6.938   2.349  11.372  0.0860 -0.0418  0.1981
15839SOL    HW152074   6.968   2.278  11.428 -1.5730 -2.5153 -1.8009
15839SOL    HW252075   6.852   2.373  11.407 -0.6929 -1.1833 -0.8736
15840SOL     OW52076   4.810   1.244   3.304  0.5164  0.1446 -0.0984
15840SOL    HW152077   4.752   1.254   3.380  0.2814  0.1147 -0.2722
15840SOL    HW252078   4.768   1.176   3.252  0.9538 -0.2102  0.0028
15841SOL     OW52079   0.866   3.767   0.898  0.0334 -0.0979 -0.3400
15841SOL    HW152080   0.810   3.774   0.975  0.3946  1.1738 -0.1588
15841SOL    HW252081   0.942   3.718   0.927  0.9186  1.7389  0.6146
15842SOL     OW52082   0.086   1.103   4.017  0.0639  0.3760  0.1395
15842SOL    HW152083   0.006   1.053   4.030  0.8782 -1.0849 -0.2463
15842SOL    HW252084   0.146   1.042   3.973  0.5355  2.2294 -1.9588
15843SOL     OW52085   4.722   8.613   2.897  0.4451 -0.2720 -0.1193
15843SOL    HW152086   4.779   8.539   2.876 -1.7005 -1.7899 -0.9680
15843SOL    HW252087   4.772   8.690   2.872  1.8920 -1.5479 -1.3589
15844SOL     OW52088   0.541   2.838  11.400 -0.2695  0.3880  0.1505
15844SOL    HW152089   0.494   2.793  11.470 -1.8565  1.7270  0.0169
15844SOL    HW252090   0.612   2.884  11.445 -0.9123  0.7517  0.8190
15845SOL     OW52091   5.585   8.619   2.420  0.4397 -0.3919 -0.2611
15845SOL    HW152092   5.595   8.665   2.502 -0.6548 -0.8328  0.1457
15845SOL    HW252093   5.611   8.529   2.439  2.2186 -0.0556 -0.9564
15846SOL     OW52094   7.432   3.605   9.796  0.1294  0.4455  0.0026
15846SOL    HW152095   7.364   3.541   9.777  1.1018 -1.0462  1.3686
15846SOL    HW252096   7.413   3.635   9.885  1.4388 -0.2779  0.5510
15847SOL     OW52097   3.186   6.193   9.719  0.0352 -0.3521 -0.1511
15847SOL    HW152098   3.135   6.217   9.642 -0.2873  1.0289  0.4661
15847SOL    HW252099   3.253   6.260   9.725 -0.6374  0.2298  1.3923
15848SOL     OW52100   4.743  10.306   5.664 -0.0564  0.6517  0.5822
15848SOL    HW152101   4.747  10.214   5.638  0.1701  0.7132  0.3938
15848SOL    HW252102   4.784  10.309   5.750 -0.8376  0.4402  0.9704
15849SOL     OW52103  11.075   5.686   9.390 -0.5384  0.2587 -0.3166
15849SOL    HW152104  11.109   5.620   9.451 -0.6702  1.5278  1.1862
15849SOL    HW252105  11.135   5.684   9.316  0.9907  0.2741  0.8894
15850SOL     OW52106   1.432   8.127  10.481 -0.4721  0.4385  0.4047
15850SOL    HW152107   1.390   8.112  10.566  1.5941 -0.1467  1.3816
15850SOL    HW252108   1.526   8.122  10.499  0.0663  1.6270 -1.6843
15851SOL     OW52109   7.147   2.858  10.938  0.0489  0.4532  0.0010
15851SOL    HW152110   7.174   2.864  10.846  0.9457  1.3713  0.3075
15851SOL    HW252111   7.214   2.805  10.980 -1.0911 -1.1704 -0.1153
15852SOL     OW52112  11.760   3.643   8.537  0.0105 -0.1719 -0.5384
15852SOL    HW152113  11.803   3.575   8.485  0.2604  0.9627 -1.9128
15852SOL    HW252114  11.760   3.720   8.479 -2.0996  0.4278  0.1643
15853SOL     OW52115  11.999   2.261   2.480  0.3772  0.0744  0.6992
15853SOL    HW152116  11.965   2.172   2.468 -0.6593  0.4643  0.7084
15853SOL    HW252117  12.066   2.269   2.411 -1.6286  0.3273 -1.3428
15854SOL     OW52118   5.077   7.074   3.075 -0.1761  0.7770  0.2014
15854SOL    HW152119   5.126   7.003   3.117 -0.1944 -0.8186 -2.2579
15854SOL    HW252120   5.142   7.141   3.056  0.8190 -0.5582 -1.4267
15855SOL     OW52121   6.198   8.572   4.982  0.2717 -0.5706 -0.0138
15855SOL    HW152122   6.193   8.476   4.977  1.7875 -0.7126  0.5873
15855SOL    HW252123   6.195   8.591   5.076  1.2731 -0.1395 -0.0551
15856SOL     OW52124   9.968   4.207   6.610 -0.0094 -0.4285  0.1788
15856SOL    HW152125  10.059   4.205   6.582  0.1480  0.8534  0.5754
15856SOL    HW252126   9.971   4.185   6.703 -0.2170 -1.3136 -0.0066
15857SOL     OW52127   6.149   6.669   3.949 -0.5938 -0.5031 -0.3893
15857SOL    HW152128   6.135   6.705   4.037 -2.2678  0.2037 -0.9038
15857SOL    HW252129   6.148   6.574   3.962  0.4923 -0.4256  0.5061
15858SOL     OW52130   9.428   0.782  10.980  0.4681 -0.1818 -0.5088
15858SOL    HW152131   9.406   0.711  11.040  0.7552 -0.0621 -0.2579
15858SOL    HW252132   9.519   0.804  11.001  0.4521  0.1109 -0.7347
15859SOL     OW52133   5.479   9.541   5.533  0.2480  0.5157 -0.1711
15859SOL    HW152134   5.549   9.484   5.564  1.0495 -0.0398 -2.7658
15859SOL    HW252135   5.524   9.621   5.505 -0.7085  1.9471  2.1054
15860SOL     OW52136   3.113   5.157  10.235  0.2192  0.0084 -0.1711
15860SOL    HW152137   3.090   5.071  10.199  0.6804  0.3189 -1.2380
15860SOL    HW252138   3.097   5.148  10.329  0.9993 -1.4930 -0.1460
15861SOL     OW52139   8.446   3.688  10.317 -0.5372 -0.2830  0.0148
15861SOL    HW152140   8.494   3.607  10.333  0.3873  0.4183  0.9620
15861SOL    HW252141   8.509   3.757  10.340 -1.6681  0.6800  0.2770
15862SOL     OW52142   4.994   5.998   3.265  0.3136  0.1716  0.4580
15862SOL    HW152143   4.977   6.088   3.236 -0.8457  0.0198  0.6042
15862SOL    HW252144   4.937   5.945   3.210  1.6111 -0.5771 -0.2146
15863SOL     OW52145   8.800   0.975   4.299 -0.0507  0.1001 -0.3498
15863SOL    HW152146   8.824   0.898   4.248 -0.3807 -0.0483 -0.2850
15863SOL    HW252147   8.726   1.013   4.251 -1.4619 -0.9724  0.8670
15864SOL     OW52148  11.287   5.819   3.647 -0.0063 -0.1303  0.1582
15864SOL    HW152149  11.283   5.726   3.623 -2.1405  0.2784 -1.2860
15864SOL    HW252150  11.315   5.863   3.567  4.7400  0.2859  1.7385
15865SOL     OW52151   5.826   5.852   9.579  0.3914 -0.1083 -0.0920
15865SOL    HW152152   5.752   5.858   9.640  1.9220  2.5103  1.7125
15865SOL    HW252153   5.792   5.889   9.497 -0.7170 -0.3115  0.2563
15866SOL     OW52154   4.645   3.956   4.377  0.1273  0.2179 -0.1964
15866SOL    HW152155   4.583   4.020   4.412 -0.9908 -1.1598  0.4338
15866SOL    HW252156   4.625   3.953   4.283  0.2921  0.8916 -0.2581
15867SOL     OW52157   7.609  10.099   2.283  0.4285  0.0950 -0.6665
15867SOL    HW152158   7.585  10.174   2.338  0.2411  0.2495 -0.9610
15867SOL    HW252159   7.698  10.119   2.254 -0.0929  0.8228 -1.7972
15868SOL     OW52160   5.735   9.203   7.661  0.2744 -0.3139 -0.2904
15868SOL    HW152161   5.782   9.168   7.585  0.0097 -0.1670 -0.5269
15868SOL    HW252162   5.711   9.126   7.712  2.6597 -0.2901  0.9957
15869SOL     OW52163   2.931   0.247  11.367 -0.3852  0.1336  0.0332
15869SOL    HW152164   2.949   0.153  11.364 -0.8793  0.0454 -0.3720
15869SOL    HW252165   2.943   0.271  11.458  2.7902  0.3139 -0.3255
15870SOL     OW52166   9.802   6.902   1.798 -0.1323 -0.0402 -0.4013
15870SOL    HW152167   9.882   6.858   1.827  0.3009  0.1339 -1.2802
15870SOL    HW252168   9.731   6.842   1.824  0.1440  0.4381  1.6073
15871SOL     OW52169   6.793   3.995   9.111  0.2575 -0.0331 -0.2658
15871SOL    HW152170   6.742   3.923   9.148 -0.3209 -0.7396 -2.2966
15871SOL    HW252171   6.731   4.068   9.103  0.0192 -0.3105 -1.0412
15872SOL     OW52172   6.618   1.307  11.914 -0.1375 -0.7011  0.3698
15872SOL    HW152173   6.544   1.247  11.926  0.6285 -1.9147 -0.6614
15872SOL    HW252174   6.593   1.361  11.839  0.2807 -1.5746 -0.4185
15873SOL     OW52175   0.130   6.761   2.856 -0.1954 -0.0716 -0.3012
15873SOL    HW152176   0.078   6.822   2.804  0.9388  1.8211  0.6991
15873SOL    HW252177   0.182   6.816   2.914  1.5592 -1.9471  0.0388
15874SOL     OW52178   3.331   8.790   8.139  0.7312 -0.4428  0.7978
15874SOL    HW152179   3.418   8.777   8.177  0.8793  1.1863  1.0957
15874SOL    HW252180   3.271   8.749   8.201  1.0702  1.1119  2.2229
15875SOL     OW52181   2.829   9.230   3.224 -0.3834  0.2627  0.2964
15875SOL    HW152182   2.782   9.286   3.163  0.0770  2.0849  1.5402
15875SOL    HW252183   2.905   9.281   3.251  0.6842 -1.4114  0.6423
15876SOL     OW52184   1.149   1.581   8.590  0.5079 -0.1975  0.1000
15876SOL    HW152185   1.143   1.605   8.682 -1.9415 -2.7969  0.7538
15876SOL    HW252186   1.108   1.654   8.544  0.4939  0.5056  1.1968
15877SOL     OW52187   5.863   6.562   7.163 -0.7154  0.0835 -0.2514
15877SOL    HW152188   5.846   6.654   7.144 -0.6825  0.3563  0.9577
15877SOL    HW252189   5.890   6.525   7.080 -1.8690  0.9016 -1.0248
15878SOL     OW52190   8.795   7.625   0.800  0.4403 -0.3777  0.2837
15878SOL    HW152191   8.788   7.627   0.896 -1.1515 -0.1520  0.1855
15878SOL    HW252192   8.868   7.565   0.783  0.1118 -1.2105  1.6218
15879SOL     OW52193   9.582  11.983  10.475 -0.0726  0.1234  0.3430
15879SOL    HW152194   9.531  11.904  10.459 -0.4565  0.3427  0.4549
15879SOL    HW252195   9.638  11.992  10.398 -1.5407  0.8973 -0.6980
15880SOL     OW52196  10.091   1.305   0.765  0.6356  0.4953 -0.1450
15880SOL    HW152197  10.003   1.340   0.777  1.2733  1.6698  1.3449
15880SOL    HW252198  10.079   1.232   0.704 -1.4348  0.3035  0.4067
15881SOL     OW52199   8.292   9.265  11.637 -0.2627 -0.0107  0.5482
15881SOL    HW152200   8.279   9.360  11.645  0.6392  0.2100 -0.4919
15881SOL    HW252201   8.210   9.228  11.671 -1.4320  1.1954 -0.8101
15882SOL     OW52202   7.169   3.522  11.177  0.2231  0.3469 -0.4585
15882SOL    HW152203   7.260   3.495  11.164 -0.7006 -2.9849 -0.9336
15882SOL    HW252204   7.175   3.599  11.233  3.3567  0.8055 -1.2125
15883SOL     OW52205   2.532  10.442   0.455  0.2739  0.1239  0.1015
15883SOL    HW152206   2.466  10.375   0.470  0.3174  0.0153 -0.1867
15883SOL    HW252207   2.615  10.396   0.462  0.2813 -0.0377 -0.9896
15884SOL     OW52208   8.227   6.463   7.213  0.0957  0.8700  0.3018
15884SOL    HW152209   8.221   6.514   7.294  0.1763 -1.2229  1.7250
15884SOL    HW252210   8.321   6.458   7.196  0.0611  1.5950 -0.1269
15885SOL     OW52211   3.033   8.225   1.960  0.2750  0.0967 -0.0539
15885SOL    HW152212   3.053   8.136   1.989 -0.5427  0.3654  1.4049
15885SOL    HW252213   3.048   8.280   2.037  1.1728  1.2995 -1.0499
15886SOL     OW52214   4.936   8.546   0.151 -0.0647 -0.0873  0.1890
15886SOL    HW152215   5.007   8.606   0.131 -0.5608  0.8824  1.1928
15886SOL    HW252216   4.900   8.578   0.234  0.1900 -2.2828  1.2154
15887SOL     OW52217  11.683   5.540   4.873  0.3373 -0.2470 -0.1649
15887SOL    HW152218  11.588   5.534   4.866  0.0110  2.0748  1.2983
15887SOL    HW252219  11.703   5.632   4.857  2.0083 -0.0316  2.5256
15888SOL     OW52220   2.260   6.725   4.331 -0.3757 -0.2344 -0.0096
15888SOL    HW152221   2.270   6.691   4.242  0.6321 -0.8914  0.3293
15888SOL    HW252222   2.196   6.667   4.371  0.0892 -0.7199  0.0527
15889SOL     OW52223   3.539   3.008   6.304  0.2385 -0.9836  0.3372
15889SOL    HW152224   3.469   3.041   6.248  0.9216 -2.7821 -1.7239
15889SOL    HW252225   3.498   2.994   6.389 -1.8391 -1.7014 -0.7227
15890SOL     OW52226  10.817  11.120   5.819 -0.4704 -0.4246 -0.3955
15890SOL    HW152227  10.872  11.184   5.864  1.3849 -0.9111 -1.8231
15890SOL    HW252228  10.776  11.170   5.748  0.0115 -0.5238 -0.7553
15891SOL     OW52229   5.693   2.919   0.207 -0.9460  0.5052 -0.1845
15891SOL    HW152230   5.680   2.859   0.133 -1.3368  0.3402  0.0143
15891SOL    HW252231   5.779   2.958   0.191  0.2275 -1.5705  0.7061
15892SOL     OW52232   2.121   6.380   9.634  0.0523 -0.3782 -0.1842
15892SOL    HW152233   2.149   6.325   9.708  0.0013 -0.1863 -0.0212
15892SOL    HW252234   2.060   6.443   9.673 -0.4919 -0.6935 -0.5078
15893SOL     OW52235  11.791   0.991   2.205  0.3485  0.1756  0.5729
15893SOL    HW152236  11.786   1.002   2.110 -0.1774 -1.4598  0.3864
15893SOL    HW252237  11.867   1.043   2.231  0.0337  1.2870 -0.6290
15894SOL     OW52238   7.468   3.229   1.437 -0.4467 -0.3560 -0.1328
15894SOL    HW152239   7.444   3.173   1.363 -0.5387 -1.6350  0.8208
15894SOL    HW252240   7.564   3.236   1.431 -0.3981 -0.9156 -0.0648
15895SOL     OW52241   7.242   7.443   3.031  0.4874 -0.7686 -0.1967
15895SOL    HW152242   7.336   7.432   3.012  0.6588  0.9597 -0.4471
15895SOL    HW252243   7.238   7.514   3.094 -0.7961  1.1907 -2.3440
15896SOL     OW52244   6.545   7.099   0.465 -0.4321  0.4602 -0.0389
15896SOL    HW152245   6.566   7.171   0.406  0.3927  0.2098 -0.0622
15896SOL    HW252246   6.537   7.140   0.551  1.2977  0.4248  0.1698
15897SOL     OW52247  10.913   9.548   2.808  0.4716  0.3913 -0.5923
15897SOL    HW152248  10.902   9.478   2.872  0.0592  1.8336  0.9859
15897SOL    HW252249  10.987   9.520   2.754  1.0939 -0.6957  0.7710
15898SOL     OW52250   0.408   3.725   2.444 -0.4062  0.2337  0.2297
15898SOL    HW152251   0.446   3.692   2.362 -0.3413 -1.3121  0.8485
15898SOL    HW252252   0.481   3.770   2.487 -0.0160 -0.2933  0.1337
15899SOL     OW52253   7.051   8.254  11.368 -0.4805  0.9013  0.3852
15899SOL    HW152254   7.010   8.170  11.388 -1.2967  1.0914 -0.4327
15899SOL    HW252255   7.135   8.251  11.414 -0.6802 -0.1802  0.7119
15900SOL     OW52256   7.716   7.095   0.360  0.1745 -0.8869 -0.2612
15900SOL    HW152257   7.667   7.018   0.388  0.3867 -1.1430 -0.5818
15900SOL    HW252258   7.806   7.065   0.354  0.4427 -0.3098  0.7282
15901SOL     OW52259   3.119  11.649   3.486 -0.3505  0.3538  0.1529
15901SOL    HW152260   3.128  11.730   3.436  0.6363  0.7799  0.9892
15901SOL    HW252261   3.146  11.672   3.575 -2.2896 -0.3204  0.9799
15902SOL     OW52262   0.065   7.014   8.843 -0.0856 -0.2602  0.2545
15902SOL    HW152263   0.138   6.962   8.876  0.9196  0.6132 -0.5441
15902SOL    HW252264   0.007   6.950   8.801  0.0884 -0.9832  1.0685
15903SOL     OW52265   7.686   0.501  11.382 -0.0184 -0.2981 -0.2599
15903SOL    HW152266   7.709   0.490  11.474 -0.0541 -0.3919 -0.2613
15903SOL    HW252267   7.611   0.560  11.383 -2.5145 -3.1966  0.0697
15904SOL     OW52268  10.135   8.171   1.370 -0.5279 -0.0457 -0.1942
15904SOL    HW152269  10.133   8.077   1.355 -0.9138  0.0972 -1.0496
15904SOL    HW252270  10.210   8.184   1.429  1.4120 -0.5741 -2.4193
15905SOL     OW52271  11.685   7.352   4.160  0.2729  0.5915  0.2783
15905SOL    HW152272  11.701   7.292   4.087  2.2626  0.3772  0.8408
15905SOL    HW252273  11.762   7.343   4.217  0.9563  4.0276  0.1545
15906SOL     OW52274  11.280   4.864   9.808 -0.5381 -0.0991  0.4998
15906SOL    HW152275  11.305   4.899   9.893  0.2090 -0.7120  0.5436
15906SOL    HW252276  11.320   4.777   9.805 -0.6670 -0.1381 -0.4248
15907SOL     OW52277   9.130   0.464   6.583  0.0159 -0.0593 -0.1987
15907SOL    HW152278   9.086   0.437   6.664 -1.0349 -0.5213 -0.9058
15907SOL    HW252279   9.059   0.490   6.525  0.6370 -1.2510 -1.5344
15908SOL     OW52280   4.533   8.225   5.380 -0.4151 -0.0673 -0.4508
15908SOL    HW152281   4.511   8.179   5.461  0.4079  1.4801  0.7098
15908SOL    HW252282   4.577   8.159   5.326 -2.4041 -1.5698 -0.3602
15909SOL     OW52283  11.639   0.257  10.597  0.0021  0.4427  0.0018
15909SOL    HW152284  11.604   0.325  10.655 -1.5491  0.2915 -0.7279
15909SOL    HW252285  11.627   0.292  10.509 -1.8890 -1.2159 -0.4611
15910SOL     OW52286   0.130   8.295   7.124 -0.8705  0.0406  0.5761
15910SOL    HW152287   0.163   8.358   7.059  0.8604 -1.2460  0.1530
15910SOL    HW252288   0.123   8.345   7.205  0.7797  0.7433  0.3264
15911SOL     OW52289   6.145   9.900  10.881 -0.1543 -0.2235  1.1749
15911SOL    HW152290   6.240   9.891  10.877 -0.0296  1.0402  0.7520
15911SOL    HW252291   6.128   9.988  10.847 -1.2973  0.3902  3.1678
15912SOL     OW52292  12.016   4.052   6.296 -0.5079 -0.3080 -0.2169
15912SOL    HW152293  11.979   4.127   6.251 -0.6317 -1.0144 -1.3363
15912SOL    HW252294  12.051   3.997   6.226  0.2982 -0.9171  0.6308
15913SOL     OW52295  11.131  10.243   7.339 -0.0868 -0.0087  0.0062
15913SOL    HW152296  11.173  10.170   7.385 -1.1697 -0.9019 -0.3889
15913SOL    HW252297  11.188  10.260   7.264 -0.8059 -1.7765 -1.0001
15914SOL     OW52298  11.353  11.544  11.129 -0.2794 -0.7752 -0.2885
15914SOL    HW152299  11.304  11.625  11.118  0.4593 -0.6540 -3.8452
15914SOL    HW252300  11.291  11.475  11.107  0.1114 -0.8899 -1.0403
15915SOL     OW52301   9.297  11.527  11.362  0.7464  0.6294  1.0238
15915SOL    HW152302   9.246  11.463  11.312 -1.2671  0.0500  3.6306
15915SOL    HW252303   9.375  11.541  11.309 -0.1899 -1.6282 -1.1572
15916SOL     OW52304   5.636   0.258   1.839 -0.5154  0.6788  0.2648
15916SOL    HW152305   5.577   0.254   1.914  0.1643  1.6620  0.8770
15916SOL    HW252306   5.665   0.168   1.826 -1.4216  0.3403  0.5408
15917SOL     OW52307   9.083   4.213   8.814  0.2753 -0.1866 -0.3488
15917SOL    HW152308   9.046   4.242   8.730  0.2614 -0.4966 -0.4507
15917SOL    HW252309   9.006   4.202   8.871  0.4386  2.3535  0.4575
15918SOL     OW52310   2.142   3.170   3.077 -0.7292  0.5100  0.3187
15918SOL    HW152311   2.051   3.148   3.056 -0.6793  0.4327  0.1778
15918SOL    HW252312   2.193   3.103   3.032 -0.6771 -0.5281  1.8829
15919SOL     OW52313   9.485   5.626  11.707  0.0394 -0.6127 -0.2623
15919SOL    HW152314   9.547   5.624  11.780  1.0115 -0.3854 -1.0617
15919SOL    HW252315   9.521   5.691  11.646  0.5736 -2.4742 -2.0622
15920SOL     OW52316   9.993   2.502   1.250  0.1861  0.3947  0.1083
15920SOL    HW152317   9.961   2.586   1.282 -0.8199  0.9498 -2.1639
15920SOL    HW252318   9.955   2.437   1.309 -2.8860  1.2440 -0.7392
15921SOL     OW52319  10.783   6.842   3.396  0.5286  0.1562  0.4517
15921SOL    HW152320  10.870   6.825   3.362  0.1670 -2.7011  0.6697
15921SOL    HW252321  10.727   6.849   3.319  0.5940 -0.4433  0.3481
15922SOL     OW52322   1.908  11.023   4.748 -0.3217  0.1781 -0.9285
15922SOL    HW152323   1.919  10.928   4.753  2.2364  0.4497  2.5167
15922SOL    HW252324   1.981  11.053   4.693 -0.6099  0.2394 -1.2855
15923SOL     OW52325   9.747   5.373  10.098  0.0046 -0.0293 -0.6035
15923SOL    HW152326   9.666   5.380  10.048 -0.3322  0.1204 -0.0447
15923SOL    HW252327   9.816   5.381  10.032 -0.4271  0.2863 -1.0288
15924SOL     OW52328   6.075   6.248   8.521  0.0215 -0.7275  0.1463
15924SOL    HW152329   6.162   6.275   8.489  0.9128 -2.3875  1.0610
15924SOL    HW252330   6.014   6.304   8.472  1.6100  0.9814 -0.0197
15925SOL     OW52331   2.670   6.313   5.383  0.8173 -0.7012  0.0570
15925SOL    HW152332   2.622   6.351   5.456 -1.0412  0.8000 -1.8121
15925SOL    HW252333   2.625   6.230   5.364  0.4184 -0.4285 -0.2123
15926SOL     OW52334   8.396   6.503   3.092 -0.1868 -0.2702 -0.6658
15926SOL    HW152335   8.431   6.590   3.071  0.3416 -0.3561 -0.1642
15926SOL    HW252336   8.473   6.451   3.115 -0.3230 -1.3157 -2.3955
15927SOL     OW52337   3.441  10.388   7.394  0.0081  0.6977  0.3763
15927SOL    HW152338   3.411  10.476   7.417  0.0280  1.1034 -1.0401
15927SOL    HW252339   3.536  10.390   7.405  0.2368  1.4544 -1.3918
15928SOL     OW52340   9.679   9.820   5.080 -0.2669  0.3938 -0.3431
15928SOL    HW152341   9.688   9.907   5.118 -2.6723  0.3004  0.6462
15928SOL    HW252342   9.754   9.771   5.114 -0.7669  1.1204  2.0120
15929SOL     OW52343   6.368   2.209   7.878 -0.1204 -0.1618  0.9184
15929SOL    HW152344   6.385   2.139   7.814  2.8155  0.7630  0.5222
15929SOL    HW252345   6.324   2.277   7.827  0.6799 -0.1174  0.2583
15930SOL     OW52346   8.287  10.777   6.585 -0.5403  0.0768 -0.0789
15930SOL    HW152347   8.354  10.819   6.530 -2.3578  0.8024 -1.8458
15930SOL    HW252348   8.308  10.806   6.674  1.5610  0.1451 -0.5404
15931SOL     OW52349  11.070   2.685   1.945 -0.2808  0.8078  0.2880
15931SOL    HW152350  11.146   2.684   2.004  0.0336  0.7226 -0.1159
15931SOL    HW252351  10.996   2.707   2.002 -0.1628 -0.3923  0.9367
15932SOL     OW52352   8.580   5.196   9.665  0.3510 -0.2474 -0.3224
15932SOL    HW152353   8.567   5.229   9.576  0.6028  0.0585 -0.2431
15932SOL    HW252354   8.563   5.102   9.657 -1.0204 -0.0162 -0.4143
15933SOL     OW52355  11.276   8.750   0.067  0.3838 -0.8752 -0.5609
15933SOL    HW152356  11.331   8.796   0.130 -0.4695 -0.2435 -0.2533
15933SOL    HW252357  11.193   8.737   0.113 -1.4143  2.3614 -2.4610
15934SOL     OW52358   0.020   0.529  11.271  0.3786 -0.2949  0.0972
15934SOL    HW152359   0.005   0.619  11.241  0.5577 -0.3793 -0.2513
15934SOL    HW252360   0.039   0.537  11.364 -1.0024 -0.0938  0.3892
15935SOL     OW52361   9.383   9.902   3.849  0.3457 -0.1599 -0.0325
15935SOL    HW152362   9.475   9.927   3.849  0.5218 -0.7418 -1.2403
15935SOL    HW252363   9.336   9.985   3.852  0.8961  0.1193  1.3108
15936SOL     OW52364   0.872  10.744   0.587 -0.1500 -0.6358  0.4680
15936SOL    HW152365   0.892  10.799   0.664  1.1387 -1.5758  0.8433
15936SOL    HW252366   0.943  10.679   0.586 -1.7112 -2.4007  0.1334
15937SOL     OW52367   1.050  10.496   2.178 -0.1854 -0.3455 -0.6854
15937SOL    HW152368   1.124  10.491   2.116 -0.4435 -0.0937 -1.0149
15937SOL    HW252369   1.088  10.470   2.262  0.8388  1.9973 -0.3618
15938SOL     OW52370   4.337   3.822   7.957  0.2384  0.0271 -0.5576
15938SOL    HW152371   4.301   3.911   7.954  0.2737  0.0839  0.6168
15938SOL    HW252372   4.429   3.834   7.979  0.3699 -0.2768 -0.9313
15939SOL     OW52373   5.401  11.853   8.890  0.3802 -0.0897  0.2541
15939SOL    HW152374   5.313  11.872   8.922  0.3693 -0.3282  0.3669
15939SOL    HW252375   5.411  11.759   8.902  1.2039  0.1477  1.6420
15940SOL     OW52376  11.541   9.835   6.451 -0.0188  0.2431  0.2533
15940SOL    HW152377  11.449   9.827   6.427 -0.0891  0.3526  0.4790
15940SOL    HW252378  11.561   9.756   6.501 -0.8274  1.5640  2.8530
15941SOL     OW52379   7.400   4.972   7.086  0.3530 -0.1988  0.2130
15941SOL    HW152380   7.346   4.984   7.164  0.1207  0.1974 -0.0121
15941SOL    HW252381   7.339   4.943   7.018  0.4619  0.0259  0.0194
15942SOL     OW52382   0.495   9.536   7.944  0.0972 -0.5369 -0.0520
15942SOL    HW152383   0.559   9.597   7.906  0.5094 -0.2636  1.0217
15942SOL    HW252384   0.448   9.589   8.009 -0.2299 -1.1008  0.1716
15943SOL     OW52385   7.260   7.576   3.925 -0.5400 -0.2877  0.1534
15943SOL    HW152386   7.241   7.638   3.996  1.4821  1.3427 -0.6532
15943SOL    HW252387   7.259   7.629   3.846  0.9603 -1.3468 -0.6122
15944SOL     OW52388   2.131   5.138   2.806  0.1765 -0.0811  0.6586
15944SOL    HW152389   2.132   5.232   2.821 -0.1600  0.3440 -1.6605
15944SOL    HW252390   2.053   5.123   2.752 -1.5845 -2.1839  3.4585
15945SOL     OW52391  10.603  10.673   9.367 -0.0299 -0.2220  0.1315
15945SOL    HW152392  10.543  10.740   9.333 -1.9725 -2.7739 -1.9005
15945SOL    HW252393  10.686  10.692   9.324 -0.4515  1.0574 -0.1681
15946SOL     OW52394  10.248   3.936   4.994 -0.7499 -0.1296  0.1334
15946SOL    HW152395  10.168   3.903   5.033  0.4395  0.2027  3.1024
15946SOL    HW252396  10.221   4.016   4.948 -1.8202  1.6976  3.5714
15947SOL     OW52397   1.998   2.286   4.755 -0.0108  0.2606 -0.5036
15947SOL    HW152398   1.913   2.243   4.761  0.2835 -0.2780 -0.1681
15947SOL    HW252399   2.050   2.231   4.696 -0.0310  0.8251 -1.0669
15948SOL     OW52400  10.792   6.754   8.956 -0.2584 -0.3824 -0.0456
15948SOL    HW152401  10.842   6.835   8.966 -1.0052 -0.1334  1.9826
15948SOL    HW252402  10.757   6.760   8.867  0.6147  0.9822 -0.3393
15949SOL     OW52403  11.614   3.929   4.910  0.3027  0.5712  0.0238
15949SOL    HW152404  11.615   4.020   4.939 -0.4948  0.4604  0.4258
15949SOL    HW252405  11.571   3.931   4.825  0.8619  0.6411 -0.2664
15950SOL     OW52406  10.216   2.371   7.223 -0.1551  0.0560 -0.4882
15950SOL    HW152407  10.198   2.320   7.144 -1.3664  1.5109 -1.2004
15950SOL    HW252408  10.146   2.436   7.227 -0.6544 -0.5036  2.2865
15951SOL     OW52409  10.322   5.190   9.706  0.2133 -0.1477 -0.5132
15951SOL    HW152410  10.417   5.207   9.703  0.4621 -1.2619  0.1909
15951SOL    HW252411  10.306   5.132   9.631  0.0837  0.0757 -0.6563
15952SOL     OW52412   4.201   0.763   7.642  0.5564 -0.1057  0.1687
15952SOL    HW152413   4.137   0.760   7.714  0.3642  1.4420  0.1052
15952SOL    HW252414   4.284   0.742   7.684  0.4567  0.8221  0.8879
15953SOL     OW52415   6.821   2.491   2.526  0.1733 -0.5097 -0.5695
15953SOL    HW152416   6.838   2.585   2.521  1.5330 -0.7452 -0.6211
15953SOL    HW252417   6.862   2.455   2.447  1.6426 -1.4005  0.5465
15954SOL     OW52418   6.279   0.713   9.472  0.0159  0.4055  0.1746
15954SOL    HW152419   6.258   0.653   9.402 -0.2316  0.8679 -0.1529
15954SOL    HW252420   6.200   0.715   9.527  0.1025  0.2676  0.3046
15955SOL     OW52421   2.568   2.686   0.802  0.5414 -0.0848  0.7253
15955SOL    HW152422   2.627   2.698   0.727  1.4317 -1.0894  1.2351
15955SOL    HW252423   2.554   2.591   0.806 -0.5698  0.0830  1.0383
15956SOL     OW52424   6.511   0.787   9.239  0.3701 -0.2814  0.3753
15956SOL    HW152425   6.472   0.859   9.289  0.4395  0.0577 -0.0559
15956SOL    HW252426   6.536   0.723   9.305 -1.8534 -0.9906  0.6388
15957SOL     OW52427  11.660   3.828   9.541 -0.5410 -0.6403  0.2378
15957SOL    HW152428  11.566   3.834   9.523 -0.6080  0.7301  0.8735
15957SOL    HW252429  11.702   3.846   9.457 -0.8692  0.5464  0.3035
15958SOL     OW52430  11.724   2.032   0.944 -0.1226 -0.5856  0.6064
15958SOL    HW152431  11.767   1.981   0.875  0.4213  0.8396 -0.1581
15958SOL    HW252432  11.637   1.994   0.952  0.2561 -1.6148  0.0650
15959SOL     OW52433   6.296  12.100   9.267  0.1504 -0.3478  0.0076
15959SOL    HW152434   6.257  12.151   9.196  0.8882  1.7546  0.9951
15959SOL    HW252435   6.389  12.124   9.265  0.8108 -2.7426 -0.2894
15960SOL     OW52436   1.563   4.519   8.619 -0.1826 -0.1007  0.7495
15960SOL    HW152437   1.652   4.503   8.651  0.7869 -0.0055 -1.6814
15960SOL    HW252438   1.513   4.444   8.650  1.3599 -1.4656  0.1132
15961SOL     OW52439   0.719   2.933  11.593 -0.5049 -0.0997 -0.3426
15961SOL    HW152440   0.669   2.874  11.649  1.0418  0.0851  1.2973
15961SOL    HW252441   0.809   2.903  11.600 -0.0906  0.7329 -1.7380
15962SOL     OW52442   4.882   7.808  10.894  0.2447 -0.3566 -0.2919
15962SOL    HW152443   4.864   7.741  10.829  0.2980 -0.6113 -0.0439
15962SOL    HW252444   4.934   7.764  10.961  1.0667  0.1494 -0.5795
15963SOL     OW52445   2.834   9.382  11.542  0.2311 -1.2478  0.5556
15963SOL    HW152446   2.894   9.400  11.470  0.7193  0.7312  1.3802
15963SOL    HW252447   2.839   9.461  11.597 -1.0478 -2.1863  2.0932
15964SOL     OW52448  10.190   1.737   4.003 -0.0870  0.1008 -0.4973
15964SOL    HW152449  10.104   1.735   3.962 -1.1657  1.5039  1.5313
15964SOL    HW252450  10.211   1.830   4.013  1.1261 -0.2108  0.0917
15965SOL     OW52451   1.268   9.372   5.881  0.5697 -0.0338 -0.9527
15965SOL    HW152452   1.363   9.370   5.896  0.5160  0.3651 -0.5537
15965SOL    HW252453   1.247   9.282   5.856  1.0041 -0.2028 -0.7332
15966SOL     OW52454   8.786   9.824   2.982  0.2689 -0.6727 -0.2226
15966SOL    HW152455   8.695   9.802   2.962  0.2054 -0.9141  0.3212
15966SOL    HW252456   8.790   9.828   3.077  0.3754  1.2329 -0.2724
15967SOL     OW52457   7.730   3.335   7.935  0.0002 -0.0430  0.5628
15967SOL    HW152458   7.793   3.372   7.873 -1.1023 -0.9430 -1.1857
15967SOL    HW252459   7.772   3.257   7.970  0.0045 -0.4592 -0.3506
15968SOL     OW52460   9.760   6.724   9.340  0.1559  0.6673 -0.3447
15968SOL    HW152461   9.666   6.707   9.336  0.0232  1.5243 -2.2817
15968SOL    HW252462   9.793   6.695   9.254  1.6150  0.6226  0.2012
15969SOL     OW52463   2.228   5.292   3.925  0.2941 -0.2304 -0.0349
15969SOL    HW152464   2.167   5.306   3.852  1.9746  0.7481 -1.3323
15969SOL    HW252465   2.307   5.259   3.884  0.8510 -0.9973  1.5566
15970SOL     OW52466   9.012  10.355   1.226 -0.0762  0.6044  0.5977
15970SOL    HW152467   9.032  10.266   1.255 -0.4627  0.1639 -0.4559
15970SOL    HW252468   9.095  10.387   1.190 -0.0084  0.5685  0.7204
15971SOL     OW52469   5.820   4.309   9.554  0.2575  0.8389  0.4259
15971SOL    HW152470   5.846   4.281   9.642 -0.8972 -0.9704  0.2203
15971SOL    HW252471   5.746   4.368   9.568  0.1465  0.6408  0.6721
15972SOL     OW52472   6.861   4.910   0.985 -0.6068 -0.1646  0.5737
15972SOL    HW152473   6.809   4.989   0.969 -1.1575 -0.9343 -1.9737
15972SOL    HW252474   6.944   4.927   0.941 -0.3679 -0.6310  0.8398
15973SOL     OW52475   9.681   3.398   8.758  0.1153  0.1510  0.0357
15973SOL    HW152476   9.614   3.333   8.738 -1.1761  0.7699  2.0245
15973SOL    HW252477   9.759   3.347   8.778 -0.3889 -0.7059 -0.1506
15974SOL     OW52478   0.043  11.050   0.350 -0.1638  0.1845  0.2563
15974SOL    HW152479  -0.031  11.023   0.403 -1.3206  0.7317 -1.0089
15974SOL    HW252480   0.111  11.073   0.413 -1.1222 -0.1578  1.4554
15975SOL     OW52481   3.181   0.993   5.947 -0.1214  0.5766  0.0586
15975SOL    HW152482   3.270   0.982   5.914  0.8783  3.4841  1.4207
15975SOL    HW252483   3.187   0.967   6.039 -0.9304  0.0017 -0.0420
15976SOL     OW52484   1.836  10.389   3.864 -0.2957 -0.0144  0.1718
15976SOL    HW152485   1.767  10.331   3.896  0.5845 -1.0216  0.2748
15976SOL    HW252486   1.875  10.343   3.790 -0.8411  1.3197 -0.9955
15977SOL     OW52487   2.195   8.349   8.050 -0.1858  0.5016 -0.1003
15977SOL    HW152488   2.245   8.408   8.106  1.8601  0.8981 -2.1985
15977SOL    HW252489   2.104   8.376   8.061  0.4930  2.6943  0.5552
15978SOL     OW52490  10.057   4.730   7.833  0.3695 -0.1620 -0.4053
15978SOL    HW152491  10.083   4.638   7.826  0.1103 -0.1620 -1.6295
15978SOL    HW252492  10.050   4.747   7.927  1.9569 -0.9556 -0.1207
15979SOL     OW52493   4.861  11.350   6.045  0.6300  0.8474  0.6569
15979SOL    HW152494   4.841  11.415   6.112 -0.4362  0.4306  0.7696
15979SOL    HW252495   4.778  11.339   5.998  0.7064 -0.6220  0.8209
15980SOL     OW52496   9.947   0.705  10.528 -0.8724 -0.1914  0.5908
15980SOL    HW152497   9.891   0.706  10.605  0.3202 -1.3364  1.5246
15980SOL    HW252498   9.894   0.743  10.459 -2.0191  0.7642  1.9450
15981SOL     OW52499   2.036   7.051   3.052  0.0942  0.2433 -0.0931
15981SOL    HW152500   2.021   6.956   3.052  0.1384  0.2231 -1.0642
15981SOL    HW252501   1.985   7.082   2.976  0.5297  0.9183 -0.1099
15982SOL     OW52502   4.954   7.528   6.509 -0.1702 -0.5586  0.4026
15982SOL    HW152503   4.939   7.616   6.544 -0.8222 -0.3432 -0.3899
15982SOL    HW252504   4.960   7.541   6.414 -1.2698 -1.4997  0.1918
15983SOL     OW52505   9.527   9.464   6.368 -0.3401 -0.2651 -0.8557
15983SOL    HW152506   9.534   9.409   6.447 -0.1079 -0.0347 -0.7144
15983SOL    HW252507   9.585   9.537   6.385 -0.6080 -0.0013 -1.0688
15984SOL     OW52508   9.480   5.175   1.630 -0.0047  0.6800  0.4832
15984SOL    HW152509   9.571   5.203   1.640  0.0833  0.4679  0.2932
15984SOL    HW252510   9.486   5.084   1.602 -0.1735  1.4365 -2.3803
15985SOL     OW52511   8.205   7.741   5.943  0.6045  0.6209 -0.0277
15985SOL    HW152512   8.208   7.827   5.901  1.2191  1.5179  1.7507
15985SOL    HW252513   8.113   7.727   5.963 -0.2454 -1.2105 -4.2046
15986SOL     OW52514   6.931  10.904   9.623 -0.6677 -0.3651  0.1038
15986SOL    HW152515   6.954  10.820   9.583 -1.0696  0.2498 -1.4786
15986SOL    HW252516   6.978  10.903   9.707 -0.2719 -1.9508 -0.0902
15987SOL     OW52517  11.793   3.135   5.910  0.2894  0.4838  0.6921
15987SOL    HW152518  11.741   3.137   5.990 -1.1008  0.4090 -0.1787
15987SOL    HW252519  11.873   3.183   5.932 -0.0505  0.4255  2.1258
15988SOL     OW52520   9.333   3.787  10.123  0.1081  1.0750 -0.3239
15988SOL    HW152521   9.403   3.849  10.143 -1.1221  1.9581  1.5434
15988SOL    HW252522   9.306   3.753  10.209  0.6278 -2.0039 -1.2438
15989SOL     OW52523   1.406   7.749   6.912  0.3093  0.8325  0.4460
15989SOL    HW152524   1.473   7.808   6.878 -0.2240  1.1610 -0.0426
15989SOL    HW252525   1.450   7.664   6.917  1.1133  1.2855  1.2741
15990SOL     OW52526   7.434   4.365   7.748 -0.7362 -0.5055  0.9410
15990SOL    HW152527   7.343   4.391   7.765 -1.0536  0.6926 -1.9356
15990SOL    HW252528   7.428   4.304   7.674  0.8081  0.0436  0.3212
15991SOL     OW52529   5.779   9.070   4.593 -0.3254  0.6126 -0.1811
15991SOL    HW152530   5.776   8.995   4.534  1.6314 -1.0022  1.6090
15991SOL    HW252531   5.723   9.044   4.667 -1.0549  1.7135 -0.3102
15992SOL     OW52532  10.926   1.193   1.203 -0.2092 -0.1692  0.2934
15992SOL    HW152533  10.896   1.254   1.135 -0.0061 -2.2347 -1.7706
15992SOL    HW252534  10.901   1.236   1.285 -0.7131  2.3307 -1.0413
15993SOL     OW52535   8.510   9.683   0.826  0.0477 -0.2644 -0.4289
15993SOL    HW152536   8.454   9.610   0.851  1.5786 -1.5923 -0.7434
15993SOL    HW252537   8.479   9.708   0.739 -0.3353 -0.6886 -0.4205
15994SOL     OW52538   0.555   7.928   8.665  0.0470  0.4409  0.6802
15994SOL    HW152539   0.531   7.973   8.584 -0.9649 -2.0584 -0.5355
15994SOL    HW252540   0.578   7.998   8.726 -1.9464  2.6015 -0.8612
15995SOL     OW52541   3.071   4.656  10.507  0.2988 -0.1675 -0.5932
15995SOL    HW152542   3.144   4.607  10.545  1.3682 -0.3524 -2.7428
15995SOL    HW252543   3.111   4.735  10.471 -1.0282  1.1148  0.6115
15996SOL     OW52544   5.059   5.787   8.107  0.1235  0.6788  0.2533
15996SOL    HW152545   5.133   5.811   8.051 -0.2354 -0.7676 -0.8894
15996SOL    HW252546   5.004   5.731   8.052 -1.7152  1.5198  1.1515
15997SOL     OW52547   9.291   5.212   4.901  0.3072  0.0014  0.2357
15997SOL    HW152548   9.320   5.143   4.841  2.0443  0.8187  0.0575
15997SOL    HW252549   9.305   5.174   4.988  1.4840  0.1670  0.1436
15998SOL     OW52550   4.042  10.958   2.132  0.0133 -0.2127  0.1543
15998SOL    HW152551   3.957  10.927   2.099 -0.1406  0.0744  0.2722
15998SOL    HW252552   4.107  10.915   2.077 -0.2289 -0.0313 -0.2739
15999SOL     OW52553   7.818   2.917   8.572  0.5012 -0.0877 -0.0763
15999SOL    HW152554   7.832   3.012   8.562  0.8631 -0.1878 -0.5560
15999SOL    HW252555   7.808   2.905   8.667 -0.1318  0.5031 -0.0578
16000SOL     OW52556  10.635   9.788  10.943  0.2203 -0.2796 -0.0903
16000SOL    HW152557  10.665   9.698  10.936 -1.5252 -0.9019 -0.1974
16000SOL    HW252558  10.541   9.780  10.962 -0.3231  1.5071 -1.7224
16001SOL     OW52559   1.470   9.505   2.218 -0.1066 -0.2646 -0.0598
16001SOL    HW152560   1.433   9.550   2.294 -0.0619 -1.1459  0.5045
16001SOL    HW252561   1.534   9.444   2.255  0.8451  0.1905 -0.9081
16002SOL     OW52562   9.049   8.907   2.862 -0.0524  0.3405  0.7328
16002SOL    HW152563   9.024   8.958   2.786 -0.9872 -0.1629  0.6854
16002SOL    HW252564   9.137   8.874   2.841 -1.7840 -3.2602 -2.0783
16003SOL     OW52565   8.737   5.076   7.223 -0.4654  0.3027 -0.9643
16003SOL    HW152566   8.697   5.163   7.236  0.7733  0.9291 -1.1933
16003SOL    HW252567   8.802   5.090   7.155  0.6969 -0.4948 -0.0526
16004SOL     OW52568   7.113  11.596  12.094 -0.1476 -0.1126 -0.5639
16004SOL    HW152569   7.202  11.561  12.085 -0.3743 -0.0697 -4.2812
16004SOL    HW252570   7.059  11.519  12.113  0.4445 -0.3776  0.1001
16005SOL     OW52571   1.216  10.929  10.661 -0.3312  0.4612  0.4646
16005SOL    HW152572   1.300  10.898  10.627 -1.0562 -0.3761 -0.6625
16005SOL    HW252573   1.170  10.963  10.583 -1.2149  0.4842  0.9772
16006SOL     OW52574   8.690   7.261   5.714  0.0509 -0.7179 -0.3856
16006SOL    HW152575   8.680   7.180   5.763 -0.5579 -1.3509 -1.5138
16006SOL    HW252576   8.784   7.276   5.711  0.0830  0.1385  2.1882
16007SOL     OW52577  10.341   7.721   6.304 -0.2995  0.2514  0.5347
16007SOL    HW152578  10.418   7.776   6.288  0.3497 -0.8979 -0.4301
16007SOL    HW252579  10.278   7.747   6.237  0.3725 -0.8082 -0.5419
16008SOL     OW52580   5.343   2.541   3.949 -0.3042  0.0935  0.1704
16008SOL    HW152581   5.336   2.608   3.881  0.2155  0.5967  0.6072
16008SOL    HW252582   5.353   2.459   3.900 -0.4311  0.3889 -0.3601
16009SOL     OW52583   7.507  11.319   4.980  0.0668 -0.8347 -0.0693
16009SOL    HW152584   7.474  11.379   4.914 -0.9105  0.9644  1.9232
16009SOL    HW252585   7.601  11.337   4.983 -0.3752  1.8102  1.4764
16010SOL     OW52586   2.091   3.760   8.254 -0.2091  0.4054 -0.0837
16010SOL    HW152587   2.187   3.751   8.254 -0.2011  0.4601  0.6333
16010SOL    HW252588   2.059   3.670   8.245 -0.1117  0.5597 -3.1475
16011SOL     OW52589   3.454   2.906   7.157  0.2647 -0.2201  0.0082
16011SOL    HW152590   3.413   2.845   7.096  0.6880 -0.7825  0.2830
16011SOL    HW252591   3.453   2.990   7.111  2.2633 -0.9759 -1.6013
16012SOL     OW52592  10.997   5.536   8.488  0.2997 -0.3596  0.5411
16012SOL    HW152593  10.904   5.555   8.491 -0.0343 -1.7514 -0.2756
16012SOL    HW252594  11.006   5.451   8.530  1.1821 -0.3064  0.4854
16013SOL     OW52595   9.702   8.943   6.964 -0.4987 -0.4798  0.1513
16013SOL    HW152596   9.716   8.988   7.047 -0.9436 -0.4860  0.2311
16013SOL    HW252597   9.749   8.860   6.973 -1.0700 -0.7541  0.6361
16014SOL     OW52598   1.318  11.189  12.126  0.0404 -0.1663 -0.0038
16014SOL    HW152599   1.231  11.150  12.131  0.5593 -1.2812  0.6680
16014SOL    HW252600   1.303  11.282  12.144 -0.8663 -0.5555  1.4256
16015SOL     OW52601  11.931   7.204   4.659 -0.1210 -0.0715  0.4009
16015SOL    HW152602  11.930   7.299   4.672 -0.4503 -0.2536  1.9304
16015SOL    HW252603  12.011   7.187   4.610  0.0738  0.9742  0.3382
16016SOL     OW52604   2.839   8.314   2.616 -0.6756 -0.1873 -0.1354
16016SOL    HW152605   2.845   8.232   2.566  0.5356 -0.3556  0.2451
16016SOL    HW252606   2.811   8.379   2.552  0.8496 -0.3968 -1.0650
16017SOL     OW52607  10.427   0.057   9.784  0.2376  0.1220 -0.0443
16017SOL    HW152608  10.370   0.005   9.727  1.1520 -0.3923 -0.5010
16017SOL    HW252609  10.444   0.138   9.735 -0.8619  0.7110  0.5003
16018SOL     OW52610   5.788   1.140   4.484  0.5369 -0.5280  0.1997
16018SOL    HW152611   5.810   1.047   4.485  1.0144 -0.4161  0.0340
16018SOL    HW252612   5.706   1.144   4.435  1.7231 -0.6161 -1.9199
16019SOL     OW52613   0.164   3.866   5.415 -0.1273 -0.3252 -0.2085
16019SOL    HW152614   0.102   3.818   5.470 -0.1263  0.7182  0.7377
16019SOL    HW252615   0.217   3.916   5.477 -0.2136  0.9905 -1.1579
16020SOL     OW52616   1.093   7.778   6.007 -0.3132  0.8506 -0.0808
16020SOL    HW152617   1.036   7.710   6.044  1.8562 -1.0840 -0.0964
16020SOL    HW252618   1.130   7.822   6.084  1.5189 -0.8645  0.0892
16021SOL     OW52619   1.188   8.420   0.479 -0.7462 -1.1055  0.2084
16021SOL    HW152620   1.276   8.391   0.454 -0.7765 -0.5737 -0.5436
16021SOL    HW252621   1.129   8.361   0.433 -0.8039 -0.0499 -1.1252
16022SOL     OW52622   9.112   9.890   7.820 -0.0982 -0.3461  0.3782
16022SOL    HW152623   9.055   9.839   7.763  0.1705  0.1002 -0.3068
16022SOL    HW252624   9.149   9.957   7.763  0.5127 -0.1523  0.9837
16023SOL     OW52625   8.655   4.250   6.622  0.2945  0.3049  0.7425
16023SOL    HW152626   8.712   4.323   6.647  2.8217 -1.5300  0.7556
16023SOL    HW252627   8.695   4.173   6.663 -1.3830 -1.3364 -0.4978
16024SOL     OW52628   7.499   6.633   1.488  0.2645 -0.8008  0.1151
16024SOL    HW152629   7.526   6.665   1.574  0.0013  0.1382 -0.1423
16024SOL    HW252630   7.405   6.649   1.485  0.6626  1.7425 -1.3721
16025SOL     OW52631   3.461   4.005   5.844  0.1442  0.5359  0.2147
16025SOL    HW152632   3.381   3.953   5.838 -0.0267  0.8824 -0.8678
16025SOL    HW252633   3.447   4.063   5.919  0.3401 -0.9359  1.4336
16026SOL     OW52634   8.536   0.270   5.439  0.5073 -0.0471  0.1409
16026SOL    HW152635   8.518   0.359   5.469 -0.6410 -0.2464  0.0851
16026SOL    HW252636   8.566   0.223   5.517 -0.0760  0.0714  0.4393
16027SOL     OW52637   8.755   7.016   6.543  0.2437  0.3633 -0.0749
16027SOL    HW152638   8.743   7.061   6.627  2.0784  0.4306  0.2079
16027SOL    HW252639   8.798   6.934   6.566 -1.0894 -0.5522 -0.7930
16028SOL     OW52640   6.361   3.504   6.879  0.2612 -0.3935 -0.0401
16028SOL    HW152641   6.438   3.465   6.839 -0.1920  0.1633 -1.5178
16028SOL    HW252642   6.339   3.578   6.822 -0.7472  0.0911  0.9362
16029SOL     OW52643  11.036   6.778  10.512  0.1737 -0.0118  0.1002
16029SOL    HW152644  10.987   6.733  10.443  1.0380  0.6247 -0.9552
16029SOL    HW252645  11.123   6.739  10.508  0.6472  1.0326 -0.1623
16030SOL     OW52646   4.990   7.056   4.885 -0.0885  0.4210 -0.4026
16030SOL    HW152647   4.971   7.113   4.960  0.0261  1.0972 -0.8776
16030SOL    HW252648   5.084   7.069   4.869  0.4093 -1.3852  0.6870
16031SOL     OW52649  10.562   2.403   4.113  0.1224 -0.1006 -0.8497
16031SOL    HW152650  10.514   2.321   4.124  2.2063 -1.2594  0.1493
16031SOL    HW252651  10.501   2.460   4.066 -1.2530 -2.3253 -1.9422
16032SOL     OW52652   2.859  11.367   9.295  0.6404  0.5179  0.3302
16032SOL    HW152653   2.812  11.331   9.220 -0.0819 -0.2176  1.0991
16032SOL    HW252654   2.910  11.440   9.260 -0.9201  1.2258 -0.5945
16033SOL     OW52655   8.312   9.350   0.022 -0.1362  0.0186 -0.2910
16033SOL    HW152656   8.359   9.327   0.102  0.0287 -0.7343 -0.5904
16033SOL    HW252657   8.337   9.440   0.004 -0.3863  0.2831  0.6467
16034SOL     OW52658   4.876   8.061   5.054  0.4541  0.0275  0.4439
16034SOL    HW152659   4.822   8.118   4.999 -1.2360 -0.7186  1.2535
16034SOL    HW252660   4.904   8.117   5.126  1.3117  0.5768 -0.2861
16035SOL     OW52661   2.659   8.283   2.025  0.0195  0.0083  0.2793
16035SOL    HW152662   2.722   8.342   2.066 -0.3405  0.1320  0.6609
16035SOL    HW252663   2.620   8.234   2.097  0.6921 -1.0917 -0.0756
16036SOL     OW52664   0.788   8.599   3.563 -0.0971 -0.0765 -0.2344
16036SOL    HW152665   0.717   8.657   3.590 -1.2554 -1.7304  0.4240
16036SOL    HW252666   0.749   8.544   3.495  0.8875 -0.2610 -0.6623
16037SOL     OW52667   3.088   0.720   0.496 -0.4555  0.4540  0.6521
16037SOL    HW152668   3.015   0.669   0.460 -0.5075  0.9801 -0.0183
16037SOL    HW252669   3.105   0.787   0.429 -0.5409  1.4589  1.6089
16038SOL     OW52670  11.170  12.116   2.145 -0.0218 -0.3832 -0.1962
16038SOL    HW152671  11.171  12.194   2.201  0.9388 -1.4106  1.3137
16038SOL    HW252672  11.086  12.074   2.165  0.2597 -0.6755  0.4156
16039SOL     OW52673   4.442  10.405   2.112 -0.4193  0.5289 -0.1432
16039SOL    HW152674   4.491  10.327   2.137 -0.9996  0.0674 -0.4271
16039SOL    HW252675   4.510  10.467   2.084  0.1055  0.4262  0.8462
16040SOL     OW52676  11.677   0.067   4.777 -0.1212  0.1159  0.2450
16040SOL    HW152677  11.636  -0.008   4.820 -0.5953  0.6365  0.7367
16040SOL    HW252678  11.770   0.059   4.797  0.5136 -2.4972 -3.0106
16041SOL     OW52679   2.774   6.923  10.196  0.6080  0.2638  0.3408
16041SOL    HW152680   2.790   7.003  10.246  1.1698 -0.8885  2.1075
16041SOL    HW252681   2.846   6.920  10.133  2.0093 -0.0080  1.8676
16042SOL     OW52682   3.840   4.025   6.189  0.1746 -0.2658 -0.1524
16042SOL    HW152683   3.839   4.021   6.094  0.3887 -2.1077 -0.1154
16042SOL    HW252684   3.917   4.077   6.210  0.0314  0.2912 -0.9846
16043SOL     OW52685   3.084   8.511   8.531 -0.1512  0.4488 -0.1440
16043SOL    HW152686   3.155   8.465   8.576  0.6887  0.6513 -1.2322
16043SOL    HW252687   3.031   8.548   8.602 -0.8109 -2.0721  0.8009
16044SOL     OW52688   3.053   8.964   7.442 -0.0470 -0.1475  0.5026
16044SOL    HW152689   3.103   8.915   7.377  1.2238  0.8063  0.7301
16044SOL    HW252690   3.095   9.049   7.445 -1.4160  0.5369  1.0548
16045SOL     OW52691   4.929  10.806   7.480  0.1547  0.6257  0.4717
16045SOL    HW152692   4.980  10.732   7.513  2.0064  0.5869 -2.1511
16045SOL    HW252693   4.974  10.883   7.511  2.0549  0.5928 -1.9130
16046SOL     OW52694   6.800   0.066   6.956  0.4862 -0.3700 -0.2334
16046SOL    HW152695   6.792   0.140   6.896  0.0146 -0.2629 -0.0500
16046SOL    HW252696   6.800  -0.011   6.899  0.8812 -0.2329 -0.4190
16047SOL     OW52697   4.596   0.033   9.550 -0.1286 -0.1616  0.1733
16047SOL    HW152698   4.518  -0.020   9.565 -0.8267  0.6077 -0.6246
16047SOL    HW252699   4.610   0.028   9.455 -0.0899  0.9001  0.1113
16048SOL     OW52700   5.627   7.280   9.955 -0.2706  0.2394  0.1579
16048SOL    HW152701   5.677   7.357   9.983 -0.4977  0.0647  1.0908
16048SOL    HW252702   5.670   7.206   9.999  0.7216 -0.3630 -1.6990
16049SOL     OW52703  10.648   5.064   8.080 -0.0694 -0.1074  0.1209
16049SOL    HW152704  10.574   5.102   8.128  0.9769  0.6037  1.2572
16049SOL    HW252705  10.628   5.080   7.988 -1.2118  0.2822  0.4215
16050SOL     OW52706   9.837  12.091   6.268  0.6453 -0.5216 -0.4527
16050SOL    HW152707   9.862  12.051   6.185  1.1401 -1.0353 -0.0642
16050SOL    HW252708   9.768  12.034   6.303  1.2032 -0.9296  0.0023
16051SOL     OW52709   7.859   3.927   2.325 -0.4109  0.3671 -0.0695
16051SOL    HW152710   7.886   3.841   2.355 -0.1759  0.6187  0.4638
16051SOL    HW252711   7.888   3.932   2.235  0.2255  0.1682  0.1219
16052SOL     OW52712   5.247   8.448   5.983  0.1509 -0.4956  0.1217
16052SOL    HW152713   5.311   8.422   5.917 -0.2914  0.1956 -0.6025
16052SOL    HW252714   5.262   8.542   5.996  0.4247 -0.6784  1.2350
16053SOL     OW52715  10.757   4.026   4.091 -0.0075 -0.0181 -0.6441
16053SOL    HW152716  10.793   4.115   4.096 -0.5843  0.1469  1.6165
16053SOL    HW252717  10.672   4.032   4.135 -0.0072 -1.7093 -0.3521
16054SOL     OW52718   1.545   3.972   5.614  0.3586  0.4117  0.2361
16054SOL    HW152719   1.516   4.054   5.575  0.8198  0.8126  0.7107
16054SOL    HW252720   1.589   3.999   5.695 -1.9355 -0.4640  1.8743
16055SOL     OW52721   3.569   9.185  10.511 -0.9016 -0.0424  0.1186
16055SOL    HW152722   3.656   9.148  10.498 -0.5098  1.3803 -1.7200
16055SOL    HW252723   3.509   9.114  10.486 -0.2812 -0.8400  0.8351
16056SOL     OW52724  11.631   2.914  11.028  0.3378 -0.2778 -0.0116
16056SOL    HW152725  11.687   2.957  10.963 -0.5506 -0.7587 -1.1188
16056SOL    HW252726  11.590   2.986  11.076  1.1372  0.0795  0.1575
16057SOL     OW52727   7.139   7.965  10.953  0.6672 -0.6638 -0.0782
16057SOL    HW152728   7.228   7.930  10.964  0.9457  0.2067  0.4800
16057SOL    HW252729   7.101   7.909  10.885  0.8910 -2.4447  1.1817
16058SOL     OW52730   2.022   7.577   9.408 -0.3009  0.3718  0.3321
16058SOL    HW152731   1.975   7.546   9.330 -2.5017  2.2718  0.7912
16058SOL    HW252732   1.995   7.518   9.478  0.9378 -0.7581 -0.0996
16059SOL     OW52733   6.736   0.184   3.601  0.1951  0.3271 -0.0937
16059SOL    HW152734   6.706   0.129   3.673  1.7271  0.0366  0.3421
16059SOL    HW252735   6.776   0.124   3.538  1.2563  0.8421  0.0624
16060SOL     OW52736   8.102   3.530   7.220  0.1620 -0.4177 -0.1619
16060SOL    HW152737   8.157   3.583   7.278 -0.7189  0.1622  0.1662
16060SOL    HW252738   8.132   3.440   7.236 -0.0185 -0.2712  1.1643
16061SOL     OW52739   8.679   8.074   2.680 -0.1850  0.3485  0.7750
16061SOL    HW152740   8.641   8.073   2.592  2.4129 -1.5446 -0.4762
16061SOL    HW252741   8.659   8.161   2.714 -2.1213  0.8060 -1.2496
16062SOL     OW52742   2.570   1.822   9.967 -0.2648 -0.3328 -0.5301
16062SOL    HW152743   2.596   1.762  10.037 -1.0359 -1.2592 -1.0219
16062SOL    HW252744   2.475   1.831   9.978 -0.2512  0.2609 -0.8898
16063SOL     OW52745  11.887  10.409   1.419  0.9111  0.1107  0.4507
16063SOL    HW152746  11.819  10.392   1.354 -0.2131  0.9123  1.3802
16063SOL    HW252747  11.912  10.500   1.403  0.4861  0.3734  1.2518
16064SOL     OW52748   3.267   1.830   8.276  0.6249  0.1724  0.5207
16064SOL    HW152749   3.212   1.850   8.200 -0.8432 -3.3791  0.4777
16064SOL    HW252750   3.353   1.809   8.239  0.1048 -0.8619 -0.1492
16065SOL     OW52751   9.061   8.169   1.183 -0.1194  0.4160 -0.0125
16065SOL    HW152752   9.154   8.170   1.161  0.1245  1.3348  1.0175
16065SOL    HW252753   9.017   8.171   1.098  0.7959  1.2492 -0.4798
16066SOL     OW52754  11.541   9.778   8.953 -0.0430 -0.4646 -0.7191
16066SOL    HW152755  11.464   9.831   8.933  0.9521  1.2220 -0.3191
16066SOL    HW252756  11.511   9.716   9.019 -1.0257  0.2591 -0.4530
16067SOL     OW52757   0.876   3.328   0.862  0.4655  0.1873  0.3355
16067SOL    HW152758   0.784   3.341   0.841  0.7256  1.2034 -0.2850
16067SOL    HW252759   0.898   3.402   0.919  0.6854 -0.5480  1.2295
16068SOL     OW52760   8.281   8.886   3.706  0.3406  0.0577 -0.3325
16068SOL    HW152761   8.310   8.795   3.712  1.5399  0.4144 -0.4701
16068SOL    HW252762   8.192   8.885   3.741 -0.0745 -1.3450 -1.3222
16069SOL     OW52763  11.236  11.582   6.922 -0.0760 -0.0550 -0.1376
16069SOL    HW152764  11.201  11.536   6.998 -0.4257 -1.3156 -1.0156
16069SOL    HW252765  11.202  11.533   6.847 -1.5505  2.4156 -1.2141
16070SOL     OW52766  10.585   8.740   2.226 -0.3889 -0.2684  0.1277
16070SOL    HW152767  10.633   8.821   2.248 -1.8562  1.2246 -1.7770
16070SOL    HW252768  10.520   8.731   2.295 -2.2093  1.9733 -1.1774
16071SOL     OW52769  11.796   3.578   8.111 -0.7435 -0.1063 -0.1867
16071SOL    HW152770  11.714   3.573   8.061 -0.4014  1.2876 -0.9321
16071SOL    HW252771  11.826   3.668   8.099  1.2492 -0.7625 -0.4731
16072SOL     OW52772   3.234   7.448   6.225 -0.7875  0.1432  0.3556
16072SOL    HW152773   3.258   7.430   6.316  1.8823 -0.7730 -0.4497
16072SOL    HW252774   3.283   7.527   6.202 -0.2929 -0.4402 -0.6760
16073SOL     OW52775   3.843   6.998   5.291 -0.0523  0.0460 -0.2169
16073SOL    HW152776   3.900   6.922   5.302  0.4980  0.2437 -1.5231
16073SOL    HW252777   3.902   7.070   5.272 -0.5400  0.9168  1.3821
16074SOL     OW52778   5.973   6.775   3.579 -0.1965 -0.0314 -0.3022
16074SOL    HW152779   5.898   6.820   3.541 -0.5531 -1.0778 -0.8954
16074SOL    HW252780   5.952   6.769   3.672 -1.3967 -1.2586 -0.6098
16075SOL     OW52781   7.770   1.480   9.754  0.9681 -0.1239  0.0082
16075SOL    HW152782   7.780   1.400   9.701  0.7685  0.4206 -0.8686
16075SOL    HW252783   7.775   1.551   9.690 -2.0248  0.4646  0.3166
16076SOL     OW52784   1.631   7.930  11.812  0.1459  0.1182  0.2676
16076SOL    HW152785   1.543   7.966  11.823 -0.0705 -0.2783 -0.1339
16076SOL    HW252786   1.683   7.970  11.882  0.0043  1.4960 -0.3792
16077SOL     OW52787   5.968   1.933   0.399 -0.0364  0.5049 -0.1559
16077SOL    HW152788   5.966   2.022   0.364 -0.4216  0.4585 -0.2517
16077SOL    HW252789   5.901   1.932   0.467 -0.7473  0.0084 -0.8428
16078SOL     OW52790   7.344   5.160   5.962 -0.2645  0.3447  0.0262
16078SOL    HW152791   7.413   5.216   5.925 -0.4821  1.1170  0.7494
16078SOL    HW252792   7.380   5.072   5.958  1.1249  0.8140  1.1000
16079SOL     OW52793   7.299   3.514   8.749  0.0498 -0.2052  0.0117
16079SOL    HW152794   7.335   3.503   8.662  0.8721 -0.2134  0.3430
16079SOL    HW252795   7.224   3.572   8.737  1.8557  2.2196 -0.3564
16080SOL     OW52796   3.457  11.423   4.032  0.2827 -0.5160  0.2603
16080SOL    HW152797   3.525  11.356   4.029  1.9341  1.1012 -0.6238
16080SOL    HW252798   3.418  11.414   4.118  1.8032 -1.3506  0.9042
16081SOL     OW52799   9.728   0.367  10.479  0.2378  0.1483 -0.7409
16081SOL    HW152800   9.810   0.381  10.525 -0.0169  1.3576 -0.6040
16081SOL    HW252801   9.661   0.405  10.537 -0.3409 -0.2432 -1.1343
16082SOL     OW52802   7.867   5.306   2.845  0.2669 -0.7490 -0.1082
16082SOL    HW152803   7.779   5.273   2.863  0.7649 -1.4439  1.1501
16082SOL    HW252804   7.869   5.393   2.885  0.1139 -0.6696 -0.2713
16083SOL     OW52805   8.977   8.512   0.723  0.2938 -0.4940 -0.0187
16083SOL    HW152806   8.990   8.525   0.629 -1.9750  1.3471 -0.1943
16083SOL    HW252807   8.914   8.440   0.729 -1.0002  0.5881 -0.0762
16084SOL     OW52808  11.798   4.632   3.820 -0.4603 -0.0375 -0.2531
16084SOL    HW152809  11.820   4.702   3.881 -1.5312  0.1251 -0.0337
16084SOL    HW252810  11.874   4.575   3.820 -0.4268 -0.0271  1.2110
16085SOL     OW52811  11.964   7.192   2.439  0.7895 -0.0005 -0.1851
16085SOL    HW152812  11.925   7.186   2.351  0.0665 -3.0514  0.2375
16085SOL    HW252813  12.028   7.121   2.441 -1.0840 -1.7929  2.5550
16086SOL     OW52814   1.810  10.753   4.358 -0.3268  0.3179  0.0110
16086SOL    HW152815   1.827  10.708   4.441  1.3588 -1.3513 -1.1639
16086SOL    HW252816   1.721  10.728   4.335  0.0450 -1.2045  0.1516
16087SOL     OW52817   3.339   0.613   3.423 -0.7223  0.6336 -0.4285
16087SOL    HW152818   3.412   0.613   3.485 -0.1374  0.6274 -1.1044
16087SOL    HW252819   3.262   0.591   3.476 -0.4775  2.0534  0.5756
16088SOL     OW52820   6.135   6.877   9.231 -0.1799 -0.4230 -0.1904
16088SOL    HW152821   6.190   6.832   9.295  2.6829  0.3722 -1.9017
16088SOL    HW252822   6.168   6.848   9.146 -1.0514  1.6554 -1.3207
16089SOL     OW52823   9.465   0.411   4.150  0.2118  0.7152 -0.0449
16089SOL    HW152824   9.393   0.458   4.107  0.1046 -0.1730 -0.8791
16089SOL    HW252825   9.538   0.473   4.148  0.1982  0.7321 -1.5237
16090SOL     OW52826   2.448   1.251  10.483 -0.3973  0.3108  0.3100
16090SOL    HW152827   2.406   1.205  10.555 -0.3546  1.1358  0.8727
16090SOL    HW252828   2.377   1.298  10.439 -0.2589  0.6875  0.4861
16091SOL     OW52829   7.999  11.759   4.723  0.1782 -0.4589  0.0538
16091SOL    HW152830   7.993  11.776   4.817 -0.3666 -2.0894  0.3484
16091SOL    HW252831   8.078  11.705   4.713  1.7717  1.8735 -0.8206
16092SOL     OW52832  11.563   4.288   2.703  0.7903  0.5381 -0.1181
16092SOL    HW152833  11.525   4.372   2.728  1.7759  0.8242  0.5104
16092SOL    HW252834  11.511   4.223   2.749  0.8747  0.9026  0.5087
16093SOL     OW52835   4.765   8.255   8.952  0.0100 -0.1649 -0.0393
16093SOL    HW152836   4.849   8.263   8.907 -0.0402 -0.9971 -0.2924
16093SOL    HW252837   4.775   8.307   9.032  0.1799  1.1518 -0.8741
16094SOL     OW52838   5.467   7.253   4.936  0.2222  0.3732  0.5232
16094SOL    HW152839   5.450   7.272   4.843  1.1806 -0.9862  0.0380
16094SOL    HW252840   5.545   7.304   4.957 -0.6210  1.5492  0.9279
16095SOL     OW52841   6.719   4.589   9.564 -0.4075  0.5798  0.3353
16095SOL    HW152842   6.694   4.676   9.532 -0.3225  0.0736 -1.2168
16095SOL    HW252843   6.737   4.601   9.657  0.3226  2.3844 -0.0022
16096SOL     OW52844   8.662   3.286   2.283 -0.4072 -0.7321  0.3166
16096SOL    HW152845   8.631   3.208   2.330 -1.2419 -0.7558 -0.2424
16096SOL    HW252846   8.611   3.286   2.202 -1.1402  0.9361  0.7284
16097SOL     OW52847   7.101  10.893   1.367  0.5826  0.3044  0.6019
16097SOL    HW152848   7.121  10.947   1.291 -0.0291 -0.7784 -0.3620
16097SOL    HW252849   7.031  10.940   1.412  0.6878  0.7638  0.2943
16098SOL     OW52850   2.513   9.583   8.290 -0.4223  0.0541  0.2221
16098SOL    HW152851   2.576   9.593   8.218  0.5977  0.6403  1.1678
16098SOL    HW252852   2.458   9.510   8.263  0.6759 -0.4903 -0.6364
16099SOL     OW52853   5.325   1.879   7.039 -0.6192  0.2445 -0.1578
16099SOL    HW152854   5.267   1.949   7.008  1.5095  3.6307  2.7531
16099SOL    HW252855   5.286   1.851   7.122  0.0947  0.0887  0.1308
16100SOL     OW52856   5.484   5.793   3.058 -0.9486  0.4264  0.3570
16100SOL    HW152857   5.396   5.807   3.093 -0.1389 -1.0035  3.3063
16100SOL    HW252858   5.521   5.724   3.114  1.5652 -0.0271 -1.6871
16101SOL     OW52859  10.549   0.461   0.483 -0.3027  0.4650 -0.6238
16101SOL    HW152860  10.479   0.463   0.547  0.4148 -2.1601  0.3710
16101SOL    HW252861  10.515   0.408   0.410  0.4015 -0.3516 -0.3821
16102SOL     OW52862   5.587   4.412  12.015  0.4067  0.2752 -0.1871
16102SOL    HW152863   5.623   4.419  12.103 -1.2923 -1.1817  0.6714
16102SOL    HW252864   5.547   4.325  12.011  0.5388  0.2416 -2.4564
16103SOL     OW52865   7.566   4.716   8.868  0.3753  0.3335 -0.6219
16103SOL    HW152866   7.555   4.685   8.958  1.6306  1.7296  0.0594
16103SOL    HW252867   7.648   4.675   8.840  0.1266  0.1193 -1.0326
16104SOL     OW52868   3.730   3.649   7.040 -0.2913 -0.5231 -0.6547
16104SOL    HW152869   3.666   3.674   6.973 -0.5612  1.6921  0.3543
16104SOL    HW252870   3.753   3.731   7.084  1.8608 -1.5373  0.2539
16105SOL     OW52871   3.457   3.696   5.689  0.0367 -0.1490  0.0293
16105SOL    HW152872   3.517   3.759   5.647 -0.1562 -0.1621 -0.2719
16105SOL    HW252873   3.433   3.636   5.618 -1.3152  0.5959 -0.1668
16106SOL     OW52874   2.415   9.424   8.676  0.1985 -0.1878  0.2300
16106SOL    HW152875   2.506   9.452   8.682  0.3192  0.2230 -2.2459
16106SOL    HW252876   2.415   9.357   8.607 -1.4822  0.4868 -0.4976
16107SOL     OW52877   8.208   2.003   7.467 -0.4833  0.3783  0.1752
16107SOL    HW152878   8.210   1.924   7.413  2.6651 -0.5006  1.3231
16107SOL    HW252879   8.197   1.970   7.556 -1.4982  1.4862  0.4889
16108SOL     OW52880   1.774   8.602   8.265  0.6150 -0.4801 -0.3994
16108SOL    HW152881   1.812   8.594   8.353 -0.4684  0.1612  0.1436
16108SOL    HW252882   1.831   8.665   8.220  0.5038  0.0875  0.2336
16109SOL     OW52883   0.006   4.656   1.666  0.2974 -0.3637  0.1840
16109SOL    HW152884  -0.031   4.569   1.684  1.2837 -1.1833 -1.5082
16109SOL    HW252885  -0.055   4.696   1.604  0.9281 -0.7205 -0.6830
16110SOL     OW52886   1.934   2.373   5.320 -0.2959 -0.2057  0.2063
16110SOL    HW152887   1.914   2.399   5.230  0.1870  1.5238  0.5755
16110SOL    HW252888   1.872   2.421   5.374  0.8034  0.4553  0.9282
16111SOL     OW52889  11.155   7.283   5.559 -0.5576  0.2799  0.0082
16111SOL    HW152890  11.126   7.204   5.513 -0.0347  0.2072 -0.2003
16111SOL    HW252891  11.080   7.308   5.613 -0.7380 -0.3451  0.0601
16112SOL     OW52892   3.727   9.400  10.563 -0.5350 -0.6539  0.3499
16112SOL    HW152893   3.728   9.385  10.469  0.0049 -1.8522  0.5311
16112SOL    HW252894   3.645   9.361  10.593  0.4617 -2.6179  0.6975
16113SOL     OW52895   7.946   7.021   4.240  0.2976  0.1934  0.6161
16113SOL    HW152896   7.976   7.027   4.330 -0.3002 -1.2274  0.9428
16113SOL    HW252897   8.022   7.046   4.187  1.6004 -1.7447  1.4576
16114SOL     OW52898   1.263  11.350   3.995  0.0762 -0.1897 -0.0731
16114SOL    HW152899   1.324  11.394   3.936 -1.8839  1.3033 -1.1098
16114SOL    HW252900   1.178  11.357   3.951 -1.0430 -1.2785  1.7739
16115SOL     OW52901   4.645   6.258   2.022  0.1277 -0.9879 -0.0753
16115SOL    HW152902   4.609   6.278   1.936  0.6325 -1.1636 -0.3307
16115SOL    HW252903   4.739   6.275   2.014  0.2483 -1.4328  0.3083
16116SOL     OW52904  10.052   2.969   9.862 -0.3427  0.5603  0.0267
16116SOL    HW152905   9.989   3.039   9.846 -0.6294  0.0172 -1.3176
16116SOL    HW252906  10.106   3.002   9.934 -1.7242  1.3105  0.7590
16117SOL     OW52907   0.338   6.216  10.795 -0.1615  0.4681  0.1009
16117SOL    HW152908   0.264   6.164  10.824 -1.6858  1.4345 -1.8061
16117SOL    HW252909   0.372   6.257  10.875 -1.3700 -0.3730  1.0738
16118SOL     OW52910   7.322   3.051   3.267  0.2473  0.2537  0.2433
16118SOL    HW152911   7.335   3.010   3.182 -0.7974  1.9721 -0.8007
16118SOL    HW252912   7.311   3.144   3.248 -0.2923  0.6483  2.2301
16119SOL     OW52913   3.318   2.084   2.150  0.0221  0.0224 -0.0808
16119SOL    HW152914   3.279   2.145   2.213  1.5347  2.6303 -1.4972
16119SOL    HW252915   3.274   2.001   2.167 -0.0534  0.6755  4.0278
16120SOL     OW52916  11.940   6.201   4.353 -0.2152 -0.0259 -0.2638
16120SOL    HW152917  12.006   6.133   4.338  0.5902  0.8626 -0.8266
16120SOL    HW252918  11.990   6.281   4.369 -1.1507  0.6321 -0.5115
16121SOL     OW52919   0.290   5.769   2.174  0.0981 -0.2234  0.6317
16121SOL    HW152920   0.222   5.782   2.240  1.3383 -2.3740  2.4638
16121SOL    HW252921   0.364   5.820   2.206  0.1918  0.0717 -0.0302
16122SOL     OW52922   2.783  10.913   4.006  0.3476 -0.9610 -0.1316
16122SOL    HW152923   2.789  10.832   4.056  1.4456 -0.6178  0.3318
16122SOL    HW252924   2.859  10.964   4.034  1.2102 -0.8804 -2.4210
16123SOL     OW52925   1.622   7.081  10.815  0.0048  0.0563  0.4189
16123SOL    HW152926   1.627   7.016  10.744  1.4838  1.8440 -1.2273
16123SOL    HW252927   1.646   7.032  10.894 -2.7306 -2.2514 -0.0207
16124SOL     OW52928   2.696   8.857  12.109  0.4155 -0.5304  0.0093
16124SOL    HW152929   2.767   8.866  12.172  0.4804 -2.8653  0.3600
16124SOL    HW252930   2.739   8.855  12.024  0.4120  1.6273 -0.0856
16125SOL     OW52931  11.328  11.963   3.609  0.0782 -0.0897 -0.1283
16125SOL    HW152932  11.302  12.025   3.541  1.1516  1.7808  1.0923
16125SOL    HW252933  11.246  11.938   3.652 -0.5735 -1.0486 -1.8507
16126SOL     OW52934   0.210   8.648  11.705 -0.0936 -0.0552 -0.2583
16126SOL    HW152935   0.250   8.562  11.719 -0.5344 -0.3184 -0.6005
16126SOL    HW252936   0.260   8.707  11.762  1.3748 -0.2079 -1.3060
16127SOL     OW52937  11.353   3.656   5.761 -0.3020 -0.3669  0.2875
16127SOL    HW152938  11.281   3.713   5.732  0.2793 -0.4988 -1.5359
16127SOL    HW252939  11.354   3.585   5.698  2.0662  0.1605 -0.3738
16128SOL     OW52940   3.800  11.936   5.040 -0.3789 -0.3985  0.4051
16128SOL    HW152941   3.774  11.849   5.010  0.2633 -0.6647  0.6158
16128SOL    HW252942   3.886  11.951   5.000  0.0129 -0.3240  1.2498
16129SOL     OW52943   0.808   9.948  11.087 -0.2701 -0.3344  0.9733
16129SOL    HW152944   0.766   9.862  11.076  0.5335 -0.4839 -1.7186
16129SOL    HW252945   0.750  10.009  11.042  0.2701  0.1723  0.9507
16130SOL     OW52946  12.040   6.334  10.277  0.6511  0.1782  0.1315
16130SOL    HW152947  12.012   6.400  10.213  0.8505  0.2879  0.1546
16130SOL    HW252948  12.011   6.369  10.361  0.6161  0.1599  0.1269
16131SOL     OW52949   6.710   9.183   4.392 -0.1025 -0.4234 -0.0674
16131SOL    HW152950   6.724   9.230   4.310  0.4186  1.1165  0.8734
16131SOL    HW252951   6.665   9.246   4.449 -1.4609 -1.8266  0.4820
16132SOL     OW52952   3.827   7.467   2.255  0.1778  0.4325 -0.2131
16132SOL    HW152953   3.894   7.533   2.240  1.2426 -0.3666  0.8391
16132SOL    HW252954   3.836   7.406   2.182 -1.5724  1.9659 -1.8347
16133SOL     OW52955  11.629   6.541   7.851  0.3015  0.0768  0.3866
16133SOL    HW152956  11.720   6.568   7.856 -0.0475  1.6235 -0.7003
16133SOL    HW252957  11.596   6.582   7.770 -1.3079 -0.5618  0.6707
16134SOL     OW52958   0.518   7.134   1.113  0.4665 -0.2070 -0.4528
16134SOL    HW152959   0.601   7.087   1.106  0.2043 -0.7591 -0.0452
16134SOL    HW252960   0.463   7.076   1.167 -0.3535 -0.0951 -1.1527
16135SOL     OW52961   7.570   2.005   3.880 -0.0386  0.4492 -0.3017
16135SOL    HW152962   7.550   1.996   3.787  1.0648  0.2039 -0.5324
16135SOL    HW252963   7.485   2.019   3.922 -0.6137 -0.0341 -1.2732
16136SOL     OW52964   0.203   5.604   7.735  0.2719  0.0763 -0.0160
16136SOL    HW152965   0.159   5.616   7.820 -0.6559  0.2499 -0.5141
16136SOL    HW252966   0.277   5.666   7.738  1.0998 -0.9273  1.2260
16137SOL     OW52967  11.733   8.532   7.846  0.0178 -0.0231  0.1143
16137SOL    HW152968  11.775   8.522   7.761 -2.2329 -0.4732 -1.0200
16137SOL    HW252969  11.756   8.452   7.894  0.4301 -0.2632 -0.4795
16138SOL     OW52970  12.013   9.027  12.107  0.2986  0.2376  0.5550
16138SOL    HW152971  11.940   9.017  12.168  0.6026 -0.3356  0.8338
16138SOL    HW252972  12.084   8.977  12.146  0.6076  0.1549 -0.0941
16139SOL     OW52973   8.712   8.696   3.290 -0.1710  0.4505  0.3478
16139SOL    HW152974   8.635   8.727   3.337 -1.7458 -1.0687 -1.0589
16139SOL    HW252975   8.735   8.768   3.230 -0.4805  0.9126  0.7797
16140SOL     OW52976   3.896   1.978   1.720  0.2627  0.5060  0.5371
16140SOL    HW152977   3.845   2.001   1.798  0.4687 -0.8186  1.1059
16140SOL    HW252978   3.852   1.901   1.685  0.1100  1.1636 -0.7466
16141SOL     OW52979   5.670   9.497   2.048  0.1908  0.3109 -0.4757
16141SOL    HW152980   5.711   9.443   2.115  2.4698  1.2520 -1.0463
16141SOL    HW252981   5.726   9.489   1.972  0.5147  3.2323 -0.6791
16142SOL     OW52982   4.710   2.598   0.423  0.3194  0.2197 -0.0794
16142SOL    HW152983   4.724   2.504   0.423 -1.2843 -0.0974  2.3360
16142SOL    HW252984   4.727   2.626   0.513 -1.9545  1.7265 -0.0253
16143SOL     OW52985   2.628   2.041   7.126 -0.2536 -0.2220 -0.1641
16143SOL    HW152986   2.585   2.122   7.098 -0.0555 -0.3196 -0.7550
16143SOL    HW252987   2.719   2.053   7.101 -0.4630 -1.1555 -1.4062
16144SOL     OW52988   7.778   1.715   2.139 -0.4621 -0.0365  0.2361
16144SOL    HW152989   7.782   1.661   2.218  1.4787  0.0164  0.2194
16144SOL    HW252990   7.850   1.683   2.084 -0.0805  1.6977 -0.3263
16145SOL     OW52991  10.862   6.095   2.889  0.0925  0.1162  0.2474
16145SOL    HW152992  10.869   6.054   2.975 -0.1218 -2.5237 -0.8938
16145SOL    HW252993  10.818   6.030   2.835 -1.1403  2.2770 -1.5275
16146SOL     OW52994   2.740   3.525   0.823  0.3114  0.3287 -0.7784
16146SOL    HW152995   2.674   3.588   0.852 -0.7745 -1.0337 -0.1893
16146SOL    HW252996   2.824   3.568   0.843 -0.3930  1.1315  0.6246
16147SOL     OW52997   0.534   3.527   0.634  0.6375  0.2345 -0.1520
16147SOL    HW152998   0.597   3.521   0.562 -1.0097 -1.6885 -1.5271
16147SOL    HW252999   0.457   3.568   0.595  0.3337  0.8467  1.0328
16148SOL     OW53000   4.699   8.232   4.904  0.1216 -0.6271  0.4191
16148SOL    HW153001   4.751   8.185   4.839  1.7429  1.7488 -0.1621
16148SOL    HW253002   4.611   8.234   4.868  0.3334 -1.8538 -0.2404
16149SOL     OW53003   1.228   3.518   9.973 -0.7788  0.2948  0.3502
16149SOL    HW153004   1.214   3.485   9.884  0.7590  0.0453  0.1643
16149SOL    HW253005   1.305   3.470  10.004  1.1703  3.1982  0.3369
16150SOL     OW53006   0.953  10.490   8.313 -0.3326 -0.1713  0.5617
16150SOL    HW153007   0.871  10.468   8.269 -0.4008 -2.7599  1.8222
16150SOL    HW253008   1.020  10.442   8.264  0.5726  2.1427 -0.6329
16151SOL     OW53009   5.030   5.495   2.367 -0.0051  0.3630 -0.0954
16151SOL    HW153010   4.984   5.449   2.296  1.2316 -0.1046 -0.6330
16151SOL    HW253011   5.006   5.447   2.446 -0.9589  0.5418 -0.2673
16152SOL     OW53012   2.246   6.362   8.691 -0.5525  0.2224  0.1848
16152SOL    HW153013   2.283   6.451   8.696  0.1697 -0.1030  0.9527
16152SOL    HW253014   2.309   6.313   8.638 -0.6133  0.0082  0.3113
16153SOL     OW53015   5.746   4.443  11.783 -0.1976 -0.3303  0.4607
16153SOL    HW153016   5.703   4.379  11.726 -3.0949  2.7651 -1.1568
16153SOL    HW253017   5.709   4.427  11.870 -1.4404 -0.4360 -0.0710
16154SOL     OW53018  10.326  11.797   9.540  0.5376 -0.4753 -0.4187
16154SOL    HW153019  10.262  11.868   9.550  0.3456 -0.9416  2.3245
16154SOL    HW253020  10.277  11.717   9.560  1.4795 -1.0604 -0.3849
16155SOL     OW53021   9.747  11.329  11.799 -0.4320 -0.4038 -0.1246
16155SOL    HW153022   9.841  11.307  11.803 -0.2811 -0.0815 -1.3825
16155SOL    HW253023   9.745  11.424  11.804 -0.6919 -0.4141 -0.0630
16156SOL     OW53024  10.219   7.759   0.883 -0.5721 -0.0860 -0.0287
16156SOL    HW153025  10.178   7.846   0.889 -0.8964 -0.2525  0.1982
16156SOL    HW253026  10.271   7.751   0.963  0.0410  0.1898 -0.3927
16157SOL     OW53027   9.808  10.145  11.220 -0.4425  0.4681 -0.4898
16157SOL    HW153028   9.825  10.101  11.303 -1.8010  0.8829  0.0473
16157SOL    HW253029   9.879  10.208  11.210 -0.1805  0.2963  0.2670
16158SOL     OW53030  11.691  11.222   7.727 -0.4170  0.1083 -0.0384
16158SOL    HW153031  11.655  11.294   7.779 -0.4699 -1.5084  2.3473
16158SOL    HW253032  11.654  11.143   7.768  0.9301 -1.3487 -1.5007
16159SOL     OW53033   6.018   0.700  11.221  0.3176  0.1138 -0.5493
16159SOL    HW153034   6.069   0.764  11.172 -0.5176  0.7231 -0.6413
16159SOL    HW253035   5.966   0.655  11.154 -0.6475  0.7799 -0.2623
16160SOL     OW53036   7.643  10.696   2.793  0.5383  0.1242 -0.1478
16160SOL    HW153037   7.664  10.696   2.886  2.8169  0.0136 -0.6081
16160SOL    HW253038   7.616  10.786   2.774  1.2698  0.4595  0.3785
16161SOL     OW53039  11.488   1.028  11.081  0.0184 -0.5502 -0.4823
16161SOL    HW153040  11.543   0.968  11.029 -1.5834 -2.6338  0.0625
16161SOL    HW253041  11.415   1.047  11.023 -0.2308 -0.3559 -0.0994
16162SOL     OW53042   8.172   8.195   1.649 -0.3733  0.1052 -0.3340
16162SOL    HW153043   8.212   8.281   1.639  0.5963 -0.2661  0.2397
16162SOL    HW253044   8.185   8.152   1.564  1.8742 -0.5721  0.2825
16163SOL     OW53045   7.500   7.840   7.187  0.2001  0.1484 -0.7438
16163SOL    HW153046   7.571   7.876   7.239 -0.4348 -1.2156  1.2036
16163SOL    HW253047   7.426   7.899   7.203  0.3447  0.4503 -1.1661
16164SOL     OW53048  11.333   8.859   1.431 -0.0626 -0.0496 -0.3749
16164SOL    HW153049  11.286   8.939   1.409 -0.7482 -0.8376 -1.9211
16164SOL    HW253050  11.292   8.828   1.512  2.6464  3.0220  2.4470
16165SOL     OW53051   1.860   5.418   4.101 -0.3780  0.5729  0.0364
16165SOL    HW153052   1.816   5.421   4.185 -0.3258  1.3282  0.0458
16165SOL    HW253053   1.921   5.345   4.108 -0.0095  0.9470  0.8444
16166SOL     OW53054   0.583  11.459  10.156  0.1500  0.0970 -0.8076
16166SOL    HW153055   0.597  11.373  10.195  2.5869 -1.0782 -3.8744
16166SOL    HW253056   0.513  11.446  10.092  0.6585  0.3392 -1.4223
16167SOL     OW53057   8.432   4.517   9.871 -0.2868 -0.3722  0.2546
16167SOL    HW153058   8.362   4.460   9.904 -0.3613  0.8131  2.3716
16167SOL    HW253059   8.498   4.516   9.940 -0.2509  1.9507  0.3324
16168SOL     OW53060   9.760   4.835   1.986 -0.1062  0.2692 -0.0519
16168SOL    HW153061   9.695   4.902   1.964  0.6092  0.3860 -1.9794
16168SOL    HW253062   9.710   4.768   2.033 -1.5829  0.4874 -1.2404
16169SOL     OW53063   7.628   2.167   9.061  0.5282  0.0701  0.3927
16169SOL    HW153064   7.625   2.250   9.014  1.1618  0.2286  0.6297
16169SOL    HW253065   7.596   2.188   9.149 -1.0777 -0.3118 -0.0654
16170SOL     OW53066  11.939   9.378  10.454 -0.1697 -0.1626  0.8804
16170SOL    HW153067  12.024   9.358  10.493  0.1841 -0.0110  0.2001
16170SOL    HW253068  11.957   9.392  10.361 -0.6191  1.7606  1.0214
16171SOL     OW53069   7.632   4.491   4.357  0.3435  1.0975  0.0410
16171SOL    HW153070   7.717   4.528   4.334  0.1725  2.5963  1.6270
16171SOL    HW253071   7.652   4.403   4.388  1.4058  1.6424  0.9515
16172SOL     OW53072  10.631   8.827   9.033  0.4068 -0.0428  0.8906
16172SOL    HW153073  10.694   8.802   8.966 -2.0048  0.7839 -1.9235
16172SOL    HW253074  10.592   8.744   9.061  3.3051 -0.7000  3.5327
16173SOL     OW53075  12.095   8.036   2.409  0.2011 -0.2104 -0.0652
16173SOL    HW153076  12.179   8.020   2.451  0.9523  2.8444 -0.1515
16173SOL    HW253077  12.048   8.092   2.471 -1.0270 -0.3822 -0.8062
16174SOL     OW53078   9.795   7.851   3.127 -0.8416  0.2775 -0.9108
16174SOL    HW153079   9.832   7.793   3.194  1.4883  0.3743 -2.0144
16174SOL    HW253080   9.775   7.932   3.174  3.4643  1.4341 -0.6495
16175SOL     OW53081  11.357   9.171   3.802  0.1278 -0.0360 -1.0039
16175SOL    HW153082  11.396   9.224   3.733  0.4321 -0.8765 -1.4961
16175SOL    HW253083  11.285   9.224   3.836 -0.9376 -0.1819 -2.9483
16176SOL     OW53084   2.055   0.157   8.474 -0.1114 -0.0169  0.0333
16176SOL    HW153085   1.964   0.126   8.469 -0.1739  0.3006 -0.8864
16176SOL    HW253086   2.060   0.200   8.560 -0.8737  0.0983  0.0313
16177SOL     OW53087   8.053   9.040  11.729  0.2370 -0.2487 -0.4512
16177SOL    HW153088   8.066   9.058  11.636 -1.0368  0.3833 -0.5250
16177SOL    HW253089   7.992   8.966  11.730 -3.2126  2.3664 -0.2030
16178SOL     OW53090   0.456   7.829   1.867  0.1642  0.6029 -0.3556
16178SOL    HW153091   0.436   7.902   1.926  0.6050  0.8124 -0.4622
16178SOL    HW253092   0.515   7.866   1.801 -0.5289  0.4276 -1.0831
16179SOL     OW53093   7.416   5.817   9.525  0.3086 -0.4861 -0.0974
16179SOL    HW153094   7.480   5.869   9.477 -1.6010  1.9024 -0.2637
16179SOL    HW253095   7.376   5.878   9.586 -0.5098 -2.3584  1.3589
16180SOL     OW53096   2.993   1.028   9.449 -0.1759  0.5321 -0.2842
16180SOL    HW153097   2.914   0.978   9.468 -1.0481  1.2501 -1.8310
16180SOL    HW253098   3.065   0.974   9.483 -1.2469 -0.6055  0.2363
16181SOL     OW53099  10.224   4.275   2.526  0.0896 -0.2391 -0.0723
16181SOL    HW153100  10.242   4.336   2.455 -1.1716  0.9220  0.5434
16181SOL    HW253101  10.148   4.224   2.496  1.0261 -1.4167 -0.5115
16182SOL     OW53102   8.727   5.101  11.378 -0.0633 -0.2324  0.0927
16182SOL    HW153103   8.733   5.196  11.379  1.6458 -0.2970  0.2528
16182SOL    HW253104   8.673   5.079  11.454 -1.6039  0.6390 -0.7293
16183SOL     OW53105  11.923   5.221  10.268  0.5398 -0.4761  0.0027
16183SOL    HW153106  11.945   5.157  10.201  0.2767 -2.1159  1.4210
16183SOL    HW253107  11.849   5.183  10.315 -0.9127  1.7686 -0.3016
16184SOL     OW53108   0.293   4.433  11.819 -0.1720  0.9106  0.2349
16184SOL    HW153109   0.258   4.503  11.875 -1.5477 -0.4805  1.2199
16184SOL    HW253110   0.215   4.385  11.790  0.6242  0.7690 -1.8019
16185SOL     OW53111   8.253   4.827  10.307 -0.0156 -0.1500  0.1198
16185SOL    HW153112   8.327   4.787  10.261  0.9558  1.2143  0.4312
16185SOL    HW253113   8.243   4.913  10.265 -2.5951 -0.9570 -1.1040
16186SOL     OW53114   9.582   2.353   9.431 -0.4652  0.0948  0.2775
16186SOL    HW153115   9.616   2.282   9.378 -0.0077  1.4258 -1.3039
16186SOL    HW253116   9.491   2.329   9.448  0.0880 -1.5552  1.0737
16187SOL     OW53117   8.021  10.521   4.213 -0.3860  0.0722  0.4459
16187SOL    HW153118   8.047  10.434   4.242  2.0276  0.2200 -0.9962
16187SOL    HW253119   7.926  10.514   4.198 -0.0852 -2.6490 -0.7567
16188SOL     OW53120  10.300   7.414   9.876  0.5959  0.6992 -0.6815
16188SOL    HW153121  10.297   7.327   9.837 -2.8077 -0.0226  0.8624
16188SOL    HW253122  10.332   7.400   9.965 -1.8230  0.5903  0.2526
16189SOL     OW53123  10.714   9.599  11.212  0.5727 -0.3566 -0.0563
16189SOL    HW153124  10.670   9.620  11.130  1.2228  0.1048 -0.2900
16189SOL    HW253125  10.806   9.613  11.194  0.7399 -0.4624  0.6940
16190SOL     OW53126   0.282   4.590   4.991 -0.2185 -0.2546  0.2301
16190SOL    HW153127   0.304   4.681   5.010 -1.4992  0.0615  0.2591
16190SOL    HW253128   0.235   4.594   4.907 -0.2413 -0.8935  0.2110
16191SOL     OW53129   4.611  11.699   8.809  0.6067 -0.1775  0.3005
16191SOL    HW153130   4.585  11.617   8.851  1.3930 -0.6306 -0.0712
16191SOL    HW253131   4.663  11.672   8.734  0.2982  0.6578 -0.2218
16192SOL     OW53132   1.288   5.582  10.651  0.0563 -0.5929  0.2228
16192SOL    HW153133   1.274   5.495  10.688  0.1722 -1.1187 -0.9314
16192SOL    HW253134   1.355   5.569  10.584  0.9464  0.6118  0.8519
16193SOL     OW53135  11.658   6.349   6.215  0.3715 -0.2685  0.3221
16193SOL    HW153136  11.562   6.358   6.212  0.2686 -1.3618 -1.6041
16193SOL    HW253137  11.691   6.435   6.189 -0.1345 -0.2387 -0.2499
16194SOL     OW53138  10.541  11.445   1.567  0.2832 -0.0239 -0.2920
16194SOL    HW153139  10.523  11.421   1.658  0.9460  1.4307  0.2669
16194SOL    HW253140  10.595  11.524   1.574  3.4180 -1.8232 -1.8707
16195SOL     OW53141   6.082   3.954   6.582 -0.5731  0.1496 -0.1352
16195SOL    HW153142   6.067   3.875   6.531 -0.6364  0.2479 -0.2686
16195SOL    HW253143   6.007   4.010   6.564 -0.4355  0.3185 -0.1912
16196SOL     OW53144   7.585   8.447   9.101  0.1773  0.1147  0.4962
16196SOL    HW153145   7.637   8.465   9.023  0.1560  0.3609  0.5366
16196SOL    HW253146   7.649   8.425   9.169  0.1061 -2.1223 -0.0949
16197SOL     OW53147   8.259   7.503   2.812  0.0266 -0.4454 -0.0899
16197SOL    HW153148   8.203   7.567   2.855  0.2670 -1.2373  1.4842
16197SOL    HW253149   8.212   7.478   2.733 -1.8468 -1.0409  1.1541
16198SOL     OW53150   7.184   4.634   1.756  0.2725 -0.3123 -0.3802
16198SOL    HW153151   7.122   4.691   1.801  1.1141  0.8459 -0.6350
16198SOL    HW253152   7.270   4.667   1.783  0.7869 -0.1837 -2.0601
16199SOL     OW53153   7.480   5.570   9.558 -0.1379  0.8103  0.0529
16199SOL    HW153154   7.572   5.568   9.534 -0.0938  0.2127  0.2530
16199SOL    HW253155   7.448   5.655   9.526 -0.2234 -0.1127 -2.5911
16200SOL     OW53156   0.582   4.220   5.046 -0.2396  0.2531  0.1909
16200SOL    HW153157   0.493   4.249   5.068  0.2455  1.9983 -0.0496
16200SOL    HW253158   0.629   4.300   5.024  1.0792 -0.7684 -0.8883
16201SOL     OW53159   5.530   9.589   6.648  0.0088  0.3339 -0.0367
16201SOL    HW153160   5.547   9.560   6.737 -1.7330  0.6260  0.4372
16201SOL    HW253161   5.579   9.528   6.592  0.8141 -0.0784  1.0951
16202SOL     OW53162   7.007   5.314   5.138  0.5142  0.3851 -0.0412
16202SOL    HW153163   6.940   5.361   5.088 -1.6950 -2.6875 -0.2606
16202SOL    HW253164   6.961   5.287   5.218  1.6648 -1.3407  0.0744
16203SOL     OW53165  11.914   3.258   3.053 -0.3187  0.4739  0.0819
16203SOL    HW153166  11.970   3.246   3.130 -1.2762  0.8331  0.8523
16203SOL    HW253167  11.832   3.294   3.088 -2.2830 -2.9172 -0.5633
16204SOL     OW53168  10.608   6.263   6.800  0.0387  0.2629  0.1672
16204SOL    HW153169  10.552   6.259   6.723 -0.1509  3.1942  0.0557
16204SOL    HW253170  10.583   6.186   6.851 -0.8326 -0.9792 -1.9759
16205SOL     OW53171   5.504   5.610   8.546 -0.2657 -0.0720  0.3280
16205SOL    HW153172   5.490   5.684   8.605  1.3862  0.5313  0.0289
16205SOL    HW253173   5.581   5.635   8.494 -0.6707 -1.3006 -0.9248
16206SOL     OW53174   0.124   1.955  11.354  0.0054  0.6424  0.4203
16206SOL    HW153175   0.108   1.983  11.444  1.4580  1.4519  0.4560
16206SOL    HW253176   0.163   1.868  11.362 -1.4993 -0.0441  0.4702
16207SOL     OW53177   2.033  10.792  10.022 -0.0850  0.8678 -0.1015
16207SOL    HW153178   2.094  10.787   9.949  0.1690  1.8328  0.0193
16207SOL    HW253179   1.956  10.836   9.986 -0.5518  0.0142 -0.1533
16208SOL     OW53180   3.006  11.204   1.015 -0.8359  0.6266  0.5767
16208SOL    HW153181   2.968  11.154   0.943 -2.1157  0.6881  1.1758
16208SOL    HW253182   2.964  11.290   1.010 -0.3704  0.8820  0.9402
16209SOL     OW53183   7.150   4.659  11.024 -0.1216 -0.0980 -0.2070
16209SOL    HW153184   7.076   4.629  11.078  1.1053 -1.2849  0.8935
16209SOL    HW253185   7.225   4.658  11.084  1.0307 -0.1463 -1.6073
16210SOL     OW53186   5.188  12.096   1.871 -0.7051  0.4377  0.3349
16210SOL    HW153187   5.214  12.175   1.918 -1.0710  0.1297  1.0741
16210SOL    HW253188   5.196  12.026   1.936 -0.2490 -0.1548 -0.3485
16211SOL     OW53189   4.294   2.420  10.900  0.1325  0.1340  0.5747
16211SOL    HW153190   4.360   2.462  10.956  0.0633  0.1802  0.6220
16211SOL    HW253191   4.242   2.366  10.961 -1.9017  2.5246  1.1120
16212SOL     OW53192   6.209   0.367   3.401  0.2351  0.6217  0.2789
16212SOL    HW153193   6.181   0.276   3.395  0.6930  0.4385  0.8706
16212SOL    HW253194   6.144   0.408   3.458  0.5739  0.4331  0.8107
16213SOL     OW53195   2.500   5.732   4.214 -1.0728  0.0657  0.1882
16213SOL    HW153196   2.478   5.650   4.169 -0.3051  0.8586 -1.7328
16213SOL    HW253197   2.594   5.726   4.230 -1.1452  0.2695  0.7050
16214SOL     OW53198   1.380   5.132   8.353  0.3694  0.3520  0.0873
16214SOL    HW153199   1.369   5.105   8.262 -0.1572  1.1732 -0.1102
16214SOL    HW253200   1.345   5.221   8.356 -2.5384 -0.7175  1.7515
16215SOL     OW53201  10.607   8.215   2.517 -0.2369 -0.1633  0.0131
16215SOL    HW153202  10.686   8.211   2.463  0.3803 -0.6798  0.9322
16215SOL    HW253203  10.634   8.178   2.601 -1.7244 -1.3725  0.0027
16216SOL     OW53204   7.915  11.459  11.627  0.7061 -0.3731 -0.1405
16216SOL    HW153205   7.963  11.521  11.572  0.4551 -1.7124 -1.9723
16216SOL    HW253206   7.962  11.460  11.711 -0.2639  3.4608  0.5731
16217SOL     OW53207  11.797  11.026   5.119  0.0747 -0.2385  0.3419
16217SOL    HW153208  11.863  11.040   5.052 -0.9777  0.2062 -0.6413
16217SOL    HW253209  11.821  11.087   5.190  0.3185  0.4329 -0.3073
16218SOL     OW53210   6.310   2.896  11.532  0.6125  0.5773 -0.2502
16218SOL    HW153211   6.397   2.906  11.495  0.7023  0.8483  0.0335
16218SOL    HW253212   6.297   2.801  11.537  0.5629  0.5316 -1.0532
16219SOL     OW53213   1.832   2.640   2.021 -0.3814 -0.1150 -0.3414
16219SOL    HW153214   1.855   2.697   1.948 -2.5382 -1.1941 -1.9747
16219SOL    HW253215   1.902   2.574   2.023  1.0192  1.3323  0.2351
16220SOL     OW53216   6.200   7.129   4.325 -0.5570 -0.2649  0.2814
16220SOL    HW153217   6.141   7.054   4.338 -3.6268  1.8197 -0.3935
16220SOL    HW253218   6.149   7.204   4.357  0.9742  1.9557 -2.1646
16221SOL     OW53219  10.459  11.640   5.944  0.2410 -0.0478 -0.4635
16221SOL    HW153220  10.417  11.722   5.969  2.1888  1.5504 -2.0806
16221SOL    HW253221  10.539  11.637   5.996  0.1175 -1.0168 -0.3153
16222SOL     OW53222   9.864   3.637   2.817 -0.4644  1.2705 -0.3504
16222SOL    HW153223   9.881   3.723   2.779  0.8256  1.7195  1.1635
16222SOL    HW253224   9.777   3.645   2.857 -1.0471  1.3350 -1.5618
16223SOL     OW53225   8.327   0.804   5.074  0.3055 -0.6934  0.3618
16223SOL    HW153226   8.391   0.864   5.113 -0.1491  0.1711 -0.2108
16223SOL    HW253227   8.278   0.857   5.012 -2.4191 -0.7759  2.2499
16224SOL     OW53228   2.920   8.995  10.902  0.4853  0.2848  0.0811
16224SOL    HW153229   2.948   8.915  10.856  0.4864 -0.1194  0.7741
16224SOL    HW253230   2.937   9.065  10.839  1.2016 -0.1714 -0.2529
16225SOL     OW53231   0.111   9.519   9.886  0.2890 -0.3542 -0.0897
16225SOL    HW153232   0.178   9.530   9.819  0.9651 -0.2307  0.6022
16225SOL    HW253233   0.090   9.425   9.883  0.4055 -0.3730 -0.3821
16226SOL     OW53234   6.622   3.307   9.518 -0.1299  0.2904  0.1674
16226SOL    HW153235   6.535   3.279   9.492 -0.2615  0.2547  0.6323
16226SOL    HW253236   6.632   3.276   9.608  0.2763  0.4810  0.1936
16227SOL     OW53237   7.314   0.305   3.468  0.3349  0.2420  0.4229
16227SOL    HW153238   7.284   0.351   3.546 -0.9985 -0.2957  0.2708
16227SOL    HW253239   7.352   0.373   3.413 -0.3033  0.9241  0.8036
16228SOL     OW53240   3.402   0.359  11.677  0.1206 -0.4526  0.6900
16228SOL    HW153241   3.497   0.348  11.671  0.0693 -0.3468 -0.8589
16228SOL    HW253242   3.389   0.454  11.678  0.0171 -0.4642  0.5050
16229SOL     OW53243   9.010   7.254   2.189  0.0737  0.6010  0.2268
16229SOL    HW153244   8.959   7.264   2.108 -1.9863 -0.7935  1.2802
16229SOL    HW253245   8.955   7.290   2.258  0.4093 -1.0385  1.4248
16230SOL     OW53246   0.822   6.417   3.993 -0.7993 -0.1851 -0.1919
16230SOL    HW153247   0.773   6.377   4.065 -1.3811  1.5548  0.4298
16230SOL    HW253248   0.761   6.414   3.919  0.1514 -2.8974 -1.0058
16231SOL     OW53249   4.616   1.443  11.225 -0.2889  0.1460 -0.5344
16231SOL    HW153250   4.590   1.515  11.282  0.2310 -0.2685  0.2311
16231SOL    HW253251   4.587   1.470  11.138  1.8911  2.3276 -0.6781
16232SOL     OW53252   6.435   1.801   7.056  0.9782  0.0774 -0.2276
16232SOL    HW153253   6.519   1.845   7.044  1.4185 -0.8952 -0.8613
16232SOL    HW253254   6.441   1.763   7.144  0.7197  1.0002  0.1955
16233SOL     OW53255   3.764  12.030   7.050 -0.5719 -0.1132 -0.0059
16233SOL    HW153256   3.694  12.067   7.103  1.3900  2.9900  0.6732
16233SOL    HW253257   3.726  12.022   6.963 -1.9587  0.9757  0.4596
16234SOL     OW53258   6.722   2.524   6.507 -0.5217 -0.3506  0.0520
16234SOL    HW153259   6.664   2.557   6.439 -0.6186 -0.9863 -0.1756
16234SOL    HW253260   6.808   2.562   6.485 -0.8674  0.7011  0.4727
16235SOL     OW53261   8.870   2.904   3.766 -0.2638  0.2426 -0.0630
16235SOL    HW153262   8.957   2.866   3.777 -0.2979  0.4308  0.9326
16235SOL    HW253263   8.812   2.845   3.814 -0.5698  0.5650 -0.0304
16236SOL     OW53264   5.372   2.640   8.201 -0.2036  0.2542 -0.1380
16236SOL    HW153265   5.318   2.662   8.125  0.6591  0.2707 -0.7657
16236SOL    HW253266   5.309   2.620   8.270 -1.0470 -1.2505 -1.2769
16237SOL     OW53267   6.263   9.602   6.282 -0.1682 -0.2963 -0.1973
16237SOL    HW153268   6.173   9.573   6.268 -0.6852  0.0251  2.1296
16237SOL    HW253269   6.261   9.696   6.262 -1.3305  0.5625  3.3190
16238SOL     OW53270   7.557   1.811   4.482  0.2941  0.4891  0.4737
16238SOL    HW153271   7.579   1.734   4.535  1.8535 -0.7278 -1.7762
16238SOL    HW253272   7.468   1.795   4.452  0.0960  0.2598  1.1640
16239SOL     OW53273   0.524   9.387   8.712 -0.2676  0.6407 -0.0610
16239SOL    HW153274   0.536   9.479   8.735  0.6693  0.4383  0.3073
16239SOL    HW253275   0.477   9.389   8.629 -1.1793  1.4271  0.4548
16240SOL     OW53276   5.324  11.856   4.964 -0.1281  0.0428 -0.7154
16240SOL    HW153277   5.257  11.802   5.007 -0.1580 -0.5549 -1.4839
16240SOL    HW253278   5.407  11.813   4.985  0.1168  1.2236  0.8856
16241SOL     OW53279   1.075   8.271   2.875 -0.4994 -0.2245 -0.2054
16241SOL    HW153280   1.117   8.250   2.959 -0.2573  0.3958 -0.1678
16241SOL    HW253281   1.143   8.254   2.810 -0.5551 -0.3013 -0.2439
16242SOL     OW53282   9.104   1.768  10.197 -0.2596  0.3010 -0.5002
16242SOL    HW153283   9.027   1.803  10.240  0.0813 -0.2894  0.6261
16242SOL    HW253284   9.078   1.758  10.105 -0.6064  2.6996 -0.7286
16243SOL     OW53285   8.850   4.459   3.341 -0.2343  0.0353 -0.1600
16243SOL    HW153286   8.939   4.492   3.327 -0.1077  0.1957  0.9632
16243SOL    HW253287   8.799   4.536   3.366 -0.1103 -0.4521  1.7170
16244SOL     OW53288   5.068   9.985   8.861 -0.1737 -0.0324  0.2408
16244SOL    HW153289   5.025   9.902   8.843 -2.0939  0.6939  1.1714
16244SOL    HW253290   5.035  10.011   8.947  2.2183  0.5769  1.0453
16245SOL     OW53291   5.613   0.747   3.238 -0.0600  0.5636  0.5151
16245SOL    HW153292   5.526   0.788   3.237 -0.5326 -0.3185 -2.1044
16245SOL    HW253293   5.661   0.791   3.168  1.7232  1.1332  2.0076
16246SOL     OW53294   0.757   2.555   3.232  0.4326 -0.0309 -0.4858
16246SOL    HW153295   0.740   2.633   3.178 -0.6856 -1.3779 -2.1590
16246SOL    HW253296   0.705   2.486   3.192 -0.4807 -1.1353  2.3637
16247SOL     OW53297   3.911   4.106   2.522 -0.0164  1.0737  0.2452
16247SOL    HW153298   3.925   4.194   2.488  0.6355  0.3866 -1.3813
16247SOL    HW253299   3.874   4.119   2.609  1.2766  2.9461  0.5548
16248SOL     OW53300  11.313   7.006   6.134 -0.0629  0.0517 -0.0434
16248SOL    HW153301  11.404   6.989   6.110  0.7508  2.0567  1.3694
16248SOL    HW253302  11.319   7.061   6.212 -2.4664  1.3185 -0.6748
16249SOL     OW53303   0.577  10.174   0.698  0.0075 -0.5786 -0.2002
16249SOL    HW153304   0.589  10.132   0.783 -1.7253 -0.5326  0.1099
16249SOL    HW253305   0.529  10.110   0.646 -0.1442 -0.0776 -0.6934
16250SOL     OW53306   3.346   9.479   3.829  0.0160 -0.3550  0.0260
16250SOL    HW153307   3.322   9.407   3.887 -1.0543  0.3283  0.4620
16250SOL    HW253308   3.292   9.466   3.750 -0.1589 -0.0627  0.0931
16251SOL     OW53309   2.667   2.105   3.056 -0.2307 -0.8981 -0.9921
16251SOL    HW153310   2.623   2.077   2.976 -1.0492 -0.0452 -0.8577
16251SOL    HW253311   2.617   2.064   3.127 -0.1384 -0.8208 -0.8800
16252SOL     OW53312   2.049   1.350   1.040  0.6310  0.6477  1.1571
16252SOL    HW153313   2.029   1.257   1.030 -1.0428  1.0472  0.2713
16252SOL    HW253314   2.112   1.354   1.112  0.0825 -1.0970  1.7836
16253SOL     OW53315   5.532  12.110   8.851  0.2823  0.6000  0.0513
16253SOL    HW153316   5.564  12.140   8.936 -1.0501  0.1809  0.7183
16253SOL    HW253317   5.488  12.027   8.869  0.7187  0.0713 -1.1922
16254SOL     OW53318   2.595  11.618   8.337 -0.3445  0.1965 -0.6581
16254SOL    HW153319   2.647  11.602   8.416  0.0352  0.3367 -0.8777
16254SOL    HW253320   2.638  11.567   8.269  0.2193  1.2388 -1.1145
16255SOL     OW53321   9.802   1.787  10.700  0.2194  0.6125  0.7408
16255SOL    HW153322   9.719   1.834  10.716 -0.0365  0.2225  0.5654
16255SOL    HW253323   9.801   1.768  10.606  0.1426 -0.0785  0.8756
16256SOL     OW53324   3.432   4.121   3.903 -0.0120  0.7740  0.2293
16256SOL    HW153325   3.424   4.049   3.966  1.8100 -1.4223 -1.8764
16256SOL    HW253326   3.344   4.130   3.866 -0.1772 -0.7339  0.2002
16257SOL     OW53327   8.816   6.071   7.181  0.4582  0.6527  0.1511
16257SOL    HW153328   8.801   5.980   7.209  0.8055 -0.8911 -3.8880
16257SOL    HW253329   8.752   6.122   7.230 -0.3138 -1.8921  2.0041
16258SOL     OW53330   8.976   4.805   3.562  0.1370 -0.2567 -0.7142
16258SOL    HW153331   9.011   4.881   3.515 -1.1938 -0.0664 -1.4667
16258SOL    HW253332   9.050   4.746   3.571  1.0490  0.8543 -0.6896
16259SOL     OW53333  12.015   9.531   8.877 -0.4744 -0.4081  0.6084
16259SOL    HW153334  12.015   9.498   8.967  0.8011 -3.1804 -0.2996
16259SOL    HW253335  11.955   9.472   8.830 -0.3069  0.3233 -0.5680
16260SOL     OW53336   6.316   9.538   5.575 -0.4648  0.2261 -0.2199
16260SOL    HW153337   6.307   9.569   5.484  0.0397  0.2635 -0.2633
16260SOL    HW253338   6.279   9.450   5.574  0.5296 -0.1995 -0.7223
16261SOL     OW53339   7.561   6.037   4.125 -0.5273  0.2121  0.0706
16261SOL    HW153340   7.600   6.016   4.209  2.0472  1.9586 -0.5618
16261SOL    HW253341   7.614   5.989   4.061 -0.3912  1.3815 -0.7313
16262SOL     OW53342  11.827   8.951  10.908  0.1166 -0.1552  0.3428
16262SOL    HW153343  11.822   8.989  10.996  1.0167  1.0954 -0.1369
16262SOL    HW253344  11.814   9.025  10.849  2.3632 -0.4528 -0.6206
16263SOL     OW53345   1.221   2.966   9.563  0.8234 -0.1575  0.0324
16263SOL    HW153346   1.236   2.875   9.590 -1.4307 -0.5112  0.2764
16263SOL    HW253347   1.186   2.959   9.474 -0.7362  0.3233  0.5670
16264SOL     OW53348   2.131   5.200   9.438 -0.0166  0.5010  0.0497
16264SOL    HW153349   2.071   5.169   9.506 -0.5296  1.2700 -0.0376
16264SOL    HW253350   2.205   5.140   9.442 -1.7202 -1.8394 -1.3094
16265SOL     OW53351  10.238   0.173   5.990  0.0165 -0.4694 -0.2829
16265SOL    HW153352  10.313   0.116   6.009 -0.3005 -1.7778 -2.5558
16265SOL    HW253353  10.163   0.113   5.989 -0.6991  0.4095 -0.4565
16266SOL     OW53354   0.618   1.086   9.180  0.0899 -0.0650 -0.0055
16266SOL    HW153355   0.609   1.043   9.095  0.4291 -1.3711  0.5953
16266SOL    HW253356   0.634   1.178   9.159 -0.6766 -0.2116 -1.3293
16267SOL     OW53357   7.552   4.500   6.218 -0.0431 -0.2753  0.2909
16267SOL    HW153358   7.602   4.450   6.282  1.1362  0.3079 -0.1466
16267SOL    HW253359   7.485   4.440   6.187 -1.1255 -0.3581  2.5860
16268SOL     OW53360   5.220   7.158   7.947  0.0588 -0.3817  0.5165
16268SOL    HW153361   5.138   7.126   7.909 -0.6756  1.4592  0.4424
16268SOL    HW253362   5.282   7.159   7.874 -0.2379 -0.5504  0.2601
16269SOL     OW53363   6.304   8.857   3.015 -0.5413 -0.0946  0.1024
16269SOL    HW153364   6.387   8.811   3.004 -0.8733 -0.6850 -0.0354
16269SOL    HW253365   6.245   8.814   2.952 -0.8021  0.6803 -0.1966
16270SOL     OW53366   6.317   4.449   1.575 -0.2684  0.3913 -0.4543
16270SOL    HW153367   6.403   4.488   1.557  1.0833 -1.6465  1.0955
16270SOL    HW253368   6.324   4.359   1.544 -1.7526  0.1036 -0.0223
16271SOL     OW53369   4.747   2.987   7.448 -0.0453  0.4657 -0.0293
16271SOL    HW153370   4.691   2.910   7.464  0.4820  0.0755 -0.0211
16271SOL    HW253371   4.686   3.058   7.429 -0.5911  0.2902  0.9870
16272SOL     OW53372   3.926   6.069   2.760  0.3255 -0.1990  0.5480
16272SOL    HW153373   3.992   5.999   2.762  0.2608 -0.2686  0.3387
16272SOL    HW253374   3.929   6.107   2.847 -0.2151 -1.0043  0.9324
16273SOL     OW53375   4.731   9.538   7.967 -0.2057 -0.5281 -0.0244
16273SOL    HW153376   4.735   9.614   8.025 -1.9985 -0.0452 -0.4522
16273SOL    HW253377   4.663   9.482   8.006 -1.0038 -0.4853 -1.2692
16274SOL     OW53378  12.061   1.859   9.940 -0.5196 -0.3258 -0.7359
16274SOL    HW153379  11.968   1.876   9.957 -0.1917  1.0886 -0.2386
16274SOL    HW253380  12.068   1.854   9.845 -1.1067 -0.5097 -0.7719
16275SOL     OW53381   0.795  11.639   1.114 -0.3652  0.2624  0.2629
16275SOL    HW153382   0.831  11.569   1.059  1.2996 -0.7688  2.5196
16275SOL    HW253383   0.852  11.714   1.097 -1.0383  0.5513 -0.8061
16276SOL     OW53384   6.326   1.516   2.772  0.5841  0.9674 -0.3298
16276SOL    HW153385   6.294   1.489   2.686 -1.9888  1.4103  0.4086
16276SOL    HW253386   6.261   1.482   2.834  1.7621  1.6358  1.3521
16277SOL     OW53387  11.146   2.475   6.324  0.3016  0.1222  0.3418
16277SOL    HW153388  11.232   2.476   6.367  1.2258 -0.1437 -1.3866
16277SOL    HW253389  11.137   2.562   6.287  0.1846 -0.0952 -0.1460
16278SOL     OW53390  10.928   6.285   6.077  0.3162  0.0822  0.2594
16278SOL    HW153391  10.853   6.301   6.019 -0.2115  1.8502  1.3507
16278SOL    HW253392  10.978   6.367   6.075  1.5057 -0.6176  0.5742
16279SOL     OW53393   8.901   7.276   3.555 -0.1983  0.1413  0.3794
16279SOL    HW153394   8.877   7.212   3.621 -1.5948  0.3254  0.0850
16279SOL    HW253395   8.899   7.360   3.600  1.5625  0.0355  0.7475
16280SOL     OW53396   5.973   0.875   9.200 -0.3999  0.1274  0.2586
16280SOL    HW153397   6.059   0.907   9.228  0.1483  0.0031 -1.1902
16280SOL    HW253398   5.914   0.948   9.218  0.1512  0.5280  0.4899
16281SOL     OW53399   2.683   0.309   0.523 -0.2593  0.1189  0.1826
16281SOL    HW153400   2.668   0.357   0.442 -1.8332 -0.0057  0.3717
16281SOL    HW253401   2.742   0.364   0.573  0.5393  0.3121 -0.9406
16282SOL     OW53402  11.039   8.232   3.567 -0.5019 -0.0702 -0.5138
16282SOL    HW153403  10.988   8.155   3.543 -0.4835 -0.4036  0.4703
16282SOL    HW253404  11.043   8.285   3.487 -0.2731 -1.2240 -1.2872
16283SOL     OW53405   0.405   6.530  11.538  0.2402 -0.1981  0.0473
16283SOL    HW153406   0.399   6.623  11.557  0.2522 -0.4489  1.3542
16283SOL    HW253407   0.474   6.497  11.596 -0.4858 -1.2029  0.3679
16284SOL     OW53408   6.389   9.491   3.322  0.0964 -0.0426  0.4681
16284SOL    HW153409   6.319   9.512   3.260 -2.2561 -2.6138  2.0224
16284SOL    HW253410   6.365   9.539   3.402 -0.5840 -1.7370  1.3379
16285SOL     OW53411   6.935   7.339   3.800  0.5708 -0.3144 -0.2892
16285SOL    HW153412   6.915   7.423   3.760  0.1385  0.4692  1.5023
16285SOL    HW253413   6.850   7.302   3.824  0.8493  0.3758  2.0600
16286SOL     OW53414   6.561   6.913   9.317 -0.3863  0.3320 -0.2673
16286SOL    HW153415   6.556   6.833   9.264  2.6409  1.2681 -2.1890
16286SOL    HW253416   6.576   6.983   9.254  0.0469  2.0156  1.6007
16287SOL     OW53417   1.097   6.591   4.084  0.2877 -0.1266  0.6599
16287SOL    HW153418   1.162   6.522   4.068 -0.0963 -0.2658 -0.3581
16287SOL    HW253419   1.013   6.545   4.080  0.0786  0.2098  1.1049
16288SOL     OW53420   6.872   2.800  11.343 -0.2246 -0.1497 -0.0185
16288SOL    HW153421   6.964   2.826  11.336 -0.3695  0.8188  1.2248
16288SOL    HW253422   6.825   2.882  11.359 -1.0189 -0.8792  1.5936
16289SOL     OW53423   0.320   0.239   2.563 -0.2896  0.0867  0.1085
16289SOL    HW153424   0.353   0.320   2.603  0.6081 -0.1160 -0.1910
16289SOL    HW253425   0.257   0.269   2.497  0.2129  0.5690 -0.1646
16290SOL     OW53426   0.546   9.369  10.770  0.1940 -0.1234  0.3982
16290SOL    HW153427   0.627   9.333  10.732 -0.9532 -1.7059 -0.6652
16290SOL    HW253428   0.491   9.292  10.787 -2.6368  1.0190 -2.5808
16291SOL     OW53429   3.133   7.545   2.894 -0.4871  0.3834  0.0425
16291SOL    HW153430   3.091   7.460   2.909  0.4139  0.0807  0.9171
16291SOL    HW253431   3.066   7.609   2.917 -1.5934 -0.0328 -1.7234
16292SOL     OW53432   8.609   2.421   5.862 -0.2975 -0.6147  0.1898
16292SOL    HW153433   8.565   2.463   5.788 -1.6886 -0.7122  0.9423
16292SOL    HW253434   8.691   2.387   5.825 -0.2751  0.6327 -0.9644
16293SOL     OW53435   5.253   7.618  10.036 -0.2002  0.2208  0.0850
16293SOL    HW153436   5.246   7.541   9.979  0.8080  1.3674 -1.6734
16293SOL    HW253437   5.345   7.619  10.063  0.0645  1.3609 -0.7812
16294SOL     OW53438   0.582   2.272  10.728 -0.4844  0.3607 -0.1695
16294SOL    HW153439   0.489   2.251  10.725 -0.4326 -0.1905  1.4797
16294SOL    HW253440   0.610   2.268  10.636 -1.2056 -3.5150 -0.3606
16295SOL     OW53441   5.693   4.791   8.865  0.0880 -0.3883 -0.0821
16295SOL    HW153442   5.630   4.761   8.930 -0.9174 -0.4800 -1.0734
16295SOL    HW253443   5.645   4.790   8.782  0.8782  1.1814 -0.6032
16296SOL     OW53444   5.043  11.211  11.502  0.5825 -0.3018  0.0259
16296SOL    HW153445   5.018  11.174  11.587  2.1744 -2.5288 -0.3729
16296SOL    HW253446   5.091  11.291  11.524 -0.6886  0.1989  1.0922
16297SOL     OW53447   8.016  11.422   4.511 -0.1003  0.2704  0.1581
16297SOL    HW153448   8.054  11.505   4.485 -2.2112  1.0737 -0.5316
16297SOL    HW253449   7.930  11.420   4.470  0.3916 -2.8993 -1.0434
16298SOL     OW53450   2.324  10.241   2.494 -0.3577  0.5208  0.0926
16298SOL    HW153451   2.265  10.218   2.566  0.4293 -0.2157  0.5264
16298SOL    HW253452   2.343  10.334   2.506 -1.3860  0.7510 -0.0275
16299SOL     OW53453  10.282   9.667   3.524 -0.1050 -0.1721  0.4495
16299SOL    HW153454  10.264   9.619   3.443  1.7013 -0.0704 -0.0672
16299SOL    HW253455  10.320   9.601   3.583 -2.9790 -0.6721  1.9441
16300SOL     OW53456   4.751   5.323   3.769  0.0413 -0.3045 -0.2782
16300SOL    HW153457   4.701   5.384   3.715  2.3979  0.6827 -1.5195
16300SOL    HW253458   4.809   5.380   3.821  0.4159 -1.3901  0.5158
16301SOL     OW53459   3.600   3.898  10.363  0.2184  0.0832 -0.0284
16301SOL    HW153460   3.645   3.814  10.352 -1.6803 -0.9887  0.1082
16301SOL    HW253461   3.615   3.944  10.280 -0.7256 -1.3919 -1.0618
16302SOL     OW53462   8.091  10.591   4.466 -0.3479 -0.0059 -0.3438
16302SOL    HW153463   8.130  10.570   4.381 -1.5493  1.1448 -1.2202
16302SOL    HW253464   8.144  10.663   4.499 -0.5590  0.2922 -0.6470
16303SOL     OW53465   4.046   7.451   9.567 -0.7660 -0.0899  0.2650
16303SOL    HW153466   3.957   7.484   9.578 -1.5118 -2.1858  1.1329
16303SOL    HW253467   4.100   7.507   9.623 -1.5818  0.9609  0.0343
16304SOL     OW53468  10.863   2.109   0.725 -0.6325 -0.3881  0.6822
16304SOL    HW153469  10.874   2.074   0.813 -0.6999 -0.4413  0.6703
16304SOL    HW253470  10.933   2.070   0.674  0.1633  0.6025  0.9859
16305SOL     OW53471  10.707   8.489   5.526  0.1450 -0.4450 -0.4614
16305SOL    HW153472  10.667   8.576   5.518  0.5400 -0.1888  0.2391
16305SOL    HW253473  10.780   8.502   5.586  0.6729 -1.1133 -0.9439
16306SOL     OW53474   7.243   7.065   7.046 -0.0744 -0.6835 -0.3064
16306SOL    HW153475   7.250   7.142   6.991  0.0700  0.3618  1.1118
16306SOL    HW253476   7.187   7.092   7.119  1.3949 -1.3406  1.1438
16307SOL     OW53477   5.992   6.074   7.979 -0.3190 -0.1034 -0.5108
16307SOL    HW153478   5.951   6.061   7.894 -1.9037  0.2556  0.1624
16307SOL    HW253479   5.961   6.160   8.008 -0.1108 -0.3820  0.5890
16308SOL     OW53480   7.364   0.352   0.909  0.3631 -0.1292 -0.1496
16308SOL    HW153481   7.336   0.311   0.990 -0.4787 -0.4009 -0.5587
16308SOL    HW253482   7.460   0.348   0.910  0.3881  0.4771  1.1247
16309SOL     OW53483  10.548   1.401   1.779  0.7884  0.0533  0.2607
16309SOL    HW153484  10.627   1.455   1.772  0.5042  0.3716 -0.7332
16309SOL    HW253485  10.581   1.313   1.798  1.3720  0.2301  0.0982
16310SOL     OW53486   6.386   9.121   4.844  0.3130 -0.1897  0.1348
16310SOL    HW153487   6.371   9.136   4.750 -0.5492  1.1331  0.4584
16310SOL    HW253488   6.405   9.028   4.850  0.1932 -0.3389 -1.3422
16311SOL     OW53489   3.376  10.808   0.869  0.0508  0.0923  0.2364
16311SOL    HW153490   3.348  10.896   0.894  1.8844  0.5297  0.9583
16311SOL    HW253491   3.324  10.787   0.792  2.0885  3.4253 -2.3513
16312SOL     OW53492   5.137   8.057   0.228 -0.1521 -0.2442 -0.3050
16312SOL    HW153493   5.228   8.084   0.222  0.4271 -1.9057  0.4038
16312SOL    HW253494   5.089   8.120   0.173  1.3979  0.6720 -0.6510
16313SOL     OW53495   1.648   8.746   3.428  0.3345  0.2917 -0.2897
16313SOL    HW153496   1.692   8.737   3.513  0.0831  1.1912 -0.0506
16313SOL    HW253497   1.706   8.701   3.366 -0.0222 -1.3555  0.5116
16314SOL     OW53498  11.549   0.998   1.863  0.5692  0.1056 -0.6139
16314SOL    HW153499  11.570   0.965   1.776  1.4304 -1.8851  0.2925
16314SOL    HW253500  11.506   0.925   1.907 -0.8283  1.4251  0.3118
16315SOL     OW53501   2.606   7.580  10.894 -0.1984 -0.1217  0.0593
16315SOL    HW153502   2.585   7.669  10.865 -1.3343 -0.0414  1.0430
16315SOL    HW253503   2.543   7.524  10.849 -1.1104 -0.1340  1.2954
16316SOL     OW53504   2.118   7.078   7.109 -0.1690 -0.1803 -0.0276
16316SOL    HW153505   2.207   7.098   7.081 -0.6945  1.3658 -0.7335
16316SOL    HW253506   2.098   7.145   7.175 -0.7287 -0.6400  0.2775
16317SOL     OW53507   5.008  11.557  11.833 -0.1490  0.2916 -0.6066
16317SOL    HW153508   4.939  11.570  11.898 -0.1924 -1.0551 -0.3526
16317SOL    HW253509   5.079  11.615  11.861 -1.0499  1.4754 -0.7029
16318SOL     OW53510   7.645   2.841  11.649  0.2116 -0.0310 -0.5023
16318SOL    HW153511   7.555   2.864  11.629 -0.4312  0.7678  2.7676
16318SOL    HW253512   7.695   2.921  11.633 -0.7198  1.4599  3.0994
16319SOL     OW53513   0.313   5.324   6.646 -0.1101 -0.4694  0.7939
16319SOL    HW153514   0.220   5.317   6.624  0.3538 -1.1434 -1.1760
16319SOL    HW253515   0.336   5.237   6.680 -0.3312 -0.0781  2.0104
16320SOL     OW53516  11.002  11.926   9.386 -0.4782 -0.1209  0.3061
16320SOL    HW153517  11.096  11.933   9.405 -0.8879  1.3772  1.9961
16320SOL    HW253518  10.960  11.924   9.472 -2.0107 -1.0573 -0.4219
16321SOL     OW53519   5.452  12.048   6.123  0.0023 -0.2273  0.4348
16321SOL    HW153520   5.359  12.070   6.116 -0.2815 -1.6251 -0.4161
16321SOL    HW253521   5.457  11.956   6.098  1.8245  0.2217 -1.0779
16322SOL     OW53522   1.028   9.915  11.834 -0.3471 -0.3744 -0.0177
16322SOL    HW153523   1.088   9.989  11.848  0.6074 -1.5126  2.4420
16322SOL    HW253524   0.966   9.920  11.907 -2.4202 -0.0987 -1.7047
16323SOL     OW53525   2.762   0.837   9.782  0.3469 -0.4813  0.4063
16323SOL    HW153526   2.673   0.872   9.794  0.5248  0.5273 -0.9802
16323SOL    HW253527   2.820   0.907   9.813  0.6740 -0.5735  0.0053
16324SOL     OW53528   3.639   2.962   8.245 -0.4633  0.2752 -0.2338
16324SOL    HW153529   3.639   2.975   8.339 -1.5624 -1.8278  0.1145
16324SOL    HW253530   3.722   3.001   8.215  1.5222 -1.8930  2.0511
16325SOL     OW53531   3.399  12.121  10.263  0.7125 -0.6416  0.0474
16325SOL    HW153532   3.372  12.213  10.265 -0.3605 -0.9588  0.9614
16325SOL    HW253533   3.489  12.123  10.230  1.2251  0.8778  1.4062
16326SOL     OW53534   7.210   1.440   9.263 -0.0285  0.3666  0.4682
16326SOL    HW153535   7.303   1.459   9.268  0.0981 -0.1032 -0.0388
16326SOL    HW253536   7.168   1.526   9.260  0.3396  0.5885  1.3980
16327SOL     OW53537   6.434   3.862   8.123  0.3360 -0.1739  0.1409
16327SOL    HW153538   6.414   3.784   8.070  0.6620 -1.0602  1.2922
16327SOL    HW253539   6.515   3.895   8.087  0.5780 -0.7966  0.0938
16328SOL     OW53540   8.710  10.663   2.880 -0.3308  0.0205 -0.9686
16328SOL    HW153541   8.654  10.586   2.891  1.9943 -1.5275  1.1940
16328SOL    HW253542   8.773  10.638   2.812  0.0777  0.2272 -0.6730
16329SOL     OW53543   2.186   7.594   2.739 -0.6307  0.2948  0.1390
16329SOL    HW153544   2.206   7.557   2.653 -1.2340 -0.2629  0.2348
16329SOL    HW253545   2.105   7.643   2.726  0.4898  2.1672 -0.1423
16330SOL     OW53546  10.133   0.993   1.012  0.2663 -0.6791  0.5382
16330SOL    HW153547  10.196   1.065   1.014 -0.3743 -0.0753 -0.2856
16330SOL    HW253548  10.182   0.918   1.046  0.8063  0.2366  1.8572
16331SOL     OW53549   9.063   9.615  11.558 -0.4871  0.6321  0.3519
16331SOL    HW153550   9.156   9.628  11.543 -0.7332  0.0591 -2.2551
16331SOL    HW253551   9.057   9.541  11.618  0.7503 -0.3056 -0.6358
16332SOL     OW53552   2.572  10.274   0.150 -0.2675  0.1366  0.8784
16332SOL    HW153553   2.662  10.256   0.176  1.0173  0.0807 -2.9851
16332SOL    HW253554   2.529  10.188   0.150  0.4609 -0.2423  0.3411
16333SOL     OW53555   2.769   2.646   0.594 -0.5658 -0.2607  0.5207
16333SOL    HW153556   2.805   2.569   0.638 -0.9175  0.2072  1.6841
16333SOL    HW253557   2.689   2.614   0.552 -0.8607 -0.4931  1.2306
16334SOL     OW53558   1.756  10.005  11.045 -0.0958  0.0474 -0.3965
16334SOL    HW153559   1.679  10.043  11.087 -0.1997  1.3116 -1.6552
16334SOL    HW253560   1.723   9.928  10.999 -0.1669 -0.7290  0.9064
16335SOL     OW53561   2.127   8.930  12.019 -0.0452  0.7807 -0.7145
16335SOL    HW153562   2.186   8.912  11.946  1.1318  2.1818 -0.1729
16335SOL    HW253563   2.185   8.959  12.089 -1.3268  1.6254  0.0339
16336SOL     OW53564  11.153   9.432   8.443 -0.0530  0.2425  0.5534
16336SOL    HW153565  11.176   9.521   8.416 -0.6718 -0.2658 -1.9558
16336SOL    HW253566  11.229   9.401   8.492  1.4478  1.1482 -1.0825
16337SOL     OW53567   0.347   4.212   0.051  0.4756 -0.3700  0.2195
16337SOL    HW153568   0.423   4.212   0.110  1.3893 -3.3550 -0.7773
16337SOL    HW253569   0.382   4.246  -0.032 -0.4809  2.5246  0.8860
16338SOL     OW53570   6.712   2.191  10.792 -0.9269 -0.5064  0.2446
16338SOL    HW153571   6.778   2.132  10.754  2.2457  2.5369  0.4835
16338SOL    HW253572   6.753   2.223  10.873 -3.0124  1.1105  0.7306
16339SOL     OW53573   2.645   9.182   8.262  0.0278  0.4066 -0.3856
16339SOL    HW153574   2.741   9.181   8.259  0.0229  0.7258 -0.8060
16339SOL    HW253575   2.624   9.178   8.355  0.4501  0.3208 -0.2903
16340SOL     OW53576   6.760   8.158   4.945  0.0545  0.3679  0.2554
16340SOL    HW153577   6.769   8.063   4.931 -0.0521  0.5536 -1.2257
16340SOL    HW253578   6.839   8.182   4.994  0.4237 -0.3891  0.0517
16341SOL     OW53579  10.498   9.855   1.567  0.3821  0.2959 -0.5579
16341SOL    HW153580  10.553   9.918   1.521 -0.2167  1.8563  0.7775
16341SOL    HW253581  10.523   9.864   1.659  0.9966 -2.1697 -0.4022
16342SOL     OW53582   0.229   4.696  11.629 -0.4692  0.0930  0.4119
16342SOL    HW153583   0.211   4.604  11.650  0.6207 -0.0997  0.5883
16342SOL    HW253584   0.154   4.744  11.662  0.3348 -0.3879  3.1736
16343SOL     OW53585   0.192   1.893   1.088 -0.6308 -0.1645 -0.4773
16343SOL    HW153586   0.208   1.839   1.010 -0.0559 -2.5989  1.2079
16343SOL    HW253587   0.101   1.873   1.113 -0.6210  0.1490 -0.1802
16344SOL     OW53588   5.316   8.945  11.554  0.1873 -0.2385  0.0531
16344SOL    HW153589   5.335   8.964  11.646  0.9101  0.8180 -0.2852
16344SOL    HW253590   5.266   8.864  11.555  0.2521 -0.2772  1.3721
16345SOL     OW53591   5.562  11.592   8.518 -0.4307  0.4461  0.1182
16345SOL    HW153592   5.517  11.507   8.517 -1.1787  0.8321 -0.0921
16345SOL    HW253593   5.585  11.607   8.426 -2.0986  1.3728 -0.2030
16346SOL     OW53594  10.871   1.282   6.823  0.2034  0.8227  0.3908
16346SOL    HW153595  10.903   1.266   6.734  0.0401  0.9522  0.3089
16346SOL    HW253596  10.906   1.368   6.845  0.8737  0.4642  0.7378
16347SOL     OW53597   3.554  11.623   5.931 -0.4043  0.2005  0.1595
16347SOL    HW153598   3.631  11.678   5.941 -0.1006 -0.5517  2.7295
16347SOL    HW253599   3.481  11.684   5.920  0.2015  1.0307  0.6897
16348SOL     OW53600   4.063   6.444   4.070 -0.0653  0.2259  0.4215
16348SOL    HW153601   4.103   6.454   3.984  0.4470 -1.4215  0.4198
16348SOL    HW253602   4.119   6.495   4.129  2.0215 -1.8089  0.3743
16349SOL     OW53603   6.309   1.167   8.288  0.7148  0.2004 -0.1195
16349SOL    HW153604   6.267   1.101   8.343  0.0881  0.2474 -0.5388
16349SOL    HW253605   6.403   1.159   8.308  0.4700  0.4832  1.2625
16350SOL     OW53606   3.119   8.001   3.683 -0.0969 -0.1173  0.0199
16350SOL    HW153607   3.029   8.027   3.666 -0.5912 -0.9110  1.2543
16350SOL    HW253608   3.155   7.979   3.597 -1.2972 -0.4219 -0.4154
16351SOL     OW53609  11.129   4.330   2.835  0.2495  0.0169  0.3190
16351SOL    HW153610  11.199   4.268   2.816 -0.7026 -1.7120  2.1982
16351SOL    HW253611  11.165   4.386   2.904  0.9893  1.4684 -1.1548
16352SOL     OW53612   0.939   7.804   9.684  0.1129 -0.1918 -0.8404
16352SOL    HW153613   0.903   7.870   9.744 -0.9354 -0.6318 -0.9637
16352SOL    HW253614   1.027   7.837   9.663  0.8055 -0.3356  1.4564
16353SOL     OW53615   2.695   1.803  12.042 -0.1768 -0.2004  0.0004
16353SOL    HW153616   2.676   1.859  11.967 -2.1277  0.2618  0.7742
16353SOL    HW253617   2.628   1.825  12.107  1.3593 -0.6678  1.8575
16354SOL     OW53618   0.299   8.715   4.935  0.0400 -0.4150  0.7137
16354SOL    HW153619   0.265   8.628   4.955 -0.7733 -0.1309  0.6009
16354SOL    HW253620   0.386   8.716   4.974  0.1186 -1.3294  0.5877
16355SOL     OW53621   5.474   9.181   7.458  0.1299  0.1474 -0.0045
16355SOL    HW153622   5.497   9.184   7.551 -0.4020  2.0893  0.1158
16355SOL    HW253623   5.558   9.189   7.413  0.3191  0.0755  0.3304
16356SOL     OW53624   4.390  10.846  11.842 -0.5389  0.1052 -0.3229
16356SOL    HW153625   4.385  10.877  11.933 -2.0756 -1.5503  0.2425
16356SOL    HW253626   4.349  10.915  11.791 -1.7514  0.0945  0.5815
16357SOL     OW53627   8.770   4.537   3.035  0.6957 -0.0632  0.0932
16357SOL    HW153628   8.807   4.461   3.081 -0.8963 -0.2647  1.1053
16357SOL    HW253629   8.818   4.612   3.071  0.2523 -0.3294  1.2770
16358SOL     OW53630   1.018   1.806   5.577  0.2796  0.0673  0.0333
16358SOL    HW153631   1.014   1.864   5.501  1.0197 -0.6091 -0.5467
16358SOL    HW253632   1.023   1.718   5.540  0.5043 -0.2840  0.8655
16359SOL     OW53633   6.311   7.600   5.969  0.1930 -0.6123  0.2248
16359SOL    HW153634   6.354   7.523   6.004  4.3446  1.0036 -0.7526
16359SOL    HW253635   6.263   7.637   6.044  0.6245 -2.4812  1.4802
16360SOL     OW53636   1.501   8.847   9.732 -0.1004 -0.0990 -0.8861
16360SOL    HW153637   1.550   8.879   9.656 -0.9433  0.1488 -1.3392
16360SOL    HW253638   1.419   8.896   9.729 -0.3502 -0.4636 -0.1005
16361SOL     OW53639   2.584   3.115   4.455 -0.4026 -0.0288  0.1500
16361SOL    HW153640   2.593   3.123   4.360 -0.6362 -0.5693  0.0775
16361SOL    HW253641   2.659   3.063   4.482  0.3177  1.1269  0.4245
16362SOL     OW53642  10.098   4.626   7.494 -0.9249  0.3931  0.8241
16362SOL    HW153643  10.004   4.636   7.479 -0.9176  0.4999  0.8469
16362SOL    HW253644  10.135   4.710   7.468 -0.2501 -1.0620 -3.8015
16363SOL     OW53645   4.518  11.735   7.290 -0.3770  0.3147  0.4998
16363SOL    HW153646   4.496  11.813   7.341 -0.7269  1.2104 -0.9610
16363SOL    HW253647   4.541  11.669   7.355 -0.3663  1.5467  1.7831
16364SOL     OW53648   4.114   7.727   2.480  0.2910  0.1073  0.1856
16364SOL    HW153649   4.193   7.726   2.427  1.1891  0.1112  1.4669
16364SOL    HW253650   4.095   7.635   2.497  2.2777  0.0991  3.0093
16365SOL     OW53651   9.400  10.008   6.828 -0.6101  0.8000 -0.2293
16365SOL    HW153652   9.493   9.986   6.822 -0.2539  1.0832  2.7100
16365SOL    HW253653   9.363   9.980   6.744  1.8730 -0.5203 -0.9870
16366SOL     OW53654   7.090   5.294   0.013 -0.4560  0.0489  0.3348
16366SOL    HW153655   7.011   5.334  -0.023  0.8720  2.1997 -0.4221
16366SOL    HW253656   7.158   5.315  -0.051  0.7590 -1.7302  0.9667
16367SOL     OW53657   8.420  11.789   8.492 -0.4500  0.1486  0.1980
16367SOL    HW153658   8.461  11.836   8.565 -0.3835  0.5038 -0.0694
16367SOL    HW253659   8.343  11.841   8.470  0.0337  0.5539 -0.5933
16368SOL     OW53660   1.459   6.949  11.226  0.1076  0.3690 -0.5727
16368SOL    HW153661   1.364   6.961  11.223 -0.0800 -0.9174 -0.3124
16368SOL    HW253662   1.476   6.879  11.162  0.5872 -1.0085  1.0011
16369SOL     OW53663   0.673   9.974   9.109  0.4487  0.2685  0.5489
16369SOL    HW153664   0.679  10.058   9.155 -0.3314  1.5772 -1.6021
16369SOL    HW253665   0.591   9.979   9.061 -0.3482 -2.3804  1.4834
16370SOL     OW53666   9.730   8.785   1.620  0.0469  0.2819 -0.5173
16370SOL    HW153667   9.748   8.722   1.690  0.1394  0.9821  0.0954
16370SOL    HW253668   9.745   8.870   1.660 -0.9956  0.7396 -1.0637
16371SOL     OW53669   6.467   0.279   0.076  0.2920 -0.2170 -0.7950
16371SOL    HW153670   6.447   0.327  -0.004  0.5536  2.4820  0.6490
16371SOL    HW253671   6.392   0.296   0.133  2.0363  1.7034  1.0954
16372SOL     OW53672   1.253  11.598   6.810  0.4129  0.0214 -0.6836
16372SOL    HW153673   1.176  11.640   6.771 -0.9290 -0.3297  1.4268
16372SOL    HW253674   1.324  11.659   6.794 -1.2356  2.6728  1.2601
16373SOL     OW53675   8.177   3.455   2.560  0.0060 -0.5580 -0.1856
16373SOL    HW153676   8.164   3.365   2.530 -2.6093 -0.1115 -0.5966
16373SOL    HW253677   8.219   3.499   2.486  0.3403 -1.1981 -0.3794
16374SOL     OW53678  11.018  11.186   0.320 -0.4552  0.7133  0.0949
16374SOL    HW153679  10.926  11.208   0.301  0.0377  1.5558 -1.5901
16374SOL    HW253680  11.038  11.233   0.401 -1.3515  0.9897  0.1647
16375SOL     OW53681   5.126   5.643   8.945 -0.3149  0.4295 -0.4155
16375SOL    HW153682   5.045   5.679   8.981  0.0421  0.2746  0.5641
16375SOL    HW253683   5.143   5.564   8.997  0.2524  0.2441 -0.8731
16376SOL     OW53684   3.019  11.868   3.729  0.7479 -0.4200  0.0592
16376SOL    HW153685   3.003  11.864   3.635  0.0085 -2.0080  0.2157
16376SOL    HW253686   3.076  11.794   3.747  1.7146  0.4659  0.7328
16377SOL     OW53687   8.690   8.685   5.854 -0.0530  0.4084  0.4140
16377SOL    HW153688   8.615   8.744   5.857 -1.0135 -0.7132 -0.5634
16377SOL    HW253689   8.754   8.730   5.799 -0.4162  0.9186  0.3970
16378SOL     OW53690   2.277  11.360  10.718  0.3917 -0.4680  0.4174
16378SOL    HW153691   2.204  11.298  10.708  0.2185  0.0394 -2.2310
16378SOL    HW253692   2.235  11.440  10.748 -0.1404 -0.3071 -0.6799
16379SOL     OW53693   9.906  11.664   1.061  0.0401  0.5970  0.5804
16379SOL    HW153694   9.891  11.574   1.033 -0.7769  1.1665 -0.9231
16379SOL    HW253695   9.952  11.705   0.988  1.3883  1.1421  1.6864
16380SOL     OW53696   6.812   6.003   9.304  0.1851 -0.1399 -0.1638
16380SOL    HW153697   6.739   5.973   9.358  1.2161 -1.0760  0.7748
16380SOL    HW253698   6.857   6.068   9.358  0.2123  0.2440 -0.6348
16381SOL     OW53699   5.755   3.337   7.475 -0.2169 -0.1794  0.0962
16381SOL    HW153700   5.678   3.279   7.474 -0.4366  0.0529 -2.4860
16381SOL    HW253701   5.737   3.399   7.546 -0.9433 -1.9746  1.5549
16382SOL     OW53702   4.860   4.025  12.086  0.0103  0.5694  0.2007
16382SOL    HW153703   4.872   4.072  12.169  1.0191  0.0664  0.3551
16382SOL    HW253704   4.769   3.994  12.089  0.0671  0.4754  1.1566
16383SOL     OW53705   2.109   1.671   3.439 -0.6536 -1.0538  0.3251
16383SOL    HW153706   2.073   1.618   3.368 -1.6133  2.6218 -2.2442
16383SOL    HW253707   2.032   1.714   3.477  0.2446  0.7926  0.1657
16384SOL     OW53708   5.935   6.669   3.228  0.3119 -1.0429 -0.0970
16384SOL    HW153709   5.854   6.716   3.207  0.2265 -0.6804  0.9661
16384SOL    HW253710   5.941   6.601   3.161  0.3625  0.3747 -1.5930
16385SOL     OW53711  10.407  10.670   8.678 -0.2596  0.0318 -1.0463
16385SOL    HW153712  10.377  10.596   8.730 -0.4471  0.2137 -0.8961
16385SOL    HW253713  10.441  10.733   8.742  0.3591 -0.1303 -1.2052
16386SOL     OW53714  10.487   6.863   5.040  0.4424 -0.2573 -0.1663
16386SOL    HW153715  10.511   6.916   4.964 -0.8077 -0.9959 -1.1154
16386SOL    HW253716  10.530   6.778   5.024 -2.5789 -1.6222 -1.9236
16387SOL     OW53717   1.588   5.396   7.122 -0.2619  0.4950  0.1508
16387SOL    HW153718   1.543   5.320   7.086  0.0019  0.4309 -0.0443
16387SOL    HW253719   1.677   5.365   7.140  0.1246  1.0169 -0.8200
16388SOL     OW53720   3.636   7.573  11.638  0.4557  0.4034 -0.3236
16388SOL    HW153721   3.655   7.504  11.574  0.8479  1.0216 -0.8990
16388SOL    HW253722   3.542   7.590  11.628  0.1888 -0.5960  0.3937
16389SOL     OW53723   6.266   8.960   2.271 -0.3390  0.6339  0.5500
16389SOL    HW153724   6.248   9.033   2.212  1.9501  0.1250 -0.9219
16389SOL    HW253725   6.359   8.967   2.291  0.3672 -2.6547 -0.8733
16390SOL     OW53726   9.292   5.366   4.526  0.3540  0.6460  0.3737
16390SOL    HW153727   9.242   5.291   4.495  0.9733  0.1732  0.4930
16390SOL    HW253728   9.254   5.387   4.611 -1.0645  1.6762 -0.4879
16391SOL     OW53729  10.287   3.045   7.298  0.2061  0.2845 -0.5504
16391SOL    HW153730  10.208   3.010   7.339  0.4402  1.7956  1.3068
16391SOL    HW253731  10.356   3.029   7.362  0.7960  1.7231 -0.7918
16392SOL     OW53732   9.664   4.111   7.204  0.3605  0.3101 -0.0469
16392SOL    HW153733   9.652   4.127   7.298 -0.7475  0.8254 -0.2555
16392SOL    HW253734   9.643   4.019   7.192 -0.1896  0.4072  0.1197
16393SOL     OW53735   7.604  10.736   7.473 -0.6077  0.1360  0.1243
16393SOL    HW153736   7.529  10.747   7.414 -1.7037  1.5486  1.6806
16393SOL    HW253737   7.669  10.689   7.421 -2.5552 -1.1485 -1.2883
16394SOL     OW53738   8.795  11.730   0.143 -0.1335  0.2159  0.1601
16394SOL    HW153739   8.759  11.671   0.208  1.1135 -2.2857 -1.2933
16394SOL    HW253740   8.834  11.673   0.077  0.9276  2.6676 -1.4851
16395SOL     OW53741  10.527   3.090   1.011 -0.5237  0.2180  0.0914
16395SOL    HW153742  10.613   3.131   1.007 -0.0468 -0.8088 -0.5820
16395SOL    HW253743  10.536   3.020   1.076 -0.6724 -0.2810 -0.4207
16396SOL     OW53744  11.186   1.170   3.033  0.4288  0.2820  0.9944
16396SOL    HW153745  11.218   1.178   2.944  0.9656 -1.3511  0.9991
16396SOL    HW253746  11.102   1.124   3.024  0.4807  0.1193  1.3136
16397SOL     OW53747   3.213   3.616   5.049 -0.2137 -0.5679 -0.0054
16397SOL    HW153748   3.223   3.537   5.103 -0.2058 -0.8909 -0.4720
16397SOL    HW253749   3.282   3.675   5.081  0.6611 -1.2660 -0.5444
16398SOL     OW53750   1.042  10.357   9.619  0.1642  0.2432  0.6197
16398SOL    HW153751   0.969  10.301   9.644  1.0642 -1.0503  0.4148
16398SOL    HW253752   1.120  10.303   9.631  0.8392  0.2403 -2.7727
16399SOL     OW53753   1.259   8.020   5.208  0.1815 -0.6810 -0.4010
16399SOL    HW153754   1.315   8.013   5.285 -0.6401 -0.5104  0.2208
16399SOL    HW253755   1.217   8.106   5.216  0.9726 -0.1416 -1.6607
16400SOL     OW53756   8.535   9.506   5.858 -0.3987  0.6553  0.3476
16400SOL    HW153757   8.484   9.428   5.836 -0.8625  1.2308 -0.6961
16400SOL    HW253758   8.535   9.509   5.954  0.5624 -1.2184  0.4393
16401SOL     OW53759   7.088   2.598   4.174 -0.3756 -0.0740  0.5818
16401SOL    HW153760   7.124   2.680   4.207 -1.0809 -0.3213  2.0775
16401SOL    HW253761   7.075   2.545   4.253  1.1067 -2.0687 -0.4228
16402SOL     OW53762   3.351   4.802   8.197 -0.3138  0.7626  0.1847
16402SOL    HW153763   3.350   4.713   8.231  0.3679  0.4574 -0.5667
16402SOL    HW253764   3.441   4.833   8.210 -0.2180  0.8830 -0.6759
16403SOL     OW53765   4.231   6.419   5.818  0.1896 -0.3019  0.1644
16403SOL    HW153766   4.246   6.507   5.785  0.9207 -0.7013 -0.6068
16403SOL    HW253767   4.160   6.384   5.764  1.7793 -1.1664 -1.4645
16404SOL     OW53768   1.195   3.151   5.707  0.1839 -0.6349  0.1602
16404SOL    HW153769   1.233   3.094   5.640  1.9722  1.2394 -0.5331
16404SOL    HW253770   1.144   3.216   5.658  0.3779 -0.0597  0.7004
16405SOL     OW53771   5.546   6.739   6.856 -0.3989 -0.3584 -0.2037
16405SOL    HW153772   5.466   6.787   6.879  1.2342  2.0241  0.9425
16405SOL    HW253773   5.584   6.790   6.784  0.2367 -1.3124 -0.5532
16406SOL     OW53774   9.652   1.723   9.565 -0.1942  0.3115 -0.3397
16406SOL    HW153775   9.633   1.645   9.512 -2.8829 -0.2859  1.3196
16406SOL    HW253776   9.735   1.702   9.610 -0.1892 -1.0155 -0.9290
16407SOL     OW53777   9.254  10.875   2.257  0.0859  0.0153 -0.0901
16407SOL    HW153778   9.187  10.909   2.316  0.8761  2.5307 -0.5387
16407SOL    HW253779   9.215  10.883   2.170  0.3145 -0.2074 -0.2142
16408SOL     OW53780  11.449   2.774  10.111 -0.0354 -0.2292  0.4571
16408SOL    HW153781  11.431   2.777  10.205 -1.9628 -0.1266  0.1251
16408SOL    HW253782  11.528   2.826  10.100 -0.6141  1.0131  1.8605
16409SOL     OW53783  10.297   5.765   0.359  0.0156  0.1466 -0.2855
16409SOL    HW153784  10.335   5.712   0.430  0.5255  1.2398  0.2934
16409SOL    HW253785  10.213   5.794   0.393 -0.6962 -1.0532 -0.9807
16410SOL     OW53786   2.512  11.590  10.658  0.4160  0.2601 -0.0977
16410SOL    HW153787   2.605  11.587  10.638  0.5414  0.0607  0.4857
16410SOL    HW253788   2.477  11.508  10.622  0.9120 -0.8271  1.7586
16411SOL     OW53789   8.965   2.551   0.590 -0.0217 -0.1456 -0.2673
16411SOL    HW153790   8.994   2.639   0.614 -1.2418 -0.0952  1.1988
16411SOL    HW253791   9.044   2.497   0.598  0.5886  0.6964 -0.5139
16412SOL     OW53792   0.126   0.621   3.026 -0.1262 -0.2374 -0.1901
16412SOL    HW153793   0.120   0.715   3.046  0.2749 -0.2839  0.1520
16412SOL    HW253794   0.179   0.585   3.097  1.2430 -0.4150 -1.2560
16413SOL     OW53795  10.902   4.077  12.109  0.0622  0.1209 -0.4119
16413SOL    HW153796  10.841   4.011  12.076  0.1838 -0.1328 -0.1390
16413SOL    HW253797  10.989   4.037  12.099  0.2704  0.8412 -1.6467
16414SOL     OW53798   0.875  11.778   9.694 -0.1734  0.4409  0.8746
16414SOL    HW153799   0.832  11.718   9.755  1.1288 -0.6209  0.7908
16414SOL    HW253800   0.953  11.731   9.664 -1.2840  0.4502 -2.4580
16415SOL     OW53801  10.238   7.028   1.064 -0.1059  0.2754 -0.2587
16415SOL    HW153802  10.318   6.976   1.069  0.6427  1.3028 -1.1615
16415SOL    HW253803  10.169   6.968   1.092  0.7522 -1.1367 -1.0595
16416SOL     OW53804   4.210   7.393  10.032  0.0569 -0.0267 -0.1741
16416SOL    HW153805   4.233   7.462   9.970  0.3472  2.2977  2.3303
16416SOL    HW253806   4.294   7.361  10.064 -0.0746  0.4113  0.6404
16417SOL     OW53807   3.404   3.386   1.257  0.0138  0.0224  0.0061
16417SOL    HW153808   3.412   3.291   1.244 -1.0970 -0.2039  0.8323
16417SOL    HW253809   3.455   3.404   1.335  1.3498  0.3519 -0.9025
16418SOL     OW53810   1.027  11.086   4.419 -0.1821 -0.0551 -0.0883
16418SOL    HW153811   0.934  11.079   4.442 -0.6534  2.9102 -0.7430
16418SOL    HW253812   1.028  11.105   4.325  1.2674 -2.1735 -0.5919
16419SOL     OW53813   7.581   8.029   3.487  1.0453  0.1412  0.0818
16419SOL    HW153814   7.573   8.117   3.523  0.5445  0.1202  0.0265
16419SOL    HW253815   7.640   7.984   3.548  0.9057  0.3681  0.3876
16420SOL     OW53816   3.031   8.387   0.106  0.2452 -0.0320  0.2725
16420SOL    HW153817   2.995   8.465   0.064 -1.0832 -0.1252  1.1732
16420SOL    HW253818   3.027   8.320   0.038 -0.8070  0.1084  0.1778
16421SOL     OW53819  10.269  12.107   7.894 -0.1328  0.1494  0.7605
16421SOL    HW153820  10.330  12.156   7.949  0.1611 -0.3550  0.9002
16421SOL    HW253821  10.326  12.051   7.840 -0.4736 -1.5222  2.0172
16422SOL     OW53822  10.687   2.520   3.342  0.7987 -1.1450  0.2251
16422SOL    HW153823  10.665   2.539   3.433 -0.2080 -1.5029  0.0586
16422SOL    HW253824  10.718   2.604   3.308 -1.5097 -0.2860  0.1213
16423SOL     OW53825  10.565   8.409   1.992 -0.6078 -0.0229  0.5193
16423SOL    HW153826  10.632   8.365   2.044 -0.7142  1.4677  2.0139
16423SOL    HW253827  10.509   8.338   1.960 -0.1300 -1.0720  1.8830
16424SOL     OW53828   8.983   0.524   4.441 -0.1369  0.3379  0.0062
16424SOL    HW153829   8.965   0.525   4.535 -1.4384 -0.6997 -0.2032
16424SOL    HW253830   9.056   0.462   4.431 -0.6765 -0.3438  0.2358
16425SOL     OW53831   3.853   4.725   8.878  0.3335 -0.2384  0.2628
16425SOL    HW153832   3.758   4.734   8.893 -0.0062 -1.4634 -0.8898
16425SOL    HW253833   3.882   4.665   8.947  0.3061  0.2244  0.6847
16426SOL     OW53834   8.209  10.739   2.085 -0.5258  0.0771  0.3292
16426SOL    HW153835   8.118  10.715   2.099 -0.4196 -0.4412  0.1443
16426SOL    HW253836   8.249  10.662   2.044 -0.3258  0.7679 -0.8220
16427SOL     OW53837   3.523   3.310   3.703  0.2366  0.0378  0.6165
16427SOL    HW153838   3.536   3.271   3.789 -1.2284 -2.6147 -0.2232
16427SOL    HW253839   3.428   3.307   3.690  0.4876 -0.5653 -1.4328
16428SOL     OW53840   2.971   4.491   8.405  0.1986  0.1057  0.2822
16428SOL    HW153841   2.947   4.438   8.481  2.7061  1.6115  2.2908
16428SOL    HW253842   3.047   4.447   8.368 -0.6540 -0.2930 -1.0849
16429SOL     OW53843   4.581   1.905   9.220 -0.0247  0.8293  0.1835
16429SOL    HW153844   4.511   1.849   9.188  1.3979 -0.8420 -0.1442
16429SOL    HW253845   4.617   1.858   9.295  0.7978  1.6334  0.3117
16430SOL     OW53846   8.037   2.775   6.452  0.0288 -0.2791  0.2539
16430SOL    HW153847   8.035   2.820   6.536  0.7059  0.0067  0.1202
16430SOL    HW253848   8.084   2.693   6.470  0.4281 -0.0849  0.0872
16431SOL     OW53849   9.055  11.407   1.847 -0.1291  0.0172 -0.0449
16431SOL    HW153850   9.032  11.336   1.907 -1.0839  0.9049  0.6642
16431SOL    HW253851   9.119  11.460   1.896  0.3934 -0.2003 -0.4778
16432SOL     OW53852   9.065   4.799   9.576 -0.3119 -0.2741 -0.4598
16432SOL    HW153853   9.026   4.886   9.567 -0.1725 -0.2951 -1.2970
16432SOL    HW253854   9.114   4.804   9.658 -1.0412  0.1434 -0.0312
16433SOL     OW53855   7.271   6.334   2.089  0.2069  0.0293 -0.5294
16433SOL    HW153856   7.202   6.338   2.023 -1.0182  2.0502  0.7678
16433SOL    HW253857   7.230   6.293   2.165  1.6627 -2.4629 -0.9821
16434SOL     OW53858   8.475   0.548   0.798 -0.8146  0.5762  0.1025
16434SOL    HW153859   8.423   0.619   0.835 -0.1755  0.8236  0.5342
16434SOL    HW253860   8.441   0.469   0.840 -1.6224  0.5997 -0.4844
16435SOL     OW53861   5.938   4.732   8.331  0.0589  0.6696 -0.4469
16435SOL    HW153862   5.936   4.637   8.340 -0.8430  0.0483 -4.7693
16435SOL    HW253863   5.848   4.757   8.312  0.2732  2.4483  0.6073
16436SOL     OW53864   7.898  10.114   6.679 -0.4367  0.3989 -0.0930
16436SOL    HW153865   7.988  10.104   6.647  0.2479  2.8810  0.8526
16436SOL    HW253866   7.893  10.054   6.754  0.5531  0.4676  0.0437
16437SOL     OW53867   9.950   3.328   4.657  0.3866  0.0593 -0.1011
16437SOL    HW153868   9.949   3.422   4.638 -0.8407  0.0039 -0.3909
16437SOL    HW253869   9.903   3.320   4.740  0.9614 -0.2548  0.1968
16438SOL     OW53870   2.736   0.391  11.541  0.7438  0.4720  0.7190
16438SOL    HW153871   2.816   0.401  11.593  1.8553  0.4330 -0.9353
16438SOL    HW253872   2.698   0.479  11.540 -0.2463  0.1444  2.9921
16439SOL     OW53873   1.753   8.803   6.123 -0.0864  0.3379  0.1429
16439SOL    HW153874   1.800   8.764   6.196 -0.0898  0.1582  0.0517
16439SOL    HW253875   1.721   8.728   6.072  1.1665  0.4448 -0.8425
16440SOL     OW53876   7.564   5.543  10.050  0.4745 -0.5063 -0.4930
16440SOL    HW153877   7.504   5.524   9.977 -1.0676  0.2262  0.5242
16440SOL    HW253878   7.651   5.531  10.013 -0.2800 -1.4341 -2.0968
16441SOL     OW53879   9.822   0.146   7.933  0.0150  0.2467 -0.1425
16441SOL    HW153880   9.894   0.109   7.881  0.5627  0.7334  0.2593
16441SOL    HW253881   9.748   0.087   7.916  0.1002  0.5221 -1.6682
16442SOL     OW53882   2.952   9.045   1.746  0.1545  0.0357 -0.0924
16442SOL    HW153883   2.941   8.961   1.790 -0.4731  0.5528  0.7770
16442SOL    HW253884   3.026   9.032   1.686  1.5427 -0.4632  1.6578
16443SOL     OW53885   3.477   3.783   8.569  0.1251  0.7231 -0.3359
16443SOL    HW153886   3.437   3.849   8.512 -2.2547  0.0641  0.4398
16443SOL    HW253887   3.540   3.831   8.622 -1.4797  2.4002  0.1558
16444SOL     OW53888   3.896   3.033   0.129 -0.0667  0.6608 -0.6972
16444SOL    HW153889   3.815   3.075   0.099  1.0883  2.1227 -1.9102
16444SOL    HW253890   3.962   3.060   0.066  1.4764 -0.1923  0.4850
16445SOL     OW53891   1.087  10.796   2.742 -0.4567 -0.3690 -0.1393
16445SOL    HW153892   1.164  10.844   2.711 -0.4948 -0.5028 -0.4443
16445SOL    HW253893   1.088  10.807   2.837 -0.0561 -0.3795 -0.1430
16446SOL     OW53894   5.382  10.838   4.350 -0.1892 -0.0375  0.1392
16446SOL    HW153895   5.313  10.812   4.290 -0.3581  1.8368 -0.5323
16446SOL    HW253896   5.448  10.881   4.295  2.9597 -4.0393  0.2761
16447SOL     OW53897   5.962   3.134   0.887 -0.0934  0.7149 -0.6012
16447SOL    HW153898   5.940   3.220   0.850  0.9321  1.8751  1.3243
16447SOL    HW253899   5.903   3.124   0.961 -1.1642 -0.9349 -1.6234
16448SOL     OW53900   5.373   3.237   5.438  0.3838  0.0392 -0.3419
16448SOL    HW153901   5.324   3.252   5.519 -1.0103 -1.3279 -0.8792
16448SOL    HW253902   5.431   3.163   5.459 -2.0010 -2.2761 -1.2809
16449SOL     OW53903   8.260   1.703  10.914  0.5721  0.2493  0.0819
16449SOL    HW153904   8.195   1.672  10.852  0.1706 -0.4109  0.8284
16449SOL    HW253905   8.249   1.798  10.914 -1.7289  0.0561  1.6240
16450SOL     OW53906   5.907   1.419   9.717  0.1689  0.2052 -0.5888
16450SOL    HW153907   5.894   1.329   9.746 -0.5995  0.4108 -0.2576
16450SOL    HW253908   5.999   1.425   9.694  0.6168 -0.2133  0.9743
16451SOL     OW53909  11.546   3.710   2.718 -0.4140 -0.3784  0.1523
16451SOL    HW153910  11.637   3.679   2.718 -0.8530 -1.7641  0.4557
16451SOL    HW253911  11.494   3.630   2.706 -1.5722  0.5046 -0.9270
16452SOL     OW53912   3.873  11.918  11.648  0.4162 -0.1196  0.3640
16452SOL    HW153913   3.816  11.988  11.616  1.0773  0.8443  1.2351
16452SOL    HW253914   3.813  11.845  11.665 -0.4073  0.5188  0.2789
16453SOL     OW53915   1.164   6.130  11.509 -0.1121 -0.1571  0.0113
16453SOL    HW153916   1.143   6.174  11.591  1.2517 -0.6229  0.6305
16453SOL    HW253917   1.259   6.137  11.501 -0.3244  0.9752 -2.1682
16454SOL     OW53918   6.758  11.247   0.077  0.0661  0.3601 -0.4503
16454SOL    HW153919   6.709  11.168   0.096  0.6796  0.0439 -0.1620
16454SOL    HW253920   6.695  11.318   0.089 -0.1169  0.0234  0.7076
16455SOL     OW53921  10.116   0.958  11.128  0.0699  0.2549  0.5940
16455SOL    HW153922  10.073   0.992  11.207 -0.0230 -0.5705  0.9027
16455SOL    HW253923  10.148   0.872  11.153  0.5914  0.2405 -0.0909
16456SOL     OW53924   8.518   6.112   9.127 -0.1018  0.1399 -0.0101
16456SOL    HW153925   8.520   6.120   9.223  0.8552 -1.5824  0.1537
16456SOL    HW253926   8.504   6.019   9.111  1.4117  0.1191 -1.5236
16457SOL     OW53927  11.687   5.107   6.141  0.1185  0.2202 -0.5192
16457SOL    HW153928  11.692   5.069   6.229  0.5022 -1.8531 -1.3678
16457SOL    HW253929  11.761   5.167   6.137  0.3830 -0.0228  0.4292
16458SOL     OW53930  10.714   7.330   4.946 -0.0816  0.5766 -0.2918
16458SOL    HW153931  10.776   7.311   5.016  0.4489  0.8747 -0.6751
16458SOL    HW253932  10.758   7.394   4.891 -1.0085  1.3303 -0.1870
16459SOL     OW53933   1.760   3.725   3.442 -0.3158  0.3423 -0.6543
16459SOL    HW153934   1.701   3.764   3.507 -1.0545  1.7166 -2.0771
16459SOL    HW253935   1.745   3.631   3.450 -1.1583  0.5456  0.4311
16460SOL     OW53936  10.641   0.410   3.016  0.0585 -0.1594  0.3724
16460SOL    HW153937  10.573   0.343   3.022 -1.7040  1.3086 -1.4980
16460SOL    HW253938  10.721   0.361   2.995 -1.0683 -1.7210 -0.5260
16461SOL     OW53939   6.314   6.725   3.328  0.0797  0.5730  0.0947
16461SOL    HW153940   6.276   6.719   3.416 -0.6925  2.6113 -0.0409
16461SOL    HW253941   6.309   6.636   3.293  0.9816 -0.4066  2.3162
16462SOL     OW53942   5.627  11.350   9.694 -0.1130  0.0800 -0.4331
16462SOL    HW153943   5.679  11.430   9.691  0.1243 -0.0841 -0.7416
16462SOL    HW253944   5.644  11.307   9.610 -1.1372  0.2651 -0.7564
16463SOL     OW53945  10.446   2.425   8.343  0.0732 -0.6028 -0.1099
16463SOL    HW153946  10.353   2.401   8.346  0.2006 -1.0441  0.8470
16463SOL    HW253947  10.483   2.385   8.422  0.5764  1.6042  0.8696
16464SOL     OW53948   5.782   1.124   9.768 -1.0345  0.0993  0.0392
16464SOL    HW153949   5.770   1.140   9.675 -1.1417  0.7177  0.1518
16464SOL    HW253950   5.695   1.138   9.806 -0.7856  0.8558  0.3582
16465SOL     OW53951  10.584   5.438  10.854 -0.3099  0.4348 -0.1267
16465SOL    HW153952  10.615   5.410  10.767 -0.2994 -1.0223  0.3166
16465SOL    HW253953  10.604   5.364  10.911 -2.2243  0.4855  0.7027
16466SOL     OW53954   6.188   8.392   8.588 -0.4280  0.3402 -0.3815
16466SOL    HW153955   6.245   8.316   8.594 -0.8646  0.0237 -0.1681
16466SOL    HW253956   6.153   8.403   8.677  0.6010  1.5621 -0.0971
16467SOL     OW53957   3.843  10.564   6.467  0.1708  0.1487  0.0069
16467SOL    HW153958   3.938  10.558   6.457  0.1581 -0.6052  0.3038
16467SOL    HW253959   3.820  10.646   6.422  0.7087 -0.6786 -1.9050
16468SOL     OW53960   0.324   8.628  10.464 -0.2008  0.1345  0.2245
16468SOL    HW153961   0.364   8.562  10.522 -0.2410 -1.1914 -1.1956
16468SOL    HW253962   0.373   8.620  10.382 -0.1248  1.9993  0.0541
16469SOL     OW53963   8.565   7.045   0.499 -0.5792  0.3190 -0.2706
16469SOL    HW153964   8.579   7.119   0.440 -1.1987  0.5851 -0.1004
16469SOL    HW253965   8.471   7.048   0.518 -1.0535 -1.7203 -1.8757
16470SOL     OW53966   8.512   2.486   9.308  0.4356  0.2924 -0.1134
16470SOL    HW153967   8.591   2.493   9.255 -0.0809 -1.9278 -1.3200
16470SOL    HW253968   8.528   2.410   9.365 -0.3726  0.5332  0.4512
16471SOL     OW53969   5.656   9.790   9.569 -0.1390  0.4215 -0.7870
16471SOL    HW153970   5.747   9.771   9.549 -0.3517 -0.3286 -1.0880
16471SOL    HW253971   5.608   9.765   9.490 -0.6416  0.4384 -0.4950
16472SOL     OW53972   1.881   4.148  10.499  0.6701 -0.0187  0.0177
16472SOL    HW153973   1.826   4.208  10.449 -0.0829 -0.2734  0.5270
16472SOL    HW253974   1.824   4.074  10.519  1.3860 -0.5856  0.0039
16473SOL     OW53975   2.666   9.621   8.523 -0.3528 -0.0260 -0.0733
16473SOL    HW153976   2.611   9.603   8.447 -3.2651 -0.8437  2.0660
16473SOL    HW253977   2.615   9.682   8.576  0.5524 -1.1946  2.2911
16474SOL     OW53978   0.202   5.675  11.336 -0.1200 -0.1190  0.7860
16474SOL    HW153979   0.270   5.608  11.348 -1.3560 -1.4625  0.5615
16474SOL    HW253980   0.130   5.646  11.393 -1.6097 -0.3144 -1.0888
16475SOL     OW53981  10.196   9.528   2.005  0.1433  0.1772  0.1103
16475SOL    HW153982  10.232   9.440   1.994 -1.3701 -0.2562 -1.9373
16475SOL    HW253983  10.167   9.530   2.096 -0.7980 -1.8761 -0.0941
16476SOL     OW53984   7.594   7.139   3.632 -0.2716 -0.0355  0.1000
16476SOL    HW153985   7.622   7.133   3.723 -1.0768  1.5979  0.5087
16476SOL    HW253986   7.665   7.186   3.588 -0.4692  0.3835  0.2132
16477SOL     OW53987   1.780  10.579   8.082  0.3634  0.4945 -0.1025
16477SOL    HW153988   1.719  10.523   8.034 -0.8756  0.4216  1.4904
16477SOL    HW253989   1.862  10.530   8.082 -0.1827 -0.4456 -0.3565
16478SOL     OW53990   3.606   7.876   7.972 -0.3019 -0.5960 -0.3446
16478SOL    HW153991   3.678   7.859   7.912  1.1443  2.8883  0.1630
16478SOL    HW253992   3.545   7.930   7.922 -0.2726  0.3050  0.5577
16479SOL     OW53993   2.723   1.232  10.397  0.3273 -0.0190 -0.2405
16479SOL    HW153994   2.632   1.208  10.413  0.0327 -0.9107 -2.7647
16479SOL    HW253995   2.774   1.158  10.431 -0.0376 -0.4501 -0.6211
16480SOL     OW53996   8.134   5.470  11.094 -0.2417  0.2492  0.1893
16480SOL    HW153997   8.099   5.454  11.182 -1.2858 -0.0824 -0.2661
16480SOL    HW253998   8.177   5.555  11.101  1.0793 -0.4813  1.4124
16481SOL     OW53999   0.626   0.999   0.630  0.2618 -0.2638  0.1209
16481SOL    HW154000   0.637   1.070   0.567 -0.4466  0.7225  1.0730
16481SOL    HW254001   0.701   0.942   0.615  0.3755  0.2106 -1.2601
16482SOL     OW54002  12.105   6.861  10.642  0.7079 -0.0598  0.3231
16482SOL    HW154003  12.101   6.950  10.679  1.1846 -0.6083  1.7659
16482SOL    HW254004  12.157   6.871  10.562  0.9639  0.9188  0.5923
16483SOL     OW54005   8.633   3.958   6.924  0.1307 -0.1266  0.0919
16483SOL    HW154006   8.575   3.932   6.853  1.8964  0.6603 -1.7392
16483SOL    HW254007   8.588   3.929   7.004 -1.6653 -1.5659 -1.3498
16484SOL     OW54008   8.790   0.783   3.809  0.5331  0.6127 -0.2554
16484SOL    HW154009   8.712   0.834   3.790  0.5361  0.9634  0.6295
16484SOL    HW254010   8.822   0.754   3.723 -1.7733 -1.3828 -0.5308
16485SOL     OW54011  11.362   1.685   3.960  0.3207 -0.2136 -0.0524
16485SOL    HW154012  11.380   1.654   4.049  2.0095 -1.3704 -0.7486
16485SOL    HW254013  11.408   1.769   3.955 -2.0502  1.2442  0.9807
16486SOL     OW54014   0.942   7.284   9.571 -0.2153 -0.2360  0.8082
16486SOL    HW154015   0.926   7.353   9.635  0.6534  0.0523  0.7259
16486SOL    HW254016   1.013   7.317   9.517 -1.8673  0.1478 -1.2499
16487SOL     OW54017  11.727  12.118   6.094  0.0812 -0.1249 -0.6504
16487SOL    HW154018  11.679  12.191   6.132 -1.3657 -0.6271 -1.4483
16487SOL    HW254019  11.740  12.057   6.167  2.2729  1.3377  0.2901
16488SOL     OW54020   9.871   9.147   0.112 -0.2934 -0.1521  0.0910
16488SOL    HW154021   9.812   9.073   0.097  0.0441 -0.6514  1.0654
16488SOL    HW254022   9.958   9.107   0.117 -0.1477  0.2410  1.0137
16489SOL     OW54023   6.617   3.180   6.542  0.8098 -0.1588  0.1717
16489SOL    HW154024   6.615   3.148   6.633 -1.8137 -0.9201 -0.0688
16489SOL    HW254025   6.708   3.205   6.528  1.7386 -1.9433  2.3465
16490SOL     OW54026   9.999  10.148   6.498 -0.3733  0.1266  0.0023
16490SOL    HW154027   9.957  10.229   6.528  1.2164  1.2016 -0.5574
16490SOL    HW254028  10.089  10.174   6.477 -0.3311 -1.3999 -1.9371
16491SOL     OW54029   6.185   0.118   2.680  0.2526  0.1939  0.0625
16491SOL    HW154030   6.182   0.190   2.617  1.3785  1.6629  1.5937
16491SOL    HW254031   6.219   0.158   2.761 -0.2416 -1.8041  1.3307
16492SOL     OW54032   8.563  10.489  10.957  0.4748  0.3568  0.1603
16492SOL    HW154033   8.588  10.471  10.867 -0.6703 -0.5137 -0.0150
16492SOL    HW254034   8.635  10.455  11.010  1.5633  1.6747 -0.4437
16493SOL     OW54035   0.181   1.507   5.496  0.6034 -0.2625  0.2566
16493SOL    HW154036   0.158   1.506   5.589  2.6347  0.9746  0.8333
16493SOL    HW254037   0.216   1.419   5.479 -1.5748 -1.1733  0.0855
16494SOL     OW54038   1.270   0.827   0.373 -0.9813 -0.0520 -0.0905
16494SOL    HW154039   1.194   0.878   0.402 -0.6930  0.4839 -0.2728
16494SOL    HW254040   1.345   0.872   0.410 -0.8282 -3.2031  4.2885
16495SOL     OW54041   2.273   9.779  10.953  0.2821  1.0519  0.6127
16495SOL    HW154042   2.366   9.799  10.945  0.9034 -1.7060 -0.3125
16495SOL    HW254043   2.259   9.765  11.046  0.8530  1.2622  0.7328
16496SOL     OW54044   2.613  11.658  11.584 -0.4834 -0.5884  0.3210
16496SOL    HW154045   2.585  11.736  11.632  0.6461  0.9937 -1.4784
16496SOL    HW254046   2.658  11.605  11.650 -1.6017  0.0471  1.6689
16497SOL     OW54047   6.532   0.310   8.062 -0.1988  0.1445  0.4236
16497SOL    HW154048   6.489   0.226   8.078  0.2590  0.0249  1.0645
16497SOL    HW254049   6.522   0.324   7.968  0.6808 -1.1698  0.1052
16498SOL     OW54050   0.576   2.139   7.469 -0.2624  0.5287 -0.1899
16498SOL    HW154051   0.589   2.047   7.493 -0.4551 -0.1493 -2.5107
16498SOL    HW254052   0.482   2.154   7.481 -0.2086  0.4969  0.3238
16499SOL     OW54053  11.749  11.244   5.926  0.2133 -0.3318 -0.7761
16499SOL    HW154054  11.820  11.217   5.983 -0.9870 -0.1246  0.8911
16499SOL    HW254055  11.747  11.340   5.934 -0.0062 -0.3018 -1.1449
16500SOL     OW54056   9.648   3.353   7.489  0.0247  0.5103 -0.1176
16500SOL    HW154057   9.723   3.364   7.431  0.1366 -1.8416 -0.5082
16500SOL    HW254058   9.682   3.370   7.577  1.0771 -0.6719 -0.2739
16501SOL     OW54059   0.266  10.643   8.173 -0.4904 -0.0164  0.5062
16501SOL    HW154060   0.198  10.698   8.134 -0.2866 -0.0566  0.0933
16501SOL    HW254061   0.225  10.557   8.182 -0.2246 -0.2730 -0.5568
16502SOL     OW54062  10.900   9.614   7.538 -0.0073  0.3161 -0.3340
16502SOL    HW154063  10.926   9.700   7.573  1.8345 -0.2577 -0.1938
16502SOL    HW254064  10.916   9.553   7.610 -0.5137 -0.2669 -0.7086
16503SOL     OW54065  12.109   2.833   9.376 -0.2143  0.1428  0.5611
16503SOL    HW154066  12.088   2.746   9.342 -1.3850  0.8194 -0.5041
16503SOL    HW254067  12.026   2.881   9.373  0.8708  2.0385 -1.1157
16504SOL     OW54068   6.027   0.113   6.579  0.0293  0.3150 -1.0486
16504SOL    HW154069   6.120   0.099   6.560 -0.2079  0.1388 -2.1828
16504SOL    HW254070   6.002   0.185   6.520 -0.3600  0.9419 -0.1379
16505SOL     OW54071   6.209  10.397   1.765  0.4721  0.6260  0.0031
16505SOL    HW154072   6.160  10.421   1.687  1.5618  0.1233 -0.8512
16505SOL    HW254073   6.288  10.451   1.762  0.4763  0.6820  0.8141
16506SOL     OW54074  11.440   7.137   2.170 -0.3242  0.0882  0.1166
16506SOL    HW154075  11.411   7.212   2.118 -1.0337 -0.3154 -0.0762
16506SOL    HW254076  11.374   7.127   2.238 -1.0182 -1.2490 -0.7240
16507SOL     OW54077   2.618  10.769   0.848 -0.7170 -0.4981  0.9063
16507SOL    HW154078   2.683  10.728   0.791 -0.6377 -0.1212  0.7273
16507SOL    HW254079   2.535  10.725   0.825 -0.8129  0.1264  0.0128
16508SOL     OW54080   7.179   4.975   8.470  0.4166 -0.1504  0.3419
16508SOL    HW154081   7.241   5.046   8.485  1.5017 -0.9025 -0.4233
16508SOL    HW254082   7.109   5.015   8.418  1.0911  0.3362 -0.2060
16509SOL     OW54083   9.928   6.545  12.051 -0.0408  0.4786  0.2014
16509SOL    HW154084  10.001   6.589  12.095 -0.1198  1.4390 -0.5926
16509SOL    HW254085   9.899   6.608  11.985  0.3806 -1.0789 -1.5390
16510SOL     OW54086  10.879   7.680   0.562 -0.1792 -0.5228  0.4276
16510SOL    HW154087  10.935   7.693   0.639 -0.2890 -1.9144  0.7751
16510SOL    HW254088  10.932   7.624   0.505 -1.1557 -1.7881  0.7223
16511SOL     OW54089  11.419   9.837   2.919 -0.6787  0.3014  0.3051
16511SOL    HW154090  11.361   9.891   2.971 -0.1885  0.9177  0.2234
16511SOL    HW254091  11.487   9.807   2.980 -1.4276 -0.9711  0.5565
16512SOL     OW54092   2.810   1.415   7.934 -0.4165 -0.1773 -0.4955
16512SOL    HW154093   2.794   1.333   7.982 -1.3977  0.4508  0.2914
16512SOL    HW254094   2.867   1.465   7.992 -1.4961  0.5315 -0.0277
16513SOL     OW54095   9.274   8.775   3.965 -0.4191  0.1163  0.2249
16513SOL    HW154096   9.224   8.834   4.022  1.2144 -0.2478  2.1410
16513SOL    HW254097   9.356   8.822   3.948  0.0709 -0.7555  0.1050
16514SOL     OW54098  11.785   8.737   0.446  0.3720  0.7760 -0.3017
16514SOL    HW154099  11.766   8.698   0.360 -2.1048 -1.7963  1.2214
16514SOL    HW254100  11.852   8.680   0.483 -0.0027  0.6507  0.1987
16515SOL     OW54101   9.071  11.317  11.879 -0.2086  0.2674  0.2494
16515SOL    HW154102   9.129  11.270  11.940 -0.1735  0.9302  0.7396
16515SOL    HW254103   9.017  11.249  11.840 -0.2857 -0.1596  1.0846
16516SOL     OW54104   2.854   6.409  10.052  0.1759  0.4244 -0.0963
16516SOL    HW154105   2.948   6.425  10.057  0.4832 -0.6502 -1.7254
16516SOL    HW254106   2.814   6.487  10.090  1.7139  0.6750  1.1041
16517SOL     OW54107   8.142   4.931   0.602  0.3374  0.2052 -0.1606
16517SOL    HW154108   8.177   5.010   0.642 -0.1871  0.7203 -0.7070
16517SOL    HW254109   8.195   4.860   0.639  1.1045  0.8474 -0.0054
16518SOL     OW54110  10.274   0.379   5.127 -0.2698 -0.0590  0.0384
16518SOL    HW154111  10.279   0.471   5.152 -0.3047  0.1321 -0.6585
16518SOL    HW254112  10.197   0.373   5.070 -0.1744 -0.4873 -0.0500
16519SOL     OW54113   0.520   5.813   2.553 -0.2800 -0.1046 -0.2791
16519SOL    HW154114   0.600   5.866   2.560 -1.0612  1.0112  0.6912
16519SOL    HW254115   0.484   5.836   2.467  0.4393 -0.6200 -0.7232
16520SOL     OW54116   1.744   8.064   0.904 -0.0456 -0.0759 -0.5684
16520SOL    HW154117   1.777   8.152   0.886 -1.0115  0.2764 -0.6998
16520SOL    HW254118   1.704   8.037   0.821  0.1157 -0.5779 -0.4845
16521SOL     OW54119  11.316  10.234  10.456 -0.0269 -0.0844  0.2457
16521SOL    HW154120  11.408  10.250  10.477 -0.3350 -0.2250  1.8356
16521SOL    HW254121  11.268  10.293  10.513 -0.9941 -2.1377  1.7002
16522SOL     OW54122   0.209   1.097  11.355  0.9664  0.2135  0.0169
16522SOL    HW154123   0.237   1.076  11.444 -0.9773  0.2746  0.6896
16522SOL    HW254124   0.229   1.017  11.305  1.7660  0.0564  0.5639
16523SOL     OW54125   1.350   1.405   8.650  0.6875  0.3069  0.3379
16523SOL    HW154126   1.279   1.469   8.647 -0.4031 -0.8612  0.2916
16523SOL    HW254127   1.384   1.412   8.739  0.9298  1.3002  0.1778
16524SOL     OW54128   1.042  11.206   2.589  0.3783 -0.0817  0.2068
16524SOL    HW154129   0.949  11.214   2.612 -0.4595 -5.3343 -0.1980
16524SOL    HW254130   1.042  11.167   2.502  3.1358  1.4863 -0.6215
16525SOL     OW54131   7.345   1.759   1.301  0.3091 -0.0159 -0.3145
16525SOL    HW154132   7.356   1.852   1.322  1.4794 -0.0591 -0.6504
16525SOL    HW254133   7.357   1.714   1.385 -1.0356  0.1722 -0.0083
16526SOL     OW54134   6.018   7.359   3.496 -0.0679  0.2360  0.3266
16526SOL    HW154135   6.016   7.329   3.586 -0.2995 -1.1749 -0.1227
16526SOL    HW254136   6.085   7.427   3.494  0.3462 -0.1314  1.4343
16527SOL     OW54137   9.667   1.175   4.988  0.3787 -0.1537  0.3834
16527SOL    HW154138   9.697   1.266   4.980 -1.9455  0.6820  0.1151
16527SOL    HW254139   9.605   1.165   4.915 -0.5150 -1.4630  1.2826
16528SOL     OW54140   6.834   9.204  10.329 -0.3282  0.2447  0.0336
16528SOL    HW154141   6.823   9.145  10.404 -1.9358  0.6319  0.1478
16528SOL    HW254142   6.875   9.282  10.366  2.0032 -0.8165 -0.1565
16529SOL     OW54143  11.331   6.562   7.937  0.3231  0.3916 -0.1021
16529SOL    HW154144  11.284   6.586   7.857 -1.5761  1.1198  1.1391
16529SOL    HW254145  11.261   6.548   8.002  1.7798 -0.4241  1.3658
16530SOL     OW54146   8.706   9.405   8.655  0.4215 -0.2274 -0.2725
16530SOL    HW154147   8.611   9.404   8.647  0.2426 -0.6031  1.4822
16530SOL    HW254148   8.722   9.438   8.744  1.9587  0.6103 -0.8173
16531SOL     OW54149   0.998   9.796   1.465  0.6472  0.6685 -0.0905
16531SOL    HW154150   0.993   9.735   1.539  0.9153  0.8503  0.0803
16531SOL    HW254151   0.984   9.742   1.388  0.5764  0.4408  0.0811
16532SOL     OW54152   7.042   3.044   0.867  0.5740 -0.0838 -0.0560
16532SOL    HW154153   7.074   2.986   0.798  0.4147  1.2122 -1.2659
16532SOL    HW254154   7.066   3.000   0.949  2.1026 -0.9397 -0.9249
16533SOL     OW54155   1.342   1.381   6.133 -0.2458  0.2412  0.3906
16533SOL    HW154156   1.278   1.354   6.199 -0.8613 -0.1248 -0.3345
16533SOL    HW254157   1.297   1.366   6.050  0.4627  0.8302 -0.1067
16534SOL     OW54158   1.822   3.361  10.812 -0.1416 -0.1017  0.2786
16534SOL    HW154159   1.792   3.393  10.897 -1.1319  1.9670 -0.7688
16534SOL    HW254160   1.747   3.375  10.754  0.4429 -1.6555 -0.9025
16535SOL     OW54161   4.433   0.941   7.320 -0.0554  0.2698 -0.5076
16535SOL    HW154162   4.363   0.962   7.382  0.0078 -0.0844 -0.3140
16535SOL    HW254163   4.405   0.860   7.279  0.1935  0.1813 -0.5044
16536SOL     OW54164   0.270   0.791   2.625 -0.2790 -0.3398  0.7283
16536SOL    HW154165   0.249   0.806   2.533  1.6985  1.7579  0.5188
16536SOL    HW254166   0.276   0.696   2.634  0.8391 -0.5572 -1.6758
16537SOL     OW54167   7.438   1.909   3.224 -0.3610 -0.4354  0.7821
16537SOL    HW154168   7.426   1.814   3.217  3.9484 -1.3319  2.3494
16537SOL    HW254169   7.439   1.926   3.319 -2.0120  1.4443  0.5365
16538SOL     OW54170   2.110  11.996  10.426  0.0791  0.5310 -0.4042
16538SOL    HW154171   2.095  11.909  10.387  0.0794  0.7381 -0.8808
16538SOL    HW254172   2.036  12.048  10.394  0.6936  1.0075 -1.0505
16539SOL     OW54173   6.840  11.168   8.159  0.3493  0.1431  0.8538
16539SOL    HW154174   6.877  11.160   8.072 -0.4276  1.2955  0.3799
16539SOL    HW254175   6.749  11.194   8.144 -0.5384 -2.0550  1.9722
16540SOL     OW54176  11.479   6.091   0.175  0.2329 -0.1130  0.0938
16540SOL    HW154177  11.536   6.096   0.252  1.3418 -1.0493 -0.6374
16540SOL    HW254178  11.532   6.128   0.104 -0.8042  0.8155 -0.2347
16541SOL     OW54179   7.565   2.998   9.468 -0.7102 -0.0940  0.4359
16541SOL    HW154180   7.633   3.050   9.425  0.6914 -1.0816  1.3416
16541SOL    HW254181   7.497   3.062   9.492  0.6222  1.2201  0.8978
16542SOL     OW54182   2.370   9.722   1.918 -0.5157  0.2107 -0.8184
16542SOL    HW154183   2.395   9.812   1.940 -0.0834  0.0614 -0.6924
16542SOL    HW254184   2.278   9.716   1.944 -0.2169  0.2596  0.3258
16543SOL     OW54185   0.211   8.941   1.159  0.6884 -0.2029  0.0274
16543SOL    HW154186   0.254   8.875   1.213 -1.2978 -0.8624  0.9264
16543SOL    HW254187   0.267   9.018   1.164  0.6749 -0.2788  2.9581
16544SOL     OW54188  10.275  11.203  11.121 -0.6370  0.0420 -0.3244
16544SOL    HW154189  10.192  11.162  11.146 -0.1797  0.4459  2.1826
16544SOL    HW254190  10.339  11.132  11.123 -0.4761  0.1919  0.4960
16545SOL     OW54191   4.125   0.051   7.696  0.0531  0.1979 -0.1205
16545SOL    HW154192   4.180  -0.025   7.717 -0.5800 -0.2769 -0.1430
16545SOL    HW254193   4.042   0.032   7.739 -0.8199 -0.1367 -1.8614
16546SOL     OW54194   0.368   1.632   7.853  0.0304  0.1758  0.3284
16546SOL    HW154195   0.449   1.596   7.818 -0.1562 -1.0405  1.1089
16546SOL    HW254196   0.299   1.579   7.814 -0.4445  1.4735 -0.6588
16547SOL     OW54197  10.232   3.567   1.145  0.3683 -0.4394  0.0421
16547SOL    HW154198  10.260   3.658   1.156 -3.0602  0.9070 -1.0420
16547SOL    HW254199  10.232   3.554   1.050 -0.5901 -1.0245  0.1094
16548SOL     OW54200  10.384   9.320   5.624 -0.2451 -0.3704 -0.3680
16548SOL    HW154201  10.341   9.401   5.653  1.1420  0.8272 -1.5425
16548SOL    HW254202  10.464   9.316   5.676  1.0736  0.5360 -2.2116
16549SOL     OW54203   6.673   7.688  10.735 -0.1159 -0.4165  0.3370
16549SOL    HW154204   6.764   7.714  10.741 -0.5324  1.4726 -0.7516
16549SOL    HW254205   6.673   7.611  10.677  0.7947 -0.6854  0.6807
16550SOL     OW54206  11.303   1.332   7.980 -0.1579  0.0864  0.5498
16550SOL    HW154207  11.296   1.425   7.959  0.4865 -0.2715 -1.5614
16550SOL    HW254208  11.213   1.303   7.994 -0.4752  0.7941  0.0421
16551SOL     OW54209   8.019   4.779   8.947  0.2359  0.0567 -0.3725
16551SOL    HW154210   8.069   4.741   9.020 -1.0848  0.8296  0.9816
16551SOL    HW254211   8.085   4.824   8.895  1.0851  0.3863  0.9346
16552SOL     OW54212   5.097  11.715   2.297 -0.1633 -0.5744  0.3402
16552SOL    HW154213   5.042  11.752   2.227  1.4192  0.2228 -0.5361
16552SOL    HW254214   5.147  11.790   2.330  2.8073 -1.7177 -1.1573
16553SOL     OW54215   6.269   7.320  11.284  0.4937 -0.4142  0.2896
16553SOL    HW154216   6.307   7.390  11.336 -1.3251 -0.2079  1.4403
16553SOL    HW254217   6.217   7.365  11.218  1.7675 -0.6939 -0.9469
16554SOL     OW54218   5.398   4.524   0.486  0.3539 -0.2507  0.3332
16554SOL    HW154219   5.420   4.465   0.413 -0.0239  0.3830 -0.3068
16554SOL    HW254220   5.427   4.610   0.455  1.5680 -0.1869  1.5459
16555SOL     OW54221   7.540  10.806   6.290 -0.8551 -0.3849 -0.2311
16555SOL    HW154222   7.490  10.888   6.296 -0.4250 -0.0897 -0.6121
16555SOL    HW254223   7.521  10.773   6.203  2.3100  1.5402 -1.8352
16556SOL     OW54224   8.219   0.735   4.243 -0.1597  0.2650  0.2582
16556SOL    HW154225   8.271   0.809   4.273 -1.7197  1.6653 -0.3550
16556SOL    HW254226   8.154   0.720   4.311 -1.4149  1.1153 -0.6946
16557SOL     OW54227   2.023   3.085   3.876  0.3526  0.1814 -0.1365
16557SOL    HW154228   2.102   3.033   3.887  0.9363  1.0033 -0.3664
16557SOL    HW254229   1.957   3.039   3.928  0.4532 -1.6164 -1.5114
16558SOL     OW54230   9.330  12.030   8.341  0.2679 -0.0304 -0.0762
16558SOL    HW154231   9.296  12.064   8.424  1.3172  2.1206 -0.4706
16558SOL    HW254232   9.291  12.087   8.274  2.9010  1.2200 -0.6794
16559SOL     OW54233   2.476   0.921  11.159 -0.4009  0.1133  0.4610
16559SOL    HW154234   2.394   0.960  11.189 -0.3549  0.3747  0.2468
16559SOL    HW254235   2.523   0.992  11.116 -0.4786 -0.2640 -0.2607
16560SOL     OW54236   7.480   3.830   0.076  0.0948 -0.2939  0.0941
16560SOL    HW154237   7.418   3.757   0.075  0.5267 -0.7517 -2.6780
16560SOL    HW254238   7.546   3.805   0.140 -1.0565 -1.1424  0.9923
16561SOL     OW54239   2.877   2.796   1.112  0.0432  0.0110  0.0621
16561SOL    HW154240   2.800   2.852   1.112 -0.3613 -0.5352 -0.0574
16561SOL    HW254241   2.933   2.833   1.044  0.0289  0.5932  0.3594
16562SOL     OW54242   3.010   0.483  10.493  0.3607  0.2219 -0.0424
16562SOL    HW154243   3.095   0.440  10.487 -0.0496 -0.5620 -0.4460
16562SOL    HW254244   3.031   0.575  10.505  1.2680 -0.0735  0.7822
16563SOL     OW54245   8.282   6.761   6.673 -0.2246  0.1592 -0.2636
16563SOL    HW154246   8.232   6.773   6.592 -0.3441  1.6908  0.0051
16563SOL    HW254247   8.373   6.765   6.646 -0.1899 -2.0985 -0.6776
16564SOL     OW54248   0.821   2.717   9.081 -0.1017  0.1545 -0.5396
16564SOL    HW154249   0.845   2.773   9.155 -2.0017  0.1270  0.1507
16564SOL    HW254250   0.899   2.715   9.026  1.0701  0.8917  1.0172
16565SOL     OW54251   0.765   3.870   1.431 -0.5389 -0.1582 -0.4266
16565SOL    HW154252   0.805   3.799   1.481  0.9115  0.3257 -0.8666
16565SOL    HW254253   0.679   3.881   1.471  0.4873  0.0758  1.8406
16566SOL     OW54254   6.568   9.657   5.595  0.6109  0.2314  0.1121
16566SOL    HW154255   6.476   9.629   5.601  0.4026 -0.4227 -3.6195
16566SOL    HW254256   6.613   9.605   5.661 -1.5550 -0.1121  1.4174
16567SOL     OW54257   1.834   3.142  11.914  0.4731 -0.2673 -0.0709
16567SOL    HW154258   1.833   3.114  12.006 -4.0272 -0.9238 -0.0986
16567SOL    HW254259   1.783   3.223  11.912 -0.5814 -0.8986 -2.0670
16568SOL     OW54260   8.176   2.228   3.534  0.2123  0.7941 -0.3211
16568SOL    HW154261   8.144   2.148   3.575  0.6070  1.1256  0.6574
16568SOL    HW254262   8.112   2.246   3.464 -1.3505  1.0388  1.0953
16569SOL     OW54263   1.556   8.828   7.362  0.3239 -0.1434  0.0951
16569SOL    HW154264   1.550   8.858   7.453  3.1664 -0.3937  0.4505
16569SOL    HW254265   1.545   8.908   7.310  0.1186  0.2499  0.7260
16570SOL     OW54266   2.080   4.588   6.275 -0.4774 -0.2148 -0.0166
16570SOL    HW154267   2.122   4.579   6.361  2.0987  0.0650 -1.1537
16570SOL    HW254268   1.997   4.541   6.284 -1.5394  1.9415  3.3686
16571SOL     OW54269   9.913   0.748   4.052  0.0424 -0.1164  0.6107
16571SOL    HW154270   9.919   0.760   4.147  0.7166 -0.2948  0.5954
16571SOL    HW254271  10.003   0.734   4.024  0.0276  1.4106 -0.2660
16572SOL     OW54272   1.249   9.547   3.584 -0.0260  0.6603  0.1871
16572SOL    HW154273   1.178   9.482   3.586 -0.2737  0.9295  0.3000
16572SOL    HW254274   1.328   9.496   3.571 -0.2602  0.3659 -0.1259
16573SOL     OW54275   1.844   5.844  10.454 -0.2825 -0.8101 -0.0272
16573SOL    HW154276   1.817   5.920  10.402  1.4028 -0.8382 -1.0089
16573SOL    HW254277   1.908   5.879  10.517  0.1935 -1.3385 -0.2086
16574SOL     OW54278   3.939  11.474  10.435  0.2396 -0.2922  0.1158
16574SOL    HW154279   3.945  11.553  10.382  0.1764 -1.2281 -1.3518
16574SOL    HW254280   3.854  11.436  10.412 -0.7755  0.3267  2.4901
16575SOL     OW54281   4.360   0.269   1.192 -0.6059  0.5219 -0.0182
16575SOL    HW154282   4.418   0.225   1.254  0.5350 -0.2233 -1.5748
16575SOL    HW254283   4.388   0.238   1.106 -0.6709  3.2071 -1.1031
16576SOL     OW54284   2.054  10.677   3.575 -0.3814 -0.6823 -0.1995
16576SOL    HW154285   2.041  10.659   3.481 -1.5644 -1.5725  0.1076
16576SOL    HW254286   1.973  10.648   3.616 -1.1896  2.5783  0.7769
16577SOL     OW54287   9.198   7.886   1.897  0.7401 -0.0598 -0.0981
16577SOL    HW154288   9.274   7.883   1.955 -0.1096  0.1340  1.0909
16577SOL    HW254289   9.183   7.795   1.871  0.0740 -0.4411  1.4887
16578SOL     OW54290   5.602   9.327  10.362  0.1063 -0.0145 -0.2450
16578SOL    HW154291   5.682   9.348  10.409  1.0458 -0.6897 -1.4814
16578SOL    HW254292   5.605   9.232  10.350 -0.4361  0.0539 -1.0678
16579SOL     OW54293   1.325   3.446   9.207  0.2625 -0.2983  0.0714
16579SOL    HW154294   1.356   3.536   9.195  0.1602 -0.1901  0.6046
16579SOL    HW254295   1.233   3.455   9.229 -0.0619 -0.6013 -1.0842
16580SOL     OW54296  11.499   8.465   6.185  0.2492 -0.0319 -0.1707
16580SOL    HW154297  11.439   8.480   6.113 -0.6637 -1.3556  0.2655
16580SOL    HW254298  11.470   8.382   6.224  0.3682  0.8966  2.0579
16581SOL     OW54299   5.603   7.919   8.707  0.2552 -0.4983 -0.6309
16581SOL    HW154300   5.678   7.906   8.764 -0.8128  1.1212  1.2866
16581SOL    HW254301   5.541   7.850   8.731  0.5837 -1.0312 -1.2814
16582SOL     OW54302   3.132   3.106   3.754 -0.2894  0.0966  0.4017
16582SOL    HW154303   3.119   3.155   3.835 -1.9530 -0.7781  0.6931
16582SOL    HW254304   3.053   3.054   3.744  0.0803 -0.1630 -1.5644
16583SOL     OW54305   2.426   5.150   9.605 -0.2915 -0.5264 -0.8273
16583SOL    HW154306   2.521   5.154   9.595 -0.2588  0.1385 -0.3093
16583SOL    HW254307   2.395   5.115   9.521  0.2790  0.9084 -1.6808
16584SOL     OW54308   8.283   4.296   9.561  0.3545 -0.2836  0.1934
16584SOL    HW154309   8.200   4.259   9.530 -0.0412 -1.2341  2.2593
16584SOL    HW254310   8.336   4.219   9.585  1.0885  0.3692  0.7087
16585SOL     OW54311   2.512   9.623   7.222 -0.1535 -0.6151  0.3684
16585SOL    HW154312   2.445   9.582   7.166 -0.6067  0.4149  0.1394
16585SOL    HW254313   2.467   9.697   7.262  1.0338  0.5171 -0.3395
16586SOL     OW54314  12.023   2.317   7.189 -0.1700 -0.1671  0.6810
16586SOL    HW154315  12.056   2.318   7.279  0.2124  0.0636  0.5377
16586SOL    HW254316  11.948   2.258   7.192  0.0981 -0.4926  1.0648
16587SOL     OW54317  12.030   2.016   2.205 -0.0681  0.0620 -0.0533
16587SOL    HW154318  12.074   1.935   2.182 -0.1874 -0.1818  0.5592
16587SOL    HW254319  12.074   2.083   2.153 -1.1007 -0.6107 -1.8808
16588SOL     OW54320   8.021  11.321   4.106 -0.0492 -0.2088  0.2814
16588SOL    HW154321   7.937  11.321   4.151  0.5818 -0.2379  1.5189
16588SOL    HW254322   8.033  11.229   4.080 -1.6590  0.2609 -2.4710
16589SOL     OW54323   6.746   0.812   8.268  0.0296  0.3787 -0.1470
16589SOL    HW154324   6.790   0.817   8.353 -1.0790  0.6889  0.4217
16589SOL    HW254325   6.685   0.739   8.276 -1.2901  1.4571 -0.0779
16590SOL     OW54326   1.066  10.234   4.026  0.2702 -0.4951  0.4664
16590SOL    HW154327   0.989  10.240   3.969  0.1354 -0.7155  0.6217
16590SOL    HW254328   1.116  10.161   3.990  1.2359  0.6598 -0.6206
16591SOL     OW54329   5.789  11.611  10.578 -0.2379  0.0411 -0.2476
16591SOL    HW154330   5.749  11.595  10.663  1.1352  1.4352  0.7059
16591SOL    HW254331   5.752  11.694  10.548  2.7341  2.1159  1.2993
16592SOL     OW54332   0.498   8.676   5.937  0.0792  0.1517  0.1445
16592SOL    HW154333   0.449   8.654   6.016  0.2742 -0.5408  0.0782
16592SOL    HW254334   0.469   8.612   5.872  0.4990  0.2264 -0.1234
16593SOL     OW54335   2.554  11.713   3.151 -0.1319 -0.4167 -0.0096
16593SOL    HW154336   2.476  11.765   3.130  0.0370 -0.1992 -0.0992
16593SOL    HW254337   2.542  11.632   3.101 -0.5905 -0.6370  0.4432
16594SOL     OW54338   9.128   8.341   0.086  0.7560  0.2993 -0.3000
16594SOL    HW154339   9.091   8.424   0.057  0.1677 -0.3945 -1.6088
16594SOL    HW254340   9.181   8.364   0.162  1.4948  2.0426 -1.2808
16595SOL     OW54341   8.785   3.071   0.093 -0.1184 -0.0724 -0.4019
16595SOL    HW154342   8.782   2.984   0.133  0.7244  0.4056  0.7521
16595SOL    HW254343   8.801   3.054  -0.000 -2.2054 -1.2144 -0.5942
16596SOL     OW54344   9.327  11.506   3.566 -0.3194 -0.2463  0.1187
16596SOL    HW154345   9.259  11.447   3.599 -0.1445 -0.4181  0.1707
16596SOL    HW254346   9.330  11.489   3.472 -0.5338 -0.0471  0.0738
16597SOL     OW54347  11.942  11.670   2.862 -0.1203 -0.1619 -0.3340
16597SOL    HW154348  11.892  11.636   2.788  1.1800  0.0909 -1.3494
16597SOL    HW254349  12.031  11.679   2.830  0.8543 -1.5615  1.7313
16598SOL     OW54350   7.893   2.068   8.803 -0.3467 -0.0209  0.1754
16598SOL    HW154351   7.865   1.986   8.763  1.1011 -0.7688  0.6069
16598SOL    HW254352   7.901   2.129   8.730  1.4123 -1.1152 -0.6218
16599SOL     OW54353   1.259   8.820   8.647 -0.6829  0.4090  0.4624
16599SOL    HW154354   1.309   8.901   8.634  0.4012 -0.4156 -0.7749
16599SOL    HW254355   1.326   8.753   8.663 -1.3818 -0.6936 -1.0038
16600SOL     OW54356  11.679   3.446  12.059 -0.1260  0.2717  0.0121
16600SOL    HW154357  11.682   3.369  12.115  1.3937  0.8806  0.8397
16600SOL    HW254358  11.763   3.490  12.074 -0.5303  1.5493 -1.2045
16601SOL     OW54359   3.489   9.214   8.156  0.3639 -0.0866 -0.3323
16601SOL    HW154360   3.417   9.161   8.121  0.5311  0.0141 -0.8320
16601SOL    HW254361   3.459   9.304   8.148  0.6533 -0.0299 -0.7899
16602SOL     OW54362  12.052   4.779   8.333 -0.3795 -0.1448  0.2629
16602SOL    HW154363  11.966   4.798   8.370 -0.3228  0.6044  0.0392
16602SOL    HW254364  12.097   4.729   8.401 -0.4420  0.8118  1.0348
16603SOL     OW54365   3.293   9.848   5.771  0.3502 -0.0710  0.4049
16603SOL    HW154366   3.239   9.787   5.821  1.5210 -0.7523  0.8904
16603SOL    HW254367   3.289   9.815   5.681 -0.6374  0.3392  0.2881
16604SOL     OW54368  10.706   6.661   9.516  0.4514  0.5190 -0.2148
16604SOL    HW154369  10.677   6.707   9.437  0.7328 -0.6340 -1.0174
16604SOL    HW254370  10.665   6.575   9.510 -0.1733  0.6800  1.3199
16605SOL     OW54371  10.695   4.471   7.040  0.4290  0.6068 -0.1907
16605SOL    HW154372  10.764   4.406   7.028  0.3241  0.4168  0.2390
16605SOL    HW254373  10.726   4.548   6.991  1.9389  1.2527  1.6754
16606SOL     OW54374   1.186   0.962   9.935  0.3930  0.2985  0.2840
16606SOL    HW154375   1.251   0.893   9.948 -0.6152 -0.2730  2.6986
16606SOL    HW254376   1.114   0.918   9.890  0.6271  0.3360 -0.1404
16607SOL     OW54377   7.588   1.404   6.749 -0.0967 -0.0193 -0.6362
16607SOL    HW154378   7.539   1.448   6.819  1.6640 -1.3170  1.5623
16607SOL    HW254379   7.544   1.320   6.737 -1.2409  0.7586 -2.1744
16608SOL     OW54380   9.231   1.268   8.911  0.3482  0.1013 -0.2618
16608SOL    HW154381   9.193   1.323   8.980  0.8137 -0.6022  0.5913
16608SOL    HW254382   9.159   1.250   8.851  0.0003  0.9660 -0.1216
16609SOL     OW54383   0.395   0.201  11.796  0.2755 -0.2653  0.1330
16609SOL    HW154384   0.381   0.233  11.885 -1.1316  0.5332 -0.3440
16609SOL    HW254385   0.431   0.113  11.808 -0.6922 -0.5144  1.5123
16610SOL     OW54386   7.830   0.720   4.798  0.1995  0.6594  0.2243
16610SOL    HW154387   7.920   0.702   4.826 -0.0781 -0.2890  0.5690
16610SOL    HW254388   7.780   0.726   4.880 -0.3625 -0.6467 -0.0010
16611SOL     OW54389   3.058  11.806   1.514 -0.5844  1.2297  0.7126
16611SOL    HW154390   2.976  11.794   1.464 -0.3040  1.5370  0.1656
16611SOL    HW254391   3.076  11.720   1.551  1.2132 -0.1474 -2.8384
16612SOL     OW54392   5.580   7.682   9.165 -0.6845  0.3980  0.4027
16612SOL    HW154393   5.502   7.629   9.149  0.0055 -0.7395  0.6333
16612SOL    HW254394   5.617   7.697   9.078 -1.3328  1.2307  0.2642
16613SOL     OW54395   3.680   2.352   9.433  0.2803 -0.0454  0.1440
16613SOL    HW154396   3.761   2.362   9.483  0.2582 -1.2685  0.4491
16613SOL    HW254397   3.708   2.337   9.343  0.3212  2.1363 -0.2718
16614SOL     OW54398   5.513   5.398   0.978  0.1005 -0.5017  0.8049
16614SOL    HW154399   5.553   5.425   1.061  0.0722 -0.3671  0.7741
16614SOL    HW254400   5.557   5.315   0.957  0.7590 -0.0786  0.4940
16615SOL     OW54401   8.126   2.961  11.114 -0.3051 -0.1482 -0.3020
16615SOL    HW154402   8.105   2.939  11.023  0.6631  1.7223 -1.0395
16615SOL    HW254403   8.048   3.007  11.146 -0.4377 -0.3266 -0.3694
16616SOL     OW54404   9.017   9.059   1.333 -0.4133  0.7062  0.0562
16616SOL    HW154405   9.081   9.032   1.267 -0.8006  0.0810 -0.0713
16616SOL    HW254406   8.956   8.985   1.339 -0.3660  0.7486  1.1429
16617SOL     OW54407  11.323   1.189  11.914  0.2427  0.3337  0.4198
16617SOL    HW154408  11.263   1.115  11.899 -0.2149  1.1095 -2.1675
16617SOL    HW254409  11.406   1.161  11.877  0.0066  1.1429 -0.7866
16618SOL     OW54410   1.653   9.261   2.680 -0.2258 -0.2779  0.5067
16618SOL    HW154411   1.737   9.215   2.677 -0.8917 -1.5453 -1.6980
16618SOL    HW254412   1.667   9.338   2.625 -0.2269  0.0712  0.9906
16619SOL     OW54413   3.236   4.554   9.379 -0.1633 -0.1140  0.1976
16619SOL    HW154414   3.269   4.643   9.374  1.2685 -0.6264 -0.2007
16619SOL    HW254415   3.261   4.515   9.295  1.0616 -1.4509  1.1168
16620SOL     OW54416   6.836  11.330   0.883  0.0536  0.4630 -0.0198
16620SOL    HW154417   6.901  11.353   0.949  0.1445 -0.1067  0.0961
16620SOL    HW254418   6.761  11.386   0.902  0.6195  1.3489 -0.3451
16621SOL     OW54419   7.291  10.572  10.322  0.8435 -0.3706  0.1230
16621SOL    HW154420   7.296  10.667  10.328 -0.8601 -0.3028  1.1842
16621SOL    HW254421   7.372  10.546  10.277  2.1001  1.4365  1.1979
16622SOL     OW54422   7.513   7.156   8.387  0.2595  0.5173  0.3920
16622SOL    HW154423   7.494   7.178   8.478  0.7978 -1.9849  1.1886
16622SOL    HW254424   7.595   7.203   8.368  0.1147  1.1043  1.1765
16623SOL     OW54425   0.093   9.759   2.717 -0.3541 -0.1578  0.0555
16623SOL    HW154426   0.140   9.787   2.796  0.3381 -2.3055  0.4618
16623SOL    HW254427   0.161   9.729   2.657 -0.8117  2.0787 -1.7252
16624SOL     OW54428   6.545   4.004   0.069  0.2046  0.1811 -0.5117
16624SOL    HW154429   6.622   4.024   0.016  1.1784 -1.8439  0.0509
16624SOL    HW254430   6.514   3.920   0.035 -0.7356  0.1497  0.3916
16625SOL     OW54431  11.948   8.238   7.051  0.4706 -0.1706  1.0440
16625SOL    HW154432  11.978   8.300   7.117 -3.3180  1.8597  1.1099
16625SOL    HW254433  11.924   8.292   6.976 -0.7222 -1.7896  0.1892
16626SOL     OW54434   9.811   9.619   9.602  0.3721 -0.2696 -0.2183
16626SOL    HW154435   9.901   9.628   9.633  0.3624 -0.6857 -0.0664
16626SOL    HW254436   9.764   9.693   9.640  0.4997 -0.4312  0.2501
16627SOL     OW54437   8.689   3.219   4.650 -0.3137  0.4109  0.1367
16627SOL    HW154438   8.741   3.268   4.587  0.8918  1.6064  1.9548
16627SOL    HW254439   8.673   3.135   4.607 -0.2741  1.4484 -2.0559
16628SOL     OW54440   0.882  10.053   8.641 -0.0846  0.2007  0.2717
16628SOL    HW154441   0.861  10.109   8.566 -0.6641 -0.0595  0.2291
16628SOL    HW254442   0.830  10.090   8.713 -0.8787 -0.5825  0.1162
16629SOL     OW54443   4.195   5.834   6.667 -0.2279  0.7798 -0.2445
16629SOL    HW154444   4.212   5.775   6.593  0.5499  0.7949 -0.0834
16629SOL    HW254445   4.132   5.898   6.633  1.6598  2.0437 -1.5531
16630SOL     OW54446  11.286  10.044   6.199  0.5058 -0.0800  0.1808
16630SOL    HW154447  11.310  10.131   6.230  0.1470 -0.9247  3.1793
16630SOL    HW254448  11.336  10.032   6.119  1.2684  2.5079  0.1859
16631SOL     OW54449   9.814   9.754   4.423  0.3421 -0.3886 -0.3199
16631SOL    HW154450   9.895   9.737   4.374  0.9365 -0.7256  0.7503
16631SOL    HW254451   9.762   9.810   4.365  1.7215  0.5718 -0.6764
16632SOL     OW54452   2.949   0.864  11.674  0.2137 -0.5335  0.3326
16632SOL    HW154453   2.930   0.923  11.602 -0.6198  1.7969  2.3189
16632SOL    HW254454   2.864   0.826  11.697 -0.4823  2.1710  2.7975
16633SOL     OW54455   4.940   3.107   6.042 -0.0513  0.3293 -0.0749
16633SOL    HW154456   4.857   3.060   6.030 -0.2074 -0.0868  2.0699
16633SOL    HW254457   4.932   3.147   6.129  0.7885  2.9118 -1.0891
16634SOL     OW54458   2.584   2.384   2.963  0.4200 -0.4844  0.2999
16634SOL    HW154459   2.526   2.402   3.037  1.1680  0.7846  0.6118
16634SOL    HW254460   2.622   2.298   2.983 -0.4611 -0.8079  0.6551
16635SOL     OW54461  11.252   7.881   7.042  0.0477 -0.5812  0.3922
16635SOL    HW154462  11.302   7.850   6.967  1.5335  0.4233  0.9261
16635SOL    HW254463  11.169   7.910   7.005  1.4828  1.8077 -1.2510
16636SOL     OW54464   2.372   7.507   4.158 -0.5623 -0.1879 -0.3482
16636SOL    HW154465   2.322   7.583   4.128 -1.9222 -0.5794  0.8326
16636SOL    HW254466   2.318   7.431   4.134 -0.5858 -0.6195  0.9904
16637SOL     OW54467   5.928   4.752   7.938 -0.4216 -0.2328  0.1398
16637SOL    HW154468   5.851   4.781   7.890 -0.0823  0.5666  0.0707
16637SOL    HW254469   5.926   4.803   8.019 -0.6900 -1.1748  0.7440
16638SOL     OW54470   6.472   6.892  10.914  0.0989  0.4684  0.3763
16638SOL    HW154471   6.418   6.942  10.976  0.0876 -0.1639  0.8872
16638SOL    HW254472   6.419   6.815  10.892  0.0439  0.7580 -0.5419
16639SOL     OW54473   7.553   3.931   5.614  0.2085 -0.1468 -0.0304
16639SOL    HW154474   7.547   4.026   5.617  1.1578 -0.0712 -0.0777
16639SOL    HW254475   7.612   3.908   5.686  0.5599 -0.6375 -0.4620
16640SOL     OW54476   0.081  11.771   4.632  0.1529 -0.1249  0.3123
16640SOL    HW154477   0.036  11.838   4.580 -0.0086 -2.5892 -3.0983
16640SOL    HW254478   0.016  11.743   4.697 -1.1440  0.4596 -0.6801
16641SOL     OW54479  10.436   3.324   1.893  0.3919  0.1525 -0.1658
16641SOL    HW154480  10.382   3.245   1.900  1.5698 -0.5665  1.1587
16641SOL    HW254481  10.472   3.321   1.805 -0.7973  0.0380 -0.6619
16642SOL     OW54482   7.539   9.894  10.536  0.7594  0.3261  0.4669
16642SOL    HW154483   7.546   9.803  10.507  2.3740  0.5331  0.0880
16642SOL    HW254484   7.595   9.900  10.613  0.1042  0.8452  0.9183
16643SOL     OW54485   6.877   3.673   3.123  0.2056  0.2450 -0.3581
16643SOL    HW154486   6.956   3.624   3.101  0.5919  0.9480 -0.5394
16643SOL    HW254487   6.806   3.611   3.107  0.7488 -0.6034  0.4268
16644SOL     OW54488   4.429  11.112  11.160 -0.1423  0.3462  0.4204
16644SOL    HW154489   4.352  11.063  11.190  0.2381 -1.5434 -1.4519
16644SOL    HW254490   4.486  11.046  11.121  1.6214  1.9605  0.1199
16645SOL     OW54491   9.086   2.975   5.952  0.0266  0.1932  0.1192
16645SOL    HW154492   9.050   3.060   5.930 -1.3325 -0.5662 -0.7706
16645SOL    HW254493   9.016   2.931   6.001  0.3883 -0.6750 -0.1101
16646SOL     OW54494   2.807   1.172   0.967 -0.8808 -0.1968  0.3141
16646SOL    HW154495   2.881   1.138   0.917 -0.8655  0.4130 -0.0896
16646SOL    HW254496   2.741   1.103   0.961 -0.5852 -0.4678  0.1268
16647SOL     OW54497   0.512   9.593  10.229  0.1195 -0.1363  0.2382
16647SOL    HW154498   0.570   9.548  10.291  0.3189 -1.4866 -0.8572
16647SOL    HW254499   0.525   9.686  10.246  1.1220 -0.4605  1.3482
16648SOL     OW54500  11.162  11.500   6.096 -0.5054  0.2846  0.1278
16648SOL    HW154501  11.216  11.525   6.020 -0.0267  0.1505  0.4192
16648SOL    HW254502  11.204  11.543   6.170 -2.0949  2.0509  0.0785
16649SOL     OW54503   6.136   7.553   2.787 -0.3592  0.1943 -0.1327
16649SOL    HW154504   6.079   7.624   2.756 -0.3110 -0.1752 -1.1097
16649SOL    HW254505   6.194   7.594   2.850  0.3193  1.2469 -1.4034
16650SOL     OW54506   5.077   8.956   0.649  0.3884 -0.4271  0.2668
16650SOL    HW154507   5.153   8.914   0.689 -1.5608 -2.9662  1.6398
16650SOL    HW254508   5.002   8.924   0.701 -1.6086  2.1895 -0.7889
16651SOL     OW54509   9.430   1.973   8.949 -0.7914 -0.5606  0.3660
16651SOL    HW154510   9.390   1.903   9.001 -1.2968 -1.9812 -1.7877
16651SOL    HW254511   9.461   1.928   8.869 -0.1007  1.4944 -0.5863
16652SOL     OW54512   7.513  10.392   3.791 -0.3547  0.3308  0.1536
16652SOL    HW154513   7.434  10.371   3.840  0.1952 -2.0766  0.1396
16652SOL    HW254514   7.505  10.344   3.709  0.7523  0.7181 -0.2113
16653SOL     OW54515  10.347   6.187   5.885  0.5407 -0.7427  0.0046
16653SOL    HW154516  10.442   6.183   5.882  0.6484  1.3670 -1.6238
16653SOL    HW254517  10.318   6.136   5.809  0.1449 -3.7044  1.9652
16654SOL     OW54518   2.496   8.743   5.734 -0.3386 -0.5660  0.2986
16654SOL    HW154519   2.488   8.662   5.684  2.5023 -1.6044  1.3277
16654SOL    HW254520   2.502   8.812   5.668 -4.0828 -0.8980 -0.5948
16655SOL     OW54521   5.679  10.372   9.810 -0.9261 -0.1926  0.0559
16655SOL    HW154522   5.731  10.443   9.772 -2.3738 -0.8955 -3.6221
16655SOL    HW254523   5.737  10.297   9.809 -0.3519  0.2203  1.0921
16656SOL     OW54524   7.258  10.145   3.081  0.1179 -0.1074  0.5044
16656SOL    HW154525   7.248  10.179   2.992  1.9324  0.1176  0.3413
16656SOL    HW254526   7.339  10.185   3.113 -0.3003 -0.4871  2.1259
16657SOL     OW54527   2.126   2.243   3.315  0.0566 -0.2656 -0.0939
16657SOL    HW154528   2.095   2.216   3.229 -3.6144 -0.7821  1.2145
16657SOL    HW254529   2.124   2.163   3.367  4.9528 -0.6181  0.0181
16658SOL     OW54530   0.134   2.731   1.756  0.2464 -0.1447 -0.1452
16658SOL    HW154531   0.182   2.671   1.698 -0.3278  0.2676 -1.0812
16658SOL    HW254532   0.054   2.751   1.708  0.4393  1.3965  0.1236
16659SOL     OW54533   7.511   1.680   8.338  0.0603 -0.0582  0.1027
16659SOL    HW154534   7.587   1.653   8.390  0.8287 -1.0343 -1.4393
16659SOL    HW254535   7.541   1.675   8.247 -1.5296  0.6181 -0.5031
16660SOL     OW54536   0.175   5.888  11.188 -0.4406 -0.4932  0.1992
16660SOL    HW154537   0.086   5.919  11.208 -0.5937 -1.2154  0.6682
16660SOL    HW254538   0.185   5.809  11.241  0.0797 -1.0385 -0.6963
16661SOL     OW54539   9.449   1.388   8.767 -0.1789  0.2547  0.7811
16661SOL    HW154540   9.414   1.384   8.677  0.1914 -0.3977  0.6604
16661SOL    HW254541   9.387   1.336   8.818 -0.0478  0.1089  0.7905
16662SOL     OW54542   5.455   9.167  11.031  0.3411 -0.5262 -0.1995
16662SOL    HW154543   5.448   9.193  11.123  0.1031 -1.4236  0.0397
16662SOL    HW254544   5.497   9.242  10.989 -1.0089  0.5738  0.3270
16663SOL     OW54545   7.506  11.485  11.999  0.9393  0.0243 -0.4122
16663SOL    HW154546   7.513  11.400  11.954  0.9804 -0.6240  0.7817
16663SOL    HW254547   7.597  11.516  12.004  0.6884  1.8115 -3.8297
16664SOL     OW54548   1.553   1.961   9.800  0.5999 -1.1755  0.2617
16664SOL    HW154549   1.554   1.876   9.755 -0.7235 -0.0376 -2.1095
16664SOL    HW254550   1.462   1.973   9.826  0.8492 -0.5960  0.8905
16665SOL     OW54551   2.075   8.206   2.816 -0.1631 -0.0765  0.0140
16665SOL    HW154552   2.168   8.224   2.802 -0.0037 -1.0520 -0.2449
16665SOL    HW254553   2.049   8.154   2.740 -0.4769 -1.3483  0.9526
16666SOL     OW54554   5.478  11.118   2.565  0.0800  0.2402 -0.2302
16666SOL    HW154555   5.531  11.148   2.639  1.4746  0.3815 -1.2488
16666SOL    HW254556   5.409  11.184   2.558  0.4129  0.6765  0.4441
16667SOL     OW54557   2.323  10.843   3.739  0.0636  0.0233 -1.1649
16667SOL    HW154558   2.389  10.825   3.672  0.0882  0.1859 -1.1836
16667SOL    HW254559   2.306  10.758   3.780  0.4238  0.0153 -1.0310
16668SOL     OW54560  11.574  11.322   2.977 -0.1558 -0.6504 -0.1154
16668SOL    HW154561  11.593  11.244   3.029 -1.4658 -0.5158  0.5971
16668SOL    HW254562  11.525  11.289   2.901 -0.4903 -0.5540  0.0576
16669SOL     OW54563   8.357   3.104  10.743  0.2530  0.0153  0.0274
16669SOL    HW154564   8.344   3.015  10.711  2.4093 -1.0749  1.9480
16669SOL    HW254565   8.369   3.095  10.837 -0.1663  2.4557  0.3902
16670SOL     OW54566   9.539  12.057   0.179 -0.0620  0.0559  0.0662
16670SOL    HW154567   9.561  12.126   0.116 -0.9673 -0.5796 -0.9879
16670SOL    HW254568   9.565  11.976   0.135  1.4543 -0.2824  1.4975
16671SOL     OW54569   4.477  11.598   1.555 -0.3335 -0.0998 -0.2544
16671SOL    HW154570   4.407  11.535   1.571 -0.4524  0.0509 -0.1780
16671SOL    HW254571   4.471  11.660   1.628 -1.0498  0.7492 -1.0007
16672SOL     OW54572   7.516   8.535   2.156 -0.0650 -0.0496 -0.4259
16672SOL    HW154573   7.604   8.562   2.132  0.0092  1.6256  1.4549
16672SOL    HW254574   7.475   8.508   2.074  1.9465 -0.1588 -1.4345
16673SOL     OW54575  10.394   7.356   1.733 -0.3762  0.1660 -0.1219
16673SOL    HW154576  10.486   7.370   1.752 -0.5520  0.6291  0.4077
16673SOL    HW254577  10.393   7.280   1.674  0.3680  0.4603 -0.5221
16674SOL     OW54578   2.750   3.189   3.441  0.7482 -0.2518 -0.3695
16674SOL    HW154579   2.718   3.115   3.389  1.0031 -0.9450  0.4399
16674SOL    HW254580   2.836   3.208   3.406  1.5504 -1.6769  0.7163
16675SOL     OW54581   0.324   8.823   3.349 -0.1859  0.1706 -0.2436
16675SOL    HW154582   0.402   8.879   3.356  0.0047 -0.2810  1.8091
16675SOL    HW254583   0.356   8.741   3.312 -0.0740  0.6473 -1.2413
16676SOL     OW54584   6.107   6.420   4.121 -0.3051 -0.3344 -0.1976
16676SOL    HW154585   6.040   6.355   4.141 -0.5189 -0.1722 -0.3801
16676SOL    HW254586   6.187   6.369   4.106 -0.7166 -0.6419 -1.4485
16677SOL     OW54587  11.886  12.003   2.608  0.6162  0.2366  0.2966
16677SOL    HW154588  11.973  11.984   2.571  0.1007 -3.8032  0.6643
16677SOL    HW254589  11.897  11.988   2.702 -0.1688  1.1376  0.5357
16678SOL     OW54590   8.371   3.017   8.295  0.3250 -0.3584  0.1877
16678SOL    HW154591   8.346   2.939   8.345  0.7729 -0.4242  0.3208
16678SOL    HW254592   8.336   3.090   8.346  0.3577 -0.4496  0.3417
16679SOL     OW54593   1.937   9.727   4.706 -0.4958 -0.3513  0.6588
16679SOL    HW154594   2.002   9.753   4.771  1.0507  0.0899 -0.9885
16679SOL    HW254595   1.858   9.775   4.731 -0.3048 -1.0540  2.8235
16680SOL     OW54596  10.412   8.380   8.484 -0.3845 -0.5062 -0.2188
16680SOL    HW154597  10.380   8.291   8.498  0.8971 -0.6784  2.0719
16680SOL    HW254598  10.355   8.435   8.538  1.0158 -0.4288  1.2560
16681SOL     OW54599   3.505   0.334   0.101  0.7480  0.4978 -0.6589
16681SOL    HW154600   3.485   0.349   0.008 -0.1349  0.4230 -0.4863
16681SOL    HW254601   3.469   0.410   0.146 -1.1384 -0.6485 -0.1081
16682SOL     OW54602   1.014   0.799  10.234 -0.0592 -0.1098 -0.7136
16682SOL    HW154603   0.947   0.825  10.172 -0.4172  0.4956 -0.0853
16682SOL    HW254604   1.070   0.877  10.243 -0.6319  0.1826  0.5187
16683SOL     OW54605   2.840   9.168   1.002 -0.2983 -0.4316 -0.9722
16683SOL    HW154606   2.852   9.210   0.917  0.5825  0.3530 -0.4747
16683SOL    HW254607   2.813   9.239   1.060 -0.5310 -0.8943 -0.5093
16684SOL     OW54608   7.988   1.780   9.914 -0.0130  0.1840  0.4221
16684SOL    HW154609   8.027   1.855   9.868  0.3018  0.7200  1.5407
16684SOL    HW254610   8.060   1.742   9.964 -0.5833  0.2600  1.3170
16685SOL     OW54611   2.836   4.148   5.546  0.2205  0.2790 -0.3764
16685SOL    HW154612   2.787   4.084   5.598  0.4334  1.4251  1.2875
16685SOL    HW254613   2.816   4.125   5.455 -2.2111 -0.2200  0.2195
16686SOL     OW54614   7.555   1.305   4.026 -0.7555  0.8030  0.0313
16686SOL    HW154615   7.582   1.319   4.117  1.0578  1.0076 -0.4876
16686SOL    HW254616   7.564   1.391   3.985 -1.0401  0.6010 -0.4622
16687SOL     OW54617   9.782  10.387   8.895  0.3653 -0.7040 -0.1811
16687SOL    HW154618   9.745  10.299   8.889 -1.1565 -0.1102 -0.0645
16687SOL    HW254619   9.747  10.421   8.978 -0.0351  0.4095 -0.7882
16688SOL     OW54620   2.414   9.512   5.411 -0.7760 -0.2626 -0.7962
16688SOL    HW154621   2.358   9.474   5.344 -1.0345 -0.2207 -0.6037
16688SOL    HW254622   2.473   9.570   5.363 -1.2981  0.1593 -0.9288
16689SOL     OW54623   5.451   5.000   6.829  0.1961  0.0649 -0.7649
16689SOL    HW154624   5.450   5.043   6.914  0.6147  1.0264 -1.2357
16689SOL    HW254625   5.543   4.979   6.813 -0.1020 -2.0172 -0.0694
16690SOL     OW54626  11.840  10.532   4.348 -0.0532 -0.1785 -0.2249
16690SOL    HW154627  11.853  10.613   4.399  0.4088  1.2081 -2.4273
16690SOL    HW254628  11.918  10.480   4.367  0.4840  0.6532 -0.0961
16691SOL     OW54629   4.514   2.007   2.772 -0.0306 -0.3320 -0.6182
16691SOL    HW154630   4.545   2.098   2.766  0.4531 -0.5440 -1.4737
16691SOL    HW254631   4.466   2.004   2.854  1.6361  0.1927  0.4346
16692SOL     OW54632   8.767   6.056   4.494 -0.5481 -0.1579 -0.0372
16692SOL    HW154633   8.806   6.135   4.457 -0.1765  0.0365  0.7508
16692SOL    HW254634   8.684   6.046   4.448  0.7921 -1.0860 -2.3998
16693SOL     OW54635  10.347  10.422  10.070  0.9972  0.0890  0.2814
16693SOL    HW154636  10.373  10.514  10.062 -1.5579  0.8106 -0.9255
16693SOL    HW254637  10.382  10.381   9.991  0.1490  0.6060 -0.3821
16694SOL     OW54638   5.629   5.282   4.942  0.3580  0.1747 -0.0310
16694SOL    HW154639   5.715   5.258   4.977  0.8467  1.7544 -0.0791
16694SOL    HW254640   5.567   5.250   5.007  0.9611 -1.0155 -0.0123
16695SOL     OW54641   9.575   9.312   0.654  0.0455 -0.0124  0.2798
16695SOL    HW154642   9.664   9.283   0.673  0.5830  1.0206 -0.5116
16695SOL    HW254643   9.565   9.392   0.704 -0.8513 -0.6931  1.2193
16696SOL     OW54644   0.664  11.479   5.719 -0.0380 -0.3516  0.3938
16696SOL    HW154645   0.590  11.500   5.775 -0.9602 -1.6437 -0.3105
16696SOL    HW254646   0.726  11.434   5.777  1.0283  2.1721  1.4004
16697SOL     OW54647   8.030   9.429   7.927 -0.4372  0.3108 -0.5806
16697SOL    HW154648   8.065   9.380   7.852 -0.3848 -0.8999  0.2012
16697SOL    HW254649   8.074   9.514   7.923  1.8118 -0.7665 -0.2760
16698SOL     OW54650  11.343   4.890   4.444  0.2853  0.3663 -0.4641
16698SOL    HW154651  11.334   4.912   4.352  1.6283 -0.5517 -0.8478
16698SOL    HW254652  11.285   4.815   4.457 -1.2918  1.5990 -0.0934
16699SOL     OW54653  11.776   9.562  11.429  0.6075 -0.8592  0.6010
16699SOL    HW154654  11.755   9.479  11.473  0.3795 -1.1580 -0.0577
16699SOL    HW254655  11.871   9.561  11.420  0.7963 -0.2298  2.1722
16700SOL     OW54656   3.235   9.529   6.660 -0.1355  0.4029  0.2752
16700SOL    HW154657   3.295   9.468   6.616  0.1156  1.1340 -0.4142
16700SOL    HW254658   3.280   9.552   6.742  0.8403  1.4172 -0.5141
16701SOL     OW54659   8.944   3.100   6.875 -0.0519  0.2126  0.4235
16701SOL    HW154660   8.857   3.136   6.862 -0.3864 -0.6688  0.1492
16701SOL    HW254661   8.969   3.129   6.963 -1.6527 -1.5290  1.5416
16702SOL     OW54662   8.297   1.978  10.880  0.3516 -0.4867 -0.1562
16702SOL    HW154663   8.374   1.960  10.826  0.9958 -0.0627  0.6108
16702SOL    HW254664   8.327   2.041  10.945 -0.6234 -0.3868  0.2121
16703SOL     OW54665   8.727   7.467   2.875 -0.4652  0.2044 -0.2586
16703SOL    HW154666   8.714   7.402   2.805  0.4611 -0.3971  0.1104
16703SOL    HW254667   8.717   7.416   2.956 -0.1094  0.6012  0.0373
16704SOL     OW54668   8.320   9.123  10.792  0.1545 -0.2955  0.0979
16704SOL    HW154669   8.253   9.080  10.740  1.6579 -0.9261 -1.3798
16704SOL    HW254670   8.298   9.216  10.787  0.0087 -0.3900 -1.2998
16705SOL     OW54671   7.611   3.601   7.369  0.2525  0.3371  0.1604
16705SOL    HW154672   7.573   3.524   7.327  1.0876  0.7993 -1.5136
16705SOL    HW254673   7.537   3.661   7.382  0.0570  0.4107 -1.1920
16706SOL     OW54674  10.884   3.161  11.747 -0.2988 -0.1119 -0.3778
16706SOL    HW154675  10.916   3.212  11.672  2.1696 -1.1535 -0.1225
16706SOL    HW254676  10.963   3.132  11.792 -1.5971 -3.1236  0.2097
16707SOL     OW54677   3.540   1.219   0.533  0.6697  0.0115  0.1321
16707SOL    HW154678   3.525   1.277   0.459  1.0137 -0.3648 -0.2412
16707SOL    HW254679   3.525   1.131   0.498  1.8681 -0.2490  0.2196
16708SOL     OW54680   9.457   1.482   2.160  0.8000  0.0475  0.4881
16708SOL    HW154681   9.444   1.392   2.130 -1.3693 -0.1805  1.8811
16708SOL    HW254682   9.445   1.478   2.255 -0.1583  1.8958  0.5088
16709SOL     OW54683   0.884   2.942   9.765 -0.4467 -0.3913  0.0525
16709SOL    HW154684   0.824   2.878   9.725 -2.6983  1.0920  0.8446
16709SOL    HW254685   0.886   3.014   9.702  0.6199 -0.4454  0.0089
16710SOL     OW54686   5.207   0.123   7.306 -0.4639 -0.4174  0.4686
16710SOL    HW154687   5.162   0.134   7.222 -1.6401 -1.0881  0.9844
16710SOL    HW254688   5.151   0.170   7.368  0.0726 -0.4460  0.9730
16711SOL     OW54689  11.920  11.358   6.172 -0.7892 -0.7354 -0.1404
16711SOL    HW154690  11.857  11.423   6.141  0.1449  1.7689  2.7156
16711SOL    HW254691  12.005  11.400   6.160  0.0805 -2.5065 -0.4743
16712SOL     OW54692   4.992  11.038   3.526 -0.2493  0.0254  0.0246
16712SOL    HW154693   5.076  10.999   3.501 -0.1022  0.1730  0.2829
16712SOL    HW254694   4.988  11.120   3.475  0.3165  0.6162  0.8982
16713SOL     OW54695   9.249  11.806  11.536  0.3190  0.4447  0.2881
16713SOL    HW154696   9.226  11.719  11.506  2.4809 -0.1915  0.2889
16713SOL    HW254697   9.299  11.844  11.464  0.1439  1.3608  0.6284
16714SOL     OW54698   4.781  11.946  10.364 -0.0037  0.4445  0.2155
16714SOL    HW154699   4.876  11.947  10.362  0.0375 -0.9531  0.5386
16714SOL    HW254700   4.757  11.865  10.319 -1.0737  1.1633 -0.5540
16715SOL     OW54701   8.750   6.409   0.348 -0.0450  0.1544 -0.2104
16715SOL    HW154702   8.725   6.490   0.304  0.8387  0.4314 -0.2213
16715SOL    HW254703   8.742   6.430   0.441  0.5122  0.3635 -0.2086
16716SOL     OW54704   5.917   7.556   3.834 -0.2871 -0.3957  0.5294
16716SOL    HW154705   5.881   7.477   3.874  1.6547 -0.3480  2.5717
16716SOL    HW254706   5.870   7.628   3.877  0.6384 -0.3854  1.5590
16717SOL     OW54707   8.303   8.311  11.310 -0.2750 -0.0055  0.1612
16717SOL    HW154708   8.250   8.368  11.366 -0.3485 -1.1369  1.2787
16717SOL    HW254709   8.311   8.229  11.359  1.4555 -0.3049 -0.5435
16718SOL     OW54710   5.055   8.658   0.779 -0.4305  0.2561 -0.0672
16718SOL    HW154711   4.992   8.721   0.814 -1.1614 -1.0740  1.0912
16718SOL    HW254712   5.135   8.675   0.828 -0.3767  0.8382 -0.3539
16719SOL     OW54713  11.705   5.044   8.483  0.0488 -0.3077  0.1484
16719SOL    HW154714  11.610   5.036   8.480  0.0906 -0.5788 -0.4679
16719SOL    HW254715  11.724   5.125   8.437 -0.0207  0.9294  2.1523
16720SOL     OW54716   9.804   3.390  10.109  0.3281 -0.7195 -0.1640
16720SOL    HW154717   9.735   3.327  10.129  0.7861 -1.1088  0.2145
16720SOL    HW254718   9.878   3.362  10.162 -0.2749  1.7081  2.1755
16721SOL     OW54719   6.889   4.170   0.394 -0.0047  0.1895 -0.0698
16721SOL    HW154720   6.846   4.086   0.378  0.5563 -0.2085  0.4870
16721SOL    HW254721   6.865   4.192   0.484  0.9728 -0.0459  0.2539
16722SOL     OW54722   2.625  10.097   4.788  0.2448  0.4176  0.3626
16722SOL    HW154723   2.673  10.029   4.835  1.3746  0.9630  0.0292
16722SOL    HW254724   2.592  10.054   4.710  1.4606  0.3849 -0.1459
16723SOL     OW54725   6.064  11.536   2.764 -0.2144 -0.7810  0.3646
16723SOL    HW154726   6.059  11.475   2.691 -1.1450 -0.3257  0.0349
16723SOL    HW254727   6.019  11.492   2.836 -0.5830 -0.6311  0.2277
16724SOL     OW54728   2.281   2.654   1.055  0.1488  0.1466  0.4143
16724SOL    HW154729   2.331   2.575   1.035 -0.2467  0.4026 -1.7716
16724SOL    HW254730   2.342   2.726   1.042 -0.0876  0.3208  0.2547
16725SOL     OW54731   0.670  11.983   7.200 -0.7095  0.0047  0.2865
16725SOL    HW154732   0.601  11.957   7.260 -0.8712 -3.1165 -1.0516
16725SOL    HW254733   0.691  12.073   7.225 -4.2300  0.6034  1.6372
16726SOL     OW54734   9.419   5.118   1.999 -0.2761 -0.1053  0.2522
16726SOL    HW154735   9.329   5.127   1.967 -0.5050  0.8605  1.1001
16726SOL    HW254736   9.446   5.031   1.971 -0.6121  0.4970 -2.1055
16727SOL     OW54737   5.899   1.122   2.179  0.5709 -0.3892  0.2511
16727SOL    HW154738   5.942   1.146   2.098  0.3608  0.2116  0.3145
16727SOL    HW254739   5.842   1.048   2.156 -0.4954  0.6226 -0.4385
16728SOL     OW54740   3.720   9.666  10.681 -0.2866 -0.5479  0.0435
16728SOL    HW154741   3.633   9.652  10.717  0.3059 -1.6657  1.1133
16728SOL    HW254742   3.739   9.586  10.631  0.2485 -0.4496  0.0760
16729SOL     OW54743   4.785   7.576   0.487  0.0123 -0.0449 -0.2902
16729SOL    HW154744   4.825   7.578   0.574  0.4225 -0.2448 -0.4721
16729SOL    HW254745   4.838   7.636   0.435 -0.5786  0.5074 -0.2577
16730SOL     OW54746  11.988   9.598   9.802  0.0976  0.1729  0.3545
16730SOL    HW154747  12.056   9.555   9.854  0.2561  0.7022  0.5942
16730SOL    HW254748  11.931   9.527   9.774  2.5315 -0.8216 -2.7085
16731SOL     OW54749  11.924   7.600   4.274 -0.3105 -0.2543  0.1940
16731SOL    HW154750  12.018   7.593   4.257 -0.1110 -0.4525  1.3302
16731SOL    HW254751  11.883   7.561   4.197  0.5676 -1.4824  0.3143
16732SOL     OW54752   8.062   3.186   5.110 -0.2197 -0.0720  0.7300
16732SOL    HW154753   8.034   3.260   5.058  0.4604  0.2920  0.8683
16732SOL    HW254754   8.019   3.198   5.195 -1.1638 -0.5579  0.3404
16733SOL     OW54755   3.161   3.069  11.392  0.2155  0.2939  0.4797
16733SOL    HW154756   3.157   2.997  11.455  0.6916 -0.2153 -0.0689
16733SOL    HW254757   3.145   3.028  11.307 -0.7409  1.0261  0.2842
16734SOL     OW54758   1.256   8.953   1.819  0.0209  0.0150  0.0386
16734SOL    HW154759   1.341   8.980   1.785 -0.1392 -1.9153 -2.1546
16734SOL    HW254760   1.195   9.020   1.788  0.4453  0.3286 -0.1159
16735SOL     OW54761   3.391   5.377   6.077 -0.3132 -0.4619  0.6260
16735SOL    HW154762   3.383   5.417   6.164  1.4017  1.9545 -0.2456
16735SOL    HW254763   3.450   5.303   6.091  2.0602  1.4064  1.1884
16736SOL     OW54764   2.659  10.394   3.199  0.3608  0.7576  1.0666
16736SOL    HW154765   2.717  10.467   3.181  0.5698 -0.0500 -2.1574
16736SOL    HW254766   2.603  10.387   3.121 -1.3021 -1.0293  2.2985
16737SOL     OW54767  12.018   1.293  11.937  0.1452 -0.7501  0.6027
16737SOL    HW154768  12.042   1.380  11.905  0.6929 -1.0185  0.2828
16737SOL    HW254769  11.937   1.272  11.890 -0.9941  0.3249  1.9872
16738SOL     OW54770  11.055   3.319   5.051 -0.2419 -0.1637 -0.3924
16738SOL    HW154771  11.115   3.391   5.033 -4.2878  3.9890  0.8424
16738SOL    HW254772  11.013   3.300   4.967  0.1979 -0.4608 -0.5468
16739SOL     OW54773   4.702   7.735   1.559  0.2309  0.2076 -0.3119
16739SOL    HW154774   4.647   7.670   1.602  0.6152 -0.6401 -1.0834
16739SOL    HW254775   4.640   7.801   1.528 -0.4097 -0.8464 -1.3632
16740SOL     OW54776  11.795   0.834   0.685  0.3068  0.1026  0.2929
16740SOL    HW154777  11.705   0.804   0.678  0.4304 -0.1251 -0.3604
16740SOL    HW254778  11.840   0.794   0.610  1.1494 -0.5034  1.0997
16741SOL     OW54779  11.101  11.323   5.759  0.4139  0.7168 -0.2863
16741SOL    HW154780  11.070  11.397   5.706  0.3938  0.4398 -0.6622
16741SOL    HW254781  11.070  11.343   5.848  1.4604  1.7781 -0.1349
16742SOL     OW54782   6.896   7.045  11.978 -0.1614  0.3824  0.8255
16742SOL    HW154783   6.931   7.037  11.890  1.1136 -0.9649  1.4078
16742SOL    HW254784   6.928   7.129  12.009 -0.4097  0.7514  0.1014
16743SOL     OW54785   0.294  11.179  11.084  0.1183 -0.0051  0.2061
16743SOL    HW154786   0.244  11.252  11.120 -0.8123  0.6580 -2.2495
16743SOL    HW254787   0.230  11.108  11.077 -0.1658  0.3706 -1.5095
16744SOL     OW54788   5.752   5.562   9.488 -0.5835  0.4292 -0.3009
16744SOL    HW154789   5.770   5.486   9.432  0.7024  1.1600 -0.9047
16744SOL    HW254790   5.802   5.633   9.449 -1.1305  1.4078  0.7335
16745SOL     OW54791   4.402   7.772   8.268  0.2354 -0.0365 -0.3504
16745SOL    HW154792   4.344   7.696   8.267  0.1290  0.0460 -0.5959
16745SOL    HW254793   4.427   7.782   8.359  1.4343 -1.2588 -0.5072
16746SOL     OW54794   4.808   5.396   7.210 -0.3358 -0.5540  0.2655
16746SOL    HW154795   4.748   5.321   7.218  2.3307 -3.0849 -1.2812
16746SOL    HW254796   4.833   5.396   7.117 -0.3422  2.4461  0.1762
16747SOL     OW54797   2.827   8.811   4.484 -0.2095 -0.4030 -0.5389
16747SOL    HW154798   2.838   8.746   4.414  1.4021 -0.1957 -0.5122
16747SOL    HW254799   2.749   8.782   4.531  0.6814 -2.5886 -0.2756
16748SOL     OW54800   8.218  10.015   2.497  0.3550  0.0687 -0.3872
16748SOL    HW154801   8.219  10.102   2.456 -0.0144 -0.3072 -1.2171
16748SOL    HW254802   8.306   9.981   2.481  0.8904  0.7453  0.9758
16749SOL     OW54803   7.715   5.420   4.773  0.2260  0.2875 -0.0049
16749SOL    HW154804   7.641   5.421   4.834 -0.2966 -0.4450 -0.6043
16749SOL    HW254805   7.680   5.378   4.694  0.6901  1.8576 -1.0788
16750SOL     OW54806   5.161   3.912   7.445  0.4702  0.4045 -0.0198
16750SOL    HW154807   5.109   3.868   7.378 -1.6154  0.0374  1.7082
16750SOL    HW254808   5.161   4.004   7.418  0.4039  0.1377 -0.9686
16751SOL     OW54809   6.779   6.332   7.243 -0.1649  0.0148  0.8322
16751SOL    HW154810   6.724   6.269   7.288  0.8569  0.6057  3.0219
16751SOL    HW254811   6.767   6.312   7.150 -3.0928 -0.6281  1.2603
16752SOL     OW54812   1.820   0.398   1.843  0.1345 -0.5573  0.0192
16752SOL    HW154813   1.736   0.370   1.880 -0.4070 -1.6095 -1.9256
16752SOL    HW254814   1.805   0.490   1.819  0.7672  0.4616  3.0160
16753SOL     OW54815  10.601   6.859   6.807  0.2808  0.3001  0.3307
16753SOL    HW154816  10.584   6.769   6.834  0.0370  0.4005  0.5225
16753SOL    HW254817  10.696   6.867   6.811  0.5047 -0.6170 -1.9004
16754SOL     OW54818   3.491   9.896   1.913  0.0320 -0.4693 -0.2363
16754SOL    HW154819   3.495   9.801   1.900 -1.4613 -0.4211 -1.3562
16754SOL    HW254820   3.523   9.932   1.830 -2.5049 -0.0637 -1.1234
16755SOL     OW54821   7.831   0.863  10.242 -0.4293  0.2298  0.2302
16755SOL    HW154822   7.844   0.773  10.271 -0.1420  0.2629  0.2046
16755SOL    HW254823   7.866   0.916  10.314 -1.2786  0.3326  0.5828
16756SOL     OW54824   0.469   2.219   2.824  0.1838  0.0977  0.9759
16756SOL    HW154825   0.520   2.290   2.783 -1.1156  1.0813  0.9857
16756SOL    HW254826   0.395   2.264   2.864  0.2039 -1.1227  2.4251
16757SOL     OW54827   0.356   6.067   9.046 -0.1997 -0.1078  0.0900
16757SOL    HW154828   0.412   5.991   9.033  2.0584  1.7267 -2.0417
16757SOL    HW254829   0.309   6.076   8.963  0.2856  1.3013 -0.0559
16758SOL     OW54830  10.294   9.278   0.806  0.6990 -0.4823  0.3373
16758SOL    HW154831  10.342   9.195   0.806  0.5335 -0.5929 -0.8903
16758SOL    HW254832  10.244   9.277   0.725  2.8040  1.9830 -1.1742
16759SOL     OW54833   8.557   0.473   0.168 -0.5361 -0.0126 -0.3976
16759SOL    HW154834   8.543   0.546   0.108 -0.7433 -1.2213 -1.8651
16759SOL    HW254835   8.624   0.505   0.229 -0.2691  1.2303 -1.2966
16760SOL     OW54836   4.832   7.212   3.518 -0.0006 -0.1939 -0.1742
16760SOL    HW154837   4.783   7.243   3.442 -0.2949  1.6354  0.6993
16760SOL    HW254838   4.800   7.265   3.591  1.0079 -1.1753  1.0353
16761SOL     OW54839   0.528   3.935   1.510  0.0355  0.2603  0.4645
16761SOL    HW154840   0.512   4.013   1.456  0.8173 -0.4403 -0.8338
16761SOL    HW254841   0.440   3.904   1.533 -0.3245  0.5629 -0.4415
16762SOL     OW54842   9.337   2.235   2.635  0.0283  0.0573  0.3107
16762SOL    HW154843   9.419   2.262   2.677  0.0971  1.3891 -0.6242
16762SOL    HW254844   9.361   2.212   2.546 -0.6479  0.8486 -0.0985
16763SOL     OW54845  11.568   7.981   9.785 -0.1715 -0.4060  0.6130
16763SOL    HW154846  11.509   7.975   9.710  0.6359  0.6363 -0.1411
16763SOL    HW254847  11.634   8.045   9.758 -0.1797  0.4279  2.4348
16764SOL     OW54848   8.284   4.784   3.426  0.0360 -0.6635  0.0629
16764SOL    HW154849   8.265   4.691   3.438  0.7240 -0.9358 -0.8153
16764SOL    HW254850   8.240   4.807   3.344 -0.9150  0.0360  0.7446
16765SOL     OW54851   5.951   0.806   1.874 -0.0277  0.4544  0.4488
16765SOL    HW154852   6.021   0.795   1.809  0.8378  0.1392  1.4123
16765SOL    HW254853   5.996   0.806   1.958 -1.0412  1.7402  1.0221
16766SOL     OW54854  10.311   6.437   1.094 -0.4793  0.0221  0.0751
16766SOL    HW154855  10.230   6.482   1.068  1.8444  1.8558 -5.5556
16766SOL    HW254856  10.325   6.372   1.026  3.6207  1.1121 -0.3399
16767SOL     OW54857   0.545   6.250   1.651 -0.2040  0.6195  0.3850
16767SOL    HW154858   0.495   6.169   1.646  0.1329  0.4643 -0.5696
16767SOL    HW254859   0.485   6.313   1.692 -0.5812 -0.0100  0.8115
16768SOL     OW54860  12.009   5.401  10.862  0.2485  0.4029 -0.4859
16768SOL    HW154861  12.103   5.394  10.851  0.2280 -0.3705 -0.1860
16768SOL    HW254862  11.993   5.375  10.953 -0.0911  2.0938 -0.0116
16769SOL     OW54863   7.497   8.195   0.115  0.1362 -0.2927  0.9478
16769SOL    HW154864   7.419   8.169   0.163  0.8953  0.9867  3.0397
16769SOL    HW254865   7.570   8.171   0.173  1.1844  0.1409 -0.1495
16770SOL     OW54866  10.472   6.808  11.736 -0.1295  0.2638  0.1796
16770SOL    HW154867  10.540   6.766  11.683  0.1347 -0.2357  0.9063
16770SOL    HW254868  10.515   6.884  11.776  0.0716 -0.1773  0.8151
16771SOL     OW54869   5.701   9.387  11.546 -0.3902  0.3176 -0.0775
16771SOL    HW154870   5.764   9.388  11.474  1.0080 -0.4767  1.0586
16771SOL    HW254871   5.687   9.479  11.567  0.3465  0.5195 -0.4171
16772SOL     OW54872   8.612   1.939   1.552  0.4191 -0.2845  0.1185
16772SOL    HW154873   8.658   2.000   1.495  0.4350  0.2377  0.6766
16772SOL    HW254874   8.658   1.945   1.636 -0.6775  0.2955  0.7016
16773SOL     OW54875   0.791   1.269   1.104  0.1504  0.8823  0.4653
16773SOL    HW154876   0.851   1.206   1.144 -0.9225 -0.5555 -0.0705
16773SOL    HW254877   0.705   1.243   1.137 -0.7396 -0.1154 -2.3270
16774SOL     OW54878   4.668   1.722   6.620  0.2969  0.1682 -0.1948
16774SOL    HW154879   4.704   1.761   6.541  1.3812  1.2778  0.8145
16774SOL    HW254880   4.732   1.655   6.645  0.3976  0.4184  0.2182
16775SOL     OW54881   1.684   1.006   1.932 -0.1059  0.3090 -0.2720
16775SOL    HW154882   1.646   1.094   1.929 -1.0102 -0.0867 -1.3771
16775SOL    HW254883   1.778   1.021   1.939 -0.3088  1.3463  0.5507
16776SOL     OW54884   8.901   5.092   4.538 -0.0431 -0.1685  0.7913
16776SOL    HW154885   8.867   5.003   4.537 -0.2028 -0.1091  0.6944
16776SOL    HW254886   8.822   5.147   4.539  0.0533 -0.0294  0.7828
16777SOL     OW54887   5.237   2.855   2.844  0.5181 -0.0635 -0.2464
16777SOL    HW154888   5.265   2.944   2.823  1.8531 -0.6102 -0.9574
16777SOL    HW254889   5.216   2.858   2.938  0.4568  1.0055 -0.2780
16778SOL     OW54890   6.969   3.468   4.775 -0.4544 -0.1891 -0.3923
16778SOL    HW154891   7.048   3.512   4.744 -1.0505  0.6724 -0.7206
16778SOL    HW254892   6.958   3.498   4.865 -0.8297  0.2873 -0.5977
16779SOL     OW54893   0.802   2.427   6.191  0.0680  0.5469 -0.1304
16779SOL    HW154894   0.745   2.414   6.267  0.2847 -1.5736 -0.2659
16779SOL    HW254895   0.864   2.355   6.196  2.4076  2.4358 -0.3290
16780SOL     OW54896   9.164   3.086   4.871 -0.0647  0.5028  0.2431
16780SOL    HW154897   9.248   3.127   4.893  0.3914 -1.1371  1.8353
16780SOL    HW254898   9.114   3.156   4.829  1.1682  2.2870  1.5451
16781SOL     OW54899   9.459   4.589  11.583  0.2286  0.1833  0.0691
16781SOL    HW154900   9.368   4.619  11.575  0.2565  0.1135 -0.5700
16781SOL    HW254901   9.510   4.669  11.597  0.0464  0.1982  0.6851
16782SOL     OW54902   4.745   1.286   4.680  0.3688  0.3641 -0.0054
16782SOL    HW154903   4.683   1.358   4.674 -1.0191 -0.9053 -2.6268
16782SOL    HW254904   4.730   1.250   4.768 -1.5638  1.0221 -0.0081
16783SOL     OW54905  12.006  11.356  11.799  0.3373  0.3323 -0.1252
16783SOL    HW154906  12.065  11.369  11.874 -0.9053  0.2860  0.9065
16783SOL    HW254907  11.963  11.272  11.818 -0.7145  0.8036 -0.3669
16784SOL     OW54908   6.903   7.442   0.370  0.4090 -0.3155  0.4853
16784SOL    HW154909   6.912   7.420   0.463 -1.7016  1.8725  1.3274
16784SOL    HW254910   6.902   7.538   0.369  1.4537 -0.2656 -1.9656
16785SOL     OW54911   1.823  11.422  10.641 -0.0404  0.6757 -0.0093
16785SOL    HW154912   1.731  11.446  10.648 -0.6169 -0.9096 -1.4451
16785SOL    HW254913   1.853  11.415  10.731 -1.3687  1.0664  0.4832
16786SOL     OW54914   1.963   2.063   5.186 -0.0879 -0.3618 -0.2261
16786SOL    HW154915   1.896   2.116   5.144 -0.8121 -2.3214 -1.6793
16786SOL    HW254916   1.914   1.993   5.230  0.8625 -0.2052  1.1230
16787SOL     OW54917  10.928  11.421   7.173  0.0092  0.3505 -0.0043
16787SOL    HW154918  10.872  11.474   7.116 -0.7960  0.2306  0.6613
16787SOL    HW254919  10.870  11.390   7.242  0.7356 -0.4070  0.2868
16788SOL     OW54920  11.327   0.708   4.795  0.0142 -0.0758  0.2882
16788SOL    HW154921  11.416   0.734   4.816 -0.1985 -0.7579  2.2281
16788SOL    HW254922  11.272   0.774   4.836 -0.3993 -0.1807 -0.0845
16789SOL     OW54923   8.459   2.747   3.373 -0.2737 -0.1939  0.4746
16789SOL    HW154924   8.524   2.757   3.304  0.0533 -1.5218  0.5672
16789SOL    HW254925   8.380   2.789   3.338  0.7240  1.9141  0.5655
16790SOL     OW54926  10.603   7.616   4.375  0.5328  0.6822 -0.1679
16790SOL    HW154927  10.658   7.694   4.363  0.0916  1.2422  1.1667
16790SOL    HW254928  10.517   7.652   4.397  0.0450 -0.1927 -0.6257
16791SOL     OW54929   0.025   4.209   1.041  0.6341  0.0812 -0.1554
16791SOL    HW154930   0.069   4.291   1.019 -0.2644  0.3768 -0.9188
16791SOL    HW254931   0.061   4.185   1.126  0.2988  1.7231  0.5009
16792SOL     OW54932   2.773   1.817   6.940 -0.3283 -0.0061 -0.4617
16792SOL    HW154933   2.811   1.904   6.952 -1.2228  0.4193 -0.6257
16792SOL    HW254934   2.742   1.792   7.027  0.5955 -0.4968 -0.2586
16793SOL     OW54935   0.424   8.321   4.547  0.2354 -0.2002 -0.2147
16793SOL    HW154936   0.472   8.249   4.506 -0.1567 -0.5713 -0.0394
16793SOL    HW254937   0.483   8.354   4.615  0.6790  0.0756 -0.7307
16794SOL     OW54938  11.803   5.710   0.685  0.0644 -0.2210  0.1143
16794SOL    HW154939  11.727   5.675   0.732  0.6147  0.8825  1.8954
16794SOL    HW254940  11.863   5.635   0.677  0.0365 -0.3878  1.3509
16795SOL     OW54941  11.611   0.474   3.483 -0.3794  0.3709 -0.6573
16795SOL    HW154942  11.695   0.518   3.465  1.7345 -2.4631  1.3370
16795SOL    HW254943  11.598   0.416   3.408 -1.3300  1.7405 -1.5983
16796SOL     OW54944   4.003   0.166   9.469 -0.5027 -0.3062  0.3243
16796SOL    HW154945   3.935   0.225   9.501  0.4834 -0.1949  2.3775
16796SOL    HW254946   4.073   0.173   9.534  2.9118  1.9819 -3.0871
16797SOL     OW54947   3.005   6.358   7.250 -0.4350 -0.3963  0.4514
16797SOL    HW154948   2.939   6.294   7.276 -1.2421  0.5040  0.6803
16797SOL    HW254949   3.012   6.347   7.155 -2.1346  0.5687  0.1635
16798SOL     OW54950   9.304   3.098   1.334 -0.4628  0.0524  0.4858
16798SOL    HW154951   9.329   3.034   1.401  0.7867 -0.3929 -0.3859
16798SOL    HW254952   9.379   3.157   1.328  0.1515 -0.8503 -1.6253
16799SOL     OW54953   4.164   1.329   6.047 -0.0072 -0.6963  0.0609
16799SOL    HW154954   4.252   1.301   6.075 -0.9327 -0.7810  3.2272
16799SOL    HW254955   4.110   1.321   6.125 -2.3163  1.7398 -1.1278
16800SOL     OW54956   2.671   0.222  10.231  0.0644  0.2788  0.0308
16800SOL    HW154957   2.691   0.299  10.286  2.4219 -0.3875  0.2289
16800SOL    HW254958   2.717   0.239  10.149 -0.1355 -0.5198 -0.2533
16801SOL     OW54959  10.054   0.733  10.085  0.0500  0.3776  0.5129
16801SOL    HW154960  10.144   0.766  10.098 -0.4901  1.6537  1.2615
16801SOL    HW254961  10.014   0.797  10.025 -0.5312  0.1526  0.6582
16802SOL     OW54962   0.734   1.981   0.838 -0.1852 -0.5204 -0.5271
16802SOL    HW154963   0.647   1.949   0.861  0.3847 -1.1802  0.8552
16802SOL    HW254964   0.760   1.928   0.763 -1.9289  1.3816 -2.6107
16803SOL     OW54965   7.974   7.651  11.495  0.4395  0.8382 -0.0301
16803SOL    HW154966   7.895   7.604  11.469  1.7064 -0.7407 -1.3379
16803SOL    HW254967   8.015   7.676  11.412  1.6826  0.9166  0.5832
16804SOL     OW54968   1.554   3.761   4.959  0.2028 -0.1446  0.1981
16804SOL    HW154969   1.577   3.782   5.050 -0.7049  1.6962  0.0494
16804SOL    HW254970   1.566   3.843   4.912 -2.1021 -0.2952 -0.7618
16805SOL     OW54971   4.864   7.612   8.138  0.4676 -0.4595  0.6892
16805SOL    HW154972   4.770   7.627   8.130  0.5117 -0.9527 -1.0549
16805SOL    HW254973   4.873   7.517   8.133  1.1448 -0.3510 -0.3099
16806SOL     OW54974   2.427   9.360  10.922 -0.0613 -0.1338  0.5647
16806SOL    HW154975   2.458   9.431  10.865 -0.2462 -0.3529  0.1812
16806SOL    HW254976   2.332   9.357  10.907  0.1991 -1.9582 -1.2134
16807SOL     OW54977   0.239   6.784   3.715  0.1841 -0.7364  0.2305
16807SOL    HW154978   0.216   6.877   3.721 -2.1013 -1.3039  1.4238
16807SOL    HW254979   0.174   6.748   3.654  0.4324 -1.7113  0.5294
16808SOL     OW54980   0.812   9.007   6.280  0.4388 -0.1100  0.2741
16808SOL    HW154981   0.898   8.967   6.265  0.6517  0.4059  0.1140
16808SOL    HW254982   0.792   9.053   6.198 -0.7264 -1.5511 -0.3094
16809SOL     OW54983   8.759  10.101  10.469 -0.0093  0.3343  0.1850
16809SOL    HW154984   8.758  10.130  10.378 -0.5987 -3.2052 -1.0884
16809SOL    HW254985   8.851  10.087  10.489  0.0720  0.4995 -0.0649
16810SOL     OW54986   6.132   9.845   7.722  0.6308  0.0600  0.0500
16810SOL    HW154987   6.102   9.894   7.798  0.3481 -0.2467  0.1404
16810SOL    HW254988   6.076   9.767   7.720  0.1424  0.4083 -0.8833
16811SOL     OW54989   6.814   4.279   3.636 -0.3567  0.0652  0.1115
16811SOL    HW154990   6.822   4.220   3.561 -0.9077 -0.1351  0.2113
16811SOL    HW254991   6.896   4.266   3.684  0.6452  1.2247 -1.1791
16812SOL     OW54992   8.282   3.528   9.232  0.1768  0.4396 -0.1055
16812SOL    HW154993   8.258   3.602   9.175 -0.6937  0.1776 -0.0989
16812SOL    HW254994   8.202   3.510   9.282  0.5426 -0.1693  0.2704
16813SOL     OW54995   1.317   3.525   0.407  0.1846  0.2505 -0.0042
16813SOL    HW154996   1.264   3.452   0.440 -1.1919  1.5444  0.8262
16813SOL    HW254997   1.383   3.540   0.474 -0.2431  0.4615  0.3788
16814SOL     OW54998   8.283  10.297   8.258  0.1582 -0.2871  0.1814
16814SOL    HW154999   8.218  10.230   8.280  1.1473 -0.8322  1.5895
16814SOL    HW255000   8.231  10.375   8.240 -0.9968 -1.3122 -1.1061
16815SOL     OW55001  11.914   9.849   9.995  0.3735  0.4361 -0.8011
16815SOL    HW155002  12.005   9.850   9.966  0.5414 -2.0319 -0.5462
16815SOL    HW255003  11.864   9.837   9.914  0.4741 -0.7858 -0.7004
16816SOL     OW55004   3.070   6.313   2.609 -0.1156  0.2066  0.0279
16816SOL    HW155005   2.977   6.300   2.594 -0.1051 -1.2795  1.0250
16816SOL    HW255006   3.096   6.241   2.667  1.7634  0.2626 -0.6558
16817SOL     OW55007  11.341   8.249   3.138  0.8481 -0.3669 -0.6649
16817SOL    HW155008  11.359   8.236   3.231 -2.1115 -1.7651 -0.1803
16817SOL    HW255009  11.397   8.185   3.094  1.4438 -0.4930  0.2453
16818SOL     OW55010   5.761   7.283   5.809 -0.6561  0.1104 -0.3662
16818SOL    HW155011   5.794   7.370   5.829  2.1876 -0.3036 -2.5344
16818SOL    HW255012   5.778   7.232   5.889  2.0238  0.5335 -0.5612
16819SOL     OW55013   6.083   8.858  11.865 -0.1220  0.1430  0.2059
16819SOL    HW155014   6.168   8.815  11.859 -0.1535 -0.0251  0.9168
16819SOL    HW255015   6.066   8.890  11.776  0.7251  0.2599  0.0775
16820SOL     OW55016   4.354   9.103   9.705  0.0218 -0.2158 -0.5739
16820SOL    HW155017   4.386   9.020   9.669  0.3888  0.2781 -1.3972
16820SOL    HW255018   4.378   9.169   9.640  0.2085  0.6194  0.3187
16821SOL     OW55019   2.816   0.835   8.783  0.4032 -0.3805 -0.0398
16821SOL    HW155020   2.770   0.898   8.838 -2.1750 -1.2867 -1.0016
16821SOL    HW255021   2.857   0.888   8.715  1.1517  0.5002  1.0716
16822SOL     OW55022  10.023   1.677   0.110  0.2896 -0.4177 -0.1561
16822SOL    HW155023  10.083   1.631   0.169  2.7900  2.0398 -0.5073
16822SOL    HW255024  10.035   1.635   0.025  0.2153 -1.0319  0.1354
16823SOL     OW55025   8.568   4.648  11.609 -0.2052  0.3179  0.0055
16823SOL    HW155026   8.608   4.718  11.661 -0.9729 -0.2868  1.4915
16823SOL    HW255027   8.567   4.681  11.519  1.9282  1.0793  0.2179
16824SOL     OW55028  10.026  10.765   3.652 -0.7086 -0.3223  0.0377
16824SOL    HW155029  10.023  10.849   3.697 -0.1316 -0.6187  0.6465
16824SOL    HW255030   9.935  10.737   3.648 -0.8917  0.2728 -0.0608
16825SOL     OW55031   8.724   0.700   7.376 -0.3416  0.2169  0.0673
16825SOL    HW155032   8.793   0.637   7.356 -1.9249 -1.9268  0.9216
16825SOL    HW255033   8.731   0.766   7.308 -0.0508 -2.1277 -2.3781
16826SOL     OW55034   2.436   8.944   4.577 -0.1506 -0.3544 -0.0069
16826SOL    HW155035   2.401   8.962   4.490  0.5193 -1.1051 -0.4391
16826SOL    HW255036   2.429   9.028   4.623 -0.6294  0.0144 -0.7352
16827SOL     OW55037   6.740   0.935   4.998 -0.4249  0.1804  0.2965
16827SOL    HW155038   6.827   0.960   5.026 -0.3623  0.2629  0.0336
16827SOL    HW255039   6.745   0.933   4.902 -0.5540 -0.3808  0.2972
16828SOL     OW55040   4.295   3.782   5.757 -0.3651 -0.2959 -0.0804
16828SOL    HW155041   4.252   3.868   5.761 -1.1764 -0.5322 -2.2369
16828SOL    HW255042   4.223   3.720   5.763  0.3020 -0.9469  2.5777
16829SOL     OW55043   7.631   5.086   2.719  0.0544  0.4320 -0.1825
16829SOL    HW155044   7.605   5.153   2.783 -2.0600 -1.3792  0.9628
16829SOL    HW255045   7.607   5.124   2.634 -1.6843  0.9353  0.4893
16830SOL     OW55046   0.858   8.164   3.296  0.1562  0.1141  0.0721
16830SOL    HW155047   0.838   8.164   3.202 -1.0043  1.0064  0.3071
16830SOL    HW255048   0.951   8.141   3.300  0.5539  1.3467 -1.3777
16831SOL     OW55049   7.355   2.220   2.301 -0.7105 -0.0558 -0.0372
16831SOL    HW155050   7.341   2.296   2.244 -0.4931  0.8973  1.1492
16831SOL    HW255051   7.311   2.242   2.383 -2.3218 -2.0459 -0.2927
16832SOL     OW55052   3.304   9.652   9.196 -0.6721 -0.2578 -0.1282
16832SOL    HW155053   3.228   9.692   9.155 -1.3970  0.1751  1.5692
16832SOL    HW255054   3.319   9.703   9.275  2.1506  0.4596 -0.9762
16833SOL     OW55055   8.511   3.299   0.962  0.2664 -0.5239 -0.4272
16833SOL    HW155056   8.570   3.260   0.898  0.4151  0.8181 -1.1466
16833SOL    HW255057   8.567   3.358   1.013  0.7511 -3.3812  2.7367
16834SOL     OW55058   2.132   3.682   3.443  0.0014 -0.0737  0.2649
16834SOL    HW155059   2.189   3.657   3.516 -0.3544 -0.9043  0.2591
16834SOL    HW255060   2.150   3.618   3.375 -0.3879  0.1214 -0.0235
16835SOL     OW55061   4.810   5.929   2.257 -0.2295  0.2225 -0.0847
16835SOL    HW155062   4.826   5.836   2.242  0.9823  0.5435 -0.9436
16835SOL    HW255063   4.880   5.974   2.209  0.1744  1.5234  1.6148
16836SOL     OW55064   3.088   9.314   4.634  0.1969 -0.1635 -0.0962
16836SOL    HW155065   3.062   9.306   4.542 -0.7984  0.2349  0.1306
16836SOL    HW255066   3.037   9.247   4.679  1.6685 -1.2551  0.0031
16837SOL     OW55067   8.846   2.639   4.951  0.7128  0.4093 -0.4814
16837SOL    HW155068   8.841   2.544   4.942 -2.1737  0.2385  1.4847
16837SOL    HW255069   8.849   2.671   4.861 -1.0802 -1.5127 -1.3109
16838SOL     OW55070   0.148   3.440   6.730 -0.1174  0.5424  0.1679
16838SOL    HW155071   0.241   3.463   6.721 -0.1017  0.5345  0.3017
16838SOL    HW255072   0.105   3.483   6.657  0.5751 -2.8660 -2.4731
16839SOL     OW55073   2.028   5.984   3.952 -0.6327  0.4285 -0.0247
16839SOL    HW155074   2.027   6.022   3.864 -0.0978  1.5916  0.4588
16839SOL    HW255075   2.078   5.903   3.942  0.5436  1.1927 -0.5504
16840SOL     OW55076   9.687   7.119   5.593 -0.4546  0.2835 -0.0052
16840SOL    HW155077   9.687   7.185   5.663  1.1723 -1.1350  1.4191
16840SOL    HW255078   9.759   7.061   5.615 -1.7574 -1.9392 -1.2690
16841SOL     OW55079   3.659   6.274   6.944  0.3574 -0.6734 -0.0023
16841SOL    HW155080   3.701   6.280   7.029  0.2056 -1.4020  0.1268
16841SOL    HW255081   3.731   6.276   6.881  0.5083 -0.7152  0.1691
16842SOL     OW55082  11.926   2.150   7.934  0.0608 -0.2983 -0.1716
16842SOL    HW155083  11.987   2.126   7.865  0.3691 -1.6449  0.5441
16842SOL    HW255084  11.842   2.112   7.906 -0.4239  1.3084 -1.0151
16843SOL     OW55085   9.968   6.143   5.351 -0.2381  0.2659  0.2292
16843SOL    HW155086  10.004   6.061   5.386 -0.1990 -0.0974 -0.6470
16843SOL    HW255087   9.921   6.181   5.426 -2.1399 -1.6354  0.1411
16844SOL     OW55088   1.227   9.570   7.062 -0.2191 -0.1269  0.1516
16844SOL    HW155089   1.244   9.539   7.151 -3.7745  2.1613  1.8750
16844SOL    HW255090   1.147   9.524   7.035 -0.3823  0.7567 -0.9642
16845SOL     OW55091  10.470   9.845   5.455  0.1957  0.0603 -0.6866
16845SOL    HW155092  10.519   9.773   5.494  0.4337  0.4884 -0.1734
16845SOL    HW255093  10.380   9.814   5.451 -0.2627  0.7617  2.2202
16846SOL     OW55094   0.364   6.821  11.602  0.2154  0.4574  0.4329
16846SOL    HW155095   0.363   6.897  11.543  2.5477  0.1831 -0.0540
16846SOL    HW255096   0.364   6.858  11.690  1.6788  1.0885  0.1974
16847SOL     OW55097   8.406  11.529   6.163  0.2726 -0.5822  0.3266
16847SOL    HW155098   8.393  11.576   6.245 -0.7958 -1.2066  0.5341
16847SOL    HW255099   8.318  11.500   6.138  0.5630 -0.2589 -1.1236
16848SOL     OW55100   5.746   9.387   2.923 -0.0961  0.8351 -0.0013
16848SOL    HW155101   5.727   9.320   2.857  1.5768 -1.2300  1.5059
16848SOL    HW255102   5.810   9.347   2.981  0.6975  3.6369  1.2281
16849SOL     OW55103   8.793   0.300   5.152 -0.7976  0.1003 -0.5633
16849SOL    HW155104   8.757   0.389   5.159 -1.2459 -0.1914  1.2756
16849SOL    HW255105   8.887   0.313   5.152 -0.7953  0.5105  1.9755
16850SOL     OW55106   5.150   0.261   3.262  0.7414  0.0940 -0.1738
16850SOL    HW155107   5.209   0.217   3.323 -0.9152 -1.6679  0.2481
16850SOL    HW255108   5.168   0.354   3.273  0.2824 -0.1227  3.2607
16851SOL     OW55109  10.549   1.194   5.513  0.0148  0.6779 -0.2127
16851SOL    HW155110  10.490   1.131   5.472  1.5344 -0.3961 -0.8481
16851SOL    HW255111  10.585   1.244   5.440  0.5975  0.6755  0.0644
16852SOL     OW55112  10.351   3.717   5.361  0.8423 -0.0779  0.4243
16852SOL    HW155113  10.320   3.768   5.435 -0.6705 -1.8407  1.0805
16852SOL    HW255114  10.422   3.663   5.397  0.9579 -0.0302  0.2700
16853SOL     OW55115   0.712   3.191   5.216  0.0429  0.4439 -0.1820
16853SOL    HW155116   0.794   3.215   5.258 -0.4806 -2.1512  2.7341
16853SOL    HW255117   0.665   3.140   5.283 -2.6806 -0.6451 -2.6940
16854SOL     OW55118   9.426   1.521   0.597 -0.3173 -0.0996 -0.0212
16854SOL    HW155119   9.395   1.509   0.686 -0.3619  0.4396  0.0373
16854SOL    HW255120   9.471   1.439   0.576  0.0690 -0.0599  0.6474
16855SOL     OW55121   4.773   5.046   3.457 -0.0810 -0.0919  0.1983
16855SOL    HW155122   4.777   5.140   3.438 -0.7941 -0.1120 -0.0704
16855SOL    HW255123   4.695   5.036   3.511 -0.2372 -0.5850 -0.1147
16856SOL     OW55124   9.701   9.409  10.201  0.2978  0.0313 -0.1562
16856SOL    HW155125   9.794   9.392  10.214  0.2847  1.0110  1.5591
16856SOL    HW255126   9.696   9.450  10.114  1.4551 -0.0723 -0.2872
16857SOL     OW55127  11.413  10.677  10.418  0.0374  0.2782  0.2285
16857SOL    HW155128  11.322  10.650  10.408 -0.4446  0.5204  2.9983
16857SOL    HW255129  11.419  10.759  10.369 -2.2887  2.1053  2.6498
16858SOL     OW55130   8.082  10.125   5.083 -0.4661 -0.1939 -0.2315
16858SOL    HW155131   8.143  10.197   5.066 -0.2885 -0.2689  0.0922
16858SOL    HW255132   8.135  10.059   5.127 -1.1929  0.5013  1.7851
16859SOL     OW55133   1.809  11.837   1.370  0.5031 -0.3184 -0.2651
16859SOL    HW155134   1.784  11.848   1.278  1.4191 -1.5998 -0.6954
16859SOL    HW255135   1.857  11.917   1.392  0.3585 -0.0467 -0.9206
16860SOL     OW55136   2.975   3.685  11.706  0.5225 -0.5796 -0.6255
16860SOL    HW155137   3.053   3.694  11.761  0.1525 -1.9409  0.1945
16860SOL    HW255138   2.946   3.775  11.691  1.0913 -0.1214  0.7765
16861SOL     OW55139   4.089   8.394   0.327 -0.0736 -0.6057 -0.5557
16861SOL    HW155140   4.013   8.356   0.284 -2.3030  2.2404  0.4882
16861SOL    HW255141   4.120   8.461   0.266  0.8322 -0.8804 -0.4181
16862SOL     OW55142  11.972   2.822   3.176  0.2129 -0.0731 -0.3606
16862SOL    HW155143  11.943   2.732   3.162  1.1533 -0.3581 -0.5827
16862SOL    HW255144  11.892   2.873   3.182 -0.3565 -1.0319  0.5134
16863SOL     OW55145  10.738   5.976  11.199 -0.5667 -0.1522  0.0138
16863SOL    HW155146  10.813   5.954  11.253 -0.0855 -1.4702 -1.1336
16863SOL    HW255147  10.760   6.062  11.161  0.6737 -0.7887 -0.7878
16864SOL     OW55148   4.738   1.015   5.867 -0.0314  0.4538  0.3411
16864SOL    HW155149   4.733   1.103   5.904  0.8217  1.2249 -1.2778
16864SOL    HW255150   4.682   1.018   5.789 -0.8385 -0.7732  0.8363
16865SOL     OW55151   1.241   3.909  11.338  0.1183 -0.1837 -0.0506
16865SOL    HW155152   1.239   3.883  11.246 -1.2277 -0.3655  0.0118
16865SOL    HW255153   1.281   3.996  11.337  0.5255 -0.3676 -0.7484
16866SOL     OW55154  11.014   5.598  11.162  0.0153 -0.1246 -0.1500
16866SOL    HW155155  10.980   5.509  11.155  0.1824 -0.1386 -0.8433
16866SOL    HW255156  10.994   5.639  11.078  2.0421 -0.2614 -0.7399
16867SOL     OW55157  11.653   8.686   3.297 -0.7798 -0.5005 -0.0756
16867SOL    HW155158  11.700   8.604   3.280  0.6130 -0.0444  1.3942
16867SOL    HW255159  11.583   8.661   3.357 -0.3732 -0.6325  0.3518
16868SOL     OW55160   5.866   7.864   2.801  0.6332  0.4075  0.0037
16868SOL    HW155161   5.931   7.875   2.870  0.0888  1.6713  0.3491
16868SOL    HW255162   5.884   7.934   2.739  0.9854 -0.5924 -1.0515
16869SOL     OW55163   8.810   3.850   4.090  0.1092  0.6149  0.7801
16869SOL    HW155164   8.901   3.867   4.116  0.3618 -1.7872  1.7455
16869SOL    HW255165   8.808   3.873   3.997  2.6790 -2.2107 -0.1600
16870SOL     OW55166  10.453   9.985   4.685  0.6593 -0.2320  0.2542
16870SOL    HW155167  10.412   9.901   4.663  0.1910 -0.7832  2.8350
16870SOL    HW255168  10.486  10.019   4.602 -2.7096 -0.9948 -1.5446
16871SOL     OW55169   7.866  10.304   8.709  0.0396 -0.1879  0.4033
16871SOL    HW155170   7.943  10.247   8.721 -0.0135 -0.3946 -0.1802
16871SOL    HW255171   7.890  10.361   8.637 -1.2894 -1.9844 -1.6013
16872SOL     OW55172  10.069  11.536   7.339 -0.2378 -0.0012 -0.3341
16872SOL    HW155173   9.982  11.574   7.329 -1.0475 -1.4114  0.9227
16872SOL    HW255174  10.053  11.442   7.349  1.2888 -0.1451  1.2429
16873SOL     OW55175   5.948  10.381  11.612 -0.4200 -0.0136  0.0820
16873SOL    HW155176   5.988  10.436  11.544  0.3274  0.9721  1.2883
16873SOL    HW255177   6.006  10.306  11.619 -0.0100  0.3169  0.2529
16874SOL     OW55178   1.665   1.251   0.031  0.5194  0.2934 -0.0866
16874SOL    HW155179   1.646   1.336  -0.008  0.9831  0.3208 -0.2618
16874SOL    HW255180   1.754   1.260   0.066  1.4150 -0.7267 -1.9237
16875SOL     OW55181   4.398   7.271   7.423 -0.2738  0.0391 -0.4364
16875SOL    HW155182   4.370   7.265   7.514 -0.2101 -0.4336 -0.4461
16875SOL    HW255183   4.331   7.223   7.374 -0.3242  0.3160 -0.6429
16876SOL     OW55184   5.034   6.236   8.412  0.5790 -0.1950  0.0844
16876SOL    HW155185   5.079   6.214   8.330  0.3834 -0.6197  0.0902
16876SOL    HW255186   5.024   6.152   8.457 -1.3716 -0.3312 -0.5083
16877SOL     OW55187   1.547   9.740  11.972  0.6237  0.2592  0.5278
16877SOL    HW155188   1.608   9.804  12.010 -0.4268  1.7902 -0.2706
16877SOL    HW255189   1.595   9.703  11.898  0.9735  0.6863  0.5330
16878SOL     OW55190   5.755  11.143   3.839  0.8808 -0.0902  0.2043
16878SOL    HW155191   5.787  11.219   3.790  1.2354 -0.2145  0.2395
16878SOL    HW255192   5.828  11.118   3.895  0.3688  0.2452  1.0314
16879SOL     OW55193   3.305   5.541   6.840 -0.9292  0.1411 -0.3260
16879SOL    HW155194   3.336   5.487   6.913  0.2855 -1.3551 -1.8444
16879SOL    HW255195   3.210   5.546   6.852 -0.9794 -1.7004  0.3346
16880SOL     OW55196  12.024   7.262   6.495  0.0479  0.0984 -0.1069
16880SOL    HW155197  11.978   7.313   6.562  0.7723 -1.4729  1.6779
16880SOL    HW255198  12.052   7.183   6.541  3.6934  0.5126 -1.3202
16881SOL     OW55199   3.058  12.123   0.494  0.3091 -0.0723  0.0064
16881SOL    HW155200   3.051  12.028   0.499 -1.7872 -0.0596 -1.6708
16881SOL    HW255201   2.994  12.155   0.558 -1.8606  0.1137 -2.1071
16882SOL     OW55202   3.309   9.610   2.033 -0.3531  0.1870  0.7135
16882SOL    HW155203   3.299   9.650   1.947  2.1734 -0.4616  0.0476
16882SOL    HW255204   3.268   9.523   2.025 -0.4816  0.2869  0.3053
16883SOL     OW55205   6.945   3.985  10.170  0.0871  0.2234 -0.3283
16883SOL    HW155206   6.888   3.915  10.138  0.4963 -0.4256  0.3363
16883SOL    HW255207   7.027   3.973  10.123 -0.6989  2.0071 -2.3423
16884SOL     OW55208   0.089   3.650  11.951 -0.1127  0.0730  0.2458
16884SOL    HW155209   0.025   3.719  11.936  0.3920  0.0374 -2.5909
16884SOL    HW255210   0.051   3.573  11.908  1.1881 -0.2972 -0.2785
16885SOL     OW55211   7.281   3.333  11.444  0.2489  0.3443  0.0893
16885SOL    HW155212   7.360   3.283  11.464 -0.1595  0.0785  1.1622
16885SOL    HW255213   7.306   3.393  11.374  0.9381 -0.8773 -0.7237
16886SOL     OW55214   3.084   7.173   5.996  0.3440 -0.7660 -0.4659
16886SOL    HW155215   3.162   7.160   6.049 -0.1156  0.2694  0.5046
16886SOL    HW255216   3.103   7.252   5.945 -0.1431 -0.3834 -0.0622
16887SOL     OW55217   6.007   0.849   9.562 -0.5352  0.1466  0.3834
16887SOL    HW155218   6.006   0.927   9.507  0.5384  2.0366  2.8403
16887SOL    HW255219   5.924   0.852   9.610 -1.0349 -0.9457 -0.3686
16888SOL     OW55220   8.171   3.416   0.659  0.4842  0.1676  0.3411
16888SOL    HW155221   8.105   3.362   0.702 -0.2932  1.0388  0.2856
16888SOL    HW255222   8.191   3.371   0.577 -0.3223  0.0800  0.1905
16889SOL     OW55223   3.212   0.620   2.073 -0.1039 -0.1869  0.4237
16889SOL    HW155224   3.196   0.527   2.090  0.1452 -0.2324  0.4046
16889SOL    HW255225   3.306   0.626   2.055 -0.4564 -0.2247 -1.5733
16890SOL     OW55226   0.211   9.270   6.882 -0.6949  0.1618  0.4742
16890SOL    HW155227   0.154   9.275   6.805  0.0120 -2.0975 -0.2782
16890SOL    HW255228   0.267   9.347   6.875 -0.5788 -0.0365 -1.3633
16891SOL     OW55229   2.370   1.356   7.013  0.0086  0.5430  0.4749
16891SOL    HW155230   2.426   1.278   7.006 -1.1545 -0.5349  2.2772
16891SOL    HW255231   2.360   1.386   6.923  1.0225 -1.0170 -0.2080
16892SOL     OW55232  10.277  11.973   8.141 -0.0280  0.0273  0.0016
16892SOL    HW155233  10.265  11.985   8.047 -1.1196 -1.6884 -0.1290
16892SOL    HW255234  10.350  11.911   8.148  0.7011  0.9053  0.3372
16893SOL     OW55235   2.584   1.930   0.149  0.3296 -0.7346  0.3580
16893SOL    HW155236   2.617   1.978   0.226  0.3339  2.3169 -1.3986
16893SOL    HW255237   2.491   1.952   0.145  0.6591  0.5436 -1.3811
16894SOL     OW55238   9.646   2.510   7.921  0.1700  0.1295  0.3965
16894SOL    HW155239   9.661   2.426   7.965 -1.0783 -0.4732 -0.2558
16894SOL    HW255240   9.552   2.526   7.931  0.3864  1.4592  0.4922
16895SOL     OW55241   4.056  11.535   2.758 -0.6145 -0.2125 -0.4524
16895SOL    HW155242   4.019  11.613   2.718 -0.2519 -0.1375 -0.6529
16895SOL    HW255243   4.151  11.546   2.749 -0.5723 -1.2652 -1.6521
16896SOL     OW55244   7.891   9.557   1.334 -0.7599 -0.1727  0.5037
16896SOL    HW155245   7.881   9.630   1.273  2.1220 -0.0328  0.0882
16896SOL    HW255246   7.864   9.592   1.419 -1.7515  0.5826 -0.1017
16897SOL     OW55247   6.537   7.846   7.584  0.5106 -0.2397 -0.4158
16897SOL    HW155248   6.453   7.812   7.552  1.2924 -1.6903 -1.0303
16897SOL    HW255249   6.525   7.852   7.679 -0.1795 -0.7874 -0.4561
16898SOL     OW55250   4.594   0.947  10.449 -0.5425 -0.1921 -0.4912
16898SOL    HW155251   4.631   1.035  10.445 -0.1205 -0.3549 -0.2691
16898SOL    HW255252   4.664   0.890  10.416 -0.5455 -0.5132  0.0416
16899SOL     OW55253   2.844   9.918   6.311 -0.3976 -0.0581  0.4960
16899SOL    HW155254   2.825   9.979   6.240 -0.4054 -1.2408 -0.5662
16899SOL    HW255255   2.922   9.953   6.353 -0.3390  0.6267 -0.1598
16900SOL     OW55256   2.121   8.408   4.303  0.4375 -0.1853  0.1974
16900SOL    HW155257   2.141   8.397   4.396  1.9203  0.7676  0.0230
16900SOL    HW255258   2.042   8.355   4.289 -1.0758  1.2886  2.4511
16901SOL     OW55259   6.113  10.970   1.259 -0.0503  0.1431 -0.0181
16901SOL    HW155260   6.076  10.919   1.187 -2.1538  1.8659 -0.2648
16901SOL    HW255261   6.153  11.046   1.216 -1.7834  1.4519  0.5999
16902SOL     OW55262  11.579   9.009   0.652 -0.1712 -0.0341 -0.1383
16902SOL    HW155263  11.627   8.930   0.674 -1.8807 -1.2151 -0.5080
16902SOL    HW255264  11.642   9.061   0.601  1.0235 -1.0624  0.2289
16903SOL     OW55265   9.863   2.975  10.963 -0.0852  0.3309 -0.0259
16903SOL    HW155266   9.818   3.059  10.952 -2.6459 -1.0775 -1.2769
16903SOL    HW255267   9.937   2.980  10.903  0.6092  2.1312  0.8826
16904SOL     OW55268   5.097   7.508   7.592 -0.2132 -0.3163  0.3286
16904SOL    HW155269   5.113   7.564   7.668  0.0137  1.3115 -0.8582
16904SOL    HW255270   5.181   7.468   7.573 -0.4041 -1.1828  1.2618
16905SOL     OW55271  10.229   1.324   5.817 -0.4425  0.1631 -0.4692
16905SOL    HW155272  10.161   1.331   5.750  0.5439  0.7114 -1.4448
16905SOL    HW255273  10.183   1.342   5.899 -2.3788 -3.5792 -0.5071
16906SOL     OW55274   8.096   1.078   4.327 -1.1028  0.1900 -0.4402
16906SOL    HW155275   8.043   0.998   4.316  0.1226 -0.4873 -1.6216
16906SOL    HW255276   8.148   1.083   4.248  1.2600  0.3363  1.0348
16907SOL     OW55277   7.573   6.398   2.373 -0.3745 -0.6522 -0.7230
16907SOL    HW155278   7.632   6.331   2.340  1.2614  0.6893 -0.7064
16907SOL    HW255279   7.593   6.476   2.319 -1.8756 -0.0403 -0.4555
16908SOL     OW55280   3.482   3.496   5.525 -0.0012  0.3938 -0.2710
16908SOL    HW155281   3.542   3.447   5.582 -0.4423  0.2962  0.1116
16908SOL    HW255282   3.432   3.428   5.479 -1.1174  0.4583  0.7906
16909SOL     OW55283   9.882  12.050  11.437 -0.9368  0.4874 -0.0539
16909SOL    HW155284   9.834  11.972  11.409  0.6453 -0.8072  0.6606
16909SOL    HW255285   9.876  12.048  11.533  0.7183  0.1346  0.0659
16910SOL     OW55286   3.013   9.073   7.954 -0.3953 -0.5925  0.3408
16910SOL    HW155287   2.963   9.140   7.907  2.2942  1.6673  0.4278
16910SOL    HW255288   3.026   9.003   7.889  0.4945  1.0135 -1.3032
16911SOL     OW55289   8.684   3.192   7.810 -0.1932 -0.0628 -0.2349
16911SOL    HW155290   8.600   3.231   7.834 -1.1824  1.2208 -4.7886
16911SOL    HW255291   8.749   3.252   7.845 -1.3754  1.0167  0.1888
16912SOL     OW55292  11.534   4.666  11.971  0.2934  0.2629 -0.3024
16912SOL    HW155293  11.473   4.631  11.906 -1.1212  1.8530  0.1021
16912SOL    HW255294  11.479   4.717  12.030  1.5891 -0.8283  1.9724
16913SOL     OW55295  11.308   7.812  10.998 -0.4422  0.2907  0.0702
16913SOL    HW155296  11.362   7.888  10.976 -0.3481  0.0630 -0.5217
16913SOL    HW255297  11.264   7.836  11.079  0.6802  0.4086  0.6530
16914SOL     OW55298   9.648  10.913   4.910  0.6085  0.3947  0.3155
16914SOL    HW155299   9.580  10.848   4.894  0.9596  0.1291 -0.1357
16914SOL    HW255300   9.608  10.997   4.886  0.1601  0.3483  0.8908
16915SOL     OW55301  10.579  11.748   9.479  0.0888 -0.6048  0.6382
16915SOL    HW155302  10.630  11.829   9.479  2.5975 -2.0633 -1.3251
16915SOL    HW255303  10.487  11.778   9.480  0.8713  2.2815 -1.0213
16916SOL     OW55304   2.681   7.522   5.306  0.0222 -0.1572 -0.1670
16916SOL    HW155305   2.587   7.538   5.310  0.4497  2.7730  0.1110
16916SOL    HW255306   2.698   7.499   5.215 -1.0511 -1.7400 -0.0019
16917SOL     OW55307   2.628   5.261   7.793  0.0932  0.0721  0.0500
16917SOL    HW155308   2.705   5.234   7.743  0.0852  0.1784 -0.0189
16917SOL    HW255309   2.632   5.356   7.794  0.4551  0.0583  0.8119
16918SOL     OW55310   3.656   8.874   1.530  0.3974 -0.8426  0.3277
16918SOL    HW155311   3.561   8.884   1.528  0.3920 -0.8240 -1.7779
16918SOL    HW255312   3.688   8.958   1.565 -0.3236 -0.6221  0.4859
16919SOL     OW55313   9.283   4.502   1.469 -0.0067  0.2690  0.1564
16919SOL    HW155314   9.365   4.553   1.465 -0.3801  0.9303  0.6924
16919SOL    HW255315   9.216   4.564   1.441 -0.4256 -0.0500  0.4560
16920SOL     OW55316   3.869   1.562   7.330 -0.3060 -0.2565  0.7480
16920SOL    HW155317   3.813   1.559   7.253  1.5358 -2.9507 -0.6954
16920SOL    HW255318   3.828   1.501   7.392  0.2495 -1.2082  0.2158
16921SOL     OW55319   7.061   7.844   1.794  0.0187 -0.5093 -0.9625
16921SOL    HW155320   7.062   7.776   1.727  0.4565 -0.5304 -0.9381
16921SOL    HW255321   7.007   7.808   1.864  1.2201 -1.3459 -0.4278
16922SOL     OW55322   0.725  11.066   4.065 -0.0493  0.3099  0.2146
16922SOL    HW155323   0.693  11.024   4.145 -1.9203 -0.6219 -0.9376
16922SOL    HW255324   0.705  11.003   3.995  0.5322  1.5431 -1.1185
16923SOL     OW55325   2.811   7.043   8.607 -0.0910 -0.4036  0.2602
16923SOL    HW155326   2.870   7.104   8.651  1.7528 -1.6619 -0.3048
16923SOL    HW255327   2.822   6.960   8.654 -0.5003 -0.9576 -0.5819
16924SOL     OW55328   2.904   7.351   7.883  0.0620  0.6685 -0.0489
16924SOL    HW155329   2.899   7.265   7.925  0.0332  1.5989  1.9726
16924SOL    HW255330   2.960   7.338   7.807 -0.0713 -1.1564  0.1198
16925SOL     OW55331   1.462   2.941   1.670 -1.0890 -0.6220 -0.0286
16925SOL    HW155332   1.424   2.892   1.743 -1.6194 -0.2126 -0.0239
16925SOL    HW255333   1.538   2.889   1.644  1.1010  0.8022  2.9174
16926SOL     OW55334   3.894   6.456   7.628 -0.1903  0.1210 -0.8810
16926SOL    HW155335   3.882   6.506   7.709 -0.3873 -0.3577 -0.6110
16926SOL    HW255336   3.840   6.501   7.563 -1.9722 -0.8714 -0.1636
16927SOL     OW55337   6.259   2.728   3.721  0.0870 -0.4347  0.4508
16927SOL    HW155338   6.310   2.737   3.802  1.7629 -2.1679 -0.3487
16927SOL    HW255339   6.202   2.653   3.737  0.7413 -1.0617 -0.1122
16928SOL     OW55340   7.108  10.910   5.138 -0.0739  0.3192  0.5739
16928SOL    HW155341   7.103  10.943   5.228 -1.2900  0.8521  0.3230
16928SOL    HW255342   7.077  10.982   5.084  1.8726  0.4859 -0.4211
16929SOL     OW55343  10.945   8.441   2.951 -0.1082  0.2854 -0.1708
16929SOL    HW155344  11.000   8.370   2.985 -0.2012 -0.3508 -1.3059
16929SOL    HW255345  10.857   8.421   2.984 -0.1576 -0.1998 -0.5922
16930SOL     OW55346   5.422   6.120   9.520  0.2792 -0.0214 -0.3359
16930SOL    HW155347   5.472   6.113   9.438 -1.0974 -1.4949 -1.0950
16930SOL    HW255348   5.471   6.185   9.572  0.4761  1.9705 -2.8173
16931SOL     OW55349   2.133   0.710   9.241 -0.0797  0.2974  0.3815
16931SOL    HW155350   2.060   0.771   9.253 -0.4741 -0.4559  1.9178
16931SOL    HW255351   2.202   0.765   9.202 -0.0750  2.0018  2.6031
16932SOL     OW55352   3.985   0.986   5.052 -0.1525 -0.1385  0.1078
16932SOL    HW155353   4.027   0.912   5.096  1.6472  0.3369 -0.7469
16932SOL    HW255354   3.979   1.054   5.120  1.4263  0.1442 -0.0111
16933SOL     OW55355   1.918   7.530   3.598  0.7467 -0.0038 -0.6610
16933SOL    HW155356   1.874   7.611   3.570 -1.1892 -1.1822 -1.1888
16933SOL    HW255357   1.944   7.488   3.516 -0.0602 -0.8605 -0.4897
16934SOL     OW55358  11.496   5.338   8.083 -0.0155 -0.0528  0.1731
16934SOL    HW155359  11.509   5.420   8.131  2.0153  0.0598 -0.4737
16934SOL    HW255360  11.429   5.359   8.019  0.7354  1.2634 -0.2371
16935SOL     OW55361   2.180  11.029   4.547  0.1999  0.7174  0.5781
16935SOL    HW155362   2.229  10.991   4.475 -2.9171 -0.9991 -0.8066
16935SOL    HW255363   2.232  11.009   4.625  1.4051 -1.5192 -0.7136
16936SOL     OW55364   8.999  10.510  11.755 -0.2811  0.4861  0.1533
16936SOL    HW155365   8.972  10.590  11.708 -0.4053  1.1612  1.3383
16936SOL    HW255366   9.090  10.526  11.779  0.0245 -0.1918 -0.5347
16937SOL     OW55367   3.358   7.202   8.678 -0.1089 -0.2428 -0.1782
16937SOL    HW155368   3.364   7.131   8.615  1.8152 -0.2517 -0.0376
16937SOL    HW255369   3.317   7.274   8.630 -0.3125 -0.8170 -0.8760
16938SOL     OW55370   7.772   7.927   8.363 -0.3483 -0.0427 -0.1610
16938SOL    HW155371   7.756   7.984   8.288 -0.0066  0.1992 -0.0502
16938SOL    HW255372   7.863   7.899   8.352 -1.3714 -3.2301 -2.0620
16939SOL     OW55373   5.011  10.809   5.380  0.6280 -0.1600  0.2682
16939SOL    HW155374   5.101  10.777   5.380  1.2273  1.4400  0.3058
16939SOL    HW255375   4.960  10.737   5.416  1.1992 -2.8372 -3.6627
16940SOL     OW55376   7.605  10.018  12.114  0.1324  0.1154 -0.4324
16940SOL    HW155377   7.566  10.105  12.105 -0.7839 -0.2691 -0.3101
16940SOL    HW255378   7.627   9.992  12.025  0.0727  0.3221 -0.5089
16941SOL     OW55379   7.191   2.946   5.265  0.0548  0.1178 -0.1106
16941SOL    HW155380   7.227   2.891   5.334 -0.6568 -0.5776 -0.2794
16941SOL    HW255381   7.096   2.931   5.269 -0.1179  1.0624 -0.3928
16942SOL     OW55382   6.635   7.232   2.953  0.4702  0.1390 -0.0907
16942SOL    HW155383   6.634   7.157   3.013  2.3139  0.2684  0.1732
16942SOL    HW255384   6.726   7.262   2.955 -0.1345  2.0998 -0.5593
16943SOL     OW55385  11.030   9.911   7.334 -0.2350  0.1851 -0.4164
16943SOL    HW155386  11.091   9.924   7.261  0.2549 -1.0477 -0.2508
16943SOL    HW255387  10.978   9.835   7.308 -0.7234  0.3351  0.1016
16944SOL     OW55388   2.412   9.791   9.371  0.3997 -0.0934  0.2805
16944SOL    HW155389   2.441   9.777   9.462  0.6018  0.5288  0.3119
16944SOL    HW255390   2.488   9.767   9.318 -0.0279 -1.4054  0.2163
16945SOL     OW55391   8.746   3.032   8.066 -0.1143  0.2170 -0.2110
16945SOL    HW155392   8.808   2.964   8.039 -1.8378 -0.5549 -2.5553
16945SOL    HW255393   8.707   3.063   7.984 -0.9507  2.5323  0.9733
16946SOL     OW55394  10.608   1.421  11.291  0.5120 -1.2902 -0.1468
16946SOL    HW155395  10.613   1.516  11.276  0.0899 -1.2254  0.1103
16946SOL    HW255396  10.688   1.386  11.252  2.3614 -0.4772  2.6157
16947SOL     OW55397   3.535  10.357   3.205  0.5620 -0.3796 -0.1440
16947SOL    HW155398   3.502  10.337   3.292  1.8105  0.2995  0.5162
16947SOL    HW255399   3.482  10.430   3.174 -0.6902 -1.3978 -0.4837
16948SOL     OW55400   5.843   4.091   8.087 -0.4971  0.1152 -0.2214
16948SOL    HW155401   5.784   4.109   8.014  0.9000 -0.8633 -1.6505
16948SOL    HW255402   5.874   4.178   8.114 -2.0726  0.5978  0.1740
16949SOL     OW55403   9.372  11.009   3.915 -0.4339 -0.2235  0.3774
16949SOL    HW155404   9.449  11.033   3.864 -0.2548 -1.1008  0.2226
16949SOL    HW255405   9.330  10.940   3.864 -1.4289  0.3601  0.3716
16950SOL     OW55406   0.636   3.677   4.892 -0.3188 -0.7783 -0.0948
16950SOL    HW155407   0.605   3.699   4.980 -0.8399 -1.8210 -0.0077
16950SOL    HW255408   0.693   3.602   4.904  0.4275 -0.2911 -0.5372
16951SOL     OW55409   8.206   5.289   7.469  0.2761  0.1830  0.0715
16951SOL    HW155410   8.159   5.359   7.423  1.1801  0.5282 -0.3456
16951SOL    HW255411   8.225   5.224   7.401  0.8806  0.2987  0.1285
16952SOL     OW55412   2.445   8.641   2.713 -0.1066  0.0706 -0.0710
16952SOL    HW155413   2.537   8.628   2.733 -0.1203 -0.1819 -0.1653
16952SOL    HW255414   2.445   8.701   2.638 -0.0288  0.2644  0.0839
16953SOL     OW55415   3.236   6.372   6.166 -0.6595  0.2686 -0.1472
16953SOL    HW155416   3.219   6.285   6.203  1.0819  0.3497  0.9439
16953SOL    HW255417   3.156   6.422   6.185 -0.9574 -0.5532  0.8907
16954SOL     OW55418   8.371   6.921   3.037 -0.3165 -0.0047  0.2491
16954SOL    HW155419   8.415   6.848   2.994  0.6123  1.8397 -2.1915
16954SOL    HW255420   8.278   6.901   3.027 -0.1090 -0.3018 -1.6037
16955SOL     OW55421   2.810   7.633   4.051  0.1928 -0.0587  0.1078
16955SOL    HW155422   2.896   7.673   4.040 -0.2729  1.2088  0.9056
16955SOL    HW255423   2.749   7.707   4.059 -1.3703 -0.8258 -2.9837
16956SOL     OW55424   2.625   3.640   4.710  0.1080 -0.0935 -0.3168
16956SOL    HW155425   2.537   3.609   4.732 -0.3049  1.5212  0.4861
16956SOL    HW255426   2.684   3.582   4.759 -0.5626 -0.4895  0.0328
16957SOL     OW55427   2.429   1.989   3.700  0.0221 -0.2352 -0.0206
16957SOL    HW155428   2.429   2.055   3.630  0.1772  0.3761  0.5445
16957SOL    HW255429   2.515   1.998   3.742 -0.2349 -0.2827  0.5309
16958SOL     OW55430   3.769   4.708   3.367 -0.1748 -0.1778 -0.6102
16958SOL    HW155431   3.789   4.624   3.410 -1.0462  0.3247  0.8415
16958SOL    HW255432   3.715   4.755   3.430 -0.6956  1.0117 -1.8936
16959SOL     OW55433   7.798  10.282   0.311  0.2138  0.2980  0.3291
16959SOL    HW155434   7.855  10.211   0.340  1.5362  0.3470 -1.9154
16959SOL    HW255435   7.728  10.239   0.262 -0.8792  0.3576  1.7710
16960SOL     OW55436   3.951   7.257  10.838  0.2384 -0.3385  0.0321
16960SOL    HW155437   3.900   7.301  10.770  0.8213  0.2269 -0.0461
16960SOL    HW255438   3.959   7.323  10.907 -1.7975 -1.4219  1.4287
16961SOL     OW55439  10.563   8.928   5.274 -0.2521  0.3116 -0.1950
16961SOL    HW155440  10.502   8.913   5.201 -1.7873  0.1181  1.0760
16961SOL    HW255441  10.551   9.021   5.296  0.5461  0.4850 -0.4755
16962SOL     OW55442  11.919  11.848   0.298 -0.0599 -0.1088  0.3080
16962SOL    HW155443  11.957  11.931   0.269 -0.4564 -0.5446 -1.5920
16962SOL    HW255444  11.995  11.792   0.313  0.2048  0.5244  1.4741
16963SOL     OW55445   8.674   8.698   2.396 -0.2371  0.5555  0.1827
16963SOL    HW155446   8.621   8.763   2.351 -0.5577 -0.2730 -0.6842
16963SOL    HW255447   8.724   8.656   2.326 -1.2346 -1.2124  0.4696
16964SOL     OW55448  10.165   4.307  11.794 -0.1667  0.1351 -0.2288
16964SOL    HW155449  10.143   4.346  11.709 -0.0234 -0.6147 -0.6232
16964SOL    HW255450  10.083   4.268  11.825 -0.2349  0.4686  0.0088
16965SOL     OW55451   4.364   0.845   9.047 -0.4629  0.7164  0.6674
16965SOL    HW155452   4.423   0.916   9.020 -2.1180  1.5024 -1.0883
16965SOL    HW255453   4.369   0.845   9.143  1.7963  1.2091  0.6137
16966SOL     OW55454   7.672  11.120  11.567 -0.5640 -0.0066  0.0126
16966SOL    HW155455   7.734  11.105  11.496 -0.8923  0.0451 -0.2862
16966SOL    HW255456   7.720  11.093  11.646  0.3065  1.2554 -0.0591
16967SOL     OW55457   7.776  10.496   3.893  0.2721  0.1092  0.5292
16967SOL    HW155458   7.788  10.482   3.799  0.2138  0.6201  0.4409
16967SOL    HW255459   7.706  10.435   3.918  0.3987 -0.1432  0.2756
16968SOL     OW55460   4.221   1.708   0.343  0.2608  0.1780  0.4502
16968SOL    HW155461   4.311   1.684   0.366  0.0961  0.0508  0.9634
16968SOL    HW255462   4.179   1.728   0.427 -0.4831 -0.7622  0.3207
16969SOL     OW55463   9.021   3.765   5.859 -0.2577 -0.1293 -0.4462
16969SOL    HW155464   9.002   3.681   5.818  0.5887  0.2484 -1.6559
16969SOL    HW255465   8.954   3.774   5.927  1.4167 -3.1827  1.8268
16970SOL     OW55466   2.345   5.244   2.011 -0.7334  0.0251  0.4231
16970SOL    HW155467   2.314   5.153   2.003  0.1287 -0.1658 -1.1549
16970SOL    HW255468   2.362   5.255   2.104 -2.0976 -1.0101  0.8303
16971SOL     OW55469   8.115   3.687   5.204 -0.7305  0.0178  0.6184
16971SOL    HW155470   8.065   3.737   5.140 -1.3072  0.4188  1.3591
16971SOL    HW255471   8.144   3.609   5.158 -2.6702 -0.5993  0.3601
16972SOL     OW55472   6.841   1.913   3.077  0.6724  0.4286 -0.8132
16972SOL    HW155473   6.814   1.985   3.019  0.5483  0.1798 -1.0667
16972SOL    HW255474   6.924   1.883   3.039  0.8701  0.6253 -0.5394
16973SOL     OW55475  10.404  10.298   8.023  0.5710 -0.2313  0.2558
16973SOL    HW155476  10.321  10.341   8.044  0.2743 -0.8778  0.4349
16973SOL    HW255477  10.444  10.354   7.957 -0.6514 -0.6297 -0.8601
16974SOL     OW55478   2.725  10.474   6.098  0.4787 -0.1203  0.4027
16974SOL    HW155479   2.730  10.421   6.019 -0.1748  1.5239 -0.8056
16974SOL    HW255480   2.675  10.421   6.160 -0.4836 -0.7582 -0.8848
16975SOL     OW55481   0.913   9.159   3.839 -0.0971 -0.4427  0.0067
16975SOL    HW155482   0.892   9.252   3.843 -0.9434 -0.4994 -2.0234
16975SOL    HW255483   0.944   9.138   3.927  0.3715  1.8008  0.4429
16976SOL     OW55484   5.038  10.357   5.734 -0.1568 -0.6433 -0.3203
16976SOL    HW155485   5.104  10.402   5.787  1.1963 -2.1725 -0.6191
16976SOL    HW255486   5.002  10.426   5.677 -1.1728  0.8836  2.0311
16977SOL     OW55487   9.700   9.852   8.024  0.2639  0.0445 -0.6222
16977SOL    HW155488   9.670   9.908   8.095 -1.3154  0.4657 -1.5923
16977SOL    HW255489   9.699   9.764   8.062  1.2800  0.4578  0.4346
16978SOL     OW55490   6.778   9.783   9.870  0.2338  0.5846 -0.6926
16978SOL    HW155491   6.769   9.843   9.944 -1.8306 -0.1567 -0.2861
16978SOL    HW255492   6.823   9.707   9.906 -1.2848 -0.0284  0.0200
16979SOL     OW55493  11.204   0.818   8.078 -0.3743  0.0609 -0.2965
16979SOL    HW155494  11.126   0.853   8.036 -1.1171 -1.2663 -0.1018
16979SOL    HW255495  11.170   0.753   8.141  0.8536 -0.1511  0.1767
16980SOL     OW55496   8.612   7.673   7.151  0.5186  0.0311 -0.8763
16980SOL    HW155497   8.535   7.673   7.208 -0.2302 -1.4762 -1.8252
16980SOL    HW255498   8.588   7.614   7.079  2.7565 -0.8639 -0.9478
16981SOL     OW55499  11.682   2.795   8.834  0.6927  0.7849  0.4472
16981SOL    HW155500  11.622   2.770   8.763  2.9449  0.1969 -1.3698
16981SOL    HW255501  11.734   2.716   8.849  1.2647  1.3865  1.7339
16982SOL     OW55502   1.598   9.699   6.388 -0.1961  0.0055  0.5082
16982SOL    HW155503   1.565   9.624   6.339  0.7812  0.1558 -0.4122
16982SOL    HW255504   1.533   9.713   6.457 -2.4605  0.7082 -1.6000
16983SOL     OW55505   0.437   6.261  11.053 -0.2056  0.2895 -0.4161
16983SOL    HW155506   0.520   6.215  11.058 -1.3687 -1.7867  1.1493
16983SOL    HW255507   0.444   6.331  11.119  0.5680  0.6644 -0.8815
16984SOL     OW55508   5.518   8.367   5.144  0.4098 -0.3614  0.1510
16984SOL    HW155509   5.609   8.370   5.115  0.1659  0.7550 -0.5382
16984SOL    HW255510   5.468   8.348   5.064 -0.0284 -0.2051  0.3856
16985SOL     OW55511   6.663   1.990  12.068 -0.5192 -0.0756 -0.5638
16985SOL    HW155512   6.634   2.067  12.116  0.5160  0.4831 -0.7892
16985SOL    HW255513   6.668   1.921  12.134  0.9122  0.6875  0.1884
16986SOL     OW55514   0.704   5.136   8.315  0.7001 -0.0267 -0.1956
16986SOL    HW155515   0.722   5.201   8.383  0.2186 -0.5485  0.4357
16986SOL    HW255516   0.618   5.100   8.337  1.2389 -1.3587 -0.1380
16987SOL     OW55517   0.965   7.982  11.413  0.6331  0.2707 -0.1908
16987SOL    HW155518   0.950   7.943  11.327 -2.3935  0.9805 -0.0708
16987SOL    HW255519   0.957   7.908  11.475 -0.8729  0.3351 -0.2795
16988SOL     OW55520   7.725   0.428   1.396  0.1123  0.5292 -0.5473
16988SOL    HW155521   7.707   0.425   1.302  1.3623  1.9667 -0.8601
16988SOL    HW255522   7.638   0.423   1.437 -0.4578  0.0426 -1.7666
16989SOL     OW55523  10.793   8.743   3.999  0.3715  0.1444 -0.2389
16989SOL    HW155524  10.789   8.703   3.912  0.3564 -0.4405  0.0275
16989SOL    HW255525  10.847   8.684   4.050  0.9751  0.8602 -0.0358
16990SOL     OW55526  11.386   3.558   4.642 -0.1849  0.5595  0.0156
16990SOL    HW155527  11.479   3.581   4.653 -0.4990  0.9324  2.5414
16990SOL    HW255528  11.340   3.641   4.653 -0.9120  0.0706  0.7180
16991SOL     OW55529   2.144   9.713   0.714 -0.5440 -0.1694 -0.1116
16991SOL    HW155530   2.134   9.619   0.725  0.3006 -0.4538 -1.5942
16991SOL    HW255531   2.232   9.725   0.677 -1.2155  1.0420 -1.4560
16992SOL     OW55532  11.623   8.902  10.165 -0.5626 -0.0608  0.0084
16992SOL    HW155533  11.530   8.925  10.173 -0.7314 -0.3665 -0.9843
16992SOL    HW255534  11.652   8.947  10.086  0.1964  0.2182  0.4438
16993SOL     OW55535   9.826   4.030  10.016 -0.0799  0.0980 -0.5335
16993SOL    HW155536   9.898   4.017  10.077 -1.2693  0.6698  1.0485
16993SOL    HW255537   9.856   4.100   9.958 -0.1062  1.8472  1.4328
16994SOL     OW55538   8.352   2.993   7.132  0.1044  0.3333  0.2172
16994SOL    HW155539   8.284   2.987   7.199 -0.3288 -1.6058 -0.3294
16994SOL    HW255540   8.402   2.912   7.141  0.5898  0.4408 -1.2202
16995SOL     OW55541   6.745   9.816   6.247  0.7313  0.2221 -0.1960
16995SOL    HW155542   6.686   9.891   6.238  0.4779  0.2956  1.6958
16995SOL    HW255543   6.687   9.741   6.256  0.8705  0.2700  1.4749
16996SOL     OW55544   3.024  11.669   4.268  0.5305 -0.0965 -0.0128
16996SOL    HW155545   2.937  11.705   4.249  0.8036  0.9597  0.6861
16996SOL    HW255546   3.083  11.714   4.208  0.8726  0.6650  0.8630
16997SOL     OW55547   0.775   3.849   8.958  0.0613  0.0509 -0.0294
16997SOL    HW155548   0.701   3.796   8.929 -0.2746 -0.2596  1.3356
16997SOL    HW255549   0.736   3.928   8.993  0.4789  0.5481 -0.6509
16998SOL     OW55550   1.812   3.157   3.696  0.0831 -0.0081  0.6962
16998SOL    HW155551   1.887   3.157   3.757  1.0196 -0.3679 -0.4207
16998SOL    HW255552   1.833   3.226   3.633  1.3251 -2.4565 -1.7661
16999SOL     OW55553   6.144   4.897   8.390 -0.1237 -0.4950 -0.0544
16999SOL    HW155554   6.206   4.824   8.397  1.2800  0.6854  0.3610
16999SOL    HW255555   6.064   4.857   8.356 -0.0853 -2.5935  2.0143
17000SOL     OW55556   7.401   4.492   5.539  0.0561  0.1853 -0.5038
17000SOL    HW155557   7.377   4.449   5.621 -0.2868  0.4065 -0.4892
17000SOL    HW255558   7.321   4.493   5.488 -0.5229  2.6677  0.3120
17001SOL     OW55559   2.583   8.273   7.487  0.1282  0.3510  0.8040
17001SOL    HW155560   2.649   8.296   7.552  1.4274 -0.9201 -0.0102
17001SOL    HW255561   2.598   8.334   7.415 -0.1062  0.5681  0.9374
17002SOL     OW55562   3.939   1.366  10.701  0.3293 -0.6943 -1.3111
17002SOL    HW155563   3.893   1.302  10.756  0.3023 -0.6283 -1.2559
17002SOL    HW255564   3.932   1.331  10.613 -0.2723 -0.4330 -1.3739
17003SOL     OW55565   2.182   9.486   4.234 -0.0869  0.1433  0.0079
17003SOL    HW155566   2.131   9.497   4.154 -0.3561  0.8496  0.2617
17003SOL    HW255567   2.241   9.562   4.235  3.4101 -2.2933 -1.9862
17004SOL     OW55568   2.289   9.782   3.340  0.0817  0.3596  0.7522
17004SOL    HW155569   2.284   9.728   3.261 -3.0988  0.2988  0.8489
17004SOL    HW255570   2.377   9.819   3.339  0.4328 -0.2995 -2.3663
17005SOL     OW55571   8.059   5.319   9.493 -0.2662 -0.0820  0.0704
17005SOL    HW155572   7.973   5.349   9.464 -0.9000 -1.1035  0.8276
17005SOL    HW255573   8.072   5.235   9.448  0.7869  0.5059 -0.7927
17006SOL     OW55574   0.311   0.588  11.692 -0.3716 -0.4966  0.0957
17006SOL    HW155575   0.260   0.563  11.769  0.5031  1.8104  1.5696
17006SOL    HW255576   0.402   0.571  11.717 -0.1905 -1.8880 -1.3758
17007SOL     OW55577  10.104   1.340   5.107 -0.5546 -0.4683 -0.1103
17007SOL    HW155578  10.171   1.384   5.054  0.3475 -0.3409  1.1033
17007SOL    HW255579  10.036   1.406   5.120 -0.2591 -0.1508 -0.1776
17008SOL     OW55580   5.516   3.414   5.804 -0.4124  0.7156  0.2803
17008SOL    HW155581   5.464   3.489   5.776  0.5137  1.7977  1.3483
17008SOL    HW255582   5.569   3.391   5.727 -0.0004  1.7939  0.2270
17009SOL     OW55583  11.727   7.385   0.128  0.4961 -0.4016  0.1628
17009SOL    HW155584  11.797   7.323   0.110  1.4379  0.5143  0.5803
17009SOL    HW255585  11.681   7.349   0.204  1.6459 -0.1181  1.0166
17010SOL     OW55586   3.033   5.776   7.900 -0.1197 -0.3931 -0.3258
17010SOL    HW155587   3.114   5.727   7.914 -1.1848 -2.2971 -0.3988
17010SOL    HW255588   3.045   5.819   7.815  0.9282 -0.3563 -0.1760
17011SOL     OW55589  11.628   2.815   5.989  0.6382 -0.0262  0.0516
17011SOL    HW155590  11.666   2.829   6.076 -1.2730 -0.0855  0.9300
17011SOL    HW255591  11.703   2.822   5.930  1.6512  2.3619  1.4540
17012SOL     OW55592   7.127   1.091   9.966  0.4777 -0.3014  0.0789
17012SOL    HW155593   7.159   1.056  10.049 -0.1596 -0.4861  0.2565
17012SOL    HW255594   7.075   1.020   9.929 -0.8488  0.4269  0.4488
17013SOL     OW55595   1.765   4.133   3.874  0.0866  0.1499  0.5026
17013SOL    HW155596   1.797   4.169   3.791 -1.0625 -0.7676 -0.3690
17013SOL    HW255597   1.837   4.077   3.905  0.2800 -0.0137 -0.2099
17014SOL     OW55598   7.799   9.622   1.592 -0.0784 -0.2672 -0.0446
17014SOL    HW155599   7.819   9.530   1.574 -1.5892 -0.2526 -2.1271
17014SOL    HW255600   7.706   9.624   1.611 -0.3238  0.9439 -1.1768
17015SOL     OW55601   9.414   7.283   5.080 -0.1098  0.6940  0.0124
17015SOL    HW155602   9.354   7.335   5.026 -1.2826  0.3679  0.9711
17015SOL    HW255603   9.392   7.193   5.060 -0.3498  0.5702  0.8282
17016SOL     OW55604   9.451  10.972   0.180  0.1327 -0.4502 -0.8861
17016SOL    HW155605   9.525  10.918   0.155 -0.4338 -0.5824 -2.4136
17016SOL    HW255606   9.487  11.037   0.240  1.0506 -1.7652  0.0300
17017SOL     OW55607  10.876   6.692   3.139  0.3867  0.0023  0.1640
17017SOL    HW155608  10.905   6.644   3.216  0.2881  0.0031  0.2025
17017SOL    HW255609  10.791   6.653   3.117  0.7700 -0.5173 -0.4078
17018SOL     OW55610   4.162   4.262   5.536  0.2388 -0.4149  0.2387
17018SOL    HW155611   4.209   4.192   5.490  0.6221 -0.5350  0.8049
17018SOL    HW255612   4.229   4.305   5.589 -0.5064 -1.4352  2.1133
17019SOL     OW55613   7.099   9.412  11.431  0.0102  0.6369 -0.1911
17019SOL    HW155614   7.059   9.331  11.463  0.7637 -0.8936 -2.8305
17019SOL    HW255615   7.183   9.385  11.395  0.2222  2.5590 -1.2811
17020SOL     OW55616   2.522   8.084   2.983  0.0114 -0.1166 -0.2578
17020SOL    HW155617   2.524   8.069   2.888  0.0725  0.4671 -0.3583
17020SOL    HW255618   2.560   8.005   3.021 -0.9051 -0.7644 -0.6615
17021SOL     OW55619   2.561   0.813  10.083  0.5376  0.4387 -0.8005
17021SOL    HW155620   2.629   0.748  10.103 -0.9035 -0.1523  2.7325
17021SOL    HW255621   2.601   0.897  10.105 -0.0219  0.0237  2.1866
17022SOL     OW55622   8.211   3.289   1.639  0.2266  0.1987  0.4310
17022SOL    HW155623   8.265   3.316   1.565 -2.6553  0.9942 -1.5671
17022SOL    HW255624   8.210   3.365   1.697 -0.3309  0.9564 -0.5312
17023SOL     OW55625   4.252   8.792  10.205 -0.0512 -0.3308  0.0830
17023SOL    HW155626   4.193   8.727  10.168 -0.9105  0.4588  0.0326
17023SOL    HW255627   4.304   8.822  10.131  0.2444 -0.8374  0.0786
17024SOL     OW55628  11.752   6.436   3.658  0.2658 -0.0589 -0.5211
17024SOL    HW155629  11.780   6.489   3.583 -1.1856  0.9719 -0.3943
17024SOL    HW255630  11.747   6.347   3.624  0.1533  0.3067 -1.5125
17025SOL     OW55631   2.035   3.041   9.084 -0.4458  0.6272  0.1276
17025SOL    HW155632   2.109   3.090   9.120  0.6391 -0.0110 -1.0908
17025SOL    HW255633   1.975   3.029   9.157  0.1306  2.1249  0.8890
17026SOL     OW55634   3.474   8.092   1.801 -0.5025  0.0067 -0.1799
17026SOL    HW155635   3.517   8.171   1.769 -0.8059  0.1384 -0.2633
17026SOL    HW255636   3.385   8.120   1.823 -0.2914 -0.0670  0.8226
17027SOL     OW55637   7.943   5.423   7.890  0.0937  0.1037 -0.4649
17027SOL    HW155638   7.952   5.517   7.880 -1.6010  0.5712  1.6404
17027SOL    HW255639   7.986   5.403   7.973 -0.8071 -0.7172 -0.1776
17028SOL     OW55640   9.574   0.817   5.806  0.2505  0.5155 -0.2426
17028SOL    HW155641   9.590   0.741   5.862  0.5785  0.8673  0.1407
17028SOL    HW255642   9.577   0.782   5.717 -1.9587 -0.3800 -0.0299
17029SOL     OW55643   6.030   2.041   9.823 -0.2730  0.3271 -0.3903
17029SOL    HW155644   5.938   2.050   9.847 -0.6297 -2.8008 -0.1862
17029SOL    HW255645   6.030   2.045   9.727 -0.3603  1.7179 -0.3622
17030SOL     OW55646   3.261   2.681   9.825 -0.3747  0.2967 -0.0234
17030SOL    HW155647   3.330   2.723   9.877 -0.1764 -1.8167  1.5289
17030SOL    HW255648   3.201   2.644   9.890 -1.9736  0.4507 -1.3454
17031SOL     OW55649   4.709   9.396  10.857 -0.3082 -0.2139  0.7409
17031SOL    HW155650   4.766   9.320  10.854  1.2307  0.8995 -2.2083
17031SOL    HW255651   4.636   9.373  10.799 -0.0224  0.3711  0.1310
17032SOL     OW55652  10.257   6.752   9.180 -0.5271 -0.5071 -0.2053
17032SOL    HW155653  10.350   6.765   9.194 -0.3397 -1.2957 -0.6991
17032SOL    HW255654  10.223   6.724   9.265 -0.0490 -1.6611 -0.3854
17033SOL     OW55655   8.577   2.569   2.339 -0.0706  0.2466 -0.3783
17033SOL    HW155656   8.633   2.629   2.388  0.1646 -1.2652  1.2958
17033SOL    HW255657   8.638   2.513   2.292 -0.1572 -0.9145  0.8491
17034SOL     OW55658   9.235   7.072  12.076 -0.4879 -0.1397 -0.1334
17034SOL    HW155659   9.301   7.124  12.123 -1.4859  0.8222  0.2432
17034SOL    HW255660   9.258   7.081  11.984  1.2076 -1.6453  0.0808
17035SOL     OW55661   5.792   6.290   1.144 -0.1756  0.5004  0.1654
17035SOL    HW155662   5.885   6.282   1.165 -0.5014  1.9425  2.5551
17035SOL    HW255663   5.761   6.200   1.135  1.4563  0.0022 -0.8011
17036SOL     OW55664  11.531   9.767   5.996 -0.5617 -0.4566  0.2488
17036SOL    HW155665  11.582   9.847   5.988  0.1094 -1.0344 -2.5052
17036SOL    HW255666  11.589   9.706   6.041  0.5039 -0.5187 -1.1297
17037SOL     OW55667   9.393   0.868   1.427 -0.0884  0.7885  0.1524
17037SOL    HW155668   9.357   0.824   1.503  0.6716  0.2764  0.2203
17037SOL    HW255669   9.316   0.894   1.376 -0.5639 -0.3240  0.2711
17038SOL     OW55670   0.360   0.773   7.845 -0.2422  0.3300  0.3689
17038SOL    HW155671   0.432   0.752   7.904 -2.0491 -0.9086  2.2219
17038SOL    HW255672   0.356   0.700   7.784 -0.2779  0.1407  0.5995
17039SOL     OW55673   2.279   8.112   8.446 -0.5533  0.1274  0.9987
17039SOL    HW155674   2.309   8.023   8.462 -0.3060 -0.3349 -1.6694
17039SOL    HW255675   2.235   8.109   8.362 -0.1242  2.6145  0.5887
17040SOL     OW55676   4.252   0.209   0.245  0.3349 -0.2283  0.4158
17040SOL    HW155677   4.330   0.258   0.270  0.5778 -1.3078  1.9587
17040SOL    HW255678   4.286   0.128   0.206  0.0935 -1.3404  2.3519
17041SOL     OW55679   7.193  10.802   2.981  0.1770  0.8958  0.1105
17041SOL    HW155680   7.276  10.813   3.026  0.2930  0.2631  0.0614
17041SOL    HW255681   7.177  10.708   2.983  0.9066  0.6475 -2.4675
17042SOL     OW55682   3.543   3.429   0.427 -0.7053  0.6110 -0.6114
17042SOL    HW155683   3.629   3.449   0.391 -0.5343 -0.7804 -1.0109
17042SOL    HW255684   3.542   3.334   0.438 -0.7244  0.8788  3.1332
17043SOL     OW55685   0.097  11.296   6.952  0.3128  0.5580 -0.8270
17043SOL    HW155686   0.036  11.357   6.909 -1.0956  1.6895  2.4597
17043SOL    HW255687   0.114  11.336   7.037  4.5216 -0.5230 -0.9528
17044SOL     OW55688   9.780   0.754   3.615 -0.6275 -0.4426 -0.1041
17044SOL    HW155689   9.845   0.716   3.555 -0.9945  1.3460 -1.7317
17044SOL    HW255690   9.719   0.682   3.632 -0.1398 -1.2062 -1.3775
17045SOL     OW55691   3.019   0.104   5.514  0.3005  0.1378  0.0111
17045SOL    HW155692   3.110   0.083   5.492  0.6784  2.5856 -0.9920
17045SOL    HW255693   3.024   0.152   5.597 -0.0407  0.5316 -0.1910
17046SOL     OW55694   1.527   0.354   0.781  0.4469 -0.5797  0.1287
17046SOL    HW155695   1.494   0.378   0.695 -0.6709  1.7011  1.0872
17046SOL    HW255696   1.511   0.260   0.788 -2.0128 -0.3405 -1.1159
17047SOL     OW55697  12.013   7.715   1.239 -0.2498  0.1781  0.1608
17047SOL    HW155698  12.059   7.763   1.307 -0.8310 -0.0932  0.7563
17047SOL    HW255699  12.004   7.626   1.273  0.3933 -0.2480 -0.7275
17048SOL     OW55700   4.981   7.211  11.327  0.6661  0.4931  0.1765
17048SOL    HW155701   4.895   7.238  11.359 -0.0802  1.2516 -2.2549
17048SOL    HW255702   4.981   7.237  11.235  2.4426 -1.9975 -0.6192
17049SOL     OW55703   8.225   0.776   3.824  0.1659  0.5641  0.0813
17049SOL    HW155704   8.268   0.841   3.880 -0.1805 -0.6354  1.8301
17049SOL    HW255705   8.138   0.766   3.861  0.6076 -1.7818  0.7110
17050SOL     OW55706   9.942   5.358   6.765 -0.3860 -0.0534  0.2506
17050SOL    HW155707   9.884   5.423   6.725 -0.5618 -0.2573  0.1713
17050SOL    HW255708   9.885   5.283   6.785 -0.1151 -0.3302  0.0014
17051SOL     OW55709   2.310  10.624   4.313 -0.0478  0.2823 -0.2665
17051SOL    HW155710   2.219  10.652   4.317 -0.0548  0.1266  0.9914
17051SOL    HW255711   2.329  10.618   4.219 -1.4397 -0.0563 -0.5504
17052SOL     OW55712   0.747   0.158   4.537 -0.0872  0.2636 -0.1980
17052SOL    HW155713   0.699   0.194   4.463  0.7457  0.2061 -0.7815
17052SOL    HW255714   0.765   0.233   4.594  1.6030  0.8329 -1.3841
17053SOL     OW55715   1.898  10.274   7.169  0.5139  0.0266 -0.2429
17053SOL    HW155716   1.866  10.194   7.209 -0.1131  1.1821  1.7350
17053SOL    HW255717   1.986  10.252   7.139 -0.1802 -1.7716 -1.0863
17054SOL     OW55718   0.043   1.939   7.915  0.1852  0.1317  0.1191
17054SOL    HW155719   0.063   2.030   7.892 -2.1676  0.6082 -0.2479
17054SOL    HW255720   0.129   1.900   7.934  1.3296  2.1796 -0.5324
17055SOL     OW55721  11.496   2.788   6.495 -0.4375  0.1110  0.3978
17055SOL    HW155722  11.457   2.776   6.581  2.1173 -0.0228  1.6192
17055SOL    HW255723  11.529   2.878   6.495 -0.7833  0.2620 -0.6477
17056SOL     OW55724   8.349   7.292   5.353  0.3885  0.4635  0.1748
17056SOL    HW155725   8.408   7.229   5.311  0.3759 -1.2664  2.5249
17056SOL    HW255726   8.404   7.334   5.419 -0.4571  0.3156  0.9982
17057SOL     OW55727   7.310   0.537   7.179 -0.1852  0.1908 -0.6047
17057SOL    HW155728   7.369   0.474   7.219 -0.2827  0.0683 -0.6549
17057SOL    HW255729   7.292   0.502   7.092 -2.9363 -1.4990  0.5245
17058SOL     OW55730  11.779   1.546   9.027 -0.4453 -0.0206  0.1161
17058SOL    HW155731  11.808   1.600   9.101  0.0721 -0.6220  0.3541
17058SOL    HW255732  11.684   1.562   9.022 -0.5501 -0.2682  1.1424
17059SOL     OW55733   4.650   6.563  10.011  0.4059 -0.3776 -0.1175
17059SOL    HW155734   4.742   6.584   9.992  0.1007  0.6949 -0.4725
17059SOL    HW255735   4.605   6.648  10.009 -0.4405 -0.7829  0.9490
17060SOL     OW55736   8.152   1.678   1.051 -0.3689 -0.1049  0.2404
17060SOL    HW155737   8.172   1.739   1.122 -0.4597 -1.8475  1.8392
17060SOL    HW255738   8.096   1.728   0.991  0.7987  1.8270  0.6693
17061SOL     OW55739   3.744   1.196   7.139 -0.1339 -0.4472 -0.1745
17061SOL    HW155740   3.692   1.204   7.218  0.8454 -3.1685  0.8708
17061SOL    HW255741   3.833   1.180   7.170  0.1475 -2.3788 -1.7713
17062SOL     OW55742   1.647   2.826   9.843 -0.5456 -0.1978 -0.4670
17062SOL    HW155743   1.655   2.790   9.755 -1.3515 -0.2347 -0.5300
17062SOL    HW255744   1.626   2.919   9.829  1.0835  0.2310 -0.3054
17063SOL     OW55745   5.359   5.861   7.662  0.0116 -0.1555  0.2036
17063SOL    HW155746   5.395   5.823   7.743 -0.6917 -1.7555 -0.1892
17063SOL    HW255747   5.273   5.821   7.653 -0.7800  1.5795 -0.2826
17064SOL     OW55748   3.467  10.540   4.150 -0.8848  0.1784  0.2659
17064SOL    HW155749   3.531  10.587   4.203 -0.4166 -0.5139  0.3342
17064SOL    HW255750   3.431  10.605   4.091 -1.2570  0.9247  1.2819
17065SOL     OW55751   7.342   4.438   1.166 -0.1893 -0.2140  0.0034
17065SOL    HW155752   7.422   4.459   1.117  0.9854  0.7818  2.2324
17065SOL    HW255753   7.276   4.422   1.098  1.2233  1.5495 -1.9109
17066SOL     OW55754   0.436  10.757   4.951  0.0113  0.0534 -0.3980
17066SOL    HW155755   0.512  10.765   5.009  0.0277  1.3011 -0.5545
17066SOL    HW255756   0.370  10.813   4.991 -0.4234 -0.1014 -0.8936
17067SOL     OW55757   2.154   9.124  10.986  0.0826  0.2718  0.1963
17067SOL    HW155758   2.113   9.169  11.060  0.8470  1.1927  0.0752
17067SOL    HW255759   2.234   9.085  11.023 -0.6689 -1.2174  0.3498
17068SOL     OW55760   2.316  11.083   8.574 -0.3043  0.0204  0.6900
17068SOL    HW155761   2.302  11.083   8.479 -1.3831 -1.0784  0.8162
17068SOL    HW255762   2.237  11.124   8.609 -1.3413 -2.2274  1.2171
17069SOL     OW55763   9.709  11.592   3.022 -0.5266 -0.2314 -0.2124
17069SOL    HW155764   9.629  11.643   3.034 -0.0121  0.8151 -1.0420
17069SOL    HW255765   9.770  11.628   3.086 -0.0263  0.4970 -1.0881
17070SOL     OW55766   6.156  10.893   5.281  0.1250  0.6424 -0.1414
17070SOL    HW155767   6.123  10.983   5.274 -1.9647  0.0795  1.4575
17070SOL    HW255768   6.081  10.839   5.257  0.7399 -0.6939  0.8429
17071SOL     OW55769   7.486   6.914   7.960 -0.4530 -0.5672 -0.0115
17071SOL    HW155770   7.527   6.955   8.036  1.8495 -1.0869 -0.8950
17071SOL    HW255771   7.398   6.889   7.991 -0.4094  1.2117  1.7623
17072SOL     OW55772   7.530  10.795   0.580 -0.0589 -0.1786 -0.1712
17072SOL    HW155773   7.487  10.877   0.558 -2.0961 -0.8835  0.9549
17072SOL    HW255774   7.584  10.775   0.503  2.2978  3.2478  0.3407
17073SOL     OW55775   8.974   0.450   3.307 -0.0900  0.3925 -0.0735
17073SOL    HW155776   8.981   0.358   3.331  1.9504  0.1446 -1.4263
17073SOL    HW255777   9.060   0.487   3.327 -0.2362  1.5196 -1.3689
17074SOL     OW55778   7.287  11.935   6.711  0.2779 -0.0138 -0.2748
17074SOL    HW155779   7.226  11.861   6.714 -0.7432  0.8127  0.4538
17074SOL    HW255780   7.259  11.986   6.635  2.8343 -1.8293 -2.6068
17075SOL     OW55781  10.198  10.620   8.894 -0.2334 -0.0014 -0.8818
17075SOL    HW155782  10.154  10.610   8.978 -1.0073  0.8966 -1.1590
17075SOL    HW255783  10.236  10.534   8.876 -1.3764 -0.6397 -0.3449
17076SOL     OW55784  10.022   0.903   9.341  0.0534  0.0124 -0.3168
17076SOL    HW155785   9.946   0.892   9.284  0.3353 -0.5490 -0.5914
17076SOL    HW255786  10.017   0.830   9.402  0.0040  0.3567  0.0980
17077SOL     OW55787   3.707   1.022   0.268  0.3394  0.1576  0.1359
17077SOL    HW155788   3.738   1.014   0.358 -0.4149 -0.2711  0.3678
17077SOL    HW255789   3.768   1.082   0.226 -0.0916  1.4622  1.3027
17078SOL     OW55790   0.586   0.948   5.716  0.0595 -0.0641 -0.2344
17078SOL    HW155791   0.662   0.966   5.660  1.1960  0.0417  1.2747
17078SOL    HW255792   0.586   1.018   5.780 -0.8749 -0.4925  0.2580
17079SOL     OW55793  11.474   4.249   6.117 -0.1247  0.0470  0.3634
17079SOL    HW155794  11.419   4.255   6.195  0.4455  0.3663  0.7494
17079SOL    HW255795  11.553   4.299   6.140  0.5264 -0.7949  0.0005
17080SOL     OW55796   2.327   2.564   0.643 -0.5165 -0.0387 -0.1813
17080SOL    HW155797   2.349   2.655   0.665  0.2423 -0.3925  0.6009
17080SOL    HW255798   2.396   2.538   0.582  1.0918 -0.9992  1.9032
17081SOL     OW55799   6.479   0.368   7.148 -0.2619 -0.4323 -0.1904
17081SOL    HW155800   6.430   0.335   7.073  2.4608  0.6254 -2.6392
17081SOL    HW255801   6.551   0.306   7.159 -0.7225 -0.6804  1.7638
17082SOL     OW55802   2.672   1.527   2.386 -0.5808  0.4144  0.1878
17082SOL    HW155803   2.604   1.584   2.348  1.1000  1.8936 -0.7650
17082SOL    HW255804   2.725   1.501   2.311  1.2145  1.1391  1.1531
17083SOL     OW55805   4.202  12.125  10.619  0.9590 -0.3046 -0.1075
17083SOL    HW155806   4.275  12.064  10.629  0.2237 -1.3531 -1.0028
17083SOL    HW255807   4.183  12.125  10.525 -0.6469 -0.6047  0.1899
17084SOL     OW55808   3.143   8.805   7.201 -0.1951  0.6408 -0.5387
17084SOL    HW155809   3.081   8.765   7.140 -0.4166 -0.0126  0.0947
17084SOL    HW255810   3.169   8.733   7.259 -0.1870  1.3044  0.2961
17085SOL     OW55811   6.837   2.380   9.673 -0.0016 -0.3321 -0.6453
17085SOL    HW155812   6.832   2.432   9.754 -0.0200  1.8009 -1.9268
17085SOL    HW255813   6.753   2.334   9.669  0.6118 -1.7567  1.2975
17086SOL     OW55814  11.029   5.330   6.998 -0.3368 -0.2071  0.0354
17086SOL    HW155815  10.975   5.408   6.993  1.1932  1.0232  1.5966
17086SOL    HW255816  10.974   5.266   7.044 -1.0133  0.4907  0.2124
17087SOL     OW55817   9.189   2.362   3.404  0.7295 -0.3138  0.2540
17087SOL    HW155818   9.237   2.280   3.406  0.7652 -0.5829 -3.4910
17087SOL    HW255819   9.097   2.335   3.407  0.7503 -0.3254  0.8646
17088SOL     OW55820   7.934   4.465   9.654  0.1225 -0.1156 -0.3109
17088SOL    HW155821   7.968   4.387   9.698  0.0497 -0.1721 -0.3538
17088SOL    HW255822   7.992   4.535   9.683 -1.0639  0.2191  1.4445
17089SOL     OW55823   2.877   9.020   2.245 -0.2363 -0.4024 -0.1796
17089SOL    HW155824   2.832   9.090   2.293  0.3219 -0.7964  0.9779
17089SOL    HW255825   2.845   9.027   2.155  0.5359  1.9629 -0.3259
17090SOL     OW55826   8.292   8.247   2.624 -0.4617 -0.1883  0.3354
17090SOL    HW155827   8.285   8.158   2.659  0.3427  0.0943  1.2896
17090SOL    HW255828   8.319   8.300   2.700 -0.5566  0.7997 -0.3022
17091SOL     OW55829   2.340   1.256  12.099 -0.2547 -0.0737  0.8680
17091SOL    HW155830   2.310   1.215  12.018  1.6460  0.3556 -0.1080
17091SOL    HW255831   2.427   1.289  12.079 -0.0203  0.7071  2.8871
17092SOL     OW55832   9.648  11.336  10.080 -0.0887 -0.1811 -0.0260
17092SOL    HW155833   9.737  11.355  10.108 -0.4585  2.1322 -0.2489
17092SOL    HW255834   9.601  11.316  10.161  0.4408 -0.5773  0.1863
17093SOL     OW55835   1.413   2.326   5.987 -0.5997  0.4788 -0.0693
17093SOL    HW155836   1.392   2.254   5.928  0.9740  0.3247 -0.4821
17093SOL    HW255837   1.330   2.345   6.031 -1.2638 -0.9487 -0.6230
17094SOL     OW55838   9.748  10.036   5.196 -0.5776  0.2092  0.1006
17094SOL    HW155839   9.689  10.103   5.231 -0.2767 -0.2157  1.4727
17094SOL    HW255840   9.834  10.080   5.192 -0.8118  0.6001 -1.2063
17095SOL     OW55841   0.754   6.281   0.152 -0.5880 -0.1959  0.3090
17095SOL    HW155842   0.849   6.276   0.150 -0.6412 -1.2113  0.0075
17095SOL    HW255843   0.725   6.192   0.172 -1.4784  0.0771  0.2962
17096SOL     OW55844   9.565  11.540  10.460  0.2694  0.1655 -0.3119
17096SOL    HW155845   9.606  11.572  10.540 -2.7188  0.2015  1.3365
17096SOL    HW255846   9.519  11.461  10.487 -1.5849  0.6867 -1.7737
17097SOL     OW55847   9.342   2.662  11.089 -0.1474  0.1929  0.6649
17097SOL    HW155848   9.274   2.729  11.095  0.5165  0.9347  0.1222
17097SOL    HW255849   9.415   2.699  11.139  1.3922  1.3766 -2.2218
17098SOL     OW55850   3.199   8.681   5.704  0.6576  0.3339  0.0426
17098SOL    HW155851   3.293   8.686   5.725  0.5427  0.6843  0.4788
17098SOL    HW255852   3.161   8.758   5.745  0.0684 -0.1534  0.4318
17099SOL     OW55853   9.126   0.025   3.485  0.4136  0.3055  0.3853
17099SOL    HW155854   9.150   0.085   3.415  0.7827  0.4934  0.6732
17099SOL    HW255855   9.204  -0.030   3.498  0.4197  0.4041  0.7842
17100SOL     OW55856   7.197  11.934   4.773  0.0824  0.2220 -0.1821
17100SOL    HW155857   7.180  11.920   4.680  0.6284 -0.6243 -0.1648
17100SOL    HW255858   7.281  11.981   4.775  1.4840 -2.1421 -0.0718
17101SOL     OW55859   9.465   5.136  11.445 -0.0222 -0.0054 -0.0457
17101SOL    HW155860   9.410   5.067  11.409  0.4859 -0.6686  0.4228
17101SOL    HW255861   9.523   5.091  11.507 -0.3201  0.9915  0.9762
17102SOL     OW55862   9.251  10.717   6.111 -0.0319  0.1849  0.6607
17102SOL    HW155863   9.337  10.687   6.083 -0.7359 -0.1537 -1.3112
17102SOL    HW255864   9.217  10.646   6.166  0.7874  0.1702  1.1581
17103SOL     OW55865  10.783   7.272   6.407 -0.6693 -0.2699  0.5279
17103SOL    HW155866  10.750   7.357   6.433 -1.8717 -0.2230 -1.0090
17103SOL    HW255867  10.708   7.213   6.414 -0.5899 -0.6060 -0.9721
17104SOL     OW55868   2.450   7.114   4.942  0.1692  0.0936 -0.3325
17104SOL    HW155869   2.394   7.186   4.912 -0.9370 -1.1577 -1.3754
17104SOL    HW255870   2.483   7.075   4.862  1.3819 -0.1050  0.2473
17105SOL     OW55871   4.710   2.897   6.039  0.3853 -0.0975  0.0074
17105SOL    HW155872   4.737   2.810   6.065  1.1666 -0.0185 -0.5214
17105SOL    HW255873   4.621   2.906   6.074  0.2385 -1.1560 -0.0789
17106SOL     OW55874  10.606   0.672   3.041 -0.0203  0.3646 -0.1943
17106SOL    HW155875  10.605   0.688   3.136 -0.5551 -0.3602 -0.0713
17106SOL    HW255876  10.628   0.579   3.032  2.1697  0.8800 -0.8705
17107SOL     OW55877   8.236   3.879   9.400  0.4367 -0.1536  0.2708
17107SOL    HW155878   8.170   3.825   9.443  1.8472 -2.3120 -0.0817
17107SOL    HW255879   8.208   3.969   9.415 -1.2805 -0.9295  2.1667
17108SOL     OW55880   2.940   5.807   9.904 -0.1204  0.7935 -0.4703
17108SOL    HW155881   2.904   5.778   9.820  1.2894  0.6601 -1.0514
17108SOL    HW255882   2.864   5.837   9.953 -0.9492  1.0895 -1.8759
17109SOL     OW55883   1.583  10.493  10.955  0.3215 -0.2114  0.3730
17109SOL    HW155884   1.572  10.569  11.012  0.2142 -0.2209  0.3630
17109SOL    HW255885   1.495  10.461  10.939  0.3777 -0.4382  0.5127
17110SOL     OW55886   0.872   9.041   9.962  0.5417 -0.3976 -0.8785
17110SOL    HW155887   0.869   8.946   9.960 -0.2008 -0.4116  0.3444
17110SOL    HW255888   0.796   9.067  10.014  0.4699  0.8838 -1.5772
17111SOL     OW55889   3.330   7.200   2.533 -0.1100 -0.2765  0.3442
17111SOL    HW155890   3.323   7.190   2.438  0.6666 -0.8900  0.3489
17111SOL    HW255891   3.291   7.121   2.569  1.6368 -1.1223  0.4735
17112SOL     OW55892  10.937   8.486   8.583  0.3180 -0.8065 -0.5112
17112SOL    HW155893  10.845   8.473   8.562  0.4577 -1.2960 -0.8485
17112SOL    HW255894  10.940   8.495   8.678  0.0129 -1.5766 -0.4279
17113SOL     OW55895   2.371   2.411   9.077 -0.8935 -0.0058 -0.2540
17113SOL    HW155896   2.430   2.478   9.042  0.7337 -1.7337 -0.9836
17113SOL    HW255897   2.413   2.381   9.157 -1.8071  0.0845  0.2729
17114SOL     OW55898   9.989   6.961   7.869 -0.0380  0.5979  0.2383
17114SOL    HW155899   9.927   6.914   7.813  0.8274  0.7715 -0.8887
17114SOL    HW255900   9.995   7.048   7.831  0.6092  0.7065  0.5797
17115SOL     OW55901   4.744   1.609   7.006 -0.2792  0.2175  0.2132
17115SOL    HW155902   4.735   1.517   7.031 -1.9467  0.2079 -0.2851
17115SOL    HW255903   4.674   1.623   6.942 -0.3105  1.9279  0.5838
17116SOL     OW55904   8.135   3.215   5.976 -0.0858 -0.0897 -0.3916
17116SOL    HW155905   8.172   3.136   5.936 -0.9116 -0.6774 -0.0043
17116SOL    HW255906   8.211   3.260   6.014  0.1501 -1.7854  1.2761
17117SOL     OW55907   1.174   1.398   5.897 -0.6243 -0.8533  0.1342
17117SOL    HW155908   1.099   1.439   5.939  0.5501  1.3885  0.1779
17117SOL    HW255909   1.156   1.406   5.803 -0.9117 -1.2652  0.1526
17118SOL     OW55910   9.609   9.842   0.741 -0.0124 -0.5006 -0.0458
17118SOL    HW155911   9.628   9.920   0.793  1.9377 -0.6830 -0.4441
17118SOL    HW255912   9.645   9.769   0.792  2.4319 -0.6358 -1.8184
17119SOL     OW55913  11.772  10.120  10.350  0.1515  0.1145  0.4134
17119SOL    HW155914  11.752  10.202  10.306  0.2173 -1.9357 -3.9499
17119SOL    HW255915  11.686  10.083  10.372  0.0730  0.6581  1.0488
17120SOL     OW55916   4.123   3.592   3.930 -0.3704 -0.3708 -0.1291
17120SOL    HW155917   4.157   3.526   3.870  0.7532 -1.6883  1.8572
17120SOL    HW255918   4.195   3.655   3.939  0.1852 -1.1546  1.1825
17121SOL     OW55919   6.228   3.209   4.232  0.3565 -0.1443  0.4234
17121SOL    HW155920   6.165   3.141   4.210 -0.8847  1.5256 -1.5737
17121SOL    HW255921   6.227   3.213   4.328 -1.0261 -1.5369  0.4967
17122SOL     OW55922  10.641   7.768   4.688  0.0214 -0.4378  0.0449
17122SOL    HW155923  10.621   7.748   4.779 -2.6623  4.7234  1.0243
17122SOL    HW255924  10.561   7.744   4.640  0.9509 -1.9947 -0.7778
17123SOL     OW55925   9.013   7.634  12.044 -0.1618 -0.1479 -0.2309
17123SOL    HW155926   9.057   7.700  11.989  0.2137 -1.3540 -1.4251
17123SOL    HW255927   8.946   7.597  11.986 -2.5477  1.3323  1.3981
17124SOL     OW55928   6.584   5.694   4.684  0.6039  0.2686  0.0261
17124SOL    HW155929   6.594   5.788   4.667 -1.7649  0.2091 -2.5066
17124SOL    HW255930   6.640   5.652   4.620  0.1911 -0.0240 -0.1491
17125SOL     OW55931   2.517   5.166   4.304 -0.6299  0.1140  0.1966
17125SOL    HW155932   2.553   5.078   4.290 -0.1323  0.6319 -2.2225
17125SOL    HW255933   2.431   5.164   4.262  0.0484  1.1805 -1.3586
17126SOL     OW55934   1.179   2.439   4.963  0.3117 -0.2033 -0.0771
17126SOL    HW155935   1.172   2.533   4.981  0.9572 -0.1620 -0.0119
17126SOL    HW255936   1.089   2.407   4.966  0.1076  0.3744  0.1116
17127SOL     OW55937   3.785   9.997   3.647 -0.4181  0.2250 -0.0474
17127SOL    HW155938   3.710  10.047   3.614 -0.2356 -0.1679 -1.0783
17127SOL    HW255939   3.861  10.039   3.607 -0.2128 -0.4425 -0.3640
17128SOL     OW55940   8.878  10.403   5.450  0.2445  0.2739 -0.2216
17128SOL    HW155941   8.903  10.335   5.513  1.5038  0.3773 -0.5746
17128SOL    HW255942   8.961  10.429   5.409 -0.3616  1.2558 -0.8647
17129SOL     OW55943   3.186   4.057  11.802  0.3193 -1.0396 -0.1843
17129SOL    HW155944   3.170   4.137  11.753 -0.6415 -0.5034  0.9406
17129SOL    HW255945   3.118   3.996  11.771  0.4141 -1.0766 -0.3191
17130SOL     OW55946   9.954   4.824   1.237 -0.6451  0.1246 -0.1569
17130SOL    HW155947   9.927   4.826   1.145 -4.4021 -2.3370  0.7105
17130SOL    HW255948   9.877   4.853   1.286 -0.6531 -3.6101  2.4047
17131SOL     OW55949   6.543   9.010   5.387 -0.1950  0.0045 -0.4677
17131SOL    HW155950   6.449   9.011   5.366 -0.2903  0.8219 -0.0328
17131SOL    HW255951   6.557   9.089   5.438  0.1941 -1.4447  1.8111
17132SOL     OW55952   8.637   7.240   0.346  0.0782 -0.5108 -0.4217
17132SOL    HW155953   8.613   7.326   0.380  2.6359  0.1318 -0.0049
17132SOL    HW255954   8.646   7.254   0.251  1.4240 -0.0349 -0.2411
17133SOL     OW55955   6.383  11.996   4.457 -0.2115 -0.4648 -0.8877
17133SOL    HW155956   6.339  12.078   4.434 -1.0490 -0.3084  1.0595
17133SOL    HW255957   6.418  12.012   4.545 -0.7738 -2.3143 -0.2936
17134SOL     OW55958   3.309   0.701   4.940  0.4282  0.4351 -0.2888
17134SOL    HW155959   3.321   0.749   4.857 -0.3659  0.7052 -0.2588
17134SOL    HW255960   3.266   0.765   4.998  0.0100 -0.0889 -0.0161
17135SOL     OW55961   6.944   1.662   1.690 -0.4176 -0.9425 -0.0104
17135SOL    HW155962   6.962   1.666   1.783  0.1439  1.2473 -0.1633
17135SOL    HW255963   7.024   1.625   1.652 -0.4628 -1.3833  0.3115
17136SOL     OW55964   4.364   9.192   9.213 -0.3019  0.0841 -0.4235
17136SOL    HW155965   4.365   9.285   9.189  1.0612  0.1202 -0.2915
17136SOL    HW255966   4.279   9.161   9.182 -0.0335  0.9520 -2.1720
17137SOL     OW55967   8.030  10.989   1.543  0.3201 -0.9174  0.4007
17137SOL    HW155968   8.110  11.029   1.508 -0.0028  0.7566  1.4123
17137SOL    HW255969   7.976  10.971   1.466  1.9070 -2.7063 -0.3542
17138SOL     OW55970  10.426   1.975   1.025 -0.3307  0.6285 -0.0642
17138SOL    HW155971  10.388   1.976   1.113  0.5465 -0.4914  0.3526
17138SOL    HW255972  10.371   1.914   0.975  0.3590 -0.3301  0.3037
17139SOL     OW55973   4.444  11.075   0.631  0.0949 -0.6665  0.0487
17139SOL    HW155974   4.500  11.127   0.688 -0.5671  1.0046 -0.7456
17139SOL    HW255975   4.502  11.010   0.592  1.4671  0.8819 -0.5891
17140SOL     OW55976   5.335   0.667   5.729  0.3325 -0.1551  0.1358
17140SOL    HW155977   5.390   0.746   5.729 -0.3048  0.3105  0.8687
17140SOL    HW255978   5.320   0.648   5.637  2.0739 -0.5518 -0.1000
17141SOL     OW55979   1.381   1.800   8.185  0.2963  0.2571  0.5424
17141SOL    HW155980   1.312   1.758   8.133  1.0991  2.6617 -2.8209
17141SOL    HW255981   1.341   1.878   8.222  0.7155  0.6711  0.1410
17142SOL     OW55982   8.762   5.007   6.787 -0.0903  0.5765  0.7195
17142SOL    HW155983   8.806   5.031   6.705 -0.2401 -0.4175  0.3353
17142SOL    HW255984   8.798   5.067   6.852 -0.7729  2.1494 -0.2720
17143SOL     OW55985  11.315   1.815   8.892  0.0346 -0.5850  0.2282
17143SOL    HW155986  11.311   1.782   8.802  3.2937 -0.3228 -0.1382
17143SOL    HW255987  11.270   1.749   8.944  1.1549 -2.6152 -1.2219
17144SOL     OW55988   0.425  10.940   7.500  0.3336 -0.0567  0.2182
17144SOL    HW155989   0.497  10.884   7.470  1.7860  1.3792  0.8858
17144SOL    HW255990   0.390  10.979   7.420  0.5549 -0.4584 -0.0803
17145SOL     OW55991   6.599   7.514   0.591  0.4716 -0.5920  0.0290
17145SOL    HW155992   6.610   7.427   0.550  1.6214  0.1823 -1.4250
17145SOL    HW255993   6.512   7.512   0.629  0.2227 -2.1789 -0.5365
17146SOL     OW55994  11.954   1.275  10.197  0.5021 -0.0763  0.2291
17146SOL    HW155995  12.002   1.204  10.155  0.0869 -0.2025 -0.0365
17146SOL    HW255996  11.905   1.234  10.268  1.8212  0.2531  1.3792
17147SOL     OW55997   6.818   5.080   8.117  0.1546  0.2701  0.1743
17147SOL    HW155998   6.854   5.050   8.034  1.4871 -0.2583  0.9263
17147SOL    HW255999   6.724   5.062   8.110  0.2239  0.4019 -1.2767
17148SOL     OW56000   2.627   8.196   5.444  0.6138 -0.0474 -0.0504
17148SOL    HW156001   2.665   8.193   5.357 -0.7215  1.0883 -0.7187
17148SOL    HW256002   2.701   8.185   5.503  1.8039  0.9123 -1.3037
17149SOL     OW56003   4.273   1.731   4.618 -0.3690  0.4130 -0.0978
17149SOL    HW156004   4.249   1.820   4.589  1.6177  1.4764  1.2809
17149SOL    HW256005   4.350   1.710   4.565 -0.4527 -0.2279  0.0386
17150SOL     OW56006   6.700   5.308  11.344 -0.4824  0.1836  0.0911
17150SOL    HW156007   6.719   5.293  11.251 -0.2071 -0.2158  0.2059
17150SOL    HW256008   6.618   5.357  11.344 -0.3213  0.4648 -0.3723
17151SOL     OW56009   1.928  12.100  12.028  0.2368 -0.1411 -0.5697
17151SOL    HW156010   1.940  12.028  11.966 -0.5440 -0.2975 -0.5574
17151SOL    HW256011   2.007  12.100  12.081  0.7359 -0.2726 -1.2943
17152SOL     OW56012   9.518  10.816   9.362  0.3732  0.0521  0.0813
17152SOL    HW156013   9.456  10.782   9.298  0.8960 -1.5388  0.3927
17152SOL    HW256014   9.596  10.837   9.311  0.1337  0.5750 -0.0759
17153SOL     OW56015   2.871   6.484   5.311 -0.1781 -0.2957  0.2156
17153SOL    HW156016   2.843   6.397   5.336  0.1407 -0.0989  1.3322
17153SOL    HW256017   2.802   6.542   5.342  0.3945 -0.0130  1.0089
17154SOL     OW56018   8.705   8.357   2.719  0.7254 -0.1911  0.3683
17154SOL    HW156019   8.733   8.312   2.799  1.9150  1.2725  0.8282
17154SOL    HW256020   8.672   8.441   2.750  0.9941  0.3092 -0.6639
17155SOL     OW56021   8.650   0.286   2.989 -0.5290  0.3987  0.0128
17155SOL    HW156022   8.693   0.202   2.975  1.8164  1.6914 -1.1749
17155SOL    HW256023   8.588   0.295   2.916 -1.2803 -0.5291  0.5132
17156SOL     OW56024   3.742   3.914   8.257  0.3055 -0.9264  0.3498
17156SOL    HW156025   3.777   3.834   8.297  0.7605 -0.8124  0.1921
17156SOL    HW256026   3.820   3.960   8.226 -0.0343 -1.0548 -0.7530
17157SOL     OW56027   9.447   2.782  10.094 -0.3893  0.1619 -0.0363
17157SOL    HW156028   9.474   2.785  10.002  0.4318  0.8596  0.2112
17157SOL    HW256029   9.353   2.800  10.092 -0.7008 -1.4067 -0.8524
17158SOL     OW56030   6.680   4.882   4.061  0.3707  0.3010 -0.0209
17158SOL    HW156031   6.638   4.899   4.146  2.1214 -2.1771  1.4938
17158SOL    HW256032   6.735   4.958   4.046  1.2995  0.1047  1.9857
17159SOL     OW56033   6.982   0.470   8.737 -0.1720 -0.3565 -0.2938
17159SOL    HW156034   7.007   0.549   8.688  1.4055 -2.1681 -2.6147
17159SOL    HW256035   7.039   0.472   8.814 -0.4673  0.9667 -0.0777
17160SOL     OW56036  10.391   6.287   5.522 -0.0400 -0.1773  0.7116
17160SOL    HW156037  10.368   6.215   5.581  2.2048  0.0597  1.9928
17160SOL    HW256038  10.358   6.260   5.437 -0.7911 -1.9003  1.4980
17161SOL     OW56039   5.943   6.349   9.042  0.1349  0.4091  0.0464
17161SOL    HW156040   5.935   6.260   9.077 -2.1499  0.0250 -1.2427
17161SOL    HW256041   6.006   6.340   8.970  0.1938 -0.1117  0.1557
17162SOL     OW56042   7.836   4.794   3.336  0.0882 -0.0913 -0.3098
17162SOL    HW156043   7.874   4.708   3.348 -0.0540 -0.1404 -0.2007
17162SOL    HW256044   7.754   4.778   3.289 -0.7098 -0.1783  1.0612
17163SOL     OW56045   7.708   2.781   0.670  0.1470 -0.4143  0.3908
17163SOL    HW156046   7.771   2.712   0.688 -1.5489 -1.9594  0.7590
17163SOL    HW256047   7.744   2.828   0.595  1.8331 -1.0530  0.7597
17164SOL     OW56048   0.139   2.149   0.056 -0.2909 -0.0498  0.1097
17164SOL    HW156049   0.128   2.088   0.129 -1.7150 -1.1046 -0.9286
17164SOL    HW256050   0.226   2.130   0.021  0.4019  0.4622  1.4912
17165SOL     OW56051   0.486   5.354  10.397 -0.6142 -0.5349 -0.4550
17165SOL    HW156052   0.427   5.348  10.473 -0.9519  0.1953 -0.6479
17165SOL    HW256053   0.574   5.346  10.435 -0.8450 -2.5614 -0.2727
17166SOL     OW56054   2.008   4.669  10.458 -0.4739  0.4054 -0.0003
17166SOL    HW156055   1.936   4.712  10.505 -0.6203 -0.0511  0.1913
17166SOL    HW256056   1.966   4.618  10.389 -0.4096 -0.6457  0.7218
17167SOL     OW56057   3.484  10.907   6.918  0.0496 -0.3285  0.0028
17167SOL    HW156058   3.412  10.902   6.981  0.1244  1.2786  0.2668
17167SOL    HW256059   3.482  10.997   6.886  1.9458 -0.2265  0.0416
17168SOL     OW56060   6.699   4.812   5.296 -0.0228 -0.2303  0.5143
17168SOL    HW156061   6.728   4.781   5.210  1.8885  1.9125  0.2996
17168SOL    HW256062   6.614   4.852   5.279 -0.5973 -1.5694  0.0437
17169SOL     OW56063   8.514  10.278  10.209 -0.2727  0.0411 -0.3654
17169SOL    HW156064   8.471  10.317  10.285  1.0655  0.4112  0.2184
17169SOL    HW256065   8.480  10.327  10.135 -0.2057  0.9222  0.1661
17170SOL     OW56066   2.652   0.517   2.096 -0.7813 -0.1535 -0.3072
17170SOL    HW156067   2.715   0.588   2.105  0.0044 -0.8635 -0.0388
17170SOL    HW256068   2.670   0.459   2.170 -0.0118 -1.6710 -1.6047
17171SOL     OW56069   2.353   5.014   2.892  0.0263 -0.2853  0.0264
17171SOL    HW156070   2.273   5.058   2.864 -0.8154 -1.5517  0.3326
17171SOL    HW256071   2.408   5.083   2.928 -0.1264  0.9247 -1.8879
17172SOL     OW56072   9.915   9.475   6.613  0.0029  0.3520 -0.6891
17172SOL    HW156073   9.836   9.523   6.589 -0.0331  1.0174  0.6592
17172SOL    HW256074   9.985   9.519   6.565 -0.4626 -0.5514 -2.2852
17173SOL     OW56075   8.719  10.732   8.869  0.2115  0.0382 -0.1390
17173SOL    HW156076   8.690  10.715   8.958 -0.2605 -0.2744 -0.3461
17173SOL    HW256077   8.794  10.674   8.857  1.3062  1.2436  0.5800
17174SOL     OW56078   2.307   9.967   5.659 -0.0375  0.6169  0.8657
17174SOL    HW156079   2.338  10.021   5.733  0.1393  0.0463  1.2120
17174SOL    HW256080   2.387   9.927   5.624 -0.1915  0.4430  0.7148
17175SOL     OW56081  10.239   4.028  12.027  1.1824  0.2837 -0.3770
17175SOL    HW156082  10.294   4.106  12.019  1.5835  0.0298 -0.1608
17175SOL    HW256083  10.246   3.984  11.943  1.2369  0.3011 -0.3815
17176SOL     OW56084   2.575   7.123   9.018 -0.3219  0.2345  0.0875
17176SOL    HW156085   2.545   7.033   9.028 -1.0763  0.4779  0.1240
17176SOL    HW256086   2.566   7.141   8.924 -4.3401  1.6056  0.5309
17177SOL     OW56087   8.270  12.097  11.159 -0.0628 -0.2077  0.3927
17177SOL    HW156088   8.336  12.167  11.159  0.7207 -0.9380  0.3219
17177SOL    HW256089   8.189  12.142  11.137  0.6011  0.5346 -0.6834
17178SOL     OW56090  10.338   6.445  11.510 -0.5673  0.2221  0.5838
17178SOL    HW156091  10.427   6.412  11.522 -0.1698  0.4709 -1.3755
17178SOL    HW256092  10.326   6.509  11.580  0.9257  0.4249  0.6708
17179SOL     OW56093  11.771   1.988   6.242 -0.3130 -0.0798 -0.5930
17179SOL    HW156094  11.804   1.899   6.254  0.0712 -0.2143 -2.4041
17179SOL    HW256095  11.679   1.982   6.266  0.0298 -0.6253  0.6738
17180SOL     OW56096   3.577  11.930   1.243  0.1639 -0.4392 -0.3067
17180SOL    HW156097   3.523  11.982   1.183 -1.2620 -0.6763  0.7117
17180SOL    HW256098   3.626  11.871   1.186  1.1385  1.3739 -1.4276
17181SOL     OW56099   0.109   1.659   5.268  0.0878 -0.3199  0.1173
17181SOL    HW156100   0.172   1.731   5.264 -1.0081  0.6854  0.3077
17181SOL    HW256101   0.147   1.596   5.329  0.7540  0.4196  0.4793
17182SOL     OW56102   1.214   9.493   1.583  1.0397 -0.4523 -0.6971
17182SOL    HW156103   1.204   9.552   1.657  0.7354 -0.7161 -0.5265
17182SOL    HW256104   1.275   9.538   1.524  1.6071 -0.4269 -0.0969
17183SOL     OW56105   0.367  11.809   0.484 -0.0747  0.7838  0.9177
17183SOL    HW156106   0.398  11.719   0.485 -1.1700  0.3886  0.6003
17183SOL    HW256107   0.389  11.843   0.571 -0.3561 -0.0427  1.3225
17184SOL     OW56108  10.093   7.550   5.712  0.7532  0.2554  0.0535
17184SOL    HW156109  10.060   7.611   5.779  0.1089  0.6029 -0.5651
17184SOL    HW256110  10.062   7.464   5.742 -1.8353  0.6931 -1.1054
17185SOL     OW56111   5.718   7.775   5.346  0.1615  0.2618 -0.0611
17185SOL    HW156112   5.782   7.828   5.391 -1.1141  0.9941  0.9710
17185SOL    HW256113   5.767   7.729   5.278  1.4687  1.9550 -0.3007
17186SOL     OW56114   0.833  11.344   7.205 -0.1360  0.1068 -0.0290
17186SOL    HW156115   0.818  11.328   7.298 -3.5165 -0.7864 -0.6030
17186SOL    HW256116   0.857  11.436   7.200 -0.5187  0.3303  1.6745
17187SOL     OW56117   7.309  11.156   3.743  0.0369  0.3606  0.2352
17187SOL    HW156118   7.383  11.216   3.755 -0.6046  1.4434 -0.9456
17187SOL    HW256119   7.318  11.125   3.653  0.0464 -0.9165  0.6584
17188SOL     OW56120  10.809   2.191   2.434 -0.1861  0.6143 -0.6802
17188SOL    HW156121  10.746   2.262   2.443  1.3263  1.9797 -0.3171
17188SOL    HW256122  10.867   2.219   2.364 -0.2608 -0.8519 -1.3655
17189SOL     OW56123  10.608  11.298   7.705 -0.1115  0.0270  0.0274
17189SOL    HW156124  10.537  11.312   7.643 -1.0360  0.0358  1.0672
17189SOL    HW256125  10.643  11.212   7.683  0.7367  0.7552 -1.6197
17190SOL     OW56126   8.343   3.520   7.782 -0.1783  0.0499 -0.0542
17190SOL    HW156127   8.271   3.565   7.738  0.5093  0.1748 -1.0785
17190SOL    HW256128   8.422   3.559   7.745  0.4267 -0.1924  0.9421
17191SOL     OW56129   8.166   5.054  12.048  0.6725 -0.6809 -0.1432
17191SOL    HW156130   8.070   5.044  12.044  0.5223  0.4507  0.3885
17191SOL    HW256131   8.182   5.094  12.133  1.5569 -0.1395 -0.5508
17192SOL     OW56132   3.458  11.490   0.355 -0.1778  0.1168 -0.4029
17192SOL    HW156133   3.501  11.440   0.424  1.0842  0.5996 -0.8003
17192SOL    HW256134   3.427  11.569   0.398  2.5693  1.4896 -0.7087
17193SOL     OW56135   7.491   3.511   7.973  0.1844 -0.7847  0.0090
17193SOL    HW156136   7.581   3.485   7.956  0.5335  0.3676  0.0589
17193SOL    HW256137   7.450   3.514   7.887  0.2070 -1.2320 -0.0200
17194SOL     OW56138   6.944   6.674   1.212  0.1627  0.1269  0.1069
17194SOL    HW156139   6.985   6.626   1.140 -1.0212 -0.6978 -0.0403
17194SOL    HW256140   7.016   6.723   1.252  1.6648 -2.5712  0.9418
17195SOL     OW56141   6.787   9.978   6.946 -0.0045 -0.0554  0.2163
17195SOL    HW156142   6.778   9.884   6.931  0.7285  0.0377 -0.9859
17195SOL    HW256143   6.839  10.009   6.871  0.5586  1.1488  1.0715
17196SOL     OW56144   9.485   1.380   3.907  0.8636 -0.4252 -0.5263
17196SOL    HW156145   9.546   1.310   3.883  3.5108  2.0784 -1.7391
17196SOL    HW256146   9.476   1.373   4.002  2.3424 -1.4337 -0.4270
17197SOL     OW56147   3.027  10.855   0.313  0.2311 -0.2735  0.2809
17197SOL    HW156148   3.016  10.759   0.313 -1.5543 -0.1285 -1.1930
17197SOL    HW256149   2.944  10.888   0.347  0.7251  0.7598  0.4982
17198SOL     OW56150   2.361   4.467  10.759  1.0814  0.2193 -0.1696
17198SOL    HW156151   2.323   4.488  10.673 -0.3377 -2.9998 -0.4891
17198SOL    HW256152   2.289   4.481  10.820  1.5404  0.7746  0.2460
17199SOL     OW56153   9.461   3.141  11.717  0.0495 -0.0799 -0.5564
17199SOL    HW156154   9.392   3.077  11.733  0.2933 -0.8576 -2.3055
17199SOL    HW256155   9.540   3.088  11.706  0.7551  0.7334  0.4999
17200SOL     OW56156   4.259   2.034   8.283 -0.1762 -0.6587 -0.2092
17200SOL    HW156157   4.281   2.005   8.372 -2.3241 -0.1966  0.5278
17200SOL    HW256158   4.232   2.125   8.294  0.8290 -0.1625 -1.5899
17201SOL     OW56159   0.364  10.407   2.719 -0.5307  0.2279 -0.0453
17201SOL    HW156160   0.361  10.417   2.814 -2.3725  1.3402 -0.1945
17201SOL    HW256161   0.458  10.411   2.698 -0.2222  3.3020  1.4019
17202SOL     OW56162   6.230   4.985   1.710  0.1634  0.3263  0.2054
17202SOL    HW156163   6.176   5.001   1.633 -1.5592 -1.2018  1.0279
17202SOL    HW256164   6.199   5.049   1.775  2.1116  2.1101 -0.5292
17203SOL     OW56165   3.268   3.341   0.709  0.1130 -0.0751 -0.2895
17203SOL    HW156166   3.355   3.362   0.742 -0.0117 -0.3617  0.2312
17203SOL    HW256167   3.214   3.417   0.733  0.3460  0.3794 -1.1540
17204SOL     OW56168   8.223   8.792   9.218 -0.3835  0.4280  0.3912
17204SOL    HW156169   8.141   8.765   9.260 -0.3727 -0.4836 -0.1498
17204SOL    HW256170   8.224   8.745   9.135  0.8388  0.1769  0.5264
17205SOL     OW56171   7.581   9.030   4.996 -0.4762 -0.0996 -0.2819
17205SOL    HW156172   7.567   9.122   5.017 -0.5824 -0.2491  0.3326
17205SOL    HW256173   7.581   9.027   4.901  1.2752  0.8038 -0.3576
17206SOL     OW56174   6.498   2.515   7.014 -0.3033  0.1251 -0.3248
17206SOL    HW156175   6.531   2.456   6.946  3.1348  0.6652  0.6900
17206SOL    HW256176   6.462   2.589   6.966  0.5418 -0.2494 -1.5925
17207SOL     OW56177   4.699   7.955  11.374  0.3575 -0.5506 -0.5112
17207SOL    HW156178   4.711   7.946  11.280 -1.1357  1.6017 -0.9852
17207SOL    HW256179   4.716   8.047  11.392  1.1059 -1.0128  1.4327
17208SOL     OW56180   1.822   2.551   9.856 -0.2586 -0.0602 -0.2911
17208SOL    HW156181   1.869   2.469   9.837  0.9294  0.6749 -0.6354
17208SOL    HW256182   1.784   2.577   9.773 -1.4135 -0.7017  0.0060
17209SOL     OW56183   1.804   9.573   5.084  0.5129 -0.8727  0.1445
17209SOL    HW156184   1.870   9.548   5.020  0.8515 -0.7272  0.4308
17209SOL    HW256185   1.843   9.552   5.169  1.0506  1.0663  0.4464
17210SOL     OW56186   1.959  11.442   6.459 -0.4898 -0.3310  0.0207
17210SOL    HW156187   1.985  11.372   6.399 -0.3919 -0.1851 -0.1101
17210SOL    HW256188   2.040  11.488   6.479 -0.6549  0.2100 -0.4983
17211SOL     OW56189  11.809   6.215   3.173 -0.1696 -0.7440 -0.2743
17211SOL    HW156190  11.836   6.129   3.206  2.5940 -1.4272 -3.6956
17211SOL    HW256191  11.865   6.277   3.221 -1.2584 -0.9072  1.2746
17212SOL     OW56192   7.268  11.295   1.169 -0.0844 -0.4946  0.0750
17212SOL    HW156193   7.255  11.277   1.263  1.7651 -0.3807  0.3946
17212SOL    HW256194   7.359  11.324   1.163 -0.6335  1.0659 -1.5528
17213SOL     OW56195   2.352   8.817   0.333  0.1422  0.3519  0.1729
17213SOL    HW156196   2.298   8.753   0.379 -0.0886 -2.3760 -3.4953
17213SOL    HW256197   2.376   8.881   0.401 -2.4229 -1.7184  3.3283
17214SOL     OW56198  11.645   6.795   4.032 -0.1286  0.5474 -0.5638
17214SOL    HW156199  11.646   6.774   3.939  0.5702 -0.5897 -0.3238
17214SOL    HW256200  11.677   6.885   4.038 -0.5757  0.7686 -1.4432
17215SOL     OW56201   6.143   5.649   4.474 -0.0099 -0.2976 -0.0300
17215SOL    HW156202   6.112   5.573   4.524  0.1483  0.0913  0.6697
17215SOL    HW256203   6.194   5.700   4.537  1.4235 -0.5339 -0.9664
17216SOL     OW56204   7.868   5.698   6.441 -0.4292 -0.2885 -0.1778
17216SOL    HW156205   7.858   5.610   6.404 -0.9413  0.0400 -0.8370
17216SOL    HW256206   7.853   5.757   6.368 -3.6255  0.4623  0.9246
17217SOL     OW56207   0.733   0.356   5.444  0.5826 -0.6106 -0.1375
17217SOL    HW156208   0.761   0.272   5.409  1.6893  0.4008 -1.8229
17217SOL    HW256209   0.802   0.417   5.418 -0.0956  0.7970  1.2019
17218SOL     OW56210   6.756   3.216   9.304  0.0145  0.1769 -0.1713
17218SOL    HW156211   6.722   3.247   9.389  1.4777  0.2283  0.4266
17218SOL    HW256212   6.726   3.282   9.241 -0.9333  0.2405  0.3225
17219SOL     OW56213   7.364   9.530   4.985  0.1323 -0.1224 -0.3025
17219SOL    HW156214   7.335   9.498   5.070 -0.4498 -0.9662 -0.7991
17219SOL    HW256215   7.298   9.594   4.959 -0.4812 -0.9064 -0.7375
17220SOL     OW56216   6.063   7.452  11.723 -0.0161  0.2795 -0.1343
17220SOL    HW156217   6.081   7.546  11.710 -0.2848  0.1738 -1.4424
17220SOL    HW256218   6.147   7.415  11.748  0.4030  0.6696 -0.9034
17221SOL     OW56219   5.454   7.749  11.282 -0.2436  0.2836 -0.0351
17221SOL    HW156220   5.395   7.803  11.334 -1.1215 -0.3021 -0.3842
17221SOL    HW256221   5.448   7.662  11.321 -0.1176  0.0685 -0.4804
17222SOL     OW56222   7.808   6.402   2.834  0.1799  0.7025  0.4472
17222SOL    HW156223   7.867   6.470   2.800 -0.4423  2.2318  2.2409
17222SOL    HW256224   7.796   6.424   2.926 -3.7288  0.9572  0.0615
17223SOL     OW56225   6.737   9.280   8.593 -0.1942  0.3174 -0.4884
17223SOL    HW156226   6.796   9.319   8.657 -0.7588  1.2184 -0.5042
17223SOL    HW256227   6.788   9.208   8.555  0.5032  0.4050  0.2484
17224SOL     OW56228   6.116   8.677   2.850  0.4967 -0.1818 -0.2711
17224SOL    HW156229   6.072   8.693   2.767  0.6387 -1.5789 -0.6362
17224SOL    HW256230   6.044   8.664   2.913  0.3486  2.4966  0.2317
17225SOL     OW56231   8.314   3.905   1.135  0.4291  0.6702 -0.4541
17225SOL    HW156232   8.252   3.841   1.101 -1.4667  2.2172 -0.0703
17225SOL    HW256233   8.379   3.915   1.066 -0.0061 -0.6304 -1.0828
17226SOL     OW56234   7.888  10.718   8.790  0.2503  0.1265  0.2228
17226SOL    HW156235   7.816  10.752   8.737 -1.5549  0.3548  2.6771
17226SOL    HW256236   7.952  10.789   8.791  0.0796  0.3262 -1.1699
17227SOL     OW56237   2.664  10.587   9.966  0.7641 -0.0787  0.0304
17227SOL    HW156238   2.751  10.556   9.941  0.8164 -0.9305  1.2258
17227SOL    HW256239   2.673  10.682   9.971  1.2397 -0.0318 -1.2486
17228SOL     OW56240   9.191   5.997   4.520  0.0386  0.1533  0.0878
17228SOL    HW156241   9.273   5.965   4.558 -0.9106  0.1539  2.2839
17228SOL    HW256242   9.123   5.947   4.565 -1.2092 -0.0312 -1.8775
17229SOL     OW56243  10.985  10.257   4.611  0.1280 -0.2160  0.3585
17229SOL    HW156244  11.058  10.294   4.662  1.1577 -1.0060 -0.5023
17229SOL    HW256245  10.968  10.172   4.650  0.5197 -0.5683 -0.2204
17230SOL     OW56246   4.223  11.132  11.992  0.4264 -0.5290  0.0789
17230SOL    HW156247   4.130  11.136  12.012  0.1018 -2.9579 -0.6709
17230SOL    HW256248   4.248  11.224  11.978 -1.9910  0.1326 -0.3957
17231SOL     OW56249   4.174  11.973   4.070  0.0414 -0.0413  0.0491
17231SOL    HW156250   4.133  11.975   3.984  1.1789  2.0910 -0.4870
17231SOL    HW256251   4.106  11.938   4.128 -1.4680  0.4971 -1.3344
17232SOL     OW56252   7.382   8.676  11.624  0.0207  0.3665 -0.1332
17232SOL    HW156253   7.307   8.627  11.657  2.4268 -2.9866  0.8834
17232SOL    HW256254   7.396   8.641  11.536  0.0367  1.4502 -0.5769
17233SOL     OW56255   2.105   9.787   4.914 -0.5126 -0.4704 -0.2681
17233SOL    HW156256   2.090   9.854   4.981 -1.4278 -0.7724 -0.1630
17233SOL    HW256257   2.201   9.779   4.910 -0.4245  0.0233  0.5257
17234SOL     OW56258   4.906   0.162   5.585  0.6373 -0.3056  0.2784
17234SOL    HW156259   4.901   0.070   5.560  1.5384 -0.9423  2.2444
17234SOL    HW256260   4.993   0.190   5.556 -0.1417  0.3825 -1.5652
17235SOL     OW56261   7.750  11.586   4.434 -0.5161 -0.2745 -0.3579
17235SOL    HW156262   7.674  11.642   4.417 -0.1430  0.0609 -0.9274
17235SOL    HW256263   7.819  11.622   4.379 -0.3960 -1.5862 -1.0857
17236SOL     OW56264   9.410   0.853   9.213  0.7025 -0.0965 -0.2165
17236SOL    HW156265   9.330   0.898   9.186  0.8321  0.6880  0.6723
17236SOL    HW256266   9.381   0.767   9.242  0.1307  0.2896  0.3901
17237SOL     OW56267   5.763   0.721   7.938  0.1616  0.3577 -0.2415
17237SOL    HW156268   5.777   0.648   7.877 -0.6098  0.2945 -0.3548
17237SOL    HW256269   5.678   0.757   7.914  1.1622  2.2529 -1.1486
17238SOL     OW56270   2.452   0.844   6.138  0.0032  0.4133 -0.1211
17238SOL    HW156271   2.441   0.790   6.216 -2.3582  1.3973  0.3186
17238SOL    HW256272   2.458   0.933   6.171 -1.4372  0.8806 -1.0294
17239SOL     OW56273   4.512   6.532   4.688  0.5095  0.4916 -0.2286
17239SOL    HW156274   4.516   6.441   4.716  0.3862 -0.3979 -2.8209
17239SOL    HW256275   4.418   6.550   4.677  0.2015  2.1912  3.6854
17240SOL     OW56276   3.233  11.348   0.093  0.5651 -0.4404 -0.4359
17240SOL    HW156277   3.309  11.295   0.116  0.3433 -0.7890 -0.4868
17240SOL    HW256278   3.260  11.438   0.108 -0.2026 -0.6836  3.1857
17241SOL     OW56279  11.858   7.200  11.684 -0.1932  0.4747  0.9185
17241SOL    HW156280  11.791   7.209  11.752 -1.4999  0.2297 -0.2809
17241SOL    HW256281  11.868   7.289  11.648  1.0245  0.7479  1.8801
17242SOL     OW56282   2.591   3.464  11.029  0.0520 -0.4754 -0.4880
17242SOL    HW156283   2.549   3.396  11.082 -1.1712  0.9090  0.3995
17242SOL    HW256284   2.654   3.416  10.974  0.7645 -2.0696  1.5791
17243SOL     OW56285   3.703   2.224   2.636  0.8093 -1.0122  0.0472
17243SOL    HW156286   3.795   2.240   2.615  0.3928  0.3538 -0.8199
17243SOL    HW256287   3.656   2.239   2.555 -0.4494  0.8467  1.0466
17244SOL     OW56288   0.730  10.134   3.610  0.4351 -0.1834  0.2191
17244SOL    HW156289   0.642  10.130   3.574  0.4450 -0.7310  0.2532
17244SOL    HW256290   0.747  10.046   3.643  0.9629 -0.0592  0.2882
17245SOL     OW56291   1.600  10.671  10.733  0.0304  0.1544 -0.3961
17245SOL    HW156292   1.577  10.639  10.646 -2.1966  0.5026 -0.0046
17245SOL    HW256293   1.597  10.593  10.789 -1.1956  0.3272 -0.1919
17246SOL     OW56294   1.913   6.968   4.755 -0.1633  0.0068  0.1930
17246SOL    HW156295   1.827   6.933   4.779 -0.4442 -0.6606 -1.6719
17246SOL    HW256296   1.973   6.928   4.818 -1.0919 -0.1345  1.0235
17247SOL     OW56297  10.248   4.278   5.966 -0.3646 -0.4778 -0.1094
17247SOL    HW156298  10.174   4.272   6.027  1.4226 -1.3360  2.1368
17247SOL    HW256299  10.311   4.334   6.011  1.4008 -1.8685 -0.7442
17248SOL     OW56300   4.660   0.563   9.115 -0.3209 -0.3439  0.7519
17248SOL    HW156301   4.581   0.515   9.138 -0.2025 -0.0854  1.7139
17248SOL    HW256302   4.697   0.592   9.198  0.7670 -0.4225  0.3189
17249SOL     OW56303   0.989   5.025   8.836 -0.4608 -0.0517  0.2968
17249SOL    HW156304   0.910   4.999   8.883 -0.9324 -0.9313 -0.9419
17249SOL    HW256305   0.960   5.092   8.775 -0.7241 -1.7961 -1.6039
17250SOL     OW56306  11.450   2.390   9.643  0.1162 -0.0636 -0.0687
17250SOL    HW156307  11.522   2.355   9.590 -0.7312  0.1093 -1.3825
17250SOL    HW256308  11.390   2.316   9.653 -1.1336  0.6425 -1.8855
17251SOL     OW56309   9.266   4.123  11.816 -0.3756  0.7243  0.2845
17251SOL    HW156310   9.206   4.050  11.830  1.1497 -0.6275  0.0719
17251SOL    HW256311   9.311   4.134  11.901 -0.7822  1.6076  0.3960
17252SOL     OW56312   4.107   7.835   5.320 -0.2567 -0.6497  0.2943
17252SOL    HW156313   4.197   7.854   5.294 -0.0249  0.4159  1.7164
17252SOL    HW256314   4.115   7.788   5.403 -1.0024 -1.4638 -0.0749
17253SOL     OW56315   9.234  11.901  12.095  0.6433 -0.0814  0.0698
17253SOL    HW156316   9.223  11.808  12.115 -0.5017  0.2750  1.2801
17253SOL    HW256317   9.293  11.903  12.020 -0.8019 -1.8702 -1.2033
17254SOL     OW56318   3.193   2.334   7.807 -0.3316  0.1272  0.1296
17254SOL    HW156319   3.205   2.286   7.725  0.4326  0.2743  0.1411
17254SOL    HW256320   3.099   2.331   7.824 -0.4752 -0.0527 -0.6625
17255SOL     OW56321   4.179   0.198   3.870  0.2055  0.2265 -0.0189
17255SOL    HW156322   4.143   0.265   3.927  0.8846  1.7759 -1.3237
17255SOL    HW256323   4.115   0.190   3.799  0.7116  0.3896 -0.4996
17256SOL     OW56324   2.195   4.919   7.511 -0.1271  0.1006 -0.4171
17256SOL    HW156325   2.139   4.953   7.441 -1.1579  0.3066  0.4839
17256SOL    HW256326   2.141   4.852   7.554  0.5959 -0.2172  0.0057
17257SOL     OW56327   8.787   4.853   4.477 -0.6723  0.0892 -0.3065
17257SOL    HW156328   8.863   4.851   4.420 -1.0437  0.0104 -0.8076
17257SOL    HW256329   8.760   4.761   4.484  1.0209 -0.3219  2.2783
17258SOL     OW56330   5.234   8.336   3.127 -0.1705  0.6866  0.4551
17258SOL    HW156331   5.242   8.246   3.158  0.6652  0.6170  0.0372
17258SOL    HW256332   5.284   8.387   3.191 -1.1112  0.9444  1.0193
17259SOL     OW56333   2.329  11.892   0.084  0.5237 -0.6157 -0.1397
17259SOL    HW156334   2.401  11.906   0.145 -1.5698  1.5187  2.0145
17259SOL    HW256335   2.298  11.803   0.103  1.4563 -0.8907  0.1151
17260SOL     OW56336  10.356   5.951  10.327  0.1887  0.0004 -0.0118
17260SOL    HW156337  10.297   5.884  10.360 -0.9522 -0.8120 -3.3457
17260SOL    HW256338  10.301   6.029  10.319  0.9288  0.7504  1.5785
17261SOL     OW56339   1.098   7.620   3.973  0.2998 -0.0059  0.2374
17261SOL    HW156340   1.050   7.644   4.052 -0.6668  0.1193 -0.3754
17261SOL    HW256341   1.056   7.671   3.904  0.5059 -0.8407 -0.5168
17262SOL     OW56342   7.997   1.852   0.232 -0.2431  0.2734  0.4830
17262SOL    HW156343   7.942   1.931   0.236 -0.1931  0.4574 -1.4671
17262SOL    HW256344   7.935   1.780   0.230 -0.3312  0.3341  0.9694
17263SOL     OW56345   5.734   1.403   6.842 -0.2775  0.1257  0.6070
17263SOL    HW156346   5.650   1.433   6.807 -0.0553 -0.5276 -0.5010
17263SOL    HW256347   5.770   1.481   6.884 -0.6844  0.8561 -0.3624
17264SOL     OW56348   2.117   3.801  10.469 -0.3304  0.7093  0.4343
17264SOL    HW156349   2.099   3.893  10.452 -0.3992  0.6492  0.1774
17264SOL    HW256350   2.043   3.755  10.431 -0.7403  0.6026  1.3380
17265SOL     OW56351   9.816   5.030   5.845  0.0397 -0.3580 -0.5422
17265SOL    HW156352   9.791   4.955   5.791  1.7215 -0.6483 -0.9994
17265SOL    HW256353   9.855   5.092   5.783 -1.1295  0.8254 -0.1381
17266SOL     OW56354   6.892   0.655   7.519 -0.7793 -0.5819 -0.2208
17266SOL    HW156355   6.959   0.587   7.512 -2.8849 -2.6704 -2.4665
17266SOL    HW256356   6.883   0.688   7.429 -1.3684  1.0940  0.4191
17267SOL     OW56357   5.151   8.592   8.899 -0.5151 -0.1371 -0.0176
17267SOL    HW156358   5.133   8.515   8.954 -0.8043 -0.2504 -0.2710
17267SOL    HW256359   5.202   8.650   8.955 -0.0897 -0.6189  0.1015
17268SOL     OW56360   7.760   5.135   3.747 -0.3750 -0.0706  0.3638
17268SOL    HW156361   7.763   5.227   3.721 -0.6905 -0.0600  0.3597
17268SOL    HW256362   7.748   5.137   3.842 -0.5380 -0.1087  0.3435
17269SOL     OW56363   1.556   0.495   8.221  0.3752  0.8346  0.0093
17269SOL    HW156364   1.604   0.531   8.295  0.2854 -0.4530  0.7273
17269SOL    HW256365   1.502   0.568   8.190  0.5363  1.4491  1.1073
17270SOL     OW56366   8.960   5.024   7.415  0.4773 -0.4953 -0.0202
17270SOL    HW156367   8.916   4.989   7.494  0.6422  0.9384  0.7335
17270SOL    HW256368   8.890   5.067   7.366  1.1369  3.1121  1.9159
17271SOL     OW56369   1.562   3.855  11.277 -0.1148 -0.0110  0.2662
17271SOL    HW156370   1.514   3.783  11.235 -0.0462  0.1884 -0.1647
17271SOL    HW256371   1.581   3.823  11.365 -3.1198  0.7910  1.3400
17272SOL     OW56372   8.606   7.108   3.086 -0.2220  0.0361 -0.0785
17272SOL    HW156373   8.551   7.134   3.012 -1.5630  2.0780  1.4991
17272SOL    HW256374   8.627   7.016   3.070 -2.8253 -0.3962 -1.5578
17273SOL     OW56375  11.118  10.941   1.302 -0.0971  0.3210  0.0776
17273SOL    HW156376  11.194  10.897   1.339 -2.0352 -2.6272  0.9104
17273SOL    HW256377  11.055  10.947   1.374 -1.1421  1.5262 -0.8746
17274SOL     OW56378   2.685  11.855   5.641  0.0272  0.3551  0.1761
17274SOL    HW156379   2.630  11.813   5.575 -1.9137  2.5741  0.2742
17274SOL    HW256380   2.749  11.905   5.591 -1.2240  1.7579 -0.0675
17275SOL     OW56381   4.161   1.129   0.768  0.4465 -0.4389 -0.1466
17275SOL    HW156382   4.187   1.126   0.676  0.3275  0.7852 -0.2368
17275SOL    HW256383   4.144   1.221   0.785 -2.7093 -0.9528  0.2100
17276SOL     OW56384   9.542   6.778   2.899 -0.2607  0.1881  0.3510
17276SOL    HW156385   9.610   6.716   2.923  0.9230  0.8862 -1.0012
17276SOL    HW256386   9.589   6.858   2.875 -1.4941  0.5347 -1.1389
17277SOL     OW56387   7.230   1.203   7.477  0.4956  0.3190 -0.2738
17277SOL    HW156388   7.191   1.273   7.426 -0.6458 -0.7175 -0.8707
17277SOL    HW256389   7.323   1.206   7.456  0.6549  2.3056  0.5318
17278SOL     OW56390   9.739   9.382   0.193 -0.3918 -0.1541  0.2145
17278SOL    HW156391   9.779   9.307   0.150 -1.5577 -1.5976  1.5195
17278SOL    HW256392   9.690   9.427   0.123 -0.1553 -0.9514 -0.4751
17279SOL     OW56393   1.445   8.275   5.603  0.5328 -0.2490 -0.1082
17279SOL    HW156394   1.467   8.186   5.629  0.1964  0.2950  2.2323
17279SOL    HW256395   1.471   8.329   5.677 -0.4530  1.4645 -0.9470
17280SOL     OW56396   1.866   2.050  10.411 -0.0040 -0.4809 -0.5885
17280SOL    HW156397   1.867   1.970  10.463  1.1890 -0.1315 -0.0323
17280SOL    HW256398   1.892   2.022  10.323 -0.9152 -0.9032 -0.7261
17281SOL     OW56399  10.749   4.741   6.896  0.1242 -1.0175 -0.0855
17281SOL    HW156400  10.809   4.786   6.837 -1.8849  1.5504 -0.3773
17281SOL    HW256401  10.775   4.770   6.983 -1.4553  1.3154 -0.2995
17282SOL     OW56402  11.768   4.043   4.269  0.0235 -0.1426 -1.0736
17282SOL    HW156403  11.724   3.969   4.312  0.9688 -0.4643 -0.6130
17282SOL    HW256404  11.734   4.120   4.313 -3.2903  0.0175 -3.5786
17283SOL     OW56405   5.470   7.608   8.426 -0.1351 -0.0749  0.2278
17283SOL    HW156406   5.472   7.515   8.405  0.2438  0.0496 -0.3030
17283SOL    HW256407   5.409   7.615   8.500  1.3360 -0.9975  1.5723
17284SOL     OW56408  11.886   5.812  11.098 -0.0081 -0.4984  0.0095
17284SOL    HW156409  11.956   5.811  11.033 -1.6037  1.0297 -1.8824
17284SOL    HW256410  11.822   5.749  11.065 -0.0765 -0.9949  1.0580
17285SOL     OW56411   9.542   0.812  11.322 -0.4169 -0.1928  0.0051
17285SOL    HW156412   9.607   0.836  11.256  0.7601  2.6319  2.0018
17285SOL    HW256413   9.579   0.735  11.365  1.4220  1.0161  0.7152
17286SOL     OW56414  10.445   5.055   1.080 -0.3842  0.2887  0.3776
17286SOL    HW156415  10.485   5.020   1.160  0.6889  1.2481  0.2832
17286SOL    HW256416  10.433   4.978   1.024  0.7807 -0.1274  0.6633
17287SOL     OW56417  10.694   2.980  11.526  0.1439  0.2915 -0.3881
17287SOL    HW156418  10.636   2.940  11.461 -0.8947 -0.4079  0.9145
17287SOL    HW256419  10.782   2.956  11.498 -0.3764 -1.7772 -0.4442
17288SOL     OW56420   9.519   7.662   9.123  0.9094 -0.7505  0.1130
17288SOL    HW156421   9.453   7.604   9.160 -0.5895  0.4853 -0.4938
17288SOL    HW256422   9.545   7.620   9.041  0.1028 -0.7555 -0.1494
17289SOL     OW56423   7.845   7.586   0.223 -0.2371  0.3957 -0.0233
17289SOL    HW156424   7.932   7.621   0.246  0.3856  0.4864 -2.2920
17289SOL    HW256425   7.811   7.647   0.158 -1.2829 -0.5690 -0.4116
17290SOL     OW56426   5.872   2.811   5.422 -0.2540 -0.2022 -0.5148
17290SOL    HW156427   5.855   2.781   5.333  1.4535 -1.7641 -0.3764
17290SOL    HW256428   5.814   2.886   5.434 -1.0443 -0.4089 -2.6693
17291SOL     OW56429   3.046   9.897   2.374 -0.0484  0.5314  0.0138
17291SOL    HW156430   3.141   9.910   2.363  0.3174 -2.8133 -2.5478
17291SOL    HW256431   3.040   9.828   2.440 -0.6645  0.2269 -0.3604
17292SOL     OW56432   3.722   0.338   5.992  0.1110  0.6765  0.0308
17292SOL    HW156433   3.766   0.420   6.014 -2.0747  1.7611  0.6531
17292SOL    HW256434   3.755   0.316   5.904  1.2733  1.8083  0.1490
17293SOL     OW56435   8.551  12.060   2.331 -0.6017 -0.5690 -0.6320
17293SOL    HW156436   8.574  11.978   2.287 -0.9018 -0.9646 -0.0624
17293SOL    HW256437   8.456  12.060   2.334 -0.5841 -0.7959  0.4529
17294SOL     OW56438   9.912   4.459   2.027 -0.7879 -0.1780 -0.2974
17294SOL    HW156439   9.838   4.475   2.086 -0.1381  1.2504  0.1909
17294SOL    HW256440   9.980   4.520   2.057  1.2382 -2.5457  0.3515
17295SOL     OW56441   0.410   1.967   2.608 -0.2125  0.3664  0.2024
17295SOL    HW156442   0.437   2.027   2.539 -1.0866  1.4716  0.7820
17295SOL    HW256443   0.479   1.973   2.674 -0.2318  0.6577  0.1996
17296SOL     OW56444   8.814  12.053   0.616  0.0673 -0.5149 -0.0110
17296SOL    HW156445   8.786  12.137   0.652  1.3040  0.0666 -0.3423
17296SOL    HW256446   8.759  12.040   0.539  0.4388  0.4366 -0.4594
17297SOL     OW56447   8.778   3.031   3.217 -0.6297 -0.3202 -0.1364
17297SOL    HW156448   8.797   3.015   3.309 -1.8955  1.8451  0.5820
17297SOL    HW256449   8.864   3.041   3.175 -0.0615 -0.3199  1.0124
17298SOL     OW56450   0.744   2.008   6.856  0.6479  0.1903 -0.0535
17298SOL    HW156451   0.788   1.968   6.931 -1.3958 -0.2898  0.9736
17298SOL    HW256452   0.687   2.075   6.894 -0.9003 -0.4830 -1.0917
17299SOL     OW56453   8.413   1.186   8.258 -0.0974 -0.1066  0.0253
17299SOL    HW156454   8.484   1.231   8.303 -0.2033  0.3633 -0.2660
17299SOL    HW256455   8.419   1.095   8.288  0.3722  0.0142  0.3104
17300SOL     OW56456   4.221   6.403   2.648 -0.4416 -0.3862 -0.3945
17300SOL    HW156457   4.190   6.435   2.733 -1.6546 -1.7080 -0.3060
17300SOL    HW256458   4.145   6.358   2.611 -0.0251  0.4052 -2.3262
17301SOL     OW56459  11.099   9.625   5.778 -0.0890  0.1365  0.0375
17301SOL    HW156460  11.168   9.639   5.842 -0.1309 -2.0147  0.6213
17301SOL    HW256461  11.140   9.644   5.694  1.3214 -1.2458  0.3605
17302SOL     OW56462  11.616  11.716  10.356 -0.5388  0.4152  0.5576
17302SOL    HW156463  11.538  11.770  10.339 -0.1088  0.6907 -0.6421
17302SOL    HW256464  11.687  11.779  10.365  0.5505  0.1149 -3.8351
17303SOL     OW56465   6.260   3.554  10.112 -0.1300 -0.1341 -0.0813
17303SOL    HW156466   6.295   3.602  10.187  0.8393 -0.4639 -0.3026
17303SOL    HW256467   6.168   3.540  10.133 -0.6414  2.3751 -0.2892
17304SOL     OW56468   1.074   9.186   7.194 -0.7272 -0.3183  0.2819
17304SOL    HW156469   1.094   9.148   7.279  0.9814 -0.9785 -0.3671
17304SOL    HW256470   0.987   9.224   7.204 -0.2406  0.3242  2.5453
17305SOL     OW56471  10.904   4.887   1.952  0.4200  0.6139 -0.3179
17305SOL    HW156472  10.898   4.952   2.022  2.3216  0.2646  0.2208
17305SOL    HW256473  10.857   4.927   1.879 -0.3026  1.6504  0.6731
17306SOL     OW56474   2.468   8.720   6.174 -0.0258 -0.6169 -0.0923
17306SOL    HW156475   2.395   8.772   6.207  0.4958 -0.5143  0.9263
17306SOL    HW256476   2.427   8.638   6.143 -0.7467  0.0638 -1.0039
17307SOL     OW56477   6.503  10.119   4.123  0.0565  0.6953 -0.2915
17307SOL    HW156478   6.593  10.149   4.110  0.3396  0.4930  1.0642
17307SOL    HW256479   6.486  10.061   4.049  0.7455  1.3905 -1.0089
17308SOL     OW56480   1.542   1.549   8.192  0.3986 -0.0582 -0.5319
17308SOL    HW156481   1.600   1.524   8.264 -1.6131 -0.5787  1.0218
17308SOL    HW256482   1.522   1.641   8.209  0.9963  0.2144 -1.2534
17309SOL     OW56483   2.212   7.324   9.589  0.2551 -0.2082  0.0619
17309SOL    HW156484   2.190   7.409   9.627 -0.5666 -0.7451  0.8485
17309SOL    HW256485   2.243   7.344   9.501 -0.8746  0.8453 -0.1276
17310SOL     OW56486   9.012   8.083   0.735 -0.7265 -0.0502  0.1846
17310SOL    HW156487   9.019   8.130   0.652 -2.7328  1.1067  0.6033
17310SOL    HW256488   8.980   7.996   0.710  0.6450 -0.4171 -0.3898
17311SOL     OW56489   1.282   3.730   5.570  0.1104 -0.2417 -0.0627
17311SOL    HW156490   1.327   3.683   5.641 -0.1174  2.3437  1.9393
17311SOL    HW256491   1.190   3.705   5.579  0.0473  0.2488  0.7291
17312SOL     OW56492  11.219   9.740   1.224 -0.1462  0.0909  0.4171
17312SOL    HW156493  11.198   9.688   1.146 -1.0176 -0.0417  0.7281
17312SOL    HW256494  11.142   9.731   1.280  0.8817 -0.6845  1.7693
17313SOL     OW56495   7.508  11.233   9.826 -0.0327  0.1356  0.3730
17313SOL    HW156496   7.513  11.220   9.921 -0.1887  1.5198  0.5890
17313SOL    HW256497   7.438  11.174   9.798 -2.5869  2.2705  1.7005
17314SOL     OW56498   1.844  10.331   4.765 -0.3562 -0.1540 -0.2100
17314SOL    HW156499   1.909  10.398   4.788  0.2412 -0.7817 -0.0332
17314SOL    HW256500   1.896  10.254   4.742 -1.0289 -1.1202  1.2985
17315SOL     OW56501   7.768   1.982   5.250  0.6362  0.0726 -0.6498
17315SOL    HW156502   7.806   2.006   5.166  1.3816  1.2503  0.0020
17315SOL    HW256503   7.715   2.057   5.276 -0.9227 -0.9240 -0.8067
17316SOL     OW56504   1.729   4.110   5.786  0.2343  0.4884 -0.3033
17316SOL    HW156505   1.755   4.190   5.741 -0.7572  0.9209 -0.1398
17316SOL    HW256506   1.682   4.140   5.864  2.6572 -0.2298  1.5666
17317SOL     OW56507   1.341   4.885   3.290 -0.0935  0.3790  0.4994
17317SOL    HW156508   1.326   4.818   3.357 -0.9262 -0.0671 -0.1132
17317SOL    HW256509   1.339   4.837   3.207  0.6463  0.9634  0.1357
17318SOL     OW56510   1.164   0.021  10.560 -0.2455 -0.1659 -0.2492
17318SOL    HW156511   1.078   0.008  10.519  0.1388 -1.1988 -0.7746
17318SOL    HW256512   1.154  -0.014  10.649 -0.8173  1.2363  0.2723
17319SOL     OW56513   2.279  10.915   0.184  0.2908  0.1745 -0.4372
17319SOL    HW156514   2.317  10.835   0.149  1.0530 -1.0054  2.6894
17319SOL    HW256515   2.350  10.979   0.180  0.3395  0.0884 -1.0445
17320SOL     OW56516   2.472   4.941   3.904  0.2083  0.2203  0.0418
17320SOL    HW156517   2.389   4.898   3.885  1.7377 -3.0677  0.0548
17320SOL    HW256518   2.484   4.930   3.998  0.7332  0.4774  0.0080
17321SOL     OW56519  10.628   6.388   5.026 -0.2573  0.2287  0.2933
17321SOL    HW156520  10.568   6.343   5.086 -0.7844 -0.4953 -0.7185
17321SOL    HW256521  10.713   6.348   5.043 -0.6318 -0.8610 -0.2555
17322SOL     OW56522   0.304   3.460   0.052 -0.0988  0.1278  0.1447
17322SOL    HW156523   0.250   3.533   0.084  0.2723  0.2969  0.3997
17322SOL    HW256524   0.335   3.489  -0.033 -0.5764 -0.0573 -0.0957
17323SOL     OW56525   2.241   4.503   6.020 -0.5829 -0.8422  0.6324
17323SOL    HW156526   2.173   4.570   6.020  0.4724  0.3114 -1.2116
17323SOL    HW256527   2.321   4.550   6.041  0.2508 -1.3824 -1.1515
17324SOL     OW56528   9.337   9.777   9.983  0.1157 -0.1071 -0.1890
17324SOL    HW156529   9.289   9.846   9.935  1.9427  0.8414 -0.7275
17324SOL    HW256530   9.370   9.822  10.061 -0.6417 -1.0066  0.6839
17325SOL     OW56531   3.903   4.426   2.476 -0.2582 -0.3945  0.6928
17325SOL    HW156532   3.893   4.504   2.422  0.2642 -0.9462 -0.2248
17325SOL    HW256533   3.857   4.447   2.557 -1.5278  0.2651 -0.1575
17326SOL     OW56534   2.079  10.608   1.661  0.3180  0.2370  0.2104
17326SOL    HW156535   2.155  10.552   1.643  1.1933  1.0236  1.2671
17326SOL    HW256536   2.088  10.681   1.600  0.6266  0.5054  0.5684
17327SOL     OW56537   4.969   7.581   6.910  0.3187  0.8725 -0.0026
17327SOL    HW156538   4.976   7.645   6.839  2.6334  0.4818 -0.2075
17327SOL    HW256539   4.902   7.617   6.969  0.6684  2.8458 -0.7478
17328SOL     OW56540   6.703   9.101   5.728  0.0415 -0.0389 -0.1526
17328SOL    HW156541   6.607   9.110   5.728  0.1694  1.8074 -0.0953
17328SOL    HW256542   6.721   9.030   5.789 -1.2866 -0.2141  0.0662
17329SOL     OW56543   6.628   6.472   8.947  0.2755  0.3517  0.8641
17329SOL    HW156544   6.690   6.518   8.890  0.3052 -0.7735 -0.0416
17329SOL    HW256545   6.579   6.415   8.887  1.6085 -2.3289  2.1814
17330SOL     OW56546   4.136   4.500   6.157  0.4436  0.0082 -0.2170
17330SOL    HW156547   4.109   4.513   6.248  0.5769 -1.0655 -0.0208
17330SOL    HW256548   4.227   4.472   6.162  0.2051 -0.8546 -0.6320
17331SOL     OW56549   2.743  11.471   8.129  0.2774  0.2998  0.5525
17331SOL    HW156550   2.750  11.555   8.085  0.8584 -0.3969 -0.7321
17331SOL    HW256551   2.832  11.435   8.127 -0.1299 -0.7203  0.3206
17332SOL     OW56552   3.952   3.304   1.897 -0.0212  0.8610  0.4552
17332SOL    HW156553   3.870   3.260   1.874  0.1494  0.8232 -0.0922
17332SOL    HW256554   4.013   3.280   1.827  0.4040  1.0468  0.7532
17333SOL     OW56555   8.273   5.523   4.160  0.1566  0.4541 -0.3120
17333SOL    HW156556   8.275   5.429   4.142  1.0522  0.2188  0.8662
17333SOL    HW256557   8.350   5.558   4.114 -1.9603  1.2571 -3.6247
17334SOL     OW56558   0.423  10.653  11.490 -0.0025  0.5400 -0.5462
17334SOL    HW156559   0.478  10.668  11.567 -1.3826  0.7428  0.4337
17334SOL    HW256560   0.358  10.723  11.493 -0.7933 -0.1504 -1.2233
17335SOL     OW56561  10.288  10.604  10.796 -0.3592 -0.0476 -0.2501
17335SOL    HW156562  10.235  10.646  10.863 -0.6270  0.2171 -0.6203
17335SOL    HW256563  10.319  10.523  10.836 -2.4778 -1.1085 -0.5757
17336SOL     OW56564  10.412   4.696  11.152 -0.0069  0.5279 -0.2177
17336SOL    HW156565  10.366   4.779  11.144 -2.5372 -0.8434 -0.7772
17336SOL    HW256566  10.401   4.670  11.243 -1.5220 -0.3909 -0.6293
17337SOL     OW56567   9.454   0.627   9.035  0.0584  0.1421 -0.2655
17337SOL    HW156568   9.515   0.583   9.095 -0.4149  1.3674  1.2024
17337SOL    HW256569   9.450   0.717   9.068 -0.3883  0.8133 -2.0642
17338SOL     OW56570   1.849   1.121   4.620 -0.2748 -0.3552 -0.1212
17338SOL    HW156571   1.906   1.049   4.592 -0.0918  0.2667 -1.4235
17338SOL    HW256572   1.810   1.153   4.539 -1.8449 -0.2171  0.6563
17339SOL     OW56573   0.156   3.507   4.303 -0.8950 -0.3401  0.4496
17339SOL    HW156574   0.205   3.491   4.384 -4.1919  0.2641  2.7855
17339SOL    HW256575   0.143   3.602   4.302  0.2059 -0.1636 -1.5869
17340SOL     OW56576   4.151   2.992   8.857  0.3977  0.3287 -0.1380
17340SOL    HW156577   4.136   3.040   8.939  2.1599 -0.0343  0.4347
17340SOL    HW256578   4.113   2.905   8.873  1.3825  0.0149  0.5950
17341SOL     OW56579  10.402  10.635   6.630 -0.2001  0.0987  0.0820
17341SOL    HW156580  10.457  10.631   6.553 -1.2318  1.2311 -0.7400
17341SOL    HW256581  10.443  10.574   6.692 -0.1101 -1.9150 -1.8179
17342SOL     OW56582  11.804   8.260   7.976  0.1844 -0.1268  0.3208
17342SOL    HW156583  11.759   8.247   8.059 -1.4685  0.0287 -0.5075
17342SOL    HW256584  11.784   8.181   7.925  1.7527 -0.5397  0.2919
17343SOL     OW56585   4.543   0.191  11.182  0.2346  0.2620  0.9561
17343SOL    HW156586   4.531   0.282  11.155  1.1286 -0.0598 -0.6486
17343SOL    HW256587   4.454   0.159  11.199 -0.0623  1.5171  1.9128
17344SOL     OW56588  11.970   6.335   9.753 -0.3922 -0.0269  0.4325
17344SOL    HW156589  11.905   6.330   9.822 -0.9261 -3.0869 -0.1790
17344SOL    HW256590  11.922   6.311   9.673  0.8373  0.6601 -0.5503
17345SOL     OW56591   9.511  11.788   1.567 -0.2673 -0.4103  0.2078
17345SOL    HW156592   9.459  11.742   1.501 -0.4138 -0.0583  0.0768
17345SOL    HW256593   9.583  11.828   1.518 -0.0705 -0.6048  0.3393
17346SOL     OW56594   8.471   1.927   9.427  0.1890 -0.2025 -0.2440
17346SOL    HW156595   8.543   1.971   9.472  0.3936 -0.8613  0.0966
17346SOL    HW256596   8.398   1.988   9.432 -0.3849 -0.9625  2.6698
17347SOL     OW56597  10.603   4.874   8.296 -0.5675  0.2467  0.1655
17347SOL    HW156598  10.520   4.921   8.300  0.2901  1.9320 -0.9239
17347SOL    HW256599  10.645   4.906   8.217 -0.1526 -2.8149 -0.9917
17348SOL     OW56600   6.486   4.401   8.659  0.1516 -0.7483 -0.6099
17348SOL    HW156601   6.404   4.391   8.610 -0.4110 -0.5084  0.2506
17348SOL    HW256602   6.458   4.407   8.750  1.1669 -1.0639 -0.2654
17349SOL     OW56603  10.072   7.908   5.798 -0.2366 -0.3535  0.3975
17349SOL    HW156604  10.101   7.858   5.874  3.1665  1.9550  0.8019
17349SOL    HW256605  10.013   7.974   5.834  0.3832 -0.0474  0.8606
17350SOL     OW56606   2.492   9.230   1.847 -0.5066  0.2104  0.2362
17350SOL    HW156607   2.564   9.287   1.875 -1.3124 -0.0905  3.2671
17350SOL    HW256608   2.489   9.240   1.752  2.8324  1.0367  0.1026
17351SOL     OW56609   0.788  11.142   5.169 -0.3793 -0.5221  0.2176
17351SOL    HW156610   0.754  11.216   5.119  0.5478 -0.0059  0.3316
17351SOL    HW256611   0.720  11.125   5.235 -0.1053  0.9814  0.9370
17352SOL     OW56612   0.237   3.603   5.316 -0.6180 -0.0942 -0.1056
17352SOL    HW156613   0.213   3.695   5.307 -1.7497 -0.2884  0.6825
17352SOL    HW256614   0.217   3.564   5.231  0.0363  0.4117 -0.5001
17353SOL     OW56615   8.842   0.314   6.735  0.3855  0.5431 -0.1992
17353SOL    HW156616   8.793   0.251   6.788 -0.6673  1.6649  0.2025
17353SOL    HW256617   8.776   0.374   6.701  1.3901  1.7270 -0.1642
17354SOL     OW56618   0.737   3.562   2.858  0.1530  0.3037  0.3651
17354SOL    HW156619   0.670   3.525   2.916 -0.1296 -0.3501 -0.3649
17354SOL    HW256620   0.819   3.522   2.886 -0.1074 -0.6786 -0.2244
17355SOL     OW56621   6.017   5.455   6.192 -0.5747  0.3033 -0.6141
17355SOL    HW156622   5.975   5.370   6.202  0.0273  0.1196  0.5283
17355SOL    HW256623   6.090   5.453   6.254  0.5604  0.9588 -1.8697
17356SOL     OW56624  10.809   3.836   8.659  0.6153  0.4999 -0.0553
17356SOL    HW156625  10.810   3.848   8.564  0.4008  0.9803  0.0009
17356SOL    HW256626  10.720   3.861   8.685  0.6607  0.3292  0.2677
17357SOL     OW56627   0.342   1.216  10.744 -0.0174 -0.0596  0.0866
17357SOL    HW156628   0.291   1.203  10.824 -0.3847 -0.2226 -0.1711
17357SOL    HW256629   0.280   1.255  10.683 -0.4564 -2.2202 -0.9379
17358SOL     OW56630   1.945   3.477   3.830  0.1104 -0.4818 -0.5042
17358SOL    HW156631   1.856   3.506   3.810  0.4137  0.4922 -0.4836
17358SOL    HW256632   1.980   3.447   3.746  0.0651 -0.0092 -0.6975
17359SOL     OW56633   4.766   3.697   8.162 -0.0791  0.7919 -0.9837
17359SOL    HW156634   4.728   3.611   8.182  2.4876 -0.9807 -2.9676
17359SOL    HW256635   4.817   3.720   8.239 -1.6449  1.1276 -0.0084
17360SOL     OW56636   2.341  11.161   2.830  0.2577 -0.3024 -0.1133
17360SOL    HW156637   2.343  11.081   2.883  0.5874 -0.7746 -0.8251
17360SOL    HW256638   2.408  11.147   2.763 -0.1234  0.3089 -0.6324
17361SOL     OW56639   9.507   2.243   5.228  0.1675  1.5823 -0.5225
17361SOL    HW156640   9.577   2.211   5.172 -0.1841  0.4701 -0.3563
17361SOL    HW256641   9.460   2.307   5.174  0.1887  0.9644 -1.2948
17362SOL     OW56642   9.612   6.624   1.454 -0.3916  0.4775  0.6798
17362SOL    HW156643   9.641   6.713   1.438 -1.2448  0.5828 -0.3429
17362SOL    HW256644   9.664   6.571   1.394 -0.2663  0.3414  0.9057
17363SOL     OW56645  11.274   1.126   5.473  0.3662 -0.1405  0.2822
17363SOL    HW156646  11.339   1.112   5.404 -0.0654  0.3807 -0.2455
17363SOL    HW256647  11.225   1.203   5.444  0.2001  0.1114  1.1924
17364SOL     OW56648   1.355   4.999  10.754  0.3029  0.2649 -0.1762
17364SOL    HW156649   1.366   5.064  10.685  0.4197  1.3861  0.8683
17364SOL    HW256650   1.378   4.916  10.712  0.9345  0.9859 -1.3269
17365SOL     OW56651   0.236   1.073   1.505  0.8188  0.4907 -0.5120
17365SOL    HW156652   0.260   1.063   1.598 -0.9056 -0.2063 -0.1118
17365SOL    HW256653   0.216   0.985   1.476 -0.6333  0.9548 -0.9746
17366SOL     OW56654   5.475   7.621   4.624  0.2277 -0.2489  0.5065
17366SOL    HW156655   5.558   7.640   4.668  0.1077  1.0683  0.2175
17366SOL    HW256656   5.466   7.691   4.558 -1.9893  0.8058  1.7955
17367SOL     OW56657   0.645   3.054   3.081 -0.3762  0.1098  0.2942
17367SOL    HW156658   0.711   3.076   3.146  0.9744  0.7165 -1.1942
17367SOL    HW256659   0.653   3.124   3.015 -1.1272 -0.8751 -0.8869
17368SOL     OW56660   3.314   2.170   7.535 -0.1608  0.0685 -0.1238
17368SOL    HW156661   3.396   2.159   7.488 -0.4871  0.0860 -0.7044
17368SOL    HW256662   3.270   2.242   7.491 -1.3926 -1.2286 -1.1379
17369SOL     OW56663   1.593   2.546   1.883  0.3597  0.1129  0.0949
17369SOL    HW156664   1.533   2.527   1.956  0.7150  0.6501  0.5315
17369SOL    HW256665   1.670   2.583   1.925  0.8486 -0.2156 -0.5021
17370SOL     OW56666   1.941   2.898  11.344  0.6102 -0.5347  0.2770
17370SOL    HW156667   1.896   2.908  11.260  1.2883  1.1905  0.0732
17370SOL    HW256668   2.034   2.893  11.321  0.8043 -0.0005  0.9260
17371SOL     OW56669   0.852   4.168   7.960  0.3762  0.5201 -0.3056
17371SOL    HW156670   0.865   4.131   7.873 -1.3766  1.6956 -1.1189
17371SOL    HW256671   0.841   4.262   7.945 -2.4425  0.4745  0.8335
17372SOL     OW56672   8.417   1.165   3.506 -0.1965  0.3697 -0.0052
17372SOL    HW156673   8.404   1.150   3.412 -2.1810  0.4786  0.2202
17372SOL    HW256674   8.381   1.087   3.548  3.0743 -0.9601  0.6489
17373SOL     OW56675   6.516   5.104   9.328  0.2203 -0.3558  0.0040
17373SOL    HW156676   6.517   5.121   9.234 -0.7315 -0.6816 -0.0680
17373SOL    HW256677   6.466   5.024   9.338  0.9545 -0.7410  0.7329
17374SOL     OW56678  11.434   5.968   3.824 -0.2650 -0.1169 -0.6011
17374SOL    HW156679  11.480   6.036   3.775 -1.6006  0.8749 -0.5448
17374SOL    HW256680  11.407   5.904   3.758  1.0804 -0.6825 -0.6409
17375SOL     OW56681   4.499   9.443   0.556  0.6078  0.2840  0.0276
17375SOL    HW156682   4.443   9.520   0.541  0.0917 -0.1379 -0.2687
17375SOL    HW256683   4.437   9.372   0.573  1.0804 -0.0790  0.2470
17376SOL     OW56684   5.499   4.054   9.631  0.5737 -0.3010 -0.5042
17376SOL    HW156685   5.415   4.017   9.657  0.9283 -0.2542  0.7496
17376SOL    HW256686   5.522   4.007   9.550 -0.5729 -0.4218 -0.7677
17377SOL     OW56687   2.779   1.673   0.360 -1.1402 -1.2109  0.2450
17377SOL    HW156688   2.689   1.644   0.348 -0.9750 -1.6705  0.0926
17377SOL    HW256689   2.805   1.707   0.275 -1.4849 -0.1597  0.5409
17378SOL     OW56690   3.842   4.197  10.072  0.2119  0.1242  0.6113
17378SOL    HW156691   3.826   4.290  10.092  0.5154  1.0300 -2.8299
17378SOL    HW256692   3.934   4.195  10.045 -0.3163 -0.8020 -1.1982
17379SOL     OW56693   1.689   5.195  10.092 -0.0885  0.4574  0.1732
17379SOL    HW156694   1.649   5.143  10.161  0.0291 -0.7238 -0.6245
17379SOL    HW256695   1.627   5.190  10.018  0.3369  0.7204 -0.2100
17380SOL     OW56696   0.184   9.858  10.400  0.1503  0.0067 -0.0147
17380SOL    HW156697   0.247   9.810  10.453  1.3213  1.4651 -0.0370
17380SOL    HW256698   0.136   9.913  10.462 -0.3276 -0.2575 -0.1433
17381SOL     OW56699  10.187  10.952   6.060 -0.3838  0.1454 -0.0260
17381SOL    HW156700  10.172  10.937   6.153  1.0622  1.7074  0.5012
17381SOL    HW256701  10.257  10.892   6.036 -0.1551  0.3560  0.1109
17382SOL     OW56702  10.319   0.359   2.969  0.4734 -0.8160  0.4451
17382SOL    HW156703  10.363   0.275   2.955  0.5573 -0.7954  0.5836
17382SOL    HW256704  10.245   0.339   3.026 -0.6749 -1.1368 -1.0914
17383SOL     OW56705   7.738   7.442  11.505  0.3722  0.2845  0.1168
17383SOL    HW156706   7.751   7.446  11.599  1.6712 -0.6207 -0.0042
17383SOL    HW256707   7.686   7.362  11.492 -0.0407  0.5541  0.0709
17384SOL     OW56708   6.314   4.823   3.743  0.3775  0.3202 -0.2794
17384SOL    HW156709   6.306   4.885   3.815 -2.1727  1.9288 -1.7860
17384SOL    HW256710   6.331   4.738   3.785  1.3623  1.5570  1.9898
17385SOL     OW56711   9.176  10.311   7.491  0.6483 -0.0945 -0.1236
17385SOL    HW156712   9.231  10.385   7.515 -0.1960  1.0854 -1.6630
17385SOL    HW256713   9.093  10.350   7.464 -0.2216 -1.6880  0.1224
17386SOL     OW56714   9.813   7.207   2.232 -0.1274  0.1499  0.2391
17386SOL    HW156715   9.778   7.136   2.178  0.9078 -0.4780  0.3799
17386SOL    HW256716   9.882   7.166   2.285 -0.8090  0.8314  1.7394
17387SOL     OW56717   5.269   5.013   4.304  0.4609  0.2804 -0.3012
17387SOL    HW156718   5.268   4.980   4.394  0.7133  2.1885  0.4503
17387SOL    HW256719   5.241   5.104   4.312  0.1779  0.3892 -2.2144
17388SOL     OW56720  11.084   7.199   1.647  0.2815 -0.1805  0.4428
17388SOL    HW156721  11.014   7.143   1.614  0.3497 -1.5894  2.5032
17388SOL    HW256722  11.152   7.138   1.675  0.4618  0.9129  2.5630
17389SOL     OW56723   8.071   1.329   8.564 -0.3441  0.0711  0.4945
17389SOL    HW156724   8.104   1.239   8.568 -2.7862 -0.8543  1.4856
17389SOL    HW256725   8.102   1.369   8.645  0.5105  0.0530  0.1884
17390SOL     OW56726   2.541   6.505   6.746  0.4547  0.1247  0.1464
17390SOL    HW156727   2.603   6.503   6.818  0.3193 -1.7638  0.2580
17390SOL    HW256728   2.518   6.597   6.736 -0.2645  0.3646  3.1608
17391SOL     OW56729   4.385  11.773   4.154 -0.0486  0.5579  0.3947
17391SOL    HW156730   4.427  11.853   4.186 -0.4660  0.1204  2.1518
17391SOL    HW256731   4.302  11.802   4.116  1.1154  1.2607 -1.8143
17392SOL     OW56732   8.341   0.968   3.972 -0.0713  0.1851 -0.2942
17392SOL    HW156733   8.304   1.034   4.029  0.6623 -0.3900  0.8747
17392SOL    HW256734   8.432   0.995   3.958  0.4960 -0.9752  0.8958
17393SOL     OW56735   0.667   4.464   7.070  0.0435 -1.0357  0.0319
17393SOL    HW156736   0.726   4.515   7.015 -0.2514 -2.3044 -1.5535
17393SOL    HW256737   0.724   4.412   7.126  0.3611 -0.2274  0.4767
17394SOL     OW56738   6.553   2.998   2.154 -0.0256 -0.1602  0.6429
17394SOL    HW156739   6.609   2.972   2.081 -0.1536  1.8591 -0.2424
17394SOL    HW256740   6.470   2.954   2.137 -1.1414  2.6202 -2.3265
17395SOL     OW56741   0.699   0.236   1.704  0.8532 -0.1175 -0.3646
17395SOL    HW156742   0.627   0.257   1.644  1.8889  3.3786 -0.6045
17395SOL    HW256743   0.753   0.315   1.705  1.8789 -0.6438  3.8730
17396SOL     OW56744   9.547   7.411  10.507 -0.3540 -0.1221  0.3012
17396SOL    HW156745   9.519   7.396  10.598  0.2565  1.1200  0.7139
17396SOL    HW256746   9.530   7.328  10.463  0.4428 -1.1402  1.8261
17397SOL     OW56747   1.809   8.350   3.213 -0.4623 -0.4086 -0.0540
17397SOL    HW156748   1.793   8.267   3.257 -1.3437 -0.4110 -0.3614
17397SOL    HW256749   1.897   8.342   3.177 -0.4223 -1.0868  0.1888
17398SOL     OW56750   9.713   1.430   9.314  0.3401  0.6914 -0.0348
17398SOL    HW156751   9.800   1.437   9.276  0.3709  2.9701  0.3463
17398SOL    HW256752   9.729   1.428   9.409  0.1138 -2.3646  0.0390
17399SOL     OW56753   8.715   7.805  11.494 -0.5546  0.0334  0.0785
17399SOL    HW156754   8.747   7.737  11.435 -0.3925  0.0676  0.1260
17399SOL    HW256755   8.650   7.760  11.549 -0.1011 -0.2047  0.4309
17400SOL     OW56756   5.446  10.124  10.051  0.3460 -0.4935  0.2778
17400SOL    HW156757   5.361  10.109  10.093  0.1030  0.9246  0.3220
17400SOL    HW256758   5.500  10.051  10.082  0.3131  0.6825  3.4724
17401SOL     OW56759  10.576  10.478   7.854  0.3315 -0.2020  0.0262
17401SOL    HW156760  10.655  10.425   7.868 -1.4658 -3.3390 -0.6796
17401SOL    HW256761  10.572  10.489   7.759  0.0575  0.1948  0.0823
17402SOL     OW56762   9.482   9.500   1.685 -0.0571 -0.5116 -0.6201
17402SOL    HW156763   9.487   9.595   1.689  0.8096 -0.5407 -0.7480
17402SOL    HW256764   9.390   9.480   1.700 -0.3618  0.3793 -1.2262
17403SOL     OW56765  10.489  10.133   9.728  0.1423  0.4070 -0.1447
17403SOL    HW156766  10.532  10.196   9.670  1.0040 -0.5343 -0.5733
17403SOL    HW256767  10.473  10.057   9.673 -1.0379  0.2998  0.3187
17404SOL     OW56768   9.139   6.887   8.088 -0.4745  0.1131 -0.0371
17404SOL    HW156769   9.218   6.906   8.140  0.4345  0.1843 -1.3801
17404SOL    HW256770   9.090   6.824   8.141 -0.1287  0.9699  1.3727
17405SOL     OW56771   5.152   3.474   9.620  0.5917 -0.0220  0.1475
17405SOL    HW156772   5.177   3.566   9.607  0.2341  0.2286  1.1943
17405SOL    HW256773   5.129   3.443   9.532 -2.0997  1.7130  0.1358
17406SOL     OW56774   6.400  10.491   6.730 -0.0797 -0.4678 -0.5934
17406SOL    HW156775   6.364  10.424   6.788  1.0521  1.4867  2.5692
17406SOL    HW256776   6.323  10.532   6.690 -1.1151 -0.2473  1.4887
17407SOL     OW56777   0.436   2.990   8.334 -0.5056 -0.0752 -0.1028
17407SOL    HW156778   0.405   3.061   8.391 -0.4933 -0.3869  0.3015
17407SOL    HW256779   0.422   2.910   8.386 -2.2286 -0.5728 -1.2489
17408SOL     OW56780   3.362   8.116   5.181  0.0752  0.1601  0.3310
17408SOL    HW156781   3.431   8.096   5.244 -0.1329 -1.1351  0.1790
17408SOL    HW256782   3.282   8.118   5.234  0.0215  0.0506  0.2530
17409SOL     OW56783   9.098   9.917   8.349  0.6128 -0.3478 -0.0365
17409SOL    HW156784   9.134   9.828   8.353 -0.0314 -0.7270 -1.7144
17409SOL    HW256785   9.141   9.956   8.273  0.0464  0.3834  0.0088
17410SOL     OW56786  10.261   1.032   3.935  0.8195  0.2172 -0.6974
17410SOL    HW156787  10.263   1.103   3.998  0.0830 -1.7488  1.6655
17410SOL    HW256788  10.180   1.045   3.886  0.6801  0.9736 -0.2745
17411SOL     OW56789   9.761   9.626   2.970  0.0665  0.3161  0.6568
17411SOL    HW156790   9.774   9.535   2.997  2.3456  0.5633  0.6211
17411SOL    HW256791   9.799   9.677   3.041  0.4259  1.1723 -0.1320
17412SOL     OW56792  11.012  10.666   6.603  0.1879  0.1846  0.1221
17412SOL    HW156793  10.933  10.706   6.567 -0.2173  1.1439  1.9315
17412SOL    HW256794  11.019  10.702   6.692  1.1070 -2.0259  1.0232
17413SOL     OW56795   5.713  10.267   7.040  0.0874  0.1499 -0.7257
17413SOL    HW156796   5.758  10.318   7.108  1.0297 -1.6965  0.0884
17413SOL    HW256797   5.769  10.277   6.962  1.0031 -0.7208 -0.1952
17414SOL     OW56798   5.785   9.950   0.944  0.4419  0.0086 -0.1955
17414SOL    HW156799   5.698   9.926   0.974 -0.3860 -1.2991 -3.2741
17414SOL    HW256800   5.771  10.004   0.867  2.4415  3.8933  1.8591
17415SOL     OW56801   5.082  10.422   9.313  0.3871 -0.1309 -0.1292
17415SOL    HW156802   5.171  10.449   9.338 -0.1482  1.9641 -0.2903
17415SOL    HW256803   5.060  10.352   9.373  1.8260 -0.0821  0.4929
17416SOL     OW56804   2.137   1.438   1.283  0.3675 -0.1817  0.0595
17416SOL    HW156805   2.178   1.520   1.311  1.7323 -1.1143  0.8886
17416SOL    HW256806   2.043   1.457   1.283  0.6887  1.5638 -0.4062
17417SOL     OW56807   0.347   2.649  10.200  0.0460  0.0410 -0.1022
17417SOL    HW156808   0.389   2.600  10.271  0.0026  0.0000 -0.1048
17417SOL    HW256809   0.298   2.584  10.151  1.2616 -0.1838 -1.0588
17418SOL     OW56810   2.537   0.103   1.091  0.4898  0.4141 -0.5638
17418SOL    HW156811   2.595   0.047   1.141  0.0093  1.2366  0.9982
17418SOL    HW256812   2.559   0.192   1.120 -0.7755  0.8103 -0.7548
17419SOL     OW56813   0.172   1.388  11.483  0.0822  0.0958 -0.3946
17419SOL    HW156814   0.160   1.342  11.566  2.0003  1.4844  0.7574
17419SOL    HW256815   0.234   1.335  11.434 -0.1801 -0.1613 -0.4455
17420SOL     OW56816   0.766   4.888   8.997 -0.5025 -0.1548 -0.4998
17420SOL    HW156817   0.711   4.927   8.930  0.8955 -0.5849 -1.9512
17420SOL    HW256818   0.747   4.795   8.993 -0.3000 -0.2007 -0.4082
17421SOL     OW56819   8.717   2.818   6.357 -0.4337  0.1392  0.2708
17421SOL    HW156820   8.798   2.840   6.403  0.6293  0.8383 -1.8123
17421SOL    HW256821   8.647   2.842   6.418  0.8529  2.5174  0.9336
17422SOL     OW56822   3.732   8.780   0.855 -0.0812  0.0872  0.3584
17422SOL    HW156823   3.762   8.759   0.944 -0.1230  1.3892  0.6917
17422SOL    HW256824   3.637   8.774   0.859 -0.1566  1.3111  0.7278
17423SOL     OW56825   6.561   2.614   2.779 -0.0268  0.2318  0.3033
17423SOL    HW156826   6.599   2.564   2.707  0.3601  0.6815  0.1887
17423SOL    HW256827   6.577   2.560   2.856  1.1627  0.5601  0.3079
17424SOL     OW56828   5.291  10.277   3.693 -0.0379 -0.2812 -0.4184
17424SOL    HW156829   5.300  10.234   3.778  2.0973 -0.9071 -0.8956
17424SOL    HW256830   5.347  10.226   3.634 -1.0602  0.4497 -2.0894
17425SOL     OW56831   8.155   5.718   5.477 -0.7712  0.1465  0.6990
17425SOL    HW156832   8.089   5.669   5.525  0.6235 -1.2616  1.2998
17425SOL    HW256833   8.236   5.667   5.490  0.0343  0.7252 -1.5902
17426SOL     OW56834  10.819   0.493   3.275  0.4286  0.1746  0.0573
17426SOL    HW156835  10.743   0.445   3.310 -1.2709  1.1408 -2.0504
17426SOL    HW256836  10.828   0.568   3.333 -1.2023  0.8007 -0.4130
17427SOL     OW56837  10.907   2.797   7.713 -0.0861 -0.3736  0.1344
17427SOL    HW156838  10.883   2.720   7.764 -0.0356  0.7252  1.9028
17427SOL    HW256839  10.965   2.846   7.771 -0.6758  1.3352 -0.6763
17428SOL     OW56840   9.455   6.415  11.001  0.2987  0.0963  0.5289
17428SOL    HW156841   9.524   6.355  11.029  1.3106  0.4770 -1.0150
17428SOL    HW256842   9.477   6.437  10.911 -1.9706  0.0933 -0.0931
17429SOL     OW56843   4.421   5.235   7.738  0.2055  0.2604  0.1511
17429SOL    HW156844   4.474   5.304   7.778 -1.3838  1.2487  0.6281
17429SOL    HW256845   4.445   5.238   7.645  2.8753 -1.1006  0.6860
17430SOL     OW56846   1.931   0.740   4.732 -0.1461 -0.1758 -0.0716
17430SOL    HW156847   2.019   0.773   4.750 -0.4456  2.0272 -2.0992
17430SOL    HW256848   1.934   0.648   4.758  3.0530 -0.4424 -0.9338
17431SOL     OW56849   8.679   8.952  10.789 -0.0840 -0.0576 -0.3206
17431SOL    HW156850   8.663   9.043  10.815  2.4235  0.5060 -0.5308
17431SOL    HW256851   8.641   8.947  10.701 -1.6549  0.2832  0.3000
17432SOL     OW56852   5.780   4.161   8.411  0.2036  0.1877 -0.3968
17432SOL    HW156853   5.696   4.133   8.446  0.1749  0.5708 -0.1513
17432SOL    HW256854   5.759   4.230   8.349  0.3803  0.8222  0.2320
17433SOL     OW56855   6.698   2.721   0.086 -0.0368 -0.1537  0.2174
17433SOL    HW156856   6.630   2.661   0.119  0.5281 -0.6715  0.4523
17433SOL    HW256857   6.701   2.792   0.150  0.1975 -0.5351  0.6348
17434SOL     OW56858   3.906   4.293   1.695 -0.2792 -0.1157 -0.0006
17434SOL    HW156859   3.969   4.242   1.745  0.0982  1.3257  1.0735
17434SOL    HW256860   3.832   4.234   1.681  1.0329 -1.6558 -0.7899
17435SOL     OW56861   1.287   6.665   0.308 -0.0767 -0.7904  0.0616
17435SOL    HW156862   1.318   6.743   0.355  1.9694  0.1075 -2.5053
17435SOL    HW256863   1.344   6.659   0.231 -1.4112 -3.7603 -0.8571
17436SOL     OW56864  11.366  11.716   2.390  0.0357  0.2274 -0.4108
17436SOL    HW156865  11.388  11.795   2.341  0.2126  0.2112 -0.3577
17436SOL    HW256866  11.271  11.706   2.378  0.0480  0.3274 -0.5950
17437SOL     OW56867   0.326   2.752   3.588 -0.2064  0.2124  0.2279
17437SOL    HW156868   0.315   2.657   3.589 -0.4660  0.1622 -1.9017
17437SOL    HW256869   0.411   2.765   3.546 -0.2654  0.9192  0.3204
17438SOL     OW56870   1.700   9.168   6.444  0.1696  0.5181  0.2312
17438SOL    HW156871   1.761   9.126   6.505  0.0007  1.2419  0.9188
17438SOL    HW256872   1.755   9.229   6.394  0.9437 -2.2503 -2.6003
17439SOL     OW56873   0.490   2.288   9.401 -0.4495  0.0740 -0.2441
17439SOL    HW156874   0.497   2.378   9.434 -1.9305  0.6385 -1.3607
17439SOL    HW256875   0.474   2.298   9.307 -2.7500 -1.2353 -0.0805
17440SOL     OW56876   5.471   1.053   6.797 -0.4090 -0.0766  0.4603
17440SOL    HW156877   5.425   1.083   6.875 -0.4208  0.5048  0.2328
17440SOL    HW256878   5.486   1.132   6.745  0.5002 -0.3148  0.3421
17441SOL     OW56879   5.705   0.462   6.691  0.1633  0.0867  0.1068
17441SOL    HW156880   5.713   0.451   6.596 -0.6768 -0.5932  0.1035
17441SOL    HW256881   5.782   0.418   6.727 -0.2150 -0.8481 -0.1989
17442SOL     OW56882   0.532   2.439  10.329 -0.6191 -0.2354 -0.7150
17442SOL    HW156883   0.587   2.489  10.269 -1.5948  2.0277  0.1667
17442SOL    HW256884   0.594   2.387  10.381  0.6257  1.3695 -0.5082
17443SOL     OW56885   3.929   3.646   1.506 -0.0812 -0.6090  0.2607
17443SOL    HW156886   3.860   3.685   1.558 -1.7488  0.4931 -2.5423
17443SOL    HW256887   4.005   3.703   1.521 -1.5184  1.8554 -1.1151
17444SOL     OW56888  11.344  10.694   5.938  0.1123 -0.0421  0.2838
17444SOL    HW156889  11.322  10.710   6.030  0.5224  1.5297  0.1280
17444SOL    HW256890  11.361  10.600   5.934  2.4084  0.1704  2.3351
17445SOL     OW56891   5.405   0.967   1.749 -0.2949 -0.4053  0.2331
17445SOL    HW156892   5.423   0.874   1.734  0.7852 -0.1393 -0.1624
17445SOL    HW256893   5.455   1.013   1.682 -0.2996  0.5010  0.8323
17446SOL     OW56894   3.630   2.765   7.691 -0.0605 -0.2431  0.1562
17446SOL    HW156895   3.641   2.711   7.613 -1.5315  0.9886 -0.9588
17446SOL    HW256896   3.703   2.827   7.688 -0.3701  0.0961 -0.5077
17447SOL     OW56897   1.685  10.235   8.106  0.1892 -0.6290  0.4138
17447SOL    HW156898   1.639  10.152   8.121 -0.2821 -0.3918  0.3136
17447SOL    HW256899   1.719  10.259   8.192 -3.1145  1.0834  1.4508
17448SOL     OW56900   1.976   8.993   1.971  0.0230 -0.0621 -0.3226
17448SOL    HW156901   2.015   9.079   1.985 -1.4763  0.3571  1.7334
17448SOL    HW256902   1.962   8.959   2.059 -1.5455 -1.4235 -1.0521
17449SOL     OW56903  10.202  10.548   8.137 -0.1951  0.3567  0.3632
17449SOL    HW156904  10.118  10.561   8.093 -0.7942 -0.1595  1.3033
17449SOL    HW256905  10.202  10.612   8.208 -0.2340 -0.2927  0.9578
17450SOL     OW56906   0.590   0.522  10.885  0.0830  0.3090  0.2093
17450SOL    HW156907   0.527   0.561  10.825  1.3089  0.2396 -1.1683
17450SOL    HW256908   0.561   0.431  10.893 -0.3637  0.4393  0.0979
17451SOL     OW56909   6.449   0.554   1.867  0.0457  0.2185 -0.2399
17451SOL    HW156910   6.515   0.489   1.891 -1.5176 -1.7244 -0.9983
17451SOL    HW256911   6.423   0.530   1.778 -0.0668  2.3748 -0.8608
17452SOL     OW56912   6.544   8.096   6.127 -0.6205 -0.0554  0.0666
17452SOL    HW156913   6.639   8.110   6.119 -0.7611  0.0943 -1.7671
17452SOL    HW256914   6.532   8.063   6.217  1.1881 -0.3366  0.2456
17453SOL     OW56915   2.784  10.827   2.281  0.1308  0.3037  0.0548
17453SOL    HW156916   2.811  10.745   2.239 -1.7929 -1.5803  2.2117
17453SOL    HW256917   2.865  10.865   2.313  1.1693 -0.2848 -1.6987
17454SOL     OW56918  10.449   1.819   6.048 -0.0824  0.0767  0.7307
17454SOL    HW156919  10.513   1.753   6.024  0.5350  0.2408  1.8682
17454SOL    HW256920  10.364   1.775   6.041 -0.0710  0.2747 -2.2966
17455SOL     OW56921   2.467  11.092   0.294  0.0715 -0.5200 -0.0349
17455SOL    HW156922   2.418  11.170   0.318 -0.2228 -0.3455 -1.1371
17455SOL    HW256923   2.559  11.116   0.306 -0.0615 -0.5850  1.2659
17456SOL     OW56924   1.171   3.163   8.884 -0.4954  0.4538  0.0773
17456SOL    HW156925   1.207   3.092   8.831  0.3058  0.8296  0.0953
17456SOL    HW256926   1.090   3.187   8.840 -1.2250 -1.0341  0.5503
17457SOL     OW56927   8.417   6.784   5.316  0.3989  0.5191 -0.3490
17457SOL    HW156928   8.375   6.699   5.330  1.1052  0.0444 -1.0260
17457SOL    HW256929   8.362   6.827   5.250  1.3700 -0.4282 -1.8381
17458SOL     OW56930   4.069   3.068   4.239  0.4844  0.0632 -1.0038
17458SOL    HW156931   4.061   2.973   4.232  0.2575 -0.0446  0.3838
17458SOL    HW256932   4.101   3.096   4.154  0.2865 -1.2275 -1.5237
17459SOL     OW56933   5.585   8.815  11.794  0.2899  0.3654 -0.3300
17459SOL    HW156934   5.671   8.788  11.825  0.8268  0.9988 -1.2279
17459SOL    HW256935   5.582   8.909  11.811  0.0382  0.4637 -0.9117
17460SOL     OW56936   9.667  11.081   1.532  0.8995 -0.0790 -0.0496
17460SOL    HW156937   9.658  11.126   1.616  0.5682  0.9310 -0.6053
17460SOL    HW256938   9.578  11.061   1.505  1.0317 -0.8768  0.0766
17461SOL     OW56939   7.012   4.217  10.774 -0.2563 -0.1768  0.1092
17461SOL    HW156940   7.019   4.313  10.767 -0.5991 -0.1602 -0.0053
17461SOL    HW256941   7.099   4.186  10.749 -0.1800  0.1007  0.0156
17462SOL     OW56942   0.487   9.103   8.259 -0.2626  0.2634  0.0818
17462SOL    HW156943   0.531   9.044   8.197  1.2715  1.0419  0.3812
17462SOL    HW256944   0.558   9.149   8.303 -1.3019 -0.1355  2.3315
17463SOL     OW56945   8.401   1.323  11.448 -0.4980  0.0894  0.6392
17463SOL    HW156946   8.457   1.356  11.378 -0.6526  0.9082  0.8922
17463SOL    HW256947   8.460   1.308  11.521 -0.5081  0.2990  0.6896
17464SOL     OW56948   2.218   7.478   1.838  0.4652  0.2135  0.1840
17464SOL    HW156949   2.161   7.462   1.914 -0.2520 -0.8805 -0.5512
17464SOL    HW256950   2.256   7.563   1.855  0.5099 -0.1033  1.8981
17465SOL     OW56951   1.365   8.138   0.505  0.0733 -0.3234 -1.1189
17465SOL    HW156952   1.344   8.088   0.426 -0.2367  1.3256 -2.1487
17465SOL    HW256953   1.384   8.226   0.472  1.7695 -0.0326  0.4833
17466SOL     OW56954   6.826   2.767   2.540 -0.0847  0.2739 -0.9845
17466SOL    HW156955   6.899   2.816   2.579 -0.8434  0.2214  0.6072
17466SOL    HW256956   6.788   2.827   2.476  0.0358  1.1520 -0.2578
17467SOL     OW56957   4.239  11.647  10.118 -0.1620 -0.4821  0.0170
17467SOL    HW156958   4.313  11.588  10.132 -0.5001 -1.1831 -1.0360
17467SOL    HW256959   4.279  11.729  10.088  0.2030 -0.7527 -0.2367
17468SOL     OW56960   8.154   6.829   2.285  0.3482  0.0682 -0.0356
17468SOL    HW156961   8.226   6.770   2.309 -0.8413 -1.4711 -0.1076
17468SOL    HW256962   8.186   6.875   2.207  0.9544 -1.1706 -0.5366
17469SOL     OW56963   4.699   8.223  11.383  0.3299  0.1295 -0.1847
17469SOL    HW156964   4.622   8.278  11.391 -0.9645 -1.7807  1.0507
17469SOL    HW256965   4.755   8.249  11.456 -0.4310 -0.4256  0.6023
17470SOL     OW56966   6.288   7.946   0.659 -0.2361  0.2098  0.0226
17470SOL    HW156967   6.317   7.869   0.707 -0.8581 -0.2914 -0.3845
17470SOL    HW256968   6.356   8.011   0.674  1.5171 -1.1624 -1.5584
17471SOL     OW56969   1.118   6.475  10.863  0.5770  0.1180 -0.4050
17471SOL    HW156970   1.165   6.462  10.945 -0.2517  1.5561  0.3400
17471SOL    HW256971   1.034   6.429  10.877  0.7027 -0.2103 -0.7168
17472SOL     OW56972   6.749   7.815   3.732  0.0809  0.5145 -0.2713
17472SOL    HW156973   6.805   7.891   3.718  0.0669  0.7268  0.7443
17472SOL    HW256974   6.665   7.839   3.692  0.5661  0.3693 -1.4070
17473SOL     OW56975   4.955   8.994   4.950  0.2720  0.0089 -0.1473
17473SOL    HW156976   4.929   8.955   5.033  0.5517  1.4416  0.6506
17473SOL    HW256977   4.877   9.041   4.921 -0.0111 -0.9539 -1.0181
17474SOL     OW56978   9.752   2.927   9.609 -0.1465 -0.0076 -0.5221
17474SOL    HW156979   9.828   2.871   9.621 -0.5116 -0.2948  0.5727
17474SOL    HW256980   9.768   3.002   9.666  0.5459  1.2764 -2.2993
17475SOL     OW56981   8.911   3.177   6.569  0.0484 -0.2072 -0.3581
17475SOL    HW156982   9.000   3.212   6.570  0.8689 -2.1950  0.3842
17475SOL    HW256983   8.861   3.236   6.626  1.1950  0.1429  0.3125
17476SOL     OW56984   9.146   2.862   3.335 -0.0986  0.0636  0.1436
17476SOL    HW156985   9.060   2.820   3.337  0.7800 -1.9673  3.0691
17476SOL    HW256986   9.140   2.932   3.401  0.4396 -0.0579  0.3297
17477SOL     OW56987   5.011   0.636   2.219 -0.3971  0.0897 -0.0656
17477SOL    HW156988   5.040   0.666   2.305 -1.6040 -0.4819  0.5689
17477SOL    HW256989   4.946   0.569   2.238 -1.4615  0.6904 -1.4144
17478SOL     OW56990  10.089   5.315   6.413 -0.6038 -0.1323 -0.0924
17478SOL    HW156991  10.002   5.300   6.449 -0.4707 -1.7165 -0.3797
17478SOL    HW256992  10.119   5.229   6.385  0.8127  0.4844 -0.5665
17479SOL     OW56993   5.495   6.571   5.697  0.1678 -0.2832 -0.0630
17479SOL    HW156994   5.485   6.611   5.611  1.6773  1.8954  0.6715
17479SOL    HW256995   5.585   6.593   5.723 -0.3318 -0.6296  2.1660
17480SOL     OW56996   5.136   7.355   4.335 -0.2013 -0.1558 -0.0923
17480SOL    HW156997   5.065   7.334   4.397 -0.5312 -1.0356 -0.7462
17480SOL    HW256998   5.101   7.329   4.250  0.0142  1.6031 -0.7457
17481SOL     OW56999   0.762   3.660   2.526 -0.5926 -0.0367  0.1454
17481SOL    HW157000   0.767   3.653   2.431  0.6275 -1.4984  0.2887
17481SOL    HW257001   0.698   3.731   2.541 -2.8137 -1.4852 -1.7175
17482SOL     OW57002  11.148   4.524   5.764 -0.8487 -0.6450 -0.8925
17482SOL    HW157003  11.113   4.511   5.676  1.7065 -0.1576 -2.0857
17482SOL    HW257004  11.228   4.472   5.765 -0.1615  0.3771  0.7004
17483SOL     OW57005   7.543   0.681   6.600  0.0671 -1.1462  0.3187
17483SOL    HW157006   7.520   0.589   6.590 -1.0025 -1.2624  3.0004
17483SOL    HW257007   7.621   0.681   6.656 -0.3271 -0.4057  0.8834
17484SOL     OW57008   0.448   7.203   4.394  0.5345  0.1420  0.5026
17484SOL    HW157009   0.388   7.196   4.319 -0.5826  0.2200  1.3680
17484SOL    HW257010   0.500   7.123   4.391 -0.7542 -0.7340  0.6861
17485SOL     OW57011  11.076   3.235   5.549 -0.4962  0.9207  0.0793
17485SOL    HW157012  11.134   3.244   5.474 -0.9890  0.3965 -0.3688
17485SOL    HW257013  11.112   3.161   5.598 -0.4892  0.9255  0.0817
17486SOL     OW57014   5.758   6.408   5.782 -0.1021  0.1816  0.2545
17486SOL    HW157015   5.753   6.445   5.870  0.0145 -0.4615  0.5440
17486SOL    HW257016   5.825   6.460   5.738 -1.1763  1.4463  0.0575
17487SOL     OW57017   6.573  10.220   7.749  0.1706 -0.0808  0.3939
17487SOL    HW157018   6.605  10.309   7.734  1.6158 -0.7812 -0.9892
17487SOL    HW257019   6.536  10.192   7.666  2.1174 -1.6448 -0.0481
17488SOL     OW57020   6.841  12.093   4.624  0.2777  0.4475 -0.0088
17488SOL    HW157021   6.925  12.129   4.596  0.1372  1.5928  0.9876
17488SOL    HW257022   6.780  12.118   4.555  0.4473  0.9716  0.0284
17489SOL     OW57023   3.292   3.925   4.078  0.1262 -0.2102  0.2228
17489SOL    HW157024   3.256   4.004   4.118 -1.2313 -0.5819 -0.2241
17489SOL    HW257025   3.223   3.893   4.020  1.6303 -0.2762 -1.6467
17490SOL     OW57026   6.975   8.916   6.768 -0.2755 -0.6277  0.0223
17490SOL    HW157027   7.060   8.881   6.742 -0.0799  1.6152 -2.9344
17490SOL    HW257028   6.911   8.856   6.729 -0.0263 -1.2553  0.5794
17491SOL     OW57029   4.155   0.686   2.957 -0.0726 -0.3099  0.8002
17491SOL    HW157030   4.151   0.781   2.968  0.6234 -0.2483  0.5523
17491SOL    HW257031   4.247   0.667   2.942 -0.4686 -0.7401 -1.5119
17492SOL     OW57032   7.206   4.612   6.526 -1.1193 -0.4068  0.1759
17492SOL    HW157033   7.180   4.522   6.509 -2.5104  0.1956 -1.1429
17492SOL    HW257034   7.178   4.660   6.448  0.4744  1.0098  0.4230
17493SOL     OW57035   5.454   7.174   8.762 -0.8296  0.2329 -0.3794
17493SOL    HW157036   5.389   7.168   8.832 -1.3021 -0.9799 -0.8788
17493SOL    HW257037   5.403   7.188   8.682 -0.2645  2.1860 -0.4552
17494SOL     OW57038   9.280   6.136   5.821  0.0079 -0.0498  0.3615
17494SOL    HW157039   9.232   6.100   5.746  2.4830  2.3318 -2.6107
17494SOL    HW257040   9.345   6.069   5.843 -0.3451 -0.5129  0.0124
17495SOL     OW57041   5.955   6.014   6.240 -0.0614 -0.4689 -0.0386
17495SOL    HW157042   5.970   5.920   6.234  1.4076 -0.3805  1.5791
17495SOL    HW257043   6.030   6.048   6.289 -0.8515  1.4595 -0.0637
17496SOL     OW57044   2.763   0.712   8.384 -0.2975  0.1083  0.7501
17496SOL    HW157045   2.821   0.786   8.364 -1.1485  0.4191 -0.7109
17496SOL    HW257046   2.719   0.738   8.465  0.5311  0.5033  1.0942
17497SOL     OW57047   3.844   5.433   8.951 -0.1976 -0.4241  0.2070
17497SOL    HW157048   3.882   5.398   9.031  1.0398  0.3763  0.0137
17497SOL    HW257049   3.858   5.528   8.957  2.3156 -0.5059 -2.0402
17498SOL     OW57050   9.061   0.433   0.480 -0.0997  0.6674 -0.2119
17498SOL    HW157051   9.053   0.386   0.396  0.9853 -1.8516  0.9824
17498SOL    HW257052   9.090   0.521   0.455 -1.1902  0.4592 -2.5345
17499SOL     OW57053   3.599  11.092   2.262  0.0241  0.3836  0.5235
17499SOL    HW157054   3.639  11.110   2.348  3.2035  1.3402 -0.9977
17499SOL    HW257055   3.642  11.012   2.232 -0.1099  0.7465 -0.6838
17500SOL     OW57056   1.160   3.073   4.108  0.7260 -0.6425  0.1377
17500SOL    HW157057   1.122   3.149   4.153  0.1449 -0.1017 -1.2023
17500SOL    HW257058   1.252   3.097   4.095  0.9327 -0.8533  1.0921
17501SOL     OW57059   1.363   8.381  11.558  0.2211 -0.2039 -0.2110
17501SOL    HW157060   1.394   8.463  11.519 -0.9186  0.5548  0.4110
17501SOL    HW257061   1.421   8.314  11.522 -0.0338  0.6070 -2.2817
17502SOL     OW57062   2.212   8.848   7.572  0.2880  0.0766 -0.7083
17502SOL    HW157063   2.163   8.930   7.567  0.9875  0.5026 -0.7244
17502SOL    HW257064   2.168   8.798   7.641  0.2198  0.7165 -0.2798
17503SOL     OW57065   4.254   4.568   7.968  0.4021 -0.7608  0.3343
17503SOL    HW157066   4.190   4.593   8.034  0.7364  1.3488 -0.0515
17503SOL    HW257067   4.338   4.597   8.003  0.5216  0.9183 -1.1915
17504SOL     OW57068   6.026   9.790   3.485  0.0242 -0.4895  0.2435
17504SOL    HW157069   6.019   9.868   3.430  1.2324  0.4158  1.3301
17504SOL    HW257070   6.117   9.790   3.515 -0.8320 -0.3987  3.0470
17505SOL     OW57071   8.892   5.032   9.665  0.0867 -0.3429  0.0582
17505SOL    HW157072   8.879   5.119   9.626 -0.4578 -1.0448 -1.3883
17505SOL    HW257073   8.881   5.047   9.759  1.8564  1.4951  0.0549
17506SOL     OW57074   1.446   2.411   8.266 -0.1166 -0.1347  0.0521
17506SOL    HW157075   1.461   2.426   8.359  0.6132 -1.6243  0.1915
17506SOL    HW257076   1.371   2.353   8.262 -0.2702  0.0823 -0.3078
17507SOL     OW57077   9.555   4.842   1.082 -0.0757 -0.0912  0.7417
17507SOL    HW157078   9.497   4.908   1.045  1.0272  0.3966 -0.2224
17507SOL    HW257079   9.498   4.780   1.127 -1.5720 -0.8091 -1.9461
17508SOL     OW57080   0.971   5.073   6.258  0.2730 -0.2164  0.6760
17508SOL    HW157081   1.028   5.129   6.206  0.7676 -1.2682  0.0528
17508SOL    HW257082   0.901   5.047   6.198  1.4277 -2.3225  0.1198
17509SOL     OW57083  11.842   8.776   4.014  0.0681  0.5622 -0.1626
17509SOL    HW157084  11.935   8.756   4.003  0.0608  0.5745 -0.2457
17509SOL    HW257085  11.799   8.732   3.941  0.2271  2.2105 -1.3142
17510SOL     OW57086   2.183  11.512   8.493 -0.4003 -0.4778 -0.5102
17510SOL    HW157087   2.177  11.523   8.398 -0.9519 -0.2031 -0.4429
17510SOL    HW257088   2.258  11.453   8.505  0.0244 -0.0651 -1.0808
17511SOL     OW57089   2.660   8.053   0.004  0.0907 -0.5198 -0.2963
17511SOL    HW157090   2.571   8.046  -0.030  0.6007  1.6738 -2.3936
17511SOL    HW257091   2.650   8.075   0.096 -1.5867  0.1745 -0.6155
17512SOL     OW57092   2.169   0.132  11.334 -0.1668 -0.3834 -0.3025
17512SOL    HW157093   2.176   0.226  11.347  0.2576 -0.6091  1.3225
17512SOL    HW257094   2.257   0.099  11.346 -0.5004 -1.0995  0.2449
17513SOL     OW57095   6.097   9.751   5.284 -0.0435 -0.2480 -0.2405
17513SOL    HW157096   6.024   9.811   5.291  0.0189 -0.2034  0.0195
17513SOL    HW257097   6.057   9.664   5.278 -0.1072 -0.2806  0.5207
17514SOL     OW57098   0.028  10.444   9.926  0.2178  0.4819  0.7070
17514SOL    HW157099   0.124  10.437   9.925  0.3231  0.5883  3.3300
17514SOL    HW257100   0.010  10.532   9.891  1.2101  1.1907  1.9168
17515SOL     OW57101   9.563   3.537   9.351  0.2268 -0.3045 -0.0306
17515SOL    HW157102   9.495   3.576   9.406 -0.9548 -2.7338  0.3953
17515SOL    HW257103   9.577   3.450   9.390  2.5866 -0.4168 -0.9735
17516SOL     OW57104   6.695   2.928   7.548 -0.4954  0.5477 -0.3879
17516SOL    HW157105   6.787   2.909   7.567 -0.5580 -0.4192 -0.9419
17516SOL    HW257106   6.649   2.907   7.629 -0.3987 -0.5150 -0.5853
17517SOL     OW57107  11.440   0.383   6.617  1.3652  0.3608 -0.5752
17517SOL    HW157108  11.524   0.356   6.654  1.4968  1.3800 -0.1087
17517SOL    HW257109  11.443   0.479   6.617  0.3374  0.4029 -0.8720
17518SOL     OW57110   7.912   7.468  10.943  0.6627  0.4203 -0.1305
17518SOL    HW157111   7.845   7.422  10.893  0.4011  0.6556  0.0010
17518SOL    HW257112   7.962   7.517  10.878  0.4740  0.5374 -0.1854
17519SOL     OW57113   4.498   4.705   4.272  0.5956 -0.6329  0.2729
17519SOL    HW157114   4.447   4.784   4.258  0.1282 -0.8629  0.6613
17519SOL    HW257115   4.506   4.699   4.367 -1.2390 -2.2234  0.3841
17520SOL     OW57116   6.007   2.033  11.682  0.2446 -0.2056  0.8237
17520SOL    HW157117   6.080   2.068  11.633 -0.4378  1.1845  0.7487
17520SOL    HW257118   5.969   2.109  11.727 -2.3632 -0.4600 -0.7219
17521SOL     OW57119   7.369   3.500   8.484 -0.0996 -0.0835 -0.5508
17521SOL    HW157120   7.415   3.564   8.430  0.9490  0.7702  1.2667
17521SOL    HW257121   7.310   3.455   8.423 -0.5379  2.2760 -1.9840
17522SOL     OW57122   9.467   0.929   7.729  0.3398  0.5559 -0.5282
17522SOL    HW157123   9.452   0.879   7.649 -2.9466  0.3613  0.0727
17522SOL    HW257124   9.530   0.878   7.779 -0.1674 -1.1046 -1.5291
17523SOL     OW57125   5.174   3.097   7.321  0.8919  0.1435  0.0033
17523SOL    HW157126   5.245   3.111   7.383  0.6107 -0.7338  0.5266
17523SOL    HW257127   5.094   3.107   7.373  0.6440  0.2127 -0.3870
17524SOL     OW57128   3.328   9.377   0.169  0.4415 -0.0268  0.0696
17524SOL    HW157129   3.278   9.432   0.109 -1.3086 -1.7482 -0.1833
17524SOL    HW257130   3.419   9.400   0.154 -0.1361  1.5981 -1.1811
17525SOL     OW57131   2.070   0.027   8.817  0.1452 -0.4462  0.6173
17525SOL    HW157132   2.132   0.069   8.876  0.2454  0.9426 -0.4302
17525SOL    HW257133   2.005   0.094   8.798  0.1992 -0.7983 -0.9515
17526SOL     OW57134   6.650   1.831   9.741  0.0427  0.1756  0.1062
17526SOL    HW157135   6.673   1.788   9.824 -0.7261  0.0637  0.2650
17526SOL    HW257136   6.598   1.766   9.694  0.8282  0.0780 -0.6588
17527SOL     OW57137   2.689   3.105   9.083 -0.1887  0.0884 -0.4643
17527SOL    HW157138   2.652   3.087   8.996 -0.6646  2.9547 -0.9626
17527SOL    HW257139   2.778   3.071   9.078  1.0831  3.2541 -3.4746
17528SOL     OW57140   6.064   7.740  11.731 -0.1983  0.0970  0.5543
17528SOL    HW157141   6.067   7.835  11.744 -0.7654  0.0113  1.4115
17528SOL    HW257142   6.153   7.717  11.704 -0.3525  1.0194 -0.8518
17529SOL     OW57143   5.979  11.844   9.036  0.2969  0.0411  0.1965
17529SOL    HW157144   5.885  11.846   9.017  0.1185 -1.1807  0.8520
17529SOL    HW257145   5.983  11.834   9.131  1.0768 -0.6512  0.1008
17530SOL     OW57146   1.996   6.288   5.756 -0.7416  0.5946  0.3473
17530SOL    HW157147   1.963   6.198   5.753  1.2971 -0.1899 -0.9870
17530SOL    HW257148   1.968   6.326   5.673  1.5337 -0.0882 -0.8089
17531SOL     OW57149   9.222   8.304   3.830  0.1320  0.3401  0.4430
17531SOL    HW157150   9.163   8.280   3.759  0.7393  0.7468 -0.2134
17531SOL    HW257151   9.238   8.398   3.818  1.9531 -0.0077 -0.2155
17532SOL     OW57152  10.613   5.705   0.287  0.1952  0.2909  0.1351
17532SOL    HW157153  10.525   5.667   0.286  0.9714 -1.5519 -0.3296
17532SOL    HW257154  10.635   5.711   0.380  0.8650 -2.4604  0.2347
17533SOL     OW57155  10.756   2.476   6.784  0.4523 -0.4057  0.2608
17533SOL    HW157156  10.781   2.480   6.691  1.6832 -3.6553  0.3238
17533SOL    HW257157  10.700   2.399   6.790 -1.9295  1.3293  1.8387
17534SOL     OW57158   5.023  10.714   9.251 -0.0739  0.3239 -0.2749
17534SOL    HW157159   5.058  10.624   9.248 -4.0785 -1.4243 -1.7201
17534SOL    HW257160   5.018  10.735   9.344 -2.5454 -2.6478  0.4194
17535SOL     OW57161   8.231   0.034  10.645  0.2756 -0.5337 -0.4153
17535SOL    HW157162   8.180  -0.047  10.643 -1.2566  0.3861 -0.2962
17535SOL    HW257163   8.255   0.046  10.737 -0.9344 -0.0355 -0.1370
17536SOL     OW57164   0.104   4.712   1.951  0.2861 -0.6546 -0.1647
17536SOL    HW157165   0.104   4.683   1.860  0.1929  3.0824 -1.5540
17536SOL    HW257166   0.011   4.717   1.975  0.2277 -0.0101 -0.5033
17537SOL     OW57167  10.251   0.613   4.562 -0.0972  0.6856 -0.1816
17537SOL    HW157168  10.337   0.648   4.588  0.7827 -0.8603 -0.9061
17537SOL    HW257169  10.271   0.543   4.501 -1.9564  1.1218 -1.3630
17538SOL     OW57170   4.835   1.860   6.349 -0.0526  0.1441  0.3239
17538SOL    HW157171   4.873   1.867   6.261 -0.5367 -0.5512  0.0533
17538SOL    HW257172   4.757   1.915   6.345 -1.0118 -1.2226 -0.2150
17539SOL     OW57173   6.165   8.160   6.159 -0.1505  0.2091 -0.4757
17539SOL    HW157174   6.252   8.152   6.199 -0.6695 -0.4162  0.5922
17539SOL    HW257175   6.166   8.100   6.085  0.2363 -0.0213 -0.2855
17540SOL     OW57176   4.870   4.193   8.789  0.2479  0.5589 -0.1011
17540SOL    HW157177   4.890   4.178   8.696  2.0202 -0.0417  0.3338
17540SOL    HW257178   4.955   4.186   8.833 -0.3627  2.0784  1.4343
17541SOL     OW57179   8.931   6.876   3.223  0.0983 -0.1937 -0.0793
17541SOL    HW157180   8.927   6.870   3.318  0.5710 -1.2709 -0.1175
17541SOL    HW257181   9.021   6.854   3.201  0.2040  0.8118 -0.7434
17542SOL     OW57182   5.248   0.242   6.794  0.1232  0.0112  0.1926
17542SOL    HW157183   5.262   0.218   6.702 -2.5087 -0.5365 -0.1593
17542SOL    HW257184   5.281   0.331   6.801  0.4734  0.0244 -1.2772
17543SOL     OW57185   9.613  11.099   3.757 -0.1786 -0.3074 -0.1608
17543SOL    HW157186   9.687  11.078   3.701  0.7704  0.8021  0.6395
17543SOL    HW257187   9.547  11.135   3.698 -0.1921 -1.4950 -0.9063
17544SOL     OW57188   4.753   2.495   3.827  0.3656  0.4049 -0.4535
17544SOL    HW157189   4.753   2.539   3.742  0.4388  0.0896 -0.6181
17544SOL    HW257190   4.827   2.533   3.874  1.4291 -0.6837 -1.1959
17545SOL     OW57191   0.479  10.780   0.966 -0.1010 -0.1401 -0.3300
17545SOL    HW157192   0.440  10.693   0.964 -2.7404  0.8982  1.0419
17545SOL    HW257193   0.539  10.777   1.041 -0.2189 -0.7640 -0.2552
17546SOL     OW57194  11.922  10.807   0.786  0.3194  0.2683  0.7102
17546SOL    HW157195  11.881  10.721   0.795  0.1773  0.3444  0.7945
17546SOL    HW257196  11.907  10.850   0.870  0.5072  0.3259  0.7149
17547SOL     OW57197   0.653   6.726   3.443 -0.3610  0.5544  0.3655
17547SOL    HW157198   0.608   6.746   3.525  0.5801  3.0233  0.3483
17547SOL    HW257199   0.582   6.717   3.379 -1.0427 -0.3997  1.2202
17548SOL     OW57200   2.566  11.699   1.294 -0.3561 -0.0758 -0.1624
17548SOL    HW157201   2.575  11.665   1.205 -1.6830 -1.1325  0.0839
17548SOL    HW257202   2.484  11.661   1.327 -0.2085  0.7797  1.2978
17549SOL     OW57203   8.096   4.205  11.011  0.3055  0.6192  0.1664
17549SOL    HW157204   8.027   4.268  10.993 -0.8214 -0.4542  0.6079
17549SOL    HW257205   8.051   4.123  11.028  1.6859 -0.1154  0.4941
17550SOL     OW57206  11.621   5.507   3.149  0.5287  0.1672 -0.2221
17550SOL    HW157207  11.578   5.429   3.183 -0.5451 -0.1519 -2.1701
17550SOL    HW257208  11.654   5.480   3.063  2.0825  1.2559 -0.0101
17551SOL     OW57209   1.481   6.120   8.755  0.3508  0.2298  0.1721
17551SOL    HW157210   1.468   6.215   8.755  0.0275  0.1858  0.4631
17551SOL    HW257211   1.402   6.085   8.715  0.3865  0.0681  0.2422
17552SOL     OW57212   5.673  10.123   5.548 -0.1312  0.5720  0.0494
17552SOL    HW157213   5.744  10.144   5.487 -0.3814  0.9657 -0.1102
17552SOL    HW257214   5.695  10.169   5.628  0.9650 -1.1132  0.7785
17553SOL     OW57215   9.027   7.821   0.415  0.9240 -0.3801 -0.1509
17553SOL    HW157216   9.005   7.755   0.350 -2.6961 -0.8841  1.3235
17553SOL    HW257217   9.002   7.904   0.375  1.9154 -0.2812 -0.5981
17554SOL     OW57218   4.173   4.873   5.720 -0.1688  0.0054  0.8550
17554SOL    HW157219   4.235   4.903   5.653  3.2437 -1.1640  3.2585
17554SOL    HW257220   4.123   4.803   5.677 -0.1666  1.2130 -1.2643
17555SOL     OW57221   6.249   2.242   1.651  0.1531 -0.4540  0.0929
17555SOL    HW157222   6.315   2.195   1.703  2.2275 -1.0879 -2.8717
17555SOL    HW257223   6.197   2.173   1.610  0.1288 -0.0644 -0.5538
17556SOL     OW57224  10.059   9.935  10.697  0.1485  0.3251  0.4302
17556SOL    HW157225  10.139   9.963  10.653 -0.7088  1.1707 -0.6327
17556SOL    HW257226  10.090   9.892  10.777  1.6243  1.7618  0.6841
17557SOL     OW57227   0.628   5.588   9.831 -0.0223  0.3838  0.1467
17557SOL    HW157228   0.555   5.573   9.890  0.8904 -1.4937  0.8912
17557SOL    HW257229   0.588   5.617   9.749 -1.9232 -3.3799 -0.4377
17558SOL     OW57230   4.686  10.398   6.411 -0.3511 -1.0991  0.2126
17558SOL    HW157231   4.734  10.318   6.433 -0.4350 -1.2240 -0.0433
17558SOL    HW257232   4.683  10.398   6.315 -0.3245 -0.7731  0.2125
17559SOL     OW57233   5.163  10.918   0.153  0.3922 -0.1304  0.0030
17559SOL    HW157234   5.219  10.981   0.107  0.4854 -1.0598 -1.2101
17559SOL    HW257235   5.221  10.844   0.172  0.1022 -0.1765  0.7476
17560SOL     OW57236   2.640   2.747   0.030 -0.4161  0.0121 -0.0134
17560SOL    HW157237   2.681   2.832   0.013  2.8518 -1.5220 -0.5351
17560SOL    HW257238   2.554   2.753  -0.012 -0.7031  3.3305  0.7739
17561SOL     OW57239   6.029  10.647   5.175  0.0329 -0.3608 -0.7080
17561SOL    HW157240   6.096  10.579   5.175 -0.2270 -0.7404  1.7729
17561SOL    HW257241   5.964  10.617   5.239 -0.4008  1.9074  0.0192
17562SOL     OW57242   8.608   9.457   9.870  0.0529 -0.9728  0.3827
17562SOL    HW157243   8.589   9.384   9.929  2.0890 -1.2059  0.8234
17562SOL    HW257244   8.690   9.495   9.904 -0.6069  1.1287 -0.1993
17563SOL     OW57245  11.323   2.839   3.103  0.3753  0.4361  0.1801
17563SOL    HW157246  11.399   2.783   3.118  1.7106  1.4662 -2.1056
17563SOL    HW257247  11.307   2.881   3.187  2.7388  0.6004  0.6301
17564SOL     OW57248   0.796  11.896   2.591 -0.1624  0.1824 -0.0331
17564SOL    HW157249   0.781  11.934   2.504 -0.9932  1.7600  0.7450
17564SOL    HW257250   0.730  11.827   2.598  1.2823 -1.4189 -1.4268
17565SOL     OW57251  11.699  11.223   0.582 -0.3077 -0.2481  0.0574
17565SOL    HW157252  11.609  11.194   0.598 -0.2952  0.0031  0.5967
17565SOL    HW257253  11.712  11.208   0.488 -0.8446 -0.4712  0.0119
17566SOL     OW57254   7.659   9.115   4.399 -0.3574 -0.3086 -0.1395
17566SOL    HW157255   7.613   9.165   4.466 -2.2933 -1.1653 -0.7731
17566SOL    HW257256   7.701   9.182   4.344  0.4201  0.4319  1.2958
17567SOL     OW57257  10.593   8.014   8.104 -0.1066  0.2478  0.3017
17567SOL    HW157258  10.577   8.079   8.173  1.4718  2.2722 -1.1328
17567SOL    HW257259  10.688   8.015   8.091 -0.2671 -0.7635 -1.2874
17568SOL     OW57260   6.013  10.467   9.597  0.2727 -0.3666 -0.0261
17568SOL    HW157261   6.046  10.438   9.512 -1.3227  1.0951 -1.2106
17568SOL    HW257262   6.002  10.561   9.588 -3.1443 -0.5816  0.5526
17569SOL     OW57263   1.234   3.838   1.279 -0.4354  0.3273 -0.2262
17569SOL    HW157264   1.184   3.873   1.205 -1.0683 -1.4237 -0.6858
17569SOL    HW257265   1.323   3.872   1.266 -1.0388  1.8747 -0.5090
17570SOL     OW57266   0.916   3.327   4.739  0.4477 -0.0328 -0.4585
17570SOL    HW157267   0.850   3.271   4.699 -2.3812  1.8109  1.2729
17570SOL    HW257268   0.961   3.271   4.802 -2.5445 -0.4692  1.4950
17571SOL     OW57269   9.521   4.487   1.263  0.5140  0.2731  0.4019
17571SOL    HW157270   9.459   4.535   1.209 -0.0128 -1.2524 -0.4103
17571SOL    HW257271   9.522   4.533   1.346 -1.4300  0.5505  0.3041
17572SOL     OW57272   3.177   0.447   6.912 -0.1999  0.3632 -0.1753
17572SOL    HW157273   3.131   0.526   6.942 -1.1974 -0.0411 -0.5908
17572SOL    HW257274   3.220   0.474   6.830 -1.2504  0.2675 -0.7773
17573SOL     OW57275   4.019   0.955   2.124 -0.5209 -0.0962 -0.2830
17573SOL    HW157276   4.095   0.897   2.117 -0.5586 -0.3586  1.1997
17573SOL    HW257277   3.949   0.899   2.157 -1.2017  0.2900 -1.0285
17574SOL     OW57278   0.562   3.815   7.738 -0.1084  0.2788 -0.0558
17574SOL    HW157279   0.476   3.795   7.775 -0.4246 -1.5418 -1.6184
17574SOL    HW257280   0.624   3.793   7.808 -0.7840 -1.1680  0.1291
17575SOL     OW57281   6.554   8.848   6.175  0.2660 -0.4174  0.2360
17575SOL    HW157282   6.492   8.784   6.142 -0.1439  1.4499 -3.1379
17575SOL    HW257283   6.500   8.920   6.206  0.5919  0.8984 -2.0121
17576SOL     OW57284   2.477   6.516   7.331 -0.3823 -0.1653  0.1166
17576SOL    HW157285   2.391   6.542   7.363  0.3071  1.0849  1.0617
17576SOL    HW257286   2.481   6.549   7.241 -1.5692 -1.8900 -0.6011
17577SOL     OW57287   0.205   6.901   9.829 -0.1751 -0.2246 -0.3354
17577SOL    HW157288   0.237   6.967   9.889 -2.1857  1.0098 -0.5147
17577SOL    HW257289   0.269   6.829   9.835  2.0570  1.6725 -0.1055
17578SOL     OW57290   0.546  10.950   0.328  0.2954 -0.7336  0.0127
17578SOL    HW157291   0.496  10.905   0.396 -0.7406  0.6208  0.1939
17578SOL    HW257292   0.591  11.021   0.373 -1.3349  0.9170 -0.8242
17579SOL     OW57293  10.244   2.790   7.645  0.1508  0.0965  0.2881
17579SOL    HW157294  10.174   2.836   7.598 -0.5315 -0.1194  1.0832
17579SOL    HW257295  10.217   2.698   7.644  1.0879 -0.1861 -0.5493
17580SOL     OW57296   2.416   2.595   2.661 -0.0520 -0.0912  0.2793
17580SOL    HW157297   2.503   2.583   2.623  0.3699  0.3420  1.0825
17580SOL    HW257298   2.387   2.506   2.683 -0.0750 -0.2962 -0.5307
17581SOL     OW57299   0.988   0.161   2.766 -0.1360  0.6727 -0.2364
17581SOL    HW157300   0.924   0.184   2.698  2.8801  2.0144 -2.8564
17581SOL    HW257301   0.952   0.082   2.806 -4.1926  2.1930 -0.3111
17582SOL     OW57302   8.333   1.457   9.379 -0.2341 -0.2682 -0.0001
17582SOL    HW157303   8.318   1.371   9.338 -0.1261  0.3607 -1.4130
17582SOL    HW257304   8.335   1.518   9.305  1.0009  0.7770  0.8673
17583SOL     OW57305   9.038  10.795   9.881 -0.4539  0.3870  0.0163
17583SOL    HW157306   9.000  10.851   9.948 -1.5291 -1.0323  0.6441
17583SOL    HW257307   9.067  10.855   9.812 -3.3737  1.5871 -0.2727
17584SOL     OW57308  11.853   1.470   8.768 -0.0604 -0.1056  0.2048
17584SOL    HW157309  11.821   1.502   8.853  0.3276 -0.1910  0.3834
17584SOL    HW257310  11.881   1.549   8.722 -0.3258 -0.0527  0.1315
17585SOL     OW57311   9.846   8.168   1.938  0.4566 -0.3822  0.4303
17585SOL    HW157312   9.887   8.113   2.005  2.2335  0.6172  0.2147
17585SOL    HW257313   9.858   8.119   1.856 -1.5761 -1.5272  0.7402
17586SOL     OW57314   7.598   0.818   3.334  0.0563 -0.0258 -0.6265
17586SOL    HW157315   7.590   0.780   3.422  1.5550 -0.7421 -0.7798
17586SOL    HW257316   7.509   0.846   3.313 -1.1934 -3.4243 -0.4883
17587SOL     OW57317  11.055   5.143   3.389 -0.2685 -0.1866  0.2518
17587SOL    HW157318  10.969   5.132   3.347 -0.8223  1.2517  0.9153
17587SOL    HW257319  11.115   5.160   3.317 -1.0813  1.5555 -0.0701
17588SOL     OW57320   7.938   6.384   4.107 -0.4773  0.1895  0.4046
17588SOL    HW157321   7.955   6.474   4.079  0.3902  0.3347  1.3493
17588SOL    HW257322   7.895   6.393   4.192 -1.1192 -0.2791  0.1387
17589SOL     OW57323   2.796   9.111   5.391 -0.2738  0.0559  0.2370
17589SOL    HW157324   2.747   9.120   5.473 -1.7186  0.6335 -0.6692
17589SOL    HW257325   2.747   9.162   5.327  0.4382 -0.9747 -1.1833
17590SOL     OW57326   6.594   8.186   2.596  0.0002 -0.5608 -0.1448
17590SOL    HW157327   6.586   8.119   2.529 -0.3968  0.8413 -1.5662
17590SOL    HW257328   6.684   8.217   2.590  1.5036 -3.5627  3.2158
17591SOL     OW57329   7.725   7.927   7.753 -0.0373 -0.0860 -0.6204
17591SOL    HW157330   7.758   7.838   7.761 -1.1850 -0.5721 -1.0998
17591SOL    HW257331   7.694   7.949   7.840  0.6956  0.0463 -0.3814
17592SOL     OW57332   1.813  10.084   3.280 -0.1951 -0.7332 -0.1249
17592SOL    HW157333   1.897  10.042   3.302 -1.0262 -2.3587  0.1231
17592SOL    HW257334   1.814  10.088   3.184  0.6565  0.3546 -0.0862
17593SOL     OW57335   6.855   2.303   5.477 -0.0245 -0.3506 -0.6181
17593SOL    HW157336   6.761   2.289   5.487 -0.5269  1.6444 -1.9312
17593SOL    HW257337   6.875   2.375   5.537  0.2352  0.5767 -1.7876
17594SOL     OW57338  10.303   5.225   0.076  0.3394  0.2113  0.1124
17594SOL    HW157339  10.249   5.279   0.018 -1.9355 -0.7775  1.1595
17594SOL    HW257340  10.376   5.197   0.021 -0.6854  0.9039 -1.7032
17595SOL     OW57341   8.792   1.948   5.610 -0.0728 -0.9277 -0.2763
17595SOL    HW157342   8.828   1.962   5.698  1.6427  0.4542 -1.1328
17595SOL    HW257343   8.698   1.951   5.622  0.1360 -0.4065  1.4819
17596SOL     OW57344   3.943   0.143   3.718  0.3785 -0.1560  0.2218
17596SOL    HW157345   3.886   0.106   3.785 -0.1758 -1.8739 -1.1219
17596SOL    HW257346   3.884   0.190   3.659  0.3641 -1.4958 -0.8842
17597SOL     OW57347  11.946   5.914   0.391 -0.0467 -0.1648  0.6776
17597SOL    HW157348  11.921   5.943   0.303  0.8452  0.7173  0.6931
17597SOL    HW257349  11.899   5.832   0.404 -2.0547  0.8925  0.3210
17598SOL     OW57350   1.056   6.830   9.856  0.8035  0.0117  0.8396
17598SOL    HW157351   0.997   6.756   9.838  0.6219 -0.0209  1.5437
17598SOL    HW257352   1.020   6.902   9.805  2.1903 -0.8837 -1.6014
17599SOL     OW57353   3.966  10.876   4.090 -0.9006  0.0334 -0.0739
17599SOL    HW157354   4.056  10.909   4.087  0.2125 -2.7458 -0.6778
17599SOL    HW257355   3.944  10.857   3.999 -1.7793 -0.1353  0.1604
17600SOL     OW57356   4.183   8.059   9.568  0.0841  0.1047 -0.3066
17600SOL    HW157357   4.231   7.980   9.543 -1.2588 -0.7646 -0.2280
17600SOL    HW257358   4.248   8.113   9.612  1.2182 -0.6094 -1.0366
17601SOL     OW57359   6.850   5.333   7.986 -0.0729  0.4557  0.2013
17601SOL    HW157360   6.845   5.409   8.044 -0.0586  0.1876  0.5569
17601SOL    HW257361   6.854   5.258   8.045 -2.1526  0.0257 -0.1467
17602SOL     OW57362  10.411   3.551   2.762  0.7950 -0.2785  0.5328
17602SOL    HW157363  10.419   3.646   2.767  1.1594 -0.2427 -0.4250
17602SOL    HW257364  10.407   3.532   2.668 -2.6644 -0.9554  0.6971
17603SOL     OW57365   3.270  10.855  11.689  0.9778  0.3158 -0.4013
17603SOL    HW157366   3.238  10.922  11.750  0.3094 -1.4293  1.2646
17603SOL    HW257367   3.216  10.864  11.611 -0.2056  0.6594  0.4436
17604SOL     OW57368  10.418   7.300   1.357 -0.7458 -0.0674 -0.0207
17604SOL    HW157369  10.368   7.380   1.343  3.0598  2.5548 -0.2821
17604SOL    HW257370  10.440   7.269   1.270 -3.0416 -2.1892  0.0372
17605SOL     OW57371   2.645   9.973   0.312 -0.4473 -0.1193 -0.2552
17605SOL    HW157372   2.573  10.011   0.262 -1.8035 -1.4992  0.5825
17605SOL    HW257373   2.614   9.971   0.402  0.0306 -2.0486 -0.0775
17606SOL     OW57374  10.772   7.117   0.176  0.0598  1.0068 -0.0708
17606SOL    HW157375  10.766   7.129   0.081 -1.3298 -0.7008 -0.2444
17606SOL    HW257376  10.723   7.191   0.213  0.1965  1.4155 -0.6862
17607SOL     OW57377  11.651   2.041   6.571  0.0040  0.5889 -0.4086
17607SOL    HW157378  11.724   2.062   6.630 -0.6738  0.1840  0.5838
17607SOL    HW257379  11.664   1.949   6.550 -1.2542 -0.0272  1.2978
17608SOL     OW57380  10.342   9.525   4.998 -0.5411  0.6208 -0.3355
17608SOL    HW157381  10.351   9.575   5.079  2.1746 -1.1872  0.6012
17608SOL    HW257382  10.270   9.464   5.015 -0.2430  0.5120  0.5802
17609SOL     OW57383  11.995  11.570   7.566 -0.4534 -0.1652  0.2543
17609SOL    HW157384  12.084  11.592   7.541 -0.7934 -0.5492 -1.3998
17609SOL    HW257385  12.003  11.534   7.655  1.2620 -1.6673 -0.4357
17610SOL     OW57386   9.391   8.670  12.101  0.3770 -0.1406  0.3224
17610SOL    HW157387   9.417   8.747  12.051  1.2087 -0.0339  0.8989
17610SOL    HW257388   9.414   8.596  12.044 -1.8337  0.0357 -0.8931
17611SOL     OW57389   3.147   2.810  10.489  0.5169 -0.2448 -0.0551
17611SOL    HW157390   3.197   2.765  10.558  2.1266  0.9514 -0.3916
17611SOL    HW257391   3.131   2.742  10.423  0.1938 -1.0533  0.8268
17612SOL     OW57392   4.958  11.819  11.041  0.2968  0.0414 -0.2050
17612SOL    HW157393   4.968  11.812  10.946 -2.0893 -0.4569 -0.4693
17612SOL    HW257394   4.977  11.731  11.074  0.7164  0.1155 -0.2340
17613SOL     OW57395   1.938   8.260   6.120 -0.3413 -0.3249 -0.2968
17613SOL    HW157396   1.901   8.180   6.084 -0.9347 -0.2786  0.1936
17613SOL    HW257397   1.978   8.304   6.045 -1.3549 -0.3377 -0.8590
17614SOL     OW57398   8.594   9.300   7.937  0.6260 -0.4082  0.0197
17614SOL    HW157399   8.639   9.349   7.868  2.5902  1.0507  2.1967
17614SOL    HW257400   8.646   9.315   8.016 -0.9078 -2.8676  1.6553
17615SOL     OW57401   7.943   8.416   4.321  0.3130  0.4531  0.1578
17615SOL    HW157402   8.031   8.454   4.331  0.3599  0.6631 -0.9721
17615SOL    HW257403   7.932   8.405   4.227 -0.9784  0.6621  0.2667
17616SOL     OW57404   5.945   6.859  11.764  0.7971 -0.1541 -0.0286
17616SOL    HW157405   6.029   6.859  11.719  0.8301  1.0731  0.0133
17616SOL    HW257406   5.952   6.787  11.827  1.8468 -0.0213  0.0203
17617SOL     OW57407  10.710   5.332   5.868 -0.3359  0.3438  0.3731
17617SOL    HW157408  10.659   5.252   5.880 -0.1971  0.1020 -0.5488
17617SOL    HW257409  10.651   5.392   5.823 -0.7048  1.0648  1.7840
17618SOL     OW57410   5.728   4.312   9.295 -0.7936 -0.3697  0.4829
17618SOL    HW157411   5.778   4.292   9.374  0.3754  0.0018 -0.1463
17618SOL    HW257412   5.774   4.386   9.255 -0.6892 -1.2587 -1.1357
17619SOL     OW57413   5.171   4.001  11.096  0.5924  0.1188 -0.3439
17619SOL    HW157414   5.093   3.954  11.065  0.0130  1.6224 -1.2736
17619SOL    HW257415   5.159   4.009  11.190 -1.0163  1.3900 -0.6221
17620SOL     OW57416   1.035   3.588  11.308 -0.1970  0.2826  0.4655
17620SOL    HW157417   0.965   3.564  11.246  0.3314  0.0032 -0.0285
17620SOL    HW257418   1.099   3.635  11.255 -0.6751  1.8311  1.2033
17621SOL     OW57419   2.029   7.436   8.730 -0.0037 -0.0729  0.6032
17621SOL    HW157420   2.027   7.352   8.777  1.9901 -0.7034 -0.3092
17621SOL    HW257421   2.067   7.498   8.791 -1.8720  0.3197  1.4300
17622SOL     OW57422   0.158   8.375   7.766 -0.0098  0.1062  0.5158
17622SOL    HW157423   0.241   8.421   7.773  1.8944 -2.6993 -1.1800
17622SOL    HW257424   0.155   8.346   7.674 -1.5258 -2.1459  1.1932
17623SOL     OW57425   8.583  10.811   3.140 -0.4266 -0.9135 -1.0548
17623SOL    HW157426   8.508  10.780   3.190  1.0575 -2.5799  0.2395
17623SOL    HW257427   8.576  10.907   3.143 -2.1097 -1.0288 -0.4010
17624SOL     OW57428   5.256   3.733   9.518 -0.6987  0.3919 -0.4525
17624SOL    HW157429   5.233   3.815   9.560  0.0561  1.2303 -1.6153
17624SOL    HW257430   5.347   3.745   9.489  0.3011 -1.7601  1.5028
17625SOL     OW57431  11.168   2.187   8.331 -0.2595  0.2300 -0.0992
17625SOL    HW157432  11.179   2.106   8.381 -0.3625  0.5384  0.4207
17625SOL    HW257433  11.256   2.206   8.298  0.1035  0.7871  1.1402
17626SOL     OW57434   4.985   8.487   7.447  0.3340  0.2158 -0.7244
17626SOL    HW157435   4.948   8.531   7.370 -0.3443  0.8742 -0.0382
17626SOL    HW257436   4.946   8.400   7.447 -1.9052  1.1419  0.4148
17627SOL     OW57437  10.852   9.331   6.622 -0.4786  0.3890 -0.8425
17627SOL    HW157438  10.928   9.348   6.567  0.8804 -1.0487  0.4742
17627SOL    HW257439  10.817   9.248   6.589 -0.4274  0.1747 -0.3684
17628SOL     OW57440   4.300   1.922   5.632  0.0021  0.2168 -0.2930
17628SOL    HW157441   4.344   1.860   5.690  0.4155  1.6946  1.0263
17628SOL    HW257442   4.358   1.929   5.556 -0.5274 -1.7011 -0.9334
17629SOL     OW57443  11.128   6.037   7.791  0.0597 -0.2068 -0.3386
17629SOL    HW157444  11.041   6.024   7.754  0.0005  1.1831 -0.7574
17629SOL    HW257445  11.184   6.053   7.716  0.5133 -0.2500 -0.0136
17630SOL     OW57446   3.990   3.386   0.816  0.0301  0.1127 -0.0994
17630SOL    HW157447   3.969   3.299   0.849 -1.3363  0.5748  0.3502
17630SOL    HW257448   3.913   3.412   0.765  0.7388  0.7517 -0.8804
17631SOL     OW57449   8.182   9.040   5.403 -0.2173  0.1649 -0.0851
17631SOL    HW157450   8.201   9.109   5.340  2.2573 -0.6903 -0.3906
17631SOL    HW257451   8.104   8.995   5.367 -0.0589  0.9340 -1.4508
17632SOL     OW57452   2.240  11.300   7.482 -0.4236 -0.1897  0.5335
17632SOL    HW157453   2.331  11.328   7.475  0.2338 -1.9368  1.4901
17632SOL    HW257454   2.194  11.352   7.416  1.5213 -0.3396 -1.0440
17633SOL     OW57455   1.258  10.702   7.516 -0.0757 -0.3300  0.6999
17633SOL    HW157456   1.303  10.731   7.596  0.7604  0.1888  0.0669
17633SOL    HW257457   1.165  10.702   7.539  0.0969  0.4819  1.4686
17634SOL     OW57458   1.195   2.781   6.648  0.4506  0.4439  0.0984
17634SOL    HW157459   1.146   2.843   6.594 -0.0822  0.7554  0.9365
17634SOL    HW257460   1.254   2.737   6.586  0.6591  1.5968 -0.5461
17635SOL     OW57461   9.398   7.501  11.082 -0.0066 -0.6828  0.2989
17635SOL    HW157462   9.352   7.529  11.003 -0.0832 -0.9555  0.2460
17635SOL    HW257463   9.353   7.546  11.154 -0.5703 -1.2101  0.2816
17636SOL     OW57464   3.568  10.067   2.970 -0.3488  0.0840  0.3696
17636SOL    HW157465   3.496  10.107   2.921 -1.6651 -0.0846  2.0728
17636SOL    HW257466   3.564   9.974   2.947 -2.0709 -0.3000  2.0294
17637SOL     OW57467   7.474   4.196   2.694 -0.4614 -0.2278  0.5460
17637SOL    HW157468   7.429   4.112   2.702 -0.5269 -0.1170  1.4295
17637SOL    HW257469   7.557   4.175   2.651 -0.1300 -0.8792  1.4620
17638SOL     OW57470   6.076   2.914  10.990  0.1965  0.1627  0.5852
17638SOL    HW157471   6.008   2.941  11.052  0.1860  0.2922  0.5173
17638SOL    HW257472   6.156   2.954  11.024  0.1924  0.2256  0.5192
17639SOL     OW57473  11.976   4.257   6.115 -0.1284 -0.2579  0.3750
17639SOL    HW157474  12.006   4.241   6.025  0.9066 -0.3185  0.7295
17639SOL    HW257475  12.030   4.330   6.146  0.3041 -0.9817  1.3399
17640SOL     OW57476  10.690  10.874   6.878  0.5193  0.1044  0.5642
17640SOL    HW157477  10.706  10.787   6.914  0.4180 -0.5362 -0.8808
17640SOL    HW257478  10.697  10.933   6.954 -1.4370 -1.3506  1.9810
17641SOL     OW57479  11.936   7.041  10.452  0.2181 -0.0702 -0.1730
17641SOL    HW157480  11.863   7.035  10.513 -0.1864 -0.1287 -0.6585
17641SOL    HW257481  11.979   7.123  10.474  0.2858 -0.2579  0.4176
17642SOL     OW57482   9.778  11.890   3.568 -0.6406 -0.6430 -0.2413
17642SOL    HW157483   9.684  11.872   3.561 -0.6154 -0.5447 -0.8434
17642SOL    HW257484   9.802  11.928   3.484 -0.3510  0.6376  0.3898
17643SOL     OW57485   1.543  11.986   8.244  0.2169  0.0758 -0.1885
17643SOL    HW157486   1.509  12.058   8.298 -0.5306 -0.7995  0.5531
17643SOL    HW257487   1.597  12.028   8.178 -0.6774  1.3643 -0.1297
17644SOL     OW57488   2.954   0.052   2.668 -0.0878  0.3775  0.5444
17644SOL    HW157489   2.928   0.140   2.639 -1.5046  0.7123  2.5778
17644SOL    HW257490   2.987   0.065   2.756  1.2824 -0.9619  0.2659
17645SOL     OW57491  11.293   4.725   8.697 -0.8114 -0.1941  0.2465
17645SOL    HW157492  11.288   4.641   8.742 -2.6054 -0.3629 -0.2088
17645SOL    HW257493  11.223   4.777   8.735 -0.9671  0.4181 -0.8435
17646SOL     OW57494   1.134   5.924   4.102 -0.7187  0.0361 -0.2703
17646SOL    HW157495   1.151   5.885   4.016 -1.4966  1.3022 -1.0370
17646SOL    HW257496   1.051   5.970   4.091 -0.7280  0.3895  1.1161
17647SOL     OW57497  10.644   7.519   9.158  0.0029 -0.4837  0.3316
17647SOL    HW157498  10.703   7.487   9.226  0.5461 -1.7731 -0.7001
17647SOL    HW257499  10.567   7.549   9.205  1.6650  1.8071  1.7654
17648SOL     OW57500   6.608   5.609   6.849  0.0248 -0.4020 -0.1051
17648SOL    HW157501   6.514   5.620   6.864  0.3786 -0.9633  3.4671
17648SOL    HW257502   6.635   5.692   6.809 -1.8302  0.1281 -0.3828
17649SOL     OW57503   0.818   8.316   5.387 -0.4553 -0.4167 -0.1786
17649SOL    HW157504   0.895   8.297   5.335 -0.7637 -0.2071 -0.7210
17649SOL    HW257505   0.744   8.296   5.330 -0.8446 -1.8421  0.7546
17650SOL     OW57506  10.615   4.055   8.097 -0.1357 -0.3393 -0.0655
17650SOL    HW157507  10.686   4.003   8.058 -0.1135 -0.2789 -0.1060
17650SOL    HW257508  10.632   4.144   8.067 -0.1789 -0.3103 -0.0034
17651SOL     OW57509   8.494   4.330   1.362 -0.4274 -0.1596  0.2199
17651SOL    HW157510   8.533   4.265   1.304  0.4977 -0.5943  1.2810
17651SOL    HW257511   8.562   4.346   1.428 -0.4646  2.1984 -0.2343
17652SOL     OW57512   5.979   6.716  10.550 -0.0180 -0.1612 -0.4080
17652SOL    HW157513   5.949   6.700  10.639  0.8803 -0.6613 -0.1803
17652SOL    HW257514   5.920   6.783  10.516 -0.8041 -0.4663  0.3213
17653SOL     OW57515  11.742   5.698  11.762  0.1584  0.5021 -0.3140
17653SOL    HW157516  11.801   5.748  11.818  0.6945  1.1160 -1.3966
17653SOL    HW257517  11.799   5.637  11.715 -0.4115 -0.7076  0.5234
17654SOL     OW57518  10.181   7.007   4.821  0.0717 -0.4719 -0.0855
17654SOL    HW157519  10.181   6.976   4.730 -0.9923  1.0722 -0.6521
17654SOL    HW257520  10.262   7.058   4.828 -0.3353  0.2265 -0.4650
17655SOL     OW57521  10.900   2.392   0.213 -1.0271 -0.1477 -0.3380
17655SOL    HW157522  10.899   2.304   0.250 -0.6193  0.3307  0.8602
17655SOL    HW257523  10.808   2.409   0.190 -1.2693 -0.5203  0.3257
17656SOL     OW57524   9.895   3.162   4.092  0.1983  0.1417  0.1985
17656SOL    HW157525   9.846   3.205   4.162 -0.6435 -0.6224  0.1057
17656SOL    HW257526   9.986   3.163   4.122 -0.1091  0.0992  1.1729
17657SOL     OW57527   5.517  10.184   4.015 -0.1844  0.0108 -0.2160
17657SOL    HW157528   5.451  10.116   4.000  0.6883 -0.5717 -1.7316
17657SOL    HW257529   5.573  10.148   4.084  0.3247 -0.8763 -1.0736
17658SOL     OW57530   0.682   4.202   6.321  0.0772 -0.1896 -0.0959
17658SOL    HW157531   0.610   4.191   6.383 -2.2150 -0.0903 -2.5481
17658SOL    HW257532   0.715   4.114   6.305  1.2801 -0.1448  1.7702
17659SOL     OW57533   7.856   0.216   0.781 -0.0004  0.4748  0.1315
17659SOL    HW157534   7.835   0.210   0.688  0.9122  0.4819 -0.0841
17659SOL    HW257535   7.903   0.299   0.789  2.6848 -0.9365  0.0197
17660SOL     OW57536   3.369   7.593  10.652 -0.0381  0.5195  0.2030
17660SOL    HW157537   3.302   7.642  10.699 -0.5816 -0.3285  0.3357
17660SOL    HW257538   3.423   7.660  10.610  0.6714  1.3187  2.2819
17661SOL     OW57539   8.919   6.828   3.483  0.1121  0.3330  0.2114
17661SOL    HW157540   8.838   6.824   3.535 -0.7428  0.9711 -1.0283
17661SOL    HW257541   8.988   6.809   3.546 -0.8542  1.4127  1.6730
17662SOL     OW57542   0.490  11.934   4.461 -0.2687 -0.2559  0.3745
17662SOL    HW157543   0.492  11.886   4.378  0.2187 -0.8085  0.7005
17662SOL    HW257544   0.509  12.025   4.437 -2.4239  0.0476 -0.4227
17663SOL     OW57545   9.454   8.462   6.259 -0.5763  0.5817  0.1136
17663SOL    HW157546   9.507   8.491   6.333  0.2028  0.8460 -0.5283
17663SOL    HW257547   9.495   8.504   6.183  0.8053 -2.4047 -0.9309
17664SOL     OW57548   2.892   0.284   1.512  0.3382 -0.0336  0.2083
17664SOL    HW157549   2.918   0.233   1.435 -0.4761 -1.1751  0.6623
17664SOL    HW257550   2.802   0.312   1.493 -0.4459 -1.6455  1.3643
17665SOL     OW57551  11.880   7.198   6.281 -0.4101  1.0099 -0.2812
17665SOL    HW157552  11.932   7.189   6.360  1.0371 -0.7059 -1.3490
17665SOL    HW257553  11.924   7.266   6.230 -0.1251  0.6735 -0.4899
17666SOL     OW57554   9.815  11.562   4.475 -0.6498 -0.5234  0.2508
17666SOL    HW157555   9.791  11.655   4.484 -0.9813 -0.6074  0.2454
17666SOL    HW257556   9.835  11.552   4.382 -0.3977 -0.4057  0.2925
17667SOL     OW57557   8.176   6.974   6.480  0.4591 -0.4875  0.2686
17667SOL    HW157558   8.237   7.030   6.432  0.0562  0.9849  1.4147
17667SOL    HW257559   8.103   6.961   6.420 -0.1787  1.5718  0.5065
17668SOL     OW57560   9.749   4.802   5.722  0.4744 -0.1669 -0.3002
17668SOL    HW157561   9.805   4.736   5.681  0.0410 -0.7866  0.0988
17668SOL    HW257562   9.663   4.762   5.726  0.4973 -0.1300  1.2062
17669SOL     OW57563   5.520   7.293  12.086 -0.1914 -0.3364 -0.2715
17669SOL    HW157564   5.558   7.239  12.156  0.2306 -1.3675 -1.2714
17669SOL    HW257565   5.588   7.358  12.067  0.3696 -1.0874 -0.8542
17670SOL     OW57566   3.004   1.236   7.806 -0.3336  0.0095  0.0915
17670SOL    HW157567   2.916   1.247   7.842 -0.6566 -1.2938 -0.2252
17670SOL    HW257568   3.062   1.280   7.868 -1.1884  0.7147  0.4025
17671SOL     OW57569   6.800  10.170   9.758  0.1218 -0.2716  0.2056
17671SOL    HW157570   6.819  10.152   9.666 -0.2471 -0.7825  0.2246
17671SOL    HW257571   6.880  10.211   9.792  0.2212  0.0189 -0.3664
17672SOL     OW57572   2.358   6.780   8.036  0.1414 -0.0178  0.1146
17672SOL    HW157573   2.414   6.857   8.022  2.5359 -1.3355  1.7675
17672SOL    HW257574   2.369   6.728   7.956 -1.2407  1.1067 -0.8765
17673SOL     OW57575   2.941   4.395   6.166  0.3527 -0.0297  0.4327
17673SOL    HW157576   3.004   4.455   6.206 -0.0877  1.7777 -1.4223
17673SOL    HW257577   2.957   4.402   6.072 -1.8781 -0.3619 -0.0230
17674SOL     OW57578  10.107   4.410   7.349  0.2098 -0.2292 -0.6523
17674SOL    HW157579  10.144   4.464   7.279  2.9595  0.7309  1.3587
17674SOL    HW257580  10.118   4.463   7.428 -0.0076 -2.4611  0.9553
17675SOL     OW57581   6.414   8.127   9.940 -0.3544 -0.1016  0.4778
17675SOL    HW157582   6.401   8.218   9.912 -2.1029 -0.4565  0.0479
17675SOL    HW257583   6.441   8.081   9.860  0.8054  0.0763  0.7541
17676SOL     OW57584   7.908   0.086   8.442  0.0535 -0.1007 -0.1027
17676SOL    HW157585   7.926   0.025   8.514 -0.0196  2.3294  2.1461
17676SOL    HW257586   7.814   0.104   8.449 -0.0418 -0.1636 -1.1141
17677SOL     OW57587  10.112   7.474  11.148  0.0417  0.6360  0.1326
17677SOL    HW157588  10.058   7.396  11.167 -0.8070  1.3425  0.6958
17677SOL    HW257589  10.056   7.528  11.092  0.1836  1.3452  0.6677
17678SOL     OW57590   2.765   6.919   4.081  0.5219 -0.0429 -0.5008
17678SOL    HW157591   2.852   6.904   4.118  0.6992  1.8560 -0.0296
17678SOL    HW257592   2.746   7.010   4.102 -1.3665 -0.2672 -1.0801
17679SOL     OW57593   4.503   2.885   4.860  0.2378  0.1987 -0.1681
17679SOL    HW157594   4.442   2.958   4.872 -0.1999 -0.1817 -0.0191
17679SOL    HW257595   4.476   2.844   4.778  0.0628 -0.1819  0.0742
17680SOL     OW57596  11.427  10.383   8.341 -0.3903  0.3940  0.1165
17680SOL    HW157597  11.360  10.338   8.392  0.0663 -1.5330 -0.8908
17680SOL    HW257598  11.400  10.372   8.250  0.7532  0.4685 -0.2512
17681SOL     OW57599   6.379   2.112  11.228  0.0939 -0.4350  0.0280
17681SOL    HW157600   6.295   2.156  11.237  1.4203  2.3947 -0.4028
17681SOL    HW257601   6.375   2.072  11.141 -0.7841 -0.3291  0.0057
17682SOL     OW57602   5.288   6.514   4.292  0.1125  0.3966 -0.1912
17682SOL    HW157603   5.345   6.454   4.341 -0.1029 -0.5022 -1.0120
17682SOL    HW257604   5.214   6.460   4.265 -1.3569  1.6368  1.1694
17683SOL     OW57605  10.900   0.794   3.108  0.5680 -0.0634 -0.0427
17683SOL    HW157606  10.991   0.804   3.137  0.6983  2.9960 -1.1093
17683SOL    HW257607  10.893   0.702   3.083  2.8114 -0.8216  1.7253
17684SOL     OW57608   5.468   9.100   0.805 -0.0268 -0.6638  0.9807
17684SOL    HW157609   5.402   9.121   0.871 -0.1576  0.2602  0.5785
17684SOL    HW257610   5.418   9.093   0.723  0.2566 -0.8406  0.8231
17685SOL     OW57611   5.800   8.255   9.588  1.0019  0.4885 -0.2244
17685SOL    HW157612   5.787   8.325   9.525  1.4548  1.5088  0.7700
17685SOL    HW257613   5.797   8.175   9.537 -1.0272  1.1097 -1.2001
17686SOL     OW57614   8.637  10.528   3.591  0.2572  0.7254 -0.3883
17686SOL    HW157615   8.688  10.602   3.557  1.8856  0.4000  1.1603
17686SOL    HW257616   8.700  10.456   3.596 -0.8928 -0.3165 -0.3365
17687SOL     OW57617  10.741   7.666   5.463 -0.4321  0.6748  0.1952
17687SOL    HW157618  10.773   7.576   5.457 -0.7810  0.6081 -0.8901
17687SOL    HW257619  10.692   7.669   5.545 -0.6492 -0.2050  0.1099
17688SOL     OW57620  10.639   3.867   6.193  0.0117 -0.0651  0.0288
17688SOL    HW157621  10.580   3.803   6.233  0.0318  0.0864  0.3047
17688SOL    HW257622  10.581   3.927   6.145 -0.1417  0.5748  0.9824
17689SOL     OW57623   5.145   2.133   1.987  0.6840  0.3790 -0.0267
17689SOL    HW157624   5.087   2.176   1.924  1.6354  0.3414 -0.9481
17689SOL    HW257625   5.144   2.191   2.063  0.7461  1.2492 -0.6685
17690SOL     OW57626   5.599   0.316   7.017 -0.0637 -0.3440  1.2926
17690SOL    HW157627   5.531   0.317   7.085  0.1078  1.5858  1.4953
17690SOL    HW257628   5.550   0.314   6.935 -0.3422 -0.3908  1.4578
17691SOL     OW57629  11.362   5.380  12.079 -0.5352  0.3847 -0.0313
17691SOL    HW157630  11.334   5.306  12.025 -3.2649  0.7442  0.7502
17691SOL    HW257631  11.414   5.435  12.020  1.8969 -2.1939 -0.5659
17692SOL     OW57632  11.022   3.860  10.828 -0.0302 -0.5838 -0.1565
17692SOL    HW157633  10.954   3.881  10.891 -1.8018 -2.0336 -1.4844
17692SOL    HW257634  11.028   3.937  10.772 -0.1395 -0.2121  0.3423
17693SOL     OW57635   5.856   3.962  10.247  0.5269 -0.7548 -0.1631
17693SOL    HW157636   5.860   4.048  10.206  1.3531 -0.7762 -0.1431
17693SOL    HW257637   5.810   3.907  10.183  0.8710 -0.5366 -0.6040
17694SOL     OW57638  10.586   7.691  11.802 -0.1730 -0.5206  0.3917
17694SOL    HW157639  10.643   7.756  11.760 -0.4740 -0.1743  0.5104
17694SOL    HW257640  10.633   7.608  11.795 -0.2106 -0.4673 -0.6275
17695SOL     OW57641   0.492  12.079  12.044  0.2107  0.2937 -0.1221
17695SOL    HW157642   0.402  12.084  12.078 -0.7105 -2.0612 -1.9155
17695SOL    HW257643   0.510  11.985  12.039  1.9098  0.6481 -1.9620
17696SOL     OW57644  10.135   7.771   1.890 -0.3503 -0.1293  0.6927
17696SOL    HW157645  10.206   7.716   1.923 -0.3828 -0.8738 -0.4334
17696SOL    HW257646  10.087   7.714   1.829 -1.4616  0.5950  0.8674
17697SOL     OW57647   5.952   9.724   6.523 -0.0445 -0.3051 -0.0858
17697SOL    HW157648   5.947   9.796   6.586  1.1136  0.2754 -0.6208
17697SOL    HW257649   6.008   9.659   6.566  2.0259  0.7404 -1.0631
17698SOL     OW57650  12.006   6.429   6.272 -0.7818  0.1358  0.3459
17698SOL    HW157651  12.068   6.356   6.270 -0.8604  0.0519  0.9738
17698SOL    HW257652  12.032   6.484   6.198  0.2693  0.2946  0.8183
17699SOL     OW57653   4.119   2.701   3.376  0.3201 -0.1197  0.4416
17699SOL    HW157654   4.059   2.764   3.415  0.7988  2.2619 -2.2904
17699SOL    HW257655   4.206   2.735   3.397  0.6459 -1.0285  0.6119
17700SOL     OW57656   7.799   6.375  10.851 -0.0960 -0.8628 -0.0080
17700SOL    HW157657   7.789   6.332  10.935  0.4463 -0.4508  0.2745
17700SOL    HW257658   7.892   6.398  10.847 -0.5192  0.9803  0.1898
17701SOL     OW57659   6.930   7.212   0.187 -0.2493 -0.1616 -0.2533
17701SOL    HW157660   6.910   7.149   0.256 -1.2385  1.3329  0.8622
17701SOL    HW257661   6.945   7.295   0.233 -0.9356  0.8716 -1.8084
17702SOL     OW57662   5.128  11.912   5.827  0.2102  0.6117  0.5537
17702SOL    HW157663   5.049  11.967   5.833 -0.3110 -0.0403 -0.0517
17702SOL    HW257664   5.126  11.878   5.737  1.2692  0.6999  0.4841
17703SOL     OW57665   8.971  10.314   7.733 -0.9293  0.2480 -0.0128
17703SOL    HW157666   9.011  10.401   7.734  0.4495 -0.3018 -2.0454
17703SOL    HW257667   8.882  10.329   7.700 -0.6540  0.8826 -0.4906
17704SOL     OW57668   4.223   1.897   1.023  0.0379 -0.3509 -0.2942
17704SOL    HW157669   4.270   1.944   1.092 -0.8196 -0.5379  0.4240
17704SOL    HW257670   4.162   1.962   0.987 -0.6187 -0.6890  0.1919
17705SOL     OW57671   6.019   7.619   3.274 -0.7474 -0.0905 -0.1835
17705SOL    HW157672   6.090   7.558   3.258 -0.9061 -0.7073  1.3416
17705SOL    HW257673   5.940   7.565   3.270 -0.8722 -0.0781  1.4198
17706SOL     OW57674   1.207   6.879  10.627  0.0855 -0.2204 -0.1019
17706SOL    HW157675   1.284   6.889  10.571 -0.5864 -1.7609 -1.4070
17706SOL    HW257676   1.223   6.798  10.676 -0.6536 -0.5327 -0.3486
17707SOL     OW57677   9.565   1.161  11.151  0.1479 -0.0223  0.3535
17707SOL    HW157678   9.611   1.084  11.186  0.6554 -1.4243 -2.9786
17707SOL    HW257679   9.625   1.234  11.165  0.5449 -0.5932  1.7835
17708SOL     OW57680  12.017  10.319   2.471  0.2200 -0.1366  0.4768
17708SOL    HW157681  12.096  10.305   2.524 -0.7400  0.0178  2.0059
17708SOL    HW257682  11.983  10.231   2.455 -0.1629 -0.1218  1.1901
17709SOL     OW57683   0.890  11.543   5.374 -0.3448  0.4753  0.3140
17709SOL    HW157684   0.825  11.563   5.307 -1.0074  1.8845  1.3384
17709SOL    HW257685   0.974  11.563   5.332 -0.4874 -1.5169 -1.0771
17710SOL     OW57686   7.451   6.705   4.065 -0.4234  0.7624  0.1859
17710SOL    HW157687   7.397   6.730   4.141 -1.1846 -0.4970  0.0783
17710SOL    HW257688   7.516   6.644   4.101 -0.2135  0.8568 -0.0292
17711SOL     OW57689   6.883   5.995   5.431  0.1894 -0.2261 -0.3240
17711SOL    HW157690   6.798   6.019   5.393 -0.0296  0.3159  0.4648
17711SOL    HW257691   6.924   6.079   5.451  1.2105 -0.4781 -1.3151
17712SOL     OW57692   3.549   7.038   2.967  0.6000  0.2537  0.5103
17712SOL    HW157693   3.611   7.020   3.037  0.6464 -0.3556  0.3248
17712SOL    HW257694   3.561   6.965   2.906  0.0839  0.4156  0.2098
17713SOL     OW57695   5.509  11.245   8.141 -0.2786  0.1060  0.1537
17713SOL    HW157696   5.595  11.251   8.183  0.0067 -2.5573  0.1545
17713SOL    HW257697   5.448  11.282   8.205  0.4810 -1.2823  1.7509
17714SOL     OW57698   9.201   9.448   4.648 -0.5317 -0.1767 -0.3471
17714SOL    HW157699   9.219   9.408   4.563 -1.7171 -0.8021 -0.3367
17714SOL    HW257700   9.268   9.412   4.706  0.6597  0.7217 -1.1266
17715SOL     OW57701  11.545   4.941   1.695  0.3754 -0.0644 -0.3344
17715SOL    HW157702  11.521   5.025   1.656  0.5690  2.1833  3.7772
17715SOL    HW257703  11.468   4.886   1.684  0.2894  0.4749 -3.2677
17716SOL     OW57704   6.753   8.635   2.773 -0.2135 -0.0120 -0.4557
17716SOL    HW157705   6.760   8.553   2.821 -0.4727  0.7316  0.9068
17716SOL    HW257706   6.834   8.681   2.794 -0.3276  0.3270 -0.7468
17717SOL     OW57707   3.547   5.142   1.209  0.1751 -0.2850 -0.2772
17717SOL    HW157708   3.516   5.069   1.264  0.8695  1.1256  2.1432
17717SOL    HW257709   3.625   5.107   1.166  0.3195 -1.0965  0.5854
17718SOL     OW57710   0.065   5.379   4.356  0.0865  0.2627 -0.3782
17718SOL    HW157711   0.133   5.386   4.289 -0.2563  1.6129 -0.6145
17718SOL    HW257712  -0.011   5.423   4.318  0.0726  1.6262  1.1158
17719SOL     OW57713   7.100  10.619   1.380  0.4977 -0.1414  0.2527
17719SOL    HW157714   7.125  10.712   1.382  1.7587 -0.4529 -0.1204
17719SOL    HW257715   7.013  10.619   1.340  0.5826  0.8684  0.0296
17720SOL     OW57716  11.987   9.333   1.955 -0.0814  0.0603 -0.2334
17720SOL    HW157717  11.996   9.367   2.043  0.5332 -0.3608 -0.1232
17720SOL    HW257718  11.941   9.401   1.906  0.6581  0.8145  0.1050
17721SOL     OW57719   5.711   4.876  11.916 -0.1179  0.3483  0.4385
17721SOL    HW157720   5.771   4.847  11.847 -0.7610 -0.5715  0.2412
17721SOL    HW257721   5.646   4.930  11.869 -0.7632 -0.5753  0.2416
17722SOL     OW57722   8.063  11.216   0.713  0.6972 -0.4015 -0.1512
17722SOL    HW157723   7.981  11.167   0.708 -1.5712  2.5209  3.5678
17722SOL    HW257724   8.050  11.289   0.653 -0.1479  0.8067  1.4205
17723SOL     OW57725   7.534   1.191   3.393  0.3160  0.1616  0.2708
17723SOL    HW157726   7.529   1.213   3.486  1.9140  0.7117  0.2527
17723SOL    HW257727   7.627   1.191   3.373 -0.0288  1.4521 -1.6561
17724SOL     OW57728  11.770   9.233   4.995 -0.1661  0.3391  0.0947
17724SOL    HW157729  11.774   9.183   5.076  0.2571  0.1164 -0.0594
17724SOL    HW257730  11.853   9.214   4.951 -0.4284  0.3847 -0.4294
17725SOL     OW57731   3.803   9.934   4.262  0.0718  0.1407 -0.0970
17725SOL    HW157732   3.717   9.913   4.299 -0.3858  1.9455 -0.0426
17725SOL    HW257733   3.843   9.849   4.244 -1.7078 -0.7399 -0.0944
17726SOL     OW57734   7.636   2.434   7.494  0.0183 -0.5009 -0.7605
17726SOL    HW157735   7.598   2.348   7.511  1.9544 -1.0996  0.9678
17726SOL    HW257736   7.730   2.418   7.487  0.4934  1.5351  0.1993
17727SOL     OW57737   0.954   5.168   8.193  0.1886  0.3419  0.9373
17727SOL    HW157738   0.955   5.106   8.120  0.9203 -2.2738  3.0175
17727SOL    HW257739   0.878   5.143   8.245  0.0194  1.7825  1.4226
17728SOL     OW57740   6.500  10.251   9.573  0.5228 -0.1733 -0.4941
17728SOL    HW157741   6.468  10.204   9.497  0.6748  1.0389 -1.3412
17728SOL    HW257742   6.428  10.307   9.600  0.0622 -1.4058  0.9955
17729SOL     OW57743   3.210   2.251   0.881 -0.0436 -0.4783 -0.5428
17729SOL    HW157744   3.244   2.307   0.811 -3.0446  1.2626 -0.7714
17729SOL    HW257745   3.168   2.311   0.942  1.2038 -2.0954  2.1190
17730SOL     OW57746   2.560   2.514  10.272  0.0584 -0.4702  0.4376
17730SOL    HW157747   2.621   2.502  10.199 -0.0227 -0.9152  0.4426
17730SOL    HW257748   2.474   2.518  10.231  0.1993  2.0752  0.2262
17731SOL     OW57749   0.016   5.549   6.392 -0.2190 -0.1989  0.1374
17731SOL    HW157750   0.110   5.553   6.411  0.1156 -0.9550 -1.2500
17731SOL    HW257751   0.003   5.462   6.354 -1.2266  0.4289 -1.0094
17732SOL     OW57752   3.305   8.589   4.216  0.0639  0.4389  0.4229
17732SOL    HW157753   3.240   8.610   4.149 -0.1830  1.9692  1.1100
17732SOL    HW257754   3.330   8.674   4.252  0.6641 -0.3145  1.8304
17733SOL     OW57755   5.196   4.298   3.554 -0.2610  0.0759 -0.3919
17733SOL    HW157756   5.197   4.235   3.483 -1.4494  1.0900 -1.3523
17733SOL    HW257757   5.152   4.375   3.518 -0.1613  0.9220  1.1853
17734SOL     OW57758   3.898  10.412   8.475 -0.6882  0.3427 -0.0739
17734SOL    HW157759   3.878  10.324   8.442  1.8345 -0.7480  1.1191
17734SOL    HW257760   3.812  10.452   8.488 -1.9815 -2.4016  0.5452
17735SOL     OW57761  10.552   1.323  11.622  0.4704 -0.9762  0.6962
17735SOL    HW157762  10.634   1.307  11.576  0.3359  2.3934 -1.0720
17735SOL    HW257763  10.576   1.378  11.696  0.1183 -2.6694  2.1350
17736SOL     OW57764   9.181   7.268   0.634 -0.4035  0.2479 -0.3552
17736SOL    HW157765   9.261   7.259   0.687 -0.9392 -2.1024  0.1903
17736SOL    HW257766   9.195   7.348   0.583  0.8327  1.7413  2.1396
17737SOL     OW57767   4.827   3.318   2.476  0.0305  0.3147 -0.1774
17737SOL    HW157768   4.825   3.411   2.501  1.2965  0.1976  0.4787
17737SOL    HW257769   4.905   3.310   2.422 -0.7502 -0.1467 -1.2558
17738SOL     OW57770   9.234   1.527   8.243  0.5575  0.3280 -0.2967
17738SOL    HW157771   9.240   1.584   8.319  0.1256 -1.8386  1.4713
17738SOL    HW257772   9.161   1.564   8.191 -1.1523  0.2188  1.8750
17739SOL     OW57773   6.675   2.832   6.679 -0.0545 -0.0883  0.2347
17739SOL    HW157774   6.764   2.843   6.712 -0.1350  0.6941  0.2196
17739SOL    HW257775   6.634   2.917   6.694 -0.0843  0.3152 -1.9400
17740SOL     OW57776   9.429  10.202   5.869  0.7258  0.2423  0.4631
17740SOL    HW157777   9.433  10.143   5.945 -0.5596 -0.4524  0.0283
17740SOL    HW257778   9.459  10.149   5.796 -1.7921 -0.4196 -0.1922
17741SOL     OW57779  11.454   3.340   9.779 -0.8340 -0.5408 -0.0873
17741SOL    HW157780  11.386   3.353   9.845 -1.3131 -1.0350 -0.4698
17741SOL    HW257781  11.536   3.334   9.829 -0.6970  2.5397  0.2093
17742SOL     OW57782   0.201   3.529  10.733  0.2009 -0.3389 -0.4415
17742SOL    HW157783   0.209   3.591  10.807  0.6979 -1.0190  0.0893
17742SOL    HW257784   0.139   3.571  10.674  1.4859  1.2790 -0.7106
17743SOL     OW57785   7.519   5.370   5.925 -0.3310  0.5089  0.3762
17743SOL    HW157786   7.446   5.431   5.925 -0.6925  0.2683  3.6248
17743SOL    HW257787   7.597   5.425   5.929 -0.4620  0.7364 -0.0910
17744SOL     OW57788  10.567   0.194   7.223  0.0335 -0.0544  0.3159
17744SOL    HW157789  10.620   0.263   7.262  0.4792  1.5885 -2.8251
17744SOL    HW257790  10.628   0.147   7.166 -1.2641  0.1636 -1.3252
17745SOL     OW57791   0.817   6.274   9.722  0.0658  0.4468 -0.0164
17745SOL    HW157792   0.723   6.262   9.738  0.0518  0.1434 -0.3125
17745SOL    HW257793   0.857   6.271   9.809  0.0436 -1.6357 -0.0442
17746SOL     OW57794  10.744   8.341   6.999 -0.1565  0.0777  0.3850
17746SOL    HW157795  10.772   8.433   7.004  0.4362 -0.0793  0.0506
17746SOL    HW257796  10.663   8.338   7.049 -0.6648  0.9738 -0.3413
17747SOL     OW57797  11.714   8.136   3.173 -0.1592 -0.6404 -0.0665
17747SOL    HW157798  11.772   8.132   3.097  0.4386  0.1437  0.3261
17747SOL    HW257799  11.634   8.092   3.145  0.3463 -1.0665 -0.8785
17748SOL     OW57800   9.591   4.239   4.078  0.2381  0.3636 -0.3138
17748SOL    HW157801   9.529   4.312   4.083  1.0330  0.9819  0.8395
17748SOL    HW257802   9.616   4.235   3.986  0.3658  1.7033 -0.3537
17749SOL     OW57803   1.881  10.293  10.469  0.5069  0.6138  0.2270
17749SOL    HW157804   1.810  10.234  10.495 -1.2535  1.3070 -2.6287
17749SOL    HW257805   1.894  10.349  10.545  0.1320 -1.4223  1.9066
17750SOL     OW57806   1.383  10.290   4.104 -0.3818 -0.3624  0.1987
17750SOL    HW157807   1.314  10.238   4.145  1.5940 -2.7920  0.6756
17750SOL    HW257808   1.461  10.270   4.154  1.3080 -0.1706 -2.1883
17751SOL     OW57809   4.738   2.064   9.048  0.3449  0.5886 -0.5789
17751SOL    HW157810   4.828   2.038   9.071 -0.0673  0.3550  0.8977
17751SOL    HW257811   4.683   2.014   9.108 -0.7005  1.8337 -0.4573
17752SOL     OW57812   9.734  11.822   4.455  0.8276  0.0797  0.1377
17752SOL    HW157813   9.795  11.890   4.483  1.6110 -0.1155 -1.0333
17752SOL    HW257814   9.665  11.870   4.408  0.3070  0.2512  1.0518
17753SOL     OW57815   6.915  11.799   7.920 -0.2886  0.3578 -0.3719
17753SOL    HW157816   6.930  11.750   8.001 -0.8972  0.2630 -0.3094
17753SOL    HW257817   6.846  11.750   7.875  1.5083 -0.8407 -1.9996
17754SOL     OW57818   8.988   0.980  10.391  0.1153  0.1976 -0.0216
17754SOL    HW157819   8.970   0.973  10.485 -1.3851 -0.8479 -0.3715
17754SOL    HW257820   8.971   1.072  10.371  0.3716  0.4121  0.7112
17755SOL     OW57821   7.779  11.091   4.406 -0.8619  0.5965 -0.1263
17755SOL    HW157822   7.716  11.030   4.444 -0.6634  0.4597 -0.0174
17755SOL    HW257823   7.797  11.154   4.475 -0.1129  0.0548  0.1861
17756SOL     OW57824   0.765   0.281  10.737  0.2030  0.3301  0.0173
17756SOL    HW157825   0.848   0.324  10.719  0.2666  0.1735 -0.0682
17756SOL    HW257826   0.700   0.351  10.732  0.0734  0.1209 -1.9541
17757SOL     OW57827   6.850   4.739  10.719 -0.3074  0.3357 -0.0046
17757SOL    HW157828   6.813   4.827  10.726  0.1612  0.5310  0.0625
17757SOL    HW257829   6.789   4.692  10.662 -0.2387  0.8836 -0.5463
17758SOL     OW57830   6.813   8.587   9.961 -0.1902  0.4478  0.2068
17758SOL    HW157831   6.752   8.656   9.986  0.7569  1.5087 -0.3082
17758SOL    HW257832   6.848   8.555  10.044 -0.6323  0.5772  0.4512
17759SOL     OW57833   3.623   4.438   7.576  0.3057  0.4899  0.1442
17759SOL    HW157834   3.705   4.451   7.625 -0.2066 -1.6310  1.7465
17759SOL    HW257835   3.558   4.422   7.644 -1.0353  0.1359 -1.1844
17760SOL     OW57836   9.542   2.264   6.324 -0.1960  0.1180  0.2740
17760SOL    HW157837   9.517   2.177   6.356 -0.2187  0.2198  0.5376
17760SOL    HW257838   9.508   2.324   6.390  1.3060  0.2302  0.9763
17761SOL     OW57839   8.319   1.363   7.302  0.2344  1.0531  0.3206
17761SOL    HW157840   8.286   1.370   7.213 -1.5976 -1.7003  0.6491
17761SOL    HW257841   8.291   1.443   7.345 -1.1198  1.2986 -0.9261
17762SOL     OW57842   3.024   1.533  10.339  0.1156 -0.8439  0.4775
17762SOL    HW157843   3.006   1.446  10.375 -1.1510  0.0262  2.0928
17762SOL    HW257844   3.112   1.554  10.369  0.9838 -2.0921 -1.0873
17763SOL     OW57845  12.081   5.841   9.289 -0.4025  0.1985 -0.1449
17763SOL    HW157846  12.003   5.832   9.344 -2.1019 -0.3950 -2.4881
17763SOL    HW257847  12.100   5.752   9.260  1.5439  0.2543  0.8306
17764SOL     OW57848   5.640   8.162  10.644 -0.0625  0.0525 -0.7508
17764SOL    HW157849   5.701   8.235  10.629  0.1342 -0.0588 -0.5061
17764SOL    HW257850   5.695   8.092  10.679 -0.3731  0.0265 -0.3076
17765SOL     OW57851   0.248   0.749   9.470 -0.0308 -0.4802 -0.0262
17765SOL    HW157852   0.329   0.754   9.522  0.5013  0.0450 -0.8905
17765SOL    HW257853   0.274   0.779   9.383 -1.7098  2.4156  0.3207
17766SOL     OW57854   4.456   3.147   1.216  0.1226  0.6251  0.6147
17766SOL    HW157855   4.372   3.174   1.180  0.1085 -0.7496 -0.4598
17766SOL    HW257856   4.464   3.196   1.298 -2.0410  0.2570  1.1011
17767SOL     OW57857   4.799   4.781   8.797  0.1741  0.0388 -0.7419
17767SOL    HW157858   4.875   4.793   8.854 -0.3414 -2.1515  0.5530
17767SOL    HW257859   4.744   4.858   8.814  0.5230 -0.0418  0.9835
17768SOL     OW57860   8.373   0.966   9.788 -0.0844 -0.6015 -0.2755
17768SOL    HW157861   8.309   0.900   9.761 -1.1808 -0.0024  0.7931
17768SOL    HW257862   8.444   0.915   9.828 -0.5039 -1.1910 -0.2722
17769SOL     OW57863   4.188   1.575   5.025  0.9283 -0.2361  1.0068
17769SOL    HW157864   4.125   1.618   4.968  1.1702 -0.1446  0.8089
17769SOL    HW257865   4.269   1.624   5.013  1.3053 -0.9626  0.5006
17770SOL     OW57866  11.912   1.379  10.637 -0.3282 -0.0151 -0.5436
17770SOL    HW157867  11.872   1.306  10.590 -1.6980  0.5584 -0.3442
17770SOL    HW257868  11.988   1.403  10.584  1.7396 -3.1988  0.7244
17771SOL     OW57869   7.529   1.995  11.920 -0.3811 -0.4229  0.9539
17771SOL    HW157870   7.483   2.080  11.921  0.0811 -0.1033 -0.9729
17771SOL    HW257871   7.481   1.943  11.856  2.0562  0.0369 -1.3788
17772SOL     OW57872   1.397   9.741   9.155 -0.4549 -0.2019 -0.2378
17772SOL    HW157873   1.324   9.794   9.123 -0.5923 -1.3231 -1.9011
17772SOL    HW257874   1.443   9.798   9.216 -1.1891  1.4432 -1.1628
17773SOL     OW57875   0.035   3.587  11.173  0.0901 -0.0448  0.2272
17773SOL    HW157876  -0.052   3.589  11.132  0.1162 -2.1043 -0.0721
17773SOL    HW257877   0.026   3.636  11.254 -1.2801  0.0066  0.0552
17774SOL     OW57878  12.095  11.963   8.790  0.3027 -0.3542  0.4802
17774SOL    HW157879  12.106  11.943   8.697  1.5595 -1.0959  0.7634
17774SOL    HW257880  12.000  11.964   8.803  0.0840  0.5845 -0.9645
17775SOL     OW57881   9.885   7.828  11.192  0.4315 -0.3748  0.5301
17775SOL    HW157882   9.913   7.866  11.275 -1.0609 -1.4873  1.5880
17775SOL    HW257883   9.798   7.865  11.177 -1.1780 -3.4261  1.7133
17776SOL     OW57884   1.426   8.127   4.319 -0.6028  0.0894 -0.9265
17776SOL    HW157885   1.367   8.056   4.296 -1.1448  0.3304 -0.3267
17776SOL    HW257886   1.422   8.131   4.415  1.3354 -0.6830 -0.7908
17777SOL     OW57887  11.357   6.739   2.158  0.1358  0.1572  0.0475
17777SOL    HW157888  11.332   6.729   2.250 -0.0032  2.1243  0.2552
17777SOL    HW257889  11.369   6.833   2.146  2.6928 -0.2471 -1.3010
17778SOL     OW57890   4.175  11.200   2.254 -0.4658 -0.0005 -0.0510
17778SOL    HW157891   4.148  11.160   2.336  0.1624  0.4000  0.3576
17778SOL    HW257892   4.132  11.147   2.186  0.6344 -1.6214  0.4567
17779SOL     OW57893  10.070   7.966   8.392  0.3406 -0.0471 -0.3966
17779SOL    HW157894   9.992   7.920   8.363  0.6721 -0.6267 -0.3811
17779SOL    HW257895  10.060   7.974   8.487  0.8725 -1.2331 -0.2217
17780SOL     OW57896   1.552  10.988   9.036 -0.3680  0.5120 -0.3839
17780SOL    HW157897   1.486  10.997   9.105  1.0105  0.8239  0.9410
17780SOL    HW257898   1.609  11.064   9.046  0.2226  0.2437 -1.4951
17781SOL     OW57899   9.604   6.674   4.128 -0.3695 -0.1457  0.0113
17781SOL    HW157900   9.517   6.713   4.136 -0.3081 -0.1326  0.7137
17781SOL    HW257901   9.641   6.715   4.050 -0.4042  1.0367  0.5828
17782SOL     OW57902   7.882   4.550   4.300 -0.1514 -0.7662 -0.4758
17782SOL    HW157903   7.913   4.460   4.289  3.1503  0.2471 -0.4952
17782SOL    HW257904   7.940   4.602   4.244 -1.2229  1.5081  0.4192
17783SOL     OW57905  10.257   5.809   1.943  0.1112  0.2065  0.0317
17783SOL    HW157906  10.325   5.847   1.888 -0.8125  1.4424 -0.2843
17783SOL    HW257907  10.219   5.739   1.890 -0.3376  0.9672 -0.6560
17784SOL     OW57908  10.102   0.622   5.711  0.3537  0.2815 -0.7415
17784SOL    HW157909  10.146   0.588   5.789  0.3011 -0.4490 -1.0250
17784SOL    HW257910  10.028   0.672   5.745  0.4679  0.1601 -0.3140
17785SOL     OW57911   8.515   2.021   3.079 -0.5811  0.2804 -0.9249
17785SOL    HW157912   8.607   1.993   3.083 -0.4465  0.7305 -0.8544
17785SOL    HW257913   8.520   2.116   3.064 -1.0353  0.3008 -0.9367
17786SOL     OW57914   2.221   6.543   3.099  0.3262 -0.3274 -0.1703
17786SOL    HW157915   2.236   6.448   3.094  0.6040 -0.2497 -1.0680
17786SOL    HW257916   2.309   6.581   3.100  0.2705 -0.1211  2.0861
17787SOL     OW57917   2.302  11.897   7.740  0.2042 -0.3115 -0.4093
17787SOL    HW157918   2.239  11.969   7.740  0.4546  0.0894  2.9187
17787SOL    HW257919   2.265  11.832   7.680 -1.2552  1.5691 -1.6500
17788SOL     OW57920   8.706   1.959   9.619 -0.3317  0.2767  0.4109
17788SOL    HW157921   8.737   1.928   9.704  1.3065  1.6884  0.3754
17788SOL    HW257922   8.685   2.051   9.633 -2.3222 -0.0291 -0.1829
17789SOL     OW57923  11.061   1.319   5.783 -0.0540 -0.5147 -0.1637
17789SOL    HW157924  11.027   1.312   5.694  0.5646  1.1447 -0.5721
17789SOL    HW257925  11.020   1.398   5.819  1.4821  0.1940  0.1538
17790SOL     OW57926  11.429  11.184   0.611  0.1804  0.7179 -0.0831
17790SOL    HW157927  11.390  11.098   0.598  1.1248  0.2177  0.2790
17790SOL    HW257928  11.399  11.211   0.698 -0.1638  0.7715 -0.2209
17791SOL     OW57929   7.500   7.494   8.163 -0.2057 -0.0601  0.1429
17791SOL    HW157930   7.453   7.518   8.083  2.8226 -0.6698 -2.0023
17791SOL    HW257931   7.574   7.555   8.167 -0.2395 -0.0570  2.5427
17792SOL     OW57932   6.314   0.101  10.015  0.3389  0.0074  0.2579
17792SOL    HW157933   6.280   0.018   9.982  1.4716  0.2102 -1.5439
17792SOL    HW257934   6.368   0.076  10.091  0.7668 -0.9328 -0.3379
17793SOL     OW57935  10.831   6.009   9.445  0.0045 -0.4320  0.1910
17793SOL    HW157936  10.826   5.936   9.507 -2.4548 -0.9254 -0.4623
17793SOL    HW257937  10.838   5.968   9.359 -1.8808 -0.0097 -0.2253
17794SOL     OW57938   6.152   4.151   8.332  0.6338  0.0467 -0.0942
17794SOL    HW157939   6.144   4.202   8.251 -0.3288 -0.1525 -0.1383
17794SOL    HW257940   6.075   4.095   8.332  1.2660 -0.8521  0.3496
17795SOL     OW57941  10.263   7.995   1.766 -0.1828 -0.4914 -0.4149
17795SOL    HW157942  10.194   8.059   1.749  0.5123  0.4019  0.0251
17795SOL    HW257943  10.218   7.924   1.814 -0.8035  0.0303 -0.2106
17796SOL     OW57944   8.270   9.713   7.315 -0.4327  0.0361 -0.0584
17796SOL    HW157945   8.288   9.708   7.221 -0.4836 -2.2036 -0.0150
17796SOL    HW257946   8.200   9.778   7.323  0.9283  1.7488 -1.3005
17797SOL     OW57947   5.895   9.715   1.293 -0.1762  0.4706  0.0156
17797SOL    HW157948   5.805   9.747   1.286  0.0387  0.7245 -2.1259
17797SOL    HW257949   5.935   9.738   1.210  0.1835 -4.8277 -1.6578
17798SOL     OW57950  10.903  10.997   0.135  0.0118  0.4304  0.1261
17798SOL    HW157951  10.944  11.068   0.184  0.5109 -0.3748  0.9027
17798SOL    HW257952  10.892  11.032   0.046  1.9309  0.8485  0.0158
17799SOL     OW57953   1.371  11.648   0.360 -0.0509 -0.0181 -0.3238
17799SOL    HW157954   1.408  11.601   0.285 -0.1132 -1.4567  0.5084
17799SOL    HW257955   1.277  11.651   0.343 -0.2629 -1.7074  0.3888
17800SOL     OW57956   4.786   8.383   1.537  0.3000 -0.2780  0.3909
17800SOL    HW157957   4.696   8.414   1.528  0.8611  1.5530  0.6266
17800SOL    HW257958   4.782   8.291   1.512 -1.5860 -0.1843  0.1710
17801SOL     OW57959  11.947   2.368   5.980  0.3120 -0.0672  0.1763
17801SOL    HW157960  11.904   2.441   5.935  1.0456  0.2503 -0.0327
17801SOL    HW257961  11.901   2.290   5.949  1.7164 -0.0142 -2.3195
17802SOL     OW57962   0.240   6.314   3.745  0.1052 -0.0262  0.1343
17802SOL    HW157963   0.175   6.272   3.801 -0.2451  0.3690  0.0244
17802SOL    HW257964   0.291   6.369   3.804  1.4791 -1.6394  0.5415
17803SOL     OW57965  11.518   6.360   9.192 -0.0860 -0.0751 -0.4455
17803SOL    HW157966  11.596   6.415   9.191 -0.7148  1.0471  2.4399
17803SOL    HW257967  11.545   6.279   9.235 -0.1115 -0.4104 -1.0508
17804SOL     OW57968   0.471   9.663   5.960 -0.6869  0.0077  0.0336
17804SOL    HW157969   0.449   9.744   5.914  0.0611 -0.4986 -1.2680
17804SOL    HW257970   0.565   9.668   5.974 -0.6863 -0.4923  0.2274
17805SOL     OW57971   3.813   2.996   9.669 -0.0913 -0.1612  0.1056
17805SOL    HW157972   3.798   2.905   9.642 -0.7364  0.6636 -2.6100
17805SOL    HW257973   3.907   3.001   9.684  0.0777 -1.0822 -0.5677
17806SOL     OW57974   6.209   1.548   5.437 -0.3026  0.4492  0.4025
17806SOL    HW157975   6.152   1.621   5.413 -0.4056  0.4941  0.7798
17806SOL    HW257976   6.268   1.537   5.363 -1.3060 -0.0911 -0.3437
17807SOL     OW57977   4.722   4.243   7.435 -0.3671 -0.1521  0.1140
17807SOL    HW157978   4.793   4.256   7.372 -1.5343  1.2024 -0.9988
17807SOL    HW257979   4.655   4.196   7.385 -0.5655 -0.7609  0.9329
17808SOL     OW57980   4.383   8.212  10.327 -0.1089 -0.0941  0.5440
17808SOL    HW157981   4.447   8.173  10.266 -0.0837  0.0206  0.4963
17808SOL    HW257982   4.376   8.148  10.398  0.9040  0.4095  1.1083
17809SOL     OW57983  10.098   3.761   3.430 -0.4625  0.9109 -0.4858
17809SOL    HW157984  10.043   3.785   3.505 -1.2482 -2.2619  0.1003
17809SOL    HW257985  10.175   3.719   3.470 -0.2077  0.4763 -1.4232
17810SOL     OW57986   0.305   1.819   9.723  0.4325  0.0829 -0.8936
17810SOL    HW157987   0.380   1.862   9.682  1.0015  0.1039  0.1350
17810SOL    HW257988   0.291   1.740   9.671  0.6080  0.5195 -1.6190
17811SOL     OW57989   8.059   7.456   6.979 -0.0515  0.0577 -0.1250
17811SOL    HW157990   8.097   7.373   7.007 -0.7294  0.4230  2.0853
17811SOL    HW257991   8.081   7.517   7.049 -1.7560  1.0871 -0.4249
17812SOL     OW57992   1.096   8.048   7.505 -0.2615  0.0170  0.0574
17812SOL    HW157993   1.158   8.067   7.575 -0.7128 -2.7276  1.2975
17812SOL    HW257994   1.151   8.020   7.431  0.0776 -0.1792  0.3829
17813SOL     OW57995   2.982   5.677   5.653 -0.0639  0.4335 -0.3629
17813SOL    HW157996   2.898   5.718   5.632  0.5103  1.7289 -0.2859
17813SOL    HW257997   3.031   5.746   5.698  0.5869 -0.6903  0.7270
17814SOL     OW57998   7.072   5.475   7.012 -0.2080  0.2736  0.1546
17814SOL    HW157999   7.084   5.380   7.017  1.0269  0.3266 -1.1110
17814SOL    HW258000   7.156   5.511   7.039 -0.8342  1.0435  1.1329
17815SOL     OW58001  10.654   1.758   2.454  0.3661 -0.4459 -0.1421
17815SOL    HW158002  10.640   1.708   2.535  0.7818  0.7419  0.6904
17815SOL    HW258003  10.748   1.750   2.437  1.2322  2.9951  2.0869
17816SOL     OW58004   4.450   2.631   7.025  0.2277 -0.1785 -0.3486
17816SOL    HW158005   4.409   2.567   6.966 -0.3334 -0.3825  0.2431
17816SOL    HW258006   4.416   2.715   6.997 -1.7816 -0.4595  1.0136
17817SOL     OW58007   5.024   8.257   2.471 -0.2706 -0.0401 -0.0011
17817SOL    HW158008   5.089   8.318   2.436  0.3974  0.9213  2.7013
17817SOL    HW258009   5.074   8.180   2.497 -0.4936 -0.0443  0.4227
17818SOL     OW58010  10.783   2.428   6.497 -0.1293 -0.1183 -0.0897
17818SOL    HW158011  10.875   2.405   6.504  0.1802  1.3437  1.1355
17818SOL    HW258012  10.782   2.512   6.450 -0.6638  0.7392  1.3874
17819SOL     OW58013   0.311   1.929   8.738  0.3463 -0.2873  0.6609
17819SOL    HW158014   0.327   1.944   8.831  0.6511 -1.5623  0.8279
17819SOL    HW258015   0.225   1.887   8.736  0.2658 -0.1075  0.3498
17820SOL     OW58016   0.469   6.202   7.550 -0.5067 -0.5107  0.2706
17820SOL    HW158017   0.562   6.222   7.538 -0.1539 -2.0820  0.1872
17820SOL    HW258018   0.424   6.260   7.489  0.5214 -0.6417 -0.6418
17821SOL     OW58019   6.556  10.223  11.304 -0.2321 -0.2393  0.4923
17821SOL    HW158020   6.633  10.168  11.311  0.4080  0.8480  2.9279
17821SOL    HW258021   6.579  10.289  11.239 -0.3781 -1.7318 -1.1671
17822SOL     OW58022  10.429   9.719   6.377  0.6881  0.3762  0.5983
17822SOL    HW158023  10.352   9.729   6.434 -0.3829  1.3848 -0.9509
17822SOL    HW258024  10.499   9.766   6.421 -0.3999  2.0471  0.6085
17823SOL     OW58025  11.772   6.288   1.592  0.0736  0.1458  0.6110
17823SOL    HW158026  11.856   6.333   1.579 -0.7086  1.7917  0.9491
17823SOL    HW258027  11.728   6.297   1.507 -0.5808  1.1679  1.0315
17824SOL     OW58028   7.400   5.964   1.355  0.7709  0.1555 -0.6016
17824SOL    HW158029   7.495   5.955   1.359  0.7833 -0.4693 -1.9221
17824SOL    HW258030   7.383   6.052   1.388  1.6557 -0.2758  1.1664
17825SOL     OW58031   1.932   4.880   9.031 -0.4128  0.2261  0.4288
17825SOL    HW158032   1.990   4.939   8.985 -4.4562  3.3247 -1.3323
17825SOL    HW258033   1.935   4.909   9.123  0.2901  0.7536  0.2460
17826SOL     OW58034   8.041   6.499  11.493 -0.1453 -0.3568  0.2531
17826SOL    HW158035   7.962   6.482  11.442 -0.6421  1.2909  0.4189
17826SOL    HW258036   8.081   6.413  11.506 -0.9954 -1.0225 -1.3075
17827SOL     OW58037   4.206   5.286   3.945  0.0322 -0.0612  0.2562
17827SOL    HW158038   4.131   5.332   3.907 -0.1885 -0.6288  0.0110
17827SOL    HW258039   4.187   5.193   3.933  0.7586 -0.2113  0.2252
17828SOL     OW58040  10.022  11.625   5.034 -0.3703  0.2780  0.3755
17828SOL    HW158041  10.108  11.615   5.075 -0.1322 -0.2664 -0.2298
17828SOL    HW258042   9.964  11.649   5.106  0.3635  1.0866  0.7245
17829SOL     OW58043   8.649   6.107   8.227  0.1969 -0.1641  0.3874
17829SOL    HW158044   8.572   6.092   8.283 -0.4089  0.1562 -0.3380
17829SOL    HW258045   8.630   6.059   8.147  0.7052  0.0223  0.1525
17830SOL     OW58046  11.745   1.222   5.970  0.1579  0.4003  0.3723
17830SOL    HW158047  11.697   1.239   5.889  1.1133 -0.7736 -0.4678
17830SOL    HW258048  11.698   1.150   6.012  0.3669  0.1932  0.2521
17831SOL     OW58049  10.842   1.350  11.525 -0.1972  0.0828 -0.1845
17831SOL    HW158050  10.795   1.357  11.442  0.0260  0.8494 -0.2533
17831SOL    HW258051  10.910   1.417  11.520 -1.2493  1.3299  1.3165
17832SOL     OW58052   2.017   7.591   7.558  0.1727  0.3251 -0.0849
17832SOL    HW158053   1.960   7.530   7.511  1.4569 -0.0519 -1.2153
17832SOL    HW258054   1.980   7.595   7.647 -1.1442 -0.4823 -0.5727
17833SOL     OW58055  10.843  10.084   7.728 -0.0573 -0.2637  0.3530
17833SOL    HW158056  10.754  10.067   7.697  0.9041 -2.0092 -1.6406
17833SOL    HW258057  10.897  10.018   7.685  2.2022  0.6121  1.6784
17834SOL     OW58058   7.780   0.623   8.984  0.1674  0.1329 -0.3516
17834SOL    HW158059   7.686   0.602   8.977  0.3073 -0.3053 -0.9709
17834SOL    HW258060   7.788   0.711   8.948 -0.1632  0.6026  0.6857
17835SOL     OW58061   8.530  11.209   1.411  0.4089  0.4166 -0.4566
17835SOL    HW158062   8.548  11.286   1.357  1.3435  0.6588  0.1928
17835SOL    HW258063   8.601  11.148   1.391  1.0946  0.7393  0.9250
17836SOL     OW58064   3.582   9.463   0.070  0.1208  0.0242  0.0363
17836SOL    HW158065   3.557   9.509  -0.010 -2.2117  0.1633  0.7710
17836SOL    HW258066   3.630   9.386   0.039  1.2965  1.2437 -1.3478
17837SOL     OW58067   4.418   4.539   9.188  0.1018 -0.9350  0.3176
17837SOL    HW158068   4.476   4.504   9.255 -1.0106  0.4196  2.0691
17837SOL    HW258069   4.430   4.634   9.193 -2.9674 -0.4861  1.5326
17838SOL     OW58070  11.426   9.098   1.720 -0.2633  0.6851 -0.3681
17838SOL    HW158071  11.344   9.060   1.687 -0.6714  0.5400  0.7553
17838SOL    HW258072  11.398   9.171   1.775  0.3147  0.1838  0.6127
17839SOL     OW58073   0.927   8.734   6.085 -0.4530  0.2697 -0.1260
17839SOL    HW158074   0.833   8.737   6.104 -0.2376  1.0896  0.9506
17839SOL    HW258075   0.956   8.825   6.096  0.4982 -0.0086 -0.2773
17840SOL     OW58076  11.011   9.967   0.420 -0.5465  0.1692  0.2254
17840SOL    HW158077  11.029   9.891   0.475 -1.1416 -0.0220  0.1672
17840SOL    HW258078  10.991   9.930   0.334  1.0301  0.5058 -0.3077
17841SOL     OW58079   2.061   8.714   7.745 -0.0607  0.1939  0.1717
17841SOL    HW158080   2.028   8.769   7.817  0.0359 -0.7195  0.9288
17841SOL    HW258081   2.111   8.645   7.789 -1.6220 -1.5189 -0.6258
17842SOL     OW58082   6.628   8.803  11.685 -0.4201 -0.1029  1.1356
17842SOL    HW158083   6.548   8.855  11.686  0.6059  1.6218 -0.4603
17842SOL    HW258084   6.683   8.842  11.754  0.5211  1.3653 -0.3444
17843SOL     OW58085   7.760   4.603   5.877 -0.6261 -0.1262 -0.5448
17843SOL    HW158086   7.807   4.551   5.812 -0.0615  0.3982 -0.5666
17843SOL    HW258087   7.803   4.688   5.875 -0.3594 -0.2095  0.7693
17844SOL     OW58088  12.063   6.632   0.095 -0.0769  0.5497 -0.4849
17844SOL    HW158089  12.030   6.711   0.053 -0.3923  1.2533  1.0094
17844SOL    HW258090  12.129   6.663   0.157  0.3915 -0.4421 -0.4623
17845SOL     OW58091   3.437   2.466   3.392 -0.3413  0.4314  0.6888
17845SOL    HW158092   3.490   2.388   3.379 -0.7060  0.2151  0.4941
17845SOL    HW258093   3.448   2.487   3.485  1.1979  1.2061  0.3489
17846SOL     OW58094   9.095   4.388   7.527  0.0234 -0.7141  0.3731
17846SOL    HW158095   9.079   4.437   7.447  0.1369  0.4367  1.0359
17846SOL    HW258096   9.151   4.445   7.580 -1.3868 -0.7122  1.9553
17847SOL     OW58097   1.027   9.983  10.607 -0.1286  0.5978  0.4945
17847SOL    HW158098   0.939   9.957  10.578 -0.4348  0.7533  1.2617
17847SOL    HW258099   1.056   9.911  10.663  1.1592 -0.5149 -1.4824
17848SOL     OW58100   9.653   6.169   3.974 -0.2880 -0.2915  0.2718
17848SOL    HW158101   9.585   6.103   3.961 -0.4274 -0.5130  1.9152
17848SOL    HW258102   9.728   6.137   3.923 -0.9940 -0.6717 -0.5523
17849SOL     OW58103   2.874  10.708  11.575 -0.3567  0.0225 -0.0392
17849SOL    HW158104   2.881  10.701  11.480 -0.0978  1.2189 -0.1267
17849SOL    HW258105   2.931  10.640  11.609 -1.1954 -1.0520 -0.7298
17850SOL     OW58106   8.914   5.703   4.920 -0.4686  0.4811  0.0820
17850SOL    HW158107   8.955   5.789   4.916 -0.4143  0.4945  0.7912
17850SOL    HW258108   8.957   5.659   4.993 -0.6040 -0.0924 -0.1747
17851SOL     OW58109   6.511   1.711   2.289 -0.3712  0.6765  0.3131
17851SOL    HW158110   6.524   1.621   2.318  0.5063  0.9401  0.7761
17851SOL    HW258111   6.595   1.754   2.306 -0.8706  1.6538  0.3690
17852SOL     OW58112   5.127   4.701   3.762  0.0557  0.3819 -0.1591
17852SOL    HW158113   5.091   4.612   3.771 -0.4870  0.7101  0.9637
17852SOL    HW258114   5.215   4.694   3.798 -0.0181  0.3298  0.0092
17853SOL     OW58115  10.609   1.069   1.418 -0.1933 -0.1722 -0.1965
17853SOL    HW158116  10.521   1.049   1.385 -0.2987  0.9048 -0.5983
17853SOL    HW258117  10.603   1.160   1.448  0.5786 -0.3392  0.4992
17854SOL     OW58118   5.461   3.685   7.351 -0.3564  0.0320 -0.7245
17854SOL    HW158119   5.425   3.611   7.302 -0.6282 -0.9550  0.9193
17854SOL    HW258120   5.395   3.705   7.417  0.1692  1.0808 -0.4926
17855SOL     OW58121   4.372   8.012   7.719  0.4364 -0.3609  0.0477
17855SOL    HW158122   4.365   8.016   7.624 -0.9341 -0.5894  0.1120
17855SOL    HW258123   4.376   8.104   7.746  3.0326 -0.3029 -0.3153
17856SOL     OW58124   3.783  10.470   5.345  0.2534  0.0070  0.1122
17856SOL    HW158125   3.718  10.405   5.371  0.0621  0.4996  0.9249
17856SOL    HW258126   3.829  10.492   5.426  0.0413  1.1599 -0.0520
17857SOL     OW58127   4.111   5.895   2.754 -0.2425  0.2130 -0.0825
17857SOL    HW158128   4.193   5.850   2.775 -1.5272 -2.8586 -1.0124
17857SOL    HW258129   4.102   5.886   2.659 -1.8543  0.0214  0.0488
17858SOL     OW58130  10.843   6.780   8.381  0.2052 -0.3347  0.3805
17858SOL    HW158131  10.881   6.861   8.346  1.2417 -0.3816  1.3643
17858SOL    HW258132  10.800   6.740   8.305  0.1110  0.8756 -0.2378
17859SOL     OW58133   0.159   5.727   7.027 -0.6297 -0.2433  0.2081
17859SOL    HW158134   0.202   5.675   7.096  0.7169  0.7362  0.1380
17859SOL    HW258135   0.069   5.696   7.028  0.1370 -2.7387  0.0265
17860SOL     OW58136   3.068   3.438   6.425  0.2438 -0.0809 -0.5754
17860SOL    HW158137   2.978   3.454   6.454 -0.1015 -1.4911 -0.7562
17860SOL    HW258138   3.069   3.467   6.334 -0.2759 -0.7694 -0.8158
17861SOL     OW58139   0.558   8.015   5.377  0.4438 -0.0410  0.6381
17861SOL    HW158140   0.491   8.084   5.383  2.0486  1.8029 -1.2339
17861SOL    HW258141   0.568   7.999   5.283  2.1521 -0.7537  0.9059
17862SOL     OW58142   4.858   7.273   0.729  0.3542  0.0079  0.5551
17862SOL    HW158143   4.887   7.322   0.806 -1.2387  1.7189  0.1392
17862SOL    HW258144   4.767   7.251   0.748  0.1959 -0.2770 -0.4812
17863SOL     OW58145  10.917  10.966  10.337  0.4460 -0.1511 -0.1151
17863SOL    HW158146  10.925  10.947  10.244  0.5454  0.0210 -0.1428
17863SOL    HW258147  10.825  10.950  10.358  0.8110 -2.0510  0.1709
17864SOL     OW58148   5.546   1.172   9.872  0.2097  0.0465 -0.0003
17864SOL    HW158149   5.464   1.122   9.868 -0.0088  0.4242 -0.3699
17864SOL    HW258150   5.519   1.263   9.861  0.6478  0.2092  0.2333
17865SOL     OW58151   7.084   1.509   6.884 -0.1269  0.3564 -0.5900
17865SOL    HW158152   7.157   1.528   6.943 -0.5878  1.8222 -0.4590
17865SOL    HW258153   7.006   1.527   6.937 -0.7272 -3.4040  0.0561
17866SOL     OW58154  11.704   2.109   8.167 -0.3227 -0.0379  0.7140
17866SOL    HW158155  11.718   2.075   8.078  1.3489  1.1783  0.4474
17866SOL    HW258156  11.788   2.096   8.210  0.1331  2.7586  0.8840
17867SOL     OW58157  10.247   0.572   1.708  0.0396 -0.2678  0.0757
17867SOL    HW158158  10.190   0.634   1.661  1.1508  0.6684 -0.0956
17867SOL    HW258159  10.335   0.595   1.678  0.7173 -0.1506  2.0551
17868SOL     OW58160   3.612   3.872   7.399  0.0110 -0.2636 -0.2678
17868SOL    HW158161   3.558   3.795   7.418 -1.0485  0.8593  1.5293
17868SOL    HW258162   3.550   3.939   7.372  0.4486  0.9515  1.5077
17869SOL     OW58163   2.238  10.482   2.975 -0.3261  0.2946 -0.2903
17869SOL    HW158164   2.209  10.392   2.992  2.3327 -0.7454 -0.8078
17869SOL    HW258165   2.156  10.532   2.968 -2.0052 -2.4043 -1.9512
17870SOL     OW58166  11.450   4.209  10.447 -0.0503  0.0199 -0.4222
17870SOL    HW158167  11.383   4.188  10.513 -0.0287 -4.1540 -1.4325
17870SOL    HW258168  11.476   4.299  10.466 -1.1148 -0.4286  4.2988
17871SOL     OW58169   4.898  10.733  11.197  0.2849  0.0308 -0.0148
17871SOL    HW158170   4.845  10.655  11.211  1.2160 -0.4918  0.7433
17871SOL    HW258171   4.956  10.710  11.125 -0.5318  0.6308 -0.8987
17872SOL     OW58172   5.981   0.965  12.023 -0.2568 -0.4309 -0.4992
17872SOL    HW158173   5.931   0.931  11.949 -2.0288  0.1434  0.3858
17872SOL    HW258174   5.919   0.968  12.096  1.4965 -1.2719  1.1417
17873SOL     OW58175   6.285   1.547   6.995  0.5765  0.3669  0.4749
17873SOL    HW158176   6.319   1.499   6.919  1.1952  0.3569  0.7476
17873SOL    HW258177   6.347   1.619   7.007  0.5300  0.3134  1.0281
17874SOL     OW58178   9.433  11.628   2.003  0.4795 -0.0907  0.2222
17874SOL    HW158179   9.420  11.663   2.091  0.1011  0.5448 -0.0788
17874SOL    HW258180   9.360  11.663   1.951  1.5421  0.8529 -0.7123
17875SOL     OW58181   6.069   7.448   6.722 -0.0836  0.2588 -0.6835
17875SOL    HW158182   6.121   7.506   6.776 -0.8502  0.8942 -0.6075
17875SOL    HW258183   6.094   7.360   6.750  1.9662  0.4987 -1.6396
17876SOL     OW58184   1.418   8.539   4.360  0.1207  0.0467 -0.0252
17876SOL    HW158185   1.363   8.463   4.381  1.2563 -0.5931  0.7971
17876SOL    HW258186   1.419   8.591   4.440 -0.9515  1.1457 -0.7057
17877SOL     OW58187  10.343   0.274  12.063 -0.3247 -0.0200 -0.2207
17877SOL    HW158188  10.306   0.343  12.007  0.8225  0.3530 -0.5506
17877SOL    HW258189  10.418   0.316  12.105  1.0430 -1.3419 -1.2392
17878SOL     OW58190   6.979  11.603   3.170 -0.2824 -0.5645 -0.1411
17878SOL    HW158191   7.069  11.581   3.193  0.0636 -0.1600 -1.0599
17878SOL    HW258192   6.981  11.615   3.075 -0.6082  2.6054  0.1636
17879SOL     OW58193   3.221   8.976   4.044  0.1408  0.7650 -0.3223
17879SOL    HW158194   3.247   8.988   3.952  0.5814 -1.0837 -0.4843
17879SOL    HW258195   3.128   8.952   4.039  0.4926 -0.6617 -0.4274
17880SOL     OW58196   6.095   6.542   1.234  0.1218 -0.2359 -0.1370
17880SOL    HW158197   6.075   6.449   1.244  1.4682 -0.5580 -0.3371
17880SOL    HW258198   6.167   6.558   1.294 -0.3725  0.7861  0.2031
17881SOL     OW58199  11.246   1.819   9.283  0.2854 -0.8025  0.1315
17881SOL    HW158200  11.194   1.815   9.202  2.2046  0.0830 -1.2119
17881SOL    HW258201  11.304   1.743   9.277  2.0221  0.5021 -0.5304
17882SOL     OW58202   6.342   0.411  10.939 -0.1510  0.4921 -0.0214
17882SOL    HW158203   6.312   0.362  11.016  1.5215 -1.9418 -0.8006
17882SOL    HW258204   6.373   0.494  10.974  0.7398 -0.6117  2.0236
17883SOL     OW58205   6.339   0.934   7.066 -1.1138  0.0096 -0.3662
17883SOL    HW158206   6.406   0.935   6.998 -0.8481 -0.2554 -0.1118
17883SOL    HW258207   6.298   1.020   7.061 -1.7966 -0.3578 -1.5464
17884SOL     OW58208   7.137   1.864   1.512 -0.2008 -0.8274 -0.1631
17884SOL    HW158209   7.121   1.776   1.545  1.4057 -0.8015  0.8012
17884SOL    HW258210   7.154   1.916   1.590  1.8269 -0.3441 -0.8674
17885SOL     OW58211   9.135   5.814   0.524  0.1724 -0.5726  0.0285
17885SOL    HW158212   9.150   5.719   0.519  0.3107 -0.5202 -0.7815
17885SOL    HW258213   9.185   5.842   0.600 -1.1504 -1.3800  1.2525
17886SOL     OW58214   8.689   2.047   4.782 -0.0581 -0.1689  0.8322
17886SOL    HW158215   8.635   1.972   4.758 -1.0552  0.5666  0.6873
17886SOL    HW258216   8.712   2.032   4.873 -1.0024 -0.2196  1.0722
17887SOL     OW58217   3.274   3.179   4.944 -0.7668  0.1083  0.2004
17887SOL    HW158218   3.317   3.133   5.016 -0.5516 -0.0236 -0.0092
17887SOL    HW258219   3.180   3.160   4.956 -0.5734 -1.6089 -0.7001
17888SOL     OW58220   5.062   2.759   4.770 -0.1076  0.2900  0.2391
17888SOL    HW158221   4.996   2.776   4.837  1.5249  0.0835  2.0076
17888SOL    HW258222   5.100   2.844   4.751  0.4948  0.1598  0.7946
17889SOL     OW58223   2.322  10.442   7.030 -0.3006  0.0825 -0.3737
17889SOL    HW158224   2.235  10.427   6.993  0.4023  0.1338 -2.1065
17889SOL    HW258225   2.318  10.531   7.064 -0.7941  0.2271 -0.8002
17890SOL     OW58226   9.092  11.831   0.873  0.0274  0.1218  0.1098
17890SOL    HW158227   9.086  11.899   0.806  3.5168 -0.5162 -1.0699
17890SOL    HW258228   9.185  11.828   0.895 -0.0909 -3.7207  0.7035
17891SOL     OW58229   6.243   3.629   7.415 -0.0162 -0.3025 -0.0426
17891SOL    HW158230   6.193   3.553   7.445 -1.1621  0.0353 -1.0310
17891SOL    HW258231   6.177   3.691   7.385  0.9583  0.5991 -0.3786
17892SOL     OW58232   9.945   0.572   3.465  0.0394 -0.0795  0.0108
17892SOL    HW158233  10.038   0.560   3.448 -0.0255 -1.7732  0.6429
17892SOL    HW258234   9.922   0.502   3.526 -1.4583  0.8581  0.5943
17893SOL     OW58235   6.273   5.486   5.363  0.2512 -0.0186 -0.0214
17893SOL    HW158236   6.223   5.567   5.360 -0.4398 -0.4157  0.5005
17893SOL    HW258237   6.217   5.424   5.410  0.1943 -1.1805 -1.5231
17894SOL     OW58238   0.217   4.309   1.773  0.2535 -0.2417  0.1618
17894SOL    HW158239   0.265   4.361   1.709 -0.3220  2.5348  1.8484
17894SOL    HW258240   0.283   4.282   1.837  0.2228  0.1376  0.3530
17895SOL     OW58241   1.999   3.899   3.510 -0.5292  0.6095 -0.3036
17895SOL    HW158242   2.062   3.831   3.486 -1.2965 -0.1593 -0.1966
17895SOL    HW258243   1.919   3.851   3.531 -0.8501  1.5001  0.5601
17896SOL     OW58244   7.564   7.495  10.354 -0.4309 -0.2241 -0.1483
17896SOL    HW158245   7.554   7.428  10.287  0.4973 -0.6464  0.1191
17896SOL    HW258246   7.474   7.516  10.381 -0.8255  0.1087 -1.6543
17897SOL     OW58247  10.545   1.788   4.033  0.0902 -0.6488 -0.3310
17897SOL    HW158248  10.621   1.739   4.003  0.9369  0.0679  0.5954
17897SOL    HW258249  10.492   1.800   3.954  1.6190  0.0500 -1.2886
17898SOL     OW58250   5.386   5.631   9.064 -0.6547  0.0725 -0.4387
17898SOL    HW158251   5.310   5.646   9.007 -0.4048  1.1084 -0.5196
17898SOL    HW258252   5.365   5.551   9.112 -0.9813 -0.6941 -1.8106
17899SOL     OW58253   8.561   5.499   3.096 -0.0522 -0.0869  0.0207
17899SOL    HW158254   8.633   5.545   3.052 -0.4052  0.9802  0.5227
17899SOL    HW258255   8.507   5.466   3.025  1.1471 -1.2739 -0.3756
17900SOL     OW58256   9.034   0.905   8.206 -0.4504  0.5610 -0.4372
17900SOL    HW158257   9.007   0.901   8.114 -1.3310 -2.2780 -0.1692
17900SOL    HW258258   9.068   0.993   8.217 -0.2755  1.0004 -3.4939
17901SOL     OW58259   5.988   7.293   0.003  0.2318 -0.3447  0.1096
17901SOL    HW158260   5.935   7.313  -0.074  0.5890 -0.0692 -0.0680
17901SOL    HW258261   6.078   7.288  -0.029  0.2177 -1.7467  0.2490
17902SOL     OW58262   1.835   3.659   7.287 -0.3627 -0.6599  0.3878
17902SOL    HW158263   1.921   3.618   7.286  0.4997  0.9716  1.8202
17902SOL    HW258264   1.816   3.677   7.195  0.5551 -1.5488  0.0007
17903SOL     OW58265  10.914   0.725   1.957  0.5610  0.2532  0.3065
17903SOL    HW158266  10.857   0.760   2.026  0.0551  0.8565 -0.4085
17903SOL    HW258267  10.861   0.658   1.914  0.9167 -0.2001  0.5716
17904SOL     OW58268  10.458   1.337   3.373 -0.0998 -0.0692  0.5473
17904SOL    HW158269  10.457   1.242   3.357 -0.2604 -0.1451  0.9901
17904SOL    HW258270  10.388   1.371   3.317 -1.9013 -0.5626  2.3850
17905SOL     OW58271  10.255   1.873   6.267  0.4336 -0.1349  0.4569
17905SOL    HW158272  10.346   1.863   6.236  0.3970 -0.7092  0.5207
17905SOL    HW258273  10.210   1.797   6.231 -0.1043  0.3291  0.1443
17906SOL     OW58274   0.849  11.471   2.654  0.7171  0.4665  0.8112
17906SOL    HW158275   0.783  11.532   2.619 -0.7219 -0.1655  2.2850
17906SOL    HW258276   0.880  11.423   2.577 -2.1540 -0.7194  0.2309
17907SOL     OW58277   3.012   3.977   4.869  0.1201 -0.0881 -0.6300
17907SOL    HW158278   3.050   4.001   4.785  0.0657 -1.1685 -0.9907
17907SOL    HW258279   3.015   4.057   4.922 -0.3780  0.7614 -1.8543
17908SOL     OW58280  11.127   0.964   5.259  0.2353 -0.5605  0.2010
17908SOL    HW158281  11.067   0.957   5.333  0.2101  1.2031  0.4115
17908SOL    HW258282  11.143   0.874   5.231 -0.5213 -1.2005  1.7306
17909SOL     OW58283   7.612   3.295   3.264 -0.3056  0.3286 -0.6801
17909SOL    HW158284   7.685   3.284   3.203 -1.3350 -3.2203 -1.4626
17909SOL    HW258285   7.534   3.276   3.212 -1.5165  0.6574  0.9395
17910SOL     OW58286   9.575   2.682   2.445  0.3103 -0.3098 -0.4464
17910SOL    HW158287   9.566   2.734   2.365  0.1603 -1.1342 -0.9723
17910SOL    HW258288   9.630   2.736   2.502  0.0461  0.4829 -0.9277
17911SOL     OW58289  10.417   2.802   4.653  0.0745 -0.2598 -0.2014
17911SOL    HW158290  10.457   2.753   4.582  1.2914 -1.7011  1.3906
17911SOL    HW258291  10.490   2.838   4.703 -0.7303  4.0553 -1.7087
17912SOL     OW58292   6.368   0.590   5.434  0.5209 -0.0859 -0.1387
17912SOL    HW158293   6.375   0.636   5.350  0.1009 -1.4743 -0.9759
17912SOL    HW258294   6.451   0.543   5.442  0.5674  0.0602  0.2344
17913SOL     OW58295   2.296   0.530   1.691  0.0494 -0.4872  0.3124
17913SOL    HW158296   2.374   0.527   1.636 -0.0922 -1.1626  0.1363
17913SOL    HW258297   2.323   0.579   1.769  1.2405 -2.3949  1.1524
17914SOL     OW58298   3.348   4.298   4.256  0.0029 -0.0644  0.1036
17914SOL    HW158299   3.302   4.220   4.226 -2.5566  1.1852  0.4961
17914SOL    HW258300   3.349   4.356   4.180  1.1639 -0.1412  0.0435
17915SOL     OW58301  11.376   7.055   7.778  0.2020 -0.4045  0.3080
17915SOL    HW158302  11.381   7.004   7.858 -0.4139  0.1252  0.6990
17915SOL    HW258303  11.371   7.146   7.807  1.9026 -0.0596 -0.3967
17916SOL     OW58304   7.113   4.825   8.725  0.1317 -0.2360  0.0871
17916SOL    HW158305   7.026   4.852   8.696 -0.1058  0.3572  1.3005
17916SOL    HW258306   7.102   4.803   8.817  0.8157 -2.3206 -0.2936
17917SOL     OW58307   6.399   6.180   8.066 -0.3854 -0.2871 -0.9721
17917SOL    HW158308   6.486   6.138   8.065 -0.3789 -0.3057 -0.4113
17917SOL    HW258309   6.412   6.260   8.116 -1.0281 -1.0930  0.5646
17918SOL     OW58310   1.612   8.769   0.598  0.0905  0.4557  0.2154
17918SOL    HW158311   1.520   8.744   0.604  0.5928 -1.6314  0.3391
17918SOL    HW258312   1.613   8.844   0.539 -1.6203  0.1050 -0.3192
17919SOL     OW58313   3.479  12.014  11.426 -0.2175 -0.3081 -0.2067
17919SOL    HW158314   3.458  12.065  11.348 -0.5124  1.0054  0.6841
17919SOL    HW258315   3.447  12.068  11.499 -0.6840 -1.8527  0.7876
17920SOL     OW58316   7.693   3.273   7.322  0.2652 -0.1402 -0.3572
17920SOL    HW158317   7.669   3.311   7.237  0.3849  1.4509  0.2748
17920SOL    HW258318   7.636   3.197   7.332 -1.1310  0.7854 -0.9997
17921SOL     OW58319   4.078   6.873   5.919 -0.4939 -0.1641  0.3756
17921SOL    HW158320   4.067   6.782   5.946  2.7257 -0.5032  0.9192
17921SOL    HW258321   4.111   6.918   5.997  1.7518  0.5084 -0.8668
17922SOL     OW58322   9.647   6.420   0.178 -0.4208 -0.5160 -0.0400
17922SOL    HW158323   9.613   6.426   0.089  1.1252 -0.0966 -0.6484
17922SOL    HW258324   9.600   6.487   0.227 -1.4351 -0.8929 -0.4807
17923SOL     OW58325   8.889   9.007   8.243  0.1397 -0.0685 -1.1265
17923SOL    HW158326   8.930   8.921   8.229  0.3036 -0.6584  2.2152
17923SOL    HW258327   8.924   9.061   8.172  1.1583 -2.3630 -2.5106
17924SOL     OW58328   5.034   9.049   3.514 -0.0120 -0.2634 -0.4973
17924SOL    HW158329   5.078   9.009   3.589 -0.3430 -1.4940 -0.9304
17924SOL    HW258330   4.946   9.070   3.545  0.3263  0.6419 -0.1174
17925SOL     OW58331   8.807   4.447   6.235 -0.7374  0.5495  0.1199
17925SOL    HW158332   8.731   4.439   6.294  0.8009  1.3046  2.3394
17925SOL    HW258333   8.865   4.375   6.261  0.1365  1.1232 -0.2090
17926SOL     OW58334  10.342  10.447   3.943 -0.2058 -0.0781  0.0174
17926SOL    HW158335  10.418  10.495   3.976 -0.6309 -0.2896  1.3544
17926SOL    HW258336  10.292  10.512   3.894  0.3753  0.2881 -0.0975
17927SOL     OW58337   1.202   0.769   6.029 -0.2490 -0.0255 -0.7676
17927SOL    HW158338   1.113   0.799   6.010 -0.1338  0.6877 -0.2220
17927SOL    HW258339   1.192   0.714   6.107 -0.3011 -0.5022 -1.1061
17928SOL     OW58340   2.471  11.150   6.197 -0.1125  0.7788 -0.0838
17928SOL    HW158341   2.487  11.118   6.108  1.1969  1.4989 -0.1312
17928SOL    HW258342   2.552  11.132   6.244 -1.2782 -0.9111  1.4102
17929SOL     OW58343   1.074   8.469  11.141  0.2309  0.3178 -0.0342
17929SOL    HW158344   1.123   8.398  11.100 -0.5449  0.6693 -1.6452
17929SOL    HW258345   0.987   8.432  11.158  0.3061  0.4167  0.6053
17930SOL     OW58346   0.422   0.937   9.301 -0.2671  0.5731  0.0710
17930SOL    HW158347   0.378   0.981   9.373 -2.3170 -1.7048  0.3479
17930SOL    HW258348   0.487   1.000   9.270 -1.8201  3.0318  1.5118
17931SOL     OW58349   8.302   5.771   9.989  0.4160 -0.4277 -1.0307
17931SOL    HW158350   8.335   5.836   9.927  1.4863 -1.2218 -1.3168
17931SOL    HW258351   8.316   5.811  10.075  0.6615 -0.0917 -1.2256
17932SOL     OW58352   6.828   6.153   8.466  0.2841 -0.8446 -0.1133
17932SOL    HW158353   6.919   6.123   8.461  0.9504  0.9039  0.7534
17932SOL    HW258354   6.806   6.145   8.559  0.1110  0.2684 -0.0549
17933SOL     OW58355   1.850   1.951   7.940 -0.2697 -0.3470 -0.5394
17933SOL    HW158356   1.904   2.015   7.893 -0.5952 -0.6077 -1.2791
17933SOL    HW258357   1.800   1.907   7.872 -0.9115 -0.5887  0.0731
17934SOL     OW58358   7.398  11.727   4.708  0.3440 -0.2443  0.0638
17934SOL    HW158359   7.431  11.736   4.618  1.4036 -2.3528  0.1990
17934SOL    HW258360   7.428  11.806   4.752  0.8836  0.2399 -1.1235
17935SOL     OW58361   9.132   1.913   8.308  0.3485  0.7093 -0.0787
17935SOL    HW158362   9.205   1.940   8.252 -0.7602 -0.4311 -2.2030
17935SOL    HW258363   9.061   1.894   8.247 -0.2049 -3.0642  1.4463
17936SOL     OW58364   1.410   3.580   8.911 -0.6362  1.0132  0.4114
17936SOL    HW158365   1.436   3.627   8.991 -0.4650  0.4279  0.7089
17936SOL    HW258366   1.443   3.635   8.840  1.0694  0.5187  0.7745
17937SOL     OW58367   2.114   8.568   3.435  0.3410 -0.0603 -0.1259
17937SOL    HW158368   2.129   8.588   3.528  0.0230 -0.2531 -0.0296
17937SOL    HW258369   2.185   8.509   3.412  1.9366  1.9859 -0.7135
17938SOL     OW58370   4.118  11.043   5.617  0.4818  0.0840  0.2061
17938SOL    HW158371   4.195  11.098   5.632 -0.8124  1.9090  0.5317
17938SOL    HW258372   4.134  11.001   5.533  1.8398  0.3803  0.2975
17939SOL     OW58373   9.514   0.173  11.163  0.4208  0.3777 -0.1630
17939SOL    HW158374   9.435   0.160  11.216  0.3880 -1.7600 -0.6415
17939SOL    HW258375   9.581   0.121  11.207  0.3396 -1.6439 -2.2485
17940SOL     OW58376   9.669   7.674   3.407  0.4643  0.7359 -0.1858
17940SOL    HW158377   9.763   7.694   3.414  0.2311  1.3941  1.3569
17940SOL    HW258378   9.664   7.613   3.333  2.1806  0.2279  0.0531
17941SOL     OW58379   8.078   0.357   4.934 -0.1976 -0.2145  0.6477
17941SOL    HW158380   8.065   0.443   4.972  1.2934 -0.2345  1.2490
17941SOL    HW258381   8.021   0.299   4.985 -0.7512  0.3014  0.6233
17942SOL     OW58382   7.564   6.836   0.268  0.1563  0.2639 -0.4949
17942SOL    HW158383   7.647   6.848   0.221  0.3626  0.0163 -0.1900
17942SOL    HW258384   7.589   6.832   0.360 -0.3586  1.9417 -0.2485
17943SOL     OW58385   7.681   6.864   0.795  0.5724  0.3145  0.2325
17943SOL    HW158386   7.605   6.845   0.849  0.9179  2.8464  1.7526
17943SOL    HW258387   7.666   6.953   0.761  1.5267 -0.2396 -1.8602
17944SOL     OW58388   9.802   3.360   2.970 -0.6472 -0.1872  0.3517
17944SOL    HW158389   9.795   3.377   2.876 -0.8922  1.1139  0.5868
17944SOL    HW258390   9.838   3.272   2.976 -0.5791 -0.2633 -0.9631
17945SOL     OW58391   0.514   4.851  11.087 -0.8765 -0.1680 -0.0122
17945SOL    HW158392   0.460   4.787  11.041 -2.3312  0.6060  0.5225
17945SOL    HW258393   0.597   4.851  11.041 -1.4932 -1.0810 -1.1694
17946SOL     OW58394   4.465  12.117   5.516  0.1187  0.0531  0.3439
17946SOL    HW158395   4.466  12.158   5.603  0.0158 -0.2683  0.4968
17946SOL    HW258396   4.405  12.171   5.465  1.1729  1.0252  0.0857
17947SOL     OW58397   9.057   2.126   1.183 -0.5057  0.1899 -0.2222
17947SOL    HW158398   9.056   2.222   1.182  2.1736  0.3060 -1.7509
17947SOL    HW258399   8.977   2.101   1.137 -0.6352  1.7556 -0.9423
17948SOL     OW58400   4.760   1.436   8.650 -0.1896 -0.1922  0.0716
17948SOL    HW158401   4.778   1.512   8.705  0.6313 -0.8077  0.6853
17948SOL    HW258402   4.681   1.459   8.601 -0.0960  0.9440  0.4389
17949SOL     OW58403   9.367  10.393   4.267  0.3202  0.3107  0.1050
17949SOL    HW158404   9.296  10.446   4.302  0.9533  1.0430  0.3091
17949SOL    HW258405   9.367  10.411   4.173 -1.0986 -1.3212 -0.2682
17950SOL     OW58406   1.814   5.747   6.159  0.1067  0.2110  0.3061
17950SOL    HW158407   1.845   5.690   6.089 -1.3436  0.6789 -0.7757
17950SOL    HW258408   1.893   5.792   6.189  0.8577 -0.4183 -0.6384
17951SOL     OW58409   8.071   2.382   5.607  0.3008 -0.5047 -0.3499
17951SOL    HW158410   7.980   2.411   5.610  1.0200  2.0403 -0.9206
17951SOL    HW258411   8.067   2.289   5.632 -2.1353  0.1602  2.2471
17952SOL     OW58412   5.703   7.015   8.861  0.0577 -0.1072 -0.1426
17952SOL    HW158413   5.673   7.102   8.838  1.2206  1.8988  4.6589
17952SOL    HW258414   5.636   6.982   8.922  0.5192 -1.8275 -0.5149
17953SOL     OW58415  11.214  11.868  10.823  0.4110 -0.4089 -0.3498
17953SOL    HW158416  11.155  11.942  10.836 -0.6782 -1.0413 -1.4525
17953SOL    HW258417  11.267  11.891  10.746  1.5524  0.0997  0.5571
17954SOL     OW58418   4.712   5.410   7.509 -0.2866  0.1241  0.3222
17954SOL    HW158419   4.781   5.443   7.452 -0.0950 -1.5499 -0.4740
17954SOL    HW258420   4.654   5.485   7.523  2.0561  1.8163  1.6549
17955SOL     OW58421   1.677   6.534   9.697  0.5337 -0.5885 -0.1793
17955SOL    HW158422   1.715   6.620   9.717  0.6871 -0.8421  0.6515
17955SOL    HW258423   1.595   6.532   9.746  1.4695 -1.6743  1.4466
17956SOL     OW58424   1.851   0.342   3.410 -0.0786 -0.0848  0.1189
17956SOL    HW158425   1.883   0.298   3.331  2.4329  0.0308  1.0092
17956SOL    HW258426   1.828   0.270   3.469 -1.9127 -0.1707 -0.6168
17957SOL     OW58427   0.190   7.219   5.397 -0.2047  0.1803 -0.4533
17957SOL    HW158428   0.136   7.160   5.344  0.3648  0.0053 -0.8517
17957SOL    HW258429   0.184   7.304   5.353 -0.8535  0.3765 -0.0006
17958SOL     OW58430   8.017   0.487   8.900 -0.4376 -0.2671  0.2441
17958SOL    HW158431   8.004   0.556   8.965 -1.0603 -1.3171  1.2823
17958SOL    HW258432   7.935   0.483   8.852  0.2776  1.0176 -1.1732
17959SOL     OW58433   4.193   3.908   6.083 -0.9698  0.0732 -0.2168
17959SOL    HW158434   4.216   3.932   5.993  1.3272 -0.6456  0.1069
17959SOL    HW258435   4.150   3.823   6.075 -0.3458 -0.2106 -0.6152
17960SOL     OW58436  10.569   5.016   5.601 -0.2304 -0.0751  0.5547
17960SOL    HW158437  10.646   5.046   5.551  1.1622 -1.1047  1.9844
17960SOL    HW258438  10.585   4.924   5.617 -2.0167 -0.4267  0.5264
17961SOL     OW58439   6.729   4.096   2.451 -0.0408 -0.2396 -0.8054
17961SOL    HW158440   6.698   4.138   2.371  1.5387  0.3364 -1.1449
17961SOL    HW258441   6.669   4.127   2.519  0.9196  2.4673 -1.0752
17962SOL     OW58442   7.966   9.366   7.205 -0.5972  0.4536  0.0577
17962SOL    HW158443   7.952   9.301   7.136 -0.7617 -1.3418  1.7107
17962SOL    HW258444   7.878   9.394   7.229 -0.7140 -0.9383  1.3497
17963SOL     OW58445   7.864   4.425   3.855 -0.5362 -0.4063  0.2137
17963SOL    HW158446   7.843   4.463   3.770 -0.3196 -1.4376 -0.3166
17963SOL    HW258447   7.793   4.454   3.913 -0.5335  0.5360 -0.2382
17964SOL     OW58448  10.921   6.196  11.091  0.5860  0.2156  0.0117
17964SOL    HW158449  10.982   6.146  11.146  1.5275 -0.2682 -1.4165
17964SOL    HW258450  10.973   6.221  11.015 -0.3752  1.8482 -0.1521
17965SOL     OW58451   5.573  11.423   7.297  0.0474 -0.3235  0.7175
17965SOL    HW158452   5.527  11.482   7.237  0.1013 -2.5591 -1.7083
17965SOL    HW258453   5.654  11.469   7.320  0.5741  0.1861 -1.8991
17966SOL     OW58454   1.362  11.531   4.251  0.1969 -0.2125 -0.3984
17966SOL    HW158455   1.327  11.482   4.177 -3.6399  2.7803 -0.9401
17966SOL    HW258456   1.311  11.501   4.327 -0.5373  1.1324 -0.3130
17967SOL     OW58457  10.368   8.215   5.292 -0.1683 -0.0984  0.5508
17967SOL    HW158458  10.362   8.126   5.329 -0.0016 -0.3634 -0.0589
17967SOL    HW258459  10.281   8.230   5.255  0.3406 -0.7157 -0.9441
17968SOL     OW58460   6.652   5.971  10.798 -0.6489  0.3905 -0.0564
17968SOL    HW158461   6.581   6.024  10.760  0.6584  2.3642  0.0643
17968SOL    HW258462   6.731   6.023  10.781  0.3495 -0.0254  2.8334
17969SOL     OW58463   5.681   5.058   7.090 -0.2016 -0.1126  0.0018
17969SOL    HW158464   5.600   5.103   7.066  0.5941  1.3387 -0.0572
17969SOL    HW258465   5.750   5.122   7.073  1.0447 -1.5669 -0.6547
17970SOL     OW58466   1.930   8.595   0.103 -0.1429  0.1346 -0.6048
17970SOL    HW158467   2.010   8.648   0.101  0.1424 -0.3055 -1.9819
17970SOL    HW258468   1.866   8.647   0.055 -0.1947 -0.2544 -0.9626
17971SOL     OW58469   2.088   1.621   2.053 -0.4704  0.1551  0.2258
17971SOL    HW158470   2.063   1.713   2.062 -0.8914  0.1651 -0.8758
17971SOL    HW258471   2.165   1.622   1.996 -1.1257 -0.2386 -0.6882
17972SOL     OW58472   5.223  10.473   5.074  0.3393  0.2339 -0.5524
17972SOL    HW158473   5.222  10.436   5.162 -0.9881  0.8550 -0.2789
17972SOL    HW258474   5.199  10.400   5.017 -1.8724  0.5302 -0.0618
17973SOL     OW58475   5.902  10.804   4.616 -0.1056  0.3618 -0.0136
17973SOL    HW158476   5.857  10.887   4.601 -1.5005 -0.1148  1.2655
17973SOL    HW258477   5.900  10.759   4.531 -2.3658  0.2466  0.0357
17974SOL     OW58478   2.695   7.356  10.171  0.1168  0.6779  0.2409
17974SOL    HW158479   2.744   7.359  10.089 -0.0645  2.7296  0.1429
17974SOL    HW258480   2.741   7.292  10.224  1.4008  0.7308 -0.7566
17975SOL     OW58481  10.580   3.123   3.255  0.3401 -0.9232  0.2718
17975SOL    HW158482  10.571   3.152   3.164 -0.8840  0.0330  0.6660
17975SOL    HW258483  10.549   3.197   3.307 -0.0686 -1.8696  1.4247
17976SOL     OW58484   4.386   2.537  11.128 -0.5518 -0.5978 -0.2281
17976SOL    HW158485   4.311   2.497  11.172 -0.2658 -1.9619 -0.9403
17976SOL    HW258486   4.399   2.620  11.174 -2.3530 -0.4271  0.0371
17977SOL     OW58487  11.373   6.294   8.074  0.2672 -0.0524 -0.0139
17977SOL    HW158488  11.286   6.310   8.037  0.0332 -0.4947  0.3366
17977SOL    HW258489  11.357   6.232   8.145  0.8803 -0.1841  0.0071
17978SOL     OW58490   6.705  10.096   6.314  0.3659  0.0507 -0.1564
17978SOL    HW158491   6.763  10.172   6.311  0.0066  0.5300  2.6360
17978SOL    HW258492   6.617  10.133   6.327 -0.2491 -0.7746 -1.6963
17979SOL     OW58493  10.630  11.257  10.390  0.2514  0.6524 -0.2564
17979SOL    HW158494  10.724  11.241  10.381  0.3581  1.1151  0.0111
17979SOL    HW258495  10.603  11.290  10.304  0.2171 -0.0147 -0.5108
17980SOL     OW58496   9.643   5.565  11.911 -0.1218 -0.6750  0.2093
17980SOL    HW158497   9.630   5.472  11.894 -0.5880 -0.4614 -0.6617
17980SOL    HW258498   9.650   5.572  12.006 -3.6383 -1.1885  0.6410
17981SOL     OW58499   2.944  11.570   1.658  0.2657  0.1739  0.2939
17981SOL    HW158500   2.851  11.588   1.667  0.2288 -0.1812  0.6078
17981SOL    HW258501   2.982  11.598   1.741  0.0319 -2.3369  1.3340
17982SOL     OW58502   8.121   6.901   5.469  0.3514  0.1758  0.4120
17982SOL    HW158503   8.073   6.906   5.552  1.0508  0.7958  0.7853
17982SOL    HW258504   8.213   6.892   5.494  0.5245 -0.0913 -0.2962
17983SOL     OW58505   4.119   3.265   9.674 -0.1164  0.2788 -0.1796
17983SOL    HW158506   4.096   3.326   9.744  0.9686 -0.2774  0.6947
17983SOL    HW258507   4.045   3.269   9.613  0.0487  2.6628 -0.3011
17984SOL     OW58508   6.257   6.048  10.945 -0.9330 -0.5743  0.5790
17984SOL    HW158509   6.289   6.118  11.002 -1.9964  0.8675 -0.5079
17984SOL    HW258510   6.164   6.040  10.967 -0.9370 -1.2591  0.3236
17985SOL     OW58511   4.426  10.772  11.216  0.1667 -0.0950  0.2204
17985SOL    HW158512   4.521  10.786  11.219  0.4294 -1.4834 -0.4849
17985SOL    HW258513   4.416  10.677  11.210 -1.1744  0.0983 -1.8505
17986SOL     OW58514   3.640  10.689   3.718 -0.8660  0.0568  0.1255
17986SOL    HW158515   3.605  10.664   3.632 -0.4507 -0.2042  0.0277
17986SOL    HW258516   3.703  10.620   3.738  0.0956  0.8786 -0.0146
17987SOL     OW58517   0.701   3.109   6.795  0.1673  0.2465  0.7599
17987SOL    HW158518   0.742   3.195   6.787  0.6138  0.0250  0.6740
17987SOL    HW258519   0.772   3.046   6.782 -0.1957 -0.1402  0.6075
17988SOL     OW58520   1.124   3.546  11.013  0.1377 -0.3649 -0.0794
17988SOL    HW158521   1.180   3.521  10.939  0.2648 -1.6628  0.4398
17988SOL    HW258522   1.054   3.599  10.974  0.7260 -0.2374 -0.9828
17989SOL     OW58523   7.082   5.230   7.532  0.4969 -0.1455  0.1392
17989SOL    HW158524   7.129   5.159   7.575  0.0490  0.2560  1.3326
17989SOL    HW258525   6.996   5.194   7.513  0.9378 -0.5666 -1.1506
17990SOL     OW58526   9.555   0.315   6.869  0.1812  0.5732  0.0791
17990SOL    HW158527   9.545   0.278   6.782  0.6729  0.9399 -0.1337
17990SOL    HW258528   9.502   0.396   6.867  0.2942  0.6471  0.0815
17991SOL     OW58529   9.066   8.444   4.739  0.1721  0.3207 -0.2977
17991SOL    HW158530   9.051   8.350   4.730 -0.4618  0.0838  2.3066
17991SOL    HW258531   8.985   8.478   4.778  0.9937  1.6514  0.3353
17992SOL     OW58532   2.339   8.851   4.146  0.1507 -0.0673 -0.1161
17992SOL    HW158533   2.418   8.812   4.110 -0.0807  0.1078 -0.8282
17992SOL    HW258534   2.331   8.812   4.233  0.3864 -0.9591 -0.4796
17993SOL     OW58535   6.615   4.622   4.404  0.3096  0.2431  0.4560
17993SOL    HW158536   6.544   4.578   4.453  1.0462 -0.6601  0.7538
17993SOL    HW258537   6.585   4.623   4.314 -0.9921  1.7544  0.8601
17994SOL     OW58538   0.880   5.652  11.305  0.0321 -0.8213 -0.0629
17994SOL    HW158539   0.943   5.711  11.264 -0.1497 -0.9840 -0.5805
17994SOL    HW258540   0.910   5.645  11.396 -0.0569  0.2167  0.0575
17995SOL     OW58541   0.966   8.987   0.331  0.3622  0.5057 -0.1900
17995SOL    HW158542   0.973   9.081   0.318 -0.5436  1.5971  5.1104
17995SOL    HW258543   0.885   8.976   0.381  0.2678 -3.1722 -0.8846
17996SOL     OW58544   6.160   3.767   8.974  0.1816 -0.8319 -0.1985
17996SOL    HW158545   6.117   3.695   8.930  0.7191 -2.7219  2.1630
17996SOL    HW258546   6.174   3.833   8.906 -1.7915 -2.2527 -2.0797
17997SOL     OW58547   6.664   6.732   4.491 -0.3993 -0.0334  1.1227
17997SOL    HW158548   6.734   6.798   4.496 -0.3878 -0.0158  0.7620
17997SOL    HW258549   6.628   6.742   4.404  1.9906 -2.9025 -0.4144
17998SOL     OW58550   9.253  11.675   9.918  0.1655  0.3671 -0.1067
17998SOL    HW158551   9.238  11.587   9.885  0.1342  0.2080  0.3169
17998SOL    HW258552   9.348  11.688   9.909  0.1014  0.4879 -0.6414
17999SOL     OW58553  11.971   5.289   6.930  0.1387  0.3751  0.2625
17999SOL    HW158554  11.948   5.346   6.856 -1.0861  0.0672  0.3889
17999SOL    HW258555  12.036   5.340   6.979  0.7705  0.6918 -0.8731
18000SOL     OW58556   4.802   2.457   9.687  0.2178 -0.0278  0.6317
18000SOL    HW158557   4.866   2.523   9.660 -0.0907  0.5041  1.1855
18000SOL    HW258558   4.773   2.485   9.774 -1.4667  0.2814  0.0118
18001SOL     OW58559   6.748   5.540   0.181 -0.1814  0.2653  0.0337
18001SOL    HW158560   6.716   5.458   0.220 -0.9888 -0.1500 -1.4177
18001SOL    HW258561   6.699   5.609   0.227 -1.2279 -0.2146 -0.3419
18002SOL     OW58562   8.125   7.384   3.056 -0.9819  0.0815  0.2493
18002SOL    HW158563   8.130   7.471   3.015 -0.4844 -0.9683 -2.0604
18002SOL    HW258564   8.194   7.333   3.012 -0.9778 -1.3830  1.8587
18003SOL     OW58565   2.169   2.910   1.155 -0.6471 -0.2952 -0.3841
18003SOL    HW158566   2.193   2.981   1.094  0.0589  0.1735  0.4187
18003SOL    HW258567   2.184   2.830   1.105  0.9042  0.0452 -0.5173
18004SOL     OW58568  11.604  11.388   5.680 -0.2342 -0.1305  0.4202
18004SOL    HW158569  11.646  11.309   5.712 -1.6385 -1.3974 -0.6847
18004SOL    HW258570  11.623  11.454   5.746  0.7804 -1.4414  1.4956
18005SOL     OW58571  10.439   0.608   4.230 -0.6269  0.2592  0.1953
18005SOL    HW158572  10.496   0.664   4.283 -2.0058  1.7363  0.1622
18005SOL    HW258573  10.457   0.634   4.139  0.1824 -0.7864  0.0361
18006SOL     OW58574  11.737   5.775   5.434  0.3374 -0.2381  0.2758
18006SOL    HW158575  11.829   5.768   5.409 -0.0331 -1.7430 -0.7875
18006SOL    HW258576  11.706   5.685   5.439 -1.1265  0.2451  0.4604
18007SOL     OW58577   6.290   8.065  11.930 -0.3341  0.3402 -0.3478
18007SOL    HW158578   6.320   8.154  11.910 -1.1517  0.8338  0.5206
18007SOL    HW258579   6.346   8.036  12.002  1.6443 -0.8823 -2.2368
18008SOL     OW58580   6.515   9.219   6.654  0.1848  0.2618 -0.0354
18008SOL    HW158581   6.421   9.240   6.650  0.4383  1.4995 -0.0028
18008SOL    HW258582   6.558   9.302   6.632  1.2903 -0.0022  1.0733
18009SOL     OW58583   8.822   0.052   5.447  0.1661  0.0430 -0.2935
18009SOL    HW158584   8.794   0.001   5.371  0.6347 -0.3989 -0.1821
18009SOL    HW258585   8.765   0.023   5.518 -0.7534  0.9827 -0.6302
18010SOL     OW58586  10.297   6.796   6.437  0.1011  0.2074 -0.5016
18010SOL    HW158587  10.338   6.857   6.498 -0.6876  1.7586 -1.4333
18010SOL    HW258588  10.206   6.826   6.432 -0.5260 -1.5933 -0.3528
18011SOL     OW58589   6.546   2.814   8.794  0.2689  0.0280 -0.0298
18011SOL    HW158590   6.455   2.836   8.815  0.1825  0.6539 -1.0039
18011SOL    HW258591   6.595   2.894   8.814  0.8942 -0.8162  2.0920
18012SOL     OW58592   6.929   6.287   0.928 -0.0761  0.3328  0.0670
18012SOL    HW158593   7.018   6.292   0.963 -0.2713 -0.6096  0.7466
18012SOL    HW258594   6.914   6.194   0.912 -0.7263  0.5444 -0.6288
18013SOL     OW58595   6.209   9.621  11.667  0.4402 -0.3662 -0.5248
18013SOL    HW158596   6.250   9.705  11.691 -0.4652  0.0653 -0.4699
18013SOL    HW258597   6.265   9.588  11.597  0.9764  0.1478 -0.3545
18014SOL     OW58598   7.938   0.991   2.309 -0.3133  0.2853 -1.0091
18014SOL    HW158599   8.024   0.953   2.328 -0.8336 -1.0217 -1.1775
18014SOL    HW258600   7.887   0.918   2.274 -1.9958  0.6409  0.5846
18015SOL     OW58601  11.962   3.675   2.359 -0.3822  0.2031 -0.2363
18015SOL    HW158602  11.877   3.701   2.322 -2.2601 -0.2586  3.2548
18015SOL    HW258603  11.999   3.756   2.393 -1.5330 -0.0566  1.8759
18016SOL     OW58604   0.121   0.669   6.033  0.1203 -0.0582  0.1590
18016SOL    HW158605   0.085   0.712   5.955  0.4697 -0.1480 -0.0576
18016SOL    HW258606   0.201   0.717   6.052 -0.9383  1.2010  1.6326
18017SOL     OW58607   0.571   9.190   3.864 -0.3334  0.2090  0.2837
18017SOL    HW158608   0.630   9.160   3.795 -0.2623 -0.0480  0.4600
18017SOL    HW258609   0.497   9.228   3.816 -0.6038 -0.5936  0.0616
18018SOL     OW58610   6.453   0.351   5.822  0.4086 -0.5696  0.1018
18018SOL    HW158611   6.386   0.349   5.754 -1.6307 -0.9758  2.0419
18018SOL    HW258612   6.529   0.308   5.782 -1.0495 -1.7197 -1.5557
18019SOL     OW58613   3.410   6.968   8.562 -0.5848 -0.1187  0.0670
18019SOL    HW158614   3.356   6.890   8.567 -1.4476  0.5350  2.7969
18019SOL    HW258615   3.476   6.956   8.631 -0.5237  1.3939  0.3048
18020SOL     OW58616   5.845   9.748   1.599  0.0335  0.2382 -0.4899
18020SOL    HW158617   5.853   9.700   1.516  2.1364  2.1015 -1.4827
18020SOL    HW258618   5.774   9.810   1.584 -0.7877 -0.5994 -0.2047
18021SOL     OW58619   2.495  10.891  11.094  0.0438 -0.3580  0.1442
18021SOL    HW158620   2.504  10.964  11.156 -1.7140 -0.4625  0.5902
18021SOL    HW258621   2.431  10.923  11.030  0.8705 -0.7340 -0.8926
18022SOL     OW58622   8.483  10.922   5.217  0.5888 -0.1677 -0.1411
18022SOL    HW158623   8.441  10.873   5.288  0.3608 -3.0956 -2.1444
18022SOL    HW258624   8.425  10.996   5.202 -0.6842 -0.8734  1.0840
18023SOL     OW58625   8.174   1.998   0.423 -0.5752  0.6796 -0.0859
18023SOL    HW158626   8.097   1.947   0.447 -1.6716  1.9335 -0.8197
18023SOL    HW258627   8.195   2.048   0.502 -2.0018  2.1119 -0.5584
18024SOL     OW58628  10.865  10.700   8.226 -0.6897 -0.2762 -0.3712
18024SOL    HW158629  10.841  10.609   8.246 -1.5332 -0.1910 -0.9686
18024SOL    HW258630  10.865  10.704   8.131 -1.4915  0.5646 -0.3450
18025SOL     OW58631   6.609   4.652   8.481  0.4409  0.3021 -0.2830
18025SOL    HW158632   6.678   4.591   8.456 -0.5208 -0.0907 -2.1080
18025SOL    HW258633   6.633   4.680   8.569  1.6560 -1.6266  0.0580
18026SOL     OW58634   4.130   4.166   6.214  0.5457 -0.4966  0.5380
18026SOL    HW158635   4.192   4.236   6.196 -1.1602  0.4588 -2.1013
18026SOL    HW258636   4.163   4.091   6.163 -1.1309  0.4711 -2.1834
18027SOL     OW58637   3.076   5.258   4.465 -0.2162  0.4728 -0.4337
18027SOL    HW158638   2.994   5.244   4.417 -0.5169  0.5825  0.0376
18027SOL    HW258639   3.116   5.171   4.467 -0.2907  0.4288 -0.7173
18028SOL     OW58640   1.640  11.041   2.490  0.1037  0.1173 -0.3222
18028SOL    HW158641   1.618  10.987   2.414  0.7209  1.1380 -1.2726
18028SOL    HW258642   1.588  11.121   2.478  0.6921  0.5532 -0.0285
18029SOL     OW58643   8.824   9.720   0.788  0.0868  0.1027 -0.3565
18029SOL    HW158644   8.821   9.690   0.697 -0.8435 -0.6376 -0.1020
18029SOL    HW258645   8.752   9.673   0.831  1.2987 -0.5420  1.0641
18030SOL     OW58646   6.072   8.229   4.492  0.2861 -0.1896  0.1117
18030SOL    HW158647   6.076   8.149   4.544  0.3035 -0.4737 -0.3304
18030SOL    HW258648   6.154   8.231   4.442  0.4704  0.3091  0.4196
18031SOL     OW58649  10.319   2.405  10.416  0.0936  0.0492 -0.4048
18031SOL    HW158650  10.237   2.429  10.374  0.2218 -0.9017 -1.2497
18031SOL    HW258651  10.372   2.370  10.345 -0.5937 -4.0620  0.8797
18032SOL     OW58652   5.211   1.939   3.260  0.1085  0.1696 -0.0487
18032SOL    HW158653   5.162   1.858   3.277 -0.8285  1.1230  2.1566
18032SOL    HW258654   5.145   2.007   3.256  1.0672  1.1863  0.7704
18033SOL     OW58655   9.595   8.673   8.515 -0.7387  0.3068  0.0451
18033SOL    HW158656   9.638   8.627   8.588  0.6834 -0.2645 -1.1012
18033SOL    HW258657   9.620   8.622   8.438 -3.1057  0.2609 -0.7566
18034SOL     OW58658   6.831  10.062   1.870  0.1379 -0.0199  0.8735
18034SOL    HW158659   6.804  10.105   1.789 -1.2390 -0.9159  0.8214
18034SOL    HW258660   6.924  10.042   1.856 -0.0877 -0.2464 -0.5314
18035SOL     OW58661   0.602   7.751   0.723  0.4195  0.0287  0.2109
18035SOL    HW158662   0.507   7.744   0.738  0.2799  0.2196 -0.5200
18035SOL    HW258663   0.619   7.845   0.726  0.0816  0.2496 -2.3827
18036SOL     OW58664   7.813   4.987   4.124  0.4810  0.0113  0.2092
18036SOL    HW158665   7.803   5.068   4.074 -1.6149  0.5784  1.3931
18036SOL    HW258666   7.888   5.004   4.181 -1.0292  2.0104  1.8047
18037SOL     OW58667   8.855   6.998   0.028 -0.1219 -0.5577  0.5965
18037SOL    HW158668   8.924   7.064   0.036  0.4699 -1.2279  1.1282
18037SOL    HW258669   8.886   6.924   0.080 -0.8270 -1.2188  0.1006
18038SOL     OW58670   6.334   6.087  10.270  0.0428  0.1123  0.5652
18038SOL    HW158671   6.318   6.158  10.332  1.7744  0.6633  0.4269
18038SOL    HW258672   6.332   6.130  10.184 -0.5482 -0.3173  0.3597
18039SOL     OW58673  10.613   9.071   1.224 -0.2264 -0.2688 -0.5852
18039SOL    HW158674  10.675   9.057   1.296 -0.6753 -0.3068 -0.1980
18039SOL    HW258675  10.637   9.005   1.159  0.0766 -0.3477 -0.3987
18040SOL     OW58676   2.275   4.275   5.413 -0.1100  0.0543  0.1538
18040SOL    HW158677   2.225   4.236   5.485 -0.7107  2.3737  1.0743
18040SOL    HW258678   2.245   4.228   5.335  0.5488 -2.5231  1.3251
18041SOL     OW58679   6.940   9.367   2.929 -0.1206 -0.1506  0.3282
18041SOL    HW158680   6.998   9.426   2.880 -0.5914 -0.7182 -0.9581
18041SOL    HW258681   6.954   9.391   3.021  1.7422  0.0859  0.0265
18042SOL     OW58682  12.068   6.020  10.022  0.0267  0.0916 -0.1656
18042SOL    HW158683  12.104   6.043   9.936  1.6269 -0.4611  0.3226
18042SOL    HW258684  12.128   6.060  10.085  1.3978 -3.0212  0.7024
18043SOL     OW58685   4.894   2.664  10.612  0.4194 -0.0788 -0.2524
18043SOL    HW158686   4.806   2.642  10.640  0.5332  0.3368  0.4705
18043SOL    HW258687   4.949   2.593  10.646  0.4604  0.0516 -0.0428
18044SOL     OW58688  10.896   1.543   9.777  0.1319 -0.0152 -0.0178
18044SOL    HW158689  10.961   1.557   9.708 -0.4615  0.5634 -0.4718
18044SOL    HW258690  10.938   1.577   9.857  0.4665  0.1436 -0.2584
18045SOL     OW58691  11.818   7.138   1.197 -0.1777 -0.0288 -0.5136
18045SOL    HW158692  11.784   7.054   1.167 -0.9537 -0.9001  2.4705
18045SOL    HW258693  11.746   7.176   1.248  1.6743  0.1875  2.1426
18046SOL     OW58694   1.547   2.255   6.853 -0.3455  0.0683  0.4373
18046SOL    HW158695   1.622   2.304   6.819 -0.2114  1.1202  2.1294
18046SOL    HW258696   1.581   2.168   6.872 -0.0027  0.0040 -0.4571
18047SOL     OW58697   6.071   2.380   5.600  0.2240 -0.1101  0.4126
18047SOL    HW158698   6.006   2.309   5.602  2.4616 -2.3541 -0.4564
18047SOL    HW258699   6.118   2.372   5.683 -0.3092  1.2453  0.8717
18048SOL     OW58700  11.669   5.961   2.102  0.0549  0.1315 -0.1173
18048SOL    HW158701  11.627   5.880   2.131  0.3542  0.1391  0.3482
18048SOL    HW258702  11.602   6.028   2.113  0.3197  0.2194  1.0525
18049SOL     OW58703   2.472   5.193   3.811  0.2997  0.1685  0.1860
18049SOL    HW158704   2.459   5.104   3.844  0.1790 -0.7022 -2.0137
18049SOL    HW258705   2.557   5.220   3.845  1.3200 -1.6479 -0.7487
18050SOL     OW58706   5.518   7.890   9.319  0.0910  0.0884 -0.2489
18050SOL    HW158707   5.540   7.817   9.261  2.2570 -0.1095  0.7385
18050SOL    HW258708   5.439   7.861   9.365 -0.1507 -0.8323 -1.2064
18051SOL     OW58709   9.623   3.779   4.607 -0.1383 -0.0435  0.0857
18051SOL    HW158710   9.687   3.829   4.657 -0.4699  0.1650  0.3041
18051SOL    HW258711   9.672   3.702   4.576  0.9908  1.4665 -2.1370
18052SOL     OW58712   6.298   8.612   9.487  0.2017 -0.1545 -0.2660
18052SOL    HW158713   6.309   8.615   9.582  0.0793  1.0969 -0.2776
18052SOL    HW258714   6.207   8.638   9.472  0.0420 -0.9211 -0.7104
18053SOL     OW58715   7.193   7.758  10.330  0.1347  0.2633 -0.0216
18053SOL    HW158716   7.174   7.847  10.359  2.0168  0.8912 -0.5984
18053SOL    HW258717   7.171   7.758  10.237 -1.6681 -0.4688  0.3613
18054SOL     OW58718  11.229   3.644   9.634  0.9124 -0.3003 -0.1887
18054SOL    HW158719  11.168   3.584   9.591  2.2253 -1.3980 -0.6091
18054SOL    HW258720  11.194   3.656   9.722  1.1103 -2.4852  0.2313
18055SOL     OW58721   8.499   4.444   9.608  0.0112 -0.2265  0.2612
18055SOL    HW158722   8.487   4.448   9.703  0.3445 -2.5324  0.4628
18055SOL    HW258723   8.413   4.424   9.573  0.0845 -0.3936  0.1741
18056SOL     OW58724   9.125   1.545  11.889  0.0476  0.1046 -0.7996
18056SOL    HW158725   9.057   1.577  11.948  0.0303 -1.9275  0.3832
18056SOL    HW258726   9.197   1.607  11.900 -0.9396  1.2681 -0.7042
18057SOL     OW58727   3.466   6.197   9.497 -0.4591  0.3033 -0.8825
18057SOL    HW158728   3.378   6.215   9.462 -1.6250 -1.5778  0.8982
18057SOL    HW258729   3.486   6.109   9.466  1.4068  1.1539 -2.2830
18058SOL     OW58730  11.942   7.048   3.074 -0.4884  0.3603 -0.4543
18058SOL    HW158731  11.925   7.120   3.135  2.1355  0.6531  0.0557
18058SOL    HW258732  11.981   6.980   3.128 -0.9400 -0.6022 -1.3149
18059SOL     OW58733   4.618   1.650   5.205 -0.1869 -0.0962  0.3849
18059SOL    HW158734   4.712   1.643   5.187 -0.3710  0.7835 -1.0686
18059SOL    HW258735   4.595   1.738   5.176 -1.8615 -1.0327 -1.3342
18060SOL     OW58736   0.805   2.184   3.417 -0.0797  0.3064  0.1322
18060SOL    HW158737   0.819   2.264   3.366 -1.9144 -0.6669 -2.0542
18060SOL    HW258738   0.755   2.126   3.358  3.4609 -3.5847  0.4658
18061SOL     OW58739   5.743   8.873   6.120  0.1597  0.0311 -0.2255
18061SOL    HW158740   5.731   8.914   6.205 -0.9241 -2.3408  0.8583
18061SOL    HW258741   5.673   8.910   6.065 -0.2598  0.2560  0.4513
18062SOL     OW58742   2.233  12.029   3.476 -0.1426  0.3312  0.2622
18062SOL    HW158743   2.157  12.001   3.426  0.6378 -2.1390  0.3133
18062SOL    HW258744   2.236  11.970   3.551  0.8607  1.5175  1.2191
18063SOL     OW58745   8.718  11.783  11.768  0.1307  0.3141 -0.4671
18063SOL    HW158746   8.750  11.845  11.703  3.3984  0.6663  1.2522
18063SOL    HW258747   8.777  11.708  11.760 -0.9166 -0.6512  0.4928
18064SOL     OW58748   3.249  10.744   1.249 -0.3268  0.4564  0.9273
18064SOL    HW158749   3.340  10.752   1.224 -0.7691 -0.7350 -1.3057
18064SOL    HW258750   3.200  10.770   1.171 -1.8238 -2.3204  0.8344
18065SOL     OW58751   1.989   2.289   7.570 -0.2450  0.0473  0.2969
18065SOL    HW158752   1.952   2.373   7.542 -0.0652 -0.1016 -0.4254
18065SOL    HW258753   2.080   2.293   7.542 -0.3924 -0.6336 -0.3179
18066SOL     OW58754   4.294   9.928   3.955  0.0516  0.0631  0.1184
18066SOL    HW158755   4.340   9.848   3.979  0.8720  0.7695  0.9956
18066SOL    HW258756   4.225   9.936   4.021  0.4479  0.4715  0.4839
18067SOL     OW58757   2.710   8.164   6.408 -0.5436  0.4825 -0.0662
18067SOL    HW158758   2.650   8.168   6.334 -1.1476 -2.3125  0.1735
18067SOL    HW258759   2.678   8.092   6.462  2.4372 -0.5174  0.5893
18068SOL     OW58760   0.074   8.083   6.019  0.1203 -0.0708  0.4833
18068SOL    HW158761  -0.009   8.037   6.013  0.1063  0.0071  0.0932
18068SOL    HW258762   0.119   8.063   5.937  0.9874 -1.0790  1.1731
18069SOL     OW58763  10.038   7.251  10.124  0.3734 -0.2571  0.2066
18069SOL    HW158764   9.945   7.267  10.107  0.7005  0.4634 -1.0489
18069SOL    HW258765  10.051   7.277  10.215 -0.9080 -1.5904  0.8086
18070SOL     OW58766   7.067   3.212   8.567 -0.3396 -0.0171  0.0579
18070SOL    HW158767   7.129   3.193   8.636 -0.2047 -0.4170 -0.1707
18070SOL    HW258768   7.086   3.302   8.542  2.0550 -0.9576 -1.9133
18071SOL     OW58769   2.535   1.628   4.775 -0.2174  0.1137  0.6556
18071SOL    HW158770   2.524   1.546   4.823 -1.3110 -0.6534 -0.8463
18071SOL    HW258771   2.610   1.611   4.718  1.2774  1.1300  2.2146
18072SOL     OW58772   7.943   2.813   2.997 -0.5739 -0.1270  0.0036
18072SOL    HW158773   7.895   2.895   3.005  0.7477  0.5745  1.1869
18072SOL    HW258774   7.995   2.823   2.917  0.3220  0.6131  0.6638
18073SOL     OW58775   7.385   1.113   4.735  0.2478 -0.0474 -0.3823
18073SOL    HW158776   7.473   1.149   4.727  0.3068  0.0585  0.6848
18073SOL    HW258777   7.340   1.142   4.655  1.3166 -0.5373 -1.1836
18074SOL     OW58778   8.712   2.712  11.419 -0.2678 -0.0294  0.2443
18074SOL    HW158779   8.726   2.806  11.433 -1.0751  0.3642 -1.3276
18074SOL    HW258780   8.625   2.695  11.454 -0.7193  0.1411 -0.7627
18075SOL     OW58781   8.034   2.979   0.193 -0.6209  0.5155 -0.5437
18075SOL    HW158782   7.994   2.991   0.107 -2.2887  0.2657  0.1516
18075SOL    HW258783   7.965   2.939   0.246  1.1516 -1.7469  0.2435
18076SOL     OW58784   0.772   6.499  11.881 -0.1365 -0.4658  0.0784
18076SOL    HW158785   0.702   6.454  11.834  0.7405 -0.2415 -1.5192
18076SOL    HW258786   0.737   6.586  11.900 -0.4898 -0.5457 -0.2113
18077SOL     OW58787   4.563   3.264   2.655 -0.3801  0.0466  0.0046
18077SOL    HW158788   4.515   3.341   2.624 -0.0522 -0.1282 -1.0017
18077SOL    HW258789   4.609   3.232   2.577 -0.2580 -0.9820  0.4809
18078SOL     OW58790   4.681  11.503   3.907 -0.2279 -0.0295 -0.4700
18078SOL    HW158791   4.686  11.574   3.844  0.2346  0.0634 -0.3333
18078SOL    HW258792   4.594  11.512   3.946  0.5343  1.6816  0.9632
18079SOL     OW58793   2.419   9.196   6.867  0.1881 -0.0422 -0.1697
18079SOL    HW158794   2.465   9.124   6.824 -1.6355 -1.7730  0.6196
18079SOL    HW258795   2.336   9.203   6.818 -0.3300  0.4280  0.7604
18080SOL     OW58796   7.934   8.889   7.904 -0.0933  0.0230 -0.8949
18080SOL    HW158797   7.948   8.799   7.873 -0.1211 -1.4491  2.8863
18080SOL    HW258798   8.013   8.910   7.953 -0.2075  2.0001 -1.4852
18081SOL     OW58799   8.814   8.448  11.803  0.5867  0.4301 -0.4583
18081SOL    HW158800   8.828   8.412  11.715 -0.6891  0.9820 -0.9098
18081SOL    HW258801   8.877   8.520  11.809  1.1341 -0.0203 -0.6608
18082SOL     OW58802   0.356   4.114  11.691  0.2777  0.6842 -0.1415
18082SOL    HW158803   0.324   4.031  11.727 -0.3641  1.0874  0.2275
18082SOL    HW258804   0.326   4.114  11.600 -1.3980  1.3583  0.3768
18083SOL     OW58805   2.414   1.959   5.176 -0.2775  0.0346 -0.3925
18083SOL    HW158806   2.328   1.919   5.170  0.1141 -0.6464 -2.1752
18083SOL    HW258807   2.475   1.886   5.177  0.3454  0.5229 -1.0001
18084SOL     OW58808   6.087   2.782   1.659 -0.1737 -0.2008 -0.0438
18084SOL    HW158809   6.073   2.707   1.717 -1.1449 -0.3447 -0.4597
18084SOL    HW258810   6.141   2.842   1.711 -1.2512 -0.1990  1.1208
18085SOL     OW58811   0.415   1.015   2.040 -0.6189 -0.2321  0.4417
18085SOL    HW158812   0.392   1.098   2.081 -0.1533  0.4990 -0.7111
18085SOL    HW258813   0.478   1.039   1.971 -0.8659 -1.4695 -0.2505
18086SOL     OW58814   2.951   3.026   4.287 -0.5065  0.3963  0.7251
18086SOL    HW158815   2.877   3.072   4.246 -2.2972 -1.8612  1.2526
18086SOL    HW258816   3.005   2.997   4.214 -1.0693  0.5682  0.2327
18087SOL     OW58817  11.498  11.633   4.388  0.4148  0.2401 -0.0586
18087SOL    HW158818  11.582  11.651   4.347  0.7341 -0.8352  0.1106
18087SOL    HW258819  11.513  11.648   4.481  0.1406  1.0117 -0.1264
18088SOL     OW58820   1.283   6.900   6.974  0.5729  0.1511 -0.0989
18088SOL    HW158821   1.341   6.855   7.035  0.5647  1.0246  0.5617
18088SOL    HW258822   1.270   6.837   6.903 -2.1710 -2.3181  2.3474
18089SOL     OW58823   1.128   1.353   2.978 -0.0757  0.1490 -0.2952
18089SOL    HW158824   1.072   1.405   3.035 -0.2964 -0.8732  0.4635
18089SOL    HW258825   1.071   1.282   2.948  1.0598 -1.5599  1.3867
18090SOL     OW58826   3.287   0.372   7.205  0.1516 -0.1031 -0.6962
18090SOL    HW158827   3.311   0.418   7.124 -0.3380 -0.8261 -1.2563
18090SOL    HW258828   3.265   0.442   7.266  2.1058  0.5378 -0.6550
18091SOL     OW58829   7.164   0.226   7.233  0.0851 -0.5296  0.5206
18091SOL    HW158830   7.205   0.238   7.318  0.8432  1.5000 -0.0733
18091SOL    HW258831   7.102   0.299   7.226  1.6493  0.7011 -1.5368
18092SOL     OW58832  11.818   6.496   1.103  0.3965  0.7587  0.0755
18092SOL    HW158833  11.787   6.531   1.019  1.6487  0.6582 -0.4601
18092SOL    HW258834  11.882   6.560   1.133  0.9774  0.1107  0.2524
18093SOL     OW58835   4.425   0.574   4.018 -0.1947  0.1420  0.1391
18093SOL    HW158836   4.513   0.583   3.982  0.3241 -0.0921  1.2730
18093SOL    HW258837   4.439   0.570   4.113 -1.3310 -1.0274  0.2828
18094SOL     OW58838   3.124  11.484   7.399 -0.4687 -0.2587  0.0655
18094SOL    HW158839   3.136  11.577   7.377  0.2825 -0.3384  0.1037
18094SOL    HW258840   3.162  11.476   7.487 -0.2066 -0.6813 -0.0887
18095SOL     OW58841   5.220  11.512   1.277 -0.2033  0.7764 -0.0633
18095SOL    HW158842   5.219  11.418   1.297 -1.9088  0.4187 -1.5611
18095SOL    HW258843   5.280  11.549   1.341 -1.5312 -0.9452  2.3668
18096SOL     OW58844   2.043   3.738   9.486 -0.7358  0.4676 -1.1513
18096SOL    HW158845   2.067   3.743   9.578 -0.0869  0.3807 -1.3062
18096SOL    HW258846   2.104   3.674   9.449 -0.8341  0.6785 -1.6854
18097SOL     OW58847  11.880  10.880   2.670 -0.4188 -0.3713  0.0844
18097SOL    HW158848  11.891  10.969   2.703 -3.1795  0.0857 -0.0553
18097SOL    HW258849  11.904  10.887   2.577 -1.2217  0.3772 -0.0786
18098SOL     OW58850   9.289  11.358   0.044 -0.2826  0.3509  0.2579
18098SOL    HW158851   9.335  11.406  -0.025 -0.7116  1.1394  0.5109
18098SOL    HW258852   9.343  11.372   0.122  1.2581 -2.1027 -0.2422
18099SOL     OW58853   8.777   8.189   6.753  0.1339 -0.3797 -0.3928
18099SOL    HW158854   8.737   8.102   6.748 -1.4444  0.3313 -0.8080
18099SOL    HW258855   8.747   8.233   6.674  0.9691  0.5335 -0.2171
18100SOL     OW58856  10.735  11.038   7.698 -0.5585 -0.1817 -0.0174
18100SOL    HW158857  10.826  11.053   7.724 -0.2911 -0.5257 -0.7296
18100SOL    HW258858  10.712  10.954   7.738 -0.7010  0.1001  0.5028
18101SOL     OW58859   2.714   1.685  11.226  0.0424  0.1535  0.2908
18101SOL    HW158860   2.765   1.765  11.237 -0.1609  0.3120  0.0725
18101SOL    HW258861   2.698   1.679  11.132 -1.3780  0.7406  0.4782
18102SOL     OW58862   7.043   8.585   0.726 -0.3967  0.0801 -0.0945
18102SOL    HW158863   7.108   8.609   0.659  0.3059  0.0302  0.5643
18102SOL    HW258864   6.974   8.540   0.677 -0.9929  2.0075 -1.1401
18103SOL     OW58865   5.525   7.376  10.779 -0.0378  0.3196  0.3356
18103SOL    HW158866   5.607   7.411  10.814 -0.6569  1.7250  0.4476
18103SOL    HW258867   5.497   7.441  10.715  0.0111 -1.2031 -1.2995
18104SOL     OW58868   2.693   3.394   9.409  0.2906  0.0866 -0.0969
18104SOL    HW158869   2.769   3.438   9.446 -0.1678  0.1784  0.7541
18104SOL    HW258870   2.619   3.425   9.461 -0.1918 -0.7957 -0.2362
18105SOL     OW58871   9.586   3.636   2.837  0.6229  0.1954  0.1170
18105SOL    HW158872   9.570   3.542   2.829  0.3266  0.2565 -0.0363
18105SOL    HW258873   9.503   3.672   2.868 -0.0687  0.7325 -2.1785
18106SOL     OW58874   9.361   4.288   2.382 -0.3850 -0.2467  0.0435
18106SOL    HW158875   9.291   4.353   2.375 -0.7947 -0.4810  1.5961
18106SOL    HW258876   9.329   4.214   2.331 -0.8807 -0.0223  0.0198
18107SOL     OW58877  11.196   7.445  10.600 -0.9740 -0.1872  0.1659
18107SOL    HW158878  11.196   7.362  10.647 -1.1356 -0.5947 -0.5307
18107SOL    HW258879  11.187   7.511  10.668  0.5601 -0.6520  0.8673
18108SOL     OW58880   8.875   8.350  10.625  0.9069  0.4254  0.2254
18108SOL    HW158881   8.944   8.293  10.658  1.0191  0.6208  0.3310
18108SOL    HW258882   8.911   8.438  10.633  0.0879  0.6473  1.6484
18109SOL     OW58883   9.110  10.851  10.304  0.1940 -0.2035 -0.3897
18109SOL    HW158884   9.166  10.922  10.274  1.0738 -0.9022 -0.4442
18109SOL    HW258885   9.028  10.894  10.329  1.3885  1.1467  1.5451
18110SOL     OW58886   8.882   3.324   8.956  0.2046 -0.2961 -0.2870
18110SOL    HW158887   8.789   3.317   8.979  0.2889  0.0993  0.1819
18110SOL    HW258888   8.883   3.316   8.860 -0.4941  1.3732 -0.4659
18111SOL     OW58889   3.360   0.897   9.391 -0.4771  0.0249 -0.2304
18111SOL    HW158890   3.289   0.918   9.452 -0.7632 -0.5858 -0.3510
18111SOL    HW258891   3.315   0.868   9.311 -0.1039  0.5927 -0.6635
18112SOL     OW58892   9.633   5.109   2.877  0.2815  0.2804 -0.1959
18112SOL    HW158893   9.690   5.038   2.850  1.4213  0.8970  0.4923
18112SOL    HW258894   9.626   5.165   2.800 -0.3072 -0.3593 -0.6192
18113SOL     OW58895  11.790   7.288   4.408  0.3960  0.5480 -0.2333
18113SOL    HW158896  11.773   7.376   4.443  1.6848  0.5560  0.4434
18113SOL    HW258897  11.849   7.248   4.473  0.7864 -0.3768 -1.1362
18114SOL     OW58898  11.619   7.378   9.730 -0.3896 -0.1884 -0.5429
18114SOL    HW158899  11.690   7.405   9.672 -0.5278 -1.1987 -1.2029
18114SOL    HW258900  11.659   7.376   9.817  0.2005 -0.0699 -0.8062
18115SOL     OW58901   1.509   4.943   5.725 -0.2359  0.4514  0.1598
18115SOL    HW158902   1.595   4.927   5.688 -0.5033  1.1671 -0.8184
18115SOL    HW258903   1.455   4.871   5.692  0.1289 -0.3848  1.3356
18116SOL     OW58904   9.794   5.669   6.996  0.3995  0.0751  0.7131
18116SOL    HW158905   9.710   5.693   6.958  0.6353 -1.6701 -1.0692
18116SOL    HW258906   9.835   5.752   7.020 -0.4270  1.1981 -1.5037
18117SOL     OW58907   6.796   2.560   9.473  0.1162  0.2689  0.2044
18117SOL    HW158908   6.702   2.566   9.492 -0.3196  1.7608 -2.1291
18117SOL    HW258909   6.826   2.486   9.527 -2.2601  0.0806  1.4068
18118SOL     OW58910   1.156   6.009   3.798  0.5028  0.8638 -0.5051
18118SOL    HW158911   1.155   5.914   3.787  2.7708  0.7887 -0.5136
18118SOL    HW258912   1.065   6.032   3.816 -0.0054 -1.3677  0.0789
18119SOL     OW58913  11.581   2.610   2.511  0.1201 -0.0150  0.0644
18119SOL    HW158914  11.532   2.584   2.433 -0.7310 -3.1251  1.4696
18119SOL    HW258915  11.666   2.567   2.501  0.5851  0.8512  0.1747
18120SOL     OW58916   6.095   3.087   4.686  0.0806 -0.4840 -0.1084
18120SOL    HW158917   6.044   3.114   4.609  2.3192 -1.8425 -2.2154
18120SOL    HW258918   6.031   3.043   4.742 -1.5715  0.2187 -1.3208
18121SOL     OW58919   6.057   2.998   4.199 -0.3070 -0.2107  0.4987
18121SOL    HW158920   6.099   2.912   4.201 -1.4813 -0.7963  0.7206
18121SOL    HW258921   6.003   2.997   4.121 -0.1371  0.4382  0.3602
18122SOL     OW58922   0.595   0.997   2.580  1.0078 -0.0390  0.0890
18122SOL    HW158923   0.533   1.069   2.591  2.2495  1.0200  0.4732
18122SOL    HW258924   0.575   0.937   2.652 -0.6318 -0.5622 -0.7604
18123SOL     OW58925   8.287  10.630   8.389  0.9589 -0.1387  0.0349
18123SOL    HW158926   8.261  10.631   8.481  0.2055 -0.5203 -0.1624
18123SOL    HW258927   8.380  10.652   8.390  0.9372 -0.0498  0.8789
18124SOL     OW58928  11.754   0.493   7.344 -0.0911 -0.3581 -0.2330
18124SOL    HW158929  11.727   0.439   7.270 -1.6468  0.4292 -0.2765
18124SOL    HW258930  11.673   0.535   7.374  0.8370  0.8457  0.6803
18125SOL     OW58931   4.409   5.701   6.260 -0.7953  0.6845  0.0086
18125SOL    HW158932   4.418   5.614   6.222 -2.0419 -0.2754  1.7647
18125SOL    HW258933   4.372   5.755   6.191  0.1497 -0.1109 -1.1531
18126SOL     OW58934  11.734   7.685   2.521  0.6758  0.2921 -0.2162
18126SOL    HW158935  11.756   7.592   2.514  0.4181  0.2379 -0.3373
18126SOL    HW258936  11.805   7.729   2.475  0.6574  0.1355 -0.3985
18127SOL     OW58937   2.815   5.892   3.717  0.4697 -0.2024 -0.0639
18127SOL    HW158938   2.891   5.948   3.703  0.0554  0.3997  0.0811
18127SOL    HW258939   2.740   5.952   3.718 -0.0200 -0.7990 -0.3006
18128SOL     OW58940   6.520   9.912   5.721  0.0196  0.2347 -0.0877
18128SOL    HW158941   6.576   9.849   5.675 -1.5695 -0.9783 -0.4490
18128SOL    HW258942   6.523   9.885   5.812 -0.2796 -0.0657 -0.1670
18129SOL     OW58943   6.043   5.732   2.284  0.0297 -0.3951  0.6133
18129SOL    HW158944   6.054   5.730   2.379 -1.4794  1.0441  0.8740
18129SOL    HW258945   5.950   5.715   2.270 -0.0032  0.5795 -0.5144
18130SOL     OW58946   7.532   3.278   6.803 -0.2410  0.3400  0.5107
18130SOL    HW158947   7.490   3.228   6.873  0.6902 -1.9587 -0.4744
18130SOL    HW258948   7.625   3.273   6.822  0.0995 -1.0129 -1.2394
18131SOL     OW58949   9.204   3.610   2.101  0.0469 -0.4522  0.0546
18131SOL    HW158950   9.265   3.661   2.154  2.0163  0.1240 -2.5636
18131SOL    HW258951   9.119   3.621   2.144  0.7658  3.2478  0.8857
18132SOL     OW58952   7.728   0.093   3.617 -0.1510 -0.4358 -0.0593
18132SOL    HW158953   7.812   0.070   3.579 -0.6368  0.7003 -1.9507
18132SOL    HW258954   7.683   0.143   3.549 -1.3091  1.2879  1.8495
18133SOL     OW58955   9.837  10.401  12.016  0.2292 -0.3698 -0.0720
18133SOL    HW158956   9.744  10.419  12.031 -0.0501 -2.3208  0.8999
18133SOL    HW258957   9.847  10.409  11.921 -0.5262  1.4841 -0.0289
18134SOL     OW58958   2.052  10.317   8.878  0.6423 -0.2421 -0.3636
18134SOL    HW158959   2.117  10.309   8.809 -0.6692  1.0976 -1.8586
18134SOL    HW258960   1.998  10.238   8.870  0.0369  0.2484 -1.4444
18135SOL     OW58961   7.692  10.876   9.665  0.0095  0.3573  0.3406
18135SOL    HW158962   7.748  10.942   9.707  0.3336  1.1623 -1.2922
18135SOL    HW258963   7.699  10.894   9.571 -2.0083 -0.3301  0.0055
18136SOL     OW58964   0.885   7.406   7.463 -0.2065  0.0175 -0.6230
18136SOL    HW158965   0.821   7.469   7.429  0.0671  0.6728  0.0550
18136SOL    HW258966   0.955   7.406   7.397  0.1315  0.9778 -0.2859
18137SOL     OW58967   6.796  10.681   9.862  0.3330 -0.2094 -0.0596
18137SOL    HW158968   6.875  10.682   9.809  0.5482 -0.5910  0.2499
18137SOL    HW258969   6.743  10.610   9.825 -0.1960  0.5234 -0.7377
18138SOL     OW58970  11.181   5.775   3.030  0.0536  0.3180 -0.1719
18138SOL    HW158971  11.089   5.775   3.006  0.2099  0.6897 -0.7893
18138SOL    HW258972  11.210   5.685   3.015  0.1794  0.5680 -1.5229
18139SOL     OW58973   2.801   1.233   8.723  0.3280 -0.1883 -0.6564
18139SOL    HW158974   2.794   1.299   8.653  2.0784  0.6324 -0.0937
18139SOL    HW258975   2.860   1.271   8.787  1.2858 -2.2590 -0.2346
18140SOL     OW58976   5.643   0.156   3.366  0.3780 -0.5637  0.4074
18140SOL    HW158977   5.573   0.176   3.427  0.1605  0.0776 -0.0436
18140SOL    HW258978   5.636   0.061   3.351  0.1240 -0.6374  0.9860
18141SOL     OW58979   7.463   8.216  10.440 -0.4998  0.3461 -0.2722
18141SOL    HW158980   7.452   8.228  10.535  0.7415  0.4328 -0.1293
18141SOL    HW258981   7.556   8.228  10.425 -1.0252  3.2438 -1.9150
18142SOL     OW58982   2.892   6.282   9.144 -0.3353  0.1255  0.1099
18142SOL    HW158983   2.857   6.338   9.075  1.5983  0.0242 -1.0258
18142SOL    HW258984   2.895   6.338   9.221 -2.3560  0.2965  0.1082
18143SOL     OW58985   1.126   1.177   3.740  0.1110  0.0139  0.1771
18143SOL    HW158986   1.087   1.176   3.653  0.8469 -0.7482 -0.1504
18143SOL    HW258987   1.212   1.217   3.728  0.3544 -0.4016  0.4896
18144SOL     OW58988   1.983   0.510   3.661  0.0494  0.0639 -0.1592
18144SOL    HW158989   1.972   0.599   3.626  0.6281 -0.2331 -1.1310
18144SOL    HW258990   1.953   0.453   3.591 -0.8554 -0.5101  0.6777
18145SOL     OW58991   0.902  10.807  10.665 -0.2123 -0.1734  0.1570
18145SOL    HW158992   0.821  10.785  10.711 -0.4273  0.6442  0.1994
18145SOL    HW258993   0.938  10.881  10.715  0.2995 -0.2103 -0.1518
18146SOL     OW58994   8.273   8.221   4.191  0.5461  0.1783 -0.2664
18146SOL    HW158995   8.191   8.198   4.148  0.9874  0.4091 -1.2766
18146SOL    HW258996   8.328   8.255   4.120  2.2911 -1.9485 -0.0383
18147SOL     OW58997   9.152   9.014  11.478  0.3548  0.0219 -0.3774
18147SOL    HW158998   9.078   9.052  11.525  0.3208 -0.0602 -0.3639
18147SOL    HW258999   9.208   9.088  11.455  2.0755 -0.1756  2.6478
18148SOL     OW59000   9.728  11.313   2.458  0.5132  0.3186 -0.3839
18148SOL    HW159001   9.696  11.401   2.480 -0.5153  0.1691 -1.1833
18148SOL    HW259002   9.822  11.324   2.447  0.5554  1.0946  0.5852
18149SOL     OW59003   7.868  10.242   3.056 -0.0019 -0.4121 -0.3049
18149SOL    HW159004   7.804  10.265   3.123  0.7059  0.9429 -0.0620
18149SOL    HW259005   7.821  10.253   2.973 -0.0029  0.9025 -0.1439
18150SOL     OW59006   0.484   5.962  11.442  0.3258 -0.4588 -0.2410
18150SOL    HW159007   0.425   5.927  11.508  0.2382  0.2384  0.0630
18150SOL    HW259008   0.429   6.019  11.389  0.7431  0.2970  0.1254
18151SOL     OW59009   6.026   1.372   0.212 -0.0388  0.3437 -0.4590
18151SOL    HW159010   6.017   1.415   0.127 -1.4038 -1.0130 -1.0586
18151SOL    HW259011   5.960   1.415   0.267 -1.2941 -0.7676 -1.0139
18152SOL     OW59012   9.956   0.902   9.894  0.4607 -0.2128  0.0730
18152SOL    HW159013   9.871   0.941   9.916 -0.4389 -2.0204 -0.0072
18152SOL    HW259014   9.965   0.917   9.800 -0.1138 -0.5800 -0.0516
18153SOL     OW59015  10.436   4.980   3.957 -0.2813 -0.5129 -0.0429
18153SOL    HW159016  10.427   4.960   4.050 -1.7460  0.7262  0.1329
18153SOL    HW259017  10.514   4.932   3.929  0.6795 -0.2424  1.9966
18154SOL     OW59018  10.102   5.628   0.777 -0.0721 -0.5193 -0.0263
18154SOL    HW159019  10.037   5.696   0.757 -0.0179 -0.4986 -0.1360
18154SOL    HW259020  10.152   5.618   0.695  0.6270  0.0786  0.3090
18155SOL     OW59021   0.044   7.110   5.206 -0.2241  0.3352  0.1238
18155SOL    HW159022   0.030   7.048   5.278 -1.1467 -1.6689 -1.6583
18155SOL    HW259023  -0.032   7.097   5.149  1.0085  1.0159 -1.7605
18156SOL     OW59024   9.144  11.822  10.690  0.3008 -0.1972 -0.2829
18156SOL    HW159025   9.131  11.897  10.631 -1.0760 -0.4024 -0.2690
18156SOL    HW259026   9.194  11.759  10.638  1.3189  0.6369 -0.3580
18157SOL     OW59027   9.417   9.124   6.940 -0.5534  0.1891  0.5744
18157SOL    HW159028   9.374   9.090   7.019  0.4912 -1.8913  0.3188
18157SOL    HW259029   9.403   9.055   6.874  0.4906  0.8876 -0.4129
18158SOL     OW59030   3.487   4.223   0.522 -0.6264 -1.2626  0.6494
18158SOL    HW159031   3.418   4.171   0.482 -2.3970 -0.6172  2.6516
18158SOL    HW259032   3.443   4.271   0.592  1.9998 -1.4431  2.5802
18159SOL     OW59033  10.347   0.098   8.673  0.2480  0.6648  0.0742
18159SOL    HW159034  10.338   0.053   8.757 -2.4916 -1.2864 -1.0792
18159SOL    HW259035  10.405   0.041   8.622  0.5140  0.9283  0.0809
18160SOL     OW59036   6.466   7.817   3.089 -0.4255 -0.0865  0.2904
18160SOL    HW159037   6.516   7.830   3.170  0.4639 -2.8467  0.2946
18160SOL    HW259038   6.441   7.905   3.062  0.7119  1.0570  2.6467
18161SOL     OW59039  11.456   6.588   3.016  0.5502  0.6385 -0.4848
18161SOL    HW159040  11.519   6.618   3.081  1.6393 -0.8474 -0.7915
18161SOL    HW259041  11.371   6.593   3.061  1.2160  0.1321  0.8930
18162SOL     OW59042   5.067   7.554   3.972  0.1532  0.5722 -0.4785
18162SOL    HW159043   4.978   7.534   4.002 -0.9077  1.3562 -2.8340
18162SOL    HW259044   5.117   7.475   3.991 -0.8273  0.3850  1.5837
18163SOL     OW59045   7.950  11.241   2.766  0.3737  0.2761 -0.2630
18163SOL    HW159046   7.949  11.310   2.833  0.8780 -0.4603  0.5296
18163SOL    HW259047   7.954  11.288   2.683 -1.6527  1.2501  0.1327
18164SOL     OW59048   3.038   4.028   8.771 -0.1329  0.1547  0.0152
18164SOL    HW159049   3.060   4.110   8.727 -1.6209 -0.0470 -1.1863
18164SOL    HW259050   3.005   3.972   8.701  0.8505 -1.4851  0.8181
18165SOL     OW59051   8.609  11.694   7.772  0.5887  0.1951 -0.2458
18165SOL    HW159052   8.655  11.725   7.850  3.9323 -0.0440 -1.9133
18165SOL    HW259053   8.604  11.772   7.716  1.5150 -0.3648 -1.1521
18166SOL     OW59054   1.188   1.616   8.072  0.1080 -0.2026 -0.7016
18166SOL    HW159055   1.224   1.575   8.151 -1.1845 -0.5400 -0.2612
18166SOL    HW259056   1.136   1.547   8.032 -1.2588  0.6720 -0.5113
18167SOL     OW59057   4.765   1.132   8.402  0.4303  0.4787 -0.2715
18167SOL    HW159058   4.708   1.055   8.393  0.3311  0.5509 -0.2631
18167SOL    HW259059   4.714   1.204   8.366  1.0932  0.2907 -1.6688
18168SOL     OW59060  10.311   8.609   6.564  0.2799  0.3666 -0.2193
18168SOL    HW159061  10.343   8.674   6.627 -0.5739  0.5063  0.0803
18168SOL    HW259062  10.330   8.647   6.478 -2.9702  2.5203 -0.1439
18169SOL     OW59063   6.613   2.749   6.402 -0.3891 -0.2604  0.0931
18169SOL    HW159064   6.620   2.754   6.497  2.2785  1.9105 -0.1160
18169SOL    HW259065   6.595   2.838   6.374  0.3233 -0.5757 -1.4919
18170SOL     OW59066   7.457   4.975   6.765  0.0784 -0.1512  0.3679
18170SOL    HW159067   7.397   5.028   6.713 -1.5309 -2.0274  0.2189
18170SOL    HW259068   7.488   5.034   6.834  1.2531  2.0357 -1.8656
18171SOL     OW59069   1.575   1.458   0.667  0.6895 -0.1255  0.1490
18171SOL    HW159070   1.545   1.546   0.689  2.8300  0.5739  0.4696
18171SOL    HW259071   1.569   1.453   0.572  1.1088  0.5759  0.0871
18172SOL     OW59072   3.760   3.363  10.618  0.4570  0.0732 -0.1503
18172SOL    HW159073   3.678   3.406  10.593  0.2135 -0.2135  0.1505
18172SOL    HW259074   3.760   3.365  10.714  2.1326  2.6018 -0.1068
18173SOL     OW59075   9.858  11.876   2.660 -0.3138 -0.5628 -0.7813
18173SOL    HW159076   9.803  11.931   2.716 -0.6836  0.5011 -2.1128
18173SOL    HW259077   9.798  11.812   2.622 -0.4072 -0.1735 -1.2964
18174SOL     OW59078   9.525  10.678   0.853 -0.2511 -0.9977 -0.1653
18174SOL    HW159079   9.540  10.648   0.763 -0.7293 -0.8130 -0.3113
18174SOL    HW259080   9.437  10.717   0.851  0.3630  0.4872 -0.0129
18175SOL     OW59081   4.144   4.967   9.967  0.5404 -0.4182  0.0414
18175SOL    HW159082   4.130   4.900  10.034  2.3413 -0.9289 -0.0275
18175SOL    HW259083   4.239   4.971   9.957  0.4159  1.3422 -0.7989
18176SOL     OW59084   9.097   4.085   8.201  0.2734 -0.1242  0.1512
18176SOL    HW159085   9.143   4.041   8.273 -0.0519  0.1744  0.5475
18176SOL    HW259086   9.005   4.064   8.216  0.2956 -0.9842 -0.8217
18177SOL     OW59087   1.386  11.878   0.208 -0.1738  0.1916 -0.0280
18177SOL    HW159088   1.348  11.804   0.162 -0.4779 -0.2356  0.8930
18177SOL    HW259089   1.415  11.843   0.292 -0.2548  1.0998  0.3934
18178SOL     OW59090   4.938   8.669  11.776 -0.0781  0.4843 -0.4915
18178SOL    HW159091   4.926   8.577  11.800  0.9858  0.9701  2.1922
18178SOL    HW259092   4.893   8.718  11.844  0.7052  1.9905 -1.0061
18179SOL     OW59093   3.476   8.702   0.342  0.0412  1.0541  0.3623
18179SOL    HW159094   3.435   8.773   0.391 -1.0819  0.4596  0.3121
18179SOL    HW259095   3.404   8.660   0.295  1.0326  1.4229 -1.6041
18180SOL     OW59096  11.188   4.201   4.191 -0.2335 -0.5133  0.1438
18180SOL    HW159097  11.192   4.113   4.154 -0.4669 -0.1794 -0.7214
18180SOL    HW259098  11.228   4.257   4.124 -3.2485  0.5079 -0.9995
18181SOL     OW59099  11.008   6.473   4.121 -0.8975  0.1016 -0.9629
18181SOL    HW159100  10.955   6.438   4.049 -2.0550  1.0961 -0.6293
18181SOL    HW259101  11.073   6.529   4.079 -0.3557 -0.7889 -1.3448
18182SOL     OW59102   8.381  10.066   3.122  0.3032  0.6074 -0.4812
18182SOL    HW159103   8.361  10.095   3.211 -1.1709 -1.5336 -0.0437
18182SOL    HW259104   8.424  10.142   3.081  0.4950  1.8467  1.8404
18183SOL     OW59105  12.060   5.853  10.871  0.1754 -0.3024 -0.5528
18183SOL    HW159106  11.990   5.897  10.824 -0.3717 -0.0496  0.4662
18183SOL    HW259107  12.059   5.763  10.838 -1.1575 -0.5108  0.0136
18184SOL     OW59108   4.870   1.989   2.786 -0.0403 -0.1754  0.0710
18184SOL    HW159109   4.953   1.961   2.824 -0.1399 -0.4926  0.0535
18184SOL    HW259110   4.857   2.078   2.820  0.4871  0.0214 -0.2230
18185SOL     OW59111   5.132   7.391   0.534 -0.3634  0.1811 -0.0654
18185SOL    HW159112   5.170   7.411   0.619 -0.0147  1.3451 -0.4662
18185SOL    HW259113   5.116   7.477   0.495  0.3575 -0.3216 -1.5446
18186SOL     OW59114   2.307   1.939   7.453  0.6618  0.4689  0.0815
18186SOL    HW159115   2.284   1.847   7.466  0.6708  0.4543 -0.0030
18186SOL    HW259116   2.304   1.951   7.358 -0.7733  0.9332  0.1625
18187SOL     OW59117   1.312   6.942   2.694 -0.2301  0.7209 -0.6550
18187SOL    HW159118   1.285   7.031   2.672 -1.7635  0.1488 -1.2421
18187SOL    HW259119   1.283   6.890   2.619  0.7058 -0.2732 -0.3445
18188SOL     OW59120  11.110   4.492   3.706 -0.1845  0.2819  0.5579
18188SOL    HW159121  11.193   4.491   3.754  0.3189 -2.1338 -0.2284
18188SOL    HW259122  11.093   4.585   3.690  1.7560  0.9113  1.7549
18189SOL     OW59123   0.536   6.883   8.565  0.5370 -0.5649 -0.2273
18189SOL    HW159124   0.571   6.851   8.648  0.9892 -1.0295 -0.5909
18189SOL    HW259125   0.546   6.809   8.505 -2.3402 -1.2430 -0.0191
18190SOL     OW59126   2.620   1.860  10.532  0.0292 -0.5646 -0.5518
18190SOL    HW159127   2.703   1.898  10.560 -0.1898  0.0506 -0.7096
18190SOL    HW259128   2.633   1.840  10.440 -0.7495  1.7947 -1.2496
18191SOL     OW59129   4.275  10.166   5.941  0.5491  0.3624 -0.3479
18191SOL    HW159130   4.287  10.081   5.898  1.2732 -0.0868  0.6794
18191SOL    HW259131   4.181  10.184   5.933  0.3912 -0.5237 -0.6185
18192SOL     OW59132   2.253  10.454   7.886 -0.0311 -0.2529  0.1058
18192SOL    HW159133   2.243  10.359   7.875  1.2543 -0.7735  2.5971
18192SOL    HW259134   2.325  10.478   7.829  1.3360 -1.3014  1.3352
18193SOL     OW59135  12.101   8.172   0.868  0.1312  0.0173  0.0453
18193SOL    HW159136  12.174   8.234   0.866 -0.1325  0.3368  0.2629
18193SOL    HW259137  12.102   8.137   0.958  1.2198 -1.4303 -0.4939
18194SOL     OW59138   3.102   3.661   8.121 -0.1306  0.0710 -0.3355
18194SOL    HW159139   3.141   3.666   8.034  0.1886 -0.4191 -0.2247
18194SOL    HW259140   3.169   3.621   8.176 -0.4340  0.1126  0.0770
18195SOL     OW59141   9.319   5.531   0.348  0.1284  0.1932  0.1012
18195SOL    HW159142   9.279   5.592   0.286  2.8114  2.1604  0.1249
18195SOL    HW259143   9.257   5.529   0.422 -0.3922  2.4220 -0.1899
18196SOL     OW59144   7.222   3.463  10.564 -0.1084 -0.5017  0.0084
18196SOL    HW159145   7.261   3.540  10.606  0.1771 -1.0538  0.7725
18196SOL    HW259146   7.131   3.488  10.550 -0.6927 -0.9359  2.6335
18197SOL     OW59147   8.593  11.551   8.175  0.5468  0.3815  0.3486
18197SOL    HW159148   8.502  11.527   8.158  1.6277 -1.6136 -4.2623
18197SOL    HW259149   8.602  11.637   8.135  0.9219  0.0409 -0.3126
18198SOL     OW59150   3.649   2.229   3.466 -0.1871 -0.1152  0.3176
18198SOL    HW159151   3.731   2.181   3.473  0.2551  0.6078  0.2750
18198SOL    HW259152   3.581   2.165   3.485  0.2726 -1.1505 -1.3712
18199SOL     OW59153   4.786   0.576   3.593  0.2645  0.5781 -0.0180
18199SOL    HW159154   4.861   0.570   3.535 -0.5677  2.2649 -1.3500
18199SOL    HW259155   4.802   0.654   3.645 -0.4136  0.7685 -0.0893
18200SOL     OW59156   4.417   9.281   8.557 -0.6219 -0.3967 -0.6111
18200SOL    HW159157   4.368   9.296   8.476  0.3198  1.6203 -0.8756
18200SOL    HW259158   4.509   9.293   8.531 -0.0671 -2.3803  0.2250
18201SOL     OW59159   1.335   1.257   1.708  0.1206  0.4511 -0.3022
18201SOL    HW159160   1.248   1.277   1.743  0.9941  2.2305  1.0624
18201SOL    HW259161   1.371   1.192   1.768  0.0560  0.4086 -0.3108
18202SOL     OW59162  10.625   5.282   1.948  0.1845 -0.0245 -0.4775
18202SOL    HW159163  10.642   5.373   1.925 -0.1785  0.2477  0.3106
18202SOL    HW259164  10.581   5.246   1.871 -1.3469  0.9769 -0.1176
18203SOL     OW59165   3.440   2.550   1.616 -0.0211 -0.1204  0.2307
18203SOL    HW159166   3.485   2.506   1.544  0.8651  0.9687  0.0937
18203SOL    HW259167   3.370   2.489   1.642  0.7171 -1.2695 -0.4118
18204SOL     OW59168   0.681   1.242   7.218 -0.6551  0.1278 -0.9015
18204SOL    HW159169   0.713   1.152   7.215  0.5805  0.4519  0.7319
18204SOL    HW259170   0.651   1.254   7.308 -0.9750  1.2913 -1.1416
18205SOL     OW59171   3.912   6.964   9.079 -0.3323 -0.0260 -0.1312
18205SOL    HW159172   3.839   6.914   9.115 -0.4453  0.1469 -0.1161
18205SOL    HW259173   3.981   6.900   9.064 -0.3069 -0.1125  0.3395
18206SOL     OW59174   5.176   3.053   6.289 -0.3079  0.1137  0.0699
18206SOL    HW159175   5.203   3.132   6.336  1.4500 -0.0463 -0.6121
18206SOL    HW259176   5.094   3.079   6.246 -1.0876  0.7545  1.8612
18207SOL     OW59177  10.095   8.284   7.319 -0.1482  0.4500 -0.4291
18207SOL    HW159178  10.148   8.345   7.267  2.9784 -0.2438  1.7149
18207SOL    HW259179  10.130   8.198   7.298 -1.4046 -0.2073  0.0610
18208SOL     OW59180   1.893   8.705   6.383 -0.3577 -0.1906  0.5011
18208SOL    HW159181   1.899   8.624   6.433 -0.0511 -0.2923  0.3054
18208SOL    HW259182   1.850   8.768   6.442  1.2847  0.1167  1.4248
18209SOL     OW59183   1.482   9.945   5.986  0.7465  0.3561  0.2362
18209SOL    HW159184   1.505   9.990   6.067  0.7881  0.4665  0.1637
18209SOL    HW259185   1.538   9.986   5.920  0.8675  0.1184  0.1912
18210SOL     OW59186   5.700   5.091   8.699 -0.2297  0.9094  0.1058
18210SOL    HW159187   5.694   5.033   8.623 -3.0030  0.0138  0.9067
18210SOL    HW259188   5.781   5.140   8.685  1.6074 -2.2277 -1.2508
18211SOL     OW59189   4.885   2.983   4.563  0.4350  0.1053 -0.5467
18211SOL    HW159190   4.979   2.979   4.585  0.6321  1.1441 -1.1179
18211SOL    HW259191   4.864   3.076   4.570 -0.6962 -0.1797  0.0815
18212SOL     OW59192   7.325   5.931   2.469  0.0892  0.7448  0.2205
18212SOL    HW159193   7.352   6.023   2.477  0.2100  0.7614 -0.3154
18212SOL    HW259194   7.291   5.924   2.379 -0.7939  0.4923  0.5620
18213SOL     OW59195   8.890   3.852   1.838  0.1362 -0.2860 -0.0169
18213SOL    HW159196   8.976   3.810   1.834  1.5409  2.4288 -0.4337
18213SOL    HW259197   8.877   3.889   1.751 -0.4864  1.0832  0.6259
18214SOL     OW59198   0.991   7.592   8.468  0.6310 -0.3604  0.2243
18214SOL    HW159199   0.948   7.677   8.456  0.6825 -0.1723  1.2149
18214SOL    HW259200   1.084   7.611   8.458  0.5914 -0.4581 -0.3439
18215SOL     OW59201  10.961   9.664   6.717  0.2012 -0.1492 -0.5767
18215SOL    HW159202  10.965   9.616   6.635  0.7382 -2.3563  0.6665
18215SOL    HW259203  11.017   9.740   6.704  0.9269 -0.9000 -1.9698
18216SOL     OW59204   2.607  11.150   1.940 -0.1722  0.3013  0.5368
18216SOL    HW159205   2.550  11.093   1.991  1.0456 -0.5872  0.9648
18216SOL    HW259206   2.670  11.184   2.004 -0.8721  2.1529  0.2916
18217SOL     OW59207   2.975   4.088   1.837 -0.7102 -0.5515  0.0641
18217SOL    HW159208   3.064   4.122   1.826 -0.7572 -1.2536 -4.7272
18217SOL    HW259209   2.987   4.008   1.889  1.4304 -0.4520 -0.1743
18218SOL     OW59210   2.997  11.830  11.744  0.0727  0.2109  0.1538
18218SOL    HW159211   2.981  11.916  11.706  0.0649  0.3919  0.5695
18218SOL    HW259212   3.034  11.779  11.672  0.2252  0.6047 -0.0484
18219SOL     OW59213   8.417   3.230   6.997 -0.0504 -0.0324  0.0333
18219SOL    HW159214   8.386   3.163   7.058  0.5095  0.0802  0.4569
18219SOL    HW259215   8.341   3.252   6.943 -0.6584  0.1561  0.9604
18220SOL     OW59216   6.854   7.870   6.154 -0.6556  0.6120 -0.0627
18220SOL    HW159217   6.784   7.806   6.164  1.1072 -1.2920  0.9032
18220SOL    HW259218   6.844   7.902   6.064 -2.3815 -0.0203 -0.1351
18221SOL     OW59219   4.338   0.892  10.438 -0.2386 -0.9524 -0.1274
18221SOL    HW159220   4.305   0.979  10.414  0.7215 -0.5840 -0.1383
18221SOL    HW259221   4.433   0.901  10.437  0.0649 -2.9458 -3.7148
18222SOL     OW59222   7.173   8.354   9.596 -0.5494 -0.6275 -1.0126
18222SOL    HW159223   7.133   8.440   9.608 -2.2516 -1.5577  0.3094
18222SOL    HW259224   7.211   8.333   9.681 -1.8570 -1.9985 -0.7319
18223SOL     OW59225   0.932   7.229   2.821  0.6752 -0.1439 -0.1680
18223SOL    HW159226   0.841   7.261   2.818  0.2342 -1.3684 -0.6432
18223SOL    HW259227   0.981   7.291   2.768  0.0607  0.3915 -0.1210
18224SOL     OW59228   5.067  10.868   4.448 -0.2144  0.0215  0.2069
18224SOL    HW159229   5.046  10.783   4.409 -1.8165  0.1604  0.6872
18224SOL    HW259230   5.147  10.852   4.497  0.3123 -0.8363 -0.8778
18225SOL     OW59231   3.823  10.597   3.985 -0.0170 -0.5026  0.0350
18225SOL    HW159232   3.829  10.504   3.967 -2.4964 -0.7041 -0.1227
18225SOL    HW259233   3.763  10.604   4.059  0.7205  0.9521  0.5462
18226SOL     OW59234   5.162   2.265   6.039 -0.4247 -0.4457  0.1552
18226SOL    HW159235   5.242   2.215   6.055 -0.8400 -0.8427  1.0550
18226SOL    HW259236   5.130   2.288   6.126 -0.8757  0.3815 -0.2148
18227SOL     OW59237   7.599   6.845   8.512  0.0527 -0.0472 -0.6193
18227SOL    HW159238   7.504   6.852   8.503 -0.2242 -0.0388  1.6611
18227SOL    HW259239   7.628   6.933   8.533  0.3842 -0.2623 -0.1376
18228SOL     OW59240   0.624  11.331   8.712  0.2941 -0.0896 -0.1616
18228SOL    HW159241   0.680  11.391   8.664 -0.4029  1.2764  0.6769
18228SOL    HW259242   0.631  11.360   8.803 -1.3996 -0.1924  0.0185
18229SOL     OW59243   7.063   5.800   1.156  0.0369  0.5054 -0.1129
18229SOL    HW159244   7.045   5.893   1.140 -0.3909  0.2864 -0.9543
18229SOL    HW259245   7.079   5.795   1.251 -2.1122  1.0884  0.3277
18230SOL     OW59246   5.269   8.376  10.549  0.0220 -0.0901 -0.7242
18230SOL    HW159247   5.256   8.285  10.524  1.2522 -0.4157 -0.2438
18230SOL    HW259248   5.226   8.385  10.634  1.2036 -0.6569 -0.0369
18231SOL     OW59249  11.490   3.612   4.920  0.2155  0.4089  0.4110
18231SOL    HW159250  11.548   3.648   4.853  1.4560 -0.3709  1.0333
18231SOL    HW259251  11.529   3.527   4.942 -3.0224 -1.7867 -1.5467
18232SOL     OW59252   8.044   1.790   0.815  0.6561 -0.1435  0.8938
18232SOL    HW159253   8.067   1.751   0.731  0.4372  0.7241  0.4189
18232SOL    HW259254   7.955   1.759   0.832  0.5745 -0.0484  0.6434
18233SOL     OW59255   7.294   0.612  11.290  0.0001 -0.2821  0.1063
18233SOL    HW159256   7.237   0.577  11.222 -0.1507  0.9985 -0.4602
18233SOL    HW259257   7.255   0.583  11.373 -0.6169 -0.6697 -0.3177
18234SOL     OW59258   0.838   9.802   3.606  0.0742  0.1471  0.1386
18234SOL    HW159259   0.745   9.821   3.618  0.1237 -0.4413  1.6947
18234SOL    HW259260   0.843   9.707   3.604  0.7353  0.1408  1.1580
18235SOL     OW59261  10.123   1.886  10.480 -0.5896 -0.2480 -0.0749
18235SOL    HW159262  10.073   1.897  10.561  0.2874  1.5359  0.2884
18235SOL    HW259263  10.168   1.970  10.469  1.4235 -1.3837 -0.9783
18236SOL     OW59264   3.895  11.395   7.136 -0.3091  0.1458 -0.2073
18236SOL    HW159265   3.815  11.418   7.088  0.7794 -0.1671 -2.3021
18236SOL    HW259266   3.952  11.472   7.127  0.0623 -0.0671  0.2610
18237SOL     OW59267   9.167   0.848   9.762  0.2390 -0.3442 -0.1699
18237SOL    HW159268   9.110   0.782   9.721  1.2794 -0.6150 -1.2297
18237SOL    HW259269   9.152   0.927   9.711  0.7362 -0.3950 -0.4013
18238SOL     OW59270   6.353   9.094   1.889 -0.6262 -0.3130  0.3191
18238SOL    HW159271   6.297   9.047   1.827  0.2921 -0.4570 -0.4287
18238SOL    HW259272   6.420   9.031   1.913  0.8076  0.6548 -0.9502
18239SOL     OW59273   0.394   6.642  11.885 -0.1853  0.0007  0.5701
18239SOL    HW159274   0.413   6.672  11.974  0.3791  1.6567 -0.0649
18239SOL    HW259275   0.302   6.614  11.888 -0.2146  0.1757  1.6406
18240SOL     OW59276  10.223   8.966   9.181  0.4360 -0.4946  0.4389
18240SOL    HW159277  10.168   9.043   9.197  0.9422  0.6358 -2.4940
18240SOL    HW259278  10.300   8.980   9.236  1.8100  2.6976 -1.9903
18241SOL     OW59279   8.752   4.802   6.410 -0.2343 -0.2975 -0.7946
18241SOL    HW159280   8.766   4.884   6.458  0.7771 -0.3905 -0.8976
18241SOL    HW259281   8.710   4.744   6.474 -1.2018  0.3761 -0.8016
18242SOL     OW59282  10.324  10.295   1.723  0.6423  0.2015 -0.1811
18242SOL    HW159283  10.314  10.212   1.770 -0.2892 -0.1324 -0.9343
18242SOL    HW259284  10.350  10.270   1.635 -3.9615  0.2810 -1.8488
18243SOL     OW59285   9.753   8.091   8.150 -0.3042 -0.4034 -0.2363
18243SOL    HW159286   9.704   8.027   8.098  0.9390 -2.2014  0.7079
18243SOL    HW259287   9.810   8.135   8.086  2.3233 -3.6391 -0.3753
18244SOL     OW59288   5.308  10.985  12.040 -0.4860  0.3558  0.1342
18244SOL    HW159289   5.254  10.917  12.000 -0.9584  1.2102 -0.7044
18244SOL    HW259290   5.398  10.957  12.024 -0.6398 -1.0267  1.4551
18245SOL     OW59291   1.301   8.969   6.637  0.6740 -0.6201  0.1067
18245SOL    HW159292   1.253   9.051   6.630  0.1343 -0.8215  1.1593
18245SOL    HW259293   1.383   8.985   6.592  0.5693  0.4950  0.2773
18246SOL     OW59294   8.524   8.500   5.171 -0.3323  0.1013  0.0117
18246SOL    HW159295   8.579   8.422   5.181 -1.3413 -0.5565  0.5796
18246SOL    HW259296   8.438   8.473   5.202 -0.5811  1.5936  0.7157
18247SOL     OW59297   1.004   9.702   8.141 -0.3457 -0.0553  0.8132
18247SOL    HW159298   1.051   9.752   8.208  0.3995 -1.2603  1.1969
18247SOL    HW259299   1.059   9.627   8.122 -0.6243  0.1517 -1.0479
18248SOL     OW59300   9.375   8.387   7.860 -0.2359  0.5207  0.1770
18248SOL    HW159301   9.302   8.431   7.903 -2.0565 -1.2993 -0.9064
18248SOL    HW259302   9.382   8.430   7.774 -2.4178 -1.4977 -1.1327
18249SOL     OW59303   9.726   5.596   5.538 -0.2874  0.0145 -1.0311
18249SOL    HW159304   9.735   5.567   5.628  0.8152  1.5518 -0.5960
18249SOL    HW259305   9.699   5.518   5.490  1.8991 -1.5763  0.1487
18250SOL     OW59306   7.235  10.528   8.710  0.1862  0.0201 -0.4633
18250SOL    HW159307   7.294  10.600   8.689  0.2989  0.5095  1.3434
18250SOL    HW259308   7.229  10.529   8.806 -3.3647  0.5093 -0.5697
18251SOL     OW59309  12.070   0.837   3.727 -0.3100  0.1768  0.1264
18251SOL    HW159310  12.092   0.872   3.640 -1.3664  0.6473  0.0358
18251SOL    HW259311  12.155   0.826   3.770  0.1261  2.6690  0.0738
18252SOL     OW59312   8.636   0.485  11.984  0.3933 -0.0235  0.1564
18252SOL    HW159313   8.714   0.500  12.038  0.2277 -0.9500  0.6673
18252SOL    HW259314   8.668   0.434  11.910  0.3856  0.1610  0.0251
18253SOL     OW59315  11.351  10.790   5.089 -0.1888  0.5806  0.2098
18253SOL    HW159316  11.312  10.875   5.070  0.1232  0.7139  0.1557
18253SOL    HW259317  11.394  10.764   5.007 -1.5021 -0.3038 -0.2349
18254SOL     OW59318   9.280   4.628   9.217 -0.0632 -0.0025 -0.1538
18254SOL    HW159319   9.204   4.686   9.209  0.5660  0.8783  0.1012
18254SOL    HW259320   9.244   4.540   9.204 -0.7195  0.5536 -2.5903
18255SOL     OW59321   7.181   5.311   5.830 -0.2667 -0.1245 -0.0029
18255SOL    HW159322   7.165   5.309   5.736  0.7821  3.2628 -0.3856
18255SOL    HW259323   7.199   5.220   5.853 -1.3673 -1.1741 -2.8949
18256SOL     OW59324   1.568   3.993   4.793 -0.1686  0.5449 -0.7099
18256SOL    HW159325   1.555   3.941   4.714  0.0579 -0.6207 -0.0176
18256SOL    HW259326   1.621   4.067   4.765 -0.7566  0.5673 -1.7903
18257SOL     OW59327   7.098   9.841   7.644  0.1739  0.4285 -0.2732
18257SOL    HW159328   7.071   9.869   7.731 -2.6168  0.5749 -1.0935
18257SOL    HW259329   7.032   9.777   7.617  1.4270 -0.2316 -1.9534
18258SOL     OW59330   4.424   2.958   6.095  0.0001  0.3826  0.1478
18258SOL    HW159331   4.355   3.025   6.098  0.8187  1.2149  0.7073
18258SOL    HW259332   4.378   2.876   6.117 -1.0017  0.7476 -0.4988
18259SOL     OW59333   0.737   6.081   0.813 -0.5022 -0.0025  0.6077
18259SOL    HW159334   0.651   6.097   0.774 -0.7082  0.0214  1.0598
18259SOL    HW259335   0.755   6.160   0.864  0.2176  0.3935 -0.2441
18260SOL     OW59336  10.880   8.171   3.243  0.3636  0.0919 -0.6398
18260SOL    HW159337  10.835   8.254   3.223  2.4174  2.3392  2.9763
18260SOL    HW259338  10.959   8.174   3.187 -0.7460 -0.7361 -2.3236
18261SOL     OW59339   6.640  10.059   8.611 -0.4598  0.2449 -0.0315
18261SOL    HW159340   6.632   9.965   8.624 -0.7032  0.5007  2.1189
18261SOL    HW259341   6.729  10.072   8.579 -0.8529 -0.7926 -1.6555
18262SOL     OW59342   5.773   3.751  11.483 -0.3987  0.1638 -0.4081
18262SOL    HW159343   5.755   3.696  11.559 -1.3030 -0.1409 -0.8193
18262SOL    HW259344   5.841   3.704  11.435 -0.5777 -0.1889 -0.3248
18263SOL     OW59345   9.099  11.964   7.167  0.0012 -0.0584  0.9656
18263SOL    HW159346   9.123  11.890   7.112 -0.6102 -0.2390  0.9381
18263SOL    HW259347   9.178  11.982   7.219  0.8286  0.5773 -0.4597
18264SOL     OW59348   2.247   0.720   3.664  0.0184 -0.7101  0.3186
18264SOL    HW159349   2.157   0.709   3.634  0.2328 -0.0353 -0.6162
18264SOL    HW259350   2.240   0.776   3.742 -0.4160 -1.2139  0.6470
18265SOL     OW59351   2.786   7.762   8.139  0.9417 -0.0887 -0.4577
18265SOL    HW159352   2.869   7.767   8.091  1.8281  1.6861  1.1050
18265SOL    HW259353   2.790   7.678   8.185  1.4793 -0.4063 -1.0603
18266SOL     OW59354   7.239   2.791   7.467 -0.5229  0.0933  0.2470
18266SOL    HW159355   7.222   2.722   7.404 -0.2745  0.4893 -0.2643
18266SOL    HW259356   7.323   2.767   7.507 -0.2639  0.2684 -0.1776
18267SOL     OW59357   1.016   7.103   1.414 -0.2360  0.3879 -0.3474
18267SOL    HW159358   1.093   7.063   1.455  0.8818  2.0331 -0.7278
18267SOL    HW259359   0.976   7.032   1.364  1.2541 -0.4292 -0.4453
18268SOL     OW59360   7.917   9.760   0.263 -0.4481 -0.1304  0.2531
18268SOL    HW159361   7.916   9.686   0.323  0.5837  1.0956  1.8575
18268SOL    HW259362   7.867   9.828   0.308  0.7056  0.9588 -0.0612
18269SOL     OW59363   9.841   8.770  11.034 -0.0351  0.2161 -0.3279
18269SOL    HW159364   9.922   8.719  11.040  0.6018  1.3851  1.8068
18269SOL    HW259365   9.775   8.714  11.074 -0.0741 -0.3036 -1.0991
18270SOL     OW59366   4.416   6.077  10.086 -0.4955  0.4792  0.3468
18270SOL    HW159367   4.481   6.033  10.141 -1.6172 -0.3656  1.0482
18270SOL    HW259368   4.362   6.006  10.051 -0.4364  1.0862 -1.0446
18271SOL     OW59369   2.666   6.987   6.477 -0.2010 -0.3217  0.1621
18271SOL    HW159370   2.660   6.892   6.491 -1.4899 -0.6320 -1.9928
18271SOL    HW259371   2.760   7.005   6.478  0.0274 -1.3824  1.8047
18272SOL     OW59372  11.196   0.170  12.067 -0.0983  0.7393 -0.0531
18272SOL    HW159373  11.109   0.202  12.089 -0.5498 -0.0823 -0.6061
18272SOL    HW259374  11.243   0.168  12.150 -0.3251  1.9776  0.1326
18273SOL     OW59375   8.567   5.585   7.917 -0.1487 -0.8913  0.4561
18273SOL    HW159376   8.607   5.623   7.839 -2.6543  0.8335 -0.1178
18273SOL    HW259377   8.577   5.490   7.906  0.6063 -0.6457 -1.3251
18274SOL     OW59378  11.365   5.605   1.052 -0.2737 -0.0059 -0.2945
18274SOL    HW159379  11.300   5.673   1.069 -0.4694 -0.5023  1.0613
18274SOL    HW259380  11.438   5.626   1.109 -0.2935 -0.8629  0.0736
18275SOL     OW59381   3.080   4.278   4.449 -0.2670  0.7418  0.1864
18275SOL    HW159382   3.007   4.331   4.416 -0.1392 -0.5767 -2.4378
18275SOL    HW259383   3.154   4.301   4.393 -0.0449 -1.6696 -0.6241
18276SOL     OW59384  11.020   0.072   8.671  0.2613  0.3683 -0.3523
18276SOL    HW159385  10.990   0.054   8.760  1.4589  1.1360  0.2245
18276SOL    HW259386  11.112   0.045   8.670  0.1739  0.0624 -1.4564
18277SOL     OW59387   1.034   6.311   0.105  0.1390 -0.2215 -0.4672
18277SOL    HW159388   1.011   6.363   0.028 -0.7476  1.8296  1.0832
18277SOL    HW259389   1.064   6.375   0.169 -0.0772 -1.7339  1.2287
18278SOL     OW59390   6.250   6.239   9.147  0.3390  0.1879  0.7309
18278SOL    HW159391   6.206   6.167   9.191  2.6189 -1.2867  0.7770
18278SOL    HW259392   6.266   6.207   9.059  0.2003  1.1837  0.3297
18279SOL     OW59393   0.030  11.186   1.098  0.0562  0.2779 -0.4656
18279SOL    HW159394   0.024  11.092   1.084 -2.0893  0.5048 -1.5991
18279SOL    HW259395  -0.028  11.203   1.171  0.2162  0.7503 -0.4449
18280SOL     OW59396   2.753   1.344   4.419 -0.5029 -0.3084  0.5734
18280SOL    HW159397   2.768   1.253   4.396  0.7044 -0.3013  1.2585
18280SOL    HW259398   2.819   1.364   4.485 -0.9582  0.9669  0.6811
18281SOL     OW59399   6.687   1.256  11.049 -0.3037 -0.4478 -0.3146
18281SOL    HW159400   6.768   1.305  11.036 -0.3223 -0.4665 -0.5072
18281SOL    HW259401   6.666   1.221  10.962  0.7840 -2.4614  0.1589
18282SOL     OW59402   4.901   1.607   9.497 -0.0899  0.5780 -0.1380
18282SOL    HW159403   4.894   1.688   9.549 -2.1647  1.1544 -1.1830
18282SOL    HW259404   4.810   1.580   9.484  0.5407 -1.4341 -0.6168
18283SOL     OW59405   4.572   2.242  11.311 -0.1362  0.0965  0.1059
18283SOL    HW159406   4.602   2.176  11.249 -0.3609 -0.1901  0.2971
18283SOL    HW259407   4.478   2.229  11.317 -0.0684 -0.1245  0.7854
18284SOL     OW59408   9.699   7.730   4.091  0.1329 -0.6826  0.2446
18284SOL    HW159409   9.675   7.766   4.005  0.7459 -2.3230 -0.6600
18284SOL    HW259410   9.790   7.758   4.104  0.7980 -2.2696 -0.7156
18285SOL     OW59411   1.848   3.558   5.146 -0.2506 -0.2450  0.4993
18285SOL    HW159412   1.866   3.525   5.058  2.2154  1.6157  0.1940
18285SOL    HW259413   1.896   3.500   5.204  0.3202  0.0977  0.3722
18286SOL     OW59414   8.086   8.218   4.967 -0.0592  0.3090 -0.0074
18286SOL    HW159415   8.065   8.152   5.033  1.1853  0.2554  0.3752
18286SOL    HW259416   8.097   8.168   4.886 -0.9288  0.2878 -0.1155
18287SOL     OW59417   6.060   9.960   9.679  0.6089 -0.1495  0.5069
18287SOL    HW159418   5.994   9.935   9.744  0.8522 -0.4825  0.6282
18287SOL    HW259419   6.136   9.986   9.730  0.1055  1.6494  0.4159
18288SOL     OW59420   8.551   2.993  11.303  0.4754  0.2242  0.4457
18288SOL    HW159421   8.520   2.903  11.307 -0.2422  0.4432  0.0918
18288SOL    HW259422   8.567   3.009  11.209  2.2850 -0.0688  0.6598
18289SOL     OW59423   5.690   6.047   6.604 -0.1304 -0.1528 -0.0162
18289SOL    HW159424   5.705   6.137   6.573 -0.2699 -0.0641  0.1742
18289SOL    HW259425   5.625   6.056   6.673 -0.1074 -0.3968  0.0372
18290SOL     OW59426   8.883   2.434   1.144  0.6056 -0.5421 -0.2648
18290SOL    HW159427   8.834   2.429   1.062 -0.2126 -1.1437  0.2435
18290SOL    HW259428   8.910   2.526   1.150  0.8592 -0.5343 -1.2954
18291SOL     OW59429   3.038   0.687   9.346  0.3887 -0.1321  0.5448
18291SOL    HW159430   2.968   0.751   9.335 -0.0015 -0.8289 -1.5872
18291SOL    HW259431   3.031   0.631   9.269  2.4207 -1.0830  0.9820
18292SOL     OW59432   4.234   3.572   9.786  0.1845 -0.8404 -0.4658
18292SOL    HW159433   4.185   3.501   9.826  0.0046 -1.7052 -2.1318
18292SOL    HW259434   4.219   3.647   9.843 -2.1951 -1.3430 -0.3416
18293SOL     OW59435   0.643   5.437   4.924  0.0955  0.3452  0.1995
18293SOL    HW159436   0.610   5.355   4.888  2.0482 -1.6847  2.6918
18293SOL    HW259437   0.734   5.441   4.897  0.0440  1.7368  0.1292
18294SOL     OW59438   5.725  10.023   6.136 -0.2608 -0.3382  0.3926
18294SOL    HW159439   5.755   9.973   6.212 -0.2734 -0.2852  0.4328
18294SOL    HW259440   5.805  10.044   6.087 -0.2841 -0.6571  0.2146
18295SOL     OW59441   0.072   4.993   8.176 -0.3142  0.6031 -0.1701
18295SOL    HW159442   0.023   4.915   8.200 -0.0929 -0.0113 -1.6277
18295SOL    HW259443   0.099   5.032   8.260 -0.1261 -1.0635  0.5752
18296SOL     OW59444   6.929   9.810   3.338  0.0848  0.6350  0.0036
18296SOL    HW159445   6.856   9.837   3.282 -0.6807  0.9442  1.1137
18296SOL    HW259446   6.898   9.730   3.381  0.5766  0.5112  0.1340
18297SOL     OW59447   0.267   4.099  10.545 -0.1630  0.4121  0.7063
18297SOL    HW159448   0.186   4.131  10.583 -1.2803 -0.2617 -0.9659
18297SOL    HW259449   0.260   4.003  10.552  0.0230  0.3134 -0.2754
18298SOL     OW59450   2.708  10.168  11.620  0.0369  0.6386  0.4405
18298SOL    HW159451   2.721  10.098  11.685 -1.6700  0.5340  0.7216
18298SOL    HW259452   2.703  10.122  11.537 -0.1396  0.5244  0.5136
18299SOL     OW59453   8.840   2.227   3.504  0.0575 -0.8061 -0.4927
18299SOL    HW159454   8.824   2.162   3.572  0.9925 -0.9725 -0.4267
18299SOL    HW259455   8.794   2.305   3.535 -0.8316 -1.3420 -0.4362
18300SOL     OW59456   9.232   5.770  11.307  0.2838 -0.3277 -0.6417
18300SOL    HW159457   9.171   5.761  11.379  1.2769  0.4569  0.3350
18300SOL    HW259458   9.182   5.816  11.239  0.1928  1.7736  0.7342
18301SOL     OW59459   6.529   3.844   7.647 -0.0295  0.7838  0.0309
18301SOL    HW159460   6.597   3.888   7.697  0.0283  0.4801  0.2177
18301SOL    HW259461   6.542   3.874   7.557  2.5755 -1.9270 -0.6370
18302SOL     OW59462   8.003   3.205  10.037 -0.1387  0.3181 -0.4668
18302SOL    HW159463   7.944   3.253  10.096  0.3150  1.6450 -1.0484
18302SOL    HW259464   7.946   3.149   9.986 -0.7167  0.3982  0.0774
18303SOL     OW59465   8.999   9.265   5.460  0.3419 -0.1208  0.0034
18303SOL    HW159466   8.940   9.273   5.535 -1.2638 -1.3382 -1.0781
18303SOL    HW259467   8.985   9.345   5.410 -1.1424 -0.8218 -0.7405
18304SOL     OW59468   2.511   6.653  10.096 -0.2752  0.1669 -0.3635
18304SOL    HW159469   2.602   6.644  10.069 -0.1960 -0.7641  0.2035
18304SOL    HW259470   2.500   6.591  10.168 -1.1851  0.7381  0.0115
18305SOL     OW59471  11.631   0.662   6.105  0.0843  0.2660 -0.0590
18305SOL    HW159472  11.660   0.574   6.129 -0.3591 -0.2040 -1.1860
18305SOL    HW259473  11.697   0.721   6.142 -0.2011 -0.4445  1.6956
18306SOL     OW59474   4.623   7.532   8.337 -0.4309 -0.7866  0.0893
18306SOL    HW159475   4.614   7.584   8.257 -0.2097  0.3672  0.7846
18306SOL    HW259476   4.538   7.490   8.348 -1.2719  0.9381  0.5047
18307SOL     OW59477   4.336   7.499   4.211 -0.1885  0.0974 -0.1944
18307SOL    HW159478   4.406   7.450   4.168  0.5075  0.8133  0.1011
18307SOL    HW259479   4.276   7.432   4.243  0.2316 -0.5156 -0.6650
18308SOL     OW59480   5.305  10.720   2.786  0.1238 -0.2605  0.2824
18308SOL    HW159481   5.338  10.761   2.706  0.5549  0.6143  0.8948
18308SOL    HW259482   5.212  10.706   2.769 -0.0461  1.0113  0.0557
18309SOL     OW59483   5.746   1.658   0.590  0.1470 -0.7322 -0.0319
18309SOL    HW159484   5.763   1.649   0.683 -2.1509  0.2745  0.5570
18309SOL    HW259485   5.747   1.753   0.575 -0.6168 -0.8314 -0.7825
18310SOL     OW59486  10.432   8.398   1.437  0.3629 -0.2910 -0.0516
18310SOL    HW159487  10.432   8.304   1.416 -0.5709 -0.6529  1.4201
18310SOL    HW259488  10.462   8.440   1.356  0.3177 -1.8163 -0.9149
18311SOL     OW59489   7.755  11.088   8.223  0.0462  0.1780 -0.1188
18311SOL    HW159490   7.734  11.181   8.219 -1.4880  0.0428  2.6484
18311SOL    HW259491   7.851  11.085   8.231  0.1530  1.4577 -0.7113
18312SOL     OW59492   1.649   7.763   7.427  0.1064  0.2366 -0.1936
18312SOL    HW159493   1.608   7.823   7.490  1.5093  2.6097 -1.4125
18312SOL    HW259494   1.715   7.716   7.477  1.0409  1.9243  0.2275
18313SOL     OW59495   9.025   7.292   1.567  0.2216  0.3908  0.7166
18313SOL    HW159496   8.951   7.351   1.582  0.6281  0.7477  1.4068
18313SOL    HW259497   9.080   7.303   1.644  1.1906  0.4264  0.0455
18314SOL     OW59498   1.824   0.351   2.169 -0.0307  0.0222 -0.2792
18314SOL    HW159499   1.909   0.394   2.158  0.3882 -0.8405 -0.4353
18314SOL    HW259500   1.839   0.286   2.238 -0.7217  0.2701  0.1180
18315SOL     OW59501   8.685   1.248   9.505 -0.0338 -0.2462  0.0152
18315SOL    HW159502   8.606   1.204   9.535  0.5175 -3.1878 -2.4048
18315SOL    HW259503   8.666   1.272   9.414  1.7627 -0.9401 -0.5870
18316SOL     OW59504   0.073  10.306   0.105 -0.4888  0.3571  0.0242
18316SOL    HW159505  -0.014  10.289   0.142 -1.2838 -0.4719 -2.0551
18316SOL    HW259506   0.058  10.311   0.011  1.7989 -0.2271 -0.4315
18317SOL     OW59507   2.647   2.324   5.382  0.2026 -0.0851  0.7679
18317SOL    HW159508   2.651   2.257   5.313 -1.9547  0.3567  0.1185
18317SOL    HW259509   2.681   2.403   5.340 -1.8769  0.3969 -0.1836
18318SOL     OW59510   3.931   2.136   7.212  0.3075 -0.5860  0.1384
18318SOL    HW159511   4.021   2.132   7.182  0.8999  1.1746  1.4989
18318SOL    HW259512   3.899   2.047   7.205  2.6252 -1.5638  0.9797
18319SOL     OW59513   3.335   2.923   6.512 -0.6042 -0.4503 -0.2475
18319SOL    HW159514   3.266   2.967   6.561 -0.4494 -1.2092  0.6952
18319SOL    HW259515   3.294   2.843   6.479 -0.5068 -0.2996 -0.7346
18320SOL     OW59516   1.597   8.389  11.242  0.3604  0.5512  0.0490
18320SOL    HW159517   1.642   8.308  11.266 -0.6327 -0.2333 -0.6224
18320SOL    HW259518   1.589   8.385  11.147 -3.2988 -0.6463  0.2427
18321SOL     OW59519   1.282  10.035   0.219  0.7597  0.2997 -0.1252
18321SOL    HW159520   1.256   9.980   0.145 -0.0830  1.7953 -1.0078
18321SOL    HW259521   1.219  10.015   0.287  0.5731  0.0287 -0.3758
18322SOL     OW59522   2.232   2.553   2.453 -0.2474  0.1176  0.1771
18322SOL    HW159523   2.224   2.606   2.533 -1.5714  1.3058 -0.6994
18322SOL    HW259524   2.147   2.509   2.445 -0.9292  1.6321 -1.6380
18323SOL     OW59525   4.710   0.190   5.793  0.6088 -0.3366 -0.2491
18323SOL    HW159526   4.761   0.213   5.870  1.7289  0.1754 -1.1017
18323SOL    HW259527   4.776   0.179   5.724 -0.4737  1.2282 -1.6197
18324SOL     OW59528   3.003   5.164   8.981 -0.3499 -0.1877  0.1052
18324SOL    HW159529   3.009   5.101   8.910  0.0714  1.2057 -1.1411
18324SOL    HW259530   2.965   5.242   8.942 -0.3229  0.5487  1.4619
18325SOL     OW59531   7.042   3.120   9.333  0.1256 -0.7758  0.8560
18325SOL    HW159532   7.045   3.042   9.277 -1.9859 -1.8226  2.0885
18325SOL    HW259533   6.954   3.155   9.322  0.5581  0.5976  1.4881
18326SOL     OW59534   7.545  11.006  12.008 -0.1258  0.1302  0.2441
18326SOL    HW159535   7.558  11.084  11.954  0.8053  0.7106  1.2674
18326SOL    HW259536   7.526  10.936  11.945 -1.0100  1.1745 -0.6816
18327SOL     OW59537   8.210   8.130   0.407 -0.0773 -0.4532 -0.0397
18327SOL    HW159538   8.235   8.050   0.360 -0.8804 -0.1627 -1.0177
18327SOL    HW259539   8.178   8.188   0.338 -1.6857 -0.1539  0.8907
18328SOL     OW59540   9.135  10.595   3.020 -0.2897  0.9474 -0.1614
18328SOL    HW159541   9.200  10.617   2.953 -0.7990  0.1523 -0.9413
18328SOL    HW259542   9.103  10.508   2.994 -0.1666  0.4234  1.3771
18329SOL     OW59543  11.506   1.582   9.009  0.0574  0.7952  0.5979
18329SOL    HW159544  11.454   1.510   8.974  0.0566  1.1576 -0.1649
18329SOL    HW259545  11.464   1.604   9.092 -1.6216  1.7375 -0.4540
18330SOL     OW59546  11.663   2.312   6.768 -0.4052 -0.0755 -0.0777
18330SOL    HW159547  11.697   2.383   6.823 -0.6858  0.9749 -1.2157
18330SOL    HW259548  11.723   2.239   6.784 -0.5040  0.1682  1.6455
18331SOL     OW59549   0.636   0.462   1.864 -0.2561 -0.8965 -0.2235
18331SOL    HW159550   0.720   0.480   1.822 -0.7001 -0.4492 -0.9327
18331SOL    HW259551   0.625   0.533   1.927 -0.4274 -0.5579 -0.6312
18332SOL     OW59552   9.252   8.331   6.157 -0.2600 -0.6101  0.2054
18332SOL    HW159553   9.325   8.367   6.208 -0.3321 -1.2905  0.8027
18332SOL    HW259554   9.175   8.345   6.212 -0.2510 -1.9032  0.5745
18333SOL     OW59555  11.317   8.215  11.205 -0.7704  0.2006 -0.2879
18333SOL    HW159556  11.240   8.261  11.238 -1.4822 -0.5748 -0.8219
18333SOL    HW259557  11.329   8.247  11.116 -1.5171 -0.9077 -0.8108
18334SOL     OW59558   7.379   2.326   0.179 -0.3768  0.1072 -0.0906
18334SOL    HW159559   7.321   2.374   0.121 -0.2081 -1.0848 -1.2999
18334SOL    HW259560   7.467   2.343   0.145 -0.2805 -0.6791 -0.2623
18335SOL     OW59561   5.850   8.320   0.214 -0.4303  0.0195 -0.4629
18335SOL    HW159562   5.823   8.290   0.127 -0.1721 -0.4610 -0.3801
18335SOL    HW259563   5.802   8.264   0.275  0.5694 -0.7053 -0.3132
18336SOL     OW59564  11.860   9.915   8.510  0.4943  0.3991  0.2530
18336SOL    HW159565  11.777   9.874   8.533 -0.0851  0.1086 -2.0908
18336SOL    HW259566  11.919   9.841   8.495  0.7188  0.5638  0.3181
18337SOL     OW59567   1.467   1.280   8.187  0.3998 -0.2953  0.7951
18337SOL    HW159568   1.493   1.372   8.184 -2.9982  0.8311  0.9636
18337SOL    HW259569   1.426   1.269   8.272  0.2434 -1.8397  0.5595
18338SOL     OW59570   2.058   1.237   1.460  0.2390  0.7514  0.3724
18338SOL    HW159571   2.017   1.177   1.398  0.1179  0.6107  0.5900
18338SOL    HW259572   2.096   1.305   1.405  0.2612  0.5474  0.1324
18339SOL     OW59573   4.082   1.290   8.738  0.6010 -0.6894  0.0798
18339SOL    HW159574   4.063   1.339   8.818  0.8388  0.3496 -0.4829
18339SOL    HW259575   4.046   1.345   8.667  0.8314 -1.3483 -0.5594
18340SOL     OW59576   1.174  11.173   6.864 -0.1169  0.1583  0.2968
18340SOL    HW159577   1.205  11.100   6.811  0.5096  2.3595 -2.6107
18340SOL    HW259578   1.253  11.221   6.887 -0.5600  0.2383  1.7867
18341SOL     OW59579  11.283   8.012   0.879 -0.6319 -0.9383 -0.0318
18341SOL    HW159580  11.204   7.993   0.930 -0.2565 -2.1032  0.1516
18341SOL    HW259581  11.320   7.926   0.860  1.2200 -0.3812  0.8507
18342SOL     OW59582  11.865   3.466   5.849 -0.5025 -0.0433 -0.1793
18342SOL    HW159583  11.787   3.429   5.891 -0.0220 -0.6964  0.1355
18342SOL    HW259584  11.837   3.482   5.758 -0.8933 -0.6322 -0.1696
18343SOL     OW59585   3.770   6.554   4.259  0.1567 -0.2078 -0.8819
18343SOL    HW159586   3.707   6.559   4.331  0.3295  1.0371 -0.7919
18343SOL    HW259587   3.738   6.484   4.203 -1.3148  0.3878 -0.8245
18344SOL     OW59588   6.337  11.312   6.104 -0.4467  0.1333  0.5645
18344SOL    HW159589   6.429  11.309   6.128  0.0636 -1.9318 -1.2150
18344SOL    HW259590   6.332  11.260   6.023 -2.9145  1.5457 -0.3121
18345SOL     OW59591  11.573  10.978   3.401 -0.1476 -0.1264  0.3643
18345SOL    HW159592  11.576  10.882   3.396 -0.6864 -0.1208 -0.1109
18345SOL    HW259593  11.550  10.996   3.493  0.2948 -0.4430  0.5400
18346SOL     OW59594   5.096  10.625   7.606 -0.7398  0.2461  0.2158
18346SOL    HW159595   5.095  10.565   7.532 -0.3562 -2.5743  2.2989
18346SOL    HW259596   5.179  10.671   7.599 -0.7341  0.0572 -1.1151
18347SOL     OW59597   8.576   1.289   3.258 -0.6838 -0.1482 -0.1395
18347SOL    HW159598   8.647   1.228   3.275  1.1110  1.1464 -2.3990
18347SOL    HW259599   8.506   1.236   3.220 -0.0647 -1.1134  0.0416
18348SOL     OW59600   8.356   6.219   6.586 -0.5957 -0.2520 -0.1448
18348SOL    HW159601   8.395   6.279   6.522  0.0509  0.4902  0.9154
18348SOL    HW259602   8.313   6.276   6.649 -0.0344 -0.9045  0.8398
18349SOL     OW59603   4.424   3.700   6.261  0.5642 -0.4104 -0.2487
18349SOL    HW159604   4.330   3.708   6.251  0.4774 -1.6269 -0.5626
18349SOL    HW259605   4.461   3.769   6.205 -0.0774 -2.2893 -3.1577
18350SOL     OW59606   1.930  10.717   5.898  0.4815 -0.2475  0.0941
18350SOL    HW159607   1.956  10.807   5.879 -0.8749  0.3077  0.7054
18350SOL    HW259608   1.952  10.668   5.818  1.2006  0.6221 -0.2556
18351SOL     OW59609   9.151  11.899   4.263 -0.4271 -0.0451  0.1156
18351SOL    HW159610   9.154  11.810   4.298  1.0169  0.6115  1.8023
18351SOL    HW259611   9.059  11.925   4.271 -1.5216 -2.3310 -3.1255
18352SOL     OW59612  11.491   9.733   2.467 -0.1585 -0.1744  0.1312
18352SOL    HW159613  11.585   9.721   2.455 -0.0914  1.3825 -1.5050
18352SOL    HW259614  11.483   9.792   2.542  0.4359  2.0756 -1.4434
18353SOL     OW59615   5.596   6.991   6.797 -0.3503  0.6407 -0.2244
18353SOL    HW159616   5.529   7.018   6.859  1.2773 -0.6878  2.2826
18353SOL    HW259617   5.637   7.073   6.769  0.2680  1.2540  2.2034
18354SOL     OW59618   0.134   9.496   8.129 -0.2071 -0.8747  0.0907
18354SOL    HW159619   0.162   9.587   8.143 -0.8300 -0.7453  0.5640
18354SOL    HW259620   0.181   9.446   8.195 -0.9779 -0.6696  0.8232
18355SOL     OW59621   0.828   4.343   9.592 -0.0141 -0.0512 -0.8128
18355SOL    HW159622   0.804   4.252   9.577  0.8983 -0.6505  1.0078
18355SOL    HW259623   0.749   4.382   9.631  0.0448 -0.4612 -0.2655
18356SOL     OW59624   5.141   9.322   3.197  0.8355  0.3388  0.5357
18356SOL    HW159625   5.157   9.232   3.225  1.6664  0.9372  2.1297
18356SOL    HW259626   5.101   9.314   3.111  1.7740 -1.5233  0.2294
18357SOL     OW59627   3.689   5.061   4.196 -0.3460 -0.0429  0.7355
18357SOL    HW159628   3.742   5.040   4.273  0.2037  0.3093  0.4543
18357SOL    HW259629   3.611   5.104   4.233 -1.1115 -1.7977  1.2490
18358SOL     OW59630   4.022   7.306   6.294  0.1332  0.0326 -0.4002
18358SOL    HW159631   3.931   7.279   6.301 -0.2151  1.4172  0.7093
18358SOL    HW259632   4.053   7.315   6.384  0.6014  1.9803 -0.7036
18359SOL     OW59633   7.365   4.376   4.138  0.5686  0.1812 -0.5101
18359SOL    HW159634   7.300   4.382   4.208 -0.3793 -0.7919 -1.2762
18359SOL    HW259635   7.357   4.459   4.091  0.8813  0.6453  0.2351
18360SOL     OW59636   9.456   9.254  10.216  0.0845  0.0187  0.2385
18360SOL    HW159637   9.525   9.321  10.212  0.7061 -0.6492 -2.2617
18360SOL    HW259638   9.426   9.246  10.125 -1.2342 -1.7980  0.7930
18361SOL     OW59639   0.351   4.349  10.071  0.0860 -0.0819  0.0532
18361SOL    HW159640   0.376   4.257  10.079  0.8830  0.2763  2.6999
18361SOL    HW259641   0.395   4.393  10.144 -2.1505  1.9727  0.3164
18362SOL     OW59642   6.882  11.838   3.365 -0.3554 -0.3149  0.2352
18362SOL    HW159643   6.956  11.886   3.329  0.7760 -0.7913  1.8061
18362SOL    HW259644   6.915  11.748   3.375 -0.1144  0.0112  3.5078
18363SOL     OW59645   2.649   0.289   4.193  0.2602 -0.8569  0.0927
18363SOL    HW159646   2.706   0.239   4.252  0.7346  0.5970  0.9208
18363SOL    HW259647   2.637   0.373   4.237 -0.2808 -0.1281 -1.3832
18364SOL     OW59648  10.826   5.207   4.443  0.4976  0.4355  0.3695
18364SOL    HW159649  10.805   5.295   4.410 -0.0486  0.7440  1.5159
18364SOL    HW259650  10.896   5.177   4.385 -0.2838  1.0370 -0.9476
18365SOL     OW59651  10.817   3.619   1.078  0.0151  0.1885 -0.0610
18365SOL    HW159652  10.885   3.565   1.038 -0.4684  0.3101 -1.0893
18365SOL    HW259653  10.776   3.665   1.004 -0.7365  0.6291  0.6071
18366SOL     OW59654   9.886   3.182   7.772 -0.5396  1.0061 -0.5226
18366SOL    HW159655   9.874   3.112   7.836  0.7753 -0.2512 -1.5954
18366SOL    HW259656   9.871   3.262   7.822  1.4450  0.1348  1.6642
18367SOL     OW59657  10.587  10.837  10.939 -0.4281  0.3521 -0.1274
18367SOL    HW159658  10.502  10.821  10.980 -0.5113 -0.6643 -0.6470
18367SOL    HW259659  10.651  10.808  11.004 -0.5371 -0.4366 -0.3555
18368SOL     OW59660   4.015  10.546  10.382  0.1347  0.1994  0.5216
18368SOL    HW159661   4.054  10.483  10.442  0.0024 -0.1773  0.2173
18368SOL    HW259662   3.977  10.492  10.313  0.0969  0.6178  0.2140
18369SOL     OW59663  11.955   6.081   3.987  0.3217 -0.0864  0.3161
18369SOL    HW159664  11.894   6.017   3.950 -1.1849  0.8657  1.0548
18369SOL    HW259665  11.900   6.155   4.012  1.6894  0.5425  1.6330
18370SOL     OW59666   8.001   2.417   1.839 -0.1511  0.5315  0.3190
18370SOL    HW159667   7.993   2.387   1.929 -3.1181  1.7055  0.5673
18370SOL    HW259668   8.000   2.513   1.844  0.1998  0.6268 -0.9213
18371SOL     OW59669   8.323  10.032   6.638  0.0418  0.5639 -0.2346
18371SOL    HW159670   8.400  10.040   6.696  1.7499 -2.2656 -1.8604
18371SOL    HW259671   8.269   9.965   6.680 -0.2547  0.7137 -0.3773
18372SOL     OW59672   9.920  10.017   8.619  0.1696 -0.6606  0.2783
18372SOL    HW159673   9.942   9.946   8.679  0.9299  0.2606  1.1220
18372SOL    HW259674   9.950  10.096   8.663 -1.1631  0.2594 -0.3833
18373SOL     OW59675   3.429   0.324   4.792  0.2865  0.0907 -0.2071
18373SOL    HW159676   3.358   0.385   4.811  0.2723 -0.2745  1.0442
18373SOL    HW259677   3.399   0.240   4.826  0.8036 -0.3476 -0.8012
18374SOL     OW59678   3.353   5.483   8.171 -0.5407  0.6188 -0.4211
18374SOL    HW159679   3.400   5.433   8.105 -1.9160  1.8634 -2.4514
18374SOL    HW259680   3.261   5.465   8.155 -0.9703  2.0152  0.2420
18375SOL     OW59681   8.784   2.911  10.796  0.1361  0.7778  0.6735
18375SOL    HW159682   8.724   2.838  10.786 -0.1075  0.9665  0.7385
18375SOL    HW259683   8.780   2.932  10.889  0.3627  0.7405  0.6920
18376SOL     OW59684   0.845  10.488   9.143 -0.1241  0.7112  0.1251
18376SOL    HW159685   0.871  10.396   9.138 -0.2214  0.6074  1.2665
18376SOL    HW259686   0.841  10.507   9.237  1.3325  2.2991 -0.0912
18377SOL     OW59687   3.724   1.868  10.984  0.8851  0.0366  0.1064
18377SOL    HW159688   3.641   1.822  10.972  1.0960 -0.5672  0.9096
18377SOL    HW259689   3.776   1.811  11.040  2.8364 -0.8106 -2.3781
18378SOL     OW59690   6.520   7.551   6.636  0.2189  0.2233  0.1274
18378SOL    HW159691   6.475   7.472   6.665 -0.1083  0.3118 -0.1283
18378SOL    HW259692   6.498   7.617   6.702  1.0096 -0.0569  0.6840
18379SOL     OW59693   1.941  11.358   8.512  0.6429 -0.1902  0.2434
18379SOL    HW159694   2.009  11.407   8.466 -0.4183 -0.7875 -2.0745
18379SOL    HW259695   1.861  11.373   8.462 -1.0239  0.4687  2.8551
18380SOL     OW59696   4.481   4.059   5.123  0.1806 -0.0900  0.2476
18380SOL    HW159697   4.402   4.006   5.113 -0.2301  0.7539 -1.2495
18380SOL    HW259698   4.548   4.010   5.075 -0.0130  0.3464 -0.4788
18381SOL     OW59699   8.285   8.528   8.428  0.2641  0.2770  0.0561
18381SOL    HW159700   8.287   8.623   8.416  0.0591  0.1412 -1.1714
18381SOL    HW259701   8.363   8.509   8.481  0.9253  1.0011 -0.6360
18382SOL     OW59702   6.956   3.836  11.328  0.5226  0.6162 -0.5256
18382SOL    HW159703   6.875   3.808  11.286  1.2386 -1.2805 -0.7258
18382SOL    HW259704   7.007   3.875  11.257 -0.5482  2.7393 -0.2109
18383SOL     OW59705   7.549   0.672   4.940  0.2621 -0.7795  0.1823
18383SOL    HW159706   7.460   0.688   4.972  0.4079  1.3907 -0.3982
18383SOL    HW259707   7.546   0.694   4.847  1.6519  0.4689  0.3982
18384SOL     OW59708   4.108   6.264   6.925  0.7443 -0.3611 -0.6513
18384SOL    HW159709   4.102   6.169   6.939  0.1282 -0.1551  0.5746
18384SOL    HW259710   4.131   6.300   7.010  0.4272  0.6389 -0.9739
18385SOL     OW59711   0.262  10.912   5.098  0.3498 -0.5485 -0.1855
18385SOL    HW159712   0.285  10.909   5.191 -1.7124 -2.3094  0.3660
18385SOL    HW259713   0.168  10.931   5.098  0.5010  0.3849 -1.9860
18386SOL     OW59714  10.466   9.038  11.029 -0.1406  0.1651  0.3326
18386SOL    HW159715  10.471   9.117  10.974 -0.2380 -0.2761 -0.3219
18386SOL    HW259716  10.449   9.071  11.117 -1.0740  0.8330 -0.0856
18387SOL     OW59717   5.780   7.170   1.601  0.2203  0.1673  0.1244
18387SOL    HW159718   5.718   7.097   1.600  0.2792  0.1185 -1.5298
18387SOL    HW259719   5.726   7.248   1.590  0.3524  0.2163 -0.1760
18388SOL     OW59720   0.758   5.433   8.093 -0.1243  0.4247 -0.2927
18388SOL    HW159721   0.691   5.501   8.084 -1.8589 -1.0196  0.9794
18388SOL    HW259722   0.770   5.424   8.188  0.8402 -0.3447 -0.4722
18389SOL     OW59723   4.886  12.111   6.653 -0.3101  0.2155 -0.0798
18389SOL    HW159724   4.896  12.203   6.679  0.0901  0.3467 -0.6837
18389SOL    HW259725   4.791  12.098   6.649 -0.3904  0.1888  1.4076
18390SOL     OW59726   0.000   4.307   5.470 -0.2406  0.2678  0.8683
18390SOL    HW159727  -0.031   4.217   5.468 -1.6109  0.7316  0.3785
18390SOL    HW259728  -0.057   4.351   5.534 -0.2664  1.0138  0.3461
18391SOL     OW59729   1.755   3.822   9.853 -1.0322  0.2489  0.0195
18391SOL    HW159730   1.824   3.766   9.889 -0.1430 -0.1489 -2.1228
18391SOL    HW259731   1.675   3.770   9.862 -0.7205 -0.1220  0.7266
18392SOL     OW59732  10.438   3.011   5.236  0.1381  0.2570  0.0482
18392SOL    HW159733  10.382   3.064   5.179 -1.1387  0.0466  1.0575
18392SOL    HW259734  10.439   2.925   5.194  0.4177  0.4836 -0.4260
18393SOL     OW59735   3.460   3.327   6.005  0.1432  0.1747  0.0795
18393SOL    HW159736   3.456   3.422   6.009  1.4474  0.2621 -0.1804
18393SOL    HW259737   3.378   3.301   5.963 -0.4851  1.1369  0.6806
18394SOL     OW59738   4.208   3.618   1.766 -0.2458  0.3786  0.3238
18394SOL    HW159739   4.281   3.680   1.767  0.2417 -0.1884  0.7245
18394SOL    HW259740   4.237   3.547   1.708  0.2885 -0.7298  1.8777
18395SOL     OW59741   5.242   3.375   6.095  0.3741  0.1421  0.2605
18395SOL    HW159742   5.330   3.336   6.092  0.4147  0.2442  0.1217
18395SOL    HW259743   5.186   3.310   6.053  0.5678  0.5718 -0.6729
18396SOL     OW59744   0.520   3.935   6.750  0.1221 -0.0537 -0.1333
18396SOL    HW159745   0.516   4.026   6.722 -1.8936 -0.1547 -0.3523
18396SOL    HW259746   0.543   3.886   6.671 -0.7085  0.1094 -0.4872
18397SOL     OW59747   5.795   5.994   9.018  0.0269 -0.4459 -0.2880
18397SOL    HW159748   5.734   5.924   8.998 -0.0753 -0.2300 -0.7627
18397SOL    HW259749   5.762   6.033   9.099  0.1309 -0.9886  0.0223
18398SOL     OW59750   0.253  11.321  10.584 -0.3760  0.5017 -0.0233
18398SOL    HW159751   0.281  11.279  10.666  0.0067  0.6656 -0.0689
18398SOL    HW259752   0.185  11.264  10.550  1.3942 -1.1160 -1.0332
18399SOL     OW59753  12.011   1.332   7.902  0.0960  0.6752  0.1376
18399SOL    HW159754  11.954   1.379   7.841 -0.2615 -0.5474 -0.5099
18399SOL    HW259755  12.094   1.381   7.900 -0.3510  1.4330 -0.2905
18400SOL     OW59756   9.333   8.955  10.780 -0.1350  0.3039  0.1129
18400SOL    HW159757   9.351   8.882  10.721 -1.0342  0.8010 -0.8052
18400SOL    HW259758   9.405   8.953  10.843 -0.3000 -1.5535  0.2903
18401SOL     OW59759   2.916  11.440   5.779  0.2200 -0.6766 -0.6913
18401SOL    HW159760   2.973  11.410   5.849  0.5800  0.4407 -0.4890
18401SOL    HW259761   2.830  11.451   5.821  0.7006  1.1586 -0.0911
18402SOL     OW59762   1.032   7.669   7.110  0.0351  0.5445 -0.2048
18402SOL    HW159763   0.969   7.730   7.071  0.2298  0.3532 -0.8413
18402SOL    HW259764   1.074   7.718   7.180  0.0396  1.0760 -0.5755
18403SOL     OW59765   6.687   7.722   5.871  0.1625  0.1313 -0.2808
18403SOL    HW159766   6.731   7.799   5.835 -0.6338  0.4581 -0.5950
18403SOL    HW259767   6.661   7.748   5.959  0.4015  0.0243 -0.1808
18404SOL     OW59768   4.527   3.091   1.517 -0.4183 -0.0774 -0.2803
18404SOL    HW159769   4.537   3.085   1.422  1.3239  0.4093 -0.1604
18404SOL    HW259770   4.604   3.045   1.552  0.5019  2.1984  0.8488
18405SOL     OW59771  10.799  11.578   2.166  0.0325 -0.2040  0.0448
18405SOL    HW159772  10.761  11.549   2.084 -0.7674  0.8535  0.0094
18405SOL    HW259773  10.736  11.643   2.200  0.1844 -0.8360  1.6351
18406SOL     OW59774   5.185  10.224   1.455 -0.7484  0.4828 -0.4717
18406SOL    HW159775   5.242  10.203   1.529  0.5316 -0.4391 -1.6753
18406SOL    HW259776   5.195  10.318   1.443  0.8706  0.2773 -0.9209
18407SOL     OW59777  11.551   7.433   3.767  0.0762 -0.3727 -0.0636
18407SOL    HW159778  11.544   7.528   3.769 -2.3954 -0.5174  0.5689
18407SOL    HW259779  11.561   7.412   3.674 -2.2693  0.4024 -0.5539
18408SOL     OW59780   7.603   1.889   0.038 -0.1697 -0.2336  0.1273
18408SOL    HW159781   7.577   1.943  -0.036 -1.6560  1.5381  1.8207
18408SOL    HW259782   7.574   1.801   0.015 -0.4861  0.2418 -1.4194
18409SOL     OW59783   4.465   1.186  10.621 -0.2060 -0.3223 -0.3127
18409SOL    HW159784   4.409   1.264  10.619 -0.7219 -0.6869 -0.1975
18409SOL    HW259785   4.546   1.214  10.578 -0.7792 -0.0212 -1.2263
18410SOL     OW59786   3.431   7.811   6.620 -0.6121 -0.2557 -0.4339
18410SOL    HW159787   3.397   7.873   6.555 -0.2148  0.3221 -0.0929
18410SOL    HW259788   3.364   7.808   6.688  0.0357  0.9595  0.2871
18411SOL     OW59789   8.604   5.345   0.539  0.6039 -0.4713  0.1304
18411SOL    HW159790   8.534   5.407   0.517  0.5368 -0.9004 -0.9200
18411SOL    HW259791   8.651   5.332   0.457  0.6072 -1.8237  0.3268
18412SOL     OW59792   8.974  10.804   5.525  0.0893 -0.4286 -0.0926
18412SOL    HW159793   8.963  10.884   5.474 -0.8948 -0.3408  0.2520
18412SOL    HW259794   9.028  10.830   5.600  1.4239 -0.5272 -0.9787
18413SOL     OW59795  11.818  10.105  11.547 -0.5130 -0.1704  0.5352
18413SOL    HW159796  11.840  10.116  11.639 -0.9549  1.9210  0.4409
18413SOL    HW259797  11.760  10.029  11.545 -0.3043 -0.3885  1.9407
18414SOL     OW59798  10.954   1.557   6.781  0.4547  0.2639  0.0043
18414SOL    HW159799  11.036   1.600   6.754 -0.7667  1.2657 -2.4975
18414SOL    HW259800  10.900   1.628   6.816 -0.4228  0.2702 -1.2577
18415SOL     OW59801   2.125   2.564   5.165  0.1693  0.9324 -0.2164
18415SOL    HW159802   2.053   2.592   5.222  1.3452  1.1248  1.2281
18415SOL    HW259803   2.083   2.506   5.101 -1.5414  2.3961 -0.5034
18416SOL     OW59804   2.333   5.132  10.543 -0.3502  0.1155  0.4642
18416SOL    HW159805   2.282   5.086  10.477  0.0969  1.5966 -0.9994
18416SOL    HW259806   2.422   5.098  10.532 -0.2357  0.5066  0.1325
18417SOL     OW59807   9.368   9.709   0.632  0.2188 -0.1212 -0.1670
18417SOL    HW159808   9.334   9.799   0.634  1.8352  0.5231 -0.3709
18417SOL    HW259809   9.433   9.707   0.702  0.4674 -1.0354 -0.4148
18418SOL     OW59810  11.644   5.645   4.384 -0.6472  0.5631 -0.2886
18418SOL    HW159811  11.701   5.588   4.435  0.9979 -0.3880 -2.9957
18418SOL    HW259812  11.557   5.605   4.393  0.0079 -0.8920 -0.0541
18419SOL     OW59813  10.520  10.609   6.155 -0.7522  0.1045 -0.3864
18419SOL    HW159814  10.481  10.663   6.224 -0.8265 -0.4723  0.0271
18419SOL    HW259815  10.448  10.554   6.125 -0.4520 -0.4025 -0.1774
18420SOL     OW59816  10.722   8.742   0.623  0.3922 -0.2472  0.4990
18420SOL    HW159817  10.787   8.684   0.663  1.2660 -0.5098 -1.2077
18420SOL    HW259818  10.755   8.758   0.534 -1.3082  0.5198 -0.0443
18421SOL     OW59819   6.293   9.078  11.463  0.6537  0.2840  0.5150
18421SOL    HW159820   6.210   9.092  11.509  0.0401 -0.6119 -0.2890
18421SOL    HW259821   6.359   9.086  11.532 -0.0202  1.7590  1.0321
18422SOL     OW59822   3.255  11.911   7.745 -0.4076 -0.0936  0.1536
18422SOL    HW159823   3.228  11.926   7.835  2.1415  0.3848  0.9426
18422SOL    HW259824   3.328  11.972   7.732 -0.8228 -0.0315 -2.3034
18423SOL     OW59825   6.201   0.312   9.569 -0.2455 -0.5759  0.2759
18423SOL    HW159826   6.141   0.357   9.629  0.2102  0.8476 -0.3021
18423SOL    HW259827   6.205   0.368   9.492 -0.3766 -2.0887 -0.8863
18424SOL     OW59828   1.502   8.024   9.915  0.6159 -0.2508  0.4594
18424SOL    HW159829   1.571   7.994   9.856  1.1106  1.9200 -0.1790
18424SOL    HW259830   1.548   8.074   9.982 -0.2194  0.0335  0.8354
18425SOL     OW59831   2.121  11.130   9.150 -0.3061  0.0715  0.2920
18425SOL    HW159832   2.154  11.080   9.224 -0.4905 -1.2483 -0.4835
18425SOL    HW259833   2.034  11.093   9.133  0.0513 -0.2005 -1.0617
18426SOL     OW59834   1.161   3.704   2.765  0.1572 -0.3610 -0.2492
18426SOL    HW159835   1.148   3.637   2.831  0.3819  0.2350  0.4128
18426SOL    HW259836   1.081   3.757   2.767  1.8223  2.4300  2.8131
18427SOL     OW59837   6.279   1.940   0.449  0.7269 -0.1822  0.4736
18427SOL    HW159838   6.194   1.974   0.477  1.4194  1.7508  0.3863
18427SOL    HW259839   6.261   1.850   0.422 -1.3360  0.2602  0.2142
18428SOL     OW59840   6.678  11.332   9.046  0.3058 -0.4555 -0.4629
18428SOL    HW159841   6.758  11.375   9.018 -0.0754  1.8860  1.7031
18428SOL    HW259842   6.703  11.241   9.060  2.7065  0.2766  0.5323
18429SOL     OW59843   2.053  11.273   6.277  0.0600  0.1980 -0.0380
18429SOL    HW159844   2.034  11.331   6.203 -0.2259  0.8458  0.5352
18429SOL    HW259845   2.050  11.185   6.239 -1.1017  0.4499 -0.5917
18430SOL     OW59846   6.110   2.672   9.285  0.2928  0.3516  0.0803
18430SOL    HW159847   6.133   2.759   9.317  0.1322  0.2847  0.3790
18430SOL    HW259848   6.174   2.654   9.216  2.5483 -0.7164  2.2750
18431SOL     OW59849   3.965   2.417   8.507 -0.2709 -0.2757  0.2828
18431SOL    HW159850   4.011   2.480   8.561  0.0886  0.2490 -0.6253
18431SOL    HW259851   3.914   2.470   8.445 -1.6185 -0.8467  0.8580
18432SOL     OW59852   3.937   4.391   4.027  0.2708  0.1809 -0.0338
18432SOL    HW159853   4.013   4.365   4.080 -0.3729 -0.1616  0.7430
18432SOL    HW259854   3.866   4.336   4.059 -0.5223  1.1143 -0.1482
18433SOL     OW59855   7.631  11.069   5.445  0.2568  0.2945 -0.9358
18433SOL    HW159856   7.666  11.006   5.508  1.5022  2.5868  0.8398
18433SOL    HW259857   7.708  11.101   5.398  0.0014  2.0689 -0.2196
18434SOL     OW59858   4.958   3.451   0.843  0.3269  0.4089  0.1024
18434SOL    HW159859   5.001   3.389   0.901 -1.0575 -0.3089  0.4012
18434SOL    HW259860   4.949   3.531   0.895  0.7123  0.3657  0.2416
18435SOL     OW59861  10.822   7.694   6.383  0.1825  0.4020 -0.2525
18435SOL    HW159862  10.778   7.675   6.466  1.4514 -0.9128  0.1517
18435SOL    HW259863  10.781   7.775   6.352 -1.7599 -0.2133  0.6027
18436SOL     OW59864   9.503   4.947   8.418 -0.5565 -0.4652 -0.0367
18436SOL    HW159865   9.483   5.034   8.453  0.2322  0.1445 -1.0423
18436SOL    HW259866   9.442   4.936   8.345 -1.5327 -1.3272  0.8594
18437SOL     OW59867   9.938   9.343   0.387  0.2688  0.0277  0.0784
18437SOL    HW159868   9.991   9.413   0.426  1.3245 -1.1897  0.9230
18437SOL    HW259869   9.849   9.379   0.385  0.9563  1.7973 -0.5728
18438SOL     OW59870   6.302   8.487   3.187 -0.3785  0.4395  0.0486
18438SOL    HW159871   6.255   8.567   3.211  0.6849  1.3338 -0.7319
18438SOL    HW259872   6.392   8.502   3.217  0.3065  0.3940 -1.8706
18439SOL     OW59873   7.787   2.763   2.710  0.4117  0.3859 -0.1009
18439SOL    HW159874   7.858   2.827   2.700  1.6265 -0.8680  0.1774
18439SOL    HW259875   7.810   2.693   2.649 -0.6192 -0.0250 -0.0262
18440SOL     OW59876   9.867   0.409   2.432  0.4227 -0.5506 -0.1149
18440SOL    HW159877   9.850   0.495   2.392 -0.7046 -0.5205  0.4110
18440SOL    HW259878   9.832   0.346   2.369  0.5514 -0.5958 -0.1419
18441SOL     OW59879  11.114  10.948   6.501  0.3108  0.1645 -0.0791
18441SOL    HW159880  11.106  10.923   6.409  1.0137 -0.2620 -0.0337
18441SOL    HW259881  11.037  11.002   6.518 -0.1321 -0.2397 -0.7582
18442SOL     OW59882   2.774   6.341   4.912 -0.3041  0.5868 -0.2222
18442SOL    HW159883   2.850   6.384   4.874  1.2423 -0.3595  1.6161
18442SOL    HW259884   2.707   6.346   4.844  0.9859  2.5321 -1.4483
18443SOL     OW59885   3.202  12.086   4.931  0.5138  0.1460 -0.3085
18443SOL    HW159886   3.169  12.009   4.884  0.2380  1.1690 -1.8762
18443SOL    HW259887   3.157  12.084   5.016 -0.1221 -0.9578 -0.6558
18444SOL     OW59888   5.688   7.483  12.017  0.1144  0.1665 -0.4107
18444SOL    HW159889   5.761   7.444  11.970  4.7813  2.2729  4.1220
18444SOL    HW259890   5.690   7.575  11.993 -0.0448  0.5189  0.8375
18445SOL     OW59891   2.582   4.171  11.948  0.5433  0.5670 -0.0443
18445SOL    HW159892   2.652   4.143  12.007  0.4903  0.3642 -0.0778
18445SOL    HW259893   2.623   4.171  11.861  0.3086 -0.2530 -0.1655
18446SOL     OW59894  11.300  11.433   4.317  0.5327 -0.5984  0.1021
18446SOL    HW159895  11.376  11.485   4.342  0.5658 -0.1930 -0.7837
18446SOL    HW259896  11.226  11.493   4.328  0.5719 -0.3369 -0.9355
18447SOL     OW59897   6.776  11.539   0.174 -0.7415 -0.0053  0.4332
18447SOL    HW159898   6.822  11.510   0.253 -1.3867 -0.2194  0.7454
18447SOL    HW259899   6.770  11.634   0.183  0.7989  0.1771 -0.2678
18448SOL     OW59900   1.528   8.535  10.323  0.3943 -0.6088  0.0348
18448SOL    HW159901   1.618   8.500  10.325  0.3305 -0.7563  1.3348
18448SOL    HW259902   1.473   8.458  10.333  0.2466 -0.2734  2.7834
18449SOL     OW59903   9.186   9.570   4.205  0.2638 -0.5509 -0.4977
18449SOL    HW159904   9.147   9.596   4.288  0.1615  1.6552 -1.1584
18449SOL    HW259905   9.120   9.594   4.139  1.7330  1.1574 -1.4520
18450SOL     OW59906   0.257   0.983   1.758  0.1838 -0.0881 -0.3548
18450SOL    HW159907   0.345   0.999   1.792  0.2969 -1.2644 -0.0557
18450SOL    HW259908   0.223   0.912   1.811 -0.4539 -0.5293 -1.3255
18451SOL     OW59909   7.089  10.326  11.386  0.1232  0.3075 -0.0913
18451SOL    HW159910   7.144  10.291  11.316  0.6003  1.3458 -0.2537
18451SOL    HW259911   7.048  10.404  11.348 -3.2744 -1.6157 -0.7544
18452SOL     OW59912   6.840   0.527   9.012 -0.7397 -0.2490  0.4272
18452SOL    HW159913   6.932   0.514   8.989 -1.1168 -1.0138 -0.7999
18452SOL    HW259914   6.811   0.599   8.955 -1.3864 -1.3715 -0.7379
18453SOL     OW59915  10.669   0.832   7.697 -0.2534 -0.2670 -0.4163
18453SOL    HW159916  10.658   0.763   7.632 -1.9134 -1.6889  1.2845
18453SOL    HW259917  10.748   0.807   7.745 -0.1960 -0.3415 -0.5482
18454SOL     OW59918   9.735  10.954   2.832  0.1162  0.6180 -0.0005
18454SOL    HW159919   9.701  11.038   2.799  1.7983  1.3861  0.1139
18454SOL    HW259920   9.816  10.977   2.876 -0.1986 -0.9018  1.4428
18455SOL     OW59921   0.105   1.306   4.614 -0.8226 -0.2207 -0.1247
18455SOL    HW159922   0.116   1.330   4.522 -1.3917 -0.5527 -0.2807
18455SOL    HW259923   0.126   1.213   4.618 -0.8261 -0.2139  0.0787
18456SOL     OW59924   2.316   4.541   3.259  0.0962 -0.1129  0.0947
18456SOL    HW159925   2.267   4.619   3.289  0.5170  0.5539 -0.8883
18456SOL    HW259926   2.334   4.559   3.167  1.9690 -0.4696  0.3581
18457SOL     OW59927  11.534   1.741   7.829 -0.7009 -0.1016  0.0882
18457SOL    HW159928  11.527   1.792   7.749  2.6513  1.5482  0.6903
18457SOL    HW259929  11.579   1.661   7.804  0.3666  0.4239  0.2809
18458SOL     OW59930  10.855   9.424   7.733  0.6636 -0.6453  0.1453
18458SOL    HW159931  10.782   9.435   7.794 -0.0501  0.0573 -0.7991
18458SOL    HW259932  10.869   9.329   7.730  0.1481 -0.7481  0.7510
18459SOL     OW59933   6.410   0.535   4.320 -0.3443 -0.1692 -0.2187
18459SOL    HW159934   6.398   0.465   4.256  1.3229 -0.4984 -0.1941
18459SOL    HW259935   6.399   0.492   4.405 -3.0749  0.3614 -0.1923
18460SOL     OW59936   6.442   5.701   9.265  0.0642  0.3215 -0.7472
18460SOL    HW159937   6.363   5.648   9.283  0.5870 -0.8811 -1.8471
18460SOL    HW259938   6.494   5.694   9.345  0.1993 -1.0159 -0.9259
18461SOL     OW59939   7.747   6.724   5.851  0.0713  0.3190 -0.1301
18461SOL    HW159940   7.764   6.688   5.764  0.7041  1.5214 -0.5257
18461SOL    HW259941   7.739   6.648   5.908  1.3955 -0.4432 -0.9316
18462SOL     OW59942   1.348   9.406   4.284  0.0740 -0.5053  0.2008
18462SOL    HW159943   1.383   9.495   4.272 -1.1495  0.0505  0.6109
18462SOL    HW259944   1.276   9.400   4.220 -0.4339 -0.8663  0.8012
18463SOL     OW59945   7.767  11.389   0.782 -0.7495  1.0778  0.4109
18463SOL    HW159946   7.780  11.361   0.872 -1.1024  0.3036  0.2361
18463SOL    HW259947   7.780  11.309   0.730  2.2320  2.0301 -0.4968
18464SOL     OW59948   5.670   1.779   9.833 -0.4586  0.2608 -0.7274
18464SOL    HW159949   5.674   1.698   9.782 -0.8503  0.5810 -1.2791
18464SOL    HW259950   5.625   1.754   9.914 -0.5911 -0.0680 -0.8994
18465SOL     OW59951   5.927   7.736   6.554  0.0389  0.5519 -0.0345
18465SOL    HW159952   5.879   7.711   6.633  0.6012 -1.0652 -0.1607
18465SOL    HW259953   5.861   7.777   6.498 -0.2963  2.0550  1.3818
18466SOL     OW59954   2.119   2.211   7.246 -0.2455 -0.1585  0.6348
18466SOL    HW159955   2.052   2.276   7.225  0.3484 -0.0199 -0.9766
18466SOL    HW259956   2.156   2.186   7.161  1.2895 -0.7190  1.4257
18467SOL     OW59957   1.886   3.586   9.971 -0.4529 -0.2977 -0.3110
18467SOL    HW159958   1.804   3.555  10.010 -1.0395  0.7241 -0.6944
18467SOL    HW259959   1.924   3.643  10.037  1.7567 -3.3735  1.3488
18468SOL     OW59960   6.213   3.301   0.432 -0.1045 -0.2302  1.0381
18468SOL    HW159961   6.159   3.319   0.508 -0.6109  0.8887  0.4317
18468SOL    HW259962   6.250   3.386   0.408  0.3285 -0.6307  0.2495
18469SOL     OW59963   9.180   9.512   9.718  0.0219 -0.3230  0.2199
18469SOL    HW159964   9.102   9.566   9.725 -0.7138 -1.0758 -1.4796
18469SOL    HW259965   9.172   9.449   9.789 -1.6142 -1.1790 -0.6633
18470SOL     OW59966  11.062  10.972   9.707 -0.5949 -0.1098 -0.6873
18470SOL    HW159967  11.046  11.016   9.623 -0.6975 -0.3869 -0.8126
18470SOL    HW259968  11.108  10.892   9.683 -2.0693 -1.0036 -0.6218
18471SOL     OW59969   4.266   1.544   9.998  0.2935 -0.2793 -0.5086
18471SOL    HW159970   4.341   1.507   9.952 -0.4976 -1.4246 -0.9161
18471SOL    HW259971   4.297   1.559  10.087  0.4619 -2.7034 -0.0904
18472SOL     OW59972   0.879   1.436  12.051 -0.0275  0.2043  0.4532
18472SOL    HW159973   0.949   1.498  12.071  0.5119 -1.0596  2.8136
18472SOL    HW259974   0.904   1.356  12.097 -1.3031 -1.4074 -1.5198
18473SOL     OW59975   3.834  12.046   2.771  0.7910 -0.1706  0.3166
18473SOL    HW159976   3.767  12.066   2.705  2.0856  0.1097 -0.9589
18473SOL    HW259977   3.803  11.966   2.812  0.2686 -0.7286 -1.0980
18474SOL     OW59978   2.207   8.499   5.111  0.2189 -0.3605 -0.6541
18474SOL    HW159979   2.243   8.561   5.175 -1.1814 -1.1612  1.0073
18474SOL    HW259980   2.281   8.443   5.087  0.6699 -0.3935  0.7356
18475SOL     OW59981   6.377   3.777   6.742  0.1494 -0.4280 -0.3168
18475SOL    HW159982   6.416   3.781   6.654 -2.0005  0.2414 -1.3107
18475SOL    HW259983   6.393   3.863   6.780  1.9289 -1.0222  0.4006
18476SOL     OW59984   0.705   6.059   7.785 -0.3428 -0.5340  0.3077
18476SOL    HW159985   0.677   6.027   7.871 -0.4180 -0.5541  0.2766
18476SOL    HW259986   0.670   6.148   7.780  1.6300  0.3597  1.2459
18477SOL     OW59987   8.009   1.384   3.666  0.0720 -0.2064 -0.1800
18477SOL    HW159988   7.950   1.309   3.674  0.7419 -0.9663 -1.7210
18477SOL    HW259989   8.094   1.349   3.695  0.0257  0.5218  0.8711
18478SOL     OW59990   1.149   3.342  11.549  0.0222  0.2647  0.4421
18478SOL    HW159991   1.132   3.401  11.622 -0.4192  2.0883 -1.0614
18478SOL    HW259992   1.077   3.358  11.488  0.3793 -1.2055 -0.4082
18479SOL     OW59993  10.425   2.694   1.207  0.0482 -0.3422 -0.2850
18479SOL    HW159994  10.360   2.624   1.195  1.5815 -1.8899  0.1381
18479SOL    HW259995  10.496   2.671   1.147  0.2396  1.3164 -0.7307
18480SOL     OW59996   0.401   9.718   7.523 -0.3192  0.1319 -0.0068
18480SOL    HW159997   0.312   9.683   7.523 -0.2242 -0.1645  1.1628
18480SOL    HW259998   0.445   9.673   7.451 -1.1622  0.4032 -0.6971
18481SOL     OW59999  10.989   8.201   9.512 -0.4495 -0.0094  0.1841
18481SOL    HW160000  11.056   8.155   9.563 -0.1938  0.4200  0.2408
18481SOL    HW260001  10.980   8.149   9.432  0.5022  0.3392 -0.1674
18482SOL     OW60002   6.649  10.337   8.490 -0.6194  0.0663 -0.2519
18482SOL    HW160003   6.643  10.254   8.537  0.3113 -0.5212 -1.1266
18482SOL    HW260004   6.558  10.363   8.476 -1.1019 -2.3876 -2.6056
18483SOL     OW60005  11.751   5.991   0.805  0.2529  0.0431 -0.3644
18483SOL    HW160006  11.731   5.954   0.891  1.6156  1.7320  0.7422
18483SOL    HW260007  11.750   5.916   0.746 -0.5939 -1.1847  1.1447
18484SOL     OW60008   4.129   6.185   2.498 -0.5632  0.5841  0.6549
18484SOL    HW160009   4.223   6.181   2.518 -0.5784  1.1932  0.8795
18484SOL    HW260010   4.117   6.126   2.424 -0.1452 -0.1470  1.1570
18485SOL     OW60011   7.655  10.358   7.607 -0.5222  0.0201  0.1635
18485SOL    HW160012   7.569  10.383   7.640 -0.1374  0.3944  0.9008
18485SOL    HW260013   7.653  10.384   7.514 -1.1731  0.0764  0.1851
18486SOL     OW60014  11.392   1.541   4.246  0.0372 -0.1031 -0.1304
18486SOL    HW160015  11.378   1.532   4.341 -0.2191  1.1071 -0.0355
18486SOL    HW260016  11.477   1.583   4.239 -0.4914  0.9593 -0.3799
18487SOL     OW60017  10.983   4.680  10.846  0.2840  0.2262  0.1913
18487SOL    HW160018  10.968   4.772  10.865 -0.2303  0.3449 -0.7240
18487SOL    HW260019  10.896   4.645  10.825  0.2334 -0.8143  1.8634
18488SOL     OW60020   4.710   7.020   4.803  0.0296  0.2682  0.1921
18488SOL    HW160021   4.681   6.956   4.737  0.8274  1.2248 -1.1426
18488SOL    HW260022   4.784   6.978   4.846 -0.4216 -0.3222  0.4102
18489SOL     OW60023   2.506  12.105   0.223  0.1272 -0.0084 -0.0839
18489SOL    HW160024   2.595  12.139   0.211  0.0117  0.2542 -0.1937
18489SOL    HW260025   2.513  12.048   0.299  0.7722 -1.3678 -1.1262
18490SOL     OW60026   5.619   8.511   0.783 -0.1132  0.1987  0.1157
18490SOL    HW160027   5.641   8.602   0.764 -0.6995  0.0866 -1.2012
18490SOL    HW260028   5.683   8.460   0.733 -1.6296 -0.1018 -1.6233
18491SOL     OW60029   3.864   9.557   4.952  0.0328  0.1179 -0.1230
18491SOL    HW160030   3.855   9.531   4.861 -0.4321 -1.6536  0.3947
18491SOL    HW260031   3.777   9.588   4.977  0.6182  2.4589 -0.7775
18492SOL     OW60032   8.418   8.683  10.393 -0.5329 -0.7403 -0.4484
18492SOL    HW160033   8.510   8.659  10.405 -0.7197 -1.2485 -0.0202
18492SOL    HW260034   8.410   8.768  10.437 -0.0784 -0.2890 -1.2099
18493SOL     OW60035   6.078   5.569   1.486  0.0883 -0.3055 -0.0917
18493SOL    HW160036   6.070   5.499   1.551 -0.5661  1.8624  2.3246
18493SOL    HW260037   6.165   5.606   1.501 -0.4310  0.8206  0.2377
18494SOL     OW60038   1.365   3.845   7.573  0.0257  0.6574  0.3637
18494SOL    HW160039   1.275   3.873   7.555  0.0181 -0.3270 -1.3873
18494SOL    HW260040   1.367   3.753   7.545  1.1237  0.1371  2.0338
18495SOL     OW60041   5.944  10.366   8.288 -0.6647  0.0934  0.4175
18495SOL    HW160042   5.923  10.406   8.203 -1.5831  0.8921  0.9944
18495SOL    HW260043   5.863  10.321   8.314 -0.2725 -0.4529  0.7076
18496SOL     OW60044   5.075   5.647   3.930  0.1956 -0.0335  0.0259
18496SOL    HW160045   5.007   5.579   3.933 -1.7062  1.8192  1.7116
18496SOL    HW260046   5.118   5.641   4.015  0.1441  0.7279  0.1076
18497SOL     OW60047   1.631   0.475   6.398  0.2415 -0.0898 -0.1288
18497SOL    HW160048   1.581   0.523   6.332 -0.6611  0.4417  0.9094
18497SOL    HW260049   1.572   0.405   6.426  0.6817 -0.4132 -0.0050
18498SOL     OW60050   4.228   1.217   6.633 -0.3709 -0.1541  0.2109
18498SOL    HW160051   4.157   1.246   6.690 -1.9537 -1.7071 -0.8662
18498SOL    HW260052   4.300   1.196   6.693 -1.4371 -0.2476  1.5030
18499SOL     OW60053   3.674   1.628   4.023  0.8898 -0.0464 -0.3484
18499SOL    HW160054   3.657   1.719   4.000 -1.0315 -0.8188 -2.3238
18499SOL    HW260055   3.750   1.632   4.081  0.9805  2.7690 -0.5137
18500SOL     OW60056   4.119   6.801   2.841 -0.1163 -0.3587  0.0112
18500SOL    HW160057   4.141   6.892   2.824  0.7007 -0.7722 -1.2550
18500SOL    HW260058   4.037   6.805   2.891 -0.4947  1.0284 -0.6747
18501SOL     OW60059   7.710  11.016   0.131  0.2427  0.4371  0.4295
18501SOL    HW160060   7.738  11.103   0.102  0.5075  0.8910  1.9514
18501SOL    HW260061   7.791  10.975   0.162  0.0955 -0.3159 -0.1617
18502SOL     OW60062   7.657   1.607   1.894  0.4073 -0.7271  0.4723
18502SOL    HW160063   7.586   1.603   1.958  0.1018  0.8611  0.2792
18502SOL    HW260064   7.737   1.605   1.946  0.2268 -1.8813  0.7299
18503SOL     OW60065   8.138   8.953  10.629  0.2086 -0.3079  0.3380
18503SOL    HW160066   8.077   8.880  10.632  0.1900 -0.3498 -0.7651
18503SOL    HW260067   8.121   8.996  10.546  0.4780  0.7368  0.8027
18504SOL     OW60068   8.920   1.551   0.283  0.0660 -0.0503 -0.3000
18504SOL    HW160069   8.855   1.482   0.277  0.1959 -0.5635  2.7876
18504SOL    HW260070   8.881   1.625   0.236 -1.1187 -1.4126 -1.5688
18505SOL     OW60071   6.698   3.213   0.862 -0.2748 -0.2517 -0.1629
18505SOL    HW160072   6.735   3.197   0.948  1.5287 -0.2423 -0.8861
18505SOL    HW260073   6.676   3.126   0.828  1.0651 -0.4790 -0.5225
18506SOL     OW60074   1.227  10.301   6.491  0.3450  1.1362  0.2715
18506SOL    HW160075   1.158  10.296   6.425 -0.0187 -0.4371  0.7209
18506SOL    HW260076   1.260  10.211   6.497 -0.0205  1.1097  2.6030
18507SOL     OW60077   8.041   1.528   7.991  0.2461  0.3039 -0.6226
18507SOL    HW160078   8.117   1.486   8.032  0.7262  0.1523 -1.6265
18507SOL    HW260079   8.034   1.486   7.905 -0.7473  0.5904 -0.6969
18508SOL     OW60080   9.863   8.169   7.471 -0.1716  0.0759  0.6075
18508SOL    HW160081   9.937   8.149   7.415  0.5015 -0.0206  1.5135
18508SOL    HW260082   9.795   8.199   7.411 -0.6420 -3.1465 -0.6699
18509SOL     OW60083   6.549   3.996   2.697 -0.8123  0.3758 -0.1448
18509SOL    HW160084   6.529   4.030   2.784  0.2045  1.2215 -0.2126
18509SOL    HW260085   6.479   3.934   2.678 -0.4943 -0.6233  1.7159
18510SOL     OW60086   1.936  11.049   3.664 -0.3827 -0.0810 -0.0720
18510SOL    HW160087   1.917  10.979   3.727 -0.2916 -0.7306 -0.7481
18510SOL    HW260088   1.869  11.116   3.682 -1.8291 -1.2629 -0.7968
18511SOL     OW60089   5.598   6.122   4.516 -0.4874 -0.0056  0.4442
18511SOL    HW160090   5.583   6.208   4.477 -0.5122  0.4119  1.3658
18511SOL    HW260091   5.685   6.127   4.555 -0.8406 -0.1051  1.2623
18512SOL     OW60092   6.064   5.020  12.084  0.2277 -0.4874  0.2193
18512SOL    HW160093   6.109   4.963  12.021  2.6861  1.0371  0.4981
18512SOL    HW260094   6.112   5.102  12.081 -0.0089 -0.1049  3.5482
18513SOL     OW60095   5.557   0.997   0.038 -0.7417 -0.4466 -0.3994
18513SOL    HW160096   5.541   0.971   0.129 -2.3025  1.0948 -0.1754
18513SOL    HW260097   5.651   1.014   0.034 -0.8053  0.4901  1.2369
18514SOL     OW60098   8.704   4.706   9.999 -0.2818  0.1176 -0.2729
18514SOL    HW160099   8.686   4.727  10.091 -1.4920 -1.8888  0.0016
18514SOL    HW260100   8.619   4.716   9.955  0.4101  1.6748 -1.3512
18515SOL     OW60101   4.153   9.340   9.566  0.3049 -0.2599 -0.3228
18515SOL    HW160102   4.086   9.359   9.631  1.4590  1.8836  0.3117
18515SOL    HW260103   4.235   9.343   9.614  0.9912 -1.5988 -1.3319
18516SOL     OW60104   2.979   0.589   6.533 -0.2153  0.0846 -0.3463
18516SOL    HW160105   2.957   0.501   6.563 -0.2858 -0.2999 -1.4661
18516SOL    HW260106   2.916   0.607   6.464  1.1451  0.1210 -1.6397
18517SOL     OW60107  10.688   8.656   1.363 -0.2670  0.3022  0.1817
18517SOL    HW160108  10.763   8.705   1.330 -0.4995 -0.2379 -1.1867
18517SOL    HW260109  10.625   8.655   1.291 -0.6153 -1.2772  0.4601
18518SOL     OW60110   2.481   7.831   8.414  0.5500  0.7806 -0.1271
18518SOL    HW160111   2.469   7.784   8.497 -0.2905 -0.4171 -0.9015
18518SOL    HW260112   2.539   7.904   8.437  0.6119  0.2859  1.4443
18519SOL     OW60113   4.726   1.933   0.357 -0.6380  0.0971  0.0847
18519SOL    HW160114   4.771   1.984   0.424 -2.1223 -0.9564  1.9674
18519SOL    HW260115   4.795   1.882   0.315  0.2945  0.6558  0.9046
18520SOL     OW60116  11.658  10.962   1.300 -0.2185 -0.0724 -0.1632
18520SOL    HW160117  11.694  10.961   1.388 -1.0132 -0.3754  0.1679
18520SOL    HW260118  11.734  10.968   1.243  0.3580 -0.7401  0.5197
18521SOL     OW60119   7.733   1.064   8.481  0.2571  0.4504  0.0831
18521SOL    HW160120   7.640   1.058   8.461  0.3160  0.1200 -0.0996
18521SOL    HW260121   7.773   0.994   8.429  0.6623  0.8767 -0.1865
18522SOL     OW60122   5.068   0.337   0.689 -0.1047 -0.0327 -0.3070
18522SOL    HW160123   5.115   0.301   0.613  0.6592  0.9404 -0.3141
18522SOL    HW260124   5.064   0.264   0.750 -2.6117 -1.5109 -2.0484
18523SOL     OW60125   7.827   3.597   4.415  0.1707  0.5042 -0.3347
18523SOL    HW160126   7.831   3.522   4.355 -1.4921 -1.1093  1.4407
18523SOL    HW260127   7.735   3.622   4.417  0.3648  1.2022  0.7609
18524SOL     OW60128   7.958  11.618   7.463  0.0019 -0.3167 -0.1245
18524SOL    HW160129   8.020  11.569   7.517 -0.5725 -0.7744  0.1343
18524SOL    HW260130   7.969  11.582   7.375 -1.2038 -1.7440  0.2617
18525SOL     OW60131   2.172   8.859   8.243 -0.5417  0.1935 -0.0567
18525SOL    HW160132   2.247   8.846   8.186  0.8067 -1.7588  2.0223
18525SOL    HW260133   2.155   8.954   8.239  1.2376  0.5009 -1.4713
18526SOL     OW60134   6.813  10.359   6.243  0.0683  0.5874  0.0771
18526SOL    HW160135   6.756  10.435   6.238  1.8986  2.2093  1.9902
18526SOL    HW260136   6.889  10.384   6.190  0.6092  0.0294  0.5819
18527SOL     OW60137  11.740   9.912   3.344 -0.0723  0.0261 -0.0187
18527SOL    HW160138  11.722  10.005   3.328  0.7843  0.2251  0.0834
18527SOL    HW260139  11.794   9.912   3.423  0.6843 -0.4845 -0.5195
18528SOL     OW60140  11.075   6.843   4.008 -0.1073 -0.3808 -0.3505
18528SOL    HW160141  11.076   6.920   3.952  0.2649 -0.4652 -0.4689
18528SOL    HW260142  11.005   6.859   4.071 -0.5280 -0.2807 -0.8370
18529SOL     OW60143   6.980   9.139   8.853  0.0430 -0.5839  0.0384
18529SOL    HW160144   6.962   9.099   8.768 -2.5587  0.2170  0.1436
18529SOL    HW260145   6.930   9.088   8.916 -1.0296  1.0294  0.5515
18530SOL     OW60146  11.178   6.964   4.659 -0.6258 -0.2007  0.6153
18530SOL    HW160147  11.216   6.877   4.672  1.8247  0.8568  1.1827
18530SOL    HW260148  11.227   7.000   4.585  0.3182  1.6540  2.0737
18531SOL     OW60149   2.211   0.383   8.338  0.5576 -0.5679  0.4402
18531SOL    HW160150   2.220   0.291   8.361  3.5481 -0.3690  0.5432
18531SOL    HW260151   2.271   0.428   8.398  2.8416  0.8142 -2.6335
18532SOL     OW60152   0.590   7.259   2.951 -0.8861 -0.5095 -0.2477
18532SOL    HW160153   0.614   7.251   2.858  0.5450 -0.2900  0.0701
18532SOL    HW260154   0.558   7.349   2.959 -2.7380 -1.0613 -0.8515
18533SOL     OW60155   8.332   5.095   2.737  0.1535 -0.0897  0.6060
18533SOL    HW160156   8.417   5.118   2.776 -1.3744  1.6170  3.2147
18533SOL    HW260157   8.283   5.053   2.807 -1.2963 -0.7623 -0.7455
18534SOL     OW60158   8.508   3.908   7.180  0.1107 -0.0563 -0.1331
18534SOL    HW160159   8.568   3.926   7.253 -0.7430 -2.1483  1.1959
18534SOL    HW260160   8.422   3.901   7.221 -0.6400  0.3343 -1.6137
18535SOL     OW60161   8.595   2.167   9.797 -0.4211  0.2850  0.3098
18535SOL    HW160162   8.532   2.099   9.819  0.3344 -1.1091 -1.5780
18535SOL    HW260163   8.654   2.171   9.871  0.5480 -2.4019 -0.2302
18536SOL     OW60164   4.056   8.210   1.383  0.0741  0.4405  0.4151
18536SOL    HW160165   4.078   8.303   1.383  0.3420  0.3861 -0.2689
18536SOL    HW260166   4.105   8.174   1.309  0.9773 -0.4846  1.4250
18537SOL     OW60167  10.299   7.608   8.519 -0.4073 -0.0852  0.0050
18537SOL    HW160168  10.358   7.684   8.518 -0.9775  0.3715 -0.4334
18537SOL    HW260169  10.355   7.534   8.539  0.0790  0.5227  0.9762
18538SOL     OW60170   5.728   0.871  10.935 -0.6051  0.0862 -0.7231
18538SOL    HW160171   5.692   0.796  10.888 -0.3941  0.5523 -1.6459
18538SOL    HW260172   5.815   0.883  10.897 -0.1705  0.0762  0.2437
18539SOL     OW60173   4.864  11.167   8.150 -0.2745 -0.0111  0.1121
18539SOL    HW160174   4.906  11.249   8.126  0.8559 -0.5542  0.1673
18539SOL    HW260175   4.910  11.100   8.099 -1.2693 -0.6034 -0.0411
18540SOL     OW60176  10.631   7.007   0.806 -0.3940  0.5019 -0.3345
18540SOL    HW160177  10.709   7.040   0.850 -1.3428  1.1423  0.9711
18540SOL    HW260178  10.627   6.914   0.831  0.5310  0.1631 -1.3519
18541SOL     OW60179   9.668  10.321   5.509  0.2349 -0.0575 -0.2902
18541SOL    HW160180   9.688  10.409   5.477  0.2880 -0.4700 -1.4653
18541SOL    HW260181   9.744  10.296   5.560 -0.3712  1.1031  1.2507
18542SOL     OW60182   8.780   1.819   4.929 -0.1985  0.5282 -0.2653
18542SOL    HW160183   8.703   1.767   4.907 -0.7352  0.8982  0.6525
18542SOL    HW260184   8.851   1.756   4.937 -0.9634 -0.1746  1.4435
18543SOL     OW60185   5.805   3.961   4.928 -0.2487 -0.3335 -0.0739
18543SOL    HW160186   5.895   3.933   4.946 -0.4351  0.3747  2.3519
18543SOL    HW260187   5.810   4.056   4.923 -0.9524 -0.2183  0.9854
18544SOL     OW60188   7.914   6.155   9.792  0.0662 -0.2592  0.4346
18544SOL    HW160189   8.006   6.165   9.765  0.0061  0.4075  0.4703
18544SOL    HW260190   7.905   6.214   9.867 -0.3026 -0.5913  0.6555
18545SOL     OW60191   9.858  10.072   4.821 -0.2449  0.0667 -0.0803
18545SOL    HW160192   9.920  10.094   4.751 -0.4303 -0.2065 -0.3282
18545SOL    HW260193   9.816   9.992   4.792 -0.2699 -0.0883  0.3795
18546SOL     OW60194   1.846   0.589  10.354  0.0305 -0.4699  0.1624
18546SOL    HW160195   1.809   0.514  10.400  1.7531 -2.4605 -1.4596
18546SOL    HW260196   1.937   0.593  10.384  0.5692 -0.4683 -1.3471
18547SOL     OW60197   6.542  12.017   7.154 -0.2255 -0.3557  0.1366
18547SOL    HW160198   6.466  11.961   7.143  0.3435 -1.2319  0.5797
18547SOL    HW260199   6.574  11.999   7.242  1.4755 -1.2837 -0.6171
18548SOL     OW60200   7.988   4.926   8.465 -0.4379 -0.0457 -0.3019
18548SOL    HW160201   8.069   4.954   8.422 -1.5333  3.9723 -0.1055
18548SOL    HW260202   7.918   4.964   8.412 -1.9585  1.6726  2.6486
18549SOL     OW60203   6.743  11.443   5.869  0.4380  1.0297  0.5874
18549SOL    HW160204   6.836  11.430   5.888  0.6496  3.2232  1.4507
18549SOL    HW260205   6.739  11.533   5.837 -1.4184  1.0662  0.8439
18550SOL     OW60206   7.421  11.047   0.486  0.4029  0.0954 -0.3497
18550SOL    HW160207   7.367  11.063   0.409 -1.6954  0.0292  1.0229
18550SOL    HW260208   7.390  11.111   0.550 -0.6125 -2.2835  1.6748
18551SOL     OW60209   2.884  10.119   1.138  0.2504 -0.0240  0.0765
18551SOL    HW160210   2.979  10.133   1.131  0.2531 -0.3021 -0.4900
18551SOL    HW260211   2.870  10.028   1.112 -0.2271  0.1701 -0.3722
18552SOL     OW60212   0.336  10.468   4.630  0.1938  0.1840  0.4199
18552SOL    HW160213   0.281  10.534   4.672 -0.4688 -0.9392  1.3706
18552SOL    HW260214   0.293  10.385   4.649  0.7144 -0.5072 -1.2086
18553SOL     OW60215   6.426   5.839   8.756  0.5843 -0.2705 -0.4337
18553SOL    HW160216   6.508   5.839   8.807  0.5823 -2.0538 -0.3685
18553SOL    HW260217   6.411   5.747   8.735 -0.3786  0.2406 -2.1479
18554SOL     OW60218  10.330   8.019   9.987  0.1172  0.6338 -0.0086
18554SOL    HW160219  10.316   7.951  10.053  2.2769  0.3812  0.2774
18554SOL    HW260220  10.337   7.971   9.904 -2.5395  0.9463 -0.5018
18555SOL     OW60221   5.785   1.108   4.025  0.3790  0.1756 -0.5628
18555SOL    HW160222   5.827   1.059   3.955 -1.2733 -2.3079  0.0527
18555SOL    HW260223   5.806   1.059   4.104  1.5584  2.4753  0.6723
18556SOL     OW60224  11.288  11.574   5.841 -0.1416  0.1220 -0.3418
18556SOL    HW160225  11.300  11.510   5.771 -1.2234  0.0745 -0.4929
18556SOL    HW260226  11.305  11.659   5.799 -1.0170  0.1121 -0.7270
18557SOL     OW60227   3.739   7.649   6.618  0.5131 -0.3007  0.2693
18557SOL    HW160228   3.653   7.639   6.658 -0.3011  1.7803 -0.7913
18557SOL    HW260229   3.769   7.559   6.603 -0.0016 -1.1736  3.5332
18558SOL     OW60230  11.986   1.890   3.922  0.1200  0.0502  0.4510
18558SOL    HW160231  12.022   1.833   3.991  0.3322 -0.2384  0.1034
18558SOL    HW260232  11.994   1.838   3.842 -0.5132  0.2228  0.2726
18559SOL     OW60233   0.022   1.269   2.769 -0.3862 -0.1272  0.0833
18559SOL    HW160234   0.051   1.178   2.780 -0.8751 -0.0939  1.9973
18559SOL    HW260235   0.102   1.320   2.763  0.1472 -0.1631  4.1810
18560SOL     OW60236  11.023   5.300   4.879 -0.0555 -0.5180  0.0164
18560SOL    HW160237  11.064   5.339   4.802 -0.2218  0.7519  0.5467
18560SOL    HW260238  10.930   5.324   4.871  0.1037  0.5629  1.1421
18561SOL     OW60239  11.627   7.949   0.014  0.3003 -0.0094  0.3709
18561SOL    HW160240  11.623   7.976   0.106 -1.8864 -0.4590  0.4608
18561SOL    HW260241  11.629   8.031  -0.035  0.4737  0.2468  0.8018
18562SOL     OW60242  11.711   7.732   7.657 -0.1758  0.3949 -0.7582
18562SOL    HW160243  11.696   7.638   7.650  0.9431 -0.0204  1.4065
18562SOL    HW260244  11.680   7.768   7.574  0.7333 -2.0456 -2.2565
18563SOL     OW60245   6.413   5.485   2.987 -0.3765 -0.2783 -0.1925
18563SOL    HW160246   6.381   5.422   3.053 -1.8926  1.0656  0.4206
18563SOL    HW260247   6.416   5.435   2.906 -0.0891 -1.5377  0.5667
18564SOL     OW60248   9.369   5.306  11.084 -0.0982 -0.2179 -0.0074
18564SOL    HW160249   9.319   5.250  11.026  0.0941 -0.6666  0.2536
18564SOL    HW260250   9.311   5.380  11.102 -0.0814  0.0295 -0.9279
18565SOL     OW60251   8.686  10.067   6.496  0.6838  0.2167  0.5422
18565SOL    HW160252   8.702  10.101   6.584  0.6262  1.1299  0.2081
18565SOL    HW260253   8.691  10.143   6.439 -0.0522 -0.2316 -0.1552
18566SOL     OW60254   3.078   1.197  11.135 -0.8114  0.3857 -0.0523
18566SOL    HW160255   3.077   1.156  11.048 -0.0289 -1.0093  0.5588
18566SOL    HW260256   2.992   1.236  11.144 -0.9488  0.4522 -1.4054
18567SOL     OW60257   6.775   8.381   4.587  0.2494  0.4986 -0.2331
18567SOL    HW160258   6.694   8.398   4.539  0.3120 -0.7580 -0.8300
18567SOL    HW260259   6.835   8.347   4.521  1.2301  1.2669  0.2342
18568SOL     OW60260  11.168   4.395   0.249  0.0568 -0.4527 -0.1422
18568SOL    HW160261  11.124   4.384   0.165  0.3764 -1.0449 -0.2437
18568SOL    HW260262  11.180   4.306   0.282 -0.2511 -0.2181  0.6356
18569SOL     OW60263   1.851   5.253   9.773  0.1468 -0.4948 -0.3648
18569SOL    HW160264   1.762   5.245   9.805 -0.1480  1.4455 -0.5693
18569SOL    HW260265   1.888   5.327   9.821  1.0199 -0.1020 -1.5773
18570SOL     OW60266   4.456   6.731   4.274  0.4233  0.4671 -0.0865
18570SOL    HW160267   4.373   6.686   4.256  0.8412 -0.3006 -0.1554
18570SOL    HW260268   4.512   6.706   4.201  0.9002  0.5073  0.2665
18571SOL     OW60269   6.758   1.316   0.235 -0.0587 -0.1255  0.2516
18571SOL    HW160270   6.694   1.289   0.169 -0.9134  0.7252  0.7033
18571SOL    HW260271   6.838   1.331   0.186 -0.2226 -1.1298 -0.3427
18572SOL     OW60272   4.369   6.417   3.622 -0.2815 -0.7509 -0.5259
18572SOL    HW160273   4.325   6.357   3.562  0.3226 -0.8298 -0.9013
18572SOL    HW260274   4.385   6.496   3.570  1.1023 -1.1677 -0.7835
18573SOL     OW60275   0.087   7.026   8.141  0.3131 -0.2414  0.1937
18573SOL    HW160276   0.099   6.966   8.067 -0.6055 -0.0243 -0.1493
18573SOL    HW260277  -0.003   7.010   8.170 -0.2021  1.4652 -0.3683
18574SOL     OW60278   3.257   5.834   9.329 -0.4726 -0.2677 -0.1592
18574SOL    HW160279   3.216   5.750   9.354 -0.2741  0.3283  2.4765
18574SOL    HW260280   3.233   5.894   9.400  1.9215  1.1073 -0.4201
18575SOL     OW60281   6.737   8.519  10.473  0.0518 -0.3590  0.3890
18575SOL    HW160282   6.741   8.426  10.496  0.4648 -0.7479 -1.1290
18575SOL    HW260283   6.644   8.539  10.474  0.0379 -0.2044  2.7438
18576SOL     OW60284  11.320   5.594   8.367 -0.4503 -0.3655 -0.4916
18576SOL    HW160285  11.231   5.619   8.341  0.0965  1.0699 -1.0782
18576SOL    HW260286  11.308   5.517   8.423 -2.1592  0.5321  0.4537
18577SOL     OW60287  10.329  10.707   9.615 -0.1040  0.9860  0.1261
18577SOL    HW160288  10.365  10.685   9.529 -0.5331  1.9899 -0.3339
18577SOL    HW260289  10.240  10.738   9.596 -0.5244  0.3895  1.0325
18578SOL     OW60290   9.181   6.052   2.590 -0.3340  0.5224 -0.0561
18578SOL    HW160291   9.271   6.064   2.559 -0.0940 -0.8316  0.0867
18578SOL    HW260292   9.159   6.136   2.631  1.3111  0.4518  1.0458
18579SOL     OW60293   0.182   1.352   7.370 -0.9233 -0.2269 -0.3794
18579SOL    HW160294   0.094   1.331   7.404 -0.8273 -1.4784 -0.8368
18579SOL    HW260295   0.238   1.351   7.448 -0.9207 -1.8563 -0.3478
18580SOL     OW60296   1.939  11.120   5.196  0.6778 -0.0143  0.0705
18580SOL    HW160297   1.905  11.170   5.121 -2.4464 -1.8670  0.0583
18580SOL    HW260298   1.990  11.183   5.246 -1.6971  2.7985 -0.7810
18581SOL     OW60299   7.221   2.415   4.008 -0.2027 -0.0415  0.1297
18581SOL    HW160300   7.173   2.482   4.056 -0.2386 -0.3004  0.4559
18581SOL    HW260301   7.153   2.356   3.973 -0.3733  1.4232 -2.2463
18582SOL     OW60302   9.361   5.262   3.685  0.3189  0.0975 -0.0406
18582SOL    HW160303   9.288   5.317   3.658 -0.1025  0.2304  1.3019
18582SOL    HW260304   9.378   5.287   3.776  1.0737 -0.9747  0.1350
18583SOL     OW60305   0.930   1.618   5.778  0.5525 -0.0744 -0.4418
18583SOL    HW160306   0.958   1.686   5.717 -0.4895 -0.9344 -1.9620
18583SOL    HW260307   0.837   1.637   5.794  0.5142 -0.5468 -0.0746
18584SOL     OW60308   8.174   2.168   5.106 -0.1110 -0.4134  0.0933
18584SOL    HW160309   8.213   2.176   5.019 -0.7371 -2.2712 -0.4023
18584SOL    HW260310   8.121   2.247   5.116  1.9494  1.0764 -0.1112
18585SOL     OW60311   8.929  10.545   1.659  0.4588  0.0163  0.1145
18585SOL    HW160312   8.988  10.568   1.587  2.4702 -0.3355  1.5582
18585SOL    HW260313   8.919  10.626   1.709  0.5575 -0.1762  0.4463
18586SOL     OW60314   8.538   0.715   4.699 -0.5610 -0.1405  0.5341
18586SOL    HW160315   8.628   0.698   4.727 -0.4032 -0.4037 -0.1139
18586SOL    HW260316   8.546   0.781   4.631 -1.0058  1.0172  1.5747
18587SOL     OW60317   8.626   1.082   0.692 -0.1574  0.7835 -0.6270
18587SOL    HW160318   8.590   1.167   0.666  1.1500  1.2524 -0.9916
18587SOL    HW260319   8.682   1.056   0.619  0.2140  0.0665 -0.1053
18588SOL     OW60320   8.570   8.821   8.828  0.6510  0.5597 -0.4405
18588SOL    HW160321   8.613   8.865   8.902  1.4781 -0.3753 -0.3322
18588SOL    HW260322   8.526   8.746   8.868  0.1653  0.6692 -0.7615
18589SOL     OW60323   3.051   8.411   9.158 -0.4623  0.0684 -0.1796
18589SOL    HW160324   3.107   8.358   9.214 -0.7020  0.5772  0.5564
18589SOL    HW260325   3.014   8.478   9.216  0.3056  1.4277 -1.1861
18590SOL     OW60326   4.024   6.005   7.748 -0.2291  0.5380 -0.5423
18590SOL    HW160327   3.936   6.030   7.722 -0.0540  1.0456 -0.6609
18590SOL    HW260328   4.069   6.088   7.765 -0.1020  0.2459  0.6218
18591SOL     OW60329   0.981  10.460   0.684 -0.1452  0.0307  0.0321
18591SOL    HW160330   1.018  10.518   0.751  3.1616 -0.8644 -0.8413
18591SOL    HW260331   0.890  10.448   0.710 -0.0438  2.8572  2.1148
18592SOL     OW60332   7.025   9.715   6.080  0.3114  0.0825  0.2423
18592SOL    HW160333   6.944   9.749   6.119 -0.0511 -0.2202 -0.2435
18592SOL    HW260334   7.007   9.622   6.065  1.2531 -0.3118  1.4328
18593SOL     OW60335   0.254   9.007   7.655  0.1725 -0.3653  0.0905
18593SOL    HW160336   0.259   8.957   7.736  0.0528 -0.4899  0.0223
18593SOL    HW260337   0.161   9.031   7.648 -0.0989 -1.5511 -0.7196
18594SOL     OW60338   6.848   0.031  11.674 -0.4426  0.1875 -0.1026
18594SOL    HW160339   6.941   0.023  11.697 -0.7029 -1.1199  0.5891
18594SOL    HW260340   6.846   0.099  11.607  0.9884  0.3794  0.0117
18595SOL     OW60341   2.890   1.322   1.244  0.5147  0.0291  0.3763
18595SOL    HW160342   2.856   1.411   1.241  3.1342  1.1761  1.2289
18595SOL    HW260343   2.897   1.295   1.153  0.1963  0.8979  0.0870
18596SOL     OW60344  11.294   8.150   8.246  0.0612  0.2665  0.4508
18596SOL    HW160345  11.335   8.230   8.213  0.1070  0.3215  0.6374
18596SOL    HW260346  11.242   8.179   8.321  2.4624 -0.2708  2.4792
18597SOL     OW60347   1.411   7.125   7.682 -0.7616 -0.1183 -0.4861
18597SOL    HW160348   1.442   7.157   7.766 -1.1813  0.1191 -0.4216
18597SOL    HW260349   1.468   7.050   7.662  0.4203  0.8106 -0.7663
18598SOL     OW60350   8.496   4.643   7.784  0.0834  0.4686 -0.2364
18598SOL    HW160351   8.585   4.621   7.758  0.5223  1.8787 -0.0322
18598SOL    HW260352   8.477   4.726   7.738 -0.3997  1.1814  1.1865
18599SOL     OW60353   9.417  10.154   3.564  0.3216 -0.1507  0.4598
18599SOL    HW160354   9.511  10.157   3.582  0.4475  1.1496 -0.3542
18599SOL    HW260355   9.376  10.146   3.650  1.1359  0.4118  0.9065
18600SOL     OW60356   8.017   0.626   9.719 -0.0782 -0.1545 -0.3327
18600SOL    HW160357   7.958   0.634   9.793 -0.0454 -2.7654  0.0871
18600SOL    HW260358   8.105   0.639   9.756 -0.2230  1.9202 -0.6162
18601SOL     OW60359  11.607   1.105   0.306 -0.1552 -1.0053 -0.5230
18601SOL    HW160360  11.626   1.196   0.329 -0.4633 -0.9523 -0.4616
18601SOL    HW260361  11.689   1.071   0.271  0.8108 -1.5227  2.0437
18602SOL     OW60362   0.174   2.688   8.662  0.3154 -0.0265 -0.3272
18602SOL    HW160363   0.152   2.595   8.659 -0.4703  0.1703 -1.9327
18602SOL    HW260364   0.257   2.692   8.709  0.3757 -1.5430 -0.2689
18603SOL     OW60365   7.657   4.159   9.334 -0.5816 -0.5437 -0.3457
18603SOL    HW160366   7.731   4.101   9.312 -0.4933 -0.5810  0.0346
18603SOL    HW260367   7.610   4.171   9.252 -0.5631 -1.1094 -0.4448
18604SOL     OW60368   7.870   5.795   2.717  0.4215 -0.7579  0.0613
18604SOL    HW160369   7.934   5.813   2.786 -0.2115 -0.7576  0.6680
18604SOL    HW260370   7.788   5.779   2.765  0.1087 -1.3844 -0.6639
18605SOL     OW60371   1.941   8.383   3.541 -0.4721 -0.1712  0.1566
18605SOL    HW160372   1.865   8.424   3.584  1.4773  1.0308  2.7884
18605SOL    HW260373   1.974   8.451   3.482  0.2646  0.5035  1.3041
18606SOL     OW60374   4.625   8.718   6.868  0.3881 -0.0975 -0.1742
18606SOL    HW160375   4.708   8.765   6.858  0.7529 -0.4324  1.2023
18606SOL    HW260376   4.592   8.745   6.953 -1.2838  0.5690 -0.9821
18607SOL     OW60377   6.267   7.177   3.344 -0.5061  0.5861  0.0012
18607SOL    HW160378   6.339   7.229   3.307  0.0445  0.1791  0.4720
18607SOL    HW260379   6.310   7.097   3.375 -1.1295  0.4482  0.5154
18608SOL     OW60380  10.282   1.045   4.361  0.0465 -0.1981  1.0685
18608SOL    HW160381  10.327   0.991   4.297 -1.2635 -2.3571  1.8859
18608SOL    HW260382  10.335   1.037   4.440  1.0879  1.6262  0.6206
18609SOL     OW60383  11.500  11.992   0.382 -0.1069  0.1510 -0.4416
18609SOL    HW160384  11.570  12.057   0.375  0.6053 -0.5304  0.1090
18609SOL    HW260385  11.421  12.038   0.353  0.3049  1.3787  0.2853
18610SOL     OW60386   3.820   9.217   0.390 -0.8205  0.4073 -0.0111
18610SOL    HW160387   3.733   9.204   0.353 -0.6211  0.8641 -0.6727
18610SOL    HW260388   3.816   9.178   0.477 -0.8494 -2.1016 -1.0499
18611SOL     OW60389   6.891   5.821   7.586  0.0043  0.0197 -0.1469
18611SOL    HW160390   6.880   5.827   7.491  0.2205 -0.0313 -0.1764
18611SOL    HW260391   6.805   5.794   7.618  0.2230 -1.0853 -0.4411
18612SOL     OW60392  10.422  10.193   1.477 -0.1505  0.0122  0.6396
18612SOL    HW160393  10.375  10.166   1.398  2.7830 -1.4920 -0.7655
18612SOL    HW260394  10.451  10.282   1.459 -1.0450  0.3481  0.8272
18613SOL     OW60395   0.575  11.795  11.631  0.5309  0.5252  0.1838
18613SOL    HW160396   0.663  11.807  11.665  0.0566  0.6673  1.4311
18613SOL    HW260397   0.580  11.716  11.577  1.6950  1.2618 -0.8321
18614SOL     OW60398   7.799   1.633   0.562  0.4358  0.2212 -0.4230
18614SOL    HW160399   7.732   1.652   0.628  0.8143  1.0409 -0.2573
18614SOL    HW260400   7.801   1.711   0.506  0.7585 -0.0866 -0.8522
18615SOL     OW60401  10.677   5.276   1.596  0.3627  0.0191 -0.2151
18615SOL    HW160402  10.707   5.367   1.605 -0.2859  0.2663 -0.4882
18615SOL    HW260403  10.606   5.268   1.659  1.7740 -0.9375  1.3526
18616SOL     OW60404  10.760   8.385  12.020 -0.4066  0.2771  0.0347
18616SOL    HW160405  10.725   8.400  12.107  0.9131 -0.7809  0.7832
18616SOL    HW260406  10.825   8.454  12.008 -0.4028  0.2624 -0.0266
18617SOL     OW60407   7.205   9.367   7.258  0.0828  0.1495  0.4310
18617SOL    HW160408   7.141   9.323   7.201  2.3142 -2.0568 -0.5901
18617SOL    HW260409   7.197   9.321   7.341  0.8702 -0.7021  0.0491
18618SOL     OW60410  11.322   4.110   7.324 -0.1155  0.0357 -0.1294
18618SOL    HW160411  11.376   4.064   7.260  0.2005 -0.6571  0.6194
18618SOL    HW260412  11.376   4.183   7.353 -0.6216  0.9253 -1.3257
18619SOL     OW60413   6.000  11.777   2.016 -0.7932  0.2087  0.1591
18619SOL    HW160414   6.058  11.701   2.002 -0.7509 -0.0517  1.5656
18619SOL    HW260415   5.995  11.785   2.112 -1.4436  1.4993  0.0315
18620SOL     OW60416  10.224   0.843   0.556 -0.1589 -0.0785 -0.0703
18620SOL    HW160417  10.258   0.903   0.489 -1.6396  0.0861 -0.6956
18620SOL    HW260418  10.296   0.835   0.619  0.9332  0.4682 -1.2105
18621SOL     OW60419   4.546   3.070   9.056  0.5030 -0.0741  0.3211
18621SOL    HW160420   4.552   3.096   9.148 -1.0137  0.0544  0.4082
18621SOL    HW260421   4.485   2.996   9.056 -0.0088  0.3305 -0.6430
18622SOL     OW60422   2.196   3.112  10.727 -0.1330 -0.0166 -0.5443
18622SOL    HW160423   2.161   3.201  10.720  1.1920  0.5521 -0.2646
18622SOL    HW260424   2.224   3.105  10.818 -0.4047 -0.8030 -0.5116
18623SOL     OW60425   8.499   6.461  11.614 -0.4481 -0.0621 -0.2292
18623SOL    HW160426   8.458   6.531  11.664 -1.2001 -1.1653  0.7640
18623SOL    HW260427   8.434   6.390  11.615  0.1167 -0.6364 -1.5408
18624SOL     OW60428   9.306   8.785  10.570  0.0421 -0.0396 -0.3973
18624SOL    HW160429   9.230   8.778  10.628  1.3647  1.7665  1.6907
18624SOL    HW260430   9.337   8.695  10.561  0.0473 -0.3803  2.1457
18625SOL     OW60431   5.984   1.082   5.613  0.2506 -0.3372  0.0066
18625SOL    HW160432   6.051   1.017   5.589 -0.9476 -1.4032 -0.5359
18625SOL    HW260433   6.027   1.166   5.596  1.7471 -0.9625  0.4664
18626SOL     OW60434   3.637   8.211   4.415 -0.1297 -0.5742  0.2883
18626SOL    HW160435   3.612   8.277   4.351  3.0629  1.4330  0.9172
18626SOL    HW260436   3.668   8.260   4.491 -0.5125 -2.8612  2.0518
18627SOL     OW60437   9.696   0.242   7.319  0.1639 -0.3737  0.0699
18627SOL    HW160438   9.678   0.290   7.400 -0.0539  2.7869 -1.7069
18627SOL    HW260439   9.610   0.208   7.292 -0.3875  1.2419 -0.3506
18628SOL     OW60440   2.826   8.897   9.075 -0.3969 -0.1051 -0.4714
18628SOL    HW160441   2.784   8.941   9.149  0.7866 -0.9454  0.7516
18628SOL    HW260442   2.906   8.860   9.112  0.5665  0.0123 -2.3395
18629SOL     OW60443   2.828   6.060   3.466  0.3618 -0.2285 -0.2567
18629SOL    HW160444   2.787   6.106   3.392 -0.7677  1.5270  1.3534
18629SOL    HW260445   2.854   5.976   3.431 -1.3339  0.0279 -2.3371
18630SOL     OW60446   9.810   9.925  12.014  0.1178 -0.0917  0.1928
18630SOL    HW160447   9.805   9.946  12.107 -1.3273 -1.8704  0.5608
18630SOL    HW260448   9.849   9.838  12.011  0.7732  0.2134 -0.9257
18631SOL     OW60449  10.008   9.185   1.503 -0.2587 -0.4596 -0.4242
18631SOL    HW160450   9.949   9.113   1.525 -3.1589  0.9461 -2.7712
18631SOL    HW260451  10.040   9.218   1.587 -2.9591 -1.2968  1.0250
18632SOL     OW60452   8.490   8.283  11.630  0.6804 -0.1252 -0.0507
18632SOL    HW160453   8.408   8.303  11.676  1.4503 -0.2050  1.4383
18632SOL    HW260454   8.516   8.365  11.589  1.9702  1.1262  2.9925
18633SOL     OW60455   5.359   1.840   8.919 -0.6371  0.0548  0.1017
18633SOL    HW160456   5.328   1.853   9.009 -0.4832 -1.2688  0.3679
18633SOL    HW260457   5.370   1.745   8.911 -1.9010  0.0115 -1.7331
18634SOL     OW60458   5.869  10.113   2.350  0.1784 -0.2050  0.2362
18634SOL    HW160459   5.778  10.104   2.379  0.0902  1.2587  0.5148
18634SOL    HW260460   5.920  10.068   2.417 -0.2448  0.4407  1.0132
18635SOL     OW60461  11.504  11.826   8.659  0.0597  0.0140 -0.6539
18635SOL    HW160462  11.592  11.789   8.657 -0.1502 -1.0373  3.1428
18635SOL    HW260463  11.454  11.773   8.597  1.6695 -0.4475 -1.6167
18636SOL     OW60464   4.830   7.142   5.285  0.5340 -0.2612 -0.1025
18636SOL    HW160465   4.891   7.069   5.276  1.1604 -0.0476  1.9340
18636SOL    HW260466   4.786   7.148   5.200  3.1583 -0.5676 -1.5552
18637SOL     OW60467   8.509   8.640   9.191  0.0576 -0.3935  0.4861
18637SOL    HW160468   8.548   8.645   9.278 -0.8668 -1.5602  0.9967
18637SOL    HW260469   8.418   8.615   9.207  0.1653 -1.7675 -0.8657
18638SOL     OW60470  11.641  12.069   0.835  0.0758  0.1779  0.1178
18638SOL    HW160471  11.581  12.023   0.894  0.5676 -0.0156  0.4774
18638SOL    HW260472  11.694  12.000   0.796  0.3360  0.3758  0.1151
18639SOL     OW60473   1.139   6.078   0.274 -0.5388  0.9763 -0.1258
18639SOL    HW160474   1.086   6.143   0.228 -1.4155  0.7146  0.4899
18639SOL    HW260475   1.103   5.994   0.248 -1.2257  0.8258  1.2026
18640SOL     OW60476   8.946   6.992   2.827  0.1970 -0.0390 -0.1728
18640SOL    HW160477   8.932   7.063   2.764 -0.4557  0.4466  0.4994
18640SOL    HW260478   9.030   7.013   2.868  0.8135 -0.5665 -1.1335
18641SOL     OW60479   2.780   9.825  10.904 -0.6500  0.4170  0.1731
18641SOL    HW160480   2.779   9.799  10.997  0.2002 -1.1429 -0.2168
18641SOL    HW260481   2.733   9.909  10.902  0.0121  0.8994  2.1347
18642SOL     OW60482   3.736   6.820   4.616  0.1966 -0.0947 -0.1641
18642SOL    HW160483   3.684   6.850   4.690 -1.0020  0.3211 -1.1308
18642SOL    HW260484   3.816   6.871   4.621 -1.0294  2.0383 -0.7029
18643SOL     OW60485   2.028  11.675   0.867  0.0516  0.2699 -0.2929
18643SOL    HW160486   2.030  11.760   0.824  0.1266  0.6894  0.5220
18643SOL    HW260487   2.043  11.694   0.960  1.3913 -0.7420 -0.2622
18644SOL     OW60488   0.986   8.603   8.049  0.0696  0.6571 -0.0513
18644SOL    HW160489   1.048   8.608   8.122  1.1162 -0.9379 -0.7949
18644SOL    HW260490   1.018   8.668   7.987  2.6533 -1.8312 -1.5690
18645SOL     OW60491   6.267   7.745   7.563 -0.1932  0.9012  0.2196
18645SOL    HW160492   6.262   7.728   7.657  3.9846  0.1111  0.4931
18645SOL    HW260493   6.226   7.831   7.552 -0.7571  1.0459  2.7494
18646SOL     OW60494   6.326   7.760  10.959  0.2579  0.2797  0.1048
18646SOL    HW160495   6.418   7.737  10.948  0.4728  1.3258 -0.3864
18646SOL    HW260496   6.279   7.693  10.910  0.6881 -0.8092  1.1340
18647SOL     OW60497   8.763   6.632   6.514  0.3098 -0.1175 -0.1021
18647SOL    HW160498   8.853   6.649   6.542  0.3937  1.2546 -1.1222
18647SOL    HW260499   8.761   6.657   6.422 -1.4541  1.1893  0.2452
18648SOL     OW60500   8.635   2.836   1.730 -0.1896  0.0549 -0.4640
18648SOL    HW160501   8.596   2.778   1.796  1.7276  1.1369  1.7360
18648SOL    HW260502   8.682   2.777   1.671 -0.1471 -0.7962  0.3974
18649SOL     OW60503   5.716   4.321   8.205 -0.9253  0.0117 -0.3779
18649SOL    HW160504   5.624   4.296   8.198 -1.2489  0.4884  1.6180
18649SOL    HW260505   5.739   4.353   8.118 -3.0477  1.1663 -0.5716
18650SOL     OW60506   1.160   5.909   9.227  0.3726 -0.1407 -0.6536
18650SOL    HW160507   1.239   5.900   9.281  0.1004  1.0215 -0.0389
18650SOL    HW260508   1.192   5.899   9.137  1.0630 -0.6504 -0.3650
18651SOL     OW60509  12.059   4.725   6.437  0.3314  0.8838  0.1500
18651SOL    HW160510  12.027   4.779   6.509 -0.0720 -0.4266  0.9902
18651SOL    HW260511  12.023   4.638   6.454  1.4392  0.1987 -0.8326
18652SOL     OW60512   8.922   4.250   1.714 -0.2083 -0.0459 -0.0664
18652SOL    HW160513   8.936   4.343   1.735  0.4698 -0.4244  1.2988
18652SOL    HW260514   8.848   4.224   1.769 -0.6675 -0.2153 -0.7599
18653SOL     OW60515   3.751   0.065   8.239 -0.1788 -0.3727 -0.1286
18653SOL    HW160516   3.716  -0.009   8.289  0.2080 -0.3724  0.1540
18653SOL    HW260517   3.781   0.026   8.157  1.7201 -0.8788  0.7532
18654SOL     OW60518   0.848   6.604   4.384 -0.4871  0.1562  0.2914
18654SOL    HW160519   0.798   6.640   4.457  0.5177 -0.2703  1.2284
18654SOL    HW260520   0.838   6.668   4.314 -1.7893  0.3897  0.6637
18655SOL     OW60521   5.969   4.123   5.288  0.1234 -0.3770  0.6503
18655SOL    HW160522   5.987   4.157   5.200  0.1399 -0.2699  0.6952
18655SOL    HW260523   5.882   4.156   5.309 -0.9996 -2.4695 -0.3538
18656SOL     OW60524   5.871   4.503   2.729  0.3319  0.3217 -0.9257
18656SOL    HW160525   5.876   4.408   2.715  1.2507 -0.1062  1.8029
18656SOL    HW260526   5.959   4.534   2.708  0.1967  0.4956 -1.2402
18657SOL     OW60527  11.957   2.572  11.134 -0.2848 -0.3056 -0.2064
18657SOL    HW160528  12.035   2.617  11.169 -1.2111  0.6891  0.6625
18657SOL    HW260529  11.991   2.492  11.095  1.3166  0.6730 -0.8990
18658SOL     OW60530   0.198   2.413   7.850  0.5178 -0.0124  0.0789
18658SOL    HW160531   0.188   2.471   7.774  0.3394 -0.2484 -0.0790
18658SOL    HW260532   0.172   2.466   7.925 -1.4094 -0.4279 -0.2491
18659SOL     OW60533  10.176   8.737   7.972  0.2068  0.4249 -0.1829
18659SOL    HW160534  10.215   8.823   7.957 -1.7492  1.2490 -0.8627
18659SOL    HW260535  10.145   8.709   7.886 -1.6857  0.3667  0.4602
18660SOL     OW60536   8.318  10.221   1.543 -0.1082  0.2707  0.3800
18660SOL    HW160537   8.236  10.197   1.500  0.0651  2.5536 -1.4290
18660SOL    HW260538   8.296  10.223   1.636 -2.9249  3.3203 -0.1640
18661SOL     OW60539   9.675   7.116   4.806  0.4455 -0.3438  0.0323
18661SOL    HW160540   9.692   7.032   4.763 -0.5410 -0.7290  0.3762
18661SOL    HW260541   9.613   7.161   4.749  0.7805  0.0532 -0.0266
18662SOL     OW60542  11.564   7.326  10.643 -0.3109  0.1391 -0.1851
18662SOL    HW160543  11.494   7.332  10.707  0.9859  0.2488  1.3042
18662SOL    HW260544  11.553   7.403  10.587 -0.5772  0.9105  0.8998
18663SOL     OW60545  10.574   0.885  10.407  0.1244 -0.0633  0.0950
18663SOL    HW160546  10.544   0.813  10.352  0.5798 -0.9281  0.9643
18663SOL    HW260547  10.607   0.950  10.344 -1.1264 -0.2078 -0.7321
18664SOL     OW60548   8.481   0.347   3.836  0.0451 -0.7220 -0.5078
18664SOL    HW160549   8.541   0.274   3.848  0.6093 -0.2666 -0.4789
18664SOL    HW260550   8.451   0.340   3.746  0.8852 -0.4155 -0.8208
18665SOL     OW60551   8.204   7.693   1.936  0.4140  0.4134  0.7232
18665SOL    HW160552   8.220   7.625   2.003  1.2130  0.5455  0.6751
18665SOL    HW260553   8.148   7.757   1.980  0.0019 -0.0642  0.9055
18666SOL     OW60554  10.592   4.813   1.657  0.1152  0.4808  0.3287
18666SOL    HW160555  10.583   4.838   1.566 -0.3586  0.9515  0.4994
18666SOL    HW260556  10.685   4.793   1.668  0.4328  1.7258  0.0664
18667SOL     OW60557   7.795   7.191   6.252 -0.1105 -0.2756  0.0220
18667SOL    HW160558   7.788   7.212   6.159  0.1498 -0.8046 -0.1236
18667SOL    HW260559   7.865   7.247   6.284  0.6638 -0.9709 -0.3883
18668SOL     OW60560   1.355  11.802   8.170  0.0072 -0.4083  0.0518
18668SOL    HW160561   1.404  11.880   8.195 -1.2699  0.6897 -0.7466
18668SOL    HW260562   1.372  11.792   8.076  2.3276 -2.7201  0.5901
18669SOL     OW60563   2.832   5.048   6.686  0.6343  1.1903 -0.1669
18669SOL    HW160564   2.903   5.007   6.636 -0.5744 -2.8824  1.0081
18669SOL    HW260565   2.757   5.046   6.627 -0.3114 -1.8934  0.9078
18670SOL     OW60566   4.605   2.015   6.346  0.5136  0.0302 -0.5747
18670SOL    HW160567   4.658   2.094   6.355  0.0862  0.3763 -1.0390
18670SOL    HW260568   4.516   2.044   6.369  0.5960 -0.6621  0.7380
18671SOL     OW60569  11.513   7.801   5.239 -0.1840  0.0489 -0.0115
18671SOL    HW160570  11.432   7.849   5.256 -0.2607 -0.2773  0.5695
18671SOL    HW260571  11.485   7.720   5.195 -0.1790 -0.0928  0.2459
18672SOL     OW60572  10.786   1.612   4.639 -0.0979  0.3382  0.5981
18672SOL    HW160573  10.869   1.594   4.682  2.1209  1.8427 -2.5985
18672SOL    HW260574  10.780   1.546   4.570 -3.2957 -1.7496  2.6079
18673SOL     OW60575   2.375   0.931   6.886  0.1283 -0.1497 -0.3464
18673SOL    HW160576   2.304   0.994   6.898  1.1261  1.0685 -0.6260
18673SOL    HW260577   2.454   0.979   6.911  1.0174 -0.9728 -1.4872
18674SOL     OW60578   8.826   6.268   9.871 -0.4791 -0.3342  0.0059
18674SOL    HW160579   8.766   6.208   9.826 -1.1423  0.7347 -0.5540
18674SOL    HW260580   8.787   6.354   9.860  0.7063  0.2721  0.4073
18675SOL     OW60581   2.969   1.345   7.560  0.3942  0.5504  0.1652
18675SOL    HW160582   3.025   1.421   7.547 -0.9388  2.0858  2.6681
18675SOL    HW260583   3.000   1.305   7.640  1.3098 -1.8810 -1.2990
18676SOL     OW60584   5.240   5.492  10.031  0.2288 -0.0279 -0.1677
18676SOL    HW160585   5.240   5.525   9.941 -0.8852  1.2164  0.2538
18676SOL    HW260586   5.264   5.400  10.023  1.4222  0.3660 -1.6043
18677SOL     OW60587  11.011   4.295  10.925 -0.3955  0.0010  0.0761
18677SOL    HW160588  11.074   4.337  10.984  0.3858 -1.2956  0.1913
18677SOL    HW260589  10.941   4.360  10.917  1.0737  1.6305 -0.3157
18678SOL     OW60590   5.188   2.418  10.182  0.1092  0.5334  0.5615
18678SOL    HW160591   5.267   2.406  10.236  0.5059  1.0600  0.1117
18678SOL    HW260592   5.162   2.330  10.157  0.8404  0.3794  0.3165
18679SOL     OW60593   4.938   4.151   2.692  0.1805 -0.6125  0.4726
18679SOL    HW160594   4.974   4.239   2.701  1.0022 -0.9759  0.8786
18679SOL    HW260595   4.843   4.163   2.696  0.2677  0.2966  0.0453
18680SOL     OW60596  11.961   7.390   0.639  0.1051 -0.1336  0.2444
18680SOL    HW160597  11.867   7.372   0.627 -0.1197  0.1734  1.3968
18680SOL    HW260598  11.968   7.485   0.630  0.3688 -0.2001 -0.2299
18681SOL     OW60599   9.597   7.152  11.887 -0.5899 -0.4447  0.0243
18681SOL    HW160600   9.649   7.221  11.929 -1.8704  1.6187 -1.5693
18681SOL    HW260601   9.626   7.151  11.796 -0.2748 -2.3991  0.1020
18682SOL     OW60602   2.896  11.755   9.852 -0.1532  0.4721  0.5405
18682SOL    HW160603   2.849  11.838   9.854 -1.6101 -0.3192  0.8753
18682SOL    HW260604   2.876  11.714   9.936  0.5452 -0.2240  0.3802
18683SOL     OW60605   6.184   4.581   9.293 -0.4141 -0.1110  0.4108
18683SOL    HW160606   6.263   4.590   9.240 -1.3076 -0.2601 -1.0001
18683SOL    HW260607   6.216   4.572   9.382  1.1701 -0.5884 -0.1732
18684SOL     OW60608   5.839  10.158   7.908  0.7033 -0.1341 -0.1299
18684SOL    HW160609   5.886  10.159   7.991  0.5617 -0.6606 -0.0419
18684SOL    HW260610   5.750  10.129   7.931  0.8658 -1.0006 -0.5693
18685SOL     OW60611   2.147   2.193   5.340 -0.2151 -0.9907  0.2401
18685SOL    HW160612   2.109   2.142   5.269  1.1629  0.4703 -1.6210
18685SOL    HW260613   2.087   2.266   5.353  0.4012 -0.3245 -0.6200
18686SOL     OW60614  11.186   9.930   7.902  0.5810  0.2804  0.5125
18686SOL    HW160615  11.226   9.912   7.987  1.4707  1.4009  0.3513
18686SOL    HW260616  11.166  10.023   7.904 -0.9606 -0.0157  0.1224
18687SOL     OW60617   0.764   9.866  10.249 -0.1478 -0.3312  0.4006
18687SOL    HW160618   0.705   9.862  10.325 -0.1491 -2.6333  0.3502
18687SOL    HW260619   0.849   9.836  10.283 -0.3697 -2.3212 -0.6228
18688SOL     OW60620   3.490   2.738   6.003  0.1717 -0.7028  0.0834
18688SOL    HW160621   3.504   2.663   6.061  1.7665 -1.2041 -0.8877
18688SOL    HW260622   3.458   2.700   5.921 -1.2825 -0.0775  0.3341
18689SOL     OW60623   3.219   1.974   6.633 -0.3738  0.2114  0.7361
18689SOL    HW160624   3.217   1.879   6.617 -3.0581 -0.2005  2.7774
18689SOL    HW260625   3.243   2.012   6.549 -1.7601 -2.1726 -0.8503
18690SOL     OW60626  10.828   2.352   7.144 -0.6377  0.0162  0.3749
18690SOL    HW160627  10.861   2.328   7.231 -1.1833  0.0351  0.5923
18690SOL    HW260628  10.901   2.398   7.102 -1.0771  2.0412  1.6750
18691SOL     OW60629   1.401   3.962   8.218 -0.5659 -0.5857  0.2333
18691SOL    HW160630   1.465   3.959   8.289 -0.3015  1.1194  0.1116
18691SOL    HW260631   1.342   3.889   8.236 -0.0493 -0.6646  1.7750
18692SOL     OW60632   4.846   8.450   9.127 -0.1663 -0.1125 -0.4598
18692SOL    HW160633   4.902   8.408   9.192 -0.1563  1.0383  0.3200
18692SOL    HW260634   4.803   8.521   9.176  0.7233  1.5334 -1.9797
18693SOL     OW60635   4.475   4.438  10.013  0.6277  0.6733 -0.3725
18693SOL    HW160636   4.463   4.496   9.938  0.6762 -0.7095 -1.4988
18693SOL    HW260637   4.413   4.470  10.078 -2.7957 -0.6902 -2.6329
18694SOL     OW60638   9.263   8.679   4.976 -0.4440 -0.6668 -0.1405
18694SOL    HW160639   9.319   8.712   5.046 -1.4792 -0.0641  0.4213
18694SOL    HW260640   9.303   8.713   4.896 -0.3049  0.2180  0.2880
18695SOL     OW60641   5.278   1.960   1.703 -0.4400 -0.0152 -0.3027
18695SOL    HW160642   5.320   1.998   1.781  0.1581  2.1295 -1.5948
18695SOL    HW260643   5.191   2.000   1.701 -0.3382  0.1911 -0.8807
18696SOL     OW60644   7.027   1.066   5.004  0.9659  0.1431 -0.1482
18696SOL    HW160645   7.123   1.057   5.002  0.9752  0.3893 -0.8372
18696SOL    HW260646   7.003   1.095   4.916  0.0601 -1.7501 -0.5655
18697SOL     OW60647   2.250   6.170  10.139  0.1793 -0.7318  0.0978
18697SOL    HW160648   2.157   6.175  10.163  0.4876 -2.6785  2.0223
18697SOL    HW260649   2.254   6.101  10.073  0.3177 -1.1120  0.4981
18698SOL     OW60650   8.312  10.418  11.059 -0.2475  0.0194 -0.3276
18698SOL    HW160651   8.270  10.334  11.039 -1.2813  0.5713 -0.5087
18698SOL    HW260652   8.398  10.411  11.017  0.7675 -1.9557  1.8209
18699SOL     OW60653   2.135  10.927   2.924 -0.0143  0.0224 -0.2359
18699SOL    HW160654   2.228  10.907   2.936  0.3589  1.4729 -0.4647
18699SOL    HW260655   2.114  10.988   2.994 -1.0160 -0.8511  0.2645
18700SOL     OW60656   9.241   9.331   1.833 -0.2236  0.5073 -0.6196
18700SOL    HW160657   9.206   9.282   1.908  1.5943  1.5420  1.0072
18700SOL    HW260658   9.177   9.317   1.764 -0.2503 -3.4596 -0.0412
18701SOL     OW60659   0.569   8.126   7.416 -0.2180 -0.2941 -0.1670
18701SOL    HW160660   0.554   8.221   7.416  0.8744  0.0129 -3.3474
18701SOL    HW260661   0.664   8.117   7.428 -0.3476 -1.0313  0.3987
18702SOL     OW60662   3.157   9.226   7.504 -0.4357 -0.0193 -0.3114
18702SOL    HW160663   3.175   9.312   7.542  1.0220 -0.2758 -0.3486
18702SOL    HW260664   3.207   9.225   7.422 -1.7958 -0.2787 -1.1597
18703SOL     OW60665   3.614   7.609   7.413  0.2885  0.9923  0.2419
18703SOL    HW160666   3.636   7.615   7.506 -0.4405  1.5237  0.3891
18703SOL    HW260667   3.687   7.562   7.374  0.2713  0.1250  1.2050
18704SOL     OW60668   5.530   8.763   5.560  0.1074 -0.8474  0.2073
18704SOL    HW160669   5.543   8.833   5.496  1.8521  0.8697  2.2908
18704SOL    HW260670   5.563   8.684   5.516  0.9886  0.2004 -1.1087
18705SOL     OW60671   0.839   6.345   0.934 -0.4125 -0.5106  0.8091
18705SOL    HW160672   0.923   6.355   0.889 -1.0195  0.5275 -0.1163
18705SOL    HW260673   0.779   6.401   0.886 -1.2132  0.2264  2.6001
18706SOL     OW60674  10.622   9.703   3.405  0.3438 -0.2671  0.0091
18706SOL    HW160675  10.622   9.736   3.495  0.5158  0.7263 -0.3456
18706SOL    HW260676  10.566   9.764   3.357 -0.5468 -1.3532 -0.3696
18707SOL     OW60677  10.567   2.224  11.741  0.2206  0.2755  0.1334
18707SOL    HW160678  10.514   2.154  11.701  0.9470 -0.3036  0.1615
18707SOL    HW260679  10.513   2.255  11.814  0.0129 -0.4725  0.3151
18708SOL     OW60680   3.156   7.009  10.234  0.3141  0.5916 -0.7840
18708SOL    HW160681   3.115   7.065  10.168  0.5319  0.3048 -1.1701
18708SOL    HW260682   3.250   7.017  10.217  0.4235  1.1191 -0.0067
18709SOL     OW60683   9.115  10.232   4.344 -0.1800  0.6698  0.8226
18709SOL    HW160684   9.180  10.265   4.406  0.2235 -0.4640  1.0332
18709SOL    HW260685   9.080  10.153   4.386  0.7943 -0.6948 -0.7657
18710SOL     OW60686   7.485   8.317   3.848 -0.0062 -0.3881 -0.4820
18710SOL    HW160687   7.450   8.366   3.921  0.4530  0.2245 -0.6651
18710SOL    HW260688   7.418   8.251   3.828 -0.1901 -0.4717  0.3897
18711SOL     OW60689  10.691   0.339   4.486  0.1814 -0.1839  0.1498
18711SOL    HW160690  10.596   0.329   4.484  0.1021  0.1034  1.4918
18711SOL    HW260691  10.723   0.259   4.529  0.4673  0.1706  0.6020
18712SOL     OW60692   3.564   0.347   7.289 -0.2382 -0.0659  0.2038
18712SOL    HW160693   3.556   0.278   7.354  1.1574  0.5268  1.0613
18712SOL    HW260694   3.474   0.378   7.276 -0.4766  0.5022  2.6699
18713SOL     OW60695   7.270   8.883   1.877 -0.2579  0.6508 -0.6526
18713SOL    HW160696   7.247   8.942   1.805 -1.0779 -0.3016 -1.2071
18713SOL    HW260697   7.275   8.939   1.954 -0.5252  1.5150 -1.2503
18714SOL     OW60698   7.862   5.255   0.913  0.1389  0.1460  0.0975
18714SOL    HW160699   7.930   5.314   0.880 -0.7817  1.8379  1.1202
18714SOL    HW260700   7.796   5.312   0.950 -0.4437 -1.5653  1.8671
18715SOL     OW60701   8.061  11.135  11.172  0.0185  0.6205 -0.1052
18715SOL    HW160702   8.105  11.219  11.186  1.5445 -0.1595  0.0308
18715SOL    HW260703   8.132  11.074  11.152 -1.0701 -0.6139 -0.3499
18716SOL     OW60704  11.856   2.967   9.351  0.3288 -0.0357  0.3821
18716SOL    HW160705  11.818   2.921   9.425 -0.0230 -1.5164 -0.6869
18716SOL    HW260706  11.806   2.936   9.275  1.4712  0.5300 -0.6279
18717SOL     OW60707   4.728   1.238   6.018 -0.3950  0.5982 -0.1901
18717SOL    HW160708   4.667   1.304   5.986 -0.0170  1.0816  0.0714
18717SOL    HW260709   4.703   1.225   6.110 -0.6400  0.1756 -0.3128
18718SOL     OW60710   9.297   7.521   5.017  0.1389  0.6346  0.0770
18718SOL    HW160711   9.311   7.606   5.058 -2.1053  0.1744  2.0404
18718SOL    HW260712   9.217   7.531   4.966 -0.8548 -0.5493  1.3297
18719SOL     OW60713   3.855   8.526   2.500 -0.0893 -0.0301 -0.0514
18719SOL    HW160714   3.816   8.439   2.501  2.0851 -1.0674 -1.1561
18719SOL    HW260715   3.889   8.538   2.589 -1.5352  0.2787  0.4850
18720SOL     OW60716   0.961   0.845  10.525 -0.3622 -0.2286 -0.3302
18720SOL    HW160717   0.956   0.829  10.431 -3.6184 -2.0570 -0.0120
18720SOL    HW260718   0.927   0.764  10.564  1.6574  0.1570  2.4912
18721SOL     OW60719   7.141   2.923   7.754 -0.3340 -0.3067 -0.0337
18721SOL    HW160720   7.220   2.884   7.718  1.2739  1.6609  1.1802
18721SOL    HW260721   7.172   2.994   7.811 -2.9475  0.2349  0.8680
18722SOL     OW60722   9.561   7.892   1.448  0.1853  0.2780  0.1180
18722SOL    HW160723   9.583   7.878   1.540  0.2854  0.4485  0.1187
18722SOL    HW260724   9.483   7.838   1.434  0.4750 -0.1560  0.1685
18723SOL     OW60725  11.221   7.055   2.368 -0.9893 -0.3832  0.2335
18723SOL    HW160726  11.252   6.986   2.426  2.2046  0.0219 -0.7664
18723SOL    HW260727  11.218   7.134   2.423  1.5194 -0.1049  0.1085
18724SOL     OW60728   3.878   6.828   5.635 -0.4778  0.5295 -0.7148
18724SOL    HW160729   3.858   6.830   5.729 -0.7790  0.3375 -0.7744
18724SOL    HW260730   3.913   6.916   5.617 -0.0398  0.4365 -0.3453
18725SOL     OW60731   0.192   4.687   6.362  0.5216  0.3343 -0.0571
18725SOL    HW160732   0.231   4.688   6.449  2.3087 -0.7223 -0.7965
18725SOL    HW260733   0.098   4.703   6.377  0.9498  1.2361  1.9387
18726SOL     OW60734   3.051  11.007   9.305  0.3941 -0.3973  0.2184
18726SOL    HW160735   3.012  11.071   9.364  3.1501  0.1040  1.6503
18726SOL    HW260736   3.036  10.923   9.348  1.2477 -0.1615  0.9971
18727SOL     OW60737   2.437   7.828   6.317 -0.1623 -0.4926 -0.5726
18727SOL    HW160738   2.515   7.821   6.261 -0.0676  2.0411 -0.8584
18727SOL    HW260739   2.367   7.787   6.265  0.5575 -1.0010 -1.1686
18728SOL     OW60740   6.630   0.057   6.020  0.8118  0.0161 -0.3555
18728SOL    HW160741   6.611   0.083   6.111 -0.5336 -0.2943 -0.5440
18728SOL    HW260742   6.721   0.027   6.023  0.0151 -2.5611  1.4826
18729SOL     OW60743   9.521  10.053   5.684  0.4336  0.3925 -0.3235
18729SOL    HW160744   9.473   9.973   5.704  4.1720 -1.9384  0.1635
18729SOL    HW260745   9.527  10.055   5.589  0.0454  0.2802 -0.3502
18730SOL     OW60746   5.086   2.304   7.821 -0.1767  0.1193  0.4992
18730SOL    HW160747   5.136   2.269   7.747  2.0129  0.3840  1.7730
18730SOL    HW260748   5.088   2.235   7.887  0.6968  1.0708  1.5045
18731SOL     OW60749   9.042   7.755   2.507 -0.1162 -0.0828  0.2388
18731SOL    HW160750   9.124   7.742   2.555 -1.0190 -0.6062  1.7141
18731SOL    HW260751   8.994   7.819   2.560 -0.2508  1.0100 -1.1595
18732SOL     OW60752   1.512  11.235   6.248 -0.6368 -0.1007  0.2470
18732SOL    HW160753   1.488  11.278   6.330  0.2415 -1.2604  1.1481
18732SOL    HW260754   1.468  11.150   6.252 -2.0480  0.5168 -1.3323
18733SOL     OW60755   3.716   7.943   7.450 -0.0828 -0.2830  0.2931
18733SOL    HW160756   3.668   7.959   7.532  0.1828  1.0601  0.2161
18733SOL    HW260757   3.719   8.029   7.407  0.7873 -0.7302 -0.5787
18734SOL     OW60758   7.192   2.612   2.465 -0.5005 -0.3275 -0.5367
18734SOL    HW160759   7.164   2.701   2.484 -0.5013 -0.5827  0.7502
18734SOL    HW260760   7.189   2.567   2.549  2.1791 -0.8188 -0.6199
18735SOL     OW60761   9.031   8.252   0.512  0.2643 -0.5596 -0.2446
18735SOL    HW160762   8.993   8.198   0.442  0.0863  0.4290 -0.9314
18735SOL    HW260763   9.034   8.340   0.475 -0.6254  0.1555  1.3155
18736SOL     OW60764  10.142   4.070   9.482  0.1743  0.1617 -0.4092
18736SOL    HW160765  10.205   4.073   9.554 -0.7702  0.5599  0.4280
18736SOL    HW260766  10.146   3.980   9.450  0.8740  0.0820 -0.1154
18737SOL     OW60767   2.978   2.596   8.035 -0.1103  0.5871 -0.1274
18737SOL    HW160768   2.907   2.602   8.099  1.2079  1.7591  1.3404
18737SOL    HW260769   3.045   2.655   8.070  0.4570  1.7407 -2.9504
18738SOL     OW60770   5.206   9.835   3.309  0.2931  0.5674 -0.1177
18738SOL    HW160771   5.199   9.772   3.380  0.6843 -0.2832 -0.8124
18738SOL    HW260772   5.287   9.883   3.328 -0.2293  1.1754  0.6415
18739SOL     OW60773   4.193   1.065   8.964  0.3656 -0.7932  0.0447
18739SOL    HW160774   4.202   1.155   8.996 -1.3680 -1.4074  2.4996
18739SOL    HW260775   4.246   1.012   9.023 -1.0561 -1.7099  0.5308
18740SOL     OW60776   2.428  11.513   0.986  0.5414 -0.1804 -0.0177
18740SOL    HW160777   2.470  11.440   1.031  1.3284  0.3536  0.1263
18740SOL    HW260778   2.354  11.536   1.042  1.5798  0.5503  1.0928
18741SOL     OW60779   2.384   1.297   1.350 -0.0912 -0.2057  0.1836
18741SOL    HW160780   2.452   1.311   1.285  2.7278  0.4231  2.9997
18741SOL    HW260781   2.317   1.362   1.329  1.3616  0.9084 -1.2341
18742SOL     OW60782  10.212   3.808  11.218  0.7247  0.3545 -0.0166
18742SOL    HW160783  10.186   3.734  11.273 -2.6712  0.7975 -0.8038
18742SOL    HW260784  10.238   3.767  11.135 -0.3886 -0.0255 -0.1939
18743SOL     OW60785   0.432   1.348   0.886  0.7081  0.4240  0.2396
18743SOL    HW160786   0.521   1.345   0.850 -0.1055  1.5882 -2.0632
18743SOL    HW260787   0.444   1.383   0.975  2.5721  0.0603  0.1799
18744SOL     OW60788   8.238   3.170   4.176 -0.5131 -0.3545  0.3021
18744SOL    HW160789   8.152   3.139   4.149 -1.6591  2.0655  0.9330
18744SOL    HW260790   8.295   3.151   4.102 -2.3877  1.2448 -1.6536
18745SOL     OW60791   1.538   6.965   3.305 -0.2153 -0.3845 -0.0059
18745SOL    HW160792   1.583   6.952   3.389 -1.2251  2.0155  0.9993
18745SOL    HW260793   1.594   7.024   3.256 -0.5576 -0.2252 -0.2097
18746SOL     OW60794   5.058   4.264   1.538  0.2386 -0.5172 -0.4180
18746SOL    HW160795   5.090   4.354   1.548  1.4170 -1.0047  0.3851
18746SOL    HW260796   5.077   4.242   1.446 -1.0986  0.4150 -0.9495
18747SOL     OW60797   4.865   5.598   7.942  0.0010 -0.0514  0.1531
18747SOL    HW160798   4.774   5.627   7.933  0.4149  0.9656 -1.2141
18747SOL    HW260799   4.872   5.522   7.883 -0.4324 -1.4117  1.7829
18748SOL     OW60800   8.338   7.887   0.279 -0.7326 -0.0044 -0.4300
18748SOL    HW160801   8.423   7.843   0.280  0.0959  1.4018  1.9354
18748SOL    HW260802   8.284   7.835   0.339 -0.8800  0.1994 -0.3865
18749SOL     OW60803   9.378   3.662   9.126  0.0638  0.4322 -0.0255
18749SOL    HW160804   9.293   3.619   9.117  0.3454 -0.1453  0.0802
18749SOL    HW260805   9.442   3.592   9.120  0.5630  0.9235 -0.5906
18750SOL     OW60806   3.594   5.418   3.180 -0.4625 -0.6858 -0.3533
18750SOL    HW160807   3.665   5.385   3.124  2.1306 -0.6847  2.5941
18750SOL    HW260808   3.599   5.513   3.172 -0.9997 -0.7194 -1.1099
18751SOL     OW60809   0.904  11.903   7.084  0.3852 -0.2871  0.1907
18751SOL    HW160810   0.846  11.917   7.159  0.9371 -0.2516  0.6130
18751SOL    HW260811   0.861  11.834   7.033 -1.6529  1.8311 -1.1820
18752SOL     OW60812   6.994   0.087   3.843 -0.3949 -0.0577 -0.1936
18752SOL    HW160813   7.030   0.176   3.833 -1.2016  0.0895 -2.5225
18752SOL    HW260814   6.906   0.100   3.878 -0.0905 -0.0321  0.5685
18753SOL     OW60815   9.352  10.370   3.431  0.0904 -0.2271  0.6097
18753SOL    HW160816   9.263  10.403   3.421  0.7051  1.6981  1.1083
18753SOL    HW260817   9.342  10.289   3.481 -1.3365  0.2189  1.0959
18754SOL     OW60818   3.696  11.475   8.009 -0.5362 -0.0425  0.9296
18754SOL    HW160819   3.737  11.454   7.925 -1.2025  1.5415  0.1600
18754SOL    HW260820   3.604  11.492   7.986 -0.6136  0.8937  1.8967
18755SOL     OW60821   8.222   6.822   9.109  0.5449  0.1179 -0.0020
18755SOL    HW160822   8.173   6.879   9.049  2.3016 -0.2196 -1.8707
18755SOL    HW260823   8.182   6.736   9.099 -0.2825  0.4136  0.6614
18756SOL     OW60824   4.587   4.366   9.308  0.0814  0.0483  0.8414
18756SOL    HW160825   4.577   4.325   9.394  0.9384 -0.2440  0.8085
18756SOL    HW260826   4.676   4.401   9.308  0.8480 -1.7238 -0.6649
18757SOL     OW60827   6.572   0.570   6.423  0.1598  0.4968  0.5569
18757SOL    HW160828   6.598   0.645   6.369  0.4366 -0.2657 -0.4031
18757SOL    HW260829   6.589   0.494   6.367  0.3734 -0.3149  1.7027
18758SOL     OW60830   7.852   0.258   0.234 -0.4190  0.1883 -0.1234
18758SOL    HW160831   7.862   0.301   0.319  0.1526  0.3741 -0.2808
18758SOL    HW260832   7.771   0.207   0.242 -0.8270  0.8794  0.2442
18759SOL     OW60833  11.727  10.816  10.631  0.4962 -0.2853  0.0065
18759SOL    HW160834  11.759  10.747  10.689 -0.5556 -1.6372 -0.9351
18759SOL    HW260835  11.765  10.896  10.665  1.2173 -1.2439  1.5623
18760SOL     OW60836   4.714   7.853  11.870  0.6285  0.2446 -0.7185
18760SOL    HW160837   4.741   7.912  11.800  0.7413  0.6559 -0.3349
18760SOL    HW260838   4.651   7.794  11.829  0.8339  0.3592 -1.2092
18761SOL     OW60839   0.586   0.504   9.163  0.0217  0.9506 -0.0686
18761SOL    HW160840   0.633   0.458   9.233 -3.6231  1.3296  2.9771
18761SOL    HW260841   0.596   0.596   9.185  1.2474  1.2952 -1.8886
18762SOL     OW60842   9.082   2.247   0.095  0.1293  0.2197  0.0475
18762SOL    HW160843   9.068   2.304   0.019  0.8921 -0.2609 -0.4827
18762SOL    HW260844   9.003   2.255   0.147  0.3200  1.9635  0.1286
18763SOL     OW60845   3.259   7.587   2.046  0.0985  0.6470  0.2521
18763SOL    HW160846   3.187   7.628   1.998  2.5688  2.6205 -2.1122
18763SOL    HW260847   3.276   7.505   1.999 -1.2465 -0.4155  1.5297
18764SOL     OW60848   5.740   2.268  11.623  0.2887 -0.0091  0.0803
18764SOL    HW160849   5.724   2.173  11.623 -2.2774  0.3491 -0.8632
18764SOL    HW260850   5.765   2.288  11.533  0.8503  0.2275  0.2840
18765SOL     OW60851  11.569   2.732   4.090 -0.0198  0.4537  0.1581
18765SOL    HW160852  11.483   2.727   4.131  0.1372 -0.1226  0.4213
18765SOL    HW260853  11.587   2.643   4.060  0.9547  0.3216  1.0800
18766SOL     OW60854   3.823   2.005   8.517 -0.4955  0.1183  0.1077
18766SOL    HW160855   3.781   1.954   8.449  2.5693  0.3487 -2.1477
18766SOL    HW260856   3.856   1.940   8.580 -1.3233 -0.2416  0.1857
18767SOL     OW60857   0.328   7.966   7.403  0.9390  0.3825  0.1214
18767SOL    HW160858   0.349   7.875   7.381 -0.3655  0.2132 -0.4522
18767SOL    HW260859   0.414   8.007   7.414  1.5562 -0.8098  0.0041
18768SOL     OW60860  11.493   5.563   3.754  0.1522 -0.3277 -0.0097
18768SOL    HW160861  11.422   5.566   3.691  1.3909  2.8000 -1.4973
18768SOL    HW260862  11.568   5.528   3.705  0.6802  0.4524  0.2162
18769SOL     OW60863   8.577   8.605  10.709  0.2727 -0.1334 -0.3008
18769SOL    HW160864   8.494   8.651  10.721  0.8126  0.7277  0.1988
18769SOL    HW260865   8.611   8.638  10.626  0.8589  0.7050  0.2589
18770SOL     OW60866   4.840   6.324   9.747  0.1582 -0.1997 -0.2598
18770SOL    HW160867   4.829   6.285   9.833 -2.7277  0.1454 -0.3712
18770SOL    HW260868   4.934   6.321   9.730  0.7722 -0.4350  2.7908
18771SOL     OW60869  10.126  11.565  11.798  0.0797 -0.0971  0.5429
18771SOL    HW160870  10.053  11.611  11.839  2.1487  2.5912  1.4964
18771SOL    HW260871  10.140  11.611  11.715  0.2568 -1.0489  0.0345
18772SOL     OW60872   9.688   2.353  11.396 -0.2202  0.3368 -0.0123
18772SOL    HW160873   9.653   2.440  11.378 -0.4069  0.4311  0.7742
18772SOL    HW260874   9.632   2.319  11.466 -0.7735 -0.8050 -0.9685
18773SOL     OW60875   3.462   1.736  11.461  0.3621 -0.7137  0.2147
18773SOL    HW160876   3.474   1.780  11.545  1.2340 -0.5393  0.0112
18773SOL    HW260877   3.543   1.687  11.448 -0.5538 -2.3468  0.3966
18774SOL     OW60878   5.897   4.801   6.038 -0.1283 -0.2047  0.1802
18774SOL    HW160879   5.886   4.719   5.991 -0.2883  1.5716 -3.1750
18774SOL    HW260880   5.814   4.847   6.025  0.3308  0.9239  1.0822
18775SOL     OW60881   1.470   7.878  11.141  0.5547  0.0564  0.0327
18775SOL    HW160882   1.445   7.791  11.112 -0.3947  0.1074  0.6819
18775SOL    HW260883   1.412   7.897  11.214  0.5778  1.3342 -0.2545
18776SOL     OW60884  11.004   8.375   2.027 -0.1459  0.0957  0.0087
18776SOL    HW160885  10.971   8.288   2.050  0.1594  0.2648  1.1908
18776SOL    HW260886  10.940   8.435   2.064  0.6667  0.3934  0.9852
18777SOL     OW60887   1.182   1.535   1.856 -0.0170  0.1534  0.0164
18777SOL    HW160888   1.149   1.605   1.800  0.2223  0.0770 -0.2226
18777SOL    HW260889   1.103   1.494   1.892 -0.2884 -1.0840 -1.8327
18778SOL     OW60890   1.377   2.593   5.483  0.0369  0.1742 -0.0176
18778SOL    HW160891   1.287   2.615   5.504  0.1483 -0.3641  1.1433
18778SOL    HW260892   1.377   2.575   5.389 -0.9563  0.6419 -0.1151
18779SOL     OW60893  12.077   8.401   0.173  0.0530  0.6032  0.7651
18779SOL    HW160894  12.058   8.323   0.226 -1.4365  1.6065  1.8039
18779SOL    HW260895  12.085   8.368   0.084 -0.1185 -0.7995  1.2373
18780SOL     OW60896   9.773   9.560   1.327 -0.3516 -0.1396  0.1788
18780SOL    HW160897   9.842   9.506   1.366 -2.6748 -1.5420  2.6456
18780SOL    HW260898   9.794   9.649   1.353  0.5857 -0.5138  0.7645
18781SOL     OW60899   5.484   7.814   2.622 -0.4002  0.0657  0.1289
18781SOL    HW160900   5.566   7.773   2.653  0.8682  2.5467  0.3089
18781SOL    HW260901   5.513   7.880   2.560 -2.5395 -0.8614 -1.9839
18782SOL     OW60902   0.570   9.915  10.434  0.3218 -0.1492 -0.0466
18782SOL    HW160903   0.630   9.919  10.508 -0.5052 -0.3603  0.6518
18782SOL    HW260904   0.519   9.996  10.440 -0.2281 -0.4985  0.0365
18783SOL     OW60905   8.011   6.480   8.808 -0.0026  0.1317  0.6937
18783SOL    HW160906   8.070   6.476   8.732 -0.3914 -0.2653  0.4114
18783SOL    HW260907   7.927   6.451   8.774 -0.2455  0.2272  1.2163
18784SOL     OW60908   5.452   7.115  11.338  0.0381  0.0348 -0.5765
18784SOL    HW160909   5.510   7.190  11.334 -1.5429  1.3674  0.1148
18784SOL    HW260910   5.366   7.152  11.360 -0.4681 -2.1323  1.5266
18785SOL     OW60911   0.242   3.505   9.136  0.0917 -0.2150 -0.0705
18785SOL    HW160912   0.271   3.529   9.048 -1.1149  0.3124 -0.3503
18785SOL    HW260913   0.274   3.415   9.148  1.0543  0.0333 -0.6746
18786SOL     OW60914   9.392   5.853   5.571  0.0463 -0.2393 -0.1873
18786SOL    HW160915   9.369   5.763   5.596 -1.9961  0.9093  2.5522
18786SOL    HW260916   9.309   5.896   5.555  0.9151  1.4549 -0.3663
18787SOL     OW60917   8.620   6.353   3.193  0.5993 -0.2340 -0.0903
18787SOL    HW160918   8.681   6.279   3.199 -0.2379 -1.0320 -0.9821
18787SOL    HW260919   8.669   6.428   3.227  1.9173 -0.9456 -0.3486
18788SOL     OW60920   4.784   1.697  11.827  0.2426  0.3695  0.3449
18788SOL    HW160921   4.719   1.667  11.890  1.8600  0.9583  2.3876
18788SOL    HW260922   4.770   1.791  11.819  0.8750  0.5105  0.8461
18789SOL     OW60923  11.041   8.203   5.325  0.2863 -0.5118  0.0914
18789SOL    HW160924  11.010   8.289   5.296  2.1143  0.0093 -0.4588
18789SOL    HW260925  11.025   8.203   5.420  2.1566  1.3341  0.4791
18790SOL     OW60926   8.353   2.596   8.756  0.4556 -0.0781  0.5555
18790SOL    HW160927   8.385   2.669   8.704  1.1937 -0.8403 -0.0834
18790SOL    HW260928   8.267   2.575   8.719  0.6902 -0.1894  0.0729
18791SOL     OW60929   0.889   5.238   8.670 -0.0329  0.1007 -0.2795
18791SOL    HW160930   0.946   5.314   8.682 -2.0707  1.5758  0.8593
18791SOL    HW260931   0.822   5.269   8.609  0.2101 -1.4879 -1.3946
18792SOL     OW60932   1.460  10.430   4.441 -0.5352 -0.1603 -0.7657
18792SOL    HW160933   1.519  10.379   4.496  3.0436  1.6638 -2.5996
18792SOL    HW260934   1.441  10.509   4.493  0.2977  0.1495 -0.9241
18793SOL     OW60935  11.925   1.698  10.444  0.1558  0.3560  0.5190
18793SOL    HW160936  11.897   1.752  10.518  0.7044  2.7184 -0.8899
18793SOL    HW260937  11.844   1.681  10.396  0.0974  0.7702  0.4610
18794SOL     OW60938   9.043   8.790   3.661 -0.1505 -0.6799 -1.2485
18794SOL    HW160939   9.109   8.858   3.651 -0.7095  0.0502 -0.2191
18794SOL    HW260940   9.011   8.774   3.573  1.7761 -1.4638 -1.8532
18795SOL     OW60941   7.123   9.252   7.606  0.2781 -0.0307  0.2112
18795SOL    HW160942   7.057   9.320   7.591  0.6901  1.4204  3.8465
18795SOL    HW260943   7.195   9.298   7.650  2.5847 -2.0777 -1.1874
18796SOL     OW60944   5.623   3.905   6.620 -0.8443  0.5995 -0.2428
18796SOL    HW160945   5.655   3.882   6.707  2.0997  1.7959 -0.8976
18796SOL    HW260946   5.546   3.849   6.607 -0.6201 -0.5163  2.5871
18797SOL     OW60947   1.980   7.078   4.013 -0.1886  1.1059  0.1324
18797SOL    HW160948   2.021   7.011   3.958  0.6206  1.4538  0.2910
18797SOL    HW260949   1.976   7.155   3.957 -1.6898  0.7782 -0.2555
18798SOL     OW60950   4.375   4.908   3.808  0.1723 -0.1926 -1.0359
18798SOL    HW160951   4.355   4.817   3.829 -0.2536  0.3971  1.4864
18798SOL    HW260952   4.385   4.910   3.713  2.3372 -3.2821 -1.0225
18799SOL     OW60953   6.684   1.756   6.003  0.3498  0.2523 -0.2680
18799SOL    HW160954   6.665   1.849   6.013 -1.0742 -0.1899  1.6484
18799SOL    HW260955   6.605   1.720   5.964  0.2741 -0.3954  0.4738
18800SOL     OW60956  11.729   4.543   2.344  0.1383  0.9034  0.0661
18800SOL    HW160957  11.709   4.616   2.402  1.4213 -0.0860  1.8412
18800SOL    HW260958  11.814   4.511   2.373 -0.6063 -1.6352 -0.2605
18801SOL     OW60959   5.158  11.332   6.174 -0.5469 -0.1081  0.1474
18801SOL    HW160960   5.075  11.308   6.132  0.7181 -1.5886 -1.6788
18801SOL    HW260961   5.221  11.337   6.102  1.3862 -0.9986  1.6731
18802SOL     OW60962  11.918   3.221   3.961 -0.2016 -0.5590  0.4570
18802SOL    HW160963  11.838   3.253   4.002 -1.0782 -1.8819 -0.1635
18802SOL    HW260964  11.899   3.130   3.937  1.4590 -0.8828  0.2242
18803SOL     OW60965   2.407   2.440   2.053  0.2444  0.1674  0.2041
18803SOL    HW160966   2.424   2.447   1.959  0.5498  0.9100  0.3060
18803SOL    HW260967   2.411   2.346   2.072 -2.2336 -0.2418 -0.9417
18804SOL     OW60968   6.313   8.862  10.472 -0.5557  0.0612 -0.8643
18804SOL    HW160969   6.234   8.867  10.525 -0.0279 -0.0798 -0.0310
18804SOL    HW260970   6.321   8.948  10.432 -0.5021  0.4615 -0.0108
18805SOL     OW60971  10.249   6.699   4.803 -0.1025  0.2447  0.3118
18805SOL    HW160972  10.207   6.770   4.755 -0.5522 -0.1460  0.1209
18805SOL    HW260973  10.252   6.730   4.893  1.5599  1.3581 -0.0923
18806SOL     OW60974   1.640   5.181   7.709 -0.2216 -0.3854  0.0390
18806SOL    HW160975   1.701   5.195   7.636  1.7221 -0.8782  1.4941
18806SOL    HW260976   1.671   5.240   7.778 -0.5705 -1.6346  1.3006
18807SOL     OW60977   4.442   0.404   0.762 -0.3481  0.2706  0.2911
18807SOL    HW160978   4.467   0.466   0.694  1.1217 -0.1128  0.4358
18807SOL    HW260979   4.406   0.329   0.715 -0.4572  0.4986  0.0094
18808SOL     OW60980   3.191   7.568   3.531 -0.8611 -0.3193 -0.3251
18808SOL    HW160981   3.204   7.563   3.437 -0.5414  1.4978 -0.4150
18808SOL    HW260982   3.157   7.482   3.555 -2.7237 -0.2372 -2.3694
18809SOL     OW60983   2.447   4.762   2.411  0.4140  0.0654 -0.3497
18809SOL    HW160984   2.378   4.695   2.416 -1.2686  1.5541 -2.2455
18809SOL    HW260985   2.459   4.789   2.502 -1.6471 -0.1378  0.0536
18810SOL     OW60986   7.142   4.209   7.486  0.0106 -0.2500  0.1949
18810SOL    HW160987   7.174   4.251   7.406 -0.7973 -1.5412 -0.8669
18810SOL    HW260988   7.048   4.228   7.487 -0.2882 -1.5583 -0.0633
18811SOL     OW60989  12.014  11.441   4.815 -0.2746  0.7261 -0.1713
18811SOL    HW160990  11.963  11.478   4.887  1.9977  1.7539  1.0179
18811SOL    HW260991  12.035  11.516   4.759  2.6696  1.0708  1.1820
18812SOL     OW60992   0.187   0.419   7.936 -0.0644  0.0619 -0.1480
18812SOL    HW160993   0.197   0.342   7.992 -0.1506  0.3779  0.3071
18812SOL    HW260994   0.139   0.387   7.860 -2.0575  0.0904  1.0080
18813SOL     OW60995   1.067   3.915   8.103  0.1652 -0.1718 -0.2673
18813SOL    HW160996   1.123   3.861   8.159 -0.7899 -1.5085 -0.5496
18813SOL    HW260997   0.979   3.901   8.136 -0.0487  1.9716  0.2291
18814SOL     OW60998  11.449  11.054   6.286 -0.3698  0.0314  0.1600
18814SOL    HW160999  11.518  11.071   6.222 -0.8530 -0.3533 -0.4740
18814SOL    HW261000  11.380  11.117   6.263  0.3872  1.5549  1.8061
18815SOL     OW61001   7.449   6.564   4.811  0.8717 -0.0593 -0.0964
18815SOL    HW161002   7.521   6.627   4.812  1.8842 -1.1786  1.3492
18815SOL    HW261003   7.384   6.602   4.870  1.5283 -0.3979  0.8639
18816SOL     OW61004   7.054   8.824   5.793 -0.0665 -0.7555 -0.1961
18816SOL    HW161005   7.028   8.905   5.750  2.9653 -1.5610 -4.1282
18816SOL    HW261006   6.980   8.765   5.781 -0.7770  0.2629 -0.9328
18817SOL     OW61007  10.188   9.282  10.011  0.0191 -0.5040  0.4035
18817SOL    HW161008  10.230   9.337   9.944 -0.0835  0.3064  0.9909
18817SOL    HW261009  10.261   9.237  10.053  0.0932 -0.9326 -0.1726
18818SOL     OW61010   6.711  11.576   6.882 -0.0688 -0.1402 -0.2294
18818SOL    HW161011   6.626  11.537   6.903 -0.0637 -0.2055 -0.3276
18818SOL    HW261012   6.689  11.657   6.836 -0.0870 -0.7950 -1.4286
18819SOL     OW61013   1.106   5.814   0.140  0.1199 -0.1612  0.2016
18819SOL    HW161014   1.201   5.816   0.125  0.0855 -1.1779 -0.2338
18819SOL    HW261015   1.070   5.777   0.060 -0.5672 -0.5926  0.6958
18820SOL     OW61016   0.049  10.152   3.394 -0.0288 -0.1726 -0.1213
18820SOL    HW161017   0.000  10.214   3.448 -1.1683  0.0256 -1.3077
18820SOL    HW261018   0.025  10.066   3.429 -0.2380 -0.0214  0.1126
18821SOL     OW61019   6.528   0.016   6.645  0.4621  0.2292 -0.2271
18821SOL    HW161020   6.623   0.004   6.637  0.7530  0.2863  2.3154
18821SOL    HW261021   6.496  -0.070   6.673  0.0546  0.6902  0.7626
18822SOL     OW61022   1.798   6.104   6.371  0.0052  0.0005 -0.1241
18822SOL    HW161023   1.782   6.013   6.348 -4.0896  0.5954 -0.2752
18822SOL    HW261024   1.810   6.148   6.287  1.9519 -0.2780 -0.0521
18823SOL     OW61025   5.299  10.234   3.276  0.0649  0.0648  0.2833
18823SOL    HW161026   5.335  10.155   3.316  1.9535  0.5328 -0.3835
18823SOL    HW261027   5.243  10.272   3.344  0.4441 -0.9673  1.2083
18824SOL     OW61028   3.817   8.719   9.183  0.3717  0.0557  0.0594
18824SOL    HW161029   3.739   8.770   9.204  0.2567 -0.3098  0.5213
18824SOL    HW261030   3.830   8.661   9.258  0.8339 -0.1954 -0.2055
18825SOL     OW61031  11.688   2.162   7.703  0.0082  0.3187 -0.3834
18825SOL    HW161032  11.643   2.180   7.621 -1.2148 -2.1830 -0.3376
18825SOL    HW261033  11.626   2.187   7.772 -0.1149 -0.2920 -0.2694
18826SOL     OW61034   9.607   9.261   2.173 -0.1671 -0.3354  0.5114
18826SOL    HW161035   9.645   9.276   2.087  0.2579 -0.4040  0.6841
18826SOL    HW261036   9.566   9.344   2.196 -0.3117 -0.3272  0.2299
18827SOL     OW61037  11.007   9.518  10.302 -0.2202 -0.3106  0.4596
18827SOL    HW161038  11.009   9.604  10.344 -2.6201 -0.4653  1.0584
18827SOL    HW261039  10.914   9.502  10.284  0.2890 -2.2243 -0.8250
18828SOL     OW61040   4.245  10.611   0.578  0.6069  0.1118 -0.0649
18828SOL    HW161041   4.230  10.531   0.528 -1.7399  0.2148  0.3980
18828SOL    HW261042   4.339  10.611   0.595  0.9467 -1.5753 -1.6654
18829SOL     OW61043   0.076   5.530   9.162 -0.3019  0.5379 -0.6062
18829SOL    HW161044   0.021   5.472   9.110 -0.8177 -0.0132  0.5225
18829SOL    HW261045   0.044   5.519   9.252  1.5736  0.2722  0.0723
18830SOL     OW61046   2.574   9.665   4.702  0.1481  0.6790 -0.2876
18830SOL    HW161047   2.514   9.688   4.631  0.4821  0.2619 -0.7063
18830SOL    HW261048   2.544   9.579   4.731  2.5080 -1.1397 -2.7193
18831SOL     OW61049   9.163   7.391   7.925  0.4316 -0.0293 -0.0139
18831SOL    HW161050   9.200   7.477   7.948 -0.6665  0.4332  0.0958
18831SOL    HW261051   9.219   7.328   7.970  0.7228  0.6791  0.6359
18832SOL     OW61052   2.756   3.365   8.295 -0.1212  0.0836 -0.0257
18832SOL    HW161053   2.668   3.398   8.318 -0.2990  0.3992 -1.1053
18832SOL    HW261054   2.771   3.293   8.355 -1.2024 -0.0791  0.0685
18833SOL     OW61055   1.771   0.119   7.017  0.8311 -0.7826 -0.0244
18833SOL    HW161056   1.719   0.117   6.936  0.9067  0.0362 -0.0998
18833SOL    HW261057   1.773   0.028   7.046  0.1184 -0.9636 -0.5100
18834SOL     OW61058   1.223  11.383   3.612 -0.0476  0.5280 -0.3701
18834SOL    HW161059   1.180  11.320   3.555  1.6677 -0.0878 -1.0717
18834SOL    HW261060   1.163  11.395   3.686 -0.6770 -1.4976 -0.5068
18835SOL     OW61061   0.384   2.249   7.889 -0.5454 -0.3046  0.2839
18835SOL    HW161062   0.345   2.184   7.948 -1.6604 -0.6647 -0.8194
18835SOL    HW261063   0.314   2.312   7.873  0.3950  0.9845  0.9974
18836SOL     OW61064  11.202   8.833   9.561  0.1044  0.2053 -0.0155
18836SOL    HW161065  11.141   8.804   9.494  0.4192  0.7961 -0.5662
18836SOL    HW261066  11.154   8.825   9.643 -0.2625 -0.5901 -0.2989
18837SOL     OW61067   2.313  11.852   8.901 -0.1082  0.1312  0.0568
18837SOL    HW161068   2.286  11.778   8.846  2.0999 -0.0546 -0.8780
18837SOL    HW261069   2.303  11.929   8.845  0.8843  0.1029 -0.1713
18838SOL     OW61070   0.338   1.434   4.145  1.1790  0.1803  0.1971
18838SOL    HW161071   0.395   1.505   4.114  1.4875 -0.1141  0.0892
18838SOL    HW261072   0.389   1.355   4.131  0.5040 -0.1482 -0.4941
18839SOL     OW61073   7.132   1.195   0.435  0.5153  0.3753 -0.0391
18839SOL    HW161074   7.111   1.287   0.446 -0.1619  0.1632  0.5167
18839SOL    HW261075   7.194   1.193   0.362  0.1324  1.2132 -0.3978
18840SOL     OW61076  10.507   3.259   0.431  0.1917  0.0183  0.3151
18840SOL    HW161077  10.564   3.331   0.405  1.5526 -2.0261 -2.9774
18840SOL    HW261078  10.450   3.243   0.356 -0.9850 -1.4858  1.4421
18841SOL     OW61079   7.321   1.457   3.424 -0.0368 -1.1583 -0.0280
18841SOL    HW161080   7.330   1.363   3.413 -1.2295 -1.4380  1.1188
18841SOL    HW261081   7.227   1.474   3.412  0.2072 -0.0552 -0.5523
18842SOL     OW61082   3.408   1.436  10.150  0.1269 -0.1802  0.4353
18842SOL    HW161083   3.373   1.457  10.236  1.5068 -0.9425  1.2047
18842SOL    HW261084   3.501   1.418  10.164  0.9814  2.0911 -1.5860
18843SOL     OW61085  10.458   2.785   0.109  0.5378 -0.1190  0.2081
18843SOL    HW161086  10.370   2.758   0.082  0.1653  2.8730 -2.0477
18843SOL    HW261087  10.458   2.773   0.204 -2.3803 -0.0251  0.3028
18844SOL     OW61088   8.871  10.764   1.781 -0.2294 -0.2701 -0.2851
18844SOL    HW161089   8.880  10.855   1.752  0.1576  0.4495  1.9074
18844SOL    HW261090   8.778  10.755   1.802  0.0581  0.3653  1.5316
18845SOL     OW61091   6.190   7.418   0.924  0.4034 -0.2738  0.2656
18845SOL    HW161092   6.124   7.395   0.989 -0.6451 -0.5365 -0.8546
18845SOL    HW261093   6.188   7.346   0.861 -0.9125  1.4232 -1.7693
18846SOL     OW61094   4.525  11.800  10.009  0.4208 -0.1790  0.1397
18846SOL    HW161095   4.512  11.893  10.026  1.0292  0.0038 -0.3416
18846SOL    HW261096   4.452  11.775   9.952  0.8346  0.2663 -0.6058
18847SOL     OW61097   4.473   3.102   8.540  0.0296 -0.4014 -0.1938
18847SOL    HW161098   4.433   3.016   8.530 -0.3198 -0.1899 -0.7033
18847SOL    HW261099   4.446   3.132   8.626  0.1073 -0.7775 -0.0365
18848SOL     OW61100   9.514  10.836   2.933  0.1535  0.3373 -0.1196
18848SOL    HW161101   9.446  10.834   2.866 -0.7250  2.3230  0.6397
18848SOL    HW261102   9.585  10.888   2.895  0.5033 -0.2111 -0.2323
18849SOL     OW61103   8.965   3.755   4.900  0.0525  0.0019 -0.4842
18849SOL    HW161104   9.027   3.708   4.845  1.0123 -0.7640  1.1785
18849SOL    HW261105   9.012   3.834   4.927  0.3143 -0.5654  0.7618
18850SOL     OW61106   3.802   9.474  11.807  0.4797  0.4383  0.2946
18850SOL    HW161107   3.748   9.414  11.859  3.5889 -0.8900  2.3146
18850SOL    HW261108   3.794   9.558  11.851 -2.8499  1.4026 -1.7710
18851SOL     OW61109   2.451   8.979   9.083 -0.1594  0.1284  0.5213
18851SOL    HW161110   2.518   8.936   9.136  1.0134  1.7880  0.4677
18851SOL    HW261111   2.446   8.927   9.003  2.5115  1.0036 -0.3155
18852SOL     OW61112   3.498   6.563   9.278 -0.4030 -0.4781  0.4019
18852SOL    HW161113   3.490   6.658   9.266  0.9891 -0.0020  2.7546
18852SOL    HW261114   3.544   6.533   9.199 -0.1030  0.9136  0.0239
18853SOL     OW61115   7.177   3.306  11.788  0.6480  0.1538 -0.2012
18853SOL    HW161116   7.085   3.292  11.811  0.6303  1.2130  0.4607
18853SOL    HW261117   7.174   3.367  11.714  0.8206  1.4407  0.8120
18854SOL     OW61118   9.251   8.624   8.145 -0.1179 -0.3162 -0.7324
18854SOL    HW161119   9.298   8.556   8.194 -0.7045 -0.4254 -0.3021
18854SOL    HW261120   9.275   8.706   8.188  0.8837 -0.1967 -1.4855
18855SOL     OW61121   7.911   1.590   4.571 -0.2015 -0.4839  0.0428
18855SOL    HW161122   7.859   1.510   4.581  1.3194 -1.8555 -2.1748
18855SOL    HW261123   8.001   1.560   4.568  0.6231  1.6235  1.5604
18856SOL     OW61124   5.110   1.209   6.744 -0.0760 -0.1923  0.7549
18856SOL    HW161125   5.019   1.222   6.717  0.5567  0.4409 -1.2482
18856SOL    HW261126   5.162   1.237   6.669  1.7709 -1.7046  1.3735
18857SOL     OW61127   4.560   7.482   7.882 -0.0784 -0.1681  0.6768
18857SOL    HW161128   4.644   7.454   7.844  0.5326  1.3119  0.8715
18857SOL    HW261129   4.585   7.533   7.959 -1.1246  1.0747  0.2248
18858SOL     OW61130   2.632  10.192   1.876  0.8972  0.2808  0.1172
18858SOL    HW161131   2.686  10.187   1.797  0.7480 -4.3690  0.0438
18858SOL    HW261132   2.695  10.184   1.949  0.7566  1.1993  0.3515
18859SOL     OW61133   7.278   8.153   5.797  0.7312 -0.2315  0.1286
18859SOL    HW161134   7.259   8.148   5.890 -0.9151 -0.2286 -0.1799
18859SOL    HW261135   7.232   8.232   5.767  0.2553 -0.8728 -0.8943
18860SOL     OW61136  11.422  10.369   5.083  0.3482 -0.5731  0.5566
18860SOL    HW161137  11.406  10.277   5.103  1.5352 -1.2745 -1.4493
18860SOL    HW261138  11.335  10.408   5.075 -0.1640 -1.5140  1.4126
18861SOL     OW61139   2.271   1.730  10.765  1.1444  0.1073 -0.2489
18861SOL    HW161140   2.286   1.820  10.736 -0.8432  0.4562 -0.3459
18861SOL    HW261141   2.292   1.731  10.858  0.4342  0.8948 -0.0790
18862SOL     OW61142   7.856   2.373   5.333 -0.1922  0.3061 -0.2420
18862SOL    HW161143   7.796   2.325   5.276 -0.8661 -0.4569  1.0582
18862SOL    HW261144   7.810   2.377   5.417  0.6350  1.6734  0.1650
18863SOL     OW61145   0.825   1.852   0.099 -0.1489  0.0357  0.5996
18863SOL    HW161146   0.896   1.861   0.163  1.2071 -1.4001 -0.6155
18863SOL    HW261147   0.751   1.818   0.149  0.8162 -0.8610  1.4596
18864SOL     OW61148   5.840   5.910  11.463  0.0181 -0.3309 -0.3040
18864SOL    HW161149   5.904   5.845  11.433 -0.9841 -0.2669 -2.8430
18864SOL    HW261150   5.792   5.865  11.533  1.7936 -0.9042  0.6138
18865SOL     OW61151   1.269   7.623   8.726 -0.0215  0.0831  0.7163
18865SOL    HW161152   1.300   7.653   8.641  0.0028 -2.0990 -0.1082
18865SOL    HW261153   1.347   7.617   8.780  0.3901 -1.1465  0.0168
18866SOL     OW61154   6.170   4.894   0.954 -0.3588  0.5139  0.3433
18866SOL    HW161155   6.084   4.935   0.956 -0.5021  0.2601 -0.3922
18866SOL    HW261156   6.189   4.882   0.861  1.2032  2.0871  0.4051
18867SOL     OW61157   0.338   1.776   8.977 -0.0198 -0.3688  0.2271
18867SOL    HW161158   0.344   1.695   9.028  0.2813 -0.7934 -0.4623
18867SOL    HW261159   0.244   1.793   8.971 -0.0477 -0.1643  1.1419
18868SOL     OW61160  10.519   5.082   6.632 -0.1829 -0.1590 -0.7242
18868SOL    HW161161  10.551   4.994   6.614 -1.2205 -0.7834  0.3699
18868SOL    HW261162  10.524   5.127   6.547 -1.1364 -1.7491 -1.6558
18869SOL     OW61163   5.763   6.845  10.410  0.7452  0.4161  0.2339
18869SOL    HW161164   5.743   6.831  10.318  2.1115  1.2367 -0.2080
18869SOL    HW261165   5.783   6.938  10.417 -0.1999  0.5525  1.5449
18870SOL     OW61166   5.686   1.902   0.145  0.2649 -0.2340 -0.3740
18870SOL    HW161167   5.646   1.831   0.196  0.2405 -0.5105 -0.7755
18870SOL    HW261168   5.733   1.954   0.210  2.1884 -1.8768 -0.3089
18871SOL     OW61169  11.944   0.564   9.365 -0.2082  0.6176 -0.2614
18871SOL    HW161170  11.886   0.627   9.321 -1.0434 -0.2024 -0.3666
18871SOL    HW261171  12.022   0.615   9.386  0.2287  1.0847 -2.6421
18872SOL     OW61172  11.796  10.618   7.260  0.0010 -0.0916  0.0468
18872SOL    HW161173  11.790  10.653   7.349  0.7276 -0.8308  0.3923
18872SOL    HW261174  11.854  10.542   7.267  2.8194  1.7173 -1.6074
18873SOL     OW61175   0.776   0.403   6.401 -0.3533  0.6938 -0.4298
18873SOL    HW161176   0.846   0.345   6.372 -0.7151 -0.0491  0.1666
18873SOL    HW261177   0.815   0.455   6.471 -0.6887 -0.4802  0.6610
18874SOL     OW61178   0.874   2.594   9.486 -0.5470  0.5826 -0.6639
18874SOL    HW161179   0.821   2.669   9.511  0.5421  1.4691 -0.9481
18874SOL    HW261180   0.921   2.571   9.566 -1.3286 -0.2088 -0.4092
18875SOL     OW61181   5.820   2.114   5.223 -0.3461 -0.2476 -0.2978
18875SOL    HW161182   5.755   2.124   5.153 -1.4191 -1.2065  0.5330
18875SOL    HW261183   5.780   2.159   5.298 -0.6953 -2.0119  0.6088
18876SOL     OW61184   3.033   7.882   9.810 -0.3987 -0.1287 -0.0664
18876SOL    HW161185   3.077   7.890   9.726  0.0381 -0.4969  0.1198
18876SOL    HW261186   3.032   7.788   9.828 -0.3695 -0.0457  0.3961
18877SOL     OW61187   8.619   2.359   7.593  0.1591  0.0357 -0.4003
18877SOL    HW161188   8.545   2.299   7.581 -1.5695  2.0680 -0.4507
18877SOL    HW261189   8.660   2.330   7.675  0.0305 -1.8113 -0.9530
18878SOL     OW61190  11.628   6.890   6.461 -0.2087 -0.3369  0.2067
18878SOL    HW161191  11.581   6.836   6.397 -1.3192  0.6746  0.1261
18878SOL    HW261192  11.720   6.883   6.436 -0.4138 -1.5634 -0.2634
18879SOL     OW61193   3.920   1.865   2.906 -0.2311 -0.4945 -0.1137
18879SOL    HW161194   3.929   1.957   2.930 -0.0196 -0.5599  0.0618
18879SOL    HW261195   3.827   1.846   2.919 -0.4354 -0.0953 -0.9226
18880SOL     OW61196   9.509   3.551  10.317  0.4437  0.7652  0.3642
18880SOL    HW161197   9.415   3.566  10.315 -0.1320 -1.8875  2.3054
18880SOL    HW261198   9.536   3.580  10.404  0.8219 -1.1111  0.9164
18881SOL     OW61199   6.284  11.471   1.637 -0.4329 -0.0760 -0.1556
18881SOL    HW161200   6.375  11.460   1.609 -0.2805  1.7961 -0.5418
18881SOL    HW261201   6.233  11.466   1.556 -0.3356  1.8707 -0.3880
18882SOL     OW61202   7.982  11.527   1.707  0.6378  0.0189  0.3540
18882SOL    HW161203   8.021  11.544   1.793  0.4883  3.1891 -0.0966
18882SOL    HW261204   7.890  11.510   1.726  0.5728  0.8508  0.8390
18883SOL     OW61205   5.054  10.695  10.961  0.1711 -0.1948 -0.2818
18883SOL    HW161206   4.986  10.745  10.916  0.8962  0.8212 -0.2674
18883SOL    HW261207   5.103  10.653  10.890  0.3161  0.0948 -0.3508
18884SOL     OW61208  11.709   9.163  11.925 -0.1734  0.1703 -0.4001
18884SOL    HW161209  11.615   9.177  11.919 -0.3881 -0.4183  1.1692
18884SOL    HW261210  11.719   9.091  11.988  1.2446 -1.0817 -1.9414
18885SOL     OW61211   7.431  10.342   5.440 -0.9824  0.0060 -0.1428
18885SOL    HW161212   7.376  10.348   5.518 -2.6695  1.1478 -1.3478
18885SOL    HW261213   7.442  10.248   5.426  0.0092 -0.2439  1.8397
18886SOL     OW61214   2.350  11.046   9.793  0.0693 -0.4620 -0.3427
18886SOL    HW161215   2.298  11.124   9.812  0.2381 -0.7471  1.4898
18886SOL    HW261216   2.392  11.065   9.709  2.6674  2.8851  1.4653
18887SOL     OW61217   0.372   4.496   9.844 -0.4487 -0.3098  0.0771
18887SOL    HW161218   0.379   4.580   9.890 -2.6185  0.2270 -0.4605
18887SOL    HW261219   0.365   4.431   9.914  0.4647  0.0368  0.4977
18888SOL     OW61220   7.952   6.963   6.740  0.3126 -0.6586 -0.3281
18888SOL    HW161221   8.009   6.994   6.669  0.2623 -1.4273 -0.7205
18888SOL    HW261222   8.000   6.891   6.780 -0.2347 -1.1023 -0.4526
18889SOL     OW61223   3.944  10.405  11.178 -1.5007 -0.0709  0.0448
18889SOL    HW161224   3.884  10.427  11.107 -0.1518  1.0563 -0.8008
18889SOL    HW261225   4.003  10.339  11.140  1.9683  3.4906 -1.5591
18890SOL     OW61226  10.016   1.579   2.975 -0.0668  0.0769  0.1299
18890SOL    HW161227   9.999   1.590   2.882  0.1208  1.2600  0.2161
18890SOL    HW261228  10.043   1.666   3.005 -0.1808 -0.2679  1.2967
18891SOL     OW61229   1.604   1.721  10.289  0.3913  0.0290 -0.1949
18891SOL    HW161230   1.684   1.694  10.334 -1.3040  0.4154  3.4752
18891SOL    HW261231   1.539   1.654  10.313 -0.8714  0.8157 -1.2794
18892SOL     OW61232   9.152   7.420   5.975 -0.0722  0.6443 -0.0121
18892SOL    HW161233   9.152   7.389   6.065 -0.8637 -0.9816 -0.5270
18892SOL    HW261234   9.240   7.399   5.943  0.3151  1.5187  0.4668
18893SOL     OW61235   5.729   0.940   6.302  0.1446  0.5600 -0.0357
18893SOL    HW161236   5.806   0.998   6.301  0.5102  0.0813 -0.4584
18893SOL    HW261237   5.655   0.999   6.313  0.5726  1.0312  0.3919
18894SOL     OW61238   9.123   1.144   9.679 -0.4683 -0.3664 -0.1432
18894SOL    HW161239   9.182   1.207   9.721 -0.0804 -0.4120 -0.6078
18894SOL    HW261240   9.037   1.185   9.685 -0.6291 -0.9030  1.7279
18895SOL     OW61241   0.982   8.306   9.167  0.4002  0.0955 -0.8737
18895SOL    HW161242   1.057   8.366   9.163  0.4780  0.0330 -0.4804
18895SOL    HW261243   0.908   8.357   9.137  0.6558  0.0666 -1.5723
18896SOL     OW61244   9.088   4.834  10.720  0.1392 -0.1363  0.0397
18896SOL    HW161245   9.139   4.761  10.755  0.7885  0.2983  0.0164
18896SOL    HW261246   9.153   4.892  10.680 -0.4787 -0.0691 -0.8883
18897SOL     OW61247   5.013   7.025   3.614  0.3385 -0.0990 -0.1640
18897SOL    HW161248   5.079   7.062   3.555 -0.2427 -0.7936 -1.2684
18897SOL    HW261249   4.930   7.060   3.581  0.0264 -0.3281  0.3794
18898SOL     OW61250   6.728   7.297   4.937 -0.3367  0.1836 -0.1440
18898SOL    HW161251   6.817   7.261   4.934  0.0351  1.1115 -1.5099
18898SOL    HW261252   6.679   7.246   4.873 -0.3933  0.5825 -0.4282
18899SOL     OW61253  11.016   0.364   4.488 -0.2992  0.6669  0.3094
18899SOL    HW161254  11.101   0.408   4.483  1.1079 -1.7066  1.5115
18899SOL    HW261255  11.023   0.306   4.564 -2.7624 -0.1448  0.0249
18900SOL     OW61256   6.950   3.562   7.394 -0.7056  0.6070  0.5042
18900SOL    HW161257   6.918   3.523   7.476 -0.8212  0.3231  0.3221
18900SOL    HW261258   6.998   3.492   7.350 -1.9184  0.2959 -0.3800
18901SOL     OW61259   3.156   2.456   1.024  0.0525  0.1012 -0.0983
18901SOL    HW161260   3.167   2.548   1.000 -1.0120  0.5763  1.0867
18901SOL    HW261261   3.211   2.445   1.102 -0.5032 -0.0024  0.2910
18902SOL     OW61262   2.341   0.649  10.160  0.4509 -0.5561 -0.0023
18902SOL    HW161263   2.420   0.696  10.132  0.9270 -1.0364  0.5250
18902SOL    HW261264   2.365   0.608  10.243 -0.6051 -0.0563  0.5768
18903SOL     OW61265   9.969   5.051   4.296  0.0335  0.6814  0.0718
18903SOL    HW161266   9.929   5.133   4.324 -1.3497  0.4110 -1.0374
18903SOL    HW261267   9.900   5.004   4.251  1.1385 -0.5806 -0.3790
18904SOL     OW61268   5.150   5.852   9.310  0.4533 -0.4387  0.6438
18904SOL    HW161269   5.147   5.944   9.282 -0.0190 -1.4318 -3.2897
18904SOL    HW261270   5.059   5.823   9.306  0.6653 -1.2078  1.2653
18905SOL     OW61271   9.907   7.862   1.540 -0.5575 -0.1853  0.1161
18905SOL    HW161272  10.001   7.845   1.536 -0.3653  0.9678 -0.8223
18905SOL    HW261273   9.881   7.876   1.449 -1.3172  1.1055  0.5025
18906SOL     OW61274  12.091   8.584   9.366  0.5307  0.3850  0.1180
18906SOL    HW161275  12.140   8.502   9.362  1.6735  1.0894 -1.4716
18906SOL    HW261276  12.128   8.638   9.296 -0.3525  2.1770  0.9467
18907SOL     OW61277   9.422  11.147   1.172  0.1507 -0.0907  0.6009
18907SOL    HW161278   9.366  11.085   1.126  0.3947 -0.3310  0.6249
18907SOL    HW261279   9.503  11.098   1.189 -0.4451 -0.4964  2.5690
18908SOL     OW61280  11.038   6.582   6.354 -0.3293  0.0277 -0.5015
18908SOL    HW161281  11.024   6.619   6.441 -2.2088 -1.2419 -0.2001
18908SOL    HW261282  11.012   6.491   6.361  0.8949 -0.4950 -2.0614
18909SOL     OW61283   1.945  12.100   5.718  0.2547 -0.4484 -0.2211
18909SOL    HW161284   2.015  12.045   5.681 -0.0563 -2.1365  1.5500
18909SOL    HW261285   1.980  12.130   5.802 -0.7332 -0.4124  0.1903
18910SOL     OW61286   7.176   2.314   4.328 -0.0235 -0.1070  0.1388
18910SOL    HW161287   7.146   2.391   4.377  2.3009  0.2369  1.1542
18910SOL    HW261288   7.270   2.326   4.320  0.1001 -1.7835 -1.6617
18911SOL     OW61289   0.560   5.665   4.196  0.3145 -0.2236 -0.0045
18911SOL    HW161290   0.572   5.692   4.105  1.3328  1.9697  0.7207
18911SOL    HW261291   0.586   5.573   4.197  0.2126 -0.3056 -1.9307
18912SOL     OW61292  11.249   5.502   3.021  0.1408  0.3300 -0.1110
18912SOL    HW161293  11.242   5.470   2.931  0.5524  0.3177 -0.1386
18912SOL    HW261294  11.226   5.427   3.075  3.3376 -0.7757 -0.0916
18913SOL     OW61295   0.288   0.504   8.254 -0.0046 -0.3227  0.6996
18913SOL    HW161296   0.257   0.532   8.340 -1.3792  0.5783 -0.0548
18913SOL    HW261297   0.225   0.540   8.192 -0.0800 -2.4396 -0.5811
18914SOL     OW61298   6.414  11.922  10.659  0.2029 -0.2605  0.0843
18914SOL    HW161299   6.465  11.881  10.589  1.0919  1.0474 -0.0851
18914SOL    HW261300   6.387  12.006  10.622 -0.0038  0.1011  1.0289
18915SOL     OW61301   7.552  11.725   7.921  0.3189 -0.3100 -0.4453
18915SOL    HW161302   7.505  11.706   8.002  0.7815  1.4194  0.2836
18915SOL    HW261303   7.490  11.706   7.851  0.2992 -3.0078  0.1954
18916SOL     OW61304   5.270   8.659  10.541 -0.0512 -0.0123 -0.3806
18916SOL    HW161305   5.302   8.586  10.487  2.0420  0.4595  0.1407
18916SOL    HW261306   5.275   8.627  10.631 -0.4809  0.3084 -0.2357
18917SOL     OW61307   7.946   8.967   6.255 -0.2990  0.9359  0.3118
18917SOL    HW161308   7.945   8.888   6.201  0.3255 -0.7629  2.6377
18917SOL    HW261309   7.939   8.935   6.345 -0.3893  3.5745  1.3393
18918SOL     OW61310  11.798   9.402   7.944  0.6292 -0.2440 -0.6249
18918SOL    HW161311  11.805   9.336   7.875 -0.3943 -1.4607  0.3817
18918SOL    HW261312  11.888   9.413   7.975  0.6512 -2.7801  0.5634
18919SOL     OW61313   7.228  10.202   1.906 -0.3186 -0.5960  0.0100
18919SOL    HW161314   7.286  10.241   1.841 -1.1888 -0.0977 -0.4879
18919SOL    HW261315   7.186  10.129   1.860 -0.5537 -0.5575  0.1595
18920SOL     OW61316   3.837   7.322   5.592 -0.0947  0.0347 -0.1930
18920SOL    HW161317   3.912   7.335   5.650  0.3222 -0.9638 -0.4920
18920SOL    HW261318   3.761   7.347   5.645  0.4922  1.8189 -0.1463
18921SOL     OW61319   1.791   4.505   2.732 -0.3660 -0.3838  0.2738
18921SOL    HW161320   1.823   4.532   2.646 -1.4094 -1.1391 -0.3647
18921SOL    HW261321   1.851   4.547   2.794  0.1907  0.4448 -0.8019
18922SOL     OW61322   0.576   7.399   5.004 -0.0210 -0.2061 -0.3954
18922SOL    HW161323   0.548   7.488   5.027 -0.4319  0.6733 -3.8062
18922SOL    HW261324   0.668   7.408   4.979  0.8180 -1.3760  1.9439
18923SOL     OW61325   4.665  11.636   7.772 -0.7469 -0.0849 -0.2328
18923SOL    HW161326   4.738  11.609   7.828 -1.1477 -1.1446 -0.1994
18923SOL    HW261327   4.705  11.648   7.686 -0.6952 -1.7348 -0.4674
18924SOL     OW61328   4.765   4.037  10.881  0.3702  0.7081  0.0849
18924SOL    HW161329   4.781   4.058  10.789 -2.6854 -1.4341 -1.1125
18924SOL    HW261330   4.701   4.102  10.910  0.2147  0.4970  0.2199
18925SOL     OW61331   1.763   9.130   1.214  0.5067  0.5130 -0.2234
18925SOL    HW161332   1.855   9.133   1.187  0.1837  1.1713 -1.3091
18925SOL    HW261333   1.766   9.110   1.308  1.9003  4.0814  0.6604
18926SOL     OW61334   7.456   8.902   5.552  0.8558  0.4372 -0.4901
18926SOL    HW161335   7.390   8.842   5.588  2.1773  0.3545  2.0207
18926SOL    HW261336   7.408   8.984   5.537 -0.0309  0.1110  0.4411
18927SOL     OW61337   4.648   5.880   9.989 -0.3571  0.3108 -0.0206
18927SOL    HW161338   4.689   5.798   9.958 -1.2070 -0.3320  0.5107
18927SOL    HW261339   4.709   5.914  10.054  0.1619  0.2806 -0.4812
18928SOL     OW61340   7.862   9.147   2.254  0.7243 -0.3354  0.2749
18928SOL    HW161341   7.913   9.171   2.177 -0.6301 -2.6840 -1.5032
18928SOL    HW261342   7.923   9.156   2.327  1.5550  3.7464 -0.6797
18929SOL     OW61343   7.952   2.535   4.607 -0.3525  0.3196 -0.0719
18929SOL    HW161344   7.933   2.464   4.669 -0.7293 -0.9394 -1.5553
18929SOL    HW261345   7.928   2.499   4.521  1.6972  1.3867 -1.1701
18930SOL     OW61346   2.691   8.610  11.015  0.9728  0.1864  0.1675
18930SOL    HW161347   2.684   8.536  11.075  2.4342 -1.4167 -1.5351
18930SOL    HW261348   2.708   8.570  10.930  0.4602  2.4518 -1.0663
18931SOL     OW61349   0.704   5.210   3.457 -0.3422  0.4794  0.5865
18931SOL    HW161350   0.791   5.179   3.484  0.0071  0.8389 -0.0951
18931SOL    HW261351   0.646   5.180   3.526 -0.5297 -4.0732 -1.1323
18932SOL     OW61352   5.502   7.780   0.094  0.0009  0.1761  0.2482
18932SOL    HW161353   5.412   7.752   0.078 -0.7518  2.1607  0.7866
18932SOL    HW261354   5.538   7.796   0.006  0.0178 -1.0658  0.0054
18933SOL     OW61355  11.785   3.468   5.583 -0.0376  0.3973  0.1709
18933SOL    HW161356  11.713   3.468   5.520  0.1876 -0.7015 -0.1197
18933SOL    HW261357  11.864   3.477   5.531  0.1097  0.1723  0.3502
18934SOL     OW61358   9.010  11.272  11.554  0.1684 -0.5955  0.4096
18934SOL    HW161359   9.062  11.346  11.584 -1.6642  0.5964  0.7983
18934SOL    HW261360   8.927  11.310  11.525  0.0307 -2.2493 -1.5974
18935SOL     OW61361   5.963   9.260   2.021 -0.1145  0.0461  0.2688
18935SOL    HW161362   5.887   9.263   2.079 -0.1539 -0.2449  0.2353
18935SOL    HW261363   5.928   9.225   1.938 -0.2794  1.4372 -0.2758
18936SOL     OW61364   0.392   4.463   7.988  0.1873 -0.0801  0.5525
18936SOL    HW161365   0.404   4.390   7.927  2.8225  1.2790 -0.7404
18936SOL    HW261366   0.335   4.524   7.940  1.9752  0.8309 -0.5067
18937SOL     OW61367   2.880   2.352   0.575 -0.0075 -0.2279  0.0793
18937SOL    HW161368   2.929   2.335   0.494 -0.4874  1.6738 -0.6674
18937SOL    HW261369   2.790   2.367   0.546 -0.7641 -2.1433  1.2791
18938SOL     OW61370   4.948   7.090   7.883 -0.1549  0.3127 -0.4600
18938SOL    HW161371   4.964   7.025   7.815 -0.3515 -1.8875  1.4249
18938SOL    HW261372   4.857   7.116   7.870  0.6602  2.3080 -2.8210
18939SOL     OW61373   3.439   4.286   5.474 -0.1184 -0.6305  0.2565
18939SOL    HW161374   3.436   4.324   5.562 -0.6480 -0.5130  0.1892
18939SOL    HW261375   3.392   4.349   5.420 -2.6588 -2.2226  0.4489
18940SOL     OW61376  11.609   0.604   6.501 -0.2375  0.5804 -0.0364
18940SOL    HW161377  11.701   0.587   6.482  0.0629 -0.7935  2.2580
18940SOL    HW261378  11.563   0.585   6.419  1.1847 -1.8588 -0.3475
18941SOL     OW61379   7.324   3.995   8.225  0.1276  0.1528 -0.0689
18941SOL    HW161380   7.332   4.072   8.169  0.7297  1.9945  2.3733
18941SOL    HW261381   7.318   3.921   8.164  1.0505  1.9623 -2.5048
18942SOL     OW61382   1.055   4.078   0.563  0.1899 -0.9492 -0.3145
18942SOL    HW161383   1.026   4.049   0.477 -1.2412 -2.7560  0.7187
18942SOL    HW261384   0.975   4.095   0.612  0.9099 -1.6994  1.2104
18943SOL     OW61385  12.013   1.000   6.599  0.0802  0.4906 -0.2132
18943SOL    HW161386  11.952   1.072   6.614 -0.9617 -0.0722 -1.5221
18943SOL    HW261387  12.005   0.944   6.677 -0.9457  0.5272 -0.2780
18944SOL     OW61388   8.572   5.305   7.899  0.3588 -0.4735  0.2503
18944SOL    HW161389   8.611   5.247   7.964  2.1468  2.2706  1.8410
18944SOL    HW261390   8.622   5.291   7.820 -1.9405 -3.9742 -0.8021
18945SOL     OW61391  10.390   7.174   6.262  0.0898 -0.0096  0.1677
18945SOL    HW161392  10.399   7.268   6.274  0.0224  0.3158 -1.9501
18945SOL    HW261393  10.423   7.158   6.174 -1.4650 -1.7031 -0.1668
18946SOL     OW61394   4.343   0.913  12.019  0.2740  0.5695 -0.0970
18946SOL    HW161395   4.297   0.873  12.093  1.1492 -0.7422 -0.2136
18946SOL    HW261396   4.361   0.839  11.960  1.6322  1.2010 -0.5047
18947SOL     OW61397   8.768  10.439   2.298 -0.0079  0.2287 -0.3917
18947SOL    HW161398   8.758  10.508   2.364  0.2187 -0.6688  0.6019
18947SOL    HW261399   8.855  10.454   2.261 -0.2395  0.8966 -0.6851
18948SOL     OW61400  11.186   6.128  11.722  0.0622  0.0867  0.5377
18948SOL    HW161401  11.194   6.060  11.789  3.4823  0.1719  0.4111
18948SOL    HW261402  11.203   6.082  11.639  0.1199  0.6916  0.2091
18949SOL     OW61403  10.083   9.303   1.759 -0.4128  0.3117  0.5035
18949SOL    HW161404  10.165   9.303   1.808  0.4064 -2.2607 -0.7189
18949SOL    HW261405  10.016   9.315   1.826  0.7652 -1.1916  2.0405
18950SOL     OW61406   9.666   6.068   8.721 -0.1320  0.7835 -0.4460
18950SOL    HW161407   9.612   6.146   8.709 -1.1060  1.0087  3.7366
18950SOL    HW261408   9.687   6.068   8.815  1.7497 -2.7964 -0.7009
18951SOL     OW61409   6.355   2.286   5.103  0.4320  0.3264  0.7253
18951SOL    HW161410   6.319   2.359   5.053 -0.4200 -0.6913 -0.1880
18951SOL    HW261411   6.305   2.285   5.184  1.1289  1.3572  1.1911
18952SOL     OW61412   6.413  10.471   8.543 -0.1597 -0.3637 -0.2036
18952SOL    HW161413   6.379  10.521   8.617 -0.6928  0.5456 -1.0365
18952SOL    HW261414   6.335  10.429   8.505 -0.0948  0.2087 -0.9992
18953SOL     OW61415  10.879   0.051  11.041  0.1615 -0.0480  1.0468
18953SOL    HW161416  10.902   0.123  11.099  0.0836  0.7205  0.1496
18953SOL    HW261417  10.806   0.007  11.085 -0.2271  0.8242  1.2918
18954SOL     OW61418   3.079  10.022   8.292  0.1438 -0.0396 -0.4453
18954SOL    HW161419   3.085   9.964   8.368  2.7509  0.1341 -0.4330
18954SOL    HW261420   3.037   9.968   8.224 -2.1235 -0.2281  0.9916
18955SOL     OW61421   7.020   9.376   0.406 -1.0274  0.5430  0.2911
18955SOL    HW161422   7.043   9.284   0.395 -1.6151  0.5356 -1.1688
18955SOL    HW261423   6.927   9.381   0.381 -1.4546  1.2741  1.9104
18956SOL     OW61424   7.426   6.355   8.434 -0.4273  0.2451 -0.3662
18956SOL    HW161425   7.392   6.380   8.348 -1.2723 -1.9060 -0.7378
18956SOL    HW261426   7.521   6.360   8.424 -0.5290  1.9063 -0.7823
18957SOL     OW61427   4.109   7.170   5.323 -0.1723 -0.0405  0.5456
18957SOL    HW161428   4.180   7.143   5.264 -0.8093 -1.2124  0.2832
18957SOL    HW261429   4.094   7.262   5.301  0.2662 -0.1876 -0.4351
18958SOL     OW61430   1.870   2.382  11.473 -0.1225  0.5080 -0.2614
18958SOL    HW161431   1.965   2.386  11.459  0.0251 -2.5810 -0.8372
18958SOL    HW261432   1.837   2.464  11.436  2.3636  2.1778  0.9389
18959SOL     OW61433   4.258  10.146   0.540 -0.0586 -0.5642 -0.3021
18959SOL    HW161434   4.166  10.149   0.567 -0.1827  0.9685 -0.7817
18959SOL    HW261435   4.263  10.072   0.479 -0.8647 -0.9529  0.0952
18960SOL     OW61436   5.327   9.783   6.970  0.0535  0.2857  0.1412
18960SOL    HW161437   5.319   9.864   6.919  1.5888  0.4875  0.1557
18960SOL    HW261438   5.369   9.811   7.052 -0.5441 -0.3426  0.6705
18961SOL     OW61439   0.480   4.642   2.688 -0.0497 -0.0493 -0.2501
18961SOL    HW161440   0.553   4.687   2.732 -0.6275  0.2615  0.3989
18961SOL    HW261441   0.503   4.549   2.694  0.8361  0.0988 -1.0365
18962SOL     OW61442   8.637   0.898   4.523 -0.2603 -0.7256  0.3230
18962SOL    HW161443   8.666   0.943   4.602 -1.7844  0.2943  0.3412
18962SOL    HW261444   8.705   0.916   4.458 -0.1009  0.3268  0.7713
18963SOL     OW61445   4.888   5.158   8.142  0.3065  0.3159 -0.0221
18963SOL    HW161446   4.852   5.175   8.055  1.2973 -1.3460 -0.8107
18963SOL    HW261447   4.821   5.106   8.186  1.6487 -3.0345 -1.5940
18964SOL     OW61448   6.917   4.719   9.003 -0.7179 -0.5031  0.0782
18964SOL    HW161449   6.925   4.706   9.098 -2.1844  0.0420  0.3066
18964SOL    HW261450   6.907   4.814   8.993 -2.4007 -0.7010 -0.4299
18965SOL     OW61451   3.453  10.952   5.023  0.0157  0.0084  0.8072
18965SOL    HW161452   3.391  11.020   5.049  0.9428  0.7067  1.2829
18965SOL    HW261453   3.480  10.911   5.105 -0.4399 -0.8655  0.5338
18966SOL     OW61454  10.945   1.593  11.469  0.4072 -0.1689 -0.2079
18966SOL    HW161455  10.969   1.652  11.541 -1.5172  0.6620 -0.2072
18966SOL    HW261456  10.933   1.651  11.394  1.2475 -0.9106 -0.9475
18967SOL     OW61457   9.730   5.457   5.881  0.7656 -0.0150 -0.9381
18967SOL    HW161458   9.760   5.522   5.944  0.7292 -1.4774  0.6608
18967SOL    HW261459   9.810   5.429   5.836  1.0179 -0.0243 -0.4890
18968SOL     OW61460   9.292   7.725   2.645 -0.0768  0.1175 -0.0547
18968SOL    HW161461   9.321   7.808   2.683 -2.5191  0.5339  1.1100
18968SOL    HW261462   9.328   7.658   2.703 -0.7292  0.5549  0.8718
18969SOL     OW61463   3.259   5.905  11.705 -0.4157  0.5934 -0.1882
18969SOL    HW161464   3.274   5.999  11.696 -1.0554  0.4719 -3.8762
18969SOL    HW261465   3.183   5.898  11.762  1.0610  2.1032  2.1513
18970SOL     OW61466   2.111   7.410  11.866 -0.3324  0.5897 -0.2737
18970SOL    HW161467   2.093   7.363  11.948 -0.2477 -0.2199 -0.7064
18970SOL    HW261468   2.037   7.388  11.810  0.7415 -0.7853 -1.2211
18971SOL     OW61469   1.043   3.631   5.618  0.1743 -0.6925 -0.5439
18971SOL    HW161470   0.977   3.683   5.663  0.2010  1.1663 -2.4483
18971SOL    HW261471   0.997   3.552   5.589 -1.3522  0.6651 -2.0370
18972SOL     OW61472  10.318   0.352   2.691 -0.2029  0.1933 -0.4031
18972SOL    HW161473  10.234   0.308   2.675 -0.5041  0.2782  0.7894
18972SOL    HW261474  10.330   0.345   2.786 -0.6867  3.3811  0.0070
18973SOL     OW61475   0.545   7.396   3.445 -0.1407 -0.1066 -0.7795
18973SOL    HW161476   0.486   7.429   3.512 -0.0935  0.4032 -0.9885
18973SOL    HW261477   0.621   7.363   3.494  0.8430  2.1338 -0.6421
18974SOL     OW61478   0.633   3.321   8.894 -0.2129 -0.1215  0.4055
18974SOL    HW161479   0.693   3.375   8.843 -1.4153  1.0458  0.1659
18974SOL    HW261480   0.654   3.342   8.986  2.1862 -2.4818  0.5238
18975SOL     OW61481   2.387   2.412   0.974 -0.1410  0.0676 -0.1714
18975SOL    HW161482   2.423   2.365   0.899  0.2523 -1.4722  0.9320
18975SOL    HW261483   2.332   2.347   1.018  0.1823  0.7315  1.2477
18976SOL     OW61484  11.951   7.628   7.076 -0.0881  0.0229 -0.4518
18976SOL    HW161485  11.911   7.661   7.156  0.9663  0.7388 -0.2002
18976SOL    HW261486  11.991   7.705   7.035  1.7191 -0.7568 -0.2755
18977SOL     OW61487   2.484   2.354  11.479 -0.1342  0.2637 -1.2541
18977SOL    HW161488   2.570   2.393  11.494 -0.0836 -0.6714  1.5640
18977SOL    HW261489   2.482   2.279  11.539 -2.8670  0.1724 -1.3670
18978SOL     OW61490   6.544   9.124   9.093 -0.5480 -0.5806 -0.0099
18978SOL    HW161491   6.501   9.144   9.177  1.3545 -0.3663  0.9750
18978SOL    HW261492   6.552   9.209   9.049  1.5274 -0.0817  1.1871
18979SOL     OW61493  10.146   5.505   8.058  0.4305 -0.6880  0.1162
18979SOL    HW161494  10.165   5.417   8.089 -0.6640 -0.5467  1.2839
18979SOL    HW261495  10.055   5.520   8.083 -0.1230 -0.0545 -2.0998
18980SOL     OW61496   3.358   3.941   4.694  0.3600  0.1658 -0.1210
18980SOL    HW161497   3.312   3.857   4.703 -0.6690  0.7466  0.2027
18980SOL    HW261498   3.288   4.006   4.691  1.1480  1.0169 -0.3943
18981SOL     OW61499   5.486   8.238   4.469  0.5466 -0.0836  0.1222
18981SOL    HW161500   5.475   8.321   4.515 -0.0688 -0.0716 -0.0436
18981SOL    HW261501   5.474   8.172   4.537  2.0089 -0.0465  0.4676
18982SOL     OW61502  10.438   6.484   2.666  0.1919  0.5470  0.2103
18982SOL    HW161503  10.451   6.393   2.693  0.1112  0.0909 -1.1770
18982SOL    HW261504  10.519   6.529   2.690  0.9846 -0.3239 -0.7443
18983SOL     OW61505   4.707  12.085   4.465 -0.0951 -0.4103 -0.3428
18983SOL    HW161506   4.696  12.152   4.533 -1.5704 -1.6972  0.7533
18983SOL    HW261507   4.763  12.019   4.505  0.1874 -0.5105 -0.8979
18984SOL     OW61508   5.349   2.337   5.684 -0.2359 -0.1838  0.4714
18984SOL    HW161509   5.402   2.258   5.681  2.5808  1.5682 -0.2741
18984SOL    HW261510   5.324   2.353   5.593 -1.6579 -0.7010  0.7491
18985SOL     OW61511   3.595   6.518   3.473 -0.1413 -0.6240  0.1180
18985SOL    HW161512   3.682   6.535   3.509 -0.4990 -0.0453  0.7272
18985SOL    HW261513   3.612   6.479   3.387  0.7249 -1.3126  0.5838
18986SOL     OW61514  10.027   7.725   1.118  0.2397  0.2671  0.0977
18986SOL    HW161515  10.051   7.776   1.195  1.1911  0.7895 -0.5320
18986SOL    HW261516  10.023   7.789   1.047 -1.6119 -0.0376 -0.1218
18987SOL     OW61517   2.891   8.633   7.094  0.2849 -0.2178 -0.0346
18987SOL    HW161518   2.918   8.567   7.030  0.7606  0.8254 -0.9431
18987SOL    HW261519   2.849   8.583   7.164  3.3101 -1.8067  0.7837
18988SOL     OW61520   5.206   4.534   6.764  0.4420  0.2365 -0.0771
18988SOL    HW161521   5.240   4.474   6.697 -1.2373  0.0042 -0.7807
18988SOL    HW261522   5.252   4.510   6.844  0.9907 -0.8880 -0.7089
18989SOL     OW61523   2.927  11.576   4.812  0.1955  0.2826  0.3073
18989SOL    HW161524   2.852  11.520   4.832 -0.5185  1.0307 -0.1700
18989SOL    HW261525   3.004  11.524   4.834 -0.4141 -1.1721 -0.8201
18990SOL     OW61526   4.282   9.156   7.354  0.0259 -0.2202 -0.7491
18990SOL    HW161527   4.288   9.111   7.438  0.2784 -0.0145 -0.6538
18990SOL    HW261528   4.372   9.159   7.323 -0.3028 -2.3335 -2.1217
18991SOL     OW61529  12.001   2.976   2.563 -0.0973 -0.6625 -0.2096
18991SOL    HW161530  11.929   2.928   2.606  1.2519 -1.3492  1.3864
18991SOL    HW261531  11.980   3.068   2.578  0.1497 -0.8724  1.7164
18992SOL     OW61532   9.355   7.273   3.670 -0.0725  0.0646  0.2397
18992SOL    HW161533   9.353   7.336   3.598  0.0200  0.7834  0.8470
18992SOL    HW261534   9.304   7.198   3.639  0.1069  0.2949 -0.6282
18993SOL     OW61535   4.843   9.738   5.615  0.5651 -0.7098 -0.2101
18993SOL    HW161536   4.792   9.717   5.693  0.4753  0.8284  0.1663
18993SOL    HW261537   4.814   9.674   5.550 -0.8909 -0.7009  0.3885
18994SOL     OW61538  10.017   0.094   3.955 -0.4762  0.4663  0.2366
18994SOL    HW161539   9.976   0.170   3.997 -0.2605  0.8123 -0.1665
18994SOL    HW261540  10.043   0.038   4.028 -3.4132 -0.7378  0.4778
18995SOL     OW61541   0.955   8.406   9.842 -0.8888 -0.0752 -0.1587
18995SOL    HW161542   0.951   8.338   9.775 -0.7530  0.1479 -0.3988
18995SOL    HW261543   0.871   8.452   9.835 -0.0983  1.2531 -1.5884
18996SOL     OW61544   2.382   2.227   7.793  0.2294  0.1126  0.2374
18996SOL    HW161545   2.428   2.240   7.875 -1.1971 -1.9940  1.4594
18996SOL    HW261546   2.389   2.311   7.748  2.9378  0.6527  1.4840
18997SOL     OW61547   7.743   1.397  10.481  0.4766 -0.1459  0.3758
18997SOL    HW161548   7.698   1.386  10.565 -1.0914 -1.0815 -0.5350
18997SOL    HW261549   7.673   1.420  10.420  1.5519  0.2447 -0.7348
18998SOL     OW61550  10.434   7.420  10.230  0.1393  0.1124  0.3564
18998SOL    HW161551  10.418   7.331  10.198  1.3620 -0.1844  0.5558
18998SOL    HW261552  10.346   7.459  10.234 -0.1872 -0.1308 -2.4556
18999SOL     OW61553   9.276  11.676   7.495  0.0735 -0.5255 -0.3968
18999SOL    HW161554   9.216  11.712   7.560 -0.6212  0.7175 -1.6484
18999SOL    HW261555   9.243  11.588   7.478  0.8320 -1.2324  1.5738
19000SOL     OW61556   6.442  11.566   6.940 -0.1439 -0.0424  0.2989
19000SOL    HW161557   6.355  11.577   6.978 -1.3980 -0.5555 -2.2076
19000SOL    HW261558   6.454  11.471   6.934 -0.3708  0.0001 -1.2879
19001SOL     OW61559   4.392   7.096   5.303 -0.3869 -0.5407 -0.0997
19001SOL    HW161560   4.448   7.136   5.370 -2.1204 -0.1906  1.2208
19001SOL    HW261561   4.359   7.016   5.345 -0.4478 -1.0390 -1.0707
19002SOL     OW61562  10.642   4.621   0.906 -0.5168  0.0882 -0.8032
19002SOL    HW161563  10.654   4.716   0.908 -1.4173  0.1922  0.6877
19002SOL    HW261564  10.548   4.608   0.913 -0.3500 -0.9410 -0.3054
19003SOL     OW61565   3.195   2.855   0.171  0.1337  0.4625  0.9321
19003SOL    HW161566   3.248   2.916   0.119  0.4510 -1.2052 -0.8158
19003SOL    HW261567   3.247   2.841   0.250  2.0606 -0.6076 -0.4380
19004SOL     OW61568   9.320   6.034  11.595  0.4368  0.3507  0.4068
19004SOL    HW161569   9.397   5.998  11.549  0.5060  2.4796 -1.3162
19004SOL    HW261570   9.247   6.014  11.537 -0.0304  0.0329  1.1007
19005SOL     OW61571   9.084  10.692   1.108  0.0526  0.0150  0.3840
19005SOL    HW161572   9.003  10.715   1.152  0.0989 -1.9596  1.6377
19005SOL    HW261573   9.061  10.616   1.054  1.0892 -0.7521  0.9832
19006SOL     OW61574   4.720  11.719   3.720 -0.5209 -0.0726  0.0327
19006SOL    HW161575   4.791  11.778   3.743  1.0324 -1.8176 -0.1068
19006SOL    HW261576   4.640  11.771   3.733  0.6914  1.5221  1.4450
19007SOL     OW61577  10.597   5.320   8.789 -0.2468  0.5179  0.1872
19007SOL    HW161578  10.502   5.320   8.790 -0.3121  2.4350 -1.3132
19007SOL    HW261579  10.622   5.404   8.751  2.0952  0.8554  2.1728
19008SOL     OW61580   5.912   7.499   0.403  0.3542  0.2822 -0.3096
19008SOL    HW161581   5.896   7.443   0.327 -0.4826  0.1916 -0.0722
19008SOL    HW261582   5.984   7.456   0.450 -0.3888 -0.6912 -0.0429
19009SOL     OW61583   2.122   8.488   6.278  0.2101  0.2723  0.0904
19009SOL    HW161584   2.116   8.411   6.335 -0.0941  0.7504  0.7219
19009SOL    HW261585   2.054   8.547   6.311 -0.6014  0.1917 -1.3512
19010SOL     OW61586   8.171   0.221  10.455  0.4937  1.1005 -0.3177
19010SOL    HW161587   8.256   0.256  10.428  0.7982 -0.0806 -0.9497
19010SOL    HW261588   8.193   0.153  10.519  0.1083  0.1299 -1.1878
19011SOL     OW61589  11.841   8.808  10.548 -0.0025  0.5278 -0.4340
19011SOL    HW161590  11.812   8.751  10.477 -0.0148 -0.6512  0.5011
19011SOL    HW261591  11.896   8.753  10.603  1.2936  1.8344 -0.3416
19012SOL     OW61592   7.238   5.508  10.518  0.0215 -0.3106  0.1423
19012SOL    HW161593   7.312   5.502  10.457 -1.8085  1.1578 -2.4067
19012SOL    HW261594   7.276   5.543  10.598  1.7736  3.5954 -2.0778
19013SOL     OW61595  10.858   6.842  11.645 -0.1520  0.1067  0.2642
19013SOL    HW161596  10.899   6.797  11.718  1.3026 -1.1243 -1.2168
19013SOL    HW261597  10.792   6.780  11.613  0.4296 -0.1271 -0.5132
19014SOL     OW61598   1.765   9.034   2.947 -0.3311  0.2791 -0.4168
19014SOL    HW161599   1.795   9.089   2.875  0.3367  0.1484 -0.2417
19014SOL    HW261600   1.834   9.039   3.012  0.1086 -1.3494 -0.7056
19015SOL     OW61601  11.507   5.369   5.738  0.2389  0.4319 -0.0631
19015SOL    HW161602  11.545   5.338   5.656 -0.4936 -1.3586  0.2228
19015SOL    HW261603  11.414   5.383   5.718 -0.0121 -0.3404  0.5308
19016SOL     OW61604  10.707   2.077  12.033 -0.3751  0.5808  0.4392
19016SOL    HW161605  10.624   2.050  11.994 -0.4232  0.1224  0.8571
19016SOL    HW261606  10.694   2.169  12.056 -0.3655  0.8439 -0.5604
19017SOL     OW61607   7.056   9.712   1.456  0.4906  0.0460  0.1366
19017SOL    HW161608   7.026   9.691   1.367  1.0000 -0.6387  0.1180
19017SOL    HW261609   7.022   9.800   1.472 -0.4609 -0.2111 -0.3520
19018SOL     OW61610   6.827   4.462   9.166  0.2537 -0.1350 -0.0006
19018SOL    HW161611   6.901   4.402   9.166  0.9597  0.6696 -1.7458
19018SOL    HW261612   6.858   4.539   9.215 -0.4107 -0.8667  1.6322
19019SOL     OW61613   5.215   1.631  10.457  0.0129 -0.0635  0.6650
19019SOL    HW161614   5.299   1.591  10.479  0.6967 -0.0478 -1.6778
19019SOL    HW261615   5.173   1.646  10.542  1.4051 -2.0932  1.8033
19020SOL     OW61616   4.919  10.196  11.790 -0.2664  0.4922 -0.4652
19020SOL    HW161617   4.839  10.247  11.805 -0.5900  1.3441 -4.1274
19020SOL    HW261618   4.888  10.107  11.772 -0.2341  0.3907 -0.0095
19021SOL     OW61619   1.494   6.949   8.279  0.2849  0.0518  0.0344
19021SOL    HW161620   1.526   6.860   8.296 -1.6956 -0.5720  0.8108
19021SOL    HW261621   1.459   6.978   8.363  0.2959  1.3276 -0.3802
19022SOL     OW61622  11.957  11.078  10.141 -0.2971  0.5228 -0.6116
19022SOL    HW161623  11.978  11.148  10.079  2.0018  1.0050  0.6121
19022SOL    HW261624  11.886  11.114  10.194 -1.2303  0.7035 -1.9415
19023SOL     OW61625  10.062   4.014  11.238 -0.4066  0.0526  0.1446
19023SOL    HW161626  10.011   3.992  11.316  1.0124  3.1473  2.1315
19023SOL    HW261627  10.117   3.938  11.222 -3.9675 -2.5673 -0.8502
19024SOL     OW61628   9.000  10.768   3.216 -0.0975  0.1307 -0.0277
19024SOL    HW161629   9.061  10.708   3.173  1.3848  2.2470 -1.0655
19024SOL    HW261630   8.926  10.774   3.156 -0.7954 -1.4308  0.6108
19025SOL     OW61631   1.517   6.655   7.992  0.0786 -0.8623  0.0770
19025SOL    HW161632   1.433   6.700   7.985  0.5602  0.1202  0.2907
19025SOL    HW261633   1.543   6.637   7.901 -0.0418 -0.5301 -0.0242
19026SOL     OW61634   9.116   4.211   5.734  0.3455  0.1939  0.3683
19026SOL    HW161635   9.151   4.181   5.818  1.0604 -0.9641 -0.3244
19026SOL    HW261636   9.187   4.261   5.695 -0.6509  2.4474  1.2731
19027SOL     OW61637   4.413  10.537   4.097  0.0359  0.3223  0.2043
19027SOL    HW161638   4.319  10.548   4.103 -0.3743 -2.1070 -0.4883
19027SOL    HW261639   4.435  10.560   4.007  0.0994  0.8414  0.3517
19028SOL     OW61640  12.041   0.034  12.019 -0.5690 -0.0067 -0.0114
19028SOL    HW161641  12.084   0.039  11.933  0.0587 -0.7794  0.2445
19028SOL    HW261642  11.948   0.049  12.000 -0.5171 -0.6871 -0.9080
19029SOL     OW61643  11.758   0.153   1.883  0.1024 -0.2558  0.3479
19029SOL    HW161644  11.709   0.227   1.849 -1.1205 -1.5632 -0.8554
19029SOL    HW261645  11.847   0.186   1.895 -0.8223  1.9425  1.7870
19030SOL     OW61646   0.729   0.744   8.279 -0.0283  0.2388 -0.1941
19030SOL    HW161647   0.711   0.710   8.366 -2.3687 -1.1292 -1.1187
19030SOL    HW261648   0.795   0.686   8.243  0.9181  0.7834  0.5973
19031SOL     OW61649   8.142   3.929   3.709  0.5613  0.0154  0.2980
19031SOL    HW161650   8.212   3.886   3.661  1.2136  0.0823  1.1631
19031SOL    HW261651   8.129   4.013   3.664  0.4718 -0.3385 -0.3494
19032SOL     OW61652   2.004   7.565   5.398 -0.1597 -0.2338  0.0401
19032SOL    HW161653   2.059   7.606   5.465  0.7066 -1.6028  0.2088
19032SOL    HW261654   2.037   7.476   5.392  0.1731 -0.0083 -2.6210
19033SOL     OW61655   4.620  11.097   7.966  0.9010 -0.2587  0.2214
19033SOL    HW161656   4.641  11.007   7.942  1.5209 -0.1885  0.4792
19033SOL    HW261657   4.628  11.099   8.061  0.2377 -0.0939  0.2739
19034SOL     OW61658   1.338  11.955   9.713 -0.0824  0.3230 -0.4996
19034SOL    HW161659   1.246  11.950   9.740  0.0084 -0.9770 -0.3747
19034SOL    HW261660   1.355  12.049   9.705 -1.6331  0.5811 -1.2672
19035SOL     OW61661  10.328   8.565   0.767  0.2228  0.0095 -0.5600
19035SOL    HW161662  10.338   8.518   0.849  0.4008  0.6164 -0.2247
19035SOL    HW261663  10.240   8.602   0.770  0.6716  1.0949 -0.0555
19036SOL     OW61664   4.240   4.322   7.826  0.3694  0.3101  0.2905
19036SOL    HW161665   4.221   4.412   7.852 -2.1122 -0.3622  1.1277
19036SOL    HW261666   4.153   4.281   7.818  1.4281 -2.1037  0.3287
19037SOL     OW61667   4.007   3.883   8.149 -0.1651  0.1458  0.3155
19037SOL    HW161668   4.069   3.952   8.125  0.5619 -0.5137  0.2616
19037SOL    HW261669   4.059   3.823   8.204 -0.1038 -1.6220 -1.5613
19038SOL     OW61670   3.728   1.128   4.666  0.2759 -0.4647 -0.2224
19038SOL    HW161671   3.765   1.090   4.586  3.7478  0.8204  0.5926
19038SOL    HW261672   3.803   1.138   4.725 -1.8608  0.1403  2.6371
19039SOL     OW61673   1.199   4.474  10.879  0.4545  0.4342  0.5993
19039SOL    HW161674   1.177   4.407  10.943 -1.4782  0.7456  0.3200
19039SOL    HW261675   1.171   4.556  10.920 -2.3103  0.5096 -1.1665
19040SOL     OW61676   9.685   5.219   8.198  0.5585 -0.6902 -0.0611
19040SOL    HW161677   9.613   5.227   8.135  1.2151 -3.3327 -1.2911
19040SOL    HW261678   9.759   5.264   8.155  0.9689 -2.3689 -1.2322
19041SOL     OW61679   8.078   9.017   8.926  0.4213 -0.2055 -0.4941
19041SOL    HW161680   8.012   9.084   8.910  0.6266  0.4249  1.0507
19041SOL    HW261681   8.109   8.992   8.839 -1.2573  0.0662 -1.2008
19042SOL     OW61682   5.620   9.070  10.377 -0.0187  0.7271 -0.5475
19042SOL    HW161683   5.613   8.991  10.430 -0.9548  0.2706 -1.3208
19042SOL    HW261684   5.714   9.083  10.365  0.2413  1.0456  1.4927
19043SOL     OW61685   0.161   0.737   2.380  0.5424 -0.0837 -0.1807
19043SOL    HW161686   0.114   0.661   2.414 -3.0563  1.6527 -0.7939
19043SOL    HW261687   0.158   0.726   2.285  0.0569  0.7661 -0.2693
19044SOL     OW61688   8.773   9.053  11.172  0.2002 -0.3389 -0.6912
19044SOL    HW161689   8.709   8.981  11.170  0.8352 -0.9380  0.1086
19044SOL    HW261690   8.817   9.048  11.087 -0.6332 -0.0741 -1.1515
19045SOL     OW61691   3.095   3.844   1.867 -0.0578 -0.2241 -0.2560
19045SOL    HW161692   3.086   3.752   1.844  0.8981 -0.1704 -0.9173
19045SOL    HW261693   3.120   3.887   1.785 -0.5283  0.6287  0.0330
19046SOL     OW61694   0.323   5.433   9.661  0.3726 -0.0927 -0.8331
19046SOL    HW161695   0.242   5.383   9.673  0.0097  0.5887 -0.3720
19046SOL    HW261696   0.374   5.414   9.740 -0.6160  1.7978  0.3399
19047SOL     OW61697   8.656  11.805   5.110  0.0569  0.0349 -0.1585
19047SOL    HW161698   8.626  11.733   5.165  0.5953 -0.8014 -0.9367
19047SOL    HW261699   8.691  11.763   5.032 -2.8438  1.2160 -2.3064
19048SOL     OW61700   9.971   3.678   7.129  0.0897 -0.7665 -0.1557
19048SOL    HW161701   9.946   3.648   7.217 -0.8735  0.1098 -0.1149
19048SOL    HW261702   9.942   3.769   7.125  0.7575 -0.5789 -1.1442
19049SOL     OW61703   5.700   1.261   3.755  0.5861  0.3988 -0.3898
19049SOL    HW161704   5.702   1.167   3.739  0.0750  0.2923  0.1252
19049SOL    HW261705   5.779   1.279   3.806  0.2108  0.0824  0.3213
19050SOL     OW61706   3.253   3.100  10.406 -0.1456  0.0572 -0.1568
19050SOL    HW161707   3.237   3.011  10.373 -1.7781  0.5449 -0.7974
19050SOL    HW261708   3.179   3.118  10.464  0.7056  0.6445  0.7917
19051SOL     OW61709   8.856   1.301  10.689  0.4942  0.2839 -0.0208
19051SOL    HW161710   8.932   1.313  10.745  0.7483  2.2819 -0.7092
19051SOL    HW261711   8.789   1.360  10.726 -0.6600 -1.2410  0.4216
19052SOL     OW61712   4.685   1.876  10.516 -0.3580 -0.6110  0.1341
19052SOL    HW161713   4.654   1.965  10.500  0.3771 -0.5179 -0.9153
19052SOL    HW261714   4.704   1.873  10.610  2.0034  1.1717 -0.1970
19053SOL     OW61715  10.002  10.490   0.437 -0.3351  0.7569  0.5821
19053SOL    HW161716   9.931  10.448   0.389  0.8900 -1.7145  0.8007
19053SOL    HW261717   9.959  10.536   0.509 -1.7116 -0.7034  0.7322
19054SOL     OW61718  11.754   5.634   1.737 -0.1417 -0.4447  0.6380
19054SOL    HW161719  11.675   5.670   1.776  0.1616  1.9900 -0.7871
19054SOL    HW261720  11.752   5.541   1.759 -3.2275 -0.3999  0.8928
19055SOL     OW61721   0.476   2.988  11.175 -0.5634 -0.0203 -0.0223
19055SOL    HW161722   0.516   2.937  11.245 -0.4123 -0.9122 -0.7288
19055SOL    HW261723   0.382   2.975  11.185 -0.5199 -0.5704 -0.2805
19056SOL     OW61724   0.414   2.094  12.110  0.2068  0.0431  0.8505
19056SOL    HW161725   0.490   2.132  12.155 -0.3079  1.0841  0.8859
19056SOL    HW261726   0.398   2.154  12.036 -0.0770 -0.6287  0.3602
19057SOL     OW61727  12.097   7.690   3.024  0.1256 -0.1687  0.5203
19057SOL    HW161728  12.160   7.620   3.038  0.4039 -0.1818 -0.6877
19057SOL    HW261729  12.142   7.751   2.965  0.1243  1.3443  2.0242
19058SOL     OW61730   9.770   4.595   1.439  0.4741 -0.1611 -0.1313
19058SOL    HW161731   9.762   4.676   1.389  0.1174  0.2380  0.5616
19058SOL    HW261732   9.706   4.603   1.510  0.3102 -1.1203 -0.1489
19059SOL     OW61733   7.148   3.991   0.719  1.2189  0.2710 -0.0865
19059SOL    HW161734   7.195   4.047   0.781 -0.5056  1.7226 -0.0288
19059SOL    HW261735   7.204   3.990   0.641  0.4955  3.6752 -0.8096
19060SOL     OW61736   8.676   7.322   4.080 -0.7865  0.4678 -0.4924
19060SOL    HW161737   8.688   7.227   4.081 -0.1836  0.5290 -1.4346
19060SOL    HW261738   8.591   7.336   4.122 -0.4903 -0.4233  0.4149
19061SOL     OW61739   7.736   9.513   0.880 -0.5882 -0.0903  0.1830
19061SOL    HW161740   7.702   9.595   0.916  0.7745 -0.0796  1.5533
19061SOL    HW261741   7.743   9.530   0.786  2.3080  2.4640  0.6973
19062SOL     OW61742   6.372   6.728   3.795  0.1389 -0.2747  0.1164
19062SOL    HW161743   6.347   6.682   3.714  1.4765 -0.4626 -0.2052
19062SOL    HW261744   6.297   6.714   3.854 -0.6906 -0.4629 -0.9425
19063SOL     OW61745   1.960   4.293   4.038  0.0055 -0.7859  0.0623
19063SOL    HW161746   1.868   4.315   4.051  0.0129 -0.5082 -0.3343
19063SOL    HW261747   1.963   4.198   4.039 -0.7888 -0.9446 -3.1222
19064SOL     OW61748   3.585   6.461   9.037  0.4379 -0.1024 -0.2699
19064SOL    HW161749   3.505   6.446   8.986  1.3455 -0.6643 -1.5894
19064SOL    HW261750   3.623   6.374   9.047  0.3069  0.0014  1.3933
19065SOL     OW61751   8.525   1.719   3.358 -0.2243 -0.0682 -0.0749
19065SOL    HW161752   8.607   1.678   3.384 -0.3083  0.0388  0.3701
19065SOL    HW261753   8.500   1.674   3.278  0.3869  0.0578 -0.3461
19066SOL     OW61754   4.519   7.139   5.556  0.4326 -1.1216 -0.5855
19066SOL    HW161755   4.520   7.230   5.527  0.6116 -1.5057 -1.8295
19066SOL    HW261756   4.494   7.144   5.648 -1.9448  0.0295 -1.2077
19067SOL     OW61757   3.586   2.367  10.309  0.2905 -0.3439 -0.8728
19067SOL    HW161758   3.588   2.450  10.261  1.8008 -0.1493 -0.5450
19067SOL    HW261759   3.507   2.372  10.363  0.7953  1.2811 -0.2186
19068SOL     OW61760  10.309  10.117   9.236 -0.2287  0.0256  0.1726
19068SOL    HW161761  10.362  10.087   9.310 -0.6333  2.7654  1.7025
19068SOL    HW261762  10.232  10.061   9.236  0.0249 -0.3424  1.5204
19069SOL     OW61763   6.632   7.824   2.688 -0.7233 -0.3148  0.7981
19069SOL    HW161764   6.607   7.888   2.754 -0.9383 -1.8411  2.2543
19069SOL    HW261765   6.714   7.786   2.720 -0.1607 -0.2036 -0.4533
19070SOL     OW61766   6.398  11.781   7.107 -0.5996 -0.1215 -0.1673
19070SOL    HW161767   6.440  11.763   7.191 -0.5830  1.9882  0.3264
19070SOL    HW261768   6.444  11.724   7.045  0.8304 -0.1861  0.9017
19071SOL     OW61769   1.413   8.030   2.392 -0.1012  0.1337 -0.2614
19071SOL    HW161770   1.386   7.938   2.397  0.5267 -0.1324 -1.2492
19071SOL    HW261771   1.480   8.039   2.460  0.3419 -0.3460 -0.6177
19072SOL     OW61772   8.290   2.361   2.152 -0.1451  0.2511  0.2522
19072SOL    HW161773   8.196   2.345   2.155 -0.0657 -0.2442  0.2007
19072SOL    HW261774   8.315   2.372   2.243 -0.4828  1.8188  0.1827
19073SOL     OW61775   9.184   1.046   4.787  0.3016 -0.4227 -0.1889
19073SOL    HW161776   9.260   1.004   4.747  1.6687  0.8445  0.9195
19073SOL    HW261777   9.221   1.098   4.859 -1.2043  2.8354 -1.5850
19074SOL     OW61778  11.790   0.433   5.211  0.4350 -0.4009 -0.5393
19074SOL    HW161779  11.849   0.468   5.277 -1.4236 -0.4024  1.2307
19074SOL    HW261780  11.820   0.343   5.196 -0.1653 -1.0300  1.7129
19075SOL     OW61781   6.263   0.376  10.077 -0.1838  0.2137  0.8245
19075SOL    HW161782   6.190   0.351  10.134  0.1264 -0.1674  1.0601
19075SOL    HW261783   6.275   0.300  10.020  0.6003 -0.0859  1.3721
19076SOL     OW61784  11.960   2.591   1.784 -0.6260 -0.2611 -0.1779
19076SOL    HW161785  11.970   2.636   1.699  0.1039  0.8657  0.4767
19076SOL    HW261786  11.866   2.594   1.802 -0.6064  1.0195 -0.1651
19077SOL     OW61787   3.700   2.756   0.134 -0.3667  0.4686  0.3276
19077SOL    HW161788   3.725   2.845   0.109  1.2823  0.2853  1.2024
19077SOL    HW261789   3.709   2.705   0.054 -0.0254  0.8357  0.1295
19078SOL     OW61790   0.856   9.438  11.508 -0.7218 -0.2023  0.2070
19078SOL    HW161791   0.775   9.387  11.510 -0.8359 -0.1303 -1.1400
19078SOL    HW261792   0.845   9.497  11.433  1.8123 -2.3607 -2.1225
19079SOL     OW61793   6.137  10.028  10.314  0.0036 -0.0581 -0.1772
19079SOL    HW161794   6.139  10.044  10.408 -0.7271  0.6360 -0.2715
19079SOL    HW261795   6.157  10.114  10.275 -2.6988  0.4201 -0.6869
19080SOL     OW61796   7.592   6.891   7.660  0.1679  0.0625  0.1850
19080SOL    HW161797   7.660   6.825   7.646 -2.4490 -2.8278  0.0873
19080SOL    HW261798   7.566   6.880   7.751  0.3032  1.6873  0.4513
19081SOL     OW61799   7.853   7.543   0.662 -0.0634  0.0484 -0.4705
19081SOL    HW161800   7.776   7.510   0.708  0.5179  1.6440  1.8680
19081SOL    HW261801   7.847   7.506   0.574 -2.2662 -1.6859  0.3232
19082SOL     OW61802   6.658   2.127   1.151 -0.1571 -0.5261  0.7540
19082SOL    HW161803   6.707   2.047   1.169  0.3674 -0.4256 -0.1923
19082SOL    HW261804   6.680   2.150   1.061 -0.2023  0.7556  1.0383
19083SOL     OW61805   9.762   8.837  11.958 -0.1469  0.1269  0.1439
19083SOL    HW161806   9.801   8.878  11.881 -0.5509 -0.0301 -0.1449
19083SOL    HW261807   9.677   8.805  11.928  0.6540 -2.0312  0.0311
19084SOL     OW61808   1.000   9.715   4.699  0.1019 -0.3550  0.3779
19084SOL    HW161809   1.042   9.694   4.615 -0.6432 -0.1966 -0.0427
19084SOL    HW261810   0.971   9.806   4.689  1.3145  0.1795  1.3635
19085SOL     OW61811   8.872   3.525   6.406  0.0770 -0.2887 -0.3062
19085SOL    HW161812   8.857   3.507   6.499  0.6300 -0.0081 -0.1631
19085SOL    HW261813   8.826   3.608   6.390  1.7428  0.7710  0.2240
19086SOL     OW61814  11.181   8.149   3.977  0.0295  0.1132 -0.2121
19086SOL    HW161815  11.187   8.157   4.072 -0.6823  1.4906 -0.2720
19086SOL    HW261816  11.272   8.152   3.948  0.1941  1.0242  0.3421
19087SOL     OW61817  11.586   3.898   6.649 -0.4246  0.1572 -0.0641
19087SOL    HW161818  11.565   3.979   6.695  0.7396  0.6914 -0.4328
19087SOL    HW261819  11.670   3.916   6.606  0.2488 -1.4894  0.4752
19088SOL     OW61820   6.584  11.741   5.972 -0.1558  0.1286  0.2030
19088SOL    HW161821   6.629  11.795   6.037  1.3316  0.0979 -0.7461
19088SOL    HW261822   6.644  11.738   5.898 -0.8953 -1.5649 -0.3773
19089SOL     OW61823   9.701  11.398   6.234 -0.6687  0.3280 -0.3533
19089SOL    HW161824   9.640  11.432   6.169  0.6914  1.7957 -0.9381
19089SOL    HW261825   9.734  11.475   6.279  2.0075 -0.1808 -1.2434
19090SOL     OW61826   9.311   1.471   2.885 -0.1962 -0.0206  0.3102
19090SOL    HW161827   9.328   1.490   2.977  0.6904  1.3513 -0.1057
19090SOL    HW261828   9.369   1.398   2.864 -0.8276 -0.7356  0.9598
19091SOL     OW61829  10.461   3.412   2.257 -0.3345  0.2797 -0.5508
19091SOL    HW161830  10.504   3.421   2.342 -1.0160  2.7348 -0.4046
19091SOL    HW261831  10.377   3.371   2.278 -0.5281  0.9348 -0.0196
19092SOL     OW61832   7.176   3.394   5.477  0.2336  0.2087 -0.5033
19092SOL    HW161833   7.183   3.396   5.572 -0.9215  1.1285 -0.4132
19092SOL    HW261834   7.087   3.423   5.458  0.2910 -0.3903 -1.8576
19093SOL     OW61835   5.601   1.088   8.979 -0.2912 -0.1938  0.0757
19093SOL    HW161836   5.622   0.995   8.971  0.2515 -0.0095 -0.6893
19093SOL    HW261837   5.566   1.097   9.068  0.1896 -1.0205  0.3599
19094SOL     OW61838  10.605   8.307   8.077 -0.0231 -0.2072 -0.0374
19094SOL    HW161839  10.671   8.304   8.145 -0.0488  0.4245  0.0141
19094SOL    HW261840  10.523   8.286   8.122  0.1473 -1.1076 -0.1229
19095SOL     OW61841   7.153   1.498   4.588  0.3632 -0.3809  0.3355
19095SOL    HW161842   7.138   1.530   4.676  2.5184  0.4097  0.4495
19095SOL    HW261843   7.246   1.476   4.585  0.5530  0.4350 -1.9805
19096SOL     OW61844   8.546   8.953   2.733 -0.6196 -0.6182  0.6445
19096SOL    HW161845   8.620   8.915   2.780 -1.1395  0.4914  2.4654
19096SOL    HW261846   8.583   9.025   2.683 -0.2552 -0.9916  0.3745
19097SOL     OW61847   2.027   1.291   9.512 -0.0930 -0.6115 -0.4982
19097SOL    HW161848   2.010   1.306   9.605 -0.0073 -2.2631 -0.1927
19097SOL    HW261849   2.034   1.196   9.503  0.5714 -0.4508 -2.0860
19098SOL     OW61850   3.614   8.074   7.668  0.4678 -0.4705  0.1966
19098SOL    HW161851   3.541   8.132   7.646  1.6129  1.3419  0.9114
19098SOL    HW261852   3.672   8.128   7.722  2.1136 -1.9942  0.0514
19099SOL     OW61853  10.601   9.575   0.286 -0.2643 -0.4775 -0.5221
19099SOL    HW161854  10.576   9.575   0.379  1.4961 -0.6403 -0.0108
19099SOL    HW261855  10.690   9.540   0.286  0.4546  1.2101 -2.0830
19100SOL     OW61856  10.164   1.301   0.333  0.2719 -0.1576 -0.5584
19100SOL    HW161857  10.089   1.295   0.273 -0.5383  1.6678  0.1994
19100SOL    HW261858  10.186   1.394   0.335  0.0743 -0.0898  2.1740
19101SOL     OW61859   1.911   7.105   8.712 -0.0234 -0.1733  0.0807
19101SOL    HW161860   1.997   7.079   8.745 -0.4182  0.0860  1.3557
19101SOL    HW261861   1.929   7.135   8.622  0.6928 -3.1098 -0.8632
19102SOL     OW61862  10.239   5.389   2.221  0.5519 -0.2436  0.2158
19102SOL    HW161863  10.226   5.375   2.315 -1.9373  0.7235  0.0778
19102SOL    HW261864  10.165   5.344   2.180  0.5751  0.9252 -1.1584
19103SOL     OW61865   2.050   8.088   2.562 -0.1740  0.5905 -0.3609
19103SOL    HW161866   2.000   8.169   2.559 -0.4280  0.4443 -0.1447
19103SOL    HW261867   2.005   8.030   2.499  1.5020  1.4444 -2.4694
19104SOL     OW61868  10.738   9.853   3.126 -0.4353 -0.1699 -0.0012
19104SOL    HW161869  10.676   9.841   3.197 -3.5463  1.8820 -2.1366
19104SOL    HW261870  10.741   9.948   3.112  2.4441 -0.2654 -0.7138
19105SOL     OW61871   9.219   5.259   3.035 -0.4634 -0.0571 -0.0599
19105SOL    HW161872   9.140   5.205   3.037  0.5140 -1.5159  0.8812
19105SOL    HW261873   9.288   5.203   3.070  0.7968  1.5219  0.1255
19106SOL     OW61874   3.398   3.383   7.600 -0.2983  0.6545 -0.3735
19106SOL    HW161875   3.444   3.375   7.684  0.2493 -0.9462 -0.8057
19106SOL    HW261876   3.411   3.475   7.575  3.6069  0.1028 -0.9730
19107SOL     OW61877  10.782   0.337   0.556 -0.4752 -0.4575  0.1405
19107SOL    HW161878  10.712   0.398   0.534  0.7876  0.8823 -0.3729
19107SOL    HW261879  10.862   0.390   0.548  0.5900 -1.9471  0.6322
19108SOL     OW61880   1.031   5.811   6.587  0.2348 -0.4432 -0.3267
19108SOL    HW161881   0.971   5.799   6.661  2.5011  0.8812  1.8941
19108SOL    HW261882   0.988   5.876   6.531 -0.6581  0.0532  0.8888
19109SOL     OW61883   1.517   0.649  10.572 -0.4382  0.2232 -0.0715
19109SOL    HW161884   1.471   0.616  10.649 -2.1588  0.5065 -0.9453
19109SOL    HW261885   1.454   0.640  10.501 -0.0958  3.0369 -0.8415
19110SOL     OW61886  11.259  10.643  11.856 -0.4360  0.2419 -0.3141
19110SOL    HW161887  11.217  10.678  11.777 -1.3073  0.6681  0.3170
19110SOL    HW261888  11.280  10.721  11.908  1.6495  0.0815 -0.8275
19111SOL     OW61889   3.455  11.276   7.446  0.5101 -0.1521 -0.0986
19111SOL    HW161890   3.436  11.367   7.423 -0.9853 -0.7308 -1.3743
19111SOL    HW261891   3.517  11.246   7.379 -1.7147 -1.0281 -1.9221
19112SOL     OW61892   1.227   3.062   8.092  0.0819 -0.2987 -0.0046
19112SOL    HW161893   1.295   3.027   8.150 -0.9012 -1.1505  0.6720
19112SOL    HW261894   1.258   3.040   8.004  0.8904 -0.2856  0.2654
19113SOL     OW61895   7.727   8.164   0.525  0.7738  0.3343 -0.0841
19113SOL    HW161896   7.666   8.169   0.598 -0.6811  0.2189 -1.2403
19113SOL    HW261897   7.796   8.105   0.554  0.8652  1.2301  1.6125
19114SOL     OW61898   7.483   1.586   3.193  0.3027  1.1553 -0.3018
19114SOL    HW161899   7.574   1.558   3.195 -0.1660 -0.8835 -2.7077
19114SOL    HW261900   7.438   1.527   3.254  0.1287 -0.1192 -1.6017
19115SOL     OW61901   4.437   4.092   6.686 -0.0467 -0.0811 -0.1182
19115SOL    HW161902   4.493   4.133   6.751  0.3138 -0.7921  0.0328
19115SOL    HW261903   4.477   4.006   6.670  0.6842  0.6092 -2.3309
19116SOL     OW61904  11.543   7.037   2.494 -0.2009  0.4786  0.4234
19116SOL    HW161905  11.588   7.007   2.416 -1.2866 -2.3563  0.7669
19116SOL    HW261906  11.543   7.133   2.487  0.4050  0.3428 -2.6131
19117SOL     OW61907   8.575   4.403   0.147 -0.0767 -0.2539  0.4629
19117SOL    HW161908   8.551   4.443   0.231  0.5298  0.0929  0.4745
19117SOL    HW261909   8.653   4.451   0.119 -1.6931  1.3885 -1.5601
19118SOL     OW61910   7.513   9.524   1.963 -0.1122  0.1446  0.8840
19118SOL    HW161911   7.434   9.565   1.930  0.1273 -0.8248 -0.9898
19118SOL    HW261912   7.574   9.597   1.978  0.2875  0.5951 -2.3231
19119SOL     OW61913   2.997   8.136   9.359  0.1372  0.7735 -0.1653
19119SOL    HW161914   3.049   8.135   9.279  1.0144  0.3355  0.3987
19119SOL    HW261915   2.906   8.136   9.328  0.4514  1.6464 -1.1670
19120SOL     OW61916  10.368   0.033   8.925  0.1606  0.3916 -0.8059
19120SOL    HW161917  10.398  -0.053   8.956  0.0591  1.1825  1.6317
19120SOL    HW261918  10.278   0.040   8.956  0.4945  1.7746 -0.0613
19121SOL     OW61919   4.195   7.310   6.873  0.0989 -0.5144  0.7979
19121SOL    HW161920   4.246   7.296   6.953  1.8675  0.0756 -0.1772
19121SOL    HW261921   4.204   7.404   6.855 -0.3862 -0.6154 -0.0195
19122SOL     OW61922   5.422   7.212   6.025 -0.0203 -0.6818  0.0491
19122SOL    HW161923   5.428   7.120   6.052 -2.2262 -1.2468 -1.1378
19122SOL    HW261924   5.443   7.211   5.932 -0.0879  0.0278  0.0234
19123SOL     OW61925   2.586   3.462   5.505 -0.0683 -0.4282 -0.2189
19123SOL    HW161926   2.612   3.447   5.414  0.5329  1.3017 -0.3595
19123SOL    HW261927   2.589   3.375   5.545  1.5009 -0.9561 -1.3723
19124SOL     OW61928   6.227   7.846   3.738  0.3027  0.0628  0.1966
19124SOL    HW161929   6.188   7.760   3.724  1.7888 -0.8103  1.1780
19124SOL    HW261930   6.155   7.901   3.770 -0.6478 -0.7993 -0.4131
19125SOL     OW61931   8.165   6.423  11.180 -0.2640 -0.0273  0.2837
19125SOL    HW161932   8.079   6.431  11.221 -1.2419 -2.9347 -0.9529
19125SOL    HW261933   8.211   6.357  11.232  0.3051 -0.2166 -0.4418
19126SOL     OW61934   8.725   9.578  10.693 -0.2011  0.1173 -0.1607
19126SOL    HW161935   8.691   9.667  10.683 -1.3752 -0.4419 -1.3448
19126SOL    HW261936   8.820   9.590  10.705 -0.5210  1.5826  1.2054
19127SOL     OW61937   1.984   4.016   3.999 -0.2591  0.0924 -0.1673
19127SOL    HW161938   1.949   3.928   4.010  0.2639 -0.4021 -2.1638
19127SOL    HW261939   2.071   4.012   4.037 -1.2369  0.5923  2.3424
19128SOL     OW61940   7.916  10.987   8.486  0.1535  0.0504  0.6932
19128SOL    HW161941   7.915  11.023   8.397  1.0255 -1.1234  0.1809
19128SOL    HW261942   7.937  11.062   8.542 -0.1060  0.7402 -0.1176
19129SOL     OW61943   2.585  10.352  11.901  0.2116 -0.1452 -0.2112
19129SOL    HW161944   2.521  10.305  11.956  0.2122  0.4137  0.2758
19129SOL    HW261945   2.531  10.398  11.836  0.1081  0.3161  0.1921
19130SOL     OW61946  11.370   3.008  11.764  0.0874  0.0502 -0.3940
19130SOL    HW161947  11.315   3.041  11.835 -1.9904 -0.4471 -1.6810
19130SOL    HW261948  11.384   2.916  11.785  0.4788  0.1859 -0.0461
19131SOL     OW61949   6.627   7.542   7.213 -0.4302  0.6008 -0.6316
19131SOL    HW161950   6.698   7.490   7.250 -0.6011  0.4260 -0.5473
19131SOL    HW261951   6.618   7.616   7.274 -0.3891  0.5678 -0.5853
19132SOL     OW61952   0.936   8.307   5.007 -0.1915 -0.5257 -0.1474
19132SOL    HW161953   1.003   8.308   5.075  0.1420 -1.1333 -0.4547
19132SOL    HW261954   0.891   8.224   5.018  0.6246 -1.1661 -1.3668
19133SOL     OW61955   4.276  10.286   4.119  0.1662  0.5870  0.2580
19133SOL    HW161956   4.283  10.312   4.027 -0.0401  1.2877  0.4319
19133SOL    HW261957   4.358  10.240   4.137  0.0364  0.0724 -0.3810
19134SOL     OW61958   4.781   8.976  10.000 -0.1699 -0.6092 -0.0792
19134SOL    HW161959   4.863   8.953  10.043  0.9340  2.9565  0.0432
19134SOL    HW261960   4.798   8.962   9.907 -0.0423 -1.4832  0.0675
19135SOL     OW61961   9.910  11.614   9.165  0.8555  0.0427  0.5352
19135SOL    HW161962   9.945  11.560   9.236 -0.6220 -0.9452  0.5645
19135SOL    HW261963   9.976  11.609   9.096  1.3661 -0.7002  1.0578
19136SOL     OW61964  11.714   2.113   1.819 -0.6931 -0.7751 -0.1478
19136SOL    HW161965  11.763   2.088   1.897  0.0817  1.1683  0.0475
19136SOL    HW261966  11.634   2.060   1.823 -0.1159 -1.5945  1.3016
19137SOL     OW61967  11.716   8.699   5.687  0.3284  0.3417 -0.1781
19137SOL    HW161968  11.718   8.788   5.723  1.3318  0.2793 -0.0556
19137SOL    HW261969  11.785   8.699   5.620  1.9838 -0.9847  1.4122
19138SOL     OW61970   5.809   2.178   3.242 -0.4138  0.1617 -0.2815
19138SOL    HW161971   5.852   2.226   3.312  0.5148 -0.2265 -0.5806
19138SOL    HW261972   5.866   2.188   3.166 -1.0890  0.0397 -0.8219
19139SOL     OW61973   8.535   1.445   6.900 -0.8172  0.4085  0.4300
19139SOL    HW161974   8.507   1.517   6.956 -2.5136  0.8765 -0.9520
19139SOL    HW261975   8.546   1.485   6.813  0.3605 -0.5790  0.0970
19140SOL     OW61976   9.795  11.910   0.725 -0.3686  0.3802 -0.3862
19140SOL    HW161977   9.811  11.845   0.656  0.6897 -0.8474  0.9353
19140SOL    HW261978   9.733  11.972   0.686 -0.3796 -0.6711 -2.1667
19141SOL     OW61979   9.909   8.613   8.993  0.1912  0.4645 -1.1803
19141SOL    HW161980   9.994   8.651   9.016 -0.2265  0.6403  0.1257
19141SOL    HW261981   9.847   8.659   9.048 -0.5663 -0.8048 -0.9526
19142SOL     OW61982   2.423   4.729   6.099  0.1227  0.6498  0.0373
19142SOL    HW161983   2.414   4.693   6.187 -2.2649 -2.9496 -1.4512
19142SOL    HW261984   2.518   4.739   6.087  0.6428 -0.9360  2.2488
19143SOL     OW61985   7.748   9.169   8.450  0.4110 -0.6570  0.1155
19143SOL    HW161986   7.784   9.118   8.377  0.1848 -1.7728  0.7639
19143SOL    HW261987   7.826   9.199   8.498  0.5436 -1.2417  0.2842
19144SOL     OW61988   4.658   8.015   9.813 -0.3401  0.2791 -0.0398
19144SOL    HW161989   4.613   7.930   9.817  0.2173 -0.0244  0.0139
19144SOL    HW261990   4.693   8.027   9.901  0.5987 -0.0122 -0.3614
19145SOL     OW61991  11.925   3.560  11.021  0.0849 -0.2414  0.1906
19145SOL    HW161992  11.854   3.496  11.022 -0.4177  0.2987 -0.1490
19145SOL    HW261993  11.932   3.588  10.929  0.4140  0.0648  0.3040
19146SOL     OW61994   1.186   3.400   5.152 -0.1669 -0.2313  0.1720
19146SOL    HW161995   1.279   3.405   5.132 -0.5694  1.0098 -1.7150
19146SOL    HW261996   1.148   3.474   5.106 -2.0935 -0.6945  0.9227
19147SOL     OW61997   7.588   6.963  10.452 -1.0505  0.1205  0.1472
19147SOL    HW161998   7.662   6.911  10.483 -0.7633  0.9757  0.9606
19147SOL    HW261999   7.612   6.988  10.362  0.0398  1.0554  0.6709
19148SOL     OW62000  12.070   3.464   5.127 -0.2168 -0.4229  0.4410
19148SOL    HW162001  12.123   3.393   5.091  1.1833 -0.9995  3.3362
19148SOL    HW262002  12.114   3.544   5.099 -0.8721 -0.6980 -1.4809
19149SOL     OW62003   4.678   9.878  10.563  0.2958  0.2451  0.2371
19149SOL    HW162004   4.589   9.889  10.529  1.0957 -0.1086 -2.1716
19149SOL    HW262005   4.689   9.784  10.574  0.6558  0.2163 -0.3355
19150SOL     OW62006   2.753   2.692   8.196 -0.2590  0.5669  0.2495
19150SOL    HW162007   2.688   2.750   8.156 -0.5120 -0.6816 -1.2349
19150SOL    HW262008   2.710   2.607   8.200  0.8112  0.0238  0.5409
19151SOL     OW62009  10.370   2.434   2.358  0.2310  0.7527  0.0337
19151SOL    HW162010  10.393   2.487   2.282 -0.4245 -2.4685 -2.6603
19151SOL    HW262011  10.275   2.446   2.368  0.2952  1.0717  0.2762
19152SOL     OW62012   9.693   4.225   3.764  0.3156  0.4243 -0.3332
19152SOL    HW162013   9.780   4.256   3.790 -0.1706  2.7462 -1.2591
19152SOL    HW262014   9.711   4.153   3.703  1.5380 -0.0992  0.6023
19153SOL     OW62015   5.030   9.398   5.097  0.0185  0.4956  0.3297
19153SOL    HW162016   4.963   9.341   5.134 -0.5518  0.8523 -0.1463
19153SOL    HW262017   5.025   9.383   5.003 -0.3563  1.5627  0.1702
19154SOL     OW62018   4.511   4.605   4.764  0.2959 -0.1784  0.7661
19154SOL    HW162019   4.564   4.655   4.702 -0.2481  0.1076  0.5200
19154SOL    HW262020   4.557   4.522   4.774  0.4800 -0.1615  0.1049
19155SOL     OW62021   2.436  10.547   8.282  0.1238 -0.3179  0.1599
19155SOL    HW162022   2.499  10.479   8.306 -0.6541 -0.4130  2.0883
19155SOL    HW262023   2.442  10.612   8.353 -1.9874 -0.3796  0.4671
19156SOL     OW62024   8.368   3.966   8.463  0.2461  0.3791  0.1421
19156SOL    HW162025   8.407   4.052   8.478  1.1425 -0.3608  2.4430
19156SOL    HW262026   8.290   3.965   8.518  0.3116 -0.3122  0.2303
19157SOL     OW62027   1.310   4.575   8.491 -0.2828 -0.8234 -0.0027
19157SOL    HW162028   1.261   4.569   8.408 -0.4367 -1.8123  0.1548
19157SOL    HW262029   1.281   4.499   8.542  0.3518 -0.6217  0.6739
19158SOL     OW62030   5.267   1.017   8.450 -0.1062 -0.1261 -0.1215
19158SOL    HW162031   5.177   0.988   8.433 -0.1348  0.0336 -0.2581
19158SOL    HW262032   5.320   0.965   8.390  0.2320 -2.3147  1.9704
19159SOL     OW62033   6.945  11.179   7.287 -0.1341  0.0516  0.3142
19159SOL    HW162034   6.881  11.122   7.245  0.3699 -0.8510  0.7430
19159SOL    HW262035   6.904  11.266   7.286 -0.8457 -0.2814 -0.4877
19160SOL     OW62036   9.255   9.034   6.277 -0.2645 -0.3336 -0.6144
19160SOL    HW162037   9.180   8.986   6.242  0.3772  0.2611 -3.0224
19160SOL    HW262038   9.238   9.126   6.255  1.0351 -0.1674 -1.0564
19161SOL     OW62039   2.938  10.149   8.915 -0.2668 -0.0757 -0.8845
19161SOL    HW162040   2.870  10.205   8.954  0.0967  0.3324 -0.8293
19161SOL    HW262041   2.958  10.191   8.831 -0.0412 -0.1658 -0.8745
19162SOL     OW62042   4.593   3.663   4.336 -0.0481 -0.5396 -0.3385
19162SOL    HW162043   4.544   3.706   4.406 -1.0222 -0.2924 -1.1492
19162SOL    HW262044   4.633   3.735   4.287  1.3577 -0.7502  0.4596
19163SOL     OW62045   4.989   4.305   1.051  0.3044 -0.6919  0.6208
19163SOL    HW162046   4.914   4.298   0.991 -0.1788  0.6759  1.0167
19163SOL    HW262047   5.060   4.339   0.997  0.2045 -0.5670  0.5668
19164SOL     OW62048   2.019   6.566   4.426  0.1018 -0.0883 -0.0066
19164SOL    HW162049   2.015   6.544   4.519  0.5758  1.3968  0.3808
19164SOL    HW262050   1.963   6.501   4.384 -0.5528 -0.4447  1.3685
19165SOL     OW62051   0.609   6.926   5.303 -0.7797 -0.6590  0.1856
19165SOL    HW162052   0.534   6.984   5.315 -0.4515  0.1988 -1.4957
19165SOL    HW262053   0.600   6.895   5.213  0.4951 -1.0919  0.1921
19166SOL     OW62054   9.489   3.938   6.295 -0.0035 -0.3521  0.3503
19166SOL    HW162055   9.484   3.846   6.321  0.8558 -0.2701  0.8289
19166SOL    HW262056   9.517   3.984   6.374  2.0583 -0.0191 -0.5151
19167SOL     OW62057   4.502  11.641   0.767 -0.3074 -0.1140  0.0393
19167SOL    HW162058   4.455  11.567   0.806  1.5138 -1.4006 -0.1324
19167SOL    HW262059   4.439  11.713   0.772 -2.0357 -1.5655  0.4777
19168SOL     OW62060   0.330  10.034   2.162 -0.1374 -0.1125 -0.3097
19168SOL    HW162061   0.341  10.057   2.070  0.9601  2.8969  0.4584
19168SOL    HW262062   0.419  10.010   2.191 -0.3614 -0.4474  0.1094
19169SOL     OW62063   3.585   2.458   0.918  0.4362  0.2466 -0.3492
19169SOL    HW162064   3.530   2.425   0.990  0.2828 -0.4430 -0.7750
19169SOL    HW262065   3.549   2.545   0.899 -1.3104 -0.6558 -1.4226
19170SOL     OW62066   1.082   5.215   5.779 -0.1975  0.1405  0.3731
19170SOL    HW162067   1.115   5.126   5.770 -0.9852 -0.1140 -0.0802
19170SOL    HW262068   1.151   5.270   5.744  1.3115 -0.0882  2.7439
19171SOL     OW62069   6.917   6.110   8.118  1.0365 -0.1809  0.5579
19171SOL    HW162070   6.871   6.094   8.200 -0.9324  2.4157  0.0903
19171SOL    HW262071   7.008   6.127   8.144  0.8524 -1.1969  1.9575
19172SOL     OW62072   0.156   5.364   8.522 -0.0357  0.4652 -0.2582
19172SOL    HW162073   0.127   5.411   8.444  0.6439 -1.3348 -1.6716
19172SOL    HW262074   0.153   5.430   8.592 -1.9151  1.8105 -1.4941
19173SOL     OW62075   4.691  11.036   7.070 -0.0483 -0.1605  0.0199
19173SOL    HW162076   4.713  10.961   7.126  0.2772 -0.0646  0.0252
19173SOL    HW262077   4.646  11.097   7.128  0.1140 -0.1466  0.1330
19174SOL     OW62078   2.488   0.827  12.041  0.3575 -0.0687  0.2875
19174SOL    HW162079   2.510   0.890  12.110 -1.8528  1.9112 -0.6892
19174SOL    HW262080   2.411   0.781  12.074 -0.7814  0.9686 -0.8517
19175SOL     OW62081  11.336   7.639   3.893  0.3450 -0.4892  0.0989
19175SOL    HW162082  11.343   7.733   3.911  2.2767 -0.3501 -1.1356
19175SOL    HW262083  11.303   7.602   3.975  0.8495  1.1040  1.0695
19176SOL     OW62084  11.829  11.035   7.496  0.0421  0.5742 -0.3930
19176SOL    HW162085  11.795  11.117   7.531 -0.4483  0.1033  0.2558
19176SOL    HW262086  11.924  11.045   7.501 -0.0096  1.1015 -0.3256
19177SOL     OW62087   8.326   8.621   8.003  0.2095 -0.4761 -0.2100
19177SOL    HW162088   8.241   8.617   8.046  0.5177  1.6015  0.7097
19177SOL    HW262089   8.323   8.700   7.950  1.8305  0.0971  0.4755
19178SOL     OW62090   4.789   9.713   3.553 -0.3361 -0.1073 -0.4869
19178SOL    HW162091   4.803   9.806   3.535 -0.6541  0.3554  1.4493
19178SOL    HW262092   4.698   9.697   3.527 -0.1243 -0.0421 -1.3172
19179SOL     OW62093   9.270   7.681   7.015 -0.3252 -0.7629 -0.2656
19179SOL    HW162094   9.250   7.760   6.964 -0.0265 -0.8412 -0.5050
19179SOL    HW262095   9.294   7.615   6.950 -0.6219 -1.0667 -0.0674
19180SOL     OW62096   6.050   8.594   1.357  0.4458  0.9253 -0.2203
19180SOL    HW162097   6.000   8.661   1.404 -0.0689 -0.1127  0.7541
19180SOL    HW262098   6.137   8.596   1.396 -0.0183 -0.0221  0.8960
19181SOL     OW62099   6.885  10.266   3.003 -0.2285  0.0684  0.3245
19181SOL    HW162100   6.899  10.218   3.084  1.8492  1.9913  1.2085
19181SOL    HW262101   6.818  10.331   3.026  0.0448  0.3317  0.3832
19182SOL     OW62102  10.672   3.076   6.025 -0.2000 -0.0867 -0.0796
19182SOL    HW162103  10.671   3.104   5.933  0.5018  2.2865  0.5564
19182SOL    HW262104  10.677   2.981   6.021  2.7189 -0.0020 -2.5837
19183SOL     OW62105  10.831  12.042  10.548  0.1712  0.2661 -0.6401
19183SOL    HW162106  10.890  12.103  10.504 -0.4401  1.6684  0.4270
19183SOL    HW262107  10.799  11.985  10.478 -0.7703  2.4223 -2.0652
19184SOL     OW62108   4.320   6.880   8.943  0.1777 -0.0210  0.0447
19184SOL    HW162109   4.278   6.820   8.880 -0.1769  0.3113 -0.0418
19184SOL    HW262110   4.404   6.838   8.963 -0.2307 -0.7467  0.2871
19185SOL     OW62111  10.729   8.868  10.381 -0.5734 -0.4392  0.0560
19185SOL    HW162112  10.802   8.878  10.441  0.3007 -0.3095 -1.0040
19185SOL    HW262113  10.714   8.956  10.346 -1.9604 -0.2389  1.0541
19186SOL     OW62114  10.468   4.642   1.820  0.3020 -0.5305 -0.3189
19186SOL    HW162115  10.517   4.714   1.780  0.5542 -1.6256 -2.0686
19186SOL    HW262116  10.380   4.648   1.782 -0.2906  0.0252  1.0608
19187SOL     OW62117   2.534   9.045   2.664  0.0521 -0.4982 -0.2142
19187SOL    HW162118   2.497   8.990   2.733  0.2320  0.6466  0.8374
19187SOL    HW262119   2.554   8.985   2.593  0.8842 -1.9044  1.1508
19188SOL     OW62120   4.125   6.137  10.218 -0.1674  0.0044 -0.1954
19188SOL    HW162121   4.207   6.178  10.190 -1.0364  0.9366 -1.4495
19188SOL    HW262122   4.128   6.049  10.180  0.5912 -0.2540  0.4319
19189SOL     OW62123   9.035   9.389  10.596 -0.3861  0.1132 -0.5784
19189SOL    HW162124   8.964   9.365  10.655 -1.6436  0.8588 -1.7237
19189SOL    HW262125   9.081   9.460  10.642 -0.2816 -0.4667  0.2299
19190SOL     OW62126   1.380   1.737   0.753  0.1026 -0.4742  0.0678
19190SOL    HW162127   1.440   1.768   0.685 -0.2442  0.5630  0.2166
19190SOL    HW262128   1.425   1.758   0.835  1.0742 -2.7999  0.2172
19191SOL     OW62129   2.023   9.124   4.113 -0.1785  0.3106  0.0637
19191SOL    HW162130   1.961   9.195   4.096  0.9665  1.0213 -1.4063
19191SOL    HW262131   2.034   9.081   4.028  0.0975 -0.8401  0.6709
19192SOL     OW62132   4.531   8.555   6.271  0.4025  0.0311  0.3857
19192SOL    HW162133   4.569   8.639   6.248  0.0833  1.0059  3.0367
19192SOL    HW262134   4.597   8.513   6.327 -0.3767 -0.4749  0.9432
19193SOL     OW62135   4.743   8.542   8.698  0.0908 -0.4730  0.1707
19193SOL    HW162136   4.677   8.488   8.655  1.8101 -2.6619  0.0599
19193SOL    HW262137   4.711   8.551   8.788 -1.3649  0.3739 -0.3934
19194SOL     OW62138   5.265   2.166   0.299  0.3443 -0.9506  0.1889
19194SOL    HW162139   5.193   2.160   0.362 -0.1709 -2.1025 -0.4720
19194SOL    HW262140   5.232   2.122   0.221  1.2567 -0.2301 -0.6258
19195SOL     OW62141   3.238  11.655   9.034 -0.6537  0.0028  0.1991
19195SOL    HW162142   3.330  11.675   9.015 -0.5910 -0.7159 -0.2748
19195SOL    HW262143   3.191  11.736   9.014 -0.1822  0.2326  0.0179
19196SOL     OW62144   4.563   0.003   9.287  0.3961 -0.1087  0.2219
19196SOL    HW162145   4.525   0.086   9.258  0.3965 -0.2216 -0.1047
19196SOL    HW262146   4.593  -0.040   9.207 -0.1769 -0.7120  0.3187
19197SOL     OW62147   6.525   5.436   7.297 -0.0899  0.2750 -0.0774
19197SOL    HW162148   6.480   5.382   7.362  0.6565  2.5477  2.5037
19197SOL    HW262149   6.581   5.374   7.249 -0.8336 -1.5474  1.2963
19198SOL     OW62150   1.427   6.307   0.323  0.1783 -0.0250  0.2884
19198SOL    HW162151   1.471   6.385   0.290 -0.8178 -0.0030 -1.1117
19198SOL    HW262152   1.435   6.243   0.252 -1.7789 -0.0968  0.0778
19199SOL     OW62153   3.643   2.134   7.067 -0.8435  0.0147  0.5420
19199SOL    HW162154   3.700   2.209   7.051 -0.9585  0.3727  1.7086
19199SOL    HW262155   3.690   2.081   7.131 -0.3865 -1.3599 -0.8852
19200SOL     OW62156   9.218   5.223   6.288  0.4869  0.5657  0.2179
19200SOL    HW162157   9.173   5.302   6.319 -1.0580 -0.3263  0.3600
19200SOL    HW262158   9.170   5.198   6.209  0.8969 -0.2852  0.2293
19201SOL     OW62159   1.337   0.986   3.922  0.2529 -0.0836 -0.2438
19201SOL    HW162160   1.259   1.035   3.894 -0.4416 -1.3465 -0.5804
19201SOL    HW262161   1.330   0.902   3.877  0.6248 -1.0837  1.4996
19202SOL     OW62162   8.598   7.000   1.934 -0.4240 -0.3404 -0.0094
19202SOL    HW162163   8.545   6.931   1.972  1.2668 -1.6253  0.1351
19202SOL    HW262164   8.610   7.063   2.005  0.3583 -1.3266  0.7625
19203SOL     OW62165  10.740  11.726  10.153  1.1267  0.0424  0.0996
19203SOL    HW162166  10.685  11.766  10.086 -1.7316 -1.4252  1.4037
19203SOL    HW262167  10.807  11.678  10.103  0.0002  0.1955 -1.6489
19204SOL     OW62168   5.523   6.884   7.888  0.3595  0.3499  0.2606
19204SOL    HW162169   5.539   6.806   7.941 -2.7600  1.2881  2.9215
19204SOL    HW262170   5.558   6.956   7.940 -0.8304  1.1131  0.0338
19205SOL     OW62171   8.914   6.406   2.972  0.0828  0.8148 -0.1107
19205SOL    HW162172   8.874   6.396   3.058 -0.9660  1.6571 -0.4778
19205SOL    HW262173   8.970   6.483   2.980 -2.5020  2.9689 -0.9766
19206SOL     OW62174   3.381   6.675   7.966  0.5813  0.2174  0.5570
19206SOL    HW162175   3.347   6.715   8.047 -3.4567  0.6804 -1.1144
19206SOL    HW262176   3.408   6.749   7.912  2.4878 -0.0481  1.0665
19207SOL     OW62177   8.373   7.516   7.699  0.1629  0.0832 -0.3184
19207SOL    HW162178   8.395   7.583   7.764  0.5552  0.4235 -0.7994
19207SOL    HW262179   8.443   7.521   7.634 -0.8288  0.5450 -1.3897
19208SOL     OW62180   5.765  12.042   0.657 -0.3113 -0.9247  0.3216
19208SOL    HW162181   5.724  11.972   0.606 -0.6927  0.6336 -1.6399
19208SOL    HW262182   5.761  12.118   0.599  3.2280 -0.0941  0.9489
19209SOL     OW62183   1.623  12.081   9.753 -0.2601 -0.3097  0.5397
19209SOL    HW162184   1.603  11.994   9.717 -0.8595 -0.5255  1.3354
19209SOL    HW262185   1.702  12.067   9.805  0.6628  0.0249 -0.7357
19210SOL     OW62186   1.569   3.050  12.096 -0.0884 -0.2813 -0.1486
19210SOL    HW162187   1.601   3.003  12.019 -1.2602 -0.8639 -0.3131
19210SOL    HW262188   1.511   2.987  12.139  0.1562  0.2168  0.9395
19211SOL     OW62189   7.310   7.344   8.572  0.1063  0.3581  0.5213
19211SOL    HW162190   7.396   7.305   8.590  0.2861  0.0196 -0.8980
19211SOL    HW262191   7.258   7.271   8.539 -0.5506  0.6825  0.8318
19212SOL     OW62192   4.023   5.184   5.242 -0.1279  0.4848 -0.5809
19212SOL    HW162193   4.066   5.115   5.191 -0.1720  0.1921 -0.2275
19212SOL    HW262194   4.032   5.155   5.333  1.0986  1.6377 -0.2964
19213SOL     OW62195   0.698  10.946   7.854  0.4467 -0.1347  0.0122
19213SOL    HW162196   0.746  10.952   7.937 -0.7628 -3.6627  1.1548
19213SOL    HW262197   0.756  10.987   7.790  3.1429 -0.6121  1.9800
19214SOL     OW62198   1.301   6.786  10.330 -0.3931  0.1907 -0.1430
19214SOL    HW162199   1.229   6.836  10.291 -1.5536 -0.2217  1.3508
19214SOL    HW262200   1.365   6.853  10.356 -0.7660  0.6767 -0.4476
19215SOL     OW62201   1.780  11.548   8.648  0.0556 -0.0275  0.1438
19215SOL    HW162202   1.820  11.608   8.586 -0.4367 -0.0030 -0.1525
19215SOL    HW262203   1.845  11.478   8.659  0.1627 -0.0064 -0.3578
19216SOL     OW62204   7.854  11.435   9.094  0.5670 -0.2508  0.0990
19216SOL    HW162205   7.826  11.527   9.095  2.4823  0.3897  0.0024
19216SOL    HW262206   7.776  11.386   9.119 -0.6247  1.3625 -0.2376
19217SOL     OW62207  11.759  10.263   6.071  0.3533  0.1496 -0.1425
19217SOL    HW162208  11.756  10.350   6.031 -2.3137  0.5853  0.7704
19217SOL    HW262209  11.770  10.280   6.165 -1.9155 -0.3121  0.2703
19218SOL     OW62210   9.837   2.913   8.771 -0.0013 -0.0594  0.5190
19218SOL    HW162211   9.925   2.909   8.810  0.7812 -0.0934 -1.1554
19218SOL    HW262212   9.853   2.931   8.679 -1.7597 -0.5957  0.0777
19219SOL     OW62213   1.770   3.958   1.635  0.5987 -0.5723 -0.2892
19219SOL    HW162214   1.778   3.910   1.552  1.0569  1.4892 -1.5151
19219SOL    HW262215   1.859   3.961   1.670  0.7687  0.2875 -0.7743
19220SOL     OW62216   2.163   8.322   6.610  0.6962 -0.4122  0.1072
19220SOL    HW162217   2.173   8.271   6.530  1.9649  0.7580 -0.5213
19220SOL    HW262218   2.111   8.266   6.668  0.7923 -1.7835 -1.0810
19221SOL     OW62219   0.815   1.889   5.190 -0.5564 -0.1039 -0.4191
19221SOL    HW162220   0.754   1.830   5.146 -1.7915  1.2550 -0.5992
19221SOL    HW262221   0.774   1.907   5.275 -0.1281  0.4060 -0.3146
19222SOL     OW62222   0.105   6.698   0.987 -0.5450  0.1493  0.3496
19222SOL    HW162223   0.023   6.650   0.997 -1.2918  1.1566 -0.6970
19222SOL    HW262224   0.168   6.631   0.960 -1.0989 -0.5635  0.7541
19223SOL     OW62225  11.499  10.835   5.336  0.6596 -0.7116 -0.0906
19223SOL    HW162226  11.443  10.832   5.259  2.7356  0.5107 -1.7826
19223SOL    HW262227  11.582  10.797   5.306  1.0205 -1.7418  2.0702
19224SOL     OW62228   4.869   3.901   6.709 -0.0763  0.3110 -0.3166
19224SOL    HW162229   4.961   3.903   6.736  0.4846 -0.1576 -2.0599
19224SOL    HW262230   4.858   3.978   6.655  0.2163 -1.2586 -2.7542
19225SOL     OW62231   5.046   7.924   2.027  0.1539  0.3894  0.1743
19225SOL    HW162232   5.119   7.966   2.072  0.8195  0.6841 -1.1449
19225SOL    HW262233   4.999   7.996   1.985 -0.4368  0.1164  0.3535
19226SOL     OW62234  12.037   5.622  10.704  0.8749  0.2517  0.8665
19226SOL    HW162235  12.020   5.544  10.757 -0.0001  0.3325  0.7318
19226SOL    HW262236  11.956   5.634  10.654  1.7744  0.0257 -0.6809
19227SOL     OW62237   2.950   6.202   3.672  0.3660 -0.4052  0.0909
19227SOL    HW162238   2.907   6.165   3.594 -1.0059 -0.0005  0.6231
19227SOL    HW262239   3.043   6.187   3.657  0.0273 -1.6571 -0.9446
19228SOL     OW62240  11.349   1.659   2.578  0.1835  0.1233  0.2129
19228SOL    HW162241  11.361   1.736   2.523  0.1310 -0.0045  0.0179
19228SOL    HW262242  11.435   1.617   2.581 -0.4338 -1.5748 -2.3705
19229SOL     OW62243   2.594   9.246  11.315  0.2006 -0.5386  0.2029
19229SOL    HW162244   2.656   9.188  11.359 -0.8583 -0.7375  1.4803
19229SOL    HW262245   2.544   9.187  11.257  0.9839 -0.4207 -0.6212
19230SOL     OW62246   5.395   4.304   1.786 -0.0621 -0.0922 -0.7731
19230SOL    HW162247   5.477   4.332   1.827  0.6871  1.1782 -2.9792
19230SOL    HW262248   5.326   4.336   1.844  0.9683 -0.7584  0.8695
19231SOL     OW62249   5.468   4.978   9.484 -0.1900  0.0700 -0.0948
19231SOL    HW162250   5.445   4.895   9.443  0.6076 -0.9371  1.3740
19231SOL    HW262251   5.524   5.022   9.420 -0.2776 -0.7229 -0.7325
19232SOL     OW62252   0.083   8.411  10.462 -0.4719 -0.1600  0.1609
19232SOL    HW162253   0.170   8.434  10.494 -0.8718  1.7420 -0.0025
19232SOL    HW262254   0.086   8.431  10.368 -0.6438 -1.5445 -0.1668
19233SOL     OW62255   4.225   3.484   2.841  0.2954 -0.2314 -0.0854
19233SOL    HW162256   4.158   3.425   2.874  1.9224 -1.3903  1.3063
19233SOL    HW262257   4.176   3.560   2.808 -1.6368 -0.3677  2.1896
19234SOL     OW62258   3.856   7.164   7.579  0.2095 -0.4448  0.0423
19234SOL    HW162259   3.899   7.084   7.610  1.0936  0.3761  1.0177
19234SOL    HW262260   3.870   7.164   7.485  0.6222 -1.1923  0.0917
19235SOL     OW62261   6.074   8.620   5.838  0.4042  0.0879 -0.1561
19235SOL    HW162262   5.980   8.627   5.827  0.4308 -0.7316 -0.9751
19235SOL    HW262263   6.108   8.704   5.807  0.1707 -0.7251 -2.8383
19236SOL     OW62264   4.841   1.680   5.509 -0.1987  0.2230 -0.3066
19236SOL    HW162265   4.842   1.659   5.603 -3.8529 -0.6324 -0.3012
19236SOL    HW262266   4.882   1.767   5.503 -1.1661  0.9435  2.3083
19237SOL     OW62267   2.326  10.047   6.677 -0.1476 -0.2335  0.4071
19237SOL    HW162268   2.274  10.118   6.640  0.2114 -0.6639 -1.0157
19237SOL    HW262269   2.349  10.076   6.765 -2.7944 -0.0546  1.1173
19238SOL     OW62270   3.616   0.668   3.550 -0.4105 -0.3250  0.2546
19238SOL    HW162271   3.690   0.700   3.603 -0.1115 -0.1182 -0.2769
19238SOL    HW262272   3.582   0.593   3.599 -1.0055  0.6913  1.4345
19239SOL     OW62273   9.152  11.713   1.860  0.4496  0.0698 -0.2736
19239SOL    HW162274   9.175  11.800   1.892  1.2487 -0.0970 -0.3752
19239SOL    HW262275   9.057  11.710   1.865  0.4840 -0.3675  3.2756
19240SOL     OW62276   9.852   8.664   6.096 -0.2191  0.6305  0.0613
19240SOL    HW162277   9.864   8.755   6.069 -0.7370  0.6133 -0.2400
19240SOL    HW262278   9.939   8.625   6.087  0.3080  1.4119  1.4369
19241SOL     OW62279   8.775  10.246   6.715 -0.1081  0.3607 -0.1703
19241SOL    HW162280   8.782  10.322   6.771 -0.2800 -0.2900  0.7548
19241SOL    HW262281   8.761  10.173   6.775 -0.1399 -0.3730 -1.0468
19242SOL     OW62282  10.335   8.341   6.063 -0.0612 -0.6117  0.5434
19242SOL    HW162283  10.305   8.359   5.974  0.4674 -0.8885  0.3060
19242SOL    HW262284  10.427   8.317   6.053 -0.0094 -0.6861  1.1607
19243SOL     OW62285   3.860   3.746   2.000 -0.2626  0.8902 -0.2289
19243SOL    HW162286   3.889   3.675   1.941 -1.2854 -0.8562  1.2618
19243SOL    HW262287   3.932   3.755   2.062 -1.6912 -1.8469  2.0773
19244SOL     OW62288   5.230   0.047   7.778 -0.0650  0.2254  0.3271
19244SOL    HW162289   5.256   0.116   7.717 -1.5530 -0.2299 -0.8832
19244SOL    HW262290   5.240   0.088   7.864  1.3017  1.1556 -0.2370
19245SOL     OW62291   7.216   7.755   4.133 -0.5773  0.4421 -0.0884
19245SOL    HW162292   7.194   7.739   4.225 -0.9870 -0.7877 -0.3818
19245SOL    HW262293   7.278   7.827   4.136  0.8505 -0.7633  1.3173
19246SOL     OW62294   0.188   7.185   0.046 -0.0204  0.4881 -0.4232
19246SOL    HW162295   0.153   7.261  -0.002 -2.2994 -1.1018 -1.4643
19246SOL    HW262296   0.168   7.110  -0.011  0.1700 -1.1352  1.5493
19247SOL     OW62297   5.617   4.667   1.231  0.2409 -0.1817 -0.2694
19247SOL    HW162298   5.698   4.630   1.197 -0.1389  0.0545 -1.5000
19247SOL    HW262299   5.645   4.735   1.292  1.0245  0.7836 -1.6319
19248SOL     OW62300   0.284   7.569   4.395 -0.5348  0.1009  0.1493
19248SOL    HW162301   0.271   7.490   4.448  1.6133 -1.1728 -1.0439
19248SOL    HW262302   0.279   7.641   4.457 -1.0094 -1.1036  1.5668
19249SOL     OW62303   9.147   4.297  10.943 -0.4539 -0.1991 -0.1343
19249SOL    HW162304   9.181   4.275  11.031  0.1850  1.5759  0.0992
19249SOL    HW262305   9.129   4.391  10.947 -0.4665 -0.0969 -1.8966
19250SOL     OW62306   9.236   8.181   9.607  0.3052 -0.0155  0.1767
19250SOL    HW162307   9.232   8.124   9.530 -0.1717 -1.0708  0.9565
19250SOL    HW262308   9.146   8.212   9.618  0.7410  1.7588 -0.8406
19251SOL     OW62309  10.440   1.199  10.530 -0.1320  0.7593  0.1582
19251SOL    HW162310  10.479   1.286  10.528 -0.2747  0.8651  1.3206
19251SOL    HW262311  10.463   1.160  10.445 -0.2670  2.0033 -0.4721
19252SOL     OW62312   4.733  10.891   2.003  0.1092  0.3277 -0.4828
19252SOL    HW162313   4.770  10.972   1.968 -0.3049  1.3645  1.3227
19252SOL    HW262314   4.651  10.879   1.955  0.2373  0.9092 -0.8557
19253SOL     OW62315  10.894   5.097   2.152 -0.1836  0.1479 -0.1905
19253SOL    HW162316  10.918   5.078   2.242 -0.3812 -0.2485 -0.2187
19253SOL    HW262317  10.954   5.166   2.125  0.8422 -0.7417 -0.2256
19254SOL     OW62318   0.296  10.120   8.151  0.1817  0.5501 -0.5950
19254SOL    HW162319   0.271  10.070   8.229 -0.8425  0.0491 -1.2257
19254SOL    HW262320   0.215  10.132   8.103  1.0447 -0.5931 -2.4258
19255SOL     OW62321   1.641   1.838   6.709 -0.1246 -0.2033 -0.0894
19255SOL    HW162322   1.726   1.797   6.725 -0.5569 -0.8128  0.7657
19255SOL    HW262323   1.650   1.881   6.625  0.5173 -1.6754 -0.8171
19256SOL     OW62324   7.313  11.672  11.034  0.4323 -0.1968  0.0595
19256SOL    HW162325   7.376  11.741  11.056 -0.5868  0.3080  1.5661
19256SOL    HW262326   7.233  11.719  11.010 -0.0722 -0.8328  0.4530
19257SOL     OW62327   4.904   4.771   6.606  0.5613 -0.3855 -0.7945
19257SOL    HW162328   4.814   4.761   6.575  0.3745 -0.0175 -0.3903
19257SOL    HW262329   4.955   4.789   6.527  0.4252 -1.4315 -1.1398
19258SOL     OW62330  10.720   4.981   9.506 -0.0810  0.1497 -0.4368
19258SOL    HW162331  10.762   5.067   9.499  0.6320 -0.1335  0.2420
19258SOL    HW262332  10.682   4.980   9.594  0.1275 -0.3240 -0.3495
19259SOL     OW62333   6.896   6.103   5.748 -0.5756 -0.1447 -0.5396
19259SOL    HW162334   6.837   6.142   5.683 -0.2736 -0.5933 -1.0836
19259SOL    HW262335   6.861   6.015   5.762 -1.0095  0.1547  0.3794
19260SOL     OW62336  10.922   7.344   9.971 -0.0061  0.1838  0.2432
19260SOL    HW162337  10.943   7.438   9.976  1.5237 -0.1613  1.1341
19260SOL    HW262338  10.976   7.304  10.040  1.0477 -1.6252 -1.5324
19261SOL     OW62339   9.839   7.116   8.221  0.0754  0.0147  0.4960
19261SOL    HW162340   9.795   7.174   8.283  0.5455 -0.0963  0.9366
19261SOL    HW262341   9.831   7.028   8.259  0.7050 -0.0035  0.6031
19262SOL     OW62342   5.422   6.871  10.885  0.2138  0.8203 -0.4848
19262SOL    HW162343   5.343   6.823  10.909  0.2088  0.9528 -0.2316
19262SOL    HW262344   5.391   6.959  10.865  0.2608  0.7963 -0.6608
19263SOL     OW62345   8.558   1.538   9.524 -0.0809  0.5259  0.5326
19263SOL    HW162346   8.478   1.499   9.488  0.3438  0.3119 -0.2094
19263SOL    HW262347   8.592   1.471   9.584 -0.2240  0.4339  0.5126
19264SOL     OW62348   0.317   0.402   4.208 -0.1012  0.9143  0.4048
19264SOL    HW162349   0.314   0.462   4.282 -1.1130  0.8268  0.4475
19264SOL    HW262350   0.225   0.382   4.190  0.2306 -1.5879  1.1673
19265SOL     OW62351   2.039   2.963  10.551  0.3847  0.3174 -0.8628
19265SOL    HW162352   2.069   2.916  10.473 -0.8046 -0.6011 -0.8011
19265SOL    HW262353   2.117   3.006  10.585  1.3865 -1.0697 -1.3137
19266SOL     OW62354   5.877   0.905   5.169  0.4854 -0.4978  0.0026
19266SOL    HW162355   5.845   0.976   5.225  0.4650 -0.2952 -0.2671
19266SOL    HW262356   5.826   0.912   5.089  1.6030  0.2094 -0.6761
19267SOL     OW62357   5.207  10.264   6.779 -0.2347  0.1745 -0.6221
19267SOL    HW162358   5.216  10.250   6.684  1.8418 -2.0723 -0.2040
19267SOL    HW262359   5.113  10.266   6.795 -0.6320 -0.6584 -2.5877
19268SOL     OW62360   9.919   8.852   4.124  0.3085 -0.1316  0.4659
19268SOL    HW162361   9.842   8.796   4.120 -0.0930  0.3863  0.8958
19268SOL    HW262362   9.993   8.791   4.119 -0.1177 -0.6087 -0.2534
19269SOL     OW62363   1.052   9.321   3.626  0.6183  0.0006 -0.1784
19269SOL    HW162364   1.075   9.334   3.718 -0.8664  1.6820  0.0304
19269SOL    HW262365   1.020   9.231   3.622  1.7324 -0.4634  0.6935
19270SOL     OW62366   1.880   9.703  11.653  0.2911  0.1463  0.3321
19270SOL    HW162367   1.943   9.775  11.650  0.2198  0.4331  3.2495
19270SOL    HW262368   1.934   9.624  11.643  0.7138  0.4892 -0.1653
19271SOL     OW62369   9.546   2.562   5.097  0.2525 -0.0534  0.1345
19271SOL    HW162370   9.516   2.645   5.136 -1.1071 -0.2355 -0.4694
19271SOL    HW262371   9.494   2.553   5.017  0.6229 -1.3311  0.0163
19272SOL     OW62372   6.647   2.927   9.545  0.2261 -0.3965 -0.2300
19272SOL    HW162373   6.638   3.012   9.502  0.7019  1.9763  3.8326
19272SOL    HW262374   6.563   2.912   9.589  1.3381  0.0160  2.2126
19273SOL     OW62375  11.186   2.982   6.454  0.8195  0.5507  0.4101
19273SOL    HW162376  11.208   3.021   6.539 -0.6217  0.3321  0.8990
19273SOL    HW262377  11.204   3.051   6.390  1.7975  0.7592  0.8892
19274SOL     OW62378   6.299   1.682   0.334 -0.3135  0.0733  0.2178
19274SOL    HW162379   6.350   1.625   0.392  2.1405  1.9295  0.0305
19274SOL    HW262380   6.301   1.638   0.249  1.3123  0.2501  0.1427
19275SOL     OW62381   5.724  10.097  10.355 -0.3055  0.0303  0.0598
19275SOL    HW162382   5.666  10.022  10.346  2.1248 -1.7455 -2.5772
19275SOL    HW262383   5.722  10.140  10.270  0.0945  1.6480  0.8219
19276SOL     OW62384   6.810  10.319   1.974  0.0205 -0.0671 -0.2959
19276SOL    HW162385   6.848  10.326   2.061  0.0849 -0.1595 -0.3168
19276SOL    HW262386   6.828  10.229   1.947  0.5634  0.1548 -0.6692
19277SOL     OW62387   1.387   2.069   7.117  0.2091  0.1390 -0.2012
19277SOL    HW162388   1.435   2.025   7.048  1.1046 -0.1416  0.5716
19277SOL    HW262389   1.446   2.068   7.192 -0.8823  0.0842  0.6933
19278SOL     OW62390   2.199   3.782   4.549  1.0442  0.0262  0.0622
19278SOL    HW162391   2.229   3.794   4.639  0.9430  0.5550  0.0259
19278SOL    HW262392   2.109   3.750   4.558  0.5464  1.4040  0.1418
19279SOL     OW62393   5.571  10.322   8.635  0.2311  0.2592  0.3486
19279SOL    HW162394   5.493  10.282   8.596 -1.0037  0.8840  2.0583
19279SOL    HW262395   5.601  10.257   8.698 -0.2408  0.9255  1.2745
19280SOL     OW62396  11.204  10.111   3.354 -0.5825 -0.2041  0.8155
19280SOL    HW162397  11.203  10.138   3.446  1.1743  0.3581  0.7029
19280SOL    HW262398  11.116  10.134   3.321 -0.4909  1.7367  1.7628
19281SOL     OW62399   2.075  10.935  10.273  0.3181 -0.5411  0.0666
19281SOL    HW162400   2.085  10.886  10.191 -1.7466 -0.5031 -0.2553
19281SOL    HW262401   1.994  10.900  10.312  0.7256  0.1557  1.5942
19282SOL     OW62402   2.016   3.848   6.355  0.5193 -0.1593  0.3011
19282SOL    HW162403   1.947   3.781   6.360 -0.7851  1.0700 -0.4583
19282SOL    HW262404   2.008   3.884   6.267  0.5997  1.5783  0.9626
19283SOL     OW62405   5.860   2.601   1.635  0.3257 -0.4601 -0.4030
19283SOL    HW162406   5.937   2.649   1.604 -0.9198  1.4846 -0.6784
19283SOL    HW262407   5.788   2.632   1.579 -1.0644 -0.5139  1.2613
19284SOL     OW62408   9.009  11.926   8.949 -0.6842 -0.5338 -0.6126
19284SOL    HW162409   8.922  11.967   8.950 -0.6432 -0.4098  0.9292
19284SOL    HW262410   8.995  11.839   8.912 -1.5908 -0.7353  0.1607
19285SOL     OW62411   0.849   4.020   3.035 -0.1771 -0.0089  0.0009
19285SOL    HW162412   0.774   3.962   3.021 -0.5222 -0.1998  2.2358
19285SOL    HW262413   0.909   3.999   2.963 -0.3115 -3.1279  0.6591
19286SOL     OW62414   2.228   1.314   3.383  0.1699  0.1381 -0.0940
19286SOL    HW162415   2.179   1.352   3.310 -1.4382  2.7526  2.1053
19286SOL    HW262416   2.310   1.283   3.345  0.0668  2.7329 -2.7588
19287SOL     OW62417  10.409   6.260   4.867  0.4189 -0.3721 -0.2407
19287SOL    HW162418  10.450   6.173   4.874  0.1990 -0.4286  0.3551
19287SOL    HW262419  10.476   6.320   4.900 -0.1040 -0.5029  1.1165
19288SOL     OW62420   7.618   7.607   2.478 -0.1462  0.4159  0.3683
19288SOL    HW162421   7.686   7.671   2.503 -0.9014  1.4773 -0.2192
19288SOL    HW262422   7.601   7.625   2.386 -0.1473 -0.8746  0.1074
19289SOL     OW62423   3.933   8.272   6.134  0.0828 -0.1441  0.1671
19289SOL    HW162424   3.899   8.342   6.191  0.3120 -0.4521  0.6953
19289SOL    HW262425   3.879   8.196   6.154 -0.9213  0.1629 -1.2457
19290SOL     OW62426  10.977   7.091   3.344  0.1858  0.1887  0.6221
19290SOL    HW162427  10.967   7.044   3.261  1.0130  1.4380 -0.2214
19290SOL    HW262428  11.064   7.066   3.375 -0.1466 -0.3292  1.1732
19291SOL     OW62429  11.068   6.676   7.997  0.3283 -1.0016  0.1882
19291SOL    HW162430  11.071   6.600   8.055 -0.2553 -1.7433 -0.7433
19291SOL    HW262431  11.023   6.646   7.919 -1.7576  0.8162  0.5776
19292SOL     OW62432   1.954   6.409   9.884  0.1468  0.3289  0.0576
19292SOL    HW162433   2.039   6.441   9.913  0.4343  0.6352 -1.0626
19292SOL    HW262434   1.911   6.486   9.848 -0.3342  0.0365  0.0019
19293SOL     OW62435   6.287   8.204   5.621 -0.3385 -0.3626  0.4885
19293SOL    HW162436   6.353   8.224   5.687 -1.1993 -0.1730  1.3098
19293SOL    HW262437   6.302   8.112   5.599  2.0614  0.3967 -1.5048
19294SOL     OW62438   0.523   9.249   6.652  0.3219  0.0968  0.1128
19294SOL    HW162439   0.545   9.202   6.571  1.5259 -1.3358  1.1959
19294SOL    HW262440   0.459   9.192   6.695  1.6155 -0.5186  1.3298
19295SOL     OW62441   2.890   3.932   6.843  0.1916  0.1649  0.6007
19295SOL    HW162442   2.825   3.921   6.912 -0.8314 -0.4699 -0.4208
19295SOL    HW262443   2.882   3.852   6.790  1.5899  0.2222  0.2640
19296SOL     OW62444   7.069   9.397   0.721 -0.9199  0.3899  0.2220
19296SOL    HW162445   7.065   9.390   0.626 -0.7109  0.0645  0.2371
19296SOL    HW262446   7.002   9.337   0.753  0.2881 -0.9547  0.3264
19297SOL     OW62447   8.692   0.618   1.011 -0.4818 -0.6904  0.1981
19297SOL    HW162448   8.697   0.693   0.952 -3.4506  0.4199  1.1747
19297SOL    HW262449   8.613   0.571   0.983 -1.2194 -0.8593  2.3928
19298SOL     OW62450   4.639   2.181   5.775  0.6475 -0.0360  0.5644
19298SOL    HW162451   4.643   2.089   5.749  0.3927 -0.1174  0.7999
19298SOL    HW262452   4.605   2.227   5.699 -0.1960 -0.2847  0.7748
19299SOL     OW62453   6.886   2.816   5.838 -0.3636  0.1455 -0.2793
19299SOL    HW162454   6.967   2.764   5.840 -0.6647 -0.3292  0.9365
19299SOL    HW262455   6.907   2.892   5.785 -0.3366 -1.8692 -3.3867
19300SOL     OW62456   6.947  11.410   6.698 -0.2742 -0.0327  0.2915
19300SOL    HW162457   7.015  11.356   6.739 -0.3186 -0.4013 -0.1251
19300SOL    HW262458   6.934  11.482   6.760 -0.6174 -0.7914  1.1134
19301SOL     OW62459   3.333   6.748   3.025  0.5334  0.0819  0.3248
19301SOL    HW162460   3.328   6.681   2.956  0.4611 -2.3592  2.5199
19301SOL    HW262461   3.272   6.816   2.997 -0.4758 -1.4148 -1.3768
19302SOL     OW62462   1.444   3.186   9.257 -0.4817 -0.1114 -0.2672
19302SOL    HW162463   1.450   3.110   9.200 -0.4341 -0.0512 -0.3428
19302SOL    HW262464   1.422   3.258   9.199  0.8801  0.2048 -0.4257
19303SOL     OW62465   9.490   6.537  10.411 -0.5465 -0.0395  0.4516
19303SOL    HW162466   9.461   6.494  10.491 -2.4614 -2.2215 -1.2697
19303SOL    HW262467   9.507   6.465  10.350 -0.3851  1.5588 -1.4876
19304SOL     OW62468  11.302   7.846   4.485  0.3090 -0.3303  0.4989
19304SOL    HW162469  11.261   7.788   4.550  0.3628  0.8235  1.6035
19304SOL    HW262470  11.385   7.803   4.464 -0.0555 -1.1087  0.6152
19305SOL     OW62471  11.082   7.118   4.864  0.6366 -0.5736 -0.3487
19305SOL    HW162472  11.103   7.205   4.829  0.8471  0.5822  2.3735
19305SOL    HW262473  11.128   7.057   4.806  2.2243  1.2513 -1.1166
19306SOL     OW62474   0.134   3.222   5.320  0.2967 -0.0510  0.0042
19306SOL    HW162475   0.115   3.218   5.414 -0.5059  1.5566 -0.0636
19306SOL    HW262476   0.153   3.131   5.296 -2.0610 -0.9320  1.1754
19307SOL     OW62477   6.599  11.019   0.217 -0.4721  0.0672  0.0051
19307SOL    HW162478   6.519  10.967   0.220 -1.3798  1.4404  1.1127
19307SOL    HW262479   6.599  11.069   0.299  1.7035 -0.1246  0.1923
19308SOL     OW62480   4.164   0.010   4.348  0.5185 -0.0986  0.1448
19308SOL    HW162481   4.200  -0.061   4.295  1.8955  0.5729  0.1394
19308SOL    HW262482   4.231   0.078   4.347 -0.2533  0.7245  1.1515
19309SOL     OW62483   6.099   3.416   6.701  0.5928  0.3679 -0.6430
19309SOL    HW162484   6.105   3.500   6.747  0.8912  0.3931 -0.7214
19309SOL    HW262485   6.188   3.400   6.671  0.6842 -0.3234 -0.0256
19310SOL     OW62486   7.067   1.261   5.480  0.1224 -0.1982  0.6119
19310SOL    HW162487   7.006   1.187   5.481  0.9207 -0.8746  0.2178
19310SOL    HW262488   7.144   1.229   5.433  0.9077  0.5371  1.3475
19311SOL     OW62489   6.579  11.046  10.124  0.2761  0.3382 -0.4663
19311SOL    HW162490   6.601  10.963  10.083 -0.4694 -0.4982  0.7352
19311SOL    HW262491   6.488  11.034  10.154  1.0460  0.5021  2.2134
19312SOL     OW62492   7.627   6.382   6.639  0.1717 -0.2641 -0.1638
19312SOL    HW162493   7.566   6.311   6.659 -0.4771 -0.7185 -3.2336
19312SOL    HW262494   7.714   6.343   6.652 -0.1317 -2.1370 -2.8942
19313SOL     OW62495   5.454   3.338   0.669  0.2115 -0.1983 -0.0509
19313SOL    HW162496   5.548   3.331   0.687  0.1186 -0.9621  0.1460
19313SOL    HW262497   5.442   3.430   0.646  1.2099 -0.3294 -1.2381
19314SOL     OW62498   1.164   5.706   8.605  0.0931 -0.0066  0.0835
19314SOL    HW162499   1.142   5.619   8.572 -0.3130 -0.0079  0.3440
19314SOL    HW262500   1.086   5.733   8.654  1.1092 -0.5092  2.0820
19315SOL     OW62501   7.730   9.559   9.078  0.1355  0.6666 -0.1599
19315SOL    HW162502   7.721   9.533   8.987  2.0647 -0.3990 -0.1042
19315SOL    HW262503   7.662   9.510   9.124  0.4382 -0.3803 -0.7792
19316SOL     OW62504   0.351   6.093  11.270 -0.0853  0.2880  0.2000
19316SOL    HW162505   0.287   6.040  11.223 -0.2759  0.9903 -0.3494
19316SOL    HW262506   0.394   6.145  11.202 -0.0635  1.0051  0.7409
19317SOL     OW62507   1.840   9.930   1.702 -0.8353 -0.2722 -0.2063
19317SOL    HW162508   1.759   9.910   1.656  0.4411 -1.6364 -2.0337
19317SOL    HW262509   1.842   9.867   1.775 -1.8406  0.4173  0.4353
19318SOL     OW62510  10.929   8.833   7.396  0.0434 -0.0228 -0.1929
19318SOL    HW162511  10.909   8.761   7.456  0.7116 -0.8678 -0.9644
19318SOL    HW262512  10.870   8.821   7.322 -0.3653  0.6713  0.0094
19319SOL     OW62513   9.717   4.926   3.328 -0.2965 -0.0524  0.0392
19319SOL    HW162514   9.753   4.854   3.277  1.4792  0.5554  0.3561
19319SOL    HW262515   9.714   4.999   3.266  0.1845  0.2214  0.3346
19320SOL     OW62516   0.137   5.293   0.782 -0.7782  0.2222 -0.2505
19320SOL    HW162517   0.217   5.302   0.833  0.9219  0.0565 -2.6938
19320SOL    HW262518   0.162   5.237   0.708 -3.0240  0.5915 -1.3803
19321SOL     OW62519   6.692   2.420   0.732 -0.5216 -0.5476  0.0311
19321SOL    HW162520   6.744   2.404   0.654 -1.2919  2.4658 -1.2293
19321SOL    HW262521   6.715   2.348   0.791  1.0554 -2.2275 -2.4235
19322SOL     OW62522  10.781  11.323   3.763  0.3387  0.0203  0.2044
19322SOL    HW162523  10.827  11.397   3.803  0.9428 -1.0509  1.5416
19322SOL    HW262524  10.773  11.258   3.833 -0.2540 -1.1596 -0.9113
19323SOL     OW62525   6.185   9.995   8.858  0.4975  0.2868  0.0276
19323SOL    HW162526   6.094  10.018   8.842  0.2515 -0.7949 -0.2033
19323SOL    HW262527   6.187   9.965   8.949  0.3901 -0.7126 -0.2847
19324SOL     OW62528   4.071   0.568   2.202  0.2695 -0.1346 -0.1934
19324SOL    HW162529   4.077   0.487   2.253 -0.5867  1.4483  2.6698
19324SOL    HW262530   4.015   0.547   2.128 -1.6131 -1.7197  1.5599
19325SOL     OW62531   5.198  11.894  11.397  0.6282 -0.1873  0.5182
19325SOL    HW162532   5.160  11.807  11.389 -3.2238  1.1618  1.7669
19325SOL    HW262533   5.172  11.940  11.318  1.1027  0.3449  0.6597
19326SOL     OW62534   6.159   3.337   1.165 -0.5013  0.1777  0.1490
19326SOL    HW162535   6.170   3.294   1.250 -0.8873  0.2509  0.2406
19326SOL    HW262536   6.064   3.340   1.153 -0.4399 -0.5630 -0.6566
19327SOL     OW62537   2.447   4.440   5.828 -0.5365 -0.3051 -0.1034
19327SOL    HW162538   2.468   4.376   5.760 -2.5112 -1.3536  0.2236
19327SOL    HW262539   2.371   4.404   5.873 -0.6142  1.4311  1.2589
19328SOL     OW62540   4.733   0.095   8.857  0.3472  0.2075 -0.7540
19328SOL    HW162541   4.655   0.147   8.876  0.8953  0.2418  1.6056
19328SOL    HW262542   4.798   0.159   8.828 -0.1117  0.3280 -1.5484
19329SOL     OW62543   9.445   0.522   1.156  0.3236 -0.3775 -0.0544
19329SOL    HW162544   9.498   0.443   1.160  0.6480 -0.1170  0.9601
19329SOL    HW262545   9.484   0.581   1.220  0.6701  0.9785 -1.4541
19330SOL     OW62546   8.771   1.640   2.514 -0.0611  0.0865 -0.1398
19330SOL    HW162547   8.809   1.554   2.532  0.7696  0.1388 -1.5047
19330SOL    HW262548   8.712   1.625   2.440  0.5867  0.7916 -0.8164
19331SOL     OW62549   1.357   5.809   3.575 -0.1672  0.3755 -0.2989
19331SOL    HW162550   1.278   5.782   3.621 -0.3842  0.7283 -0.4591
19331SOL    HW262551   1.427   5.756   3.613 -0.6355 -0.6609 -0.8434
19332SOL     OW62552   7.915   9.977   0.043 -0.2747 -0.0021  0.0083
19332SOL    HW162553   7.911  10.061  -0.001 -0.0976 -0.3344 -0.6494
19332SOL    HW262554   8.007   9.967   0.068 -0.3702  0.1766  0.4485
19333SOL     OW62555   6.616   7.227   4.531 -0.7328 -0.2402 -0.0722
19333SOL    HW162556   6.616   7.322   4.535  1.5722 -0.2376  1.3065
19333SOL    HW262557   6.664   7.206   4.451  1.1543 -0.2007  1.0115
19334SOL     OW62558   4.869  10.272   7.583  0.3743  0.3982 -0.6293
19334SOL    HW162559   4.811  10.197   7.589 -1.7641  2.0227  0.1601
19334SOL    HW262560   4.837  10.322   7.507  3.3171 -0.6242 -2.7596
19335SOL     OW62561  10.407   7.477   6.924  0.1551  0.0083 -0.5431
19335SOL    HW162562  10.341   7.437   6.981  0.2095  1.1774  0.3501
19335SOL    HW262563  10.402   7.425   6.843 -0.0880 -1.5151  0.4068
19336SOL     OW62564   0.694   0.958   4.478  0.8295  0.0994  0.2921
19336SOL    HW162565   0.646   1.014   4.540  2.7367  0.6660  1.3635
19336SOL    HW262566   0.663   0.870   4.496 -2.2686  0.6912 -1.4461
19337SOL     OW62567   0.430   3.570  10.513  0.7023 -0.0262 -0.1827
19337SOL    HW162568   0.375   3.522  10.575  1.1289  0.6028  0.7097
19337SOL    HW262569   0.498   3.508  10.488  1.2854  0.0990  1.0043
19338SOL     OW62570   8.512   3.501   8.720 -0.3341 -0.8535 -0.6276
19338SOL    HW162571   8.493   3.566   8.788 -0.4565 -1.2736 -0.2536
19338SOL    HW262572   8.515   3.551   8.639  0.9080 -0.1740 -0.1766
19339SOL     OW62573   7.707   0.761   6.804  0.1743  0.1408 -0.2614
19339SOL    HW162574   7.767   0.706   6.854  0.5258  1.9632  1.4538
19339SOL    HW262575   7.748   0.772   6.719  0.7052 -1.1655 -0.1952
19340SOL     OW62576   2.388  11.590   4.660 -0.3081 -0.1616  0.1541
19340SOL    HW162577   2.411  11.499   4.678 -0.7849 -0.8443 -2.3537
19340SOL    HW262578   2.296  11.587   4.636 -0.4452  1.0788  0.4451
19341SOL     OW62579  11.939   7.769   8.472  0.1940  1.1383  0.0542
19341SOL    HW162580  11.970   7.784   8.383  0.7797  4.8116  0.7356
19341SOL    HW262581  12.019   7.747   8.521 -0.0658 -0.4363 -0.1603
19342SOL     OW62582   5.031  11.538   9.520 -0.0933 -0.4413 -0.0951
19342SOL    HW162583   4.961  11.603   9.524 -0.1818 -0.5797  1.8249
19342SOL    HW262584   4.985  11.454   9.519  0.0391 -0.5090 -0.8715
19343SOL     OW62585   2.960  12.108   3.799 -0.3763  0.4433  0.0546
19343SOL    HW162586   2.992  12.018   3.791  0.1375  0.7614 -3.3712
19343SOL    HW262587   2.869  12.103   3.772 -0.2548  0.9398 -0.4903
19344SOL     OW62588   1.065   1.837   4.473 -0.3919 -0.1791 -0.4002
19344SOL    HW162589   1.108   1.870   4.551 -0.7557  0.2197 -0.3600
19344SOL    HW262590   0.996   1.779   4.506 -1.2274  0.8003 -0.3660
19345SOL     OW62591   9.685   3.503   3.996  0.0856  0.3661  0.3128
19345SOL    HW162592   9.639   3.452   3.929  0.2269 -0.4372  0.8107
19345SOL    HW262593   9.778   3.493   3.973  0.0804  1.0037 -0.0031
19346SOL     OW62594   0.770   6.855  10.966  0.0788  0.2372  0.4442
19346SOL    HW162595   0.857   6.831  10.934  0.1455  1.6688 -0.5430
19346SOL    HW262596   0.780   6.860  11.061  0.8520 -0.4369  0.4135
19347SOL     OW62597  10.856  10.169  10.444 -0.2407 -0.3385 -0.1896
19347SOL    HW162598  10.852  10.113  10.366 -2.1128 -1.1278  0.3981
19347SOL    HW262599  10.771  10.213  10.446  0.5949  1.3290  0.2549
19348SOL     OW62600  11.058  10.245   2.184 -0.6042  0.2718 -0.5248
19348SOL    HW162601  10.995  10.234   2.113 -2.8219  2.5441  0.9180
19348SOL    HW262602  11.020  10.313   2.239  2.8204  1.2767  0.8624
19349SOL     OW62603   2.970   0.015   6.833 -0.2771  0.1807  0.0737
19349SOL    HW162604   2.985  -0.023   6.747  0.0282  0.1735  0.1285
19349SOL    HW262605   2.898  -0.036   6.870 -1.6642  1.3543 -0.8950
19350SOL     OW62606   5.671   8.190   3.111  0.4936 -0.1269  0.5299
19350SOL    HW162607   5.694   8.101   3.138  0.4440 -0.8754 -1.7125
19350SOL    HW262608   5.598   8.215   3.168 -0.3694 -2.0405  0.3168
19351SOL     OW62609   9.994   2.885   7.264 -0.0849  0.1988 -0.1760
19351SOL    HW162610  10.011   2.820   7.196  1.2970  0.3060  0.0262
19351SOL    HW262611   9.916   2.932   7.234  0.6268  0.4063 -1.8177
19352SOL     OW62612   8.289   0.651   9.748 -0.4057  0.0580  0.1445
19352SOL    HW162613   8.277   0.565   9.708  2.6079 -0.9688  1.1910
19352SOL    HW262614   8.293   0.634   9.842  1.0463  1.1995  0.3261
19353SOL     OW62615  10.059   7.946  11.381  0.5038 -0.3123 -0.4246
19353SOL    HW162616  10.154   7.942  11.387  0.5433  0.5850 -0.3961
19353SOL    HW262617  10.029   7.962  11.470  0.1216 -3.6063  0.1514
19354SOL     OW62618   5.563   3.603   0.996  0.2137  0.2902  0.3430
19354SOL    HW162619   5.541   3.686   0.953 -1.9653 -0.2923  0.2214
19354SOL    HW262620   5.611   3.629   1.074  0.0168  1.6442  0.0496
19355SOL     OW62621  10.422   1.645   3.806  0.2195 -0.0199 -0.0052
19355SOL    HW162622  10.330   1.627   3.822  0.2808  0.3746  0.8271
19355SOL    HW262623  10.464   1.559   3.813 -0.1944 -0.3420 -1.2852
19356SOL     OW62624   8.241   3.091  10.287 -0.6124  0.3981 -0.0420
19356SOL    HW162625   8.210   3.033  10.218  0.8075  1.1434 -1.3773
19356SOL    HW262626   8.302   3.038  10.338  1.6295  0.9515 -1.9938
19357SOL     OW62627   2.974   4.399   1.875 -0.5857 -0.2447  0.4011
19357SOL    HW162628   3.061   4.390   1.914 -1.2452 -0.7633  1.8469
19357SOL    HW262629   2.939   4.310   1.872 -0.9596 -0.0800 -0.4432
19358SOL     OW62630   1.614   1.730   5.849 -0.8020 -0.7799 -0.0796
19358SOL    HW162631   1.592   1.671   5.777 -0.2445 -1.9259  0.6556
19358SOL    HW262632   1.574   1.689   5.926  0.9143 -1.0658  0.7133
19359SOL     OW62633   0.336   4.371   4.828 -0.7184  0.0640  0.5352
19359SOL    HW162634   0.268   4.305   4.843  0.2063 -0.6892  1.5833
19359SOL    HW262635   0.326   4.433   4.900  0.5204 -0.7901  1.4939
19360SOL     OW62636   6.733   8.853   5.552 -0.2919 -0.4197  0.6659
19360SOL    HW162637   6.758   8.915   5.621  0.6501  1.8039 -1.5325
19360SOL    HW262638   6.661   8.896   5.507 -2.9157 -3.1537  1.8969
19361SOL     OW62639  10.124   4.970   1.403  0.2789  0.2528 -1.1136
19361SOL    HW162640  10.158   5.025   1.332 -1.5306  1.6258 -0.9786
19361SOL    HW262641  10.072   4.903   1.359  1.5358 -0.7014 -1.2072
19362SOL     OW62642   9.968   5.754   3.898 -0.6759 -0.1626 -0.3601
19362SOL    HW162643   9.948   5.847   3.886 -0.5425 -0.2034 -0.9289
19362SOL    HW262644   9.887   5.709   3.871 -0.4021 -0.2509 -1.0660
19363SOL     OW62645  11.851   6.954   7.516 -0.2068  0.4283  0.4119
19363SOL    HW162646  11.921   6.941   7.452 -0.5879  0.3907  0.0016
19363SOL    HW262647  11.778   6.902   7.483  0.6009 -2.3119  2.5561
19364SOL     OW62648   0.123   4.194   9.872  0.6302  0.1447 -0.0210
19364SOL    HW162649   0.039   4.167   9.910  0.3891  0.1916 -0.5048
19364SOL    HW262650   0.101   4.271   9.819  0.9051 -0.0815 -0.4680
19365SOL     OW62651   3.014   8.806  10.730  0.4557  0.5278  0.4859
19365SOL    HW162652   3.038   8.730  10.676 -1.4328 -0.0433  0.3662
19365SOL    HW262653   3.021   8.774  10.820 -0.4299  0.1636  0.4330
19366SOL     OW62654   2.210   8.252  10.456  0.0697 -0.1839 -0.0880
19366SOL    HW162655   2.282   8.295  10.410  0.7558  0.0162  1.1414
19366SOL    HW262656   2.216   8.284  10.545 -1.0852 -0.7621  0.2168
19367SOL     OW62657   1.026   2.764   2.175  0.2411  0.0102 -0.3163
19367SOL    HW162658   1.028   2.854   2.207  1.2635 -0.6017  1.4989
19367SOL    HW262659   1.076   2.714   2.240 -0.5011 -1.9117 -1.1338
19368SOL     OW62660   7.351   9.193   1.955 -0.2224 -0.1304 -0.1074
19368SOL    HW162661   7.354   9.130   2.026  4.3588  1.2754  1.2582
19368SOL    HW262662   7.300   9.267   1.990 -0.8005 -0.7690  0.4202
19369SOL     OW62663   3.346   1.311   4.625 -0.3576 -0.0225  0.5536
19369SOL    HW162664   3.369   1.318   4.533  0.8876 -0.7851  0.7781
19369SOL    HW262665   3.352   1.218   4.644 -2.1908 -0.0821  1.0405
19370SOL     OW62666   8.820   1.361   4.759 -0.1327 -0.2151  0.1783
19370SOL    HW162667   8.731   1.342   4.790  0.5142 -1.7753  1.1779
19370SOL    HW262668   8.877   1.319   4.823  1.3459  0.9025 -0.3613
19371SOL     OW62669   4.693   8.047   6.994 -0.3663  0.3838 -0.0132
19371SOL    HW162670   4.775   8.077   7.032 -1.7728  1.2953  2.5198
19371SOL    HW262671   4.670   8.114   6.929  1.0460 -0.1142 -1.0706
19372SOL     OW62672   6.347   3.011   5.922  0.8498 -0.6758 -0.1099
19372SOL    HW162673   6.335   3.006   6.017 -0.2474 -0.3363 -0.2134
19372SOL    HW262674   6.323   2.923   5.891 -1.3460 -0.0856 -0.2856
19373SOL     OW62675   7.804   7.477  12.084 -0.0354  0.5415  0.1835
19373SOL    HW162676   7.822   7.486  12.178  0.6318  1.0105  0.0202
19373SOL    HW262677   7.818   7.384  12.066  2.1818  0.8411  0.1069
19374SOL     OW62678   3.574  11.952   2.277  0.3160 -0.3367 -0.7290
19374SOL    HW162679   3.568  11.889   2.349  1.0628  0.2595 -0.1278
19374SOL    HW262680   3.494  12.003   2.283 -0.2974 -1.2063 -1.2198
19375SOL     OW62681   0.017  10.725   8.955 -0.2848  0.3142  0.3127
19375SOL    HW162682  -0.026  10.790   9.011 -1.3185 -1.0242  1.1314
19375SOL    HW262683  -0.009  10.749   8.866  1.9776  2.9246  0.1909
19376SOL     OW62684  11.253   7.684   7.759 -0.1896 -0.0612 -0.6060
19376SOL    HW162685  11.179   7.731   7.798 -1.3192 -1.7687 -0.5390
19376SOL    HW262686  11.258   7.716   7.669 -0.6116  0.5279 -0.4242
19377SOL     OW62687   7.387   8.673   6.510  0.2962 -0.1955  0.1785
19377SOL    HW162688   7.385   8.582   6.481 -0.0746  0.1987 -1.0942
19377SOL    HW262689   7.471   8.706   6.481  0.2212  0.0082  0.1926
19378SOL     OW62690   7.971   5.210  11.199  0.4037 -0.4380 -0.3011
19378SOL    HW162691   7.985   5.291  11.248  0.6837 -0.8959  0.3911
19378SOL    HW262692   8.048   5.204  11.142  0.2026 -0.0341 -0.6228
19379SOL     OW62693   8.192   0.780   0.265 -0.5145 -0.4960  0.0536
19379SOL    HW162694   8.251   0.776   0.190  0.0430  0.5656  0.4001
19379SOL    HW262695   8.111   0.817   0.230  0.1196  1.0765  0.1472
19380SOL     OW62696  10.634   2.791   1.792 -0.7079 -0.5906 -0.2654
19380SOL    HW162697  10.603   2.790   1.702 -0.7059 -0.3325 -0.2708
19380SOL    HW262698  10.641   2.699   1.817 -1.4086 -0.6547 -0.2887
19381SOL     OW62699   9.490   4.843   1.892 -0.0522 -0.0711  0.0914
19381SOL    HW162700   9.504   4.766   1.947  0.7051  0.8476  1.2296
19381SOL    HW262701   9.395   4.850   1.884 -0.1679 -2.4316 -1.9994
19382SOL     OW62702   8.321   4.116   5.565  0.1439  0.4399 -0.2384
19382SOL    HW162703   8.354   4.032   5.533  1.5925  0.6471  0.6441
19382SOL    HW262704   8.379   4.181   5.525  0.7968  0.8227  1.2789
19383SOL     OW62705  10.502   2.640  10.229 -0.4654 -0.1572 -0.8209
19383SOL    HW162706  10.567   2.657  10.161 -1.1872  2.2109 -1.0082
19383SOL    HW262707  10.427   2.694  10.204 -1.1580 -0.0899  1.2515
19384SOL     OW62708   6.720   9.604   8.256 -0.1655 -0.6504 -0.4470
19384SOL    HW162709   6.652   9.572   8.315 -0.0098 -0.6986 -0.2927
19384SOL    HW262710   6.678   9.608   8.170 -0.4818 -0.3004 -0.2809
19385SOL     OW62711   9.502   3.306  10.510  0.9621  0.3622 -0.3211
19385SOL    HW162712   9.430   3.278  10.454  0.1622  1.9463 -0.1235
19385SOL    HW262713   9.530   3.390  10.473  1.3641  0.7361  0.7974
19386SOL     OW62714   2.600   9.123   3.895 -0.1113 -0.5752  0.0586
19386SOL    HW162715   2.614   9.217   3.902 -1.4543 -0.3276 -0.3231
19386SOL    HW262716   2.687   9.086   3.881  0.3903  0.6384 -0.0751
19387SOL     OW62717   2.986  11.262   0.022  0.4092 -0.0971  0.9673
19387SOL    HW162718   3.070  11.295   0.053  0.5453 -0.1078  0.6133
19387SOL    HW262719   2.979  11.175   0.059  0.2957  0.1208  1.4640
19388SOL     OW62720   2.284   3.449   5.520  0.4193 -0.0449 -0.3577
19388SOL    HW162721   2.260   3.457   5.428  0.5465 -1.4326 -0.5313
19388SOL    HW262722   2.380   3.453   5.520  0.4881 -1.3365 -0.4506
19389SOL     OW62723   5.691   2.047  10.466  0.0750 -0.2918  0.1715
19389SOL    HW162724   5.601   2.025  10.444 -0.2919 -0.2588  1.5608
19389SOL    HW262725   5.729   1.966  10.499  0.5845 -0.3192 -0.4497
19390SOL     OW62726   6.690   5.942   5.976  0.4167  0.1115  0.0659
19390SOL    HW162727   6.782   5.954   6.001  0.3797 -0.6849  0.6157
19390SOL    HW262728   6.644   6.014   6.019  0.7161  0.2392  0.1754
19391SOL     OW62729   5.556   8.458   6.847  0.3937  0.3722 -0.0163
19391SOL    HW162730   5.618   8.481   6.777  1.6670  1.1652  1.3208
19391SOL    HW262731   5.588   8.505   6.924 -1.4198  0.1407  0.9354
19392SOL     OW62732   7.212   8.583   4.723  0.3079  0.1803  0.4579
19392SOL    HW162733   7.278   8.569   4.791  1.5243 -0.4936 -0.8010
19392SOL    HW262734   7.146   8.515   4.739  1.0721 -0.5841  0.3960
19393SOL     OW62735   7.415   2.935  10.388 -0.3399 -0.1042 -0.0588
19393SOL    HW162736   7.494   2.916  10.338  1.2006 -1.1267  2.5558
19393SOL    HW262737   7.356   2.976  10.325  2.3260  0.9426 -2.0652
19394SOL     OW62738  11.695  10.372  10.457 -0.1530 -0.3635 -0.5386
19394SOL    HW162739  11.686  10.461  10.490  0.5034 -0.4202 -0.1844
19394SOL    HW262740  11.721  10.382  10.366  0.0777 -0.1928 -0.4535
19395SOL     OW62741   7.169   3.974   5.485  0.3826  0.3421 -0.6339
19395SOL    HW162742   7.128   3.887   5.492  1.1975  0.0388  0.5743
19395SOL    HW262743   7.099   4.030   5.451 -0.5456 -0.5109 -0.2043
19396SOL     OW62744  11.048   9.466  11.960 -0.2971 -0.5810  0.5974
19396SOL    HW162745  11.089   9.529  11.900  0.4417 -0.5771  1.0882
19396SOL    HW262746  10.996   9.409  11.904 -1.7187  1.0091  0.2225
19397SOL     OW62747  10.920   6.190   3.280 -0.6150  0.2627 -0.4546
19397SOL    HW162748  10.950   6.106   3.315 -0.5364  0.0525 -1.0192
19397SOL    HW262749  10.826   6.192   3.299 -0.2022  1.1802  1.8510
19398SOL     OW62750   6.777   4.716   4.595  0.1208 -0.0977  0.0739
19398SOL    HW162751   6.867   4.704   4.568  0.8888 -2.2141  3.0280
19398SOL    HW262752   6.725   4.687   4.520  1.9312 -1.2483 -0.8061
19399SOL     OW62753   3.286   2.687   7.605  0.1325  0.2074 -0.5464
19399SOL    HW162754   3.266   2.604   7.563 -3.6236  0.9171 -0.5239
19399SOL    HW262755   3.350   2.729   7.547  0.1129 -1.5995 -1.9427
19400SOL     OW62756   4.177  11.454   7.514 -0.2903  0.4313  0.2537
19400SOL    HW162757   4.216  11.372   7.544 -1.6577 -0.1508  0.5136
19400SOL    HW262758   4.221  11.473   7.431  0.3115 -0.3612  0.3844
19401SOL     OW62759   9.793  10.896   6.356  0.2259  0.4397  0.0127
19401SOL    HW162760   9.876  10.941   6.376  0.1493  0.6516 -0.1440
19401SOL    HW262761   9.740  10.962   6.311  0.2297  0.1040 -0.5033
19402SOL     OW62762   7.916   8.291  10.477 -0.4327  0.2481 -0.1804
19402SOL    HW162763   7.973   8.214  10.483  0.3471  0.8460  0.2165
19402SOL    HW262764   7.831   8.256  10.448 -0.9933 -1.2300  2.8237
19403SOL     OW62765   4.832   7.122   3.196 -0.2789  0.2827  0.1809
19403SOL    HW162766   4.920   7.108   3.161  0.3700  1.5093  1.2473
19403SOL    HW262767   4.808   7.210   3.167  0.8889  2.0167  3.7641
19404SOL     OW62768   6.632   5.919  11.420 -0.4277  0.0459 -0.2197
19404SOL    HW162769   6.624   5.986  11.488 -2.2827 -0.2455 -0.1081
19404SOL    HW262770   6.721   5.885  11.430 -0.3210  0.7188  1.3781
19405SOL     OW62771   0.673   1.502   3.790  0.1026  0.0502  0.0428
19405SOL    HW162772   0.701   1.414   3.816 -0.9509 -0.2348  0.2418
19405SOL    HW262773   0.743   1.560   3.820  0.9626 -0.7458 -0.3702
19406SOL     OW62774  10.757   7.199   6.055  0.3055  0.0236  0.5612
19406SOL    HW162775  10.750   7.150   6.136  1.0490  0.0601  0.6547
19406SOL    HW262776  10.826   7.155   6.005  2.4237  2.0671  1.4782
19407SOL     OW62777   8.355   2.768   5.790 -0.5978  0.5754 -0.2129
19407SOL    HW162778   8.435   2.726   5.822 -0.5264  1.4878  0.8903
19407SOL    HW262779   8.370   2.780   5.696 -0.4080 -1.3155 -0.4625
19408SOL     OW62780   1.051   0.947   6.376 -0.0220  0.3217 -0.2675
19408SOL    HW162781   1.025   1.012   6.441  0.2422 -1.1890  1.4201
19408SOL    HW262782   0.982   0.952   6.310 -0.4072  1.7606  0.1926
19409SOL     OW62783   5.182   5.257   4.300 -0.8854 -0.0500  0.1957
19409SOL    HW162784   5.098   5.301   4.313 -0.7493 -0.3231  2.3782
19409SOL    HW262785   5.226   5.310   4.234 -2.0073  1.2126  0.4029
19410SOL     OW62786   3.875   7.215   0.847  0.0242  0.0915 -0.3073
19410SOL    HW162787   3.957   7.196   0.802  0.5146 -0.7657  0.8862
19410SOL    HW262788   3.856   7.306   0.825 -0.3089 -0.5593 -3.0279
19411SOL     OW62789   4.963  10.911   8.297  0.0798  0.3503 -0.1989
19411SOL    HW162790   4.931  10.868   8.376 -0.3574 -0.6745 -0.9102
19411SOL    HW262791   5.021  10.980   8.329  1.2176 -1.1044  0.9681
19412SOL     OW62792   6.057  10.494  10.951  0.1646  0.2290 -0.6427
19412SOL    HW162793   6.093  10.573  10.992 -0.0416 -0.6892  1.3795
19412SOL    HW262794   5.968  10.487  10.986  0.2617 -1.0377 -0.6035
19413SOL     OW62795   4.555  10.571   4.391  0.3279  0.0101  0.1116
19413SOL    HW162796   4.521  10.505   4.451  2.1012 -0.8110  0.2892
19413SOL    HW262797   4.496  10.568   4.316 -1.2805  0.2746  1.3193
19414SOL     OW62798   8.772   0.252   8.644 -0.0482 -0.7601 -0.0453
19414SOL    HW162799   8.692   0.230   8.597 -0.3409  1.4512 -0.7111
19414SOL    HW262800   8.832   0.283   8.576  0.9103 -1.1533  0.5990
19415SOL     OW62801   8.359   2.411   7.323  0.3272 -0.2691 -0.5173
19415SOL    HW162802   8.314   2.336   7.361 -0.2443  1.4643  2.6108
19415SOL    HW262803   8.451   2.384   7.318  0.1280 -1.2010  0.4815
19416SOL     OW62804   1.815   0.657   9.448  0.1983  0.5949 -0.0119
19416SOL    HW162805   1.858   0.735   9.412 -0.9869  0.6562 -1.3730
19416SOL    HW262806   1.726   0.686   9.468  0.6028  0.3778  2.4599
19417SOL     OW62807   6.804   7.583   6.417 -0.2551  0.3550 -0.2403
19417SOL    HW162808   6.729   7.629   6.454 -0.0784 -0.6136  1.4213
19417SOL    HW262809   6.879   7.616   6.466  0.3616  0.9384 -1.5413
19418SOL     OW62810   5.417   1.536  11.659 -0.0206  0.5674 -0.0264
19418SOL    HW162811   5.457   1.450  11.653  0.1989  0.7517 -1.4652
19418SOL    HW262812   5.330   1.525  11.620 -0.0563  0.9668 -0.0610
19419SOL     OW62813   2.523   7.511  10.012  0.3065  0.1763  0.2356
19419SOL    HW162814   2.580   7.474  10.080  0.3797 -0.3365 -0.0997
19419SOL    HW262815   2.539   7.456   9.935 -1.2913 -0.5590  0.3858
19420SOL     OW62816   0.346  11.390  10.016 -0.6532 -0.3991 -0.2922
19420SOL    HW162817   0.286  11.385  10.090 -2.9280  0.3685 -1.9841
19420SOL    HW262818   0.352  11.483   9.995  0.0893 -0.5792 -0.9733
19421SOL     OW62819   8.527   3.677   0.695 -0.0319 -0.6236  0.8952
19421SOL    HW162820   8.561   3.588   0.688  0.7122 -0.3575  1.1151
19421SOL    HW262821   8.434   3.669   0.670 -0.2591 -1.6473  2.0022
19422SOL     OW62822   0.931   1.412   3.851 -0.1668 -0.3796  0.6879
19422SOL    HW162823   1.027   1.411   3.844 -0.2157 -0.2790 -0.0468
19422SOL    HW262824   0.910   1.501   3.878 -0.1763  0.1995 -1.1669
19423SOL     OW62825   7.895  11.651   0.706 -0.3903  0.0849 -0.3522
19423SOL    HW162826   7.853  11.569   0.730  1.1120 -0.7063 -0.3220
19423SOL    HW262827   7.835  11.691   0.643 -1.5421 -0.6250  0.2750
19424SOL     OW62828   4.321   5.159   4.992  0.6250  0.0761 -0.1816
19424SOL    HW162829   4.399   5.162   5.047 -0.3282  0.6394  1.1973
19424SOL    HW262830   4.267   5.091   5.030 -0.8761  1.7309  0.8141
19425SOL     OW62831   0.334   4.873   3.054 -0.0960 -0.4042 -0.0229
19425SOL    HW162832   0.373   4.897   2.970 -0.2555 -0.2393 -0.0520
19425SOL    HW262833   0.240   4.886   3.040 -0.0993 -0.1250  0.2612
19426SOL     OW62834   5.207   6.587   6.803  0.6771  0.6460 -0.4661
19426SOL    HW162835   5.253   6.659   6.761  0.1936  1.5527  0.5178
19426SOL    HW262836   5.229   6.510   6.751  0.0445  1.7225 -2.4103
19427SOL     OW62837  11.144  10.838   8.340 -0.8500 -0.3620 -0.2067
19427SOL    HW162838  11.232  10.823   8.376  0.5226 -0.3679 -3.2801
19427SOL    HW262839  11.126  10.760   8.289 -1.7168  0.5184 -1.2891
19428SOL     OW62840   9.895   3.941   7.111 -0.4854 -0.0334 -0.1868
19428SOL    HW162841   9.901   3.957   7.017 -3.2988 -0.2295 -0.4789
19428SOL    HW262842   9.835   4.009   7.143  1.0863  0.5765  1.6693
19429SOL     OW62843   6.224   1.820  11.810 -0.0042 -0.1399  0.3627
19429SOL    HW162844   6.269   1.852  11.888  1.0656  1.6567 -0.9268
19429SOL    HW262845   6.132   1.816  11.835  0.3270  0.2675  1.7381
19430SOL     OW62846  11.728  10.304   1.186 -0.1219  0.2098 -0.3077
19430SOL    HW162847  11.765  10.297   1.098  1.4279  0.7542  0.2558
19430SOL    HW262848  11.639  10.337   1.173 -0.2997 -0.7404 -1.7063
19431SOL     OW62849   7.337   1.356  10.102 -0.0557 -0.0619 -0.0661
19431SOL    HW162850   7.399   1.289  10.131 -0.0821  0.3850  1.0878
19431SOL    HW262851   7.356   1.369  10.010  1.6099  0.1140  0.2822
19432SOL     OW62852   6.155   2.193   7.399 -0.6469 -0.1881 -0.0450
19432SOL    HW162853   6.145   2.133   7.324 -0.9200 -1.6531  1.1117
19432SOL    HW262854   6.247   2.218   7.397 -0.0711 -2.0649  0.4198
19433SOL     OW62855   4.422   7.940   0.777 -0.1223 -0.4030  0.3578
19433SOL    HW162856   4.486   7.956   0.709  0.4432 -0.9146  0.7615
19433SOL    HW262857   4.341   7.920   0.730  0.6438 -2.4076 -0.2052
19434SOL     OW62858  11.167   3.032   8.517 -0.0270 -0.0850  0.1624
19434SOL    HW162859  11.259   3.041   8.493  0.2460  0.5420  1.3849
19434SOL    HW262860  11.134   2.964   8.458  1.2059 -0.3145 -0.3008
19435SOL     OW62861   1.047   1.141   7.004 -0.4052 -0.2214  0.4717
19435SOL    HW162862   1.129   1.125   6.957 -1.6419 -0.5475 -1.6897
19435SOL    HW262863   1.030   1.234   6.990 -0.1582 -0.0295  1.3841
19436SOL     OW62864   0.311   2.903   2.914 -0.2178 -0.0223  0.0843
19436SOL    HW162865   0.236   2.872   2.863 -0.6108  0.4723  0.3428
19436SOL    HW262866   0.320   2.995   2.890  0.4993 -0.1527 -0.1652
19437SOL     OW62867  12.109   7.897   5.206  0.6154  0.0287  0.2087
19437SOL    HW162868  12.198   7.931   5.194 -0.1211  2.2554  0.6330
19437SOL    HW262869  12.085   7.923   5.295 -0.0076 -1.7132  0.5814
19438SOL     OW62870   1.000   3.309   0.190  0.6948 -0.1672 -0.2731
19438SOL    HW162871   0.962   3.293   0.104 -0.4947 -1.2439  0.4156
19438SOL    HW262872   1.095   3.306   0.175  0.5084  0.0222 -1.5955
19439SOL     OW62873   1.598   3.941   8.412 -0.4090  0.0357  0.5144
19439SOL    HW162874   1.642   3.856   8.418  0.7127  0.6885  2.2349
19439SOL    HW262875   1.666   4.002   8.382 -1.0316  0.4776 -0.0489
19440SOL     OW62876   2.119   4.174   2.314  0.5954  0.0819 -0.3886
19440SOL    HW162877   2.052   4.106   2.314  0.2221  0.4381  0.1673
19440SOL    HW262878   2.140   4.189   2.222 -2.2874  2.0923 -0.8431
19441SOL     OW62879   7.148   8.115  10.247  0.2674 -0.0141 -0.1048
19441SOL    HW162880   7.085   8.104  10.175  1.7121 -1.2192 -1.2532
19441SOL    HW262881   7.117   8.192  10.294 -2.8409 -1.2630  0.1924
19442SOL     OW62882   8.693   3.913  11.712  0.0991  0.3736 -0.2577
19442SOL    HW162883   8.659   4.002  11.720 -1.6857 -0.4125  2.0331
19442SOL    HW262884   8.649   3.864  11.782  1.5345 -2.1643 -1.0010
19443SOL     OW62885   2.386   6.317   2.966  0.0084 -0.3036 -0.1241
19443SOL    HW162886   2.475   6.298   2.997  0.7439 -2.8388 -3.2238
19443SOL    HW262887   2.336   6.238   2.989 -1.3441  0.8428  1.0219
19444SOL     OW62888  10.046  11.781   5.746  0.3973 -0.1682 -0.0143
19444SOL    HW162889  10.015  11.791   5.656 -1.8914 -0.1275  0.7146
19444SOL    HW262890   9.991  11.712   5.783  0.6120  0.4987  1.6379
19445SOL     OW62891   3.613  10.419   2.303 -0.0954  0.4702 -0.1711
19445SOL    HW162892   3.659  10.361   2.363  0.0157  0.1656 -0.5539
19445SOL    HW262893   3.521  10.394   2.312  0.0468 -0.3915 -1.0140
19446SOL     OW62894   2.310   5.569   5.941  0.3528 -0.4360 -0.1810
19446SOL    HW162895   2.341   5.572   5.850  2.4565 -1.2218  0.4635
19446SOL    HW262896   2.386   5.594   5.993  0.1648 -3.0694  1.5385
19447SOL     OW62897   7.679   0.909  11.250  0.2137 -0.0384  0.5293
19447SOL    HW162898   7.618   0.848  11.291  0.8603 -1.1898 -0.1944
19447SOL    HW262899   7.663   0.992  11.295 -1.7937 -0.3341  0.4534
19448SOL     OW62900   6.833   0.230  10.831 -0.4346 -0.0980  0.3091
19448SOL    HW162901   6.844   0.140  10.860 -0.3996 -0.0970  0.2976
19448SOL    HW262902   6.762   0.264  10.886 -2.5591 -1.0360 -1.6690
19449SOL     OW62903   1.064   7.477   4.650  0.4689 -0.3670  0.1971
19449SOL    HW162904   1.084   7.449   4.560 -0.8137 -1.4714  0.2172
19449SOL    HW262905   1.032   7.567   4.640  2.7844  0.4839 -0.1125
19450SOL     OW62906   7.626   9.276   1.943  0.0615  0.2053  0.1740
19450SOL    HW162907   7.587   9.363   1.954 -2.7137 -0.6987 -1.4504
19450SOL    HW262908   7.551   9.219   1.926  2.0469 -1.8976 -2.2551
19451SOL     OW62909   8.872   9.990   5.149  0.0602  0.5176  0.0613
19451SOL    HW162910   8.919  10.015   5.228  1.0089  0.0297 -0.3204
19451SOL    HW262911   8.783   9.972   5.178  0.1703  1.2056  0.8583
19452SOL     OW62912   2.999  10.884   4.898 -0.0889  0.2610 -0.1889
19452SOL    HW162913   3.025  10.816   4.835  2.7198  0.0330  1.0644
19452SOL    HW262914   2.952  10.949   4.846  1.4069 -0.3106 -2.3575
19453SOL     OW62915   2.047   9.990   3.348 -0.1177 -0.0678 -0.4038
19453SOL    HW162916   2.116   9.945   3.299  0.1161  2.2931 -2.4411
19453SOL    HW262917   2.084  10.075   3.369 -1.1817 -0.0637  1.7079
19454SOL     OW62918  12.096  11.029   5.357 -0.1557  0.0061  0.1926
19454SOL    HW162919  12.017  11.075   5.385 -1.6423 -3.0808  1.5881
19454SOL    HW262920  12.163  11.055   5.421 -0.9771  0.1966  1.0043
19455SOL     OW62921   4.570   9.679   6.346  0.2289 -0.1556  0.1694
19455SOL    HW162922   4.594   9.753   6.402  0.4719 -0.8880  1.0552
19455SOL    HW262923   4.647   9.665   6.291  0.5125 -0.2913  0.5979
19456SOL     OW62924   6.318   7.636   9.677  0.4873  0.4183  0.0501
19456SOL    HW162925   6.291   7.547   9.701  0.1542  0.7834  1.0876
19456SOL    HW262926   6.278   7.650   9.591 -1.6884  0.4987  0.9970
19457SOL     OW62927   6.994   8.561   8.430  0.3501 -0.2812  0.0871
19457SOL    HW162928   6.947   8.482   8.457 -0.0512 -0.1309 -0.1646
19457SOL    HW262929   6.959   8.630   8.486  1.3146 -0.4294  0.9068
19458SOL     OW62930   3.682   3.362   9.435 -0.3711  0.1507 -0.1740
19458SOL    HW162931   3.595   3.328   9.456  0.2487 -0.8095  0.9771
19458SOL    HW262932   3.672   3.403   9.349 -0.6549 -5.2699 -3.1702
19459SOL     OW62933   7.728   1.790   9.862  0.7445  0.0492 -0.6462
19459SOL    HW162934   7.751   1.882   9.852  0.9002  0.0439 -0.3471
19459SOL    HW262935   7.812   1.746   9.875  0.7330 -0.2232 -1.4373
19460SOL     OW62936   7.159   2.551   2.718 -0.2909 -0.1810 -0.5180
19460SOL    HW162937   7.106   2.536   2.797  0.7233 -0.1286  0.1863
19460SOL    HW262938   7.247   2.569   2.751 -0.0712  0.8976 -1.6155
19461SOL     OW62939  10.255   9.885   1.447 -0.8491 -0.0846 -0.2610
19461SOL    HW162940  10.265   9.944   1.372 -0.0233  0.2227  0.0860
19461SOL    HW262941  10.342   9.880   1.486 -1.1417 -0.7142  0.3317
19462SOL     OW62942   8.901  10.576   0.385  0.6525 -0.3692 -0.2933
19462SOL    HW162943   8.913  10.574   0.290  2.8400 -0.3181 -0.0544
19462SOL    HW262944   8.897  10.670   0.406  0.3760 -0.3788 -0.2958
19463SOL     OW62945   7.800   4.911   8.670  0.7896  0.1212  0.1759
19463SOL    HW162946   7.720   4.898   8.620  1.1079 -2.3319  0.1719
19463SOL    HW262947   7.867   4.926   8.604  0.8655 -1.1257 -0.0586
19464SOL     OW62948   2.502  11.763   9.914 -0.3083  0.0686 -0.1227
19464SOL    HW162949   2.486  11.726  10.000 -0.8900 -1.1759 -0.7425
19464SOL    HW262950   2.557  11.840   9.930  0.5743 -0.8277  1.2342
19465SOL     OW62951  10.332   9.907   8.409 -0.3462 -0.3748  0.0586
19465SOL    HW162952  10.245   9.869   8.423 -1.2910  1.4108 -0.6502
19465SOL    HW262953  10.321   9.963   8.332  1.1022  0.9113  0.7381
19466SOL     OW62954   9.803   6.792   5.653 -0.1692 -0.0904  0.1469
19466SOL    HW162955   9.818   6.799   5.747 -1.6110  0.3111  0.3717
19466SOL    HW262956   9.858   6.860   5.615  0.4670 -0.2936  0.6976
19467SOL     OW62957  11.096   6.001   3.743 -0.0528 -0.6607 -0.2015
19467SOL    HW162958  11.025   5.937   3.740  0.6705 -1.4633 -1.2400
19467SOL    HW262959  11.175   5.949   3.727  0.4962  0.5585 -1.6524
19468SOL     OW62960   0.245   7.326   4.533  0.1529  0.5643 -0.0830
19468SOL    HW162961   0.181   7.255   4.538  0.4319  0.4125  1.9258
19468SOL    HW262962   0.328   7.283   4.514 -0.2351  0.7408 -2.4616
19469SOL     OW62963   9.770   0.736   4.904  0.1207 -0.1622  0.5685
19469SOL    HW162964   9.813   0.795   4.842  1.6892  0.6581  2.3370
19469SOL    HW262965   9.678   0.736   4.878  0.2935  2.1273 -0.2427
19470SOL     OW62966   4.250  11.494  11.499 -0.2807  0.5881  0.1176
19470SOL    HW162967   4.287  11.581  11.486  0.7239  0.1783  0.0857
19470SOL    HW262968   4.271  11.447  11.417  1.7145 -0.5219  1.1818
19471SOL     OW62969   8.373   8.860   6.187 -0.4501 -0.2964 -0.1165
19471SOL    HW162970   8.450   8.804   6.175 -0.3814 -0.3413  0.5268
19471SOL    HW262971   8.318   8.813   6.249 -0.3441  0.3896  0.5124
19472SOL     OW62972   7.931   0.286   7.131  0.0400  0.4695 -0.2224
19472SOL    HW162973   8.013   0.309   7.176  0.0514  0.9520 -0.4813
19472SOL    HW262974   7.951   0.297   7.038  0.6110 -2.4196 -0.5261
19473SOL     OW62975   2.640   2.910   7.320  0.0025  0.2366 -0.4566
19473SOL    HW162976   2.626   2.817   7.300  0.1061  0.2935 -0.7915
19473SOL    HW262977   2.693   2.909   7.400  1.3519 -0.0043 -1.3244
19474SOL     OW62978   4.460   5.796   6.726 -0.5388  0.3524  0.3006
19474SOL    HW162979   4.367   5.815   6.738 -0.3809  1.8420 -0.6122
19474SOL    HW262980   4.474   5.799   6.632  0.4054 -0.1045  0.4027
19475SOL     OW62981   3.405   3.514  11.279  0.7988  1.2276  0.7404
19475SOL    HW162982   3.473   3.481  11.338  0.7525 -1.6853 -0.6305
19475SOL    HW262983   3.329   3.528  11.335  2.0527  3.1177  2.0619
19476SOL     OW62984   4.899   0.126   1.949 -0.0026 -0.2178 -0.0228
19476SOL    HW162985   4.866   0.153   1.864 -2.5278 -0.5124  0.7905
19476SOL    HW262986   4.994   0.133   1.941 -0.2406  1.9379 -2.1228
19477SOL     OW62987   9.925   3.428   6.775  0.3227  0.3698  0.6487
19477SOL    HW162988   9.922   3.414   6.680  0.5048  1.8371  0.4034
19477SOL    HW262989   9.968   3.349   6.809 -2.7375 -1.8146 -0.0677
19478SOL     OW62990   8.205   7.329   8.568  0.1874  0.0701 -0.2115
19478SOL    HW162991   8.178   7.320   8.477 -0.9885  2.3886 -0.1798
19478SOL    HW262992   8.136   7.383   8.608  1.8915  1.1902  1.3957
19479SOL     OW62993   8.047   1.489   2.545 -0.4102 -0.1746 -0.1591
19479SOL    HW162994   8.129   1.512   2.502 -0.2930  0.0175  0.1622
19479SOL    HW262995   8.045   1.393   2.543 -1.7284 -0.1972 -3.0590
19480SOL     OW62996   6.291   1.423   9.233 -0.1298 -0.3803  0.4856
19480SOL    HW162997   6.347   1.361   9.279 -0.8922 -0.9414  0.6699
19480SOL    HW262998   6.315   1.414   9.141 -0.0295 -0.7274  0.5462
19481SOL     OW62999   4.487   6.283   4.941 -0.6821 -0.4630  0.4435
19481SOL    HW163000   4.399   6.312   4.916 -1.1540 -2.8440 -1.0169
19481SOL    HW263001   4.480   6.262   5.034 -1.3804  0.2787  0.5691
19482SOL     OW63002   7.141   4.531  10.609 -0.5015 -0.1963  0.3580
19482SOL    HW163003   7.151   4.614  10.655 -0.3523  0.0246 -0.0684
19482SOL    HW263004   7.205   4.473  10.651  1.2158  0.6125 -0.9582
19483SOL     OW63005   6.152   9.739   1.406 -0.0667 -0.2137  0.1866
19483SOL    HW163006   6.071   9.744   1.355 -0.9012 -0.1171  1.4766
19483SOL    HW263007   6.169   9.830   1.431  2.5630  0.4085 -3.1682
19484SOL     OW63008  10.510   6.303   4.130  0.4597  0.1836 -0.2270
19484SOL    HW163009  10.426   6.347   4.123  1.0475  1.4129  0.1056
19484SOL    HW263010  10.489   6.209   4.127 -0.7569  0.4730 -1.6744
19485SOL     OW63011  11.590   6.818   9.947 -0.0524 -0.5333  0.3299
19485SOL    HW163012  11.633   6.800  10.031  1.1025  0.9485  0.1000
19485SOL    HW263013  11.529   6.888   9.966 -1.0365 -1.3442  0.2524
19486SOL     OW63014   9.513   3.048   3.526  0.8711  0.0531  0.1352
19486SOL    HW163015   9.458   3.113   3.481  1.7678  0.5876 -0.2206
19486SOL    HW263016   9.601   3.067   3.496  1.3186 -0.4777  1.0706
19487SOL     OW63017   1.020   6.183   5.741  0.1525 -0.3273  0.4384
19487SOL    HW163018   1.077   6.107   5.727 -0.9239 -1.0525 -0.1430
19487SOL    HW263019   1.074   6.258   5.715  0.6093 -1.0533 -0.8130
19488SOL     OW63020   0.514  12.046  10.478 -0.0076  0.0321 -0.7586
19488SOL    HW163021   0.545  11.981  10.540  0.2115  0.5369 -0.3307
19488SOL    HW263022   0.562  12.126  10.501 -0.7956  0.5328 -0.8165
19489SOL     OW63023   8.262   8.623   0.721  0.4956 -0.3279 -0.0656
19489SOL    HW163024   8.197   8.614   0.651  0.4292 -0.3428 -0.0030
19489SOL    HW263025   8.224   8.575   0.795 -0.1360  0.9259  0.4589
19490SOL     OW63026   5.239   9.008   8.434  0.4475  0.0573  0.2051
19490SOL    HW163027   5.311   9.000   8.372  0.1071 -0.6753 -0.0986
19490SOL    HW263028   5.176   9.065   8.391 -0.3046 -1.3620 -0.6261
19491SOL     OW63029   7.331   1.521   6.997 -0.2031 -0.5849 -0.0824
19491SOL    HW163030   7.375   1.600   6.965 -1.2203  0.3303  0.7142
19491SOL    HW263031   7.369   1.506   7.083  1.5437 -2.2564 -1.0604
19492SOL     OW63032   0.350   4.441   6.436  0.0228  0.2172 -0.5157
19492SOL    HW163033   0.353   4.533   6.463  0.1449  0.0004  0.2108
19492SOL    HW263034   0.406   4.395   6.498 -0.2668 -0.3941 -0.6973
19493SOL     OW63035   8.994   0.698   6.157  0.0259  0.0057 -0.1437
19493SOL    HW163036   8.986   0.782   6.202 -2.8163 -0.9443  1.3339
19493SOL    HW263037   8.951   0.713   6.072  1.6885  0.6553 -0.9055
19494SOL     OW63038   6.766   3.427   3.422 -0.4054  0.0778  0.5543
19494SOL    HW163039   6.851   3.385   3.429 -0.8681 -0.9213  0.4442
19494SOL    HW263040   6.713   3.385   3.489 -1.1315 -0.1403 -0.1375
19495SOL     OW63041   8.568   3.404  10.717 -0.4854 -0.1449  0.0770
19495SOL    HW163042   8.510   3.453  10.775 -0.7900  0.5817 -0.8186
19495SOL    HW263043   8.533   3.419  10.629 -0.2376 -1.4944 -0.2775
19496SOL     OW63044   8.536   9.659  10.919  0.3945  0.4988  0.0867
19496SOL    HW163045   8.587   9.712  10.980 -0.5856  1.8625 -0.2357
19496SOL    HW263046   8.600   9.629  10.854  0.8138  2.1975 -0.3381
19497SOL     OW63047   6.421   9.630   7.803 -0.2705 -0.0001 -0.0836
19497SOL    HW163048   6.408   9.701   7.741 -3.0137 -0.7825 -0.5162
19497SOL    HW263049   6.404   9.550   7.752 -0.9128 -0.7537  1.2641
19498SOL     OW63050   5.760   9.873   9.065  0.2872 -0.2600 -0.9468
19498SOL    HW163051   5.717   9.788   9.067 -0.5982  0.1793  1.3626
19498SOL    HW263052   5.700   9.929   9.016 -0.7259 -0.2269  0.2735
19499SOL     OW63053  12.037   1.866   4.774 -0.5909 -0.1125  0.3273
19499SOL    HW163054  12.011   1.774   4.774 -0.1121 -0.2943 -1.5374
19499SOL    HW263055  11.967   1.911   4.727 -1.7163  0.8276  2.7283
19500SOL     OW63056  10.000   7.710   3.306 -0.8997  0.8556  0.2581
19500SOL    HW163057  10.014   7.795   3.349  1.7583 -0.3853  2.0762
19500SOL    HW263058  10.054   7.713   3.227  0.6684  0.2778  1.2612
19501SOL     OW63059   9.056   5.145   6.054 -0.2417  0.5947 -0.6431
19501SOL    HW163060   8.970   5.186   6.060 -1.6213 -2.2501  1.7596
19501SOL    HW263061   9.038   5.051   6.058  2.9777 -0.1340 -0.5142
19502SOL     OW63062   1.738   3.869   0.450 -0.2609  0.7722  0.5388
19502SOL    HW163063   1.808   3.818   0.409 -1.2136 -0.6210  0.5307
19502SOL    HW263064   1.731   3.947   0.396  0.4047  0.3045 -0.2588
19503SOL     OW63065  10.326   7.752  11.611 -0.1644 -0.3970 -0.5960
19503SOL    HW163066  10.348   7.845  11.622 -0.6739 -0.1506 -1.6171
19503SOL    HW263067  10.400   7.706  11.651 -0.8687  0.4208  1.8126
19504SOL     OW63068   5.345  11.872   0.800  0.3081  0.5580 -0.2474
19504SOL    HW163069   5.356  11.787   0.842  3.0212  0.9377 -0.0034
19504SOL    HW263070   5.314  11.930   0.870 -1.2721 -0.1254 -0.3486
19505SOL     OW63071   2.192   3.326   2.437  0.2274 -0.6973  0.3650
19505SOL    HW163072   2.167   3.238   2.464 -1.4337 -0.5096 -0.4016
19505SOL    HW263073   2.209   3.373   2.518  0.2384 -1.4873  0.8250
19506SOL     OW63074  10.926  11.130   2.315  0.4283  0.4527  0.2979
19506SOL    HW163075  10.985  11.160   2.384 -1.5518  2.1164  1.3805
19506SOL    HW263076  10.849  11.186   2.323 -1.5824 -1.9771 -0.6514
19507SOL     OW63077   3.933   0.524   4.684  0.1182 -0.0750  0.3970
19507SOL    HW163078   3.859   0.490   4.735 -0.0949  0.3258  0.3611
19507SOL    HW263079   3.918   0.490   4.596  0.0328 -0.0805  0.4127
19508SOL     OW63080   6.171  11.946   8.718  0.8436 -0.1317 -0.0542
19508SOL    HW163081   6.195  11.903   8.800 -1.7148 -1.3638  0.1323
19508SOL    HW263082   6.101  12.006   8.742  1.2446  0.7818 -1.0917
19509SOL     OW63083  11.956   1.856   5.734  0.1865 -0.0187  0.6921
19509SOL    HW163084  11.942   1.823   5.645  2.3424  1.3057 -0.2142
19509SOL    HW263085  11.870   1.885   5.763 -0.2043  1.8615 -1.9816
19510SOL     OW63086   1.930   3.233   2.210 -0.6471  0.0119 -0.0312
19510SOL    HW163087   1.849   3.209   2.166 -0.7451  0.8660 -0.3242
19510SOL    HW263088   1.998   3.219   2.144 -0.4287 -1.4670  0.4510
19511SOL     OW63089   5.972   8.513  10.637 -0.1066 -0.3099  0.1891
19511SOL    HW163090   5.920   8.521  10.557 -0.3779  0.3359  0.4212
19511SOL    HW263091   6.026   8.592  10.639 -0.2107 -0.2458  0.7184
19512SOL     OW63092   0.635  11.467   3.965  0.2342 -0.3094  0.0963
19512SOL    HW163093   0.630  11.456   4.060  1.5832 -0.1684  0.1977
19512SOL    HW263094   0.577  11.400   3.930 -0.9238  0.1651  1.0304
19513SOL     OW63095   6.585   6.493   4.651  0.2778 -0.6829  0.0622
19513SOL    HW163096   6.629   6.478   4.735 -1.9976  0.9612  1.6868
19513SOL    HW263097   6.625   6.573   4.617  1.0348 -1.2191 -0.3430
19514SOL     OW63098   1.910   5.119   2.553 -0.2264  0.1828  0.1956
19514SOL    HW163099   1.946   5.031   2.547 -0.0987 -0.1953  3.8527
19514SOL    HW263100   1.817   5.106   2.570 -0.5026  0.8400 -0.7189
19515SOL     OW63101   2.841   7.097   9.771  0.6114 -0.3713  0.6239
19515SOL    HW163102   2.872   7.081   9.682  0.2639 -1.3459  0.6633
19515SOL    HW263103   2.866   7.188   9.789 -0.4271  0.2617 -0.9069
19516SOL     OW63104   4.605  11.299   0.318 -0.3883 -0.3429 -0.1749
19516SOL    HW163105   4.542  11.284   0.248 -1.7999 -1.4660  1.2613
19516SOL    HW263106   4.678  11.240   0.298 -0.6200 -0.3991 -0.8745
19517SOL     OW63107   4.949   7.602   1.477  0.1540  0.0502  0.3563
19517SOL    HW163108   5.011   7.671   1.454 -0.4511 -0.1316 -2.0795
19517SOL    HW263109   4.868   7.649   1.495  0.4650  0.1487  1.5464
19518SOL     OW63110   9.704   8.909   0.697 -0.4458 -0.0455 -0.1573
19518SOL    HW163111   9.724   8.893   0.789 -0.9912 -0.2414 -0.0720
19518SOL    HW263112   9.757   8.986   0.674  1.7015 -1.5316 -0.4028
19519SOL     OW63113   4.536   0.303   8.833  0.4681 -0.2093  0.7372
19519SOL    HW163114   4.441   0.299   8.827  0.4863 -0.0052  0.2671
19519SOL    HW263115   4.557   0.394   8.814  0.8897 -0.6694 -1.2484
19520SOL     OW63116   3.202   2.706   8.140 -0.0639  0.1213  0.1805
19520SOL    HW163117   3.204   2.799   8.160 -0.5461 -0.2690  2.2401
19520SOL    HW263118   3.285   2.690   8.094 -0.9523  1.9203 -2.2974
19521SOL     OW63119   3.446  10.888   3.742  0.7815 -0.0985 -0.1072
19521SOL    HW163120   3.516  10.824   3.728  1.2600  0.6962 -1.5109
19521SOL    HW263121   3.460  10.919   3.831 -0.1602 -2.7437  1.0693
19522SOL     OW63122   8.859   1.018   6.982 -0.2387 -0.0722 -0.3469
19522SOL    HW163123   8.940   1.069   6.978 -0.6849  0.6654 -0.1097
19522SOL    HW263124   8.805   1.052   6.911 -0.3236 -0.5880 -0.5292
19523SOL     OW63125  11.287   9.196   8.624 -0.3057 -0.3115  0.2078
19523SOL    HW163126  11.329   9.129   8.678  1.0402 -0.9329 -1.4959
19523SOL    HW263127  11.322   9.279   8.657 -0.8848 -0.5289  1.4114
19524SOL     OW63128   3.098   2.552   6.561 -0.1453  0.0040  0.4758
19524SOL    HW163129   3.156   2.542   6.637  1.7887 -2.5495 -1.1379
19524SOL    HW263130   3.156   2.584   6.491 -0.6698 -2.2989 -1.1208
19525SOL     OW63131  10.527   9.239   0.509 -0.0353 -0.1569 -0.2725
19525SOL    HW163132  10.442   9.214   0.546  0.9673 -1.7025  1.1595
19525SOL    HW263133  10.508   9.263   0.419 -2.2056  1.0486  0.4347
19526SOL     OW63134   7.619   2.589   1.289  0.1684  0.6960 -0.0847
19526SOL    HW163135   7.649   2.630   1.370  0.7567 -0.3214  0.2225
19526SOL    HW263136   7.699   2.556   1.247 -0.1165  1.2676 -1.1207
19527SOL     OW63137   3.241  10.446   6.027  0.0488  0.2423  0.3531
19527SOL    HW163138   3.186  10.406   5.960 -0.2609  0.6144  0.3809
19527SOL    HW263139   3.322  10.469   5.981  0.7483 -1.5675  0.6204
19528SOL     OW63140  11.050   5.398   2.281 -0.1325  0.0286 -0.0559
19528SOL    HW163141  11.019   5.405   2.371 -0.2373  0.7376 -0.1377
19528SOL    HW263142  11.139   5.364   2.288  0.4662  1.5715  0.4383
19529SOL     OW63143   3.026   2.293   5.763 -0.2525 -0.1266  0.1577
19529SOL    HW163144   2.937   2.324   5.744 -0.6292 -1.3510 -0.1548
19529SOL    HW263145   3.043   2.228   5.696  0.3049 -0.9871  1.1104
19530SOL     OW63146  10.336   4.330   4.723  0.3216 -0.6614  0.3225
19530SOL    HW163147  10.408   4.318   4.786  0.9585 -0.8629 -0.4258
19530SOL    HW263148  10.378   4.322   4.637 -0.4449  0.1479 -0.1354
19531SOL     OW63149  10.697   9.019   3.682 -0.3223 -0.3498  0.4167
19531SOL    HW163150  10.710   9.021   3.777  1.4236 -1.8486  0.2782
19531SOL    HW263151  10.759   9.083   3.648 -1.3263  0.5721  0.2993
19532SOL     OW63152   3.199  10.366   0.596  0.8466  0.1800  0.1760
19532SOL    HW163153   3.195  10.376   0.501 -2.1786  0.3752  0.2340
19532SOL    HW263154   3.171  10.451   0.631 -0.3347 -0.5825  1.1687
19533SOL     OW63155   2.248   1.167   4.741  0.1138  0.0214  0.0946
19533SOL    HW163156   2.162   1.179   4.781 -0.3145 -2.7893  0.1674
19533SOL    HW263157   2.243   1.218   4.659 -1.4080  0.3344  0.3492
19534SOL     OW63158   3.458   7.513   1.669  0.3916 -0.4198 -0.4128
19534SOL    HW163159   3.371   7.526   1.630  0.9699  1.3396 -1.2004
19534SOL    HW263160   3.454   7.425   1.706 -1.6177 -0.5140 -0.7192
19535SOL     OW63161   3.247   0.772   7.090  0.4921 -0.0881  0.1093
19535SOL    HW163162   3.211   0.853   7.054  2.4342  0.8139  0.0628
19535SOL    HW263163   3.322   0.752   7.035  1.0220 -1.0177  1.1166
19536SOL     OW63164   5.118   9.767   2.426  0.6661  0.4205 -0.4682
19536SOL    HW163165   5.025   9.785   2.409  0.7099 -0.0538 -1.3198
19536SOL    HW263166   5.142   9.704   2.358  0.9136 -1.6170  1.3965
19537SOL     OW63167   8.323  11.350   7.968 -0.0564 -0.0974 -0.1061
19537SOL    HW163168   8.289  11.281   7.911 -0.0017  0.0878 -0.3623
19537SOL    HW263169   8.414  11.360   7.942  0.2593 -0.7240  0.7083
19538SOL     OW63170   8.170  10.514   9.779  0.3439  0.1150 -0.0065
19538SOL    HW163171   8.092  10.556   9.745  0.0146  0.8343  1.5704
19538SOL    HW263172   8.189  10.559   9.861  1.7838 -0.7704  0.1972
19539SOL     OW63173   2.654   0.984   2.873 -0.0479 -0.3526 -0.2728
19539SOL    HW163174   2.748   0.982   2.855 -0.3823 -0.8969 -2.1113
19539SOL    HW263175   2.612   0.989   2.787 -1.6917  1.2396  0.5417
19540SOL     OW63176   9.532   7.999   6.421  0.3651  0.1090 -0.0654
19540SOL    HW163177   9.512   8.082   6.465 -3.0069 -0.6129  0.0145
19540SOL    HW263178   9.522   8.018   6.328  0.6683  0.0276 -0.1170
19541SOL     OW63179   0.921   7.202   8.055  0.0579 -0.3926  0.4169
19541SOL    HW163180   0.951   7.275   8.108  1.8261 -2.2443  2.1280
19541SOL    HW263181   0.910   7.239   7.967  1.8648  1.7179  0.9928
19542SOL     OW63182  11.780   0.109  12.004  0.0735 -0.2284 -0.2632
19542SOL    HW163183  11.731   0.080  12.081 -0.4491  0.1076 -0.4642
19542SOL    HW263184  11.713   0.144  11.945  0.5732  0.3529 -0.4906
19543SOL     OW63185   5.774   1.282  10.346 -0.2026 -0.4296  0.1023
19543SOL    HW163186   5.868   1.270  10.332 -0.3264 -1.5551  0.1910
19543SOL    HW263187   5.757   1.243  10.432 -1.0043 -1.5997 -0.5625
19544SOL     OW63188   2.602   4.395   8.554  0.3966 -0.0431  0.3149
19544SOL    HW163189   2.662   4.448   8.501  0.2904  0.4785  0.7036
19544SOL    HW263190   2.640   4.307   8.552  1.0233  0.2194  0.3224
19545SOL     OW63191   7.001   9.431   6.086  0.1769  0.1829 -0.4292
19545SOL    HW163192   6.943   9.384   6.026  0.0348 -0.0129 -0.1430
19545SOL    HW263193   6.969   9.407   6.173  1.0133 -0.3432 -0.2555
19546SOL     OW63194   0.220  10.536  11.962  0.5069 -0.0560 -0.1607
19546SOL    HW163195   0.214  10.619  11.915 -0.4056 -0.4677 -0.8119
19546SOL    HW263196   0.183  10.554  12.048 -0.0708  0.1169 -0.4413
19547SOL     OW63197  11.173   7.636  10.819  0.1453  0.1628  0.1321
19547SOL    HW163198  11.160   7.583  10.898 -0.3372  1.0819  0.6930
19547SOL    HW263199  11.205   7.720  10.852 -0.1408  0.5911 -0.6520
19548SOL     OW63200   3.372   7.289   7.505 -0.1729  0.0940  0.3892
19548SOL    HW163201   3.335   7.242   7.430  2.0917 -1.5860  0.2303
19548SOL    HW263202   3.432   7.226   7.546  0.0610  1.5971  2.5142
19549SOL     OW63203   9.992   1.495   3.940  0.3481 -0.2567  0.0728
19549SOL    HW163204   9.945   1.551   3.879 -0.9431 -0.8925  0.4545
19549SOL    HW263205  10.052   1.445   3.885 -1.6110 -1.6705 -0.9130
19550SOL     OW63206   9.641   2.122  12.057  0.1135  0.0046 -0.2565
19550SOL    HW163207   9.731   2.153  12.061  0.5889 -1.1640 -1.1955
19550SOL    HW263208   9.621   2.116  11.964 -1.5183  1.7711 -0.0825
19551SOL     OW63209   9.496   4.583  10.855  0.2734 -0.2650 -1.3363
19551SOL    HW163210   9.521   4.640  10.928  0.0874 -1.7246 -0.0882
19551SOL    HW263211   9.441   4.638  10.799  0.4646  0.8941 -0.4214
19552SOL     OW63212  10.003   8.680   4.388 -0.7336  0.3670 -0.5537
19552SOL    HW163213   9.908   8.693   4.394 -0.6942  0.5309 -0.2193
19552SOL    HW263214  10.040   8.753   4.438 -0.3915  0.9112 -1.5681
19553SOL     OW63215   8.303   7.477   3.864 -0.2196 -0.0093 -0.0480
19553SOL    HW163216   8.291   7.425   3.943 -0.4159 -0.0885 -0.1304
19553SOL    HW263217   8.397   7.469   3.845 -0.3458 -0.8115 -0.3851
19554SOL     OW63218   6.462  10.299   2.552 -0.6157 -0.1405 -0.0141
19554SOL    HW163219   6.484  10.276   2.642  0.8699  0.6401 -0.1404
19554SOL    HW263220   6.516  10.240   2.498  0.7461  1.3318 -0.3436
19555SOL     OW63221   0.668   9.297   7.816 -0.1151 -0.2878  0.0415
19555SOL    HW163222   0.679   9.382   7.859  1.3592  0.6441 -2.0329
19555SOL    HW263223   0.597   9.255   7.865 -0.5507  1.9035  1.4477
19556SOL     OW63224   2.451   3.792   1.158  0.2323 -0.8116  0.3666
19556SOL    HW163225   2.463   3.874   1.206  0.7981  0.4863 -1.8402
19556SOL    HW263226   2.358   3.790   1.135  0.5243  0.1405 -1.0357
19557SOL     OW63227   4.100   5.104   4.323 -0.4439 -0.0208 -0.4562
19557SOL    HW163228   4.050   5.097   4.404  2.5386 -2.6831  1.3899
19557SOL    HW263229   4.038   5.083   4.253 -2.9605  1.7602  1.0910
19558SOL     OW63230   7.854  11.532   8.631 -0.4081  0.0094 -0.2089
19558SOL    HW163231   7.895  11.554   8.548 -0.0300 -0.9957 -0.2922
19558SOL    HW263232   7.820  11.616   8.664  0.6926  0.6527 -0.6883
19559SOL     OW63233   0.596  11.775   4.224  0.0708  0.0178  0.6285
19559SOL    HW163234   0.660  11.845   4.213  1.8088 -1.3819  1.2459
19559SOL    HW263235   0.568  11.755   4.135 -0.3481  1.3772  0.4353
19560SOL     OW63236   7.777  11.223  10.002 -0.1572 -0.1839 -0.6389
19560SOL    HW163237   7.683  11.205  10.011 -0.1730 -1.3149 -2.5066
19560SOL    HW263238   7.782  11.316   9.981 -1.0562 -0.4875 -2.4026
19561SOL     OW63239   0.524  11.055   2.576  0.2318 -0.1423 -0.5588
19561SOL    HW163240   0.521  10.976   2.522  2.8715 -0.4607 -0.3910
19561SOL    HW263241   0.597  11.105   2.540  0.1387  1.0558  0.8378
19562SOL     OW63242   0.567  11.438  10.660 -0.5789 -0.6562 -0.3216
19562SOL    HW163243   0.477  11.454  10.633  0.4164  1.1420 -3.0535
19562SOL    HW263244   0.618  11.447  10.579  2.3954  1.4919  1.5656
19563SOL     OW63245   7.369   7.791   2.397  0.2487  0.1601  0.6323
19563SOL    HW163246   7.435   7.777   2.330 -0.2461 -0.8666  0.3289
19563SOL    HW263247   7.286   7.790   2.349  0.0244  2.3299  0.8725
19564SOL     OW63248   9.676  10.286   6.933  0.0137  0.2213 -0.1001
19564SOL    HW163249   9.646  10.241   7.013 -2.3691 -0.4289 -1.2453
19564SOL    HW263250   9.604  10.346   6.912  0.6878  0.5275 -1.6434
19565SOL     OW63251   5.415   0.817   6.509 -0.3246  0.5017  0.1683
19565SOL    HW163252   5.505   0.800   6.481 -0.5398 -2.2502  0.8139
19565SOL    HW263253   5.392   0.901   6.469  2.3427  1.0277 -0.4115
19566SOL     OW63254   9.507  11.407   5.473 -0.7313  0.3558  0.5183
19566SOL    HW163255   9.552  11.346   5.413 -1.6641 -0.2461  0.4090
19566SOL    HW263256   9.570  11.478   5.486  0.0221 -0.1756 -0.0951
19567SOL     OW63257   4.807   3.195  11.999 -0.0974  0.0599 -0.0617
19567SOL    HW163258   4.856   3.225  11.922 -0.6832  0.5845 -0.2388
19567SOL    HW263259   4.740   3.137  11.964  0.8495 -1.2651  0.2557
19568SOL     OW63260   5.364   4.115   3.833  0.2053 -0.5142  0.5261
19568SOL    HW163261   5.291   4.095   3.774  1.1557  0.0825 -0.8931
19568SOL    HW263262   5.352   4.207   3.855  0.8083 -0.2728 -0.1315
19569SOL     OW63263   9.969   9.282   5.546 -0.3479  0.6059  0.9726
19569SOL    HW163264   9.912   9.231   5.604  0.7361  0.4081  1.9151
19569SOL    HW263265   9.983   9.225   5.470 -0.7722  0.3411  1.0877
19570SOL     OW63266   9.297   8.871   6.781 -0.4294 -0.6407  0.4058
19570SOL    HW163267   9.386   8.865   6.746 -0.0846  1.9128  0.6289
19570SOL    HW263268   9.246   8.914   6.712 -1.4226 -1.7623  0.4170
19571SOL     OW63269   0.438  11.988   5.053  0.6005 -0.4168 -0.3278
19571SOL    HW163270   0.385  11.981   5.132  0.2297  2.1982 -0.2798
19571SOL    HW263271   0.375  11.993   4.982  0.6719  2.4370 -0.2917
19572SOL     OW63272   2.525   3.202   7.320  0.5529  0.2374 -0.7897
19572SOL    HW163273   2.613   3.236   7.330  0.5005  0.0909  0.3226
19572SOL    HW263274   2.514   3.143   7.395  0.1050 -1.0369 -1.8151
19573SOL     OW63275   6.565   7.146   4.769 -0.3174 -0.0366 -0.0612
19573SOL    HW163276   6.560   7.052   4.753  0.3993  0.1783 -1.8950
19573SOL    HW263277   6.569   7.184   4.681 -0.2753  1.6835  0.6568
19574SOL     OW63278   6.361   7.383   4.422  0.2972  1.0245  0.1995
19574SOL    HW163279   6.309   7.309   4.391 -2.2526  1.6717  2.5520
19574SOL    HW263280   6.355   7.447   4.351 -1.4034  0.7172  0.0227
19575SOL     OW63281   9.533   9.265   4.718  0.2889  0.6507  0.4582
19575SOL    HW163282   9.490   9.307   4.644  0.5716 -0.4592 -0.3645
19575SOL    HW263283   9.476   9.192   4.741  1.2473 -0.2758 -0.0382
19576SOL     OW63284   8.994   0.105  11.047 -0.2234 -0.1548  0.2557
19576SOL    HW163285   9.023   0.157  11.121  1.0860  0.0161 -0.3433
19576SOL    HW263286   9.060   0.036  11.039 -1.3745 -1.3144  0.4125
19577SOL     OW63287   5.614   9.637   2.918  0.2426  0.2475  0.2317
19577SOL    HW163288   5.656   9.681   2.844 -1.0250 -1.5572 -1.6257
19577SOL    HW263289   5.671   9.563   2.937  0.1939  0.3073  0.6224
19578SOL     OW63290  10.486   7.759   2.247  0.4799  0.4110 -0.4519
19578SOL    HW163291  10.414   7.725   2.300 -0.7315  0.3406 -2.0780
19578SOL    HW263292  10.564   7.745   2.301 -0.6934  0.4050  1.3175
19579SOL     OW63293   3.555   8.421   4.259 -0.1168  0.5206 -0.4952
19579SOL    HW163294   3.485   8.487   4.261  0.0566  0.7189 -0.7901
19579SOL    HW263295   3.619   8.457   4.198  0.6484  0.7400  0.4217
19580SOL     OW63296  10.322   4.240   1.719  0.4028 -0.0459 -0.2229
19580SOL    HW163297  10.232   4.213   1.701  0.9858 -2.0705 -0.3200
19580SOL    HW263298  10.314   4.306   1.788 -1.2518  1.2475 -1.5687
19581SOL     OW63299   3.914  11.390   2.537 -0.3758  0.8889  0.5847
19581SOL    HW163300   3.915  11.413   2.444  0.9380  0.7043  0.5285
19581SOL    HW263301   3.991  11.434   2.573 -0.7739  0.8176  1.5551
19582SOL     OW63302   0.684  11.869   8.692 -0.0288  0.1564  0.2408
19582SOL    HW163303   0.756  11.864   8.755 -0.4447 -0.4293  0.6702
19582SOL    HW263304   0.725  11.849   8.607  0.2655 -0.4143  0.5170
19583SOL     OW63305   5.774   1.588   8.740 -0.4276 -0.2542 -0.0023
19583SOL    HW163306   5.841   1.599   8.673  0.0903  2.3620  0.8288
19583SOL    HW263307   5.697   1.633   8.706 -0.3094  0.6845  0.9114
19584SOL     OW63308   6.999   8.091   2.473  0.6312 -0.5843 -0.5775
19584SOL    HW163309   7.004   8.015   2.531  0.4466  0.3892  0.7517
19584SOL    HW263310   6.946   8.061   2.399 -3.0028 -0.6347  1.8211
19585SOL     OW63311   1.884   1.629   8.294  0.3110  0.1970 -0.7093
19585SOL    HW163312   1.841   1.550   8.326  0.4731  1.1234  2.0531
19585SOL    HW263313   1.817   1.697   8.300  0.4362  0.4996 -2.2084
19586SOL     OW63314   4.951   0.737   1.698 -0.7777  0.6336 -0.5116
19586SOL    HW163315   4.983   0.654   1.734 -0.8886  1.3522  1.3725
19586SOL    HW263316   5.014   0.760   1.630  0.5122  0.0830  0.4603
19587SOL     OW63317   8.126  10.654   5.620 -0.0562 -0.1581 -0.3461
19587SOL    HW163318   8.125  10.573   5.671  2.2790  0.5811  1.0356
19587SOL    HW263319   8.142  10.626   5.530  3.1833 -1.2282  0.4324
19588SOL     OW63320   7.325   2.031   4.025  0.6355  0.2557  0.4412
19588SOL    HW163321   7.284   2.045   3.940  0.0368 -0.7752  0.5418
19588SOL    HW263322   7.277   1.957   4.063  1.9386 -0.3481  0.9761
19589SOL     OW63323   2.084   9.325   3.569 -0.3624 -0.2725  0.5074
19589SOL    HW163324   2.111   9.312   3.660 -1.3268 -1.3572  0.6601
19589SOL    HW263325   2.001   9.278   3.562 -0.8744  0.7628 -0.6381
19590SOL     OW63326   9.209   9.221   4.469  0.1563 -0.1390  0.3003
19590SOL    HW163327   9.302   9.225   4.446 -0.1213 -0.4259 -0.9612
19590SOL    HW263328   9.187   9.128   4.466 -0.7098  0.0711 -1.8644
19591SOL     OW63329  11.245   8.586   7.238  0.0216  0.0009  0.4265
19591SOL    HW163330  11.220   8.669   7.277 -2.3505  0.3470 -1.5990
19591SOL    HW263331  11.258   8.527   7.313 -0.5437  1.5884  1.8252
19592SOL     OW63332   5.152   8.665  12.082  0.4766  0.4102 -0.5789
19592SOL    HW163333   5.184   8.704  12.163  0.9876  2.9863 -1.9128
19592SOL    HW263334   5.195   8.715  12.012 -0.5819 -1.1457 -2.4539
19593SOL     OW63335   7.099   6.124   2.578  0.7039 -0.1113  0.5365
19593SOL    HW163336   7.025   6.164   2.534  0.9007  0.0095  0.3139
19593SOL    HW263337   7.176   6.155   2.529  0.8328 -1.0902  0.1094
19594SOL     OW63338   9.870   4.474   8.447  0.6408  0.0693 -0.2106
19594SOL    HW163339   9.859   4.555   8.498 -0.2066  0.1496 -0.4939
19594SOL    HW263340   9.901   4.504   8.361 -0.9486  0.2461 -0.7595
19595SOL     OW63341   9.289   8.469   5.650  0.0414 -0.8022 -0.1129
19595SOL    HW163342   9.280   8.446   5.742  1.1321  0.4489  0.3390
19595SOL    HW263343   9.228   8.541   5.637 -0.3230 -1.1704 -0.4452
19596SOL     OW63344   1.770   1.572   4.557 -0.0396  0.4421  0.1614
19596SOL    HW163345   1.708   1.501   4.572  0.2622  0.3753  1.1831
19596SOL    HW263346   1.856   1.529   4.555 -0.0248  0.4710 -1.6854
19597SOL     OW63347   2.035   7.936   0.620 -0.4322 -0.4150  0.2903
19597SOL    HW163348   1.947   7.953   0.587 -0.1096  0.3538 -0.1878
19597SOL    HW263349   2.083   7.904   0.544 -0.3365 -1.0120  0.5926
19598SOL     OW63350   3.949   4.371   7.473 -0.3383  0.4404  0.5725
19598SOL    HW163351   3.908   4.378   7.559 -0.3228  0.6772  0.5614
19598SOL    HW263352   3.881   4.335   7.417 -0.7900  1.5347  0.3790
19599SOL     OW63353   6.764  11.039   9.124 -0.4564  0.0313  0.1263
19599SOL    HW163354   6.850  11.003   9.148  0.3605  1.3528 -0.6424
19599SOL    HW263355   6.725  10.973   9.068  0.8991  0.1950 -1.0633
19600SOL     OW63356  11.035   0.466   0.581  0.4884 -0.0529 -0.2450
19600SOL    HW163357  11.098   0.463   0.652 -0.4380  0.0357  0.6088
19600SOL    HW263358  11.038   0.556   0.549  1.2796 -0.2266 -0.6795
19601SOL     OW63359   1.963   0.579   3.242 -0.3372  0.0285  0.3215
19601SOL    HW163360   1.949   0.493   3.282  0.9054  0.1995  1.1763
19601SOL    HW263361   1.928   0.641   3.305  0.5586  0.2412  0.6240
19602SOL     OW63362   8.711   1.731   8.985  0.0571 -0.3329  0.2778
19602SOL    HW163363   8.801   1.746   9.013 -0.1027 -1.3166  1.4266
19602SOL    HW263364   8.659   1.744   9.065 -0.4239 -3.1929  0.5357
19603SOL     OW63365  11.114   1.230   4.065 -0.1378 -0.1631  0.6735
19603SOL    HW163366  11.025   1.255   4.040  0.6081  1.9272 -0.0459
19603SOL    HW263367  11.144   1.301   4.122  1.7200  0.1449 -0.6165
19604SOL     OW63368   2.475  10.175  10.629 -0.6442  0.4082 -0.4447
19604SOL    HW163369   2.520  10.233  10.690  0.4435  0.2992 -1.1287
19604SOL    HW263370   2.535  10.103  10.614 -1.9016 -0.8323  0.2340
19605SOL     OW63371   9.409  10.988   2.675 -0.1695  0.1952 -0.2168
19605SOL    HW163372   9.461  10.982   2.595  1.6108 -0.4810  0.9411
19605SOL    HW263373   9.378  11.078   2.678  1.1308  0.6760 -0.8364
19606SOL     OW63374   1.357   6.004   9.411  0.4986  0.2621 -0.2074
19606SOL    HW163375   1.450   6.001   9.435  0.9506  0.2880 -1.8299
19606SOL    HW263376   1.348   6.083   9.358 -0.2839 -0.1644 -0.7283
19607SOL     OW63377   5.492   3.989   7.221  0.6854  0.5173 -0.1536
19607SOL    HW163378   5.411   3.939   7.209  0.2047  1.2209  0.0829
19607SOL    HW263379   5.471   4.077   7.188  1.9159  0.2528 -1.7610
19608SOL     OW63380   4.323  11.090   9.222  0.0928  0.2778 -0.1991
19608SOL    HW163381   4.414  11.065   9.207 -0.4026 -1.7579 -0.0710
19608SOL    HW263382   4.285  11.016   9.269 -2.1715  0.1070 -2.1127
19609SOL     OW63383   7.221   9.109   1.736  0.1395 -0.2258  0.4982
19609SOL    HW163384   7.277   9.125   1.812  0.7461 -0.5589  0.1290
19609SOL    HW263385   7.247   9.176   1.673 -0.4092  0.0921  0.6040
19610SOL     OW63386   3.173   8.079  12.041  0.1568 -0.1765 -0.6083
19610SOL    HW163387   3.144   7.998  12.083 -1.3697  0.5766 -0.1144
19610SOL    HW263388   3.137   8.074  11.952  0.5806 -0.2998 -0.7763
19611SOL     OW63389  10.069   8.877   9.614  0.6043  0.1481  0.1548
19611SOL    HW163390  10.046   8.835   9.531  0.5630 -0.5115  0.4924
19611SOL    HW263391  10.164   8.866   9.622  0.4866 -0.6209  0.6300
19612SOL     OW63392   6.651   9.366   7.963 -0.6747  0.0067  0.2743
19612SOL    HW163393   6.681   9.345   8.051  2.2957  0.0107 -0.6333
19612SOL    HW263394   6.638   9.461   7.964 -0.3813  0.0456  0.6356
19613SOL     OW63395   8.175   5.432   5.237 -0.2501  0.5689  0.2800
19613SOL    HW163396   8.117   5.470   5.303  0.2983  1.4122  0.3005
19613SOL    HW263397   8.244   5.389   5.287  0.7457  2.1146  0.2944
19614SOL     OW63398   7.849   7.188  12.058  0.1820  0.0582 -0.3620
19614SOL    HW163399   7.809   7.169  11.974  0.1483 -0.2881 -0.2698
19614SOL    HW263400   7.788   7.153  12.123  1.0197 -1.2319 -0.2447
19615SOL     OW63401   7.377   9.325   5.289 -0.2484  0.2379  0.0349
19615SOL    HW163402   7.303   9.387   5.289  0.6272  1.3211  0.0644
19615SOL    HW263403   7.344   9.249   5.337 -1.5568  0.4256 -0.5116
19616SOL     OW63404   1.149   1.982   8.100 -0.5261  0.2894  0.1455
19616SOL    HW163405   1.086   1.971   8.029  0.8737 -3.7694 -0.7544
19616SOL    HW263406   1.227   2.017   8.058 -0.0830 -1.0273 -0.2038
19617SOL     OW63407   6.516   0.519   9.624 -0.1514  0.4518 -0.3606
19617SOL    HW163408   6.432   0.555   9.652 -0.1137 -0.3664  0.8881
19617SOL    HW263409   6.502   0.424   9.624  0.2389  0.3819 -1.9455
19618SOL     OW63410   0.816   3.113   3.957  0.0975 -0.1082  0.4949
19618SOL    HW163411   0.834   3.192   4.009 -1.5572  0.2596  0.5910
19618SOL    HW263412   0.729   3.129   3.919  0.2710 -1.3628 -0.5124
19619SOL     OW63413   3.646  11.442   3.053 -0.1334  0.7881 -0.0090
19619SOL    HW163414   3.596  11.372   3.096 -0.8063  1.4247  0.2638
19619SOL    HW263415   3.666  11.504   3.123  1.4186  0.3554 -0.0259
19620SOL     OW63416   7.220   1.697   6.667  0.2456 -0.1430 -0.4646
19620SOL    HW163417   7.158   1.680   6.596 -0.3756  1.8474 -0.4558
19620SOL    HW263418   7.184   1.650   6.742 -0.2840 -0.4648 -0.9100
19621SOL     OW63419   1.860   2.146  11.622 -0.0308 -0.1611  0.4312
19621SOL    HW163420   1.879   2.234  11.592 -0.9350  0.0645  0.5020
19621SOL    HW263421   1.894   2.089  11.553 -1.1433  0.3095 -0.5303
19622SOL     OW63422   1.399   4.732   5.107 -0.5245  0.8539 -0.2561
19622SOL    HW163423   1.396   4.701   5.017 -1.4008 -0.3318  0.1695
19622SOL    HW263424   1.312   4.768   5.123 -0.5078  0.6659  0.2602
19623SOL     OW63425   1.433   5.474   8.940 -0.0368  0.1428  0.1044
19623SOL    HW163426   1.521   5.438   8.934 -0.0256  0.1859 -0.0007
19623SOL    HW263427   1.376   5.404   8.910 -0.1537 -0.3458  1.3985
19624SOL     OW63428   0.326   5.935   7.566 -0.4273  0.0087 -0.0654
19624SOL    HW163429   0.295   5.911   7.479  0.1432 -0.3089 -0.1834
19624SOL    HW263430   0.370   6.019   7.554 -3.2335  1.7085  0.5053
19625SOL     OW63431  10.701   1.466   2.502 -0.2722  0.4868 -0.1004
19625SOL    HW163432  10.658   1.486   2.418  1.0062  2.3819 -0.3680
19625SOL    HW263433  10.770   1.404   2.479  0.6193  1.6349 -0.6525
19626SOL     OW63434   7.473   1.904   7.474 -0.3877 -0.1461 -0.0071
19626SOL    HW163435   7.522   1.822   7.469  1.0364  0.6791  0.0415
19626SOL    HW263436   7.417   1.893   7.551  1.3012 -0.2889  1.2541
19627SOL     OW63437   1.096   0.069   6.813  0.3847 -0.3985 -0.7030
19627SOL    HW163438   1.181   0.033   6.790  0.4724 -0.8400  0.2883
19627SOL    HW263439   1.110   0.116   6.895 -0.0221  0.7741 -1.2813
19628SOL     OW63440   4.507   9.180  11.384  0.3305 -0.1845  0.2936
19628SOL    HW163441   4.568   9.107  11.381  1.3145  0.6548 -1.1556
19628SOL    HW263442   4.455   9.172  11.304 -0.4521 -0.0334  0.7752
19629SOL     OW63443   6.808   6.364   5.598  0.2364  0.1092  0.6764
19629SOL    HW163444   6.838   6.400   5.681  0.2476  1.4032  0.1323
19629SOL    HW263445   6.732   6.310   5.621 -0.0958  0.8987  1.4548
19630SOL     OW63446   1.421   2.754   8.440 -0.0359  0.4951 -0.5429
19630SOL    HW163447   1.345   2.712   8.401 -0.4085  1.4561 -0.8932
19630SOL    HW263448   1.425   2.840   8.397  1.6352  0.2129 -0.9983
19631SOL     OW63449   5.265   2.166   4.180  0.2123 -0.2077 -0.1714
19631SOL    HW163450   5.318   2.235   4.220 -1.5937  1.0359  0.1768
19631SOL    HW263451   5.264   2.096   4.245 -1.0616  1.0039  1.1730
19632SOL     OW63452   0.153   8.535   8.601 -0.1239  0.1485 -0.6870
19632SOL    HW163453   0.131   8.444   8.621  1.4408 -0.0272  0.4715
19632SOL    HW263454   0.103   8.586   8.665  0.6557 -0.0624  0.1143
19633SOL     OW63455   0.627   5.836   1.338  0.8508 -0.0141  0.1027
19633SOL    HW163456   0.595   5.779   1.408 -0.2758 -0.1601 -0.4979
19633SOL    HW263457   0.640   5.777   1.264  0.4222  0.3920 -0.2992
19634SOL     OW63458   4.628   4.668   4.996 -0.4353 -0.3261  0.0931
19634SOL    HW163459   4.719   4.648   4.974 -0.0114  0.6589  0.8588
19634SOL    HW263460   4.579   4.650   4.916  0.4711 -0.5823 -0.4172
19635SOL     OW63461   2.909  10.010   6.951  0.2499  0.3268 -0.2730
19635SOL    HW163462   2.986   9.993   6.898  0.2131  1.9080 -0.8695
19635SOL    HW263463   2.840   9.956   6.911  0.6750  0.0792 -0.6800
19636SOL     OW63464   8.131   1.851   9.354 -0.1295  0.3322 -0.1530
19636SOL    HW163465   8.098   1.782   9.296 -0.3837 -0.1375  0.5346
19636SOL    HW263466   8.088   1.835   9.438  0.2188  1.0109  0.1674
19637SOL     OW63467  11.339  12.019   3.121 -0.5207 -0.3656  0.3029
19637SOL    HW163468  11.413  11.960   3.129 -1.9782 -2.2227  0.8441
19637SOL    HW263469  11.313  12.037   3.211 -0.3529  0.8034  0.1357
19638SOL     OW63470   9.638   5.259  12.091  0.2371 -0.5634  0.2821
19638SOL    HW163471   9.619   5.213  12.173 -2.4396 -0.0565  0.0513
19638SOL    HW263472   9.721   5.222  12.061  0.9366 -1.2634  2.8383
19639SOL     OW63473   2.070   0.012   6.972 -0.4948 -0.3171 -0.2493
19639SOL    HW163474   2.039   0.101   6.988 -0.1842  0.1510 -2.0377
19639SOL    HW263475   1.998  -0.045   7.001 -1.3596  0.5805 -0.6010
19640SOL     OW63476   7.290  10.651   9.836  0.3093 -0.1989  0.3426
19640SOL    HW163477   7.339  10.654   9.753  1.1829  1.0619  0.8689
19640SOL    HW263478   7.279  10.558   9.854  1.4413 -0.5081 -0.4383
19641SOL     OW63479   9.820   5.754   0.763  0.7911  0.4651  0.2339
19641SOL    HW163480   9.782   5.701   0.832 -3.1315  0.6733 -1.5167
19641SOL    HW263481   9.780   5.722   0.682  1.1753  3.5209 -1.3349
19642SOL     OW63482   3.142   7.685   0.862  0.2649  0.2936  0.5896
19642SOL    HW163483   3.130   7.650   0.951 -0.0177  2.8732  1.6486
19642SOL    HW263484   3.090   7.765   0.861 -0.8677 -0.3610 -2.4134
19643SOL     OW63485   1.295   7.656   8.387 -0.2230  0.0906  0.4184
19643SOL    HW163486   1.283   7.743   8.351  2.0232  0.3708  0.2113
19643SOL    HW263487   1.367   7.618   8.335 -0.5395 -1.5295  1.0973
19644SOL     OW63488   4.075   0.993  11.010 -0.1236  0.4576  0.2218
19644SOL    HW163489   4.024   1.005  10.930  1.6904  0.4209 -0.9959
19644SOL    HW263490   4.083   1.082  11.046 -0.7015  0.5149  0.2252
19645SOL     OW63491   8.140   8.525   3.202  0.0790 -0.5060 -0.4200
19645SOL    HW163492   8.148   8.611   3.161 -0.1298 -0.3252 -0.0852
19645SOL    HW263493   8.078   8.477   3.148  1.6685 -1.1456 -1.7620
19646SOL     OW63494   6.315   3.985  11.951 -0.0608 -0.0050 -0.3518
19646SOL    HW163495   6.281   3.992  11.862  0.1393 -0.5651 -0.4765
19646SOL    HW263496   6.369   3.906  11.950 -0.4608 -0.2916  0.4014
19647SOL     OW63497   2.619   0.724   6.560  0.3032 -0.5580  0.0572
19647SOL    HW163498   2.675   0.797   6.586  0.2176 -0.7456  0.7845
19647SOL    HW263499   2.529   0.756   6.574  0.2129 -0.2589 -1.0997
19648SOL     OW63500   0.817   2.958   2.318 -0.1428  0.2035 -0.3516
19648SOL    HW163501   0.752   2.933   2.252 -1.0270  1.4928 -0.0008
19648SOL    HW263502   0.889   2.996   2.267 -0.4927  0.5045 -0.6241
19649SOL     OW63503   7.129   8.407   4.999 -0.2964  0.4645 -0.2573
19649SOL    HW163504   7.069   8.343   5.038 -0.3046  0.1374 -0.7961
19649SOL    HW263505   7.086   8.434   4.917 -0.4878  1.4647  0.1522
19650SOL     OW63506  10.008   7.157   1.659 -0.6854  0.0885  0.0735
19650SOL    HW163507  10.063   7.201   1.724  1.7445  1.7193 -2.8154
19650SOL    HW263508  10.025   7.064   1.672  0.9950  0.4505  0.7992
19651SOL     OW63509   1.186   8.076   2.108 -0.2024 -0.4409 -0.1395
19651SOL    HW163510   1.263   8.133   2.097  0.9394 -1.8770  0.1282
19651SOL    HW263511   1.196   8.009   2.041 -0.0874 -1.8417  1.2360
19652SOL     OW63512   3.714   9.490   9.011 -0.3442 -0.2941  0.0431
19652SOL    HW163513   3.746   9.428   8.946 -0.2268 -0.0866 -0.0990
19652SOL    HW263514   3.627   9.516   8.980 -0.6108 -0.7707  0.3694
19653SOL     OW63515   9.554   9.664   4.871 -0.3003 -0.5026  0.8475
19653SOL    HW163516   9.619   9.722   4.911 -0.0721 -0.7720  0.8691
19653SOL    HW263517   9.575   9.577   4.906  0.1606 -0.8202 -0.1776
19654SOL     OW63518   8.451   4.440   8.361 -0.0439  0.4437  0.1283
19654SOL    HW163519   8.502   4.451   8.441  0.6396  0.0718 -0.2466
19654SOL    HW263520   8.449   4.527   8.321  3.4059 -0.1288 -1.6832
19655SOL     OW63521  11.466   1.788   0.434  0.0730 -0.0813  0.6693
19655SOL    HW163522  11.501   1.764   0.520  0.7633 -1.0743  0.1364
19655SOL    HW263523  11.379   1.749   0.431  0.5975 -1.2731  0.3966
19656SOL     OW63524   2.286   4.637   8.757 -0.0060 -0.2258 -0.1010
19656SOL    HW163525   2.233   4.558   8.760  0.2178 -0.5491 -2.6642
19656SOL    HW263526   2.376   4.605   8.746  0.2563  0.3904  0.1826
19657SOL     OW63527   0.701   9.328   5.764  0.2435 -0.6870  0.3753
19657SOL    HW163528   0.626   9.372   5.724 -0.4365 -1.5971  0.6160
19657SOL    HW263529   0.723   9.257   5.704  0.2622 -1.0478  0.8038
19658SOL     OW63530   8.548   5.142   3.172  0.5124 -0.5955 -0.3967
19658SOL    HW163531   8.538   5.122   3.079  0.7953 -0.1826 -0.5209
19658SOL    HW263532   8.459   5.134   3.208  0.0215  1.1588 -1.1060
19659SOL     OW63533   6.886   6.196   2.860  0.3179 -0.0848  0.1571
19659SOL    HW163534   6.935   6.265   2.815  0.6212 -0.0154  0.5789
19659SOL    HW263535   6.796   6.206   2.830  0.5373 -0.1454 -0.5525
19660SOL     OW63536   7.461   9.877   7.917  0.1641 -0.3362 -0.1760
19660SOL    HW163537   7.489   9.958   7.874 -0.7898  0.2292  0.2532
19660SOL    HW263538   7.450   9.814   7.845 -2.4997  0.9077 -0.9514
19661SOL     OW63539   8.846   1.530  11.673 -0.2992  0.0434 -0.1217
19661SOL    HW163540   8.893   1.612  11.689 -0.7921  0.4831 -0.8490
19661SOL    HW263541   8.880   1.469  11.739 -0.2239  0.9521  0.7092
19662SOL     OW63542   8.984   2.288   9.670  0.4265  0.1775 -0.2679
19662SOL    HW163543   8.953   2.287   9.579 -0.1373  0.9404 -0.0915
19662SOL    HW263544   8.929   2.353   9.714  0.2625 -0.6460  0.7844
19663SOL     OW63545  11.399   3.688   3.793 -0.9265 -0.0607 -0.8269
19663SOL    HW163546  11.400   3.647   3.707 -2.4059  0.9072 -1.3400
19663SOL    HW263547  11.408   3.782   3.776 -2.0106  0.2132 -0.0022
19664SOL     OW63548   9.140   5.807   6.337 -0.6532  0.0158  0.1557
19664SOL    HW163549   9.173   5.760   6.261  0.0249  0.0284  0.4408
19664SOL    HW263550   9.162   5.751   6.412  0.1781  0.7792  0.4969
19665SOL     OW63551  10.587  11.432  11.292  0.7609 -0.2130  0.2993
19665SOL    HW163552  10.525  11.375  11.338  0.5652 -0.7939 -0.6561
19665SOL    HW263553  10.532  11.488  11.237  1.0640 -2.1101 -2.1482
19666SOL     OW63554   9.262   0.649   3.877 -0.2827 -0.3598  0.4014
19666SOL    HW163555   9.234   0.599   3.954 -0.4515 -0.4535  0.2814
19666SOL    HW263556   9.207   0.616   3.806  0.5536 -0.9795  0.0240
19667SOL     OW63557   1.772   2.366  10.978 -0.4040  0.0400 -0.2672
19667SOL    HW163558   1.732   2.320  10.904  0.4531 -1.1137 -0.0434
19667SOL    HW263559   1.738   2.322  11.056  1.5405 -1.2688 -0.0767
19668SOL     OW63560   1.387   8.286   1.595  0.1798 -0.0517  0.3451
19668SOL    HW163561   1.428   8.212   1.639  3.1160 -0.6781 -2.9742
19668SOL    HW263562   1.353   8.250   1.513 -0.6358  1.8292 -0.2105
19669SOL     OW63563  11.685   4.901   6.614  0.0994 -0.5461 -0.5329
19669SOL    HW163564  11.697   4.879   6.707  1.0920  1.1942 -0.2039
19669SOL    HW263565  11.595   4.875   6.595 -0.4901  0.0194  1.2274
19670SOL     OW63566  10.521   5.475   2.467  0.5550  0.1315 -0.6352
19670SOL    HW163567  10.581   5.402   2.485  0.3686  0.1224 -0.0263
19670SOL    HW263568  10.511   5.475   2.372 -0.7160 -1.6981 -0.5597
19671SOL     OW63569  11.962   1.205   2.964 -0.4909 -0.3565 -0.1769
19671SOL    HW163570  11.997   1.258   3.036 -1.1392 -0.0803 -0.0502
19671SOL    HW263571  12.002   1.242   2.886  0.5269 -0.9170  0.0700
19672SOL     OW63572   2.854  10.863   8.654 -0.2329 -0.6662  0.3449
19672SOL    HW163573   2.776  10.917   8.639  0.1415 -0.5154 -1.1889
19672SOL    HW263574   2.833  10.813   8.733 -1.0675  0.8404  1.1247
19673SOL     OW63575   5.367  10.448   4.550  0.3721 -0.2622  0.1903
19673SOL    HW163576   5.409  10.530   4.577  2.0963 -1.5947  1.8905
19673SOL    HW263577   5.438  10.396   4.512 -0.6458 -1.0527 -0.6987
19674SOL     OW63578   3.779   6.825   6.782  0.8870  0.7081 -0.0833
19674SOL    HW163579   3.736   6.870   6.855  2.0777  0.5310  0.7679
19674SOL    HW263580   3.838   6.891   6.745  1.1562  0.4447 -0.1257
19675SOL     OW63581  10.652   2.162   3.255  0.4844 -0.1054 -0.0087
19675SOL    HW163582  10.671   2.211   3.175 -1.4650  0.2824 -0.2943
19675SOL    HW263583  10.610   2.082   3.224 -1.4474  0.6081  0.6223
19676SOL     OW63584  11.036   4.040   2.933 -0.2814 -0.3515  0.7362
19676SOL    HW163585  10.972   3.968   2.934 -1.0408  0.3011 -0.1570
19676SOL    HW263586  11.001   4.102   2.870  3.2421 -1.7830 -3.0362
19677SOL     OW63587  10.897   3.005   2.425  0.2181 -0.1859  0.2622
19677SOL    HW163588  10.851   3.025   2.506  1.5714  0.2174  0.9615
19677SOL    HW263589  10.972   2.952   2.453  0.9560  0.3430 -0.6575
19678SOL     OW63590   7.028   5.361  11.263  1.2425 -0.8520  0.7156
19678SOL    HW163591   6.956   5.322  11.214  0.7498  2.3110 -1.3677
19678SOL    HW263592   7.106   5.343  11.211  1.3524 -0.8835  0.8895
19679SOL     OW63593   0.980   5.371   1.817 -0.3291  0.4584 -0.1261
19679SOL    HW163594   1.039   5.356   1.891 -0.7900 -1.5689 -0.1355
19679SOL    HW263595   0.952   5.462   1.828  0.3553  0.4963  1.6362
19680SOL     OW63596   6.991   3.523   7.818 -0.2307  0.7114 -0.0089
19680SOL    HW163597   6.966   3.608   7.855  2.3924  1.7117 -0.2820
19680SOL    HW263598   6.982   3.462   7.891 -1.1056  1.4126  0.5004
19681SOL     OW63599   1.969  10.110   5.972 -0.3719 -0.4245 -0.0826
19681SOL    HW163600   1.888  10.159   5.984 -0.1791  0.0026 -0.4725
19681SOL    HW263601   2.037  10.177   5.965 -0.2611 -0.6624 -1.8567
19682SOL     OW63602   9.068  10.515   3.886  0.1986  0.2149 -0.2321
19682SOL    HW163603   9.068  10.607   3.911 -0.2522  0.2320 -0.2830
19682SOL    HW263604   8.986  10.480   3.922  0.6962 -0.3340  0.3889
19683SOL     OW63605   2.005  11.649   2.683  0.1909  0.0712  0.3730
19683SOL    HW163606   1.995  11.566   2.730 -1.1362  0.2951  0.5166
19683SOL    HW263607   2.086  11.638   2.633  1.0859 -0.5513  1.9118
19684SOL     OW63608  10.109   9.495   9.618 -0.3679 -0.1412  0.5027
19684SOL    HW163609  10.066   9.423   9.572 -1.4622 -0.4149  1.8727
19684SOL    HW263610  10.177   9.452   9.670  1.0618  0.1986 -1.0043
19685SOL     OW63611  11.759   9.479   1.021 -0.3548 -0.0166  0.1009
19685SOL    HW163612  11.777   9.401   0.969  1.3787  0.6838 -0.4402
19685SOL    HW263613  11.835   9.536   1.005  0.9561 -0.2374  4.2604
19686SOL     OW63614   5.561  11.887   7.807  0.4359  0.0887  0.0134
19686SOL    HW163615   5.511  11.945   7.750  0.0836 -1.2223 -1.0482
19686SOL    HW263616   5.588  11.943   7.880  0.0662  1.5609 -0.9395
19687SOL     OW63617  10.219   7.307  11.661  0.0956 -0.3619  0.2327
19687SOL    HW163618  10.278   7.235  11.636  0.6031  0.1790 -0.1307
19687SOL    HW263619  10.194   7.348  11.578 -0.3950 -0.2684  0.4218
19688SOL     OW63620   0.995   9.326   6.470  0.7356  0.2777 -0.1991
19688SOL    HW163621   0.980   9.273   6.392  1.7089  1.0980 -0.9638
19688SOL    HW263622   1.086   9.307   6.495  1.0518  1.4576 -0.3984
19689SOL     OW63623   9.313   2.800   7.249  0.3179 -0.3789  0.3851
19689SOL    HW163624   9.342   2.713   7.276 -0.9656 -0.8062  0.4452
19689SOL    HW263625   9.228   2.785   7.207 -0.8552  1.0342  2.0975
19690SOL     OW63626   6.079   0.090   9.425 -0.0274  0.2818  0.0292
19690SOL    HW163627   6.121   0.154   9.482 -1.3137  2.1974 -1.0585
19690SOL    HW263628   6.150   0.032   9.398  1.4118  1.8386  0.2826
19691SOL     OW63629   0.724   7.114   6.835 -0.6391 -0.3582  0.3186
19691SOL    HW163630   0.741   7.025   6.806  1.3211 -0.4587  1.5811
19691SOL    HW263631   0.755   7.169   6.763  1.0235 -0.6705  0.7497
19692SOL     OW63632  10.868   6.439  11.788 -0.6380  0.3341  0.2861
19692SOL    HW163633  10.904   6.389  11.716  0.0772  0.4759  0.5406
19692SOL    HW263634  10.870   6.380  11.863  1.4689  1.1225  0.9214
19693SOL     OW63635   6.122   5.697   5.373  0.6433  0.3138  0.1108
19693SOL    HW163636   6.073   5.745   5.306 -0.0978  0.4435  0.7279
19693SOL    HW263637   6.131   5.759   5.445  0.2621 -0.2551  0.6553
19694SOL     OW63638   4.830   7.440   2.165  0.4688 -0.3369  0.0455
19694SOL    HW163639   4.808   7.507   2.100  0.4999  1.2832  1.6543
19694SOL    HW263640   4.755   7.438   2.225  1.6807  0.3407  1.6490
19695SOL     OW63641   1.738   4.313   0.823  0.3018  0.1933 -0.4995
19695SOL    HW163642   1.794   4.387   0.800  1.1053 -0.2880 -0.1055
19695SOL    HW263643   1.657   4.354   0.854  1.0022  0.9386  0.4258
19696SOL     OW63644   4.648   9.962   0.388 -0.5821  0.7307  1.0711
19696SOL    HW163645   4.649   9.987   0.295  2.4455  1.4608  1.2028
19696SOL    HW263646   4.640   9.867   0.387  0.9151  0.5774 -0.0559
19697SOL     OW63647   6.888   2.100  10.517 -0.3808 -0.2998 -0.4985
19697SOL    HW163648   6.898   2.009  10.546 -1.2245 -0.7170 -1.4696
19697SOL    HW263649   6.826   2.096  10.444 -1.9215  1.2911  0.6407
19698SOL     OW63650  11.801   9.032   2.465  0.5190  0.3192  0.0337
19698SOL    HW163651  11.850   9.083   2.401 -0.2340  0.4443 -0.4583
19698SOL    HW263652  11.847   8.948   2.470 -0.2624 -0.2739 -1.8282
19699SOL     OW63653   6.478   4.150  10.631 -0.0110 -0.0806  0.3228
19699SOL    HW163654   6.474   4.196  10.547 -0.9177 -1.5517 -0.4795
19699SOL    HW263655   6.571   4.151  10.654  0.4833 -0.8558 -1.4342
19700SOL     OW63656  11.000   9.656   4.288 -0.8369  0.0881 -0.0724
19700SOL    HW163657  10.981   9.749   4.299  2.2790  0.6769  1.9525
19700SOL    HW263658  11.049   9.633   4.368 -1.6000 -3.3371 -0.4552
19701SOL     OW63659  11.952   4.310   0.844 -0.3746 -0.4232 -0.1896
19701SOL    HW163660  12.020   4.258   0.885 -0.4023  0.1769  0.6501
19701SOL    HW263661  11.893   4.246   0.805  0.5206 -0.9527 -0.7034
19702SOL     OW63662   4.117   4.873   1.191  0.0903 -0.2446 -0.3642
19702SOL    HW163663   4.037   4.827   1.217  0.0003  0.1299  0.0236
19702SOL    HW263664   4.088   4.933   1.123  0.3243 -1.2165 -1.3580
19703SOL     OW63665   3.836   9.727  10.937 -0.1135 -0.1675 -0.4194
19703SOL    HW163666   3.763   9.711  10.877 -1.4003  0.1240  1.0105
19703SOL    HW263667   3.856   9.642  10.974 -0.6948 -0.0176  0.2482
19704SOL     OW63668   1.898   6.133   3.427  0.4660  0.1544 -0.3620
19704SOL    HW163669   1.916   6.192   3.354 -1.3247  0.2167 -0.7903
19704SOL    HW263670   1.893   6.046   3.387 -1.4085  0.2907 -0.5210
19705SOL     OW63671   2.019   9.151   5.742 -0.1536 -0.1241 -0.1916
19705SOL    HW163672   2.030   9.238   5.702 -0.9333 -0.5454 -1.3797
19705SOL    HW263673   2.107   9.116   5.748 -0.0151 -0.1334 -1.8170
19706SOL     OW63674   7.636   0.286   3.426 -0.2653 -0.0538 -0.6202
19706SOL    HW163675   7.659   0.328   3.344 -0.7292  0.9294 -0.2764
19706SOL    HW263676   7.543   0.265   3.417  0.2021 -2.0235 -1.1916
19707SOL     OW63677   7.823  10.624   6.526 -0.2238 -0.1790 -0.2418
19707SOL    HW163678   7.886  10.564   6.486  0.2294 -0.8902  1.4611
19707SOL    HW263679   7.741  10.608   6.478 -0.1085 -2.1574  0.1227
19708SOL     OW63680   4.356   8.287   3.120 -0.0351  0.3802  0.0326
19708SOL    HW163681   4.264   8.305   3.138 -0.2647  0.5248 -1.2034
19708SOL    HW263682   4.399   8.372   3.129  0.0374  0.2559  0.9134
19709SOL     OW63683   6.551   4.618   7.276  0.1925  0.4523  0.5662
19709SOL    HW163684   6.539   4.691   7.216 -0.6935 -0.2950 -0.2094
19709SOL    HW263685   6.534   4.540   7.223 -1.0215 -0.2216  1.8684
19710SOL     OW63686  11.942   9.259   2.966  0.5240  0.1015  0.8499
19710SOL    HW163687  11.935   9.287   3.058  0.2929  1.6001  0.4022
19710SOL    HW263688  11.880   9.187   2.958 -1.0422  1.3388  1.3771
19711SOL     OW63689   0.813   5.648  10.455 -0.1635 -0.0369 -0.4818
19711SOL    HW163690   0.770   5.688  10.379  1.4799  1.8019 -0.5260
19711SOL    HW263691   0.777   5.696  10.530  0.1342 -0.0467 -0.3321
19712SOL     OW63692   7.465   7.175   1.315  0.1719  0.7093  0.5553
19712SOL    HW163693   7.550   7.147   1.281  0.9671  1.4234  1.8649
19712SOL    HW263694   7.417   7.093   1.331  0.8070  0.2797  0.2966
19713SOL     OW63695   0.737   4.915   7.659  0.1498  0.2622  0.4369
19713SOL    HW163696   0.823   4.950   7.634  0.8301 -2.0662 -0.7882
19713SOL    HW263697   0.747   4.820   7.651 -2.3180 -0.1099  1.0671
19714SOL     OW63698   5.946  11.106   5.264 -0.5984 -0.0862  0.4060
19714SOL    HW163699   6.016  11.169   5.246 -0.8256 -0.3297 -1.5382
19714SOL    HW263700   5.882  11.156   5.314  0.5908  0.3559  1.5466
19715SOL     OW63701   2.498   8.420   8.077 -0.2429  0.0434 -0.0835
19715SOL    HW163702   2.437   8.482   8.117  0.0343  1.1898 -1.3896
19715SOL    HW263703   2.453   8.335   8.084 -1.2513  0.6064  0.4667
19716SOL     OW63704   9.013   8.194   4.686 -0.3999  0.4607  0.8032
19716SOL    HW163705   8.974   8.171   4.770 -0.5898  0.0470  0.6042
19716SOL    HW263706   9.066   8.119   4.662  1.8508  1.6291  1.8212
19717SOL     OW63707  10.229   5.892   5.146  0.3952 -0.1029  0.4716
19717SOL    HW163708  10.283   5.927   5.217  1.9564  1.2556 -1.3099
19717SOL    HW263709  10.199   5.969   5.098 -0.3034 -1.0197 -0.6058
19718SOL     OW63710   5.837   4.876   0.607 -0.0529  0.2032 -0.0699
19718SOL    HW163711   5.909   4.818   0.634  0.5771  0.5079 -1.0208
19718SOL    HW263712   5.850   4.888   0.513 -1.1490  0.5644 -0.1897
19719SOL     OW63713   7.430  12.002   8.645 -0.0028  0.1063 -0.3278
19719SOL    HW163714   7.351  11.957   8.672  0.7662 -0.6041  0.8142
19719SOL    HW263715   7.428  12.085   8.693  0.1378 -0.0829  0.0056
19720SOL     OW63716  11.991   1.237   8.836 -0.4602 -0.3552  0.5046
19720SOL    HW163717  11.963   1.161   8.784 -1.4269  0.1162  0.3123
19720SOL    HW263718  11.920   1.300   8.827  0.7539  1.0028 -0.1801
19721SOL     OW63719  10.770   3.270   1.003  0.3393  0.8602  0.0207
19721SOL    HW163720  10.723   3.279   0.920  1.4000  0.9402 -0.5924
19721SOL    HW263721  10.848   3.323   0.992  0.3056  1.1888  1.2349
19722SOL     OW63722   2.274   4.395   6.492 -0.3935 -0.3058  0.6220
19722SOL    HW163723   2.353   4.393   6.545  0.7348  3.3805 -0.6421
19722SOL    HW263724   2.206   4.429   6.550 -0.1116  0.0513  0.7487
19723SOL     OW63725   5.572   5.834   9.986  0.0840 -0.2102  1.0768
19723SOL    HW163726   5.572   5.905  10.050  1.2660  0.5400  0.2829
19723SOL    HW263727   5.658   5.839   9.944 -0.6640 -0.6424 -0.6033
19724SOL     OW63728   9.529   6.182   4.570 -0.0246 -0.1077  0.2156
19724SOL    HW163729   9.461   6.241   4.604  1.1910  0.6560  1.4076
19724SOL    HW263730   9.513   6.099   4.615 -1.2349 -0.4840 -0.8500
19725SOL     OW63731   9.065   5.368  11.317 -0.2245  0.3935  0.4680
19725SOL    HW163732   9.049   5.278  11.289  1.1082  0.1264  0.4829
19725SOL    HW263733   9.096   5.412  11.237  2.3461 -0.0472  1.1176
19726SOL     OW63734  10.637   5.389   9.410  0.1738  0.0547  0.1741
19726SOL    HW163735  10.639   5.473   9.365 -0.4864 -1.1904 -2.3677
19726SOL    HW263736  10.550   5.353   9.390  0.4434 -1.2557  1.1887
19727SOL     OW63737   6.003   9.898   2.493  0.1306  0.0946 -0.0635
19727SOL    HW163738   6.061   9.948   2.551 -1.3725  0.3080  1.3373
19727SOL    HW263739   5.957   9.838   2.553 -1.5658  0.3992 -1.0257
19728SOL     OW63740   9.460   2.228   6.069  0.0484  0.1165 -0.2911
19728SOL    HW163741   9.529   2.233   6.003 -0.1306  1.1052 -0.4209
19728SOL    HW263742   9.504   2.248   6.151 -0.1034  0.9325 -0.3985
19729SOL     OW63743   2.192   7.666   4.804 -0.1464 -0.2160  0.4702
19729SOL    HW163744   2.114   7.719   4.788  0.2312 -0.1360 -1.3787
19729SOL    HW263745   2.264   7.729   4.812  0.4302 -0.3285 -2.4842
19730SOL     OW63746   6.673  10.020   8.177  0.1386 -0.1543 -0.5256
19730SOL    HW163747   6.765  10.011   8.204  0.1312 -1.6236 -0.8948
19730SOL    HW263748   6.675  10.017   8.082 -0.3646 -1.2516 -0.5190
19731SOL     OW63749   0.537   2.416   9.158  0.4258  0.4145 -0.6947
19731SOL    HW163750   0.560   2.502   9.192 -0.3006 -0.6858  3.0098
19731SOL    HW263751   0.442   2.419   9.147  0.4309  0.1804 -0.8005
19732SOL     OW63752   3.220  10.089   1.147  0.0489 -0.2994  0.3590
19732SOL    HW163753   3.290  10.057   1.204  1.1455 -0.0424 -0.7671
19732SOL    HW263754   3.255  10.172   1.112 -1.9158  1.2128  1.7611
19733SOL     OW63755   6.267   1.234   5.176  0.1342  0.5065 -0.7341
19733SOL    HW163756   6.253   1.225   5.270 -1.5847  0.7782 -0.9238
19733SOL    HW263757   6.235   1.152   5.139  0.9346  0.3420 -1.0841
19734SOL     OW63758  11.525   1.966   2.016 -0.2792 -0.1169  0.5139
19734SOL    HW163759  11.480   1.889   1.982  0.5448 -0.4898  0.2435
19734SOL    HW263760  11.615   1.937   2.031  0.2559  0.9892 -0.3683
19735SOL     OW63761  10.852   9.719   8.131  0.4159  0.6428 -0.2829
19735SOL    HW163762  10.915   9.772   8.181 -0.3233  1.6611 -0.4119
19735SOL    HW263763  10.907   9.658   8.081  1.2595  0.9322  0.2631
19736SOL     OW63764   2.941   2.331   4.736 -0.0876  0.3529  0.4370
19736SOL    HW163765   2.934   2.349   4.642 -0.1230  1.8255  0.6925
19736SOL    HW263766   3.028   2.292   4.747  0.0570  0.5024 -0.1617
19737SOL     OW63767  11.425   6.002   5.253  0.1921  0.0581  0.2797
19737SOL    HW163768  11.494   6.033   5.312  0.1975 -0.7994  0.7382
19737SOL    HW263769  11.392   5.923   5.294  0.3565 -0.6962 -0.9713
19738SOL     OW63770   8.565   9.822   6.061  0.5552 -0.0906  1.0540
19738SOL    HW163771   8.633   9.854   6.002  0.2520 -0.0609  0.7162
19738SOL    HW263772   8.607   9.818   6.147  0.8687  0.2978  0.9202
19739SOL     OW63773   4.119   2.054   6.444 -0.4118  0.8672  0.2579
19739SOL    HW163774   4.205   2.095   6.447  0.7190 -1.1784 -1.6661
19739SOL    HW263775   4.078   2.087   6.364 -0.2336 -0.2989 -0.3317
19740SOL     OW63776  10.420   9.077   4.182  0.4689  0.1657  0.3510
19740SOL    HW163777  10.471   9.126   4.246  0.7195  0.8809 -0.3878
19740SOL    HW263778  10.361   9.023   4.235 -0.9661  2.4555  1.2152
19741SOL     OW63779   2.600   3.661   0.261  0.4210  0.0691  0.2748
19741SOL    HW163780   2.688   3.655   0.225  0.2715  1.4687 -0.3980
19741SOL    HW263781   2.543   3.660   0.185  0.0377  2.0499  0.4726
19742SOL     OW63782   5.696   0.690   0.154 -0.4411 -0.3419 -0.1752
19742SOL    HW163783   5.710   0.673   0.247  0.1093  0.5074 -0.0944
19742SOL    HW263784   5.626   0.630   0.129  0.9973 -2.3006  0.2199
19743SOL     OW63785   1.941   5.904   2.447  0.6406  0.3079  0.0915
19743SOL    HW163786   1.854   5.942   2.445  0.7230  0.5027  0.1552
19743SOL    HW263787   1.987   5.945   2.374  0.6500  0.1366  0.0005
19744SOL     OW63788   1.833   0.229   1.628 -0.8552  0.2232 -0.1887
19744SOL    HW163789   1.808   0.302   1.685  0.3108  0.2951  0.2694
19744SOL    HW263790   1.913   0.260   1.584 -0.3968 -0.7299 -0.0484
19745SOL     OW63791   5.609   5.141   9.298 -0.4821  0.5496  0.0804
19745SOL    HW163792   5.668   5.117   9.369  0.4034 -0.3990 -0.9470
19745SOL    HW263793   5.653   5.112   9.218 -2.6055 -0.7966 -0.6890
19746SOL     OW63794   2.342   7.387  10.734 -0.2282  0.5977 -0.5594
19746SOL    HW163795   2.374   7.434  10.657 -2.4916 -0.1578 -2.0539
19746SOL    HW263796   2.260   7.431  10.758  0.3083  0.6835  1.3410
19747SOL     OW63797   0.555   3.921  10.962 -0.1152  0.2049 -0.5797
19747SOL    HW163798   0.507   3.930  11.044  0.5447  0.5153 -0.2122
19747SOL    HW263799   0.504   3.972  10.899 -1.1542 -0.8404 -0.6110
19748SOL     OW63800   8.866   9.642  11.364  0.0705 -0.7286  0.3217
19748SOL    HW163801   8.929   9.633  11.435  0.4897  0.4036  0.1155
19748SOL    HW263802   8.798   9.578  11.383  0.7524 -1.2306  1.1168
19749SOL     OW63803   2.494   1.794   2.404 -1.0259  0.3721 -0.4592
19749SOL    HW163804   2.508   1.811   2.498 -3.1644  0.4485 -0.1030
19749SOL    HW263805   2.572   1.830   2.362  0.2370 -0.1086  1.3118
19750SOL     OW63806   9.046   0.819   8.783 -0.4179  0.1983 -0.6488
19750SOL    HW163807   9.044   0.814   8.687  1.3154 -0.7559 -0.6738
19750SOL    HW263808   9.093   0.740   8.810 -1.7464 -0.0704  1.0708
19751SOL     OW63809   4.627   2.324   2.315 -1.1100  0.8354 -0.0636
19751SOL    HW163810   4.553   2.335   2.255  0.1400  1.6986 -1.5139
19751SOL    HW263811   4.634   2.230   2.327 -1.5285  0.6611 -1.0941
19752SOL     OW63812  11.006  10.009   8.937  0.2553 -0.2155  0.5997
19752SOL    HW163813  11.062   9.959   8.997  0.1846 -0.9209  0.0947
19752SOL    HW263814  10.917   9.987   8.965  0.1564 -2.2133 -1.0110
19753SOL     OW63815   1.503   8.731   4.578  0.2842  0.2535  0.3891
19753SOL    HW163816   1.426   8.785   4.593 -1.1776 -1.1824 -1.4798
19753SOL    HW263817   1.519   8.688   4.662 -0.9058  0.6228  0.8276
19754SOL     OW63818   1.563   8.745   6.830 -0.1575  0.2378  0.0223
19754SOL    HW163819   1.548   8.724   6.738  2.4033 -2.8124  0.1195
19754SOL    HW263820   1.624   8.819   6.828 -1.4519  1.3330 -0.6230
19755SOL     OW63821   3.487   0.192   0.327 -0.1514  0.3620 -0.3283
19755SOL    HW163822   3.414   0.129   0.324 -0.0150  0.2318 -2.8144
19755SOL    HW263823   3.476   0.244   0.248  2.2790  0.5629 -0.5831
19756SOL     OW63824   9.217   3.563   6.413 -0.3977  0.1226  0.2075
19756SOL    HW163825   9.214   3.468   6.399 -0.3633  0.3432 -1.4912
19756SOL    HW263826   9.150   3.598   6.354 -0.4176  1.1681  0.8205
19757SOL     OW63827   8.543  11.620  12.064 -0.0980 -0.2309  0.1534
19757SOL    HW163828   8.594  11.690  12.023 -0.1767 -1.3871 -2.1303
19757SOL    HW263829   8.608  11.566  12.109  0.2756  0.0177 -0.0805
19758SOL     OW63830  10.054   2.529   2.904  0.0824 -0.4604  0.3344
19758SOL    HW163831  10.085   2.445   2.938  0.4482 -1.8285 -2.9969
19758SOL    HW263832  10.084   2.593   2.968  1.2887 -2.6984  2.1585
19759SOL     OW63833   5.853   4.976   2.867 -0.0225  0.1584  0.9318
19759SOL    HW163834   5.758   4.974   2.860 -0.1740  1.9898  1.6966
19759SOL    HW263835   5.878   4.887   2.889 -1.5932 -0.2869  1.0209
19760SOL     OW63836   5.630   3.795   7.090  0.7481 -0.0590  0.0200
19760SOL    HW163837   5.602   3.877   7.131 -1.3727  0.6827 -2.5845
19760SOL    HW263838   5.627   3.730   7.160 -2.8020  1.0722  1.1318
19761SOL     OW63839   0.003  10.366   3.791 -0.1439  0.2886 -0.2642
19761SOL    HW163840  -0.065  10.316   3.837  0.5099 -0.8259 -0.4803
19761SOL    HW263841   0.076  10.369   3.852  0.1934  0.0811 -0.6544
19762SOL     OW63842   7.623   3.914   7.339 -0.1974 -0.0105  0.1104
19762SOL    HW163843   7.681   3.841   7.317 -0.1790  0.0714 -0.1115
19762SOL    HW263844   7.586   3.890   7.424 -0.5995 -0.5379 -0.2061
19763SOL     OW63845   7.525   8.941   6.687 -0.5796  0.1092  0.3694
19763SOL    HW163846   7.605   8.968   6.733 -0.7127 -1.7329  1.7867
19763SOL    HW263847   7.556   8.909   6.603  0.1456 -0.3105  0.7897
19764SOL     OW63848   4.829   0.185   1.705 -0.1493  0.6046  0.2784
19764SOL    HW163849   4.885   0.234   1.645 -2.8933  2.1934 -1.1508
19764SOL    HW263850   4.781   0.124   1.649 -1.4469  0.8174  1.1179
19765SOL     OW63851  11.904   4.066  10.582 -0.6709 -0.0426 -0.2296
19765SOL    HW163852  11.928   3.989  10.530  0.3776  0.7037 -0.9090
19765SOL    HW263853  11.840   4.113  10.528 -0.0453  0.4122 -0.5953
19766SOL     OW63854  10.368  11.537   3.658  0.8245 -0.6185  0.6047
19766SOL    HW163855  10.389  11.477   3.729  0.3357  2.2768  3.4134
19766SOL    HW263856  10.443  11.596   3.653  1.3386 -1.3718 -2.1329
19767SOL     OW63857   0.818   1.217   4.724 -0.2979  0.3176  0.4162
19767SOL    HW163858   0.728   1.251   4.725 -0.2108  0.5971 -0.5158
19767SOL    HW263859   0.816   1.143   4.784 -0.6759  1.5166  1.9531
19768SOL     OW63860   3.568   2.452   8.539 -0.6768 -0.4495 -0.4054
19768SOL    HW163861   3.596   2.375   8.489  2.7819  0.2498  0.2423
19768SOL    HW263862   3.590   2.430   8.630  1.5907  1.6782 -0.3452
19769SOL     OW63863  10.154   9.576   2.989  0.3918 -0.2175 -0.6649
19769SOL    HW163864  10.118   9.612   3.070 -0.2498 -0.1461 -0.9801
19769SOL    HW263865  10.093   9.508   2.963  1.6479 -1.6510 -0.0248
19770SOL     OW63866   8.371  10.797   6.853 -0.1423 -0.6670  0.0964
19770SOL    HW163867   8.460  10.804   6.819 -0.4950 -1.1776 -0.9879
19770SOL    HW263868   8.366  10.864   6.921  1.5262 -1.6372  1.2489
19771SOL     OW63869   7.647   6.462   6.029  0.0832 -0.4878 -0.0132
19771SOL    HW163870   7.698   6.417   5.961  1.5887 -0.6998  1.2013
19771SOL    HW263871   7.698   6.450   6.109 -1.3113  0.3256  1.0394
19772SOL     OW63872   0.934   2.870   8.405  0.5450 -0.1692 -0.2429
19772SOL    HW163873   0.919   2.937   8.471  1.2582 -0.2374 -0.0067
19772SOL    HW263874   0.857   2.875   8.348 -0.8888 -1.1750  1.4835
19773SOL     OW63875   1.953   4.633   9.696 -0.1947 -0.3199 -0.0838
19773SOL    HW163876   2.029   4.675   9.736  1.0540 -1.9299 -0.6434
19773SOL    HW263877   1.892   4.705   9.680  0.4693  0.7919  1.9535
19774SOL     OW63878   5.326   3.610   9.893  0.1463  0.3005  0.3780
19774SOL    HW163879   5.338   3.687   9.838  0.7328 -0.9751 -1.3432
19774SOL    HW263880   5.232   3.593   9.891  0.3225 -0.6947 -1.6652
19775SOL     OW63881   8.971   0.482   8.708 -0.0863 -0.0266 -0.2718
19775SOL    HW163882   9.050   0.527   8.740  0.0902 -0.8290  0.4748
19775SOL    HW263883   8.899   0.543   8.728  0.3398  0.7435 -1.0251
19776SOL     OW63884   2.064   6.302   8.885 -0.4025  0.3283  0.2984
19776SOL    HW163885   2.090   6.379   8.834 -2.0916  0.2630 -0.7657
19776SOL    HW263886   2.130   6.236   8.865  0.6866  1.2768  0.6861
19777SOL     OW63887   6.661   2.929   0.267  0.2038 -0.3734 -0.0827
19777SOL    HW163888   6.577   2.909   0.225  0.4464 -3.1201  0.5252
19777SOL    HW263889   6.656   3.022   0.289 -2.9500 -0.5847  0.5393
19778SOL     OW63890   2.093   5.315   8.894 -0.5121 -0.4837 -0.2479
19778SOL    HW163891   2.046   5.280   8.969 -0.0511 -0.3316  0.1176
19778SOL    HW263892   2.030   5.372   8.850 -0.4874  0.2000  0.5849
19779SOL     OW63893   4.799   1.763   3.950  0.6380  0.2084 -0.1101
19779SOL    HW163894   4.730   1.740   3.888  0.8926 -0.8898 -0.0125
19779SOL    HW263895   4.824   1.852   3.926 -1.3487  0.9438  0.3750
19780SOL     OW63896  11.114   0.681   2.535  0.3643 -0.0159 -0.0676
19780SOL    HW163897  11.026   0.694   2.500  0.4591  0.0063 -0.2947
19780SOL    HW263898  11.102   0.684   2.630  0.1034 -0.1195 -0.0964
19781SOL     OW63899   8.982   5.066   5.306  0.4862  0.3191 -0.0525
19781SOL    HW163900   8.963   5.074   5.399 -3.2583 -0.5351 -0.5629
19781SOL    HW263901   9.038   4.989   5.299  0.9472  0.4946  1.4978
19782SOL     OW63902   3.681   5.892   4.000 -0.0245 -0.6996  0.1422
19782SOL    HW163903   3.651   5.902   3.909 -0.4676 -0.9048  0.2642
19782SOL    HW263904   3.657   5.803   4.024 -0.8190 -0.3246  0.7857
19783SOL     OW63905   9.073   2.239   0.510 -0.7326  0.0762 -0.6057
19783SOL    HW163906   9.144   2.232   0.445 -2.2451  1.1396 -2.4882
19783SOL    HW263907   9.111   2.292   0.580  0.0019  1.7254 -2.1588
19784SOL     OW63908   6.746   7.504   0.829  0.2818 -0.4442  0.5143
19784SOL    HW163909   6.724   7.566   0.899  0.1203 -0.2082  0.2533
19784SOL    HW263910   6.701   7.537   0.752  1.8922  0.3100 -0.1578
19785SOL     OW63911  10.838   1.722   6.234  0.3283  0.4788  0.4539
19785SOL    HW163912  10.877   1.639   6.261 -0.7319 -0.1025  0.2498
19785SOL    HW263913  10.902   1.760   6.173  0.4678 -0.5719 -0.0781
19786SOL     OW63914  10.713   4.954   9.820 -0.0131 -0.1215 -0.4779
19786SOL    HW163915  10.808   4.960   9.829  0.1588 -2.3087 -0.1817
19786SOL    HW263916  10.679   4.968   9.908  0.1251 -0.4830 -0.3665
19787SOL     OW63917   7.363   4.613   2.153  0.4682  0.0892  0.5138
19787SOL    HW163918   7.278   4.578   2.127 -0.1710  1.6598  0.3598
19787SOL    HW263919   7.359   4.617   2.248  0.9794 -1.2308  0.6168
19788SOL     OW63920   1.741   0.149   5.637  0.1986 -0.2523 -0.7218
19788SOL    HW163921   1.809   0.083   5.645 -2.4482 -3.0553  1.4367
19788SOL    HW263922   1.758   0.210   5.708  0.7907 -0.5877 -0.5715
19789SOL     OW63923   7.984   5.652   2.144  0.2879 -0.6546 -0.3154
19789SOL    HW163924   8.078   5.638   2.130  0.4317 -0.2302  0.2206
19789SOL    HW263925   7.958   5.580   2.201  0.3568 -0.5891 -0.2003
19790SOL     OW63926   6.528   0.128   9.834 -0.2001 -0.7334  0.3435
19790SOL    HW163927   6.597   0.141   9.899 -1.6266 -0.9841  1.9974
19790SOL    HW263928   6.449   0.111   9.886 -1.5612 -0.2652 -1.4511
19791SOL     OW63929  10.635   6.472   0.237  0.0105 -0.3306 -0.1268
19791SOL    HW163930  10.644   6.437   0.149  0.2305  0.1104 -0.2848
19791SOL    HW263931  10.581   6.550   0.227 -1.0308 -0.9721  0.3155
19792SOL     OW63932   0.940  11.156   6.410  0.2767 -0.2848  0.4703
19792SOL    HW163933   0.928  11.172   6.503 -1.4137  3.1943 -0.1830
19792SOL    HW263934   0.856  11.123   6.380  0.8180 -1.4071  0.1082
19793SOL     OW63935   3.472   3.012   5.962 -0.2078  0.9519 -0.3418
19793SOL    HW163936   3.452   3.062   6.042  1.4006  0.0031  0.7148
19793SOL    HW263937   3.470   2.921   5.990  0.4401  0.6125 -1.3642
19794SOL     OW63938   4.905   4.372   6.758  0.1501  0.7462  0.0697
19794SOL    HW163939   4.953   4.438   6.809  0.1832  2.1671 -1.6949
19794SOL    HW263940   4.968   4.302   6.745  0.5335  0.9139  0.9035
19795SOL     OW63941   0.524   5.515   2.293  0.1231  0.6127  0.3372
19795SOL    HW163942   0.585   5.493   2.223 -1.2095  0.0410 -0.6990
19795SOL    HW263943   0.516   5.610   2.290  1.3691  0.7594  0.8802
19796SOL     OW63944   6.328  11.696   2.550  0.0832 -0.1427  0.5213
19796SOL    HW163945   6.235  11.708   2.535  0.2475  0.4634 -0.0676
19796SOL    HW263946   6.341  11.601   2.552 -0.6164 -0.2311  1.1019
19797SOL     OW63947   1.635   5.965  10.758  0.1536  0.1438  0.4847
19797SOL    HW163948   1.669   5.893  10.704 -1.1585  1.9462 -3.0584
19797SOL    HW263949   1.540   5.962  10.744  0.0082  2.0635  0.8394
19798SOL     OW63950   8.289   1.124   8.530 -0.1870  0.1917  0.5558
19798SOL    HW163951   8.374   1.162   8.552  0.1891  0.6382 -1.4296
19798SOL    HW263952   8.310   1.054   8.468 -1.2328 -0.0769  0.4865
19799SOL     OW63953  11.279   7.734   8.321 -0.3759 -0.1446  0.4388
19799SOL    HW163954  11.300   7.792   8.248 -2.4130  0.0039 -0.0954
19799SOL    HW263955  11.324   7.653   8.302  1.3304  0.7609  0.4435
19800SOL     OW63956  11.789   0.800  11.462  0.0499 -0.1761 -0.4001
19800SOL    HW163957  11.716   0.832  11.515 -0.2473 -0.4237 -0.6508
19800SOL    HW263958  11.814   0.717  11.504  2.3135  1.3984  1.6269
19801SOL     OW63959   3.697   7.632   4.792  0.6923 -0.1505 -0.0051
19801SOL    HW163960   3.715   7.726   4.790  2.3155 -0.4384 -0.7568
19801SOL    HW263961   3.684   7.612   4.884  0.0236  0.8590  0.1306
19802SOL     OW63962  10.752   1.086   4.719  0.1455 -0.0339  0.1071
19802SOL    HW163963  10.681   1.132   4.764 -0.0114 -0.3780  0.2133
19802SOL    HW263964  10.752   0.998   4.757  0.8725  0.0704  0.3680
19803SOL     OW63965   5.851  11.837   4.881  0.0309  0.2518 -0.6963
19803SOL    HW163966   5.817  11.859   4.794  0.1986  2.3445 -0.2731
19803SOL    HW263967   5.825  11.911   4.936  0.7619 -0.5920  0.8299
19804SOL     OW63968  10.190   2.057   4.093 -0.3081 -0.6045 -0.3359
19804SOL    HW163969  10.120   2.035   4.155  0.0689  0.4289  0.4880
19804SOL    HW263970  10.271   2.045   4.143 -0.0397  1.5699 -0.1277
19805SOL     OW63971   9.517  10.627   0.229 -0.3131 -0.0982 -0.3205
19805SOL    HW163972   9.563  10.543   0.238 -0.7246 -0.1112  2.4241
19805SOL    HW263973   9.550  10.663   0.146 -0.0181 -2.8534 -1.5375
19806SOL     OW63974   7.217   3.429   6.233 -0.4255 -0.4382 -0.1031
19806SOL    HW163975   7.249   3.484   6.162 -2.3255 -0.2780 -0.8918
19806SOL    HW263976   7.296   3.392   6.272  0.6699 -1.5324 -3.0757
19807SOL     OW63977   8.183   8.810   4.111 -0.0911  0.2268 -0.3206
19807SOL    HW163978   8.274   8.834   4.127  0.3924 -0.6379 -1.6218
19807SOL    HW263979   8.162   8.849   4.026 -1.0664  0.7104  0.1165
19808SOL     OW63980   4.216   0.406   2.473  0.0493  0.0179  0.0175
19808SOL    HW163981   4.272   0.352   2.528  1.8986  0.9454 -0.8190
19808SOL    HW263982   4.199   0.485   2.525 -1.8954 -0.9344  0.8930
19809SOL     OW63983   0.912   6.156  10.522 -0.0167  0.3786  0.1160
19809SOL    HW163984   0.985   6.112  10.479  0.8162  2.0195 -0.1792
19809SOL    HW263985   0.946   6.181  10.608 -0.1320  1.3889 -0.1223
19810SOL     OW63986   3.780   9.118   2.257  0.3400  0.1101 -0.5009
19810SOL    HW163987   3.815   9.207   2.261  0.9219 -0.1301 -0.0981
19810SOL    HW263988   3.795   9.081   2.344  1.6383 -0.9398 -1.1249
19811SOL     OW63989  10.210   4.966   5.920  0.4358  0.1118 -0.0793
19811SOL    HW163990  10.155   5.044   5.934 -0.4550 -0.3157 -1.0752
19811SOL    HW263991  10.148   4.893   5.917  1.2021 -0.5589  0.1654
19812SOL     OW63992   2.129  11.940   9.109  0.2974 -0.0102  0.4784
19812SOL    HW163993   2.140  11.876   9.039  1.2012  1.0738 -0.4273
19812SOL    HW263994   2.176  11.904   9.183  0.3143 -0.6524  0.1606
19813SOL     OW63995   7.662   6.656   2.573  0.3772 -0.3587  0.6836
19813SOL    HW163996   7.725   6.645   2.501 -0.6809 -2.2901 -0.0471
19813SOL    HW263997   7.715   6.679   2.649  1.6327  0.8157 -0.4975
19814SOL     OW63998   6.655   8.175  10.212 -0.1179 -0.3678  0.6815
19814SOL    HW163999   6.628   8.127  10.133  0.2709 -0.0619  0.3636
19814SOL    HW264000   6.675   8.106  10.276 -3.1288 -0.6529  1.4742
19815SOL     OW64001   9.457   5.770   8.356 -0.4974  0.3409 -0.4818
19815SOL    HW164002   9.503   5.697   8.315 -1.2029 -0.1955 -0.3327
19815SOL    HW264003   9.399   5.804   8.288  0.3520  1.2440 -0.7816
19816SOL     OW64004   6.476   9.589   6.117 -0.4369 -0.2833  0.2676
19816SOL    HW164005   6.397   9.590   6.171  0.2160  0.9175  1.2581
19816SOL    HW264006   6.548   9.584   6.181  0.3179 -0.3303 -0.5663
19817SOL     OW64007   0.969   9.259   0.230  0.1038  0.3999  0.3747
19817SOL    HW164008   0.999   9.349   0.246 -1.2239  1.0501 -0.5572
19817SOL    HW264009   1.005   9.237   0.144 -3.3405  1.9057 -1.6811
19818SOL     OW64010  11.436   2.156   4.727  0.4312 -0.1515  0.1682
19818SOL    HW164011  11.491   2.078   4.741  2.5277  0.6594 -2.6803
19818SOL    HW264012  11.365   2.125   4.671 -0.2006 -0.5197  1.1553
19819SOL     OW64013  10.779   7.562   8.319 -0.3096  0.3877 -0.5709
19819SOL    HW164014  10.858   7.612   8.344 -0.1714  0.3897 -1.0078
19819SOL    HW264015  10.707   7.610   8.361  0.0428 -0.4724  1.1179
19820SOL     OW64016  10.222  11.426   8.672  0.0913  0.1282 -0.1771
19820SOL    HW164017  10.217  11.404   8.579 -0.5946  1.3859 -0.4475
19820SOL    HW264018  10.131  11.437   8.699  0.2678 -0.5119  0.7330
19821SOL     OW64019   0.563  11.534   0.026 -0.6440 -0.2032 -0.2973
19821SOL    HW164020   0.552  11.447  -0.014 -0.5094  0.6255 -2.2596
19821SOL    HW264021   0.651  11.531   0.063  0.4211 -0.1327 -2.6178
19822SOL     OW64022   3.214   4.456   5.346 -0.0652  0.2479  0.6617
19822SOL    HW164023   3.198   4.540   5.304 -0.3656  0.8273  1.9063
19822SOL    HW264024   3.221   4.476   5.439 -0.5664 -1.1690  1.0280
19823SOL     OW64025  11.114  10.974   6.224 -0.7713  0.6101  0.7394
19823SOL    HW164026  11.154  10.896   6.185 -0.3687  0.6464  1.0652
19823SOL    HW264027  11.161  11.047   6.184 -0.5534  0.6559  1.0718
19824SOL     OW64028  10.808  11.925   8.423  0.2283 -0.0178 -0.0829
19824SOL    HW164029  10.839  11.927   8.332  0.1629  0.5355 -0.0953
19824SOL    HW264030  10.887  11.929   8.476  0.3637 -1.6775 -0.0952
19825SOL     OW64031   3.039   7.980   4.994 -0.6802 -0.2193  0.5253
19825SOL    HW164032   2.985   8.048   4.951 -2.1735 -0.7755  1.4647
19825SOL    HW264033   3.004   7.898   4.960  0.5392 -0.5704  0.0799
19826SOL     OW64034   9.318   9.268   9.620  0.6253 -0.0501 -0.4196
19826SOL    HW164035   9.384   9.268   9.551  1.7489  0.5902  0.6021
19826SOL    HW264036   9.279   9.356   9.616 -1.3108 -0.8988 -2.0032
19827SOL     OW64037   6.564   1.584   2.864 -0.2085  0.6029  0.1416
19827SOL    HW164038   6.483   1.549   2.827  0.0026  0.3524 -0.0902
19827SOL    HW264039   6.633   1.548   2.808  0.0242  1.2794 -0.0235
19828SOL     OW64040   3.936   7.259   6.763 -0.0446 -0.3465  0.0003
19828SOL    HW164041   3.894   7.337   6.726 -0.9592 -0.6797  0.3146
19828SOL    HW264042   4.024   7.289   6.788 -0.8818  0.9929  1.5138
19829SOL     OW64043   7.873   4.358  10.909  0.0707 -0.5794 -0.2164
19829SOL    HW164044   7.816   4.345  10.833 -1.1938 -1.5498  0.8436
19829SOL    HW264045   7.862   4.450  10.932 -3.0331 -1.2012  1.3622
19830SOL     OW64046   0.246   0.945  12.023  0.1286  0.0414  0.1074
19830SOL    HW164047   0.157   0.979  12.021  0.3015  0.4814 -0.6183
19830SOL    HW264048   0.280   0.963  11.935  1.7647  2.1549  1.0597
19831SOL     OW64049   1.699   1.449   2.754 -0.6566 -0.4413  0.2969
19831SOL    HW164050   1.775   1.495   2.787 -0.9372  0.1748  0.0989
19831SOL    HW264051   1.723   1.356   2.759 -0.7270 -0.3997  2.3080
19832SOL     OW64052   4.253   6.241   4.637 -0.0767 -0.6508  0.3916
19832SOL    HW164053   4.176   6.271   4.588 -0.8917 -0.5967  1.6525
19832SOL    HW264054   4.258   6.301   4.712  0.1817 -1.6893  1.2191
19833SOL     OW64055   5.968  10.073  11.346 -0.1353 -0.1448 -0.2860
19833SOL    HW164056   5.946   9.985  11.314 -0.5810 -0.2055  0.1754
19833SOL    HW264057   5.887  10.105  11.385  0.5013 -0.2423  1.1818
19834SOL     OW64058   2.747  10.550  10.471  0.0669 -0.3380  0.4612
19834SOL    HW164059   2.746  10.545  10.375 -0.0798 -1.6204  0.5027
19834SOL    HW264060   2.735  10.642  10.491  0.9331  0.0710 -0.7752
19835SOL     OW64061  10.529   2.650   0.962  0.9450  0.2475  0.4064
19835SOL    HW164062  10.510   2.727   0.909  1.8716  0.5188  0.4446
19835SOL    HW264063  10.625   2.644   0.963  0.9002 -0.7087  0.6867
19836SOL     OW64064   4.023   2.086   2.635 -0.8372 -0.3939  0.7240
19836SOL    HW164065   3.991   2.064   2.723  0.9359  0.7664  1.7058
19836SOL    HW264066   3.982   2.170   2.615 -2.3859 -1.3337 -0.2184
19837SOL     OW64067  11.139   6.652   5.152 -0.2306  0.1480  0.0740
19837SOL    HW164068  11.100   6.638   5.065 -0.2582 -3.0795  0.4761
19837SOL    HW264069  11.213   6.592   5.155  0.2765  0.8089  2.0052
19838SOL     OW64070   1.211   9.255   3.864 -0.0630 -0.5082 -0.1966
19838SOL    HW164071   1.164   9.313   3.925  1.9751 -0.2016  1.2157
19838SOL    HW264072   1.191   9.167   3.895  2.0930 -0.3512  2.0302
19839SOL     OW64073   3.474  11.295  11.442 -0.2374  0.3490 -0.3683
19839SOL    HW164074   3.442  11.378  11.405  0.0114 -0.2763 -2.0612
19839SOL    HW264075   3.567  11.309  11.455 -0.1254  0.2250 -1.0065
19840SOL     OW64076   6.065   2.266   6.813  0.0845  0.1244 -0.0546
19840SOL    HW164077   5.979   2.230   6.832  0.3209  0.9000  3.1174
19840SOL    HW264078   6.061   2.356   6.845  2.0878  0.1218  0.3440
19841SOL     OW64079  10.758   3.617   8.123  0.4067 -0.1251 -0.5336
19841SOL    HW164080  10.813   3.681   8.169 -0.4171  1.6556 -1.8712
19841SOL    HW264081  10.686   3.669   8.087 -2.0603 -2.3022  0.8985
19842SOL     OW64082  11.671   8.034   1.707  0.0682 -0.4051  0.5227
19842SOL    HW164083  11.682   8.006   1.616  1.2282  0.2279  0.4529
19842SOL    HW264084  11.691   7.956   1.759  1.7193 -0.1811  0.2836
19843SOL     OW64085   2.866   0.974   1.717  0.2220 -0.0504  0.0172
19843SOL    HW164086   2.951   0.950   1.754 -0.0843 -2.3426 -0.6415
19843SOL    HW264087   2.874   1.068   1.699  2.0073  0.1559  1.4933
19844SOL     OW64088   1.960  11.550   1.395  0.0961  0.6652 -0.1458
19844SOL    HW164089   2.000  11.625   1.439 -0.0592  0.3092  0.6144
19844SOL    HW264090   1.939  11.490   1.465 -0.5944  0.2879 -0.6703
19845SOL     OW64091   6.180   2.598  11.959  0.0445 -0.4030 -0.1156
19845SOL    HW164092   6.159   2.516  12.003  2.0890 -0.4714  0.8440
19845SOL    HW264093   6.171   2.665  12.027  1.7522 -0.3192  0.0813
19846SOL     OW64094   3.982  10.498  11.863  0.6022 -0.3757  0.4295
19846SOL    HW164095   4.009  10.447  11.940  2.0292 -1.6593 -0.8655
19846SOL    HW264096   4.060  10.549  11.840  0.7997 -1.3266 -1.1630
19847SOL     OW64097   5.193   4.169   7.980 -0.2107 -0.0014  0.4997
19847SOL    HW164098   5.102   4.140   7.981 -0.2152 -0.2084 -1.5059
19847SOL    HW264099   5.188   4.264   7.994 -0.6944 -0.0518  0.6941
19848SOL     OW64100  10.158  10.756  11.627  0.0833 -0.2971 -0.6717
19848SOL    HW164101  10.086  10.707  11.667 -0.1384 -1.4701 -2.3496
19848SOL    HW264102  10.233  10.697  11.634  0.8936  0.8717  0.9601
19849SOL     OW64103   4.033  11.781   5.985 -1.0805 -0.4253  0.0369
19849SOL    HW164104   4.084  11.719   6.039 -1.7285  0.6254  1.9650
19849SOL    HW264105   4.098  11.844   5.953 -0.7899 -0.6090  0.2620
19850SOL     OW64106   5.273  12.110   4.895 -0.4021 -0.4136 -0.0308
19850SOL    HW164107   5.256  12.109   4.801  0.1769 -0.2791 -0.1414
19850SOL    HW264108   5.292  12.019   4.917  2.0118 -0.0954 -0.5414
19851SOL     OW64109   8.356   6.346   5.948  0.2477  0.2307 -0.5099
19851SOL    HW164110   8.394   6.398   6.019 -0.6189  0.5575 -0.2836
19851SOL    HW264111   8.354   6.257   5.983  0.9948  0.1707 -0.6031
19852SOL     OW64112   1.310   8.519   1.429 -0.0735  0.7813  0.9530
19852SOL    HW164113   1.340   8.596   1.381  1.6450 -0.8071 -0.6750
19852SOL    HW264114   1.343   8.532   1.518 -0.2611  2.1314  0.8499
19853SOL     OW64115   8.582   7.932   7.035  0.7345  0.1009  0.1369
19853SOL    HW164116   8.610   7.865   7.098 -0.2613  0.1786  0.6895
19853SOL    HW264117   8.562   7.883   6.955  1.3249 -0.0895  0.1033
19854SOL     OW64118  10.366  10.948  11.654 -0.1607 -0.2395  0.1398
19854SOL    HW164119  10.328  11.034  11.638  1.2900  0.0366 -2.2955
19854SOL    HW264120  10.291  10.888  11.653 -0.9853  0.7692  0.0247
19855SOL     OW64121  11.183  10.792   2.088 -0.2165 -0.1448  0.3128
19855SOL    HW164122  11.217  10.829   2.007 -1.4605  0.9240  0.2390
19855SOL    HW264123  11.220  10.704   2.093  0.7798  0.1977 -0.8244
19856SOL     OW64124   5.794  10.535   5.264 -0.8091 -0.3940 -0.2630
19856SOL    HW164125   5.749  10.565   5.185 -0.7651 -1.2667 -0.6355
19856SOL    HW264126   5.797  10.440   5.255  1.7493 -0.3411 -0.6146
19857SOL     OW64127   6.184   3.252  11.422 -0.5054 -0.1442  0.0361
19857SOL    HW164128   6.257   3.257  11.483 -0.6629 -1.2156  0.3427
19857SOL    HW264129   6.166   3.158  11.414 -1.4314  0.0635 -0.5291
19858SOL     OW64130   8.389   9.933   7.895  0.2446 -0.0756 -0.0145
19858SOL    HW164131   8.349  10.015   7.923 -2.3303 -0.9067 -0.9726
19858SOL    HW264132   8.403   9.884   7.976 -2.1133 -0.3175  0.3061
19859SOL     OW64133  11.767  11.393   3.537  0.0555 -0.2953 -0.0494
19859SOL    HW164134  11.848  11.369   3.582  0.2755 -0.3473 -0.4696
19859SOL    HW264135  11.761  11.331   3.465 -2.2371 -2.7159  2.0268
19860SOL     OW64136   8.005  11.046  10.071  0.6965  0.1773  0.1712
19860SOL    HW164137   7.988  11.064  10.164  1.8633  0.9340  0.2641
19860SOL    HW264138   8.000  11.132  10.029  1.8331  0.0951 -0.1707
19861SOL     OW64139  10.076  10.555  12.000  0.3773  0.2172  0.5010
19861SOL    HW164140  10.131  10.503  11.942 -0.1311  0.7178 -0.4622
19861SOL    HW264141  10.015  10.492  12.039  1.8177 -0.4057  1.8656
19862SOL     OW64142  11.583  10.786   3.713 -0.2745  0.6353  0.5027
19862SOL    HW164143  11.539  10.863   3.678  0.1935  0.0934 -1.4046
19862SOL    HW264144  11.674  10.812   3.725 -0.4108  0.7872  1.2541
19863SOL     OW64145   2.369   0.131   5.840 -1.0525  0.0293 -0.4455
19863SOL    HW164146   2.443   0.085   5.799 -0.0464  1.3448 -0.1880
19863SOL    HW264147   2.319   0.063   5.884  1.4118 -0.6278  1.5005
19864SOL     OW64148   8.363   8.501   4.357  0.3842  0.0042 -0.1722
19864SOL    HW164149   8.370   8.439   4.285  0.4734  0.9409 -0.9971
19864SOL    HW264150   8.282   8.549   4.340  0.7911  0.7501 -0.0856
19865SOL     OW64151   3.858   3.268  11.623 -0.1034 -0.2046 -0.6021
19865SOL    HW164152   3.792   3.269  11.554 -1.0803 -0.4728  0.3026
19865SOL    HW264153   3.879   3.360  11.637  2.0818 -0.2226 -3.0442
19866SOL     OW64154  12.045   3.142   0.007 -0.4239 -0.0300 -0.6252
19866SOL    HW164155  11.967   3.112   0.054  0.1485 -0.0255  0.3537
19866SOL    HW264156  12.059   3.231   0.039  2.3443 -1.3551  2.4736
19867SOL     OW64157   7.624   1.180   5.551 -0.5217  0.0686 -0.2066
19867SOL    HW164158   7.690   1.111   5.554 -1.3529 -0.7274  0.6880
19867SOL    HW264159   7.634   1.220   5.464 -0.3011 -1.4523 -0.9012
19868SOL     OW64160   9.953   6.314   4.899 -0.3403 -0.2632 -0.4977
19868SOL    HW164161   9.908   6.290   4.980 -0.7989 -1.4633 -1.0980
19868SOL    HW264162   9.967   6.232   4.853 -0.9636  0.4862 -2.1112
19869SOL     OW64163   3.499   5.993   9.145  0.5189  0.8904 -0.2435
19869SOL    HW164164   3.544   5.938   9.208 -1.1802  1.2471  1.3592
19869SOL    HW264165   3.483   5.935   9.070  1.1142 -0.0225  0.3205
19870SOL     OW64166   5.119   6.491   6.273  0.0233 -0.4002  0.6810
19870SOL    HW164167   5.155   6.467   6.188  0.5903 -1.0207  1.0816
19870SOL    HW264168   5.164   6.432   6.335 -0.7668 -0.3192  1.3389
19871SOL     OW64169   1.442  10.644   3.999  0.1049 -0.0755 -0.2347
19871SOL    HW164170   1.476  10.574   3.943  0.1948  0.6358 -1.0868
19871SOL    HW264171   1.368  10.679   3.950 -1.8855 -1.5603  1.5621
19872SOL     OW64172   1.186   8.655   8.246  0.0126 -0.6773  0.1625
19872SOL    HW164173   1.277   8.647   8.274  0.8173 -2.6661 -2.6201
19872SOL    HW264174   1.140   8.587   8.295 -0.1007  0.4930  1.7600
19873SOL     OW64175  11.508   1.460   1.735 -0.1840 -0.1746 -0.3050
19873SOL    HW164176  11.453   1.538   1.741  0.2728  0.0819  0.8999
19873SOL    HW264177  11.597   1.494   1.726 -0.1139 -0.5751 -1.1584
19874SOL     OW64178   3.411   1.087  10.247  0.5756  0.2390 -0.3751
19874SOL    HW164179   3.341   1.149  10.227  0.5206 -0.1345 -1.4358
19874SOL    HW264180   3.445   1.115  10.332 -1.7458 -0.3928  0.8158
19875SOL     OW64181   1.003   6.864   8.305 -0.3424 -0.8915  0.1239
19875SOL    HW164182   0.949   6.926   8.354  0.7554 -1.8977  2.7710
19875SOL    HW264183   1.061   6.919   8.252 -1.9646  0.2243 -0.6015
19876SOL     OW64184  10.979   1.796  11.268  0.0383  0.0451  0.3826
19876SOL    HW164185  11.068   1.806  11.233 -0.7123  0.9584 -1.4148
19876SOL    HW264186  10.924   1.842  11.205 -1.8167 -1.2157  1.0024
19877SOL     OW64187   9.344   9.035   4.752 -0.1952  0.1085 -0.4705
19877SOL    HW164188   9.253   9.065   4.751 -0.3169 -0.0786  1.4950
19877SOL    HW264189   9.339   8.945   4.721 -0.4353  0.5890 -1.9185
19878SOL     OW64190   4.967   3.257   5.801  0.0636 -0.2373 -0.5604
19878SOL    HW164191   4.931   3.207   5.727  1.3589 -1.3605 -0.4585
19878SOL    HW264192   4.960   3.198   5.876 -0.6903  0.6793  0.1181
19879SOL     OW64193   2.344   8.407   3.351  0.5249  0.2073 -0.2339
19879SOL    HW164194   2.437   8.424   3.339 -0.0170  2.2526 -2.0770
19879SOL    HW264195   2.336   8.312   3.336  2.3280 -0.0906  0.3825
19880SOL     OW64196   5.241   5.726   7.264 -0.2466 -0.7036 -0.2463
19880SOL    HW164197   5.180   5.796   7.239 -0.2107 -1.2155 -1.9212
19880SOL    HW264198   5.312   5.733   7.200  0.2877 -1.5987  0.2310
19881SOL     OW64199   0.677   8.290   3.446 -0.3201 -0.3960 -0.1335
19881SOL    HW164200   0.635   8.345   3.380  2.4716  0.4369 -1.3764
19881SOL    HW264201   0.746   8.244   3.399  0.5696 -1.2422  1.8565
19882SOL     OW64202   8.130   0.466  11.345  0.1312  0.5513 -0.1300
19882SOL    HW164203   8.077   0.508  11.277  1.5306  1.0134 -0.9617
19882SOL    HW264204   8.089   0.380  11.357 -0.6454  0.7910 -0.9430
19883SOL     OW64205   7.310   9.981   6.378 -0.3219 -0.0004 -0.5892
19883SOL    HW164206   7.362  10.031   6.441  0.0196 -1.7666  0.5817
19883SOL    HW264207   7.221  10.014   6.389  0.1212  1.4544 -1.0083
19884SOL     OW64208  10.160   9.281   2.374  0.1064 -0.2569  0.0500
19884SOL    HW164209  10.188   9.189   2.382 -3.1022 -1.3819  0.1477
19884SOL    HW264210  10.099   9.293   2.447 -0.4222  1.6013 -0.6516
19885SOL     OW64211   4.588   0.877   7.736 -0.1395 -0.2401 -0.2915
19885SOL    HW164212   4.537   0.846   7.810  0.1339 -2.4244 -0.9409
19885SOL    HW264213   4.554   0.965   7.718 -2.0225 -0.7101  0.7486
19886SOL     OW64214   3.569   1.313   2.095  0.6748  0.1883 -0.2750
19886SOL    HW164215   3.551   1.233   2.045 -0.1117  0.3010 -0.1701
19886SOL    HW264216   3.665   1.321   2.092  0.8810 -1.4549  0.8090
19887SOL     OW64217   6.176  10.121   1.856  0.5957  0.1901 -0.5752
19887SOL    HW164218   6.180  10.210   1.821  1.4934  0.6524  0.6358
19887SOL    HW264219   6.264  10.087   1.844  0.8440  0.2535  0.9144
19888SOL     OW64220  10.474   2.529   4.782  0.2572 -0.0159 -0.1338
19888SOL    HW164221  10.491   2.551   4.874  0.5570 -0.8953  0.0367
19888SOL    HW264222  10.435   2.608   4.745 -0.1130  0.2647  0.8155
19889SOL     OW64223   0.851   5.367   5.891 -0.7740  0.6948 -0.2917
19889SOL    HW164224   0.877   5.459   5.896 -0.4027  0.5368  1.4875
19889SOL    HW264225   0.930   5.322   5.863 -0.5173  0.7729  0.2802
19890SOL     OW64226   0.385  10.387   3.263  0.3651 -0.3929 -1.0465
19890SOL    HW164227   0.451  10.321   3.282  1.2146  1.1948  2.2928
19890SOL    HW264228   0.304  10.337   3.249  1.4873 -2.2012 -1.3605
19891SOL     OW64229  11.830   7.831  12.028  0.7665  0.3286 -0.7713
19891SOL    HW164230  11.748   7.859  12.070 -0.3503 -1.5557 -1.5567
19891SOL    HW264231  11.873   7.912  12.002 -1.8352  1.3613 -2.1559
19892SOL     OW64232   4.587   1.250   9.571  0.3831  0.0793 -0.1528
19892SOL    HW164233   4.528   1.175   9.561  0.4611 -0.7984  4.1155
19892SOL    HW264234   4.528   1.324   9.589  0.4163  0.6026 -2.0198
19893SOL     OW64235   2.233  11.934   0.686  0.9963 -0.0566  0.6641
19893SOL    HW164236   2.267  11.942   0.596 -0.9682 -0.1040 -0.1199
19893SOL    HW264237   2.306  11.964   0.741  2.5736 -0.8740 -0.8703
19894SOL     OW64238   8.209   7.461   5.173  0.0469 -0.3609 -0.0823
19894SOL    HW164239   8.230   7.409   5.250  1.6187 -0.3800 -0.4935
19894SOL    HW264240   8.264   7.539   5.180 -1.9773  1.1000  0.3169
19895SOL     OW64241   2.495  11.067   2.592 -0.1876 -0.4195  0.7366
19895SOL    HW164242   2.420  11.103   2.544 -0.9107 -1.2131  1.2475
19895SOL    HW264243   2.571  11.090   2.538 -0.5439  2.1821  1.1901
19896SOL     OW64244   4.971   1.614   2.244  0.0352  0.1076 -0.3995
19896SOL    HW164245   5.062   1.640   2.231  0.7509 -1.9408  0.0963
19896SOL    HW264246   4.969   1.521   2.220 -1.1944 -0.7262  2.5313
19897SOL     OW64247  10.515   3.237   0.707 -0.7931  0.0498  0.6174
19897SOL    HW164248  10.524   3.254   0.613 -1.5484  1.1798  0.7219
19897SOL    HW264249  10.489   3.322   0.744  0.1472 -0.2181  1.9514
19898SOL     OW64250   7.277   6.584   6.400 -0.6449  0.4039  0.1747
19898SOL    HW164251   7.237   6.567   6.486  0.1708 -1.1381  0.2841
19898SOL    HW264252   7.371   6.573   6.415 -0.3124  1.9700 -0.5346
19899SOL     OW64253   5.372   7.350   2.650  0.6385 -0.1720 -0.4796
19899SOL    HW164254   5.377   7.394   2.565  2.0509 -1.8443 -1.3290
19899SOL    HW264255   5.291   7.300   2.646  0.2824  0.4068 -0.5154
19900SOL     OW64256   3.066   2.943   1.360 -0.2032 -0.5000 -0.5178
19900SOL    HW164257   3.019   2.866   1.392 -2.0508  0.9137  0.3120
19900SOL    HW264258   3.130   2.962   1.428 -0.1944 -0.8923 -0.4134
19901SOL     OW64259  12.033   7.395   6.147 -0.3893  0.5881  0.2540
19901SOL    HW164260  12.090   7.349   6.086  0.0182 -1.0658  1.8107
19901SOL    HW264261  12.085   7.468   6.179  0.6697 -0.5335  1.1746
19902SOL     OW64262   2.797   1.376   9.874  0.0467 -0.7876  0.0716
19902SOL    HW164263   2.769   1.441   9.809 -1.5943 -0.3890  1.1184
19902SOL    HW264264   2.888   1.357   9.851 -0.5337 -0.8291 -2.4541
19903SOL     OW64265   9.950   0.323  10.142  0.4119 -0.0097  0.4451
19903SOL    HW164266   9.892   0.253  10.173 -0.1954  0.6528  0.8207
19903SOL    HW264267   9.894   0.399  10.134  0.8475  0.1722 -1.0347
19904SOL     OW64268   9.339   7.764   7.613 -0.0958 -0.6449 -0.2810
19904SOL    HW164269   9.266   7.781   7.553  0.6296 -1.6094 -1.4806
19904SOL    HW264270   9.338   7.669   7.626  1.0197 -0.6938 -0.4347
19905SOL     OW64271   3.043   7.652   6.758  0.2523 -0.0537 -0.0188
19905SOL    HW164272   3.019   7.562   6.736  0.1479 -0.2374  0.8052
19905SOL    HW264273   2.980   7.706   6.711  0.5017 -0.3927 -0.7637
19906SOL     OW64274   7.440   8.719  10.653  0.7781  0.2876 -0.8720
19906SOL    HW164275   7.439   8.721  10.749  0.6508 -1.1268 -0.8177
19906SOL    HW264276   7.524   8.678  10.631  0.2121 -0.6939 -1.2994
19907SOL     OW64277  12.112   5.300   6.321 -0.5437 -0.3031 -0.2905
19907SOL    HW164278  12.053   5.322   6.249 -0.4387 -1.7610 -0.8688
19907SOL    HW264279  12.118   5.204   6.318 -1.8365 -0.5865  2.7001
19908SOL     OW64280   2.374   6.080   6.219  0.1418 -0.1702  0.4018
19908SOL    HW164281   2.357   6.014   6.286 -0.0066 -2.3715 -1.6414
19908SOL    HW264282   2.469   6.078   6.207  0.3255  1.2009  1.4231
19909SOL     OW64283  10.122   6.825   8.937 -0.5615 -0.1677 -0.2598
19909SOL    HW164284  10.123   6.822   9.032  0.4849  0.0165 -0.2581
19909SOL    HW264285  10.041   6.871   8.915  0.0106  1.2705  0.5856
19910SOL     OW64286   2.064   0.896   8.387  0.0013  0.2063 -0.0908
19910SOL    HW164287   2.077   0.907   8.481 -0.8160  1.9579 -0.1458
19910SOL    HW264288   1.969   0.885   8.377  0.2084 -1.2875 -0.6171
19911SOL     OW64289   5.145   8.591   2.409  0.1994 -0.6667  0.0858
19911SOL    HW164290   5.078   8.621   2.470 -2.1107 -1.3694 -1.9184
19911SOL    HW264291   5.204   8.538   2.462  0.5250  1.7753  2.3622
19912SOL     OW64292   8.956   0.067  10.653 -0.3658  0.1509 -0.0995
19912SOL    HW164293   8.966   0.157  10.621  0.2007 -0.1154 -0.6860
19912SOL    HW264294   9.011   0.014  10.595  0.2880 -0.4160  1.0038
19913SOL     OW64295   4.384   1.054   4.173 -0.7319 -0.6576  0.2448
19913SOL    HW164296   4.346   1.115   4.109 -0.4855 -1.4746 -0.6937
19913SOL    HW264297   4.365   0.967   4.138  0.6764 -1.1067  0.5219
19914SOL     OW64298   9.784   2.464   7.087 -0.3602 -0.2867 -0.2456
19914SOL    HW164299   9.861   2.431   7.042  1.2556  0.9425  1.4652
19914SOL    HW264300   9.777   2.555   7.061 -1.6618 -0.5433 -0.8865
19915SOL     OW64301  11.910   9.720   2.697  0.8916  0.4848 -0.4057
19915SOL    HW164302  12.002   9.741   2.680  0.9388  0.0277 -0.7571
19915SOL    HW264303  11.912   9.630   2.731  0.6823  0.9505  0.8769
19916SOL     OW64304   9.427  10.313  10.529 -0.3539  0.2148 -0.8615
19916SOL    HW164305   9.393  10.364  10.603  1.1217 -0.3504  0.2632
19916SOL    HW264306   9.445  10.378  10.461 -0.5181  0.9212 -0.2457
19917SOL     OW64307   1.586   3.358   8.998 -0.1178 -0.2872 -0.0855
19917SOL    HW164308   1.664   3.409   8.972 -1.0935  0.3397 -1.9924
19917SOL    HW264309   1.515   3.422   8.995 -0.7167 -0.7944  1.8953
19918SOL     OW64310   4.892   4.137   9.848  0.5999 -0.3301  0.4114
19918SOL    HW164311   4.853   4.200   9.909  1.4236 -0.5290  1.1547
19918SOL    HW264312   4.940   4.192   9.786  0.8371 -0.1943  0.7136
19919SOL     OW64313  10.460   0.929  11.495  0.0839 -0.3817  0.4351
19919SOL    HW164314  10.463   0.944  11.401  2.0532  0.7597  0.6451
19919SOL    HW264315  10.381   0.975  11.524  0.3845  0.7235 -0.4315
19920SOL     OW64316   3.864  12.003   9.490  0.1778 -0.3292  0.1831
19920SOL    HW164317   3.807  11.964   9.556  0.0033  0.4870  0.5210
19920SOL    HW264318   3.818  12.082   9.461  0.6943 -0.1656 -0.2199
19921SOL     OW64319   7.512   2.190   7.491  0.1410  0.3660  0.4670
19921SOL    HW164320   7.591   2.176   7.438  2.3215  0.2315  3.4408
19921SOL    HW264321   7.462   2.110   7.482  1.1649 -0.2097 -0.2585
19922SOL     OW64322   6.344   6.393   3.542  0.1844  0.0943 -0.5854
19922SOL    HW164323   6.428   6.431   3.567 -0.7669  0.6984  1.9911
19922SOL    HW264324   6.326   6.430   3.456  1.7470  1.3254 -0.4337
19923SOL     OW64325   5.924   7.720  10.814 -0.3936  0.1114 -0.7154
19923SOL    HW164326   5.878   7.794  10.774 -0.3170  0.3265 -0.4113
19923SOL    HW264327   5.919   7.737  10.908 -1.3198 -0.8254 -0.5786
19924SOL     OW64328  11.209  12.016  11.608  0.3231 -0.1760  0.3535
19924SOL    HW164329  11.227  12.035  11.700  0.5408  0.1997  0.2392
19924SOL    HW264330  11.114  12.028  11.599  0.5799  2.1596  0.0316
19925SOL     OW64331   6.456   6.641  10.094  0.6686  0.1138  0.0422
19925SOL    HW164332   6.376   6.694  10.099  0.0335 -0.8195 -0.0162
19925SOL    HW264333   6.526   6.701  10.120  0.3986  1.8724 -2.7758
19926SOL     OW64334   5.288   1.172   2.187 -0.3322 -0.0515 -0.5285
19926SOL    HW164335   5.350   1.102   2.163  0.3365  0.0849  0.7076
19926SOL    HW264336   5.337   1.253   2.173  0.3189  0.0281  1.6997
19927SOL     OW64337   2.778   3.766   5.138 -0.2054 -0.2477  0.0951
19927SOL    HW164338   2.832   3.725   5.071  0.1022  0.8905 -0.3780
19927SOL    HW264339   2.835   3.831   5.179 -0.9044  0.2768  0.2597
19928SOL     OW64340  10.424   7.529   2.520 -0.8518 -0.0492  0.7218
19928SOL    HW164341  10.391   7.584   2.449  0.9854  0.1950  0.0004
19928SOL    HW264342  10.365   7.453   2.521 -2.0545  0.8422  0.2295
19929SOL     OW64343   9.049   6.257   8.236 -0.1058  0.0258  0.1826
19929SOL    HW164344   9.109   6.259   8.311  0.2642 -0.6531 -0.0913
19929SOL    HW264345   9.002   6.341   8.241  0.9347  0.6163  0.3535
19930SOL     OW64346   2.593   1.215   6.534  0.0782  0.2549  0.8404
19930SOL    HW164347   2.586   1.278   6.605  1.6202  0.1097  1.1499
19930SOL    HW264348   2.602   1.267   6.455  0.6243  0.4331  1.0159
19931SOL     OW64349   9.531  10.213   5.266  0.3684  0.1300  0.0403
19931SOL    HW164350   9.461  10.271   5.238  0.2462  0.0359  0.1483
19931SOL    HW264351   9.569  10.257   5.342  0.2132  0.0225  0.1814
19932SOL     OW64352  10.937   8.456   1.340  0.0161 -0.3932 -0.0686
19932SOL    HW164353  10.982   8.540   1.329  1.9441 -1.4644 -0.8347
19932SOL    HW264354  10.908   8.456   1.432  0.6773  0.7767  0.1604
19933SOL     OW64355   9.891   7.749   8.561 -0.3517  0.0712 -0.4823
19933SOL    HW164356   9.937   7.811   8.618 -1.3464  0.8192 -0.4538
19933SOL    HW264357   9.837   7.805   8.504  0.1131 -0.6874 -1.7158
19934SOL     OW64358   0.720   1.140  10.408 -0.2594 -0.7039 -0.4971
19934SOL    HW164359   0.670   1.131  10.490  0.4136  1.1315  0.1719
19934SOL    HW264360   0.785   1.209  10.427  0.7769 -1.1626 -2.1724
19935SOL     OW64361   1.455   0.852  11.614 -0.6304  0.4629 -0.0614
19935SOL    HW164362   1.362   0.848  11.595 -0.7347  0.1809  0.4874
19935SOL    HW264363   1.495   0.789  11.554 -0.9474 -0.3665  0.5693
19936SOL     OW64364   0.401   3.615   1.858  0.1132  0.2012 -0.2033
19936SOL    HW164365   0.414   3.521   1.873 -0.9930 -0.0187 -0.4875
19936SOL    HW264366   0.449   3.633   1.777  2.2309  0.3971  1.0405
19937SOL     OW64367  10.578   9.164   2.090 -0.4813 -0.5400  0.2209
19937SOL    HW164368  10.613   9.245   2.128 -1.4575 -1.0619  2.4463
19937SOL    HW264369  10.610   9.163   2.000  0.3103  1.8528  0.4040
19938SOL     OW64370   0.520   5.719  10.102 -0.2080  0.5571  0.3587
19938SOL    HW164371   0.546   5.627  10.101  2.1368  1.1164 -1.5698
19938SOL    HW264372   0.601   5.766  10.125 -0.5774  2.2523 -1.5361
19939SOL     OW64373   3.596  10.312   5.460 -0.0666 -0.3339  0.3156
19939SOL    HW164374   3.606  10.341   5.551 -2.1187  0.5876  0.3119
19939SOL    HW264375   3.544  10.232   5.466 -2.5459  1.1369 -0.0895
19940SOL     OW64376   2.477   0.435   9.048 -0.5321 -0.3859  0.2680
19940SOL    HW164377   2.434   0.370   9.104 -0.1233 -0.8910  0.0140
19940SOL    HW264378   2.563   0.447   9.088 -1.1641  1.2039  1.2216
19941SOL     OW64379   1.460   6.450   2.847  0.1283 -0.0348  0.2117
19941SOL    HW164380   1.416   6.375   2.888 -0.0011  0.0403  0.2120
19941SOL    HW264381   1.413   6.526   2.881 -0.5633 -0.0085 -0.7685
19942SOL     OW64382   1.423   3.015   8.316 -0.3605 -0.0309  0.0645
19942SOL    HW164383   1.512   3.040   8.341 -0.3493  0.8478 -0.7940
19942SOL    HW264384   1.368   3.083   8.353 -0.5938 -0.1064 -0.1446
19943SOL     OW64385  11.758   7.270   8.876  0.5171  0.6423 -0.1556
19943SOL    HW164386  11.843   7.314   8.880  1.0803 -0.4488  0.3430
19943SOL    HW264387  11.779   7.177   8.874 -0.6836  0.3139  0.9830
19944SOL     OW64388  10.162   1.003   2.625 -0.3107  0.4723 -0.8380
19944SOL    HW164389  10.188   1.011   2.533  2.3072  1.1248 -0.1309
19944SOL    HW264390  10.137   1.092   2.650  2.1081  1.0063 -0.1337
19945SOL     OW64391   6.039   3.857  11.271  0.8664  0.1308  0.3529
19945SOL    HW164392   6.127   3.825  11.294  1.0604  0.7244  0.4539
19945SOL    HW264393   6.055   3.929  11.210  0.4662  0.4636  0.6335
19946SOL     OW64394   9.260   2.007   0.040  0.2965 -0.2050  0.2403
19946SOL    HW164395   9.212   1.934   0.001  1.6484 -0.6909 -0.5849
19946SOL    HW264396   9.196   2.077   0.045 -0.7549 -1.1181  0.0560
19947SOL     OW64397  10.985   8.538   1.621  0.1537  0.1855  0.1911
19947SOL    HW164398  11.053   8.605   1.616 -0.9449  1.2884 -0.3206
19947SOL    HW264399  10.908   8.583   1.655 -0.6866 -0.7412 -0.4140
19948SOL     OW64400  12.077   4.790  12.048 -0.0462  0.0137  0.3375
19948SOL    HW164401  12.017   4.830  12.111 -0.3174 -0.6594  0.5171
19948SOL    HW264402  12.047   4.700  12.041 -1.2250  0.5060 -2.1765
19949SOL     OW64403   6.046   9.486   2.808  0.2666  0.1511 -0.0504
19949SOL    HW164404   6.127   9.468   2.857  0.6815 -0.5676 -0.9593
19949SOL    HW264405   5.976   9.463   2.869  0.7436  0.4154  0.6184
19950SOL     OW64406  12.089   9.766   5.616 -0.1633 -0.2143  0.3481
19950SOL    HW164407  12.023   9.825   5.652  0.4167  0.8458 -0.2861
19950SOL    HW264408  12.172   9.809   5.635  0.2411 -0.5137 -0.6684
19951SOL     OW64409   1.870   9.868   6.079 -0.4082  0.2193  0.1030
19951SOL    HW164410   1.905   9.949   6.042 -1.2350 -0.1614 -1.5991
19951SOL    HW264411   1.843   9.817   6.003 -2.1416 -0.6374  1.2511
19952SOL     OW64412  10.173  12.060  11.356  0.1759 -0.5258 -0.1892
19952SOL    HW164413  10.200  11.974  11.324 -0.7125 -0.5820 -0.8282
19952SOL    HW264414  10.080  12.051  11.376  0.1096  0.2383 -0.1154
19953SOL     OW64415  11.404   7.395   6.725 -0.2753 -0.4325 -0.3728
19953SOL    HW164416  11.361   7.328   6.779 -0.9616  0.4508  0.1999
19953SOL    HW264417  11.497   7.373   6.730 -0.2150  0.1067  1.8940
19954SOL     OW64418   5.167   9.352   1.786 -0.3078 -0.2287 -0.2203
19954SOL    HW164419   5.259   9.376   1.796 -0.3944 -0.3262  1.0015
19954SOL    HW264420   5.151   9.289   1.857 -1.0187 -1.1129 -1.1456
19955SOL     OW64421   2.577   9.799   4.139 -0.3322  0.2904  0.5789
19955SOL    HW164422   2.605   9.727   4.195  0.6783 -0.6556 -1.0674
19955SOL    HW264423   2.653   9.857   4.135 -0.4256  0.3919  0.2577
19956SOL     OW64424   2.256  10.323   8.697 -0.0859 -0.2870 -0.0904
19956SOL    HW164425   2.247  10.286   8.610  0.1244 -0.6213  0.0285
19956SOL    HW264426   2.210  10.407   8.693 -2.6032 -1.5516  0.2747
19957SOL     OW64427   9.180  11.478   2.581  0.3891 -0.5859  0.2878
19957SOL    HW164428   9.146  11.390   2.597  0.0538 -0.9836 -2.2409
19957SOL    HW264429   9.256  11.464   2.524  2.6791  0.5584  2.8453
19958SOL     OW64430   6.407   0.614   8.835  0.1021 -0.6047 -0.3436
19958SOL    HW164431   6.468   0.555   8.790  0.0552  0.3280 -1.7067
19958SOL    HW264432   6.462   0.670   8.888  0.5654  0.7106 -2.1206
19959SOL     OW64433   5.879   0.925   7.514 -0.1003  0.3253  0.4795
19959SOL    HW164434   5.932   0.891   7.586 -0.5838  3.6992  2.7029
19959SOL    HW264435   5.793   0.883   7.525 -0.2090  0.8875  2.0465
19960SOL     OW64436   6.837   9.463   5.157 -0.0189 -0.0671 -0.6470
19960SOL    HW164437   6.906   9.527   5.143  1.5637 -1.6535 -0.4100
19960SOL    HW264438   6.765   9.512   5.197  1.4220  1.3961  0.2168
19961SOL     OW64439   9.321   9.146   0.917 -0.2358  0.6357 -0.1185
19961SOL    HW164440   9.264   9.205   0.868  0.2977  0.6080 -0.7930
19961SOL    HW264441   9.382   9.112   0.851 -0.6979 -0.8838  0.1949
19962SOL     OW64442   9.075  10.824   6.556  0.0078 -0.3032  0.6531
19962SOL    HW164443   9.169  10.820   6.571  0.3172  0.8003 -0.7890
19962SOL    HW264444   9.066  10.843   6.463 -1.6494 -0.2437  0.7898
19963SOL     OW64445   3.905   3.019   3.307 -0.5902  0.1015 -0.2476
19963SOL    HW164446   3.988   3.037   3.262 -0.1522 -0.0333  0.4794
19963SOL    HW264447   3.860   3.103   3.310 -0.0389  0.3845  0.2110
19964SOL     OW64448   3.582   7.408   2.450 -0.1633 -0.2750  0.0735
19964SOL    HW164449   3.611   7.422   2.360 -0.2218  3.6568  0.4784
19964SOL    HW264450   3.496   7.450   2.455 -0.0421 -0.1424  1.9908
19965SOL     OW64451  10.993  11.761  11.606  0.2215  0.0030  0.0641
19965SOL    HW164452  11.044  11.754  11.525  1.5942 -1.2194  0.9744
19965SOL    HW264453  10.968  11.671  11.627  0.5249  0.1914  1.3522
19966SOL     OW64454   9.459   6.451   2.158 -0.5040  0.0317 -0.1958
19966SOL    HW164455   9.416   6.411   2.083  1.3557  0.2652 -1.4530
19966SOL    HW264456   9.396   6.515   2.190 -1.3951 -0.1699 -1.4807
19967SOL     OW64457   1.376  10.255   3.140 -0.2926 -0.1150 -0.2094
19967SOL    HW164458   1.362  10.164   3.166  0.1073 -0.4815 -1.2613
19967SOL    HW264459   1.423  10.250   3.057 -1.7290  1.0247 -1.1498
19968SOL     OW64460   7.430   4.931   8.050 -0.1192 -0.2474  0.1372
19968SOL    HW164461   7.495   4.932   7.980 -1.5419  1.2954 -1.2692
19968SOL    HW264462   7.480   4.913   8.129  1.5454 -2.1638 -1.2425
19969SOL     OW64463   8.121   9.594   7.058 -0.3908  0.2996  0.8323
19969SOL    HW164464   8.093   9.515   7.105  0.8690 -0.5212  0.2543
19969SOL    HW264465   8.121   9.568   6.966  2.3376  0.1692  0.7864
19970SOL     OW64466  11.565   7.843   4.525  0.2878  0.9772  0.3594
19970SOL    HW164467  11.634   7.825   4.461 -1.4846  0.5720 -1.5130
19970SOL    HW264468  11.574   7.772   4.589 -0.7255 -1.3787 -1.9303
19971SOL     OW64469   1.712   5.946   8.543  0.3658 -0.0469  0.6375
19971SOL    HW164470   1.702   5.922   8.635 -0.4173  0.7463  0.7829
19971SOL    HW264471   1.799   5.986   8.537  0.5833 -0.4737  0.9455
19972SOL     OW64472   2.951   3.023   9.053  0.2790 -0.1812  0.0651
19972SOL    HW164473   3.001   2.980   8.983  0.2992 -2.8213  1.5909
19972SOL    HW264474   2.993   2.993   9.134 -1.6054  0.3802  1.2955
19973SOL     OW64475   4.657   8.095   6.662 -0.7824  0.6461  0.0772
19973SOL    HW164476   4.695   8.078   6.576 -0.1554  2.1679  0.0132
19973SOL    HW264477   4.589   8.160   6.647 -0.6693  0.9291  0.7116
19974SOL     OW64478   1.682   7.745   6.082  0.6015 -0.0321  0.3087
19974SOL    HW164479   1.732   7.743   6.000  0.6209 -0.1794  0.3223
19974SOL    HW264480   1.709   7.665   6.127  0.6917  0.1160  0.5183
19975SOL     OW64481   0.541   7.982   0.301  0.4630  0.3986 -0.1687
19975SOL    HW164482   0.616   7.930   0.270 -0.1715 -0.1411 -0.8181
19975SOL    HW264483   0.491   7.922   0.355 -0.9970 -0.1175 -2.0018
19976SOL     OW64484  10.540   6.564   6.848 -0.3341  0.5703  0.0837
19976SOL    HW164485  10.552   6.470   6.861  1.5802  0.2539 -2.9133
19976SOL    HW264486  10.448   6.580   6.867 -0.6874 -1.9013  0.7222
19977SOL     OW64487  10.854   9.773  11.504 -0.2913 -0.1815 -0.2841
19977SOL    HW164488  10.784   9.815  11.454 -0.8478 -1.2942 -0.4738
19977SOL    HW264489  10.874   9.693  11.455  1.7657  0.5519 -0.7418
19978SOL     OW64490   7.194   9.114   8.188  0.3319  0.3370 -0.3705
19978SOL    HW164491   7.226   9.204   8.197 -1.9801  1.2306 -0.3962
19978SOL    HW264492   7.249   9.076   8.119  2.4228  1.1569  0.7601
19979SOL     OW64493   6.582   3.313   7.670 -0.2715 -0.3717 -0.9419
19979SOL    HW164494   6.538   3.309   7.585 -1.5458  0.8110 -0.3732
19979SOL    HW264495   6.515   3.345   7.730  0.8603 -0.3322  0.3388
19980SOL     OW64496   1.880   5.834   5.555  0.2676  0.3768  0.0841
19980SOL    HW164497   1.817   5.833   5.627 -0.1944  0.1383 -0.3185
19980SOL    HW264498   1.899   5.742   5.538  0.3548  0.4314 -0.1157
19981SOL     OW64499   1.169   5.074   5.004  0.0160  0.5032 -0.3560
19981SOL    HW164500   1.192   5.119   4.922 -1.5863  0.5030 -0.8336
19981SOL    HW264501   1.251   5.072   5.053  1.0776  0.3280 -2.0413
19982SOL     OW64502   3.407   1.990   8.913  0.4953  0.1275  0.6081
19982SOL    HW164503   3.443   2.014   8.998  2.5521 -1.6301  0.3170
19982SOL    HW264504   3.346   2.061   8.891  2.1423  2.1257  2.1977
19983SOL     OW64505  10.593   3.995   9.068  0.2972  0.4231  0.2007
19983SOL    HW164506  10.618   4.087   9.078  0.5233  0.3772  0.0754
19983SOL    HW264507  10.519   3.983   9.128  0.2682  0.6858  0.2169
19984SOL     OW64508   5.489   9.461   0.530  0.2451 -0.0647 -0.2464
19984SOL    HW164509   5.439   9.459   0.448  0.2119  2.5262 -0.3673
19984SOL    HW264510   5.521   9.551   0.537  0.1609 -0.1491  2.6416
19985SOL     OW64511  11.991   1.836   4.220  0.6189  0.6248  0.2854
19985SOL    HW164512  11.920   1.831   4.283  1.2658  1.4896  1.1040
19985SOL    HW264513  12.071   1.837   4.273  1.2040  0.6514 -0.5677
19986SOL     OW64514   9.493  11.079   8.056 -0.6347  0.1223 -0.4653
19986SOL    HW164515   9.419  11.118   8.102 -0.0062  0.4440  0.3084
19986SOL    HW264516   9.546  11.040   8.125 -0.3048 -0.4883 -1.0526
19987SOL     OW64517   1.816   1.918   9.551 -0.2714 -0.0206  0.2106
19987SOL    HW164518   1.758   1.994   9.554  1.7155  1.6288 -0.5724
19987SOL    HW264519   1.890   1.946   9.498  0.4855 -2.5973 -0.2515
19988SOL     OW64520   3.171   8.481   8.934  0.3100 -0.4082 -0.5839
19988SOL    HW164521   3.148   8.439   9.017  2.8177 -0.5415  0.0963
19988SOL    HW264522   3.195   8.409   8.876 -2.0001 -0.3754 -1.7308
19989SOL     OW64523  10.423   1.010   4.584  0.0146 -0.2327 -0.0121
19989SOL    HW164524  10.443   0.917   4.595  0.9170  0.0805  1.3083
19989SOL    HW264525  10.443   1.048   4.669  1.2513  1.4543 -1.0183
19990SOL     OW64526   2.724  11.733   2.015 -0.2700 -0.4540 -0.0001
19990SOL    HW164527   2.787  11.752   2.084 -2.4451  0.2862  1.9023
19990SOL    HW264528   2.707  11.818   1.974 -0.3484 -0.5761 -0.2215
19991SOL     OW64529   8.015   8.725   9.698 -0.1169  0.2061 -0.3136
19991SOL    HW164530   8.002   8.646   9.750  1.4473 -0.0460 -0.2483
19991SOL    HW264531   7.943   8.783   9.723 -2.4255 -1.8623 -1.7531
19992SOL     OW64532   6.408   6.246   7.682  0.0911 -0.0414  0.1423
19992SOL    HW164533   6.431   6.191   7.607  0.0938  0.7268 -0.4245
19992SOL    HW264534   6.360   6.187   7.741 -1.9538 -0.1137 -1.4751
19993SOL     OW64535   0.803   3.046   8.579 -0.0582 -0.5440  0.0051
19993SOL    HW164536   0.840   3.070   8.664 -0.0907 -1.7929  0.3895
19993SOL    HW264537   0.730   3.107   8.567  0.7888  0.5503  0.2197
19994SOL     OW64538   6.138  11.954   5.623 -0.2077 -0.3619 -0.0465
19994SOL    HW164539   6.200  11.889   5.656  0.0286 -0.5205 -0.7824
19994SOL    HW264540   6.102  11.914   5.544 -1.8129 -0.5917  0.7621
19995SOL     OW64541   2.682   2.782   2.371 -0.0098 -0.4223  0.6159
19995SOL    HW164542   2.620   2.760   2.301  1.3424  0.8542 -1.0723
19995SOL    HW264543   2.683   2.704   2.427 -0.9211 -1.6206 -0.9498
19996SOL     OW64544   6.538   3.155   8.661 -0.3601  0.0339  0.0523
19996SOL    HW164545   6.516   3.212   8.588  0.2811 -2.9680 -2.6976
19996SOL    HW264546   6.458   3.104   8.676 -0.1339 -0.1340  0.7614
19997SOL     OW64547   8.598   7.565   5.336 -0.5218 -0.1938  0.1973
19997SOL    HW164548   8.601   7.543   5.429 -0.9060  1.0600  0.5268
19997SOL    HW264549   8.689   7.560   5.306 -0.3183 -0.0148  0.7838
19998SOL     OW64550   4.318  10.194   6.935  0.0226  0.2334  0.3692
19998SOL    HW164551   4.312  10.205   6.841 -0.3854 -1.9160  0.0933
19998SOL    HW264552   4.286  10.105   6.951 -0.6608  0.8183  2.6137
19999SOL     OW64553   7.174   1.846   8.738  0.1162  0.0908  0.3875
19999SOL    HW164554   7.162   1.919   8.677 -0.4872 -0.6180 -0.3688
19999SOL    HW264555   7.193   1.887   8.822  0.9119  1.0908 -0.2637
20000SOL     OW64556   4.378  11.605   9.067  0.3786 -0.0877  0.2424
20000SOL    HW164557   4.359  11.513   9.083 -0.4418  0.1203  0.4837
20000SOL    HW264558   4.430  11.632   9.143  0.1958 -0.2216  0.4139
20001SOL     OW64559   7.981   4.975   7.953 -0.0546  1.1735 -0.4413
20001SOL    HW164560   8.031   5.057   7.951 -2.1599  2.5219 -0.5738
20001SOL    HW264561   7.955   4.966   8.045  0.3464  0.5230 -0.3881
20002SOL     OW64562   1.636   4.178  10.724 -0.5456  0.4023  0.4294
20002SOL    HW164563   1.712   4.231  10.748 -0.5302 -0.4189  2.3628
20002SOL    HW264564   1.563   4.241  10.720  0.2798  1.3412 -2.2650
20003SOL     OW64565   7.275   4.067   7.149 -0.1381 -0.2121 -0.0615
20003SOL    HW164566   7.203   4.118   7.113  0.0962  0.1374 -0.0454
20003SOL    HW264567   7.313   4.022   7.074  0.0582  0.1492 -0.1834
20004SOL     OW64568   6.843   5.559   4.250 -0.4961 -0.2489  0.7060
20004SOL    HW164569   6.759   5.541   4.208 -0.3034  0.4156  0.0157
20004SOL    HW264570   6.874   5.640   4.209 -0.0988  0.1988  1.8289
20005SOL     OW64571   4.897   1.825   1.059 -0.3185 -0.0996 -0.8982
20005SOL    HW164572   4.849   1.748   1.028  0.6148 -0.5790 -1.1677
20005SOL    HW264573   4.886   1.822   1.154 -0.9954 -0.0861 -0.9696
20006SOL     OW64574   5.989   6.890  11.179 -0.3809 -0.4680 -0.1462
20006SOL    HW164575   6.019   6.966  11.228 -1.1602 -0.6021  0.5554
20006SOL    HW264576   5.942   6.927  11.104  0.8741 -0.2635 -0.8750
20007SOL     OW64577  10.899   4.778   6.160  0.9891  0.6444  0.8008
20007SOL    HW164578  10.993   4.794   6.148  0.9160  0.3692 -0.2497
20007SOL    HW264579  10.893   4.684   6.173  0.6884  0.3387 -1.2688
20008SOL     OW64580  10.372   7.339   3.652 -0.9024 -0.0846  0.3391
20008SOL    HW164581  10.464   7.365   3.660 -0.5209 -1.7087  1.7093
20008SOL    HW264582  10.345   7.374   3.567  0.8590  0.7751  0.0924
20009SOL     OW64583   1.807   8.439   5.615 -0.5527  0.5357 -0.2707
20009SOL    HW164584   1.753   8.483   5.549  3.0287  2.8263 -2.0335
20009SOL    HW264585   1.820   8.505   5.682  1.2369  0.6520 -0.6867
20010SOL     OW64586   6.144   7.577  10.817  0.1999 -0.1260  0.5015
20010SOL    HW164587   6.144   7.511  10.748  0.2097  0.8203 -0.4375
20010SOL    HW264588   6.080   7.642  10.787  1.3714  1.1019  0.5815
20011SOL     OW64589   2.498   1.347   8.917 -0.3264  0.0865  0.1615
20011SOL    HW164590   2.530   1.307   8.837  1.5109 -1.7659  1.6950
20011SOL    HW264591   2.500   1.441   8.900  2.5649 -0.1007 -1.1252
20012SOL     OW64592   4.676   0.842  11.267  0.6255  0.2084  0.0884
20012SOL    HW164593   4.594   0.799  11.240 -0.5227  1.0022  2.1132
20012SOL    HW264594   4.694   0.904  11.196 -0.5677  0.0696 -0.3726
20013SOL     OW64595   9.010   3.687   3.196 -0.1949  0.0849  0.3141
20013SOL    HW164596   8.918   3.714   3.191 -0.6433 -1.2361  0.9926
20013SOL    HW264597   9.046   3.737   3.269 -0.7260 -0.3248  0.8621
20014SOL     OW64598   0.694   1.752   2.106 -0.1735  0.4708 -0.3982
20014SOL    HW164599   0.773   1.710   2.070 -0.6111  0.6588 -1.6309
20014SOL    HW264600   0.697   1.732   2.200  0.7943 -0.4100 -0.5937
20015SOL     OW64601   3.112   1.082   4.804  0.0418 -0.5911  0.1333
20015SOL    HW164602   3.070   1.054   4.885 -2.0022 -0.1271 -0.7170
20015SOL    HW264603   3.113   1.178   4.810  1.4537 -0.5958  0.3390
20016SOL     OW64604   2.289   4.091   4.672  0.9747  0.5154  0.3599
20016SOL    HW164605   2.323   4.006   4.699  0.5563  0.4539  0.6924
20016SOL    HW264606   2.271   4.138   4.754  1.3750  0.9950  0.1791
20017SOL     OW64607   0.608   5.820   3.399 -0.4499  0.2915  0.1033
20017SOL    HW164608   0.584   5.911   3.415  0.2552  0.4158  0.5099
20017SOL    HW264609   0.605   5.779   3.485 -0.4615  0.0070 -0.0327
20018SOL     OW64610   1.777   1.708  11.039 -0.5414 -0.0382  0.5265
20018SOL    HW164611   1.802   1.715  11.131  1.3228  0.4311  0.0321
20018SOL    HW264612   1.754   1.798  11.014  2.8707  0.7167 -0.4214
20019SOL     OW64613   7.636   9.028   2.968 -0.2551  0.0257 -0.2943
20019SOL    HW164614   7.544   9.013   2.945  0.2353 -1.8143 -1.3205
20019SOL    HW264615   7.684   8.961   2.919  1.3906 -0.8316  2.2624
20020SOL     OW64616   5.198  11.064   9.032  0.5402  0.0274 -0.3502
20020SOL    HW164617   5.169  11.137   8.977 -1.3992 -1.0899 -0.9038
20020SOL    HW264618   5.124  11.049   9.092  0.0822 -2.6113 -1.4440
20021SOL     OW64619   3.070   3.513   9.311 -0.4364 -0.2535 -0.1084
20021SOL    HW164620   3.063   3.421   9.285 -1.7962  0.5627 -3.1615
20021SOL    HW264621   3.006   3.523   9.382 -1.9473 -1.2638 -1.2590
20022SOL     OW64622  11.590   5.912   8.328  0.0388  0.3164  0.3239
20022SOL    HW164623  11.518   5.900   8.390 -1.0133 -0.2207 -0.9398
20022SOL    HW264624  11.646   5.977   8.369 -0.8284  0.2842  1.6415
20023SOL     OW64625   7.201   6.766   5.785  0.0190 -0.0399 -0.0872
20023SOL    HW164626   7.177   6.755   5.877  0.4447  0.3492  0.0724
20023SOL    HW264627   7.224   6.858   5.777  3.2778 -0.7041  0.2425
20024SOL     OW64628   8.384   6.687   2.370  0.1175  0.2440  0.6381
20024SOL    HW164629   8.435   6.673   2.449 -0.0110 -3.6466  0.2395
20024SOL    HW264630   8.322   6.614   2.368 -0.6752  0.8510 -2.4702
20025SOL     OW64631   5.218   8.258  10.981 -0.5156  0.3941 -0.5003
20025SOL    HW164632   5.160   8.280  10.908 -0.2760  1.6030 -0.3468
20025SOL    HW264633   5.297   8.225  10.940 -0.7493  0.1408 -0.7520
20026SOL     OW64634   7.176   0.465   3.646  0.0008  0.0734  0.7305
20026SOL    HW164635   7.206   0.556   3.646 -0.5503  0.2583  0.6928
20026SOL    HW264636   7.081   0.471   3.637 -0.1181 -0.4856  1.5474
20027SOL     OW64637   2.651   8.166   9.244 -0.8227  0.1034 -0.2850
20027SOL    HW164638   2.569   8.127   9.272 -0.6674 -0.7387 -0.9184
20027SOL    HW264639   2.629   8.256   9.219 -1.3118  0.2516  0.6659
20028SOL     OW64640  11.961   5.213   8.002 -0.6181  0.3183  0.0358
20028SOL    HW164641  11.945   5.146   7.935 -1.1768  1.7751 -1.3331
20028SOL    HW264642  12.043   5.254   7.977  0.2734 -0.4854  1.4618
20029SOL     OW64643   9.315  11.971  11.835  0.2872 -0.1556  0.4354
20029SOL    HW164644   9.370  11.918  11.776 -0.9125 -0.8898 -0.0494
20029SOL    HW264645   9.226  11.959  11.802 -0.0877  1.6927  0.7007
20030SOL     OW64646   1.959  10.694   6.240  0.7129  0.8907 -0.3459
20030SOL    HW164647   1.931  10.604   6.254 -0.1896  1.3319  0.8524
20030SOL    HW264648   1.878  10.744   6.231  1.1906  1.6437 -0.5752
20031SOL     OW64649   8.239   3.771   9.102  0.1161 -0.3355 -0.1992
20031SOL    HW164650   8.177   3.808   9.164  1.8402  0.8531  0.9115
20031SOL    HW264651   8.207   3.799   9.016 -0.1517  1.4339  0.4420
20032SOL     OW64652   3.074   3.550   0.451 -0.0043 -0.1152  0.6221
20032SOL    HW164653   3.146   3.495   0.419 -0.1793  0.4855 -0.8700
20032SOL    HW264654   2.996   3.496   0.437 -0.3435  0.9591 -2.1722
20033SOL     OW64655   0.513  11.125   6.893  0.0602 -0.0562 -0.0557
20033SOL    HW164656   0.535  11.190   6.960 -1.1751  0.7222 -0.3845
20033SOL    HW264657   0.419  11.112   6.902  0.3064 -2.0208  0.1688
20034SOL     OW64658   1.856   0.358   6.240 -0.0624 -0.2398 -0.1761
20034SOL    HW164659   1.873   0.444   6.279 -1.6780  0.1748 -0.3259
20034SOL    HW264660   1.943   0.325   6.217  0.5412  1.8638 -1.1973
20035SOL     OW64661  10.421   2.782   5.068 -0.1085  0.2677  0.2887
20035SOL    HW164662  10.503   2.752   5.029  1.1596  2.7959  0.8005
20035SOL    HW264663  10.353   2.735   5.020  1.5849 -1.4026 -0.6105
20036SOL     OW64664   7.266   8.074   3.003  0.3540 -0.3049 -0.6809
20036SOL    HW164665   7.239   8.062   2.912 -3.0034 -0.7483  0.2437
20036SOL    HW264666   7.246   7.990   3.045 -0.7494  0.7457  0.9920
20037SOL     OW64667   2.324   8.765   6.725 -0.2655 -0.4375 -0.3378
20037SOL    HW164668   2.259   8.704   6.760 -0.0668 -1.5681 -1.8313
20037SOL    HW264669   2.338   8.736   6.635  1.5209  0.4391 -0.3834
20038SOL     OW64670  10.871   9.658   9.881 -0.2746 -0.5495 -0.1515
20038SOL    HW164671  10.890   9.724   9.948  1.3328 -1.4208  0.3052
20038SOL    HW264672  10.800   9.696   9.830 -0.8937  0.5602  1.4487
20039SOL     OW64673   3.197   6.200   3.333  0.4010 -0.3492 -0.0579
20039SOL    HW164674   3.184   6.111   3.299  0.1374  0.0604 -1.0622
20039SOL    HW264675   3.223   6.187   3.424  2.3457 -1.5232 -0.7305
20040SOL     OW64676   8.784  11.044  11.444 -0.0939 -0.3177  0.9391
20040SOL    HW164677   8.766  11.030  11.537  3.8570 -1.6610  1.7057
20040SOL    HW264678   8.773  10.958  11.404  1.7652 -0.6153  0.9761
20041SOL     OW64679   8.690   8.717  11.582  0.1337  0.0001  0.1851
20041SOL    HW164680   8.736   8.650  11.531  0.7686  0.4951  0.0967
20041SOL    HW264681   8.677   8.677  11.668  1.7011  0.2432  0.5519
20042SOL     OW64682   0.676   9.104   6.046 -0.5767  0.0376  0.6201
20042SOL    HW164683   0.684   9.199   6.052 -0.2826  0.0073  0.7156
20042SOL    HW264684   0.739   9.079   5.979 -2.4060  0.1570 -1.2250
20043SOL     OW64685   3.373   7.166   6.051  0.1887  0.2634  0.0892
20043SOL    HW164686   3.350   7.075   6.067  0.0219  0.4700  1.0783
20043SOL    HW264687   3.379   7.173   5.956  1.1239 -1.0064  0.0305
20044SOL     OW64688   4.812   3.581   2.499  0.4227 -0.2081  0.2393
20044SOL    HW164689   4.730   3.582   2.450  0.7718 -0.8828 -0.3635
20044SOL    HW264690   4.870   3.637   2.449  0.3075  0.3717  0.7340
20045SOL     OW64691  10.128   5.231  11.539  0.6671 -0.2096 -0.2130
20045SOL    HW164692  10.038   5.260  11.524  0.3852 -1.5820 -1.4078
20045SOL    HW264693  10.120   5.159  11.602  0.9457 -0.2599 -0.2344
20046SOL     OW64694   6.095   1.908   1.780 -0.3021  0.0219 -0.0492
20046SOL    HW164695   6.141   1.890   1.698  2.1174  0.1767  1.1891
20046SOL    HW264696   6.018   1.851   1.777  1.7236 -2.9199 -0.7572
20047SOL     OW64697   3.660   1.923  12.045  0.3185 -0.1536  0.1228
20047SOL    HW164698   3.708   1.977  11.983 -1.9156 -0.5324 -2.1062
20047SOL    HW264699   3.592   1.981  12.079  0.5567 -0.3977  1.0300
20048SOL     OW64700   0.007   7.472  10.424 -0.2431  0.2869  0.5069
20048SOL    HW164701  -0.006   7.557  10.466 -2.0700  0.2791  0.0453
20048SOL    HW264702   0.052   7.420  10.490 -0.3664  1.1784  1.3240
20049SOL     OW64703   7.358   0.526   7.645  0.0492 -0.3852  0.2669
20049SOL    HW164704   7.396   0.440   7.628 -1.3399 -1.2214  1.1535
20049SOL    HW264705   7.277   0.527   7.594  0.1072  0.4354  0.1811
20050SOL     OW64706  10.064   9.734   4.273  0.1299 -0.6669 -0.1754
20050SOL    HW164707  10.074   9.695   4.187  0.3297  0.3769 -0.6396
20050SOL    HW264708  10.153   9.761   4.298 -0.1606  0.5481 -0.3924
20051SOL     OW64709  10.339   8.141   8.593 -0.6708 -0.5173 -0.3441
20051SOL    HW164710  10.255   8.096   8.589 -0.5174 -1.0214  1.2739
20051SOL    HW264711  10.391   8.088   8.653 -0.1257  1.2697  0.8412
20052SOL     OW64712   9.354   3.773  11.480  0.0935  0.2424 -0.4872
20052SOL    HW164713   9.288   3.733  11.538  2.3917 -1.0646  1.4018
20052SOL    HW264714   9.303   3.806  11.406 -2.7354 -0.2057  1.0966
20053SOL     OW64715   9.981  11.375  11.029 -0.3427 -0.8187  0.0111
20053SOL    HW164716  10.048  11.348  10.966 -0.4325  1.1236 -1.0025
20053SOL    HW264717  10.024  11.367  11.115  1.6224  1.2764 -0.6497
20054SOL     OW64718   4.274   1.602   1.269 -0.0542  0.4855 -0.4455
20054SOL    HW164719   4.309   1.666   1.330  0.0977  1.2906 -1.3579
20054SOL    HW264720   4.330   1.525   1.279 -0.5792  0.2687  1.0608
20055SOL     OW64721   9.116   8.956  10.398 -0.0832 -0.1295  0.6055
20055SOL    HW164722   9.195   8.906  10.417 -0.5855 -0.4412  1.9526
20055SOL    HW264723   9.083   8.982  10.484 -2.7073 -1.9742  0.2659
20056SOL     OW64724   5.454   9.319   8.373  0.3613  0.1450 -0.0808
20056SOL    HW164725   5.506   9.240   8.357  1.4210  1.0041 -1.0350
20056SOL    HW264726   5.452   9.365   8.289 -0.5858  0.9333  0.3499
20057SOL     OW64727   2.364   5.177   5.532 -0.4664  0.4362 -0.2580
20057SOL    HW164728   2.353   5.146   5.442  0.5517  0.5961 -0.4551
20057SOL    HW264729   2.386   5.099   5.582  0.3992  0.5485 -0.4352
20058SOL     OW64730   2.948  10.015   3.003 -0.2726 -0.0978  0.5071
20058SOL    HW164731   3.034   9.980   2.981 -0.0185 -0.2968  1.7420
20058SOL    HW264732   2.942  10.097   2.954 -0.1416 -0.9699 -1.0166
20059SOL     OW64733  11.801   0.709   3.795 -0.4194  0.2762 -0.2652
20059SOL    HW164734  11.865   0.720   3.724 -1.5066 -0.8417 -1.4607
20059SOL    HW264735  11.750   0.790   3.793 -1.0271 -0.1045 -1.4036
20060SOL     OW64736   0.207   8.694   1.582 -0.1919 -0.3278  0.2445
20060SOL    HW164737   0.245   8.674   1.667 -0.0993 -1.0486  0.0392
20060SOL    HW264738   0.170   8.782   1.593  0.0540 -0.3018  0.9424
20061SOL     OW64739   9.510  10.422   9.749 -0.3312 -0.0258 -0.0177
20061SOL    HW164740   9.604  10.422   9.733 -0.3042 -0.1146  0.1392
20061SOL    HW264741   9.472  10.455   9.667 -0.2918 -1.9163 -0.8668
20062SOL     OW64742   5.630   3.232   0.329  0.2695  0.9000  0.3181
20062SOL    HW164743   5.540   3.198   0.334  0.7032 -0.9238 -2.3741
20062SOL    HW264744   5.622   3.322   0.360 -2.3491  0.5726  0.8972
20063SOL     OW64745   6.422   1.896  10.544 -0.1308  0.5231 -0.0497
20063SOL    HW164746   6.441   1.959  10.614 -3.4893  0.6262  0.9474
20063SOL    HW264747   6.343   1.930  10.502  0.0158 -1.1896 -1.8958
20064SOL     OW64748   6.276   7.849   1.926  0.6033 -0.0612  0.6772
20064SOL    HW164749   6.191   7.808   1.938 -0.6687  2.3331  0.4074
20064SOL    HW264750   6.283   7.911   1.999  1.6541  0.4904  0.1292
20065SOL     OW64751   8.371   7.546   4.434  0.4497 -0.7111 -0.0696
20065SOL    HW164752   8.361   7.468   4.379  3.7895 -1.1450 -0.2423
20065SOL    HW264753   8.447   7.591   4.399 -0.7938  2.1844  0.6630
20066SOL     OW64754   4.362   7.514   2.204 -0.0702 -0.7116  0.0390
20066SOL    HW164755   4.431   7.489   2.266 -0.2053 -0.7332  0.1814
20066SOL    HW264756   4.337   7.602   2.231 -0.9134 -1.1482  0.7189
20067SOL     OW64757  11.091   6.176   2.539 -0.2630 -0.0728  0.1896
20067SOL    HW164758  11.131   6.185   2.625  0.4379  0.1741 -0.1584
20067SOL    HW264759  10.997   6.191   2.555 -0.3435 -1.4092  1.1311
20068SOL     OW64760   4.985   8.677   7.232  0.2752 -0.0451 -0.5886
20068SOL    HW164761   5.046   8.738   7.190  1.8509 -0.7570  0.5859
20068SOL    HW264762   4.997   8.594   7.185 -0.7115  0.1071 -1.1477
20069SOL     OW64763   4.997   4.725   5.808  0.2621  0.4744  0.7696
20069SOL    HW164764   4.965   4.635   5.811  0.4106  0.4434  1.9984
20069SOL    HW264765   4.955   4.763   5.731 -0.4091 -0.4188  0.6792
20070SOL     OW64766   3.539   8.169   3.845  0.0319 -0.2649 -0.0584
20070SOL    HW164767   3.580   8.085   3.864 -0.2786 -0.0706  1.5465
20070SOL    HW264768   3.476   8.182   3.916 -1.8218  0.1017 -1.6720
20071SOL     OW64769   5.295  10.845  10.169 -0.1260  0.3045 -0.4843
20071SOL    HW164770   5.227  10.841  10.102  2.2874  1.2698 -3.1956
20071SOL    HW264771   5.368  10.795  10.133  0.7793 -0.5117  2.2024
20072SOL     OW64772   3.767   6.658   8.968 -0.2885  0.0199  0.0778
20072SOL    HW164773   3.769   6.646   9.063 -0.4666 -0.0077  0.0789
20072SOL    HW264774   3.689   6.609   8.940 -1.3988  1.6811  0.1568
20073SOL     OW64775   6.148   7.958   5.971  0.9494  0.2512 -0.2107
20073SOL    HW164776   6.200   7.919   5.901  0.9320  0.1723 -0.1797
20073SOL    HW264777   6.057   7.952   5.941  0.8843 -0.3395  0.0877
20074SOL     OW64778   8.734   5.299   9.862  0.3738  0.2464 -0.5532
20074SOL    HW164779   8.769   5.217   9.897  2.1828  1.5395  0.9080
20074SOL    HW264780   8.672   5.272   9.795  0.0130 -2.3355  0.6698
20075SOL     OW64781   4.806   7.646   8.952 -0.1445  0.1355 -0.4103
20075SOL    HW164782   4.821   7.740   8.959 -0.9990  0.2574 -0.1762
20075SOL    HW264783   4.889   7.607   8.981  0.8641  0.8215 -2.2258
20076SOL     OW64784  10.903   7.762   4.782 -0.0775  0.4363  0.0738
20076SOL    HW164785  10.814   7.770   4.749  0.3315 -0.4495 -1.3079
20076SOL    HW264786  10.925   7.850   4.813 -1.0420  0.9111 -0.5417
20077SOL     OW64787   6.169   8.592   8.008  0.4128 -0.3516 -0.1237
20077SOL    HW164788   6.243   8.532   8.018  0.8511  0.2460  0.2700
20077SOL    HW264789   6.180   8.656   8.078 -1.2242 -1.0093  0.8050
20078SOL     OW64790   2.053   2.370   3.536  0.0644 -0.2888 -0.4205
20078SOL    HW164791   2.067   2.319   3.456 -0.8396  0.5614 -1.1490
20078SOL    HW264792   2.039   2.459   3.505 -0.2135  0.0717  0.7022
20079SOL     OW64793   0.981   0.810   6.851 -0.1177  0.6613 -0.4824
20079SOL    HW164794   0.932   0.788   6.930 -0.3386 -0.4783 -0.9027
20079SOL    HW264795   1.020   0.727   6.823  0.0475  1.0589 -1.4990
20080SOL     OW64796   1.792   8.269   5.276  0.2828  0.0028  0.2265
20080SOL    HW164797   1.820   8.178   5.286 -0.6601 -0.3020  0.2243
20080SOL    HW264798   1.697   8.266   5.288 -0.0166  0.6864 -1.7542
20081SOL     OW64799   4.587   7.232   8.596 -0.4909 -0.0516 -0.1377
20081SOL    HW164800   4.587   7.327   8.604 -1.4619 -0.1114  0.9007
20081SOL    HW264801   4.670   7.204   8.635  0.1619  0.4085 -1.1785
20082SOL     OW64802   3.971  11.888   1.387 -0.0670 -0.2497 -0.1810
20082SOL    HW164803   3.917  11.831   1.332  0.6520 -0.0079 -1.1700
20082SOL    HW264804   4.020  11.942   1.325  1.3518 -0.4961  0.6787
20083SOL     OW64805   1.972   6.499   5.906 -0.3412  0.0060 -0.3155
20083SOL    HW164806   1.982   6.409   5.873  0.4796 -0.1552  0.3268
20083SOL    HW264807   2.007   6.554   5.837 -0.0871 -0.2227 -0.3703
20084SOL     OW64808   7.880   0.486  10.027 -0.3523 -0.1440  0.1572
20084SOL    HW164809   7.817   0.534  10.080 -1.6918 -2.4660  0.8238
20084SOL    HW264810   7.925   0.428  10.089 -0.0197 -0.9802 -0.8255
20085SOL     OW64811   1.902   8.954   3.464  0.0577  0.0643  0.6279
20085SOL    HW164812   1.962   8.923   3.395  0.2581 -0.5372  1.0647
20085SOL    HW264813   1.874   8.874   3.509  1.4338  0.5573  2.4774
20086SOL     OW64814   3.890   0.744   7.585 -0.3326 -0.7401  0.2264
20086SOL    HW164815   3.800   0.735   7.618 -0.1589 -3.5366  0.1433
20086SOL    HW264816   3.937   0.786   7.656 -1.4077 -0.5157  0.8388
20087SOL     OW64817   2.793   9.957   3.880  0.2730 -0.1304  0.0392
20087SOL    HW164818   2.858   9.925   3.942 -1.1091 -1.3750  0.9286
20087SOL    HW264819   2.806   9.904   3.802 -0.0199 -0.7964  0.4262
20088SOL     OW64820   5.736  11.566   6.996 -0.1339 -0.2267  0.4155
20088SOL    HW164821   5.730  11.578   6.901  1.5063  0.4593  0.3635
20088SOL    HW264822   5.691  11.483   7.013 -0.9524 -0.0774 -0.8734
20089SOL     OW64823  11.398  10.144  12.104 -0.1083  0.2917  0.0958
20089SOL    HW164824  11.411  10.049  12.098  0.2147  0.1692  2.0379
20089SOL    HW264825  11.303  10.155  12.110 -0.1011  0.0120  0.7693
20090SOL     OW64826   3.190   1.369   5.107  0.3345 -0.2519 -0.4417
20090SOL    HW164827   3.155   1.281   5.120  1.3289 -0.8319 -1.6261
20090SOL    HW264828   3.280   1.364   5.138 -0.0666  0.8272  1.0774
20091SOL     OW64829  10.810   8.653   1.872 -0.5365  0.1535  0.3108
20091SOL    HW164830  10.797   8.657   1.967  1.3249 -1.6617  0.7319
20091SOL    HW264831  10.758   8.577   1.845 -0.6190  0.3374 -0.0525
20092SOL     OW64832   2.047   9.065   7.587 -0.1382  0.1601 -0.1225
20092SOL    HW164833   1.964   9.113   7.586 -0.0979  0.2411 -1.3374
20092SOL    HW264834   2.097   9.102   7.514 -0.1412 -1.7512 -1.1460
20093SOL     OW64835   1.927  11.738   4.358 -0.0049 -0.3154  0.3435
20093SOL    HW164836   1.948  11.644   4.353  1.6396  0.0510 -0.5665
20093SOL    HW264837   1.831  11.741   4.359 -0.1060 -1.9754 -0.3360
20094SOL     OW64838   5.593   3.129   7.563  0.4551  0.3109  0.5753
20094SOL    HW164839   5.581   3.151   7.656 -1.0394 -0.4795  0.5940
20094SOL    HW264840   5.654   3.055   7.564  0.7247  0.5357  0.9014
20095SOL     OW64841   1.756   6.661   3.964 -0.1799  0.3106 -0.1279
20095SOL    HW164842   1.753   6.573   3.925 -0.1881  0.0300  0.4899
20095SOL    HW264843   1.847   6.689   3.952 -0.0863  0.0642 -0.0060
20096SOL     OW64844   2.717   5.631   2.723  0.0856  0.0194  0.3833
20096SOL    HW164845   2.809   5.615   2.744  0.1308  0.2314  0.3495
20096SOL    HW264846   2.682   5.672   2.803 -0.2084 -0.9136  0.7420
20097SOL     OW64847   3.953   4.056   5.833 -0.0410  0.3376 -0.4144
20097SOL    HW164848   3.935   4.150   5.832 -0.7686  0.2906  2.2417
20097SOL    HW264849   3.868   4.015   5.847  0.4970 -0.6074  0.2047
20098SOL     OW64850  11.707   4.824   6.877  0.3257 -0.0437  0.4484
20098SOL    HW164851  11.618   4.807   6.909  0.9723 -1.7977  1.4432
20098SOL    HW264852  11.760   4.756   6.917  3.1919  3.9393  4.4363
20099SOL     OW64853   6.577  10.823   9.517 -0.6172 -0.2656  0.2105
20099SOL    HW164854   6.658  10.781   9.545 -0.0385  0.4013 -0.4141
20099SOL    HW264855   6.565  10.897   9.577  0.5493  1.0799 -1.1474
20100SOL     OW64856   8.960   6.329   1.866  0.5315  0.1732 -0.0027
20100SOL    HW164857   8.948   6.273   1.942 -1.9174  0.7731  0.1343
20100SOL    HW264858   8.963   6.418   1.901  0.9369  0.3590 -0.4885
20101SOL     OW64859   1.137   1.695   7.736 -0.0002 -0.2227  0.3683
20101SOL    HW164860   1.095   1.776   7.766 -0.1314 -0.8777  2.0488
20101SOL    HW264861   1.093   1.626   7.785  0.7668 -1.2272 -0.3302
20102SOL     OW64862   8.976  11.678   9.281 -0.3011  0.0302 -0.5730
20102SOL    HW164863   9.049  11.715   9.230 -0.5559  1.5449  0.0964
20102SOL    HW264864   9.019  11.635   9.355 -0.0630  0.6497 -0.3446
20103SOL     OW64865   9.373  10.782   8.852  0.0093 -0.5463  0.2287
20103SOL    HW164866   9.427  10.851   8.814 -0.3741 -0.3525  0.0326
20103SOL    HW264867   9.351  10.726   8.779 -1.1701  0.1194  0.0514
20104SOL     OW64868   9.355   1.167   9.221  0.0901 -0.9806 -0.0670
20104SOL    HW164869   9.296   1.173   9.296 -0.6501 -0.2592 -0.6800
20104SOL    HW264870   9.301   1.127   9.152 -0.2593  1.1732 -1.1400
20105SOL     OW64871  11.302   8.943   1.075  0.1385 -0.2384  0.5818
20105SOL    HW164872  11.388   8.971   1.043 -0.3822  2.4923  1.3638
20105SOL    HW264873  11.247   8.939   0.997  0.2518  0.9935  0.4182
20106SOL     OW64874   3.876   1.921   0.783  0.1137 -0.5336 -0.6572
20106SOL    HW164875   3.823   1.859   0.832  0.3888 -0.7864 -0.6750
20106SOL    HW264876   3.814   1.965   0.725  0.0371 -1.3813 -1.2417
20107SOL     OW64877   1.571   9.728   0.542  0.2925  0.2983  0.0276
20107SOL    HW164878   1.617   9.660   0.591  0.8110  1.8079  1.7634
20107SOL    HW264879   1.592   9.710   0.451  0.6602 -1.6637  0.4471
20108SOL     OW64880  11.408   5.823   6.559 -0.0168  0.2827 -0.2204
20108SOL    HW164881  11.426   5.858   6.646 -0.2045 -1.0822  0.3749
20108SOL    HW264882  11.348   5.886   6.520 -0.2389  0.7001  0.7759
20109SOL     OW64883   7.649  10.027   8.488 -0.3181  0.5336 -0.0743
20109SOL    HW164884   7.629  10.110   8.444  1.1080  0.8631 -0.1475
20109SOL    HW264885   7.584  10.022   8.558 -1.4131  0.9342 -1.0321
20110SOL     OW64886  10.274   5.515   5.323 -1.0545  0.2714  0.2558
20110SOL    HW164887  10.303   5.587   5.379 -2.8005  0.4529  0.9879
20110SOL    HW264888  10.179   5.519   5.325 -1.3006  0.9478 -3.5909
20111SOL     OW64889   8.672   0.434   1.918  0.2283 -0.1174  0.3361
20111SOL    HW164890   8.599   0.375   1.906 -0.2656  0.2827  1.2546
20111SOL    HW264891   8.639   0.520   1.891  1.0272 -0.2792 -1.2652
20112SOL     OW64892   7.362   4.520   8.226 -0.5351  0.2110  0.2152
20112SOL    HW164893   7.324   4.457   8.165  1.9619 -2.3890  1.1000
20112SOL    HW264894   7.442   4.550   8.182  0.8108 -0.9892  1.7281
20113SOL     OW64895   5.208   7.617  10.670  0.1940  0.1189  0.5863
20113SOL    HW164896   5.255   7.691  10.632 -0.2233  0.7692  1.3006
20113SOL    HW264897   5.242   7.610  10.759 -1.4805  1.0098  1.3308
20114SOL     OW64898  10.962   2.151   4.180 -0.7559 -0.8182  0.1267
20114SOL    HW164899  10.963   2.057   4.166  0.6777 -0.7954 -0.0282
20114SOL    HW264900  10.987   2.162   4.272  0.9052 -0.5360 -0.3357
20115SOL     OW64901  10.042   7.002  11.921 -0.4063  0.3272 -0.2507
20115SOL    HW164902  10.012   7.001  12.012  0.8697 -0.1791  0.1804
20115SOL    HW264903  10.046   6.910  11.896 -2.6673  0.4817 -1.5183
20116SOL     OW64904   8.921   6.754  11.587  0.4022  0.2454 -0.7457
20116SOL    HW164905   8.891   6.682  11.532  0.3132 -0.2478 -0.0502
20116SOL    HW264906   8.861   6.755  11.661 -0.5511  2.0079 -1.4785
20117SOL     OW64907   0.723   6.613  11.328 -0.3680  0.0546 -0.1625
20117SOL    HW164908   0.799   6.638  11.380 -0.0527  0.0136 -0.6052
20117SOL    HW264909   0.756   6.551  11.264 -1.1039 -1.3333  0.7496
20118SOL     OW64910   3.260   8.991   6.296  0.2833 -0.0309  0.1211
20118SOL    HW164911   3.352   8.975   6.318 -0.0351 -0.9610  0.8374
20118SOL    HW264912   3.254   9.086   6.283  1.6630 -0.1161 -1.4695
20119SOL     OW64913   7.982   5.168   6.370 -0.4286  0.1004 -0.1334
20119SOL    HW164914   7.939   5.252   6.353 -0.8014 -0.2234 -0.8134
20119SOL    HW264915   7.944   5.138   6.453  0.8677  1.3368  0.9727
20120SOL     OW64916   9.565   5.346   4.461  0.2199  0.0052 -0.2554
20120SOL    HW164917   9.590   5.326   4.551  0.6314  0.8470 -0.1692
20120SOL    HW264918   9.470   5.336   4.460  0.2000  0.0833  0.3049
20121SOL     OW64919   2.531   9.191   4.786  0.0069 -0.1063 -0.4835
20121SOL    HW164920   2.574   9.107   4.770 -2.4504 -1.2880 -1.4258
20121SOL    HW264921   2.481   9.178   4.867  0.1937  0.7167 -0.2200
20122SOL     OW64922   8.098   2.695   9.359 -0.1589  0.1362 -0.8610
20122SOL    HW164923   8.180   2.704   9.407 -1.6411 -0.3577  1.9425
20122SOL    HW264924   8.085   2.600   9.350 -1.4497  0.1133  0.7482
20123SOL     OW64925   0.848   9.531   3.587  0.1834  0.1534  0.7398
20123SOL    HW164926   0.893   9.473   3.648 -1.0777 -1.1761  0.4624
20123SOL    HW264927   0.868   9.495   3.500 -0.4726  0.2302  0.5508
20124SOL     OW64928   2.269   0.284  11.677 -0.4839  0.2837 -0.5179
20124SOL    HW164929   2.242   0.316  11.591 -1.2691 -1.1145 -0.8447
20124SOL    HW264930   2.186   0.274  11.725 -0.6307 -3.1960 -1.2004
20125SOL     OW64931   3.919  11.319  10.115 -0.5748 -0.4574  0.1818
20125SOL    HW164932   3.958  11.234  10.135 -2.4413 -1.1684  1.0009
20125SOL    HW264933   3.876  11.345  10.197 -1.2959  0.5755 -0.5016
20126SOL     OW64934   1.980   0.150   0.897  0.7892  0.3644 -0.1749
20126SOL    HW164935   1.930   0.197   0.964  1.2434  0.0758  0.3721
20126SOL    HW264936   1.992   0.214   0.827  0.3245  0.6750  0.0240
20127SOL     OW64937   6.363   8.446   0.191  0.2819 -0.1416  0.2269
20127SOL    HW164938   6.274   8.428   0.222  0.4041  3.0163  3.0011
20127SOL    HW264939   6.354   8.455   0.096 -2.0745 -1.1729  0.2832
20128SOL     OW64940   1.233   2.842  12.105 -0.0950 -0.1488  0.2247
20128SOL    HW164941   1.239   2.910  12.171  0.5915 -0.3113  0.3375
20128SOL    HW264942   1.167   2.781  12.138 -1.5605  1.0228 -0.4082
20129SOL     OW64943  11.288   6.580   1.949 -0.1764 -0.1336 -0.0906
20129SOL    HW164944  11.238   6.642   1.896 -0.2954  0.2002  0.4024
20129SOL    HW264945  11.315   6.631   2.026  1.4306 -0.1225 -0.6221
20130SOL     OW64946  11.599   9.873   8.421  0.2987 -0.0320 -0.0623
20130SOL    HW164947  11.574   9.919   8.341  1.3567  0.2502 -0.2531
20130SOL    HW264948  11.640   9.792   8.390 -0.4317 -0.5259  0.2390
20131SOL     OW64949   5.324   7.898  11.878  0.0572 -0.2382 -0.5659
20131SOL    HW164950   5.419   7.910  11.887 -0.1376  1.4889 -0.4989
20131SOL    HW264951   5.286   7.955  11.945 -1.0408  0.7705 -1.9676
20132SOL     OW64952  11.334   3.830   5.033 -0.6351  0.0899 -0.1210
20132SOL    HW164953  11.409   3.874   4.993 -0.0926 -0.1103  0.6532
20132SOL    HW264954  11.349   3.737   5.015 -0.0587 -0.0657  1.0341
20133SOL     OW64955   8.253   9.524   3.810 -0.4396 -0.6737 -0.8246
20133SOL    HW164956   8.288   9.554   3.894 -2.1536  0.3465 -0.4312
20133SOL    HW264957   8.229   9.432   3.825  0.2341 -0.8091 -0.5391
20134SOL     OW64958   8.433   7.626  12.121  0.0031 -0.1227 -0.2672
20134SOL    HW164959   8.477   7.551  12.080  1.6382  1.5030 -1.6711
20134SOL    HW264960   8.488   7.646  12.197  1.2400  1.3102 -1.4741
20135SOL     OW64961   5.601   9.236  12.009  0.5688  0.2604  0.4771
20135SOL    HW164962   5.640   9.151  12.027 -1.2593 -0.6193  0.5469
20135SOL    HW264963   5.675   9.296  12.002  2.0143 -1.5845 -1.0786
20136SOL     OW64964   5.137  11.127   8.710 -0.4280  0.3470 -0.3300
20136SOL    HW164965   5.135  11.190   8.782  2.1496  0.8131 -0.5680
20136SOL    HW264966   5.081  11.166   8.643 -0.4116  1.4307  0.2567
20137SOL     OW64967   4.698   9.436   1.275 -0.4144 -0.6823 -0.2141
20137SOL    HW164968   4.734   9.522   1.254  0.1249 -0.4909  1.3890
20137SOL    HW264969   4.645   9.450   1.354 -2.3005 -1.3855 -1.2849
20138SOL     OW64970   7.513   3.803   9.630  0.1791 -0.7803  0.5947
20138SOL    HW164971   7.559   3.734   9.582 -1.3606 -1.8879  0.6473
20138SOL    HW264972   7.465   3.758   9.699 -1.5386  0.2015  0.1191
20139SOL     OW64973   8.082   4.681   1.145  0.6334  0.1904 -0.2433
20139SOL    HW164974   8.122   4.621   1.083  0.0453  0.2212 -0.6505
20139SOL    HW264975   8.133   4.762   1.136  2.4661 -0.6688  1.4241
20140SOL     OW64976  11.471   4.266  11.761  0.0399  0.1812  0.2737
20140SOL    HW164977  11.433   4.194  11.812 -1.9981  0.9886 -0.0159
20140SOL    HW264978  11.559   4.276  11.796 -0.5014 -0.7912  2.0555
20141SOL     OW64979   7.242   4.289  11.124  0.0744 -0.5766 -0.1287
20141SOL    HW164980   7.167   4.241  11.159  0.0833 -0.6985 -0.2772
20141SOL    HW264981   7.273   4.341  11.198 -0.3710 -0.2563 -0.1596
20142SOL     OW64982   3.565   2.029   5.127 -0.2491 -0.3490 -0.3180
20142SOL    HW164983   3.652   1.996   5.102  0.1590  1.4743 -1.4964
20142SOL    HW264984   3.516   2.031   5.045 -0.8262  0.2627  0.0395
20143SOL     OW64985   5.113   4.923   3.594 -0.3622  0.2364  0.3391
20143SOL    HW164986   5.113   4.853   3.659  1.4415 -0.1916 -0.0820
20143SOL    HW264987   5.055   4.891   3.524 -0.6937 -0.1829  0.7992
20144SOL     OW64988  10.206   7.498   0.797  0.2031  0.5486 -0.1289
20144SOL    HW164989  10.167   7.503   0.710 -1.2041 -0.5839  0.3997
20144SOL    HW264990  10.202   7.588   0.830  0.0058  0.8358 -0.9148
20145SOL     OW64991   6.936   6.599   0.332  0.4079  0.5773 -0.1852
20145SOL    HW164992   6.911   6.684   0.370 -0.9929  0.5131 -0.8914
20145SOL    HW264993   6.906   6.604   0.241  1.5421 -0.1764 -0.6218
20146SOL     OW64994   8.230   5.054   1.178 -0.6736  0.1498 -0.7268
20146SOL    HW164995   8.180   5.135   1.168  0.3402  0.7947 -0.7060
20146SOL    HW264996   8.182   4.989   1.126 -1.5636  0.7183 -0.6416
20147SOL     OW64997   4.264   3.023   7.672  0.7369  0.6436 -0.4372
20147SOL    HW164998   4.202   2.953   7.695  0.5961  0.7286 -0.5546
20147SOL    HW264999   4.302   3.049   7.756  1.5832 -0.2992 -0.5064
20148SOL     OW65000   4.553   1.808   6.146 -0.3326 -0.0130 -0.3885
20148SOL    HW165001   4.460   1.798   6.128 -0.6484  1.1827  0.5084
20148SOL    HW265002   4.563   1.897   6.177  0.9860 -0.3760  0.3243
20149SOL     OW65003   9.981  11.149   5.290 -0.4461  0.5355  0.3954
20149SOL    HW165004  10.065  11.108   5.272  0.2119  1.2623  1.6374
20149SOL    HW265005   9.932  11.085   5.341 -0.0903  0.6398  0.8708
20150SOL     OW65006   2.868   7.072   2.210 -1.0486 -0.4459 -0.0939
20150SOL    HW165007   2.891   6.985   2.179  1.4562  0.8919 -2.3662
20150SOL    HW265008   2.784   7.091   2.168 -1.6543 -1.7576  0.4920
20151SOL     OW65009   3.768  11.109   3.352  0.1912  0.3652  0.2835
20151SOL    HW165010   3.758  11.052   3.428  0.1362  0.6968  0.5245
20151SOL    HW265011   3.858  11.094   3.322 -0.7053 -2.1928 -1.5334
20152SOL     OW65012  11.272   5.428   4.670  0.0035 -0.4525  0.5290
20152SOL    HW165013  11.332   5.483   4.721  0.0697 -0.2216  0.2016
20152SOL    HW265014  11.191   5.478   4.666  0.7186  0.6819 -1.6585
20153SOL     OW65015   1.476  11.318   9.294  0.9104  0.0072 -0.4194
20153SOL    HW165016   1.536  11.267   9.349  0.8824  0.0647 -0.3363
20153SOL    HW265017   1.419  11.364   9.356  0.4100 -0.4881 -0.5021
20154SOL     OW65018   0.040   6.402  10.589 -0.2602  0.2167 -0.7241
20154SOL    HW165019   0.009   6.393  10.680 -0.3899  0.5358 -0.7352
20154SOL    HW265020   0.054   6.312  10.560 -0.6312  0.0923 -0.5280
20155SOL     OW65021   4.351   1.020  10.106  0.4434 -0.1449  0.5010
20155SOL    HW165022   4.278   1.080  10.093  1.3759  0.5760 -1.8638
20155SOL    HW265023   4.330   0.974  10.188 -1.4940  1.6376  1.0902
20156SOL     OW65024   5.509   1.616   1.765 -0.8091  0.1877  0.0347
20156SOL    HW165025   5.524   1.695   1.816 -1.2476  0.8032 -0.7661
20156SOL    HW265026   5.540   1.545   1.821  0.0674  0.9610  0.5597
20157SOL     OW65027   3.761   0.660   8.057  0.0462 -0.1632  0.2686
20157SOL    HW165028   3.824   0.592   8.034  1.5649  1.3242 -0.2615
20157SOL    HW265029   3.685   0.613   8.090  1.0589 -2.0881  0.0128
20158SOL     OW65030   6.732   0.363   3.897 -0.0243  0.4784 -0.0397
20158SOL    HW165031   6.788   0.431   3.858 -0.8078  0.0384 -2.0100
20158SOL    HW265032   6.647   0.405   3.906  0.4417  1.0464  2.6780
20159SOL     OW65033   5.235   7.740   7.257 -0.3893  0.4333  0.3898
20159SOL    HW165034   5.240   7.648   7.232  2.2153  0.4243  0.5795
20159SOL    HW265035   5.317   7.756   7.304  0.4211  3.4233 -1.7458
20160SOL     OW65036   9.864   0.324   9.498  0.1127 -0.0992 -0.3233
20160SOL    HW165037   9.894   0.244   9.455  1.9514  0.4412 -0.1451
20160SOL    HW265038   9.942   0.358   9.542 -0.8734  1.2571  0.4457
20161SOL     OW65039   2.210   1.354  10.406 -1.0788  0.0232 -0.3272
20161SOL    HW165040   2.128   1.308  10.425 -1.3127  0.1353 -1.0532
20161SOL    HW265041   2.196   1.395  10.321  0.2525 -1.1966 -1.1780
20162SOL     OW65042   9.209  12.077  10.108  0.0867 -0.3589 -0.0274
20162SOL    HW165043   9.247  12.080  10.196  1.7722  0.4022 -0.7557
20162SOL    HW265044   9.149  12.152  10.106  0.1531 -0.2864  0.4090
20163SOL     OW65045   8.399   2.653   9.735  0.0984  0.4707 -0.2736
20163SOL    HW165046   8.459   2.582   9.756  1.2873  1.6919  0.6807
20163SOL    HW265047   8.313   2.621   9.760  0.6898 -0.4279  0.6675
20164SOL     OW65048   3.129   9.502   5.410 -0.4032  0.0936  0.0212
20164SOL    HW165049   3.150   9.568   5.343 -1.0488  1.0512  0.7275
20164SOL    HW265050   3.122   9.420   5.362 -0.2412  0.6581 -0.9943
20165SOL     OW65051  10.557  11.221   7.038  0.8191 -0.0187 -0.3447
20165SOL    HW165052  10.499  11.153   7.072  0.9522 -0.8483 -1.7050
20165SOL    HW265053  10.645  11.183   7.042  0.6074 -1.3391 -4.0957
20166SOL     OW65054   0.692   8.959   9.156 -0.0910  0.1819 -0.2041
20166SOL    HW165055   0.761   8.962   9.222  0.4846 -0.2305 -0.7818
20166SOL    HW265056   0.735   8.981   9.074  0.0656 -3.1024 -1.1179
20167SOL     OW65057   6.845   9.026   7.882  0.4172 -0.1603 -0.0662
20167SOL    HW165058   6.896   9.072   7.950 -0.8307  2.8390 -0.9907
20167SOL    HW265059   6.832   9.092   7.814 -1.7976 -1.8578 -1.3973
20168SOL     OW65060   5.555   5.223   8.082 -0.0557  0.1831 -0.8980
20168SOL    HW165061   5.602   5.237   8.000 -0.5585 -0.5292 -1.3246
20168SOL    HW265062   5.506   5.304   8.096  1.1805  0.8810 -0.5177
20169SOL     OW65063   7.072   6.425   5.915 -0.1093  0.4646 -0.2011
20169SOL    HW165064   7.069   6.330   5.924  0.5068  0.4531 -0.0466
20169SOL    HW265065   7.092   6.456   6.004  1.4090  0.6321 -0.5748
20170SOL     OW65066  10.918   0.520   3.026  0.0920  0.0426 -0.3464
20170SOL    HW165067  10.882   0.492   3.110  0.1360  4.0476  1.2440
20170SOL    HW265068  11.005   0.481   3.023 -0.2053 -0.8118  1.1229
20171SOL     OW65069   6.454   0.674   5.191 -0.1011  0.1514  0.3082
20171SOL    HW165070   6.453   0.647   5.099  1.5032 -1.0249  0.6010
20171SOL    HW265071   6.545   0.698   5.208 -0.6854  1.9144  1.1951
20172SOL     OW65072   9.078   6.454   9.200 -0.7097  0.0471  0.4102
20172SOL    HW165073   9.053   6.368   9.167 -0.1118  0.2641 -0.6686
20172SOL    HW265074   9.072   6.446   9.295 -1.0597 -1.0569  0.3084
20173SOL     OW65075  10.392   6.288   7.762 -0.3442  0.0272  0.2703
20173SOL    HW165076  10.331   6.328   7.824  0.2992  1.4818  0.0095
20173SOL    HW265077  10.469   6.267   7.814 -0.2717  0.1149  0.1977
20174SOL     OW65078  11.877   5.532   2.683 -0.5941 -0.2865  0.1461
20174SOL    HW165079  11.954   5.476   2.671  0.7280  1.5733 -0.6059
20174SOL    HW265080  11.802   5.474   2.667  0.6189 -2.1853  1.0184
20175SOL     OW65081   9.715   4.018   6.146 -0.4492  0.3742 -0.1756
20175SOL    HW165082   9.634   3.986   6.186 -1.4533  2.0094 -0.8265
20175SOL    HW265083   9.737   3.951   6.081 -0.7353 -0.5538  0.6533
20176SOL     OW65084   1.776  10.758   0.163 -0.5380  0.2169 -0.3467
20176SOL    HW165085   1.772  10.755   0.067  0.3455 -0.8594 -0.3690
20176SOL    HW265086   1.689  10.732   0.191 -0.3910 -0.9298 -0.8724
20177SOL     OW65087  10.988   3.995   2.490  0.3622  0.0087  0.8396
20177SOL    HW165088  10.992   4.089   2.507  0.0644  0.4189 -1.1190
20177SOL    HW265089  10.913   3.984   2.431  1.6978 -1.1289 -0.7335
20178SOL     OW65090  10.800   0.362   8.539  0.1229 -0.2285  0.2284
20178SOL    HW165091  10.747   0.287   8.514 -0.3634  0.2513 -0.1997
20178SOL    HW265092  10.780   0.377   8.631  0.3767 -0.7482  0.3687
20179SOL     OW65093   1.069   3.510   7.162  0.3550 -0.2505 -0.7895
20179SOL    HW165094   0.990   3.461   7.186 -0.2401  0.1618 -1.8049
20179SOL    HW265095   1.049   3.601   7.183 -0.1642  0.1131 -2.6703
20180SOL     OW65096   3.492   0.732   1.849  0.5525 -0.0811 -0.2156
20180SOL    HW165097   3.457   0.683   1.775 -0.4465 -1.3959  1.0583
20180SOL    HW265098   3.453   0.819   1.841  0.9521 -0.0119 -1.5493
20181SOL     OW65099   9.880  11.965   8.554  0.5383  0.5561  0.1301
20181SOL    HW165100   9.951  11.938   8.496  0.6854  1.6213 -0.2133
20181SOL    HW265101   9.866  11.890   8.612  0.9441 -0.2193 -0.7495
20182SOL     OW65102   1.246   9.420   4.836  0.2609  0.0202  0.0014
20182SOL    HW165103   1.158   9.398   4.868  0.3988  1.7345  1.6886
20182SOL    HW265104   1.233   9.440   4.743 -1.0573 -0.1399  0.1293
20183SOL     OW65105   6.151   9.918   6.821  0.5111 -0.1955 -0.3832
20183SOL    HW165106   6.224   9.859   6.842  0.0035 -0.2405  1.3952
20183SOL    HW265107   6.150   9.981   6.893 -0.8941  0.1116 -0.6455
20184SOL     OW65108   8.356   0.530   1.254 -0.0644 -0.4752 -0.1479
20184SOL    HW165109   8.339   0.600   1.190  0.2501 -0.1496  0.1251
20184SOL    HW265110   8.270   0.488   1.265 -0.1634 -0.4104 -0.6366
20185SOL     OW65111   9.576  11.044   2.459  0.2264 -0.2062 -0.3155
20185SOL    HW165112   9.579  11.105   2.385 -0.5973 -1.6068 -1.5546
20185SOL    HW265113   9.655  10.991   2.450  1.2615  0.9911  1.1108
20186SOL     OW65114   8.679   1.991   4.224 -0.1023  0.6401 -0.1166
20186SOL    HW165115   8.736   2.047   4.173 -1.1498  0.9879 -0.9422
20186SOL    HW265116   8.591   2.024   4.207 -0.7057 -0.8994 -0.1844
20187SOL     OW65117  10.902   3.921   8.077  0.0735 -0.5598  0.5907
20187SOL    HW165118  10.982   3.869   8.085 -1.4230 -3.2360 -0.5675
20187SOL    HW265119  10.891   3.934   7.982 -1.2500 -0.8951  0.6781
20188SOL     OW65120   5.043   8.537  10.419  0.5628 -0.5236  0.1703
20188SOL    HW165121   5.072   8.459  10.467 -3.7636 -2.6610 -0.2260
20188SOL    HW265122   5.013   8.598  10.488 -0.1369 -1.1038  0.3901
20189SOL     OW65123  12.011   6.824   3.237 -0.1190  0.8757  0.1912
20189SOL    HW165124  11.938   6.782   3.283 -1.4377  1.9723 -0.8319
20189SOL    HW265125  12.042   6.758   3.176 -2.7279  1.5222 -2.0143
20190SOL     OW65126   6.137   7.600  11.377 -0.4126  0.1046  0.0235
20190SOL    HW165127   6.207   7.660  11.406  0.2164 -0.4094 -0.3931
20190SOL    HW265128   6.123   7.542  11.451 -0.9049  0.6540  0.3681
20191SOL     OW65129   0.349   9.217   9.892  0.2271  0.2524  0.1317
20191SOL    HW165130   0.413   9.217   9.821  2.7018  1.5631  2.1887
20191SOL    HW265131   0.360   9.302   9.934 -0.6978 -0.6713  2.4196
20192SOL     OW65132  10.015   3.138   0.729  0.6782  0.4519  0.3012
20192SOL    HW165133  10.000   3.055   0.684  1.4830  1.6542 -2.3812
20192SOL    HW265134  10.107   3.135   0.756  1.5394  1.4155 -2.1988
20193SOL     OW65135   3.374   6.295   3.170 -0.1747 -0.1655  0.3771
20193SOL    HW165136   3.321   6.245   3.232  0.9000 -0.8091  0.8089
20193SOL    HW265137   3.438   6.340   3.224 -0.7695  1.2800 -0.0585
20194SOL     OW65138  10.307   9.858  10.092  0.9953  0.0661  0.1722
20194SOL    HW165139  10.383   9.871  10.149  1.1994  1.1039 -0.2960
20194SOL    HW265140  10.298   9.763  10.084  0.4148 -0.1455  2.6012
20195SOL     OW65141   8.736  11.920   1.350 -0.2713 -0.5313  0.7401
20195SOL    HW165142   8.656  11.917   1.297  0.0242  3.3091 -0.1715
20195SOL    HW265143   8.724  11.995   1.407  3.3146  1.3264 -0.6543
20196SOL     OW65144   5.691   5.219   3.008 -0.2109  0.0133  0.0461
20196SOL    HW165145   5.736   5.178   3.082 -1.2229 -0.8837  0.2002
20196SOL    HW265146   5.760   5.255   2.954  0.6037 -0.1878  0.9299
20197SOL     OW65147   3.031   2.292   9.377 -0.1163 -0.1720  0.0066
20197SOL    HW165148   3.084   2.333   9.446 -0.4726 -0.4668  0.4653
20197SOL    HW265149   2.951   2.344   9.374 -0.3305 -0.4848  0.1989
20198SOL     OW65150   4.332   1.713   9.455 -0.1663  0.5904 -0.2869
20198SOL    HW165151   4.313   1.737   9.365  1.1949 -0.5695 -0.9141
20198SOL    HW265152   4.261   1.753   9.506 -1.5090  0.4441 -1.9581
20199SOL     OW65153   3.589   6.876   9.031  0.4970 -0.0707  0.2621
20199SOL    HW165154   3.668   6.835   8.994  0.6591  0.5306 -0.0625
20199SOL    HW265155   3.585   6.962   8.990 -0.4703 -0.1873  0.0862
20200SOL     OW65156   1.502   8.585  11.438 -0.5276 -0.0194  0.0521
20200SOL    HW165157   1.536   8.517  11.379 -2.6326 -1.3847  0.3335
20200SOL    HW265158   1.546   8.666  11.408  2.0699 -1.4364 -0.2691
20201SOL     OW65159   9.304   0.407   7.320 -0.0759  0.0708  0.0435
20201SOL    HW165160   9.228   0.375   7.271  0.6887  0.6580 -1.5922
20201SOL    HW265161   9.349   0.466   7.259  1.9193 -0.5781  0.7828
20202SOL     OW65162   3.732   2.234   0.975 -0.0149  0.0156 -0.0537
20202SOL    HW165163   3.695   2.314   0.938 -1.2378 -1.0555 -1.2528
20202SOL    HW265164   3.798   2.206   0.911 -0.6152 -0.6815 -0.3917
20203SOL     OW65165  10.033   2.536   4.843  0.4628 -0.2731  0.6601
20203SOL    HW165166  10.104   2.475   4.864  0.1105 -0.1840  2.2546
20203SOL    HW265167   9.965   2.517   4.908 -0.0190  1.2062  0.6228
20204SOL     OW65168   3.679   9.223  12.024 -0.5492 -0.2321 -0.2651
20204SOL    HW165169   3.722   9.184  11.948  2.2057 -0.0236  1.0575
20204SOL    HW265170   3.697   9.161  12.095 -0.3445  1.0557  0.8301
20205SOL     OW65171   6.942   3.678   6.543 -0.3837  0.0765  0.2107
20205SOL    HW165172   7.009   3.746   6.535  1.1692 -1.3875  0.2998
20205SOL    HW265173   6.944   3.632   6.460 -0.0304 -1.0809  0.8401
20206SOL     OW65174   8.978   4.183   9.200  0.0875 -0.7461 -0.2217
20206SOL    HW165175   8.892   4.215   9.172  0.1982 -0.3825 -0.1569
20206SOL    HW265176   8.965   4.090   9.216 -0.0086 -0.9572 -1.4049
20207SOL     OW65177   4.346   5.501   5.203  0.9277 -0.7524 -0.4278
20207SOL    HW165178   4.321   5.592   5.190  2.5785 -0.3755 -1.1706
20207SOL    HW265179   4.302   5.454   5.133 -2.2766 -1.0664  1.5720
20208SOL     OW65180  10.174   9.133   2.116 -0.0373  0.8111  0.2619
20208SOL    HW165181  10.195   9.055   2.167  0.4532  0.7573 -0.0205
20208SOL    HW265182  10.134   9.193   2.180  1.6960  1.2326  1.0040
20209SOL     OW65183   3.543   7.432   4.628 -0.0312  0.0520 -0.0378
20209SOL    HW165184   3.605   7.489   4.674  0.8154  0.6065 -1.7595
20209SOL    HW265185   3.530   7.357   4.686  0.6310  0.9155  1.2667
20210SOL     OW65186  11.231   8.120   7.516  0.3415 -0.3356  0.0789
20210SOL    HW165187  11.157   8.161   7.561 -0.1495  0.3365 -1.2850
20210SOL    HW265188  11.275   8.069   7.584 -0.9957 -0.2336  1.0636
20211SOL     OW65189  10.658  10.555  11.271  0.0032 -0.0928 -0.6711
20211SOL    HW165190  10.742  10.560  11.316 -0.5358 -1.3006  0.5400
20211SOL    HW265191  10.641  10.645  11.241  1.1494  0.4040  0.1044
20212SOL     OW65192  11.072  11.290   8.732  0.1011 -0.0023  0.3653
20212SOL    HW165193  11.069  11.195   8.729 -1.0762 -0.2903  4.3926
20212SOL    HW265194  10.986  11.316   8.765  1.1948  2.2053  1.7555
20213SOL     OW65195   4.768  10.344   0.223  0.2447  0.2610  0.3224
20213SOL    HW165196   4.701  10.277   0.233 -0.1106  0.7546  1.3981
20213SOL    HW265197   4.844  10.297   0.190 -0.0852 -0.6247  0.7917
20214SOL     OW65198   6.306   5.246   1.406 -0.0920 -0.0954 -0.0212
20214SOL    HW165199   6.386   5.194   1.401  1.5240  2.3053 -1.1135
20214SOL    HW265200   6.326   5.316   1.467 -1.2398  0.7216 -0.5326
20215SOL     OW65201   0.861   1.466   0.281 -0.3297 -0.6315  0.3654
20215SOL    HW165202   0.811   1.455   0.362 -0.7797 -0.2768  0.1379
20215SOL    HW265203   0.904   1.382   0.268  0.0162 -0.5816  1.1553
20216SOL     OW65204   7.376   1.542   7.252 -0.1283  0.3737  0.2960
20216SOL    HW165205   7.389   1.472   7.315 -1.8012  1.5329  2.0557
20216SOL    HW265206   7.456   1.594   7.256 -0.1233  0.2954  1.3161
20217SOL     OW65207   2.707   1.376   5.476  0.4707  0.5299 -0.1016
20217SOL    HW165208   2.704   1.283   5.502  0.6195  0.5747  0.0768
20217SOL    HW265209   2.774   1.380   5.408 -0.9220  0.1534 -1.5595
20218SOL     OW65210   6.389   5.450   3.637  0.1263  0.1687 -1.1008
20218SOL    HW165211   6.455   5.518   3.623  0.2194 -0.0948 -1.9930
20218SOL    HW265212   6.412   5.382   3.574 -0.6473 -0.1854 -1.0001
20219SOL     OW65213  11.588   8.569   4.051  0.2483 -0.0250 -0.1497
20219SOL    HW165214  11.661   8.574   4.112  0.2558 -0.3674 -0.1314
20219SOL    HW265215  11.581   8.476   4.029 -0.8499 -0.1498  0.6558
20220SOL     OW65216   1.510   6.356   3.776  0.6873 -0.0864  0.2137
20220SOL    HW165217   1.510   6.350   3.681  1.1758  2.0058  0.0399
20220SOL    HW265218   1.460   6.279   3.805  0.7952 -0.9300 -1.6901
20221SOL     OW65219   6.819   5.987   4.519  0.0760 -0.3432 -0.6226
20221SOL    HW165220   6.762   5.942   4.456 -0.8409  0.5564 -0.4670
20221SOL    HW265221   6.759   6.019   4.586  0.7911  0.5239 -0.3851
20222SOL     OW65222   9.584   1.826   9.938  0.5273  0.6606 -0.0685
20222SOL    HW165223   9.557   1.902   9.886  1.0696 -0.9758 -2.9426
20222SOL    HW265224   9.503   1.797   9.981  0.1984  2.4699  0.6309
20223SOL     OW65225   7.119  11.193   9.821 -0.0001  0.1268 -0.0240
20223SOL    HW165226   7.139  11.272   9.772 -1.4255  0.9068  0.5896
20223SOL    HW265227   7.146  11.121   9.764  0.5841  1.0401 -0.9242
20224SOL     OW65228   4.860   1.297  11.552  0.0076 -0.4595 -0.0161
20224SOL    HW165229   4.833   1.215  11.511 -1.1338  0.3250 -0.9239
20224SOL    HW265230   4.874   1.357  11.478  2.5722 -0.3059  0.5258
20225SOL     OW65231  10.083  11.143   9.455 -0.2194 -0.2716  0.2049
20225SOL    HW165232  10.095  11.077   9.387 -0.6345  1.8898 -2.1150
20225SOL    HW265233  10.133  11.219   9.425 -1.4158  1.1892  1.6963
20226SOL     OW65234   9.683   8.419   6.791 -0.0345  0.1232  0.0155
20226SOL    HW165235   9.723   8.370   6.863  0.1112 -0.7894 -0.6663
20226SOL    HW265236   9.667   8.506   6.827  0.3215 -0.2267  1.0520
20227SOL     OW65237   0.744   1.043   5.513 -0.6593  0.2998  0.0456
20227SOL    HW165238   0.719   1.136   5.512  3.3605  1.5718 -1.2591
20227SOL    HW265239   0.839   1.044   5.526 -0.3023 -3.6301 -1.0465
20228SOL     OW65240  11.308   6.097   7.585 -0.2087  0.0031  0.6497
20228SOL    HW165241  11.387   6.152   7.589 -0.8559  0.8897  2.0023
20228SOL    HW265242  11.272   6.113   7.498 -0.9344  2.5876  1.3403
20229SOL     OW65243   1.889   3.055   0.046 -0.3579 -0.1322 -0.2409
20229SOL    HW165244   1.859   3.073   0.135 -1.5105 -1.1552 -0.3931
20229SOL    HW265245   1.930   2.969   0.051  0.0084  0.0184 -0.6081
20230SOL     OW65246  11.606  10.706   3.406 -0.2160 -0.7612  0.1300
20230SOL    HW165247  11.580  10.677   3.318 -1.8953  0.7857  0.0734
20230SOL    HW265248  11.553  10.655   3.466 -0.0463 -0.8637  0.1936
20231SOL     OW65249  10.234   6.000   2.188 -0.2427 -0.1711 -0.2443
20231SOL    HW165250  10.212   5.947   2.111 -0.4679 -2.0328  1.0415
20231SOL    HW265251  10.330   6.009   2.184 -0.3926  1.3762 -1.7014
20232SOL     OW65252   0.976   9.755  10.361 -0.6138 -0.1578  0.5897
20232SOL    HW165253   1.024   9.735  10.441 -0.6180  1.0533  0.9101
20232SOL    HW265254   0.971   9.671  10.315 -0.1284 -0.7551  1.5865
20233SOL     OW65255   4.931   3.473   2.064  0.4155 -0.9959  0.1431
20233SOL    HW165256   4.906   3.416   1.992  0.0351 -2.5741  1.4536
20233SOL    HW265257   4.884   3.438   2.140  2.9178 -1.1710  1.7428
20234SOL     OW65258   9.641   4.111  10.788 -0.1096  0.2038  0.1745
20234SOL    HW165259   9.693   4.070  10.718 -0.5794  0.6592 -0.4433
20234SOL    HW265260   9.601   4.187  10.747 -2.0643 -0.6609  0.3582
20235SOL     OW65261   4.317   7.588   5.995  0.2601 -0.6233  0.0805
20235SOL    HW165262   4.367   7.548   5.924  0.7744 -0.0808  0.1319
20235SOL    HW265263   4.379   7.649   6.037 -0.4390  0.0446  0.1547
20236SOL     OW65264  11.015   9.549   0.343  0.1257 -0.3705  0.1684
20236SOL    HW165265  11.005   9.644   0.339 -0.6708 -0.4589 -0.0411
20236SOL    HW265266  11.077   9.535   0.416  1.2571  0.3614 -0.6154
20237SOL     OW65267   4.144  11.595   4.700  0.7086 -0.0346 -0.1645
20237SOL    HW165268   4.103  11.510   4.715  0.7828 -0.1908 -0.8444
20237SOL    HW265269   4.156  11.601   4.605 -1.8183  1.8962 -0.4779
20238SOL     OW65270   7.780  11.562   8.055 -0.0368 -0.0539 -0.7420
20238SOL    HW165271   7.709  11.594   7.999  0.9213  0.9910 -1.3885
20238SOL    HW265272   7.850  11.538   7.994  0.6745  0.2042 -0.0419
20239SOL     OW65273   7.862  12.012   7.774 -0.0404  0.3763  0.1042
20239SOL    HW165274   7.878  12.067   7.697 -3.1818  0.1809 -0.8271
20239SOL    HW265275   7.818  12.070   7.836 -3.1827 -0.8282 -0.8000
20240SOL     OW65276   7.996   4.502   0.640  0.0183 -0.1708 -0.7529
20240SOL    HW165277   8.015   4.460   0.556  0.9704  0.7879 -1.0416
20240SOL    HW265278   7.901   4.519   0.637 -0.1577 -1.1322 -1.1474
20241SOL     OW65279   6.880   5.318   6.595  0.2532  0.0703  0.5198
20241SOL    HW165280   6.837   5.257   6.534 -0.5474 -1.1545  2.2472
20241SOL    HW265281   6.968   5.282   6.607  0.4341  0.3475  0.1006
20242SOL     OW65282  11.670   9.624   3.399 -0.0280 -0.4939  0.0677
20242SOL    HW165283  11.694   9.714   3.380  2.1237 -0.6974  1.5263
20242SOL    HW265284  11.751   9.575   3.391  0.3010 -1.2846  5.1282
20243SOL     OW65285   5.378  10.125   0.564  0.1871  0.5443 -0.1976
20243SOL    HW165286   5.393  10.129   0.469  1.6176  1.0623  0.0353
20243SOL    HW265287   5.286  10.150   0.573 -0.7407 -1.9564 -1.6081
20244SOL     OW65288   8.028  10.884   7.424 -0.0751 -0.1246 -0.1699
20244SOL    HW165289   8.001  10.827   7.496  1.6510  0.0370  0.6775
20244SOL    HW265290   7.978  10.964   7.437  1.0127  0.3193  1.5643
20245SOL     OW65291   5.943   8.543  11.471 -0.6139 -0.4478 -0.0811
20245SOL    HW165292   5.920   8.636  11.478  0.4912 -0.2212  0.7187
20245SOL    HW265293   5.860   8.497  11.487 -1.1239  0.3866 -0.2363
20246SOL     OW65294  10.141  11.873   3.282 -0.4926  0.1503  0.9107
20246SOL    HW165295  10.068  11.933   3.292 -0.7250 -0.0703  0.5270
20246SOL    HW265296  10.217  11.922   3.313 -0.6165  0.7729  0.2308
20247SOL     OW65297   9.184  10.290   5.950 -0.1995  0.1965  0.1958
20247SOL    HW165298   9.130  10.335   5.885  0.5794 -0.2031 -0.7617
20247SOL    HW265299   9.272  10.325   5.936 -0.3433  1.6947  2.4982
20248SOL     OW65300   6.824   9.283   0.828 -0.3864 -0.2633  0.0119
20248SOL    HW165301   6.802   9.190   0.832  1.2745 -0.6729  0.5536
20248SOL    HW265302   6.784   9.320   0.907 -1.6180 -0.3535 -0.5437
20249SOL     OW65303   2.865   5.477   7.288  0.6502  0.0293 -0.7915
20249SOL    HW165304   2.801   5.413   7.258 -0.4490  0.4705  0.5300
20249SOL    HW265305   2.837   5.500   7.377  3.7166 -1.2112  0.6769
20250SOL     OW65306  10.110   8.680   5.394 -0.6469 -0.3913 -0.7986
20250SOL    HW165307  10.063   8.749   5.439 -2.1539 -2.4686  1.0120
20250SOL    HW265308  10.195   8.675   5.439 -0.3010  0.5998 -1.3129
20251SOL     OW65309   9.570   7.315   6.072 -0.2030  0.0480  0.1313
20251SOL    HW165310   9.496   7.254   6.073 -1.9148  2.0069  1.9547
20251SOL    HW265311   9.616   7.298   6.155 -1.1220  1.6568  1.0042
20252SOL     OW65312   4.407   8.900   1.034 -0.2944 -0.3079 -0.4135
20252SOL    HW165313   4.445   8.981   0.999 -0.0759 -0.4406 -0.4862
20252SOL    HW265314   4.316   8.901   1.005 -0.9024  0.9676  1.3606
20253SOL     OW65315  10.427   6.570   3.891  0.2870 -0.5920 -0.0815
20253SOL    HW165316  10.366   6.561   3.818  0.1445 -1.7619  0.1713
20253SOL    HW265317  10.375   6.549   3.969  0.7033 -0.3960  0.2573
20254SOL     OW65318   1.185   9.799   6.510 -0.0990 -0.4207  0.1766
20254SOL    HW165319   1.186   9.848   6.593  0.0808  1.0513 -0.6625
20254SOL    HW265320   1.112   9.738   6.520  1.2995 -1.9043  2.2888
20255SOL     OW65321   4.576   9.840   4.667  0.8290 -0.1524  0.7313
20255SOL    HW165322   4.545   9.905   4.604 -0.0423  1.0154  2.2971
20255SOL    HW265323   4.496   9.799   4.700  1.2641 -0.6059  1.2361
20256SOL     OW65324  11.650  11.768   5.950  0.1298 -0.4900 -0.1916
20256SOL    HW165325  11.710  11.833   5.987 -0.7203  0.9492 -1.1981
20256SOL    HW265326  11.661  11.778   5.855 -0.2361 -1.6269 -0.3624
20257SOL     OW65327   7.703   0.384   3.171 -0.7670  0.1751 -0.3871
20257SOL    HW165328   7.771   0.347   3.115 -2.4175 -0.3647 -2.1420
20257SOL    HW265329   7.658   0.448   3.115 -1.6236  0.6231  0.7647
20258SOL     OW65330  10.046   2.335   6.432  0.0431  0.1052  0.2950
20258SOL    HW165331  10.064   2.410   6.374  1.4670 -0.1890  0.3075
20258SOL    HW265332  10.130   2.318   6.474 -1.0276  0.4777  2.7014
20259SOL     OW65333   2.729   5.929   9.154 -0.8505  0.1011  0.1354
20259SOL    HW165334   2.718   5.926   9.249 -0.7645  2.0728  0.2580
20259SOL    HW265335   2.820   5.954   9.141 -1.4183  2.1042 -0.3591
20260SOL     OW65336   3.111   0.644   4.664 -0.1523 -0.2106  0.1235
20260SOL    HW165337   3.125   0.570   4.723 -0.0973 -0.7370 -0.5290
20260SOL    HW265338   3.167   0.713   4.698  0.9690 -0.9693 -0.1125
20261SOL     OW65339   5.234   0.952   5.691 -0.3254  0.1289 -0.3258
20261SOL    HW165340   5.208   0.872   5.737  1.7454 -0.7606 -0.5705
20261SOL    HW265341   5.184   1.022   5.733 -2.5360 -1.3128 -0.4013
20262SOL     OW65342   1.318   8.248   6.351  0.7273  0.5937  0.3513
20262SOL    HW165343   1.238   8.295   6.372  0.3598 -0.5100  1.6254
20262SOL    HW265344   1.299   8.201   6.270 -0.7010 -1.2853  1.6968
20263SOL     OW65345   7.802   5.744   4.184  0.5420  0.2340 -0.1004
20263SOL    HW165346   7.770   5.658   4.212  0.5581  0.2895  0.0860
20263SOL    HW265347   7.893   5.729   4.160  0.4863  0.1554 -0.2709
20264SOL     OW65348  10.458   0.500   3.714 -0.5586 -0.0492  0.2104
20264SOL    HW165349  10.517   0.567   3.679  0.9429 -1.5314 -0.2756
20264SOL    HW265350  10.395   0.484   3.644  2.4794 -3.0777 -2.1835
20265SOL     OW65351   6.485  11.321  10.231  0.0625 -0.6088 -0.5206
20265SOL    HW165352   6.409  11.378  10.246  0.2822 -0.5429  0.3896
20265SOL    HW265353   6.482  11.302  10.137  0.4347  1.5323 -1.0042
20266SOL     OW65354   8.679   5.278   1.200  0.7192  0.1782  0.5917
20266SOL    HW165355   8.680   5.201   1.144  0.7247 -0.2224  1.1342
20266SOL    HW265356   8.586   5.292   1.220  0.5675  1.2756 -0.8043
20267SOL     OW65357   1.624  10.019   6.957 -0.1173  0.2051  0.5890
20267SOL    HW165358   1.589   9.939   6.997  1.6985 -0.2605  1.3302
20267SOL    HW265359   1.645  10.075   7.032  2.5230 -0.3304  0.3525
20268SOL     OW65360   2.122   3.730   3.738 -0.0926 -0.1037  0.1485
20268SOL    HW165361   2.083   3.817   3.748  0.9435  0.4249 -0.2494
20268SOL    HW265362   2.052   3.669   3.761 -0.6185  0.8476  1.1277
20269SOL     OW65363   8.326  11.581  11.558 -0.0081  0.2967  0.7663
20269SOL    HW165364   8.350  11.563  11.467 -0.4109 -2.1146  1.0711
20269SOL    HW265365   8.398  11.635  11.591  0.5733  0.5001 -0.7481
20270SOL     OW65366   0.524   9.649   5.006  0.3670  0.4559  0.8387
20270SOL    HW165367   0.484   9.575   5.051 -0.5353 -1.8007 -3.2620
20270SOL    HW265368   0.616   9.623   4.994  0.2205  0.2830  0.0294
20271SOL     OW65369   5.939   4.028   0.727  0.1868 -0.3795  0.1311
20271SOL    HW165370   5.999   4.013   0.654  0.5681 -1.0042  0.5676
20271SOL    HW265371   5.913   4.120   0.718  2.8706  0.5638  1.1706
20272SOL     OW65372  11.327   5.738   2.601 -0.0142  0.8231 -0.2502
20272SOL    HW165373  11.358   5.704   2.685 -2.2047  0.8102  0.6254
20272SOL    HW265374  11.403   5.781   2.563  0.6973  2.1244  2.4291
20273SOL     OW65375   2.959   1.240   6.636 -0.4091  0.2155  0.1702
20273SOL    HW165376   2.916   1.301   6.576 -0.2828  1.6054  1.4270
20273SOL    HW265377   2.966   1.288   6.719  1.9874 -0.5614  0.5250
20274SOL     OW65378   1.716   7.235   9.995  0.0132  0.3530  0.2776
20274SOL    HW165379   1.675   7.266   9.915  1.0522 -2.4179 -1.4710
20274SOL    HW265380   1.644   7.230  10.058 -0.9696  1.8795 -0.6578
20275SOL     OW65381   6.488  11.261   6.424 -0.5803 -0.2814 -0.3643
20275SOL    HW165382   6.557  11.235   6.485 -0.4402 -0.2983 -0.5277
20275SOL    HW265383   6.434  11.323   6.473  0.0337  0.3726 -0.5057
20276SOL     OW65384   4.770   7.966   3.345 -0.3512  0.4011  0.1727
20276SOL    HW165385   4.689   8.011   3.319  0.1937 -0.4423 -3.5073
20276SOL    HW265386   4.740   7.882   3.380 -1.1457  1.5759  2.5062
20277SOL     OW65387   3.383   2.413  10.810 -0.2574 -0.4087  0.1583
20277SOL    HW165388   3.345   2.335  10.769  0.7160 -0.1159 -1.3972
20277SOL    HW265389   3.473   2.389  10.829  0.4977  0.7399 -1.6768
20278SOL     OW65390   2.167   5.908   8.530 -0.1276 -0.2692 -0.5939
20278SOL    HW165391   2.111   5.873   8.461  0.9837 -0.0517 -1.6663
20278SOL    HW265392   2.236   5.954   8.482  0.9230 -0.4822  0.6598
20279SOL     OW65393   9.466   2.133   1.983  0.4190 -0.5411 -0.3563
20279SOL    HW165394   9.505   2.076   1.917 -0.2982 -0.0477 -1.2345
20279SOL    HW265395   9.540   2.179   2.022  0.7743  0.1457 -1.7675
20280SOL     OW65396   8.105   4.592   1.764 -0.0087  0.5075 -0.0990
20280SOL    HW165397   8.099   4.533   1.689 -0.4211  0.5601 -0.1101
20280SOL    HW265398   8.024   4.642   1.761  0.7242  1.7018 -0.6085
20281SOL     OW65399   8.148   6.500   4.341  0.0822 -0.1242 -0.2181
20281SOL    HW165400   8.174   6.486   4.250  1.8709  0.2592  0.1963
20281SOL    HW265401   8.217   6.459   4.393 -0.1802  0.8551  0.9627
20282SOL     OW65402   2.955   7.970   7.018 -0.4668 -0.0353 -0.1708
20282SOL    HW165403   2.874   8.018   7.040 -1.9415 -1.1733 -2.6770
20282SOL    HW265404   2.935   7.879   7.039  0.9508 -0.1157  1.0096
20283SOL     OW65405   8.167   3.238   4.598  0.1180  0.3686  0.0606
20283SOL    HW165406   8.180   3.150   4.563 -1.6453  0.1146 -0.0294
20283SOL    HW265407   8.172   3.295   4.521 -2.6932 -0.0889 -0.5839
20284SOL     OW65408   1.597   3.317   2.692 -0.1223  0.5333 -0.1087
20284SOL    HW165409   1.519   3.309   2.638 -1.7813  2.0120  1.9337
20284SOL    HW265410   1.654   3.377   2.644 -0.3685 -0.2279 -1.4135
20285SOL     OW65411   7.527  11.668  10.294  0.3120  0.0344 -0.0222
20285SOL    HW165412   7.466  11.653  10.366  1.3331 -0.6744  0.7173
20285SOL    HW265413   7.527  11.763  10.282  1.4838  0.3545  2.1502
20286SOL     OW65414   7.926   8.887   9.147 -0.6672  0.0534  0.1199
20286SOL    HW165415   7.939   8.793   9.134  1.6305 -0.2283  3.2604
20286SOL    HW265416   7.948   8.926   9.062  0.6726 -2.0934 -0.6101
20287SOL     OW65417   7.764  11.753   7.765  0.0617 -0.3661  0.4146
20287SOL    HW165418   7.799  11.842   7.756 -0.2900 -0.2668 -0.0268
20287SOL    HW265419   7.706  11.757   7.841  0.9881 -0.5293  1.1471
20288SOL     OW65420   5.221   0.195   8.446 -0.3165  0.1665 -0.3932
20288SOL    HW165421   5.258   0.174   8.532 -2.1614 -1.5567  0.0535
20288SOL    HW265422   5.162   0.269   8.463 -0.6621 -0.1568 -0.1697
20289SOL     OW65423   5.271   6.977   2.280 -0.5384 -0.1145 -0.2439
20289SOL    HW165424   5.275   7.070   2.259 -3.2089  0.2938  0.6642
20289SOL    HW265425   5.183   6.964   2.314  0.3825 -2.6055  1.4878
20290SOL     OW65426  11.343   2.202   2.141 -0.2103 -0.0000 -0.1828
20290SOL    HW165427  11.361   2.194   2.234 -0.8765  0.0416 -0.0418
20290SOL    HW265428  11.391   2.130   2.101 -0.8582 -0.7282  0.3305
20291SOL     OW65429  10.453   2.375   5.602  0.1606 -0.1940  0.2689
20291SOL    HW165430  10.389   2.444   5.582  0.1900 -0.3840 -0.5123
20291SOL    HW265431  10.534   2.404   5.559  0.0802 -0.8758 -0.3575
20292SOL     OW65432   9.594   8.148   5.233  0.2033 -0.7189  0.3278
20292SOL    HW165433   9.641   8.088   5.290  0.4990 -0.2644  0.5635
20292SOL    HW265434   9.643   8.230   5.238  0.3439 -0.7285 -0.7258
20293SOL     OW65435   1.553   4.076   9.710  0.2332 -0.0544 -0.4395
20293SOL    HW165436   1.569   4.086   9.804  0.7395 -0.8031 -0.4352
20293SOL    HW265437   1.625   4.125   9.669 -0.0554  0.3723 -0.4429
20294SOL     OW65438   6.237  10.606   7.274 -0.5905  0.3452  0.3659
20294SOL    HW165439   6.285  10.598   7.191 -0.7208  2.1204  0.0960
20294SOL    HW265440   6.145  10.615   7.247 -0.7666 -0.1779  0.7674
20295SOL     OW65441   9.649   7.686   4.414  0.6848  0.1451 -0.1536
20295SOL    HW165442   9.729   7.716   4.456  0.5189 -2.7993  2.6705
20295SOL    HW265443   9.678   7.655   4.328  2.0222  1.6557 -0.2973
20296SOL     OW65444   0.785   8.071  11.748 -0.3978 -0.1947  0.2464
20296SOL    HW165445   0.799   8.002  11.684  2.9946  0.8925 -0.3625
20296SOL    HW265446   0.772   8.025  11.831 -1.5466 -1.5538 -0.6382
20297SOL     OW65447   8.327   6.595  10.341 -0.4987 -0.0594  0.3081
20297SOL    HW165448   8.385   6.519  10.338 -1.1841 -0.5624 -0.3810
20297SOL    HW265449   8.251   6.570  10.289 -2.1028 -0.0513  2.4700
20298SOL     OW65450   6.705   3.517   5.746  0.3781 -0.1496 -0.1035
20298SOL    HW165451   6.641   3.551   5.683  0.7134 -0.0125 -0.3751
20298SOL    HW265452   6.654   3.502   5.826  0.1421  0.6069 -0.0983
20299SOL     OW65453   1.517   3.396   6.415 -0.1279  0.2862 -0.2011
20299SOL    HW165454   1.463   3.321   6.443  0.3728  0.0766  0.2138
20299SOL    HW265455   1.600   3.384   6.461  0.5125  0.2574 -1.3216
20300SOL     OW65456   2.988   6.995   6.494 -0.1184  0.6418  0.6249
20300SOL    HW165457   3.083   6.998   6.509 -0.1499 -1.1811  1.5484
20300SOL    HW265458   2.957   7.083   6.515  1.1546  0.7847  2.0998
20301SOL     OW65459   5.700   8.083  11.514  0.4532  0.3992 -0.0224
20301SOL    HW165460   5.732   8.096  11.424  2.1677 -2.4184  0.0729
20301SOL    HW265461   5.777   8.055  11.563 -1.0450 -1.0430  1.6279
20302SOL     OW65462  11.648   3.883   0.059 -0.0496 -0.3291 -0.6169
20302SOL    HW165463  11.721   3.946   0.067  0.3549 -0.8645  0.0021
20302SOL    HW265464  11.690   3.797   0.061 -0.7411 -0.6683  0.4039
20303SOL     OW65465   9.302  10.157  11.721  0.5037  0.5610  0.0956
20303SOL    HW165466   9.243  10.183  11.792  1.4626 -0.3614  1.2929
20303SOL    HW265467   9.249  10.160  11.642 -0.4856  2.0638  0.7890
20304SOL     OW65468   3.999   7.090   5.565  0.5506  0.4140 -0.7316
20304SOL    HW165469   3.928   7.154   5.558 -0.5848 -0.7232  0.0189
20304SOL    HW265470   4.053   7.106   5.487  0.6431  2.6470 -0.2732
20305SOL     OW65471   0.330   9.743   5.504  0.6026  0.6632 -0.1487
20305SOL    HW165472   0.313   9.686   5.429  0.0773 -0.2245  0.6132
20305SOL    HW265473   0.384   9.813   5.470 -1.5085  1.5443 -1.8701
20306SOL     OW65474   9.188   9.030  11.018  0.4602 -0.0143  0.0748
20306SOL    HW165475   9.093   9.019  11.027  0.7238 -1.6895  1.1995
20306SOL    HW265476   9.211   8.978  10.941  0.9517 -3.1226  2.1673
20307SOL     OW65477  11.126   5.704   8.670 -0.4700 -0.0576  1.2370
20307SOL    HW165478  11.201   5.645   8.682 -0.5763  0.0366  2.5631
20307SOL    HW265479  11.061   5.650   8.624  0.6767  0.1108 -0.6628
20308SOL     OW65480   6.305  10.014   8.003  0.4518  0.0426 -0.3415
20308SOL    HW165481   6.221   9.972   7.986  1.1496 -1.1696 -0.9324
20308SOL    HW265482   6.351  10.012   7.919  1.6519 -0.7066  0.2979
20309SOL     OW65483   5.504   9.962   5.192 -0.6689  0.1487  0.0498
20309SOL    HW165484   5.450   9.894   5.232 -0.8963 -0.4763 -1.2729
20309SOL    HW265485   5.557   9.915   5.128  1.0797  0.8375  0.9263
20310SOL     OW65486   0.361   0.401  11.035  0.0729  0.1964 -0.0091
20310SOL    HW165487   0.394   0.433  11.118  1.9232  0.1735 -0.6935
20310SOL    HW265488   0.330   0.479  10.989  1.8448  0.6417 -0.4895
20311SOL     OW65489   5.356  10.601   2.251  0.2940 -0.0591  0.4214
20311SOL    HW165490   5.421  10.580   2.318  0.3120  1.2439  0.8345
20311SOL    HW265491   5.362  10.696   2.241  1.6289 -0.3413 -2.7680
20312SOL     OW65492   9.118  10.645  10.785  0.4006  0.0822  0.0163
20312SOL    HW165493   9.116  10.589  10.708  1.0426 -1.6682  1.1986
20312SOL    HW265494   9.081  10.728  10.756  0.9904 -0.3854 -2.2529
20313SOL     OW65495   3.694  10.649   5.135  0.4702  0.1598  0.1097
20313SOL    HW165496   3.762  10.673   5.073  2.3199 -1.3011  1.4581
20313SOL    HW265497   3.740  10.600   5.204 -2.0974 -2.1376  0.3881
20314SOL     OW65498   5.326   0.668   0.132 -0.4740 -0.3502 -0.3940
20314SOL    HW165499   5.391   0.627   0.074  0.0305  0.5953 -0.5054
20314SOL    HW265500   5.378   0.717   0.195 -1.0849  0.4379 -0.5033
20315SOL     OW65501  11.855  11.156   4.242 -0.1966  0.1750  0.4009
20315SOL    HW165502  11.907  11.170   4.321 -3.7425  0.9482  2.8674
20315SOL    HW265503  11.870  11.064   4.220  0.7901 -0.1174  2.1066
20316SOL     OW65504   5.601   2.599   7.422  0.3245 -0.1022 -0.1419
20316SOL    HW165505   5.623   2.676   7.475 -0.4223  1.3056 -1.7614
20316SOL    HW265506   5.509   2.582   7.441  0.1992  0.0825 -0.5620
20317SOL     OW65507   1.112   8.014   3.307 -0.5494 -0.3324  0.3528
20317SOL    HW165508   1.146   8.002   3.396 -3.7418  0.6563  1.8662
20317SOL    HW265509   1.066   7.932   3.287 -3.6144  0.9151  1.6048
20318SOL     OW65510  10.144   0.178   4.506 -0.2704 -0.1503 -0.2514
20318SOL    HW165511  10.162   0.092   4.546  0.4805  0.4006  0.6165
20318SOL    HW265512  10.103   0.156   4.422 -2.0638 -1.3576  0.8426
20319SOL     OW65513   5.508   1.879   5.066  0.2158  0.4865 -0.2809
20319SOL    HW165514   5.458   1.842   4.993 -0.1555  0.9536 -0.2602
20319SOL    HW265515   5.536   1.802   5.117 -1.3169  0.2668  0.2663
20320SOL     OW65516   2.756  10.750   8.865  0.1800 -0.3486  0.4063
20320SOL    HW165517   2.685  10.813   8.853 -1.2963 -2.3118 -2.4907
20320SOL    HW265518   2.748  10.723   8.956 -1.5004  0.9796  0.7192
20321SOL     OW65519   8.544   3.692   5.156  0.0948  0.6801  0.1427
20321SOL    HW165520   8.565   3.704   5.064 -1.5186 -3.7153 -1.0904
20321SOL    HW265521   8.622   3.651   5.194 -0.2503 -0.2419 -0.1076
20322SOL     OW65522  10.379   4.367   3.333  0.2784 -0.2519  0.6482
20322SOL    HW165523  10.402   4.447   3.380 -1.3839  0.2126  0.7012
20322SOL    HW265524  10.396   4.387   3.241 -1.6648  0.7729  0.4647
20323SOL     OW65525  10.926   2.144   1.972  0.4743  0.3795 -0.0278
20323SOL    HW165526  10.960   2.221   2.017  1.8134  0.4720 -1.1522
20323SOL    HW265527  10.970   2.070   2.014  0.8645  0.3900 -0.4104
20324SOL     OW65528   4.991  11.779   8.798  0.0218  0.0700  0.4747
20324SOL    HW165529   5.041  11.753   8.875  0.4516 -1.4645 -0.2830
20324SOL    HW265530   5.056  11.814   8.738  0.0183 -0.7935 -0.0408
20325SOL     OW65531   8.612   8.419  10.939  0.2444  0.5417  0.0937
20325SOL    HW165532   8.603   8.474  10.861 -0.5675  1.3121  0.7123
20325SOL    HW265533   8.614   8.481  11.012  1.9754 -0.1001  0.6443
20326SOL     OW65534   4.300  11.986   5.915 -0.3845  0.8125 -0.3618
20326SOL    HW165535   4.319  11.962   5.824  0.0499  2.1425 -0.6431
20326SOL    HW265536   4.319  12.080   5.920  0.0029  0.6837  1.2150
20327SOL     OW65537   5.724   3.502   0.549 -0.1158  0.4810 -0.0972
20327SOL    HW165538   5.708   3.548   0.466 -1.3583  0.2813  0.0106
20327SOL    HW265539   5.698   3.564   0.616 -0.9648 -0.0440  0.0754
20328SOL     OW65540   5.491   1.031   2.079  0.6442 -0.1709  0.0989
20328SOL    HW165541   5.529   1.075   2.002  2.0332 -1.9365 -0.2788
20328SOL    HW265542   5.564   0.984   2.118 -0.7122 -1.9268  0.6297
20329SOL     OW65543   4.101   4.554   2.095  0.1520 -0.7257 -0.5182
20329SOL    HW165544   4.055   4.542   2.011 -0.8632  0.5197 -0.1695
20329SOL    HW265545   4.136   4.467   2.115 -3.5358 -2.2644  0.0255
20330SOL     OW65546  10.222  11.166   5.514 -0.4477 -0.1893 -0.0765
20330SOL    HW165547  10.269  11.192   5.594 -0.8717  0.1728  0.0591
20330SOL    HW265548  10.222  11.071   5.516  1.7426 -0.2647 -0.9326
20331SOL     OW65549   2.847  10.021  10.440  0.8162  0.5878 -0.4473
20331SOL    HW165550   2.825  10.027  10.347 -3.3058 -2.7742  0.0473
20331SOL    HW265551   2.920   9.958  10.443  1.8025  1.6265 -1.3537
20332SOL     OW65552   0.714   4.763   7.347  0.3376 -0.5180  0.4640
20332SOL    HW165553   0.746   4.731   7.431  2.5569  1.1005  0.3552
20332SOL    HW265554   0.786   4.744   7.286 -0.3615  0.1913 -0.6148
20333SOL     OW65555   1.323   1.404   2.274 -0.2793 -0.4882  0.2164
20333SOL    HW165556   1.303   1.445   2.190  0.3019  0.1871  0.3942
20333SOL    HW265557   1.337   1.477   2.334 -1.1069 -0.9603  1.0133
20334SOL     OW65558   9.513   4.618   7.898  0.1057  0.5605 -0.2610
20334SOL    HW165559   9.539   4.672   7.972  0.1647 -0.5220  0.5329
20334SOL    HW265560   9.462   4.547   7.937  1.8326 -1.1614 -0.9863
20335SOL     OW65561   4.353   2.187   2.062 -0.5244  0.9038 -0.2810
20335SOL    HW165562   4.335   2.239   2.141 -1.0985  1.1878 -0.5870
20335SOL    HW265563   4.271   2.191   2.012 -0.4109  0.1000 -0.5400
20336SOL     OW65564   0.302   5.747   2.757 -0.1459  0.3221  0.3017
20336SOL    HW165565   0.290   5.737   2.851 -0.2765  0.1000  0.2616
20336SOL    HW265566   0.268   5.834   2.737 -1.3113 -0.1318  0.2513
20337SOL     OW65567   6.135   0.381   4.186  0.2763  0.5284  0.1385
20337SOL    HW165568   6.153   0.455   4.129  0.4621  1.5846  1.5172
20337SOL    HW265569   6.222   0.346   4.208  0.2909  0.9809  0.8413
20338SOL     OW65570   5.627   0.431  11.094  0.3767  0.5687  0.1220
20338SOL    HW165571   5.632   0.424  11.189 -2.2180 -2.2657  0.2111
20338SOL    HW265572   5.709   0.394  11.062  1.6637  2.3718  1.1851
20339SOL     OW65573   1.359   6.934   3.887 -0.1452 -0.1349 -0.3150
20339SOL    HW165574   1.348   7.022   3.850  1.3694 -0.1877 -0.9706
20339SOL    HW265575   1.284   6.923   3.945 -1.3400  0.8743 -1.6011
20340SOL     OW65576  11.147  10.625   0.139  0.1262  0.2750  0.1072
20340SOL    HW165577  11.192  10.554   0.184  0.3180  0.2993 -0.0434
20340SOL    HW265578  11.120  10.587   0.055 -0.6032  0.1038  0.4115
20341SOL     OW65579  12.063   7.446   2.367 -0.1981 -0.0353 -0.2878
20341SOL    HW165580  12.030   7.474   2.453 -1.1257  0.6922 -0.8655
20341SOL    HW265581  12.043   7.352   2.364 -0.9245  0.1004 -0.0366
20342SOL     OW65582   6.760  11.305   4.990  0.2344 -0.1453 -0.4464
20342SOL    HW165583   6.755  11.374   5.056  2.2967 -0.4446  0.0795
20342SOL    HW265584   6.682  11.318   4.936  0.0225  1.9220  0.2827
20343SOL     OW65585   3.485   9.056   7.598  0.3062 -0.8913  0.2258
20343SOL    HW165586   3.424   8.999   7.645  0.3507 -0.0552  1.3458
20343SOL    HW265587   3.440   9.141   7.596  0.7920 -0.6480 -0.2617
20344SOL     OW65588   6.985   5.361   0.598  0.5023  0.2344  0.0694
20344SOL    HW165589   6.984   5.267   0.618 -0.3354  0.2071 -0.0344
20344SOL    HW265590   6.983   5.365   0.503  2.3166  0.3663  0.0135
20345SOL     OW65591  11.155   8.076   5.781  0.8641 -0.4085  0.1305
20345SOL    HW165592  11.116   8.017   5.845  0.6425 -0.6031 -0.1805
20345SOL    HW265593  11.185   8.019   5.711  0.6116 -0.1505 -0.1915
20346SOL     OW65594   0.327   8.317   7.342  0.4142  0.5721  0.0174
20346SOL    HW165595   0.345   8.228   7.313 -0.8046  1.4546 -4.1818
20346SOL    HW265596   0.412   8.352   7.366  0.9399 -1.5913  1.6165
20347SOL     OW65597   4.063   9.522   4.033 -0.3330  0.1431 -0.0658
20347SOL    HW165598   4.059   9.617   4.031 -0.0251  0.1461 -0.9831
20347SOL    HW265599   4.042   9.499   4.123  0.6934  1.1299  0.4495
20348SOL     OW65600   0.128   5.616  11.018 -0.3872  0.2682 -0.0646
20348SOL    HW165601   0.210   5.608  11.067  0.7501 -2.4537 -2.1612
20348SOL    HW265602   0.123   5.708  10.994  2.7615  0.3122 -0.9089
20349SOL     OW65603   5.731   5.716   2.314 -0.1774 -0.3729  0.2110
20349SOL    HW165604   5.640   5.699   2.336 -0.3814  0.2995 -0.0780
20349SOL    HW265605   5.745   5.808   2.335  0.3646 -0.4041  0.0257
20350SOL     OW65606   3.985  11.646   1.659 -0.3522 -0.1521 -0.1874
20350SOL    HW165607   3.916  11.711   1.671  0.2098  0.1376  1.6866
20350SOL    HW265608   4.003  11.613   1.747  3.0368  0.9670 -0.3363
20351SOL     OW65609   8.702   4.639  10.313 -0.2152 -0.2879 -0.0048
20351SOL    HW165610   8.773   4.701  10.296  1.3516 -1.4196  1.9348
20351SOL    HW265611   8.743   4.553  10.301 -1.2551 -0.9626  1.1516
20352SOL     OW65612   9.588  11.463  11.563 -0.2173  0.4894  0.2426
20352SOL    HW165613   9.655  11.409  11.603  1.8983  1.4033 -1.7927
20352SOL    HW265614   9.506  11.434  11.602  1.3093 -0.8982  2.6288
20353SOL     OW65615   9.349   0.393   7.925  0.1528  0.0231  0.1610
20353SOL    HW165616   9.353   0.364   7.833  0.7440  0.4368  0.0547
20353SOL    HW265617   9.413   0.463   7.931  0.2560 -0.1311  0.9477
20354SOL     OW65618   4.404   5.853   7.261 -0.0714  0.5480  0.5523
20354SOL    HW165619   4.435   5.847   7.351 -0.7864 -1.0917  0.7167
20354SOL    HW265620   4.377   5.765   7.239  1.2971  0.6237 -1.7416
20355SOL     OW65621  10.278   9.662   1.781  0.1585  0.3227  0.3024
20355SOL    HW165622  10.360   9.707   1.801 -0.7469  1.5105  1.5329
20355SOL    HW265623  10.258   9.613   1.861 -0.4114  0.1694  0.0684
20356SOL     OW65624   4.788   0.292   7.501  0.6567 -0.4932  0.3236
20356SOL    HW165625   4.701   0.298   7.541  1.3778 -0.6204  2.0120
20356SOL    HW265626   4.840   0.360   7.545  1.5637 -0.7922 -0.2453
20357SOL     OW65627   0.410   9.810  10.768  0.1258  0.2954 -0.8603
20357SOL    HW165628   0.395   9.763  10.686 -0.5291 -1.4514  0.2049
20357SOL    HW265629   0.486   9.766  10.807 -0.2497  0.3651 -0.0241
20358SOL     OW65630   5.352   8.351   7.264 -0.3869  0.3122  0.1964
20358SOL    HW165631   5.345   8.325   7.356  2.4573 -1.2447  0.1010
20358SOL    HW265632   5.301   8.285   7.217  1.7907 -1.7165  0.4440
20359SOL     OW65633   5.985   0.994   2.901  0.6681 -0.2866  0.1080
20359SOL    HW165634   5.985   0.899   2.892 -0.7747 -0.4617  1.5741
20359SOL    HW265635   5.967   1.026   2.812 -0.5078 -1.4493 -0.1069
20360SOL     OW65636   3.730   0.336   9.533 -0.5463 -0.8387 -0.0291
20360SOL    HW165637   3.733   0.358   9.440 -1.6274 -3.3146 -0.7412
20360SOL    HW265638   3.640   0.353   9.560  0.2241  1.7924  1.1788
20361SOL     OW65639   7.142   7.891   9.136  0.0678 -0.1008  0.0979
20361SOL    HW165640   7.213   7.835   9.103  0.9656  1.3866 -0.5707
20361SOL    HW265641   7.087   7.831   9.187  0.8337 -1.6535 -0.8087
20362SOL     OW65642  10.006   0.065   5.332  0.0663 -0.2685 -0.0197
20362SOL    HW165643  10.095   0.100   5.335  0.5754 -1.5320  1.0945
20362SOL    HW265644   9.949   0.141   5.327  1.2188  0.5503 -1.1633
20363SOL     OW65645   2.086   2.257   8.253 -0.0851 -0.1790  0.1047
20363SOL    HW165646   2.079   2.172   8.295  0.5994 -0.1833  0.2216
20363SOL    HW265647   2.022   2.312   8.298  0.5389 -0.2199  1.0531
20364SOL     OW65648   2.587   1.062   4.094 -0.0629  0.1975 -0.2021
20364SOL    HW165649   2.575   1.118   4.018  0.8476 -0.0779 -0.5692
20364SOL    HW265650   2.655   1.000   4.067 -0.9838 -1.0351  0.2133
20365SOL     OW65651   6.278   5.565   1.767  0.1240  0.0356  0.2198
20365SOL    HW165652   6.190   5.538   1.795 -0.0317 -0.1272 -0.3982
20365SOL    HW265653   6.299   5.640   1.823 -1.7151  2.0747 -1.6419
20366SOL     OW65654   5.446   2.297   2.109 -0.0384  0.5249 -0.4365
20366SOL    HW165655   5.457   2.373   2.052 -1.3600  1.2494  0.2408
20366SOL    HW265656   5.355   2.301   2.138  0.0802 -0.8918  0.2293
20367SOL     OW65657   4.580  12.044   3.451 -0.3668 -0.6061  0.1746
20367SOL    HW165658   4.498  12.086   3.479 -0.0288 -0.4287  0.9055
20367SOL    HW265659   4.608  12.094   3.374 -0.3888  0.0001  0.5565
20368SOL     OW65660   4.954   1.986  11.613  0.5800 -0.1811  0.8031
20368SOL    HW165661   4.867   1.988  11.653 -0.4563 -1.0829 -1.2945
20368SOL    HW265662   4.975   2.077  11.594 -0.9602 -0.1345 -0.8040
20369SOL     OW65663   1.840   0.561   1.468  0.1760  0.0769 -0.0826
20369SOL    HW165664   1.927   0.600   1.458  0.5366 -1.0179 -1.7736
20369SOL    HW265665   1.835   0.537   1.560  0.9597  1.6882  0.4309
20370SOL     OW65666  11.388   9.637   3.583  0.1983 -0.0721 -0.4139
20370SOL    HW165667  11.316   9.683   3.627 -1.1879 -1.3491 -1.2890
20370SOL    HW265668  11.466   9.686   3.610 -1.0819  2.1288 -0.4375
20371SOL     OW65669  10.476   0.684  10.225  0.4775  0.3506 -0.5640
20371SOL    HW165670  10.397   0.632  10.240  0.3212  0.7813  0.1562
20371SOL    HW265671  10.455   0.738  10.149  1.3185 -1.9417 -2.5593
20372SOL     OW65672   1.144   1.400   7.160  0.4135 -0.1289 -0.4298
20372SOL    HW165673   1.168   1.478   7.209 -0.0664  0.3438 -0.9314
20372SOL    HW265674   1.056   1.418   7.128  0.8154 -0.3120 -1.6813
20373SOL     OW65675   5.549   6.972   6.506 -0.3718  0.0092  0.1306
20373SOL    HW165676   5.569   6.980   6.599 -0.7377 -1.5016  0.3772
20373SOL    HW265677   5.559   6.878   6.488 -1.5120  0.0872 -1.0621
20374SOL     OW65678   0.595   3.848   0.790 -0.0938 -0.7660 -0.4941
20374SOL    HW165679   0.537   3.842   0.714  1.7190  0.2821 -2.0461
20374SOL    HW265680   0.656   3.774   0.780  0.4193 -0.3796 -0.2930
20375SOL     OW65681   5.835   5.069   3.210  0.0239 -0.2672  0.5407
20375SOL    HW165682   5.770   5.089   3.277 -0.7845  0.5603 -0.4569
20375SOL    HW265683   5.860   4.978   3.227 -1.5280 -0.6657  0.8439
20376SOL     OW65684   2.790   2.938   7.045 -0.1190  0.0207  0.1044
20376SOL    HW165685   2.856   2.870   7.058 -0.0275  0.2714  0.9848
20376SOL    HW265686   2.831   3.000   6.984  0.7125  0.4928  1.1111
20377SOL     OW65687   9.069   4.910   8.747 -0.2698  0.2200  0.0385
20377SOL    HW165688   9.151   4.861   8.759  0.1495  0.5235 -1.4305
20377SOL    HW265689   9.094   4.987   8.695 -1.2520  1.0501  0.7431
20378SOL     OW65690  10.145  10.787   0.740  0.1104 -0.8687 -0.2943
20378SOL    HW165691  10.052  10.809   0.730  0.0460 -1.4573 -1.1265
20378SOL    HW265692  10.146  10.692   0.751  0.3210 -0.5234  4.1310
20379SOL     OW65693   9.126   8.634   0.053 -0.2111  0.3576  0.1030
20379SOL    HW165694   9.058   8.692   0.020  0.0471  0.6410  0.0610
20379SOL    HW265695   9.206   8.664   0.009 -0.3538 -1.1593 -1.2927
20380SOL     OW65696   6.632   1.901   2.892 -0.3381  0.5470  0.3684
20380SOL    HW165697   6.544   1.933   2.914  0.7321  2.1579  2.6348
20380SOL    HW265698   6.633   1.810   2.921 -2.2015 -0.6282 -2.6785
20381SOL     OW65699   6.270   3.961   0.379  0.8265 -0.6014  0.2470
20381SOL    HW165700   6.226   3.883   0.411 -0.8480  0.2380  0.1025
20381SOL    HW265701   6.247   3.965   0.286 -0.4697  0.8879  0.5874
20382SOL     OW65702   2.163   9.960   7.509 -0.2330  0.4835 -0.2569
20382SOL    HW165703   2.223   9.968   7.583  0.7518 -0.5550 -0.9074
20382SOL    HW265704   2.080   9.933   7.547  0.4859 -0.9009  0.4121
20383SOL     OW65705   1.390   6.992   4.503 -0.0356 -0.6841 -0.0281
20383SOL    HW165706   1.420   7.075   4.539 -2.7417  1.4597 -2.1863
20383SOL    HW265707   1.460   6.964   4.445  1.2077 -0.3334  1.2389
20384SOL     OW65708   8.424   8.158   6.380  0.9075 -0.4603  0.3730
20384SOL    HW165709   8.416   8.203   6.297  1.3628 -1.5795 -0.3056
20384SOL    HW265710   8.406   8.066   6.359 -2.1873 -0.4076  2.0649
20385SOL     OW65711   7.784   9.866   9.069  0.1654  0.6616  0.5556
20385SOL    HW165712   7.792   9.772   9.082 -0.4981  0.6865  1.2105
20385SOL    HW265713   7.690   9.880   9.052  0.2131  1.2284  0.7323
20386SOL     OW65714   8.753   8.046   6.284 -0.4195 -0.5102  0.4085
20386SOL    HW165715   8.737   7.956   6.255  1.9638 -1.0784  0.6571
20386SOL    HW265716   8.722   8.101   6.212  0.5875 -1.6692 -0.9616
20387SOL     OW65717   4.934   8.082   6.794  0.3183  0.8793  0.1621
20387SOL    HW165718   5.011   8.063   6.742 -0.3561  0.2272 -0.6309
20387SOL    HW265719   4.863   8.037   6.749 -0.0164 -1.3270  2.5977
20388SOL     OW65720   3.513   4.274   4.510 -0.2778  0.3033 -0.4233
20388SOL    HW165721   3.474   4.293   4.596 -0.5752  0.7842 -0.6586
20388SOL    HW265722   3.572   4.200   4.526 -2.4508 -1.5200 -0.3526
20389SOL     OW65723  10.597   0.367   8.102  0.1707 -0.3837  0.2694
20389SOL    HW165724  10.682   0.384   8.144  0.1806 -1.0254  0.5185
20389SOL    HW265725  10.533   0.377   8.172  0.1604 -1.1511  0.3842
20390SOL     OW65726  10.352   8.099   9.360 -0.5564 -0.0562  0.0206
20390SOL    HW165727  10.281   8.163   9.346 -0.7394  0.1076  1.5906
20390SOL    HW265728  10.416   8.120   9.292 -0.4103  2.1023  0.7328
20391SOL     OW65729   8.305   1.620   9.157 -0.2321 -0.2334 -0.6200
20391SOL    HW165730   8.332   1.539   9.113  1.8942 -0.6599  1.3269
20391SOL    HW265731   8.373   1.684   9.135  0.6669 -0.3447  1.5938
20392SOL     OW65732   3.296  12.036  12.099  0.3306 -0.6446 -0.9529
20392SOL    HW165733   3.280  12.131  12.096  0.4804 -0.5204  0.8596
20392SOL    HW265734   3.349  12.019  12.021 -1.9653  0.2496 -2.8199
20393SOL     OW65735   6.824   6.036   9.018  0.2426 -0.2487 -0.2410
20393SOL    HW165736   6.791   6.051   9.107  1.0859 -1.2517  0.2577
20393SOL    HW265737   6.919   6.047   9.026  0.1692  1.6154 -1.4474
20394SOL     OW65738   0.979   4.226   4.108 -0.1443  0.5771 -0.2947
20394SOL    HW165739   0.913   4.183   4.055  0.2448  0.7109 -0.8986
20394SOL    HW265740   0.947   4.315   4.120  0.3735  0.9316 -1.4087
20395SOL     OW65741   2.478   3.100   0.710 -0.0671 -0.0240 -0.3442
20395SOL    HW165742   2.541   3.041   0.751 -1.5399 -0.0217  2.1004
20395SOL    HW265743   2.493   3.184   0.753  0.2483  0.7769 -1.9301
20396SOL     OW65744   7.602   0.699   2.429 -0.0730 -0.1695  0.1558
20396SOL    HW165745   7.564   0.612   2.434 -1.7822  0.4881 -0.4826
20396SOL    HW265746   7.615   0.725   2.521  2.5243 -1.8709  0.3681
20397SOL     OW65747  11.035  11.242  10.169 -0.0105 -0.0847  0.1254
20397SOL    HW165748  11.118  11.288  10.158  0.5191 -1.1232 -0.3701
20397SOL    HW265749  11.047  11.159  10.123 -1.4456 -0.1142 -0.2470
20398SOL     OW65750   3.715   9.390   3.524  0.5112  0.0448  0.3613
20398SOL    HW165751   3.734   9.416   3.614  2.6587  1.1056 -0.3352
20398SOL    HW265752   3.735   9.467   3.471  0.7323 -1.0100 -1.1708
20399SOL     OW65753   3.138  10.858   1.731  0.3077 -0.1062  0.5419
20399SOL    HW165754   3.189  10.782   1.758  1.7409 -0.8456 -3.4712
20399SOL    HW265755   3.178  10.931   1.778  2.1295 -1.2592  0.9008
20400SOL     OW65756  11.777   2.302   6.356 -0.2729 -0.4838  0.0350
20400SOL    HW165757  11.715   2.277   6.425 -1.4200  0.0673 -0.7619
20400SOL    HW265758  11.794   2.221   6.308 -1.0037 -0.5010 -0.2113
20401SOL     OW65759   9.984   9.087   8.831  0.3592  0.3493 -0.4274
20401SOL    HW165760  10.000   9.136   8.750  2.2294  0.4220 -0.0549
20401SOL    HW265761   9.926   9.015   8.804  2.5297 -0.8143 -2.3102
20402SOL     OW65762   8.201   4.284   7.981 -0.0791  0.0507  0.4799
20402SOL    HW165763   8.258   4.352   7.944  0.0759 -0.0146  0.5934
20402SOL    HW265764   8.247   4.256   8.061 -0.6017  0.4632  0.9258
20403SOL     OW65765  10.931   5.780   6.767 -0.0293  0.0592 -0.0605
20403SOL    HW165766  11.021   5.748   6.761  0.0010  0.3085 -1.0683
20403SOL    HW265767  10.931   5.836   6.845  0.6698 -0.0014 -0.0135
20404SOL     OW65768  10.255   5.465  11.489 -0.4664 -0.0029 -0.6090
20404SOL    HW165769  10.255   5.481  11.583  2.7439  0.9133 -0.6597
20404SOL    HW265770  10.212   5.380  11.478  0.0616 -0.6381  1.8002
20405SOL     OW65771  10.314   3.896  10.788 -0.0478 -0.0600 -0.1339
20405SOL    HW165772  10.234   3.890  10.840 -0.1806  0.2860 -0.2977
20405SOL    HW265773  10.284   3.894  10.697  0.1792 -0.6026 -0.2027
20406SOL     OW65774   2.593   0.663   8.201 -0.1783  0.3401 -0.1224
20406SOL    HW165775   2.637   0.589   8.158 -0.7085 -0.8376  1.2716
20406SOL    HW265776   2.659   0.698   8.261 -0.4102 -0.0182  0.3523
20407SOL     OW65777  10.900  12.085   5.422  0.7703 -0.0476  0.6223
20407SOL    HW165778  10.854  12.066   5.341  3.8466 -1.0449 -1.0545
20407SOL    HW265779  10.939  12.171   5.409  2.2227 -0.6908  0.5162
20408SOL     OW65780   6.044   3.796   8.555 -0.2895 -0.2782 -0.0672
20408SOL    HW165781   5.971   3.760   8.604 -0.4494  1.9506  1.4730
20408SOL    HW265782   6.003   3.853   8.490  0.0398  0.0008 -0.0331
20409SOL     OW65783   9.040  10.786   7.801 -0.3615 -0.0945 -0.2917
20409SOL    HW165784   8.998  10.749   7.879 -1.1685 -1.2803 -1.2445
20409SOL    HW265785   9.108  10.844   7.836 -0.9657 -0.2703  1.2865
20410SOL     OW65786  10.562   0.221   1.377  0.3308 -0.0789  0.1725
20410SOL    HW165787  10.532   0.196   1.290 -0.8874  0.7890  0.3129
20410SOL    HW265788  10.653   0.194   1.380  0.1893 -0.7665 -1.1109
20411SOL     OW65789   3.618   7.760   4.261 -0.6354  0.4596  0.4555
20411SOL    HW165790   3.689   7.717   4.308  0.3341  2.7877  1.2592
20411SOL    HW265791   3.539   7.738   4.310 -0.9958 -3.9277 -1.6150
20412SOL     OW65792   5.916   7.095   4.565  0.9047 -0.3501 -0.3449
20412SOL    HW165793   5.931   7.100   4.660 -0.1614  2.0539 -0.2235
20412SOL    HW265794   5.978   7.158   4.528 -1.5727  1.9962 -0.7629
20413SOL     OW65795   2.594   1.090   1.979  0.4288  0.5317  0.2273
20413SOL    HW165796   2.580   1.048   2.063 -1.0581 -0.1526 -0.3237
20413SOL    HW265797   2.586   1.019   1.915 -1.6511  1.5193 -0.6927
20414SOL     OW65798   2.638   3.830  12.105  0.5019  0.2654 -0.9503
20414SOL    HW165799   2.705   3.781  12.154 -0.4922 -0.0980  0.1025
20414SOL    HW265800   2.672   3.919  12.101  0.3970  0.4460  0.9482
20415SOL     OW65801   1.092   7.272   1.861 -0.1673  0.0786  0.3494
20415SOL    HW165802   1.188   7.268   1.860 -0.1348  0.7811 -0.1770
20415SOL    HW265803   1.069   7.267   1.954  0.3784 -0.1082  0.4799
20416SOL     OW65804   7.845   1.254   2.261 -0.2236  0.4251  0.0287
20416SOL    HW165805   7.786   1.293   2.325 -1.9065 -0.5811 -0.8475
20416SOL    HW265806   7.861   1.166   2.293 -0.2961  0.2415 -0.4299
20417SOL     OW65807  11.896   3.674  10.751 -0.1150 -0.2726  0.7892
20417SOL    HW165808  11.965   3.685  10.685  0.9754 -0.8336  1.8123
20417SOL    HW265809  11.833   3.615  10.710 -0.2555  0.6185 -0.3400
20418SOL     OW65810   0.160   4.648   3.929  0.1094 -0.4982 -0.2620
20418SOL    HW165811   0.231   4.687   3.981 -0.9511  2.2445 -0.6878
20418SOL    HW265812   0.081   4.664   3.981 -0.8889  1.7179 -2.2655
20419SOL     OW65813   2.466   3.103   7.555 -0.2369  0.5337 -0.5950
20419SOL    HW165814   2.449   3.039   7.624  0.4952 -0.3982 -1.2587
20419SOL    HW265815   2.501   3.180   7.601  0.8934 -0.3237  0.0254
20420SOL     OW65816   3.416   5.902   7.408  0.2315 -0.3538 -0.3979
20420SOL    HW165817   3.490   5.911   7.348  0.5653  0.3368  0.1053
20420SOL    HW265818   3.432   5.820   7.454 -1.2909 -2.2405 -2.9338
20421SOL     OW65819   2.414  10.560   0.792 -0.8295 -0.0014  0.6214
20421SOL    HW165820   2.431  10.482   0.739 -0.4454  0.1097  0.5742
20421SOL    HW265821   2.423  10.530   0.882  1.0039  0.3310  0.5939
20422SOL     OW65822   9.545  11.547   1.753  0.0689 -0.2685 -0.5972
20422SOL    HW165823   9.534  11.610   1.681 -0.6191 -0.5369 -0.7377
20422SOL    HW265824   9.484  11.577   1.820  0.6258 -0.0862 -0.1609
20423SOL     OW65825   4.063   1.241   3.394 -0.4618 -0.2527  0.1721
20423SOL    HW165826   3.990   1.191   3.357  0.1845 -0.8168 -0.3776
20423SOL    HW265827   4.093   1.188   3.468  0.5601 -0.9731 -0.7298
20424SOL     OW65828  11.938   3.059   1.899 -0.1119 -0.4174  0.2209
20424SOL    HW165829  11.925   2.968   1.925 -0.9149 -0.3124  0.2109
20424SOL    HW265830  11.999   3.094   1.964 -1.3443 -0.4229  1.4287
20425SOL     OW65831   1.598   2.138  10.363 -0.7902  0.1752  0.5901
20425SOL    HW165832   1.532   2.096  10.308 -0.2949  0.9355 -0.6220
20425SOL    HW265833   1.616   2.074  10.432 -0.3472 -1.4514 -0.9679
20426SOL     OW65834  10.262   3.252   2.403  0.1388  0.5216 -0.8707
20426SOL    HW165835  10.285   3.174   2.454 -0.7706  1.2165  0.6825
20426SOL    HW265836  10.235   3.218   2.318 -0.4157 -0.8714 -0.1634
20427SOL     OW65837   8.733   7.810  11.865 -0.1954 -0.4054 -0.3035
20427SOL    HW165838   8.671   7.880  11.843  0.1991 -0.3304 -1.2381
20427SOL    HW265839   8.717   7.791  11.957 -0.3199  0.9061 -0.0408
20428SOL     OW65840   9.002   7.547   2.273 -0.0264  0.1135  0.7208
20428SOL    HW165841   8.910   7.524   2.286 -1.0872  2.6354 -1.3700
20428SOL    HW265842   9.022   7.610   2.343 -0.0456 -0.0862  0.9043
20429SOL     OW65843   0.203  10.834  11.479  0.3305  0.0126  0.5678
20429SOL    HW165844   0.163  10.795  11.402  0.6235  0.5742  0.1228
20429SOL    HW265845   0.233  10.920  11.450  0.0813  0.3965  1.4163
20430SOL     OW65846   3.207   4.881   6.399  0.2877 -0.0119  0.3540
20430SOL    HW165847   3.251   4.910   6.319 -0.4068  1.0336  0.3203
20430SOL    HW265848   3.267   4.819   6.439  1.3354  0.6363 -0.1843
20431SOL     OW65849   9.632   1.644   5.378 -0.0242  0.1194 -0.2124
20431SOL    HW165850   9.584   1.589   5.315  0.0521 -1.1666  0.8207
20431SOL    HW265851   9.566   1.704   5.412 -0.7620 -1.1418  0.6415
20432SOL     OW65852   1.537   1.030   1.412 -0.2561  0.3266 -0.0630
20432SOL    HW165853   1.475   0.975   1.460 -1.0963  1.5163  0.2583
20432SOL    HW265854   1.569   0.974   1.341 -2.0044 -0.2024 -0.4913
20433SOL     OW65855  10.520   7.463   8.598  0.1587 -0.0079  0.5729
20433SOL    HW165856  10.588   7.395   8.604 -0.4633 -0.7165 -0.1206
20433SOL    HW265857  10.567   7.542   8.572  0.6356 -0.6696 -0.6777
20434SOL     OW65858   9.562   2.418   2.547 -0.3908 -0.1188  0.0016
20434SOL    HW165859   9.577   2.502   2.502  0.3273 -0.8039 -1.0836
20434SOL    HW265860   9.615   2.355   2.498  0.0459 -0.9994  1.5362
20435SOL     OW65861  11.675   9.978   4.908 -0.9712 -0.1868  0.0156
20435SOL    HW165862  11.703  10.067   4.928  3.9233 -1.0923 -1.4857
20435SOL    HW265863  11.670   9.935   4.994 -0.2677  0.8074  0.5712
20436SOL     OW65864   2.873   3.683   7.138 -0.4343 -0.2416  0.1694
20436SOL    HW165865   2.839   3.645   7.219  0.3335  2.0779  1.6788
20436SOL    HW265866   2.880   3.777   7.156  2.5163  0.0145 -1.5838
20437SOL     OW65867   2.073  11.513   2.184 -0.6067  0.1529 -0.3622
20437SOL    HW165868   2.062  11.502   2.278 -1.3121  1.0577 -0.3301
20437SOL    HW265869   2.159  11.475   2.165 -0.8045 -0.7629  0.5063
20438SOL     OW65870   3.730   2.863   7.255  0.0905 -0.8211 -0.0284
20438SOL    HW165871   3.811   2.889   7.211  0.2205 -1.4483 -0.1711
20438SOL    HW265872   3.661   2.907   7.206  0.2040 -1.8105 -1.1198
20439SOL     OW65873   3.202   1.103   1.624  0.5646 -0.4284 -0.0653
20439SOL    HW165874   3.137   1.156   1.578  0.7076  0.5131  0.7837
20439SOL    HW265875   3.287   1.135   1.593  0.6533 -0.1367  0.4633
20440SOL     OW65876   3.878   2.464  10.235  0.7367 -0.0787 -0.4244
20440SOL    HW165877   3.808   2.506  10.185  0.0314  0.2478  0.7801
20440SOL    HW265878   3.852   2.372  10.240 -0.2841  0.2443  1.0293
20441SOL     OW65879   7.382   1.875   6.812  0.5390  0.0922  0.2281
20441SOL    HW165880   7.468   1.834   6.801 -0.3402 -1.7716 -0.0689
20441SOL    HW265881   7.321   1.814   6.771 -0.9998  1.0903  0.9450
20442SOL     OW65882   3.962   7.265   3.902 -0.2444  0.1149 -0.5257
20442SOL    HW165883   3.909   7.205   3.953  0.3782 -1.4490 -1.6400
20442SOL    HW265884   4.029   7.210   3.861  0.2978  1.5434 -1.6728
20443SOL     OW65885   9.971   9.866   6.794  0.6673  0.1711 -0.2518
20443SOL    HW165886   9.879   9.840   6.788  0.3773  0.9157  0.6607
20443SOL    HW265887   9.969   9.949   6.841  1.7705  0.4792 -0.7194
20444SOL     OW65888  10.703   3.687   2.829  0.1753 -0.2130  0.0212
20444SOL    HW165889  10.626   3.698   2.884  0.1932  2.6817 -0.3824
20444SOL    HW265890  10.735   3.776   2.814  0.5865 -0.8472 -4.0591
20445SOL     OW65891  10.954   7.702   1.633  0.6919 -0.4985 -0.1621
20445SOL    HW165892  11.036   7.654   1.648  1.1847  0.2226 -0.4929
20445SOL    HW265893  10.934   7.688   1.541  1.1261  0.3567 -0.3946
20446SOL     OW65894  10.453   1.285   0.553  0.1187  0.1455 -0.0604
20446SOL    HW165895  10.515   1.278   0.626  2.1408  0.8952 -1.6301
20446SOL    HW265896  10.388   1.348   0.583 -1.8777 -2.9370  2.8896
20447SOL     OW65897   1.430   1.437   9.449  0.1310  0.0489  0.1958
20447SOL    HW165898   1.368   1.506   9.425  1.9628  2.5996  2.1633
20447SOL    HW265899   1.500   1.443   9.383 -0.3269 -0.9320 -0.4113
20448SOL     OW65900   1.428   7.405  10.999 -0.1336  0.4719  0.3666
20448SOL    HW165901   1.415   7.329  10.942  0.1975 -0.1052  1.0441
20448SOL    HW265902   1.476   7.370  11.074  0.7838  1.5220  0.2983
20449SOL     OW65903   7.190   1.139   1.728  0.0042 -0.4261  0.5704
20449SOL    HW165904   7.143   1.075   1.781  0.7702 -1.6549 -0.1826
20449SOL    HW265905   7.282   1.114   1.736  0.4125  1.1002  0.9205
20450SOL     OW65906  10.433   3.722   2.146  0.7090 -0.3972 -0.0433
20450SOL    HW165907  10.487   3.651   2.181  1.7929  0.8810  0.9642
20450SOL    HW265908  10.343   3.688   2.150  1.0509 -1.1733  1.8016
20451SOL     OW65909  12.044   2.658   8.477  0.1861  0.3966  0.1975
20451SOL    HW165910  11.978   2.616   8.421 -0.4681 -0.4786  1.5796
20451SOL    HW265911  11.997   2.731   8.518  1.0054  1.8460 -1.2839
20452SOL     OW65912   8.559   5.132   8.345  0.1672 -0.1549 -0.4230
20452SOL    HW165913   8.560   5.037   8.354 -1.8529 -0.4740 -2.4911
20452SOL    HW265914   8.467   5.156   8.353  0.4593  1.4335 -1.2812
20453SOL     OW65915   4.809   7.863   7.456  0.1001  0.5456 -0.2699
20453SOL    HW165916   4.749   7.852   7.383 -0.4725 -1.9058  0.4580
20453SOL    HW265917   4.761   7.917   7.519 -0.8362 -0.2378 -0.2833
20454SOL     OW65918   9.284   5.077   0.288 -0.2510  0.1394 -0.1774
20454SOL    HW165919   9.252   5.057   0.376 -0.9275  0.0621 -0.4388
20454SOL    HW265920   9.271   4.996   0.238  0.7471 -0.0345 -0.1856
20455SOL     OW65921   3.006   9.390   6.570  0.3007 -0.0470 -0.2623
20455SOL    HW165922   3.011   9.295   6.580  0.2455 -0.3497 -2.6644
20455SOL    HW265923   3.090   9.422   6.603 -0.1749 -0.7449  1.7847
20456SOL     OW65924   1.480  11.800   5.016  0.2691  0.3199 -0.1158
20456SOL    HW165925   1.438  11.765   4.937 -0.2592  2.2359 -0.7656
20456SOL    HW265926   1.535  11.729   5.048 -1.6084 -1.4754 -0.6170
20457SOL     OW65927   6.381  11.014   8.200 -0.4463  0.5603  0.0353
20457SOL    HW165928   6.445  11.003   8.270 -1.3357  1.2179  0.9881
20457SOL    HW265929   6.353  11.105   8.208  0.1292  0.9407 -1.8089
20458SOL     OW65930   9.819   7.593   5.890 -0.1328  0.3895 -0.6320
20458SOL    HW165931   9.815   7.598   5.986  3.5740 -0.3524 -0.2796
20458SOL    HW265932   9.829   7.684   5.861  0.5020  0.4811 -0.1407
20459SOL     OW65933   6.937   6.090   1.639  0.6102 -0.0498 -0.2138
20459SOL    HW165934   6.951   6.155   1.708  2.0638 -1.2488  0.6940
20459SOL    HW265935   6.956   6.136   1.557  2.1693  0.5627  0.4525
20460SOL     OW65936  10.292  11.993   1.648  0.3637  0.1407 -0.2703
20460SOL    HW165937  10.377  11.950   1.639  0.5503  0.5786 -0.6426
20460SOL    HW265938  10.303  12.077   1.602 -0.4197 -0.0150 -0.7480
20461SOL     OW65939   6.993   5.991   0.202  0.0051  1.0292  0.5881
20461SOL    HW165940   6.912   5.999   0.251  0.2225  0.9826  0.9591
20461SOL    HW265941   6.967   6.001   0.110 -0.7980 -1.5131  0.4622
20462SOL     OW65942   7.812   0.871   5.767 -0.0309  0.1199  0.1441
20462SOL    HW165943   7.757   0.800   5.734 -0.9280  1.0784 -0.4798
20462SOL    HW265944   7.774   0.893   5.853  0.5417 -0.4565  0.5553
20463SOL     OW65945  11.558   4.337   1.041 -0.1525  0.3411 -0.5850
20463SOL    HW165946  11.562   4.276   0.967  0.7739 -0.6092  0.2069
20463SOL    HW265947  11.646   4.376   1.044  0.1335 -0.3570  0.5861
20464SOL     OW65948   2.876   7.379  11.134 -0.0917  0.0776 -0.4329
20464SOL    HW165949   2.782   7.380  11.155  0.0247  1.4169  0.1187
20464SOL    HW265950   2.879   7.350  11.043 -0.8222 -2.7238  0.3175
20465SOL     OW65951   6.817   8.809   3.875 -0.3271  0.1585  0.6314
20465SOL    HW165952   6.869   8.882   3.841  0.6031 -0.5046  0.5816
20465SOL    HW265953   6.734   8.849   3.900 -0.1978  1.0603 -0.2960
20466SOL     OW65954   5.091   5.184   4.801 -0.0620 -0.8782  0.3306
20466SOL    HW165955   5.089   5.160   4.894  0.4445 -0.5444  0.4293
20466SOL    HW265956   5.003   5.164   4.769 -0.3789 -0.5693  0.9913
20467SOL     OW65957   5.250   0.596  11.510 -0.2777  0.0579  0.6455
20467SOL    HW165958   5.233   0.503  11.493 -1.3511  0.4020 -0.2913
20467SOL    HW265959   5.169   0.640  11.486  0.9745  1.5027 -1.2261
20468SOL     OW65960   7.205   1.604   2.570  0.4034  0.1095  0.4667
20468SOL    HW165961   7.130   1.617   2.629 -1.9322 -3.6085 -1.2929
20468SOL    HW265962   7.195   1.674   2.504 -0.5636  0.6541  1.1535
20469SOL     OW65963   6.674   3.846   1.789  0.4019 -0.1679 -0.0703
20469SOL    HW165964   6.735   3.813   1.724 -0.0230 -3.0617  0.8522
20469SOL    HW265965   6.638   3.767   1.831 -1.3767  1.4950  1.7786
20470SOL     OW65966   9.016   7.567   3.790  0.4307  0.3980 -0.1443
20470SOL    HW165967   8.971   7.537   3.869  1.0250  0.6757  0.3127
20470SOL    HW265968   8.946   7.589   3.729 -0.0578  0.7400  0.5206
20471SOL     OW65969   9.943   4.909   7.015 -0.4232 -0.2347 -0.2047
20471SOL    HW165970   9.918   4.861   7.094 -0.1049 -0.8508 -0.4660
20471SOL    HW265971  10.028   4.948   7.037  0.5942 -1.9468 -0.8274
20472SOL     OW65972   4.386   3.903   9.122 -0.2091  0.1067  0.0992
20472SOL    HW165973   4.363   3.930   9.211 -1.3544 -0.1218 -0.1196
20472SOL    HW265974   4.320   3.838   9.099  0.0574  0.1963 -0.9324
20473SOL     OW65975   4.549   8.625   6.627  0.1652 -0.4846 -0.0499
20473SOL    HW165976   4.524   8.533   6.620 -2.0615 -0.0607  1.1962
20473SOL    HW265977   4.587   8.634   6.714  0.0840 -0.1885 -0.0411
20474SOL     OW65978   6.195  10.777   6.219  0.1828 -0.0249 -0.6100
20474SOL    HW165979   6.185  10.856   6.273 -1.8791 -0.0005 -0.9724
20474SOL    HW265980   6.284  10.784   6.184  0.2545  1.8324 -0.1645
20475SOL     OW65981   4.549   9.116   6.678 -0.0199  0.2506  0.1328
20475SOL    HW165982   4.570   9.042   6.621 -0.6520  0.2623 -0.1161
20475SOL    HW265983   4.458   9.102   6.702 -0.7583  1.9886 -1.4765
20476SOL     OW65984   5.502   7.167   3.534  0.3228 -0.2974 -0.6037
20476SOL    HW165985   5.550   7.140   3.613  0.5596  1.7673  0.0143
20476SOL    HW265986   5.415   7.191   3.566  0.4723  0.7172 -0.9252
20477SOL     OW65987  10.197   8.142   2.354 -0.1115 -0.0497 -0.0975
20477SOL    HW165988  10.276   8.186   2.325  0.2190 -0.9743 -0.6544
20477SOL    HW265989  10.228   8.065   2.401 -0.6649 -0.9673 -1.1867
20478SOL     OW65990   2.566  12.051   6.514 -0.2110 -0.4772 -0.0289
20478SOL    HW165991   2.510  11.978   6.540 -0.8426 -0.4385 -1.2024
20478SOL    HW265992   2.523  12.087   6.436 -0.0683  1.3226  0.6814
20479SOL     OW65993   2.173   5.483   9.631  0.4924 -0.4419 -0.9328
20479SOL    HW165994   2.141   5.543   9.698  0.8220 -0.6559 -0.5796
20479SOL    HW265995   2.263   5.463   9.658  0.1101 -1.7495 -0.5747
20480SOL     OW65996  10.000   0.170   8.139  0.6245  0.1502 -0.3973
20480SOL    HW165997   9.933   0.132   8.081  2.5326 -2.0230 -1.3530
20480SOL    HW265998  10.043   0.236   8.086  0.8065 -0.1616 -0.6431
20481SOL     OW65999   3.815   3.139  10.220  0.5108  0.2576 -0.3859
20481SOL    HW166000   3.865   3.207  10.266  2.0198  0.0498 -1.6111
20481SOL    HW266001   3.862   3.128  10.137 -0.8912 -0.8577 -1.0627
20482SOL     OW66002   5.080   3.349  10.640  0.0646 -0.2809  0.1722
20482SOL    HW166003   5.081   3.279  10.575  0.9706 -1.7501  1.7054
20482SOL    HW266004   4.989   3.354  10.669 -0.5146  0.8804 -1.6306
20483SOL     OW66005   1.123   6.541   0.707 -0.2062  0.0044  0.2707
20483SOL    HW166006   1.169   6.469   0.665 -0.8578  0.3815 -1.1813
20483SOL    HW266007   1.191   6.606   0.726 -0.0348  0.3759 -1.4471
20484SOL     OW66008   3.678   0.845   5.479  0.3741 -0.2088 -0.4348
20484SOL    HW166009   3.647   0.936   5.473  0.8950 -0.0225 -0.3247
20484SOL    HW266010   3.629   0.808   5.553  0.9596  0.3091  0.2273
20485SOL     OW66011   0.270   1.820   6.309  0.1390  0.8992 -0.0829
20485SOL    HW166012   0.272   1.725   6.300 -0.3915  0.9836 -1.4567
20485SOL    HW266013   0.310   1.852   6.228 -2.7636  1.8480 -1.2723
20486SOL     OW66014   2.283   7.553   5.106  0.3280 -1.0317 -0.5979
20486SOL    HW166015   2.333   7.599   5.039 -0.5653 -1.1515 -1.3763
20486SOL    HW266016   2.330   7.569   5.188  0.5174  0.5247 -0.9881
20487SOL     OW66017   7.110  10.284   3.519 -1.0199  0.0921 -0.2773
20487SOL    HW166018   7.120  10.206   3.464 -0.6442  0.3388 -0.5655
20487SOL    HW266019   7.020  10.281   3.550 -1.3060  0.0766 -1.1007
20488SOL     OW66020   0.033   1.019   9.240  0.3021  0.4561  0.2038
20488SOL    HW166021   0.069   1.098   9.199  0.5059  0.8412  1.0946
20488SOL    HW266022   0.024   1.042   9.332  0.4817 -0.6096  0.5009
20489SOL     OW66023   7.685  11.786   3.078  0.1107 -0.0580 -0.0027
20489SOL    HW166024   7.778  11.764   3.086  0.2683  0.8323  0.8592
20489SOL    HW266025   7.664  11.830   3.160 -0.8123  0.6624 -0.6054
20490SOL     OW66026   5.440   6.511   3.399  0.4063 -0.1736  0.4534
20490SOL    HW166027   5.454   6.419   3.421 -1.3892 -0.8989 -1.2489
20490SOL    HW266028   5.528   6.549   3.400  1.4099 -2.3253 -0.6092
20491SOL     OW66029   6.979   5.771   3.391 -0.0779  0.4446  1.0661
20491SOL    HW166030   6.900   5.745   3.440 -0.1551 -2.5209 -0.4401
20491SOL    HW266031   6.950   5.845   3.337 -1.7585 -0.3364  0.8214
20492SOL     OW66032  11.108   3.740   7.999  0.3377 -0.3565 -0.6040
20492SOL    HW166033  11.193   3.701   8.024  1.7241  2.4624 -0.5537
20492SOL    HW266034  11.101   3.723   7.905  0.2319 -1.8280 -0.3597
20493SOL     OW66035   2.522   8.594   7.031  0.4729 -0.5311  0.1702
20493SOL    HW166036   2.458   8.629   6.968  2.5291  1.8816 -0.7353
20493SOL    HW266037   2.559   8.518   6.986  0.2250 -0.2555 -0.5253
20494SOL     OW66038  11.273   0.303   5.387  0.1506  0.4183  0.0633
20494SOL    HW166039  11.247   0.291   5.478  0.4897 -1.9672 -0.0676
20494SOL    HW266040  11.192   0.321   5.340 -0.0860  1.2105  0.7631
20495SOL     OW66041  10.110   6.051   0.366  0.1497 -0.0452  0.6224
20495SOL    HW166042  10.199   6.073   0.337 -0.2828  0.5486 -0.3030
20495SOL    HW266043  10.063   6.030   0.285 -0.8248  0.6505  0.9820
20496SOL     OW66044   0.850   9.052   4.902 -0.3015  0.4251 -0.1418
20496SOL    HW166045   0.756   9.068   4.905 -0.6353 -1.2512 -0.8752
20496SOL    HW266046   0.861   8.967   4.944  1.1243  1.3666  1.5360
20497SOL     OW66047   4.371   9.754  10.430  0.0476 -0.3794 -0.2543
20497SOL    HW166048   4.357   9.842  10.394  1.0847  0.2211  0.7451
20497SOL    HW266049   4.383   9.698  10.353  1.4005  0.7204 -0.8843
20498SOL     OW66050   6.284   7.274   4.054 -0.4861 -0.1405  0.1305
20498SOL    HW166051   6.214   7.218   4.020 -1.0635 -0.1870  1.3528
20498SOL    HW266052   6.256   7.363   4.033 -1.1882 -0.1252  1.0623
20499SOL     OW66053   2.295   9.074   1.949 -0.0108 -0.1563  0.1740
20499SOL    HW166054   2.362   9.139   1.928  1.3901 -0.9343  1.9105
20499SOL    HW266055   2.327   8.992   1.912  1.4630 -1.0991  3.1792
20500SOL     OW66056   0.830   7.168  10.465  0.3456  0.1570  0.5359
20500SOL    HW166057   0.754   7.109  10.461 -0.1440  0.7476  0.9000
20500SOL    HW266058   0.902   7.112  10.492 -0.5734  0.1113  3.1824
20501SOL     OW66059   4.448   0.564   2.384 -0.2933 -0.2901 -0.4069
20501SOL    HW166060   4.373   0.512   2.414 -1.3248  0.5588 -1.4260
20501SOL    HW266061   4.479   0.607   2.464  0.3058 -2.0605  0.3746
20502SOL     OW66062   7.282   7.440   9.218 -0.1797  0.0998 -0.0819
20502SOL    HW166063   7.351   7.393   9.173 -1.0030  0.6555 -2.0489
20502SOL    HW266064   7.265   7.389   9.297 -0.8937 -2.8627 -1.9724
20503SOL     OW66065   9.272   9.024   7.440  0.4314  0.1229  0.1010
20503SOL    HW166066   9.191   8.979   7.417  0.3135  0.3216  0.1243
20503SOL    HW266067   9.249   9.076   7.517  0.9305 -0.8549  0.9323
20504SOL     OW66068   5.078   9.632   8.457 -0.3081  0.1479  0.2333
20504SOL    HW166069   5.081   9.722   8.488  2.6203 -0.2936  1.6410
20504SOL    HW266070   5.166   9.615   8.424 -0.9601 -2.0194 -0.5804
20505SOL     OW66071   4.059   8.336   9.406  0.3749  0.0252  0.2461
20505SOL    HW166072   4.053   8.363   9.315 -0.5903  0.2394  0.3648
20505SOL    HW266073   4.078   8.242   9.402  0.8730  0.1375 -0.1640
20506SOL     OW66074   1.165   7.673   6.858  0.4939 -0.4268  0.3266
20506SOL    HW166075   1.256   7.689   6.884  0.3883  1.6052 -0.3823
20506SOL    HW266076   1.118   7.661   6.941  1.2246 -0.4579  0.7461
20507SOL     OW66077   9.696   0.031   5.876  0.8973  0.5179  0.3482
20507SOL    HW166078   9.687   0.053   5.784  0.7974  1.3926  0.5563
20507SOL    HW266079   9.685  -0.064   5.880  0.2588  0.5489 -0.4633
20508SOL     OW66080   1.869  10.865   6.982 -0.7565  0.1886  0.2853
20508SOL    HW166081   1.817  10.835   7.056  1.1851 -0.7729  1.3350
20508SOL    HW266082   1.939  10.801   6.974 -1.1125  0.0126 -2.7074
20509SOL     OW66083   1.359  11.596   0.037 -0.3629  0.0204 -0.1116
20509SOL    HW166084   1.449  11.562   0.041 -0.1847  0.5537  1.8901
20509SOL    HW266085   1.353  11.637  -0.049  1.9399  1.5316  0.3380
20510SOL     OW66086   5.944   2.701   4.552  0.9586  0.3446 -0.1869
20510SOL    HW166087   5.890   2.772   4.518 -1.3952 -1.4546 -0.4476
20510SOL    HW266088   6.003   2.679   4.481  0.3354  0.7255 -0.8341
20511SOL     OW66089   3.715   6.218   6.071  0.1162  0.2172  0.1576
20511SOL    HW166090   3.799   6.172   6.081 -0.2428 -0.4490  0.1156
20511SOL    HW266091   3.694   6.249   6.159 -0.2819 -0.8287  0.4449
20512SOL     OW66092  11.343   8.151   7.188  0.1644 -0.1678  0.3846
20512SOL    HW166093  11.308   8.207   7.258 -0.2651  0.1425 -0.0725
20512SOL    HW266094  11.344   8.063   7.226 -0.0247  0.0077  0.7982
20513SOL     OW66095   0.871   5.942   1.046 -0.5024  1.1591  0.0413
20513SOL    HW166096   0.841   5.980   0.963 -0.3512 -0.5237 -0.8375
20513SOL    HW266097   0.810   5.870   1.063  2.3496 -1.8868 -1.4029
20514SOL     OW66098   2.775   6.650  10.154  0.6824 -0.5284  0.5451
20514SOL    HW166099   2.854   6.690  10.119 -0.0828  2.1351  1.6309
20514SOL    HW266100   2.735   6.718  10.208 -2.0031 -2.0012  0.6013
20515SOL     OW66101  11.814   7.280   2.013  0.4912  0.3813 -0.0945
20515SOL    HW166102  11.808   7.345   1.943  0.3740  0.6225  0.1374
20515SOL    HW266103  11.861   7.206   1.974 -0.4566  0.0936 -0.7404
20516SOL     OW66104  10.396   5.137  10.007 -0.3256  0.2630 -0.3046
20516SOL    HW166105  10.381   5.231  10.006  1.7544  0.6444 -0.9309
20516SOL    HW266106  10.311   5.098   9.987 -0.8941  2.0619 -1.5763
20517SOL     OW66107   0.058   9.289   1.239  0.0488  0.4825  0.3062
20517SOL    HW166108   0.053   9.353   1.169 -1.5387  1.2912  1.1184
20517SOL    HW266109   0.149   9.292   1.268  0.0069  2.4130  0.3434
20518SOL     OW66110   3.335  11.320  11.707 -0.0657  0.3277  0.3708
20518SOL    HW166111   3.391  11.259  11.755  1.0993  1.3381  0.3430
20518SOL    HW266112   3.360  11.308  11.615 -0.5334  0.1504  0.2643
20519SOL     OW66113   5.211  10.531   9.954 -0.0276 -0.1150 -0.0413
20519SOL    HW166114   5.163  10.512  10.035 -1.0649 -1.0156 -0.8467
20519SOL    HW266115   5.294  10.486   9.964  0.3017  0.6762  0.9683
20520SOL     OW66116   6.804   5.207  10.171 -0.3651  0.0536 -0.2701
20520SOL    HW166117   6.714   5.175  10.159  0.0515 -0.4911 -2.2717
20520SOL    HW266118   6.794   5.299  10.193 -1.4154  0.1636 -1.1209
20521SOL     OW66119  11.674   0.364   1.439  0.1826 -0.0073 -0.2146
20521SOL    HW166120  11.585   0.397   1.449  0.0594 -0.8220  1.7010
20521SOL    HW266121  11.728   0.425   1.490  0.7551  0.4220 -1.2778
20522SOL     OW66122   6.397   8.077   1.040 -0.0972  0.0609 -0.0650
20522SOL    HW166123   6.437   8.022   1.108  0.9547 -0.7617 -1.2967
20522SOL    HW266124   6.313   8.102   1.077  0.3920 -0.4410  1.5013
20523SOL     OW66125   7.132   2.881   2.492  0.2428 -0.0704  0.0392
20523SOL    HW166126   7.157   2.938   2.419  1.0265 -0.4326  0.0204
20523SOL    HW266127   7.086   2.939   2.553  1.8657  0.8055  0.4766
20524SOL     OW66128   7.640  10.413   4.865  0.1016 -0.2946 -0.0863
20524SOL    HW166129   7.559  10.449   4.901  0.1270 -0.4284  0.1054
20524SOL    HW266130   7.640  10.321   4.893  1.2829  0.1739  1.6181
20525SOL     OW66131   0.164  11.032  11.675  0.5360  0.0902  0.0323
20525SOL    HW166132   0.249  11.074  11.687  1.5997 -2.2722  1.5269
20525SOL    HW266133   0.184  10.952  11.626 -1.3588  1.0045 -2.4604
20526SOL     OW66134   5.217   9.614   3.452  0.0975 -0.8177 -0.7429
20526SOL    HW166135   5.142   9.574   3.495  1.0311  0.0215  1.8609
20526SOL    HW266136   5.266   9.540   3.415 -0.4304 -1.6765  0.2294
20527SOL     OW66137  12.072  11.661   9.253  0.3903  0.0332  0.3517
20527SOL    HW166138  12.126  11.665   9.174  0.9396 -0.7423  0.6765
20527SOL    HW266139  11.993  11.709   9.230  0.9830  0.7209 -0.3176
20528SOL     OW66140   3.324   7.265   8.334  0.7136 -0.1913  0.1834
20528SOL    HW166141   3.397   7.324   8.354  0.2603  0.1394  0.9121
20528SOL    HW266142   3.246   7.320   8.344  0.3483 -0.6023 -0.3537
20529SOL     OW66143   4.335  10.374  10.816 -0.4364 -0.4757  0.3603
20529SOL    HW166144   4.241  10.385  10.835 -1.0606 -0.1526 -2.4549
20529SOL    HW266145   4.337  10.309  10.746  1.4005  0.0165 -0.0839
20530SOL     OW66146   4.913   3.982   2.464 -0.3239  0.2249  0.5645
20530SOL    HW166147   4.924   4.040   2.540  0.2014  1.1807 -0.2166
20530SOL    HW266148   4.952   4.031   2.391 -0.1940 -0.9695 -0.1918
20531SOL     OW66149   9.564   8.341   1.449 -0.2153 -0.5107  0.0265
20531SOL    HW166150   9.528   8.267   1.401  0.0290 -0.3097 -0.4682
20531SOL    HW266151   9.582   8.306   1.537  2.0163 -1.6892 -0.8210
20532SOL     OW66152   8.504   9.684   2.968 -0.4025  0.0599 -0.4900
20532SOL    HW166153   8.516   9.666   3.062  0.2429  1.2826 -0.3265
20532SOL    HW266154   8.512   9.598   2.927  3.5408 -0.0817  0.1834
20533SOL     OW66155   4.271   9.232   8.336 -0.6739  0.0241 -0.1454
20533SOL    HW166156   4.272   9.290   8.260 -0.1530  0.7597  0.4067
20533SOL    HW266157   4.258   9.145   8.300  0.0693  0.2980 -1.1283
20534SOL     OW66158   6.221   5.006   9.710  0.7662  0.2693  0.6506
20534SOL    HW166159   6.214   5.069   9.781 -1.4255  1.5826 -0.6057
20534SOL    HW266160   6.302   5.029   9.665  1.2686  0.5477  1.6687
20535SOL     OW66161   4.209  10.715   3.079 -0.2611  0.5652 -0.1803
20535SOL    HW166162   4.151  10.738   3.007 -0.8121 -1.4382 -0.4366
20535SOL    HW266163   4.153  10.670   3.142  0.3267  1.7852  1.2756
20536SOL     OW66164  10.571   4.187   1.611  0.0114  0.6668 -0.3835
20536SOL    HW166165  10.626   4.264   1.596  0.5922  0.4356  0.4861
20536SOL    HW266166  10.500   4.219   1.666  0.4265  0.5243  0.2456
20537SOL     OW66167  10.394   7.298  11.885  0.2847  0.1634  0.1014
20537SOL    HW166168  10.328   7.309  11.817 -0.9177 -0.2318  1.1649
20537SOL    HW266169  10.391   7.379  11.935  0.4614  0.0669  0.2705
20538SOL     OW66170   9.173  10.732   7.096 -0.4842 -0.4437 -0.4582
20538SOL    HW166171   9.133  10.714   7.181 -0.5092  0.3025 -0.3041
20538SOL    HW266172   9.249  10.675   7.092 -0.7024 -0.7633 -0.1008
20539SOL     OW66173   1.025   7.664   6.427  0.0632  0.2604 -0.1417
20539SOL    HW166174   1.021   7.604   6.502 -1.6003  0.5655  0.0718
20539SOL    HW266175   0.993   7.747   6.462 -2.9747 -0.1414 -1.6226
20540SOL     OW66176   3.129   3.473   3.897  0.3209  0.3126  0.2817
20540SOL    HW166177   3.077   3.460   3.976  0.6941  0.5882  0.5812
20540SOL    HW266178   3.118   3.565   3.876 -0.8216 -0.0368 -0.7509
20541SOL     OW66179   1.661   3.217   6.711  0.0811  0.3081  0.2734
20541SOL    HW166180   1.683   3.234   6.620 -0.8724 -0.0486 -0.0309
20541SOL    HW266181   1.572   3.251   6.722 -0.0219 -0.1405  0.9174
20542SOL     OW66182   2.363   0.424   4.249  0.2850  0.3640  0.4944
20542SOL    HW166183   2.314   0.420   4.332  0.5689  1.1827  0.7100
20542SOL    HW266184   2.367   0.333   4.219  0.1333  0.0641  1.3553
20543SOL     OW66185   0.248   3.041  10.939 -0.3685  0.7577  0.1538
20543SOL    HW166186   0.267   3.067  10.849  0.1395  0.2847  0.1201
20543SOL    HW266187   0.166   3.087  10.960 -1.4305 -0.4449 -1.1320
20544SOL     OW66188   0.002   7.267   3.482 -0.5032 -0.5349  0.0450
20544SOL    HW166189   0.025   7.196   3.423  0.9491 -0.5385  0.5790
20544SOL    HW266190  -0.003   7.345   3.426  1.4074 -0.4349 -0.0469
20545SOL     OW66191   7.309   3.843   0.324 -0.4325 -0.1152 -0.3444
20545SOL    HW166192   7.226   3.810   0.290 -0.0194 -1.6889  0.0850
20545SOL    HW266193   7.356   3.877   0.247 -1.1413  0.0672 -0.6984
20546SOL     OW66194   7.109   3.681   8.640 -0.9081  0.2257  0.0272
20546SOL    HW166195   7.172   3.706   8.573 -0.4781  0.4204  0.4936
20546SOL    HW266196   7.065   3.763   8.664 -0.9785  0.1783  0.0600
20547SOL     OW66197  10.859   8.060   1.730 -0.6636  0.1283 -0.1920
20547SOL    HW166198  10.925   8.116   1.770  0.5241 -1.1838 -0.1960
20547SOL    HW266199  10.795   8.120   1.692 -0.4826  1.4264  1.4493
20548SOL     OW66200   4.491   9.151  11.922 -0.3595  0.6922 -0.6101
20548SOL    HW166201   4.495   9.097  12.000  1.1696  0.8130 -0.5832
20548SOL    HW266202   4.450   9.233  11.951 -0.8785  0.2967 -0.2130
20549SOL     OW66203   6.600   6.741   2.017  0.1189 -0.2935 -0.5561
20549SOL    HW166204   6.671   6.715   2.077 -0.6457 -0.2728  0.3704
20549SOL    HW266205   6.522   6.697   2.051 -0.2426 -0.7041 -1.8492
20550SOL     OW66206  11.714   4.292  11.860  0.0786 -0.2323  0.8470
20550SOL    HW166207  11.694   4.258  11.947  0.8157  1.0128  1.5453
20550SOL    HW266208  11.738   4.384  11.876 -1.4866  0.5418 -0.8889
20551SOL     OW66209   5.783   3.602  10.801 -0.1319 -0.1878 -0.6194
20551SOL    HW166210   5.823   3.554  10.728  0.3521 -0.8688  0.0890
20551SOL    HW266211   5.785   3.693  10.773 -0.0453 -0.4475 -1.5062
20552SOL     OW66212   0.165  10.823   6.376 -0.7077  0.4247  0.3530
20552SOL    HW166213   0.256  10.791   6.372 -1.0792 -0.6258  0.0238
20552SOL    HW266214   0.131  10.786   6.457 -0.8571  0.7861  0.4552
20553SOL     OW66215   2.079  11.040   0.030 -0.2328 -0.0480  0.0171
20553SOL    HW166216   2.144  10.970   0.027  0.2760  0.4328 -0.3886
20553SOL    HW266217   2.131  11.120   0.036 -0.7136  0.4767 -2.0211
20554SOL     OW66218  11.198   0.667   3.011 -0.3621 -0.2925 -0.3151
20554SOL    HW166219  11.284   0.677   2.969 -0.7631  1.7430 -0.7327
20554SOL    HW266220  11.190   0.572   3.026  1.5605 -0.6224 -1.0676
20555SOL     OW66221   4.486   9.664   2.562 -0.3002  0.2898 -0.0585
20555SOL    HW166222   4.435   9.705   2.632 -0.7776  0.7024 -0.6399
20555SOL    HW266223   4.576   9.668   2.593 -0.3804  1.4191  0.0759
20556SOL     OW66224   0.939   9.830   9.295 -0.5741  0.0338  0.5193
20556SOL    HW166225   1.007   9.882   9.337  0.2023 -0.8046  0.3515
20556SOL    HW266226   0.968   9.822   9.204 -0.4314 -1.0435  0.6406
20557SOL     OW66227   8.530   4.772   4.076 -0.2920  0.3721  0.0552
20557SOL    HW166228   8.511   4.714   4.003  1.1245  1.5351 -1.3212
20557SOL    HW266229   8.590   4.722   4.132  0.5500  0.3013 -0.8798
20558SOL     OW66230   3.766   2.381   5.954  0.0421 -0.2377 -0.3625
20558SOL    HW166231   3.749   2.475   5.965 -1.0573 -0.2723 -1.4949
20558SOL    HW266232   3.729   2.360   5.868 -1.0820 -2.0035  0.4823
20559SOL     OW66233   1.685   6.973   8.494 -0.3740  0.2591 -0.0122
20559SOL    HW166234   1.640   6.980   8.579  1.2785 -0.4314  0.9812
20559SOL    HW266235   1.761   7.030   8.503  0.0490 -0.1551 -0.8718
20560SOL     OW66236   9.317   1.689   0.890 -0.2439 -0.1316  0.4837
20560SOL    HW166237   9.309   1.603   0.850  1.4421  0.0190 -0.2787
20560SOL    HW266238   9.275   1.680   0.975 -0.7847 -1.4766  0.1015
20561SOL     OW66239   0.859   8.329  11.652 -0.1095 -0.4461  0.3176
20561SOL    HW166240   0.831   8.243  11.684  0.2484 -0.3972  0.7729
20561SOL    HW266241   0.953   8.319  11.636  0.2179  0.2358  1.6725
20562SOL     OW66242   7.863   8.917   1.935  1.0148  0.0738  0.0899
20562SOL    HW166243   7.919   8.989   1.907  4.4217 -1.4306  2.2540
20562SOL    HW266244   7.879   8.848   1.870  1.1586 -0.1120  0.3174
20563SOL     OW66245   9.541   7.488   8.900  0.2927  0.1495 -0.0909
20563SOL    HW166246   9.484   7.430   8.850 -0.1971  0.1693  0.4282
20563SOL    HW266247   9.608   7.515   8.838  0.4794 -0.9010 -0.3654
20564SOL     OW66248   9.749   6.562   6.232 -0.0978  0.1186 -0.2210
20564SOL    HW166249   9.668   6.510   6.240  0.1204 -0.0461  1.1629
20564SOL    HW266250   9.723   6.639   6.181 -1.2406  0.2704  0.5490
20565SOL     OW66251  11.200   8.442   5.323 -0.0355  0.3077 -0.0750
20565SOL    HW166252  11.236   8.362   5.361 -0.9447  0.0659  0.3108
20565SOL    HW266253  11.156   8.413   5.243  0.0202  0.4869 -0.1700
20566SOL     OW66254   2.400   7.758   9.600 -0.0302  0.1543 -0.4900
20566SOL    HW166255   2.405   7.663   9.592  0.6301  0.1577 -0.1704
20566SOL    HW266256   2.458   7.779   9.673 -1.7574  0.6167  0.8203
20567SOL     OW66257   7.695  10.805   1.110 -0.3460 -0.2061  0.4262
20567SOL    HW166258   7.621  10.778   1.165 -0.2644  1.2759  1.3061
20567SOL    HW266259   7.763  10.740   1.129 -1.4829 -1.7932 -0.6474
20568SOL     OW66260   8.547  11.391   1.140  0.9773 -0.3274  0.0216
20568SOL    HW166261   8.615  11.431   1.194  2.0231 -1.3745 -0.4898
20568SOL    HW266262   8.470  11.446   1.156  1.6603  0.3148  1.3585
20569SOL     OW66263   0.397   7.095   5.702 -0.0399 -0.8408 -0.0538
20569SOL    HW166264   0.412   7.086   5.796 -0.3859 -0.2214  0.0672
20569SOL    HW266265   0.423   7.185   5.683 -0.2934 -0.8578 -0.4885
20570SOL     OW66266   9.332   3.448   5.791  1.0087  0.5304  0.0077
20570SOL    HW166267   9.311   3.438   5.698  0.3615  3.1803 -0.2121
20570SOL    HW266268   9.248   3.469   5.833  1.3241 -0.4271  1.2070
20571SOL     OW66269   5.639   7.680   4.910  0.5382 -0.4924 -0.1172
20571SOL    HW166270   5.667   7.697   4.820 -1.1624  0.9047 -0.4412
20571SOL    HW266271   5.646   7.585   4.919 -0.0619 -0.7712 -2.0344
20572SOL     OW66272  10.133  10.278   8.964  0.3987  0.1208  0.3051
20572SOL    HW166273  10.118  10.340   9.035  0.7729  0.8838 -0.2630
20572SOL    HW266274  10.194  10.214   9.001 -1.9952 -1.4731  1.7477
20573SOL     OW66275   6.549   5.947   0.911  0.3794 -0.1477  0.0584
20573SOL    HW166276   6.570   5.876   0.971 -1.6912  0.9052  2.2197
20573SOL    HW266277   6.534   6.023   0.968  0.5221  1.5175 -1.9873
20574SOL     OW66278   6.375   4.259   0.787  0.5779  0.1059 -0.4227
20574SOL    HW166279   6.445   4.208   0.829 -0.3241 -0.0420  0.9402
20574SOL    HW266280   6.388   4.242   0.693 -0.9834 -4.5452 -0.0808
20575SOL     OW66281   6.338   6.537   0.803 -0.2520  0.1992 -0.0919
20575SOL    HW166282   6.259   6.532   0.857  0.4834  1.9249  1.2220
20575SOL    HW266283   6.311   6.502   0.718 -2.1524 -0.1634  0.6193
20576SOL     OW66284   7.464   0.855  11.924  0.6246  0.5568  0.3879
20576SOL    HW166285   7.369   0.852  11.920  0.6401  1.2060 -0.8660
20576SOL    HW266286   7.491   0.764  11.932 -0.0493  0.1560 -1.4274
20577SOL     OW66287   5.092   7.659   1.957 -1.0497  0.2454  0.0967
20577SOL    HW166288   5.031   7.732   1.953 -1.9379 -0.5119 -0.5210
20577SOL    HW266289   5.075   7.609   1.877  0.3426 -0.0146 -0.0558
20578SOL     OW66290   9.161   4.311  11.615  0.4563  0.5551  0.0939
20578SOL    HW166291   9.199   4.235  11.569 -2.4414 -1.6422  1.0264
20578SOL    HW266292   9.178   4.293  11.708  0.4006  1.4824  0.2936
20579SOL     OW66293   6.026   8.697   7.794 -0.7809 -0.1022  0.0267
20579SOL    HW166294   6.070   8.635   7.852  0.4024 -1.5621 -2.2889
20579SOL    HW266295   5.944   8.653   7.771 -1.6769  0.8704  1.2058
20580SOL     OW66296  10.228   3.600   7.829 -0.9208 -0.0529 -0.0158
20580SOL    HW166297  10.161   3.641   7.775 -1.1172 -0.6135 -0.2056
20580SOL    HW266298  10.306   3.599   7.774 -0.1866  2.3284  0.8651
20581SOL     OW66299   5.710   9.062  11.042 -0.2645  0.3461 -0.1715
20581SOL    HW166300   5.621   9.098  11.041 -0.2582  0.4139 -1.9039
20581SOL    HW266301   5.707   8.989  10.979  0.0282 -1.9991  2.3587
20582SOL     OW66302   3.960   7.685   3.249 -0.4181 -0.4083  0.4684
20582SOL    HW166303   3.891   7.732   3.202 -0.7879 -1.0987  0.3006
20582SOL    HW266304   3.916   7.606   3.283  0.1326 -0.5235  0.9305
20583SOL     OW66305  11.913   1.364   1.048  0.4911 -0.2865 -0.0561
20583SOL    HW166306  11.996   1.341   1.005  0.2559  0.9109 -1.2201
20583SOL    HW266307  11.939   1.419   1.122  0.7448  0.0058 -0.3576
20584SOL     OW66308   3.841   0.746   2.104  0.1003 -0.0081  0.0463
20584SOL    HW166309   3.746   0.759   2.101  0.3714  2.3885 -1.2304
20584SOL    HW266310   3.856   0.670   2.048 -1.0023  0.3758 -0.8374
20585SOL     OW66311  10.027   6.404   3.977 -0.1779  0.0321 -0.2158
20585SOL    HW166312   9.981   6.444   4.050  0.9370  1.7764 -0.4108
20585SOL    HW266313  10.035   6.474   3.912  0.7465 -0.8596 -1.0936
20586SOL     OW66314   9.879  10.538   8.386  0.1567 -0.3209 -0.2880
20586SOL    HW166315   9.799  10.499   8.353 -0.1503  0.4021 -0.3962
20586SOL    HW266316   9.904  10.482   8.460 -1.5453  0.5811  1.0413
20587SOL     OW66317  10.619   1.479   4.148 -0.6139  0.1630  0.3500
20587SOL    HW166318  10.524   1.483   4.156 -0.8517 -0.4587 -1.6451
20587SOL    HW266319  10.636   1.391   4.115  0.5480  0.6265 -0.3523
20588SOL     OW66320   2.040   9.142  10.448  0.0205 -0.6666 -0.2509
20588SOL    HW166321   2.132   9.166  10.462 -0.8903  2.0946  2.0453
20588SOL    HW266322   1.992   9.224  10.457 -2.7387 -2.0471 -1.1125
20589SOL     OW66323   0.398   5.679   3.850 -0.0349 -0.6969  0.2307
20589SOL    HW166324   0.480   5.633   3.870  0.3372 -0.1705 -0.0678
20589SOL    HW266325   0.407   5.764   3.893 -0.6872 -0.8565  0.7132
20590SOL     OW66326   9.134   2.483   3.682  0.2656  0.5345 -0.3575
20590SOL    HW166327   9.215   2.482   3.733  0.6681  2.3824 -0.8679
20590SOL    HW266328   9.162   2.468   3.592 -0.2124 -0.7535 -0.3051
20591SOL     OW66329   9.412   5.873   0.098 -0.0321 -0.2137 -0.3926
20591SOL    HW166330   9.414   5.794   0.044  0.3283 -1.5367  1.4643
20591SOL    HW266331   9.489   5.866   0.154 -0.2454  1.2368  0.1160
20592SOL     OW66332   0.189  11.004  10.306  0.3932 -0.1482 -0.0494
20592SOL    HW166333   0.260  10.942  10.323  1.9234  1.5483  0.1494
20592SOL    HW266334   0.206  11.037  10.217  0.2175  0.6975  0.2161
20593SOL     OW66335   9.234   6.117  11.118 -0.4110 -0.5403  0.3401
20593SOL    HW166336   9.313   6.064  11.102  0.8771  1.3220  0.1797
20593SOL    HW266337   9.258   6.174  11.191 -1.3632  0.5523 -0.1708
20594SOL     OW66338   5.997   9.560   4.517  0.7503 -0.2736 -0.3450
20594SOL    HW166339   6.067   9.517   4.567  0.5402 -2.8091 -2.0142
20594SOL    HW266340   6.000   9.518   4.431 -2.1444  0.2787 -0.8259
20595SOL     OW66341   9.121   1.329   3.343  0.0705 -0.3738 -0.4476
20595SOL    HW166342   9.149   1.417   3.318  0.0565 -0.0986  0.4716
20595SOL    HW266343   9.165   1.313   3.427 -1.9453 -0.2165  0.6889
20596SOL     OW66344   5.088   6.107   2.845  0.4426  0.2851 -0.0775
20596SOL    HW166345   5.064   6.164   2.772  0.7324  0.5883  0.0595
20596SOL    HW266346   5.108   6.023   2.804  0.8401  0.5202 -0.3785
20597SOL     OW66347   7.306   8.106   9.159  0.1165  0.8068 -0.8026
20597SOL    HW166348   7.231   8.047   9.169  0.4075  0.6327  0.4487
20597SOL    HW266349   7.321   8.141   9.246  0.5645  2.0044 -1.3375
20598SOL     OW66350   6.471   0.986   6.830  0.4269  0.3195 -0.1069
20598SOL    HW166351   6.451   0.982   6.737 -0.6483 -0.7010  0.1471
20598SOL    HW266352   6.565   1.004   6.834  0.5073  0.2287 -1.3785
20599SOL     OW66353   5.649   1.150   5.986  0.1870 -0.4054 -0.0511
20599SOL    HW166354   5.728   1.122   5.941  0.6747 -0.0262  0.5537
20599SOL    HW266355   5.666   1.241   6.011 -0.6491 -0.1477 -0.3764
20600SOL     OW66356   4.165  11.270   4.440 -0.6238 -0.1970  0.0421
20600SOL    HW166357   4.206  11.248   4.524  0.9480 -1.7177 -1.0512
20600SOL    HW266358   4.108  11.195   4.421 -2.3914  0.9609  0.5534
20601SOL     OW66359   8.880   1.319   7.637  0.0234  0.3974  0.4673
20601SOL    HW166360   8.849   1.330   7.726  0.1670  0.2114  0.5407
20601SOL    HW266361   8.822   1.254   7.598 -1.1363  1.7480 -0.1237
20602SOL     OW66362   0.726   6.753   2.216 -0.3526 -0.2490 -0.2528
20602SOL    HW166363   0.771   6.674   2.187  1.4512  0.8467 -0.5956
20602SOL    HW266364   0.684   6.788   2.138 -1.1018 -0.8077 -0.1124
20603SOL     OW66365   3.550   3.909   8.064  0.5682  0.2366 -0.2980
20603SOL    HW166366   3.610   3.912   8.140  0.1549  1.9877  0.0036
20603SOL    HW266367   3.592   3.965   7.999 -0.0920  0.3980 -0.5872
20604SOL     OW66368   7.319   4.738   9.784  0.4948  0.3006  0.5180
20604SOL    HW166369   7.341   4.645   9.774  1.5685  0.4471  1.3260
20604SOL    HW266370   7.394   4.784   9.746 -0.6034  0.8628 -1.0617
20605SOL     OW66371  10.085   7.973   0.941 -1.0826  0.2409  0.2607
20605SOL    HW166372  10.090   8.056   0.894 -1.5185  0.3256  0.3585
20605SOL    HW266373  10.028   7.992   1.016  0.7488  0.5004  1.6344
20606SOL     OW66374   8.452   0.525  10.448 -0.2007  0.3341 -0.3659
20606SOL    HW166375   8.497   0.609  10.437  0.9168 -0.2906 -0.8013
20606SOL    HW266376   8.448   0.511  10.543  0.9699  0.1969 -0.3230
20607SOL     OW66377   8.884   5.693  11.218 -0.0764  0.3967 -0.3533
20607SOL    HW166378   8.954   5.742  11.176 -1.2359  1.2080 -1.3969
20607SOL    HW266379   8.859   5.626  11.154 -1.6306  1.4338 -0.9122
20608SOL     OW66380   2.150   2.517   7.925 -0.7205 -0.1325  0.3075
20608SOL    HW166381   2.121   2.426   7.930 -1.7647  0.2193  0.9868
20608SOL    HW266382   2.115   2.549   7.842 -1.5812  0.0422  0.7261
20609SOL     OW66383   9.179   0.665   5.882  0.8483  0.4976 -0.1008
20609SOL    HW166384   9.224   0.591   5.921  0.9227  0.6180  0.0432
20609SOL    HW266385   9.159   0.722   5.956 -1.0491 -0.3374  0.0918
20610SOL     OW66386   8.935   2.932   7.412  0.4616  0.4127 -0.1484
20610SOL    HW166387   8.903   2.925   7.502  0.9053  1.6648  0.1223
20610SOL    HW266388   8.860   2.964   7.362 -0.1617 -1.4711 -0.4926
20611SOL     OW66389   6.420   6.881   9.684  0.5411  0.4368  0.2542
20611SOL    HW166390   6.447   6.804   9.734  0.5140  0.7044  0.6900
20611SOL    HW266391   6.360   6.927   9.743  0.0335  0.4396 -0.2626
20612SOL     OW66392   0.061  11.552   1.872  0.7109 -0.2287 -0.3011
20612SOL    HW166393   0.079  11.458   1.879  1.3149 -0.0456  0.6824
20612SOL    HW266394   0.039  11.565   1.780 -2.6782 -1.9090  0.1037
20613SOL     OW66395   6.498   4.077   5.575  0.0874 -0.4029 -0.2931
20613SOL    HW166396   6.466   4.166   5.557  2.0966  0.0872 -1.8698
20613SOL    HW266397   6.586   4.091   5.610  0.3741 -1.7636 -0.4414
20614SOL     OW66398   1.926   7.742   3.907 -0.1850  0.1700 -0.2726
20614SOL    HW166399   1.911   7.716   3.816 -0.2511 -0.1723 -0.1649
20614SOL    HW266400   1.863   7.813   3.922  0.1033  0.5069 -0.6148
20615SOL     OW66401   2.363   7.946   5.392 -0.2731 -0.3762  0.2541
20615SOL    HW166402   2.351   8.021   5.450  0.0630 -0.0439 -0.0978
20615SOL    HW266403   2.401   7.984   5.312  0.8589 -1.0647  0.4571
20616SOL     OW66404   6.925   0.447  10.092  0.3357 -0.1565 -0.0111
20616SOL    HW166405   6.947   0.507  10.021  0.7597  1.4931  1.4383
20616SOL    HW266406   6.839   0.413  10.068  0.3532  0.5548 -1.1918
20617SOL     OW66407   2.586   5.407   2.280  0.3671 -0.1639 -0.1223
20617SOL    HW166408   2.500   5.379   2.248  0.8729 -1.0710 -0.7407
20617SOL    HW266409   2.573   5.424   2.373 -0.2215 -1.4805  0.0637
20618SOL     OW66410  10.683   6.129   1.585  0.0980 -0.1227  0.6724
20618SOL    HW166411  10.626   6.184   1.531 -0.8378 -0.1400  1.6095
20618SOL    HW266412  10.645   6.042   1.579  0.9890 -0.4775  0.0025
20619SOL     OW66413   1.423   5.605   5.956  0.3027  0.0516 -0.1147
20619SOL    HW166414   1.334   5.572   5.962  1.1787 -2.2216  1.4617
20619SOL    HW266415   1.418   5.674   5.889 -2.1557 -1.5319 -1.7147
20620SOL     OW66416   6.079   4.208   0.250 -0.3330  0.0399  0.4990
20620SOL    HW166417   6.110   4.131   0.202 -2.5826 -0.6286 -0.0045
20620SOL    HW266418   6.006   4.241   0.198 -1.1968  0.8533  2.1407
20621SOL     OW66419   1.015   8.806   8.447  0.1767  0.1888  0.5068
20621SOL    HW166420   1.071   8.819   8.524 -2.0607 -0.7860  2.4619
20621SOL    HW266421   0.926   8.806   8.483 -1.2666  2.7738 -2.5319
20622SOL     OW66422   0.712   0.836   3.344  0.4311 -0.4509 -0.0036
20622SOL    HW166423   0.642   0.807   3.404  0.6886 -1.8984 -0.3556
20622SOL    HW266424   0.779   0.768   3.352  1.8381  0.9198  0.3382
20623SOL     OW66425   4.379  10.196   8.639 -0.2561 -0.4734  0.4422
20623SOL    HW166426   4.326  10.178   8.717 -0.1240 -2.2037  0.1806
20623SOL    HW266427   4.469  10.198   8.672 -0.3640  1.6718  0.7567
20624SOL     OW66428   5.956   0.182   4.075  0.0886 -0.3833 -0.2805
20624SOL    HW166429   6.042   0.205   4.109  0.0256 -3.3032  2.2396
20624SOL    HW266430   5.946   0.089   4.095 -3.1786 -0.4411 -1.5929
20625SOL     OW66431   3.671   9.131   4.582  0.6283 -0.5965 -0.6958
20625SOL    HW166432   3.705   9.048   4.615 -0.0661 -0.2158  1.0422
20625SOL    HW266433   3.590   9.107   4.537  0.1134 -0.7944  0.3246
20626SOL     OW66434   5.648   7.905   4.617  0.0968  0.6092 -0.0337
20626SOL    HW166435   5.713   7.961   4.661 -0.7716  0.5533  1.3862
20626SOL    HW266436   5.691   7.821   4.608 -0.0110  0.3208  1.6809
20627SOL     OW66437   4.935   9.315   6.463  0.7096  0.1313  0.1877
20627SOL    HW166438   4.966   9.360   6.385 -1.6103 -0.9796 -1.4887
20627SOL    HW266439   4.861   9.367   6.494 -0.2011 -0.9564 -0.0972
20628SOL     OW66440   6.874  11.421   1.387 -0.2808  0.2626 -0.2041
20628SOL    HW166441   6.959  11.388   1.419 -0.1735  1.0549  0.3651
20628SOL    HW266442   6.847  11.485   1.454 -0.1967  1.7552 -1.5381
20629SOL     OW66443   0.234   2.642   9.621 -0.2809 -0.1112  0.2738
20629SOL    HW166444   0.228   2.553   9.585 -0.1849 -0.1585  0.3758
20629SOL    HW266445   0.310   2.640   9.679  0.7928  0.5056 -1.0559
20630SOL     OW66446   8.525   2.240  10.875  0.4618 -0.2647 -0.2276
20630SOL    HW166447   8.596   2.187  10.913 -0.0351 -0.6381  0.1989
20630SOL    HW266448   8.452   2.227  10.935  0.6821  1.8945  0.6024
20631SOL     OW66449   2.490   2.839   3.894  0.3363 -0.3431 -0.3074
20631SOL    HW166450   2.522   2.782   3.824 -1.9745 -1.8577 -0.2463
20631SOL    HW266451   2.447   2.779   3.956  2.6948  0.8581  2.7651
20632SOL     OW66452   9.231   0.039   3.776 -0.2385 -0.2104 -0.0238
20632SOL    HW166453   9.166  -0.004   3.831  0.7085 -1.3436  0.2476
20632SOL    HW266454   9.229  -0.010   3.694  1.1113 -1.0398  0.4197
20633SOL     OW66455   2.847   2.276   2.471  0.3308  0.1017  0.2951
20633SOL    HW166456   2.915   2.217   2.504  1.1918  1.9788  2.1813
20633SOL    HW266457   2.797   2.300   2.549  0.1940  2.0331 -0.3319
20634SOL     OW66458   3.663   0.976   6.154  0.7927 -0.0195  0.1795
20634SOL    HW166459   3.730   0.926   6.201  1.2967 -0.3580 -0.8685
20634SOL    HW266460   3.712   1.039   6.102  0.2316  0.4821  0.2486
20635SOL     OW66461   2.186   1.339   8.748 -0.3144 -0.5828  0.1023
20635SOL    HW166462   2.106   1.307   8.708 -0.9933 -0.5498  1.3641
20635SOL    HW266463   2.239   1.372   8.676 -1.3689 -0.7504 -0.7578
20636SOL     OW66464   1.090   9.980   0.411  0.0609  0.5128  0.0481
20636SOL    HW166465   1.045   9.917   0.467  1.2995 -0.1504  0.3248
20636SOL    HW266466   1.081  10.064   0.456  1.4981 -0.0963  1.5666
20637SOL     OW66467   8.960   6.349   5.843 -0.1197 -0.1568 -0.7346
20637SOL    HW166468   9.047   6.388   5.853 -0.8777  1.0355  3.7234
20637SOL    HW266469   8.976   6.256   5.829  1.7867  0.3125 -2.0622
20638SOL     OW66470   7.674   5.030  10.393 -0.2219 -0.2005 -0.5012
20638SOL    HW166471   7.650   5.089  10.322 -2.3812 -1.7330 -1.1629
20638SOL    HW266472   7.625   5.062  10.468  1.1014  0.6841  0.0212
20639SOL     OW66473   7.534   8.993   8.558 -0.0701  0.4313  0.0988
20639SOL    HW166474   7.556   9.030   8.473 -0.3351  0.7127  0.1533
20639SOL    HW266475   7.486   9.062   8.603 -1.0162 -0.1535  0.0078
20640SOL     OW66476   4.978   4.030   7.024  0.0116  0.2499 -0.2752
20640SOL    HW166477   4.886   4.056   7.021  0.1207  0.6149 -0.4392
20640SOL    HW266478   4.980   3.944   6.981 -0.5727 -0.7039  1.4946
20641SOL     OW66479   1.689  10.034  11.397 -0.4742  0.0080  0.5076
20641SOL    HW166480   1.664  10.083  11.319 -1.1990  1.0639  1.3643
20641SOL    HW266481   1.641  10.077  11.468 -2.3488 -2.8503  1.1308
20642SOL     OW66482   2.508   0.178   9.675  0.1957 -0.1077 -0.0345
20642SOL    HW166483   2.575   0.183   9.742  0.5343 -1.0262 -0.2981
20642SOL    HW266484   2.556   0.166   9.593 -0.2441  0.3042 -0.3614
20643SOL     OW66485   7.074   8.730   1.446 -0.2366  0.2857 -0.3501
20643SOL    HW166486   7.021   8.707   1.369  1.0863 -0.4032 -1.1064
20643SOL    HW266487   7.044   8.817   1.471 -1.1546  0.2485 -1.2592
20644SOL     OW66488   0.739   6.136   8.775  0.2075 -0.0334  0.8257
20644SOL    HW166489   0.678   6.063   8.787  0.1401  0.0767  1.1670
20644SOL    HW266490   0.704   6.184   8.700  0.6659 -0.7648  0.1259
20645SOL     OW66491   3.744   4.425   7.237 -0.3958 -0.0399 -0.4376
20645SOL    HW166492   3.756   4.465   7.151 -4.0882  0.0639 -1.0843
20645SOL    HW266493   3.710   4.337   7.218  0.3409 -0.6628  0.9592
20646SOL     OW66494  10.193  11.024   8.347 -0.2241  0.0250  0.2874
20646SOL    HW166495  10.259  10.957   8.365 -1.3282 -1.1493  0.1822
20646SOL    HW266496  10.112  10.987   8.383 -0.8170  1.4442  0.4661
20647SOL     OW66497   8.479   3.027   0.143  0.8491  0.5616 -0.0902
20647SOL    HW166498   8.486   2.949   0.199  2.2338  1.3084  0.8393
20647SOL    HW266499   8.536   3.008   0.069 -0.0060  0.0810 -0.6304
20648SOL     OW66500   4.632   5.184  10.075 -0.2083  0.3128  0.0376
20648SOL    HW166501   4.714   5.211  10.115 -1.2254  1.5108  1.4515
20648SOL    HW266502   4.649   5.098  10.038  0.6446 -1.2757  3.7624
20649SOL     OW66503   3.536   3.965   1.752 -0.6151  0.2198 -0.0772
20649SOL    HW166504   3.520   3.967   1.847 -0.1392  1.4120 -0.0033
20649SOL    HW266505   3.448   3.964   1.713 -0.8183  0.5759  0.3647
20650SOL     OW66506   7.840   5.621   0.314  0.4600  0.3607 -0.3669
20650SOL    HW166507   7.860   5.558   0.244  0.4447  0.1228 -0.1581
20650SOL    HW266508   7.773   5.678   0.276  0.8741  0.6009 -0.7542
20651SOL     OW66509   1.144   4.051   4.674 -0.4512 -0.6238  0.4219
20651SOL    HW166510   1.146   3.964   4.634 -2.2518 -0.5341  0.0382
20651SOL    HW266511   1.051   4.074   4.674  0.1138  2.0226 -1.0680
20652SOL     OW66512   9.482   5.252   6.421 -0.4784 -0.2236  0.1298
20652SOL    HW166513   9.495   5.312   6.347  0.6981 -0.8749 -0.2208
20652SOL    HW266514   9.401   5.205   6.400 -1.6701  1.4934  0.6191
20653SOL     OW66515   9.816  10.906   2.410  0.2687 -0.0747  0.2328
20653SOL    HW166516   9.905  10.936   2.428  0.0747 -0.8865  2.9297
20653SOL    HW266517   9.803  10.832   2.469 -1.3709 -1.5957 -1.8684
20654SOL     OW66518   0.215   2.290   0.712 -0.4248 -0.2640  0.4132
20654SOL    HW166519   0.207   2.195   0.715 -0.3646 -0.3012 -0.4043
20654SOL    HW266520   0.125   2.322   0.719 -0.4163 -0.3616  1.0411
20655SOL     OW66521  11.292   5.151  11.964  0.0741  0.0297 -0.0936
20655SOL    HW166522  11.334   5.100  11.895  1.2516  0.7071  0.0829
20655SOL    HW266523  11.203   5.116  11.970  0.5399 -1.2921 -0.6563
20656SOL     OW66524   2.828   2.651   8.474 -0.2951  0.1004 -0.4386
20656SOL    HW166525   2.740   2.615   8.480 -0.3374 -0.3581 -2.8850
20656SOL    HW266526   2.829   2.699   8.391  0.9325  2.5065  0.8580
20657SOL     OW66527  11.989   2.946   7.003  0.1466 -0.1379 -0.1940
20657SOL    HW166528  11.916   2.923   7.062  0.5234  0.8178  0.6698
20657SOL    HW266529  11.995   3.041   7.008  2.0707 -0.2613  0.5169
20658SOL     OW66530   6.645   9.805   1.821 -0.0052 -0.0963 -0.2143
20658SOL    HW166531   6.572   9.744   1.831  1.5974 -1.8760  1.2948
20658SOL    HW266532   6.657   9.843   1.908  2.8043 -2.2478  0.4740
20659SOL     OW66533   0.949   2.809  11.454 -0.3002  0.1167 -0.7068
20659SOL    HW166534   0.905   2.887  11.420 -0.6904 -0.3701 -1.3553
20659SOL    HW266535   0.885   2.739  11.442  0.6439 -0.6127 -1.6962
20660SOL     OW66536   7.404   6.974  11.794  0.0646 -0.0987  0.0562
20660SOL    HW166537   7.462   6.994  11.868 -1.8131  1.6335  1.1381
20660SOL    HW266538   7.452   7.006  11.717  1.1316  0.0465  0.7591
20661SOL     OW66539   8.561   4.985  11.990 -0.3073  0.0599  0.2841
20661SOL    HW166540   8.619   4.967  12.064  0.7237  0.0248 -0.5009
20661SOL    HW266541   8.598   4.932  11.918 -2.5871 -1.6929  0.2889
20662SOL     OW66542   6.645  11.253   7.933 -0.0714 -0.1695  0.4652
20662SOL    HW166543   6.622  11.332   7.982  0.4406 -1.3061  2.6885
20662SOL    HW266544   6.562  11.222   7.898 -0.7072  0.0299  1.7147
20663SOL     OW66545   4.109   8.008   8.819 -0.0178 -0.5159 -0.0732
20663SOL    HW166546   4.163   8.071   8.771 -0.2881 -1.0610 -1.1243
20663SOL    HW266547   4.111   8.038   8.909  0.5488  0.5125 -0.4170
20664SOL     OW66548   8.962   7.750   4.031 -0.5193  0.2900  0.2635
20664SOL    HW166549   8.895   7.682   4.032 -0.4134  0.1229 -1.3223
20664SOL    HW266550   9.045   7.703   4.020 -0.4424  0.6480 -0.8300
20665SOL     OW66551   3.976   4.233   7.847 -0.4944  0.5224 -0.4010
20665SOL    HW166552   3.932   4.165   7.797 -0.9207 -0.0204  0.6965
20665SOL    HW266553   3.935   4.231   7.933  0.9222  0.7510  0.3095
20666SOL     OW66554   0.463   8.410   1.184  0.0547 -0.0979 -0.1702
20666SOL    HW166555   0.370   8.390   1.175 -0.1783  0.3775  0.9651
20666SOL    HW266556   0.477   8.486   1.128 -0.6401  0.8730  0.9178
20667SOL     OW66557   1.071   3.161   0.923  0.1826 -0.1222  0.5904
20667SOL    HW166558   1.005   3.231   0.928 -1.4637 -1.2005 -2.7720
20667SOL    HW266559   1.138   3.196   0.864 -0.7999 -1.3442 -1.3555
20668SOL     OW66560   3.234   1.567   1.331 -0.7933  0.7208 -0.4751
20668SOL    HW166561   3.222   1.599   1.242  0.2921 -0.0621 -0.9335
20668SOL    HW266562   3.180   1.488   1.336  0.2499 -0.0436 -0.9301
20669SOL     OW66563   0.509   3.665   7.513 -0.3129 -0.5180 -0.0745
20669SOL    HW166564   0.511   3.717   7.593  0.4841  0.0593 -0.4613
20669SOL    HW266565   0.441   3.706   7.459 -0.3781 -0.4972  0.0224
20670SOL     OW66566  12.042   0.152   3.763  0.1422 -0.0934  0.2649
20670SOL    HW166567  12.101   0.091   3.806  1.0988 -0.0778 -0.9763
20670SOL    HW266568  12.048   0.131   3.670  0.7297  2.0610 -0.2476
20671SOL     OW66569   3.026  10.561   6.220 -0.3738  0.2387 -0.4337
20671SOL    HW166570   2.962  10.507   6.266 -0.5629  1.5007  0.8502
20671SOL    HW266571   3.075  10.499   6.166 -0.7672 -1.1564  0.7465
20672SOL     OW66572   5.901   8.935   7.731 -0.1726  0.0207 -0.1798
20672SOL    HW166573   5.940   8.848   7.740 -0.5383 -0.4408 -2.5235
20672SOL    HW266574   5.815   8.927   7.772  0.1082 -0.4702  0.3290
20673SOL     OW66575   8.410   2.285   3.450  1.0870 -0.2814 -0.2903
20673SOL    HW166576   8.321   2.266   3.478  1.2431  1.2789  1.4674
20673SOL    HW266577   8.443   2.202   3.417 -1.6696 -0.4549 -3.0268
20674SOL     OW66578   5.324   4.810   1.094 -0.2744  0.2334  0.0923
20674SOL    HW166579   5.316   4.905   1.089 -2.0941  0.2036  1.1728
20674SOL    HW266580   5.233   4.778   1.091  0.1276 -1.2950  1.8183
20675SOL     OW66581   7.009   0.423   3.264  0.4527 -0.5324  0.6759
20675SOL    HW166582   7.089   0.435   3.314  1.3099 -0.4298 -0.6831
20675SOL    HW266583   6.977   0.512   3.249  1.4497 -0.4103 -0.9019
20676SOL     OW66584  10.613   9.729  11.677  0.4920 -1.3823 -0.1151
20676SOL    HW166585  10.593   9.699  11.588 -0.7268  0.1140 -0.3935
20676SOL    HW266586  10.697   9.774  11.669  0.4364 -1.3379 -0.4990
20677SOL     OW66587   1.733  11.211   9.395  0.2393  0.1475  0.3998
20677SOL    HW166588   1.699  11.129   9.429  0.7561 -2.2221 -4.0338
20677SOL    HW266589   1.828  11.204   9.406  0.2737  0.1903  0.1430
20678SOL     OW66590  10.322   6.359  11.830 -0.7340  0.3581  0.6934
20678SOL    HW166591  10.238   6.402  11.813 -0.4254  0.6792 -0.0898
20678SOL    HW266592  10.359   6.405  11.905  0.1732  2.3623 -0.8887
20679SOL     OW66593   4.936   5.840  10.013  0.1887  1.0419 -0.1104
20679SOL    HW166594   5.002   5.879   9.956  1.5685 -1.5847 -0.4628
20679SOL    HW266595   4.906   5.762   9.966 -0.5682  0.2385  1.6086
20680SOL     OW66596   2.915   8.006   5.869 -0.4270  0.0688  0.6913
20680SOL    HW166597   2.853   8.034   5.802  0.0030 -0.3197  0.1133
20680SOL    HW266598   2.932   7.914   5.849 -0.0769  0.0251  1.1649
20681SOL     OW66599   3.460   4.954   4.655 -0.6146 -0.2551 -0.2205
20681SOL    HW166600   3.477   4.902   4.733 -0.9239 -0.9082 -0.5815
20681SOL    HW266601   3.418   4.893   4.594 -0.1999  0.1879 -0.9693
20682SOL     OW66602   6.402   9.854   2.565 -0.1907 -0.2887 -0.0180
20682SOL    HW166603   6.357   9.838   2.482  1.0825  0.7718 -0.9567
20682SOL    HW266604   6.422   9.767   2.598  0.0408 -0.7308 -1.2587
20683SOL     OW66605   2.320   8.587  11.958  0.4392  0.2982 -0.3851
20683SOL    HW166606   2.284   8.506  11.921  1.5029 -0.7386  0.7561
20683SOL    HW266607   2.243   8.638  11.982 -0.2878 -0.9124 -0.0261
20684SOL     OW66608   8.506   6.733   7.007 -0.4792 -0.5884  0.5336
20684SOL    HW166609   8.581   6.788   6.986  0.2028 -0.4914  2.9279
20684SOL    HW266610   8.517   6.656   6.951  0.1134  0.4175 -0.8022
20685SOL     OW66611   0.660   9.268  11.565 -0.2246 -0.3490 -0.5918
20685SOL    HW166612   0.564   9.261  11.561 -0.1624 -0.6037 -2.1176
20685SOL    HW266613   0.689   9.180  11.591 -0.3558 -0.5677 -1.1766
20686SOL     OW66614   8.766  10.794   6.498 -0.2663 -0.0403 -0.6305
20686SOL    HW166615   8.833  10.825   6.436  0.0115  0.9006  0.1216
20686SOL    HW266616   8.773  10.853   6.573 -1.2577 -0.5667 -0.1032
20687SOL     OW66617   5.094  10.693   5.805 -0.4755  0.1382  0.0716
20687SOL    HW166618   5.182  10.664   5.779 -1.1654 -0.5823 -1.5563
20687SOL    HW266619   5.100  10.702   5.900  2.1325  2.8313 -0.1897
20688SOL     OW66620  11.257   9.313   9.975  0.3544  0.6274  0.4002
20688SOL    HW166621  11.196   9.241   9.965 -1.0018  1.6384  1.0897
20688SOL    HW266622  11.202   9.391   9.983  1.7245  1.5958  0.9140
20689SOL     OW66623  10.565   9.578   0.570 -0.3417 -0.2975  0.0690
20689SOL    HW166624  10.562   9.669   0.602 -2.5137  0.1298 -1.1278
20689SOL    HW266625  10.475   9.547   0.579 -1.0161 -0.4034 -4.6072
20690SOL     OW66626   1.157   2.903   9.308  0.0503  0.3942  0.2801
20690SOL    HW166627   1.175   2.809   9.307  0.5437  0.4597  1.3315
20690SOL    HW266628   1.220   2.941   9.247  0.2741  0.1049  0.3319
20691SOL     OW66629   3.819  10.816   5.605 -0.1952 -0.4433  0.3661
20691SOL    HW166630   3.828  10.893   5.547  0.1381 -0.9128 -0.2256
20691SOL    HW266631   3.806  10.853   5.692 -0.4122  0.2866  0.0344
20692SOL     OW66632   1.131   9.093   7.443  0.0175 -0.0142 -0.2697
20692SOL    HW166633   1.095   9.086   7.531 -1.0743  1.1430 -0.6015
20692SOL    HW266634   1.226   9.094   7.456 -0.0797 -1.3127  0.7599
20693SOL     OW66635   0.718   5.720   7.323  0.2718 -0.0100 -0.1375
20693SOL    HW166636   0.671   5.644   7.356  1.4676 -0.0096  1.6925
20693SOL    HW266637   0.804   5.715   7.364 -0.0154  2.9792  1.0736
20694SOL     OW66638   1.271   5.515   8.169 -0.4628  0.5484  1.0658
20694SOL    HW166639   1.340   5.578   8.149 -0.5156  0.3865  0.3578
20694SOL    HW266640   1.271   5.454   8.095 -1.7539  0.8826  0.7577
20695SOL     OW66641  11.939   4.196   7.152  0.5867 -0.1092  0.2190
20695SOL    HW166642  11.953   4.288   7.174  2.3014 -0.6154  1.4733
20695SOL    HW266643  11.977   4.187   7.064  1.2944  0.1886  0.4832
20696SOL     OW66644   9.338  11.062  11.813  0.0238 -0.3816  0.4832
20696SOL    HW166645   9.341  10.969  11.789 -1.3752 -0.4753  0.6290
20696SOL    HW266646   9.378  11.065  11.900 -2.1937 -1.2622  1.6143
20697SOL     OW66647   1.015   3.210   9.100 -0.0358 -0.1237  0.0819
20697SOL    HW166648   1.008   3.305   9.086 -0.9138  0.6381  4.4051
20697SOL    HW266649   1.092   3.184   9.048 -0.6995  2.5487 -2.5204
20698SOL     OW66650   1.079  11.405   0.288  0.2758  0.8138 -0.4290
20698SOL    HW166651   1.004  11.374   0.339 -1.3006  0.8822 -2.5780
20698SOL    HW266652   1.137  11.329   0.284 -0.2910  0.3304  0.1479
20699SOL     OW66653   2.676   2.150   3.817  0.6630  0.0406 -0.4223
20699SOL    HW166654   2.667   2.245   3.809  2.4138  0.1039 -2.7171
20699SOL    HW266655   2.734   2.126   3.746 -0.8955 -2.9737 -0.8296
20700SOL     OW66656   5.643   8.263   8.290  0.3751  0.4315 -0.0321
20700SOL    HW166657   5.679   8.225   8.370  1.0756  0.8244 -0.1578
20700SOL    HW266658   5.710   8.248   8.223  0.3814  1.2959 -0.2320
20701SOL     OW66659  11.041   6.255   4.869  0.0077  0.3889 -0.3484
20701SOL    HW166660  11.127   6.273   4.832 -0.6653  1.9109 -1.2802
20701SOL    HW266661  10.993   6.210   4.800  0.6710 -2.4739  0.9058
20702SOL     OW66662   6.540   8.669   3.746 -0.4971  0.0361  0.2880
20702SOL    HW166663   6.507   8.592   3.700  1.5689 -0.4204 -0.5431
20702SOL    HW266664   6.531   8.647   3.839 -0.7115 -0.8563  0.0661
20703SOL     OW66665  10.797   2.370  11.489 -0.0211 -0.0913  0.1263
20703SOL    HW166666  10.780   2.462  11.472 -0.3678  0.2278  1.9368
20703SOL    HW266667  10.751   2.323  11.420 -0.2720  1.0798 -0.5140
20704SOL     OW66668  10.290   8.275   0.443 -0.1148 -0.4780  0.1465
20704SOL    HW166669  10.363   8.243   0.496 -0.0181 -0.4463  0.0320
20704SOL    HW266670  10.273   8.205   0.380  0.5398 -0.0225 -0.5422
20705SOL     OW66671   8.205   9.031   4.452 -0.0667 -0.1720  0.2669
20705SOL    HW166672   8.242   8.955   4.497  1.5590  0.6557  0.4139
20705SOL    HW266673   8.177   9.090   4.522  0.3030  0.1123  0.1792
20706SOL     OW66674  10.471   0.435   1.535 -0.3640  0.0327  1.3661
20706SOL    HW166675  10.438   0.377   1.603  1.8195 -0.5622  1.9937
20706SOL    HW266676  10.510   0.377   1.470 -2.3925  0.5883 -0.4611
20707SOL     OW66677  11.936  11.432   2.008 -0.0740 -0.9826 -0.0145
20707SOL    HW166678  11.930  11.439   2.103 -0.3381  0.3398 -0.1212
20707SOL    HW266679  12.010  11.488   1.984 -0.3785 -0.8415 -0.6407
20708SOL     OW66680   8.185   8.088   5.953  0.0705  0.3391 -1.0297
20708SOL    HW166681   8.102   8.122   5.987 -0.5172 -1.9065 -0.0586
20708SOL    HW266682   8.160   8.043   5.872  0.9878  2.8812 -2.8612
20709SOL     OW66683   8.380   6.156  10.793  0.0927 -0.5612  0.1918
20709SOL    HW166684   8.419   6.188  10.874  1.0293  1.4631 -0.9528
20709SOL    HW266685   8.446   6.099  10.755  0.8250  0.6271 -0.3879
20710SOL     OW66686   8.152   3.019   4.415  0.0913  0.0761  0.2301
20710SOL    HW166687   8.213   3.047   4.346  1.3529  0.6827  1.5381
20710SOL    HW266688   8.167   2.924   4.422  1.4923  0.3154  1.0272
20711SOL     OW66689   9.854   0.105   2.483  0.1257  0.0084  0.1320
20711SOL    HW166690   9.804   0.122   2.564 -0.7753 -0.0891 -0.3890
20711SOL    HW266691   9.798   0.139   2.413  0.7619 -0.1911 -0.4787
20712SOL     OW66692   8.929   9.715   9.727 -0.4245 -0.6586  0.2942
20712SOL    HW166693   8.873   9.698   9.651 -1.7854  0.0992  1.0931
20712SOL    HW266694   8.970   9.800   9.708 -1.0244 -0.3065  0.5353
20713SOL     OW66695   0.733   4.054   9.130  0.7052 -0.1969  0.2645
20713SOL    HW166696   0.691   4.007   9.202  0.3204  1.4453  1.1604
20713SOL    HW266697   0.801   4.106   9.172 -0.0373  1.3949 -0.3957
20714SOL     OW66698   4.461   3.367  10.747 -0.5823 -0.3359  0.4893
20714SOL    HW166699   4.437   3.283  10.708 -0.2598 -1.0594  1.7663
20714SOL    HW266700   4.378   3.402  10.780 -0.8719  0.3336 -0.9151
20715SOL     OW66701  11.725  10.640   1.241 -0.2011 -0.2731 -0.0595
20715SOL    HW166702  11.673  10.720   1.244 -0.3969 -0.4009 -0.1005
20715SOL    HW266703  11.753  10.633   1.150 -0.5679 -0.4999 -0.1567
20716SOL     OW66704   0.749   8.437   7.015  0.3539 -0.1707 -0.4667
20716SOL    HW166705   0.690   8.512   7.027  0.5241 -0.0134 -0.6119
20716SOL    HW266706   0.807   8.441   7.091 -1.2840 -1.6905  0.9572
20717SOL     OW66707   9.162   7.003   0.310 -0.3568  0.5490 -0.0507
20717SOL    HW166708   9.085   7.054   0.336 -1.8980 -0.8173 -1.6659
20717SOL    HW266709   9.130   6.943   0.242  2.0901 -0.2733 -0.6014
20718SOL     OW66710   6.337   3.145   3.251  0.2426  0.8044 -0.4214
20718SOL    HW166711   6.369   3.155   3.161  1.0774 -0.6150 -0.3186
20718SOL    HW266712   6.417   3.141   3.305 -0.2489  1.6434  0.3970
20719SOL     OW66713  11.364   1.775   1.890 -0.3687  0.3603  0.0603
20719SOL    HW166714  11.282   1.814   1.859 -0.0936  0.4359 -0.5812
20719SOL    HW266715  11.337   1.693   1.932 -0.8402  0.7123  0.4555
20720SOL     OW66716   3.381   8.344   7.709  0.2338 -0.0874  0.2010
20720SOL    HW166717   3.291   8.315   7.724 -0.2135  1.1548 -0.0216
20720SOL    HW266718   3.398   8.323   7.617 -1.4884  3.8005 -1.2041
20721SOL     OW66719  10.452   7.169   5.712 -0.2050  0.1622  0.1378
20721SOL    HW166720  10.520   7.229   5.682 -0.5309  1.2946  1.5766
20721SOL    HW266721  10.405   7.145   5.632  0.1235  1.5887 -0.5137
20722SOL     OW66722   9.125   7.665   6.140  0.0851  0.0058 -0.8234
20722SOL    HW166723   9.220   7.664   6.125  0.2407  2.0905 -0.3136
20722SOL    HW266724   9.090   7.604   6.075  1.9303 -2.7626  0.5944
20723SOL     OW66725   6.052   1.710   3.407 -0.0337 -0.2614 -0.0728
20723SOL    HW166726   6.008   1.642   3.458 -0.7781  1.7971  2.3019
20723SOL    HW266727   6.004   1.714   3.325  0.1388 -2.6395 -0.3401
20724SOL     OW66728   9.656   0.101   1.350 -0.2366  0.4869 -0.2632
20724SOL    HW166729   9.595   0.036   1.316  1.1155 -0.5128 -0.8948
20724SOL    HW266730   9.672   0.074   1.441  0.9077 -0.5958 -0.7407
20725SOL     OW66731   8.767   7.011   9.592  0.9715  0.1149  0.6232
20725SOL    HW166732   8.791   7.084   9.649  0.6625  0.9400 -0.2780
20725SOL    HW266733   8.795   7.038   9.505 -1.0677  0.1217 -0.0844
20726SOL     OW66734   4.697   9.667   5.831  0.4132 -0.4581  0.9217
20726SOL    HW166735   4.609   9.688   5.862 -0.1291 -0.8916 -0.2605
20726SOL    HW266736   4.706   9.573   5.844  0.1653 -0.6528 -0.2074
20727SOL     OW66737   9.079   1.981   0.341 -0.4038 -0.5830 -0.2542
20727SOL    HW166738   9.128   2.044   0.394  0.4055 -1.8665  0.5766
20727SOL    HW266739   9.147   1.935   0.292 -1.0488 -0.3204 -1.4203
20728SOL     OW66740   4.951   5.329   2.571  0.0077 -0.2376  0.0938
20728SOL    HW166741   4.940   5.297   2.661 -1.8420 -0.0746 -0.0229
20728SOL    HW266742   4.940   5.251   2.517  0.7748 -0.2740 -0.0231
20729SOL     OW66743   4.337   1.492  10.653  0.7117 -0.4036 -0.5963
20729SOL    HW166744   4.291   1.451  10.727  1.5621 -1.1300 -0.4613
20729SOL    HW266745   4.363   1.578  10.686 -0.7057  0.1147 -0.7419
20730SOL     OW66746   3.414   7.828  10.478  0.4549 -0.4834 -0.5927
20730SOL    HW166747   3.336   7.879  10.454  1.5043  1.2226 -0.5963
20730SOL    HW266748   3.478   7.849  10.411  2.2966  1.6480  1.6006
20731SOL     OW66749  11.315   2.132   5.350  0.7421  0.1891 -0.3894
20731SOL    HW166750  11.297   2.044   5.385  2.0840 -0.6228 -1.6029
20731SOL    HW266751  11.273   2.132   5.264 -1.3794  1.6780  0.5745
20732SOL     OW66752   8.080   7.370   1.553  0.3762 -0.4576 -0.0022
20732SOL    HW166753   8.091   7.450   1.604  0.5166 -1.3089  1.3297
20732SOL    HW266754   7.987   7.368   1.531 -0.1668 -1.2040  2.1653
20733SOL     OW66755   1.276   5.235   4.814  0.1003  0.4127  0.0570
20733SOL    HW166756   1.235   5.230   4.727  0.4736  0.9495 -0.1530
20733SOL    HW266757   1.365   5.202   4.800  0.2204  0.6779  0.1953
20734SOL     OW66758   8.803   7.295   3.072 -0.0660 -0.4670  0.2703
20734SOL    HW166759   8.824   7.302   3.165  0.1191 -3.4484  0.5626
20734SOL    HW266760   8.746   7.218   3.066 -0.2854 -0.2090 -2.0657
20735SOL     OW66761   7.977   9.238  10.760 -0.2703  0.0826  0.1716
20735SOL    HW166762   7.960   9.235  10.854  0.5224  0.4326  0.3299
20735SOL    HW266763   8.059   9.286  10.752 -0.8941  1.0378 -0.7658
20736SOL     OW66764   7.336   5.604  10.762  0.3926  0.7663 -0.3217
20736SOL    HW166765   7.262   5.648  10.804 -0.8647 -0.7792 -0.8257
20736SOL    HW266766   7.412   5.637  10.809 -0.7349  1.1267  1.3745
20737SOL     OW66767   3.377   7.773   9.043 -0.4676  0.2475  0.1844
20737SOL    HW166768   3.343   7.738   8.960 -1.1775  1.0785  0.1001
20737SOL    HW266769   3.471   7.757   9.039 -0.3426  1.1280 -1.2252
20738SOL     OW66770   2.499   0.793   5.322  0.4109 -0.6205  0.2633
20738SOL    HW166771   2.479   0.881   5.355 -1.2930 -1.3540  1.2799
20738SOL    HW266772   2.495   0.803   5.227 -0.8508  0.2069  0.3670
20739SOL     OW66773   1.664  10.407   7.530 -0.2250 -0.2184 -0.2707
20739SOL    HW166774   1.745  10.368   7.498  0.1842 -0.2908  0.8302
20739SOL    HW266775   1.688  10.496   7.554 -0.1744 -0.6266  1.2401
20740SOL     OW66776   7.835  10.746   6.237  0.1384  0.1776 -0.5233
20740SOL    HW166777   7.893  10.790   6.299 -0.4848 -0.5958  0.6302
20740SOL    HW266778   7.748  10.780   6.257 -0.0821 -0.1222 -0.9523
20741SOL     OW66779   6.076   0.600   9.665 -0.7341  0.1447  0.0240
20741SOL    HW166780   6.057   0.684   9.623 -0.7351  0.2735  0.2789
20741SOL    HW266781   5.990   0.560   9.678 -0.6543 -0.4962 -1.3126
20742SOL     OW66782   3.187   7.765  10.791 -0.1295 -0.4655 -0.4412
20742SOL    HW166783   3.175   7.855  10.761  0.2472  0.0514  0.8895
20742SOL    HW266784   3.101   7.739  10.822 -0.1968 -0.4967 -0.6544
20743SOL     OW66785   9.265  10.250  10.121 -0.1047  0.2264 -0.0885
20743SOL    HW166786   9.238  10.342  10.117  0.2364  0.3942  1.1705
20743SOL    HW266787   9.186  10.203  10.145 -0.2809  0.1796 -0.7390
20744SOL     OW66788   1.381   1.879  11.576 -0.4873  0.5254  0.0971
20744SOL    HW166789   1.462   1.904  11.621 -0.5313  0.1624  0.3884
20744SOL    HW266790   1.410   1.842  11.493 -0.3919  1.0194 -0.0894
20745SOL     OW66791   4.202   7.651   9.712  0.0804 -0.3663  0.2071
20745SOL    HW166792   4.241   7.712   9.650  0.4585 -1.0052 -0.1981
20745SOL    HW266793   4.252   7.662   9.793 -1.3663  1.5470  0.9102
20746SOL     OW66794   7.434   2.142   0.647 -0.2466 -0.1267 -0.4545
20746SOL    HW166795   7.369   2.206   0.676  1.3894  1.5630 -0.3314
20746SOL    HW266796   7.415   2.129   0.554 -1.0180  0.0060 -0.3221
20747SOL     OW66797   3.919   7.948  11.464  0.3707  0.0523  0.0383
20747SOL    HW166798   4.008   7.955  11.500  0.8893  1.1634 -1.3834
20747SOL    HW266799   3.862   7.964  11.539  1.4202  2.2432  0.4497
20748SOL     OW66800   7.393   1.098   0.294  0.1691  0.3293 -0.3011
20748SOL    HW166801   7.376   1.005   0.305 -1.7584  0.7148  0.3384
20748SOL    HW266802   7.408   1.131   0.383 -2.0185  1.0950 -0.1670
20749SOL     OW66803   0.484   5.203   6.997 -0.6095 -0.1372 -0.2824
20749SOL    HW166804   0.455   5.160   6.917  2.9011 -0.0182 -1.7931
20749SOL    HW266805   0.436   5.158   7.067 -1.6505 -2.2602 -2.2357
20750SOL     OW66806  12.101   6.621   8.909 -0.0693  0.3721 -0.2129
20750SOL    HW166807  12.063   6.663   8.987  0.0487 -3.5343  2.2055
20750SOL    HW266808  12.025   6.602   8.854 -0.3028  1.9707 -0.5054
20751SOL     OW66809  11.526   1.326   4.529  0.3425  0.4158  0.5577
20751SOL    HW166810  11.550   1.335   4.437  1.8271 -0.2516  0.8621
20751SOL    HW266811  11.433   1.301   4.527  0.4899 -0.0930 -0.7705
20752SOL     OW66812   3.724   5.235   7.117 -0.4215 -0.2743  0.4332
20752SOL    HW166813   3.753   5.167   7.177 -1.1861 -2.2244 -1.2956
20752SOL    HW266814   3.805   5.270   7.079  0.1382  1.5161  2.9824
20753SOL     OW66815   2.994  10.420   7.811 -0.3262 -0.0813  0.5764
20753SOL    HW166816   2.937  10.496   7.824  0.8250  0.5997  1.9539
20753SOL    HW266817   3.080  10.457   7.795  0.0429 -1.0986  0.1486
20754SOL     OW66818   5.672   0.242   0.170 -0.0175 -0.1414  0.3430
20754SOL    HW166819   5.669   0.293   0.089  0.3966 -0.1926  0.2925
20754SOL    HW266820   5.701   0.305   0.237  0.3367 -0.2662  0.3110
20755SOL     OW66821   0.530   2.246   0.199 -0.1186  0.1189  0.3287
20755SOL    HW166822   0.471   2.191   0.251  0.2748 -0.1930  0.4425
20755SOL    HW266823   0.613   2.245   0.246  0.6941 -1.3694 -1.0432
20756SOL     OW66824   3.041   5.093   3.636  0.1688  0.6011  0.4325
20756SOL    HW166825   3.121   5.143   3.650  0.7442 -0.0322 -0.5246
20756SOL    HW266826   3.070   5.001   3.635 -0.4715  0.4033 -0.5790
20757SOL     OW66827  10.757   7.160   1.279 -0.0994  0.3130 -0.4469
20757SOL    HW166828  10.685   7.204   1.234 -0.6023 -0.2272 -0.1723
20757SOL    HW266829  10.725   7.144   1.367  0.1720 -0.3669 -0.4626
20758SOL     OW66830   5.069  10.988   6.247 -0.1030  0.5177  0.3569
20758SOL    HW166831   5.114  11.070   6.267  1.9479 -1.1141  3.1634
20758SOL    HW266832   5.138  10.922   6.243 -1.6918 -1.1583 -1.6393
20759SOL     OW66833  10.502   0.413   1.921  0.4022  0.4524 -0.1630
20759SOL    HW166834  10.436   0.449   1.980  1.8276  0.1564  1.6955
20759SOL    HW266835  10.452   0.384   1.845 -1.5537  0.6332  0.9722
20760SOL     OW66836   6.318   6.479   9.269  0.0871 -0.2809 -0.4978
20760SOL    HW166837   6.270   6.533   9.207  0.1938 -0.0766 -0.4058
20760SOL    HW266838   6.296   6.389   9.246  2.0013 -0.3424 -2.4205
20761SOL     OW66839  10.040   5.656   6.363  0.1253  0.5267 -0.2378
20761SOL    HW166840  10.029   5.596   6.290  0.8061  2.2829 -1.8672
20761SOL    HW266841  10.081   5.604   6.432 -1.7426 -1.5132 -0.5653
20762SOL     OW66842   3.144   0.862  10.974  0.6257 -0.5183  0.5555
20762SOL    HW166843   3.129   0.875  11.067  0.6948 -2.6296  0.9197
20762SOL    HW266844   3.075   0.801  10.947  1.1274 -0.6142 -0.5824
20763SOL     OW66845   5.087   1.699   6.642 -0.0218 -0.2555  0.5795
20763SOL    HW166846   5.151   1.657   6.585  0.0145  0.4470  0.0899
20763SOL    HW266847   5.018   1.633   6.654  1.2616 -1.4052  1.9713
20764SOL     OW66848   8.914   4.375  10.815  0.2888  0.1978  0.0213
20764SOL    HW166849   8.944   4.337  10.898 -1.4911  0.3398  0.7668
20764SOL    HW266850   8.978   4.344  10.751  0.3780 -1.9344  1.0409
20765SOL     OW66851  12.066   4.904   3.532 -0.3601 -0.0078 -1.1375
20765SOL    HW166852  12.069   4.838   3.464  1.6596 -0.4547 -0.6744
20765SOL    HW266853  12.156   4.912   3.563 -0.7834  1.9252 -0.1805
20766SOL     OW66854   6.818  12.061  10.272  0.1417 -0.5082  0.2049
20766SOL    HW166855   6.843  12.001  10.342  1.2068 -0.5270 -0.1631
20766SOL    HW266856   6.887  12.050  10.206 -0.8912 -0.5765 -0.8976
20767SOL     OW66857   9.028   7.306   6.254  0.6775 -0.7362 -0.0165
20767SOL    HW166858   8.976   7.283   6.331  0.4272 -0.6517 -0.1593
20767SOL    HW266859   8.993   7.251   6.185  0.0570  0.0926 -0.3694
20768SOL     OW66860   5.129   8.015   7.966  0.1292  0.4179  0.0057
20768SOL    HW166861   5.159   7.963   7.891 -1.7574  3.5714 -3.2669
20768SOL    HW266862   5.050   7.970   7.997  0.5853 -0.5981 -0.2606
20769SOL     OW66863  10.553  12.106   2.245 -1.1118  0.1493 -0.4121
20769SOL    HW166864  10.554  12.067   2.332  1.0532 -0.8159 -0.8020
20769SOL    HW266865  10.493  12.180   2.252 -2.6375 -1.1660  1.3010
20770SOL     OW66866   0.191   4.668   3.602 -0.2684  0.1452 -0.1042
20770SOL    HW166867   0.118   4.620   3.563 -1.0901  1.2885 -0.0187
20770SOL    HW266868   0.171   4.670   3.696  0.2315 -0.1163  0.0126
20771SOL     OW66869   7.122  10.621  10.096  0.3242  0.8860  0.0623
20771SOL    HW166870   7.174  10.629  10.016  0.4623  1.9299  0.2457
20771SOL    HW266871   7.182  10.584  10.161 -0.6149 -3.2286 -1.0913
20772SOL     OW66872   3.608   9.822   0.300  0.0609  0.7709 -0.3494
20772SOL    HW166873   3.633   9.730   0.307  0.4586  0.8618 -0.5500
20772SOL    HW266874   3.570   9.830   0.212 -2.9982  0.0889  0.7759
20773SOL     OW66875   4.154   4.374   5.287  0.6153 -0.3767 -0.4566
20773SOL    HW166876   4.138   4.295   5.236  0.1128 -1.0015  0.6204
20773SOL    HW266877   4.150   4.344   5.378  2.4384  0.5135 -0.0519
20774SOL     OW66878   2.860   2.520   2.326 -0.0006  0.1565  0.0412
20774SOL    HW166879   2.891   2.611   2.333 -0.7108  0.3301  1.1148
20774SOL    HW266880   2.821   2.501   2.411 -1.7785 -0.4404 -0.8532
20775SOL     OW66881   0.831   7.833  11.921 -0.0508  0.0186 -0.4152
20775SOL    HW166882   0.747   7.787  11.916  0.8385 -1.9999  1.5004
20775SOL    HW266883   0.894   7.765  11.944  1.5774  1.9979  1.3211
20776SOL     OW66884   1.237   0.037   2.922  0.4424  0.0072  0.2100
20776SOL    HW166885   1.252  -0.053   2.893  0.0746  0.1722 -0.5020
20776SOL    HW266886   1.146   0.055   2.897  0.6812  0.7582 -0.1373
20777SOL     OW66887  10.212   9.609   7.278 -0.3710  0.1345 -0.1851
20777SOL    HW166888  10.252   9.696   7.282  0.1133 -0.1045  0.3639
20777SOL    HW266889  10.125   9.621   7.316  0.2753  0.0769  1.3804
20778SOL     OW66890  10.618   1.796   5.705  0.0829  0.1855 -0.0329
20778SOL    HW166891  10.677   1.790   5.781  2.0082 -2.1725 -1.5606
20778SOL    HW266892  10.637   1.882   5.667 -1.1238  1.5464  2.1963
20779SOL     OW66893   4.006   0.017   2.463 -0.1954  0.6068 -0.1065
20779SOL    HW166894   3.927   0.035   2.411 -0.0953  1.0408 -0.1107
20779SOL    HW266895   4.079   0.037   2.404 -0.0584 -1.0598 -0.5542
20780SOL     OW66896   4.738   0.471   4.490 -0.1111 -0.0001  0.1289
20780SOL    HW166897   4.832   0.453   4.504 -0.0639  0.6368  0.6676
20780SOL    HW266898   4.735   0.521   4.408 -0.1380 -1.3967 -0.7525
20781SOL     OW66899  11.992   8.134  11.116  0.2652 -0.1931  0.0192
20781SOL    HW166900  12.009   8.132  11.022 -1.3305 -0.9790 -0.2937
20781SOL    HW266901  11.990   8.227  11.138 -2.2096  0.1750 -1.3630
20782SOL     OW66902   7.664   9.506   6.566 -0.0728 -0.2364  0.2627
20782SOL    HW166903   7.650   9.428   6.511  0.9126  0.2128 -0.6487
20782SOL    HW266904   7.727   9.478   6.633  1.0872  0.0402 -0.6875
20783SOL     OW66905   3.033   8.146   9.926  0.4107  0.5186 -0.2811
20783SOL    HW166906   3.042   8.060   9.886  2.7407  1.4398 -1.9374
20783SOL    HW266907   3.104   8.151   9.991 -0.8571  0.5532  1.1709
20784SOL     OW66908   9.695  10.566  11.216  0.0038 -0.2588  0.6389
20784SOL    HW166909   9.623  10.551  11.278 -0.1432  1.7494  0.9962
20784SOL    HW266910   9.652  10.594  11.135  0.2741 -1.6289 -0.0177
20785SOL     OW66911   2.030  10.743   0.714 -0.2949  0.6234 -0.7534
20785SOL    HW166912   1.999  10.654   0.730  1.6792  0.1136  0.4877
20785SOL    HW266913   1.967  10.779   0.652 -1.3239 -1.5138 -1.0332
20786SOL     OW66914   6.967   0.016   1.608 -0.3487  0.6966 -0.0114
20786SOL    HW166915   7.047  -0.012   1.652 -1.1031  0.0455  0.9887
20786SOL    HW266916   6.994   0.030   1.517  0.8359  0.2198  0.2439
20787SOL     OW66917   1.682   0.343   4.384  0.7176 -0.0569 -0.7324
20787SOL    HW166918   1.670   0.390   4.302  1.8325  0.3282 -0.6926
20787SOL    HW266919   1.681   0.251   4.360  1.3598  0.0601 -1.2328
20788SOL     OW66920   0.358   6.015   5.021  0.5384 -0.0651  0.3615
20788SOL    HW166921   0.353   6.037   5.115 -1.1758  0.1326  0.2555
20788SOL    HW266922   0.268   6.027   4.989  0.0533 -4.2262 -0.3970
20789SOL     OW66923   2.262   6.586   4.084  0.4646  0.2444 -0.9943
20789SOL    HW166924   2.210   6.509   4.104 -0.2336  0.9479  0.0547
20789SOL    HW266925   2.324   6.558   4.017  1.8240 -1.8905  1.0065
20790SOL     OW66926   3.991   4.204   6.829  0.3340 -0.2480 -0.7473
20790SOL    HW166927   4.074   4.241   6.799  0.6087 -0.2438 -0.0155
20790SOL    HW266928   3.924   4.262   6.792  0.5881 -0.8375 -2.1837
20791SOL     OW66929   5.284   1.745   0.662  0.6003 -0.2172 -0.2299
20791SOL    HW166930   5.303   1.763   0.570  1.4286  1.5170  0.2410
20791SOL    HW266931   5.295   1.650   0.670  3.1374 -0.1208 -1.3685
20792SOL     OW66932   2.669   4.040   2.077 -0.6517 -0.1279  0.1927
20792SOL    HW166933   2.608   4.009   2.143  0.3013 -1.0493  0.6714
20792SOL    HW266934   2.725   4.103   2.123 -1.1011  0.5528 -0.1863
20793SOL     OW66935   2.217   6.650   3.746  0.2272 -0.3926  0.3073
20793SOL    HW166936   2.299   6.662   3.794 -0.3827  1.3316  1.0015
20793SOL    HW266937   2.161   6.601   3.805 -0.1188  0.7195  0.9400
20794SOL     OW66938   8.909   4.111   6.553 -0.7114  0.0143  0.3131
20794SOL    HW166939   8.911   4.189   6.497  2.5522 -0.0961  0.1013
20794SOL    HW266940   8.924   4.038   6.493 -2.4544 -0.6987  0.6873
20795SOL     OW66941   0.683   1.728   5.743  0.0451 -0.3504  0.3709
20795SOL    HW166942   0.723   1.782   5.811  0.1146  0.4143 -0.2663
20795SOL    HW266943   0.589   1.740   5.756  0.0691  0.5449 -0.2535
20796SOL     OW66944   5.289   4.766   1.603 -0.0203 -0.3018 -0.4222
20796SOL    HW166945   5.358   4.814   1.556  1.0168  0.0146  1.3393
20796SOL    HW266946   5.282   4.812   1.687 -1.5304 -1.0918 -0.0966
20797SOL     OW66947  10.739   4.639   2.044 -0.5044  0.8746  0.0123
20797SOL    HW166948  10.815   4.633   1.987  0.0881 -0.5483  0.9001
20797SOL    HW266949  10.677   4.693   1.996  0.1531  0.1060 -1.7571
20798SOL     OW66950   5.639   3.502   2.404 -0.3588 -0.0440  0.8169
20798SOL    HW166951   5.670   3.411   2.405 -1.7159 -0.5526 -0.0393
20798SOL    HW266952   5.632   3.524   2.312  0.3137  1.0805  1.0257
20799SOL     OW66953   0.649   5.554   6.734 -0.1539 -0.1192 -0.6267
20799SOL    HW166954   0.580   5.593   6.787  0.9647  0.7681  0.2214
20799SOL    HW266955   0.632   5.586   6.645  0.7496  2.4236  0.0401
20800SOL     OW66956  10.175  11.450   3.197  0.4557 -0.2254  0.2947
20800SOL    HW166957  10.247  11.393   3.170  0.5238 -0.2796  0.5821
20800SOL    HW266958  10.177  11.447   3.293 -1.1649 -1.7968  0.3276
20801SOL     OW66959  10.886   7.149   4.672 -0.2979  0.2003 -0.2449
20801SOL    HW166960  10.926   7.073   4.630 -0.0859  0.1416  0.0591
20801SOL    HW266961  10.933   7.157   4.755  0.6993  1.5445 -0.9020
20802SOL     OW66962   5.491   8.279   0.565 -0.0405 -0.2879 -0.0848
20802SOL    HW166963   5.495   8.204   0.505 -1.0770  0.0129 -0.5552
20802SOL    HW266964   5.575   8.324   0.554  0.6390 -1.4144  0.2738
20803SOL     OW66965   2.478   8.222   1.548  0.0902  0.1223  0.0902
20803SOL    HW166966   2.553   8.216   1.608 -0.2668 -0.4982  0.4799
20803SOL    HW266967   2.402   8.198   1.601 -0.2864 -0.0396 -0.5120
20804SOL     OW66968   5.745   9.967   3.235  0.3644 -0.3550  0.1739
20804SOL    HW166969   5.659   9.984   3.273  0.8058  2.5542  0.0509
20804SOL    HW266970   5.807  10.008   3.296  1.4795 -0.2606 -0.9754
20805SOL     OW66971  10.283   3.367   9.382 -0.3808  0.0219  0.0283
20805SOL    HW166972  10.326   3.445   9.417  0.0166 -1.0848  2.2418
20805SOL    HW266973  10.262   3.389   9.291 -0.2659  2.6642  0.5579
20806SOL     OW66974   3.164  10.889  10.558 -0.1103  0.0170 -0.4229
20806SOL    HW166975   3.175  10.956  10.491 -3.0513  0.5497 -0.5290
20806SOL    HW266976   3.069  10.877  10.564  0.2064 -2.3957  1.3374
20807SOL     OW66977   2.898   9.085   9.661 -0.0966 -0.0264  0.4971
20807SOL    HW166978   2.935   9.138   9.731 -1.1687  1.7057 -0.1780
20807SOL    HW266979   2.931   9.125   9.581  0.9286 -1.8364 -0.0444
20808SOL     OW66980   9.062   9.124   6.904  0.0355  0.3707  0.4805
20808SOL    HW166981   9.106   9.119   6.820 -0.4837  1.7123  0.1031
20808SOL    HW266982   9.099   9.051   6.955  0.6255 -0.2272 -0.7574
20809SOL     OW66983  11.572   8.499   5.191 -0.0761 -0.1249 -0.2197
20809SOL    HW166984  11.488   8.515   5.235 -0.5945 -0.7656 -0.9571
20809SOL    HW266985  11.549   8.450   5.113  0.8075  1.1697 -1.3258
20810SOL     OW66986   4.788   0.196  10.756  0.7648 -0.1766 -0.1438
20810SOL    HW166987   4.771   0.184  10.849 -0.5872  1.4411 -0.1360
20810SOL    HW266988   4.856   0.132  10.735  0.5365 -1.0937  1.7703
20811SOL     OW66989  10.335  10.547  11.666 -0.0479  0.8843 -0.0423
20811SOL    HW166990  10.424  10.582  11.673  0.3095 -0.0995  0.6341
20811SOL    HW266991  10.344  10.455  11.693 -1.5594  1.1929  1.6911
20812SOL     OW66992   6.165   3.575   4.797 -0.0401 -0.5828 -0.4746
20812SOL    HW166993   6.151   3.502   4.737 -0.5798 -1.5912  0.8475
20812SOL    HW266994   6.255   3.603   4.780  0.1054 -1.4136 -1.1223
20813SOL     OW66995   9.283   8.395   0.291  0.0842 -0.2141 -0.5713
20813SOL    HW166996   9.372   8.422   0.270 -0.0556  0.9157  0.2021
20813SOL    HW266997   9.293   8.330   0.361  0.2892  0.0163 -0.3872
20814SOL     OW66998   2.302   5.892   3.409 -0.3951  0.3597 -0.1608
20814SOL    HW166999   2.236   5.938   3.461 -1.2936  0.3342 -1.2463
20814SOL    HW267000   2.383   5.939   3.426 -0.1859 -0.8614  2.8554
20815SOL     OW67001   8.698  10.609   5.394 -0.6346  0.3938  0.3515
20815SOL    HW167002   8.757  10.544   5.432 -1.6779 -0.1755  1.0294
20815SOL    HW267003   8.611  10.572   5.404 -1.2464  1.8274  0.6190
20816SOL     OW67004  10.501   3.936   3.595  0.8882 -0.3806 -0.2911
20816SOL    HW167005  10.493   3.977   3.682  0.1860  2.6384 -1.6548
20816SOL    HW267006  10.582   3.973   3.560  0.3697 -0.3665 -1.4927
20817SOL     OW67007   9.641   7.027   9.084 -0.4531 -0.4417  0.0706
20817SOL    HW167008   9.652   7.017   9.178  0.2864 -1.4442 -0.1132
20817SOL    HW267009   9.619   7.120   9.073  1.5451  0.2177  1.0584
20818SOL     OW67010   3.835   9.424   0.622  0.0439 -0.3908  0.2302
20818SOL    HW167011   3.848   9.477   0.700  1.6643  0.6692 -0.7063
20818SOL    HW267012   3.911   9.365   0.620 -0.9362 -1.7254  0.4211
20819SOL     OW67013  12.122   4.563   4.569 -0.0389  0.2251  0.4477
20819SOL    HW167014  12.096   4.522   4.487  0.7907 -1.2871  0.9055
20819SOL    HW267015  12.088   4.653   4.563 -1.8888 -0.5042 -0.5944
20820SOL     OW67016   4.676   6.918   8.500 -0.3659  0.3267  0.0642
20820SOL    HW167017   4.630   6.925   8.416  0.6214 -0.3683 -0.5461
20820SOL    HW267018   4.612   6.879   8.559 -0.6273 -0.4791 -0.7336
20821SOL     OW67019   8.225  10.318   6.013 -0.0594 -0.5200  0.2976
20821SOL    HW167020   8.250  10.326   6.105 -0.4878 -1.5548  0.5178
20821SOL    HW267021   8.226  10.223   5.996  0.7745 -0.3073 -0.9826
20822SOL     OW67022   9.193   9.927   8.679  0.1967 -0.2555 -0.3468
20822SOL    HW167023   9.263   9.901   8.621 -0.4029  1.5114 -1.9602
20822SOL    HW267024   9.130   9.855   8.676 -0.1214  0.0725 -2.4316
20823SOL     OW67025  11.123   5.449   7.595  0.1387  0.2389 -0.4709
20823SOL    HW167026  11.162   5.375   7.641  0.7711  0.1572 -1.1207
20823SOL    HW267027  11.080   5.501   7.663 -0.0075 -0.5384  0.0322
20824SOL     OW67028   1.166   2.002   1.977  0.8539  0.5276 -0.1476
20824SOL    HW167029   1.229   1.935   1.950  1.6190  1.1581  0.0154
20824SOL    HW267030   1.196   2.029   2.064  0.0193  0.4424  0.1712
20825SOL     OW67031   6.877   5.357   2.250 -0.1729 -0.4292 -0.3290
20825SOL    HW167032   6.890   5.347   2.156 -0.4219 -0.3798 -0.3683
20825SOL    HW267033   6.883   5.451   2.266 -1.9366 -0.2445 -0.5687
20826SOL     OW67034   4.847  10.196   6.476 -0.0525 -0.0970  0.4031
20826SOL    HW167035   4.893  10.127   6.429 -2.2910 -0.9556 -0.6613
20826SOL    HW267036   4.793  10.149   6.540 -1.7406  0.5907 -0.4521
20827SOL     OW67037   5.577   2.434   0.013  0.0214  0.4117 -0.2966
20827SOL    HW167038   5.484   2.442   0.031  0.4057 -1.2839  3.2992
20827SOL    HW267039   5.583   2.360  -0.048 -0.9429  0.0206  0.0638
20828SOL     OW67040   7.339   0.320   2.050 -0.2250  0.2303 -0.1263
20828SOL    HW167041   7.244   0.310   2.044 -0.3186  0.5277  0.7282
20828SOL    HW267042   7.364   0.369   1.972 -0.6213 -0.8152 -0.9367
20829SOL     OW67043   9.522   0.098   3.764  0.0369  0.2264 -0.3533
20829SOL    HW167044   9.431   0.087   3.736  0.3476  1.8197 -2.1939
20829SOL    HW267045   9.573   0.085   3.684  1.1965  2.1489  0.0139
20830SOL     OW67046   2.545   4.153   5.594  0.4361 -0.1337 -0.0142
20830SOL    HW167047   2.489   4.093   5.643 -0.1625  0.6682  0.2972
20830SOL    HW267048   2.531   4.129   5.502  0.0502 -0.3359  0.0956
20831SOL     OW67049   0.689  11.629   5.200 -0.0641  0.3981  0.4237
20831SOL    HW167050   0.741  11.687   5.145  1.0590  1.7520  2.7775
20831SOL    HW267051   0.615  11.682   5.228 -0.4374 -0.1662  0.5334
20832SOL     OW67052   7.430   4.856   4.728 -0.2531 -0.3602  0.2196
20832SOL    HW167053   7.367   4.828   4.662 -1.0368  1.0530  0.3181
20832SOL    HW267054   7.432   4.784   4.791 -0.3462 -1.2353 -0.7442
20833SOL     OW67055   1.725  11.730   3.550  0.1070  0.4399 -0.1313
20833SOL    HW167056   1.694  11.703   3.637  0.0483  0.5555 -0.1152
20833SOL    HW267057   1.820  11.736   3.559  0.2412 -0.9711 -0.4754
20834SOL     OW67058   1.386   6.453   4.726  0.4154  0.0418 -0.2544
20834SOL    HW167059   1.400   6.438   4.820 -1.5302  0.4464  0.1314
20834SOL    HW267060   1.471   6.431   4.686  1.2130 -0.3827  1.5517
20835SOL     OW67061   6.399   5.414   1.569  0.2662  0.0641  0.0116
20835SOL    HW167062   6.391   5.487   1.630  3.3664  0.7186 -0.2156
20835SOL    HW267063   6.490   5.417   1.539 -0.6859 -1.1529 -3.4934
20836SOL     OW67064   6.447  11.440   2.574 -0.6910 -0.4157  0.3273
20836SOL    HW167065   6.516  11.384   2.539 -1.1552 -1.5245  1.0982
20836SOL    HW267066   6.484  11.477   2.654 -0.5404  0.0161  0.0569
20837SOL     OW67067   9.082   8.997   8.955  0.5032 -0.0026 -0.2867
20837SOL    HW167068   9.170   9.005   8.919  0.6451 -0.6659 -0.0952
20837SOL    HW267069   9.093   8.939   9.031  0.0312  0.5156  0.1850
20838SOL     OW67070   7.818   9.663   4.108  0.5086 -0.1156  0.3197
20838SOL    HW167071   7.837   9.742   4.160  0.8192 -1.0134  1.6197
20838SOL    HW267072   7.834   9.690   4.017  0.1684  1.4414  0.6866
20839SOL     OW67073   9.865   2.876   9.115  0.5204 -0.4755 -0.3444
20839SOL    HW167074   9.912   2.832   9.045  1.5326 -1.7424  1.0555
20839SOL    HW267075   9.912   2.958   9.128  1.1176 -0.8163 -0.3086
20840SOL     OW67076   5.164  10.777   3.123  0.1265  0.8739 -0.0693
20840SOL    HW167077   5.172  10.799   3.030 -0.2016 -1.0736 -0.6000
20840SOL    HW267078   5.072  10.755   3.135  1.0185 -4.5767 -0.7724
20841SOL     OW67079  10.347   9.367   9.166 -0.2215 -0.0153 -0.0692
20841SOL    HW167080  10.258   9.335   9.177 -0.6609  0.5088 -1.8229
20841SOL    HW267081  10.394   9.293   9.125  0.2872 -0.4372  1.2150
20842SOL     OW67082   1.859   5.799   9.635  0.0853  0.1144 -0.0813
20842SOL    HW167083   1.852   5.891   9.611 -0.0923  0.2973  0.6360
20842SOL    HW267084   1.776   5.761   9.609 -0.2722  0.4036  0.5932
20843SOL     OW67085   8.773   2.104   1.419  0.3930 -0.2802  0.0781
20843SOL    HW167086   8.835   2.087   1.348  0.7776 -0.8290  0.5464
20843SOL    HW267087   8.821   2.159   1.480  0.0455  0.2283 -0.0972
20844SOL     OW67088   7.896   2.290  12.125  0.2355  0.5282 -0.2394
20844SOL    HW167089   7.986   2.268  12.149 -0.0108  0.4421  0.6222
20844SOL    HW267090   7.902   2.316  12.032  1.1878  0.8033 -0.1152
20845SOL     OW67091   3.789   4.260   1.306 -0.1624  0.0079 -0.1910
20845SOL    HW167092   3.759   4.262   1.215  1.5500  3.0593 -0.8426
20845SOL    HW267093   3.766   4.347   1.340  2.4715  0.2923  1.0664
20846SOL     OW67094   4.884   6.080  10.240  0.2880 -0.0852 -0.0373
20846SOL    HW167095   4.890   5.984  10.239  2.2817 -0.0847  2.4419
20846SOL    HW267096   4.866   6.102  10.331 -1.9693  1.9042 -0.8592
20847SOL     OW67097   0.450   3.478   8.537  0.3682 -0.1681  0.1702
20847SOL    HW167098   0.420   3.442   8.454  1.3112  0.0101 -0.2714
20847SOL    HW267099   0.500   3.556   8.512 -0.8351  0.9268  1.0334
20848SOL     OW67100   1.898  11.138   2.473 -0.3515  0.2651 -0.2042
20848SOL    HW167101   1.944  11.087   2.541  0.9992  1.1338 -0.4311
20848SOL    HW267102   1.807  11.112   2.481 -0.0701 -0.3309  1.3449
20849SOL     OW67103   0.929   8.826   7.570 -0.7106  0.3364  0.0420
20849SOL    HW167104   0.962   8.738   7.588 -0.9570  0.1820 -0.2751
20849SOL    HW267105   0.912   8.828   7.476 -0.3804  0.8331 -0.0174
20850SOL     OW67106   3.296   3.066   0.011 -0.3332 -0.2868 -0.5107
20850SOL    HW167107   3.224   3.121  -0.019 -0.5800 -1.5233 -2.3402
20850SOL    HW267108   3.346   3.047  -0.069  0.3942 -1.7595  0.2649
20851SOL     OW67109   2.189   2.680  10.082 -0.4575 -0.0371 -0.2144
20851SOL    HW167110   2.194   2.733  10.162 -0.7515 -0.6601  0.2229
20851SOL    HW267111   2.119   2.720  10.031 -0.7993 -0.1048  0.1938
20852SOL     OW67112   7.034   1.568  11.491 -0.1857 -0.2913  0.0820
20852SOL    HW167113   6.989   1.514  11.426 -0.7089  1.2467 -0.8745
20852SOL    HW267114   7.083   1.632  11.440 -1.1059  1.3485  1.1539
20853SOL     OW67115  11.668  10.513   4.574 -0.0671 -0.0731  0.4602
20853SOL    HW167116  11.712  10.565   4.641 -0.4817 -0.9766  1.4703
20853SOL    HW267117  11.721  10.524   4.495  1.1026  0.0808  1.2490
20854SOL     OW67118   8.904   1.737   6.459  0.4135  0.2458  0.4916
20854SOL    HW167119   8.880   1.827   6.437 -0.1839 -0.3077 -1.2739
20854SOL    HW267120   8.821   1.690   6.459  0.9561 -0.7974 -1.1640
20855SOL     OW67121   1.666   3.790  10.950  0.0686 -0.3055 -0.3024
20855SOL    HW167122   1.697   3.854  11.014  0.9804 -0.8390 -0.1988
20855SOL    HW267123   1.673   3.706  10.995 -0.6623 -0.5415 -0.6066
20856SOL     OW67124   6.695   7.073   6.976  0.2717  0.0049 -0.1941
20856SOL    HW167125   6.784   7.100   6.952  0.5411  1.1956  1.8672
20856SOL    HW267126   6.642   7.151   6.960  0.0658  0.0851  0.8245
20857SOL     OW67127  11.872  10.641  10.786 -0.0181  0.2927 -0.3833
20857SOL    HW167128  11.875  10.681  10.873  1.6815 -0.5198 -0.0248
20857SOL    HW267129  11.846  10.551  10.802  2.3487 -0.4572 -0.4190
20858SOL     OW67130   0.764   1.020   4.880 -0.2470  0.6761 -0.3006
20858SOL    HW167131   0.838   0.961   4.897 -0.3015  0.1529 -1.7228
20858SOL    HW267132   0.698   0.994   4.944  0.2955  0.2234  0.0948
20859SOL     OW67133   2.570  10.752   9.296 -0.1129  0.0751  0.3371
20859SOL    HW167134   2.639  10.806   9.256 -0.4091  1.1299  1.2012
20859SOL    HW267135   2.498  10.754   9.233 -0.0289  0.4864  0.2531
20860SOL     OW67136   1.661   6.138   7.739  0.4155  0.4617 -0.1660
20860SOL    HW167137   1.577   6.114   7.778  0.6661 -0.0572  0.0678
20860SOL    HW267138   1.667   6.084   7.660  0.1042  1.1913 -0.6905
20861SOL     OW67139   6.796   5.613   9.292  0.6264  0.4394 -0.6907
20861SOL    HW167140   6.854   5.537   9.293 -0.3167 -0.3379  1.0049
20861SOL    HW267141   6.854   5.689   9.294  1.6460 -0.3119  1.6550
20862SOL     OW67142   6.950   6.694  10.466  0.0663  0.2660 -0.1276
20862SOL    HW167143   6.881   6.688  10.401 -2.4602 -0.8243  2.4426
20862SOL    HW267144   6.961   6.605  10.499  1.9748  0.5988  0.3017
20863SOL     OW67145   7.373   8.464  11.921  0.4365  0.8060 -0.0488
20863SOL    HW167146   7.403   8.374  11.905  0.7909  1.1087 -1.1292
20863SOL    HW267147   7.294   8.473  11.868  0.7344  1.3115 -0.4225
20864SOL     OW67148   9.855   4.059   2.199  0.2660 -0.4181  0.1622
20864SOL    HW167149   9.864   3.968   2.172 -0.8336 -0.3313 -0.5845
20864SOL    HW267150   9.903   4.109   2.132  0.0808 -0.3957  0.0447
20865SOL     OW67151   2.987   4.046   0.165  0.0837  0.3612  0.3557
20865SOL    HW167152   2.967   3.965   0.213 -1.2670 -1.0263 -2.2897
20865SOL    HW267153   3.082   4.052   0.167  0.2579 -1.6177  0.1830
20866SOL     OW67154  11.363   6.305   9.910 -0.1186  0.6090  0.6477
20866SOL    HW167155  11.272   6.295   9.937  0.1941 -0.1540  1.4360
20866SOL    HW267156  11.376   6.239   9.842  0.6380 -1.3482  2.5883
20867SOL     OW67157  11.030   6.550   4.374 -0.4552 -0.3315  0.0904
20867SOL    HW167158  11.063   6.637   4.350 -0.4265 -0.4259 -0.2187
20867SOL    HW267159  10.999   6.513   4.291 -0.3506 -0.6683  0.2025
20868SOL     OW67160   9.197   7.969   3.594  0.2083 -0.3811 -0.7070
20868SOL    HW167161   9.169   7.891   3.547  2.7639 -2.1154  0.4130
20868SOL    HW267162   9.206   7.941   3.685  1.1788  1.2213 -0.2609
20869SOL     OW67163   7.777  10.770  11.650  0.2489 -0.3130  0.3700
20869SOL    HW167164   7.698  10.745  11.698 -0.9437  1.2004 -0.6887
20869SOL    HW267165   7.780  10.866  11.658 -0.0940  0.0268 -2.6303
20870SOL     OW67166   3.309   2.479   3.971 -0.5625 -0.1831  0.6692
20870SOL    HW167167   3.289   2.425   4.047  1.8112  1.5018  2.6281
20870SOL    HW267168   3.398   2.457   3.947 -0.7942  0.3166 -0.7830
20871SOL     OW67169  10.979   3.085   5.171  0.0932 -0.0382 -0.0788
20871SOL    HW167170  11.032   3.020   5.125 -0.0811  0.4440 -0.9766
20871SOL    HW267171  11.015   3.169   5.142  0.0505  0.2746  0.7511
20872SOL     OW67172  10.770   3.794  10.272 -0.0671 -0.9817 -0.3885
20872SOL    HW167173  10.768   3.729  10.343  0.0840 -1.5653 -0.9040
20872SOL    HW267174  10.735   3.874  10.311 -1.4062 -1.6978 -0.0478
20873SOL     OW67175   7.530   0.556   3.031 -0.2530 -0.0344 -0.4647
20873SOL    HW167176   7.477   0.635   3.046 -1.8711 -1.4004  1.6608
20873SOL    HW267177   7.572   0.571   2.947 -0.8365  2.8989 -0.3516
20874SOL     OW67178   9.648   1.527  11.656 -0.0807  0.5221  0.0700
20874SOL    HW167179   9.595   1.568  11.588 -0.0624  1.3551  0.5398
20874SOL    HW267180   9.738   1.549  11.633 -0.1548  2.4485  1.3419
20875SOL     OW67181   9.254   1.649   6.832 -0.3555 -0.0384 -0.8468
20875SOL    HW167182   9.273   1.667   6.740 -2.2235 -1.0076 -1.4736
20875SOL    HW267183   9.173   1.698   6.850 -0.1984 -0.1238  0.1802
20876SOL     OW67184   4.041   3.917   2.660 -0.0724  0.2835 -0.0384
20876SOL    HW167185   4.074   3.987   2.716 -1.8670  0.6613  0.6131
20876SOL    HW267186   3.993   3.962   2.590  0.7983 -0.2418 -1.0026
20877SOL     OW67187   7.483   4.360   9.674 -0.1712 -0.6997  0.5109
20877SOL    HW167188   7.452   4.399   9.592  1.1405 -1.0674 -0.2042
20877SOL    HW267189   7.500   4.268   9.651  0.8136 -0.6498  1.0128
20878SOL     OW67190  10.284   8.753   7.251  0.5806 -0.1903  0.0986
20878SOL    HW167191  10.365   8.775   7.297 -0.7591  0.9501  2.0839
20878SOL    HW267192  10.255   8.836   7.213 -0.4467 -0.2282  0.7753
20879SOL     OW67193   2.410   9.438  11.382  0.1056  0.0347 -0.5516
20879SOL    HW167194   2.486   9.381  11.372  1.4904  1.5151  1.0011
20879SOL    HW267195   2.437   9.504  11.445 -2.0673  1.3536 -0.8860
20880SOL     OW67196   8.620   2.470  11.623  0.2997 -0.4144  0.0050
20880SOL    HW167197   8.534   2.441  11.591  0.6000 -1.6788  0.2808
20880SOL    HW267198   8.679   2.399  11.599  2.2711  2.2457 -4.2852
20881SOL     OW67199  11.413   7.682   2.306 -0.0273  0.9229  0.0077
20881SOL    HW167200  11.490   7.698   2.251 -0.1371  0.4804 -0.2795
20881SOL    HW267201  11.349   7.643   2.247 -0.9685  2.5120 -0.0694
20882SOL     OW67202  11.799   0.544   1.579 -0.1996  0.1983 -0.5030
20882SOL    HW167203  11.892   0.529   1.595 -0.6945 -0.5820  2.1464
20882SOL    HW267204  11.781   0.628   1.621 -1.0072 -0.4846  0.5676
20883SOL     OW67205   1.799   3.209   6.150 -0.0810 -0.0128 -0.0261
20883SOL    HW167206   1.783   3.228   6.058  0.6815  0.0950 -0.1436
20883SOL    HW267207   1.782   3.293   6.195 -0.3348 -0.0349 -0.0765
20884SOL     OW67208   3.404  10.180   0.283  0.0060  0.1044 -0.0733
20884SOL    HW167209   3.414  10.098   0.332  2.0431 -0.4309 -1.2136
20884SOL    HW267210   3.482  10.231   0.306 -0.8420  1.4163  0.0090
20885SOL     OW67211   7.832  11.062  11.356 -0.1787 -0.6268  0.1304
20885SOL    HW167212   7.901  11.107  11.307 -0.2850 -0.9120 -0.2908
20885SOL    HW267213   7.879  11.011  11.422 -0.1110  0.8914  1.2982
20886SOL     OW67214   0.209   7.938   9.579  0.2525 -0.1260  0.0031
20886SOL    HW167215   0.211   7.935   9.483 -0.4396 -1.3568  0.0122
20886SOL    HW267216   0.138   8.000   9.599  0.9221  0.7523 -0.2593
20887SOL     OW67217   8.099   8.149   7.794  0.1864  0.0112 -0.4582
20887SOL    HW167218   8.118   8.239   7.821  1.4301 -0.5789  0.7393
20887SOL    HW267219   8.136   8.094   7.863  2.5703 -1.5789 -2.8021
20888SOL     OW67220   4.010   8.073   9.820 -0.2477  0.1284  0.2991
20888SOL    HW167221   4.075   8.099   9.755 -0.5660  0.8483  0.2647
20888SOL    HW267222   4.023   8.132   9.893 -0.0122 -0.5630  0.8295
20889SOL     OW67223   2.606   8.436   0.118  0.3639 -0.2116 -0.2765
20889SOL    HW167224   2.678   8.387   0.078  0.4025  0.0143 -0.4878
20889SOL    HW267225   2.578   8.496   0.049  1.0967  0.8983  0.3603
20890SOL     OW67226   7.221  10.351   8.452 -0.2161  0.0985 -0.6657
20890SOL    HW167227   7.133  10.362   8.415 -0.7863 -1.4409  0.1398
20890SOL    HW267228   7.220  10.405   8.531 -0.9122 -0.9410  0.0545
20891SOL     OW67229   2.775   0.705   2.285  0.3074 -0.1559  0.0473
20891SOL    HW167230   2.721   0.665   2.353  1.3343 -0.8501  0.4628
20891SOL    HW267231   2.859   0.722   2.327  0.8029 -0.1562 -0.9198
20892SOL     OW67232   2.379   8.123   5.602 -0.3914 -0.2158 -0.5199
20892SOL    HW167233   2.416   8.070   5.672  0.5246 -1.8761 -2.1811
20892SOL    HW267234   2.450   8.181   5.576 -0.9105  0.8048  0.2561
20893SOL     OW67235  11.255   0.151   4.365  0.2216  0.0247 -0.1697
20893SOL    HW167236  11.269   0.156   4.270  3.4004  0.1825  0.2120
20893SOL    HW267237  11.175   0.203   4.380 -0.5438 -0.2788 -2.7585
20894SOL     OW67238   0.359   9.153  10.819 -0.0790  0.2760  0.6827
20894SOL    HW167239   0.365   9.069  10.864  1.9793  1.0010  1.9255
20894SOL    HW267240   0.312   9.210  10.880 -2.3233 -0.1338 -0.5474
20895SOL     OW67241   0.921   1.429   6.550 -0.2955 -0.3614 -0.1070
20895SOL    HW167242   0.916   1.451   6.643 -0.7212  0.8268 -0.3881
20895SOL    HW267243   0.835   1.453   6.515 -0.3543 -1.3750 -0.6953
20896SOL     OW67244   9.355   4.680   1.155  0.3294 -0.3085 -0.1690
20896SOL    HW167245   9.313   4.744   1.098  1.4819  0.1465 -0.5306
20896SOL    HW267246   9.288   4.612   1.167  0.1656 -0.6252 -2.3841
20897SOL     OW67247  11.328   1.325   1.038 -0.5009 -0.1164  0.1695
20897SOL    HW167248  11.382   1.246   1.032  0.3280  0.4994 -0.6933
20897SOL    HW267249  11.390   1.397   1.034 -1.3398  0.6058 -0.2075
20898SOL     OW67250   7.466  11.726   4.450 -0.7137  0.0584 -0.0321
20898SOL    HW167251   7.388  11.736   4.395 -0.4740 -0.6882 -0.5122
20898SOL    HW267252   7.503  11.815   4.455 -0.9834  0.2144 -0.7142
20899SOL     OW67253   9.008   6.534  11.947 -0.5090 -0.0266  0.2329
20899SOL    HW167254   8.913   6.529  11.934 -0.4914 -1.1812  0.4213
20899SOL    HW267255   9.018   6.543  12.042 -0.4325  0.5173  0.1771
20900SOL     OW67256   2.167  11.357   2.769  0.3258 -0.9109 -0.1790
20900SOL    HW167257   2.239  11.295   2.786  0.7419 -0.8688 -1.6540
20900SOL    HW267258   2.204  11.421   2.709 -1.0540 -1.1041 -1.2827
20901SOL     OW67259   7.030  11.411   7.593  0.8407  0.4061 -0.3202
20901SOL    HW167260   6.956  11.376   7.643  0.1002 -0.0265 -1.6765
20901SOL    HW267261   7.079  11.333   7.566  1.2595  0.6377 -0.2349
20902SOL     OW67262   4.516   4.225  10.490 -0.1615 -0.2066 -0.5163
20902SOL    HW167263   4.497   4.311  10.528 -0.5313  0.2305 -1.6529
20902SOL    HW267264   4.482   4.162  10.554  0.8477  0.4626  0.7113
20903SOL     OW67265   9.677   7.758   0.828 -0.6349  0.2667  0.5570
20903SOL    HW167266   9.590   7.750   0.788  0.2043 -0.0234 -1.3320
20903SOL    HW267267   9.680   7.848   0.860 -1.5763  0.3261  0.5112
20904SOL     OW67268   9.662   7.995   9.103 -0.2989 -0.5144 -0.0229
20904SOL    HW167269   9.626   8.050   9.173  1.9086 -0.5104  1.2030
20904SOL    HW267270   9.627   7.908   9.120 -1.3379 -0.1408 -0.1288
20905SOL     OW67271   3.738   4.150   7.438  0.1061 -0.1840  0.2504
20905SOL    HW167272   3.660   4.176   7.487  0.4560  0.5206  0.4441
20905SOL    HW267273   3.708   4.141   7.348 -0.2573 -0.1963  0.3706
20906SOL     OW67274   8.403   7.645   7.344 -0.3741 -0.1681 -0.3314
20906SOL    HW167275   8.365   7.569   7.388  1.0522  0.3503  1.9684
20906SOL    HW267276   8.338   7.714   7.357 -0.6013 -0.3788 -0.3139
20907SOL     OW67277   2.131   6.042   8.763  0.2632 -0.2597 -0.1884
20907SOL    HW167278   2.223   6.066   8.760  0.2654  0.2550  2.0760
20907SOL    HW267279   2.114   6.001   8.678  2.0750  1.3101 -1.3916
20908SOL     OW67280   3.038   4.354   7.298 -0.0341  0.1064  0.0154
20908SOL    HW167281   3.024   4.449   7.301  0.9044  0.2235  0.9317
20908SOL    HW267282   3.099   4.336   7.369 -1.7668 -1.4808  1.1961
20909SOL     OW67283   3.593   1.817   1.534  0.0284  0.2070  0.5083
20909SOL    HW167284   3.594   1.768   1.617  0.9285 -0.4841  0.1030
20909SOL    HW267285   3.570   1.751   1.469  2.0260  0.1171 -0.1607
20910SOL     OW67286  10.587   8.141   5.141 -0.2071 -0.0518 -0.0916
20910SOL    HW167287  10.516   8.178   5.195 -1.8417 -1.0874 -1.4228
20910SOL    HW267288  10.664   8.145   5.198 -1.6119 -0.1316  1.9643
20911SOL     OW67289  12.118   3.167   7.822  0.4453 -0.5120 -0.1923
20911SOL    HW167290  12.066   3.099   7.780 -0.6732 -0.0831  0.4304
20911SOL    HW267291  12.123   3.237   7.757  0.7883 -0.8074 -0.4868
20912SOL     OW67292   2.677   8.914   1.775  0.0607  0.0015 -0.5421
20912SOL    HW167293   2.686   8.909   1.680 -0.3342  0.3987 -0.6015
20912SOL    HW267294   2.582   8.913   1.791 -0.1290  3.9885 -0.4053
20913SOL     OW67295   7.450  10.367   1.756 -0.5870 -0.2753 -0.2992
20913SOL    HW167296   7.416  10.432   1.818 -1.0550  0.9011 -1.7225
20913SOL    HW267297   7.543  10.388   1.747 -0.5355 -0.3985 -0.0542
20914SOL     OW67298   6.567   4.383   9.682 -0.0998 -0.2349 -0.0685
20914SOL    HW167299   6.596   4.396   9.773 -1.2685  0.9138  0.1808
20914SOL    HW267300   6.539   4.470   9.654 -0.9336 -0.8223 -1.1047
20915SOL     OW67301  11.568   4.338   2.416  0.7267  0.0494 -0.5996
20915SOL    HW167302  11.613   4.315   2.498  0.5902  1.7236  0.0023
20915SOL    HW267303  11.629   4.398   2.372 -0.2045  1.0814 -0.5303
20916SOL     OW67304   1.405   1.823   8.775 -0.0949 -0.0621 -0.4482
20916SOL    HW167305   1.316   1.851   8.795  0.1017 -0.6718  1.5707
20916SOL    HW267306   1.452   1.835   8.857  0.6837 -3.4738 -0.2458
20917SOL     OW67307   8.982   2.484   3.167  0.2222 -0.0691  0.1470
20917SOL    HW167308   8.945   2.550   3.107  0.2429 -0.9996 -0.9114
20917SOL    HW267309   8.986   2.529   3.252 -0.0418  1.1949 -0.4858
20918SOL     OW67310   4.096   0.729  10.963 -0.8111 -0.1980  0.2164
20918SOL    HW167311   4.080   0.818  10.997  0.0821 -0.4819  1.4883
20918SOL    HW267312   4.161   0.742  10.894  0.5718  0.0338  1.4881
20919SOL     OW67313   2.145   1.267   4.492 -0.2471  0.3995 -0.1632
20919SOL    HW167314   2.160   1.310   4.407 -1.1387 -0.9575 -1.0404
20919SOL    HW267315   2.080   1.200   4.474  1.4242 -1.6829  1.0432
20920SOL     OW67316   4.089   5.555   3.329 -0.6231 -0.3220 -0.0939
20920SOL    HW167317   4.089   5.463   3.303  0.5931 -0.1769 -0.7085
20920SOL    HW267318   4.123   5.601   3.252  0.5418  0.4332  0.8313
20921SOL     OW67319   1.210   3.189  10.556  0.4662  0.4280 -0.0498
20921SOL    HW167320   1.165   3.115  10.514  1.0857  0.0920 -0.1310
20921SOL    HW267321   1.142   3.232  10.607  0.4004 -1.0632  1.1913
20922SOL     OW67322  12.038   0.041   3.283 -0.1036  0.2925  0.0599
20922SOL    HW167323  11.951   0.065   3.250 -0.6942 -1.4771  0.2399
20922SOL    HW267324  12.099   0.082   3.221 -1.0452  1.4971 -0.1132
20923SOL     OW67325  12.092   5.665   5.855  0.0995 -0.0312  0.6455
20923SOL    HW167326  12.163   5.601   5.851 -2.1522 -2.6447  0.0952
20923SOL    HW267327  12.044   5.643   5.935 -1.2911  0.2902 -0.0703
20924SOL     OW67328   8.969   6.603   2.058  0.1756 -0.0051 -0.1346
20924SOL    HW167329   8.891   6.660   2.060  0.2565  0.1011  0.0624
20924SOL    HW267330   9.024   6.641   1.990  0.3847  0.3652  0.2310
20925SOL     OW67331   7.845  10.122   0.716 -0.2692 -0.4687 -0.3113
20925SOL    HW167332   7.921  10.109   0.774 -0.3287 -1.2225 -0.3981
20925SOL    HW267333   7.881  10.171   0.642 -0.1549  0.3554  0.2748
20926SOL     OW67334   7.130   4.317   4.927 -0.1523 -0.5946  0.3951
20926SOL    HW167335   7.173   4.330   5.011  0.7986 -0.3362 -0.1157
20926SOL    HW267336   7.037   4.310   4.948 -0.0502  0.5820  1.3586
20927SOL     OW67337   6.598   5.380   8.896  0.0258  0.0819  0.3472
20927SOL    HW167338   6.595   5.400   8.803 -1.4080 -0.5942  0.2201
20927SOL    HW267339   6.626   5.461   8.938 -1.2360  0.9749 -0.5015
20928SOL     OW67340   3.343   9.102  11.523  0.3800 -0.4520  0.1936
20928SOL    HW167341   3.405   9.175  11.520  0.0511 -0.1890 -0.4676
20928SOL    HW267342   3.398   9.024  11.532  0.7631 -0.1672  0.3387
20929SOL     OW67343   5.903   2.992   8.466 -0.6371  0.3019  0.6009
20929SOL    HW167344   5.961   3.001   8.390  1.0655  0.1432  1.8316
20929SOL    HW267345   5.853   2.912   8.448  1.7136 -1.3456  0.8257
20930SOL     OW67346   5.341   0.354   8.220 -0.3691 -0.5783  0.1629
20930SOL    HW167347   5.283   0.422   8.255 -0.7266 -1.1166  0.6443
20930SOL    HW267348   5.316   0.275   8.268 -0.0350 -1.0747 -0.4659
20931SOL     OW67349   8.683   1.163   2.543 -0.1287 -0.2543 -0.0908
20931SOL    HW167350   8.608   1.183   2.600 -1.1318 -2.0751 -0.6691
20931SOL    HW267351   8.694   1.068   2.551  1.1086 -0.2418 -1.2641
20932SOL     OW67352   8.634  11.418   7.039 -0.5111 -0.1791  0.2526
20932SOL    HW167353   8.713  11.470   7.023 -0.2442 -0.4860  0.5354
20932SOL    HW267354   8.594  11.407   6.953  0.6976 -1.4937 -0.1766
20933SOL     OW67355   6.653   0.159   7.184 -0.7637 -0.8542 -0.6427
20933SOL    HW167356   6.692   0.133   7.100  0.1872 -0.1675 -0.4237
20933SOL    HW267357   6.611   0.079   7.216  0.5408 -1.6448 -0.8473
20934SOL     OW67358   4.976   2.629   9.592  0.7678  0.1026 -0.5591
20934SOL    HW167359   5.028   2.567   9.644  1.2609 -0.1331 -1.3119
20934SOL    HW267360   5.026   2.711   9.595  0.8210  0.0753 -0.7011
20935SOL     OW67361   4.077   5.837   5.594 -0.1497  0.0710  0.4792
20935SOL    HW167362   4.124   5.920   5.597  1.0187 -0.5776  4.2084
20935SOL    HW267363   4.144   5.773   5.572 -0.7554 -0.1362 -0.8842
20936SOL     OW67364  10.909   0.104   8.431 -0.4170  0.3355  0.5901
20936SOL    HW167365  10.942   0.109   8.521 -0.3038  0.4297  0.5436
20936SOL    HW267366  10.986   0.081   8.379 -0.1503  1.7541  0.3153
20937SOL     OW67367  10.755   5.630   4.679  0.5212  0.2114  0.0454
20937SOL    HW167368  10.664   5.661   4.673  0.7275  0.6752 -0.9930
20937SOL    HW267369  10.803   5.705   4.715  0.3269 -0.4157  1.6711
20938SOL     OW67370   5.653   3.857   2.383  0.0089  0.1088 -0.2051
20938SOL    HW167371   5.679   3.780   2.434  0.7350  0.9052  0.6779
20938SOL    HW267372   5.559   3.866   2.399 -0.2717 -1.1017 -1.0461
20939SOL     OW67373   1.895   3.322   2.455 -0.4122 -0.0052 -0.6898
20939SOL    HW167374   1.904   3.311   2.361  2.5766  0.9874 -0.6004
20939SOL    HW267375   1.906   3.234   2.491 -0.8321 -0.2697 -1.1907
20940SOL     OW67376  11.278   8.018   5.256 -0.5952 -0.2417 -0.0122
20940SOL    HW167377  11.238   7.982   5.177 -0.9172  0.2567 -0.0785
20940SOL    HW267378  11.230   8.099   5.273  1.0381  0.9147 -0.6719
20941SOL     OW67379   9.861   2.689   5.650  0.6980 -0.1202  0.2609
20941SOL    HW167380   9.884   2.770   5.604 -0.3822  0.3708  0.5442
20941SOL    HW267381   9.890   2.703   5.740  0.6781 -0.1212  0.2673
20942SOL     OW67382   1.989   6.851   7.761  0.2553  0.1525 -0.3040
20942SOL    HW167383   1.910   6.817   7.803  1.2826 -0.1199  1.5329
20942SOL    HW267384   1.958   6.922   7.705 -1.1451  1.3005  1.7773
20943SOL     OW67385   8.079   0.061   4.663 -0.0392 -0.5388 -0.5091
20943SOL    HW167386   8.087   0.155   4.643  1.8824 -0.3893  0.7004
20943SOL    HW267387   8.070   0.058   4.758 -3.4798 -1.4790 -0.7648
20944SOL     OW67388   8.449   9.262  11.863  0.2349  0.1700 -0.2687
20944SOL    HW167389   8.384   9.322  11.900  1.2662  0.2848  1.4086
20944SOL    HW267390   8.410   9.234  11.780  0.4494  4.5261 -2.1091
20945SOL     OW67391   9.642   9.689   1.938  0.5348 -0.1817 -0.0406
20945SOL    HW167392   9.715   9.704   1.878 -0.2369  2.1804 -0.5351
20945SOL    HW267393   9.569   9.663   1.881  0.4126 -0.2602  0.1518
20946SOL     OW67394   5.273   7.607  11.796 -0.5976  0.6787  0.0275
20946SOL    HW167395   5.314   7.693  11.794 -2.3614  1.5419 -0.4211
20946SOL    HW267396   5.191   7.619  11.844 -0.3119 -1.0342  1.0507
20947SOL     OW67397   7.555   5.199  11.233  0.0626 -0.1927  0.1687
20947SOL    HW167398   7.624   5.174  11.295  0.4702 -1.5162 -0.7839
20947SOL    HW267399   7.587   5.280  11.193  0.2896  0.0908  0.9036
20948SOL     OW67400   1.348   8.447   1.057  0.0920  0.1832  0.3523
20948SOL    HW167401   1.362   8.369   1.002  1.4711  1.2714 -0.9406
20948SOL    HW267402   1.274   8.424   1.112 -0.4025 -1.5550 -0.9282
20949SOL     OW67403   5.391   9.056  12.050 -0.1027 -0.0099 -0.2944
20949SOL    HW167404   5.320   9.109  12.085  0.4046 -0.0938  0.9021
20949SOL    HW267405   5.465   9.116  12.043  0.2292 -0.3531  0.2395
20950SOL     OW67406   1.883   5.161   4.886  0.2782  0.1267  0.2312
20950SOL    HW167407   1.896   5.214   4.807  0.9038 -0.7401 -0.2614
20950SOL    HW267408   1.969   5.161   4.929  0.3424 -0.6339  0.1201
20951SOL     OW67409   1.844   3.223  11.304  0.2969  0.3248  0.2598
20951SOL    HW167410   1.778   3.178  11.356  2.0860  0.1283  2.5331
20951SOL    HW267411   1.846   3.175  11.221 -1.4413 -0.4710  0.6282
20952SOL     OW67412  10.554   4.093   8.353  0.6122 -0.0377 -0.0095
20952SOL    HW167413  10.592   4.081   8.266  0.9668  2.6191 -0.2888
20952SOL    HW267414  10.573   4.011   8.399  1.1345 -1.1789 -2.1384
20953SOL     OW67415   8.603   0.141   6.504  0.1630 -0.6439  0.2690
20953SOL    HW167416   8.666   0.186   6.447 -1.3045 -0.3708 -1.2360
20953SOL    HW267417   8.656   0.089   6.564  1.9635  2.7920  1.9130
20954SOL     OW67418   4.125   3.554   9.323 -0.0556  0.1756 -0.4030
20954SOL    HW167419   4.085   3.589   9.402  1.1690  0.2674  0.1949
20954SOL    HW267420   4.051   3.536   9.265 -1.0867 -0.9822  1.1822
20955SOL     OW67421   9.526   7.800  10.303  0.2440 -0.5454 -0.5379
20955SOL    HW167422   9.453   7.862  10.300 -0.9141 -1.8360 -0.2018
20955SOL    HW267423   9.564   7.804  10.215 -0.0664  0.3321 -0.6401
20956SOL     OW67424   9.905  10.925   2.168  0.2196  0.1606 -0.1587
20956SOL    HW167425   9.994  10.898   2.189 -0.1269 -2.0829 -1.2215
20956SOL    HW267426   9.853  10.900   2.244 -0.0583 -2.2535 -1.0365
20957SOL     OW67427  11.158   4.245   5.125 -0.3657 -0.6501  0.3725
20957SOL    HW167428  11.177   4.161   5.166 -0.9183 -0.5128  0.9278
20957SOL    HW267429  11.242   4.291   5.124  0.0686 -1.4143 -0.4556
20958SOL     OW67430   3.160   8.209   5.675  0.2999  0.1170 -0.1973
20958SOL    HW167431   3.227   8.255   5.625  0.6113  0.6942  0.7154
20958SOL    HW267432   3.205   8.131   5.709  0.2450  0.0162 -0.3542
20959SOL     OW67433   7.903  10.085   4.808  0.4271  0.3536 -0.1049
20959SOL    HW167434   7.981  10.112   4.761  0.3419  0.3845 -0.2283
20959SOL    HW267435   7.917  10.118   4.897  0.2296  0.9997 -0.3024
20960SOL     OW67436   5.077   6.488   5.509 -0.3716 -0.2310  0.2464
20960SOL    HW167437   5.157   6.511   5.461 -0.4050  2.2829  1.2310
20960SOL    HW267438   5.008   6.540   5.466 -0.6749  0.8698  1.9786
20961SOL     OW67439   3.948   6.989   6.674 -0.0176 -0.1883  0.3029
20961SOL    HW167440   4.042   6.996   6.692 -0.0843 -0.9109  1.0037
20961SOL    HW267441   3.914   7.075   6.695  0.9139  1.1137 -2.9461
20962SOL     OW67442   6.519   9.581   9.288 -0.7812 -0.2689  0.4226
20962SOL    HW167443   6.609   9.579   9.255 -0.5673 -1.6716  1.0330
20962SOL    HW267444   6.527   9.614   9.378 -0.8991 -0.2103  0.4117
20963SOL     OW67445   7.409   5.342   7.809 -0.5910  0.4387 -0.1342
20963SOL    HW167446   7.381   5.250   7.813  1.0680 -0.1000 -0.2229
20963SOL    HW267447   7.504   5.338   7.807 -0.4949  2.1739 -0.4185
20964SOL     OW67448   7.378   1.152   8.269 -0.2905  0.6882 -0.4094
20964SOL    HW167449   7.436   1.084   8.234 -0.3785 -0.3554  1.3642
20964SOL    HW267450   7.437   1.222   8.297 -0.1537  1.0710 -1.5624
20965SOL     OW67451   7.026   9.075  10.148  0.0494 -0.0134 -0.1631
20965SOL    HW167452   7.116   9.088  10.118 -0.4848 -1.7569 -2.8822
20965SOL    HW267453   7.015   9.138  10.220  3.1456  0.8001 -0.2650
20966SOL     OW67454   4.746   6.508   2.547  0.4374 -0.3288 -0.4812
20966SOL    HW167455   4.775   6.440   2.486 -1.3002 -2.1710  0.6252
20966SOL    HW267456   4.656   6.483   2.570  0.6476  0.8716  1.9826
20967SOL     OW67457  11.247   3.174   4.756 -0.1059 -0.0853 -0.2941
20967SOL    HW167458  11.287   3.090   4.778 -0.9691 -0.3210  0.4341
20967SOL    HW267459  11.155   3.153   4.739 -0.5830  0.8581  0.9865
20968SOL     OW67460   6.349  11.189   5.853  0.2787 -0.2571  0.5458
20968SOL    HW167461   6.326  11.105   5.816 -0.7772 -0.0926  0.8142
20968SOL    HW267462   6.417  11.223   5.794  1.4594 -1.7107  0.9953
20969SOL     OW67463   0.112   2.539   2.975  0.2683 -0.1271  0.5685
20969SOL    HW167464   0.088   2.563   3.064  0.0193 -0.0181  0.4756
20969SOL    HW267465   0.055   2.593   2.920  0.7393  0.1404  0.3380
20970SOL     OW67466   2.537   8.694   4.592 -0.3940 -0.3287 -0.0554
20970SOL    HW167467   2.533   8.699   4.687  0.7531 -1.1337  0.0482
20970SOL    HW267468   2.490   8.772   4.562 -0.4600  0.1193  1.1697
20971SOL     OW67469  10.335   0.962  11.944  0.0112  0.0820 -0.6167
20971SOL    HW167470  10.407   0.901  11.928 -1.1716 -1.2084 -1.2277
20971SOL    HW267471  10.349   1.033  11.882  1.1158  0.2046 -0.2534
20972SOL     OW67472   0.915  10.950   7.686 -0.0238 -0.5972 -0.6345
20972SOL    HW167473   0.919  10.891   7.610 -2.8188  1.3798 -2.5290
20972SOL    HW267474   0.977  11.020   7.666  0.6485 -1.0325 -0.1202
20973SOL     OW67475   3.651   4.912   9.378  0.3893  0.0053  0.0650
20973SOL    HW167476   3.627   5.000   9.348  0.2423  0.0863  0.4172
20973SOL    HW267477   3.737   4.897   9.340 -0.0437 -0.1303 -0.8926
20974SOL     OW67478   0.874   2.242   7.011  0.2427 -0.1963 -0.0204
20974SOL    HW167479   0.851   2.303   7.081 -0.3550  0.3333 -0.6697
20974SOL    HW267480   0.807   2.256   6.944  1.0141 -0.4268 -0.8560
20975SOL     OW67481   8.882   2.523   5.991  0.4618  0.9685 -0.1176
20975SOL    HW167482   8.933   2.443   5.984 -1.4409 -0.2844 -0.2287
20975SOL    HW267483   8.834   2.528   5.908 -2.6422 -0.1115  1.4743
20976SOL     OW67484   0.300   2.094   9.009 -0.0372  0.0548 -0.3251
20976SOL    HW167485   0.205   2.088   9.014 -0.0543  0.6991  0.4173
20976SOL    HW267486   0.317   2.187   8.991  0.4712  0.1146  0.4135
20977SOL     OW67487   3.909   6.342   5.900 -0.4972  0.0296  0.2824
20977SOL    HW167488   3.924   6.316   5.809 -0.3847  0.4345  0.1830
20977SOL    HW267489   3.814   6.342   5.910 -0.5420  0.7864 -0.0787
20978SOL     OW67490   6.807   4.427   6.694 -0.0615 -0.2820  0.4178
20978SOL    HW167491   6.740   4.375   6.649 -0.3175  1.2908 -1.1479
20978SOL    HW267492   6.757   4.479   6.757 -0.3764  0.7858 -0.6515
20979SOL     OW67493   7.117   9.588   1.796 -0.0940  0.2073 -0.4755
20979SOL    HW167494   7.036   9.634   1.773 -0.2018  0.3701  0.1950
20979SOL    HW267495   7.090   9.524   1.862  0.6873  1.9135  1.6243
20980SOL     OW67496   1.015   6.942  10.448 -0.2539 -0.4079 -0.8307
20980SOL    HW167497   1.081   6.923  10.514 -1.5972 -2.7447 -0.0707
20980SOL    HW267498   1.063   6.990  10.380  2.3879 -2.5470 -0.6258
20981SOL     OW67499  10.413   4.606   3.442  0.0113  0.1534  0.2235
20981SOL    HW167500  10.408   4.702   3.447  0.2410  0.0923  2.1202
20981SOL    HW267501  10.329   4.576   3.477 -0.9270 -0.3651 -2.2542
20982SOL     OW67502   7.575   1.900   9.031 -0.3670 -0.5644 -0.1330
20982SOL    HW167503   7.596   1.986   9.069 -0.4539 -0.4696 -0.3000
20982SOL    HW267504   7.544   1.919   8.943  0.3173 -0.8299 -0.4348
20983SOL     OW67505  11.020   1.806  11.631 -0.9645  0.5708 -0.3455
20983SOL    HW167506  10.984   1.875  11.576 -0.5724  0.5247 -0.6649
20983SOL    HW267507  10.976   1.817  11.715 -2.0043  0.2853 -0.8299
20984SOL     OW67508   0.037  12.008   2.595 -0.5665  0.3064 -0.2349
20984SOL    HW167509   0.118  12.052   2.571 -1.7799  1.9844 -1.5230
20984SOL    HW267510   0.060  11.915   2.600  1.5682  0.8100  0.2226
20985SOL     OW67511   5.982   4.214   8.972 -0.2577 -0.4034  0.4763
20985SOL    HW167512   6.064   4.211   8.922 -0.4280 -0.9885  0.2246
20985SOL    HW267513   6.008   4.248   9.058 -0.0031  0.8194 -0.0687
20986SOL     OW67514   8.926   5.718   7.217 -0.3019 -0.6023  0.1239
20986SOL    HW167515   8.950   5.697   7.127  0.9990 -0.8972  0.5246
20986SOL    HW267516   8.840   5.760   7.210  0.3395  0.5334 -1.3730
20987SOL     OW67517   8.388   0.290   6.599  0.6116  0.9848  0.2422
20987SOL    HW167518   8.376   0.356   6.530 -1.4970  0.0902 -0.3373
20987SOL    HW267519   8.462   0.236   6.568 -0.4855  0.4076 -1.5431
20988SOL     OW67520   8.276  11.848   5.334  0.2067 -0.3795  0.4834
20988SOL    HW167521   8.263  11.941   5.314 -1.8799 -0.9183 -1.0106
20988SOL    HW267522   8.366  11.843   5.367  0.2816  2.1952  0.9016
20989SOL     OW67523   1.686   2.325   7.204 -0.0315 -0.0986  0.6874
20989SOL    HW167524   1.652   2.394   7.147 -1.3281 -2.4552 -1.6003
20989SOL    HW267525   1.609   2.293   7.251  0.2511 -0.9744  0.5682
20990SOL     OW67526  11.513   1.157   3.657 -0.1468  0.3432 -0.0098
20990SOL    HW167527  11.442   1.215   3.685  1.5806  3.4654 -1.5344
20990SOL    HW267528  11.586   1.179   3.715  0.8774  0.5439 -1.3163
20991SOL     OW67529   4.978   0.220   3.834  0.1664  0.1437  0.2722
20991SOL    HW167530   5.035   0.147   3.859 -1.2323 -1.5941 -1.2727
20991SOL    HW267531   4.890   0.190   3.856 -0.5035  1.0634 -1.0052
20992SOL     OW67532   2.062   4.418   5.015  0.4881 -0.0925  0.4462
20992SOL    HW167533   2.044   4.398   5.107  0.3019  1.7152  0.8333
20992SOL    HW267534   1.979   4.452   4.981  0.8083  0.1058 -0.1531
20993SOL     OW67535   4.906   3.285   9.337 -0.3613  0.4588  0.2634
20993SOL    HW167536   4.977   3.344   9.361  0.8684 -0.3120 -1.3045
20993SOL    HW267537   4.909   3.215   9.403  1.8172 -0.7085 -0.9644
20994SOL     OW67538   5.563   8.544   4.081 -0.5738 -0.3864  0.8262
20994SOL    HW167539   5.573   8.459   4.123  1.0515 -1.3572 -1.3525
20994SOL    HW267540   5.642   8.593   4.106 -0.3818 -0.3807  0.2185
20995SOL     OW67541  10.652   9.294   5.737 -0.8337 -0.7855  0.1858
20995SOL    HW167542  10.638   9.316   5.829  0.2728 -1.9780  0.6757
20995SOL    HW267543  10.722   9.353   5.709 -0.1597 -1.3810  0.5554
20996SOL     OW67544  10.949  11.593   2.666 -0.9045 -0.2327  0.6150
20996SOL    HW167545  11.025  11.621   2.718 -0.6998 -1.9291  1.3101
20996SOL    HW267546  10.897  11.672   2.654  1.3174  1.1612 -0.5048
20997SOL     OW67547  11.878   9.373   9.692 -0.2214 -0.4644 -0.3939
20997SOL    HW167548  11.783   9.369   9.706 -0.2482  0.3215 -0.3492
20997SOL    HW267549  11.908   9.284   9.713 -0.8971 -0.6240 -0.0651
20998SOL     OW67550  10.962   1.128   6.326 -0.3977  0.1661 -0.3225
20998SOL    HW167551  10.961   1.223   6.335  0.4326  0.3379 -1.6349
20998SOL    HW267552  10.880   1.099   6.364 -0.2776  1.3273  0.8830
20999SOL     OW67553   5.168   2.043   1.122 -0.1465  0.0887 -0.6527
20999SOL    HW167554   5.215   2.126   1.122 -0.7039  0.4919  1.6813
20999SOL    HW267555   5.179   2.009   1.034  2.2333  1.4194 -0.9527
21000SOL     OW67556   8.877   4.578  11.329 -0.1209  0.1392 -0.3584
21000SOL    HW167557   8.834   4.557  11.412  2.9606  0.4376  1.4640
21000SOL    HW267558   8.861   4.501  11.274 -1.3811 -0.5119  0.8509
21001SOL     OW67559   6.402   7.553   3.767  0.0659 -0.7964 -0.2185
21001SOL    HW167560   6.346   7.476   3.781 -1.2229  0.3511  1.3406
21001SOL    HW267561   6.400   7.567   3.673  1.3713 -3.3677 -0.7409
21002SOL     OW67562   4.226   8.828   4.416  0.2510  0.0031  0.2154
21002SOL    HW167563   4.133   8.824   4.438  0.1297 -1.5707 -0.4404
21002SOL    HW267564   4.241   8.752   4.359  2.1254 -0.3046  1.0270
21003SOL     OW67565   5.169   9.584   4.458  0.0321  0.1585 -0.0675
21003SOL    HW167566   5.090   9.543   4.420  0.1778 -1.1273  0.9624
21003SOL    HW267567   5.238   9.519   4.446  0.4035  0.3224  1.1291
21004SOL     OW67568   8.963   6.393   4.501  0.2308 -0.2005 -0.4372
21004SOL    HW167569   8.929   6.431   4.420 -0.3940  0.5812  0.1674
21004SOL    HW267570   8.890   6.401   4.563  0.7528 -0.6324  0.2459
21005SOL     OW67571  10.828   0.596  10.735  0.0907 -0.3573  0.1024
21005SOL    HW167572  10.837   0.686  10.765 -0.3659  0.3005 -1.6112
21005SOL    HW267573  10.888   0.590  10.661 -1.4678 -0.7840 -1.1683
21006SOL     OW67574   5.177   7.510   2.853 -0.3943  0.5991 -0.1319
21006SOL    HW167575   5.114   7.483   2.786  0.1023 -1.9976  0.3493
21006SOL    HW267576   5.259   7.521   2.805 -0.5219  0.9195 -0.2789
21007SOL     OW67577   5.184   7.760   1.415  0.0262 -0.0906 -0.5551
21007SOL    HW167578   5.201   7.854   1.406 -3.2532  0.7274  0.4759
21007SOL    HW267579   5.178   7.729   1.325  0.3513  0.8600 -0.9201
21008SOL     OW67580  10.324  10.474   1.944 -0.8740 -0.1425  0.0178
21008SOL    HW167581  10.358  10.452   1.857  3.0502  0.8242  1.0981
21008SOL    HW267582  10.294  10.391   1.980  0.3530 -1.1235 -1.1314
21009SOL     OW67583   5.974   9.414   3.399  0.5709  0.3314 -0.4603
21009SOL    HW167584   6.026   9.453   3.329  2.7478 -0.6572  0.5335
21009SOL    HW267585   6.033   9.409   3.474 -0.6715 -1.6078  0.4801
21010SOL     OW67586   9.237   7.598   2.125  0.2500 -0.5670 -0.1256
21010SOL    HW167587   9.167   7.545   2.163  1.0136 -1.5857 -0.0993
21010SOL    HW267588   9.209   7.689   2.140 -0.2636 -0.9383  1.3864
21011SOL     OW67589   1.699   5.870   6.921  0.0310 -0.4627 -0.3066
21011SOL    HW167590   1.763   5.941   6.924 -0.9133  0.3906  1.4159
21011SOL    HW267591   1.636   5.896   6.855  0.9350 -0.8801 -1.3703
21012SOL     OW67592   6.100  10.160  11.594  0.0602  0.0157 -0.0691
21012SOL    HW167593   6.069  10.126  11.509  1.9224 -1.6842 -0.1255
21012SOL    HW267594   6.040  10.122  11.658 -0.7280  0.4759 -0.5100
21013SOL     OW67595   9.743   9.287   3.736 -1.0626  0.4952 -0.3052
21013SOL    HW167596   9.700   9.359   3.782  0.2874  1.1340 -0.0055
21013SOL    HW267597   9.726   9.210   3.789 -0.2934  1.0678  0.7998
21014SOL     OW67598   2.670   7.975   4.486 -0.0531 -0.0675 -0.2434
21014SOL    HW167599   2.745   8.033   4.499 -0.9280  0.8289  1.0617
21014SOL    HW267600   2.622   8.013   4.412  0.7467 -0.6398 -1.0768
21015SOL     OW67601  11.557  10.109   8.625 -0.0352 -0.2461 -0.4865
21015SOL    HW167602  11.505  10.077   8.698  0.5451 -0.4858 -0.1686
21015SOL    HW267603  11.517  10.070   8.547 -0.1327 -0.6930 -0.2153
21016SOL     OW67604   3.611   9.862   7.532 -0.1211  0.0402  0.5145
21016SOL    HW167605   3.516   9.858   7.542 -0.1532 -1.0672  0.0207
21016SOL    HW267606   3.644   9.873   7.621 -0.6866 -0.5820  0.8136
21017SOL     OW67607   2.013   2.834   0.030 -0.2051  0.3436 -0.0354
21017SOL    HW167608   2.046   2.773   0.096  1.5346  1.2816  0.0172
21017SOL    HW267609   2.091   2.881  -0.000 -1.4084  2.1650 -0.4586
21018SOL     OW67610   2.644  11.974  11.281 -0.1485  0.3474 -0.4731
21018SOL    HW167611   2.662  12.065  11.261  1.7711  0.2142  0.3957
21018SOL    HW267612   2.728  11.939  11.312 -1.1128 -1.4019  0.3365
21019SOL     OW67613   4.038   1.312   0.340 -0.3954 -0.1210  0.3298
21019SOL    HW167614   4.046   1.224   0.376  0.0955 -0.2543 -0.0966
21019SOL    HW267615   4.110   1.319   0.277 -0.3982  0.6004  0.4004
21020SOL     OW67616   8.660  11.072   5.943 -0.6001  0.6122 -0.0242
21020SOL    HW167617   8.622  11.159   5.954 -0.5455  0.6607 -0.2060
21020SOL    HW267618   8.621  11.039   5.862 -1.9521 -0.2464  0.9367
21021SOL     OW67619   1.109  10.239  11.856  0.2433 -0.4057  0.4229
21021SOL    HW167620   1.139  10.192  11.934 -0.1581 -1.8123 -0.2384
21021SOL    HW267621   1.189  10.264  11.811  0.4705  0.0814  1.0724
21022SOL     OW67622   9.710   9.742   2.510  0.1121  0.2566  0.2549
21022SOL    HW167623   9.627   9.718   2.470 -0.7460  1.9336  0.9647
21022SOL    HW267624   9.764   9.773   2.437  0.4907 -1.6316 -0.3433
21023SOL     OW67625   1.355  11.102  11.380 -0.1230 -0.2626  0.4903
21023SOL    HW167626   1.290  11.091  11.310  1.3619  0.7091 -1.1087
21023SOL    HW267627   1.394  11.188  11.363  0.0242  0.1886  2.7730
21024SOL     OW67628   3.619   7.101   2.487  0.0485 -0.3552  0.1475
21024SOL    HW167629   3.605   7.194   2.507 -0.2353 -0.9342  3.1062
21024SOL    HW267630   3.703   7.080   2.528 -0.3593 -1.6096  0.3751
21025SOL     OW67631   1.246   8.525   2.218  0.3607  0.1604  0.7349
21025SOL    HW167632   1.231   8.604   2.166 -0.2029 -0.2092  0.3108
21025SOL    HW267633   1.277   8.460   2.155 -0.3316 -0.2953  0.8468
21026SOL     OW67634  11.185   8.666   4.790 -0.0280  0.9125 -0.0488
21026SOL    HW167635  11.110   8.615   4.760  1.5469 -0.4357 -1.9503
21026SOL    HW267636  11.187   8.653   4.885 -0.8931 -0.8483 -0.2435
21027SOL     OW67637   1.380   9.257   8.580  0.4221  0.0138 -0.1482
21027SOL    HW167638   1.317   9.323   8.553 -3.7473 -2.6081  2.0113
21027SOL    HW267639   1.372   9.188   8.514  2.0216  0.1385 -0.4966
21028SOL     OW67640   4.260  11.144  11.477  0.2797  0.0520  0.0926
21028SOL    HW167641   4.308  11.076  11.431  0.5552  0.3038  0.0008
21028SOL    HW267642   4.272  11.124  11.570 -0.4381 -0.5666  0.0611
21029SOL     OW67643  10.102   8.695   7.437 -0.3117  0.1689 -0.1317
21029SOL    HW167644  10.118   8.777   7.484 -0.2385 -0.3505  0.7679
21029SOL    HW267645  10.167   8.694   7.367  2.3911 -0.9559  2.2003
21030SOL     OW67646   8.089   4.734   7.574 -0.2975  0.5217  0.1528
21030SOL    HW167647   8.053   4.808   7.622 -1.0165  0.0137  0.4071
21030SOL    HW267648   8.182   4.731   7.600 -0.3321  1.1594  0.3486
21031SOL     OW67649   1.611   0.397   7.924 -0.6481  0.3960  0.1395
21031SOL    HW167650   1.618   0.347   8.005  0.0400  0.4252  0.1046
21031SOL    HW267651   1.676   0.357   7.866  0.4050  1.7380  0.3301
21032SOL     OW67652   9.873   3.173   0.177 -0.4972  0.2773 -0.2421
21032SOL    HW167653   9.868   3.144   0.268 -1.7379 -0.2495 -0.4475
21032SOL    HW267654   9.942   3.240   0.176 -0.3042  0.1236  1.0245
21033SOL     OW67655  10.705   9.966   1.423  0.2239  0.2261  0.4849
21033SOL    HW167656  10.771  10.014   1.473  0.4973  0.8003 -0.4123
21033SOL    HW267657  10.686  10.022   1.347  0.2847 -0.9048 -0.3913
21034SOL     OW67658   9.954  12.004   2.455 -1.1870  0.5475 -0.2355
21034SOL    HW167659   9.925  12.096   2.455  0.4712  1.0969 -0.7819
21034SOL    HW267660   9.930  11.972   2.542  0.3151  2.2133  0.8671
21035SOL     OW67661  10.681   8.900  11.847  0.2133  0.2503  0.0431
21035SOL    HW167662  10.698   8.883  11.939  1.9648  0.0303 -0.2783
21035SOL    HW267663  10.587   8.888  11.836  0.3462 -2.3972  1.2443
21036SOL     OW67664   6.497   6.073   3.937 -1.0824  0.4820 -0.0900
21036SOL    HW167665   6.486   6.158   3.979  0.3242  1.0095 -0.7447
21036SOL    HW267666   6.543   6.092   3.855 -1.0679 -0.8733 -0.4242
21037SOL     OW67667   5.911   5.107   5.030  0.5655  0.3298 -0.2941
21037SOL    HW167668   5.863   5.042   5.081 -0.1538 -0.9961 -2.5285
21037SOL    HW267669   6.003   5.087   5.045  0.3874  0.4277  1.0056
21038SOL     OW67670   0.889   8.216   6.382  0.3223 -0.4624  0.0878
21038SOL    HW167671   0.926   8.146   6.328  0.0301  0.4228 -1.3439
21038SOL    HW267672   0.846   8.274   6.318  0.3523  0.8822  1.2425
21039SOL     OW67673   8.200   1.473   8.375 -0.2678  0.2037  0.6083
21039SOL    HW167674   8.161   1.420   8.444  0.5510 -0.6822  0.4107
21039SOL    HW267675   8.149   1.554   8.375 -1.0635 -0.2804  1.4171
21040SOL     OW67676  10.091   8.663  11.069 -0.1253  0.1380 -0.6044
21040SOL    HW167677  10.095   8.581  11.021 -2.0575  0.0407 -0.6740
21040SOL    HW267678  10.144   8.724  11.018 -0.8351 -0.3836 -2.0037
21041SOL     OW67679   5.203   1.648   9.259 -0.3044  0.2387 -0.2332
21041SOL    HW167680   5.187   1.573   9.202  0.6488  0.4604 -0.8308
21041SOL    HW267681   5.216   1.610   9.346  0.9874 -0.4020 -0.6732
21042SOL     OW67682   2.059   6.082   9.270 -0.1591  0.6634  0.0498
21042SOL    HW167683   1.998   6.052   9.338  0.1494 -0.5194 -0.1644
21042SOL    HW267684   2.034   6.032   9.192  1.3269 -0.1907  0.0683
21043SOL     OW67685  12.071   5.586  11.468  0.5269 -0.4562  0.3575
21043SOL    HW167686  12.131   5.531  11.520  0.8857 -1.9930 -1.5679
21043SOL    HW267687  11.986   5.544  11.477  0.5019 -0.4685  0.0721
21044SOL     OW67688   5.044  11.055   5.503 -0.0759  0.3767 -0.0174
21044SOL    HW167689   5.029  10.971   5.461  0.4118 -0.2724  1.0699
21044SOL    HW267690   4.963  11.072   5.553 -0.1716  0.5609 -0.2300
21045SOL     OW67691  11.696   8.689   9.003 -0.4204  0.4575 -0.2593
21045SOL    HW167692  11.782   8.729   8.990 -0.4752  0.8057  0.4253
21045SOL    HW267693  11.714   8.595   9.007 -0.0332  0.5494  0.1893
21046SOL     OW67694   2.155   4.109  11.987 -0.5770  0.2369 -0.0742
21046SOL    HW167695   2.214   4.065  11.926 -0.1833 -1.3185  1.3555
21046SOL    HW267696   2.165   4.202  11.967 -0.0017 -0.1806 -1.9326
21047SOL     OW67697   1.200   3.107   1.870  0.3333  0.2445  0.4128
21047SOL    HW167698   1.172   3.150   1.790 -0.2541  0.8220  0.9115
21047SOL    HW267699   1.157   3.021   1.867 -0.3466  0.5735  0.4852
21048SOL     OW67700   0.762   3.619   0.469 -0.2799 -0.5803  1.0897
21048SOL    HW167701   0.821   3.668   0.527 -0.4668 -0.3484  1.0858
21048SOL    HW267702   0.812   3.604   0.389 -0.5041  0.3290  0.7695
21049SOL     OW67703  10.765   0.172  10.797  0.3976  0.6423  0.1161
21049SOL    HW167704  10.844   0.175  10.743  0.2687 -1.1796 -0.2476
21049SOL    HW267705  10.786   0.111  10.867 -1.7530 -2.9007 -1.9971
21050SOL     OW67706  10.612   9.778   9.780 -0.0459  0.4464 -0.2415
21050SOL    HW167707  10.571   9.830   9.711  0.2430  1.2913  0.2012
21050SOL    HW267708  10.636   9.842   9.847  1.3905 -0.1076 -0.1864
21051SOL     OW67709   7.191   5.109   4.955  0.1966  0.6029  0.0730
21051SOL    HW167710   7.144   5.137   5.034  0.0446  2.0680 -0.5119
21051SOL    HW267711   7.227   5.023   4.978 -2.0222 -0.2002  0.8512
21052SOL     OW67712   2.011   0.601   5.376  0.0300  0.5298 -0.1983
21052SOL    HW167713   2.098   0.587   5.415 -0.1514  1.8045  0.7293
21052SOL    HW267714   1.976   0.513   5.364  1.7957 -0.0586 -1.4542
21053SOL     OW67715  10.686   2.793   6.062 -0.1543 -0.2845 -0.1805
21053SOL    HW167716  10.735   2.750   5.992  1.1608  1.1647 -0.2064
21053SOL    HW267717  10.596   2.762   6.050  0.3147 -1.2209 -1.5840
21054SOL     OW67718   8.979  10.783  11.257 -0.3196 -0.3375 -0.2807
21054SOL    HW167719   8.979  10.710  11.194  0.9357 -0.5933  0.0035
21054SOL    HW267720   9.059  10.832  11.238 -1.7195  1.7167 -1.2734
21055SOL     OW67721   4.099   6.909   6.430  0.0573 -0.1045  0.5974
21055SOL    HW167722   4.014   6.879   6.460  0.8418 -0.8733  2.1496
21055SOL    HW267723   4.131   6.966   6.500  1.5266 -1.1688  0.8389
21056SOL     OW67724   8.509  10.728   4.487  0.1481 -0.1048  0.4632
21056SOL    HW167725   8.445  10.672   4.443 -0.5374  1.1714 -0.2223
21056SOL    HW267726   8.472  10.744   4.573  0.3939 -0.7698  0.6971
21057SOL     OW67727   3.726   0.992   7.707 -0.1413  0.1230  0.5706
21057SOL    HW167728   3.722   0.902   7.740  0.3856  0.5565  1.9158
21057SOL    HW267729   3.641   1.030   7.729 -0.1984  0.0857  0.4139
21058SOL     OW67730   8.146   3.049   1.481 -0.3960 -0.0773 -0.0916
21058SOL    HW167731   8.072   3.009   1.527  0.3234 -0.7821  0.4927
21058SOL    HW267732   8.163   3.130   1.528 -3.5515  2.5010 -2.8408
21059SOL     OW67733  11.235   7.800   6.552  0.1508  0.3596  0.7622
21059SOL    HW167734  11.176   7.747   6.499  2.1165 -1.3179  0.0876
21059SOL    HW267735  11.182   7.830   6.626 -2.1969  1.2409 -1.1503
21060SOL     OW67736  11.148   0.880   1.448  0.0119 -0.1326 -0.1475
21060SOL    HW167737  11.215   0.876   1.516 -0.0334 -1.7547 -0.1438
21060SOL    HW267738  11.172   0.810   1.387  0.0668  1.2966 -1.8505
21061SOL     OW67739   2.042   7.918   4.276  0.2301  0.8774 -0.6170
21061SOL    HW167740   1.958   7.926   4.321  0.6894 -1.4723  0.8224
21061SOL    HW267741   2.065   7.826   4.284  2.0746  1.0807 -2.6437
21062SOL     OW67742   5.042  10.890   2.861  0.4893 -0.0937 -0.1662
21062SOL    HW167743   5.104  10.963   2.864 -0.9236  1.1217  1.9036
21062SOL    HW267744   4.956  10.932   2.854 -0.3730 -1.5237  1.2228
21063SOL     OW67745   5.398   0.765   8.978  0.2930  0.2184 -0.7794
21063SOL    HW167746   5.341   0.840   8.995  1.8410  1.6092 -1.4668
21063SOL    HW267747   5.383   0.706   9.052  0.4784  2.1231  0.8424
21064SOL     OW67748   2.774   1.880   6.499  0.0011 -0.3031  0.1275
21064SOL    HW167749   2.702   1.926   6.543 -1.6567 -2.8058  0.2475
21064SOL    HW267750   2.849   1.939   6.507 -1.1555  0.9622  3.0448
21065SOL     OW67751   8.711  11.482   8.400  0.3035  0.3420  0.6391
21065SOL    HW167752   8.652  11.513   8.331  2.0014  0.0172 -1.0341
21065SOL    HW267753   8.779  11.549   8.406  1.3122 -0.6346  0.4992
21066SOL     OW67754   6.412   5.813   1.843 -0.2432  0.2215  0.1738
21066SOL    HW167755   6.428   5.899   1.882 -0.5753 -0.5637  2.2256
21066SOL    HW267756   6.477   5.756   1.884  0.9142 -0.2984 -2.2197
21067SOL     OW67757   5.967   0.055   2.111 -0.6260 -1.3005  0.3355
21067SOL    HW167758   5.962   0.134   2.164  3.5993 -0.8192  0.2932
21067SOL    HW267759   6.024  -0.004   2.161 -0.2351 -2.6274 -1.5725
21068SOL     OW67760   0.987   9.488   7.890 -0.7130 -0.1469  0.3414
21068SOL    HW167761   1.049   9.446   7.948 -0.1397 -0.5339 -0.5331
21068SOL    HW267762   0.993   9.439   7.808 -0.4231  1.2793 -0.5226
21069SOL     OW67763   3.649  11.835   2.885 -0.2686  0.4274  0.2058
21069SOL    HW167764   3.615  11.780   2.956  1.8126 -0.5005  0.5817
21069SOL    HW267765   3.669  11.773   2.814  1.7274  0.6723  0.4838
21070SOL     OW67766   8.863   3.397   3.060  0.7412  0.1277  0.3156
21070SOL    HW167767   8.839   3.348   2.982  0.9513 -0.6698  0.7442
21070SOL    HW267768   8.949   3.362   3.084  0.2648 -0.2954  1.4392
21071SOL     OW67769   1.945   5.344   4.689 -0.5959  0.2616  0.0360
21071SOL    HW167770   1.969   5.276   4.626  0.3760 -0.1201  0.7795
21071SOL    HW267771   2.002   5.417   4.668  0.5753 -0.2829  1.1703
21072SOL     OW67772   2.103   8.633  11.636 -0.3950 -0.4229 -0.6090
21072SOL    HW167773   2.118   8.539  11.645 -1.6139 -0.5805 -0.0033
21072SOL    HW267774   2.037   8.653  11.702  1.6522  1.3412  1.0579
21073SOL     OW67775   7.281   4.644   3.863  0.5356 -0.6335  0.4631
21073SOL    HW167776   7.293   4.580   3.793 -1.0447  0.0589 -0.4986
21073SOL    HW267777   7.214   4.606   3.920 -1.7939  0.8766 -1.1274
21074SOL     OW67778   4.037   7.235   2.681  0.0121  0.2155 -0.3219
21074SOL    HW167779   4.024   7.257   2.773  1.5293 -0.8269  0.1666
21074SOL    HW267780   3.961   7.181   2.658 -0.0933  0.0281  0.4643
21075SOL     OW67781   3.270   3.070   4.199  0.4922 -0.4641  0.5040
21075SOL    HW167782   3.248   3.080   4.291  3.2940  0.2346  1.1956
21075SOL    HW267783   3.324   2.991   4.196  0.5244 -0.4189 -0.5388
21076SOL     OW67784   3.886   4.379   5.532  0.0042 -0.6748 -0.0031
21076SOL    HW167785   3.852   4.377   5.621  0.6507  3.5728  0.5763
21076SOL    HW267786   3.946   4.305   5.526 -0.5975 -1.4819  2.8150
21077SOL     OW67787   1.283   1.010   9.216 -0.7774 -0.0802 -0.4999
21077SOL    HW167788   1.215   1.044   9.158  0.0572 -0.9540 -2.0416
21077SOL    HW267789   1.362   1.058   9.190 -0.0625 -1.5873 -1.1781
21078SOL     OW67790   6.579   4.297   4.302 -0.0964 -0.2013  0.1748
21078SOL    HW167791   6.526   4.375   4.315 -2.1580 -1.5977  0.5840
21078SOL    HW267792   6.520   4.224   4.321  1.7554 -1.8744 -0.1568
21079SOL     OW67793   9.120   4.147   9.994  0.0586  0.1268 -0.2235
21079SOL    HW167794   9.191   4.129   9.933  1.3533 -1.5042  1.6334
21079SOL    HW267795   9.069   4.065   9.996 -0.8815  0.6982 -0.2579
21080SOL     OW67796   4.855   9.135   8.957 -0.7430  0.0987  0.3214
21080SOL    HW167797   4.819   9.128   9.045 -1.5591 -1.5754 -0.1082
21080SOL    HW267798   4.899   9.052   8.942  0.2539  0.7414 -0.5037
21081SOL     OW67799   1.241   7.198   1.067  0.4952  0.0099 -0.3550
21081SOL    HW167800   1.308   7.161   1.009  0.6950 -0.6834  0.3164
21081SOL    HW267801   1.197   7.265   1.013  3.0073  1.9066 -0.2206
21082SOL     OW67802   2.922   7.409   9.395  0.3780  0.2572 -0.1014
21082SOL    HW167803   2.841   7.361   9.377  0.4124  0.4420 -0.7641
21082SOL    HW267804   2.918   7.428   9.489  0.9198 -2.0763  0.4521
21083SOL     OW67805   8.613   8.452   7.505 -0.7784 -0.3540  0.0398
21083SOL    HW167806   8.527   8.426   7.471 -0.6462 -1.3998  0.4571
21083SOL    HW267807   8.656   8.369   7.526 -0.6530  0.1975  2.2302
21084SOL     OW67808   7.619   5.100   5.441  0.2153  0.5393 -0.4334
21084SOL    HW167809   7.709   5.126   5.422  0.6692 -0.4985  0.2209
21084SOL    HW267810   7.605   5.125   5.532  0.4791 -0.9707  0.0392
21085SOL     OW67811   5.699   7.672   2.723  0.1896 -0.0251  0.3060
21085SOL    HW167812   5.758   7.742   2.752  0.1093 -0.2093  0.9162
21085SOL    HW267813   5.749   7.592   2.739  1.1524 -0.0519 -2.3503
21086SOL     OW67814  11.200   4.636   1.243 -0.2221 -0.0137  0.2703
21086SOL    HW167815  11.124   4.655   1.188  1.3675  0.9114 -1.7245
21086SOL    HW267816  11.218   4.718   1.289  0.6949  0.3974 -0.7674
21087SOL     OW67817   6.801   1.407   4.732 -0.2089 -0.2375 -0.3580
21087SOL    HW167818   6.801   1.462   4.654  0.9769 -1.8802 -1.5913
21087SOL    HW267819   6.709   1.397   4.754 -0.4600  2.2216 -0.0560
21088SOL     OW67820   6.916   6.252  11.477  0.1641  0.1573  0.0982
21088SOL    HW167821   6.837   6.297  11.508 -0.5894  0.5844 -2.2261
21088SOL    HW267822   6.984   6.319  11.481 -0.5078  1.0161 -1.4324
21089SOL     OW67823   6.188   4.931   9.050 -0.5799  0.4327  0.1740
21089SOL    HW167824   6.253   4.942   8.980 -0.0937  1.0858  0.7069
21089SOL    HW267825   6.105   4.919   9.004 -0.4356  1.8761 -0.5416
21090SOL     OW67826   7.654   3.733  11.177  0.7265  0.0412 -0.1097
21090SOL    HW167827   7.607   3.695  11.252  0.0096 -1.8625 -1.4550
21090SOL    HW267828   7.600   3.808  11.151  0.0635 -0.3016  0.2480
21091SOL     OW67829  10.956   8.178  10.318  0.5132 -0.1607  0.3632
21091SOL    HW167830  10.991   8.265  10.301  0.4505 -0.2258 -0.1152
21091SOL    HW267831  11.019   8.118  10.278  0.0685 -0.2919 -0.1562
21092SOL     OW67832   6.913   6.808   7.804 -0.5958  0.4190 -0.2431
21092SOL    HW167833   6.864   6.794   7.724  0.6838  0.8996 -1.1445
21092SOL    HW267834   7.004   6.816   7.776 -0.2367  1.7091  1.1255
21093SOL     OW67835   1.506  10.616   8.586  0.7871 -0.0109  0.6205
21093SOL    HW167836   1.464  10.602   8.671  0.8514 -0.4307  0.5870
21093SOL    HW267837   1.464  10.694   8.551 -1.9092 -1.8786 -0.6174
21094SOL     OW67838   2.024   2.865   2.161 -0.2480  0.4160 -0.3948
21094SOL    HW167839   2.065   2.779   2.172 -0.3732  0.1915 -1.5640
21094SOL    HW267840   2.082   2.912   2.102 -1.1438  0.4512 -1.2753
21095SOL     OW67841   8.417   3.020  11.024  0.4041 -0.2502 -0.2331
21095SOL    HW167842   8.408   2.926  11.009  0.8523 -0.6032  1.5336
21095SOL    HW267843   8.331   3.047  11.057  1.0662 -0.6337  1.9604
21096SOL     OW67844   9.939   5.283   5.729  0.3488 -0.2533 -0.2223
21096SOL    HW167845   9.946   5.229   5.651 -1.0148  0.3025 -0.7545
21096SOL    HW267846  10.020   5.333   5.731  0.3772 -0.2319 -1.3243
21097SOL     OW67847   7.284   5.815  11.652 -0.6792  0.5736 -0.4606
21097SOL    HW167848   7.236   5.783  11.576 -0.8383 -2.1989  0.7149
21097SOL    HW267849   7.360   5.758  11.659  0.8820  2.5623 -0.1089
21098SOL     OW67850   3.850   0.700   3.999  0.6622 -0.1751 -0.0533
21098SOL    HW167851   3.936   0.679   4.037 -0.0941 -1.7072  0.9287
21098SOL    HW267852   3.810   0.760   4.063  1.1718  0.9495 -0.7625
21099SOL     OW67853   8.325  10.118  11.015 -0.0028 -0.4346  0.1905
21099SOL    HW167854   8.309  10.032  10.977  1.6631 -0.6708 -0.0335
21099SOL    HW267855   8.238  10.160  11.017 -0.7704 -1.9505 -0.0495
21100SOL     OW67856   0.174   7.908   4.207 -0.0834 -0.4761  0.2299
21100SOL    HW167857   0.086   7.941   4.187  0.3270  0.3255 -0.3186
21100SOL    HW267858   0.192   7.844   4.137  0.7168  1.1578 -1.1344
21101SOL     OW67859   2.084  10.746  10.761 -0.1092  0.5384  0.0003
21101SOL    HW167860   2.180  10.745  10.759 -0.0682 -1.7590 -0.7250
21101SOL    HW267861   2.059  10.737  10.669 -0.9162 -1.8185  0.3920
21102SOL     OW67862   3.469   0.738   1.072  0.7115  0.0688 -0.5796
21102SOL    HW167863   3.506   0.651   1.091  0.0627 -0.1219 -0.1537
21102SOL    HW267864   3.413   0.757   1.147 -1.5657 -0.5122 -2.0193
21103SOL     OW67865   1.179   0.401   5.943 -0.0165  0.0261 -0.5303
21103SOL    HW167866   1.157   0.457   6.018  1.7740  2.0174 -1.3877
21103SOL    HW267867   1.108   0.415   5.881 -0.0895  0.5749 -0.3275
21104SOL     OW67868   9.685   5.801   4.000 -0.0820 -0.2248 -0.1311
21104SOL    HW167869   9.661   5.710   3.983  1.2233 -0.4664 -0.7754
21104SOL    HW267870   9.605   5.850   3.980 -0.8839 -1.2341  0.4601
21105SOL     OW67871   6.842  11.184   6.920  0.2824  0.1220 -0.4318
21105SOL    HW167872   6.766  11.241   6.923  0.6685  1.0137 -3.8501
21105SOL    HW267873   6.917  11.243   6.922  0.8071 -0.5372 -0.1860
21106SOL     OW67874   7.962   9.806   0.615  0.3189  0.1218 -0.3821
21106SOL    HW167875   7.890   9.861   0.647  1.4678  1.0413  0.7730
21106SOL    HW267876   8.040   9.859   0.631  1.3419 -1.2752 -0.6198
21107SOL     OW67877   9.955  10.553   8.020 -0.4135 -0.2690 -0.8917
21107SOL    HW167878   9.925  10.643   8.008 -1.1719 -0.6547 -2.0134
21107SOL    HW267879   9.877  10.505   8.049  0.6488 -0.0024  3.0826
21108SOL     OW67880   2.897   4.686   8.580  0.3537  0.2718 -0.1289
21108SOL    HW167881   2.817   4.639   8.601 -0.6288  1.7043 -0.5552
21108SOL    HW267882   2.931   4.643   8.502 -1.1513  0.9762 -1.1989
21109SOL     OW67883   7.370  11.179   5.567 -0.0971  0.2926 -0.3894
21109SOL    HW167884   7.465  11.175   5.580 -0.1338  0.8952  0.0952
21109SOL    HW267885   7.334  11.131   5.642 -0.1829  0.2900 -0.4333
21110SOL     OW67886  10.133   5.505   7.769  0.3534  0.2064  0.7895
21110SOL    HW167887  10.168   5.573   7.827 -1.4398  1.1846  0.7987
21110SOL    HW267888  10.084   5.447   7.827 -0.7851  0.7453  0.4083
21111SOL     OW67889   0.315   2.769   6.402 -0.1363  0.0821  0.4856
21111SOL    HW167890   0.253   2.832   6.364  0.5953  0.7916  0.4499
21111SOL    HW267891   0.363   2.820   6.468  0.5639 -0.4028  0.3561
21112SOL     OW67892  11.151   5.181   2.023 -0.6192 -0.5087  0.2874
21112SOL    HW167893  11.233   5.197   2.070 -0.8283  0.9564  0.2276
21112SOL    HW267894  11.146   5.254   1.961 -1.7062 -0.8756 -0.0653
21113SOL     OW67895   5.273   1.815   2.161 -0.0045  0.2351  0.2122
21113SOL    HW167896   5.345   1.861   2.206 -0.9597  0.7422  1.2661
21113SOL    HW267897   5.199   1.875   2.169 -0.4280 -0.0630 -1.3027
21114SOL     OW67898   3.645   1.873   3.030 -0.1706  0.3709  0.8929
21114SOL    HW167899   3.661   1.924   3.109 -0.5934 -0.1705  1.3455
21114SOL    HW267900   3.550   1.858   3.030 -0.2634  0.8619 -0.0372
21115SOL     OW67901   6.228   3.612   2.500 -0.3423 -0.3249 -0.0834
21115SOL    HW167902   6.238   3.641   2.591  1.1038 -0.9517 -0.0103
21115SOL    HW267903   6.143   3.645   2.473 -0.4434  0.5641  1.2456
21116SOL     OW67904  11.537   4.302  11.354  0.2378 -0.3392  0.1775
21116SOL    HW167905  11.471   4.326  11.289  1.3659 -0.8237 -1.1997
21116SOL    HW267906  11.552   4.383  11.404 -0.2285  0.2078 -0.5512
21117SOL     OW67907  10.639   5.758   0.644 -0.2825 -0.7146 -0.1331
21117SOL    HW167908  10.721   5.734   0.602 -0.5109 -0.6667 -0.6166
21117SOL    HW267909  10.576   5.694   0.611 -0.9860  0.7076 -1.7400
21118SOL     OW67910   4.319  11.885   8.033 -0.2410 -0.3643  0.0009
21118SOL    HW167911   4.225  11.873   8.049 -0.5952  1.4008 -0.5101
21118SOL    HW267912   4.346  11.951   8.097  0.0848  0.9269 -1.4141
21119SOL     OW67913   1.284   5.309   5.629 -0.1994  0.4284 -0.3272
21119SOL    HW167914   1.363   5.338   5.674 -0.9057  0.5514  0.8893
21119SOL    HW267915   1.245   5.390   5.595 -0.5931  0.5713  0.4310
21120SOL     OW67916   9.927   4.917   0.675  0.0816  0.2151  0.1664
21120SOL    HW167917   9.870   4.843   0.693 -1.1672  0.7899 -1.2703
21120SOL    HW267918  10.004   4.902   0.731 -0.2914 -1.9523  0.1819
21121SOL     OW67919   4.768   0.554   1.309  0.6936  0.5043 -0.4637
21121SOL    HW167920   4.744   0.644   1.328 -1.1841 -0.0245 -0.0546
21121SOL    HW267921   4.799   0.555   1.219 -0.2879  1.4039 -0.8026
21122SOL     OW67922   2.767   0.944  10.400 -0.6397 -0.4293  0.6798
21122SOL    HW167923   2.695   0.883  10.416 -0.2867 -1.2486 -0.6425
21122SOL    HW267924   2.845   0.897  10.431 -0.1813 -1.3064 -1.6187
21123SOL     OW67925   1.921   3.111   1.908  0.3104  0.0289 -0.6835
21123SOL    HW167926   1.994   3.170   1.889  0.9964 -0.9781 -1.3020
21123SOL    HW267927   1.857   3.165   1.953  0.5233  1.4815 -2.0289
21124SOL     OW67928   4.285   5.884   6.091 -0.6199 -0.2289  0.5661
21124SOL    HW167929   4.259   5.968   6.051  1.9147  0.0316 -0.7801
21124SOL    HW267930   4.293   5.903   6.184 -1.6238  0.5696  0.5098
21125SOL     OW67931  10.004   9.842  11.172 -0.3470 -0.0445  0.1059
21125SOL    HW167932  10.058   9.819  11.097  0.6174  0.6005  0.5940
21125SOL    HW267933   9.920   9.798  11.155  0.1519 -0.6403 -0.8960
21126SOL     OW67934   4.428   4.081   1.737  0.5877 -0.4595  0.0580
21126SOL    HW167935   4.502   4.044   1.689  1.3937  1.5383 -0.3510
21126SOL    HW267936   4.360   4.094   1.670  0.4386 -0.8568  0.1316
21127SOL     OW67937   9.436   8.314  11.530  0.4442  0.3116  0.1107
21127SOL    HW167938   9.486   8.390  11.560 -0.3569  0.7392  0.3824
21127SOL    HW267939   9.360   8.310  11.588 -0.3672  0.2699 -0.9225
21128SOL     OW67940   8.402  10.562   9.167 -0.3002 -0.3651  0.5179
21128SOL    HW167941   8.352  10.554   9.248  0.4326 -2.0892  0.8273
21128SOL    HW267942   8.476  10.619   9.190 -0.3590 -0.4531  0.9367
21129SOL     OW67943   8.114   2.505   8.636 -0.0672 -0.2481 -0.2854
21129SOL    HW167944   8.109   2.435   8.701 -0.3094 -1.2904 -1.4023
21129SOL    HW267945   8.043   2.565   8.661 -0.6267 -1.0112 -0.0168
21130SOL     OW67946   1.080   1.629   1.379 -0.0386 -0.1844  0.3598
21130SOL    HW167947   0.993   1.611   1.342  0.4123  0.7654 -1.2421
21130SOL    HW267948   1.067   1.621   1.474 -2.0498  0.5893  0.2091
21131SOL     OW67949   4.787  11.807   8.982  0.1454 -0.6719  0.6945
21131SOL    HW167950   4.857  11.796   8.918 -0.5637 -0.2287 -0.1805
21131SOL    HW267951   4.708  11.779   8.936 -0.6838  1.5485  0.6886
21132SOL     OW67952   0.085   0.906   3.481  0.5416 -0.1909 -0.0965
21132SOL    HW167953   0.034   0.986   3.466 -0.9172 -1.1635 -0.5577
21132SOL    HW267954   0.160   0.935   3.532  1.2858  1.8527 -2.1759
21133SOL     OW67955  11.027   7.147   6.424  1.2187  0.5710  0.4114
21133SOL    HW167956  11.068   7.170   6.341  0.1297 -0.1036 -0.3378
21133SOL    HW267957  10.942   7.190   6.421  0.9495  0.0816  0.9352
21134SOL     OW67958   5.113   7.029  11.179 -0.5947  0.3955 -0.5036
21134SOL    HW167959   5.175   7.101  11.166 -2.2457  2.2447  1.0277
21134SOL    HW267960   5.066   7.054  11.259 -0.1367 -3.2739  1.0997
21135SOL     OW67961  10.185   0.148  10.052 -0.0556  0.3308  0.3898
21135SOL    HW167962  10.129   0.215  10.090  0.0758 -0.4237  2.0137
21135SOL    HW267963  10.271   0.189  10.043 -0.2235  0.6876  0.4372
21136SOL     OW67964   4.940   8.367   1.091 -0.3263  0.2084  0.1097
21136SOL    HW167965   4.975   8.437   1.145 -1.3031 -0.6801  1.9729
21136SOL    HW267966   4.845   8.375   1.100 -0.5445  0.2878 -1.8477
21137SOL     OW67967  10.667   7.991   6.718 -0.5911  0.0435  0.3488
21137SOL    HW167968  10.707   7.994   6.630 -2.9605 -0.0395 -0.8032
21137SOL    HW267969  10.594   7.930   6.709 -0.7036 -0.1940  2.4961
21138SOL     OW67970   0.434  11.340   3.785  0.1770  0.6324  0.3604
21138SOL    HW167971   0.352  11.390   3.792 -1.0627 -1.1902 -0.1996
21138SOL    HW267972   0.409  11.250   3.808  1.6977 -0.2596 -1.1824
21139SOL     OW67973   1.180   9.925   6.280 -0.3697  0.0502 -0.3697
21139SOL    HW167974   1.184  10.012   6.322 -0.4706 -0.0996 -0.0462
21139SOL    HW267975   1.186   9.863   6.353 -0.1412 -0.2163 -0.6157
21140SOL     OW67976   8.623   6.205  10.559  0.1545  0.3096 -0.5663
21140SOL    HW167977   8.616   6.148  10.636  0.0595  0.1969 -0.6591
21140SOL    HW267978   8.684   6.160  10.501  0.3780  0.4894 -0.4728
21141SOL     OW67979   0.553   5.397  11.287 -0.0832 -0.3263  0.4076
21141SOL    HW167980   0.617   5.349  11.340  1.2108  0.6554 -0.2021
21141SOL    HW267981   0.505   5.329  11.240  0.2927 -1.1037  1.1184
21142SOL     OW67982  11.615   0.036  10.168  0.2319  0.5284  0.3415
21142SOL    HW167983  11.676  -0.036  10.182 -0.1943  0.4040  1.7819
21142SOL    HW267984  11.529  -0.003  10.182 -0.1220  0.9410 -0.6095
21143SOL     OW67985   6.061   1.207   1.155  0.0891 -0.3917  0.4334
21143SOL    HW167986   6.057   1.251   1.240  0.0242 -1.2363  0.8839
21143SOL    HW267987   5.972   1.174   1.141  0.2050 -0.6254  0.2382
21144SOL     OW67988  11.104  11.951   2.847  0.5491  0.2123  0.3439
21144SOL    HW167989  11.085  11.948   2.753 -0.7685 -1.0273  0.6145
21144SOL    HW267990  11.190  11.991   2.853 -0.1968  2.2236 -1.2572
21145SOL     OW67991   5.574  12.100   7.025 -0.4974  0.6331 -0.3427
21145SOL    HW167992   5.652  12.153   7.009  0.4874 -1.1400 -1.7812
21145SOL    HW267993   5.545  12.074   6.937 -2.6193  1.0877  0.1771
21146SOL     OW67994   1.348   8.573   9.832  0.1516 -0.4507  0.7317
21146SOL    HW167995   1.444   8.567   9.839  0.2721 -1.6952 -1.1249
21146SOL    HW267996   1.333   8.609   9.744 -1.0896  0.8558  1.4506
21147SOL     OW67997   3.443   1.953   1.838 -0.1797 -0.0460  0.1764
21147SOL    HW167998   3.479   2.005   1.766 -0.1047 -0.9485 -0.4562
21147SOL    HW267999   3.349   1.969   1.834 -0.0750  0.7031  0.5299
21148SOL     OW68000   0.154   5.548   8.703 -0.4888 -0.3029 -0.5594
21148SOL    HW168001   0.172   5.509   8.789 -0.2957 -0.5085 -0.6903
21148SOL    HW268002   0.178   5.640   8.713 -0.1271 -0.4034 -0.4948
21149SOL     OW68003   7.185  11.695   5.354  0.7745  0.1031  0.2380
21149SOL    HW168004   7.223  11.624   5.405  0.4656  0.1636  0.5539
21149SOL    HW268005   7.115  11.654   5.303  0.2235  0.2785  0.8420
21150SOL     OW68006   8.897   1.847   7.609  0.7469  0.3540 -0.5432
21150SOL    HW168007   8.846   1.926   7.592  2.2034  1.3539 -0.4797
21150SOL    HW268008   8.966   1.848   7.542  1.4397 -0.2395  0.1393
21151SOL     OW68009  10.559  10.586   0.886  0.4691 -0.1139 -0.5543
21151SOL    HW168010  10.611  10.666   0.889  0.1236  0.0911  0.2648
21151SOL    HW268011  10.575  10.550   0.798  2.0583 -0.1120 -0.3026
21152SOL     OW68012   3.543  11.938   3.841  0.3030  0.2339  0.1054
21152SOL    HW168013   3.536  12.002   3.913 -0.0227  0.0680  0.2239
21152SOL    HW268014   3.513  11.856   3.879 -0.5170  0.2876 -0.4026
21153SOL     OW68015   7.761   8.541   6.368 -0.1233  0.2217 -0.2174
21153SOL    HW168016   7.802   8.458   6.345  0.3928  0.1890  0.7667
21153SOL    HW268017   7.819   8.608   6.332  0.0811  0.1584 -0.0098
21154SOL     OW68018   3.962   0.081   6.757  0.5694  0.0540 -0.1463
21154SOL    HW168019   3.906   0.014   6.718  1.1440  0.9000 -2.6119
21154SOL    HW268020   4.004   0.037   6.831 -0.8865 -1.5524 -0.2215
21155SOL     OW68021   6.738   0.245   1.580  0.0864 -0.0485 -0.5921
21155SOL    HW168022   6.821   0.203   1.603  0.6815  0.5547 -1.5513
21155SOL    HW268023   6.755   0.338   1.591 -0.5317  0.0659 -0.5881
21156SOL     OW68024  10.275   8.985   7.861 -0.7156 -0.0651 -0.1013
21156SOL    HW168025  10.224   9.055   7.901 -0.7348  0.5648 -1.1892
21156SOL    HW268026  10.340   9.030   7.808  0.3881 -0.8689  0.5268
21157SOL     OW68027   2.261   8.634   8.792 -0.0846 -0.1585 -0.2534
21157SOL    HW168028   2.213   8.581   8.856 -0.6385  1.5968  0.8388
21157SOL    HW268029   2.192   8.675   8.739  0.3528 -0.8594 -1.4256
21158SOL     OW68030  11.968   5.744   1.326  0.7509  0.5148 -0.5987
21158SOL    HW168031  11.880   5.715   1.350  0.6388 -1.2571 -2.8984
21158SOL    HW268032  11.956   5.834   1.295 -0.3742  0.0748 -1.4863
21159SOL     OW68033  11.687   7.853   8.488  0.3409 -0.2178 -0.4045
21159SOL    HW168034  11.777   7.826   8.472  0.6431  0.4401  0.1293
21159SOL    HW268035  11.666   7.816   8.574 -0.5505 -1.9492 -1.3082
21160SOL     OW68036   1.152   7.655  10.344  0.4931  0.2144 -0.2613
21160SOL    HW168037   1.179   7.724  10.404  3.0523 -0.0802 -0.9686
21160SOL    HW268038   1.153   7.697  10.257  0.4079 -0.2805 -0.5062
21161SOL     OW68039  10.629  11.060   3.061 -0.0505 -0.4327 -0.2548
21161SOL    HW168040  10.704  11.072   3.002 -0.9030  0.3028 -1.2384
21161SOL    HW268041  10.664  11.078   3.148  0.4405  2.3211 -0.9178
21162SOL     OW68042   2.545   3.651   7.822  0.8814  0.4786  0.2441
21162SOL    HW168043   2.510   3.628   7.909  3.7963  2.7508  2.2196
21162SOL    HW268044   2.626   3.601   7.815  0.8159  0.5402 -1.0941
21163SOL     OW68045   0.814  11.615   6.168  0.5034  0.2229  0.2031
21163SOL    HW168046   0.870  11.620   6.245  0.6611 -1.9919  0.2848
21163SOL    HW268047   0.872  11.640   6.095  1.2602 -0.7180  0.4559
21164SOL     OW68048   8.113   4.263   8.952 -0.0216 -0.0823  0.3427
21164SOL    HW168049   8.032   4.282   8.999 -1.7846 -3.1760 -1.1766
21164SOL    HW268050   8.108   4.316   8.872 -1.0960 -0.9806 -0.2124
21165SOL     OW68051   0.576  11.699   4.890  0.5326 -0.1542 -0.0232
21165SOL    HW168052   0.602  11.750   4.967  1.6731 -1.3485  0.4177
21165SOL    HW268053   0.597  11.755   4.815  0.0332  0.7519  0.4913
21166SOL     OW68054   5.093   6.765  10.792 -0.3553  0.5007 -0.4510
21166SOL    HW168055   5.055   6.777  10.705  0.1533  1.2231 -0.5783
21166SOL    HW268056   5.049   6.829  10.847 -0.5701  0.1427 -0.1964
21167SOL     OW68057   9.430   6.227   3.263  0.5518 -0.1089 -0.1799
21167SOL    HW168058   9.409   6.321   3.261 -0.9698 -0.3653  1.3752
21167SOL    HW268059   9.394   6.193   3.181  1.6671  0.7372 -1.0580
21168SOL     OW68060   5.054  11.814   5.577  0.3751 -0.2520 -0.5806
21168SOL    HW168061   4.963  11.822   5.547  0.7199 -0.9670 -1.8715
21168SOL    HW268062   5.105  11.807   5.497  1.6679  0.8901  0.1090
21169SOL     OW68063  10.091   2.300   3.022 -0.0501 -0.2844 -0.2444
21169SOL    HW168064  10.006   2.281   3.064 -0.5265 -0.0310 -1.0696
21169SOL    HW268065  10.129   2.213   3.007 -0.3014 -0.4174 -0.1360
21170SOL     OW68066   6.811   0.329   1.238 -0.4545 -0.2368 -0.6390
21170SOL    HW168067   6.729   0.289   1.208 -0.5602 -0.3321 -0.2230
21170SOL    HW268068   6.792   0.423   1.241 -1.7660 -0.4709  3.0040
21171SOL     OW68069   7.241   8.013   0.153  0.6495  0.0109  0.1514
21171SOL    HW168070   7.227   7.986   0.063 -0.3466 -0.6639  0.4956
21171SOL    HW268071   7.253   7.931   0.202  0.5560  0.3369  0.7332
21172SOL     OW68072   1.950  10.268   1.087  0.6480  0.1697  0.0578
21172SOL    HW168073   1.875  10.264   1.146 -0.0742  0.7263 -0.7936
21172SOL    HW268074   1.966  10.362   1.075  1.2446  0.0572 -0.0644
21173SOL     OW68075   7.247   5.844   8.493 -0.3564  0.4823 -0.2456
21173SOL    HW168076   7.298   5.909   8.445  1.7843 -0.2101  0.9760
21173SOL    HW268077   7.249   5.766   8.438 -0.2654  0.5040 -0.2718
21174SOL     OW68078  11.140   9.096   0.875 -0.1870  0.5578 -0.2228
21174SOL    HW168079  11.093   9.095   0.959  1.9760 -1.6489  1.0903
21174SOL    HW268080  11.087   9.042   0.817 -0.6017  0.2864  0.4024
21175SOL     OW68081   0.924   8.128   7.159 -0.1735  0.3616 -0.2136
21175SOL    HW168082   0.850   8.096   7.108  0.6421 -0.5904 -0.8468
21175SOL    HW268083   0.903   8.105   7.249 -1.3780  1.5618 -0.1723
21176SOL     OW68084   8.072   7.352  10.667 -0.0649 -0.0644 -0.2549
21176SOL    HW168085   8.093   7.400  10.587  0.1846  1.1001  0.4831
21176SOL    HW268086   8.082   7.417  10.737  0.1258 -1.1647  0.7630
21177SOL     OW68087   7.177   7.039   4.335  0.1083  0.0095 -0.1742
21177SOL    HW168088   7.097   7.091   4.334  0.8801  1.2157 -0.5726
21177SOL    HW268089   7.237   7.085   4.276  1.6349 -0.0223  1.2877
21178SOL     OW68090   8.912   6.446   7.781  0.5085  0.1467  0.3999
21178SOL    HW168091   8.975   6.421   7.713 -0.0515 -1.1523  0.3398
21178SOL    HW268092   8.830   6.460   7.733 -0.6706 -3.6141  1.0197
21179SOL     OW68093  10.190   6.122   9.385 -0.6893  0.3388 -0.1131
21179SOL    HW168094  10.155   6.097   9.471  0.9901 -0.8619  0.2918
21179SOL    HW268095  10.285   6.112   9.394 -0.4224  0.7704 -1.9446
21180SOL     OW68096   0.046  11.629  11.925 -0.2379  0.2754 -0.5265
21180SOL    HW168097   0.134  11.603  11.953  0.3071  0.9269 -1.5897
21180SOL    HW268098  -0.008  11.617  12.003  0.6221 -0.9299 -0.0804
21181SOL     OW68099   7.210   0.321   6.572 -0.2914 -0.2030  0.6666
21181SOL    HW168100   7.235   0.239   6.530  0.5047  0.1052  0.5397
21181SOL    HW268101   7.142   0.295   6.635  0.2148 -1.0118  0.8892
21182SOL     OW68102   4.335   8.890  11.330 -0.0180 -0.3268  0.3152
21182SOL    HW168103   4.303   8.976  11.304  0.0479 -0.1459  0.8195
21182SOL    HW268104   4.292   8.873  11.414  0.1918 -0.6582  0.3552
21183SOL     OW68105  10.073   8.141   1.683  0.0594  0.2001 -0.0418
21183SOL    HW168106  10.121   8.218   1.652  1.4080 -0.2009  0.9703
21183SOL    HW268107   9.985   8.153   1.647  0.7930  1.1276 -1.6890
21184SOL     OW68108   9.074  11.923  11.715  0.1859 -0.4145 -0.1285
21184SOL    HW168109   9.058  11.988  11.646 -1.3695 -0.5033  0.1064
21184SOL    HW268110   9.131  11.858  11.673 -1.0186 -0.6571 -1.4826
21185SOL     OW68111   5.894   6.395   8.359  0.1293 -0.4571  0.3077
21185SOL    HW168112   5.812   6.351   8.338 -0.4115  0.4212  0.5305
21185SOL    HW268113   5.947   6.387   8.280 -0.3584 -0.6184 -0.0006
21186SOL     OW68114   2.254   6.513   9.207 -0.0641 -0.3204  0.1374
21186SOL    HW168115   2.316   6.466   9.151  0.5296  0.3317  0.2310
21186SOL    HW268116   2.174   6.462   9.202  0.4891 -1.2063  0.0367
21187SOL     OW68117   1.775   8.584   1.388  0.7225  0.0612  0.1514
21187SOL    HW168118   1.862   8.620   1.372  0.8343  1.4137  3.1852
21187SOL    HW268119   1.787   8.522   1.459 -0.6284 -0.7599 -0.2872
21188SOL     OW68120   4.791   9.958   1.027 -0.7729  0.3847  0.1028
21188SOL    HW168121   4.833   9.970   0.942 -0.9320 -0.8504 -0.1739
21188SOL    HW268122   4.762  10.045   1.052  0.7830  1.0567 -0.3149
21189SOL     OW68123  11.834   1.783   6.925  0.4375 -0.2565  0.9212
21189SOL    HW168124  11.906   1.803   6.865 -0.8209  1.2170 -0.1759
21189SOL    HW268125  11.860   1.702   6.968  2.2652 -0.3104 -0.1982
21190SOL     OW68126   0.217   7.060   3.713 -0.3134 -0.5854  0.4158
21190SOL    HW168127   0.213   7.086   3.621  0.2652  1.8146  0.9979
21190SOL    HW268128   0.311   7.057   3.733 -0.4374 -0.9072  0.9731
21191SOL     OW68129   0.891  10.875   6.056 -0.0631  0.1950 -0.0769
21191SOL    HW168130   0.853  10.961   6.039 -0.5258  0.0298  0.1019
21191SOL    HW268131   0.950  10.860   5.982 -0.4462  0.4007 -0.4269
21192SOL     OW68132   0.324   0.039  11.497 -0.2112 -0.4508 -0.6864
21192SOL    HW168133   0.378   0.116  11.511  0.0255 -0.4250 -1.6608
21192SOL    HW268134   0.350  -0.021  11.567 -1.2734  0.7815  0.8271
21193SOL     OW68135  10.184   7.872   7.654 -0.2906  0.5927 -0.3486
21193SOL    HW168136  10.266   7.877   7.606  0.3498  0.4023  0.6958
21193SOL    HW268137  10.148   7.786   7.633 -0.9322  1.1986 -1.8883
21194SOL     OW68138   8.945   7.177   6.042 -0.5315  0.4145  0.1533
21194SOL    HW168139   8.889   7.215   5.974  0.8753  1.9974 -0.1949
21194SOL    HW268140   9.003   7.117   5.995 -1.8258 -1.1796  0.5057
21195SOL     OW68141   4.439   7.130   3.986 -0.2539  0.0554  0.0725
21195SOL    HW168142   4.347   7.106   3.996 -0.0359 -0.2614  1.5191
21195SOL    HW268143   4.439   7.194   3.915 -1.2587 -1.7767 -1.6777
21196SOL     OW68144   3.603  11.504  11.962  0.2858  0.0794  0.5509
21196SOL    HW168145   3.670  11.451  11.919  2.0112  0.7456  2.2469
21196SOL    HW268146   3.599  11.470  12.051 -0.8246  0.7915  0.7939
21197SOL     OW68147   5.316   5.050   6.191  0.3202  0.2740 -0.0068
21197SOL    HW168148   5.292   5.068   6.282 -0.7769 -0.6943 -0.0803
21197SOL    HW268149   5.307   4.955   6.182 -0.8114  0.4798 -1.4475
21198SOL     OW68150   8.871   0.254   3.982 -0.1528 -0.0158 -0.2558
21198SOL    HW168151   8.821   0.298   4.051 -0.6723 -0.3006 -0.4550
21198SOL    HW268152   8.947   0.312   3.968  0.7077 -0.6293  1.5164
21199SOL     OW68153   6.518   0.375   1.316  0.3027  0.2044  0.2937
21199SOL    HW168154   6.426   0.361   1.293  0.7974  1.4159 -2.9009
21199SOL    HW268155   6.553   0.287   1.332 -1.7402 -0.1774  3.5957
21200SOL     OW68156   4.210  10.602  11.543  0.6225 -0.4828  0.7972
21200SOL    HW168157   4.281  10.578  11.603 -0.3818 -2.8053  1.1562
21200SOL    HW268158   4.221  10.543  11.468  0.5098  0.8356 -0.3048
21201SOL     OW68159   4.213   1.518  11.088 -0.0030  0.7315 -0.0023
21201SOL    HW168160   4.171   1.488  11.007  2.8007 -1.1679 -0.9157
21201SOL    HW268161   4.195   1.449  11.152  0.4042  0.6645  0.0442
21202SOL     OW68162  11.051  10.973   1.751  0.4324 -0.0021 -0.4195
21202SOL    HW168163  10.983  10.908   1.764 -1.8670  2.7017  2.3106
21202SOL    HW268164  11.023  11.023   1.674 -0.5787  0.9029  0.5113
21203SOL     OW68165   6.255  10.173  11.261  0.7790 -0.1074  0.7988
21203SOL    HW168166   6.188  10.105  11.266 -0.8209  1.4031  0.9394
21203SOL    HW268167   6.338  10.126  11.266 -0.2450 -2.1062 -0.1572
21204SOL     OW68168   9.002   1.186   8.742  0.2862  0.8257  0.1585
21204SOL    HW168169   8.984   1.131   8.819  1.0955  1.1175  0.5721
21204SOL    HW268170   8.946   1.150   8.673 -0.3592  0.4744  0.8454
21205SOL     OW68171   0.062   4.569   2.862 -0.4109  0.2546 -0.0773
21205SOL    HW168172   0.082   4.540   2.951 -0.5017  0.1420 -0.0941
21205SOL    HW268173  -0.032   4.585   2.862 -0.2704  1.1226  0.0966
21206SOL     OW68174   6.436  12.018   0.883 -0.2375  0.4407  0.5429
21206SOL    HW168175   6.368  12.004   0.948  0.6220  1.2206  1.6352
21206SOL    HW268176   6.492  12.086   0.920  0.9025  0.1202 -0.5162
21207SOL     OW68177   4.984   8.088   6.393  0.2170 -0.0268 -0.1480
21207SOL    HW168178   5.060   8.128   6.351  0.3052  0.6311  0.6230
21207SOL    HW268179   4.909   8.131   6.353  0.3056  0.7450  0.4949
21208SOL     OW68180   0.811   2.370   8.190  0.1720  0.3821  0.3841
21208SOL    HW168181   0.819   2.336   8.100  0.8030  0.9830  0.2059
21208SOL    HW268182   0.749   2.442   8.182  0.1117  0.3376  0.4575
21209SOL     OW68183   0.606   7.727   5.366 -0.3151  0.3800 -0.5713
21209SOL    HW168184   0.607   7.823   5.361 -0.7131  0.3355 -2.4083
21209SOL    HW268185   0.563   7.700   5.285 -0.3956 -1.3594  0.0147
21210SOL     OW68186   8.573   7.387   9.329  0.4929  0.0769 -0.5494
21210SOL    HW168187   8.478   7.384   9.342  0.7635  0.0870  1.9901
21210SOL    HW268188   8.587   7.466   9.277 -0.7934  0.9411  0.3371
21211SOL     OW68189   9.428   0.875   5.563 -0.2762  0.1668  0.4315
21211SOL    HW168190   9.361   0.897   5.628 -2.0040  2.3549 -1.8849
21211SOL    HW268191   9.454   0.959   5.526 -1.5168 -0.9686 -3.6168
21212SOL     OW68192   6.595   0.197   5.217  0.5564 -0.4114  0.1510
21212SOL    HW168193   6.617   0.246   5.296 -0.0108 -0.2044  0.1833
21212SOL    HW268194   6.655   0.122   5.218 -0.6619 -1.4341  1.7740
21213SOL     OW68195   1.433   7.726  11.529 -0.4141 -0.0521 -0.3152
21213SOL    HW168196   1.347   7.731  11.487 -0.5442  0.7603  0.0347
21213SOL    HW268197   1.414   7.693  11.617 -0.5359  1.3333  0.2018
21214SOL     OW68198   6.255   8.263   1.368  0.3585 -0.7569  0.3647
21214SOL    HW168199   6.168   8.298   1.348  0.3813 -0.4209  0.8399
21214SOL    HW268200   6.246   8.168   1.353  0.7521 -0.4123 -2.5048
21215SOL     OW68201   6.403   1.334  11.719  0.2910  0.2299  0.0427
21215SOL    HW168202   6.468   1.275  11.679 -0.4501 -1.0033  0.5893
21215SOL    HW268203   6.320   1.307  11.680 -0.3317 -0.3999  1.7162
21216SOL     OW68204   0.082   9.176   0.796  0.0989 -0.1252  0.5083
21216SOL    HW168205   0.158   9.118   0.793  0.7964  0.8135 -2.2223
21216SOL    HW268206   0.037   9.151   0.877  1.1187 -3.4736  0.2120
21217SOL     OW68207  10.265   6.820  11.030  0.6732  0.2656 -0.6462
21217SOL    HW168208  10.200   6.822  10.959 -1.5398  0.6051  1.2964
21217SOL    HW268209  10.248   6.739  11.077  2.4573 -0.2088 -0.7373
21218SOL     OW68210   2.475   2.788   2.859 -0.1765  0.3763 -0.3724
21218SOL    HW168211   2.563   2.757   2.882 -0.7648 -0.0388  1.4804
21218SOL    HW268212   2.440   2.721   2.801  0.2040 -0.1886  0.0463
21219SOL     OW68213   0.995   3.851   1.856  0.4004  0.3376 -0.4706
21219SOL    HW168214   1.000   3.756   1.851 -1.5473  0.1259  0.5618
21219SOL    HW268215   1.076   3.877   1.900 -0.3902 -1.1709  2.0887
21220SOL     OW68216   3.088   7.143   4.225 -0.2986  0.0253  0.3587
21220SOL    HW168217   3.125   7.056   4.242 -2.0685 -0.7166  0.5664
21220SOL    HW268218   3.073   7.145   4.131  0.3995  0.4016  0.2452
21221SOL     OW68219   8.739  11.162   6.184  0.0411  0.6789 -0.2957
21221SOL    HW168220   8.794  11.233   6.150  1.2644 -0.0352  0.1230
21221SOL    HW268221   8.712  11.113   6.107  1.6920 -0.1468 -0.3918
21222SOL     OW68222  11.867   2.113   9.083  0.1838  0.0860  0.1549
21222SOL    HW168223  11.845   2.100   8.991  1.4991 -4.0080  0.2316
21222SOL    HW268224  11.790   2.084   9.131 -0.2681  1.6408  0.4453
21223SOL     OW68225   6.437   9.547   4.542 -0.3199 -0.3193 -0.2094
21223SOL    HW168226   6.531   9.536   4.558 -0.3834  0.8393  1.1329
21223SOL    HW268227   6.403   9.458   4.534  0.6058 -0.8037  0.9837
21224SOL     OW68228   6.803   2.085   4.631 -0.1104  0.9461 -0.1843
21224SOL    HW168229   6.883   2.106   4.680 -0.5018 -0.7365  1.2844
21224SOL    HW268230   6.759   2.019   4.685 -0.7526 -0.7887 -2.6700
21225SOL     OW68231  11.571   1.888   8.533 -0.2172  0.4336 -0.0111
21225SOL    HW168232  11.517   1.825   8.484  1.7520 -0.4683 -1.1768
21225SOL    HW268233  11.609   1.837   8.604  1.1589  0.3120 -0.7867
21226SOL     OW68234   1.639   3.359   0.268 -0.3192  0.2565  0.2698
21226SOL    HW168235   1.714   3.390   0.318 -0.8458 -0.1706  1.3887
21226SOL    HW268236   1.676   3.302   0.201  0.3511 -0.0826  0.9086
21227SOL     OW68237   8.424   9.049   3.864  0.1859 -0.1476  0.3196
21227SOL    HW168238   8.360   8.980   3.843  1.0246 -0.5611 -0.9167
21227SOL    HW268239   8.472   9.064   3.783  2.3301 -0.5344  1.4439
21228SOL     OW68240   8.298   2.322   6.031  0.0289 -0.5769  0.7903
21228SOL    HW168241   8.324   2.353   5.945 -2.9501 -1.0893 -0.4367
21228SOL    HW268242   8.239   2.390   6.064  1.0281 -0.4535  2.4085
21229SOL     OW68243  11.975   3.406  10.501 -0.0739 -0.4689 -0.0776
21229SOL    HW168244  12.052   3.353  10.520  0.7357  1.0307  0.9472
21229SOL    HW268245  11.919   3.348  10.449  1.1893 -1.9908  0.1852
21230SOL     OW68246   4.135   9.352   7.575  0.3801 -0.1973 -0.4220
21230SOL    HW168247   4.184   9.312   7.503  0.2026 -1.7916  0.3141
21230SOL    HW268248   4.127   9.283   7.640 -0.6623  0.8086  0.5573
21231SOL     OW68249   8.314   4.594   2.753  0.3907  0.1188  0.6555
21231SOL    HW168250   8.307   4.504   2.722  1.5506 -0.0402  0.8057
21231SOL    HW268251   8.227   4.615   2.787  0.1423 -0.9872  0.7306
21232SOL     OW68252   5.491   5.781   6.494 -0.4370 -0.2188  0.0473
21232SOL    HW168253   5.477   5.856   6.552  1.2394 -0.1418  0.3985
21232SOL    HW268254   5.512   5.821   6.409 -3.8164 -0.3142 -0.9909
21233SOL     OW68255   4.052  10.714   5.329  0.4248  0.4177 -0.6765
21233SOL    HW168256   4.134  10.760   5.345 -0.0224  0.8420  0.5242
21233SOL    HW268257   3.985  10.770   5.367 -0.7174  1.1166 -3.4712
21234SOL     OW68258  11.886   2.858  11.210 -0.0722  0.3001 -1.2328
21234SOL    HW168259  11.934   2.785  11.250  0.1142 -0.9427 -3.5414
21234SOL    HW268260  11.806   2.866  11.262  0.9843  0.0238  0.4922
21235SOL     OW68261  11.096   2.210   6.606 -0.1187 -0.1918  0.4013
21235SOL    HW168262  11.035   2.223   6.679  0.7664 -0.6754  1.2369
21235SOL    HW268263  11.171   2.264   6.628 -0.5923  1.1535 -1.0935
21236SOL     OW68264  10.564   0.005  11.855  0.1832 -0.3665  0.0598
21236SOL    HW168265  10.648  -0.041  11.854  1.4792  1.8198 -0.8597
21236SOL    HW268266  10.549   0.024  11.948  1.5088  0.4633  0.1411
21237SOL     OW68267   2.812   8.450  10.823  0.2891  0.0338 -0.0952
21237SOL    HW168268   2.763   8.451  10.741  0.9821 -0.5967 -0.5263
21237SOL    HW268269   2.797   8.362  10.859 -0.3680  0.4476  0.6886
21238SOL     OW68270   7.534   4.606   7.831 -0.8443 -0.3413  0.1441
21238SOL    HW168271   7.599   4.640   7.769 -0.2968 -0.1688  0.7973
21238SOL    HW268272   7.527   4.513   7.810  0.7063 -0.6806  0.9938
21239SOL     OW68273   4.161   0.366   3.204 -0.1462  0.6344  0.1031
21239SOL    HW168274   4.102   0.397   3.134 -0.8210 -1.1888 -0.2051
21239SOL    HW268275   4.119   0.395   3.285 -0.3939  1.0790 -0.1757
21240SOL     OW68276   4.786   9.533   2.524 -0.2326  0.4011 -0.8492
21240SOL    HW168277   4.843   9.576   2.588 -0.7489 -1.1347  0.7100
21240SOL    HW268278   4.786   9.441   2.549 -0.8950 -0.1711 -2.7717
21241SOL     OW68279   0.487   4.473   1.945 -0.2778  0.0686 -0.2630
21241SOL    HW168280   0.422   4.528   1.988 -1.3940  0.0769 -1.8878
21241SOL    HW268281   0.481   4.389   1.991 -1.1738  0.1800 -0.1618
21242SOL     OW68282   1.804   6.196   8.296  0.1345  0.5797  0.2352
21242SOL    HW168283   1.804   6.245   8.214 -0.4255  0.0041 -0.1235
21242SOL    HW268284   1.714   6.202   8.328  0.5783  1.6571  1.3509
21243SOL     OW68285   0.986   5.502   6.214  0.8478  0.0347 -0.0426
21243SOL    HW168286   0.899   5.524   6.181  0.5925 -0.4432  0.2951
21243SOL    HW268287   0.971   5.476   6.305  1.4779  0.8735  0.3078
21244SOL     OW68288   6.664  11.230  11.010 -0.6130  0.2358  0.0935
21244SOL    HW168289   6.659  11.297  11.077  1.2883  1.3114 -0.7648
21244SOL    HW268290   6.727  11.263  10.947  0.7944 -2.5592 -0.1343
21245SOL     OW68291   5.883   3.481  10.303  0.0973  0.4712 -0.1821
21245SOL    HW168292   5.790   3.474  10.327  0.5738 -0.4828  1.5306
21245SOL    HW268293   5.890   3.567  10.261 -1.7672  0.0717 -1.3979
21246SOL     OW68294   3.549   9.986   7.151  1.1004 -0.2608 -0.1405
21246SOL    HW168295   3.572  10.015   7.239  2.4884 -0.8027 -0.3032
21246SOL    HW268296   3.616   9.922   7.128  1.0466  0.2259 -1.7857
21247SOL     OW68297   2.013   5.497   9.325  0.4133 -0.2241 -0.5146
21247SOL    HW168298   2.032   5.590   9.311  0.1687 -0.0570  0.1681
21247SOL    HW268299   1.920   5.496   9.352  1.1193 -0.3237  2.2927
21248SOL     OW68300  10.932   5.253   2.495 -0.0836 -0.1908 -0.4356
21248SOL    HW168301  10.842   5.281   2.478 -0.6674 -1.1469  0.9119
21248SOL    HW268302  10.934   5.161   2.472 -0.2002 -0.8526  1.9441
21249SOL     OW68303   4.210  10.021   9.127 -0.5381 -0.5038  0.1092
21249SOL    HW168304   4.124   9.990   9.152 -1.2354  0.0682 -1.4619
21249SOL    HW268305   4.194  10.103   9.080  0.9908  0.5098  1.2495
21250SOL     OW68306   1.932   1.033   5.032 -0.0230 -0.0635  0.6306
21250SOL    HW168307   1.891   0.973   5.094  2.0486 -0.7403  1.4088
21250SOL    HW268308   2.024   1.033   5.056  0.2511  2.4694 -0.1721
21251SOL     OW68309   8.110   1.400   0.836 -0.3506  0.0696  0.0664
21251SOL    HW168310   8.041   1.371   0.896 -0.3939  0.3729  0.1644
21251SOL    HW268311   8.138   1.485   0.871 -1.0437  0.7021 -0.8926
21252SOL     OW68312   9.104   0.350   7.149 -0.3339  0.3498  0.1104
21252SOL    HW168313   9.110   0.268   7.199  2.1165  0.7561  0.6269
21252SOL    HW268314   9.111   0.323   7.058 -2.8405 -0.2369  0.0361
21253SOL     OW68315   6.040   6.356   9.410  0.1562 -0.2191 -0.2456
21253SOL    HW168316   6.050   6.276   9.357 -0.3442 -0.7950  0.5142
21253SOL    HW268317   5.993   6.416   9.352  0.6634 -0.4098 -0.8782
21254SOL     OW68318   2.318   4.523   4.002 -0.1554 -0.7139  0.1898
21254SOL    HW168319   2.323   4.447   4.060  0.1238  0.2430  1.4629
21254SOL    HW268320   2.307   4.597   4.061  2.4614  0.5761 -0.8024
21255SOL     OW68321   2.085   8.770   8.497  0.2096  0.0519  0.1604
21255SOL    HW168322   2.097   8.809   8.411  0.4084  1.5963  0.8555
21255SOL    HW268323   2.071   8.845   8.556 -3.1520 -1.0514  1.0067
21256SOL     OW68324   9.892  10.894   4.688  0.0162 -1.0924  0.2292
21256SOL    HW168325   9.959  10.837   4.726  0.3098 -1.9212 -1.3926
21256SOL    HW268326   9.827  10.905   4.757  1.3498 -1.0725  1.5125
21257SOL     OW68327   2.382   0.394   0.835  0.2026  0.2635  0.4964
21257SOL    HW168328   2.425   0.451   0.898 -0.3946 -0.0537  1.1980
21257SOL    HW268329   2.292   0.426   0.831  0.2121  0.2281 -0.1379
21258SOL     OW68330   0.404   9.426   0.080 -0.0267  0.3440  0.2074
21258SOL    HW168331   0.333   9.381   0.125 -1.1285  1.9974  0.1879
21258SOL    HW268332   0.469   9.357   0.063 -0.5610 -0.7637  2.3034
21259SOL     OW68333  10.937   2.806   9.595 -0.2103 -0.3879  0.5034
21259SOL    HW168334  10.990   2.876   9.556 -0.5620  0.2547  1.1582
21259SOL    HW268335  10.881   2.775   9.523 -0.8327  0.7629  0.4787
21260SOL     OW68336   7.024   9.841   7.077 -0.5102  0.7858  0.2393
21260SOL    HW168337   6.945   9.891   7.058 -1.0055 -0.2096 -0.3762
21260SOL    HW268338   7.092   9.883   7.023 -0.5928  1.6637  0.8015
21261SOL     OW68339   0.044   3.262   6.894  0.0607  0.1205  0.2399
21261SOL    HW168340   0.081   3.326   6.834 -1.7261 -0.1761 -1.2465
21261SOL    HW268341   0.043   3.307   6.979 -0.2454  1.7143 -0.5700
21262SOL     OW68342   3.573   7.370  11.000 -0.1048  0.4768 -0.4142
21262SOL    HW168343   3.557   7.411  11.085  0.7833  1.9276 -0.9122
21262SOL    HW268344   3.495   7.392  10.948 -0.0847  0.6774 -0.3599
21263SOL     OW68345  10.379   2.023   9.431 -0.6855  0.3167  0.3045
21263SOL    HW168346  10.464   1.977   9.432 -0.5684  0.5443  0.9225
21263SOL    HW268347  10.344   2.004   9.344 -0.5526 -0.7877  0.4750
21264SOL     OW68348   0.247  11.903   1.333  0.5850 -0.0327 -0.4833
21264SOL    HW168349   0.319  11.959   1.305  1.3835 -0.6376  0.2921
21264SOL    HW268350   0.173  11.962   1.348  0.8352  0.5596 -1.5552
21265SOL     OW68351   5.250   9.111   1.002  0.0481 -0.2541  0.5032
21265SOL    HW168352   5.172   9.166   1.014 -1.0293 -1.6925  0.3090
21265SOL    HW268353   5.299   9.121   1.084 -1.0508 -0.4131  1.2046
21266SOL     OW68354   9.717   2.047   1.028  0.6807  0.2849  0.1783
21266SOL    HW168355   9.657   2.013   0.962 -0.0804  1.8287  0.0422
21266SOL    HW268356   9.692   2.003   1.109  1.0046 -0.9191 -0.3576
21267SOL     OW68357   1.967   4.964   8.199 -0.1715 -0.3820 -0.5215
21267SOL    HW168358   1.923   4.889   8.239  1.8004 -1.3590 -0.0476
21267SOL    HW268359   2.060   4.944   8.208  0.3872  1.6221 -1.3988
21268SOL     OW68360   1.335   1.076   0.165  0.2068  0.2107 -0.0334
21268SOL    HW168361   1.291   1.134   0.103  1.5247  1.2639 -0.0358
21268SOL    HW268362   1.331   0.989   0.125 -1.1368  0.4299 -0.3962
21269SOL     OW68363   5.086   6.810   6.051  0.1653  0.2554 -0.0802
21269SOL    HW168364   5.086   6.895   6.007 -1.8626  0.4418  0.1529
21269SOL    HW268365   5.081   6.831   6.144 -0.5386 -0.1037 -0.0282
21270SOL     OW68366   8.477   4.805   0.166  0.0369 -0.0711 -0.4076
21270SOL    HW168367   8.423   4.729   0.190 -0.5944  0.4243 -0.2325
21270SOL    HW268368   8.441   4.877   0.217  0.5760  0.3731 -0.6423
21271SOL     OW68369   7.235   4.873   9.191  0.4946  1.0018 -0.0821
21271SOL    HW168370   7.313   4.872   9.135  0.5862 -1.8342 -0.0476
21271SOL    HW268371   7.163   4.889   9.130  0.6841 -1.1527 -0.9576
21272SOL     OW68372   1.301   8.892  10.842 -0.6945  0.2810 -0.1222
21272SOL    HW168373   1.272   8.894  10.933 -0.7424 -0.5584 -0.1128
21272SOL    HW268374   1.230   8.934  10.793 -0.8527  0.3683  0.1785
21273SOL     OW68375   1.853   9.206   3.544 -0.5400 -0.0117 -0.0456
21273SOL    HW168376   1.873   9.116   3.515 -0.0101 -0.5303  1.7585
21273SOL    HW268377   1.761   9.202   3.571 -0.7439  0.2054 -0.6978
21274SOL     OW68378   5.363   1.454   2.203  0.5735 -0.3912  0.1042
21274SOL    HW168379   5.395   1.497   2.282 -0.1465 -1.2797  0.9093
21274SOL    HW268380   5.368   1.521   2.135 -0.2748  0.9052  1.2619
21275SOL     OW68381   2.739  10.587   0.217  0.0601  0.1780  0.3346
21275SOL    HW168382   2.657  10.540   0.201  0.0793 -0.1626  1.2106
21275SOL    HW268383   2.734  10.614   0.309  0.3090  1.3820  0.0135
21276SOL     OW68384   8.266   0.378   0.641  0.0620  0.2318 -0.3407
21276SOL    HW168385   8.179   0.414   0.661 -0.6826 -0.9719 -1.2882
21276SOL    HW268386   8.305   0.443   0.582 -0.2597  0.7066 -0.0393
21277SOL     OW68387   1.336   1.270   4.047  0.5264  0.2756  0.6423
21277SOL    HW168388   1.243   1.264   4.069  0.2394  0.1340 -0.5160
21277SOL    HW268389   1.354   1.191   3.996  1.7636 -0.6318  2.4028
21278SOL     OW68390   2.868   8.695   5.978  0.1289  0.6648 -0.1440
21278SOL    HW168391   2.908   8.671   6.062 -0.6159 -0.3158 -0.0510
21278SOL    HW268392   2.801   8.760   6.001 -0.8395 -0.4141  0.1951
21279SOL     OW68393   4.003   3.972  10.342 -0.2220  0.3791  0.2699
21279SOL    HW168394   3.931   3.916  10.314 -0.9374  1.1818  0.4666
21279SOL    HW268395   3.962   4.056  10.364  1.2351  2.6054 -4.2624
21280SOL     OW68396  11.023   2.522   5.182 -0.4755  0.2985 -0.2279
21280SOL    HW168397  11.096   2.582   5.187  1.2565 -1.6794 -0.3750
21280SOL    HW268398  10.990   2.531   5.092 -0.8166  1.5953  0.0102
21281SOL     OW68399   8.765   2.062  10.845  0.2544  0.1069  0.1762
21281SOL    HW168400   8.782   2.152  10.820  1.5382 -0.1285  0.1418
21281SOL    HW268401   8.819   2.047  10.922  0.9568 -0.9562 -0.4856
21282SOL     OW68402   0.894   1.266   7.479  0.4071 -0.3542 -0.4012
21282SOL    HW168403   0.986   1.244   7.472 -0.0796 -2.1389 -1.6601
21282SOL    HW268404   0.848   1.201   7.426 -1.6238  0.2191  0.5158
21283SOL     OW68405   3.164   7.397   5.835  0.3737 -0.8718  0.5345
21283SOL    HW168406   3.259   7.411   5.832  0.3435 -0.7926 -0.8764
21283SOL    HW268407   3.132   7.435   5.753 -0.4827 -3.5847 -0.4869
21284SOL     OW68408   0.978   6.806   0.001 -0.0576 -0.3926  0.0652
21284SOL    HW168409   0.930   6.885  -0.025  2.0515  1.3936  1.2104
21284SOL    HW268410   0.993   6.817   0.095  1.4946 -1.4480 -0.0222
21285SOL     OW68411   4.738   8.080   8.206  0.2476 -0.5910  0.2155
21285SOL    HW168412   4.650   8.106   8.179  0.6449  0.3010 -0.2618
21285SOL    HW268413   4.738   8.091   8.301  0.0032 -0.0878  0.1613
21286SOL     OW68414   4.483   0.999   1.108 -0.4475 -0.2796  0.1533
21286SOL    HW168415   4.490   0.908   1.136 -0.6686 -0.7380 -1.2348
21286SOL    HW268416   4.389   1.014   1.100 -0.5152  0.6053  1.9716
21287SOL     OW68417   1.158   4.665   6.929 -0.0203  0.0321 -0.6036
21287SOL    HW168418   1.074   4.708   6.915 -1.1440 -1.9664 -0.3711
21287SOL    HW268419   1.165   4.603   6.857  1.1130 -0.0718 -0.4211
21288SOL     OW68420   0.121   7.293  11.135 -0.3666 -0.7618  0.1517
21288SOL    HW168421   0.129   7.220  11.073 -0.7980 -1.7512  1.2346
21288SOL    HW268422   0.043   7.272  11.187 -0.2621  0.2777  0.7522
21289SOL     OW68423   7.579   7.655   8.753  0.2292 -0.4849 -0.2488
21289SOL    HW168424   7.516   7.607   8.698  2.1482 -0.8909 -2.2058
21289SOL    HW268425   7.622   7.586   8.804  1.1071 -0.5734 -1.0852
21290SOL     OW68426  11.384   3.029   3.553 -0.0299 -0.3678  0.1284
21290SOL    HW168427  11.478   3.012   3.549  0.0822  0.1320  0.5623
21290SOL    HW268428  11.375   3.122   3.530 -0.5128 -0.6534 -0.9151
21291SOL     OW68429   9.096   2.885   0.738 -0.4543 -0.4667 -0.3727
21291SOL    HW168430   9.130   2.945   0.804  1.2771 -1.2380 -0.5269
21291SOL    HW268431   9.063   2.810   0.788 -0.1446 -0.5663 -0.3151
21292SOL     OW68432   0.779  11.946   6.502  0.3475 -0.3327  0.3694
21292SOL    HW168433   0.799  12.028   6.547  0.9467  0.9661 -2.0749
21292SOL    HW268434   0.795  11.878   6.567 -0.3467  1.4622  2.5486
21293SOL     OW68435   2.873   8.611   4.254 -0.0295  0.3774 -0.4418
21293SOL    HW168436   2.864   8.534   4.197  0.0496 -0.3151  0.4505
21293SOL    HW268437   2.920   8.675   4.201  0.3761 -0.3859 -1.0275
21294SOL     OW68438  11.612   9.002   7.022 -0.1801 -0.1642  0.0724
21294SOL    HW168439  11.551   9.063   7.063  0.3947 -0.9129  2.1877
21294SOL    HW268440  11.699   9.037   7.043  0.1470 -0.2017 -1.1529
21295SOL     OW68441   5.862   2.778   5.140  0.3622 -0.5088  0.1218
21295SOL    HW168442   5.908   2.701   5.106 -0.9945  0.1460 -3.7950
21295SOL    HW268443   5.770   2.763   5.116  0.1909  2.6436 -1.8152
21296SOL     OW68444   0.415  10.731   0.071  0.0083  0.0952 -0.2094
21296SOL    HW168445   0.329  10.773   0.060  0.0227  0.2403  0.2075
21296SOL    HW268446   0.463  10.790   0.129 -0.4868 -1.1882  1.6120
21297SOL     OW68447  11.017   6.254   1.680  0.2213  0.4789  0.6303
21297SOL    HW168448  11.104   6.217   1.666 -0.1590 -1.0489  2.0420
21297SOL    HW268449  11.033   6.338   1.722  1.0470  0.9189 -0.5279
21298SOL     OW68450  10.329  11.475   6.427  0.1936 -0.1541  0.5880
21298SOL    HW168451  10.382  11.552   6.406 -2.6746  1.8700  0.2852
21298SOL    HW268452  10.300  11.442   6.341 -0.0291 -0.5134  0.7978
21299SOL     OW68453   4.796   7.928   7.794  0.1056 -0.9159 -0.3785
21299SOL    HW168454   4.749   7.990   7.738  2.0447  0.3304 -0.6947
21299SOL    HW268455   4.832   7.981   7.864  1.0706 -1.8292 -0.1596
21300SOL     OW68456   0.323   0.516   3.975 -0.3236 -0.5816 -0.4573
21300SOL    HW168457   0.318   0.469   4.058 -0.9279  2.1094  1.1850
21300SOL    HW268458   0.233   0.543   3.957  0.1313  0.8945 -0.6702
21301SOL     OW68459   3.289   6.882   3.328  0.3305 -0.4008  0.1575
21301SOL    HW168460   3.346   6.830   3.384  0.6795 -1.2194 -0.9198
21301SOL    HW268461   3.212   6.827   3.315  0.0169  0.0092  0.2642
21302SOL     OW68462   2.484   6.349   5.608 -0.5552 -0.1848 -0.0189
21302SOL    HW168463   2.483   6.438   5.642  0.2183 -0.0043 -0.4398
21302SOL    HW268464   2.394   6.333   5.580 -0.5850  0.6668 -0.4419
21303SOL     OW68465   3.822   3.393   8.076  0.3800  0.1927 -0.8443
21303SOL    HW168466   3.817   3.422   8.167  1.6364  0.7013 -0.9144
21303SOL    HW268467   3.792   3.302   8.078 -1.5028  0.7643 -0.2533
21304SOL     OW68468   9.146   5.597   7.560  0.5220  1.0856 -0.2851
21304SOL    HW168469   9.134   5.502   7.549 -1.7686  1.2344  0.2923
21304SOL    HW268470   9.216   5.605   7.624  1.8864 -0.1493 -1.5491
21305SOL     OW68471   8.070   3.847   4.312  0.0296 -0.5013  0.1151
21305SOL    HW168472   8.162   3.840   4.336  0.3092  1.6424 -0.1723
21305SOL    HW268473   8.024   3.840   4.396  0.4572 -1.1811  0.3049
21306SOL     OW68474   6.903   4.058   8.856  0.0439  0.2361  0.1125
21306SOL    HW168475   6.855   4.060   8.939 -0.5194 -1.3321 -0.1493
21306SOL    HW268476   6.861   4.126   8.803 -2.3438 -1.4382 -0.3023
21307SOL     OW68477   8.682   8.165   3.743 -0.0907 -0.3475 -0.0215
21307SOL    HW168478   8.722   8.092   3.696  1.2631 -0.3178  1.0388
21307SOL    HW268479   8.754   8.209   3.787 -0.8362  1.8623 -0.8864
21308SOL     OW68480   0.502  11.435   2.440  0.8912 -0.2664 -0.2781
21308SOL    HW168481   0.555  11.360   2.469  2.4578  0.8337 -0.1510
21308SOL    HW268482   0.520  11.442   2.346 -0.4547 -0.9376 -0.6161
21309SOL     OW68483   0.921   9.742  11.667  0.0604  0.1279 -0.2545
21309SOL    HW168484   0.961   9.752  11.580  2.3151 -0.8268  0.6127
21309SOL    HW268485   0.966   9.805  11.722 -1.4250  0.7934  0.2690
21310SOL     OW68486  11.514  12.032   6.318 -1.2404  0.2840  0.3818
21310SOL    HW168487  11.521  12.070   6.405  1.2116  0.0252  0.3451
21310SOL    HW268488  11.493  12.106   6.261  0.0398  0.9985  0.8052
21311SOL     OW68489   8.835   8.581   3.845 -0.2503 -0.1982 -0.5492
21311SOL    HW168490   8.912   8.583   3.901 -0.8400 -1.0991  0.3165
21311SOL    HW268491   8.862   8.628   3.766  0.6662  0.9169  0.3783
21312SOL     OW68492   4.501   5.864   6.456 -0.1640 -0.9952 -0.0051
21312SOL    HW168493   4.597   5.871   6.457 -0.2351  1.5166 -1.1698
21312SOL    HW268494   4.482   5.805   6.384  0.5240 -0.2951 -0.7847
21313SOL     OW68495   3.603   9.622   6.571 -0.2474 -0.1270  0.1393
21313SOL    HW168496   3.555   9.700   6.543  0.7519  0.0873 -1.0504
21313SOL    HW268497   3.589   9.559   6.500  0.6020 -0.3190  0.1310
21314SOL     OW68498  10.066   3.449   3.064  0.0847 -0.8883  0.0206
21314SOL    HW168499  10.101   3.363   3.038 -1.8301 -1.4964 -0.6957
21314SOL    HW268500   9.973   3.443   3.045 -0.6252  0.3235  2.7093
21315SOL     OW68501  11.260   2.149   3.331  0.1466  0.0005  0.0129
21315SOL    HW168502  11.318   2.157   3.256 -0.0997 -0.0508 -0.1835
21315SOL    HW268503  11.245   2.239   3.360 -1.8662  0.2783 -1.6197
21316SOL     OW68504   5.429   2.394   4.324 -0.1517 -0.0297  0.2131
21316SOL    HW168505   5.443   2.405   4.418 -0.0927  0.6483  0.1325
21316SOL    HW268506   5.379   2.472   4.298  0.6637  0.2717 -0.4886
21317SOL     OW68507   1.742   1.601   3.851  0.4025  0.2450  0.0321
21317SOL    HW168508   1.808   1.665   3.878 -0.0688  0.7919 -0.0971
21317SOL    HW268509   1.658   1.645   3.865  0.0395 -0.6169  0.6443
21318SOL     OW68510   8.547   2.613   4.119  0.0779 -0.1134  0.3682
21318SOL    HW168511   8.478   2.678   4.128  0.1149  0.0026 -0.1991
21318SOL    HW268512   8.524   2.545   4.183  0.1814  0.5716  1.1433
21319SOL     OW68513   8.897  11.310  10.870  0.0390  0.3173 -0.1552
21319SOL    HW168514   8.810  11.327  10.907  0.8300  0.1093  1.9391
21319SOL    HW268515   8.907  11.376  10.802 -0.9621  1.6906  0.9591
21320SOL     OW68516  10.532  10.410   6.900  0.3850  0.3386 -0.0551
21320SOL    HW168517  10.575  10.488   6.934  0.4843 -0.4305  1.6388
21320SOL    HW268518  10.596  10.372   6.840 -0.1564  2.2107 -1.9714
21321SOL     OW68519   6.305   9.071   5.241 -0.3041 -0.1117 -0.0113
21321SOL    HW168520   6.268   9.139   5.185  0.5638  1.0055  0.7313
21321SOL    HW268521   6.391   9.053   5.204  0.1741  0.4554  0.7998
21322SOL     OW68522   5.417   4.911  10.605  0.2415  0.1019 -0.5689
21322SOL    HW168523   5.373   4.930  10.688  0.0385  0.2349 -0.7060
21322SOL    HW268524   5.421   4.815  10.602  0.9454  0.1024 -0.0468
21323SOL     OW68525  11.900   3.065   1.633  0.2921 -0.3793  0.4140
21323SOL    HW168526  11.923   3.155   1.608  1.0855 -0.8842 -0.7979
21323SOL    HW268527  11.940   3.053   1.720 -0.4467  0.6554  0.9123
21324SOL     OW68528   6.324   4.638   2.852  0.1307 -0.3169  0.7027
21324SOL    HW168529   6.353   4.601   2.936  1.9801 -0.6250 -0.0247
21324SOL    HW268530   6.390   4.703   2.830 -0.2971 -0.2773 -0.5584
21325SOL     OW68531   1.751   8.144   7.107 -0.2757 -0.1343  0.0527
21325SOL    HW168532   1.831   8.195   7.093 -0.3209 -0.2241 -0.5388
21325SOL    HW268533   1.734   8.102   7.023  0.1413 -1.6840  0.7035
21326SOL     OW68534   3.006   7.855  11.595  0.1797  0.0151  0.1566
21326SOL    HW168535   2.945   7.846  11.521  0.4882  2.0070 -0.3898
21326SOL    HW268536   2.968   7.800  11.664 -0.8988 -0.7369 -0.9834
21327SOL     OW68537   9.815   1.810   9.226  0.4319 -0.4629 -0.6184
21327SOL    HW168538   9.859   1.895   9.235  0.5420 -0.4884 -0.9121
21327SOL    HW268539   9.882   1.753   9.188 -0.1022 -0.2867 -1.8720
21328SOL     OW68540   8.681   9.718   4.013 -0.6299  0.3542  0.0213
21328SOL    HW168541   8.682   9.761   3.928 -0.5757  1.6636  0.6700
21328SOL    HW268542   8.632   9.777   4.070 -0.2054 -0.2416  1.0362
21329SOL     OW68543   4.368   0.599   0.560  0.5423 -0.0659 -0.5332
21329SOL    HW168544   4.337   0.524   0.509  1.3611  0.9686 -2.6291
21329SOL    HW268545   4.289   0.653   0.573  0.2338 -0.5759 -0.2633
21330SOL     OW68546   2.196   4.289   9.321  0.3780  0.6578 -0.0386
21330SOL    HW168547   2.201   4.385   9.317  0.0020  0.6901  0.2094
21330SOL    HW268548   2.102   4.271   9.328  0.4708  0.2829  0.2181
21331SOL     OW68549   0.356  11.018   1.256 -0.0145  0.3811  0.2462
21331SOL    HW168550   0.443  11.030   1.217  0.2968 -1.3852  0.3095
21331SOL    HW268551   0.296  11.030   1.183  0.3806  0.1577 -0.1246
21332SOL     OW68552   1.542   0.717   9.420  0.1583 -0.0849  0.2624
21332SOL    HW168553   1.517   0.708   9.511  0.4162 -0.0766  0.3359
21332SOL    HW268554   1.460   0.716   9.371  0.1107 -2.1873  0.2998
21333SOL     OW68555  12.064   7.885   7.031 -0.7804  0.2137  0.4122
21333SOL    HW168556  12.101   7.920   7.112  0.5940  0.5597 -0.3291
21333SOL    HW268557  12.136   7.888   6.968 -2.1648  1.2728 -1.2375
21334SOL     OW68558   6.192   8.159  10.417 -0.2223  0.4564  0.6903
21334SOL    HW168559   6.154   8.245  10.396 -1.7057 -0.4056 -0.3567
21334SOL    HW268560   6.212   8.120  10.332 -1.3848 -0.9946  1.0405
21335SOL     OW68561   3.359  11.438   5.812  0.0670  0.3427  0.5003
21335SOL    HW168562   3.449  11.468   5.805 -0.2600  1.8088  2.0390
21335SOL    HW268563   3.365  11.343   5.805  1.7613  0.3901  0.9226
21336SOL     OW68564   8.273   7.387   9.388  0.0896  0.1235 -0.1245
21336SOL    HW168565   8.295   7.445   9.461 -1.2765 -1.4725  1.6589
21336SOL    HW268566   8.220   7.318   9.428  0.3071 -1.4757 -2.4437
21337SOL     OW68567  10.588   8.018   1.025  0.2043 -0.6751 -0.4784
21337SOL    HW168568  10.557   8.104   0.998  2.6631  0.3914 -0.1068
21337SOL    HW268569  10.610   8.028   1.118 -0.7459 -2.1174 -0.0527
21338SOL     OW68570   7.715   0.855  10.709  0.3541 -0.6047  0.5733
21338SOL    HW168571   7.638   0.843  10.765 -0.3844  0.7896 -0.1112
21338SOL    HW268572   7.732   0.949  10.711 -1.4588  0.0563 -3.7526
21339SOL     OW68573   2.340  10.302   7.430  0.1501 -0.3216  0.2569
21339SOL    HW168574   2.262  10.254   7.403  0.8254 -0.5541 -1.3461
21339SOL    HW268575   2.314  10.394   7.425  0.1132 -0.3837 -0.7105
21340SOL     OW68576   2.774   0.103   0.206  0.3766 -0.1307 -0.2048
21340SOL    HW168577   2.797   0.180   0.258  1.4853 -0.2426 -0.5027
21340SOL    HW268578   2.850   0.088   0.150  0.7357 -2.1582  0.7019
21341SOL     OW68579   3.197   3.240   3.317 -0.1668 -0.3889  0.8495
21341SOL    HW168580   3.263   3.304   3.344  0.9540 -1.1284 -0.0058
21341SOL    HW268581   3.205   3.236   3.222 -2.2257  0.2704  0.6140
21342SOL     OW68582   2.667   4.193   1.837 -0.0500 -0.5260  0.0923
21342SOL    HW168583   2.672   4.149   1.922  1.4227 -1.0280 -0.2245
21342SOL    HW268584   2.745   4.164   1.790 -0.5038  0.2467 -1.2010
21343SOL     OW68585   7.721   8.525  10.066  0.0596 -0.2574  0.0794
21343SOL    HW168586   7.711   8.431  10.079  0.1879 -0.0955  1.5323
21343SOL    HW268587   7.732   8.560  10.154  1.6290  0.9371 -0.5419
21344SOL     OW68588   5.657  10.322   0.127  0.0238 -0.2663 -0.1591
21344SOL    HW168589   5.689  10.306   0.038 -1.0370  0.0242 -0.6051
21344SOL    HW268590   5.733  10.358   0.173  0.7411 -0.9308 -0.7872
21345SOL     OW68591   4.986   5.102   9.401  0.4748  0.1986  0.2220
21345SOL    HW168592   5.033   5.140   9.327  0.4877 -0.5634 -0.1694
21345SOL    HW268593   5.043   5.120   9.476 -0.6410  3.1072  0.5063
21346SOL     OW68594  11.763   0.368   5.489 -0.3181 -0.2836 -0.4247
21346SOL    HW168595  11.732   0.412   5.568 -2.5138 -3.7468  0.8707
21346SOL    HW268596  11.695   0.384   5.424  0.6946  1.1966 -1.1722
21347SOL     OW68597   8.246   4.222   4.097  0.4998 -0.1586 -0.2740
21347SOL    HW168598   8.186   4.149   4.080  1.0678 -0.5282 -0.7269
21347SOL    HW268599   8.193   4.300   4.081 -0.2831 -0.4497  0.8070
21348SOL     OW68600  10.676   1.202   9.551  0.5015  0.4495  0.2559
21348SOL    HW168601  10.646   1.114   9.574  3.0880 -0.7960 -0.6904
21348SOL    HW268602  10.615   1.232   9.483  0.8255 -1.5756 -1.0184
21349SOL     OW68603   9.420   4.722  11.340  0.3314  0.5647 -0.2848
21349SOL    HW168604   9.497   4.669  11.317  0.8900  0.4364  1.7517
21349SOL    HW268605   9.345   4.664  11.321  0.9262 -1.0248  1.8499
21350SOL     OW68606  10.148  12.022   9.616  0.5878 -0.0225 -0.1498
21350SOL    HW168607  10.058  11.990   9.611  1.5725 -2.8461 -1.7616
21350SOL    HW268608  10.141  12.114   9.590 -1.9500  0.2269  1.0547
21351SOL     OW68609   5.167   4.166   6.165  0.1285  0.0975  0.0615
21351SOL    HW168610   5.175   4.143   6.258  1.7621 -1.1947 -0.3394
21351SOL    HW268611   5.143   4.258   6.165  0.5188  0.2418  1.7769
21352SOL     OW68612   8.749   3.801  10.222 -0.7828  0.5774 -0.1708
21352SOL    HW168613   8.699   3.881  10.205 -1.7224 -0.0512 -0.4065
21352SOL    HW268614   8.720   3.740  10.156  0.5780  0.3008 -0.5391
21353SOL     OW68615  11.807   4.181  11.371  0.2416  0.4860  0.1053
21353SOL    HW168616  11.833   4.269  11.398 -0.0679  0.6010  0.0319
21353SOL    HW268617  11.712   4.184  11.367  0.2303  0.1535  0.0795
21354SOL     OW68618   2.098  10.913   5.520  0.2862  0.0525  0.3729
21354SOL    HW168619   2.141  10.839   5.563  1.9245  1.3471  1.0344
21354SOL    HW268620   2.169  10.974   5.500 -0.8283  0.8421 -1.4728
21355SOL     OW68621   6.224  11.754   0.603 -0.0717  0.2254 -0.3124
21355SOL    HW168622   6.173  11.705   0.668  1.1135 -1.6040 -0.6697
21355SOL    HW268623   6.172  11.749   0.523 -0.2736  0.1236 -0.1760
21356SOL     OW68624  10.643   2.468   0.209 -0.7986 -0.6787  0.9117
21356SOL    HW168625  10.599   2.538   0.257  0.6881  0.0840  1.1998
21356SOL    HW268626  10.585   2.392   0.220 -3.0473  0.7484 -0.4304
21357SOL     OW68627   4.657   9.370   6.633 -0.5339 -0.2904  0.6058
21357SOL    HW168628   4.660   9.276   6.646  0.3207 -0.4206 -0.3419
21357SOL    HW268629   4.581   9.385   6.577 -0.7536 -0.4028  0.8763
21358SOL     OW68630  11.361   5.423   5.996 -0.1507 -0.3516  0.0883
21358SOL    HW168631  11.362   5.367   5.918  0.2129 -1.8190  1.1078
21358SOL    HW268632  11.370   5.363   6.069  0.2569  1.0572  1.2496
21359SOL     OW68633   6.996   8.540   7.132 -1.1233  0.1595 -0.0812
21359SOL    HW168634   7.087   8.568   7.143 -0.9427  0.1050 -1.3364
21359SOL    HW268635   7.002   8.447   7.111 -1.6104 -0.3868  1.9834
21360SOL     OW68636   3.397  11.581   9.309  0.3207 -0.3808  0.1503
21360SOL    HW168637   3.340  11.571   9.233 -0.0198  1.9056  0.0213
21360SOL    HW268638   3.477  11.621   9.274  1.6136 -2.4499  0.5155
21361SOL     OW68639   4.106   0.491   9.112  0.3539 -0.2871 -0.9041
21361SOL    HW168640   4.087   0.573   9.157 -1.6278 -1.9738  1.6019
21361SOL    HW268641   4.035   0.481   9.049  0.0869 -0.5177 -0.5653
21362SOL     OW68642  10.113  11.865   3.611  0.3017 -0.3600 -0.2403
21362SOL    HW168643  10.147  11.953   3.597  1.9574 -1.1181 -1.3237
21362SOL    HW268644  10.127  11.848   3.705  2.2816 -0.3449 -0.4982
21363SOL     OW68645   3.815   2.481   3.925  0.1293  0.2381  0.7465
21363SOL    HW168646   3.821   2.575   3.940 -1.3256  0.5257 -0.2794
21363SOL    HW268647   3.896   2.459   3.879 -0.0432  1.2124 -0.0458
21364SOL     OW68648   8.244  10.183   1.070 -0.1607  0.5484  0.8423
21364SOL    HW168649   8.230  10.101   1.117  2.6804 -0.1229  0.6981
21364SOL    HW268650   8.245  10.250   1.139 -0.3545  0.1848  1.2079
21365SOL     OW68651   9.944   1.185  11.139 -0.2171  0.1193  0.2633
21365SOL    HW168652   9.992   1.138  11.070 -0.8442  0.2963 -0.3001
21365SOL    HW268653  10.003   1.256  11.165  0.2360 -0.2549  0.2755
21366SOL     OW68654   2.296  11.669   2.943 -0.6663 -0.3788 -0.4257
21366SOL    HW168655   2.237  11.698   3.013 -1.4934 -0.4105 -1.0870
21366SOL    HW268656   2.281  11.574   2.937 -1.2105 -0.2558 -1.1793
21367SOL     OW68657   8.634   7.316  11.070  0.3064  0.2278  0.6041
21367SOL    HW168658   8.575   7.338  10.999  1.2214  0.0974 -0.2111
21367SOL    HW268659   8.590   7.245  11.117 -0.7661  1.0043  0.7928
21368SOL     OW68660   8.852   2.901   8.796 -0.0660 -0.5037 -0.4203
21368SOL    HW168661   8.802   2.964   8.849 -0.3261 -0.3001 -0.8968
21368SOL    HW268662   8.898   2.847   8.859 -0.7898 -0.6060  0.0346
21369SOL     OW68663   3.907  10.794   1.948  0.0041 -0.5759 -0.1828
21369SOL    HW168664   3.840  10.819   1.885  0.4240 -0.1681 -0.4743
21369SOL    HW268665   3.859  10.748   2.017 -0.6444  0.1712 -0.1262
21370SOL     OW68666   1.106   4.281   3.865  0.3167 -0.5989 -0.4306
21370SOL    HW168667   1.075   4.253   3.951 -2.4034  0.1653 -1.0618
21370SOL    HW268668   1.068   4.217   3.804 -0.4180  0.6437 -1.3119
21371SOL     OW68669   3.877   6.672   2.345  0.7348  0.0648 -0.1146
21371SOL    HW168670   3.902   6.595   2.397  0.4342 -0.4647 -0.7497
21371SOL    HW268671   3.823   6.638   2.274 -2.3971  1.1805  1.5123
21372SOL     OW68672   3.680  11.678   4.626 -0.1786 -0.3000 -0.4570
21372SOL    HW168673   3.731  11.665   4.546 -0.5886  1.4171 -1.0455
21372SOL    HW268674   3.603  11.622   4.614 -1.1372  1.2378 -2.1604
21373SOL     OW68675   7.575   0.437   2.520 -0.4112  0.5535  0.2225
21373SOL    HW168676   7.533   0.375   2.459 -0.3740  0.9003 -0.1648
21373SOL    HW268677   7.515   0.442   2.594 -0.3605 -0.0289  0.3065
21374SOL     OW68678   4.445   0.782  11.115  0.0436  0.3915 -0.3603
21374SOL    HW168679   4.362   0.818  11.147  0.7582  0.3241  1.6815
21374SOL    HW268680   4.430   0.688  11.108 -0.5645  0.5584 -1.7627
21375SOL     OW68681  10.958  10.483  11.179  0.2167 -0.2987 -0.5752
21375SOL    HW168682  10.913  10.493  11.263 -0.2539  0.0479 -0.8598
21375SOL    HW268683  10.901  10.427  11.128  0.7890 -0.9869 -0.4679
21376SOL     OW68684   9.233   9.352   5.177 -0.6887  0.3146 -0.5626
21376SOL    HW168685   9.308   9.298   5.205 -0.8792 -1.0018 -2.4417
21376SOL    HW268686   9.156   9.302   5.204 -0.9526  1.6217  1.2781
21377SOL     OW68687   7.093   4.687  11.525  0.2311 -0.3921 -0.0748
21377SOL    HW168688   7.148   4.760  11.556  0.3151 -1.5091  2.6796
21377SOL    HW268689   7.152   4.612  11.523 -0.2507 -0.7599 -1.2613
21378SOL     OW68690   9.685   2.016  11.409 -0.1446  0.0284  0.4711
21378SOL    HW168691   9.745   2.082  11.443  0.9485 -0.5050 -0.3394
21378SOL    HW268692   9.611   2.066  11.375  1.0776  0.9719 -0.9697
21379SOL     OW68693   1.649   2.123   2.538  0.0744  0.4474  0.3548
21379SOL    HW168694   1.593   2.067   2.591 -0.1336  1.1134  0.8617
21379SOL    HW268695   1.675   2.194   2.598  1.7926 -0.0502  0.2619
21380SOL     OW68696   9.157   3.407   6.051  0.2589 -0.2855 -0.4557
21380SOL    HW168697   9.094   3.377   6.115 -1.0769  1.8086 -0.6922
21380SOL    HW268698   9.221   3.335   6.044 -0.4403 -1.2391  1.9577
21381SOL     OW68699   5.090   5.447   3.542  0.4530 -0.2893  0.0044
21381SOL    HW168700   5.091   5.360   3.582 -0.7443  0.1154  0.9573
21381SOL    HW268701   5.112   5.506   3.614 -0.0253  0.3085 -0.3401
21382SOL     OW68702   8.920   2.746  11.940 -0.0639  0.0667 -0.1844
21382SOL    HW168703   8.853   2.682  11.916  0.7212 -0.8974  0.0738
21382SOL    HW268704   8.965   2.705  12.015 -0.5915  1.6733  1.0489
21383SOL     OW68705   8.903   1.361   5.310 -0.4400  0.3157 -0.5560
21383SOL    HW168706   8.868   1.450   5.317 -0.2163  0.3855 -0.3189
21383SOL    HW268707   8.860   1.325   5.232 -0.0980  0.8295 -0.9954
21384SOL     OW68708   4.196  11.602   6.113  0.2764  0.0010 -0.3501
21384SOL    HW168709   4.278  11.647   6.094  0.1006  0.1955 -0.6529
21384SOL    HW268710   4.205  11.516   6.071  0.3580 -0.0073 -0.3144
21385SOL     OW68711   8.915   4.993   0.302  0.7007  0.4352 -0.0633
21385SOL    HW168712   8.949   4.962   0.218  2.2304  1.6484  0.0516
21385SOL    HW268713   8.845   5.054   0.279  0.7739  0.3749 -0.4469
21386SOL     OW68714   2.386   0.708  11.797 -0.2379  0.3971  0.2650
21386SOL    HW168715   2.422   0.706  11.886 -2.0718  0.9088  1.0643
21386SOL    HW268716   2.386   0.616  11.770 -0.6454  0.1096  1.2145
21387SOL     OW68717   9.749   7.567   1.357 -0.3093  0.3566 -0.0726
21387SOL    HW168718   9.719   7.582   1.447  0.6295  1.2151  0.1131
21387SOL    HW268719   9.710   7.483   1.332 -0.8619  0.2811  1.0126
21388SOL     OW68720   3.106  10.261   5.384 -0.3100  0.8601  0.1284
21388SOL    HW168721   3.153  10.205   5.322 -0.2692  1.9706 -0.8774
21388SOL    HW268722   3.115  10.216   5.468  1.1948  0.2411 -0.3275
21389SOL     OW68723   7.542   3.620   6.968  0.0475  0.0811 -0.4687
21389SOL    HW168724   7.513   3.665   7.047 -0.0084 -1.5468  0.4924
21389SOL    HW268725   7.472   3.635   6.905  0.9701  3.0176 -0.9065
21390SOL     OW68726   8.494   9.111   6.910 -0.4866 -0.3266 -0.0394
21390SOL    HW168727   8.574   9.070   6.940 -0.5348 -0.2070  0.2541
21390SOL    HW268728   8.522   9.173   6.842 -0.6327 -2.5580 -2.2830
21391SOL     OW68729   1.898   2.498   2.751  0.4284  0.1336  0.0462
21391SOL    HW168730   1.979   2.484   2.702 -0.1835  0.6044 -1.1340
21391SOL    HW268731   1.862   2.579   2.715 -1.1008 -0.6272 -0.1995
21392SOL     OW68732   7.138   9.403   4.685 -0.1575  0.1612 -0.0725
21392SOL    HW168733   7.069   9.448   4.734 -0.1893  0.3045 -0.2475
21392SOL    HW268734   7.116   9.310   4.692 -1.0405  0.2665 -1.1247
21393SOL     OW68735   3.126   1.620   8.893  0.1018 -0.1566 -0.3002
21393SOL    HW168736   3.120   1.686   8.962 -2.3712  0.1505 -0.7108
21393SOL    HW268737   3.147   1.670   8.814 -1.5880  0.1513 -0.5770
21394SOL     OW68738   4.860   6.449   2.873 -0.4648  0.9472 -0.0733
21394SOL    HW168739   4.908   6.532   2.869  0.2594  0.5292 -0.1593
21394SOL    HW268740   4.774   6.473   2.909  0.2172  1.5203  1.2197
21395SOL     OW68741   9.699   3.381  11.773 -0.1437  0.4162 -0.7839
21395SOL    HW168742   9.650   3.300  11.757  0.9724 -0.8200  1.5221
21395SOL    HW268743   9.708   3.385  11.868  2.3018  1.7378 -0.9934
21396SOL     OW68744   0.795   1.665   0.834 -0.4395 -0.1346 -0.1587
21396SOL    HW168745   0.801   1.669   0.739 -2.0670 -2.4687 -0.4465
21396SOL    HW268746   0.882   1.691   0.865  0.4748 -0.4181 -2.3291
21397SOL     OW68747   3.742  11.607   1.442  0.0476 -0.9441  0.0952
21397SOL    HW168748   3.771  11.680   1.497 -0.4839  0.7270 -1.7709
21397SOL    HW268749   3.665  11.572   1.487  1.4572 -1.7551  2.0686
21398SOL     OW68750   2.488   4.595   6.346  0.3301 -0.5058  0.0060
21398SOL    HW168751   2.559   4.546   6.304 -0.2032 -1.1797 -0.1276
21398SOL    HW268752   2.478   4.553   6.432 -0.4086 -0.9026 -0.2715
21399SOL     OW68753   8.374   7.882  10.469 -0.3258 -0.1358  0.5011
21399SOL    HW168754   8.458   7.839  10.452 -0.2890 -0.2597  0.9716
21399SOL    HW268755   8.397   7.973  10.486 -0.2896 -0.1644  0.6053
21400SOL     OW68756   0.531   2.192   1.272 -0.0621 -0.2438 -0.2501
21400SOL    HW168757   0.450   2.141   1.276 -0.5908  0.4164 -1.8409
21400SOL    HW268758   0.593   2.137   1.225  0.5837 -0.9167  1.3216
21401SOL     OW68759   7.549  11.384   3.999  0.4755 -0.0512 -0.4281
21401SOL    HW168760   7.614  11.358   4.065  0.3698  1.4437  0.2932
21401SOL    HW268761   7.464  11.365   4.039  0.4303 -0.4186 -0.6913
21402SOL     OW68762   7.310   7.352   6.913  0.2337  0.5553  0.1126
21402SOL    HW168763   7.313   7.446   6.929  0.8460  0.7648 -1.1504
21402SOL    HW268764   7.360   7.314   6.985 -3.7924  0.7257  3.4152
21403SOL     OW68765   6.837   5.308   4.760  0.2714 -0.2151 -0.3432
21403SOL    HW168766   6.837   5.380   4.823 -0.1550  1.4948 -2.2042
21403SOL    HW268767   6.928   5.276   4.761  1.1649  2.0928 -1.3282
21404SOL     OW68768   4.785   7.740   5.016  0.2666  0.2072  0.3705
21404SOL    HW168769   4.718   7.785   4.964  0.8388  0.2812 -0.3056
21404SOL    HW268770   4.753   7.650   5.023 -0.1382  0.3533  0.4613
21405SOL     OW68771   4.752   8.383   5.143  0.3545 -0.2852 -1.2110
21405SOL    HW168772   4.662   8.406   5.167  1.0722  0.7134  0.7607
21405SOL    HW268773   4.742   8.318   5.073 -1.8947 -0.5936 -0.6945
21406SOL     OW68774   4.521   8.972   9.218  0.2654  0.2314 -0.4315
21406SOL    HW168775   4.511   9.066   9.211 -0.7808  0.0222 -2.4563
21406SOL    HW268776   4.433   8.938   9.233  0.7056 -0.4237  0.9231
21407SOL     OW68777   0.343   9.922   4.646 -0.0315  0.1077  0.0385
21407SOL    HW168778   0.426   9.963   4.669  0.6730 -1.9919  1.5911
21407SOL    HW268779   0.290   9.931   4.725 -0.8858  0.4470 -0.5625
21408SOL     OW68780   4.574   2.859  11.632 -0.0083 -0.0282  0.5106
21408SOL    HW168781   4.606   2.812  11.556 -2.0401  0.6528 -0.8590
21408SOL    HW268782   4.632   2.832  11.703  0.5740 -2.4425 -0.7641
21409SOL     OW68783   0.102   5.036   7.618 -0.4894 -0.0407 -0.1385
21409SOL    HW168784   0.082   4.994   7.702 -2.5071  0.3744 -0.3592
21409SOL    HW268785   0.094   4.965   7.554  0.9894 -0.3434 -0.0333
21410SOL     OW68786   0.181   8.433  10.864 -0.5378 -0.9143 -0.6224
21410SOL    HW168787   0.161   8.515  10.819  0.3688 -1.2323 -1.6336
21410SOL    HW268788   0.108   8.421  10.925  0.2330  1.6506  0.9816
21411SOL     OW68789  11.584   3.223   8.025 -0.0915  0.2881 -0.3127
21411SOL    HW168790  11.672   3.191   8.007  0.5013  2.1403 -0.8634
21411SOL    HW268791  11.594   3.285   8.097 -0.9352  0.5528 -0.4141
21412SOL     OW68792   3.838  11.029   2.896  0.6291 -0.1248 -0.1409
21412SOL    HW168793   3.801  10.945   2.923  0.2953 -0.8944 -2.7515
21412SOL    HW268794   3.765  11.091   2.899  0.2118 -0.5770 -0.8498
21413SOL     OW68795   3.559  10.110   4.762 -0.1971  0.2053 -0.1063
21413SOL    HW168796   3.532  10.166   4.834 -0.6108 -0.2567  0.1049
21413SOL    HW268797   3.635  10.062   4.796 -1.2342 -1.0252  0.5177
21414SOL     OW68798   0.381   5.496  11.452 -0.1047 -0.4476 -0.6040
21414SOL    HW168799   0.437   5.455  11.387 -0.0877  0.5390 -1.2254
21414SOL    HW268800   0.437   5.508  11.529  0.1946 -0.5456 -0.8095
21415SOL     OW68801  11.195  10.451   2.502 -0.0392  0.5541 -0.0845
21415SOL    HW168802  11.229  10.540   2.496  1.8533 -0.1696 -0.9287
21415SOL    HW268803  11.223  10.421   2.589  1.8156 -0.1145 -0.8607
21416SOL     OW68804   9.047  10.911  10.742 -0.3723 -0.1717  0.1095
21416SOL    HW168805   8.995  10.964  10.803 -2.1616  0.5741 -1.9351
21416SOL    HW268806   9.127  10.963  10.729 -0.0515 -0.2415  1.5979
21417SOL     OW68807   5.355   3.014   3.653 -0.1619  0.4031 -0.3523
21417SOL    HW168808   5.276   2.967   3.625  0.3719 -0.2553 -0.7628
21417SOL    HW268809   5.420   2.994   3.585  0.9660 -0.6814  0.9990
21418SOL     OW68810   7.007   3.544   5.037 -0.8446 -0.2219  0.0316
21418SOL    HW168811   6.978   3.604   5.106 -1.6779  1.4993 -1.7117
21418SOL    HW268812   7.102   3.545   5.043 -0.9042 -0.7089  1.5993
21419SOL     OW68813   8.408   2.677   7.172  0.1123 -0.2108 -0.1035
21419SOL    HW168814   8.350   2.691   7.097  1.0072 -0.9050 -0.9360
21419SOL    HW268815   8.355   2.625   7.233 -1.1458  1.6069  0.4358
21420SOL     OW68816   1.407   2.037   1.523 -0.0556  0.2769 -0.0199
21420SOL    HW168817   1.411   2.056   1.616 -2.0612 -0.6330  0.3136
21420SOL    HW268818   1.474   1.969   1.509 -1.3410 -1.3511  1.3015
21421SOL     OW68819   9.510  10.205   2.774  0.0874 -0.8540 -0.2366
21421SOL    HW168820   9.504  10.120   2.730  1.0463 -0.0518 -1.9748
21421SOL    HW268821   9.473  10.267   2.712  0.2698  0.1420  0.6267
21422SOL     OW68822   7.164   4.876   3.267  0.0248  0.1819 -0.0739
21422SOL    HW168823   7.177   4.884   3.361  1.7653 -0.4830 -0.2097
21422SOL    HW268824   7.149   4.782   3.252  2.9859 -0.3054 -0.7018
21423SOL     OW68825   6.853   9.585   3.472  0.3199 -0.6786  0.6662
21423SOL    HW168826   6.840   9.620   3.560 -2.2999 -1.5734  0.7284
21423SOL    HW268827   6.855   9.490   3.484  0.7770 -0.7835 -0.1721
21424SOL     OW68828   4.806   5.889   3.083 -0.0878  0.4768  0.6030
21424SOL    HW168829   4.747   5.920   3.152 -1.7337 -0.6938 -0.1999
21424SOL    HW268830   4.770   5.804   3.058  0.7252  0.6678 -1.3794
21425SOL     OW68831   8.937  11.120   8.944  0.7711 -0.4075 -0.3000
21425SOL    HW168832   8.974  11.032   8.934  0.6738 -0.3020 -1.7557
21425SOL    HW268833   9.002  11.177   8.903  0.8330  0.2193  0.6362
21426SOL     OW68834   7.356   3.447   5.700  0.1738 -0.1013  0.2338
21426SOL    HW168835   7.394   3.394   5.770 -1.2182  0.7989  1.7320
21426SOL    HW268836   7.411   3.428   5.623  2.9923  0.3722  1.9902
21427SOL     OW68837  11.754   1.780   4.379  0.1315  0.3303 -0.1894
21427SOL    HW168838  11.678   1.832   4.354  0.0920  0.1655 -0.4115
21427SOL    HW268839  11.746   1.699   4.330  0.9822  0.7101 -0.9944
21428SOL     OW68840   6.935   8.342  10.804 -1.2048  0.2780  0.3126
21428SOL    HW168841   6.841   8.325  10.811 -0.7617 -2.8359 -0.0678
21428SOL    HW268842   6.973   8.297  10.880 -0.0258  1.9687  0.7727
21429SOL     OW68843   9.716   9.862   9.735  0.0639 -0.4810 -0.6586
21429SOL    HW168844   9.694   9.895   9.822  0.2579 -3.1555  0.5149
21429SOL    HW268845   9.797   9.907   9.711  0.5814 -0.4673  1.0288
21430SOL     OW68846   7.923   8.893   5.315  0.0016 -0.3423 -0.1199
21430SOL    HW168847   7.884   8.841   5.245  0.6098  0.0800 -0.7886
21430SOL    HW268848   7.856   8.958   5.337 -0.3329 -0.7073 -0.0460
21431SOL     OW68849   8.718   5.822   6.129 -0.3588 -0.0139 -0.0883
21431SOL    HW168850   8.763   5.863   6.055  0.3216  0.0614  0.3592
21431SOL    HW268851   8.761   5.738   6.141  0.6952  0.6854  1.2865
21432SOL     OW68852   4.065  11.494   9.945 -0.6119  0.6935  0.0315
21432SOL    HW168853   4.002  11.447  10.000  0.3967 -0.2119  0.4214
21432SOL    HW268854   4.117  11.546  10.007 -0.9406  1.4301 -0.2906
21433SOL     OW68855   0.359   9.234   5.801  0.3672 -0.9243 -0.3017
21433SOL    HW168856   0.271   9.196   5.801  0.9100 -2.2268  0.3966
21433SOL    HW268857   0.345   9.325   5.827 -0.6752 -1.3770  0.8473
21434SOL     OW68858   1.517   0.699   2.494  0.2423  0.0584 -0.1287
21434SOL    HW168859   1.423   0.683   2.488  0.2369 -0.0577  0.2112
21434SOL    HW268860   1.556   0.624   2.449  0.1520  0.6464 -1.1970
21435SOL     OW68861  12.110   6.735   9.180  0.0684 -0.4989 -0.3489
21435SOL    HW168862  12.154   6.819   9.196  1.3052 -1.3177  0.6840
21435SOL    HW268863  12.017   6.757   9.177  0.4454  1.2528 -2.3475
21436SOL     OW68864   6.590   8.327   8.682 -0.0474  0.2187  0.1220
21436SOL    HW168865   6.602   8.262   8.751  0.6084  0.8743  0.6344
21436SOL    HW268866   6.506   8.305   8.642 -1.5944  1.2176  2.6370
21437SOL     OW68867   6.268   0.091   4.703 -0.5419 -0.6023 -0.0894
21437SOL    HW168868   6.321   0.012   4.712 -0.2553 -0.3556  0.4344
21437SOL    HW268869   6.178   0.060   4.711 -0.5902 -1.2090 -2.2281
21438SOL     OW68870   2.284   9.677   8.699  0.3093  0.2710  0.3959
21438SOL    HW168871   2.310   9.586   8.710 -0.1525  0.1418  0.4472
21438SOL    HW268872   2.203   9.686   8.750 -0.1568  0.4616 -0.3496
21439SOL     OW68873   6.900   9.362   6.870  0.3138 -0.2792  0.2832
21439SOL    HW168874   6.959   9.418   6.921  0.7102  0.3419 -0.8214
21439SOL    HW268875   6.891   9.407   6.786  1.0469 -2.0978 -0.8359
21440SOL     OW68876  10.331   7.236   4.249  0.1074 -0.3691  0.2319
21440SOL    HW168877  10.417   7.227   4.208  0.1522 -1.5297  0.5390
21440SOL    HW268878  10.300   7.322   4.221  0.8288 -0.4516 -0.8968
21441SOL     OW68879   4.609   5.240   8.403  0.0314 -0.0535  0.5254
21441SOL    HW168880   4.545   5.274   8.340  2.7163  2.3719 -1.1705
21441SOL    HW268881   4.620   5.148   8.378 -0.1094  0.4524 -1.6132
21442SOL     OW68882   5.555  11.008  11.059 -0.0506  0.1081 -0.3603
21442SOL    HW168883   5.473  10.964  11.080  0.3003 -1.1844 -1.5209
21442SOL    HW268884   5.615  10.937  11.036  0.7636  1.1374 -1.5849
21443SOL     OW68885   6.768   5.793   7.335 -0.6832  0.2025  0.1377
21443SOL    HW168886   6.683   5.762   7.367 -1.3772  0.2326 -1.5455
21443SOL    HW268887   6.777   5.752   7.249  0.6371  0.8538 -0.0578
21444SOL     OW68888   7.295   6.486   5.757 -0.1378 -0.2211  0.0425
21444SOL    HW168889   7.283   6.581   5.757 -0.4856 -0.2640 -0.4019
21444SOL    HW268890   7.230   6.455   5.821  1.4710  0.0084  1.8864
21445SOL     OW68891  11.282   3.041   5.632 -0.3152 -0.0990  0.1493
21445SOL    HW168892  11.317   2.952   5.633  0.4740  0.1778 -0.7410
21445SOL    HW268893  11.327   3.085   5.704 -1.1728 -0.5687  0.9962
21446SOL     OW68894   5.868   6.712   2.327 -0.3550 -0.2471 -0.2181
21446SOL    HW168895   5.800   6.645   2.329 -2.1201  1.4690 -0.3886
21446SOL    HW268896   5.883   6.735   2.418  0.6439 -1.2146 -0.1210
21447SOL     OW68897   8.806   7.463   7.060 -0.6484 -0.0325  0.2911
21447SOL    HW168898   8.766   7.546   7.084  2.3390  0.9972  2.2743
21447SOL    HW268899   8.873   7.486   6.997 -0.9361 -1.2238 -0.4738
21448SOL     OW68900  10.021  10.274   8.238  0.1432 -0.8286 -0.0475
21448SOL    HW168901  10.013  10.362   8.276  0.0409  0.2701 -2.4666
21448SOL    HW268902  10.101  10.239   8.277  1.2264  1.1039 -0.4158
21449SOL     OW68903   5.654   1.376   7.600 -0.0151  0.1025 -0.5324
21449SOL    HW168904   5.638   1.307   7.665 -0.1862  0.3417 -0.3168
21449SOL    HW268905   5.728   1.345   7.549  1.4816  0.8116  1.0984
21450SOL     OW68906   5.010  11.940   0.256 -0.4874 -0.2726  0.2262
21450SOL    HW168907   4.940  11.877   0.271  1.1424 -2.1557  0.3417
21450SOL    HW268908   5.023  11.939   0.161 -0.7847  0.2637  0.1797
21451SOL     OW68909   6.040   4.201   6.040  0.1479 -0.8687  0.2729
21451SOL    HW168910   6.054   4.128   6.101  1.2788 -0.5457  0.4067
21451SOL    HW268911   5.981   4.165   5.973 -1.0934 -1.2365  1.5106
21452SOL     OW68912   3.345  10.981   8.067  0.4934 -0.2523  0.3205
21452SOL    HW168913   3.395  11.027   7.999 -0.4645 -0.3676 -0.4865
21452SOL    HW268914   3.382  10.893   8.067  1.6785  0.2268  1.1906
21453SOL     OW68915   5.790   8.993   7.087  0.1953  0.1002  0.1854
21453SOL    HW168916   5.698   8.967   7.093  0.0124  0.4447 -0.9882
21453SOL    HW268917   5.808   8.998   6.993  1.1458  0.9736  0.3980
21454SOL     OW68918   4.555   6.801   4.663  0.6570 -0.1598  0.2452
21454SOL    HW168919   4.553   6.707   4.681  2.5186  0.0720  1.9886
21454SOL    HW268920   4.486   6.814   4.598 -1.1790 -2.3710  1.5954
21455SOL     OW68921   2.619  11.756   6.263 -0.3256 -0.3464 -0.4964
21455SOL    HW168922   2.651  11.811   6.191 -0.4400 -0.6149 -0.7572
21455SOL    HW268923   2.692  11.699   6.284 -0.6650 -1.0578 -1.1899
21456SOL     OW68924   4.243   3.459   0.290  0.4408 -0.6462  0.1100
21456SOL    HW168925   4.167   3.517   0.299  0.2166 -0.5667 -1.8559
21456SOL    HW268926   4.316   3.519   0.276  0.7514 -0.7558  1.1928
21457SOL     OW68927   0.166  10.669   6.620  0.4642 -0.3271  0.0438
21457SOL    HW168928   0.144  10.676   6.713 -0.9163 -0.0957 -0.2821
21457SOL    HW268929   0.133  10.583   6.593  0.0425 -0.0298 -0.4251
21458SOL     OW68930   5.998   5.285   8.226 -0.7512  0.6078 -0.6811
21458SOL    HW168931   5.927   5.311   8.168 -0.6003  1.7866 -0.3602
21458SOL    HW268932   5.967   5.307   8.314  0.3158  1.9472 -0.5970
21459SOL     OW68933   1.333  10.041   3.461  0.4511  0.3004 -0.7479
21459SOL    HW168934   1.249  10.086   3.463  0.7525  0.8614 -0.0161
21459SOL    HW268935   1.376  10.068   3.542 -0.1613 -2.8435  0.8072
21460SOL     OW68936   1.616   2.380   8.632 -0.5443 -0.1204 -0.1401
21460SOL    HW168937   1.711   2.384   8.631 -0.4183 -1.8980  0.7858
21460SOL    HW268938   1.589   2.450   8.692  0.0701  1.3445 -1.5296
21461SOL     OW68939   3.044   7.532   9.177  0.2516 -0.5620  0.1528
21461SOL    HW168940   3.097   7.469   9.128  2.1049  0.2324  1.0252
21461SOL    HW268941   3.014   7.483   9.254  3.0956 -0.1024  1.7330
21462SOL     OW68942   9.294   5.882   3.119 -0.2766 -0.2588 -0.1973
21462SOL    HW168943   9.252   5.799   3.095  0.2427 -0.1962 -1.3451
21462SOL    HW268944   9.370   5.888   3.063 -0.2549  0.9645 -0.0587
21463SOL     OW68945   0.988  10.170  11.011  0.4267  1.0241  0.0417
21463SOL    HW168946   0.932  10.101  11.046  2.2508  0.1233  1.3299
21463SOL    HW268947   0.940  10.251  11.029  0.4123  0.4576  2.9891
21464SOL     OW68948  10.527   8.470   0.559  0.6087 -0.0218  0.2662
21464SOL    HW168949  10.434   8.473   0.579  0.9329 -1.8838  2.3804
21464SOL    HW268950  10.569   8.523   0.627  1.2629 -1.1375  0.7520
21465SOL     OW68951   6.230   9.305   0.616 -0.2649 -0.0472  0.4662
21465SOL    HW168952   6.184   9.389   0.625 -0.7139 -0.2622  0.2147
21465SOL    HW268953   6.297   9.322   0.550 -0.1234  0.2092  0.6730
21466SOL     OW68954  10.503   3.552   3.226 -0.7924 -0.1671  0.0747
21466SOL    HW168955  10.440   3.533   3.157 -1.8434  0.1198  0.9179
21466SOL    HW268956  10.487   3.486   3.293 -0.1966 -0.0793  0.3165
21467SOL     OW68957   9.265  11.013   7.270 -0.0615 -0.0085  0.3060
21467SOL    HW168958   9.187  10.961   7.250  0.8314 -1.2975  0.1002
21467SOL    HW268959   9.320  10.955   7.323  0.9646  0.7091  0.0575
21468SOL     OW68960   4.694   6.757   8.018 -0.5197 -0.4920  0.2587
21468SOL    HW168961   4.789   6.764   8.010 -0.7372  1.9556 -1.1644
21468SOL    HW268962   4.679   6.665   8.041  2.0145 -1.8901 -2.8360
21469SOL     OW68963   1.125   4.011   8.449  0.1884 -0.1065  0.1188
21469SOL    HW168964   1.149   3.927   8.489  1.0211  0.4171  0.7565
21469SOL    HW268965   1.079   4.059   8.518 -0.6454 -0.1726 -0.3661
21470SOL     OW68966   8.343   2.101   1.170 -0.1508 -0.5211  0.1718
21470SOL    HW168967   8.384   2.149   1.241  1.9561 -1.6793 -0.1895
21470SOL    HW268968   8.284   2.165   1.129 -0.8368  0.3879  2.4268
21471SOL     OW68969   1.460   2.651  12.067 -0.3552 -0.0612 -0.3969
21471SOL    HW168970   1.389   2.713  12.052 -0.5074  0.1549  1.0951
21471SOL    HW268971   1.540   2.703  12.060 -0.4569  0.1866  0.2535
21472SOL     OW68972   6.528   0.755   3.931 -0.0777 -0.1531  0.0558
21472SOL    HW168973   6.534   0.682   3.869 -0.1313  0.3457 -0.5473
21472SOL    HW268974   6.445   0.797   3.910  0.5539  0.8583 -0.4760
21473SOL     OW68975  11.942  11.037   4.846  0.2587  0.0162  0.1121
21473SOL    HW168976  11.965  10.959   4.796  1.8640  0.7126 -0.2685
21473SOL    HW268977  11.917  11.102   4.781 -0.3830  0.0523  0.3865
21474SOL     OW68978  11.863   7.054   7.142  0.4315  0.9830  0.3982
21474SOL    HW168979  11.917   6.991   7.189 -0.8416 -0.7338 -0.3171
21474SOL    HW268980  11.775   7.039   7.176  0.2705  3.4770  1.2962
21475SOL     OW68981   6.406   0.147   0.686  0.3407  0.2773 -0.2878
21475SOL    HW168982   6.435   0.210   0.620  0.9436  0.2996 -0.0040
21475SOL    HW268983   6.371   0.074   0.635 -1.7897  1.4394 -0.6356
21476SOL     OW68984   0.092  11.403  10.182  0.1257 -0.2722 -0.2806
21476SOL    HW168985   0.065  11.491  10.157  0.0619 -0.1443  0.2333
21476SOL    HW268986   0.167  11.416  10.239  0.4275 -0.5736 -0.6000
21477SOL     OW68987   0.994   6.645   7.653 -0.0424  0.1300  0.4453
21477SOL    HW168988   0.961   6.711   7.592  1.0887  0.7775  0.4988
21477SOL    HW268989   0.918   6.591   7.673 -0.2100 -0.9885 -2.6093
21478SOL     OW68990   1.183   9.472   0.989  0.0473  0.1896 -0.1193
21478SOL    HW168991   1.171   9.455   1.083 -0.6901  2.1655  0.1820
21478SOL    HW268992   1.095   9.494   0.958  0.5471  1.0851 -0.9369
21479SOL     OW68993   1.615   4.754   6.445  0.5262  0.0139 -0.3550
21479SOL    HW168994   1.599   4.710   6.362 -0.6422  0.8784 -0.6022
21479SOL    HW268995   1.710   4.765   6.448  0.5211  0.6271 -1.9087
21480SOL     OW68996   7.080  11.379  11.796 -0.4468 -0.2632 -0.2777
21480SOL    HW168997   7.102  11.287  11.812 -0.9113 -0.4845 -0.9034
21480SOL    HW268998   7.028  11.404  11.873  0.7970 -0.1217  0.5551
21481SOL     OW68999   6.041   3.816   5.055 -0.2088  0.1153 -0.3183
21481SOL    HW169000   6.031   3.750   4.987  0.6771 -2.3082  1.7582
21481SOL    HW269001   6.112   3.784   5.110 -1.2544  1.6493  2.1043
21482SOL     OW69002   4.101   3.789  10.525 -0.1886 -0.0949 -0.4616
21482SOL    HW169003   4.020   3.749  10.496 -0.5146  0.4669 -0.3370
21482SOL    HW269004   4.109   3.869  10.472 -0.0274  0.1643 -0.0549
21483SOL     OW69005   2.728   9.886   3.150  0.1278 -0.3039 -0.1462
21483SOL    HW169006   2.749   9.975   3.123 -1.2119  0.0481 -0.0932
21483SOL    HW269007   2.801   9.833   3.118  0.5517  0.6886 -0.8638
21484SOL     OW69008   9.165   5.280   2.189 -0.6601 -0.4337  0.6049
21484SOL    HW169009   9.201   5.354   2.238 -0.9844  0.1989 -0.0838
21484SOL    HW269010   9.215   5.204   2.219  0.3062  0.2119  0.6735
21485SOL     OW69011   7.068   3.914  11.836 -0.2899 -0.3104 -0.9884
21485SOL    HW169012   7.061   4.009  11.835  1.8252 -0.1044 -1.2558
21485SOL    HW269013   7.074   3.891  11.929 -1.4975 -0.2672 -0.8916
21486SOL     OW69014  11.352   4.439   4.725  0.2697  0.3455  0.6346
21486SOL    HW169015  11.432   4.408   4.769 -0.3472 -1.5638  0.5358
21486SOL    HW269016  11.282   4.386   4.763 -0.6295  0.3905 -0.8738
21487SOL     OW69017  10.957   6.379  10.194  0.5202 -0.0358 -0.6796
21487SOL    HW169018  10.890   6.341  10.136  2.4241 -0.9856 -2.4355
21487SOL    HW269019  10.923   6.465  10.217 -1.6849 -0.8143 -0.7556
21488SOL     OW69020   3.730  10.006   2.728 -0.1222 -0.2326  0.1955
21488SOL    HW169021   3.802   9.965   2.776  0.3604  2.2575  1.7723
21488SOL    HW269022   3.652   9.961   2.758  0.4367 -0.4232  1.4087
21489SOL     OW69023   6.900  11.026   2.513  0.6960  0.2600 -0.2296
21489SOL    HW169024   6.834  10.957   2.516 -0.3772  1.2529 -0.3332
21489SOL    HW269025   6.903  11.052   2.421  0.2991  1.0908 -0.0110
21490SOL     OW69026  11.269  12.119   7.143 -0.2724 -0.3678 -0.7807
21490SOL    HW169027  11.242  12.032   7.114  1.3181 -1.3963  0.6815
21490SOL    HW269028  11.354  12.106   7.183  0.2310  1.9724 -0.9660
21491SOL     OW69029   3.779   0.055   9.723  0.9913  0.0092  0.0295
21491SOL    HW169030   3.871   0.032   9.708  0.3885 -2.3662 -0.5039
21491SOL    HW269031   3.743  -0.022   9.767 -1.1182  0.2166 -1.2353
21492SOL     OW69032   2.813   7.866   1.516  0.8041  0.4699  0.0026
21492SOL    HW169033   2.869   7.913   1.577  0.7678  1.4464 -0.6866
21492SOL    HW269034   2.817   7.918   1.435  0.0674 -0.2449 -0.5105
21493SOL     OW69035   7.341  11.282  10.962  0.4721  0.2866 -0.3083
21493SOL    HW169036   7.323  11.284  11.056  0.4886 -0.9603 -0.2544
21493SOL    HW269037   7.256  11.295  10.921 -0.0024 -1.6662 -0.0746
21494SOL     OW69038   8.728   5.827   6.877  0.1355  0.4795  0.0214
21494SOL    HW169039   8.676   5.784   6.945 -0.8527  2.3869  0.5571
21494SOL    HW269040   8.663   5.861   6.816  0.9805 -0.4531 -1.4435
21495SOL     OW69041   2.094   0.752   7.267  0.4324 -0.1657 -0.1975
21495SOL    HW169042   2.030   0.775   7.334  0.8609  1.2032 -0.2216
21495SOL    HW269043   2.068   0.801   7.190 -0.5907 -2.4246 -1.4012
21496SOL     OW69044   2.285  11.994   3.155 -0.6154  0.5463  0.5096
21496SOL    HW169045   2.313  12.072   3.202  0.8342 -0.2438  1.0435
21496SOL    HW269046   2.221  11.952   3.212  1.5281 -0.6932  2.1505
21497SOL     OW69047   1.840  10.951   9.925 -0.4962  0.1875  0.5754
21497SOL    HW169048   1.766  10.919   9.874 -0.8028  1.1550  0.3774
21497SOL    HW269049   1.801  11.000   9.997 -0.0555 -0.2537  1.1225
21498SOL     OW69050   7.682   8.129  10.781  0.1225 -0.5122 -0.0130
21498SOL    HW169051   7.636   8.208  10.755 -1.0998 -1.2900 -0.2865
21498SOL    HW269052   7.773   8.145  10.757 -0.2943  0.3678 -1.0972
21499SOL     OW69053   7.537   4.408   8.674  0.1019  0.2537  0.1373
21499SOL    HW169054   7.591   4.358   8.613  2.7712  2.2151  0.7160
21499SOL    HW269055   7.550   4.499   8.648 -1.4399  0.9120  1.5386
21500SOL     OW69056   4.893   2.222   7.276  0.0665 -0.1421 -0.0201
21500SOL    HW169057   4.974   2.172   7.285 -0.2041 -0.3902  1.2744
21500SOL    HW269058   4.847   2.181   7.203  1.0361 -0.0835 -0.6835
21501SOL     OW69059   2.374   6.436   6.443 -0.3971 -0.0050 -0.1974
21501SOL    HW169060   2.307   6.369   6.430 -1.1601  0.4057  1.3367
21501SOL    HW269061   2.375   6.451   6.538  1.4679  0.4251 -0.2563
21502SOL     OW69062   1.084   9.178   5.162  0.6808  0.0071  0.2193
21502SOL    HW169063   1.026   9.115   5.204 -0.2609  0.2642 -0.6498
21502SOL    HW269064   1.135   9.215   5.234 -0.5797  0.1146  1.1049
21503SOL     OW69065  11.965   8.369   0.963 -0.2282  0.2743 -0.1532
21503SOL    HW169066  11.930   8.353   1.051  0.4171  0.5444  0.1555
21503SOL    HW269067  12.012   8.288   0.941 -0.4145  0.1958 -0.2613
21504SOL     OW69068   2.162   7.912   6.181  0.4327  0.0000  0.0396
21504SOL    HW169069   2.137   7.845   6.117 -0.3090  0.0285  0.2869
21504SOL    HW269070   2.213   7.976   6.131  0.0913 -0.1138 -0.4643
21505SOL     OW69071   1.928   3.534   9.244 -0.0343 -0.1302 -0.2636
21505SOL    HW169072   1.855   3.483   9.278  1.4889 -1.8808  0.5407
21505SOL    HW269073   1.902   3.625   9.259 -2.4867 -0.6366 -1.0278
21506SOL     OW69074   5.421   3.173   2.873 -0.1196 -0.1803  0.4286
21506SOL    HW169075   5.441   3.266   2.887 -0.3552 -0.2478  1.2631
21506SOL    HW269076   5.366   3.172   2.795 -2.0668  0.6236  1.7234
21507SOL     OW69077  11.172  11.068   2.152 -0.3333 -0.1861 -0.4793
21507SOL    HW169078  11.136  11.153   2.127 -1.6625 -0.7557 -0.5672
21507SOL    HW269079  11.103  11.005   2.132  0.3595 -1.2145  0.2342
21508SOL     OW69080   9.788   2.271   5.208 -0.5724 -0.2139 -0.5100
21508SOL    HW169081   9.847   2.334   5.166  3.8650 -1.5958  2.8799
21508SOL    HW269082   9.818   2.185   5.177 -0.6593 -0.9787  1.4198
21509SOL     OW69083   5.214   9.231   0.058 -0.2730 -0.0727 -0.0445
21509SOL    HW169084   5.128   9.244   0.017 -0.3016 -2.0896 -0.7292
21509SOL    HW269085   5.270   9.298   0.019 -1.1002  0.0895 -0.9853
21510SOL     OW69086  11.067   1.254   7.411  0.2036  0.2220 -0.2558
21510SOL    HW169087  11.096   1.177   7.461 -0.4738 -0.3232 -0.6734
21510SOL    HW269088  10.975   1.264   7.435 -0.3695 -0.5460 -1.9768
21511SOL     OW69089   3.050  10.801   3.335  0.0672  0.0338 -0.0156
21511SOL    HW169090   2.978  10.802   3.273  1.0861  0.2764 -1.2320
21511SOL    HW269091   3.103  10.725   3.309  0.0053 -0.4496  1.1779
21512SOL     OW69092  10.032   0.588   4.806 -0.1479 -0.2909  0.3170
21512SOL    HW169093   9.988   0.651   4.749 -2.1095 -0.5439  1.4595
21512SOL    HW269094  10.026   0.505   4.759 -1.2229 -0.3889  0.6173
21513SOL     OW69095   6.287   0.052   7.366  0.3777  0.0870  0.1863
21513SOL    HW169096   6.206   0.015   7.400  0.2293 -0.4374 -0.6962
21513SOL    HW269097   6.293   0.139   7.405  0.6927 -0.8088  2.2471
21514SOL     OW69098   5.261   2.361   9.295  0.2427 -0.5502 -0.2480
21514SOL    HW169099   5.179   2.346   9.248  0.2875  1.5955 -1.1491
21514SOL    HW269100   5.318   2.403   9.230 -0.0768  3.6085  1.8263
21515SOL     OW69101   4.225  11.148   7.399  0.1601  0.3044  0.0725
21515SOL    HW169102   4.227  11.084   7.328 -0.0011  0.2718  0.0961
21515SOL    HW269103   4.276  11.222   7.365  0.1970  0.2355 -0.0247
21516SOL     OW69104   7.918  11.059  12.020  0.1087  0.3497  0.0277
21516SOL    HW169105   7.848  10.993  12.023 -0.7414  1.2398  0.0891
21516SOL    HW269106   7.875  11.141  12.045  0.8333  1.2041 -1.3881
21517SOL     OW69107  10.996   9.533   7.973 -0.3787  0.1141  0.1914
21517SOL    HW169108  10.963   9.512   7.886 -2.4999 -1.3561  1.2617
21517SOL    HW269109  10.994   9.450   8.021  3.6566  0.2130  0.8656
21518SOL     OW69110   9.001  11.613   1.021 -0.2319  0.8332 -0.2628
21518SOL    HW169111   8.908  11.630   1.033 -0.2557  1.4969 -1.2918
21518SOL    HW269112   9.036  11.694   0.985  1.1289  1.2711  1.8615
21519SOL     OW69113   4.877   2.244  10.122 -0.3086  0.3362 -0.4608
21519SOL    HW169114   4.829   2.165  10.097 -0.1949  0.1062  0.0331
21519SOL    HW269115   4.812   2.297  10.170 -0.1490  0.1563 -0.0465
21520SOL     OW69116   8.421   8.673   3.779 -0.0595  0.6666 -0.4405
21520SOL    HW169117   8.479   8.651   3.851 -2.0230 -0.6622  0.8235
21520SOL    HW269118   8.409   8.591   3.732 -0.5909  1.0169 -0.9274
21521SOL     OW69119   1.936   9.641  10.428 -0.1761 -0.5193 -0.3795
21521SOL    HW169120   1.893   9.689  10.499  0.9751  0.7371 -0.4870
21521SOL    HW269121   2.028   9.663  10.437  0.1088 -1.0490 -1.7434
21522SOL     OW69122   8.001   6.911   4.601  0.4351 -0.3632 -0.4881
21522SOL    HW169123   8.037   6.858   4.530 -0.0215 -0.2984 -0.7749
21522SOL    HW269124   8.040   6.875   4.680 -0.8133 -1.9874 -0.5411
21523SOL     OW69125   1.003  10.688   7.601  0.2785  0.4808 -0.8622
21523SOL    HW169126   0.925  10.676   7.546  1.4287 -0.0656 -2.4556
21523SOL    HW269127   0.978  10.652   7.686 -0.8900 -0.5839 -1.6238
21524SOL     OW69128   0.573   6.694   8.364  0.2842  0.4025  0.0097
21524SOL    HW169129   0.513   6.697   8.290  1.1085  3.3241 -0.6573
21524SOL    HW269130   0.616   6.609   8.356 -2.7682 -1.2998 -0.1778
21525SOL     OW69131  10.791   6.524   1.513  0.3038  0.3115 -0.5970
21525SOL    HW169132  10.835   6.453   1.466 -0.2194 -0.2828 -0.1963
21525SOL    HW269133  10.732   6.480   1.574  1.1190  1.0594  0.7866
21526SOL     OW69134   0.955   6.664  10.491  0.0264  0.2978  0.3756
21526SOL    HW169135   1.030   6.609  10.466 -0.1240  0.3329 -0.1721
21526SOL    HW269136   0.986   6.754  10.475 -0.6724  0.2635 -1.4668
21527SOL     OW69137   3.577   6.902   2.710  0.0923 -0.8399  0.6249
21527SOL    HW169138   3.526   6.958   2.651  0.4912  0.2939  1.3163
21527SOL    HW269139   3.533   6.817   2.706 -0.6004 -0.4575 -0.3756
21528SOL     OW69140   2.130   0.041   2.263 -0.0410  0.3897  0.2144
21528SOL    HW169141   2.088  -0.014   2.197  0.1093 -1.0470  1.2701
21528SOL    HW269142   2.189   0.097   2.212  0.3453 -0.9215 -0.8605
21529SOL     OW69143   3.946  11.526   1.913 -0.0834 -0.7552  0.0016
21529SOL    HW169144   3.946  11.438   1.949 -0.5460 -0.2599  1.2537
21529SOL    HW269145   3.854  11.552   1.912 -0.0095 -0.4663 -0.8615
21530SOL     OW69146   0.112   9.067   6.245  0.3091  0.5616  0.0667
21530SOL    HW169147   0.111   9.160   6.270 -1.7430  1.0838 -1.5879
21530SOL    HW269148   0.053   9.025   6.307  0.6619  0.4957  0.3603
21531SOL     OW69149   8.353  11.231  11.985 -0.2955 -0.0497  0.2965
21531SOL    HW169150   8.405  11.254  12.062  1.5220 -3.4072  0.2910
21531SOL    HW269151   8.283  11.176  12.019 -0.0796 -0.7149 -0.2898
21532SOL     OW69152   2.347   6.087   6.643 -0.1958 -0.2470 -0.2730
21532SOL    HW169153   2.336   6.180   6.663 -2.6402 -0.3300 -0.9039
21532SOL    HW269154   2.319   6.042   6.722  1.8572 -0.5003  0.3676
21533SOL     OW69155   9.388  11.607   9.597  0.3640 -0.4512  0.2494
21533SOL    HW169156   9.366  11.545   9.667 -0.1081 -1.3431 -0.6635
21533SOL    HW269157   9.383  11.693   9.639 -2.8222 -0.7019  0.6836
21534SOL     OW69158   8.443   6.504   6.137 -0.2455  0.2701 -0.3139
21534SOL    HW169159   8.492   6.585   6.123  0.1686  0.0249 -0.2869
21534SOL    HW269160   8.361   6.533   6.178 -0.1926  0.6954 -0.4991
21535SOL     OW69161   6.225  11.131  10.533  0.5544  0.4723 -0.3347
21535SOL    HW169162   6.255  11.040  10.540 -0.7383  0.0225 -0.5258
21535SOL    HW269163   6.178  11.147  10.615 -1.2954  0.1688 -1.2933
21536SOL     OW69164   9.769   3.491   2.475  0.5703  0.0406 -0.6328
21536SOL    HW169165   9.777   3.468   2.382 -2.1385  1.8270 -1.4152
21536SOL    HW269166   9.744   3.409   2.518  2.4078 -0.9396 -1.3096
21537SOL     OW69167   3.785   7.447   7.294 -0.6873 -0.1030 -0.1510
21537SOL    HW169168   3.873   7.445   7.332 -1.4517  0.6092  1.8316
21537SOL    HW269169   3.781   7.370   7.239  0.4312 -1.4725  1.5620
21538SOL     OW69170   2.011   7.171   4.299 -0.0668 -0.1414 -0.1526
21538SOL    HW169171   2.008   7.121   4.217  1.1176  0.2438 -0.4510
21538SOL    HW269172   1.964   7.252   4.279 -0.2037 -0.2548 -0.2960
21539SOL     OW69173   9.697   1.469   4.969  0.0245 -0.8269  0.1967
21539SOL    HW169174   9.769   1.528   4.946 -0.8749  0.1674 -0.1188
21539SOL    HW269175   9.645   1.461   4.889 -1.4076  0.1890  0.9893
21540SOL     OW69176   9.630   8.845   5.618 -0.2672 -0.2887  0.3420
21540SOL    HW169177   9.682   8.849   5.698 -0.4816 -1.6660  0.5842
21540SOL    HW269178   9.540   8.856   5.649 -0.4130 -1.5179  0.4036
21541SOL     OW69179   9.687  11.540   1.227 -0.0541  0.1962 -0.7350
21541SOL    HW169180   9.745  11.611   1.254 -1.4719  1.6206 -1.3231
21541SOL    HW269181   9.713  11.466   1.282  1.1222  1.3050  0.2591
21542SOL     OW69182   2.707   5.388   6.055 -0.2430 -0.0629  0.0970
21542SOL    HW169183   2.696   5.440   5.976  0.3892  0.4203  0.3203
21542SOL    HW269184   2.658   5.307   6.038 -1.4792  0.7220 -0.1364
21543SOL     OW69185   9.229   3.991   0.836 -0.2073 -0.3244  0.0631
21543SOL    HW169186   9.206   3.950   0.920  0.2163 -2.7838 -0.9487
21543SOL    HW269187   9.312   3.951   0.811 -1.0785 -0.8735 -2.2565
21544SOL     OW69188   9.908   0.587   0.622 -0.3369 -0.2756  0.2182
21544SOL    HW169189   9.929   0.671   0.664 -0.8439  0.8537 -1.6782
21544SOL    HW269190   9.984   0.567   0.569 -0.1859 -1.0871  0.7197
21545SOL     OW69191   5.437  10.350   9.924 -0.8515 -0.3733 -0.2504
21545SOL    HW169192   5.454  10.273   9.978  0.3813 -0.1261 -0.2499
21545SOL    HW269193   5.514  10.355   9.866 -1.8404 -0.2776 -1.6033
21546SOL     OW69194   8.714   4.077   1.446 -0.1217  0.4488 -0.6255
21546SOL    HW169195   8.730   4.023   1.368 -0.6799  0.1405 -0.5269
21546SOL    HW269196   8.621   4.097   1.443 -0.5286 -1.0048  0.8654
21547SOL     OW69197   9.665   5.779   8.707 -0.1885 -0.8893 -0.2315
21547SOL    HW169198   9.744   5.748   8.750  1.2057 -0.5976 -2.4537
21547SOL    HW269199   9.675   5.874   8.702 -2.3290 -0.3980  2.4633
21548SOL     OW69200   8.066  11.047   5.547  0.3939 -0.1204 -0.2677
21548SOL    HW169201   8.020  11.126   5.576  0.6641 -0.6504  1.7649
21548SOL    HW269202   8.048  10.982   5.615  1.2906 -1.4057 -1.2047
21549SOL     OW69203   1.192  11.996   0.563 -0.3821 -0.5054 -0.2873
21549SOL    HW169204   1.151  11.998   0.477 -2.1261 -0.7648  0.5020
21549SOL    HW269205   1.159  12.074   0.607 -0.1406 -0.7990  0.4192
21550SOL     OW69206  11.447   0.659   7.998  0.7431  0.1549 -0.0711
21550SOL    HW169207  11.522   0.607   7.971  0.9888 -0.0946  1.0532
21550SOL    HW269208  11.406   0.608   8.068 -0.1312  0.5693 -0.2657
21551SOL     OW69209   0.340   9.599   9.132  0.1188  0.9070 -0.2646
21551SOL    HW169210   0.290   9.570   9.056  1.5595 -0.0312 -0.8870
21551SOL    HW269211   0.289   9.672   9.167  0.4069  2.7704 -3.3228
21552SOL     OW69212   0.619   4.663   2.923 -0.2649  0.2713  0.3352
21552SOL    HW169213   0.622   4.567   2.918 -1.8148  0.1092  1.6895
21552SOL    HW269214   0.586   4.681   3.011  0.1897  2.0658  0.1671
21553SOL     OW69215   9.175   7.476   9.824 -0.0242 -0.9019  0.0413
21553SOL    HW169216   9.086   7.482   9.858 -0.3538 -0.5503 -0.8511
21553SOL    HW269217   9.210   7.564   9.834 -0.1630 -0.7677 -0.6157
21554SOL     OW69218   3.872   3.997   1.464  0.0668 -0.1924 -0.3739
21554SOL    HW169219   3.859   4.088   1.439 -0.4201 -0.2046 -0.1776
21554SOL    HW269220   3.814   3.948   1.405 -0.5404 -0.2772  0.2790
21555SOL     OW69221   0.786   9.073   5.310  0.2134  0.2039 -0.2349
21555SOL    HW169222   0.802   8.985   5.276 -1.2531 -0.1913  0.0401
21555SOL    HW269223   0.765   9.059   5.402 -2.0890  0.5820 -0.6455
21556SOL     OW69224   5.262   7.861   1.771  0.0200 -0.3054 -0.4305
21556SOL    HW169225   5.204   7.936   1.783  0.3939 -0.0065 -0.4709
21556SOL    HW269226   5.303   7.849   1.857  0.9864  0.3988 -0.7848
21557SOL     OW69227   2.335  11.205   1.131  0.2284 -0.1287  0.2055
21557SOL    HW169228   2.273  11.204   1.058  0.6825  2.2602 -0.2944
21557SOL    HW269229   2.288  11.248   1.202  1.1846  1.5289 -0.1130
21558SOL     OW69230  11.789   3.125   2.827  0.1477  0.4980 -0.0348
21558SOL    HW169231  11.698   3.147   2.804 -0.5837 -0.7042  1.5020
21558SOL    HW269232  11.808   3.179   2.904  0.0778 -0.5538  0.7399
21559SOL     OW69233   8.917   9.332   1.028 -0.0522 -0.2327 -0.1882
21559SOL    HW169234   9.009   9.346   1.050  0.4485 -1.2850 -1.4949
21559SOL    HW269235   8.879   9.420   1.028  0.9692  0.2275  0.2678
21560SOL     OW69236   1.917   2.402   0.213 -0.6639  0.2371  0.1750
21560SOL    HW169237   1.906   2.437   0.125 -0.5727  1.2514  0.5507
21560SOL    HW269238   1.866   2.461   0.269  0.6850  0.6447  1.0113
21561SOL     OW69239   4.269   1.660   2.325 -0.1129 -0.3929 -0.4134
21561SOL    HW169240   4.208   1.668   2.252 -4.0068  0.1303  2.5376
21561SOL    HW269241   4.292   1.751   2.347 -0.1977 -0.4427 -0.1093
21562SOL     OW69242   5.710   2.526   6.752 -0.3086 -0.1920  0.1280
21562SOL    HW169243   5.651   2.520   6.828 -0.8476  1.3677 -0.1227
21562SOL    HW269244   5.656   2.565   6.683  0.7030  0.1836 -0.4716
21563SOL     OW69245  11.505   5.025   1.213  0.1792  0.2614 -1.3522
21563SOL    HW169246  11.474   4.971   1.141 -1.7789 -0.7883  0.1740
21563SOL    HW269247  11.549   4.963   1.272 -1.2007  0.4278 -0.0696
21564SOL     OW69248   5.423   4.817   4.619  0.4174  0.3494 -0.2627
21564SOL    HW169249   5.390   4.907   4.622 -0.2991  0.1691 -1.7587
21564SOL    HW269250   5.345   4.763   4.603  0.5209 -0.7955  2.4390
21565SOL     OW69251   9.166   3.340   2.196 -0.3987 -0.4462 -0.0273
21565SOL    HW169252   9.206   3.355   2.281 -0.7192 -2.7695  0.5745
21565SOL    HW269253   9.076   3.371   2.205 -0.1640  0.2173  0.1325
21566SOL     OW69254  11.301   7.354   2.031  0.0365 -0.1125  0.2334
21566SOL    HW169255  11.337   7.398   1.955  1.2389 -0.9632  0.2777
21566SOL    HW269256  11.223   7.308   1.999  1.1504 -1.3880 -0.7819
21567SOL     OW69257   8.042  11.573   3.953  0.3110  0.4378  0.0951
21567SOL    HW169258   8.068  11.548   4.042 -3.2157  2.4022  1.8922
21567SOL    HW269259   7.980  11.505   3.926 -0.6633  1.2183  0.3074
21568SOL     OW69260   6.688   5.053   5.905  0.4220  0.3149 -0.1194
21568SOL    HW169261   6.755   5.078   5.841  1.7782  0.1294  1.1608
21568SOL    HW269262   6.707   5.106   5.982  0.3953 -1.1945  0.9850
21569SOL     OW69263   7.925   6.169   2.742 -0.0002  0.4626 -0.1903
21569SOL    HW169264   7.882   6.246   2.779  0.2664  0.4442  0.1662
21569SOL    HW269265   7.854   6.107   2.727 -0.2977  0.9724 -1.0004
21570SOL     OW69266   0.490   1.621  11.288  0.0004 -0.3380  0.0007
21570SOL    HW169267   0.418   1.663  11.336 -1.2375 -2.5827  0.2649
21570SOL    HW269268   0.453   1.601  11.202  0.9782  0.2519 -0.5721
21571SOL     OW69269   8.975  11.023  10.026 -0.1658 -0.1618 -0.3347
21571SOL    HW169270   9.064  11.010  10.059 -0.3016 -0.2106  0.0212
21571SOL    HW269271   8.933  11.080  10.091 -0.1870  0.4228 -0.8513
21572SOL     OW69272   8.949   1.089   4.981  0.4372  0.1656  0.5949
21572SOL    HW169273   9.000   1.052   5.053 -0.8619 -0.7451  1.0860
21572SOL    HW269274   8.991   1.056   4.902  1.5896  0.7878  0.9306
21573SOL     OW69275   7.678   2.007   7.688 -0.3527 -0.4068  0.3797
21573SOL    HW169276   7.643   1.927   7.727  2.7562 -2.0691  0.0470
21573SOL    HW269277   7.645   2.007   7.599  0.2246 -1.7711  0.1498
21574SOL     OW69278   9.961   3.038   1.463  0.1498 -0.2414  0.0790
21574SOL    HW169279   9.937   2.986   1.386 -1.5366  0.8703 -0.1889
21574SOL    HW269280   9.947   2.978   1.537  0.6087 -0.9354 -0.3822
21575SOL     OW69281   6.676  12.019   2.345 -0.4513  0.2989  0.2255
21575SOL    HW169282   6.660  12.073   2.422 -0.8002 -0.2495  0.5449
21575SOL    HW269283   6.598  11.963   2.338 -0.7011  0.7714 -0.8896
21576SOL     OW69284   8.036   0.606   2.408  0.0831  0.2831  0.3515
21576SOL    HW169285   8.130   0.619   2.398 -0.2682  3.6092  0.2418
21576SOL    HW269286   8.022   0.514   2.390  3.2753 -0.2448  0.0949
21577SOL     OW69287   2.950  11.772   7.762  0.1339 -0.0403 -0.6653
21577SOL    HW169288   2.996  11.795   7.842 -1.2457 -1.0118  0.4536
21577SOL    HW269289   2.924  11.856   7.725  1.1569  0.4363 -0.3491
21578SOL     OW69290   0.028   1.096  12.101  0.1150  0.4090  0.0611
21578SOL    HW169291   0.094   1.132  12.159  1.2869 -0.0253 -0.9715
21578SOL    HW269292  -0.015   1.172  12.062  1.5063  0.7215 -0.9140
21579SOL     OW69293   8.142   0.686   1.671 -0.0342 -0.0585  0.2523
21579SOL    HW169294   8.192   0.670   1.751  1.0842  0.2626 -0.3616
21579SOL    HW269295   8.192   0.753   1.624 -1.0004  0.2175 -0.4308
21580SOL     OW69296   6.195   5.480   2.395  0.4628 -0.1101 -0.2813
21580SOL    HW169297   6.283   5.502   2.426 -0.3148  2.9117  0.1582
21580SOL    HW269298   6.203   5.476   2.300  1.3234 -1.3836 -0.1771
21581SOL     OW69299   5.657   3.841  10.027  0.0257 -0.2009 -0.4610
21581SOL    HW169300   5.569   3.829  10.063 -0.2259 -0.0681 -1.0041
21581SOL    HW269301   5.646   3.909   9.960  0.6108  0.0621 -0.3000
21582SOL     OW69302   6.969   5.614   5.866 -0.6530  0.1976 -0.0109
21582SOL    HW169303   7.013   5.603   5.782 -0.7714  2.3455 -0.4135
21582SOL    HW269304   6.879   5.587   5.851 -0.0284 -2.2855  0.2794
21583SOL     OW69305   9.794   7.794   8.849  0.2969 -1.3251  0.1214
21583SOL    HW169306   9.768   7.712   8.809  1.1155 -0.9789 -1.1816
21583SOL    HW269307   9.742   7.860   8.804  0.0258 -1.0753  0.7892
21584SOL     OW69308  10.965   8.180   4.946 -0.4774 -0.1140  0.1585
21584SOL    HW169309  10.960   8.132   4.863 -3.0442  0.6304 -0.1927
21584SOL    HW269310  10.947   8.114   5.013  1.0749 -0.6072  0.1395
21585SOL     OW69311   5.378   5.630   5.861 -0.1141  0.0851 -0.1132
21585SOL    HW169312   5.376   5.724   5.874  0.0590  0.0011  0.5792
21585SOL    HW269313   5.386   5.618   5.767 -0.0546  0.7618 -0.1942
21586SOL     OW69314  11.005  10.183   1.763  0.1372  0.2702 -0.0481
21586SOL    HW169315  10.957  10.151   1.687 -0.5154 -0.2764  0.5642
21586SOL    HW269316  11.005  10.278   1.754 -2.1879  0.3944  0.5354
21587SOL     OW69317   9.827   4.659  11.844 -0.6702  0.0363  0.2511
21587SOL    HW169318   9.919   4.642  11.864 -0.7022 -0.6101 -0.1296
21587SOL    HW269319   9.778   4.595  11.894 -0.7039 -2.3211 -2.5404
21588SOL     OW69320   2.359  11.567   1.652  0.2759  0.6101 -0.2951
21588SOL    HW169321   2.331  11.539   1.738 -0.2821  1.2615 -0.2538
21588SOL    HW269322   2.365  11.663   1.658 -0.0128  0.6903 -1.0334
21589SOL     OW69323  11.556  11.035   9.417 -0.3015 -0.1015  0.1794
21589SOL    HW169324  11.594  11.063   9.334 -2.1237  1.6375 -0.1447
21589SOL    HW269325  11.473  10.994   9.393 -0.6821  0.1062  1.1012
21590SOL     OW69326   3.542   0.393  10.511 -0.3193  0.5584  0.1348
21590SOL    HW169327   3.626   0.417  10.551  0.3545 -0.5073 -0.5862
21590SOL    HW269328   3.532   0.455  10.438 -0.6826  1.3585  0.8507
21591SOL     OW69329  10.876   9.503   5.680  0.0778  0.4261 -0.6374
21591SOL    HW169330  10.943   9.560   5.717  0.4568 -1.0729  1.1688
21591SOL    HW269331  10.924   9.443   5.623  0.0095  0.5640 -0.8369
21592SOL     OW69332   2.155   9.236   6.208  0.8989 -0.3516  0.3947
21592SOL    HW169333   2.218   9.232   6.137  2.7794 -2.3813  2.0163
21592SOL    HW269334   2.070   9.219   6.167  2.2726 -5.3694 -1.0905
21593SOL     OW69335   5.466   9.099   8.939 -0.4236  0.3258  0.1182
21593SOL    HW169336   5.516   9.018   8.930  0.2109  0.6499  0.5916
21593SOL    HW269337   5.434   9.118   8.851 -0.2468 -0.2271 -0.0683
21594SOL     OW69338   6.746   4.131   6.586  0.2179  0.6355  0.7510
21594SOL    HW169339   6.715   4.050   6.545 -0.4919  0.7079  1.1221
21594SOL    HW269340   6.778   4.185   6.513  1.5836 -0.3410  0.5940
21595SOL     OW69341  11.304   3.084   9.298 -0.3293  0.0051  0.1077
21595SOL    HW169342  11.331   3.088   9.390 -0.6452 -0.7682  0.2483
21595SOL    HW269343  11.352   3.009   9.262  0.4364  0.8130 -0.5923
21596SOL     OW69344   1.163   9.607  11.960 -0.0714 -0.4782 -0.2084
21596SOL    HW169345   1.184   9.539  11.896 -0.6731 -0.5691 -0.3198
21596SOL    HW269346   1.073   9.588  11.985 -0.3567  0.4737 -0.4791
21597SOL     OW69347   0.614   2.311   3.832 -0.3030  0.0416  0.6580
21597SOL    HW169348   0.645   2.221   3.832  0.8609  0.4086  2.0955
21597SOL    HW269349   0.547   2.314   3.899  0.5428  0.5009  1.5079
21598SOL     OW69350   8.321   6.475   6.734 -0.0525 -0.0774 -0.4252
21598SOL    HW169351   8.328   6.559   6.688 -2.6152  1.5526  1.8316
21598SOL    HW269352   8.404   6.466   6.781  0.1345  1.4008 -0.4197
21599SOL     OW69353   2.188   9.343   7.630  0.1464 -0.3848 -0.8447
21599SOL    HW169354   2.248   9.313   7.699  0.1212  2.3377  0.4894
21599SOL    HW269355   2.245   9.385   7.566 -0.1582  1.1891 -0.1359
21600SOL     OW69356  11.545  10.405   3.936 -0.0326 -0.5090 -0.4564
21600SOL    HW169357  11.588  10.358   4.008 -0.1559 -0.1226 -0.1215
21600SOL    HW269358  11.545  10.497   3.965  1.6229 -0.0357 -1.7669
21601SOL     OW69359   1.732   2.851   0.546  0.3261 -0.0289  0.2354
21601SOL    HW169360   1.670   2.778   0.537  0.8473 -0.3366 -1.0339
21601SOL    HW269361   1.816   2.810   0.563  0.0339  0.4263  3.3683
21602SOL     OW69362   7.843  10.143  11.783  0.1631  0.2592  0.0882
21602SOL    HW169363   7.899  10.174  11.853  0.3268  1.0444 -0.3737
21602SOL    HW269364   7.886  10.173  11.703 -0.5802  0.3307 -0.2975
21603SOL     OW69365   6.488   5.209   7.709  0.3529  0.2416 -0.3552
21603SOL    HW169366   6.549   5.264   7.758  1.1730 -0.9544  0.0248
21603SOL    HW269367   6.535   5.126   7.697 -0.8036 -0.3489 -0.9782
21604SOL     OW69368   2.743   4.813   5.523  0.1885 -0.8045  0.8544
21604SOL    HW169369   2.837   4.831   5.518 -0.1293  0.8368  0.1997
21604SOL    HW269370   2.721   4.777   5.437 -0.0544  0.4217  0.3717
21605SOL     OW69371   0.689   8.083   8.263  0.2561  0.6608 -0.3350
21605SOL    HW169372   0.780   8.081   8.293  0.4673  0.6029 -0.9690
21605SOL    HW269373   0.690   8.038   8.179 -0.8880 -2.0107  0.9696
21606SOL     OW69374  11.737   3.950   2.433 -0.1603 -0.2305 -0.1775
21606SOL    HW169375  11.760   4.025   2.379 -0.0888  0.2807  0.5486
21606SOL    HW269376  11.822   3.915   2.463 -0.2282  0.6341  1.1237
21607SOL     OW69377  10.180   1.490   2.178  0.1139  0.2512 -0.2085
21607SOL    HW169378  10.267   1.528   2.194 -0.0166  1.1698 -1.4869
21607SOL    HW269379  10.130   1.514   2.256  0.1753  2.4175 -0.7478
21608SOL     OW69380  11.551   3.482   2.992 -0.0167  0.2726 -0.6818
21608SOL    HW169381  11.612   3.555   2.997  1.4487 -0.8862 -0.7887
21608SOL    HW269382  11.507   3.492   2.908  0.1155  1.0496 -0.6626
21609SOL     OW69383  10.187   6.174   5.034 -0.0488  0.5816 -0.1264
21609SOL    HW169384  10.260   6.227   5.002 -0.3187  0.9642 -0.1219
21609SOL    HW269385  10.118   6.238   5.054 -0.9123  0.1218 -1.5077
21610SOL     OW69386   5.711   8.170   0.405  0.2888  0.0179  0.0530
21610SOL    HW169387   5.753   8.099   0.453 -1.2120 -1.6871 -1.0665
21610SOL    HW269388   5.683   8.131   0.322 -1.5390  1.6076 -0.1609
21611SOL     OW69389   7.633   2.349   8.096  0.3318 -0.1596  0.1277
21611SOL    HW169390   7.601   2.293   8.168  0.8430 -0.4616  0.1247
21611SOL    HW269391   7.647   2.288   8.023  0.2764  0.0727 -0.0770
21612SOL     OW69392  10.504   4.082   3.842  0.0875  0.2243  0.0856
21612SOL    HW169393  10.459   4.161   3.869 -0.2435  0.1296 -0.1776
21612SOL    HW269394  10.474   4.014   3.903 -2.5219 -0.5500 -1.8695
21613SOL     OW69395   5.235   8.678   5.358 -0.2175 -0.3989  0.3648
21613SOL    HW169396   5.206   8.769   5.357 -0.0187 -0.3362 -0.2286
21613SOL    HW269397   5.159   8.629   5.388 -0.7196 -0.1624 -0.4959
21614SOL     OW69398   9.160   2.766   8.428 -0.4234 -0.0798 -0.4631
21614SOL    HW169399   9.075   2.765   8.473 -0.5989 -0.3932 -0.7973
21614SOL    HW269400   9.202   2.846   8.459 -0.6021 -0.2171  0.1495
21615SOL     OW69401   7.359  11.476   4.804  0.2351 -0.0236  0.4774
21615SOL    HW169402   7.392  11.442   4.721  0.1004  0.4800  0.2148
21615SOL    HW269403   7.362  11.571   4.794 -1.9639  0.0727  0.1383
21616SOL     OW69404   7.678   0.922   0.524  0.2669  0.3604  0.1521
21616SOL    HW169405   7.766   0.916   0.562  0.6208 -1.5983 -0.8162
21616SOL    HW269406   7.693   0.950   0.434 -0.0512 -0.4374 -0.1530
21617SOL     OW69407   7.593   8.692   0.050  0.3878  0.1348 -0.2848
21617SOL    HW169408   7.600   8.608   0.005  1.7416  0.5728 -0.9405
21617SOL    HW269409   7.499   8.701   0.068 -0.1294 -0.3648 -2.4014
21618SOL     OW69410   6.410   8.390   7.821 -1.1616  0.1679 -0.9540
21618SOL    HW169411   6.483   8.364   7.765 -0.5630 -0.9517  0.2697
21618SOL    HW269412   6.423   8.483   7.836  2.2056 -0.5582  2.0963
21619SOL     OW69413   5.944  11.217   6.413  0.3603 -0.1841  0.5520
21619SOL    HW169414   5.969  11.309   6.427 -0.2217  0.1161 -0.2699
21619SOL    HW269415   5.980  11.195   6.327 -1.6820  0.1039 -0.4347
21620SOL     OW69416   2.854   2.663   9.802 -0.2571 -0.1642  0.2169
21620SOL    HW169417   2.921   2.622   9.749 -0.0393 -0.7768  0.9534
21620SOL    HW269418   2.776   2.608   9.790 -0.8792  0.9687 -1.2407
21621SOL     OW69419  11.571   3.912   5.364  0.4144  0.6319 -0.8698
21621SOL    HW169420  11.643   3.953   5.411  0.0105  0.7022 -0.2955
21621SOL    HW269421  11.609   3.881   5.282  1.4974 -0.9567  0.1889
21622SOL     OW69422  11.675   1.099   6.309 -0.5269 -0.1564  0.2713
21622SOL    HW169423  11.639   1.080   6.222 -1.5549 -0.6614  0.7840
21622SOL    HW269424  11.709   1.015   6.339 -1.1637 -0.2426  0.7846
21623SOL     OW69425  10.397   1.760   5.372  0.0774 -0.1233  0.6041
21623SOL    HW169426  10.451   1.700   5.321 -0.0007  1.1371 -1.0443
21623SOL    HW269427  10.316   1.712   5.388 -0.5277 -0.0602 -1.8588
21624SOL     OW69428   1.588   9.643  11.075 -0.0166  0.0108  0.2688
21624SOL    HW169429   1.674   9.620  11.109 -0.5385 -1.9045  0.4033
21624SOL    HW269430   1.539   9.673  11.152  0.1298 -0.2033  0.4495
21625SOL     OW69431   1.622   1.719   9.618 -0.5212  0.2163  0.1751
21625SOL    HW169432   1.685   1.785   9.590 -1.4721  0.6938 -0.8705
21625SOL    HW269433   1.652   1.638   9.577 -0.0274  0.2311  0.4989
21626SOL     OW69434   2.788  10.151   8.511  0.3769 -0.4419  0.3908
21626SOL    HW169435   2.768  10.060   8.491  0.7295 -0.2031 -1.2600
21626SOL    HW269436   2.882  10.153   8.525  0.5044 -0.2159 -0.4328
21627SOL     OW69437   9.130   5.789   2.566 -0.2793  0.1269 -0.1867
21627SOL    HW169438   9.152   5.870   2.612 -2.8543  0.5333  0.5009
21627SOL    HW269439   9.179   5.721   2.612  0.5949  1.0920  0.3421
21628SOL     OW69440  11.514   5.061   8.113  0.1942 -0.0652 -0.2286
21628SOL    HW169441  11.507   5.155   8.093 -1.0123 -0.3173 -1.1303
21628SOL    HW269442  11.602   5.037   8.087  0.9868  1.0718  1.2280
21629SOL     OW69443   9.613  10.453   4.366  0.3671  0.1318 -0.0481
21629SOL    HW169444   9.654  10.391   4.427 -0.3555  0.7132  1.0539
21629SOL    HW269445   9.538  10.405   4.331 -0.1889  0.3639  0.8019
21630SOL     OW69446   3.498   2.668   5.388 -0.5327  0.3450  0.0006
21630SOL    HW169447   3.577   2.674   5.334 -1.2636  0.4432 -1.0926
21630SOL    HW269448   3.501   2.746   5.443  0.6294 -0.1592  0.6954
21631SOL     OW69449   8.272   7.448   3.583 -0.4707  0.0665  0.2326
21631SOL    HW169450   8.215   7.507   3.632 -0.0798  0.9605 -0.3692
21631SOL    HW269451   8.254   7.468   3.491 -1.0165 -1.4195 -0.0215
21632SOL     OW69452   3.890   9.797   2.831 -0.2216 -0.2533  0.5590
21632SOL    HW169453   3.970   9.803   2.884  0.4599  1.0905 -0.5729
21632SOL    HW269454   3.841   9.725   2.871  0.3256  0.5777  2.9062
21633SOL     OW69455   8.001   4.408   2.727 -0.3922  0.3824  0.4282
21633SOL    HW169456   8.095   4.393   2.736 -0.8147 -2.5218  0.9735
21633SOL    HW269457   7.993   4.462   2.649  1.6474 -0.9007 -0.7705
21634SOL     OW69458   4.809   9.322   7.091 -0.3336  0.6642 -0.0611
21634SOL    HW169459   4.811   9.412   7.058 -0.4382 -0.2859 -3.0453
21634SOL    HW269460   4.738   9.281   7.041  0.8921 -1.4835 -0.1362
21635SOL     OW69461  12.095   3.719   8.728 -0.0559 -0.0156 -0.3234
21635SOL    HW169462  12.071   3.627   8.737  1.9827 -0.5009  0.8624
21635SOL    HW269463  12.163   3.718   8.660 -0.6795  0.7624 -0.9703
21636SOL     OW69464   7.378   3.698   3.764 -0.9950 -0.4085  0.8320
21636SOL    HW169465   7.283   3.709   3.761 -1.1440 -1.5035  1.0439
21636SOL    HW269466   7.395   3.621   3.710  0.2436  2.1520 -2.8708
21637SOL     OW69467   0.679   9.789  11.919  0.1008 -0.6011 -0.1194
21637SOL    HW169468   0.664   9.868  11.866 -0.1629 -0.7506 -0.2710
21637SOL    HW269469   0.672   9.717  11.857  0.0330 -0.7615  0.0742
21638SOL     OW69470   0.405   3.019   5.695  0.6552  0.2364 -0.0090
21638SOL    HW169471   0.376   3.090   5.638  1.0836  0.5770  0.1903
21638SOL    HW269472   0.397   3.053   5.783 -1.0085 -0.6592  0.2220
21639SOL     OW69473   6.538  11.310   5.723 -0.0925  0.3910 -0.2636
21639SOL    HW169474   6.562  11.337   5.634  1.7064  0.3113  0.1723
21639SOL    HW269475   6.613  11.335   5.777  1.1011 -3.9363  0.4504
21640SOL     OW69476   5.687   4.767   3.734  0.2198 -0.1978 -0.1379
21640SOL    HW169477   5.636   4.716   3.671 -0.3593  1.9212 -1.5023
21640SOL    HW269478   5.674   4.722   3.817 -1.5978 -1.3261 -0.9551
21641SOL     OW69479  12.099  10.977   3.485  0.1366  0.6781  0.1450
21641SOL    HW169480  12.021  10.927   3.507  1.2577 -1.5263 -0.6409
21641SOL    HW269481  12.075  11.027   3.407 -0.2775 -0.5752 -0.5531
21642SOL     OW69482   4.661   8.513  11.233 -0.0221  0.1782 -0.1864
21642SOL    HW169483   4.571   8.543  11.243 -0.0523  0.2902 -0.7650
21642SOL    HW269484   4.709   8.553  11.305 -0.7526 -1.1820  1.1154
21643SOL     OW69485   8.185  11.288   3.073  0.0157  0.0044  0.5199
21643SOL    HW169486   8.216  11.275   3.162  1.0073  1.2661  0.3988
21643SOL    HW269487   8.224  11.216   3.023  1.4245  0.6229  0.6893
21644SOL     OW69488   8.764   1.273   0.996  0.2376 -0.5107 -0.4122
21644SOL    HW169489   8.752   1.335   0.924  1.3245  1.6635  1.1564
21644SOL    HW269490   8.741   1.322   1.074  0.5136 -2.3227  0.8787
21645SOL     OW69491   4.218   4.021   5.843  0.1937 -0.1442  0.1567
21645SOL    HW169492   4.124   4.042   5.849  0.2632  0.8963 -1.5877
21645SOL    HW269493   4.261   4.104   5.865  0.7399 -0.6916  1.2097
21646SOL     OW69494   4.286   9.389   3.474  0.5897  0.4337  0.1809
21646SOL    HW169495   4.227   9.332   3.424  0.4491  1.7441 -1.2226
21646SOL    HW269496   4.230   9.462   3.503  1.0164  0.4745  0.9371
21647SOL     OW69497   6.137   6.077   7.258 -0.5075 -0.0846  0.0800
21647SOL    HW169498   6.189   6.000   7.234 -0.0993  0.4415 -0.7559
21647SOL    HW269499   6.059   6.071   7.204  0.1826  0.8352 -1.0495
21648SOL     OW69500   6.637   6.865   8.714  0.7719 -0.6663  0.4314
21648SOL    HW169501   6.721   6.819   8.719  1.2822  0.2037  0.0406
21648SOL    HW269502   6.625   6.900   8.802  1.4613  0.2955  0.1592
21649SOL     OW69503  11.112   3.664   1.491 -0.0814 -0.0804  0.1254
21649SOL    HW169504  11.121   3.709   1.574  0.7673 -0.2595  0.1345
21649SOL    HW269505  11.020   3.635   1.489  0.0439 -0.5862  1.2483
21650SOL     OW69506   7.472   1.851   0.287  0.4623 -0.5237 -0.0893
21650SOL    HW169507   7.536   1.847   0.216  1.4222 -0.4488  0.7489
21650SOL    HW269508   7.413   1.922   0.263  1.3555  0.1377 -0.3457
21651SOL     OW69509   6.034   0.248   4.423 -0.2494 -0.2639  0.2668
21651SOL    HW169510   6.041   0.313   4.353  1.6558 -1.7170 -1.0062
21651SOL    HW269511   6.035   0.300   4.503 -0.1102  1.3376 -0.7122
21652SOL     OW69512  11.797   4.872  11.162 -0.3838  0.1855  0.1138
21652SOL    HW169513  11.731   4.803  11.170  1.3067 -1.4094  1.2703
21652SOL    HW269514  11.753   4.952  11.192 -1.4948 -1.0283  1.9018
21653SOL     OW69515   3.119  10.833  11.448  0.0758 -0.2382 -0.7637
21653SOL    HW169516   3.028  10.836  11.419 -0.6231 -0.7180  1.2073
21653SOL    HW269517   3.168  10.871  11.376 -1.7072  0.2968 -1.7673
21654SOL     OW69518   4.887   0.785  10.626 -0.3436  0.3291 -0.4586
21654SOL    HW169519   4.859   0.751  10.711 -0.1014  2.1082  0.3815
21654SOL    HW269520   4.937   0.864  10.647  1.7178 -0.4434 -2.1583
21655SOL     OW69521   7.246   7.716   4.413  0.5180 -0.1052  0.1482
21655SOL    HW169522   7.300   7.641   4.388 -0.0602 -0.2116 -0.8505
21655SOL    HW269523   7.177   7.679   4.468  0.7302 -0.1739  0.3664
21656SOL     OW69524   8.966   9.692   6.568 -0.4189 -0.1099  0.3786
21656SOL    HW169525   9.025   9.765   6.549 -0.3344 -0.7472 -2.0988
21656SOL    HW269526   9.024   9.617   6.581 -0.5934 -0.3030  0.0582
21657SOL     OW69527   0.317   7.830   0.650 -0.2489 -0.2946  0.2578
21657SOL    HW169528   0.315   7.820   0.554 -1.1016  0.2411  0.2125
21657SOL    HW269529   0.252   7.768   0.682 -0.8007  0.3446  0.4046
21658SOL     OW69530   0.443   8.902   4.125 -0.1363  0.5956 -0.3908
21658SOL    HW169531   0.536   8.910   4.105  0.3002  0.3103  1.4035
21658SOL    HW269532   0.408   8.991   4.112 -0.0335  0.3581 -2.7857
21659SOL     OW69533   9.524   7.403   2.313 -0.0501  0.2703  0.1329
21659SOL    HW169534   9.583   7.348   2.364  0.3764 -0.2287 -0.8906
21659SOL    HW269535   9.448   7.348   2.296 -0.0661  0.3430 -0.0268
21660SOL     OW69536   9.319  11.964   7.331  0.5058  0.0938  0.0150
21660SOL    HW169537   9.325  11.874   7.363  0.7872  0.3678  0.7353
21660SOL    HW269538   9.408  11.986   7.304  0.1332 -0.4290 -1.8210
21661SOL     OW69539   4.143  11.186   6.491 -0.4682  0.8000 -0.4843
21661SOL    HW169540   4.078  11.125   6.525  1.6633 -2.5884 -1.9233
21661SOL    HW269541   4.216  11.181   6.553  0.3601  0.6098 -1.4446
21662SOL     OW69542   2.432   2.666   4.431 -0.6516 -0.1269 -1.1445
21662SOL    HW169543   2.383   2.720   4.493  0.0910 -0.7580  0.0494
21662SOL    HW269544   2.368   2.642   4.364 -1.7666 -0.2370 -0.0807
21663SOL     OW69545   5.502  11.917   6.812 -0.1416  0.5644  0.3291
21663SOL    HW169546   5.425  11.932   6.757 -0.4566  0.5642  0.7653
21663SOL    HW269547   5.515  11.822   6.808 -0.6676  0.4666  0.9253
21664SOL     OW69548   0.349   1.249   2.167  0.5235  0.0897 -0.1377
21664SOL    HW169549   0.381   1.251   2.257 -0.4220 -0.2169  0.2076
21664SOL    HW269550   0.401   1.317   2.122  1.1054  0.1372  0.5867
21665SOL     OW69551   0.606   1.926  10.540  0.4581 -0.1026 -0.1968
21665SOL    HW169552   0.676   1.983  10.509  0.9634 -0.5623  0.0717
21665SOL    HW269553   0.642   1.838  10.534  0.1713 -0.2897  0.6317
21666SOL     OW69554   0.259   8.444   4.972  0.1247  0.1535  0.0696
21666SOL    HW169555   0.195   8.415   4.906 -0.7947 -0.1419  1.0591
21666SOL    HW269556   0.282   8.365   5.020  2.3044 -0.0015 -1.1097
21667SOL     OW69557  10.051  11.974   5.152  0.3980  1.0279 -0.0587
21667SOL    HW169558  10.004  11.979   5.069  2.3529  2.4045 -1.1532
21667SOL    HW269559  10.020  12.050   5.201  1.5767  2.0844 -0.8841
21668SOL     OW69560   3.707   0.989   5.186  0.6060 -0.3612 -0.9748
21668SOL    HW169561   3.794   1.003   5.224  0.9056 -1.8006 -1.0641
21668SOL    HW269562   3.671   1.077   5.175  1.3042  0.1915  0.7947
21669SOL     OW69563  11.825   6.645   9.745 -0.0137 -0.2254  0.5054
21669SOL    HW169564  11.767   6.599   9.805 -0.9883 -0.7351 -0.7800
21669SOL    HW269565  11.822   6.593   9.664 -0.4953  1.6291 -0.7315
21670SOL     OW69566   5.510   5.916   2.304 -0.0779  0.4787  0.5705
21670SOL    HW169567   5.475   6.004   2.315 -1.3580 -0.2157  2.8714
21670SOL    HW269568   5.596   5.929   2.264 -1.8036  2.4266 -2.8736
21671SOL     OW69569   3.564   5.916   3.758 -0.0673  0.4653 -0.3764
21671SOL    HW169570   3.584   5.832   3.716  0.6608  0.0903  0.6620
21671SOL    HW269571   3.479   5.940   3.723 -0.2578 -0.6741 -0.7608
21672SOL     OW69572  11.706   6.245   1.126  0.8119  0.2212 -0.2775
21672SOL    HW169573  11.617   6.243   1.091  0.7285 -2.4730 -0.1549
21672SOL    HW269574  11.735   6.335   1.113 -1.7194  1.0469 -0.8110
21673SOL     OW69575   3.651   9.231  11.315 -0.2914 -0.0259 -0.5642
21673SOL    HW169576   3.641   9.192  11.402 -1.7818  0.5361 -0.4539
21673SOL    HW269577   3.689   9.318  11.332 -1.0776  0.3000 -0.3979
21674SOL     OW69578   0.164   5.010   2.769  0.1637  0.0045 -0.2916
21674SOL    HW169579   0.094   5.022   2.834  1.9115 -0.5273  1.7811
21674SOL    HW269580   0.143   4.925   2.728 -0.4717 -0.0880  0.2043
21675SOL     OW69581   5.662   4.338   4.246  0.8506  0.3142 -0.4776
21675SOL    HW169582   5.615   4.417   4.274  1.2680  0.5775 -0.5156
21675SOL    HW269583   5.754   4.362   4.250  0.9916 -0.2465 -0.2679
21676SOL     OW69584   7.975   2.359   0.914  0.0687  0.2404  0.0285
21676SOL    HW169585   7.992   2.272   0.948 -1.7032 -0.8351 -1.6508
21676SOL    HW269586   7.896   2.388   0.959  1.0841  1.3668  1.1646
21677SOL     OW69587   9.812   2.928   6.171 -0.0955 -0.3830  0.2857
21677SOL    HW169588   9.719   2.910   6.189 -0.0308 -1.8121 -0.6384
21677SOL    HW269589   9.859   2.891   6.246 -0.0740 -2.9176 -0.8791
21678SOL     OW69590  12.120   0.596   8.038  0.3732 -0.3886  1.2325
21678SOL    HW169591  12.186   0.546   7.988  1.2295  2.4394 -0.6950
21678SOL    HW269592  12.037   0.572   7.997  0.7069 -0.6172  0.6692
21679SOL     OW69593   5.942   6.172   1.519 -0.6279  0.5475 -0.1943
21679SOL    HW169594   6.012   6.113   1.545 -2.2068 -2.3004 -1.8214
21679SOL    HW269595   5.971   6.207   1.434 -0.3043  0.9985  0.1000
21680SOL     OW69596   5.086   7.874   2.688  0.1447 -0.5661 -0.7264
21680SOL    HW169597   5.101   7.886   2.594  1.6203 -1.8629 -0.6948
21680SOL    HW269598   4.992   7.889   2.700  0.0490  0.2595 -2.2888
21681SOL     OW69599  10.949   3.379   1.711 -0.2125  0.3683  0.3237
21681SOL    HW169600  11.024   3.426   1.748 -0.5299 -0.7361  2.5453
21681SOL    HW269601  10.972   3.287   1.721 -0.7686  0.0021 -1.4450
21682SOL     OW69602   6.775   6.725   9.108 -0.2385 -0.7092 -0.5897
21682SOL    HW169603   6.685   6.698   9.089  0.3808 -1.5814 -2.6153
21682SOL    HW269604   6.816   6.648   9.148 -0.3675 -0.3255  0.2983
21683SOL     OW69605   3.231   8.853   6.671 -0.7947 -0.1059  0.0094
21683SOL    HW169606   3.259   8.939   6.640  1.1135 -0.4880  0.5332
21683SOL    HW269607   3.136   8.859   6.677 -0.8142  1.5056 -1.2838
21684SOL     OW69608  10.157   9.444   3.362 -0.3682  0.2961  0.1895
21684SOL    HW169609  10.066   9.472   3.364 -0.6765 -0.3936 -1.8200
21684SOL    HW269610  10.158   9.361   3.409 -1.3218 -0.9774 -1.9211
21685SOL     OW69611   1.149   9.071   3.299 -0.1648 -0.3478  0.0333
21685SOL    HW169612   1.131   9.107   3.212 -1.7138  0.1679  0.5368
21685SOL    HW269613   1.194   8.989   3.282  0.3525  0.1708 -1.2313
21686SOL     OW69614   0.232   1.859  10.704 -0.2677  0.1414 -0.4485
21686SOL    HW169615   0.283   1.937  10.680 -1.6293  1.2749  0.1649
21686SOL    HW269616   0.228   1.862  10.800 -1.2438 -0.0730 -0.4744
21687SOL     OW69617   0.456   9.472   2.591 -0.4327 -0.3477  0.0182
21687SOL    HW169618   0.375   9.522   2.583 -0.1385 -0.0150 -1.1066
21687SOL    HW269619   0.515   9.529   2.641 -0.5649 -0.1768 -0.0235
21688SOL     OW69620   1.476   6.455   6.499  0.4056  0.2791 -0.3076
21688SOL    HW169621   1.462   6.366   6.534  0.2230  0.1293 -0.7621
21688SOL    HW269622   1.490   6.509   6.577  2.4970 -0.4803 -0.0852
21689SOL     OW69623   6.251   9.199  10.673 -0.6410  0.1423  0.1508
21689SOL    HW169624   6.335   9.212  10.628 -0.6917 -2.2825 -0.8324
21689SOL    HW269625   6.272   9.206  10.766  0.7908 -0.8826 -0.0536
21690SOL     OW69626   1.823   7.773   3.473 -0.5152 -0.4587 -0.3462
21690SOL    HW169627   1.871   7.773   3.390  1.9339 -1.0358  0.9867
21690SOL    HW269628   1.839   7.859   3.510  0.4828 -1.0368  0.6207
21691SOL     OW69629   0.830   8.914   7.303 -0.0855  0.5284  0.1269
21691SOL    HW169630   0.765   8.873   7.245  0.0338  1.1021 -0.4163
21691SOL    HW269631   0.788   8.994   7.333 -0.1198  0.2686  0.7925
21692SOL     OW69632   3.817   3.446   3.828  0.5296 -0.0139 -0.6084
21692SOL    HW169633   3.870   3.437   3.907 -0.1005  0.3997 -0.1323
21692SOL    HW269634   3.759   3.520   3.845  0.8032  0.4836 -1.7021
21693SOL     OW69635   6.242   0.245   1.766  0.5197 -0.0824 -0.1638
21693SOL    HW169636   6.286   0.209   1.842 -0.6617 -0.9199  0.1565
21693SOL    HW269637   6.191   0.319   1.800  0.2698 -0.2390 -0.1917
21694SOL     OW69638   2.571   4.824   9.032 -0.2003 -0.4322  0.8963
21694SOL    HW169639   2.617   4.750   8.994  0.0157 -0.5856  1.4518
21694SOL    HW269640   2.628   4.855   9.102  0.5878  1.3878 -0.4513
21695SOL     OW69641  11.995   5.197   9.118 -0.2692 -0.4757 -0.5886
21695SOL    HW169642  11.976   5.235   9.204 -0.6308  2.2177 -1.7525
21695SOL    HW269643  11.928   5.130   9.105 -1.1530  0.1563  0.5930
21696SOL     OW69644   2.529   1.486  11.256 -0.4495 -0.0088 -0.6145
21696SOL    HW169645   2.586   1.557  11.226 -0.0888  0.2383  0.6210
21696SOL    HW269646   2.498   1.445  11.175  0.1608  0.8963 -1.3300
21697SOL     OW69647   7.726   8.292  11.742 -0.1344 -0.1492  0.4314
21697SOL    HW169648   7.660   8.227  11.716 -0.0115  0.2970 -1.1498
21697SOL    HW269649   7.699   8.372  11.696  2.2386 -0.3135 -1.4200
21698SOL     OW69650   2.515   0.243   8.840  0.0920 -0.3543  0.3147
21698SOL    HW169651   2.459   0.265   8.766 -1.2173 -0.0109  1.3606
21698SOL    HW269652   2.515   0.321   8.894  2.3012 -0.0534 -0.0438
21699SOL     OW69653   6.146   3.672   1.067  0.0896  0.4504 -0.2013
21699SOL    HW169654   6.186   3.588   1.093  0.7974  0.5240 -1.0139
21699SOL    HW269655   6.130   3.663   0.973 -0.1891  1.0882 -0.2174
21700SOL     OW69656   2.904   9.502   1.514  0.3275 -0.5115  0.3181
21700SOL    HW169657   2.835   9.565   1.535  0.1358 -0.6730  0.1681
21700SOL    HW269658   2.897   9.435   1.582  1.9971  0.7702  1.8715
21701SOL     OW69659  10.453   2.452   9.702 -0.1869  0.1280 -0.7444
21701SOL    HW169660  10.476   2.373   9.750  1.0993  0.7855 -0.2428
21701SOL    HW269661  10.536   2.498   9.689 -0.6799  0.5868 -2.5065
21702SOL     OW69662   2.349   0.777   4.306 -0.2187  0.3839  0.0906
21702SOL    HW169663   2.429   0.786   4.357  0.3318 -1.2691 -0.4028
21702SOL    HW269664   2.281   0.757   4.370 -0.0498  0.8466  0.4180
21703SOL     OW69665   4.410   4.516   3.853  0.0595  0.0076 -0.0136
21703SOL    HW169666   4.435   4.565   3.775 -2.1608  1.6583  0.2089
21703SOL    HW269667   4.489   4.468   3.878  1.1375  0.2627 -2.6187
21704SOL     OW69668   1.072  11.959   9.745 -0.1752 -0.4833  0.1993
21704SOL    HW169669   0.988  11.913   9.754 -1.0860  0.8770 -0.9764
21704SOL    HW269670   1.073  12.021   9.818 -2.7243  3.1813 -2.5201
21705SOL     OW69671   1.575   7.741   8.214 -0.5089 -0.2537  0.3247
21705SOL    HW169672   1.571   7.802   8.140 -0.1642 -1.4154 -0.6896
21705SOL    HW269673   1.543   7.658   8.178 -1.2446 -0.6114  1.7485
21706SOL     OW69674   6.149   0.913   8.943  0.1326  0.1997  0.1981
21706SOL    HW169675   6.144   0.910   9.038 -0.0232  0.8500  0.2158
21706SOL    HW269676   6.063   0.946   8.916  0.0636 -0.2789 -0.1889
21707SOL     OW69677   3.033  11.087   5.732 -0.1483 -0.1073 -0.3454
21707SOL    HW169678   3.123  11.085   5.764  0.5361  1.8622 -1.9870
21707SOL    HW269679   3.036  11.142   5.654 -3.0569  1.2729  0.3935
21708SOL     OW69680   7.348   9.671   1.008  0.1741 -0.0786  0.2301
21708SOL    HW169681   7.358   9.640   0.919  1.9011  1.1497 -0.0575
21708SOL    HW269682   7.413   9.741   1.017 -1.4817  1.3718  1.7391
21709SOL     OW69683   4.370  11.333   1.990 -0.0524 -0.3179  0.4867
21709SOL    HW169684   4.313  11.329   1.913 -0.4929  0.5538  0.7562
21709SOL    HW269685   4.355  11.420   2.026  1.3527 -0.1148  0.6421
21710SOL     OW69686   0.715   4.991   6.022  0.0185 -0.3518 -0.4338
21710SOL    HW169687   0.634   5.039   6.038  0.1108  0.1924 -1.5436
21710SOL    HW269688   0.734   5.005   5.929  1.3998 -0.4472 -0.1915
21711SOL     OW69689   5.889   8.504   6.394  0.3138 -0.1779  0.2980
21711SOL    HW169690   5.937   8.502   6.311 -0.3543  0.7952 -0.1347
21711SOL    HW269691   5.833   8.581   6.387 -1.6689 -1.5317  0.5924
21712SOL     OW69692   7.572   9.196   2.490  0.3941 -0.0385 -0.0868
21712SOL    HW169693   7.478   9.202   2.505  0.4834 -0.4475  0.7163
21712SOL    HW269694   7.587   9.243   2.408 -0.6711 -0.9780 -0.8484
21713SOL     OW69695   3.717   0.669  11.363 -0.1672 -0.6461  0.3883
21713SOL    HW169696   3.788   0.696  11.306 -0.0977  2.8104  1.8652
21713SOL    HW269697   3.758   0.612  11.428  0.4959 -1.4712 -0.7273
21714SOL     OW69698  10.884  11.259   3.305  0.5251 -0.0567 -0.3190
21714SOL    HW169699  10.879  11.353   3.319 -2.2181 -0.1259 -0.3094
21714SOL    HW269700  10.969  11.234   3.343  0.8547  2.2265  0.6305
21715SOL     OW69701   3.114   5.634   9.446 -0.3547  0.2921  0.2752
21715SOL    HW169702   3.177   5.604   9.511  0.1638 -0.4400 -0.5432
21715SOL    HW269703   3.036   5.656   9.497  0.1484  0.0402  1.1707
21716SOL     OW69704   6.922   6.699  11.724  0.4624  0.0042  0.0154
21716SOL    HW169705   6.892   6.790  11.720  0.6507  0.1495  1.3735
21716SOL    HW269706   7.013   6.705  11.752  0.5650 -0.5887 -0.1904
21717SOL     OW69707   8.176   3.932   8.873 -0.2603 -0.0669  0.0308
21717SOL    HW169708   8.256   3.984   8.865  0.7877 -1.6698 -0.5390
21717SOL    HW269709   8.152   3.910   8.783 -0.7652 -0.4266  0.2490
21718SOL     OW69710   7.121   6.870   5.405 -0.2972 -0.0647 -0.2492
21718SOL    HW169711   7.183   6.942   5.390 -0.5673 -0.0788 -1.6180
21718SOL    HW269712   7.039   6.902   5.366 -0.6875 -0.7153  0.0326
21719SOL     OW69713   3.192   0.084   8.051  0.4335  0.0530 -0.0789
21719SOL    HW169714   3.112   0.137   8.055 -0.0838 -0.7437  0.3582
21719SOL    HW269715   3.192   0.035   8.132  1.3985  0.0633 -0.0599
21720SOL     OW69716   0.760   3.071   1.792  0.1461 -0.4703  0.2337
21720SOL    HW169717   0.794   3.124   1.864  0.0668  0.4907 -0.4186
21720SOL    HW269718   0.837   3.025   1.758  0.1614 -1.0431  1.0094
21721SOL     OW69719   8.063  10.654  10.727  0.1771  0.1607  0.3178
21721SOL    HW169720   7.980  10.698  10.742 -0.4912 -0.8253 -0.3663
21721SOL    HW269721   8.125  10.725  10.708 -0.4728  0.9052  0.9401
21722SOL     OW69722   5.799   8.497   8.800  0.0849  0.2684  0.0359
21722SOL    HW169723   5.788   8.413   8.756  1.6174  0.5219 -0.9149
21722SOL    HW269724   5.891   8.497   8.828 -0.3618  0.9015  1.6046
21723SOL     OW69725   8.029   6.092   2.340 -0.5087  0.3020  0.4414
21723SOL    HW169726   7.962   6.049   2.393 -1.0249 -0.4360 -0.7670
21723SOL    HW269727   8.000   6.079   2.250  0.6394  1.0302 -0.0509
21724SOL     OW69728  10.066   5.825   0.496 -0.1910  0.1938 -0.2984
21724SOL    HW169729  10.083   5.913   0.462 -1.8148  0.1091 -1.4177
21724SOL    HW269730   9.977   5.805   0.467  0.5394 -2.2733 -1.0494
21725SOL     OW69731   3.217   9.749   5.519  0.2712  0.0587  0.4348
21725SOL    HW169732   3.172   9.680   5.568 -1.0555 -0.8401 -1.8877
21725SOL    HW269733   3.284   9.703   5.468  0.9610  0.8316  0.6165
21726SOL     OW69734   8.159   8.664  10.945 -0.0721  0.0808  0.2401
21726SOL    HW169735   8.083   8.722  10.957 -0.4235 -0.3425  0.0797
21726SOL    HW269736   8.129   8.597  10.884  1.5684  1.9748 -2.9027
21727SOL     OW69737  11.407  11.649   9.429  0.2513 -0.1038  0.3940
21727SOL    HW169738  11.495  11.646   9.392 -0.3292  0.2297 -1.0917
21727SOL    HW269739  11.379  11.740   9.419 -0.9715 -0.5900 -0.9717
21728SOL     OW69740   9.898   9.440   6.874  0.1871 -0.1877  0.4886
21728SOL    HW169741   9.916   9.464   6.783  0.3132 -1.2738  0.2194
21728SOL    HW269742   9.875   9.348   6.871  0.8614 -0.4213  1.6444
21729SOL     OW69743  11.686   9.341   2.335 -0.8647 -0.1721  0.2573
21729SOL    HW169744  11.696   9.377   2.247  0.1621  0.2436  0.5244
21729SOL    HW269745  11.596   9.360   2.359 -1.2911 -0.7072 -0.8826
21730SOL     OW69746   0.549   4.779   2.135  0.2359  0.0464  0.5842
21730SOL    HW169747   0.586   4.773   2.223  0.7480  0.3853  0.3969
21730SOL    HW269748   0.459   4.748   2.144  0.2682  0.1424  1.2400
21731SOL     OW69749   8.307   5.640   7.154 -0.3298  0.8107  0.0137
21731SOL    HW169750   8.224   5.651   7.201 -0.7984 -0.5066 -0.4626
21731SOL    HW269751   8.304   5.704   7.084  0.0002  2.2178  1.2373
21732SOL     OW69752  10.055   8.594   0.815  0.0624  0.1804 -0.3809
21732SOL    HW169753  10.025   8.513   0.857  1.1617 -0.6344 -1.1237
21732SOL    HW269754   9.993   8.661   0.845 -0.3689 -0.7634  0.9170
21733SOL     OW69755   1.968   1.605   7.316  0.1095 -0.3058 -0.6398
21733SOL    HW169756   2.058   1.577   7.301 -0.5035 -3.1584  0.4005
21733SOL    HW269757   1.951   1.584   7.408 -2.0692 -1.4323 -1.2159
21734SOL     OW69758   3.247   3.964   1.673  0.0530 -0.8280 -0.0382
21734SOL    HW169759   3.282   3.897   1.614 -0.6748 -1.2360 -0.0219
21734SOL    HW269760   3.192   4.019   1.616  1.4904  0.4168 -0.2698
21735SOL     OW69761   4.228   4.116   9.844 -0.1434 -0.0779 -0.7718
21735SOL    HW169762   4.184   4.083   9.922 -0.1149  0.6646 -0.4311
21735SOL    HW269763   4.179   4.195   9.820  1.0458  0.8414 -0.3068
21736SOL     OW69764   1.074  10.888   8.794  0.2303  0.0766  0.2605
21736SOL    HW169765   1.080  10.923   8.705 -1.0128  0.0612  0.1528
21736SOL    HW269766   1.035  10.801   8.784 -0.1477  0.1710  0.8292
21737SOL     OW69767   4.184   9.195   5.104  0.0788  0.0741 -0.2507
21737SOL    HW169768   4.101   9.155   5.077 -0.0221  0.1896 -0.1114
21737SOL    HW269769   4.170   9.289   5.095  0.4760  0.0674 -1.0383
21738SOL     OW69770   5.538  10.242   6.115  0.1017 -0.1729 -0.4787
21738SOL    HW169771   5.453  10.212   6.083  0.0262  0.4800 -0.8989
21738SOL    HW269772   5.579  10.163   6.149 -0.3718 -0.6344 -0.9485
21739SOL     OW69773   8.883   6.278  10.190 -0.0666  0.3576 -0.1714
21739SOL    HW169774   8.801   6.317  10.224 -0.3126 -0.1176 -0.2189
21739SOL    HW269775   8.887   6.308  10.100 -0.0343  0.6323 -0.0797
21740SOL     OW69776   0.441   4.599   7.617  0.4127  0.4801  0.1036
21740SOL    HW169777   0.386   4.609   7.540  1.9668 -0.7456 -1.2170
21740SOL    HW269778   0.381   4.612   7.691 -1.2886  0.7902 -1.2720
21741SOL     OW69779  12.043   1.152   2.232 -0.2733  0.8679 -0.1538
21741SOL    HW169780  12.087   1.109   2.305 -1.3792  2.7346  1.7341
21741SOL    HW269781  12.102   1.141   2.158  0.9061 -1.0998  1.0052
21742SOL     OW69782   9.187   8.615   3.258 -0.2839 -0.2665 -0.5713
21742SOL    HW169783   9.222   8.675   3.193  0.4653  0.5758  0.5703
21742SOL    HW269784   9.128   8.669   3.311  1.1387 -0.2246  1.0748
21743SOL     OW69785   4.304   7.910   6.248  0.2007 -0.3226 -0.6236
21743SOL    HW169786   4.216   7.909   6.286  1.0661 -0.9925  1.5291
21743SOL    HW269787   4.335   8.000   6.260 -0.7608  0.4152 -3.0045
21744SOL     OW69788   2.747   3.164   4.888 -0.1123  0.0109  0.3153
21744SOL    HW169789   2.759   3.094   4.823  0.4992 -0.2674  0.7226
21744SOL    HW269790   2.660   3.147   4.925  0.2522 -0.8734  0.8007
21745SOL     OW69791   6.435   2.311   1.253 -0.4872  0.4486  0.4019
21745SOL    HW169792   6.513   2.277   1.209 -0.8201  0.2467 -0.0384
21745SOL    HW269793   6.389   2.233   1.284 -0.7954  0.5386  0.1773
21746SOL     OW69794   6.322   1.321  10.253 -0.2668 -0.5849 -0.1970
21746SOL    HW169795   6.404   1.368  10.268 -1.8207  1.9294  0.9802
21746SOL    HW269796   6.339   1.232  10.286  3.0517 -1.3539 -3.3212
21747SOL     OW69797  11.500   4.486   9.155  0.0431 -1.0030  0.3164
21747SOL    HW169798  11.469   4.548   9.221  1.0203 -1.6388  1.3908
21747SOL    HW269799  11.419   4.452   9.115 -0.5516 -0.3552  0.9359
21748SOL     OW69800   9.426   2.185   3.750 -0.3174 -0.3053 -0.0813
21748SOL    HW169801   9.415   2.090   3.744  1.9166 -0.7423  1.4445
21748SOL    HW269802   9.400   2.207   3.839 -0.0895  0.3985 -0.1819
21749SOL     OW69803   6.061   8.887   4.505 -0.3411  0.3696 -0.5222
21749SOL    HW169804   6.138   8.844   4.469 -0.1731 -0.9797  1.3244
21749SOL    HW269805   6.087   8.978   4.518  0.9074 -0.0490 -0.0251
21750SOL     OW69806   6.412  11.754   9.484 -0.7922  0.0770  0.4861
21750SOL    HW169807   6.337  11.792   9.438 -0.0802  0.5199 -0.3285
21750SOL    HW269808   6.380  11.739   9.573 -1.5945  1.0246  0.3726
21751SOL     OW69809   9.729  10.430   7.529 -0.2375 -0.8084  0.1538
21751SOL    HW169810   9.750  10.346   7.569 -1.0378 -0.9998  0.1715
21751SOL    HW269811   9.726  10.413   7.435  0.2935 -0.6461  0.1032
21752SOL     OW69812  10.544   2.252   6.807 -0.9674  0.5260 -0.4276
21752SOL    HW169813  10.546   2.237   6.712 -0.5259  0.2046 -0.3739
21752SOL    HW269814  10.462   2.213   6.836 -0.5331 -0.4991 -0.5096
21753SOL     OW69815  10.059  12.043   4.187 -0.1287 -0.6777 -0.4246
21753SOL    HW169816  10.141  12.016   4.228 -0.4595 -1.0902 -0.0328
21753SOL    HW269817  10.013  11.961   4.167 -0.6816 -0.4369 -0.1647
21754SOL     OW69818   7.627   8.646   3.208 -0.0326  0.2049  0.1982
21754SOL    HW169819   7.693   8.646   3.138  0.4734  2.2203  0.6183
21754SOL    HW269820   7.631   8.557   3.244  2.1785  0.1469 -0.0374
21755SOL     OW69821   1.379   8.891   7.645 -0.5486  0.5520 -0.8768
21755SOL    HW169822   1.323   8.964   7.616  0.3682  1.8774  0.5560
21755SOL    HW269823   1.466   8.929   7.652 -0.2380 -0.4023  0.9057
21756SOL     OW69824   9.340   4.019   7.200 -0.1910  0.2584 -0.4883
21756SOL    HW169825   9.422   3.988   7.162 -1.2306 -2.4085 -0.7881
21756SOL    HW269826   9.275   4.009   7.130 -1.0775  0.7458  0.2403
21757SOL     OW69827  11.852   9.059   9.564  0.1417 -0.9943  0.5729
21757SOL    HW169828  11.935   9.029   9.601  0.2245 -0.2639  1.0158
21757SOL    HW269829  11.805   8.979   9.542  0.1050 -1.4874  2.2517
21758SOL     OW69830   4.947   9.295   7.329  0.0573  0.8253 -0.0744
21758SOL    HW169831   5.031   9.340   7.318  0.5344 -0.2421 -0.9732
21758SOL    HW269832   4.898   9.314   7.249  1.4450 -2.5732 -1.9895
21759SOL     OW69833   7.370  11.497   0.108 -0.5894  0.1711  0.3082
21759SOL    HW169834   7.420  11.443   0.047 -1.0126 -1.5545  1.4294
21759SOL    HW269835   7.416  11.582   0.108  2.7565 -1.4369  1.6861
21760SOL     OW69836   8.039   8.879   0.627 -0.2121 -0.1101 -0.5183
21760SOL    HW169837   8.076   8.795   0.599  0.3870  0.1138 -0.4139
21760SOL    HW269838   8.106   8.944   0.603 -0.7760  0.3680 -0.8229
21761SOL     OW69839   6.617  10.441  10.827 -0.5913  0.5531  0.3073
21761SOL    HW169840   6.692  10.485  10.786 -1.2009  0.7615 -0.5925
21761SOL    HW269841   6.614  10.478  10.916  0.3081  0.6109  0.3234
21762SOL     OW69842   2.407   2.966  11.707  0.0413  0.1867 -0.2930
21762SOL    HW169843   2.491   2.924  11.721  0.1475  0.4281 -0.1956
21762SOL    HW269844   2.342   2.902  11.738  0.1101 -0.5456 -1.5959
21763SOL     OW69845   7.611   7.428   6.602 -0.5884 -0.3516  0.5541
21763SOL    HW169846   7.587   7.358   6.662  1.3192  0.0455  1.8565
21763SOL    HW269847   7.600   7.390   6.515 -4.1673 -0.6944  1.0116
21764SOL     OW69848   4.911   7.359   1.373 -0.4429 -0.3363  0.0376
21764SOL    HW169849   4.991   7.357   1.321 -0.6963 -0.5319 -0.3438
21764SOL    HW269850   4.908   7.447   1.409 -1.2933  0.4614 -1.8789
21765SOL     OW69851   5.061   5.097   7.471  0.5975 -0.0185 -0.4736
21765SOL    HW169852   5.031   5.014   7.507 -1.3606  0.5314 -0.7291
21765SOL    HW269853   4.981   5.142   7.444  1.6164  1.8762 -0.5089
21766SOL     OW69854   3.348   1.906   3.139 -0.2131  0.0535 -0.3397
21766SOL    HW169855   3.303   1.987   3.118  0.8241  0.4045 -1.3618
21766SOL    HW269856   3.375   1.915   3.230  0.9168  1.3868 -0.7737
21767SOL     OW69857   6.570   1.224   3.965 -0.5158 -0.5843 -0.3258
21767SOL    HW169858   6.632   1.201   4.034 -0.8275 -0.8265 -0.1263
21767SOL    HW269859   6.531   1.306   3.994 -2.0544 -1.6516  0.7406
21768SOL     OW69860   1.295   9.642   8.224 -0.0636 -0.1201  0.2644
21768SOL    HW169861   1.387   9.660   8.243 -0.0632  0.2439 -0.0864
21768SOL    HW269862   1.252   9.727   8.227 -0.5335 -0.3743  1.1931
21769SOL     OW69863   4.162   8.792   4.778 -0.3042 -0.4518 -0.2612
21769SOL    HW169864   4.127   8.881   4.772 -2.6581 -0.9208  3.4318
21769SOL    HW269865   4.248   8.803   4.820 -1.0196  0.0875  1.1230
21770SOL     OW69866   2.401   0.564  11.421  0.2387  0.2904 -0.6069
21770SOL    HW169867   2.356   0.628  11.366  0.5125 -0.1875 -1.4114
21770SOL    HW269868   2.449   0.616  11.485  0.4856  0.8948 -1.2730
21771SOL     OW69869   0.867   1.643   8.926 -0.0328  0.9091  0.4347
21771SOL    HW169870   0.836   1.558   8.958  0.8813  0.9431  1.4730
21771SOL    HW269871   0.788   1.697   8.922 -0.6532 -0.0453 -0.4440
21772SOL     OW69872   5.544   9.002   5.925  0.0828  0.0380 -0.2999
21772SOL    HW169873   5.567   8.916   5.892 -0.0056  0.4086 -1.3513
21772SOL    HW269874   5.555   9.061   5.850  1.5551  1.1884  0.7383
21773SOL     OW69875   0.187   4.594   5.569  0.1959 -0.1133 -0.2839
21773SOL    HW169876   0.165   4.515   5.520 -1.9625  0.0890  0.2615
21773SOL    HW269877   0.225   4.562   5.651 -0.2460 -0.5711 -0.2569
21774SOL     OW69878   1.487  10.157   1.140 -0.2739  0.4355  0.1175
21774SOL    HW169879   1.412  10.174   1.197  0.6283  0.6805  1.2589
21774SOL    HW269880   1.449  10.110   1.065 -1.2636 -1.5642  1.7490
21775SOL     OW69881   4.203   4.645   1.302  0.6499  0.3548  0.3508
21775SOL    HW169882   4.181   4.646   1.395  2.0663 -0.1951  0.7251
21775SOL    HW269883   4.190   4.735   1.273 -1.7316  0.1390  0.5593
21776SOL     OW69884   4.820   4.458   5.548 -0.6039 -0.4477  0.5544
21776SOL    HW169885   4.843   4.396   5.618 -0.5809 -1.4573 -0.3251
21776SOL    HW269886   4.887   4.446   5.482 -0.1969  1.0501  0.6600
21777SOL     OW69887   7.236   7.416  10.799  0.5787  0.7871  0.6100
21777SOL    HW169888   7.181   7.384  10.727  1.4129 -0.2819  0.4130
21777SOL    HW269889   7.182   7.480  10.844 -0.3551  0.6900 -0.3352
21778SOL     OW69890   0.079   4.992   6.541  0.9296 -0.3329  0.5415
21778SOL    HW169891   0.011   4.925   6.552 -0.6392  0.7639 -1.7819
21778SOL    HW269892   0.145   4.969   6.606 -0.9625 -2.3212  1.9090
21779SOL     OW69893   7.968  12.083   3.621  0.0766  0.4900 -0.0176
21779SOL    HW169894   8.029  12.140   3.668  0.7939  0.3243 -0.7361
21779SOL    HW269895   8.018  12.051   3.546 -0.9193  0.4120 -0.6594
21780SOL     OW69896   2.065   0.301   1.509 -0.0160 -0.1423  0.0790
21780SOL    HW169897   2.081   0.381   1.459 -0.5435 -0.4162 -0.5442
21780SOL    HW269898   2.141   0.293   1.567  0.3819  0.4324 -0.3542
21781SOL     OW69899   7.667   3.951   2.881  0.0493 -0.5811  0.3342
21781SOL    HW169900   7.736   3.966   2.946 -0.1236 -1.0645  0.6432
21781SOL    HW269901   7.714   3.935   2.799  0.2725 -0.0165  0.3529
21782SOL     OW69902   5.480   3.497   5.455 -0.7759  0.2708  0.2940
21782SOL    HW169903   5.428   3.417   5.461  1.9109 -1.5300  1.9962
21782SOL    HW269904   5.458   3.547   5.534 -0.3857 -0.2185  0.7208
21783SOL     OW69905   6.303   7.611   3.460  0.0424  1.0459 -0.1921
21783SOL    HW169906   6.240   7.646   3.522 -1.6073 -1.7229 -0.1365
21783SOL    HW269907   6.275   7.645   3.375 -1.6432 -0.1889 -0.1746
21784SOL     OW69908   1.053   3.976   2.453 -0.1798 -0.3008 -0.1878
21784SOL    HW169909   1.126   4.038   2.459 -0.3086 -0.2575  1.4229
21784SOL    HW269910   1.037   3.966   2.360 -0.2312  2.1725 -0.4956
21785SOL     OW69911   1.225   2.308   9.623  0.2384  0.7263 -0.1830
21785SOL    HW169912   1.196   2.226   9.584  0.0355 -0.4512  2.2067
21785SOL    HW269913   1.309   2.327   9.581  0.3920 -0.8343 -0.6488
21786SOL     OW69914   7.716   9.000   5.499  0.3818 -0.8530 -0.0896
21786SOL    HW169915   7.707   9.063   5.427  1.8631  1.4113  1.5854
21786SOL    HW269916   7.627   8.966   5.512 -0.6498  1.4581 -0.5921
21787SOL     OW69917   4.435   9.002   8.554  0.0944  0.0835 -0.3320
21787SOL    HW169918   4.464   8.977   8.642 -2.6558  1.5476  1.1398
21787SOL    HW269919   4.450   9.097   8.551 -0.6898  0.1896 -1.0604
21788SOL     OW69920  10.587   7.097   5.400 -0.0642 -0.1392 -0.5126
21788SOL    HW169921  10.667   7.091   5.347 -0.6648 -0.5085 -1.4130
21788SOL    HW269922  10.590   7.019   5.456 -0.0230 -0.4179 -0.8924
21789SOL     OW69923   8.077   0.777   5.502  0.4844  0.3222 -0.6689
21789SOL    HW169924   8.156   0.812   5.461  0.7036  1.0194  0.3039
21789SOL    HW269925   8.092   0.789   5.596 -0.3318 -0.5142 -0.4236
21790SOL     OW69926   6.626   0.921   7.575 -0.0086 -0.0553  0.8125
21790SOL    HW169927   6.595   0.843   7.623 -0.5818 -0.8843 -0.8102
21790SOL    HW269928   6.710   0.942   7.615  0.8741 -2.4232  0.3567
21791SOL     OW69929   5.894   0.382   7.810  0.0851  0.0670  0.1076
21791SOL    HW169930   5.951   0.370   7.886 -0.8387  1.5898  1.1052
21791SOL    HW269931   5.922   0.465   7.771  0.6399 -0.7670 -1.3301
21792SOL     OW69932   0.449   1.463   2.065 -0.2836 -0.0479  0.2104
21792SOL    HW169933   0.422   1.462   1.974 -0.8688 -0.1323  0.3805
21792SOL    HW269934   0.413   1.545   2.100  1.4333  0.8759 -0.0641
21793SOL     OW69935  10.537  11.641   6.372 -0.4348 -0.4898 -0.1800
21793SOL    HW169936  10.560  11.625   6.280  0.3695 -0.5638  0.0245
21793SOL    HW269937  10.618  11.673   6.411 -0.9955  0.3493  0.3157
21794SOL     OW69938   8.948   4.767  11.946 -0.0801 -0.1224  0.1493
21794SOL    HW169939   8.923   4.858  11.934  1.4217  0.1540 -1.1182
21794SOL    HW269940   8.936   4.751  12.040 -2.5377  0.6677  0.0479
21795SOL     OW69941   6.867   9.574   4.431 -0.7225 -0.0701 -0.1429
21795SOL    HW169942   6.943   9.523   4.402 -1.7804 -0.2005 -3.0477
21795SOL    HW269943   6.904   9.650   4.476  1.2126  0.2895 -2.1866
21796SOL     OW69944   3.339   4.997   6.165  0.1448  0.3809  0.0101
21796SOL    HW169945   3.404   5.067   6.170 -0.0213  0.4871  0.6415
21796SOL    HW269946   3.256   5.039   6.185  0.2775 -0.3305  2.3445
21797SOL     OW69947   8.333   9.520  11.021  0.2710 -0.3893  0.2259
21797SOL    HW169948   8.408   9.575  11.000  0.7509 -1.5053 -1.0684
21797SOL    HW269949   8.340   9.504  11.115  2.2462 -1.3248 -0.0398
21798SOL     OW69950   4.294  10.101   3.525  0.3167  0.0493  0.0628
21798SOL    HW169951   4.356  10.128   3.457  1.1071  0.8262  1.0545
21798SOL    HW269952   4.349  10.084   3.602 -0.5364 -1.0172  0.4642
21799SOL     OW69953   4.122   2.501   2.127  0.6366 -0.4362  0.0853
21799SOL    HW169954   4.154   2.588   2.148  1.1943 -0.6811  0.2800
21799SOL    HW269955   4.073   2.511   2.046  0.3629  0.1261  0.3194
21800SOL     OW69956   7.880   8.454   7.223  0.3120 -0.3625  0.0150
21800SOL    HW169957   7.802   8.470   7.275 -1.8329  0.5953 -3.2046
21800SOL    HW269958   7.880   8.524   7.158  3.1681 -1.1041 -0.9170
21801SOL     OW69959   1.783   9.297   8.873  0.3535  0.0277 -0.1824
21801SOL    HW169960   1.710   9.244   8.841  0.3057  0.5655 -0.9689
21801SOL    HW269961   1.770   9.299   8.968 -2.4373  2.6634 -0.4901
21802SOL     OW69962   1.773   5.743   3.415 -1.0456  0.1986  0.0418
21802SOL    HW169963   1.851   5.756   3.469  0.4463 -3.1591 -1.0776
21802SOL    HW269964   1.799   5.776   3.329 -1.2412  0.0267 -0.0809
21803SOL     OW69965   8.501  10.870   6.413  0.6153 -0.1064 -0.0397
21803SOL    HW169966   8.585  10.845   6.453  1.4006 -0.4866 -1.8260
21803SOL    HW269967   8.495  10.815   6.335 -0.8234  0.6470 -0.4827
21804SOL     OW69968  11.071   4.511   0.655 -0.0642  0.0655  0.0484
21804SOL    HW169969  11.137   4.558   0.605 -0.2397 -0.3052 -0.5335
21804SOL    HW269970  11.055   4.567   0.731 -0.6140  1.1841 -0.8610
21805SOL     OW69971   6.610   5.322   2.599  0.0974 -0.4168  0.5398
21805SOL    HW169972   6.620   5.260   2.528 -0.3701 -0.3883  0.4471
21805SOL    HW269973   6.697   5.359   2.611 -0.2910  1.4113 -1.6879
21806SOL     OW69974   6.918   7.058   1.049 -0.0992  0.8318 -0.9591
21806SOL    HW169975   6.901   7.144   1.087  2.0117  0.8016  0.2262
21806SOL    HW269976   6.965   7.078   0.967 -1.1939  0.8137 -1.6090
21807SOL     OW69977   0.029  10.245   6.842  0.2121 -0.2141  0.1520
21807SOL    HW169978   0.121  10.234   6.862  0.1910 -3.5818 -0.8830
21807SOL    HW269979  -0.011  10.161   6.864 -2.1061  0.2279 -1.8138
21808SOL     OW69980   2.151   8.308   1.170 -0.4366  0.0228 -0.3455
21808SOL    HW169981   2.149   8.236   1.232  3.7991 -0.4126 -0.4208
21808SOL    HW269982   2.193   8.380   1.217 -2.8211  1.9128 -0.8809
21809SOL     OW69983   0.447  11.246   3.066 -0.4204 -1.2147  0.1563
21809SOL    HW169984   0.448  11.250   2.970 -2.1330 -1.3801  0.1058
21809SOL    HW269985   0.539  11.250   3.090 -0.0079  0.7651 -1.4237
21810SOL     OW69986   2.106   1.348   4.223 -0.1758  0.1490 -0.3330
21810SOL    HW169987   2.036   1.413   4.237  0.4081  0.8274 -0.5007
21810SOL    HW269988   2.081   1.304   4.143 -1.3497 -0.8683  0.5545
21811SOL     OW69989   2.819   9.727  11.144 -0.3616  0.2558  0.0035
21811SOL    HW169990   2.797   9.705  11.234  0.2110  0.9992  0.3320
21811SOL    HW269991   2.895   9.672  11.123 -0.8449 -0.3360 -0.2263
21812SOL     OW69992  10.416   8.461  11.575 -0.2403 -0.7716  0.5382
21812SOL    HW169993  10.426   8.461  11.480 -0.1472 -2.1900  0.5250
21812SOL    HW269994  10.500   8.492  11.608 -1.3651  3.3471  0.1730
21813SOL     OW69995   1.205  10.153  12.102 -0.0198 -0.0440  0.0847
21813SOL    HW169996   1.182  10.067  12.138  0.2615  0.1947  0.8517
21813SOL    HW269997   1.178  10.215  12.170  0.2460  0.4392 -0.2461
21814SOL     OW69998  10.999   8.213   5.590 -0.2126 -0.8541  0.2766
21814SOL    HW169999  10.908   8.195   5.614  0.4079 -1.2127  2.6013
21814SOL    HW270000  11.051   8.155   5.647  1.4733 -0.8121 -1.1343
21815SOL     OW70001   6.228  12.044   1.071  0.9775 -0.3869  0.4257
21815SOL    HW170002   6.200  12.036   1.162 -0.0656 -0.3332  0.1343
21815SOL    HW270003   6.201  12.133   1.046 -1.5494 -1.3925 -0.7859
21816SOL     OW70004   2.424   2.847  10.338 -0.4602  1.3062  0.1662
21816SOL    HW170005   2.501   2.842  10.280  0.2587 -0.9460  1.1638
21816SOL    HW270006   2.456   2.894  10.415  0.1352 -0.0565  0.7915
21817SOL     OW70007   9.076   9.702   7.138 -0.4182 -0.3042  0.4987
21817SOL    HW170008   8.994   9.670   7.099 -0.3389  0.0189  0.0574
21817SOL    HW270009   9.133   9.718   7.063  0.8998 -2.7514  0.9101
21818SOL     OW70010  10.445   2.929  10.471  0.2480 -0.1315  0.3823
21818SOL    HW170011  10.466   2.884  10.553  1.2543  0.8436  0.6830
21818SOL    HW270012  10.498   3.008  10.473  0.7336 -0.3692 -1.4934
21819SOL     OW70013  10.309   1.863   2.937  0.5223  0.3811 -0.7076
21819SOL    HW170014  10.361   1.926   2.889  1.5022  0.7172  0.7379
21819SOL    HW270015  10.310   1.784   2.883  4.3884 -0.3679  0.1973
21820SOL     OW70016   0.199   7.913  11.189 -0.3468 -1.1010  0.3370
21820SOL    HW170017   0.251   7.939  11.265 -0.2765 -1.8760  0.5663
21820SOL    HW270018   0.264   7.882  11.126 -0.2856  0.8277 -0.5925
21821SOL     OW70019   1.326  10.386  11.765  0.4411 -0.3515  0.3827
21821SOL    HW170020   1.418  10.402  11.743  0.6252 -0.5072  1.0328
21821SOL    HW270021   1.280  10.463  11.732  0.5163 -1.1264 -1.6879
21822SOL     OW70022   7.679   3.786   5.822  0.5859  1.0981 -0.0107
21822SOL    HW170023   7.604   3.801   5.879 -0.7186 -0.8361 -1.0784
21822SOL    HW270024   7.705   3.695   5.840  0.2910  0.5170 -2.2487
21823SOL     OW70025   3.295  10.974   3.516 -0.4668 -0.4770  0.1634
21823SOL    HW170026   3.224  10.985   3.579 -0.9071 -0.8858 -0.2534
21823SOL    HW270027   3.375  10.980   3.569 -0.8450 -1.4908  0.8737
21824SOL     OW70028   7.443  10.830   0.974 -0.7296  0.4447  0.0898
21824SOL    HW170029   7.421  10.768   1.044  0.2310 -0.2939 -0.2502
21824SOL    HW270030   7.538  10.825   0.967 -0.8421  0.2423 -1.5167
21825SOL     OW70031   0.948   8.357   7.919 -0.1843  0.2314  0.1080
21825SOL    HW170032   0.963   8.445   7.953  0.6519 -0.4450  1.6113
21825SOL    HW270033   0.868   8.328   7.963  0.0156 -0.0569  0.2885
21826SOL     OW70034   5.819   8.460   7.816 -0.1732 -0.1964  0.5427
21826SOL    HW170035   5.825   8.460   7.912 -2.3765  0.3242  0.7418
21826SOL    HW270036   5.725   8.459   7.798  0.1943 -0.9648 -1.6406
21827SOL     OW70037   5.316   5.112   4.013  0.0030  0.4441  0.0516
21827SOL    HW170038   5.277   5.088   4.097 -0.0017 -0.4367 -0.1920
21827SOL    HW270039   5.242   5.148   3.963  0.1162  1.4705  0.6017
21828SOL     OW70040   8.705   5.824  10.408 -0.4637 -0.4984 -0.2110
21828SOL    HW170041   8.669   5.749  10.360  1.7514 -1.1425 -0.9829
21828SOL    HW270042   8.730   5.886  10.339 -0.0881 -0.0830  0.2932
21829SOL     OW70043   3.556  10.817   5.314 -0.7766  0.2194 -0.1782
21829SOL    HW170044   3.537  10.768   5.394  1.3115 -0.1236  0.1662
21829SOL    HW270045   3.608  10.757   5.261  1.2271  1.7362 -0.0687
21830SOL     OW70046   0.380   6.735   7.373 -0.3503 -0.6859 -0.0612
21830SOL    HW170047   0.381   6.703   7.283  1.0941 -1.0440  0.0514
21830SOL    HW270048   0.371   6.830   7.365  2.8065 -0.3292 -0.7918
21831SOL     OW70049   5.462   3.639  10.496  0.2400  0.0461  0.9471
21831SOL    HW170050   5.542   3.690  10.508  1.0549 -0.8886 -0.3059
21831SOL    HW270051   5.410   3.658  10.574  0.5485  2.6573  0.5944
21832SOL     OW70052   5.308   2.979  11.019 -0.2288  0.0678  0.3017
21832SOL    HW170053   5.351   3.003  11.101 -0.0738  3.5713 -0.6512
21832SOL    HW270054   5.309   3.059  10.966 -1.8227 -1.5699 -2.4932
21833SOL     OW70055   6.136   7.708   5.782  1.1038 -0.6242  0.1200
21833SOL    HW170056   6.097   7.629   5.745  1.1724 -0.6007 -0.0038
21833SOL    HW270057   6.208   7.676   5.837  0.5683 -0.7023  0.7859
21834SOL     OW70058  10.218   5.158   1.211 -0.8503 -0.2485  0.3506
21834SOL    HW170059  10.286   5.131   1.150  0.5979 -0.0481  1.8049
21834SOL    HW270060  10.136   5.152   1.161  0.1568 -1.0624 -1.2658
21835SOL     OW70061   3.686   1.122  10.760  0.5232  0.0279  0.0566
21835SOL    HW170062   3.764   1.068  10.775  2.3599  2.6225  0.4507
21835SOL    HW270063   3.707   1.173  10.682 -0.4077  1.3661  0.6407
21836SOL     OW70064   8.146   2.963   0.990 -0.0767  0.0394 -0.1223
21836SOL    HW170065   8.211   3.033   0.981  0.3369 -0.5107 -1.6178
21836SOL    HW270066   8.093   2.990   1.065 -3.4806  4.8396 -3.6575
21837SOL     OW70067   6.440   2.289   0.679  0.7456 -0.9490 -0.9651
21837SOL    HW170068   6.496   2.364   0.697 -0.5218 -0.3526  0.6827
21837SOL    HW270069   6.478   2.217   0.730  0.4156 -0.7221 -0.3948
21838SOL     OW70070   8.029   5.296   5.606  0.6400  0.1684  0.7305
21838SOL    HW170071   7.997   5.260   5.689 -0.9463  1.4104  0.7116
21838SOL    HW270072   7.979   5.249   5.539  0.5409  0.4879  0.5784
21839SOL     OW70073   4.308   1.974   1.628  0.5221  0.6051 -0.7354
21839SOL    HW170074   4.394   1.996   1.662  0.5118 -0.7410  0.2063
21839SOL    HW270075   4.255   1.955   1.705 -0.0080 -0.6926 -1.3857
21840SOL     OW70076   6.579   7.448   9.478  0.2995  0.1342  0.1965
21840SOL    HW170077   6.576   7.459   9.573  0.5839  1.4661  0.0704
21840SOL    HW270078   6.671   7.431   9.459  0.6423  2.0756 -0.0307
21841SOL     OW70079   9.521   4.334  11.654 -0.5317  0.3985 -0.4381
21841SOL    HW170080   9.440   4.283  11.642 -1.4150  2.0403 -2.0673
21841SOL    HW270081   9.503   4.417  11.610  1.5681  1.3659  0.3975
21842SOL     OW70082  10.101   5.168   7.461 -0.0327  0.8662  0.0493
21842SOL    HW170083  10.101   5.263   7.464 -1.1004  0.9162 -0.9452
21842SOL    HW270084  10.076   5.147   7.371  1.2286 -0.3536 -0.0492
21843SOL     OW70085  11.628   9.871   4.640 -0.2789  0.1870  0.2961
21843SOL    HW170086  11.652   9.909   4.724  1.1316 -0.3459  0.1586
21843SOL    HW270087  11.661   9.782   4.643 -1.3574 -0.2586 -0.3465
21844SOL     OW70088  11.397   0.259   3.555  0.2348 -0.3141  0.1728
21844SOL    HW170089  11.452   0.211   3.617  0.7894  1.2307  0.9146
21844SOL    HW270090  11.459   0.311   3.503 -0.4312  0.4732  0.1514
21845SOL     OW70091   2.611   8.494  10.634 -0.2036  0.1331 -0.3261
21845SOL    HW170092   2.678   8.546  10.589 -0.7485 -0.8938 -2.4513
21845SOL    HW270093   2.558   8.457  10.564 -1.7086 -0.8208  1.2287
21846SOL     OW70094  11.605   0.131   5.291  0.5848  0.2353 -0.3910
21846SOL    HW170095  11.674   0.179   5.337  0.1874 -0.0090  0.4709
21846SOL    HW270096  11.525   0.154   5.337  0.0901  0.4379 -1.3317
21847SOL     OW70097   0.131  10.477   9.050  0.1222  0.5198 -0.3298
21847SOL    HW170098   0.113  10.568   9.030 -1.0830  0.8976  2.1505
21847SOL    HW270099   0.049  10.431   9.034 -0.3540  0.5406  1.7009
21848SOL     OW70100   9.246   4.482  10.666  0.2886  0.0406 -0.8395
21848SOL    HW170101   9.312   4.414  10.655  0.9860  0.5430  0.1758
21848SOL    HW270102   9.293   4.564  10.655 -0.5933  0.4025 -2.2959
21849SOL     OW70103   9.150   0.412  11.446  0.3286  0.0393  0.2608
21849SOL    HW170104   9.224   0.469  11.469 -1.1418  2.5245 -0.7490
21849SOL    HW270105   9.146   0.348  11.517  3.1474  0.0719  0.5709
21850SOL     OW70106  11.165   8.255   7.786 -0.0292 -0.3123  0.1500
21850SOL    HW170107  11.085   8.306   7.777 -0.8611 -1.4420  0.7854
21850SOL    HW270108  11.230   8.318   7.817 -0.8905  0.4637  0.4583
21851SOL     OW70109   3.215   3.257   1.880 -0.8427 -0.0179 -0.3472
21851SOL    HW170110   3.156   3.332   1.889 -1.6829 -0.3979 -2.3018
21851SOL    HW270111   3.167   3.183   1.918 -1.1077 -0.0780 -0.7974
21852SOL     OW70112   2.486   2.959   5.245 -0.1395  0.4846 -0.3572
21852SOL    HW170113   2.579   2.972   5.229 -0.3369  0.2997 -1.8398
21852SOL    HW270114   2.469   2.869   5.217 -0.1072 -0.8557  3.3389
21853SOL     OW70115   7.787   0.442   5.600  0.3097  0.0059  0.2365
21853SOL    HW170116   7.708   0.388   5.603  0.5695 -0.3204  1.8040
21853SOL    HW270117   7.831   0.415   5.520 -0.9961 -0.0264 -0.5078
21854SOL     OW70118   9.236   8.408   5.377  0.4162  0.2500  0.0048
21854SOL    HW170119   9.207   8.483   5.325 -0.4088 -1.2188 -1.7642
21854SOL    HW270120   9.244   8.442   5.466 -1.9361  1.9400 -0.3388
21855SOL     OW70121   1.679   6.351   8.079  0.1273 -0.1325  0.1961
21855SOL    HW170122   1.608   6.382   8.135 -1.0354 -0.9186 -0.7887
21855SOL    HW270123   1.720   6.431   8.046  1.0053  0.3504  2.3166
21856SOL     OW70124   8.450   3.873   3.315 -0.2495  0.4339  0.1006
21856SOL    HW170125   8.398   3.952   3.303 -1.3215 -0.0655  1.1735
21856SOL    HW270126   8.440   3.825   3.232 -0.4079  0.9569 -0.1876
21857SOL     OW70127   5.788   1.131   5.278  0.3753  0.1247 -0.0091
21857SOL    HW170128   5.719   1.068   5.297 -1.1976  1.7172 -0.2016
21857SOL    HW270129   5.765   1.208   5.328  1.0833  1.2761 -1.3753
21858SOL     OW70130   3.209   1.581   1.055  0.0836  0.9238 -0.7601
21858SOL    HW170131   3.300   1.611   1.050  0.4503  0.2827  1.1791
21858SOL    HW270132   3.204   1.510   0.991  1.6335 -0.5636  0.6616
21859SOL     OW70133   3.483   5.300   9.574  0.1791  0.0675 -0.0205
21859SOL    HW170134   3.541   5.274   9.646  0.1774 -0.5816 -0.2470
21859SOL    HW270135   3.503   5.238   9.504 -1.7479 -1.0716  0.3643
21860SOL     OW70136   0.464   5.508   2.845 -0.0046 -0.5092  0.7623
21860SOL    HW170137   0.379   5.465   2.852  0.0197 -0.3898  2.0742
21860SOL    HW270138   0.522   5.458   2.903  0.8805 -0.6870 -0.2312
21861SOL     OW70139   7.663   7.664   7.483 -0.3870 -0.2336  0.1443
21861SOL    HW170140   7.609   7.592   7.451  0.3422 -0.7585  0.0839
21861SOL    HW270141   7.605   7.713   7.541 -0.6034 -1.4712  1.0192
21862SOL     OW70142   0.323  11.674   7.253  0.1149 -0.0495  0.5242
21862SOL    HW170143   0.245  11.717   7.220  0.6938 -0.1252 -1.0243
21862SOL    HW270144   0.356  11.733   7.321  0.4957  1.6442 -1.0533
21863SOL     OW70145   4.864   1.639   7.890 -0.5948  0.4933 -0.0599
21863SOL    HW170146   4.860   1.714   7.831  1.0075  2.2988  1.9670
21863SOL    HW270147   4.860   1.677   7.978  2.0005 -1.5860  1.0840
21864SOL     OW70148  11.210   9.342  10.379 -0.2557  0.6831 -0.4552
21864SOL    HW170149  11.144   9.398  10.339 -1.6041 -0.1130  0.5457
21864SOL    HW270150  11.274   9.327  10.310 -0.4218  2.5444 -1.0688
21865SOL     OW70151   8.802  11.067  12.084 -0.5103 -0.5026  0.0709
21865SOL    HW170152   8.799  11.140  12.022  2.0364 -1.1197 -0.9189
21865SOL    HW270153   8.824  11.107  12.168  1.5591 -0.1328 -0.6046
21866SOL     OW70154   1.266   7.939   2.834 -0.3377 -0.2731  0.2493
21866SOL    HW170155   1.186   7.896   2.804 -0.7850  0.7785 -0.1388
21866SOL    HW270156   1.271   8.019   2.781  0.7465 -0.1137  0.5684
21867SOL     OW70157   0.789   7.354   5.322 -0.0941  0.9290  0.4469
21867SOL    HW170158   0.806   7.265   5.354 -1.5831  0.6351  0.5132
21867SOL    HW270159   0.867   7.377   5.272  1.4909  0.6646  2.6484
21868SOL     OW70160   9.959   3.594   3.653  0.1643  0.2235 -0.2782
21868SOL    HW170161   9.938   3.542   3.731 -0.8100  1.8732  0.6073
21868SOL    HW270162  10.012   3.666   3.685 -0.1698  0.8766 -1.1479
21869SOL     OW70163   2.132   3.218   0.476  0.4827  0.2172 -0.3581
21869SOL    HW170164   2.143   3.261   0.561 -1.9827 -3.4034  2.1054
21869SOL    HW270165   2.216   3.173   0.462  0.8683  0.7205  0.2673
21870SOL     OW70166   4.816  12.091   3.584 -0.0095 -0.0603 -0.4748
21870SOL    HW170167   4.799  12.184   3.575  0.4528 -0.0425 -1.2449
21870SOL    HW270168   4.739  12.048   3.548  0.2929  0.0259 -1.2365
21871SOL     OW70169   9.690  10.202   0.550  0.0872 -0.0260  0.0555
21871SOL    HW170170   9.600  10.235   0.549 -0.0648 -0.2849  2.0904
21871SOL    HW270171   9.729  10.240   0.629  2.1848  1.0647 -1.3875
21872SOL     OW70172   8.760  10.356  10.753  0.4196  0.0577  0.2441
21872SOL    HW170173   8.784  10.393  10.838 -0.1513  2.1868 -0.4646
21872SOL    HW270174   8.839  10.311  10.723  0.8258 -0.1802  1.6087
21873SOL     OW70175   0.140   9.003   2.894 -0.6999  0.0151  0.2689
21873SOL    HW170176   0.162   8.910   2.888 -0.5891 -0.0028  0.9555
21873SOL    HW270177   0.137   9.022   2.988 -1.2530  0.5776  0.1497
21874SOL     OW70178   8.529   4.768   8.582 -0.3652 -0.0644 -0.6411
21874SOL    HW170179   8.564   4.731   8.663 -0.9542  0.2320 -0.2473
21874SOL    HW270180   8.601   4.759   8.519  0.4352  0.5862  0.1640
21875SOL     OW70181   7.461   9.952   0.976  0.0069  0.2570 -0.6640
21875SOL    HW170182   7.526  10.022   0.981  0.1099  0.0925  0.6297
21875SOL    HW270183   7.386   9.986   1.025  0.1140 -0.5842  0.0973
21876SOL     OW70184   7.713   3.573   9.121 -0.1146  0.1606 -0.7536
21876SOL    HW170185   7.677   3.644   9.174 -0.8715 -0.0589 -0.9591
21876SOL    HW270186   7.637   3.534   9.078  0.1942 -1.1666 -0.1747
21877SOL     OW70187   9.749   5.929   7.619 -0.0037  0.2320 -0.1164
21877SOL    HW170188   9.835   5.892   7.598  0.2196  0.6424  0.0709
21877SOL    HW270189   9.687   5.862   7.590  0.4225 -0.9064  1.4669
21878SOL     OW70190   4.612  10.998   0.939  0.0684 -0.0557  0.7792
21878SOL    HW170191   4.684  10.970   0.882 -0.1468 -2.4979  1.5849
21878SOL    HW270192   4.654  11.050   1.007  1.1377 -1.5903  1.3399
21879SOL     OW70193   8.718   8.864   1.821 -0.0384  0.0050 -0.5189
21879SOL    HW170194   8.675   8.906   1.746  1.0709 -1.3814 -1.9935
21879SOL    HW270195   8.677   8.778   1.827  1.7875 -0.9975 -1.3970
21880SOL     OW70196   8.418   5.097   5.307  0.1804  0.3192 -0.3036
21880SOL    HW170197   8.485   5.100   5.238 -0.3185  0.3591 -0.7935
21880SOL    HW270198   8.402   5.189   5.329 -0.7966  0.4025 -1.2657
21881SOL     OW70199   3.216   9.966   2.963  0.3046  0.2660  0.1000
21881SOL    HW170200   3.268   9.974   3.043 -0.4943  0.6406  0.5964
21881SOL    HW270201   3.259  10.025   2.901 -0.1010  1.3896  0.8327
21882SOL     OW70202   0.260   2.986   9.171 -0.0026 -0.3864 -0.5195
21882SOL    HW170203   0.206   2.943   9.104 -2.3211  1.6035 -0.0698
21882SOL    HW270204   0.198   3.007   9.241  1.1214  2.7989 -0.3251
21883SOL     OW70205   6.090  10.702   7.686  0.4512  0.3639  0.3579
21883SOL    HW170206   6.137  10.759   7.626  1.3155 -0.2608  0.4315
21883SOL    HW270207   6.158  10.662   7.740 -0.3014  1.0127  1.8640
21884SOL     OW70208  11.770  10.379  10.825  0.2031  0.0799  0.2216
21884SOL    HW170209  11.833  10.338  10.884  0.4791 -0.0836 -0.1789
21884SOL    HW270210  11.688  10.383  10.875  0.5199  0.2740  0.7392
21885SOL     OW70211   6.909   8.582  11.782 -0.1292  0.3333  0.6856
21885SOL    HW170212   6.826   8.554  11.742  0.6452 -1.4621  0.2399
21885SOL    HW270213   6.898   8.676  11.797 -3.0163 -0.1745  2.5060
21886SOL     OW70214   1.570   2.782   2.792  0.4164  0.1288  0.2598
21886SOL    HW170215   1.568   2.810   2.884 -2.4398  2.3717 -0.3580
21886SOL    HW270216   1.647   2.825   2.756  0.4296  0.8709  1.1382
21887SOL     OW70217   8.584   6.844  11.529  0.6824 -0.5646  0.1506
21887SOL    HW170218   8.538   6.927  11.543  0.0064 -0.5714 -1.7877
21887SOL    HW270219   8.620   6.822  11.615  0.3624  1.4253  0.8455
21888SOL     OW70220   9.071   0.265   5.145 -0.3084 -0.0999 -0.0025
21888SOL    HW170221   9.122   0.232   5.219 -0.4607  0.3757  0.3173
21888SOL    HW270222   9.132   0.266   5.072 -0.1956 -0.7174  0.0725
21889SOL     OW70223   4.616   4.547   8.546  0.6278  0.1797 -0.5703
21889SOL    HW170224   4.690   4.519   8.600  0.3798 -0.5208 -0.5773
21889SOL    HW270225   4.548   4.482   8.563  0.6499 -0.2511 -1.9603
21890SOL     OW70226   3.347  11.407  10.057  0.4829  0.0608  0.1048
21890SOL    HW170227   3.316  11.491  10.022 -0.0578 -0.3657 -0.4531
21890SOL    HW270228   3.422  11.384  10.003  0.7219  0.2483  0.3510
21891SOL     OW70229   5.562   7.393   3.406 -0.6461 -0.1982 -0.4692
21891SOL    HW170230   5.541   7.322   3.466 -0.6118  0.1488 -0.0434
21891SOL    HW270231   5.520   7.368   3.324 -2.0715  0.1189  0.1468
21892SOL     OW70232   6.935   1.675  12.119  0.5016 -0.1609  0.1576
21892SOL    HW170233   6.918   1.582  12.102 -0.2204  0.4162 -2.9885
21892SOL    HW270234   6.848   1.714  12.128  0.7628  0.3602  0.4718
21893SOL     OW70235   2.243   8.522   7.813 -0.1195  0.5752 -0.2189
21893SOL    HW170236   2.231   8.460   7.884  1.0810  0.3301 -0.2199
21893SOL    HW270237   2.326   8.498   7.773 -0.5557  0.9865 -1.4329
21894SOL     OW70238   7.424   2.634   2.885  0.0804  0.7877 -0.0377
21894SOL    HW170239   7.468   2.693   2.823 -0.2198 -0.5740 -1.6128
21894SOL    HW270240   7.474   2.553   2.880 -2.1017 -0.5758 -1.3510
21895SOL     OW70241   0.550   2.762   3.915 -0.0608 -0.2039  0.1332
21895SOL    HW170242   0.605   2.810   3.854 -0.9271 -1.2091 -1.5388
21895SOL    HW270243   0.467   2.809   3.915  0.6608  1.2098  2.5094
21896SOL     OW70244   2.046   8.671  11.956  0.2672  0.3633 -0.1829
21896SOL    HW170245   2.069   8.759  11.989 -0.0187 -0.7516  3.4810
21896SOL    HW270246   1.951   8.673  11.948  0.3474  0.6756 -1.0758
21897SOL     OW70247   3.024   3.264  11.494  0.1496 -0.4514 -0.9431
21897SOL    HW170248   3.077   3.185  11.485  0.6355 -0.0697 -1.5495
21897SOL    HW270249   2.952   3.252  11.432  0.1504 -0.4795 -0.9387
21898SOL     OW70250   3.924   9.937   0.790  0.4213  0.5631  0.1115
21898SOL    HW170251   3.862   9.924   0.718  1.2675  0.6325 -0.6486
21898SOL    HW270252   3.872   9.924   0.869 -0.5489  0.5699 -0.5084
21899SOL     OW70253   3.815   5.388  11.727 -0.3433  0.0567 -0.1839
21899SOL    HW170254   3.739   5.333  11.713  0.0477 -0.5042 -0.1259
21899SOL    HW270255   3.876   5.365  11.657  2.0018 -3.4340  2.6293
21900SOL     OW70256  10.053   6.839  10.814  0.2362 -0.4693 -0.2248
21900SOL    HW170257   9.988   6.792  10.866  0.4707  0.3678  0.8488
21900SOL    HW270258  10.023   6.929  10.812  0.1618 -0.4974 -1.6854
21901SOL     OW70259  10.310   4.330   5.117 -0.6933  0.4102 -0.3446
21901SOL    HW170260  10.345   4.377   5.041  0.4320 -1.1561 -0.8392
21901SOL    HW270261  10.292   4.242   5.084 -2.0694  0.2581  0.7396
21902SOL     OW70262   4.941   5.305   5.314  0.1905 -0.1971 -0.2157
21902SOL    HW170263   4.862   5.306   5.367 -0.7198  1.4805 -1.4899
21902SOL    HW270264   4.971   5.396   5.314  0.7975 -0.3660 -1.6496
21903SOL     OW70265   5.924   3.162   9.724  0.5269  0.2735  0.7425
21903SOL    HW170266   5.875   3.197   9.649  1.4157 -0.6583 -0.3132
21903SOL    HW270267   5.960   3.239   9.768 -0.4835  0.8659  0.5592
21904SOL     OW70268   7.548  11.027   7.915 -0.3207 -0.1431  0.0063
21904SOL    HW170269   7.577  11.117   7.901 -0.7082 -0.2582 -1.7390
21904SOL    HW270270   7.454  11.030   7.901 -0.7722 -0.3786  2.4813
21905SOL     OW70271   2.107   3.255   0.014  0.0915  0.1856 -0.2320
21905SOL    HW170272   2.049   3.319   0.055  1.0036 -0.6178  2.4724
21905SOL    HW270273   2.071   3.170   0.039  1.6610 -0.3228  0.3884
21906SOL     OW70274   9.693  11.618   9.436  0.3318  0.2423  0.3091
21906SOL    HW170275   9.632  11.592   9.505  2.3118 -1.8725  1.4161
21906SOL    HW270276   9.650  11.591   9.355 -2.0032  2.7063  0.5938
21907SOL     OW70277   6.496   5.027   4.965 -0.1661  0.1052 -0.0197
21907SOL    HW170278   6.469   4.944   4.925 -1.8263  0.3781  0.4553
21907SOL    HW270279   6.530   5.079   4.892 -0.2195 -0.5604 -0.5216
21908SOL     OW70280   2.145   5.892   4.946  0.3783  0.0337  0.3258
21908SOL    HW170281   2.119   5.842   5.023  1.0280 -1.1148 -0.1740
21908SOL    HW270282   2.115   5.981   4.964 -0.0673 -0.3519  1.6039
21909SOL     OW70283   3.438   2.227   9.696 -0.1034  0.4769 -0.6290
21909SOL    HW170284   3.532   2.232   9.678  0.0623  0.6518  0.2472
21909SOL    HW270285   3.418   2.134   9.694  0.5547  0.2407  1.3499
21910SOL     OW70286   9.554  10.061   4.631  0.0627  0.1663  1.0333
21910SOL    HW170287   9.540  10.067   4.536  0.0833  1.0759  1.0744
21910SOL    HW270288   9.467  10.048   4.667  0.1747 -1.2924  0.8291
21911SOL     OW70289   5.339   6.936   1.842 -0.2760  0.0784  0.0435
21911SOL    HW170290   5.404   6.969   1.904 -0.2862  0.3731 -0.1020
21911SOL    HW270291   5.256   6.970   1.873 -0.0397  2.0980 -1.3614
21912SOL     OW70292  11.848   1.193  11.509 -0.7908  0.4481 -0.1126
21912SOL    HW170293  11.805   1.214  11.426 -1.1726  1.7531  0.3866
21912SOL    HW270294  11.896   1.272  11.531  0.0513 -0.2140  0.4697
21913SOL     OW70295   3.845  12.039   1.624  0.3270  0.0767  0.3664
21913SOL    HW170296   3.812  12.120   1.586  0.0147 -1.0582 -1.9752
21913SOL    HW270297   3.909  12.007   1.560  3.1947  0.2496  2.9387
21914SOL     OW70298   8.157   5.813   3.852  0.1890 -0.5081 -0.0337
21914SOL    HW170299   8.114   5.897   3.866  1.2371  0.2606 -1.1505
21914SOL    HW270300   8.199   5.822   3.766 -0.3416 -2.4658 -0.5515
21915SOL     OW70301   4.145   7.346   3.291 -0.2644 -0.0795  0.4249
21915SOL    HW170302   4.146   7.361   3.197  1.0434 -1.5084  0.1837
21915SOL    HW270303   4.227   7.383   3.323 -0.0253 -0.8839  0.7732
21916SOL     OW70304   0.379   3.824   4.420  0.2853  0.1171 -0.0230
21916SOL    HW170305   0.433   3.806   4.343  2.2018 -1.0705  1.5080
21916SOL    HW270306   0.414   3.907   4.454  2.3002 -1.3449  1.7765
21917SOL     OW70307   9.924   6.426   9.579 -0.1739 -0.7273 -0.7736
21917SOL    HW170308  10.005   6.448   9.626 -0.9492  0.0582  0.2475
21917SOL    HW270309   9.941   6.456   9.490  0.2983  0.4089 -0.3334
21918SOL     OW70310   5.754  10.969   9.151  0.0177  0.1115 -0.6262
21918SOL    HW170311   5.764  10.879   9.119 -0.0479 -0.0443 -0.2217
21918SOL    HW270312   5.662  10.975   9.177  0.7041 -0.8039  2.4945
21919SOL     OW70313   0.651   4.414   2.818 -0.8461  0.0347  0.2611
21919SOL    HW170314   0.735   4.376   2.793 -0.9251  0.2727 -0.3934
21919SOL    HW270315   0.592   4.340   2.829 -0.5979 -0.1204  0.5425
21920SOL     OW70316   9.374   7.310   1.814  0.3904 -0.0071  0.4254
21920SOL    HW170317   9.408   7.367   1.882  1.8206 -0.0499 -0.1982
21920SOL    HW270318   9.319   7.366   1.760 -0.5997  0.0670  1.4925
21921SOL     OW70319   6.085   9.313   8.166  0.2061 -0.4541 -0.1312
21921SOL    HW170320   6.089   9.365   8.086  0.9957 -0.9724 -0.4406
21921SOL    HW270321   6.139   9.362   8.229  2.6885 -1.8746 -1.0263
21922SOL     OW70322   2.413  10.345   5.672 -0.1166  0.7433  0.0522
21922SOL    HW170323   2.417  10.295   5.753 -2.2220  0.8184  0.2644
21922SOL    HW270324   2.432  10.282   5.603 -0.8506  0.0652  0.4527
21923SOL     OW70325   8.887   6.537   6.965  0.0403 -0.1334 -0.3308
21923SOL    HW170326   8.936   6.575   6.892  0.5895 -1.3378 -0.6164
21923SOL    HW270327   8.800   6.520   6.930 -0.1840  0.7563 -0.2258
21924SOL     OW70328   8.160   8.145   8.656 -0.2829 -0.3948 -0.4413
21924SOL    HW170329   8.130   8.205   8.588  0.0831 -0.2989 -0.5234
21924SOL    HW270330   8.256   8.149   8.650 -0.2496 -0.3743  0.0902
21925SOL     OW70331   5.681  11.288   7.039 -0.1217  0.0786  0.0745
21925SOL    HW170332   5.631  11.217   6.998  1.6040 -1.4952  0.5576
21925SOL    HW270333   5.646  11.293   7.128 -0.4506  0.0398 -0.0512
21926SOL     OW70334   6.377   9.827  11.845 -0.4906 -0.4706  0.5152
21926SOL    HW170335   6.429   9.891  11.894  0.4499 -0.7110 -0.1209
21926SOL    HW270336   6.341   9.877  11.772  1.6621 -0.9456 -0.9792
21927SOL     OW70337   7.560   2.407   8.898  0.3066 -0.1996 -0.3475
21927SOL    HW170338   7.539   2.437   8.987 -0.4852 -1.2388 -0.1611
21927SOL    HW270339   7.584   2.487   8.851  2.0513  0.2244  1.1276
21928SOL     OW70340  10.305   9.246   6.715  0.2067  0.7322  0.1475
21928SOL    HW170341  10.310   9.155   6.686 -1.2137  1.5962 -3.2886
21928SOL    HW270342  10.228   9.248   6.772 -2.5600  0.3922 -3.2244
21929SOL     OW70343   5.547   1.175   3.499  0.1048  0.1904 -0.3380
21929SOL    HW170344   5.512   1.234   3.565 -0.7400 -1.6767  0.9908
21929SOL    HW270345   5.479   1.108   3.488  1.3638 -1.0403 -1.0542
21930SOL     OW70346  10.303  10.662   5.286  0.1671 -0.5118 -0.4800
21930SOL    HW170347  10.211  10.672   5.312  0.7035 -1.0148  1.8914
21930SOL    HW270348  10.315  10.567   5.278  0.9897 -0.6184  1.5190
21931SOL     OW70349   3.705  10.955  10.709 -0.2240 -0.4002  0.4533
21931SOL    HW170350   3.738  10.931  10.796  0.1939  0.9328  0.6863
21931SOL    HW270351   3.737  10.886  10.651  1.6536 -0.0191  0.9556
21932SOL     OW70352   2.661   5.696   9.973  0.4145 -0.0412 -0.3386
21932SOL    HW170353   2.613   5.777   9.990  1.3277  0.9081 -2.0743
21932SOL    HW270354   2.603   5.627  10.006 -0.0292  1.3077  1.9359
21933SOL     OW70355   2.719   2.509   5.178 -0.1811  0.0732 -0.0713
21933SOL    HW170356   2.648   2.521   5.116 -0.6396 -0.0711  0.4203
21933SOL    HW270357   2.791   2.472   5.126 -1.0530 -1.4506 -0.2381
21934SOL     OW70358   6.849   0.234   9.746 -0.5339 -0.1576  0.0470
21934SOL    HW170359   6.813   0.293   9.812 -1.1609 -0.8445  0.3458
21934SOL    HW270360   6.777   0.221   9.684  0.6861  2.1841 -2.0391
21935SOL     OW70361   8.742  11.644   9.136  0.4702 -0.5384 -0.3082
21935SOL    HW170362   8.816  11.666   9.193 -0.4102  0.5485  0.4604
21935SOL    HW270363   8.764  11.558   9.101  1.4390 -0.8610  1.0010
21936SOL     OW70364   2.865   9.191  10.645  0.3514  0.4093  0.0138
21936SOL    HW170365   2.805   9.116  10.637  2.7430 -1.6688  0.0952
21936SOL    HW270366   2.885   9.215  10.555  0.5631  0.0844 -0.0277
21937SOL     OW70367   6.359   1.404   5.641 -0.0637  0.2192 -0.3475
21937SOL    HW170368   6.312   1.320   5.650  0.2502  0.1479  0.7168
21937SOL    HW270369   6.299   1.459   5.590 -0.4215 -0.5417 -0.7699
21938SOL     OW70370   4.194  10.379   6.684 -0.2517  0.5164 -0.2853
21938SOL    HW170371   4.221  10.390   6.592  0.3288 -0.7644 -0.2790
21938SOL    HW270372   4.107  10.339   6.678 -0.0898  0.1688 -0.2641
21939SOL     OW70373  10.340   8.902   9.669 -0.4216 -0.1276 -0.2867
21939SOL    HW170374  10.401   8.846   9.717 -2.3554 -2.2687 -0.1240
21939SOL    HW270375  10.301   8.959   9.736 -0.3591 -0.4455  0.0184
21940SOL     OW70376   8.761   3.781   0.089  0.3106 -0.5908 -0.6708
21940SOL    HW170377   8.679   3.776   0.138 -1.2196  2.2356 -2.6141
21940SOL    HW270378   8.810   3.851   0.130  1.0555 -1.2044 -0.4931
21941SOL     OW70379   3.233   1.365   8.789  0.0652  0.2041  0.0239
21941SOL    HW170380   3.327   1.372   8.774  0.2463 -1.1482  0.3889
21941SOL    HW270381   3.208   1.449   8.828  0.8088  1.1920 -1.5345
21942SOL     OW70382   1.154  11.937   3.782 -0.2361  0.6607 -0.0245
21942SOL    HW170383   1.217  11.939   3.709  0.8950 -2.6329  0.6689
21942SOL    HW270384   1.208  11.929   3.860 -1.4568 -0.1102  0.7797
21943SOL     OW70385   4.940   1.923   6.116  0.2269 -0.7475  0.1642
21943SOL    HW170386   4.987   1.865   6.057 -2.1271 -2.0858 -0.5396
21943SOL    HW270387   4.912   1.996   6.061 -0.3467 -1.0512  0.0407
21944SOL     OW70388  11.651   1.004   4.313 -0.3965  0.4424 -0.0674
21944SOL    HW170389  11.596   0.991   4.390 -2.0341 -2.2409 -1.5611
21944SOL    HW270390  11.590   1.031   4.244  0.5316 -0.2651 -1.2000
21945SOL     OW70391  10.632  10.311   1.912  0.7840 -0.3498  0.0860
21945SOL    HW170392  10.571  10.268   1.971 -1.0204  1.4871 -0.3139
21945SOL    HW270393  10.618  10.268   1.828 -1.8253  1.5421 -0.5846
21946SOL     OW70394   7.699   8.658  11.408  0.3467  0.1026  0.0013
21946SOL    HW170395   7.678   8.747  11.379 -0.1724 -0.6568 -2.1336
21946SOL    HW270396   7.630   8.603  11.371  0.7642 -1.2364  1.1056
21947SOL     OW70397  10.281   9.558   6.829 -0.1770  0.4822 -0.1379
21947SOL    HW170398  10.319   9.473   6.853 -1.2615  0.3507  1.2516
21947SOL    HW270399  10.264   9.551   6.735  0.9250 -0.3537 -0.2985
21948SOL     OW70400   9.962  11.995   7.481  0.2055 -0.4352  0.1375
21948SOL    HW170401   9.914  11.944   7.546  0.9927  0.2918  1.3197
21948SOL    HW270402  10.019  11.931   7.438  1.4388 -0.5580  1.8372
21949SOL     OW70403   7.751   1.381  11.901  0.7051  0.4889  0.0712
21949SOL    HW170404   7.802   1.445  11.850 -1.2025  1.7545 -0.3666
21949SOL    HW270405   7.689   1.345  11.838 -0.2349  0.4426  0.9956
21950SOL     OW70406   0.234   5.021   5.348  0.0327 -0.4660  0.0999
21950SOL    HW170407   0.259   5.110   5.377  1.9045  0.3296 -3.3887
21950SOL    HW270408   0.253   4.966   5.424  2.8181  1.6015  1.0895
21951SOL     OW70409   7.352   9.938   4.643  0.8565  0.0138  0.2919
21951SOL    HW170410   7.304   9.858   4.622 -0.3495  0.6188  0.6740
21951SOL    HW270411   7.307   9.974   4.719  1.0938  1.3018 -0.1547
21952SOL     OW70412   6.261   2.319   2.684  0.4698  0.2713  0.5552
21952SOL    HW170413   6.192   2.352   2.741 -2.2022 -1.1452 -1.6044
21952SOL    HW270414   6.263   2.382   2.611 -0.8453 -1.2880 -0.9116
21953SOL     OW70415   8.265   3.559   4.164  0.2870 -0.4200 -0.0679
21953SOL    HW170416   8.306   3.638   4.199 -1.2885  0.6482 -0.5136
21953SOL    HW270417   8.296   3.555   4.073 -0.0868  0.0320 -0.2197
21954SOL     OW70418   1.381   1.487  10.790 -0.1359  0.3862 -0.3310
21954SOL    HW170419   1.386   1.430  10.713  1.5012  0.0868 -0.0383
21954SOL    HW270420   1.469   1.486  10.826 -0.4950  1.7826  0.6568
21955SOL     OW70421   3.092   0.835   1.469  0.0680  0.1217  0.2633
21955SOL    HW170422   3.039   0.756   1.454  2.7877 -1.8175  0.2269
21955SOL    HW270423   3.161   0.830   1.403  1.7209  1.2153  1.8437
21956SOL     OW70424   1.751   2.068   7.069  0.3506  0.0373 -0.4657
21956SOL    HW170425   1.741   2.135   7.137 -0.2770  0.4302 -0.9353
21956SOL    HW270426   1.806   2.001   7.110 -1.0370 -0.3332  0.8891
21957SOL     OW70427   8.072   4.277   1.469 -0.2666  0.4425  0.2756
21957SOL    HW170428   8.143   4.324   1.513 -0.4828  1.8964 -0.8650
21957SOL    HW270429   8.019   4.242   1.541  0.5054  1.0173  1.1565
21958SOL     OW70430   1.013   9.465   2.895 -0.1357  0.3471 -0.3255
21958SOL    HW170431   1.096   9.432   2.931  0.2891 -0.4146 -1.8958
21958SOL    HW270432   0.946   9.424   2.949  0.4692 -1.0457 -0.5819
21959SOL     OW70433   0.520   5.198   6.332  0.1882  0.1470 -0.4110
21959SOL    HW170434   0.505   5.142   6.256 -0.6432  2.1096 -1.7595
21959SOL    HW270435   0.602   5.244   6.312  0.3994  0.0674  0.2608
21960SOL     OW70436   6.359   8.157   7.079 -0.5061  0.5707  0.3175
21960SOL    HW170437   6.401   8.210   7.011  1.6246  1.0360  1.8744
21960SOL    HW270438   6.426   8.093   7.104 -2.6814 -2.3748 -0.8542
21961SOL     OW70439   1.321   1.250   6.496  0.1703 -0.1623 -0.2698
21961SOL    HW170440   1.337   1.334   6.538  0.4600 -0.2386 -0.2310
21961SOL    HW270441   1.238   1.220   6.533  0.3400 -0.1495  0.1163
21962SOL     OW70442   6.680   3.608   7.993 -0.2327 -0.3833 -0.0185
21962SOL    HW170443   6.679   3.513   7.982  1.0435 -0.5722  1.2572
21962SOL    HW270444   6.587   3.632   7.996 -0.6299 -1.2167 -2.8775
21963SOL     OW70445  11.958   1.868  10.689  0.2780 -0.3918 -1.0943
21963SOL    HW170446  11.960   1.955  10.649 -0.9555 -0.7822 -2.0771
21963SOL    HW270447  11.993   1.882  10.777 -2.1269  1.6096 -0.3308
21964SOL     OW70448   9.529  10.644   4.768 -0.2882  0.1120 -0.1162
21964SOL    HW170449   9.517  10.636   4.673 -1.7773 -0.5239  0.1117
21964SOL    HW270450   9.481  10.570   4.805  0.1654  0.4290  1.1575
21965SOL     OW70451  10.028   2.927   7.521  0.2141 -0.2452  0.2887
21965SOL    HW170452   9.942   2.961   7.546  0.8950  1.4886  0.4511
21965SOL    HW270453  10.017   2.896   7.432 -0.2883  1.2952 -0.2216
21966SOL     OW70454  11.791   8.527   4.222 -0.3438  0.8700 -0.1123
21966SOL    HW170455  11.797   8.504   4.315 -0.5763  1.2220 -0.0064
21966SOL    HW270456  11.856   8.473   4.179 -0.6658  0.2448  0.1736
21967SOL     OW70457   9.338  10.453  10.729 -0.4772 -0.0629 -0.0524
21967SOL    HW170458   9.279  10.526  10.749  0.7717  0.7814  0.7622
21967SOL    HW270459   9.348  10.407  10.811  1.3300  0.8604  0.3023
21968SOL     OW70460  11.567   2.214  10.774 -0.1805 -0.4752  0.6477
21968SOL    HW170461  11.489   2.237  10.724 -0.5921  0.1237  1.5375
21968SOL    HW270462  11.627   2.288  10.760 -1.0290  0.6376  2.5157
21969SOL     OW70463   9.084  12.100   3.111 -0.3551 -0.0004  0.2679
21969SOL    HW170464   9.076  12.015   3.068 -2.4536 -0.0670  0.6917
21969SOL    HW270465   9.091  12.163   3.039 -0.0520 -0.4117 -0.0687
21970SOL     OW70466   4.029   5.554   6.294 -0.9617  0.2499  0.0623
21970SOL    HW170467   4.021   5.648   6.280 -0.2401  0.4095  0.6836
21970SOL    HW270468   3.943   5.527   6.326 -1.5606  0.4703 -1.2988
21971SOL     OW70469  11.108   0.959   3.235  0.3727 -0.1018  0.1049
21971SOL    HW170470  11.147   0.996   3.156 -2.0531 -1.5912 -1.9582
21971SOL    HW270471  11.049   1.026   3.267  2.0601  0.8803  1.3112
21972SOL     OW70472   2.490   3.190   2.003 -0.2186 -0.7288 -0.3875
21972SOL    HW170473   2.429   3.159   2.070  0.0936  0.9310  0.7121
21972SOL    HW270474   2.569   3.138   2.017  0.0285 -0.0500  0.9117
21973SOL     OW70475   1.595   9.746   7.348 -0.0573 -0.7192 -0.0335
21973SOL    HW170476   1.634   9.833   7.344 -0.9942 -0.3026 -3.2802
21973SOL    HW270477   1.504   9.761   7.373 -0.2794 -0.6857 -0.8169
21974SOL     OW70478  10.200  11.707   9.097 -0.3583 -0.0859  0.3096
21974SOL    HW170479  10.242  11.688   9.013  0.3158 -0.8418  0.8123
21974SOL    HW270480  10.225  11.634   9.154  0.0691  0.9516  1.4932
21975SOL     OW70481   3.374   2.600   9.268 -0.2115 -0.0323  0.0841
21975SOL    HW170482   3.331   2.685   9.256  0.4230  0.5154  1.5009
21975SOL    HW270483   3.305   2.536   9.249 -0.6702  0.7788 -1.1261
21976SOL     OW70484   3.927   8.660  11.882  0.4831  0.1636  0.1217
21976SOL    HW170485   3.851   8.618  11.842  1.9941 -0.6865 -2.0166
21976SOL    HW270486   3.905   8.666  11.975 -2.5226  0.7370 -0.5327
21977SOL     OW70487  11.269   9.657   5.976 -0.2032  0.2262 -0.4822
21977SOL    HW170488  11.297   9.576   6.017 -0.9108  0.3824  0.3477
21977SOL    HW270489  11.346   9.713   5.978  0.2177 -0.3314 -0.8353
21978SOL     OW70490   9.817   9.037   8.554 -0.2718 -0.1297 -0.1322
21978SOL    HW170491   9.900   9.067   8.516 -0.0370  2.5859  2.1492
21978SOL    HW270492   9.757   9.110   8.540 -1.7489 -1.2981 -0.0772
21979SOL     OW70493  11.707   5.386   5.078 -0.6294  0.0836 -0.9224
21979SOL    HW170494  11.679   5.449   5.011 -2.0910 -2.2318 -2.6054
21979SOL    HW270495  11.630   5.331   5.094  1.0697 -2.4467 -0.8968
21980SOL     OW70496  10.772   3.959   2.731 -0.6399  0.1365 -0.1492
21980SOL    HW170497  10.846   4.016   2.710 -0.6107 -0.1402 -0.8069
21980SOL    HW270498  10.695   4.006   2.698 -0.5349 -0.5717 -1.4546
21981SOL     OW70499   8.783   9.211   9.718 -0.7817 -0.0748  0.1968
21981SOL    HW170500   8.805   9.233   9.808 -2.6293  2.2396  0.1820
21981SOL    HW270501   8.711   9.148   9.726 -0.0356 -0.9345  0.2935
21982SOL     OW70502  12.101   5.389   2.579 -0.0558 -0.3388 -0.5246
21982SOL    HW170503  12.150   5.307   2.572  0.7502  0.1248 -0.5090
21982SOL    HW270504  12.160   5.455   2.542  1.3620  1.0349  3.6098
21983SOL     OW70505   7.918   9.317   1.235 -0.4200 -0.0125 -0.5398
21983SOL    HW170506   7.895   9.390   1.292 -0.1640  1.1203 -1.8508
21983SOL    HW270507   8.003   9.340   1.199  0.5195 -1.8079  0.3756
21984SOL     OW70508   7.625   3.407   9.730 -0.5478 -0.2381 -0.0496
21984SOL    HW170509   7.538   3.447   9.731 -0.5733 -0.2990  0.0789
21984SOL    HW270510   7.671   3.448   9.802 -1.1612 -1.7743  1.2784
21985SOL     OW70511   4.796   9.153   1.287  0.2034  0.4587 -0.3266
21985SOL    HW170512   4.701   9.139   1.296  0.0388  1.0786 -0.9839
21985SOL    HW270513   4.805   9.248   1.282  0.9252  0.4273  0.3392
21986SOL     OW70514   8.907  12.027   9.800  0.1046  0.1077  0.2488
21986SOL    HW170515   8.835  12.046   9.860 -0.5623  1.9611 -1.0392
21986SOL    HW270516   8.945  11.945   9.832 -1.2130  0.2164  2.2205
21987SOL     OW70517   1.469   9.403   8.064 -0.6018 -0.3595  0.4552
21987SOL    HW170518   1.562   9.381   8.067 -0.3813  0.1874 -1.3168
21987SOL    HW270519   1.424   9.324   8.093  0.4009 -0.7043  1.1005
21988SOL     OW70520   1.700  11.383  11.069  0.8526  0.1906 -0.9643
21988SOL    HW170521   1.645  11.417  10.999 -1.1799 -0.1416  0.3960
21988SOL    HW270522   1.641  11.332  11.124  1.7869  2.2791  2.2721
21989SOL     OW70523   5.561  11.229   2.150 -0.1204 -0.0053 -0.2474
21989SOL    HW170524   5.594  11.198   2.234  1.2124 -0.4043 -0.8821
21989SOL    HW270525   5.626  11.294   2.122 -0.5113  0.0730 -0.9896
21990SOL     OW70526   1.346   0.025  11.564 -0.1724 -0.0674 -0.2713
21990SOL    HW170527   1.350  -0.054  11.619 -0.4507 -1.6674 -2.4153
21990SOL    HW270528   1.414   0.082  11.600 -0.4851 -0.9068  1.8452
21991SOL     OW70529   1.392   0.302   2.275  0.2227 -0.1076  0.3889
21991SOL    HW170530   1.403   0.229   2.336  0.0741 -0.6713 -0.2477
21991SOL    HW270531   1.356   0.262   2.196 -0.8354  0.8054  0.3769
21992SOL     OW70532   2.557   6.454   2.103  0.3723 -0.4131  0.4982
21992SOL    HW170533   2.548   6.413   2.190  1.8372 -3.6719 -0.7369
21992SOL    HW270534   2.467   6.461   2.072 -0.2271  1.2358  2.3916
21993SOL     OW70535   8.922   8.872   2.013  0.1188 -0.2629  0.1086
21993SOL    HW170536   8.997   8.889   1.957 -0.6476 -0.8375 -1.1254
21993SOL    HW270537   8.846   8.882   1.956 -0.7002 -0.5602  1.1140
21994SOL     OW70538   1.042   2.764   6.971  0.3515 -0.0581  0.0260
21994SOL    HW170539   1.026   2.721   6.887  1.5447 -0.7548  0.1352
21994SOL    HW270540   1.032   2.857   6.953 -3.7523 -0.2892  0.0750
21995SOL     OW70541   0.163   2.937   5.360  0.3240  0.3218  0.2423
21995SOL    HW170542   0.113   2.918   5.440 -0.3431  0.9610 -0.0117
21995SOL    HW270543   0.225   2.864   5.352 -0.5908 -0.5036  0.5519
21996SOL     OW70544   8.638  11.611   2.843 -0.4836 -0.0187 -0.0349
21996SOL    HW170545   8.555  11.565   2.852 -1.3395  1.6156  0.7195
21996SOL    HW270546   8.704  11.543   2.858 -1.6743 -1.1644  0.2145
21997SOL     OW70547   9.552  10.425  12.030  0.2708  0.1486 -0.7221
21997SOL    HW170548   9.540  10.409  11.937  0.8852  1.7532 -1.1021
21997SOL    HW270549   9.502  10.355  12.073  0.1419 -0.7267 -2.2311
21998SOL     OW70550   5.505   4.512   2.296 -0.0452  0.6804  0.4112
21998SOL    HW170551   5.446   4.519   2.221  0.3853  0.6535  0.0592
21998SOL    HW270552   5.592   4.507   2.256  0.1089 -0.5335  0.8582
21999SOL     OW70553   5.539   4.565   4.299 -0.2725 -0.3751  0.4389
21999SOL    HW170554   5.484   4.624   4.247 -1.6443 -0.9497  1.1843
21999SOL    HW270555   5.609   4.621   4.332 -0.7374  0.5202 -0.0380
22000SOL     OW70556   7.396   2.611   4.392  0.1104  0.4101  0.0918
22000SOL    HW170557   7.330   2.679   4.380  0.4579  0.8737  0.7164
22000SOL    HW270558   7.479   2.654   4.373  0.4738  0.5781  1.8278
22001SOL     OW70559   9.052   0.874   8.507  0.3099  0.1027  0.4153
22001SOL    HW170560   8.994   0.944   8.536 -1.7224 -1.2746 -0.1126
22001SOL    HW270561   9.045   0.874   8.412 -1.0687 -1.8125  0.4576
22002SOL     OW70562   4.374   1.523   7.604 -0.3824  0.0627  0.2905
22002SOL    HW170563   4.291   1.550   7.642 -0.9033 -0.7966 -0.2018
22002SOL    HW270564   4.426   1.494   7.678 -1.1189 -0.8918  0.4607
22003SOL     OW70565   7.267   5.258   6.464 -0.1994 -0.3925 -0.2471
22003SOL    HW170566   7.355   5.223   6.452 -0.0499 -0.4252  0.8291
22003SOL    HW270567   7.233   5.269   6.375 -0.4314 -3.6556 -0.6951
22004SOL     OW70568   7.140   2.742   9.305 -0.2728  0.2256  0.4901
22004SOL    HW170569   7.208   2.800   9.270 -0.2124 -0.1585 -0.0447
22004SOL    HW270570   7.059   2.791   9.294 -0.4472 -0.4156 -1.5168
22005SOL     OW70571   2.244   1.741   6.100 -0.2940 -0.0986  0.4293
22005SOL    HW170572   2.170   1.721   6.042  0.5156  0.3190 -0.7850
22005SOL    HW270573   2.244   1.836   6.108 -0.0040 -0.1111  0.5984
22006SOL     OW70574   2.224   0.209   5.195  0.5215  0.0257 -0.0049
22006SOL    HW170575   2.297   0.234   5.138 -0.2341 -0.3594 -1.1782
22006SOL    HW270576   2.151   0.264   5.167  0.6873  1.4277  2.1062
22007SOL     OW70577  10.686   4.429   4.043  0.3066 -0.3311 -0.0011
22007SOL    HW170578  10.624   4.499   4.026  0.0827 -0.0460  1.8223
22007SOL    HW270579  10.669   4.403   4.133  1.3262 -1.7901 -0.1944
22008SOL     OW70580  11.033  10.974   4.862 -0.4288  0.2535  0.3477
22008SOL    HW170581  10.954  11.024   4.878 -1.2548 -0.9765  0.2338
22008SOL    HW270582  11.014  10.887   4.896  0.8741 -0.0658  0.3090
22009SOL     OW70583   0.947  12.032   7.637  0.0183 -0.2991 -0.1065
22009SOL    HW170584   0.890  11.972   7.589  3.4762 -2.0490 -2.4734
22009SOL    HW270585   1.004  11.975   7.688  0.0628  1.3408  1.7960
22010SOL     OW70586   2.418  10.033   0.193  0.4881 -0.4302  0.3572
22010SOL    HW170587   2.377   9.953   0.162  0.9397 -1.1201  1.4750
22010SOL    HW270588   2.348  10.098   0.193 -0.3165 -1.2630  1.0339
22011SOL     OW70589   1.428   7.232   3.267 -0.2789 -0.0826  0.2060
22011SOL    HW170590   1.400   7.162   3.207 -0.8740  0.8150 -0.5896
22011SOL    HW270591   1.363   7.301   3.255 -1.7714 -0.6991  3.5540
22012SOL     OW70592   1.731   9.243   0.768 -0.8496 -0.2218 -0.4153
22012SOL    HW170593   1.783   9.294   0.830 -1.5502 -0.0650  0.0625
22012SOL    HW270594   1.651   9.221   0.817 -0.7375 -1.4379 -0.7495
22013SOL     OW70595   8.684   9.081   3.239  0.0186  0.0832 -0.5590
22013SOL    HW170596   8.681   9.032   3.157 -0.0854  0.2801 -0.6741
22013SOL    HW270597   8.617   9.040   3.294  0.7057 -0.6328 -0.2405
22014SOL     OW70598   1.736   3.145   5.143 -0.0779  0.2905  0.0793
22014SOL    HW170599   1.655   3.115   5.183 -0.2869  0.4535 -0.2233
22014SOL    HW270600   1.798   3.150   5.216 -0.6420  1.2600  0.5180
22015SOL     OW70601   3.205   8.547  10.339 -0.2229 -0.2319 -0.4061
22015SOL    HW170602   3.248   8.604  10.275  0.5367  1.4494  1.4726
22015SOL    HW270603   3.272   8.485  10.365  0.0978  0.3427  0.1696
22016SOL     OW70604   0.120   4.031   7.845  0.4363  0.1422 -0.8555
22016SOL    HW170605   0.025   4.030   7.840  0.4236  1.5825 -1.6121
22016SOL    HW270606   0.149   4.010   7.756  0.7633  1.6663 -1.1378
22017SOL     OW70607   7.084   9.078   0.372 -0.5042  0.0685  0.2276
22017SOL    HW170608   6.996   9.054   0.401 -0.2390 -2.0182 -0.4611
22017SOL    HW270609   7.143   9.030   0.430  0.0952 -0.5526 -0.8460
22018SOL     OW70610   9.453   5.828   7.164 -0.1401  0.4301 -0.2096
22018SOL    HW170611   9.479   5.790   7.080 -0.9046  0.2027 -0.3569
22018SOL    HW270612   9.370   5.785   7.185 -0.2087  0.8513  0.4179
22019SOL     OW70613   8.741   1.615   5.230 -0.4145 -0.3288  0.2462
22019SOL    HW170614   8.650   1.589   5.242 -0.3709 -0.3747  0.4665
22019SOL    HW270615   8.751   1.695   5.281 -0.7033  0.4650 -0.8942
22020SOL     OW70616   6.626  10.975   8.347 -0.5759 -0.5283  0.8357
22020SOL    HW170617   6.691  11.032   8.307 -0.6341 -0.9669  0.0944
22020SOL    HW270618   6.644  10.979   8.441 -0.2995  0.3451  0.7463
22021SOL     OW70619   1.632   5.063   4.578 -0.4147 -0.0919  0.4518
22021SOL    HW170620   1.584   5.061   4.661 -1.3064  0.0869 -0.0498
22021SOL    HW270621   1.567   5.041   4.512  0.3421 -0.4860 -0.1862
22022SOL     OW70622   8.742   7.118  11.644  0.0182  0.0671  0.2927
22022SOL    HW170623   8.657   7.073  11.645  0.4187 -0.7685 -0.9043
22022SOL    HW270624   8.720   7.211  11.646 -0.9663 -0.1267 -0.5293
22023SOL     OW70625   2.519   2.311   6.538 -0.5602  0.0534  0.5574
22023SOL    HW170626   2.458   2.310   6.612 -0.5988 -0.4412  0.5208
22023SOL    HW270627   2.473   2.359   6.469 -0.5367  0.4880  0.8412
22024SOL     OW70628   8.664  11.869   1.797 -0.3674  0.4802  0.3757
22024SOL    HW170629   8.747  11.826   1.821 -0.4840  0.6920  1.1637
22024SOL    HW270630   8.610  11.861   1.875 -0.9413  0.7271  0.0023
22025SOL     OW70631   9.423   2.992   2.543  0.0557  0.8397 -0.6267
22025SOL    HW170632   9.426   3.087   2.556  0.4707  0.7467  0.0480
22025SOL    HW270633   9.426   2.980   2.448  2.4332  1.4523 -0.6960
22026SOL     OW70634   9.261   3.421   4.546 -0.8919 -0.4512 -0.4949
22026SOL    HW170635   9.347   3.461   4.534 -1.0505  0.7039  1.7610
22026SOL    HW270636   9.203   3.473   4.491 -0.4685  0.0585 -0.4707
22027SOL     OW70637   0.201   7.958   2.531 -0.1873  0.0561  0.2717
22027SOL    HW170638   0.232   7.868   2.536  1.3062  0.5952  1.6374
22027SOL    HW270639   0.278   8.011   2.552 -0.8941  1.6870 -1.0500
22028SOL     OW70640   9.344   3.583   6.093  0.6632 -0.1653  0.0077
22028SOL    HW170641   9.404   3.549   6.027  1.1774  0.1050  0.3249
22028SOL    HW270642   9.263   3.533   6.081  0.2277  0.9025 -1.8000
22029SOL     OW70643   2.351   2.347   3.408 -0.4360 -0.0151 -0.7142
22029SOL    HW170644   2.275   2.300   3.374 -1.7262  0.4530  1.3639
22029SOL    HW270645   2.314   2.420   3.457  1.2390 -0.7852  1.8867
22030SOL     OW70646   0.817  11.724   6.631 -0.2674 -0.2371  0.3166
22030SOL    HW170647   0.900  11.758   6.664 -0.0616 -0.2903 -0.1419
22030SOL    HW270648   0.830  11.629   6.628  0.0348 -0.1836 -0.7371
22031SOL     OW70649   3.428  10.725   7.597  0.5725 -0.1532 -0.1189
22031SOL    HW170650   3.426  10.820   7.610  1.4876  0.0485 -1.2421
22031SOL    HW270651   3.477  10.713   7.515 -0.2938 -1.5503 -0.4686
22032SOL     OW70652  10.958   2.264  11.985  0.1838 -0.0124  0.1988
22032SOL    HW170653  10.919   2.263  11.898 -0.4392 -0.4799  0.4717
22032SOL    HW270654  10.883   2.266  12.045  0.5205 -1.9512  0.7519
22033SOL     OW70655   5.836   8.261   8.654  0.0422 -0.1049  0.0279
22033SOL    HW170656   5.875   8.184   8.694  1.7375  0.2301 -0.8587
22033SOL    HW270657   5.756   8.230   8.612 -0.5762 -0.8751  1.6973
22034SOL     OW70658   6.632   7.773   0.410  0.3943  0.2796 -0.6029
22034SOL    HW170659   6.550   7.780   0.362 -0.7863  0.1832  1.2985
22034SOL    HW270660   6.630   7.846   0.471  0.6319 -0.9961  0.9938
22035SOL     OW70661   7.247   8.904   7.270  0.0010  0.5214 -0.0266
22035SOL    HW170662   7.170   8.942   7.312  0.4465 -0.3930  1.7002
22035SOL    HW270663   7.272   8.831   7.327  2.3348  0.9833 -0.3582
22036SOL     OW70664   8.197  10.800   3.022 -1.1106  0.2039  0.1666
22036SOL    HW170665   8.207  10.873   3.084  1.5598  1.0446 -1.0974
22036SOL    HW270666   8.150  10.839   2.948  0.9764  0.9709 -0.8378
22037SOL     OW70667   3.857   3.356   7.784  0.0225 -0.1189  0.1853
22037SOL    HW170668   3.876   3.379   7.875 -1.5637 -2.6972  1.2714
22037SOL    HW270669   3.766   3.382   7.771 -0.2177 -1.1084 -0.1685
22038SOL     OW70670  11.833   5.315   7.322 -0.2690 -0.7038  0.5499
22038SOL    HW170671  11.914   5.353   7.357  0.3914 -1.1779 -0.4139
22038SOL    HW270672  11.849   5.221   7.321 -0.5875 -0.7611 -0.1994
22039SOL     OW70673   4.154   9.985   2.547 -0.2712  0.0104  0.5627
22039SOL    HW170674   4.224   9.956   2.606  0.7729 -1.3312 -1.2313
22039SOL    HW270675   4.099   9.908   2.536 -0.1424  0.0763 -0.6138
22040SOL     OW70676   9.182   7.039   7.684  0.2399 -0.5406  0.1488
22040SOL    HW170677   9.248   7.094   7.724 -0.6966  1.6790 -1.1617
22040SOL    HW270678   9.185   6.957   7.733  2.7390  0.1063  1.1989
22041SOL     OW70679  10.287  10.380   0.006 -0.3363 -0.1371  0.4396
22041SOL    HW170680  10.354  10.315   0.031 -2.3912 -3.3413 -1.5952
22041SOL    HW270681  10.206  10.329   0.001 -2.9659  3.4446  2.3215
22042SOL     OW70682  10.447   8.068  11.798  0.1066  0.6139  0.2189
22042SOL    HW170683  10.394   8.134  11.844 -1.6294  1.3726 -2.6040
22042SOL    HW270684  10.460   8.104  11.710  1.5633 -1.5771 -0.5543
22043SOL     OW70685   0.894   9.230   9.502 -0.6391 -0.2649  0.0107
22043SOL    HW170686   0.817   9.262   9.455 -0.6225  3.5831  2.1922
22043SOL    HW270687   0.860   9.198   9.586  0.0104  0.7710  0.6929
22044SOL     OW70688  11.898   4.762   8.863 -0.1285  0.0331 -0.0081
22044SOL    HW170689  11.872   4.827   8.798  0.0869  1.1967  1.0115
22044SOL    HW270690  11.821   4.751   8.919  0.5999  1.4115  1.3651
22045SOL     OW70691   9.463   4.579   0.106 -0.2862 -0.0057  0.4783
22045SOL    HW170692   9.402   4.614   0.041  0.3996  0.5560  0.1214
22045SOL    HW270693   9.510   4.656   0.139  1.4933 -0.5824 -0.5763
22046SOL     OW70694   1.550   9.798   7.068 -0.1945 -0.3929 -0.1000
22046SOL    HW170695   1.616   9.734   7.038  1.6150  0.2762  2.1660
22046SOL    HW270696   1.547   9.787   7.163 -2.5839  0.4162 -0.0170
22047SOL     OW70697   8.671   6.076  10.818 -0.1218 -0.3055  0.6379
22047SOL    HW170698   8.709   6.044  10.900 -1.4297 -2.3194  0.5176
22047SOL    HW270699   8.656   5.998  10.766 -0.6168  0.8139 -0.9811
22048SOL     OW70700   5.061   1.736   0.173  0.2093 -0.2048  0.1499
22048SOL    HW170701   4.991   1.672   0.188 -0.0525  0.7896  4.7042
22048SOL    HW270702   5.142   1.687   0.185  0.2980 -0.7343 -2.1609
22049SOL     OW70703   7.191  11.939   4.491  0.1209  0.5777 -0.4839
22049SOL    HW170704   7.250  11.893   4.431 -0.6790 -0.0115 -0.8301
22049SOL    HW270705   7.110  11.889   4.489 -0.5192  1.5711 -0.2847
22050SOL     OW70706   8.464   7.075   9.749  0.2816  0.8224 -0.2167
22050SOL    HW170707   8.510   7.120   9.678  0.1503 -0.4204 -1.1342
22050SOL    HW270708   8.534   7.039   9.804  0.3856  1.2881 -0.0389
22051SOL     OW70709   6.484   4.349   8.979  0.6391 -0.1109  0.0140
22051SOL    HW170710   6.462   4.285   8.911 -1.4725  0.0162  0.4879
22051SOL    HW270711   6.478   4.299   9.061  1.2399  0.1777  0.2375
22052SOL     OW70712   4.204   3.082   3.439 -0.2979  0.0634 -0.0218
22052SOL    HW170713   4.116   3.063   3.472  0.3766 -4.4008 -0.1396
22052SOL    HW270714   4.207   3.039   3.353  2.2563 -0.9564  0.4786
22053SOL     OW70715   2.800   4.381   9.414 -0.0601  0.2750  0.3678
22053SOL    HW170716   2.777   4.288   9.413 -1.1843  0.4618  2.5156
22053SOL    HW270717   2.717   4.426   9.430  0.7046  1.5354  0.9163
22054SOL     OW70718   3.905   5.400   8.680  0.0660  0.2621 -0.1499
22054SOL    HW170719   3.973   5.461   8.650 -0.4665  0.9031 -0.0717
22054SOL    HW270720   3.899   5.416   8.774 -1.2951  1.3654 -0.3875
22055SOL     OW70721   4.717   9.682   2.304 -0.8655  0.1138  0.1041
22055SOL    HW170722   4.772   9.761   2.307 -1.7735  0.8594 -1.2298
22055SOL    HW270723   4.743   9.631   2.380 -0.0392  1.5720  0.8460
22056SOL     OW70724   1.560   3.094  11.105 -0.4815  0.2816  0.0045
22056SOL    HW170725   1.634   3.034  11.109 -0.0603  0.8434  1.2095
22056SOL    HW270726   1.542   3.116  11.197 -1.4565  0.9843 -0.3343
22057SOL     OW70727   2.082   8.522   4.015 -0.1834  0.0160  0.1950
22057SOL    HW170728   2.161   8.487   3.975 -0.9434  0.0748 -1.4704
22057SOL    HW270729   2.078   8.482   4.101 -0.6958 -3.6357 -1.3726
22058SOL     OW70730   9.905  10.017   0.785  0.2426 -0.6804  0.6004
22058SOL    HW170731   9.879   9.957   0.854 -2.0570 -0.2893  0.1869
22058SOL    HW270732   9.867   9.980   0.705 -0.2367  0.6897  0.1576
22059SOL     OW70733   2.930  10.256   4.995 -0.5409  0.2778 -0.3497
22059SOL    HW170734   2.952  10.258   4.902 -2.5123 -0.9781 -0.9156
22059SOL    HW270735   2.970  10.176   5.028  0.1740  0.7331 -0.0811
22060SOL     OW70736  10.045   4.340  11.560 -0.4388  0.1664  0.1183
22060SOL    HW170737  10.064   4.295  11.479  1.6105 -0.2761  0.7895
22060SOL    HW270738   9.953   4.321  11.578 -0.7344 -0.2732 -1.7188
22061SOL     OW70739   5.953   0.679   7.195 -0.5017 -0.3274 -0.1420
22061SOL    HW170740   6.033   0.672   7.143  0.0340  0.2040  0.5976
22061SOL    HW270741   5.926   0.770   7.184  0.0343  0.0025  1.0912
22062SOL     OW70742   7.733   4.110   9.798 -0.2223 -0.0734  0.2195
22062SOL    HW170743   7.692   4.140   9.880  0.8631  0.7053  0.4882
22062SOL    HW270744   7.663   4.118   9.733 -0.2239  2.3415  0.4256
22063SOL     OW70745   2.499   8.749   8.484 -0.0963  0.1647  0.5283
22063SOL    HW170746   2.564   8.683   8.506 -0.4816 -0.3580  0.1291
22063SOL    HW270747   2.519   8.773   8.393 -0.6469 -0.2387  0.2913
22064SOL     OW70748   4.331   1.243   5.301 -0.0789  0.2739 -0.1465
22064SOL    HW170749   4.372   1.159   5.283  0.2216  0.6405 -1.3169
22064SOL    HW270750   4.306   1.276   5.214 -2.5703  0.2137  0.4671
22065SOL     OW70751   1.915   9.778   9.493  0.5791  0.2106 -0.6973
22065SOL    HW170752   1.946   9.853   9.443 -1.9222  0.6429 -1.7699
22065SOL    HW270753   1.929   9.802   9.585  3.9763 -0.0191 -1.0175
22066SOL     OW70754   0.857   3.682  11.566 -0.6983 -0.0269  0.2341
22066SOL    HW170755   0.765   3.686  11.540 -0.7800 -1.1936  0.3140
22066SOL    HW270756   0.903   3.733  11.499 -1.0567 -1.8902 -1.5328
22067SOL     OW70757   4.861   1.981   6.768 -0.2541  0.2240 -0.6776
22067SOL    HW170758   4.855   1.921   6.842  0.2996  0.1154 -0.7118
22067SOL    HW270759   4.948   1.965   6.731 -0.0983  1.0357 -0.6949
22068SOL     OW70760   9.465   9.610   4.595 -0.1435 -0.2672 -0.3171
22068SOL    HW170761   9.399   9.549   4.627  0.7707 -1.2061 -0.1459
22068SOL    HW270762   9.504   9.647   4.675 -0.0916 -0.1286 -0.4056
22069SOL     OW70763   3.872  11.922  10.295  0.6944  0.1545  0.5186
22069SOL    HW170764   3.888  12.010  10.261  1.6105  1.0029  2.9128
22069SOL    HW270765   3.777  11.919  10.309  0.4963  0.2908 -0.7542
22070SOL     OW70766   7.389   7.309   2.621  0.5753 -1.0093 -0.4144
22070SOL    HW170767   7.455   7.252   2.582  0.7108 -2.4909  1.8338
22070SOL    HW270768   7.440   7.381   2.659  0.7408 -1.2397 -0.1962
22071SOL     OW70769   6.235   4.124   1.651  0.2507  0.1134  0.2599
22071SOL    HW170770   6.310   4.135   1.710  0.2149  0.7779  0.1962
22071SOL    HW270771   6.180   4.059   1.694 -0.3737  1.4685  1.5989
22072SOL     OW70772  10.341   4.391   5.368 -0.0817  0.2045  0.0065
22072SOL    HW170773  10.371   4.481   5.362  0.6548 -0.0416 -0.1378
22072SOL    HW270774  10.330   4.363   5.278 -0.0078  0.0501  0.0461
22073SOL     OW70775   5.022   9.832   5.189  0.6375 -0.4775  0.0781
22073SOL    HW170776   5.041   9.890   5.262  0.0210 -0.7745  0.4818
22073SOL    HW270777   5.004   9.747   5.229  0.9010 -0.7940 -0.4602
22074SOL     OW70778   0.662   5.857   8.568  0.3088 -0.0286 -0.4997
22074SOL    HW170779   0.626   5.772   8.594  0.7865  0.0120  0.3373
22074SOL    HW270780   0.608   5.921   8.615 -1.0590  0.2297 -2.3363
22075SOL     OW70781   3.802   6.706   6.025 -0.2691  0.1273  0.2936
22075SOL    HW170782   3.854   6.629   6.003 -2.9682 -1.1619 -2.3226
22075SOL    HW270783   3.795   6.704   6.120  1.7975 -1.3944  0.4819
22076SOL     OW70784   3.512   8.258   5.840 -0.0409 -0.4328  0.6178
22076SOL    HW170785   3.455   8.266   5.763  0.2374  0.1769  0.4689
22076SOL    HW270786   3.562   8.178   5.825  0.0278 -0.3051  0.1570
22077SOL     OW70787   4.533   9.432   4.852 -0.2440  0.0261 -0.5797
22077SOL    HW170788   4.561   9.477   4.931 -1.9905 -1.4095  0.9219
22077SOL    HW270789   4.461   9.485   4.818 -0.6982 -0.3147 -0.1644
22078SOL     OW70790   8.929   6.314   0.668  0.0867 -0.8060  0.4403
22078SOL    HW170791   8.947   6.305   0.761  0.9089 -1.1071  0.2584
22078SOL    HW270792   8.996   6.261   0.625 -1.4119 -2.1968 -0.2718
22079SOL     OW70793   1.582   2.797   4.869  0.1111 -0.6295  0.3967
22079SOL    HW170794   1.658   2.743   4.846  0.1132 -0.7177  0.6089
22079SOL    HW270795   1.564   2.776   4.961 -0.5508 -1.0573  0.1723
22080SOL     OW70796   0.785   4.089   5.172 -0.9875 -0.2469 -0.0516
22080SOL    HW170797   0.708   4.121   5.124 -0.9816  0.6487  0.5153
22080SOL    HW270798   0.859   4.107   5.113 -0.8938  1.4887  0.5156
22081SOL     OW70799  12.048   3.389   0.127 -0.0822 -0.0078 -0.3562
22081SOL    HW170800  11.992   3.359   0.198  2.2647 -1.9767  0.8161
22081SOL    HW270801  11.991   3.443   0.072 -2.5870 -0.3925  1.6943
22082SOL     OW70802   3.015   9.303   2.231  0.6235 -0.4483 -0.1309
22082SOL    HW170803   2.922   9.280   2.238  0.3780  0.5797  0.1033
22082SOL    HW270804   3.031   9.361   2.305  2.1102 -2.6454  1.3719
22083SOL     OW70805   5.397   0.842  12.012 -0.4720 -0.0455 -0.7903
22083SOL    HW170806   5.401   0.754  12.048  1.0310  0.2252 -0.2498
22083SOL    HW270807   5.454   0.894  12.068 -2.5238  1.6564 -0.1153
22084SOL     OW70808   7.658   3.624   6.344  0.4245 -0.2601  0.1297
22084SOL    HW170809   7.626   3.546   6.300  0.4913  0.1430 -0.6509
22084SOL    HW270810   7.740   3.645   6.300  1.3443 -0.7847  1.5348
22085SOL     OW70811   0.438  11.663   7.945  0.3658  0.8081 -0.3743
22085SOL    HW170812   0.467  11.666   7.854  0.8657 -0.3676 -0.2685
22085SOL    HW270813   0.415  11.572   7.960  0.7699  0.8853  0.8192
22086SOL     OW70814   2.257   9.965  11.252 -0.5059  0.7841  0.0354
22086SOL    HW170815   2.264   9.873  11.276  0.6867  0.6946 -0.5794
22086SOL    HW270816   2.167   9.975  11.222 -0.3446 -0.4387 -0.9259
22087SOL     OW70817   5.647   7.589   4.308 -0.0292  0.6388 -0.1452
22087SOL    HW170818   5.656   7.684   4.322  0.2827  0.4230  1.2753
22087SOL    HW270819   5.554   7.571   4.322  0.0033  0.6593  0.0947
22088SOL     OW70820   1.600   2.709   5.177  0.1982  0.1224  0.3458
22088SOL    HW170821   1.622   2.751   5.260  0.0760  0.7482  0.0648
22088SOL    HW270822   1.508   2.684   5.186 -0.2795  1.5890 -0.1650
22089SOL     OW70823   3.691   7.884   9.226 -0.1799 -0.7113 -0.0425
22089SOL    HW170824   3.751   7.895   9.299  2.9255 -1.1426 -2.3322
22089SOL    HW270825   3.707   7.959   9.169 -2.8401 -0.1335 -0.1544
22090SOL     OW70826   6.754   8.534   2.369 -0.2887 -0.1913 -0.1062
22090SOL    HW170827   6.707   8.538   2.286  1.4242  0.6645 -1.0778
22090SOL    HW270828   6.705   8.592   2.428 -1.4651 -0.7380 -0.5185
22091SOL     OW70829   7.234   5.246   6.178  0.3620 -0.6967 -0.4760
22091SOL    HW170830   7.270   5.217   6.095 -0.1929  0.7482 -1.2575
22091SOL    HW270831   7.226   5.341   6.169  0.9972 -0.4040  1.5079
22092SOL     OW70832   2.998   7.746   5.820  0.0009  0.5806 -0.1569
22092SOL    HW170833   3.036   7.709   5.900 -0.2481  0.3849 -0.1264
22092SOL    HW270834   3.072   7.750   5.758  0.1235  0.4244 -0.0230
22093SOL     OW70835   7.842   3.289  11.414 -0.0632 -0.2273  1.0704
22093SOL    HW170836   7.773   3.351  11.438  0.2769  0.5589  0.0686
22093SOL    HW270837   7.921   3.325  11.453  0.3805  0.7281 -0.6325
22094SOL     OW70838   8.528   3.134   9.484 -0.0162  0.0391 -0.7467
22094SOL    HW170839   8.619   3.133   9.452  0.2428  0.7623 -0.0800
22094SOL    HW270840   8.477   3.093   9.414  0.6256  0.9231 -1.7691
22095SOL     OW70841  10.763   6.599   4.616  0.9487  0.6767 -0.0556
22095SOL    HW170842  10.677   6.640   4.616  1.4751  1.8149 -0.2136
22095SOL    HW270843  10.776   6.570   4.526  0.4257 -0.1881  0.1367
22096SOL     OW70844   5.785   1.327   0.671  0.2730  0.3702  0.0644
22096SOL    HW170845   5.690   1.312   0.670 -0.0367  2.0386  0.0410
22096SOL    HW270846   5.797   1.394   0.738  1.4872 -0.0952  0.3170
22097SOL     OW70847   4.138   8.217   4.576  0.2939 -0.2006 -0.6061
22097SOL    HW170848   4.142   8.153   4.647 -0.5239 -1.1233 -1.3700
22097SOL    HW270849   4.229   8.231   4.552  0.7262  1.2444  1.5605
22098SOL     OW70850  10.690   4.206   9.774 -0.5727  0.0533  0.2165
22098SOL    HW170851  10.721   4.120   9.748 -3.2808 -0.8659 -0.2492
22098SOL    HW270852  10.749   4.268   9.730  0.6021 -1.5289 -0.5036
22099SOL     OW70853   8.879   6.075   1.303  0.0450  0.0475 -0.1910
22099SOL    HW170854   8.808   6.025   1.262 -0.3928  2.1103 -2.2276
22099SOL    HW270855   8.849   6.091   1.392 -1.7008  0.1287 -0.7499
22100SOL     OW70856   2.869   2.010  10.096  0.5834 -0.0867 -0.3619
22100SOL    HW170857   2.833   2.009  10.008  1.5454 -0.2140 -0.7704
22100SOL    HW270858   2.894   1.920  10.113  0.9984  0.0531 -0.2184
22101SOL     OW70859  12.032   6.829   8.717 -0.0338 -0.2933  0.0891
22101SOL    HW170860  11.976   6.770   8.769  1.2154 -1.1642  0.4904
22101SOL    HW270861  12.018   6.802   8.627 -0.4272 -0.3583  0.1676
22102SOL     OW70862   6.476   3.823   5.448 -0.0404  0.8222 -1.1695
22102SOL    HW170863   6.471   3.867   5.362 -1.5613  1.1598 -0.9429
22102SOL    HW270864   6.480   3.895   5.511  2.8938  0.5980 -0.9541
22103SOL     OW70865   6.324  12.102   2.423  0.0322  0.2544 -0.8953
22103SOL    HW170866   6.374  12.179   2.396  1.1797  0.0622  0.5856
22103SOL    HW270867   6.260  12.136   2.486  0.6455 -0.0126 -0.1177
22104SOL     OW70868   5.252   2.246   8.559  0.0615 -0.8572 -0.3970
22104SOL    HW170869   5.275   2.338   8.547 -1.7442 -0.2454  0.4906
22104SOL    HW270870   5.160   2.241   8.534 -0.5863 -1.8668  1.9079
22105SOL     OW70871   8.276   9.919   9.625  0.0636  0.3733 -0.3664
22105SOL    HW170872   8.353   9.975   9.612 -0.7795  2.0846  1.4099
22105SOL    HW270873   8.310   9.841   9.668  1.1708 -0.2128 -2.2065
22106SOL     OW70874   7.130   2.785   1.762 -0.4602  0.7619 -0.1701
22106SOL    HW170875   7.220   2.755   1.775  0.1711  1.4778 -2.4093
22106SOL    HW270876   7.123   2.865   1.815 -0.3934 -0.2550  1.4316
22107SOL     OW70877   5.819   3.046  10.745  0.2796 -0.1289  0.1101
22107SOL    HW170878   5.898   3.031  10.694 -0.5338  1.4429 -1.7470
22107SOL    HW270879   5.810   3.142  10.748 -0.8537 -0.2369  1.4209
22108SOL     OW70880   9.255  10.211   8.668  0.4779  0.3362 -0.7090
22108SOL    HW170881   9.166  10.244   8.676  0.2389  0.3242 -2.8728
22108SOL    HW270882   9.247  10.116   8.674  0.6376  0.3848  1.0353
22109SOL     OW70883  10.633   7.554   0.890 -0.6604  0.2641  0.0870
22109SOL    HW170884  10.584   7.491   0.838  2.2344 -0.3910 -2.1697
22109SOL    HW270885  10.711   7.507   0.918  0.2799  2.0667  0.6949
22110SOL     OW70886   7.966   9.004   4.299 -0.3298 -0.4551 -0.2591
22110SOL    HW170887   8.061   8.996   4.299 -0.4021 -1.9410  1.3159
22110SOL    HW270888   7.944   9.044   4.383 -1.1255 -0.7057 -0.3324
22111SOL     OW70889   5.752  10.802   8.744  0.3470  0.3184 -0.0721
22111SOL    HW170890   5.791  10.754   8.818 -0.7117 -0.2640  0.1234
22111SOL    HW270891   5.691  10.740   8.704  0.9462  0.6045 -1.4977
22112SOL     OW70892   9.763   0.655  11.194  0.1846 -0.5370  0.2371
22112SOL    HW170893   9.716   0.573  11.211  0.2251 -0.4853  0.6096
22112SOL    HW270894   9.850   0.640  11.232 -0.9277  1.0189  3.8413
22113SOL     OW70895   7.708   5.115   3.198  0.1103 -0.3644 -0.0780
22113SOL    HW170896   7.691   5.079   3.112  0.2706  1.1109 -0.7616
22113SOL    HW270897   7.624   5.153   3.225 -0.0095 -1.0366  0.5490
22114SOL     OW70898   9.214   6.597   6.058 -0.7036 -0.2421  0.1969
22114SOL    HW170899   9.186   6.506   6.069  0.5656 -0.5538  1.2266
22114SOL    HW270900   9.190   6.639   6.141  0.2627 -0.1065  0.4274
22115SOL     OW70901   2.511   9.879   5.895 -0.6056 -0.1199 -0.0549
22115SOL    HW170902   2.516   9.875   5.991  1.0658  0.6647 -0.0772
22115SOL    HW270903   2.534   9.791   5.866  1.4342  0.2555  0.2435
22116SOL     OW70904   4.388   7.689   4.404  0.3994 -0.8673  0.5287
22116SOL    HW170905   4.410   7.762   4.346  0.5605 -0.5380  1.0017
22116SOL    HW270906   4.357   7.620   4.345  0.1130 -0.3689  0.0891
22117SOL     OW70907   0.863   9.076   3.388  0.0031 -0.5438 -0.2488
22117SOL    HW170908   0.941   9.021   3.383  0.9655  0.4546  2.3268
22117SOL    HW270909   0.895   9.162   3.416 -2.0211 -0.1592  1.1176
22118SOL     OW70910   9.660   3.697   6.933 -0.1252 -0.0896  0.7977
22118SOL    HW170911   9.638   3.612   6.969  0.0219  0.7361  2.9916
22118SOL    HW270912   9.576   3.734   6.905 -0.0890 -1.2472 -0.9937
22119SOL     OW70913   1.234   4.916   8.911  0.0044 -0.2350 -0.2965
22119SOL    HW170914   1.185   4.981   8.861  1.2884  1.0305  0.0093
22119SOL    HW270915   1.326   4.937   8.892  0.5243 -0.0070  2.2185
22120SOL     OW70916   7.778   0.252   4.719  0.0412 -0.7571  0.8293
22120SOL    HW170917   7.810   0.336   4.750 -0.4948 -0.9899  2.0691
22120SOL    HW270918   7.786   0.256   4.623  0.1735  0.6228  0.8894
22121SOL     OW70919   4.343  11.116   6.880 -0.3432 -0.5714  0.3582
22121SOL    HW170920   4.310  11.202   6.854 -0.9804 -0.7065  0.7138
22121SOL    HW270921   4.393  11.133   6.960  0.6617 -0.3350 -0.2927
22122SOL     OW70922   0.961   2.407   7.435  0.2488 -0.8757  0.4149
22122SOL    HW170923   0.889   2.407   7.372  0.2676  0.5896  0.3741
22122SOL    HW270924   0.964   2.496   7.469  0.5248 -1.5298  2.1817
22123SOL     OW70925   8.007   6.486   5.911 -0.2393 -0.1523 -1.0380
22123SOL    HW170926   8.043   6.400   5.889  0.3328 -0.2200  0.1292
22123SOL    HW270927   7.959   6.511   5.832  2.5299  0.0564 -2.8191
22124SOL     OW70928   6.405   8.247   4.742  0.0470  0.3671  0.0030
22124SOL    HW170929   6.475   8.309   4.761 -0.9495  1.6693 -0.4003
22124SOL    HW270930   6.376   8.217   4.828  1.1076 -0.2328  0.1730
22125SOL     OW70931   1.530   3.242   2.422  0.3229 -0.1767  0.3909
22125SOL    HW170932   1.599   3.200   2.370 -1.0945 -0.7172 -1.1306
22125SOL    HW270933   1.493   3.308   2.364 -2.7102 -2.1885 -0.1953
22126SOL     OW70934  11.226   1.254  10.698  1.1816  0.2004 -0.1638
22126SOL    HW170935  11.291   1.186  10.715  0.7485 -0.0752  0.4014
22126SOL    HW270936  11.150   1.207  10.664  0.1784  0.1410  2.0113
22127SOL     OW70937   3.966   2.840   3.574 -0.5931  0.5817 -0.5773
22127SOL    HW170938   3.876   2.869   3.557 -0.9639  0.2111  0.6417
22127SOL    HW270939   3.979   2.855   3.667 -0.0911 -1.2359 -0.3102
22128SOL     OW70940   8.675   5.685   1.971  0.0167  0.7415 -0.5591
22128SOL    HW170941   8.606   5.717   2.029  0.2115 -0.6863  0.5145
22128SOL    HW270942   8.629   5.657   1.892 -0.6031  0.2390 -0.0384
22129SOL     OW70943   3.664  11.792  10.689  0.2950  0.2906  0.0586
22129SOL    HW170944   3.685  11.701  10.710 -1.4799  0.2513  2.0497
22129SOL    HW270945   3.725  11.844  10.742  0.0871  0.2346  0.3550
22130SOL     OW70946  10.524   4.329   8.844 -0.0630  0.1456  0.4091
22130SOL    HW170947  10.529   4.347   8.937 -0.6732  1.0652  0.2720
22130SOL    HW270948  10.614   4.342   8.812  0.2573 -0.7041  0.9489
22131SOL     OW70949   2.172   4.995   3.101 -0.0438 -0.3749 -0.1025
22131SOL    HW170950   2.200   4.930   3.036 -0.8715 -1.2063  0.3604
22131SOL    HW270951   2.205   5.078   3.066  2.0333 -1.1505 -0.1257
22132SOL     OW70952   1.825  10.880   0.549 -0.1917  0.1044  0.0107
22132SOL    HW170953   1.765  10.941   0.593 -0.0130  0.6349 -0.4757
22132SOL    HW270954   1.881  10.936   0.496  1.4420 -0.2750  1.2489
22133SOL     OW70955   2.853   0.910   5.539 -0.3020  0.0576  0.1036
22133SOL    HW170956   2.813   0.975   5.595  1.3862  1.1415  0.1394
22133SOL    HW270957   2.940   0.895   5.577 -0.1876 -1.2998 -0.6090
22134SOL     OW70958   0.148   8.084   4.407  0.2308  0.1571  0.3976
22134SOL    HW170959   0.113   7.999   4.433  1.0333 -0.7801 -1.4044
22134SOL    HW270960   0.169   8.074   4.314  0.8465  2.1667  0.2708
22135SOL     OW70961   3.686   1.918   1.155 -0.1343 -0.2103 -0.0618
22135SOL    HW170962   3.767   1.889   1.197 -0.1814 -0.6431 -0.2636
22135SOL    HW270963   3.695   1.890   1.064 -0.4551 -0.1457 -0.1150
22136SOL     OW70964   0.435   8.104   2.632 -0.5656  0.6235 -0.2463
22136SOL    HW170965   0.481   8.049   2.569 -2.3565 -1.4660  0.1511
22136SOL    HW270966   0.478   8.087   2.716  0.9526  2.3820 -0.6103
22137SOL     OW70967   2.236   4.531   5.567 -0.4028 -0.4682  0.0828
22137SOL    HW170968   2.269   4.443   5.545  0.5675 -0.6003  1.8528
22137SOL    HW270969   2.167   4.515   5.630  0.7620  0.0494  1.5493
22138SOL     OW70970   8.798   0.494   6.006 -0.2363 -0.4163  0.4355
22138SOL    HW170971   8.789   0.551   6.082  1.5953  0.3875  0.1242
22138SOL    HW270972   8.716   0.504   5.958 -0.6870  0.4969  1.3685
22139SOL     OW70973  10.538   8.110   3.132 -0.6409  0.0598  0.0829
22139SOL    HW170974  10.549   8.023   3.171 -0.4579 -0.0217 -0.1476
22139SOL    HW270975  10.449   8.109   3.096  0.0417 -0.7693 -1.7249
22140SOL     OW70976   5.388   6.374   0.891  0.9400  0.4201 -0.1423
22140SOL    HW170977   5.315   6.374   0.953  1.4970  0.1559  0.5184
22140SOL    HW270978   5.429   6.460   0.901  1.3000  0.2111  0.1735
22141SOL     OW70979   5.337   5.394   7.632 -0.0137 -0.1316  0.3493
22141SOL    HW170980   5.421   5.435   7.649  0.3089 -0.1181 -1.1322
22141SOL    HW270981   5.349   5.302   7.656  0.1696  0.0319  0.8881
22142SOL     OW70982   1.592   5.494   9.632 -0.2934  0.1384 -0.2650
22142SOL    HW170983   1.549   5.530   9.709 -0.0943 -0.5318  0.1760
22142SOL    HW270984   1.531   5.510   9.560 -1.6521 -1.4260  0.4601
22143SOL     OW70985   0.827   6.364   2.616 -0.0926 -0.0273 -0.1529
22143SOL    HW170986   0.920   6.386   2.619 -0.2013  0.3396  1.1969
22143SOL    HW270987   0.787   6.416   2.686 -1.2764 -0.3561 -0.5519
22144SOL     OW70988  11.896   9.090   7.041  0.3447 -0.1469  0.8228
22144SOL    HW170989  11.973   9.096   7.097 -0.1323  2.0445  1.3349
22144SOL    HW270990  11.915   9.147   6.967 -0.4466 -0.2582  0.5162
22145SOL     OW70991   6.513   6.913   4.667  0.0751 -0.4133 -0.1910
22145SOL    HW170992   6.583   6.935   4.606  0.1451 -1.6848 -0.6024
22145SOL    HW270993   6.460   6.848   4.621 -1.9034  1.1416 -0.2316
22146SOL     OW70994   8.251   5.924   2.339  0.2019  0.0718  0.3808
22146SOL    HW170995   8.184   5.992   2.341  0.2364  0.1591 -0.8164
22146SOL    HW270996   8.228   5.866   2.411 -1.0393  0.2164  0.1194
22147SOL     OW70997   7.224   2.875   6.014  0.1779  0.0749 -0.0116
22147SOL    HW170998   7.138   2.912   6.033 -0.5743 -1.1083 -0.9573
22147SOL    HW270999   7.286   2.935   6.056 -1.1760 -0.1806  2.5429
22148SOL     OW71000  10.383   2.717   6.391 -0.0066  0.0661  0.8237
22148SOL    HW171001  10.373   2.624   6.371 -0.3170  0.3691 -0.5303
22148SOL    HW271002  10.312   2.736   6.452 -0.0533 -0.5383  0.9671
22149SOL     OW71003   4.198   3.497   2.347  0.1132 -0.0532 -0.0332
22149SOL    HW171004   4.252   3.530   2.274  2.4340 -1.6938  0.8283
22149SOL    HW271005   4.151   3.574   2.378  1.2592  1.2885 -1.4327
22150SOL     OW71006   5.639   6.540  10.683 -0.6465 -0.0203 -0.1765
22150SOL    HW171007   5.634   6.476  10.613  2.3791 -0.5842  0.0026
22150SOL    HW271008   5.586   6.614  10.651  0.7977 -0.1460 -3.1863
22151SOL     OW71009   1.471   6.621   5.802  0.3900 -0.1852  0.3929
22151SOL    HW171010   1.520   6.591   5.879 -0.5800 -0.5970  0.8706
22151SOL    HW271011   1.450   6.712   5.822  0.7302 -0.0881  0.3080
22152SOL     OW71012   6.572   4.003   6.362 -0.2733  0.2006 -0.2013
22152SOL    HW171013   6.536   3.924   6.402 -1.5225 -0.9124 -3.2259
22152SOL    HW271014   6.645   3.972   6.309  0.2882  1.3493 -0.1400
22153SOL     OW71015   3.203   8.277   6.480  0.4161  0.5411  0.7521
22153SOL    HW171016   3.178   8.209   6.416 -1.1665  1.2631  0.5624
22153SOL    HW271017   3.178   8.359   6.438  0.6711  1.1256  1.7249
22154SOL     OW71018   0.910   3.519   3.542  0.0409 -0.0034 -0.3840
22154SOL    HW171019   0.823   3.531   3.503 -0.5931 -0.6437  0.7868
22154SOL    HW271020   0.970   3.561   3.480 -0.8090 -1.6702 -2.4822
22155SOL     OW71021   8.152   1.335   1.883 -0.0567 -0.1966 -0.3818
22155SOL    HW171022   8.191   1.371   1.804  0.2090  0.9055  0.2275
22155SOL    HW271023   8.226   1.314   1.940 -0.2849  0.1544  0.0496
22156SOL     OW71024  11.943   3.998   9.466  0.1066  0.0713 -0.1203
22156SOL    HW171025  11.862   3.995   9.417 -0.1288 -2.0289  0.3151
22156SOL    HW271026  11.927   4.063   9.535  0.0407  2.1793 -2.0005
22157SOL     OW71027   9.197   8.362   2.403  0.7020  0.1845 -0.0420
22157SOL    HW171028   9.267   8.365   2.338 -0.6039 -1.1770 -1.6180
22157SOL    HW271029   9.153   8.447   2.395  0.6770  0.1073 -0.8226
22158SOL     OW71030   8.502   6.567   8.870  0.3898  0.0143 -0.6057
22158SOL    HW171031   8.491   6.502   8.939 -0.0097 -0.6681 -1.2976
22158SOL    HW271032   8.566   6.630   8.906  1.5624 -1.2969 -0.2989
22159SOL     OW71033   8.066   2.470  10.565  0.3770  0.4184 -0.8497
22159SOL    HW171034   8.115   2.471  10.647  0.8400  0.0817 -1.1182
22159SOL    HW271035   8.133   2.465  10.497 -0.0441 -2.4739 -1.1568
22160SOL     OW71036   5.582   5.814   8.980 -0.3520  0.3847  0.0282
22160SOL    HW171037   5.565   5.799   8.887  0.5648 -0.7316  0.0066
22160SOL    HW271038   5.511   5.769   9.025 -0.6376  0.6739 -0.1349
22161SOL     OW71039   1.544   2.488  11.388 -0.1698  0.2761  0.5949
22161SOL    HW171040   1.503   2.540  11.457 -0.4908  1.5483 -0.5121
22161SOL    HW271041   1.530   2.538  11.308  0.7870 -0.8249 -0.3093
22162SOL     OW71042   4.837   2.000  12.117 -0.0406  0.0635 -0.1735
22162SOL    HW171043   4.808   2.081  12.159 -0.2279  0.2356 -0.6199
22162SOL    HW271044   4.932   2.010  12.109  0.1153 -0.3784  1.0377
22163SOL     OW71045   5.324   6.198   7.270 -0.3148  0.6235 -0.6188
22163SOL    HW171046   5.323   6.243   7.355 -2.2147  0.3467 -0.4472
22163SOL    HW271047   5.274   6.118   7.284 -0.7333  0.6055 -2.0125
22164SOL     OW71048   8.898   4.527   8.554  0.3982  0.2124  0.2557
22164SOL    HW171049   8.905   4.476   8.474  2.4883 -0.1078  0.5923
22164SOL    HW271050   8.830   4.593   8.535 -0.7554 -1.2485 -0.9456
22165SOL     OW71051   5.700  11.832   8.942 -0.0888  0.7350 -0.3287
22165SOL    HW171052   5.622  11.875   8.976 -0.3990 -0.2201  0.2033
22165SOL    HW271053   5.667  11.751   8.902  0.6100  0.4043 -0.2486
22166SOL     OW71054   9.666   8.503   5.432 -0.2108  0.0583 -0.0650
22166SOL    HW171055   9.730   8.433   5.424  0.4954  0.7843 -1.1367
22166SOL    HW271056   9.717   8.583   5.418 -0.8264  0.8704  1.9963
22167SOL     OW71057   0.130   0.997   2.796 -0.0235  0.6447 -0.3150
22167SOL    HW171058   0.152   0.983   2.888 -1.2501  1.0393  0.0585
22167SOL    HW271059   0.137   0.911   2.757  0.1985  0.4141  0.2168
22168SOL     OW71060   6.264   4.202   7.431  0.2591 -0.1848  0.4831
22168SOL    HW171061   6.350   4.205   7.390  1.0214 -2.8259  1.6442
22168SOL    HW271062   6.212   4.146   7.373 -0.3482  0.4722  0.3762
22169SOL     OW71063   9.148  11.380   8.546 -0.1877  0.0147  0.0874
22169SOL    HW171064   9.165  11.293   8.508 -0.3125  0.1113 -0.1959
22169SOL    HW271065   9.125  11.435   8.471 -1.2497  0.0047  0.3810
22170SOL     OW71066  10.027   3.074  11.216 -0.0251  0.2423  0.0477
22170SOL    HW171067   9.985   3.019  11.150 -0.1490 -0.6821  0.8712
22170SOL    HW271068   9.987   3.046  11.299  2.0781 -0.5713  0.8631
22171SOL     OW71069   2.628   1.047  11.604  0.2133 -0.3225  0.1725
22171SOL    HW171070   2.630   0.978  11.538  1.1926  0.9768 -1.2361
22171SOL    HW271071   2.598   1.125  11.557 -1.8375  0.0478  1.9467
22172SOL     OW71072   2.535   8.477   4.402 -0.5457 -0.1910 -0.2853
22172SOL    HW171073   2.451   8.503   4.440 -0.7172 -1.0083 -0.0844
22172SOL    HW271074   2.601   8.522   4.456 -0.7927 -1.2123  0.9090
22173SOL     OW71075   6.559   8.907   1.959 -0.3715 -0.3402 -0.2880
22173SOL    HW171076   6.495   8.837   1.965 -0.4375 -0.1356  2.6927
22173SOL    HW271077   6.635   8.875   2.008  0.5510  0.7213 -0.9526
22174SOL     OW71078   3.256   9.256  10.656  0.1411  0.1419 -0.6012
22174SOL    HW171079   3.197   9.324  10.690  0.4890  1.0392 -1.7209
22174SOL    HW271080   3.208   9.174  10.669 -1.0569  0.7794 -0.8324
22175SOL     OW71081   2.624   0.402   3.200  0.2050 -0.0561 -0.3136
22175SOL    HW171082   2.587   0.484   3.169 -0.8799  0.8568  3.0474
22175SOL    HW271083   2.564   0.335   3.169 -3.3004  1.1879  3.0340
22176SOL     OW71084   5.575  10.482   4.321  0.0220 -0.1631 -0.2126
22176SOL    HW171085   5.574  10.556   4.260  0.7326 -0.1076 -0.1619
22176SOL    HW271086   5.604  10.407   4.268 -0.3406 -0.3288 -0.1786
22177SOL     OW71087   1.130   4.835   9.923 -0.4185 -0.3777  0.4121
22177SOL    HW171088   1.127   4.930   9.939  2.3690 -0.3298  1.2346
22177SOL    HW271089   1.067   4.821   9.853 -0.7110  2.1427  0.0642
22178SOL     OW71090   4.255   7.936  10.388  0.0846  0.0587  0.5640
22178SOL    HW171091   4.276   7.964  10.478  0.3975  1.2654  0.1351
22178SOL    HW271092   4.162   7.911  10.392 -0.1541  0.9640  1.0403
22179SOL     OW71093  10.289   9.447   1.001 -0.3761  0.0194 -0.4650
22179SOL    HW171094  10.349   9.413   1.068 -1.6059 -0.3729  0.4673
22179SOL    HW271095  10.288   9.380   0.933  0.7642  0.3511 -0.8338
22180SOL     OW71096   5.968   9.194   5.496  0.2765 -0.3534 -0.1042
22180SOL    HW171097   5.910   9.188   5.420 -1.6164  0.2274  1.2067
22180SOL    HW271098   5.917   9.155   5.568  0.6191  2.0641  1.5762
22181SOL     OW71099  10.529  11.476   8.980  0.2542 -0.0760 -0.0618
22181SOL    HW171100  10.535  11.533   9.056  1.5063  0.6170 -0.6481
22181SOL    HW271101  10.437  11.478   8.955 -0.1637 -0.2619  1.3740
22182SOL     OW71102   4.878   1.438   3.747 -0.4098  0.3263  0.2580
22182SOL    HW171103   4.806   1.500   3.755 -0.3743  0.5591 -0.9658
22182SOL    HW271104   4.889   1.426   3.652  0.4499 -0.5344  0.4447
22183SOL     OW71105   9.072   3.873  10.034  0.0372  0.0705  0.1268
22183SOL    HW171106   9.015   3.816   9.981 -0.5849  2.1790 -1.5978
22183SOL    HW271107   9.157   3.828  10.033 -0.2781 -0.5965 -1.6408
22184SOL     OW71108  11.943  10.910   9.546  0.0410  0.0081 -0.1103
22184SOL    HW171109  11.958  10.999   9.576  0.5535  0.0623 -0.5339
22184SOL    HW271110  11.853  10.891   9.573 -0.3315  0.9168 -0.7012
22185SOL     OW71111   6.469   9.037   7.244  0.2736  0.2790  0.1862
22185SOL    HW171112   6.374   9.040   7.239  0.2438  0.6270  0.9349
22185SOL    HW271113   6.489   8.991   7.325  0.7332  1.2207  0.6246
22186SOL     OW71114   6.380   9.177   3.941 -0.0915  0.7493  0.1856
22186SOL    HW171115   6.404   9.263   3.906  0.6860  0.9468  1.1483
22186SOL    HW271116   6.301   9.153   3.894 -0.3061  1.9792 -0.1194
22187SOL     OW71117  11.330   4.812   4.175  0.0337  0.1642  0.2175
22187SOL    HW171118  11.294   4.723   4.177  2.3292 -0.8463 -0.3039
22187SOL    HW271119  11.264   4.863   4.128  0.3382 -2.1588 -3.0892
22188SOL     OW71120   5.443   1.572   7.577  0.1773  1.3099 -0.1323
22188SOL    HW171121   5.488   1.634   7.519  0.2825  0.8714 -0.5252
22188SOL    HW271122   5.503   1.498   7.583 -1.4655 -0.3907 -2.6320
22189SOL     OW71123  11.443   2.304  11.783  0.6893 -0.9169 -0.0561
22189SOL    HW171124  11.401   2.230  11.741 -1.1697 -1.0380  1.8347
22189SOL    HW271125  11.379   2.335  11.847  0.8058  3.1812 -1.6310
22190SOL     OW71126   3.018   9.440  10.687 -0.1748  0.1107 -0.3768
22190SOL    HW171127   2.991   9.529  10.668 -1.1987 -0.6721 -3.0201
22190SOL    HW271128   2.938   9.396  10.718 -0.3658 -0.4843 -1.6160
22191SOL     OW71129   0.077   3.380   5.808  0.4883  0.3496  0.4948
22191SOL    HW171130   0.108   3.446   5.746 -1.3065  1.8536  1.1342
22191SOL    HW271131   0.109   3.410   5.893 -2.4128  1.9013  1.1659
22192SOL     OW71132   6.334   7.493   0.644  0.1649 -0.0018 -0.2696
22192SOL    HW171133   6.274   7.461   0.712  2.2073  1.0463  2.1827
22192SOL    HW271134   6.312   7.441   0.566 -1.6876 -1.9113  1.3999
22193SOL     OW71135   0.993   5.430  10.521 -0.3305 -0.1321 -0.2954
22193SOL    HW171136   1.064   5.439  10.458  0.3040 -0.7061  0.3137
22193SOL    HW271137   0.951   5.516  10.523  0.5218  0.3006 -0.4678
22194SOL     OW71138   1.613   1.708   7.261 -0.0294  0.5132  0.4172
22194SOL    HW171139   1.646   1.641   7.321 -0.9634 -0.2186  0.1443
22194SOL    HW271140   1.578   1.776   7.318  1.5313  1.1147  0.7076
22195SOL     OW71141   3.194  11.296   6.201 -0.0525 -0.0559 -0.2088
22195SOL    HW171142   3.199  11.387   6.233  0.4717 -0.4164  0.7755
22195SOL    HW271143   3.271  11.254   6.238 -1.0471 -1.2708  0.5475
22196SOL     OW71144   7.356   3.320   3.181 -0.5396 -0.4373 -0.2074
22196SOL    HW171145   7.353   3.416   3.182  1.7449 -0.3165  0.4316
22196SOL    HW271146   7.315   3.295   3.098 -0.6162  1.1023 -0.6644
22197SOL     OW71147  11.404  11.505  11.409  0.7074  0.2645  0.3895
22197SOL    HW171148  11.378  11.532  11.321  0.4271  2.5856  1.1119
22197SOL    HW271149  11.468  11.570  11.436  2.9173 -1.9823  0.9182
22198SOL     OW71150   3.374   7.920   4.725  0.3946  0.7022  0.3078
22198SOL    HW171151   3.402   7.928   4.816  3.3492  0.7549 -0.5014
22198SOL    HW271152   3.394   8.005   4.687 -2.0360  1.1354 -0.1759
22199SOL     OW71153   6.428   5.121   4.524 -0.0703  0.1864 -0.0600
22199SOL    HW171154   6.334   5.109   4.534 -0.0028  0.1215  0.5594
22199SOL    HW271155   6.466   5.063   4.591  0.4395 -0.6441 -1.0505
22200SOL     OW71156   0.961  10.199   2.907 -0.0719  0.6545 -0.1267
22200SOL    HW171157   1.026  10.218   2.839  0.1108 -2.0869 -0.8331
22200SOL    HW271158   0.984  10.112   2.939 -3.2367 -0.3544 -0.2486
22201SOL     OW71159   7.829   4.846  11.081 -0.2869 -0.0227  0.7607
22201SOL    HW171160   7.735   4.861  11.090 -0.2407  1.3140 -0.5760
22201SOL    HW271161   7.861   4.925  11.038  1.0480 -1.4949 -1.0714
22202SOL     OW71162   3.669   8.603   6.673 -0.8201  0.1628 -0.8194
22202SOL    HW171163   3.727   8.633   6.743 -0.4882 -3.6978  0.8758
22202SOL    HW271164   3.582   8.601   6.713 -0.5015 -2.8999  0.0140
22203SOL     OW71165  11.927   6.513  11.504 -0.2268  0.4442  0.2926
22203SOL    HW171166  11.880   6.434  11.531 -0.8873  0.6677 -0.1779
22203SOL    HW271167  12.017   6.483  11.487 -0.1179  0.0666  1.4599
22204SOL     OW71168  11.655   4.561   5.045  0.0716 -0.4367 -0.0976
22204SOL    HW171169  11.574   4.612   5.049 -0.6530 -1.5513 -0.0806
22204SOL    HW271170  11.711   4.610   4.985 -1.8867 -1.3287 -2.8837
22205SOL     OW71171   6.863   4.697   6.636 -0.1019 -0.3793  0.1846
22205SOL    HW171172   6.872   4.602   6.631  0.5327 -0.3615  0.8370
22205SOL    HW271173   6.776   4.711   6.672  0.2547 -0.7442  1.2106
22206SOL     OW71174   0.434   2.237   6.170 -0.4157  0.2447  0.3495
22206SOL    HW171175   0.472   2.325   6.169 -1.1301  0.5551  0.4777
22206SOL    HW271176   0.360   2.243   6.230  0.8677 -1.0177  2.1929
22207SOL     OW71177   4.738   5.199   9.145 -0.1833 -0.1678  0.5036
22207SOL    HW171178   4.719   5.263   9.214 -0.5928  0.8470 -0.5226
22207SOL    HW271179   4.781   5.250   9.076 -1.8890 -0.6530 -0.9956
22208SOL     OW71180   8.758   6.754   8.874 -0.6336 -0.6657  0.4400
22208SOL    HW171181   8.766   6.791   8.786  0.3376  0.7400  1.0934
22208SOL    HW271182   8.688   6.804   8.915 -1.6200 -1.8283  0.2623
22209SOL     OW71183   3.767   3.632   3.354  0.0991  0.6860  0.2799
22209SOL    HW171184   3.763   3.577   3.275  0.8282  0.7700  0.1845
22209SOL    HW271185   3.771   3.570   3.426  1.4195  0.5964  0.1502
22210SOL     OW71186   8.108   3.192   2.501  0.1151 -0.0786  0.2757
22210SOL    HW171187   8.070   3.132   2.566  1.5259  1.1210  2.3053
22210SOL    HW271188   8.034   3.217   2.446 -1.3237 -0.5833  1.8852
22211SOL     OW71189   8.600   7.356   9.652  0.9553  0.0059  0.0175
22211SOL    HW171190   8.563   7.444   9.662 -0.3352 -0.6870  1.8171
22211SOL    HW271191   8.593   7.338   9.558  1.7544  2.0019 -0.4808
22212SOL     OW71192   0.870   7.113   5.018  0.2782 -0.0776  0.6106
22212SOL    HW171193   0.808   7.182   5.042  0.3487 -0.5479  2.2795
22212SOL    HW271194   0.940   7.158   4.971  1.4552  1.4154  3.5746
22213SOL     OW71195   6.960   4.686   9.293  0.2704  0.8554 -0.1182
22213SOL    HW171196   6.906   4.763   9.314  0.1959  0.6637  0.4126
22213SOL    HW271197   7.050   4.718   9.302  0.2430  0.7086  0.8013
22214SOL     OW71198   3.973  10.965   6.513 -0.5041  0.3144 -0.4644
22214SOL    HW171199   3.974  10.895   6.579 -0.9815 -0.2948 -1.0891
22214SOL    HW271200   3.889  11.009   6.526 -1.4727 -1.0154 -1.8764
22215SOL     OW71201   1.624   2.769  11.641  0.4448  0.0747  0.3647
22215SOL    HW171202   1.540   2.740  11.606 -0.2326 -0.2013  2.1098
22215SOL    HW271203   1.688   2.749  11.572 -0.4777 -2.4922  0.1557
22216SOL     OW71204   3.500   3.013  10.873  0.1823  0.7544  0.0856
22216SOL    HW171205   3.563   2.970  10.932 -0.6111 -1.5198 -0.5958
22216SOL    HW271206   3.524   2.981  10.786 -2.1418 -0.5639 -0.1393
22217SOL     OW71207   6.387   7.570  12.006 -0.1367  0.1744  0.2754
22217SOL    HW171208   6.387   7.518  11.926 -0.2127 -0.4223  0.6584
22217SOL    HW271209   6.420   7.511  12.073 -0.4067  0.5627  0.7578
22218SOL     OW71210   1.838  11.687   2.157  0.2046  0.0120 -0.5307
22218SOL    HW171211   1.902  11.615   2.162  0.6576  0.1685 -3.0140
22218SOL    HW271212   1.829  11.704   2.063 -2.3060  1.0874 -0.1498
22219SOL     OW71213   0.539   0.004   6.449  0.9280  0.3905 -0.0157
22219SOL    HW171214   0.516  -0.028   6.362 -0.7501  1.6549 -0.0909
22219SOL    HW271215   0.556  -0.075   6.500 -1.3769 -0.5942 -0.6195
22220SOL     OW71216   0.742   6.391   3.522 -0.1679 -0.3181  0.1419
22220SOL    HW171217   0.662   6.361   3.480 -0.5930 -0.3689  0.9742
22220SOL    HW271218   0.774   6.461   3.465 -1.3963  0.4553  0.3709
22221SOL     OW71219   8.061   4.634   2.587  0.1828  0.6990 -0.0889
22221SOL    HW171220   8.112   4.692   2.529  1.2104  1.5981  1.6188
22221SOL    HW271221   7.970   4.654   2.567  0.4949  0.5826 -1.7637
22222SOL     OW71222  10.081  10.144  10.345 -0.0603 -0.2095 -0.7139
22222SOL    HW171223  10.033  10.132  10.263 -1.6688  0.8357  0.0125
22222SOL    HW271224  10.090  10.238  10.354 -0.7600 -0.2415  0.7292
22223SOL     OW71225   8.944   7.984   2.616 -0.0724 -0.0406  0.6964
22223SOL    HW171226   8.993   8.067   2.613 -1.6329  0.9146 -1.7768
22223SOL    HW271227   8.855   8.011   2.639 -0.1523 -1.3691  2.0719
22224SOL     OW71228   0.948   8.553   7.580  0.1125  0.2204  0.5113
22224SOL    HW171229   0.889   8.485   7.614 -0.1215  0.0933 -0.1456
22224SOL    HW271230   1.016   8.505   7.533  0.5880  0.3842  1.0114
22225SOL     OW71231  11.572   6.321   8.890  0.8600 -0.2232 -0.5569
22225SOL    HW171232  11.572   6.417   8.884  1.0415 -0.2532 -1.0927
22225SOL    HW271233  11.528   6.302   8.973  0.9419  0.3290 -0.3804
22226SOL     OW71234   1.598   1.279   1.963  0.1242  0.2907 -0.2347
22226SOL    HW171235   1.685   1.307   1.935 -0.1619  2.6075  0.9222
22226SOL    HW271236   1.596   1.298   2.057 -1.0002 -1.5443  0.1664
22227SOL     OW71237  10.313   1.652   8.609 -0.5208 -0.3076  0.6456
22227SOL    HW171238  10.254   1.592   8.654 -0.1721 -1.0329  0.1595
22227SOL    HW271239  10.255   1.705   8.554 -0.6577 -2.2390 -1.2602
22228SOL     OW71240   9.006   6.073  10.802  0.0717 -0.2996  0.4922
22228SOL    HW171241   8.993   6.158  10.759  1.1746  0.4336  1.5283
22228SOL    HW271242   8.919   6.047  10.831 -0.1527  0.9698  1.0158
22229SOL     OW71243  10.644   2.627   8.653  0.6671 -0.0544 -0.0963
22229SOL    HW171244  10.665   2.657   8.565  2.7122 -0.5880  0.1548
22229SOL    HW271245  10.695   2.684   8.711 -0.6075  0.2577  0.7664
22230SOL     OW71246   7.877   8.162   3.386 -0.1576 -0.2613  0.0211
22230SOL    HW171247   7.919   8.170   3.472  1.4871 -0.6913 -0.6939
22230SOL    HW271248   7.832   8.078   3.388 -0.5646 -0.0305  0.6426
22231SOL     OW71249   4.718  10.508   8.475  0.1742 -0.2038  0.0995
22231SOL    HW171250   4.666  10.569   8.527  0.2321  0.3355 -0.4577
22231SOL    HW271251   4.796  10.492   8.528 -0.5114 -0.9647  0.9086
22232SOL     OW71252   5.796   7.635   1.107  0.2835  0.0806  0.0150
22232SOL    HW171253   5.808   7.562   1.046  1.4147 -1.2998  1.7965
22232SOL    HW271254   5.826   7.711   1.058 -1.4390 -0.4862 -2.0984
22233SOL     OW71255   9.803   6.428   5.748 -0.3149 -0.3623 -0.2355
22233SOL    HW171256   9.742   6.501   5.753  1.2936  1.3561 -2.8957
22233SOL    HW271257   9.853   6.433   5.829 -0.9659  0.8447  0.1169
22234SOL     OW71258   5.115   0.318   2.871  0.5759  0.1026 -0.1390
22234SOL    HW171259   5.172   0.248   2.901  0.2663  0.0801  0.3885
22234SOL    HW271260   5.027   0.293   2.898  0.6558  1.4949  1.5836
22235SOL     OW71261   0.223  11.522  10.831  0.4487  0.5080  0.1962
22235SOL    HW171262   0.234  11.433  10.797 -0.8562  0.2475  0.4209
22235SOL    HW271263   0.231  11.578  10.754  1.7763  0.2491  0.1251
22236SOL     OW71264   7.056   8.047   8.534 -0.1742 -0.0782 -0.7398
22236SOL    HW171265   7.146   8.063   8.503  0.5064  0.4189  1.3362
22236SOL    HW271266   7.040   8.117   8.596 -2.4425  0.4455 -1.8358
22237SOL     OW71267   3.714   8.433   9.768  0.4863 -0.0884  0.4163
22237SOL    HW171268   3.804   8.467   9.770  0.5021  0.2160 -2.2220
22237SOL    HW271269   3.662   8.506   9.735 -0.2038 -1.2133 -1.0696
22238SOL     OW71270   7.131   6.411   3.106  0.3673 -0.0129 -0.1773
22238SOL    HW171271   7.102   6.473   3.039  0.2975 -0.3491 -0.4623
22238SOL    HW271272   7.180   6.465   3.168 -1.2811  0.6752  0.5910
22239SOL     OW71273  11.367   3.069   1.883 -0.2715  0.1948  0.3009
22239SOL    HW171274  11.387   3.159   1.859 -0.3531  0.6514  1.8528
22239SOL    HW271275  11.443   3.039   1.933 -0.5186 -0.3882  0.3446
22240SOL     OW71276   8.542  10.584   9.765  0.3356  0.3862  0.1027
22240SOL    HW171277   8.468  10.619   9.714  0.0197  0.3735  0.5531
22240SOL    HW271278   8.615  10.640   9.741 -0.2418  1.6046  1.0826
22241SOL     OW71279   5.847   2.248  11.006 -0.1052 -0.1075 -0.1186
22241SOL    HW171280   5.850   2.161  11.046 -0.1986 -0.8959 -1.7580
22241SOL    HW271281   5.937   2.281  11.014  0.5472 -1.3936 -1.6128
22242SOL     OW71282   1.631  10.454   0.657 -0.0483 -0.4324  0.5210
22242SOL    HW171283   1.690  10.393   0.702  1.0313  0.7206  0.7438
22242SOL    HW271284   1.641  10.434   0.564 -0.2628 -1.0729  0.6336
22243SOL     OW71285   3.173   5.471   7.337  0.5237  0.1643  0.0353
22243SOL    HW171286   3.139   5.456   7.249  0.5004  0.8169 -0.0695
22243SOL    HW271287   3.132   5.553   7.366 -0.6386 -0.7891  1.2462
22244SOL     OW71288  10.590   2.229   7.087 -0.2115 -0.2037 -0.3473
22244SOL    HW171289  10.681   2.257   7.087  0.5589 -2.5385 -1.6881
22244SOL    HW271290  10.566   2.224   6.995 -0.8704 -2.0529 -0.1069
22245SOL     OW71291   7.432  10.770   7.265  0.1173 -0.5505  0.0980
22245SOL    HW171292   7.426  10.796   7.173  1.8172 -0.9833 -0.1579
22245SOL    HW271293   7.380  10.689   7.271  0.3580 -0.7581 -0.5830
22246SOL     OW71294   0.330   0.973   5.626  0.3732  0.8388  0.0735
22246SOL    HW171295   0.419   0.972   5.662 -0.0762 -1.1031  1.2690
22246SOL    HW271296   0.287   1.045   5.671  1.4371  2.1631 -0.9159
22247SOL     OW71297  11.378   5.122   0.506  0.0273 -0.3457 -0.2749
22247SOL    HW171298  11.340   5.142   0.421  0.8594 -2.8115 -1.3260
22247SOL    HW271299  11.305   5.089   0.558 -0.4323  0.9090 -0.1047
22248SOL     OW71300   1.980   8.948   2.272 -0.2010 -0.2495 -0.4362
22248SOL    HW171301   1.989   8.964   2.366  0.8731  0.4846 -0.6385
22248SOL    HW271302   2.049   8.885   2.252 -0.8223 -0.8765 -0.6319
22249SOL     OW71303   3.058   6.631   4.430 -0.9064 -0.1821 -0.9034
22249SOL    HW171304   3.083   6.539   4.433 -0.4151 -0.0642 -1.3145
22249SOL    HW271305   3.056   6.659   4.522 -1.9738 -0.8371 -0.7030
22250SOL     OW71306  12.063   1.401   8.583 -0.2028  0.6571 -0.6433
22250SOL    HW171307  12.128   1.367   8.644  0.4608  1.7323 -0.7120
22250SOL    HW271308  11.984   1.412   8.636  0.7709  2.9849  0.4674
22251SOL     OW71309   9.826  10.436   3.105 -0.2471 -0.6639  0.3498
22251SOL    HW171310   9.800  10.348   3.078 -0.2351 -0.3577 -0.6776
22251SOL    HW271311   9.758  10.494   3.071 -0.0320 -0.2264  0.6440
22252SOL     OW71312   4.699  11.797   3.448  0.2236  0.0487 -0.2699
22252SOL    HW171313   4.653  11.881   3.454 -0.2191 -0.0614 -1.6599
22252SOL    HW271314   4.681  11.754   3.531 -1.1079  0.5709 -0.2601
22253SOL     OW71315   8.430   7.054  11.588  0.4208  0.1774  0.0873
22253SOL    HW171316   8.359   7.040  11.650 -0.5670 -1.3454 -1.3084
22253SOL    HW271317   8.386   7.078  11.506  1.6217  0.8589 -0.3828
22254SOL     OW71318   3.784   0.099   8.589  0.1392 -0.7303 -0.2650
22254SOL    HW171319   3.703   0.109   8.541 -0.5409 -0.5747  0.8793
22254SOL    HW271320   3.836   0.176   8.566 -0.2271 -0.5941 -0.6344
22255SOL     OW71321   0.143   5.820   4.058 -0.0481 -0.1418 -0.2690
22255SOL    HW171322   0.108   5.731   4.058 -0.5381  0.0504 -0.8048
22255SOL    HW271323   0.078   5.872   4.105  0.2260 -0.0537  0.0236
22256SOL     OW71324   2.965   9.132   5.673 -0.5158  0.2195 -0.6310
22256SOL    HW171325   2.912   9.096   5.743 -2.1712 -0.0440 -1.9683
22256SOL    HW271326   3.052   9.093   5.686 -1.7501 -2.9511 -0.9910
22257SOL     OW71327  11.775  11.645  11.898  0.4211 -0.1214 -1.0465
22257SOL    HW171328  11.813  11.576  11.952 -0.0688  0.5057  0.1487
22257SOL    HW271329  11.833  11.720  11.912 -0.2219  0.3121 -0.6332
22258SOL     OW71330   8.837   6.443   1.097  0.1034 -0.1093 -0.1346
22258SOL    HW171331   8.911   6.405   1.143 -0.9802 -0.2804  1.5840
22258SOL    HW271332   8.834   6.397   1.013  1.4993 -0.5855  0.0521
22259SOL     OW71333   7.372   3.965   3.463 -0.1648  0.4035  0.0158
22259SOL    HW171334   7.306   3.937   3.527 -0.1071 -0.0281 -0.1076
22259SOL    HW271335   7.438   4.011   3.514  1.0157 -1.8509  0.6327
22260SOL     OW71336   5.793   5.917   3.009 -0.2045  0.3734 -0.3680
22260SOL    HW171337   5.770   5.941   2.920  2.2986 -0.2439 -1.2645
22260SOL    HW271338   5.778   5.822   3.013 -2.0063  0.6418  0.4990
22261SOL     OW71339   8.315   9.087   9.726  0.2245  0.4225 -0.1817
22261SOL    HW171340   8.261   9.054   9.654 -1.4865 -0.0935  1.2901
22261SOL    HW271341   8.280   9.044   9.804  2.6571  0.1999  0.8775
22262SOL     OW71342   9.102   9.966   4.446 -0.0300 -0.0405  0.5970
22262SOL    HW171343   9.071   9.904   4.381 -0.4477  0.9559 -0.1855
22262SOL    HW271344   9.157   9.914   4.505 -0.9737 -1.2904  0.4246
22263SOL     OW71345   8.409   1.502   4.688 -0.4378  0.2507 -0.5904
22263SOL    HW171346   8.475   1.436   4.705  1.3375  1.6814 -1.5608
22263SOL    HW271347   8.365   1.515   4.772  0.6419 -0.6146  0.1200
22264SOL     OW71348   4.173   3.124  11.191 -0.3215  0.2208  0.4089
22264SOL    HW171349   4.178   3.209  11.148 -1.2358 -0.4347 -1.0555
22264SOL    HW271350   4.233   3.131  11.265 -2.3055  3.0563  1.9406
22265SOL     OW71351   9.822   2.090   7.665 -0.1528 -0.0011  0.2908
22265SOL    HW171352   9.784   2.069   7.750  1.1992  0.1801  0.9634
22265SOL    HW271353   9.916   2.076   7.676 -0.0306 -0.8123 -1.4323
22266SOL     OW71354   6.827  11.859   7.473 -0.1984  0.2401 -0.2525
22266SOL    HW171355   6.892  11.924   7.445 -0.7110  0.5390 -0.7612
22266SOL    HW271356   6.839  11.785   7.413  0.9485 -0.5016  0.8430
22267SOL     OW71357   8.439   4.356   8.882  0.1094  1.2647  0.4477
22267SOL    HW171358   8.409   4.432   8.932 -0.4019  1.8785 -0.7540
22267SOL    HW271359   8.534   4.368   8.875  0.2837  0.8334  1.7860
22268SOL     OW71360   9.735   8.487   3.067 -0.5516  0.4730 -0.2586
22268SOL    HW171361   9.767   8.568   3.027  0.7864  0.7874  1.3209
22268SOL    HW271362   9.760   8.495   3.159  0.6853 -2.2416 -0.2563
22269SOL     OW71363   8.785   9.419   6.662  0.0757 -0.0476 -0.2944
22269SOL    HW171364   8.772   9.382   6.749 -2.2399  2.0110  0.3453
22269SOL    HW271365   8.874   9.454   6.663  0.1410 -0.2070  1.1797
22270SOL     OW71366   3.907   4.596   3.850 -0.5768 -0.3629 -0.2989
22270SOL    HW171367   3.931   4.537   3.921 -1.4150  1.6249  1.7646
22270SOL    HW271368   3.971   4.667   3.856  1.0825 -1.4012 -3.4056
22271SOL     OW71369   5.306   2.838   4.471 -0.1047 -0.0887  0.4808
22271SOL    HW171370   5.384   2.799   4.431 -1.2393  0.0647 -2.1295
22271SOL    HW271371   5.239   2.770   4.465 -1.2190  1.0724 -1.1021
22272SOL     OW71372   4.378  10.096   2.001  0.7099 -0.5146  0.0274
22272SOL    HW171373   4.354  10.004   2.007 -1.6801  0.1040  1.7343
22272SOL    HW271374   4.391  10.123   2.092  0.3427  1.0545 -0.3561
22273SOL     OW71375   1.936   9.652   3.018  0.1279  0.8199  0.2376
22273SOL    HW171376   2.015   9.703   2.999  1.1868 -1.6299 -2.9297
22273SOL    HW271377   1.873   9.679   2.951 -1.0011  1.2518  1.4345
22274SOL     OW71378   1.001   1.418   4.737  0.3144 -0.1184  0.5032
22274SOL    HW171379   0.953   1.491   4.698 -0.0364 -1.1838 -1.1726
22274SOL    HW271380   0.934   1.353   4.759  0.8352 -1.0892 -0.6604
22275SOL     OW71381   5.351  11.767   5.898  0.2073 -0.9186  0.2319
22275SOL    HW171382   5.263  11.806   5.898  0.7909  0.7088  2.7119
22275SOL    HW271383   5.392  11.800   5.819 -1.4672 -1.9725 -1.1448
22276SOL     OW71384   2.364   2.599   5.325 -0.2648 -0.3891  0.2203
22276SOL    HW171385   2.391   2.666   5.262 -0.3363  0.4033  0.9919
22276SOL    HW271386   2.273   2.579   5.302 -0.1585 -0.4044 -0.1788
22277SOL     OW71387  10.725   2.872   4.166 -1.1041 -0.1145 -0.5659
22277SOL    HW171388  10.650   2.874   4.106 -0.5097 -0.4732 -1.3303
22277SOL    HW271389  10.794   2.828   4.118  0.2023  1.7834 -0.5545
22278SOL     OW71390   9.104   4.626  10.105  0.4752  0.0755 -0.1441
22278SOL    HW171391   9.179   4.677  10.073  0.2346  0.6344  0.1805
22278SOL    HW271392   9.060   4.684  10.166  1.3836 -1.2373  1.8766
22279SOL     OW71393  10.499   9.188  12.009  0.3190 -0.6088  0.7118
22279SOL    HW171394  10.428   9.231  12.058  0.6994 -0.1455  0.8657
22279SOL    HW271395  10.579   9.231  12.040  0.4091  1.8135 -2.3527
22280SOL     OW71396   4.903   2.595   4.944 -1.0765  0.6108 -0.5177
22280SOL    HW171397   4.817   2.634   4.957 -1.7845 -1.1307  0.3439
22280SOL    HW271398   4.952   2.617   5.023 -1.3054  0.1961 -0.2578
22281SOL     OW71399   7.228  10.572   7.259 -0.1057  0.1861  0.2747
22281SOL    HW171400   7.161  10.591   7.192 -0.3796  1.0982  0.7824
22281SOL    HW271401   7.184  10.515   7.321  0.4789 -1.5716 -0.8531
22282SOL     OW71402  10.829   7.345   8.139 -0.0884 -0.2494 -0.0002
22282SOL    HW171403  10.793   7.380   8.220 -0.6561 -0.4593 -0.1604
22282SOL    HW271404  10.880   7.417   8.102 -1.4034  0.4885 -0.4336
22283SOL     OW71405   4.489   8.666   4.001  0.3385 -0.0600  0.0898
22283SOL    HW171406   4.583   8.653   4.016  0.5295  1.1137  0.0112
22283SOL    HW271407   4.466   8.739   4.058 -0.5759 -0.4631  0.2505
22284SOL     OW71408   0.605  10.014   7.817 -0.0132 -0.5593 -0.6415
22284SOL    HW171409   0.683   9.968   7.786  1.7035  0.4061  1.9485
22284SOL    HW271410   0.634  10.104   7.828 -1.6935 -0.0482 -0.1888
22285SOL     OW71411   9.388   5.565   9.093  0.0113 -0.5248 -0.4099
22285SOL    HW171412   9.357   5.601   9.009 -0.2329  2.2556  0.7627
22285SOL    HW271413   9.483   5.568   9.087  0.0557  2.0209  0.1974
22286SOL     OW71414   3.878   6.558   7.891 -0.0600 -0.0276 -0.8913
22286SOL    HW171415   3.905   6.499   7.961 -2.3940  0.9262  0.9325
22286SOL    HW271416   3.783   6.549   7.888 -0.1708  1.2926 -2.7590
22287SOL     OW71417  12.077   3.689   0.655 -0.0747 -0.3346  0.2553
22287SOL    HW171418  12.119   3.604   0.642 -0.6934 -1.0344  2.5119
22287SOL    HW271419  12.143   3.741   0.700  1.1641  1.2648 -3.0475
22288SOL     OW71420  10.373   0.490   9.797 -0.1038 -0.3079  0.7812
22288SOL    HW171421  10.400   0.581   9.794  0.0577 -0.3672  0.3587
22288SOL    HW271422  10.342   0.477   9.886 -0.8971  0.3764  0.6115
22289SOL     OW71423  11.622   7.363   3.127  0.3096  0.3003 -0.4248
22289SOL    HW171424  11.556   7.314   3.079 -0.3023  0.3159  0.3742
22289SOL    HW271425  11.575   7.440   3.160  0.7797  0.4347 -0.0575
22290SOL     OW71426   8.675   1.899   6.981  0.1071  0.3944 -0.3299
22290SOL    HW171427   8.667   1.905   7.076 -0.3812  2.0629 -0.4305
22290SOL    HW271428   8.706   1.810   6.964 -0.1175 -0.0348  1.3601
22291SOL     OW71429   1.548   5.603   5.067  0.2877  0.4916 -0.2838
22291SOL    HW171430   1.612   5.667   5.034 -0.3191  1.6662  0.7358
22291SOL    HW271431   1.511   5.564   4.987  1.6339  0.4243 -0.9021
22292SOL     OW71432   7.167   7.034   6.489  0.2207  0.1002  0.2232
22292SOL    HW171433   7.150   7.125   6.513 -2.6215 -0.5953  1.1687
22292SOL    HW271434   7.253   7.015   6.528  0.3955  2.0621  0.8840
22293SOL     OW71435  11.391   4.759   0.303  0.0120 -1.0226 -0.1180
22293SOL    HW171436  11.365   4.673   0.337  1.3831 -0.5163  2.5675
22293SOL    HW271437  11.426   4.804   0.380 -0.5073  1.9001 -1.4797
22294SOL     OW71438   4.089   2.412   3.396  0.2732  0.2553  0.6093
22294SOL    HW171439   4.003   2.425   3.435  0.2273 -1.8612  1.3456
22294SOL    HW271440   4.128   2.499   3.394 -1.2117  0.9895  1.8716
22295SOL     OW71441   8.068   2.087   2.833  0.4075 -0.2281 -0.1044
22295SOL    HW171442   8.088   2.022   2.766  0.2196  0.2820 -0.6621
22295SOL    HW271443   8.146   2.088   2.889  0.4382 -0.8760 -0.1282
22296SOL     OW71444   4.706  11.761   5.520 -0.2662 -0.0784 -0.0809
22296SOL    HW171445   4.627  11.708   5.534 -0.1582 -0.2035  0.0491
22296SOL    HW271446   4.734  11.739   5.431 -1.0635  0.8586 -0.5926
22297SOL     OW71447   9.472   6.675   8.630 -0.1283 -0.2269 -0.3401
22297SOL    HW171448   9.432   6.735   8.693  0.5417  0.3190 -0.4172
22297SOL    HW271449   9.443   6.588   8.658  1.5363 -0.1840  1.8156
22298SOL     OW71450   3.286   5.926   9.599 -0.3595 -0.7521 -1.0972
22298SOL    HW171451   3.268   6.000   9.657  0.8793  0.2574 -1.9378
22298SOL    HW271452   3.324   5.859   9.656 -0.5326 -0.3413 -0.4889
22299SOL     OW71453   4.285   8.992   2.944 -0.4459  0.1553  0.5519
22299SOL    HW171454   4.351   9.031   3.001 -0.5439  0.7992  0.2305
22299SOL    HW271455   4.206   9.044   2.959 -1.8773 -2.5018  3.3291
22300SOL     OW71456   6.922   4.631  10.300 -0.4107  0.5945 -0.4155
22300SOL    HW171457   6.971   4.676  10.369 -0.4213 -0.2686  0.1636
22300SOL    HW271458   6.977   4.556  10.277 -0.9237  0.2670 -0.5739
22301SOL     OW71459  11.710   1.210   4.726 -0.3721 -0.0222 -0.1332
22301SOL    HW171460  11.794   1.171   4.705 -0.5841 -0.7434  0.3324
22301SOL    HW271461  11.679   1.247   4.644 -0.0601 -0.6305 -0.5287
22302SOL     OW71462   6.428   5.560   8.628  0.1965 -0.1854  0.0245
22302SOL    HW171463   6.376   5.482   8.647 -1.0197  0.0164 -2.1207
22302SOL    HW271464   6.518   5.528   8.621 -0.3743 -1.5864 -1.5569
22303SOL     OW71465   2.589   0.957   2.605 -0.3731 -0.3013  0.2686
22303SOL    HW171466   2.523   0.901   2.562  0.6222 -0.7412 -0.7332
22303SOL    HW271467   2.673   0.923   2.574  0.3138  0.6542  1.0329
22304SOL     OW71468  10.063   2.789   8.900 -0.6583 -0.0590 -0.4007
22304SOL    HW171469   9.990   2.731   8.876 -1.8933  1.0835  0.4653
22304SOL    HW271470  10.130   2.730   8.933 -1.0729 -1.1656 -1.4449
22305SOL     OW71471   7.030   5.368   1.970  0.2343 -0.1200  0.1086
22305SOL    HW171472   7.122   5.395   1.968  0.4855 -0.9144 -2.0202
22305SOL    HW271473   6.983   5.439   1.925 -0.0609 -0.1360  0.3899
22306SOL     OW71474   8.204   4.828   8.070 -0.5421 -0.2731  0.4577
22306SOL    HW171475   8.128   4.840   8.013 -0.2452  1.3851  0.3504
22306SOL    HW271476   8.178   4.869   8.153  0.2981  0.5531  0.3364
22307SOL     OW71477   9.208   4.753   7.140 -0.0905  0.5730  0.5180
22307SOL    HW171478   9.198   4.787   7.229  1.3421 -0.4802  1.1235
22307SOL    HW271479   9.191   4.659   7.147 -0.8701  0.6201 -0.5074
22308SOL     OW71480   4.859   3.273   1.897 -0.5024  0.1844  0.2460
22308SOL    HW171481   4.929   3.213   1.872 -1.0937 -0.8353  0.9376
22308SOL    HW271482   4.818   3.231   1.973 -0.9432  1.4699  0.7480
22309SOL     OW71483   0.610   5.629   6.477 -0.4767  0.8775  0.8538
22309SOL    HW171484   0.592   5.722   6.460 -1.1469  0.3660 -1.4920
22309SOL    HW271485   0.575   5.583   6.401 -1.2500 -1.4409  2.5058
22310SOL     OW71486  10.881   4.946  10.952 -0.5544  0.5509 -0.5182
22310SOL    HW171487  10.940   5.020  10.969 -2.1879  1.6442  0.6546
22310SOL    HW271488  10.841   4.966  10.867 -0.5601  0.7026 -0.4797
22311SOL     OW71489   5.374   8.529  11.590 -0.1200 -0.0250 -0.2303
22311SOL    HW171490   5.326   8.610  11.604  3.2165  1.7771  1.9424
22311SOL    HW271491   5.373   8.486  11.676  1.0620 -0.5524 -0.4696
22312SOL     OW71492   6.254   3.567   6.471  0.1384  0.2465  0.1485
22312SOL    HW171493   6.326   3.630   6.462 -0.2672  1.0325  1.9661
22312SOL    HW271494   6.296   3.489   6.508  0.1068  0.6270  1.0018
22313SOL     OW71495  11.154  10.688   3.192 -0.0445 -0.0104  0.3248
22313SOL    HW171496  11.112  10.754   3.138 -0.4815 -0.9723 -0.5452
22313SOL    HW271497  11.161  10.728   3.279 -0.5613  1.0513 -0.1180
22314SOL     OW71498   2.356  10.709  10.676  0.3859  0.0500  0.1868
22314SOL    HW171499   2.336  10.666  10.592 -0.4847  2.4819 -0.9496
22314SOL    HW271500   2.432  10.763  10.657  0.1801  0.6156  0.9632
22315SOL     OW71501   8.851  10.352   3.675 -0.1875 -0.1279  0.1097
22315SOL    HW171502   8.939  10.388   3.677 -0.1991 -0.1039  1.1655
22315SOL    HW271503   8.861  10.262   3.706 -0.5552 -0.0379  0.5129
22316SOL     OW71504   2.809  10.586   3.088  0.0306  0.2157  0.0289
22316SOL    HW171505   2.788  10.678   3.104  1.2081  0.4978  0.0528
22316SOL    HW271506   2.772  10.568   3.001  0.3012  0.8823 -0.2296
22317SOL     OW71507   5.169   2.305   5.307 -0.2593  1.4035  0.2756
22317SOL    HW171508   5.173   2.380   5.365  1.9417  1.1828  0.5130
22317SOL    HW271509   5.241   2.248   5.335 -0.7187  0.0742 -1.0457
22318SOL     OW71510   5.417  10.901   8.080  0.2577  0.3945  0.9161
22318SOL    HW171511   5.425  10.851   8.161 -1.5702  1.0157  1.5229
22318SOL    HW271512   5.387  10.838   8.015  2.7606 -0.3580  0.3676
22319SOL     OW71513   8.284   7.911   9.556 -0.2149  0.2063  0.7341
22319SOL    HW171514   8.337   7.902   9.635  0.3120  0.7300  0.4390
22319SOL    HW271515   8.257   8.003   9.555 -0.5090  0.1197  0.4843
22320SOL     OW71516   3.892   1.152   3.018 -0.4312  0.2180  0.0800
22320SOL    HW171517   3.876   1.183   2.929 -0.2678  0.2396  0.0579
22320SOL    HW271518   3.947   1.075   3.008 -0.6524  0.0501  0.1484
22321SOL     OW71519   7.097   6.561   4.014  0.0723  0.2228  0.3878
22321SOL    HW171520   7.154   6.566   3.937  0.5433 -2.0198  0.5444
22321SOL    HW271521   7.117   6.641   4.063  0.5042  1.1903 -1.2798
22322SOL     OW71522   2.464   4.996  10.214 -0.0079  0.3395 -0.1970
22322SOL    HW171523   2.371   4.983  10.234  0.0489  2.1335  1.5597
22322SOL    HW271524   2.510   4.969  10.293  0.8673  0.7596 -0.5464
22323SOL     OW71525  11.677   7.795   4.887  0.0165  0.4167  0.5445
22323SOL    HW171526  11.668   7.700   4.895 -1.0837  0.2421 -1.8240
22323SOL    HW271527  11.765   7.814   4.919  0.4327 -1.4642  0.6302
22324SOL     OW71528   2.293   7.360   8.307 -0.0090 -0.4345  0.6448
22324SOL    HW171529   2.360   7.291   8.315  0.2871 -0.3049 -0.5358
22324SOL    HW271530   2.307   7.415   8.384  0.8866 -0.7192  0.7070
22325SOL     OW71531  10.170   9.328   6.162 -0.3029  0.3878 -0.3503
22325SOL    HW171532  10.191   9.420   6.144 -0.2886  0.2395 -1.1091
22325SOL    HW271533  10.182   9.319   6.257  1.9451  0.6050 -0.5565
22326SOL     OW71534   5.335   1.615   1.985 -0.1206 -0.0393 -0.4853
22326SOL    HW171535   5.277   1.629   1.911  0.8997 -0.4871 -1.3909
22326SOL    HW271536   5.333   1.698   2.033 -2.5429 -0.4593  0.2915
22327SOL     OW71537   8.536   0.448   8.246  0.2122  0.2479  0.4490
22327SOL    HW171538   8.565   0.359   8.228  0.9619  0.7083 -0.7929
22327SOL    HW271539   8.463   0.438   8.307 -0.6131 -1.2996 -0.7107
22328SOL     OW71540   5.255   3.309   3.690  0.4264  0.3666  0.4393
22328SOL    HW171541   5.275   3.219   3.664 -0.6083  0.2840 -0.1279
22328SOL    HW271542   5.340   3.350   3.704  0.9200 -1.1729  2.4072
22329SOL     OW71543   1.717   6.761   9.829 -0.2406  0.5616  0.2819
22329SOL    HW171544   1.644   6.808   9.868 -2.0346 -0.5702 -1.4763
22329SOL    HW271545   1.786   6.826   9.820 -0.3110  1.2669  3.5988
22330SOL     OW71546   2.545   3.059   9.461  0.1275  0.5167  0.1584
22330SOL    HW171547   2.605   3.009   9.515  0.4761 -1.0896 -1.6395
22330SOL    HW271548   2.534   3.142   9.508  3.1790  0.6106  0.8875
22331SOL     OW71549   7.315  11.318   9.397 -0.3748 -0.0532 -0.2379
22331SOL    HW171550   7.338  11.321   9.490 -1.6014  0.4916  0.0741
22331SOL    HW271551   7.371  11.249   9.361 -1.0371 -1.4499  1.2519
22332SOL     OW71552   2.636   6.898   9.722  0.1738  0.3927 -0.1302
22332SOL    HW171553   2.664   6.807   9.732 -0.7964  0.1078  0.0299
22332SOL    HW271554   2.711   6.949   9.751  0.8031 -0.3478 -0.4148
22333SOL     OW71555   7.853   9.823  11.640 -0.1947  0.2878  0.3625
22333SOL    HW171556   7.789   9.894  11.645 -1.0159 -0.4908  2.2267
22333SOL    HW271557   7.880   9.809  11.731  2.2942  0.2435 -0.3193
22334SOL     OW71558  10.334   1.557   4.143  0.0514 -0.5571  0.2514
22334SOL    HW171559  10.338   1.584   4.235  0.9135  0.7986 -0.1521
22334SOL    HW271560  10.279   1.623   4.101  1.9068  0.4872 -0.6902
22335SOL     OW71561  11.675   1.377  10.823  0.2177 -0.0936 -0.2580
22335SOL    HW171562  11.608   1.375  10.754  0.5435  0.9266 -0.6208
22335SOL    HW271563  11.755   1.403  10.778  0.4999  0.2981  0.4523
22336SOL     OW71564   3.425  11.649   6.468 -0.5621  0.2976  0.0101
22336SOL    HW171565   3.447  11.692   6.385 -0.3283 -0.3696 -0.2765
22336SOL    HW271566   3.335  11.619   6.457  0.7889 -3.6881 -1.7245
22337SOL     OW71567  11.896   8.016   2.035 -0.2070 -0.1381  0.1961
22337SOL    HW171568  11.982   8.026   2.075 -0.4343  0.2470  0.5915
22337SOL    HW271569  11.857   8.104   2.038  0.5896  0.4525 -2.7804
22338SOL     OW71570   7.756   4.712   5.211 -0.0289 -0.0368 -0.4814
22338SOL    HW171571   7.848   4.696   5.232 -0.2435 -1.2921 -0.4114
22338SOL    HW271572   7.759   4.769   5.134  0.8128 -0.4163 -0.7456
22339SOL     OW71573   8.219   9.871   7.703 -0.4085 -0.2476  0.2798
22339SOL    HW171574   8.290   9.885   7.765  0.4694 -0.8990 -0.5543
22339SOL    HW271575   8.139   9.880   7.755  0.2274  1.4331  1.0511
22340SOL     OW71576   1.943  10.651   2.381  0.3963 -0.1363 -0.2640
22340SOL    HW171577   1.875  10.627   2.318 -0.1305 -0.9153  0.5788
22340SOL    HW271578   1.995  10.717   2.335 -0.7345  0.2561 -1.0507
22341SOL     OW71579   1.122   2.057  10.932  0.0176  0.0295  0.0643
22341SOL    HW171580   1.086   1.977  10.893 -0.6400 -0.4444  1.5645
22341SOL    HW271581   1.097   2.051  11.024  1.6777  1.0076  0.6039
22342SOL     OW71582   3.437   3.131   8.794  0.0971  0.5162 -0.1460
22342SOL    HW171583   3.368   3.191   8.765  0.5073  1.6594  1.1278
22342SOL    HW271584   3.466   3.167   8.878  1.4907 -0.5597 -0.1336
22343SOL     OW71585   6.359   8.590  11.483  0.0500  0.2460 -0.6136
22343SOL    HW171586   6.283   8.609  11.428  0.0952 -0.1484 -0.8174
22343SOL    HW271587   6.414   8.668  11.476 -0.0790  0.3116 -0.8996
22344SOL     OW71588   4.647   6.045   3.260  0.0028 -0.6592 -1.0991
22344SOL    HW171589   4.569   6.066   3.311  0.7518 -0.4065 -0.0175
22344SOL    HW271590   4.679   6.130   3.228  0.3053 -0.6582 -0.8087
22345SOL     OW71591   7.316   8.044   7.265 -0.0624  0.4559  0.0940
22345SOL    HW171592   7.321   8.138   7.286 -0.0636  1.5708 -3.9007
22345SOL    HW271593   7.223   8.023   7.271  0.1346  0.0300  2.9930
22346SOL     OW71594   1.821   4.767   7.193 -1.1819 -0.1274 -0.2693
22346SOL    HW171595   1.742   4.818   7.175 -1.3163  0.0456  0.7355
22346SOL    HW271596   1.789   4.682   7.224 -1.1120  0.8441  2.8747
22347SOL     OW71597   3.255   9.763   1.816  0.4609 -0.3958  0.0556
22347SOL    HW171598   3.205   9.735   1.739 -0.4252 -0.3480  0.5925
22347SOL    HW271599   3.245   9.858   1.817 -0.6133 -0.4965  0.9261
22348SOL     OW71600   3.828  10.235  10.975  0.1979  0.3614 -0.7205
22348SOL    HW171601   3.824  10.139  10.968  0.7890  0.2585  0.1841
22348SOL    HW271602   3.834  10.265  10.885 -1.0559 -0.3905 -1.0900
22349SOL     OW71603   3.570   3.676   1.429 -0.0284 -0.0238 -0.0695
22349SOL    HW171604   3.482   3.708   1.449  1.0875  1.9296  2.3564
22349SOL    HW271605   3.573   3.589   1.469 -0.3237  0.6856  1.6023
22350SOL     OW71606   4.398   8.258   7.769 -0.0571  0.6645  0.4291
22350SOL    HW171607   4.426   8.325   7.706  1.0326 -1.1040 -1.0621
22350SOL    HW271608   4.471   8.251   7.830  1.9858 -2.2537 -2.0724
22351SOL     OW71609   6.159  11.312   1.413  0.3279 -0.1635  0.5350
22351SOL    HW171610   6.069  11.280   1.421  0.3213  0.1132  1.8197
22351SOL    HW271611   6.160  11.360   1.331 -0.6207 -0.4097  0.3647
22352SOL     OW71612   8.161   0.109   8.322 -0.5178 -0.6014 -0.7164
22352SOL    HW171613   8.191   0.023   8.349 -2.4725 -2.3226 -3.4220
22352SOL    HW271614   8.070   0.114   8.353  0.2880  1.6793  1.6355
22353SOL     OW71615   2.049   1.956  11.079  0.1218  0.3389  0.5033
22353SOL    HW171616   2.110   2.009  11.028  0.7132 -0.7345  0.0565
22353SOL    HW271617   1.973   1.946  11.023  0.6237 -0.5350 -0.0362
22354SOL     OW71618   9.152  10.450   8.381  0.4043 -0.1995 -0.5464
22354SOL    HW171619   9.143  10.355   8.381  2.0702 -0.4769  2.1246
22354SOL    HW271620   9.240  10.466   8.346  0.0593  0.3706 -1.1698
22355SOL     OW71621   5.430   1.980   9.855  0.7035  0.1299  0.0488
22355SOL    HW171622   5.520   1.954   9.841  0.9471 -0.3773  2.2446
22355SOL    HW271623   5.435   2.072   9.880  0.6041  0.1280  0.0785
22356SOL     OW71624   1.411   9.130  11.518 -0.5831  0.2672  0.2947
22356SOL    HW171625   1.385   9.154  11.607 -2.0142 -0.7088  0.1690
22356SOL    HW271626   1.386   9.038  11.510 -2.3674  0.8613 -1.7674
22357SOL     OW71627   8.394   1.897  10.147  0.1102 -0.2555 -0.0113
22357SOL    HW171628   8.445   1.942  10.079  0.3773  1.6071  1.3462
22357SOL    HW271629   8.403   1.804  10.126  2.0751  0.1422 -1.2127
22358SOL     OW71630   1.748   8.668  10.664 -0.1178 -0.0272  0.0152
22358SOL    HW171631   1.804   8.611  10.612  0.9765  0.0380  1.0773
22358SOL    HW271632   1.750   8.753  10.619 -0.5897 -0.4193 -0.7670
22359SOL     OW71633   1.215   5.099   7.131  0.1524  0.0009  0.5132
22359SOL    HW171634   1.127   5.110   7.166 -0.4293  0.5153 -1.0358
22359SOL    HW271635   1.204   5.047   7.052  1.2298  0.1210  0.2645
22360SOL     OW71636   8.015   1.439  10.483  0.0583 -0.2194 -0.0903
22360SOL    HW171637   7.920   1.443  10.479  0.0843 -0.8547 -2.0593
22360SOL    HW271638   8.033   1.378  10.555 -0.9834  0.2767  0.6216
22361SOL     OW71639   1.212   6.704  11.103 -0.4286 -0.1148 -0.5661
22361SOL    HW171640   1.190   6.611  11.100  0.1644 -0.2739 -0.1880
22361SOL    HW271641   1.307   6.706  11.095 -0.3285  0.3834  0.5172
22362SOL     OW71642   7.117   9.347  10.086  0.0643 -0.3385  0.2152
22362SOL    HW171643   7.196   9.381  10.044 -0.2239  0.4508  0.2954
22362SOL    HW271644   7.084   9.280  10.025  1.8104 -2.0487  1.0475
22363SOL     OW71645  12.000   1.785   5.387 -0.0103 -0.1225  0.2276
22363SOL    HW171646  12.083   1.738   5.375 -0.2420 -0.9804  1.6581
22363SOL    HW271647  11.981   1.823   5.301  1.8195  0.0408 -0.1508
22364SOL     OW71648   8.775   6.910   9.188 -0.2747  0.2071 -0.2896
22364SOL    HW171649   8.690   6.872   9.169 -0.8550  1.3505 -0.0545
22364SOL    HW271650   8.837   6.837   9.180 -1.4935 -1.1101  1.5271
22365SOL     OW71651   8.161   2.665   0.438 -0.2496 -0.2836  0.1163
22365SOL    HW171652   8.213   2.600   0.485  0.8440 -0.3598 -1.1649
22365SOL    HW271653   8.157   2.633   0.348  1.2702  1.9351 -0.8185
22366SOL     OW71654   2.295   0.126   4.742  0.6288  0.6725 -0.2128
22366SOL    HW171655   2.204   0.158   4.744  0.8376  1.3011 -0.3338
22366SOL    HW271656   2.289   0.035   4.768  0.1393  1.1208  1.3801
22367SOL     OW71657   5.311   3.960  10.598  0.1120 -0.5025 -0.1474
22367SOL    HW171658   5.223   3.926  10.579 -0.1204  0.0052  0.0097
22367SOL    HW271659   5.296   4.035  10.656  0.7926 -2.0835  2.2516
22368SOL     OW71660   6.730   0.754   6.255 -0.0273  0.3622 -0.2448
22368SOL    HW171661   6.651   0.739   6.204 -1.0689 -2.7469  1.9432
22368SOL    HW271662   6.786   0.679   6.235  1.5081  1.4396 -0.1819
22369SOL     OW71663   2.260   9.841  11.705  0.2749  0.5364  0.7737
22369SOL    HW171664   2.213   9.811  11.627  1.0817  2.1384 -0.4000
22369SOL    HW271665   2.217   9.796  11.778 -1.6055  0.2467 -0.4352
22370SOL     OW71666   1.195   8.035   9.628 -0.2299  0.1426 -0.2966
22370SOL    HW171667   1.211   8.124   9.659  0.1286  0.0640 -0.2506
22370SOL    HW271668   1.181   8.044   9.534  0.5747  0.1576 -0.4179
22371SOL     OW71669   8.798  10.041   6.885  0.1797 -0.2036 -0.1180
22371SOL    HW171670   8.791   9.967   6.825  0.5142  0.6538 -1.2484
22371SOL    HW271671   8.892  10.053   6.898  0.1173 -0.1855  0.3296
22372SOL     OW71672  10.859   4.504   6.224  0.5086  0.9025  0.0533
22372SOL    HW171673  10.881   4.422   6.268 -0.5673  0.5679  0.0112
22372SOL    HW271674  10.793   4.544   6.281  0.6224  1.4721 -0.2092
22373SOL     OW71675   1.644   6.784   2.984 -0.2920  0.6213  0.4107
22373SOL    HW171676   1.695   6.826   2.914  0.0482  1.5497  1.1943
22373SOL    HW271677   1.621   6.856   3.043 -1.8981  0.0970  0.4583
22374SOL     OW71678   7.771   0.876   0.994 -0.2997  0.0279 -0.2270
22374SOL    HW171679   7.770   0.897   1.087 -1.9340 -1.9463  0.2561
22374SOL    HW271680   7.805   0.787   0.989 -1.2598 -0.3031 -1.3843
22375SOL     OW71681   6.173   7.364   2.050 -0.4375  0.2738  0.4081
22375SOL    HW171682   6.101   7.418   2.083 -0.3461 -0.0809  1.2199
22375SOL    HW271683   6.246   7.384   2.108  0.3959  1.2801 -0.9434
22376SOL     OW71684  10.044   7.241   8.010 -0.2134 -0.3374 -0.2761
22376SOL    HW171685  10.069   7.290   8.088  1.8231 -0.2851 -0.8800
22376SOL    HW271686  10.010   7.158   8.043  0.0861 -0.0892  0.6891
22377SOL     OW71687   1.167   7.730  11.470 -0.0200 -0.3785 -0.3262
22377SOL    HW171688   1.131   7.758  11.386 -0.2189  2.4835  0.6017
22377SOL    HW271689   1.092   7.727  11.529  0.6034  2.3458  0.8046
22378SOL     OW71690   7.202   4.379   4.668  0.2032 -0.0842  0.3475
22378SOL    HW171691   7.209   4.361   4.762  1.5176 -0.3635  0.2145
22378SOL    HW271692   7.249   4.307   4.626  0.0840  0.3165 -0.5075
22379SOL     OW71693   0.715   0.551   0.783 -0.1174  0.2174  0.3740
22379SOL    HW171694   0.730   0.493   0.858 -0.1870 -1.3171 -0.7546
22379SOL    HW271695   0.624   0.579   0.793 -0.6901 -1.3878 -0.0362
22380SOL     OW71696   7.875   7.714  10.435  0.4507  0.6710 -0.6845
22380SOL    HW171697   7.848   7.800  10.468 -1.3622  0.0938 -0.5415
22380SOL    HW271698   7.852   7.653  10.504 -0.2822 -0.1669 -1.6298
22381SOL     OW71699   9.171   7.928   0.938 -0.2629  0.4118 -0.2749
22381SOL    HW171700   9.129   7.859   0.886  0.7505 -2.0068  1.9042
22381SOL    HW271701   9.098   7.971   0.983 -0.7854 -0.8961  0.1830
22382SOL     OW71702   9.451  10.360   0.670  0.1531  0.0043  0.5074
22382SOL    HW171703   9.392  10.397   0.604  1.6925 -0.1615 -1.0511
22382SOL    HW271704   9.395  10.340   0.745 -1.3360  2.1377  0.0628
22383SOL     OW71705   9.815   1.564   0.281 -0.7982  0.5081  0.2110
22383SOL    HW171706   9.899   1.557   0.235  0.0690  1.1502  1.6000
22383SOL    HW271707   9.804   1.478   0.323 -1.4616  0.0123 -0.9184
22384SOL     OW71708  11.803   7.821   4.339 -0.1071  0.1242 -0.2134
22384SOL    HW171709  11.872   7.862   4.391  0.4267  1.6276 -1.9686
22384SOL    HW271710  11.831   7.731   4.327  0.7248  0.2843  0.4491
22385SOL     OW71711   7.767   8.699   7.545 -0.3035 -0.0197  0.7137
22385SOL    HW171712   7.780   8.791   7.570  2.8162 -0.2028  0.2143
22385SOL    HW271713   7.840   8.653   7.585 -1.0861 -2.0936 -0.1002
22386SOL     OW71714   7.964   9.179   7.416  0.0334  0.0057 -0.2000
22386SOL    HW171715   8.030   9.248   7.414 -0.1773  0.2469  0.6659
22386SOL    HW271716   8.014   9.099   7.437  0.1238  0.0988 -0.0548
22387SOL     OW71717  12.064   8.431   7.361 -0.0312  0.2527 -0.0312
22387SOL    HW171718  11.979   8.392   7.341 -0.1595  1.0246 -1.0678
22387SOL    HW271719  12.064   8.515   7.315  0.5808  1.1000  1.4433
22388SOL     OW71720   7.117   3.385   6.739 -0.4911 -0.1305 -0.5600
22388SOL    HW171721   7.143   3.293   6.746 -2.1469 -0.5235  1.5246
22388SOL    HW271722   7.196   3.431   6.710  0.6262 -2.0744 -0.7288
22389SOL     OW71723   1.004   9.873   3.341  0.6637 -0.0091  0.1180
22389SOL    HW171724   0.931   9.872   3.403  2.0557 -2.5005  1.8914
22389SOL    HW271725   0.974   9.815   3.270  0.6650 -0.5751  0.5683
22390SOL     OW71726  11.707   9.300   9.435  0.6117 -0.3290  0.0103
22390SOL    HW171727  11.793   9.317   9.396  0.5017  0.1545 -0.0265
22390SOL    HW271728  11.722   9.224   9.492  1.6847  1.3021  2.0139
22391SOL     OW71729   2.740   4.068   0.054 -0.5796 -0.5256 -0.3246
22391SOL    HW171730   2.700   4.126   0.119 -0.3821  0.8853 -1.4337
22391SOL    HW271731   2.829   4.055   0.085 -0.4651  0.1909 -0.3522
22392SOL     OW71732   6.874   7.813   9.259  0.1590 -0.3020  0.4665
22392SOL    HW171733   6.885   7.888   9.317  0.4286 -0.7197  0.9653
22392SOL    HW271734   6.780   7.793   9.262  0.2500 -0.6340  1.1563
22393SOL     OW71735   3.183  10.734   0.681  0.6198 -0.4023  0.1183
22393SOL    HW171736   3.225  10.780   0.609  1.3211  1.2019  1.5073
22393SOL    HW271737   3.089  10.745   0.665  0.7326  2.3041  0.8123
22394SOL     OW71738   0.893  11.416   9.945  0.0570 -0.2877  0.9052
22394SOL    HW171739   0.800  11.436   9.953  0.3248  1.0492  0.8320
22394SOL    HW271740   0.910  11.415   9.850  0.6976  2.4862  0.9122
22395SOL     OW71741  11.632   2.366   5.728  0.0372  0.4718  0.0612
22395SOL    HW171742  11.702   2.305   5.704 -0.7894 -1.2295  1.6980
22395SOL    HW271743  11.572   2.364   5.653  0.9436  0.7454 -0.6937
22396SOL     OW71744   4.848   3.174  11.348  0.1780 -0.2359 -0.1202
22396SOL    HW171745   4.784   3.239  11.320  0.6453  0.0733 -0.4737
22396SOL    HW271746   4.849   3.110  11.277  1.4344  0.5986 -0.8784
22397SOL     OW71747  11.820   6.239   8.932 -0.0589  0.0696  0.1430
22397SOL    HW171748  11.864   6.176   8.875  1.3072 -0.6384  1.8652
22397SOL    HW271749  11.727   6.231   8.910  0.4011 -0.2715 -1.8349
22398SOL     OW71750   7.530  10.165   5.125 -0.2467 -0.4085 -0.6602
22398SOL    HW171751   7.510  10.085   5.173 -0.4142 -1.1288 -1.9057
22398SOL    HW271752   7.562  10.135   5.040 -1.3861  0.8497 -1.5615
22399SOL     OW71753  11.147   8.901  11.421 -0.0354  0.1673 -0.0866
22399SOL    HW171754  11.197   8.882  11.500  0.1073 -0.0708 -0.2337
22399SOL    HW271755  11.057   8.877  11.443 -0.2026  1.2222  0.3996
22400SOL     OW71756   0.825   3.939   3.555 -0.0049  0.0523 -0.2408
22400SOL    HW171757   0.862   3.907   3.473  0.6144 -0.0256  0.0608
22400SOL    HW271758   0.797   3.860   3.601 -0.7557  0.1226 -0.5541
22401SOL     OW71759  10.618   6.101   8.041  0.3640  0.1451 -0.0344
22401SOL    HW171760  10.682   6.123   7.974  0.5588  0.6563  0.3124
22401SOL    HW271761  10.547   6.057   7.994  0.6008  0.2983 -0.5355
22402SOL     OW71762   6.088   6.255   1.209  0.3127  0.0663 -0.0915
22402SOL    HW171763   6.137   6.275   1.130  0.4226  1.3499  0.2863
22402SOL    HW271764   6.094   6.160   1.217  1.6606  0.0731 -0.7401
22403SOL     OW71765   7.032   7.161   7.669 -0.3085  0.5250  0.1296
22403SOL    HW171766   6.960   7.188   7.726  0.7288  0.4194  1.5355
22403SOL    HW271767   7.002   7.079   7.630 -1.5974  1.2963 -0.5788
22404SOL     OW71768   3.575   6.335  10.474 -0.6990  0.6820  0.9100
22404SOL    HW171769   3.642   6.401  10.455 -0.2208  0.1998  0.8597
22404SOL    HW271770   3.521   6.374  10.543 -0.0934  0.9084  1.2690
22405SOL     OW71771   9.473   5.402   9.995  0.6023 -0.1065  0.0743
22405SOL    HW171772   9.467   5.494  10.020 -1.5107  0.9107 -3.4594
22405SOL    HW271773   9.398   5.361  10.039 -0.7901  0.7875 -1.3675
22406SOL     OW71774   0.296   1.284   5.419  0.3603  0.4026  0.2944
22406SOL    HW171775   0.374   1.276   5.474 -0.8924 -2.9597  1.8602
22406SOL    HW271776   0.326   1.262   5.331  1.2003 -1.0011  0.9024
22407SOL     OW71777   2.813   9.103   6.142  0.4923 -0.0150 -0.4898
22407SOL    HW171778   2.812   9.055   6.225  2.0235  0.0016 -0.4330
22407SOL    HW271779   2.814   9.195   6.168  1.9523 -0.0110 -0.4657
22408SOL     OW71780  11.046   2.911   9.255 -0.1107  0.3879  0.1370
22408SOL    HW171781  10.994   2.969   9.310  0.4521 -0.3194  1.4676
22408SOL    HW271782  11.134   2.949   9.256 -0.1783  0.5732 -0.5919
22409SOL     OW71783  10.685   6.306   2.968  0.7597 -0.1153  0.3953
22409SOL    HW171784  10.771   6.271   2.990 -0.1364 -1.3388  2.1448
22409SOL    HW271785  10.623   6.246   3.009 -0.9098  3.3222  3.5084
22410SOL     OW71786   7.657  11.376   2.397  0.1595 -0.3629 -0.3529
22410SOL    HW171787   7.660  11.282   2.379  2.4235 -0.1029 -1.6867
22410SOL    HW271788   7.624  11.415   2.316  1.7423  0.1525 -0.7802
22411SOL     OW71789   9.143  10.181  11.931 -0.7914 -0.4116 -0.1921
22411SOL    HW171790   9.205  10.237  11.977  0.5230  0.0509 -2.3812
22411SOL    HW271791   9.058  10.224  11.942 -0.3332  0.2735  0.7952
22412SOL     OW71792  10.523   5.693   8.297 -0.0218  0.7015 -0.4961
22412SOL    HW171793  10.451   5.736   8.252  0.0608  2.3310  0.8327
22412SOL    HW271794  10.483   5.621   8.345 -0.3918  0.1675 -1.5813
22413SOL     OW71795   6.354   6.215   4.818 -0.2889 -0.2762 -0.1016
22413SOL    HW171796   6.324   6.202   4.908  0.0143 -0.1777  0.0164
22413SOL    HW271797   6.380   6.307   4.814 -0.8356 -0.1324 -0.4545
22414SOL     OW71798   4.253  10.718   8.243 -0.2134 -0.2175 -0.5608
22414SOL    HW171799   4.310  10.641   8.241 -0.4812 -0.4691  0.5690
22414SOL    HW271800   4.166  10.682   8.260 -0.2552  0.3579  0.5152
22415SOL     OW71801   6.023   4.837   6.296 -0.2511 -0.4100  0.2906
22415SOL    HW171802   5.963   4.821   6.223  0.9026 -1.0379 -0.5601
22415SOL    HW271803   6.104   4.867   6.254  0.4604 -0.8631  1.2989
22416SOL     OW71804   5.373   8.402   1.879 -0.2714 -0.5422 -0.2315
22416SOL    HW171805   5.437   8.473   1.872  0.2289 -1.0603 -1.0750
22416SOL    HW271806   5.360   8.373   1.789  0.7235 -2.5717  0.2327
22417SOL     OW71807   6.082   8.782   9.832 -0.1809  0.0213 -0.4682
22417SOL    HW171808   6.063   8.814   9.744 -0.3262 -0.7023 -0.7059
22417SOL    HW271809   6.058   8.689   9.830  0.8049 -0.2587  0.0284
22418SOL     OW71810   9.383  11.492   8.036 -0.3013 -0.0943  0.9910
22418SOL    HW171811   9.469  11.471   8.000 -0.0583 -0.5131  1.7793
22418SOL    HW271812   9.321  11.476   7.964  0.3167  0.6699  0.2726
22419SOL     OW71813   1.102   7.795  10.125 -0.3714 -0.2645 -0.5141
22419SOL    HW171814   1.101   7.782  10.030  0.5408  0.6249 -0.6573
22419SOL    HW271815   1.019   7.837  10.144 -0.8696 -1.0837 -0.8126
22420SOL     OW71816   3.699   2.208   8.671  0.7217  0.2206  0.1960
22420SOL    HW171817   3.773   2.149   8.655 -0.4458 -1.5175  0.8747
22420SOL    HW271818   3.652   2.210   8.588 -0.5899 -1.8908  0.7908
22421SOL     OW71819   2.695  10.487   7.370  0.0380 -0.1256  0.0581
22421SOL    HW171820   2.762  10.423   7.347  1.0695  1.6969 -2.5629
22421SOL    HW271821   2.744  10.567   7.390 -1.2768  0.8253 -0.3508
22422SOL     OW71822  11.221   1.162   3.486  0.0183 -0.4922  0.3436
22422SOL    HW171823  11.280   1.175   3.412 -2.2015  0.1747 -1.4273
22422SOL    HW271824  11.237   1.071   3.513 -0.0104 -1.2108 -1.8471
22423SOL     OW71825   6.519   6.634   0.992  0.0113  0.1311 -0.0130
22423SOL    HW171826   6.593   6.588   0.953  0.6572  3.2040 -2.9166
22423SOL    HW271827   6.450   6.631   0.926 -0.3875  2.0080  0.2364
22424SOL     OW71828   8.836  11.317   9.743  0.5619  0.3700  0.0081
22424SOL    HW171829   8.836  11.404   9.782 -0.5216 -0.0777  1.0779
22424SOL    HW271830   8.824  11.257   9.817  1.4701 -0.7057 -0.6810
22425SOL     OW71831   6.598   2.160   5.039 -0.3129  0.3374 -0.3620
22425SOL    HW171832   6.644   2.177   5.121  0.0821  0.5200 -0.6153
22425SOL    HW271833   6.520   2.214   5.043 -0.2961  0.3418 -0.1022
22426SOL     OW71834   0.386   5.315   0.924  0.4465 -0.4338 -0.4827
22426SOL    HW171835   0.442   5.353   0.857  0.4208 -0.3834 -0.4758
22426SOL    HW271836   0.428   5.339   1.007 -1.4873  2.8342 -0.2474
22427SOL     OW71837  10.643   7.405  11.313  0.1257  0.0716 -0.2290
22427SOL    HW171838  10.612   7.390  11.403  1.8117  1.3616  0.6261
22427SOL    HW271839  10.563   7.418  11.262 -0.8697 -0.6786  1.0800
22428SOL     OW71840   3.272   5.312   7.546  0.1138  0.6091 -0.0883
22428SOL    HW171841   3.229   5.380   7.494 -0.5720  0.5764  0.4224
22428SOL    HW271842   3.294   5.355   7.629  2.0133  0.9169 -0.6970
22429SOL     OW71843   6.272   7.254   9.871 -0.0992 -0.0376 -0.1363
22429SOL    HW171844   6.269   7.265   9.776 -0.8337 -0.2404 -0.1406
22429SOL    HW271845   6.184   7.278   9.900 -0.4461 -1.7167  0.3075
22430SOL     OW71846   3.016  11.971   0.221 -0.0306 -0.0227  0.6123
22430SOL    HW171847   3.091  12.023   0.252  0.0791  0.2498 -0.0761
22430SOL    HW271848   3.011  11.897   0.281 -0.4175  0.9733  1.8394
22431SOL     OW71849   8.634  10.233   4.817 -0.4057 -0.8495  0.9965
22431SOL    HW171850   8.595  10.287   4.748  0.0829 -1.4742  0.2160
22431SOL    HW271851   8.580  10.154   4.820 -0.9710 -0.4493  1.9704
22432SOL     OW71852  11.163   4.133   5.757  0.4552  0.2898 -0.5135
22432SOL    HW171853  11.132   4.170   5.674  0.5603 -0.5701 -0.9547
22432SOL    HW271854  11.236   4.188   5.783 -0.4345  1.3904 -0.2785
22433SOL     OW71855   8.348   3.272   3.329 -0.9357 -0.0221 -0.3762
22433SOL    HW171856   8.370   3.211   3.258 -0.8302  0.0907 -0.4417
22433SOL    HW271857   8.291   3.222   3.387 -2.6462  0.4645 -1.5397
22434SOL     OW71858   5.843   5.231   7.617 -0.4512  0.4316 -0.5714
22434SOL    HW171859   5.794   5.215   7.537 -1.1392  1.2394 -0.3222
22434SOL    HW271860   5.821   5.157   7.674  0.2469 -0.2848 -1.2045
22435SOL     OW71861   9.700  11.603   3.459 -0.3389 -0.1496  0.0985
22435SOL    HW171862   9.794  11.585   3.466  0.1672  0.6854 -3.0673
22435SOL    HW271863   9.668  11.534   3.401 -1.6951 -0.3882  1.1062
22436SOL     OW71864  11.850   8.554   1.201  0.2623 -0.3084  0.1787
22436SOL    HW171865  11.830   8.496   1.127 -0.7246  1.5218 -1.0614
22436SOL    HW271866  11.766   8.564   1.246  0.3340  0.4045  0.1678
22437SOL     OW71867   1.440  10.230   2.059  0.3084 -0.2558 -0.5900
22437SOL    HW171868   1.474  10.215   1.970 -0.8214 -1.5925 -0.8140
22437SOL    HW271869   1.474  10.158   2.111 -0.1200 -0.2007 -0.2286
22438SOL     OW71870   8.436   6.585   9.719  0.0238  0.2768 -0.8068
22438SOL    HW171871   8.404   6.654   9.660  1.7779  0.7371 -1.2724
22438SOL    HW271872   8.454   6.631   9.801 -1.0873 -0.1107 -0.3211
22439SOL     OW71873   3.825  10.709   1.530  0.4137  0.4189 -0.4988
22439SOL    HW171874   3.763  10.691   1.458 -0.4732  0.6274  0.1995
22439SOL    HW271875   3.903  10.743   1.486  0.3831 -0.6836 -1.4732
22440SOL     OW71876   4.601   5.548   8.839  0.4662 -0.0023  0.1672
22440SOL    HW171877   4.676   5.599   8.808 -0.8462  1.0051 -1.5496
22440SOL    HW271878   4.586   5.483   8.770  0.0316 -0.4894  0.7115
22441SOL     OW71879   5.314   6.882   4.145 -0.1172 -0.2619 -0.4908
22441SOL    HW171880   5.238   6.848   4.099  0.5093 -2.1637 -0.1963
22441SOL    HW271881   5.280   6.907   4.231 -0.5180 -0.4769 -0.5834
22442SOL     OW71882   3.861   3.767   6.238  0.0319  0.2351 -0.3270
22442SOL    HW171883   3.860   3.862   6.233 -2.0471  0.5515  2.9236
22442SOL    HW271884   3.814   3.738   6.160  1.3036  1.7467 -1.7362
22443SOL     OW71885   2.789   3.822  11.480 -0.1130  0.0448 -0.0517
22443SOL    HW171886   2.854   3.789  11.418  1.7722  2.6721  0.3705
22443SOL    HW271887   2.760   3.905  11.442 -1.5692 -0.0019  0.8924
22444SOL     OW71888   0.066   3.870   8.090 -0.4912 -0.4395  0.5850
22444SOL    HW171889   0.082   3.902   8.179 -1.1651  0.6990  0.3117
22444SOL    HW271890   0.104   3.936   8.033 -1.9453 -0.0693  0.0076
22445SOL     OW71891   0.214  12.067   0.022  0.0684  0.1098 -0.2666
22445SOL    HW171892   0.188  12.027   0.105  2.6203 -0.2163  0.4566
22445SOL    HW271893   0.133  12.104  -0.013 -1.8146 -2.9088  0.5392
22446SOL     OW71894   5.955   2.933   7.719  0.1947  0.5882  0.0673
22446SOL    HW171895   6.049   2.915   7.723 -0.2131 -1.6424  1.0858
22446SOL    HW271896   5.943   2.974   7.633  2.3802  3.2169  0.8582
22447SOL     OW71897   1.305   0.864   5.595  0.4275 -0.4482 -0.1556
22447SOL    HW171898   1.316   0.958   5.603 -0.0990 -0.4245  0.3391
22447SOL    HW271899   1.370   0.827   5.655  0.3911 -0.3959 -0.0844
22448SOL     OW71900   7.802   9.087   8.016  0.3459  0.1135 -0.3833
22448SOL    HW171901   7.737   9.089   7.945  0.7675 -0.0800 -0.7809
22448SOL    HW271902   7.863   9.018   7.990 -0.3351 -1.0362  0.9244
22449SOL     OW71903  10.022   5.468   2.443 -0.1690 -0.4414 -0.3726
22449SOL    HW171904  10.106   5.424   2.456  0.3006  0.9116  1.5990
22449SOL    HW271905   9.971   5.407   2.390  1.4460 -2.0385 -0.1816
22450SOL     OW71906  10.937   5.133   6.310  0.2211  0.8222 -0.1414
22450SOL    HW171907  10.962   5.225   6.306 -0.0519  0.9563  1.0161
22450SOL    HW271908  11.015   5.087   6.342 -0.0935  0.8562  0.6945
22451SOL     OW71909   1.423  10.769  10.197 -0.8110  0.1086 -0.3695
22451SOL    HW171910   1.404  10.713  10.122  1.3353 -0.8793 -0.2617
22451SOL    HW271911   1.358  10.744  10.262 -3.1117  1.4094 -2.0151
22452SOL     OW71912   0.531   1.866   7.540 -0.2332 -0.2091 -0.0472
22452SOL    HW171913   0.445   1.826   7.532 -0.5816  0.7934 -1.7990
22452SOL    HW271914   0.552   1.859   7.633 -1.8335 -1.1890  0.2773
22453SOL     OW71915   5.732  10.596   7.589  0.1729  1.0159 -0.0305
22453SOL    HW171916   5.717  10.611   7.495  0.1814  3.6587  0.3287
22453SOL    HW271917   5.645  10.593   7.627  0.1608 -0.2906 -0.1121
22454SOL     OW71918   8.809   0.278   6.344 -0.7743 -0.2619 -0.0076
22454SOL    HW171919   8.802   0.271   6.249 -1.4988 -0.5768  0.0595
22454SOL    HW271920   8.825   0.371   6.361 -1.8112  0.0021 -0.3900
22455SOL     OW71921   7.166  11.485   6.130 -0.9818 -0.0991 -0.6286
22455SOL    HW171922   7.173  11.574   6.095  1.4767 -0.5939 -1.5618
22455SOL    HW271923   7.094  11.490   6.193  1.2971  3.5070  2.1159
22456SOL     OW71924   5.030   9.101   7.118  0.0519  0.4030 -0.0270
22456SOL    HW171925   4.961   9.132   7.177  0.7075  0.3691  0.7820
22456SOL    HW271926   5.086   9.178   7.106  0.9794 -0.0950  0.9598
22457SOL     OW71927   0.537   4.935  10.726 -0.2810  0.4431  0.0765
22457SOL    HW171928   0.611   4.991  10.704 -0.2327  0.2432 -0.2793
22457SOL    HW271929   0.469   4.995  10.757 -0.2265  0.6968 -0.2873
22458SOL     OW71930   1.620   9.571   4.544 -0.1369 -0.0692 -0.5170
22458SOL    HW171931   1.642   9.663   4.554 -1.7006  0.1854  1.1095
22458SOL    HW271932   1.572   9.567   4.461  0.0732  0.5514 -0.6756
22459SOL     OW71933   0.311   5.468   3.118  0.3239  0.1457  0.1644
22459SOL    HW171934   0.353   5.382   3.122 -0.0508 -0.0500 -0.0369
22459SOL    HW271935   0.222   5.450   3.087  0.4059  0.6568 -0.3957
22460SOL     OW71936   2.679   4.137  11.696 -0.5484  0.3415  0.0870
22460SOL    HW171937   2.607   4.100  11.645 -0.4176  1.9415 -1.3352
22460SOL    HW271938   2.728   4.191  11.634  0.3702  1.3412  1.6146
22461SOL     OW71939  11.272   3.725   0.342  0.4479  0.0773  0.3480
22461SOL    HW171940  11.301   3.635   0.323  1.9180  0.7267 -0.7034
22461SOL    HW271941  11.303   3.776   0.267 -2.3999  1.1055 -0.2483
22462SOL     OW71942  11.531   9.971   0.420  0.2430  0.6816 -0.0480
22462SOL    HW171943  11.546   9.925   0.337 -0.1032 -1.1009  0.8268
22462SOL    HW271944  11.436   9.982   0.424  0.2882  1.0779 -0.0413
22463SOL     OW71945   0.659   4.516  11.596 -0.6182 -0.1570 -0.2006
22463SOL    HW171946   0.716   4.443  11.571 -2.0396 -1.3713 -0.0422
22463SOL    HW271947   0.570   4.483  11.583 -1.3148  1.6482 -0.3608
22464SOL     OW71948   6.404   8.650   9.237  0.1151  0.5124 -0.1548
22464SOL    HW171949   6.482   8.683   9.283  1.0552 -0.3207 -1.0911
22464SOL    HW271950   6.343   8.626   9.307  1.4722 -0.6523  0.6816
22465SOL     OW71951   2.459   6.661   3.868 -0.1484 -0.1023 -0.5479
22465SOL    HW171952   2.512   6.634   3.943 -0.4942 -0.1494 -0.3139
22465SOL    HW271953   2.511   6.727   3.824  0.7267 -1.1535 -1.1461
22466SOL     OW71954   2.716   3.030   2.049 -0.4387  0.1036 -0.0749
22466SOL    HW171955   2.775   3.041   2.124  0.6875  1.3950 -1.0796
22466SOL    HW271956   2.716   2.936   2.032  1.8178  0.0914 -0.3518
22467SOL     OW71957   8.197   1.100  12.044  0.3727 -0.3110  0.2131
22467SOL    HW171958   8.285   1.083  12.012  0.1641  0.7413 -1.0228
22467SOL    HW271959   8.146   1.118  11.965 -0.6745  0.2597  0.9942
22468SOL     OW71960   5.065   8.545   2.687 -0.1960  0.3843 -0.5297
22468SOL    HW171961   4.989   8.487   2.689  0.9542 -1.2050  1.5940
22468SOL    HW271962   5.089   8.556   2.779  0.0841  3.7333 -0.8781
22469SOL     OW71963   2.622   7.965  11.196  0.2496 -0.9222 -0.7168
22469SOL    HW171964   2.705   8.009  11.213 -0.3372  0.3954 -1.0725
22469SOL    HW271965   2.560   8.008  11.255 -0.4203 -1.0406 -1.3221
22470SOL     OW71966   6.797   8.617   5.801  0.2222  0.1488 -0.4749
22470SOL    HW171967   6.703   8.607   5.815  0.0408  0.1031 -1.6175
22470SOL    HW271968   6.827   8.531   5.773  0.3739  0.4389 -1.2487
22471SOL     OW71969   7.194   6.100   2.844 -0.6979  0.1846  0.5171
22471SOL    HW171970   7.168   6.110   2.753 -0.7643  2.5927  0.7418
22471SOL    HW271971   7.229   6.185   2.869  0.1141 -0.6647  2.5125
22472SOL     OW71972   8.965  10.088   7.460  0.0199 -0.6427 -0.1984
22472SOL    HW171973   9.016  10.156   7.505  2.4892 -2.9284  0.7384
22472SOL    HW271974   8.876  10.123   7.457  1.1147  2.5765  0.2309
22473SOL     OW71975   1.638   9.978   2.970 -0.4071  0.0730  0.4485
22473SOL    HW171976   1.545   9.999   2.961 -0.3201  0.3688  0.2491
22473SOL    HW271977   1.640   9.883   2.974 -0.5520 -0.0536 -1.5077
22474SOL     OW71978   2.002   5.917   6.229  0.0923 -0.6212  0.2842
22474SOL    HW171979   2.007   5.965   6.147 -1.9560 -2.3681 -0.9617
22474SOL    HW271980   2.033   5.979   6.295 -0.1317  1.5342 -1.5232
22475SOL     OW71981   9.321   9.693  11.523  0.1465  0.5174  0.1115
22475SOL    HW171982   9.346   9.761  11.585  0.5532 -0.8200  1.4682
22475SOL    HW271983   9.362   9.719  11.441  1.2673  1.3048  0.8958
22476SOL     OW71984   7.416   8.334   1.580  0.4903 -0.1249  0.1205
22476SOL    HW171985   7.379   8.291   1.657  0.6391 -1.6700 -0.6360
22476SOL    HW271986   7.340   8.371   1.535  0.3783  0.5766  0.8625
22477SOL     OW71987   6.908   7.642   9.035  0.0910  0.1735  0.1417
22477SOL    HW171988   6.889   7.722   9.084  1.0265  0.7448 -0.3848
22477SOL    HW271989   6.940   7.580   9.100  2.2381  1.2352  0.1655
22478SOL     OW71990   5.355   0.792   0.783 -0.7470  0.2557  0.4607
22478SOL    HW171991   5.410   0.744   0.845 -1.6221  1.8761  2.6187
22478SOL    HW271992   5.298   0.725   0.744  0.9474 -1.0440  0.1187
22479SOL     OW71993   2.954   7.155   9.196  0.0958 -0.0086  0.3245
22479SOL    HW171994   3.016   7.218   9.234  0.7685  0.8286 -2.0062
22479SOL    HW271995   2.908   7.205   9.128  0.5811 -1.9710 -1.5562
22480SOL     OW71996   6.113   3.698   0.419 -0.1570  0.0317  0.2431
22480SOL    HW171997   6.115   3.626   0.355  2.5595  0.1033  0.1520
22480SOL    HW271998   6.054   3.667   0.488 -0.1395 -1.6833 -0.4611
22481SOL     OW71999   9.120   5.801  10.469 -0.3360  0.3913  0.0038
22481SOL    HW172000   9.041   5.760  10.504 -0.0564 -0.5071 -0.3949
22481SOL    HW272001   9.095   5.829  10.381 -0.1293 -0.1897 -0.2476
22482SOL     OW72002   8.839   0.023   2.598 -0.2532  0.1507 -0.1991
22482SOL    HW172003   8.857   0.077   2.522  1.6229  1.2478  0.9508
22482SOL    HW272004   8.759   0.061   2.636  1.7006  3.1082  1.3166
22483SOL     OW72005   9.255   7.474   3.438 -0.0750 -0.3381 -0.5494
22483SOL    HW172006   9.189   7.517   3.384  0.2592 -0.0457 -0.7252
22483SOL    HW272007   9.262   7.529   3.516 -0.7699 -0.9187 -0.0674
22484SOL     OW72008   9.268   6.713  10.294  0.5464 -0.0764  0.3483
22484SOL    HW172009   9.187   6.664  10.308  0.7070 -1.3144 -2.5293
22484SOL    HW272010   9.320   6.696  10.373 -1.3390 -0.4829  1.5792
22485SOL     OW72011   8.518   0.502   5.547 -0.3518  0.1100 -1.0893
22485SOL    HW172012   8.465   0.472   5.621  2.9051  0.7112  1.7365
22485SOL    HW272013   8.500   0.596   5.541 -1.1275 -0.0628 -1.5357
22486SOL     OW72014  10.876   8.963  10.626  0.2524  0.2133 -0.1579
22486SOL    HW172015  10.928   9.040  10.600  0.2590  1.2813  2.6720
22486SOL    HW272016  10.796   9.000  10.663 -1.1816 -1.3229 -1.5290
22487SOL     OW72017   9.961   8.733   2.737  0.0000  0.0865 -0.1815
22487SOL    HW172018  10.029   8.756   2.799  0.2474 -0.4608 -0.2438
22487SOL    HW272019   9.906   8.811   2.731  0.1551  0.2457  0.4800
22488SOL     OW72020  10.462   5.652   9.164 -0.0527 -0.8068 -0.1294
22488SOL    HW172021  10.547   5.689   9.186 -0.1383 -0.6918  0.0154
22488SOL    HW272022  10.449   5.674   9.072  0.1919 -1.0594 -0.2266
22489SOL     OW72023   3.286   4.438   3.334 -0.5013 -0.2186 -0.6230
22489SOL    HW172024   3.214   4.474   3.282 -1.4159 -2.1781 -0.8097
22489SOL    HW272025   3.247   4.420   3.419  0.0853 -0.1771 -0.3441
22490SOL     OW72026   5.606   8.744   8.265 -0.2056  0.1791  0.0562
22490SOL    HW172027   5.662   8.764   8.339 -2.6532  1.6621  1.6597
22490SOL    HW272028   5.578   8.653   8.280  1.1547 -0.3384 -0.4012
22491SOL     OW72029   6.312   3.889   1.885  0.2621 -0.2130  0.2142
22491SOL    HW172030   6.248   3.821   1.862  0.1707 -0.0530  0.0021
22491SOL    HW272031   6.332   3.872   1.977 -0.8835  0.3925  0.5860
22492SOL     OW72032   4.490   4.654   3.643 -0.1246  0.2260 -0.2392
22492SOL    HW172033   4.513   4.739   3.605  3.2991  0.5307  2.0476
22492SOL    HW272034   4.559   4.595   3.612 -1.2800 -1.2466 -0.1213
22493SOL     OW72035   6.670   3.163   7.031  0.8683  0.1348  0.4710
22493SOL    HW172036   6.654   3.251   7.064  0.7537  0.1691  0.3296
22493SOL    HW272037   6.668   3.107   7.108  0.1121  0.1465  0.4746
22494SOL     OW72038   4.560   4.431   5.438 -0.1654  0.4953 -0.2036
22494SOL    HW172039   4.582   4.361   5.377  1.0679  1.3802 -0.8130
22494SOL    HW272040   4.644   4.458   5.475 -0.7185  1.0630  0.6795
22495SOL     OW72041   9.723   5.445   3.281 -0.1231  0.6409 -0.4466
22495SOL    HW172042   9.798   5.414   3.229  0.3183  0.9933 -0.0298
22495SOL    HW272043   9.711   5.536   3.253  1.6193  1.6316  1.6839
22496SOL     OW72044   0.610  10.107   6.434  0.0821  0.3491  0.3821
22496SOL    HW172045   0.593  10.191   6.391 -1.4018 -0.0935  0.0477
22496SOL    HW272046   0.636  10.049   6.363  0.5080  0.3677  0.5224
22497SOL     OW72047   1.076   5.386  11.731 -0.1087  0.2582  0.1479
22497SOL    HW172048   1.096   5.359  11.821  1.9408 -0.2012 -0.3936
22497SOL    HW272049   1.134   5.333  11.677 -0.7921  1.0438 -1.4140
22498SOL     OW72050   1.436   8.490   0.174 -0.2161  0.4516  0.1215
22498SOL    HW172051   1.518   8.462   0.132 -0.4985 -0.9890  0.4514
22498SOL    HW272052   1.367   8.457   0.117 -0.5780  1.4740 -0.0440
22499SOL     OW72053   5.573   1.749   5.988  0.0026 -0.1558  0.1893
22499SOL    HW172054   5.588   1.744   6.083  1.7219 -1.4297 -0.1111
22499SOL    HW272055   5.638   1.812   5.957 -0.3076 -0.0256 -0.1962
22500SOL     OW72056   9.670  11.597   2.650  0.2531 -0.3181 -0.2290
22500SOL    HW172057   9.633  11.657   2.714  2.7900 -0.1889  1.2603
22500SOL    HW272058   9.733  11.545   2.700 -0.0657 -2.5438 -1.9771
22501SOL     OW72059   6.444   7.445  10.521  0.3649 -0.0012  0.5376
22501SOL    HW172060   6.413   7.535  10.520  2.1996  0.6613  0.4215
22501SOL    HW272061   6.535   7.450  10.549  0.3904 -1.8692  0.9652
22502SOL     OW72062   7.235   7.983   2.068  0.1631  0.4577  0.4314
22502SOL    HW172063   7.316   7.970   2.019  0.6147  1.0488  1.0073
22502SOL    HW272064   7.229   7.906   2.125 -0.0414  0.0769 -0.0969
22503SOL     OW72065   9.348   0.203  11.766  0.0934  0.1000 -0.4031
22503SOL    HW172066   9.324   0.282  11.718  0.0263 -0.1462 -0.7806
22503SOL    HW272067   9.271   0.181  11.818 -0.9214 -1.2394 -2.3401
22504SOL     OW72068   5.950  10.146   8.857  0.6550  0.0393  0.6069
22504SOL    HW172069   5.952  10.149   8.953 -0.7271  0.7144  0.6256
22504SOL    HW272070   6.031  10.191   8.831  0.1041  1.5813  1.4411
22505SOL     OW72071   9.420  11.863   6.137 -0.1670 -0.3169 -0.5135
22505SOL    HW172072   9.362  11.797   6.175  0.0886 -0.6573 -0.7100
22505SOL    HW272073   9.425  11.932   6.203  0.8452 -1.2203  0.3930
22506SOL     OW72074  11.596  10.664  11.055 -0.2079  0.5154  0.4182
22506SOL    HW172075  11.535  10.714  11.110 -2.8663 -0.8106 -1.1132
22506SOL    HW272076  11.556  10.577  11.048  0.6141  0.2811 -2.6378
22507SOL     OW72077   9.017  12.118   6.155 -0.6143 -0.0802 -0.5387
22507SOL    HW172078   9.110  12.127   6.132 -0.4414 -1.9323 -0.7235
22507SOL    HW272079   8.981  12.206   6.145  0.7906  0.3836 -1.9476
22508SOL     OW72080   1.406   9.491   7.584  0.1040  0.6312 -0.1695
22508SOL    HW172081   1.321   9.519   7.550  0.1401 -0.2152 -1.0113
22508SOL    HW272082   1.385   9.428   7.653  0.0378  0.4465 -0.3557
22509SOL     OW72083   4.382   9.939   7.678 -0.1576  0.5093 -0.0886
22509SOL    HW172084   4.335  10.022   7.676 -2.9313 -0.9637 -0.0396
22509SOL    HW272085   4.407   9.927   7.770  0.5226  1.3700 -0.1444
22510SOL     OW72086   5.523   0.829   4.758  0.1015 -0.4361  0.3668
22510SOL    HW172087   5.504   0.921   4.739 -1.4751 -0.9138 -0.5901
22510SOL    HW272088   5.468   0.809   4.833  0.4322 -0.6027  0.5640
22511SOL     OW72089   3.742  10.937   5.827  0.1011  0.5280  0.1457
22511SOL    HW172090   3.788  11.017   5.804 -0.5693  0.7404 -0.4826
22511SOL    HW272091   3.806  10.886   5.877  0.6285  1.3153  0.2914
22512SOL     OW72092   0.878   5.452   2.836  0.0730  0.9773  0.6137
22512SOL    HW172093   0.835   5.392   2.897  1.4099 -1.8454 -1.0344
22512SOL    HW272094   0.954   5.484   2.884  0.9225 -0.9449  0.6547
22513SOL     OW72095   1.958   4.951   7.357 -0.1791 -0.1800 -0.7734
22513SOL    HW172096   1.894   4.914   7.296 -0.4018  0.4222 -0.9134
22513SOL    HW272097   1.997   5.023   7.309 -1.3790  1.2328  0.2867
22514SOL     OW72098   0.911   5.679   3.964  0.0778 -0.2070  0.2703
22514SOL    HW172099   0.968   5.649   3.893 -0.7224 -3.0597  0.7360
22514SOL    HW272100   0.971   5.726   4.023  0.6802  2.6496 -2.3731
22515SOL     OW72101   4.142   9.042   9.449 -0.0183  0.6133  0.5670
22515SOL    HW172102   4.071   9.040   9.385 -1.7396 -1.0877  2.3708
22515SOL    HW272103   4.125   9.122   9.500 -1.2669 -0.2408  1.5602
22516SOL     OW72104   2.665   9.870   1.397 -0.3065  0.0342  0.0158
22516SOL    HW172105   2.620   9.949   1.427 -1.7305  0.2038 -2.3152
22516SOL    HW272106   2.621   9.798   1.442  1.1105  0.4651  2.2862
22517SOL     OW72107   3.507   1.334   1.238  0.0782  0.0658  0.7417
22517SOL    HW172108   3.459   1.252   1.232  0.9132 -0.4156  0.5426
22517SOL    HW272109   3.555   1.329   1.321 -1.1112  1.0524  1.5265
22518SOL     OW72110   9.938  11.270   1.006  0.2674  0.1350  0.2779
22518SOL    HW172111   9.871  11.225   0.954  1.0953 -2.6417  1.4316
22518SOL    HW272112   9.974  11.336   0.946 -2.7587  1.0480 -0.6809
22519SOL     OW72113   0.952   0.949   2.107  0.0600 -0.1557 -0.1380
22519SOL    HW172114   0.900   0.981   2.032  0.8910  0.1307 -0.6025
22519SOL    HW272115   1.002   1.026   2.135  0.7191 -0.5909 -0.1097
22520SOL     OW72116   3.132   3.420   1.375  0.1088 -0.4032 -0.1956
22520SOL    HW172117   3.143   3.409   1.469 -0.1116 -0.8015 -0.2091
22520SOL    HW272118   3.221   3.419   1.339  0.2671  0.9949  0.1218
22521SOL     OW72119   3.392   0.458   8.636  0.5338  0.5592  0.6916
22521SOL    HW172120   3.474   0.472   8.588 -0.0902  0.6538 -0.3813
22521SOL    HW272121   3.328   0.512   8.589 -0.6569 -1.3263  0.0555
22522SOL     OW72122   6.468   9.134   1.320 -0.2601 -0.5214 -0.0540
22522SOL    HW172123   6.518   9.084   1.256  0.2718 -0.3569  0.2291
22522SOL    HW272124   6.378   9.131   1.288 -0.0141 -0.5170 -0.7592
22523SOL     OW72125   4.336   1.842   0.134 -0.1614 -0.1511  0.0010
22523SOL    HW172126   4.294   1.793   0.205 -1.2141 -0.1302 -0.6017
22523SOL    HW272127   4.390   1.907   0.180 -2.1096  0.9666  0.8181
22524SOL     OW72128   7.633   2.968   3.069  0.0656 -0.2878  0.0549
22524SOL    HW172129   7.706   3.018   3.103  1.3338 -2.1566  0.1981
22524SOL    HW272130   7.647   2.879   3.101 -2.9356 -0.4971  1.1184
22525SOL     OW72131   9.275   2.451   5.063 -0.4207  0.8736 -0.0087
22525SOL    HW172132   9.224   2.522   5.023 -1.2391  0.4466  0.2403
22525SOL    HW272133   9.238   2.442   5.151 -0.5502 -0.0590 -0.1434
22526SOL     OW72134   1.876   0.148   9.450  0.0081 -0.2704  0.2690
22526SOL    HW172135   1.787   0.174   9.473  0.6738  0.7367  1.8907
22526SOL    HW272136   1.929   0.225   9.472  1.2032 -0.5538 -1.4038
22527SOL     OW72137   2.919   7.050  11.062 -0.0958  0.1737 -0.0277
22527SOL    HW172138   2.941   7.095  11.143 -2.7017  0.0828  0.8096
22527SOL    HW272139   2.926   7.119  10.995 -0.3958  0.8813  0.6536
22528SOL     OW72140   9.746   1.793   4.004  0.1186 -0.3167  0.3487
22528SOL    HW172141   9.787   1.776   4.088  1.3325  0.7373 -0.0002
22528SOL    HW272142   9.700   1.877   4.016 -1.7345 -1.3032  0.6320
22529SOL     OW72143   2.175   8.680   3.687 -0.2844  0.3836 -0.0672
22529SOL    HW172144   2.150   8.734   3.761  0.5929  1.8533 -0.7990
22529SOL    HW272145   2.268   8.660   3.702  0.1583  1.4561 -1.1758
22530SOL     OW72146  10.138   6.454   6.322  0.2193  0.3428  0.5621
22530SOL    HW172147  10.216   6.436   6.375 -0.7456 -1.2381  1.5210
22530SOL    HW272148  10.124   6.373   6.272 -1.6358  0.0090  1.5355
22531SOL     OW72149  11.526   7.494   9.448 -0.2472 -0.1789 -0.7807
22531SOL    HW172150  11.583   7.532   9.383  0.5160 -1.1349 -0.6921
22531SOL    HW272151  11.463   7.442   9.398 -0.1443 -0.2856 -0.7988
22532SOL     OW72152   8.536   4.587   1.262  0.0002 -0.4675  0.1196
22532SOL    HW172153   8.490   4.505   1.278  1.7043 -1.3050  1.1064
22532SOL    HW272154   8.491   4.627   1.188 -1.2677 -1.9823  0.0283
22533SOL     OW72155   8.527   5.093   6.660  0.2401 -0.3442  0.6072
22533SOL    HW172156   8.485   5.160   6.712  0.6055  1.7716 -1.6279
22533SOL    HW272157   8.604   5.067   6.711 -0.7273 -0.2153  2.1938
22534SOL     OW72158   4.451   9.714   7.343 -0.1979  1.0678 -0.0074
22534SOL    HW172159   4.408   9.636   7.310  0.1783  1.2874 -1.0500
22534SOL    HW272160   4.489   9.687   7.427 -1.1717  0.5035  0.2687
22535SOL     OW72161   1.411   2.302   5.041 -0.5122  0.0068  0.3918
22535SOL    HW172162   1.327   2.318   4.998 -0.4426  1.7455  0.8185
22535SOL    HW272163   1.417   2.206   5.048 -1.7562 -0.2016 -0.9739
22536SOL     OW72164   0.325   1.993   6.510 -0.7451  0.4542  0.3675
22536SOL    HW172165   0.320   1.929   6.581  0.4413  0.7905  0.7856
22536SOL    HW272166   0.280   1.952   6.436  0.4408 -1.0827  0.4661
22537SOL     OW72167   4.800   8.581   3.475 -0.4538  0.2225 -0.1137
22537SOL    HW172168   4.842   8.553   3.557 -0.3517  1.5986  0.3431
22537SOL    HW272169   4.779   8.500   3.430  1.9204 -0.5699  0.0397
22538SOL     OW72170   6.133   1.975  12.069 -0.4135 -0.2686 -0.3913
22538SOL    HW172171   6.091   2.061  12.074  0.2318  0.0136  0.4537
22538SOL    HW272172   6.060   1.913  12.060 -1.0112  0.2279  0.8260
22539SOL     OW72173  11.916   1.083   5.083  0.0324 -0.0368  0.2543
22539SOL    HW172174  11.896   1.029   5.006 -1.0431 -0.8325  1.0439
22539SOL    HW272175  11.986   1.141   5.054  3.6815 -3.9332  0.1699
22540SOL     OW72176   0.025   0.900  10.304  0.4164  0.0356  0.0647
22540SOL    HW172177   0.115   0.923  10.278  0.0249  2.3556  0.5244
22540SOL    HW272178   0.009   0.953  10.381 -0.4368 -2.4410  1.7042
22541SOL     OW72179   1.338   0.467   4.233  0.2799 -0.1027 -0.1900
22541SOL    HW172180   1.284   0.537   4.196 -0.5435  0.1775  1.4443
22541SOL    HW272181   1.416   0.511   4.266  0.7213 -0.2636 -0.9990
22542SOL     OW72182   9.912  11.563   1.590 -0.0329 -0.5461  0.1384
22542SOL    HW172183   9.857  11.641   1.593 -0.6840 -1.0129  0.3984
22542SOL    HW272184  10.000  11.597   1.572 -0.1697  0.3160  0.9972
22543SOL     OW72185   0.810   2.013   4.321  0.4231  0.1402  0.0367
22543SOL    HW172186   0.853   2.049   4.399  0.5519  1.2009 -0.5163
22543SOL    HW272187   0.751   1.946   4.356  0.5694  0.5081  1.0353
22544SOL     OW72188   0.509  10.070   6.963  0.1874  0.3496  0.0592
22544SOL    HW172189   0.578  10.051   7.027  0.8991  2.9337  0.1618
22544SOL    HW272190   0.555  10.107   6.888 -0.7548 -1.5659 -1.5411
22545SOL     OW72191   4.224  11.261   3.337  0.1878 -0.0646 -0.5614
22545SOL    HW172192   4.221  11.325   3.265 -1.3821 -0.8201 -1.2297
22545SOL    HW272193   4.315  11.232   3.339  0.1862 -0.4079 -2.6419
22546SOL     OW72194   4.416   8.593  11.265  0.3973 -0.0658  0.1682
22546SOL    HW172195   4.397   8.570  11.356 -2.5586 -0.1942 -0.3683
22546SOL    HW272196   4.383   8.683  11.256  0.7697 -0.0113 -0.7479
22547SOL     OW72197   1.702   4.273   9.923  0.3017 -0.3536 -0.2835
22547SOL    HW172198   1.746   4.241   9.844  0.5810 -0.3766 -0.1215
22547SOL    HW272199   1.702   4.368   9.913 -0.2582 -0.3885 -0.6223
22548SOL     OW72200   0.173   8.616  11.415 -0.3539 -0.2764  0.6016
22548SOL    HW172201   0.188   8.585  11.504 -0.6392  1.5667  1.3476
22548SOL    HW272202   0.080   8.600  11.399 -0.6038  0.5431  1.1535
22549SOL     OW72203   3.940   6.002   6.026 -0.1029 -0.6119 -0.3701
22549SOL    HW172204   4.019   6.050   6.000 -0.6043  1.0571  0.9579
22549SOL    HW272205   3.902   5.972   5.944  0.9320  0.1878 -1.1782
22550SOL     OW72206   3.355   9.460  11.032  0.1684 -0.3410 -0.2029
22550SOL    HW172207   3.347   9.407  11.112 -1.2021 -0.4589 -0.4030
22550SOL    HW272208   3.449   9.480  11.027  0.5802 -1.9443  0.3962
22551SOL     OW72209   7.122   8.915   9.939  0.0898  0.0143  0.2324
22551SOL    HW172210   7.046   8.944   9.989  1.3240  1.5360  1.3443
22551SOL    HW272211   7.093   8.917   9.848 -0.7192  2.3300  0.4740
22552SOL     OW72212   6.516  10.564   4.336 -0.0323  0.1892  0.5578
22552SOL    HW172213   6.443  10.574   4.274  1.7439  0.3059 -1.6635
22552SOL    HW272214   6.570  10.642   4.322  1.8541 -1.0991  0.1590
22553SOL     OW72215   9.518   8.930   7.967  0.1909 -0.0256  0.6466
22553SOL    HW172216   9.572   8.906   7.892 -1.9730  0.2641 -1.1163
22553SOL    HW272217   9.530   8.859   8.030  0.5412 -1.3016 -0.8140
22554SOL     OW72218   3.119   6.941   9.630 -0.0633 -0.5506 -0.0088
22554SOL    HW172219   3.205   6.971   9.599 -0.3352  0.8133  0.4927
22554SOL    HW272220   3.059   7.011   9.605 -0.3706  0.4537  3.1373
22555SOL     OW72221  10.351   8.931   5.661  0.5526 -0.1739  0.2590
22555SOL    HW172222  10.441   8.950   5.688  1.5296 -0.1282 -2.7087
22555SOL    HW272223  10.346   8.835   5.662 -0.4766 -0.2191  3.3926
22556SOL     OW72224   7.379   7.104  11.079  0.0041 -0.2711 -0.7821
22556SOL    HW172225   7.284   7.100  11.081  0.0366 -1.2973 -1.0003
22556SOL    HW272226   7.401   7.085  10.988  0.4107  0.2983 -0.8091
22557SOL     OW72227   0.658   3.969   0.441  0.1654  0.0514 -0.4304
22557SOL    HW172228   0.601   3.932   0.510 -1.1584  0.9312 -1.0061
22557SOL    HW272229   0.622   3.933   0.360 -0.1519  1.3225 -0.8703
22558SOL     OW72230   7.746   6.286   4.578 -0.2717  0.6932 -0.2368
22558SOL    HW172231   7.757   6.372   4.619 -0.9766 -0.2970  2.2307
22558SOL    HW272232   7.820   6.235   4.611 -1.8488 -0.6614  1.3551
22559SOL     OW72233   7.700   5.885  10.452 -0.3227  0.2064 -0.5209
22559SOL    HW172234   7.711   5.960  10.393 -0.0580 -0.4972 -1.3934
22559SOL    HW272235   7.768   5.824  10.425  1.1923  0.7113  1.9300
22560SOL     OW72236   6.343   9.106   2.788  0.4982  0.4429  0.2389
22560SOL    HW172237   6.266   9.155   2.758 -0.0390  0.3011  1.3385
22560SOL    HW272238   6.320   9.076   2.876  1.4256 -0.4659  0.1963
22561SOL     OW72239   2.991  10.192   7.959 -0.2193  0.0324  0.2353
22561SOL    HW172240   2.953  10.241   8.032 -1.7727  0.8001 -1.0242
22561SOL    HW272241   2.998  10.256   7.889 -0.4240 -1.0944 -0.8398
22562SOL     OW72242   8.843  12.043   9.191  0.4607  0.0050  0.0228
22562SOL    HW172243   8.808  11.970   9.140  0.4737  0.1112 -0.1404
22562SOL    HW272244   8.782  12.053   9.264  0.0337  0.3203 -0.3684
22563SOL     OW72245  12.012   0.966  11.440  0.1152 -0.3354 -0.2546
22563SOL    HW172246  11.942   0.904  11.460  0.0985  0.3002  1.9973
22563SOL    HW272247  11.981   1.050  11.475  0.4381  0.8361 -2.5912
22564SOL     OW72248  10.823   0.102   7.451 -0.4721 -0.5764  0.4783
22564SOL    HW172249  10.815   0.022   7.502 -1.5140 -0.9520 -0.2353
22564SOL    HW272250  10.736   0.142   7.456 -0.0647  0.3161  0.5180
22565SOL     OW72251   1.399  12.062  10.471 -0.0725 -0.5123  0.7349
22565SOL    HW172252   1.375  12.066  10.378  0.2433 -0.3076  0.6606
22565SOL    HW272253   1.319  12.090  10.516 -0.6332 -1.8125  0.5952
22566SOL     OW72254   4.378   2.356  11.858 -0.1039 -0.4284  0.3407
22566SOL    HW172255   4.317   2.292  11.894 -0.6238 -0.3850 -0.4406
22566SOL    HW272256   4.323   2.415  11.806  0.6944 -0.7907 -0.9470
22567SOL     OW72257  10.334   4.411   9.093 -0.5122 -0.3812 -0.2581
22567SOL    HW172258  10.280   4.478   9.133 -1.3187 -0.7375 -0.7275
22567SOL    HW272259  10.295   4.396   9.007 -0.6317 -1.7629  0.0066
22568SOL     OW72260  11.019   8.864   6.280 -0.6234 -0.0285  0.9992
22568SOL    HW172261  10.936   8.829   6.250  0.9137 -2.3689 -0.8945
22568SOL    HW272262  11.029   8.830   6.369 -0.8764 -1.3279  0.5490
22569SOL     OW72263   4.176   0.271  11.080 -0.2542  0.0727  0.2701
22569SOL    HW172264   4.203   0.205  11.143  3.6145 -0.3143 -1.5384
22569SOL    HW272265   4.250   0.332  11.074 -1.6572  1.7751 -1.7430
22570SOL     OW72266   6.651   3.151   1.277 -0.4942  0.1406  0.3110
22570SOL    HW172267   6.720   3.175   1.215 -0.8332 -0.6312 -0.3975
22570SOL    HW272268   6.694   3.149   1.362  0.0791  0.8371  0.0462
22571SOL     OW72269   3.282   7.076   4.969 -0.0873 -0.5226  0.0398
22571SOL    HW172270   3.280   7.106   5.059  0.4207  0.5205 -0.2846
22571SOL    HW272271   3.253   6.985   4.973 -1.0346 -0.1877  1.1286
22572SOL     OW72272   3.755   3.373   5.155  0.5825  0.3566 -0.3624
22572SOL    HW172273   3.754   3.330   5.241  0.5587 -2.0137 -1.4905
22572SOL    HW272274   3.847   3.372   5.129  0.7979  2.2956  0.1515
22573SOL     OW72275   6.533   4.221   9.213 -0.0522 -0.5671  0.2950
22573SOL    HW172276   6.555   4.291   9.273 -1.8489 -0.5711  1.0145
22573SOL    HW272277   6.495   4.153   9.268 -0.4127 -1.1671 -0.6682
22574SOL     OW72278  11.064   0.704   5.805  0.2293 -0.0104 -0.0331
22574SOL    HW172279  11.117   0.714   5.884 -1.3717  0.3125  1.0545
22574SOL    HW272280  10.989   0.763   5.819 -2.1020 -2.7610 -0.0107
22575SOL     OW72281   1.827  10.927  10.448 -0.3343  0.2668 -0.0056
22575SOL    HW172282   1.752  10.887  10.404 -0.8894  0.2050  0.9774
22575SOL    HW272283   1.802  11.018  10.461 -0.2619  0.2289  0.3859
22576SOL     OW72284  12.125  10.076   0.617 -0.2648 -0.0399 -0.2699
22576SOL    HW172285  12.176  10.127   0.680  0.5565 -1.2902  0.1065
22576SOL    HW272286  12.057  10.034   0.669  0.1883 -0.7826 -0.2691
22577SOL     OW72287   7.253  11.600   8.752  0.0449  1.1563 -0.3738
22577SOL    HW172288   7.214  11.604   8.840 -0.2436  0.3480 -0.4587
22577SOL    HW272289   7.219  11.677   8.707 -0.7220  0.9645 -0.1370
22578SOL     OW72290   0.289   7.250   3.217  0.1647  0.9199  0.6415
22578SOL    HW172291   0.373   7.249   3.172 -1.1935  0.2570 -2.0997
22578SOL    HW272292   0.270   7.158   3.234 -1.3795  0.7377 -1.6917
22579SOL     OW72293  10.225   4.831   1.942  0.0328 -0.2725  0.1135
22579SOL    HW172294  10.228   4.806   1.849 -0.5061 -0.9720  0.2766
22579SOL    HW272295  10.171   4.910   1.944  3.3277  2.1986 -0.6606
22580SOL     OW72296  11.253  11.035  10.585 -0.4908  0.2988 -0.4686
22580SOL    HW172297  11.271  11.125  10.559  0.0640  0.2404 -0.2914
22580SOL    HW272298  11.335  11.004  10.624 -0.7117 -0.2465 -0.4298
22581SOL     OW72299   9.216  10.979   1.075  0.1963 -0.1139  0.2520
22581SOL    HW172300   9.134  11.003   1.032  0.8925 -0.9028 -1.6631
22581SOL    HW272301   9.209  10.885   1.088  0.6382 -0.1224  0.4321
22582SOL     OW72302   0.383   0.517   0.792 -0.0692 -0.5472  0.4725
22582SOL    HW172303   0.302   0.531   0.742  0.5652  0.5729 -0.2934
22582SOL    HW272304   0.422   0.438   0.753 -0.5578 -0.8214  0.5327
22583SOL     OW72305  10.234   7.468   1.245  0.0766  0.0149 -0.4943
22583SOL    HW172306  10.163   7.530   1.230 -0.2321 -0.1936  0.0726
22583SOL    HW272307  10.238   7.416   1.165  0.6820  1.0827 -1.1874
22584SOL     OW72308   6.313   0.449  10.432 -0.3564  0.2559 -0.3159
22584SOL    HW172309   6.404   0.439  10.404  0.2707  0.1551  1.5896
22584SOL    HW272310   6.287   0.536  10.401 -0.0459 -0.1880 -1.9182
22585SOL     OW72311  10.647   2.150   5.052  0.7167 -0.1603  0.5996
22585SOL    HW172312  10.637   2.055   5.046 -0.0858 -0.1404  1.4480
22585SOL    HW272313  10.612   2.183   4.969  2.1382 -0.6579 -0.2372
22586SOL     OW72314  10.631   3.651   8.941  0.7519 -0.0805  0.3608
22586SOL    HW172315  10.565   3.650   8.871 -1.4475 -1.4979  2.3032
22586SOL    HW272316  10.676   3.567   8.933 -0.7858 -1.0886  1.6844
22587SOL     OW72317   0.997   5.060   5.223 -0.0948  0.9459 -0.1823
22587SOL    HW172318   1.046   5.084   5.145 -0.3814  1.1088 -0.3148
22587SOL    HW272319   1.009   5.133   5.283 -0.5921  1.2176 -0.4103
22588SOL     OW72320   9.121   1.127   6.908  0.0052  0.5193  0.4162
22588SOL    HW172321   9.136   1.159   6.996  0.7884 -0.5794  0.7074
22588SOL    HW272322   9.204   1.139   6.862 -0.2287  0.5786 -0.0042
22589SOL     OW72323  10.208   2.145  10.479 -0.1694 -0.1962 -0.0082
22589SOL    HW172324  10.270   2.213  10.453 -0.6264  0.6797  1.0794
22589SOL    HW272325  10.124   2.190  10.485 -0.1320 -0.3095  2.7669
22590SOL     OW72326   7.669   8.924  10.605 -0.4014  0.1894 -0.2588
22590SOL    HW172327   7.667   8.966  10.519 -0.4408 -0.3823 -0.5459
22590SOL    HW272328   7.619   8.843  10.593  1.3128 -0.9339 -0.2690
22591SOL     OW72329   5.359   7.606  10.952 -0.1482  0.6284  0.7236
22591SOL    HW172330   5.412   7.544  11.003 -0.7039  0.3473  0.9769
22591SOL    HW272331   5.401   7.691  10.966  0.4926  0.3448  0.5540
22592SOL     OW72332   8.651   7.626   4.444 -0.1222 -0.1529 -0.2584
22592SOL    HW172333   8.640   7.666   4.530 -0.3224  0.4288 -0.5544
22592SOL    HW272334   8.711   7.684   4.398 -2.1181  1.0410 -1.4695
22593SOL     OW72335   2.713  11.815   5.990 -0.4980  0.0854 -0.1832
22593SOL    HW172336   2.728  11.810   5.896  0.2410 -0.7064 -0.0358
22593SOL    HW272337   2.790  11.774   6.029 -0.8767  0.2461  0.7645
22594SOL     OW72338   9.641   3.720   2.581 -0.0092  0.2400  0.1518
22594SOL    HW172339   9.657   3.627   2.563  0.4066  0.2227  0.5979
22594SOL    HW272340   9.633   3.725   2.676  1.6391  0.9084  0.2890
22595SOL     OW72341   2.753  11.109  10.899  0.1856  0.0644  0.3342
22595SOL    HW172342   2.794  11.181  10.946  0.3989  1.0040 -1.2012
22595SOL    HW272343   2.664  11.139  10.881 -0.1967 -0.6704  0.9405
22596SOL     OW72344   8.111  11.386   7.398 -0.2848 -0.6361  0.5326
22596SOL    HW172345   8.099  11.312   7.458  0.8063  0.3492  2.0276
22596SOL    HW272346   8.160  11.450   7.448 -0.9715  1.0217 -0.8199
22597SOL     OW72347   6.698   9.338   4.164  0.2281 -0.2422 -0.2050
22597SOL    HW172348   6.730   9.306   4.080  0.8780 -1.0158  0.3200
22597SOL    HW272349   6.749   9.418   4.180  1.3852 -1.0519  0.2641
22598SOL     OW72350  11.627   4.200   3.781 -0.1545 -0.4586 -0.3339
22598SOL    HW172351  11.699   4.197   3.844  1.1033 -0.4298 -1.6964
22598SOL    HW272352  11.660   4.255   3.710 -2.2345  1.0710 -0.2188
22599SOL     OW72353   9.498   4.891   9.033  0.1797 -0.1543  0.1259
22599SOL    HW172354   9.495   4.912   8.939 -2.4669  1.1951  0.4178
22599SOL    HW272355   9.448   4.810   9.041 -0.1746  0.0965  0.4421
22600SOL     OW72356   1.351   4.062   4.044 -0.1760 -0.0558  0.4146
22600SOL    HW172357   1.340   4.018   4.128 -1.7951  2.1644  1.4657
22600SOL    HW272358   1.266   4.052   4.001 -0.0124  0.5620 -0.0668
22601SOL     OW72359   0.832   7.522   4.981 -0.1425 -0.0123 -0.2255
22601SOL    HW172360   0.874   7.605   4.957 -1.1770 -0.1646 -2.9034
22601SOL    HW272361   0.824   7.526   5.076  0.7797  2.4939 -0.1684
22602SOL     OW72362  10.083   1.391  11.561 -0.2111  0.3212  0.1369
22602SOL    HW172363  10.055   1.467  11.612  0.2159  0.4004  0.2595
22602SOL    HW272364  10.062   1.413  11.471  1.4985  1.3428 -0.0485
22603SOL     OW72365   1.994   7.232   8.474  0.2086 -0.1545  0.1006
22603SOL    HW172366   2.070   7.194   8.432 -0.6147 -1.5662 -0.1947
22603SOL    HW272367   2.013   7.325   8.481  0.1271  0.3383 -4.0032
22604SOL     OW72368   8.644  10.908  10.804 -0.2002 -0.0126 -0.2287
22604SOL    HW172369   8.666  10.830  10.754  1.1483  1.6968 -2.5618
22604SOL    HW272370   8.659  10.884  10.896  0.5827 -2.3227 -0.9027
22605SOL     OW72371   1.387   0.105  12.037 -0.6231 -0.1110 -0.3542
22605SOL    HW172372   1.389   0.201  12.031  1.3519 -0.1819 -2.1203
22605SOL    HW272373   1.357   0.087  12.126  1.6374  2.2206  1.0356
22606SOL     OW72374   1.154   0.579   8.759 -0.2894  0.1852 -0.0255
22606SOL    HW172375   1.128   0.639   8.689  1.3275 -0.1512 -0.9554
22606SOL    HW272376   1.206   0.512   8.715 -1.0562 -1.2628  1.1784
22607SOL     OW72377  10.539   8.829   9.880  0.5278  0.0297 -0.6743
22607SOL    HW172378  10.521   8.751   9.828 -3.3277 -0.6381  1.2876
22607SOL    HW272379  10.559   8.796   9.967  2.6193  1.2363 -0.6335
22608SOL     OW72380  10.782   8.840  12.119  0.3441  0.2994 -0.4540
22608SOL    HW172381  10.720   8.803  12.183  2.6165 -2.0602  0.5387
22608SOL    HW272382  10.842   8.891  12.172  1.3562 -0.4314 -0.8737
22609SOL     OW72383   3.879   1.769   9.177  0.8034 -0.1934  0.3643
22609SOL    HW172384   3.828   1.712   9.236  0.6050 -0.5888 -0.1792
22609SOL    HW272385   3.967   1.733   9.180  0.5512 -0.9106 -0.4362
22610SOL     OW72386   1.427  10.795   7.724  0.0364 -0.5076  0.1003
22610SOL    HW172387   1.522  10.797   7.713 -0.0399 -2.0378 -1.2338
22610SOL    HW272388   1.399  10.884   7.703  1.1012 -0.2359 -0.2555
22611SOL     OW72389   6.614  11.763  10.217  0.0374  0.3371 -0.0768
22611SOL    HW172390   6.528  11.724  10.203 -0.0368  0.7839 -0.9205
22611SOL    HW272391   6.652  11.770  10.130  1.0510 -0.1177  0.3100
22612SOL     OW72392   6.944   0.285   5.089 -0.4094  0.0143  0.0582
22612SOL    HW172393   6.899   0.337   5.022 -1.4667 -1.7982 -0.7184
22612SOL    HW272394   6.921   0.194   5.068  1.8226 -0.8333  1.0057
22613SOL     OW72395  11.357   1.795   4.658  0.8475 -0.1063 -0.3889
22613SOL    HW172396  11.443   1.827   4.687  0.6966  2.7401 -2.6584
22613SOL    HW272397  11.321   1.867   4.606 -2.8677 -1.2898  0.2709
22614SOL     OW72398  10.302   7.162   9.747  0.6683  0.4803 -0.3841
22614SOL    HW172399  10.349   7.080   9.738 -0.2445  0.1052 -1.9560
22614SOL    HW272400  10.209   7.139   9.738  0.2735  1.4726  0.7383
22615SOL     OW72401   2.619   0.792   8.609 -0.1061 -0.7769  0.4583
22615SOL    HW172402   2.676   0.793   8.685 -0.1165  0.2778  0.4749
22615SOL    HW272403   2.532   0.808   8.644 -0.1924 -0.8775  0.2895
22616SOL     OW72404  11.083   5.465   9.127  0.4794  0.2746 -0.4589
22616SOL    HW172405  11.034   5.537   9.087 -0.7590 -0.0996  0.3238
22616SOL    HW272406  11.078   5.394   9.064  0.1718  0.3000 -0.4614
22617SOL     OW72407  11.259   4.077  10.640 -0.3419  0.4137  0.7910
22617SOL    HW172408  11.177   4.124  10.655  0.5605  2.2292  0.3456
22617SOL    HW272409  11.312   4.097  10.717 -0.0787 -0.2466  0.7914
22618SOL     OW72410   5.966   9.761  11.742 -0.4954  0.3262 -0.3866
22618SOL    HW172411   6.046   9.743  11.691  0.0453  2.0237 -0.2043
22618SOL    HW272412   5.897   9.712  11.697  0.7478 -1.8316 -0.0962
22619SOL     OW72413   4.925   3.759   2.051 -0.4750 -0.1722 -0.5043
22619SOL    HW172414   4.974   3.797   1.977  2.6760  0.8091  1.8692
22619SOL    HW272415   4.938   3.665   2.042 -2.9042 -0.4133 -2.8634
22620SOL     OW72416  10.878   3.383   5.701 -0.0093  0.2591 -0.2065
22620SOL    HW172417  10.791   3.352   5.673  0.5014 -1.0774 -0.3801
22620SOL    HW272418  10.938   3.347   5.636  0.8568 -0.2508  0.8540
22621SOL     OW72419   3.852   1.026   1.898  0.1927 -0.2748  0.2862
22621SOL    HW172420   3.880   1.113   1.869 -0.9893  0.3051  0.8266
22621SOL    HW272421   3.921   0.998   1.958  0.5359  0.3331  0.1900
22622SOL     OW72422   6.628   2.924  10.535 -0.3857 -0.1604  0.0557
22622SOL    HW172423   6.568   2.898  10.605 -0.4931  0.0594  0.0461
22622SOL    HW272424   6.626   2.851  10.474 -0.3549 -0.3180  0.2401
22623SOL     OW72425   6.594   7.558   1.504  0.2835  0.2696 -0.3505
22623SOL    HW172426   6.666   7.551   1.567 -2.6149  0.5465  3.3645
22623SOL    HW272427   6.587   7.651   1.485 -0.8945  0.6881  1.8166
22624SOL     OW72428   0.666  10.975   6.561 -0.3454  0.3974  0.1017
22624SOL    HW172429   0.758  10.976   6.588 -0.7861 -0.1883  1.7343
22624SOL    HW272430   0.666  10.931   6.476  1.0403  1.7679 -0.6755
22625SOL     OW72431   5.033   5.098   7.831 -0.0583 -0.2895 -0.3758
22625SOL    HW172432   5.005   5.019   7.784  0.2651 -2.0336  2.1212
22625SOL    HW272433   4.952   5.145   7.849 -0.5747 -1.4042  0.3009
22626SOL     OW72434  10.661   7.992   4.908 -0.1017 -0.5331 -0.7608
22626SOL    HW172435  10.663   8.053   4.834 -0.0583 -0.9940 -1.1463
22626SOL    HW272436  10.614   8.040   4.977 -0.5828 -0.2784 -1.2534
22627SOL     OW72437   3.215   0.140   7.738 -0.0238  0.3875 -0.6608
22627SOL    HW172438   3.177   0.161   7.823  0.1508  0.2649 -0.5547
22627SOL    HW272439   3.235   0.047   7.742  2.8542  0.9631  0.2887
22628SOL     OW72440   3.915   2.464  12.051 -0.8355  0.2928 -0.3930
22628SOL    HW172441   3.986   2.471  11.988 -0.4617  0.1725  0.0152
22628SOL    HW272442   3.901   2.370  12.062  1.0889  0.1971  1.9066
22629SOL     OW72443   9.759   4.729   5.431 -0.2233 -0.0290 -0.6945
22629SOL    HW172444   9.767   4.713   5.337 -1.6005 -0.1774 -0.8099
22629SOL    HW272445   9.744   4.642   5.468 -3.7401  0.3890 -0.8487
22630SOL     OW72446   0.269   7.926   8.248  0.5511 -0.0103 -0.0262
22630SOL    HW172447   0.184   7.968   8.246 -0.6460 -2.2655 -0.4240
22630SOL    HW272448   0.277   7.885   8.162  1.2690 -1.2053  0.5793
22631SOL     OW72449  10.008  11.305   2.408 -0.2604 -0.1436  0.3638
22631SOL    HW172450  10.039  11.271   2.492 -1.0063 -2.1668 -0.1168
22631SOL    HW272451  10.040  11.395   2.405  1.5700 -0.6880  1.8683
22632SOL     OW72452   1.812   8.054   5.955  0.2964 -0.0934 -0.7470
22632SOL    HW172453   1.835   7.961   5.958  0.7610  0.0399  0.1616
22632SOL    HW272454   1.841   8.083   5.868 -0.3609 -0.9162 -1.2578
22633SOL     OW72455   0.774   9.139  10.966  0.2066  0.1123 -0.0761
22633SOL    HW172456   0.836   9.074  10.934 -0.8418 -0.0873 -1.8447
22633SOL    HW272457   0.818   9.180  11.040  1.5298 -1.5112  0.0928
22634SOL     OW72458   5.045  10.438   0.510 -0.4360 -0.1690 -0.5802
22634SOL    HW172459   5.112  10.461   0.446 -0.9962 -0.4636 -1.2812
22634SOL    HW272460   5.061  10.497   0.584  0.6614 -0.3110 -0.6880
22635SOL     OW72461   8.601   1.523   1.542  0.3917 -0.3592 -0.0844
22635SOL    HW172462   8.658   1.574   1.599 -1.4753  0.1571  1.4528
22635SOL    HW272463   8.602   1.571   1.458  0.2668  1.0764  0.6957
22636SOL     OW72464   3.896   8.190   1.034  0.0980 -0.2783  0.1318
22636SOL    HW172465   3.819   8.161   1.083  0.6564  0.2029  1.3246
22636SOL    HW272466   3.892   8.285   1.035  0.1276 -0.2598 -0.7618
22637SOL     OW72467   8.345   4.612   5.505 -0.1587 -0.5810  0.7434
22637SOL    HW172468   8.438   4.597   5.523  0.0992  0.2170  0.1882
22637SOL    HW272469   8.339   4.607   5.409 -0.6844 -0.6097  0.7778
22638SOL     OW72470   4.279  10.826   1.185  0.1275 -0.6282 -0.2752
22638SOL    HW172471   4.341  10.762   1.150  0.9806 -1.0164  1.7995
22638SOL    HW272472   4.269  10.890   1.115  4.1496  0.3440 -0.2067
22639SOL     OW72473   9.136   2.013   8.877 -0.0931 -0.0520  0.2598
22639SOL    HW172474   9.211   2.010   8.819  0.3399 -0.1863  0.8215
22639SOL    HW272475   9.170   2.051   8.958 -0.1245 -2.0181  1.2564
22640SOL     OW72476   8.315   5.097   7.315  0.4168  0.7101  0.1859
22640SOL    HW172477   8.405   5.068   7.326  0.2996  0.7488  1.3900
22640SOL    HW272478   8.266   5.017   7.298  0.3256  0.3580  1.9720
22641SOL     OW72479   5.468   6.969   6.153  0.3546 -0.4929 -0.8093
22641SOL    HW172480   5.549   7.003   6.192  0.0309  0.4298 -0.9015
22641SOL    HW272481   5.497   6.918   6.078  0.8914 -0.7873 -0.4085
22642SOL     OW72482   7.626   2.110   8.238  0.9166 -0.2305 -0.7345
22642SOL    HW172483   7.720   2.094   8.238  0.7330 -1.5018 -1.1595
22642SOL    HW272484   7.596   2.079   8.323  0.5622 -2.3684 -1.5509
22643SOL     OW72485   4.670   3.628   6.775  0.2370  0.1792  0.3989
22643SOL    HW172486   4.595   3.601   6.829 -0.1106  0.6137  0.1479
22643SOL    HW272487   4.646   3.716   6.745  0.4776 -0.0123 -0.3693
22644SOL     OW72488   0.590  11.049  11.127  0.5537  0.2800  0.2732
22644SOL    HW172489   0.674  11.049  11.081  0.5966 -0.9903  0.3277
22644SOL    HW272490   0.537  11.114  11.080  0.4070 -1.3551 -1.9641
22645SOL     OW72491   1.979   7.032  10.503 -0.1822 -0.6523  0.6425
22645SOL    HW172492   2.069   7.012  10.527 -0.2511 -1.0931  0.5351
22645SOL    HW272493   1.979   7.126  10.485  0.8043 -1.0319 -1.7088
22646SOL     OW72494   9.573   5.587   3.939 -0.4223  0.1516  0.4089
22646SOL    HW172495   9.479   5.593   3.925 -0.3009  0.5861 -0.2652
22646SOL    HW272496   9.582   5.546   4.024 -1.2082 -3.0166 -0.8996
22647SOL     OW72497   4.748  10.534  11.348  0.2218  0.4143 -0.1460
22647SOL    HW172498   4.712  10.475  11.282 -0.2996  1.8570 -1.2331
22647SOL    HW272499   4.697  10.515  11.427  0.5769 -1.0660 -0.2508
22648SOL     OW72500   8.303   9.174   7.099  0.2168 -0.5194 -0.1205
22648SOL    HW172501   8.307   9.126   7.181  0.5404 -2.1044 -1.0307
22648SOL    HW272502   8.367   9.131   7.043 -0.2391  0.3142 -1.3159
22649SOL     OW72503   9.018   3.275   4.183 -0.5613  0.0390 -0.4770
22649SOL    HW172504   9.013   3.207   4.115  1.4159  0.0383 -0.6862
22649SOL    HW272505   9.037   3.356   4.135 -0.1723  0.2285 -0.0128
22650SOL     OW72506   5.778   0.115   2.835  0.2799 -0.3039 -0.6777
22650SOL    HW172507   5.683   0.115   2.830  0.1006 -0.8865  1.6469
22650SOL    HW272508   5.798   0.109   2.929  2.5937 -2.4645 -1.1717
22651SOL     OW72509   9.706   0.797   5.324 -0.0235  0.1219  0.0747
22651SOL    HW172510   9.800   0.783   5.336  0.0301  1.9168  2.5360
22651SOL    HW272511   9.699   0.885   5.288 -0.7746 -0.0992 -0.3410
22652SOL     OW72512  11.354   7.385   7.768  0.1371  0.0856  0.2429
22652SOL    HW172513  11.360   7.389   7.673  1.4278  0.2471  0.3134
22652SOL    HW272514  11.305   7.464   7.792 -0.1190  0.0853 -0.2755
22653SOL     OW72515   5.707   7.482   3.066 -0.0365  0.4844 -0.4068
22653SOL    HW172516   5.652   7.417   3.109  0.2699  0.8339  0.5524
22653SOL    HW272517   5.770   7.509   3.134 -1.2192  3.0378 -0.1949
22654SOL     OW72518   0.218   9.310   2.012 -0.1971  0.0783 -0.0519
22654SOL    HW172519   0.184   9.350   1.932 -0.6568 -1.6528 -0.7606
22654SOL    HW272520   0.202   9.216   2.000  0.7203 -0.3113  1.6017
22655SOL     OW72521  11.882   9.319   8.692  0.6371  0.3669 -0.5947
22655SOL    HW172522  11.924   9.286   8.772  1.9712  1.0594 -0.9908
22655SOL    HW272523  11.802   9.363   8.724  1.4711  1.1794  0.4387
22656SOL     OW72524   4.508   5.359   4.659  0.0181  0.4255  0.1009
22656SOL    HW172525   4.430   5.313   4.690  0.0856  0.0813 -0.2312
22656SOL    HW272526   4.533   5.313   4.579  0.0218  1.1158 -0.3043
22657SOL     OW72527   7.427   6.646   0.132 -0.8723  0.2666  0.2074
22657SOL    HW172528   7.405   6.684   0.047 -1.9640  0.5261  0.5918
22657SOL    HW272529   7.478   6.714   0.176  1.1234 -0.4749 -0.8253
22658SOL     OW72530   3.149  10.444   3.515 -0.0736 -0.0048  0.0419
22658SOL    HW172531   3.074  10.492   3.479  1.0230  2.4945  0.8933
22658SOL    HW272532   3.129  10.433   3.607  0.6807  0.9683  0.3476
22659SOL     OW72533   6.133   1.468   7.210  0.3306 -0.0526 -0.0784
22659SOL    HW172534   6.158   1.526   7.282  1.0065 -0.2491 -0.1498
22659SOL    HW272535   6.172   1.508   7.132  1.0158 -0.7286 -0.0925
22660SOL     OW72536   2.599   0.635   9.451 -0.3244 -0.1153 -0.0903
22660SOL    HW172537   2.629   0.621   9.361  0.3425  0.3256  0.0625
22660SOL    HW272538   2.579   0.547   9.484  0.5471 -0.3867 -0.2823
22661SOL     OW72539  10.620   6.273   8.461  0.2443 -0.4120 -0.4252
22661SOL    HW172540  10.531   6.297   8.434  0.7662 -0.4376 -2.3273
22661SOL    HW272541  10.628   6.180   8.436  0.9116 -0.3093 -0.6203
22662SOL     OW72542   8.649   8.332  10.411 -0.1151 -0.0855 -0.5454
22662SOL    HW172543   8.630   8.426  10.406 -0.1987  0.0158  1.1578
22662SOL    HW272544   8.717   8.325  10.478 -0.2039 -1.2595 -0.5610
22663SOL     OW72545   4.464   6.735   8.579  0.3209  0.0138 -0.0436
22663SOL    HW172546   4.509   6.703   8.657  0.0452  0.2989  0.2390
22663SOL    HW272547   4.424   6.818   8.607  0.4201  0.2400 -0.5563
22664SOL     OW72548   0.444   9.455   0.829 -0.3969  0.4632  0.1711
22664SOL    HW172549   0.507   9.517   0.793 -1.7754  2.1763  0.5658
22664SOL    HW272550   0.479   9.369   0.806  3.1514  1.1844  2.0873
22665SOL     OW72551  10.914   2.041   5.243  0.2545  0.0780 -0.1325
22665SOL    HW172552  10.873   2.125   5.264 -0.2853 -0.2191  0.0447
22665SOL    HW272553  10.866   1.977   5.297 -0.2181 -0.5127 -1.2117
22666SOL     OW72554   2.698   1.726   9.165 -0.0711 -0.4287 -0.1390
22666SOL    HW172555   2.646   1.694   9.239 -0.6885  0.2958 -0.2490
22666SOL    HW272556   2.787   1.731   9.199  0.1191 -2.5429 -0.2170
22667SOL     OW72557  11.381   3.133   2.480 -0.3583  0.1948  0.2786
22667SOL    HW172558  11.430   3.174   2.408  1.3000 -0.3223  1.0556
22667SOL    HW272559  11.308   3.193   2.497  1.9904  2.9681  1.4244
22668SOL     OW72560   7.562   6.348  11.228 -0.3721 -0.7906  0.0894
22668SOL    HW172561   7.612   6.282  11.276  0.2564  0.7193  1.6456
22668SOL    HW272562   7.503   6.298  11.173  1.1086 -2.6520  0.0605
22669SOL     OW72563   3.335   7.165   2.241  0.4919 -0.1316 -0.1309
22669SOL    HW172564   3.261   7.206   2.197  1.0899  1.0788 -0.0397
22669SOL    HW272565   3.412   7.204   2.200  1.0687 -0.2972  0.7767
22670SOL     OW72566   0.074   0.231  10.185  0.2618  0.6733  0.1543
22670SOL    HW172567   0.070   0.306  10.126 -1.5314 -0.2957 -1.0358
22670SOL    HW272568   0.113   0.161  10.133  1.1161  0.5145  0.9838
22671SOL     OW72569   0.376   0.311   9.050 -0.2308  0.1991  0.3867
22671SOL    HW172570   0.436   0.364   9.103  0.4989 -2.6895  2.6889
22671SOL    HW272571   0.430   0.241   9.014 -1.6682 -0.7316 -0.0528
22672SOL     OW72572   8.388   9.452   2.230 -0.0443 -0.1611 -0.2982
22672SOL    HW172573   8.462   9.495   2.272  0.7108  0.6423 -2.3011
22672SOL    HW272574   8.321   9.520   2.222 -0.6282 -0.6167  0.6087
22673SOL     OW72575   1.714   3.532   8.638  0.1775 -0.2944  0.4455
22673SOL    HW172576   1.725   3.619   8.677 -1.1603 -1.5117  3.9375
22673SOL    HW272577   1.794   3.485   8.662 -0.4354 -0.9068  1.3577
22674SOL     OW72578   0.411   2.192   6.685 -0.0203  0.2524 -0.3799
22674SOL    HW172579   0.333   2.218   6.733 -0.4782 -1.8907  0.1452
22674SOL    HW272580   0.380   2.126   6.623  0.5838  2.7294 -3.5881
22675SOL     OW72581   6.236   0.761   3.264  0.2968 -0.2311  0.0005
22675SOL    HW172582   6.287   0.680   3.268 -0.9551 -0.9927  2.0257
22675SOL    HW272583   6.146   0.732   3.251 -0.0456  0.9033 -0.2490
22676SOL     OW72584   2.780   3.621   0.503  0.8572 -0.4479  0.3643
22676SOL    HW172585   2.809   3.537   0.467  0.0627  0.0684 -1.6137
22676SOL    HW272586   2.694   3.602   0.540  0.3585 -0.3800 -0.7283
22677SOL     OW72587   1.668   0.412   9.363 -0.3947 -0.2961  0.0378
22677SOL    HW172588   1.713   0.390   9.281  1.8191 -1.8416  1.5455
22677SOL    HW272589   1.712   0.492   9.394 -0.7446 -0.1086  0.0510
22678SOL     OW72590   4.513   2.577   5.490 -0.1540  0.0123  0.1220
22678SOL    HW172591   4.572   2.635   5.537  1.8246 -1.1307 -0.8474
22678SOL    HW272592   4.545   2.489   5.509 -2.0045 -0.7134  0.1353
22679SOL     OW72593   0.722   9.152   7.336  0.2981  0.1748 -0.0425
22679SOL    HW172594   0.774   9.216   7.288  1.2339 -1.5641 -1.4983
22679SOL    HW272595   0.631   9.178   7.322  0.6016  0.3927 -1.8135
22680SOL     OW72596   6.259   2.106   8.529  0.1336 -0.0267  0.2079
22680SOL    HW172597   6.305   2.148   8.457 -0.2121 -0.1325 -0.0780
22680SOL    HW272598   6.183   2.162   8.545 -0.1466 -0.3585  0.0509
22681SOL     OW72599  11.979   3.647   3.035 -0.2971 -0.3059  0.0834
22681SOL    HW172600  12.023   3.727   3.063  0.7449 -0.8546  0.0600
22681SOL    HW272601  12.043   3.578   3.048 -1.2182 -1.1665  0.2040
22682SOL     OW72602  10.166   4.150   4.834  0.5800 -0.0472  0.7646
22682SOL    HW172603  10.215   4.198   4.768 -0.1724  1.1244  1.0163
22682SOL    HW272604  10.074   4.169   4.815  0.3611  1.5614  2.9606
22683SOL     OW72605   2.819  11.807   1.381 -0.0029 -0.2634  0.3842
22683SOL    HW172606   2.763  11.742   1.339 -0.2040  0.8094 -1.1047
22683SOL    HW272607   2.760  11.859   1.435 -0.1119 -0.3377  0.3362
22684SOL     OW72608   7.188   4.803   5.798  0.4842  0.4950 -0.0993
22684SOL    HW172609   7.159   4.819   5.708  0.9718  0.5151 -0.2569
22684SOL    HW272610   7.143   4.722   5.824 -0.8184  1.2829  0.1704
22685SOL     OW72611   0.504   6.131   2.675  0.2302  0.3105 -0.1662
22685SOL    HW172612   0.561   6.194   2.630 -0.4104  1.7106  0.8787
22685SOL    HW272613   0.556   6.051   2.682  1.3990  0.9937 -0.8002
22686SOL     OW72614   5.102   3.486   0.150 -0.7081  0.0746  0.1092
22686SOL    HW172615   5.042   3.414   0.132 -1.3479  0.4559  0.6657
22686SOL    HW272616   5.099   3.497   0.245 -0.2437  0.5112  0.0783
22687SOL     OW72617   7.513   3.014   7.175  0.2907 -0.2771 -0.7382
22687SOL    HW172618   7.564   2.938   7.203  0.5722 -0.3838 -1.5274
22687SOL    HW272619   7.462   3.038   7.252  2.0816  0.2960  0.3112
22688SOL     OW72620  11.856  10.728  10.384 -0.6820  0.4303  0.7140
22688SOL    HW172621  11.926  10.792  10.371 -0.5915  0.3249  0.6861
22688SOL    HW272622  11.807  10.761  10.460 -2.7612  2.4373 -1.3059
22689SOL     OW72623   1.815  11.365   5.522 -0.2360  0.0940  0.4120
22689SOL    HW172624   1.741  11.362   5.582  1.3956 -2.1137  2.4723
22689SOL    HW272625   1.875  11.428   5.562  1.1651 -1.9050  1.5931
22690SOL     OW72626   9.308   9.861   8.928  0.2449  0.5478 -0.1639
22690SOL    HW172627   9.402   9.870   8.912  0.8121 -2.8756  0.4684
22690SOL    HW272628   9.267   9.881   8.844  1.7508 -0.0620 -1.0921
22691SOL     OW72629   5.611   0.632   1.292 -0.3941  0.3331  0.0804
22691SOL    HW172630   5.555   0.709   1.283 -1.1019  0.0078  1.3750
22691SOL    HW272631   5.553   0.563   1.322  0.7821  0.1995  2.3014
22692SOL     OW72632   9.826   4.825   0.996 -0.4407  0.9279  0.5712
22692SOL    HW172633   9.809   4.773   0.917 -1.2805  1.0258  0.6704
22692SOL    HW272634   9.738   4.847   1.029 -0.1510  3.5989 -0.2291
22693SOL     OW72635  10.351   5.622   2.719  0.1491 -0.2970  0.2836
22693SOL    HW172636  10.330   5.675   2.643  0.6728 -0.1707  0.2222
22693SOL    HW272637  10.437   5.586   2.700  0.4581  0.0529  0.9877
22694SOL     OW72638   2.560   4.996  10.511  0.4925 -0.0937  0.2519
22694SOL    HW172639   2.553   4.918  10.565  0.5304 -0.2845 -0.0195
22694SOL    HW272640   2.653   5.004  10.490  0.4351 -0.1961 -0.0454
22695SOL     OW72641   0.743   2.259   9.067  0.2354  0.5634  0.3167
22695SOL    HW172642   0.670   2.306   9.109 -2.0629 -1.4866 -1.0994
22695SOL    HW272643   0.770   2.317   8.995  0.8600  1.8565  1.5349
22696SOL     OW72644   6.614   1.516   5.416  0.2808  0.0739  0.0333
22696SOL    HW172645   6.685   1.474   5.465 -0.3043 -0.8166  0.1319
22696SOL    HW272646   6.659   1.570   5.350  1.0571  0.2507  0.6843
22697SOL     OW72647   5.873   5.536   2.157 -0.1459 -0.0699 -0.4149
22697SOL    HW172648   5.813   5.463   2.143  1.0037 -1.3801  1.0395
22697SOL    HW272649   5.822   5.601   2.205 -1.3573  0.4008 -2.2464
22698SOL     OW72650   5.134   5.945   6.588 -0.6296  0.7094 -0.0553
22698SOL    HW172651   5.068   5.980   6.649  1.2032  0.2302  2.3716
22698SOL    HW272652   5.091   5.871   6.546 -1.6126  0.2682  1.6299
22699SOL     OW72653   3.551   2.503   2.048 -0.2318 -0.1331  0.0438
22699SOL    HW172654   3.559   2.432   1.984  0.2110 -1.0635  1.1112
22699SOL    HW272655   3.491   2.470   2.114  1.2222 -0.1912  1.4046
22700SOL     OW72656   7.252   9.927   9.953 -0.3416  0.0419 -0.2588
22700SOL    HW172657   7.199   9.960   9.880 -1.5033 -1.1721  0.0050
22700SOL    HW272658   7.259   9.833   9.936  0.9898  0.0355  0.2059
22701SOL     OW72659   5.924   0.014   6.865 -0.4224 -0.6236 -0.1119
22701SOL    HW172660   6.001   0.069   6.879 -1.2396  0.1387  1.7485
22701SOL    HW272661   5.920   0.002   6.770  0.3178  1.7675 -0.5209
22702SOL     OW72662   7.240   8.115   8.194  0.1450 -0.0513  0.4001
22702SOL    HW172663   7.172   8.054   8.221 -0.9693  1.2510  0.6525
22702SOL    HW272664   7.281   8.143   8.275  0.9957 -0.8262  0.2488
22703SOL     OW72665  10.464   4.422   7.821  0.1946 -0.1093 -0.4987
22703SOL    HW172666  10.421   4.340   7.845 -2.1363  1.1606 -0.0125
22703SOL    HW272667  10.505   4.404   7.736 -1.6604 -1.3646 -1.2033
22704SOL     OW72668   2.816   2.737   7.738 -0.0242  0.6251  0.4980
22704SOL    HW172669   2.724   2.712   7.749 -0.4010  1.8845  0.3135
22704SOL    HW272670   2.836   2.791   7.815  0.3945  0.8438  0.2421
22705SOL     OW72671   2.162   1.830   5.177  0.2917 -0.0265 -0.5288
22705SOL    HW172672   2.129   1.919   5.190  2.1913  0.3614  2.5777
22705SOL    HW272673   2.134   1.807   5.088 -2.3865  2.6908 -0.5538
22706SOL     OW72674   1.541   2.955   5.870  0.0652 -0.1046 -0.5447
22706SOL    HW172675   1.489   2.907   5.806  0.5993  0.6768 -1.5971
22706SOL    HW272676   1.495   2.941   5.953 -0.3154 -1.6142 -0.9741
22707SOL     OW72677  10.197   3.566   4.750 -0.9007  0.3003  0.3316
22707SOL    HW172678  10.160   3.509   4.817 -2.1503  1.4985  0.7161
22707SOL    HW272679  10.159   3.652   4.769  0.3563  1.1021 -0.6604
22708SOL     OW72680   1.047   6.406   6.665 -0.4938 -0.3112 -0.1578
22708SOL    HW172681   1.098   6.325   6.672  0.6439  0.3838 -0.0905
22708SOL    HW272682   1.054   6.431   6.573  0.5413  0.5485  0.1316
22709SOL     OW72683   0.085   0.490  11.533  0.2038 -0.1373 -0.5534
22709SOL    HW172684   0.159   0.528  11.579 -1.1267  1.3590  0.4508
22709SOL    HW272685   0.095   0.396  11.545  1.7134  0.0543 -0.1258
22710SOL     OW72686   7.060   3.849   1.130  0.4138 -0.4630  0.2555
22710SOL    HW172687   7.135   3.826   1.075 -0.4268 -0.9082 -0.7336
22710SOL    HW272688   7.067   3.944   1.139  1.6123 -0.5968  0.9670
22711SOL     OW72689   9.742   5.326  11.032 -0.9652  0.4006  0.2813
22711SOL    HW172690   9.786   5.365  11.107  0.1341 -1.0403  0.4329
22711SOL    HW272691   9.678   5.265  11.070 -1.6598  0.9608  0.0401
22712SOL     OW72692  10.440   4.624   8.748  0.0913 -0.0441  0.0728
22712SOL    HW172693  10.467   4.533   8.740 -0.4812 -0.0975 -1.8418
22712SOL    HW272694  10.419   4.635   8.841  0.1656 -1.8562  0.3414
22713SOL     OW72695   0.944   9.387   2.262  0.3489  0.0162 -0.5576
22713SOL    HW172696   0.924   9.382   2.355  0.9868  0.8075 -0.3615
22713SOL    HW272697   1.039   9.376   2.257  0.1865 -1.2468 -1.2347
22714SOL     OW72698   6.649   2.201  10.230  0.6306 -0.0833  0.9719
22714SOL    HW172699   6.573   2.199  10.172  0.8067  1.8471  0.6187
22714SOL    HW272700   6.619   2.251  10.306  2.0646  2.4008 -0.0157
22715SOL     OW72701   2.663   4.904   3.554  0.0672  0.2837 -0.1065
22715SOL    HW172702   2.731   4.932   3.493  1.1156  1.4987  1.5406
22715SOL    HW272703   2.658   4.974   3.620 -2.5830  0.1018  0.0172
22716SOL     OW72704   5.300  11.665  10.938 -0.2373  0.6403  0.1929
22716SOL    HW172705   5.258  11.702  10.861 -0.0210  0.3978 -0.0419
22716SOL    HW272706   5.249  11.587  10.959 -0.2750  0.6862  0.2763
22717SOL     OW72707   1.550  10.898   5.828  0.1531 -0.1714 -0.0779
22717SOL    HW172708   1.602  10.851   5.762  0.4751  0.1952 -0.0899
22717SOL    HW272709   1.487  10.833   5.859 -0.3198 -0.2083 -1.0911
22718SOL     OW72710   3.871   2.486   4.468 -0.4227 -0.1554 -0.0629
22718SOL    HW172711   3.816   2.564   4.477 -1.0528 -0.5060 -0.7927
22718SOL    HW272712   3.920   2.500   4.387 -0.0858 -0.2463  0.1243
22719SOL     OW72713   7.898   6.015  10.231 -0.0158  0.1588 -0.5503
22719SOL    HW172714   7.947   5.986  10.154 -0.0035 -3.4999  0.6700
22719SOL    HW272715   7.811   6.034  10.197  0.3738  0.0433 -1.6795
22720SOL     OW72716   4.600   5.567   4.230  0.6233  0.0474  0.1747
22720SOL    HW172717   4.597   5.577   4.135 -0.7652  0.7381  0.2562
22720SOL    HW272718   4.557   5.483   4.247  0.1317  0.3056  0.2272
22721SOL     OW72719   0.010   9.645   7.458  0.1723 -0.3096 -0.4644
22721SOL    HW172720   0.059   9.700   7.396  1.6709 -1.8049 -0.7022
22721SOL    HW272721   0.051   9.662   7.543  0.7409 -1.0884 -0.5605
22722SOL     OW72722  11.503  11.185   1.202  0.1822 -0.4075  0.1906
22722SOL    HW172723  11.558  11.261   1.183 -0.8836  0.2087 -0.5266
22722SOL    HW272724  11.565  11.111   1.208  0.9941  0.0553 -1.7104
22723SOL     OW72725   5.604   2.556   0.270  0.1218 -0.1342 -0.4378
22723SOL    HW172726   5.644   2.629   0.222 -0.1262  0.0851 -0.3142
22723SOL    HW272727   5.576   2.496   0.202  0.7209 -0.3262 -0.5270
22724SOL     OW72728   1.704   4.787   8.530 -0.1576  0.3295  0.2242
22724SOL    HW172729   1.773   4.782   8.596 -0.1614  0.7701  0.2635
22724SOL    HW272730   1.750   4.780   8.447 -0.1674 -0.3771  0.2729
22725SOL     OW72731   1.920  11.186   8.884  0.0999 -0.3101 -0.4639
22725SOL    HW172732   1.891  11.277   8.881  2.4659  0.5039 -2.7575
22725SOL    HW272733   1.913  11.161   8.976 -0.4784  2.2247  0.2609
22726SOL     OW72734   0.182   1.395  10.127 -0.6878  0.2379 -1.0238
22726SOL    HW172735   0.120   1.458  10.091  1.3047  2.2473 -1.2176
22726SOL    HW272736   0.187   1.417  10.221 -0.5314 -0.1019 -0.9516
22727SOL     OW72737   9.668   8.404   9.210  0.0208 -0.1545  0.3633
22727SOL    HW172738   9.717   8.343   9.265 -2.2285 -0.1067  2.6039
22727SOL    HW272739   9.703   8.490   9.231  0.7323 -0.3405 -0.0468
22728SOL     OW72740   0.835   1.661   1.796 -0.7647 -0.3745 -0.2500
22728SOL    HW172741   0.873   1.689   1.713  3.0508 -2.2824  0.6552
22728SOL    HW272742   0.879   1.715   1.862 -0.1913 -2.1000  0.8206
22729SOL     OW72743   0.236  11.903   6.707  0.1117 -0.6078 -0.0094
22729SOL    HW172744   0.189  11.823   6.687 -1.1639 -0.3430  1.7239
22729SOL    HW272745   0.232  11.954   6.626 -0.6324 -1.5328 -0.5783
22730SOL     OW72746   3.983   3.628   6.448  0.5769  0.0233 -0.4923
22730SOL    HW172747   3.935   3.656   6.369 -1.0361 -3.1100 -0.7646
22730SOL    HW272748   4.059   3.582   6.414  0.7851  0.1242 -0.1634
22731SOL     OW72749  10.346   1.827   1.970  0.4482 -0.9381  0.5459
22731SOL    HW172750  10.360   1.776   2.050 -0.6447 -3.6318 -0.8774
22731SOL    HW272751  10.390   1.777   1.901 -1.0751 -0.2217 -1.0149
22732SOL     OW72752   6.076   9.830   8.483  0.7021 -0.1093  0.4270
22732SOL    HW172753   6.038   9.743   8.481  1.2426 -0.3971 -2.6704
22732SOL    HW272754   6.165   9.818   8.449  0.2589  1.7853 -1.6153
22733SOL     OW72755   1.482   4.948   2.448  0.6386 -0.2898 -0.4843
22733SOL    HW172756   1.505   4.863   2.409 -0.6668 -1.1097  0.4377
22733SOL    HW272757   1.390   4.961   2.423  0.6790  0.6256 -0.2037
22734SOL     OW72758   9.445   5.838  10.307 -0.3028 -0.4355 -0.4507
22734SOL    HW172759   9.525   5.863  10.354 -0.7718  2.3107 -0.9913
22734SOL    HW272760   9.374   5.858  10.368 -0.7043 -1.0137 -0.7158
22735SOL     OW72761   7.388  11.443   4.377 -0.3439  0.1356  0.2632
22735SOL    HW172762   7.412  11.536   4.374  3.6539 -0.7663 -1.1376
22735SOL    HW272763   7.356  11.424   4.289  0.0850 -0.0990  0.1578
22736SOL     OW72764   7.805   1.991  11.915  0.3493 -0.3234 -0.0049
22736SOL    HW172765   7.829   1.953  11.830  3.1513 -1.0937  1.0364
22736SOL    HW272766   7.710   1.979  11.920  0.1966 -0.9534 -2.6687
22737SOL     OW72767   6.193   6.601   7.164  0.3988 -0.0745  0.0891
22737SOL    HW172768   6.169   6.641   7.247 -0.5938 -0.1583 -0.1390
22737SOL    HW272769   6.191   6.507   7.181  1.5550 -0.0720  0.3156
22738SOL     OW72770   3.197   9.255   2.705  0.4583  0.0137  0.1336
22738SOL    HW172771   3.255   9.287   2.774 -1.5502  0.1441  1.8564
22738SOL    HW272772   3.129   9.206   2.751 -1.6877  1.1854 -1.5596
22739SOL     OW72773   7.775   1.025   3.310 -0.4145 -0.0926 -0.2613
22739SOL    HW172774   7.815   1.012   3.224  1.3239 -1.2550  0.6686
22739SOL    HW272775   7.728   0.943   3.327  1.2204 -0.8439  0.8590
22740SOL     OW72776   1.632   3.398   6.946  0.1898  0.0915  0.3178
22740SOL    HW172777   1.716   3.361   6.919  0.4948  0.6288  0.5116
22740SOL    HW272778   1.654   3.456   7.020 -0.0267  1.9349 -0.9964
22741SOL     OW72779   5.665   9.848   8.734  0.3419  0.1178 -0.0451
22741SOL    HW172780   5.750   9.809   8.756  1.0801  1.3958 -0.5196
22741SOL    HW272781   5.686   9.937   8.707 -0.9387 -0.1276 -2.0488
22742SOL     OW72782   0.561   9.592   9.293 -0.1779 -0.3652  0.4621
22742SOL    HW172783   0.540   9.661   9.356  1.4218  1.6180 -1.0009
22742SOL    HW272784   0.490   9.596   9.229  0.6211  1.0220 -0.3967
22743SOL     OW72785   9.509  11.308   6.583  0.3348 -0.1389 -0.2776
22743SOL    HW172786   9.534  11.315   6.675  1.1733  0.6352 -0.5550
22743SOL    HW272787   9.511  11.398   6.550  3.9596 -0.6847 -2.0538
22744SOL     OW72788   9.900   7.737   7.564  0.1360  0.2392 -0.4576
22744SOL    HW172789   9.890   7.811   7.625  2.4017  2.1998 -2.2232
22744SOL    HW272790   9.840   7.757   7.493 -0.1981 -0.3386 -0.3377
22745SOL     OW72791  12.010   2.701   6.872 -0.1137 -0.0589  0.5805
22745SOL    HW172792  11.925   2.658   6.864  0.3555 -0.6465 -2.5388
22745SOL    HW272793  11.989   2.794   6.880 -1.0530 -0.3104  1.2036
22746SOL     OW72794  10.642  11.938   3.004  0.5876  0.0171  0.0170
22746SOL    HW172795  10.734  11.960   3.023  0.8987  0.0607 -1.4634
22746SOL    HW272796  10.596  11.960   3.085  1.6919  1.1587  0.3777
22747SOL     OW72797  11.076  11.404   0.573 -0.3172  0.6850 -0.1662
22747SOL    HW172798  11.166  11.420   0.547 -0.0678 -1.5842 -0.9570
22747SOL    HW272799  11.024  11.464   0.520  0.7020  2.0709  0.3486
22748SOL     OW72800   8.167  11.243   5.829 -0.4750  0.3496 -0.5659
22748SOL    HW172801   8.220  11.205   5.900  1.0868  1.8563 -0.8474
22748SOL    HW272802   8.116  11.169   5.795  3.0224 -1.8334 -1.6854
22749SOL     OW72803   1.748   9.228   5.145  0.3739 -0.0299 -0.0550
22749SOL    HW172804   1.840   9.209   5.159 -0.0238 -1.2180  1.2253
22749SOL    HW272805   1.735   9.217   5.050  1.3543 -0.7912 -0.1169
22750SOL     OW72806  11.395   1.338   7.418 -0.2395 -0.0647 -0.1676
22750SOL    HW172807  11.387   1.253   7.461  3.6392 -1.0788 -0.9998
22750SOL    HW272808  11.376   1.320   7.326  1.3975 -0.3025 -0.4875
22751SOL     OW72809   9.988  11.933  10.434 -0.3196 -0.8490  1.0550
22751SOL    HW172810  10.005  11.939  10.528 -1.6581  1.6310  1.2091
22751SOL    HW272811   9.914  11.873  10.428  0.0194 -1.3294  1.5256
22752SOL     OW72812   9.576   7.332   4.606 -0.3083  0.0984 -0.2499
22752SOL    HW172813   9.535   7.417   4.616 -0.5663 -0.1656  1.0486
22752SOL    HW272814   9.662   7.350   4.567 -0.6525  0.8682 -0.6639
22753SOL     OW72815   2.726   6.454   9.343  0.5554  0.3623  0.3913
22753SOL    HW172816   2.632   6.469   9.339  0.7396  1.3375 -0.6658
22753SOL    HW272817   2.764   6.541   9.356  1.4524  0.4478 -2.2511
22754SOL     OW72818   3.290  10.006   2.401 -0.0764 -0.0823 -0.2490
22754SOL    HW172819   3.379  10.006   2.437  0.5138  1.1840 -1.5919
22754SOL    HW272820   3.298   9.959   2.318 -1.1264 -1.7864  0.5624
22755SOL     OW72821   8.442   5.196   2.363  0.1308 -0.4305  0.5785
22755SOL    HW172822   8.512   5.218   2.424 -0.1534  1.4758  0.2827
22755SOL    HW272823   8.487   5.154   2.290  1.0341  0.9775  0.2819
22756SOL     OW72824  10.927   1.296   2.666  0.2785 -0.5364  0.2819
22756SOL    HW172825  10.909   1.276   2.574 -1.6015  1.0298  0.2333
22756SOL    HW272826  11.022   1.296   2.673  0.6280  2.0534 -2.3772
22757SOL     OW72827   7.903   3.017  10.293 -0.1699 -0.2250  0.1186
22757SOL    HW172828   7.923   2.941  10.239  0.0704  1.6209 -2.5355
22757SOL    HW272829   7.978   3.075  10.281 -0.9251  0.9866  1.0896
22758SOL     OW72830   9.194   6.075   6.866  0.2226  0.5881  0.0044
22758SOL    HW172831   9.123   6.130   6.900 -1.5751 -1.1932 -0.6212
22758SOL    HW272832   9.191   5.997   6.922  1.4153  0.3016 -0.3258
22759SOL     OW72833   7.388   5.325   9.291  0.1763 -0.9914 -0.2857
22759SOL    HW172834   7.344   5.351   9.373  0.4085  1.3607 -0.8371
22759SOL    HW272835   7.316   5.296   9.235 -0.2480 -0.5811  0.0302
22760SOL     OW72836   6.111   8.881   1.015 -0.0320 -0.2921 -0.0483
22760SOL    HW172837   6.133   8.788   1.010  2.4782  0.2166  0.5025
22760SOL    HW272838   6.077   8.903   0.928  1.6131 -1.2099 -0.9623
22761SOL     OW72839   2.973   8.733   2.973 -0.2394 -0.2338  0.0728
22761SOL    HW172840   2.955   8.663   3.036 -1.1055  0.8397  1.0524
22761SOL    HW272841   2.888   8.754   2.934  0.3418 -1.2186 -1.8866
22762SOL     OW72842   6.885   9.966   5.203  0.1770  0.0679 -0.2546
22762SOL    HW172843   6.963   9.910   5.209 -0.4992 -0.7286  2.1884
22762SOL    HW272844   6.920  10.055   5.203  1.1395 -0.2876 -0.9412
22763SOL     OW72845  11.416   5.597   4.867  0.2069  0.5172 -0.1997
22763SOL    HW172846  11.367   5.584   4.948  0.5522 -0.1437 -0.0981
22763SOL    HW272847  11.406   5.691   4.849 -1.5820  0.3065 -0.4895
22764SOL     OW72848   1.326   8.512   8.028  0.3356 -0.5700  0.2272
22764SOL    HW172849   1.274   8.567   8.086  0.8544  0.3755 -0.1691
22764SOL    HW272850   1.416   8.545   8.039  0.5698 -0.9636 -0.4495
22765SOL     OW72851   6.852   4.324   6.354  0.0220  0.1898 -0.5219
22765SOL    HW172852   6.812   4.409   6.339  0.5627  0.5370 -0.0170
22765SOL    HW272853   6.915   4.338   6.425  2.8588  0.2140 -2.8937
22766SOL     OW72854   1.736   1.640   1.614  0.2439 -0.1609  0.1913
22766SOL    HW172855   1.755   1.639   1.708 -0.0733  0.3992  0.2641
22766SOL    HW272856   1.641   1.648   1.608  0.3438  0.7958 -0.1788
22767SOL     OW72857   8.253   5.251   7.067  0.1611 -0.6345  0.0631
22767SOL    HW172858   8.278   5.215   7.152  0.2002 -0.1226  0.2723
22767SOL    HW272859   8.194   5.185   7.030 -1.0319 -0.2065  1.1319
22768SOL     OW72860   4.953   6.252   3.125  0.1896  0.0476 -0.2132
22768SOL    HW172861   4.954   6.201   3.044  2.4981  0.4039 -0.4888
22768SOL    HW272862   4.981   6.340   3.098  0.2140  0.3782  0.8458
22769SOL     OW72863   2.078   9.088   8.195  0.4474 -0.0016  0.1841
22769SOL    HW172864   2.029   9.140   8.259 -1.1116 -1.9861  0.6868
22769SOL    HW272865   2.047   9.120   8.110  0.0909  0.4011  0.4601
22770SOL     OW72866   4.469   9.837  11.890 -0.4820  0.0984  0.7021
22770SOL    HW172867   4.422   9.920  11.891 -0.2884  0.3064 -1.6440
22770SOL    HW272868   4.553   9.857  11.847 -0.2872 -1.2293  0.4145
22771SOL     OW72869   1.601   6.565   3.156 -0.2145 -0.0479  0.5095
22771SOL    HW172870   1.613   6.633   3.090 -1.7988 -1.2598 -1.1082
22771SOL    HW272871   1.516   6.583   3.195  0.1740 -0.0469  1.3775
22772SOL     OW72872   0.026   7.682   7.722  0.0179 -0.2882 -0.1523
22772SOL    HW172873   0.039   7.748   7.654  2.0164 -1.2876 -0.8224
22772SOL    HW272874  -0.031   7.617   7.680  1.8484 -1.2856 -1.2528
22773SOL     OW72875  10.802   1.128   7.605 -0.5409  0.4839 -0.0575
22773SOL    HW172876  10.820   1.036   7.626  3.0052  0.8749 -0.8732
22773SOL    HW272877  10.789   1.169   7.690  0.4131 -0.3251  0.5043
22774SOL     OW72878   4.177   3.851   6.358  0.2905  0.3551  0.4884
22774SOL    HW172879   4.118   3.780   6.380 -0.3384  0.6758 -0.1336
22774SOL    HW272880   4.131   3.901   6.291  1.9391 -0.3297 -1.2410
22775SOL     OW72881   6.853   3.641   9.745 -0.0123  0.4282 -0.4314
22775SOL    HW172882   6.854   3.736   9.758 -1.9952  0.4664 -0.2453
22775SOL    HW272883   6.815   3.629   9.658  0.9865 -0.1995 -0.7998
22776SOL     OW72884   4.619   1.073   3.175 -0.4031  0.0818 -0.0708
22776SOL    HW172885   4.649   0.984   3.157 -0.4881  0.1475 -0.5373
22776SOL    HW272886   4.616   1.116   3.090  0.1934  0.7092  0.2182
22777SOL     OW72887   4.606   5.525   9.100  0.2575  0.4336 -0.2915
22777SOL    HW172888   4.685   5.578   9.103  1.4628 -1.2400 -0.7178
22777SOL    HW272889   4.576   5.531   9.010  0.0255  0.8790 -0.1871
22778SOL     OW72890   3.958   8.513   6.575  0.0575  0.3375 -0.5052
22778SOL    HW172891   3.963   8.608   6.586  0.9113  0.1909  0.5198
22778SOL    HW272892   4.039   8.480   6.613 -0.8140 -0.9005  0.3545
22779SOL     OW72893   1.204  11.842  10.763  0.5128  0.2849  0.4422
22779SOL    HW172894   1.196  11.935  10.781  0.4822  0.3041  0.3261
22779SOL    HW272895   1.116  11.814  10.739  0.5502  0.2551  0.3371
22780SOL     OW72896  12.044   4.515  10.138  1.0327  0.0735  0.2534
22780SOL    HW172897  11.954   4.545  10.154  1.4755  0.4880  2.1114
22780SOL    HW272898  12.052   4.516  10.042 -1.0038 -0.2029  0.0271
22781SOL     OW72899  10.534   5.969   8.593 -0.0954 -0.2572  0.4608
22781SOL    HW172900  10.589   5.970   8.514 -0.3236 -0.9225  0.2889
22781SOL    HW272901  10.445   5.975   8.560 -0.2535 -1.5496  0.5975
22782SOL     OW72902   7.356  10.823  10.975  0.6502  0.3995  0.0095
22782SOL    HW172903   7.315  10.757  10.920  0.3332  0.2198  0.4523
22782SOL    HW272904   7.329  10.907  10.936  1.2334  0.2767 -0.6792
22783SOL     OW72905   2.739  11.179   0.342 -0.1281 -0.9465 -0.0499
22783SOL    HW172906   2.784  11.174   0.426  1.2666 -3.1394 -0.8364
22783SOL    HW272907   2.795  11.234   0.288 -1.3667  1.0367  0.5627
22784SOL     OW72908   7.491   7.175  10.602 -0.4631 -0.1395  0.1644
22784SOL    HW172909   7.547   7.106  10.566 -1.4257 -0.6427 -0.3990
22784SOL    HW272910   7.454   7.138  10.681 -0.3725  0.0228  0.2838
22785SOL     OW72911   9.564   9.495   5.210 -0.0123 -0.6597 -0.7943
22785SOL    HW172912   9.532   9.427   5.269 -1.0099  1.5666  1.3817
22785SOL    HW272913   9.610   9.446   5.141 -0.6099 -3.5036  0.6478
22786SOL     OW72914   2.561   7.129   2.220  0.1498  0.3428  0.2749
22786SOL    HW172915   2.470   7.160   2.227 -0.3591 -0.7575 -0.9852
22786SOL    HW272916   2.565   7.053   2.278  0.2592  0.3603  0.2911
22787SOL     OW72917  10.204   3.114   3.642  0.3737  0.2209  0.2083
22787SOL    HW172918  10.266   3.071   3.701 -1.0833  0.2755  1.8772
22787SOL    HW272919  10.136   3.148   3.700 -1.8458 -0.8722 -1.6095
22788SOL     OW72920  11.799   3.955   0.326  0.2607  0.3855  0.5806
22788SOL    HW172921  11.868   3.994   0.273 -1.1327  0.8183 -0.9917
22788SOL    HW272922  11.840   3.941   0.412  2.5175 -0.1182 -0.5015
22789SOL     OW72923   0.353   9.941   0.702  0.0135 -0.1902 -0.0943
22789SOL    HW172924   0.270   9.965   0.743 -0.3078  1.5411 -1.6155
22789SOL    HW272925   0.343   9.967   0.610  1.6861 -1.3936 -0.6744
22790SOL     OW72926   6.807   7.612   3.358 -0.2673  0.9256  0.5540
22790SOL    HW172927   6.771   7.572   3.437 -0.5127  0.7198  0.3405
22790SOL    HW272928   6.857   7.687   3.390 -1.9221  1.9962  0.7749
22791SOL     OW72929   1.016   4.204  10.480  0.3087 -0.0434  0.4613
22791SOL    HW172930   0.940   4.181  10.427 -0.3929  0.4407  1.2486
22791SOL    HW272931   1.060   4.272  10.429  0.1017 -0.1758  0.1033
22792SOL     OW72932   0.327   7.535   7.965 -0.1485  0.0625 -0.0152
22792SOL    HW172933   0.275   7.510   8.042  0.0703  1.2307  0.5447
22792SOL    HW272934   0.411   7.564   8.001  0.8376 -1.5838 -0.8949
22793SOL     OW72935   0.412   0.707   6.081 -0.4321 -0.1323 -0.4052
22793SOL    HW172936   0.441   0.697   6.171 -0.2222  0.4236 -0.4113
22793SOL    HW272937   0.492   0.716   6.030 -0.5154 -1.1467 -0.7449
22794SOL     OW72938   2.430  10.342  10.413 -0.1522 -0.0671  0.1201
22794SOL    HW172939   2.475  10.295  10.483  0.2996  1.1993  0.7151
22794SOL    HW272940   2.350  10.375  10.453  0.0861  0.6258  0.0461
22795SOL     OW72941   8.888   3.112   9.704  0.1865 -0.3939 -0.1421
22795SOL    HW172942   8.969   3.162   9.699  0.7008 -1.1716  0.0937
22795SOL    HW272943   8.917   3.023   9.725 -0.9035  0.1468  5.1369
22796SOL     OW72944   5.848  11.929   2.814  0.9281  0.2027  0.1734
22796SOL    HW172945   5.935  11.968   2.808  1.4113 -1.0361 -1.7949
22796SOL    HW272946   5.809  11.944   2.727  0.0054 -1.0829  0.3423
22797SOL     OW72947   4.280   6.824  10.021  0.4154  0.1756  0.8221
22797SOL    HW172948   4.211   6.887  10.002  1.0800  0.7151  0.0853
22797SOL    HW272949   4.290   6.826  10.116 -0.2803  0.4052  0.8943
22798SOL     OW72950   7.532   7.196   7.599 -0.2787  0.1229  0.5224
22798SOL    HW172951   7.603   7.221   7.540 -1.7529  1.0866 -0.9171
22798SOL    HW272952   7.552   7.105   7.622 -0.6833 -1.0872 -3.1670
22799SOL     OW72953   5.761  11.721   5.960  0.1383 -0.0081  0.1408
22799SOL    HW172954   5.719  11.765   6.034 -0.2174  0.7322 -0.4869
22799SOL    HW272955   5.836  11.776   5.938  0.9818 -0.8879  0.7308
22800SOL     OW72956   4.231   9.388   0.966 -0.0091  0.1383  0.3808
22800SOL    HW172957   4.135   9.389   0.972 -0.0665  0.0831 -0.3874
22800SOL    HW272958   4.255   9.480   0.957 -0.2087 -0.0008 -2.1327
22801SOL     OW72959   9.216   2.134  11.634  0.2597 -0.0921 -0.3663
22801SOL    HW172960   9.275   2.210  11.633 -1.0210  0.9471  0.4323
22801SOL    HW272961   9.254   2.076  11.700 -0.1378  1.0356  0.9019
22802SOL     OW72962  10.771   8.757   2.647 -0.2590  0.0021 -0.2699
22802SOL    HW172963  10.797   8.846   2.672  1.6887 -0.3331 -0.9416
22802SOL    HW272964  10.790   8.704   2.724 -0.8284  0.0714 -0.0830
22803SOL     OW72965  10.246   3.393   7.109 -0.1904  0.2507 -0.6146
22803SOL    HW172966  10.285   3.477   7.087 -2.0152  1.0178 -1.1222
22803SOL    HW272967  10.191   3.411   7.185  0.3102 -0.7651  0.0142
22804SOL     OW72968  10.176   5.189  10.697  0.0155 -0.0114  0.7230
22804SOL    HW172969  10.231   5.153  10.767  1.2128 -0.3245 -0.3294
22804SOL    HW272970  10.125   5.258  10.739  3.2017  2.2570  1.2955
22805SOL     OW72971   5.900   8.337   3.103  0.4165 -0.1621  0.2893
22805SOL    HW172972   5.980   8.297   3.068  1.5343  1.3524  1.0012
22805SOL    HW272973   5.832   8.271   3.088  1.6508 -1.2251 -0.9452
22806SOL     OW72974   5.878   3.983   7.467  0.6656  0.3487 -0.2501
22806SOL    HW172975   5.785   3.967   7.450  0.3504  1.0114  0.7644
22806SOL    HW272976   5.923   3.914   7.419 -0.4501 -1.3423  0.9940
22807SOL     OW72977   5.556  11.769   4.368  0.3430 -0.2136 -0.2063
22807SOL    HW172978   5.544  11.861   4.346  1.8932  0.3838  1.2380
22807SOL    HW272979   5.501  11.755   4.445  1.1829 -0.0825  0.4381
22808SOL     OW72980   9.264   2.350   1.009  0.3377 -0.7252 -0.3518
22808SOL    HW172981   9.203   2.278   0.998 -1.1748  0.3105  0.7965
22808SOL    HW272982   9.230   2.400   1.084  1.6675  0.8185 -0.7023
22809SOL     OW72983   3.701   9.332   6.730  0.2938  0.2112  0.0694
22809SOL    HW172984   3.726   9.240   6.729  0.8621  0.3675 -0.5055
22809SOL    HW272985   3.706   9.357   6.822  0.6903 -0.1881  0.1595
22810SOL     OW72986   6.474   2.120   9.148 -0.1771 -0.0460 -0.1199
22810SOL    HW172987   6.528   2.186   9.192 -1.6406  1.3028 -0.2290
22810SOL    HW272988   6.533   2.077   9.087  0.5233  2.3042 -1.2364
22811SOL     OW72989  11.891   9.408   2.494 -0.1797  0.4107 -0.3303
22811SOL    HW172990  11.894   9.337   2.558  2.3994 -0.8926 -1.7157
22811SOL    HW272991  11.837   9.373   2.422 -0.8024  0.7961 -0.0625
22812SOL     OW72992   5.941   0.395  11.403  0.0721  0.0109 -0.3986
22812SOL    HW172993   5.879   0.353  11.463  2.9018 -1.0546  2.0468
22812SOL    HW272994   5.922   0.489  11.410 -0.6288 -0.2133  1.0721
22813SOL     OW72995   2.377   4.297   6.225 -0.4802  0.2014  0.1025
22813SOL    HW172996   2.332   4.329   6.147 -0.5041  0.8346  0.3745
22813SOL    HW272997   2.380   4.372   6.284  0.7253  0.1192  0.1790
22814SOL     OW72998   2.587   4.499   4.433 -0.5171  0.3586  0.0371
22814SOL    HW172999   2.523   4.436   4.467  0.8508  0.0962  2.3410
22814SOL    HW273000   2.567   4.581   4.478 -0.3115  0.7351 -0.5441
22815SOL     OW73001   9.782   6.896   2.310 -0.7393 -0.2894 -0.4624
22815SOL    HW173002   9.817   6.809   2.330 -2.6047 -0.4706  2.5685
22815SOL    HW273003   9.815   6.952   2.380  0.8216  1.6746 -2.6270
22816SOL     OW73004   2.735   6.892   7.125  0.0955  0.5091  0.0943
22816SOL    HW173005   2.706   6.827   7.189 -3.1998  2.1364  0.4677
22816SOL    HW273006   2.741   6.973   7.175  1.7014  0.9995 -0.8474
22817SOL     OW73007   0.350  12.004   9.304 -0.5256 -0.0609 -0.5655
22817SOL    HW173008   0.409  12.056   9.358  0.7306 -0.0065 -1.9260
22817SOL    HW273009   0.288  12.067   9.267 -0.5394  0.0932 -0.2806
22818SOL     OW73010   5.227   0.614   9.613 -0.0572  0.3667 -0.1906
22818SOL    HW173011   5.277   0.552   9.560  0.1283  0.2695  0.0968
22818SOL    HW273012   5.156   0.643   9.555 -0.8247 -0.9776  0.0400
22819SOL     OW73013   1.370   5.546   4.619 -0.4245 -0.1879  0.4218
22819SOL    HW173014   1.381   5.518   4.710 -1.6835 -1.8222  0.1305
22819SOL    HW273015   1.300   5.611   4.622 -0.1285  0.1185  0.6808
22820SOL     OW73016   2.086   5.023   6.127  0.1502  0.0233  0.2083
22820SOL    HW173017   2.109   5.084   6.197  0.5604  1.9065 -1.4645
22820SOL    HW273018   1.990   5.021   6.127  0.1010  1.4235 -0.2790
22821SOL     OW73019  11.266   8.560   8.355  0.1885 -0.2532 -0.5067
22821SOL    HW173020  11.318   8.636   8.327  0.9242 -0.0040  1.3688
22821SOL    HW273021  11.177   8.594   8.364  0.5666  0.5051  0.6100
22822SOL     OW73022   9.911   5.283   3.486 -0.0979  0.2127 -0.1217
22822SOL    HW173023   9.911   5.361   3.431 -0.3177  0.8257  0.7218
22822SOL    HW273024   9.825   5.284   3.529 -0.2418 -0.6950 -0.3757
22823SOL     OW73025   3.257   7.579   6.988  0.6227 -0.3571  0.0137
22823SOL    HW173026   3.185   7.628   6.948  1.1049  0.7929  0.5142
22823SOL    HW273027   3.239   7.583   7.082  1.7526  0.6588  0.2100
22824SOL     OW73028  11.947  11.515   5.209  0.2447  0.3718 -0.0652
22824SOL    HW173029  12.006  11.443   5.186  1.1665  1.1448 -0.1856
22824SOL    HW273030  11.921  11.496   5.299  2.4594  1.1245  0.8200
22825SOL     OW73031   7.567   8.506   1.755 -0.2483  0.3692  0.4971
22825SOL    HW173032   7.538   8.465   1.673 -0.0014  2.6777 -0.8317
22825SOL    HW273033   7.493   8.494   1.815 -0.2404 -1.7866  0.1395
22826SOL     OW73034  11.370  11.235   0.920  0.0101  0.4294  0.2956
22826SOL    HW173035  11.302  11.302   0.920 -1.1233 -0.6750 -0.3699
22826SOL    HW273036  11.381  11.212   1.013 -0.8540  0.3004  0.3714
22827SOL     OW73037   9.980  11.467   8.284  0.0924 -1.1471  0.6074
22827SOL    HW173038  10.035  11.544   8.303 -2.2988  1.0285 -0.6966
22827SOL    HW273039  10.011  11.436   8.199 -0.8917  0.3526 -0.3439
22828SOL     OW73040   0.584   0.626   2.076 -0.3729  0.4675 -0.0965
22828SOL    HW173041   0.542   0.680   2.143  0.2849  1.4908 -0.4959
22828SOL    HW273042   0.615   0.688   2.010 -0.2388 -0.4570 -0.9288
22829SOL     OW73043   6.690   6.668   5.954  0.1150 -0.1458  0.3554
22829SOL    HW173044   6.727   6.741   5.905 -0.6646 -0.8898 -1.4095
22829SOL    HW273045   6.595   6.683   5.952 -0.0036 -0.8124  0.6091
22830SOL     OW73046   8.322   5.177   9.891 -0.1291 -0.4867 -0.2267
22830SOL    HW173047   8.367   5.138   9.816 -1.4770  0.1233 -1.3943
22830SOL    HW273048   8.335   5.271   9.881  1.8660 -0.4775  1.7737
22831SOL     OW73049   6.071   9.305   5.794  0.4025  0.2425 -0.4384
22831SOL    HW173050   6.105   9.240   5.731  0.1999 -1.0422  0.7276
22831SOL    HW273051   6.126   9.293   5.872  0.2799  1.4140 -0.1600
22832SOL     OW73052  11.825  11.314   3.993 -0.7161 -0.4473  0.1451
22832SOL    HW173053  11.833  11.251   4.066  1.2292  1.5552  1.7848
22832SOL    HW273054  11.877  11.276   3.923 -0.6236 -1.2675  0.6343
22833SOL     OW73055   2.938   1.344   8.209 -0.3049 -0.6567 -0.3061
22833SOL    HW173056   3.025   1.377   8.233 -0.2762 -0.4312 -0.7013
22833SOL    HW273057   2.882   1.367   8.283 -0.4359  0.9315 -0.8642
22834SOL     OW73058   8.127   7.973   2.958 -0.4309  0.3627  0.0334
22834SOL    HW173059   8.182   7.998   2.884  0.4242 -1.4866 -0.0164
22834SOL    HW273060   8.134   8.047   3.019 -1.1763  1.9283 -1.6918
22835SOL     OW73061   0.446   7.433   7.404 -0.1804 -0.1828 -0.0070
22835SOL    HW173062   0.351   7.431   7.391 -0.2105  0.6993  0.0476
22835SOL    HW273063   0.471   7.341   7.410 -0.9839 -0.4331 -0.3768
22836SOL     OW73064   8.367   7.477   9.013 -0.0011  0.2976 -0.3776
22836SOL    HW173065   8.360   7.455   8.920 -1.6833 -0.2332 -0.1502
22836SOL    HW273066   8.307   7.417   9.057 -0.0699  1.2895  0.9410
22837SOL     OW73067   1.293   0.516  10.676 -0.2358 -0.0704 -0.1939
22837SOL    HW173068   1.293   0.422  10.659  1.5340 -0.1989  0.3267
22837SOL    HW273069   1.240   0.525  10.755  1.2932 -0.9387  0.9924
22838SOL     OW73070   9.429   5.099   3.072  0.3818  0.6537 -0.1843
22838SOL    HW173071   9.478   5.121   3.151  0.2711  0.8387 -0.1644
22838SOL    HW273072   9.481   5.135   3.000  1.8183 -1.7713 -0.4350
22839SOL     OW73073   1.022   1.234  10.668  0.0288  0.0611 -0.1970
22839SOL    HW173074   0.974   1.254  10.587 -0.7068 -1.3713 -0.1603
22839SOL    HW273075   0.982   1.153  10.699  2.8480 -1.5602 -0.4631
22840SOL     OW73076   6.986   1.550   4.919  0.5811 -0.0517  0.4916
22840SOL    HW173077   6.982   1.502   5.002 -0.8670  1.4666  1.3455
22840SOL    HW273078   6.919   1.510   4.864 -1.1408  1.3248  1.4606
22841SOL     OW73079   3.677   4.238   6.202  0.3312  0.9614 -0.2289
22841SOL    HW173080   3.756   4.285   6.174  0.2481  1.0421 -0.3287
22841SOL    HW273081   3.703   4.146   6.203  0.3134  0.9509 -0.6505
22842SOL     OW73082   7.824   6.954   1.840 -0.0937 -0.0394 -0.3304
22842SOL    HW173083   7.819   7.030   1.781 -1.2081  1.4914  1.5827
22842SOL    HW273084   7.838   6.879   1.783  2.4247  1.7209 -2.2375
22843SOL     OW73085  10.444   0.737   5.774  0.9470  0.7721  0.2335
22843SOL    HW173086  10.440   0.690   5.691  2.0649 -0.2184  0.7100
22843SOL    HW273087  10.355   0.770   5.788 -0.3326 -2.5309  0.6075
22844SOL     OW73088  10.456   3.895   0.370  0.1275  0.2556  0.7346
22844SOL    HW173089  10.504   3.847   0.303 -0.3522  1.3108 -0.4011
22844SOL    HW273090  10.512   3.889   0.448  0.8800 -0.6658  0.1559
22845SOL     OW73091  10.723   7.363   4.045  0.0169 -0.5614 -0.3561
22845SOL    HW173092  10.751   7.451   4.019 -0.4930 -0.7583 -1.6400
22845SOL    HW273093  10.804   7.313   4.052  0.2080 -0.4168 -1.3293
22846SOL     OW73094  10.680   1.479   2.197 -0.0491 -0.1739  0.6907
22846SOL    HW173095  10.725   1.404   2.159  0.2077 -0.2286  1.0951
22846SOL    HW273096  10.593   1.447   2.218 -0.4818  0.0862 -0.6128
22847SOL     OW73097  10.884   3.661   3.820 -0.5105  0.0988  0.3852
22847SOL    HW173098  10.890   3.721   3.746  0.1458  0.4699  0.7415
22847SOL    HW273099  10.964   3.674   3.870 -1.3015  0.4549  1.6276
22848SOL     OW73100   2.808   2.145   9.676 -0.0135  0.7127 -0.0061
22848SOL    HW173101   2.808   2.105   9.589  2.2645  0.7805 -0.0819
22848SOL    HW273102   2.798   2.071   9.736 -0.4981  0.5509 -0.2745
22849SOL     OW73103  10.533   8.221   9.844  0.2323 -0.1213 -0.9401
22849SOL    HW173104  10.498   8.180   9.923  1.5150 -2.3802 -1.4580
22849SOL    HW273105  10.456   8.244   9.792 -0.7047  2.4767  1.3516
22850SOL     OW73106  11.245   9.284   1.205 -0.5512  0.5403 -0.0931
22850SOL    HW173107  11.303   9.242   1.141 -1.8746 -0.7757 -0.4818
22850SOL    HW273108  11.209   9.359   1.159  1.2623  1.7260  0.3512
22851SOL     OW73109   4.547   3.587   0.198  0.4930  0.0873 -0.3982
22851SOL    HW173110   4.543   3.500   0.157  1.4593 -0.8727  1.4060
22851SOL    HW273111   4.632   3.589   0.241 -0.6432  0.7997  1.9631
22852SOL     OW73112   2.221  10.303   6.608 -0.7027 -0.8059  0.6215
22852SOL    HW173113   2.274  10.380   6.629  0.2092 -1.2179 -0.0468
22852SOL    HW273114   2.267  10.263   6.533 -2.6757 -0.4845 -0.8439
22853SOL     OW73115  10.767   6.846   7.417 -0.0347 -0.0736  0.9289
22853SOL    HW173116  10.676   6.820   7.431 -0.5715  2.3509  2.6834
22853SOL    HW273117  10.783   6.914   7.483  1.9810  1.9978 -1.4605
22854SOL     OW73118   4.937   1.816   6.981 -0.2584  0.2708 -0.6511
22854SOL    HW173119   4.899   1.730   6.961 -0.8986  1.0168 -2.9484
22854SOL    HW273120   4.919   1.828   7.074  1.3186 -2.7579  0.1843
22855SOL     OW73121   6.730   6.754   7.576  0.4561 -0.0325  0.7205
22855SOL    HW173122   6.681   6.747   7.494  1.3172  1.0218  0.0862
22855SOL    HW273123   6.716   6.670   7.620 -0.7776 -0.2662 -0.0700
22856SOL     OW73124  10.720   1.576   9.580 -0.5381 -0.3438  0.1564
22856SOL    HW173125  10.782   1.563   9.652 -1.5764  0.9352  1.3336
22856SOL    HW273126  10.636   1.546   9.615 -0.9576 -0.1780 -0.6967
22857SOL     OW73127   0.930  12.040  11.434  0.3566 -0.1109  0.3917
22857SOL    HW173128   0.944  11.951  11.404  1.0945 -0.7648  2.4917
22857SOL    HW273129   0.863  12.075  11.375 -0.0545 -2.0823 -0.3804
22858SOL     OW73130   6.637   5.218   2.971  0.0785 -0.7872  0.2591
22858SOL    HW173131   6.668   5.202   3.060  1.0011  3.3934  0.8787
22858SOL    HW273132   6.715   5.243   2.921 -1.0079  1.8707 -0.3020
22859SOL     OW73133  11.957   9.185   2.279 -0.5607  0.2256 -0.2923
22859SOL    HW173134  12.042   9.146   2.260 -0.8935 -0.5801 -0.1864
22859SOL    HW273135  11.969   9.278   2.263  0.5015  0.2027  0.3006
22860SOL     OW73136   8.000   8.949  10.932  0.5199  0.0998  0.6873
22860SOL    HW173137   7.973   9.039  10.916  0.0397  0.4785  3.2922
22860SOL    HW273138   7.958   8.899  10.862 -1.2723  1.5883  0.6210
22861SOL     OW73139  11.138  10.353   4.821  0.3800 -0.3952 -0.3636
22861SOL    HW173140  11.226  10.342   4.786  0.9269 -0.4238  0.9453
22861SOL    HW273141  11.151  10.366   4.915 -1.0481 -0.9994 -0.0471
22862SOL     OW73142   1.348   7.142   1.310  0.0512  0.3328 -0.0873
22862SOL    HW173143   1.387   7.229   1.328  1.9210 -0.3544 -0.5450
22862SOL    HW273144   1.303   7.153   1.227 -0.5593  1.1105  0.3318
22863SOL     OW73145   6.461   9.919   6.253 -0.3255  0.7168 -0.3125
22863SOL    HW173146   6.367   9.904   6.249  0.0015 -1.5211 -1.1899
22863SOL    HW273147   6.484   9.908   6.345 -0.8405  0.7599 -0.1781
22864SOL     OW73148   3.054  10.464  11.726 -0.3132  0.0100  0.0861
22864SOL    HW173149   3.082  10.478  11.636 -1.6657 -0.0187 -0.3602
22864SOL    HW273150   3.121  10.507  11.779 -0.4683  1.6971 -1.0009
22865SOL     OW73151   8.111   3.978   4.547  0.6522 -0.6029  0.5052
22865SOL    HW173152   8.057   3.902   4.572  1.7427 -1.7879 -0.5847
22865SOL    HW273153   8.186   3.940   4.502  0.9717  1.1679 -0.5622
22866SOL     OW73154   3.208   2.332   4.837 -0.0141  0.1884 -0.0123
22866SOL    HW173155   3.295   2.358   4.867 -0.0255  0.0772  0.1201
22866SOL    HW273156   3.184   2.260   4.895 -0.7245  1.0411  0.7942
22867SOL     OW73157   0.283   0.067   7.393 -0.1266 -0.2616 -0.2496
22867SOL    HW173158   0.189   0.051   7.388 -0.0166 -1.1933  0.4200
22867SOL    HW273159   0.291   0.161   7.379 -1.3735  0.2270  1.7906
22868SOL     OW73160   1.375   6.876   5.865  0.2656 -0.2025  0.2245
22868SOL    HW173161   1.349   6.945   5.803 -3.6386  0.0428  1.8098
22868SOL    HW273162   1.378   6.920   5.950  0.3895 -1.4690  0.8937
22869SOL     OW73163  11.917   4.719   6.162  0.0079  0.2472  0.2455
22869SOL    HW173164  11.980   4.732   6.234 -0.9732 -0.5511  1.2818
22869SOL    HW273165  11.841   4.679   6.204 -0.2328 -1.1011 -1.4129
22870SOL     OW73166   2.743  10.371  10.673 -0.3840  0.3853 -0.1716
22870SOL    HW173167   2.751  10.422  10.592  0.0044 -0.9629 -1.0023
22870SOL    HW273168   2.706  10.433  10.736  0.3672  1.7966 -1.0517
22871SOL     OW73169   4.312   9.491   8.198  0.7745 -0.1315  0.2298
22871SOL    HW173170   4.386   9.545   8.227 -0.0670  1.7134 -0.8537
22871SOL    HW273171   4.242   9.554   8.181 -0.8559 -1.7702  0.6074
22872SOL     OW73172   7.881   5.496   3.251  0.3374  0.3629  0.8230
22872SOL    HW173173   7.959   5.541   3.220 -0.4553  0.2288 -1.5731
22872SOL    HW273174   7.889   5.406   3.220 -1.3901  0.6999 -0.7868
22873SOL     OW73175   0.813   1.420   0.569 -0.0899 -0.2303 -0.1552
22873SOL    HW173176   0.781   1.423   0.659 -0.7986 -0.8357 -0.3774
22873SOL    HW273177   0.831   1.512   0.547  0.2572 -0.1004  0.6519
22874SOL     OW73178   9.031   4.735   6.865  0.1169 -0.4253  0.3609
22874SOL    HW173179   9.087   4.690   6.802  0.4878  0.4170  0.0868
22874SOL    HW273180   9.082   4.810   6.894 -0.0262 -0.8044  1.6986
22875SOL     OW73181   2.181   0.374  11.450 -0.0464  0.0348  0.0528
22875SOL    HW173182   2.226   0.458  11.443  1.0112 -0.6376 -2.2857
22875SOL    HW273183   2.089   0.395  11.438 -0.0311  1.0468  1.4469
22876SOL     OW73184  10.998   4.230   0.548 -0.0117 -0.1493  0.3319
22876SOL    HW173185  10.949   4.205   0.469  1.4135 -0.2348 -0.5548
22876SOL    HW273186  11.085   4.253   0.516  0.4734  0.2170  1.8470
22877SOL     OW73187   3.341   0.630  10.212 -1.0156  0.1311 -0.1686
22877SOL    HW173188   3.325   0.582  10.130 -2.0769 -0.9650  0.6509
22877SOL    HW273189   3.434   0.614  10.230 -0.1612  2.1501 -2.2081
22878SOL     OW73190   4.462   9.981   1.187 -0.9866 -0.1270  0.5313
22878SOL    HW173191   4.519   9.957   1.114  0.1183 -1.2361  1.7165
22878SOL    HW273192   4.520  10.024   1.250 -2.0900  1.6213  0.4210
22879SOL     OW73193   9.498   8.993  10.479  0.1683 -0.5565  0.4945
22879SOL    HW173194   9.465   9.059  10.539  0.5554 -0.0296  0.1451
22879SOL    HW273195   9.459   8.911  10.508 -0.8337 -0.0704  0.5415
22880SOL     OW73196   0.472   9.512   2.312  0.2136  0.5881  0.3563
22880SOL    HW173197   0.486   9.490   2.404  0.2682 -1.8694 -0.1742
22880SOL    HW273198   0.560   9.525   2.276  0.2701  0.3389  0.4016
22881SOL     OW73199  10.003   8.371   5.742  0.1944 -0.5944  0.3993
22881SOL    HW173200   9.968   8.283   5.734 -0.6496 -0.1215 -1.8451
22881SOL    HW273201   9.928   8.425   5.767  0.4464 -0.3424  0.6137
22882SOL     OW73202   7.374   8.970   4.738  0.3664 -0.0875 -0.2719
22882SOL    HW173203   7.431   8.969   4.661  0.1379 -1.2983 -0.4400
22882SOL    HW273204   7.295   9.014   4.708 -0.2238 -1.6455 -1.1330
22883SOL     OW73205  10.093   7.454   8.195  0.6389 -0.0276 -0.0592
22883SOL    HW173206  10.081   7.487   8.284 -0.8584  0.9933 -0.5972
22883SOL    HW273207  10.175   7.403   8.199  0.5132 -0.1611  1.9172
22884SOL     OW73208   1.987  10.130   0.262  0.0527  0.0769  0.4754
22884SOL    HW173209   2.016  10.094   0.178  0.0160 -0.7057  0.7959
22884SOL    HW273210   2.018  10.068   0.327  1.1140  1.2632  1.1590
22885SOL     OW73211   7.521   4.378  12.108 -0.3234 -0.0244 -0.1865
22885SOL    HW173212   7.474   4.318  12.166  0.1612  0.8668  1.1768
22885SOL    HW273213   7.613   4.350  12.114 -0.0211  1.1286  0.8490
22886SOL     OW73214   7.455  11.678   5.160 -0.2763  0.2261 -0.0735
22886SOL    HW173215   7.386  11.657   5.097 -0.2292  1.5363 -0.5827
22886SOL    HW273216   7.410  11.721   5.233  0.0054  1.2729 -0.4996
22887SOL     OW73217   7.715   4.161   8.502 -0.1013 -0.0603 -0.7878
22887SOL    HW173218   7.640   4.101   8.508 -1.3481  1.5859  1.9563
22887SOL    HW273219   7.717   4.188   8.410 -0.0661 -3.4575 -1.9125
22888SOL     OW73220   2.366   3.565   1.492  0.2058 -0.1163  0.7336
22888SOL    HW173221   2.354   3.540   1.584 -1.4919 -1.0700  0.2991
22888SOL    HW273222   2.296   3.627   1.475  1.7012  1.6222  0.5659
22889SOL     OW73223  12.010   9.905   2.132 -0.4456  0.2381  0.2370
22889SOL    HW173224  12.080   9.970   2.137  0.8518 -1.1818  1.3187
22889SOL    HW273225  12.052   9.826   2.098 -1.9020 -0.1843 -0.6769
22890SOL     OW73226   1.645   1.056   8.519 -0.3555 -0.1550 -0.4588
22890SOL    HW173227   1.607   0.978   8.561  0.6046 -0.5034 -0.2063
22890SOL    HW273228   1.723   1.023   8.474  0.7879  0.8394  0.6895
22891SOL     OW73229  10.046   6.175   1.259  0.4013  0.0864 -0.2898
22891SOL    HW173230   9.974   6.225   1.219  0.6816 -0.3751 -1.4144
22891SOL    HW273231  10.030   6.085   1.232  0.8373 -0.1777  0.3147
22892SOL     OW73232   2.750   3.544   7.362  0.2676 -0.3939  0.0102
22892SOL    HW173233   2.763   3.460   7.407 -1.8133 -1.0712 -0.5471
22892SOL    HW273234   2.680   3.586   7.412 -0.5193 -0.1711 -1.2469
22893SOL     OW73235   1.537   0.029   6.518  0.0478  0.1054  0.3903
22893SOL    HW173236   1.556   0.122   6.514  1.2457 -0.1535 -0.4597
22893SOL    HW273237   1.615  -0.011   6.555 -0.5243 -0.5526  0.9259
22894SOL     OW73238   1.146   2.127   1.695  0.5090  0.5170 -0.0783
22894SOL    HW173239   1.231   2.096   1.663  1.2219  1.2362  1.0221
22894SOL    HW273240   1.146   2.103   1.788 -0.6669  0.1645 -0.1670
22895SOL     OW73241   9.436   6.122   0.022 -0.4986  0.0833 -0.1057
22895SOL    HW173242   9.428   6.176   0.101 -0.5226  0.1841 -0.1768
22895SOL    HW273243   9.445   6.033   0.055 -2.3387 -0.0979 -0.0249
22896SOL     OW73244  10.216  10.079  11.500  0.2385 -0.3145 -0.2480
22896SOL    HW173245  10.224  10.114  11.411  0.0737 -0.3527 -0.2788
22896SOL    HW273246  10.290  10.116  11.547 -0.9919  1.6928  0.2628
22897SOL     OW73247   2.483   1.882   9.088 -0.6708 -0.2604  0.2302
22897SOL    HW173248   2.419   1.825   9.047 -1.4893  1.5255 -1.1020
22897SOL    HW273249   2.560   1.826   9.102 -1.7590 -1.8972 -0.1218
22898SOL     OW73250   0.501  10.836   5.625 -0.2073  0.2219  0.5153
22898SOL    HW173251   0.417  10.874   5.652 -0.5902 -0.6443  0.5656
22898SOL    HW273252   0.566  10.882   5.678 -0.4771  1.9278 -0.5266
22899SOL     OW73253   6.055  10.670   8.118  0.2107  0.6218 -0.0857
22899SOL    HW173254   5.963  10.692   8.134  0.1670  1.1760 -1.0024
22899SOL    HW273255   6.095  10.671   8.204 -0.7864 -0.3082  0.4012
22900SOL     OW73256   8.161   4.566   3.007 -0.1048 -0.1823  0.3223
22900SOL    HW173257   8.077   4.594   2.970  0.7797 -0.0640 -1.7028
22900SOL    HW273258   8.146   4.475   3.033 -0.6339 -0.4656 -0.8918
22901SOL     OW73259   3.740   4.514   2.671 -0.9158  0.2529  0.0566
22901SOL    HW173260   3.729   4.452   2.743 -2.1395 -0.3429 -0.6069
22901SOL    HW273261   3.737   4.600   2.712 -0.1118 -0.1120  0.8863
22902SOL     OW73262   0.686   5.303   9.471 -0.0240  0.1384  0.3299
22902SOL    HW173263   0.737   5.329   9.547 -0.3505 -0.6091  0.8088
22902SOL    HW273264   0.659   5.213   9.489  2.0924 -1.0386 -1.8119
22903SOL     OW73265   2.633   6.126   5.666  0.0310 -0.5317  0.2995
22903SOL    HW173266   2.583   6.060   5.713 -0.7251 -1.2831 -1.4377
22903SOL    HW273267   2.569   6.192   5.641  0.2099 -0.6038 -0.4004
22904SOL     OW73268   5.124   2.121   8.789 -0.5026  0.0996 -0.0030
22904SOL    HW173269   5.140   2.212   8.811  0.2764 -0.2413  0.8841
22904SOL    HW273270   5.211   2.082   8.779 -0.8209 -0.3943 -1.1043
22905SOL     OW73271  11.000   3.430  10.013 -0.0096  0.1279  0.3534
22905SOL    HW173272  10.909   3.458   9.998  0.1116  0.2161 -0.2588
22905SOL    HW273273  10.993   3.337  10.035 -0.2033 -0.0659 -0.4599
22906SOL     OW73274   2.076  10.572   1.311  0.5399 -0.4008 -0.1999
22906SOL    HW173275   2.092  10.553   1.219 -2.2852 -0.8930 -0.6562
22906SOL    HW273276   2.022  10.651   1.311 -1.3845 -1.6322  0.8350
22907SOL     OW73277  11.038   5.936   5.124  0.3515  0.3757 -0.3167
22907SOL    HW173278  11.049   5.998   5.196  0.5016  0.6513 -0.5720
22907SOL    HW273279  11.020   5.853   5.167  0.0543  0.6124  0.0296
22908SOL     OW73280  11.276   1.706  11.585 -0.2491  0.2035  0.1296
22908SOL    HW173281  11.290   1.692  11.491 -0.1274  1.1613 -0.0054
22908SOL    HW273282  11.190   1.747  11.590 -0.6960 -0.7466  0.5312
22909SOL     OW73283   6.392   5.439   3.930  0.1960  0.4517  0.3913
22909SOL    HW173284   6.384   5.434   3.835  1.9608  0.6794  0.1939
22909SOL    HW273285   6.360   5.526   3.953 -0.6580  0.2278  0.0664
22910SOL     OW73286   3.411   2.112   7.233  0.2678 -0.0265 -0.5388
22910SOL    HW173287   3.478   2.077   7.292  0.3346  0.1969 -0.4789
22910SOL    HW273288   3.456   2.183   7.187  0.9420 -1.6797 -2.5972
22911SOL     OW73289   3.709   0.925   4.400 -0.0944 -0.4992  0.1895
22911SOL    HW173290   3.751   0.872   4.468  1.4190 -0.4285 -0.6498
22911SOL    HW273291   3.781   0.956   4.345 -1.1503  0.5976 -0.6461
22912SOL     OW73292  11.709   0.500  11.178  0.6293 -0.3193  0.6495
22912SOL    HW173293  11.663   0.447  11.244 -0.3711 -0.9932 -0.5469
22912SOL    HW273294  11.638   0.542  11.129  1.3720  0.2689  0.0750
22913SOL     OW73295   2.934  11.044   3.091 -0.5281 -0.6374  0.2170
22913SOL    HW173296   2.980  11.120   3.055  2.6439 -2.5409 -0.2030
22913SOL    HW273297   2.928  11.061   3.185 -0.0103  0.2285  0.0990
22914SOL     OW73298   4.722   2.667   5.624 -0.5603 -0.0605 -0.4656
22914SOL    HW173299   4.708   2.751   5.667  0.2067 -0.6937  1.1137
22914SOL    HW273300   4.712   2.603   5.694  2.0018 -1.0778 -0.9081
22915SOL     OW73301  11.683   1.947   9.211  0.0660 -0.0982  0.1285
22915SOL    HW173302  11.744   1.875   9.192  0.4590  0.1999  0.2605
22915SOL    HW273303  11.602   1.922   9.166 -1.3680 -2.8744  3.7154
22916SOL     OW73304   9.619   3.167   6.877  0.0632 -0.0227  0.2519
22916SOL    HW173305   9.601   3.188   6.968 -1.9546 -2.7140  0.6074
22916SOL    HW273306   9.700   3.116   6.880  0.8931  1.2499  0.2804
22917SOL     OW73307   4.205   2.396   5.208  0.1571 -0.1708 -0.0330
22917SOL    HW173308   4.271   2.352   5.155  0.9370  0.6099  0.2738
22917SOL    HW273309   4.183   2.475   5.159  0.9404  0.5968  0.8085
22918SOL     OW73310   0.625   3.915   8.423 -0.1775  0.3292  0.3212
22918SOL    HW173311   0.597   3.979   8.489  1.4669 -1.2845  2.7629
22918SOL    HW273312   0.544   3.873   8.395 -0.9807  1.3818  0.9522
22919SOL     OW73313   1.862   8.464  10.995 -0.0051  0.3249 -0.8623
22919SOL    HW173314   1.943   8.486  10.948 -0.3588 -1.3556 -2.3656
22919SOL    HW273315   1.792   8.494  10.937 -0.4584 -0.2273 -0.6101
22920SOL     OW73316   4.582   0.260   5.455  0.1503 -0.5372 -0.5962
22920SOL    HW173317   4.514   0.256   5.521 -0.0138 -1.2705 -0.7961
22920SOL    HW273318   4.656   0.303   5.499 -0.9247  1.6798 -0.8427
22921SOL     OW73319   4.863  10.410   0.797 -0.2413 -0.4789 -0.2466
22921SOL    HW173320   4.859  10.325   0.840 -0.9215  0.4997  1.7842
22921SOL    HW273321   4.814  10.398   0.715 -0.3779 -2.0092  0.0233
22922SOL     OW73322   8.458   2.418  12.025  0.6676 -0.1105 -0.5648
22922SOL    HW173323   8.525   2.441  12.089 -0.1779 -0.7906  0.6120
22922SOL    HW273324   8.466   2.323  12.015  0.3989 -0.0869 -1.0077
22923SOL     OW73325   0.950   1.197   2.606  0.0990  0.4698  0.6642
22923SOL    HW173326   0.899   1.182   2.686 -0.1960 -0.0599  0.3788
22923SOL    HW273327   1.019   1.258   2.633  0.4105 -0.2243  1.4863
22924SOL     OW73328   7.808  11.227  10.257  0.2719 -0.5039  0.1877
22924SOL    HW173329   7.741  11.289  10.286 -0.3551 -0.9089 -0.3759
22924SOL    HW273330   7.787  11.210  10.166  1.7485  0.1389 -0.2975
22925SOL     OW73331   0.425   7.662   6.560  0.0200 -0.0369  0.4066
22925SOL    HW173332   0.351   7.603   6.554 -0.2487  0.3973 -0.9129
22925SOL    HW273333   0.493   7.613   6.606  0.3155 -1.9361 -1.8642
22926SOL     OW73334   2.833   8.515   7.462 -0.3137  0.3036 -0.0625
22926SOL    HW173335   2.900   8.572   7.499  1.0601 -1.9454  1.0973
22926SOL    HW273336   2.881   8.441   7.426 -2.1027 -0.8200 -0.2739
22927SOL     OW73337   3.636  11.201   7.683  0.1403 -0.4249  0.1531
22927SOL    HW173338   3.707  11.165   7.629  0.7374  1.0693 -0.1063
22927SOL    HW273339   3.591  11.262   7.626 -0.3218 -0.1189  0.8333
22928SOL     OW73340   6.232   6.768  10.446 -0.4394 -0.3909  0.1287
22928SOL    HW173341   6.149   6.769  10.493  0.5498  1.2870  2.0182
22928SOL    HW273342   6.297   6.744  10.512  0.5743 -2.1555 -1.4216
22929SOL     OW73343   4.113   0.717   0.669  0.2826  0.5644  0.2737
22929SOL    HW173344   4.126   0.778   0.596  0.7562  1.0362  0.7395
22929SOL    HW273345   4.079   0.772   0.739 -1.3147 -0.0995  0.0600
22930SOL     OW73346   2.001   8.567   7.482  0.1133 -0.2573  0.4810
22930SOL    HW173347   1.985   8.660   7.499  1.5518  0.0398  0.3000
22930SOL    HW273348   1.992   8.525   7.568  1.7669  0.4068  1.0088
22931SOL     OW73349   7.260   0.717   3.598  0.3341 -0.8849 -0.1968
22931SOL    HW173350   7.318   0.783   3.635  1.3877 -1.7098 -0.3324
22931SOL    HW273351   7.274   0.722   3.504  1.2250 -2.0100 -0.1382
22932SOL     OW73352   2.485  10.542   6.834 -0.3618  0.9397 -0.0234
22932SOL    HW173353   2.564  10.560   6.885 -0.0256  1.1541 -0.6019
22932SOL    HW273354   2.424  10.504   6.896 -0.9370  3.6075  1.1834
22933SOL     OW73355   5.101   8.498   4.893 -0.2381  0.2712 -0.7374
22933SOL    HW173356   5.119   8.405   4.904 -0.6409  0.2016 -0.6727
22933SOL    HW273357   5.158   8.542   4.957 -1.1168 -0.0149  0.2523
22934SOL     OW73358   7.152   0.560   9.300 -0.8952 -0.3867 -0.1956
22934SOL    HW173359   7.102   0.641   9.314 -0.6863 -0.2844 -0.0175
22934SOL    HW273360   7.176   0.562   9.207 -0.2941  0.1120 -0.0395
22935SOL     OW73361  10.120   8.090   9.670  0.0747  0.5110 -0.0210
22935SOL    HW173362  10.089   8.175   9.700 -0.8027 -0.1157  0.9211
22935SOL    HW273363  10.059   8.065   9.600 -0.6901 -0.0507  0.8173
22936SOL     OW73364   0.299   6.799  10.711  0.4864 -0.3252  0.5237
22936SOL    HW173365   0.387   6.797  10.749  0.7654 -0.8021 -0.1354
22936SOL    HW273366   0.297   6.726  10.650 -0.7054 -0.9373  1.2579
22937SOL     OW73367   7.748   0.315   6.559 -0.6905  0.4504  0.0043
22937SOL    HW173368   7.745   0.332   6.465  0.9366 -1.6423 -0.4932
22937SOL    HW273369   7.825   0.260   6.572 -1.3283 -0.0130  2.4645
22938SOL     OW73370   0.090   5.890   5.968 -0.1243  0.0811 -0.2342
22938SOL    HW173371   0.106   5.806   5.926 -1.3997  0.8090 -2.3635
22938SOL    HW273372  -0.005   5.891   5.982 -0.2193  1.3996 -0.8433
22939SOL     OW73373  11.678   7.736   5.580  0.4201  0.0251  0.0809
22939SOL    HW173374  11.650   7.820   5.545  0.1939 -0.5039 -1.0826
22939SOL    HW273375  11.606   7.676   5.557 -0.0691 -0.2384  2.0963
22940SOL     OW73376  10.557  10.616   4.033  0.8377  0.1802 -0.3781
22940SOL    HW173377  10.636  10.624   3.979  1.8932 -0.8148  0.9610
22940SOL    HW273378  10.589  10.594   4.120 -0.9891 -1.4279 -0.0496
22941SOL     OW73379   9.633   1.752   3.147  1.0715  0.5232  0.1143
22941SOL    HW173380   9.655   1.820   3.083 -1.5423  1.7032  0.3542
22941SOL    HW273381   9.713   1.743   3.200  1.5108  3.4740  0.1195
22942SOL     OW73382   4.050   2.427   6.122  0.0782  0.7576  0.8044
22942SOL    HW173383   4.135   2.403   6.086 -0.9603 -1.2538 -0.4424
22942SOL    HW273384   4.014   2.490   6.059 -0.5119 -0.5462 -0.1929
22943SOL     OW73385  10.733   4.056  10.622  0.1359  0.5133  0.3155
22943SOL    HW173386  10.725   4.079  10.529 -0.2479 -1.3471 -0.1596
22943SOL    HW273387  10.700   4.132  10.669  1.3423  1.9332 -1.0138
22944SOL     OW73388   1.049  11.514   6.560  0.1553  0.2547  0.5006
22944SOL    HW173389   0.994  11.437   6.577  0.8437  0.2120  3.0825
22944SOL    HW273390   1.136  11.477   6.545  0.0935  0.4636 -0.4244
22945SOL     OW73391  11.156   6.642   5.685 -0.3875 -0.3945 -0.3476
22945SOL    HW173392  11.182   6.661   5.775 -0.4432  0.1988 -0.4494
22945SOL    HW273393  11.078   6.587   5.693 -0.7960  0.2194 -0.0202
22946SOL     OW73394   8.265   5.424   0.552 -0.1305  0.1610 -0.8249
22946SOL    HW173395   8.333   5.475   0.594 -0.5662  0.2116 -0.1630
22946SOL    HW273396   8.259   5.459   0.463  0.1107  0.7236 -0.6193
22947SOL     OW73397  10.062   3.249   5.625 -0.0279 -0.2753  0.5498
22947SOL    HW173398   9.999   3.178   5.638 -1.8063  1.1201  0.0167
22947SOL    HW273399  10.057   3.301   5.705 -1.6874  1.3598 -0.5237
22948SOL     OW73400   0.514   1.992   3.376  0.2222 -0.0974 -0.0268
22948SOL    HW173401   0.511   2.020   3.467 -0.3850 -0.5521  0.1004
22948SOL    HW273402   0.597   1.943   3.369 -0.4500 -1.4083  0.7003
22949SOL     OW73403   3.743   3.793  10.007  0.2916  0.6652  0.4283
22949SOL    HW173404   3.726   3.780   9.914  2.0214  3.6058 -0.4250
22949SOL    HW273405   3.669   3.846  10.038  0.3501  0.7453  0.4309
22950SOL     OW73406  11.524   0.196   3.811 -0.3617  0.5757  0.1273
22950SOL    HW173407  11.539   0.290   3.825 -0.1636  0.4627  0.6861
22950SOL    HW273408  11.604   0.154   3.841 -0.4150  0.2300 -0.2116
22951SOL     OW73409   9.798  11.906   9.366  0.0148 -0.6237  0.4047
22951SOL    HW173410   9.784  11.811   9.371 -1.1748 -0.4972 -0.2930
22951SOL    HW273411   9.795  11.936   9.457 -0.8013 -1.0969  0.5395
22952SOL     OW73412   5.926   5.602   8.706 -0.3403  0.5765  0.2392
22952SOL    HW173413   5.857   5.549   8.744 -1.0667  1.2160 -0.1606
22952SOL    HW273414   6.000   5.592   8.766  0.3782 -2.7067 -0.9470
22953SOL     OW73415   1.498  10.744   7.408  0.1955  0.0345 -0.3799
22953SOL    HW173416   1.530  10.657   7.430 -0.0568 -0.0883 -0.4966
22953SOL    HW273417   1.403  10.738   7.418  0.1177  0.1013 -1.0554
22954SOL     OW73418   0.100   9.312   9.418  0.4542  0.3500 -0.7083
22954SOL    HW173419   0.131   9.227   9.449  1.7861  1.7786  2.2260
22954SOL    HW273420   0.162   9.375   9.454 -2.8824  2.9694  1.0176
22955SOL     OW73421   4.038   5.836   4.752 -0.0957  0.3149  0.0963
22955SOL    HW173422   4.006   5.800   4.835  1.4981 -1.9195 -0.1505
22955SOL    HW273423   4.108   5.896   4.777  0.6237 -0.6264  0.3888
22956SOL     OW73424   0.917   6.070   4.138  0.3539 -0.3150  0.7499
22956SOL    HW173425   0.872   6.060   4.221  1.0585  1.9538  1.4717
22956SOL    HW273426   0.918   6.165   4.122  2.3096 -0.5054 -0.6403
22957SOL     OW73427   5.506   8.221   4.862  0.6409 -0.0378  0.5712
22957SOL    HW173428   5.478   8.139   4.821 -0.3037 -0.0952  1.2894
22957SOL    HW273429   5.450   8.288   4.823  1.2605  0.2395  0.1489
22958SOL     OW73430  10.149   0.705   3.284 -0.5863  0.1070  0.0305
22958SOL    HW173431  10.178   0.716   3.194 -2.5846 -1.8241 -0.9302
22958SOL    HW273432  10.194   0.626   3.314  1.2330  1.5318  1.3379
22959SOL     OW73433  11.167   0.933   4.874 -0.4274 -0.4106  0.0121
22959SOL    HW173434  11.083   0.925   4.828 -0.8010  0.3020  0.5621
22959SOL    HW273435  11.167   1.021   4.910  1.0274 -0.0047 -0.8722
22960SOL     OW73436   3.843  10.371   5.074 -0.1077 -0.1934 -0.5628
22960SOL    HW173437   3.921  10.412   5.110  0.2945 -1.4721  0.0991
22960SOL    HW273438   3.780  10.372   5.146 -0.7943  1.0129 -1.1550
22961SOL     OW73439   5.515   4.932   8.109  0.6175 -0.1322  0.2231
22961SOL    HW173440   5.461   4.930   8.030 -0.8754 -0.3761  1.2202
22961SOL    HW273441   5.510   5.023   8.140 -1.2412 -0.6517  1.6221
22962SOL     OW73442   1.227   6.033   7.302 -0.0273 -0.0237  0.3276
22962SOL    HW173443   1.157   5.980   7.342  0.6027 -1.1469 -0.0142
22962SOL    HW273444   1.259   6.088   7.373 -0.8840  0.0997  0.6277
22963SOL     OW73445   0.514   2.954   2.487 -0.1259 -0.0570  0.1044
22963SOL    HW173446   0.530   2.959   2.393 -0.3789  1.4256  0.1224
22963SOL    HW273447   0.468   2.871   2.499  0.3078 -0.4730 -1.0105
22964SOL     OW73448   8.898   6.666   9.240  0.3500 -0.5466  0.6305
22964SOL    HW173449   8.874   6.682   9.331 -0.2109 -0.1231  0.4134
22964SOL    HW273450   8.919   6.573   9.236  0.0696 -0.6318  1.1201
22965SOL     OW73451   5.348  10.350   7.899  0.2349  0.0995 -0.6214
22965SOL    HW173452   5.374  10.304   7.979  1.1126 -0.0648 -0.9984
22965SOL    HW273453   5.256  10.373   7.914  0.8838  1.7518  1.2157
22966SOL     OW73454   6.673   0.216   0.242 -1.0781  0.1131 -0.3749
22966SOL    HW173455   6.613   0.213   0.168 -0.0829 -1.8953 -1.1793
22966SOL    HW273456   6.645   0.144   0.299  0.4769 -0.8099 -0.7261
22967SOL     OW73457   4.782  10.301   7.132 -0.2421 -0.1841 -0.3649
22967SOL    HW173458   4.840  10.295   7.207 -0.8726  0.3900  0.1809
22967SOL    HW273459   4.695  10.312   7.169 -0.2732  3.1463 -1.1316
22968SOL     OW73460   1.041   0.932   2.736 -0.3808 -0.1315 -0.0036
22968SOL    HW173461   0.951   0.902   2.728 -0.4610 -0.5956  2.1580
22968SOL    HW273462   1.094   0.857   2.709 -0.6318 -0.8771  1.5147
22969SOL     OW73463  11.562   9.021   3.888  1.2028  0.1982  0.0117
22969SOL    HW173464  11.539   8.944   3.939  0.6574  0.3102 -0.0627
22969SOL    HW273465  11.478   9.059   3.862  1.4710  0.3972 -0.5824
22970SOL     OW73466   3.039   8.616   2.019  0.0196 -0.0680 -0.3553
22970SOL    HW173467   3.085   8.688   2.061 -1.0896  0.0539  0.6880
22970SOL    HW273468   3.096   8.589   1.947  1.4698  0.3964  0.5999
22971SOL     OW73469   1.389  10.392   0.186 -0.6010  0.1858  0.1679
22971SOL    HW173470   1.393  10.402   0.091  1.1017  1.2750  0.3068
22971SOL    HW273471   1.430  10.308   0.204 -0.2553  0.3154 -0.0143
22972SOL     OW73472   8.431   0.152   3.358  0.2304  0.0814 -0.2382
22972SOL    HW173473   8.516   0.191   3.340  0.4428 -0.0221  0.5154
22972SOL    HW273474   8.441   0.108   3.443 -0.1328 -1.2353 -0.8448
22973SOL     OW73475   1.061   6.424  11.409 -0.6391 -0.9015 -0.7316
22973SOL    HW173476   1.149   6.397  11.386  0.9377  3.7174 -1.0799
22973SOL    HW273477   1.052   6.401  11.502  0.5238 -2.2549 -0.9329
22974SOL     OW73478   8.719  10.237   7.433 -0.8617  0.0820 -0.5024
22974SOL    HW173479   8.671  10.221   7.514 -1.4563 -0.4049 -0.9400
22974SOL    HW273480   8.651  10.263   7.370 -0.3139  1.2331 -0.6483
22975SOL     OW73481  10.391   4.374   3.842  0.2304  0.2869 -0.3303
22975SOL    HW173482  10.390   4.469   3.836  1.8245  0.5286  1.9930
22975SOL    HW273483  10.351   4.354   3.926  0.0119 -1.1053 -0.7310
22976SOL     OW73484  11.033   0.785   9.410 -0.0699  0.2264 -0.0573
22976SOL    HW173485  11.029   0.710   9.351 -0.0246 -0.2775  0.5716
22976SOL    HW273486  11.087   0.849   9.364  1.5130 -0.8686  0.1962
22977SOL     OW73487  10.377   9.665   4.703 -0.9520  0.2143 -0.0264
22977SOL    HW173488  10.289   9.650   4.670 -0.1017 -0.6839 -2.0267
22977SOL    HW273489  10.379   9.620   4.788 -2.3226  0.0818 -0.0452
22978SOL     OW73490   3.330   6.765   0.139 -0.1894  0.0167  0.4654
22978SOL    HW173491   3.316   6.675   0.109  0.8410  0.3190 -1.0604
22978SOL    HW273492   3.414   6.790   0.101 -0.0379  1.3518  1.5722
22979SOL     OW73493   1.711  11.036   5.340  0.1033 -0.1745 -0.1957
22979SOL    HW173494   1.788  11.063   5.289 -0.2117 -3.5521 -2.8147
22979SOL    HW273495   1.745  10.977   5.407 -0.0720 -0.7996 -0.6490
22980SOL     OW73496   6.191   2.375   0.019  0.9105  0.2238 -0.4624
22980SOL    HW173497   6.207   2.376   0.114  2.0684 -1.0169 -0.6158
22980SOL    HW273498   6.108   2.330   0.010  0.8217  0.2946 -0.0407
22981SOL     OW73499   4.864   4.210   5.664  0.5132  0.1740  0.9291
22981SOL    HW173500   4.816   4.128   5.676 -1.0476  1.2588  2.6885
22981SOL    HW273501   4.949   4.194   5.707 -0.1322 -0.2421  2.0877
22982SOL     OW73502   2.878   8.724   2.597 -0.0236  0.1586 -0.4839
22982SOL    HW173503   2.965   8.756   2.619 -0.2141  1.1659 -1.1325
22982SOL    HW273504   2.894   8.642   2.550  0.5580  0.1602 -0.2928
22983SOL     OW73505   8.463   3.616  10.906 -0.3984  0.4474  0.5260
22983SOL    HW173506   8.399   3.545  10.917  0.7492 -0.4308  1.7718
22983SOL    HW273507   8.446   3.675  10.979  1.1139 -0.5582  1.7687
22984SOL     OW73508   7.585   4.145   5.245 -0.1859  0.0725 -0.0814
22984SOL    HW173509   7.606   4.233   5.213  0.5912 -0.0001  0.2070
22984SOL    HW273510   7.513   4.159   5.307 -0.3029  0.4592 -0.2975
22985SOL     OW73511   4.154   8.476   7.558  0.5679 -0.5726 -0.2515
22985SOL    HW173512   4.141   8.426   7.639 -0.9201  1.0325  0.5674
22985SOL    HW273513   4.126   8.417   7.488 -1.9104 -0.6867  0.7523
22986SOL     OW73514   7.621   2.694   8.469  0.1504  0.1480 -0.3101
22986SOL    HW173515   7.684   2.639   8.421 -1.6177 -2.0678 -0.2755
22986SOL    HW273516   7.670   2.726   8.544  2.2167  1.4704 -2.0946
22987SOL     OW73517   9.341   1.984   8.133  0.6521 -0.3544  0.6143
22987SOL    HW173518   9.275   2.015   8.071  0.5852 -1.9321 -0.1523
22987SOL    HW273519   9.402   2.058   8.143  0.4393  0.0759 -1.0249
22988SOL     OW73520   4.717   2.556   3.568  0.4208  0.1145  0.0906
22988SOL    HW173521   4.687   2.527   3.483  1.2573  0.2618 -0.2641
22988SOL    HW273522   4.765   2.637   3.551  1.7743 -0.5629  0.5059
22989SOL     OW73523   7.210   0.798   7.236 -0.0256  0.1833 -0.1079
22989SOL    HW173524   7.246   0.711   7.217 -0.2162  0.4496 -1.8582
22989SOL    HW273525   7.122   0.781   7.268  0.3713 -0.3165  0.7391
22990SOL     OW73526   1.090  10.790   6.880  0.1056 -0.2003  0.7836
22990SOL    HW173527   1.144  10.727   6.929  1.8494 -1.0479 -1.9768
22990SOL    HW273528   1.154  10.853   6.846 -0.9573  0.1362 -0.6519
22991SOL     OW73529  11.282   8.244   4.243  0.4216  0.1665 -0.2622
22991SOL    HW173530  11.345   8.175   4.266  0.0546 -0.1334 -0.1367
22991SOL    HW273531  11.335   8.323   4.232  0.6842  0.2048  1.0661
22992SOL     OW73532   9.215   7.988  10.749  0.3533 -0.1400  0.0259
22992SOL    HW173533   9.194   7.895  10.756 -0.2166 -0.0881 -0.8656
22992SOL    HW273534   9.253   8.010  10.834 -1.0704 -0.7770  0.8628
22993SOL     OW73535   5.243  10.741   4.741  0.0868  0.1187  0.2682
22993SOL    HW173536   5.205  10.811   4.794  0.0739  1.4148 -1.3845
22993SOL    HW273537   5.312  10.784   4.691  0.5144 -1.2013 -0.3026
22994SOL     OW73538   2.382   0.772   9.082 -0.2131  0.1994 -0.3008
22994SOL    HW173539   2.474   0.744   9.091 -0.3251 -0.2646 -0.5659
22994SOL    HW273540   2.383   0.865   9.105  0.3082  0.1726 -0.1990
22995SOL     OW73541   5.551  10.575   8.121 -0.4099  0.0031 -0.6182
22995SOL    HW173542   5.501  10.494   8.107  1.1399 -0.7248 -2.2152
22995SOL    HW273543   5.576  10.571   8.214  0.7314 -2.0240 -0.9610
22996SOL     OW73544   5.824  11.233   5.990 -0.1184  0.0164  1.1840
22996SOL    HW173545   5.886  11.163   5.970 -2.0670 -0.9191 -2.4892
22996SOL    HW273546   5.872  11.314   5.975  1.0115 -0.6147  1.3208
22997SOL     OW73547   4.576   8.395   8.551 -0.1565  0.6498  0.9038
22997SOL    HW173548   4.549   8.305   8.533  0.7600  0.7081 -0.9268
22997SOL    HW273549   4.509   8.449   8.509  0.6369  0.7940 -0.2152
22998SOL     OW73550  11.587   9.261   9.867 -0.3408  0.4060  0.4520
22998SOL    HW173551  11.499   9.265   9.828 -0.7757  0.8402  1.4412
22998SOL    HW273552  11.588   9.331   9.931  0.5329  0.0234  0.8707
22999SOL     OW73553   0.303   2.116   1.653  0.1079  0.4212  0.3991
22999SOL    HW173554   0.335   2.196   1.696  1.1595  0.3785 -0.2757
22999SOL    HW273555   0.299   2.051   1.724  0.4325  0.7436  0.7194
23000SOL     OW73556   7.686   2.805   7.271 -0.3013  0.4696 -0.4344
23000SOL    HW173557   7.671   2.736   7.205  2.5145  0.0287 -0.7186
23000SOL    HW273558   7.696   2.757   7.353 -0.5733  0.7486 -0.2389
23001SOL     OW73559   1.858   0.751   4.460  0.2673 -0.2469 -0.3707
23001SOL    HW173560   1.823   0.664   4.480 -0.1881  0.3621  1.8128
23001SOL    HW273561   1.855   0.797   4.544 -0.9696  2.4089 -1.7803
23002SOL     OW73562   2.315   5.899   4.051  0.6120 -0.4241  0.3297
23002SOL    HW173563   2.290   5.807   4.045 -1.2395  0.0869 -1.3954
23002SOL    HW273564   2.345   5.911   4.141 -1.2099 -2.2386  1.2597
23003SOL     OW73565   6.555   5.117   1.343 -0.3196  0.7102 -0.1290
23003SOL    HW173566   6.536   5.079   1.257 -0.7654  2.7454 -1.0011
23003SOL    HW273567   6.618   5.057   1.383  2.4813  1.2801 -3.2184
23004SOL     OW73568   1.239   4.877   7.851  0.6047  0.4011 -0.3698
23004SOL    HW173569   1.163   4.860   7.795 -0.1439  0.2355  0.6572
23004SOL    HW273570   1.303   4.919   7.793 -0.7816  1.7917 -0.9704
23005SOL     OW73571   2.043   6.128   4.995  0.1507 -0.4256  0.2637
23005SOL    HW173572   2.053   6.221   4.972  0.5030 -0.4491  0.3269
23005SOL    HW273573   1.999   6.130   5.080 -0.1027 -0.3230  0.1338
23006SOL     OW73574   0.692   4.805   4.974  0.0777 -0.0776 -0.0679
23006SOL    HW173575   0.671   4.881   5.028  0.9193  1.8515 -2.3013
23006SOL    HW273576   0.660   4.827   4.887  2.2864 -1.2859 -1.3024
23007SOL     OW73577   8.005  10.669   7.698  0.3792  0.1280  0.0300
23007SOL    HW173578   7.954  10.640   7.774 -0.4686 -0.1929 -0.6428
23007SOL    HW273579   8.089  10.696   7.735 -0.1017  0.2170  1.1113
23008SOL     OW73580   4.334   0.344   1.675  0.1832 -0.5100  0.5363
23008SOL    HW173581   4.368   0.257   1.695  1.5161  0.1800  1.4151
23008SOL    HW273582   4.411   0.395   1.650 -0.9889 -0.5855 -4.1688
23009SOL     OW73583   3.842   0.622  10.905 -0.0555 -0.2312  0.0298
23009SOL    HW173584   3.926   0.651  10.942 -2.0600  2.3033  3.1056
23009SOL    HW273585   3.820   0.543  10.955 -1.8495  2.1289  3.3659
23010SOL     OW73586   1.406  11.271   7.809  0.1006  0.7168  0.2267
23010SOL    HW173587   1.488  11.222   7.799  0.2672  1.0145  0.1340
23010SOL    HW273588   1.431  11.362   7.798 -0.2123  0.8247  0.4068
23011SOL     OW73589   7.935   4.376  10.070 -0.0057  0.0030  0.0437
23011SOL    HW173590   7.920   4.284  10.090  2.7974 -0.1000  2.3116
23011SOL    HW273591   8.001   4.375  10.001 -1.6369  0.4020 -1.6026
23012SOL     OW73592   6.927   1.391   3.168 -0.1665 -0.0898 -0.4749
23012SOL    HW173593   6.836   1.419   3.163 -0.5337 -0.2842  2.8379
23012SOL    HW273594   6.923   1.299   3.193  0.8850  0.1721  0.7542
23013SOL     OW73595  11.524   0.577   9.503  0.1014 -0.2211  0.1095
23013SOL    HW173596  11.501   0.615   9.588 -1.1279 -1.2512  0.2705
23013SOL    HW273597  11.460   0.613   9.443  0.8854  0.3982 -0.3647
23014SOL     OW73598   7.263   6.921   0.533  0.4469  0.4461  0.2053
23014SOL    HW173599   7.303   6.841   0.567 -1.7533  0.3126  2.8284
23014SOL    HW273600   7.267   6.982   0.606 -0.7233  1.6657 -0.7157
23015SOL     OW73601   9.826   2.097   6.798 -0.4524 -0.3851  0.2337
23015SOL    HW173602   9.893   2.049   6.749  0.7861  0.9873  0.5244
23015SOL    HW273603   9.794   2.163   6.737  0.9965  1.2413  1.1285
23016SOL     OW73604   7.393   4.830  10.664 -0.3131 -0.0070 -1.0212
23016SOL    HW173605   7.383   4.922  10.643  0.1019 -0.1565 -1.9229
23016SOL    HW273606   7.460   4.827  10.732 -0.3496  0.3562 -0.9696
23017SOL     OW73607   2.180   4.906   2.405  0.4246 -0.0818 -0.2613
23017SOL    HW173608   2.124   4.866   2.471  0.6186 -0.5550 -0.3811
23017SOL    HW273609   2.266   4.868   2.420  0.1676 -1.3548 -1.7291
23018SOL     OW73610   3.469   1.466   8.312  0.1059 -0.2125  0.5696
23018SOL    HW173611   3.562   1.447   8.301  0.1849 -0.2716  1.2941
23018SOL    HW273612   3.450   1.532   8.246  0.1988 -1.6079 -0.9078
23019SOL     OW73613   9.540   2.008   4.123 -0.3036  0.7037  0.7163
23019SOL    HW173614   9.468   1.962   4.080  0.8277 -0.9791  0.5340
23019SOL    HW273615   9.511   2.099   4.127 -1.9339  0.2783 -0.4067
23020SOL     OW73616   1.972  10.359   6.530 -0.5590  0.3760  0.4355
23020SOL    HW173617   1.988  10.351   6.436  0.6017 -0.1986  0.6637
23020SOL    HW273618   2.049  10.319   6.571 -1.1743  0.3689  1.6316
23021SOL     OW73619   2.854   7.570   2.082 -0.3658 -0.3117 -0.0116
23021SOL    HW173620   2.915   7.506   2.118 -0.5925 -2.0418 -2.4526
23021SOL    HW273621   2.909   7.628   2.030 -0.2606  1.1015  1.5992
23022SOL     OW73622   2.863   9.616   5.428  0.2504  0.1563  0.0402
23022SOL    HW173623   2.835   9.593   5.516 -0.7475  0.9586 -0.0406
23022SOL    HW273624   2.956   9.592   5.424  0.5733  1.0017  1.6289
23023SOL     OW73625   7.500   5.461   5.487  0.0847  0.9903  0.3191
23023SOL    HW173626   7.566   5.407   5.530 -2.2418 -1.5239  1.0606
23023SOL    HW273627   7.449   5.499   5.559 -1.7340 -0.4712 -0.1125
23024SOL     OW73628   2.043   8.709  10.241 -0.1869 -0.2261  0.2303
23024SOL    HW173629   2.105   8.723  10.170 -0.1136 -0.2815  0.2825
23024SOL    HW273630   2.042   8.614  10.254  0.3848 -0.1592  0.8202
23025SOL     OW73631   7.999  11.453   2.936 -0.7717 -0.1799  0.1869
23025SOL    HW173632   8.043  11.391   2.994 -3.0101 -0.1332  2.0767
23025SOL    HW273633   7.966  11.522   2.994 -2.9298 -0.0022 -1.1186
23026SOL     OW73634   8.662  10.636   3.860  0.3648 -0.5761 -0.3381
23026SOL    HW173635   8.722  10.583   3.911  0.5762 -1.4652 -1.4661
23026SOL    HW273636   8.654  10.590   3.776  1.0145  1.4528 -1.5938
23027SOL     OW73637   6.575   5.591   9.893 -0.3542 -0.8964 -0.1113
23027SOL    HW173638   6.651   5.622   9.943 -0.5557 -1.8531  0.8015
23027SOL    HW273639   6.517   5.552   9.958 -0.3071 -2.8082 -1.1423
23028SOL     OW73640   6.302   6.879   2.506  0.4316 -0.0413  0.3805
23028SOL    HW173641   6.346   6.821   2.444 -0.3524 -2.1036  1.6276
23028SOL    HW273642   6.262   6.946   2.452 -1.5722 -2.6068 -1.5968
23029SOL     OW73643   0.697   7.613   9.897  0.2156 -0.4382  0.4271
23029SOL    HW173644   0.766   7.586   9.836 -1.7263 -1.8680 -1.2779
23029SOL    HW273645   0.680   7.536   9.951  0.9220  0.3749  1.8645
23030SOL     OW73646   8.925   5.455   9.686 -0.0697 -0.4224  0.2556
23030SOL    HW173647   8.877   5.407   9.754  1.0162 -1.3179  0.4319
23030SOL    HW273648   8.955   5.387   9.626  1.0056  0.1025  0.1840
23031SOL     OW73649   5.587   6.707   6.515 -0.0849 -0.1251 -0.2576
23031SOL    HW173650   5.580   6.634   6.453 -0.1192 -0.4244  0.0946
23031SOL    HW273651   5.658   6.682   6.574  0.7444  0.6947 -0.8826
23032SOL     OW73652   8.785   0.538  10.661  0.2524 -0.0841  0.7635
23032SOL    HW173653   8.875   0.572  10.655 -0.4839  1.7407 -2.6536
23032SOL    HW273654   8.772   0.491  10.578 -2.3106  0.8224  0.5599
23033SOL     OW73655   8.574   9.486   3.906 -0.0189 -0.3690 -0.7275
23033SOL    HW173656   8.485   9.483   3.942  0.5602 -1.3362  0.6749
23033SOL    HW273657   8.618   9.555   3.956  0.4938 -1.0278 -0.2519
23034SOL     OW73658   1.641   7.524   5.458  0.4817  0.1924 -0.2660
23034SOL    HW173659   1.699   7.448   5.460 -0.5115 -0.6135 -0.9990
23034SOL    HW273660   1.574   7.505   5.523  0.8889  1.0126  0.4131
23035SOL     OW73661   3.635  10.133   5.109  0.3051 -0.3139  0.0270
23035SOL    HW173662   3.721  10.171   5.091  0.6004 -0.8191  0.3529
23035SOL    HW273663   3.579  10.168   5.040  1.0831 -1.0861 -1.0328
23036SOL     OW73664  10.448   4.467   1.504  0.2908  0.1691  1.1346
23036SOL    HW173665  10.421   4.558   1.494  2.1516  0.6936  0.6017
23036SOL    HW273666  10.375   4.426   1.551 -1.5213  1.4109 -0.4553
23037SOL     OW73667   0.638   6.851  11.466 -0.3159 -0.2246 -0.0120
23037SOL    HW173668   0.545   6.873  11.456 -0.2784  0.2044  0.5887
23037SOL    HW273669   0.646   6.766  11.422 -0.6627  0.4698 -1.4954
23038SOL     OW73670   6.011  10.247   6.648  0.0614 -0.0266 -0.1022
23038SOL    HW173671   5.923  10.285   6.652  0.4266  0.7990  0.3959
23038SOL    HW273672   6.065  10.316   6.610  0.5763 -0.3695  0.0001
23039SOL     OW73673   8.965  11.198   2.045  0.4190  0.0092  0.0205
23039SOL    HW173674   8.910  11.119   2.047 -0.1309  0.3501 -0.8299
23039SOL    HW273675   8.903  11.270   2.051  0.5030  0.4720 -2.9883
23040SOL     OW73676  11.436   0.411   2.990  0.1655 -0.3975 -0.0404
23040SOL    HW173677  11.464   0.321   3.010 -0.3481 -0.7683 -0.9608
23040SOL    HW273678  11.440   0.417   2.895  0.4577  0.6548  0.0266
23041SOL     OW73679   5.554   9.007  11.408 -0.1503 -0.1999  0.3706
23041SOL    HW173680   5.525   9.093  11.379 -2.4078 -1.6319 -1.9341
23041SOL    HW273681   5.496   8.985  11.481 -1.1907 -0.7379 -0.6041
23042SOL     OW73682   9.322  10.708   5.328  0.1684 -0.6811  0.0662
23042SOL    HW173683   9.229  10.693   5.314  0.1761  0.0891 -0.9670
23042SOL    HW273684   9.342  10.786   5.275  1.2378 -0.3940  0.8603
23043SOL     OW73685   1.115   2.465   4.476  0.0617  0.4216  0.9663
23043SOL    HW173686   1.128   2.560   4.477 -0.0593  0.6379 -3.1304
23043SOL    HW273687   1.026   2.453   4.444  0.8753 -0.9881 -0.9656
23044SOL     OW73688   8.766   5.317   3.141  0.2459  0.1669 -0.4593
23044SOL    HW173689   8.691   5.261   3.161  0.1504  0.6819  0.7704
23044SOL    HW273690   8.727   5.403   3.124  0.4295  0.0069 -1.7770
23045SOL     OW73691   3.441   5.876   4.214  0.2444  0.3695  0.4348
23045SOL    HW173692   3.506   5.847   4.279  1.1209  0.1371 -0.5295
23045SOL    HW273693   3.407   5.958   4.250  0.8323  0.3286  1.1159
23046SOL     OW73694   5.548   6.378   4.393  0.3760  0.3635  0.0183
23046SOL    HW173695   5.593   6.344   4.315  0.2232 -1.5072  0.6921
23046SOL    HW273696   5.607   6.444   4.428  0.5215  1.1312 -1.5687
23047SOL     OW73697   2.629  11.031   8.868  0.5316 -0.8047  0.2011
23047SOL    HW173698   2.612  11.075   8.952 -0.6962  0.6273 -0.7415
23047SOL    HW273699   2.670  11.098   8.814  0.7070 -1.5233 -0.5644
23048SOL     OW73700   4.754   3.728  10.448  0.2840 -0.3756 -0.4482
23048SOL    HW173701   4.683   3.787  10.423  1.5127  2.2672  1.7233
23048SOL    HW273702   4.715   3.670  10.512 -0.0606  0.8973  0.5439
23049SOL     OW73703   1.976  11.413   0.417 -0.5397  0.2684  0.2097
23049SOL    HW173704   1.920  11.376   0.350 -0.8896 -0.7278  1.0242
23049SOL    HW273705   1.921  11.416   0.496  0.0785  0.7052  0.6352
23050SOL     OW73706   2.788   5.024   2.050  0.0238 -0.0005 -0.2001
23050SOL    HW173707   2.771   5.037   1.957  0.2815  2.2643  0.0169
23050SOL    HW273708   2.779   5.111   2.088  0.6208 -0.7649  1.7950
23051SOL     OW73709   6.488   6.582   6.382 -0.6006  0.0696 -0.1844
23051SOL    HW173710   6.504   6.551   6.292 -0.5584 -1.3527  0.2861
23051SOL    HW273711   6.552   6.535   6.435  1.0670  2.7211  0.3463
23052SOL     OW73712   9.568   9.798   7.780  0.0608 -0.4216 -0.0009
23052SOL    HW173713   9.607   9.710   7.778 -0.1641 -0.5039 -1.5886
23052SOL    HW273714   9.614   9.842   7.852 -0.3446 -2.0542  1.3362
23053SOL     OW73715   1.615   4.533   3.850  0.7496 -0.1031 -0.5044
23053SOL    HW173716   1.621   4.505   3.941 -1.4643  1.7420  0.3051
23053SOL    HW273717   1.556   4.469   3.810 -1.8383  1.4629  0.5646
23054SOL     OW73718   8.835   2.772   6.096  0.1199 -0.5844 -0.9715
23054SOL    HW173719   8.849   2.689   6.049  0.3900 -1.3601  0.4174
23054SOL    HW273720   8.804   2.745   6.183 -1.0394  0.8356 -0.9159
23055SOL     OW73721   1.956  11.981   7.620  0.1104  0.1289  0.3761
23055SOL    HW173722   1.942  12.019   7.534 -0.2440 -0.2826  0.2498
23055SOL    HW273723   1.997  11.896   7.603  0.7078  0.3560  0.6471
23056SOL     OW73724   9.507   6.494  11.734  0.1299  0.2124 -0.8702
23056SOL    HW173725   9.419   6.457  11.734 -0.4972  1.5995 -2.0308
23056SOL    HW273726   9.498   6.578  11.779  1.2739 -0.4497  0.6659
23057SOL     OW73727  11.790   1.810   8.402  0.0319  0.0318  0.0476
23057SOL    HW173728  11.716   1.861   8.436 -0.0550 -0.5092  0.6958
23057SOL    HW273729  11.817   1.856   8.323  0.2293  1.3465  0.8471
23058SOL     OW73730  11.147   8.324   8.782  0.5212  0.2917  0.3843
23058SOL    HW173731  11.116   8.414   8.780  0.9129  0.4571  1.4050
23058SOL    HW273732  11.209   8.319   8.709  1.4215  1.2065  1.0560
23059SOL     OW73733   1.875   6.393   6.840  0.0388  0.5822 -0.4427
23059SOL    HW173734   1.932   6.466   6.818 -2.0035  1.9374 -1.5753
23059SOL    HW273735   1.865   6.345   6.757 -0.4010  0.3100 -0.2330
23060SOL     OW73736   9.080   4.440   7.119 -0.1917  0.5343  0.5013
23060SOL    HW173737   9.169   4.429   7.154 -0.1998 -0.2398  0.2985
23060SOL    HW273738   9.030   4.370   7.160 -0.2902 -0.1469 -0.7639
23061SOL     OW73739  12.112   3.911   1.567  0.2720  0.1442  0.2752
23061SOL    HW173740  12.148   3.828   1.535  0.1365  1.1721 -2.9271
23061SOL    HW273741  12.157   3.926   1.650  1.9155 -2.0542 -0.1115
23062SOL     OW73742   2.947  10.392   4.372  0.3608 -0.4343 -0.0966
23062SOL    HW173743   2.966  10.394   4.466  0.0178 -0.3990 -0.0258
23062SOL    HW273744   2.891  10.315   4.361  0.7639 -0.6944 -0.3446
23063SOL     OW73745   2.533   9.662  12.105  0.4469  0.2053  0.4609
23063SOL    HW173746   2.469   9.615  12.052  1.4240  0.6798 -1.2215
23063SOL    HW273747   2.617   9.642  12.064  1.2385  0.7117  1.7719
23064SOL     OW73748  11.742   8.783   6.774  0.3146  0.0258 -0.3809
23064SOL    HW173749  11.724   8.747   6.861 -0.7723  0.8374 -0.2518
23064SOL    HW273750  11.670   8.753   6.720  0.0696  0.9433 -0.5770
23065SOL     OW73751   0.293   9.272  10.227 -0.3837  0.2407 -0.2469
23065SOL    HW173752   0.329   9.333  10.163  1.2316 -0.8336 -0.4102
23065SOL    HW273753   0.199   9.269  10.207 -0.3580  1.9622 -0.7901
23066SOL     OW73754   0.846   4.314  11.537 -0.4962 -0.2223  0.2507
23066SOL    HW173755   0.856   4.219  11.542 -0.5068 -0.2199  0.3146
23066SOL    HW273756   0.885   4.347  11.618  1.4558 -0.0221 -0.6985
23067SOL     OW73757   5.167  11.338   8.913 -0.2164  0.3204  0.2478
23067SOL    HW173758   5.225  11.389   8.858  1.3469 -1.5488  0.0478
23067SOL    HW273759   5.148  11.395   8.987  0.2711  1.6941 -0.6513
23068SOL     OW73760   4.636  11.439   7.333 -0.0479  0.3511  0.0063
23068SOL    HW173761   4.664  11.486   7.255  1.0884 -0.6362 -0.2209
23068SOL    HW273762   4.717  11.429   7.384 -0.5432 -0.0801  0.7226
23069SOL     OW73763  12.123  10.305   1.268  0.0050 -0.2890  0.2709
23069SOL    HW173764  12.040  10.328   1.312 -1.5896  0.5897 -2.8800
23069SOL    HW273765  12.161  10.237   1.323 -2.6330 -0.4785  2.0670
23070SOL     OW73766   3.430   3.133   0.711  0.0698 -0.6240 -0.2766
23070SOL    HW173767   3.386   3.064   0.759  0.8671 -0.5263  0.6154
23070SOL    HW273768   3.363   3.200   0.696  0.0799 -0.0883  1.8147
23071SOL     OW73769   1.464   2.214   7.364 -0.7357 -0.3828  0.1263
23071SOL    HW173770   1.372   2.229   7.344 -0.9350 -1.0270  0.5333
23071SOL    HW273771   1.467   2.204   7.459 -0.3346 -0.9953  0.0525
23072SOL     OW73772  10.221   4.525   4.457  0.1695  0.0584 -0.5162
23072SOL    HW173773  10.131   4.490   4.457  0.1369  0.0893  0.8434
23072SOL    HW273774  10.276   4.449   4.440  0.0116 -0.4400  1.0512
23073SOL     OW73775   8.561   8.139   5.059 -0.2756 -0.6413 -0.0650
23073SOL    HW173776   8.618   8.144   4.982  0.2216 -1.7614  0.2177
23073SOL    HW273777   8.603   8.195   5.124 -0.6250  0.2006 -0.5433
23074SOL     OW73778   7.008  10.822   7.393 -0.1844  0.4547  0.4599
23074SOL    HW173779   6.967  10.755   7.447  0.0012 -0.2288 -0.2246
23074SOL    HW273780   7.086  10.848   7.442 -1.4226  1.7997  1.7952
23075SOL     OW73781  10.107   0.781   7.515 -0.3363  0.3307  0.4199
23075SOL    HW173782  10.118   0.699   7.467 -0.7272 -0.3610  1.4767
23075SOL    HW273783  10.180   0.782   7.577 -0.0712  1.0162  0.1119
23076SOL     OW73784   3.068   9.016  10.118 -0.2791  0.4101 -0.1509
23076SOL    HW173785   3.110   9.050  10.039 -0.3831  0.2282 -0.2858
23076SOL    HW273786   2.981   8.987  10.088 -0.4458  0.6476  0.0927
23077SOL     OW73787   4.686  11.428   1.518 -0.5354  0.2181 -0.6764
23077SOL    HW173788   4.625  11.367   1.558 -0.3649 -0.4686 -1.4288
23077SOL    HW273789   4.655  11.514   1.544 -0.6146 -0.1848  0.6378
23078SOL     OW73790   3.846   6.826  10.715 -0.2866 -0.2256 -0.5397
23078SOL    HW173791   3.927   6.829  10.766 -1.2364  1.2493  0.9964
23078SOL    HW273792   3.865   6.875  10.635  0.4915 -0.3321 -0.4206
23079SOL     OW73793   6.713  10.438  10.207 -0.3775  0.4092 -0.0005
23079SOL    HW173794   6.774  10.504  10.239 -1.6561  0.7264  1.9033
23079SOL    HW273795   6.763  10.390  10.141  1.2722  1.8921  0.0970
23080SOL     OW73796   3.310   2.056  11.892  0.1907 -0.2053 -0.2481
23080SOL    HW173797   3.353   2.058  11.977 -0.6054  2.8069  0.2013
23080SOL    HW273798   3.221   2.087  11.909  1.0391  4.3846 -2.5118
23081SOL     OW73799   2.811  10.324   8.131 -0.2039  0.3231  0.0875
23081SOL    HW173800   2.811  10.419   8.141 -0.3685  0.2600  0.7472
23081SOL    HW273801   2.733  10.295   8.179  0.5992 -0.2565  1.0812
23082SOL     OW73802   5.818   5.576   4.352 -0.5915  0.4515 -0.1778
23082SOL    HW173803   5.835   5.598   4.261 -0.8829  2.4047  0.1929
23082SOL    HW273804   5.897   5.603   4.399 -1.1525  1.2046  0.3679
23083SOL     OW73805   8.006  11.769   3.585 -0.0539  0.0573 -0.4634
23083SOL    HW173806   7.992  11.771   3.680  3.4403 -0.0770  0.1832
23083SOL    HW273807   8.033  11.858   3.564  0.6929 -0.3000 -1.0366
23084SOL     OW73808   0.138   7.548   7.448 -0.0880 -0.1206 -0.6937
23084SOL    HW173809   0.210   7.578   7.504 -0.2544 -0.0637 -0.5072
23084SOL    HW273810   0.117   7.624   7.393  0.1796 -0.2255 -0.9440
23085SOL     OW73811   4.259   4.782   6.871 -0.3598  0.0823 -0.5259
23085SOL    HW173812   4.180   4.831   6.846 -0.3714  0.1525 -0.3579
23085SOL    HW273813   4.226   4.707   6.919 -0.2513  1.5823  2.0907
23086SOL     OW73814   0.729   8.068   6.575 -0.5585 -0.3290 -0.2137
23086SOL    HW173815   0.703   8.046   6.486  0.6323 -2.9193 -0.0403
23086SOL    HW273816   0.752   8.160   6.572 -0.0909 -0.4648 -2.7222
23087SOL     OW73817   2.029   5.012  10.144  0.2612 -0.1128  0.0228
23087SOL    HW173818   1.966   5.080  10.165  2.1611  1.4785  0.8295
23087SOL    HW273819   2.105   5.059  10.111  0.6402 -2.0420 -2.0974
23088SOL     OW73820   9.724   3.527   7.701  0.3286 -0.0806 -0.1886
23088SOL    HW173821   9.771   3.489   7.775  2.5746  1.4459 -0.7380
23088SOL    HW273822   9.688   3.609   7.735  1.1688  0.5108 -0.6900
23089SOL     OW73823   8.610   0.302   7.522  0.1464 -0.2215 -0.1114
23089SOL    HW173824   8.686   0.340   7.566  0.1057  0.6413 -0.7453
23089SOL    HW273825   8.645   0.230   7.470  0.3959 -0.3877  0.2861
23090SOL     OW73826   7.722  10.963   3.482  0.5891 -0.1525  0.4494
23090SOL    HW173827   7.778  11.021   3.534  0.2243  1.1862 -0.6041
23090SOL    HW273828   7.699  11.015   3.405 -0.9949 -1.1655  0.2036
23091SOL     OW73829  10.787   2.915   6.513 -0.4972  0.0417  0.2228
23091SOL    HW173830  10.870   2.962   6.505  0.1224 -0.8278  1.2973
23091SOL    HW273831  10.737   2.942   6.436  0.3803  1.3531  0.0690
23092SOL     OW73832   0.150   2.917   6.013  0.5499 -0.0714 -0.1555
23092SOL    HW173833   0.074   2.926   5.957  0.6466 -0.2009 -0.3068
23092SOL    HW273834   0.223   2.902   5.953  0.0943 -4.6101  0.0518
23093SOL     OW73835  10.222   3.416   0.849 -0.5954 -0.1964  0.4991
23093SOL    HW173836  10.175   3.493   0.818 -1.0220 -0.9213 -0.7435
23093SOL    HW273837  10.314   3.441   0.848 -0.8058  0.6145  1.0736
23094SOL     OW73838  10.932   2.113   3.850  0.7316  0.1396 -0.2922
23094SOL    HW173839  10.878   2.191   3.853  1.0048  0.3104  0.4825
23094SOL    HW273840  10.871   2.042   3.828  0.7755  0.7943 -2.6978
23095SOL     OW73841  11.360   1.560   4.507  0.8190 -0.1434  0.5904
23095SOL    HW173842  11.354   1.643   4.556  0.7964  0.0714  0.2224
23095SOL    HW273843  11.301   1.501   4.553 -0.1770  0.4302  0.0676
23096SOL     OW73844   6.464  10.627   5.155  0.2611  0.1333 -0.4032
23096SOL    HW173845   6.545  10.609   5.203 -0.1008  0.6819  0.4468
23096SOL    HW273846   6.480  10.593   5.067  0.6034 -1.7663  0.3413
23097SOL     OW73847   9.841   6.203   0.450 -0.0365  0.1687 -0.1432
23097SOL    HW173848   9.922   6.209   0.399 -0.5512 -0.4960 -1.0663
23097SOL    HW273849   9.848   6.120   0.497  1.7129  2.0242  3.1957
23098SOL     OW73850   1.141   3.532   0.700 -0.2678 -0.3736  0.4632
23098SOL    HW173851   1.189   3.462   0.656  0.7435 -0.2418  1.3109
23098SOL    HW273852   1.150   3.511   0.793  0.8977  1.3930  0.7936
23099SOL     OW73853   6.180   6.630   7.453  0.1557  0.7509 -0.5271
23099SOL    HW173854   6.149   6.715   7.484 -1.0277 -0.1461  0.8626
23099SOL    HW273855   6.250   6.606   7.515 -0.8086 -0.1140  0.2660
23100SOL     OW73856   8.705   0.439   8.969 -0.1245 -0.6889 -0.2606
23100SOL    HW173857   8.781   0.386   8.946  0.2866  0.4091 -1.5854
23100SOL    HW273858   8.688   0.492   8.891 -1.2425  0.2745  0.5919
23101SOL     OW73859   8.886   1.282   9.679 -0.1130  0.9326 -0.0844
23101SOL    HW173860   8.869   1.372   9.704 -1.8359  0.8309 -0.7276
23101SOL    HW273861   8.828   1.266   9.604  0.4278 -0.5912 -0.2290
23102SOL     OW73862   5.788   6.608   8.448 -0.3412  0.8176 -0.2775
23102SOL    HW173863   5.837   6.541   8.401 -1.9523  0.2250 -1.1646
23102SOL    HW273864   5.832   6.614   8.533  1.4165  0.5197 -1.1278
23103SOL     OW73865  11.615  10.613   9.673  0.2763 -0.2856 -0.6329
23103SOL    HW173866  11.566  10.534   9.652  2.1950 -1.8799  0.5744
23103SOL    HW273867  11.579  10.642   9.756  1.1740 -1.3373  0.1505
23104SOL     OW73868   9.618  10.930   4.371  0.0183 -0.1374 -0.1466
23104SOL    HW173869   9.580  11.000   4.424  2.7975  1.7966 -0.5096
23104SOL    HW273870   9.574  10.937   4.286  0.8494  1.8267 -0.4551
23105SOL     OW73871   0.307  10.250  10.923  0.9948  0.4961 -0.6083
23105SOL    HW173872   0.338  10.211  10.841  1.0507  1.5181 -1.1024
23105SOL    HW273873   0.236  10.193  10.952  1.8987 -0.6548 -0.6153
23106SOL     OW73874   0.322   9.219   3.735  0.1144 -0.1255 -0.2939
23106SOL    HW173875   0.298   9.203   3.827 -0.0177 -0.0303 -0.3102
23106SOL    HW273876   0.276   9.300   3.713 -1.4224 -1.1513 -1.0188
23107SOL     OW73877   0.297   3.042  11.608 -0.4152  0.0734  0.2250
23107SOL    HW173878   0.310   2.947  11.611  0.5899  0.1834 -0.2617
23107SOL    HW273879   0.232   3.059  11.676  0.6689 -0.7629  1.5178
23108SOL     OW73880   2.338  11.385   6.246 -0.1919  0.1397 -0.2203
23108SOL    HW173881   2.246  11.361   6.256  0.2316 -0.7325  2.2125
23108SOL    HW273882   2.384  11.301   6.235  0.2640  0.6250 -2.5785
23109SOL     OW73883   6.295   4.452   6.498 -0.4002 -0.1869 -0.6830
23109SOL    HW173884   6.295   4.504   6.417  2.0249  1.2132  0.1215
23109SOL    HW273885   6.228   4.495   6.553 -0.4307  0.3062 -1.0926
23110SOL     OW73886   0.481   2.651   5.867  0.4685 -0.3018 -0.3267
23110SOL    HW173887   0.536   2.610   5.800  0.9135  0.5942 -0.5370
23110SOL    HW273888   0.417   2.702   5.817  1.0931  0.7481 -0.0947
23111SOL     OW73889   7.470   9.599   7.242 -0.3639 -0.3621 -0.2204
23111SOL    HW173890   7.506   9.687   7.253 -0.7642 -0.2397  0.1340
23111SOL    HW273891   7.375   9.611   7.247 -0.4665 -0.6853 -1.1012
23112SOL     OW73892   9.967  10.457   5.117 -0.2912  0.5528  0.1420
23112SOL    HW173893   9.876  10.458   5.086  0.1966  3.1035 -1.5555
23112SOL    HW273894  10.009  10.530   5.071  2.0122  1.0822  2.7740
23113SOL     OW73895   4.183   1.347   0.064 -0.7341 -0.0398  0.4970
23113SOL    HW173896   4.146   1.433   0.084 -1.1509  0.1266 -0.8890
23113SOL    HW273897   4.274   1.352   0.094 -0.6866  0.9675  0.2326
23114SOL     OW73898   0.686  10.448   0.755  0.2346 -0.5018  0.0630
23114SOL    HW173899   0.603  10.495   0.759 -0.1064 -1.1559  1.1064
23114SOL    HW273900   0.661  10.358   0.732  0.6021 -0.8218  0.9002
23115SOL     OW73901  10.409   1.937   4.231  0.0164  0.1666 -0.6647
23115SOL    HW173902  10.450   1.884   4.164 -1.3587  0.2482 -1.6072
23115SOL    HW273903  10.342   1.881   4.270  0.5565  0.2371  0.4046
23116SOL     OW73904   6.256   0.878   3.740 -0.5167  0.0361  0.9018
23116SOL    HW173905   6.274   0.946   3.805 -1.0365  0.7142  0.3572
23116SOL    HW273906   6.170   0.902   3.704 -1.1087 -1.4027  1.3042
23117SOL     OW73907   8.332   0.842   8.993 -0.2982  0.1677 -0.1104
23117SOL    HW173908   8.313   0.749   9.003 -0.5017  0.2285  0.0850
23117SOL    HW273909   8.373   0.849   8.907  0.2362 -0.1789  0.1141
23118SOL     OW73910   9.059   1.068   3.291 -0.6058  0.3639  0.2087
23118SOL    HW173911   9.064   1.160   3.315  0.1631  0.9490 -1.8808
23118SOL    HW273912   8.990   1.064   3.225 -0.3500 -0.4766 -0.0233
23119SOL     OW73913   4.029   2.575   3.134  0.3898 -0.1052 -0.0432
23119SOL    HW173914   3.958   2.635   3.113  2.3210  2.2876 -0.1509
23119SOL    HW273915   4.059   2.603   3.221  1.3365 -0.9146 -0.0964
23120SOL     OW73916   5.199   0.263   9.706  0.2342 -0.2183 -0.3476
23120SOL    HW173917   5.139   0.332   9.678  0.5203  0.0022 -0.4125
23120SOL    HW273918   5.181   0.252   9.799  1.8222  1.5973  0.2399
23121SOL     OW73919   5.704   3.788   4.176  0.1108 -0.0540 -0.2091
23121SOL    HW173920   5.772   3.746   4.123 -0.2208 -0.2618 -0.4683
23121SOL    HW273921   5.634   3.723   4.183 -0.4234  0.4682 -0.6489
23122SOL     OW73922   1.253  11.355   0.942  0.4223  0.0137 -0.1841
23122SOL    HW173923   1.321  11.401   0.991 -0.2616  2.3194 -1.2132
23122SOL    HW273924   1.253  11.398   0.856 -0.8297 -1.4397 -0.9629
23123SOL     OW73925  10.502   0.151  11.304 -0.4624 -0.3511 -0.8146
23123SOL    HW173926  10.421   0.105  11.326 -0.0694 -1.3944 -1.4559
23123SOL    HW273927  10.564   0.081  11.282  0.5508  0.4329 -0.5501
23124SOL     OW73928   4.212   9.051   7.920 -0.5437 -0.0393 -0.1418
23124SOL    HW173929   4.162   9.043   7.838  0.6228 -0.0708 -0.8787
23124SOL    HW273930   4.219   9.146   7.934  0.6330  0.0174 -0.9798
23125SOL     OW73931   9.496   8.294   9.600  0.0217  0.2149 -0.0176
23125SOL    HW173932   9.408   8.256   9.606  0.5043 -0.9559 -0.0471
23125SOL    HW273933   9.538   8.270   9.683  1.4663 -2.3345 -1.3864
23126SOL     OW73934   0.719   0.146   8.119 -0.4098  0.4001 -0.2789
23126SOL    HW173935   0.776   0.219   8.143 -0.9635  0.8349 -0.2759
23126SOL    HW273936   0.737   0.130   8.026  1.5160 -1.0863  0.2759
23127SOL     OW73937   9.074   5.342   4.697 -0.0535  0.0390 -0.1945
23127SOL    HW173938   9.026   5.382   4.769 -0.5654 -0.6412 -0.1506
23127SOL    HW273939   9.134   5.280   4.739 -0.3814 -0.3881 -0.3454
23128SOL     OW73940   7.057   2.843   8.378 -0.3198 -0.6999 -0.1868
23128SOL    HW173941   7.125   2.898   8.417  0.6739 -0.8640 -1.6167
23128SOL    HW273942   7.042   2.774   8.442  0.3426 -0.2488  0.4672
23129SOL     OW73943   4.046  10.146   1.301 -0.7079 -0.1774 -0.8635
23129SOL    HW173944   4.137  10.168   1.280 -0.4524  0.5713  0.8492
23129SOL    HW273945   3.997  10.225   1.279 -0.3462  0.8524  1.7417
23130SOL     OW73946   9.816   7.781   6.408  0.0287 -0.2230  0.1276
23130SOL    HW173947   9.750   7.840   6.372  0.4388 -0.1425 -0.5239
23130SOL    HW273948   9.769   7.699   6.423 -0.6269  0.3695  1.3966
23131SOL     OW73949  10.770   3.933  10.973  0.0295  0.0688 -0.1264
23131SOL    HW173950  10.695   3.990  10.953  0.3681  0.0397 -1.5559
23131SOL    HW273951  10.730   3.854  11.011 -0.4608  1.1147  1.6579
23132SOL     OW73952   5.688   0.806   2.577  0.1970  0.6854  0.6313
23132SOL    HW173953   5.713   0.738   2.515  3.6882 -1.0571  3.5536
23132SOL    HW273954   5.731   0.885   2.543 -1.2767  0.7871 -1.1462
23133SOL     OW73955   3.175   2.275   2.323 -0.4581 -0.8310  0.1674
23133SOL    HW173956   3.171   2.371   2.320  0.9235 -0.7651 -2.3113
23133SOL    HW273957   3.162   2.254   2.415 -1.3624  1.6922  0.7069
23134SOL     OW73958   1.000   3.945   5.738 -0.2316  0.5089  0.3232
23134SOL    HW173959   1.019   3.863   5.785 -1.7498 -0.1282 -0.0962
23134SOL    HW273960   0.992   4.011   5.807 -1.3390 -0.1978  0.9088
23135SOL     OW73961   7.362   5.269   7.144  0.0954  0.6396 -0.0688
23135SOL    HW173962   7.331   5.333   7.208  0.3049 -0.8236  1.5902
23135SOL    HW273963   7.286   5.212   7.128 -0.0182  1.1087 -1.3227
23136SOL     OW73964   1.985   5.349   8.441 -0.0095 -0.5719  0.9387
23136SOL    HW173965   1.925   5.324   8.370  0.5206 -0.4119  0.4256
23136SOL    HW273966   2.010   5.265   8.481  2.2521 -1.0328 -1.1831
23137SOL     OW73967   3.558   1.189   3.057 -0.2087 -0.4660 -0.5040
23137SOL    HW173968   3.523   1.202   3.145  1.5811 -0.3208  0.2383
23137SOL    HW273969   3.652   1.179   3.070  0.1540 -0.0292 -2.4518
23138SOL     OW73970  11.096   1.503   9.978 -0.0790 -0.0240 -0.0353
23138SOL    HW173971  11.130   1.426   9.931 -0.2661 -0.9198  1.2395
23138SOL    HW273972  11.165   1.568   9.972 -0.0717 -0.1172 -1.4856
23139SOL     OW73973   9.069  10.331   2.921 -0.0009  0.2235  0.1792
23139SOL    HW173974   9.080  10.278   3.000  0.1872 -0.6499 -0.4192
23139SOL    HW273975   8.983  10.304   2.887 -1.0004  2.0114  1.1142
23140SOL     OW73976   3.262   3.713   7.259  0.2803 -0.0739  0.1096
23140SOL    HW173977   3.267   3.687   7.167  0.5772 -2.3621  0.7217
23140SOL    HW273978   3.180   3.676   7.291  0.3294  0.4269  0.8560
23141SOL     OW73979   7.148   2.510   9.876 -0.3947 -0.5844 -0.1123
23141SOL    HW173980   7.149   2.517   9.972  0.9522 -0.1121 -0.1345
23141SOL    HW273981   7.143   2.601   9.846 -1.7817 -0.7773 -0.5090
23142SOL     OW73982   2.157   2.111   0.873 -0.0169 -0.0026  0.4503
23142SOL    HW173983   2.178   2.024   0.838  1.1007 -0.0239  1.1328
23142SOL    HW273984   2.171   2.170   0.799 -1.6884 -0.4703 -0.2972
23143SOL     OW73985  11.145  11.840   4.826 -0.0137  0.4319  0.2149
23143SOL    HW173986  11.089  11.763   4.841 -0.3962  0.7723  0.5471
23143SOL    HW273987  11.207  11.811   4.758  2.0838 -1.3004  2.6675
23144SOL     OW73988   7.936  11.106   3.573 -0.0554 -0.2006 -0.7255
23144SOL    HW173989   7.953  11.200   3.585  1.3305 -0.6714  1.6837
23144SOL    HW273990   8.021  11.070   3.548 -0.1987 -1.0490 -0.0128
23145SOL     OW73991  10.392  11.503  10.171  0.0439 -0.2785 -0.1440
23145SOL    HW173992  10.439  11.550  10.240  0.0969  1.1376 -1.0911
23145SOL    HW273993  10.452  11.506  10.096 -0.6760 -0.3536 -0.7264
23146SOL     OW73994   8.338   5.685   7.502  0.5989 -0.2167  0.2669
23146SOL    HW173995   8.289   5.709   7.423 -0.3196 -0.8536  0.6261
23146SOL    HW273996   8.370   5.768   7.537 -0.1148  0.2076 -0.0522
23147SOL     OW73997   0.152   2.856   1.156  0.2497 -0.0807  0.1510
23147SOL    HW173998   0.093   2.784   1.132  0.0144  0.3429 -0.5585
23147SOL    HW273999   0.104   2.903   1.224  1.0554 -1.4669  1.7847
23148SOL     OW74000   1.382   9.541   9.344  0.0792 -0.4935  0.2720
23148SOL    HW174001   1.392   9.600   9.269  0.8597 -0.8111  0.1223
23148SOL    HW274002   1.301   9.571   9.386  0.0636  0.2092 -0.2264
23149SOL     OW74003  10.400   9.570   6.155  0.3943  0.0757  0.1798
23149SOL    HW174004  10.395   9.623   6.235  1.6232 -2.0123  1.7451
23149SOL    HW274005  10.484   9.594   6.116  0.1867  0.4649 -0.0391
23150SOL     OW74006   5.929   6.949   7.412 -0.4924  0.2715  0.1502
23150SOL    HW174007   5.939   7.005   7.490  0.3330 -2.0165  1.8018
23150SOL    HW274008   6.007   6.966   7.360  0.1974  0.0632  1.0820
23151SOL     OW74009  10.887   2.873   3.864  0.0875 -0.1667  0.2429
23151SOL    HW174010  10.883   2.803   3.930 -0.3168 -2.5123 -2.0940
23151SOL    HW274011  10.944   2.837   3.795  1.2089  2.5342 -0.3420
23152SOL     OW74012   9.365  12.022   3.541 -0.4079  0.1988  0.2636
23152SOL    HW174013   9.365  11.996   3.449 -1.9648 -3.5363  1.1324
23152SOL    HW274014   9.420  11.957   3.585 -1.6981  0.3753  2.2729
23153SOL     OW74015   1.497   9.512   6.225  0.0320 -0.0470 -0.0028
23153SOL    HW174016   1.511   9.418   6.241 -1.5182 -0.4931 -1.0817
23153SOL    HW274017   1.413   9.516   6.180 -0.3410  1.9575  0.7854
23154SOL     OW74018   0.132   1.500   6.584  0.3234  0.4847 -0.0513
23154SOL    HW174019   0.099   1.504   6.673 -0.4825  0.6585 -0.3531
23154SOL    HW274020   0.207   1.440   6.589 -0.7331 -0.8268  0.4266
23155SOL     OW74021   1.641   8.985  10.508  0.0642  0.0921 -0.0903
23155SOL    HW174022   1.716   8.955  10.560 -0.3557 -0.0719  0.4292
23155SOL    HW274023   1.680   9.019  10.427  0.6169 -1.2456 -0.4281
23156SOL     OW74024   3.575   5.328   8.056 -0.3940  0.1635  0.2645
23156SOL    HW174025   3.627   5.408   8.050  1.1562 -0.8441 -0.4788
23156SOL    HW274026   3.619   5.266   7.999 -2.0877 -0.9637  0.0903
23157SOL     OW74027   2.932   0.190   2.922 -0.0708 -0.0737 -0.2527
23157SOL    HW174028   2.849   0.214   2.880 -1.3666 -1.1848  1.4820
23157SOL    HW274029   2.905   0.133   2.995  2.2745 -0.8252  0.0967
23158SOL     OW74030   1.128   1.376   1.520 -0.0451  0.1446  0.0792
23158SOL    HW174031   1.080   1.422   1.451 -0.4433 -1.1023 -0.5034
23158SOL    HW274032   1.207   1.344   1.478  0.1060  0.0787  0.4107
23159SOL     OW74033   5.237   7.250  11.429  0.4271  0.4212 -0.3864
23159SOL    HW174034   5.223   7.301  11.508  0.7757  0.4586 -0.3484
23159SOL    HW274035   5.151   7.213  11.409  0.7176 -1.1971  1.1103
23160SOL     OW74036   6.774   2.678   5.215 -0.5431 -0.1079  0.0423
23160SOL    HW174037   6.717   2.603   5.233  1.3781 -2.0615 -1.4241
23160SOL    HW274038   6.804   2.707   5.302 -1.8897 -0.5190  0.6743
23161SOL     OW74039   5.777   4.082   3.317 -0.2190  0.1412 -0.0491
23161SOL    HW174040   5.826   4.053   3.240 -0.4644  0.4629 -0.3242
23161SOL    HW274041   5.729   4.004   3.345  1.6719 -0.6663  1.1870
23162SOL     OW74042   6.093   6.327   8.805  0.2860  0.2333  0.3459
23162SOL    HW174043   6.095   6.422   8.816 -1.4032  0.4298 -0.7091
23162SOL    HW274044   6.078   6.314   8.711  0.9458 -1.0843  0.4036
23163SOL     OW74045   2.836   2.080   6.188  0.1933  0.1265  0.2463
23163SOL    HW174046   2.752   2.060   6.147  0.6391 -0.4196 -0.4078
23163SOL    HW274047   2.867   1.997   6.222  2.2761 -0.5498 -2.9041
23164SOL     OW74048   2.495   9.457   7.615 -0.3462 -0.3091 -0.1659
23164SOL    HW174049   2.508   9.460   7.520 -1.8138 -0.9777 -0.4189
23164SOL    HW274050   2.477   9.548   7.640 -1.6902 -0.3558 -0.8392
23165SOL     OW74051   8.586   4.509   1.750  0.2824  0.3345  0.7316
23165SOL    HW174052   8.511   4.472   1.703  0.5683 -0.2447  0.7286
23165SOL    HW274053   8.567   4.493   1.842  1.0965 -1.1754  0.6683
23166SOL     OW74054  11.761   2.868   7.452 -0.1844 -0.1307  0.0951
23166SOL    HW174055  11.698   2.805   7.418  0.9994 -0.5681 -1.4105
23166SOL    HW274056  11.812   2.819   7.516  0.3851 -0.5659 -0.6801
23167SOL     OW74057   5.000   5.485   3.068 -0.3282 -0.1114  0.1540
23167SOL    HW174058   4.919   5.436   3.079 -0.1236 -0.2385  1.1296
23167SOL    HW274059   5.013   5.530   3.151 -1.2414  2.7467 -1.1250
23168SOL     OW74060   3.787   1.493  11.891  0.4722 -0.0584  0.2467
23168SOL    HW174061   3.735   1.531  11.962  0.3404  2.4738 -1.0839
23168SOL    HW274062   3.875   1.487  11.926  0.5606  1.8423  0.4783
23169SOL     OW74063   5.334   5.191  10.045  0.3105 -0.1194  0.4056
23169SOL    HW174064   5.259   5.141  10.014 -0.1548  0.6326  0.2826
23169SOL    HW274065   5.390   5.200   9.969 -0.1261  0.4611  0.1423
23170SOL     OW74066   2.641   5.543   6.280  0.0648  0.0828 -0.3407
23170SOL    HW174067   2.672   5.475   6.340  0.0513  0.9846  0.7210
23170SOL    HW274068   2.663   5.510   6.193  1.4660 -0.5668  0.2287
23171SOL     OW74069   2.001   9.651   1.580 -0.1364 -0.4532 -0.1627
23171SOL    HW174070   2.027   9.600   1.656 -2.3132  0.7543  1.4920
23171SOL    HW274071   2.044   9.736   1.593  1.0474 -0.8269 -1.3534
23172SOL     OW74072   5.177   0.605   0.742 -0.0160 -0.2020  0.5817
23172SOL    HW174073   5.168   0.615   0.647  0.3999  0.6865  0.6289
23172SOL    HW274074   5.154   0.513   0.759  0.2720 -0.4665 -0.4205
23173SOL     OW74075   7.806   5.521   1.976 -0.4553  0.1629  0.2954
23173SOL    HW174076   7.744   5.484   2.039 -1.7738  0.9780 -0.4747
23173SOL    HW274077   7.859   5.582   2.028 -1.7426  1.0783  0.5731
23174SOL     OW74078   7.700   7.011   1.354 -0.4573  0.2909  0.3752
23174SOL    HW174079   7.620   6.979   1.397  0.6333 -0.3493  2.0051
23174SOL    HW274080   7.761   7.027   1.426  1.1667  0.0243 -0.8955
23175SOL     OW74081  11.255  11.879   9.464  0.0358 -0.1553 -0.2237
23175SOL    HW174082  11.321  11.942   9.436  0.7752 -0.1435  1.4621
23175SOL    HW274083  11.239  11.899   9.556 -1.7706 -0.6610 -0.3857
23176SOL     OW74084   6.059   9.931   7.972 -0.0681  0.0362 -0.4229
23176SOL    HW174085   6.029  10.011   8.015 -0.8554 -0.3778 -0.1864
23176SOL    HW274086   6.043   9.862   8.036  0.4065 -0.3421 -0.7067
23177SOL     OW74087   4.967   2.657   7.645  0.2282 -0.1693 -0.1669
23177SOL    HW174088   4.948   2.568   7.674 -0.3159 -0.0842 -0.2635
23177SOL    HW274089   5.049   2.648   7.595  0.2246 -0.6000 -0.1022
23178SOL     OW74090   5.541  10.734  11.739  0.2484 -0.2334  0.5444
23178SOL    HW174091   5.621  10.705  11.695 -0.5261 -1.4695 -0.1256
23178SOL    HW274092   5.476  10.739  11.668  0.0230  2.1242  0.8134
23179SOL     OW74093   7.594  11.902   4.115  0.4336  0.7516 -0.4311
23179SOL    HW174094   7.522  11.933   4.062 -0.2286  0.8497  0.5001
23179SOL    HW274095   7.671  11.947   4.081  0.0514  0.7115 -1.3704
23180SOL     OW74096   6.174   5.108  10.097  0.4079 -0.3411 -0.4579
23180SOL    HW174097   6.242   5.109  10.029  1.9493 -1.5560  0.9896
23180SOL    HW274098   6.183   5.023  10.139 -1.1666 -0.0059  0.6459
23181SOL     OW74099  11.353   1.595   4.858  0.3226  0.1887 -0.8342
23181SOL    HW174100  11.349   1.662   4.790 -0.3342 -0.5797 -1.5793
23181SOL    HW274101  11.309   1.519   4.819  2.1439 -1.1139 -0.4966
23182SOL     OW74102   3.924  11.163   8.405 -0.1648 -0.1975 -0.0970
23182SOL    HW174103   3.867  11.225   8.360 -1.9132 -0.2209  1.9305
23182SOL    HW274104   3.972  11.119   8.335 -1.9702  0.4947 -1.8493
23183SOL     OW74105   5.559   7.657   6.313 -0.6256 -0.4857  0.2549
23183SOL    HW174106   5.599   7.744   6.309  0.5892 -1.0611 -1.4292
23183SOL    HW274107   5.465   7.674   6.315 -0.3989  0.8736  1.7800
23184SOL     OW74108   5.527   2.607   6.563 -0.2080 -0.2161  0.0784
23184SOL    HW174109   5.442   2.574   6.535 -0.0661 -0.3592 -0.1834
23184SOL    HW274110   5.506   2.675   6.628 -0.6083  1.4957 -1.7445
23185SOL     OW74111  11.801   7.573   7.333 -0.0897 -0.1353 -0.8728
23185SOL    HW174112  11.752   7.522   7.398 -1.6587  1.2604 -0.9056
23185SOL    HW274113  11.759   7.553   7.249 -1.1936  1.6584 -0.8020
23186SOL     OW74114  10.827   1.888   9.276 -0.7503 -0.0447  0.0027
23186SOL    HW174115  10.881   1.934   9.211  0.8099 -0.2841  1.0669
23186SOL    HW274116  10.738   1.897   9.244 -0.2947  2.0216 -0.8406
23187SOL     OW74117   5.464   6.214   2.082  0.0244 -0.0115  0.6803
23187SOL    HW174118   5.421   6.271   2.018  0.8111 -1.1442 -0.9195
23187SOL    HW274119   5.533   6.269   2.120  1.6148 -0.1963 -1.7556
23188SOL     OW74120   8.188   4.321   3.659  0.4778  0.0568 -0.0850
23188SOL    HW174121   8.271   4.278   3.642  1.0409  0.4319  1.5378
23188SOL    HW274122   8.122   4.257   3.632  1.2836 -0.6955 -0.3251
23189SOL     OW74123   9.025   5.519  11.862  0.2622  0.1117  0.5889
23189SOL    HW174124   9.109   5.487  11.894 -0.3772 -1.3907  0.8495
23189SOL    HW274125   8.977   5.441  11.836 -0.5943  1.0346 -0.7505
23190SOL     OW74126  11.570   0.629   4.468 -0.9103  0.2895 -0.2238
23190SOL    HW174127  11.615   0.640   4.552  0.7068  2.1543 -1.2534
23190SOL    HW274128  11.565   0.534   4.456  1.3447 -0.0185  0.7215
23191SOL     OW74129   9.435   5.224   5.283  0.0092  0.2430 -0.1480
23191SOL    HW174130   9.415   5.168   5.208 -0.8666  0.1078  0.1798
23191SOL    HW274131   9.366   5.206   5.347  0.5250  0.6451  0.5389
23192SOL     OW74132   3.438  10.075   5.497  0.1360  0.1343  0.1517
23192SOL    HW174133   3.487   9.993   5.501  0.8507  0.5800  0.9264
23192SOL    HW274134   3.368  10.065   5.561  0.4938  0.2888  0.5743
23193SOL     OW74135   1.039   1.789   6.004  0.3183  0.0701 -0.4117
23193SOL    HW174136   1.090   1.811   6.082 -0.3051  0.2832 -0.0571
23193SOL    HW274137   1.014   1.697   6.017  1.6663 -0.4390 -1.1894
23194SOL     OW74138   4.980   3.605  11.393  0.2432 -0.3869 -0.0196
23194SOL    HW174139   4.967   3.685  11.445 -2.2589 -0.5308 -0.3135
23194SOL    HW274140   5.037   3.633  11.321 -0.6657  1.1795 -0.1842
23195SOL     OW74141   2.195  11.580   0.458 -0.8042 -0.1343  0.4443
23195SOL    HW174142   2.193  11.608   0.550 -0.8732 -1.5641  0.9076
23195SOL    HW274143   2.123  11.517   0.451 -0.0053 -0.9996 -0.2636
23196SOL     OW74144   7.045  10.383  10.702 -0.1406  0.0286 -0.0055
23196SOL    HW174145   6.979  10.452  10.711 -1.1033 -0.8818  0.0495
23196SOL    HW274146   7.037  10.354  10.612 -2.1133 -2.2884  0.8060
23197SOL     OW74147   4.816   2.841   2.077 -0.3858  0.0530  0.5352
23197SOL    HW174148   4.725   2.814   2.083 -0.5047  0.0197 -1.0040
23197SOL    HW274149   4.865   2.760   2.067 -0.0910  0.0177  2.0931
23198SOL     OW74150  11.325   5.822   4.241  0.5687 -0.3658 -0.1609
23198SOL    HW174151  11.362   5.855   4.323  0.2698  0.8039 -0.4784
23198SOL    HW274152  11.328   5.897   4.181 -1.5304 -0.4322 -0.4427
23199SOL     OW74153   5.347   0.148   8.689  0.3468  0.2506 -0.0307
23199SOL    HW174154   5.421   0.203   8.662  0.2334  0.4011 -0.0336
23199SOL    HW274155   5.388   0.074   8.734  0.5115  0.2329 -0.2067
23200SOL     OW74156   4.802   7.848   1.816 -0.6207  0.4026  0.5701
23200SOL    HW174157   4.773   7.825   1.728 -0.3869 -1.4737  0.9387
23200SOL    HW274158   4.855   7.927   1.805  0.4132 -0.4900 -1.1439
23201SOL     OW74159   2.142   2.832   5.979  0.1920 -0.2057 -0.1964
23201SOL    HW174160   2.097   2.802   6.058  0.6916  0.5099  0.3741
23201SOL    HW274161   2.104   2.919   5.962  0.8650  0.1106 -0.1009
23202SOL     OW74162   9.524   3.848   9.737 -0.7920  0.0499  0.3471
23202SOL    HW174163   9.589   3.880   9.675 -1.0724 -1.1492 -0.5913
23202SOL    HW274164   9.570   3.849   9.822  1.0719 -2.3430 -0.5214
23203SOL     OW74165   3.442   0.049   4.826  0.0959  0.4294 -0.3775
23203SOL    HW174166   3.426   0.026   4.735  0.4598  0.0070 -0.3374
23203SOL    HW274167   3.360   0.027   4.871  0.4827 -0.9914 -0.3069
23204SOL     OW74168   7.471  11.972   5.755  0.0553  0.3176 -0.3715
23204SOL    HW174169   7.427  11.975   5.840 -0.3784 -0.4652 -0.5504
23204SOL    HW274170   7.478  11.878   5.736  1.6815  0.4255 -0.4177
23205SOL     OW74171   2.288   2.988   6.259 -0.4658 -0.2438 -0.1016
23205SOL    HW174172   2.279   3.024   6.170 -1.5913 -1.1325 -0.3679
23205SOL    HW274173   2.241   2.905   6.256 -0.6977 -0.1911  1.3856
23206SOL     OW74174  10.682   3.307   1.716  0.4425  0.5830  0.6127
23206SOL    HW174175  10.680   3.231   1.774 -0.0683 -2.0710 -2.5212
23206SOL    HW274176  10.774   3.335   1.716  0.9186 -0.8992  0.9076
23207SOL     OW74177   0.774   3.633   8.608 -0.1975 -0.0819  0.6266
23207SOL    HW174178   0.767   3.703   8.543 -1.0711 -0.4086  0.3483
23207SOL    HW274179   0.725   3.560   8.569  0.3245 -0.6987  1.1041
23208SOL     OW74180  10.407   3.897   4.019  0.5284  0.6281  0.4012
23208SOL    HW174181  10.325   3.847   4.024  0.5134  0.7115  1.2273
23208SOL    HW274182  10.474   3.832   4.000  0.0747  0.7832 -2.0673
23209SOL     OW74183   4.743   9.578   7.064 -0.6377 -0.0486 -0.5056
23209SOL    HW174184   4.828   9.617   7.084 -0.9205 -0.0769  0.8907
23209SOL    HW274185   4.680   9.645   7.090 -1.0588 -0.3615 -0.7162
23210SOL     OW74186   6.917   9.042   4.504 -0.0682 -0.3269 -0.0343
23210SOL    HW174187   6.892   8.949   4.500  0.5002 -0.4772 -0.0810
23210SOL    HW274188   6.851   9.086   4.449  1.8971 -1.1779 -3.3522
23211SOL     OW74189   6.874  11.005   1.468 -0.4776 -0.0157  0.3794
23211SOL    HW174190   6.815  10.965   1.532 -0.5947  0.3563  0.5096
23211SOL    HW274191   6.910  11.081   1.513 -0.5966  0.2773 -0.0100
23212SOL     OW74192   3.221  11.033   0.922 -0.0711  0.1371 -0.4137
23212SOL    HW174193   3.157  10.965   0.901 -0.5739  0.8982 -1.4442
23212SOL    HW274194   3.179  11.086   0.989 -0.0547 -0.0269 -0.2737
23213SOL     OW74195   0.293   5.235   5.893 -0.1405  0.2496  0.0140
23213SOL    HW174196   0.340   5.291   5.831 -0.4800 -0.0674 -0.5416
23213SOL    HW274197   0.283   5.151   5.847  0.6748 -0.3919  0.9702
23214SOL     OW74198   0.428   6.353   8.029 -0.2717 -0.1665 -0.0069
23214SOL    HW174199   0.398   6.347   8.120 -0.7915 -1.2450 -0.2338
23214SOL    HW274200   0.352   6.329   7.976 -0.3322  1.6118 -0.8091
23215SOL     OW74201   3.672   0.582  11.940  0.4808 -0.4931 -0.3813
23215SOL    HW174202   3.672   0.549  12.029 -1.1446  1.3390  0.3695
23215SOL    HW274203   3.735   0.527  11.894 -2.3338 -4.9994  0.5235
23216SOL     OW74204   0.195   4.072  10.282 -0.0472  0.2493  0.5191
23216SOL    HW174205   0.265   4.008  10.274 -0.2146 -0.0830  1.4804
23216SOL    HW274206   0.223   4.130  10.353  0.6911  2.0498 -1.1564
23217SOL     OW74207   6.774   4.073  11.740 -0.1207  0.2408 -0.4922
23217SOL    HW174208   6.739   3.984  11.747  1.3674 -0.3953 -0.7379
23217SOL    HW274209   6.823   4.072  11.657 -0.3972  1.4098 -0.6811
23218SOL     OW74210   4.185   5.111   6.730 -0.1935  0.2345  0.7004
23218SOL    HW174211   4.277   5.136   6.737 -0.0081 -0.3323  0.3615
23218SOL    HW274212   4.181   5.056   6.652 -1.3236  2.5373 -0.9924
23219SOL     OW74213  12.026   0.969   5.611  0.1183  0.0497 -0.3288
23219SOL    HW174214  12.051   0.966   5.519 -0.1398 -0.4348 -0.3848
23219SOL    HW274215  11.933   0.989   5.611  0.3722  1.3667 -0.1289
23220SOL     OW74216  10.556  11.521   0.101 -0.1073 -0.5045  0.8446
23220SOL    HW174217  10.601  11.447   0.141  0.1568  0.0652  1.6160
23220SOL    HW274218  10.470  11.487   0.076  0.2310 -1.2216  0.6458
23221SOL     OW74219   2.862  10.820  11.838 -0.0817  0.0487 -0.2184
23221SOL    HW174220   2.847  10.808  11.745 -0.2418 -0.0907 -0.1763
23221SOL    HW274221   2.850  10.733  11.876 -0.9532  0.2737  0.0518
23222SOL     OW74222   7.551   0.641   7.455  0.3276  0.2023  0.2783
23222SOL    HW174223   7.524   0.649   7.364  0.3913  2.9806  0.4175
23222SOL    HW274224   7.470   0.624   7.503 -0.2227  1.9627  0.0110
23223SOL     OW74225  10.632   6.775   3.872  0.8670  0.0765  0.1593
23223SOL    HW174226  10.557   6.716   3.863 -0.2090  1.4294  0.0193
23223SOL    HW274227  10.697   6.740   3.810  0.0435 -0.6405 -0.3221
23224SOL     OW74228   0.163   6.454   9.516  0.1785 -0.2633  0.0996
23224SOL    HW174229   0.086   6.409   9.479  0.2577 -0.8637  0.6461
23224SOL    HW274230   0.150   6.546   9.493 -1.8411  0.0088  2.0430
23225SOL     OW74231   6.106   2.698   0.859  0.0168 -0.3106 -0.3473
23225SOL    HW174232   6.190   2.688   0.905  0.6397 -0.6213 -1.4888
23225SOL    HW274233   6.106   2.788   0.829  0.6402 -0.6934 -1.5840
23226SOL     OW74234  11.268   2.694   7.081  0.1239 -0.0608 -0.2244
23226SOL    HW174235  11.231   2.782   7.082 -1.4401 -0.6322  2.5521
23226SOL    HW274236  11.341   2.698   7.142  0.9767 -0.3701 -1.2001
23227SOL     OW74237   2.887   4.521   5.211  0.1111  0.2853  0.1402
23227SOL    HW174238   2.968   4.559   5.245 -0.5339  1.6249  0.2829
23227SOL    HW274239   2.894   4.528   5.116 -0.1302  1.0960  0.1725
23228SOL     OW74240   8.004   6.905   6.248 -0.1994 -0.2033 -0.3978
23228SOL    HW174241   7.952   6.960   6.307  1.4423  0.7921  0.2030
23228SOL    HW274242   7.960   6.913   6.163 -0.5115  1.3581 -0.1303
23229SOL     OW74243  11.080   9.947   5.555  0.0192 -0.0893 -0.1398
23229SOL    HW174244  11.117   9.859   5.547 -0.4310 -0.3133  0.1668
23229SOL    HW274245  11.092   9.986   5.468 -0.2015 -0.6234 -0.4165
23230SOL     OW74246  11.846   2.919  11.823  0.0302  0.3190 -0.6340
23230SOL    HW174247  11.883   2.966  11.748 -0.2645 -0.1161 -1.0608
23230SOL    HW274248  11.919   2.866  11.856  1.0921  2.8096  1.3558
23231SOL     OW74249   7.870   1.066   2.620 -0.2564  0.6981  0.0279
23231SOL    HW174250   7.783   1.071   2.581  0.5843 -0.8660 -2.2630
23231SOL    HW274251   7.863   0.996   2.685  0.1889 -2.7678 -3.2795
23232SOL     OW74252   4.360   2.675  10.428 -0.4276 -0.0172 -0.3049
23232SOL    HW174253   4.310   2.747  10.466 -2.0135 -0.7916 -0.8348
23232SOL    HW274254   4.296   2.627  10.375  0.5884 -1.7773 -0.0094
23233SOL     OW74255   7.480   8.724   3.693  0.0582 -0.1880  0.0246
23233SOL    HW174256   7.451   8.703   3.604 -0.4506  2.5987 -0.5481
23233SOL    HW274257   7.400   8.726   3.744 -0.2313  2.3802 -0.4305
23234SOL     OW74258   5.996   5.839  10.880  0.5292  0.3840  0.0484
23234SOL    HW174259   5.913   5.793  10.889  1.4170 -1.2421  0.2947
23234SOL    HW274260   5.986   5.918  10.934 -0.9382  0.3874 -0.1832
23235SOL     OW74261   0.895   3.608   6.077  0.4191  0.5008 -0.1634
23235SOL    HW174262   0.976   3.657   6.061  0.4595  0.3168 -0.5439
23235SOL    HW274263   0.875   3.569   5.992 -0.2498  0.8145 -0.1510
23236SOL     OW74264  10.459   0.102   4.657  0.1516 -0.0455  0.0421
23236SOL    HW174265  10.400   0.034   4.625  0.3695 -0.5665  0.7249
23236SOL    HW274266  10.402   0.175   4.681 -0.2649 -0.7112  1.1126
23237SOL     OW74267   5.162   9.113   4.276 -0.0628 -0.3239  0.6114
23237SOL    HW174268   5.167   9.025   4.313  0.9799 -0.4710  0.1613
23237SOL    HW274269   5.077   9.146   4.303  0.4413 -0.6130  2.6960
23238SOL     OW74270  10.269   1.805   1.538 -0.1970 -0.3478  0.2476
23238SOL    HW174271  10.189   1.826   1.586 -0.1675  0.3765 -0.0074
23238SOL    HW274272  10.336   1.862   1.576  0.1367 -0.7274  0.2479
23239SOL     OW74273   5.936   5.165   4.647 -0.3009  0.3067  0.1826
23239SOL    HW174274   5.892   5.249   4.645  0.0942  0.5062 -0.3719
23239SOL    HW274275   5.928   5.136   4.738 -1.1227  0.5709  0.2010
23240SOL     OW74276   1.919  12.081   3.487 -0.2529 -0.3886  0.5959
23240SOL    HW174277   1.941  12.030   3.565 -0.0947  0.4784  1.1436
23240SOL    HW274278   1.895  12.167   3.522 -1.2481 -0.3111 -0.2406
23241SOL     OW74279   5.420  10.316   8.160  0.0083 -0.0614  0.1632
23241SOL    HW174280   5.338  10.355   8.190  0.5556  0.6677  0.7630
23241SOL    HW274281   5.412  10.223   8.181 -1.4573 -0.3821 -1.5959
23242SOL     OW74282  11.685   7.515   0.746 -0.2248 -0.3370 -0.1401
23242SOL    HW174283  11.654   7.454   0.813  0.3584 -1.0519 -0.5099
23242SOL    HW274284  11.616   7.513   0.679 -2.1285  2.3383  1.5224
23243SOL     OW74285   0.835   4.669   7.844 -0.0205 -0.2074  0.2459
23243SOL    HW174286   0.779   4.650   7.769  0.0004 -1.3507  0.5090
23243SOL    HW274287   0.853   4.584   7.883  1.2667  0.2153  0.6258
23244SOL     OW74288   0.029   0.027   7.120 -0.0615 -0.3169  0.2144
23244SOL    HW174289   0.062  -0.048   7.070 -1.0472 -1.7560  1.6114
23244SOL    HW274290   0.027  -0.005   7.211  0.3415  1.7283  0.9855
23245SOL     OW74291   6.077  11.639   4.922  0.5331 -0.6669 -0.1708
23245SOL    HW174292   6.099  11.553   4.956 -1.4860 -1.7032 -1.2852
23245SOL    HW274293   5.981  11.642   4.922  0.4997  0.7281 -2.0988
23246SOL     OW74294  10.272   9.562   2.636  0.5770  0.0851 -0.2054
23246SOL    HW174295  10.329   9.627   2.678  2.1479 -0.8630 -0.7580
23246SOL    HW274296  10.187   9.604   2.630  1.6948  2.3616 -1.1714
23247SOL     OW74297   1.018   8.731   1.638  0.3240  0.3732  0.2144
23247SOL    HW174298   0.988   8.760   1.723  0.7482 -2.7591  1.5739
23247SOL    HW274299   1.065   8.649   1.656  0.5304 -0.3461 -3.0038
23248SOL     OW74300   0.930  10.898  11.866  0.8218  0.3170 -0.2153
23248SOL    HW174301   1.021  10.884  11.841  1.0613  1.0035  0.2532
23248SOL    HW274302   0.922  10.854  11.951  0.1911 -1.4134 -1.1152
23249SOL     OW74303   7.168   3.423   1.055  0.0595 -0.7990 -0.1362
23249SOL    HW174304   7.075   3.443   1.066 -0.0571 -0.2565 -1.8691
23249SOL    HW274305   7.209   3.509   1.039  0.9898 -0.9424  1.3176
23250SOL     OW74306   0.324   1.937   7.784 -0.5589  0.3335 -0.7451
23250SOL    HW174307   0.345   1.851   7.748 -1.4785 -0.4377  0.4953
23250SOL    HW274308   0.390   1.953   7.851 -1.0323  0.0874 -0.2124
23251SOL     OW74309  11.428   6.999   1.081 -0.6694 -0.4728 -0.2325
23251SOL    HW174310  11.397   7.078   1.125 -1.0855 -0.5498 -0.3781
23251SOL    HW274311  11.472   6.948   1.149 -0.1617  0.0067 -0.1974
23252SOL     OW74312   6.546   0.036   1.743  0.7171  0.0138  0.1069
23252SOL    HW174313   6.502  -0.048   1.728 -0.7417  0.8738 -0.6428
23252SOL    HW274314   6.523   0.089   1.667 -0.5196  1.9430  1.7370
23253SOL     OW74315  10.217   2.776   0.460 -0.1076  0.0502 -0.1220
23253SOL    HW174316  10.270   2.792   0.538  1.4133 -0.4034 -1.0245
23253SOL    HW274317  10.233   2.684   0.439 -1.3931 -0.1457 -0.3458
23254SOL     OW74318   4.081   9.907   1.419 -0.6111 -0.5683 -0.0010
23254SOL    HW174319   4.107   9.915   1.511  0.3293 -1.3631 -0.1783
23254SOL    HW274320   4.073   9.997   1.388  2.9966 -0.1754 -0.1790
23255SOL     OW74321  10.353   6.163   0.318  0.3819  0.1222  0.3755
23255SOL    HW174322  10.432   6.121   0.285 -0.8290 -0.8038 -1.5620
23255SOL    HW274323  10.342   6.241   0.263 -0.0030  0.2936  0.6897
23256SOL     OW74324   4.543  11.737   2.448  0.1881  0.1408  0.0884
23256SOL    HW174325   4.615  11.796   2.467 -0.4691  0.0555  3.5672
23256SOL    HW274326   4.579  11.673   2.387  2.4792  1.1119  0.3366
23257SOL     OW74327   1.787   0.159   0.100 -0.0760 -0.2654 -0.3141
23257SOL    HW174328   1.848   0.158   0.175  0.9062  1.4554 -1.0265
23257SOL    HW274329   1.798   0.073   0.059 -1.7382 -1.8778  2.2852
23258SOL     OW74330   7.594   3.112   8.830  0.3024 -0.6577 -0.2114
23258SOL    HW174331   7.573   3.150   8.744  1.1919 -0.4789 -0.3612
23258SOL    HW274332   7.533   3.153   8.890 -0.1678 -0.5977 -0.7246
23259SOL     OW74333   3.911   3.535  11.669  0.2398  0.3577 -0.5340
23259SOL    HW174334   3.930   3.620  11.628 -0.3631  0.4984 -0.5261
23259SOL    HW274335   3.832   3.551  11.720 -0.5235 -0.5002 -1.4321
23260SOL     OW74336  11.600   8.789   7.890 -0.0624 -0.3187 -0.6159
23260SOL    HW174337  11.511   8.773   7.922 -0.4505 -0.1583 -1.5954
23260SOL    HW274338  11.639   8.701   7.885 -0.8193 -0.6179 -2.0115
23261SOL     OW74339   2.308   8.035   0.911  0.3159  0.5208 -0.1241
23261SOL    HW174340   2.219   8.054   0.941  0.2265  0.4126 -0.3256
23261SOL    HW274341   2.332   8.110   0.856  1.0660  1.5127  1.4685
23262SOL     OW74342   4.152  10.450   4.551 -0.3786  0.3649 -0.5645
23262SOL    HW174343   4.222  10.384   4.546 -0.2730  0.4391 -0.1266
23262SOL    HW274344   4.113  10.450   4.464  0.5691  0.7647 -1.0034
23263SOL     OW74345   8.319   3.284   8.734 -0.4151 -0.0662 -0.0694
23263SOL    HW174346   8.402   3.329   8.755 -0.1960 -0.1113 -0.8271
23263SOL    HW274347   8.257   3.318   8.799  0.2948 -0.3480  0.7769
23264SOL     OW74348   0.847   8.778   4.490  0.3247 -0.3571  0.6073
23264SOL    HW174349   0.930   8.776   4.538 -0.1927 -0.5745  1.5226
23264SOL    HW274350   0.793   8.841   4.538 -0.2048 -0.5718  0.3020
23265SOL     OW74351   8.847   4.209   0.881  0.0439  0.1408  0.0178
23265SOL    HW174352   8.822   4.241   0.794  0.8342  0.0348 -0.2495
23265SOL    HW274353   8.823   4.281   0.940  0.6169  0.7126 -0.4266
23266SOL     OW74354   7.115   2.525  10.161  0.3632  0.0961  0.3537
23266SOL    HW174355   7.028   2.498  10.190  0.3982 -0.5308 -0.1126
23266SOL    HW274356   7.114   2.621  10.168 -0.4688  0.1141  0.0547
23267SOL     OW74357  10.359   3.221   0.122 -0.5511  0.0696 -0.3976
23267SOL    HW174358  10.348   3.134   0.160 -1.9024 -0.2721 -1.4764
23267SOL    HW274359  10.278   3.268   0.145 -0.1429  0.8046 -0.4261
23268SOL     OW74360   7.493   0.279   7.628  1.0647  0.3190 -0.7374
23268SOL    HW174361   7.436   0.217   7.674 -0.3816 -0.4050 -3.2437
23268SOL    HW274362   7.575   0.232   7.616  0.7237 -0.2887 -0.7278
23269SOL     OW74363   2.298   3.861   3.144  0.1881  0.0895  0.0905
23269SOL    HW174364   2.237   3.917   3.192 -0.1672 -0.5671  0.3989
23269SOL    HW274365   2.374   3.852   3.201  1.5013  2.5571 -1.0829
23270SOL     OW74366   2.822   5.194  10.129  0.2380  0.1433 -0.4476
23270SOL    HW174367   2.877   5.242  10.066 -1.0405  0.2067 -1.5554
23270SOL    HW274368   2.813   5.107  10.090  0.2230 -0.1243  0.1488
23271SOL     OW74369  10.088   4.550  11.873 -0.1645 -0.4169 -0.2515
23271SOL    HW174370  10.119   4.520  11.958  0.1335  0.8255  0.0946
23271SOL    HW274371  10.096   4.473  11.816  0.2184 -1.0854  0.6871
23272SOL     OW74372   1.273   7.193   9.035  0.1893 -0.0729  0.1040
23272SOL    HW174373   1.266   7.251   9.110  0.1019 -0.9053  0.7582
23272SOL    HW274374   1.194   7.210   8.983  0.2087  0.4457  0.2465
23273SOL     OW74375   5.845   4.212   0.979  0.0285  0.4761  0.2961
23273SOL    HW174376   5.871   4.132   0.934 -2.7651  0.1631 -0.9443
23273SOL    HW274377   5.849   4.280   0.911 -0.4570  0.7858  0.5709
23274SOL     OW74378   4.649   0.198   6.559 -0.0167  0.0412 -0.6832
23274SOL    HW174379   4.585   0.199   6.631  0.2825  0.1304 -0.4158
23274SOL    HW274380   4.717   0.259   6.588 -0.1783  0.5198 -1.2986
23275SOL     OW74381   0.680   7.846   7.266 -0.4035 -0.1709 -0.4395
23275SOL    HW174382   0.678   7.864   7.172  1.3600 -1.7257 -0.8383
23275SOL    HW274383   0.588   7.832   7.290 -0.8905  0.3192 -1.9084
23276SOL     OW74384   8.458   1.394   0.592 -0.2681 -0.4437 -0.2671
23276SOL    HW174385   8.396   1.325   0.570 -1.2391  0.7759 -1.5474
23276SOL    HW274386   8.412   1.475   0.570  1.9628  0.5001 -1.8597
23277SOL     OW74387  11.065   8.948   3.922 -0.2979 -0.4133  0.5041
23277SOL    HW174388  10.990   8.957   3.863 -0.8882 -0.6555  1.1998
23277SOL    HW274389  11.097   8.859   3.907  1.3582  0.4387 -1.5082
23278SOL     OW74390   5.930   6.605   1.954 -0.0401  0.4554  0.2753
23278SOL    HW174391   5.836   6.620   1.962 -0.1087  1.1868 -1.5324
23278SOL    HW274392   5.949   6.536   2.019 -1.8870 -0.0707  0.3079
23279SOL     OW74393   8.445   2.655   1.517 -0.5223  0.2327 -0.0275
23279SOL    HW174394   8.427   2.619   1.431  0.5188  1.7660 -0.9248
23279SOL    HW274395   8.533   2.691   1.511  0.8901 -2.3924  2.6391
23280SOL     OW74396   7.525   3.210   4.509 -0.4585  0.5151  0.0545
23280SOL    HW174397   7.537   3.197   4.414 -2.4503 -0.5033 -0.1102
23280SOL    HW274398   7.612   3.233   4.541  0.4511  0.0072 -1.8953
23281SOL     OW74399   4.893   9.024   6.853  0.4500  0.7375 -0.2232
23281SOL    HW174400   4.940   9.107   6.847 -1.7976  2.0819 -0.5439
23281SOL    HW274401   4.818   9.043   6.909  0.8674 -1.6295  1.2588
23282SOL     OW74402   7.747  11.446   4.930  0.0786 -0.4201  0.2822
23282SOL    HW174403   7.841  11.448   4.947  0.2191  1.2227 -0.5511
23282SOL    HW274404   7.738  11.474   4.839 -1.3267  1.5268  0.9562
23283SOL     OW74405   5.572   1.714   3.042  0.5229 -0.4525  0.5705
23283SOL    HW174406   5.606   1.793   3.085 -0.5842  0.8979 -0.8913
23283SOL    HW274407   5.478   1.716   3.061  0.6064 -1.9915  1.3139
23284SOL     OW74408   9.238   9.099   9.910  0.3753 -0.2854 -0.0294
23284SOL    HW174409   9.208   9.113  10.000 -1.0436  0.8150 -0.6372
23284SOL    HW274410   9.318   9.151   9.904  2.3052 -2.8485  1.4659
23285SOL     OW74411  10.803   1.926  11.074 -0.1726  0.2138 -0.0450
23285SOL    HW174412  10.732   1.882  11.028 -0.6933  1.6320 -0.6482
23285SOL    HW274413  10.876   1.926  11.013 -0.0046 -0.2332  0.1484
23286SOL     OW74414  10.729   0.030   8.225 -0.2152 -0.0755 -0.0007
23286SOL    HW174415  10.801   0.060   8.170 -0.8643  0.8339 -0.3766
23286SOL    HW274416  10.766   0.026   8.313 -0.1972  2.2740  0.1478
23287SOL     OW74417   4.744   1.634   6.029 -0.3185  0.4496 -0.2770
23287SOL    HW174418   4.688   1.559   6.006  0.1921 -0.9707  2.5983
23287SOL    HW274419   4.684   1.696   6.071 -0.1678 -0.1086  0.8151
23288SOL     OW74420   0.512   5.793   0.547  0.4837 -0.3366 -0.2506
23288SOL    HW174421   0.543   5.786   0.457  0.3650  0.3139 -0.3462
23288SOL    HW274422   0.417   5.782   0.541  0.2780  1.3137 -0.4189
23289SOL     OW74423  10.656   2.899   2.285  0.0398 -0.2946 -0.2929
23289SOL    HW174424  10.628   2.823   2.335 -0.8894 -1.0551 -1.8851
23289SOL    HW274425  10.752   2.900   2.294 -0.1678  0.7602  3.0043
23290SOL     OW74426   0.936   6.611   5.496  0.1686 -0.1257 -0.1146
23290SOL    HW174427   0.969   6.537   5.444 -1.2354 -0.8815  0.0152
23290SOL    HW274428   0.911   6.677   5.431  2.0818  0.5655 -0.2074
23291SOL     OW74429   6.667  10.402   5.181  0.2061  0.1212 -0.6274
23291SOL    HW174430   6.730  10.363   5.120  0.3832 -0.5348 -0.0358
23291SOL    HW274431   6.706  10.486   5.206  0.7229 -0.1683 -0.4628
23292SOL     OW74432  11.597  11.699   2.526 -0.0224 -0.1282  0.0685
23292SOL    HW174433  11.512  11.715   2.484 -0.3823 -0.7970  0.5179
23292SOL    HW274434  11.661  11.715   2.458 -0.5357 -0.0207 -0.3956
23293SOL     OW74435   6.729   8.800  10.582 -0.6070 -0.2100  0.0852
23293SOL    HW174436   6.699   8.792  10.673 -1.5149  1.9294  0.0306
23293SOL    HW274437   6.822   8.823  10.590 -1.3386  3.0565  0.6916
23294SOL     OW74438   4.689   9.758  11.252  0.0887 -0.2630 -0.6615
23294SOL    HW174439   4.774   9.751  11.294 -0.4355  0.7358  0.6208
23294SOL    HW274440   4.696   9.702  11.174  1.3690 -1.4963  0.2835
23295SOL     OW74441  11.561  10.982   3.948  0.3026 -0.2634 -0.2610
23295SOL    HW174442  11.485  10.964   4.003  1.3938  0.5275  1.5768
23295SOL    HW274443  11.627  10.919   3.975  0.9208  0.2493 -0.5347
23296SOL     OW74444   8.136   2.848   3.321 -0.4109  0.4268  0.3494
23296SOL    HW174445   8.114   2.780   3.385  0.9088 -0.3423  0.0357
23296SOL    HW274446   8.078   2.831   3.247 -1.3252  0.7665  0.9677
23297SOL     OW74447   0.259   0.784  11.226 -0.4189 -0.2394 -0.1025
23297SOL    HW174448   0.294   0.781  11.315 -3.9358 -2.4421  1.4141
23297SOL    HW274449   0.285   0.700  11.188  1.8572  1.0542 -1.6524
23298SOL     OW74450   1.541   9.284   1.157 -0.2577 -0.6772  0.3478
23298SOL    HW174451   1.584   9.366   1.180 -0.9482  0.0148 -0.7192
23298SOL    HW274452   1.608   9.217   1.167  0.2778 -0.0057  1.3668
23299SOL     OW74453   6.572   2.314   9.698 -0.0259  0.5908  0.3854
23299SOL    HW174454   6.587   2.242   9.759  1.5149  0.5954  0.0472
23299SOL    HW274455   6.478   2.311   9.681 -0.7607  1.2477  3.5497
23300SOL     OW74456  11.471   7.612   6.563  0.0032 -0.2244  0.2465
23300SOL    HW174457  11.517   7.565   6.493  0.3968  0.2044  0.2101
23300SOL    HW274458  11.441   7.544   6.622  1.0462 -0.5026  0.4809
23301SOL     OW74459   1.719  11.639  12.079  0.3175 -0.3968 -0.4062
23301SOL    HW174460   1.808  11.667  12.056  0.6297 -0.9084  0.1328
23301SOL    HW274461   1.671  11.640  11.997  1.4348 -2.3239 -1.1625
23302SOL     OW74462   9.990   4.150   6.879  0.5336 -0.2745 -0.0959
23302SOL    HW174463   9.942   4.204   6.941 -2.5883 -1.0388 -1.6197
23302SOL    HW274464  10.077   4.141   6.917 -0.3389  1.6032  2.6809
23303SOL     OW74465   7.543   2.262  11.607 -0.1006  0.1707 -0.1955
23303SOL    HW174466   7.455   2.275  11.570  0.9998  1.5853 -2.5430
23303SOL    HW274467   7.527   2.228  11.695 -2.9860  0.2723 -0.5776
23304SOL     OW74468   2.141   3.593   6.908 -0.2001 -0.0310 -0.1377
23304SOL    HW174469   2.159   3.586   6.815 -0.5858  1.6506 -0.3795
23304SOL    HW274470   2.046   3.605   6.914 -0.2696 -0.8376  0.5245
23305SOL     OW74471   5.759   7.350   4.396  0.0635  0.9843  0.0976
23305SOL    HW174472   5.768   7.441   4.366  0.2510  1.0716  0.4190
23305SOL    HW274473   5.699   7.355   4.470 -0.7349  0.7128 -0.5132
23306SOL     OW74474   0.454   3.023   3.486 -0.2793 -0.0636 -0.6430
23306SOL    HW174475   0.482   2.948   3.433 -0.8403  0.2162 -1.3570
23306SOL    HW274476   0.394   3.071   3.429 -0.2592  0.6966 -0.0338
23307SOL     OW74477   2.054   9.447   0.761 -0.1079 -0.2669  0.0419
23307SOL    HW174478   2.130   9.390   0.772  0.5207  0.7584  1.1565
23307SOL    HW274479   2.012   9.448   0.847 -0.2285  0.7797 -0.0216
23308SOL     OW74480   0.768   1.873   8.705  0.3427 -0.5581 -0.2280
23308SOL    HW174481   0.863   1.887   8.715  1.0553 -4.5095 -0.0669
23308SOL    HW274482   0.733   1.880   8.794  0.5056  0.5050 -0.2319
23309SOL     OW74483  10.515  11.932   3.239  0.3606  0.2579  0.2419
23309SOL    HW174484  10.481  11.926   3.328  0.2865 -0.9217  0.1472
23309SOL    HW274485  10.537  11.842   3.215 -1.2098  0.2731 -1.5425
23310SOL     OW74486  10.828   3.454   4.636  0.3123 -0.1720 -0.1648
23310SOL    HW174487  10.789   3.513   4.701 -0.0514 -0.9018  0.2930
23310SOL    HW274488  10.753   3.420   4.587  0.4577 -0.7449  0.0036
23311SOL     OW74489   7.395   8.047   9.836 -0.2257  0.6822  0.3954
23311SOL    HW174490   7.479   8.089   9.820 -0.0587  0.3107  0.2740
23311SOL    HW274491   7.383   8.052   9.931 -0.2907  1.1551  0.3625
23312SOL     OW74492   5.245   3.033  11.533  0.3395 -0.3198  0.1267
23312SOL    HW174493   5.185   3.034  11.607  0.9135  0.5539  0.5950
23312SOL    HW274494   5.190   3.011  11.458 -0.3949 -0.4113  0.6775
23313SOL     OW74495   9.326   6.616   1.450 -0.4493  0.6197 -0.2621
23313SOL    HW174496   9.321   6.640   1.542 -0.6762  1.2738 -0.4329
23313SOL    HW274497   9.418   6.594   1.435 -0.0471  2.1706 -0.2600
23314SOL     OW74498   9.739   6.242   9.528  0.3366  0.4689  0.2071
23314SOL    HW174499   9.783   6.215   9.447 -0.2791 -0.0372  0.0256
23314SOL    HW274500   9.797   6.307   9.567  1.6899 -0.8238  0.4393
23315SOL     OW74501  10.138   4.590   9.253 -0.0324  0.0262 -0.2155
23315SOL    HW174502  10.084   4.642   9.194  0.3719  0.8390  0.1220
23315SOL    HW274503  10.158   4.649   9.326  1.7664 -0.0562 -0.5871
23316SOL     OW74504   9.822   0.374   9.830  0.3641  0.7138  0.3453
23316SOL    HW174505   9.871   0.338   9.904  0.6170  0.2329 -0.0434
23316SOL    HW274506   9.797   0.297   9.778 -1.0309  0.9289  0.6574
23317SOL     OW74507   9.188   2.410   5.607 -0.2631 -0.0802 -0.0029
23317SOL    HW174508   9.255   2.462   5.650  0.4430 -0.8272 -0.1812
23317SOL    HW274509   9.133   2.378   5.678  0.0593 -0.1408  0.2227
23318SOL     OW74510   3.743  10.652  11.874 -0.4050 -0.3284  0.4110
23318SOL    HW174511   3.817  10.592  11.873 -1.3461 -1.5587  1.5525
23318SOL    HW274512   3.782  10.738  11.890  0.9617 -0.5863 -1.2590
23319SOL     OW74513   4.494   5.320   5.753  0.3617 -0.7185  0.0146
23319SOL    HW174514   4.412   5.308   5.705 -0.1534 -0.0520  0.6905
23319SOL    HW274515   4.514   5.233   5.788 -0.3309 -0.7919  0.2564
23320SOL     OW74516   6.156   2.355   5.870 -0.4699 -0.4588 -0.1482
23320SOL    HW174517   6.118   2.291   5.930 -1.3364 -0.6413 -0.8699
23320SOL    HW274518   6.247   2.326   5.859  0.0112  0.1520  1.8290
23321SOL     OW74519   5.556   8.246  11.679 -0.6162  0.2001 -0.1656
23321SOL    HW174520   5.580   8.188  11.607 -1.7652 -0.4816 -0.0284
23321SOL    HW274521   5.632   8.303  11.691 -0.0678 -0.2640 -1.3222
23322SOL     OW74522   5.966   1.154   1.923  0.3069 -0.5939 -0.1177
23322SOL    HW174523   5.899   1.122   1.864  1.0008 -0.0837 -1.2088
23322SOL    HW274524   5.971   1.248   1.905 -0.3148 -0.1937  1.6162
23323SOL     OW74525  10.754   0.719   1.510  0.1098  0.6834  0.3026
23323SOL    HW174526  10.786   0.807   1.527  0.0155  0.6681  0.5752
23323SOL    HW274527  10.833   0.667   1.494  0.0873  1.1164 -1.3663
23324SOL     OW74528   0.042   5.421   3.095  0.2491  0.5647 -0.0435
23324SOL    HW174529  -0.048   5.430   3.126  0.6485 -0.2200  1.4482
23324SOL    HW274530   0.036   5.358   3.023 -0.3503  0.1681  0.3389
23325SOL     OW74531   8.662   2.390   3.623  0.4087 -0.5036  0.6900
23325SOL    HW174532   8.645   2.388   3.717 -1.6655  0.7724  0.4217
23325SOL    HW274533   8.576   2.373   3.583  1.4067 -1.8503 -1.0026
23326SOL     OW74534   1.779   3.167   4.195 -0.2999  0.3324  0.5912
23326SOL    HW174535   1.732   3.180   4.278 -0.5628  2.3782  0.1884
23326SOL    HW274536   1.735   3.226   4.134  1.6592  0.9793 -0.2771
23327SOL     OW74537   7.710   4.913   7.332 -0.0664 -0.0449  0.1677
23327SOL    HW174538   7.759   4.834   7.356  0.0321  0.4636  1.7735
23327SOL    HW274539   7.777   4.980   7.319 -0.2288  0.1720  0.4296
23328SOL     OW74540   2.781   9.860   1.155 -0.0054 -0.5545 -0.3464
23328SOL    HW174541   2.723   9.860   1.231 -1.7049  2.1613 -1.4835
23328SOL    HW274542   2.848   9.794   1.175 -1.1358 -0.8865  2.8566
23329SOL     OW74543  11.620   5.577   7.965 -0.2846 -0.2325 -0.1336
23329SOL    HW174544  11.709   5.546   7.980 -0.1527 -0.2357 -0.8937
23329SOL    HW274545  11.585   5.519   7.897 -0.7932 -0.1049  0.0140
23330SOL     OW74546   1.721   3.329   5.499 -0.3235 -0.3037 -0.3744
23330SOL    HW174547   1.640   3.315   5.450 -0.1729 -0.2605 -0.6344
23330SOL    HW274548   1.780   3.261   5.467 -0.9350 -1.7113  1.3223
23331SOL     OW74549  10.141  11.069  10.783 -0.3064  0.4388  0.8777
23331SOL    HW174550  10.209  11.041  10.721 -1.0317 -2.1642  1.1494
23331SOL    HW274551  10.064  11.085  10.729  0.0534  1.8377  0.7454
23332SOL     OW74552  12.062   9.440   2.201 -0.8875 -0.1316 -0.0975
23332SOL    HW174553  12.153   9.439   2.230 -0.8634 -1.0422 -0.1753
23332SOL    HW274554  12.026   9.520   2.238  0.7252  1.9102 -2.5352
23333SOL     OW74555  10.062   4.173   1.206  0.0687  1.2823  0.0325
23333SOL    HW174556  10.042   4.175   1.113  1.6556  0.7486 -0.3373
23333SOL    HW274557   9.980   4.146   1.247  0.0349 -1.1634 -1.4512
23334SOL     OW74558   5.843   1.754   1.796  0.1113 -0.3893 -0.3440
23334SOL    HW174559   5.756   1.789   1.813 -0.3585 -0.6323 -2.0193
23334SOL    HW274560   5.867   1.708   1.876 -0.4852  1.2635  0.8440
23335SOL     OW74561   2.199   1.380   0.710  0.0154 -0.1834 -0.1709
23335SOL    HW174562   2.125   1.420   0.757 -0.0396  2.3168 -2.1561
23335SOL    HW274563   2.275   1.431   0.737  0.7796 -1.6716  0.5926
23336SOL     OW74564  10.681   8.072  10.398 -0.1824 -0.2236 -0.0577
23336SOL    HW174565  10.734   8.030  10.466 -0.7342 -0.5252  0.1845
23336SOL    HW274566  10.744   8.089  10.327  0.4842  0.4564  0.6646
23337SOL     OW74567   6.139   1.607   7.469 -0.1030 -0.3682  0.0427
23337SOL    HW174568   6.206   1.539   7.476  1.0680  0.7499  0.1317
23337SOL    HW274569   6.157   1.665   7.543  0.1082  1.0353 -1.0722
23338SOL     OW74570  11.788  11.181   9.206 -0.7000  0.2476  0.3198
23338SOL    HW174571  11.713  11.240   9.215  1.5396  3.2996  0.5950
23338SOL    HW274572  11.796  11.167   9.112 -0.1972  2.0353  0.0513
23339SOL     OW74573   0.389   7.085   9.922 -0.1883  0.6090 -0.3841
23339SOL    HW174574   0.418   7.175   9.915 -0.2331  0.6345 -0.2342
23339SOL    HW274575   0.390   7.066  10.015  1.4780 -0.0848 -0.5072
23340SOL     OW74576   4.111  10.600   1.581 -0.2493  0.2168  0.1806
23340SOL    HW174577   4.093  10.584   1.674  0.9344 -0.5857  0.2935
23340SOL    HW274578   4.206  10.589   1.573 -0.2201  1.1260 -0.9663
23341SOL     OW74579   2.141   0.729   0.617 -0.6059 -0.2931  0.5182
23341SOL    HW174580   2.228   0.696   0.637 -0.9435 -2.7617 -1.5114
23341SOL    HW274581   2.087   0.703   0.693  0.2630  0.7276  1.5113
23342SOL     OW74582   8.699   4.195   9.491 -0.5700  0.2146  0.0028
23342SOL    HW174583   8.688   4.290   9.496  1.0172  0.4597 -0.7271
23342SOL    HW274584   8.609   4.161   9.497 -1.0884  1.6841  1.3111
23343SOL     OW74585   3.963   9.383   9.780 -0.1147 -0.5833  0.2222
23343SOL    HW174586   4.015   9.435   9.841  0.2754 -0.7684  0.0516
23343SOL    HW274587   3.912   9.323   9.835 -0.0020 -0.5353  0.3773
23344SOL     OW74588   5.072   2.453   4.167  0.3877 -0.1541 -0.6176
23344SOL    HW174589   5.077   2.390   4.239  0.6197 -0.8921 -1.2692
23344SOL    HW274590   5.140   2.518   4.188 -0.6477  0.5557  0.6704
23345SOL     OW74591   4.352  11.907   5.640  0.2317  0.3519  0.1456
23345SOL    HW174592   4.390  11.970   5.580  0.7070  0.8554  0.9634
23345SOL    HW274593   4.304  11.846   5.584 -0.9411  1.9006 -0.6080
23346SOL     OW74594   7.003   0.712   4.001 -0.1327  0.0134 -0.2869
23346SOL    HW174595   6.972   0.710   3.911 -0.1000 -0.5807 -0.2844
23346SOL    HW274596   7.092   0.748   3.995 -0.5178  0.9885 -0.3736
23347SOL     OW74597   8.487  11.987   8.716 -0.0525 -0.0392 -0.4798
23347SOL    HW174598   8.506  11.901   8.753  0.8054  0.7721  1.0254
23347SOL    HW274599   8.554  12.045   8.751 -1.8457  1.7100  0.2798
23348SOL     OW74600  11.845   6.601  10.787 -0.3518  0.3818 -0.3672
23348SOL    HW174601  11.776   6.644  10.836 -0.0491 -0.5760  0.9639
23348SOL    HW274602  11.925   6.617  10.838  0.3206  0.9590 -1.5512
23349SOL     OW74603   7.116  10.186   8.167  0.4377 -0.2072  0.3087
23349SOL    HW174604   7.173  10.260   8.145 -0.3425  0.1638 -0.5579
23349SOL    HW274605   7.153  10.112   8.119 -0.4821  0.3048 -1.2574
23350SOL     OW74606  11.563   5.386  10.675 -0.4747 -0.8168  0.0411
23350SOL    HW174607  11.659   5.385  10.676 -0.3919  0.3596  2.5434
23350SOL    HW274608  11.541   5.478  10.662 -1.2323 -0.9174  0.5836
23351SOL     OW74609   1.979  11.036   9.684  0.0149  0.2106 -0.0904
23351SOL    HW174610   1.923  11.030   9.761 -1.0208 -1.1064 -0.8824
23351SOL    HW274611   2.023  10.951   9.680  0.4871  0.4797 -0.6172
23352SOL     OW74612   4.933  11.826   9.812 -0.3473  0.1654 -0.1518
23352SOL    HW174613   4.886  11.770   9.750 -2.3017  1.3704  0.1456
23352SOL    HW274614   4.885  11.909   9.810  1.4286  1.2824  0.6780
23353SOL     OW74615   4.208  11.783   7.265  0.1015  0.3265 -0.1349
23353SOL    HW174616   4.255  11.770   7.347  0.6271 -0.1640 -0.5052
23353SOL    HW274617   4.119  11.751   7.282  0.3201 -0.1508  0.1227
23354SOL     OW74618   4.318   0.004   2.821  0.4827 -0.1907 -0.0353
23354SOL    HW174619   4.292   0.057   2.897  1.4220  0.9243 -0.4522
23354SOL    HW274620   4.239  -0.044   2.797 -0.8720  2.1048 -0.4991
23355SOL     OW74621   8.834   2.414   5.723  0.5060  0.2152 -0.7924
23355SOL    HW174622   8.920   2.378   5.744 -0.2280 -1.6975 -0.8689
23355SOL    HW274623   8.812   2.376   5.638  0.0761  1.6278 -1.3425
23356SOL     OW74624   6.438   9.842   4.969 -0.1535  0.2194 -0.4780
23356SOL    HW174625   6.473   9.885   5.047 -0.0354 -2.2157  0.9100
23356SOL    HW274626   6.389   9.911   4.924  0.2405  1.8606  1.4506
23357SOL     OW74627   8.927   5.070  11.882  0.1885 -0.6582 -0.1078
23357SOL    HW174628   8.926   5.071  11.787 -0.4354  1.5049 -0.1396
23357SOL    HW274629   8.897   5.158  11.907 -0.6278 -1.4951  2.0863
23358SOL     OW74630   2.217   7.464  10.014  0.1003  0.7771 -0.2079
23358SOL    HW174631   2.305   7.450  10.051 -0.0907  0.2781  0.0599
23358SOL    HW274632   2.221   7.425   9.927  0.0314  0.4291 -0.0536
23359SOL     OW74633   8.579   3.702   3.892 -0.6683  0.2299 -0.2691
23359SOL    HW174634   8.625   3.651   3.826 -1.2231  0.2586 -0.6891
23359SOL    HW274635   8.554   3.783   3.846 -0.8948  0.3300  0.0274
23360SOL     OW74636   3.459   2.838  11.338 -0.1801 -0.0809 -0.3206
23360SOL    HW174637   3.386   2.869  11.284  0.4239 -0.2097 -1.2227
23360SOL    HW274638   3.432   2.859  11.427 -2.0584 -1.5739 -0.4636
23361SOL     OW74639   9.396   8.682   6.591 -0.0762  0.1924  0.3108
23361SOL    HW174640   9.332   8.745   6.623 -0.2338  1.2409 -1.8376
23361SOL    HW274641   9.481   8.719   6.617 -0.2603  0.0085  1.1738
23362SOL     OW74642  11.858   5.274   2.094  0.4268 -0.4101  0.3564
23362SOL    HW174643  11.855   5.333   2.019 -0.9090 -1.3588 -0.3899
23362SOL    HW274644  11.811   5.321   2.163 -0.6766 -0.5877 -0.2496
23363SOL     OW74645   3.119  11.922   0.796  0.1597  0.3420  0.3966
23363SOL    HW174646   3.171  11.997   0.766  0.8169  0.1626  1.0607
23363SOL    HW274647   3.150  11.849   0.743  2.0715 -0.2023  2.1264
23364SOL     OW74648   1.347   2.455   3.127 -0.4647 -0.0561  0.1286
23364SOL    HW174649   1.288   2.528   3.106  0.2977  0.5021 -0.1215
23364SOL    HW274650   1.358   2.460   3.222  1.6298  1.8186 -0.1260
23365SOL     OW74651  10.592   7.757   6.143  0.0021 -0.2687 -0.4049
23365SOL    HW174652  10.551   7.714   6.069  0.5646  0.6237 -1.2623
23365SOL    HW274653  10.623   7.686   6.199  0.7332 -0.9861 -1.6774
23366SOL     OW74654   5.135   3.383   3.073 -0.2197 -0.2691  0.3540
23366SOL    HW174655   5.062   3.429   3.116 -0.9103 -0.2023 -0.8320
23366SOL    HW274656   5.212   3.434   3.095 -0.6171  0.0251  1.1156
23367SOL     OW74657   9.856   5.358   2.253  0.1280  0.4734 -0.3561
23367SOL    HW174658   9.777   5.313   2.224  0.4400 -0.3573  0.0470
23367SOL    HW274659   9.925   5.292   2.246  0.5651  0.8346  0.4141
23368SOL     OW74660   8.569   4.434   8.605 -0.4814  0.1349  0.1517
23368SOL    HW174661   8.498   4.483   8.647  0.0071 -0.3855  1.6421
23368SOL    HW274662   8.618   4.396   8.677  1.1449  0.2135 -0.8527
23369SOL     OW74663   0.733   0.845   6.417 -0.1055  0.0764 -0.0349
23369SOL    HW174664   0.770   0.833   6.330  1.5714  1.9312  0.3489
23369SOL    HW274665   0.673   0.918   6.408  0.2511  0.4311  0.3948
23370SOL     OW74666   7.274   7.702   9.009 -0.4950 -0.1601  0.1935
23370SOL    HW174667   7.344   7.671   8.952 -1.2287 -1.4632 -0.0398
23370SOL    HW274668   7.278   7.644   9.085 -0.1406  0.9495  1.0409
23371SOL     OW74669   5.136   0.561   4.883 -0.3259  0.3447  0.2222
23371SOL    HW174670   5.110   0.469   4.891 -0.2866  0.0971 -1.8367
23371SOL    HW274671   5.166   0.570   4.792  3.1688  1.5481  1.3227
23372SOL     OW74672   8.162  11.705   5.564 -0.4433 -0.2205 -0.6767
23372SOL    HW174673   8.084  11.651   5.552 -0.8227  0.2145 -0.1974
23372SOL    HW274674   8.171  11.752   5.481 -0.6678 -0.2948 -0.7452
23373SOL     OW74675   1.012   8.945  11.821  0.4227  0.2933 -0.4698
23373SOL    HW174676   0.924   8.939  11.858  0.7675 -0.8580  0.2171
23373SOL    HW274677   1.010   8.889  11.744  0.5241  0.3226 -0.4940
23374SOL     OW74678   8.629  10.439  12.007  0.2934 -0.4825 -0.1372
23374SOL    HW174679   8.554  10.407  11.956 -1.1257  1.0240  0.9014
23374SOL    HW274680   8.657  10.517  11.960  0.6570 -0.5479 -0.0271
23375SOL     OW74681   0.712   1.463   9.023  0.3308 -0.2498 -0.3123
23375SOL    HW174682   0.665   1.431   9.101  2.1426 -0.3619  0.7829
23375SOL    HW274683   0.670   1.417   8.950 -1.8721  0.3683  0.4818
23376SOL     OW74684   8.563   2.171   0.181 -0.3163  0.0936  0.1629
23376SOL    HW174685   8.490   2.115   0.207 -0.2912 -0.1352 -0.2501
23376SOL    HW274686   8.576   2.230   0.255 -1.6583  0.8838 -0.2136
23377SOL     OW74687   7.275   9.175   8.621  1.0755 -0.4210  0.0504
23377SOL    HW174688   7.258   9.084   8.596 -1.3446  0.3629 -1.4374
23377SOL    HW274689   7.201   9.200   8.675  0.4239  1.3335 -1.5313
23378SOL     OW74690  11.458   6.662   6.404  0.3371 -0.0372  0.1142
23378SOL    HW174691  11.394   6.717   6.359 -0.2297 -0.4005  0.4654
23378SOL    HW274692  11.436   6.573   6.377  0.2928 -0.2173  0.7364
23379SOL     OW74693   0.818   2.554   5.017  0.3100  0.3738  0.2048
23379SOL    HW174694   0.866   2.491   5.072  1.2322  1.7268  1.0073
23379SOL    HW274695   0.752   2.501   4.972  2.3458 -1.5314 -0.7168
23380SOL     OW74696   0.617   0.583   7.320 -0.1500  0.0156 -0.0343
23380SOL    HW174697   0.661   0.548   7.397  0.5714 -1.5298 -1.0897
23380SOL    HW274698   0.534   0.535   7.315 -0.0800 -0.0800 -0.3504
23381SOL     OW74699   8.161   7.252   4.971  0.6039 -0.3747 -0.7467
23381SOL    HW174700   8.158   7.323   5.035  0.4185  0.0251 -1.1924
23381SOL    HW274701   8.121   7.289   4.892 -0.0164 -1.1510 -0.8087
23382SOL     OW74702   6.531   9.784   3.496  0.0137  0.9566  0.7018
23382SOL    HW174703   6.610   9.831   3.523  0.4741  0.1492  0.7914
23382SOL    HW274704   6.546   9.694   3.523  0.6170  0.0098 -2.3627
23383SOL     OW74705   8.491   4.940   9.657 -0.1495 -0.6516  0.2918
23383SOL    HW174706   8.556   4.889   9.608 -1.3905 -1.0816 -0.9799
23383SOL    HW274707   8.429   4.875   9.690 -0.7342 -0.1283  0.2461
23384SOL     OW74708   5.022  11.915   7.288 -0.8132  0.0245  0.2794
23384SOL    HW174709   5.003  11.989   7.231 -1.0622 -1.2176 -1.3214
23384SOL    HW274710   4.978  11.841   7.247  1.6246 -1.5631  0.3339
23385SOL     OW74711   6.460   0.910   6.559 -0.1955 -0.1985  0.4310
23385SOL    HW174712   6.544   0.948   6.535 -0.6215  2.1560  2.3215
23385SOL    HW274713   6.401   0.937   6.488  0.9550 -4.0809 -2.3592
23386SOL     OW74714   7.532  10.336   1.491  0.5449  0.0114 -0.0874
23386SOL    HW174715   7.477  10.367   1.419 -0.8406 -0.5083  0.7141
23386SOL    HW274716   7.472  10.325   1.564  1.6198 -1.1056  0.6733
23387SOL     OW74717   3.156   1.818   7.996 -0.1626  0.5949  0.4358
23387SOL    HW174718   3.235   1.844   7.948 -0.0753 -0.5888 -0.1121
23387SOL    HW274719   3.096   1.892   7.987 -0.4902  0.1182 -2.2755
23388SOL     OW74720   9.054   0.609   0.003 -0.0830  0.1637 -0.2220
23388SOL    HW174721   9.100   0.536  -0.039  1.1214 -0.0153  1.3059
23388SOL    HW274722   9.121   0.676   0.016 -1.1666  1.5875 -1.5977
23389SOL     OW74723   0.846   4.306   4.828  0.3175  0.0739  0.0849
23389SOL    HW174724   0.900   4.297   4.906 -1.3890  0.7312  1.4331
23389SOL    HW274725   0.782   4.374   4.851 -1.6260 -1.2468 -1.0435
23390SOL     OW74726   7.363   7.942   3.371  0.1538  0.2526  0.3345
23390SOL    HW174727   7.320   7.947   3.456  1.0597 -0.0512  0.8259
23390SOL    HW274728   7.456   7.947   3.391  0.3865  0.0734 -0.6393
23391SOL     OW74729   6.990   8.164   5.089 -0.1295  0.3631 -0.1485
23391SOL    HW174730   7.068   8.133   5.134  0.4367 -0.7112 -1.7852
23391SOL    HW274731   6.920   8.107   5.121 -0.2588  1.3041  1.2933
23392SOL     OW74732   4.352   0.121  11.655 -0.4054 -0.3216  0.0920
23392SOL    HW174733   4.443   0.091  11.650 -0.3337 -0.0768 -0.0873
23392SOL    HW274734   4.302   0.042  11.677 -0.3880 -0.8976 -1.7483
23393SOL     OW74735   1.746   8.174   2.179 -0.1727 -0.2143  0.5126
23393SOL    HW174736   1.745   8.268   2.193 -0.9867 -0.0798 -0.3847
23393SOL    HW274737   1.664   8.154   2.135 -0.6815 -1.5631  1.9491
23394SOL     OW74738   5.414   5.700   5.537 -0.5356  0.8566  0.3163
23394SOL    HW174739   5.408   5.770   5.472  1.9149 -0.1948 -1.2303
23394SOL    HW274740   5.505   5.704   5.567 -0.6424 -0.9651  0.9956
23395SOL     OW74741   1.013   3.377   4.339  0.7132 -0.4884  0.1898
23395SOL    HW174742   0.975   3.328   4.412  0.3060  1.1597  1.1345
23395SOL    HW274743   1.068   3.443   4.380  0.0038  0.8821 -0.9291
23396SOL     OW74744   4.117  11.546   7.034 -0.7039  0.2905  0.6468
23396SOL    HW174745   4.196  11.595   7.059 -0.1028 -0.5901  0.5102
23396SOL    HW274746   4.060  11.611   6.994 -0.6707  1.2537  2.0712
23397SOL     OW74747   5.727   1.901   4.313 -0.1076 -0.6506 -0.5154
23397SOL    HW174748   5.642   1.915   4.272 -0.9845 -0.1369  1.3392
23397SOL    HW274749   5.706   1.870   4.402  1.5283  1.7193  0.8168
23398SOL     OW74750   0.053   4.101  11.977  0.0890 -1.0670 -0.0021
23398SOL    HW174751   0.011   4.157  12.041  0.6649  0.2970 -0.7701
23398SOL    HW274752   0.061   4.155  11.898 -0.1034 -2.5070 -1.0603
23399SOL     OW74753   3.807   9.415   4.565 -0.3107  0.0721 -0.4508
23399SOL    HW174754   3.755   9.348   4.521 -1.5831  0.8960 -0.2622
23399SOL    HW274755   3.744   9.485   4.584  0.9657  1.3074 -0.6171
23400SOL     OW74756   9.123   8.027   6.285 -0.2198  0.7473 -0.2714
23400SOL    HW174757   9.073   7.983   6.353  0.7872 -0.2308 -0.1326
23400SOL    HW274758   9.101   7.980   6.204 -0.4147  1.0655 -0.4055
23401SOL     OW74759   5.666   0.594   5.374 -0.3939 -0.0724 -0.2239
23401SOL    HW174760   5.615   0.533   5.427 -0.3791 -0.9411 -1.1847
23401SOL    HW274761   5.721   0.641   5.438 -0.0602 -1.3808  0.4980
23402SOL     OW74762   3.120   0.684   3.888 -0.1613  0.0939  0.1232
23402SOL    HW174763   3.093   0.721   3.972  0.2545  1.3375 -0.2779
23402SOL    HW274764   3.193   0.626   3.910 -1.5020 -1.3861  0.8915
23403SOL     OW74765   5.159   9.606   4.921 -0.4453 -0.3614  0.5598
23403SOL    HW174766   5.085   9.560   4.882 -0.0608 -0.9693  0.5402
23403SOL    HW274767   5.139   9.699   4.908 -0.2187 -0.5311 -1.3423
23404SOL     OW74768   2.559   1.015   9.389 -0.1641  0.1369 -0.5863
23404SOL    HW174769   2.526   0.930   9.416  0.2549 -0.0276 -0.5823
23404SOL    HW274770   2.533   1.023   9.297  0.8651 -0.5410 -0.9535
23405SOL     OW74771  10.950   1.744   7.380 -0.2219  0.3868 -0.4690
23405SOL    HW174772  10.913   1.696   7.455  0.9714  0.6884  0.3501
23405SOL    HW274773  10.901   1.712   7.305  0.5704 -2.2204  0.0224
23406SOL     OW74774   9.678  11.112   6.205 -0.0791 -0.1053 -0.0800
23406SOL    HW174775   9.705  11.095   6.115 -1.2999 -1.0206 -0.2940
23406SOL    HW274776   9.704  11.203   6.221 -0.7261  0.3996 -1.6861
23407SOL     OW74777   9.817  11.440   0.096  0.4104  0.1724  0.5743
23407SOL    HW174778   9.880  11.383   0.141 -0.1099  0.0613  1.1647
23407SOL    HW274779   9.744  11.383   0.074 -0.2350  0.6699  1.4088
23408SOL     OW74780  11.508   0.708   2.881  0.6163  0.3767  0.4681
23408SOL    HW174781  11.537   0.670   2.799 -1.4632  0.5570 -0.4108
23408SOL    HW274782  11.521   0.639   2.946 -1.9117 -1.4869 -0.8538
23409SOL     OW74783   2.898   0.116   1.303 -0.1264  0.7946  0.1538
23409SOL    HW174784   2.962   0.163   1.248  0.5359 -0.4387 -0.1734
23409SOL    HW274785   2.846   0.065   1.241 -0.3224  0.4902  0.5657
23410SOL     OW74786   3.697   2.205   5.402  0.5338  0.7389 -0.3999
23410SOL    HW174787   3.769   2.147   5.375  0.1915 -0.5144  1.2441
23410SOL    HW274788   3.737   2.264   5.466 -0.1549 -0.9486  1.6845
23411SOL     OW74789  11.179  10.061   4.283 -0.1704 -0.2879  0.4604
23411SOL    HW174790  11.196  10.077   4.190  0.8853  0.6283  0.8066
23411SOL    HW274791  11.226   9.980   4.302 -0.9123 -0.8314  0.0648
23412SOL     OW74792  10.168   2.916   0.883 -0.3766 -0.1153  0.1339
23412SOL    HW174793  10.214   3.000   0.888 -0.1835 -0.1668 -0.6500
23412SOL    HW274794  10.233   2.856   0.847 -0.4539 -0.6523  0.8793
23413SOL     OW74795   9.750   1.383   2.048 -0.0980 -0.2662  0.0171
23413SOL    HW174796   9.661   1.394   2.079  0.1899 -1.4459  1.3887
23413SOL    HW274797   9.793   1.332   2.116  1.1560 -1.2269 -1.4095
23414SOL     OW74798   7.457  10.637   2.571 -0.0897 -0.1174 -0.1582
23414SOL    HW174799   7.362  10.628   2.572 -0.0598 -0.7441  1.8332
23414SOL    HW274800   7.476  10.698   2.642  1.0325 -0.8260  0.1863
23415SOL     OW74801   7.287   4.001   2.316 -0.6616 -0.3777  0.2338
23415SOL    HW174802   7.195   3.975   2.325 -0.7473 -0.7249 -1.3508
23415SOL    HW274803   7.287   4.060   2.240  0.5267 -1.0093 -0.2717
23416SOL     OW74804  10.173   5.602   5.717  0.2899  0.1887 -0.1344
23416SOL    HW174805  10.169   5.646   5.802  0.8041 -2.3089  1.2681
23416SOL    HW274806  10.224   5.662   5.662  0.0248  1.8230  1.3012
23417SOL     OW74807   5.840   8.759   8.506  0.1133  0.5879 -0.0085
23417SOL    HW174808   5.856   8.665   8.516  2.1322  0.6502 -1.9440
23417SOL    HW274809   5.924   8.800   8.526 -1.4329  2.3769  3.8597
23418SOL     OW74810   1.653   3.410   9.745  0.4544 -0.1476 -0.3088
23418SOL    HW174811   1.726   3.472   9.743  0.3769 -0.0216  0.3469
23418SOL    HW274812   1.672   3.347   9.676  1.2156 -0.1430 -0.1114
23419SOL     OW74813   1.901   4.012   5.211  0.0315 -0.1237 -0.0314
23419SOL    HW174814   1.862   3.976   5.292  0.7439 -2.7224 -0.7418
23419SOL    HW274815   1.826   4.044   5.161 -0.7405 -1.0689  0.4830
23420SOL     OW74816   6.280   9.471   1.419  0.0703 -0.1295  0.5038
23420SOL    HW174817   6.245   9.559   1.403  0.7899  0.8033  3.3992
23420SOL    HW274818   6.225   9.437   1.490  1.1653 -1.1249  0.9016
23421SOL     OW74819  12.061  10.625   1.011 -0.1251 -0.3994 -0.8463
23421SOL    HW174820  12.117  10.678   0.954 -0.4914  1.3869  0.3928
23421SOL    HW274821  12.114  10.548   1.031  0.9207  0.0809 -1.6836
23422SOL     OW74822   1.848  12.125  10.391  0.3955  0.0120 -0.1649
23422SOL    HW174823   1.828  12.205  10.440  2.2665 -0.8479  2.2403
23422SOL    HW274824   1.779  12.063  10.417  0.1716  0.2100 -0.2933
23423SOL     OW74825   7.486   6.874  11.174  0.2310 -0.3357 -0.1146
23423SOL    HW174826   7.466   6.964  11.149 -0.2191 -0.1782  0.7597
23423SOL    HW274827   7.412   6.848  11.229  1.3525 -0.5236  1.3543
23424SOL     OW74828   6.414   0.733   2.237 -0.5773  0.1699 -0.4618
23424SOL    HW174829   6.463   0.741   2.155  1.0814  1.3672  0.5698
23424SOL    HW274830   6.351   0.805   2.234  0.8753  1.5516  0.1337
23425SOL     OW74831   0.407   0.555   8.806  0.2165  0.4614 -0.4529
23425SOL    HW174832   0.450   0.497   8.869 -1.8448  0.4929  1.0675
23425SOL    HW274833   0.422   0.643   8.841  2.0863  0.8201 -1.9789
23426SOL     OW74834   9.437   7.814   3.427 -0.1881  0.2598 -0.1889
23426SOL    HW174835   9.410   7.745   3.488 -1.7544  1.5203  0.6261
23426SOL    HW274836   9.532   7.803   3.419  0.0131 -0.2466  2.1517
23427SOL     OW74837   5.712   8.703   6.796  0.8878  0.3355  0.0773
23427SOL    HW174838   5.749   8.791   6.789 -0.6388  1.0634  0.9053
23427SOL    HW274839   5.625   8.710   6.758 -0.1427 -0.2434  2.1894
23428SOL     OW74840   9.048  11.172   5.103 -0.4302  0.1931 -0.5328
23428SOL    HW174841   9.109  11.229   5.149  0.4640 -0.5647 -0.7367
23428SOL    HW274842   9.102  11.098   5.073 -1.3330 -0.2048 -1.2395
23429SOL     OW74843  10.750   9.820   1.933  0.0954 -0.6300 -0.1290
23429SOL    HW174844  10.739   9.838   2.026  1.7481  0.1945 -0.0585
23429SOL    HW274845  10.844   9.830   1.918 -0.2268 -0.1673 -2.0143
23430SOL     OW74846  10.456   5.124   8.296 -0.0106 -0.1570  0.3473
23430SOL    HW174847  10.388   5.070   8.336  0.3543 -1.4228 -0.6757
23430SOL    HW274848  10.517   5.143   8.367 -0.5848 -0.3727  0.9105
23431SOL     OW74849   9.868   6.686  10.960 -0.3950  0.3875 -0.0690
23431SOL    HW174850   9.782   6.728  10.962 -0.9879 -0.8053  1.3225
23431SOL    HW274851   9.902   6.697  11.049  0.6239  0.2920 -0.4369
23432SOL     OW74852   9.368   4.021   9.058  0.3754  0.3312  0.1431
23432SOL    HW174853   9.415   4.102   9.079  0.0697 -0.0763  2.8448
23432SOL    HW274854   9.436   3.953   9.056  0.5404  0.5176 -1.4009
23433SOL     OW74855   0.430  11.959   0.259 -0.4570  0.2420  0.2718
23433SOL    HW174856   0.415  11.908   0.339  0.5606 -1.5040 -0.5982
23433SOL    HW274857   0.525  11.970   0.254 -0.5255  0.5232 -0.5983
23434SOL     OW74858   6.803   6.271   2.332  0.3308 -0.2100 -0.2245
23434SOL    HW174859   6.720   6.319   2.340  1.8531  2.2856  2.0346
23434SOL    HW274860   6.795   6.199   2.395  0.3245  0.8011  0.9716
23435SOL     OW74861   1.293   2.114  10.720  0.2363  0.1278  0.0007
23435SOL    HW174862   1.227   2.107  10.789  0.5837 -0.2779  0.3038
23435SOL    HW274863   1.352   2.183  10.750  1.0988 -0.8843  0.7487
23436SOL     OW74864   3.901   2.018  11.843 -0.0915 -0.0191 -0.3059
23436SOL    HW174865   3.987   1.998  11.806  0.2545 -2.1321  1.4551
23436SOL    HW274866   3.839   1.976  11.783  0.4469 -3.2047  1.1366
23437SOL     OW74867   9.806   7.500  10.438  0.0471 -0.1084 -0.4082
23437SOL    HW174868   9.806   7.552  10.518  0.3975  1.8879 -1.6244
23437SOL    HW274869   9.716   7.469  10.429  0.0910 -0.6819  0.9194
23438SOL     OW74870   0.784   9.354   1.810  0.4093  1.0889 -0.6737
23438SOL    HW174871   0.717   9.416   1.839 -0.9481 -0.5978 -0.0069
23438SOL    HW274872   0.812   9.310   1.890  0.5549  0.1032 -1.2503
23439SOL     OW74873  11.468   4.533   4.045  0.7632 -0.1771  0.1481
23439SOL    HW174874  11.385   4.562   4.083 -0.2771 -0.6124 -1.6601
23439SOL    HW274875  11.479   4.589   3.968  2.0368 -0.2880  0.2402
23440SOL     OW74876   8.437   3.266   3.671  0.0384  0.5301 -0.6340
23440SOL    HW174877   8.445   3.201   3.740  1.8270  1.1601 -0.2044
23440SOL    HW274878   8.487   3.231   3.598  0.9599  1.3624 -0.4222
23441SOL     OW74879   6.125   4.778   5.141 -0.9454 -0.0858  0.4565
23441SOL    HW174880   6.040   4.756   5.178 -0.4660 -0.7123  1.2165
23441SOL    HW274881   6.140   4.869   5.166 -0.7714 -0.4021  1.5399
23442SOL     OW74882   2.888   1.236  11.643 -0.1868  0.3371  0.4421
23442SOL    HW174883   2.912   1.219  11.734 -0.5424 -0.0015  0.4769
23442SOL    HW274884   2.793   1.224  11.640 -0.3163  1.3481  0.2377
23443SOL     OW74885   0.756   2.148  10.195 -0.0110  0.0387  0.3447
23443SOL    HW174886   0.817   2.199  10.141 -0.0392 -0.0348  0.2435
23443SOL    HW274887   0.682   2.130  10.136 -0.9620  1.6583  0.9555
23444SOL     OW74888   2.217   0.739  11.320  0.1048 -0.7352 -0.8772
23444SOL    HW174889   2.209   0.793  11.399 -1.8358 -1.0500 -0.7959
23444SOL    HW274890   2.178   0.793  11.251  2.8629  0.0413 -1.9621
23445SOL     OW74891   7.134   1.209   4.238  0.3309 -0.2615 -0.2079
23445SOL    HW174892   7.090   1.141   4.187  0.0851 -0.5664  0.4061
23445SOL    HW274893   7.190   1.254   4.174  1.6381 -1.9707 -0.3387
23446SOL     OW74894   4.580   5.316   8.644 -0.6383  0.1635  0.2951
23446SOL    HW174895   4.586   5.276   8.557  0.6197  1.1104 -0.1018
23446SOL    HW274896   4.493   5.355   8.647 -0.1238  1.5674 -1.2562
23447SOL     OW74897   0.419   6.626   7.115  0.1695 -0.0721  0.3735
23447SOL    HW174898   0.501   6.605   7.070  0.8942  0.5451  1.3828
23447SOL    HW274899   0.351   6.585   7.060  1.2450 -2.0058  0.3843
23448SOL     OW74900   1.454   7.473   5.653 -0.0654 -0.3225  0.9706
23448SOL    HW174901   1.368   7.509   5.674 -0.7288 -0.8105 -0.6992
23448SOL    HW274902   1.467   7.403   5.717 -1.0638 -0.4525  1.0558
23449SOL     OW74903   6.519   9.104   8.674  0.1324  0.3265  0.2454
23449SOL    HW174904   6.587   9.171   8.672  0.8096 -0.3253 -2.1351
23449SOL    HW274905   6.471   9.116   8.592 -0.1939 -1.5892  0.1042
23450SOL     OW74906   4.266   1.321   9.395  0.2315  0.4166  0.1717
23450SOL    HW174907   4.289   1.255   9.460  0.9395  1.0564  0.5866
23450SOL    HW274908   4.341   1.380   9.393 -0.3929  1.2195 -0.1783
23451SOL     OW74909   7.137  11.242   8.457 -0.2098  0.1362  0.1624
23451SOL    HW174910   7.144  11.253   8.552 -0.6590 -1.8929  0.4792
23451SOL    HW274911   7.225  11.261   8.424  0.2224 -0.1606  1.1103
23452SOL     OW74912   5.810   2.805   3.078  0.5011 -0.2302  0.3121
23452SOL    HW174913   5.778   2.829   3.165  1.0180 -1.2099  0.7846
23452SOL    HW274914   5.863   2.880   3.050 -1.5270  1.1023 -0.1665
23453SOL     OW74915   7.097   1.403  10.265  0.0346  0.3201  0.8065
23453SOL    HW174916   7.108   1.336  10.333  0.0536  0.7538  1.2373
23453SOL    HW274917   7.162   1.380  10.198  0.1768  0.0235  1.0437
23454SOL     OW74918   3.227   2.261   8.608  0.0946 -0.3731  0.1227
23454SOL    HW174919   3.226   2.253   8.704 -1.8213 -0.8050  0.1137
23454SOL    HW274920   3.243   2.172   8.577 -2.2779 -0.8537  0.0831
23455SOL     OW74921   3.977   1.223   3.778 -0.8321  0.2023 -0.7127
23455SOL    HW174922   3.922   1.292   3.815 -0.3070  0.0482  0.4091
23455SOL    HW274923   4.065   1.260   3.776 -0.3396 -0.7505  0.9323
23456SOL     OW74924   6.679   2.995   9.950 -0.2312 -0.2082  0.4811
23456SOL    HW174925   6.726   3.070   9.987  0.1159 -1.0541  1.8072
23456SOL    HW274926   6.635   2.955  10.024 -2.0850 -0.1634 -0.5445
23457SOL     OW74927   3.231   7.356   1.899 -0.7462 -0.0634 -0.8388
23457SOL    HW174928   3.291   7.293   1.859  0.5832 -0.1092  1.1073
23457SOL    HW274929   3.183   7.307   1.965 -0.2562  0.7615  0.1616
23458SOL     OW74930   3.630   2.323  11.450 -0.0252  0.3719  0.3573
23458SOL    HW174931   3.536   2.330  11.436  0.0702  0.7660 -0.1012
23458SOL    HW274932   3.655   2.404  11.494 -0.0329 -0.0963  1.2324
23459SOL     OW74933  12.006   5.037   6.081 -0.2013 -0.0074  0.3052
23459SOL    HW174934  11.927   4.990   6.107 -0.1938  0.5429  1.3954
23459SOL    HW274935  12.071   5.014   6.148  0.5687 -0.4413 -0.5658
23460SOL     OW74936   1.981   7.885   4.653 -0.2442  0.1327  0.1081
23460SOL    HW174937   1.902   7.844   4.618 -0.2666  0.1822  0.1001
23460SOL    HW274938   1.952   7.929   4.733 -0.0556 -0.5579  0.5604
23461SOL     OW74939   3.231   2.180  10.717 -0.3795 -0.6199 -0.4037
23461SOL    HW174940   3.148   2.172  10.765 -0.4377 -0.1976 -0.4334
23461SOL    HW274941   3.205   2.183  10.625 -0.4354  0.8901 -0.3539
23462SOL     OW74942  11.831  10.114   4.644 -0.2978 -0.5142 -0.1024
23462SOL    HW174943  11.841  10.153   4.730  1.6888  0.8144 -0.8705
23462SOL    HW274944  11.876  10.030   4.650  1.7805  0.5146 -0.3752
23463SOL     OW74945   1.268  11.276   0.639 -0.0002 -0.5120  0.4217
23463SOL    HW174946   1.190  11.302   0.591  0.7915  3.5634  0.9182
23463SOL    HW274947   1.330  11.248   0.572 -0.0171  1.9092 -0.7048
23464SOL     OW74948   6.760   4.652   0.498 -0.0431  0.4894 -0.7923
23464SOL    HW174949   6.772   4.699   0.580  0.2420  0.2497 -0.6928
23464SOL    HW274950   6.740   4.720   0.434  1.6598  0.9050 -0.9203
23465SOL     OW74951  10.752   7.247   7.231 -0.5247 -0.1000 -0.8347
23465SOL    HW174952  10.736   7.286   7.317  0.7336 -0.3113 -0.4884
23465SOL    HW274953  10.743   7.320   7.169 -0.1630  0.3136 -0.3992
23466SOL     OW74954   4.823   1.115   2.332  0.3581  0.0510 -0.0687
23466SOL    HW174955   4.760   1.045   2.315  0.4520 -0.0859  0.1381
23466SOL    HW274956   4.908   1.071   2.330  0.3651  0.0016  0.8873
23467SOL     OW74957   6.163   1.191   0.536  0.1640 -0.0864 -0.2034
23467SOL    HW174958   6.068   1.199   0.538  0.1203 -0.5108 -0.5380
23467SOL    HW274959   6.189   1.196   0.628 -0.0524  1.4324 -0.2027
23468SOL     OW74960   8.004   4.124   7.383  0.0497 -0.8024  0.0372
23468SOL    HW174961   8.025   4.092   7.295 -0.7767  3.6121 -2.0161
23468SOL    HW274962   7.912   4.150   7.379  0.7142  2.1754  1.1662
23469SOL     OW74963  11.459   8.220   7.890 -0.1745 -0.4669  0.4238
23469SOL    HW174964  11.523   8.210   7.960 -1.4890  0.6660  1.8464
23469SOL    HW274965  11.416   8.303   7.908  0.4119  0.6027 -2.5903
23470SOL     OW74966   5.579   2.633   2.576 -0.8677 -0.3276  0.4920
23470SOL    HW174967   5.594   2.718   2.535  0.9503 -0.8322  0.0135
23470SOL    HW274968   5.519   2.652   2.648 -1.0236  1.2469 -0.0087
23471SOL     OW74969   1.017   3.238   4.997 -0.1226 -0.1415 -0.1835
23471SOL    HW174970   1.108   3.265   5.010  0.2262 -0.8662 -1.0120
23471SOL    HW274971   0.977   3.247   5.083  0.4152  1.3342 -0.0659
23472SOL     OW74972   8.886   6.211   4.865  0.5715 -0.0571  0.6284
23472SOL    HW174973   8.944   6.270   4.817  2.7153 -3.3235 -1.1736
23472SOL    HW274974   8.924   6.207   4.953  2.4301 -1.1228 -0.1573
23473SOL     OW74975   7.651   1.714   7.544  0.2035  0.1885  0.0558
23473SOL    HW174976   7.727   1.656   7.548 -0.5692 -0.7825  1.2167
23473SOL    HW274977   7.637   1.740   7.635  0.4743  2.1671 -0.4215
23474SOL     OW74978   8.899  11.996  11.210  0.3150  0.0776  0.0591
23474SOL    HW174979   8.859  11.911  11.192  1.4098 -0.2478 -0.9171
23474SOL    HW274980   8.982  11.995  11.163  1.3700  0.8405  1.7946
23475SOL     OW74981   3.834   1.372  11.497 -0.5810 -0.2495  0.8852
23475SOL    HW174982   3.929   1.364  11.498 -0.4869  0.5302 -0.2542
23475SOL    HW274983   3.803   1.283  11.478 -0.0806 -0.4526  1.0057
23476SOL     OW74984   6.841   8.434   0.273 -0.1991  0.0221  0.2603
23476SOL    HW174985   6.835   8.343   0.243 -0.2955 -0.0812  0.5986
23476SOL    HW274986   6.763   8.447   0.327 -0.4724  0.4688 -0.2309
23477SOL     OW74987   4.132   7.151   3.720 -0.6345 -0.5566  0.1199
23477SOL    HW174988   4.162   7.125   3.632 -0.4340  0.9762 -0.2974
23477SOL    HW274989   4.155   7.077   3.776 -1.7561 -2.0401 -1.2991
23478SOL     OW74990   8.364   4.494  11.727 -0.4621  0.4061  0.9753
23478SOL    HW174991   8.443   4.464  11.773  0.1798  2.4255  1.3096
23478SOL    HW274992   8.397   4.552  11.658 -1.3853 -2.7532 -2.3985
23479SOL     OW74993   1.716   7.397   7.869  0.4302 -0.1258 -0.1314
23479SOL    HW174994   1.804   7.359   7.863  0.7893  0.6481 -0.0208
23479SOL    HW274995   1.731   7.491   7.856 -0.4344 -0.0322 -0.5155
23480SOL     OW74996   5.151   8.574   8.641  0.3115 -0.1058 -0.0291
23480SOL    HW174997   5.158   8.585   8.736 -0.5253 -0.1757  0.0427
23480SOL    HW274998   5.213   8.637   8.606 -0.8817  1.4317  0.5163
23481SOL     OW74999   5.623   9.006   4.811  0.6567 -0.0392 -0.4403
23481SOL    HW175000   5.573   9.049   4.880  2.2798  1.3249 -0.0520
23481SOL    HW275001   5.700   8.970   4.856  0.1961 -1.9077 -1.0489
23482SOL     OW75002  11.741   6.914   4.387  0.0242  0.1687 -0.2569
23482SOL    HW175003  11.699   6.828   4.386  1.0745 -0.4219  1.9746
23482SOL    HW275004  11.812   6.906   4.323  0.4252 -0.7990  0.2902
23483SOL     OW75005  10.924   8.539   5.961  0.3671 -0.2203  0.0401
23483SOL    HW175006  10.850   8.503   6.011 -0.8275 -0.2139 -1.6459
23483SOL    HW275007  10.992   8.553   6.027 -0.8629 -0.9153  1.5400
23484SOL     OW75008   0.785   4.018   9.688  0.0678  0.5606  0.2117
23484SOL    HW175009   0.854   4.046   9.627  0.3486 -0.0206  0.2617
23484SOL    HW275010   0.830   4.003   9.771 -0.0181 -0.3648  0.1017
23485SOL     OW75011   5.886   8.291   4.823 -0.2744 -0.1668 -0.1732
23485SOL    HW175012   5.981   8.302   4.821 -0.3547  0.6827 -2.3005
23485SOL    HW275013   5.852   8.374   4.791 -1.4436 -1.9681 -4.3152
23486SOL     OW75014   4.170   1.479   2.567 -0.5224 -0.1302 -0.5203
23486SOL    HW175015   4.093   1.517   2.525 -0.7437 -0.8851 -0.8108
23486SOL    HW275016   4.176   1.525   2.651 -0.3663  1.0416 -1.1451
23487SOL     OW75017   1.903   7.527   8.509 -0.0058 -0.0975 -0.2003
23487SOL    HW175018   1.948   7.595   8.459 -1.9403  0.6591 -0.9845
23487SOL    HW275019   1.958   7.514   8.586  1.6253  0.6561 -1.1894
23488SOL     OW75020   7.823   2.742   8.172  0.1873  0.3692  0.7481
23488SOL    HW175021   7.795   2.658   8.209  1.6424 -0.3626  0.2582
23488SOL    HW275022   7.835   2.723   8.078  1.7314  0.7792  0.8432
23489SOL     OW75023   2.228   3.000  11.493 -0.1599 -0.0606  0.0035
23489SOL    HW175024   2.235   3.084  11.448 -0.8524  0.4744  0.8647
23489SOL    HW275025   2.302   3.000  11.554 -1.0951  0.6946  1.1974
23490SOL     OW75026   0.465   6.195   4.380  0.2110  0.1982 -0.3316
23490SOL    HW175027   0.370   6.193   4.379  0.0979  0.8390  2.2085
23490SOL    HW275028   0.491   6.107   4.406  0.3611 -0.1411 -1.5878
23491SOL     OW75029   5.087   7.092   4.105  0.3464  0.4223 -0.5630
23491SOL    HW175030   5.117   7.056   4.189  0.3400  0.0018 -0.7393
23491SOL    HW275031   5.022   7.030   4.074 -0.4542  1.1455 -0.3645
23492SOL     OW75032   1.780   2.701   7.551  0.1868  0.2017 -0.0172
23492SOL    HW175033   1.753   2.671   7.638 -0.1135 -0.4300 -0.3182
23492SOL    HW275034   1.785   2.620   7.499  0.7881  0.5241 -0.4726
23493SOL     OW75035   1.397   2.573   3.862 -0.7364 -0.1249  0.1445
23493SOL    HW175036   1.332   2.624   3.911 -0.3860  0.5497 -0.0701
23493SOL    HW275037   1.473   2.569   3.919 -0.4733  0.3121 -0.1614
23494SOL     OW75038   5.636   7.742   6.681  0.2571 -0.1636 -0.0514
23494SOL    HW175039   5.556   7.694   6.705  0.0755  0.5825  0.8749
23494SOL    HW275040   5.704   7.704   6.737  0.1672  0.4491  0.4893
23495SOL     OW75041   4.179  10.822   4.914  0.0931  0.6347  0.3615
23495SOL    HW175042   4.165  10.832   4.820 -0.2791 -0.4419  0.2939
23495SOL    HW275043   4.265  10.782   4.921 -0.2620 -0.1247  0.4350
23496SOL     OW75044   7.871   0.580   6.930 -0.0141  0.7229 -0.1031
23496SOL    HW175045   7.814   0.526   6.985  1.2681 -0.0395  0.5503
23496SOL    HW275046   7.926   0.517   6.884  0.0190  1.4156 -1.0342
23497SOL     OW75047   4.513   3.491   2.148 -0.3253 -0.3049  0.3595
23497SOL    HW175048   4.493   3.458   2.060  2.0398 -0.7138 -0.0775
23497SOL    HW275049   4.597   3.452   2.170 -0.6967  0.0718  2.6969
23498SOL     OW75050   4.292  10.525  12.025  0.2541 -0.0517  0.3681
23498SOL    HW175051   4.285  10.532  12.120 -2.8035  1.9382  0.1381
23498SOL    HW275052   4.305  10.615  11.995 -1.4427 -0.2654 -1.1855
23499SOL     OW75053   8.476   0.403   7.906 -0.5120  0.0836 -0.2090
23499SOL    HW175054   8.527   0.335   7.950 -0.7835 -0.8283 -1.2458
23499SOL    HW275055   8.435   0.452   7.977  0.1962 -0.4339  0.5821
23500SOL     OW75056   9.653  12.046   6.863  0.2639 -0.2030  0.0338
23500SOL    HW175057   9.639  11.995   6.943 -0.2305  0.1806  0.1982
23500SOL    HW275058   9.696  12.126   6.894 -0.0238 -0.0093 -0.0718
23501SOL     OW75059   7.472  11.970  10.376  0.3502  0.1782  0.2237
23501SOL    HW175060   7.499  11.937  10.461  1.6983 -2.0799 -0.9908
23501SOL    HW275061   7.385  11.932  10.362 -1.2775  2.9657  1.7431
23502SOL     OW75062   7.933  12.051   6.923  0.1856  0.3996 -0.4706
23502SOL    HW175063   7.918  11.957   6.928 -0.7196  0.4564 -1.6807
23502SOL    HW275064   8.001  12.068   6.988 -1.0496 -0.7725  1.1975
23503SOL     OW75065   3.472   2.521   9.512 -0.7089 -0.5414  0.7417
23503SOL    HW175066   3.443   2.558   9.429  0.2175 -0.1467  0.5813
23503SOL    HW275067   3.550   2.469   9.489 -0.0464  0.1073  1.4482
23504SOL     OW75068   2.512   0.389   8.479 -0.0094  0.2103 -0.3769
23504SOL    HW175069   2.461   0.467   8.502  1.4380  1.2939 -0.7395
23504SOL    HW275070   2.603   0.417   8.485  0.5234 -0.8470 -2.5832
23505SOL     OW75071   9.721   8.575   6.370  0.6452 -0.3903  0.1062
23505SOL    HW175072   9.796   8.614   6.415  0.0872 -1.4048  1.9810
23505SOL    HW275073   9.735   8.598   6.278  2.6988  0.3404  0.5393
23506SOL     OW75074   3.805   5.672   9.611  0.2480  0.2068  0.1492
23506SOL    HW175075   3.801   5.654   9.517  1.0618 -0.3449  0.2017
23506SOL    HW275076   3.899   5.679   9.630  0.1659 -0.8923  1.1147
23507SOL     OW75077   7.692   3.767   5.457  0.0609 -0.1353  0.0043
23507SOL    HW175078   7.617   3.806   5.502  0.4431 -0.1251  0.6403
23507SOL    HW275079   7.751   3.840   5.442  0.1274 -0.2166 -0.1294
23508SOL     OW75080   4.733   1.661   2.380  0.1428 -0.0425 -0.1505
23508SOL    HW175081   4.827   1.648   2.368  0.3147  1.2618 -0.3149
23508SOL    HW275082   4.703   1.694   2.295 -0.1596  1.0980  0.3850
23509SOL     OW75083   8.386   3.510   1.799 -0.2298  0.5146 -0.0403
23509SOL    HW175084   8.474   3.534   1.769 -0.5610  1.2991 -0.4088
23509SOL    HW275085   8.378   3.552   1.885  0.6457 -1.5677  1.1440
23510SOL     OW75086  11.899   2.974   0.412 -0.5883  0.2703  0.4247
23510SOL    HW175087  11.952   2.895   0.417 -1.0166 -0.0708 -0.3667
23510SOL    HW275088  11.819   2.953   0.462 -0.6241  0.2714  0.3674
23511SOL     OW75089   2.112  10.159   6.953  0.2455 -0.2843  0.4178
23511SOL    HW175090   2.127  10.253   6.944 -0.9201 -0.1018  0.2552
23511SOL    HW275091   2.027  10.144   6.912  1.3648 -1.7514 -1.5485
23512SOL     OW75092   8.234   4.633   4.647  0.4174  0.3025 -0.4258
23512SOL    HW175093   8.146   4.617   4.680 -0.0121 -0.1254 -1.7130
23512SOL    HW275094   8.231   4.603   4.556  0.9455  3.1992 -1.5225
23513SOL     OW75095   4.378   4.435   1.182  0.1986 -0.2146 -0.3826
23513SOL    HW175096   4.340   4.396   1.103 -0.5575 -0.0507 -0.1054
23513SOL    HW275097   4.310   4.494   1.215 -0.1038 -1.3749  1.2152
23514SOL     OW75098   3.362   8.442   9.945 -0.0324 -0.3611 -0.5465
23514SOL    HW175099   3.312   8.368   9.980 -0.2440 -0.0302 -0.1373
23514SOL    HW275100   3.332   8.452   9.855 -0.7040 -0.1747 -0.3104
23515SOL     OW75101   3.489   7.165   2.007  0.4659  0.1091 -0.1863
23515SOL    HW175102   3.508   7.198   1.919  1.3153  3.1901  1.0424
23515SOL    HW275103   3.569   7.182   2.057 -0.6313  0.1418  1.6315
23516SOL     OW75104   0.862   8.415   2.688 -0.3621 -0.7280  0.3283
23516SOL    HW175105   0.917   8.366   2.749  0.9226  0.8915  0.5377
23516SOL    HW275106   0.918   8.486   2.658 -2.1665  0.6335  0.0715
23517SOL     OW75107   5.979   1.858  10.331 -0.0719 -0.1560  0.5806
23517SOL    HW175108   5.948   1.896  10.249  0.7121  1.0678  0.8250
23517SOL    HW275109   5.910   1.877  10.394 -1.3622 -2.3765 -0.0572
23518SOL     OW75110   9.336   3.956   0.260 -0.1917 -0.0960  0.0016
23518SOL    HW175111   9.362   3.929   0.172 -0.7706  0.5623 -0.3834
23518SOL    HW275112   9.241   3.948   0.260 -0.2840  0.8747  0.2286
23519SOL     OW75113   1.913   4.586   2.232  0.2994 -0.3414 -0.1748
23519SOL    HW175114   1.987   4.526   2.222  0.0177 -0.9827  1.2774
23519SOL    HW275115   1.836   4.533   2.210  0.1816  0.0428 -0.7214
23520SOL     OW75116   6.394   8.490   3.545  0.1927  0.1281  0.3423
23520SOL    HW175117   6.368   8.454   3.461  0.5285  0.4430  0.1022
23520SOL    HW275118   6.327   8.556   3.565  0.3951  0.4144  0.0771
23521SOL     OW75119  11.481   8.227   2.826 -0.2205 -0.0303  0.0677
23521SOL    HW175120  11.395   8.269   2.839 -1.0683 -1.6145 -0.1131
23521SOL    HW275121  11.460   8.134   2.819  1.5225 -0.4235 -0.1735
23522SOL     OW75122  11.897   9.100   1.620  0.2449 -0.4753 -0.0754
23522SOL    HW175123  11.985   9.086   1.586 -0.7017 -1.1278 -2.4894
23522SOL    HW275124  11.902   9.075   1.713  2.0932 -2.7008 -0.6820
23523SOL     OW75125  11.317   0.540   9.897 -0.1047  0.0833 -0.0759
23523SOL    HW175126  11.394   0.596   9.885  0.6174 -1.4076 -3.7220
23523SOL    HW275127  11.268   0.548   9.816 -0.7272 -3.3294 -0.1962
23524SOL     OW75128   3.396   0.036   2.971 -0.9565 -0.1528 -0.1939
23524SOL    HW175129   3.446   0.094   2.914 -1.9774  0.1341 -0.8361
23524SOL    HW275130   3.410   0.071   3.059 -1.3068  0.9107 -0.5371
23525SOL     OW75131   0.143  10.280   3.157  0.4671 -0.3661  0.0481
23525SOL    HW175132   0.110  10.266   3.246  2.1690  1.3690  1.0087
23525SOL    HW275133   0.065  10.301   3.105 -0.5098 -1.1220  1.1734
23526SOL     OW75134   6.620   7.541   3.970  0.4349 -0.5929 -0.4729
23526SOL    HW175135   6.653   7.616   4.021  2.0399 -1.3534 -0.3396
23526SOL    HW275136   6.537   7.572   3.935  1.4324  1.6040 -1.1446
23527SOL     OW75137   7.996  12.090   9.127  0.4580  0.1593  0.6608
23527SOL    HW175138   7.934  12.135   9.070 -0.9553 -1.0203  1.2262
23527SOL    HW275139   8.069  12.068   9.069 -0.0003  0.8502 -0.2070
23528SOL     OW75140  11.358  11.901   0.616  0.4611  0.0625  0.3285
23528SOL    HW175141  11.296  11.973   0.607  2.8375  2.4401  1.4830
23528SOL    HW275142  11.414  11.909   0.539  1.7768  0.6226  1.2959
23529SOL     OW75143  10.930  10.419   9.190 -0.6743  0.0407  0.0646
23529SOL    HW175144  10.836  10.401   9.178 -1.0824  0.6546  1.9349
23529SOL    HW275145  10.971  10.333   9.190 -1.2886 -0.2624 -0.4419
23530SOL     OW75146   5.117  11.123   9.595 -0.2748 -0.4727 -0.0478
23530SOL    HW175147   5.172  11.179   9.649 -0.2033 -0.0265 -0.5717
23530SOL    HW275148   5.158  11.036   9.602  1.5171  0.1500 -1.7104
23531SOL     OW75149   4.615   6.719   6.170 -0.2048  0.3162  0.0839
23531SOL    HW175150   4.647   6.682   6.088  1.5194  1.6658  0.1055
23531SOL    HW275151   4.632   6.651   6.235  2.7500  0.9696  0.0919
23532SOL     OW75152   4.760   0.191   6.317  0.3184 -0.2198  0.2378
23532SOL    HW175153   4.714   0.198   6.401  0.3926  2.1272  0.1705
23532SOL    HW275154   4.700   0.231   6.254  1.0575 -0.1762 -0.4568
23533SOL     OW75155   6.660   4.612   2.977 -0.2942  0.8544 -0.2653
23533SOL    HW175156   6.625   4.698   2.953 -0.5511  1.3674  1.7621
23533SOL    HW275157   6.590   4.571   3.029  0.0369 -0.3710 -0.7477
23534SOL     OW75158   3.538   8.370   9.080  0.2465  0.6460 -0.3040
23534SOL    HW175159   3.467   8.433   9.070 -0.4451 -0.0786 -0.1190
23534SOL    HW275160   3.598   8.390   9.008 -1.1674 -0.0237 -1.7588
23535SOL     OW75161  11.220   4.568   4.178  0.5863  0.4398 -0.0061
23535SOL    HW175162  11.242   4.516   4.256  1.6881 -0.0228 -0.5947
23535SOL    HW275163  11.125   4.572   4.178  0.5661  0.3976  1.3323
23536SOL     OW75164   8.182   0.508   8.617  0.1112  0.1267 -0.3913
23536SOL    HW175165   8.150   0.515   8.707 -0.2794 -0.2123 -0.4976
23536SOL    HW275166   8.150   0.422   8.587 -2.7804  1.6035 -2.0156
23537SOL     OW75167   8.815  11.361   9.091 -0.0060  0.0050  0.0706
23537SOL    HW175168   8.856  11.339   9.175  0.0623 -1.3356 -0.2953
23537SOL    HW275169   8.871  11.319   9.025 -0.5745  0.2676 -0.5983
23538SOL     OW75170   7.297   6.746  11.539 -0.3639  0.0308 -0.5284
23538SOL    HW175171   7.353   6.672  11.516  1.8028  1.4395 -0.1142
23538SOL    HW275172   7.267   6.780  11.455  0.6464  0.1330 -0.8630
23539SOL     OW75173   3.962   0.088   0.057 -0.3447 -0.2347 -0.0052
23539SOL    HW175174   3.898   0.046  -0.000 -1.4910  2.4326 -0.7956
23539SOL    HW275175   4.036   0.026   0.059 -1.5539 -1.8508 -1.7787
23540SOL     OW75176   5.409   4.785   7.713 -0.7753  0.0501 -0.2277
23540SOL    HW175177   5.368   4.835   7.642  0.1122  1.6239  0.2965
23540SOL    HW275178   5.342   4.779   7.781 -0.2166  2.8001  0.7208
23541SOL     OW75179  11.466  10.912  10.693  0.3742 -0.5930  0.1041
23541SOL    HW175180  11.543  10.867  10.658 -0.4126 -0.7133 -1.5816
23541SOL    HW275181  11.484  10.922  10.787  2.9448  0.4188 -0.4182
23542SOL     OW75182  10.344   9.938   3.490  0.1870  0.0788 -0.0996
23542SOL    HW175183  10.326   9.847   3.513 -1.0865  0.3911  0.1986
23542SOL    HW275184  10.321   9.988   3.568  2.2156  0.5654  0.2519
23543SOL     OW75185   3.263  11.715   8.155 -0.5213  0.5107 -0.3341
23543SOL    HW175186   3.292  11.631   8.119 -1.8334 -0.3528  0.5411
23543SOL    HW275187   3.188  11.693   8.210 -0.0683  2.0992  0.9946
23544SOL     OW75188   9.118  11.247   3.136 -0.0114  0.3442 -0.0633
23544SOL    HW175189   9.069  11.323   3.167 -0.7441 -0.4466  0.7642
23544SOL    HW275190   9.104  11.180   3.202  1.3688 -0.2450 -0.3184
23545SOL     OW75191   3.901   6.264   8.450  0.3825  0.8612 -0.5547
23545SOL    HW175192   3.836   6.221   8.394  0.6375 -0.0074 -0.1917
23545SOL    HW275193   3.979   6.210   8.441  0.7590  1.3456 -0.2109
23546SOL     OW75194   0.777  10.744   1.984 -0.4363  0.5211  0.3119
23546SOL    HW175195   0.779  10.657   1.942  1.8241  0.3260  0.7231
23546SOL    HW275196   0.815  10.730   2.071  1.6969  2.1836 -0.2503
23547SOL     OW75197   5.596   2.128   7.401 -0.4114  0.6786  0.3288
23547SOL    HW175198   5.514   2.176   7.391 -1.9894 -1.8029  0.3575
23547SOL    HW275199   5.579   2.065   7.471  0.1782 -2.2931 -1.9550
23548SOL     OW75200   8.026   0.182   1.051  0.7558 -0.1190 -0.6286
23548SOL    HW175201   7.941   0.149   1.081  1.4508 -0.7244  0.7947
23548SOL    HW275202   8.065   0.108   1.004  1.4635 -0.6820  0.7923
23549SOL     OW75203   1.501   1.934   4.405  0.2700  0.1288  0.1427
23549SOL    HW175204   1.561   1.982   4.463  0.2880  0.9055 -0.4869
23549SOL    HW275205   1.555   1.911   4.329 -0.5287  2.1886 -1.1528
23550SOL     OW75206  11.580  11.869   3.582  0.8035  0.3226  0.3496
23550SOL    HW175207  11.646  11.896   3.646  2.5849  0.9256 -1.6164
23550SOL    HW275208  11.499  11.910   3.612  1.7540  1.3243  1.7046
23551SOL     OW75209   6.042   0.242  10.213 -0.2997  0.3149 -0.0287
23551SOL    HW175210   6.066   0.228  10.304  1.2368  4.3041  0.4136
23551SOL    HW275211   5.958   0.289  10.218  0.2248  1.3475 -0.5356
23552SOL     OW75212   3.493   4.114   5.121  0.5084  0.0196  0.6180
23552SOL    HW175213   3.553   4.051   5.080  0.1654 -0.5186  0.9299
23552SOL    HW275214   3.467   4.172   5.049  1.5496  0.3816  0.5193
23553SOL     OW75215   5.754   6.345   4.936 -0.4408 -0.3293 -0.1034
23553SOL    HW175216   5.659   6.361   4.935 -0.3294  0.3880  0.2948
23553SOL    HW275217   5.767   6.284   5.008 -0.3361  1.3926  1.3861
23554SOL     OW75218   8.771   2.528  11.847  0.8834  0.0381  0.1398
23554SOL    HW175219   8.690   2.545  11.895  0.9836  1.7129 -0.1897
23554SOL    HW275220   8.741   2.502  11.759  0.7128 -1.5598  0.6501
23555SOL     OW75221   1.951   4.563  10.166 -0.0881  0.2246  0.5042
23555SOL    HW175222   2.029   4.510  10.177 -0.7378 -0.8642  0.0055
23555SOL    HW275223   1.969   4.618  10.090  0.4105  0.4077  0.7505
23556SOL     OW75224   7.570   1.109   6.730 -0.9225  0.4912  0.4738
23556SOL    HW175225   7.515   1.135   6.656 -0.3355  0.6703  0.0845
23556SOL    HW275226   7.649   1.074   6.689 -0.9487 -0.2165  1.0174
23557SOL     OW75227   2.867   5.234   6.227 -0.2174  0.6319 -0.1073
23557SOL    HW175228   2.812   5.155   6.225  2.3853 -1.3185 -2.3221
23557SOL    HW275229   2.827   5.293   6.163 -1.1513  0.3671  0.2106
23558SOL     OW75230   2.361   0.273   6.857 -0.3910 -0.2286  0.2377
23558SOL    HW175231   2.321   0.323   6.928 -2.8476 -1.9370  0.1610
23558SOL    HW275232   2.455   0.277   6.875 -0.6989  2.0329  1.7472
23559SOL     OW75233   2.446   2.686  10.794  0.3814 -0.4678 -0.0877
23559SOL    HW175234   2.376   2.621  10.800 -0.3571  0.3713  0.6097
23559SOL    HW275235   2.472   2.685  10.702 -0.5199 -0.8161 -0.3471
23560SOL     OW75236   8.355   5.075  11.364 -0.1148 -0.3489 -0.5242
23560SOL    HW175237   8.335   5.166  11.341 -0.9163 -0.3440  0.1624
23560SOL    HW275238   8.294   5.023  11.312 -1.5518 -0.3594  1.0728
23561SOL     OW75239   8.909   3.452  11.439  0.1027  0.5899  0.1732
23561SOL    HW175240   8.842   3.479  11.501 -0.2119  2.2466 -0.8367
23561SOL    HW275241   8.888   3.361  11.419  0.0109  0.1194  2.1798
23562SOL     OW75242  10.014   4.327   9.163  0.1996 -0.4133  0.3915
23562SOL    HW175243   9.930   4.327   9.118  0.6324  1.2640 -0.5191
23562SOL    HW275244  10.053   4.412   9.141  1.4688 -0.5078  2.0360
23563SOL     OW75245   9.016  12.110   6.913 -0.0549  0.6109 -0.4427
23563SOL    HW175246   9.050  12.063   6.989  1.8223  0.3494 -1.3976
23563SOL    HW275247   9.050  12.062   6.837 -0.7650  1.6393 -1.4509
23564SOL     OW75248   0.565   6.123  11.982 -0.6295 -0.3841  0.0001
23564SOL    HW175249   0.531   6.203  12.022  0.4932 -0.4615  1.1779
23564SOL    HW275250   0.488   6.080  11.944 -1.2996  1.0821 -0.3589
23565SOL     OW75251   9.692   6.139  10.394  0.2412 -0.1942  0.1792
23565SOL    HW175252   9.667   6.059  10.441 -0.2206  0.2815  0.7643
23565SOL    HW275253   9.608   6.183  10.377  0.5724  0.8467  1.1169
23566SOL     OW75254   5.918   1.943   6.096  0.3017 -0.2231 -0.0404
23566SOL    HW175255   5.870   1.891   6.159 -0.9004 -1.4052 -1.8299
23566SOL    HW275256   5.857   1.955   6.023  1.6825  0.8799 -1.0821
23567SOL     OW75257   0.970   6.475   8.861 -0.2526  0.0831 -0.6341
23567SOL    HW175258   0.891   6.435   8.896 -0.0366 -0.3488 -0.6272
23567SOL    HW275259   1.040   6.414   8.887 -0.0060  0.1177 -1.2164
23568SOL     OW75260   4.146   8.825   0.921 -0.0096 -0.5937  0.7040
23568SOL    HW175261   4.131   8.733   0.899  0.9564 -0.7411  0.6081
23568SOL    HW275262   4.129   8.872   0.839  0.6377 -0.8216  0.4304
23569SOL     OW75263   2.109  11.256   4.881 -0.0524 -0.2134  0.4979
23569SOL    HW175264   2.015  11.251   4.866 -0.2000  1.6834  0.6017
23569SOL    HW275265   2.130  11.175   4.929 -1.0153 -2.2925 -2.3354
23570SOL     OW75266   6.490  11.527   2.847 -0.2506 -0.0312 -0.1716
23570SOL    HW175267   6.497  11.502   2.939  0.1360 -1.5619 -0.5787
23570SOL    HW275268   6.537  11.610   2.840  0.4788 -0.3511  0.8380
23571SOL     OW75269   8.906   1.802   2.153 -0.1057 -0.7303  0.2953
23571SOL    HW175270   8.999   1.815   2.174  0.0556  0.0601 -0.8337
23571SOL    HW275271   8.859   1.851   2.221  0.2536 -1.7815  1.3399
23572SOL     OW75272   9.155   2.885  11.114  0.0629 -0.1156  0.5942
23572SOL    HW175273   9.129   2.960  11.167 -0.0193  0.3873 -0.1378
23572SOL    HW275274   9.204   2.923  11.041  0.9283 -0.8709  0.7730
23573SOL     OW75275   9.162   7.134  10.240  0.1281  0.2471  0.2273
23573SOL    HW175276   9.223   7.191  10.195 -2.0305  2.4946 -0.0803
23573SOL    HW275277   9.146   7.062  10.178  0.2961  1.1359 -0.8777
23574SOL     OW75278  11.942   4.807   2.404 -0.9099 -0.6063  0.1077
23574SOL    HW175279  11.912   4.877   2.461 -0.8099 -2.0553  2.0149
23574SOL    HW275280  12.019   4.771   2.449 -0.8236 -1.8039 -0.9510
23575SOL     OW75281   9.135   2.434   9.426  0.6035 -0.1227  0.0058
23575SOL    HW175282   9.166   2.486   9.353  3.6874  0.6836  1.7188
23575SOL    HW275283   9.069   2.489   9.469  1.5761  1.0842  0.0097
23576SOL     OW75284   6.470   3.276   8.416  0.4642 -0.2237  0.1216
23576SOL    HW175285   6.414   3.318   8.351 -2.3726 -1.9112  1.2875
23576SOL    HW275286   6.495   3.193   8.376  1.9109  0.3639 -0.2463
23577SOL     OW75287   0.531   6.138   7.223  0.1143  0.1285 -0.1519
23577SOL    HW175288   0.463   6.072   7.234  0.5866 -0.2153  0.8236
23577SOL    HW275289   0.613   6.089   7.222  0.4003  0.6007 -0.6091
23578SOL     OW75290   2.351   5.178   8.445 -0.1869  0.2093  0.2894
23578SOL    HW175291   2.298   5.100   8.428 -0.1417  0.3638 -0.5946
23578SOL    HW275292   2.427   5.145   8.493 -0.6375 -0.1476  0.7606
23579SOL     OW75293  10.019   1.117  10.081 -0.2101  0.0909  0.2225
23579SOL    HW175294   9.957   1.092  10.149  0.4627 -0.8260  0.5208
23579SOL    HW275295  10.019   1.044  10.020 -1.1108  1.0796 -1.0051
23580SOL     OW75296   5.051   9.446  10.859  0.6230  0.2097  0.0086
23580SOL    HW175297   5.015   9.412  10.941  1.2329 -1.7363 -0.4692
23580SOL    HW275298   4.999   9.404  10.791  1.3804  0.2808 -0.6262
23581SOL     OW75299   4.717   5.697   2.874 -0.0269  0.0704 -0.1276
23581SOL    HW175300   4.680   5.620   2.831 -2.2573  2.1315 -2.1815
23581SOL    HW275301   4.756   5.748   2.803 -1.6245  2.4137  0.5584
23582SOL     OW75302   2.486  10.615   3.033  0.3339 -1.1646 -0.4781
23582SOL    HW175303   2.402  10.578   3.005  0.0946 -0.3297 -0.9022
23582SOL    HW275304   2.534  10.631   2.952  0.1222  0.1400 -0.3758
23583SOL     OW75305   3.804  10.041   4.900  0.3966 -0.1787 -0.1074
23583SOL    HW175306   3.850   9.976   4.846  1.5375  0.5755 -0.0670
23583SOL    HW275307   3.826  10.017   4.990 -2.6126 -2.2850  0.2146
23584SOL     OW75308   2.119   5.168   6.360 -0.2786 -0.0129  0.5157
23584SOL    HW175309   2.029   5.199   6.345 -0.5403 -0.7572  0.5102
23584SOL    HW275310   2.174   5.234   6.318 -0.8603 -0.0832 -0.3944
23585SOL     OW75311  10.869   3.557   7.408  0.2253  0.0433 -0.5312
23585SOL    HW175312  10.819   3.561   7.326 -0.5446 -1.2415 -0.1431
23585SOL    HW275313  10.875   3.463   7.427  1.7021  0.2463  0.1009
23586SOL     OW75314   6.913   2.707  10.697  0.0127  0.2557  0.1062
23586SOL    HW175315   6.986   2.646  10.681  1.1015  1.5563 -0.1415
23586SOL    HW275316   6.905   2.711  10.792 -0.2281 -0.4396  0.1211
23587SOL     OW75317   2.274  10.404   4.810 -0.2216  0.0053  0.3526
23587SOL    HW175318   2.346  10.444   4.761 -0.3331 -1.8388 -1.4439
23587SOL    HW275319   2.315  10.373   4.891  0.3878  1.4331  0.6133
23588SOL     OW75320   8.693   0.196   1.079  0.1870  0.6708 -0.1381
23588SOL    HW175321   8.769   0.239   1.038  1.2370 -0.4514  0.5423
23588SOL    HW275322   8.669   0.254   1.151  0.6430  0.8775 -0.1459
23589SOL     OW75323   2.386   5.238   3.571  0.1638  0.2213 -0.2878
23589SOL    HW175324   2.412   5.227   3.662 -0.9631  0.7038  0.1074
23589SOL    HW275325   2.346   5.155   3.547 -0.0780  0.3027 -0.1615
23590SOL     OW75326   1.769   7.402   1.527  0.1903  0.2207  0.0539
23590SOL    HW175327   1.830   7.349   1.475  0.7975 -0.0590  1.0212
23590SOL    HW275328   1.721   7.454   1.462  1.3954  0.3762 -0.7491
23591SOL     OW75329   0.101   4.478   3.127 -0.5953 -0.0202  0.3642
23591SOL    HW175330   0.135   4.545   3.187  1.2735  0.0761 -0.7149
23591SOL    HW275331   0.178   4.426   3.103 -1.4227 -0.5278 -1.3338
23592SOL     OW75332   1.532   4.436  11.414 -0.1177  0.1140 -0.3428
23592SOL    HW175333   1.576   4.366  11.462 -0.7165 -0.7547 -1.0227
23592SOL    HW275334   1.475   4.478  11.478  0.6160  0.3219  0.1901
23593SOL     OW75335  10.250   7.572  10.581 -0.0068 -0.1860 -0.1479
23593SOL    HW175336  10.279   7.481  10.583  1.0398  0.1305 -0.3491
23593SOL    HW275337  10.266   7.604  10.670 -1.7435 -0.5831  0.3542
23594SOL     OW75338   8.939   9.513   5.345 -0.6229 -0.4489  0.0378
23594SOL    HW175339   8.922   9.550   5.258 -0.2145  0.9253  0.5171
23594SOL    HW275340   8.865   9.542   5.399 -0.6994 -1.0073  0.2409
23595SOL     OW75341   9.728   4.129   1.780 -0.7373 -0.2344  0.5343
23595SOL    HW175342   9.814   4.142   1.738 -0.7268  1.6271  1.0195
23595SOL    HW275343   9.744   4.067   1.850  0.4033  0.6142  1.0631
23596SOL     OW75344   0.194  11.923   3.072 -0.3340  0.4955  0.3095
23596SOL    HW175345   0.158  12.011   3.068 -3.7262 -0.7511 -1.0488
23596SOL    HW275346   0.205  11.897   2.981  0.5493 -0.5230  0.6819
23597SOL     OW75347   4.860  10.705   1.451  0.5416  0.0416 -0.0545
23597SOL    HW175348   4.805  10.757   1.509 -1.8677 -2.0194 -0.3421
23597SOL    HW275349   4.940  10.689   1.501 -0.4729  0.3309  1.7217
23598SOL     OW75350   0.652   0.101   5.973  0.5381 -0.2188  0.0425
23598SOL    HW175351   0.625   0.088   5.882 -0.6363  1.4090  0.1320
23598SOL    HW275352   0.575   0.077   6.025  0.9418 -0.3649  0.5838
23599SOL     OW75353  11.240   7.729   6.200 -0.2308 -0.1715  0.1143
23599SOL    HW175354  11.318   7.694   6.156 -0.1189  0.6817 -0.3759
23599SOL    HW275355  11.215   7.660   6.261  0.0793 -1.0442 -0.7196
23600SOL     OW75356  10.958   9.347   6.301 -0.4417 -0.5381  0.2222
23600SOL    HW175357  11.028   9.290   6.267  0.9409  1.1838  0.0134
23600SOL    HW275358  10.885   9.333   6.241  0.4654 -0.8224 -0.8568
23601SOL     OW75359   3.526   0.459  11.051 -0.5355 -0.2208  0.2041
23601SOL    HW175360   3.492   0.373  11.027 -0.8684 -0.5428  1.7106
23601SOL    HW275361   3.504   0.515  10.977  1.6519 -1.8595 -1.8579
23602SOL     OW75362   9.488   6.058   9.944 -0.0028  0.4002  0.0868
23602SOL    HW175363   9.526   5.973   9.924 -1.0694 -0.6862  2.2467
23602SOL    HW275364   9.551   6.122   9.911  0.5873 -1.1787 -2.0390
23603SOL     OW75365  12.063   6.378   7.043 -0.0237 -0.7849 -0.0129
23603SOL    HW175366  12.096   6.360   6.955  2.4836 -0.0332  0.6866
23603SOL    HW275367  12.138   6.361   7.100 -0.7238  1.4644  1.6879
23604SOL     OW75368   0.927  10.123  11.413 -0.4077  0.5222  0.1728
23604SOL    HW175369   0.903  10.165  11.496 -0.6219  3.7306 -1.3712
23604SOL    HW275370   1.009  10.166  11.388  0.3702 -1.3653 -0.6794
23605SOL     OW75371   8.534   8.891   1.600 -0.1517 -0.8635 -0.1716
23605SOL    HW175372   8.586   8.953   1.549  0.0612 -0.9201 -0.0267
23605SOL    HW275373   8.446   8.927   1.600 -0.2389 -1.0630 -0.9127
23606SOL     OW75374  12.122   8.635   8.789  0.2111 -0.3739 -0.1792
23606SOL    HW175375  12.122   8.571   8.860 -0.9302 -0.9514 -0.6579
23606SOL    HW275376  12.045   8.689   8.805  1.3149  1.0861  0.3667
23607SOL     OW75377   8.823   1.840   4.444 -0.0773  0.5880  0.6461
23607SOL    HW175378   8.837   1.887   4.361 -1.0738 -0.6027 -0.2277
23607SOL    HW275379   8.835   1.907   4.511  1.4633  1.4467 -0.3980
23608SOL     OW75380   1.147   4.454   8.889  0.2781 -0.5788 -0.3758
23608SOL    HW175381   1.128   4.538   8.930  1.0796 -0.7069  0.2780
23608SOL    HW275382   1.089   4.392   8.932  0.0666 -0.4537 -0.4813
23609SOL     OW75383   6.959   0.077  10.556 -0.5173  0.0756 -0.5032
23609SOL    HW175384   6.884   0.057  10.499 -0.8340  1.0571 -0.4440
23609SOL    HW275385   7.024   0.010  10.533 -1.0926 -0.2812 -1.1543
23610SOL     OW75386   2.689   9.440   8.840  0.0380 -0.1581  0.0420
23610SOL    HW175387   2.728   9.523   8.868  2.5455 -0.9681 -0.8262
23610SOL    HW275388   2.702   9.380   8.913  1.2137 -0.6463 -0.5419
23611SOL     OW75389   9.637   3.167  10.152 -0.2027 -0.2395 -0.2879
23611SOL    HW175390   9.571   3.191  10.087 -0.3540  0.7162  0.2037
23611SOL    HW275391   9.592   3.107  10.211 -0.3536 -0.3284 -0.4938
23612SOL     OW75392   4.224   3.512   4.181  0.1706 -0.8142  0.2349
23612SOL    HW175393   4.154   3.532   4.119 -1.6496 -3.5814  1.1922
23612SOL    HW275394   4.255   3.597   4.211  0.5910  0.6410 -3.7532
23613SOL     OW75395   0.471   1.950  11.694  0.7584 -0.3522  0.6390
23613SOL    HW175396   0.476   1.969  11.600  1.2228 -1.4258  0.4257
23613SOL    HW275397   0.400   2.004  11.726  0.3606 -0.2326 -0.4105
23614SOL     OW75398  11.236   4.822   7.223  0.3716  0.1555  0.3496
23614SOL    HW175399  11.232   4.851   7.314 -1.8784  0.3639  0.2325
23614SOL    HW275400  11.250   4.727   7.229  0.1400  0.1516  0.8967
23615SOL     OW75401  10.642   3.600   4.187 -0.2658  0.2832 -0.3317
23615SOL    HW175402  10.563   3.635   4.227  0.1062  0.1899  0.4965
23615SOL    HW275403  10.620   3.511   4.162 -0.3332  0.1590  0.1675
23616SOL     OW75404   6.230   0.167   7.857  0.3854 -0.0519 -0.7947
23616SOL    HW175405   6.152   0.180   7.912  0.6429 -3.5059  0.6502
23616SOL    HW275406   6.302   0.156   7.919  1.1390 -1.5635 -1.8456
23617SOL     OW75407   9.544   4.555  11.910  0.4404  0.0034 -0.4498
23617SOL    HW175408   9.461   4.550  11.958  0.0967  1.5860 -0.8312
23617SOL    HW275409   9.525   4.511  11.827  0.6606 -1.5846  0.2943
23618SOL     OW75410   3.118   6.591   1.987  0.0754  0.4347 -0.3015
23618SOL    HW175411   3.028   6.622   1.999  0.3713  1.2031 -0.0263
23618SOL    HW275412   3.162   6.612   2.069  0.2828 -0.7867 -0.0814
23619SOL     OW75413   0.636   2.708   5.503  0.7530  0.2427 -0.4675
23619SOL    HW175414   0.647   2.628   5.554  1.6064  0.1730 -0.7411
23619SOL    HW275415   0.619   2.678   5.414 -0.3560  0.3676 -0.3150
23620SOL     OW75416  11.910  10.552   4.027  0.0598 -0.7975  0.0269
23620SOL    HW175417  11.830  10.605   4.023  1.2833  1.1718 -0.0391
23620SOL    HW275418  11.882  10.464   4.001 -1.8357  0.1042 -1.2605
23621SOL     OW75419   2.167   0.753   4.496 -0.1542 -0.2511  0.0622
23621SOL    HW175420   2.086   0.722   4.456 -1.2726 -0.0249  2.0158
23621SOL    HW275421   2.158   0.729   4.589  1.7505  0.3261  0.4308
23622SOL     OW75422   9.483   7.421   3.879  0.4291 -0.0594  0.2627
23622SOL    HW175423   9.389   7.435   3.875  0.4324  0.3150  1.2405
23622SOL    HW275424   9.517   7.461   3.799 -0.2504 -0.3379 -0.1717
23623SOL     OW75425   9.431   6.951   3.377 -0.0363  0.0109  0.3021
23623SOL    HW175426   9.348   6.999   3.385  0.1036  0.2215  0.5111
23623SOL    HW275427   9.497   7.020   3.372  0.0265 -0.1206 -1.1879
23624SOL     OW75428   1.937   1.817   0.391  0.4540  0.0581 -0.1825
23624SOL    HW175429   1.909   1.877   0.321 -1.4133  0.5673  0.9124
23624SOL    HW275430   1.939   1.872   0.469  0.8072 -0.8659  0.4706
23625SOL     OW75431   7.712   5.770   8.035  0.6239  0.2397 -0.1744
23625SOL    HW175432   7.803   5.766   8.005  0.6050 -1.1339 -0.1419
23625SOL    HW275433   7.664   5.810   7.962  1.3903  1.9167  0.2175
23626SOL     OW75434   8.038   4.977  10.147  0.0114  0.5178 -0.2896
23626SOL    HW175435   7.981   4.996  10.072  0.9017  0.5632 -0.9729
23626SOL    HW275436   7.980   4.981  10.223 -1.0065 -0.0248 -1.0182
23627SOL     OW75437   9.399  11.275  11.151 -0.3247  0.0005 -0.3757
23627SOL    HW175438   9.388  11.200  11.092  2.1550 -1.7413  1.1604
23627SOL    HW275439   9.332  11.264  11.218 -0.3065 -0.5469 -0.4444
23628SOL     OW75440   2.114   1.758   4.921  0.0058 -0.3821  0.1148
23628SOL    HW175441   2.157   1.788   4.841 -1.0726  0.9497  0.0105
23628SOL    HW275442   2.030   1.722   4.892  0.6206 -2.1465  0.4110
23629SOL     OW75443   6.403   2.302   4.240 -0.5133  0.3099 -0.0744
23629SOL    HW175444   6.382   2.311   4.333 -0.6545 -2.3690  0.2234
23629SOL    HW275445   6.395   2.208   4.222 -1.8669  0.8892 -3.1309
23630SOL     OW75446   4.376   4.444  10.631  0.0469  0.1972 -0.0677
23630SOL    HW175447   4.331   4.522  10.666  0.0241 -0.5262  1.5890
23630SOL    HW275448   4.308   4.376  10.630  0.7614 -0.5845  1.3441
23631SOL     OW75449  10.945   7.140   0.391  0.5041 -0.2375 -0.3088
23631SOL    HW175450  10.966   7.229   0.362 -2.6796  0.9579  0.6121
23631SOL    HW275451  10.888   7.106   0.322  0.5344 -0.9966  0.0379
23632SOL     OW75452   4.040   0.648   5.939 -0.3760  0.3949 -0.2389
23632SOL    HW175453   4.021   0.731   5.981 -0.7482  0.2902 -0.1985
23632SOL    HW275454   4.070   0.591   6.010  0.4101  0.6533 -0.3521
23633SOL     OW75455   2.422   7.020   6.224 -0.6734 -0.1099  0.4256
23633SOL    HW175456   2.383   6.948   6.273 -1.7000  0.6955  0.8243
23633SOL    HW275457   2.513   7.024   6.254 -1.4468  0.8102  2.8127
23634SOL     OW75458   7.008   8.259   8.189 -0.0643 -0.3328  0.7578
23634SOL    HW175459   7.021   8.164   8.180  1.7650 -0.3080  2.5644
23634SOL    HW275460   7.028   8.277   8.281 -1.9103  1.6123  0.8397
23635SOL     OW75461  11.068   4.296   5.554 -0.1005 -0.0963 -0.3420
23635SOL    HW175462  11.000   4.358   5.530  0.1983  0.8512  1.1224
23635SOL    HW275463  11.061   4.226   5.490  0.3702  2.0199 -2.8611
23636SOL     OW75464   6.301   0.230  11.536  0.0401 -0.0981 -0.7673
23636SOL    HW175465   6.373   0.168  11.523  0.4927  0.3669 -0.5564
23636SOL    HW275466   6.330   0.310  11.492 -1.0811 -0.3974 -2.1260
23637SOL     OW75467  11.733   4.871  12.106 -0.3125 -0.0956  0.3093
23637SOL    HW175468  11.642   4.840  12.112 -0.4933  0.0746 -1.1673
23637SOL    HW275469  11.770   4.854  12.193 -1.8685  0.2072  1.0745
23638SOL     OW75470  10.625   5.547   1.884 -0.2102  0.0225 -0.1520
23638SOL    HW175471  10.583   5.539   1.798  1.6316 -0.5967 -1.0414
23638SOL    HW275472  10.635   5.641   1.897 -0.2008  0.1113 -0.7672
23639SOL     OW75473   0.593   5.256   5.343 -0.3778 -0.1474 -0.3445
23639SOL    HW175474   0.591   5.315   5.268  0.9505  0.7159  0.2503
23639SOL    HW275475   0.514   5.276   5.392 -0.0247  1.0489 -0.2368
23640SOL     OW75476   3.007   2.104   2.978  0.2105 -0.0037  0.2358
23640SOL    HW175477   2.955   2.038   3.024  2.4560 -2.2985 -0.3330
23640SOL    HW275478   2.969   2.108   2.890 -0.2012 -0.2022  0.4026
23641SOL     OW75479   8.342   7.789   1.442 -0.4430 -0.0413 -0.1984
23641SOL    HW175480   8.274   7.828   1.497 -1.8322  2.5150 -3.4075
23641SOL    HW275481   8.306   7.703   1.418 -1.4369  0.2851  0.0653
23642SOL     OW75482   6.238   0.056   4.086  0.5452 -0.5519 -0.4315
23642SOL    HW175483   6.220  -0.037   4.078 -1.0557 -0.3337  0.2746
23642SOL    HW275484   6.265   0.083   3.998  1.7383 -1.7962 -0.4787
23643SOL     OW75485   2.169   4.567   9.257  0.2119 -0.7732  0.3942
23643SOL    HW175486   2.089   4.528   9.220 -0.0673 -0.3608  0.5551
23643SOL    HW275487   2.229   4.575   9.183 -0.2413 -0.2097  0.0842
23644SOL     OW75488   6.190  10.533   2.871  0.2083  0.5467  0.4861
23644SOL    HW175489   6.178  10.543   2.776  0.0313  0.7685  0.5284
23644SOL    HW275490   6.251  10.460   2.881 -1.7520 -1.2002  0.2734
23645SOL     OW75491   8.466   9.396   5.196 -0.1429  0.7403 -0.4819
23645SOL    HW175492   8.491   9.487   5.211 -2.3598  1.4806 -0.9582
23645SOL    HW275493   8.540   9.359   5.147  0.7126  2.3217 -0.4607
23646SOL     OW75494  11.893   4.926  10.354  0.0287 -0.0294 -0.3029
23646SOL    HW175495  11.900   4.844  10.403 -1.3061 -0.1095 -0.1905
23646SOL    HW275496  11.974   4.931  10.303  0.6204 -0.8617  0.5159
23647SOL     OW75497   6.550  11.105   8.609  0.0404 -0.7255 -0.6463
23647SOL    HW175498   6.564  11.196   8.583 -0.6139 -0.1938  0.7515
23647SOL    HW275499   6.618  11.088   8.674  0.4669 -1.4135 -1.2542
23648SOL     OW75500   9.328   6.415   8.731  0.0663  0.6376  0.3894
23648SOL    HW175501   9.260   6.454   8.676  1.2038  0.8069 -0.9486
23648SOL    HW275502   9.283   6.391   8.812 -1.2955  1.9757  0.0676
23649SOL     OW75503   9.135   0.827   2.365  0.0114 -0.4006  0.1929
23649SOL    HW175504   9.139   0.865   2.277  1.4762 -1.1350 -0.0917
23649SOL    HW275505   9.226   0.813   2.389 -0.4083 -1.3503  1.3336
23650SOL     OW75506   6.102   2.735   4.077  0.0163  0.5378 -0.9220
23650SOL    HW175507   6.181   2.747   4.024  0.6665  1.0703  0.1337
23650SOL    HW275508   6.062   2.656   4.042  1.1848  0.0798 -1.2919
23651SOL     OW75509   3.790   3.551   1.304  0.1969 -0.3095  0.4579
23651SOL    HW175510   3.845   3.589   1.373  1.1835  1.4947 -1.2438
23651SOL    HW275511   3.702   3.585   1.321  0.9241  2.3890 -0.6309
23652SOL     OW75512   1.349   7.847   4.345  0.5346 -0.4306 -0.1952
23652SOL    HW175513   1.324   7.843   4.252 -0.9233  1.1048  0.0931
23652SOL    HW275514   1.309   7.770   4.384  1.7927 -1.5151 -0.9382
23653SOL     OW75515   1.669  11.255   1.352 -0.1163  0.1704  0.3085
23653SOL    HW175516   1.694  11.335   1.306 -2.0239  1.6322  1.6761
23653SOL    HW275517   1.752  11.218   1.383  0.9384  0.6875 -1.7277
23654SOL     OW75518   3.005   0.029   6.209 -0.5703  0.3638 -0.1940
23654SOL    HW175519   3.094   0.058   6.229 -0.4526 -0.3087  0.3068
23654SOL    HW275520   3.002  -0.062   6.238 -1.7074  0.6537  0.6756
23655SOL     OW75521   2.047   3.975   6.132  0.1401 -0.4914 -0.3769
23655SOL    HW175522   2.051   3.934   6.045 -4.4631  0.2185 -1.2014
23655SOL    HW275523   2.128   4.025   6.140 -0.0817  1.1259 -5.2573
23656SOL     OW75524   8.300   3.557  10.131 -0.1118  0.5624  0.0477
23656SOL    HW175525   8.369   3.496  10.107  0.0510  0.9917 -0.5763
23656SOL    HW275526   8.338   3.610  10.201 -0.0007  0.4516  0.0729
23657SOL     OW75527   2.848   1.080   3.591 -0.2633 -0.5582 -0.1435
23657SOL    HW175528   2.841   1.068   3.496  0.8968 -1.2896 -0.1599
23657SOL    HW275529   2.921   1.023   3.617 -0.7009 -0.5360  1.2230
23658SOL     OW75530   1.072   4.390  11.701 -0.0241 -0.0140  0.2036
23658SOL    HW175531   1.112   4.422  11.782  0.0811 -1.0810  0.5845
23658SOL    HW275532   1.145   4.377  11.641  0.3007 -2.3354  1.0268
23659SOL     OW75533   1.882   0.889   9.293 -0.4758  0.1079  0.1318
23659SOL    HW175534   1.881   0.972   9.340  1.4604  0.9494 -1.2059
23659SOL    HW275535   1.802   0.889   9.241 -0.3377  1.2864 -0.0985
23660SOL     OW75536   0.688   2.677   6.337 -0.0574 -0.0235 -0.0159
23660SOL    HW175537   0.627   2.627   6.392 -0.4137 -2.4808 -2.4264
23660SOL    HW275538   0.764   2.693   6.394 -1.6644  0.4433  2.1299
23661SOL     OW75539   7.115   7.188   7.248 -0.1272  0.1294  0.1271
23661SOL    HW175540   7.039   7.237   7.216  0.1060  0.5571  0.2292
23661SOL    HW275541   7.113   7.199   7.343  0.6243  0.9813  0.0604
23662SOL     OW75542   1.830   4.229   0.548 -0.0211 -0.5933 -0.2959
23662SOL    HW175543   1.856   4.304   0.602  1.8508 -1.8935  0.7559
23662SOL    HW275544   1.793   4.167   0.611  1.8110 -1.9674 -0.4845
23663SOL     OW75545   3.186  10.500   0.057 -0.0140  0.2266 -0.4716
23663SOL    HW175546   3.136  10.570   0.014 -1.8787 -1.1134 -0.6133
23663SOL    HW275547   3.276  10.533   0.060 -0.0775  1.1130 -3.9117
23664SOL     OW75548   0.547   5.398   2.000  0.2581  0.7085 -0.4580
23664SOL    HW175549   0.603   5.321   1.993  1.1029  1.3677 -1.0509
23664SOL    HW275550   0.463   5.364   2.032  1.3432 -0.1454  1.6630
23665SOL     OW75551   3.923   9.102  10.927 -0.0554 -0.1273  0.2147
23665SOL    HW175552   3.915   9.033  10.861  0.8536 -0.5310  0.5132
23665SOL    HW275553   3.849   9.088  10.986  0.4312 -1.1948  0.5843
23666SOL     OW75554   4.408  10.119   3.237 -0.0302  0.5845  0.5543
23666SOL    HW175555   4.346  10.191   3.229 -0.6428  0.2788  2.2152
23666SOL    HW275556   4.468  10.146   3.306  2.6409  1.4739 -1.9043
23667SOL     OW75557   8.727  11.302  11.939  0.1054 -0.1723  0.3458
23667SOL    HW175558   8.788  11.349  11.882 -0.6776 -0.3468 -0.6610
23667SOL    HW275559   8.654  11.279  11.882 -0.1871 -1.3430  1.1531
23668SOL     OW75560  10.120  10.315  11.586 -0.0720 -0.1483  0.0853
23668SOL    HW175561  10.205  10.319  11.629  1.2978 -0.5634 -2.4313
23668SOL    HW275562  10.105  10.222  11.570 -0.5257  0.0021 -0.3946
23669SOL     OW75563  10.267   2.548   9.978 -0.8140  0.0096 -0.0638
23669SOL    HW175564  10.313   2.631   9.969 -0.6794 -0.0861 -0.2611
23669SOL    HW275565  10.186   2.570  10.023  0.4062 -0.1531  2.3712
23670SOL     OW75566   7.281   3.149   8.751 -0.5167 -0.2969 -0.2083
23670SOL    HW175567   7.237   3.089   8.811 -0.6978  0.3956  0.3718
23670SOL    HW275568   7.339   3.201   8.806 -0.7572  0.4196 -0.6052
23671SOL     OW75569   0.327  11.668   9.968 -0.6517  0.1784  0.6117
23671SOL    HW175570   0.322  11.752  10.014  0.4019  0.5355  0.1016
23671SOL    HW275571   0.240  11.657   9.929 -0.6096  1.3535  0.1503
23672SOL     OW75572   1.384   3.498  10.258  0.3695 -0.4458 -0.5753
23672SOL    HW175573   1.436   3.449  10.194  2.7151 -0.6216  1.3103
23672SOL    HW275574   1.446   3.557  10.300 -0.4920 -1.7256  2.8816
23673SOL     OW75575   5.669   4.739   4.645  0.2742 -0.4217  0.1635
23673SOL    HW175576   5.706   4.808   4.589  1.4031 -0.9039  0.2870
23673SOL    HW275577   5.574   4.750   4.637  0.4272  1.0610  0.0717
23674SOL     OW75578   6.378   3.071   2.494  0.0716 -0.2293  0.1145
23674SOL    HW175579   6.458   3.114   2.523  0.0632 -0.8937  1.1871
23674SOL    HW275580   6.325   3.141   2.456  0.1309  0.6868  1.6600
23675SOL     OW75581  10.729   6.539   4.316 -0.3246  0.4629  1.0014
23675SOL    HW175582  10.639   6.567   4.300 -0.6857 -0.1888  1.7886
23675SOL    HW275583  10.781   6.589   4.254 -1.1907  1.1218  0.7816
23676SOL     OW75584   4.181   0.382  10.347  0.1638 -0.1776 -0.3107
23676SOL    HW175585   4.275   0.366  10.335  0.3071  0.1034  0.4149
23676SOL    HW275586   4.167   0.376  10.441 -0.6253 -0.6172 -0.4416
23677SOL     OW75587   3.105   0.545   8.921  0.2298 -0.0081  0.0726
23677SOL    HW175588   3.108   0.641   8.915 -0.7554  0.0058 -0.3306
23677SOL    HW275589   3.183   0.522   8.972  0.4682  1.0059  0.1885
23678SOL     OW75590   6.184   9.029   1.386 -0.3964 -0.2751 -0.3731
23678SOL    HW175591   6.242   9.055   1.458 -1.2704  0.6937  0.0052
23678SOL    HW275592   6.204   8.936   1.371 -0.3820 -0.5720  1.3063
23679SOL     OW75593   6.821  11.465   2.754  0.0439  0.3460 -0.4498
23679SOL    HW175594   6.907  11.459   2.711  0.3546 -1.1390  0.2908
23679SOL    HW275595   6.818  11.554   2.788  1.2381  0.4793 -0.6162
23680SOL     OW75596   9.182  11.969   5.146 -0.2186  0.5658  0.1235
23680SOL    HW175597   9.116  12.026   5.185 -0.8483 -1.8539  2.9486
23680SOL    HW275598   9.137  11.887   5.130  0.9692  0.3343 -2.6577
23681SOL     OW75599   5.998   4.477   3.359  0.1920 -0.0936  0.4064
23681SOL    HW175600   5.998   4.571   3.346 -1.2326 -0.0802  0.3981
23681SOL    HW275601   6.087   4.457   3.389  0.6078  1.1932  0.0802
23682SOL     OW75602   2.831   6.084   9.680 -0.5196  0.7169  0.5894
23682SOL    HW175603   2.812   6.067   9.773 -1.1726  0.3735  0.4005
23682SOL    HW275604   2.881   6.007   9.652 -0.2502  0.8598  0.6761
23683SOL     OW75605   1.330   7.128   9.443 -0.0310  0.1067  0.6243
23683SOL    HW175606   1.362   7.106   9.530  1.6495  2.8988  0.8430
23683SOL    HW275607   1.403   7.175   9.402 -1.5469  0.8116 -1.4412
23684SOL     OW75608   5.015   7.853   4.662  0.7467 -0.0483  0.4849
23684SOL    HW175609   5.067   7.876   4.739 -0.1204 -1.2515  1.4723
23684SOL    HW275610   5.080   7.834   4.594  1.5272  2.8400  0.2869
23685SOL     OW75611   5.652   4.395   1.863  0.5247 -0.0531  0.7470
23685SOL    HW175612   5.633   4.471   1.808  0.4096  0.3812  1.3791
23685SOL    HW275613   5.742   4.371   1.841  0.1192 -0.5623 -0.4257
23686SOL     OW75614   7.747   3.610   1.498  0.0623 -0.2143  0.5364
23686SOL    HW175615   7.782   3.564   1.422 -2.6178 -1.9874  0.2578
23686SOL    HW275616   7.805   3.686   1.509  1.6944 -0.9796 -2.0262
23687SOL     OW75617   5.494   0.190   7.427  0.4448  0.2195 -0.1419
23687SOL    HW175618   5.428   0.160   7.364 -1.3282 -1.5242  2.3889
23687SOL    HW275619   5.512   0.113   7.482 -0.4132  2.3335  3.3930
23688SOL     OW75620  11.240   9.477  11.063 -0.6294 -0.2940 -0.0387
23688SOL    HW175621  11.306   9.500  10.998 -0.8992 -0.4740 -0.3803
23688SOL    HW275622  11.275   9.510  11.146  0.2139 -1.0212 -0.0993
23689SOL     OW75623   7.996   4.127   3.585 -0.0777  0.2181 -0.0100
23689SOL    HW175624   7.911   4.127   3.630  0.4836 -0.7121  1.0948
23689SOL    HW275625   7.973   4.117   3.492 -1.1808 -0.0938  0.2736
23690SOL     OW75626   9.635   9.145   8.246  0.0475 -0.3517 -0.0728
23690SOL    HW175627   9.626   9.135   8.341  0.4192 -0.0618 -0.0048
23690SOL    HW275628   9.677   9.064   8.218  0.0187 -0.3999  0.0199
23691SOL     OW75629   4.281   2.316   5.523 -0.4605 -0.4224  0.1102
23691SOL    HW175630   4.324   2.278   5.447  1.9972 -0.6855  1.5245
23691SOL    HW275631   4.285   2.411   5.509 -0.2264 -0.4771 -0.1767
23692SOL     OW75632  11.663   1.916  10.712  0.0242  0.7328  0.7105
23692SOL    HW175633  11.711   1.977  10.768  1.9404  0.6379 -0.7344
23692SOL    HW275634  11.685   1.943  10.623  1.6138 -2.4631 -0.0246
23693SOL     OW75635  11.790   6.627   7.396  0.8578 -0.3407  0.3681
23693SOL    HW175636  11.832   6.586   7.320  2.8435  1.4010  0.4229
23693SOL    HW275637  11.750   6.707   7.361 -3.0961 -2.1634  0.2193
23694SOL     OW75638   6.247   4.448   0.189 -0.0476 -0.5266 -0.0848
23694SOL    HW175639   6.200   4.368   0.165  1.7566 -1.5300 -0.4636
23694SOL    HW275640   6.339   4.424   0.184  0.5256  1.2604  0.9853
23695SOL     OW75641   3.138   1.160  11.526  0.6475  0.3186 -0.0200
23695SOL    HW175642   3.212   1.170  11.586  0.3704  0.5106  0.2982
23695SOL    HW275643   3.065   1.201  11.573  0.4422  0.5204 -0.5140
23696SOL     OW75644   5.747   0.359   3.970  0.2015 -0.3373 -0.6356
23696SOL    HW175645   5.810   0.320   4.031  0.5837  0.9498 -0.1833
23696SOL    HW275646   5.793   0.358   3.886  0.6460  0.1703 -0.4014
23697SOL     OW75647   8.976   6.347   7.264  0.3441 -0.4768  0.2055
23697SOL    HW175648   9.068   6.328   7.282  0.6969  0.6933 -0.2318
23697SOL    HW275649   8.931   6.264   7.276  1.5112 -1.1424  0.1094
23698SOL     OW75650   7.832   9.480   9.784  0.0703 -0.5819  0.2177
23698SOL    HW175651   7.891   9.476   9.709  0.6609  0.2224  0.6070
23698SOL    HW275652   7.745   9.485   9.747  0.4232  1.2064 -0.4863
23699SOL     OW75653   0.289   1.303  11.936  0.0669  0.2402  0.2218
23699SOL    HW175654   0.369   1.356  11.940 -0.2991  0.9336 -1.0479
23699SOL    HW275655   0.264   1.290  12.027  0.7466  1.3677  0.5917
23700SOL     OW75656  11.149   8.873  10.449  0.4362  0.5250 -0.4661
23700SOL    HW175657  11.073   8.826  10.483  0.5923  0.8871  0.3881
23700SOL    HW275658  11.170   8.827  10.367 -0.7228  0.4540 -0.7360
23701SOL     OW75659  10.317  10.929   1.947  0.7360 -0.2069  0.0875
23701SOL    HW175660  10.344  11.006   1.897 -1.0352  1.1507  1.0605
23701SOL    HW275661  10.267  10.877   1.885 -1.4656  1.4699  0.3125
23702SOL     OW75662  11.340   3.465   3.172 -0.0903  0.2180  0.2889
23702SOL    HW175663  11.419   3.451   3.120 -0.1034 -0.3952  0.4276
23702SOL    HW275664  11.270   3.426   3.120 -0.0494 -0.7513  0.9285
23703SOL     OW75665  10.331   7.065  11.578 -0.0128 -0.7375 -0.3115
23703SOL    HW175666  10.409   7.051  11.524  1.6910  2.5462  0.9987
23703SOL    HW275667  10.348   7.016  11.658  0.9489  0.3133  0.1410
23704SOL     OW75668   1.690  11.180  10.739 -0.5052  0.4852  0.2061
23704SOL    HW175669   1.720  11.196  10.649  0.8565 -0.8603  0.3799
23704SOL    HW275670   1.752  11.227  10.794 -1.5546  1.6121  0.4679
23705SOL     OW75671   3.772   4.293   3.206 -0.4370 -0.1044  0.4006
23705SOL    HW175672   3.693   4.340   3.234 -0.6008  0.4414 -0.9004
23705SOL    HW275673   3.757   4.203   3.234 -1.7985 -0.1392 -0.3358
23706SOL     OW75674   0.595   7.751   3.525 -0.0071 -0.2706  0.1568
23706SOL    HW175675   0.541   7.815   3.572  0.7944 -0.3081  1.1600
23706SOL    HW275676   0.684   7.785   3.532  0.2942 -0.9687 -0.2053
23707SOL     OW75677   0.041   1.536   7.256 -0.4834 -0.2993  0.0498
23707SOL    HW175678   0.095   1.483   7.314 -3.2780 -1.9582  1.3528
23707SOL    HW275679   0.047   1.493   7.171 -1.3246 -1.7571  0.6815
23708SOL     OW75680   0.223   1.245   7.978  0.1479  0.6029 -0.2338
23708SOL    HW175681   0.243   1.182   7.909 -0.9756 -0.5190  0.4160
23708SOL    HW275682   0.288   1.228   8.046 -0.5868 -0.4293  0.2576
23709SOL     OW75683   6.906   2.569   0.383 -0.3189 -0.2993 -0.8228
23709SOL    HW175684   6.867   2.525   0.307  1.9135 -3.3822 -0.3949
23709SOL    HW275685   7.000   2.553   0.373  0.0618 -0.6956  2.4737
23710SOL     OW75686   6.555  11.970   7.979 -0.2603  0.0426 -0.2855
23710SOL    HW175687   6.528  11.879   7.992  0.2692 -0.2752 -1.2591
23710SOL    HW275688   6.560  11.980   7.884  2.2824  0.3069 -0.1830
23711SOL     OW75689   9.074   9.874   3.761  0.2592  0.1334 -0.3980
23711SOL    HW175690   9.121   9.944   3.715  0.2014  0.2602 -0.2649
23711SOL    HW275691   9.093   9.888   3.853  1.5945 -1.0104 -0.4671
23712SOL     OW75692   9.194   3.107   4.298 -0.8238 -0.6769 -1.0303
23712SOL    HW175693   9.257   3.140   4.234  0.3557  1.6096  1.1197
23712SOL    HW275694   9.134   3.181   4.312 -0.9974 -1.0771  0.5133
23713SOL     OW75695   6.519   9.714   9.893 -0.9639 -0.3696 -0.1585
23713SOL    HW175696   6.503   9.754   9.979 -0.8625 -1.4184  0.3677
23713SOL    HW275697   6.611   9.731   9.876 -1.2623  0.9228 -0.6634
23714SOL     OW75698  11.452   0.038   5.012 -0.3623 -0.6313 -0.6080
23714SOL    HW175699  11.439   0.110   4.951 -1.7926 -0.5544 -0.2520
23714SOL    HW275700  11.540   0.051   5.047 -0.1763  0.2823 -1.3805
23715SOL     OW75701   2.941   8.647   7.977  0.5676  0.3545  0.3688
23715SOL    HW175702   2.992   8.576   8.015 -0.0865 -1.8067 -2.4000
23715SOL    HW275703   3.002   8.691   7.918  0.9206  2.0769  1.9449
23716SOL     OW75704   4.766  11.439   9.583 -0.2456 -0.6465  0.1939
23716SOL    HW175705   4.797  11.403   9.666  1.5767 -1.7757 -0.9156
23716SOL    HW275706   4.734  11.364   9.534 -1.0737 -0.0253 -0.2514
23717SOL     OW75707   0.721   0.298   5.729 -0.3306 -0.2204  0.1695
23717SOL    HW175708   0.738   0.204   5.730 -2.6538 -0.6800  1.1672
23717SOL    HW275709   0.708   0.319   5.636 -0.9731 -1.1284  0.0447
23718SOL     OW75710   0.923   9.266   5.911 -0.2744  0.1387 -0.2845
23718SOL    HW175711   0.979   9.235   5.840  0.8213  0.7386  0.2889
23718SOL    HW275712   0.835   9.271   5.873 -0.6696 -3.9869 -0.3197
23719SOL     OW75713   4.587   4.495   2.689 -0.0381  0.2509 -0.1581
23719SOL    HW175714   4.635   4.523   2.610  1.4771 -0.1913  0.5683
23719SOL    HW275715   4.502   4.538   2.681  0.4494  1.0423 -1.5355
23720SOL     OW75716   5.467   0.865   7.306 -0.2834  0.1502  0.1416
23720SOL    HW175717   5.522   0.789   7.325  0.4195  0.4592 -0.6339
23720SOL    HW275718   5.471   0.875   7.211  0.9810  2.1528  0.3590
23721SOL     OW75719   2.040   5.235  10.463  0.0031 -0.4660 -0.3223
23721SOL    HW175720   2.085   5.184  10.396 -0.3433 -1.3703  0.1196
23721SOL    HW275721   1.998   5.306  10.415  0.4513 -0.6238 -0.9571
23722SOL     OW75722   1.538   5.796   2.281 -0.4643 -0.1981  0.6507
23722SOL    HW175723   1.524   5.879   2.236 -1.6182 -0.3053  0.7871
23722SOL    HW275724   1.620   5.762   2.244  0.2182  1.1531  0.8443
23723SOL     OW75725   2.529   8.959   9.849  0.4905  0.0508  0.4367
23723SOL    HW175726   2.599   8.943   9.912  0.9389 -0.0396 -0.0782
23723SOL    HW275727   2.568   9.018   9.784  0.4472 -0.8607 -0.4464
23724SOL     OW75728   4.448   1.942  11.796  0.5687  0.1444 -0.1969
23724SOL    HW175729   4.397   1.873  11.837 -0.5609  0.1601 -1.4713
23724SOL    HW275730   4.470   2.002  11.867  0.4651 -0.8697  0.7012
23725SOL     OW75731   0.059  11.723   2.704  0.5775  0.0228 -0.1171
23725SOL    HW175732   0.111  11.643   2.701 -0.6664 -0.8987  1.6229
23725SOL    HW275733   0.105  11.780   2.765 -0.1347 -0.5911  1.0210
23726SOL     OW75734   5.506   4.181  10.236 -0.2529  0.3807  0.3522
23726SOL    HW175735   5.438   4.229  10.284  0.7212  0.7034  1.4788
23726SOL    HW275736   5.537   4.115  10.298 -0.3340 -0.5289 -0.5571
23727SOL     OW75737   0.648   1.080   9.442  0.3587  0.1417 -0.1721
23727SOL    HW175738   0.650   1.046   9.353  1.5637  0.3206 -0.2317
23727SOL    HW275739   0.557   1.109   9.455 -0.2435 -1.4172 -0.7314
23728SOL     OW75740  11.323  10.649   3.722 -0.4145  0.2505  0.4406
23728SOL    HW175741  11.268  10.727   3.731 -0.1958  0.5631 -0.7893
23728SOL    HW275742  11.405  10.673   3.765  0.1120  1.1829 -1.0220
23729SOL     OW75743  11.571   6.215   4.837  0.0670  0.5184 -0.1611
23729SOL    HW175744  11.652   6.243   4.794 -0.1604 -1.2869 -1.9111
23729SOL    HW275745  11.596   6.137   4.886 -0.5933  0.0066 -0.6316
23730SOL     OW75746   0.718   9.971   3.315 -0.2550  0.0483 -0.0313
23730SOL    HW175747   0.724  10.067   3.316 -0.8615  0.0888  0.7602
23730SOL    HW275748   0.630   9.952   3.347 -0.1806 -0.7763 -0.2953
23731SOL     OW75749  12.053   3.507   2.559 -0.2350 -0.7961  0.2268
23731SOL    HW175750  12.132   3.553   2.590 -0.9085  1.4809 -1.1532
23731SOL    HW275751  12.036   3.544   2.473 -1.4528 -3.0365 -0.5744
23732SOL     OW75752   0.729   4.763   6.172 -0.2817  0.2297 -0.0173
23732SOL    HW175753   0.737   4.686   6.115  0.3818 -0.3361  0.8163
23732SOL    HW275754   0.714   4.836   6.111 -0.7539 -0.5180 -0.8346
23733SOL     OW75755  11.165   6.941   8.862  0.1671  0.3362 -0.2080
23733SOL    HW175756  11.170   6.854   8.822  0.4622  0.6198 -0.8108
23733SOL    HW275757  11.235   6.941   8.928 -0.6050 -0.2841  0.6399
23734SOL     OW75758  11.517  11.854   2.965  0.1402  0.9674 -0.1853
23734SOL    HW175759  11.590  11.793   2.965 -0.1644  0.5948 -0.4041
23734SOL    HW275760  11.454  11.816   3.027 -0.0020  1.1165 -0.2363
23735SOL     OW75761   6.965   2.029   7.917  0.1941  0.4112 -0.0696
23735SOL    HW175762   6.959   2.028   8.012 -0.4195  0.7813 -0.1002
23735SOL    HW275763   6.919   2.108   7.890 -1.1238 -0.5442 -0.7558
23736SOL     OW75764   0.295   0.345   1.441 -0.6541  0.3752 -0.1971
23736SOL    HW175765   0.217   0.341   1.497 -0.6812 -1.4404 -0.2965
23736SOL    HW275766   0.283   0.273   1.379  1.2762 -0.1809  0.0282
23737SOL     OW75767   8.218   0.809  10.350 -0.0791  0.2950  1.1118
23737SOL    HW175768   8.211   0.750  10.275  0.9562  1.5936 -0.0591
23737SOL    HW275769   8.219   0.897  10.312 -1.4630  1.1143  2.7920
23738SOL     OW75770   0.524   8.439   0.805  0.9904  0.2077  0.0626
23738SOL    HW175771   0.509   8.347   0.824  0.5976  0.4364  0.9047
23738SOL    HW275772   0.619   8.446   0.796  0.9415 -0.4898 -1.2344
23739SOL     OW75773  10.317   5.386   3.259 -0.1654 -0.8305  0.5367
23739SOL    HW175774  10.367   5.385   3.341  2.0000  1.4607 -0.6347
23739SOL    HW275775  10.303   5.293   3.239  1.9656 -1.5400  1.9221
23740SOL     OW75776   6.501   3.209   0.336  0.1415 -0.4670  0.4420
23740SOL    HW175777   6.413   3.205   0.373  0.3294  0.4299  1.0219
23740SOL    HW275778   6.559   3.186   0.409  0.4540  0.2101  0.4110
23741SOL     OW75779  11.991   5.817   6.336  0.2094  0.5000 -0.3973
23741SOL    HW175780  12.015   5.730   6.369  1.0520  0.7005 -0.4393
23741SOL    HW275781  11.896   5.821   6.344  0.0926 -0.6720 -0.9791
23742SOL     OW75782   4.930  11.322   3.419 -0.2496  0.2945  0.6647
23742SOL    HW175783   4.901  11.354   3.334 -0.3690  0.3990  0.7441
23742SOL    HW275784   4.854  11.334   3.476  0.1774  1.2480  1.0485
23743SOL     OW75785   2.515   1.070   6.298 -0.3340 -0.5956  0.2245
23743SOL    HW175786   2.509   1.106   6.387 -1.7271 -1.5092  0.5223
23743SOL    HW275787   2.449   1.118   6.249  1.3102  0.8398 -0.7037
23744SOL     OW75788   8.652   4.726   8.820 -0.5283  0.5480 -0.2928
23744SOL    HW175789   8.569   4.703   8.861  0.2957 -1.6719  0.3035
23744SOL    HW275790   8.681   4.804   8.867 -1.2665  0.0727  1.0082
23745SOL     OW75791  12.106   6.104   7.320  0.0025  0.3665 -0.4912
23745SOL    HW175792  12.073   6.033   7.265 -0.4212 -0.9673  1.3534
23745SOL    HW275793  12.038   6.116   7.387  2.3227 -1.2687  2.4201
23746SOL     OW75794   4.119   3.229  11.603  0.2193  0.6157 -0.4097
23746SOL    HW175795   4.142   3.145  11.644 -0.3116  0.8352  0.3478
23746SOL    HW275796   4.029   3.246  11.632  0.5448  1.7660 -0.0338
23747SOL     OW75797   2.817   6.916   9.164 -0.0835 -0.2543  0.6435
23747SOL    HW175798   2.858   6.995   9.201 -0.5074 -0.2190  1.0529
23747SOL    HW275799   2.882   6.881   9.103  0.6938 -0.3907  1.5279
23748SOL     OW75800   0.215   0.078   7.788 -0.3275 -0.4208  0.4073
23748SOL    HW175801   0.184   0.154   7.739  0.9715 -0.2603 -0.2262
23748SOL    HW275802   0.195   0.004   7.732  0.7349 -0.2796 -0.1956
23749SOL     OW75803   0.889   3.066   6.318  0.0016 -0.3004 -0.4156
23749SOL    HW175804   0.940   3.132   6.270 -0.6416  0.1134 -0.5436
23749SOL    HW275805   0.852   3.011   6.249  0.1146 -0.4763 -0.3340
23750SOL     OW75806   3.848   9.949  10.757  0.3499 -0.5136  0.3404
23750SOL    HW175807   3.844   9.862  10.798 -0.0719 -0.0593  1.3026
23750SOL    HW275808   3.761   9.986  10.772  0.3881 -0.0944 -0.4584
23751SOL     OW75809   1.720   7.026   7.269 -0.1164  0.9354  0.0157
23751SOL    HW175810   1.775   7.104   7.258 -0.2039  0.9921 -0.0186
23751SOL    HW275811   1.780   6.959   7.303  0.2038  0.7040 -0.9556
23752SOL     OW75812   4.704   0.840   1.793  0.1371  0.3605  0.0073
23752SOL    HW175813   4.635   0.776   1.810  0.1122  0.6822  1.2387
23752SOL    HW275814   4.785   0.795   1.818  0.1947  0.5481  0.1653
23753SOL     OW75815   2.253   3.333   0.985 -0.2747  0.6738 -0.3161
23753SOL    HW175816   2.213   3.247   0.971  1.6873 -0.2803 -0.4498
23753SOL    HW275817   2.249   3.347   1.080 -2.0442  1.2062 -0.4475
23754SOL     OW75818   1.884   0.073  10.064  0.0732 -1.0336  0.4553
23754SOL    HW175819   1.814   0.138  10.070  0.2993 -0.6453 -0.7576
23754SOL    HW275820   1.909   0.056  10.154  0.1990  0.7679  0.7939
23755SOL     OW75821  11.876   7.657   0.846  0.0167  0.3267 -0.3045
23755SOL    HW175822  11.809   7.604   0.803  0.4790  0.2470 -0.9366
23755SOL    HW275823  11.833   7.690   0.925 -0.4258 -0.5883 -0.1499
23756SOL     OW75824  11.623   5.387  11.799  0.1630 -0.3283  0.6413
23756SOL    HW175825  11.705   5.416  11.759  0.3911 -0.9434  0.6649
23756SOL    HW275826  11.599   5.459  11.858 -0.5900  0.9561 -1.1383
23757SOL     OW75827  11.711  10.284   0.347 -0.5084  0.1572  0.5262
23757SOL    HW175828  11.639  10.293   0.284  0.4403 -2.0991 -0.9798
23757SOL    HW275829  11.670  10.246   0.425 -1.1460 -0.0157  0.1099
23758SOL     OW75830  12.033   1.610  11.810 -0.3163  0.0527  0.1194
23758SOL    HW175831  12.060   1.686  11.760 -1.6023  0.4364 -0.0150
23758SOL    HW275832  12.039   1.638  11.902  0.3257 -0.0820  0.1294
23759SOL     OW75833   8.384   2.757  11.930  0.4795  0.1679  0.4516
23759SOL    HW175834   8.324   2.687  11.955  1.0613 -0.7657 -0.6840
23759SOL    HW275835   8.326   2.827  11.898 -0.0395 -0.6936 -0.5707
23760SOL     OW75836   3.397   8.588  11.922  0.5941 -0.3127 -0.0402
23760SOL    HW175837   3.422   8.565  12.011 -2.0843  0.3560  0.9660
23760SOL    HW275838   3.366   8.506  11.883  0.1967 -0.2894  0.2238
23761SOL     OW75839   5.841   3.617   4.872  0.0123  0.5106 -0.1494
23761SOL    HW175840   5.813   3.587   4.786 -0.2436 -1.1203  0.4806
23761SOL    HW275841   5.936   3.601   4.873 -0.0723  0.0216  0.0688
23762SOL     OW75842   3.417   4.476   1.142 -0.4430 -0.1096 -0.0338
23762SOL    HW175843   3.386   4.433   1.221  0.1014 -3.4273 -1.4593
23762SOL    HW275844   3.338   4.495   1.091 -0.6626 -0.1105  0.3071
23763SOL     OW75845   6.246   8.615  10.396  0.6207 -0.2703  0.1285
23763SOL    HW175846   6.239   8.623  10.301  2.3143 -2.8172 -0.3223
23763SOL    HW275847   6.282   8.699  10.424 -0.9588  0.9412 -1.3046
23764SOL     OW75848   4.153   2.445  11.205 -0.5914  0.5273  0.0814
23764SOL    HW175849   4.087   2.514  11.207 -0.6553  0.4623  0.3429
23764SOL    HW275850   4.147   2.404  11.292 -1.1309 -0.3606 -0.3629
23765SOL     OW75851   0.455   0.341   7.636  0.2085  0.2494 -0.5241
23765SOL    HW175852   0.550   0.338   7.631  0.1679  0.3398 -2.1642
23765SOL    HW275853   0.435   0.421   7.684  0.9574  0.3257 -0.3350
23766SOL     OW75854   4.145   1.770  10.983  0.1707  0.2944 -0.4970
23766SOL    HW175855   4.180   1.720  11.056 -2.6604  1.0410  1.5290
23766SOL    HW275856   4.061   1.730  10.964 -0.4373  1.8871 -1.4253
23767SOL     OW75857   2.642   3.029  10.992  0.6535  0.1123 -0.7236
23767SOL    HW175858   2.675   3.108  10.950  0.0550  0.6317 -0.2512
23767SOL    HW275859   2.564   3.006  10.941  0.7711 -0.1203 -0.8001
23768SOL     OW75860   4.520   2.502   7.493  0.1461  0.4747  0.3918
23768SOL    HW175861   4.589   2.546   7.445 -0.2392  0.4669 -0.1843
23768SOL    HW275862   4.441   2.551   7.472  0.1908  1.4250  2.2656
23769SOL     OW75863   1.660   6.022   2.553 -0.0996  0.2871 -0.0037
23769SOL    HW175864   1.584   5.965   2.540  1.0752 -1.7363  1.6012
23769SOL    HW275865   1.633   6.081   2.624 -1.3076  1.8604 -1.6553
23770SOL     OW75866   7.756   6.581   7.387 -0.2124 -0.5845 -0.0839
23770SOL    HW175867   7.840   6.625   7.375  0.1021 -0.9746  0.6531
23770SOL    HW275868   7.711   6.593   7.303  0.6664 -0.5829 -0.5672
23771SOL     OW75869  10.780   7.180  11.558 -0.3162  0.1742 -0.0917
23771SOL    HW175870  10.782   7.084  11.549  1.7882  0.1551 -0.0185
23771SOL    HW275871  10.855   7.209  11.506 -2.2865  2.0180 -2.1052
23772SOL     OW75872  11.306  10.116  10.740  0.6768  0.6246 -0.0465
23772SOL    HW175873  11.376  10.166  10.698  0.3623 -0.2099 -1.6174
23772SOL    HW275874  11.231  10.128  10.682 -0.0444  0.2060  0.7866
23773SOL     OW75875  10.014   0.109   9.279  0.5410 -0.5679 -0.1414
23773SOL    HW175876  10.090   0.060   9.311 -0.2182 -0.9852  1.0823
23773SOL    HW275877   9.954   0.043   9.246  0.3934 -0.2981 -0.4168
23774SOL     OW75878   2.573   8.885   6.391 -0.0480 -0.1966  0.2740
23774SOL    HW175879   2.566   8.816   6.325  1.6506 -0.0711 -0.0739
23774SOL    HW275880   2.628   8.848   6.460  0.2040  0.5151  0.4721
23775SOL     OW75881   2.078   7.285  10.185 -0.1687 -0.0346 -0.1377
23775SOL    HW175882   2.112   7.199  10.160 -0.0404 -0.2183  0.6437
23775SOL    HW275883   2.122   7.346  10.126  0.7682 -0.3739  0.1921
23776SOL     OW75884  10.538   1.331   8.505  0.8297  0.7243 -0.0059
23776SOL    HW175885  10.545   1.420   8.470 -0.8758  0.6498 -0.6391
23776SOL    HW275886  10.620   1.289   8.481  1.5116  2.0222 -0.0057
23777SOL     OW75887   8.000  10.460   6.072 -0.0819 -0.3739  0.1726
23777SOL    HW175888   8.074  10.421   6.026 -0.2603 -1.0904  0.4775
23777SOL    HW275889   7.968  10.528   6.013  1.3234  0.5250  0.3894
23778SOL     OW75890   9.503  10.690   4.466 -0.5500  0.6150  0.1940
23778SOL    HW175891   9.562  10.764   4.454  0.7461  0.1653  2.9389
23778SOL    HW275892   9.546  10.617   4.420  0.0524  0.7632  0.5070
23779SOL     OW75893   0.480   3.356   8.257 -0.0853  0.6257 -0.2108
23779SOL    HW175894   0.475   3.424   8.189  0.4271  0.9285  0.0517
23779SOL    HW275895   0.487   3.274   8.208 -0.9619  0.7254 -0.5359
23780SOL     OW75896   6.683   0.725   0.665  0.4048  0.0609 -0.4799
23780SOL    HW175897   6.655   0.803   0.618 -0.6576  0.6583  1.0663
23780SOL    HW275898   6.657   0.740   0.756  1.2678 -1.5756  0.0968
23781SOL     OW75899   5.516   3.910   2.046  0.1691  0.1929  0.4343
23781SOL    HW175900   5.584   3.971   2.019  2.8405 -3.0015 -0.7192
23781SOL    HW275901   5.483   3.946   2.128  2.6303  2.3730  0.6119
23782SOL     OW75902   9.204  10.062   9.848  0.0530 -0.0986  0.0838
23782SOL    HW175903   9.117  10.023   9.861 -0.3758  0.5924 -0.5957
23782SOL    HW275904   9.232  10.087   9.936 -0.9499  0.6971  0.1989
23783SOL     OW75905   0.088   6.716  10.843 -0.3404 -0.0543  0.1450
23783SOL    HW175906   0.040   6.762  10.773 -1.2067 -0.3453  0.5332
23783SOL    HW275907   0.180   6.734  10.824 -0.3701 -1.9803 -2.4386
23784SOL     OW75908   1.432   9.572   3.967 -0.5868 -0.3587 -0.2469
23784SOL    HW175909   1.365   9.616   3.914 -1.4104 -0.2566  0.8409
23784SOL    HW275910   1.444   9.628   4.043  0.5230 -0.5430 -0.2690
23785SOL     OW75911   7.452   2.456   8.565  0.3082  0.3269  0.1989
23785SOL    HW175912   7.400   2.509   8.504  1.0176  1.6191  0.6777
23785SOL    HW275913   7.506   2.519   8.611  2.2938 -0.9594 -0.2520
23786SOL     OW75914   1.617   6.834   3.781 -0.5129 -0.1616 -0.5197
23786SOL    HW175915   1.554   6.877   3.839 -0.0951 -2.9843  2.3426
23786SOL    HW275916   1.670   6.780   3.840  2.5234 -0.3856 -3.1758
23787SOL     OW75917   9.737   3.429  11.361 -0.0350 -0.1600 -0.0491
23787SOL    HW175918   9.720   3.363  11.428  0.5228 -0.3123 -0.0456
23787SOL    HW275919   9.675   3.499  11.379 -1.8757 -1.4424 -1.1343
23788SOL     OW75920   9.881   2.953   3.449  0.4272  0.0606  0.1561
23788SOL    HW175921   9.951   2.906   3.494  0.0408 -1.6552 -0.9600
23788SOL    HW275922   9.845   2.890   3.386  0.6129  2.1714 -2.2458
23789SOL     OW75923   1.181   8.259   7.825 -0.0980 -0.2417  0.2778
23789SOL    HW175924   1.110   8.306   7.869  0.6343  0.1756  1.0414
23789SOL    HW275925   1.167   8.167   7.848 -1.0803 -0.3214 -0.5744
23790SOL     OW75926   6.958   5.171   1.235  0.0534  0.3806  1.0350
23790SOL    HW175927   6.914   5.207   1.311 -0.3306 -1.0574  1.5103
23790SOL    HW275928   6.932   5.229   1.163 -0.2315  1.2663  1.8235
23791SOL     OW75929   3.412   0.467  10.765  0.0975  0.0035  0.1315
23791SOL    HW175930   3.481   0.500  10.707 -0.4775  1.4589  0.2274
23791SOL    HW275931   3.330   0.497  10.726 -0.3231  0.6909  1.4504
23792SOL     OW75932   1.304   7.948   0.329  0.0147 -0.1525 -0.0559
23792SOL    HW175933   1.220   7.942   0.374 -0.5556 -0.6145 -1.1726
23792SOL    HW275934   1.291   7.903   0.246  1.2567  0.0971 -0.4056
23793SOL     OW75935   5.804   6.295   7.922  0.0833 -0.0443 -0.3161
23793SOL    HW175936   5.819   6.363   7.855 -0.6009  0.4131 -0.0179
23793SOL    HW275937   5.772   6.220   7.873  2.8709 -0.9335 -0.9334
23794SOL     OW75938   3.618   5.143   4.529 -0.3115  0.0610 -0.0411
23794SOL    HW175939   3.600   5.198   4.605 -1.1944  0.5944 -0.6151
23794SOL    HW275940   3.559   5.069   4.538  0.9093 -0.8522  0.7547
23795SOL     OW75941   3.327   8.365   0.486 -0.6926 -0.3847  0.1126
23795SOL    HW175942   3.261   8.380   0.418 -0.1699 -1.1146 -0.5792
23795SOL    HW275943   3.297   8.286   0.531 -1.5012  0.5899  1.3248
23796SOL     OW75944  11.609  11.622   3.339 -0.2523  0.3795  0.5010
23796SOL    HW175945  11.668  11.553   3.309 -2.1930 -0.4066 -1.7162
23796SOL    HW275946  11.551  11.579   3.401 -0.4998  0.3886  0.2767
23797SOL     OW75947   5.997   9.809   0.056 -0.5316 -0.0029 -0.4478
23797SOL    HW175948   5.966   9.735   0.108 -0.3336  0.2143 -0.0051
23797SOL    HW275949   5.966   9.792  -0.032  2.6657 -2.6019 -1.2815
23798SOL     OW75950   9.198   0.422   5.496  0.3101  0.1321 -0.2038
23798SOL    HW175951   9.161   0.487   5.436  2.0371  1.2454 -0.1195
23798SOL    HW275952   9.124   0.394   5.549 -1.1222 -0.3448 -2.3360
23799SOL     OW75953  11.090   4.757  11.105  0.2292 -0.5993  0.4593
23799SOL    HW175954  11.021   4.719  11.050  0.1390 -0.7941  0.7089
23799SOL    HW275955  11.082   4.712  11.189  0.8254 -0.8085  0.4101
23800SOL     OW75956  11.000  10.486   1.400  0.2252 -0.1793 -0.4459
23800SOL    HW175957  10.918  10.525   1.430 -0.8066 -2.2184 -0.4275
23800SOL    HW275958  11.023  10.535   1.321  0.0440  1.6640  0.5941
23801SOL     OW75959   2.607  10.291   8.327  0.7274 -0.2913  0.4802
23801SOL    HW175960   2.552  10.221   8.292 -0.7349  0.7256  0.6693
23801SOL    HW275961   2.658  10.249   8.396  0.8763 -1.4545 -0.2929
23802SOL     OW75962   0.537   4.612   1.574  0.7169  0.7026  0.4466
23802SOL    HW175963   0.554   4.642   1.485 -1.6851 -0.2172 -0.3942
23802SOL    HW275964   0.448   4.578   1.572  1.3545 -1.4279  2.6580
23803SOL     OW75965   2.517   1.133   4.826  0.0105  0.0551  0.3043
23803SOL    HW175966   2.548   1.057   4.776 -1.5357 -0.6026  0.2614
23803SOL    HW275967   2.429   1.150   4.791 -1.4696 -0.9117  3.1897
23804SOL     OW75968   0.954   4.821   5.610 -0.5437  0.3258 -0.3584
23804SOL    HW175969   0.867   4.813   5.570 -0.8950  0.6361  0.3418
23804SOL    HW275970   1.003   4.746   5.575 -1.5581 -0.7237  0.4017
23805SOL     OW75971   8.937   5.414   7.882 -0.1491 -0.7373  0.2351
23805SOL    HW175972   8.916   5.507   7.865  0.8951  0.0633  2.8584
23805SOL    HW275973   9.009   5.394   7.822  0.3044  0.4772  0.3480
23806SOL     OW75974   4.906   5.413   7.708 -0.2818 -0.3795  0.2652
23806SOL    HW175975   4.907   5.319   7.725 -0.9997 -0.9260 -2.2938
23806SOL    HW275976   4.838   5.425   7.641  0.1550  1.8788  0.1462
23807SOL     OW75977  12.007  10.213   1.030  0.2119  0.4805 -0.5588
23807SOL    HW175978  12.052  10.285   1.075  0.0255 -0.7715  1.8163
23807SOL    HW275979  12.064  10.138   1.044 -1.1343 -0.4998 -0.1312
23808SOL     OW75980  10.549   5.552  10.464 -0.2145 -0.2847 -0.1456
23808SOL    HW175981  10.506   5.543  10.379 -0.1138  0.8264 -0.3243
23808SOL    HW275982  10.499   5.620  10.509  0.5700  0.1014  0.1535
23809SOL     OW75983   7.536   9.641  10.468 -0.3034  0.9187  0.4206
23809SOL    HW175984   7.604   9.620  10.531 -1.5812 -0.5413  1.3859
23809SOL    HW275985   7.456   9.605  10.506 -1.3434  1.1680 -1.4144
23810SOL     OW75986   6.701   5.842  12.005  1.0701  0.3370  0.4023
23810SOL    HW175987   6.669   5.842  12.095  2.3038  0.9133  0.8653
23810SOL    HW275988   6.730   5.753  11.989  0.1480  0.0388  0.2868
23811SOL     OW75989   4.883   1.943   1.781 -0.6181  0.2100 -0.1669
23811SOL    HW175990   4.950   2.002   1.746 -0.0953  0.6999  1.5461
23811SOL    HW275991   4.930   1.891   1.847 -1.2776 -1.5080 -0.9854
23812SOL     OW75992   9.530  11.865   7.540 -0.5013 -0.5190  0.1934
23812SOL    HW175993   9.462  11.841   7.603 -0.1969 -0.6211  0.4853
23812SOL    HW275994   9.513  11.958   7.522 -1.0427 -0.6740 -0.1478
23813SOL     OW75995   2.743   0.709  10.732  0.2233 -0.2538  0.1704
23813SOL    HW175996   2.799   0.762  10.674 -0.3487  1.0783  0.8045
23813SOL    HW275997   2.667   0.765  10.750 -1.2376 -1.9281 -0.4786
23814SOL     OW75998  10.813   6.685   0.059 -0.1520 -0.7627 -1.0539
23814SOL    HW175999  10.856   6.634  -0.010  0.4232  0.9528 -2.0408
23814SOL    HW276000  10.866   6.671   0.137  0.9679 -0.3900 -1.7238
23815SOL     OW76001   1.713   2.577   4.795 -0.4654 -0.3022 -0.2558
23815SOL    HW176002   1.700   2.546   4.885 -1.7990  0.2865 -0.2081
23815SOL    HW276003   1.636   2.544   4.747 -0.3394  0.3141 -0.9082
23816SOL     OW76004   0.376   6.703   1.725 -0.1475 -0.3169 -0.0059
23816SOL    HW176005   0.444   6.688   1.660 -0.3049 -1.5870  0.0925
23816SOL    HW276006   0.393   6.639   1.793 -0.9762 -0.1276  0.3967
23817SOL     OW76007  11.627   3.233   8.570  0.1211 -0.2439  0.5942
23817SOL    HW176008  11.664   3.211   8.655  0.8314  1.3931  0.7556
23817SOL    HW276009  11.699   3.274   8.522 -0.7950  0.6634 -0.0528
23818SOL     OW76010   1.755   8.931   6.801 -0.6788 -0.5644  0.1145
23818SOL    HW176011   1.772   9.003   6.861  0.1912 -0.7793  0.1336
23818SOL    HW276012   1.803   8.955   6.721 -1.7587 -0.3163 -0.4763
23819SOL     OW76013   8.005   3.460   2.005 -0.0122 -1.0396 -0.2410
23819SOL    HW176014   7.940   3.479   2.073 -0.4205 -0.5760 -0.7484
23819SOL    HW276015   7.966   3.495   1.925  1.0569 -0.3674 -0.4803
23820SOL     OW76016   8.522   0.513  11.652  0.8464  0.1958 -0.1739
23820SOL    HW176017   8.479   0.542  11.733  1.4122  0.7833 -0.0720
23820SOL    HW276018   8.461   0.449  11.614  0.1978  0.5153  0.3014
23821SOL     OW76019   9.441  10.927  10.292  0.1518  0.1285  0.1096
23821SOL    HW176020   9.473  10.896  10.207  1.0676  1.3709 -0.0319
23821SOL    HW276021   9.473  10.862  10.355  2.2840  0.8528 -0.1372
23822SOL     OW76022   8.303   9.405  11.284  0.3193  0.0698 -0.2797
23822SOL    HW176023   8.330   9.466  11.352 -0.7830 -1.1437  1.3123
23822SOL    HW276024   8.208   9.412  11.282  0.2986 -0.3048 -1.3533
23823SOL     OW76025   0.820   9.909   7.693 -0.5677  0.1181  0.1519
23823SOL    HW176026   0.866   9.992   7.679 -0.8005  0.4267  1.1825
23823SOL    HW276027   0.887   9.850   7.728 -0.2871 -0.2858 -1.0193
23824SOL     OW76028  10.940   9.790   0.863 -0.0426 -0.3433  0.4703
23824SOL    HW176029  10.883   9.827   0.930 -1.9641  0.5399 -1.5191
23824SOL    HW276030  11.029   9.806   0.895 -0.7566 -2.4019  4.0624
23825SOL     OW76031   8.432   2.986   1.846 -0.3569  0.8063 -0.6751
23825SOL    HW176032   8.445   2.913   1.907  1.2889  0.9240 -0.8564
23825SOL    HW276033   8.340   3.010   1.857 -0.1096  0.8536  1.8131
23826SOL     OW76034   3.887   9.466   5.978 -0.0632  0.0131 -0.7328
23826SOL    HW176035   3.946   9.422   6.039  0.7865  0.6891 -1.0366
23826SOL    HW276036   3.830   9.397   5.945  2.7724 -1.4179 -3.0360
23827SOL     OW76037   8.190   7.666   7.154  0.2861 -0.7497 -0.2444
23827SOL    HW176038   8.279   7.632   7.146  1.3665  2.0201 -1.0385
23827SOL    HW276039   8.195   7.728   7.227 -1.0246 -0.5888 -0.2677
23828SOL     OW76040   0.196   5.950   7.816 -0.1803  0.3271  0.1345
23828SOL    HW176041   0.104   5.926   7.807  0.1699 -1.0142 -0.1186
23828SOL    HW276042   0.222   5.981   7.730 -0.5894  1.5245  0.4175
23829SOL     OW76043   8.123   2.917   9.066 -0.1783  0.0206  0.3989
23829SOL    HW176044   8.028   2.931   9.074 -0.2080  1.3195 -1.5786
23829SOL    HW276045   8.161   2.997   9.102  0.3999 -1.6705  3.9963
23830SOL     OW76046   3.333   9.889   7.474  0.2670  0.8797 -0.4555
23830SOL    HW176047   3.328   9.893   7.378  0.0984  0.1503 -0.4841
23830SOL    HW276048   3.251   9.927   7.504  0.0315  0.4996 -0.6185
23831SOL     OW76049   5.211   7.946   1.112  0.1947 -0.1366  0.0046
23831SOL    HW176050   5.140   7.893   1.075  0.1087  0.3856 -0.5977
23831SOL    HW276051   5.176   8.035   1.114  0.5251 -0.0150  0.5129
23832SOL     OW76052   2.877   3.482   6.029 -0.0117 -0.5532 -0.1245
23832SOL    HW176053   2.822   3.495   6.106 -1.1535 -0.9086 -0.8547
23832SOL    HW276054   2.866   3.390   6.006 -0.3051 -0.2848 -1.1511
23833SOL     OW76055   0.390   3.662   1.572  0.3366  0.0666 -0.0226
23833SOL    HW176056   0.327   3.734   1.571  0.0708 -0.1606  0.0961
23833SOL    HW276057   0.424   3.658   1.483  0.9412  0.8471  0.1613
23834SOL     OW76058   7.370   7.433   1.313  0.5979 -0.1922 -0.5425
23834SOL    HW176059   7.402   7.344   1.330  0.0097 -0.3008  0.0439
23834SOL    HW276060   7.447   7.481   1.283  1.5541 -0.2072  1.6755
23835SOL     OW76061  10.541   1.106  10.762  0.0142  0.2804 -0.0466
23835SOL    HW176062  10.628   1.140  10.779  1.8916 -3.1779 -1.6023
23835SOL    HW276063  10.512   1.152  10.683  0.7732  0.9040  0.0245
23836SOL     OW76064   5.978   0.005   8.939  0.4177  0.5094  0.5855
23836SOL    HW176065   5.993  -0.083   8.976 -0.0896  1.0501  2.1771
23836SOL    HW276066   5.894   0.031   8.975 -0.9973  0.4305 -2.3838
23837SOL     OW76067   3.738   1.559  10.534 -0.0168  0.0622 -0.2179
23837SOL    HW176068   3.783   1.576  10.617  0.0933 -0.4248 -0.1725
23837SOL    HW276069   3.744   1.464  10.523  0.2595  0.1576 -0.9462
23838SOL     OW76070   0.756   7.152   8.931  0.5837  0.2715  0.5092
23838SOL    HW176071   0.755   7.083   8.997 -2.0507  0.0953  0.3975
23838SOL    HW276072   0.743   7.233   8.980  2.1245  0.5545  0.4915
23839SOL     OW76073  10.870   5.026  10.469  0.4068  0.1371  0.1774
23839SOL    HW176074  10.846   4.967  10.397  0.4175 -0.3156  0.5441
23839SOL    HW276075  10.962   5.006  10.487  0.6540  0.8406 -0.2384
23840SOL     OW76076   1.706  11.993  12.115 -0.1341 -0.0891 -0.1953
23840SOL    HW176077   1.645  11.971  12.044  0.5090 -1.2885 -0.4005
23840SOL    HW276078   1.768  12.053  12.075 -1.8636  2.1645  0.3453
23841SOL     OW76079   3.157  10.132   2.603 -0.1037 -0.0746  0.2200
23841SOL    HW176080   3.063  10.111   2.609 -0.0436 -0.1975  0.7344
23841SOL    HW276081   3.192  10.067   2.542 -0.4497  0.3008 -0.3923
23842SOL     OW76082   3.755   8.538   8.975 -0.1470  0.1171 -0.1575
23842SOL    HW176083   3.762   8.618   9.028  0.4025 -0.0210 -0.0084
23842SOL    HW276084   3.803   8.559   8.894 -0.4129  0.1023 -0.3186
23843SOL     OW76085  10.079   0.592   8.221 -0.4008 -0.1259 -0.0427
23843SOL    HW176086   9.998   0.550   8.194 -0.6720 -0.9389  1.8457
23843SOL    HW276087  10.053   0.680   8.248 -0.1609  0.6123 -2.0538
23844SOL     OW76088   1.564   9.004  11.849  0.1003 -0.1880  0.4737
23844SOL    HW176089   1.521   8.943  11.909 -0.8378  0.0873  0.1025
23844SOL    HW276090   1.499   9.021  11.781  0.5112  0.8595  0.3192
23845SOL     OW76091  11.722   8.670   2.886  0.1639 -0.2855 -0.1469
23845SOL    HW176092  11.688   8.601   2.943  2.6365 -2.0694 -0.6679
23845SOL    HW276093  11.715   8.750   2.939 -0.5955 -1.3148  1.3959
23846SOL     OW76094   0.055   2.072   0.481  0.2421  0.2029  0.3848
23846SOL    HW176095   0.092   2.146   0.432 -0.2703  0.6297  0.6385
23846SOL    HW276096  -0.032   2.101   0.508  0.2757 -0.2602  1.0239
23847SOL     OW76097   8.603   7.870   1.429  0.0026  0.1855 -0.1446
23847SOL    HW176098   8.639   7.842   1.513 -1.9819 -1.5014  0.2517
23847SOL    HW276099   8.512   7.841   1.432 -0.5311  1.4058 -2.3091
23848SOL     OW76100   0.218  11.828   3.458  0.0891 -0.0919  0.4649
23848SOL    HW176101   0.204  11.735   3.474 -0.7757 -0.2618 -1.0989
23848SOL    HW276102   0.134  11.860   3.425  0.3143  1.2995  1.1467
23849SOL     OW76103   7.670   2.365   4.248 -0.4034  0.4527 -0.4609
23849SOL    HW176104   7.575   2.377   4.239 -0.5637 -0.6559 -0.3506
23849SOL    HW276105   7.693   2.303   4.179 -0.0798 -0.7325  0.6673
23850SOL     OW76106  11.220   4.408   9.535  0.5254 -0.0099  0.0926
23850SOL    HW176107  11.140   4.401   9.483  0.1162  1.7797  0.4171
23850SOL    HW276108  11.243   4.317   9.556 -1.8971 -0.5394  0.7130
23851SOL     OW76109   7.786  12.061  11.891 -0.1598 -0.0772 -0.3470
23851SOL    HW176110   7.869  12.046  11.938  0.2278  0.9302 -0.6899
23851SOL    HW276111   7.753  12.144  11.926 -1.9824 -1.3242  1.1097
23852SOL     OW76112   7.781   0.585  11.891  0.0788 -0.3567 -0.0782
23852SOL    HW176113   7.849   0.533  11.935  0.9906  1.1248  0.3273
23852SOL    HW276114   7.701   0.562  11.938  0.3539 -1.7714 -0.2495
23853SOL     OW76115  10.716   9.577   9.018 -0.1082 -0.1751  0.6637
23853SOL    HW176116  10.780   9.608   8.953 -0.8183 -0.7328 -0.3318
23853SOL    HW276117  10.691   9.490   8.987 -1.1260 -0.0851  1.2028
23854SOL     OW76118   6.734   0.293   6.847 -0.2285 -0.2634  0.1690
23854SOL    HW176119   6.728   0.344   6.766 -1.2675  0.6981  0.8192
23854SOL    HW276120   6.810   0.328   6.893 -0.5111  0.2164  0.2767
23855SOL     OW76121   2.574   0.052   0.558  0.0306  0.2367  0.0125
23855SOL    HW176122   2.633   0.126   0.542  1.6924 -0.8657  0.8192
23855SOL    HW276123   2.523   0.079   0.634  0.7536  0.5055  0.4136
23856SOL     OW76124   6.513   9.589  11.713  0.1162 -0.3323  0.1791
23856SOL    HW176125   6.485   9.658  11.773  0.7238  0.0269  0.0464
23856SOL    HW276126   6.562   9.634  11.644  0.8163 -0.9266  0.2772
23857SOL     OW76127   9.597   2.738  10.314  0.3844  0.0368 -0.4787
23857SOL    HW176128   9.527   2.742  10.249 -0.8521 -0.9226  0.7411
23857SOL    HW276129   9.676   2.762  10.265 -0.4857 -0.6384 -2.3182
23858SOL     OW76130  10.146  10.725  11.347  0.4284 -0.0615  0.0440
23858SOL    HW176131  10.148  10.715  11.442  2.4991  2.5498  0.3944
23858SOL    HW276132  10.055  10.747  11.327  0.2097  0.5375  1.5771
23859SOL     OW76133   2.119   7.920   2.121 -0.3158  0.8609  0.4034
23859SOL    HW176134   2.139   7.998   2.070  0.4432  1.7191  1.9493
23859SOL    HW276135   2.168   7.931   2.202  0.3708 -1.5555  0.3945
23860SOL     OW76136   6.795   3.671   3.547  0.3754  0.5415 -0.4481
23860SOL    HW176137   6.810   3.581   3.517  0.5701  0.1497  0.7753
23860SOL    HW276138   6.831   3.726   3.477  1.9228 -0.3533 -0.3861
23861SOL     OW76139   8.062   2.568   0.131  0.0394 -0.9700  0.0695
23861SOL    HW176140   8.075   2.662   0.118  1.5462 -1.3205 -1.2019
23861SOL    HW276141   7.974   2.551   0.097  0.1193 -0.1685 -0.5645
23862SOL     OW76142   7.031   8.643   0.306  0.0115 -0.7620  0.4275
23862SOL    HW176143   6.999   8.561   0.267 -1.9087  0.4621 -0.7371
23862SOL    HW276144   6.952   8.690   0.330  0.9536  1.6356 -0.8120
23863SOL     OW76145   4.458  11.298   9.878 -0.5607 -0.1580 -0.5498
23863SOL    HW176146   4.372  11.339   9.866 -1.7659 -2.1477  0.7984
23863SOL    HW276147   4.508  11.362   9.930 -2.1749 -0.0949  0.9993
23864SOL     OW76148   4.455   1.104   0.876 -0.1835 -0.2930 -0.1566
23864SOL    HW176149   4.478   1.065   0.960 -1.1424  1.6468  1.0660
23864SOL    HW276150   4.367   1.072   0.858 -0.4983  0.3088  0.2594
23865SOL     OW76151   9.512   7.671  11.675  0.0759 -0.1833  0.2344
23865SOL    HW176152   9.451   7.609  11.716  0.9551 -1.1777  0.0771
23865SOL    HW276153   9.585   7.617  11.646  0.5761  0.8503 -0.4897
23866SOL     OW76154   9.835   1.846   6.183 -1.0253  0.3622  0.6960
23866SOL    HW176155   9.883   1.777   6.230 -0.0539 -0.2336 -1.0687
23866SOL    HW276156   9.894   1.921   6.182 -1.6377  0.8736  1.6584
23867SOL     OW76157   0.175   9.617   8.868  0.0235  0.3918  0.0769
23867SOL    HW176158   0.083   9.596   8.884  0.4075 -1.1013  0.4443
23867SOL    HW276159   0.177   9.648   8.777 -0.5939 -1.2762 -0.5447
23868SOL     OW76160  10.485   9.158   8.787  0.5451  0.4672 -0.3860
23868SOL    HW176161  10.510   9.081   8.735  1.1073 -0.0594  0.6397
23868SOL    HW276162  10.435   9.212   8.726  1.2718 -0.0809 -1.5140
23869SOL     OW76163   3.500  11.315   0.565  0.2925  0.0545 -0.1231
23869SOL    HW176164   3.414  11.294   0.602 -0.3672  1.6139 -0.7078
23869SOL    HW276165   3.549  11.354   0.638  0.5863 -0.9573  0.2459
23870SOL     OW76166   9.815   0.725  12.008  0.2433 -0.3004 -0.2131
23870SOL    HW176167   9.838   0.711  12.100 -0.1877  1.4986  0.2072
23870SOL    HW276168   9.722   0.703  12.003 -1.0568  3.9131  0.9637
23871SOL     OW76169   3.052   3.610   2.468 -0.4042  0.2381  0.3317
23871SOL    HW176170   3.110   3.656   2.407 -0.3248 -1.2670 -0.8001
23871SOL    HW276171   2.993   3.678   2.500  1.6319  1.7306  1.1660
23872SOL     OW76172   0.153  11.591   7.582 -0.3166  0.6026 -0.0410
23872SOL    HW176173   0.245  11.616   7.574 -0.6955  2.3411  0.6395
23872SOL    HW276174   0.153  11.496   7.575  1.7027  0.4538  1.3032
23873SOL     OW76175  11.991   3.627  10.210 -0.0914 -0.1006  0.1810
23873SOL    HW176176  11.980   3.532  10.216  2.6742 -0.4766  0.9201
23873SOL    HW276177  11.932   3.663  10.276  1.4743 -1.6250  2.5758
23874SOL     OW76178   6.273   1.832   3.481 -0.5148 -0.0294  0.0276
23874SOL    HW176179   6.317   1.899   3.428 -0.0135 -0.9705 -0.7644
23874SOL    HW276180   6.206   1.796   3.422 -1.2683  0.2494  0.6887
23875SOL     OW76181   9.202   5.521  11.152  0.1045  0.6154  0.2283
23875SOL    HW176182   9.197   5.570  11.070  0.6948 -0.0090 -0.1821
23875SOL    HW276183   9.233   5.585  11.216  1.0682  0.7329 -0.3480
23876SOL     OW76184   2.306   0.621  12.102 -0.3310  0.2190 -0.6047
23876SOL    HW176185   2.287   0.628  12.195 -0.1835 -0.1633 -0.5441
23876SOL    HW276186   2.220   0.625  12.059 -0.4294  0.0192 -0.4282
23877SOL     OW76187  11.272   9.804   4.311 -0.1218  0.6206 -0.0053
23877SOL    HW176188  11.365   9.797   4.331  0.2413 -0.2075 -1.7638
23877SOL    HW276189  11.228   9.764   4.386  1.0422 -0.5425  0.0946
23878SOL     OW76190   4.830   9.397  11.359  0.2083 -0.3427 -0.4504
23878SOL    HW176191   4.750   9.427  11.402 -0.1830 -0.6468 -0.9614
23878SOL    HW276192   4.800   9.344  11.285  0.8764 -0.2166 -0.8229
23879SOL     OW76193  11.597   3.409   5.084  0.5351  0.0353 -0.3077
23879SOL    HW176194  11.688   3.439   5.080  0.9066 -0.7138  1.6987
23879SOL    HW276195  11.603   3.314   5.072 -0.0361  0.0191 -0.5092
23880SOL     OW76196   5.356   7.618   7.775  0.0798 -0.6941  0.1474
23880SOL    HW176197   5.415   7.662   7.714 -1.4683 -0.7969 -1.4921
23880SOL    HW276198   5.360   7.526   7.750  0.5692 -0.9906  1.2342
23881SOL     OW76199   7.279   9.177  11.548  0.0112 -0.2836  0.4520
23881SOL    HW176200   7.325   9.093  11.558 -3.0976 -2.1072  0.5153
23881SOL    HW276201   7.327   9.222  11.479  2.2735 -1.7187  0.9608
23882SOL     OW76202   7.145  11.378   4.970 -0.4240 -0.3235 -0.7892
23882SOL    HW176203   7.210  11.418   4.912 -0.5812 -0.0414 -0.7743
23882SOL    HW276204   7.063  11.383   4.921 -1.3395  3.2162  0.7913
23883SOL     OW76205   0.326   7.051   6.761 -0.0075  0.0724  0.3439
23883SOL    HW176206   0.400   7.019   6.708  0.2122 -1.6182  1.5578
23883SOL    HW276207   0.368   7.090   6.838 -0.3002 -2.0829  1.6886
23884SOL     OW76208   3.374  11.477   8.067 -0.3920  0.2229 -0.0684
23884SOL    HW176209   3.401  11.458   7.977  1.4751  1.2080  0.2277
23884SOL    HW276210   3.375  11.391   8.110 -1.1580 -0.2360 -0.9269
23885SOL     OW76211  11.195   6.766  12.034  0.1382  0.2603  0.1135
23885SOL    HW176212  11.196   6.743  12.127 -0.9596 -3.0939 -0.5815
23885SOL    HW276213  11.285   6.751  12.005  0.1933  0.1029  0.3667
23886SOL     OW76214   5.769   2.808  11.914 -0.2178  0.3197  0.3248
23886SOL    HW176215   5.686   2.855  11.925  0.5672  1.4887  1.4327
23886SOL    HW276216   5.771   2.746  11.987 -0.7842 -0.7880 -0.5638
23887SOL     OW76217   7.456   1.493   9.241 -0.2104  0.0297 -0.4191
23887SOL    HW176218   7.513   1.418   9.223 -1.1329 -0.5041 -1.2287
23887SOL    HW276219   7.514   1.559   9.278  0.7857 -0.7686 -0.5123
23888SOL     OW76220   1.163   3.262   2.634  0.0205 -0.1513  0.7010
23888SOL    HW176221   1.100   3.325   2.601  1.9548  0.8795 -1.3239
23888SOL    HW276222   1.210   3.308   2.704  0.6543  0.2540  0.0158
23889SOL     OW76223   5.999   4.117   9.312  0.7466  0.9787 -0.2195
23889SOL    HW176224   6.009   4.211   9.299  0.9720  0.8234 -1.2262
23889SOL    HW276225   5.938   4.090   9.244 -1.1003  0.7398  1.4485
23890SOL     OW76226   3.945   0.486   7.942  0.4882  0.3970  0.1389
23890SOL    HW176227   4.004   0.480   8.018 -0.2251  2.0507  0.8579
23890SOL    HW276228   3.887   0.411   7.952  1.1884 -0.1094  0.5313
23891SOL     OW76229   9.855   5.382   8.056 -0.0311  0.3195 -0.2241
23891SOL    HW176230   9.863   5.478   8.050 -0.7659  0.4765  0.9155
23891SOL    HW276231   9.854   5.353   7.965 -2.7647  1.6898 -0.7450
23892SOL     OW76232   4.200   1.328   2.247  0.0492 -0.2156  0.0688
23892SOL    HW176233   4.236   1.348   2.161  0.6686  0.1325  0.3953
23892SOL    HW276234   4.162   1.241   2.239  3.4801 -1.9134  0.4218
23893SOL     OW76235   0.188   8.851   6.113 -0.0809 -0.2201  0.3482
23893SOL    HW176236   0.153   8.937   6.138 -0.1024  0.3002 -1.3533
23893SOL    HW276237   0.245   8.868   6.039 -0.0729 -1.6801 -0.0230
23894SOL     OW76238   6.754   4.199   3.048  0.1610  0.1721 -0.4185
23894SOL    HW176239   6.729   4.107   3.046  0.3603  0.0936  0.3228
23894SOL    HW276240   6.848   4.199   3.028  0.0748  0.2538 -0.8306
23895SOL     OW76241   1.638   1.938   5.497  0.3238 -0.5683  0.1096
23895SOL    HW176242   1.712   1.993   5.521 -1.5633  2.0273  0.5048
23895SOL    HW276243   1.583   1.935   5.575 -1.7925  0.8471 -1.2097
23896SOL     OW76244   6.568  10.163   9.904 -0.6085  0.7256  0.3044
23896SOL    HW176245   6.593  10.097   9.968 -1.0366 -0.1443 -0.4115
23896SOL    HW276246   6.627  10.148   9.830  0.8463  2.6176  0.9813
23897SOL     OW76247   0.801   6.320   5.189 -0.0443 -0.2501 -0.1924
23897SOL    HW176248   0.836   6.280   5.109  1.3217  1.3898 -0.4598
23897SOL    HW276249   0.708   6.296   5.188  0.3707 -1.9917 -1.1738
23898SOL     OW76250   1.361   0.851   0.020  0.4140  0.3764 -0.3099
23898SOL    HW176251   1.358   0.825  -0.073 -1.7102 -1.9956  0.3040
23898SOL    HW276252   1.355   0.768   0.068 -2.0642  1.6946  1.9071
23899SOL     OW76253   1.488   9.058   1.731  0.2562 -0.2704 -0.6210
23899SOL    HW176254   1.437   9.139   1.734 -0.6642 -0.7162 -2.6154
23899SOL    HW276255   1.574   9.083   1.765  0.1329  1.6652 -1.5647
23900SOL     OW76256  11.772   2.511   1.531  0.6125 -0.0025  0.4265
23900SOL    HW176257  11.847   2.457   1.508  1.0589  0.8190 -0.0736
23900SOL    HW276258  11.697   2.464   1.495  0.9232 -0.6049  0.5501
23901SOL     OW76259   8.492  10.175   2.565  0.1657 -0.3664 -0.3786
23901SOL    HW176260   8.439  10.195   2.642  1.2180 -0.5299  0.4015
23901SOL    HW276261   8.502  10.259   2.520  0.5998 -0.0276  0.3423
23902SOL     OW76262   7.834   9.746   3.821  0.6441  0.0306  0.2285
23902SOL    HW176263   7.756   9.696   3.795  0.2300  1.1497 -0.7785
23902SOL    HW276264   7.899   9.724   3.755 -0.2024  2.3737 -1.5284
23903SOL     OW76265   4.239   0.443   4.206  0.7631  0.0019 -0.8385
23903SOL    HW176266   4.317   0.470   4.158  1.1260  2.6602  1.0261
23903SOL    HW276267   4.264   0.363   4.251  2.0100  0.1547 -1.2279
23904SOL     OW76268   5.670   2.278   6.101  0.2363  0.5228 -0.2378
23904SOL    HW176269   5.664   2.301   6.009 -1.0572  2.3727  0.2438
23904SOL    HW276270   5.749   2.322   6.132 -0.5066  1.7601 -0.0253
23905SOL     OW76271   0.594   4.631  10.607 -0.1567  0.0019 -0.0179
23905SOL    HW176272   0.671   4.577  10.588 -0.2414 -0.3681  0.6735
23905SOL    HW276273   0.603   4.706  10.547 -1.4974 -2.0791 -3.0838
23906SOL     OW76274  11.493   1.153   3.013 -0.0511  0.2470  0.2178
23906SOL    HW176275  11.452   1.178   3.097 -0.1633  1.0318 -0.0643
23906SOL    HW276276  11.430   1.182   2.947  0.8602  1.2832 -0.2170
23907SOL     OW76277   7.782   1.591   2.953  0.3810 -0.0228 -0.1671
23907SOL    HW176278   7.819   1.606   2.866  2.1104 -1.1033  0.3214
23907SOL    HW276279   7.838   1.523   2.991 -1.5379 -1.0088  1.0571
23908SOL     OW76280   2.349   3.249  12.004 -0.2218 -0.0261  0.2397
23908SOL    HW176281   2.427   3.278  12.052 -0.7527  2.1447 -0.0666
23908SOL    HW276282   2.277   3.269  12.064 -0.5910 -1.6094  0.3483
23909SOL     OW76283   8.444   3.006   1.488  1.0744 -0.0992 -0.3945
23909SOL    HW176284   8.364   3.055   1.507  1.8674  0.1979  2.9091
23909SOL    HW276285   8.414   2.921   1.457 -0.4344  0.6248 -0.9970
23910SOL     OW76286   9.954  10.672  10.450 -0.1049 -0.1354  0.0753
23910SOL    HW176287   9.940  10.764  10.472  0.4294 -0.2315  0.8692
23910SOL    HW276288  10.045  10.669  10.419  1.0829 -0.8950  3.2151
23911SOL     OW76289   6.528  11.134   1.215  0.3062  0.4071  0.0317
23911SOL    HW176290   6.454  11.112   1.273 -0.3705  0.5117 -0.7703
23911SOL    HW276291   6.588  11.182   1.270  0.8345 -1.5924  1.3045
23912SOL     OW76292   2.203   2.696  11.531 -0.2594  0.3988  0.4252
23912SOL    HW176293   2.272   2.710  11.596  1.5619  2.2564 -1.7548
23912SOL    HW276294   2.176   2.783  11.505 -1.2623 -0.2920 -0.9815
23913SOL     OW76295  10.945   0.620   3.490  0.0588 -0.0705 -0.3000
23913SOL    HW176296  10.909   0.698   3.532  0.3751 -0.3007  0.4177
23913SOL    HW276297  11.034   0.644   3.466 -0.2324  0.1713 -1.1608
23914SOL     OW76298   9.222   5.286   1.032 -0.0443 -0.5532 -0.2007
23914SOL    HW176299   9.147   5.231   1.054  0.7760 -1.3188  0.7590
23914SOL    HW276300   9.212   5.363   1.087  1.1841 -1.7853  1.8875
23915SOL     OW76301   4.777  10.902   9.298 -0.0481  0.1220 -0.2950
23915SOL    HW176302   4.689  10.895   9.337  0.1590 -0.1258  0.1426
23915SOL    HW276303   4.781  10.829   9.236  0.2163 -0.5148  0.4472
23916SOL     OW76304   6.352   5.344   2.721  0.0731 -0.0876 -0.3575
23916SOL    HW176305   6.444   5.319   2.710 -0.3342 -1.0150 -1.9716
23916SOL    HW276306   6.304   5.261   2.720 -0.8513  0.4305 -0.4012
23917SOL     OW76307   1.621  10.786  11.485 -0.3205  0.2399 -0.1477
23917SOL    HW176308   1.560  10.852  11.517  1.0877  1.5686 -0.0617
23917SOL    HW276309   1.631  10.726  11.559 -1.7838 -0.2306 -0.3011
23918SOL     OW76310   6.957   3.873   3.999 -0.1363 -0.6309 -0.0551
23918SOL    HW176311   7.030   3.933   4.014 -1.0771  1.3941 -2.8504
23918SOL    HW276312   6.992   3.807   3.940 -0.2887 -0.1651 -0.6797
23919SOL     OW76313   0.285   7.024   8.509  0.0498  0.3391  0.0503
23919SOL    HW176314   0.378   7.011   8.488  0.4276  0.9425  1.2658
23919SOL    HW276315   0.258   7.096   8.452  0.5092  0.6105  0.1671
23920SOL     OW76316   9.955   4.610   6.985 -0.4822  0.1570 -0.2899
23920SOL    HW176317   9.860   4.618   6.979 -0.6441  0.3570  1.8807
23920SOL    HW276318   9.988   4.696   6.959 -1.0299  0.7679  0.9600
23921SOL     OW76319   2.469  10.689   8.516  0.0998  0.0516  0.3890
23921SOL    HW176320   2.396  10.691   8.578 -1.2837  1.5514 -1.2115
23921SOL    HW276321   2.474  10.778   8.482  2.6532 -0.0218  0.3720
23922SOL     OW76322   0.247   7.808   4.569 -1.2042 -0.0214 -0.6142
23922SOL    HW176323   0.297   7.868   4.625 -1.0298  1.2613 -2.0891
23922SOL    HW276324   0.166   7.792   4.618 -0.9488  0.8607  0.1316
23923SOL     OW76325   8.189   1.907   6.711 -0.2910  0.1542 -0.0529
23923SOL    HW176326   8.229   1.987   6.747  0.3528  0.2103 -0.8717
23923SOL    HW276327   8.237   1.890   6.631 -1.1540 -0.4485 -0.4590
23924SOL     OW76328   0.028  11.885   7.903  0.3453  0.1451 -0.0148
23924SOL    HW176329  -0.066  11.902   7.900  0.2865 -0.2980 -1.3869
23924SOL    HW276330   0.037  11.793   7.877  0.9894 -0.6552  2.7569
23925SOL     OW76331   9.665   1.419   6.485 -0.0963  0.6310  0.7405
23925SOL    HW176332   9.625   1.497   6.524 -0.5620  1.9614 -2.0834
23925SOL    HW276333   9.608   1.399   6.410  1.1818 -1.1915  0.2049
23926SOL     OW76334  11.761   4.673   0.788  0.4085  0.1169  0.1118
23926SOL    HW176335  11.839   4.717   0.821  1.3711 -2.1715  1.1187
23926SOL    HW276336  11.689   4.712   0.837  0.7695  2.5947 -1.1616
23927SOL     OW76337   1.899   1.464   2.941  0.8859 -0.3623 -0.3935
23927SOL    HW176338   1.983   1.501   2.914  1.8203 -1.1160  1.3258
23927SOL    HW276339   1.914   1.369   2.943  0.2917 -0.4526  0.8164
23928SOL     OW76340  12.083   2.663  10.767  0.2513 -0.4403 -0.2515
23928SOL    HW176341  12.125   2.646  10.683 -0.0905 -1.5955 -0.2051
23928SOL    HW276342  12.151   2.649  10.833  0.2403 -0.6035 -0.2756
23929SOL     OW76343   9.425  11.294   1.420  0.0013  0.0019 -0.2862
23929SOL    HW176344   9.520  11.300   1.413 -0.0073  0.9942  0.1567
23929SOL    HW276345   9.398  11.239   1.347  1.0232 -1.4713  0.3933
23930SOL     OW76346   4.167  11.622  11.815  1.1249  0.2206 -0.2767
23930SOL    HW176347   4.139  11.647  11.903 -1.5415 -0.2420 -0.8975
23930SOL    HW276348   4.240  11.681  11.795  2.3152 -0.1599  2.4643
23931SOL     OW76349   2.364   0.151   7.343  0.7816 -0.3118 -0.1238
23931SOL    HW176350   2.380   0.094   7.418  1.5114  0.5137  0.3514
23931SOL    HW276351   2.347   0.237   7.380  1.3878  0.1609 -0.9117
23932SOL     OW76352   9.000  11.108   3.615  0.3357 -0.3127 -0.0096
23932SOL    HW176353   9.064  11.136   3.549  0.4088  0.7256  0.4733
23932SOL    HW276354   8.932  11.176   3.612 -0.1490 -0.7768  0.3079
23933SOL     OW76355   7.727   0.209  10.400 -0.3468  0.0962  0.2076
23933SOL    HW176356   7.693   0.126  10.367 -1.4826  0.6038  0.0534
23933SOL    HW276357   7.818   0.212  10.369 -0.4006 -0.9232 -0.0733
23934SOL     OW76358   9.428  10.520   5.116  0.0851  0.0071 -0.1894
23934SOL    HW176359   9.373  10.467   5.174 -1.4497  0.4619 -1.1468
23934SOL    HW276360   9.419  10.609   5.148 -0.6076  0.2315 -0.9600
23935SOL     OW76361   8.920   7.479   9.881  0.1091 -0.2634  0.0650
23935SOL    HW176362   8.847   7.536   9.859  2.0623  2.1198 -0.7486
23935SOL    HW276363   8.886   7.390   9.870 -2.5607  0.7440 -0.4339
23936SOL     OW76364   6.421  10.983  11.756 -0.1807  0.3537  0.0229
23936SOL    HW176365   6.488  11.042  11.790  0.7247 -0.0882 -0.9246
23936SOL    HW276366   6.442  10.974  11.663 -1.3111 -0.1340 -0.2042
23937SOL     OW76367  10.167   0.621   8.720 -0.4052 -0.7891 -0.4767
23937SOL    HW176368  10.237   0.611   8.656  2.0196  0.7553  1.7226
23937SOL    HW276369  10.179   0.548   8.781  0.9778  0.8267  1.2904
23938SOL     OW76370   1.632  10.593  12.012 -0.1272  0.2761  0.0188
23938SOL    HW176371   1.687  10.527  12.055  0.9919  0.9011 -0.4483
23938SOL    HW276372   1.672  10.677  12.034  0.1332  0.6494 -1.7405
23939SOL     OW76373   4.067   0.997   6.591 -0.4734 -0.2026 -0.0002
23939SOL    HW176374   4.046   0.998   6.684 -1.9875  0.5898 -0.3173
23939SOL    HW276375   4.128   1.070   6.579 -1.5036  0.7117  0.1343
23940SOL     OW76376   4.344   4.152   7.548 -0.3357 -0.2146  0.6208
23940SOL    HW176377   4.304   4.239   7.547 -0.9886 -0.5085  0.1277
23940SOL    HW276378   4.291   4.101   7.486  1.1086 -0.5099 -0.4019
23941SOL     OW76379   7.177   4.973   6.884  0.1220  0.2915  0.1102
23941SOL    HW176380   7.224   5.007   6.808  0.3013  1.2389  0.6369
23941SOL    HW276381   7.144   4.888   6.855  0.3126  0.5736 -0.9775
23942SOL     OW76382   4.541  10.516  10.667 -0.2356  0.2435  0.5788
23942SOL    HW176383   4.547  10.476  10.581  0.7820  0.0511  0.7272
23942SOL    HW276384   4.459  10.481  10.704 -1.0797  0.9252 -0.5854
23943SOL     OW76385   4.181  11.509   8.619  0.4334 -0.2158  1.0875
23943SOL    HW176386   4.180  11.597   8.583  3.3348 -0.7382 -0.5047
23943SOL    HW276387   4.166  11.521   8.713  0.4727  1.9072  0.8531
23944SOL     OW76388   8.197   3.814   1.811 -0.2430 -0.1458  0.1021
23944SOL    HW176389   8.254   3.766   1.870  1.4499  0.5655 -0.8714
23944SOL    HW276390   8.205   3.769   1.727 -0.1119  0.7219 -0.3614
23945SOL     OW76391   7.843   3.794   7.156 -0.0884 -0.5918  0.2651
23945SOL    HW176392   7.815   3.883   7.134  0.1538 -0.5192  0.2441
23945SOL    HW276393   7.933   3.805   7.186 -0.0825 -0.8221  0.3285
23946SOL     OW76394   6.433   1.809   8.462  0.3373 -0.1388 -0.3410
23946SOL    HW176395   6.340   1.807   8.488  0.6562 -2.1832  0.9065
23946SOL    HW276396   6.431   1.800   8.367 -0.7675 -2.2093 -0.1806
23947SOL     OW76397   8.888   5.269   5.157  0.4587  0.5142  0.1570
23947SOL    HW176398   8.918   5.205   5.221 -2.8479 -0.9099  0.5039
23947SOL    HW276399   8.915   5.233   5.072 -0.4189 -0.8594  0.4236
23948SOL     OW76400  11.087   9.472   2.594 -0.6112 -0.2129 -0.1264
23948SOL    HW176401  11.177   9.458   2.566 -1.4367 -3.4205 -1.6035
23948SOL    HW276402  11.045   9.518   2.522 -0.1281  1.7220  0.7625
23949SOL     OW76403   3.240   9.698   4.309 -0.5794 -0.3061 -0.4421
23949SOL    HW176404   3.280   9.619   4.274  0.6840 -0.2915  0.9074
23949SOL    HW276405   3.172   9.667   4.368 -0.0846 -0.4089  0.0862
23950SOL     OW76406   7.884   2.096  10.563  0.3422  0.1230  0.3843
23950SOL    HW176407   7.896   2.043  10.484  0.2301 -0.6767  0.8921
23950SOL    HW276408   7.796   2.074  10.594  0.3138  0.5699  0.6339
23951SOL     OW76409   0.141   0.586   0.668 -0.3350 -0.2266  0.0227
23951SOL    HW176410   0.046   0.579   0.680 -0.2983 -1.5420 -0.2121
23951SOL    HW276411   0.156   0.548   0.581  0.6475 -2.5144  1.1110
23952SOL     OW76412   7.808   6.257   6.265 -0.0576  0.2737 -0.3267
23952SOL    HW176413   7.827   6.279   6.357  2.2351  2.7366 -1.2348
23952SOL    HW276414   7.885   6.207   6.237  0.1626  1.1565 -1.3525
23953SOL     OW76415   5.585  11.043   6.609  0.6417 -0.0121  0.2480
23953SOL    HW176416   5.680  11.046   6.608  0.6076  1.7946 -0.6233
23953SOL    HW276417   5.559  11.069   6.521 -0.6703 -2.5446 -0.2166
23954SOL     OW76418   9.737   9.886   2.097  0.4249  0.2508  0.2042
23954SOL    HW176419   9.696   9.817   2.045  1.5108  0.5878 -1.1445
23954SOL    HW276420   9.746   9.960   2.036  0.3257  1.1910  1.3001
23955SOL     OW76421   5.947   5.738   6.209  0.2098 -0.0475 -0.9964
23955SOL    HW176422   5.996   5.657   6.199 -0.9778 -0.9906  0.3451
23955SOL    HW276423   5.855   5.710   6.215 -0.2255  1.3837 -0.4222
23956SOL     OW76424   4.207  10.262   8.970 -0.6053 -0.5349  0.3400
23956SOL    HW176425   4.122  10.299   8.996 -0.1577  1.0384 -0.3146
23956SOL    HW276426   4.253  10.335   8.928  0.2099 -1.9540 -1.3396
23957SOL     OW76427   2.128   3.717   1.361 -0.1382  0.0932 -0.7349
23957SOL    HW176428   2.136   3.731   1.267 -0.9873 -0.0889 -0.8431
23957SOL    HW276429   2.067   3.644   1.369 -1.5357  1.2878 -0.0171
23958SOL     OW76430   1.686   2.009   0.327 -0.3508  0.2234  0.2874
23958SOL    HW176431   1.737   2.086   0.303  1.1335 -0.7355  0.2069
23958SOL    HW276432   1.683   1.956   0.247 -1.0746  0.0405  0.4273
23959SOL     OW76433   8.319   9.502  10.504  0.4464  0.1933  0.2345
23959SOL    HW176434   8.339   9.583  10.457 -0.6368  0.1088 -0.4061
23959SOL    HW276435   8.405   9.463  10.521  0.9099  0.3307 -1.5271
23960SOL     OW76436   9.911   2.591   8.755 -0.5823 -0.4684  0.1006
23960SOL    HW176437   9.871   2.509   8.724 -0.3135 -0.7750  0.5572
23960SOL    HW276438   9.954   2.627   8.678  1.1719 -1.8649  0.3732
23961SOL     OW76439   6.879   0.173   7.908  0.6503 -0.4404 -0.2451
23961SOL    HW176440   6.827   0.110   7.858  0.8817 -0.1582 -0.8617
23961SOL    HW276441   6.842   0.171   7.996 -0.5694 -0.0741 -0.7261
23962SOL     OW76442  11.064   3.230   9.628 -0.2756 -0.1220 -0.3324
23962SOL    HW176443  11.154   3.201   9.638 -0.7278 -1.4712  0.1163
23962SOL    HW276444  11.028   3.228   9.717 -0.7361  0.4101 -0.5042
23963SOL     OW76445  11.912   4.880   0.901 -0.4633  0.6128  0.0307
23963SOL    HW176446  11.876   4.944   0.839 -1.0514 -1.6827 -2.1836
23963SOL    HW276447  12.004   4.872   0.875 -0.0997  1.3369  1.0460
23964SOL     OW76448   4.399   9.378  12.107  0.0872  0.2725  0.1790
23964SOL    HW176449   4.434   9.465  12.087 -0.1857  0.6140  1.1595
23964SOL    HW276450   4.398   9.373  12.202 -0.8630 -0.4071  0.1522
23965SOL     OW76451   1.208   6.243   8.184 -0.2271 -0.1319 -0.0303
23965SOL    HW176452   1.211   6.321   8.127 -0.4562  0.5169  0.8254
23965SOL    HW276453   1.147   6.267   8.254 -0.3537 -1.1170  0.2085
23966SOL     OW76454  10.984   2.301   6.843 -0.1981 -0.6077  0.1163
23966SOL    HW176455  10.910   2.357   6.817 -0.9845 -1.7055 -0.0998
23966SOL    HW276456  11.047   2.361   6.881 -1.2878  0.3472  0.4780
23967SOL     OW76457   3.103   2.310  11.955  0.4222  0.5493  0.2036
23967SOL    HW176458   3.055   2.320  11.873  1.0382 -0.2434 -0.2699
23967SOL    HW276459   3.049   2.254  12.009  0.3969  0.3972  0.0196
23968SOL     OW76460   9.330   6.290   3.690  0.0452  0.4477  0.0852
23968SOL    HW176461   9.343   6.278   3.784  0.2661  0.1516  0.0180
23968SOL    HW276462   9.260   6.355   3.684 -1.6988 -1.2722  0.4749
23969SOL     OW76463   9.358   4.612   2.500  0.0384 -0.2788  0.5779
23969SOL    HW176464   9.421   4.684   2.510 -0.4946  0.0663  1.5072
23969SOL    HW276465   9.407   4.534   2.525  0.5056 -0.1999 -0.0591
23970SOL     OW76466   6.689   6.487   8.534 -0.1493 -0.4635 -0.1996
23970SOL    HW176467   6.711   6.531   8.616 -0.3526 -0.3961 -0.1800
23970SOL    HW276468   6.688   6.394   8.557 -0.3032 -0.4379 -0.1033
23971SOL     OW76469   9.439   8.435  11.969  0.2629  0.4273 -0.1272
23971SOL    HW176470   9.367   8.372  11.971 -1.9090  2.7424  0.9454
23971SOL    HW276471   9.512   8.389  12.011 -0.9949 -1.5806  0.0025
23972SOL     OW76472   4.462   7.339   6.539  0.6941 -0.2469 -0.1316
23972SOL    HW176473   4.475   7.249   6.568 -1.1952 -0.5724 -0.1673
23972SOL    HW276474   4.507   7.393   6.604  0.5480 -1.1559  0.7405
23973SOL     OW76475   3.431   3.106  11.224  0.2730  0.2609 -0.1401
23973SOL    HW176476   3.369   3.172  11.255 -0.3203 -1.1433  1.9015
23973SOL    HW276477   3.488   3.090  11.299 -0.0011 -1.9578 -0.3337
23974SOL     OW76478   8.393   2.892  10.396  0.3489 -0.0809 -0.0899
23974SOL    HW176479   8.485   2.868  10.394  0.2472 -0.4843  0.0088
23974SOL    HW276480   8.361   2.872  10.308  0.4788  0.5751 -0.2972
23975SOL     OW76481  11.696  10.146   3.221 -0.4412  0.3758  0.3137
23975SOL    HW176482  11.649  10.186   3.148 -0.3841  0.9481  0.5833
23975SOL    HW276483  11.735  10.220   3.268 -1.1230  0.0874  1.3769
23976SOL     OW76484   6.842  10.561   6.660  0.3738 -0.3010  0.1105
23976SOL    HW176485   6.899  10.622   6.706  0.5129 -0.1209 -0.2927
23976SOL    HW276486   6.779  10.532   6.725  1.8996 -1.7568  1.0337
23977SOL     OW76487   2.275   3.070   4.859  0.4763 -0.3697 -0.1642
23977SOL    HW176488   2.334   3.032   4.794  1.6671  0.0111  0.6681
23977SOL    HW276489   2.245   3.151   4.819 -0.1478 -0.9581 -0.9279
23978SOL     OW76490  10.309   0.331   4.777  0.5742 -0.0706  0.1017
23978SOL    HW176491  10.335   0.392   4.846 -0.6457  0.4305  0.1463
23978SOL    HW276492  10.239   0.377   4.730  0.2923 -1.0606 -0.4721
23979SOL     OW76493   9.470   2.106   2.440 -0.0175  0.0577  0.0934
23979SOL    HW176494   9.453   2.166   2.367 -2.3816 -0.6193 -0.0047
23979SOL    HW276495   9.565   2.099   2.444  0.2751  2.4763 -0.9552
23980SOL     OW76496   7.169   1.541   2.090  0.6980  0.1485  0.2291
23980SOL    HW176497   7.128   1.496   2.016  2.1206 -0.0530 -0.4800
23980SOL    HW276498   7.157   1.481   2.164 -2.0587  1.0173  0.5702
23981SOL     OW76499   7.247  11.292   1.446 -0.0321 -0.8062 -0.1927
23981SOL    HW176500   7.177  11.319   1.505 -0.3756 -0.3033 -0.8278
23981SOL    HW276501   7.325  11.292   1.501 -0.3523 -0.3635  0.2710
23982SOL     OW76502  11.022   2.966   8.729 -0.2581  0.4210  0.2698
23982SOL    HW176503  11.077   3.000   8.658 -1.6830  0.5032 -0.8627
23982SOL    HW276504  11.058   3.004   8.809  1.1345  0.6851 -0.4650
23983SOL     OW76505   9.533   6.083   7.170  0.1815 -0.0617  0.3794
23983SOL    HW176506   9.555   6.115   7.258  0.8081 -1.9175  0.9345
23983SOL    HW276507   9.484   6.002   7.185  1.2563 -1.0079 -0.9777
23984SOL     OW76508   7.817   1.065  12.071 -0.0872 -0.0590 -0.0398
23984SOL    HW176509   7.812   1.144  12.017  2.4121  0.2186  0.0007
23984SOL    HW276510   7.742   1.071  12.130 -0.9359  1.3787 -1.2036
23985SOL     OW76511   7.239  11.057   9.528 -0.8402 -0.3916 -0.2193
23985SOL    HW176512   7.231  11.006   9.447  1.8301  1.6764 -1.9634
23985SOL    HW276513   7.185  11.134   9.514  0.0828  0.2509 -0.3021
23986SOL     OW76514   2.965   3.761   2.108  0.0059 -0.1710 -0.2861
23986SOL    HW176515   3.002   3.822   2.171  1.7006 -0.6879 -0.7289
23986SOL    HW276516   3.008   3.782   2.026 -0.0212 -1.3757 -0.6337
23987SOL     OW76517   5.043   9.248   5.964  0.1946 -0.2403  0.5879
23987SOL    HW176518   5.121   9.297   5.938 -0.0160  0.5378  1.3780
23987SOL    HW276519   5.027   9.189   5.891  2.1271 -1.1635  0.8554
23988SOL     OW76520   6.467  10.326  10.130  0.3701  0.2457 -0.4148
23988SOL    HW176521   6.549  10.372  10.145  1.6437 -1.4712 -1.6439
23988SOL    HW276522   6.484  10.270  10.054 -1.1875 -1.8661  0.6634
23989SOL     OW76523   1.536  11.924   2.585 -0.4471 -0.0045 -0.3734
23989SOL    HW176524   1.587  11.856   2.629  1.6221 -0.0100 -2.5430
23989SOL    HW276525   1.500  11.880   2.508 -0.9439  0.8392 -0.6296
23990SOL     OW76526   0.843   5.200   3.814 -0.0905  0.2392  0.0118
23990SOL    HW176527   0.899   5.261   3.862  0.4545 -0.1410 -0.1332
23990SOL    HW276528   0.896   5.174   3.739  0.3939 -1.7577  0.9830
23991SOL     OW76529   6.841   9.589   0.552 -0.2765  0.4987  0.3221
23991SOL    HW176530   6.915   9.594   0.492  0.0987  1.6231  0.8536
23991SOL    HW276531   6.816   9.680   0.567 -0.6984  0.2120  1.4648
23992SOL     OW76532   7.365   0.150   4.755  0.9154 -0.8432  0.0485
23992SOL    HW176533   7.455   0.159   4.786  0.8972  0.6718 -0.2448
23992SOL    HW276534   7.340   0.239   4.728 -0.7026 -1.2064  0.2262
23993SOL     OW76535   6.340   1.369   8.979  0.0248 -0.4266  0.0908
23993SOL    HW176536   6.399   1.304   8.941 -0.5626 -0.9548  0.0668
23993SOL    HW276537   6.284   1.396   8.906  1.6407  1.7573 -0.4802
23994SOL     OW76538   5.537   6.662   9.203 -0.1722  0.5571  0.2516
23994SOL    HW176539   5.557   6.620   9.287  0.9200 -0.4414 -0.4914
23994SOL    HW276540   5.446   6.690   9.212 -0.8647 -1.6782  0.9150
23995SOL     OW76541   3.119   8.767   2.402 -0.1097  0.8330  0.0800
23995SOL    HW176542   3.105   8.856   2.370 -0.9625 -0.1155 -2.3849
23995SOL    HW276543   3.210   8.766   2.431  0.3695  2.1119 -1.2700
23996SOL     OW76544  10.477  10.176   3.442  0.2844  0.1131  0.1713
23996SOL    HW176545  10.444  10.087   3.432 -0.1293  0.3690 -0.9453
23996SOL    HW276546  10.399  10.230   3.453  0.3299  0.6116 -1.5862
23997SOL     OW76547  10.640   6.121   6.095 -0.3544 -0.0960 -0.0713
23997SOL    HW176548  10.611   6.206   6.126 -1.3939 -0.4435 -0.0523
23997SOL    HW276549  10.666   6.074   6.175 -1.3255 -0.3583  0.1008
23998SOL     OW76550   8.129  10.963   7.802 -0.0015 -0.2334  0.4307
23998SOL    HW176551   8.213  10.921   7.819 -0.0654 -0.2586  0.6767
23998SOL    HW276552   8.071  10.931   7.870 -0.6444 -1.4223 -0.6477
23999SOL     OW76553   8.218   2.490   9.049 -0.2053 -0.2936 -0.1449
23999SOL    HW176554   8.176   2.567   9.010  0.7623  0.3458  0.0317
23999SOL    HW276555   8.196   2.418   8.990 -0.3992  0.2885 -0.7921
24000SOL     OW76556   0.121   1.156   6.125 -0.4330  0.6757  0.2217
24000SOL    HW176557   0.106   1.070   6.163  1.2027  0.5266  0.6361
24000SOL    HW276558   0.036   1.184   6.091 -1.0011 -1.0735  0.1295
24001SOL     OW76559   0.186  11.456   1.166  0.5172 -0.0903  0.4688
24001SOL    HW176560   0.157  11.376   1.123 -1.1619 -0.2296  1.7270
24001SOL    HW276561   0.241  11.426   1.238 -0.0277 -0.1327  0.8772
24002SOL     OW76562   9.203  10.496   2.161 -0.1965  0.0269  0.1608
24002SOL    HW176563   9.163  10.413   2.185  1.2936 -1.0163 -0.7523
24002SOL    HW276564   9.149  10.530   2.090 -1.4232  0.4054  1.2309
24003SOL     OW76565   1.968  11.981   2.157  0.2353  0.0006  0.5895
24003SOL    HW176566   1.886  11.952   2.197 -1.2875  1.8145 -0.9928
24003SOL    HW276567   1.941  12.048   2.094  3.1024  1.8616  1.1629
24004SOL     OW76568   2.055   0.998   4.479 -0.2296  0.0355  0.1583
24004SOL    HW176569   2.025   0.976   4.391  2.6030  1.8373 -1.4352
24004SOL    HW276570   2.125   0.936   4.497 -0.1444  0.2863  0.7243
24005SOL     OW76571  11.726  11.680   7.547  0.1831 -0.2322 -0.1170
24005SOL    HW176572  11.667  11.655   7.477 -0.8188 -0.0161  0.6330
24005SOL    HW276573  11.716  11.610   7.613  0.0460  0.2937  0.4283
24006SOL     OW76574   6.046   8.610   9.397  0.1567  0.3651 -0.5837
24006SOL    HW176575   6.003   8.547   9.455  1.9416  1.3973  2.0172
24006SOL    HW276576   6.019   8.583   9.309 -0.6031 -2.8870  0.4958
24007SOL     OW76577   3.660  11.011   9.254  0.2468 -0.1789 -0.3445
24007SOL    HW176578   3.622  11.096   9.275 -1.4752 -1.1794  0.7742
24007SOL    HW276579   3.654  10.961   9.336  1.8626 -1.1693 -0.7849
24008SOL     OW76580   1.693  11.607   6.698  0.2355 -0.3138  0.3475
24008SOL    HW176581   1.774  11.644   6.662 -0.0845  1.0349  0.9514
24008SOL    HW276582   1.685  11.646   6.785 -0.7957 -0.8208  0.4952
24009SOL     OW76583   9.438  11.043   6.306  0.4004  0.1047  0.3117
24009SOL    HW176584   9.521  11.080   6.276 -0.3968  1.1354 -0.7312
24009SOL    HW276585   9.459  10.954   6.333  1.7241  0.1436 -0.5365
24010SOL     OW76586   4.336  10.120   5.141  0.5543  0.0096  0.9559
24010SOL    HW176587   4.262  10.122   5.201  1.5107  0.6678  2.1603
24010SOL    HW276588   4.376  10.034   5.154  1.3330  0.5107  2.0213
24011SOL     OW76589   6.405   2.206  12.080  0.0262  0.3226 -0.2572
24011SOL    HW176590   6.363   2.182  11.997  0.7209  1.2648 -0.9090
24011SOL    HW276591   6.333   2.233  12.137 -0.3737  0.7791 -0.9583
24012SOL     OW76592   3.126  11.038   7.058  0.5539  1.0128 -0.6439
24012SOL    HW176593   3.122  10.988   6.976  2.0066 -3.1532  1.5110
24012SOL    HW276594   3.039  11.029   7.096  0.4463  1.2242 -0.8413
24013SOL     OW76595   6.480   2.292   2.184  0.5618 -0.2500  0.0611
24013SOL    HW176596   6.534   2.251   2.252 -1.7401 -0.6599  1.7501
24013SOL    HW276597   6.451   2.220   2.129  3.6316  0.2261 -2.4452
24014SOL     OW76598   3.789   9.729   2.435  0.5351 -0.1990  0.0882
24014SOL    HW176599   3.869   9.738   2.487  1.0771 -1.5896 -0.4834
24014SOL    HW276600   3.816   9.752   2.346  0.2743 -0.5790 -0.0881
24015SOL     OW76601   9.561   2.394   8.237  0.1307  0.2597  0.3177
24015SOL    HW176602   9.627   2.354   8.180 -1.0278  0.9985 -1.6719
24015SOL    HW276603   9.607   2.463   8.284  1.3752 -1.0956  1.1718
24016SOL     OW76604   0.672   6.132  11.039 -0.2333  0.5614 -0.1872
24016SOL    HW176605   0.758   6.114  11.076 -0.5312 -0.1129  0.1950
24016SOL    HW276606   0.661   6.065  10.971 -0.5493  0.4932 -0.0717
24017SOL     OW76607   4.801   2.058   3.897 -0.5152 -0.0748  0.1760
24017SOL    HW176608   4.793   2.065   3.802 -1.0208 -1.5157  0.0756
24017SOL    HW276609   4.840   2.140   3.924 -0.2592  0.3230 -1.2932
24018SOL     OW76610   3.552   0.109  11.922  0.0179 -0.3768 -0.3406
24018SOL    HW176611   3.506   0.036  11.881  0.6887 -1.1654  0.2683
24018SOL    HW276612   3.489   0.145  11.984  0.1893 -1.4482  0.4862
24019SOL     OW76613   0.519   0.450   6.821 -0.5087  0.4230 -0.9174
24019SOL    HW176614   0.545   0.358   6.826  4.2711  1.5820  1.9408
24019SOL    HW276615   0.458   0.462   6.893 -0.6421 -0.3343 -0.8948
24020SOL     OW76616   0.122  11.238  11.306 -0.0779  0.2049  0.2152
24020SOL    HW176617   0.065  11.235  11.230 -0.2761  3.7322  0.0850
24020SOL    HW276618   0.070  11.282  11.374  0.4186 -1.9917  2.1697
24021SOL     OW76619   1.042   4.327   9.146  0.2043 -0.0073 -0.4551
24021SOL    HW176620   1.106   4.287   9.205 -1.2907 -1.8969 -0.0076
24021SOL    HW276621   0.957   4.303   9.183 -0.8150  2.6862 -0.8481
24022SOL     OW76622   8.211   7.074  11.740  0.0397 -0.1250 -0.2233
24022SOL    HW176623   8.166   7.069  11.824  2.3162 -1.5876  1.0190
24022SOL    HW276624   8.147   7.042  11.677 -1.9867  1.6881  0.7551
24023SOL     OW76625   7.409   4.198   6.730 -0.0136 -0.3758  0.1343
24023SOL    HW176626   7.374   4.244   6.806  2.6148 -1.3128  2.0475
24023SOL    HW276627   7.431   4.267   6.668 -0.2160  0.5793  1.1067
24024SOL     OW76628   7.523  11.261  11.833 -0.3990 -0.0235  0.4167
24024SOL    HW176629   7.545  11.296  11.747  0.7923 -1.4913  0.0831
24024SOL    HW276630   7.430  11.238  11.826 -0.0451 -1.1982 -0.8946
24025SOL     OW76631   2.685   4.822   6.794 -0.4441  0.3241  0.2277
24025SOL    HW176632   2.721   4.882   6.729  1.5394 -2.2158 -1.1828
24025SOL    HW276633   2.743   4.831   6.870  0.2047 -0.1840 -0.1975
24026SOL     OW76634  11.040  10.690   6.885 -0.3228 -0.3009 -0.4646
24026SOL    HW176635  11.129  10.724   6.880 -0.4616  0.4266  1.1953
24026SOL    HW276636  11.018  10.694   6.978 -1.1200 -3.0332 -0.4484
24027SOL     OW76637   1.770   3.933   6.730  0.6193  0.3657  0.7940
24027SOL    HW176638   1.716   4.012   6.741 -1.3239 -0.7015 -0.3905
24027SOL    HW276639   1.726   3.867   6.785  0.1710 -0.7581 -0.8597
24028SOL     OW76640   8.975   2.836  10.284 -0.0272  0.2693  0.7236
24028SOL    HW176641   9.033   2.762  10.305 -0.5626 -0.3270  0.1632
24028SOL    HW276642   8.932   2.855  10.367 -0.4571 -0.5771  0.7123
24029SOL     OW76643   2.814   7.826   2.638 -0.6211 -0.2883  0.2037
24029SOL    HW176644   2.823   7.734   2.664  0.2384  0.2407  1.9290
24029SOL    HW276645   2.762   7.865   2.709  0.0920  0.8153  0.1244
24030SOL     OW76646   1.747   5.414   9.231 -1.0466  0.1605 -0.5357
24030SOL    HW176647   1.770   5.374   9.147  0.8514  0.1679 -0.0825
24030SOL    HW276648   1.723   5.340   9.287  0.8670 -0.2427 -0.1750
24031SOL     OW76649   9.282   0.465   9.558  0.3381  0.8877  0.2583
24031SOL    HW176650   9.297   0.382   9.515 -0.2320  1.2519 -0.6680
24031SOL    HW276651   9.342   0.465   9.633  0.7838 -0.0774 -0.0923
24032SOL     OW76652   4.740   1.624  10.441 -0.1361 -0.1974  0.1926
24032SOL    HW176653   4.712   1.714  10.460  1.5668  0.4074  0.0454
24032SOL    HW276654   4.725   1.576  10.522  0.8293  0.7409  0.9541
24033SOL     OW76655   8.781  11.969   5.757 -0.0513 -0.4081  0.1689
24033SOL    HW176656   8.845  11.898   5.753  2.4174  1.6963 -0.2533
24033SOL    HW276657   8.720  11.942   5.825  1.5899 -2.2880  1.0144
24034SOL     OW76658   9.843   9.716   8.513  0.5067  0.1707  0.0940
24034SOL    HW176659   9.831   9.725   8.607  0.5716 -0.8388  0.2095
24034SOL    HW276660   9.754   9.719   8.477  0.4611  0.2768  0.2154
24035SOL     OW76661  11.688   7.252   5.423 -0.6323 -0.3489 -0.7733
24035SOL    HW176662  11.742   7.228   5.498 -0.6651  0.7650 -0.3663
24035SOL    HW276663  11.686   7.174   5.368  0.8403 -0.6223 -0.4766
24036SOL     OW76664   5.890   9.710   9.398 -0.9324  0.1173 -0.5222
24036SOL    HW176665   5.937   9.684   9.318  3.8688  1.0728  1.6265
24036SOL    HW276666   5.887   9.630   9.451  0.7314  0.5827  0.3401
24037SOL     OW76667  11.101   9.901   1.023  0.1896  0.0950 -0.2120
24037SOL    HW176668  11.104   9.864   1.112  2.8721 -1.0760 -0.6838
24037SOL    HW276669  11.184   9.947   1.014 -0.3762  0.8387 -1.8768
24038SOL     OW76670   2.922   8.470   1.565 -0.0678 -0.1912  0.6862
24038SOL    HW176671   2.899   8.431   1.649  0.2202 -2.5786 -0.2621
24038SOL    HW276672   3.010   8.436   1.546 -0.4223 -0.3139 -0.8905
24039SOL     OW76673   4.116  11.610   1.095 -0.0654  0.2084 -0.5102
24039SOL    HW176674   4.126  11.515   1.092  0.8084  0.3109 -1.8273
24039SOL    HW276675   4.190  11.643   1.044 -0.2308  1.6075  0.1099
24040SOL     OW76676   3.571   9.187  10.071 -0.1732 -0.0374 -0.3161
24040SOL    HW176677   3.521   9.125  10.018 -0.0500  0.0427 -0.5274
24040SOL    HW276678   3.553   9.273  10.032 -1.6545  0.2901  0.9786
24041SOL     OW76679   8.147   0.478  11.945 -0.1080  0.0637  0.1877
24041SOL    HW176680   8.224   0.529  11.919  0.5634 -1.1789 -0.3517
24041SOL    HW276681   8.129   0.422  11.870  0.1743 -1.6360  1.3356
24042SOL     OW76682   7.332   4.782   9.478  0.4879  0.0209 -0.7776
24042SOL    HW176683   7.268   4.814   9.542 -0.3939 -0.2669 -1.4882
24042SOL    HW276684   7.386   4.858   9.458  0.3767  0.2699 -0.1531
24043SOL     OW76685   2.599   7.988   3.342  0.3286  0.6443  0.0005
24043SOL    HW176686   2.535   7.921   3.364  1.4603 -0.2805  0.5940
24043SOL    HW276687   2.682   7.954   3.374  1.6384  0.5003 -3.1148
24044SOL     OW76688   3.866  10.601  10.817  0.0010  0.0051  0.0247
24044SOL    HW176689   3.816  10.529  10.778 -0.2446 -0.3837  1.0229
24044SOL    HW276690   3.806  10.640  10.881  0.2948  0.8063 -0.1739
24045SOL     OW76691   5.363   8.441   9.745 -0.2882  0.3398  0.6269
24045SOL    HW176692   5.416   8.362   9.730 -0.3170  0.4888 -0.2884
24045SOL    HW276693   5.363   8.452   9.841 -0.2479 -0.7393  0.7595
24046SOL     OW76694   2.005   8.719   1.370 -0.2858  0.7354 -0.1441
24046SOL    HW176695   2.027   8.800   1.417 -0.6386  1.1810 -0.7402
24046SOL    HW276696   2.050   8.727   1.286 -1.0124  0.7145 -0.5444
24047SOL     OW76697   2.665  10.033   6.684  0.4855 -0.1332 -0.0885
24047SOL    HW176698   2.683  10.012   6.776 -0.0953 -1.2254 -0.2160
24047SOL    HW276699   2.643  10.127   6.685 -0.8993 -0.4279  1.1023
24048SOL     OW76700   7.923   7.806   4.454 -0.5911 -0.0691 -0.4330
24048SOL    HW176701   7.985   7.878   4.442 -1.7603  0.5588 -3.9449
24048SOL    HW276702   7.966   7.730   4.416 -0.3157 -0.7023  1.0854
24049SOL     OW76703   8.736   0.670   9.357  0.1109  0.4689  0.0529
24049SOL    HW176704   8.792   0.724   9.302  0.9591  1.5252  1.8610
24049SOL    HW276705   8.662   0.646   9.301  0.8830  1.5435 -1.4846
24050SOL     OW76706  10.490   5.440   3.458 -0.1542  0.3950  0.1403
24050SOL    HW176707  10.483   5.521   3.409  0.7915  0.8661  0.7617
24050SOL    HW276708  10.435   5.453   3.535 -0.7660  0.0737 -0.2377
24051SOL     OW76709   3.962   7.170   2.352  0.1196  0.1387  0.3309
24051SOL    HW176710   4.038   7.227   2.338 -0.1194  0.9657  2.2099
24051SOL    HW276711   3.997   7.082   2.341  0.7916  0.5652 -1.2674
24052SOL     OW76712   3.661   0.795  10.786  0.3415 -0.1560  0.1455
24052SOL    HW176713   3.591   0.813  10.849 -1.2669 -2.1001 -0.9947
24052SOL    HW276714   3.724   0.742  10.835 -0.4299 -0.8526  0.4077
24053SOL     OW76715  10.220   1.435   7.925  0.0197  0.4211  0.4531
24053SOL    HW176716  10.186   1.515   7.965 -0.6113  0.3297  0.1259
24053SOL    HW276717  10.277   1.397   7.991 -0.7164  0.4560  1.1267
24054SOL     OW76718   3.379   6.586   7.233  0.0287  0.4593  0.2741
24054SOL    HW176719   3.460   6.626   7.263  1.2299 -1.9303  0.4984
24054SOL    HW276720   3.407   6.525   7.165 -1.7015  0.1882 -0.2371
24055SOL     OW76721  11.622   5.988   9.041  0.4205  0.1019  0.3148
24055SOL    HW176722  11.646   6.038   9.119 -0.8201  0.6235  0.3874
24055SOL    HW276723  11.533   5.956   9.060  0.7019 -1.0749 -0.2520
24056SOL     OW76724   6.153   7.695   5.459  0.5600  0.1273  0.2039
24056SOL    HW176725   6.130   7.632   5.391 -2.0763  0.4764  0.6913
24056SOL    HW276726   6.173   7.775   5.410  0.5937 -0.1579 -0.2556
24057SOL     OW76727   1.714   1.911   6.251 -0.7045 -0.1517  0.0266
24057SOL    HW176728   1.751   1.932   6.337 -3.4966  0.1804  1.2650
24057SOL    HW276729   1.672   1.826   6.264 -2.4453  0.5895 -0.5366
24058SOL     OW76730   3.173   7.622   8.437 -0.2206 -0.2058  0.0413
24058SOL    HW176731   3.110   7.563   8.394 -1.5921  1.1511  0.0796
24058SOL    HW276732   3.148   7.621   8.529 -0.0752  0.2076  0.0884
24059SOL     OW76733   5.416   7.435   2.002 -0.8538 -0.5244  0.2067
24059SOL    HW176734   5.409   7.446   1.907 -0.9346 -1.0267  0.1494
24059SOL    HW276735   5.488   7.373   2.013 -0.5043 -0.0611  0.4979
24060SOL     OW76736  10.215   6.452   2.087  0.2784 -0.0080  0.0523
24060SOL    HW176737  10.301   6.462   2.047  1.0453 -1.4625  1.2049
24060SOL    HW276738  10.193   6.540   2.118  1.1334  0.4810 -0.6646
24061SOL     OW76739   3.141   5.942  10.222  0.7016  0.1962 -0.3068
24061SOL    HW176740   3.089   6.013  10.260  0.3725  1.7964 -3.4279
24061SOL    HW276741   3.120   5.944  10.129  1.9440 -3.0009 -0.7877
24062SOL     OW76742  11.073   3.301  11.519  0.0201 -0.7595 -0.3762
24062SOL    HW176743  11.168   3.290  11.508  0.3225  0.5400  0.6938
24062SOL    HW276744  11.042   3.334  11.434  0.9261  1.0607 -0.0415
24063SOL     OW76745   0.418   0.149   4.191  0.0242 -0.0926 -0.2481
24063SOL    HW176746   0.387   0.236   4.214 -0.4591 -0.2659 -0.2160
24063SOL    HW276747   0.510   0.148   4.216  0.0856  0.4774 -0.4533
24064SOL     OW76748   0.477   6.290   3.590 -0.1176 -0.0059  0.4995
24064SOL    HW176749   0.391   6.296   3.631  0.1763 -0.7865  1.2674
24064SOL    HW276750   0.535   6.337   3.650  0.1411 -0.2683  0.4579
24065SOL     OW76751   9.394   7.355   0.818  0.0442  0.2341 -0.2609
24065SOL    HW176752   9.402   7.448   0.841  1.4918 -0.3696  2.0508
24065SOL    HW276753   9.484   7.322   0.821 -0.5742 -1.4985  0.3070
24066SOL     OW76754   6.964  10.404   1.181 -0.0715  0.2053 -0.0396
24066SOL    HW176755   6.928  10.339   1.120  0.9463  0.4940 -0.9793
24066SOL    HW276756   7.057  10.410   1.158  0.0568  1.2898  0.6749
24067SOL     OW76757   3.446  11.875   8.039  0.1054 -0.0077 -0.1737
24067SOL    HW176758   3.475  11.815   7.969 -1.5449  1.1578 -1.9401
24067SOL    HW276759   3.373  11.830   8.080 -0.9550  0.6184 -1.3177
24068SOL     OW76760   3.075   8.883   5.834 -0.1623  0.6030 -0.3575
24068SOL    HW176761   3.077   8.886   5.929 -0.9352  2.8528 -0.3448
24068SOL    HW276762   2.984   8.864   5.812  0.4258 -2.2274 -0.7142
24069SOL     OW76763   5.529  10.590   3.339 -0.3839  0.0852 -0.2620
24069SOL    HW176764   5.475  10.520   3.302 -2.0809  0.6782  0.9449
24069SOL    HW276765   5.467  10.643   3.390  0.7566  2.7652 -1.5202
24070SOL     OW76766  11.368   0.990   8.800 -0.1843  0.1836 -0.4147
24070SOL    HW176767  11.288   1.038   8.823  0.2257  0.4759  0.4196
24070SOL    HW276768  11.405   1.041   8.727 -0.5273  0.2995 -0.5109
24071SOL     OW76769   6.639   3.711  10.436  0.1105  0.3757 -0.0673
24071SOL    HW176770   6.549   3.723  10.405  0.2712  1.5293 -0.1009
24071SOL    HW276771   6.644   3.763  10.516  0.0664 -1.5987  1.2865
24072SOL     OW76772   8.301   6.272   3.787 -0.8861 -0.1177 -0.4239
24072SOL    HW176773   8.310   6.293   3.880  0.6381 -1.6700 -0.1840
24072SOL    HW276774   8.375   6.315   3.745  0.0270 -1.6888 -0.4861
24073SOL     OW76775   2.588   9.967   4.564  0.0384  0.0820  0.1436
24073SOL    HW176776   2.661   9.910   4.540  0.0579  0.4440 -0.6990
24073SOL    HW276777   2.521   9.950   4.497  0.5583  1.9824 -0.9338
24074SOL     OW76778   2.694   5.227   4.645 -0.1661 -0.7216 -0.1165
24074SOL    HW176779   2.677   5.164   4.715 -0.0566 -1.6755 -0.9268
24074SOL    HW276780   2.789   5.228   4.635 -0.1157  0.0743  0.3263
24075SOL     OW76781   6.066   2.393  10.992  0.0051  0.4881  0.1980
24075SOL    HW176782   6.079   2.351  11.077 -1.2027 -0.0309  0.1424
24075SOL    HW276783   6.079   2.486  11.009 -0.1708  0.3853  0.9397
24076SOL     OW76784   7.947   4.813   0.025 -0.3070  0.2239  0.5373
24076SOL    HW176785   7.879   4.749   0.004 -0.6345  0.4083  1.0145
24076SOL    HW276786   7.993   4.776   0.100  0.3806 -0.0850 -0.0235
24077SOL     OW76787   9.925   2.350   1.744 -0.6329  0.4284  0.3052
24077SOL    HW176788   9.911   2.390   1.830 -0.1124  0.0575  0.5689
24077SOL    HW276789   9.881   2.265   1.750  0.8064 -0.3140  0.7935
24078SOL     OW76790   1.002   0.962  10.779  0.4655 -0.4996 -0.4269
24078SOL    HW176791   0.920   0.941  10.823  1.3287 -1.2853  0.8805
24078SOL    HW276792   0.991   0.929  10.689 -1.1045  0.5911 -0.6638
24079SOL     OW76793  11.144   3.910   2.296 -0.1772  0.2858  0.0357
24079SOL    HW176794  11.088   3.932   2.370  0.7676 -0.6359  1.0588
24079SOL    HW276795  11.221   3.867   2.335  0.9352  0.8955 -1.3699
24080SOL     OW76796  10.621   4.685   4.333 -0.0237  0.8658 -0.3623
24080SOL    HW176797  10.533   4.723   4.330 -1.0046 -1.1112  0.9747
24080SOL    HW276798  10.666   4.733   4.402 -0.3262  1.3838 -0.5250
24081SOL     OW76799  10.179   4.623   7.167 -0.2153 -0.3420 -0.1607
24081SOL    HW176800  10.242   4.647   7.100 -0.4038  0.5917 -0.0070
24081SOL    HW276801  10.094   4.628   7.123 -0.2147 -1.5631 -0.3585
24082SOL     OW76802   3.945   3.500   4.088  0.6653  0.2699  0.2131
24082SOL    HW176803   3.881   3.569   4.102  0.0030 -0.1892 -0.4220
24082SOL    HW276804   4.006   3.536   4.024 -0.8876 -0.4224 -1.7779
24083SOL     OW76805   6.363   2.501   1.057  0.3410 -0.2393 -0.3281
24083SOL    HW176806   6.380   2.440   1.129 -2.3850  0.6037  1.1602
24083SOL    HW276807   6.449   2.536   1.034  1.1876  0.6534  3.6168
24084SOL     OW76808   1.534   5.262  10.505  0.4899  0.2099  0.0956
24084SOL    HW176809   1.495   5.341  10.467  1.5473  0.2736 -0.9187
24084SOL    HW276810   1.495   5.255  10.592 -1.1657  0.7008 -0.5756
24085SOL     OW76811   6.234   0.203   5.925  0.1384 -0.1666  0.4049
24085SOL    HW176812   6.318   0.248   5.920 -0.0152  0.2862  1.5753
24085SOL    HW276813   6.175   0.255   5.871  0.9505 -1.3718 -1.7513
24086SOL     OW76814   4.196   1.992  10.814 -0.2999  0.6273 -0.0665
24086SOL    HW176815   4.215   1.936  10.889 -0.1704 -1.7686 -1.7679
24086SOL    HW276816   4.102   2.010  10.820 -0.7670 -1.4371 -0.4724
24087SOL     OW76817   6.972   8.780   4.250  0.0849  0.4440 -0.4498
24087SOL    HW176818   6.884   8.755   4.276  0.3679  0.5853  0.7270
24087SOL    HW276819   6.965   8.873   4.228  0.4347  1.2921  2.5050
24088SOL     OW76820   2.035  10.811   8.102 -0.0427 -0.6240  0.2705
24088SOL    HW176821   2.048  10.823   8.008 -2.2192 -2.6395 -0.3837
24088SOL    HW276822   2.120  10.780   8.134  0.7206  0.0746 -0.9937
24089SOL     OW76823  11.716  10.059   6.781  0.2965  0.2396 -0.5944
24089SOL    HW176824  11.692  10.072   6.689 -0.6900 -0.3763 -0.4331
24089SOL    HW276825  11.644  10.007   6.818  0.1792  1.3288  0.7801
24090SOL     OW76826   0.660   9.346   8.410  0.2917  1.1287  0.1195
24090SOL    HW176827   0.633   9.426   8.455  0.4531  0.6950  1.0151
24090SOL    HW276828   0.660   9.369   8.318 -1.3639  1.6772  0.2152
24091SOL     OW76829  11.790   3.503   1.491  0.3964 -0.0793  0.3362
24091SOL    HW176830  11.740   3.461   1.561  0.1890 -0.7593 -0.2061
24091SOL    HW276831  11.727   3.559   1.447  0.2918 -0.3768  0.1067
24092SOL     OW76832   4.095  11.941   9.348 -0.3446  0.1119  0.0577
24092SOL    HW176833   4.107  11.854   9.310 -0.1370  0.3323 -0.3902
24092SOL    HW276834   4.006  11.940   9.383 -0.9027  0.2106 -1.2723
24093SOL     OW76835   4.074   9.654   0.586 -0.3544 -0.0364  0.3367
24093SOL    HW176836   4.026   9.655   0.668 -0.0986 -0.3974  0.4942
24093SOL    HW276837   4.007   9.650   0.518 -0.5664  0.2880  0.5240
24094SOL     OW76838  11.812   3.403   8.362 -0.4448  0.6446 -0.2435
24094SOL    HW176839  11.718   3.388   8.348 -0.3022  0.9252 -1.6310
24094SOL    HW276840  11.836   3.468   8.296  0.4809  1.5221  0.9015
24095SOL     OW76841  11.635  10.808  12.060  0.0979 -0.2534 -1.4174
24095SOL    HW176842  11.596  10.794  11.973 -0.3623 -1.5039 -1.0343
24095SOL    HW276843  11.651  10.720  12.093  1.4205  0.2228 -0.7290
24096SOL     OW76844   1.340   4.008   1.616  0.8160 -0.2212  0.3977
24096SOL    HW176845   1.409   4.068   1.642  0.4004  0.4829 -0.0917
24096SOL    HW276846   1.260   4.061   1.617  0.7171 -0.2142 -1.9205
24097SOL     OW76847  10.095   6.825   1.547  0.0389  0.5150 -0.1699
24097SOL    HW176848  10.036   6.789   1.481  0.2745  1.6653 -1.0406
24097SOL    HW276849  10.175   6.846   1.499  0.5529  0.5382  0.6659
24098SOL     OW76850  11.393   9.256  10.188 -0.3722 -0.1514 -0.2256
24098SOL    HW176851  11.412   9.163  10.192  1.9051  0.2271 -0.8592
24098SOL    HW276852  11.373   9.273  10.096 -1.1571 -0.0501 -0.0476
24099SOL     OW76853   0.011   0.496  10.475  0.4368 -0.4194 -0.1406
24099SOL    HW176854   0.081   0.435  10.452 -0.3549 -1.0281 -1.0044
24099SOL    HW276855  -0.069   0.453  10.445 -0.0454  1.5336 -1.8707
24100SOL     OW76856   2.118   3.265   6.744  0.2211 -0.6083 -0.0384
24100SOL    HW176857   2.061   3.327   6.699 -1.3379 -2.2230 -0.3949
24100SOL    HW276858   2.137   3.307   6.828 -1.5612 -0.0173  0.1209
24101SOL     OW76859   7.756  10.677  11.395 -0.0693  0.0718  0.6111
24101SOL    HW176860   7.768  10.733  11.318 -0.7512 -0.9729 -0.2869
24101SOL    HW276861   7.724  10.737  11.463  0.3623  0.9798  0.0347
24102SOL     OW76862  11.839   4.509   6.543 -0.1118  0.1243 -0.1358
24102SOL    HW176863  11.917   4.480   6.495  0.7556 -1.5827  2.1599
24102SOL    HW276864  11.802   4.429   6.579 -0.9349  1.2717  1.7127
24103SOL     OW76865   9.293   8.692   0.538  0.2912 -0.3971 -0.6127
24103SOL    HW176866   9.226   8.755   0.562 -1.3011 -1.9990 -0.6391
24103SOL    HW276867   9.249   8.632   0.477  1.4042 -2.1346  0.2198
24104SOL     OW76868   4.172  11.052   0.627  0.3093 -0.0366  0.1537
24104SOL    HW176869   4.265  11.057   0.645  0.8733 -2.9395 -1.3256
24104SOL    HW276870   4.160  11.106   0.549  1.1023 -0.8810 -0.5763
24105SOL     OW76871   8.571   9.209   4.034  0.1661  0.4373 -0.2495
24105SOL    HW176872   8.592   9.278   3.971  1.2549 -0.4866 -0.9316
24105SOL    HW276873   8.525   9.143   3.983  0.2802  0.0727  0.1162
24106SOL     OW76874   9.803   2.008   0.352  0.1001 -0.0191 -0.7920
24106SOL    HW176875   9.791   1.934   0.411  1.9377 -1.0935 -1.6681
24106SOL    HW276876   9.807   1.969   0.265 -0.1709  1.2608 -1.3964
24107SOL     OW76877   4.954   8.646   3.179 -0.0400  0.4875 -0.1131
24107SOL    HW176878   4.869   8.689   3.172 -1.1676 -1.4296  0.9799
24107SOL    HW276879   4.984   8.666   3.268  0.1536  0.3118 -0.1374
24108SOL     OW76880  10.769   5.391   4.057  0.3843 -0.1042 -0.0713
24108SOL    HW176881  10.784   5.403   4.151 -1.0514  0.0630  0.1578
24108SOL    HW276882  10.683   5.349   4.052 -0.1836  1.1235 -1.3389
24109SOL     OW76883   9.979   8.373  11.998  0.0460  0.2160 -0.5633
24109SOL    HW176884  10.046   8.351  12.063  2.0448 -1.4439 -2.9845
24109SOL    HW276885   9.962   8.466  12.013  1.4042  0.2205  1.4174
24110SOL     OW76886   1.266   1.962   4.889  0.0756 -0.2560  0.9384
24110SOL    HW176887   1.194   1.909   4.853 -1.1416  0.7530  1.7865
24110SOL    HW276888   1.275   2.035   4.828  0.7990 -0.6708  0.5288
24111SOL     OW76889   5.535   9.871  10.243 -0.2384  0.3941 -0.1853
24111SOL    HW176890   5.564   9.783  10.268 -0.6794  0.6746  1.4248
24111SOL    HW276891   5.445   9.858  10.212 -0.2541  0.2562 -0.0848
24112SOL     OW76892   8.127   3.778   2.971 -0.4483  0.1965 -0.0892
24112SOL    HW176893   8.089   3.863   2.994 -0.2715  0.1941  0.2115
24112SOL    HW276894   8.053   3.728   2.935 -0.6225  0.3669  0.0304
24113SOL     OW76895  10.663   8.034  12.025 -0.4975 -0.0012  0.1070
24113SOL    HW176896  10.592   8.018  12.087 -0.8235 -1.4877 -0.5964
24113SOL    HW276897  10.619   8.050  11.942 -0.0463  1.1295  0.0730
24114SOL     OW76898   5.512   9.145   5.009 -0.5351 -0.1467  0.2909
24114SOL    HW176899   5.451   9.196   4.955  0.1144  1.6802  1.1704
24114SOL    HW276900   5.485   9.163   5.099  1.2268  0.7072  0.6991
24115SOL     OW76901   9.437   4.591   0.631  0.3592  0.0940 -0.1945
24115SOL    HW176902   9.454   4.630   0.716 -0.8346  0.2922 -0.0253
24115SOL    HW276903   9.386   4.512   0.651 -0.9675  0.7720 -0.7676
24116SOL     OW76904   6.017  10.080   6.281 -0.0104  0.1099 -0.0550
24116SOL    HW176905   5.960  10.157   6.276  0.7915  0.8076  1.0155
24116SOL    HW276906   6.077  10.100   6.353  2.0932 -0.2647 -1.6067
24117SOL     OW76907   5.843  11.477   7.351 -0.0333 -0.0469 -0.2572
24117SOL    HW176908   5.907  11.410   7.325 -1.5954 -0.9795 -1.8637
24117SOL    HW276909   5.864  11.552   7.295 -0.1532 -0.2515 -0.5817
24118SOL     OW76910   7.110   5.408   7.808  0.4400 -0.5631 -0.3499
24118SOL    HW176911   7.081   5.322   7.840  0.7356 -0.8424 -0.8209
24118SOL    HW276912   7.205   5.399   7.799  0.6772  0.2792  1.0130
24119SOL     OW76913   4.482  12.002   7.404  0.2592 -0.6286  0.0192
24119SOL    HW176914   4.535  11.988   7.483  1.6113  1.1969 -0.5234
24119SOL    HW276915   4.440  12.087   7.418  0.2120 -0.4629 -1.0502
24120SOL     OW76916   4.641   2.558   0.143 -1.1421 -0.9508 -0.5203
24120SOL    HW176917   4.670   2.571   0.233  1.4262 -0.7282 -1.2856
24120SOL    HW276918   4.595   2.639   0.121  2.0502  1.0106 -0.6875
24121SOL     OW76919  10.658   1.851   3.599  0.0650 -0.3686  0.2142
24121SOL    HW176920  10.579   1.818   3.558 -1.5278  2.3845  0.7969
24121SOL    HW276921  10.654   1.946   3.586  2.2078  0.0777  2.0776
24122SOL     OW76922   3.164   1.642   2.738  0.0754 -0.3049 -0.5154
24122SOL    HW176923   3.111   1.564   2.720 -0.2221  0.0215 -1.0791
24122SOL    HW276924   3.202   1.665   2.653  3.6049 -2.3032  0.3086
24123SOL     OW76925   5.173   9.237   4.728 -0.0432 -0.0912  0.1982
24123SOL    HW176926   5.212   9.154   4.698 -1.4568 -0.2155 -1.4835
24123SOL    HW276927   5.083   9.234   4.696 -0.2090  1.9921  0.3361
24124SOL     OW76928   0.346   9.823   5.138 -0.5036 -0.2101  0.5581
24124SOL    HW176929   0.286   9.756   5.171 -0.8700 -0.1544  0.0323
24124SOL    HW276930   0.408   9.775   5.083 -0.1331 -0.2508  1.0052
24125SOL     OW76931  10.759  11.152   5.136 -0.1732 -0.5279  0.7002
24125SOL    HW176932  10.743  11.129   5.045 -0.7544 -2.6093  1.2624
24125SOL    HW276933  10.854  11.145   5.146 -0.0972 -0.1785  0.2470
24126SOL     OW76934   2.286   3.676   8.990 -0.1775 -0.0746  0.4852
24126SOL    HW176935   2.328   3.598   9.027  0.7173 -0.0511 -0.4458
24126SOL    HW276936   2.194   3.668   9.015 -0.0760 -1.3701  0.5032
24127SOL     OW76937  10.722   4.456   3.406 -0.1395 -0.2949  0.0967
24127SOL    HW176938  10.731   4.550   3.391 -1.8431 -0.2665 -1.0886
24127SOL    HW276939  10.777   4.438   3.482 -2.0243  2.2079  2.2201
24128SOL     OW76940   9.657   5.395   4.979 -0.3367 -0.1496  0.2738
24128SOL    HW176941   9.678   5.326   5.041  2.9047  0.9131  0.5274
24128SOL    HW276942   9.678   5.476   5.025 -1.9526  0.9306 -0.7768
24129SOL     OW76943   2.170   2.232   9.156  0.3845  0.0819 -0.2852
24129SOL    HW176944   2.241   2.267   9.103  0.8586  0.8700  0.8177
24129SOL    HW276945   2.143   2.306   9.211 -0.1702 -0.6660  0.4709
24130SOL     OW76946   5.243   7.318  11.159  0.2857 -0.0890  0.2238
24130SOL    HW176947   5.272   7.403  11.124  0.8131  0.3151  1.5808
24130SOL    HW276948   5.245   7.330  11.254  0.8211 -1.7871  0.4452
24131SOL     OW76949  10.830   3.929   2.260  0.0443 -0.1060  0.4180
24131SOL    HW176950  10.867   3.937   2.172 -0.2325  0.5262  0.3502
24131SOL    HW276951  10.743   3.893   2.245 -1.3584  3.0660  0.0701
24132SOL     OW76952   4.483   7.141   7.049 -0.8449 -0.2616 -0.2753
24132SOL    HW176953   4.448   7.060   7.011 -0.8371 -0.5501  0.3039
24132SOL    HW276954   4.551   7.169   6.989 -2.4418  0.6479 -1.7604
24133SOL     OW76955  11.169   9.839   3.401  0.3399 -0.5036  0.0291
24133SOL    HW176956  11.219   9.920   3.394  0.5440 -0.5432  0.9327
24133SOL    HW276957  11.115   9.851   3.479 -0.2305 -0.9197 -0.2916
24134SOL     OW76958   9.061   3.862   1.445 -1.0617  0.4199  0.4345
24134SOL    HW176959   9.017   3.897   1.368 -2.2898 -0.2087  0.8190
24134SOL    HW276960   9.058   3.933   1.509 -1.9153  0.2562  0.5940
24135SOL     OW76961  10.499   4.497   9.474  0.2672 -0.3139 -0.5425
24135SOL    HW176962  10.407   4.474   9.465 -0.2293  0.9627  0.8881
24135SOL    HW276963  10.500   4.593   9.475  1.5366 -0.3076  0.0938
24136SOL     OW76964   3.445   5.467   4.485  0.1322  0.0943  0.1815
24136SOL    HW176965   3.364   5.428   4.452  0.5490  0.5331 -1.4064
24136SOL    HW276966   3.451   5.435   4.575 -0.9154 -1.3320 -0.2164
24137SOL     OW76967   6.985   8.385   2.317 -0.6867  0.5526  0.3802
24137SOL    HW176968   6.903   8.426   2.341 -1.5422 -0.9749  0.1955
24137SOL    HW276969   7.007   8.421   2.231 -2.4917 -0.8148 -0.7347
24138SOL     OW76970  10.177   5.516   6.640  0.1821  0.5304  0.4095
24138SOL    HW176971  10.100   5.550   6.686 -0.5156  0.4149 -0.6507
24138SOL    HW276972  10.146   5.436   6.598  0.9311  0.3957  0.1115
24139SOL     OW76973   0.193   7.578   0.425 -0.2589 -0.4015  0.3625
24139SOL    HW176974   0.169   7.606   0.513  0.9862  2.1059  0.0158
24139SOL    HW276975   0.123   7.518   0.398 -1.3661 -0.1731  2.5377
24140SOL     OW76976   5.314   4.244   4.269  0.1437  0.5167 -0.1529
24140SOL    HW176977   5.348   4.280   4.351 -3.1008  2.4042  0.5625
24140SOL    HW276978   5.269   4.164   4.296 -1.1157  1.2549  0.0266
24141SOL     OW76979   9.867   9.290   0.859 -0.1069  0.0726  0.1834
24141SOL    HW176980   9.831   9.379   0.860 -1.9132 -0.6163  0.1801
24141SOL    HW276981   9.883   9.270   0.951  0.8928  0.6140  0.1352
24142SOL     OW76982  10.980   6.126   4.611  0.6086 -0.0036  0.1313
24142SOL    HW176983  11.054   6.121   4.551  1.0309  0.5964  0.5984
24142SOL    HW276984  10.921   6.190   4.572 -0.2573 -1.3343 -0.8617
24143SOL     OW76985   1.734   4.929   5.569  0.3765  0.2959  0.6809
24143SOL    HW176986   1.797   4.863   5.598  1.4353  1.5094  1.2530
24143SOL    HW276987   1.746   4.934   5.474 -0.1589 -0.7536  0.5413
24144SOL     OW76988   1.239   5.270  10.635  0.4469  0.0042  0.4036
24144SOL    HW176989   1.179   5.264  10.561  0.0464 -0.3811  0.7522
24144SOL    HW276990   1.183   5.290  10.710  0.8120  0.1121  0.6520
24145SOL     OW76991   3.603   0.120   8.831  0.7236 -0.5120  0.3919
24145SOL    HW176992   3.661   0.110   8.755 -0.5462 -0.4328 -0.6312
24145SOL    HW276993   3.648   0.184   8.887  0.2158  2.0368 -1.8820
24146SOL     OW76994  10.777  11.344   2.311  0.4372 -0.2405 -0.7832
24146SOL    HW176995  10.784  11.354   2.406  2.7638  0.2238 -0.9336
24146SOL    HW276996  10.783  11.434   2.277 -0.2272 -0.4153 -1.3896
24147SOL     OW76997  10.894  10.550  10.798 -0.8281  0.2627  0.6269
24147SOL    HW176998  10.915  10.637  10.764 -1.2048  0.4016  0.7480
24147SOL    HW276999  10.892  10.494  10.720 -0.1147  0.2652  0.6007
24148SOL     OW77000   9.165   3.602   1.459 -0.4763 -0.3359  0.6836
24148SOL    HW177001   9.154   3.686   1.504 -1.9394 -0.4312  0.5562
24148SOL    HW277002   9.176   3.625   1.367 -1.7616 -0.3005  0.5252
24149SOL     OW77003  11.618   0.472   3.779 -0.4937 -0.0374 -0.0681
24149SOL    HW177004  11.623   0.454   3.685 -0.5933 -0.8866  0.0741
24149SOL    HW277005  11.685   0.539   3.795 -0.7893  0.4448 -0.8134
24150SOL     OW77006   5.246   6.750   4.387 -0.0770 -0.4280 -0.2284
24150SOL    HW177007   5.333   6.786   4.401  0.0192 -1.2173  1.4341
24150SOL    HW277008   5.261   6.667   4.343  0.0566 -0.7970  0.5032
24151SOL     OW77009  12.003   6.268   6.562  0.4914 -0.9195 -0.0240
24151SOL    HW177010  11.947   6.284   6.486  0.9036  1.3229  0.0688
24151SOL    HW277011  11.978   6.181   6.592 -2.0608 -0.5143 -0.7233
24152SOL     OW77012   2.428   8.855   7.319 -0.6168 -0.4516  0.3327
24152SOL    HW177013   2.394   8.918   7.256 -1.6706  0.6937  1.9613
24152SOL    HW277014   2.517   8.836   7.288 -0.6519  1.0288 -0.7991
24153SOL     OW77015   8.065   6.287   2.519  0.1816 -0.3607  0.4749
24153SOL    HW177016   8.055   6.226   2.446  0.5266  0.6334 -0.4223
24153SOL    HW277017   8.021   6.244   2.592  1.0996 -2.0260  0.0776
24154SOL     OW77018   4.172   4.800   8.385  0.1151 -0.1310  0.3661
24154SOL    HW177019   4.203   4.828   8.471 -0.2719 -1.5707  1.0172
24154SOL    HW277020   4.202   4.709   8.378  0.0562 -0.0651 -0.9840
24155SOL     OW77021   0.577   5.189  11.913 -0.2362  0.1351  0.2332
24155SOL    HW177022   0.635   5.199  11.837  0.5774  1.4728  1.0073
24155SOL    HW277023   0.497   5.237  11.889 -0.5272 -0.5799 -0.2885
24156SOL     OW77024   8.519   9.266  11.159 -0.1230  0.7800  0.1851
24156SOL    HW177025   8.457   9.338  11.161  0.2528  1.0912  0.6704
24156SOL    HW277026   8.517   9.229  11.247 -0.2592  0.2358 -0.0363
24157SOL     OW77027   9.266   2.723   8.861  0.1642  0.3530  0.5749
24157SOL    HW177028   9.270   2.631   8.888  0.3337 -0.5977 -2.3357
24157SOL    HW277029   9.358   2.747   8.848  0.0198  0.2058 -0.7902
24158SOL     OW77030   3.414   0.683   4.045 -0.1382 -0.0942  0.1746
24158SOL    HW177031   3.509   0.689   4.057 -0.1609  1.1301 -0.0659
24158SOL    HW277032   3.385   0.622   4.113  0.9611 -1.5307 -0.5942
24159SOL     OW77033   7.672   9.222   8.743 -0.6975  0.0922  0.4840
24159SOL    HW177034   7.732   9.193   8.674 -0.3631 -2.3077  1.6762
24159SOL    HW277035   7.675   9.318   8.739  2.8577  0.1016  0.1313
24160SOL     OW77036   2.151   6.625   7.173 -0.1449  0.2693  0.2471
24160SOL    HW177037   2.140   6.536   7.142  0.6445  0.7820 -1.6249
24160SOL    HW277038   2.064   6.664   7.167  0.0624  0.4990 -1.9177
24161SOL     OW77039   9.693   3.712   8.053 -0.0535 -0.0522  0.7236
24161SOL    HW177040   9.680   3.619   8.071 -2.3652 -0.1270 -0.8925
24161SOL    HW277041   9.645   3.728   7.971  0.9560  2.4013  0.5140
24162SOL     OW77042   7.400  10.569   0.552 -0.2460 -0.2413 -0.1986
24162SOL    HW177043   7.458  10.495   0.569  1.0281  0.0774 -2.6528
24162SOL    HW277044   7.452  10.646   0.574 -0.4648 -0.0074 -0.4908
24163SOL     OW77045   4.269   7.803   8.632  0.1512  0.3524 -0.6214
24163SOL    HW177046   4.305   7.871   8.689 -1.5799 -0.5899  1.7871
24163SOL    HW277047   4.233   7.851   8.558 -1.5859  2.2416  1.2940
24164SOL     OW77048   6.487   2.144  10.635  0.4270 -0.1457 -0.2954
24164SOL    HW177049   6.514   2.190  10.556  1.4582 -1.8762 -1.0123
24164SOL    HW277050   6.557   2.162  10.698 -1.0207  2.2987  0.7344
24165SOL     OW77051   2.535   7.634   1.600  0.0341 -0.1088 -0.5090
24165SOL    HW177052   2.472   7.562   1.586  0.9201 -1.6459  2.4596
24165SOL    HW277053   2.498   7.683   1.673  1.2178  0.2578 -0.1458
24166SOL     OW77054  10.069   8.207   4.469 -0.3113 -0.0658  0.3849
24166SOL    HW177055  10.065   8.113   4.486  0.9894 -0.5281 -1.5659
24166SOL    HW277056  10.161   8.230   4.481 -0.5151  0.8486  0.2793
24167SOL     OW77057   9.654   2.077   8.595 -0.3264  0.7388  0.1849
24167SOL    HW177058   9.581   2.113   8.546 -0.4287  0.3447  0.0469
24167SOL    HW277059   9.623   1.992   8.626 -0.4767  1.2319  1.4357
24168SOL     OW77060   0.131   3.698  10.278 -0.2410  0.4765  0.2941
24168SOL    HW177061   0.038   3.699  10.253  0.0829  0.3269 -0.9563
24168SOL    HW277062   0.178   3.706  10.195  0.9287 -2.2483  0.5823
24169SOL     OW77063  11.415   0.008   6.077 -0.6301 -0.6344 -0.1043
24169SOL    HW177064  11.373  -0.076   6.094 -1.6789  0.1812  1.6855
24169SOL    HW277065  11.346   0.073   6.094  0.6618  0.6480  0.4516
24170SOL     OW77066   8.731   5.197   6.312 -0.1224 -0.1136  0.0098
24170SOL    HW177067   8.673   5.122   6.298  1.0718 -1.0040 -0.2892
24170SOL    HW277068   8.712   5.255   6.238  0.9144 -1.4237 -1.3360
24171SOL     OW77069   0.132   6.053  10.940 -0.1814  0.3829 -0.9565
24171SOL    HW177070   0.041   6.025  10.931  0.0557 -0.1957 -1.6833
24171SOL    HW277071   0.168   5.995  11.006 -0.1225  0.0576 -1.2728
24172SOL     OW77072   1.223   4.705   2.453  0.7725  0.1828  0.4072
24172SOL    HW177073   1.289   4.672   2.514  1.0406 -0.3286 -0.1514
24172SOL    HW277074   1.139   4.685   2.496  0.8495 -2.6245 -0.5299
24173SOL     OW77075   3.673   4.528   8.299  0.1591 -0.2262 -0.3005
24173SOL    HW177076   3.739   4.506   8.364  0.2708  0.0101 -0.3359
24173SOL    HW277077   3.696   4.615   8.268  0.5939 -0.6604 -1.2547
24174SOL     OW77078  11.129   5.334  11.707  0.4641 -0.1336 -0.0568
24174SOL    HW177079  11.076   5.410  11.735 -0.1415  0.1317 -1.8275
24174SOL    HW277080  11.213   5.372  11.680  1.4661 -0.5059  2.2907
24175SOL     OW77081   3.292   3.161   9.072 -0.1601 -0.0745 -0.0091
24175SOL    HW177082   3.248   3.177   9.156  0.2306 -1.3382  0.4632
24175SOL    HW277083   3.378   3.202   9.082  0.2639 -1.0504  0.6211
24176SOL     OW77084  10.304   0.391   4.395  0.0715  0.2533  0.3690
24176SOL    HW177085  10.267   0.320   4.447  0.2231  0.7333  1.1405
24176SOL    HW277086  10.361   0.347   4.332  0.5829 -0.2884  1.1900
24177SOL     OW77087   8.120   2.784   8.669  0.4417 -0.2017 -0.1500
24177SOL    HW177088   8.106   2.867   8.715 -0.1876  0.5048 -1.5613
24177SOL    HW277089   8.134   2.809   8.578 -1.3279 -1.7184 -0.8991
24178SOL     OW77090   9.404   0.997   5.215 -0.3117 -0.3007 -0.6693
24178SOL    HW177091   9.493   1.031   5.216 -0.0552 -0.9154 -1.6498
24178SOL    HW277092   9.360   1.046   5.145 -1.2727  1.2281  0.9178
24179SOL     OW77093   7.478   6.308   9.531 -0.9188  0.2766 -0.0319
24179SOL    HW177094   7.515   6.226   9.564 -1.4240 -0.6633 -1.6866
24179SOL    HW277095   7.547   6.373   9.546  0.7112 -1.0579 -1.3221
24180SOL     OW77096   2.016  11.478   9.830  0.2333  0.2541  0.3368
24180SOL    HW177097   2.061  11.536   9.891  0.8146  0.9992 -0.7697
24180SOL    HW277098   1.952  11.534   9.787  0.7551  0.0692 -0.6970
24181SOL     OW77099  10.292   7.960   3.388 -0.2406 -0.1695 -0.0678
24181SOL    HW177100  10.352   8.034   3.386  0.1051 -0.4159  0.9347
24181SOL    HW277101  10.205   7.999   3.398 -0.1908  0.1454 -0.7492
24182SOL     OW77102  10.985  10.384   8.586 -0.1274 -0.2795 -0.0466
24182SOL    HW177103  10.952  10.474   8.593  0.0540 -0.2158  0.0113
24182SOL    HW277104  10.943  10.349   8.508  0.6316  0.2145 -0.6900
24183SOL     OW77105   8.380   1.121   3.179 -0.8534 -0.1017 -0.5959
24183SOL    HW177106   8.299   1.080   3.209  0.6220 -1.6032  1.7205
24183SOL    HW277107   8.444   1.050   3.179  0.8881  1.4020 -0.4711
24184SOL     OW77108   2.091  10.707   9.124 -0.3273  0.5256 -0.0847
24184SOL    HW177109   2.029  10.760   9.173 -0.2458  2.5183 -1.9830
24184SOL    HW277110   2.043  10.627   9.102 -1.3325  0.9007  0.6928
24185SOL     OW77111  10.612  10.950  10.374  0.3378 -0.1230  0.2354
24185SOL    HW177112  10.618  10.949  10.469  1.2254 -1.3653  0.1921
24185SOL    HW277113  10.569  11.033  10.353 -1.1267 -0.4500  1.7668
24186SOL     OW77114   4.000   8.693   1.269 -0.0428 -0.6023 -0.0674
24186SOL    HW177115   4.047   8.756   1.214 -0.3216 -0.0695  0.2905
24186SOL    HW277116   3.997   8.734   1.355  0.4184 -1.4431  0.3651
24187SOL     OW77117   7.377   3.183   7.003  0.1967 -0.1274 -0.1044
24187SOL    HW177118   7.432   3.113   7.037 -0.1562 -0.6199 -0.5426
24187SOL    HW277119   7.287   3.150   7.011  0.1025 -0.3162 -1.6123
24188SOL     OW77120   3.577   5.316   7.607 -0.1708  0.0771  0.1390
24188SOL    HW177121   3.539   5.336   7.521  0.0362  1.3373  0.3123
24188SOL    HW277122   3.671   5.327   7.594 -0.0491 -0.8149  0.2613
24189SOL     OW77123   5.069   4.175   6.744  0.0643 -0.0583 -0.1187
24189SOL    HW177124   5.129   4.172   6.670  0.9536 -0.1965  0.5826
24189SOL    HW277125   5.089   4.095   6.794 -0.9330 -0.2723 -0.0397
24190SOL     OW77126   9.557   2.954   6.250  0.0156  0.0117  1.0277
24190SOL    HW177127   9.556   3.041   6.289 -0.8951 -0.3365  1.8369
24190SOL    HW277128   9.486   2.956   6.186 -1.0531 -0.5619  2.1267
24191SOL     OW77129   9.209   2.117   9.154  0.0271  0.0193  0.5833
24191SOL    HW177130   9.266   2.190   9.129  1.4363 -1.0012  0.6913
24191SOL    HW277131   9.178   2.139   9.242  2.3029 -0.5329  1.5939
24192SOL     OW77132   3.716   3.459   3.568 -0.4760  0.1794  0.3109
24192SOL    HW177133   3.763   3.454   3.651 -0.8137  1.1068  0.5695
24192SOL    HW277134   3.634   3.413   3.584  0.3481 -1.5750 -0.1842
24193SOL     OW77135   9.526  10.019  10.902 -0.2213 -0.8872 -0.2483
24193SOL    HW177136   9.521  10.023  10.806 -0.1798 -0.6372 -0.2408
24193SOL    HW277137   9.449   9.967  10.928 -1.6004  1.0491 -0.2731
24194SOL     OW77138   7.457   2.087   1.651 -0.9870  0.5518  0.1952
24194SOL    HW177139   7.499   2.092   1.737 -0.5514 -2.3157  0.2426
24194SOL    HW277140   7.380   2.032   1.665 -1.0542  0.2605 -1.2238
24195SOL     OW77141   5.194   4.027   7.171  0.1021 -0.3796  0.2135
24195SOL    HW177142   5.115   4.023   7.117 -0.6317 -2.6816  1.2998
24195SOL    HW277143   5.179   4.101   7.230  0.0758  0.9727 -1.4149
24196SOL     OW77144   9.150  12.001  11.051 -0.4262 -0.0690  0.4157
24196SOL    HW177145   9.238  12.004  11.088 -0.8708 -0.8224  1.5616
24196SOL    HW277146   9.137  11.910  11.027 -1.0631 -0.0465  0.6683
24197SOL     OW77147   6.437  11.726   7.921 -0.1681 -0.5067  0.2402
24197SOL    HW177148   6.476  11.724   7.834  2.1306  0.1581  1.1830
24197SOL    HW277149   6.350  11.764   7.908  1.0965  2.0524 -1.4315
24198SOL     OW77150   9.557  11.644   8.428  0.0396 -0.2683  0.7069
24198SOL    HW177151   9.563  11.619   8.336  3.3955  0.7964  0.5356
24198SOL    HW277152   9.483  11.705   8.431 -0.4535 -0.7080 -1.1399
24199SOL     OW77153   9.591   6.821   4.685 -0.5996  0.0565 -0.0969
24199SOL    HW177154   9.528   6.890   4.666 -0.7954 -0.4190 -1.3342
24199SOL    HW277155   9.605   6.778   4.600  0.7312 -0.3973  0.3269
24200SOL     OW77156  11.422  10.340   7.330  0.4531 -0.6234 -0.1314
24200SOL    HW177157  11.439  10.331   7.424  2.0506  0.7285 -0.2245
24200SOL    HW277158  11.424  10.435   7.315  1.4323 -0.8541 -1.7030
24201SOL     OW77159   7.751   8.515   4.480 -0.0359  0.4538  0.7539
24201SOL    HW177160   7.821   8.490   4.419 -1.3476 -1.9327  0.1012
24201SOL    HW277161   7.678   8.540   4.424 -0.4688  0.6305  1.3879
24202SOL     OW77162   1.236   0.689   4.021 -0.0550 -0.4030 -0.1053
24202SOL    HW177163   1.325   0.690   4.057  0.0841 -0.8863 -0.4156
24202SOL    HW277164   1.248   0.700   3.927 -0.4053  0.6567 -0.0350
24203SOL     OW77165   6.993   9.290   4.153  0.4183 -0.2841 -0.6617
24203SOL    HW177166   7.051   9.289   4.076  0.0302  1.2219 -1.0044
24203SOL    HW277167   7.030   9.358   4.209 -0.0857 -0.4555 -0.1184
24204SOL     OW77168   1.250  12.097   6.527 -0.0559 -0.0294  0.2987
24204SOL    HW177169   1.342  12.115   6.511 -0.0596  0.2620  0.5851
24204SOL    HW277170   1.214  12.181   6.558 -0.3679 -0.1944  0.3907
24205SOL     OW77171   4.673  11.626   2.703  0.6654 -0.2013 -0.0584
24205SOL    HW177172   4.615  11.687   2.749  0.9767 -1.6155  2.3487
24205SOL    HW277173   4.616  11.555   2.674  0.4511  0.7338 -2.0812
24206SOL     OW77174   5.336   1.303   1.474 -0.2325  0.1119 -0.2543
24206SOL    HW177175   5.287   1.236   1.426  1.6766 -1.3610 -0.2214
24206SOL    HW277176   5.367   1.363   1.406 -1.0938  0.4188 -0.3882
24207SOL     OW77177   9.390   5.723   2.203 -0.2125 -0.7315  0.1573
24207SOL    HW177178   9.363   5.786   2.137 -2.2989 -1.3507  0.3442
24207SOL    HW277179   9.477   5.694   2.175 -0.0625  0.7316 -1.0063
24208SOL     OW77180  11.552   4.579   6.061  0.9504 -0.5149  0.0362
24208SOL    HW177181  11.505   4.658   6.088  0.5799 -0.2723 -1.2760
24208SOL    HW277182  11.628   4.575   6.120  0.9372  0.7759  0.1672
24209SOL     OW77183  10.963   9.840   2.435  0.1006 -0.3787  0.6778
24209SOL    HW177184  10.935   9.810   2.349  1.1503  1.1160 -0.2498
24209SOL    HW277185  11.057   9.855   2.425  0.2394 -0.1683  2.0893
24210SOL     OW77186   5.592   9.102   1.770  0.3970  0.2393  0.0048
24210SOL    HW177187   5.540   9.182   1.758 -0.2052 -0.1444  0.0473
24210SOL    HW277188   5.562   9.066   1.853  0.1852 -0.3902 -0.3371
24211SOL     OW77189   5.793   1.638   2.719  0.1897  0.3610  0.5432
24211SOL    HW177190   5.806   1.546   2.743  0.5662 -0.0778 -1.2527
24211SOL    HW277191   5.869   1.683   2.756  0.6620 -0.2591  0.3314
24212SOL     OW77192   7.052   3.272   7.006 -0.7261 -0.2818 -0.1506
24212SOL    HW177193   7.025   3.180   7.002  2.3225 -1.2401 -0.8338
24212SOL    HW277194   7.070   3.296   6.915  1.5133 -0.0420  0.3119
24213SOL     OW77195   2.213  10.186   2.047  0.7099  0.3505 -0.8431
24213SOL    HW177196   2.188  10.244   2.118  0.2923  0.7475 -1.3085
24213SOL    HW277197   2.152  10.112   2.053 -0.6222  1.3241 -1.9853
24214SOL     OW77198   4.124   9.990   6.361  0.2763  0.1941 -0.3456
24214SOL    HW177199   4.064  10.047   6.312 -0.2040 -0.7806 -0.9265
24214SOL    HW277200   4.175   9.945   6.294  0.3880 -0.3365  0.0891
24215SOL     OW77201   8.526   9.241  10.018 -0.5087 -0.6149  0.7580
24215SOL    HW177202   8.584   9.225  10.092  0.0700 -1.2507  0.1853
24215SOL    HW277203   8.438   9.229  10.054 -0.2016 -2.1829  1.0773
24216SOL     OW77204   6.972   7.048   3.843  0.2431  0.1506 -0.5482
24216SOL    HW177205   6.877   7.063   3.835  0.0077 -0.7168  0.3592
24216SOL    HW277206   7.010   7.135   3.833 -0.8250  0.8927  1.1784
24217SOL     OW77207   6.339   7.669   2.919 -0.0312 -0.6067 -0.0584
24217SOL    HW177208   6.386   7.724   2.981 -0.6132  1.0380 -1.0047
24217SOL    HW277209   6.379   7.582   2.928 -1.0353 -0.8641  3.6056
24218SOL     OW77210   0.585   2.576   1.406 -0.0560 -0.0048 -0.4237
24218SOL    HW177211   0.659   2.615   1.359 -0.6667  0.1557 -1.2755
24218SOL    HW277212   0.617   2.491   1.436 -0.0438 -0.6961 -2.2850
24219SOL     OW77213   5.044   7.635   4.449  0.0798  0.5704 -0.0654
24219SOL    HW177214   4.959   7.633   4.405  0.3286  2.1433 -0.6950
24219SOL    HW277215   5.066   7.544   4.465 -1.5443  0.1240 -0.2522
24220SOL     OW77216   9.720   2.097   2.979 -0.4967  0.0255  0.0254
24220SOL    HW177217   9.628   2.118   2.994 -0.8203  0.3303 -2.0560
24220SOL    HW277218   9.767   2.144   3.047 -1.7913  1.0818  0.2223
24221SOL     OW77219   2.465  10.274  11.588  0.1612 -0.1964 -0.3151
24221SOL    HW177220   2.541  10.235  11.630  0.7755  0.9442 -0.3257
24221SOL    HW277221   2.501  10.345  11.535 -0.9606  0.8371  0.2456
24222SOL     OW77222   3.879  11.711   1.216  0.3872  0.4349 -0.5815
24222SOL    HW177223   3.962  11.669   1.192  0.4828  0.5702 -0.4858
24222SOL    HW277224   3.838  11.649   1.276  0.0751  0.0188 -1.2088
24223SOL     OW77225   2.169  10.862   6.727  1.0431 -0.2314 -0.1213
24223SOL    HW177226   2.243  10.813   6.763  0.6482 -1.1881 -0.5722
24223SOL    HW277227   2.149  10.817   6.645 -0.5521 -0.4879  0.3852
24224SOL     OW77228   6.065   0.232   8.049  0.1348  0.0095 -0.1772
24224SOL    HW177229   6.124   0.268   8.115 -0.4318  0.0343  0.3335
24224SOL    HW277230   6.005   0.176   8.099 -0.8213  0.6798 -0.5370
24225SOL     OW77231   3.952   3.301   5.613 -0.2388 -0.0047 -0.6104
24225SOL    HW177232   3.869   3.329   5.654 -0.1562  1.8531 -1.6144
24225SOL    HW277233   3.941   3.207   5.599 -2.1185  0.1644 -0.5469
24226SOL     OW77234  10.092  10.909   9.339  0.0809  0.2938 -0.3638
24226SOL    HW177235  10.086  10.876   9.249  0.9092  0.4370 -0.4834
24226SOL    HW277236  10.057  10.838   9.393  1.0140 -0.4408 -0.6863
24227SOL     OW77237   6.254   7.974   1.390 -0.2385 -0.5678  0.4051
24227SOL    HW177238   6.246   7.984   1.485  0.1708  0.9011  0.3059
24227SOL    HW277239   6.333   7.921   1.378  1.0453  1.1676  0.8482
24228SOL     OW77240   7.771   4.154   3.782  0.4493 -0.7524 -0.8141
24228SOL    HW177241   7.795   4.075   3.830  0.0414 -1.0379 -1.0699
24228SOL    HW277242   7.825   4.223   3.820  0.3218 -1.0221 -0.1310
24229SOL     OW77243   2.440   0.492   5.346 -0.2506 -0.0083 -0.0514
24229SOL    HW177244   2.445   0.557   5.416 -0.7540  1.0950 -1.0145
24229SOL    HW277245   2.374   0.430   5.376 -1.0013  0.8626  0.1317
24230SOL     OW77246   3.818   6.901   8.620  0.5926  0.5942 -0.0145
24230SOL    HW177247   3.830   6.824   8.676 -0.7976  0.3275 -0.0448
24230SOL    HW277248   3.816   6.866   8.531 -1.7990  0.3740  0.0598
24231SOL     OW77249   2.760   2.451  11.420  0.4040  0.3436  0.2825
24231SOL    HW177250   2.784   2.538  11.453  1.5670  0.1168  0.0508
24231SOL    HW277251   2.790   2.451  11.329 -1.4314  0.4179 -0.3655
24232SOL     OW77252   3.875   6.025   6.525 -0.0179 -0.7688 -0.2385
24232SOL    HW177253   3.794   5.978   6.507  0.1490 -1.5274  0.8780
24232SOL    HW277254   3.863   6.060   6.613  0.8021 -0.7773 -0.1163
24233SOL     OW77255   5.778   7.159   3.131 -0.2593 -0.1503  0.1997
24233SOL    HW177256   5.699   7.208   3.150 -0.1817 -0.0522  0.2693
24233SOL    HW277257   5.757   7.109   3.052 -0.8704 -1.2265  1.0185
24234SOL     OW77258   1.720  10.830  12.040 -0.1634 -0.1310  0.4832
24234SOL    HW177259   1.787  10.889  12.006  0.4429 -1.1237 -0.1003
24234SOL    HW277260   1.648  10.888  12.064  0.1108  0.8014 -0.7803
24235SOL     OW77261   8.594  10.240   6.187 -0.4437 -0.4779 -0.1988
24235SOL    HW177262   8.525  10.204   6.131  1.5182 -1.4648 -2.1493
24235SOL    HW277263   8.552  10.310   6.237 -2.6957 -0.6915 -1.6925
24236SOL     OW77264   1.444   7.918   9.343  0.4626 -0.2401 -0.3410
24236SOL    HW177265   1.411   8.008   9.342  1.6041  0.2265  0.8699
24236SOL    HW277266   1.479   7.904   9.255 -2.3056 -0.5661 -1.5051
24237SOL     OW77267  11.608   7.744   6.256 -0.2093 -0.2052  0.1492
24237SOL    HW177268  11.673   7.811   6.279 -1.0635 -0.1374  2.6327
24237SOL    HW277269  11.618   7.733   6.161  3.8467 -0.6207  0.4364
24238SOL     OW77270   7.411   0.272   9.590 -0.0172 -0.1422  0.0689
24238SOL    HW177271   7.453   0.215   9.654  0.0874 -0.8237 -0.5893
24238SOL    HW277272   7.318   0.272   9.616  0.1121  0.0419  0.5449
24239SOL     OW77273   0.529   5.096   3.614 -0.2154  0.0546  0.3548
24239SOL    HW177274   0.497   5.022   3.667 -1.2388  0.0543 -0.2473
24239SOL    HW277275   0.469   5.167   3.634 -1.4756 -0.3322 -1.8291
24240SOL     OW77276   0.093   7.185   4.076 -0.9493  0.4746 -0.6885
24240SOL    HW177277   0.030   7.215   4.142  2.3242 -0.4662  3.2145
24240SOL    HW277278   0.078   7.091   4.070 -0.8821  0.4788 -0.9355
24241SOL     OW77279   0.923   1.393   6.829  0.5399 -0.1259  0.5340
24241SOL    HW177280   0.910   1.476   6.874  0.7044  0.9579 -1.3266
24241SOL    HW277281   0.853   1.336   6.862  1.3388  0.2002  2.9795
24242SOL     OW77282   5.077   1.822   8.394 -0.4074  0.3253  0.1038
24242SOL    HW177283   5.078   1.727   8.406  0.9102  0.0329 -1.8004
24242SOL    HW277284   5.045   1.857   8.477  0.2033 -1.7242  1.2639
24243SOL     OW77285   3.428   1.725  11.187  0.1800  0.1149 -0.3576
24243SOL    HW177286   3.414   1.703  11.279 -1.3145 -0.3633 -0.6668
24243SOL    HW277287   3.465   1.813  11.188 -0.6947  0.4834  0.6763
24244SOL     OW77288  11.428   0.683  10.636 -0.0088 -0.0473 -0.6961
24244SOL    HW177289  11.344   0.639  10.652  0.9468 -2.0761 -0.9638
24244SOL    HW277290  11.481   0.663  10.712  0.5465  0.4426 -0.9484
24245SOL     OW77291   3.281   6.582   3.308 -0.1004  0.4445  0.8520
24245SOL    HW177292   3.346   6.620   3.368  1.6414 -1.6069  0.3933
24245SOL    HW277293   3.287   6.635   3.229  1.5335 -0.0711  0.5907
24246SOL     OW77294   2.621  12.124   7.464  0.3216  0.0662  0.1863
24246SOL    HW177295   2.715  12.135   7.481  0.4165 -3.5943  3.4461
24246SOL    HW277296   2.615  12.047   7.409 -0.7858 -0.0768  0.4785
24247SOL     OW77297   0.563   3.931   3.966 -0.0150  0.4149  0.3706
24247SOL    HW177298   0.491   3.937   3.903  1.2319  2.4795 -0.9767
24247SOL    HW277299   0.642   3.948   3.914  1.1944  0.9437  2.2840
24248SOL     OW77300   0.496   1.993   4.731  0.6682  0.2100  0.4103
24248SOL    HW177301   0.551   1.917   4.745  1.0642  0.6029  1.0719
24248SOL    HW277302   0.416   1.975   4.782 -0.0520 -0.5779 -0.9469
24249SOL     OW77303   0.006   8.461   5.170 -0.5293 -0.0259  0.0199
24249SOL    HW177304  -0.059   8.527   5.145 -0.0699  0.0908 -0.9107
24249SOL    HW277305   0.004   8.398   5.098  0.4789  0.0463 -0.0866
24250SOL     OW77306  10.913  10.122   9.242  0.5090 -0.3362  0.0574
24250SOL    HW177307  10.873  10.130   9.329  0.1153  2.8994 -0.2715
24250SOL    HW277308  10.841  10.097   9.184  0.4595 -1.0789  0.4296
24251SOL     OW77309   8.292  11.701   9.616  0.1469 -0.1687  0.1274
24251SOL    HW177310   8.299  11.628   9.677  0.3206 -0.0730  0.2203
24251SOL    HW277311   8.378  11.708   9.575 -0.2174 -0.8160 -0.7980
24252SOL     OW77312   7.903  10.420   2.196 -0.1243  0.7773 -0.1114
24252SOL    HW177313   7.922  10.506   2.234  1.2797  1.0879 -1.3717
24252SOL    HW277314   7.808  10.413   2.197 -0.2263  2.0095  0.7428
24253SOL     OW77315   0.546   2.679   0.473 -0.6066  0.5324 -0.2021
24253SOL    HW177316   0.551   2.652   0.382 -2.2686 -0.8429  0.0589
24253SOL    HW277317   0.520   2.600   0.520  0.5064  1.1380  1.5205
24254SOL     OW77318   4.526   0.938   8.439 -0.2208 -0.3585 -0.6039
24254SOL    HW177319   4.557   0.875   8.504  0.2408  1.6861  1.2503
24254SOL    HW277320   4.451   0.894   8.397  1.2270 -2.8607 -0.7707
24255SOL     OW77321   0.498   4.566   6.239 -0.5125  0.1223  0.4536
24255SOL    HW177322   0.462   4.650   6.268 -0.1691  0.0790  1.0170
24255SOL    HW277323   0.440   4.500   6.278  0.5433  0.0278  1.9399
24256SOL     OW77324   7.843  11.964   9.356  0.2311 -0.5606  0.2644
24256SOL    HW177325   7.899  11.886   9.354  1.7610  0.5023 -1.3197
24256SOL    HW277326   7.868  12.014   9.278 -1.0092  1.3029  0.9826
24257SOL     OW77327   0.873  11.060  11.098 -0.5069  0.6647 -0.0850
24257SOL    HW177328   0.932  11.123  11.056  1.1803  0.1904  1.4311
24257SOL    HW277329   0.886  10.979  11.048 -1.6015  1.0965 -1.1331
24258SOL     OW77330   8.499   9.513   6.761 -0.2276  0.1334 -0.1925
24258SOL    HW177331   8.512   9.424   6.729 -0.9578  0.0118 -0.1809
24258SOL    HW277332   8.477   9.564   6.683  2.1440  0.7547 -0.5270
24259SOL     OW77333   3.392   1.217   3.292 -0.0817 -0.2777 -0.5542
24259SOL    HW177334   3.431   1.199   3.378 -1.1628  0.2700  0.0637
24259SOL    HW277335   3.311   1.166   3.291 -0.9240  1.0152 -0.5717
24260SOL     OW77336   9.905   0.382   3.985 -0.4120  1.0215 -0.0097
24260SOL    HW177337   9.921   0.418   4.072  1.4674  2.4577 -0.8938
24260SOL    HW277338   9.811   0.393   3.972 -0.6820  1.0588  1.6849
24261SOL     OW77339   7.411   2.394   4.230  0.7789  0.1702 -0.9538
24261SOL    HW177340   7.350   2.400   4.156 -0.4056  0.5766  0.0152
24261SOL    HW277341   7.407   2.481   4.271 -0.1611 -0.6225  0.7570
24262SOL     OW77342   6.379  10.059   0.775  0.2837 -0.1086  0.0193
24262SOL    HW177343   6.425  10.079   0.694 -0.2155 -1.2424 -0.5622
24262SOL    HW277344   6.401   9.967   0.793 -1.5539 -0.6165 -0.1695
24263SOL     OW77345   8.675   6.270   5.853 -0.0931 -0.2492  0.4591
24263SOL    HW177346   8.649   6.320   5.776  0.2059 -0.2510  0.3549
24263SOL    HW277347   8.758   6.309   5.881 -0.7370  0.4529  1.4232
24264SOL     OW77348   6.709   7.167   4.270 -0.3990  0.4359 -0.7816
24264SOL    HW177349   6.639   7.202   4.215 -2.5460 -2.6205 -0.2323
24264SOL    HW277350   6.749   7.098   4.217 -0.2975 -0.3340  0.2664
24265SOL     OW77351   1.939   9.925   8.631 -0.0126  0.8396  0.0298
24265SOL    HW177352   1.850   9.926   8.666  0.7941 -0.9236  2.3618
24265SOL    HW277353   1.989   9.874   8.694  2.1613 -0.3601 -2.4702
24266SOL     OW77354   6.657  10.780   6.646  0.1501 -0.0270 -0.6751
24266SOL    HW177355   6.590  10.734   6.595  0.0816  0.1012 -0.7017
24266SOL    HW277356   6.731  10.719   6.650  0.3059  0.1181 -1.2690
24267SOL     OW77357   0.181   3.669   9.797  0.4272 -0.3110  0.7572
24267SOL    HW177358   0.180   3.597   9.859 -2.4694 -0.0457  1.1373
24267SOL    HW277359   0.167   3.628   9.712 -0.8949 -0.2537  0.9353
24268SOL     OW77360   3.808   3.347   1.123  0.0722 -0.6529 -0.0774
24268SOL    HW177361   3.899   3.319   1.134  0.0836 -1.2094 -1.3404
24268SOL    HW277362   3.794   3.412   1.191  1.7552  0.2207 -0.5079
24269SOL     OW77363   9.706   9.080   1.682  0.4231  0.3709 -0.3365
24269SOL    HW177364   9.729   9.169   1.708 -0.4301  0.8351 -1.1108
24269SOL    HW277365   9.615   9.087   1.650 -0.2900 -1.1038  1.2456
24270SOL     OW77366   6.056   5.454   7.258 -0.3895 -0.2926 -0.1674
24270SOL    HW177367   6.067   5.425   7.349  1.5733  1.0023  0.0651
24270SOL    HW277368   6.144   5.479   7.230 -1.0912  0.0842 -2.1781
24271SOL     OW77369   9.784   7.025   5.968 -1.1018  0.2225  0.4718
24271SOL    HW177370   9.856   7.004   5.908 -1.0596  3.2848 -0.6913
24271SOL    HW277371   9.706   7.021   5.913 -1.5583 -0.5630  1.1445
24272SOL     OW77372   9.530   0.929   6.855  0.4566  0.2774  0.5308
24272SOL    HW177373   9.583   0.923   6.935  2.5314 -0.1776 -0.8008
24272SOL    HW277374   9.533   0.841   6.818  0.3114  0.7013 -0.5231
24273SOL     OW77375   5.866   4.180   7.659 -0.5180 -0.2389 -0.0079
24273SOL    HW177376   5.951   4.194   7.699 -0.7235  0.4299  0.2140
24273SOL    HW277377   5.879   4.107   7.599 -0.1821 -1.2231  1.2188
24274SOL     OW77378   2.563   4.779   8.617  0.4686  0.1587  0.1390
24274SOL    HW177379   2.568   4.697   8.666 -0.0714  0.0218 -0.0271
24274SOL    HW277380   2.500   4.761   8.548 -1.4041  1.4023  1.4476
24275SOL     OW77381  10.126  11.858   3.876 -0.2768  0.3117  0.0663
24275SOL    HW177382  10.215  11.834   3.901 -0.5946 -0.3548  0.5919
24275SOL    HW277383  10.099  11.923   3.941 -0.2694  0.3258  0.0556
24276SOL     OW77384   7.412   8.643  11.340  0.2365 -0.4408  0.1846
24276SOL    HW177385   7.418   8.723  11.287  0.9589 -0.9740 -0.5711
24276SOL    HW277386   7.322   8.641  11.370 -0.2328 -0.1481 -1.1096
24277SOL     OW77387   3.455  11.323   5.383  0.2730 -0.1558  0.4013
24277SOL    HW177388   3.386  11.389   5.378 -0.0136 -0.5370 -1.7228
24277SOL    HW277389   3.408  11.240   5.371  0.9731 -0.4932 -0.0503
24278SOL     OW77390   5.924   3.026   0.159 -0.4258  0.2028  0.0746
24278SOL    HW177391   5.929   3.087   0.086 -0.2638  0.8410  0.6172
24278SOL    HW277392   5.989   3.057   0.221 -0.8955 -0.0605  0.7028
24279SOL     OW77393  10.436   2.977   0.368  0.0655 -0.0285 -0.4465
24279SOL    HW177394  10.529   2.968   0.389  0.2876 -1.3146 -1.8167
24279SOL    HW277395  10.398   3.016   0.446  2.0100  2.0687 -0.4628
24280SOL     OW77396   4.050   4.308   2.728  0.1287 -0.0534  1.1391
24280SOL    HW177397   4.124   4.328   2.670 -0.2480 -0.7243  0.4019
24280SOL    HW277398   4.029   4.391   2.770  0.3358  0.4868  0.2019
24281SOL     OW77399   8.870  11.850   3.664 -0.3532 -0.0157  0.1679
24281SOL    HW177400   8.828  11.908   3.601 -1.7563 -1.6476 -0.5044
24281SOL    HW277401   8.933  11.799   3.611 -1.6890 -1.5412 -0.0315
24282SOL     OW77402   6.504   6.421   1.623  0.7622 -0.1519 -0.2766
24282SOL    HW177403   6.498   6.489   1.690  0.2421  0.4103 -0.8756
24282SOL    HW277404   6.595   6.425   1.593  1.3180 -1.1981  1.1815
24283SOL     OW77405   4.710   2.535   8.661  0.4218 -0.2380  0.4654
24283SOL    HW177406   4.637   2.596   8.653  0.0052 -0.5969  1.3538
24283SOL    HW277407   4.699   2.496   8.748  2.1784  0.3630  1.0109
24284SOL     OW77408   3.713  11.666   7.385  0.2377 -0.3517  0.1419
24284SOL    HW177409   3.785  11.644   7.444  0.5288  0.4503  0.1020
24284SOL    HW277410   3.756  11.687   7.302  0.0721  1.1992  0.4179
24285SOL     OW77411   5.496   3.746   8.885 -0.2993 -0.0882  0.0671
24285SOL    HW177412   5.461   3.673   8.835  0.3084 -1.7509  1.9320
24285SOL    HW277413   5.421   3.803   8.900 -1.0560 -0.9364 -0.4147
24286SOL     OW77414   8.262  11.574   6.628  0.3410  0.3238  0.4835
24286SOL    HW177415   8.202  11.618   6.689 -0.0184 -0.6791  0.8755
24286SOL    HW277416   8.349  11.606   6.653 -0.1189  3.7459 -1.6854
24287SOL     OW77417   9.407   5.302   3.952  0.0809  0.6296 -0.6599
24287SOL    HW177418   9.402   5.397   3.961 -0.3217  0.6996 -1.5049
24287SOL    HW277419   9.480   5.276   4.009 -0.1364  1.3782 -0.0218
24288SOL     OW77420   8.446   0.957   7.779 -0.2154  0.2022 -0.1335
24288SOL    HW177421   8.354   0.981   7.778 -0.3875 -0.4267  0.0773
24288SOL    HW277422   8.473   0.960   7.688 -0.3523  0.7272 -0.1592
24289SOL     OW77423   8.201   3.151   2.984 -0.2840  0.0435  0.0275
24289SOL    HW177424   8.285   3.128   3.024 -0.7856 -0.1237  1.0066
24289SOL    HW277425   8.189   3.243   3.006 -0.6602 -0.1038  0.4461
24290SOL     OW77426  10.037   3.787   5.862 -0.2706  0.5326  0.1622
24290SOL    HW177427   9.958   3.777   5.808  0.7758 -1.8047 -1.0694
24290SOL    HW277428  10.016   3.739   5.943 -0.6407  1.2505  0.5066
24291SOL     OW77429   8.901  10.510   4.613 -0.0840 -0.8401 -0.2987
24291SOL    HW177430   8.914  10.415   4.614  1.8590 -0.6315 -1.2500
24291SOL    HW277431   8.928  10.539   4.700 -0.5742 -1.1327 -0.0433
24292SOL     OW77432   5.613   7.241   2.231 -0.2763  0.4758 -0.4346
24292SOL    HW177433   5.536   7.292   2.257 -0.6901 -1.3530  2.2742
24292SOL    HW277434   5.643   7.199   2.311  2.7302 -0.0449 -1.6898
24293SOL     OW77435   0.883   3.309   3.008  0.3805 -0.6789  0.4550
24293SOL    HW177436   0.843   3.321   3.094 -1.3544 -1.0191 -0.2606
24293SOL    HW277437   0.894   3.214   3.000 -2.1229 -0.9290 -0.7828
24294SOL     OW77438   5.624   0.994   1.283 -0.7263  0.0759 -0.2409
24294SOL    HW177439   5.568   0.923   1.251  1.1737 -0.3731 -2.9492
24294SOL    HW277440   5.677   0.954   1.352  0.4345 -1.2838 -1.8442
24295SOL     OW77441   3.086   8.344   8.301 -0.3954  0.0857 -0.1996
24295SOL    HW177442   3.056   8.395   8.376  2.0880 -0.6645  1.4231
24295SOL    HW277443   3.027   8.268   8.298 -0.3240 -0.0416  1.2095
24296SOL     OW77444   8.699   0.919   6.097 -0.0748 -0.2534 -0.0381
24296SOL    HW177445   8.768   0.950   6.038 -1.1788 -2.5536 -2.7511
24296SOL    HW277446   8.736   0.840   6.137  0.4410  0.9646  1.9982
24297SOL     OW77447   9.001   8.380   6.638 -0.4204 -0.8787 -0.1025
24297SOL    HW177448   8.969   8.302   6.684  0.0799 -0.5523  0.8307
24297SOL    HW277449   9.042   8.346   6.559 -0.7679 -1.5101 -0.0198
24298SOL     OW77450   2.399   3.458   1.743  0.4290 -0.1585  0.2692
24298SOL    HW177451   2.375   3.452   1.836  0.3199 -0.4024  0.2257
24298SOL    HW277452   2.409   3.367   1.715 -0.2695 -0.1142 -0.1465
24299SOL     OW77453   9.362   8.436   8.287 -0.1270  0.4675 -0.3927
24299SOL    HW177454   9.331   8.429   8.378  0.5476  0.6993 -0.1388
24299SOL    HW277455   9.417   8.358   8.275  0.2853  0.7638 -0.4060
24300SOL     OW77456   8.289   5.761   6.397 -0.1700  0.4288 -0.6924
24300SOL    HW177457   8.223   5.738   6.331 -0.4809  2.0344 -0.9972
24300SOL    HW277458   8.367   5.784   6.345  0.0484  0.2949 -0.4251
24301SOL     OW77459   5.553   1.244   6.654 -0.2568 -0.2814  0.1560
24301SOL    HW177460   5.542   1.339   6.647  0.4900 -0.1581  0.5448
24301SOL    HW277461   5.624   1.224   6.593  1.0886 -0.2654  1.6512
24302SOL     OW77462  11.666   8.003   2.629 -0.4230  0.1586  0.7717
24302SOL    HW177463  11.580   7.979   2.594 -0.0582 -0.2954  0.1857
24302SOL    HW277464  11.705   8.058   2.562  0.1461 -0.4492  0.5990
24303SOL     OW77465  10.710   8.883   7.995 -0.4990  0.5234  0.1515
24303SOL    HW177466  10.734   8.818   8.061  0.8467  0.6062 -0.2253
24303SOL    HW277467  10.643   8.839   7.943  1.3519 -1.1832 -0.9513
24304SOL     OW77468   6.990   1.118   3.224  0.0776  0.0151  0.0528
24304SOL    HW177469   7.064   1.058   3.230  1.1791  1.2742 -0.6307
24304SOL    HW277470   6.916   1.062   3.199  1.0246 -1.0888 -0.3400
24305SOL     OW77471   4.019  11.858   9.934  0.8796 -0.1493 -0.4231
24305SOL    HW177472   3.927  11.835   9.929  1.3731 -1.9865 -2.5208
24305SOL    HW277473   4.038  11.901   9.851  1.9522  0.0371 -0.0990
24306SOL     OW77474   7.414  10.973   9.707  0.6776 -0.1992 -0.4110
24306SOL    HW177475   7.495  10.967   9.657 -0.8679 -0.8407 -2.9910
24306SOL    HW277476   7.348  11.002   9.644 -0.9308  1.4693  1.8483
24307SOL     OW77477   9.556   3.849   7.153  0.3710  0.7433 -0.0786
24307SOL    HW177478   9.553   3.799   7.235  0.3867  0.3962 -0.2838
24307SOL    HW277479   9.631   3.812   7.105 -0.1951  0.2995 -0.6452
24308SOL     OW77480   7.496   7.760   0.029 -0.4240  0.2786 -0.0161
24308SOL    HW177481   7.425   7.748   0.092 -0.5029  0.2356 -0.1123
24308SOL    HW277482   7.511   7.672  -0.007 -0.1732  0.2474  0.1633
24309SOL     OW77483   0.344   5.960   4.245 -0.1203  0.0040 -0.2490
24309SOL    HW177484   0.425   5.925   4.282 -0.4656 -0.1836  0.3442
24309SOL    HW277485   0.304   5.885   4.200 -0.1579 -0.0108 -0.1925
24310SOL     OW77486   2.060   8.643  10.901 -0.0501 -0.0834 -0.0303
24310SOL    HW177487   2.011   8.712  10.856  0.0100 -0.3600 -0.5287
24310SOL    HW277488   2.142   8.683  10.926  0.0661 -0.0274 -0.4951
24311SOL     OW77489   8.903  10.569   6.421 -0.6587  0.1638  0.3922
24311SOL    HW177490   8.996  10.594   6.424 -0.6481  0.1788  0.0309
24311SOL    HW277491   8.857  10.643   6.461 -0.8336  1.9051 -2.6707
24312SOL     OW77492   4.690   6.889   5.829 -0.5680 -0.5903  0.0095
24312SOL    HW177493   4.626   6.843   5.776 -2.0943  0.1855  1.0861
24312SOL    HW277494   4.775   6.854   5.802 -1.3298 -0.7100 -2.3879
24313SOL     OW77495   5.073   7.763  10.201  0.1199 -0.0690 -0.1232
24313SOL    HW177496   5.029   7.690  10.244  3.2013 -1.6090  0.6738
24313SOL    HW277497   5.142   7.723  10.149  3.1731  2.2218  1.8148
24314SOL     OW77498   8.275   5.923   1.822  0.2548 -0.4223 -0.1165
24314SOL    HW177499   8.287   6.009   1.863 -0.9631 -0.7914  1.1140
24314SOL    HW277500   8.275   5.861   1.895 -0.1941 -1.3128 -0.8461
24315SOL     OW77501   8.717   5.086  10.883  0.1703  0.1362 -0.6702
24315SOL    HW177502   8.759   5.117  10.963 -0.9139  0.8388 -0.3539
24315SOL    HW277503   8.730   4.991  10.884  0.5130  0.1853  0.1278
24316SOL     OW77504   9.777  10.460   9.674  0.2461  0.0427 -0.0227
24316SOL    HW177505   9.872  10.472   9.674  0.2247  0.2491 -0.7560
24316SOL    HW277506   9.745  10.514   9.602 -0.4988  0.4587  0.5952
24317SOL     OW77507   7.182   7.638  11.395  0.1909  0.2537 -0.3579
24317SOL    HW177508   7.136   7.569  11.349  0.9339 -0.1186 -0.5680
24317SOL    HW277509   7.180   7.612  11.487 -0.4712  0.5120 -0.2981
24318SOL     OW77510   3.595  10.226  10.644  0.2502  0.3711 -0.2341
24318SOL    HW177511   3.603  10.131  10.657 -0.2567  0.3862  0.1987
24318SOL    HW277512   3.685  10.255  10.626  0.5173 -0.0858  0.3322
24319SOL     OW77513  11.648   3.297  11.825  0.4227 -0.3336 -0.6349
24319SOL    HW177514  11.640   3.384  11.864 -0.0153 -1.2857  1.5440
24319SOL    HW277515  11.572   3.291  11.766 -1.4314 -0.3600  1.6240
24320SOL     OW77516  10.487   9.687  11.969  0.3745  0.0963 -0.2248
24320SOL    HW177517  10.528   9.739  11.900 -1.0240 -0.3406 -1.4390
24320SOL    HW277518  10.441   9.751  12.023 -0.8585  0.2148 -1.3728
24321SOL     OW77519   9.183   2.849   7.870  0.4032 -0.3110  0.0667
24321SOL    HW177520   9.193   2.755   7.851  0.7208 -1.2786  4.1410
24321SOL    HW277521   9.273   2.880   7.882  0.3190  0.6860 -1.5995
24322SOL     OW77522   7.524  11.419   3.563 -0.7009  0.1240  0.3053
24322SOL    HW177523   7.574  11.490   3.603  0.6605  0.2501 -1.4715
24322SOL    HW277524   7.589  11.365   3.519 -1.8997 -1.2095  0.0942
24323SOL     OW77525   1.264   0.013   0.148  0.3915  0.3724  0.1132
24323SOL    HW177526   1.314  -0.068   0.155  0.3289  0.1676 -1.5582
24323SOL    HW277527   1.191   0.001   0.209  0.4061 -0.8165 -0.0861
24324SOL     OW77528   9.174   6.992  11.479  0.1432  0.0999 -0.1009
24324SOL    HW177529   9.165   6.937  11.557 -1.2187 -0.0322 -0.3136
24324SOL    HW277530   9.085   6.995  11.443  0.8526 -0.2974 -1.9570
24325SOL     OW77531   6.350   8.934   3.381  0.2680 -0.6152  0.1394
24325SOL    HW177532   6.360   8.938   3.477  1.6593 -1.1659  0.0498
24325SOL    HW277533   6.322   9.022   3.356  0.2802 -0.3489  1.0241
24326SOL     OW77534   2.273   6.495   8.323 -0.1224  0.5941  0.0957
24326SOL    HW177535   2.198   6.500   8.383  0.0096 -1.6282  0.5336
24326SOL    HW277536   2.328   6.570   8.348 -1.7794  1.7998  0.3063
24327SOL     OW77537   4.001   9.036   4.699 -0.0550  0.1491  0.1851
24327SOL    HW177538   4.012   9.055   4.606 -0.3799  1.2656  0.3660
24327SOL    HW277539   3.931   8.971   4.702 -1.2114  1.3539 -0.2492
24328SOL     OW77540   1.350   4.739  11.772  0.3427 -0.1686  0.1527
24328SOL    HW177541   1.370   4.823  11.730 -1.6528  0.5206  0.4646
24328SOL    HW277542   1.288   4.762  11.842  0.2969 -1.8318  0.6879
24329SOL     OW77543   4.642   8.876   6.501  0.4841  0.1000 -0.0903
24329SOL    HW177544   4.620   8.783   6.506  0.6751  0.0910  0.7742
24329SOL    HW277545   4.730   8.878   6.464  0.6044 -0.0846  0.1799
24330SOL     OW77546   8.935   2.411   3.862  0.1084 -0.0781 -0.6091
24330SOL    HW177547   9.001   2.454   3.808  1.1954 -1.1640 -0.2080
24330SOL    HW277548   8.922   2.325   3.821  0.7467 -0.8126  0.6548
24331SOL     OW77549   6.088   6.013   5.480 -0.0177  0.4318 -0.3109
24331SOL    HW177550   6.100   5.927   5.520 -0.6258 -0.5687 -2.1579
24331SOL    HW277551   6.027   6.058   5.538  0.3796 -0.3152  0.7321
24332SOL     OW77552   1.308   7.466   4.070 -0.1863 -0.0978 -0.0893
24332SOL    HW177553   1.363   7.447   3.995 -1.1386 -0.7941 -0.6323
24332SOL    HW277554   1.242   7.527   4.037 -0.0426  0.3464  0.4266
24333SOL     OW77555   1.137   2.381   6.887  0.2620  0.3257  0.1166
24333SOL    HW177556   1.076   2.307   6.884  0.8976 -0.2372  0.6813
24333SOL    HW277557   1.193   2.363   6.963  1.1331  0.8128 -0.3917
24334SOL     OW77558  10.759   8.026   2.934 -0.1245 -0.2576  0.3180
24334SOL    HW177559  10.699   8.066   2.997 -1.6001 -0.2562 -1.0200
24334SOL    HW277560  10.793   7.949   2.980  0.7089  1.0136  1.9478
24335SOL     OW77561   1.415   0.650   0.784  0.7488  0.5017  0.2090
24335SOL    HW177562   1.490   0.626   0.838  0.2962 -0.3897  0.4681
24335SOL    HW277563   1.449   0.648   0.694  1.1050  0.3657  0.3435
24336SOL     OW77564   1.356   9.919   3.952 -0.2051 -0.3643 -0.1647
24336SOL    HW177565   1.313   9.855   3.897  2.8391 -1.2778 -1.7293
24336SOL    HW277566   1.369   9.995   3.895 -3.7429  1.8849  1.6492
24337SOL     OW77567   9.519   2.647   8.747 -0.2631  0.5409  0.1015
24337SOL    HW177568   9.487   2.561   8.719  2.3006 -1.6252  3.1654
24337SOL    HW277569   9.540   2.692   8.665 -0.2829 -2.3239 -1.6074
24338SOL     OW77570   2.840   3.223  11.326 -0.1675  0.0484 -0.0156
24338SOL    HW177571   2.744   3.216  11.319  0.0219 -1.6561 -1.5420
24338SOL    HW277572   2.872   3.200  11.239  1.6694 -0.2533  0.6982
24339SOL     OW77573   8.649  10.224   4.039  0.3495  0.0020  0.3594
24339SOL    HW177574   8.595  10.295   4.073  0.7729  0.7031 -0.4098
24339SOL    HW277575   8.729  10.228   4.092 -0.2266 -0.8923  1.3450
24340SOL     OW77576   4.790   3.892   9.337 -0.2751  0.1994  0.3952
24340SOL    HW177577   4.705   3.867   9.373 -1.4923  1.2368 -1.5301
24340SOL    HW277578   4.801   3.836   9.260  0.3083  0.7519  0.0668
24341SOL     OW77579   2.825   0.580   6.837  0.3171 -0.1767 -0.1736
24341SOL    HW177580   2.800   0.662   6.793 -0.6643 -0.2638  0.2084
24341SOL    HW277581   2.903   0.604   6.887  0.1731  0.4725 -0.2386
24342SOL     OW77582   5.736   0.919   3.074  0.3744  0.0085 -0.1657
24342SOL    HW177583   5.686   1.001   3.065 -1.3213 -1.1448 -2.4033
24342SOL    HW277584   5.813   0.933   3.019  0.9503  0.6494  0.7688
24343SOL     OW77585   4.602   8.061   2.294 -0.0530  0.2307  0.0701
24343SOL    HW177586   4.536   8.122   2.326 -0.4820 -0.4558  0.5213
24343SOL    HW277587   4.605   8.076   2.199 -0.7570  0.3577  0.0640
24344SOL     OW77588   4.066   7.157   4.915 -0.2115  0.0512  0.3533
24344SOL    HW177589   3.986   7.105   4.926  0.2782 -0.5886  0.9787
24344SOL    HW277590   4.135   7.102   4.953  0.5529  0.5199 -0.3426
24345SOL     OW77591   7.873   8.398   1.609 -0.4889 -0.5284  0.0348
24345SOL    HW177592   7.790   8.440   1.587 -0.4285 -0.6209 -0.3835
24345SOL    HW277593   7.927   8.411   1.531 -1.2101 -3.3413 -1.0764
24346SOL     OW77594   2.431   5.728   2.634 -0.1228  0.5234  0.0483
24346SOL    HW177595   2.515   5.688   2.655 -0.4713 -0.0098  0.4560
24346SOL    HW277596   2.430   5.734   2.539  0.2228  0.2048  0.0253
24347SOL     OW77597  12.013   4.605   5.734  0.0232 -0.3280 -0.7178
24347SOL    HW177598  11.988   4.514   5.717  2.4760 -0.6778 -3.0478
24347SOL    HW277599  12.067   4.601   5.813 -1.6325 -0.4928  0.4673
24348SOL     OW77600   2.657   8.804   0.420 -0.3792  0.1448 -0.3059
24348SOL    HW177601   2.692   8.881   0.465 -0.5297 -0.3495  0.6863
24348SOL    HW277602   2.573   8.832   0.385  0.1421  0.7963 -1.0801
24349SOL     OW77603  10.658  10.733  10.246  0.2682  1.2144  0.1212
24349SOL    HW177604  10.637  10.798  10.313  0.1400  1.4141 -0.1119
24349SOL    HW277605  10.610  10.654  10.273  0.2828  1.2704  0.3059
24350SOL     OW77606   6.371   9.610   5.072 -0.2011 -0.3166 -0.1977
24350SOL    HW177607   6.351   9.558   4.995  0.3734 -0.0680 -0.5272
24350SOL    HW277608   6.398   9.695   5.037  0.1486 -0.2275  0.2708
24351SOL     OW77609   9.491  10.432  10.030  0.0906  0.5868 -0.2033
24351SOL    HW177610   9.467  10.344  10.062  4.6670 -0.8052  0.0715
24351SOL    HW277611   9.483  10.425   9.935  0.3567 -0.1173 -0.1820
24352SOL     OW77612   7.324   0.421  10.814  0.5989 -0.2627 -0.1962
24352SOL    HW177613   7.371   0.439  10.733  0.2162  2.6014  0.1234
24352SOL    HW277614   7.371   0.471  10.881 -0.5832 -0.5005  0.8505
24353SOL     OW77615   0.704   1.691   2.388 -0.0809  0.4038  0.1132
24353SOL    HW177616   0.645   1.632   2.434  0.0331 -0.4735 -0.8187
24353SOL    HW277617   0.786   1.642   2.381  1.2323  2.0811  2.5154
24354SOL     OW77618   5.715   1.419   6.035 -0.3932  0.0649 -0.2686
24354SOL    HW177619   5.776   1.355   6.071 -1.1684 -1.2963 -1.3032
24354SOL    HW277620   5.762   1.502   6.041  1.0929 -0.7629  0.0616
24355SOL     OW77621   9.434   2.418  11.879 -0.1378 -0.0234 -0.2783
24355SOL    HW177622   9.524   2.436  11.906  0.4420 -1.3199 -1.2560
24355SOL    HW277623   9.412   2.334  11.920 -1.2679  0.6940  0.6984
24356SOL     OW77624  10.307   1.475  10.569 -0.0355  0.3577  0.2171
24356SOL    HW177625  10.398   1.472  10.541  0.4069  0.1904  1.5717
24356SOL    HW277626  10.308   1.531  10.647 -1.3555  1.6351 -0.6271
24357SOL     OW77627   4.395   2.024   5.373  0.4957 -0.4998 -0.2278
24357SOL    HW177628   4.345   2.055   5.298  1.0837  0.5201 -0.2072
24357SOL    HW277629   4.475   1.989   5.335  1.5930  1.6193  0.0087
24358SOL     OW77630   5.687   6.064   5.617 -0.2520  0.5135  0.1879
24358SOL    HW177631   5.710   6.022   5.534  2.6621  1.0694  0.6127
24358SOL    HW277632   5.747   6.026   5.681 -0.9094  1.7132  1.5837
24359SOL     OW77633   4.373   1.235   9.915 -0.4911 -0.3960  0.4786
24359SOL    HW177634   4.426   1.309   9.944  2.2714 -0.4368 -3.6510
24359SOL    HW277635   4.413   1.158   9.957  1.4464 -0.1902 -0.8751
24360SOL     OW77636   0.902   0.068  10.123 -0.0089 -0.4830  0.1769
24360SOL    HW177637   0.826   0.060  10.065 -0.0289 -0.6967  0.2329
24360SOL    HW277638   0.890  -0.002  10.188 -0.1036 -0.1112  0.5700
24361SOL     OW77639  11.571   8.902   1.836  0.1663 -0.5318  0.7183
24361SOL    HW177640  11.503   8.951   1.790  2.2518  3.4456  1.3588
24361SOL    HW277641  11.595   8.832   1.777  0.1400  2.0819 -2.6827
24362SOL     OW77642   0.902   2.396   4.333 -0.0263 -0.8412  0.6095
24362SOL    HW177643   0.978   2.387   4.276 -0.6119  0.5375 -0.4327
24362SOL    HW277644   0.827   2.392   4.274 -0.6440  0.6195  1.2534
24363SOL     OW77645   9.899   2.689   0.696 -0.7036  0.1118 -0.1133
24363SOL    HW177646   9.952   2.664   0.772  0.4190  1.4010 -0.4333
24363SOL    HW277647   9.918   2.622   0.630  2.0256  1.4886 -0.8640
24364SOL     OW77648   9.682   1.813  11.195 -0.0362 -0.7372  0.3920
24364SOL    HW177649   9.697   1.890  11.250  1.1799 -0.5881 -0.1087
24364SOL    HW277650   9.741   1.826  11.120 -1.8026 -0.8259 -1.0818
24365SOL     OW77651   6.419   9.969  11.099  0.0423  0.3394 -0.2057
24365SOL    HW177652   6.394  10.039  11.039  0.4755 -0.1453 -0.9671
24365SOL    HW277653   6.338   9.947  11.145  0.2648  2.6216  1.4494
24366SOL     OW77654  11.979   6.371   7.927  0.4448 -0.2970 -0.0252
24366SOL    HW177655  12.020   6.293   7.889 -0.8055 -0.0289 -2.1239
24366SOL    HW277656  12.040   6.442   7.907  0.7616 -0.4761  0.3068
24367SOL     OW77657   3.363  11.391   4.568 -0.1053  0.0094  0.3757
24367SOL    HW177658   3.451  11.358   4.551  0.1587  0.7461  0.2977
24367SOL    HW277659   3.376  11.480   4.599 -0.8897  0.5521 -0.8085
24368SOL     OW77660   4.854   8.682   6.537  0.6136  0.3730 -0.1684
24368SOL    HW177661   4.912   8.639   6.600  1.9449  1.7553 -0.4064
24368SOL    HW277662   4.793   8.613   6.510  2.3720 -1.2571 -0.1990
24369SOL     OW77663  11.782   6.751  10.195 -0.5552  0.2143 -0.1414
24369SOL    HW177664  11.872   6.782  10.207 -1.1106  0.7533  4.4940
24369SOL    HW277665  11.789   6.655  10.202 -0.3335  0.2784  0.6183
24370SOL     OW77666  11.084   1.624   4.023  0.0116  0.0777 -0.5963
24370SOL    HW177667  11.083   1.572   4.103  0.7620  0.9300 -0.0182
24370SOL    HW277668  11.177   1.640   4.005 -0.1660  0.2745 -1.3796
24371SOL     OW77669   5.646  10.603   1.746 -0.5205  0.4375  0.3026
24371SOL    HW177670   5.739  10.582   1.739 -0.9769 -1.2470 -2.3497
24371SOL    HW277671   5.610  10.533   1.800 -0.5229 -0.0093 -0.2703
24372SOL     OW77672   2.235   7.431   2.506  0.9098 -0.4707  0.0123
24372SOL    HW177673   2.236   7.382   2.423  1.5263 -0.3688 -0.0461
24372SOL    HW277674   2.280   7.513   2.486 -1.8914  1.0920 -0.4390
24373SOL     OW77675   8.965   8.163   5.187 -0.1827 -0.0918 -0.0043
24373SOL    HW177676   8.998   8.116   5.264 -2.0018 -0.1331  0.7820
24373SOL    HW277677   9.039   8.163   5.126  1.0485 -0.7315  1.4295
24374SOL     OW77678  11.742   4.520   0.563  0.0796  0.1209  0.6311
24374SOL    HW177679  11.831   4.489   0.543  0.2555  0.6507  0.5619
24374SOL    HW277680  11.751   4.564   0.647  0.2004  1.4653 -0.0590
24375SOL     OW77681   1.907   7.686   1.308  0.0463 -0.8095  0.5972
24375SOL    HW177682   1.903   7.773   1.348  0.5210 -0.7037  0.4181
24375SOL    HW277683   1.996   7.656   1.325  0.0893 -0.9828  0.0718
24376SOL     OW77684   9.102   9.403   3.231  0.8274 -0.6468 -0.6614
24376SOL    HW177685   9.191   9.368   3.232  1.7748  1.6297 -0.6263
24376SOL    HW277686   9.079   9.411   3.323  0.8302 -0.6428 -0.6610
24377SOL     OW77687  10.508   2.035   7.791  0.5406  0.3204 -0.0720
24377SOL    HW177688  10.430   2.089   7.796 -0.6222 -1.3104  0.1621
24377SOL    HW277689  10.554   2.051   7.873  0.3558  1.1242 -0.1164
24378SOL     OW77690  11.665   7.115   8.107 -0.3991  0.1245  0.5623
24378SOL    HW177691  11.666   7.172   8.030 -0.0260 -0.1645  0.3466
24378SOL    HW277692  11.600   7.153   8.165 -1.3459 -0.1688 -0.2886
24379SOL     OW77693   0.249   8.203   1.827 -0.4430  0.4236  0.0125
24379SOL    HW177694   0.275   8.160   1.746  1.3369 -0.9286  1.2181
24379SOL    HW277695   0.302   8.161   1.895 -1.0935  2.2223  1.7516
24380SOL     OW77696   4.407  10.975   5.275 -0.3813 -0.4255  0.2957
24380SOL    HW177697   4.419  11.012   5.187 -0.2393 -2.6925 -0.7231
24380SOL    HW277698   4.313  10.961   5.283 -0.5138  0.7337  0.9603
24381SOL     OW77699   2.439   5.723   5.274  0.0277  0.2016  0.1903
24381SOL    HW177700   2.462   5.794   5.214  2.0447  0.2118  0.8819
24381SOL    HW277701   2.353   5.693   5.245  0.6410  0.6294 -2.2738
24382SOL     OW77702   2.387   2.135   9.734 -0.3059  0.2668 -0.1504
24382SOL    HW177703   2.408   2.041   9.733 -1.3642  0.0119  0.0270
24382SOL    HW277704   2.408   2.165   9.646 -0.0469 -0.1635 -0.2404
24383SOL     OW77705   1.504   1.227   7.891 -0.0334  0.2891 -0.1164
24383SOL    HW177706   1.450   1.149   7.883 -1.1469  1.0593 -0.3648
24383SOL    HW277707   1.467   1.275   7.965  1.2178  0.1586  0.6366
24384SOL     OW77708   9.634   8.346  10.258  0.6810  0.2945 -0.1208
24384SOL    HW177709   9.639   8.406  10.332  0.9769  1.9767 -1.4253
24384SOL    HW277710   9.718   8.358  10.212  0.3239 -0.3679 -0.9661
24385SOL     OW77711  11.174   7.770   2.969 -0.0189 -0.1995  0.3313
24385SOL    HW177712  11.162   7.795   2.877  0.3547  1.6639  0.7406
24385SOL    HW277713  11.262   7.734   2.973  0.8500  1.8136  0.3238
24386SOL     OW77714   1.731   5.669   2.120 -0.3737  0.5720  0.0292
24386SOL    HW177715   1.823   5.655   2.142 -0.4522 -0.7760 -0.3770
24386SOL    HW277716   1.711   5.600   2.057 -2.1039 -0.2331  1.3628
24387SOL     OW77717   0.142   3.287   3.482 -0.2164  0.6529  0.2136
24387SOL    HW177718   0.097   3.354   3.533  1.8322  1.2238  1.4109
24387SOL    HW277719   0.152   3.213   3.543  1.7900  1.1438  0.5715
24388SOL     OW77720  10.559   3.959   8.729  0.3206  0.0376 -0.2585
24388SOL    HW177721  10.511   3.983   8.808  0.2008 -0.5974 -0.1313
24388SOL    HW277722  10.513   4.005   8.659 -2.2643 -2.6687 -0.5216
24389SOL     OW77723   7.028   5.960   8.644  0.8414  0.0810 -0.4824
24389SOL    HW177724   7.100   5.902   8.670  0.4691 -0.2147 -0.0986
24389SOL    HW277725   7.054   5.993   8.558 -0.1149 -2.7097 -1.9761
24390SOL     OW77726   4.112   3.462   7.654  0.4761 -0.5515 -0.2376
24390SOL    HW177727   4.057   3.410   7.713 -0.7343 -0.0392 -0.8707
24390SOL    HW277728   4.092   3.552   7.676  1.2031 -0.3490 -0.3728
24391SOL     OW77729   5.946   7.981   0.176  0.2523 -0.1105 -0.2013
24391SOL    HW177730   6.010   8.038   0.218  0.7763 -0.6702 -0.2230
24391SOL    HW277731   5.923   7.916   0.243 -0.3714  0.1405 -0.1615
24392SOL     OW77732   3.194   3.854   5.643 -0.2841  0.4886 -0.2142
24392SOL    HW177733   3.288   3.840   5.652 -0.3016  0.2805 -0.3556
24392SOL    HW277734   3.154   3.801   5.712 -0.3409 -0.0503 -0.6510
24393SOL     OW77735   0.645   1.819   4.388  0.4264 -0.5011 -0.7018
24393SOL    HW177736   0.690   1.770   4.457  1.1715  0.1720 -0.6914
24393SOL    HW277737   0.604   1.751   4.334  1.8297 -1.1937 -0.9690
24394SOL     OW77738   8.836   2.292   9.260  0.2457 -0.1196 -0.1238
24394SOL    HW177739   8.813   2.206   9.225  0.8294 -1.0975  1.7745
24394SOL    HW277740   8.857   2.345   9.183  0.0340 -1.7105 -1.3160
24395SOL     OW77741   9.161  11.309   4.790 -0.3454 -0.7567  0.3972
24395SOL    HW177742   9.233  11.338   4.733 -0.5271  0.1631  0.6128
24395SOL    HW277743   9.161  11.214   4.783  0.3283 -0.7133 -0.2963
24396SOL     OW77744   7.399   6.771   2.594  0.0291 -0.1846 -0.2757
24396SOL    HW177745   7.483   6.728   2.576  0.7897  1.6322 -1.4059
24396SOL    HW277746   7.414   6.819   2.675 -0.8823 -2.1046  1.0962
24397SOL     OW77747   0.296   9.502   0.382  0.5080  0.2564  0.3583
24397SOL    HW177748   0.215   9.552   0.376  1.2270  1.5761  1.0890
24397SOL    HW277749   0.272   9.422   0.430 -0.6213 -0.0344 -0.6543
24398SOL     OW77750   2.398   7.289   8.686  0.5815 -0.0689 -0.3295
24398SOL    HW177751   2.432   7.212   8.641  0.8461  0.4642 -1.0584
24398SOL    HW277752   2.474   7.324   8.734  0.7683  0.4189 -0.9688
24399SOL     OW77753   7.544   6.128   2.914  0.5133  0.2751  0.7998
24399SOL    HW177754   7.484   6.053   2.911  0.7951 -0.0242  2.0875
24399SOL    HW277755   7.486   6.204   2.920  0.2359  0.1320  0.0707
24400SOL     OW77756  10.780   5.647  11.990 -0.5901  0.4107 -0.2976
24400SOL    HW177757  10.691   5.648  12.027 -0.8389  2.2894 -0.8213
24400SOL    HW277758  10.837   5.663  12.066 -1.0861  4.0798 -0.5034
24401SOL     OW77759   0.503   2.501   2.835  0.0922  0.5717  0.6275
24401SOL    HW177760   0.409   2.511   2.819  0.0982 -1.1240 -0.6427
24401SOL    HW277761   0.540   2.586   2.811 -1.0702  1.1769  0.8938
24402SOL     OW77762   8.905  11.092  11.830 -0.1174  0.0937  0.1202
24402SOL    HW177763   8.909  11.017  11.890  0.3811  1.6242  2.1390
24402SOL    HW277764   8.856  11.060  11.755  2.6022 -3.1254 -0.5043
24403SOL     OW77765   6.911   5.610   0.993  0.3582 -0.1793  0.0465
24403SOL    HW177766   6.925   5.682   1.055 -0.6321  0.8623 -0.9163
24403SOL    HW277767   6.918   5.650   0.907  2.3568 -1.7314 -0.6043
24404SOL     OW77768  10.908   5.106   7.113  0.1734 -0.3181 -0.2459
24404SOL    HW177769  10.951   5.044   7.055  0.3574 -0.5424  0.1324
24404SOL    HW277770  10.899   5.060   7.196  0.1158  0.0828 -0.0269
24405SOL     OW77771   5.035   6.346   2.694 -0.0814 -0.0735  0.2246
24405SOL    HW177772   5.102   6.368   2.758  1.1302 -3.1513  0.1514
24405SOL    HW277773   4.955   6.385   2.729  1.5473  3.3925  0.5083
24406SOL     OW77774   7.035   9.966   7.877  0.7107 -0.1146 -0.0770
24406SOL    HW177775   6.966   9.905   7.902 -1.1821  1.7941 -0.3781
24406SOL    HW277776   7.095   9.967   7.951 -0.0280 -1.2100  0.5584
24407SOL     OW77777  11.463   9.400   5.286 -0.6828 -0.4123  0.0306
24407SOL    HW177778  11.435   9.318   5.245 -0.9651 -1.1203  1.5952
24407SOL    HW277779  11.533   9.375   5.346 -2.5808 -0.0006  2.6011
24408SOL     OW77780   1.761  11.206  10.463  0.1696 -0.1871  0.1088
24408SOL    HW177781   1.670  11.176  10.460  0.7078 -1.9110 -0.0753
24408SOL    HW277782   1.755  11.300  10.444 -1.7048  0.1189  1.7911
24409SOL     OW77783   2.831   3.478  11.616  0.2418 -0.1040 -0.6131
24409SOL    HW177784   2.903   3.420  11.591  1.0614  0.7501 -0.2753
24409SOL    HW277785   2.873   3.551  11.661 -0.8545  0.3315 -0.2557
24410SOL     OW77786   4.586   1.671   1.235  0.0028  0.1992  0.1623
24410SOL    HW177787   4.636   1.628   1.166 -0.7669  0.9488 -0.8866
24410SOL    HW277788   4.588   1.609   1.308  3.1230  0.5190  0.4842
24411SOL     OW77789   4.425   0.092   8.419  0.1954 -0.5194 -0.0657
24411SOL    HW177790   4.454   0.070   8.330  2.9244 -1.8369  1.0181
24411SOL    HW277791   4.500   0.069   8.475 -1.4886  0.0495  2.6168
24412SOL     OW77792   6.618  11.098   2.721 -0.1286 -0.0524 -0.5743
24412SOL    HW177793   6.662  11.020   2.756  0.8538  1.3348  1.5059
24412SOL    HW277794   6.533  11.099   2.767 -0.6508 -0.5158 -1.5058
24413SOL     OW77795   4.420   9.003   6.373  0.2538  0.0613  0.1841
24413SOL    HW177796   4.372   9.076   6.412 -0.4264 -1.1920  1.7917
24413SOL    HW277797   4.493   8.987   6.432  1.9712  1.0729 -1.5396
24414SOL     OW77798   2.280   2.486   5.918  0.3976  0.4042 -0.0898
24414SOL    HW177799   2.212   2.473   5.852  1.6891 -0.0619 -1.3983
24414SOL    HW277800   2.233   2.508   5.998 -1.2041  1.4553 -1.2726
24415SOL     OW77801   1.679   6.790   4.512 -0.0837 -0.1497 -0.0210
24415SOL    HW177802   1.615   6.796   4.441 -0.9151  0.4877  0.7597
24415SOL    HW277803   1.760   6.825   4.475 -0.3676 -0.3062 -0.8061
24416SOL     OW77804   8.766   3.802   1.558  0.0838  0.0955 -0.5544
24416SOL    HW177805   8.818   3.757   1.492  1.5202  0.4632  0.3015
24416SOL    HW277806   8.741   3.885   1.517 -1.0150 -0.6378 -1.4533
24417SOL     OW77807   0.328  10.032   7.837  0.7394 -0.1782 -0.7794
24417SOL    HW177808   0.300  10.123   7.834  0.9035 -0.0810  0.1391
24417SOL    HW277809   0.423  10.036   7.823  1.2835  0.1440  2.2057
24418SOL     OW77810   9.131  11.926   0.491  0.1856 -0.0849 -0.2419
24418SOL    HW177811   9.118  11.994   0.557  0.3859  0.5232 -0.8138
24418SOL    HW277812   9.220  11.895   0.505  0.5114  0.6094 -0.7293
24419SOL     OW77813  10.002   6.404   2.603  0.2228  0.2344  0.5256
24419SOL    HW177814   9.992   6.312   2.582  1.0078 -0.1525  1.7171
24419SOL    HW277815   9.935   6.449   2.551  0.6174 -0.8611 -0.9659
24420SOL     OW77816  11.282   5.032   6.778 -0.1314  0.0017  0.0040
24420SOL    HW177817  11.220   4.984   6.833 -1.3124 -0.8337 -1.9483
24420SOL    HW277818  11.361   5.040   6.833 -1.6347  0.3696  2.2563
24421SOL     OW77819  11.296  10.977   4.061 -0.2711 -0.0508  0.2684
24421SOL    HW177820  11.217  10.930   4.090 -1.6569  1.9315 -0.0524
24421SOL    HW277821  11.304  11.049   4.122 -0.3892  1.4055 -1.3651
24422SOL     OW77822   8.314   2.693   4.549  0.2266 -1.0463  0.2249
24422SOL    HW177823   8.350   2.701   4.638 -0.8479  0.0759  0.5767
24422SOL    HW277824   8.224   2.663   4.562 -0.1131 -0.3495 -0.4545
24423SOL     OW77825   8.789   6.524   3.313 -0.4188  0.3500  0.2496
24423SOL    HW177826   8.739   6.605   3.297 -0.3653  0.3568  0.1138
24423SOL    HW277827   8.824   6.535   3.401 -0.0323  0.6794  0.0591
24424SOL     OW77828  10.281   2.137  11.214  0.1490  0.1903 -0.2056
24424SOL    HW177829  10.331   2.125  11.295  1.2476  0.5379 -0.8165
24424SOL    HW277830  10.343   2.117  11.144 -0.7374  0.0596 -0.9797
24425SOL     OW77831  10.189  11.772   4.479 -0.5861 -0.0097  0.0202
24425SOL    HW177832  10.169  11.753   4.570 -0.2055  1.2384  0.3819
24425SOL    HW277833  10.167  11.692   4.432  1.5242 -1.5679  1.5115
24426SOL     OW77834   0.278   1.480  10.366 -0.1963  0.0178  0.2303
24426SOL    HW177835   0.366   1.451  10.389 -0.7111 -0.8119  1.2119
24426SOL    HW277836   0.244   1.520  10.446 -0.4257  1.0953 -0.3786
24427SOL     OW77837   6.400   2.832   7.803  0.2444  0.4270  0.8964
24427SOL    HW177838   6.403   2.897   7.873  0.0741 -0.1841  1.4772
24427SOL    HW277839   6.490   2.798   7.798 -0.3217 -1.6154  2.8383
24428SOL     OW77840   4.524   2.096   8.237  0.1508 -0.0217 -0.1444
24428SOL    HW177841   4.568   2.013   8.222 -0.4844 -0.1313 -1.5486
24428SOL    HW277842   4.434   2.073   8.257  0.3234  0.2754  1.0371
24429SOL     OW77843   1.006   5.976   9.649 -0.3008 -0.3060 -0.3891
24429SOL    HW177844   0.937   5.915   9.674  0.9327 -0.7780  2.1342
24429SOL    HW277845   1.082   5.921   9.629  0.8518  0.2664  2.0002
24430SOL     OW77846   7.771   2.525   8.305 -0.3770  0.1003  0.8555
24430SOL    HW177847   7.838   2.471   8.348  0.8308 -0.3998 -1.5141
24430SOL    HW277848   7.749   2.478   8.225 -1.3711  1.7741  0.0857
24431SOL     OW77849   2.006   4.815   2.862  0.5264 -0.6158 -0.0817
24431SOL    HW177850   1.955   4.867   2.925  1.4273  0.3338 -0.1119
24431SOL    HW277851   2.091   4.805   2.904  0.8860 -0.6492 -0.8148
24432SOL     OW77852   7.328   9.003   2.169  0.4139  0.2741 -0.3668
24432SOL    HW177853   7.383   8.935   2.209  0.5587  0.0367 -0.9579
24432SOL    HW277854   7.259   9.018   2.233 -0.4641 -1.4853 -0.8275
24433SOL     OW77855   8.261   4.544   1.978 -0.9032 -0.1326 -0.4507
24433SOL    HW177856   8.207   4.548   1.899  0.6226  1.3300 -1.5138
24433SOL    HW277857   8.268   4.635   2.007  0.7026 -0.3136 -0.1863
24434SOL     OW77858   5.522   7.825   7.015  0.0626 -0.1496 -0.7162
24434SOL    HW177859   5.525   7.867   7.101  0.6905  0.4936 -1.0431
24434SOL    HW277860   5.453   7.873   6.968  3.5888  3.6592 -2.6210
24435SOL     OW77861   0.184   7.953   2.009  0.3907  0.0589  0.1278
24435SOL    HW177862   0.113   8.003   2.048  0.0091 -0.0342 -0.4387
24435SOL    HW277863   0.158   7.861   2.020 -0.5669  0.0417 -1.8409
24436SOL     OW77864   7.536   1.001   8.148  0.4443  0.1212  0.2797
24436SOL    HW177865   7.631   1.013   8.138  0.8749 -0.9478  2.5954
24436SOL    HW277866   7.511   0.948   8.072  1.5642  0.9506 -0.7065
24437SOL     OW77867   2.724  10.372   5.838 -0.0764  0.5795 -0.2069
24437SOL    HW177868   2.705  10.436   5.768  1.8208  0.7939 -0.5866
24437SOL    HW277869   2.710  10.287   5.796  0.9377  0.7080 -0.8392
24438SOL     OW77870   1.656   2.703   8.947 -0.2441  0.8901  0.1591
24438SOL    HW177871   1.607   2.731   8.870 -2.6974 -0.5808  1.0524
24438SOL    HW277872   1.590   2.663   9.004  1.8145  0.0268  2.1031
24439SOL     OW77873   1.886   7.868   8.229  0.0381 -0.0954 -0.0284
24439SOL    HW177874   1.907   7.901   8.317 -0.3268 -2.8191  1.2024
24439SOL    HW277875   1.895   7.773   8.237 -0.6738 -0.4751 -2.7903
24440SOL     OW77876   5.509   0.861   2.786  0.3171  0.9653  0.1542
24440SOL    HW177877   5.573   0.841   2.717 -1.4923 -0.0329 -1.3409
24440SOL    HW277878   5.483   0.776   2.820 -1.1861  1.2420 -0.2295
24441SOL     OW77879  11.081   7.922   7.396 -0.1827  0.1414 -0.1467
24441SOL    HW177880  11.108   8.005   7.436  0.9153 -0.7484  1.0856
24441SOL    HW277881  10.988   7.931   7.380  0.1168  2.0052 -1.0637
24442SOL     OW77882   4.312   6.887   7.266  0.3704  0.1268  0.6444
24442SOL    HW177883   4.399   6.921   7.289 -0.6860  1.4102  3.2252
24442SOL    HW277884   4.269   6.960   7.222  0.2435 -0.1046  0.3887
24443SOL     OW77885   1.844   3.534   2.117  0.3168  0.1365  0.2970
24443SOL    HW177886   1.916   3.552   2.177  1.2069 -2.7319  0.2473
24443SOL    HW277887   1.883   3.483   2.046 -1.2466  1.0303 -1.2841
24444SOL     OW77888   1.002   9.276   4.903 -0.4956  0.0344  0.6140
24444SOL    HW177889   0.964   9.190   4.885 -1.0218  0.2616  0.6003
24444SOL    HW277890   1.027   9.272   4.995  0.5223 -0.5130  0.3207
24445SOL     OW77891   2.697   5.108   3.194 -0.2727  0.1085 -0.7743
24445SOL    HW177892   2.607   5.124   3.221  0.5434  1.5019  1.4503
24445SOL    HW277893   2.729   5.042   3.255  0.8627  1.4258  0.1432
24446SOL     OW77894   7.046   3.622   4.456  0.5293 -0.0015  0.2381
24446SOL    HW177895   7.050   3.559   4.384 -0.3704  0.4222 -0.1907
24446SOL    HW277896   6.964   3.601   4.501  0.7647  0.1645  0.7511
24447SOL     OW77897  10.306  11.178   0.904 -0.1920 -0.7238  0.1312
24447SOL    HW177898  10.338  11.093   0.933  1.3543 -0.6283 -1.1452
24447SOL    HW277899  10.285  11.225   0.985 -0.8418 -2.1948  0.8642
24448SOL     OW77900   8.924  10.802  11.939  0.1032 -0.1833  0.0710
24448SOL    HW177901   8.839  10.843  11.924  0.5787  0.8801  0.1750
24448SOL    HW277902   8.926  10.729  11.877 -0.8962 -0.2447  0.0943
24449SOL     OW77903  11.376   5.912   1.626  0.2489  0.0459  0.0560
24449SOL    HW177904  11.333   5.834   1.662 -1.3554 -0.1417 -2.0809
24449SOL    HW277905  11.467   5.903   1.652  0.1741 -2.6820 -0.3045
24450SOL     OW77906   3.077   2.374   7.554  0.1145 -0.0617  0.1067
24450SOL    HW177907   3.129   2.419   7.487  0.9775 -1.3662 -0.1460
24450SOL    HW277908   2.998   2.426   7.562 -0.4314 -0.3223 -2.5978
24451SOL     OW77909   7.971   5.435   7.060 -0.0446 -1.0097 -0.3599
24451SOL    HW177910   8.066   5.429   7.050 -0.0041  0.3269 -0.9461
24451SOL    HW277911   7.948   5.521   7.025 -1.6192 -1.7521 -1.2548
24452SOL     OW77912   0.638   6.098   2.047 -0.1423  0.1238 -0.4698
24452SOL    HW177913   0.615   6.033   1.981 -0.1723 -0.1345 -0.2079
24452SOL    HW277914   0.712   6.058   2.095 -0.3300  0.1661 -0.1414
24453SOL     OW77915  11.199   9.699   9.382 -0.0725 -0.3457 -0.0117
24453SOL    HW177916  11.229   9.787   9.363 -0.2841  0.1175  1.6272
24453SOL    HW277917  11.273   9.658   9.429 -0.3972 -0.6413  0.2498
24454SOL     OW77918   0.560   8.237   0.428  0.3990  0.4554  0.5158
24454SOL    HW177919   0.565   8.154   0.382 -1.5483 -0.1298  1.2622
24454SOL    HW277920   0.638   8.238   0.484  0.1979 -1.1134  0.8677
24455SOL     OW77921   8.966   9.310   7.095  0.0620 -0.1251  0.1244
24455SOL    HW177922   9.009   9.272   7.019  0.2331  0.3454 -0.0174
24455SOL    HW277923   8.980   9.246   7.165  0.3608 -0.3105 -0.1043
24456SOL     OW77924   6.779   8.695   8.148 -0.1939 -0.5521  0.6156
24456SOL    HW177925   6.742   8.733   8.069  0.9268 -2.2972 -0.8235
24456SOL    HW277926   6.768   8.601   8.137  2.9438 -1.0560  0.9490
24457SOL     OW77927   7.519   2.448   9.586  0.0793  0.0164 -0.2007
24457SOL    HW177928   7.459   2.377   9.561  0.9719 -0.6496 -0.4993
24457SOL    HW277929   7.462   2.525   9.594 -0.4264  0.1536 -3.5672
24458SOL     OW77930  10.353   1.142  11.692 -0.3625 -0.2911 -0.2284
24458SOL    HW177931  10.441   1.179  11.681 -0.4729 -0.1162 -0.5207
24458SOL    HW277932  10.301   1.184  11.624  0.1593 -3.0790 -2.5533
24459SOL     OW77933   0.119   3.540   0.256 -0.0236 -0.7724 -0.2047
24459SOL    HW177934   0.054   3.486   0.209  0.8134 -0.2171 -2.0806
24459SOL    HW277935   0.118   3.624   0.210  2.0956 -0.7817 -0.3575
24460SOL     OW77936   7.594   8.310   7.000 -0.9513 -0.7527  0.2637
24460SOL    HW177937   7.524   8.250   7.023  0.0070 -1.8741  0.3463
24460SOL    HW277938   7.669   8.254   6.980 -0.0851  0.4017  0.1140
24461SOL     OW77939   8.326   0.728  10.948 -0.0110 -0.1137  0.1185
24461SOL    HW177940   8.253   0.672  10.921  0.6351 -0.5345 -0.8134
24461SOL    HW277941   8.320   0.805  10.893 -0.5265  0.4617  0.9653
24462SOL     OW77942   4.214   1.314   5.553  0.1968  0.5418  0.0084
24462SOL    HW177943   4.263   1.334   5.473  1.8757 -0.6164  0.6880
24462SOL    HW277944   4.158   1.240   5.529  1.3966 -0.4276  0.1148
24463SOL     OW77945   6.617   3.059   8.110  0.1779  0.0283 -0.3232
24463SOL    HW177946   6.599   2.965   8.109 -0.0719 -0.0477  2.3114
24463SOL    HW277947   6.710   3.066   8.134 -0.1057  0.4075  0.7451
24464SOL     OW77948   8.818   0.070   4.992 -0.1877  0.3119 -0.4660
24464SOL    HW177949   8.749   0.080   4.926  0.7185 -0.9908 -1.6560
24464SOL    HW277950   8.796   0.134   5.059 -3.5486 -1.1516  0.0552
24465SOL     OW77951   7.982   0.860  11.301  0.4550 -0.6213 -0.0447
24465SOL    HW177952   7.989   0.854  11.397  0.2985 -0.3113 -0.0105
24465SOL    HW277953   7.904   0.915  11.287  0.0246 -1.3041 -0.3586
24466SOL     OW77954   4.515   2.664   9.619  0.6675 -0.7454  0.2564
24466SOL    HW177955   4.582   2.719   9.579  2.1287 -0.2356  3.1577
24466SOL    HW277956   4.558   2.623   9.694 -2.3606  0.2000  2.7444
24467SOL     OW77957   0.896   1.147   3.257  0.2662 -0.1808  0.4996
24467SOL    HW177958   0.953   1.224   3.255 -2.6783  2.1677 -0.5422
24467SOL    HW277959   0.889   1.120   3.166 -0.4742 -0.2822  0.5816
24468SOL     OW77960   2.147   3.497  10.218 -0.5729  0.2490  0.1744
24468SOL    HW177961   2.096   3.577  10.231 -0.9403 -0.3117  2.6178
24468SOL    HW277962   2.096   3.445  10.157 -1.3210  1.0449  0.1020
24469SOL     OW77963   4.004   8.788   2.141  0.3742 -0.4483  0.2839
24469SOL    HW177964   4.019   8.777   2.235  0.4045  0.1667  0.3570
24469SOL    HW277965   4.044   8.873   2.120  0.6940 -0.7470 -0.3597
24470SOL     OW77966   2.320   1.578  12.095  0.0497  0.7194  0.4238
24470SOL    HW177967   2.383   1.610  12.030 -1.1392  0.1499 -1.0653
24470SOL    HW277968   2.336   1.484  12.099  0.9982  0.9223  1.9725
24471SOL     OW77969   5.235   4.984   8.621  0.2749 -1.4187  0.8090
24471SOL    HW177970   5.255   4.983   8.528 -0.6964  0.5922  0.5211
24471SOL    HW277971   5.301   5.041   8.660 -0.3912 -0.7646  1.0220
24472SOL     OW77972  10.753   1.184   8.484  0.2144  0.1283 -0.1016
24472SOL    HW177973  10.769   1.216   8.573 -0.7717  1.7872 -0.4663
24472SOL    HW277974  10.816   1.114   8.472 -0.0563 -0.5770  2.1279
24473SOL     OW77975   3.950   6.011   4.210 -0.4135  0.5060  0.0624
24473SOL    HW177976   3.922   6.071   4.141  1.3662  0.6153 -0.6203
24473SOL    HW277977   3.971   6.068   4.284  1.4293  0.8023 -0.6385
24474SOL     OW77978   5.021   8.466   1.779  0.2180 -0.7762  0.0782
24474SOL    HW177979   5.033   8.413   1.700 -1.2184 -0.3391 -0.4607
24474SOL    HW277980   5.049   8.554   1.753 -0.7921 -0.5089 -0.1293
24475SOL     OW77981   9.893   6.874   3.333 -0.7267 -0.0848  0.0195
24475SOL    HW177982   9.963   6.889   3.270  0.0496  0.6792  1.0433
24475SOL    HW277983   9.918   6.925   3.410 -2.8322  0.9643  0.1018
24476SOL     OW77984   9.211  11.468  11.599  0.0037  0.2868 -0.4855
24476SOL    HW177985   9.240  11.487  11.510 -1.0147 -1.7356 -1.3290
24476SOL    HW277986   9.267  11.396  11.629  2.3912  2.8630  1.7828
24477SOL     OW77987   1.898   9.653   3.337 -0.0616  0.2326 -0.3833
24477SOL    HW177988   1.885   9.712   3.262  0.6715  1.1137  0.1536
24477SOL    HW277989   1.810   9.632   3.367 -0.4554  3.7924  1.4713
24478SOL     OW77990   3.929   2.001   1.037 -0.3875 -0.5790 -0.1722
24478SOL    HW177991   3.851   2.056   1.042  1.9445  3.2965 -1.0332
24478SOL    HW277992   3.933   1.974   0.945 -0.5221 -0.3879 -0.2356
24479SOL     OW77993   8.966   6.901  10.341  0.3768 -0.1397  0.5198
24479SOL    HW177994   9.058   6.923  10.353  1.0561 -2.4982  0.1966
24479SOL    HW277995   8.949   6.834  10.407 -0.2864 -1.7586 -1.2185
24480SOL     OW77996   5.586   5.724   4.290  0.5541 -0.4665  0.1744
24480SOL    HW177997   5.606   5.817   4.276  0.5188 -0.4857  0.0048
24480SOL    HW277998   5.609   5.709   4.382 -0.0394 -0.1326  0.3797
24481SOL     OW77999   9.890  10.831   5.024  0.0288 -0.1054 -0.1771
24481SOL    HW178000   9.804  10.860   4.994 -0.8239 -1.7570  0.5233
24481SOL    HW278001   9.906  10.880   5.104  0.0061  0.6185 -0.6105
24482SOL     OW78002   6.615   1.155   2.683  0.2080 -0.1125  0.0700
24482SOL    HW178003   6.538   1.102   2.705 -1.6995  1.2556 -2.7335
24482SOL    HW278004   6.630   1.209   2.761 -2.0605 -0.0027  0.5095
24483SOL     OW78005   5.323   1.159   3.077  0.0967 -0.3195 -0.2599
24483SOL    HW178006   5.256   1.103   3.037 -1.0183 -0.1342  1.2480
24483SOL    HW278007   5.312   1.244   3.035 -1.4962  0.0495  0.8091
24484SOL     OW78008   1.301   6.860   2.418 -0.5526 -0.0649  0.3103
24484SOL    HW178009   1.317   6.766   2.408  0.8590  0.1002  0.7147
24484SOL    HW278010   1.209   6.872   2.395 -1.3809 -1.8623  2.3719
24485SOL     OW78011   1.006   3.192   9.389  1.1466  0.0663 -0.5182
24485SOL    HW178012   1.025   3.179   9.296  1.8168  0.3061 -0.4199
24485SOL    HW278013   0.930   3.250   9.391  0.8007 -0.3589 -0.9147
24486SOL     OW78014   6.639   5.851   4.375  0.2958  0.2517 -0.0382
24486SOL    HW178015   6.662   5.834   4.283  1.8613 -0.5661  0.4718
24486SOL    HW278016   6.544   5.863   4.374 -0.2219 -2.8771 -1.3385
24487SOL     OW78017   9.759   0.507   9.092 -0.2767 -0.6292  0.0229
24487SOL    HW178018   9.729   0.477   9.006  1.3952  0.1040 -0.8729
24487SOL    HW278019   9.835   0.451   9.111  1.0624  0.9770 -0.3050
24488SOL     OW78020  10.608   9.999  10.212  0.0287  0.7781 -0.4032
24488SOL    HW178021  10.599  10.078  10.159  1.1785  1.2589  0.0684
24488SOL    HW278022  10.538  10.004  10.276  0.6554  1.9223  0.2213
24489SOL     OW78023  11.008  10.731   9.504  0.3118  0.0055 -0.1725
24489SOL    HW178024  10.965  10.811   9.473 -0.4339 -0.2772  0.0959
24489SOL    HW278025  11.060  10.701   9.429 -1.0512 -0.3887 -1.0188
24490SOL     OW78026   2.704  11.661   7.655  0.1161 -0.1477  1.1157
24490SOL    HW178027   2.794  11.694   7.649  0.3570 -0.9033  0.4234
24490SOL    HW278028   2.673  11.692   7.740 -0.1865  3.0823 -0.0744
24491SOL     OW78029   4.343   1.913  11.528  0.1171 -0.0611  0.3637
24491SOL    HW178030   4.274   1.851  11.553 -0.1209  0.3571  0.7733
24491SOL    HW278031   4.383   1.939  11.611 -0.3604  0.9768  0.2956
24492SOL     OW78032  10.576   1.889   9.211  0.0262 -0.4594  0.2454
24492SOL    HW178033  10.485   1.906   9.186  0.4800 -0.2955 -1.4088
24492SOL    HW278034  10.570   1.826   9.283 -1.3775 -1.2468 -0.5163
24493SOL     OW78035   8.237  11.452   4.179 -0.2313 -0.0181 -0.5861
24493SOL    HW178036   8.175  11.395   4.134 -0.5609 -1.3366  1.4111
24493SOL    HW278037   8.311  11.460   4.118  0.0657 -3.0418 -0.7900
24494SOL     OW78038  10.996   0.235  11.771 -0.1609 -1.1056  0.4118
24494SOL    HW178039  10.915   0.206  11.812  0.3016 -1.2989  1.2263
24494SOL    HW278040  11.034   0.297  11.833 -1.6132  2.1737 -1.7299
24495SOL     OW78041   6.670   7.873   8.602 -0.0134  0.1694 -0.1208
24495SOL    HW178042   6.723   7.917   8.536  1.8968 -0.4415  0.9221
24495SOL    HW278043   6.643   7.791   8.561  2.7726 -1.1181  0.3738
24496SOL     OW78044   9.952   5.460   7.025  0.1370  0.2223  0.3401
24496SOL    HW178045   9.900   5.541   7.017  0.5774  0.4232 -0.6392
24496SOL    HW278046   9.974   5.437   6.934 -0.8159 -1.5567  0.5272
24497SOL     OW78047   4.925   3.450   4.976 -0.6952 -0.5302  0.3408
24497SOL    HW178048   5.004   3.464   4.923  0.6795  0.2808  2.4690
24497SOL    HW278049   4.866   3.521   4.951 -0.2415 -0.3989 -0.3859
24498SOL     OW78050   8.056  10.456   1.495  0.0618  0.0050 -0.0477
24498SOL    HW178051   8.017  10.440   1.581 -1.4465 -0.6302 -0.7996
24498SOL    HW278052   8.092  10.545   1.501 -2.0457  0.8875  0.5648
24499SOL     OW78053  10.455   1.184   2.601 -0.3189 -0.1494 -0.1430
24499SOL    HW178054  10.542   1.149   2.623 -0.8809 -1.2463  0.3977
24499SOL    HW278055  10.417   1.119   2.543 -0.2069  1.0657 -1.6280
24500SOL     OW78056   1.373   4.645   6.258  0.3360  0.1188  0.2992
24500SOL    HW178057   1.438   4.648   6.188 -0.1418  1.0318 -0.1231
24500SOL    HW278058   1.359   4.736   6.282 -1.1353 -0.0152  0.0429
24501SOL     OW78059   2.899   0.564   0.152  0.2321 -0.2008 -0.5721
24501SOL    HW178060   2.898   0.525   0.065  3.7557  0.5800 -1.1431
24501SOL    HW278061   2.875   0.656   0.138  0.1929 -0.2211 -0.6341
24502SOL     OW78062   0.870  12.113   0.722 -0.2146  0.3537 -0.2208
24502SOL    HW178063   0.848  12.204   0.738  1.6836  0.7950  0.1580
24502SOL    HW278064   0.956  12.116   0.680  0.7678 -1.2804  1.4927
24503SOL     OW78065   6.724  11.860   3.040 -0.1708  0.1816  0.3128
24503SOL    HW178066   6.728  11.913   3.119 -0.3078 -0.8355  1.0243
24503SOL    HW278067   6.630  11.847   3.025 -0.1436  0.3180  0.0167
24504SOL     OW78068   6.929   5.512   8.837 -0.3841 -0.2036  0.1297
24504SOL    HW178069   7.011   5.523   8.789  0.6368 -0.3938  1.7389
24504SOL    HW278070   6.956   5.485   8.925 -2.2112 -1.0836  0.4825
24505SOL     OW78071   3.118   5.566   4.803  0.0440 -0.5359 -0.2761
24505SOL    HW178072   3.090   5.475   4.790  0.3300 -0.5774 -0.6300
24505SOL    HW278073   3.211   5.559   4.826  0.0304 -0.3425 -0.1634
24506SOL     OW78074   6.418  11.006   4.384  0.0948  0.0546 -0.4492
24506SOL    HW178075   6.333  11.040   4.410 -0.1513  0.5782 -1.8485
24506SOL    HW278076   6.477  11.081   4.391  0.4379 -0.2849  0.4305
24507SOL     OW78077   7.153   4.171   8.905 -0.2486 -0.0523  0.0610
24507SOL    HW178078   7.092   4.107   8.940  0.9111 -1.1229  0.1950
24507SOL    HW278079   7.240   4.137   8.928  0.4062  1.9325  0.8286
24508SOL     OW78080   3.128   2.454  11.076 -0.5714  0.1287 -0.3570
24508SOL    HW178081   3.148   2.533  11.025 -1.7729  1.7495  1.5559
24508SOL    HW278082   3.214   2.418  11.098 -0.0039  0.7712 -1.4123
24509SOL     OW78083   0.936   5.801   7.783 -0.3848  0.0221  0.1096
24509SOL    HW178084   1.031   5.811   7.783 -0.3165 -0.5444 -0.2616
24509SOL    HW278085   0.904   5.871   7.726 -0.1062 -0.4157 -0.5963
24510SOL     OW78086   1.988   8.716   8.106 -0.3443  0.0731  0.1822
24510SOL    HW178087   1.938   8.786   8.064 -0.3519  0.5766  1.0193
24510SOL    HW278088   2.068   8.758   8.135  0.2000 -0.5435 -0.3772
24511SOL     OW78089   6.176   8.939   7.907  0.4986 -0.5581 -0.1078
24511SOL    HW178090   6.121   8.963   7.982  3.0341 -1.2803  2.1529
24511SOL    HW278091   6.135   8.860   7.872  0.0697 -1.1035  1.5273
24512SOL     OW78092  10.421   5.978   7.883  0.5340 -0.2909 -0.0376
24512SOL    HW178093  10.384   5.890   7.892  1.1542 -0.5580 -0.0325
24512SOL    HW278094  10.346   6.037   7.890  0.2792 -0.7498  1.2909
24513SOL     OW78095   7.390   9.536   6.350  0.0602 -0.2506  0.4999
24513SOL    HW178096   7.411   9.466   6.288  0.1231  1.0977 -1.0536
24513SOL    HW278097   7.328   9.592   6.303 -1.4518 -0.2261  2.3729
24514SOL     OW78098   7.105   0.285   7.812  0.2347 -0.1891  0.2994
24514SOL    HW178099   7.095   0.380   7.806 -0.1308 -0.2224  0.3750
24514SOL    HW278100   7.020   0.254   7.841  0.0014 -0.6606 -0.8648
24515SOL     OW78101   9.776  10.759   6.936  0.0609 -0.1763  0.2868
24515SOL    HW178102   9.798  10.850   6.917 -1.5130  0.1611  0.0174
24515SOL    HW278103   9.701  10.764   6.996 -1.5784 -1.2757 -1.5772
24516SOL     OW78104  10.543   5.496   7.570 -0.0166 -0.1033  0.3226
24516SOL    HW178105  10.490   5.573   7.551  1.6098  1.3124  1.2660
24516SOL    HW278106  10.499   5.456   7.645 -0.3370  0.4442  0.4350
24517SOL     OW78107   8.531  11.205   2.507 -0.1458  0.1372 -0.1074
24517SOL    HW178108   8.503  11.114   2.516 -0.4892  0.2969  0.5580
24517SOL    HW278109   8.569  11.227   2.592 -0.4202  0.7264 -0.1282
24518SOL     OW78110   9.462   2.853  11.611 -0.8820 -0.1723 -0.3595
24518SOL    HW178111   9.394   2.843  11.677 -0.1421  0.0976  0.4610
24518SOL    HW278112   9.531   2.793  11.638  0.0993  1.0752  0.0127
24519SOL     OW78113  11.466   0.755   1.976 -0.7043 -0.0434  0.0643
24519SOL    HW178114  11.436   0.819   2.041  0.4427  0.1673  0.3989
24519SOL    HW278115  11.512   0.688   2.027 -0.1268 -0.0758 -0.4885
24520SOL     OW78116   4.764  11.052   4.424 -0.8095 -0.4584 -0.3280
24520SOL    HW178117   4.681  11.101   4.430 -1.0165 -0.5738 -1.9188
24520SOL    HW278118   4.738  10.963   4.402 -0.2528 -0.0271 -3.2113
24521SOL     OW78119   9.836   3.153   6.534  0.2252  0.1974  0.2800
24521SOL    HW178120   9.876   3.240   6.526  0.1662  0.0888 -1.8841
24521SOL    HW278121   9.754   3.168   6.581 -0.5506  1.6419 -1.4084
24522SOL     OW78122  12.103  10.559   5.807  0.0270  0.4518 -0.3669
24522SOL    HW178123  12.137  10.593   5.889 -0.8888 -0.4912  0.4418
24522SOL    HW278124  12.036  10.495   5.834 -1.2400  1.0890 -1.8550
24523SOL     OW78125   0.999   4.974   7.986 -0.0497 -0.3269  0.1579
24523SOL    HW178126   0.981   4.920   7.909 -3.5215 -0.2667  0.7715
24523SOL    HW278127   1.004   4.912   8.058 -1.5035 -0.1122  0.4866
24524SOL     OW78128   1.729   0.637   7.926 -0.0004  0.3742  0.1660
24524SOL    HW178129   1.734   0.665   8.018  1.9234 -0.7426  0.4530
24524SOL    HW278130   1.678   0.556   7.927 -0.5376  0.7063  0.1404
24525SOL     OW78131   3.637   7.366   3.444 -0.4087  0.4166  0.0289
24525SOL    HW178132   3.724   7.360   3.406 -0.0125  2.4531  0.5316
24525SOL    HW278133   3.608   7.455   3.427 -2.6924 -0.3742 -0.6822
24526SOL     OW78134   8.418   1.168   9.283  0.1502  0.2115  0.4344
24526SOL    HW178135   8.348   1.114   9.318  0.3592 -0.7756 -0.6051
24526SOL    HW278136   8.466   1.110   9.224  1.9319  0.8249  1.2074
24527SOL     OW78137   8.005   0.529  11.619  0.3384  0.4357 -0.2350
24527SOL    HW178138   8.066   0.547  11.548  1.9846 -0.2195  0.9484
24527SOL    HW278139   8.058   0.487  11.686 -1.6787 -1.2907  0.3779
24528SOL     OW78140  10.615  10.097  11.165 -0.2006 -0.4142  0.1073
24528SOL    HW178141  10.699  10.073  11.203  0.4358 -1.5760 -1.8988
24528SOL    HW278142  10.623  10.191  11.146 -0.3128  0.0537  2.1057
24529SOL     OW78143   7.730   1.225   3.782  0.5530 -0.0650 -1.1100
24529SOL    HW178144   7.732   1.319   3.799  2.1218 -0.2768  0.0609
24529SOL    HW278145   7.651   1.194   3.827  1.0028  0.4241  0.0386
24530SOL     OW78146   6.833   3.049   3.807  0.3318  0.3361  0.4484
24530SOL    HW178147   6.861   3.032   3.897 -1.7806 -1.1905  0.8916
24530SOL    HW278148   6.866   2.975   3.757  1.6825  1.2860 -0.1260
24531SOL     OW78149   3.520   0.011  10.618  0.0855  0.5333 -0.3294
24531SOL    HW178150   3.428   0.034  10.606 -0.0769 -0.5020 -1.1640
24531SOL    HW278151   3.566   0.059  10.549 -0.3783 -2.2990 -2.7790
24532SOL     OW78152   5.320  11.730   7.879 -0.3826 -0.1047  0.1987
24532SOL    HW178153   5.405  11.771   7.859  0.7835 -1.7852  1.3967
24532SOL    HW278154   5.310  11.663   7.812 -0.4159 -0.3814  0.4800
24533SOL     OW78155   2.507  11.769   6.491 -0.1748 -0.5594  0.4392
24533SOL    HW178156   2.414  11.791   6.479 -0.5256 -2.2057 -0.0536
24533SOL    HW278157   2.541  11.762   6.402  0.8713  1.6378  0.5990
24534SOL     OW78158   2.529   9.554   3.139  0.2075  0.6576  0.4997
24534SOL    HW178159   2.456   9.492   3.137 -1.1372  2.1498  1.4643
24534SOL    HW278160   2.550   9.564   3.232  0.6458  1.3973  0.3292
24535SOL     OW78161  11.988   0.223   0.581 -0.1212 -0.1657 -0.5831
24535SOL    HW178162  11.949   0.177   0.655  0.1466  1.9362  0.9358
24535SOL    HW278163  11.936   0.196   0.506 -4.4185  2.1872  1.2159
24536SOL     OW78164   0.119   0.495   5.739  0.2388  0.2731  0.5358
24536SOL    HW178165   0.103   0.544   5.819 -1.5815 -1.4757  1.3252
24536SOL    HW278166   0.189   0.544   5.694  1.0229  1.5211  2.9487
24537SOL     OW78167  10.833   5.263   8.390 -0.2642 -0.3373  0.3584
24537SOL    HW178168  10.750   5.238   8.431 -1.0396 -0.2026 -1.0868
24537SOL    HW278169  10.852   5.192   8.329  1.8314 -1.4669  2.1708
24538SOL     OW78170   6.421   0.956   4.260  0.1491 -0.0322  0.4376
24538SOL    HW178171   6.370   0.898   4.316  1.2110 -3.4171 -1.7827
24538SOL    HW278172   6.507   0.961   4.302 -0.3362  1.2183  1.3581
24539SOL     OW78173   0.564  11.668  11.232  0.2963  0.2117  0.3184
24539SOL    HW178174   0.620  11.651  11.308 -0.5412 -0.5599  0.7845
24539SOL    HW278175   0.483  11.702  11.269 -0.2127 -0.4060 -0.2082
24540SOL     OW78176   4.978   0.181   0.150  0.4370 -0.1124 -0.0904
24540SOL    HW178177   5.014   0.255   0.102 -0.8394  0.9037  0.4755
24540SOL    HW278178   5.042   0.111   0.137  1.0656  0.7082 -1.6505
24541SOL     OW78179   7.388   8.754   1.599 -0.3105 -0.1455  0.2435
24541SOL    HW178180   7.325   8.801   1.544 -0.0892 -0.1090  0.0179
24541SOL    HW278181   7.343   8.674   1.625 -0.6983  0.2017  0.6482
24542SOL     OW78182   9.240   0.588   8.573 -0.1769  0.1232  0.7184
24542SOL    HW178183   9.246   0.515   8.635  1.6175 -0.3738  0.0189
24542SOL    HW278184   9.158   0.573   8.526 -0.6225 -0.5369  1.6625
24543SOL     OW78185   2.383   5.841   3.021  0.2367 -0.0136 -0.0978
24543SOL    HW178186   2.371   5.867   2.930  0.1590 -0.1076 -0.1151
24543SOL    HW278187   2.370   5.921   3.071 -1.3433 -0.2560 -0.0481
24544SOL     OW78188   7.508   2.901   3.873 -0.2385 -0.2480 -0.0719
24544SOL    HW178189   7.432   2.959   3.868  1.4989  2.1750  0.1334
24544SOL    HW278190   7.471   2.817   3.902 -2.7400  0.9696  0.5954
24545SOL     OW78191  11.402   6.132   1.351  0.6048  0.1352  0.0558
24545SOL    HW178192  11.315   6.164   1.373  0.2483 -1.1284  0.5727
24545SOL    HW278193  11.415   6.057   1.409  1.9868  0.2222 -0.1042
24546SOL     OW78194  11.240   0.162  11.495  0.0273  0.2394 -0.2074
24546SOL    HW178195  11.283   0.111  11.427  0.7181 -0.4469  0.7228
24546SOL    HW278196  11.166   0.108  11.523  2.0081 -1.3942  2.3223
24547SOL     OW78197   5.585   2.763   5.969  0.5655 -0.1302 -0.4813
24547SOL    HW178198   5.663   2.708   5.977  1.2337  0.8195 -0.3144
24547SOL    HW278199   5.536   2.748   6.050  1.5535  0.7308  0.2966
24548SOL     OW78200   4.800  11.223  10.659 -0.2907  0.2696 -0.3729
24548SOL    HW178201   4.772  11.309  10.628 -1.8298  0.0308  0.2431
24548SOL    HW278202   4.722  11.187  10.702  0.2767 -1.4932 -0.7488
24549SOL     OW78203   0.435   1.701  11.980 -0.2803  0.0098 -0.2168
24549SOL    HW178204   0.483   1.619  11.965  0.6748  0.9542 -3.2118
24549SOL    HW278205   0.499   1.759  12.019  0.6377  0.7058 -2.5468
24550SOL     OW78206   1.267   5.508   2.539 -0.4936 -0.1573  0.4204
24550SOL    HW178207   1.326   5.483   2.468  0.0912  2.0292  0.0664
24550SOL    HW278208   1.313   5.481   2.619  1.5135  2.3083  0.2118
24551SOL     OW78209   9.779   9.677   0.418 -0.4252  0.3361  0.1416
24551SOL    HW178210   9.769   9.770   0.439 -0.7299  0.3086  0.1184
24551SOL    HW278211   9.778   9.632   0.503 -0.2644  0.3557  0.1536
24552SOL     OW78212   6.306   4.090   9.384  0.3002  0.0885 -0.3801
24552SOL    HW178213   6.239   4.130   9.329 -1.8471 -0.4036  1.6616
24552SOL    HW278214   6.341   4.162   9.436 -0.4451  0.0170  0.2473
24553SOL     OW78215   3.480  10.505   7.090  0.3325 -0.2874  0.0863
24553SOL    HW178216   3.550  10.441   7.101 -0.5270 -1.0600  1.2671
24553SOL    HW278217   3.525  10.589   7.084  1.3313 -0.6667  1.6978
24554SOL     OW78218   8.221   6.462   1.749 -0.3727 -0.8040  0.3653
24554SOL    HW178219   8.179   6.468   1.663 -1.6816  0.3007  1.0620
24554SOL    HW278220   8.186   6.382   1.787  0.2000 -1.2898 -0.0994
24555SOL     OW78221   2.241   5.475   4.299 -0.3657  0.3212 -0.1561
24555SOL    HW178222   2.265   5.552   4.350  1.1110 -0.2044 -0.0355
24555SOL    HW278223   2.285   5.488   4.215 -0.9059  0.0635 -0.4832
24556SOL     OW78224   1.835   6.647  10.107 -0.3293 -0.1004  0.2926
24556SOL    HW178225   1.813   6.680  10.020 -0.6012 -1.4512 -0.1741
24556SOL    HW278226   1.837   6.725  10.162 -3.1115  0.4796 -0.2790
24557SOL     OW78227   0.450   6.629   8.998 -0.0336 -0.6776  0.2913
24557SOL    HW178228   0.487   6.604   9.083 -0.1238 -1.4294  0.1154
24557SOL    HW278229   0.384   6.562   8.979 -1.0292  0.2674  0.2856
24558SOL     OW78230  10.630   7.501   7.865  0.2425  0.2856 -0.3092
24558SOL    HW178231  10.546   7.545   7.852 -0.2036 -0.6320 -0.5722
24558SOL    HW278232  10.641   7.499   7.960  1.1974  2.6611 -0.3025
24559SOL     OW78233   1.244   0.294  10.221  0.0769 -0.0961 -0.0491
24559SOL    HW178234   1.285   0.361  10.166  0.4740  0.5962  1.0435
24559SOL    HW278235   1.169   0.339  10.261 -1.8691 -1.3564 -2.0535
24560SOL     OW78236   0.001  12.123   8.192 -0.1076 -1.1494  0.2604
24560SOL    HW178237   0.077  12.066   8.195 -0.0919 -1.1550 -0.1830
24560SOL    HW278238   0.012  12.182   8.267 -0.0422 -1.6197  0.6260
24561SOL     OW78239   3.465   2.827   3.743  0.4699 -0.0960 -0.0424
24561SOL    HW178240   3.428   2.741   3.723  1.3230 -0.0890 -1.9097
24561SOL    HW278241   3.438   2.845   3.833 -0.7968 -1.7438 -0.0493
24562SOL     OW78242   1.806  10.204   0.623 -0.1000 -0.2569 -0.4638
24562SOL    HW178243   1.844  10.148   0.691  0.6070  0.6410 -0.0895
24562SOL    HW278244   1.881  10.253   0.589 -0.5289 -0.3489 -1.5629
24563SOL     OW78245   5.355  11.889   6.523 -0.1273  0.4424 -0.3881
24563SOL    HW178246   5.304  11.969   6.528  2.6582  2.5193 -2.2730
24563SOL    HW278247   5.310  11.835   6.458 -2.1449  0.2735  1.0654
24564SOL     OW78248   0.352   8.538   9.063 -0.1742  0.5462  0.0160
24564SOL    HW178249   0.368   8.550   9.156  0.1455 -0.5380  0.1150
24564SOL    HW278250   0.347   8.627   9.027  0.1190  0.9608  0.9872
24565SOL     OW78251  12.080   5.399   8.955  0.1591  0.2304 -0.5789
24565SOL    HW178252  12.007   5.416   8.896 -1.0675  0.5515  0.9731
24565SOL    HW278253  12.062   5.312   8.990  0.3339  0.4562  0.0810
24566SOL     OW78254   0.696   2.518   7.890 -0.0261  0.2646  0.4137
24566SOL    HW178255   0.662   2.452   7.830 -0.7902  2.7462 -2.1011
24566SOL    HW278256   0.656   2.496   7.975  0.1468 -2.6856 -0.1440
24567SOL     OW78257   6.567   1.356   3.322  0.2258 -0.5648  0.3415
24567SOL    HW178258   6.528   1.269   3.312  0.7275 -0.7138 -0.3920
24567SOL    HW278259   6.582   1.386   3.232  0.8835 -0.0969  0.5996
24568SOL     OW78260  11.828   0.862   9.386  0.0624 -0.0693  0.1726
24568SOL    HW178261  11.764   0.835   9.452 -0.6077 -0.2675 -0.5548
24568SOL    HW278262  11.912   0.858   9.432 -0.5994  1.9975  1.6896
24569SOL     OW78263   7.178   0.891  11.775  1.1638 -0.7371  0.1839
24569SOL    HW178264   7.195   0.867  11.867  1.5486 -0.0866  0.2925
24569SOL    HW278265   7.083   0.898  11.770  1.1868  0.1322  0.7762
24570SOL     OW78266   7.795   4.504   9.191  0.0503 -0.0325  0.0444
24570SOL    HW178267   7.871   4.532   9.242 -0.6786  0.2597  0.9880
24570SOL    HW278268   7.827   4.429   9.141  0.6400 -0.7268  1.3969
24571SOL     OW78269   9.256   2.716   6.150 -0.4855  0.2096  0.0607
24571SOL    HW178270   9.311   2.690   6.224  0.0885  0.1098 -0.3959
24571SOL    HW278271   9.206   2.637   6.128 -1.1038  0.4071  0.7199
24572SOL     OW78272   9.364   3.377   7.872  0.2135  0.0260 -0.6701
24572SOL    HW178273   9.291   3.341   7.822  0.1851  1.7203 -1.9684
24572SOL    HW278274   9.347   3.471   7.873 -0.2781  0.0325  3.4318
24573SOL     OW78275  10.310   8.342   6.558  0.5710 -0.0391 -0.0542
24573SOL    HW178276  10.312   8.346   6.462 -0.6294  1.3638 -0.0610
24573SOL    HW278277  10.281   8.429   6.584 -2.3428 -1.3449  1.4579
24574SOL     OW78278   9.535   4.043   2.872 -0.4927 -0.0451  0.0885
24574SOL    HW178279   9.526   4.009   2.960  0.8766 -0.3930  0.1078
24574SOL    HW278280   9.450   4.083   2.853 -1.1512 -0.9016  1.1508
24575SOL     OW78281   6.846   1.413   5.497 -0.5354 -0.2445 -0.0704
24575SOL    HW178282   6.836   1.434   5.590 -0.6253 -2.3928  0.4553
24575SOL    HW278283   6.935   1.380   5.489 -0.7175 -0.6194 -0.6218
24576SOL     OW78284   1.433   6.484   8.221 -0.4486 -0.3434  0.0891
24576SOL    HW178285   1.478   6.538   8.286 -0.8205 -0.8854  0.8092
24576SOL    HW278286   1.393   6.547   8.161  0.5506  0.1551 -0.0860
24577SOL     OW78287   2.450   1.611   8.834 -0.0025 -0.3938 -0.4008
24577SOL    HW178288   2.507   1.645   8.765  1.5214  1.2279  1.5253
24577SOL    HW278289   2.361   1.625   8.801  0.6431  1.9463 -1.3523
24578SOL     OW78290   4.907   1.787   7.272 -0.0039 -0.0681  0.0219
24578SOL    HW178291   4.871   1.859   7.324 -0.7286  1.7202 -2.7343
24578SOL    HW278292   4.840   1.718   7.276 -0.9715  0.8347 -0.1391
24579SOL     OW78293   3.680   3.354   8.501 -0.0317 -0.0614  0.1841
24579SOL    HW178294   3.673   3.421   8.569  1.4407  1.0726 -0.7168
24579SOL    HW278295   3.730   3.284   8.543 -1.7720 -0.7563  1.2058
24580SOL     OW78296   4.296   9.546   8.860 -0.0187  0.1327 -0.4924
24580SOL    HW178297   4.260   9.561   8.773  1.4897  2.1512 -0.8372
24580SOL    HW278298   4.333   9.458   8.856  0.6464  0.4545 -2.1466
24581SOL     OW78299   7.415   8.770   9.105 -0.1485 -0.0228 -0.2516
24581SOL    HW178300   7.438   8.683   9.137 -1.9090 -0.3852  0.0812
24581SOL    HW278301   7.468   8.780   9.025 -0.7397 -1.8600 -0.9322
24582SOL     OW78302   2.161   2.462   9.677 -0.2594  0.1432  0.4206
24582SOL    HW178303   2.189   2.394   9.616 -1.1114  0.8074 -0.7447
24582SOL    HW278304   2.066   2.460   9.673 -0.3501 -0.1214  2.1226
24583SOL     OW78305  11.375   1.649   8.649  0.1071  0.3543  0.1000
24583SOL    HW178306  11.303   1.648   8.586  1.7428 -0.0845 -1.8581
24583SOL    HW278307  11.409   1.559   8.649 -0.5474  0.0326  2.5277
24584SOL     OW78308   7.233   9.543   2.102 -0.0580 -0.4682  0.7235
24584SOL    HW178309   7.233   9.628   2.146  0.0581 -0.2474  0.2997
24584SOL    HW278310   7.272   9.483   2.166  0.4133 -0.0871  0.7996
24585SOL     OW78311   1.237   6.862  12.006  1.0358  0.0443  0.2587
24585SOL    HW178312   1.147   6.841  12.032  0.8665  0.7728  0.2821
24585SOL    HW278313   1.238   6.851  11.910  0.7847  0.5203  0.1993
24586SOL     OW78314   0.503   3.979   1.813 -0.5616  0.2192  0.1900
24586SOL    HW178315   0.596   3.999   1.805 -0.4740 -0.4687 -0.6745
24586SOL    HW278316   0.489   3.965   1.906  0.5326 -1.2378  0.1620
24587SOL     OW78317  10.168   2.151   1.720 -0.3625 -0.5333 -0.0528
24587SOL    HW178318  10.249   2.164   1.770 -0.2906  0.5242 -0.4162
24587SOL    HW278319  10.118   2.231   1.734 -0.7216 -0.5822 -0.9651
24588SOL     OW78320  11.377  10.160   5.920  0.1148 -1.0638 -0.3910
24588SOL    HW178321  11.409  10.145   5.831 -1.6228  0.1022 -1.2518
24588SOL    HW278322  11.282  10.162   5.912 -0.1757  4.3947  0.4250
24589SOL     OW78323   1.507   0.074   0.686 -0.4972 -0.3930 -0.0629
24589SOL    HW178324   1.449   0.007   0.649 -0.2872  0.1690 -1.4964
24589SOL    HW278325   1.595   0.041   0.668 -0.3773 -0.4247  0.5661
24590SOL     OW78326   2.630   8.079  10.860 -0.0686 -0.5438  0.3015
24590SOL    HW178327   2.710   8.083  10.911  0.9627  0.8177 -1.3368
24590SOL    HW278328   2.603   8.170  10.849 -0.6054 -0.8333 -1.0216
24591SOL     OW78329   9.616   7.138  10.736  0.0972 -0.4079 -0.0728
24591SOL    HW178330   9.577   7.053  10.753 -1.7369  0.3295 -0.3361
24591SOL    HW278331   9.622   7.143  10.640 -0.4429  0.0060 -0.0909
24592SOL     OW78332   8.430   2.111   0.815 -0.0048 -0.0589  0.0022
24592SOL    HW178333   8.351   2.060   0.833  0.4615 -1.2460 -1.1028
24592SOL    HW278334   8.457   2.081   0.728  0.9733  1.2318 -0.1597
24593SOL     OW78335   1.687   2.357   3.159 -0.0709 -0.0583 -0.0142
24593SOL    HW178336   1.642   2.279   3.128  0.0638 -1.3827  2.7595
24593SOL    HW278337   1.758   2.371   3.097  0.2466 -2.5124 -0.3002
24594SOL     OW78338   4.386  10.145   9.304 -0.1993 -0.5555 -0.7260
24594SOL    HW178339   4.300  10.154   9.263 -0.4889 -0.5025 -0.1104
24594SOL    HW278340   4.411  10.054   9.288 -0.0699 -0.3957 -1.4752
24595SOL     OW78341   7.551   3.258   2.631 -0.3338 -0.2801 -0.8272
24595SOL    HW178342   7.541   3.233   2.723  1.5400  0.5812 -0.3441
24595SOL    HW278343   7.590   3.181   2.589  0.5075 -0.0648 -0.4747
24596SOL     OW78344  10.242  10.269   6.415  0.2036 -0.4652 -0.0602
24596SOL    HW178345  10.239  10.279   6.320  0.0481  0.0640 -0.0019
24596SOL    HW278346  10.222  10.356   6.449 -2.4670 -1.1978  0.4868
24597SOL     OW78347  11.746  10.270   5.534 -0.1535 -0.1993 -0.4255
24597SOL    HW178348  11.652  10.255   5.525 -0.6726  2.0156  0.7197
24597SOL    HW278349  11.763  10.348   5.481  0.9422 -0.2556 -0.1738
24598SOL     OW78350   7.896   9.415   4.292  0.3247  0.2568 -0.1854
24598SOL    HW178351   7.870   9.489   4.236  0.1279  0.0848 -0.3206
24598SOL    HW278352   7.873   9.444   4.381 -1.6089 -0.4135 -0.4067
24599SOL     OW78353   1.997   4.215   9.981  0.4713  0.0472  0.8930
24599SOL    HW178354   2.057   4.288   9.986 -0.0597  0.4995  0.7703
24599SOL    HW278355   1.918   4.251   9.942 -0.0566 -0.4111  1.4995
24600SOL     OW78356  11.317   6.015   1.926 -0.1153 -0.1005 -0.0314
24600SOL    HW178357  11.304   5.931   1.882  0.8220  0.0257 -0.5743
24600SOL    HW278358  11.264   6.077   1.875  0.5541 -0.0525 -0.6937
24601SOL     OW78359   3.614   7.056   7.306 -0.4092 -0.5740  0.3082
24601SOL    HW178360   3.577   7.080   7.391  0.0627 -1.5464  0.8004
24601SOL    HW278361   3.550   7.088   7.242 -0.8588 -0.0037  1.0286
24602SOL     OW78362   8.796   5.682  11.754 -0.2735  0.7871  0.6823
24602SOL    HW178363   8.806   5.623  11.828  1.7563  1.4212  0.9674
24602SOL    HW278364   8.775   5.767  11.792 -0.1381  0.9180  0.4704
24603SOL     OW78365   9.341  11.613   3.994  0.3061 -0.3026 -0.6408
24603SOL    HW178366   9.408  11.581   3.932  1.7109  0.5142  0.3898
24603SOL    HW278367   9.326  11.704   3.967 -0.2489 -0.4239 -0.7446
24604SOL     OW78368   1.545  11.747   7.639  0.2172 -0.0562  0.2044
24604SOL    HW178369   1.611  11.804   7.679 -1.0070  1.2650  0.4115
24604SOL    HW278370   1.501  11.803   7.575  0.3998 -1.4037 -1.1602
24605SOL     OW78371   7.164   4.527   0.934  0.3818 -0.0716 -0.5428
24605SOL    HW178372   7.084   4.478   0.950  0.6549 -0.0635  0.9817
24605SOL    HW278373   7.202   4.487   0.855  0.4329 -2.1092  0.4644
24606SOL     OW78374  10.047   1.908   7.528  0.6468  0.0558 -0.1294
24606SOL    HW178375  10.075   1.832   7.477  0.0636 -2.0422  2.4589
24606SOL    HW278376  10.010   1.968   7.463 -0.7214 -2.7119 -2.1273
24607SOL     OW78377  10.065   5.101   7.743 -0.8613 -0.2813 -0.4550
24607SOL    HW178378  10.059   5.083   7.649  0.6674 -3.2564 -0.0989
24607SOL    HW278379  10.157   5.086   7.765 -1.3436 -0.4426  1.6566
24608SOL     OW78380   2.810   2.228   3.531  0.1091  0.0180 -0.1163
24608SOL    HW178381   2.823   2.180   3.449 -0.3059 -0.4249  0.0703
24608SOL    HW278382   2.893   2.218   3.578  0.2761  0.0988 -0.3956
24609SOL     OW78383   4.086  11.883   9.656 -0.6553  0.1416  0.1480
24609SOL    HW178384   4.062  11.805   9.607  1.6538  0.1986 -1.2311
24609SOL    HW278385   4.079  11.954   9.592 -0.8684  0.7643  0.8547
24610SOL     OW78386   3.429  10.739   2.329  0.0945  0.7889 -0.2505
24610SOL    HW178387   3.469  10.735   2.416  0.0751 -1.1619 -0.2903
24610SOL    HW278388   3.494  10.783   2.275  0.9503  0.2970  0.3450
24611SOL     OW78389   8.536   2.997   9.931 -0.2799 -0.2113 -0.0599
24611SOL    HW178390   8.481   3.075   9.942 -0.5650 -0.0798 -2.0453
24611SOL    HW278391   8.626   3.030   9.939 -0.4178  0.0190  0.6504
24612SOL     OW78392   7.900   9.156   0.537  0.6588  0.4778  0.9315
24612SOL    HW178393   7.811   9.120   0.537 -0.4618  3.0481  0.7318
24612SOL    HW278394   7.956   9.080   0.522 -1.5862 -1.0386 -0.5008
24613SOL     OW78395   7.169   6.654  12.044  0.5264 -0.1261  0.4718
24613SOL    HW178396   7.215   6.571  12.036  2.4296  0.8483  0.5182
24613SOL    HW278397   7.173   6.693  11.957 -0.7866 -0.2695  0.3267
24614SOL     OW78398   0.241   9.175  10.531  0.1072 -0.1975 -0.2665
24614SOL    HW178399   0.180   9.134  10.470 -0.1178 -0.6226  0.2379
24614SOL    HW278400   0.306   9.107  10.549  0.4179  0.0671 -0.3564
24615SOL     OW78401   8.352   4.868   3.834  0.2849 -0.1473  0.1349
24615SOL    HW178402   8.393   4.925   3.769 -1.5492  1.4023  0.2589
24615SOL    HW278403   8.400   4.786   3.827  2.3254  1.0432 -0.8103
24616SOL     OW78404   5.981   4.181   7.316 -0.3644 -0.6359 -0.3795
24616SOL    HW178405   5.946   4.146   7.397 -1.7822 -0.4721 -0.8874
24616SOL    HW278406   5.905   4.222   7.273  0.7183  0.8402 -0.9582
24617SOL     OW78407   8.218   1.623   2.312 -0.3013  0.0658  0.1790
24617SOL    HW178408   8.150   1.563   2.281 -0.6084  0.6769 -0.3457
24617SOL    HW278409   8.194   1.708   2.275  0.5404  0.3654  0.2988
24618SOL     OW78410   5.507   1.598   5.485 -0.3550 -0.4865 -0.0681
24618SOL    HW178411   5.569   1.655   5.530  0.4884 -0.3592 -1.3493
24618SOL    HW278412   5.489   1.528   5.548 -0.6846  0.6632  1.1684
24619SOL     OW78413   6.012   4.775   1.250  0.1871 -0.7188  0.0830
24619SOL    HW178414   5.989   4.867   1.256 -0.4142 -0.9074  0.8960
24619SOL    HW278415   6.106   4.773   1.267  0.3519 -0.1936 -0.6956
24620SOL     OW78416   2.997   3.141   6.516  0.0790  0.1184  0.2003
24620SOL    HW178417   3.064   3.162   6.451 -0.8261  1.3137 -0.4018
24620SOL    HW278418   2.933   3.089   6.468  0.4479 -0.8142  0.7098
24621SOL     OW78419   9.227   8.539   2.035  0.5395  0.2015 -0.0085
24621SOL    HW178420   9.146   8.503   2.072  0.7657 -0.3925 -0.0915
24621SOL    HW278421   9.235   8.497   1.950  1.1259 -0.0068  0.1482
24622SOL     OW78422  11.753   3.407   4.715 -0.3754 -0.2435  0.2567
24622SOL    HW178423  11.848   3.417   4.721 -0.2743  0.2934 -1.6342
24622SOL    HW278424  11.721   3.493   4.691 -0.8524 -1.2714 -3.3589
24623SOL     OW78425   8.360   3.105   0.873  0.2105 -0.2625 -0.3301
24623SOL    HW178426   8.415   3.074   0.801  1.6155  0.1920  0.5110
24623SOL    HW278427   8.413   3.171   0.917 -0.1968 -1.2398  1.7381
24624SOL     OW78428   5.219   0.777   4.346  0.0526  0.0843  0.3032
24624SOL    HW178429   5.306   0.784   4.387  0.6537 -1.1057 -0.6955
24624SOL    HW278430   5.218   0.847   4.281  0.0515  0.4257  0.6627
24625SOL     OW78431   6.311   9.458   9.597  0.2573 -0.2284 -0.0968
24625SOL    HW178432   6.314   9.455   9.501 -1.2004 -1.1929 -0.1447
24625SOL    HW278433   6.233   9.512   9.616  1.2902  1.0896  0.5827
24626SOL     OW78434  11.856   7.720   9.290 -0.0202 -0.2896 -0.3735
24626SOL    HW178435  11.779   7.755   9.244  1.0658 -0.9620 -2.8482
24626SOL    HW278436  11.924   7.786   9.277  0.4223 -0.6841 -0.0833
24627SOL     OW78437   8.166   6.512   8.598 -0.1378 -0.3075  0.0952
24627SOL    HW178438   8.132   6.592   8.557  0.0681 -0.2697 -0.0015
24627SOL    HW278439   8.136   6.441   8.541  0.4487 -0.2274 -0.3207
24628SOL     OW78440   5.255   6.366   7.472  0.5892  0.2680  0.2186
24628SOL    HW178441   5.282   6.438   7.416 -3.4002  1.4142 -0.5704
24628SOL    HW278442   5.228   6.408   7.554  0.5046 -0.6429  0.6797
24629SOL     OW78443   9.449   8.305   4.211  0.0814  0.0803 -0.0726
24629SOL    HW178444   9.492   8.387   4.234  0.1526  0.0241 -0.0049
24629SOL    HW278445   9.422   8.316   4.120  0.0443  0.1988 -0.0478
24630SOL     OW78446  10.664   2.026   8.979  0.3956 -0.3783 -0.3288
24630SOL    HW178447  10.623   1.964   9.039 -0.1996 -1.3233 -1.6442
24630SOL    HW278448  10.591   2.062   8.928  0.8177  0.8531 -0.1090
24631SOL     OW78449   5.217   6.714   7.056 -0.1202 -0.3362 -0.2447
24631SOL    HW178450   5.242   6.660   6.981 -2.7050 -0.1410 -1.3394
24631SOL    HW278451   5.258   6.799   7.040  1.2550 -0.9758 -0.2072
24632SOL     OW78452   1.880   4.202   7.624  0.3613  0.3298  0.1052
24632SOL    HW178453   1.920   4.168   7.544  1.1139  1.9416 -0.2442
24632SOL    HW278454   1.800   4.246   7.595  0.2894  0.3453  0.3233
24633SOL     OW78455   6.620   7.683   6.121  0.2766  0.4717 -0.0114
24633SOL    HW178456   6.599   7.596   6.088 -1.5357  0.2404  1.5820
24633SOL    HW278457   6.582   7.686   6.209  1.6574  2.3405  0.5944
24634SOL     OW78458   4.033   8.550   3.298  0.8502  0.6961  0.0967
24634SOL    HW178459   3.969   8.519   3.362  2.5668 -1.4946  0.8532
24634SOL    HW278460   3.979   8.587   3.227 -1.4130 -2.5381 -0.0881
24635SOL     OW78461  11.146   4.972  11.736  1.0435  1.2652  0.1821
24635SOL    HW178462  11.214   4.910  11.764 -0.7432  0.1128  2.2838
24635SOL    HW278463  11.172   4.997  11.647  1.4437 -3.2508 -1.2585
24636SOL     OW78464   3.292   7.648   4.745  0.0962 -1.0997  0.6606
24636SOL    HW178465   3.370   7.617   4.699  1.0312  1.2134  0.5971
24636SOL    HW278466   3.298   7.743   4.742 -2.4255 -0.8494  1.2110
24637SOL     OW78467  10.894   4.351  11.657  0.3466 -0.0452 -0.0956
24637SOL    HW178468  10.803   4.369  11.633  0.3162  0.0274  0.0721
24637SOL    HW278469  10.906   4.259  11.637  0.2809 -0.0173 -0.2649
24638SOL     OW78470   0.854  11.796   7.892  0.0664  0.1293 -0.2331
24638SOL    HW178471   0.949  11.806   7.880  0.2932 -0.4170  0.9911
24638SOL    HW278472   0.828  11.731   7.827  0.8118 -0.8747  0.4446
24639SOL     OW78473   9.212   1.582   3.270  0.1482  0.3500 -0.0703
24639SOL    HW178474   9.286   1.586   3.209  0.4033 -1.0581  0.0985
24639SOL    HW278475   9.146   1.639   3.232  0.6529  0.2212 -1.1792
24640SOL     OW78476   1.704   0.901   7.287  0.1328 -0.0976 -0.3593
24640SOL    HW178477   1.672   0.989   7.266  0.1883  0.2661  0.9581
24640SOL    HW278478   1.637   0.842   7.253 -0.6654  0.5347  0.0636
24641SOL     OW78479  10.408  11.263   1.439  0.0746  0.4517 -0.0486
24641SOL    HW178480  10.328  11.285   1.487  0.9778  1.3304  1.1018
24641SOL    HW278481  10.469  11.334   1.459  1.4481 -0.6413 -0.1783
24642SOL     OW78482   8.196   7.133   6.148 -0.5204 -0.0321 -0.7953
24642SOL    HW178483   8.183   7.225   6.124 -1.9297 -0.5943 -2.3908
24642SOL    HW278484   8.111   7.092   6.133  0.5614 -2.0019 -2.0738
24643SOL     OW78485   9.340   0.911   8.677  0.6334 -0.0814 -0.2705
24643SOL    HW178486   9.301   0.866   8.602 -0.3802 -0.7463  0.6208
24643SOL    HW278487   9.410   0.853   8.706 -0.4482 -0.9696  0.6648
24644SOL     OW78488   5.523   3.966  10.451  0.1921  0.2090  0.0647
24644SOL    HW178489   5.440   3.956  10.499  0.2578 -0.8383 -0.0173
24644SOL    HW278490   5.584   3.907  10.497  0.7486  0.5723 -0.2020
24645SOL     OW78491   9.017   3.204   0.593  0.1485 -0.0730  0.3375
24645SOL    HW178492   8.972   3.288   0.592 -3.3030 -1.7237 -0.0836
24645SOL    HW278493   9.010   3.174   0.683 -0.4771 -0.7176  0.0920
24646SOL     OW78494   0.030   9.959   3.641 -0.8954 -0.7388  0.5460
24646SOL    HW178495   0.044   9.928   3.730 -1.5770 -1.6378  0.3477
24646SOL    HW278496   0.082   9.900   3.586  1.3611  1.1652  0.4792
24647SOL     OW78497   5.689   1.437   5.013 -0.3450  0.3506  0.5777
24647SOL    HW178498   5.736   1.356   5.035 -0.8441  0.1282  0.8315
24647SOL    HW278499   5.684   1.485   5.096  0.1317  0.7456  0.3879
24648SOL     OW78500   6.811   8.745   0.453  0.4576  0.0976  0.0412
24648SOL    HW178501   6.860   8.812   0.501 -0.3689  0.4941  0.3411
24648SOL    HW278502   6.727   8.739   0.499 -0.5314  0.7899 -1.5974
24649SOL     OW78503   8.122   8.223   3.251  0.0820 -0.3621  0.5232
24649SOL    HW178504   8.040   8.221   3.301 -0.3612 -0.2355 -0.1830
24649SOL    HW278505   8.113   8.298   3.193 -0.1702 -1.5019 -0.9875
24650SOL     OW78506   8.215   7.439   7.461  0.6130 -0.5836  0.2330
24650SOL    HW178507   8.207   7.486   7.544 -0.5613 -1.0432  0.4001
24650SOL    HW278508   8.133   7.391   7.453  0.7973 -0.7092 -1.0998
24651SOL     OW78509  10.075  11.332   0.022  0.3685 -0.0206  0.0237
24651SOL    HW178510  10.117  11.261  -0.027 -0.4629 -0.1018 -0.5876
24651SOL    HW278511   9.993  11.295   0.052  1.0891 -0.1313  1.9584
24652SOL     OW78512   1.093   4.055  10.186  0.2423 -0.1348 -0.0402
24652SOL    HW178513   1.017   4.105  10.217 -0.2275 -0.4630 -0.6247
24652SOL    HW278514   1.058   3.967  10.169  1.2548 -0.9770  1.8998
24653SOL     OW78515   3.695   7.742  10.863 -0.5781 -0.4164 -0.3143
24653SOL    HW178516   3.708   7.720  10.770 -0.9778 -1.4656 -0.1372
24653SOL    HW278517   3.612   7.789  10.864  0.2729  1.1575 -0.6969
24654SOL     OW78518   0.339   1.596   4.422 -0.2642 -0.1470  0.0149
24654SOL    HW178519   0.260   1.544   4.410 -1.2042  1.3500 -0.6016
24654SOL    HW278520   0.331   1.631   4.511  0.2865 -0.8820  0.3683
24655SOL     OW78521   9.943   9.663  12.053  0.0165  0.1869  0.6748
24655SOL    HW178522   9.950   9.570  12.030  0.7141  0.5214 -0.5330
24655SOL    HW278523   9.942   9.664  12.149 -0.7340 -1.1116  0.7008
24656SOL     OW78524   1.863   8.988  12.109 -0.6200  0.8834 -0.2834
24656SOL    HW178525   1.810   9.013  12.185 -1.2939  0.8723 -0.7413
24656SOL    HW278526   1.953   8.989  12.141 -0.7821  2.1230  0.1804
24657SOL     OW78527  10.176   4.506   7.795  0.2749  0.5985  0.3263
24657SOL    HW178528  10.156   4.505   7.702 -0.7164 -1.2573  0.5178
24657SOL    HW278529  10.268   4.478   7.801  0.1185  0.0015 -0.0507
24658SOL     OW78530   4.048   2.580   2.444  0.7543 -0.1989 -0.2187
24658SOL    HW178531   4.021   2.661   2.401  0.8395  1.1716  2.1365
24658SOL    HW278532   3.983   2.515   2.416 -0.4129  1.1413 -0.6984
24659SOL     OW78533   1.800   1.173   3.038 -0.1103 -0.2531  0.3702
24659SOL    HW178534   1.863   1.132   3.098  0.1223 -3.1504 -1.6471
24659SOL    HW278535   1.714   1.156   3.078  0.1058 -1.1084  0.4900
24660SOL     OW78536  11.546   5.924   2.538 -0.0526 -0.3151 -0.3667
24660SOL    HW178537  11.625   5.909   2.588 -0.2517 -0.6883 -0.1619
24660SOL    HW278538  11.525   6.017   2.554 -1.1714 -0.8743  1.8110
24661SOL     OW78539   3.061   6.910   3.858 -0.4345  0.2485 -0.4118
24661SOL    HW178540   3.155   6.894   3.866 -0.5556  0.0516  0.9549
24661SOL    HW278541   3.023   6.824   3.839 -0.4607  0.0405  0.5110
24662SOL     OW78542   5.274   1.815   7.541  0.1474 -0.1570  0.0636
24662SOL    HW178543   5.230   1.841   7.622  0.7259 -0.2191  0.3994
24662SOL    HW278544   5.330   1.742   7.566 -0.7524 -1.1415 -0.6910
24663SOL     OW78545  10.902  10.826   9.001  0.0212  0.5822  0.0036
24663SOL    HW178546  10.861  10.891   8.944  0.2314  0.1275 -0.6787
24663SOL    HW278547  10.996  10.841   8.991  0.0544  0.8761  0.6848
24664SOL     OW78548   4.709   0.655   0.459  0.4508  0.6716  0.1994
24664SOL    HW178549   4.630   0.625   0.503  2.0042 -0.2981  2.4995
24664SOL    HW278550   4.747   0.720   0.518  1.2164  1.3893 -1.0251
24665SOL     OW78551   5.211   5.417   5.995 -0.3907  0.0155 -0.2505
24665SOL    HW178552   5.288   5.376   6.033  0.1504  0.6591 -0.6161
24665SOL    HW278553   5.246   5.493   5.948 -1.1850 -0.0048 -0.8921
24666SOL     OW78554   3.651   5.283   5.447 -0.0838 -0.3028  0.3583
24666SOL    HW178555   3.580   5.332   5.489 -0.0398 -0.1369  0.2395
24666SOL    HW278556   3.729   5.304   5.498 -0.0583 -0.2197  0.2859
24667SOL     OW78557   6.576   1.780   3.594 -0.1686  0.2119 -0.4623
24667SOL    HW178558   6.501   1.827   3.630  0.4919 -0.6389  2.2684
24667SOL    HW278559   6.539   1.719   3.530 -1.6829  0.4658  0.1329
24668SOL     OW78560   9.647   4.277  10.089 -0.6459  0.6254 -0.2387
24668SOL    HW178561   9.706   4.208  10.119 -0.5089  1.9598  2.9304
24668SOL    HW278562   9.559   4.239  10.100 -0.5509  0.7126  0.9294
24669SOL     OW78563   8.906  11.283   1.083  0.4721 -0.4049  0.5682
24669SOL    HW178564   8.944  11.275   1.171  1.7960  0.0896  0.0620
24669SOL    HW278565   8.929  11.371   1.054  1.2193 -1.0192 -0.7932
24670SOL     OW78566   5.013   9.959  10.204  0.4193  0.7832  0.5996
24670SOL    HW178567   4.968   9.973  10.287  0.4284 -0.3184  0.8072
24670SOL    HW278568   4.963   9.891  10.160  2.8139 -1.8272  1.6430
24671SOL     OW78569  10.255   9.219   2.919  0.9090 -0.6870  0.4684
24671SOL    HW178570  10.175   9.259   2.951  0.5911  1.4009 -2.4986
24671SOL    HW278571  10.324   9.283   2.938  1.2511 -0.8814 -0.0727
24672SOL     OW78572   1.499   8.695   8.280 -0.3040  0.5477  0.8280
24672SOL    HW178573   1.592   8.701   8.260 -0.6182  0.8553 -0.6450
24672SOL    HW278574   1.492   8.619   8.338  0.9314  0.9183  1.4977
24673SOL     OW78575   8.763   4.733   6.799 -0.0096  1.0350  0.2473
24673SOL    HW178576   8.851   4.728   6.837  0.0871  0.0199 -0.1073
24673SOL    HW278577   8.751   4.827   6.782  1.0916  1.1668  0.0829
24674SOL     OW78578   0.948   5.824   8.744 -0.1362 -0.3794  0.4179
24674SOL    HW178579   0.864   5.839   8.701  0.6669  1.5887 -0.5786
24674SOL    HW278580   0.941   5.868   8.828  0.0303  0.1964  0.1386
24675SOL     OW78581   1.118  11.665   4.353 -0.1774 -0.7280 -0.2110
24675SOL    HW178582   1.147  11.585   4.397  0.1059  0.0372  1.0328
24675SOL    HW278583   1.195  11.721   4.349 -0.7446  0.1245  0.3917
24676SOL     OW78584   5.280   6.094   2.244  0.4819  0.0702  1.1395
24676SOL    HW178585   5.299   6.144   2.323  0.4904  1.6468  0.1836
24676SOL    HW278586   5.330   6.137   2.175 -2.8288  1.5265 -0.5752
24677SOL     OW78587   2.370   6.024   8.373 -0.5097 -0.2353 -0.3431
24677SOL    HW178588   2.327   6.107   8.392 -3.5282 -1.9497  0.9022
24677SOL    HW278589   2.392   6.030   8.280  1.5217  2.7552  0.1669
24678SOL     OW78590   9.379   9.464  11.642  0.0461 -0.2164  0.4438
24678SOL    HW178591   9.329   9.399  11.593  0.6488 -1.5673  1.5716
24678SOL    HW278592   9.356   9.547  11.600  1.1026 -1.3286 -2.6494
24679SOL     OW78593   6.097  11.738   4.559  0.0959  0.6454 -0.1284
24679SOL    HW178594   6.116  11.644   4.558 -0.4396  0.5262  0.5007
24679SOL    HW278595   6.163  11.776   4.617  0.3553  0.6682 -0.4378
24680SOL     OW78596   3.100   9.781   6.619  0.2359 -0.4593  0.0456
24680SOL    HW178597   3.140   9.706   6.577 -0.6062  0.2190 -2.0865
24680SOL    HW278598   3.011   9.753   6.641  0.1959 -0.3513  0.0256
24681SOL     OW78599  10.351   8.781   6.325 -0.0667  0.1687 -0.0668
24681SOL    HW178600  10.260   8.809   6.326  0.0430  0.6085  2.1899
24681SOL    HW278601  10.399   8.857   6.292 -0.2745  0.9286  1.3116
24682SOL     OW78602   4.559   3.736   5.748  0.5248  0.1834  0.2225
24682SOL    HW178603   4.465   3.749   5.754  0.5013 -0.6101  2.1240
24682SOL    HW278604   4.575   3.721   5.655 -0.7569  3.4256 -0.6709
24683SOL     OW78605   3.257   4.069   6.815  0.0625 -0.5483 -0.6029
24683SOL    HW178606   3.318   4.098   6.747 -0.4894  0.1911 -0.7921
24683SOL    HW278607   3.193   4.140   6.822  0.0209 -0.6869  0.5870
24684SOL     OW78608   3.720   4.433   0.407 -0.3051 -0.0879  0.1518
24684SOL    HW178609   3.701   4.380   0.484 -0.5453  0.8907  0.7827
24684SOL    HW278610   3.673   4.515   0.422 -1.5186 -0.3927 -1.7037
24685SOL     OW78611   5.715   5.579   0.576  0.2485 -0.2738 -0.0186
24685SOL    HW178612   5.659   5.571   0.654 -1.6244 -1.2020 -1.3734
24685SOL    HW278613   5.658   5.553   0.503  1.4308  2.1087 -1.9265
24686SOL     OW78614  11.908   8.762  10.152 -0.4666  0.0016  0.1810
24686SOL    HW178615  11.998   8.729  10.156 -0.2139  0.7535  0.9341
24686SOL    HW278616  11.891   8.775  10.059 -0.0115 -0.7144 -0.0118
24687SOL     OW78617   5.128   5.376   7.016  0.3208 -0.3112  0.0908
24687SOL    HW178618   5.200   5.369   6.953  1.9564  1.3868  1.6647
24687SOL    HW278619   5.168   5.356   7.101 -0.8992  1.2579  1.0893
24688SOL     OW78620   6.958   9.424  11.115  0.4479 -0.2180 -0.1169
24688SOL    HW178621   7.024   9.359  11.088  0.2575 -0.7173  0.5998
24688SOL    HW278622   7.010   9.500  11.143  0.6577  0.5982 -2.4383
24689SOL     OW78623   5.063  11.423   5.477  0.5315  0.5351  0.0535
24689SOL    HW178624   5.053  11.328   5.475 -0.3787  0.6140  0.1994
24689SOL    HW278625   4.999  11.451   5.543 -1.5859  1.5158 -2.2624
24690SOL     OW78626   6.686   9.826   1.147  0.2602  0.1842 -0.1706
24690SOL    HW178627   6.709   9.907   1.193 -2.2701  1.5108 -0.9937
24690SOL    HW278628   6.635   9.776   1.210  0.6060 -0.0917 -0.1122
24691SOL     OW78629   3.407   9.655   1.469  0.0310 -0.6837 -0.7869
24691SOL    HW178630   3.448   9.569   1.457 -0.5568 -1.1463  0.3669
24691SOL    HW278631   3.324   9.636   1.513 -0.5003  0.4133 -1.2886
24692SOL     OW78632   2.519   8.952   7.595 -0.6873 -0.0350 -0.4194
24692SOL    HW178633   2.479   8.971   7.680 -2.1976  0.7070 -1.2587
24692SOL    HW278634   2.604   8.995   7.598 -0.7834  0.1115  0.6592
24693SOL     OW78635   3.270   0.111   4.231 -0.4262  0.0124  0.3177
24693SOL    HW178636   3.270   0.116   4.327  0.0834  1.7833  0.2472
24693SOL    HW278637   3.184   0.074   4.210 -0.6799 -0.0877  1.4396
24694SOL     OW78638   1.193   5.168   2.965 -0.0552  0.5937  0.5123
24694SOL    HW178639   1.148   5.146   3.046  0.6915 -1.0389  0.5147
24694SOL    HW278640   1.247   5.244   2.988  0.6533 -0.2413  1.7561
24695SOL     OW78641   0.861   1.168  11.342 -0.9608 -0.3847  0.1720
24695SOL    HW178642   0.793   1.107  11.372 -1.1217 -0.2404  0.1055
24695SOL    HW278643   0.831   1.254  11.372 -1.0151 -0.2680 -0.2114
24696SOL     OW78644   8.710   6.345   4.674 -0.6570 -0.2772  0.3081
24696SOL    HW178645   8.743   6.294   4.747  0.0447 -0.3722 -0.0608
24696SOL    HW278646   8.615   6.345   4.684 -0.5447  0.0364  1.4316
24697SOL     OW78647   5.507   5.749   5.226  0.1099 -0.0100  0.2854
24697SOL    HW178648   5.470   5.718   5.308  0.2140 -2.2494 -0.4400
24697SOL    HW278649   5.432   5.757   5.167  0.0720  1.2787  0.4964
24698SOL     OW78650   2.354   3.448   3.039 -0.7948  0.1545  0.2198
24698SOL    HW178651   2.414   3.481   3.105 -1.0508  0.2708  0.3967
24698SOL    HW278652   2.407   3.389   2.985 -0.1101  1.5166 -0.6417
24699SOL     OW78653   7.760   1.035  10.035  0.0838  0.3663 -0.1206
24699SOL    HW178654   7.766   0.983   9.954  1.0865  1.0792 -0.5305
24699SOL    HW278655   7.811   0.985  10.099 -0.2461  0.0803 -0.0762
24700SOL     OW78656  11.983   1.825   3.055 -0.7857 -0.5680 -0.7167
24700SOL    HW178657  11.904   1.792   3.011 -1.8281 -0.6513  1.1249
24700SOL    HW278658  11.964   1.917   3.071  0.4698  0.0085 -2.2605
24701SOL     OW78659   0.190   7.203   8.697  0.4796  0.6778 -0.0208
24701SOL    HW178660   0.154   7.140   8.759 -0.9198  0.2726 -1.1812
24701SOL    HW278661   0.222   7.149   8.625  0.5225  1.2209 -0.4094
24702SOL     OW78662  10.229  11.871   0.557 -0.0883  0.6299 -0.1241
24702SOL    HW178663  10.170  11.811   0.510  0.5742  0.0924 -0.2859
24702SOL    HW278664  10.296  11.814   0.594  1.4120  1.3884 -1.5410
24703SOL     OW78665   5.036  10.969   0.402 -0.2185  0.1460  0.0736
24703SOL    HW178666   4.983  10.896   0.370  0.3608 -0.5250  0.6116
24703SOL    HW278667   5.100  10.984   0.333  0.8568 -1.1179  0.7502
24704SOL     OW78668  10.261   9.020  11.726 -0.4659 -0.0815  0.1523
24704SOL    HW178669  10.357   9.019  11.718 -0.5094  0.1288 -0.4410
24704SOL    HW278670  10.244   8.978  11.811  0.1896  0.6760  0.6792
24705SOL     OW78671   2.537   5.455   5.330  0.0555 -0.3111  0.3781
24705SOL    HW178672   2.520   5.531   5.274 -1.9425  0.0679  1.4087
24705SOL    HW278673   2.631   5.439   5.321  0.5935  2.4443  0.3097
24706SOL     OW78674   3.774   8.980   1.204 -0.0391  0.1008 -0.2729
24706SOL    HW178675   3.791   9.040   1.277 -1.1056  0.5087 -0.3436
24706SOL    HW278676   3.859   8.968   1.163 -0.0239  2.8042 -1.1957
24707SOL     OW78677   6.790   6.992   2.000 -0.4997 -0.1738 -0.0607
24707SOL    HW178678   6.760   7.082   1.988 -0.7159 -0.2426 -0.0454
24707SOL    HW278679   6.710   6.939   1.992 -0.5586 -0.2696  1.0161
24708SOL     OW78680   9.267   7.086   4.880 -0.0004  0.1757  0.1763
24708SOL    HW178681   9.241   7.065   4.791 -1.0966 -0.9568  0.7239
24708SOL    HW278682   9.194   7.137   4.916  0.6810  1.1178  0.2662
24709SOL     OW78683  10.856  10.947   6.249 -0.1102 -0.0828 -0.0515
24709SOL    HW178684  10.950  10.962   6.236 -0.5257  1.0366 -2.0600
24709SOL    HW278685  10.837  10.988   6.333  0.9719  0.7560 -0.1910
24710SOL     OW78686   2.990   7.669   7.084  0.6938 -0.1090  0.0529
24710SOL    HW178687   2.999   7.588   7.033  0.8097  0.0497 -0.1775
24710SOL    HW278688   2.933   7.644   7.158 -0.4532 -0.0516 -0.7816
24711SOL     OW78689  10.458   8.008   7.648 -0.2020  0.2526  0.2550
24711SOL    HW178690  10.418   7.979   7.730  1.0096 -0.0328  0.7599
24711SOL    HW278691  10.533   7.949   7.635 -0.0980  0.5912 -0.8158
24712SOL     OW78692   0.393   9.510   4.008 -0.3133 -0.0453 -0.5152
24712SOL    HW178693   0.328   9.441   3.999 -0.9164  0.2837  0.9831
24712SOL    HW278694   0.349   9.576   4.062  0.9077  0.6545 -0.3553
24713SOL     OW78695   2.929   0.609   1.454 -0.2267 -0.2408 -0.0520
24713SOL    HW178696   2.903   0.573   1.370 -0.0005  0.5877 -0.4880
24713SOL    HW278697   2.848   0.610   1.505 -1.0952  2.1382 -1.3320
24714SOL     OW78698   6.339   3.616   4.519 -0.2373 -0.2694  0.1599
24714SOL    HW178699   6.309   3.694   4.472  0.0455  1.1464  2.1973
24714SOL    HW278700   6.422   3.642   4.557 -0.2653 -1.4916  1.1113
24715SOL     OW78701   0.180  11.256   9.365  0.0138 -0.5465 -0.5728
24715SOL    HW178702   0.270  11.265   9.395  0.4767 -1.7126 -1.5134
24715SOL    HW278703   0.134  11.331   9.402  0.8483 -1.1161  1.7854
24716SOL     OW78704   6.777   9.032  11.644 -0.2576 -0.2324  0.1001
24716SOL    HW178705   6.867   9.047  11.615 -0.1738 -0.3003  0.3222
24716SOL    HW278706   6.784   9.016  11.738 -0.4931 -0.3136  0.1063
24717SOL     OW78707   5.747   7.426   9.110 -0.1930  0.4191  0.1291
24717SOL    HW178708   5.789   7.370   9.175 -0.6915 -0.0563  0.0552
24717SOL    HW278709   5.710   7.498   9.161  1.5373  1.3760  0.0808
24718SOL     OW78710   2.550   2.803   1.407 -0.0625  0.3768  0.5192
24718SOL    HW178711   2.523   2.712   1.416 -0.7263  0.3605 -1.2007
24718SOL    HW278712   2.469   2.853   1.408  0.3168  1.0087  1.7828
24719SOL     OW78713   0.652   7.671   6.918 -0.3943 -0.5345 -1.0222
24719SOL    HW178714   0.627   7.628   6.836 -0.2810 -1.7049 -0.4710
24719SOL    HW278715   0.704   7.605   6.964  1.3752  0.8382 -0.9238
24720SOL     OW78716  10.362  10.647   1.642  0.0577 -0.0929 -0.1553
24720SOL    HW178717  10.332  10.735   1.666 -0.0173 -0.5659  1.6195
24720SOL    HW278718  10.286  10.592   1.656  0.5168 -0.6542  0.1572
24721SOL     OW78719   2.617   0.985   2.236 -0.4805  0.1210  0.0270
24721SOL    HW178720   2.619   1.049   2.308 -0.3277  0.6597 -0.4563
24721SOL    HW278721   2.706   0.984   2.201 -0.4924 -0.3266 -0.0013
24722SOL     OW78722   5.867   7.630   0.671  0.2788  0.1695  0.3326
24722SOL    HW178723   5.849   7.663   0.583 -0.6975  2.9628  1.4893
24722SOL    HW278724   5.784   7.639   0.718  0.9161 -0.7989  1.7198
24723SOL     OW78725   0.369   7.025   5.414 -0.0372  0.1703  0.0275
24723SOL    HW178726   0.299   7.087   5.394 -1.9126 -1.5095  1.0397
24723SOL    HW278727   0.402   7.054   5.499 -2.0033 -1.0102  1.2888
24724SOL     OW78728  10.857   3.145   0.008  0.1830  0.1452 -0.7959
24724SOL    HW178729  10.762   3.140   0.002 -0.3864  0.6462  3.9504
24724SOL    HW278730  10.879   3.232  -0.024 -1.5556  1.5341  1.4675
24725SOL     OW78731   9.600   9.724   8.362 -0.0526  0.6866  0.0740
24725SOL    HW178732   9.579   9.674   8.283  1.0310  1.0089 -0.4479
24725SOL    HW278733   9.582   9.815   8.337  1.5508  0.9335 -0.2773
24726SOL     OW78734   3.177   8.443   1.457  0.1853  0.3165 -0.2108
24726SOL    HW178735   3.269   8.465   1.471  0.6072  0.5968 -2.9601
24726SOL    HW278736   3.161   8.460   1.365 -2.8782  1.0161  0.3240
24727SOL     OW78737   0.851   4.447   8.027  0.4103 -0.4181 -0.2125
24727SOL    HW178738   0.912   4.421   8.097  1.2821  1.7320 -0.0783
24727SOL    HW278739   0.765   4.445   8.068  0.3211 -3.3384 -0.3487
24728SOL     OW78740   8.134   4.181   0.305 -0.9407  0.1948 -0.8728
24728SOL    HW178741   8.202   4.230   0.258  0.1550 -1.5784 -1.2225
24728SOL    HW278742   8.059   4.181   0.244  0.0176 -0.9490 -2.1235
24729SOL     OW78743  11.955   0.278   4.287  0.1069 -0.2952  0.4047
24729SOL    HW178744  11.878   0.285   4.231 -0.8253 -1.5912  1.4644
24729SOL    HW278745  11.920   0.278   4.376  1.3829 -0.3410  0.9286
24730SOL     OW78746  10.590   3.788   7.966 -0.2639  0.2687  0.2778
24730SOL    HW178747  10.569   3.733   7.891  1.0061  0.3646 -0.1736
24730SOL    HW278748  10.661   3.844   7.936  0.6491 -0.0591  1.7032
24731SOL     OW78749   6.671   4.810   2.091  0.0227  0.0126 -0.0559
24731SOL    HW178750   6.693   4.816   1.998 -0.5616 -1.6151 -0.3407
24731SOL    HW278751   6.579   4.836   2.097 -0.3076 -1.0562 -0.1571
24732SOL     OW78752   3.500   6.604   6.222 -0.4316 -0.4976 -0.5040
24732SOL    HW178753   3.535   6.639   6.304 -0.6012 -2.2740  0.3587
24732SOL    HW278754   3.405   6.604   6.234 -0.6020  1.0428 -1.4946
24733SOL     OW78755  11.436   3.702   8.411  0.8673 -0.1721  0.0478
24733SOL    HW178756  11.478   3.637   8.467  1.1016 -0.6832 -0.7056
24733SOL    HW278757  11.342   3.690   8.427  0.9586  0.6137  1.3375
24734SOL     OW78758   3.396   1.344   7.624 -0.1016 -0.3641  0.0756
24734SOL    HW178759   3.417   1.397   7.701  0.0549 -0.5717  0.1743
24734SOL    HW278760   3.347   1.269   7.658 -1.6904  0.4833 -0.2215
24735SOL     OW78761   8.078   4.000   3.278 -0.3018 -0.5682 -0.4328
24735SOL    HW178762   8.022   4.008   3.201 -2.5637 -1.3750  1.0132
24735SOL    HW278763   8.067   3.909   3.306  1.2124 -0.5567  0.3430
24736SOL     OW78764   0.382   2.298   4.253  0.3725 -0.2680  0.3880
24736SOL    HW178765   0.353   2.329   4.167 -0.4827 -1.1774  0.3368
24736SOL    HW278766   0.449   2.233   4.234 -0.9371 -1.6412  0.3292
24737SOL     OW78767   9.826   7.592   0.410  0.2183  0.6351 -0.4805
24737SOL    HW178768   9.758   7.544   0.458 -1.1043  1.1738 -1.7340
24737SOL    HW278769   9.851   7.663   0.469  0.4997 -0.2218  0.4432
24738SOL     OW78770   4.084  11.993   1.118 -0.2834 -0.0154 -0.0525
24738SOL    HW178771   4.137  11.991   1.039 -1.2194 -1.9940 -0.7027
24738SOL    HW278772   4.000  11.954   1.092 -0.9117  0.0756  1.6957
24739SOL     OW78773   0.906  10.602   9.774  0.2433  0.5548  0.0576
24739SOL    HW178774   0.917  10.656   9.696  2.2008  0.5502  0.2911
24739SOL    HW278775   0.919  10.662   9.847  3.6680 -0.3191  0.3304
24740SOL     OW78776   4.755  10.287   8.068 -0.1814 -0.7113 -0.2396
24740SOL    HW178777   4.761  10.329   7.983  0.4955  0.8190  0.5274
24740SOL    HW278778   4.769  10.194   8.050  3.8699 -0.0821 -1.4357
24741SOL     OW78779   9.771   1.010   3.110 -0.0651 -0.1487  0.0860
24741SOL    HW178780   9.817   0.961   3.178 -2.3527 -1.9183  0.4624
24741SOL    HW278781   9.814   0.985   3.028  0.9873 -0.0706  0.5991
24742SOL     OW78782   6.134   1.209  10.628  0.2207  0.2775 -0.0588
24742SOL    HW178783   6.149   1.120  10.598  0.9605  0.2900  0.2410
24742SOL    HW278784   6.119   1.259  10.548 -3.0802 -0.5839 -0.1042
24743SOL     OW78785   6.630   4.312   7.582  1.0132 -0.4981  0.5273
24743SOL    HW178786   6.664   4.388   7.631  1.4551 -0.3687  0.0259
24743SOL    HW278787   6.546   4.293   7.624  1.3953 -0.4140  1.3692
24744SOL     OW78788   5.891   8.970   5.212 -0.0346  0.2590 -0.2527
24744SOL    HW178789   5.961   8.948   5.273  0.6677  1.8062 -0.4284
24744SOL    HW278790   5.857   9.054   5.245 -0.8668  0.2071 -0.9530
24745SOL     OW78791   9.778   5.429   1.543 -0.8413  0.4538  0.0057
24745SOL    HW178792   9.814   5.445   1.456  0.4977  1.4962  0.6937
24745SOL    HW278793   9.816   5.346   1.571 -0.8843  0.3607 -0.2168
24746SOL     OW78794   8.033   3.524   8.076  0.4225  0.1670  0.1148
24746SOL    HW178795   7.988   3.594   8.122  1.5921  1.9197 -1.2401
24746SOL    HW278796   8.010   3.537   7.984  0.2400 -1.5860 -0.1191
24747SOL     OW78797   2.103   8.633  11.358  0.0284  1.3546  0.1279
24747SOL    HW178798   2.008   8.641  11.355 -0.2647 -1.3962 -0.8211
24747SOL    HW278799   2.125   8.643  11.451 -1.3599  0.7003  0.5536
24748SOL     OW78800   8.864   7.982   7.766 -0.2546  0.3800  0.0859
24748SOL    HW178801   8.952   7.991   7.731 -0.3232  2.6743  0.3279
24748SOL    HW278802   8.866   8.032   7.848 -1.7731  0.5548  0.0515
24749SOL     OW78803   7.514   2.251   9.972  0.5273 -0.3696  0.1037
24749SOL    HW178804   7.503   2.249  10.067 -0.9808  0.2110 -0.0269
24749SOL    HW278805   7.435   2.208   9.939  0.0966  1.1334 -0.9135
24750SOL     OW78806   4.105   0.786   2.580 -0.0378 -0.0528  0.3399
24750SOL    HW178807   4.051   0.825   2.650  0.1069  0.3723  0.2183
24750SOL    HW278808   4.043   0.740   2.524 -0.3638  0.9964 -0.1744
24751SOL     OW78809   6.595   6.080   4.693 -0.2798  0.7493  0.1037
24751SOL    HW178810   6.664   6.095   4.758  0.8166  0.2046 -0.9110
24751SOL    HW278811   6.519   6.125   4.729  0.2089  0.2001  1.9229
24752SOL     OW78812  10.370   9.461   6.566  0.0620 -0.1293 -0.0225
24752SOL    HW178813  10.356   9.393   6.632  0.1540  0.3023  0.4528
24752SOL    HW278814  10.455   9.498   6.588 -0.1653  0.4091 -0.0328
24753SOL     OW78815   5.733   2.978   0.967  0.1990  0.5052  0.7598
24753SOL    HW178816   5.646   2.942   0.982  0.0124 -0.1632 -1.4881
24753SOL    HW278817   5.726   3.025   0.884  1.7028  1.4570  1.1205
24754SOL     OW78818   6.408   3.414   1.612 -0.5643 -0.0415  0.2408
24754SOL    HW178819   6.492   3.457   1.622 -0.4017 -0.2658 -0.1733
24754SOL    HW278820   6.412   3.371   1.527 -1.0493 -0.1557  0.2720
24755SOL     OW78821   1.440   3.335  10.019  0.3848 -0.3954 -0.1617
24755SOL    HW178822   1.488   3.264  10.061 -1.2008 -0.5444  1.5260
24755SOL    HW278823   1.488   3.351   9.937  2.1236 -1.8126  0.5020
24756SOL     OW78824   0.209   5.658   5.535 -0.0287 -1.1072 -0.6651
24756SOL    HW178825   0.295   5.655   5.576  0.1630  0.3120 -0.9110
24756SOL    HW278826   0.215   5.597   5.461  0.9889 -0.5022 -1.0897
24757SOL     OW78827  11.486   1.489   3.306 -0.0302  0.5446  0.1397
24757SOL    HW178828  11.575   1.479   3.274 -0.0023 -0.5744  0.5234
24757SOL    HW278829  11.495   1.542   3.385  0.7415 -2.1280  1.9851
24758SOL     OW78830   6.785  10.298  11.824  0.1046  0.1780  0.2692
24758SOL    HW178831   6.820  10.219  11.864  0.4790 -0.5209 -1.3637
24758SOL    HW278832   6.694  10.301  11.854  0.5622  0.1148  1.7467
24759SOL     OW78833   0.676   1.044   0.898  0.2632  0.0171  0.2973
24759SOL    HW178834   0.658   1.018   0.807 -1.8086  1.1998  0.3035
24759SOL    HW278835   0.759   1.091   0.894  1.1081 -1.4848 -0.6648
24760SOL     OW78836  10.393   1.677   6.753 -0.1296  0.3532  0.1507
24760SOL    HW178837  10.427   1.587   6.753 -3.2251 -0.9588 -0.7479
24760SOL    HW278838  10.444   1.722   6.686  1.5056 -0.6984  0.6337
24761SOL     OW78839  11.901   9.777   6.068 -0.2247 -0.3886 -0.6968
24761SOL    HW178840  11.982   9.732   6.044 -0.5016  0.0050 -2.5026
24761SOL    HW278841  11.869   9.815   5.986 -1.0231  1.4663  0.4083
24762SOL     OW78842   1.905   7.615   8.215 -0.6536 -0.0823  0.0277
24762SOL    HW178843   1.852   7.560   8.274  1.6676  0.1238  2.4860
24762SOL    HW278844   1.961   7.553   8.169 -0.2445 -0.0187  0.4361
24763SOL     OW78845   8.581   7.662   9.581 -0.4542 -0.1827  0.1896
24763SOL    HW178846   8.562   7.756   9.578 -0.9169 -0.2963 -1.0696
24763SOL    HW278847   8.598   7.644   9.673  1.0360  1.4005  0.2682
24764SOL     OW78848  10.830   4.556  10.597 -0.0435  0.6931 -0.5643
24764SOL    HW178849  10.855   4.497  10.526  1.0638  0.2044  0.2079
24764SOL    HW278850  10.744   4.525  10.624  0.2738 -0.2047 -0.5522
24765SOL     OW78851  10.462  10.389   7.592 -0.2601 -0.1516  0.1093
24765SOL    HW178852  10.409  10.457   7.550  0.2622 -0.4775 -1.1318
24765SOL    HW278853  10.533  10.372   7.529  0.4372 -0.8117  1.0471
24766SOL     OW78854   8.553   3.164   5.813  0.4433 -0.6398 -0.0368
24766SOL    HW178855   8.531   3.148   5.905  3.4642  0.8075  1.0910
24766SOL    HW278856   8.606   3.088   5.787  2.8589  0.6473  0.7821
24767SOL     OW78857   8.188  11.614   7.034 -0.1905  0.2912  0.1823
24767SOL    HW178858   8.204  11.676   6.964 -0.5524 -0.1759 -0.3201
24767SOL    HW278859   8.269  11.564   7.041 -0.3579 -0.0548 -0.3087
24768SOL     OW78860   1.140   6.165   4.994  0.1261 -0.2233 -0.5344
24768SOL    HW178861   1.212   6.193   4.937  0.3389  0.0196 -0.1532
24768SOL    HW278862   1.060   6.186   4.944  0.3081 -2.5965 -1.9634
24769SOL     OW78863   4.196   4.256   4.572 -0.5551  0.3079 -0.1434
24769SOL    HW178864   4.203   4.347   4.546  1.6782  0.1815 -0.2206
24769SOL    HW278865   4.243   4.251   4.656 -3.0712 -0.2797  1.3420
24770SOL     OW78866  10.057   3.201   4.439 -0.0035  0.7818 -0.2837
24770SOL    HW178867  10.063   3.261   4.513  1.5221  0.0025  0.2725
24770SOL    HW278868  10.126   3.230   4.379  2.4693 -1.7450  1.0870
24771SOL     OW78869   6.555   9.185   5.071 -0.4351 -0.0397 -0.7300
24771SOL    HW178870   6.621   9.120   5.096 -1.3810 -0.9608 -0.5698
24771SOL    HW278871   6.536   9.166   4.979 -0.2172  0.4668 -0.8835
24772SOL     OW78872   7.919   9.453  10.474  0.1448 -0.1409  0.4870
24772SOL    HW178873   7.958   9.408  10.399 -0.5790 -1.5535  0.9248
24772SOL    HW278874   7.863   9.387  10.516 -0.6109  1.0421  1.4236
24773SOL     OW78875  11.477   0.015   6.559  0.2561 -0.3670  0.0412
24773SOL    HW178876  11.421   0.000   6.635 -0.2747  2.2832  0.2592
24773SOL    HW278877  11.438   0.090   6.514  1.4199 -0.9188 -2.0411
24774SOL     OW78878   6.067  11.395   5.064 -0.6470 -0.1348  0.2907
24774SOL    HW178879   5.971  11.394   5.073 -0.9312  1.2387 -1.8903
24774SOL    HW278880   6.092  11.302   5.062 -2.1715 -0.5606 -0.9835
24775SOL     OW78881  11.808   8.295   7.496  0.7719  0.1396 -0.0038
24775SOL    HW178882  11.883   8.258   7.542 -0.1428 -0.4812  1.0601
24775SOL    HW278883  11.739   8.300   7.563 -0.7984 -1.2879 -1.4046
24776SOL     OW78884   1.912  10.807   2.642 -0.1939  0.9678 -0.0931
24776SOL    HW178885   1.940  10.775   2.556 -0.2321  1.4363 -0.2852
24776SOL    HW278886   1.966  10.885   2.657 -0.0885  0.8061  0.3724
24777SOL     OW78887   8.039   5.021  10.826  0.2192 -0.0222 -0.2222
24777SOL    HW178888   7.957   5.059  10.857 -0.2144  0.0245 -1.3828
24777SOL    HW278889   8.063   5.075  10.751  0.8696 -0.5597 -0.4074
24778SOL     OW78890   3.789   1.117   5.995  0.0848  0.1607 -0.4232
24778SOL    HW178891   3.800   1.212   6.006  1.0079  0.2714 -1.9790
24778SOL    HW278892   3.790   1.104   5.900 -1.6301 -1.2538 -0.2863
24779SOL     OW78893   5.264  11.285   2.124 -0.5209  0.0704 -0.3039
24779SOL    HW178894   5.355  11.267   2.147 -0.7311  0.0315  0.5300
24779SOL    HW278895   5.244  11.368   2.168 -0.8638  0.1075 -0.5283
24780SOL     OW78896   5.746   1.982   0.868 -0.0775  0.0136  0.1870
24780SOL    HW178897   5.660   1.939   0.868  1.1889 -2.7473 -1.0591
24780SOL    HW278898   5.778   1.972   0.958 -0.6788  0.3046  0.4414
24781SOL     OW78899   1.287   5.949   8.634 -0.2295  0.0835 -0.0176
24781SOL    HW178900   1.248   5.863   8.618 -0.2481 -0.0552  0.7102
24781SOL    HW278901   1.222   6.011   8.602 -0.7769 -0.1593  0.5911
24782SOL     OW78902   0.289   6.866   6.242  0.3724  0.3089  0.4586
24782SOL    HW178903   0.381   6.863   6.269  0.8171  1.1391 -0.8766
24782SOL    HW278904   0.251   6.938   6.293  1.3781  2.3418 -1.4739
24783SOL     OW78905   9.295   8.765   5.626 -0.2278  0.4007 -0.3809
24783SOL    HW178906   9.301   8.743   5.719  2.5601 -1.2399 -0.8348
24783SOL    HW278907   9.208   8.735   5.600  0.0865 -1.9752  1.0623
24784SOL     OW78908  11.644   3.977  10.735  0.9070 -0.6242 -0.1150
24784SOL    HW178909  11.663   4.027  10.815 -0.2768 -0.2377 -0.0581
24784SOL    HW278910  11.730   3.963  10.695  1.4769 -0.4052  0.9696
24785SOL     OW78911   4.252   1.043   6.379  0.1548 -0.1838  0.1681
24785SOL    HW178912   4.196   1.117   6.354 -0.5624 -0.7653  0.0038
24785SOL    HW278913   4.333   1.056   6.330 -1.0188 -1.0337 -2.1618
24786SOL     OW78914  10.474   5.831   5.724  0.3148 -0.1445 -0.8261
24786SOL    HW178915  10.550   5.875   5.686 -0.3870  1.6625 -0.2500
24786SOL    HW278916  10.495   5.821   5.817  0.5862 -1.3321 -1.0033
24787SOL     OW78917   2.649   9.962  10.605 -0.5954 -0.0293  0.2110
24787SOL    HW178918   2.713  10.001  10.546 -0.4188 -0.9352 -0.2192
24787SOL    HW278919   2.694   9.956  10.690  0.1690 -1.2896 -0.2484
24788SOL     OW78920   3.107   8.668   8.303  0.1982  0.4500 -0.1925
24788SOL    HW178921   3.124   8.625   8.387  0.6895  0.7400 -0.1449
24788SOL    HW278922   3.012   8.683   8.304  0.3016  1.1702  0.6649
24789SOL     OW78923   4.550   2.804   6.705  0.3980 -0.5544 -0.1899
24789SOL    HW178924   4.539   2.899   6.695 -1.3027 -0.7146 -0.0712
24789SOL    HW278925   4.623   2.783   6.647  0.4599  0.7484 -0.6282
24790SOL     OW78926   5.764   8.994   9.303  0.5904 -0.5930 -0.1229
24790SOL    HW178927   5.776   9.049   9.380 -2.9571 -0.2338  0.3242
24790SOL    HW278928   5.851   8.988   9.264  1.8672  1.9613  2.0492
24791SOL     OW78929   0.156  11.146   3.898  0.6162  0.2914  0.2754
24791SOL    HW178930   0.239  11.102   3.879 -0.2451 -0.8472 -1.0787
24791SOL    HW278931   0.151  11.148   3.994  1.4781 -1.0697  0.3738
24792SOL     OW78932   1.446  10.388   0.895  0.2043  0.0178 -0.5288
24792SOL    HW178933   1.516  10.357   0.953 -0.8761  0.3493  1.0335
24792SOL    HW278934   1.489  10.403   0.811  2.1016  0.5888  0.4800
24793SOL     OW78935   6.278  11.238   7.210  0.4366  0.0424  0.7133
24793SOL    HW178936   6.309  11.162   7.162 -1.1527 -1.0137  1.2751
24793SOL    HW278937   6.345  11.254   7.276  1.0626 -0.4950  0.2193
24794SOL     OW78938   8.682   6.123   9.693 -0.4711  0.1376  0.1629
24794SOL    HW178939   8.731   6.057   9.645  0.8875  1.6954 -0.6825
24794SOL    HW278940   8.605   6.076   9.726  0.0633 -1.6734 -1.0115
24795SOL     OW78941   0.914   3.982   0.362  0.0840  0.0762 -0.2067
24795SOL    HW178942   0.820   3.967   0.378  0.1914  0.7279  1.1513
24795SOL    HW278943   0.932   3.932   0.283 -0.4338 -3.7327  1.8224
24796SOL     OW78944   1.791  10.326   0.261 -0.2997 -0.2285 -0.2668
24796SOL    HW178945   1.832  10.247   0.297  0.1310 -0.1978 -0.6827
24796SOL    HW278946   1.860  10.367   0.209 -0.3389  0.7488  0.4334
24797SOL     OW78947   8.137  10.607   6.267  0.6851  0.4506 -0.5047
24797SOL    HW178948   8.061  10.616   6.324 -0.5933 -1.2732 -1.8567
24797SOL    HW278949   8.102  10.572   6.185  3.0461 -1.3564 -0.8389
24798SOL     OW78950   4.967   4.634   6.861 -0.3896 -0.4563  0.1157
24798SOL    HW178951   5.057   4.606   6.846 -0.9337 -2.2092 -0.0657
24798SOL    HW278952   4.942   4.679   6.780 -0.1672 -1.3636 -0.4778
24799SOL     OW78953   5.339  10.928   6.105  0.7119  0.4938  0.4498
24799SOL    HW178954   5.387  10.998   6.149 -0.7826  1.6158  0.3977
24799SOL    HW278955   5.297  10.972   6.031 -2.0467  0.0993  1.6417
24800SOL     OW78956   5.800   7.472   3.343 -0.0205  0.0420  0.5739
24800SOL    HW178957   5.856   7.459   3.419  0.5871 -0.0452  0.1145
24800SOL    HW278958   5.713   7.447   3.374  0.2876 -0.3812  1.1257
24801SOL     OW78959   8.780   9.937   5.913 -0.1359 -0.2708 -0.2133
24801SOL    HW178960   8.759   9.989   5.835 -0.9446 -1.4154 -0.7907
24801SOL    HW278961   8.864   9.972   5.944  0.4699 -0.1480 -1.9089
24802SOL     OW78962   2.973   0.985   0.250  0.4047  0.5783 -0.6017
24802SOL    HW178963   3.060   0.958   0.279  0.9556  0.9815 -1.8180
24802SOL    HW278964   2.945   1.050   0.314  0.4069 -0.5156  0.5552
24803SOL     OW78965   1.401   1.248   8.435  0.0933 -0.5719 -0.4330
24803SOL    HW178966   1.480   1.200   8.459  0.7732  0.1175 -1.2547
24803SOL    HW278967   1.368   1.282   8.519 -0.6915 -2.8156  0.2562
24804SOL     OW78968   4.074   7.693   4.347 -0.1953 -0.0604 -0.0139
24804SOL    HW178969   4.084   7.787   4.362 -2.7282  0.1308  1.0385
24804SOL    HW278970   4.151   7.653   4.386 -0.6782  1.3794  2.5958
24805SOL     OW78971   2.211   2.177   8.611  0.1877 -0.7111 -0.3967
24805SOL    HW178972   2.212   2.104   8.674 -0.9194 -0.0607  0.4103
24805SOL    HW278973   2.251   2.250   8.659  0.3387 -0.5022 -0.8379
24806SOL     OW78974   7.530   1.004   0.884 -0.5366 -0.3371  0.1099
24806SOL    HW178975   7.469   0.955   0.939  0.2370 -0.6526  0.6956
24806SOL    HW278976   7.616   0.979   0.915 -0.1146  0.9650  0.0347
24807SOL     OW78977   0.846   6.967   7.378 -0.7837 -0.0578  0.1688
24807SOL    HW178978   0.846   6.880   7.339 -0.6357 -0.2334  0.5669
24807SOL    HW278979   0.790   6.960   7.455  0.3488 -0.1575  1.0071
24808SOL     OW78980   2.043   2.385  10.998 -0.2439 -0.1694 -0.1988
24808SOL    HW178981   1.948   2.389  11.004 -0.1551 -0.5991  2.1475
24808SOL    HW278982   2.067   2.299  11.033  1.1503  1.1526  2.3650
24809SOL     OW78983   4.150  11.779   8.596 -0.0172 -0.3220 -0.8137
24809SOL    HW178984   4.084  11.845   8.614 -0.5656 -0.4742 -2.1570
24809SOL    HW278985   4.233  11.819   8.622 -0.1595  1.4455 -2.8354
24810SOL     OW78986   2.034   8.342   4.992  0.1934 -0.1399  0.3174
24810SOL    HW178987   2.083   8.262   5.010 -0.1391 -0.5961 -0.7086
24810SOL    HW278988   2.086   8.412   5.031  0.7253 -0.8055  0.8156
24811SOL     OW78989   4.602   7.834   7.302  0.2361  0.0425 -0.2108
24811SOL    HW178990   4.564   7.817   7.388 -1.4166  0.4130 -0.8149
24811SOL    HW278991   4.538   7.892   7.259  0.8917 -0.3321 -1.7711
24812SOL     OW78992   8.825  11.517   1.670 -0.3511 -0.6212 -0.1662
24812SOL    HW178993   8.891  11.469   1.719 -1.8042 -0.7743  1.7696
24812SOL    HW278994   8.870  11.596   1.638  0.6086 -0.4048  1.6295
24813SOL     OW78995   6.787   3.062   1.915  0.1211 -0.7264 -0.0021
24813SOL    HW178996   6.815   3.050   2.005  0.8438  0.2225 -0.0883
24813SOL    HW278997   6.864   3.095   1.870 -0.5369 -0.1328 -0.7290
24814SOL     OW78998   8.331  10.238   7.757  0.0746 -0.0957 -0.2900
24814SOL    HW178999   8.296  10.276   7.676 -0.8326 -2.1799 -0.9247
24814SOL    HW279000   8.419  10.209   7.733 -0.3930 -1.2029 -0.7059
24815SOL     OW79001   3.805   7.132   4.103  0.5741 -0.4429  0.6527
24815SOL    HW179002   3.736   7.171   4.049 -0.0175 -3.2969 -0.8708
24815SOL    HW279003   3.790   7.167   4.191 -3.6399 -1.7644  0.6622
24816SOL     OW79004   6.518  10.176   8.895 -0.0087 -0.0997  0.1838
24816SOL    HW179005   6.533  10.138   8.809  0.4059  0.5090 -0.0193
24816SOL    HW279006   6.476  10.106   8.945 -0.1726 -0.4866 -0.4822
24817SOL     OW79007   0.910   8.777   1.922 -0.8557 -0.3095 -0.6432
24817SOL    HW179008   0.920   8.857   1.973 -2.1126 -0.7678  0.3725
24817SOL    HW279009   0.956   8.710   1.974 -0.8085 -0.4741 -0.8963
24818SOL     OW79010   9.605   1.115   1.878 -0.2688 -0.1067  0.3163
24818SOL    HW179011   9.687   1.153   1.911 -1.6351  1.4875  2.1723
24818SOL    HW279012   9.537   1.161   1.928 -2.2776 -1.6431 -0.8922
24819SOL     OW79013   3.788   3.100  11.817  0.3497 -0.4060 -0.1050
24819SOL    HW179014   3.831   3.176  11.778  1.9059 -1.0185  0.3284
24819SOL    HW279015   3.787   3.034  11.747  0.1681 -0.4220 -0.0890
24820SOL     OW79016   7.292   8.772   1.165 -0.1731  0.0757 -0.2221
24820SOL    HW179017   7.206   8.780   1.124  0.0104 -0.8038 -0.8091
24820SOL    HW279018   7.354   8.774   1.092  0.3183  0.7595  0.2009
24821SOL     OW79019  11.992  11.548   8.611  0.7225 -0.5564 -0.3305
24821SOL    HW179020  12.024  11.597   8.536  0.6926  2.8220  1.6708
24821SOL    HW279021  12.068  11.541   8.669  0.0558 -0.5687  0.5643
24822SOL     OW79022   4.075  11.845   4.322  0.2983 -0.2766 -0.6899
24822SOL    HW179023   4.045  11.859   4.412  0.1015  1.8163 -1.0318
24822SOL    HW279024   3.995  11.825   4.274  0.2571 -0.3744 -0.5818
24823SOL     OW79025   2.775   7.841   5.042 -0.1783 -0.1898  0.0496
24823SOL    HW179026   2.698   7.786   5.026 -0.3805  0.5349 -1.6806
24823SOL    HW279027   2.850   7.782   5.028 -0.3727 -0.8090  1.4080
24824SOL     OW79028   7.979   3.972   5.532 -0.4914  0.2950 -0.2283
24824SOL    HW179029   8.054   3.919   5.506  0.6327  2.2490 -1.2235
24824SOL    HW279030   7.946   4.009   5.450 -0.6624  1.8016  0.4750
24825SOL     OW79031   5.676   1.803   4.576 -0.2220 -0.0424 -0.2955
24825SOL    HW179032   5.639   1.774   4.660  0.1550  0.7620  0.1616
24825SOL    HW279033   5.732   1.730   4.549  0.1110 -0.0834  0.4541
24826SOL     OW79034   9.150   0.386  11.990  0.0437 -0.2793 -0.6500
24826SOL    HW179035   9.142   0.291  11.986  1.9353 -0.4176 -3.0828
24826SOL    HW279036   9.241   0.401  12.017  0.0112  0.8196 -1.1093
24827SOL     OW79037   1.149   7.097   4.356 -0.4085 -0.1899  0.0723
24827SOL    HW179038   1.228   7.080   4.407 -0.3967  0.1146  0.1619
24827SOL    HW279039   1.181   7.130   4.272 -0.4386 -0.0296  0.1225
24828SOL     OW79040  10.610   6.016   3.061  0.0212 -0.0526  0.2983
24828SOL    HW179041  10.559   6.043   3.137 -0.6025 -1.5365  0.4339
24828SOL    HW279042  10.571   5.933   3.034  0.9803 -0.1317 -0.9347
24829SOL     OW79043  10.262   6.354   9.630  0.2210  0.9583 -0.1376
24829SOL    HW179044  10.274   6.414   9.556 -2.8198  0.1826 -1.4039
24829SOL    HW279045  10.194   6.396   9.683 -0.3359 -0.2690  0.1530
24830SOL     OW79046   5.738  11.913  12.062 -0.4844 -0.1945  0.2167
24830SOL    HW179047   5.711  11.982  12.123  0.0495 -0.2084  0.4773
24830SOL    HW279048   5.700  11.833  12.098  0.6643 -0.3633  1.1111
24831SOL     OW79049   1.905   9.164  10.821  0.3333 -0.2801  0.4962
24831SOL    HW179050   1.960   9.208  10.757  1.1545  0.5831  1.7552
24831SOL    HW279051   1.963   9.148  10.896 -0.9949  0.2273  1.6702
24832SOL     OW79052   2.849   9.830   0.773  0.8740  0.5842  0.4113
24832SOL    HW179053   2.898   9.832   0.855  2.2993  1.2890 -0.4176
24832SOL    HW279054   2.873   9.747   0.732  0.0229  0.1489  0.7718
24833SOL     OW79055   6.509   9.851   6.532 -0.6317  0.3493  0.7202
24833SOL    HW179056   6.471   9.795   6.599  0.9931  1.5111  2.7022
24833SOL    HW279057   6.580   9.898   6.576  2.2398 -0.6619 -2.3637
24834SOL     OW79058   6.178   0.923   6.713 -0.0634 -0.0721 -0.0694
24834SOL    HW179059   6.258   0.919   6.766  0.1331 -1.1065 -0.4276
24834SOL    HW279060   6.108   0.902   6.775 -0.0210  0.4152  0.1510
24835SOL     OW79061  10.668   1.087   2.857 -0.5636 -0.1076  0.1177
24835SOL    HW179062  10.648   1.050   2.771 -2.0712 -0.3222  0.5457
24835SOL    HW279063  10.675   1.181   2.841 -1.6456 -0.0588 -0.1064
24836SOL     OW79064   4.270   4.570   9.854 -0.4838  0.9230  0.2726
24836SOL    HW179065   4.232   4.606   9.934  0.5480  0.4932  0.9826
24836SOL    HW279066   4.227   4.484   9.844 -0.3385  0.8150  0.5757
24837SOL     OW79067  10.705   6.436   4.011  0.2187 -0.1377  0.3724
24837SOL    HW179068  10.663   6.522   4.021 -0.2550 -0.5285  1.9821
24837SOL    HW279069  10.644   6.375   4.052  1.3700 -1.0056  0.8249
24838SOL     OW79070  10.321   6.225   2.481  0.1391  0.2107 -0.0250
24838SOL    HW179071  10.310   6.227   2.386  3.0569  1.9225 -0.4700
24838SOL    HW279072  10.233   6.235   2.516 -0.9040  0.7065 -2.5572
24839SOL     OW79073  10.268   5.920  11.885  0.3116 -0.3461  0.1700
24839SOL    HW179074  10.306   5.886  11.966  0.4138  0.5987  0.5306
24839SOL    HW279075  10.195   5.975  11.914  0.7341  0.5016 -0.3408
24840SOL     OW79076   2.634   5.671   2.992 -0.2480 -0.0143 -0.4103
24840SOL    HW179077   2.572   5.739   3.018  1.5974  2.4032 -1.9129
24840SOL    HW279078   2.662   5.632   3.074  2.0218  4.2388  1.1231
24841SOL     OW79079   8.277   2.477   3.619 -0.2785  0.2522 -0.1922
24841SOL    HW179080   8.202   2.422   3.598 -0.9023  1.2145 -0.5501
24841SOL    HW279081   8.351   2.434   3.577 -0.4223 -1.2631  1.0096
24842SOL     OW79082   8.595   9.196  10.898 -0.5701 -0.2298 -0.4804
24842SOL    HW179083   8.595   9.217  10.992 -0.4058  0.1693 -0.5700
24842SOL    HW279084   8.510   9.155  10.883 -0.4464 -0.6467 -0.0794
24843SOL     OW79085   1.019   5.896   1.264 -0.1905 -0.3524  0.6073
24843SOL    HW179086   0.972   5.910   1.182  0.0157 -0.7869  0.4139
24843SOL    HW279087   1.016   5.981   1.308  0.8406  0.2563 -0.4436
24844SOL     OW79088   9.258  10.938   5.526  0.0925 -0.3704 -0.2129
24844SOL    HW179089   9.217  10.908   5.445 -1.4878 -1.3278  0.8668
24844SOL    HW279090   9.219  11.024   5.542  0.2542 -0.2690 -0.3698
24845SOL     OW79091  11.131   0.957   7.228 -0.1283 -0.6949  0.2152
24845SOL    HW179092  11.189   1.033   7.227 -0.7260 -0.2109  1.1905
24845SOL    HW279093  11.071   0.972   7.155 -0.6468  0.1008  0.7934
24846SOL     OW79094   1.686   8.435   2.284 -0.5851  0.0197 -0.4333
24846SOL    HW179095   1.695   8.493   2.208 -0.4676  0.0040 -0.4324
24846SOL    HW279096   1.599   8.397   2.275 -0.0664 -1.0280 -1.3055
24847SOL     OW79097   1.153  10.371   8.186 -0.1365  0.1843  0.3427
24847SOL    HW179098   1.152  10.434   8.113 -1.4598 -0.7441 -0.4976
24847SOL    HW279099   1.241  10.334   8.185 -0.6361 -1.1327 -2.0241
24848SOL     OW79100  11.738  11.580   9.805 -0.0743 -0.0168  0.2563
24848SOL    HW179101  11.745  11.605   9.897 -0.8658  0.7075  0.1300
24848SOL    HW279102  11.802  11.634   9.760  0.2894 -0.3469  0.3701
24849SOL     OW79103   4.006   3.807   0.684  0.2319  0.1330 -0.0747
24849SOL    HW179104   4.100   3.819   0.696  0.4259  0.7256 -1.8591
24849SOL    HW279105   3.974   3.893   0.658 -0.5904 -0.3484 -0.6851
24850SOL     OW79106   3.894   0.330   4.253 -0.3419 -0.1932  0.0022
24850SOL    HW179107   3.802   0.357   4.246 -0.2674  0.1903  0.4525
24850SOL    HW279108   3.891   0.249   4.303 -0.3694  0.2939  0.8118
24851SOL     OW79109   0.765   9.895  10.641  0.8456 -0.2306 -0.0303
24851SOL    HW179110   0.725   9.945  10.712 -0.3661 -0.3782 -0.5837
24851SOL    HW279111   0.776   9.807  10.677  0.5227 -0.2261  0.0846
24852SOL     OW79112   3.535   6.834   3.169 -0.0806 -0.3171  0.0208
24852SOL    HW179113   3.478   6.871   3.237  0.2356 -0.2147  0.2325
24852SOL    HW279114   3.475   6.803   3.102 -0.3693  0.3025 -0.0177
24853SOL     OW79115   9.889   2.810  10.620 -0.9014 -0.5511  0.1935
24853SOL    HW179116   9.811   2.864  10.613 -1.6676 -1.8449 -3.5919
24853SOL    HW279117   9.962   2.870  10.603 -1.1540  0.3034  1.9222
24854SOL     OW79118  11.211   4.156   3.368  0.2239  0.0118 -0.0809
24854SOL    HW179119  11.240   4.065   3.367  3.9002  0.9412  1.7672
24854SOL    HW279120  11.198   4.176   3.461  0.8783  1.6826 -0.3043
24855SOL     OW79121   8.534  10.811   3.529 -0.2281 -0.1581  0.7196
24855SOL    HW179122   8.619  10.779   3.497 -0.8385 -1.7527  0.6623
24855SOL    HW279123   8.535  10.904   3.505  0.9565 -0.4283 -0.4743
24856SOL     OW79124   3.864   5.422   5.575  0.1398  0.1917 -0.2781
24856SOL    HW179125   3.858   5.489   5.644 -1.1780 -0.5569  0.3738
24856SOL    HW279126   3.952   5.387   5.583  1.2772  2.5622 -1.3448
24857SOL     OW79127   5.255   0.020   9.797 -0.5958 -0.2769  0.1368
24857SOL    HW179128   5.238   0.101   9.750  0.3935 -0.9727 -1.5275
24857SOL    HW279129   5.325   0.041   9.859 -1.1426  0.3965  0.5359
24858SOL     OW79130   6.103   4.388   3.034 -0.2326  0.7199  0.0255
24858SOL    HW179131   6.099   4.362   3.126  0.1883  1.4466  0.2553
24858SOL    HW279132   6.166   4.461   3.032  0.1771  0.3535 -0.9206
24859SOL     OW79133   7.254   2.138   4.660  0.0509  0.5747  0.2698
24859SOL    HW179134   7.164   2.164   4.681  0.1029  0.5617  0.5101
24859SOL    HW279135   7.287   2.209   4.604 -0.7795 -0.4030 -1.5220
24860SOL     OW79136  11.060   3.140   1.028  0.4326 -0.3492 -0.0588
24860SOL    HW179137  11.147   3.147   1.067  0.3316  0.8886  0.0049
24860SOL    HW279138  11.035   3.231   1.011  0.3028 -0.7813 -2.6402
24861SOL     OW79139  10.232   6.869   5.960  0.2856  0.2089 -0.1142
24861SOL    HW179140  10.216   6.815   6.037 -2.2633  1.6578  0.4818
24861SOL    HW279141  10.319   6.907   5.975  0.8260 -1.3009  0.8682
24862SOL     OW79142   2.881  10.232   7.401  0.2685  0.2197 -0.0130
24862SOL    HW179143   2.969  10.202   7.423  0.7545  1.6823  0.1070
24862SOL    HW279144   2.873  10.215   7.307 -0.4748 -2.6613  0.4553
24863SOL     OW79145   6.798   6.884   9.780 -0.1883  0.1902 -0.1621
24863SOL    HW179146   6.706   6.864   9.760 -0.7652  2.2665  0.1587
24863SOL    HW279147   6.843   6.876   9.696 -1.4841  3.1031 -1.2842
24864SOL     OW79148   1.834   2.809   3.392  0.0721 -0.2839 -0.7618
24864SOL    HW179149   1.743   2.836   3.393  0.1293 -0.1003 -0.5715
24864SOL    HW279150   1.861   2.808   3.484 -0.0450 -1.3883 -0.7226
24865SOL     OW79151   2.889   1.979   5.498  0.5125  0.0386  0.3660
24865SOL    HW179152   2.886   2.071   5.524  2.7059  0.9027 -2.0807
24865SOL    HW279153   2.929   1.935   5.573  2.6349  1.6921  0.3067
24866SOL     OW79154   0.852   3.339   4.134 -0.2074  0.5494  0.3498
24866SOL    HW179155   0.905   3.342   4.214 -0.5006  0.4290  0.5523
24866SOL    HW279156   0.763   3.361   4.163 -0.3537  0.3094  0.0912
24867SOL     OW79157   7.127  10.577   0.872 -0.2134 -0.3842 -0.0356
24867SOL    HW179158   7.138  10.545   0.782  2.2584  1.4027 -0.4909
24867SOL    HW279159   7.169  10.509   0.926 -1.2300 -1.2011 -0.2278
24868SOL     OW79160   0.194   4.576   8.964  0.4864 -0.3856  0.3355
24868SOL    HW179161   0.250   4.517   8.913  0.2431  0.4662 -0.9702
24868SOL    HW279162   0.135   4.614   8.899  0.6994  1.3670  1.1222
24869SOL     OW79163  10.604  10.969  11.796 -0.4493  0.0201 -0.2308
24869SOL    HW179164  10.534  10.966  11.731  0.4192  0.3051 -1.2050
24869SOL    HW279165  10.597  11.056  11.835 -1.0061 -0.1694  0.0927
24870SOL     OW79166   6.022  12.108   4.746  0.0056 -0.1642  0.0867
24870SOL    HW179167   5.999  12.016   4.742  0.2732 -0.2403  0.2635
24870SOL    HW279168   5.938  12.154   4.743 -0.2193 -0.4584  1.4042
24871SOL     OW79169  10.491   5.140   4.278  0.4087 -0.2438 -0.4757
24871SOL    HW179170  10.518   5.131   4.187 -0.3427  0.5812 -0.7967
24871SOL    HW279171  10.406   5.185   4.274 -0.3787 -1.5484  0.5531
24872SOL     OW79172   1.593   1.760   5.099 -0.2942 -0.2670 -0.3517
24872SOL    HW179173   1.559   1.784   5.013 -1.2572  1.1261  0.3660
24872SOL    HW279174   1.632   1.673   5.087 -1.3476 -0.5572 -1.9484
24873SOL     OW79175  10.696   9.769   2.529 -0.3750  0.0318 -0.4917
24873SOL    HW179176  10.663   9.707   2.464 -0.1137 -0.1779 -0.4233
24873SOL    HW279177  10.637   9.844   2.522  1.8131  1.7077 -3.7014
24874SOL     OW79178   6.004   7.519   7.608  0.2231  0.3337 -0.4667
24874SOL    HW179179   6.097   7.497   7.617  0.2053  0.7242  0.9061
24874SOL    HW279180   5.957   7.440   7.635  0.1686  0.4809 -0.1154
24875SOL     OW79181   8.239   2.709   6.937 -0.1304 -0.5897 -0.2090
24875SOL    HW179182   8.165   2.684   6.993 -0.1272  0.5690  0.3288
24875SOL    HW279183   8.269   2.626   6.899 -1.0557 -1.2058  0.3611
24876SOL     OW79184   6.163   5.189   4.021  0.3991  0.5389  0.2160
24876SOL    HW179185   6.098   5.172   3.953  1.4271  0.2106 -0.7130
24876SOL    HW279186   6.153   5.282   4.041  0.9774  0.9543 -1.3507
24877SOL     OW79187  11.965   1.063   2.603 -0.3008 -0.3660 -0.0610
24877SOL    HW179188  11.879   1.093   2.633 -1.1679 -3.4029  0.7742
24877SOL    HW279189  12.026   1.102   2.665 -1.4157 -0.8291  1.3821
24878SOL     OW79190  11.789  10.855   9.303  0.6873  0.0237 -0.1066
24878SOL    HW179191  11.875  10.878   9.268  1.1200  1.5026  1.7410
24878SOL    HW279192  11.750  10.939   9.329 -0.7037 -0.7472  0.4175
24879SOL     OW79193   4.186   1.984   7.199 -0.0549  0.0747  0.5227
24879SOL    HW179194   4.125   1.919   7.233 -1.1783  0.8085 -0.0345
24879SOL    HW279195   4.199   1.959   7.107 -0.6273  0.7152  0.2574
24880SOL     OW79196   8.434   6.194  11.048 -0.1175  0.1109 -0.7522
24880SOL    HW179197   8.436   6.109  11.092 -0.6342  0.8889  0.8876
24880SOL    HW279198   8.419   6.257  11.119 -0.8116  1.4721 -2.0391
24881SOL     OW79199   5.317   0.161   4.161  0.7092 -0.5016  0.0080
24881SOL    HW179200   5.412   0.163   4.172  0.7464 -1.6597  0.0458
24881SOL    HW279201   5.304   0.162   4.066  0.6399  2.2148 -0.0238
24882SOL     OW79202   7.265   9.091   3.719 -0.8427 -0.3901 -0.0775
24882SOL    HW179203   7.254   9.065   3.628  1.7101 -2.7049  0.1516
24882SOL    HW279204   7.318   9.171   3.715  0.7276 -1.4187 -0.6501
24883SOL     OW79205   5.828   9.907   7.084  0.1270  0.3633 -0.4047
24883SOL    HW179206   5.889   9.889   7.155  2.0383  3.9146 -0.8840
24883SOL    HW279207   5.753   9.950   7.126  0.0411  0.0998 -0.2861
24884SOL     OW79208   5.043  10.698   4.240 -0.0744  0.0813  0.2053
24884SOL    HW179209   5.087  10.613   4.232 -0.7856 -0.2268 -0.6787
24884SOL    HW279210   5.081  10.752   4.171 -0.2072  0.2096  0.2301
24885SOL     OW79211   1.102   4.276   3.516  0.2930 -0.0560 -0.0417
24885SOL    HW179212   1.103   4.371   3.521 -0.5416 -0.0293 -0.2637
24885SOL    HW279213   1.168   4.254   3.451  0.5627  0.3640  0.0900
24886SOL     OW79214  11.439   5.341  10.410  0.2799 -0.7294  0.0337
24886SOL    HW179215  11.463   5.431  10.387 -0.6268  0.5468  3.4888
24886SOL    HW279216  11.371   5.318  10.346  0.1022  1.2566 -0.5799
24887SOL     OW79217   2.594   7.207   1.979  0.1295 -0.4921 -0.2713
24887SOL    HW179218   2.586   7.160   2.062 -1.3352 -0.8528 -0.5939
24887SOL    HW279219   2.504   7.214   1.946  0.3142  2.3228 -0.3799
24888SOL     OW79220   0.128   1.132   5.768  0.4717 -0.0685  0.5389
24888SOL    HW179221   0.067   1.104   5.836 -0.8499  1.7363  0.1519
24888SOL    HW279222   0.156   1.220   5.795  0.3798  0.4419 -0.9240
24889SOL     OW79223   4.899   7.317  10.008 -0.3640 -0.1908  0.3687
24889SOL    HW179224   4.841   7.254   9.965 -0.4170  0.3526 -0.3734
24889SOL    HW279225   4.986   7.276  10.004 -0.1850  0.2852 -1.1815
24890SOL     OW79226   5.282   5.366   3.331  1.1001 -0.6408 -0.2795
24890SOL    HW179227   5.282   5.329   3.419 -0.2016 -2.2953 -0.9313
24890SOL    HW279228   5.210   5.429   3.331  3.0943  1.8538  0.7206
24891SOL     OW79229   2.793   8.994   3.489 -0.4753  0.0991 -0.4333
24891SOL    HW179230   2.781   9.081   3.450 -1.6243  0.2242  0.1521
24891SOL    HW279231   2.819   9.012   3.580  1.7369 -0.1883 -0.9632
24892SOL     OW79232   5.265   7.126   9.505 -0.0017  0.5991  0.1345
24892SOL    HW179233   5.235   7.152   9.418 -0.0461 -1.1568 -0.4263
24892SOL    HW279234   5.360   7.136   9.501  0.0103  0.3812 -0.1803
24893SOL     OW79235   1.150   6.425   0.346  0.2203  0.4013 -0.0164
24893SOL    HW179236   1.192   6.510   0.359 -0.7299  1.1124 -1.3718
24893SOL    HW279237   1.210   6.362   0.386  1.4885  1.5926  0.0180
24894SOL     OW79238   2.572   8.807   4.029  0.0148 -0.3376  0.3487
24894SOL    HW179239   2.622   8.886   4.011  0.3889 -0.6154  0.1611
24894SOL    HW279240   2.638   8.741   4.050 -0.3666 -0.1040  2.5224
24895SOL     OW79241   0.415   9.268  11.808 -0.2613 -0.1248 -0.4050
24895SOL    HW179242   0.429   9.334  11.740 -1.5847  1.1967  0.5380
24895SOL    HW279243   0.371   9.196  11.763  0.8616 -0.2319 -1.3738
24896SOL     OW79244   2.521   8.939  11.822  0.1646 -0.1370  0.3302
24896SOL    HW179245   2.500   9.012  11.763 -2.3634 -0.6826  0.4399
24896SOL    HW279246   2.442   8.886  11.823  1.3253 -1.9417  1.6591
24897SOL     OW79247   9.739   9.822  10.990  0.0138 -0.1524  0.4132
24897SOL    HW179248   9.686   9.854  11.063  1.0753  1.4772  0.5278
24897SOL    HW279249   9.767   9.902  10.944  0.1783 -1.0903 -1.2029
24898SOL     OW79250   9.830   9.043   1.965 -0.1424 -0.7171  0.4919
24898SOL    HW179251   9.867   9.103   1.900 -0.8862 -0.4205  0.3388
24898SOL    HW279252   9.848   9.085   2.049 -1.4152  0.1590  0.3461
24899SOL     OW79253  10.524  10.584   3.150  0.2169 -0.2577 -0.5808
24899SOL    HW179254  10.465  10.629   3.090 -0.7794  1.2034  1.3777
24899SOL    HW279255  10.478  10.503   3.172 -0.5860  0.3546  0.0722
24900SOL     OW79256   0.382   5.040   8.350  0.4976 -0.1896 -0.6061
24900SOL    HW179257   0.294   5.061   8.380  0.9387  1.3051 -0.2811
24900SOL    HW279258   0.375   4.951   8.314 -0.5682 -1.1975  1.8349
24901SOL     OW79259   3.650   2.036   9.071 -0.1284 -0.4536 -0.0343
24901SOL    HW179260   3.625   1.979   9.144 -0.4292 -0.6641 -0.3030
24901SOL    HW279261   3.721   1.990   9.027  0.7871  0.1544  0.7421
24902SOL     OW79262   6.465   8.469  10.453 -0.5356  0.4159  0.0615
24902SOL    HW179263   6.388   8.520  10.428 -0.3084 -0.2969 -2.3849
24902SOL    HW279264   6.509   8.449  10.370 -0.4438 -3.4745  0.8404
24903SOL     OW79265  10.450  11.104   1.795  0.3574 -0.1119 -0.2601
24903SOL    HW179266  10.535  11.078   1.760  0.5364 -1.2931  0.9583
24903SOL    HW279267  10.455  11.199   1.800  1.0356 -0.0582 -1.5849
24904SOL     OW79268   4.689   0.578   8.836  0.4396  0.9690  0.2530
24904SOL    HW179269   4.774   0.534   8.825 -0.7110 -0.8069 -2.8681
24904SOL    HW279270   4.671   0.572   8.929  2.9165 -0.2426  0.7466
24905SOL     OW79271   6.380   9.730   2.309 -0.4075 -0.0660 -0.0304
24905SOL    HW179272   6.290   9.700   2.300 -0.6343  0.5070  0.2647
24905SOL    HW279273   6.429   9.652   2.335 -0.8007 -0.3947 -0.2704
24906SOL     OW79274   0.123   0.237   8.651 -0.0387  0.1098  0.5832
24906SOL    HW179275   0.121   0.173   8.722  0.2515 -1.7790 -1.0116
24906SOL    HW279276   0.213   0.268   8.649  0.4809 -1.3635 -0.1999
24907SOL     OW79277   4.938   0.626   9.929  0.2499 -0.2961  0.1107
24907SOL    HW179278   4.850   0.632   9.891  1.0108 -0.9780 -1.8845
24907SOL    HW279279   4.994   0.596   9.857  1.9564 -0.8574  1.5822
24908SOL     OW79280   5.844   1.618   5.437 -0.3381 -0.2693  0.2226
24908SOL    HW179281   5.919   1.672   5.412 -0.4489 -0.2176 -0.0008
24908SOL    HW279282   5.814   1.655   5.520  0.4330 -0.8435  0.7830
24909SOL     OW79283   1.658   4.152   2.971 -0.1474  0.1056  0.0161
24909SOL    HW179284   1.649   4.174   2.878 -0.8486  2.1023  0.5163
24909SOL    HW279285   1.733   4.204   3.001  1.3144 -1.9785  0.1846
24910SOL     OW79286   5.234   9.798   9.530 -0.0796 -0.3455  0.4116
24910SOL    HW179287   5.148   9.840   9.542 -0.6965 -1.7429  1.1305
24910SOL    HW279288   5.296   9.859   9.571 -0.7474  0.5327  0.1672
24911SOL     OW79289   3.513  10.366  10.419 -0.1406 -0.5760 -0.1356
24911SOL    HW179290   3.570  10.295  10.389  0.9494  0.1775  0.0935
24911SOL    HW279291   3.510  10.356  10.514  2.5367  1.4093  0.2957
24912SOL     OW79292   5.691   1.127  10.842 -0.3304 -0.4017 -0.6001
24912SOL    HW179293   5.765   1.116  10.781  1.9302  4.0276  0.8698
24912SOL    HW279294   5.687   1.045  10.891  1.1233 -2.1729 -3.2041
24913SOL     OW79295   4.973   9.524   1.072 -0.4100 -0.2887  0.0793
24913SOL    HW179296   4.884   9.552   1.051 -0.3380  1.4798  1.8492
24913SOL    HW279297   5.018   9.520   0.987 -2.2383 -1.6696 -0.9031
24914SOL     OW79298   1.781  10.039  11.684 -0.0146 -0.1104  0.3096
24914SOL    HW179299   1.827   9.984  11.621  2.0064 -0.2674  1.8180
24914SOL    HW279300   1.692  10.043  11.651  0.0365 -3.2340 -0.5520
24915SOL     OW79301   5.925   1.813   9.419  0.1042 -0.4171  0.8530
24915SOL    HW179302   5.892   1.723   9.414 -0.3552 -0.1878 -0.3887
24915SOL    HW279303   5.974   1.826   9.338 -1.6058  1.1238 -0.0035
24916SOL     OW79304   5.322   7.730   2.999 -0.1937 -0.3159 -0.5277
24916SOL    HW179305   5.317   7.642   2.961  0.9152 -0.5532 -0.1456
24916SOL    HW279306   5.307   7.789   2.925  2.5785 -0.7409 -1.5198
24917SOL     OW79307   1.078   7.054   6.120 -0.5425  0.2236  0.3920
24917SOL    HW179308   0.998   7.091   6.158 -0.5068 -0.2593  0.9623
24917SOL    HW279309   1.051   6.969   6.085 -0.1854 -0.1575  1.0238
24918SOL     OW79310  10.599   4.711   2.975  0.0696 -0.6802  0.7100
24918SOL    HW179311  10.619   4.779   3.039  0.9515 -0.3374  0.0834
24918SOL    HW279312  10.638   4.742   2.894 -0.8771 -1.1963  0.0373
24919SOL     OW79313   1.483   9.371   0.405  0.6999  0.0803 -0.3338
24919SOL    HW179314   1.560   9.410   0.364  0.5981  0.4978 -0.1357
24919SOL    HW279315   1.409   9.419   0.367  0.4227 -1.3351 -1.6667
24920SOL     OW79316  11.297   2.812  11.992 -0.4526 -0.4363 -0.0692
24920SOL    HW179317  11.259   2.774  11.912 -1.3689  0.7487 -0.2324
24920SOL    HW279318  11.294   2.741  12.056 -0.4784 -1.1590 -0.8554
24921SOL     OW79319   2.705   2.733   5.311 -0.5281 -0.0436  0.0289
24921SOL    HW179320   2.777   2.729   5.374  0.6349  0.5893 -1.2128
24921SOL    HW279321   2.707   2.649   5.266 -1.1445 -0.3641  0.5771
24922SOL     OW79322  11.243   7.691   5.768  0.8342 -0.1862 -0.3541
24922SOL    HW179323  11.189   7.682   5.689 -0.1244 -0.6971  0.3388
24922SOL    HW279324  11.286   7.606   5.777 -0.0647 -0.5821  0.3728
24923SOL     OW79325  11.307   7.484  11.249 -0.1846  0.4096 -0.3755
24923SOL    HW179326  11.399   7.475  11.274 -0.4218 -1.0948  0.0389
24923SOL    HW279327  11.311   7.519  11.160  0.8055 -0.0693 -0.5432
24924SOL     OW79328   3.435   3.290   2.053 -0.7441  0.3360 -0.3152
24924SOL    HW179329   3.372   3.281   1.982 -1.8523  0.5299  0.6044
24924SOL    HW279330   3.444   3.202   2.088 -1.2730  0.4657  0.1689
24925SOL     OW79331   9.594   8.289  11.301  0.0301  0.4026  0.1023
24925SOL    HW179332   9.519   8.329  11.345  0.2429  0.2992  0.5695
24925SOL    HW279333   9.612   8.210  11.352  0.5903  0.5435  0.1253
24926SOL     OW79334   6.856   0.794   4.223 -0.3519  0.2117 -0.4208
24926SOL    HW179335   6.915   0.753   4.160 -0.7095 -0.8052 -0.1174
24926SOL    HW279336   6.772   0.749   4.209 -0.4933  0.1316  0.6261
24927SOL     OW79337   7.818   4.637   8.804 -0.3868 -0.8239  0.4180
24927SOL    HW179338   7.885   4.668   8.864 -2.3769  2.0241  1.4096
24927SOL    HW279339   7.798   4.714   8.749 -3.5752 -1.1345  0.9508
24928SOL     OW79340   1.730   7.799  11.585  0.0543 -0.4575  0.4445
24928SOL    HW179341   1.682   7.830  11.507 -0.5272 -3.6003 -0.5886
24928SOL    HW279342   1.675   7.825  11.659  0.1902  1.8443 -0.1736
24929SOL     OW79343   8.615   5.933   1.632 -0.2382  0.0373 -0.0403
24929SOL    HW179344   8.643   6.007   1.686  1.9044 -1.2130  0.7124
24929SOL    HW279345   8.693   5.878   1.625 -2.1819 -3.1503  1.1125
24930SOL     OW79346   1.754   1.330   7.954  0.4391  0.7801 -0.1074
24930SOL    HW179347   1.672   1.283   7.936  0.7609 -0.0380  0.5200
24930SOL    HW279348   1.728   1.422   7.953 -0.1832  0.6256 -1.4431
24931SOL     OW79349   2.023   2.561   4.750  0.0847  0.0407  0.4113
24931SOL    HW179350   2.031   2.466   4.762  0.8180  0.1656  0.9367
24931SOL    HW279351   2.112   2.591   4.733 -0.0012  0.7666  1.2067
24932SOL     OW79352   8.046   2.659   1.324 -0.0614  0.4583  0.0314
24932SOL    HW179353   8.084   2.573   1.338 -1.6588 -0.4909 -1.1572
24932SOL    HW279354   8.080   2.687   1.239 -2.0802 -0.4999 -1.1507
24933SOL     OW79355  10.345   8.663   5.583 -0.0890  0.2448  0.5467
24933SOL    HW179356  10.356   8.568   5.584  0.1590  0.2772  1.4349
24933SOL    HW279357  10.419   8.696   5.532 -0.6876 -0.0920 -0.5667
24934SOL     OW79358   6.033   9.012  11.595  0.0504 -0.1092 -0.2515
24934SOL    HW179359   6.018   8.934  11.541 -0.1257  0.8362 -1.6083
24934SOL    HW279360   5.952   9.062  11.587  0.3766  0.4901  0.1378
24935SOL     OW79361   2.510  10.155   1.303 -0.0419 -0.6754  0.0848
24935SOL    HW179362   2.591  10.204   1.292 -0.7819  0.1175 -2.6567
24935SOL    HW279363   2.442  10.222   1.311 -0.6046 -1.3124  0.7832
24936SOL     OW79364   0.308  11.462   2.006  0.3802 -0.0321 -0.6449
24936SOL    HW179365   0.246  11.435   2.075  0.0484  0.0044 -0.9279
24936SOL    HW279366   0.275  11.420   1.927  1.0455 -0.4757 -0.6916
24937SOL     OW79367   8.470  10.668  10.687  0.4916 -0.0914  0.9786
24937SOL    HW179368   8.447  10.671  10.780  0.3255  1.6852  0.9226
24937SOL    HW279369   8.565  10.668  10.685  0.5115  1.2316  1.1649
24938SOL     OW79370   3.900   4.764   7.550  0.2145 -1.0100 -0.7412
24938SOL    HW179371   3.839   4.732   7.484  0.9748 -2.5119 -0.7414
24938SOL    HW279372   3.902   4.696   7.618 -0.0392  0.1876  0.5322
24939SOL     OW79373   3.004   0.622  11.484 -0.0762  0.4108 -0.2565
24939SOL    HW179374   3.035   0.687  11.421  1.0559  0.6089  0.4774
24939SOL    HW279375   3.011   0.539  11.437  2.5084  0.3181  0.1424
24940SOL     OW79376   8.568   0.698   4.229  0.1047 -0.2977  0.1107
24940SOL    HW179377   8.590   0.772   4.286 -0.5261  0.8263 -1.0576
24940SOL    HW279378   8.637   0.696   4.163  0.6349 -1.3648  0.6723
24941SOL     OW79379   0.374   2.324   5.094 -0.3031 -0.1919 -0.8807
24941SOL    HW179380   0.342   2.236   5.073 -1.2870  0.2545 -1.3099
24941SOL    HW279381   0.437   2.310   5.164 -1.3671 -1.1222 -0.0685
24942SOL     OW79382   0.811   4.414   1.389  0.3320  0.9078  0.4516
24942SOL    HW179383   0.877   4.378   1.330  1.1451  3.2374 -0.1652
24942SOL    HW279384   0.742   4.447   1.331  0.0152  1.1026  0.9308
24943SOL     OW79385   8.437   2.434   5.222  0.4581  0.5101 -0.1721
24943SOL    HW179386   8.387   2.452   5.302  0.7728  0.3514  0.0603
24943SOL    HW279387   8.464   2.520   5.191  1.5859  0.4922  0.6987
24944SOL     OW79388  12.037   8.415   4.793 -0.3923  0.0402 -0.2762
24944SOL    HW179389  12.030   8.418   4.697 -1.1504  0.9261 -0.2138
24944SOL    HW279390  12.062   8.325   4.813 -1.2404 -0.4338 -1.2508
24945SOL     OW79391  10.954   2.608  10.880  0.0270 -0.4437 -0.1973
24945SOL    HW179392  11.018   2.676  10.858  0.2657 -0.6879 -0.2578
24945SOL    HW279393  10.869   2.649  10.863  0.2012 -0.8100 -2.1848
24946SOL     OW79394   1.354  11.743   9.516 -0.2595 -0.0353  0.1650
24946SOL    HW179395   1.361  11.809   9.586  0.0722 -0.1672  0.2600
24946SOL    HW279396   1.361  11.794   9.435  1.1367 -0.0542  0.2401
24947SOL     OW79397   0.511  10.687  10.142  0.2722  0.0112 -0.3642
24947SOL    HW179398   0.499  10.625  10.070 -0.3276 -0.2421 -0.0514
24947SOL    HW279399   0.599  10.667  10.175 -0.4622 -1.7275  0.6933
24948SOL     OW79400   4.307  11.042   4.620 -0.6479  0.0275  1.4441
24948SOL    HW179401   4.307  10.954   4.584 -1.4493  0.7275 -0.3965
24948SOL    HW279402   4.400  11.066   4.623 -0.5462  0.1114 -0.7494
24949SOL     OW79403  11.340  11.119   3.293 -0.5144  0.5610  0.1411
24949SOL    HW179404  11.308  11.037   3.255 -0.1075  0.3165  0.3151
24949SOL    HW279405  11.415  11.092   3.346 -0.6391  0.9927  0.5409
24950SOL     OW79406   6.421   4.921   1.541  0.1321  0.2837  0.0778
24950SOL    HW179407   6.360   4.949   1.610  0.5216 -1.5965  1.2546
24950SOL    HW279408   6.504   4.963   1.564 -0.1167  0.9214 -0.1624
24951SOL     OW79409   8.835   7.216   7.164  0.0911  0.3169 -0.6327
24951SOL    HW179410   8.931   7.213   7.160  0.1941  0.9879  0.6653
24951SOL    HW279411   8.813   7.304   7.134 -0.3526 -0.7115 -3.6174
24952SOL     OW79412   7.462   6.639   5.950  0.0489  0.3745  0.4768
24952SOL    HW179413   7.527   6.581   5.989 -0.0531  0.1723  0.3509
24952SOL    HW279414   7.378   6.609   5.987 -0.1781 -0.5178 -0.6951
24953SOL     OW79415   5.150   8.919   5.319 -0.6259 -0.7905 -0.4166
24953SOL    HW179416   5.098   8.971   5.258  1.2236  0.3756 -1.0883
24953SOL    HW279417   5.124   8.950   5.405 -1.9721 -1.1736 -0.6729
24954SOL     OW79418   3.462  11.490  11.006  0.1198  0.5000  0.4219
24954SOL    HW179419   3.452  11.471  10.913  0.6434  0.0019  0.4650
24954SOL    HW279420   3.556  11.491  11.021  0.0804  1.7979  0.7109
24955SOL     OW79421  10.097   0.826   4.570  0.5194 -0.1357  0.2463
24955SOL    HW179422  10.141   0.741   4.572  2.2104  0.7130  1.4016
24955SOL    HW279423  10.151   0.880   4.513  0.0809  0.4922  0.4178
24956SOL     OW79424   6.901   8.591   3.484 -0.4486  0.0458 -0.2708
24956SOL    HW179425   6.835   8.659   3.497  1.2586  1.8667 -0.5558
24956SOL    HW279426   6.982   8.640   3.469  1.5041 -2.0497  2.4825
24957SOL     OW79427   4.879  10.362   2.337  0.2598 -0.2186  0.3913
24957SOL    HW179428   4.862  10.419   2.412  1.6397  0.1708  0.4390
24957SOL    HW279429   4.942  10.411   2.284 -0.1832 -0.7845 -0.6873
24958SOL     OW79430   9.413   8.035   3.949  0.6909 -0.3190 -0.2043
24958SOL    HW179431   9.473   8.045   4.023  1.3108  0.6076 -0.8116
24958SOL    HW279432   9.368   8.119   3.943 -0.0840 -0.7288 -0.2661
24959SOL     OW79433   7.425   6.337   8.818  0.0068  0.0019 -0.6258
24959SOL    HW179434   7.484   6.262   8.822 -1.2076 -1.0192 -1.1088
24959SOL    HW279435   7.352   6.307   8.764 -0.5414  1.5207 -0.7824
24960SOL     OW79436   8.964   6.656  10.451 -0.2266  0.4309  0.4385
24960SOL    HW179437   9.020   6.594  10.404  0.2854  1.4884 -0.4063
24960SOL    HW279438   8.875   6.632  10.425 -0.1263 -0.6983  1.0833
24961SOL     OW79439   8.806  11.019   2.485 -0.4990  0.5765  0.3604
24961SOL    HW179440   8.797  11.043   2.577 -0.6724  0.8668  0.2689
24961SOL    HW279441   8.793  10.925   2.483  0.6411  0.3874  0.7940
24962SOL     OW79442   0.228  11.423   5.557 -0.5366 -0.0521 -0.6027
24962SOL    HW179443   0.236  11.408   5.651 -2.5271  1.2276 -0.1579
24962SOL    HW279444   0.315  11.406   5.522  0.0339 -1.4245  1.3322
24963SOL     OW79445  10.509   0.432   7.575  0.4393  0.0935  0.6221
24963SOL    HW179446  10.441   0.368   7.551  0.8946 -0.1135 -0.1214
24963SOL    HW279447  10.527   0.412   7.667 -0.0858 -0.2396  0.6629
24964SOL     OW79448   5.129  11.409   0.696  0.0921  0.6339  0.5264
24964SOL    HW179449   5.096  11.393   0.785 -0.8959  1.7840  0.3907
24964SOL    HW279450   5.099  11.333   0.646  0.3741  0.1347  1.0933
24965SOL     OW79451  11.385  12.034   8.217  0.5346 -0.3784  0.4924
24965SOL    HW179452  11.477  12.028   8.245  0.0128 -0.6990  2.2303
24965SOL    HW279453  11.373  11.960   8.158  1.5732  0.0896 -0.3395
24966SOL     OW79454   1.596   9.896   9.272 -0.2546 -0.0354 -0.1770
24966SOL    HW179455   1.632   9.839   9.204 -0.6739 -0.5839  0.0486
24966SOL    HW279456   1.657   9.969   9.277 -0.2665  0.0624 -1.2030
24967SOL     OW79457   4.116   6.907   8.404 -0.2008  0.3527 -0.1647
24967SOL    HW179458   4.122   6.970   8.475  0.0026  1.6497 -1.2852
24967SOL    HW279459   4.169   6.945   8.334  0.0163 -1.1210 -0.8508
24968SOL     OW79460  10.773  11.771   9.134  1.0535  0.2917  0.5131
24968SOL    HW179461  10.772  11.701   9.199  1.3701  0.9737  1.2769
24968SOL    HW279462  10.754  11.850   9.184  0.6105  0.7504 -0.3480
24969SOL     OW79463   8.281  11.113   9.174 -0.0993  0.3297 -0.3005
24969SOL    HW179464   8.223  11.106   9.250 -1.1423  2.9130 -0.7460
24969SOL    HW279465   8.362  11.069   9.201 -1.0105 -0.2250  1.6871
24970SOL     OW79466   5.901   0.618   9.106 -0.1719  0.1658  0.4890
24970SOL    HW179467   5.818   0.612   9.153 -0.5407  0.7955 -0.0551
24970SOL    HW279468   5.937   0.703   9.133 -0.8164  0.9635 -0.9877
24971SOL     OW79469   5.037   6.217   5.652  0.2256 -0.1232 -0.3147
24971SOL    HW179470   4.985   6.200   5.730 -1.6911  0.9196 -1.2939
24971SOL    HW279471   5.113   6.267   5.684  0.1223 -0.7882  1.0180
24972SOL     OW79472  10.182   5.366   4.410 -0.8186 -0.0627  0.1948
24972SOL    HW179473  10.201   5.450   4.452 -2.4338 -0.1325  1.1248
24972SOL    HW279474  10.108   5.385   4.352  1.5040  0.0943 -2.9749
24973SOL     OW79475  10.422   2.604   2.726  0.0400 -0.0997 -0.1366
24973SOL    HW179476  10.457   2.575   2.810  0.9584 -0.6446 -0.6811
24973SOL    HW279477  10.429   2.700   2.729 -1.2074 -0.0250  0.9209
24974SOL     OW79478   1.782   4.477   3.591  0.3122  0.1885 -0.5024
24974SOL    HW179479   1.687   4.465   3.578  0.0079 -0.3819  1.8722
24974SOL    HW279480   1.791   4.494   3.684  2.5297  0.8454 -0.8011
24975SOL     OW79481  10.589   7.041   7.074 -0.1847  0.0327  0.4633
24975SOL    HW179482  10.644   6.970   7.041  0.1024 -0.2155  1.4359
24975SOL    HW279483  10.651   7.100   7.118 -0.2241  1.5878 -1.4312
24976SOL     OW79484   2.479   5.748   6.760  0.2203  0.7518 -0.3251
24976SOL    HW179485   2.498   5.716   6.671 -3.3725  3.3860 -2.2911
24976SOL    HW279486   2.412   5.688   6.793 -2.0424  2.4691 -1.5371
24977SOL     OW79487   3.276  12.068   8.915  0.4039 -0.1878 -0.3356
24977SOL    HW179488   3.224  12.010   8.860  0.5505 -0.6405 -0.0053
24977SOL    HW279489   3.245  12.050   9.004 -0.3437  1.0583 -0.3246
24978SOL     OW79490   3.806   4.977   5.088  0.6298 -0.4287 -0.5057
24978SOL    HW179491   3.768   4.991   5.175  0.1512 -1.7229 -0.4888
24978SOL    HW279492   3.868   5.049   5.077 -0.5569  0.7437  0.1909
24979SOL     OW79493  10.972   7.800   8.879  0.1973 -0.1772 -0.2799
24979SOL    HW179494  10.939   7.869   8.936  1.1562  1.1950 -1.3169
24979SOL    HW279495  10.939   7.719   8.918 -1.7824  0.8948  0.4381
24980SOL     OW79496   8.600  11.216   0.356  0.1543  0.3929  0.2729
24980SOL    HW179497   8.693  11.228   0.335  0.6485 -0.8993  1.5130
24980SOL    HW279498   8.590  11.257   0.442  0.1152 -1.2923  1.1097
24981SOL     OW79499   4.664   4.929   7.892 -0.3981 -0.0155  0.1449
24981SOL    HW179500   4.721   4.871   7.942  1.5724  0.7929 -1.0367
24981SOL    HW279501   4.622   4.872   7.828 -1.2122 -0.6715  1.2239
24982SOL     OW79502   6.391   1.899   9.466 -0.1499  0.5298 -0.7553
24982SOL    HW179503   6.381   1.853   9.549 -0.8278  0.2177 -1.0052
24982SOL    HW279504   6.485   1.896   9.449  0.0308  0.8397  0.1327
24983SOL     OW79505   9.369   6.519   0.593 -0.2312 -0.1401 -0.0091
24983SOL    HW179506   9.455   6.485   0.619 -1.7188 -2.3112  2.6279
24983SOL    HW279507   9.354   6.593   0.651 -0.8506 -0.9085  0.8370
24984SOL     OW79508  10.913   8.695  10.114  0.1609 -0.7895 -0.2435
24984SOL    HW179509  10.820   8.673  10.114  0.0198 -0.3874 -2.1008
24984SOL    HW279510  10.916   8.784  10.079  1.1934 -0.4406  0.6884
24985SOL     OW79511   3.789  10.070   6.773 -0.2177  0.0672  0.1871
24985SOL    HW179512   3.699  10.070   6.807 -0.1830 -2.0309  0.3826
24985SOL    HW279513   3.789  10.004   6.704  0.9782  0.6552 -0.3952
24986SOL     OW79514   8.852  11.687  11.069  0.3088  0.1504  0.7738
24986SOL    HW179515   8.823  11.679  10.979  0.3951  0.8155  0.6842
24986SOL    HW279516   8.947  11.701  11.063  0.1716  1.2166  0.9088
24987SOL     OW79517  10.695   7.989   2.179 -0.6955 -0.1711  0.4137
24987SOL    HW179518  10.672   7.973   2.088 -0.0054  1.0299  0.0061
24987SOL    HW279519  10.615   7.971   2.228 -1.0619 -0.8443 -0.4201
24988SOL     OW79520  11.238   7.439   4.072 -0.0101 -0.1488 -0.2106
24988SOL    HW179521  11.271   7.450   4.161  0.4405 -0.2655 -0.3610
24988SOL    HW279522  11.297   7.375   4.033  0.5852  0.8629 -1.0084
24989SOL     OW79523   1.670   5.497  10.062  0.2797 -0.1539  0.4895
24989SOL    HW179524   1.748   5.507  10.009  0.4434  0.3541  0.8198
24989SOL    HW279525   1.696   5.525  10.150 -0.2998  0.1221  0.5797
24990SOL     OW79526  11.591   9.047   1.526 -0.0695  0.2636 -0.0558
24990SOL    HW179527  11.679   9.050   1.565  0.5430 -1.1907 -1.2268
24990SOL    HW279528  11.533   9.079   1.596  1.2989  0.5440  1.0007
24991SOL     OW79529   1.182   8.038  11.563 -0.1161 -0.8988 -0.1994
24991SOL    HW179530   1.102   8.037  11.511 -0.2375  0.1804 -0.0656
24991SOL    HW279531   1.157   8.001  11.647 -0.3610 -0.9805 -0.3085
24992SOL     OW79532  10.231   1.838   0.883 -0.1662  0.1046 -0.0787
24992SOL    HW179533  10.214   1.932   0.869  0.1730  0.4775  1.8065
24992SOL    HW279534  10.148   1.804   0.917 -0.3126 -0.3163 -0.8373
24993SOL     OW79535   5.518  10.726  10.780 -0.2520  0.0398 -0.2930
24993SOL    HW179536   5.551  10.644  10.743 -0.4245 -0.0981 -0.1422
24993SOL    HW279537   5.458  10.759  10.714 -1.4926 -0.8176  0.3626
24994SOL     OW79538  10.815   2.277  10.887 -0.4653  0.2470  0.0199
24994SOL    HW179539  10.884   2.319  10.835 -1.4549  1.5749 -0.2703
24994SOL    HW279540  10.831   2.183  10.876  1.7877  0.4846  0.6322
24995SOL     OW79541   6.377   5.070  10.332  0.2267  0.2657  0.2969
24995SOL    HW179542   6.322   5.145  10.310  0.6250  0.7141  0.8349
24995SOL    HW279543   6.321   5.014  10.385  0.4469  0.9736  1.2917
24996SOL     OW79544   4.197   1.274   9.135 -0.0239 -0.1728 -0.0552
24996SOL    HW179545   4.239   1.282   9.221 -0.4907  1.4827  0.0428
24996SOL    HW279546   4.115   1.229   9.152 -0.3560  0.6148  0.4639
24997SOL     OW79547   0.131   0.463   1.935  0.0789  0.0634  0.1388
24997SOL    HW179548   0.073   0.388   1.927 -0.6508  0.4216  1.7043
24997SOL    HW279549   0.211   0.437   1.889 -0.2911 -1.5258  0.3503
24998SOL     OW79550   8.859   9.269   1.468  0.1019  0.4287  0.5453
24998SOL    HW179551   8.916   9.199   1.435  1.4339  0.6719  2.1826
24998SOL    HW279552   8.881   9.345   1.414 -0.7284 -0.1576 -0.6687
24999SOL     OW79553  12.045   5.653   6.647  0.3395  0.1282  0.2853
24999SOL    HW179554  12.078   5.607   6.570 -0.7612 -0.5970  0.2266
24999SOL    HW279555  12.044   5.587   6.717 -1.3289 -0.0001  0.1783
25000SOL     OW79556   4.933   6.768   5.799  0.3939  0.0523  0.2143
25000SOL    HW179557   4.961   6.797   5.886  0.8721  0.3002 -0.0136
25000SOL    HW279558   4.967   6.678   5.792  0.0872 -0.0792  0.4003
25001SOL     OW79559  11.096   1.702   8.667 -0.2495 -0.1331 -0.6453
25001SOL    HW179560  11.040   1.725   8.741  0.6031 -0.3875  0.0959
25001SOL    HW279561  11.035   1.685   8.595 -1.1750 -1.1003  0.3265
25002SOL     OW79562   8.910   1.138   0.230 -0.1927  0.5023 -0.0666
25002SOL    HW179563   8.869   1.219   0.202 -2.3404  0.4042  2.4197
25002SOL    HW279564   8.975   1.164   0.295 -1.2937  0.2800  1.1757
25003SOL     OW79565   1.402   3.105   3.324  0.3435  0.2769  0.2485
25003SOL    HW179566   1.490   3.069   3.313  1.0645  1.5395  1.6451
25003SOL    HW279567   1.351   3.033   3.361  0.1961 -1.1123 -2.3910
25004SOL     OW79568   1.485   0.751   7.203 -0.2206 -0.2987 -0.2673
25004SOL    HW179569   1.440   0.702   7.272 -0.4212 -0.0960 -0.2558
25004SOL    HW279570   1.421   0.760   7.133 -0.2274  0.0640 -0.2174
25005SOL     OW79571   8.454   5.632  10.616  0.3562  0.2399 -0.2818
25005SOL    HW179572   8.370   5.587  10.617 -0.0293  0.9002  1.7463
25005SOL    HW279573   8.467   5.657  10.524 -1.4736 -0.1981 -0.6964
25006SOL     OW79574   6.490   3.646  10.912  0.3835 -0.2157 -0.3620
25006SOL    HW179575   6.505   3.552  10.902 -1.0310 -0.4217 -0.7332
25006SOL    HW279576   6.415   3.665  10.855  0.3494  1.0544  0.0646
25007SOL     OW79577   5.435   1.624   2.416 -0.1805  0.0228  0.0555
25007SOL    HW179578   5.421   1.549   2.474  2.6385  0.3802  1.3340
25007SOL    HW279579   5.412   1.700   2.470  1.5722  0.3045  0.4477
25008SOL     OW79580   8.708  10.578   0.583 -0.6295 -0.0645 -0.3815
25008SOL    HW179581   8.755  10.525   0.519  0.9655  0.4159  0.3490
25008SOL    HW279582   8.712  10.527   0.664  0.0510  0.7106  0.0803
25009SOL     OW79583   3.727  10.361   2.079  0.0675  0.5123 -0.4481
25009SOL    HW179584   3.747  10.270   2.100 -0.6093  0.4642  0.0261
25009SOL    HW279585   3.690  10.397   2.160  0.4236  1.2374 -0.5973
25010SOL     OW79586  10.435   2.237   1.814 -0.4651  0.3988  0.8575
25010SOL    HW179587  10.529   2.230   1.797 -0.1815  2.7740  1.0839
25010SOL    HW279588  10.421   2.187   1.894  0.8076  0.8187  1.3621
25011SOL     OW79589   4.585   8.573   0.183 -1.0735 -0.2649  0.0400
25011SOL    HW179590   4.607   8.664   0.199 -3.3669  0.1793  1.0350
25011SOL    HW279591   4.621   8.554   0.096  0.5872  1.1527  0.3716
25012SOL     OW79592  10.376  11.077   6.765 -0.0902 -0.2558 -0.1062
25012SOL    HW179593  10.337  11.152   6.721  0.9142 -1.0211 -2.4372
25012SOL    HW279594  10.359  11.003   6.706 -0.6155 -1.8018  1.8747
25013SOL     OW79595   9.609   5.199   4.116  0.6036  0.2005  0.3584
25013SOL    HW179596   9.678   5.227   4.176  0.3797  0.5038  0.4810
25013SOL    HW279597   9.624   5.105   4.104 -1.5170 -0.7576  3.8451
25014SOL     OW79598  12.005   3.718   3.637  0.0489  0.0077  0.4291
25014SOL    HW179599  12.004   3.666   3.717 -0.3593 -2.3750 -1.0172
25014SOL    HW279600  11.917   3.707   3.600  0.7185 -0.3493 -1.1480
25015SOL     OW79601  10.711   3.396   6.980 -0.0939  0.3060 -0.2787
25015SOL    HW179602  10.673   3.325   7.032 -2.2738 -0.3483 -2.5570
25015SOL    HW279603  10.720   3.469   7.042 -0.9103 -0.9391  1.3845
25016SOL     OW79604   6.129  12.013   2.250  0.1095 -0.4384  0.3923
25016SOL    HW179605   6.198  12.035   2.312 -0.6789  0.6459  0.9065
25016SOL    HW279606   6.119  11.918   2.258 -1.1065 -0.1447  3.1542
25017SOL     OW79607   3.242   6.965  10.659 -0.0153 -0.5566  0.2312
25017SOL    HW179608   3.326   6.936  10.623  0.0286 -0.5209  0.3038
25017SOL    HW279609   3.230   7.053  10.624 -0.2351 -0.7296 -0.1345
25018SOL     OW79610   0.230  11.491   2.582  0.1526  1.1889  0.4022
25018SOL    HW179611   0.163  11.450   2.527 -0.5247  0.3042  1.8254
25018SOL    HW279612   0.312  11.477   2.535 -0.3772  0.2444 -0.2692
25019SOL     OW79613   3.439   3.801   0.996  0.5241  0.2850 -0.7408
25019SOL    HW179614   3.444   3.708   1.019  1.5700  0.6706  0.8018
25019SOL    HW279615   3.517   3.840   1.037 -0.2018  1.9376 -0.8502
25020SOL     OW79616  11.927   5.885   5.286 -0.3266 -0.1758  0.1507
25020SOL    HW179617  11.907   5.969   5.327 -0.0105 -0.3777  0.7219
25020SOL    HW279618  12.022   5.876   5.295 -0.5164 -1.2270  1.3158
25021SOL     OW79619  12.035   5.945  11.285 -0.4231  0.3434  0.2933
25021SOL    HW179620  11.971   5.912  11.222  1.4543  0.8307 -2.0620
25021SOL    HW279621  12.012   6.037  11.297 -0.1391  0.5524 -0.6566
25022SOL     OW79622   5.013   0.978   7.562  0.0016  0.3734 -0.2112
25022SOL    HW179623   5.034   1.059   7.514  0.0025  0.8095  0.5113
25022SOL    HW279624   5.083   0.917   7.538 -0.6127  0.2066 -1.6466
25023SOL     OW79625   7.324   3.859   6.387  0.3268 -0.6555 -0.6511
25023SOL    HW179626   7.303   3.790   6.450 -0.5570  0.2255  0.0702
25023SOL    HW279627   7.383   3.917   6.435 -1.1729  0.5890 -0.1979
25024SOL     OW79628   0.801  10.596   2.905 -0.1533  0.2979  0.2139
25024SOL    HW179629   0.728  10.658   2.911  0.4006  1.2828 -2.2159
25024SOL    HW279630   0.877  10.645   2.936  0.0121  0.3018 -0.1972
25025SOL     OW79631   5.882   0.027   5.302 -0.3119 -0.1697 -0.0938
25025SOL    HW179632   5.899   0.122   5.298 -0.4726 -0.0102  1.8728
25025SOL    HW279633   5.917   0.001   5.387  1.7483 -2.3493 -1.4740
25026SOL     OW79634   7.952   1.462   1.646 -0.0659  0.0261  0.1177
25026SOL    HW179635   7.961   1.413   1.564 -1.0991  1.8739 -1.1990
25026SOL    HW279636   8.010   1.418   1.708  2.1800 -0.3641 -2.1259
25027SOL     OW79637   3.168  10.369   9.772  0.3741 -0.2814  0.5365
25027SOL    HW179638   3.150  10.275   9.783 -0.7811 -0.2501 -0.7584
25027SOL    HW279639   3.243  10.372   9.713 -1.1148 -0.4638 -1.5155
25028SOL     OW79640   9.667   6.288   3.390  0.2520  0.0127 -0.1997
25028SOL    HW179641   9.606   6.238   3.336 -0.0067 -1.3952  1.3151
25028SOL    HW279642   9.612   6.334   3.453  0.5510  1.6187 -1.0422
25029SOL     OW79643   9.890  11.359   6.740  0.6336  0.1795  0.5735
25029SOL    HW179644   9.954  11.427   6.721  1.2478 -0.4212  0.4417
25029SOL    HW279645   9.943  11.285   6.772  0.0430 -0.4383  0.1437
25030SOL     OW79646   2.630   9.674   5.274  0.4431 -0.1800  0.0130
25030SOL    HW179647   2.714   9.636   5.300  0.5436 -0.5068 -0.7444
25030SOL    HW279648   2.624   9.657   5.179 -0.4902 -0.2032  0.0593
25031SOL     OW79649   9.822   3.770   5.706 -0.0964  0.3075  0.4767
25031SOL    HW179650   9.733   3.754   5.738 -1.0786  2.8979 -0.6761
25031SOL    HW279651   9.837   3.699   5.644 -1.6112  0.1299  0.2573
25032SOL     OW79652   2.864   8.178   8.935  0.0430 -0.8023  0.1062
25032SOL    HW179653   2.955   8.165   8.908  0.2240  0.2373  0.1485
25032SOL    HW279654   2.861   8.145   9.025  0.3650 -0.8871  0.0886
25033SOL     OW79655   4.611   0.926   3.894  0.1899  0.1751  0.0345
25033SOL    HW179656   4.656   0.848   3.862 -1.3086 -0.9035  0.4538
25033SOL    HW279657   4.665   0.999   3.863  0.3030 -0.8955 -2.5416
25034SOL     OW79658   5.857   1.386   5.758 -0.1467 -0.1430 -0.0392
25034SOL    HW179659   5.788   1.321   5.751  0.2718 -0.5991 -0.0081
25034SOL    HW279660   5.933   1.346   5.715 -0.4337  1.1222 -1.8327
25035SOL     OW79661   2.320   1.204   2.823  0.2286 -0.3884  0.4224
25035SOL    HW179662   2.401   1.256   2.822 -0.2689  0.4252  1.0429
25035SOL    HW279663   2.300   1.190   2.731  0.2976  0.6716  0.2255
25036SOL     OW79664   7.350   0.319   6.129 -0.1278 -0.1123 -0.6417
25036SOL    HW179665   7.413   0.265   6.082  1.1197 -2.0465  2.9025
25036SOL    HW279666   7.403   0.378   6.182 -1.2314 -1.0291  1.6165
25037SOL     OW79667  11.483   5.447   1.441  0.1379 -0.0467  0.2107
25037SOL    HW179668  11.530   5.467   1.360 -0.1613 -1.2341 -0.2783
25037SOL    HW279669  11.450   5.532   1.471  0.8040  0.4970 -0.5635
25038SOL     OW79670   8.840   6.502   9.660  0.7194 -0.0731 -0.1513
25038SOL    HW179671   8.797   6.441   9.601  1.1057 -0.1664 -0.3390
25038SOL    HW279672   8.780   6.577   9.665 -1.5471 -1.8909  2.9263
25039SOL     OW79673   5.961   3.465   9.568  0.4509 -0.1874  0.9619
25039SOL    HW179674   6.036   3.525   9.565  0.3578 -0.0655  1.0852
25039SOL    HW279675   5.958   3.427   9.480  1.5473 -1.2878  1.3737
25040SOL     OW79676   6.102   0.288  12.058 -0.0533 -0.1265  0.2277
25040SOL    HW179677   6.172   0.351  12.039 -0.1583 -0.2008 -0.4425
25040SOL    HW279678   6.144   0.203  12.050  0.4142 -0.1523  2.4348
25041SOL     OW79679  11.910   5.632   3.908 -0.1045 -0.1349  0.2602
25041SOL    HW179680  11.919   5.563   3.843 -0.8557  0.6121 -0.6707
25041SOL    HW279681  11.820   5.625   3.939 -0.2469  0.5569  0.0091
25042SOL     OW79682   5.103   4.516   3.420  0.2282 -0.2630 -0.0774
25042SOL    HW179683   5.020   4.554   3.449  0.7894 -0.4620  1.9833
25042SOL    HW279684   5.157   4.591   3.396  0.5203  0.1452  1.7059
25043SOL     OW79685   4.288  10.316   0.831 -0.1899 -0.6415  0.2899
25043SOL    HW179686   4.292  10.311   0.735 -0.4168  0.3069  0.2194
25043SOL    HW279687   4.243  10.235   0.857  0.1742 -1.0701 -0.3734
25044SOL     OW79688   4.150   4.379   6.689 -0.1065 -0.1374  0.4049
25044SOL    HW179689   4.244   4.379   6.707 -0.1014  1.1094  0.4935
25044SOL    HW279690   4.128   4.472   6.678 -1.2919 -0.4264  0.1954
25045SOL     OW79691   3.527   5.019   3.354 -0.7046 -0.2665 -0.2717
25045SOL    HW179692   3.596   5.002   3.291 -1.4857 -0.4911 -1.0926
25045SOL    HW279693   3.478   4.937   3.361 -1.2420  0.0524 -0.1545
25046SOL     OW79694   0.928   0.549   8.906  0.6754 -0.5396 -0.0354
25046SOL    HW179695   1.015   0.547   8.867  1.5382  0.3681  1.7470
25046SOL    HW279696   0.875   0.600   8.845  0.8443 -2.6319 -2.0810
25047SOL     OW79697  10.208   2.297   3.954  0.2007  0.7542 -0.5989
25047SOL    HW179698  10.205   2.252   3.869 -0.2288 -0.7918  0.1891
25047SOL    HW279699  10.207   2.226   4.018  1.2626  1.8698  0.7035
25048SOL     OW79700   3.346   2.400  11.994 -0.5039 -0.7130 -0.6809
25048SOL    HW179701   3.390   2.372  11.914  0.6412 -3.0046  0.6392
25048SOL    HW279702   3.255   2.375  11.982 -0.3094 -1.1743 -1.2053
25049SOL     OW79703  11.205  11.285   8.971  0.2144 -0.2383  0.2013
25049SOL    HW179704  11.144  11.295   8.897 -0.9717  2.1730  1.3529
25049SOL    HW279705  11.242  11.373   8.983  1.3010 -0.8591  1.7011
25050SOL     OW79706   4.640   2.046   2.340 -0.2618 -0.8611 -0.0964
25050SOL    HW179707   4.640   1.995   2.421  1.9294  2.0886  2.0311
25050SOL    HW279708   4.726   2.027   2.301  0.2699  0.5131  0.3436
25051SOL     OW79709   1.065   8.623   5.272  0.1287  0.1046 -0.3781
25051SOL    HW179710   1.125   8.650   5.342 -0.9757 -0.0608  0.6829
25051SOL    HW279711   1.047   8.531   5.291 -2.4179  0.7646  0.9128
25052SOL     OW79712  10.434  10.352   7.243  0.1247  0.8175 -0.1285
25052SOL    HW179713  10.396  10.276   7.198  0.0000  0.0502  1.2115
25052SOL    HW279714  10.529  10.340   7.234  0.0998  0.8228 -0.4224
25053SOL     OW79715   9.350  11.281   5.652 -0.1422  0.4020  0.5084
25053SOL    HW179716   9.284  11.225   5.612  1.3233 -2.3205  1.6075
25053SOL    HW279717   9.355  11.358   5.595 -2.4235 -0.4434 -0.9667
25054SOL     OW79718   5.193   5.677   3.313  0.2448  0.0108 -0.6595
25054SOL    HW179719   5.105   5.650   3.341  0.1372  0.8092 -0.1856
25054SOL    HW279720   5.178   5.734   3.238  0.3982 -0.2856 -0.9186
25055SOL     OW79721   7.987   0.918   8.949 -0.3448  0.2119 -0.3149
25055SOL    HW179722   8.037   0.872   8.881 -1.1030 -0.5902 -0.3431
25055SOL    HW279723   7.959   0.999   8.907  0.1129  0.2276 -0.6031
25056SOL     OW79724   1.811   8.439   4.619 -0.3198  0.1865  0.7091
25056SOL    HW179725   1.799   8.455   4.526 -0.8488 -1.2226  0.5295
25056SOL    HW279726   1.840   8.524   4.654 -2.0277  1.2719 -0.3758
25057SOL     OW79727   8.034   8.625   7.776  0.3207 -0.0387 -0.1281
25057SOL    HW179728   8.102   8.672   7.728  0.6011 -2.2079 -2.0884
25057SOL    HW279729   8.031   8.539   7.733  0.3738 -2.1082  3.6198
25058SOL     OW79730   6.566   3.812   4.149  0.2559 -0.4478  0.0329
25058SOL    HW179731   6.533   3.723   4.139  0.0849 -0.5783  1.5341
25058SOL    HW279732   6.495   3.868   4.117 -0.0220 -0.8215 -0.0116
25059SOL     OW79733   3.846   0.183   1.556 -0.2266  0.6947  0.2316
25059SOL    HW179734   3.929   0.162   1.512 -2.1061 -4.8663 -1.5476
25059SOL    HW279735   3.780   0.172   1.487 -2.7236  0.3511  2.5283
25060SOL     OW79736   4.069   8.151  11.263  0.5665 -0.1398 -0.4383
25060SOL    HW179737   4.029   8.199  11.335 -1.3530  2.0960 -2.8187
25060SOL    HW279738   4.150   8.198  11.245  0.9204 -0.5488  0.0410
25061SOL     OW79739   1.928   5.298  10.191  0.0555 -0.2882  0.1508
25061SOL    HW179740   1.847   5.255  10.162  0.4366 -1.4672  0.7917
25061SOL    HW279741   1.925   5.384  10.149 -1.4033 -0.4085 -0.0476
25062SOL     OW79742   9.451   2.089   1.567  0.3491 -0.0330  0.3007
25062SOL    HW179743   9.429   2.182   1.574  2.0033  0.3987  0.1738
25062SOL    HW279744   9.528   2.078   1.623  0.0135 -1.3984  0.5333
25063SOL     OW79745   9.309   8.097   6.983 -0.0603 -0.1465 -0.0867
25063SOL    HW179746   9.394   8.081   6.943  0.2098 -0.3760  0.5794
25063SOL    HW279747   9.250   8.034   6.940  0.0883  0.0477 -0.5842
25064SOL     OW79748  11.704   6.271  11.308 -0.4337  0.4187 -0.6199
25064SOL    HW179749  11.640   6.327  11.352 -0.2427  1.3821 -1.5301
25064SOL    HW279750  11.651   6.211  11.256 -0.6843 -1.0288  1.1776
25065SOL     OW79751   7.138  11.290   3.935 -0.5147  0.2689 -0.5272
25065SOL    HW179752   7.049  11.305   3.903 -0.4857  3.0190  0.3846
25065SOL    HW279753   7.189  11.272   3.855 -1.5580  0.5112 -1.2690
25066SOL     OW79754   9.262   3.428   5.532 -0.0242 -0.4678  0.0912
25066SOL    HW179755   9.242   3.360   5.469  1.5269 -1.1059  0.2298
25066SOL    HW279756   9.295   3.502   5.480  0.2539 -0.6048  0.0694
25067SOL     OW79757   4.768   7.125   3.949  0.0182 -0.2554  0.0826
25067SOL    HW179758   4.750   7.044   3.902  1.6445 -1.0704  0.7928
25067SOL    HW279759   4.714   7.118   4.029 -0.6128 -0.1551 -0.3281
25068SOL     OW79760   4.410   0.399  11.662  0.2725  0.1267  0.6628
25068SOL    HW179761   4.496   0.404  11.621  0.7029  0.5757  1.5944
25068SOL    HW279762   4.394   0.306  11.674 -1.8394 -0.5170 -4.5051
25069SOL     OW79763   9.192   4.984   7.019 -0.4214 -0.0570 -0.4223
25069SOL    HW179764   9.233   4.971   6.933  0.0935  1.2668 -0.3965
25069SOL    HW279765   9.204   4.900   7.064  0.5083 -0.3261 -1.1439
25070SOL     OW79766   7.639   6.780   0.519 -0.3055 -0.8038 -0.1500
25070SOL    HW179767   7.570   6.716   0.539 -1.6924  0.8184  0.5079
25070SOL    HW279768   7.695   6.780   0.596 -1.2153 -0.1267  0.5362
25071SOL     OW79769   8.677   8.923   0.988  1.2774  1.0670 -0.4278
25071SOL    HW179770   8.655   9.000   0.936 -2.1615  0.1503 -0.5674
25071SOL    HW279771   8.683   8.956   1.078 -1.3951  1.4116 -0.3080
25072SOL     OW79772   9.268  10.175   3.164 -0.1493 -0.1241 -0.4588
25072SOL    HW179773   9.341  10.114   3.175  0.4253  0.1418 -2.4709
25072SOL    HW279774   9.302  10.243   3.105 -0.9969  1.8101  1.1409
25073SOL     OW79775  11.539  11.337  11.104  0.2245  0.0050 -0.4008
25073SOL    HW179776  11.590  11.355  11.025  1.7124  0.1166  0.5488
25073SOL    HW279777  11.487  11.416  11.117  1.3595  0.7492 -0.2534
25074SOL     OW79778   9.067   1.321  10.867  0.2968  0.3882 -0.3649
25074SOL    HW179779   9.039   1.338  10.957 -0.9915 -0.5500 -0.5467
25074SOL    HW279780   9.161   1.339  10.866  0.2804  0.6384  1.1057
25075SOL     OW79781   4.306   1.417   0.664 -0.0588 -0.0673 -0.0140
25075SOL    HW179782   4.232   1.457   0.619  0.4060  1.5853  0.6229
25075SOL    HW279783   4.274   1.399   0.752 -0.1964 -0.9155 -0.2303
25076SOL     OW79784  12.029   3.930   6.723  0.1441  0.1135  0.2960
25076SOL    HW179785  12.024   4.008   6.667 -0.9935 -0.6266 -0.6657
25076SOL    HW279786  12.111   3.888   6.697  0.4050  0.5985  0.3077
25077SOL     OW79787   9.948   1.938  10.101 -0.0172  0.1763 -0.1772
25077SOL    HW179788   9.943   1.923  10.007  0.2591  1.1930 -0.3719
25077SOL    HW279789   9.946   2.033  10.110  4.0358  0.3515  0.5573
25078SOL     OW79790   0.475   0.229   9.897 -0.0758 -0.0241 -0.5629
25078SOL    HW179791   0.534   0.214   9.970  1.1459  0.4130 -1.4410
25078SOL    HW279792   0.435   0.143   9.881  0.7841 -0.4728 -0.3517
25079SOL     OW79793  10.405  10.959   0.346 -0.3730  0.3989  0.1754
25079SOL    HW179794  10.365  10.948   0.432 -1.6575 -0.7579 -0.5117
25079SOL    HW279795  10.400  10.872   0.306 -1.5190  1.2616 -1.7357
25080SOL     OW79796   1.780   9.527  11.272 -0.1520  0.2269  0.0962
25080SOL    HW179797   1.727   9.478  11.335  0.2631  0.3759  0.5675
25080SOL    HW279798   1.793   9.613  11.313  1.2517 -0.1243  0.4266
25081SOL     OW79799   7.811   1.531   8.239 -0.0909 -0.3188  0.3752
25081SOL    HW179800   7.842   1.620   8.224  2.0079 -1.1585 -0.7093
25081SOL    HW279801   7.798   1.526   8.334  1.1291  0.7518  0.6253
25082SOL     OW79802   0.940  11.572   2.889  0.2584 -0.8429  0.2820
25082SOL    HW179803   0.913  11.519   2.815 -1.4484 -0.6286  0.7112
25082SOL    HW279804   0.943  11.511   2.963  1.3436 -0.9354  0.1728
25083SOL     OW79805   5.268   1.607   0.256  0.2052  0.2384 -0.1737
25083SOL    HW179806   5.333   1.668   0.290 -1.0515  0.5737  1.7577
25083SOL    HW279807   5.320   1.540   0.211  1.9347  0.2931  1.5983
25084SOL     OW79808   7.977  11.023   7.059 -0.5035  0.2428  0.7269
25084SOL    HW179809   8.013  11.077   6.988 -2.6244 -0.8430 -1.3050
25084SOL    HW279810   7.883  11.026   7.046 -0.8053 -2.4988  1.6035
25085SOL     OW79811  11.083   7.925   1.079  0.0718 -0.7128 -0.4995
25085SOL    HW179812  11.119   7.942   1.166 -0.4059  1.8555 -0.7323
25085SOL    HW279813  11.014   7.991   1.068  0.8782 -0.1937 -3.2558
25086SOL     OW79814   8.738   4.972   9.022 -0.1554  0.4313  0.1362
25086SOL    HW179815   8.672   5.018   8.970 -0.8064 -1.1367 -0.4737
25086SOL    HW279816   8.698   4.961   9.108 -2.0476 -3.0943 -1.0007
25087SOL     OW79817   8.313   3.214   2.321  0.9378  0.1066  0.4743
25087SOL    HW179818   8.398   3.212   2.364  1.3209 -0.8225 -0.2943
25087SOL    HW279819   8.251   3.184   2.389  1.2382  0.6383  0.9864
25088SOL     OW79820   8.106   7.120  11.996  0.5411 -0.0248 -0.2625
25088SOL    HW179821   8.025   7.084  12.032  1.1785 -2.3802 -1.0599
25088SOL    HW279822   8.083   7.211  11.974 -0.8240  0.5521  2.8423
25089SOL     OW79823   4.386   0.831   4.718  0.4398 -0.5003  0.3324
25089SOL    HW179824   4.418   0.763   4.777  0.3430 -0.5198  0.3620
25089SOL    HW279825   4.329   0.886   4.772  0.4869 -0.4186  0.2993
25090SOL     OW79826   5.089   6.355   8.687  0.2664  0.5115 -0.3552
25090SOL    HW179827   5.076   6.271   8.731 -0.6407  0.6840 -0.2744
25090SOL    HW279828   5.074   6.336   8.594  0.2628  0.5382 -0.3601
25091SOL     OW79829   5.601   0.612   0.626  0.4982  0.0034  0.2520
25091SOL    HW179830   5.528   0.552   0.610  1.4310 -0.7312 -1.5081
25091SOL    HW279831   5.674   0.555   0.649  0.7672  0.6751  1.1130
25092SOL     OW79832   3.447   0.551   5.107 -0.2262  0.0815 -0.4631
25092SOL    HW179833   3.392   0.590   5.040  0.2662  1.9647  0.1555
25092SOL    HW279834   3.474   0.625   5.162 -0.9375 -1.4137  2.0717
25093SOL     OW79835   5.311   3.659   1.302 -0.0983 -0.7115 -0.6566
25093SOL    HW179836   5.375   3.675   1.370 -0.8010 -1.5925  0.2334
25093SOL    HW279837   5.327   3.728   1.237  1.3294 -0.5570 -0.1735
25094SOL     OW79838   6.844   6.736   8.278  0.6209  0.1676  0.3318
25094SOL    HW179839   6.759   6.769   8.306  0.4420 -0.5698  0.6796
25094SOL    HW279840   6.840   6.641   8.293  1.6078  0.1576  0.6403
25095SOL     OW79841  11.060   4.360   3.230 -0.2129  0.3034  0.1323
25095SOL    HW179842  11.063   4.284   3.287  0.8037 -0.8127 -1.3408
25095SOL    HW279843  10.978   4.351   3.182  0.0304 -0.0005 -0.2257
25096SOL     OW79844   1.930   8.345   7.763 -0.0723 -0.0543 -0.3614
25096SOL    HW179845   1.924   8.268   7.707 -1.3097 -0.9963  1.0231
25096SOL    HW279846   1.861   8.403   7.731 -0.0097 -0.0798 -0.5455
25097SOL     OW79847   2.478   3.362   0.843 -0.2515 -0.0062 -0.2207
25097SOL    HW179848   2.393   3.344   0.884 -0.5547 -1.3533 -1.3521
25097SOL    HW279849   2.496   3.454   0.863 -1.5386  0.0452  0.8098
25098SOL     OW79850   8.419   6.875  11.858 -0.3636  0.1197 -0.5091
25098SOL    HW179851   8.386   6.941  11.920 -1.5288 -0.7429 -0.1612
25098SOL    HW279852   8.512   6.896  11.847 -0.1240  0.3161  1.5230
25099SOL     OW79853   6.857   0.585  11.715  0.2953  0.4778 -0.1491
25099SOL    HW179854   6.796   0.658  11.710  0.4992  0.6081 -0.9440
25099SOL    HW279855   6.893   0.578  11.626  0.3602 -0.5150 -0.0583
25100SOL     OW79856   8.287   4.814   8.416  0.5473 -0.9564 -0.2692
25100SOL    HW179857   8.375   4.791   8.446 -0.2528 -1.8429  1.5776
25100SOL    HW279858   8.300   4.890   8.360  2.2464  0.7048  2.1652
25101SOL     OW79859   4.898   9.457   2.874 -0.2189  0.4380 -0.1204
25101SOL    HW179860   4.978   9.405   2.885  0.0883  0.9864  0.2644
25101SOL    HW279861   4.841   9.427   2.944 -0.0783  0.5452  0.0416
25102SOL     OW79862   6.588   8.950   1.545 -0.4725 -0.9346  0.2056
25102SOL    HW179863   6.595   8.891   1.470  0.3778 -1.0989  0.4006
25102SOL    HW279864   6.671   8.998   1.545 -0.2329 -1.3081  1.3501
25103SOL     OW79865   0.591   3.614   5.208 -0.2697 -0.4957  0.2073
25103SOL    HW179866   0.645   3.548   5.251  1.4059  0.6219 -0.0400
25103SOL    HW279867   0.650   3.689   5.198 -1.7465  0.6120 -0.5815
25104SOL     OW79868   0.928   9.201   1.264 -0.0530 -0.1537 -0.1824
25104SOL    HW179869   0.932   9.229   1.355 -1.7963 -1.7811  0.4565
25104SOL    HW279870   0.968   9.113   1.264  1.7860  0.6170 -1.4068
25105SOL     OW79871   8.153   3.213   2.095  0.1930 -0.4699  0.1019
25105SOL    HW179872   8.214   3.235   2.165  0.5374 -2.3371  0.4361
25105SOL    HW279873   8.101   3.292   2.083  2.1092  0.9162  0.3765
25106SOL     OW79874  10.910  11.407   5.054  0.2049  0.1849 -0.1491
25106SOL    HW179875  10.937  11.362   4.973 -0.0791  2.1414 -1.3912
25106SOL    HW279876  10.815  11.414   5.046  0.3843  2.4360 -0.8077
25107SOL     OW79877   7.724   9.662  10.251 -0.4074  0.1680 -0.0854
25107SOL    HW179878   7.674   9.689  10.329 -0.1335 -0.0099  0.1523
25107SOL    HW279879   7.683   9.580  10.224 -1.5779  1.0506 -1.1151
25108SOL     OW79880   5.492   1.271  11.657  0.0797  0.2448  0.3246
25108SOL    HW179881   5.470   1.247  11.747  1.4324 -0.5969  0.4635
25108SOL    HW279882   5.430   1.222  11.603 -0.7413  0.7561  0.7876
25109SOL     OW79883   0.294   3.676   7.339  0.5156 -0.2898 -0.3262
25109SOL    HW179884   0.241   3.747   7.303  0.7204  0.0193 -0.0058
25109SOL    HW279885   0.336   3.637   7.262  2.0419  1.2407 -0.3117
25110SOL     OW79886   1.231   3.986  11.656  0.5743 -0.0186  0.1318
25110SOL    HW179887   1.307   4.039  11.628  0.2728  0.5498  0.3696
25110SOL    HW279888   1.191   3.958  11.574  0.2418  0.8562 -0.0215
25111SOL     OW79889   2.828  11.196   2.128  0.0700 -0.4505 -0.2984
25111SOL    HW179890   2.850  11.271   2.073  2.1148 -0.1130  0.8792
25111SOL    HW279891   2.913  11.163   2.158 -0.8397 -2.6443 -0.0024
25112SOL     OW79892  11.792   4.095   8.219  0.2151  0.4122 -0.2056
25112SOL    HW179893  11.722   4.160   8.230 -0.0069  0.4503 -1.6894
25112SOL    HW279894  11.830   4.115   8.134  0.7745 -0.8187 -0.2563
25113SOL     OW79895   3.551   0.781   2.111  0.4465  0.3556  0.5348
25113SOL    HW179896   3.525   0.758   2.021  0.4920  0.7520  0.4193
25113SOL    HW279897   3.495   0.727   2.166  0.9350 -0.4497  0.2633
25114SOL     OW79898   6.580   8.360   5.494 -0.3327 -0.1278  0.1033
25114SOL    HW179899   6.610   8.295   5.431 -0.9356 -0.4491  0.1406
25114SOL    HW279900   6.632   8.344   5.572 -0.5050 -0.5964  0.1260
25115SOL     OW79901  10.228   7.106   2.446 -0.2747  0.0657  0.7312
25115SOL    HW179902  10.212   7.027   2.498 -2.1510 -0.7317 -0.9230
25115SOL    HW279903  10.248   7.073   2.358 -0.8254  1.3983  0.0744
25116SOL     OW79904  12.106   0.635   0.950  0.0751 -0.2509 -0.3772
25116SOL    HW179905  12.071   0.636   0.861 -0.3870  0.5827 -0.1952
25116SOL    HW279906  12.029   0.640   1.006  0.4270  0.8500  0.0391
25117SOL     OW79907   7.997   4.532  10.279 -0.8174  0.7277 -0.5217
25117SOL    HW179908   7.939   4.510  10.352  2.0574 -0.0559  1.7274
25117SOL    HW279909   7.977   4.467  10.212 -1.7392 -0.2556  0.6505
25118SOL     OW79910   7.428   4.260   3.640  0.1523 -0.2813  0.4554
25118SOL    HW179911   7.422   4.227   3.730  0.0866  0.1340  0.6062
25118SOL    HW279912   7.498   4.209   3.600  0.8929  0.2389  1.0565
25119SOL     OW79913   7.781  10.376   7.861 -0.3666 -0.3159 -0.4201
25119SOL    HW179914   7.737  10.365   7.777  0.1769 -1.0721 -0.6215
25119SOL    HW279915   7.872  10.354   7.844 -0.1344  0.0970  0.2417
25120SOL     OW79916   0.233   9.576   1.313  0.8905  0.9887 -0.2562
25120SOL    HW179917   0.274   9.634   1.377  2.7109  0.7463 -1.1330
25120SOL    HW279918   0.272   9.601   1.230 -0.4106  0.3839 -1.0751
25121SOL     OW79919   1.835   3.740   0.880  0.3814 -0.0041  0.6496
25121SOL    HW179920   1.784   3.754   0.960  0.6981 -1.1422  1.0690
25121SOL    HW279921   1.807   3.654   0.849 -1.1541  1.1928 -1.5554
25122SOL     OW79922   8.337  10.981   4.805 -0.0079  0.2670  0.0325
25122SOL    HW179923   8.329  10.966   4.899 -0.6596  0.6280  0.0448
25122SOL    HW279924   8.253  11.020   4.780 -0.3369 -0.9759 -0.9216
25123SOL     OW79925   5.727   9.276   2.202  0.0432 -0.2303  0.3195
25123SOL    HW179926   5.711   9.314   2.288  0.2568  0.4571  0.0662
25123SOL    HW279927   5.675   9.196   2.200  0.7833 -0.7753  1.4530
25124SOL     OW79928   9.571   0.463  10.289 -0.6302 -0.0184  0.2824
25124SOL    HW179929   9.659   0.426  10.293 -0.2666  0.5889 -1.3517
25124SOL    HW279930   9.582   0.554  10.317 -0.4442  0.4629 -1.2521
25125SOL     OW79931   4.587  10.932   6.104  0.1561  0.2423 -0.3494
25125SOL    HW179932   4.546  11.012   6.137  0.6509  0.6947 -0.8216
25125SOL    HW279933   4.606  10.881   6.183  0.5276  0.9308  0.0145
25126SOL     OW79934   5.399   3.953   1.401  0.1336  0.0900 -0.0883
25126SOL    HW179935   5.407   4.042   1.434  0.9137  0.7500 -1.9527
25126SOL    HW279936   5.430   3.898   1.473 -1.1411  1.2213  1.4016
25127SOL     OW79937   2.598   9.653   3.888 -0.1300  0.4441  0.2606
25127SOL    HW179938   2.590   9.677   3.796  0.1888  1.6219  0.5239
25127SOL    HW279939   2.527   9.700   3.931  0.5946  1.0413  0.8155
25128SOL     OW79940   6.788   3.811   6.340 -0.0607  0.0465  0.5286
25128SOL    HW179941   6.718   3.761   6.382 -1.0805  0.0439 -1.0823
25128SOL    HW279942   6.858   3.813   6.406 -1.1514 -0.8531  1.7954
25129SOL     OW79943   2.481   5.294   6.991 -0.2322 -0.1909  0.1409
25129SOL    HW179944   2.557   5.296   6.932  0.1446 -1.3380  0.5468
25129SOL    HW279945   2.405   5.288   6.933  0.0824 -0.3787 -0.2575
25130SOL     OW79946   8.773   5.761   3.723 -0.1035  0.0099  0.3619
25130SOL    HW179947   8.808   5.822   3.658 -0.5259  1.5899  1.5490
25130SOL    HW279948   8.679   5.781   3.726 -0.2482 -0.7071  0.7749
25131SOL     OW79949  10.995   0.249   5.796  0.0286 -0.6180  0.1221
25131SOL    HW179950  10.940   0.317   5.835  0.6588  0.4044 -0.7346
25131SOL    HW279951  10.951   0.227   5.714 -0.6851 -1.9634  0.8219
25132SOL     OW79952   6.920  10.393   2.228  0.6754  0.1282 -0.0975
25132SOL    HW179953   7.016  10.389   2.226  0.8991  0.2594  3.3783
25132SOL    HW279954   6.899  10.484   2.209  1.4007  0.4894  0.7557
25133SOL     OW79955   1.473   4.875   9.226 -0.4696  0.0548  0.3390
25133SOL    HW179956   1.440   4.939   9.163  1.8227 -0.1029 -1.1361
25133SOL    HW279957   1.397   4.852   9.279 -1.8673  2.2824 -0.5585
25134SOL     OW79958   2.826   4.683   2.552  0.8418 -0.0325 -0.0148
25134SOL    HW179959   2.908   4.715   2.514  1.3949 -0.5143  0.7448
25134SOL    HW279960   2.851   4.603   2.598 -0.3168 -0.9839 -0.9681
25135SOL     OW79961   6.080  10.845   3.762 -0.2073  0.2614 -0.2541
25135SOL    HW179962   5.998  10.888   3.735  0.2065  2.0133  1.1077
25135SOL    HW279963   6.064  10.819   3.853 -0.1852 -1.9352 -0.8215
25136SOL     OW79964   8.713   5.509   1.417 -0.3743 -0.6013 -0.0160
25136SOL    HW179965   8.622   5.481   1.420 -0.3918 -0.5302  2.7170
25136SOL    HW279966   8.762   5.431   1.445  0.5126 -0.8096 -1.9659
25137SOL     OW79967   5.079   3.487   2.807  0.1551  0.1975 -0.6335
25137SOL    HW179968   4.985   3.474   2.818  0.3237 -0.4320  0.2517
25137SOL    HW279969   5.118   3.445   2.885  1.1678  0.3301 -1.0500
25138SOL     OW79970   3.685   9.361   2.525  0.3334 -0.4052 -0.1060
25138SOL    HW179971   3.601   9.322   2.498  1.5693 -1.9543 -1.9482
25138SOL    HW279972   3.730   9.380   2.443  2.1111 -0.3313  0.8437
25139SOL     OW79973   1.833   5.022   7.990 -0.4152  0.0846  0.3906
25139SOL    HW179974   1.883   4.997   8.067 -3.2176 -1.1580  1.9488
25139SOL    HW279975   1.787   4.941   7.964  1.6047 -0.0156 -3.6416
25140SOL     OW79976   0.120   0.231  11.666  0.5389  0.1583 -0.0114
25140SOL    HW179977   0.101   0.138  11.682  0.9950 -0.0116 -0.4080
25140SOL    HW279978   0.205   0.245  11.707 -0.0960  0.7321  1.1488
25141SOL     OW79979   3.221   3.497   1.012 -0.5883  0.7591  0.2770
25141SOL    HW179980   3.268   3.517   0.932 -2.4076 -0.7262 -1.2695
25141SOL    HW279981   3.267   3.421   1.049 -0.4292  0.7417  0.0422
25142SOL     OW79982   7.989  10.378  10.656  0.1179 -0.1346 -0.1359
25142SOL    HW179983   7.994  10.473  10.658 -0.4561 -0.1025 -0.0249
25142SOL    HW279984   8.071  10.348  10.696 -0.4040  0.3201  1.3299
25143SOL     OW79985   4.489  11.253   8.901 -0.1026  0.1773 -0.7099
25143SOL    HW179986   4.410  11.287   8.943 -0.5297 -2.1433  0.5617
25143SOL    HW279987   4.535  11.206   8.971  1.6347  0.1898 -1.7766
25144SOL     OW79988   6.845   8.699   1.204  0.2438  0.5693 -0.6857
25144SOL    HW179989   6.907   8.625   1.206  2.1952  2.0769  1.8008
25144SOL    HW279990   6.881   8.758   1.138 -0.0620  0.2918 -1.1055
25145SOL     OW79991   0.439   4.207   5.897  0.2773 -0.2058 -0.0533
25145SOL    HW179992   0.405   4.151   5.827 -0.5163  0.8929 -0.5821
25145SOL    HW279993   0.530   4.223   5.873  0.3118 -0.7060 -0.2638
25146SOL     OW79994   9.190   5.071   1.249 -0.3399  0.1779  0.4104
25146SOL    HW179995   9.161   5.046   1.337 -0.0356 -1.2240  0.1291
25146SOL    HW279996   9.277   5.108   1.262 -0.7569  1.0525  0.8202
25147SOL     OW79997   9.704   2.965  11.771  0.2266  0.2198 -0.3190
25147SOL    HW179998   9.691   2.881  11.726  1.0224 -0.0655 -0.0299
25147SOL    HW279999   9.795   2.988  11.754  0.8943 -0.4379  1.9868
25148SOL     OW80000   4.389   2.651   5.755 -0.2975  0.1099 -0.1566
25148SOL    HW180001   4.406   2.744   5.739  2.7274 -0.7192 -2.9273
25148SOL    HW280002   4.357   2.618   5.671  1.1303 -1.7489 -0.0424
25149SOL     OW80003  10.217   0.014  11.671 -0.4282 -0.1606  0.0329
25149SOL    HW180004  10.193  -0.033  11.591  0.7798 -0.1859 -0.3239
25149SOL    HW280005  10.146   0.078  11.683  1.4724  3.0897 -3.6952
25150SOL     OW80006   8.489   8.863   5.791  0.4611 -0.3943 -0.3885
25150SOL    HW180007   8.440   8.939   5.823 -1.7837 -0.9042 -2.3519
25150SOL    HW280008   8.526   8.893   5.708  2.2888 -0.5309  0.3197
25151SOL     OW80009   0.829   7.356   1.786 -0.7238 -0.8921  0.0769
25151SOL    HW180010   0.780   7.301   1.847 -1.3980  0.6824  1.0333
25151SOL    HW280011   0.912   7.311   1.774  1.3171  0.6037  5.5425
25152SOL     OW80012   8.305   8.504  10.194 -0.2146  0.6965 -0.4152
25152SOL    HW180013   8.375   8.566  10.175 -0.9712  1.4408 -0.8248
25152SOL    HW280014   8.284   8.519  10.286 -1.8038  2.5595 -1.0118
25153SOL     OW80015   8.711  10.005  11.956 -0.6975  0.0053 -0.8474
25153SOL    HW180016   8.680   9.990  11.867  2.3688  2.0355 -2.4182
25153SOL    HW280017   8.798   9.966  11.959 -1.2312 -1.2179  1.7763
25154SOL     OW80018   8.008   7.336   7.305 -0.0291  0.1504  0.1089
25154SOL    HW180019   8.032   7.267   7.242 -0.5275 -0.0700  0.1551
25154SOL    HW280020   7.963   7.402   7.252 -1.7997 -0.7220  0.4341
25155SOL     OW80021   6.470   7.302   0.042 -0.5854  0.1203  0.7126
25155SOL    HW180022   6.515   7.218   0.042 -0.1349  0.2204 -2.6353
25155SOL    HW280023   6.379   7.280   0.024 -0.5102  0.3238  0.0751
25156SOL     OW80024   8.345  11.514   2.937  0.1860  0.2025 -0.3411
25156SOL    HW180025   8.272  11.475   2.986  0.5903  0.5441  0.5579
25156SOL    HW280026   8.402  11.440   2.916  1.1218  0.2850  1.6465
25157SOL     OW80027   7.658   4.668   6.515 -0.5611  0.1411 -0.5077
25157SOL    HW180028   7.590   4.671   6.582  1.2021  2.2767  1.3392
25157SOL    HW280029   7.635   4.740   6.455  1.3331  2.7821  1.6531
25158SOL     OW80030  10.421   5.821   2.947  0.3120 -0.4593 -0.1131
25158SOL    HW180031  10.342   5.842   2.998 -0.0881 -0.2854 -0.7910
25158SOL    HW280032  10.388   5.775   2.870  0.6812  1.1669 -1.2978
25159SOL     OW80033   4.630  11.653  11.666  0.6659 -0.0957 -0.6734
25159SOL    HW180034   4.687  11.729  11.657  2.1156 -1.2087 -1.4155
25159SOL    HW280035   4.688  11.578  11.649 -0.8497 -1.3285 -0.6101
25160SOL     OW80036   4.039   7.370   5.755 -0.1185  0.0004 -0.0910
25160SOL    HW180037   4.006   7.394   5.841  0.0120  1.6020 -0.4543
25160SOL    HW280038   4.094   7.293   5.771  1.0572  1.0864  1.5090
25161SOL     OW80039   8.761   9.818   3.741  0.7716 -0.1638  0.1011
25161SOL    HW180040   8.857   9.821   3.745  0.8520 -1.5117 -0.4804
25161SOL    HW280041   8.738   9.892   3.685  1.3604  1.0348  1.3690
25162SOL     OW80042   5.400   8.560   7.993 -0.2124 -0.0041 -0.2288
25162SOL    HW180043   5.308   8.584   8.002 -0.3398  0.1898 -1.7201
25162SOL    HW280044   5.425   8.523   8.078 -1.2609  1.2591  0.6576
25163SOL     OW80045   9.983   1.443  11.310 -0.2592 -0.2403  0.2396
25163SOL    HW180046   9.973   1.434  11.216 -0.3350 -1.5196  0.3619
25163SOL    HW280047   9.954   1.533  11.328 -0.7316 -0.1517 -0.8744
25164SOL     OW80048   0.458  11.097   4.970  0.1014  0.1548 -0.3306
25164SOL    HW180049   0.389  11.033   4.991 -0.3760  0.3513 -1.2542
25164SOL    HW280050   0.460  11.155   5.046 -0.5612 -0.0237 -0.1663
25165SOL     OW80051   9.474   8.912   9.450 -0.6225  0.0736 -0.4256
25165SOL    HW180052   9.396   8.857   9.448 -1.0962  0.6073  1.7254
25165SOL    HW280053   9.443   8.998   9.480  0.8173  0.2197  0.7375
25166SOL     OW80054   9.481   2.335   0.822  0.2975 -0.0774 -0.2332
25166SOL    HW180055   9.559   2.347   0.876  0.2431 -0.1528 -0.1385
25166SOL    HW280056   9.408   2.354   0.881  0.2653  0.6188 -0.4878
25167SOL     OW80057   9.606   6.840   6.964 -0.3434  0.5601  0.0027
25167SOL    HW180058   9.601   6.923   6.916 -0.8035  0.5677  0.0631
25167SOL    HW280059   9.607   6.865   7.056  0.5738  0.5455  0.0038
25168SOL     OW80060  11.893   2.523  12.019 -0.2876 -0.1560  0.1009
25168SOL    HW180061  11.904   2.457  12.088  0.2143 -0.6775 -0.4748
25168SOL    HW280062  11.814   2.496  11.973 -0.6749  0.2439  0.5160
25169SOL     OW80063  10.894   1.606   7.905 -0.2253 -0.0259 -0.1831
25169SOL    HW180064  10.986   1.633   7.912 -0.3033  0.9452 -2.2534
25169SOL    HW280065  10.847   1.685   7.880 -1.1893 -1.0556 -1.8479
25170SOL     OW80066   5.540  10.347   5.288  0.0074  0.0989 -0.0840
25170SOL    HW180067   5.495  10.264   5.305 -2.8808  1.3747 -0.8788
25170SOL    HW280068   5.575  10.373   5.373  1.3108 -2.0380  0.1082
25171SOL     OW80069   0.464   8.961   9.287 -0.4304  0.0749  0.1594
25171SOL    HW180070   0.429   8.883   9.243 -0.9196 -0.3078  1.1938
25171SOL    HW280071   0.553   8.969   9.252  0.6301 -2.5203  1.9030
25172SOL     OW80072   5.749   1.373  10.902 -0.0936 -0.4438  0.2821
25172SOL    HW180073   5.759   1.383  10.996  0.7539  0.7136  0.1014
25172SOL    HW280074   5.727   1.281  10.889 -0.1510 -0.6280  1.6017
25173SOL     OW80075   7.285   4.687   7.890 -0.2205  0.2092 -0.3204
25173SOL    HW180076   7.275   4.745   7.965  1.0893  0.6298 -0.4367
25173SOL    HW280077   7.378   4.693   7.868  0.5852 -3.8365  1.1867
25174SOL     OW80078   8.662   1.091  10.567  0.1689 -0.3763  0.5106
25174SOL    HW180079   8.699   1.005  10.586 -1.9070 -1.5008 -0.2979
25174SOL    HW280080   8.703   1.149  10.632  1.8309 -1.8719  0.8765
25175SOL     OW80081  11.582   7.042   5.274  0.9967 -0.5061 -0.0844
25175SOL    HW180082  11.642   6.992   5.219  1.9880 -2.0416  2.2230
25175SOL    HW280083  11.510   7.067   5.216  3.4414  0.7690 -2.8018
25176SOL     OW80084   8.765   2.970   9.387 -0.3340 -0.2270 -0.0089
25176SOL    HW180085   8.841   2.923   9.354 -0.1562  0.3337 -0.4100
25176SOL    HW280086   8.714   2.990   9.308  0.4692  1.7829 -0.0687
25177SOL     OW80087   7.419   0.057   2.013  0.3792  0.4297 -0.7382
25177SOL    HW180088   7.446   0.100   1.932 -0.5554  1.5740 -0.4686
25177SOL    HW280089   7.373   0.125   2.063  1.6327 -0.0043  1.1329
25178SOL     OW80090   6.189   1.028  10.229 -0.0380 -0.1710  0.2115
25178SOL    HW180091   6.269   1.064  10.266 -0.9111  1.0543  1.0074
25178SOL    HW280092   6.214   0.942  10.194  1.6275  0.2573  0.2956
25179SOL     OW80093  10.125  10.810   1.390 -0.0017  0.1603  0.5223
25179SOL    HW180094  10.116  10.897   1.428 -0.5688 -0.1129  1.0376
25179SOL    HW280095  10.177  10.761   1.454  1.5827  0.5106 -0.4393
25180SOL     OW80096   1.864   4.015  11.008 -0.4541  0.3595  0.4975
25180SOL    HW180097   1.912   4.061  10.939 -1.4291 -0.7492 -0.9753
25180SOL    HW280098   1.932   3.978  11.064  0.4004  0.3408 -0.5095
25181SOL     OW80099   1.254  10.623  11.633  0.0917  0.4311  0.3960
25181SOL    HW180100   1.246  10.597  11.542  0.2320  0.0784  0.4837
25181SOL    HW280101   1.177  10.677  11.650 -0.8496 -0.9053  0.5468
25182SOL     OW80102   9.732   2.032   2.210 -0.2555 -0.3579 -0.0778
25182SOL    HW180103   9.656   1.979   2.184  0.5176 -1.3427 -0.3899
25182SOL    HW280104   9.772   1.982   2.282  0.2576  0.0202 -0.0971
25183SOL     OW80105   8.620   3.744   3.022 -0.0870  0.4370  0.3106
25183SOL    HW180106   8.616   3.656   3.060  0.1977 -0.0653 -0.7596
25183SOL    HW280107   8.710   3.751   2.988 -0.9307 -0.0720 -2.3082
25184SOL     OW80108   3.864   7.612   9.034 -0.3655  0.8249 -0.0409
25184SOL    HW180109   3.884   7.642   9.123  0.6984 -0.3124  0.1428
25184SOL    HW280110   3.946   7.625   8.986  0.3590 -2.1701  0.1969
25185SOL     OW80111  10.698  10.373   2.265 -0.2687  0.1813 -0.3162
25185SOL    HW180112  10.649  10.451   2.238 -1.0516  0.7345  2.3635
25185SOL    HW280113  10.790  10.398   2.255 -0.5192  0.9659 -0.7428
25186SOL     OW80114   7.443  10.863   9.949 -0.5511  0.1446  0.0334
25186SOL    HW180115   7.438  10.915   9.868 -1.1717 -1.6162 -1.1109
25186SOL    HW280116   7.421  10.774   9.922  1.8586 -1.0430  1.6556
25187SOL     OW80117   7.544   1.799   7.782  0.1648 -0.5919 -0.2772
25187SOL    HW180118   7.455   1.805   7.747  0.9134  1.3796 -2.0712
25187SOL    HW280119   7.535   1.821   7.875 -1.2323 -0.5185 -0.4162
25188SOL     OW80120   9.839   9.134  11.943  0.1036  0.1671  0.3818
25188SOL    HW180121   9.911   9.078  11.914  0.7471  0.3363  1.6157
25188SOL    HW280122   9.764   9.104  11.892  0.5072 -1.6202  0.7804
25189SOL     OW80123  10.446  11.380  10.879 -0.4671 -0.2195 -0.1623
25189SOL    HW180124  10.464  11.287  10.883  1.4201  0.1232  0.4461
25189SOL    HW280125  10.500  11.412  10.807  1.9297  0.9527  2.0218
25190SOL     OW80126   7.142   4.071   4.524 -0.1269  0.3956 -0.4413
25190SOL    HW180127   7.223   4.118   4.542  0.3603 -0.8544  0.8284
25190SOL    HW280128   7.158   4.026   4.441  1.8323 -2.4940  1.3171
25191SOL     OW80129   8.560   5.999   5.818  0.5404 -0.3970  0.0078
25191SOL    HW180130   8.598   6.070   5.868  2.5147 -1.1734 -0.3118
25191SOL    HW280131   8.635   5.949   5.784 -0.7498 -1.9281 -0.7847
25192SOL     OW80132   7.229  10.938   2.726 -0.2323 -0.0672  0.0718
25192SOL    HW180133   7.159  11.001   2.711  1.0555  1.0982 -1.4236
25192SOL    HW280134   7.207  10.897   2.810 -1.4492  1.9501  0.8095
25193SOL     OW80135   2.743   2.633   4.440 -0.2357  0.1420 -0.7051
25193SOL    HW180136   2.656   2.672   4.427  0.6146  2.6618  0.5318
25193SOL    HW280137   2.789   2.650   4.358  0.0449  1.6519 -0.2695
25194SOL     OW80138   3.863   9.705   6.340  0.4958 -0.5347  0.0293
25194SOL    HW180139   3.788   9.732   6.286 -0.0982 -0.7014  0.7638
25194SOL    HW280140   3.841   9.617   6.370  0.7819 -0.4098  0.6141
25195SOL     OW80141   3.062  11.691  11.975 -0.5577 -0.5307 -0.1145
25195SOL    HW180142   3.138  11.651  11.934  0.4141  0.5326  0.5704
25195SOL    HW280143   3.029  11.753  11.910 -0.9164 -1.0996 -0.4680
25196SOL     OW80144   4.769  10.572  10.837 -0.0945  0.3346 -0.0178
25196SOL    HW180145   4.794  10.663  10.849  0.8346  0.1158 -0.2171
25196SOL    HW280146   4.697  10.575  10.774 -0.3169  0.9521  0.2611
25197SOL     OW80147   1.643   3.339   4.927 -0.1468  0.2475  0.4232
25197SOL    HW180148   1.552   3.369   4.932 -0.9419 -2.2006  2.6169
25197SOL    HW280149   1.655   3.283   5.004  2.7075 -0.9104 -0.7031
25198SOL     OW80150  11.675   4.025   9.315  0.3539  0.1247  0.2321
25198SOL    HW180151  11.663   3.962   9.244  0.4621  0.8355 -0.4352
25198SOL    HW280152  11.608   4.092   9.299 -0.5609 -0.4223  1.6292
25199SOL     OW80153   5.736   4.323   7.191  0.6922 -0.2103 -0.1852
25199SOL    HW180154   5.730   4.276   7.108 -0.2712 -0.0159 -0.2337
25199SOL    HW280155   5.723   4.415   7.168 -0.3963 -0.2352  0.2671
25200SOL     OW80156   6.174   8.569   0.466  0.2167  0.2269  0.4844
25200SOL    HW180157   6.225   8.496   0.500 -1.8088 -1.0498  0.8785
25200SOL    HW280158   6.129   8.534   0.389 -1.5232  0.7505  1.2260
25201SOL     OW80159   4.496   1.608   8.218 -0.3603  0.3437  0.4506
25201SOL    HW180160   4.571   1.549   8.225  0.0707  1.0816  2.6330
25201SOL    HW280161   4.514   1.659   8.138  0.1485 -1.2015 -0.4696
25202SOL     OW80162   8.907   7.997   6.476 -0.5053 -0.0709 -0.0949
25202SOL    HW180163   8.860   8.052   6.539  1.5012  3.6338 -1.5001
25202SOL    HW280164   8.863   8.013   6.392  0.2668 -0.4505 -0.5817
25203SOL     OW80165   2.651  10.317  10.189  0.4613  0.3798 -0.4025
25203SOL    HW180166   2.600  10.351  10.262  1.8592  0.9659  0.3515
25203SOL    HW280167   2.586  10.293  10.123 -0.8817 -0.6634  1.2204
25204SOL     OW80168   3.419   7.097   9.298  0.0215 -0.5906  0.0027
25204SOL    HW180169   3.509   7.112   9.270 -0.2921  2.6967  0.3182
25204SOL    HW280170   3.371   7.082   9.217  0.6531 -1.0868 -0.2825
25205SOL     OW80171   8.108   1.396   2.225  0.0848 -0.5216 -0.4168
25205SOL    HW180172   8.168   1.349   2.167 -0.0410 -0.3015 -0.7233
25205SOL    HW280173   8.039   1.333   2.244  1.3045 -1.4140  1.3804
25206SOL     OW80174   5.007   0.696   0.068  0.5517 -0.2428 -0.2158
25206SOL    HW180175   4.966   0.637   0.131  0.0396 -0.2059 -0.5081
25206SOL    HW280176   5.101   0.684   0.082  0.4489 -0.3161  0.4762
25207SOL     OW80177   8.351  10.558   3.536  0.4416  0.4624 -0.4717
25207SOL    HW180178   8.436  10.545   3.494  1.7778  0.0235  2.1879
25207SOL    HW280179   8.337  10.652   3.536  0.3612  0.4729 -1.8783
25208SOL     OW80180  11.488  10.981  10.389 -0.7963  0.0405  0.2872
25208SOL    HW180181  11.423  10.947  10.450 -1.8036  1.4059  0.0140
25208SOL    HW280182  11.551  11.027  10.444 -2.6538  2.8127  0.2505
25209SOL     OW80183   4.130   8.278   4.079 -0.3876 -0.1005 -0.4124
25209SOL    HW180184   4.095   8.189   4.092  0.3386 -0.2160  0.9635
25209SOL    HW280185   4.063   8.335   4.118 -0.1290 -0.1676  0.1469
25210SOL     OW80186   2.282   3.601   5.949 -0.3717 -0.4196 -0.9251
25210SOL    HW180187   2.272   3.645   6.034  0.9651  0.7850 -1.3546
25210SOL    HW280188   2.368   3.560   5.953 -0.6088 -0.9785 -1.4488
25211SOL     OW80189   1.732   0.072   8.814 -0.7270  0.1472  0.1643
25211SOL    HW180190   1.800   0.110   8.758 -0.9035 -0.9225 -0.8202
25211SOL    HW280191   1.732   0.127   8.892  1.0966  0.3264  0.0868
25212SOL     OW80192   0.447   3.103   7.541  0.5063 -0.2486  0.3425
25212SOL    HW180193   0.370   3.063   7.500  0.4727  1.0633 -0.9473
25212SOL    HW280194   0.411   3.160   7.609  0.5104 -1.4875  1.4546
25213SOL     OW80195   5.318   8.254   6.846 -0.3667 -0.2632 -0.0891
25213SOL    HW180196   5.283   8.343   6.846 -2.3273 -0.9874 -0.6779
25213SOL    HW280197   5.348   8.240   6.757 -1.7651 -0.7902 -0.5002
25214SOL     OW80198   0.334   0.988   6.919  0.3235  0.0279 -0.1703
25214SOL    HW180199   0.282   1.028   6.849  1.0036  2.0218  0.3858
25214SOL    HW280200   0.410   0.951   6.875  1.0011  1.7195 -0.4839
25215SOL     OW80201  11.443   1.416   0.521 -0.7146 -0.1364 -0.1023
25215SOL    HW180202  11.504   1.377   0.458 -0.7565  0.6478 -0.6450
25215SOL    HW280203  11.496   1.432   0.599 -0.0857  0.9834 -0.7369
25216SOL     OW80204   7.177   0.967   8.219 -0.0549 -0.6483 -0.4549
25216SOL    HW180205   7.219   1.014   8.291 -1.4092  1.2175 -0.7810
25216SOL    HW280206   7.231   0.986   8.142  0.1284 -0.6998 -0.3363
25217SOL     OW80207   3.530  11.376   2.645  0.5402  0.2851 -0.0565
25217SOL    HW180208   3.512  11.321   2.568 -0.6780 -0.4095  0.6904
25217SOL    HW280209   3.447  11.420   2.663  0.9730  0.8884  0.5258
25218SOL     OW80210   4.392   0.647   7.250 -0.0056  0.3146 -0.0958
25218SOL    HW180211   4.362   0.560   7.276 -0.4734  0.0789 -1.3889
25218SOL    HW280212   4.480   0.632   7.215 -0.4026  0.2199 -1.0835
25219SOL     OW80213   4.735   0.645  10.142  0.3865  0.2373 -0.5578
25219SOL    HW180214   4.643   0.621  10.147  0.5743 -0.4236 -0.0287
25219SOL    HW280215   4.768   0.597  10.066 -0.2034  2.3023 -2.2024
25220SOL     OW80216   6.995  10.295   6.671  0.1180  0.2529 -0.2648
25220SOL    HW180217   6.968  10.209   6.705  0.8660  1.3743  3.6233
25220SOL    HW280218   6.915  10.348   6.674  0.0921  0.2452 -0.7449
25221SOL     OW80219   8.310   7.645   6.195  0.1783 -0.7075  0.3151
25221SOL    HW180220   8.250   7.667   6.266  1.5699  0.7100  1.1202
25221SOL    HW280221   8.272   7.686   6.118 -1.0754 -1.8030  0.3227
25222SOL     OW80222   3.594   6.985   4.909 -0.3284 -0.4817 -0.3586
25222SOL    HW180223   3.503   7.004   4.887 -0.8334 -1.3053  0.9121
25222SOL    HW280224   3.589   6.920   4.979  1.2043  0.6213  0.8504
25223SOL     OW80225  10.745   2.128   2.974 -0.4397 -0.0711 -0.0499
25223SOL    HW180226  10.691   2.184   2.918  1.0387 -1.0884 -2.6284
25223SOL    HW280227  10.716   2.039   2.954  0.2925 -0.4832  0.6396
25224SOL     OW80228   2.854   2.357   7.237 -0.2856  0.4371  0.0018
25224SOL    HW180229   2.827   2.380   7.147 -0.4586 -0.1489 -0.1046
25224SOL    HW280230   2.943   2.323   7.227  0.1816  1.5559  0.2347
25225SOL     OW80231   1.577  11.612   9.346  0.1794 -0.4461 -0.3440
25225SOL    HW180232   1.566  11.540   9.409  0.1087 -0.1327  0.0109
25225SOL    HW280233   1.596  11.689   9.401 -1.8656  0.2758 -0.5390
25226SOL     OW80234   6.620   6.192   2.751 -0.0456  0.5050  0.3914
25226SOL    HW180235   6.565   6.118   2.776  1.4679 -0.3652  1.2213
25226SOL    HW280236   6.558   6.264   2.738 -1.4063 -0.5132  1.0144
25227SOL     OW80237   1.876  10.261   9.842 -0.1020 -0.2094 -0.1986
25227SOL    HW180238   1.918  10.195   9.898  1.2932  1.0891  0.3591
25227SOL    HW280239   1.943  10.285   9.779 -0.3661  1.0902 -0.0117
25228SOL     OW80240  12.102   1.812   9.681 -0.2916 -0.1309 -0.2262
25228SOL    HW180241  12.148   1.737   9.643 -1.1728 -0.1275 -1.3572
25228SOL    HW280242  12.041   1.839   9.612 -3.0640 -1.0627  1.6981
25229SOL     OW80243   7.300  11.221  11.227  0.3060 -0.0910 -0.1737
25229SOL    HW180244   7.217  11.175  11.211  0.7815  0.0519 -3.7441
25229SOL    HW280245   7.339  11.174  11.302 -2.3340 -0.9893  0.7557
25230SOL     OW80246   3.223   1.988   8.530 -0.0301 -0.1096  0.0925
25230SOL    HW180247   3.258   1.933   8.461 -0.3782 -0.5584  0.2682
25230SOL    HW280248   3.137   2.016   8.498  0.2434  0.5413 -0.1028
25231SOL     OW80249   9.983   7.405   3.549  0.4705 -0.2637  0.3179
25231SOL    HW180250   9.939   7.489   3.534 -0.6139 -0.9348 -0.4218
25231SOL    HW280251   9.987   7.397   3.644 -1.1280 -0.2172  0.4224
25232SOL     OW80252   3.150   9.682   0.634  0.1264 -0.1235 -0.3209
25232SOL    HW180253   3.218   9.614   0.630  1.9613  1.5530  0.4680
25232SOL    HW280254   3.116   9.675   0.723 -0.9916 -1.1438 -0.8006
25233SOL     OW80255  11.727   4.250   4.485  0.4914  0.0087 -0.7893
25233SOL    HW180256  11.696   4.204   4.563 -0.2358  2.7411  0.6684
25233SOL    HW280257  11.657   4.312   4.464  1.5416  0.7283 -2.4303
25234SOL     OW80258  11.963  10.230   5.706  0.2932 -0.4984 -0.1952
25234SOL    HW180259  11.890  10.252   5.649  1.0455  3.2024 -0.0041
25234SOL    HW280260  11.929  10.244   5.795  0.7719 -0.4228 -0.0215
25235SOL     OW80261   6.204  10.329   7.775 -0.1552 -0.6265  0.2652
25235SOL    HW180262   6.198  10.331   7.871 -0.2267 -0.8894  0.2683
25235SOL    HW280263   6.238  10.415   7.751  1.4922 -1.1411  0.6353
25236SOL     OW80264   9.329   7.643  11.999  1.0711  0.0702  0.0281
25236SOL    HW180265   9.359   7.553  12.001  0.1252 -0.2562 -0.0258
25236SOL    HW280266   9.321   7.664  11.906  2.6233  0.6960 -0.0125
25237SOL     OW80267   1.915   8.506   5.232  0.3037  0.0137  0.1009
25237SOL    HW180268   2.009   8.496   5.216  0.3219 -0.2020  0.3467
25237SOL    HW280269   1.881   8.417   5.233 -0.2975  0.1299 -2.2911
25238SOL     OW80270   6.782   0.257   5.692  0.5712  0.4843  0.0509
25238SOL    HW180271   6.804   0.338   5.738 -0.0140  1.2948 -1.0535
25238SOL    HW280272   6.861   0.204   5.700  0.8694  1.0456  1.0280
25239SOL     OW80273   9.110   1.221   0.411  0.5632 -0.3126 -0.0728
25239SOL    HW180274   9.074   1.240   0.497  0.3726  0.1766 -0.2581
25239SOL    HW280275   9.178   1.287   0.398  0.7874 -0.5615 -0.1760
25240SOL     OW80276   6.551   5.067   1.847  0.1913  0.4372  0.1020
25240SOL    HW180277   6.475   5.121   1.827  0.2802  0.6336  0.2874
25240SOL    HW280278   6.520   5.003   1.910 -0.6713 -1.6251 -2.2552
25241SOL     OW80279   7.120   3.344   7.261  0.0191  0.2162 -0.2200
25241SOL    HW180280   7.093   3.298   7.182 -1.3297 -0.0567  0.3873
25241SOL    HW280281   7.124   3.277   7.328 -2.2540  0.9595  0.7468
25242SOL     OW80282   4.418   8.176   5.832 -0.1480 -0.4169 -0.1779
25242SOL    HW180283   4.352   8.215   5.775 -0.5606  0.3944  0.8057
25242SOL    HW280284   4.372   8.162   5.915  1.2476  1.5977  1.0329
25243SOL     OW80285  11.588  11.094   0.867 -0.2994 -0.4251 -0.1579
25243SOL    HW180286  11.500  11.126   0.883 -0.6095 -2.3470  2.9025
25243SOL    HW280287  11.576  11.005   0.834  0.4981 -0.2826 -0.8598
25244SOL     OW80288   3.439  10.606   0.047  0.5479  0.1368  0.2099
25244SOL    HW180289   3.490  10.581   0.125 -1.4064  0.6974  1.7442
25244SOL    HW280290   3.465  10.697   0.030 -1.1170  1.0205  2.0604
25245SOL     OW80291  10.376   4.598   6.389 -0.1674  0.8605 -0.0936
25245SOL    HW180292  10.322   4.556   6.322 -0.9748  2.5996 -0.5745
25245SOL    HW280293  10.314   4.622   6.457  0.7270 -1.5712  1.7572
25246SOL     OW80294   0.363   6.739   9.496 -0.0611  0.5092  0.0263
25246SOL    HW180295   0.320   6.716   9.414 -0.3621 -0.0504  0.3307
25246SOL    HW280296   0.387   6.831   9.486 -0.3078  0.5096 -0.5955
25247SOL     OW80297   3.548   1.556   3.490 -0.0646  0.4989 -0.5019
25247SOL    HW180298   3.474   1.614   3.510  0.6622  1.4727 -0.5935
25247SOL    HW280299   3.618   1.586   3.547  0.4627  0.0047 -0.8813
25248SOL     OW80300   3.412  11.439   7.805  0.1295  0.3772 -0.3639
25248SOL    HW180301   3.490  11.463   7.754 -0.4861  0.9022 -1.0755
25248SOL    HW280302   3.340  11.443   7.743 -0.8219  2.1168  0.7598
25249SOL     OW80303   3.092  10.950   2.561  0.2533  0.1026 -0.1609
25249SOL    HW180304   3.078  10.909   2.647 -0.0176  0.5056 -0.0114
25249SOL    HW280305   3.178  10.991   2.568  0.4763 -0.3388 -0.2724
25250SOL     OW80306   3.605  11.456   6.168 -0.0761 -0.1436 -0.5219
25250SOL    HW180307   3.648  11.391   6.113  0.6377  0.7171 -1.0146
25250SOL    HW280308   3.558  11.512   6.105 -0.1593  0.1950 -0.1616
25251SOL     OW80309   0.348   6.874  10.338  0.2805  0.9494 -0.7515
25251SOL    HW180310   0.370   6.800  10.282 -0.2623  2.0885 -2.5500
25251SOL    HW280311   0.412   6.870  10.409 -0.5736 -2.0233  0.0047
25252SOL     OW80312   8.949   4.263   7.971 -0.0409 -0.1883 -0.2373
25252SOL    HW180313   8.946   4.201   8.044 -1.2305 -1.2554 -1.1450
25252SOL    HW280314   8.994   4.216   7.901 -0.3243  0.2321 -0.7093
25253SOL     OW80315   8.270   0.448   7.456 -0.1682  0.0751  0.3097
25253SOL    HW180316   8.336   0.399   7.409  0.5606  1.7155 -0.4280
25253SOL    HW280317   8.270   0.409   7.544  2.2065  0.4320  0.5177
25254SOL     OW80318  11.281   0.731   8.781 -0.0268  0.2804  0.2281
25254SOL    HW180319  11.337   0.808   8.768  0.7545 -0.5160 -1.4214
25254SOL    HW280320  11.200   0.752   8.734  0.4043 -0.0938 -0.7171
25255SOL     OW80321  10.176   8.062   7.023  0.1987  0.0410  0.2360
25255SOL    HW180322  10.217   7.981   6.993  1.7057  0.0136  2.1720
25255SOL    HW280323  10.096   8.033   7.068  0.2234 -0.2930  0.0661
25256SOL     OW80324   1.635   1.050  11.950  0.1808 -0.4013  0.0606
25256SOL    HW180325   1.679   1.115  12.004  0.5411  1.8093 -2.6415
25256SOL    HW280326   1.544   1.079  11.947 -0.3276 -1.7639  1.1466
25257SOL     OW80327  10.168   2.938  10.585 -0.1720 -0.0817  0.2998
25257SOL    HW180328  10.253   2.982  10.582  0.3814 -1.0926  0.7195
25257SOL    HW280329  10.189   2.844  10.579 -1.3510 -0.2880 -1.1857
25258SOL     OW80330   1.713   3.064   2.320  0.5397 -0.0852  0.5588
25258SOL    HW180331   1.805   3.088   2.325  0.0132  2.0613  1.1462
25258SOL    HW280332   1.713   2.969   2.310  2.8303 -0.0329 -0.7365
25259SOL     OW80333   2.299   8.727  10.989  0.0751  0.2597 -0.0717
25259SOL    HW180334   2.316   8.744  11.082  0.4538  0.0364 -0.0994
25259SOL    HW280335   2.330   8.806  10.945  1.1346 -0.1688 -0.1277
25260SOL     OW80336   4.049  10.879   8.464  0.3386  0.2317  0.5544
25260SOL    HW180337   4.063  10.802   8.409 -0.0960 -0.2297  1.0745
25260SOL    HW280338   4.024  10.948   8.402 -0.1869 -0.2853  0.1678
25261SOL     OW80339   8.272   7.231   5.646  0.2434 -0.2055  0.0230
25261SOL    HW180340   8.222   7.208   5.724 -2.3536 -0.0678 -1.4852
25261SOL    HW280341   8.282   7.148   5.598 -1.5942  0.2673 -1.2861
25262SOL     OW80342   6.422   4.471  11.352  0.5622 -0.4297  0.2501
25262SOL    HW180343   6.476   4.425  11.287  1.0749  1.9473 -1.1091
25262SOL    HW280344   6.485   4.507  11.414  0.5625  1.5731 -0.8284
25263SOL     OW80345   9.711   6.682   3.417 -0.3155 -0.3287 -0.2450
25263SOL    HW180346   9.775   6.740   3.376 -0.3657 -0.3933 -0.4160
25263SOL    HW280347   9.645   6.668   3.349  0.6750 -2.1404 -0.8820
25264SOL     OW80348   8.391   5.912  10.200 -0.3183  0.6404 -0.4891
25264SOL    HW180349   8.368   5.902  10.292 -0.4849  1.1415 -0.4734
25264SOL    HW280350   8.390   6.007  10.185 -0.3829  0.5589 -1.0290
25265SOL     OW80351   3.891   1.115   7.861 -0.1620 -0.2262  0.2498
25265SOL    HW180352   3.821   1.084   7.803 -0.1086 -0.4241  0.2903
25265SOL    HW280353   3.865   1.205   7.883 -0.1970 -0.1572 -0.0559
25266SOL     OW80354   9.967   5.737   4.180 -0.4422 -0.3091  0.0592
25266SOL    HW180355   9.959   5.723   4.086  2.7710  1.8862 -0.7434
25266SOL    HW280356   9.927   5.823   4.196  0.8465  0.2866  0.2335
25267SOL     OW80357  11.429  11.724   4.966 -0.5273 -0.2714 -0.6283
25267SOL    HW180358  11.362  11.656   4.961 -0.3177 -0.4648 -0.8522
25267SOL    HW280359  11.421  11.760   5.054 -0.2724 -0.9590 -0.3204
25268SOL     OW80360  11.813   0.408   9.839 -0.6056 -0.0112  0.5096
25268SOL    HW180361  11.805   0.438   9.748  0.1166  1.4885  0.9115
25268SOL    HW280362  11.762   0.327   9.842 -0.2994 -0.3109 -1.3304
25269SOL     OW80363   1.788   2.773   7.141 -0.3327 -0.1767 -0.0876
25269SOL    HW180364   1.740   2.814   7.213 -1.7156  0.2573 -1.2250
25269SOL    HW280365   1.754   2.683   7.138 -1.5672  0.3020 -1.2752
25270SOL     OW80366   4.093   1.878   1.456 -0.0563 -0.4077  0.2210
25270SOL    HW180367   4.050   1.949   1.505 -0.6836  0.4254 -1.4417
25270SOL    HW280368   4.186   1.897   1.464 -0.2336  1.3901 -1.1982
25271SOL     OW80369   9.994   0.950   2.971  0.1272  0.3650 -0.7354
25271SOL    HW180370   9.996   0.870   2.918  1.9662 -1.2720  1.6093
25271SOL    HW280371  10.085   0.964   2.997 -0.3685  2.4778  0.0494
25272SOL     OW80372   0.540  10.002   1.940 -0.4171  0.3086 -0.0627
25272SOL    HW180373   0.593   9.925   1.917 -2.7386 -0.9873 -1.3924
25272SOL    HW280374   0.565  10.068   1.876 -0.0178 -0.0902 -0.3275
25273SOL     OW80375   6.721   2.155   8.970 -0.1894 -0.2061 -0.1984
25273SOL    HW180376   6.755   2.217   8.906  0.5000 -0.7179 -0.3418
25273SOL    HW280377   6.756   2.185   9.054 -1.9012  1.0495  0.1216
25274SOL     OW80378  10.551  10.292   0.104 -0.2285  0.1807 -0.6616
25274SOL    HW180379  10.592  10.231   0.164  0.0095  1.7532  0.8643
25274SOL    HW280380  10.602  10.285   0.023  1.6263  0.4464  0.4511
25275SOL     OW80381   0.699   2.508   5.657  0.2988  0.0118  0.0063
25275SOL    HW180382   0.794   2.507   5.649  0.4856  0.5014  1.7645
25275SOL    HW280383   0.673   2.416   5.644  0.8932 -0.0054 -1.2755
25276SOL     OW80384   5.034  12.040   3.218 -0.0190  0.4482 -0.0489
25276SOL    HW180385   4.979  12.116   3.238 -0.1507  0.1563  0.7377
25276SOL    HW280386   5.118  12.078   3.190  0.2358  0.8815  1.2558
25277SOL     OW80387   3.272  12.088   6.529 -0.4728 -0.2045 -0.9155
25277SOL    HW180388   3.254  12.143   6.453  1.3317  0.4297 -0.9289
25277SOL    HW280389   3.367  12.077   6.529 -0.4407 -0.3541  1.1456
25278SOL     OW80390   5.925  10.532   4.067 -0.1700 -0.0159 -0.0138
25278SOL    HW180391   5.970  10.482   4.000 -0.2165 -2.0104  1.3623
25278SOL    HW280392   5.884  10.466   4.123  1.0909  1.4653  2.8467
25279SOL     OW80393  10.547   9.206   2.423 -0.0651 -0.7526  0.2985
25279SOL    HW180394  10.539   9.295   2.388  1.0218 -0.2290  1.3102
25279SOL    HW280395  10.587   9.156   2.352 -0.2611 -0.3413 -0.1120
25280SOL     OW80396   9.743   8.963   2.405 -0.0267  0.1441 -0.0703
25280SOL    HW180397   9.696   8.921   2.333 -0.8219 -0.1091  0.5784
25280SOL    HW280398   9.733   8.903   2.479  1.2127  0.1559  0.1294
25281SOL     OW80399   8.669   7.092   1.694 -0.1045  0.4231  0.0057
25281SOL    HW180400   8.718   7.152   1.749  1.1668 -0.8030  0.2674
25281SOL    HW280401   8.610   7.047   1.755 -1.3176  1.6140 -0.2464
25282SOL     OW80402  10.603   6.841   3.176 -0.4117 -0.1687  0.2470
25282SOL    HW180403  10.586   6.803   3.090 -0.0498 -0.7618  0.4258
25282SOL    HW280404  10.539   6.911   3.185 -1.7508 -1.3654  0.3036
25283SOL     OW80405   6.312   2.948  11.142 -0.3178 -0.0660 -0.1834
25283SOL    HW180406   6.350   3.031  11.170  0.8002  0.2360 -2.3142
25283SOL    HW280407   6.387   2.889  11.136 -0.4567 -0.1249 -2.2263
25284SOL     OW80408   0.705   8.944   4.266  0.0979  0.3153 -0.3589
25284SOL    HW180409   0.726   8.863   4.313 -0.7752  0.8387  0.9857
25284SOL    HW280410   0.778   9.002   4.284  0.8356 -0.2236 -1.5105
25285SOL     OW80411   6.146   8.473   4.595  0.0558  0.2940  0.3612
25285SOL    HW180412   6.074   8.515   4.641 -1.4465  1.5378 -2.8261
25285SOL    HW280413   6.115   8.384   4.579  0.0167  0.2675  0.5784
25286SOL     OW80414   6.653  11.501   0.974  0.0188 -0.4850  0.2528
25286SOL    HW180415   6.630  11.478   1.064  0.7626  0.8480  0.8114
25286SOL    HW280416   6.649  11.597   0.972  2.5003 -0.3435 -0.4316
25287SOL     OW80417   9.942   0.124   6.681 -0.4809  0.0870  0.8143
25287SOL    HW180418   9.873   0.141   6.745  1.4687  0.9620  2.7808
25287SOL    HW280419  10.020   0.167   6.716  0.9528 -0.2872 -1.6498
25288SOL     OW80420   1.334   5.398   8.414 -0.2529 -0.0034 -0.8030
25288SOL    HW180421   1.305   5.455   8.343 -0.4146 -0.9081 -1.4720
25288SOL    HW280422   1.412   5.441   8.450 -0.6370  0.8681 -0.9918
25289SOL     OW80423   6.755   1.942   0.383  0.0378  0.3725  0.7244
25289SOL    HW180424   6.691   1.945   0.454 -1.5444  1.5426 -0.6707
25289SOL    HW280425   6.815   2.015   0.403  2.3020 -1.9026  3.1025
25290SOL     OW80426   3.494   1.792  10.825  0.2410  0.1918 -0.0203
25290SOL    HW180427   3.489   1.845  10.745 -0.3277 -1.4061 -1.0793
25290SOL    HW280428   3.408   1.751  10.832 -0.9666  2.7606  3.2695
25291SOL     OW80429   3.488   9.416  10.757 -0.4464 -0.1942  0.5974
25291SOL    HW180430   3.407   9.391  10.711 -1.5163  1.7751  1.2956
25291SOL    HW280431   3.465   9.410  10.850  0.7112 -1.0415  0.8551
25292SOL     OW80432   7.102   4.670   2.537 -0.0825 -0.5711  0.3245
25292SOL    HW180433   7.033   4.704   2.481  0.3506  0.1044  0.1823
25292SOL    HW280434   7.180   4.671   2.482  0.5804  1.1186  1.2235
25293SOL     OW80435   2.741   9.008  11.362  0.9491  0.1172  0.8069
25293SOL    HW180436   2.665   8.960  11.330 -0.0164  0.7818  2.0042
25293SOL    HW280437   2.784   9.041  11.283 -0.0171 -0.2694  0.1039
25294SOL     OW80438   0.996   8.556  10.251 -0.0035 -0.1989  0.3218
25294SOL    HW180439   0.924   8.495  10.235 -0.4941  0.5308 -0.3335
25294SOL    HW280440   1.049   8.553  10.171 -0.6950  1.0984 -0.2196
25295SOL     OW80441   7.084   1.183   2.573 -0.5961  1.0941 -0.4012
25295SOL    HW180442   7.079   1.174   2.668 -0.4101  2.9376 -0.1874
25295SOL    HW280443   7.121   1.099   2.543 -0.0361  0.7405  1.1993
25296SOL     OW80444   2.512   0.847   5.057  0.0473 -0.4831 -0.4572
25296SOL    HW180445   2.561   0.775   5.017  1.9800  0.7532 -0.4225
25296SOL    HW280446   2.477   0.897   4.983  2.4055  0.9760 -0.6889
25297SOL     OW80447  10.821   5.444   0.601  0.3968 -0.4589  0.1201
25297SOL    HW180448  10.825   5.431   0.696  0.3934  1.6643  0.4519
25297SOL    HW280449  10.911   5.435   0.571  0.6318  0.3081  0.5638
25298SOL     OW80450   2.845   1.664   7.503  0.0148  0.2347  0.0056
25298SOL    HW180451   2.926   1.714   7.496  0.0550  0.0641 -0.8896
25298SOL    HW280452   2.863   1.598   7.571  0.0078  1.3055  1.0738
25299SOL     OW80453   1.629   3.717   6.870  0.3429 -0.1196 -0.5546
25299SOL    HW180454   1.604   3.719   6.777  1.2806  2.1270 -0.8043
25299SOL    HW280455   1.551   3.749   6.916 -0.0568 -1.0544 -0.5550
25300SOL     OW80456   7.469   9.736   7.636 -0.1417 -0.1148  0.0053
25300SOL    HW180457   7.475   9.644   7.614 -0.1154  0.3818 -2.3172
25300SOL    HW280458   7.408   9.772   7.571  0.7046  1.6903  0.1572
25301SOL     OW80459  11.565   4.749   0.928  0.1867 -0.0175  0.5092
25301SOL    HW180460  11.549   4.681   0.994  1.1871 -0.5494  0.2195
25301SOL    HW280461  11.482   4.797   0.923 -0.5517 -1.2288  0.6973
25302SOL     OW80462   3.944   6.683   9.896  0.0961 -0.3621 -0.4147
25302SOL    HW180463   3.861   6.724   9.923 -0.4165 -0.3509 -1.9364
25302SOL    HW280464   3.996   6.755   9.860 -0.9156 -0.9941 -3.3573
25303SOL     OW80465  10.888  12.059   0.913  0.5456  0.1448 -0.2584
25303SOL    HW180466  10.906  11.966   0.898  1.1694  0.2405 -0.1475
25303SOL    HW280467  10.974  12.100   0.910  0.1176  0.9603 -1.9478
25304SOL     OW80468   3.110   8.031   2.154  0.5120  0.5368  0.1310
25304SOL    HW180469   3.150   8.112   2.186 -0.5070  1.0232  0.2062
25304SOL    HW280470   3.184   7.974   2.134  1.2241  0.5690  2.4006
25305SOL     OW80471   9.063   2.603   4.361 -0.6196  0.6882  0.2198
25305SOL    HW180472   9.063   2.699   4.366 -1.9528  0.8247 -1.6874
25305SOL    HW280473   8.989   2.576   4.415 -0.6097  0.7690  0.2738
25306SOL     OW80474   2.594   6.772   1.915 -0.2186 -0.8034  0.2177
25306SOL    HW180475   2.520   6.729   1.873 -0.1683 -0.7398  0.0647
25306SOL    HW280476   2.560   6.858   1.940 -0.1975 -0.7770  0.1541
25307SOL     OW80477   5.200   3.466   4.215  0.0587  0.3832 -0.4458
25307SOL    HW180478   5.190   3.522   4.137 -1.4100 -1.3695 -1.5934
25307SOL    HW280479   5.271   3.407   4.191 -0.5046 -0.2625 -0.5406
25308SOL     OW80480   1.499   1.825   2.386 -0.3347  0.0406 -0.3235
25308SOL    HW180481   1.439   1.898   2.403  1.6310  1.3009  1.6978
25308SOL    HW280482   1.549   1.852   2.309 -0.1850  0.4543 -0.0831
25309SOL     OW80483   7.962   2.502   6.755 -0.4680  0.3124 -0.3478
25309SOL    HW180484   7.913   2.429   6.717 -0.2556 -0.1073  0.1654
25309SOL    HW280485   8.047   2.463   6.778 -0.2714  0.7806 -0.2745
25310SOL     OW80486   9.254   0.275   2.623 -0.2150 -0.0756  0.6167
25310SOL    HW180487   9.184   0.226   2.579 -0.5143  0.7508  0.1309
25310SOL    HW280488   9.210   0.353   2.658 -0.0718 -0.9500  2.8577
25311SOL     OW80489   8.679   6.448   1.763 -0.3887  0.1076 -0.0664
25311SOL    HW180490   8.682   6.444   1.859 -1.8666 -1.6185 -0.0305
25311SOL    HW280491   8.599   6.496   1.743 -0.3550  0.0118 -0.4333
25312SOL     OW80492   0.952   8.025   5.123  0.2647  0.3224  0.3983
25312SOL    HW180493   0.988   7.936   5.119 -0.2261  0.1511 -0.2537
25312SOL    HW280494   1.005   8.068   5.190  1.0392 -0.2224  0.1616
25313SOL     OW80495   5.496   0.404   3.994  0.1435  0.3256 -0.5024
25313SOL    HW180496   5.591   0.410   3.981  0.1765  1.9447  0.1413
25313SOL    HW280497   5.485   0.415   4.089 -0.7157  1.0605 -0.6724
25314SOL     OW80498  11.374  11.224   1.964  0.2293  0.4265  0.2558
25314SOL    HW180499  11.424  11.147   1.992  2.9600  1.3485 -1.6182
25314SOL    HW280500  11.289  11.215   2.007 -0.6147 -4.9131 -1.7051
25315SOL     OW80501  10.029   9.763   1.504 -0.0206  0.0556  0.2707
25315SOL    HW180502  10.053   9.674   1.532  0.7113  0.3756  0.6731
25315SOL    HW280503  10.112   9.811   1.502 -0.1763  0.3061 -1.5342
25316SOL     OW80504   1.186   3.442   6.143  0.0489  0.1745  0.2618
25316SOL    HW180505   1.252   3.494   6.189  1.0747 -0.1659 -0.7830
25316SOL    HW280506   1.184   3.478   6.054 -1.8745  0.7994  0.4997
25317SOL     OW80507   7.817   9.948  10.282 -0.1883 -0.4088  0.1880
25317SOL    HW180508   7.799   9.854  10.283 -3.5387  0.1411  0.6070
25317SOL    HW280509   7.913   9.954  10.280  0.1040 -3.8014 -1.2777
25318SOL     OW80510   7.399   7.793  10.989 -0.8572  0.0308 -0.2243
25318SOL    HW180511   7.411   7.756  11.077  1.2257 -1.4482 -1.0455
25318SOL    HW280512   7.451   7.873  10.989  1.0416 -1.1371 -0.7198
25319SOL     OW80513   2.428   5.259   6.467  0.7980  0.0209 -0.4072
25319SOL    HW180514   2.411   5.301   6.382 -1.3590  1.9912  0.8713
25319SOL    HW280515   2.381   5.314   6.530  0.7913 -2.4194  1.8675
25320SOL     OW80516   5.881   7.651  10.231 -0.0069  0.2228 -0.5061
25320SOL    HW180517   5.883   7.718  10.162 -0.4791 -0.4417 -1.1761
25320SOL    HW280518   5.808   7.677  10.287 -0.2084  0.2415 -0.7791
25321SOL     OW80519  10.905   4.210   2.756  0.0559 -0.4224 -0.0169
25321SOL    HW180520  10.969   4.270   2.794 -0.7602  1.5242 -1.5528
25321SOL    HW280521  10.890   4.243   2.668 -0.4095 -2.9688 -0.9916
25322SOL     OW80522   2.458  11.323  12.117 -0.1398  0.0554  0.4008
25322SOL    HW180523   2.494  11.333  12.206 -2.2884  1.9390  1.1675
25322SOL    HW280524   2.535  11.305  12.062  1.9006  2.7961  2.0564
25323SOL     OW80525   5.948   7.858   9.769  0.2974  0.2679  0.1237
25323SOL    HW180526   6.030   7.864   9.718  0.5426 -1.2335  0.2953
25323SOL    HW280527   5.879   7.872   9.704  0.6641  1.6569 -0.0075
25324SOL     OW80528  10.013   2.999   5.414 -0.2514 -0.0977  0.2179
25324SOL    HW180529  10.048   3.083   5.383 -0.8128  0.3762  0.8336
25324SOL    HW280530   9.952   2.971   5.346 -0.3652  0.1937  0.1980
25325SOL     OW80531   5.848  10.190   9.814 -0.1974  0.8158 -0.4536
25325SOL    HW180532   5.842  10.099   9.841 -2.1805  1.5371  1.8675
25325SOL    HW280533   5.942  10.205   9.800  0.2068 -1.4114 -0.4207
25326SOL     OW80534   4.568   6.170   6.117 -0.1179 -0.1249  0.0306
25326SOL    HW180535   4.482   6.206   6.138 -1.4852 -2.8470 -0.3919
25326SOL    HW280536   4.555   6.125   6.034  1.7477 -0.5289 -0.0768
25327SOL     OW80537   0.698   0.109   2.255 -0.8693 -0.4652  0.0446
25327SOL    HW180538   0.664   0.158   2.329 -0.4437 -0.0540 -0.0287
25327SOL    HW280539   0.673   0.161   2.178 -3.9630 -2.3500 -0.3943
25328SOL     OW80540   3.604   1.209   9.111 -0.4929  0.0936 -0.1154
25328SOL    HW180541   3.648   1.133   9.074  0.4141  0.5466  0.0220
25328SOL    HW280542   3.654   1.285   9.080  0.8691  0.4667  2.7199
25329SOL     OW80543   4.882  10.713   3.121  0.1123  0.3836  0.2660
25329SOL    HW180544   4.885  10.695   3.027 -0.6047 -0.2630  0.3550
25329SOL    HW280545   4.818  10.783   3.130 -0.2906  0.0103  0.3286
25330SOL     OW80546   4.403   7.316   5.113 -0.2671 -0.1431 -0.5152
25330SOL    HW180547   4.335   7.340   5.050 -1.3469 -0.3081  0.5439
25330SOL    HW280548   4.372   7.234   5.152 -0.8897  1.1296  1.9100
25331SOL     OW80549   1.255   7.654   3.561 -0.1226 -0.4425 -0.1434
25331SOL    HW180550   1.340   7.614   3.581 -0.5736 -0.3895  2.1126
25331SOL    HW280551   1.252   7.656   3.465  1.9127 -1.5006 -0.2921
25332SOL     OW80552   4.715   4.857   2.390  0.1980 -0.0403 -0.3271
25332SOL    HW180553   4.718   4.945   2.428 -1.5606 -0.0141 -0.2092
25332SOL    HW280554   4.623   4.842   2.368  0.4027 -1.9631 -0.0943
25333SOL     OW80555   1.363   6.035   8.173 -0.1319 -0.0860 -0.5146
25333SOL    HW180556   1.314   6.111   8.205  1.4293  1.2472 -1.1518
25333SOL    HW280557   1.416   6.007   8.247 -1.3382 -1.1652 -0.0075
25334SOL     OW80558   4.888  12.092   8.231  0.2070  0.1915 -0.7334
25334SOL    HW180559   4.969  12.046   8.209 -0.6758 -0.5965 -2.5793
25334SOL    HW280560   4.819  12.036   8.195 -1.0251  1.9474 -1.2127
25335SOL     OW80561   2.572   2.571   9.764 -0.6560 -0.2239 -0.2089
25335SOL    HW180562   2.537   2.649   9.808  0.5046  0.2205 -0.0428
25335SOL    HW280563   2.554   2.499   9.825 -2.1225 -0.1937 -0.5502
25336SOL     OW80564   2.792  11.530  10.774  0.4935 -0.0180 -0.7315
25336SOL    HW180565   2.751  11.542  10.860 -0.2915 -0.1661 -1.0784
25336SOL    HW280566   2.884  11.510  10.794  0.3333  0.0094  0.0678
25337SOL     OW80567  10.668   1.004   6.276  0.1652 -0.3590  0.1224
25337SOL    HW180568  10.582   0.964   6.286  0.0418 -0.2058 -0.3158
25337SOL    HW280569  10.671   1.072   6.344 -1.6925  2.4618 -2.3501
25338SOL     OW80570   9.618   6.314   4.841 -0.3235  0.0091 -0.4374
25338SOL    HW180571   9.637   6.399   4.803 -0.8718  0.3890  0.1320
25338SOL    HW280572   9.636   6.252   4.770  0.0985  0.5857 -0.8457
25339SOL     OW80573   7.503   0.129  10.847 -0.3471 -0.0944 -0.2883
25339SOL    HW180574   7.506   0.054  10.788  0.0601  0.9722 -1.6782
25339SOL    HW280575   7.415   0.128  10.884 -1.1494  0.0632 -2.0962
25340SOL     OW80576   0.675   8.034   5.632  0.6308 -0.4083 -0.1859
25340SOL    HW180577   0.611   7.997   5.572  0.3860 -0.1345 -0.0946
25340SOL    HW280578   0.646   8.123   5.647  1.0625 -0.2639 -0.1817
25341SOL     OW80579   7.090   7.719   7.653  0.0458 -0.3606 -0.4845
25341SOL    HW180580   7.045   7.716   7.737 -2.3250  1.7309 -1.5460
25341SOL    HW280581   7.034   7.669   7.594  3.5895 -5.2260 -0.2689
25342SOL     OW80582   4.771   9.791   6.837  0.1617 -0.1586 -0.0907
25342SOL    HW180583   4.832   9.861   6.857 -0.7259  0.3965  0.7443
25342SOL    HW280584   4.725   9.775   6.919 -1.1246 -0.2576 -0.8040
25343SOL     OW80585   9.126   2.363   6.702  0.2120  0.0554  0.0860
25343SOL    HW180586   9.119   2.352   6.797  1.4012  2.3756  0.5149
25343SOL    HW280587   9.169   2.284   6.671 -1.4474 -1.3722  1.2414
25344SOL     OW80588   3.709   2.735   9.781  0.3637 -0.1765 -0.3074
25344SOL    HW180589   3.671   2.811   9.827 -0.6150 -1.2201  0.6691
25344SOL    HW280590   3.649   2.663   9.800  0.7209 -0.9921 -2.0787
25345SOL     OW80591   1.298  11.455   9.782 -0.5087 -0.2468  0.2359
25345SOL    HW180592   1.362  11.471   9.852 -0.2069  1.2347 -0.3450
25345SOL    HW280593   1.248  11.379   9.813  1.1813 -1.1401  0.9419
25346SOL     OW80594   1.870   9.561   8.983 -0.4546  0.2522  0.2114
25346SOL    HW180595   1.919   9.535   9.061 -0.9343 -1.2955  0.0447
25346SOL    HW280596   1.847   9.478   8.941 -0.2302  1.0372 -1.5723
25347SOL     OW80597   5.444   1.341   4.907  0.6971 -1.2106 -0.2672
25347SOL    HW180598   5.534   1.362   4.932  0.4221 -1.4746  1.0223
25347SOL    HW280599   5.397   1.336   4.990 -0.4343 -1.4258 -0.9048
25348SOL     OW80600   0.394   0.108   7.069 -0.4629  0.4670  0.5943
25348SOL    HW180601   0.343   0.144   6.996  1.7356  1.7338 -0.4379
25348SOL    HW280602   0.378   0.168   7.142 -2.2308 -0.4879  1.0519
25349SOL     OW80603  11.930   3.658   4.808  0.1789  0.2513 -0.2622
25349SOL    HW180604  11.960   3.719   4.741  0.6127  0.5374  0.1853
25349SOL    HW280605  11.975   3.577   4.789 -0.3002  0.1025 -0.7821
25350SOL     OW80606  11.989  11.275   7.290 -0.1109 -0.4988  0.3107
25350SOL    HW180607  11.939  11.227   7.224 -1.7160 -0.4631  1.4336
25350SOL    HW280608  11.922  11.310   7.349  1.2656 -1.7564  2.7815
25351SOL     OW80609   2.193  11.025   5.024 -0.0726  0.1772  0.4675
25351SOL    HW180610   2.245  11.012   4.945  0.5627  1.2158  0.6887
25351SOL    HW280611   2.187  10.938   5.064  0.7875 -0.1084  0.0052
25352SOL     OW80612   9.714   9.481   7.365  0.7589  0.2430 -0.0273
25352SOL    HW180613   9.723   9.419   7.437  0.9630 -0.9223 -1.0281
25352SOL    HW280614   9.636   9.532   7.386  0.0834 -0.9341  0.3879
25353SOL     OW80615   0.963   1.390   8.640 -0.4106  0.7664  0.6617
25353SOL    HW180616   0.884   1.429   8.603  0.1196  0.1028 -1.2581
25353SOL    HW280617   1.029   1.460   8.635 -0.1511  0.4565 -0.3371
25354SOL     OW80618   6.384   0.088   1.507 -0.4532 -0.3991  0.2575
25354SOL    HW180619   6.297   0.075   1.470  0.1564 -3.1781 -0.3994
25354SOL    HW280620   6.444   0.076   1.434  0.5962 -1.5730  1.2561
25355SOL     OW80621   5.412   3.309   1.277  0.2012 -0.1571 -0.4878
25355SOL    HW180622   5.370   3.245   1.219  0.8669  0.4317 -1.6598
25355SOL    HW280623   5.374   3.393   1.251  2.4852  0.4851 -2.0308
25356SOL     OW80624   2.363   7.611   7.549 -0.5282  0.1851  0.6038
25356SOL    HW180625   2.449   7.651   7.538 -1.0086  0.9788 -0.4462
25356SOL    HW280626   2.382   7.520   7.575  0.6158  0.2748  0.1470
25357SOL     OW80627   8.097   3.967   9.765 -0.1582  0.0091 -0.1096
25357SOL    HW180628   8.173   3.922   9.729 -0.7207 -0.7073 -0.4295
25357SOL    HW280629   8.052   3.900   9.817  0.6499  1.0011  2.0119
25358SOL     OW80630   5.269   0.112   6.536  0.6227  0.1530  0.2789
25358SOL    HW180631   5.231   0.103   6.448  1.8147  0.1869 -0.2512
25358SOL    HW280632   5.363   0.113   6.522  0.9199 -1.8187  1.7216
25359SOL     OW80633  10.530  10.622   5.472  0.2677 -0.5355 -0.7714
25359SOL    HW180634  10.542  10.537   5.430 -0.6002 -0.7364 -0.6331
25359SOL    HW280635  10.443  10.651   5.445 -0.7655 -1.1232  1.6195
25360SOL     OW80636   3.520   9.381  11.856  0.9824  0.0955 -0.2658
25360SOL    HW180637   3.554   9.314  11.916  0.9614 -0.1695 -0.5530
25360SOL    HW280638   3.428   9.359  11.844  1.2973 -0.6340 -1.4465
25361SOL     OW80639   8.805   5.915   9.516  0.5884  0.1928 -0.3676
25361SOL    HW180640   8.833   5.975   9.447  0.6670 -0.3281 -0.7923
25361SOL    HW280641   8.880   5.858   9.530  0.1665 -0.4606 -0.6912
25362SOL     OW80642   2.244   4.731   1.569 -0.0072  0.1064  0.7009
25362SOL    HW180643   2.187   4.662   1.536 -1.1639  0.4542  1.8674
25362SOL    HW280644   2.205   4.812   1.536  1.0738  0.2544 -0.2764
25363SOL     OW80645   7.418   4.782   3.600  0.2673  0.4042  0.1360
25363SOL    HW180646   7.480   4.834   3.550  2.3674 -2.5399 -0.6517
25363SOL    HW280647   7.462   4.768   3.685  0.3144 -0.9373 -0.0865
25364SOL     OW80648   2.600   0.651   2.501  0.1871 -0.1503 -0.0735
25364SOL    HW180649   2.508   0.630   2.487  0.5793 -1.4801 -0.8381
25364SOL    HW280650   2.617   0.625   2.591  0.0903 -1.0332 -0.2998
25365SOL     OW80651   4.012   3.952  12.094  0.5397  0.1813 -0.4748
25365SOL    HW180652   4.071   3.876  12.101 -0.0916 -0.2283  0.8523
25365SOL    HW280653   4.059   4.023  12.138 -0.4169 -0.4874  1.8027
25366SOL     OW80654  10.041   6.437   3.520  0.0760 -0.1308 -0.0042
25366SOL    HW180655  10.074   6.504   3.460  0.8637  1.0301  1.6463
25366SOL    HW280656  10.024   6.485   3.601  0.2520 -1.8690  1.0907
25367SOL     OW80657  10.502   7.941   8.709 -0.8687 -0.2304  0.0078
25367SOL    HW180658  10.589   7.972   8.685 -1.5743  0.3958 -1.9046
25367SOL    HW280659  10.518   7.876   8.778  0.9342  1.4240  1.2706
25368SOL     OW80660   5.238   3.149   8.616  0.2101  0.3090  0.4608
25368SOL    HW180661   5.282   3.233   8.606 -0.1494  0.4441 -0.0637
25368SOL    HW280662   5.280   3.108   8.692 -0.6531  1.6296  1.7062
25369SOL     OW80663   1.208   6.929   9.079  0.8310  0.4439  0.1198
25369SOL    HW180664   1.242   7.019   9.081 -1.7419  1.6161 -2.4573
25369SOL    HW280665   1.217   6.902   8.988 -3.3525  0.2555 -0.3960
25370SOL     OW80666   5.790   6.972   2.932 -0.4195 -0.3795  0.3393
25370SOL    HW180667   5.729   6.938   2.997 -0.1918 -0.9997  0.2432
25370SOL    HW280668   5.870   6.919   2.945 -0.2774 -0.3199 -0.2503
25371SOL     OW80669   7.193   2.592   0.287 -0.1143 -0.0287 -0.0048
25371SOL    HW180670   7.196   2.571   0.194 -0.8754  0.8192 -0.2357
25371SOL    HW280671   7.275   2.637   0.304  0.0717 -0.2762 -0.2485
25372SOL     OW80672  10.714   5.072  11.255  0.0663  0.0999  0.0804
25372SOL    HW180673  10.732   5.053  11.347  1.4934  1.1147  0.0414
25372SOL    HW280674  10.722   5.167  11.248  0.9998 -0.0501 -1.2927
25373SOL     OW80675   0.338   3.454   4.505 -0.5403 -0.0995  0.0124
25373SOL    HW180676   0.376   3.526   4.556  0.2017 -0.6195  0.2125
25373SOL    HW280677   0.321   3.385   4.569 -0.8221 -0.2748 -0.2473
25374SOL     OW80678   3.486   3.629   2.494  0.2606  0.2752 -0.7446
25374SOL    HW180679   3.469   3.722   2.505 -1.4362 -0.0496 -0.2994
25374SOL    HW280680   3.400   3.587   2.505  0.9387 -1.3212 -1.1560
25375SOL     OW80681   3.044   6.754   3.295 -0.3841  0.1040 -0.2635
25375SOL    HW180682   2.950   6.740   3.284 -0.2079 -3.5240  1.3518
25375SOL    HW280683   3.052   6.798   3.380 -0.6269  0.1799 -0.2791
25376SOL     OW80684  11.676   2.732  11.987 -0.6232 -0.4948  0.5797
25376SOL    HW180685  11.663   2.746  12.081 -0.2901  0.4201  0.5061
25376SOL    HW280686  11.732   2.805  11.960 -0.9333 -0.5988 -0.3816
25377SOL     OW80687  11.806  10.913   3.073 -0.1479  0.0116 -0.1140
25377SOL    HW180688  11.852  10.980   3.023  0.5725 -1.0369 -0.8971
25377SOL    HW280689  11.722  10.953   3.095  0.0468  0.9723 -1.0405
25378SOL     OW80690   7.012   9.895   4.445 -0.3032 -0.3894  0.1831
25378SOL    HW180691   6.940   9.935   4.396 -1.2020 -0.1030  1.6753
25378SOL    HW280692   7.082   9.960   4.442 -0.7795  0.1385  0.2842
25379SOL     OW80693   0.134   0.889   4.337  0.0448  0.2718 -0.1409
25379SOL    HW180694   0.184   0.956   4.384  0.4054  0.5504 -0.9193
25379SOL    HW280695   0.044   0.922   4.338 -0.1514 -0.2141  1.2286
25380SOL     OW80696  11.189   9.115   4.613  0.4019 -0.5667  0.8312
25380SOL    HW180697  11.099   9.148   4.601  1.5929  1.9962 -2.5404
25380SOL    HW280698  11.189   9.029   4.572  0.4575  1.5534 -4.4407
25381SOL     OW80699   3.146   0.662   0.985  0.1784  0.4814  0.2913
25381SOL    HW180700   3.056   0.630   0.997 -0.3673  1.7722 -0.1608
25381SOL    HW280701   3.198   0.609   1.046 -0.8012 -0.6335  0.2010
25382SOL     OW80702   5.934   6.991   8.016  0.0554  0.4639 -0.1986
25382SOL    HW180703   5.888   7.008   8.098  0.4569 -1.4018  0.4580
25382SOL    HW280704   5.884   6.921   7.975  0.3456  0.8017 -1.1576
25383SOL     OW80705   5.251  11.851   5.281 -0.1078 -0.4934 -0.3033
25383SOL    HW180706   5.179  11.884   5.227 -1.1800 -0.0453  1.3351
25383SOL    HW280707   5.228  11.760   5.299 -1.1642  0.0900  1.5573
25384SOL     OW80708  12.094   4.127   6.942 -0.4416  0.0534 -0.2652
25384SOL    HW180709  12.057   4.087   6.863  0.4907 -0.3895 -0.4878
25384SOL    HW280710  12.187   4.135   6.924 -0.3798  0.9617  0.3714
25385SOL     OW80711  11.796   0.887   8.497  0.2252  0.0420  0.0385
25385SOL    HW180712  11.717   0.928   8.463  0.7861  0.3065 -1.0033
25385SOL    HW280713  11.825   0.944   8.568 -0.2310  0.2203  0.0807
25386SOL     OW80714  10.994   1.958   8.219 -0.2386  0.4685 -0.0003
25386SOL    HW180715  10.937   1.885   8.194  0.8232 -0.6894  0.8557
25386SOL    HW280716  10.951   1.997   8.295  0.9286 -1.5403  1.8054
25387SOL     OW80717   4.747   2.999  10.543  0.1129 -0.5823  0.1752
25387SOL    HW180718   4.802   2.936  10.590  1.6237 -0.7621 -1.7139
25387SOL    HW280719   4.777   2.994  10.452 -0.6962  1.8444 -0.2926
25388SOL     OW80720   4.790   1.972   7.406  0.9022  0.0652  0.0062
25388SOL    HW180721   4.700   1.964   7.373  0.5424  0.6283  0.8143
25388SOL    HW280722   4.814   2.062   7.386  2.2115 -0.7196 -2.3890
25389SOL     OW80723   9.769  10.239  10.013  0.8719  0.5798 -0.2436
25389SOL    HW180724   9.742  10.305   9.950  0.5758 -0.2501 -1.0026
25389SOL    HW280725   9.732  10.269  10.096 -1.1419  0.2562 -0.9692
25390SOL     OW80726   8.590   8.608   7.147 -0.2887 -0.0625  0.8960
25390SOL    HW180727   8.576   8.640   7.058  0.1241  0.8658  1.1526
25390SOL    HW280728   8.542   8.526   7.151  0.2785 -0.4867 -0.4071
25391SOL     OW80729   1.032   0.031   7.107  0.2541 -0.3893 -0.2868
25391SOL    HW180730   1.024  -0.061   7.084 -1.1831 -0.4196  0.2471
25391SOL    HW280731   0.943   0.060   7.124  0.6449  1.1839 -0.7092
25392SOL     OW80732   6.392   4.451   5.231  0.0052  0.1214  0.3488
25392SOL    HW180733   6.435   4.477   5.312  0.8196 -0.9642  0.2906
25392SOL    HW280734   6.336   4.377   5.256  0.6253 -0.5311 -0.1389
25393SOL     OW80735   1.372   1.434   1.006 -0.4996  0.4884  0.1898
25393SOL    HW180736   1.441   1.486   0.965 -0.6036 -0.9460 -1.9597
25393SOL    HW280737   1.385   1.345   0.973 -1.2893 -0.5795  2.5039
25394SOL     OW80738   9.682  11.442   4.096  0.8112  0.3000  0.0900
25394SOL    HW180739   9.662  11.467   4.006 -0.1741 -0.0894  0.1822
25394SOL    HW280740   9.663  11.521   4.148  2.0650  0.7493 -0.1075
25395SOL     OW80741   2.325   5.541   6.871 -0.0057  0.7807 -0.2899
25395SOL    HW180742   2.235   5.547   6.901 -0.5945  0.6295 -1.9531
25395SOL    HW280743   2.372   5.499   6.944 -1.2021  1.0962  0.6868
25396SOL     OW80744  11.379   3.708   1.388 -0.0417 -0.5940 -0.1484
25396SOL    HW180745  11.319   3.759   1.333  0.0271  0.9798  1.1656
25396SOL    HW280746  11.321   3.658   1.446 -0.1111 -2.1635 -1.4911
25397SOL     OW80747  11.324   3.299   4.463  0.0065  0.4587 -0.2458
25397SOL    HW180748  11.234   3.285   4.433 -0.3686  0.8561  0.6636
25397SOL    HW280749  11.375   3.307   4.383 -1.0114  1.7752 -0.7868
25398SOL     OW80750  11.583   9.947  11.776  0.0714 -0.6961 -0.2908
25398SOL    HW180751  11.540  10.017  11.727 -0.7931 -2.0325 -1.5275
25398SOL    HW280752  11.667   9.984  11.802  0.7160  0.0251 -3.0591
25399SOL     OW80753   0.296   4.701  10.973  0.8229 -0.6208  0.1763
25399SOL    HW180754   0.218   4.756  10.971  1.4977  0.3541 -0.5771
25399SOL    HW280755   0.328   4.701  10.882  1.5649 -1.1898  0.4216
25400SOL     OW80756   4.442   9.266   1.474  0.5477 -0.4470 -0.2020
25400SOL    HW180757   4.443   9.356   1.443  2.6530 -0.1702  0.5257
25400SOL    HW280758   4.483   9.215   1.404 -1.6058 -1.0812 -1.0917
25401SOL     OW80759   5.174   9.836   6.409  0.6252  0.1413  0.0326
25401SOL    HW180760   5.224   9.832   6.491 -2.0408  1.8586  1.9098
25401SOL    HW280761   5.156   9.745   6.387  1.9471 -0.3761  0.9374
25402SOL     OW80762   4.233  11.235   2.984  0.9509 -0.1561 -0.7017
25402SOL    HW180763   4.229  11.327   3.009 -2.4268 -0.4856  0.4377
25402SOL    HW280764   4.253  11.237   2.890 -0.9705  1.8803 -1.1447
25403SOL     OW80765   5.355   4.391   4.912  0.2303 -0.0499  0.3459
25403SOL    HW180766   5.387   4.433   4.833 -0.2133  0.7627  0.5876
25403SOL    HW280767   5.279   4.443   4.939 -1.1945 -1.7922 -0.0947
25404SOL     OW80768   4.251   5.648   5.513 -0.2642  0.0167  0.1749
25404SOL    HW180769   4.217   5.559   5.513 -1.7687  0.5588 -0.0762
25404SOL    HW280770   4.257   5.672   5.420 -1.5988  0.7785  0.2611
25405SOL     OW80771   7.528   4.896   9.683 -1.1381  0.3550 -0.1466
25405SOL    HW180772   7.522   4.946   9.601  0.3309  0.3570 -0.2811
25405SOL    HW280773   7.578   4.953   9.742  0.2838 -0.7896 -0.1956
25406SOL     OW80774   4.623   8.608   9.236  0.5563  0.1849  0.3235
25406SOL    HW180775   4.590   8.526   9.273 -0.0471 -0.1007 -0.8065
25406SOL    HW280776   4.552   8.670   9.250  0.2348  0.0192 -0.5294
25407SOL     OW80777   5.531   1.721   8.638 -0.2867  0.0549 -0.2561
25407SOL    HW180778   5.574   1.711   8.553 -0.6175 -1.5485 -0.2591
25407SOL    HW280779   5.455   1.776   8.620 -0.2422 -0.1040 -0.9597
25408SOL     OW80780   2.612   5.467   9.264 -0.0540  0.2993  0.3650
25408SOL    HW180781   2.581   5.548   9.304 -2.7264 -0.1409 -0.5655
25408SOL    HW280782   2.677   5.495   9.199  0.3732  1.4893  1.2711
25409SOL     OW80783   7.328  11.793   2.506  0.6087  0.0474  0.0825
25409SOL    HW180784   7.413  11.834   2.517 -0.1121  1.7039 -0.2375
25409SOL    HW280785   7.322  11.775   2.412 -0.2134  1.8857 -0.2519
25410SOL     OW80786  11.923   9.747   7.327 -1.0947 -0.5385  0.3495
25410SOL    HW180787  11.999   9.705   7.368 -0.5291 -0.1705 -0.2894
25410SOL    HW280788  11.900   9.689   7.254 -0.3747  0.1637 -0.4719
25411SOL     OW80789   1.171   9.433   4.551 -0.0689 -0.0753  0.4089
25411SOL    HW180790   1.248   9.407   4.501 -1.1468 -3.2115  0.1472
25411SOL    HW280791   1.156   9.525   4.528  3.9074  0.8813  1.0049
25412SOL     OW80792   4.822   9.382   1.781 -0.1626 -0.0904  0.0404
25412SOL    HW180793   4.845   9.452   1.843 -1.5249 -0.6348  1.2225
25412SOL    HW280794   4.863   9.304   1.816 -1.4110 -0.5149  0.6144
25413SOL     OW80795   7.979   8.417   3.757  0.3063 -0.4163 -0.4288
25413SOL    HW180796   8.002   8.467   3.679  0.6084 -0.5468 -0.4228
25413SOL    HW280797   7.884   8.405   3.750 -0.2491  2.3684  0.8550
25414SOL     OW80798   2.424   5.763   7.489 -0.4107 -0.1471  0.2422
25414SOL    HW180799   2.430   5.781   7.583 -1.5562  0.0296  0.2965
25414SOL    HW280800   2.350   5.703   7.481  0.8589 -1.6829 -0.3689
25415SOL     OW80801  10.067   6.015   1.827  0.5985 -0.1199  0.0947
25415SOL    HW180802  10.100   5.963   1.901 -3.0655 -0.5182  1.6363
25415SOL    HW280803  10.086   6.105   1.851  3.3962 -0.4006 -0.7031
25416SOL     OW80804   8.197   5.527   0.236  0.1288 -0.1500  0.2474
25416SOL    HW180805   8.114   5.498   0.199  0.0239 -0.8359  0.9984
25416SOL    HW280806   8.248   5.557   0.161 -0.1161 -1.4222 -0.4545
25417SOL     OW80807   6.211  10.341   0.844 -0.3480 -0.3966 -0.1474
25417SOL    HW180808   6.264  10.361   0.768  0.7932 -1.1217  0.4373
25417SOL    HW280809   6.133  10.396   0.834 -0.2912 -0.5996 -1.8985
25418SOL     OW80810   0.683   7.173   9.446 -0.5722  0.0061  0.1215
25418SOL    HW180811   0.776   7.193   9.458 -0.7919  0.1688  1.9311
25418SOL    HW280812   0.678   7.078   9.446 -0.4609 -0.0011  0.6098
25419SOL     OW80813   9.982  11.975   1.585 -0.1590  0.3463  0.1259
25419SOL    HW180814   9.995  11.920   1.508  1.9303 -1.2676  1.5095
25419SOL    HW280815   9.983  12.065   1.551  1.8673 -0.2503 -1.6328
25420SOL     OW80816   0.575   1.068   3.172  0.0489 -0.4169  0.1618
25420SOL    HW180817   0.654   1.039   3.217 -0.2187  0.6983  1.4119
25420SOL    HW280818   0.603   1.085   3.082  1.1335 -0.4513  0.4769
25421SOL     OW80819   9.815   6.117   1.769  0.1112  0.0333  0.1717
25421SOL    HW180820   9.908   6.097   1.779  0.6312  2.4004  0.6766
25421SOL    HW280821   9.771   6.037   1.796  1.9937 -0.8987  0.6811
25422SOL     OW80822   1.107   3.028   6.491 -0.0180 -0.4201 -0.4893
25422SOL    HW180823   1.175   3.062   6.434 -0.3765  1.3912  0.1121
25422SOL    HW280824   1.026   3.040   6.440  0.0053 -2.0018 -0.9559
25423SOL     OW80825   5.442   3.636   7.736  0.0373  0.0107 -0.3100
25423SOL    HW180826   5.386   3.670   7.666 -0.5697 -2.3310 -1.0567
25423SOL    HW280827   5.382   3.611   7.806  0.5419  1.1530  0.5798
25424SOL     OW80828   1.303  10.659  11.159 -0.0928 -0.1029 -0.3273
25424SOL    HW180829   1.382  10.616  11.192  0.1299 -0.3428 -1.1509
25424SOL    HW280830   1.333  10.746  11.133 -0.0731 -0.2428 -0.7697
25425SOL     OW80831   2.680  10.465   2.556 -0.2142 -0.8727  0.0761
25425SOL    HW180832   2.618  10.517   2.505  1.7388  1.2206 -0.3499
25425SOL    HW280833   2.757  10.458   2.499  0.0244 -3.3355  0.5853
25426SOL     OW80834  11.359  11.069   1.420  0.7309 -0.1881  0.6173
25426SOL    HW180835  11.396  11.106   1.339 -0.7360 -0.2629 -0.1099
25426SOL    HW280836  11.413  10.991   1.437  0.4061 -0.7788 -0.8886
25427SOL     OW80837   9.427   5.839   2.468  0.8725  0.1828  0.1805
25427SOL    HW180838   9.413   5.794   2.385  1.2362  1.1958 -0.4484
25427SOL    HW280839   9.397   5.777   2.535  0.6353 -0.6654 -0.6985
25428SOL     OW80840  10.367   7.592   1.883 -0.1878  0.4262  0.4541
25428SOL    HW180841  10.388   7.644   1.805  1.7909 -0.5938  0.2463
25428SOL    HW280842  10.371   7.501   1.852  0.8749 -0.0008  1.7889
25429SOL     OW80843   8.902   4.234  11.582  0.1572 -0.4253  0.0410
25429SOL    HW180844   8.992   4.267  11.582 -0.2692  1.0478  2.5044
25429SOL    HW280845   8.848   4.313  11.580 -1.0321 -1.1996  0.5937
25430SOL     OW80846  11.975   8.213   9.138 -0.1018  0.5327 -0.4976
25430SOL    HW180847  12.011   8.174   9.218  1.7013  1.3477 -0.8742
25430SOL    HW280848  11.964   8.139   9.079 -1.0915 -0.0250  0.3341
25431SOL     OW80849   3.617  10.311   9.121 -0.0521  0.3352  0.2969
25431SOL    HW180850   3.657  10.224   9.113 -3.0961 -1.3080  1.3297
25431SOL    HW280851   3.645  10.342   9.207 -0.7423 -0.6697  0.9029
25432SOL     OW80852   4.616   8.192   3.702 -0.7997 -0.0163 -0.6705
25432SOL    HW180853   4.645   8.202   3.611 -0.5942  0.6584 -0.5391
25432SOL    HW280854   4.590   8.280   3.728 -0.5765 -0.1521  0.0238
25433SOL     OW80855   1.625   1.979  11.135 -0.0188  0.3959  0.0101
25433SOL    HW180856   1.702   2.023  11.172  0.3564  1.1901 -1.6451
25433SOL    HW280857   1.572   2.049  11.098  0.3485 -0.4338 -2.2411
25434SOL     OW80858   0.766   4.563   5.944 -0.3978 -0.4165 -0.0034
25434SOL    HW180859   0.829   4.578   5.873 -2.3866  1.6534 -1.4914
25434SOL    HW280860   0.807   4.496   5.999  1.7932 -1.2206 -2.4105
25435SOL     OW80861   6.325  10.111   4.525  0.2999  0.5055 -0.0323
25435SOL    HW180862   6.362  10.185   4.477  0.4448  1.5380  1.5871
25435SOL    HW280863   6.401  10.059   4.553  0.1963 -0.3156 -1.2076
25436SOL     OW80864   9.831   6.209   5.104  0.1770  0.4608 -0.1240
25436SOL    HW180865   9.873   6.162   5.176  0.4372  1.5086  0.4298
25436SOL    HW280866   9.738   6.211   5.128  0.4503  2.0712  0.9545
25437SOL     OW80867  10.566   5.406  11.637 -0.0295 -0.0967  0.2949
25437SOL    HW180868  10.570   5.484  11.582  0.7814 -0.5191 -0.2481
25437SOL    HW280869  10.641   5.414  11.696  0.3391 -0.7145 -0.0904
25438SOL     OW80870   8.914   3.595   0.337 -0.3481  0.7882 -0.1579
25438SOL    HW180871   8.865   3.676   0.320  0.9363  1.6170 -0.0755
25438SOL    HW280872   9.002   3.625   0.359  0.2695 -0.6666 -0.5358
25439SOL     OW80873   7.184   1.887   3.741 -0.3071 -0.2374  0.0849
25439SOL    HW180874   7.231   1.827   3.798  0.1624  0.3241  0.2971
25439SOL    HW280875   7.186   1.845   3.655 -0.6404 -0.8784  0.3788
25440SOL     OW80876   2.595  10.774   2.852  0.1969  0.0427  0.3019
25440SOL    HW180877   2.615  10.773   2.758  2.2609 -0.8151  0.7069
25440SOL    HW280878   2.630  10.857   2.883 -1.9767  1.1194  0.0884
25441SOL     OW80879   3.281   7.594  10.063 -0.0992  1.0439 -0.1830
25441SOL    HW180880   3.276   7.519  10.123  3.2043  1.5747  0.9740
25441SOL    HW280881   3.225   7.570   9.990  1.0723 -2.7852 -0.0594
25442SOL     OW80882  10.927   2.900   0.974  0.0364 -0.6457 -0.4005
25442SOL    HW180883  11.019   2.895   0.948  0.0632  0.4610 -0.5603
25442SOL    HW280884  10.915   2.990   1.005 -0.8543 -0.9415  0.1563
25443SOL     OW80885   2.143  11.571  10.828 -0.0600  0.4518  0.4678
25443SOL    HW180886   2.228  11.598  10.862  0.1715  0.8591 -0.3903
25443SOL    HW280887   2.081  11.635  10.864  0.1637  0.8032  0.2406
25444SOL     OW80888  11.820  10.587   5.437 -0.9843 -0.6312 -0.0416
25444SOL    HW180889  11.797  10.657   5.376  0.2403 -0.9314 -0.8629
25444SOL    HW280890  11.809  10.507   5.387  0.1586 -0.8738  0.0791
25445SOL     OW80891   8.502   9.665   5.207  0.3574  0.2584  0.7359
25445SOL    HW180892   8.442   9.700   5.273  1.8068  2.1720  1.1398
25445SOL    HW280893   8.582   9.718   5.218  0.7962  0.3544 -2.2544
25446SOL     OW80894  10.860  10.630   2.525  0.4423 -0.0493 -0.4648
25446SOL    HW180895  10.776  10.653   2.563  0.5005  0.0158 -0.3731
25446SOL    HW280896  10.914  10.604   2.600 -0.2274 -2.4447 -0.7555
25447SOL     OW80897   8.590   7.715  10.336  0.2400  0.5141 -0.1225
25447SOL    HW180898   8.574   7.719  10.242 -0.0837  0.2817 -0.0818
25447SOL    HW280899   8.681   7.689  10.344 -0.2125 -1.3562 -0.3990
25448SOL     OW80900  11.806   0.771   4.303  0.1424  0.1273 -0.6722
25448SOL    HW180901  11.749   0.707   4.345  0.8659  0.5084  0.9496
25448SOL    HW280902  11.754   0.851   4.300  0.3313  0.2949  0.1982
25449SOL     OW80903   1.618   2.743   4.017  0.0466 -0.6973 -0.9540
25449SOL    HW180904   1.615   2.758   4.111 -2.5294  0.0256 -1.0840
25449SOL    HW280905   1.648   2.653   4.008  0.3047 -0.7873  0.5376
25450SOL     OW80906  11.203  11.722  11.811 -0.3396  0.0507 -0.5988
25450SOL    HW180907  11.220  11.753  11.722 -1.1164 -1.4985 -1.3300
25450SOL    HW280908  11.128  11.774  11.841  0.8014  1.5597 -0.2840
25451SOL     OW80909   6.105   2.083   1.383 -0.3833  0.9094  0.4797
25451SOL    HW180910   6.199   2.081   1.399 -0.4273  1.3371  0.8068
25451SOL    HW280911   6.096   2.053   1.293  0.0320  0.4732  0.5758
25452SOL     OW80912   6.333   9.765   4.666  0.0403  0.0404  0.2796
25452SOL    HW180913   6.344   9.687   4.612 -0.5949  0.1368 -0.0030
25452SOL    HW280914   6.421   9.799   4.678  0.3257 -0.7217  0.4137
25453SOL     OW80915  11.696  11.527   9.057  0.2481 -0.3856 -0.7728
25453SOL    HW180916  11.713  11.460   8.991  0.9991  0.0853 -1.0692
25453SOL    HW280917  11.726  11.609   9.017  0.3571 -0.0341  0.0043
25454SOL     OW80918   3.047   2.238   3.663 -0.7663 -0.2421 -0.0166
25454SOL    HW180919   3.136   2.271   3.654 -0.2148 -1.9235 -1.2027
25454SOL    HW280920   3.003   2.303   3.718  0.4107  2.0833 -1.6381
25455SOL     OW80921   2.374   2.142   8.426 -0.1219  0.0770 -0.1973
25455SOL    HW180922   2.304   2.152   8.491  0.8485  1.3225  0.6933
25455SOL    HW280923   2.334   2.172   8.344 -1.4928 -1.9049 -0.3409
25456SOL     OW80924  10.292   3.182  11.303 -0.1946 -0.3594  0.3783
25456SOL    HW180925  10.286   3.167  11.397 -1.8344 -1.0022  0.2026
25456SOL    HW280926  10.210   3.148  11.267  0.2148  0.2346 -1.2445
25457SOL     OW80927   1.017   9.782   5.422 -0.1245  0.2773 -0.1036
25457SOL    HW180928   1.108   9.761   5.398 -0.0777  0.1628  0.1741
25457SOL    HW280929   1.020   9.873   5.451 -0.1053  0.2823 -0.1208
25458SOL     OW80930  11.211   1.679   6.711  0.2869  0.2338  0.3027
25458SOL    HW180931  11.298   1.684   6.672  0.4990  0.3324  0.7866
25458SOL    HW280932  11.195   1.766   6.747 -0.3575  0.4672 -0.5045
25459SOL     OW80933   6.531   6.633   8.361  0.0846  0.0585  0.1864
25459SOL    HW180934   6.545   6.598   8.449  0.0808  0.7016  0.4533
25459SOL    HW280935   6.574   6.719   8.363 -1.4267  0.8439  0.1177
25460SOL     OW80936   7.537   9.894   2.440 -0.2528 -0.0759  0.4006
25460SOL    HW180937   7.553   9.963   2.376 -2.4732 -1.4925 -1.8478
25460SOL    HW280938   7.466   9.929   2.495  0.3162  0.3757  0.8556
25461SOL     OW80939   9.931   2.762   5.273 -0.5039  0.3305  0.2721
25461SOL    HW180940   9.899   2.679   5.309 -1.1885  0.9534  1.1301
25461SOL    HW280941  10.025   2.748   5.261 -0.5018 -0.3595  0.9951
25462SOL     OW80942   5.802   1.773   6.288 -0.6877  0.4417 -0.2585
25462SOL    HW180943   5.712   1.757   6.316 -0.5780 -1.8180 -1.0105
25462SOL    HW280944   5.850   1.788   6.369 -1.6237  1.1112  0.1891
25463SOL     OW80945   2.328   9.586   0.993 -0.1809 -0.3302  0.6110
25463SOL    HW180946   2.270   9.647   1.038  0.8042  1.0291  0.1278
25463SOL    HW280947   2.406   9.581   1.049  1.0734  1.4074 -0.8339
25464SOL     OW80948   9.901  11.738   3.174  0.1275  0.8621 -0.5140
25464SOL    HW180949   9.938  11.690   3.248  0.4348  1.6039 -0.1792
25464SOL    HW280950   9.876  11.823   3.210  0.6157  1.3687 -1.3435
25465SOL     OW80951   7.083   8.801   6.426 -0.4860  0.2819  0.1116
25465SOL    HW180952   7.167   8.759   6.410 -0.3972  0.9151 -1.2624
25465SOL    HW280953   7.087   8.831   6.517  0.4756 -0.3301  0.2791
25466SOL     OW80954   9.190   8.383   3.106  0.4692  0.0051 -0.0334
25466SOL    HW180955   9.253   8.327   3.152  0.6755  0.6933  0.5343
25466SOL    HW280956   9.178   8.458   3.164  0.2760  0.6029 -0.8360
25467SOL     OW80957   0.758   4.014   1.771  0.1464  0.0525 -0.2882
25467SOL    HW180958   0.840   3.971   1.797  0.6182  0.3723 -1.2000
25467SOL    HW280959   0.779   4.057   1.688 -1.7192 -2.3367 -2.1643
25468SOL     OW80960   4.345  10.399   7.095  0.2280 -0.6097  0.2838
25468SOL    HW180961   4.330  10.479   7.045 -0.6392 -0.7969  0.2230
25468SOL    HW280962   4.315  10.329   7.038  0.8262 -0.9705  0.4021
25469SOL     OW80963   8.047   8.554   8.584 -0.2057  0.1145 -0.4244
25469SOL    HW180964   8.114   8.545   8.516 -0.0787  0.5584 -0.3624
25469SOL    HW280965   8.036   8.648   8.594 -0.0534  0.0592  0.3352
25470SOL     OW80966   4.213   7.273   8.165 -0.3947 -0.0653 -0.0535
25470SOL    HW180967   4.192   7.334   8.236  0.2489  2.4602 -1.8684
25470SOL    HW280968   4.137   7.216   8.159 -1.5643  1.2931  1.0740
25471SOL     OW80969   5.122   1.349   2.688 -0.0557 -0.0696  0.1027
25471SOL    HW180970   5.145   1.330   2.597  0.7903 -0.0599  0.3067
25471SOL    HW280971   5.041   1.399   2.681 -0.8021 -1.3261 -0.5671
25472SOL     OW80972   9.490   7.875   2.808  0.2341 -0.6979  0.5766
25472SOL    HW180973   9.568   7.893   2.756 -0.2052 -0.1438  0.1030
25472SOL    HW280974   9.474   7.955   2.856 -1.2868 -0.0075 -0.9729
25473SOL     OW80975   9.877   0.349   6.317  0.0718  0.6247 -0.3485
25473SOL    HW180976   9.847   0.416   6.256 -1.2887 -0.6402 -1.1334
25473SOL    HW280977   9.972   0.361   6.322  0.4090  0.0482 -3.6273
25474SOL     OW80978   5.592  11.578   8.813  0.0991 -0.4891  0.0203
25474SOL    HW180979   5.564  11.570   8.722  0.6580  1.8482 -0.4325
25474SOL    HW280980   5.663  11.514   8.823  1.5453  0.6964 -1.8985
25475SOL     OW80981   5.231  10.712  10.420  0.3897 -0.3320 -0.2036
25475SOL    HW180982   5.226  10.753  10.334  0.1466 -0.0956 -0.0783
25475SOL    HW280983   5.140  10.697  10.445  0.4789 -0.9535 -0.2484
25476SOL     OW80984   1.543  12.052   6.237  0.1073  0.1150 -0.2031
25476SOL    HW180985   1.522  12.085   6.324 -2.8383  0.4282 -0.9036
25476SOL    HW280986   1.489  11.973   6.228  0.3589  0.0872 -1.7122
25477SOL     OW80987   4.417   3.146   6.446  0.0483  0.6199 -0.2372
25477SOL    HW180988   4.474   3.073   6.424 -0.7021 -0.2117  0.5119
25477SOL    HW280989   4.469   3.224   6.423  0.8661 -0.1231 -1.0193
25478SOL     OW80990   1.798   3.497  11.288  0.4287  0.1948  0.1771
25478SOL    HW180991   1.792   3.518  11.382 -3.7792 -1.4586  0.5082
25478SOL    HW280992   1.818   3.403  11.286 -1.3490 -0.2018 -0.4412
25479SOL     OW80993   1.885   7.777   1.873 -0.5405 -0.5546  0.3110
25479SOL    HW180994   1.862   7.688   1.851 -0.5826 -0.6369  0.6736
25479SOL    HW280995   1.954   7.768   1.940 -0.6526 -0.3177  0.4600
25480SOL     OW80996  11.075   6.436   8.730  0.4598 -0.4803  0.2591
25480SOL    HW180997  11.028   6.387   8.662 -1.3441 -0.7363  1.6297
25480SOL    HW280998  11.107   6.368   8.790  0.9409 -0.1728  0.3524
25481SOL     OW80999   1.470   5.489   2.814 -0.3524 -0.1049 -0.0490
25481SOL    HW181000   1.510   5.577   2.817 -0.5281  0.0062 -0.8569
25481SOL    HW281001   1.400   5.493   2.879 -1.6963  1.0399 -1.4858
25482SOL     OW81002   8.850   5.462   7.332  0.3157 -0.4733 -0.3275
25482SOL    HW181003   8.796   5.422   7.264  1.4886 -1.2178 -0.8521
25482SOL    HW281004   8.894   5.535   7.288 -1.1017  0.9073  0.3948
25483SOL     OW81005   9.053   1.604   6.005 -0.3763  0.0122 -0.5212
25483SOL    HW181006   9.078   1.616   5.914 -0.2794 -0.6214 -0.5812
25483SOL    HW281007   9.072   1.512   6.023 -1.2851 -0.1011 -0.1333
25484SOL     OW81008   1.456   7.580   9.639 -0.2730  0.2329 -0.8151
25484SOL    HW181009   1.538   7.543   9.605  0.3585 -0.5553  1.3815
25484SOL    HW281010   1.468   7.675   9.631  0.8608  0.1244 -0.5628
25485SOL     OW81011   5.693  10.062  11.984  0.2520  0.0220  0.0382
25485SOL    HW181012   5.724  10.152  11.998 -0.0018  0.1112  0.0341
25485SOL    HW281013   5.601  10.072  11.960 -0.1453 -0.3086  1.3231
25486SOL     OW81014  11.479   1.124   5.216 -0.1877 -0.4249 -0.2074
25486SOL    HW181015  11.536   1.081   5.280  0.4247  0.3264 -0.2381
25486SOL    HW281016  11.469   1.059   5.146  2.6041  0.2407 -1.3602
25487SOL     OW81017   5.474   7.376   9.338  0.1211  0.0763 -0.1981
25487SOL    HW181018   5.486   7.337   9.251 -0.4916  0.6675 -0.5563
25487SOL    HW281019   5.385   7.411   9.336 -0.1419 -0.4824  0.9030
25488SOL     OW81020   4.071   4.703   8.136  0.4206 -0.1954 -0.2833
25488SOL    HW181021   4.117   4.728   8.216 -0.8834 -0.8219  0.6871
25488SOL    HW281022   4.028   4.784   8.107  0.0692 -0.2004  0.2174
25489SOL     OW81023   6.424   8.203  10.540 -0.1814  0.1247 -0.5339
25489SOL    HW181024   6.462   8.287  10.513 -0.9414  1.2459  1.5967
25489SOL    HW281025   6.331   8.210  10.516 -0.2372 -0.1045 -0.3892
25490SOL     OW81026   4.609   9.074   7.603  0.3095 -0.4442  0.0762
25490SOL    HW181027   4.555   9.059   7.680  1.3746 -0.3566  0.8714
25490SOL    HW281028   4.592   9.165   7.578  0.4730 -0.2570  0.6403
25491SOL     OW81029  11.002   3.514  11.807  0.3985 -0.5249 -0.1943
25491SOL    HW181030  10.983   3.603  11.836  0.4994 -0.7667  0.6599
25491SOL    HW281031  11.093   3.517  11.779 -0.0823  0.0222 -1.7868
25492SOL     OW81032   7.676   2.382   4.907 -0.0630  0.1838  0.0271
25492SOL    HW181033   7.586   2.365   4.935  0.2982 -1.2445  0.3735
25492SOL    HW281034   7.680   2.477   4.897 -2.0376  0.1665 -1.4798
25493SOL     OW81035   6.570   2.221   2.549 -1.0841 -0.4033 -0.7459
25493SOL    HW181036   6.503   2.286   2.532 -0.4932  0.0927 -1.2016
25493SOL    HW281037   6.598   2.192   2.463  0.8545  1.0230 -0.6545
25494SOL     OW81038   0.159   2.527   0.455 -0.6021 -0.1795 -0.0051
25494SOL    HW181039   0.165   2.592   0.525 -0.3878 -1.9324  1.6817
25494SOL    HW281040   0.210   2.565   0.383 -1.6535  2.1157  0.3820
25495SOL     OW81041   7.577   8.347   5.331  0.1026  0.0985 -0.0874
25495SOL    HW181042   7.483   8.354   5.345  0.4580  0.4976  2.4082
25495SOL    HW281043   7.585   8.283   5.260 -2.0196 -0.3502  0.0011
25496SOL     OW81044   9.354   3.232   9.141  0.0402 -0.0628 -0.3353
25496SOL    HW181045   9.429   3.183   9.175 -0.5467  0.2748  1.6134
25496SOL    HW281046   9.392   3.303   9.090  0.9264 -2.6680 -3.6613
25497SOL     OW81047   5.388   7.327   6.897  0.1688 -0.0509  0.2132
25497SOL    HW181048   5.329   7.290   6.963 -0.4784  1.0112  0.2424
25497SOL    HW281049   5.371   7.275   6.818 -0.4333 -0.0821  0.3604
25498SOL     OW81050   2.479   8.134  11.351 -0.0482 -1.0757 -0.8522
25498SOL    HW181051   2.493   8.139  11.445  1.0738  0.9155 -1.0668
25498SOL    HW281052   2.387   8.157  11.339  0.2429  0.4647 -0.3254
25499SOL     OW81053  10.458   3.871   9.442 -0.1635 -0.2353  0.2688
25499SOL    HW181054  10.539   3.899   9.484  0.4323  0.8234 -1.4762
25499SOL    HW281055  10.391   3.929   9.477 -0.0356 -0.5988  1.1326
25500SOL     OW81056   7.648   3.362   6.252 -0.4328 -0.2643  0.0783
25500SOL    HW181057   7.718   3.349   6.316  0.4939  0.5151 -0.7469
25500SOL    HW281058   7.627   3.274   6.222  1.1863 -0.4283 -0.6802
25501SOL     OW81059   7.896   1.904   7.379 -0.3294 -0.3481  0.8756
25501SOL    HW181060   7.913   1.880   7.471  0.9175  2.4850  1.4974
25501SOL    HW281061   7.976   1.880   7.333  0.3087  1.0672  1.1979
25502SOL     OW81062   5.989   4.515   8.578  0.0680  0.0598  0.2932
25502SOL    HW181063   5.952   4.553   8.658  0.8080 -1.1605  1.2494
25502SOL    HW281064   5.913   4.505   8.519 -0.5652  0.5280  1.0040
25503SOL     OW81065   4.489   8.496   5.420  0.3294 -0.2488 -0.0151
25503SOL    HW181066   4.496   8.404   5.398  1.0359 -0.0958 -0.4620
25503SOL    HW281067   4.496   8.542   5.337  0.5236  0.2321  0.2594
25504SOL     OW81068   2.498  10.580   8.949  0.1967  0.1142  0.2502
25504SOL    HW181069   2.446  10.638   9.003  0.0739 -0.3374  0.6266
25504SOL    HW281070   2.438  10.547   8.883 -0.5536 -1.9038  1.8177
25505SOL     OW81071   7.313   7.728   6.700  0.3305  0.1570 -0.1283
25505SOL    HW181072   7.286   7.794   6.764 -0.9320  1.3659 -1.8146
25505SOL    HW281073   7.399   7.756   6.670  0.2732  0.4274 -0.0361
25506SOL     OW81074   9.295   2.586   2.989  0.6888 -0.2689  0.6586
25506SOL    HW181075   9.311   2.509   3.044 -0.2076 -0.5978  0.4743
25506SOL    HW281076   9.309   2.554   2.900 -1.4784 -0.7613  0.4225
25507SOL     OW81077   7.807   4.995  11.811  0.2565 -0.4497  0.1645
25507SOL    HW181078   7.714   4.971  11.818 -0.0104  0.8172  1.6387
25507SOL    HW281079   7.830   5.026  11.898  1.5256  1.1217 -0.6793
25508SOL     OW81080   3.155   6.050   6.784  0.6601 -0.0203  0.2612
25508SOL    HW181081   3.130   5.976   6.840 -0.4065  0.0550 -0.0795
25508SOL    HW281082   3.079   6.062   6.726  2.3184 -1.1224 -2.3177
25509SOL     OW81083   1.260   8.909   4.177 -0.1145  0.2012 -0.2608
25509SOL    HW181084   1.313   8.883   4.102 -0.2626  1.3222 -0.7734
25509SOL    HW281085   1.322   8.945   4.240 -0.0572 -0.1955 -0.0900
25510SOL     OW81086   4.956  11.522   5.716 -0.6437 -0.2854 -0.0800
25510SOL    HW181087   4.930  11.591   5.777 -1.3417  0.5558 -1.2838
25510SOL    HW281088   5.050  11.533   5.705 -0.6841  0.2025  0.0636
25511SOL     OW81089   7.831  11.099   0.654  0.3455  0.0227  0.1213
25511SOL    HW181090   7.883  11.020   0.668  1.7327  0.9231  0.2169
25511SOL    HW281091   7.768  11.074   0.586  2.5988 -0.4047 -1.9708
25512SOL     OW81092   5.142  11.080   8.371 -0.6041  0.1302  0.2873
25512SOL    HW181093   5.224  11.076   8.421 -0.0655  0.4201 -0.5619
25512SOL    HW281094   5.169  11.101   8.282 -1.4847 -1.2471 -0.3313
25513SOL     OW81095   8.758   3.010   5.745 -0.4925 -0.3956 -0.9271
25513SOL    HW181096   8.830   2.977   5.691 -0.0790  0.7701 -1.1246
25513SOL    HW281097   8.786   3.098   5.770 -1.2529 -0.4399  0.1342
25514SOL     OW81098  12.010  10.202   1.547 -0.6534 -0.1926 -0.5399
25514SOL    HW181099  11.926  10.157   1.557 -1.4087  1.2328 -0.3226
25514SOL    HW281100  11.988  10.294   1.534  0.8949  0.6169  1.8285
25515SOL     OW81101   3.249   7.826   6.817  1.0299 -0.4386  0.2948
25515SOL    HW181102   3.210   7.912   6.835  1.9399  0.4359 -1.5546
25515SOL    HW281103   3.177   7.776   6.777  0.9595  0.1155 -0.3013
25516SOL     OW81104  10.259   3.051   6.058  0.1172 -0.1301 -0.2082
25516SOL    HW181105  10.230   3.061   6.148 -1.7288 -2.4215 -0.4608
25516SOL    HW281106  10.186   3.082   6.005  1.1046  1.0037 -0.9625
25517SOL     OW81107   0.425   0.247   7.947  0.0739 -0.2338  0.2767
25517SOL    HW181108   0.386   0.333   7.927  0.0858 -0.6161 -1.5476
25517SOL    HW281109   0.509   0.248   7.902 -0.1190 -1.3546 -0.1332
25518SOL     OW81110   5.920   5.987   7.081  0.2363 -0.1193  0.1299
25518SOL    HW181111   5.857   6.031   7.139 -0.0439 -0.3418 -0.0045
25518SOL    HW281112   5.944   5.907   7.128 -0.1029 -0.3728 -0.1216
25519SOL     OW81113   7.798   6.612   9.256  0.0547 -0.8327 -0.2806
25519SOL    HW181114   7.792   6.524   9.292 -0.9522 -0.6167  0.1333
25519SOL    HW281115   7.707   6.641   9.249  0.3937  1.0782  1.8846
25520SOL     OW81116   3.248   2.228   8.867  0.4911 -0.7062 -0.0411
25520SOL    HW181117   3.161   2.259   8.893 -0.0401 -2.6903  0.7062
25520SOL    HW281118   3.309   2.286   8.912 -0.4528 -0.2053  0.6203
25521SOL     OW81119   3.227   2.377   9.593 -0.0624 -0.0281  0.5996
25521SOL    HW181120   3.313   2.403   9.559 -0.0777 -0.6234  0.0923
25521SOL    HW281121   3.245   2.345   9.681 -0.0187  1.5281  1.1934
25522SOL     OW81122   3.662   4.872   6.845  0.5079 -0.6834  0.1178
25522SOL    HW181123   3.621   4.799   6.798 -1.1209 -0.4076  1.0271
25522SOL    HW281124   3.680   4.837   6.932 -1.2110  0.2241  0.8890
25523SOL     OW81125   0.632   7.381   1.194  0.2241  0.0037 -0.0035
25523SOL    HW181126   0.727   7.390   1.202  0.5508 -3.6093  1.8617
25523SOL    HW281127   0.619   7.304   1.138 -1.7146  1.1758 -1.3126
25524SOL     OW81128   5.306  11.428   9.393  0.3222  0.4335  0.1069
25524SOL    HW181129   5.333  11.429   9.485  3.4493 -0.5990 -0.6625
25524SOL    HW281130   5.213  11.447   9.395  0.1103 -0.3405  3.5392
25525SOL     OW81131   0.331   9.564   5.270 -0.0318  0.5089  0.0363
25525SOL    HW181132   0.404   9.502   5.277 -1.3954 -1.0020  2.3173
25525SOL    HW281133   0.288   9.541   5.188 -0.2342 -1.3709  0.6080
25526SOL     OW81134   9.285   5.362   1.682 -0.1211  0.0095  0.1167
25526SOL    HW181135   9.355   5.297   1.687  1.5904  1.6544 -0.9538
25526SOL    HW281136   9.234   5.336   1.605  0.5196 -0.1023 -0.2806
25527SOL     OW81137   6.911   8.729   8.904 -0.0417 -0.4652  0.4212
25527SOL    HW181138   6.844   8.795   8.924  0.5775  1.6062 -3.3315
25527SOL    HW281139   6.994   8.775   8.917  0.4801 -1.2249 -0.1718
25528SOL     OW81140  11.283   5.563   5.108 -0.4538  0.2456  0.3962
25528SOL    HW181141  11.250   5.485   5.154 -1.1656  0.2671 -0.0642
25528SOL    HW281142  11.322   5.616   5.177 -0.7016 -0.1398  0.8447
25529SOL     OW81143   4.082   7.482  11.071  0.0322 -0.0385 -0.3436
25529SOL    HW181144   3.992   7.502  11.049 -0.0201  1.2835  0.8796
25529SOL    HW281145   4.081   7.470  11.166  1.0872 -0.3158 -0.3551
25530SOL     OW81146   1.264   8.108   6.095  1.0122 -0.2852 -0.5577
25530SOL    HW181147   1.282   8.018   6.068 -0.2552 -0.4616 -0.9127
25530SOL    HW281148   1.243   8.153   6.013 -0.6586 -0.2693 -0.1617
25531SOL     OW81149   3.974   7.777   6.557  0.5871  0.0273  0.1577
25531SOL    HW181150   3.902   7.718   6.579  0.4069  0.0910 -0.2491
25531SOL    HW281151   4.041   7.719   6.520  0.8066 -0.0518  0.6740
25532SOL     OW81152  11.590   1.931   2.860 -0.4017  0.0779  0.4071
25532SOL    HW181153  11.581   1.877   2.939  2.1507  0.8945  1.3632
25532SOL    HW281154  11.656   1.887   2.808 -0.8374  0.4558 -0.4906
25533SOL     OW81155   4.624   8.596   8.935 -0.1744  0.3172 -0.2192
25533SOL    HW181156   4.654   8.661   8.999 -1.3736  2.0159 -1.2740
25533SOL    HW281157   4.647   8.512   8.973  2.6591  1.3739  0.6333
25534SOL     OW81158  10.295   3.510   6.244 -0.1661 -0.0718 -0.1529
25534SOL    HW181159  10.214   3.459   6.236  0.5038 -1.1097 -0.6112
25534SOL    HW281160  10.346   3.463   6.310  1.0494 -0.8357 -1.5746
25535SOL     OW81161   6.117   8.632  11.257 -0.5175  0.3595  0.7272
25535SOL    HW181162   6.045   8.642  11.320  1.0929  0.9137  2.5873
25535SOL    HW281163   6.118   8.539  11.236 -1.5497  0.2822  0.9567
25536SOL     OW81164   9.024  11.537  10.725  0.2414  0.3477 -0.1238
25536SOL    HW181165   9.098  11.584  10.764  0.6414 -0.3838  0.0182
25536SOL    HW281166   8.982  11.602  10.668  0.7926  0.8663  0.0484
25537SOL     OW81167   1.702   1.846  10.051  0.0912 -0.0291 -0.0880
25537SOL    HW181168   1.625   1.862   9.997  1.3101  1.3983 -1.5146
25537SOL    HW281169   1.667   1.814  10.134 -2.1209  1.8437 -0.2012
25538SOL     OW81170   5.370   3.556  11.563 -0.5846  0.2828 -0.6124
25538SOL    HW181171   5.427   3.553  11.639  1.9949 -0.4308 -2.4350
25538SOL    HW281172   5.345   3.465  11.548  0.7276  0.0796 -1.8056
25539SOL     OW81173   8.898   1.644   7.772  0.5579  0.3578 -0.3736
25539SOL    HW181174   8.909   1.728   7.728 -0.0603  0.4959 -0.2804
25539SOL    HW281175   8.975   1.593   7.748  1.6462  1.4508  0.7096
25540SOL     OW81176   2.663  11.379  10.462  0.0993 -0.4068 -0.3711
25540SOL    HW181177   2.754  11.407  10.465  0.1329 -0.5524  0.1728
25540SOL    HW281178   2.636  11.392  10.371  0.2776  0.8470 -0.2629
25541SOL     OW81179   4.814  11.118   0.279  0.3438  0.3666 -0.3640
25541SOL    HW181180   4.887  11.105   0.340  1.5399  0.4469 -1.7485
25541SOL    HW281181   4.853  11.111   0.192 -1.8949 -3.4115 -1.3073
25542SOL     OW81182  10.233   4.980   7.025  0.0753  0.1915 -0.5351
25542SOL    HW181183  10.222   5.050   6.961 -2.1476 -1.3231 -1.9295
25542SOL    HW281184  10.303   4.925   6.989 -0.9200 -0.4569 -1.5088
25543SOL     OW81185   8.805   0.692   5.549  0.0486 -0.1855  0.0022
25543SOL    HW181186   8.847   0.664   5.631 -0.2236  0.5461  0.4049
25543SOL    HW281187   8.718   0.723   5.577 -0.4634 -0.9415 -0.7150
25544SOL     OW81188   9.780   3.082   3.857  0.2163 -0.1408  0.2168
25544SOL    HW181189   9.834   3.114   3.785 -0.4699  0.5495 -0.0022
25544SOL    HW281190   9.819   3.119   3.935 -0.0416  0.5026  0.0442
25545SOL     OW81191   8.834  10.618   5.963  0.2341 -0.2876 -0.1715
25545SOL    HW181192   8.846  10.539   6.015 -1.1570  0.5341  1.4883
25545SOL    HW281193   8.768  10.594   5.897  0.4808 -0.7524 -0.2499
25546SOL     OW81194   6.497   7.702   8.233 -0.3410  0.0514  0.0358
25546SOL    HW181195   6.528   7.707   8.143  0.1790 -3.1574 -0.0596
25546SOL    HW281196   6.402   7.709   8.225 -0.2856  0.0957 -0.7168
25547SOL     OW81197   5.134   8.868   7.530  0.1429 -0.1022 -0.1419
25547SOL    HW181198   5.206   8.880   7.592 -1.4643 -0.5129  1.9277
25547SOL    HW281199   5.130   8.773   7.516  1.7466  0.1004 -2.5613
25548SOL     OW81200   9.286   0.192   0.128 -0.3539  0.5732  0.1373
25548SOL    HW181201   9.330   0.157   0.206 -2.0714 -1.7932  0.1502
25548SOL    HW281202   9.357   0.233   0.078  1.6422 -1.6674  0.8890
25549SOL     OW81203  11.974   4.486   9.247  0.0504 -0.0360  0.3092
25549SOL    HW181204  12.042   4.543   9.284 -0.2824  0.7561 -0.2625
25549SOL    HW281205  11.946   4.531   9.167 -2.7475  0.8604  1.6700
25550SOL     OW81206  11.326   9.274   4.209 -0.0487  0.3298 -0.1415
25550SOL    HW181207  11.264   9.206   4.182 -1.2287  0.9204  0.9768
25550SOL    HW281208  11.385   9.229   4.269 -1.2035  0.3901  1.0850
25551SOL     OW81209   0.256   8.389   5.538  0.4548 -0.2055  0.0577
25551SOL    HW181210   0.240   8.478   5.507  1.7474  0.4688  1.2270
25551SOL    HW281211   0.318   8.352   5.475  0.7008  0.0827  0.1283
25552SOL     OW81212   0.361   6.272   9.404  0.3774 -0.7059  0.2001
25552SOL    HW181213   0.421   6.346   9.393 -1.6335  0.8277 -1.3774
25552SOL    HW281214   0.286   6.310   9.452 -0.5840 -1.7767 -0.4025
25553SOL     OW81215   8.173   4.651   0.764 -0.0366 -0.1646 -0.1387
25553SOL    HW181216   8.105   4.597   0.723  0.7673 -0.9388 -0.4948
25553SOL    HW281217   8.256   4.611   0.736  0.5774  0.8983  0.0896
25554SOL     OW81218   9.145   0.959  11.307 -0.7037  0.2024 -0.1719
25554SOL    HW181219   9.125   1.051  11.326 -0.7498  0.3007 -0.6856
25554SOL    HW281220   9.239   0.951  11.324 -0.2578  0.8538 -2.0381
25555SOL     OW81221  11.017   1.491  10.714  0.0872  0.1524  0.0965
25555SOL    HW181222  11.052   1.560  10.772 -1.0281 -0.9227  2.1812
25555SOL    HW281223  11.028   1.526  10.626  0.1159  2.7603  1.0379
25556SOL     OW81224  10.948   5.322   8.654  0.0328  0.1745  0.2979
25556SOL    HW181225  10.934   5.262   8.581  0.6125  2.8935 -2.2437
25556SOL    HW281226  10.861   5.355   8.675 -0.0014  0.2193  0.0846
25557SOL     OW81227   6.410   5.308  11.230  0.3964  0.1800 -0.0828
25557SOL    HW181228   6.390   5.373  11.297  0.5022  0.8932 -0.7373
25557SOL    HW281229   6.374   5.344  11.149 -1.3593 -1.4896 -0.1229
25558SOL     OW81230   3.862   7.417   6.552  0.1053 -0.0514 -0.0333
25558SOL    HW181231   3.957   7.422   6.542  0.1469 -1.1499 -0.3045
25558SOL    HW281232   3.830   7.385   6.467 -0.1536 -3.0865  1.0847
25559SOL     OW81233   3.471  10.725  11.489 -0.1212 -0.1351 -0.4278
25559SOL    HW181234   3.488  10.810  11.529 -0.7128 -0.5760  0.8282
25559SOL    HW281235   3.481  10.662  11.561  2.0530 -1.3433 -1.7017
25560SOL     OW81236   4.925   7.645   3.581  0.4809  0.3172  0.3082
25560SOL    HW181237   4.952   7.604   3.663  0.5052  1.1711  0.7408
25560SOL    HW281238   5.005   7.647   3.528  0.0646 -1.9675 -0.5294
25561SOL     OW81239  11.769   4.568   9.682 -0.7801 -0.2607  0.2564
25561SOL    HW181240  11.830   4.512   9.635 -0.4657 -0.2635  0.6600
25561SOL    HW281241  11.824   4.619   9.741 -0.9632  1.1565 -0.7525
25562SOL     OW81242   6.616   4.436   2.096 -0.1570  0.5142  0.2843
25562SOL    HW181243   6.523   4.442   2.077  0.3675  1.7246 -2.3871
25562SOL    HW281244   6.658   4.427   2.010  2.1772 -0.6261  1.4252
25563SOL     OW81245   5.470   7.699   8.833  0.1285  0.1791  0.4596
25563SOL    HW181246   5.375   7.700   8.845 -0.0614  2.5193 -0.5989
25563SOL    HW281247   5.493   7.606   8.833 -2.2293 -0.4831  0.2509
25564SOL     OW81248   2.721   2.496   1.721 -0.2609 -0.0725 -0.2690
25564SOL    HW181249   2.721   2.591   1.706 -0.4323 -0.2705 -1.5864
25564SOL    HW281250   2.678   2.486   1.806  0.1318  1.0508  0.0825
25565SOL     OW81251  12.066   7.360   7.428 -0.0270  0.2895 -0.6040
25565SOL    HW181252  12.143   7.417   7.429 -0.1091  0.4705 -2.3063
25565SOL    HW281253  12.038   7.359   7.336 -0.1736 -2.2999 -0.5960
25566SOL     OW81254   0.991   4.675  10.996  0.6280  0.0568 -0.5509
25566SOL    HW181255   0.914   4.700  10.944 -1.9952 -1.6715  2.1952
25566SOL    HW281256   1.025   4.758  11.031 -1.2162  0.7237 -0.2611
25567SOL     OW81257   3.816  11.913   3.857  0.0960 -0.5735 -0.2997
25567SOL    HW181258   3.793  11.863   3.779  1.0582 -0.8848 -0.3978
25567SOL    HW281259   3.731  11.940   3.894 -0.3977  1.6311 -2.7108
25568SOL     OW81260  11.352   0.906  12.053  0.3789  0.0904 -0.3307
25568SOL    HW181261  11.345   0.813  12.031 -0.0763  0.5778 -2.4480
25568SOL    HW281262  11.409   0.909  12.130  0.7348 -1.9004 -0.4819
25569SOL     OW81263  10.949   3.129   4.746  0.0993  0.4115  0.1148
25569SOL    HW181264  10.871   3.181   4.726  0.4150  0.9400  0.2471
25569SOL    HW281265  10.917   3.061   4.806 -0.2144  0.7537  0.3391
25570SOL     OW81266   7.610   4.066   3.574  0.5944 -0.4789  0.0607
25570SOL    HW181267   7.651   4.131   3.632 -1.1584 -0.7516  1.7020
25570SOL    HW281268   7.609   3.985   3.626 -0.9971 -0.7475 -0.3487
25571SOL     OW81269  11.304   8.897   7.590 -0.7849  0.2002  0.2334
25571SOL    HW181270  11.238   8.954   7.630 -2.8592 -1.7235 -0.2278
25571SOL    HW281271  11.264   8.868   7.508  0.7866 -0.7791 -0.2367
25572SOL     OW81272   3.056   7.429   2.284 -0.1716 -0.1817  0.0890
25572SOL    HW181273   2.998   7.435   2.360 -0.0878  1.0692  0.0791
25572SOL    HW281274   3.141   7.457   2.316  0.7831 -3.0850  0.3865
25573SOL     OW81275   8.262   7.802   6.599  0.2461 -0.4095  0.2458
25573SOL    HW181276   8.221   7.774   6.681  0.8209 -1.0830  0.3137
25573SOL    HW281277   8.202   7.772   6.531  0.4272 -1.0696  0.3627
25574SOL     OW81278   3.259   5.609   7.625  0.7196 -0.2374 -0.0960
25574SOL    HW181279   3.269   5.546   7.697  0.2278 -1.7522 -1.2944
25574SOL    HW281280   3.348   5.638   7.606  0.9629 -0.5877  0.4759
25575SOL     OW81281   2.046  10.831   7.827  0.0662 -0.3152 -0.7324
25575SOL    HW181282   2.130  10.850   7.785  0.0118 -0.4810 -0.9181
25575SOL    HW281283   1.986  10.899   7.793  0.8369  1.7669  1.7578
25576SOL     OW81284   9.287   5.272   5.890  0.1651 -0.1464  0.1936
25576SOL    HW181285   9.255   5.238   5.806 -0.5761  0.2876  0.2910
25576SOL    HW281286   9.231   5.230   5.955  1.2174 -1.0613  0.5471
25577SOL     OW81287  10.070   0.744   1.612 -0.1602 -0.5127 -0.1762
25577SOL    HW181288  10.012   0.815   1.637 -1.8206 -1.9011  0.0895
25577SOL    HW281289  10.037   0.713   1.528 -0.7714 -2.2730  0.6621
25578SOL     OW81290   5.103   5.012   2.974  0.6130  0.7032 -0.3011
25578SOL    HW181291   5.156   5.088   2.999  1.7468 -0.3772  0.7606
25578SOL    HW281292   5.016   5.031   3.008  1.4170  0.5740  2.0233
25579SOL     OW81293   6.882   2.107  11.554 -0.1723 -0.2110 -0.1409
25579SOL    HW181294   6.933   2.052  11.614  0.7134  2.3046  1.6056
25579SOL    HW281295   6.817   2.148  11.610 -0.5668  0.7751 -1.2931
25580SOL     OW81296   7.491  11.926   8.980  0.1642  0.0835 -0.7663
25580SOL    HW181297   7.426  11.901   9.046  0.2054  1.3583 -0.2161
25580SOL    HW281298   7.445  11.914   8.897 -0.3168 -0.3426 -0.4514
25581SOL     OW81299  10.002   0.808   1.992  0.3716 -0.2745  0.6194
25581SOL    HW181300  10.031   0.724   1.957  1.4438  0.4228 -0.2156
25581SOL    HW281301  10.078   0.865   1.985 -0.5147  0.9487  0.6097
25582SOL     OW81302   1.824   3.235   0.694  0.0969 -0.3603 -0.2327
25582SOL    HW181303   1.887   3.277   0.635  0.7913 -0.2617  0.5510
25582SOL    HW281304   1.744   3.226   0.642  0.3485  0.7183 -0.8345
25583SOL     OW81305   5.194   7.844   7.749  0.0510  0.1557  0.0253
25583SOL    HW181306   5.263   7.778   7.750  1.2580  1.3402 -0.7704
25583SOL    HW281307   5.165   7.846   7.658 -0.2292  0.4664  0.1225
25584SOL     OW81308   6.484   8.041   8.789  0.3310 -0.5591  0.2341
25584SOL    HW181309   6.552   7.998   8.737  0.8500  0.4659  0.0469
25584SOL    HW281310   6.518   8.038   8.878  1.1596  0.8935  0.0039
25585SOL     OW81311   3.653   2.222   8.408 -0.3778  0.8972 -0.2168
25585SOL    HW181312   3.635   2.223   8.314 -0.6079  0.4294 -0.1805
25585SOL    HW281313   3.745   2.196   8.414 -0.4979  0.4337 -0.3001
25586SOL     OW81314   7.184   8.000   6.615 -0.6198 -0.1567  0.0398
25586SOL    HW181315   7.236   8.003   6.535 -0.6233  3.1583  0.0303
25586SOL    HW281316   7.242   8.033   6.683 -1.2877 -0.8581  0.9698
25587SOL     OW81317   6.779   1.435   2.749  0.0304 -0.1975  1.1229
25587SOL    HW181318   6.873   1.454   2.757 -0.3041  1.1453  2.1481
25587SOL    HW281319   6.768   1.349   2.790  0.7294 -0.1179  1.4854
25588SOL     OW81320   2.990   7.975  10.423  0.3073 -0.1307  1.0961
25588SOL    HW181321   3.077   8.010  10.404  0.5102 -0.2177  1.8427
25588SOL    HW281322   2.994   7.885  10.391 -0.9389  1.0449 -2.9353
25589SOL     OW81323   3.239   0.022   0.731  1.1730  0.3561 -0.1332
25589SOL    HW181324   3.188   0.104   0.726  1.6968  0.8086  1.4358
25589SOL    HW281325   3.330   0.050   0.722  1.2560 -0.3442 -1.9215
25590SOL     OW81326   2.850   8.239  12.049  0.7567 -0.0387 -0.5550
25590SOL    HW181327   2.786   8.173  12.077 -1.0527  1.1293 -1.7702
25590SOL    HW281328   2.911   8.190  11.993 -1.3893 -0.5045 -2.6413
25591SOL     OW81329   4.578   0.288   2.345 -0.3258  0.2765  0.3488
25591SOL    HW181330   4.583   0.230   2.269 -0.4902  0.5887  0.0996
25591SOL    HW281331   4.505   0.347   2.326 -0.2174  0.5088  0.6420
25592SOL     OW81332   7.446   1.558   1.472  0.0765  0.0183  0.2766
25592SOL    HW181333   7.519   1.530   1.527  0.0133  0.3611  0.5384
25592SOL    HW281334   7.410   1.477   1.437  0.5583 -0.1545  0.1763
25593SOL     OW81335   7.489   7.855   3.128  0.0596  0.3803 -0.5067
25593SOL    HW181336   7.445   7.785   3.080  0.7594 -0.5328  0.1444
25593SOL    HW281337   7.427   7.882   3.195  1.9605 -4.3724  3.8120
25594SOL     OW81338   2.078   3.382   5.985 -0.1626  0.0527  0.0418
25594SOL    HW181339   2.020   3.354   5.915  0.5527  0.2612 -0.6503
25594SOL    HW281340   2.147   3.432   5.941  0.1861  0.3683  0.9171
25595SOL     OW81341   9.388   4.835   0.446 -0.1980  0.4810 -0.1211
25595SOL    HW181342   9.305   4.868   0.478 -0.3206  0.8627 -0.8141
25595SOL    HW281343   9.384   4.741   0.463 -0.4983  0.5907  0.4342
25596SOL     OW81344   9.035  10.485   0.938  0.2199 -0.3157 -0.8928
25596SOL    HW181345   9.041  10.471   0.844  0.4154  0.5466 -1.0227
25596SOL    HW281346   8.942  10.482   0.958  0.1553 -0.1628 -1.1729
25597SOL     OW81347   2.177   8.798   9.149  0.2274  0.2071 -0.1466
25597SOL    HW181348   2.166   8.724   9.089  2.6886 -0.6545  0.3198
25597SOL    HW281349   2.161   8.875   9.095  2.7215 -0.5134 -2.1578
25598SOL     OW81350  11.731  11.358   1.449  0.6718  0.1120 -0.2030
25598SOL    HW181351  11.795  11.367   1.378 -1.3115  2.0167 -1.9016
25598SOL    HW281352  11.700  11.447   1.465 -0.4098 -0.5406  1.6914
25599SOL     OW81353   1.191   2.812   1.572  0.0210  0.3124 -0.4991
25599SOL    HW181354   1.256   2.818   1.643  0.6014  3.5653 -1.1646
25599SOL    HW281355   1.107   2.807   1.618  0.4298  1.5706  0.4482
25600SOL     OW81356   8.913   3.629   1.354  0.0009  1.2073  0.5895
25600SOL    HW181357   8.935   3.656   1.265 -0.7995 -0.5496 -0.1824
25600SOL    HW281358   8.998   3.605   1.393  0.1421 -0.2373 -0.5094
25601SOL     OW81359   9.251   2.397   4.255 -0.4544 -0.9415 -0.0723
25601SOL    HW181360   9.186   2.458   4.290  0.3677 -0.4943  0.7310
25601SOL    HW281361   9.265   2.334   4.326  1.9728  0.5514  0.9069
25602SOL     OW81362   0.518   3.042   4.813 -0.0931 -0.3220  0.1248
25602SOL    HW181363   0.560   2.994   4.741 -1.4339 -0.9704 -0.2440
25602SOL    HW281364   0.459   2.979   4.853 -0.5276  0.5026  0.8093
25603SOL     OW81365   9.185   8.951   4.147  0.0724 -0.0033  0.1141
25603SOL    HW181366   9.210   8.973   4.237 -0.6024 -0.9181  0.5368
25603SOL    HW281367   9.237   9.011   4.092  2.5372 -1.2162  0.9917
25604SOL     OW81368   6.963  10.148   9.531  0.4145 -0.3690 -0.6228
25604SOL    HW181369   7.030  10.080   9.538  1.5641  0.8546  0.8657
25604SOL    HW281370   6.986  10.197   9.452  0.2828 -0.9567 -1.0328
25605SOL     OW81371   6.977   0.561   2.310 -0.2891 -0.4754  0.1224
25605SOL    HW181372   7.057   0.613   2.312  0.0881 -0.9978 -0.7382
25605SOL    HW281373   6.938   0.574   2.396  1.1279 -0.8329  0.8455
25606SOL     OW81374   2.705   7.215   1.716 -0.1707  0.3011 -0.1559
25606SOL    HW181375   2.799   7.225   1.732 -0.1771  2.7070 -1.2166
25606SOL    HW281376   2.664   7.235   1.800  0.2118  0.9729 -0.1232
25607SOL     OW81377   0.074   2.609   3.254 -0.1617  0.5069  0.2489
25607SOL    HW181378   0.146   2.670   3.275  0.6117 -0.8834  1.8637
25607SOL    HW281379   0.003   2.635   3.312 -0.1862  0.4803  0.2309
25608SOL     OW81380  12.073  11.532   3.465 -0.1502 -0.6359  0.5375
25608SOL    HW181381  12.078  11.626   3.449 -0.9092 -0.4868  1.1434
25608SOL    HW281382  12.107  11.492   3.385  1.5469  0.1576  0.8173
25609SOL     OW81383   6.507  12.006   8.382  0.2968 -0.0275 -0.3146
25609SOL    HW181384   6.547  11.931   8.338 -0.3471 -0.8353  0.4329
25609SOL    HW281385   6.441  11.967   8.440  0.0899  1.1087  0.2411
25610SOL     OW81386   9.620   4.071   6.502  0.0245  0.3494  0.0667
25610SOL    HW181387   9.697   4.057   6.448 -1.9398 -1.7965 -2.4838
25610SOL    HW281388   9.637   4.023   6.583  0.8915 -1.2601 -1.0134
25611SOL     OW81389   9.963   7.218   6.637  0.1166  0.0745 -0.5429
25611SOL    HW181390   9.938   7.192   6.726  1.6963  0.2343 -0.0167
25611SOL    HW281391   9.985   7.136   6.594 -1.9212 -0.1580 -1.2642
25612SOL     OW81392   1.583  11.444   0.566  0.0554  0.5236  0.0770
25612SOL    HW181393   1.647  11.501   0.523  0.0114  0.5921  0.1028
25612SOL    HW281394   1.498  11.485   0.547 -0.2936 -1.1924 -2.5583
25613SOL     OW81395  10.795   3.638   7.122 -0.0270  0.1380  0.2344
25613SOL    HW181396  10.737   3.712   7.106 -2.5451 -1.4889  1.2044
25613SOL    HW281397  10.881   3.667   7.091 -1.6923  1.9588 -3.3012
25614SOL     OW81398  11.686   8.453   6.581  0.3988 -0.3149 -0.0353
25614SOL    HW181399  11.720   8.399   6.510 -0.7562  1.4646 -2.0626
25614SOL    HW281400  11.755   8.518   6.597  0.2524 -0.1106 -0.2280
25615SOL     OW81401   5.764   1.617   7.693 -0.1862  0.5915  0.0185
25615SOL    HW181402   5.730   1.533   7.660 -2.7941  0.6468  2.1784
25615SOL    HW281403   5.853   1.597   7.721 -0.2968 -1.1300 -0.7036
25616SOL     OW81404   9.386  10.650   8.587  0.4884  0.1311 -0.6147
25616SOL    HW181405   9.374  10.571   8.639  2.5337  0.6157  0.7002
25616SOL    HW281406   9.453  10.627   8.523  2.8387  1.3156  1.2358
25617SOL     OW81407   6.627   5.118   3.350  0.2304 -1.0941  0.2946
25617SOL    HW181408   6.626   5.036   3.301  0.5364 -0.7472 -0.2936
25617SOL    HW281409   6.704   5.165   3.317  0.7715 -1.0962  1.4930
25618SOL     OW81410   2.486   8.063   1.243  0.7830  0.4971 -0.2381
25618SOL    HW181411   2.490   8.156   1.263 -1.5368  0.2552  1.8041
25618SOL    HW281412   2.509   8.019   1.325 -0.7355 -0.6635 -0.3795
25619SOL     OW81413   0.855   3.354   8.040 -1.0554 -0.1197 -0.1375
25619SOL    HW181414   0.835   3.317   8.126  0.4478  0.5061  0.5250
25619SOL    HW281415   0.893   3.280   7.992  2.6998  0.5246  1.4557
25620SOL     OW81416   5.952   3.063   5.189  0.5452 -1.2721 -0.7392
25620SOL    HW181417   5.912   3.149   5.206  1.7563 -0.7021 -0.6235
25620SOL    HW281418   5.878   3.004   5.176 -0.3695  0.3659 -3.9728
25621SOL     OW81419   6.599   7.387   8.159  0.6892  0.3615 -0.3020
25621SOL    HW181420   6.539   7.442   8.110  0.0131  0.3599  0.5193
25621SOL    HW281421   6.629   7.322   8.094  0.8436  1.1596 -1.0490
25622SOL     OW81422   4.791   2.726  11.017  0.7454  0.2903  0.1330
25622SOL    HW181423   4.841   2.773  10.950  0.0128  1.8897  0.6430
25622SOL    HW281424   4.854   2.710  11.087  0.8773  1.1188  0.2182
25623SOL     OW81425   5.324  10.395   2.616  0.3913  0.5565 -0.6232
25623SOL    HW181426   5.354  10.320   2.666 -0.0550 -0.8264 -2.3240
25623SOL    HW281427   5.250  10.430   2.665  0.5721 -0.1562  0.1642
25624SOL     OW81428   5.944   1.294   7.161  0.2419  0.6385  0.2298
25624SOL    HW181429   6.003   1.369   7.163 -0.4291  1.1903 -0.4203
25624SOL    HW281430   5.963   1.250   7.078  0.1384  0.4914  0.2829
25625SOL     OW81431   7.953   0.640   2.044  0.2450 -0.3311 -0.1082
25625SOL    HW181432   7.925   0.646   2.135 -0.5981  0.1536 -0.3773
25625SOL    HW281433   7.972   0.731   2.019 -0.4684 -0.3217 -0.6742
25626SOL     OW81434  10.765   3.399   8.828 -0.1547 -0.1473  0.6532
25626SOL    HW181435  10.729   3.341   8.761  0.4625  0.8268 -0.5696
25626SOL    HW281436  10.828   3.455   8.781 -0.7702  1.5681  1.7455
25627SOL     OW81437   6.014   3.960  12.059  0.5541 -0.3763 -0.0533
25627SOL    HW181438   5.987   3.896  11.992  0.2487 -1.2280  0.8540
25627SOL    HW281439   6.007   4.045  12.015 -0.4467 -0.8488 -0.8557
25628SOL     OW81440   8.242   8.915   7.955  0.1390  0.0805 -0.5631
25628SOL    HW181441   8.326   8.956   7.977 -0.2648  0.2221  0.7982
25628SOL    HW281442   8.197   8.905   8.039 -1.8153  1.3148 -1.4048
25629SOL     OW81443   4.442   9.372   9.922  0.4790 -0.2094  0.2660
25629SOL    HW181444   4.469   9.284   9.898 -1.7350 -1.4989  2.1016
25629SOL    HW281445   4.476   9.385  10.010  0.8671  0.8309 -0.0229
25630SOL     OW81446   9.293   9.660   4.930 -0.0369 -0.0275  0.3667
25630SOL    HW181447   9.374   9.707   4.910 -0.0960 -0.8043 -2.0393
25630SOL    HW281448   9.317   9.568   4.925 -1.1758 -0.2858 -1.2006
25631SOL     OW81449   3.354  11.691  10.489 -0.3094  0.1001  0.0148
25631SOL    HW181450   3.321  11.781  10.493  2.4997  1.2307 -0.0427
25631SOL    HW281451   3.372  11.668  10.580  2.8796  1.3006 -0.1695
25632SOL     OW81452   5.895   3.450   2.935 -0.2193  0.3010 -0.2305
25632SOL    HW181453   5.840   3.528   2.933  0.0089  0.4747 -2.4943
25632SOL    HW281454   5.865   3.401   3.011 -1.6534  1.6919  0.1452
25633SOL     OW81455  11.856   2.454   8.356 -0.2184 -0.2490 -0.0529
25633SOL    HW181456  11.818   2.367   8.370 -1.2576  0.4653  1.9150
25633SOL    HW281457  11.787   2.503   8.310  0.6992 -0.6591 -1.9749
25634SOL     OW81458  11.223   7.187  10.702  0.0066  0.4056  0.0868
25634SOL    HW181459  11.264   7.174  10.616  1.4858  1.0485  0.6458
25634SOL    HW281460  11.192   7.101  10.728  0.8176 -0.0706 -0.4955
25635SOL     OW81461   5.855   7.023   8.291  0.2645 -0.1672 -0.1464
25635SOL    HW181462   5.825   7.064   8.372 -0.6252 -0.3205 -0.3872
25635SOL    HW281463   5.947   7.051   8.283  0.2788  0.0936  0.7491
25636SOL     OW81464  11.642   0.606   5.594  0.1691 -0.8493 -0.1226
25636SOL    HW181465  11.584   0.633   5.665 -0.1314  0.0273 -0.6840
25636SOL    HW281466  11.590   0.548   5.540 -0.3027  0.1477 -0.7747
25637SOL     OW81467   7.708  11.584   6.052  0.0701 -0.0594  0.5224
25637SOL    HW181468   7.740  11.593   6.142  1.2880 -0.1236  0.1190
25637SOL    HW281469   7.748  11.657   6.005 -0.7305  0.0989  0.0661
25638SOL     OW81470   8.991   8.328   9.628 -0.0083  0.2767  0.0982
25638SOL    HW181471   8.912   8.299   9.581  1.2254 -0.2970 -1.7277
25638SOL    HW281472   8.961   8.344   9.717 -2.1690 -0.0386 -0.5099
25639SOL     OW81473   4.118   0.262   1.326 -0.2395 -0.0263  0.1891
25639SOL    HW181474   4.199   0.236   1.369 -0.0777 -1.1433 -0.7699
25639SOL    HW281475   4.144   0.288   1.238 -0.7619  0.8447  0.2847
25640SOL     OW81476   5.624  10.726   9.727 -0.0838  0.5194  0.3635
25640SOL    HW181477   5.666  10.727   9.641  0.7413 -0.9916  0.7153
25640SOL    HW281478   5.593  10.636   9.737 -0.8766  0.8850  1.3238
25641SOL     OW81479  10.442   0.661   8.331  0.0256  0.2953 -0.1190
25641SOL    HW181480  10.445   0.751   8.365  0.0402  1.1412 -2.2412
25641SOL    HW281481  10.526   0.623   8.355  0.5018  1.2561 -0.2499
25642SOL     OW81482   7.650   5.872   9.710  0.0662 -0.1641 -0.6632
25642SOL    HW181483   7.561   5.856   9.679  0.5715 -0.8675 -1.8269
25642SOL    HW281484   7.651   5.836   9.798 -1.2885  1.4874  0.0875
25643SOL     OW81485   6.910   2.289   9.190  0.4705 -0.1831  0.7353
25643SOL    HW181486   6.992   2.313   9.232  1.9500 -1.2288 -1.3762
25643SOL    HW281487   6.902   2.195   9.204 -0.7723  0.0101  1.5106
25644SOL     OW81488   6.787   1.454  12.061  0.3126  0.0738  0.0341
25644SOL    HW181489   6.864   1.400  12.071  0.6044  0.3824 -0.4905
25644SOL    HW281490   6.723   1.398  12.018  0.5616  0.0947 -0.3681
25645SOL     OW81491   5.098   6.393   2.446  0.3232 -0.0635  0.0785
25645SOL    HW181492   5.062   6.481   2.432  1.3499  0.5745  1.2681
25645SOL    HW281493   5.081   6.374   2.538 -1.2305 -1.7806 -0.5030
25646SOL     OW81494   6.416   0.989   2.766 -0.1980 -0.4486  0.2165
25646SOL    HW181495   6.383   0.914   2.817 -1.5167  0.4225  0.6954
25646SOL    HW281496   6.351   1.058   2.781  0.0204  0.2208 -1.7054
25647SOL     OW81497   6.333   0.144   2.012  0.5723  0.1255  0.1430
25647SOL    HW181498   6.383   0.072   2.049 -1.9457 -1.0736  1.4182
25647SOL    HW281499   6.312   0.200   2.087 -0.1762  0.4890 -0.3233
25648SOL     OW81500   5.194   2.760  11.278  0.0937 -0.0098  0.0635
25648SOL    HW181501   5.286   2.742  11.298  1.0619  0.0303 -3.6378
25648SOL    HW281502   5.192   2.852  11.253 -0.7977 -0.1791 -0.5478
25649SOL     OW81503   1.207   5.461   6.928  0.1787  0.3271 -0.4608
25649SOL    HW181504   1.278   5.397   6.918  0.3853  0.5921 -0.6747
25649SOL    HW281505   1.127   5.409   6.918  0.3512  0.3058 -1.9210
25650SOL     OW81506   1.624   1.249   7.640 -0.1693  0.4911  0.1135
25650SOL    HW181507   1.624   1.157   7.612  0.2916  0.3331  0.6017
25650SOL    HW281508   1.587   1.247   7.728  1.0934  0.5791  0.6729
25651SOL     OW81509   8.343  11.349   4.732  0.1293 -0.3332  0.3584
25651SOL    HW181510   8.358  11.332   4.639  0.5156  0.5531  0.2529
25651SOL    HW281511   8.429  11.340   4.773  0.7947  3.1093  0.0079
25652SOL     OW81512  10.336   9.597   0.748 -0.0089  0.1758 -0.6443
25652SOL    HW181513  10.359   9.551   0.828 -0.1290  0.1418 -0.6301
25652SOL    HW281514  10.269   9.543   0.706 -2.0705  1.5981  0.6383
25653SOL     OW81515   4.055   1.761   7.282  0.2047  0.4600  0.5280
25653SOL    HW181516   3.999   1.685   7.297 -1.7203  1.9617  1.4510
25653SOL    HW281517   4.143   1.725   7.273 -0.7022 -1.8961  0.4223
25654SOL     OW81518   8.034   5.139   2.529  0.0758 -0.0601 -0.1668
25654SOL    HW181519   8.123   5.105   2.529 -0.0339 -0.3778 -1.4059
25654SOL    HW281520   7.991   5.092   2.601  0.7630 -0.2732  0.1145
25655SOL     OW81521  12.106   2.042  10.873  0.0547  0.5978  0.4388
25655SOL    HW181522  12.158   2.113  10.836 -0.0171 -0.2464 -1.3582
25655SOL    HW281523  12.169   1.973  10.893 -0.0703  0.5659  0.7341
25656SOL     OW81524   2.822  10.623   7.840 -0.3175 -0.1439 -0.1168
25656SOL    HW181525   2.798  10.639   7.931  1.2760  0.5148  0.2396
25656SOL    HW281526   2.844  10.710   7.805 -0.8353 -0.3945 -1.1172
25657SOL     OW81527   9.941   2.922   1.723 -0.6868 -0.2759 -0.3807
25657SOL    HW181528   9.918   2.941   1.813  0.6508  0.3137 -0.1446
25657SOL    HW281529   9.986   2.838   1.727  1.8084  0.9849 -0.0582
25658SOL     OW81530  10.800   8.043   9.839  0.0167 -0.3111 -0.6155
25658SOL    HW181531  10.733   8.095   9.794 -0.8176  1.7986  2.6637
25658SOL    HW281532  10.750   7.977   9.888  0.5928 -0.6911 -0.5411
25659SOL     OW81533   1.084  10.064   7.288 -0.2059  0.2510  0.0223
25659SOL    HW181534   1.101  10.101   7.375  0.1639 -1.9624  0.9709
25659SOL    HW281535   1.170  10.061   7.246  0.4786 -2.6790  1.3577
25660SOL     OW81536   3.982  11.923   0.817 -0.2705 -0.0026 -0.2830
25660SOL    HW181537   3.993  11.828   0.829 -1.3842  0.0634  1.4053
25660SOL    HW281538   3.912  11.931   0.752 -1.2541 -0.3565  0.7071
25661SOL     OW81539  10.189  12.107   3.521  0.0600  0.2373 -0.0530
25661SOL    HW181540  10.095  12.124   3.529 -0.1621 -1.7399  2.8600
25661SOL    HW281541  10.231  12.188   3.550 -0.8626 -0.1934  2.7811
25662SOL     OW81542   6.576   5.518  11.683  0.5534  0.0696  0.0661
25662SOL    HW181543   6.669   5.505  11.701  0.3290  0.0816  1.2790
25662SOL    HW281544   6.556   5.606  11.715 -0.3648 -0.7763  1.9870
25663SOL     OW81545   9.656   8.766   1.182  0.1687 -0.5853 -0.1608
25663SOL    HW181546   9.683   8.855   1.159  1.0199 -1.2173 -1.7768
25663SOL    HW281547   9.561   8.771   1.192  0.3137  0.6972  0.7430
25664SOL     OW81548   5.211   1.424   9.091 -0.2503 -0.4200  0.3689
25664SOL    HW181549   5.148   1.369   9.044  0.7701 -0.2008 -1.3614
25664SOL    HW281550   5.261   1.467   9.021  0.2375  1.2417  1.6817
25665SOL     OW81551  11.223   7.598   2.141  0.6540 -0.2066  0.1729
25665SOL    HW181552  11.263   7.515   2.118 -1.4368 -1.3582  0.4370
25665SOL    HW281553  11.141   7.600   2.091 -0.3118  0.7359  1.6912
25666SOL     OW81554   5.486   1.939   3.865 -0.2412 -0.2645  0.4793
25666SOL    HW181555   5.457   1.978   3.948 -1.6798 -3.6650  1.7368
25666SOL    HW281556   5.405   1.925   3.816  0.4277  0.0244 -0.7306
25667SOL     OW81557   4.865   1.546   3.463 -0.0977 -0.3331  0.4080
25667SOL    HW181558   4.901   1.547   3.374 -1.5724 -1.5257 -0.2583
25667SOL    HW281559   4.770   1.537   3.449 -0.6202  1.8363  2.0687
25668SOL     OW81560   0.289   6.009   8.053 -0.1464  0.0688  0.4265
25668SOL    HW181561   0.252   6.003   7.965 -1.1899 -1.7063  0.9437
25668SOL    HW281562   0.383   6.022   8.039 -0.3561  0.2007 -0.9409
25669SOL     OW81563  10.966   8.425   7.836  0.1917 -0.2938 -0.3599
25669SOL    HW181564  10.998   8.514   7.819  0.5840  0.0100  1.7111
25669SOL    HW281565  10.873   8.430   7.813  0.1694  0.7065 -0.1354
25670SOL     OW81566   3.304   8.135   8.548 -0.3978  0.4692 -0.0710
25670SOL    HW181567   3.393   8.134   8.512  0.0234  1.4871  0.8666
25670SOL    HW281568   3.258   8.067   8.500  0.9972 -0.3541 -0.3082
25671SOL     OW81569   3.079   0.126   3.594  0.8656  0.2663  0.2224
25671SOL    HW181570   3.124   0.053   3.552 -1.5259 -1.7341  0.8754
25671SOL    HW281571   3.042   0.088   3.674 -0.6386  2.1271  0.4817
25672SOL     OW81572   6.012   2.431   1.297 -0.6008  0.8139  0.3156
25672SOL    HW181573   6.022   2.379   1.217 -0.8653 -1.3836  1.6238
25672SOL    HW281574   5.926   2.405   1.331 -0.9183  2.4483  0.8194
25673SOL     OW81575  11.734   7.483   1.273  0.2695  0.4487 -0.2213
25673SOL    HW181576  11.668   7.419   1.303  0.9230  0.0819  0.4575
25673SOL    HW281577  11.742   7.545   1.345  3.1909 -1.4564  1.2886
25674SOL     OW81578  11.124   0.476   3.967  0.1022 -0.5919 -0.5107
25674SOL    HW181579  11.124   0.481   3.872  0.9301 -0.4438 -0.5108
25674SOL    HW281580  11.114   0.567   3.996 -0.7664 -0.6963 -0.4423
25675SOL     OW81581   1.775   5.589   5.933 -0.2044  0.2918  0.2539
25675SOL    HW181582   1.816   5.520   5.881 -0.6094  1.0644 -1.1407
25675SOL    HW281583   1.715   5.543   5.991 -0.0781 -0.5708 -0.2802
25676SOL     OW81584   2.537   0.005   5.488 -0.2579  0.3012 -0.2225
25676SOL    HW181585   2.615   0.016   5.433 -0.7084 -1.3633 -1.3048
25676SOL    HW281586   2.463   0.018   5.428 -0.7733 -0.7143  0.1553
25677SOL     OW81587  11.612   8.497   8.487  0.0515 -0.3277 -0.0457
25677SOL    HW181588  11.630   8.404   8.470  0.2077 -0.4137  0.5967
25677SOL    HW281589  11.610   8.504   8.582 -0.5967  0.2070 -0.0954
25678SOL     OW81590   6.264   5.846   7.606 -0.6476 -0.2033 -1.1485
25678SOL    HW181591   6.180   5.848   7.560 -1.2433  1.4391 -0.0942
25678SOL    HW281592   6.263   5.925   7.661  2.6034  1.2240 -2.8905
25679SOL     OW81593   5.673   8.197  12.023 -0.1241  0.0618 -0.1628
25679SOL    HW181594   5.638   8.265  12.080  0.0644  0.0419 -0.0204
25679SOL    HW281595   5.724   8.245  11.958 -1.1536  0.1584 -0.9167
25680SOL     OW81596  10.892   3.386   0.737  0.3410  0.0813 -0.1983
25680SOL    HW181597  10.954   3.458   0.740  0.0720  0.3514 -1.1015
25680SOL    HW281598  10.940   3.314   0.695  0.0356  0.3062 -0.9439
25681SOL     OW81599  10.508   2.695   2.486  0.8340 -0.3594 -0.5431
25681SOL    HW181600  10.423   2.692   2.529  1.2169 -0.8477  0.1978
25681SOL    HW281601  10.526   2.605   2.461  1.4697 -0.3849 -0.0112
25682SOL     OW81602   7.908   5.486   6.646 -0.2043  0.2903  0.1172
25682SOL    HW181603   7.864   5.568   6.625 -0.0143  0.5909  0.8714
25682SOL    HW281604   7.979   5.480   6.582 -1.7618 -0.5884 -1.6304
25683SOL     OW81605  11.365   7.102   8.620 -0.5261  0.1376 -0.0786
25683SOL    HW181606  11.278   7.070   8.644  0.6997 -2.6794  0.9422
25683SOL    HW281607  11.371   7.088   8.525 -0.5892 -1.2824  0.1147
25684SOL     OW81608  12.108  11.516   6.084  0.0188  0.2855  0.2856
25684SOL    HW181609  12.074  11.603   6.101 -0.9348 -0.1811  0.8453
25684SOL    HW281610  12.134  11.517   5.992  0.7624  1.3892  0.4888
25685SOL     OW81611   8.478   0.727   8.132 -0.4026 -0.2366 -0.0373
25685SOL    HW181612   8.568   0.734   8.101 -0.4524 -0.0112 -0.1326
25685SOL    HW281613   8.476   0.645   8.180  0.2562  0.5054  1.3205
25686SOL     OW81614   0.249  11.847   1.608  0.2129 -0.3792  0.6130
25686SOL    HW181615   0.232  11.866   1.515 -0.9902 -0.2061  0.8529
25686SOL    HW281616   0.169  11.873   1.653  1.1086  0.3990  1.8393
25687SOL     OW81617   6.999  10.607   2.886 -0.1965  0.2747  0.0611
25687SOL    HW181618   6.996  10.703   2.891  2.1684  0.5939 -2.4124
25687SOL    HW281619   6.978  10.587   2.794 -0.3185 -1.5597  0.4462
25688SOL     OW81620   1.305   9.295   2.865  0.4745 -0.1699  0.4752
25688SOL    HW181621   1.370   9.250   2.919  0.7874  1.0315  1.1350
25688SOL    HW281622   1.349   9.376   2.838 -0.3180  0.0762 -0.1063
25689SOL     OW81623   4.467   0.595  11.407  0.6667 -0.1145  0.3813
25689SOL    HW181624   4.509   0.521  11.451  0.5447 -0.6556 -0.3951
25689SOL    HW281625   4.430   0.557  11.327  1.1170  0.9056 -0.3153
25690SOL     OW81626   8.664   7.038   7.296  0.2056  0.1466  0.0951
25690SOL    HW181627   8.638   7.071   7.382 -0.5394 -1.9952  0.7693
25690SOL    HW281628   8.710   7.111   7.255 -0.0526  1.4706  2.0189
25691SOL     OW81629   4.007  10.158   0.603  0.3449 -1.3294 -0.4605
25691SOL    HW181630   3.939  10.092   0.594 -0.4377 -0.3690 -2.3239
25691SOL    HW281631   4.020  10.168   0.697 -0.7871 -2.8394 -0.1143
25692SOL     OW81632  11.286   9.227   6.358  0.3764  0.3083 -0.0575
25692SOL    HW181633  11.239   9.191   6.283 -0.0045  0.0475  0.2987
25692SOL    HW281634  11.255   9.175   6.432 -0.4852  1.6222  0.5399
25693SOL     OW81635  11.683   6.295   5.576  0.2759 -0.4889  0.1173
25693SOL    HW181636  11.673   6.237   5.500  0.8363 -1.9718  1.1376
25693SOL    HW281637  11.597   6.295   5.617  0.8367 -2.6395  1.4789
25694SOL     OW81638   2.482   2.535   1.398  0.7724 -0.3653 -0.3084
25694SOL    HW181639   2.502   2.495   1.314  0.4075 -1.2605  0.0174
25694SOL    HW281640   2.403   2.490   1.428  1.0136 -0.2059  0.6097
25695SOL     OW81641   5.283   2.698   9.686 -0.0795 -0.3639 -0.3342
25695SOL    HW181642   5.225   2.772   9.704  1.3500  0.4521  1.1145
25695SOL    HW281643   5.312   2.711   9.596 -0.7254  0.2116 -0.4610
25696SOL     OW81644  10.429   2.951   9.183 -0.1636  0.5761  0.2495
25696SOL    HW181645  10.516   2.987   9.197 -0.3292  0.7052  0.9701
25696SOL    HW281646  10.406   2.909   9.266  0.5058 -2.2844 -0.8950
25697SOL     OW81647   8.798   1.792   1.397  0.4205 -0.2406  0.5412
25697SOL    HW181648   8.768   1.840   1.474 -0.4446 -0.1928  0.1799
25697SOL    HW281649   8.847   1.718   1.432  0.8364  0.2944  1.1195
25698SOL     OW81650  11.240   4.086   4.658  0.3106 -0.2214 -0.2515
25698SOL    HW181651  11.271   4.126   4.739  0.6943  0.6683 -0.8211
25698SOL    HW281652  11.180   4.151   4.621  1.3045  0.0624 -1.4298
25699SOL     OW81653  11.691   1.440   1.243  0.1004  0.2237 -0.2752
25699SOL    HW181654  11.698   1.438   1.338 -2.3425  0.2586 -0.0227
25699SOL    HW281655  11.671   1.349   1.218 -3.1807  0.8175 -0.2539
25700SOL     OW81656   5.884   1.458   0.431  0.6144  0.8696 -0.7431
25700SOL    HW181657   5.857   1.547   0.455 -1.0861 -0.0009  0.7491
25700SOL    HW281658   5.879   1.409   0.513  1.0788 -0.7284 -1.6418
25701SOL     OW81659  11.389  11.481   7.529 -0.4242  0.3410 -0.3842
25701SOL    HW181660  11.372  11.389   7.509  0.8332 -0.3007  1.3154
25701SOL    HW281661  11.380  11.487   7.624 -2.2875  2.4007 -0.6068
25702SOL     OW81662   4.893   7.673   2.938  0.2607  0.6647  0.5974
25702SOL    HW181663   4.876   7.672   2.844 -0.5316  1.7617  0.7197
25702SOL    HW281664   4.808   7.657   2.978  0.5530  0.4470  1.1426
25703SOL     OW81665   3.316   4.078   5.337 -0.0421 -0.5121 -0.0941
25703SOL    HW181666   3.317   4.127   5.419 -0.2487  1.1192 -1.0220
25703SOL    HW281667   3.382   4.121   5.282 -1.4523 -0.0902 -1.5613
25704SOL     OW81668   8.840   2.680   9.690  0.3615 -0.2566  0.1751
25704SOL    HW181669   8.769   2.666   9.753 -0.8367  1.5263 -0.6954
25704SOL    HW281670   8.892   2.750   9.729 -0.7363  1.2921 -1.0034
25705SOL     OW81671   6.639   4.814   3.808 -0.0723 -0.0885 -0.4683
25705SOL    HW181672   6.653   4.817   3.902  1.2942  0.5356 -0.6633
25705SOL    HW281673   6.599   4.899   3.787 -0.5500 -0.3027 -0.4297
25706SOL     OW81674   5.267   9.266   9.717 -0.1631  0.0476 -0.0278
25706SOL    HW181675   5.292   9.352   9.684 -0.2595  0.0689 -0.0450
25706SOL    HW281676   5.228   9.222   9.642 -0.4318  0.1148  0.0719
25707SOL     OW81677   8.085   2.630   8.037  0.3627 -0.2038  0.2866
25707SOL    HW181678   8.010   2.578   8.065 -0.9662  1.5923  0.2236
25707SOL    HW281679   8.080   2.631   7.941 -0.4337  1.1500  0.3289
25708SOL     OW81680   3.531   4.629   3.564  0.0832  0.1077 -0.8557
25708SOL    HW181681   3.461   4.577   3.601 -0.7365 -0.1787 -2.6793
25708SOL    HW281682   3.609   4.574   3.572  0.6879  1.2473  3.1047
25709SOL     OW81683  10.563   4.453  10.579  0.3344 -0.3714  0.0114
25709SOL    HW181684  10.513   4.415  10.506 -1.6744  0.0824  1.0788
25709SOL    HW281685  10.565   4.384  10.645  2.2027 -0.8020 -0.4467
25710SOL     OW81686   1.748  10.537   0.426  0.0665  0.2583 -0.3499
25710SOL    HW181687   1.804  10.611   0.403  1.5244 -0.7942 -0.3478
25710SOL    HW281688   1.780  10.465   0.372 -2.6161  0.0475 -1.8378
25711SOL     OW81689   5.124   2.070   7.256  0.0968  0.1533 -0.7867
25711SOL    HW181690   5.202   2.122   7.275 -0.6974  0.7267  1.1228
25711SOL    HW281691   5.143   1.983   7.288  0.8054 -0.3568 -2.4890
25712SOL     OW81692   4.067   3.689   6.040 -0.5412  0.1958 -0.1526
25712SOL    HW181693   4.070   3.594   6.028 -0.4877  0.2077 -0.2344
25712SOL    HW281694   3.974   3.711   6.034 -0.8194 -0.1294  2.0073
25713SOL     OW81695   4.882  11.465   0.381  0.2305  0.2977 -0.6303
25713SOL    HW181696   4.902  11.551   0.416 -2.7457  0.5405  0.7723
25713SOL    HW281697   4.788  11.453   0.399  0.6210 -3.4198 -0.3141
25714SOL     OW81698   7.144   1.088  11.515 -0.1252  0.9618  0.0565
25714SOL    HW181699   7.062   1.133  11.538 -0.2726 -0.1439  1.8459
25714SOL    HW281700   7.178   1.056  11.598  0.3135 -1.6358 -1.0483
25715SOL     OW81701   2.303   8.104   0.069  0.2363 -0.0146  0.1966
25715SOL    HW181702   2.373   8.093   0.005  0.0399 -0.8956  0.1247
25715SOL    HW281703   2.237   8.040   0.044  0.2339 -0.5021  1.3683
25716SOL     OW81704   6.899   5.619   2.176  0.2111 -0.0200 -0.5772
25716SOL    HW181705   6.957   5.664   2.237  0.2985 -0.0339 -0.6505
25716SOL    HW281706   6.942   5.627   2.091  0.4358 -0.6026 -0.5223
25717SOL     OW81707  10.334   9.332   6.996  0.3846  0.4736  0.6860
25717SOL    HW181708  10.373   9.372   7.074 -0.8940  0.9405  1.1150
25717SOL    HW281709  10.242   9.319   7.019  0.0658  0.2540 -0.6179
25718SOL     OW81710   7.869   4.679  10.509 -0.1565 -0.3895  0.0457
25718SOL    HW181711   7.857   4.696  10.602 -1.0366 -0.1348 -0.1067
25718SOL    HW281712   7.961   4.653  10.501 -0.6375 -2.7965  1.3382
25719SOL     OW81713   3.950   4.773   1.532 -0.6485  0.5033 -0.2020
25719SOL    HW181714   3.956   4.677   1.525  0.3356  0.6231 -1.3702
25719SOL    HW281715   3.950   4.790   1.626 -1.8980 -0.6899  0.0571
25720SOL     OW81716   3.378  11.111   9.944  0.0188 -0.1571 -0.0102
25720SOL    HW181717   3.308  11.047   9.930 -0.7902  0.9166 -1.0452
25720SOL    HW281718   3.424  11.115   9.860 -0.1841  0.8909 -0.0823
25721SOL     OW81719  10.884   3.235   0.422 -0.0531 -0.5449 -0.1511
25721SOL    HW181720  10.835   3.309   0.457  2.3158  0.1324  2.0044
25721SOL    HW281721  10.912   3.264   0.335  0.8201  1.1494  0.6529
25722SOL     OW81722   8.181   5.488   3.475 -0.4365  0.2078  0.4103
25722SOL    HW181723   8.266   5.459   3.509 -0.1915 -0.0797 -0.4264
25722SOL    HW281724   8.199   5.512   3.384 -1.0047  1.2823  0.5650
25723SOL     OW81725  11.940   8.449   3.514  0.2409  0.2417 -0.0315
25723SOL    HW181726  11.847   8.426   3.516 -0.2515  2.0397 -0.7859
25723SOL    HW281727  11.944   8.528   3.461  2.0576  0.8692  0.9672
25724SOL     OW81728   8.510   7.983   4.792 -0.1035  0.3346  0.5311
25724SOL    HW181729   8.449   8.037   4.742 -0.4594  0.3089  0.9371
25724SOL    HW281730   8.487   7.999   4.884  2.4979  2.8291  0.9232
25725SOL     OW81731   4.727   9.699   1.243  0.5279 -0.6563 -0.3111
25725SOL    HW181732   4.633   9.685   1.226  1.0287 -1.9534 -2.3712
25725SOL    HW281733   4.731   9.720   1.336 -1.9444  0.8415 -0.4424
25726SOL     OW81734   7.552   3.538   0.693 -0.0812  0.4578  0.2427
25726SOL    HW181735   7.499   3.617   0.684 -0.2567  0.3642  0.4417
25726SOL    HW281736   7.489   3.466   0.682  0.1124  0.3454 -0.1551
25727SOL     OW81737   0.818   8.300   7.602 -0.0645 -0.5857  0.4423
25727SOL    HW181738   0.872   8.261   7.671  1.8071 -1.4198 -1.3599
25727SOL    HW281739   0.771   8.225   7.563  0.1896 -0.4033 -0.2370
25728SOL     OW81740   8.668   9.758   9.172  0.6157  0.2424  0.2715
25728SOL    HW181741   8.588   9.710   9.150  0.1406 -0.3177  2.8658
25728SOL    HW281742   8.725   9.694   9.213  1.9076  0.9326 -0.3599
25729SOL     OW81743   7.580   1.389  10.699  0.7639 -0.8829 -0.0872
25729SOL    HW181744   7.590   1.392  10.795 -0.2381 -2.6836  0.1248
25729SOL    HW281745   7.535   1.470  10.677  2.6164  0.4285  0.7135
25730SOL     OW81746   7.425   8.976   2.692 -0.3492  0.3239  0.4925
25730SOL    HW181747   7.507   8.951   2.649 -0.6268 -0.8256  0.5848
25730SOL    HW281748   7.382   9.035   2.630  0.9286  1.6389  0.8183
25731SOL     OW81749   8.795  11.917   3.099 -0.4084  0.4416 -0.0364
25731SOL    HW181750   8.768  12.008   3.098  1.8878  1.1860  0.3684
25731SOL    HW281751   8.859  11.910   3.028  0.8996 -0.3242  1.1591
25732SOL     OW81752   7.526   2.548   6.876  0.2424 -0.0063 -0.2069
25732SOL    HW181753   7.535   2.456   6.900 -1.0893 -0.5050 -1.4645
25732SOL    HW281754   7.517   2.547   6.781  0.8156  1.4853 -0.3020
25733SOL     OW81755   6.488   4.244   1.507 -0.1312  0.6044 -0.0292
25733SOL    HW181756   6.440   4.185   1.449  0.7149  0.5422 -0.6744
25733SOL    HW281757   6.503   4.323   1.454  0.0367  0.8190  0.3349
25734SOL     OW81758  10.380   3.456  12.088  0.0592 -0.5398 -0.1741
25734SOL    HW181759  10.287   3.452  12.067  0.0240 -0.5131 -0.0257
25734SOL    HW281760  10.397   3.376  12.138  0.1842 -0.6963 -0.4632
25735SOL     OW81761   9.208   5.045   9.334 -0.0189 -0.0855  0.1356
25735SOL    HW181762   9.158   4.964   9.337  0.3322 -0.3494 -0.7280
25735SOL    HW281763   9.170   5.100   9.403  0.8898 -1.6129  1.9138
25736SOL     OW81764  11.165   3.857   1.288  0.6450  0.0086 -0.1787
25736SOL    HW181765  11.172   3.935   1.343 -1.9740  1.0830 -1.1996
25736SOL    HW281766  11.105   3.800   1.336  1.8533 -1.0625  0.1309
25737SOL     OW81767  11.791   1.906   0.378  0.3039 -0.7970 -0.3650
25737SOL    HW181768  11.779   1.972   0.446 -2.5537 -1.5417 -0.0326
25737SOL    HW281769  11.794   1.956   0.296  0.3884 -0.1199  0.0436
25738SOL     OW81770   8.553   9.014   0.751  0.0726 -0.0726 -0.2065
25738SOL    HW181771   8.494   8.941   0.769 -0.8329 -0.2470 -3.2379
25738SOL    HW281772   8.573   9.006   0.657  2.3460  1.8670  0.0138
25739SOL     OW81773   9.429   3.277   5.352 -0.7317 -0.9319  0.9120
25739SOL    HW181774   9.355   3.322   5.311 -1.1864  0.5211  3.1326
25739SOL    HW281775   9.448   3.203   5.294 -1.9725  0.3721 -1.2771
25740SOL     OW81776   9.155   1.634   1.883 -0.0271 -0.3882 -0.1271
25740SOL    HW181777   9.133   1.598   1.797 -0.8759 -3.2995  1.1832
25740SOL    HW281778   9.179   1.558   1.936  0.5132  1.2981  2.2147
25741SOL     OW81779   7.499   3.086   6.329 -0.1928 -0.1148  0.3981
25741SOL    HW181780   7.499   3.060   6.237 -0.2309 -1.1472  0.6733
25741SOL    HW281781   7.574   3.039   6.367  0.6956  1.4054  0.6093
25742SOL     OW81782   1.813   7.326   5.980 -0.8324  0.0582 -0.2874
25742SOL    HW181783   1.900   7.285   5.976 -0.7433  0.3108 -3.3297
25742SOL    HW281784   1.806   7.375   5.898 -4.1640 -0.5936 -0.5195
25743SOL     OW81785   3.760   4.063   3.369 -0.1493 -0.1439  0.1940
25743SOL    HW181786   3.684   4.095   3.418  0.3074  0.4952  0.4960
25743SOL    HW281787   3.739   3.972   3.349 -1.3094  0.2223 -0.3417
25744SOL     OW81788   6.575   7.912   1.205 -0.5493 -0.0562  0.3450
25744SOL    HW181789   6.591   7.842   1.142 -1.3700 -0.3977  0.5010
25744SOL    HW281790   6.653   7.967   1.200 -0.0983 -0.7191 -0.1230
25745SOL     OW81791   0.881  10.990   8.046  0.7603 -0.3702 -0.0067
25745SOL    HW181792   0.939  10.927   8.002  1.0358  0.2751 -0.5833
25745SOL    HW281793   0.871  10.955   8.135 -0.8459 -2.3769 -0.9066
25746SOL     OW81794   6.603   3.420   0.219  0.6028 -0.1866  0.1825
25746SOL    HW181795   6.644   3.397   0.136  1.4511  1.0099  0.2295
25746SOL    HW281796   6.553   3.342   0.244  1.6008 -1.1377 -0.6686
25747SOL     OW81797   7.386   1.994   4.861 -0.1405 -0.3666  0.1982
25747SOL    HW181798   7.347   2.038   4.785 -2.0970 -0.5182  1.0356
25747SOL    HW281799   7.396   1.903   4.834 -0.6120 -0.3694  0.0177
25748SOL     OW81800   8.424   6.241   1.575 -0.4744  0.1153  0.0901
25748SOL    HW181801   8.439   6.327   1.535  0.8949 -0.1055  0.0658
25748SOL    HW281802   8.443   6.179   1.505  1.0941 -0.2500  0.7897
25749SOL     OW81803   4.286   8.773   6.660 -0.4810  0.0818 -0.1370
25749SOL    HW181804   4.274   8.866   6.679 -0.2575 -0.1578  1.2859
25749SOL    HW281805   4.380   8.765   6.640 -0.4332  0.1108  0.0717
25750SOL     OW81806   3.653   7.130   3.243  0.2372  0.1023 -0.1192
25750SOL    HW181807   3.558   7.126   3.251  0.2847  0.2608  0.6574
25750SOL    HW281808   3.684   7.132   3.334  0.9901 -0.1896 -0.3606
25751SOL     OW81809   1.918  11.312   2.067 -0.1679 -0.1042 -0.3969
25751SOL    HW181810   1.953  11.383   2.122 -1.4213  0.3209 -0.1084
25751SOL    HW281811   1.833  11.292   2.106  0.2435 -1.9463 -0.3377
25752SOL     OW81812   7.700   9.877  11.387  0.7235  0.0439  0.3219
25752SOL    HW181813   7.712   9.969  11.362 -0.1743  0.3663  1.0023
25752SOL    HW281814   7.724   9.828  11.309  0.5128  0.9022 -0.3050
25753SOL     OW81815   7.038   8.340   0.544  0.0897 -0.3266 -0.6420
25753SOL    HW181816   6.946   8.355   0.523 -0.3622 -1.7074  0.2042
25753SOL    HW281817   7.046   8.245   0.551  1.4374 -0.2000 -0.0791
25754SOL     OW81818   6.967   3.705   9.369  0.5465 -0.4229  0.0350
25754SOL    HW181819   6.902   3.639   9.394  0.3158 -0.3439 -0.3372
25754SOL    HW281820   7.026   3.711   9.444 -0.5380  0.3264  0.8615
25755SOL     OW81821  11.058   9.976  12.039  0.3869 -0.3495  0.3332
25755SOL    HW181822  10.972  10.016  12.023  0.3635 -1.3989 -2.8247
25755SOL    HW281823  11.039   9.883  12.052  1.0087 -0.4983  0.2010
25756SOL     OW81824   3.018   3.252   4.453 -0.2967  0.2742  0.0048
25756SOL    HW181825   2.998   3.214   4.538 -3.2988 -0.4208 -0.8572
25756SOL    HW281826   2.992   3.184   4.390  0.2222  1.3899 -1.4744
25757SOL     OW81827   5.413   1.657   3.913 -0.0839 -0.5415  0.4074
25757SOL    HW181828   5.430   1.749   3.889 -0.5211 -0.1991  1.3907
25757SOL    HW281829   5.461   1.607   3.847 -0.7689  0.3771 -0.8463
25758SOL     OW81830  10.841   3.500  11.576 -0.0041 -0.1740  0.1671
25758SOL    HW181831  10.896   3.505  11.655 -0.0304  0.7702  0.1370
25758SOL    HW281832  10.771   3.563  11.592 -1.1442 -1.4255  0.2362
25759SOL     OW81833   9.037  11.766   6.158 -0.0236 -0.4387 -0.4902
25759SOL    HW181834   9.048  11.856   6.128  1.2449 -0.2052  0.5613
25759SOL    HW281835   8.965  11.731   6.106 -0.1049  0.9796 -1.3671
25760SOL     OW81836   6.052   2.285   8.597  0.0108 -0.1583  0.1815
25760SOL    HW181837   6.047   2.289   8.693 -0.4104  1.6660  0.1166
25760SOL    HW281838   5.991   2.214   8.574 -1.3149  0.5906  1.1927
25761SOL     OW81839   0.042   4.093  11.606  0.8639 -1.1003 -0.0396
25761SOL    HW181840   0.077   4.008  11.579  2.6528  0.2309 -2.2389
25761SOL    HW281841   0.025   4.140  11.524  0.7367  0.9845  1.1087
25762SOL     OW81842   7.981   1.192   7.141  0.2318  0.4188 -0.0136
25762SOL    HW181843   7.953   1.277   7.176  0.4887  0.3851  0.2750
25762SOL    HW281844   8.057   1.212   7.087 -0.1437  0.4663 -0.5333
25763SOL     OW81845   2.037   7.020   9.506  0.7343 -0.2379 -0.2735
25763SOL    HW181846   2.066   7.088   9.446 -0.3226 -0.9670 -1.6685
25763SOL    HW281847   2.077   6.939   9.473  0.3371 -0.6112  0.1345
25764SOL     OW81848   3.427   9.598   5.411 -0.0463 -0.2024  0.6554
25764SOL    HW181849   3.422   9.513   5.455 -0.4711 -0.8524 -0.5947
25764SOL    HW281850   3.466   9.579   5.326 -2.8403  0.2994 -0.8705
25765SOL     OW81851   7.689   6.138   8.431  0.1291 -0.1273  0.1225
25765SOL    HW181852   7.742   6.116   8.508 -0.5958  0.7614  0.9035
25765SOL    HW281853   7.689   6.234   8.429 -0.2512 -0.1399 -0.7104
25766SOL     OW81854  12.098  11.437   5.457 -0.2279  0.1210  0.4816
25766SOL    HW181855  12.184  11.455   5.496  0.2792 -1.0223 -0.0793
25766SOL    HW281856  12.067  11.358   5.501 -0.8579  0.3514  0.4590
25767SOL     OW81857   5.838   5.366   0.860  0.8059 -0.3758 -0.7650
25767SOL    HW181858   5.886   5.343   0.940  0.0460 -0.9464 -0.4591
25767SOL    HW281859   5.812   5.281   0.823 -0.0788 -0.0774 -0.8444
25768SOL     OW81860   5.690   9.268   3.294  0.6996 -0.0753 -0.1914
25768SOL    HW181861   5.645   9.321   3.228  1.9446  0.0572 -0.9692
25768SOL    HW281862   5.662   9.179   3.277 -0.3430  0.1551  0.2446
25769SOL     OW81863   3.714   4.997   7.370  0.2417 -0.0166 -0.1476
25769SOL    HW181864   3.707   4.905   7.345  0.4148 -0.7695  2.3051
25769SOL    HW281865   3.623   5.026   7.382  0.1177  0.5702 -2.1877
25770SOL     OW81866   3.819   9.077   6.786  0.0425  0.4073  0.6628
25770SOL    HW181867   3.763   9.005   6.757  0.2027 -0.3498  2.1003
25770SOL    HW281868   3.874   9.038   6.855  0.9649  1.6194  0.6558
25771SOL     OW81869   2.336  10.147   6.408 -0.0650  0.9369 -0.3286
25771SOL    HW181870   2.417  10.185   6.373 -0.0773 -0.3578 -1.8552
25771SOL    HW281871   2.365  10.084   6.473  0.0044  2.4435  1.1782
25772SOL     OW81872  11.564   8.562   5.869  0.5289 -0.2722  0.5734
25772SOL    HW181873  11.537   8.640   5.916 -0.4688 -0.4626  0.3430
25772SOL    HW281874  11.642   8.589   5.819 -0.9848  1.1819 -1.1445
25773SOL     OW81875  12.053   1.615  10.769  0.0876 -0.2390 -0.0709
25773SOL    HW181876  12.002   1.537  10.744  2.2755 -0.7322 -3.6665
25773SOL    HW281877  12.003   1.688  10.734 -0.3905 -0.2445  0.5583
25774SOL     OW81878   7.631   3.506   5.627  0.2481  0.0205  0.0035
25774SOL    HW181879   7.675   3.568   5.568 -1.5910  0.9806 -0.4204
25774SOL    HW281880   7.666   3.420   5.603  0.7645  0.5862 -1.3271
25775SOL     OW81881   7.133   6.197   0.415  0.1888 -0.1270 -0.0257
25775SOL    HW181882   7.132   6.290   0.436  0.8095 -0.0293 -0.4003
25775SOL    HW281883   7.059   6.186   0.355 -0.4596 -0.0628  0.7490
25776SOL     OW81884   2.084  11.181  10.663  0.7577 -0.3842  0.2316
25776SOL    HW181885   2.011  11.208  10.608 -1.1154 -1.4124  2.0664
25776SOL    HW281886   2.048  11.111  10.718  3.2959 -1.3102  0.8431
25777SOL     OW81887   3.664   5.657  11.778 -0.2108  0.0884  0.1209
25777SOL    HW181888   3.717   5.599  11.723  0.1140  0.7907 -0.3161
25777SOL    HW281889   3.576   5.652  11.741 -0.6625 -1.6611  1.2954
25778SOL     OW81890  10.662   4.377   0.095 -0.5170 -0.1436 -0.1988
25778SOL    HW181891  10.576   4.418   0.087 -0.2491  0.4275 -0.2603
25778SOL    HW281892  10.648   4.285   0.073 -1.1864 -0.1406  0.1888
25779SOL     OW81893  10.260   6.826   9.622  0.3399  0.1512 -0.3845
25779SOL    HW181894  10.210   6.898   9.661  1.8362  1.0965 -0.1217
25779SOL    HW281895  10.299   6.781   9.696 -0.0728 -0.5604 -0.5902
25780SOL     OW81896   1.553   1.827   1.413 -0.0691  0.6138 -0.0602
25780SOL    HW181897   1.483   1.778   1.455 -0.7192  1.2139 -0.4275
25780SOL    HW281898   1.529   1.830   1.321 -0.0436  1.6038 -0.0462
25781SOL     OW81899   4.008   2.612   7.150 -0.0902 -0.3326 -0.0777
25781SOL    HW181900   4.042   2.594   7.238  0.3159 -2.4778 -0.6045
25781SOL    HW281901   4.058   2.553   7.093 -0.5847  0.7587 -1.7107
25782SOL     OW81902   8.736   2.794   2.353 -0.0625  0.3147  0.1496
25782SOL    HW181903   8.793   2.850   2.300 -0.1861 -0.3420 -0.6935
25782SOL    HW281904   8.763   2.811   2.443  1.5385 -0.0649 -0.2396
25783SOL     OW81905   8.534   1.916  10.484  0.2960 -0.3840 -0.1543
25783SOL    HW181906   8.520   1.980  10.414 -1.4622  1.0234  1.4042
25783SOL    HW281907   8.484   1.839  10.456  1.9349 -0.9681 -1.7424
25784SOL     OW81908   8.529   7.089   5.221 -0.5506 -0.4450 -0.8988
25784SOL    HW181909   8.477   7.013   5.196  0.4577 -1.5773  0.3032
25784SOL    HW281910   8.591   7.056   5.286 -0.6461  1.5827  0.3184
25785SOL     OW81911  11.451   0.750  10.329  0.3259  0.0040 -0.0250
25785SOL    HW181912  11.371   0.802  10.322  0.6397  0.4373 -0.4616
25785SOL    HW281913  11.425   0.672  10.379 -0.5620 -0.2377 -0.8330
25786SOL     OW81914   5.492   3.718   4.968 -0.1275 -0.3343 -0.8457
25786SOL    HW181915   5.481   3.632   4.927  1.8553 -0.1238 -1.9523
25786SOL    HW281916   5.584   3.721   4.995 -0.7505  0.5198  1.4582
25787SOL     OW81917   9.945  10.012   2.674  0.2648 -0.0956 -0.2953
25787SOL    HW181918   9.917  10.017   2.582 -0.8482 -0.2827  0.0147
25787SOL    HW281919   9.928   9.921   2.700 -0.2489  0.1683  0.3329
25788SOL     OW81920   5.175  11.585   4.284  0.4972  0.6995  0.3002
25788SOL    HW181921   5.184  11.680   4.277 -1.1809  0.8224 -1.0202
25788SOL    HW281922   5.093  11.566   4.239  0.7123 -1.3707  0.6894
25789SOL     OW81923  11.843   1.063   7.092 -0.2129  0.4741 -0.1898
25789SOL    HW181924  11.867   1.027   7.007 -0.1781 -1.8790  0.7421
25789SOL    HW281925  11.797   0.992   7.137  0.8731  1.1713  2.2300
25790SOL     OW81926   6.159   4.551   1.154  0.1973  0.5965  0.1114
25790SOL    HW181927   6.079   4.523   1.199 -0.2880  1.7916  0.0218
25790SOL    HW281928   6.214   4.589   1.222  1.4193 -1.6306  0.4739
25791SOL     OW81929   0.495  10.865   6.764 -0.0133 -0.1419  0.2160
25791SOL    HW181930   0.495  10.925   6.839 -1.0565 -0.3931  0.4368
25791SOL    HW281931   0.557  10.903   6.702  0.1511  0.5799  0.8125
25792SOL     OW81932   0.534   8.426   8.504 -0.6751 -0.3467  0.0915
25792SOL    HW181933   0.576   8.496   8.454  2.3646 -2.7732 -1.0784
25792SOL    HW281934   0.571   8.433   8.591  1.5035 -1.7599 -0.6322
25793SOL     OW81935   7.156   4.625   4.829  0.0836 -0.3532 -0.7647
25793SOL    HW181936   7.169   4.646   4.737  0.6005 -0.8446 -0.8068
25793SOL    HW281937   7.114   4.539   4.829 -3.7982  1.3602 -0.6569
25794SOL     OW81938   0.546   1.170   3.868 -0.0411 -0.4188 -0.3269
25794SOL    HW181939   0.554   1.222   3.948 -0.4386 -0.7457 -0.0692
25794SOL    HW281940   0.635   1.145   3.846  0.1905  0.6370 -0.6279
25795SOL     OW81941  10.183  11.349   0.268  0.8074 -0.2608  0.1923
25795SOL    HW181942  10.151  11.318   0.183  0.3185 -0.4146  0.4300
25795SOL    HW281943  10.258  11.292   0.287 -0.7219 -2.0585  1.1265
25796SOL     OW81944   2.856  11.131   4.793 -0.0282  0.6902  0.4018
25796SOL    HW181945   2.791  11.102   4.729 -1.0898 -0.2703  1.8335
25796SOL    HW281946   2.916  11.186   4.743 -0.6393 -0.2310 -1.4556
25797SOL     OW81947   1.380   3.171   9.510 -0.0089  0.2072  0.1480
25797SOL    HW181948   1.419   3.181   9.423 -1.0393  0.5898 -0.2851
25797SOL    HW281949   1.318   3.098   9.500  2.2837 -2.1064  1.4563
25798SOL     OW81950   3.822  10.233   5.994 -0.3424  0.2289  0.3255
25798SOL    HW181951   3.826  10.328   6.005  0.9672  0.2607 -0.2827
25798SOL    HW281952   3.734  10.217   5.960 -0.5196  1.2284  0.2742
25799SOL     OW81953  12.062   9.071   1.379  0.3043  0.1131  0.0091
25799SOL    HW181954  12.130   9.023   1.427  0.9344  0.5683 -0.4031
25799SOL    HW281955  12.111   9.128   1.320 -0.4333  1.0146  0.2464
25800SOL     OW81956   7.358   6.319   2.844 -0.1267 -0.0115  0.0885
25800SOL    HW181957   7.357   6.382   2.915 -1.1369 -0.2060  0.2623
25800SOL    HW281958   7.402   6.365   2.772  0.6432  0.2844  0.7344
25801SOL     OW81959   0.143   0.677   6.487  0.6766  0.6616 -0.0211
25801SOL    HW181960   0.072   0.706   6.430 -0.4673  1.8279  1.9066
25801SOL    HW281961   0.210   0.744   6.478  0.3415  1.0375  0.2822
25802SOL     OW81962   6.865  10.788   3.592 -0.4981 -0.6530  0.2870
25802SOL    HW181963   6.821  10.796   3.677 -1.4537 -0.2549 -0.2292
25802SOL    HW281964   6.908  10.873   3.581  0.7795 -1.1868  0.9775
25803SOL     OW81965   7.204  11.541   0.493 -0.1538  0.2633  0.0559
25803SOL    HW181966   7.231  11.626   0.459  0.7091  0.0505  0.1778
25803SOL    HW281967   7.190  11.556   0.587 -1.1369  0.5273 -0.1292
25804SOL     OW81968   7.126  11.012   0.214 -0.2545 -0.5532 -0.0524
25804SOL    HW181969   7.103  11.096   0.255 -0.0582 -0.6757  0.3068
25804SOL    HW281970   7.069  10.948   0.257  0.7147 -0.8521  0.8032
25805SOL     OW81971   6.070   8.949   6.318  0.5909 -0.4032 -0.1351
25805SOL    HW181972   6.090   9.010   6.247 -0.6112 -0.5231 -0.6137
25805SOL    HW281973   6.082   8.863   6.278 -0.4384 -0.4727 -0.3264
25806SOL     OW81974   6.981  11.577   6.371 -0.2312 -0.5635  0.7497
25806SOL    HW181975   7.066  11.567   6.413  0.4767 -2.0525 -0.8636
25806SOL    HW281976   6.929  11.504   6.405 -0.0681 -1.0245  0.0469
25807SOL     OW81977   2.471   1.579   9.787 -0.0104 -0.3247 -0.3014
25807SOL    HW181978   2.465   1.555   9.879  1.1136 -1.3108 -0.4674
25807SOL    HW281979   2.382   1.606   9.764 -0.2814  0.0627  1.0853
25808SOL     OW81980   6.568   0.438   6.048  0.2115  0.3556  0.2954
25808SOL    HW181981   6.562   0.404   5.958  1.0686  0.0785  0.3385
25808SOL    HW281982   6.488   0.490   6.059 -0.4643 -0.5461 -0.2328
25809SOL     OW81983   0.453   3.941   3.136  0.7191  0.2533 -0.0591
25809SOL    HW181984   0.491   3.865   3.093  1.2225 -0.3684  1.4067
25809SOL    HW281985   0.368   3.953   3.093  0.9800 -0.6401 -0.8502
25810SOL     OW81986   8.701   8.243   0.428 -0.3492  0.1280 -0.9298
25810SOL    HW181987   8.773   8.269   0.485 -1.9162  0.7396  0.8627
25810SOL    HW281988   8.736   8.169   0.378  1.6206  0.6316 -0.3672
25811SOL     OW81989   9.242   6.471   0.972 -0.0127  0.2846  0.0296
25811SOL    HW181990   9.330   6.507   0.988  0.2545 -0.1457 -0.4202
25811SOL    HW281991   9.183   6.529   1.020  0.6483 -0.3082  1.6272
25812SOL     OW81992   9.248  12.070   6.015 -0.6987  0.6681 -0.2243
25812SOL    HW181993   9.236  12.036   5.927 -2.9476  2.5262 -0.7217
25812SOL    HW281994   9.342  12.091   6.020 -0.5953  0.9561 -2.3565
25813SOL     OW81995   4.598   0.160   5.183 -0.0299  0.3575  0.1246
25813SOL    HW181996   4.574   0.186   5.272 -1.1251  0.6742 -0.2511
25813SOL    HW281997   4.517   0.127   5.145  0.4450  0.1561 -0.7302
25814SOL     OW81998  11.562   2.879   3.847 -0.1800 -0.3218  0.0668
25814SOL    HW181999  11.560   2.835   3.932  2.6098  2.3401  1.7360
25814SOL    HW282000  11.494   2.946   3.854 -0.2822 -0.4187  0.0037
25815SOL     OW82001   6.101  11.631   1.324 -0.0087 -0.3285  0.3057
25815SOL    HW182002   6.048  11.599   1.397 -2.3873  1.2823 -0.5748
25815SOL    HW282003   6.132  11.717   1.353  0.0692 -0.2103 -0.1292
25816SOL     OW82004   7.141   0.806   6.350  0.4884 -0.3344 -0.7765
25816SOL    HW182005   7.097   0.872   6.403  1.1869  0.1544 -0.7845
25816SOL    HW282006   7.098   0.724   6.372 -0.2407  0.0893 -0.5942
25817SOL     OW82007  11.968   9.482   9.453  0.7978 -0.3057  0.7585
25817SOL    HW182008  11.915   9.433   9.516  0.3776 -0.5977  0.1961
25817SOL    HW282009  12.057   9.449   9.466  0.8080  0.0121  1.5451
25818SOL     OW82010   9.038  11.703   4.443 -0.4486 -0.0471 -0.0776
25818SOL    HW182011   9.028  11.619   4.488  2.7860 -0.1021  0.7732
25818SOL    HW282012   8.961  11.753   4.470 -1.2667 -1.8969  1.3003
25819SOL     OW82013   8.646   3.389   0.110 -0.4067  0.2163 -0.5782
25819SOL    HW182014   8.693   3.393   0.193 -1.5819 -3.0765  0.4057
25819SOL    HW282015   8.687   3.316   0.063 -1.6475  0.1568 -1.6118
25820SOL     OW82016   0.519  11.760   3.024 -0.0402  0.2899 -0.3502
25820SOL    HW182017   0.529  11.801   3.110  1.9554  1.7746 -1.2274
25820SOL    HW282018   0.471  11.679   3.042 -1.3148  1.4480  1.8754
25821SOL     OW82019   7.973   5.004   1.023 -0.8099 -0.1428  0.7952
25821SOL    HW182020   7.942   5.085   0.982  0.5598  0.3328  0.6649
25821SOL    HW282021   7.904   4.982   1.086 -1.1785  1.1661  0.8808
25822SOL     OW82022   1.641   0.438   4.124 -0.7448 -0.0080  0.0263
25822SOL    HW182023   1.570   0.431   4.060 -0.9774 -0.0696  0.2894
25822SOL    HW282024   1.720   0.446   4.071 -0.9000 -0.4178 -0.2712
25823SOL     OW82025   0.089   4.242   4.899  0.0122 -0.6269  0.9102
25823SOL    HW182026   0.012   4.194   4.869 -0.7548 -0.7410  2.9098
25823SOL    HW282027   0.072   4.258   4.992  1.1329  1.8124  0.7568
25824SOL     OW82028   8.021   4.900   3.693  0.2469 -0.1185  0.3226
25824SOL    HW182029   7.973   4.845   3.631  1.8640  1.2911 -2.3372
25824SOL    HW282030   7.953   4.956   3.732 -0.6634  0.1347 -1.4998
25825SOL     OW82031   7.799   5.937   1.216  0.3201  0.0572 -0.2147
25825SOL    HW182032   7.828   5.984   1.294  0.1200  1.4846 -0.9655
25825SOL    HW282033   7.879   5.910   1.173  0.4540 -2.3283  1.3432
25826SOL     OW82034   2.397   9.140  11.647 -0.1472 -0.0319  0.3886
25826SOL    HW182035   2.331   9.130  11.578  1.3572 -1.1001 -0.9805
25826SOL    HW282036   2.437   9.225  11.632  1.1779 -0.8543 -1.0620
25827SOL     OW82037  11.494   2.519  10.018 -0.4467 -0.2226  0.4608
25827SOL    HW182038  11.587   2.503  10.001 -0.0922  1.5690  0.5076
25827SOL    HW282039  11.490   2.611  10.045 -2.6460  0.9922 -3.2770
25828SOL     OW82040   6.151   1.924   2.360 -0.3606 -0.4650 -0.3611
25828SOL    HW182041   6.210   1.894   2.428  0.3899 -0.9289 -1.1998
25828SOL    HW282042   6.074   1.867   2.367  0.0153 -0.9734 -0.3571
25829SOL     OW82043   6.705   6.704   0.754 -0.0605 -0.0567  0.3540
25829SOL    HW182044   6.740   6.735   0.837  1.1427 -0.1068 -0.1100
25829SOL    HW282045   6.733   6.769   0.690  0.1204 -0.6642 -0.2027
25830SOL     OW82046   3.595   7.988   2.084 -0.2302 -0.2040  0.0529
25830SOL    HW182047   3.623   7.912   2.135 -0.5352 -0.5044 -0.2221
25830SOL    HW282048   3.637   7.977   1.999  0.9196  0.7093  0.4813
25831SOL     OW82049   7.595   9.103   0.933 -0.2042 -0.7682  0.1742
25831SOL    HW182050   7.649   9.166   0.981  0.3189  0.4193 -1.8531
25831SOL    HW282051   7.635   9.018   0.952  2.2632  0.0364 -1.0221
25832SOL     OW82052   5.490   1.314   5.339  0.1535 -0.3221  0.5053
25832SOL    HW182053   5.475   1.222   5.317  0.9134  0.0104 -1.6834
25832SOL    HW282054   5.428   1.362   5.284 -1.5962  0.4849  3.0085
25833SOL     OW82055   6.973   8.146   6.441 -0.4280  0.0632  0.2505
25833SOL    HW182056   6.996   8.238   6.432  0.5120 -0.0875  1.0375
25833SOL    HW282057   7.041   8.109   6.497  0.5594 -1.6331 -1.8925
25834SOL     OW82058   5.445   2.756  11.364  0.1128  0.4832 -0.3571
25834SOL    HW182059   5.487   2.670  11.372 -1.1814 -0.1367  0.0913
25834SOL    HW282060   5.506   2.817  11.404 -0.0568 -0.6049  1.7039
25835SOL     OW82061   6.173   5.041   4.588  0.2915  0.4820  0.6385
25835SOL    HW182062   6.091   5.088   4.599 -0.1449 -0.2228  0.4072
25835SOL    HW282063   6.183   4.990   4.669  1.6197  2.2267  1.6691
25836SOL     OW82064   1.628   0.060   2.621 -0.2012  0.1570  0.0635
25836SOL    HW182065   1.593  -0.028   2.634 -0.9174  0.7884  3.2569
25836SOL    HW282066   1.693   0.071   2.690 -0.8674  2.4535  0.4008
25837SOL     OW82067   3.379   7.033   9.556  0.2726 -0.0821 -0.4209
25837SOL    HW182068   3.451   6.973   9.577 -0.4837 -1.3889 -1.4303
25837SOL    HW282069   3.402   7.068   9.470  0.2737  0.3888 -0.2266
25838SOL     OW82070   5.069   9.228   1.403 -0.3641  0.3550 -0.1223
25838SOL    HW182071   5.059   9.316   1.440 -0.7150  0.6192 -0.8442
25838SOL    HW282072   4.995   9.179   1.438 -0.5959  0.5563 -0.3298
25839SOL     OW82073  11.555   4.475  10.425  0.0922 -0.4017  0.0779
25839SOL    HW182074  11.643   4.475  10.388  0.2904 -0.5545  0.5437
25839SOL    HW282075  11.545   4.561  10.466  0.2423 -0.5908  0.5225
25840SOL     OW82076   5.984   7.095  10.780 -0.5875 -0.1231  0.5349
25840SOL    HW182077   6.071   7.088  10.820 -0.7593  0.5446  1.0425
25840SOL    HW282078   5.938   7.158  10.834 -0.7102  1.1010 -0.9249
25841SOL     OW82079   0.981   2.185   6.167  0.1267  0.4830 -0.5216
25841SOL    HW182080   1.013   2.178   6.257  2.5254  1.1676 -1.2478
25841SOL    HW282081   0.903   2.129   6.164  0.7383 -0.5686  1.6354
25842SOL     OW82082   0.672  11.457   4.801 -0.2784 -0.0262 -0.1309
25842SOL    HW182083   0.594  11.432   4.751 -0.2316 -0.8931  0.2103
25842SOL    HW282084   0.651  11.545   4.834 -1.4063 -0.5122  0.5178
25843SOL     OW82085   9.434   3.674   2.265  0.9801 -0.5254 -0.3406
25843SOL    HW182086   9.509   3.617   2.281 -0.9144 -2.5674  2.4716
25843SOL    HW282087   9.375   3.655   2.338 -1.9665  1.4663 -2.0127
25844SOL     OW82088   0.799   3.183   8.265 -0.3491  0.2288  0.1557
25844SOL    HW182089   0.710   3.148   8.269  0.1926 -1.1548  0.5753
25844SOL    HW282090   0.841   3.136   8.193  0.6141 -0.5977  1.2078
25845SOL     OW82091   7.547  12.048   7.940 -0.6086  0.0742  0.9704
25845SOL    HW182092   7.535  12.054   7.845  0.9816  0.9981  0.7955
25845SOL    HW282093   7.472  11.996   7.970 -1.5992  0.4779 -0.6708
25846SOL     OW82094  10.580   8.731   4.949 -0.1501 -0.0280 -0.0819
25846SOL    HW182095  10.674   8.748   4.957 -0.2935  0.1631  1.6000
25846SOL    HW282096  10.561   8.743   4.856  1.4341  0.1752 -0.4119
25847SOL     OW82097   2.936   2.387  10.256 -0.2984 -1.0302 -0.2355
25847SOL    HW182098   2.884   2.413  10.180 -0.0304  0.2877  0.0057
25847SOL    HW282099   2.890   2.311  10.291 -0.7605 -1.2890 -1.3568
25848SOL     OW82100   2.247   9.958   1.127  0.1762 -0.4701 -0.0747
25848SOL    HW182101   2.197  10.034   1.156  0.2374 -0.1828 -0.7090
25848SOL    HW282102   2.295   9.930   1.205 -1.0376 -0.8199  0.5725
25849SOL     OW82103  10.088   8.850   6.357 -0.3629 -0.5892  0.3960
25849SOL    HW182104  10.058   8.895   6.437  0.1988  1.4198 -0.4733
25849SOL    HW282105  10.038   8.891   6.287  1.4705 -0.0259 -0.6304
25850SOL     OW82106  10.746   5.397   4.828 -0.0456  0.6620 -0.0999
25850SOL    HW182107  10.706   5.451   4.760  2.9195  0.6830 -1.9908
25850SOL    HW282108  10.695   5.416   4.907 -3.7510  0.5102 -2.2543
25851SOL     OW82109  10.485   9.885   5.191  0.2433  0.0200 -0.0896
25851SOL    HW182110  10.493   9.853   5.281  2.5518  1.0598  0.1292
25851SOL    HW282111  10.444   9.812   5.144  0.5841 -1.2260  1.4502
25852SOL     OW82112   2.569   3.403   3.180 -0.2836  0.0644  0.0987
25852SOL    HW182113   2.638   3.401   3.113 -0.1274  3.2218  0.0081
25852SOL    HW282114   2.617   3.405   3.263 -0.4435 -2.0541  0.2939
25853SOL     OW82115   0.832  11.145  11.808  0.5739 -0.1591 -0.3581
25853SOL    HW182116   0.858  11.063  11.851  0.0998  0.1797  0.5958
25853SOL    HW282117   0.762  11.119  11.747  1.1607 -0.6202 -0.8566
25854SOL     OW82118   9.835   5.557   7.260 -0.0311 -0.2955  0.1441
25854SOL    HW182119   9.810   5.611   7.185  0.1698  0.0595  0.3322
25854SOL    HW282120   9.931   5.562   7.262 -0.0997  2.9311  2.7539
25855SOL     OW82121   4.140   5.606  10.194  0.1997 -0.2101 -0.3272
25855SOL    HW182122   4.090   5.591  10.274  0.5152 -0.2647 -0.1368
25855SOL    HW282123   4.089   5.670  10.144  2.1485  3.5099  1.9840
25856SOL     OW82124   0.452   5.361  10.963 -0.1916  0.0288  0.0024
25856SOL    HW182125   0.513   5.309  10.911  0.7778 -0.5975  1.7020
25856SOL    HW282126   0.465   5.451  10.932 -0.1292 -0.3952 -1.2690
25857SOL     OW82127   7.862   6.206   7.775 -0.0120 -0.0952  0.5612
25857SOL    HW182128   7.832   6.264   7.705 -1.1949 -0.8575  0.4112
25857SOL    HW282129   7.955   6.225   7.784  0.3183 -0.4203 -1.6477
25858SOL     OW82130   6.544   0.818   8.983 -0.0039  0.3733  0.4503
25858SOL    HW182131   6.635   0.811   8.954 -0.0009  0.8499  0.3352
25858SOL    HW282132   6.548   0.806   9.078  0.3996  2.1225  0.6765
25859SOL     OW82133   2.053   3.069   7.921 -0.3762 -0.6069 -0.3206
25859SOL    HW182134   2.025   3.135   7.986  0.0228 -0.9116  0.1642
25859SOL    HW282135   1.983   3.071   7.855  0.1079  1.0214 -0.8473
25860SOL     OW82136   8.287   0.413   9.629 -0.1212  0.5514 -0.1338
25860SOL    HW182137   8.199   0.376   9.624  0.4202 -0.7048 -0.8763
25860SOL    HW282138   8.324   0.398   9.542  1.3358 -0.2515  0.5919
25861SOL     OW82139   7.384   9.394   0.523  0.4902  0.2573  0.0517
25861SOL    HW182140   7.417   9.333   0.589 -0.1061 -0.7525 -0.5629
25861SOL    HW282141   7.343   9.338   0.457 -0.3205  1.3449 -0.3904
25862SOL     OW82142   0.665  11.096   8.349 -0.0809  0.0789 -1.2668
25862SOL    HW182143   0.667  11.004   8.322 -0.2292  0.4112 -2.4482
25862SOL    HW282144   0.635  11.093   8.440 -1.2484 -0.9660 -1.6583
25863SOL     OW82145   7.783   7.590   5.995  0.2821  0.3936 -0.1782
25863SOL    HW182146   7.719   7.526   5.963  0.5606  0.0036  0.0447
25863SOL    HW282147   7.868   7.551   5.976  0.4531  0.7366 -0.1181
25864SOL     OW82148   6.695   0.965   3.787 -0.3961 -0.2974  0.3689
25864SOL    HW182149   6.634   0.909   3.835 -0.6750 -1.3439 -1.1726
25864SOL    HW282150   6.640   1.021   3.733 -0.0184 -1.3378 -1.1321
25865SOL     OW82151   1.838   5.802   5.209 -0.3884  0.3300  0.0690
25865SOL    HW182152   1.805   5.713   5.198  0.2131  0.1468 -0.2887
25865SOL    HW282153   1.775   5.844   5.267 -1.3035  0.0247 -0.6909
25866SOL     OW82154   3.678   1.960   2.580 -0.3906  0.0947  0.2229
25866SOL    HW182155   3.695   2.045   2.620 -0.3160 -0.0283  0.4559
25866SOL    HW282156   3.584   1.944   2.594 -0.8113  0.9286 -1.3630
25867SOL     OW82157   8.489   6.356   2.466 -0.3451  0.5120  0.4014
25867SOL    HW182158   8.415   6.356   2.527  0.0109  0.7793  0.8371
25867SOL    HW282159   8.564   6.384   2.519 -0.0254  0.7175 -0.1513
25868SOL     OW82160   9.333  10.763   4.928  0.2577  0.4718 -0.0643
25868SOL    HW182161   9.406  10.721   4.882  0.5885 -0.4985  1.2933
25868SOL    HW282162   9.256  10.740   4.876  0.7200  0.1087 -0.6015
25869SOL     OW82163  11.437   7.972   2.017  0.1763  0.6254 -0.4810
25869SOL    HW182164  11.532   7.981   2.013  0.4705 -0.3649  2.1333
25869SOL    HW282165  11.420   7.884   1.985  0.1305  0.8272 -1.0131
25870SOL     OW82166   9.043   6.399   9.448  0.0989  0.5497 -0.0839
25870SOL    HW182167   8.984   6.433   9.515  0.6859 -1.3650  1.5090
25870SOL    HW282168   9.131   6.415   9.483  0.3972 -1.9373  0.4625
25871SOL     OW82169  11.237   9.627   1.548 -0.7428 -0.2646 -0.3615
25871SOL    HW182170  11.224   9.585   1.463 -0.0168 -1.8154  0.2611
25871SOL    HW282171  11.149   9.650   1.577 -0.9809  0.4798 -1.6154
25872SOL     OW82172   8.172   5.215   0.181  0.2194  0.1119 -0.1433
25872SOL    HW182173   8.145   5.288   0.124 -2.1253  0.3244  1.0886
25872SOL    HW282174   8.113   5.222   0.256  1.2815 -1.9037  0.9369
25873SOL     OW82175   9.685  11.152  11.165  0.0115  0.0609  0.0505
25873SOL    HW182176   9.651  11.160  11.076  0.5174  1.9373 -0.0144
25873SOL    HW282177   9.748  11.079  11.160  0.5614  0.5909 -1.3064
25874SOL     OW82178  11.499   5.257   9.900 -0.2462  0.3294 -0.5876
25874SOL    HW182179  11.568   5.291   9.843 -0.6480 -0.4814 -1.5854
25874SOL    HW282180  11.463   5.335   9.943  2.3662  0.6299  1.2769
25875SOL     OW82181  12.042   3.413   4.755 -0.4181 -0.5750 -0.3213
25875SOL    HW182182  12.104   3.341   4.766 -0.7202 -0.6057  1.4947
25875SOL    HW282183  12.080   3.468   4.686 -0.1386 -2.3938 -1.6779
25876SOL     OW82184   2.215   5.587   2.710 -0.7980 -0.0035 -0.1060
25876SOL    HW182185   2.297   5.634   2.725 -1.4642  0.8031  1.2781
25876SOL    HW282186   2.223   5.553   2.622  0.4205  1.3051 -0.5541
25877SOL     OW82187   5.373   9.028   8.694  0.2728 -0.4795  0.1633
25877SOL    HW182188   5.464   9.006   8.671  0.2929 -0.8499  0.6076
25877SOL    HW282189   5.322   9.001   8.618  0.2135 -2.6145  0.8924
25878SOL     OW82190  11.458   9.653   4.499  0.1794 -0.0541 -0.0096
25878SOL    HW182191  11.447   9.656   4.594 -0.8702 -1.0739 -0.0710
25878SOL    HW282192  11.530   9.591   4.484  0.0287 -0.2594  0.1139
25879SOL     OW82193   9.214   4.905   5.803 -0.1220  0.3489  0.1204
25879SOL    HW182194   9.164   4.888   5.723 -0.3798  2.2809 -0.1969
25879SOL    HW282195   9.153   4.885   5.874 -1.4441  2.6609 -0.2579
25880SOL     OW82196   9.264  10.686   5.696  0.3143  0.0721 -0.0683
25880SOL    HW182197   9.246  10.759   5.636  1.1418  0.2980 -0.0546
25880SOL    HW282198   9.360  10.684   5.703  0.2214  1.0173  2.4304
25881SOL     OW82199   9.277   3.866   7.437  0.5412 -0.5026  0.0128
25881SOL    HW182200   9.206   3.931   7.432 -0.2750 -1.3062  0.7837
25881SOL    HW282201   9.320   3.871   7.352 -0.9598 -0.5516 -0.7822
25882SOL     OW82202   6.103   5.836   9.764 -0.3479  0.5920  0.1310
25882SOL    HW182203   6.135   5.755   9.724  0.0425  1.1463 -0.6866
25882SOL    HW282204   6.014   5.846   9.730 -0.8591 -0.1321  1.2007
25883SOL     OW82205   6.396   4.569   9.831 -0.3413  1.3095 -0.2074
25883SOL    HW182206   6.380   4.501   9.896 -0.9682  1.8160  0.1810
25883SOL    HW282207   6.334   4.638   9.853 -0.7300  1.3936 -1.4906
25884SOL     OW82208   7.308   8.301   5.415 -0.0001  0.0157 -0.3484
25884SOL    HW182209   7.270   8.364   5.354  1.8647  1.9556  0.3639
25884SOL    HW282210   7.271   8.217   5.389 -3.5175  1.4626 -0.6539
25885SOL     OW82211  10.110   0.634  10.797  0.0247 -0.3684  0.0512
25885SOL    HW182212  10.193   0.652  10.752  0.1330 -0.6282  0.1429
25885SOL    HW282213  10.066   0.719  10.802 -0.2255 -0.4176 -1.0196
25886SOL     OW82214   7.882   1.298   8.164  0.2462  0.3012 -0.1614
25886SOL    HW182215   7.974   1.312   8.144  0.0616  1.0575 -0.5580
25886SOL    HW282216   7.850   1.386   8.188 -0.3088  0.0009  0.2192
25887SOL     OW82217   1.222   6.581   8.037  0.0045  0.2445  0.3612
25887SOL    HW182218   1.224   6.669   8.001  0.0702  0.6837  1.4107
25887SOL    HW282219   1.143   6.579   8.091 -1.0946 -0.9804 -1.2015
25888SOL     OW82220   3.278   2.146   6.397  0.0858 -0.1835  0.5432
25888SOL    HW182221   3.210   2.209   6.419 -0.4675  0.0276 -1.6066
25888SOL    HW282222   3.360   2.196   6.404 -0.1541  0.1424  1.0657
25889SOL     OW82223   5.927   7.008   9.374  0.2629  0.4440  0.6802
25889SOL    HW182224   5.859   6.953   9.412 -1.1438  1.3186 -0.4481
25889SOL    HW282225   5.973   6.952   9.311 -0.0065  0.0867  0.8048
25890SOL     OW82226   3.293  11.405   3.064  0.0279 -0.0496 -0.6397
25890SOL    HW182227   3.298  11.487   3.015 -0.2767 -0.9837 -2.3339
25890SOL    HW282228   3.313  11.429   3.154  0.4105  1.7950 -1.1767
25891SOL     OW82229   8.292   0.131   0.771  0.5495  0.3661 -0.2690
25891SOL    HW182230   8.253   0.052   0.733 -0.0882 -0.0176  1.1118
25891SOL    HW282231   8.233   0.202   0.745  0.0629  0.0907  0.0555
25892SOL     OW82232   1.900   6.182   2.977  0.1822 -0.0276 -0.3747
25892SOL    HW182233   1.877   6.091   2.960  2.9105 -1.0209  0.6730
25892SOL    HW282234   1.817   6.229   2.977 -1.6955 -3.0163  1.9038
25893SOL     OW82235   8.426   0.158   5.695  0.6752 -0.3105  1.2076
25893SOL    HW182236   8.370   0.235   5.683 -0.0447 -1.1435 -1.3886
25893SOL    HW282237   8.473   0.175   5.777 -1.1785  1.7879  1.9307
25894SOL     OW82238  12.066   2.485   8.938 -0.1440  0.2746 -0.0419
25894SOL    HW182239  12.146   2.452   8.899 -0.4920 -0.3028 -0.2767
25894SOL    HW282240  12.082   2.578   8.951  0.0917  0.4154 -1.2627
25895SOL     OW82241   7.418   7.328   0.080 -0.3397 -0.5191 -0.1445
25895SOL    HW182242   7.374   7.251   0.045 -0.2732 -1.7944  2.3263
25895SOL    HW282243   7.358   7.363   0.146  0.4827  0.3356  0.1872
25896SOL     OW82244   1.295   1.098   4.722  0.0336 -0.6928 -0.1603
25896SOL    HW182245   1.382   1.065   4.698 -0.1537 -0.5842 -1.0094
25896SOL    HW282246   1.299   1.192   4.704 -0.0366 -0.5633  0.4788
25897SOL     OW82247   0.328  10.823  11.863  0.4097 -0.4247  0.3507
25897SOL    HW182248   0.372  10.897  11.903  0.5177  0.4065 -1.2479
25897SOL    HW282249   0.390  10.790  11.798  0.1621 -1.6168  0.6947
25898SOL     OW82250   3.107   0.787   4.199 -0.2463 -0.8070  0.0934
25898SOL    HW182251   3.071   0.800   4.287  1.1862  1.5712  0.4366
25898SOL    HW282252   3.167   0.861   4.187  0.3827 -1.6327 -2.5040
25899SOL     OW82253  11.227   9.202   2.311  0.1624  0.1279 -0.0565
25899SOL    HW182254  11.294   9.204   2.379  1.2228 -0.9156 -1.0412
25899SOL    HW282255  11.248   9.125   2.259 -1.7251 -0.1472 -0.4840
25900SOL     OW82256   8.251   2.888   7.801  0.2916  0.3527  0.4833
25900SOL    HW182257   8.255   2.883   7.897  0.3380  0.8890  0.5151
25900SOL    HW282258   8.340   2.914   7.775  0.3324  0.0067  0.2811
25901SOL     OW82259   2.711   5.016   6.192 -0.1538 -0.5778  0.3839
25901SOL    HW182260   2.661   4.946   6.234 -0.4164 -0.4961  0.2113
25901SOL    HW282261   2.718   4.988   6.101  0.8622 -1.0071  0.5881
25902SOL     OW82262  11.670  11.263   6.654  0.2543 -0.0485 -0.3994
25902SOL    HW182263  11.723  11.274   6.574  1.4407 -1.1999  0.1780
25902SOL    HW282264  11.607  11.195   6.631 -0.8277  1.1278 -1.0025
25903SOL     OW82265   9.587   9.761  11.303 -0.0575 -0.0846  0.3238
25903SOL    HW182266   9.619   9.827  11.365  0.0710  1.0329 -0.8923
25903SOL    HW282267   9.636   9.682  11.324  0.1740  0.3443  1.4644
25904SOL     OW82268   9.738  10.528   1.390 -0.3539  0.3946 -0.1153
25904SOL    HW182269   9.717  10.601   1.331  0.8769 -0.1356 -1.2726
25904SOL    HW282270   9.764  10.570   1.472  0.6823  1.2937 -0.8753
25905SOL     OW82271   2.168   7.512   7.862 -0.0029 -0.3251  0.0066
25905SOL    HW182272   2.257   7.547   7.865  0.2833 -1.0560  0.1406
25905SOL    HW282273   2.151   7.481   7.951 -1.6832  2.8881  0.9553
25906SOL     OW82274   3.110   8.489   7.744 -0.3011  0.3137 -0.3221
25906SOL    HW182275   3.085   8.519   7.831  1.1375  1.1620 -0.1784
25906SOL    HW282276   3.099   8.394   7.747  0.1141  0.2924  0.9135
25907SOL     OW82277   8.995  11.621  10.442  0.0260 -0.0196  0.1306
25907SOL    HW182278   9.080  11.580  10.428  0.1762  0.5433 -0.6371
25907SOL    HW282279   8.989  11.688  10.375 -0.6112  0.6018  0.7881
25908SOL     OW82280   6.723   3.005   8.896 -0.2367  0.5847  0.0358
25908SOL    HW182281   6.688   3.077   8.844  1.1138  0.7836 -0.6234
25908SOL    HW282282   6.790   3.045   8.951 -0.5661  0.0958  0.8132
25909SOL     OW82283   4.588   3.581   9.439 -0.4114 -0.3290 -0.2167
25909SOL    HW182284   4.537   3.656   9.412  0.7738  1.4244  2.0450
25909SOL    HW282285   4.579   3.579   9.534  2.1091 -1.1085  0.0838
25910SOL     OW82286   5.564   4.181  10.869  0.5348  0.3483  0.2103
25910SOL    HW182287   5.602   4.096  10.891 -0.9393  0.1391  2.2712
25910SOL    HW282288   5.572   4.232  10.950  0.2545  1.7529 -0.6061
25911SOL     OW82289   7.166   3.640   7.571  0.5770 -0.0081  0.3762
25911SOL    HW182290   7.112   3.620   7.647  0.9598  0.4948  0.7807
25911SOL    HW282291   7.105   3.635   7.497  0.2887 -0.8821  0.6553
25912SOL     OW82292  10.180   1.346   4.704 -0.0559  0.1036  0.0093
25912SOL    HW182293  10.106   1.296   4.737  0.2944  0.2553  1.1016
25912SOL    HW282294  10.232   1.366   4.783  0.4695  1.0861 -0.5589
25913SOL     OW82295   0.095  10.898   4.061  0.5122 -0.3169 -0.1437
25913SOL    HW182296   0.074  10.809   4.089 -0.7846 -0.5404 -1.6838
25913SOL    HW282297   0.097  10.894   3.966  1.0382  1.1809 -0.2244
25914SOL     OW82298   9.983   4.204   7.267 -0.0607  0.3333 -0.3060
25914SOL    HW182299  10.038   4.266   7.314 -2.0793  1.1763  1.1013
25914SOL    HW282300   9.959   4.250   7.186 -1.2272  1.2922  0.5506
25915SOL     OW82301   8.327   8.800   5.438 -0.0093 -0.6332 -0.4091
25915SOL    HW182302   8.278   8.719   5.452 -0.9972 -0.0003 -0.0915
25915SOL    HW282303   8.261   8.869   5.441  0.8011  0.1853 -0.7620
25916SOL     OW82304   0.826   6.761   5.301 -0.0321  0.0436 -0.4867
25916SOL    HW182305   0.819   6.721   5.215 -1.8026  0.9048 -0.7980
25916SOL    HW282306   0.755   6.826   5.303  0.2193  0.3260  1.4650
25917SOL     OW82307   3.373  11.665   4.632  0.0068 -0.4947 -0.0854
25917SOL    HW182308   3.285  11.646   4.599  0.4683  0.1785 -1.8000
25917SOL    HW282309   3.358  11.705   4.717 -1.8403  4.7587 -2.4545
25918SOL     OW82310   5.641   4.896   2.444 -0.1218  0.4254 -0.8823
25918SOL    HW182311   5.620   4.806   2.468 -0.6469  0.8822  0.4870
25918SOL    HW282312   5.562   4.946   2.468  0.4677  1.3612 -0.8320
25919SOL     OW82313   4.485   2.523   8.267 -0.3752  0.5058  0.4382
25919SOL    HW182314   4.496   2.572   8.348  1.6839  0.0613  0.4842
25919SOL    HW282315   4.543   2.566   8.204 -1.6156  0.5812 -0.7100
25920SOL     OW82316   5.012  11.530   9.132  0.4611 -0.3679 -0.0444
25920SOL    HW182317   4.940  11.524   9.069 -0.8120  0.1956  1.3280
25920SOL    HW282318   4.991  11.465   9.199  1.0442  0.0506  0.5526
25921SOL     OW82319   5.394   9.506   1.990  0.0533  0.1268  0.2373
25921SOL    HW182320   5.404   9.528   1.897  0.7071  1.1651  0.5341
25921SOL    HW282321   5.479   9.527   2.029 -0.5005  0.6016  1.2371
25922SOL     OW82322   2.228   2.091   7.026 -0.1439  0.6164  0.1941
25922SOL    HW182323   2.305   2.034   7.034  0.5970  1.3554 -1.3823
25922SOL    HW282324   2.154   2.031   7.021  0.5879 -0.2204 -1.0669
25923SOL     OW82325   1.476   5.590   5.648 -0.4511  0.1441  0.4123
25923SOL    HW182326   1.524   5.574   5.729  1.3071 -1.5838 -0.8451
25923SOL    HW282327   1.451   5.502   5.618 -0.4504  0.6672 -1.2220
25924SOL     OW82328  11.666   2.439   4.281 -0.6552  0.6555 -0.5679
25924SOL    HW182329  11.642   2.444   4.188  1.0319  0.7818 -1.0184
25924SOL    HW282330  11.732   2.507   4.293 -1.7389  1.4798  1.0391
25925SOL     OW82331   3.545  11.207   3.188  0.4503 -0.1177  0.8605
25925SOL    HW182332   3.635  11.177   3.176  0.8150  1.9477 -3.9032
25925SOL    HW282333   3.495  11.127   3.205  2.6526 -1.9097 -0.4845
25926SOL     OW82334  10.285   9.913   7.135  0.5515 -0.0911  0.2670
25926SOL    HW182335  10.229   9.854   7.085  0.1787  1.3520 -1.1042
25926SOL    HW282336  10.267  10.000   7.098  0.7865  0.9568  2.4688
25927SOL     OW82337   0.217   6.116   8.328  0.2783  0.0002  0.2697
25927SOL    HW182338   0.165   6.195   8.312 -0.7150 -0.2865  1.8287
25927SOL    HW282339   0.228   6.076   8.242 -3.5299 -0.7930  0.0197
25928SOL     OW82340   1.386   4.430   5.210  0.4072 -0.5087  0.1009
25928SOL    HW182341   1.324   4.466   5.147 -0.6177 -0.9812  0.8148
25928SOL    HW282342   1.336   4.423   5.291  1.9238  0.9250  1.2332
25929SOL     OW82343   6.896  11.327   4.180 -0.6771 -0.6807 -0.7783
25929SOL    HW182344   6.828  11.275   4.139  0.2765 -1.5091 -1.3584
25929SOL    HW282345   6.953  11.263   4.223 -1.1920  0.1088  1.1834
25930SOL     OW82346   1.938   1.455   9.950  0.0186 -0.2923  0.5482
25930SOL    HW182347   1.868   1.481   9.890 -0.0195  0.3832  0.8722
25930SOL    HW282348   2.011   1.430   9.894 -0.7264 -1.7306  0.1866
25931SOL     OW82349   4.347   9.718   7.937 -0.2233 -0.1208  0.8641
25931SOL    HW182350   4.344   9.636   7.887  1.4678  0.2048  0.1446
25931SOL    HW282351   4.262   9.722   7.981 -0.9557 -1.4822 -0.3073
25932SOL     OW82352   3.419   7.768   4.445  0.0432 -0.7297 -0.0193
25932SOL    HW182353   3.413   7.836   4.512 -0.5683 -0.0936 -0.6973
25932SOL    HW282354   3.337   7.720   4.453 -0.9746  0.6340 -1.6229
25933SOL     OW82355   5.391   1.258   3.746 -0.3039  0.3731  0.3017
25933SOL    HW182356   5.334   1.318   3.794  0.5626  2.0093 -0.6197
25933SOL    HW282357   5.478   1.272   3.782 -0.0487 -0.1826 -0.0708
25934SOL     OW82358  11.785   4.934   2.619  0.2377 -0.0338 -0.6319
25934SOL    HW182359  11.715   4.927   2.683  1.6534 -0.1955  0.9784
25934SOL    HW282360  11.750   4.892   2.540 -0.7034 -2.0847  0.8020
25935SOL     OW82361   5.425  12.051   7.626  0.0861 -0.4985 -0.2639
25935SOL    HW182362   5.366  12.010   7.562 -0.3310 -1.2488  0.5657
25935SOL    HW282363   5.366  12.080   7.696  0.6214 -0.4964  0.1849
25936SOL     OW82364   1.666   4.838   8.996 -0.0638  0.9671  0.4008
25936SOL    HW182365   1.659   4.775   9.067  0.0490  0.6620  0.1415
25936SOL    HW282366   1.754   4.876   9.005  0.1132  0.6198  0.1701
25937SOL     OW82367   7.862   8.200   0.816 -0.6885  0.1851 -0.2151
25937SOL    HW182368   7.932   8.197   0.881 -1.9047 -3.1511  1.1757
25937SOL    HW282369   7.891   8.140   0.747 -0.8601  1.2098 -1.2234
25938SOL     OW82370  10.720  10.620  11.960 -0.4975  0.0106  0.0853
25938SOL    HW182371  10.751  10.704  11.992 -0.9017  0.2925 -0.2503
25938SOL    HW282372  10.771  10.605  11.880  1.0578 -1.0506  1.2103
25939SOL     OW82373   8.945  11.753   5.802 -0.4401 -0.1765  0.0851
25939SOL    HW182374   9.036  11.726   5.813  0.1553  1.9676  0.8341
25939SOL    HW282375   8.903  11.732   5.885 -0.3130 -0.0120  0.1908
25940SOL     OW82376   6.639   3.334   5.460 -0.7800 -0.2890  0.0902
25940SOL    HW182377   6.556   3.380   5.462 -0.9975 -0.6670 -0.1088
25940SOL    HW282378   6.621   3.251   5.504 -0.5376 -0.4163 -0.0494
25941SOL     OW82379   7.588   3.529   1.223 -0.3165  0.0366  0.0156
25941SOL    HW182380   7.555   3.542   1.135 -1.3871 -1.0787  0.2255
25941SOL    HW282381   7.607   3.435   1.228  0.7741  0.2753  0.6264
25942SOL     OW82382   0.860   9.579  10.652  0.6077  0.3803  0.2314
25942SOL    HW182383   0.882   9.486  10.651  1.3955  0.5584 -0.4296
25942SOL    HW282384   0.941   9.623  10.680  0.0297  0.8200  1.2520
25943SOL     OW82385  10.797   2.652   0.916 -0.6520  0.3464 -0.2692
25943SOL    HW182386  10.843   2.730   0.945 -2.3626  0.5625  2.1261
25943SOL    HW282387  10.796   2.659   0.820  2.7847  1.0853 -0.3897
25944SOL     OW82388   7.575   2.441   3.061  0.3913 -0.7332  0.3811
25944SOL    HW182389   7.566   2.503   3.133 -0.1673  1.6136 -1.6095
25944SOL    HW282390   7.631   2.485   2.997 -1.7773 -1.2922 -2.0791
25945SOL     OW82391   7.058   1.547   7.483 -0.1527  0.0732  0.1306
25945SOL    HW182392   6.998   1.622   7.477  1.5604  1.4888 -0.4160
25945SOL    HW282393   7.078   1.540   7.576 -0.4977  0.1463  0.2123
25946SOL     OW82394   4.256   4.662  10.739 -0.1986  0.4602 -0.3433
25946SOL    HW182395   4.179   4.711  10.711  0.7383  1.7113 -0.7975
25946SOL    HW282396   4.293   4.712  10.811 -0.8238 -1.1116  1.1335
25947SOL     OW82397   7.818   4.570  12.073 -0.2856 -0.6134  0.0725
25947SOL    HW182398   7.827   4.485  12.030 -1.7755 -2.2125  2.6979
25947SOL    HW282399   7.766   4.622  12.011  1.9835 -0.9446 -2.2952
25948SOL     OW82400  10.048   9.110  11.319  0.2318 -0.0581  0.2019
25948SOL    HW182401   9.998   9.109  11.238  1.0850  1.8846 -0.4116
25948SOL    HW282402  10.127   9.161  11.298  1.4991 -1.2976  1.6804
25949SOL     OW82403   1.103   8.427   7.381 -0.1200  0.1267 -0.0463
25949SOL    HW182404   1.168   8.362   7.408 -2.1065 -1.2196  1.7768
25949SOL    HW282405   1.156   8.501   7.349  2.3455 -0.6773  1.8002
25950SOL     OW82406   5.760   6.280   2.675  0.3895 -0.8158 -0.2103
25950SOL    HW182407   5.672   6.306   2.703  0.6783 -1.1704  1.0942
25950SOL    HW282408   5.814   6.358   2.688 -0.2141  0.4171 -3.8286
25951SOL     OW82409   4.263   1.806   8.088  0.3025  0.1524  0.2067
25951SOL    HW182410   4.354   1.800   8.059  0.2536  0.0728  0.0705
25951SOL    HW282411   4.260   1.886   8.141  0.3392  0.4162 -0.1886
25952SOL     OW82412   4.619   6.759   9.084 -0.4130 -0.0863  0.3394
25952SOL    HW182413   4.601   6.719   9.169  0.3749 -0.8230  0.1647
25952SOL    HW282414   4.703   6.803   9.094 -0.6790  0.4852  0.1573
25953SOL     OW82415   0.140   2.583   6.757  0.4086 -0.4290  0.0765
25953SOL    HW182416   0.053   2.607   6.791  0.0518 -1.1975 -0.2787
25953SOL    HW282417   0.143   2.624   6.671  1.0540  0.9645  0.7300
25954SOL     OW82418   3.227   4.889   8.578 -0.1449 -0.1908  0.7885
25954SOL    HW182419   3.320   4.880   8.562  0.0247 -1.0689  2.1131
25954SOL    HW282420   3.218   4.973   8.624 -0.5549  1.9835 -2.8406
25955SOL     OW82421   1.380   5.218   9.129 -0.4757  0.3747  0.1312
25955SOL    HW182422   1.458   5.179   9.169 -1.0336 -0.8584  0.0621
25955SOL    HW282423   1.315   5.148   9.131 -2.3217  1.9898  2.2370
25956SOL     OW82424   6.296   9.422   4.896  0.1033 -0.4984  0.0168
25956SOL    HW182425   6.204   9.406   4.878 -0.1297  0.6100  0.1280
25956SOL    HW282426   6.340   9.339   4.877 -1.0839 -1.4680  1.3081
25957SOL     OW82427   5.805   7.270  11.249  0.4054  0.4009  0.8502
25957SOL    HW182428   5.783   7.347  11.196  0.3272  0.6827  1.2845
25957SOL    HW282429   5.818   7.305  11.337  2.5837  0.2374  0.6366
25958SOL     OW82430   3.891   1.742   0.246  0.0338  0.2458 -0.6128
25958SOL    HW182431   3.974   1.788   0.234  0.8534 -0.8851  0.4334
25958SOL    HW282432   3.849   1.745   0.160  0.6043  1.8408 -0.8752
25959SOL     OW82433   5.413   6.837   3.018  0.4769  0.3378 -0.2865
25959SOL    HW182434   5.327   6.811   2.984  0.8143 -0.4837 -0.5373
25959SOL    HW282435   5.431   6.921   2.975 -0.3859  0.7268  0.1019
25960SOL     OW82436   8.172   0.918   2.689 -0.5897  0.2133 -0.0848
25960SOL    HW182437   8.205   0.969   2.763  0.3019 -0.7316  0.2039
25960SOL    HW282438   8.088   0.884   2.718 -0.3879  0.1068  0.3928
25961SOL     OW82439  10.978  10.888   7.144 -0.7503 -0.3599  0.1590
25961SOL    HW182440  11.024  10.805   7.143  0.1342  0.1142 -1.1183
25961SOL    HW282441  10.963  10.906   7.237  2.5064 -0.0886  0.7488
25962SOL     OW82442  10.900   9.879  10.889  0.0325  0.2672  0.2340
25962SOL    HW182443  10.939   9.857  10.973 -0.7713 -1.4458  0.1939
25962SOL    HW282444  10.806   9.872  10.903 -0.0907 -1.1534 -1.0573
25963SOL     OW82445   1.652   7.037   8.775 -0.1914 -0.0831 -0.2612
25963SOL    HW182446   1.739   7.076   8.764 -0.3117 -0.1407 -1.5581
25963SOL    HW282447   1.666   6.963   8.834  1.1006 -1.5446 -2.2958
25964SOL     OW82448   3.784   4.430  10.354 -0.3568  0.3776 -0.3278
25964SOL    HW182449   3.705   4.423  10.408 -2.2063  0.6775 -2.8299
25964SOL    HW282450   3.759   4.486  10.281  2.4124  1.0155 -0.9293
25965SOL     OW82451   0.860   2.922   1.561 -0.4130 -0.2369  0.0480
25965SOL    HW182452   0.925   2.969   1.509 -0.7648 -0.8535 -0.9736
25965SOL    HW282453   0.781   2.923   1.508 -0.8957 -0.5487  0.7414
25966SOL     OW82454   5.263  11.090   5.357  0.4018 -0.3565 -0.3423
25966SOL    HW182455   5.344  11.075   5.406  0.9132  1.5314 -0.5299
25966SOL    HW282456   5.194  11.083   5.422  0.4612 -3.7968 -0.4943
25967SOL     OW82457   0.590  11.909   6.038 -0.3586  0.0749  0.3450
25967SOL    HW182458   0.661  11.945   6.091 -0.8793 -0.3479  1.3709
25967SOL    HW282459   0.510  11.940   6.080 -0.7877 -0.3151 -0.1647
25968SOL     OW82460   2.990  11.148   7.953 -0.2910 -0.1624  0.0956
25968SOL    HW182461   3.074  11.153   7.908 -1.2589 -1.1375 -1.9622
25968SOL    HW282462   2.983  11.231   8.000  1.3600  0.3655 -0.5283
25969SOL     OW82463   7.895   3.505   8.780 -0.4649 -0.5814 -0.3634
25969SOL    HW182464   7.829   3.569   8.806  0.5038  0.1369  0.3735
25969SOL    HW282465   7.901   3.514   8.685 -0.7572 -0.0048 -0.3305
25970SOL     OW82466   4.988   2.054  10.660  0.1171 -0.1008 -0.2489
25970SOL    HW182467   4.960   2.100  10.581  0.3958 -0.8746 -0.8135
25970SOL    HW282468   4.944   2.099  10.731 -0.1836  0.5742 -0.8533
25971SOL     OW82469   7.487   2.703  10.698  0.2224  0.5906 -0.0573
25971SOL    HW182470   7.566   2.757  10.693  0.2521  0.4772 -0.9158
25971SOL    HW282471   7.419   2.755  10.655  0.4983 -0.4617 -1.9068
25972SOL     OW82472   5.599   7.335   8.105  0.1628 -0.4234  0.6852
25972SOL    HW182473   5.526   7.307   8.161 -1.8392  0.6754 -1.1860
25972SOL    HW282474   5.619   7.424   8.133 -0.6893  0.0439 -0.1046
25973SOL     OW82475  10.140  10.721   0.368 -0.0625  0.5454  0.4133
25973SOL    HW182476  10.092  10.639   0.380 -2.5438  1.6932 -0.8683
25973SOL    HW282477  10.157  10.726   0.274  0.9814  1.0504  0.6133
25974SOL     OW82478  10.876   7.907  12.058 -0.2718  0.1913 -0.1501
25974SOL    HW182479  10.801   7.957  12.027 -0.7512 -0.4085  0.0253
25974SOL    HW282480  10.948   7.970  12.060 -0.6882  0.6878 -0.6496
25975SOL     OW82481   9.196   6.168   1.983  0.1296 -0.0405 -0.1126
25975SOL    HW182482   9.193   6.260   1.955  1.0587 -0.1204 -0.4963
25975SOL    HW282483   9.127   6.162   2.049  0.3485  1.0456  0.2450
25976SOL     OW82484  10.037   3.387   5.873 -0.2189  0.0094  1.0105
25976SOL    HW182485   9.973   3.450   5.905  0.4320  0.4287  1.5103
25976SOL    HW282486  10.109   3.441   5.840 -1.2371 -0.3172 -2.1395
25977SOL     OW82487   4.199   2.310   4.421  0.0732 -0.3551 -0.0054
25977SOL    HW182488   4.105   2.295   4.435  0.2823 -0.9416  0.8663
25977SOL    HW282489   4.242   2.256   4.488  0.9710  2.0105  1.4391
25978SOL     OW82490   6.064   6.046   5.038 -0.2935 -0.0755 -0.6850
25978SOL    HW182491   6.009   6.084   4.970  0.9410  1.2762 -0.9843
25978SOL    HW282492   6.076   6.117   5.101 -0.1795 -0.8415  0.1748
25979SOL     OW82493   0.576   8.487   3.290  0.2663 -0.4547 -0.0526
25979SOL    HW182494   0.621   8.536   3.222 -1.0767 -1.7694 -2.0048
25979SOL    HW282495   0.487   8.523   3.291  0.0209 -1.0540  0.3639
25980SOL     OW82496   7.751   9.954   0.415 -0.3140 -0.2089 -0.2883
25980SOL    HW182497   7.824  10.012   0.437 -0.1018 -0.6151  0.1038
25980SOL    HW282498   7.682  10.013   0.386 -0.2700  0.2802  0.5676
25981SOL     OW82499   6.810   4.829   1.860 -0.4669 -0.3236  0.1229
25981SOL    HW182500   6.853   4.913   1.847 -0.3598 -0.5158 -0.8223
25981SOL    HW282501   6.814   4.786   1.775 -0.6509 -1.2271  0.5555
25982SOL     OW82502   3.899   1.006   9.440  0.1235  0.1208 -0.4485
25982SOL    HW182503   3.818   1.016   9.491  0.3442  1.1403 -0.2770
25982SOL    HW282504   3.893   0.918   9.403  0.6327 -1.3256  2.5413
25983SOL     OW82505  10.081   3.287   1.069 -0.0864  0.8535  0.0811
25983SOL    HW182506  10.025   3.210   1.058  0.2575  0.4559  1.0087
25983SOL    HW282507  10.135   3.288   0.989  0.0285  0.0260  0.1363
25984SOL     OW82508   3.236  11.101   7.816 -0.0005 -0.5168  0.5609
25984SOL    HW182509   3.327  11.103   7.847  0.2272 -1.2812 -0.0404
25984SOL    HW282510   3.206  11.013   7.835 -0.2850 -0.5831 -0.1933
25985SOL     OW82511  11.216   2.563   5.567  0.4500  0.1890 -0.4474
25985SOL    HW182512  11.188   2.478   5.531  2.1323 -1.0907  1.0405
25985SOL    HW282513  11.139   2.619   5.558 -0.6605 -1.4189 -1.6984
25986SOL     OW82514   1.950   2.765   9.576 -0.1636  1.3103  0.2557
25986SOL    HW182515   2.024   2.761   9.637  1.1894  0.9051 -1.3568
25986SOL    HW282516   1.978   2.824   9.507 -0.5154 -0.3617 -1.4115
25987SOL     OW82517   7.842  10.815  10.796  0.0396  0.0804  0.0462
25987SOL    HW182518   7.902  10.889  10.795  0.2512 -0.0676  0.9712
25987SOL    HW282519   7.764  10.848  10.842 -0.5803  0.2534 -1.0867
25988SOL     OW82520   7.627   4.040   0.535  0.2967 -0.1582 -0.0983
25988SOL    HW182521   7.608   3.954   0.572 -0.5883 -0.7594 -1.8620
25988SOL    HW282522   7.666   4.022   0.450  0.8621  1.1949 -0.1572
25989SOL     OW82523   5.944   7.069   6.621  0.0185 -0.0387 -0.1787
25989SOL    HW182524   5.995   7.037   6.696  1.1234 -0.5762 -1.1344
25989SOL    HW282525   5.866   7.108   6.661 -0.6199 -2.4436  1.1649
25990SOL     OW82526   2.266   7.979  10.461  0.3942  0.2670 -0.6177
25990SOL    HW182527   2.213   7.969  10.381 -1.5091  1.5381  0.4066
25990SOL    HW282528   2.276   8.073  10.472 -0.7812  0.2061  1.4684
25991SOL     OW82529   5.019  10.688   2.674  0.0146 -0.0956  0.1423
25991SOL    HW182530   5.040  10.730   2.591  1.9788  0.7325  1.0079
25991SOL    HW282531   4.942  10.735   2.706 -0.6228 -0.2716 -1.0558
25992SOL     OW82532   0.237   4.683   7.795 -0.0074  0.3800 -0.8169
25992SOL    HW182533   0.252   4.743   7.868 -0.2986 -1.8634  1.2258
25992SOL    HW282534   0.142   4.686   7.781 -0.6630 -2.3198  1.9813
25993SOL     OW82535   1.747   3.362   5.899 -0.3683  0.2150 -0.0310
25993SOL    HW182536   1.671   3.315   5.867  1.2383 -1.6246 -1.3676
25993SOL    HW282537   1.820   3.329   5.847  1.5085  1.2254  1.7971
25994SOL     OW82538   3.410   3.652   0.308  0.3139 -0.1288 -0.7343
25994SOL    HW182539   3.455   3.706   0.372 -0.5026 -0.3336  0.0252
25994SOL    HW282540   3.423   3.562   0.338  0.4073 -0.2715 -1.1809
25995SOL     OW82541  11.725   4.959   5.357 -0.4082 -0.0150  0.0655
25995SOL    HW182542  11.818   4.981   5.366 -0.6847  1.1121  0.3823
25995SOL    HW282543  11.724   4.865   5.338  0.8447  0.1214 -0.8525
25996SOL     OW82544   5.897   2.528   3.266  0.3517  0.0258 -0.7698
25996SOL    HW182545   5.826   2.588   3.288  0.0846 -0.1338 -1.1812
25996SOL    HW282546   5.917   2.483   3.348  0.8543  0.9785 -0.3495
25997SOL     OW82547   7.129  11.759   3.519 -0.0232 -0.3173 -1.1699
25997SOL    HW182548   7.200  11.696   3.530 -1.0190 -1.5907 -1.7653
25997SOL    HW282549   7.050  11.711   3.543 -0.5802  1.5492  1.0873
25998SOL     OW82550   9.488  10.613   5.522 -0.4173 -0.5684  0.4223
25998SOL    HW182551   9.419  10.633   5.459  0.4732  0.7355 -0.1962
25998SOL    HW282552   9.567  10.604   5.469 -0.0886 -1.9911  1.1212
25999SOL     OW82553   0.499  11.066   7.227  0.2894 -0.5496  0.2143
25999SOL    HW182554   0.446  11.016   7.165  1.0616 -0.6802 -0.3499
25999SOL    HW282555   0.583  11.080   7.183  0.2865  0.7859  0.5647
26000SOL     OW82556   3.358   9.148   5.269  0.6643  0.0405 -0.3116
26000SOL    HW182557   3.296   9.075   5.262  0.2084  0.3231  0.5957
26000SOL    HW282558   3.321   9.216   5.212  0.9286 -0.3223 -0.9203
26001SOL     OW82559  10.145   7.294   1.829 -0.0550 -0.2360  0.0072
26001SOL    HW182560  10.138   7.323   1.920  0.9270  0.4741 -0.1388
26001SOL    HW282561  10.229   7.328   1.799 -0.0877 -0.9951 -0.9815
26002SOL     OW82562   1.939   4.762   8.710  0.3444  0.2960  0.0429
26002SOL    HW182563   2.029   4.748   8.681  0.3762  1.8695 -0.7111
26002SOL    HW282564   1.944   4.837   8.769 -0.4109  0.0605  0.4244
26003SOL     OW82565   7.211   2.135  11.948  0.4182  0.0963 -0.2016
26003SOL    HW182566   7.219   2.052  11.995  0.1292  0.8544  1.2301
26003SOL    HW282567   7.117   2.152  11.946  0.5392  0.8862  0.4166
26004SOL     OW82568   6.103   6.619  11.772  0.1301  0.0221 -0.0647
26004SOL    HW182569   6.198   6.626  11.778  0.2336 -1.2303 -0.1293
26004SOL    HW282570   6.075   6.589  11.858 -0.4652  2.4999  0.7043
26005SOL     OW82571   2.231   0.244   1.737  0.3236  0.6237  0.9712
26005SOL    HW182572   2.324   0.226   1.752  0.9019  2.2935 -0.3075
26005SOL    HW282573   2.222   0.338   1.752 -0.5904  0.9852 -1.4335
26006SOL     OW82574   0.210   4.982   3.530 -0.4978  0.5030  0.3952
26006SOL    HW182575   0.268   4.913   3.495  3.4398  2.8853  1.5608
26006SOL    HW282576   0.252   5.008   3.612 -3.5867  2.2332  1.5704
26007SOL     OW82577   7.065   4.913   7.310  0.2775 -0.7119  0.2047
26007SOL    HW182578   7.143   4.965   7.329 -0.7554  0.9675  0.1284
26007SOL    HW282579   7.067   4.899   7.216  0.7739 -1.1603  0.2833
26008SOL     OW82580   7.912   4.972   2.719 -0.4117  0.3159  0.3695
26008SOL    HW182581   7.875   4.892   2.682 -0.1711 -0.1696  1.1519
26008SOL    HW282582   7.837   5.031   2.728 -0.5050  0.3727 -0.6834
26009SOL     OW82583   2.327  11.560  11.824  0.1860 -0.3282  0.2222
26009SOL    HW182584   2.269  11.635  11.809  0.1661 -0.7090 -1.8326
26009SOL    HW282585   2.353  11.568  11.916 -4.2971 -0.9708  1.8144
26010SOL     OW82586   6.439   1.087  10.319  0.1631 -0.1320 -0.1358
26010SOL    HW182587   6.520   1.132  10.294 -0.2270  0.3845 -0.4938
26010SOL    HW282588   6.466   1.024  10.386  0.7459  0.5404  0.2757
26011SOL     OW82589   4.807   2.352   4.842 -0.0037  0.4816  0.1984
26011SOL    HW182590   4.859   2.423   4.879  0.3821  0.0548  0.4879
26011SOL    HW282591   4.791   2.378   4.752 -1.2565  1.7006  0.7432
26012SOL     OW82592   8.710   1.839   0.552  0.2548  0.1477  0.6558
26012SOL    HW182593   8.725   1.889   0.472 -0.7608 -0.8153 -0.1714
26012SOL    HW282594   8.771   1.876   0.616  0.6528  1.3406 -0.3856
26013SOL     OW82595   0.685   4.057   6.047 -0.3524 -0.0998  0.2710
26013SOL    HW182596   0.716   4.033   6.134 -2.4752  0.5661  1.2713
26013SOL    HW282597   0.604   4.105   6.062 -0.5965  0.3638 -2.0708
26014SOL     OW82598   3.662   6.659  10.010  0.3674  0.0967 -0.0641
26014SOL    HW182599   3.595   6.664  10.078  0.1621 -0.0287 -0.2553
26014SOL    HW282600   3.653   6.572   9.973  2.7067 -1.1519  2.0029
26015SOL     OW82601   3.507   5.805   4.788  0.6846  0.0935  0.0153
26015SOL    HW182602   3.582   5.816   4.847  1.4965  0.7961 -1.0988
26015SOL    HW282603   3.541   5.830   4.702 -0.9836  0.9627 -0.4354
26016SOL     OW82604   8.128   0.392   1.975  0.3510  0.2881  0.3293
26016SOL    HW182605   8.101   0.311   2.020  0.0826 -0.7287 -1.5630
26016SOL    HW282606   8.050   0.447   1.976 -0.1796 -0.4287 -0.3683
26017SOL     OW82607  11.645  11.108   2.293  0.0136  0.5702  0.1520
26017SOL    HW182608  11.583  11.123   2.222  0.0917  1.4736  0.2632
26017SOL    HW282609  11.717  11.061   2.252 -1.6170 -2.4188  0.4441
26018SOL     OW82610   4.829  10.401   9.188  0.0112 -0.3147 -0.0778
26018SOL    HW182611   4.791  10.357   9.264 -0.1519  3.2189  2.1110
26018SOL    HW282612   4.920  10.418   9.213  0.1274  0.3683 -0.9194
26019SOL     OW82613   1.414   8.821   5.714  0.1996  0.2680  0.4535
26019SOL    HW182614   1.335   8.768   5.707  0.7985 -0.5674 -0.1029
26019SOL    HW282615   1.448   8.826   5.624  0.6557  0.8032  0.6490
26020SOL     OW82616   7.864   4.679   7.386  0.0205 -0.4350  0.7075
26020SOL    HW182617   7.908   4.638   7.311 -1.3620 -1.3477  0.3549
26020SOL    HW282618   7.934   4.691   7.450  0.8485 -1.6281  0.0857
26021SOL     OW82619   1.732   6.124   4.357 -0.5458  0.1556 -0.0861
26021SOL    HW182620   1.660   6.142   4.297  1.1726  3.0939 -1.4476
26021SOL    HW282621   1.807   6.106   4.300  0.5891  0.6485  1.1960
26022SOL     OW82622  10.530   4.439   2.256 -0.1682 -0.7502 -0.2217
26022SOL    HW182623  10.436   4.442   2.271 -0.1668 -0.8241 -0.2010
26022SOL    HW282624  10.544   4.494   2.179 -0.3512 -1.6038 -0.8711
26023SOL     OW82625   2.580   6.870  11.108  0.1075  0.2476  0.1667
26023SOL    HW182626   2.668   6.832  11.112  0.7516  1.3868 -1.6362
26023SOL    HW282627   2.581   6.941  11.172  0.5155  0.2665  0.1435
26024SOL     OW82628  12.047   1.247   6.359 -0.0646  0.7138 -0.4004
26024SOL    HW182629  12.058   1.324   6.302 -1.0097  0.0460 -1.5482
26024SOL    HW282630  12.130   1.238   6.405  0.3676  1.8948 -0.9169
26025SOL     OW82631   0.618   7.840   1.210  0.2622  0.3964 -0.2278
26025SOL    HW182632   0.701   7.876   1.180  0.4509 -0.0456 -0.2429
26025SOL    HW282633   0.608   7.758   1.162  0.9816 -0.7703  1.4851
26026SOL     OW82634   3.913   9.024   9.289  0.5432  0.1885  0.3235
26026SOL    HW182635   3.881   8.934   9.292  0.2720  0.2316 -0.7177
26026SOL    HW282636   3.849   9.070   9.234  0.2112  1.2231  1.5505
26027SOL     OW82637   3.012   8.314  11.263  0.2594  0.1377  0.5271
26027SOL    HW182638   3.083   8.269  11.309 -0.8050 -0.8765  1.2215
26027SOL    HW282639   2.959   8.351  11.333 -1.4909 -1.5873  0.1939
26028SOL     OW82640   8.526   4.213   9.981 -0.1224  0.2843 -0.1055
26028SOL    HW182641   8.559   4.288   9.931  0.3231 -0.1652 -0.5025
26028SOL    HW282642   8.566   4.137   9.939 -2.0993 -0.3381 -0.9355
26029SOL     OW82643   7.501   5.080   0.584 -0.1664  0.0313  0.0723
26029SOL    HW182644   7.459   5.096   0.669  0.8164 -1.3417  0.8589
26029SOL    HW282645   7.519   5.167   0.550 -0.3307  0.6173  1.4081
26030SOL     OW82646   2.286   9.119  10.607 -0.0542  0.3920  0.1290
26030SOL    HW182647   2.287   9.200  10.658  1.1740  0.6560 -0.2752
26030SOL    HW282648   2.236   9.057  10.661  2.4938  0.1809  2.4624
26031SOL     OW82649   2.725   2.160  10.268  0.1928 -0.0596 -0.0615
26031SOL    HW182650   2.641   2.175  10.225 -0.1158 -1.9479 -0.2010
26031SOL    HW282651   2.784   2.135  10.197  0.8833  1.1968  0.0426
26032SOL     OW82652   3.838   8.867   2.746  0.1058 -0.0868 -0.2359
26032SOL    HW182653   3.861   8.778   2.773 -0.1780 -0.0263  0.2311
26032SOL    HW282654   3.767   8.892   2.806 -1.5370 -0.4540 -1.9490
26033SOL     OW82655  11.089   4.949  11.343  0.1313 -0.4498  0.2127
26033SOL    HW182656  10.998   4.977  11.347  0.2829 -0.0445  1.4805
26033SOL    HW282657  11.098   4.904  11.259 -0.9505  0.4738 -0.4181
26034SOL     OW82658   1.022   4.477   9.480  0.3115  0.0951 -0.2216
26034SOL    HW182659   0.963   4.429   9.537  0.4872  1.2929  1.0348
26034SOL    HW282660   1.034   4.420   9.404 -1.5801 -0.6426 -0.0297
26035SOL     OW82661   5.714   6.780   7.387  0.6067 -0.4168  0.1325
26035SOL    HW182662   5.664   6.834   7.325 -0.1181  0.2863  1.2879
26035SOL    HW282663   5.792   6.832   7.405  0.7304 -0.5389 -0.0493
26036SOL     OW82664   9.596   7.311   1.620  0.0024  0.2858 -0.7387
26036SOL    HW182665   9.518   7.306   1.675  0.2430 -1.4197 -0.5085
26036SOL    HW282666   9.620   7.404   1.622 -1.8065  0.7949 -0.5435
26037SOL     OW82667   5.674   2.247   5.437  0.1610 -0.0586 -0.7070
26037SOL    HW182668   5.669   2.342   5.452 -0.7767 -0.2072 -0.0457
26037SOL    HW282669   5.675   2.209   5.524  1.3148 -0.6374 -0.9588
26038SOL     OW82670   4.428   9.851   5.196  0.3769 -0.3898  0.4209
26038SOL    HW182671   4.517   9.815   5.193 -0.1744 -1.7924  0.0096
26038SOL    HW282672   4.371   9.775   5.179 -0.8425  0.7471 -0.7420
26039SOL     OW82673   3.447   1.092   6.584  0.3440  0.5976  0.6103
26039SOL    HW182674   3.453   1.083   6.489 -0.6450  0.9038  0.5044
26039SOL    HW282675   3.497   1.018   6.619 -0.9897 -0.7243 -0.1779
26040SOL     OW82676   9.504  11.696   7.753 -0.0786 -0.2686  0.4828
26040SOL    HW182677   9.574  11.639   7.785 -0.4111 -0.6246  0.5817
26040SOL    HW282678   9.530  11.718   7.663  0.4906  0.1410  0.7405
26041SOL     OW82679  10.543  11.564   1.288  0.3262  0.1894  0.1274
26041SOL    HW182680  10.633  11.578   1.261  0.1973  0.8222  0.0168
26041SOL    HW282681  10.549  11.543   1.382  0.5937  0.1064  0.0924
26042SOL     OW82682   6.804   0.033   1.840 -0.3073  0.1440 -0.4038
26042SOL    HW182683   6.868   0.037   1.768  1.2564  0.2025  0.9242
26042SOL    HW282684   6.719   0.032   1.796  0.5578  0.9456 -2.2317
26043SOL     OW82685   5.891  10.195   9.144  0.0988 -0.0716 -0.0456
26043SOL    HW182686   5.824  10.241   9.195 -0.1437 -0.8924  0.3961
26043SOL    HW282687   5.924  10.127   9.203 -1.0227 -1.8279 -1.3435
26044SOL     OW82688   3.046   3.861   4.525  0.1830 -0.2699 -0.2516
26044SOL    HW182689   3.116   3.810   4.483 -0.7746 -2.5105  0.7417
26044SOL    HW282690   2.980   3.796   4.549 -0.8544  1.3765  1.6316
26045SOL     OW82691   5.978   2.499   7.043  0.1941  0.1185 -0.1623
26045SOL    HW182692   6.042   2.558   7.084  0.3640  1.4887 -2.2472
26045SOL    HW282693   5.900   2.507   7.098  1.4131 -0.7275  1.7886
26046SOL     OW82694   4.462   1.230   2.721  0.0450 -0.4464  0.5686
26046SOL    HW182695   4.438   1.224   2.629 -2.7178 -0.7044  1.2189
26046SOL    HW282696   4.449   1.322   2.744  0.4205 -0.4436  0.7854
26047SOL     OW82697  11.140   6.115   8.052  0.4490  0.4654  0.1223
26047SOL    HW182698  11.150   6.092   7.960  0.2783 -3.8756  1.0188
26047SOL    HW282699  11.053   6.085   8.075  1.3036 -0.5755  2.1966
26048SOL     OW82700   8.698   3.999   5.460 -0.8132  0.1031  0.1000
26048SOL    HW182701   8.722   4.091   5.457 -2.2976  0.5100 -2.1079
26048SOL    HW282702   8.720   3.966   5.373 -1.8499 -1.1914  0.2891
26049SOL     OW82703   0.333  11.813  12.044 -0.0900 -0.5729  0.4621
26049SOL    HW182704   0.289  11.745  12.096  0.6426 -0.1036  1.7400
26049SOL    HW282705   0.424  11.809  12.073  0.6153 -1.1183 -1.6976
26050SOL     OW82706   4.383   1.603  11.367  0.5161  0.0778 -0.2854
26050SOL    HW182707   4.394   1.618  11.461  1.5981  0.3471 -0.4468
26050SOL    HW282708   4.347   1.515  11.361  1.0267 -0.1811  0.3585
26051SOL     OW82709   1.531   0.197  11.671  0.1021 -0.0776 -0.2297
26051SOL    HW182710   1.569   0.197  11.759 -2.1317 -1.1824  0.8109
26051SOL    HW282711   1.547   0.286  11.639  0.1079  0.6786  1.6868
26052SOL     OW82712   5.396   9.134   6.445 -0.2309 -0.1975 -0.1305
26052SOL    HW182713   5.415   9.136   6.539 -1.0484  1.0256  0.0266
26052SOL    HW282714   5.311   9.177   6.437  0.5728  1.2219 -1.6057
26053SOL     OW82715   8.141   9.048   1.970  0.8060 -0.4888  0.1850
26053SOL    HW182716   8.216   9.104   1.990 -0.2171  0.5058  1.3827
26053SOL    HW282717   8.069   9.109   1.955  0.0499 -1.4455 -0.1722
26054SOL     OW82718   0.134  10.685   4.392  0.5499  0.0656  0.3555
26054SOL    HW182719   0.216  10.655   4.355  0.8053  1.2436 -0.0932
26054SOL    HW282720   0.072  10.683   4.319  0.1027 -1.0351  0.7429
26055SOL     OW82721   4.438   3.357   0.644  0.3993 -0.2188  0.6623
26055SOL    HW182722   4.514   3.388   0.693 -0.7266  0.3852  2.0968
26055SOL    HW282723   4.363   3.401   0.684 -0.8029 -1.3673 -0.2068
26056SOL     OW82724  11.512   8.899   4.996 -0.2612 -0.0409  1.0025
26056SOL    HW182725  11.495   8.890   4.902  0.0502  1.7409  0.7401
26056SOL    HW282726  11.429   8.926   5.033 -0.5817 -1.4838  1.3873
26057SOL     OW82727   2.297   9.327   0.840 -0.3730  0.3079 -0.4915
26057SOL    HW182728   2.311   9.402   0.898  1.5526 -1.1123  1.0263
26057SOL    HW282729   2.383   9.288   0.830 -1.4391 -2.2977 -0.3458
26058SOL     OW82730   0.023   3.115   6.473  0.5359  0.2025  0.0964
26058SOL    HW182731   0.036   3.061   6.395  0.0934  0.0435  0.1283
26058SOL    HW282732   0.108   3.155   6.488  0.2384  1.5193 -1.4308
26059SOL     OW82733   6.526   7.139   2.429 -0.2418 -0.2029  0.2144
26059SOL    HW182734   6.561   7.065   2.479  1.5577 -0.0843 -0.7716
26059SOL    HW282735   6.487   7.197   2.494 -0.7963 -1.5371  1.1076
26060SOL     OW82736  11.194   4.758   6.613 -0.1012  0.2625 -0.5854
26060SOL    HW182737  11.221   4.708   6.690 -0.1476 -0.5723 -1.0976
26060SOL    HW282738  11.105   4.786   6.633 -0.0324  0.2522 -0.2446
26061SOL     OW82739   3.675   1.954   6.606 -0.2654  0.5999  0.2466
26061SOL    HW182740   3.604   1.948   6.670 -0.9863 -0.2288 -0.5927
26061SOL    HW282741   3.668   2.042   6.571  1.0833  1.6176  2.3146
26062SOL     OW82742  11.827   7.603  10.473 -0.2854 -0.1748 -0.5586
26062SOL    HW182743  11.851   7.609  10.565  1.3956 -1.6008 -0.8363
26062SOL    HW282744  11.900   7.644  10.426 -2.1543  2.6499 -1.2549
26063SOL     OW82745   1.277   8.179  12.099  0.0644 -0.0447  0.0369
26063SOL    HW182746   1.217   8.181  12.025 -0.6792  0.0936  0.6384
26063SOL    HW282747   1.248   8.250  12.156  0.0662 -0.7278  0.9087
26064SOL     OW82748   1.804   1.309   0.756  0.2317 -0.2732 -0.9374
26064SOL    HW182749   1.776   1.259   0.833  0.6503  0.7957 -0.0790
26064SOL    HW282750   1.722   1.343   0.718  0.1280  0.3026 -0.2000
26065SOL     OW82751   0.577   8.550   3.888 -0.1532 -0.3602  1.0367
26065SOL    HW182752   0.602   8.629   3.937  2.3033  0.2723 -1.0039
26065SOL    HW282753   0.651   8.491   3.898  0.5993 -0.0921 -1.9481
26066SOL     OW82754   1.586   0.485   2.246 -0.2940  0.3921  0.0729
26066SOL    HW182755   1.655   0.435   2.202  0.2535  0.7810  0.4683
26066SOL    HW282756   1.515   0.422   2.257  0.8014 -0.6694  1.5849
26067SOL     OW82757   4.729   0.316   0.662  0.6919 -0.5815 -0.0267
26067SOL    HW182758   4.678   0.235   0.668 -0.9842  0.3978 -0.3819
26067SOL    HW282759   4.777   0.308   0.580 -1.2355 -0.2774 -1.2420
26068SOL     OW82760   8.899   2.383   8.174 -0.4508 -0.3936  0.1899
26068SOL    HW182761   8.812   2.412   8.145  0.6947  0.4637 -2.7296
26068SOL    HW282762   8.913   2.301   8.128  0.4905 -0.2729  0.2485
26069SOL     OW82763   2.981   0.220   7.592 -0.1652  0.6816  0.1820
26069SOL    HW182764   2.999   0.299   7.541 -0.2825  0.7799  0.2886
26069SOL    HW282765   3.067   0.188   7.619 -0.1614  2.0366  2.0346
26070SOL     OW82766   0.258   4.633   3.301  1.1975 -0.3372  0.0918
26070SOL    HW182767   0.337   4.642   3.248  0.9512 -1.2696 -0.4505
26070SOL    HW282768   0.281   4.571   3.370  1.7078  1.3163  1.5112
26071SOL     OW82769  11.259   1.224   7.181 -0.1915  0.5444  0.1404
26071SOL    HW182770  11.218   1.282   7.245 -0.6960 -0.2400  0.5393
26071SOL    HW282771  11.251   1.271   7.098  0.1104  1.3889  0.5739
26072SOL     OW82772   8.740  11.033   2.746  0.0293 -0.0528 -0.9826
26072SOL    HW182773   8.672  10.968   2.761  1.4021 -1.0696  1.3074
26072SOL    HW282774   8.696  11.117   2.761 -0.5270 -0.7263  1.7712
26073SOL     OW82775  10.147   2.230   7.497  0.4794  0.4909  0.3507
26073SOL    HW182776  10.212   2.243   7.427 -0.1351  0.4288 -0.2470
26073SOL    HW282777  10.076   2.181   7.455 -0.0155  0.6773  0.9555
26074SOL     OW82778   3.214   0.160   2.766  0.0089  0.0505  0.4488
26074SOL    HW182779   3.300   0.178   2.804  0.0782  2.8985 -0.7328
26074SOL    HW282780   3.160   0.133   2.840  1.4598  0.0114  1.5453
26075SOL     OW82781   6.102   0.810   6.446  0.2436  0.8482 -0.4877
26075SOL    HW182782   6.125   0.820   6.538  2.5496  0.1975 -0.9331
26075SOL    HW282783   6.036   0.740   6.445  0.4480  0.6330  0.6470
26076SOL     OW82784   1.587   4.172   1.698  0.0416 -0.3711  0.2630
26076SOL    HW182785   1.637   4.092   1.688  1.1046  0.1848  0.9642
26076SOL    HW282786   1.651   4.243   1.685 -1.0421  0.4023 -1.2903
26077SOL     OW82787   6.963   9.403   6.603  0.2876 -0.2248  0.9081
26077SOL    HW182788   7.056   9.407   6.581  0.7621 -1.0305  2.5588
26077SOL    HW282789   6.938   9.312   6.587 -1.1099  0.6299 -2.5618
26078SOL     OW82790   9.517   1.894   0.866 -0.2120 -0.7764 -0.6771
26078SOL    HW182791   9.512   1.805   0.901  1.1290  0.4331  3.1099
26078SOL    HW282792   9.426   1.923   0.862 -0.5874 -1.9137 -0.9074
26079SOL     OW82793   4.012   2.610  11.574 -0.2910 -0.0279 -1.0194
26079SOL    HW182794   4.028   2.685  11.518  1.0569  0.9009  0.5265
26079SOL    HW282795   4.013   2.645  11.663  2.0772 -2.0434 -0.1074
26080SOL     OW82796  11.508   3.142   2.809 -0.3985  0.5689  0.4948
26080SOL    HW182797  11.498   3.065   2.752 -1.3032  1.0639 -0.0351
26080SOL    HW282798  11.422   3.152   2.851  0.1181  0.4955  1.5903
26081SOL     OW82799   2.372   0.118  10.037  0.5993 -0.1177 -0.0532
26081SOL    HW182800   2.387   0.207  10.070  1.8300 -0.4969  0.4804
26081SOL    HW282801   2.353   0.066  10.115 -2.5107  0.0804 -0.5808
26082SOL     OW82802  11.444   8.521   3.468 -0.1777  0.0224  0.4723
26082SOL    HW182803  11.431   8.434   3.429  1.0548  0.1702 -0.3184
26082SOL    HW282804  11.525   8.512   3.519 -0.8026  0.3375  1.5523
26083SOL     OW82805  11.357  11.851   5.991 -0.4310  0.3612 -0.2808
26083SOL    HW182806  11.446  11.857   5.954 -0.3416  0.0528 -0.1125
26083SOL    HW282807  11.336  11.758   5.988 -1.0993  0.5288 -1.1442
26084SOL     OW82808   8.979  12.108  11.535 -0.0729 -0.0958 -0.1494
26084SOL    HW182809   8.886  12.119  11.553 -0.2467 -1.0574 -0.3922
26084SOL    HW282810   8.983  12.077  11.444  0.3859 -1.1887  0.2155
26085SOL     OW82811  11.220  10.770   7.410 -0.1926  0.1149  1.1921
26085SOL    HW182812  11.315  10.774   7.420 -0.1660 -1.4155  1.9237
26085SOL    HW282813  11.198  10.679   7.429 -1.9012  0.6232  1.8490
26086SOL     OW82814   9.421   5.657   0.847 -0.4996 -0.1707 -0.1895
26086SOL    HW182815   9.458   5.672   0.760 -1.8291  1.0690 -0.5724
26086SOL    HW282816   9.495   5.667   0.906  0.7289 -2.3452 -1.2037
26087SOL     OW82817   8.542   0.704   2.675 -0.2025  0.0288 -0.1749
26087SOL    HW182818   8.515   0.771   2.738 -0.1279  0.8304 -0.9829
26087SOL    HW282819   8.604   0.650   2.724  1.4639  1.8589 -0.1059
26088SOL     OW82820   7.709   6.326   9.065  0.1175 -0.4937  0.2275
26088SOL    HW182821   7.771   6.358   9.130  0.3106 -1.0563  0.3218
26088SOL    HW282822   7.724   6.232   9.061  0.6677 -0.3829 -1.1983
26089SOL     OW82823   9.381   0.898   6.227 -0.1943 -0.1494 -0.3872
26089SOL    HW182824   9.388   0.805   6.250  1.6409  0.2269  0.6621
26089SOL    HW282825   9.388   0.945   6.310 -1.9076  0.9528 -0.7994
26090SOL     OW82826   8.299   5.148   3.353 -0.4439  0.1058 -0.0280
26090SOL    HW182827   8.236   5.078   3.373 -0.5949  0.2333 -0.0511
26090SOL    HW282828   8.286   5.164   3.259  1.9537 -2.1819 -0.8645
26091SOL     OW82829   6.030  11.370   2.554  0.0590  0.0241 -0.4571
26091SOL    HW182830   6.007  11.277   2.556 -1.6669  0.3722 -1.8688
26091SOL    HW282831   6.098  11.377   2.487 -0.8079 -0.0590 -1.3691
26092SOL     OW82832   3.793   1.094  11.454 -0.0264  0.8884  0.2281
26092SOL    HW182833   3.831   1.040  11.385 -1.2740  0.7224 -0.3565
26092SOL    HW282834   3.732   1.036  11.500  0.6963  1.0303  1.4062
26093SOL     OW82835   7.728   0.033   5.835 -0.0115  0.8065 -0.1345
26093SOL    HW182836   7.678  -0.037   5.793 -0.7247  1.2145  0.0219
26093SOL    HW282837   7.766   0.082   5.762  0.3188  0.3866 -0.2490
26094SOL     OW82838   4.020   9.050   2.909 -0.1302  0.4526  0.2145
26094SOL    HW182839   3.988   9.137   2.888  1.5541  1.2901  0.9223
26094SOL    HW282840   3.943   9.003   2.943 -1.6314  0.8060 -2.4726
26095SOL     OW82841   5.162  12.111   3.940  0.3899  0.1476 -0.4540
26095SOL    HW182842   5.208  12.076   3.864  1.5333 -1.5189  0.9503
26095SOL    HW282843   5.096  12.045   3.961 -1.6518  1.7373 -1.4168
26096SOL     OW82844   0.778   3.648   9.523  0.3250 -0.4413 -0.6322
26096SOL    HW182845   0.771   3.598   9.441 -1.9896  1.3637 -1.6467
26096SOL    HW282846   0.700   3.624   9.573  1.2077 -0.7569  0.6406
26097SOL     OW82847   8.139   3.661   7.654 -0.1452  0.7016 -0.2908
26097SOL    HW182848   8.069   3.675   7.718  0.3127  1.3728  0.0756
26097SOL    HW282849   8.131   3.734   7.593 -1.2363 -0.4773 -1.6499
26098SOL     OW82850   7.424  11.473   6.376 -0.0656 -0.0703 -0.3006
26098SOL    HW182851   7.502  11.437   6.420 -0.6143 -0.7747  0.1293
26098SOL    HW282852   7.412  11.417   6.300  0.5963  0.8505 -1.1188
26099SOL     OW82853   0.824   7.108   6.303 -0.3029 -0.4252 -0.1310
26099SOL    HW182854   0.843   7.134   6.393 -0.3305  0.3480 -0.3428
26099SOL    HW282855   0.828   7.189   6.253 -0.6348 -0.7953 -0.7733
26100SOL     OW82856   1.661   1.252   1.299  0.0999 -0.3992 -0.5080
26100SOL    HW182857   1.723   1.191   1.259  0.7445 -0.7628  0.9782
26100SOL    HW282858   1.622   1.203   1.371  0.2208  0.7445  0.3703
26101SOL     OW82859   4.215  10.094   8.460 -0.0177 -0.1010 -0.1496
26101SOL    HW182860   4.268  10.146   8.520 -0.6185 -0.2930  0.5707
26101SOL    HW282861   4.271  10.080   8.383  1.8601 -2.1679  1.4554
26102SOL     OW82862  11.796   3.246  10.346 -0.3852 -1.0101  0.0720
26102SOL    HW182863  11.807   3.151  10.341  0.0857 -0.9228 -0.7857
26102SOL    HW282864  11.803   3.276  10.255 -0.0521 -0.1037  0.3826
26103SOL     OW82865   0.658   8.340  10.514 -0.1134 -0.2490 -0.0365
26103SOL    HW182866   0.578   8.343  10.463  0.6168 -1.3193 -1.3173
26103SOL    HW282867   0.704   8.421  10.492 -0.8983  0.4636  0.8554
26104SOL     OW82868   3.841  11.983   5.324  0.4036  0.3718 -0.6557
26104SOL    HW182869   3.840  12.058   5.382 -0.1377  0.4393 -0.7551
26104SOL    HW282870   3.862  12.019   5.238  0.2462  0.3940 -0.6842
26105SOL     OW82871   1.012   3.229   1.676  0.4218 -0.6100  0.3253
26105SOL    HW182872   0.926   3.256   1.642  0.4532  1.5788  1.7874
26105SOL    HW282873   1.065   3.216   1.598 -0.4702  0.7681 -0.5570
26106SOL     OW82874   3.767   4.036   0.312  0.1807 -0.5366  0.8172
26106SOL    HW182875   3.674   4.054   0.298  0.2138 -1.9522 -2.1293
26106SOL    HW282876   3.811   4.118   0.288 -0.2261 -0.5185  0.0951
26107SOL     OW82877  11.980   7.669   4.584  0.2203  0.3234 -0.4070
26107SOL    HW182878  11.977   7.742   4.521  1.1638 -1.3124 -2.4820
26107SOL    HW282879  12.056   7.687   4.639 -1.1151  2.2306  0.9386
26108SOL     OW82880   8.018   6.401   1.560  0.0321  0.3324 -0.2414
26108SOL    HW182881   8.041   6.313   1.530 -1.7485 -0.0736 -0.5668
26108SOL    HW282882   7.972   6.441   1.486 -0.6205  0.9199  0.4578
26109SOL     OW82883   0.291   7.598   3.408 -0.2138 -0.3239  0.2231
26109SOL    HW182884   0.303   7.621   3.316 -0.1814  2.6923  0.8649
26109SOL    HW282885   0.305   7.504   3.412 -0.7377 -0.6266 -2.9231
26110SOL     OW82886   3.949   2.164   3.722  0.2518  0.0167  0.0768
26110SOL    HW182887   4.003   2.241   3.742 -1.8640  1.7372 -0.4312
26110SOL    HW282888   3.926   2.128   3.808  0.2551  0.7108  0.3777
26111SOL     OW82889   8.252   9.162  10.125 -0.2037 -0.0598 -0.0908
26111SOL    HW182890   8.199   9.237  10.099 -1.9144 -1.4700 -0.8221
26111SOL    HW282891   8.265   9.174  10.220  1.5295  2.2974 -0.5211
26112SOL     OW82892   2.761   2.273   5.612 -0.6460  0.2876  0.6206
26112SOL    HW182893   2.724   2.281   5.525  0.8814 -0.0926 -0.0956
26112SOL    HW282894   2.691   2.234   5.665 -0.5304 -2.6028 -1.1933
26113SOL     OW82895   0.408   1.617   0.747  0.5504 -0.2705  0.3077
26113SOL    HW182896   0.471   1.606   0.677 -0.1995 -1.0770 -0.2755
26113SOL    HW282897   0.416   1.537   0.799  1.0013  0.2584  1.0693
26114SOL     OW82898   4.855  10.928   2.404 -0.2591 -0.5406  0.3302
26114SOL    HW182899   4.779  10.908   2.349 -0.4787 -1.2399  0.8881
26114SOL    HW282900   4.928  10.883   2.362 -0.1780 -0.0437 -0.0839
26115SOL     OW82901   6.265   2.116   8.112  0.0126  0.1488  0.2677
26115SOL    HW182902   6.185   2.165   8.132  1.6758  2.7760  1.1424
26115SOL    HW282903   6.291   2.148   8.025 -0.2812 -1.3281 -0.3913
26116SOL     OW82904   2.742   9.952  11.442  0.1563 -0.8005 -0.7497
26116SOL    HW182905   2.734   9.887  11.512  0.1751  0.5327  0.5444
26116SOL    HW282906   2.661   9.943  11.392 -0.6204 -0.6816  0.4422
26117SOL     OW82907   7.738   7.409   7.819  0.5786  0.2284  0.3628
26117SOL    HW182908   7.742   7.314   7.823  1.2679  0.1041 -1.8090
26117SOL    HW282909   7.652   7.428   7.783  1.1886  0.2704 -1.1655
26118SOL     OW82910   9.241   7.640   3.986 -0.2397 -0.1208 -0.1259
26118SOL    HW182911   9.247   7.545   3.994 -1.2250 -0.2553 -0.7599
26118SOL    HW282912   9.301   7.674   4.051  3.0648 -1.1984 -2.3467
26119SOL     OW82913   4.588  11.081   9.105 -0.1320  0.3087 -0.5485
26119SOL    HW182914   4.638  11.024   9.046  1.0355  0.4967  0.2304
26119SOL    HW282915   4.648  11.099   9.178 -1.1872  0.9110  0.1989
26120SOL     OW82916   4.500  11.845   3.773 -0.1988  0.2452  0.0157
26120SOL    HW182917   4.514  11.930   3.813 -1.0239 -0.0886  1.0658
26120SOL    HW282918   4.405  11.833   3.776 -0.3107  0.2257 -2.1118
26121SOL     OW82919   0.540   7.989  11.305 -0.3569 -0.0329  0.4592
26121SOL    HW182920   0.492   7.931  11.364 -0.4728 -0.3295  0.0824
26121SOL    HW282921   0.578   8.056  11.361 -2.3665  1.0324  0.6567
26122SOL     OW82922   8.302   6.154   0.862  0.5083  0.0581 -0.0251
26122SOL    HW182923   8.367   6.218   0.890 -0.1069  0.6746  0.0266
26122SOL    HW282924   8.336   6.070   0.892  1.3260  0.3546 -0.0955
26123SOL     OW82925   4.421   0.785   7.952 -0.6607  0.2659  0.1606
26123SOL    HW182926   4.487   0.750   8.013 -0.4729 -1.4435 -0.9540
26123SOL    HW282927   4.385   0.707   7.908 -3.0760  1.1901  0.3541
26124SOL     OW82928   7.357   7.686  10.733  0.1168 -0.4445  0.1003
26124SOL    HW182929   7.427   7.621  10.725  1.9406  1.2929  0.9389
26124SOL    HW282930   7.354   7.708  10.826  0.6829  1.7728 -0.3393
26125SOL     OW82931   8.814   8.104   1.353  0.4878  0.6616  0.7183
26125SOL    HW182932   8.843   8.057   1.431 -1.7303  1.2192  1.9842
26125SOL    HW282933   8.892   8.147   1.320  2.0944 -1.8975  0.9225
26126SOL     OW82934   7.451   2.563   0.666  0.5835 -0.2416 -0.1852
26126SOL    HW182935   7.455   2.658   0.666 -0.7842 -0.1687 -0.0493
26126SOL    HW282936   7.476   2.537   0.755  2.9561 -0.1535 -0.7572
26127SOL     OW82937   1.227   4.205   9.309 -0.8503 -0.1718 -0.5963
26127SOL    HW182938   1.230   4.142   9.237 -1.9335 -0.4024 -0.4404
26127SOL    HW282939   1.313   4.196   9.351  0.2742  0.7830 -2.5362
26128SOL     OW82940   8.455   2.844   4.371  0.2405 -0.3197  0.0269
26128SOL    HW182941   8.400   2.798   4.434  0.2487 -0.2163  0.1108
26128SOL    HW282942   8.418   2.823   4.285  1.2352 -1.8543 -0.0743
26129SOL     OW82943   6.066   6.677   1.643 -0.1024 -0.0123  0.4405
26129SOL    HW182944   5.992   6.657   1.586 -0.6642 -0.3826  1.2742
26129SOL    HW282945   6.033   6.747   1.700  0.5069  0.4780  0.1931
26130SOL     OW82946   3.774   1.914   8.265 -0.3077 -0.9650  0.0034
26130SOL    HW182947   3.845   1.965   8.227 -0.4332 -0.1878  0.7774
26130SOL    HW282948   3.787   1.825   8.231 -1.0763 -0.1218 -2.7905
26131SOL     OW82949   4.298   4.180   1.950 -0.5369  0.6120 -0.3822
26131SOL    HW182950   4.320   4.135   2.031  1.4869  0.5353 -0.9006
26131SOL    HW282951   4.343   4.129   1.882  0.4614  2.4378 -1.1678
26132SOL     OW82952  11.176   8.081   4.542  0.3353  0.2665  0.9005
26132SOL    HW182953  11.240   8.152   4.537  0.2047  0.3160 -2.0964
26132SOL    HW282954  11.224   8.003   4.515 -0.2333 -0.2342  1.3152
26133SOL     OW82955   3.785   3.577   0.302  0.1363  0.2364 -0.5684
26133SOL    HW182956   3.794   3.641   0.231  1.4269 -1.8044 -2.3916
26133SOL    HW282957   3.739   3.504   0.261 -0.1568 -0.5343  1.0862
26134SOL     OW82958   5.843   8.659   0.560  0.0568  0.0682  0.4035
26134SOL    HW182959   5.872   8.669   0.651  0.0613 -0.2479  0.4353
26134SOL    HW282960   5.800   8.574   0.557  0.6687 -0.2299 -0.0516
26135SOL     OW82961   4.341  11.767   6.777 -0.7896  0.5256  0.5085
26135SOL    HW182962   4.414  11.824   6.753 -0.8745  2.0195  3.4660
26135SOL    HW282963   4.374  11.715   6.850 -1.4169 -1.7953 -0.7655
26136SOL     OW82964   6.156   8.384   8.865 -1.1235 -0.3509  0.2725
26136SOL    HW182965   6.209   8.316   8.905 -1.7035 -0.9315  0.0864
26136SOL    HW282966   6.076   8.387   8.918 -0.3646  1.5140  1.4385
26137SOL     OW82967  11.127   8.333   8.403  0.2263 -1.3329 -0.2110
26137SOL    HW182968  11.049   8.365   8.448  0.5948 -0.7287  0.0047
26137SOL    HW282969  11.178   8.411   8.385  0.5303 -1.6698 -0.8442
26138SOL     OW82970   9.631   4.862   8.657 -0.4599 -0.5203  0.4806
26138SOL    HW182971   9.585   4.910   8.726 -0.4743 -0.1903  0.2467
26138SOL    HW282972   9.603   4.905   8.576 -0.3080 -0.7926  0.2827
26139SOL     OW82973   2.560   9.406   5.630 -0.0620  0.5124  0.2591
26139SOL    HW182974   2.530   9.442   5.547 -0.1065 -0.8989 -0.3783
26139SOL    HW282975   2.481   9.371   5.671 -0.0058  1.0027  0.7970
26140SOL     OW82976   5.002  11.116   7.267  0.8608 -0.0939 -0.6976
26140SOL    HW182977   5.013  11.087   7.357  0.0251  1.8725  0.0999
26140SOL    HW282978   4.987  11.036   7.217 -0.1174 -1.1063  1.1279
26141SOL     OW82979   3.223   7.925   2.661  0.5572 -0.0553  0.0129
26141SOL    HW182980   3.186   7.990   2.603  2.6914  0.5073 -0.8261
26141SOL    HW282981   3.158   7.915   2.731 -0.6447  1.5882 -0.7967
26142SOL     OW82982   9.884   1.598   9.043  0.2494 -0.2230 -0.2970
26142SOL    HW182983   9.929   1.547   9.110  0.0814  0.0820  0.0516
26142SOL    HW282984   9.799   1.556   9.034 -0.0901  0.3102  0.3725
26143SOL     OW82985   3.010  11.073   4.389  0.1712  0.5163 -0.5146
26143SOL    HW182986   3.105  11.064   4.378  0.1751 -0.6902  0.2509
26143SOL    HW282987   2.989  11.014   4.462 -0.7114  3.1317  1.5352
26144SOL     OW82988  10.505   1.477   6.047 -0.6484  0.1977  0.5483
26144SOL    HW182989  10.417   1.439   6.053 -0.6754  0.2061  0.2127
26144SOL    HW282990  10.539   1.473   6.136 -0.4313 -1.1147  0.4174
26145SOL     OW82991   7.060   2.423   2.325  0.0342 -0.4149  0.1461
26145SOL    HW182992   7.107   2.502   2.352 -0.7973  0.2600 -0.3215
26145SOL    HW282993   7.057   2.369   2.404 -0.6181  0.6498  0.8816
26146SOL     OW82994   4.972   2.558   0.725  0.2717  0.3842  0.3226
26146SOL    HW182995   4.999   2.468   0.705 -3.8875 -1.0929  0.3652
26146SOL    HW282996   4.996   2.570   0.817 -0.0095 -1.0864  0.6142
26147SOL     OW82997   2.913   9.719   8.525 -0.2024  0.3022 -0.1486
26147SOL    HW182998   2.898   9.776   8.600  1.4982  1.1411 -0.4032
26147SOL    HW282999   2.826   9.684   8.504 -0.8062  0.5063  1.8177
26148SOL     OW83000   2.142  12.107   0.075 -0.2260  0.2890 -0.2955
26148SOL    HW183001   2.190  12.027   0.097 -1.6742  0.0636  2.4401
26148SOL    HW283002   2.209  12.175   0.070  0.8666 -0.8187 -1.2706
26149SOL     OW83003  11.866  10.363   9.488  0.6262 -0.1768  0.2660
26149SOL    HW183004  11.934  10.384   9.553 -0.6454  2.4519  0.8914
26149SOL    HW283005  11.833  10.448   9.460 -0.6482 -1.3253 -1.9558
26150SOL     OW83006   9.733   9.772  10.637  0.1662 -0.1496  0.4397
26150SOL    HW183007   9.711   9.787  10.729 -0.1514  1.3375  0.1580
26150SOL    HW283008   9.795   9.842  10.616  0.4779 -0.6632 -0.3954
26151SOL     OW83009   7.926   4.425  11.867  0.0619 -0.3172  0.3372
26151SOL    HW183010   7.849   4.393  11.821 -0.3440 -0.6652  1.2395
26151SOL    HW283011   7.976   4.473  11.800 -0.3616 -1.0534 -0.5201
26152SOL     OW83012   8.599   9.697   1.718 -0.6783 -0.0264 -0.0250
26152SOL    HW183013   8.550   9.778   1.737 -0.2207  0.0252  0.9642
26152SOL    HW283014   8.625   9.706   1.626 -0.9326  0.7919 -0.0241
26153SOL     OW83015   0.756   2.620  11.440 -0.0809  0.3799 -0.0431
26153SOL    HW183016   0.740   2.531  11.409 -1.9344  0.5388  0.3317
26153SOL    HW283017   0.775   2.609  11.534  2.3216  0.1907 -0.4893
26154SOL     OW83018   6.632   7.641   8.447  0.1714 -0.3077 -0.1454
26154SOL    HW183019   6.570   7.658   8.376 -0.4298  0.1530  0.4692
26154SOL    HW283020   6.717   7.668   8.412  0.0591 -1.1255 -1.0633
26155SOL     OW83021   6.322  10.941   3.286 -0.0265 -0.3452  0.2886
26155SOL    HW183022   6.285  11.020   3.246 -0.7819  0.0776  1.7407
26155SOL    HW283023   6.343  10.884   3.212 -3.8524 -0.7322 -0.7022
26156SOL     OW83024  11.684   9.026   7.726  0.3258 -0.2746 -0.3186
26156SOL    HW183025  11.616   8.961   7.742  1.0699 -0.6491  1.5952
26156SOL    HW283026  11.759   8.975   7.695  0.8160 -0.3334  0.9076
26157SOL     OW83027   9.549  10.915   7.046  0.3810  0.3378 -0.2344
26157SOL    HW183028   9.497  10.891   7.122  0.9305 -0.5959 -0.1299
26157SOL    HW283029   9.492  10.895   6.971 -0.5417  2.2032 -0.0797
26158SOL     OW83030   7.918   5.392   2.586 -0.1988 -0.1506 -0.4952
26158SOL    HW183031   7.888   5.357   2.670 -0.5433 -0.5801 -0.7969
26158SOL    HW283032   7.970   5.322   2.548 -1.3851 -0.5796 -1.3682
26159SOL     OW83033   0.374   3.924  11.197 -0.1645 -0.4127  0.4915
26159SOL    HW183034   0.408   3.896  11.282 -2.9390 -0.1388  1.8193
26159SOL    HW283035   0.308   3.991  11.218 -0.1510  0.4855 -1.9730
26160SOL     OW83036   9.350   2.335   9.760  0.3719  0.3198  0.1162
26160SOL    HW183037   9.418   2.403   9.760  0.9903 -0.2906 -0.2089
26160SOL    HW283038   9.348   2.303   9.670  0.4721 -0.4724  0.3865
26161SOL     OW83039   6.412   3.825   1.599 -0.1530 -0.0082 -0.4466
26161SOL    HW183040   6.318   3.841   1.593 -0.1616  0.6793  1.0995
26161SOL    HW283041   6.436   3.849   1.689  0.9853 -2.9613  0.1815
26162SOL     OW83042  10.964   3.977   9.581 -0.2178  0.4769 -0.2092
26162SOL    HW183043  10.964   4.027   9.663 -1.1775 -1.7004  1.2190
26162SOL    HW283044  11.057   3.960   9.564 -0.0368 -0.1857  1.2214
26163SOL     OW83045   6.798   8.005   5.909  0.1574 -0.8034  0.0800
26163SOL    HW183046   6.711   8.038   5.888 -0.8593 -2.6951  1.0852
26163SOL    HW283047   6.845   8.007   5.825 -1.4731 -1.5217 -0.8986
26164SOL     OW83048   4.093   4.459  10.345  0.7046  0.2860  0.7684
26164SOL    HW183049   4.120   4.416  10.426  0.1156 -2.0436 -0.1912
26164SOL    HW283050   4.001   4.479  10.357  0.7767  0.5310  0.9142
26165SOL     OW83051   0.010   9.281  10.191 -0.3653 -0.3382  0.5051
26165SOL    HW183052  -0.069   9.227  10.187 -0.5989  0.0632 -1.0375
26165SOL    HW283053  -0.022   9.371  10.189  0.1285 -0.1700 -0.8815
26166SOL     OW83054   0.503   5.893   4.809  0.5192 -0.2524  0.3212
26166SOL    HW183055   0.415   5.925   4.791  1.6080  2.1407 -1.3390
26166SOL    HW283056   0.504   5.878   4.903 -1.8357 -1.0348  0.2881
26167SOL     OW83057   7.080  10.530   0.007  0.4038  0.0336 -0.1586
26167SOL    HW183058   7.037  10.590  -0.054 -0.2920 -0.8561 -0.5667
26167SOL    HW283059   7.064  10.568   0.094 -1.4738 -0.4006 -0.2734
26168SOL     OW83060   6.886  10.375   4.408 -0.1151  0.4924 -0.5770
26168SOL    HW183061   6.834  10.319   4.465 -0.1729 -0.5189 -1.5781
26168SOL    HW283062   6.842  10.460   4.410 -0.4837  0.2902  0.3484
26169SOL     OW83063   5.891  11.236   3.406 -0.2345 -0.7143 -0.0661
26169SOL    HW183064   5.967  11.288   3.380  0.1709 -0.7836  0.9376
26169SOL    HW283065   5.816  11.292   3.384  0.1795  0.1348  0.6210
26170SOL     OW83066   8.282   2.955   6.863  0.0338 -0.9683 -1.0211
26170SOL    HW183067   8.344   2.992   6.927 -1.6619  0.7353 -0.2713
26170SOL    HW283068   8.265   2.866   6.895 -0.5356 -0.2663  0.7936
26171SOL     OW83069   3.565   0.480   7.646  0.0096  0.3074  0.3650
26171SOL    HW183070   3.612   0.527   7.577  0.5268  1.8654  1.7048
26171SOL    HW283071   3.492   0.439   7.601  0.6115  0.8434 -1.1877
26172SOL     OW83072  11.765   8.195   3.504 -0.4337  0.7767 -0.2014
26172SOL    HW183073  11.707   8.130   3.545  0.0580  0.5223  0.1168
26172SOL    HW283074  11.837   8.204   3.566  0.2029  0.5773 -0.8958
26173SOL     OW83075   8.341   5.513   3.758 -0.7066  0.0510 -0.3385
26173SOL    HW183076   8.257   5.468   3.759  0.0295 -1.3675  0.9519
26173SOL    HW283077   8.366   5.520   3.850 -0.0769  1.7738 -0.6037
26174SOL     OW83078   4.852   9.720   0.255  0.3872  0.1913 -0.0656
26174SOL    HW183079   4.908   9.798   0.257 -0.4426  0.8280 -0.7070
26174SOL    HW283080   4.891   9.663   0.189  1.7021 -0.5174  1.2548
26175SOL     OW83081  11.201   3.869   1.667 -0.0540  0.1297 -0.7118
26175SOL    HW183082  11.160   3.884   1.752  0.9221  0.7888 -0.3352
26175SOL    HW283083  11.293   3.895   1.679  0.5376 -1.4765 -1.4653
26176SOL     OW83084  10.779   5.780   2.395  0.0481  0.5833 -0.3803
26176SOL    HW183085  10.741   5.765   2.481  1.2599 -0.8252 -0.0555
26176SOL    HW283086  10.728   5.724   2.336  1.7458 -1.6191  0.1194
26177SOL     OW83087   0.121   1.247   6.842  0.1510  0.2991 -0.6063
26177SOL    HW183088   0.212   1.256   6.815  1.0100  0.0945  1.9810
26177SOL    HW283089   0.109   1.311   6.912 -0.3740 -2.4036  2.0052
26178SOL     OW83090   1.484   7.459   9.959 -0.9240 -0.4546  0.4992
26178SOL    HW183091   1.406   7.472   9.905 -0.1906  0.6393 -0.3396
26178SOL    HW283092   1.543   7.408   9.904 -0.7888 -0.7305  0.8929
26179SOL     OW83093   9.135   6.976   4.645  0.2868  0.0472 -0.0715
26179SOL    HW183094   9.078   7.021   4.582 -1.4700  1.3435  2.2938
26179SOL    HW283095   9.076   6.938   4.709  2.0124  0.9136  2.1717
26180SOL     OW83096   6.661   3.560  11.998  0.0985 -0.3495  0.3742
26180SOL    HW183097   6.717   3.567  11.921  0.9567  0.2393  1.0318
26180SOL    HW283098   6.719   3.525  12.066 -0.3590  0.1638  1.0384
26181SOL     OW83099   6.902   4.278   7.542 -0.5954 -0.0246 -0.3940
26181SOL    HW183100   6.816   4.281   7.583  0.3574 -0.4124  1.7997
26181SOL    HW283101   6.917   4.367   7.510 -1.3071  0.3754  0.3513
26182SOL     OW83102   1.455   8.985   0.868 -0.3342 -0.4604 -0.0318
26182SOL    HW183103   1.406   9.054   0.912  0.0037 -0.5398  0.4792
26182SOL    HW283104   1.458   9.012   0.776  1.2693  1.0893  0.4247
26183SOL     OW83105   8.627  11.594   0.355 -0.0908 -0.2131  0.4929
26183SOL    HW183106   8.581  11.579   0.437  0.5700 -1.1652  0.7050
26183SOL    HW283107   8.560  11.586   0.287 -0.2899 -1.4294  0.8090
26184SOL     OW83108   6.517  11.494   9.424  0.0794  0.1697  0.2409
26184SOL    HW183109   6.534  11.583   9.455 -1.8886  0.4723  0.5674
26184SOL    HW283110   6.488  11.447   9.502  1.3192 -0.8523  0.1148
26185SOL     OW83111   1.367  11.985   3.612 -0.4064 -0.0175  0.2414
26185SOL    HW183112   1.392  11.904   3.568  0.0706 -0.6419  1.5886
26185SOL    HW283113   1.378  12.053   3.546  1.4687 -0.7371 -0.2457
26186SOL     OW83114   3.560   6.817   9.536  0.0415 -0.6158 -0.3694
26186SOL    HW183115   3.524   6.811   9.447 -3.3912 -0.0500  0.8116
26186SOL    HW283116   3.521   6.743   9.583 -0.6290  0.7244  1.3246
26187SOL     OW83117   7.421   8.673  10.931  0.0177  0.0965  0.0517
26187SOL    HW183118   7.425   8.577  10.937 -1.5486  0.0304  0.4455
26187SOL    HW283119   7.353   8.698  10.994 -0.3259  1.3895 -0.7968
26188SOL     OW83120   5.740   2.571   0.736  0.4505 -0.4098  0.0983
26188SOL    HW183121   5.764   2.481   0.757  0.8124  0.1010  2.0660
26188SOL    HW283122   5.645   2.570   0.731  0.4313 -0.8420  0.4770
26189SOL     OW83123   3.674   6.884   5.857 -0.3283 -0.1853 -0.2575
26189SOL    HW183124   3.725   6.964   5.871 -1.2634  0.2110  1.1063
26189SOL    HW283125   3.715   6.820   5.916  1.2231 -1.1488 -2.2555
26190SOL     OW83126   4.803   6.199   9.972  0.2524 -0.2810 -0.2995
26190SOL    HW183127   4.793   6.123  10.030  0.0489  0.6125  0.8725
26190SOL    HW283128   4.818   6.273  10.031 -0.6795  0.7855 -1.3362
26191SOL     OW83129   5.392  10.180   2.464  0.4888  0.0052  0.0313
26191SOL    HW183130   5.309  10.139   2.437  1.0772  0.6780 -3.2231
26191SOL    HW283131   5.365  10.255   2.518 -1.1959  0.9682 -1.9814
26192SOL     OW83132   8.778   6.887   3.002  0.3631  0.0427 -0.3805
26192SOL    HW183133   8.845   6.913   2.938  0.2945  1.3980  0.0831
26192SOL    HW283134   8.827   6.875   3.083  0.2312 -0.2630 -0.3453
26193SOL     OW83135  10.212   2.557   7.500  0.0157  0.2248  0.1392
26193SOL    HW183136  10.134   2.563   7.446  0.5264  3.6442 -0.4390
26193SOL    HW283137  10.285   2.566   7.438  0.8068 -0.5716  0.9209
26194SOL     OW83138   9.331   2.242   7.717 -0.0843 -0.6196 -0.1363
26194SOL    HW183139   9.246   2.286   7.707  0.9459  1.2136 -1.2855
26194SOL    HW283140   9.357   2.218   7.629  0.8127 -0.7549  0.1546
26195SOL     OW83141  11.211  11.442  11.902 -0.0403  0.0569 -0.4105
26195SOL    HW183142  11.226  11.535  11.883  1.8283 -0.1470 -0.1375
26195SOL    HW283143  11.117  11.434  11.914 -0.0565  2.3044  1.5537
26196SOL     OW83144   9.907   2.281  11.238  0.2107 -0.4171 -0.0731
26196SOL    HW183145   9.837   2.314  11.294 -0.4802 -0.6977 -0.7573
26196SOL    HW283146   9.937   2.201  11.282  0.3409 -0.1079  0.4034
26197SOL     OW83147   3.958   3.390   6.035 -0.7657  0.1063  0.2963
26197SOL    HW183148   3.901   3.312   6.035  1.0166 -1.2983 -1.6401
26197SOL    HW283149   3.904   3.458   5.996 -1.2556 -1.1376 -1.3248
26198SOL     OW83150   4.681   4.216   2.682  0.0116 -0.4884  0.2028
26198SOL    HW183151   4.651   4.307   2.687 -1.2317 -0.9110  0.7829
26198SOL    HW283152   4.601   4.165   2.678  0.6672 -1.6428  1.2571
26199SOL     OW83153   8.520   9.673   1.259  0.3981 -0.0593  0.0461
26199SOL    HW183154   8.474   9.737   1.313  0.8079  0.6720 -0.4573
26199SOL    HW283155   8.581   9.725   1.207  1.4097 -0.9471  0.2985
26200SOL     OW83156   9.219  11.230   2.486  0.4425 -0.6185 -0.1845
26200SOL    HW183157   9.273  11.262   2.414  0.7330 -2.2088 -0.7047
26200SOL    HW283158   9.276  11.234   2.562  0.5118 -0.0452 -0.2582
26201SOL     OW83159  11.441   2.854   6.237 -0.1749  0.2869 -0.3217
26201SOL    HW183160  11.447   2.813   6.324  1.6689 -1.1348 -1.0594
26201SOL    HW283161  11.461   2.946   6.252 -1.0312  0.2966  0.9071
26202SOL     OW83162   0.047   3.845   7.285 -0.2547  0.4797  0.2751
26202SOL    HW183163   0.043   3.752   7.308 -1.1366  0.6141  0.7234
26202SOL    HW283164   0.011   3.849   7.196  0.7424  0.2735 -0.1446
26203SOL     OW83165  10.503   2.619   9.052 -0.3667 -0.6917  0.2303
26203SOL    HW183166  10.589   2.629   9.093 -0.4959 -2.0673  0.8885
26203SOL    HW283167  10.444   2.597   9.124 -1.2795  0.2191 -0.2162
26204SOL     OW83168   6.877   1.095   5.576  0.8448 -0.8662 -0.2729
26204SOL    HW183169   6.927   1.128   5.651  0.7833  0.0553 -0.6281
26204SOL    HW283170   6.786   1.107   5.602  0.8169  0.3573 -0.8612
26205SOL     OW83171   9.710   9.677   5.490 -0.0962  0.1670  0.0979
26205SOL    HW183172   9.665   9.756   5.521  1.5986  0.7322  1.3281
26205SOL    HW283173   9.640   9.619   5.459 -1.3405  2.5376 -1.8795
26206SOL     OW83174  11.592   3.162  10.071  0.4152  0.1312  0.5412
26206SOL    HW183175  11.498   3.167  10.059  0.4832  0.0192 -0.0313
26206SOL    HW283176  11.607   3.076  10.110  0.4394 -0.5395 -0.9130
26207SOL     OW83177  10.173  10.521   4.247 -0.1253  0.3310  0.3386
26207SOL    HW183178  10.259  10.562   4.256  0.7854 -1.0924 -1.1796
26207SOL    HW283179  10.145  10.543   4.158 -0.1285 -1.2741 -0.0971
26208SOL     OW83180   5.521   1.229   0.668 -0.1517 -0.2817 -0.0638
26208SOL    HW183181   5.524   1.157   0.605 -0.5348 -1.1518  0.8869
26208SOL    HW283182   5.431   1.229   0.700  0.3486 -0.7124  1.4306
26209SOL     OW83183   4.038   0.384   4.022  0.0510  0.1564  0.7424
26209SOL    HW183184   4.117   0.407   4.071 -0.0701 -1.2252  1.6625
26209SOL    HW283185   3.981   0.344   4.087 -0.6324 -0.5819 -0.2804
26210SOL     OW83186  10.769   9.025   3.928  0.8344 -0.1242 -0.5285
26210SOL    HW183187  10.804   9.077   4.000 -2.2373  0.7166  0.5107
26210SOL    HW283188  10.779   8.934   3.957  1.1073  0.1416  0.2292
26211SOL     OW83189   7.622   0.759   5.386  0.2059 -0.1645  0.0703
26211SOL    HW183190   7.561   0.784   5.317  1.3611  1.8578 -0.2751
26211SOL    HW283191   7.636   0.665   5.372 -2.3666 -0.5730 -0.1539
26212SOL     OW83192  10.959   7.270   7.000  0.4142  0.1485  0.4458
26212SOL    HW183193  10.943   7.189   7.049 -0.9540  1.2192  1.8462
26212SOL    HW283194  10.966   7.338   7.067  2.1029  1.1551 -0.6659
26213SOL     OW83195   5.117   7.108   0.718  0.1846 -0.5768  0.2497
26213SOL    HW183196   5.046   7.170   0.703  0.0372 -0.8976 -0.4309
26213SOL    HW283197   5.144   7.124   0.808 -1.5543 -1.2666  0.9439
26214SOL     OW83198   7.143   1.315   1.528  0.0253 -0.9268 -0.6427
26214SOL    HW183199   7.048   1.324   1.532  0.2528  1.6341  1.1956
26214SOL    HW283200   7.164   1.262   1.605  0.3146  3.0064  2.3231
26215SOL     OW83201   1.469   0.231   8.151  0.0495 -0.5331 -0.1381
26215SOL    HW183202   1.401   0.217   8.217 -1.4143  1.3766 -1.1469
26215SOL    HW283203   1.520   0.305   8.186 -0.3819  0.1142 -0.8535
26216SOL     OW83204   5.041   9.120  10.458  0.5846 -0.3074 -0.2784
26216SOL    HW183205   5.072   9.030  10.461 -0.3294 -0.5946  1.4725
26216SOL    HW283206   4.965   9.117  10.399  0.4393 -0.7256 -0.0727
26217SOL     OW83207   9.797   1.727   8.775 -0.2791 -0.0061  0.1321
26217SOL    HW183208   9.811   1.732   8.870 -0.3284  1.6519  0.0913
26217SOL    HW283209   9.712   1.769   8.762  0.7655  1.9447 -0.8323
26218SOL     OW83210   9.712   8.903   8.171 -0.0903  0.3353  0.0509
26218SOL    HW183211   9.655   8.831   8.146 -0.0125 -1.0309  3.2486
26218SOL    HW283212   9.801   8.866   8.166  0.2446  1.2685 -1.3369
26219SOL     OW83213   0.093   7.568   6.267 -0.2146  0.2986  0.2324
26219SOL    HW183214   0.167   7.533   6.217 -0.2413  2.5602 -1.5408
26219SOL    HW283215   0.092   7.661   6.246 -0.9110  1.1879  3.7027
26220SOL     OW83216   9.898   0.681   2.794  0.1991  0.0991  0.5739
26220SOL    HW183217   9.978   0.726   2.767  0.8383 -0.2883  1.7287
26220SOL    HW283218   9.922   0.589   2.796 -1.0268 -0.3240 -1.5239
26221SOL     OW83219   9.293   4.469   5.938  0.0691  0.3267 -0.4646
26221SOL    HW183220   9.344   4.389   5.934 -0.7133 -0.1415 -2.6607
26221SOL    HW283221   9.322   4.513   6.018  0.2814 -2.2697  0.9985
26222SOL     OW83222   8.363   1.298   4.352  0.3443 -0.2626 -0.2313
26222SOL    HW183223   8.380   1.262   4.438  1.9303 -2.3584 -1.3514
26222SOL    HW283224   8.447   1.295   4.307 -0.5630  0.2272 -2.0604
26223SOL     OW83225   2.579   6.663   9.440 -0.3969 -0.2797  0.5688
26223SOL    HW183226   2.674   6.673   9.436 -0.3972 -0.4335  0.2133
26223SOL    HW283227   2.565   6.605   9.516 -0.1654 -0.8448  0.1877
26224SOL     OW83228   5.829  10.105   1.700 -0.0854 -0.6045 -0.0578
26224SOL    HW183229   5.895  10.061   1.646  0.1389 -1.0063  0.5344
26224SOL    HW283230   5.766  10.140   1.637 -0.7132 -2.4937 -0.5418
26225SOL     OW83231   4.760  11.626   2.303 -0.0646 -0.5578 -0.0778
26225SOL    HW183232   4.822  11.694   2.277 -0.0998 -0.0796  1.0408
26225SOL    HW283233   4.751  11.571   2.225 -2.9617  2.7932 -2.4332
26226SOL     OW83234   9.053   9.849   0.102 -0.2426 -0.6127  0.2667
26226SOL    HW183235   9.140   9.884   0.120 -0.2528 -0.2779 -0.2860
26226SOL    HW283236   9.044   9.855   0.006 -0.0824 -2.4977  0.0900
26227SOL     OW83237   5.098  11.738  10.784  0.2627  0.0390  0.5871
26227SOL    HW183238   5.124  11.703  10.699  0.9338  1.5992  0.1291
26227SOL    HW283239   5.003  11.750  10.777  0.1488 -0.8354  0.4581
26228SOL     OW83240   0.624   0.609   5.868 -0.5013  0.2305 -0.0725
26228SOL    HW183241   0.570   0.541   5.828  1.1551 -1.3140  0.2072
26228SOL    HW283242   0.688   0.632   5.801 -1.2642  1.8133 -0.2944
26229SOL     OW83243   5.368   2.534  11.935 -0.2721 -0.0213 -0.2049
26229SOL    HW183244   5.291   2.505  11.885  0.1058 -0.8511 -0.3271
26229SOL    HW283245   5.434   2.553  11.868 -0.5314  1.2481 -0.1325
26230SOL     OW83246   1.881  11.876   2.554 -0.1618 -0.3422 -0.5563
26230SOL    HW183247   1.939  11.930   2.499 -0.2270 -1.4095 -1.7037
26230SOL    HW283248   1.938  11.807   2.587 -0.2554 -0.0248  0.3013
26231SOL     OW83249  10.065   6.055   9.839 -0.0855  0.1713  0.3179
26231SOL    HW183250  10.077   6.029   9.747  1.4911  1.1808  0.1923
26231SOL    HW283251   9.980   6.019   9.863 -1.6128  1.7373 -2.2074
26232SOL     OW83252  11.466  10.524   1.311  0.1491 -0.0130  0.7402
26232SOL    HW183253  11.454  10.495   1.401  3.1875 -4.2809  0.0479
26232SOL    HW283254  11.557  10.552   1.306 -0.1155  0.7029 -0.9319
26233SOL     OW83255   6.889   5.189  11.081 -0.1587 -0.1549  0.0728
26233SOL    HW183256   6.823   5.199  11.012 -2.0124  1.4991  1.9448
26233SOL    HW283257   6.891   5.095  11.099 -0.5262 -0.4602 -1.3704
26234SOL     OW83258   6.914   2.058   7.418  0.4048  0.1378 -0.6031
26234SOL    HW183259   6.897   2.152   7.415 -1.7256 -0.1042  1.1390
26234SOL    HW283260   6.828   2.018   7.420  1.2708 -1.8627 -1.0609
26235SOL     OW83261   2.035   3.980   5.667  0.0532  0.7298 -0.4767
26235SOL    HW183262   2.057   3.917   5.735 -2.4863  0.5914  0.2973
26235SOL    HW283263   2.064   3.938   5.586 -1.6295 -1.5355  0.0067
26236SOL     OW83264   9.416   1.376   5.390 -0.1758 -0.4532 -0.4428
26236SOL    HW183265   9.328   1.365   5.354  0.1668 -1.9435 -0.9230
26236SOL    HW283266   9.468   1.408   5.317 -0.4614  1.2457  0.0603
26237SOL     OW83267   1.016   3.849  11.030  0.0406 -0.3298  0.3835
26237SOL    HW183268   1.029   3.826  10.938  0.0992 -0.4563  0.4240
26237SOL    HW283269   1.104   3.846  11.069 -0.1086 -1.2919  0.6825
26238SOL     OW83270   5.057   9.266   1.080 -0.4348  0.3823  0.6633
26238SOL    HW183271   5.047   9.256   1.175 -1.8492  0.7715  0.5773
26238SOL    HW283272   4.997   9.337   1.057 -0.1171  0.2803 -0.5303
26239SOL     OW83273   5.038   0.880   3.935 -0.2216 -0.1022  0.0687
26239SOL    HW183274   5.046   0.966   3.894  0.5819 -0.2407 -0.0798
26239SOL    HW283275   5.093   0.886   4.013 -1.7743  0.1770  1.1928
26240SOL     OW83276   8.806   2.360   5.450  0.1057  0.3829 -0.2765
26240SOL    HW183277   8.711   2.352   5.455  0.0013  1.1919 -0.7018
26240SOL    HW283278   8.829   2.318   5.367  0.3001 -1.1177  0.5090
26241SOL     OW83279   3.739   0.209   7.738  0.1810 -0.0639  0.2013
26241SOL    HW183280   3.669   0.273   7.747  0.6616  0.4598  0.2423
26241SOL    HW283281   3.735   0.180   7.647 -0.2968 -0.2761  0.2909
26242SOL     OW83282   8.266   8.070   0.839  0.2961 -0.1553  0.2456
26242SOL    HW183283   8.350   8.053   0.881  0.6938  0.3850 -0.3241
26242SOL    HW283284   8.280   8.147   0.785 -0.4616 -0.2866 -0.1626
26243SOL     OW83285   6.032   0.238   1.478 -0.7423  0.5050  0.1891
26243SOL    HW183286   5.997   0.275   1.559  1.6185  2.5075  0.4364
26243SOL    HW283287   6.060   0.150   1.502 -2.6338  0.0229  0.7510
26244SOL     OW83288   5.388   0.677   9.245 -0.2995  0.1423  0.1720
26244SOL    HW183289   5.352   0.600   9.288  0.9950  0.3746  1.8150
26244SOL    HW283290   5.358   0.751   9.299  0.4190  0.5466  0.0441
26245SOL     OW83291   4.674   9.827   8.793 -0.2383  0.3068  0.0880
26245SOL    HW183292   4.737   9.816   8.864 -0.6119 -0.5520  0.2950
26245SOL    HW283293   4.621   9.902   8.820  0.4754  0.8274  0.0699
26246SOL     OW83294   7.074   8.067   7.832 -0.5216 -0.1217 -0.8222
26246SOL    HW183295   7.142   8.043   7.769 -0.5879 -0.1551 -0.8811
26246SOL    HW283296   6.994   8.070   7.781 -0.2427  2.1185 -1.2242
26247SOL     OW83297   1.129   1.117   5.880 -0.0180  0.1318 -0.8882
26247SOL    HW183298   1.107   1.210   5.885 -0.5514 -0.0299 -0.0550
26247SOL    HW283299   1.222   1.116   5.856 -0.0905  0.8663 -1.2514
26248SOL     OW83300   8.067   5.983   4.558  0.2836 -1.1257  0.3101
26248SOL    HW183301   8.125   5.910   4.539 -0.0435 -0.7889 -2.3223
26248SOL    HW283302   7.981   5.943   4.568  0.5963 -1.4040  2.1776
26249SOL     OW83303   6.822   9.093   1.529 -0.1212  0.6834 -0.3922
26249SOL    HW183304   6.895   9.042   1.494 -0.5062  0.7463 -1.3265
26249SOL    HW283305   6.856   9.134   1.608  0.0679 -1.3647  0.6417
26250SOL     OW83306   9.451   9.401  10.594  0.6394 -0.4690 -0.2612
26250SOL    HW183307   9.437   9.412  10.688  0.4013  0.3230 -0.3811
26250SOL    HW283308   9.455   9.491  10.560  0.9087 -0.7459 -0.9783
26251SOL     OW83309  11.632   0.057  11.007  0.1145 -0.1229 -0.3658
26251SOL    HW183310  11.579   0.116  10.953 -1.0928 -1.2825 -0.4954
26251SOL    HW283311  11.581  -0.024  11.011  0.1876 -0.1301  2.4749
26252SOL     OW83312   5.297   2.259   1.050  0.3379  0.2340 -0.7432
26252SOL    HW183313   5.372   2.239   0.993 -0.2281  0.9606 -1.7685
26252SOL    HW283314   5.298   2.355   1.058 -1.1237  0.3663 -1.7068
26253SOL     OW83315   6.453   4.657   3.388  0.3672  0.0758  0.3481
26253SOL    HW183316   6.431   4.724   3.324 -0.5008  1.2788  1.8524
26253SOL    HW283317   6.549   4.649   3.382  0.3270  0.2607 -0.9591
26254SOL     OW83318  11.526   9.148   2.197 -0.5953  0.2930  0.6771
26254SOL    HW183319  11.594   9.088   2.166 -1.6679 -0.1816 -0.8293
26254SOL    HW283320  11.572   9.231   2.209  0.4586 -0.2697  0.6709
26255SOL     OW83321   5.206  11.131   8.053  0.5079  0.0033  0.0520
26255SOL    HW183322   5.138  11.075   8.015  2.5012 -1.0585 -2.2341
26255SOL    HW283323   5.190  11.218   8.017  2.1142 -0.8973 -3.1857
26256SOL     OW83324  11.514   3.184  11.603  0.4872 -0.0041 -0.5272
26256SOL    HW183325  11.441   3.218  11.552 -0.0431  0.4503  0.5130
26256SOL    HW283326  11.480   3.105  11.645 -0.5800  1.9403  2.6438
26257SOL     OW83327   0.021   6.440   8.475  0.0233  0.3443  0.3503
26257SOL    HW183328  -0.045   6.384   8.517  1.0833  0.1166  1.7913
26257SOL    HW283329   0.080   6.465   8.547  2.2074 -0.4460 -1.0667
26258SOL     OW83330   0.051  10.000  11.203 -0.3068 -0.2041  0.3504
26258SOL    HW183331   0.082  10.008  11.113 -0.3998  0.3996  0.3664
26258SOL    HW283332   0.065  10.087  11.241  2.5423 -1.1828  1.8545
26259SOL     OW83333  11.766   1.329   6.414 -0.0141 -0.0768 -0.3553
26259SOL    HW183334  11.859   1.304   6.413  0.5705  1.6754  2.3109
26259SOL    HW283335  11.720   1.248   6.389  2.1035 -1.7539  0.8242
26260SOL     OW83336   2.640   0.733   3.752 -0.4866 -0.3532  0.2625
26260SOL    HW183337   2.625   0.684   3.671  1.4158  1.0055 -0.9868
26260SOL    HW283338   2.564   0.791   3.759 -1.9423 -2.2390  0.8882
26261SOL     OW83339  10.051   8.484   7.955 -0.0926  0.1133 -0.1261
26261SOL    HW183340  10.089   8.514   7.872 -0.9689 -0.6106 -0.8066
26261SOL    HW283341  10.073   8.554   8.017  1.8168  0.0093 -0.6089
26262SOL     OW83342   2.679  10.264   5.130 -0.3524 -0.5770 -0.3149
26262SOL    HW183343   2.743  10.294   5.065 -0.4419  0.1247 -0.0893
26262SOL    HW283344   2.722  10.191   5.174  0.5431  0.2650  0.2416
26263SOL     OW83345   7.528   3.456  11.831  0.5199  0.2591 -0.0900
26263SOL    HW183346   7.548   3.449  11.925 -2.0198  0.5445  0.5719
26263SOL    HW283347   7.543   3.548  11.810  0.7603  0.2754  0.1509
26264SOL     OW83348   9.715   4.988   9.476  0.0078 -0.1168 -0.1370
26264SOL    HW183349   9.701   5.037   9.557  2.1569  2.1796 -1.0387
26264SOL    HW283350   9.664   5.035   9.410  0.2598 -0.4789 -0.5980
26265SOL     OW83351   0.637  11.350   7.020 -0.0698 -0.5270  0.4568
26265SOL    HW183352   0.576  11.419   7.046  1.1168  0.6562  0.1930
26265SOL    HW283353   0.699  11.343   7.092  1.0084  0.1242 -0.3823
26266SOL     OW83354   6.561   8.108  10.975  0.5289 -0.2190  0.1736
26266SOL    HW183355   6.494   8.081  11.038  0.7315 -2.1384 -0.3657
26266SOL    HW283356   6.543   8.057  10.896  0.2710  2.1622 -1.3853
26267SOL     OW83357   2.996  11.143   8.727  0.1804 -0.1764 -0.4356
26267SOL    HW183358   3.019  11.050   8.725 -2.1091 -0.9638  2.1503
26267SOL    HW283359   3.077  11.187   8.752  0.6787 -1.8833  1.2318
26268SOL     OW83360  11.696   3.199   6.641 -0.0427 -0.7419  0.3823
26268SOL    HW183361  11.684   3.262   6.570 -0.8144  0.2122  1.3358
26268SOL    HW283362  11.791   3.197   6.656 -0.0034  0.1860  0.3233
26269SOL     OW83363   1.812  11.942   6.528 -0.2443  0.3736  0.3431
26269SOL    HW183364   1.868  11.889   6.584  1.3965  0.3888 -1.1939
26269SOL    HW283365   1.781  11.881   6.461  1.9441  1.3145 -1.6499
26270SOL     OW83366   8.394   4.320   6.601 -0.6571 -0.1132  0.0850
26270SOL    HW183367   8.385   4.395   6.659 -0.1312  0.2085 -0.2427
26270SOL    HW283368   8.473   4.275   6.632  0.1858  0.6033 -0.9817
26271SOL     OW83369   0.089  11.583   8.773 -0.3061 -0.1266 -0.3228
26271SOL    HW183370   0.121  11.642   8.705  0.2334 -1.7100 -1.5099
26271SOL    HW283371   0.164  11.527   8.793 -0.7593 -0.3378  0.8820
26272SOL     OW83372  11.189   5.947   0.917 -0.4343 -0.4826 -0.1168
26272SOL    HW183373  11.138   5.947   0.837 -0.7884 -2.8169  0.0308
26272SOL    HW283374  11.253   6.017   0.905 -1.1148 -0.1314 -1.9965
26273SOL     OW83375   1.702   1.596   7.956  0.2139  0.7521  0.4714
26273SOL    HW183376   1.632   1.656   7.932  0.5338  0.9517  0.0120
26273SOL    HW283377   1.682   1.569   8.045 -0.4666  0.7742  0.3256
26274SOL     OW83378  10.466   4.363   2.631  0.9268  0.1924 -0.3270
26274SOL    HW183379  10.439   4.437   2.685  2.0684 -1.0642  2.1344
26274SOL    HW283380  10.385   4.324   2.600  0.2189  0.9173  0.5629
26275SOL     OW83381   2.884   9.898   9.049 -0.0169 -0.1502  0.0498
26275SOL    HW183382   2.883   9.927   9.140  1.1485 -1.3487  0.4846
26275SOL    HW283383   2.878   9.978   8.998 -2.5768  0.4415  1.1416
26276SOL     OW83384   0.128   2.401  10.468  0.2487 -0.0178 -0.2632
26276SOL    HW183385   0.076   2.374  10.392  0.7286  0.5112 -0.7923
26276SOL    HW283386   0.206   2.345  10.466  0.9406  0.9353 -0.9945
26277SOL     OW83387   3.193   8.592   0.570 -0.2403 -0.0301  0.2766
26277SOL    HW183388   3.264   8.530   0.559  0.2391  0.6982 -0.8753
26277SOL    HW283389   3.113   8.539   0.569  0.2160 -0.7275  0.4471
26278SOL     OW83390  11.950   7.561   4.010 -0.3093  0.1100  0.3370
26278SOL    HW183391  11.908   7.632   3.963  0.3952 -0.1949 -0.7837
26278SOL    HW283392  11.907   7.482   3.977 -0.0907 -0.0867  0.5196
26279SOL     OW83393   4.056  10.999   6.237 -0.1945 -0.0653  0.4243
26279SOL    HW183394   4.040  11.039   6.323  0.4634  0.6584  0.2222
26279SOL    HW283395   4.151  10.994   6.230 -0.2514 -1.0104  0.1245
26280SOL     OW83396   2.438   8.265   0.781  0.5607  0.1662 -0.3687
26280SOL    HW183397   2.487   8.322   0.840  2.1298  0.2375 -1.6539
26280SOL    HW283398   2.500   8.244   0.711 -0.9543 -0.5764 -1.5601
26281SOL     OW83399   5.985   5.232   1.925 -0.1066  0.0884  0.1758
26281SOL    HW183400   5.994   5.190   2.011  0.4943  2.3912  1.3308
26281SOL    HW283401   6.066   5.283   1.916 -0.0741 -0.2548 -1.8862
26282SOL     OW83402   8.304   0.712   7.614 -0.4150  0.5705 -0.5368
26282SOL    HW183403   8.275   0.788   7.563  1.0904  0.9068 -0.9425
26282SOL    HW283404   8.313   0.642   7.549 -1.1499  0.2152 -0.2695
26283SOL     OW83405   3.072  10.468   2.980 -0.4211  0.1491 -0.1324
26283SOL    HW183406   2.999  10.528   2.995 -1.9413 -1.3607 -1.0889
26283SOL    HW283407   3.031  10.387   2.950  1.6335 -0.9479 -0.1883
26284SOL     OW83408   8.600  11.003   4.707 -0.2963  0.6016 -0.4545
26284SOL    HW183409   8.641  10.988   4.793  0.0431 -0.1478 -0.7434
26284SOL    HW283410   8.506  10.991   4.723 -0.1430 -0.6544 -0.4136
26285SOL     OW83411   6.468   2.146   0.376  0.5401  0.1233  0.8022
26285SOL    HW183412   6.404   2.074   0.378  0.7301 -0.0562  2.6308
26285SOL    HW283413   6.504   2.148   0.465  0.8876  2.1822  0.6632
26286SOL     OW83414  11.471   3.989   5.972  0.4038 -0.4040  0.2977
26286SOL    HW183415  11.397   3.931   5.993 -1.3708  1.0980 -1.3937
26286SOL    HW283416  11.449   4.072   6.013  1.5214 -0.0963  0.3138
26287SOL     OW83417  11.675   7.976   1.445  0.1088  0.4548 -0.2663
26287SOL    HW183418  11.595   8.017   1.413  0.7543  0.7709 -1.5295
26287SOL    HW283419  11.736   7.979   1.371  2.0002  2.0662  1.2072
26288SOL     OW83420  11.526   5.359   3.521  0.6234 -0.0251 -0.5512
26288SOL    HW183421  11.451   5.301   3.533 -0.5212  1.7555  1.5173
26288SOL    HW283422  11.503   5.413   3.445  0.9368 -1.0394 -1.4028
26289SOL     OW83423   2.512   9.655  11.557  0.3709  0.4053  0.2392
26289SOL    HW183424   2.449   9.628  11.623  0.8688  0.1656  0.6204
26289SOL    HW283425   2.505   9.751  11.555  0.7388  0.4586  1.0323
26290SOL     OW83426  11.010   5.910   1.896  0.1377 -0.3047  0.7017
26290SOL    HW183427  11.006   5.997   1.937  0.3807  0.8046 -1.4923
26290SOL    HW283428  11.084   5.867   1.939 -0.1675  0.4229  2.0326
26291SOL     OW83429   5.161   7.728  11.496 -0.0648  0.1735 -0.3786
26291SOL    HW183430   5.084   7.710  11.443  0.7992 -1.3664 -1.1638
26291SOL    HW283431   5.139   7.695  11.583 -1.0893  1.7671  0.0173
26292SOL     OW83432   2.572  11.545   9.777  0.0266  0.5317 -0.0506
26292SOL    HW183433   2.576  11.574   9.686  0.5670  0.2190 -0.1274
26292SOL    HW283434   2.533  11.619   9.824  1.7006  1.5599 -0.1958
26293SOL     OW83435   2.486   4.290   5.015  0.6953 -0.1006 -0.3842
26293SOL    HW183436   2.393   4.270   5.030  0.9295 -0.9826 -0.0245
26293SOL    HW283437   2.517   4.323   5.099  0.4394  1.3539 -0.8321
26294SOL     OW83438   9.824   1.373   4.718  0.0534 -0.0608 -0.4384
26294SOL    HW183439   9.736   1.380   4.682 -0.5651 -1.3166  0.7083
26294SOL    HW283440   9.847   1.462   4.744 -0.5498  0.4086 -1.4609
26295SOL     OW83441   3.462   9.349   1.159 -0.2081  0.3236  0.1086
26295SOL    HW183442   3.434   9.381   1.073  0.4622  0.1442 -0.1880
26295SOL    HW283443   3.487   9.428   1.207 -1.1865  0.4856  0.3803
26296SOL     OW83444  10.737   6.855   9.303  0.8341 -0.2779 -0.0684
26296SOL    HW183445  10.730   6.922   9.371 -1.7803  0.3379 -0.8333
26296SOL    HW283446  10.810   6.884   9.248  0.7208  1.1354  0.4851
26297SOL     OW83447   0.810   4.839   2.898 -0.0343  0.0264  0.0043
26297SOL    HW183448   0.783   4.902   2.965 -0.1919 -0.5895  0.5323
26297SOL    HW283449   0.733   4.782   2.888  0.4245 -0.6356  0.1992
26298SOL     OW83450   6.720   3.480   2.460  0.3279 -0.2164 -0.4142
26298SOL    HW183451   6.807   3.508   2.430  1.1365 -0.2512  1.7569
26298SOL    HW283452   6.689   3.552   2.515  0.8430 -1.8774  2.2452
26299SOL     OW83453   8.888   7.588   8.498  0.3773  0.4281 -0.3084
26299SOL    HW183454   8.848   7.661   8.546  0.8872  0.2509  0.4094
26299SOL    HW283455   8.981   7.593   8.520  0.2358 -1.2089  0.8163
26300SOL     OW83456   5.256   1.181  10.173 -0.2616  0.7368  0.4359
26300SOL    HW183457   5.281   1.133  10.251  0.0825  0.1537 -0.0232
26300SOL    HW283458   5.240   1.270  10.203 -0.7838  0.3716  1.2793
26301SOL     OW83459   5.389  12.127   1.613 -0.1920 -0.1348  0.0290
26301SOL    HW183460   5.325  12.073   1.567 -0.1356  0.6134 -0.9615
26301SOL    HW283461   5.368  12.117   1.706 -0.0976 -1.9329 -0.1242
26302SOL     OW83462  11.085   1.082   0.499  0.0862 -0.1098 -0.1283
26302SOL    HW183463  10.997   1.107   0.525 -0.2588 -1.6157  0.2261
26302SOL    HW283464  11.109   1.146   0.432 -0.7680  1.0812  0.6631
26303SOL     OW83465   3.891   5.963   9.923  0.0979 -0.1010  0.2637
26303SOL    HW183466   3.851   5.943  10.007  0.1985 -2.1146 -0.1161
26303SOL    HW283467   3.823   5.941   9.859  0.9522 -1.2288 -0.2823
26304SOL     OW83468   1.762   8.075   3.278 -0.4153  0.0917 -0.2459
26304SOL    HW183469   1.725   8.082   3.190  0.2478  1.4712 -0.4360
26304SOL    HW283470   1.810   7.992   3.277  0.8512  0.7889 -1.7034
26305SOL     OW83471   1.125  10.145   1.911  0.1507  0.1302 -0.1896
26305SOL    HW183472   1.042  10.169   1.952  1.3944  3.0073  0.8765
26305SOL    HW283473   1.162  10.228   1.881  1.7393 -1.3005 -2.5122
26306SOL     OW83474  10.467   1.595  11.476  0.0093 -0.4491  0.5275
26306SOL    HW183475  10.449   1.643  11.395 -1.5283 -0.5881  0.7675
26306SOL    HW283476  10.439   1.505  11.457 -1.0032 -0.3315  1.4368
26307SOL     OW83477   2.537   7.184   7.404  0.0724  0.9499  0.0755
26307SOL    HW183478   2.497   7.103   7.434  0.4170  1.2366  1.3730
26307SOL    HW283479   2.478   7.253   7.435 -0.8898  1.1805 -2.0997
26308SOL     OW83480   9.266   6.213  10.011 -0.0594  0.5094 -0.0533
26308SOL    HW183481   9.246   6.169  10.094 -1.7086 -0.0895 -0.7435
26308SOL    HW283482   9.319   6.150   9.963 -2.6943 -0.9935 -1.1802
26309SOL     OW83483   6.101  11.595   9.017  0.2888 -0.4143 -0.0176
26309SOL    HW183484   6.161  11.598   9.092  0.0296 -1.2942  0.2380
26309SOL    HW283485   6.053  11.678   9.021  2.5880  1.0740 -1.1765
26310SOL     OW83486   9.522  11.170  10.350 -0.0341  0.1010 -0.6691
26310SOL    HW183487   9.441  11.211  10.381 -0.5828 -1.6819  0.4604
26310SOL    HW283488   9.494  11.086  10.315  1.2946 -0.3850 -0.6126
26311SOL     OW83489   8.642   3.471   3.723  0.8088  0.2446  0.1457
26311SOL    HW183490   8.695   3.394   3.743  0.4759 -0.4470 -1.4300
26311SOL    HW283491   8.552   3.439   3.723  0.5317  0.9693  0.8567
26312SOL     OW83492   3.268   6.406   1.863  0.0171 -0.1278 -0.0209
26312SOL    HW183493   3.299   6.432   1.776 -0.6667  0.0076 -0.2287
26312SOL    HW283494   3.211   6.478   1.891  0.5800  0.0379  0.7332
26313SOL     OW83495   7.511   2.332   6.381  0.3836  0.2438 -0.0322
26313SOL    HW183496   7.486   2.324   6.474  1.2124  0.8478  0.2489
26313SOL    HW283497   7.429   2.319   6.334 -0.7190  3.0828  0.8998
26314SOL     OW83498   8.892  10.978   4.652 -0.1336 -0.4835  0.2570
26314SOL    HW183499   8.882  10.892   4.612 -0.7521  0.0484 -0.7638
26314SOL    HW283500   8.803  11.005   4.673 -0.2454  1.0592 -1.9441
26315SOL     OW83501   9.217   1.208   3.991  0.1288  0.1010  0.2124
26315SOL    HW183502   9.273   1.138   4.024  0.1651 -0.4737 -1.0146
26315SOL    HW283503   9.277   1.270   3.949 -0.1575 -0.7607 -1.5371
26316SOL     OW83504  11.540   6.495   2.782 -0.7780 -0.2765 -0.2120
26316SOL    HW183505  11.497   6.541   2.854  1.0077  1.4477 -0.1350
26316SOL    HW283506  11.573   6.414   2.822 -0.4698  0.2990  0.7468
26317SOL     OW83507   3.117  11.953   5.199  0.1790  0.0892 -0.6908
26317SOL    HW183508   3.132  11.909   5.283  0.2123 -1.1747 -1.3212
26317SOL    HW283509   3.025  11.933   5.178 -0.2845  1.6576 -0.2710
26318SOL     OW83510   1.213   1.174   2.173 -0.1654  0.1532 -0.1941
26318SOL    HW183511   1.263   1.250   2.201 -1.2272  0.0943  2.0247
26318SOL    HW283512   1.133   1.211   2.135 -0.3629  0.1706  0.2337
26319SOL     OW83513   1.572   0.794   5.718  0.1521 -0.1536  0.7974
26319SOL    HW183514   1.593   0.702   5.733  0.3135 -0.3038 -0.2826
26319SOL    HW283515   1.542   0.826   5.804 -0.2538 -1.2935  1.0997
26320SOL     OW83516   1.902   9.426   1.004  0.3782  0.6089 -0.6814
26320SOL    HW183517   1.910   9.515   1.036 -0.4054  0.3372  0.3143
26320SOL    HW283518   1.925   9.371   1.079  0.0947 -0.0277 -1.0475
26321SOL     OW83519   0.444   1.953  11.096 -0.5765  0.1397  0.2686
26321SOL    HW183520   0.499   1.954  11.018 -0.6545 -1.3068  0.1780
26321SOL    HW283521   0.481   1.885  11.152 -1.0961  0.4958  1.0765
26322SOL     OW83522   6.274   9.947   5.596 -0.1104  0.0349  0.3974
26322SOL    HW183523   6.365   9.953   5.624  0.0522  2.6403 -0.4300
26322SOL    HW283524   6.265   9.858   5.563  2.8306  0.3721 -1.6875
26323SOL     OW83525   9.365   1.889   0.537  0.4817 -0.4301 -0.0563
26323SOL    HW183526   9.300   1.904   0.606  0.8836 -2.5458  0.8845
26323SOL    HW283527   9.313   1.867   0.460  0.0134 -1.6310  0.5636
26324SOL     OW83528   7.639   9.758   9.835  0.7181  0.1643  0.0067
26324SOL    HW183529   7.642   9.825   9.904 -1.3187  0.4659 -0.1411
26324SOL    HW283530   7.558   9.776   9.788  1.4998 -0.7448 -1.7732
26325SOL     OW83531   6.760  10.746   7.210 -0.3242 -0.4479 -0.0245
26325SOL    HW183532   6.739  10.795   7.130  0.9000 -2.4352 -1.6542
26325SOL    HW283533   6.840  10.788   7.243 -0.6380  0.1644 -0.0296
26326SOL     OW83534   9.853   0.308  12.021 -0.3869  0.4950 -0.3519
26326SOL    HW183535   9.923   0.332  12.083 -0.4929 -0.8182  0.3135
26326SOL    HW283536   9.858   0.374  11.952  2.1808 -0.1135 -0.8528
26327SOL     OW83537  11.328  10.071   8.433  1.1731  0.1103 -0.8549
26327SOL    HW183538  11.302  10.074   8.341  0.3405  0.0802 -0.6258
26327SOL    HW283539  11.298  10.154   8.470  2.9307  0.8442 -0.9567
26328SOL     OW83540   4.894   8.155   4.684 -0.2837 -0.0403 -0.1238
26328SOL    HW183541   4.825   8.091   4.668 -0.0063  0.0935 -2.1760
26328SOL    HW283542   4.965   8.130   4.624  1.9755 -0.8012  2.6387
26329SOL     OW83543   0.842   3.895   5.465 -0.4587  0.4519  0.1144
26329SOL    HW183544   0.913   3.903   5.401 -0.4462 -0.8292 -0.0460
26329SOL    HW283545   0.875   3.942   5.543  0.9589 -0.8877  0.3602
26330SOL     OW83546   8.180   8.802   6.011 -0.3348 -0.0008 -0.2844
26330SOL    HW183547   8.248   8.837   6.069 -0.4817 -0.4052  0.1326
26330SOL    HW283548   8.227   8.743   5.952 -0.3787 -0.6347  0.2961
26331SOL     OW83549   2.843   4.432  11.288 -0.3381  0.1192 -0.4732
26331SOL    HW183550   2.792   4.380  11.225 -2.3638 -0.8312  1.7874
26331SOL    HW283551   2.801   4.415  11.372  1.0632  2.8128  0.8967
26332SOL     OW83552  11.573   4.697  11.148 -0.5301 -0.0067  0.8358
26332SOL    HW183553  11.541   4.649  11.224 -1.2994  0.9941  1.1597
26332SOL    HW283554  11.495   4.721  11.099 -0.1225  0.4403  0.3838
26333SOL     OW83555   3.909   8.021   5.362  0.1176 -0.2820  0.5817
26333SOL    HW183556   3.988   7.978   5.330  0.0208 -0.7933  1.0262
26333SOL    HW283557   3.876   7.963   5.431 -0.5444  0.0206  0.5209
26334SOL     OW83558   4.269  11.985   8.299 -0.3358  0.1672  0.3809
26334SOL    HW183559   4.340  11.939   8.343 -0.0925  0.0579 -0.1219
26334SOL    HW283560   4.238  12.049   8.363  0.1106  0.1127  0.6527
26335SOL     OW83561   2.191   7.070   2.066  0.6980 -0.3457 -0.3973
26335SOL    HW183562   2.228   6.987   2.096 -0.8816 -0.2245  2.2620
26335SOL    HW283563   2.110   7.080   2.117 -0.0110  2.0723 -1.8034
26336SOL     OW83564   1.568   5.574   8.459 -0.2342 -0.6156  0.9734
26336SOL    HW183565   1.663   5.571   8.458 -0.1701  0.7612  0.0756
26336SOL    HW283566   1.546   5.624   8.537  0.0060  2.7639 -0.9599
26337SOL     OW83567  11.945   7.156   6.901 -0.1155 -0.3943  0.1798
26337SOL    HW183568  11.859   7.166   6.860 -0.7698 -1.5016  1.2002
26337SOL    HW283569  11.925   7.130   6.991  1.2911  0.1402  0.6609
26338SOL     OW83570   2.428   1.368   9.578  0.2430  0.2417  0.1087
26338SOL    HW183571   2.517   1.335   9.563 -0.0103 -0.8628  0.9394
26338SOL    HW283572   2.430   1.404   9.666 -0.3436 -0.5732  0.4684
26339SOL     OW83573   5.775   1.354   4.635  0.0343 -0.3465 -0.2883
26339SOL    HW183574   5.769   1.274   4.582  0.8040 -1.3864  1.1066
26339SOL    HW283575   5.811   1.324   4.718  1.1441  1.6243 -0.0080
26340SOL     OW83576   2.782  11.474   0.486 -0.0023  0.1361  0.0197
26340SOL    HW183577   2.761  11.436   0.571  0.0733  0.9194  0.4070
26340SOL    HW283578   2.708  11.532   0.466  1.0535  1.8186  0.7268
26341SOL     OW83579  11.704  10.670   2.649  0.2254  0.2495  0.0714
26341SOL    HW183580  11.757  10.748   2.667  1.2028 -0.4079  0.1217
26341SOL    HW283581  11.759  10.615   2.594 -0.0997 -0.7901  0.7381
26342SOL     OW83582   2.396   7.699   1.855 -0.4470 -0.4143 -0.0831
26342SOL    HW183583   2.364   7.781   1.892 -1.7879 -0.8314 -0.2906
26342SOL    HW283584   2.478   7.683   1.902 -0.9136  0.2856  1.0186
26343SOL     OW83585   4.589   5.557   3.172  0.0432 -0.0138  0.9702
26343SOL    HW183586   4.554   5.644   3.195  0.0426  0.2163  0.1336
26343SOL    HW283587   4.522   5.496   3.204 -1.8531  0.4709 -1.7020
26344SOL     OW83588  10.424   8.943  10.334 -0.1393  0.2585 -0.4136
26344SOL    HW183589  10.415   8.982  10.421 -0.7901 -0.4049 -0.1722
26344SOL    HW283590  10.501   8.886  10.342 -0.2493  0.1294 -0.2373
26345SOL     OW83591   7.105   6.125   8.427 -0.0479  0.6582  0.3640
26345SOL    HW183592   7.159   6.099   8.352 -0.8514 -0.9084  0.3052
26345SOL    HW283593   7.072   6.212   8.403 -0.2448  0.2056 -1.0802
26346SOL     OW83594   3.998  11.232   2.784 -0.3111 -0.8501 -0.3614
26346SOL    HW183595   3.943  11.309   2.798  1.4610  0.1358  1.8415
26346SOL    HW283596   3.946  11.158   2.813 -0.2460  0.1606  2.6452
26347SOL     OW83597   9.529   0.091   2.520  0.1315 -0.7659  0.2421
26347SOL    HW183598   9.545   0.185   2.526  0.2198 -0.5992 -1.9138
26347SOL    HW283599   9.439   0.079   2.549 -0.0505  0.0538  0.0201
26348SOL     OW83600   0.541  10.075   5.624 -0.1799  0.1618 -0.5122
26348SOL    HW183601   0.528  10.166   5.598 -1.5733 -0.0616 -0.6601
26348SOL    HW283602   0.531  10.025   5.542 -0.3710 -0.1988 -0.2701
26349SOL     OW83603   1.959   8.436   9.350 -0.0091 -0.3440 -0.2529
26349SOL    HW183604   1.930   8.414   9.439 -0.6778  0.2202 -0.3167
26349SOL    HW283605   2.016   8.512   9.361  1.3255 -1.3250 -0.1483
26350SOL     OW83606   6.097   4.012  11.757  0.6860 -0.3101  0.4956
26350SOL    HW183607   6.028   4.034  11.694 -1.0729 -0.2819  2.3419
26350SOL    HW283608   6.077   3.923  11.785  1.7150 -0.4909  0.6749
26351SOL     OW83609   0.847   1.810   2.706 -0.4828 -0.4664 -0.3183
26351SOL    HW183610   0.804   1.895   2.696  0.6696 -0.0316 -2.0532
26351SOL    HW283611   0.922   1.815   2.647 -0.1933 -2.5695 -0.1761
26352SOL     OW83612   6.456   1.874   5.215 -0.0734 -0.2376  0.4495
26352SOL    HW183613   6.396   1.800   5.211 -0.0278 -0.2867  0.6744
26352SOL    HW283614   6.436   1.925   5.136 -0.0808 -0.5057  0.2750
26353SOL     OW83615   6.528   7.928   0.054 -0.2152  0.5383 -0.1703
26353SOL    HW183616   6.566   7.840   0.056  0.1088  0.6876  0.9496
26353SOL    HW283617   6.596   7.981   0.012  1.0031  0.8533  2.0477
26354SOL     OW83618  10.824   2.895  10.987 -0.6464 -0.1266 -0.1002
26354SOL    HW183619  10.790   2.814  11.025 -0.2309 -0.2529  0.0157
26354SOL    HW283620  10.913   2.872  10.958  0.1833  0.7517  1.6092
26355SOL     OW83621   6.103   0.442   1.887  0.0113 -0.0534 -0.4027
26355SOL    HW183622   6.021   0.467   1.930 -0.8115 -0.4246 -1.6940
26355SOL    HW283623   6.169   0.497   1.929 -0.9261  0.4212  0.5121
26356SOL     OW83624  11.654   2.701   3.440  0.3465  0.0879  0.2280
26356SOL    HW183625  11.643   2.792   3.414 -1.6090  0.1678  1.1206
26356SOL    HW283626  11.693   2.658   3.364 -2.2882  0.9225 -1.7392
26357SOL     OW83627  11.689   1.306   5.030  0.6427  0.5720  0.0475
26357SOL    HW183628  11.761   1.286   4.971 -0.0016  1.1240 -0.9538
26357SOL    HW283629  11.613   1.261   4.991  1.0243 -3.1755  2.9875
26358SOL     OW83630   4.624   8.103   4.314  0.6461  0.2389 -0.3148
26358SOL    HW183631   4.664   8.106   4.227 -0.6679 -0.0527 -0.9643
26358SOL    HW283632   4.540   8.060   4.300 -0.0387  1.1035  0.9373
26359SOL     OW83633   4.247   3.210   8.138 -0.1526 -0.1658 -0.0625
26359SOL    HW183634   4.192   3.286   8.120 -1.9234 -1.7607 -2.0347
26359SOL    HW283635   4.217   3.178   8.223 -0.4043  0.5165  0.1133
26360SOL     OW83636   7.708   4.311   6.690  0.3611  0.2937  0.1492
26360SOL    HW183637   7.653   4.341   6.618  1.1006  0.2101 -0.4617
26360SOL    HW283638   7.655   4.324   6.769 -0.5536  0.1448 -0.4333
26361SOL     OW83639   6.607   6.496   9.416 -0.3062 -0.6647  0.4876
26361SOL    HW183640   6.524   6.505   9.370  0.1067  0.1256 -0.1217
26361SOL    HW283641   6.671   6.478   9.347  0.3731  0.8697  0.6612
26362SOL     OW83642   4.032  10.022   4.022  0.0316 -0.9210  0.5922
26362SOL    HW183643   3.984   9.954   3.976  1.3047 -2.1212  0.9547
26362SOL    HW283644   4.075  10.073   3.953  0.3401 -1.4844  0.3616
26363SOL     OW83645   0.930  11.833   3.669  0.2505 -0.0214  0.0132
26363SOL    HW183646   1.017  11.863   3.696  1.2004 -1.9329 -0.7111
26363SOL    HW283647   0.903  11.773   3.739 -0.8181  1.0939  0.5770
26364SOL     OW83648  11.439   9.350   0.080  0.2258 -0.0383  0.0376
26364SOL    HW183649  11.514   9.377   0.027 -0.1920 -1.8061 -1.5634
26364SOL    HW283650  11.372   9.416   0.062  0.3036 -0.2774 -1.1814
26365SOL     OW83651  10.795   4.748   4.065 -0.1520 -0.8336 -0.1357
26365SOL    HW183652  10.772   4.812   4.132  1.3680  0.4781 -0.8117
26365SOL    HW283653  10.711   4.720   4.029 -0.8426  2.0200 -0.9337
26366SOL     OW83654   1.771   6.074   3.688  0.4433 -0.0934 -0.5321
26366SOL    HW183655   1.784   5.989   3.730  1.8052  0.0327 -0.6498
26366SOL    HW283656   1.815   6.065   3.603  1.1984  0.9304 -0.2693
26367SOL     OW83657   5.319   2.216   9.994  0.0776  0.2364 -0.0698
26367SOL    HW183658   5.334   2.286   9.931 -0.1500 -0.0797 -0.4841
26367SOL    HW283659   5.372   2.239  10.069 -0.0657  0.9002 -0.1688
26368SOL     OW83660   3.368   4.514   5.063 -0.3203 -0.1489 -0.3458
26368SOL    HW183661   3.422   4.568   5.122 -3.2810  2.9108 -0.1334
26368SOL    HW283662   3.308   4.467   5.121 -1.0885  0.3285 -0.7366
26369SOL     OW83663   0.354   3.792   6.021 -0.5017 -0.1131 -0.5896
26369SOL    HW183664   0.317   3.836   6.098 -0.3173  0.8106 -1.0119
26369SOL    HW283665   0.439   3.760   6.050 -0.3302  0.4421 -0.4667
26370SOL     OW83666  12.056   4.840  11.653 -0.2819  0.5891  0.4592
26370SOL    HW183667  11.977   4.843  11.600 -0.1575  1.9064  0.3173
26370SOL    HW283668  12.025   4.849  11.743 -0.2947  1.3234  0.3896
26371SOL     OW83669  10.489   0.686   1.420  0.2067 -0.0142  0.5789
26371SOL    HW183670  10.458   0.607   1.466  0.9437 -0.2871  0.6084
26371SOL    HW283671  10.579   0.697   1.449  0.1604  0.7618  0.4551
26372SOL     OW83672   0.739   0.611  10.228 -0.1830 -0.4027  0.3306
26372SOL    HW183673   0.747   0.692  10.279  1.2740  1.0440 -1.9758
26372SOL    HW283674   0.676   0.632  10.160  1.1065 -0.7470 -1.0198
26373SOL     OW83675   2.981   1.901  11.874 -0.5372  0.0879  0.3058
26373SOL    HW183676   2.964   1.906  11.780 -0.3295 -0.6671  0.2189
26373SOL    HW283677   2.950   1.814  11.899  0.4109 -0.1397  0.7219
26374SOL     OW83678   3.788  11.656   8.363 -0.0442  0.1777 -0.2743
26374SOL    HW183679   3.693  11.655   8.377  0.1485  0.9067  1.3000
26374SOL    HW283680   3.818  11.572   8.396 -0.0949  0.0784 -0.4766
26375SOL     OW83681   4.654   8.865  12.079 -0.0967  0.9451 -0.4112
26375SOL    HW183682   4.639   8.852  12.173  0.5718 -0.5770 -0.4924
26375SOL    HW283683   4.733   8.814  12.060  0.3699  2.0629 -1.6153
26376SOL     OW83684   4.320   3.886   2.845  0.4912  0.1159  0.0102
26376SOL    HW183685   4.265   3.964   2.843 -0.2516 -0.2967  2.0435
26376SOL    HW283686   4.395   3.911   2.898  0.6543 -0.2921 -0.0268
26377SOL     OW83687   5.051  10.844   7.147  0.3488 -0.5627  0.8290
26377SOL    HW183688   5.027  10.756   7.176  0.4696 -0.4737  1.2000
26377SOL    HW283689   5.018  10.850   7.057 -0.3894 -0.6921  1.0894
26378SOL     OW83690   9.343   4.973   8.191 -0.0786 -0.2381  0.4220
26378SOL    HW183691   9.381   5.016   8.114  0.8204  1.1021  1.5568
26378SOL    HW283692   9.263   4.932   8.159  1.2757 -1.4692 -1.6536
26379SOL     OW83693  11.799   5.516  11.058  0.2747 -0.0507 -0.3741
26379SOL    HW183694  11.747   5.437  11.058 -0.7479  0.4745  2.6172
26379SOL    HW283695  11.881   5.491  11.100  0.3876  0.2174 -0.4278
26380SOL     OW83696  10.553   3.176  10.736 -0.2728 -0.2182 -0.1448
26380SOL    HW183697  10.628   3.234  10.750  1.6718 -2.3233 -1.1193
26380SOL    HW283698  10.560   3.109  10.804  0.0476 -1.6255 -1.4884
26381SOL     OW83699   9.625   1.784   2.133 -0.0805 -0.2502 -0.8693
26381SOL    HW183700   9.645   1.772   2.040 -1.8003  3.0388 -1.8025
26381SOL    HW283701   9.534   1.755   2.142 -0.6144  1.3565 -0.7589
26382SOL     OW83702   1.166   7.518  11.106 -0.0064  0.5752  0.0582
26382SOL    HW183703   1.214   7.451  11.057 -0.1141 -0.2712  1.0616
26382SOL    HW283704   1.149   7.477  11.192 -0.2978  1.8001  0.6041
26383SOL     OW83705   4.343   8.176   9.738  0.5265 -0.0951  0.0704
26383SOL    HW183706   4.333   8.238   9.810  0.6471  1.3895 -1.1467
26383SOL    HW283707   4.418   8.122   9.763  0.5835  0.4193  1.0346
26384SOL     OW83708   7.770   3.132   2.090  0.0453 -0.0429  0.2401
26384SOL    HW183709   7.710   3.197   2.054 -0.7474 -1.0828 -0.3746
26384SOL    HW283710   7.784   3.070   2.019  1.1043 -0.3315  0.6865
26385SOL     OW83711   5.923   4.723  11.819  0.0703 -0.0524  0.0360
26385SOL    HW183712   5.857   4.686  11.761 -0.3864 -0.1027  0.5725
26385SOL    HW283713   5.895   4.695  11.907 -0.4420  1.7950  0.4969
26386SOL     OW83714   0.801   7.914   5.862 -0.4094 -0.1751  0.3202
26386SOL    HW183715   0.895   7.899   5.871 -0.4674 -0.3642  0.6549
26386SOL    HW283716   0.782   7.898   5.770 -0.1240 -0.2035  0.2660
26387SOL     OW83717  10.452   1.654  11.972 -0.5535 -0.3533 -0.7661
26387SOL    HW183718  10.444   1.559  11.980  1.9177 -0.5591  0.2659
26387SOL    HW283719  10.492   1.668  11.886  1.9692 -0.5512  0.3018
26388SOL     OW83720   2.285   3.986   2.761  0.0585 -0.8708  0.0309
26388SOL    HW183721   2.366   4.037   2.767 -0.3973 -0.2752  1.3413
26388SOL    HW283722   2.302   3.907   2.812 -0.7614  0.0908  1.9090
26389SOL     OW83723  11.430   8.771   4.753  0.1647  0.0009 -0.2628
26389SOL    HW183724  11.498   8.707   4.771  0.5911  0.9526  1.8454
26389SOL    HW283725  11.348   8.723   4.766  0.4415 -0.6088 -0.7132
26390SOL     OW83726   7.840   5.609   8.907 -0.1572  0.2201  0.5947
26390SOL    HW183727   7.822   5.666   8.832  0.2188 -0.0411  0.3034
26390SOL    HW283728   7.919   5.647   8.947  0.7846 -0.7517 -0.2814
26391SOL     OW83729   5.804   2.745   4.225  0.3756  0.1021 -0.2447
26391SOL    HW183730   5.898   2.748   4.211  0.6045 -0.4452  1.0353
26391SOL    HW283731   5.788   2.660   4.267 -0.8712 -0.3886 -1.6029
26392SOL     OW83732   9.615   8.780   4.950  0.0960  0.0915 -0.0939
26392SOL    HW183733   9.705   8.802   4.925  0.2837  0.4573  0.8508
26392SOL    HW283734   9.624   8.699   5.000  0.1306  1.0096  1.4532
26393SOL     OW83735   0.530   5.903   2.258  0.0219 -0.1864 -0.0863
26393SOL    HW183736   0.623   5.920   2.244 -0.0189  0.8885  0.7520
26393SOL    HW283737   0.494   5.987   2.287 -0.8690 -0.9712  1.2329
26394SOL     OW83738   7.714   4.350   0.403  0.0738  0.3821  0.0159
26394SOL    HW183739   7.735   4.443   0.411  1.1146  0.1605  0.0024
26394SOL    HW283740   7.727   4.331   0.310  1.3999 -0.1196  0.2890
26395SOL     OW83741  10.720   8.102  10.785  0.1847  0.2135 -0.1188
26395SOL    HW183742  10.789   8.131  10.725 -0.1521  1.7262  0.1634
26395SOL    HW283743  10.638   8.124  10.739 -0.1480 -1.5171 -0.4290
26396SOL     OW83744   2.843   8.364   4.785 -0.3438  0.3249 -0.3227
26396SOL    HW183745   2.748   8.371   4.799 -0.4572 -0.6051 -0.5338
26396SOL    HW283746   2.860   8.270   4.786  0.6851  0.5071  0.3544
26397SOL     OW83747   8.930   6.169   2.072  0.2196  0.5546  0.4327
26397SOL    HW183748   8.908   6.240   2.132 -0.0659 -0.5132  1.6484
26397SOL    HW283749   8.910   6.089   2.121  1.5884 -0.3921 -0.4625
26398SOL     OW83750   1.917  11.398  10.885  0.2843 -0.0940 -0.2508
26398SOL    HW183751   1.988  11.349  10.928  0.4256  1.0882  0.9270
26398SOL    HW283752   1.918  11.483  10.928  0.2185  1.0686 -2.4302
26399SOL     OW83753   3.376   1.967   9.710  0.3522 -0.8761 -0.2298
26399SOL    HW183754   3.360   1.901   9.643  2.3248 -1.8542  0.1846
26399SOL    HW283755   3.451   1.933   9.760  1.0445  1.3823  0.3809
26400SOL     OW83756   0.719  12.031   8.259 -0.2740  0.1854 -0.4039
26400SOL    HW183757   0.700  11.985   8.178  2.4736 -1.8881 -0.0126
26400SOL    HW283758   0.760  12.113   8.231  1.0759 -0.7165 -1.1795
26401SOL     OW83759   0.766   0.651   5.637 -0.3906 -0.6568 -0.2929
26401SOL    HW183760   0.825   0.721   5.611 -1.3971 -0.1013 -1.1765
26401SOL    HW283761   0.683   0.673   5.596 -1.3016 -1.2764  1.1385
26402SOL     OW83762   6.081   2.478   8.387  0.3609 -0.3043  1.3335
26402SOL    HW183763   6.076   2.404   8.447 -0.4737 -0.1216  1.4953
26402SOL    HW283764   6.006   2.533   8.410  0.6969  0.3518  0.8963
26403SOL     OW83765   8.838   0.404   7.669 -0.0007  0.7650 -0.2080
26403SOL    HW183766   8.933   0.411   7.660  0.1722 -1.1334 -0.3771
26403SOL    HW283767   8.811   0.485   7.711  1.8378  0.8412  0.9152
26404SOL     OW83768   0.558   1.140  11.678  0.3101  0.2267 -0.0599
26404SOL    HW183769   0.585   1.135  11.769  2.5106 -0.9543 -0.7162
26404SOL    HW283770   0.521   1.228  11.668 -1.0233 -0.0116  2.1900
26405SOL     OW83771   2.605   7.220   3.165  0.8571  0.0304  0.3067
26405SOL    HW183772   2.663   7.162   3.214 -0.2200 -1.5608 -0.2311
26405SOL    HW283773   2.522   7.218   3.214 -0.7372 -2.7833 -2.2118
26406SOL     OW83774   6.105   3.984   6.173  0.1735  0.3926 -0.6512
26406SOL    HW183775   6.053   3.914   6.134 -0.7233 -0.2493  1.5102
26406SOL    HW283776   6.171   3.938   6.226 -1.9257  0.9571  2.7915
26407SOL     OW83777  10.193   9.807   6.529 -0.6771 -0.1263  0.1847
26407SOL    HW183778  10.236   9.892   6.539  0.4424 -0.7358  0.8168
26407SOL    HW283779  10.105   9.820   6.565 -0.0931  0.4435  1.4865
26408SOL     OW83780   5.017   6.608   9.588  0.3505 -0.5810 -0.2630
26408SOL    HW183781   5.015   6.687   9.534  1.0517 -0.3748 -0.0011
26408SOL    HW283782   5.001   6.537   9.526 -0.2526 -0.2391 -0.5069
26409SOL     OW83783   0.606   5.019   7.425 -0.2460  0.1489  0.1004
26409SOL    HW183784   0.622   5.012   7.519  0.3832  1.4964  0.1263
26409SOL    HW283785   0.646   4.940   7.388 -1.6134 -1.0342  1.0644
26410SOL     OW83786   3.063  10.043  10.034 -0.3785  0.0806 -0.0174
26410SOL    HW183787   3.107  10.120  10.071 -0.2740  0.0979 -0.1734
26410SOL    HW283788   2.993  10.024  10.095 -0.0049 -0.0895  0.3657
26411SOL     OW83789   8.678   0.615   2.371  0.6257 -0.5259 -0.0646
26411SOL    HW183790   8.659   0.549   2.438 -1.1075  0.2734  0.2843
26411SOL    HW283791   8.773   0.626   2.374  0.6754 -1.1488  1.6559
26412SOL     OW83792   4.322   6.329   6.136 -0.6901 -0.2144 -0.9507
26412SOL    HW183793   4.291   6.411   6.174  0.7460 -0.2500  0.4064
26412SOL    HW283794   4.297   6.262   6.199  1.3828 -0.3236 -0.1421
26413SOL     OW83795   0.202   9.041   3.185  0.1178  0.2508  0.5289
26413SOL    HW183796   0.226   8.961   3.232 -1.7585 -0.5688  0.1880
26413SOL    HW283797   0.109   9.051   3.202 -0.8677 -0.4312 -3.3913
26414SOL     OW83798   9.386  10.102   0.481  0.0936 -0.2147  0.1044
26414SOL    HW183799   9.434  10.021   0.460 -1.4567 -0.8898 -1.0767
26414SOL    HW283800   9.342  10.083   0.564 -0.1941 -0.5585 -0.1240
26415SOL     OW83801   3.943   9.569   6.994  0.0480 -0.5167  0.3633
26415SOL    HW183802   3.899   9.488   7.018  0.3038 -0.9733 -0.6323
26415SOL    HW283803   3.875   9.620   6.948  0.1088 -0.5195  0.2700
26416SOL     OW83804   1.903  10.527   9.034  0.4987  0.3384  0.5667
26416SOL    HW183805   1.876  10.594   8.972 -0.0304  0.3345  0.7899
26416SOL    HW283806   1.948  10.461   8.980  0.5008  0.5845  0.2649
26417SOL     OW83807   9.463   0.162   3.227 -0.0295 -0.3028  0.5488
26417SOL    HW183808   9.392   0.213   3.187 -0.1642 -1.6172 -0.9950
26417SOL    HW283809   9.422   0.081   3.255  0.7203 -0.7819  0.2976
26418SOL     OW83810   0.114   6.902   6.837 -0.1740 -0.0679  0.2920
26418SOL    HW183811   0.098   6.944   6.921 -1.2922  1.2735 -0.5675
26418SOL    HW283812   0.189   6.948   6.801 -0.0242 -0.2957  0.3061
26419SOL     OW83813   7.933   7.843   5.976 -0.1604  0.4806  0.0662
26419SOL    HW183814   7.849   7.845   5.930  1.3270  2.4918 -2.8934
26419SOL    HW283815   7.941   7.931   6.014  0.4660  0.1827  0.6439
26420SOL     OW83816   6.914   9.370   7.825 -0.2231 -0.2125  0.0944
26420SOL    HW183817   6.826   9.390   7.857  0.1305  0.5330  0.6228
26420SOL    HW283818   6.946   9.301   7.882  0.2174  0.7718  1.0733
26421SOL     OW83819   2.019   7.340   3.398 -0.0189  0.4918 -0.3511
26421SOL    HW183820   2.053   7.335   3.309  0.8690  0.3746 -0.0153
26421SOL    HW283821   2.037   7.253   3.435 -4.0205 -0.9759 -1.2951
26422SOL     OW83822  12.060   4.079   5.720 -0.1667 -0.0566  0.0280
26422SOL    HW183823  11.984   4.042   5.765  0.1142  0.3943  0.8842
26422SOL    HW283824  12.102   4.004   5.678 -0.6715 -0.4215  0.1697
26423SOL     OW83825   3.246   2.369   8.104  0.1748 -0.4775 -0.1249
26423SOL    HW183826   3.215   2.432   8.039 -0.3116 -0.8453 -0.2562
26423SOL    HW283827   3.254   2.420   8.185 -0.2039 -0.2424 -0.2320
26424SOL     OW83828   3.381   7.823   2.407 -0.2108 -0.0374 -0.0309
26424SOL    HW183829   3.312   7.784   2.461  0.7905 -0.2317  1.1571
26424SOL    HW283830   3.337   7.896   2.362 -1.0821  0.1742  1.1033
26425SOL     OW83831   8.167   7.204  10.188 -0.0392 -0.0963  0.4363
26425SOL    HW183832   8.116   7.145  10.132 -1.0768  0.6464  0.5662
26425SOL    HW283833   8.164   7.288  10.143 -0.5960  0.4289  1.4197
26426SOL     OW83834   8.339   6.833   4.178  0.4225 -0.0815  0.4298
26426SOL    HW183835   8.351   6.772   4.106  0.7466 -0.4392  0.7836
26426SOL    HW283836   8.331   6.919   4.136 -0.0268 -0.3611 -0.0682
26427SOL     OW83837   3.558   2.794   2.424 -0.3281  0.5217 -0.9353
26427SOL    HW183838   3.619   2.721   2.408 -1.2608 -0.1705 -1.3873
26427SOL    HW283839   3.584   2.827   2.510  0.4631  0.0070 -0.9585
26428SOL     OW83840   6.956   5.836   9.920  0.4900  0.0765 -0.1787
26428SOL    HW183841   6.962   5.926   9.951  1.3270 -0.2279  0.5788
26428SOL    HW283842   6.907   5.842   9.837  0.6025  1.2207 -0.1741
26429SOL     OW83843   4.834   7.131  10.214 -0.1595  0.0389  0.2295
26429SOL    HW183844   4.908   7.089  10.257 -1.3713 -1.3698  1.0100
26429SOL    HW283845   4.874   7.181  10.142  1.4843 -1.0988  0.2947
26430SOL     OW83846   1.765   2.265   6.272  0.4720  0.6195 -0.7285
26430SOL    HW183847   1.679   2.294   6.242  1.1064  1.0999 -2.1790
26430SOL    HW283848   1.795   2.205   6.204  0.8829 -0.3524  0.2685
26431SOL     OW83849  10.493  11.078   2.151 -0.0688 -0.0051  0.1103
26431SOL    HW183850  10.412  11.036   2.121  0.7581 -1.0446 -0.7544
26431SOL    HW283851  10.563  11.023   2.116  1.0053 -0.0470  2.1882
26432SOL     OW83852   3.320   9.912   2.153 -0.1957 -0.4711 -0.4671
26432SOL    HW183853   3.395   9.938   2.101 -0.1770  0.7814  0.1457
26432SOL    HW283854   3.286   9.834   2.109  2.7688 -2.4740  0.4858
26433SOL     OW83855   1.610   1.765   2.115 -0.1798  0.2190 -0.2162
26433SOL    HW183856   1.684   1.743   2.057 -1.2742 -1.5062 -1.0440
26433SOL    HW283857   1.631   1.852   2.148  1.8423  0.1109 -1.0389
26434SOL     OW83858   7.659   5.272   8.599 -0.5358 -0.1467 -0.3447
26434SOL    HW183859   7.664   5.290   8.693 -1.2973  1.7407 -0.6210
26434SOL    HW283860   7.746   5.238   8.577  0.6323  2.0355  0.5681
26435SOL     OW83861   8.345  10.745   5.750 -0.3399 -0.1490  0.0432
26435SOL    HW183862   8.282  10.703   5.692 -1.0686  1.0672 -0.0973
26435SOL    HW283863   8.388  10.673   5.796  0.4718 -1.1574 -2.1938
26436SOL     OW83864   7.548   3.345   2.079  0.0306 -0.2474 -0.8226
26436SOL    HW183865   7.489   3.408   2.119  0.3797  0.0778 -0.8236
26436SOL    HW283866   7.507   3.324   1.995 -0.4430 -0.5560 -0.5224
26437SOL     OW83867   5.456   4.896   1.368 -0.4782  0.3828  0.0559
26437SOL    HW183868   5.374   4.940   1.348 -1.1897 -0.3384  1.2822
26437SOL    HW283869   5.450   4.811   1.325  1.2330  1.6411 -3.0042
26438SOL     OW83870   7.807   2.153   2.440  0.3743 -0.1213 -0.1755
26438SOL    HW183871   7.722   2.165   2.481  0.6145  3.4437 -0.4143
26438SOL    HW283872   7.788   2.143   2.347  0.1765 -1.3583 -0.0219
26439SOL     OW83873   0.785   5.321   6.651 -0.1940  0.2498 -0.3734
26439SOL    HW183874   0.729   5.396   6.670  1.2716  1.9661 -2.3268
26439SOL    HW283875   0.831   5.346   6.571  1.2848 -2.2432 -0.3866
26440SOL     OW83876   8.408  10.328   3.007 -0.2337  0.0150 -0.2086
26440SOL    HW183877   8.351  10.312   2.932  0.8326  1.2306 -1.3297
26440SOL    HW283878   8.357  10.385   3.064 -0.7917 -0.3433 -0.3414
26441SOL     OW83879   9.227   4.226  11.197 -0.2673  0.8427 -0.5038
26441SOL    HW183880   9.260   4.282  11.267  1.1170  1.0551 -1.2866
26441SOL    HW283881   9.142   4.195  11.228  1.2887 -0.9499  2.2705
26442SOL     OW83882   7.712   6.407   5.038  0.0238  0.9919 -0.1511
26442SOL    HW183883   7.781   6.348   5.008 -0.2687  0.4364  0.2396
26442SOL    HW283884   7.746   6.495   5.021  0.2439  0.7051 -1.2151
26443SOL     OW83885   3.547   5.965   6.991 -0.0117  0.1510  0.2174
26443SOL    HW183886   3.464   5.989   7.033 -0.3941 -1.3651  0.4179
26443SOL    HW283887   3.595   5.917   7.059 -0.0442 -1.1333 -0.6322
26444SOL     OW83888  10.554   0.112   4.304 -0.0177 -0.5949 -0.1667
26444SOL    HW183889  10.544   0.203   4.275  2.1380 -0.5368 -0.9331
26444SOL    HW283890  10.529   0.059   4.228  0.1876 -0.5869 -0.2416
26445SOL     OW83891   5.802   4.545   9.169 -0.1657  0.3028  0.6203
26445SOL    HW183892   5.869   4.608   9.145  0.1530  0.0169  0.7618
26445SOL    HW283893   5.745   4.594   9.230 -0.2243  0.6140  0.3181
26446SOL     OW83894   7.710   2.275   5.569 -0.0492 -0.7752  0.3810
26446SOL    HW183895   7.620   2.250   5.551  0.2016 -1.8523  0.5721
26446SOL    HW283896   7.745   2.204   5.622  1.1509 -0.7539 -0.3382
26447SOL     OW83897   2.294   3.528   9.713  0.2696  0.2711  0.4346
26447SOL    HW183898   2.311   3.435   9.699  1.1663  0.6598 -1.4179
26447SOL    HW283899   2.356   3.554   9.782 -1.3468 -0.8557  2.4300
26448SOL     OW83900  11.016   5.339   3.769 -0.5162 -0.8130  0.0882
26448SOL    HW183901  10.992   5.425   3.804 -1.8442 -1.1449  0.0414
26448SOL    HW283902  11.038   5.357   3.677 -0.4635 -0.4767  0.1641
26449SOL     OW83903   2.076   2.337   2.880  0.8130  0.1326 -0.0027
26449SOL    HW183904   2.021   2.411   2.854  0.7723 -0.4964 -1.8303
26449SOL    HW283905   2.030   2.261   2.846  0.4296 -0.8890  2.5374
26450SOL     OW83906   8.433   7.630   4.114 -0.5927  0.2126  0.0615
26450SOL    HW183907   8.413   7.539   4.096  0.9762 -0.3888  1.1037
26450SOL    HW283908   8.526   7.629   4.139 -1.0378  1.8064  1.9867
26451SOL     OW83909   9.577   8.363   0.327 -0.5997  0.0836 -0.7839
26451SOL    HW183910   9.619   8.280   0.349 -1.2247 -0.1500 -0.4509
26451SOL    HW283911   9.556   8.403   0.411 -0.2298  0.6264 -0.9393
26452SOL     OW83912   0.093  10.207   7.175  0.4883  0.8267 -0.5041
26452SOL    HW183913   0.020  10.221   7.235 -0.3678  0.4422 -1.4266
26452SOL    HW283914   0.064  10.135   7.118  1.8335  0.2454 -0.4998
26453SOL     OW83915  10.397   3.649   6.955  0.2842 -0.8191  0.0364
26453SOL    HW183916  10.307   3.620   6.936 -0.2553  0.7966  0.0306
26453SOL    HW283917  10.386   3.723   7.015  1.5996 -0.2675 -0.3807
26454SOL     OW83918   2.319   8.481   6.090 -0.0400  0.5489  0.2717
26454SOL    HW183919   2.231   8.467   6.125  0.0933  1.7831  1.1762
26454SOL    HW283920   2.307   8.488   5.996 -0.5728 -1.6690  0.1255
26455SOL     OW83921   3.861   1.754   2.616  0.6800  0.6182  0.0967
26455SOL    HW183922   3.876   1.779   2.707 -0.0918  1.6526 -0.0478
26455SOL    HW283923   3.816   1.829   2.577 -2.0819 -1.1130 -0.2771
26456SOL     OW83924   7.977   3.910   0.139  0.1230 -0.2565  0.2516
26456SOL    HW183925   7.963   3.849   0.066 -0.8402  0.1214  0.0987
26456SOL    HW283926   8.034   3.864   0.199 -0.5592 -1.2989  0.1176
26457SOL     OW83927   1.997   3.070   3.504 -0.0621 -0.7625 -0.1002
26457SOL    HW183928   1.924   3.033   3.555  0.3453 -1.5593 -0.0841
26457SOL    HW283929   1.956   3.101   3.424 -0.7675  0.7910  0.8131
26458SOL     OW83930   5.983   7.786   7.505  0.8193 -0.1856 -0.3718
26458SOL    HW183931   5.987   7.704   7.553 -0.5499  0.0382  0.1710
26458SOL    HW283932   6.021   7.851   7.565  0.7152 -0.2150 -0.2718
26459SOL     OW83933   9.206  11.565   0.572 -0.5861 -0.1810 -0.0950
26459SOL    HW183934   9.273  11.634   0.577  1.2285 -1.8209 -0.4400
26459SOL    HW283935   9.155  11.587   0.495 -1.5011  1.9631  1.0405
26460SOL     OW83936  11.191   4.579   2.350 -0.7847  0.2614  0.4876
26460SOL    HW183937  11.103   4.540   2.347 -1.1133  0.9453  0.9410
26460SOL    HW283938  11.240   4.532   2.284 -0.8431 -1.6850  1.7600
26461SOL     OW83939   6.385   2.830   9.952  0.4315  1.0232 -0.9388
26461SOL    HW183940   6.466   2.782   9.966  0.1161 -0.0634 -2.6174
26461SOL    HW283941   6.324   2.794  10.017  1.1632  1.6258  0.1176
26462SOL     OW83942   2.490   4.011   2.286  0.6274  0.5772  0.3053
26462SOL    HW183943   2.456   3.941   2.341  1.1117  1.6410  2.0282
26462SOL    HW283944   2.456   4.091   2.326  1.9923  1.4491 -0.2316
26463SOL     OW83945   2.335   9.530   9.559  0.2678 -0.6950 -0.5474
26463SOL    HW183946   2.369   9.607   9.604 -0.0932 -1.7576  1.6901
26463SOL    HW283947   2.333   9.555   9.467  0.4305  1.8628  0.0595
26464SOL     OW83948  11.702   7.269   2.255 -0.2811 -0.1046 -0.0430
26464SOL    HW183949  11.745   7.294   2.173 -2.2703 -0.3891 -1.2565
26464SOL    HW283950  11.677   7.178   2.242  1.6272 -1.0064  1.9637
26465SOL     OW83951   4.311   4.550   2.741  0.0508  0.2852 -0.5745
26465SOL    HW183952   4.346   4.469   2.776 -1.8542 -0.4341 -0.2650
26465SOL    HW283953   4.262   4.524   2.663 -1.5667  0.9538  0.1770
26466SOL     OW83954  10.932   7.050  11.241  0.1677  0.3492  0.4195
26466SOL    HW183955  11.005   7.066  11.180 -0.1437  1.1158  0.2385
26466SOL    HW283956  10.951   7.106  11.316  0.1832 -0.0640  0.7249
26467SOL     OW83957   1.116   3.035   7.354 -0.7818  0.1861 -0.3893
26467SOL    HW183958   1.085   3.111   7.305 -0.8242  0.3374 -0.1260
26467SOL    HW283959   1.204   3.058   7.382 -0.5383 -0.1262 -0.8813
26468SOL     OW83960   0.017   2.168   7.742  0.4376 -0.6113 -0.5928
26468SOL    HW183961   0.023   2.166   7.647  2.6641 -0.0423 -0.5214
26468SOL    HW283962   0.062   2.249   7.768 -2.8567  0.9763  0.8526
26469SOL     OW83963  11.606  11.451   8.468  0.2621  0.2857 -0.2153
26469SOL    HW183964  11.651  11.433   8.385 -0.9600 -0.9607 -0.6497
26469SOL    HW283965  11.618  11.372   8.520 -0.0165  0.5952  0.3293
26470SOL     OW83966   4.867   0.660   7.321  0.2029  0.0999  0.3632
26470SOL    HW183967   4.928   0.721   7.280  0.4276  0.9312  1.8516
26470SOL    HW283968   4.808   0.716   7.372  0.0980 -0.8888  1.3588
26471SOL     OW83969   1.392   7.081   5.469 -0.0196 -0.0488 -0.1226
26471SOL    HW183970   1.306   7.104   5.435  0.0005 -0.0604 -0.1803
26471SOL    HW283971   1.388   7.105   5.562 -0.7116 -1.7175  0.3241
26472SOL     OW83972   5.717  10.998   8.399  0.0479  0.0760 -0.1178
26472SOL    HW183973   5.802  10.958   8.412 -0.5424 -2.4274 -2.9695
26472SOL    HW283974   5.726  11.049   8.319 -0.8879  0.5569  0.0674
26473SOL     OW83975   6.839   3.450   0.388  0.3334  0.3747  0.0727
26473SOL    HW183976   6.797   3.439   0.474  0.6752  0.1713  0.2171
26473SOL    HW283977   6.790   3.393   0.329  0.9483 -0.5526  0.4258
26474SOL     OW83978   0.935   3.125   7.813 -0.1827 -0.6666 -0.3442
26474SOL    HW183979   0.885   3.093   7.738  0.4424  1.3662 -1.7192
26474SOL    HW283980   1.026   3.126   7.782  0.0346  0.5433  0.3038
26475SOL     OW83981   9.059   4.830   8.101 -0.7941  0.0590 -0.3005
26475SOL    HW183982   9.122   4.782   8.155  0.9592 -0.5541 -2.7492
26475SOL    HW283983   9.024   4.765   8.041 -0.0949  1.3118 -2.1495
26476SOL     OW83984   3.861   0.779   4.563 -0.0807  0.3595  0.3875
26476SOL    HW183985   3.859   0.777   4.658  2.3603  3.3454  0.6788
26476SOL    HW283986   3.902   0.697   4.537  1.3987  0.5181  2.1062
26477SOL     OW83987   3.949   3.940   1.764  0.2584  0.4173 -0.7104
26477SOL    HW183988   3.946   3.931   1.669  1.2779 -0.1706 -0.6975
26477SOL    HW283989   3.924   3.854   1.798  0.4043  0.4751 -0.4494
26478SOL     OW83990   8.728   7.602  11.155  0.1529  1.0786  0.0603
26478SOL    HW183991   8.689   7.516  11.138 -1.7312  1.8741  0.1449
26478SOL    HW283992   8.776   7.622  11.075 -0.1952  0.3683 -0.3411
26479SOL     OW83993   5.785   1.329   8.683  0.4732 -0.2014 -0.1506
26479SOL    HW183994   5.705   1.279   8.695  1.1204 -1.3131 -0.2726
26479SOL    HW283995   5.764   1.417   8.713 -1.3650  0.0598 -1.9873
26480SOL     OW83996   1.630  10.246   4.581 -0.7709 -0.7718 -0.3645
26480SOL    HW183997   1.665  10.301   4.652 -0.5330  0.3402 -1.3213
26480SOL    HW283998   1.593  10.171   4.627  0.2094 -0.5435  0.8909
26481SOL     OW83999  10.535   2.533  11.646  0.2141  0.1306  0.1764
26481SOL    HW184000  10.563   2.447  11.678  1.0527  0.0783 -0.6626
26481SOL    HW284001  10.456   2.516  11.595 -2.1526  0.4052  3.4305
26482SOL     OW84002   3.866  11.382   7.773 -0.2540 -0.2788 -0.3896
26482SOL    HW184003   3.932  11.337   7.826 -1.2219 -0.3825  0.7707
26482SOL    HW284004   3.903  11.383   7.685  1.9354  0.9186  0.4600
26483SOL     OW84005   3.218   1.844   1.341 -0.6664  0.1294 -0.2629
26483SOL    HW184006   3.240   1.752   1.357 -1.3931 -0.2808 -1.4693
26483SOL    HW284007   3.271   1.869   1.266  0.1549  0.9724  0.5759
26484SOL     OW84008   1.952  10.480  10.680  0.1185 -0.3231 -0.0654
26484SOL    HW184009   1.926  10.567  10.652 -1.1217 -0.9686 -1.0371
26484SOL    HW284010   1.906  10.466  10.763  0.3804 -0.0290  0.1300
26485SOL     OW84011   9.854   2.243   3.194 -0.1432 -0.6962 -0.1677
26485SOL    HW184012   9.837   2.325   3.241  0.6308 -0.7959  0.3101
26485SOL    HW284013   9.861   2.178   3.264  1.2797 -0.8051 -0.3814
26486SOL     OW84014   2.114   7.798   7.816 -0.6653  0.3542 -0.4863
26486SOL    HW184015   2.087   7.707   7.828  0.2773  0.2953  1.7181
26486SOL    HW284016   2.180   7.795   7.747 -2.1908 -0.2754 -1.9896
26487SOL     OW84017   2.748   5.191   8.320  1.0918 -0.0627 -0.2686
26487SOL    HW184018   2.792   5.266   8.359  0.4883 -0.0881  0.4860
26487SOL    HW284019   2.701   5.226   8.244  1.5757  0.1462 -0.4735
26488SOL     OW84020   5.517  11.181   8.936  0.2084 -0.3909  0.3537
26488SOL    HW184021   5.568  11.253   8.898 -0.9289  0.4399  0.3323
26488SOL    HW284022   5.524  11.111   8.872 -1.4829  0.9017 -1.3905
26489SOL     OW84023  10.417   8.961   0.283  0.1172 -0.2623  0.2614
26489SOL    HW184024  10.458   9.047   0.284 -1.2217  0.4161 -0.2676
26489SOL    HW284025  10.327   8.977   0.311 -0.9182 -1.0239 -2.3080
26490SOL     OW84026   5.235   2.464   0.547 -0.4528 -0.3364  0.6559
26490SOL    HW184027   5.302   2.525   0.517 -0.7523 -0.0587  0.5502
26490SOL    HW284028   5.167   2.469   0.481 -0.5501 -0.6670  0.7303
26491SOL     OW84029   9.160   8.605   2.628 -0.2350  0.2729  0.1707
26491SOL    HW184030   9.133   8.537   2.689 -2.6079  1.2194  0.2518
26491SOL    HW284031   9.096   8.602   2.558  0.7988  1.1098 -0.8582
26492SOL     OW84032  10.209   8.341   4.722 -0.3688 -0.0207 -0.1774
26492SOL    HW184033  10.227   8.420   4.670 -1.1783  2.0910  2.5005
26492SOL    HW284034  10.114   8.337   4.727 -0.3665  1.1042  2.7036
26493SOL     OW84035   0.974  10.429   6.166  0.2592 -0.1883  0.7167
26493SOL    HW184036   0.882  10.451   6.175 -0.4452 -2.2379 -0.7047
26493SOL    HW284037   1.012  10.501   6.116 -0.8713  0.0610  0.2064
26494SOL     OW84038   3.325   3.672   6.188  0.3055  0.4236  0.4031
26494SOL    HW184039   3.238   3.634   6.173  0.1143 -0.0674  2.5248
26494SOL    HW284040   3.372   3.657   6.106 -0.9054 -1.2309 -0.0378
26495SOL     OW84041   9.226   8.204   3.443  0.1388 -0.1010 -0.2490
26495SOL    HW184042   9.291   8.194   3.374  0.1474  0.3725 -0.3168
26495SOL    HW284043   9.228   8.121   3.491  1.7944  0.3851  0.5981
26496SOL     OW84044   4.467   0.163  10.227  0.7356  0.2731  0.2209
26496SOL    HW184045   4.540   0.108  10.201  0.5330 -0.1179  0.4777
26496SOL    HW284046   4.502   0.219  10.297  0.9628  0.5338 -0.0964
26497SOL     OW84047   3.369   6.279   2.889  0.0551 -0.2047 -0.3733
26497SOL    HW184048   3.357   6.269   2.983 -1.8568 -1.0115 -0.6530
26497SOL    HW284049   3.461   6.257   2.874  0.1048 -1.2349  1.1626
26498SOL     OW84050   4.468   1.550   7.156  0.2077  0.4886  0.4066
26498SOL    HW184051   4.421   1.576   7.076  0.0903 -1.0973 -0.0693
26498SOL    HW284052   4.506   1.465   7.135 -0.5033 -0.3522  2.3170
26499SOL     OW84053   2.022  11.984   5.313 -0.0105  0.1623 -0.5193
26499SOL    HW184054   2.047  11.983   5.221 -2.4843 -0.6904 -1.2600
26499SOL    HW284055   2.028  12.076   5.339  1.7790  0.2644 -1.1615
26500SOL     OW84056   6.900   1.659   3.647 -0.4792 -0.5076  0.3752
26500SOL    HW184057   6.856   1.635   3.565  0.4068  0.0931 -0.2997
26500SOL    HW284058   6.829   1.671   3.709 -1.3361  1.0066 -0.8322
26501SOL     OW84059   2.786   4.928  10.045 -0.1830  0.8550  0.0031
26501SOL    HW184060   2.819   4.920   9.955 -0.5008  1.5258 -0.1745
26501SOL    HW284061   2.692   4.913  10.037 -0.0130 -0.6744  0.4575
26502SOL     OW84062   7.730   7.828   9.755 -0.0090  0.1977  0.1413
26502SOL    HW184063   7.783   7.760   9.796 -2.3077 -1.8391 -0.0294
26502SOL    HW284064   7.743   7.815   9.661  0.5770  0.8704  0.1295
26503SOL     OW84065   6.384   9.254   8.350  0.0159 -0.2312  0.4176
26503SOL    HW184066   6.355   9.333   8.396 -0.0585  0.5008 -0.8379
26503SOL    HW284067   6.365   9.272   8.258  1.4840 -1.0447 -0.0797
26504SOL     OW84068   1.835   2.201  11.228  0.7990 -0.0275  0.5210
26504SOL    HW184069   1.929   2.182  11.217  0.6697 -1.5341  1.6485
26504SOL    HW284070   1.831   2.258  11.305  1.0033  3.0961 -1.5933
26505SOL     OW84071   6.147   0.434   4.904  0.0474 -0.4345  0.7106
26505SOL    HW184072   6.237   0.403   4.911  0.8865  1.3216 -1.3551
26505SOL    HW284073   6.149   0.523   4.941 -0.4873  0.1428 -0.5785
26506SOL     OW84074   0.557   7.700   8.052 -0.2115  0.3967 -0.2839
26506SOL    HW184075   0.599   7.663   8.130  0.5873 -1.0075 -1.3260
26506SOL    HW284076   0.630   7.729   7.997 -0.6879 -0.1579 -1.2299
26507SOL     OW84077  11.020   3.788   5.339 -0.5827  0.6594  0.3463
26507SOL    HW184078  10.956   3.763   5.405 -1.0214  0.7224 -0.0503
26507SOL    HW284079  11.094   3.730   5.354 -1.0096  0.1084  0.3599
26508SOL     OW84080  11.017   1.475   4.235  0.1566  0.1672 -0.0730
26508SOL    HW184081  11.010   1.465   4.330  2.9331 -0.3580  0.1582
26508SOL    HW284082  10.941   1.428   4.201 -0.6129 -0.0924  1.8611
26509SOL     OW84083  10.266   0.789   1.100  0.0171 -0.3076  0.1390
26509SOL    HW184084  10.240   0.752   1.016 -0.4031 -2.4282  1.1413
26509SOL    HW284085  10.343   0.739   1.126 -0.7372 -0.7329  1.6814
26510SOL     OW84086   4.135   1.135   7.714  0.0272 -0.5075  0.1913
26510SOL    HW184087   4.095   1.220   7.696  0.1824 -0.4523  0.1176
26510SOL    HW284088   4.070   1.091   7.770 -0.1626 -0.4369  0.0298
26511SOL     OW84089  12.045   1.524   4.579 -0.6503 -0.1462  0.2553
26511SOL    HW184090  12.109   1.463   4.614 -0.8237  0.2198  1.2636
26511SOL    HW284091  12.096   1.588   4.530 -0.5232 -1.4253 -1.3511
26512SOL     OW84092   4.166  10.513   7.948 -0.0995  0.1286  0.2401
26512SOL    HW184093   4.128  10.469   7.872  0.2207  0.4247 -0.0955
26512SOL    HW284094   4.119  10.597   7.953  0.4524  0.4704 -0.1402
26513SOL     OW84095   8.097   2.431   9.296 -0.4708 -0.1291  0.1707
26513SOL    HW184096   8.017   2.420   9.245 -0.3623  0.3164 -0.0946
26513SOL    HW284097   8.168   2.426   9.232 -0.3974  2.1013  0.0001
26514SOL     OW84098   5.910   2.101   3.694  0.6950 -0.1169  0.4861
26514SOL    HW184099   5.817   2.110   3.672  1.0087  2.5985 -0.1213
26514SOL    HW284100   5.935   2.015   3.662 -1.6018 -0.9255  0.6926
26515SOL     OW84101   8.410   1.186  10.182 -0.5397 -0.2786 -0.0931
26515SOL    HW184102   8.503   1.171  10.201 -0.9339 -2.0001  0.6683
26515SOL    HW284103   8.408   1.207  10.089  0.7581  1.4015  0.2135
26516SOL     OW84104   6.888   6.106   3.845  0.0787 -0.1271  0.6914
26516SOL    HW184105   6.920   6.048   3.776 -0.4489 -1.2692  1.3950
26516SOL    HW284106   6.957   6.173   3.853  0.0697  0.1436 -1.0380
26517SOL     OW84107  11.310   5.806  11.050  0.2661  0.0998 -0.0030
26517SOL    HW184108  11.391   5.755  11.044  0.9057  1.1721 -0.8460
26517SOL    HW284109  11.241   5.743  11.028  1.1591 -0.1394 -2.4426
26518SOL     OW84110   6.110  11.621   0.110 -0.1649 -0.4379 -0.8827
26518SOL    HW184111   6.163  11.660   0.040 -0.2987 -1.5847 -1.6584
26518SOL    HW284112   6.112  11.527   0.092 -0.2492 -0.7559  0.6514
26519SOL     OW84113   1.670   9.715   7.643  0.5376 -0.1240 -0.0064
26519SOL    HW184114   1.591   9.666   7.619  1.2808 -1.4184  0.0548
26519SOL    HW284115   1.703   9.670   7.721  1.7584 -0.1203 -0.4932
26520SOL     OW84116   9.689  11.189   2.702  0.0399 -0.1807  0.3601
26520SOL    HW184117   9.710  11.184   2.609  1.6849  0.6814  0.6334
26520SOL    HW284118   9.756  11.247   2.738 -1.6773  1.0377  1.7646
26521SOL     OW84119  12.124   8.955   1.014  0.7370  0.2304  0.1828
26521SOL    HW184120  12.060   8.914   1.072  1.8156  0.0641  1.3009
26521SOL    HW284121  12.205   8.956   1.065  1.5806  0.6186 -1.1197
26522SOL     OW84122   9.101  10.961   0.723 -0.0779 -0.3217 -0.3703
26522SOL    HW184123   9.044  10.943   0.648 -0.3071 -0.4232 -0.1720
26522SOL    HW284124   9.044  11.006   0.786  0.2432  0.2412 -0.4688
26523SOL     OW84125   7.096   3.525   3.625 -0.0282  0.8735  0.7387
26523SOL    HW184126   7.147   3.489   3.552  0.1610  0.1522  1.2117
26523SOL    HW284127   7.126   3.475   3.702 -0.5935  1.2672  1.2225
26524SOL     OW84128   0.283   5.251   2.400  0.1107  0.7167  0.1259
26524SOL    HW184129   0.323   5.337   2.391  1.1199  0.0813 -2.2828
26524SOL    HW284130   0.356   5.190   2.401 -0.6075 -0.1981  1.3219
26525SOL     OW84131  11.428   3.806  10.586 -0.1519  0.0161 -0.0303
26525SOL    HW184132  11.476   3.874  10.633 -0.1251  0.4803 -0.7034
26525SOL    HW284133  11.367   3.771  10.650 -0.5525  1.0678  0.1946
26526SOL     OW84134   6.877   7.829   1.992  0.0054 -0.0766 -0.3182
26526SOL    HW184135   6.793   7.792   1.963 -0.0270  1.0415 -1.7229
26526SOL    HW284136   6.857   7.920   2.013  1.2108  0.7800 -2.5938
26527SOL     OW84137   1.576   6.938   9.962  0.2741 -0.0747 -0.2956
26527SOL    HW184138   1.490   6.980   9.966  0.0176 -0.6390  0.0922
26527SOL    HW284139   1.616   6.958  10.046 -0.2686 -1.4948  0.3221
26528SOL     OW84140   1.314   9.976   8.948  0.1438  0.0811  0.1398
26528SOL    HW184141   1.309   9.992   9.042 -0.3795 -1.3182  0.3612
26528SOL    HW284142   1.404   9.997   8.925 -0.3790  3.0691  0.4197
26529SOL     OW84143   3.123   8.589   1.032 -0.0646  0.0771  0.3357
26529SOL    HW184144   3.203   8.629   1.067 -0.3347 -0.7319  2.0154
26529SOL    HW284145   3.052   8.639   1.071 -0.3800 -0.0165 -0.1181
26530SOL     OW84146   1.070   2.247   6.424  0.2385 -0.0020  0.1152
26530SOL    HW184147   1.020   2.229   6.503  1.3289 -0.9060  0.6352
26530SOL    HW284148   1.073   2.342   6.418  1.3579  0.1438  2.0070
26531SOL     OW84149   3.860   7.903   8.380 -0.0930 -0.2106  1.0611
26531SOL    HW184150   3.827   7.990   8.360 -0.3736 -0.6098 -0.3191
26531SOL    HW284151   3.793   7.843   8.346  1.0515 -0.9929  0.1014
26532SOL     OW84152   0.580   7.756   3.881  0.2111  0.7888 -1.2248
26532SOL    HW184153   0.591   7.778   3.973 -0.1600 -3.1395 -0.0619
26532SOL    HW284154   0.669   7.760   3.845  0.8695 -0.5671  0.1310
26533SOL     OW84155  11.420   9.366   3.616  0.1465  0.2828  0.4390
26533SOL    HW184156  11.342   9.368   3.562  1.1025  0.4279 -0.9925
26533SOL    HW284157  11.434   9.457   3.642  1.1664  0.6770 -1.3422
26534SOL     OW84158   2.758  10.855   8.121  0.1528 -0.5400 -0.2201
26534SOL    HW184159   2.753  10.911   8.198  0.0503  1.2564 -1.4769
26534SOL    HW284160   2.849  10.860   8.093 -0.4489  1.5786 -2.0931
26535SOL     OW84161  11.430   4.142   2.228 -0.5590 -0.4367 -0.1242
26535SOL    HW184162  11.469   4.211   2.175  2.0791 -0.8732  1.1016
26535SOL    HW284163  11.383   4.188   2.297 -2.5957  0.1056 -1.7632
26536SOL     OW84164   7.320   9.627   4.427  0.0647  0.8626  0.0596
26536SOL    HW184165   7.297   9.714   4.393  0.5395  0.7684 -0.5085
26536SOL    HW284166   7.408   9.610   4.393  0.7929  1.0002  1.7780
26537SOL     OW84167   5.572   9.045   3.237  0.0851  0.1917  0.1384
26537SOL    HW184168   5.519   8.993   3.298  0.1608  0.5591  0.5175
26537SOL    HW284169   5.515   9.057   3.161 -0.7300  1.3563  0.9007
26538SOL     OW84170   3.739   2.570  11.553 -0.4052 -0.0503  0.2163
26538SOL    HW184171   3.833   2.575  11.573 -0.6182  1.3166  0.9595
26538SOL    HW284172   3.727   2.632  11.481 -1.0242  1.0994  1.2888
26539SOL     OW84173   9.152   5.152   5.667 -0.3843 -0.4104  0.9631
26539SOL    HW184174   9.178   5.074   5.717  0.7191 -0.4660  0.3322
26539SOL    HW284175   9.105   5.117   5.592  0.7745 -0.5500  0.2705
26540SOL     OW84176  10.447   9.749   8.858 -0.4755 -0.1008  0.4488
26540SOL    HW184177  10.408   9.671   8.897 -0.5907  0.8983  2.4427
26540SOL    HW284178  10.541   9.736   8.867 -0.2583 -1.5708 -2.5115
26541SOL     OW84179   8.833   4.152   7.008 -0.1426  0.2812 -0.0129
26541SOL    HW184180   8.905   4.152   6.945 -0.3469  0.5940 -0.2475
26541SOL    HW284181   8.765   4.099   6.967 -0.6244  1.2284 -0.4624
26542SOL     OW84182   7.115   7.716  10.055 -0.5092  0.8195 -0.1623
26542SOL    HW184183   7.161   7.740   9.975 -0.5293  0.5329 -0.2618
26542SOL    HW284184   7.031   7.681  10.025 -0.1788 -0.0797 -0.0667
26543SOL     OW84185   9.197   5.913   3.379 -0.1142  0.7583 -0.1301
26543SOL    HW184186   9.250   5.910   3.299  1.1301  0.1664  0.6849
26543SOL    HW284187   9.226   5.992   3.425 -0.2033  0.6320  0.1477
26544SOL     OW84188   7.257   7.262   7.845  0.2580 -0.0014  0.4753
26544SOL    HW184189   7.227   7.237   7.758 -1.1631 -1.9795  1.4652
26544SOL    HW284190   7.339   7.310   7.829  0.6814 -1.3641 -1.8566
26545SOL     OW84191   8.368   5.704  11.135 -0.0144  0.4132  0.0673
26545SOL    HW184192   8.376   5.721  11.041  0.0546 -1.5884 -0.3417
26545SOL    HW284193   8.458   5.702  11.167  0.0954 -0.8074 -0.2475
26546SOL     OW84194   9.717   3.915  10.981 -0.0547  0.0283 -0.1312
26546SOL    HW184195   9.660   3.978  10.937  0.6430  1.2449  0.6879
26546SOL    HW284196   9.703   3.930  11.074  0.4351 -0.7539  0.0843
26547SOL     OW84197   3.826   1.224   2.762  0.2407 -0.3711 -0.0086
26547SOL    HW184198   3.742   1.231   2.718  0.8546  0.2247 -1.1294
26547SOL    HW284199   3.880   1.171   2.703  0.8017 -0.3381  0.4607
26548SOL     OW84200  10.511   2.216   0.927 -0.0448  0.2396 -0.0909
26548SOL    HW184201  10.582   2.279   0.945 -0.2947  0.5110 -0.0449
26548SOL    HW284202  10.522   2.148   0.993 -1.5794  1.7427  1.8295
26549SOL     OW84203   5.472   6.142   5.765  1.2002  0.1519  0.7306
26549SOL    HW184204   5.551   6.103   5.729  2.3018  1.4531  1.6462
26549SOL    HW284205   5.422   6.068   5.801 -0.0132 -1.2689 -3.3010
26550SOL     OW84206   9.836   2.607   9.029  0.1865 -0.1806  0.1824
26550SOL    HW184207   9.839   2.578   8.938 -0.1125 -3.3306  1.0804
26550SOL    HW284208   9.923   2.586   9.064 -1.0996 -3.4846  1.7593
26551SOL     OW84209  11.236  10.758  10.851 -0.4955  0.0583 -0.4135
26551SOL    HW184210  11.204  10.681  10.897  0.4711  0.6436  1.3147
26551SOL    HW284211  11.283  10.724  10.775 -0.6009 -1.0155 -0.0047
26552SOL     OW84212   2.993   6.111   4.850  0.3819  0.2109 -0.3481
26552SOL    HW184213   2.996   6.015   4.852  1.8192  0.2221 -0.7653
26552SOL    HW284214   2.990   6.136   4.943  1.1163 -0.2357 -0.1898
26553SOL     OW84215   6.509  10.842   7.384 -0.6844  0.2380 -0.2198
26553SOL    HW184216   6.554  10.820   7.303  1.2516 -0.3036  0.9318
26553SOL    HW284217   6.572  10.895   7.433 -1.1279 -0.8164  1.6079
26554SOL     OW84218   8.140  12.042   5.884 -0.3551 -0.1451 -0.1985
26554SOL    HW184219   8.081  11.992   5.941 -0.5449  0.0328 -0.2383
26554SOL    HW284220   8.084  12.109   5.844  0.2465  1.2116  1.1624
26555SOL     OW84221   1.975   4.010   1.210 -0.5914 -0.1481  0.2712
26555SOL    HW184222   1.923   4.003   1.130  0.8402 -1.8412 -0.5922
26555SOL    HW284223   2.001   4.102   1.213 -1.7524  0.2250 -0.4796
26556SOL     OW84224   3.430   8.446   1.521  0.6793  0.5433 -0.1094
26556SOL    HW184225   3.519   8.478   1.506  1.7867 -1.3132  1.9814
26556SOL    HW284226   3.438   8.351   1.515 -0.9989  0.3145  0.9202
26557SOL     OW84227   8.242   1.546   4.915  0.2107 -0.3062  0.3303
26557SOL    HW184228   8.181   1.620   4.911 -1.1356 -1.4191 -2.6403
26557SOL    HW284229   8.187   1.471   4.937  1.1029 -0.8630  0.7269
26558SOL     OW84230   0.881  10.188  11.684  0.1488 -0.2693 -0.5469
26558SOL    HW184231   0.836  10.266  11.651  0.4783 -0.0539 -0.4940
26558SOL    HW284232   0.952  10.223  11.738 -0.4345 -0.6138  0.4693
26559SOL     OW84233   7.644   1.478  10.970 -0.5318  0.4644  0.0141
26559SOL    HW184234   7.588   1.514  11.039 -1.9853 -1.2470 -0.1878
26559SOL    HW284235   7.682   1.399  11.010 -0.4601  0.1056 -0.7524
26560SOL     OW84236   2.240  10.245   0.133  0.4126 -0.0601  0.0849
26560SOL    HW184237   2.187  10.229   0.211  0.9614 -2.0215  0.1089
26560SOL    HW284238   2.269  10.336   0.142 -0.8062  0.2336  1.3653
26561SOL     OW84239  11.519  11.451  11.716  0.2669 -0.2218  0.1793
26561SOL    HW184240  11.593  11.403  11.678  0.9744  0.0409  1.1880
26561SOL    HW284241  11.516  11.533  11.666  0.1719 -0.5538 -0.3669
26562SOL     OW84242   4.889   4.839   8.519 -0.0202  0.2563 -0.3777
26562SOL    HW184243   4.796   4.817   8.509  0.2565 -0.3618 -1.9058
26562SOL    HW284244   4.923   4.842   8.429  0.7567  3.6483 -0.0965
26563SOL     OW84245   3.253   5.927   4.881 -0.7560 -0.9033  0.3464
26563SOL    HW184246   3.326   5.868   4.866  0.3159 -0.2297  2.4595
26563SOL    HW284247   3.292   6.014   4.886 -1.6674 -0.5186  1.4887
26564SOL     OW84248  11.073  10.745   4.171  0.3340  0.1778 -0.0591
26564SOL    HW184249  10.986  10.720   4.200 -0.1170 -0.7603 -2.0613
26564SOL    HW284250  11.132  10.683   4.215 -0.1690 -0.2485  0.0190
26565SOL     OW84251   7.181   7.531  12.106 -0.2670 -0.4868  0.4483
26565SOL    HW184252   7.259   7.569  12.067 -0.6609 -0.0502  0.0730
26565SOL    HW284253   7.206   7.512  12.196  0.8903 -2.2128 -0.1944
26566SOL     OW84254  11.247   1.156   3.839 -0.2959 -0.4223  0.2780
26566SOL    HW184255  11.270   1.244   3.813  2.1015 -0.4850  1.8860
26566SOL    HW284256  11.224   1.164   3.932  1.3843 -1.6511  0.8433
26567SOL     OW84257   3.427  10.995   7.496  0.2424 -0.3773 -0.5003
26567SOL    HW184258   3.415  11.018   7.404 -1.2058  0.2171 -0.1900
26567SOL    HW284259   3.447  11.077   7.540  1.9520 -0.8144 -0.4205
26568SOL     OW84260   6.477  10.702   0.189  0.3838  0.0985 -0.1694
26568SOL    HW184261   6.432  10.618   0.184  0.9060 -0.1755 -0.4792
26568SOL    HW284262   6.546  10.689   0.254 -0.0050  0.5222  0.3298
26569SOL     OW84263   2.396   9.284   1.226  0.1993  0.2149  0.5482
26569SOL    HW184264   2.363   9.198   1.199 -1.4198  0.3891  1.8143
26569SOL    HW284265   2.416   9.273   1.319  1.3244  0.8444  0.3875
26570SOL     OW84266   2.938   8.415   6.130 -0.0708 -0.2392  0.2965
26570SOL    HW184267   2.852   8.435   6.091 -0.4292  1.5369  1.8860
26570SOL    HW284268   2.994   8.395   6.055 -0.8875  2.4371 -1.1518
26571SOL     OW84269   9.880   1.045   2.021 -0.3009 -0.0918 -0.5281
26571SOL    HW184270   9.893   0.962   1.975  0.3742 -1.1095  1.3631
26571SOL    HW284271   9.945   1.104   1.984  1.5795 -1.4760  0.4125
26572SOL     OW84272   0.299   8.999   6.842 -0.0942 -0.2064  0.3702
26572SOL    HW184273   0.267   8.944   6.771 -0.3104  0.6792 -0.2263
26572SOL    HW284274   0.265   9.086   6.823 -1.9510 -0.3225  2.6665
26573SOL     OW84275   6.532   5.923   5.749  0.0112  0.2131  0.2084
26573SOL    HW184276   6.460   5.928   5.812 -0.5811 -1.0304 -0.3279
26573SOL    HW284277   6.611   5.921   5.802 -0.1697  3.3196  0.7779
26574SOL     OW84278   4.067   2.267   6.783 -0.2267  0.0521 -0.0111
26574SOL    HW184279   4.012   2.292   6.709  1.9010 -0.2929 -1.8038
26574SOL    HW284280   4.140   2.219   6.744  1.7143  1.0611  2.1364
26575SOL     OW84281   6.261   1.727   4.072  0.0224 -0.5858  0.1495
26575SOL    HW184282   6.302   1.809   4.098  1.1381 -1.3407  0.8057
26575SOL    HW284283   6.255   1.675   4.152  0.0788 -1.4759 -0.4043
26576SOL     OW84284   0.460  10.629   3.991  0.3637  0.1934 -0.1848
26576SOL    HW184285   0.441  10.676   3.909  0.0891 -0.5549 -0.5542
26576SOL    HW284286   0.448  10.695   4.059 -1.8489  0.2226 -0.5260
26577SOL     OW84287   3.734   2.043   0.581  0.0573  0.3922 -0.7150
26577SOL    HW184288   3.659   2.097   0.609 -0.1854 -0.4797  0.3883
26577SOL    HW284289   3.696   1.977   0.523 -0.0694 -0.1605 -0.0124
26578SOL     OW84290   9.487   5.931   4.672 -0.0081 -0.2070  0.9235
26578SOL    HW184291   9.467   5.838   4.668  0.3018 -0.2198 -1.5052
26578SOL    HW284292   9.503   5.948   4.765 -0.7821 -2.3987  1.5141
26579SOL     OW84293   2.300   3.449   8.526 -0.1052  0.2892 -0.7411
26579SOL    HW184294   2.273   3.360   8.547 -2.1513  1.0798  0.3293
26579SOL    HW284295   2.360   3.473   8.597  0.5677 -0.2597 -1.1128
26580SOL     OW84296   7.513   3.914   0.818 -0.6555 -0.1089 -0.7859
26580SOL    HW184297   7.431   3.933   0.863 -0.3792  1.8126 -1.0159
26580SOL    HW284298   7.489   3.850   0.750 -2.2553  1.4342 -1.7571
26581SOL     OW84299  12.111   0.651   7.130  0.7519  0.2858 -0.4005
26581SOL    HW184300  12.061   0.587   7.078  0.4137  1.5887 -1.7440
26581SOL    HW284301  12.199   0.647   7.093  1.7073 -1.8364  1.8106
26582SOL     OW84302   2.759   1.472   2.955  0.0630 -0.1058 -0.0270
26582SOL    HW184303   2.775   1.555   2.910 -0.5687 -0.4134 -0.8463
26582SOL    HW284304   2.846   1.438   2.975  0.3434  1.1973  1.1930
26583SOL     OW84305   7.899   2.683  10.653  0.6510  0.0516  0.0405
26583SOL    HW184306   7.959   2.637  10.595 -0.9642 -0.7519 -1.0909
26583SOL    HW284307   7.918   2.648  10.740  1.7201 -0.2638 -0.3091
26584SOL     OW84308   7.146   2.031   5.721  0.2554 -0.3440  0.3143
26584SOL    HW184309   7.214   1.974   5.686  1.1590  1.0664 -0.3240
26584SOL    HW284310   7.194   2.091   5.779 -0.7425 -0.5146  1.3513
26585SOL     OW84311   8.695   0.190   3.772 -0.0565 -0.1181  0.3157
26585SOL    HW184312   8.752   0.234   3.835  2.9235  0.2382 -2.3757
26585SOL    HW284313   8.720   0.227   3.687 -5.0068  0.6992 -1.0967
26586SOL     OW84314  11.178  11.229   3.699 -0.1452  0.5570 -0.1517
26586SOL    HW184315  11.257  11.204   3.747 -0.5640 -2.4958 -0.8496
26586SOL    HW284316  11.117  11.258   3.767  1.0733  1.6896  0.5153
26587SOL     OW84317   4.182   8.842   0.442 -0.0757 -0.4367 -0.3354
26587SOL    HW184318   4.181   8.893   0.523 -2.5177 -0.3694 -0.3517
26587SOL    HW284319   4.270   8.805   0.438  1.0630  1.9326  0.8320
26588SOL     OW84320   8.964   9.135  11.619 -0.2701  0.1119  0.1258
26588SOL    HW184321   8.927   9.222  11.633  1.8886  0.8786  1.6729
26588SOL    HW284322   8.897   9.087  11.569 -1.8808  2.3514  0.0149
26589SOL     OW84323   4.415   2.328  10.202 -0.4579  0.2644 -0.8035
26589SOL    HW184324   4.394   2.301  10.292 -0.1354  1.3549 -0.3944
26589SOL    HW284325   4.492   2.384  10.211 -2.2222  2.9689 -1.3734
26590SOL     OW84326   1.456   2.045   1.788  0.1533  0.2106  0.6894
26590SOL    HW184327   1.407   1.982   1.840  1.1828 -2.5982 -1.5030
26590SOL    HW284328   1.539   2.055   1.834  0.5804 -1.3085  0.3147
26591SOL     OW84329   5.204   7.622   8.004 -0.1875 -0.0454  0.8703
26591SOL    HW184330   5.121   7.625   7.956 -0.5230 -2.4766  1.1952
26591SOL    HW284331   5.271   7.623   7.936 -0.4365  1.6625  0.5975
26592SOL     OW84332   6.587  11.982   7.403  0.0869  0.1846  0.2002
26592SOL    HW184333   6.556  12.059   7.452 -2.1213 -0.2422 -0.3948
26592SOL    HW284334   6.662  11.950   7.453 -0.6581  1.1181  2.0115
26593SOL     OW84335  10.693   5.319   7.406 -0.1019 -0.1720 -0.0996
26593SOL    HW184336  10.767   5.300   7.463 -0.5298 -1.7321 -0.0126
26593SOL    HW284337  10.634   5.372   7.460  0.0197 -0.6620  0.5285
26594SOL     OW84338   9.931   2.153  10.999 -0.2919  0.5901 -0.0009
26594SOL    HW184339   9.889   2.208  11.065  0.8881  1.4378  0.0862
26594SOL    HW284340  10.009   2.203  10.973 -0.5063  0.0826 -1.7370
26595SOL     OW84341   6.573   4.373   1.276 -0.1051 -0.0649 -0.0469
26595SOL    HW184342   6.595   4.458   1.237 -0.6780  0.3359  0.4642
26595SOL    HW284343   6.535   4.323   1.204  0.7234 -0.0896 -0.4809
26596SOL     OW84344  11.286   4.109   3.023  0.1005 -0.1998  0.0252
26596SOL    HW184345  11.198   4.098   2.987  1.4247 -1.6823 -3.0881
26596SOL    HW284346  11.296   4.037   3.085 -1.1692  0.6293  1.2773
26597SOL     OW84347   9.806   6.397   7.256  0.4225 -0.2465 -0.2098
26597SOL    HW184348   9.899   6.421   7.247  0.5837 -1.3374 -2.1138
26597SOL    HW284349   9.807   6.313   7.302  0.4173 -0.3600 -0.4118
26598SOL     OW84350   0.566   6.530   5.040 -0.0835  0.2515  0.6525
26598SOL    HW184351   0.583   6.582   4.962  2.2197  0.3263  1.1421
26598SOL    HW284352   0.552   6.441   5.007 -1.2249  0.6489  0.0252
26599SOL     OW84353   6.193   8.879   1.725 -0.0615  0.7391  0.0186
26599SOL    HW184354   6.239   8.923   1.654 -1.1170 -0.8166 -1.7128
26599SOL    HW284355   6.223   8.788   1.721 -1.1439  0.3290  0.6965
26600SOL     OW84356   1.253   9.805   9.740 -0.2237  0.5078 -0.5626
26600SOL    HW184357   1.324   9.848   9.691 -0.6665  1.3837 -0.4659
26600SOL    HW284358   1.279   9.813   9.832  0.1147 -0.2325 -0.5856
26601SOL     OW84359  11.307   5.843   5.424 -0.1382  0.1890  0.7050
26601SOL    HW184360  11.217   5.811   5.419  0.2697 -1.0357  0.8761
26601SOL    HW284361  11.307   5.905   5.497 -0.7684 -0.0473  0.9060
26602SOL     OW84362   9.055   4.881   9.992 -0.7883 -0.2307  0.1477
26602SOL    HW184363   9.110   4.878  10.070 -0.4946 -0.6921 -0.0751
26602SOL    HW284364   9.102   4.829   9.927 -0.2468  1.4321 -0.8478
26603SOL     OW84365   5.216  10.648   8.648 -0.2149 -0.4809 -0.1433
26603SOL    HW184366   5.267  10.611   8.720  0.9334 -1.8933 -1.6227
26603SOL    HW284367   5.234  10.742   8.651  0.0955 -0.5675  1.1690
26604SOL     OW84368   2.449  10.256   7.169  0.1552 -0.0069  0.0340
26604SOL    HW184369   2.403  10.244   7.252 -1.1057 -1.4557 -0.8209
26604SOL    HW284370   2.414  10.337   7.133  2.0046  1.6255  1.6616
26605SOL     OW84371   4.322   4.849   8.638 -0.0778  0.0779  0.4651
26605SOL    HW184372   4.338   4.766   8.684 -1.2664  0.0049  0.7844
26605SOL    HW284373   4.346   4.917   8.701  1.2130 -0.0025  0.0875
26606SOL     OW84374  11.926   2.477   4.800  0.6054 -0.1135 -0.2049
26606SOL    HW184375  12.016   2.472   4.768  0.6038 -0.8323 -0.1186
26606SOL    HW284376  11.884   2.398   4.764 -0.1092  0.4374 -0.6053
26607SOL     OW84377   2.214  11.662   6.611  0.2122  0.6254 -0.1335
26607SOL    HW184378   2.264  11.736   6.645 -0.0184  1.6653 -1.9462
26607SOL    HW284379   2.278  11.591   6.605  0.4513  0.6544  1.5726
26608SOL     OW84380   1.651   0.386   2.598 -0.2940 -0.4514 -0.2489
26608SOL    HW184381   1.740   0.384   2.562  0.0397 -0.9198  0.5780
26608SOL    HW284382   1.603   0.322   2.546 -0.2920  0.1701 -1.0385
26609SOL     OW84383   4.484   7.792   6.076 -0.1717  0.2587  0.0921
26609SOL    HW184384   4.573   7.820   6.096 -0.2566  1.0295 -0.5991
26609SOL    HW284385   4.434   7.816   6.154  0.2666 -0.4433  0.6036
26610SOL     OW84386  10.031  10.023   3.017  0.0623  0.2048 -0.3954
26610SOL    HW184387  10.081  10.100   3.043  0.1649 -0.1756  0.5854
26610SOL    HW284388  10.044  10.016   2.923 -0.9707  2.0974 -0.7263
26611SOL     OW84389   0.264  10.248   0.280  0.3173 -0.5708  0.6323
26611SOL    HW184390   0.333  10.212   0.225  0.1211 -0.4651  0.3129
26611SOL    HW284391   0.195  10.274   0.219  0.1288 -0.3765  0.9198
26612SOL     OW84392   7.649   0.053   1.361 -0.7030  0.4547 -0.3617
26612SOL    HW184393   7.659   0.063   1.456 -0.8880 -0.4773 -0.2373
26612SOL    HW284394   7.638  -0.041   1.347  0.5438  0.4242 -1.4232
26613SOL     OW84395   2.822  12.023   0.869 -0.0087 -0.5879 -0.1350
26613SOL    HW184396   2.825  12.094   0.805  0.0107 -0.6464 -0.1997
26613SOL    HW284397   2.914  11.998   0.882 -0.0167 -0.6141 -0.1279
26614SOL     OW84398   8.252  11.686   2.727 -0.3353 -0.0526 -0.1910
26614SOL    HW184399   8.298  11.762   2.762 -1.3687 -0.2342  1.7253
26614SOL    HW284400   8.274  11.614   2.787 -1.0779 -0.7380 -0.7061
26615SOL     OW84401   1.978   6.185  10.193 -0.3406  0.3057  0.6865
26615SOL    HW184402   1.981   6.267  10.145  3.6878  0.0586  0.2027
26615SOL    HW284403   1.976   6.212  10.285  0.2750  0.9582  0.5183
26616SOL     OW84404   1.385   6.489   2.040 -0.5872  0.8543 -0.5123
26616SOL    HW184405   1.462   6.497   2.096 -0.6047 -2.0007  0.0565
26616SOL    HW284406   1.418   6.504   1.951  0.5585  0.1502 -0.2199
26617SOL     OW84407   9.228   2.860  11.402 -0.3496  0.0918 -0.4645
26617SOL    HW184408   9.253   2.865  11.310  0.9367 -2.1292 -0.3095
26617SOL    HW284409   9.311   2.846  11.448 -1.2122 -1.0561  0.7873
26618SOL     OW84410   1.347   3.531   7.271 -0.1379  0.2300  0.1849
26618SOL    HW184411   1.258   3.559   7.248 -0.8889 -1.3004  1.0731
26618SOL    HW284412   1.401   3.609   7.256 -1.6613  1.2808 -0.1188
26619SOL     OW84413   5.193   8.446   1.382  0.0418  0.0153  0.6038
26619SOL    HW184414   5.149   8.521   1.423  0.5161 -0.3886  1.8969
26619SOL    HW284415   5.215   8.476   1.294 -1.9651  0.5608  0.2227
26620SOL     OW84416   7.600  10.894  10.443 -0.5399  0.2442  0.9986
26620SOL    HW184417   7.652  10.850  10.375 -1.2560  0.8390  0.0417
26620SOL    HW284418   7.531  10.831  10.464 -0.6198  0.2609  0.7929
26621SOL     OW84419   4.345   8.762   5.186  0.2241  0.0597  0.1651
26621SOL    HW184420   4.294   8.791   5.262  2.3439 -0.7072  2.0058
26621SOL    HW284421   4.292   8.693   5.146 -1.4967  1.3212  0.1470
26622SOL     OW84422   9.773   5.616   4.563 -0.6245 -0.2397 -0.0366
26622SOL    HW184423   9.772   5.525   4.595 -0.0368 -0.7133 -1.3110
26622SOL    HW284424   9.812   5.666   4.635  1.7755 -1.4669 -0.3899
26623SOL     OW84425  11.584   8.842  11.363 -0.5730  0.2895  0.1499
26623SOL    HW184426  11.654   8.862  11.301  0.3456 -0.9823  0.7318
26623SOL    HW284427  11.516   8.907  11.345 -0.3951 -0.1174 -2.2569
26624SOL     OW84428   1.371   9.084   2.042  0.1105  0.1512 -0.6971
26624SOL    HW184429   1.348   9.006   1.990  0.5587  0.7247 -1.7830
26624SOL    HW284430   1.291   9.137   2.042 -0.4581 -0.6532  0.7341
26625SOL     OW84431   4.651   9.688   2.806  0.1222  0.4512 -0.5310
26625SOL    HW184432   4.653   9.708   2.899 -2.0406 -3.7013  0.6484
26625SOL    HW284433   4.743   9.685   2.780  1.0714 -1.7637  2.4900
26626SOL     OW84434   6.582   0.707   7.744 -0.1686  0.6708  0.4451
26626SOL    HW184435   6.533   0.709   7.826 -0.4689 -2.3982  0.4395
26626SOL    HW284436   6.661   0.658   7.764  0.7951  1.7009 -0.6489
26627SOL     OW84437   5.474   0.893   3.705 -0.0004 -0.0538 -0.6107
26627SOL    HW184438   5.452   0.825   3.769  1.9616 -1.4752 -1.3407
26627SOL    HW284439   5.423   0.869   3.627  0.2538 -0.3742 -0.6821
26628SOL     OW84440   2.265  11.144   6.016  0.0492 -0.4912 -0.6381
26628SOL    HW184441   2.253  11.050   6.028 -0.1230 -0.3298  0.5274
26628SOL    HW284442   2.342  11.166   6.068  0.7038 -0.1448 -1.7108
26629SOL     OW84443   8.932   6.673   1.509  0.0828 -0.1212  0.2147
26629SOL    HW184444   8.873   6.702   1.439  0.2163  1.9886  0.9072
26629SOL    HW284445   8.896   6.712   1.589  3.6007  3.4216  0.3965
26630SOL     OW84446   2.286   0.031   2.656 -0.0460  0.3503 -0.5841
26630SOL    HW184447   2.253  -0.032   2.591 -1.8574 -0.2820  0.8677
26630SOL    HW284448   2.320  -0.024   2.727  0.7158  1.0369 -0.4049
26631SOL     OW84449   3.036   5.313  10.018  0.1013 -0.3009 -0.1017
26631SOL    HW184450   3.051   5.402  10.051 -1.5694  0.3431 -0.9687
26631SOL    HW284451   3.076   5.256  10.084  0.1324  1.0573  1.1080
26632SOL     OW84452   0.234  11.097   8.892 -0.3039 -0.5544  0.1690
26632SOL    HW184453   0.168  11.106   8.960  0.9899  0.5329  1.3372
26632SOL    HW284454   0.264  11.006   8.901  0.5818 -0.1424  1.7970
26633SOL     OW84455   2.074   8.835   8.805  0.9583 -0.4208  0.2892
26633SOL    HW184456   2.104   8.865   8.890 -0.0089  0.6759  0.2666
26633SOL    HW284457   2.075   8.913   8.750  0.1805 -0.8089 -0.2980
26634SOL     OW84458   2.833   4.028   9.699 -0.2204 -0.1587 -0.2625
26634SOL    HW184459   2.802   3.969   9.768  2.2760 -1.7815 -0.4505
26634SOL    HW284460   2.768   4.019   9.629 -2.4175  0.9778  1.4683
26635SOL     OW84461   4.391   4.428   7.268 -0.1620  0.9543  0.4426
26635SOL    HW184462   4.341   4.379   7.333  0.5960 -0.3119  0.1097
26635SOL    HW284463   4.350   4.405   7.184  0.6371  0.2718  0.2133
26636SOL     OW84464  10.502   1.023   7.621 -0.4080 -0.3892 -0.1508
26636SOL    HW184465  10.530   1.094   7.678  1.4854  0.9590 -2.5553
26636SOL    HW284466  10.566   0.953   7.636 -0.8237 -0.6477  0.4512
26637SOL     OW84467   5.662  10.365   1.181  0.0362  0.0995 -0.0860
26637SOL    HW184468   5.567  10.355   1.176  0.1323 -0.2520 -1.3656
26637SOL    HW284469   5.696  10.276   1.176  0.3760 -0.0744  3.1620
26638SOL     OW84470   2.802   1.929   8.271 -0.1413 -0.4815  0.0749
26638SOL    HW184471   2.706   1.936   8.277 -0.2160 -1.0070 -0.3683
26638SOL    HW284472   2.821   1.839   8.295  0.2455 -0.3766  0.1663
26639SOL     OW84473   1.079   0.085  11.588  0.4428 -0.2581  0.0066
26639SOL    HW184474   1.027   0.028  11.532  1.5198  0.0548 -1.3735
26639SOL    HW284475   1.169   0.055  11.575  0.8135  0.4595  0.8270
26640SOL     OW84476   6.171   5.234   3.346 -0.1621 -0.5860 -0.1680
26640SOL    HW184477   6.174   5.140   3.330  1.5827 -0.7433  0.7851
26640SOL    HW284478   6.251   5.253   3.395 -0.6246  1.3503 -0.0475
26641SOL     OW84479   9.797   5.568   9.543  0.2367 -0.2334  0.4824
26641SOL    HW184480   9.743   5.540   9.469  3.0448 -0.4765 -1.6148
26641SOL    HW284481   9.850   5.491   9.564  1.4312  0.6755  0.8853
26642SOL     OW84482   8.294   5.608   0.004  0.0244  0.3714  0.3761
26642SOL    HW184483   8.277   5.691  -0.039  0.1035  1.0533  1.6207
26642SOL    HW284484   8.293   5.544  -0.067 -0.7081  1.3303 -0.5126
26643SOL     OW84485   5.469   5.645   2.767 -0.3146  0.0242 -0.1205
26643SOL    HW184486   5.375   5.659   2.784  0.0470  1.3773  0.8901
26643SOL    HW284487   5.508   5.640   2.854  0.8513  1.6310 -0.5311
26644SOL     OW84488   2.584   7.338  11.146  0.4609 -0.2732  0.0102
26644SOL    HW184489   2.491   7.326  11.128  0.5075 -0.4809 -0.0999
26644SOL    HW284490   2.587   7.384  11.230  0.2634 -0.5515  0.1712
26645SOL     OW84491   7.218   2.553   8.946  0.0745  0.4737 -0.1254
26645SOL    HW184492   7.247   2.495   8.875  1.6348  0.2906  0.6154
26645SOL    HW284493   7.299   2.581   8.988 -0.8213 -0.4782  2.4223
26646SOL     OW84494   0.452   3.448  11.658 -0.0757  0.0308  0.4862
26646SOL    HW184495   0.521   3.511  11.636 -0.6420  0.9607  1.2943
26646SOL    HW284496   0.378   3.474  11.603 -0.1012 -0.3821  0.3154
26647SOL     OW84497   8.326   6.333   5.225  0.0460 -0.8098  0.3072
26647SOL    HW184498   8.405   6.330   5.279 -1.1288 -0.5140  2.1360
26647SOL    HW284499   8.341   6.407   5.166  1.3351 -1.0728  0.2640
26648SOL     OW84500   7.726   1.431   7.535 -0.8760  0.1032 -0.0436
26648SOL    HW184501   7.740   1.342   7.567 -2.2929 -0.4187 -0.7486
26648SOL    HW284502   7.649   1.462   7.583 -1.2967  0.3705 -0.8637
26649SOL     OW84503   2.398   3.841   2.451  0.6050 -0.0750  0.3748
26649SOL    HW184504   2.436   3.771   2.505  0.0643  0.6171  1.6918
26649SOL    HW284505   2.361   3.902   2.514  0.0504  0.8297 -0.7996
26650SOL     OW84506   8.693   0.548   7.848 -0.0361  0.2065 -0.1707
26650SOL    HW184507   8.671   0.596   7.767 -0.7681 -1.1374 -0.8033
26650SOL    HW284508   8.620   0.487   7.859  0.2428  0.1167  1.3276
26651SOL     OW84509   3.254   1.910   5.097  0.5234  0.3713 -0.3421
26651SOL    HW184510   3.282   1.830   5.053  1.0446 -0.0698  0.7419
26651SOL    HW284511   3.334   1.942   5.140 -0.0841  0.4401  0.7752
26652SOL     OW84512   5.175   1.426  11.624 -0.2886 -0.0553 -0.0154
26652SOL    HW184513   5.112   1.465  11.685 -1.0764 -1.9188  0.4313
26652SOL    HW284514   5.131   1.347  11.591 -0.4863  1.5243 -4.1024
26653SOL     OW84515   3.732   9.561   0.307  0.3233  0.0784 -0.3615
26653SOL    HW184516   3.675   9.508   0.363  2.1150 -1.3430  0.2298
26653SOL    HW284517   3.695   9.553   0.219 -0.8853 -0.0387  0.1419
26654SOL     OW84518   1.253   5.202   9.517 -0.1567 -0.4436 -0.2190
26654SOL    HW184519   1.238   5.108   9.531 -0.8007  0.0229  2.9992
26654SOL    HW284520   1.339   5.206   9.475  0.2196 -2.4768  0.2460
26655SOL     OW84521   7.473   5.792   4.623 -0.1475  0.0024 -0.0979
26655SOL    HW184522   7.554   5.765   4.580 -0.0576 -2.1386  1.2697
26655SOL    HW284523   7.408   5.793   4.553  0.3748 -1.6097 -0.6495
26656SOL     OW84524   3.265   0.573   6.700  0.3074 -0.0716 -0.0882
26656SOL    HW184525   3.361   0.574   6.699  0.3166 -0.8677 -0.6212
26656SOL    HW284526   3.240   0.574   6.608 -0.1906 -0.3404  0.0438
26657SOL     OW84527  10.823   2.486   1.336 -0.6553 -0.1179  0.1013
26657SOL    HW184528  10.840   2.580   1.333  0.5070 -0.3290 -0.6787
26657SOL    HW284529  10.811   2.466   1.428  1.8683  0.3631  0.6169
26658SOL     OW84530   7.227  11.761   2.267 -0.2119  0.7539 -0.2655
26658SOL    HW184531   7.218  11.846   2.223  1.4973 -0.1417 -2.5479
26658SOL    HW284532   7.279  11.708   2.207  0.7066 -1.2174  2.0849
26659SOL     OW84533   7.432  11.091   5.240  0.2022  0.0428  0.2771
26659SOL    HW184534   7.505  11.086   5.301  0.9927 -1.6161 -0.7186
26659SOL    HW284535   7.422  11.001   5.207 -2.0094  0.3110  0.0510
26660SOL     OW84536   5.611  10.672   1.406  0.3081  0.2435 -0.1685
26660SOL    HW184537   5.619  10.584   1.445 -1.6458 -0.0334 -0.2726
26660SOL    HW284538   5.545  10.715   1.460 -0.9830  0.5581 -1.9479
26661SOL     OW84539   9.938   0.845   3.338  0.2932  0.5687 -0.3502
26661SOL    HW184540  10.010   0.786   3.315  0.2797  1.3462 -2.7317
26661SOL    HW284541   9.860   0.790   3.337  0.6213  0.0761  0.4385
26662SOL     OW84542  11.778   6.596   4.211  0.3928 -0.8373  0.3440
26662SOL    HW184543  11.859   6.645   4.220  0.0938 -0.0921 -0.7160
26662SOL    HW284544  11.726   6.647   4.148 -1.2854 -0.7671  1.6899
26663SOL     OW84545  11.088   3.694   3.580  0.4263 -0.5756 -0.1982
26663SOL    HW184546  11.028   3.718   3.509  0.3267  1.5446  0.5411
26663SOL    HW284547  11.166   3.746   3.564  0.1966  0.3703  1.5040
26664SOL     OW84548   0.432   8.267   6.936 -0.0022 -0.1427 -0.0619
26664SOL    HW184549   0.358   8.322   6.964  1.0821  0.7203  1.2257
26664SOL    HW284550   0.445   8.207   7.010  1.5921  0.7760  0.4297
26665SOL     OW84551   2.293   1.540   4.598 -0.1703  0.2309 -0.2640
26665SOL    HW184552   2.331   1.552   4.685  0.5555  0.5585 -0.6259
26665SOL    HW284553   2.362   1.498   4.547 -1.0833 -1.3071 -0.3003
26666SOL     OW84554   0.710  10.840   6.312 -0.0226  0.5728  0.6392
26666SOL    HW184555   0.805  10.827   6.318  0.1646  1.4746 -0.1326
26666SOL    HW284556   0.699  10.900   6.238 -1.1520  1.0480  1.1785
26667SOL     OW84557   0.661   2.861   5.728 -0.0168  0.5412  0.0057
26667SOL    HW184558   0.578   2.903   5.753 -0.0119  0.4465  0.1833
26667SOL    HW284559   0.642   2.819   5.644 -0.0755  0.7394 -0.0803
26668SOL     OW84560   6.395   6.500   7.592  0.0364  0.0319 -0.6154
26668SOL    HW184561   6.403   6.421   7.644  0.7360 -1.4871 -2.8861
26668SOL    HW284562   6.452   6.564   7.636  0.1176 -0.9843  0.7834
26669SOL     OW84563  10.799   2.061   6.224  0.2984  0.2744  0.5732
26669SOL    HW184564  10.779   2.146   6.263 -1.6369 -0.2999  0.9352
26669SOL    HW284565  10.735   2.001   6.262  2.6547 -1.7551  1.6142
26670SOL     OW84566  11.999   4.551   9.872  0.4994  0.2815  0.5425
26670SOL    HW184567  11.999   4.630   9.818  3.2083  0.5290  0.7878
26670SOL    HW284568  12.049   4.487   9.822 -1.5956 -1.3392  0.3802
26671SOL     OW84569  11.487   9.120   7.549 -0.5018  0.0948 -0.4942
26671SOL    HW184570  11.434   9.040   7.553 -3.0798  1.6864  3.9604
26671SOL    HW284571  11.554   9.108   7.615 -0.8055  1.4943  0.0982
26672SOL     OW84572   2.498   5.879   7.234  0.8213  0.9697  0.1108
26672SOL    HW184573   2.484   5.974   7.224 -1.6158  0.5866 -0.5494
26672SOL    HW284574   2.468   5.859   7.322 -1.5165  0.3972 -0.7527
26673SOL     OW84575   6.132   4.614   5.897  0.1102 -0.1800 -0.2971
26673SOL    HW184576   6.170   4.666   5.826  0.3653 -0.4091 -0.3301
26673SOL    HW284577   6.173   4.648   5.977  1.7789 -1.6320 -0.4864
26674SOL     OW84578  10.980   4.392   9.408  0.7674 -0.7576 -0.2655
26674SOL    HW184579  10.971   4.296   9.409  0.9827 -0.7861 -0.7094
26674SOL    HW284580  10.935   4.419   9.328 -0.0995 -0.3959  0.3322
26675SOL     OW84581   8.783   6.285   4.265 -0.4403 -0.2956  0.0256
26675SOL    HW184582   8.860   6.255   4.218  0.3402  1.4701  0.1081
26675SOL    HW284583   8.777   6.379   4.245 -2.1133 -0.2247  0.6495
26676SOL     OW84584   2.024  10.023   9.280  0.1413 -0.5676  0.4645
26676SOL    HW184585   2.110  10.021   9.238 -0.3538 -1.4482 -0.5444
26676SOL    HW284586   1.972   9.959   9.231 -1.2750  0.3971  0.6558
26677SOL     OW84587   7.809   1.144   0.289 -0.5167 -0.2761  0.2911
26677SOL    HW184588   7.777   1.067   0.240 -0.3815  1.0796 -2.0749
26677SOL    HW284589   7.895   1.118   0.320 -0.7625 -1.3402  0.1402
26678SOL     OW84590   7.072   2.995  10.344 -0.4095  0.2286 -0.4415
26678SOL    HW184591   6.980   3.019  10.350 -0.7555 -0.6189 -1.7905
26678SOL    HW284592   7.118   3.063  10.393 -1.6399  1.4590 -0.9030
26679SOL     OW84593   5.594   2.677   9.495 -0.1905  0.0266  0.4278
26679SOL    HW184594   5.533   2.749   9.479 -0.4471  0.0559  1.5219
26679SOL    HW284595   5.541   2.609   9.537  0.6297  0.2823  1.9350
26680SOL     OW84596   4.288   5.304   8.749 -0.4016 -0.3206 -0.8096
26680SOL    HW184597   4.246   5.225   8.784  1.5897 -0.7895  0.6393
26680SOL    HW284598   4.317   5.279   8.661  0.3224 -1.2672 -0.3154
26681SOL     OW84599  10.043   5.594  10.187 -0.3601  0.8898  0.0502
26681SOL    HW184600   9.989   5.523  10.151  3.1212 -2.0297  0.0080
26681SOL    HW284601  10.013   5.602  10.278 -0.1106 -1.5740  0.4365
26682SOL     OW84602   4.375   0.548   8.547  0.1590  0.0781  0.6451
26682SOL    HW184603   4.461   0.590   8.541 -0.2745  1.0202  0.9122
26682SOL    HW284604   4.340   0.577   8.631 -1.5876  1.9932 -0.6339
26683SOL     OW84605  10.857   7.528   5.189  0.0348 -0.1023  0.2408
26683SOL    HW184606  10.764   7.550   5.198 -0.8244 -2.9101 -0.7264
26683SOL    HW284607  10.873   7.530   5.095  0.5462 -1.0579  0.2986
26684SOL     OW84608   4.881  11.912   7.880  0.3453  0.0267  0.0569
26684SOL    HW184609   4.924  11.958   7.808 -0.5746  2.8619  1.2051
26684SOL    HW284610   4.797  11.956   7.891  0.1843 -0.7175  2.4631
26685SOL     OW84611  10.743   3.435   9.333 -0.1576 -0.0957  0.1462
26685SOL    HW184612  10.678   3.490   9.289  0.3254  0.9240  0.6724
26685SOL    HW284613  10.804   3.410   9.263  0.7759  1.7676  0.2303
26686SOL     OW84614   5.912   3.655   5.598 -0.7667  0.1081  0.2257
26686SOL    HW184615   5.920   3.588   5.666  0.6808  0.5201  0.5062
26686SOL    HW284616   5.840   3.711   5.627 -2.4644 -1.6621 -0.3533
26687SOL     OW84617   5.686  10.001  10.676  0.5048  0.1751  0.0287
26687SOL    HW184618   5.668  10.058  10.751  0.7072  0.4385 -0.1204
26687SOL    HW284619   5.643   9.918  10.698  0.4999  0.2740  0.4012
26688SOL     OW84620   2.495   0.151   2.493  0.3260 -0.7680 -0.0190
26688SOL    HW184621   2.418   0.112   2.535  0.7957  0.0183  1.6111
26688SOL    HW284622   2.534   0.207   2.559  1.8329 -0.4663 -1.0992
26689SOL     OW84623  11.396   5.670  10.343  0.4250 -0.0433  0.0881
26689SOL    HW184624  11.374   5.728  10.416  0.1455 -0.7802  0.6094
26689SOL    HW284625  11.478   5.705  10.308  1.1794 -0.3294  1.4947
26690SOL     OW84626   5.464   6.973   8.564 -0.1217 -0.1398 -0.0162
26690SOL    HW184627   5.532   6.929   8.513  0.7637  0.5065  0.5656
26690SOL    HW284628   5.512   7.014   8.636 -1.2814 -0.6424  1.0695
26691SOL     OW84629   3.160   6.850   2.514 -0.5649 -0.7182 -0.2778
26691SOL    HW184630   3.202   6.828   2.596 -1.9644  0.6189  0.8660
26691SOL    HW284631   3.113   6.770   2.489  2.4873 -2.2565 -1.6205
26692SOL     OW84632   3.811   1.416   3.887 -0.2004 -0.6442  0.4243
26692SOL    HW184633   3.722   1.379   3.891 -0.5646  0.2449  0.7070
26692SOL    HW284634   3.806   1.496   3.939 -0.2161  1.4482 -2.5712
26693SOL     OW84635   0.697   0.140  10.523  0.4270  0.2008  0.4444
26693SOL    HW184636   0.694   0.196  10.601  2.5817 -0.5040  1.1218
26693SOL    HW284637   0.677   0.199  10.451 -0.0049  1.2435  1.3726
26694SOL     OW84638   5.374   1.325   1.901  0.6020  0.1277 -0.6575
26694SOL    HW184639   5.286   1.320   1.863  0.1019 -2.5423  0.5865
26694SOL    HW284640   5.362   1.369   1.985  0.1665 -1.3106  0.0702
26695SOL     OW84641   9.349   2.956   6.040  0.2624  0.1689 -0.1199
26695SOL    HW184642   9.385   2.868   6.032  0.9888 -0.1190  4.0019
26695SOL    HW284643   9.256   2.946   6.020  0.2288 -1.6980  0.7410
26696SOL     OW84644   0.819   0.491   7.096 -0.2329  0.2630 -0.3664
26696SOL    HW184645   0.843   0.584   7.105 -1.7162  0.7112 -0.7535
26696SOL    HW284646   0.738   0.483   7.146 -0.0016 -0.8863 -0.1678
26697SOL     OW84647   3.308   5.047   8.805  0.0942  0.2132  0.2486
26697SOL    HW184648   3.399   5.055   8.777  0.3813 -0.8759  0.8199
26697SOL    HW284649   3.282   5.135   8.831  1.3158  0.3513  1.0432
26698SOL     OW84650   4.708  11.916   2.108  0.5517  0.0288  0.0759
26698SOL    HW184651   4.645  11.845   2.095 -0.2590  0.9200 -1.0762
26698SOL    HW284652   4.712  11.960   2.023  0.3244  1.9206  0.9923
26699SOL     OW84653   2.378   9.581   2.465 -1.1040  0.2386  0.2696
26699SOL    HW184654   2.418   9.617   2.386 -0.0962  0.0214  0.6675
26699SOL    HW284655   2.305   9.528   2.433 -0.1923 -0.5314 -0.5781
26700SOL     OW84656  11.296   6.479   4.575  0.7077 -0.6554  0.2715
26700SOL    HW184657  11.287   6.563   4.530  2.2240 -0.3532  0.4775
26700SOL    HW284658  11.326   6.418   4.508  1.5760 -0.5408  0.5439
26701SOL     OW84659   6.968   9.162   3.500 -0.4606 -0.0162  0.3373
26701SOL    HW184660   7.043   9.104   3.488 -0.9552 -0.5831 -0.0549
26701SOL    HW284661   6.899   9.123   3.448 -1.5146 -0.3808  1.9622
26702SOL     OW84662   6.922   9.402  11.692 -0.2023  0.1566 -0.0273
26702SOL    HW184663   6.979   9.381  11.766 -0.3691 -0.1180  0.0284
26702SOL    HW284664   6.928   9.497  11.683  0.0326  0.1616  0.1637
26703SOL     OW84665   7.033   4.173   5.342 -0.6929 -0.0207 -0.4869
26703SOL    HW184666   7.056   4.255   5.386 -1.0333 -0.2055  0.0381
26703SOL    HW284667   6.941   4.183   5.318 -0.5394  0.0369 -1.0719
26704SOL     OW84668   1.098  10.704   8.450 -0.2874 -0.1259  0.3162
26704SOL    HW184669   1.047  10.638   8.403 -0.1559 -1.0670  1.4339
26704SOL    HW284670   1.186  10.699   8.413 -0.2825 -0.5873  0.3812
26705SOL     OW84671   5.015   9.462   5.737  0.4985 -0.7577  0.1856
26705SOL    HW184672   5.098   9.414   5.737  0.4591 -0.8550 -0.9442
26705SOL    HW284673   4.955   9.407   5.686 -0.4533 -0.9739  1.4689
26706SOL     OW84674   1.081   8.692  11.365  0.0538  0.0535 -0.4249
26706SOL    HW184675   1.012   8.749  11.330  0.3744  0.5410 -0.2641
26706SOL    HW284676   1.075   8.613  11.312 -1.1960 -0.2559  0.1528
26707SOL     OW84677   7.924   4.592   6.543 -0.6149  0.2803  0.0225
26707SOL    HW184678   7.919   4.503   6.509 -0.7927 -0.1636  1.1734
26707SOL    HW284679   7.833   4.618   6.559 -0.5557  0.6005 -0.1567
26708SOL     OW84680  10.200   0.722  11.218  0.2538 -0.1087  0.3132
26708SOL    HW184681  10.143   0.755  11.287  1.7096  0.7401  1.1664
26708SOL    HW284682  10.271   0.678  11.265  0.8430 -0.2431 -0.6734
26709SOL     OW84683   5.037  10.388   3.123 -0.6275  0.3356 -0.2860
26709SOL    HW184684   4.967  10.356   3.066 -0.0860 -0.8047 -0.3442
26709SOL    HW284685   5.116  10.383   3.068 -0.4882  1.5903 -0.2188
26710SOL     OW84686   4.701   6.900   3.816  0.6896 -0.2271 -0.0305
26710SOL    HW184687   4.749   6.817   3.816  1.1654  0.0261  1.1630
26710SOL    HW284688   4.708   6.931   3.726  0.8988 -1.2565 -0.3884
26711SOL     OW84689   4.698   9.303   2.745 -0.0780  0.1777 -0.0676
26711SOL    HW184690   4.791   9.319   2.761  0.3236 -1.3389 -0.6740
26711SOL    HW284691   4.652   9.365   2.802  1.2860  2.2704 -1.1608
26712SOL     OW84692   9.551   3.489   4.277  0.7875 -0.3076  0.6811
26712SOL    HW184693   9.615   3.468   4.209  2.8327  0.0133  2.3829
26712SOL    HW284694   9.490   3.415   4.277  1.1459 -0.6371 -1.0075
26713SOL     OW84695   6.928  10.028   4.687  0.4096  0.0597 -0.1035
26713SOL    HW184696   6.875   9.952   4.663  0.8080  0.1149 -1.2136
26713SOL    HW284697   6.896  10.099   4.632  2.2293 -0.1405 -1.5368
26714SOL     OW84698   0.352   7.959  10.894  0.3583 -0.0058 -0.1113
26714SOL    HW184699   0.342   8.015  10.971  1.4631  0.0723 -0.0003
26714SOL    HW284700   0.444   7.971  10.868  0.0331 -0.1250 -1.3687
26715SOL     OW84701   0.703   2.777   6.660  0.3004  0.0609 -0.0182
26715SOL    HW184702   0.766   2.818   6.720  1.4097  0.1760 -1.2138
26715SOL    HW284703   0.663   2.707   6.712 -0.2504  1.4150  1.4633
26716SOL     OW84704   5.778   6.238  10.319 -0.0415 -0.0815  0.4635
26716SOL    HW184705   5.846   6.182  10.283 -0.9888 -0.4895 -0.7739
26716SOL    HW284706   5.818   6.325  10.322 -0.1902  0.1937 -2.6218
26717SOL     OW84707   7.344   2.268   3.273 -0.2149 -0.0196 -0.0059
26717SOL    HW184708   7.367   2.234   3.187 -0.6752 -0.0761 -0.1116
26717SOL    HW284709   7.248   2.259   3.278 -0.3284  1.0305  0.0486
26718SOL     OW84710  11.997   6.739   4.238 -0.3185  0.1676 -0.3720
26718SOL    HW184711  12.002   6.826   4.199 -0.5167 -0.6098 -2.2092
26718SOL    HW284712  12.083   6.724   4.275 -0.4651  1.3778  0.5318
26719SOL     OW84713   4.160  12.051   6.430 -0.4830  0.6597 -0.2139
26719SOL    HW184714   4.149  11.983   6.496  0.7496 -0.8226 -1.4728
26719SOL    HW284715   4.116  12.016   6.352  1.4153  0.6140 -1.3057
26720SOL     OW84716   4.289   3.264   7.168  0.2877 -0.4061  0.4527
26720SOL    HW184717   4.203   3.251   7.127  0.0438 -0.2105  0.8912
26720SOL    HW284718   4.274   3.245   7.260  0.4219  0.8670  0.7555
26721SOL     OW84719   9.942  12.095   0.845 -0.0850 -0.1439 -0.3760
26721SOL    HW184720  10.013  12.067   0.904 -0.4682  0.3994  0.3540
26721SOL    HW284721   9.901  12.013   0.818  0.0623 -0.4054  0.1653
26722SOL     OW84722   6.599  11.819  10.499  0.3359 -0.0744 -0.1651
26722SOL    HW184723   6.585  11.779  10.413 -2.0671 -3.4309  1.5418
26722SOL    HW284724   6.691  11.803  10.518  1.0505  1.1845 -2.2296
26723SOL     OW84725   7.635   0.156   8.320  0.2628  0.1144 -0.5263
26723SOL    HW184726   7.558   0.207   8.293 -0.6535 -0.7025  0.4724
26723SOL    HW284727   7.622   0.139   8.413  0.3947 -2.1460 -0.8603
26724SOL     OW84728   6.546  10.455   6.501 -0.0812  0.0265 -0.1281
26724SOL    HW184729   6.495  10.466   6.581 -0.0412  0.3505 -0.1461
26724SOL    HW284730   6.496  10.392   6.449 -1.0381  1.1469 -0.6149
26725SOL     OW84731   7.570  10.537  10.160 -0.0669  0.2565  0.4399
26725SOL    HW184732   7.599  10.627  10.142 -1.4059  1.0790  2.1488
26725SOL    HW284733   7.603  10.518  10.247 -0.7267 -0.4983  0.5332
26726SOL     OW84734  11.822   8.744   2.223  0.3444 -0.5271 -0.5880
26726SOL    HW184735  11.745   8.729   2.169  1.0858 -0.1272 -1.8101
26726SOL    HW284736  11.826   8.839   2.233  0.0594 -0.6125  0.4326
26727SOL     OW84737   7.977   1.756   5.233  0.9132 -0.3837  0.6950
26727SOL    HW184738   8.061   1.799   5.216  0.5100  0.7119  1.4081
26727SOL    HW284739   7.913   1.827   5.232  0.1598 -1.0345  1.4044
26728SOL     OW84740   7.920   4.187   4.775  0.0788  0.3826  0.1060
26728SOL    HW184741   7.917   4.282   4.770 -1.0603  0.3658  0.2570
26728SOL    HW284742   7.976   4.168   4.850  2.3211  0.8820 -1.3569
26729SOL     OW84743  10.437   2.949   3.769 -0.1756 -0.2373  0.8175
26729SOL    HW184744  10.402   2.859   3.777 -0.7803 -0.1256 -0.3790
26729SOL    HW284745  10.521   2.938   3.726 -1.3493 -0.0813 -1.6754
26730SOL     OW84746  12.082   8.459   9.024 -0.0994  0.0691 -0.3192
26730SOL    HW184747  12.019   8.390   9.004  1.3311 -1.0280 -1.3086
26730SOL    HW284748  12.163   8.412   9.046  0.1642  1.4031  1.8859
26731SOL     OW84749   6.653   0.634  11.376  0.3506 -0.4697  0.6458
26731SOL    HW184750   6.615   0.722  11.380 -0.9967 -1.0607  1.1002
26731SOL    HW284751   6.739   0.644  11.418  0.1853  0.6024  0.7698
26732SOL     OW84752   0.131   8.887  11.575 -0.2307 -0.0902  0.3895
26732SOL    HW184753   0.041   8.882  11.607  0.2430 -1.7580  1.6411
26732SOL    HW284754   0.168   8.801  11.596  0.9371 -0.3678 -2.3585
26733SOL     OW84755   4.732   0.722  11.541 -0.1170  0.2422 -1.0080
26733SOL    HW184756   4.663   0.701  11.604  2.1394 -1.1307  1.2315
26733SOL    HW284757   4.695   0.702  11.456 -2.3497 -0.7678  0.1273
26734SOL     OW84758   5.656  11.379   0.633 -0.0566  0.6671 -0.0486
26734SOL    HW184759   5.605  11.403   0.710  0.2252  0.2018  0.2942
26734SOL    HW284760   5.592  11.352   0.568 -0.2514  0.1506  0.3558
26735SOL     OW84761   7.563   1.591   6.187 -0.0931  0.3220 -0.3035
26735SOL    HW184762   7.497   1.592   6.118 -0.1467 -1.6381 -0.3437
26735SOL    HW284763   7.646   1.595   6.140 -0.1127 -1.5112 -0.5810
26736SOL     OW84764   3.438   5.979   6.748  0.0020 -0.3727 -0.1455
26736SOL    HW184765   3.345   5.993   6.760  0.2722  1.0509  0.4709
26736SOL    HW284766   3.473   5.968   6.836  0.4486 -0.7082 -0.3585
26737SOL     OW84767   3.310   1.360   1.558 -0.6912  0.3880 -0.0952
26737SOL    HW184768   3.299   1.455   1.551 -0.0020  0.5272  0.6255
26737SOL    HW284769   3.244   1.324   1.498 -0.6273  1.3279 -0.7517
26738SOL     OW84770   8.927   8.913   1.619 -0.3253 -0.0938 -0.1386
26738SOL    HW184771   8.891   8.899   1.532 -0.3480 -1.1449  0.0358
26738SOL    HW284772   8.849   8.921   1.675 -0.3126  0.6759 -0.2118
26739SOL     OW84773   8.963   8.832   4.040  0.0466  0.3100 -0.0536
26739SOL    HW184774   9.023   8.899   4.074 -0.4887  0.0076  1.5863
26739SOL    HW284775   9.018   8.755   4.026  0.0732 -0.0040  1.5532
26740SOL     OW84776   5.776   1.060   1.773 -0.0012 -0.2349 -0.3690
26740SOL    HW184777   5.691   1.074   1.730 -0.2697 -0.4496  0.0928
26740SOL    HW284778   5.765   0.981   1.825  0.0377  0.5190  0.8159
26741SOL     OW84779   6.876   6.028   0.879 -0.0965  0.0694 -0.1772
26741SOL    HW184780   6.902   5.954   0.824 -0.3464 -0.1079 -0.0631
26741SOL    HW284781   6.795   5.998   0.921 -0.2314  0.4342 -0.1775
26742SOL     OW84782   8.841   8.770   7.014  0.0953 -0.1208  0.2904
26742SOL    HW184783   8.855   8.721   7.095  0.2342  0.1047  0.4039
26742SOL    HW284784   8.830   8.703   6.947 -1.8443 -0.3435  0.7825
26743SOL     OW84785   5.367   9.831   8.770  0.4443 -0.1131  0.4512
26743SOL    HW184786   5.454   9.793   8.756  0.4673  0.4680 -1.1007
26743SOL    HW284787   5.307   9.760   8.747  0.4991  0.3910 -1.3425
26744SOL     OW84788   2.946  10.480   5.426 -0.0282 -0.0900 -0.0623
26744SOL    HW184789   3.014  10.413   5.420  1.3579  1.1839  0.7421
26744SOL    HW284790   2.881  10.454   5.361  0.6163 -2.0239  0.0105
26745SOL     OW84791   7.647   8.462   7.349 -0.2660 -0.1890 -0.1311
26745SOL    HW184792   7.552   8.458   7.361 -0.3771  1.1556 -0.4775
26745SOL    HW284793   7.678   8.376   7.379 -1.6630 -0.9478 -0.7334
26746SOL     OW84794  10.857  10.669   6.178  0.2620  0.4131  0.0376
26746SOL    HW184795  10.868  10.756   6.216  1.6683  0.1406  0.3047
26746SOL    HW284796  10.800  10.683   6.102  0.8454  1.6443 -0.1986
26747SOL     OW84797   1.247   0.080   3.833  0.0582 -0.3232 -0.4907
26747SOL    HW184798   1.178   0.032   3.786 -0.4035  1.3669 -1.6498
26747SOL    HW284799   1.324   0.025   3.825 -0.7220 -1.4196 -0.7480
26748SOL     OW84800   8.682  10.427   0.135  0.7976 -0.2817 -0.3409
26748SOL    HW184801   8.654  10.444   0.045  0.4220 -0.3444 -0.2369
26748SOL    HW284802   8.676  10.332   0.144 -0.1525 -0.1847  0.0724
26749SOL     OW84803   1.738   1.208   9.392  0.3628 -0.3301 -0.0187
26749SOL    HW184804   1.774   1.207   9.480  0.7700  1.9966 -0.1108
26749SOL    HW284805   1.669   1.142   9.394  1.1500 -1.1564  1.6725
26750SOL     OW84806   9.127   1.527   9.086 -0.2517  0.8545  0.0904
26750SOL    HW184807   9.079   1.483   9.157  1.2707 -0.2144  0.5049
26750SOL    HW284808   9.073   1.512   9.008  0.3879 -2.2861  0.0906
26751SOL     OW84809   2.998   1.074   3.857 -0.7115  0.1629 -0.3548
26751SOL    HW184810   2.984   1.168   3.854 -1.4486  0.0932  0.5068
26751SOL    HW284811   3.051   1.055   3.779 -0.1600  1.3409 -0.2822
26752SOL     OW84812   5.062  12.117  11.973  0.5096 -0.4238  0.4300
26752SOL    HW184813   5.148  12.152  11.948  0.9936 -1.7437  0.1710
26752SOL    HW284814   5.082  12.046  12.034 -0.4991  0.3576  1.7101
26753SOL     OW84815   1.998   6.831  10.339 -0.0396  0.3962 -0.3467
26753SOL    HW184816   1.976   6.915  10.380  0.4119  0.0376  0.6708
26753SOL    HW284817   2.091   6.819  10.358  0.1745  0.1763 -1.4458
26754SOL     OW84818   8.469   6.495   5.041  0.0841  0.6152 -0.2785
26754SOL    HW184819   8.461   6.460   4.952  0.2333  0.5188 -0.2554
26754SOL    HW284820   8.555   6.465   5.071  0.5083  1.5775 -0.5033
26755SOL     OW84821   3.382   8.493   2.087 -0.7141  0.7124 -0.0909
26755SOL    HW184822   3.408   8.569   2.139 -2.6447  1.6704 -0.4554
26755SOL    HW284823   3.465   8.449   2.066  0.4272  2.5567  0.3440
26756SOL     OW84824   0.475   6.925   2.163 -0.1930  0.4474 -0.1832
26756SOL    HW184825   0.412   6.855   2.179  1.4102 -1.0642 -0.2068
26756SOL    HW284826   0.488   6.925   2.068 -0.8478  1.4004 -0.2840
26757SOL     OW84827   8.585   1.646   0.715 -0.5866  0.0480  0.3008
26757SOL    HW184828   8.512   1.682   0.765  0.0534  1.2035  0.4341
26757SOL    HW284829   8.594   1.705   0.640  1.7775  1.4667  1.5797
26758SOL     OW84830   8.519   0.688  11.153 -0.3145  0.2697  0.2335
26758SOL    HW184831   8.450   0.704  11.088 -1.0637 -1.2913  0.5962
26758SOL    HW284832   8.526   0.770  11.201  1.0417  1.8828 -2.4651
26759SOL     OW84833   8.477   1.561  10.909  0.6431  0.3548  0.1769
26759SOL    HW184834   8.460   1.476  10.948  1.2191  0.6026  0.9828
26759SOL    HW284835   8.390   1.601  10.901  0.3797 -0.2586 -0.1115
26760SOL     OW84836   9.396   9.551  10.161 -0.1395 -0.3629  0.3439
26760SOL    HW184837   9.478   9.552  10.210  0.5587  0.1143 -0.7968
26760SOL    HW284838   9.417   9.593  10.077 -1.2243 -1.3903 -0.4797
26761SOL     OW84839  10.650   9.822   0.764  0.4702 -1.1633  0.5764
26761SOL    HW184840  10.740   9.791   0.753  0.2330 -1.6056 -0.1736
26761SOL    HW284841  10.638   9.824   0.859  1.4224 -0.6250  0.7031
26762SOL     OW84842   0.891   9.946  12.070 -0.0812 -0.5998 -0.2236
26762SOL    HW184843   0.924   9.913  12.154  1.7180 -2.3507 -1.5290
26762SOL    HW284844   0.819   9.887  12.048 -1.9017  1.0722  0.9510
26763SOL     OW84845   8.292   6.956   5.141  0.0816 -0.2677 -0.1090
26763SOL    HW184846   8.198   6.965   5.124  0.1529  1.0185  0.1003
26763SOL    HW284847   8.334   7.008   5.073  0.5914  0.1808  0.5438
26764SOL     OW84848   2.126   9.083   0.948 -0.8083 -0.3519  0.2432
26764SOL    HW184849   2.064   9.010   0.953  0.3844 -1.4227  0.0031
26764SOL    HW284850   2.157   9.081   0.857  0.7450 -0.8580  0.7550
26765SOL     OW84851   2.015   1.691   4.275 -0.4710 -0.8123  0.1002
26765SOL    HW184852   1.973   1.610   4.303 -0.8384 -0.6507  0.0161
26765SOL    HW284853   2.087   1.703   4.338 -1.0770 -0.6388  0.7746
26766SOL     OW84854   6.757   4.932  12.019 -0.1227  0.3025 -0.3156
26766SOL    HW184855   6.674   4.981  12.026  0.0157  0.3928  0.9934
26766SOL    HW284856   6.793   4.958  11.935 -1.8856 -0.4785 -1.3687
26767SOL     OW84857   5.790  11.619   0.691  0.5329 -0.1669 -0.1000
26767SOL    HW184858   5.757  11.563   0.620  0.6194 -1.4048  0.7944
26767SOL    HW284859   5.759  11.576   0.771  3.7929 -1.1290  0.7839
26768SOL     OW84860   4.959   1.895   9.039 -0.2654 -0.1484 -0.0078
26768SOL    HW184861   4.906   1.825   9.078 -1.8799  1.3347  0.5781
26768SOL    HW284862   5.043   1.889   9.084 -0.3632 -1.6733  0.0422
26769SOL     OW84863  11.871   6.244  10.614 -0.0752  0.5051 -0.1211
26769SOL    HW184864  11.856   6.337  10.603 -1.5512  0.2820 -0.1585
26769SOL    HW284865  11.830   6.203  10.538 -1.3266 -0.2983  0.9262
26770SOL     OW84866   1.785   1.367  11.526  0.0211  0.0520  0.1567
26770SOL    HW184867   1.752   1.454  11.505  0.1020 -0.1217 -0.7596
26770SOL    HW284868   1.731   1.308  11.472  1.7535 -0.2490 -1.3543
26771SOL     OW84869   9.549   9.151   7.691 -0.2095  0.0223  0.3885
26771SOL    HW184870   9.592   9.068   7.707  0.6942  0.1751 -1.0800
26771SOL    HW284871   9.483   9.158   7.761  1.2824 -0.7908  1.9556
26772SOL     OW84872   8.451   6.240   0.232  0.1076  0.2867 -0.2154
26772SOL    HW184873   8.404   6.311   0.276  0.0221 -0.1660  0.4447
26772SOL    HW284874   8.521   6.216   0.293  0.5563  0.2577 -0.7328
26773SOL     OW84875   4.131   1.693   6.752 -0.2556 -0.7882 -0.4162
26773SOL    HW184876   4.049   1.717   6.709 -0.0498  0.8009  0.0143
26773SOL    HW284877   4.190   1.669   6.680  0.1741  2.0883 -1.1263
26774SOL     OW84878   3.398   0.543   2.603  0.2386 -0.6195 -0.3545
26774SOL    HW184879   3.389   0.452   2.576  0.1383 -1.5434  2.4899
26774SOL    HW284880   3.308   0.573   2.617  0.3231 -0.5936  0.1710
26775SOL     OW84881  10.692   5.953   5.246  0.2463  0.5238 -0.2265
26775SOL    HW184882  10.726   5.967   5.157  1.2251 -0.4339 -0.0327
26775SOL    HW284883  10.763   5.983   5.304  0.5110 -0.8452  0.1936
26776SOL     OW84884   5.686  11.093   2.379 -0.4571  0.4766  0.1792
26776SOL    HW184885   5.609  11.076   2.433  0.0045 -0.3606  0.5860
26776SOL    HW284886   5.740  11.015   2.389 -0.5021  0.1578 -1.7549
26777SOL     OW84887   4.541   3.753  11.705  0.1277  0.3115  0.0773
26777SOL    HW184888   4.591   3.815  11.757  0.8129 -0.8981  0.9224
26777SOL    HW284889   4.604   3.685  11.682 -0.9560 -0.9501  0.6682
26778SOL     OW84890  10.200   1.261   1.218 -0.4877 -0.1125 -0.0214
26778SOL    HW184891  10.114   1.266   1.260 -0.4596 -0.1810  0.0432
26778SOL    HW284892  10.189   1.308   1.136 -0.6968 -0.4768 -0.2013
26779SOL     OW84893  11.871   9.992   2.529 -0.6883  0.2658  0.4379
26779SOL    HW184894  11.818  10.035   2.596 -1.7905 -1.2128  0.5736
26779SOL    HW284895  11.962  10.008   2.556 -1.0958  0.6809  1.6358
26780SOL     OW84896  10.818  11.700   5.809  0.0632 -0.4707  0.4981
26780SOL    HW184897  10.857  11.758   5.745 -2.8464  0.4832 -0.5476
26780SOL    HW284898  10.809  11.753   5.888 -0.6532 -0.1419  0.2021
26781SOL     OW84899   3.417   8.407   3.045  0.0555 -0.4776 -0.7930
26781SOL    HW184900   3.477   8.475   3.015  0.6538 -0.7574 -0.2479
26781SOL    HW284901   3.354   8.453   3.101  1.5172 -0.6126  1.0506
26782SOL     OW84902   9.743   6.395  10.140  0.4039  0.5081  0.0859
26782SOL    HW184903   9.674   6.428  10.082  0.3522 -0.5265 -0.4737
26782SOL    HW284904   9.738   6.300  10.131  2.5824  0.4187 -0.7698
26783SOL     OW84905   4.274   1.194   8.353  0.1308  0.0190 -0.1878
26783SOL    HW184906   4.345   1.172   8.412  1.2747  0.5488 -1.3140
26783SOL    HW284907   4.276   1.125   8.286 -2.2593 -1.5660  1.2371
26784SOL     OW84908   5.637   6.946   7.662  0.0525  0.6020  0.4709
26784SOL    HW184909   5.623   6.909   7.748  0.6332  1.6293  1.0336
26784SOL    HW284910   5.703   6.890   7.622  0.3684  0.5825  1.0102
26785SOL     OW84911   1.291   0.629   7.808  0.5987 -0.4455  0.0919
26785SOL    HW184912   1.245   0.704   7.845  1.5536 -0.4251  1.2916
26785SOL    HW284913   1.325   0.661   7.724 -2.2996 -0.7430 -1.3241
26786SOL     OW84914   1.259  10.802   6.281  0.5651  0.0747  0.0857
26786SOL    HW184915   1.285  10.714   6.310  1.0042 -0.0988 -0.8050
26786SOL    HW284916   1.222  10.788   6.194 -0.8874  0.5618  0.5960
26787SOL     OW84917   7.377   3.055   4.657 -0.2510 -0.0068 -0.1872
26787SOL    HW184918   7.439   3.110   4.608 -1.0706  0.1788 -1.0440
26787SOL    HW284919   7.325   3.118   4.708  0.7690 -0.2139  1.1807
26788SOL     OW84920   1.828   5.028  10.455  0.0649 -0.2079 -0.3444
26788SOL    HW184921   1.751   5.004  10.405  0.1733 -0.4059 -0.4148
26788SOL    HW284922   1.856   5.111  10.416 -0.4399  0.1520  0.0511
26789SOL     OW84923   0.426   1.332  11.390 -0.3976 -0.0649  0.3133
26789SOL    HW184924   0.451   1.271  11.320  2.8629  0.2901  1.0188
26789SOL    HW284925   0.450   1.419  11.356  2.3970  0.0211  2.1573
26790SOL     OW84926   7.881   2.299   4.754 -0.5520  0.5672 -0.1604
26790SOL    HW184927   7.794   2.320   4.788 -0.2817 -1.1093  1.7897
26790SOL    HW284928   7.872   2.210   4.720  0.7814 -0.4357  1.8831
26791SOL     OW84929  10.740   9.952   5.152  0.1898  0.0618 -0.1053
26791SOL    HW184930  10.645   9.939   5.153  0.1205  0.5233  1.2179
26791SOL    HW284931  10.776   9.863   5.158 -0.1126 -0.1968 -1.5863
26792SOL     OW84932   8.903   3.366   2.160 -0.0928  0.3733 -0.4520
26792SOL    HW184933   8.822   3.323   2.187 -0.1202  0.7652  0.0952
26792SOL    HW284934   8.880   3.458   2.151 -0.1200  0.2334 -1.9745
26793SOL     OW84935   0.540   0.801   0.232 -0.1590 -0.0697  0.0255
26793SOL    HW184936   0.564   0.732   0.294 -1.1582 -0.8706 -0.4400
26793SOL    HW284937   0.623   0.839   0.204  0.3286 -0.0095  1.4902
26794SOL     OW84938   3.266   3.928   1.236  0.4056  0.2021 -0.1730
26794SOL    HW184939   3.262   3.847   1.287  1.9742  0.7041  0.7924
26794SOL    HW284940   3.301   3.901   1.151  0.0628 -0.2677 -0.1686
26795SOL     OW84941   5.198   5.437   9.185  0.6336 -0.0898  0.0914
26795SOL    HW184942   5.152   5.452   9.268 -1.5409 -0.0506 -1.0633
26795SOL    HW284943   5.256   5.362   9.203  0.0668 -0.2032  1.5765
26796SOL     OW84944   9.963   3.428   1.960  0.0944 -0.1303  0.8135
26796SOL    HW184945  10.048   3.470   1.968  0.6843 -1.3195  1.0319
26796SOL    HW284946   9.983   3.339   1.932 -1.1990  0.2370 -1.5844
26797SOL     OW84947  10.786   7.330   7.514  0.0361 -0.6560  0.0826
26797SOL    HW184948  10.877   7.321   7.541  0.0264 -0.0163  0.3555
26797SOL    HW284949  10.735   7.297   7.588  0.0548 -1.9114 -0.4535
26798SOL     OW84950   0.320   3.351   3.812  0.5289  0.3272  0.3525
26798SOL    HW184951   0.271   3.367   3.893 -1.4933  0.4155 -0.8253
26798SOL    HW284952   0.279   3.273   3.774  0.2613  1.2874 -1.4442
26799SOL     OW84953   3.434   3.868   3.682 -0.8375  0.2889 -1.0013
26799SOL    HW184954   3.502   3.925   3.648  0.3134 -0.2920  0.2434
26799SOL    HW284955   3.370   3.928   3.723  0.1475  0.7394 -0.0648
26800SOL     OW84956   6.932   6.624   0.070 -0.2162  0.0881  0.1759
26800SOL    HW184957   7.000   6.677   0.026 -0.0159  0.2823  0.7134
26800SOL    HW284958   6.958   6.534   0.053  0.2462  0.1601  0.4812
26801SOL     OW84959   4.346   0.554   2.675 -0.4680  0.6971 -0.4665
26801SOL    HW184960   4.294   0.625   2.713  1.5320  1.4080  1.0914
26801SOL    HW284961   4.437   0.582   2.685  0.3055 -0.0244 -4.0405
26802SOL     OW84962   1.778   8.824   9.218  0.7283  0.6213 -0.4578
26802SOL    HW184963   1.720   8.865   9.154  0.3679 -0.6682 -0.9762
26802SOL    HW284964   1.829   8.761   9.168  1.6317  0.7736  0.2407
26803SOL     OW84965   6.962   6.549   8.525 -0.0291 -0.3054  0.2949
26803SOL    HW184966   6.866   6.548   8.525 -0.0708 -0.8744 -1.6668
26803SOL    HW284967   6.986   6.576   8.613 -1.9607 -2.5676  1.6267
26804SOL     OW84968  12.077   8.931   6.442 -0.4026  0.2886 -0.1117
26804SOL    HW184969  12.026   8.873   6.385 -0.5776  0.9327 -0.6310
26804SOL    HW284970  12.083   8.884   6.525 -0.3809 -0.5496 -0.5712
26805SOL     OW84971   9.450   2.770   4.751  0.2319  0.3726  0.2482
26805SOL    HW184972   9.538   2.804   4.731  0.0611 -0.1433 -1.4917
26805SOL    HW284973   9.431   2.709   4.680 -1.2304 -0.1207  1.0323
26806SOL     OW84974   8.026  12.042   5.557 -0.6192  0.1864 -0.6497
26806SOL    HW184975   7.960  12.109   5.573 -0.6614  0.5470 -2.1444
26806SOL    HW284976   8.102  12.070   5.608 -1.7448 -0.5308  1.5394
26807SOL     OW84977   2.525   7.266   5.759  0.1443  0.6710  0.5347
26807SOL    HW184978   2.550   7.230   5.674 -0.1342  0.3689  0.5817
26807SOL    HW284979   2.598   7.244   5.817  1.5607  3.0867 -0.1966
26808SOL     OW84980   9.155   5.825   2.034 -0.4377  0.2233 -0.4334
26808SOL    HW184981   9.154   5.910   2.079  0.0289 -1.0289  2.1001
26808SOL    HW284982   9.089   5.773   2.079  1.3681 -1.7007  0.1714
26809SOL     OW84983   0.025   1.283  11.256  0.2695  0.9445 -0.4211
26809SOL    HW184984   0.033   1.368  11.300  2.8211  1.4365 -1.6595
26809SOL    HW284985   0.087   1.226  11.302 -2.2078 -0.6788  1.1237
26810SOL     OW84986   3.736   7.020  10.886 -0.0302 -0.4555  0.2497
26810SOL    HW184987   3.802   7.089  10.879 -1.1000  0.4913 -0.9355
26810SOL    HW284988   3.785   6.939  10.873  1.0258  0.1555  0.2662
26811SOL     OW84989   6.290   3.776   6.259 -0.4271 -0.6387 -0.4251
26811SOL    HW184990   6.360   3.769   6.324 -1.0599  0.9608  0.4777
26811SOL    HW284991   6.257   3.686   6.250  1.1202 -1.2621 -0.1962
26812SOL     OW84992   4.945   4.846   3.384 -0.4347  0.0821  0.2966
26812SOL    HW184993   4.902   4.767   3.352  2.0879 -0.7150 -1.4987
26812SOL    HW284994   4.874   4.906   3.405 -2.3964 -1.9422 -0.1714
26813SOL     OW84995   5.793   7.962   5.627 -0.2574 -0.6639  0.6756
26813SOL    HW184996   5.777   7.874   5.660 -0.1927 -0.5943  0.8909
26813SOL    HW284997   5.808   8.016   5.705  0.6215 -0.6402  0.5055
26814SOL     OW84998   0.033   7.403   4.997  0.2556  0.0085 -0.3537
26814SOL    HW184999  -0.036   7.342   4.969 -0.0103 -0.2474  0.8004
26814SOL    HW285000  -0.012   7.463   5.056  0.4906  1.4116 -1.5565
26815SOL     OW85001   8.102   8.018   9.859 -0.3342 -0.3695 -0.0336
26815SOL    HW185002   8.156   8.078   9.808 -2.4860  2.8042  1.1205
26815SOL    HW285003   8.039   7.982   9.796 -0.9151  1.0064 -0.2841
26816SOL     OW85004   7.303   8.981  11.880  0.5881 -0.3101 -0.0516
26816SOL    HW185005   7.217   8.940  11.875  0.9616 -1.0185 -1.1688
26816SOL    HW285006   7.286   9.070  11.911 -0.5632 -0.3904 -0.4134
26817SOL     OW85007   7.044   4.366   2.300  0.2052 -0.4477 -0.3268
26817SOL    HW185008   7.047   4.426   2.226  0.4540 -1.4387 -1.1501
26817SOL    HW285009   7.136   4.356   2.326  0.0811  0.2330  0.4113
26818SOL     OW85010   0.849   0.638   2.559  0.4118  0.6730 -0.2357
26818SOL    HW185011   0.841   0.731   2.540 -0.0885  0.3755 -1.5616
26818SOL    HW285012   0.830   0.594   2.476  1.0101 -0.6033  0.2670
26819SOL     OW85013   2.503   1.032  11.862 -0.5746 -0.3580  0.0844
26819SOL    HW185014   2.528   1.012  11.772  3.1520  0.6720  0.7215
26819SOL    HW285015   2.513   0.949  11.908  0.2831 -0.3048  0.0162
26820SOL     OW85016   6.119  11.467  10.738 -0.6136 -0.1145 -0.7706
26820SOL    HW185017   6.146  11.400  10.800  1.9227  1.0560 -0.4397
26820SOL    HW285018   6.070  11.531  10.790  1.7698  1.0205  0.2365
26821SOL     OW85019   2.502   8.457  10.364 -0.5858  0.2084 -0.1590
26821SOL    HW185020   2.465   8.527  10.309 -1.2972  0.1086  0.1748
26821SOL    HW285021   2.589   8.441  10.328  0.1012  2.1484  0.5510
26822SOL     OW85022   1.891  11.481   5.016 -0.5563  0.0859 -0.1263
26822SOL    HW185023   1.861  11.511   4.930 -0.4928  0.7187  0.0722
26822SOL    HW285024   1.883  11.386   5.012 -1.8327  0.1975 -0.3534
26823SOL     OW85025   8.803   5.374   8.122  0.6840 -0.2998 -0.3428
26823SOL    HW185026   8.758   5.435   8.180  1.3746  0.6570 -0.7630
26823SOL    HW285027   8.853   5.431   8.063  1.0799 -1.2761 -0.9760
26824SOL     OW85028   0.479   0.003   2.712 -0.0002  0.3176  0.3183
26824SOL    HW185029   0.541   0.050   2.767 -0.1372 -0.0566  0.8094
26824SOL    HW285030   0.504  -0.089   2.721 -0.9568  0.0994  0.9740
26825SOL     OW85031   4.797   7.951   3.876  0.3418  0.1084 -0.1086
26825SOL    HW185032   4.832   7.995   3.953  1.3874 -3.2209  1.5085
26825SOL    HW285033   4.702   7.965   3.882  0.5745  1.5407  0.6685
26826SOL     OW85034   6.894   6.044  10.706  0.3370 -0.3598  0.2235
26826SOL    HW185035   6.964   6.093  10.662 -0.0177 -0.1817 -0.1509
26826SOL    HW285036   6.858   5.989  10.637 -1.1537  0.9363 -0.0843
26827SOL     OW85037   2.624  10.162   7.779  0.0168  0.1766 -0.1187
26827SOL    HW185038   2.719  10.157   7.784  0.1618  1.4123 -1.0811
26827SOL    HW285039   2.607  10.205   7.695 -1.4689 -2.4232 -1.3046
26828SOL     OW85040  10.016   7.698  11.011 -0.1475  0.2340 -0.0233
26828SOL    HW185041   9.987   7.760  11.077  1.2091  1.5155 -0.5829
26828SOL    HW285042   9.935   7.658  10.978 -0.9312  0.5408  1.4285
26829SOL     OW85043   5.148   8.382   2.012 -0.3431  0.2311 -0.1832
26829SOL    HW185044   5.239   8.386   1.981  0.5400  0.9063  2.2762
26829SOL    HW285045   5.096   8.403   1.934  1.6358  0.7465 -1.4549
26830SOL     OW85046  11.419   8.161   1.405  0.2769 -0.1200 -0.1604
26830SOL    HW185047  11.399   8.251   1.432 -0.6607 -1.0256  2.4433
26830SOL    HW285048  11.381   8.154   1.317  0.6068  2.0798 -0.5330
26831SOL     OW85049   6.330   4.156  11.668  0.6125  0.3654 -0.6005
26831SOL    HW185050   6.236   4.137  11.661  0.4328  0.4424  1.2582
26831SOL    HW285051   6.339   4.243  11.629  0.1330 -0.1048 -1.8318
26832SOL     OW85052   8.161   1.489   4.532  0.1038  0.4305 -0.7898
26832SOL    HW185053   8.244   1.479   4.578 -0.6040 -2.5497  0.0574
26832SOL    HW285054   8.181   1.472   4.440  0.5820  0.7444 -0.7434
26833SOL     OW85055  11.078   8.343   3.806  0.3770  0.7070 -0.0770
26833SOL    HW185056  11.073   8.267   3.865 -0.5911  0.6563 -0.2221
26833SOL    HW285057  11.104   8.306   3.722  0.8187  0.6634  0.0712
26834SOL     OW85058   4.446   1.486  11.845 -0.2574 -0.4287  0.4838
26834SOL    HW185059   4.431   1.434  11.766 -2.1297 -0.8376  1.0621
26834SOL    HW285060   4.445   1.423  11.917  2.1330 -0.1551  0.8231
26835SOL     OW85061  12.117   9.767   8.327  0.0609  0.5838  0.3754
26835SOL    HW185062  12.051   9.722   8.275  0.9921  0.3153 -0.6092
26835SOL    HW285063  12.150   9.702   8.388  1.4297 -0.1405 -1.0674
26836SOL     OW85064   9.136   7.459   2.547  0.5137 -0.3413 -0.4436
26836SOL    HW185065   9.148   7.539   2.496  2.3987  0.7188  1.4904
26836SOL    HW285066   9.133   7.489   2.638  2.4590 -2.4877  0.4442
26837SOL     OW85067   9.843   8.516   3.981 -0.3182  0.4232 -0.8546
26837SOL    HW185068   9.902   8.503   4.055 -0.0856  0.8703 -0.9575
26837SOL    HW285069   9.890   8.479   3.906 -0.5875 -0.1020 -0.7657
26838SOL     OW85070   5.790   2.593   5.971 -0.2635  0.8773 -0.1871
26838SOL    HW185071   5.750   2.520   5.924  0.8716  0.2178 -0.1714
26838SOL    HW285072   5.838   2.552   6.043  0.8503  1.5726 -0.5084
26839SOL     OW85073  11.862   7.481  11.645 -0.1897  0.9635  0.9340
26839SOL    HW185074  11.791   7.532  11.684 -1.0663  2.2456 -2.0697
26839SOL    HW285075  11.882   7.525  11.562  4.3321  0.7946  1.6710
26840SOL     OW85076   9.063   1.410  11.110 -0.6676  0.0505  0.4356
26840SOL    HW185077   9.012   1.426  11.190 -1.2613  4.6862 -0.5942
26840SOL    HW285078   9.154   1.417  11.138 -0.7631 -1.0658  1.0905
26841SOL     OW85079   2.000   1.963   7.523  0.2943 -0.4627  0.2422
26841SOL    HW185080   1.942   2.038   7.538  1.6396  0.5871  0.3752
26841SOL    HW285081   2.074   1.978   7.581 -0.2990 -2.9795  1.8015
26842SOL     OW85082   3.198   9.621   8.844 -0.0613  0.2484 -0.1443
26842SOL    HW185083   3.186   9.577   8.760 -1.1202 -0.0635  0.1544
26842SOL    HW285084   3.291   9.612   8.863 -0.0922 -1.0465 -0.5339
26843SOL     OW85085   1.822   6.441   7.783 -0.3111 -0.1142  0.1125
26843SOL    HW185086   1.871   6.489   7.850  1.1694 -1.7076  0.2569
26843SOL    HW285087   1.815   6.352   7.819 -0.6021 -0.6843 -1.2948
26844SOL     OW85088   5.134   8.584   8.134 -0.3533 -0.1397  0.3238
26844SOL    HW185089   5.100   8.525   8.201 -1.0141  0.0655  0.1736
26844SOL    HW285090   5.069   8.654   8.128  1.3817  1.7037  1.9159
26845SOL     OW85091   1.951   3.178   5.774  0.0193 -0.3105  0.2223
26845SOL    HW185092   1.889   3.107   5.788 -0.9248 -0.1783 -2.5618
26845SOL    HW285093   2.023   3.137   5.725  0.4416  0.2431  0.3725
26846SOL     OW85094   3.911   8.178   5.730  0.2588 -0.1020  0.0097
26846SOL    HW185095   3.958   8.114   5.783  1.2138 -0.2500 -0.9771
26846SOL    HW285096   3.916   8.259   5.781  0.9479 -0.2966  0.2630
26847SOL     OW85097   4.534   1.718   1.870 -0.1610  0.2380 -0.0758
26847SOL    HW185098   4.445   1.685   1.860  0.0608  0.0877 -1.9133
26847SOL    HW285099   4.565   1.732   1.780  1.0414  2.0054  0.5617
26848SOL     OW85100  11.935   4.418   4.382  0.5058 -0.0834 -0.2298
26848SOL    HW185101  11.986   4.338   4.369  1.6324  0.6598 -0.4864
26848SOL    HW285102  11.855   4.388   4.425  1.1093 -1.2970  0.1001
26849SOL     OW85103   4.512  11.738   4.574 -0.8055  0.2795 -0.0445
26849SOL    HW185104   4.543  11.650   4.594  0.2376  0.7364  0.4458
26849SOL    HW285105   4.462  11.764   4.651 -2.5130 -0.4614 -0.8407
26850SOL     OW85106   9.074   4.278   2.695 -0.7091 -0.0174  0.4648
26850SOL    HW185107   9.074   4.278   2.791 -1.4429 -0.2935  0.4751
26850SOL    HW285108   9.004   4.339   2.671 -0.4073  0.1917  0.0966
26851SOL     OW85109  10.324  10.405   5.273  0.0635  0.1678  0.2571
26851SOL    HW185110  10.366  10.326   5.239  0.7148  1.2414 -1.5818
26851SOL    HW285111  10.281  10.376   5.354 -1.6476 -2.6079 -1.4433
26852SOL     OW85112   7.961   3.333   6.366  0.3505  0.7039 -0.2305
26852SOL    HW185113   7.939   3.246   6.399 -1.3613 -0.2307 -3.4172
26852SOL    HW285114   7.976   3.386   6.445  0.3868 -2.1636  1.8328
26853SOL     OW85115   6.359   2.816   9.133 -0.6466 -0.4252 -0.1074
26853SOL    HW185116   6.326   2.728   9.116  0.5216 -1.2896  1.8000
26853SOL    HW285117   6.392   2.812   9.223 -0.3692  1.9125 -0.0515
26854SOL     OW85118   4.940   1.031   2.641  0.0850 -0.0474 -0.0642
26854SOL    HW185119   4.957   1.095   2.710 -0.5346  0.3245 -0.2476
26854SOL    HW285120   4.845   1.027   2.634  0.1133  1.2124 -2.0589
26855SOL     OW85121   4.519   6.840  10.837  0.1818  0.3412  0.1587
26855SOL    HW185122   4.578   6.915  10.826 -0.6953  0.9028 -0.9536
26855SOL    HW285123   4.472   6.857  10.919  0.0775  0.9540 -0.0249
26856SOL     OW85124   8.310  10.630  10.226  0.0432  0.5009 -0.6837
26856SOL    HW185125   8.264  10.714  10.233 -0.3798  0.1036  2.6407
26856SOL    HW285126   8.243  10.570  10.193 -0.1467  1.0748 -1.3914
26857SOL     OW85127   9.125   7.943   7.716  0.2705 -1.2094  0.5540
26857SOL    HW185128   9.195   7.971   7.775 -1.1439 -0.7408  2.0774
26857SOL    HW285129   9.170   7.899   7.644  2.2043  0.2359  0.8108
26858SOL     OW85130  10.501   1.561   8.225  0.2028  0.0027 -0.6888
26858SOL    HW185131  10.460   1.647   8.217  0.3914  0.3734  1.6667
26858SOL    HW285132  10.434   1.500   8.194 -0.9147  0.8482 -0.0315
26859SOL     OW85133   9.004   3.182   5.258  0.2943  0.0700 -0.3109
26859SOL    HW185134   8.926   3.191   5.312  0.2957  1.2088 -0.4646
26859SOL    HW285135   8.977   3.125   5.186 -0.2667  0.0899 -0.1214
26860SOL     OW85136   3.516   7.391  10.023  0.5923 -0.3381 -0.4076
26860SOL    HW185137   3.474   7.469   9.988 -0.0646 -0.3239  0.3745
26860SOL    HW285138   3.520   7.330   9.949 -2.0734 -0.8620 -0.2261
26861SOL     OW85139   6.653   0.311   5.450  0.3858 -0.0196  0.5089
26861SOL    HW185140   6.676   0.404   5.444 -1.1421  0.5133  2.0741
26861SOL    HW285141   6.703   0.278   5.524  1.8157 -0.7996 -0.7359
26862SOL     OW85142  10.590   9.940  10.685 -0.1781 -0.3372 -0.2978
26862SOL    HW185143  10.638  10.023  10.681 -1.7157  0.5824 -0.6048
26862SOL    HW285144  10.615   9.902  10.769 -0.6578  1.2490  0.6141
26863SOL     OW85145  11.645  10.396   8.993  0.3468  0.3810 -0.1638
26863SOL    HW185146  11.729  10.443   8.993  0.4349  0.2309 -0.7545
26863SOL    HW285147  11.647  10.342   8.914 -1.0982  1.8075 -1.2449
26864SOL     OW85148   6.751   6.826  12.045  0.3730  0.4131  0.0919
26864SOL    HW185149   6.807   6.763  12.092  1.2858  1.3756  0.3356
26864SOL    HW285150   6.813   6.880  11.996 -0.4455  0.7066 -0.6298
26865SOL     OW85151   1.659   1.233   2.499  0.3417 -0.0875  0.1627
26865SOL    HW185152   1.715   1.157   2.484 -0.2027 -0.2820 -1.0277
26865SOL    HW285153   1.598   1.204   2.567 -0.3766 -1.0324 -0.8412
26866SOL     OW85154   5.571  11.318   4.168 -0.4446 -0.2089 -0.0692
26866SOL    HW185155   5.570  11.308   4.263  1.7726  0.6512  0.1048
26866SOL    HW285156   5.589  11.411   4.154  0.5135 -0.5626 -1.3101
26867SOL     OW85157   5.702   2.185   4.108 -0.0783 -0.1751  0.1653
26867SOL    HW185158   5.611   2.217   4.108 -0.2244 -0.5576  1.4179
26867SOL    HW285159   5.713   2.144   4.193  1.6589  0.9510  0.5284
26868SOL     OW85160   3.575   2.741   8.108  0.0872 -0.0186 -0.1108
26868SOL    HW185161   3.628   2.688   8.168 -0.3506 -0.9663 -0.5419
26868SOL    HW285162   3.584   2.830   8.141  1.2668 -0.2780  0.3213
26869SOL     OW85163   6.206  10.624   9.040  0.5792  0.0228  0.1616
26869SOL    HW185164   6.252  10.703   9.011  0.7837 -0.2960 -0.4095
26869SOL    HW285165   6.114  10.647   9.035  0.5615 -0.2177 -1.4564
26870SOL     OW85166   5.163   9.310   2.862 -0.0689  0.2551 -0.7496
26870SOL    HW185167   5.151   9.305   2.767  4.5195 -2.7231 -1.4626
26870SOL    HW285168   5.233   9.373   2.874  0.7862 -0.8791  0.4245
26871SOL     OW85169   4.016   2.965   3.822  0.2191  0.2050 -0.8085
26871SOL    HW185170   3.973   3.041   3.861  0.5757 -0.4714  1.0012
26871SOL    HW285171   4.095   3.001   3.780 -0.2519  0.9716 -1.0663
26872SOL     OW85172   6.860   8.168   6.192  0.5395 -0.3718 -0.6266
26872SOL    HW185173   6.848   8.074   6.181 -3.1519 -0.4769  2.3884
26872SOL    HW285174   6.917   8.176   6.269  0.9816 -0.0991 -0.9740
26873SOL     OW85175   0.415  11.467  11.427  0.0076  0.2924  0.2640
26873SOL    HW185176   0.382  11.456  11.338 -0.7291  0.3023  0.5269
26873SOL    HW285177   0.506  11.439  11.422  0.5850  2.1671 -0.9238
26874SOL     OW85178   1.895   8.992   6.283  0.2460  0.2881  0.5557
26874SOL    HW185179   1.908   9.072   6.232 -0.8885  0.1334 -0.0061
26874SOL    HW285180   1.913   8.921   6.221 -3.3620  0.0404 -0.4349
26875SOL     OW85181   4.689   1.116   1.773  0.9712 -1.1046 -0.0816
26875SOL    HW185182   4.701   1.021   1.771 -0.2205 -1.2667 -2.4695
26875SOL    HW285183   4.598   1.130   1.747  1.2439  0.7055 -0.1884
26876SOL     OW85184   4.425   9.029   3.676  0.0772 -0.1706  0.1770
26876SOL    HW185185   4.497   9.002   3.619  0.9453 -1.3852  1.7661
26876SOL    HW285186   4.347   8.993   3.635  0.5956 -0.4631 -0.5766
26877SOL     OW85187   1.025   5.589   3.432 -0.2116 -0.0626 -0.1359
26877SOL    HW185188   1.001   5.640   3.510  1.3647 -0.3265  0.5531
26877SOL    HW285189   1.071   5.512   3.466  1.0487  0.1189 -1.3197
26878SOL     OW85190   8.555  10.370   4.333  0.4115  0.7830 -0.1403
26878SOL    HW185191   8.486  10.381   4.398  0.6627 -0.3637  0.3319
26878SOL    HW285192   8.521  10.304   4.272  0.3913  1.4711 -0.8962
26879SOL     OW85193  11.001   0.964   7.518  0.1114 -0.2883 -0.2848
26879SOL    HW185194  11.005   0.869   7.531  2.0426 -0.7012 -2.8883
26879SOL    HW285195  10.992   0.974   7.423 -0.2093  2.1582 -0.0496
26880SOL     OW85196  12.104   2.224   7.445 -0.0382  0.0714 -0.3615
26880SOL    HW185197  12.042   2.174   7.497  1.3391 -1.5710 -0.2086
26880SOL    HW285198  12.151   2.159   7.394  2.1711  1.1264  0.1979
26881SOL     OW85199   9.948   2.522   8.103  0.0927 -0.3035 -0.9484
26881SOL    HW185200  10.027   2.545   8.053  0.2293 -1.0482 -1.0941
26881SOL    HW285201   9.892   2.599   8.096  0.6401  0.0824 -1.1852
26882SOL     OW85202   4.888   8.763   4.352  0.2209 -0.6406 -0.1825
26882SOL    HW185203   4.876   8.746   4.259 -0.2561 -0.7726 -0.0998
26882SOL    HW285204   4.851   8.686   4.395  0.7621 -0.7418  0.1068
26883SOL     OW85205   2.106   7.079   5.034 -0.1837 -0.4479 -0.0143
26883SOL    HW185206   2.044   7.131   4.982  0.0190 -0.0587  0.1277
26883SOL    HW285207   2.102   6.991   4.995 -0.2428 -0.2320 -0.5095
26884SOL     OW85208   2.560   1.102   7.011  0.4390  0.0657 -0.0929
26884SOL    HW185209   2.627   1.141   6.956  0.6055 -0.5734 -0.3557
26884SOL    HW285210   2.601   1.096   7.098  0.6035 -0.0076 -0.1739
26885SOL     OW85211   8.815   7.166   9.388 -0.1016  0.0271  0.3170
26885SOL    HW185212   8.822   7.258   9.413 -0.7885 -0.0389  0.7705
26885SOL    HW285213   8.765   7.167   9.307 -0.0297  0.0607  0.2726
26886SOL     OW85214   5.897   0.207   9.813  0.3055 -0.0838  0.5976
26886SOL    HW185215   5.938   0.150   9.878 -1.1057 -1.0858  0.6448
26886SOL    HW285216   5.870   0.149   9.742  0.2289  0.7457 -0.0720
26887SOL     OW85217  10.068   3.011  11.729  0.4739  0.4189 -0.4219
26887SOL    HW185218  10.077   3.031  11.636  0.0678  3.0227  0.0453
26887SOL    HW285219  10.116   3.080  11.774  0.5583 -0.7167  1.3430
26888SOL     OW85220   4.491   7.913   0.093  0.3768  0.4206 -0.0285
26888SOL    HW185221   4.442   7.949   0.167 -0.4488 -0.5875 -0.0588
26888SOL    HW285222   4.540   7.840   0.130  0.3073  0.1878 -0.3949
26889SOL     OW85223   0.144   4.916   8.856  0.0467  0.5397 -0.0114
26889SOL    HW185224   0.103   4.868   8.928  0.1997 -0.0117 -0.2843
26889SOL    HW285225   0.111   5.005   8.864 -2.3856 -0.1782 -1.1072
26890SOL     OW85226  11.385  10.419   3.365  0.0893  0.0427 -0.0187
26890SOL    HW185227  11.445  10.430   3.439 -0.5373 -0.0647  0.5188
26890SOL    HW285228  11.330  10.345   3.390 -1.6172  1.3973  0.4423
26891SOL     OW85229   1.387   1.818   1.946  0.1780 -0.3384  0.0587
26891SOL    HW185230   1.477   1.806   1.977  0.4701 -0.5904 -0.8715
26891SOL    HW285231   1.340   1.743   1.981  0.1908  0.0806  1.0154
26892SOL     OW85232   5.099   8.856   6.839  0.0651 -0.1198 -0.5596
26892SOL    HW185233   5.026   8.918   6.844  1.7942  1.9057  0.8473
26892SOL    HW285234   5.107   8.837   6.746 -0.4953  1.8132 -1.0487
26893SOL     OW85235   7.399   8.503   2.411  0.4610 -0.3711 -0.4025
26893SOL    HW185236   7.416   8.481   2.319  0.5126 -1.3873 -0.1606
26893SOL    HW285237   7.343   8.580   2.407  0.8455 -0.1256 -1.2839
26894SOL     OW85238  11.369   0.959   2.675  0.2949  0.4394  0.7926
26894SOL    HW185239  11.375   1.052   2.696  0.6160  0.3333  1.1757
26894SOL    HW285240  11.416   0.915   2.746  1.5861  0.0823 -0.2435
26895SOL     OW85241   0.567  11.355   7.751  0.2157 -0.2335  0.2324
26895SOL    HW185242   0.663  11.346   7.746  0.0949 -1.1319 -1.2244
26895SOL    HW285243   0.535  11.266   7.735 -0.8623 -0.4376  3.0485
26896SOL     OW85244   7.904   5.882   7.414  0.2880 -0.2681 -0.2167
26896SOL    HW185245   7.881   5.951   7.352  0.6810 -0.2546 -0.3529
26896SOL    HW285246   7.856   5.805   7.383  0.1825 -0.1638 -0.3119
26897SOL     OW85247   4.202   8.997   8.196 -0.4428  0.7855 -0.1148
26897SOL    HW185248   4.109   9.020   8.198 -0.3283  1.2274  0.5085
26897SOL    HW285249   4.228   9.009   8.104 -1.0553  0.4128 -0.3409
26898SOL     OW85250   4.990   1.177  10.476 -0.9209  0.2577 -0.0454
26898SOL    HW185251   5.001   1.103  10.536 -0.5424 -0.1720 -0.6230
26898SOL    HW285252   5.071   1.228  10.485 -1.7597  1.4024  1.3841
26899SOL     OW85253   5.964  10.095   6.945  0.2046  0.0957 -0.3313
26899SOL    HW185254   5.971  10.086   6.850 -0.8730  0.4975 -0.4613
26899SOL    HW285255   5.918  10.015   6.974 -3.3780  1.8369 -0.7040
26900SOL     OW85256   3.943   8.645   5.102 -0.5115 -0.0112 -0.1515
26900SOL    HW185257   3.930   8.606   5.189  1.0467  0.4223  0.2999
26900SOL    HW285258   3.863   8.695   5.087 -0.5436  0.4328  1.3223
26901SOL     OW85259   4.017   3.952   4.853  0.3166  0.8416  0.1912
26901SOL    HW185260   4.100   3.968   4.898  0.5416 -1.1783  0.5518
26901SOL    HW285261   3.968   3.896   4.913 -0.5343  0.4401 -0.8618
26902SOL     OW85262   4.708   8.860   4.580  0.0913 -0.7276 -0.1406
26902SOL    HW185263   4.752   8.842   4.497 -1.2937  1.1259 -1.3614
26902SOL    HW285264   4.620   8.824   4.568 -0.3001  0.0600  0.3152
26903SOL     OW85265   6.723   8.222   0.784  0.4033 -0.4625 -0.1561
26903SOL    HW185266   6.790   8.156   0.765  0.9191 -0.1683  0.6027
26903SOL    HW285267   6.734   8.288   0.717  3.2710  1.3848  1.9058
26904SOL     OW85268   0.641   6.414   7.251  0.5691 -0.2961  0.8733
26904SOL    HW185269   0.684   6.433   7.167 -1.5430  1.0121 -0.0011
26904SOL    HW285270   0.615   6.322   7.244  1.8370 -0.6648  0.7958
26905SOL     OW85271   5.028   8.004   3.387  0.2685 -0.2159  0.3351
26905SOL    HW185272   4.944   7.991   3.342  1.0007 -1.9392 -0.6045
26905SOL    HW285273   5.091   8.022   3.318  0.9096 -0.1917  0.9137
26906SOL     OW85274   5.205   8.043   8.448  0.1836 -0.3349 -0.4148
26906SOL    HW185275   5.264   8.085   8.386  0.2290 -0.5538 -0.5170
26906SOL    HW285276   5.172   7.966   8.403 -0.0546 -0.3039 -0.2971
26907SOL     OW85277   7.284   1.510   5.335 -0.2046  0.3690  0.0741
26907SOL    HW185278   7.365   1.560   5.329 -0.4436  0.6426 -1.1655
26907SOL    HW285279   7.313   1.419   5.343  0.2405  0.3804 -1.1974
26908SOL     OW85280   7.509   3.793  10.192  0.0910  0.3066 -0.6220
26908SOL    HW185281   7.431   3.769  10.142  0.9101  1.8317 -2.7491
26908SOL    HW285282   7.477   3.849  10.262 -0.8955 -0.5599 -0.3552
26909SOL     OW85283   9.946   6.130  10.275 -0.2082  0.0515 -0.1998
26909SOL    HW185284   9.925   6.038  10.260  0.4529  0.1355 -1.7973
26909SOL    HW285285   9.865   6.169  10.306 -0.7280 -0.8916 -0.3521
26910SOL     OW85286   0.454   1.819   0.453  0.1755 -0.2166  0.3057
26910SOL    HW185287   0.506   1.787   0.379  0.0068  0.8924 -0.3239
26910SOL    HW285288   0.363   1.804   0.427 -0.0216  2.4185 -0.8963
26911SOL     OW85289   7.180   2.049   4.358 -0.2280  0.1908 -0.5198
26911SOL    HW185290   7.142   2.098   4.285 -1.4405 -0.1288 -0.1247
26911SOL    HW285291   7.229   2.115   4.408 -0.6529  0.7132 -0.7790
26912SOL     OW85292   7.834   8.380   8.643 -0.2668 -0.2005  0.7703
26912SOL    HW185293   7.907   8.429   8.606  0.8483 -0.1420  2.9200
26912SOL    HW285294   7.851   8.289   8.619 -0.3541  0.0050 -0.0862
26913SOL     OW85295   8.734   9.408   4.779 -0.2988 -0.3116  0.5773
26913SOL    HW185296   8.751   9.334   4.720  0.2253 -0.6762  1.1686
26913SOL    HW285297   8.819   9.452   4.787 -0.8008  0.9472 -0.5207
26914SOL     OW85298   3.146   9.930   0.471 -0.2418  0.1404 -0.5249
26914SOL    HW185299   3.233   9.893   0.456 -0.1762 -1.0825  2.2275
26914SOL    HW285300   3.115   9.886   0.550 -2.5302  2.0184 -0.2680
26915SOL     OW85301   3.119  10.867  10.116 -0.0579  0.2687 -0.3301
26915SOL    HW185302   3.033  10.895  10.148  0.2434 -0.7344  1.5537
26915SOL    HW285303   3.181  10.911  10.174  0.5494 -1.2756  0.2558
26916SOL     OW85304   5.966   8.843   2.633  0.1560 -0.4942  0.3061
26916SOL    HW185305   5.915   8.762   2.628 -0.9528  0.1815  0.3264
26916SOL    HW285306   5.992   8.860   2.542  0.4986 -0.9256  0.3185
26917SOL     OW85307   0.772   9.859   5.320 -0.4093  0.3368 -0.0976
26917SOL    HW185308   0.783   9.929   5.385  0.6883  0.3778 -0.3124
26917SOL    HW285309   0.855   9.812   5.322  0.1977  1.1713 -2.4526
26918SOL     OW85310  10.313   9.873   7.412 -0.3875 -0.0907 -0.4627
26918SOL    HW185311  10.252   9.942   7.438  1.3737  1.3043  0.1747
26918SOL    HW285312  10.321   9.882   7.317 -1.5156 -0.6123 -0.6201
26919SOL     OW85313   1.267   5.627  10.082 -0.7346 -0.2971  0.3516
26919SOL    HW185314   1.244   5.668  10.166 -0.8086  0.2865  0.0530
26919SOL    HW285315   1.261   5.698  10.019 -0.2483 -0.6369 -0.0830
26920SOL     OW85316   9.506   6.782   6.389 -0.0718 -0.2674 -0.2172
26920SOL    HW185317   9.559   6.833   6.451 -0.7925  1.0798 -0.6589
26920SOL    HW285318   9.533   6.815   6.303  0.1030 -1.3150 -0.5769
26921SOL     OW85319   5.635   6.918   1.567 -0.1844 -0.2930  0.3417
26921SOL    HW185320   5.666   6.873   1.489 -0.6252 -2.5523  1.3764
26921SOL    HW285321   5.691   6.884   1.638 -0.3518  1.0302  1.1346
26922SOL     OW85322  11.511   8.260   0.586  0.4182  0.0031 -0.4324
26922SOL    HW185323  11.480   8.177   0.551  1.8435  0.8321 -4.1613
26922SOL    HW285324  11.602   8.243   0.610  0.2882  0.1682  0.2045
26923SOL     OW85325   2.872  10.187   7.660 -0.2603 -0.6784  0.1752
26923SOL    HW185326   2.913  10.265   7.699 -2.4458  0.3928  0.5145
26923SOL    HW285327   2.856  10.212   7.569 -0.7863 -0.7844  0.2348
26924SOL     OW85328   6.201   9.206   1.186 -0.0366 -0.1593 -0.4533
26924SOL    HW185329   6.190   9.150   1.263  0.9982 -0.0007 -0.1771
26924SOL    HW285330   6.184   9.294   1.218 -0.9256 -0.2247 -0.7193
26925SOL     OW85331   0.147   4.454   2.328 -0.3332  0.8880  0.3816
26925SOL    HW185332   0.057   4.435   2.302 -0.3701  0.7833  0.5835
26925SOL    HW285333   0.192   4.370   2.326 -0.1597  0.9886 -0.0248
26926SOL     OW85334   6.591   1.535   0.259  0.4957  0.0703  0.2270
26926SOL    HW185335   6.522   1.507   0.319  0.4507  0.3785  0.3175
26926SOL    HW285336   6.662   1.472   0.274 -0.5430 -1.5990 -1.3959
26927SOL     OW85337   8.712   3.215  11.891  0.0645 -0.6243  0.7469
26927SOL    HW185338   8.718   3.120  11.900 -2.4613 -0.9803 -0.4407
26927SOL    HW285339   8.734   3.232  11.800 -2.3263 -0.4701  0.1420
26928SOL     OW85340  10.091   3.615   7.467  0.0298  0.0835 -0.6859
26928SOL    HW185341  10.043   3.636   7.547 -0.1738 -0.4080 -0.6726
26928SOL    HW285342  10.127   3.528   7.483  2.2594  1.0614 -0.0829
26929SOL     OW85343   3.026   3.642   7.783  0.2500  0.6301  0.1688
26929SOL    HW185344   3.108   3.684   7.756  0.8671 -0.0687  0.9266
26929SOL    HW285345   3.039   3.549   7.763 -0.8858  0.6840 -0.9551
26930SOL     OW85346   3.151   9.383   2.464  0.6849  0.4594  0.3816
26930SOL    HW185347   3.222   9.447   2.462  0.0057  1.3083  1.7600
26930SOL    HW285348   3.150   9.350   2.554  0.5132 -0.9330 -0.0984
26931SOL     OW85349   3.923  11.256  11.296 -0.3345  0.6374  0.0433
26931SOL    HW185350   4.004  11.301  11.272 -0.5514 -0.0115 -2.0762
26931SOL    HW285351   3.892  11.304  11.373  2.0368  0.8916  0.9431
26932SOL     OW85352  10.664  11.055   0.397  0.0243  0.2511  0.4260
26932SOL    HW185353  10.686  11.121   0.332 -0.2056 -0.7139 -0.6556
26932SOL    HW285354  10.590  11.008   0.360 -0.3133 -0.1257  1.5315
26933SOL     OW85355  10.294   6.685   8.064 -0.1160 -0.0647 -0.1431
26933SOL    HW185356  10.283   6.767   8.112  0.7444 -0.3317  0.5483
26933SOL    HW285357  10.240   6.695   7.986 -1.9371  0.2323  1.0759
26934SOL     OW85358  10.031  11.307   8.033  0.5441  0.7094  0.4598
26934SOL    HW185359  10.090  11.232   8.031  0.4414  0.6387  0.0253
26934SOL    HW285360   9.950  11.276   7.993  0.3612  0.9339  0.6495
26935SOL     OW85361   0.570   7.561   9.075  0.0862 -0.5988  0.0715
26935SOL    HW185362   0.602   7.617   9.004 -0.5544  0.1363  0.3417
26935SOL    HW285363   0.525   7.489   9.031  0.4596 -0.6203 -0.2771
26936SOL     OW85364  11.983   6.691   1.325  0.1497  0.0784  0.1985
26936SOL    HW185365  11.981   6.707   1.230 -0.1999 -1.9217 -0.1875
26936SOL    HW285366  12.075   6.695   1.348  0.4125 -1.0421 -0.5706
26937SOL     OW85367   4.633   6.956  10.262  0.8973  0.1391 -0.4472
26937SOL    HW185368   4.665   6.896  10.330 -1.0055 -0.2579  0.1864
26937SOL    HW285369   4.681   7.037  10.277 -1.8235  1.3314  3.8435
26938SOL     OW85370   8.155   1.164   9.921  0.0875  0.1843  0.2823
26938SOL    HW185371   8.073   1.212   9.911  0.4477  0.9042  0.6959
26938SOL    HW285372   8.129   1.073   9.929 -0.6097  0.3102 -0.5207
26939SOL     OW85373   1.624   7.513   9.140  0.1644 -0.3739  0.7017
26939SOL    HW185374   1.542   7.551   9.173 -0.7584  1.0403 -2.6815
26939SOL    HW285375   1.596   7.432   9.097  0.4802  0.1141 -0.4664
26940SOL     OW85376   7.031   0.017   8.267  0.1006 -0.0973  0.4444
26940SOL    HW185377   7.035  -0.060   8.323  1.4922 -0.4593 -0.1287
26940SOL    HW285378   7.047  -0.016   8.179  1.0055  0.8826  0.2331
26941SOL     OW85379  10.976  11.033   5.488  0.1529  0.7484  0.5241
26941SOL    HW185380  10.986  11.127   5.471  1.1469  0.4887 -0.4619
26941SOL    HW285381  10.979  10.992   5.402  0.3855 -0.2456  0.9891
26942SOL     OW85382   2.255   0.038   3.920 -0.4688  0.1865 -0.0615
26942SOL    HW185383   2.255   0.104   3.851 -0.4381 -1.5996 -1.8663
26942SOL    HW285384   2.319  -0.027   3.892 -1.4366 -1.2807  0.9492
26943SOL     OW85385   5.207   9.261   0.497  0.2312  0.0568 -0.0210
26943SOL    HW185386   5.270   9.197   0.530 -1.7298 -2.0660 -0.1793
26943SOL    HW285387   5.246   9.294   0.416  2.5872  1.3135  1.4901
26944SOL     OW85388   0.352   7.305   0.976  0.2520  0.3258 -0.2981
26944SOL    HW185389   0.398   7.238   1.027 -2.2110 -0.8163  0.5559
26944SOL    HW285390   0.350   7.381   1.033  0.9659  0.3694 -0.3145
26945SOL     OW85391   1.435   4.731  10.696  0.1250  0.2728  0.3215
26945SOL    HW185392   1.434   4.718  10.791 -1.0284 -1.1929  0.1360
26945SOL    HW285393   1.470   4.649  10.661 -1.9508 -0.2848 -0.6243
26946SOL     OW85394   8.763  10.976   3.305 -0.2940 -0.4371  0.2390
26946SOL    HW185395   8.683  11.023   3.327  0.3694 -0.2749  2.6490
26946SOL    HW285396   8.758  10.962   3.211 -2.3627  0.9990  0.0661
26947SOL     OW85397   4.153   9.944  10.317  0.0272  0.2422  0.2052
26947SOL    HW185398   4.192   9.962  10.403  1.1100  1.4397 -0.5117
26947SOL    HW285399   4.115   9.856  10.327  0.8539  0.0078  1.6596
26948SOL     OW85400  11.918   3.927   4.090 -0.7594 -0.3353  0.4424
26948SOL    HW185401  11.868   3.861   4.042 -0.5994 -0.0484 -0.1233
26948SOL    HW285402  11.854   3.968   4.148 -1.1564 -0.0561 -0.1891
26949SOL     OW85403   7.289   9.639   5.504  0.1718 -0.0941  0.0600
26949SOL    HW185404   7.243   9.569   5.550  2.3050 -2.0300 -0.5656
26949SOL    HW285405   7.301   9.707   5.571  2.1745 -2.3510  2.1901
26950SOL     OW85406   9.873   0.908   4.693 -0.3216 -0.1023 -0.1379
26950SOL    HW185407   9.812   0.961   4.642  0.5613 -0.0125 -1.1276
26950SOL    HW285408   9.951   0.902   4.638 -0.2041 -1.9732  0.1843
26951SOL     OW85409   2.422   8.990   7.851  0.2301  0.7104 -0.2377
26951SOL    HW185410   2.485   9.008   7.921  2.1211 -0.7927 -1.4260
26951SOL    HW285411   2.382   8.907   7.876 -1.3314  1.6440  0.4929
26952SOL     OW85412   1.108   6.990  10.186 -0.1499  0.1427 -0.3558
26952SOL    HW185413   1.043   6.946  10.132  0.5644  0.0329 -1.1440
26952SOL    HW285414   1.093   7.083  10.172 -1.3913  0.1767  0.9891
26953SOL     OW85415   0.319   5.574   0.236 -0.2888  0.2798 -0.3718
26953SOL    HW185416   0.276   5.491   0.257  0.9393 -0.3246 -0.1330
26953SOL    HW285417   0.248   5.636   0.223 -1.2430 -0.8569 -0.7289
26954SOL     OW85418  10.891   1.284  11.241  0.2231  0.2035  0.7260
26954SOL    HW185419  10.858   1.296  11.152 -0.2622 -0.0557  0.8684
26954SOL    HW285420  10.966   1.343  11.247 -0.2483  0.8439  0.4140
26955SOL     OW85421   4.065   7.392   7.394 -0.4081 -0.3004 -0.0220
26955SOL    HW185422   4.098   7.323   7.337 -1.7613  0.0650 -1.3024
26955SOL    HW285423   4.133   7.459   7.393  1.0556 -1.6505  1.4534
26956SOL     OW85424   6.191   5.422   5.117  0.3445  0.0708  0.0043
26956SOL    HW185425   6.272   5.436   5.068  0.2881  4.1044  0.6991
26956SOL    HW285426   6.213   5.442   5.207 -1.1027 -0.1800  0.4473
26957SOL     OW85427   3.148   3.320   7.964 -0.3315  0.1819 -0.1770
26957SOL    HW185428   3.213   3.390   7.954  0.6386 -0.7883 -0.8828
26957SOL    HW285429   3.064   3.364   7.956  0.2429  1.3687  0.0546
26958SOL     OW85430  10.930   1.076   2.981  0.1856  0.0189  0.2309
26958SOL    HW185431  10.858   1.123   2.940  0.1037  0.6259  1.0361
26958SOL    HW285432  10.912   0.984   2.965  0.3988  0.2314 -1.4762
26959SOL     OW85433   7.372   9.746   1.849  0.0193 -0.1766  0.5884
26959SOL    HW185434   7.381   9.811   1.919 -0.0501 -0.3536  0.7615
26959SOL    HW285435   7.278   9.732   1.842  0.0960 -1.2290  1.4448
26960SOL     OW85436   3.356   2.620   2.370 -0.3762  0.3544  0.2014
26960SOL    HW185437   3.405   2.538   2.379  1.4214  1.0343 -2.1542
26960SOL    HW285438   3.420   2.689   2.391 -1.4486  1.1977  0.8050
26961SOL     OW85439   0.444   1.392  11.666 -0.0317 -0.0450  0.1969
26961SOL    HW185440   0.376   1.451  11.699 -0.6975 -0.2816 -0.7126
26961SOL    HW285441   0.447   1.409  11.572  0.6825 -0.5345  0.1251
26962SOL     OW85442  12.109   8.433   3.720 -0.0845  0.7574  0.2800
26962SOL    HW185443  12.151   8.517   3.737 -0.4899  1.0527 -0.1277
26962SOL    HW285444  12.061   8.447   3.638  0.5093 -0.1216 -0.2392
26963SOL     OW85445  11.846   3.593   0.483  0.1549 -0.6201 -0.9658
26963SOL    HW185446  11.913   3.653   0.517 -0.5152  0.1161 -0.9019
26963SOL    HW285447  11.805   3.556   0.561  1.4141 -2.1580 -1.0052
26964SOL     OW85448   7.527   5.251   2.533 -0.1734 -0.3474  0.8135
26964SOL    HW185449   7.449   5.301   2.507 -0.0035 -1.3534 -1.9533
26964SOL    HW285450   7.593   5.318   2.552 -1.2778  0.5017  1.7898
26965SOL     OW85451   6.585  11.339  10.649 -0.9078 -0.2134 -0.3232
26965SOL    HW185452   6.515  11.404  10.657 -1.1925 -0.3550 -1.4706
26965SOL    HW285453   6.610  11.342  10.557  0.8635  0.0891  0.1358
26966SOL     OW85454   5.373   3.967   7.944  0.3441  0.2276  0.2708
26966SOL    HW185455   5.319   4.044   7.964  2.0841  1.5116  0.2575
26966SOL    HW285456   5.418   3.990   7.863  1.9476 -0.2044  1.0034
26967SOL     OW85457   7.479   0.481   8.036 -0.0556 -0.0511  0.8922
26967SOL    HW185458   7.542   0.485   8.108  1.1838  2.9202 -0.1891
26967SOL    HW285459   7.478   0.389   8.011  0.7624 -0.8801  3.5519
26968SOL     OW85460  11.236   8.197   9.690 -0.4479  0.4982 -0.2007
26968SOL    HW185461  11.297   8.130   9.659 -0.5238  0.6444 -0.6741
26968SOL    HW285462  11.175   8.149   9.747 -0.8233  0.0614 -0.9553
26969SOL     OW85463   9.097   9.477   2.929  0.0687 -0.5241  1.0830
26969SOL    HW185464   9.065   9.484   3.018  1.1549  1.2958  1.3902
26969SOL    HW285465   9.026   9.513   2.875 -0.3639 -1.1006  1.2687
26970SOL     OW85466   3.695   8.517   5.572 -0.5625  0.0470 -0.6091
26970SOL    HW185467   3.722   8.428   5.551  0.5872 -0.0919  1.2581
26970SOL    HW285468   3.769   8.554   5.620 -1.5253  1.5928 -0.2324
26971SOL     OW85469   5.603   8.721   7.400 -0.5795  1.0697 -0.3552
26971SOL    HW185470   5.528   8.777   7.381 -1.7371 -0.7262 -1.4035
26971SOL    HW285471   5.630   8.687   7.315 -1.3839 -1.6764  0.3795
26972SOL     OW85472   3.376  11.862   5.520  0.6597 -0.2096  0.4723
26972SOL    HW185473   3.365  11.957   5.511  2.5521  0.0725  0.6500
26972SOL    HW285474   3.454  11.842   5.469 -0.6036 -1.9774 -0.9049
26973SOL     OW85475   2.343   4.053   3.402 -0.0486 -0.5463 -0.0390
26973SOL    HW185476   2.358   4.093   3.488 -1.1887  0.1743 -0.1556
26973SOL    HW285477   2.377   3.964   3.410 -0.4431 -0.5906  1.2562
26974SOL     OW85478   7.508  11.361   6.865 -0.0374 -0.0706 -0.0798
26974SOL    HW185479   7.489  11.300   6.936 -1.6587 -0.5072 -0.8426
26974SOL    HW285480   7.476  11.317   6.786 -1.4235  1.8094 -0.6402
26975SOL     OW85481   9.224   4.777   7.791  0.5249  0.2267  0.7307
26975SOL    HW185482   9.203   4.747   7.880  0.4227 -1.4506  0.1685
26975SOL    HW285483   9.276   4.706   7.754 -2.1258 -0.6591 -1.6612
26976SOL     OW85484   0.616   1.950   8.290  0.4205  0.4997 -0.2669
26976SOL    HW185485   0.693   1.894   8.298 -0.7210 -0.9926  0.8993
26976SOL    HW285486   0.546   1.901   8.333 -1.0032  2.1688 -0.5613
26977SOL     OW85487   4.519   2.302   0.611  0.4939  0.7276  0.1865
26977SOL    HW185488   4.537   2.285   0.704  0.9139 -1.4452 -0.2339
26977SOL    HW285489   4.603   2.291   0.568  0.1314  0.8115 -0.5529
26978SOL     OW85490   9.542   5.681   6.886  0.0606  0.3686 -0.3016
26978SOL    HW185491   9.472   5.631   6.928  0.0079  2.0364  1.7863
26978SOL    HW285492   9.496   5.743   6.829 -0.0264 -0.0353 -0.6740
26979SOL     OW85493   2.844   3.085   2.519 -0.1041 -0.1245 -0.2036
26979SOL    HW185494   2.898   3.164   2.530 -1.7898  0.9696  0.5011
26979SOL    HW285495   2.877   3.024   2.585  2.0184 -0.5357 -1.5422
26980SOL     OW85496   9.820   3.531   2.167  0.3806  0.2396 -0.4599
26980SOL    HW185497   9.881   3.477   2.116  0.2442  0.4505 -0.8520
26980SOL    HW285498   9.825   3.617   2.126  0.0716  0.3454 -0.2774
26981SOL     OW85499   6.817  10.483  11.506 -1.1142  1.0854  0.0135
26981SOL    HW185500   6.835  10.524  11.422  0.7273  0.7801  0.2173
26981SOL    HW285501   6.802  10.556  11.566 -0.7478  1.3674 -0.2335
26982SOL     OW85502   3.744  11.115   6.202  0.1757 -0.4888  0.2470
26982SOL    HW185503   3.820  11.075   6.160  0.4683  1.6209 -1.3876
26982SOL    HW285504   3.680  11.124   6.132 -0.4516  0.4566  0.9154
26983SOL     OW85505   8.091   7.288   2.174 -0.0730 -0.1806 -0.2886
26983SOL    HW185506   8.124   7.201   2.149  0.4538 -0.1229  0.2014
26983SOL    HW285507   8.000   7.272   2.199 -0.0665 -0.5447 -0.4829
26984SOL     OW85508   3.341   0.882   3.732  0.8582  0.4955  0.2667
26984SOL    HW185509   3.264   0.938   3.728  1.1370  0.9033  0.5118
26984SOL    HW285510   3.309   0.799   3.769  0.2075  0.0580 -1.2144
26985SOL     OW85511   1.208   8.745   2.891  0.5660 -0.4622  0.1215
26985SOL    HW185512   1.151   8.802   2.839 -0.1839 -1.2860  0.0151
26985SOL    HW285513   1.267   8.805   2.936  0.1504  0.3654 -0.4010
26986SOL     OW85514   6.815   4.270   1.313 -0.3264 -0.5779 -0.0685
26986SOL    HW185515   6.728   4.310   1.306 -0.4629 -0.7490  0.6271
26986SOL    HW285516   6.874   4.336   1.276 -0.7811 -0.5974 -0.8713
26987SOL     OW85517   3.912  10.038   5.157  0.1683 -0.3023  0.1073
26987SOL    HW185518   3.933   9.948   5.182  1.3699 -0.1336 -0.2361
26987SOL    HW285519   3.922  10.089   5.237  1.3387 -0.1944 -0.0868
26988SOL     OW85520   7.870   8.379   0.446 -0.3092  0.5004  0.3131
26988SOL    HW185521   7.862   8.329   0.364  0.7035  1.8127 -0.6416
26988SOL    HW285522   7.841   8.318   0.514  0.7075 -1.3434 -0.7950
26989SOL     OW85523   9.330   9.538   2.004  0.2013  0.2368 -0.4005
26989SOL    HW185524   9.296   9.454   1.974  1.4616 -0.1486 -0.7959
26989SOL    HW285525   9.291   9.602   1.945 -1.5168  0.0760  0.4823
26990SOL     OW85526   8.865   3.961   8.535  0.1239  0.1811  0.3686
26990SOL    HW185527   8.801   3.892   8.516 -0.2608  0.6309 -0.0047
26990SOL    HW285528   8.948   3.914   8.546  0.5078 -0.1509 -2.8057
26991SOL     OW85529   6.202   6.459   4.467 -0.2002  0.1479 -0.3119
26991SOL    HW185530   6.187   6.384   4.525  1.7157  0.2473  0.4003
26991SOL    HW285531   6.118   6.505   4.465 -1.3378 -1.8537 -0.5543
26992SOL     OW85532   7.321   0.581   2.452  0.3146 -0.3525  0.1921
26992SOL    HW185533   7.311   0.636   2.530 -2.3288  1.7056 -1.4551
26992SOL    HW285534   7.289   0.495   2.480  0.9534 -0.1187  1.7651
26993SOL     OW85535  10.782  11.084   7.051 -0.0689  0.0229  0.0974
26993SOL    HW185536  10.869  11.073   7.013  0.7533 -3.3344  2.4483
26993SOL    HW285537  10.795  11.140   7.127 -0.1459  0.2689 -0.0701
26994SOL     OW85538   7.775   5.763   8.667 -0.1283  0.1067  0.3107
26994SOL    HW185539   7.801   5.832   8.605  1.1074  0.7936  1.5474
26994SOL    HW285540   7.709   5.712   8.619 -0.5227  1.6813 -0.9118
26995SOL     OW85541   8.346   6.696  11.450 -0.3743  0.4642 -0.2541
26995SOL    HW185542   8.408   6.759  11.487  1.2333 -1.5407  0.6751
26995SOL    HW285543   8.330   6.634  11.522 -4.1965  1.3156 -0.1504
26996SOL     OW85544   9.772   1.201   7.123  0.0934 -0.0474  0.0181
26996SOL    HW185545   9.750   1.280   7.075 -1.9323 -0.2799  0.4814
26996SOL    HW285546   9.760   1.225   7.215  0.6023 -0.5760  0.2329
26997SOL     OW85547  10.621   5.125   3.060  0.0669  0.2952 -0.1751
26997SOL    HW185548  10.660   5.116   3.148  0.3078 -1.0591 -0.3935
26997SOL    HW285549  10.690   5.165   3.008 -0.0442  1.0240  0.2276
26998SOL     OW85550   9.263   3.636   2.459 -0.1384 -0.5762  0.1234
26998SOL    HW185551   9.174   3.601   2.464 -1.2399  1.6280 -1.9075
26998SOL    HW285552   9.258   3.717   2.510  0.2342  0.3230 -1.2207
26999SOL     OW85553   5.733   6.696  11.556  0.2137 -0.3849 -0.2107
26999SOL    HW185554   5.820   6.682  11.518 -0.2758 -2.4683 -0.7229
26999SOL    HW285555   5.748   6.752  11.632  1.4175  2.8624 -2.6164
27000SOL     OW85556  11.476   0.181   1.138 -0.4713  0.1651  0.3446
27000SOL    HW185557  11.499   0.176   1.045  0.3423  0.8608  0.4876
27000SOL    HW285558  11.475   0.091   1.168  1.2955  0.0411  0.1147
27001SOL     OW85559  11.894   6.868   6.465 -0.1987 -0.3490  0.0420
27001SOL    HW185560  11.866   6.777   6.469 -2.3410  0.2724  0.8331
27001SOL    HW285561  11.984   6.867   6.500 -0.3167 -2.0907  0.3887
27002SOL     OW85562   2.055   3.515   7.231 -0.8150 -0.4286  0.2251
27002SOL    HW185563   2.097   3.451   7.288  0.0426 -0.9915 -0.9904
27002SOL    HW285564   2.059   3.476   7.144 -0.5902  1.1074 -0.4951
27003SOL     OW85565   6.448  10.902  11.114 -0.2927  0.5442  0.1184
27003SOL    HW185566   6.502  10.972  11.150  1.4571  0.0575 -1.3868
27003SOL    HW285567   6.419  10.936  11.029  1.6032 -0.9283 -1.2010
27004SOL     OW85568   0.927   0.410   7.901  0.7791  0.1670  0.0098
27004SOL    HW185569   0.991   0.361   7.953  0.3844  0.9961  1.3310
27004SOL    HW285570   0.925   0.496   7.942  0.1926  0.7411 -1.1970
27005SOL     OW85571   0.313   0.593   3.220  0.0382  0.5935 -0.7733
27005SOL    HW185572   0.320   0.688   3.227 -2.3127  0.7161  0.8242
27005SOL    HW285573   0.378   0.559   3.282 -0.3905  1.1843 -0.0037
27006SOL     OW85574   0.042   9.494   1.082  0.5634  0.4072  0.3749
27006SOL    HW185575   0.128   9.528   1.057  0.7007  0.1707  0.5201
27006SOL    HW285576   0.007   9.560   1.142  0.0013  1.2418 -0.8487
27007SOL     OW85577   9.471   7.078  11.458  0.1835 -0.2019  0.3320
27007SOL    HW185578   9.532   7.017  11.416 -0.1985 -1.3085  1.3231
27007SOL    HW285579   9.387   7.032  11.458  0.1214 -0.1626  2.0792
27008SOL     OW85580   6.679   9.562   6.292  0.0344  0.9342  0.1638
27008SOL    HW185581   6.716   9.474   6.283  1.2299  1.5844 -1.7338
27008SOL    HW285582   6.684   9.580   6.386  1.3840 -0.3608  0.3771
27009SOL     OW85583   0.109  11.642   8.133  0.2945 -0.2349 -0.5665
27009SOL    HW185584   0.172  11.713   8.141  0.2721 -0.2022 -0.6763
27009SOL    HW285585   0.090  11.637   8.039  0.7804 -0.8038 -0.6380
27010SOL     OW85586   5.955   8.404   8.085 -0.0197 -0.0503  0.1383
27010SOL    HW185587   5.955   8.450   8.168 -1.1313  0.1188  0.0532
27010SOL    HW285588   6.010   8.458   8.028  1.1115 -0.3959  0.8602
27011SOL     OW85589  10.595   0.394   9.450 -0.1885 -0.1127 -0.3402
27011SOL    HW185590  10.518   0.363   9.403 -1.0563  1.1311  0.2273
27011SOL    HW285591  10.632   0.462   9.394  0.6065 -0.8206 -0.6881
27012SOL     OW85592  11.358   1.945   8.167  0.0306  0.2811  0.1921
27012SOL    HW185593  11.406   2.019   8.203 -0.1705  0.1507  0.7476
27012SOL    HW285594  11.374   1.874   8.230 -1.3604  0.3991  0.6978
27013SOL     OW85595   2.974   4.589   9.473 -0.3552 -0.0353  0.1089
27013SOL    HW185596   2.921   4.510   9.464  0.0126 -0.2188 -0.4687
27013SOL    HW285597   3.059   4.566   9.435 -0.4901  0.8849 -0.7797
27014SOL     OW85598   4.697   5.441   6.146 -0.1960 -0.0263 -0.2570
27014SOL    HW185599   4.602   5.440   6.135 -0.2726  2.3781 -0.3801
27014SOL    HW285600   4.731   5.395   6.069 -1.2346  0.0387 -0.7735
27015SOL     OW85601   2.166   1.306   7.796  0.2465  0.4764  0.1405
27015SOL    HW185602   2.212   1.361   7.859  0.2934  1.0333 -0.3723
27015SOL    HW285603   2.234   1.249   7.759  0.3869  0.7721 -0.0612
27016SOL     OW85604   1.557   9.408  10.033  0.4472 -0.9223 -0.4106
27016SOL    HW185605   1.632   9.361   9.995  1.4354  0.9014 -0.8044
27016SOL    HW285606   1.484   9.346  10.025  1.7237 -2.4501 -0.7377
27017SOL     OW85607   4.009  10.749   2.901 -0.2980  0.1631 -0.1818
27017SOL    HW185608   3.930  10.755   2.955  0.7935 -3.2659  2.1389
27017SOL    HW285609   3.989  10.681   2.837  0.4414 -0.0817 -0.1603
27018SOL     OW85610  10.286   7.107   3.745 -0.3249 -0.0063  0.2220
27018SOL    HW185611  10.307   7.194   3.710 -0.0932 -0.2351 -0.2277
27018SOL    HW285612  10.362   7.084   3.798 -0.9628  0.6242  1.4624
27019SOL     OW85613   2.325  11.126  11.437  0.2670  0.3561  0.4686
27019SOL    HW185614   2.296  11.035  11.431  2.0205 -0.4219  2.2497
27019SOL    HW285615   2.261  11.168  11.495 -2.3217  1.2030 -2.7338
27020SOL     OW85616  10.057   8.396   8.916 -0.4321 -0.1295 -0.2968
27020SOL    HW185617  10.003   8.472   8.939  0.6534  0.4709  0.3518
27020SOL    HW285618  10.133   8.433   8.872  0.4698 -0.7475  0.6872
27021SOL     OW85619   4.859  12.029   5.786 -0.3232 -0.3268 -0.4864
27021SOL    HW185620   4.820  12.095   5.843 -0.4725 -1.0182  0.2319
27021SOL    HW285621   4.819  12.044   5.701 -0.6344  0.2658 -0.2402
27022SOL     OW85622   7.685   0.799   9.595 -0.0166 -0.6475 -0.2511
27022SOL    HW185623   7.736   0.720   9.580 -0.1811 -0.7037 -0.5209
27022SOL    HW285624   7.681   0.842   9.509 -1.9937 -1.5861 -0.6759
27023SOL     OW85625   2.822   5.037  10.372 -0.0731  0.3966 -0.3333
27023SOL    HW185626   2.827   5.085  10.289 -2.2608  0.1157 -0.6861
27023SOL    HW285627   2.904   5.058  10.417  1.9345 -0.7316 -3.2186
27024SOL     OW85628   6.011   2.017   7.074 -0.7960  0.2280  0.3223
27024SOL    HW185629   5.971   1.941   7.117 -0.5249 -0.9440 -1.4355
27024SOL    HW285630   6.100   2.021   7.109 -0.5867 -0.6942 -0.0945
27025SOL     OW85631   2.816   2.468   7.625  0.1254  0.0279 -0.1559
27025SOL    HW185632   2.825   2.433   7.713  3.9666 -0.0533 -0.4263
27025SOL    HW285633   2.806   2.563   7.638 -2.0401 -0.2171  0.3454
27026SOL     OW85634   4.272   0.089  11.260  0.1750 -0.2285 -0.5225
27026SOL    HW185635   4.307   0.041  11.335  0.2687  0.8152  0.1136
27026SOL    HW285636   4.228   0.022  11.208  0.8279 -1.1100  0.0252
27027SOL     OW85637   8.460  10.957   9.300 -0.6049 -0.1700  0.7730
27027SOL    HW185638   8.488  10.964   9.392  0.0764  0.4266  0.5307
27027SOL    HW285639   8.542  10.947   9.251 -0.8225  1.3211  0.0561
27028SOL     OW85640   7.781   2.300   9.833  0.1930  0.1265  0.0447
27028SOL    HW185641   7.709   2.274   9.890 -1.0639  1.3848 -0.9228
27028SOL    HW285642   7.741   2.354   9.765  2.1573  1.5163 -0.0952
27029SOL     OW85643   8.940   0.283   5.507 -0.2396 -0.0911 -0.3963
27029SOL    HW185644   8.885   0.359   5.490 -0.1235 -0.0857 -0.7570
27029SOL    HW285645   8.888   0.208   5.479  0.3996 -0.0010 -1.9322
27030SOL     OW85646   7.565   7.808   6.914 -0.3980 -0.1605 -0.1116
27030SOL    HW185647   7.525   7.829   6.999 -0.0312 -2.2099  0.6344
27030SOL    HW285648   7.595   7.717   6.924 -0.5924 -0.5483 -2.5512
27031SOL     OW85649   1.319   0.736   4.468 -0.5704  1.0438 -0.6484
27031SOL    HW185650   1.371   0.812   4.441 -0.3044  1.1869  0.2429
27031SOL    HW285651   1.361   0.705   4.548 -1.5609  0.8415 -0.1965
27032SOL     OW85652   4.666   2.070   4.147 -0.3824  0.4702  0.0506
27032SOL    HW185653   4.721   2.017   4.089 -0.6766 -0.0546  0.2432
27032SOL    HW285654   4.661   2.155   4.105  1.5104  0.8937  0.5813
27033SOL     OW85655   5.543   9.920   7.233  0.3151 -0.1026  0.0630
27033SOL    HW185656   5.556   9.986   7.301  0.2108  1.0582 -1.0275
27033SOL    HW285657   5.561   9.837   7.278 -0.1183  0.5961  1.6105
27034SOL     OW85658   6.384   7.413   1.410 -0.0267 -0.2591  0.7093
27034SOL    HW185659   6.465   7.463   1.419  0.0759 -0.0220 -1.1241
27034SOL    HW285660   6.408   7.323   1.434  0.1217  0.2519  2.6502
27035SOL     OW85661   3.024   1.443   0.807 -0.1327 -0.1201 -0.0833
27035SOL    HW185662   3.116   1.417   0.816 -0.4473 -1.3924 -0.4300
27035SOL    HW285663   2.974   1.363   0.825 -1.2191  0.7709  1.0738
27036SOL     OW85664   0.740   1.981  11.630 -0.2867  0.1243  0.3048
27036SOL    HW185665   0.759   1.910  11.692 -0.1472 -0.8300 -0.7924
27036SOL    HW285666   0.645   1.986  11.627 -0.3310 -0.7500 -0.3756
27037SOL     OW85667   5.892   1.749   0.012  0.1117  0.8424 -0.4932
27037SOL    HW185668   5.949   1.753   0.088  0.6124 -0.3581 -0.7854
27037SOL    HW285669   5.803   1.754   0.048  0.3268 -0.1209  0.2125
27038SOL     OW85670  11.545   8.693   0.934 -0.1410  0.3092 -0.3954
27038SOL    HW185671  11.535   8.598   0.942  0.3279  0.3379  0.6685
27038SOL    HW285672  11.540   8.726   1.023 -0.0633  1.2701 -0.7306
27039SOL     OW85673   3.210   8.184  11.418 -0.2480  0.1341 -0.0354
27039SOL    HW185674   3.247   8.161  11.333  0.5198  0.7780  0.1081
27039SOL    HW285675   3.237   8.112  11.476 -2.1395 -1.1487 -0.6454
27040SOL     OW85676   8.559   4.029  10.209  0.0188 -0.1517  0.4768
27040SOL    HW185677   8.594   4.103  10.258  2.1654  0.1416 -1.3054
27040SOL    HW285678   8.530   4.067  10.126 -2.1974 -0.8285  0.8842
27041SOL     OW85679   9.206   7.432   5.279  0.0438  0.1665  0.9713
27041SOL    HW185680   9.207   7.528   5.276 -1.0299  0.1700  0.2294
27041SOL    HW285681   9.243   7.406   5.194 -3.1315 -0.0097 -0.4806
27042SOL     OW85682   1.780   9.382   5.773  0.2305 -0.0146  0.0621
27042SOL    HW185683   1.840   9.443   5.729  0.7873  0.8015  1.8649
27042SOL    HW285684   1.808   9.295   5.743  1.4599  0.4330 -0.1530
27043SOL     OW85685   1.604   1.038  10.462  0.2895  0.8614  0.4348
27043SOL    HW185686   1.550   1.020  10.539 -0.8743  0.1079 -0.5292
27043SOL    HW285687   1.661   0.961  10.453 -0.6076  0.2699 -0.2985
27044SOL     OW85688   5.082   0.609   7.653  0.0744  1.0938 -0.0660
27044SOL    HW185689   4.993   0.636   7.632 -0.0239  1.6172  0.9423
27044SOL    HW285690   5.074   0.519   7.683  0.3772 -0.1365 -3.2821
27045SOL     OW85691   3.700   1.461   0.060  0.7015 -0.0479 -0.0528
27045SOL    HW185692   3.675   1.549   0.087  3.8057  0.7948  0.5499
27045SOL    HW285693   3.639   1.438  -0.010 -1.2090  1.8659  0.8987
27046SOL     OW85694   0.092   4.269   2.763  0.1161 -0.2043  0.6405
27046SOL    HW185695   0.172   4.307   2.800 -1.3903  1.7006  2.1429
27046SOL    HW285696   0.041   4.344   2.732 -1.5432 -1.2693  0.6464
27047SOL     OW85697   7.944   5.447   1.744  1.1790  0.9249  0.3950
27047SOL    HW185698   7.855   5.447   1.778  1.1193  0.5136  0.2361
27047SOL    HW285699   7.968   5.540   1.740  0.3535  1.1031 -0.6360
27048SOL     OW85700  12.081  10.359   3.527  0.4526  0.6347  0.5981
27048SOL    HW185701  12.094  10.366   3.621  1.1427  1.5456  0.4472
27048SOL    HW285702  12.135  10.429   3.490  0.7993 -0.1978 -0.5230
27049SOL     OW85703  10.123   6.088  12.035 -0.4628  0.0932  0.2075
27049SOL    HW185704  10.063   6.155  12.002 -0.5063  0.1142  0.3264
27049SOL    HW285705  10.181   6.135  12.094  0.9913  0.4670 -1.4640
27050SOL     OW85706   1.404   0.304   3.303 -0.0398  0.2581 -0.0280
27050SOL    HW185707   1.463   0.256   3.244 -2.3553 -1.3472 -1.2065
27050SOL    HW285708   1.373   0.378   3.251 -0.1937  0.2632  0.0726
27051SOL     OW85709   7.565   5.459  10.644 -0.4000  0.5124  0.5089
27051SOL    HW185710   7.542   5.445  10.553  0.1330  1.0165  0.2881
27051SOL    HW285711   7.562   5.554  10.655 -1.8148  0.3878  1.3840
27052SOL     OW85712   5.214  10.206   6.052 -0.0442  0.3560  0.3673
27052SOL    HW185713   5.172  10.162   6.127 -0.7676 -1.1111 -0.8440
27052SOL    HW285714   5.167  10.289   6.044  0.0073  0.5090  1.4910
27053SOL     OW85715   2.050  10.842   0.974  0.0004 -0.4407 -0.0443
27053SOL    HW185716   2.073  10.805   0.889 -1.3280 -2.3066  0.3515
27053SOL    HW285717   1.972  10.895   0.957 -0.2005 -0.7244  0.0007
27054SOL     OW85718   2.766  10.836   9.136 -0.4798  0.3489  0.0969
27054SOL    HW185719   2.821  10.760   9.119 -0.9302  0.4108 -2.0198
27054SOL    HW285720   2.814  10.909   9.098 -0.7233  0.8801  0.8032
27055SOL     OW85721   0.552   0.730   5.270  0.2747  0.4296 -0.0738
27055SOL    HW185722   0.523   0.697   5.355  0.1679  0.2647 -0.1727
27055SOL    HW285723   0.612   0.664   5.237  1.5113  1.2114  0.5428
27056SOL     OW85724   5.931  10.720   6.526 -0.0723 -0.4553  0.2221
27056SOL    HW185725   5.907  10.735   6.617 -1.0771 -0.6949  0.0173
27056SOL    HW285726   5.928  10.807   6.486  1.6463 -0.1603  0.6828
27057SOL     OW85727   9.582  10.163   7.170  0.0111 -0.5570 -0.2582
27057SOL    HW185728   9.492  10.167   7.202  0.3354 -0.1503  0.6388
27057SOL    HW285729   9.621  10.089   7.216  1.1594  1.4394  2.2018
27058SOL     OW85730   8.531   8.468   3.018 -0.7575  0.3826  0.0339
27058SOL    HW185731   8.467   8.536   3.039 -0.4015  0.1852  1.9088
27058SOL    HW285732   8.591   8.467   3.093  3.2200  2.4816 -2.8032
27059SOL     OW85733   9.902   4.457   3.111  0.0230  0.1708 -0.2484
27059SOL    HW185734   9.908   4.362   3.117  1.6837  0.3159  0.8205
27059SOL    HW285735   9.837   4.472   3.042 -0.6149 -1.7180 -0.1150
27060SOL     OW85736   0.421   8.188   0.829 -0.3954  0.2049  0.1073
27060SOL    HW185737   0.444   8.144   0.911 -1.3543 -0.7017 -0.0823
27060SOL    HW285738   0.326   8.198   0.833 -0.3565  0.9100 -0.5234
27061SOL     OW85739   7.791   9.848   2.331 -0.0562 -0.2876  0.7683
27061SOL    HW185740   7.708   9.844   2.379  0.1222  0.8778  1.2156
27061SOL    HW285741   7.841   9.917   2.375  2.1544 -2.5635  2.0359
27062SOL     OW85742  10.252   9.729   9.150 -0.2446 -0.2544 -0.1507
27062SOL    HW185743  10.342   9.709   9.179  1.1332  1.2491 -2.9678
27062SOL    HW285744  10.238   9.669   9.077 -0.7061  0.9523 -1.0638
27063SOL     OW85745   4.234   9.368   2.307 -0.2580  0.3895 -0.0381
27063SOL    HW185746   4.250   9.316   2.386 -0.2871  0.2400 -0.1308
27063SOL    HW285747   4.319   9.408   2.288  0.1883 -0.9029 -0.8880
27064SOL     OW85748   9.747   4.990   8.319  0.2500 -0.0488 -0.9095
27064SOL    HW185749   9.660   4.963   8.347  0.0159  0.5762 -1.0328
27064SOL    HW285750   9.739   5.083   8.299  1.3524  0.4480  0.7342
27065SOL     OW85751   5.742   4.263  11.348 -0.0827 -0.2227 -0.4853
27065SOL    HW185752   5.668   4.236  11.403  0.4490  0.4112  0.5852
27065SOL    HW285753   5.817   4.220  11.388  0.0770 -1.2692 -1.8703
27066SOL     OW85754   2.841   0.705  11.155  0.2072  0.1502  0.1815
27066SOL    HW185755   2.875   0.671  11.072  1.2248 -1.1607  1.1049
27066SOL    HW285756   2.918   0.743  11.199 -0.7204  3.0325 -0.4345
27067SOL     OW85757  11.007   8.487  10.240 -0.6708 -0.7492 -0.5969
27067SOL    HW185758  11.017   8.503  10.334  0.7799 -1.0522 -0.6750
27067SOL    HW285759  10.975   8.570  10.205  0.8738  0.0728 -0.1296
27068SOL     OW85760  10.142   7.847   0.250 -0.0494 -0.1208  0.3541
27068SOL    HW185761  10.100   7.801   0.323 -2.3932 -0.3354 -1.0167
27068SOL    HW285762  10.136   7.785   0.177  1.8687  0.2474 -0.1632
27069SOL     OW85763  10.823   7.690   9.405 -0.6635 -0.2472 -0.5260
27069SOL    HW185764  10.789   7.601   9.393  0.0760 -0.7366  0.7183
27069SOL    HW285765  10.860   7.689   9.494 -0.1052  1.1251 -0.7210
27070SOL     OW85766  10.495   6.189   9.849  0.5367 -0.5365 -0.4993
27070SOL    HW185767  10.428   6.125   9.825 -0.2158  0.8632 -2.5169
27070SOL    HW285768  10.455   6.240   9.919  0.8391 -1.7469  0.5829
27071SOL     OW85769   3.086   6.835   8.551  0.5555  0.5434 -0.1911
27071SOL    HW185770   3.012   6.814   8.609  1.1990 -0.4098  0.3116
27071SOL    HW285771   3.073   6.779   8.475  0.7985  0.3175 -0.0666
27072SOL     OW85772   4.787   2.879  10.240 -0.3911  0.7894 -0.0909
27072SOL    HW185773   4.768   2.804  10.185 -1.1093 -0.1049  1.3021
27072SOL    HW285774   4.829   2.942  10.182 -1.3335 -0.0005 -1.6861
27073SOL     OW85775  10.195   1.098   7.838  0.0354  0.4011  0.3846
27073SOL    HW185776  10.231   1.011   7.855 -2.1319 -0.6204  0.1967
27073SOL    HW285777  10.249   1.134   7.768  1.5984 -0.3507  1.1470
27074SOL     OW85778   7.119   0.120   0.852 -0.1823 -0.5607 -0.4793
27074SOL    HW185779   7.183   0.190   0.868 -2.4404  1.5113  0.1440
27074SOL    HW285780   7.171   0.048   0.817  2.6766  0.4504  1.3110
27075SOL     OW85781   9.042   3.860   6.443 -0.1291 -0.4400  0.2642
27075SOL    HW185782   9.091   3.839   6.363  0.5835  0.6604  0.3825
27075SOL    HW285783   8.952   3.833   6.425  0.4125 -2.1025 -0.1337
27076SOL     OW85784   5.866   1.871   6.557  0.2498  0.2204 -0.4803
27076SOL    HW185785   5.821   1.953   6.539  1.4566  1.8434  2.8910
27076SOL    HW285786   5.909   1.886   6.642  0.2166 -4.0474  0.5175
27077SOL     OW85787   9.576   3.092   9.173  0.7450 -0.3021 -0.2020
27077SOL    HW185788   9.650   3.088   9.233  1.7236  2.4517 -1.0963
27077SOL    HW285789   9.615   3.099   9.086 -0.5304  1.3470 -0.6924
27078SOL     OW85790   4.347   9.401   1.231  0.2246 -0.1080 -0.2556
27078SOL    HW185791   4.403   9.476   1.209  0.6473 -1.1689 -3.2333
27078SOL    HW285792   4.276   9.439   1.283  1.6411  1.9257  0.3393
27079SOL     OW85793   1.307   4.518   1.967  0.3138  0.0346 -0.0462
27079SOL    HW185794   1.271   4.538   2.053  2.9886  2.1255  0.7198
27079SOL    HW285795   1.398   4.496   1.983  0.9779  0.7909 -2.3286
27080SOL     OW85796  10.838  11.848   8.880 -0.3527  0.2778  0.0829
27080SOL    HW185797  10.934  11.854   8.887 -0.0892 -1.1172 -1.7851
27080SOL    HW285798  10.810  11.829   8.970  0.9206  2.3502  1.0097
27081SOL     OW85799  11.560   4.214   1.294  0.4073 -0.1279  0.1047
27081SOL    HW185800  11.564   4.129   1.252 -0.8612  0.4543 -1.2773
27081SOL    HW285801  11.556   4.277   1.221  0.2457  1.0509  1.0913
27082SOL     OW85802   3.352  10.650   5.037 -0.0513 -0.4886  0.3894
27082SOL    HW185803   3.448  10.643   5.032  0.0411  0.6742  0.2991
27082SOL    HW285804   3.331  10.723   4.979 -1.0663 -1.1483 -0.1018
27083SOL     OW85805   4.265  11.173   1.244  0.1767 -0.2071 -0.3643
27083SOL    HW185806   4.293  11.105   1.306 -0.1122 -1.1532 -1.2443
27083SOL    HW285807   4.327  11.245   1.258  0.9052 -0.9123  0.1223
27084SOL     OW85808   1.744   4.754   6.872  0.2455  0.2490  0.6117
27084SOL    HW185809   1.649   4.756   6.866  0.1852 -1.8147 -0.1189
27084SOL    HW285810   1.773   4.833   6.826 -1.0836  0.0115 -0.7134
27085SOL     OW85811   7.961   3.745   4.880  0.3008 -0.5339  0.5617
27085SOL    HW185812   7.878   3.744   4.832  0.7783 -0.6457 -0.3006
27085SOL    HW285813   7.940   3.783   4.965 -0.7464 -1.1042  0.5740
27086SOL     OW85814   1.169  10.587   6.627  0.2029  0.2072  0.4511
27086SOL    HW185815   1.252  10.629   6.605  0.7783 -1.7037 -1.4080
27086SOL    HW285816   1.189  10.493   6.627 -2.1689 -0.3857 -1.3177
27087SOL     OW85817   9.142   5.887   9.622  0.0660 -0.4625 -0.7849
27087SOL    HW185818   9.168   5.977   9.602 -0.6134  0.1851  1.0968
27087SOL    HW285819   9.123   5.887   9.716 -0.2374 -2.5069 -0.7985
27088SOL     OW85820   0.902  10.205   0.899  0.0538 -0.6524  0.2522
27088SOL    HW185821   0.919  10.114   0.925  0.1000 -1.2247 -1.6412
27088SOL    HW285822   0.976  10.254   0.935  0.9278 -1.6536 -0.1096
27089SOL     OW85823   1.314   3.144   4.517  0.0699  0.1620  0.6863
27089SOL    HW185824   1.336   3.104   4.601  1.5846  1.0429  0.7576
27089SOL    HW285825   1.275   3.228   4.540  1.9032  1.1055  0.5659
27090SOL     OW85826   5.379   8.100   2.209  0.1026 -0.3123  0.1913
27090SOL    HW185827   5.412   8.103   2.120 -0.9204 -0.2825 -0.2015
27090SOL    HW285828   5.287   8.125   2.201 -0.1656 -0.9594  1.1693
27091SOL     OW85829   4.475  11.757   1.770 -0.1250  0.2113 -0.2084
27091SOL    HW185830   4.537  11.724   1.835  0.1042 -1.0049 -1.0048
27091SOL    HW285831   4.389  11.744   1.810 -0.3896 -4.8902 -1.7547
27092SOL     OW85832   3.482   6.617   9.720  0.0131 -0.3902 -0.5301
27092SOL    HW185833   3.527   6.534   9.703 -1.6855 -1.6065  0.6035
27092SOL    HW285834   3.414   6.595   9.783 -0.4371  1.9094 -0.1310
27093SOL     OW85835  11.289  10.897   1.846 -0.0747 -0.2085 -0.5420
27093SOL    HW185836  11.352  10.878   1.777 -0.9841 -1.3632 -1.0740
27093SOL    HW285837  11.211  10.930   1.800  0.0169  0.9576  0.0890
27094SOL     OW85838   0.326   4.139   8.098 -0.9605  0.1275  0.3627
27094SOL    HW185839   0.235   4.163   8.083 -1.3149 -0.2381  1.7057
27094SOL    HW285840   0.377   4.201   8.047 -1.9693 -0.0839 -0.9452
27095SOL     OW85841   0.271   9.558   6.517  0.2656 -0.2405 -0.4866
27095SOL    HW185842   0.355   9.599   6.494  0.7274 -1.1322 -0.4168
27095SOL    HW285843   0.281   9.534   6.609 -0.2524  0.0730 -0.3444
27096SOL     OW85844   3.588   4.192   1.611 -0.2980 -0.5230  0.2123
27096SOL    HW185845   3.581   4.103   1.646 -1.5806 -1.2158 -1.6330
27096SOL    HW285846   3.566   4.183   1.519 -0.5971  1.7476  0.0038
27097SOL     OW85847   4.575   3.221  10.111 -0.0424 -0.2691 -0.2375
27097SOL    HW185848   4.598   3.276  10.186  1.8928  0.4935 -1.3418
27097SOL    HW285849   4.633   3.249  10.041 -1.8742 -0.8745 -2.1091
27098SOL     OW85850   9.152   5.066   8.433 -0.9318 -0.0227 -0.3238
27098SOL    HW185851   9.076   5.063   8.375 -2.0717 -1.6514  1.1584
27098SOL    HW285852   9.172   5.159   8.442 -1.7643  0.3528 -1.9650
27099SOL     OW85853  11.288   2.182   2.832 -0.2190  0.0290  0.1047
27099SOL    HW185854  11.288   2.147   2.922 -0.6373  0.4854  0.2851
27099SOL    HW285855  11.335   2.116   2.781  0.6186  0.0769  0.7828
27100SOL     OW85856   7.084   5.641  10.295  0.0580 -0.4665  0.1132
27100SOL    HW185857   7.129   5.600  10.369 -0.7339 -0.4825  0.5948
27100SOL    HW285858   7.092   5.735  10.312  0.4515 -0.4500 -0.1378
27101SOL     OW85859  11.318   2.116   9.693 -0.5491 -0.6439 -0.9873
27101SOL    HW185860  11.404   2.079   9.674 -0.4595 -1.0788  0.1552
27101SOL    HW285861  11.262   2.085   9.622  0.3421  0.0868 -2.0396
27102SOL     OW85862  11.184   0.766   3.404  0.4831  0.3662 -0.4451
27102SOL    HW185863  11.240   0.825   3.455 -0.5786  1.5730 -0.6303
27102SOL    HW285864  11.166   0.814   3.324  0.7825 -0.8439 -1.2563
27103SOL     OW85865   8.630   5.902  11.478 -0.6229  0.3860 -0.7174
27103SOL    HW185866   8.686   5.898  11.556  2.5343  5.5968 -2.1933
27103SOL    HW285867   8.542   5.921  11.513 -0.1904 -1.3695  1.5550
27104SOL     OW85868   3.211  10.893   9.860 -0.7432 -0.1423 -0.1384
27104SOL    HW185869   3.257  10.809   9.854  1.5140  0.9106  1.2173
27104SOL    HW285870   3.157  10.886   9.939 -2.0758 -0.9293 -1.0604
27105SOL     OW85871  11.131   4.457   8.062 -0.5925  0.2052 -0.6423
27105SOL    HW185872  11.077   4.500   8.128 -1.1453  0.0107 -0.9589
27105SOL    HW285873  11.210   4.430   8.109  0.4500  2.8117 -0.7207
27106SOL     OW85874   2.890  10.862  10.821  0.2152  0.0930  0.3142
27106SOL    HW185875   2.883  10.891  10.730  1.0111  0.8102  0.4595
27106SOL    HW285876   2.873  10.941  10.873 -1.1094 -0.5029  0.8221
27107SOL     OW85877   1.470   4.179   9.419  0.2812 -0.0906 -0.4469
27107SOL    HW185878   1.459   4.242   9.490  0.8666  0.3020 -0.6904
27107SOL    HW285879   1.565   4.162   9.416  0.3489  0.3629 -1.5169
27108SOL     OW85880   5.521   3.305   6.282  0.1869  0.5047  0.0599
27108SOL    HW185881   5.615   3.290   6.282  0.1882  0.4917 -0.4794
27108SOL    HW285882   5.489   3.256   6.206 -0.6264 -1.7404  1.7469
27109SOL     OW85883   2.042   3.520  11.015 -0.0330 -0.5899  0.2614
27109SOL    HW185884   1.962   3.473  11.036  0.8492 -2.1163  0.3732
27109SOL    HW285885   2.058   3.575  11.092 -1.4213  0.4083 -0.1376
27110SOL     OW85886   2.436   4.827   5.571  0.2385 -0.0762  0.4812
27110SOL    HW185887   2.525   4.851   5.545  0.7293 -0.8557  1.3736
27110SOL    HW285888   2.447   4.782   5.655 -0.8612 -1.3564 -0.0315
27111SOL     OW85889   9.138   0.511   4.910  0.0618  0.2988  0.4517
27111SOL    HW185890   9.177   0.425   4.897 -0.1524  0.3580 -0.6690
27111SOL    HW285891   9.199   0.572   4.869 -0.9969  0.4236 -0.9959
27112SOL     OW85892  11.070   0.238   7.439  0.2107 -0.0954 -0.3920
27112SOL    HW185893  11.123   0.242   7.360 -2.0554  1.2315 -1.9629
27112SOL    HW285894  10.994   0.186   7.414 -0.5238  0.2938  0.9469
27113SOL     OW85895   5.767   5.576  10.292  0.5271 -0.4660 -0.2018
27113SOL    HW185896   5.844   5.521  10.275 -0.0534 -1.7377  1.0154
27113SOL    HW285897   5.733   5.597  10.205  0.3361 -2.7231 -0.7320
27114SOL     OW85898   1.606   1.493   2.178  0.2413  0.2752  0.5421
27114SOL    HW185899   1.552   1.571   2.166 -2.2235 -1.1337  1.6193
27114SOL    HW285900   1.617   1.486   2.273  1.8865  0.1826  0.3762
27115SOL     OW85901   4.551   2.802  11.167  0.0335 -0.2085  0.2465
27115SOL    HW185902   4.639   2.776  11.138  0.1956  0.4458  0.1410
27115SOL    HW285903   4.551   2.897  11.159 -0.6791 -0.2062  0.2728
27116SOL     OW85904   0.281   3.956   3.517  0.0817 -0.9774 -0.2048
27116SOL    HW185905   0.213   3.955   3.585  0.8369 -2.4077  0.5822
27116SOL    HW285906   0.241   4.003   3.444 -1.5113 -1.1825  0.4842
27117SOL     OW85907  10.079   3.372   0.200  0.0662  0.4692 -0.2348
27117SOL    HW185908  10.144   3.412   0.258 -0.1984 -0.4528  0.7539
27117SOL    HW285909  10.003   3.430   0.206  0.8357  1.6687 -1.5660
27118SOL     OW85910   7.512   6.886   2.355 -0.2068  0.1791  0.3614
27118SOL    HW185911   7.459   6.909   2.279  0.7882  2.0914  0.1855
27118SOL    HW285912   7.454   6.903   2.430 -0.2352  1.1636  0.1289
27119SOL     OW85913  11.453   5.781   8.545  0.4681 -0.3043 -0.3934
27119SOL    HW185914  11.422   5.742   8.464  3.1775 -0.8394 -1.2984
27119SOL    HW285915  11.486   5.707   8.596 -1.6107 -0.0365  1.4796
27120SOL     OW85916   2.445  11.350   4.364 -0.2294  0.4463  0.2497
27120SOL    HW185917   2.404  11.351   4.450 -0.5724  1.1813  0.0834
27120SOL    HW285918   2.505  11.276   4.367 -2.1938 -1.2122  0.1872
27121SOL     OW85919   0.056   1.563   5.722 -0.0084 -0.1972  0.2408
27121SOL    HW185920  -0.036   1.540   5.704 -0.1751 -1.6703  2.6151
27121SOL    HW285921   0.050   1.632   5.788  0.6287  0.4256 -0.3346
27122SOL     OW85922  10.383   8.220   8.190 -0.7555 -0.5220  0.2597
27122SOL    HW185923  10.388   8.239   8.283 -0.2874  3.8672 -0.4780
27122SOL    HW285924  10.293   8.191   8.176 -0.6385 -1.9441  2.0874
27123SOL     OW85925  10.539   8.996  11.593  0.2023  0.5499  0.3371
27123SOL    HW185926  10.469   9.010  11.529 -1.1739 -1.4705  1.3284
27123SOL    HW285927  10.617   9.034  11.551 -0.8469  0.2269 -2.0896
27124SOL     OW85928   5.219   8.379  11.232 -0.0844 -0.1989  0.5459
27124SOL    HW185929   5.208   8.358  11.139  0.5213  0.6062  0.2895
27124SOL    HW285930   5.138   8.347  11.272 -0.6836  0.1152 -0.3708
27125SOL     OW85931   2.315   1.472   3.922 -0.2629 -0.3795  0.2173
27125SOL    HW185932   2.372   1.524   3.864  0.4405 -0.1922  1.0591
27125SOL    HW285933   2.304   1.389   3.876 -1.9399  0.6980 -1.4776
27126SOL     OW85934   5.671   2.237   4.406 -0.6815  0.4553 -0.8196
27126SOL    HW185935   5.734   2.230   4.478 -1.3682 -1.4250 -0.3474
27126SOL    HW285936   5.586   2.237   4.450 -1.0820  0.4752 -1.5880
27127SOL     OW85937  12.013   1.697   6.016  0.3776  0.1154 -0.0477
27127SOL    HW185938  11.939   1.682   5.957 -0.4387  1.7631  0.5171
27127SOL    HW285939  12.055   1.776   5.982 -0.8098  1.8173  2.1848
27128SOL     OW85940   3.392   4.317   5.736  0.2674  0.4023 -0.2686
27128SOL    HW185941   3.434   4.303   5.821 -0.3908 -0.3437 -0.0591
27128SOL    HW285942   3.327   4.247   5.729 -1.0088  1.5783 -0.5522
27129SOL     OW85943   6.366   9.294   8.061  0.0743  0.3526  0.3027
27129SOL    HW185944   6.284   9.336   8.035  0.2925  1.0585  0.7182
27129SOL    HW285945   6.429   9.320   7.994  0.0073 -0.0254  0.0927
27130SOL     OW85946   7.721   3.601   3.356  0.4274 -0.1108  0.6221
27130SOL    HW185947   7.698   3.655   3.280 -0.4618 -0.2218  0.8109
27130SOL    HW285948   7.718   3.511   3.324 -0.1724 -0.1727  0.8360
27131SOL     OW85949   2.244  12.112   0.365  0.5479  0.2533  0.2962
27131SOL    HW185950   2.303  12.131   0.292 -0.7161  0.0470 -0.7982
27131SOL    HW285951   2.254  12.018   0.380  1.1141  0.3652  0.6980
27132SOL     OW85952   1.748  10.765   7.846  0.0335 -0.0793 -0.2536
27132SOL    HW185953   1.760  10.848   7.892 -0.6519 -0.7718  1.2795
27132SOL    HW285954   1.799  10.702   7.898 -0.1769 -0.7690 -0.8715
27133SOL     OW85955   1.248   0.039   4.287  0.0613  0.2799 -0.3230
27133SOL    HW185956   1.245  -0.040   4.233 -3.8484  0.5165 -0.7058
27133SOL    HW285957   1.157   0.060   4.305  1.0504  2.6526  2.9225
27134SOL     OW85958   7.172   6.806   2.440 -0.8235  0.2223  0.5415
27134SOL    HW185959   7.235   6.776   2.506 -1.5295  0.6366  1.4271
27134SOL    HW285960   7.201   6.894   2.417  0.5491 -0.6263 -1.1677
27135SOL     OW85961   9.578   1.976   6.222 -0.6610 -0.4836 -0.0616
27135SOL    HW185962   9.601   2.021   6.141 -3.3715 -0.9861 -1.2264
27135SOL    HW285963   9.657   1.930   6.247  0.3688 -0.0270 -2.2304
27136SOL     OW85964   1.663   3.743   5.194 -0.1674 -0.3050  0.3522
27136SOL    HW185965   1.689   3.765   5.283 -2.0439 -0.7350  1.0573
27136SOL    HW285966   1.728   3.680   5.165 -0.0882 -0.9338  1.8134
27137SOL     OW85967   7.171  10.836   0.847 -0.0895 -0.3386  0.3737
27137SOL    HW185968   7.263  10.811   0.845 -0.2885 -1.0852 -0.7102
27137SOL    HW285969   7.124  10.754   0.864 -0.5655 -0.0213  0.6168
27138SOL     OW85970   2.090   8.673   9.373 -0.3157  0.2337 -0.2623
27138SOL    HW185971   2.168   8.688   9.427 -0.0428 -1.9195  0.0530
27138SOL    HW285972   2.108   8.720   9.291  1.1258  0.1678 -0.0146
27139SOL     OW85973  11.777   0.840   3.259  0.3296  0.4364  0.7526
27139SOL    HW185974  11.697   0.857   3.209  1.4274  0.2328 -1.1522
27139SOL    HW285975  11.815   0.926   3.274  2.1665  0.3720 -2.5946
27140SOL     OW85976   1.421   4.997   4.430  0.5526  0.1372  0.2700
27140SOL    HW185977   1.351   5.061   4.422 -0.2708 -0.7794 -0.1201
27140SOL    HW285978   1.418   4.947   4.348  0.1963 -1.3442  1.1386
27141SOL     OW85979   3.923   4.191   8.970 -0.0475  0.1595  0.7026
27141SOL    HW185980   3.878   4.204   9.053 -0.6499 -1.1401  0.6026
27141SOL    HW285981   3.999   4.138   8.992 -0.6930 -0.9605  0.3184
27142SOL     OW85982   5.249   4.579   2.406 -0.5874 -0.1504 -0.1403
27142SOL    HW185983   5.199   4.543   2.333 -0.1054 -1.3272  0.0800
27142SOL    HW285984   5.336   4.538   2.398 -0.0511  0.8954  0.1980
27143SOL     OW85985  10.664   2.258   4.419  0.4349 -0.4277 -0.2940
27143SOL    HW185986  10.723   2.332   4.430 -0.0444 -0.1372  0.4423
27143SOL    HW285987  10.583   2.286   4.461 -0.0397 -1.0385 -0.7790
27144SOL     OW85988   0.836   7.330   6.150 -0.1602 -0.9657  0.0321
27144SOL    HW185989   0.873   7.338   6.063  1.1299  1.4337  0.6931
27144SOL    HW285990   0.761   7.390   6.150 -0.2570 -1.0788  0.5127
27145SOL     OW85991   2.222  11.641   3.330  0.2307  0.5544  0.6769
27145SOL    HW185992   2.236  11.547   3.323  0.9748  0.7654 -1.8817
27145SOL    HW285993   2.153  11.660   3.266 -0.3153  1.6870  1.5599
27146SOL     OW85994   2.999   8.139  11.595  0.3345  0.4059  0.2177
27146SOL    HW185995   3.048   8.190  11.531  0.7805  0.9263  0.9595
27146SOL    HW285996   3.021   8.048  11.576 -1.0007  0.4056 -1.5611
27147SOL     OW85997   1.906   4.275   3.011  0.3062  0.0937  0.1871
27147SOL    HW185998   1.910   4.351   2.953 -0.8936  1.2597  1.5557
27147SOL    HW285999   1.924   4.310   3.098  0.1519 -1.2631  0.7900
27148SOL     OW86000   8.726   2.748   1.483 -0.9634  0.5631  0.4015
27148SOL    HW186001   8.679   2.765   1.401 -1.5200  0.1392  0.6260
27148SOL    HW286002   8.780   2.671   1.463  0.0473  1.3569 -0.0124
27149SOL     OW86003   2.454   3.802   4.418  1.0056 -0.2556 -0.1080
27149SOL    HW186004   2.497   3.858   4.483  0.6636  0.9351 -0.8700
27149SOL    HW286005   2.372   3.776   4.459  1.9029 -1.6337  0.9184
27150SOL     OW86006   0.059   1.851   9.181  0.5388 -0.0043  0.4017
27150SOL    HW186007   0.022   1.939   9.172  0.3878 -0.1011  0.0698
27150SOL    HW286008   0.054   1.813   9.093  2.3165  0.3225  0.1339
27151SOL     OW86009   6.676   7.369  11.229  0.1015 -0.3971 -0.0468
27151SOL    HW186010   6.718   7.315  11.162 -0.6335 -0.6134 -0.3412
27151SOL    HW286011   6.626   7.307  11.282  0.4297 -0.1875  0.5184
27152SOL     OW86012   5.626  10.392  11.841 -0.4380 -0.2345 -0.2486
27152SOL    HW186013   5.648  10.439  11.760  0.8111  0.0374  0.2245
27152SOL    HW286014   5.531  10.379  11.836 -0.7703  1.9679 -0.6007
27153SOL     OW86015   7.587  11.042   7.636 -0.1729 -0.1749  0.1346
27153SOL    HW186016   7.559  11.004   7.719  1.8643  1.8614  1.9131
27153SOL    HW286017   7.674  11.006   7.621 -0.0777  0.3117 -0.5363
27154SOL     OW86018   4.802  11.847  11.558  0.0648  0.5212  0.4481
27154SOL    HW186019   4.843  11.896  11.629 -0.4379  0.6845  0.6293
27154SOL    HW286020   4.790  11.911  11.488  0.3984  0.4015  0.2773
27155SOL     OW86021   5.510   9.580  10.271  0.4774  0.3865 -0.7618
27155SOL    HW186022   5.467   9.589  10.356 -0.8174 -0.4247 -1.3090
27155SOL    HW286023   5.573   9.509  10.284  1.2896  1.2008 -0.1129
27156SOL     OW86024   8.871   4.460   2.716  0.1798 -0.5733 -0.1876
27156SOL    HW186025   8.896   4.538   2.764 -1.1894 -0.3844  0.2870
27156SOL    HW286026   8.775   4.466   2.709 -0.2521 -3.1708  1.6774
27157SOL     OW86027   4.586   5.001   4.280 -0.4888  0.2247 -0.4417
27157SOL    HW186028   4.565   5.017   4.188 -2.4106  0.5782  0.0325
27157SOL    HW286029   4.627   4.914   4.280 -1.6646 -0.3547 -1.4749
27158SOL     OW86030   7.448   5.163   1.723  0.4016  0.4758  0.5327
27158SOL    HW186031   7.405   5.151   1.638 -1.6230 -0.0592  1.5734
27158SOL    HW286032   7.458   5.075   1.758  1.6935  0.6518  0.6757
27159SOL     OW86033  11.707  11.996   5.196 -0.3082 -0.5594 -0.5008
27159SOL    HW186034  11.660  11.918   5.226  0.5242 -0.5593  0.8635
27159SOL    HW286035  11.654  12.070   5.226  0.3793 -0.5646  0.8064
27160SOL     OW86036   1.555   8.505   1.780  0.1840 -0.4517 -0.4616
27160SOL    HW186037   1.557   8.599   1.762 -0.5795 -0.5393 -1.0741
27160SOL    HW286038   1.613   8.467   1.714 -0.7536 -0.5420 -1.2728
27161SOL     OW86039  10.242   4.502   6.147 -0.0452 -0.0065 -0.1615
27161SOL    HW186040  10.163   4.542   6.183  0.6840 -1.4587  3.6011
27161SOL    HW286041  10.269   4.560   6.076 -3.4008  1.5709 -0.3195
27162SOL     OW86042   4.337   1.086  11.005  0.2185 -0.2864  0.2385
27162SOL    HW186043   4.341   1.131  11.089 -1.0948 -2.3551  1.5018
27162SOL    HW286044   4.271   1.018  11.017  0.7233 -1.3236 -2.1562
27163SOL     OW86045   1.442  10.629   6.546  0.1156  0.1111 -0.4678
27163SOL    HW186046   1.477  10.540   6.552 -0.9325 -0.4234 -1.7108
27163SOL    HW286047   1.519  10.685   6.535  0.7847 -0.6342  0.2956
27164SOL     OW86048   2.690   6.097   6.529 -0.0132  0.1742 -0.0354
27164SOL    HW186049   2.640   6.175   6.551  1.0351  0.7610  0.3329
27164SOL    HW286050   2.665   6.077   6.439 -1.1806  0.2268  0.2636
27165SOL     OW86051  11.990  11.278   8.536  0.3252 -0.5578  0.6396
27165SOL    HW186052  11.971  11.365   8.570 -0.2540 -1.1531  1.8796
27165SOL    HW286053  12.062  11.246   8.590  0.8066 -0.6999 -0.0733
27166SOL     OW86054   7.228   0.988  10.200 -0.0373  0.3435  0.4462
27166SOL    HW186055   7.281   0.908  10.197  0.6506  0.7506  1.3412
27166SOL    HW286056   7.215   1.004  10.294  1.0111  2.0334  0.3487
27167SOL     OW86057   4.741   1.253   0.353  0.7977  0.0405  0.0958
27167SOL    HW186058   4.727   1.347   0.347 -1.3467 -0.1847  0.6574
27167SOL    HW286059   4.734   1.233   0.446  0.5752 -0.7592 -0.0840
27168SOL     OW86060   5.242   0.020   9.202 -0.1666  0.8833  0.4011
27168SOL    HW186061   5.275  -0.066   9.176 -0.1190  1.3875 -1.3408
27168SOL    HW286062   5.149   0.019   9.177 -0.0491  1.5005 -0.0919
27169SOL     OW86063   9.174  11.368   1.532  0.2123  0.5323  0.6610
27169SOL    HW186064   9.171  11.462   1.550  0.6761  1.1924 -2.2773
27169SOL    HW286065   9.261  11.352   1.497  0.0412 -0.9720  0.8200
27170SOL     OW86066   3.628   7.570   6.283  0.5951  0.6702 -0.8135
27170SOL    HW186067   3.648   7.497   6.225  2.4868 -0.0715  0.6826
27170SOL    HW286068   3.552   7.542   6.333  1.8370 -0.7376  0.3899
27171SOL     OW86069   0.918   8.687   9.664  0.5320  0.1460  0.6024
27171SOL    HW186070   0.828   8.658   9.654  0.0317  0.2303  3.7004
27171SOL    HW286071   0.970   8.624   9.614 -1.1701 -0.4179 -0.5228
27172SOL     OW86072   6.932  11.477  10.495  0.1757 -0.0642  0.0274
27172SOL    HW186073   6.909  11.523  10.414  2.0677 -1.1877 -1.2079
27172SOL    HW286074   6.874  11.401  10.497  1.5267 -1.2134 -1.4730
27173SOL     OW86075   3.435   9.480   0.924  0.4254 -0.2021 -0.5791
27173SOL    HW186076   3.481   9.532   0.857 -0.0613  0.7302 -0.2129
27173SOL    HW286077   3.356   9.531   0.943  1.2536  0.3438  1.7646
27174SOL     OW86078   8.296  10.713   0.806 -0.7173  0.0587  0.1979
27174SOL    HW186079   8.206  10.735   0.832 -1.1246 -1.4752  0.2140
27174SOL    HW286080   8.315  10.633   0.855 -0.3555 -1.1636 -1.8280
27175SOL     OW86081   7.561   1.568   3.950 -0.2353 -0.4278  0.4560
27175SOL    HW186082   7.634   1.590   4.009 -0.3928 -0.7785  0.7901
27175SOL    HW286083   7.484   1.602   3.995 -0.3566 -0.7039  0.4636
27176SOL     OW86084   2.038   6.327   9.154  0.1374 -0.3107 -0.1332
27176SOL    HW186085   2.061   6.255   9.213  2.0265 -0.2286 -0.7038
27176SOL    HW286086   2.056   6.293   9.067  1.0507  0.8232 -0.4131
27177SOL     OW86087   1.993   0.965   9.778  0.2094 -0.1621 -0.5859
27177SOL    HW186088   1.911   0.918   9.761  0.3627 -1.2042  1.2558
27177SOL    HW286089   2.043   0.957   9.697 -0.7756 -1.0697 -1.1313
27178SOL     OW86090  11.951  12.124   4.821 -0.4699  0.7609 -0.5531
27178SOL    HW186091  12.007  12.201   4.811 -0.5416  0.5767 -2.7434
27178SOL    HW286092  11.969  12.093   4.910 -0.3960  3.2325  0.3525
27179SOL     OW86093   7.373   4.661   4.985 -0.4243  0.6422 -0.3273
27179SOL    HW186094   7.290   4.638   4.943 -1.5973 -0.8016  2.5298
27179SOL    HW286095   7.360   4.749   5.019 -0.9827  0.2581  0.4807
27180SOL     OW86096   7.470   7.024  10.839  0.1723  0.1444  0.0572
27180SOL    HW186097   7.444   6.939  10.803 -1.0378  1.4422 -2.3609
27180SOL    HW286098   7.565   7.017  10.851 -0.0577 -1.9220  1.1306
27181SOL     OW86099   5.323   8.910   4.146 -0.2466  0.2340 -0.1127
27181SOL    HW186100   5.277   8.986   4.183  0.5812  1.7108 -1.9477
27181SOL    HW286101   5.415   8.935   4.150 -0.0120 -0.4134 -1.3180
27182SOL     OW86102   0.483   3.197  11.748  0.4731  0.0189 -0.4362
27182SOL    HW186103   0.407   3.170  11.698 -1.3293 -1.0766  2.6311
27182SOL    HW286104   0.502   3.285  11.717 -2.1853  0.4172 -1.1666
27183SOL     OW86105   6.818   4.244  11.075 -0.2884  0.1079  0.5708
27183SOL    HW186106   6.837   4.318  11.017 -0.2831  0.0838  0.5416
27183SOL    HW286107   6.824   4.167  11.019  1.5422 -0.0987  0.9707
27184SOL     OW86108   3.475   0.768   8.046  0.0382 -0.3808  0.0039
27184SOL    HW186109   3.426   0.743   8.125  0.4992  0.0933  0.4451
27184SOL    HW286110   3.478   0.688   7.994  0.9656 -1.1072  1.1240
27185SOL     OW86111   9.766  11.347   7.408 -0.0650 -0.4887  0.4406
27185SOL    HW186112   9.837  11.359   7.472  0.8829 -1.1777 -0.4369
27185SOL    HW286113   9.789  11.406   7.336 -1.1786  0.3598  0.7691
27186SOL     OW86114  12.074   0.753   9.105 -0.1239 -0.6290  0.2740
27186SOL    HW186115  11.990   0.779   9.066 -0.9950 -2.0787  1.0691
27186SOL    HW286116  12.093   0.820   9.170 -0.0085  0.3828 -0.7751
27187SOL     OW86117   9.962   1.414   7.811  0.6351 -0.2336 -0.4956
27187SOL    HW186118  10.003   1.499   7.825 -0.4434  0.1774  0.2193
27187SOL    HW286119  10.031   1.351   7.833  1.3248  0.4371 -0.6721
27188SOL     OW86120   1.739   5.421   1.919 -0.1486  0.7208 -0.0447
27188SOL    HW186121   1.802   5.380   1.979  1.9197 -0.5442 -2.8003
27188SOL    HW286122   1.666   5.360   1.916  0.2196  0.2485  0.4019
27189SOL     OW86123   8.263   0.056   1.432 -0.3484  0.9220  0.3455
27189SOL    HW186124   8.267   0.090   1.342 -0.3086 -0.6279 -0.2696
27189SOL    HW286125   8.177   0.014   1.437  0.5328 -0.9731  0.2662
27190SOL     OW86126   9.126   6.999   5.516 -0.5203  0.7638  0.1111
27190SOL    HW186127   9.088   6.935   5.576 -0.2300 -1.7762 -2.1807
27190SOL    HW286128   9.051   7.038   5.471 -0.6254  0.2159 -0.1920
27191SOL     OW86129   6.009   2.174   2.365 -0.5906 -0.1046 -0.4105
27191SOL    HW186130   5.944   2.169   2.435 -0.2237 -1.4514 -0.1365
27191SOL    HW286131   6.070   2.103   2.384  0.3725  0.4759 -1.2553
27192SOL     OW86132   0.496  11.291  12.032  0.2170  0.2694  0.2313
27192SOL    HW186133   0.561  11.305  11.963 -1.7929 -1.1632 -2.1514
27192SOL    HW286134   0.415  11.328  11.996 -1.0085 -0.9225  1.6297
27193SOL     OW86135   9.628   0.719   2.815 -0.1369  0.3036  0.0779
27193SOL    HW186136   9.609   0.793   2.758  0.6307 -2.1098 -3.6212
27193SOL    HW286137   9.723   0.722   2.827 -0.2997  0.8683  1.5282
27194SOL     OW86138  11.556   2.926   5.454  0.3979  0.2180 -0.0161
27194SOL    HW186139  11.627   2.889   5.401  0.7435 -0.3082  0.7922
27194SOL    HW286140  11.555   2.873   5.534 -0.7719  0.3536  0.0845
27195SOL     OW86141  12.064   5.868   0.005  0.6264 -0.2239 -0.1893
27195SOL    HW186142  12.038   5.777   0.019  0.5140 -0.4060 -1.4731
27195SOL    HW286143  12.001   5.919   0.056 -1.0223 -0.7515 -1.6266
27196SOL     OW86144   1.956   5.022   4.302  0.1024 -0.2054  0.0298
27196SOL    HW186145   1.969   5.096   4.243 -3.9038  0.5285 -0.2031
27196SOL    HW286146   1.881   4.975   4.267  1.4768 -3.5531  1.1126
27197SOL     OW86147   7.607   2.312   0.024 -0.5706 -0.7215  0.0920
27197SOL    HW186148   7.553   2.307  -0.054 -0.1003 -0.0498 -0.2828
27197SOL    HW286149   7.694   2.281  -0.004 -0.4211 -0.5570  0.3656
27198SOL     OW86150   5.405   1.995  10.412 -0.0247 -0.2326 -0.0505
27198SOL    HW186151   5.331   2.003  10.352 -1.3669 -1.2686  1.3895
27198SOL    HW286152   5.438   1.906  10.400 -1.4746 -1.1214  1.9361
27199SOL     OW86153  11.184   9.103   0.114  0.1888  0.0525 -0.2367
27199SOL    HW186154  11.128   9.098   0.037 -0.0286 -0.7673 -0.0262
27199SOL    HW286155  11.185   9.197   0.136 -1.2705  0.0661 -0.1131
27200SOL     OW86156   1.457   0.071   7.240  1.0241  0.3358  0.3074
27200SOL    HW186157   1.519   0.143   7.246  1.6956 -0.1468 -0.4978
27200SOL    HW286158   1.511  -0.008   7.252  0.7686 -0.1433 -1.4090
27201SOL     OW86159   6.564   5.025   0.149 -0.0378 -0.2514  0.3323
27201SOL    HW186160   6.485   5.005   0.198 -0.9551  1.3867 -0.4100
27201SOL    HW286161   6.534   5.060   0.066  1.3635  2.4950  0.8554
27202SOL     OW86162   0.777  11.335  10.764 -0.3400  0.0635 -0.3902
27202SOL    HW186163   0.807  11.422  10.792  1.5919  0.1321 -2.3572
27202SOL    HW286164   0.696  11.352  10.717 -0.9301  0.5558  0.7738
27203SOL     OW86165  11.425  11.510   1.351 -0.1572 -0.6510 -0.1870
27203SOL    HW186166  11.392  11.478   1.435  0.9370  0.3676  0.6880
27203SOL    HW286167  11.514  11.540   1.371 -0.4191  1.0653 -1.3466
27204SOL     OW86168   9.105   3.272   9.240 -0.1017  0.0174 -0.0348
27204SOL    HW186169   9.196   3.247   9.221  0.5545 -0.3123  3.0023
27204SOL    HW286170   9.082   3.221   9.317 -2.3726  1.2230  0.1694
27205SOL     OW86171   5.261   9.868  11.959 -0.2645  0.0722  0.0378
27205SOL    HW186172   5.308   9.906  11.884 -2.4673 -1.7626 -2.4632
27205SOL    HW286173   5.292   9.777  11.963 -1.8000 -0.4765 -0.1165
27206SOL     OW86174   6.275   3.790  11.408 -0.1325 -0.4233  0.7078
27206SOL    HW186175   6.320   3.793  11.493  1.5995 -1.5003 -0.0994
27206SOL    HW286176   6.235   3.703  11.405  0.4304 -0.6697  0.1459
27207SOL     OW86177   8.708   9.263  10.261  0.3187 -0.3228 -0.0417
27207SOL    HW186178   8.707   9.202  10.335 -1.4136  0.0152  0.2666
27207SOL    HW286179   8.761   9.337  10.291  0.4348 -0.6186  0.4973
27208SOL     OW86180   8.231   1.919   4.199 -0.4626 -0.0691  0.0717
27208SOL    HW186181   8.186   1.836   4.212 -0.4947  0.0157  0.5162
27208SOL    HW286182   8.171   1.972   4.147 -1.1161  0.2443  1.1263
27209SOL     OW86183   9.087   0.427   2.922  0.3611  0.1674  0.4089
27209SOL    HW186184   9.145   0.428   2.998 -1.2354 -0.8813  1.6996
27209SOL    HW286185   9.060   0.518   2.911 -0.0481  0.2159  1.6416
27210SOL     OW86186   2.670   8.372  10.029  0.7616  0.1632  0.6277
27210SOL    HW186187   2.698   8.345  10.116  0.8284 -0.6202  0.3774
27210SOL    HW286188   2.727   8.445  10.006  2.9867 -1.6706 -0.0712
27211SOL     OW86189   1.723   2.138   1.337 -0.3201 -0.0147 -0.1667
27211SOL    HW186190   1.653   2.089   1.381 -1.2087  1.5512  0.2349
27211SOL    HW286191   1.755   2.078   1.269 -1.0747 -1.2918  0.5753
27212SOL     OW86192   1.156  11.500  11.118  0.1402  0.0428 -0.2455
27212SOL    HW186193   1.194  11.511  11.205  1.2730  1.0049 -0.8293
27212SOL    HW286194   1.191  11.574  11.068 -1.6693  0.3596 -1.1198
27213SOL     OW86195   1.284   4.228   8.406  0.7063 -0.7943 -0.0561
27213SOL    HW186196   1.258   4.274   8.485 -0.5132 -1.5655  0.0172
27213SOL    HW286197   1.218   4.159   8.395  2.0194 -2.0376 -0.5757
27214SOL     OW86198   9.388   2.578   7.987 -0.3841 -0.0703 -0.1604
27214SOL    HW186199   9.390   2.613   8.076 -3.9014  1.1558 -0.3613
27214SOL    HW286200   9.299   2.545   7.977 -0.1153 -0.1691 -3.2046
27215SOL     OW86201   2.639   4.275   6.757  0.7610  0.0384 -0.3924
27215SOL    HW186202   2.720   4.224   6.754  0.6662 -0.1100 -0.4225
27215SOL    HW286203   2.576   4.217   6.798  0.7441  0.2595 -0.1095
27216SOL     OW86204   9.994  10.767   1.149 -0.1431  0.9073 -0.0544
27216SOL    HW186205  10.039  10.781   1.232  0.4528  1.0758 -0.3981
27216SOL    HW286206   9.992  10.853   1.108  0.6894  0.5979 -0.7672
27217SOL     OW86207   5.374   6.458   5.430  0.1584 -0.0527  0.3381
27217SOL    HW186208   5.425   6.403   5.489  0.9062 -0.0526 -0.2968
27217SOL    HW286209   5.376   6.545   5.471 -0.0932 -0.2488  0.7718
27218SOL     OW86210   6.372   2.008   4.056  0.5373  0.5091  0.1705
27218SOL    HW186211   6.286   2.001   4.013  0.6340  0.9128 -0.0913
27218SOL    HW286212   6.352   2.024   4.148  0.3214  2.5461 -0.1943
27219SOL     OW86213   1.774   8.931   9.670  0.1594 -0.1975 -0.0841
27219SOL    HW186214   1.841   8.871   9.637  1.4239  0.0079  1.9751
27219SOL    HW286215   1.719   8.949   9.593  2.0577 -0.8903 -1.7002
27220SOL     OW86216   9.891   0.311   0.243 -0.5123  0.0219 -0.7973
27220SOL    HW186217   9.867   0.219   0.244 -1.0860  0.1385 -2.0133
27220SOL    HW286218   9.960   0.318   0.177 -1.0408  0.5948 -1.2970
27221SOL     OW86219   2.191   7.200   9.821 -0.0175  0.6817 -0.3157
27221SOL    HW186220   2.192   7.250   9.739  0.2508  2.0604  0.4989
27221SOL    HW286221   2.279   7.163   9.827  0.1573  1.0847 -0.3548
27222SOL     OW86222   7.912   6.574   2.145 -0.9388  0.7687 -0.2200
27222SOL    HW186223   7.928   6.665   2.118 -0.6112  1.3736  1.8781
27222SOL    HW286224   7.986   6.525   2.107 -1.8791  1.0600 -2.5961
27223SOL     OW86225   7.274   5.012   0.428 -0.4573 -0.6059  0.0362
27223SOL    HW186226   7.344   5.052   0.479  0.0977  0.0131 -1.1718
27223SOL    HW286227   7.281   5.052   0.342 -1.0963 -1.9327 -0.6673
27224SOL     OW86228   9.520   1.381   3.276  0.3023  0.0654 -0.6219
27224SOL    HW186229   9.511   1.395   3.371 -3.0325  1.9224 -1.0510
27224SOL    HW286230   9.467   1.303   3.259 -1.7742  1.5385 -1.2532
27225SOL     OW86231   9.986  10.132   1.948 -0.4677  0.0442 -0.2072
27225SOL    HW186232  10.017  10.077   1.875 -1.9106  0.0579 -0.8637
27225SOL    HW286233   9.891  10.125   1.944 -0.6611  2.0977  0.0878
27226SOL     OW86234   2.224  11.291   0.349  0.0726  0.3313 -0.8354
27226SOL    HW186235   2.283  11.303   0.423  0.6661 -0.2209 -1.2141
27226SOL    HW286236   2.145  11.339   0.374 -0.0439 -0.5164  0.4970
27227SOL     OW86237   2.908   2.407   3.304 -0.1634  0.0957  0.3570
27227SOL    HW186238   2.910   2.422   3.398  0.9302  0.1454  0.3419
27227SOL    HW286239   2.906   2.312   3.295 -0.3837  0.0922  0.4214
27228SOL     OW86240   8.848  10.821   1.246  0.2012 -0.1364  0.1084
27228SOL    HW186241   8.859  10.732   1.280  1.6921 -0.3799 -0.8890
27228SOL    HW286242   8.923  10.869   1.282  0.9625 -0.0242 -1.5276
27229SOL     OW86243   4.121   3.383   5.388  0.1470  0.2409  0.1851
27229SOL    HW186244   4.052   3.383   5.455  0.3389 -0.1436  0.3853
27229SOL    HW286245   4.188   3.440   5.424  0.2340  0.0639  0.3043
27230SOL     OW86246   9.219  10.306   6.627  0.4780 -0.7200 -0.0363
27230SOL    HW186247   9.220  10.221   6.584  3.4688 -0.9751  0.3550
27230SOL    HW286248   9.244  10.368   6.559  0.6116 -0.4699  0.2384
27231SOL     OW86249   9.253   3.267   8.789  0.0779 -0.4112 -0.0387
27231SOL    HW186250   9.193   3.219   8.847 -2.1431  0.8197 -1.1674
27231SOL    HW286251   9.210   3.265   8.703  2.0272 -0.0290 -1.0822
27232SOL     OW86252   1.933   2.349   7.085  0.0162 -0.4745  1.0484
27232SOL    HW186253   1.843   2.336   7.115 -0.7042  1.2544 -0.2014
27232SOL    HW286254   1.960   2.432   7.123 -0.0272  0.5106 -0.9296
27233SOL     OW86255  11.767   0.323   4.101 -0.0767 -0.4505 -0.8407
27233SOL    HW186256  11.787   0.407   4.060  0.7121 -0.7922 -1.1860
27233SOL    HW286257  11.672   0.325   4.115 -0.0319  0.5806 -0.6378
27234SOL     OW86258   7.904   6.616   6.469  0.1409  0.3846  0.0913
27234SOL    HW186259   7.951   6.532   6.472  1.5045  1.1500  0.6591
27234SOL    HW286260   7.947   6.665   6.399 -0.2920  0.8271  0.1292
27235SOL     OW86261   7.742   0.227  10.948  0.2040 -0.2933 -0.2890
27235SOL    HW186262   7.685   0.161  10.906  0.2189 -0.7279  0.3623
27235SOL    HW286263   7.693   0.254  11.026  0.4222  0.1057 -0.2911
27236SOL     OW86264   4.506  12.014   1.274 -0.1980  0.3092  0.6215
27236SOL    HW186265   4.415  12.043   1.281 -0.7618 -0.3154 -2.5409
27236SOL    HW286266   4.501  11.918   1.279  0.0595  0.1944 -0.7615
27237SOL     OW86267  11.921  11.482   2.283 -0.2733  0.0144 -0.4368
27237SOL    HW186268  11.880  11.440   2.360  2.3047 -1.8399  0.0514
27237SOL    HW286269  11.965  11.559   2.319 -2.5313  1.5818 -0.8419
27238SOL     OW86270   2.601   1.221   8.256  0.4121 -0.4236  0.0121
27238SOL    HW186271   2.633   1.295   8.308  0.3421  0.5008 -1.2095
27238SOL    HW286272   2.569   1.159   8.320  1.6384  0.0480  1.1418
27239SOL     OW86273  10.369   3.872   7.074  0.2647 -0.4273  0.0027
27239SOL    HW186274  10.348   3.960   7.042  2.4214  0.2463  0.2473
27239SOL    HW286275  10.301   3.853   7.138 -1.4117  0.1928 -1.5148
27240SOL     OW86276   0.614  11.321   4.215  0.1359  0.2498  0.1322
27240SOL    HW186277   0.549  11.345   4.283  0.3060 -0.9660  0.7440
27240SOL    HW286278   0.580  11.240   4.177  0.1480  0.8153 -1.1359
27241SOL     OW86279  11.996   0.959   8.666  0.2202  0.1845 -0.2357
27241SOL    HW186280  12.063   1.003   8.614  0.8032 -1.6231 -1.1027
27241SOL    HW286281  12.044   0.892   8.715 -1.0456 -2.3811 -2.2418
27242SOL     OW86282  10.488   7.727   2.996 -0.3754 -0.2575  0.2367
27242SOL    HW186283  10.580   7.735   2.968 -0.8817  0.1370 -1.4745
27242SOL    HW286284  10.481   7.783   3.073  0.3670  1.3828 -0.8416
27243SOL     OW86285   2.056   7.660   2.092  0.1523  0.3083  0.3528
27243SOL    HW186286   2.079   7.745   2.130 -0.1773  0.0667  1.1058
27243SOL    HW286287   1.976   7.634   2.137 -1.7644  1.1908 -2.2723
27244SOL     OW86288   4.321   5.070   2.405 -0.3493  0.4142  0.1474
27244SOL    HW186289   4.264   5.139   2.371  0.6322  1.3896  0.4311
27244SOL    HW286290   4.403   5.115   2.426  0.0745 -0.7153  0.9936
27245SOL     OW86291   3.190   0.228  11.172  0.0218  0.3889 -0.0845
27245SOL    HW186292   3.142   0.271  11.102 -2.2707 -0.0847  1.0930
27245SOL    HW286293   3.207   0.298  11.236  0.6403  0.4918 -0.3566
27246SOL     OW86294  11.413   1.975   7.901  0.2508 -0.4567 -0.2847
27246SOL    HW186295  11.428   1.885   7.870  0.0761 -0.3896 -0.5727
27246SOL    HW286296  11.388   1.965   7.992 -0.8713 -0.7861 -0.6173
27247SOL     OW86297   5.318   0.737   5.488  0.4835 -0.1757  0.3441
27247SOL    HW186298   5.228   0.722   5.458 -0.3889  0.5432  2.4348
27247SOL    HW286299   5.343   0.820   5.448 -0.9384  1.1587  2.0085
27248SOL     OW86300   6.361   6.332   4.006  0.0864  0.2856  0.5858
27248SOL    HW186301   6.437   6.387   3.985  0.4453  0.6072  2.4941
27248SOL    HW286302   6.341   6.286   3.924  0.6344  2.2054 -0.7063
27249SOL     OW86303   7.854   5.773   5.765  0.1263  0.5349  0.0944
27249SOL    HW186304   7.900   5.698   5.727 -0.8840  0.0670 -0.2569
27249SOL    HW286305   7.843   5.834   5.693 -0.1834  0.4557  0.0746
27250SOL     OW86306   6.170  11.491   4.556  0.5641 -0.5688  0.0516
27250SOL    HW186307   6.263  11.489   4.578  0.8584  0.0949 -1.1036
27250SOL    HW286308   6.166  11.468   4.464 -0.4516 -0.8813  0.1619
27251SOL     OW86309   6.444   5.268   8.269 -0.3517  0.0902 -0.0426
27251SOL    HW186310   6.447   5.318   8.188 -1.6492 -0.5598 -0.5157
27251SOL    HW286311   6.352   5.242   8.279 -0.3927  0.8498  2.0753
27252SOL     OW86312   2.114   9.059   5.395  0.1019  0.2300 -0.7597
27252SOL    HW186313   2.023   9.073   5.421  0.6232  0.0325  1.3427
27252SOL    HW286314   2.121   8.965   5.379 -0.0351  0.2268 -0.7945
27253SOL     OW86315   9.607   9.102   9.256 -0.7752 -0.3891  0.2810
27253SOL    HW186316   9.597   9.007   9.255  0.9836 -0.6124  0.2258
27253SOL    HW286317   9.567   9.132   9.174 -1.8956 -1.0044  0.5936
27254SOL     OW86318   5.340   6.853   4.893  0.2304  0.1400 -0.4783
27254SOL    HW186319   5.354   6.901   4.812  0.5056  0.9681  0.0448
27254SOL    HW286320   5.314   6.921   4.956  2.1726 -0.1124  0.6885
27255SOL     OW86321   8.917   7.019  10.700 -0.1579  0.1032 -0.2112
27255SOL    HW186322   8.973   6.983  10.769  0.4914 -0.9296 -1.2294
27255SOL    HW286323   8.863   7.084  10.744 -0.9894 -1.7121  1.6189
27256SOL     OW86324   0.444   4.534   8.780  0.3146  0.1672  0.0603
27256SOL    HW186325   0.537   4.556   8.779  0.6011 -0.5538 -3.9298
27256SOL    HW286326   0.400   4.614   8.750 -0.2273 -0.0117  0.3513
27257SOL     OW86327   0.151   7.574  11.734  0.7000  0.0931 -0.5424
27257SOL    HW186328   0.113   7.585  11.821  0.6905  0.9762 -0.6558
27257SOL    HW286329   0.173   7.481  11.730 -1.0761 -0.3694 -0.3297
27258SOL     OW86330   5.763   8.142   1.197  0.5436 -0.3788  0.3539
27258SOL    HW186331   5.816   8.151   1.118  1.2961 -1.1788  0.7485
27258SOL    HW286332   5.728   8.230   1.212 -0.2658 -0.3719 -1.2910
27259SOL     OW86333   6.983   4.999   3.097 -0.2589  0.3608  0.0454
27259SOL    HW186334   7.062   4.971   3.143 -1.1023 -0.1941  1.2181
27259SOL    HW286335   6.920   4.929   3.114 -2.0620  2.2951  1.9681
27260SOL     OW86336   7.794   1.407  11.296 -0.4782  0.2756  0.1325
27260SOL    HW186337   7.731   1.395  11.368 -1.5081 -0.9628 -0.9198
27260SOL    HW286338   7.827   1.496  11.307 -2.5864  1.0465  0.6020
27261SOL     OW86339   2.001   0.342   6.748 -0.8326  0.1592 -0.3229
27261SOL    HW186340   2.030   0.310   6.833  1.6770  1.1157 -0.7372
27261SOL    HW286341   1.993   0.263   6.694  0.9783 -0.2102 -0.1217
27262SOL     OW86342  11.893   5.447  11.680 -0.3206  0.7375  0.4418
27262SOL    HW186343  11.885   5.373  11.619 -1.6998  0.6201  0.7365
27262SOL    HW286344  11.964   5.421  11.739  0.6459  0.5968 -0.7208
27263SOL     OW86345   0.496   4.672   5.885 -0.6728 -0.0521  0.1082
27263SOL    HW186346   0.589   4.652   5.894 -0.3521  0.9931 -0.7167
27263SOL    HW286347   0.458   4.592   5.848 -0.3042 -0.8536  1.4085
27264SOL     OW86348   2.801   1.109   4.642 -0.0016 -0.3333  0.1464
27264SOL    HW186349   2.773   1.172   4.708 -0.3123 -1.0944  0.7453
27264SOL    HW286350   2.788   1.023   4.682  0.0647 -0.8014 -0.7974
27265SOL     OW86351   3.549   2.451   5.524  0.8851 -0.5912 -0.2213
27265SOL    HW186352   3.520   2.383   5.463 -0.9632 -1.9223  1.9954
27265SOL    HW286353   3.511   2.532   5.490 -0.6792 -1.4090 -0.5096
27266SOL     OW86354   1.733   2.199   5.135 -0.0920  0.1990 -0.8901
27266SOL    HW186355   1.668   2.187   5.204  0.8332 -0.5149 -0.1087
27266SOL    HW286356   1.785   2.275   5.164  0.2825 -0.0856 -0.8091
27267SOL     OW86357   7.016   9.479  11.960  0.0381 -0.0732 -0.1155
27267SOL    HW186358   7.102   9.497  11.998 -0.1308 -1.7700  1.1641
27267SOL    HW286359   6.958   9.470  12.036 -0.6732 -1.8077 -0.8283
27268SOL     OW86360   6.428   0.383   8.510 -0.1068 -0.1776  0.5057
27268SOL    HW186361   6.348   0.396   8.460  0.5746 -0.9595 -0.8292
27268SOL    HW286362   6.454   0.293   8.492  2.4693  0.8021 -1.2435
27269SOL     OW86363   0.558   1.978   5.844  0.4598  0.0682  0.2530
27269SOL    HW186364   0.653   1.982   5.848  0.7636 -0.3243 -3.0635
27269SOL    HW286365   0.530   2.069   5.840  0.8709  0.1817 -0.2447
27270SOL     OW86366   4.043   3.654   4.711  0.1054 -0.4056 -0.1833
27270SOL    HW186367   4.082   3.568   4.698  2.1958  0.5686 -0.8480
27270SOL    HW286368   3.992   3.669   4.631 -0.1042 -0.9165 -0.1511
27271SOL     OW86369  11.790   4.305  10.140  0.1078 -0.3116 -0.6073
27271SOL    HW186370  11.734   4.329  10.066  0.6598 -0.6219 -1.1423
27271SOL    HW286371  11.879   4.327  10.111  0.2674  0.2002  0.2365
27272SOL     OW86372   4.313   0.956   2.636  0.4282  0.0532  0.2743
27272SOL    HW186373   4.255   0.882   2.617 -0.4585  0.7528  0.2010
27272SOL    HW286374   4.254   1.031   2.645  1.3179  0.7632  0.2951
27273SOL     OW86375   5.900   0.555  11.700  0.1696  0.7213  0.0145
27273SOL    HW186376   5.906   0.596  11.614 -1.1166  2.5696  0.7486
27273SOL    HW286377   5.806   0.550  11.718  0.2854 -2.0358  0.2651
27274SOL     OW86378  10.191   1.865  10.970  0.1713  0.1412  0.2619
27274SOL    HW186379  10.187   1.933  10.904 -1.5466 -0.5160 -0.3960
27274SOL    HW286380  10.242   1.902  11.041 -0.4249  1.9839 -0.2226
27275SOL     OW86381  11.997   2.383   8.036  0.6913 -0.0109  0.3186
27275SOL    HW186382  11.993   2.300   7.988  0.3319  0.6769 -0.8839
27275SOL    HW286383  11.908   2.417   8.030  1.4884  1.9512 -1.9844
27276SOL     OW86384   7.306  11.947   5.292 -0.3221  0.3932 -0.1416
27276SOL    HW186385   7.251  11.879   5.331  0.5997  0.2606  0.9982
27276SOL    HW286386   7.339  11.908   5.211 -0.2116 -0.3392  0.2460
27277SOL     OW86387  12.006   5.269   8.285  0.3116 -0.4150 -0.1425
27277SOL    HW186388  12.067   5.339   8.263 -1.0345 -0.0415 -3.0685
27277SOL    HW286389  12.038   5.193   8.236 -0.6050 -0.6794 -0.3458
27278SOL     OW86390   3.310   3.674   3.534  0.2903 -0.6284 -0.5900
27278SOL    HW186391   3.354   3.736   3.592  1.7054 -0.2013 -2.0523
27278SOL    HW286392   3.324   3.589   3.575  0.0443 -0.2032  0.4066
27279SOL     OW86393   5.791   5.019   4.079  0.6558  0.1276  0.4805
27279SOL    HW186394   5.859   5.019   4.146  0.3042 -1.3807  0.8619
27279SOL    HW286395   5.831   4.976   4.004  0.2508 -0.4070  0.5701
27280SOL     OW86396   4.537  12.102   3.841  0.2485  0.3484 -0.3323
27280SOL    HW186397   4.539  12.166   3.770 -0.0316  1.0760  0.2930
27280SOL    HW286398   4.471  12.137   3.902  0.4490 -0.2833  0.2536
27281SOL     OW86399   7.730   2.796  11.901 -0.3424 -0.1527 -0.0796
27281SOL    HW186400   7.648   2.827  11.941  0.2448  3.7029 -1.3907
27281SOL    HW286401   7.712   2.796  11.807  0.5342 -1.5857 -0.2692
27282SOL     OW86402   3.022   0.022   4.161 -0.4558 -0.0890 -0.3397
27282SOL    HW186403   2.989  -0.054   4.114 -1.3171  0.6167 -0.9336
27282SOL    HW286404   2.947   0.053   4.212 -0.3585  0.8244 -0.7340
27283SOL     OW86405  10.315  11.983   4.313  0.1401 -0.8875  0.4359
27283SOL    HW186406  10.302  12.039   4.389 -0.8856  2.3797 -1.9114
27283SOL    HW286407  10.288  11.896   4.342 -2.0743  0.5871  3.2389
27284SOL     OW86408   5.395   0.913   3.215 -0.1488 -0.5865  0.4555
27284SOL    HW186409   5.315   0.895   3.165  0.2879 -0.9496 -0.1246
27284SOL    HW286410   5.416   1.004   3.195  0.1532 -0.7999 -0.2129
27285SOL     OW86411   7.329   4.585   9.289 -0.0290  0.3877 -0.2608
27285SOL    HW186412   7.290   4.613   9.206 -0.8469 -0.0446 -0.0359
27285SOL    HW286413   7.322   4.662   9.345  1.5849  1.0577 -0.9298
27286SOL     OW86414   2.821   0.001   7.245  0.3282  0.1679  0.5963
27286SOL    HW186415   2.882  -0.064   7.280  0.1722  0.1467  0.8308
27286SOL    HW286416   2.873   0.082   7.240  1.2502 -0.5070 -2.0312
27287SOL     OW86417  11.589   3.357   5.899  0.5340 -0.1247  0.0096
27287SOL    HW186418  11.573   3.309   5.818  0.1280 -0.0321  0.0314
27287SOL    HW286419  11.596   3.289   5.966  3.4809 -0.4266 -0.4463
27288SOL     OW86420   9.085   6.011   6.592  0.2634  0.2192  0.0969
27288SOL    HW186421   9.099   5.988   6.683  4.1218  2.1122  0.2082
27288SOL    HW286422   9.119   5.936   6.543  0.7636  0.3093  0.2960
27289SOL     OW86423   1.567   3.648  10.399  0.0368  0.2096  0.0403
27289SOL    HW186424   1.547   3.635  10.491  0.1914 -0.9969 -0.0853
27289SOL    HW286425   1.648   3.700  10.399 -0.4788  1.0305  0.5629
27290SOL     OW86426   6.338   8.316  10.164 -0.4329 -0.0716 -0.7936
27290SOL    HW186427   6.419   8.367  10.171 -1.4744  1.3987  2.1610
27290SOL    HW286428   6.367   8.227  10.142  1.8458  0.6505 -0.9951
27291SOL     OW86429   8.060   8.652  10.026 -0.5373  0.1386  0.0239
27291SOL    HW186430   8.132   8.634  10.086 -1.0683 -3.0330 -0.1230
27291SOL    HW286431   8.072   8.589   9.955 -2.6286  0.5087 -0.7170
27292SOL     OW86432   9.054   1.709   9.911 -0.4486 -0.2123  0.3102
27292SOL    HW186433   9.132   1.694   9.858 -1.2687  0.6949 -1.2673
27292SOL    HW286434   9.026   1.798   9.887 -3.0647 -1.2090 -0.7268
27293SOL     OW86435   5.417  11.090  10.287 -0.1261  0.2306 -0.4233
27293SOL    HW186436   5.400  11.071  10.380 -0.5632  1.5388 -0.2224
27293SOL    HW286437   5.385  11.012  10.241  1.9271 -1.3422  0.6300
27294SOL     OW86438  10.078   1.081   0.590 -0.4273 -0.0011 -0.9862
27294SOL    HW186439  10.029   1.089   0.508 -0.7467 -1.4568 -0.9751
27294SOL    HW286440  10.106   0.989   0.592 -0.7493 -0.0909  0.7245
27295SOL     OW86441   9.983   6.163   4.338 -0.8082  0.2944 -0.2205
27295SOL    HW186442   9.896   6.187   4.305 -1.0095  0.7578  0.6315
27295SOL    HW286443   9.986   6.197   4.427  0.5553  1.0319 -0.5012
27296SOL     OW86444  11.661   3.639   4.642  0.5427 -0.3859 -0.4162
27296SOL    HW186445  11.632   3.661   4.553 -1.0977 -0.5938  0.0348
27296SOL    HW286446  11.717   3.713   4.667  1.1430 -0.3840 -1.6497
27297SOL     OW86447  10.741   5.622   3.232 -0.0963 -0.1832 -0.4210
27297SOL    HW186448  10.823   5.589   3.197  0.7647 -0.5893  1.8274
27297SOL    HW286449  10.674   5.569   3.189  0.6496  0.9286 -3.1768
27298SOL     OW86450   2.153   9.536   9.853 -0.3966  0.1226  1.0611
27298SOL    HW186451   2.104   9.522   9.772  0.3916 -0.5464  0.6866
27298SOL    HW286452   2.154   9.450   9.895  2.4699 -0.5213 -0.1056
27299SOL     OW86453   5.520   7.195   5.741  0.2630  0.5800 -0.2125
27299SOL    HW186454   5.475   7.246   5.673 -0.0017 -0.5118 -0.8780
27299SOL    HW286455   5.602   7.242   5.755 -0.1577  1.4312 -0.4882
27300SOL     OW86456   5.849   2.113   1.435  0.0403 -0.1844 -0.4061
27300SOL    HW186457   5.843   2.203   1.465 -0.6390 -0.2971 -0.1822
27300SOL    HW286458   5.943   2.096   1.429  0.1804  0.7427 -1.0802
27301SOL     OW86459  10.794   7.939  11.117 -0.2993  0.1883 -0.3193
27301SOL    HW186460  10.813   7.878  11.188 -2.0734 -1.5872 -1.2640
27301SOL    HW286461  10.819   8.025  11.152  1.5839 -0.9364  1.3340
27302SOL     OW86462   8.885   9.336  11.250 -0.6704 -0.0019  0.6548
27302SOL    HW186463   8.867   9.260  11.195  0.6303  0.1031  0.0420
27302SOL    HW286464   8.800   9.360  11.286 -1.4123 -0.6388 -0.5829
27303SOL     OW86465   4.339   8.539  10.535 -0.0894 -0.8125 -0.0679
27303SOL    HW186466   4.412   8.493  10.577  0.9183  0.1662 -0.6652
27303SOL    HW286467   4.329   8.619  10.588  1.0322  0.3147 -1.4829
27304SOL     OW86468   2.062  10.561   1.047 -0.1384 -0.0231 -0.6146
27304SOL    HW186469   2.060  10.657   1.045  0.6013  0.0198 -0.1023
27304SOL    HW286470   2.028  10.534   0.962 -1.6470  0.6565 -0.2713
27305SOL     OW86471   9.497   0.741   9.493  0.2462 -0.1296 -0.2550
27305SOL    HW186472   9.430   0.739   9.425  0.2055  2.3688 -0.3861
27305SOL    HW286473   9.573   0.698   9.452 -0.5883 -1.0424 -0.8850
27306SOL     OW86474   1.240  10.379   7.764 -0.2307  0.5801  0.9190
27306SOL    HW186475   1.282  10.461   7.790  1.1026  0.0288  0.5626
27306SOL    HW286476   1.283  10.313   7.817  0.0524 -0.1243 -0.1702
27307SOL     OW86477   6.246  10.753  11.254 -0.0840 -0.6339 -0.2957
27307SOL    HW186478   6.217  10.764  11.345 -1.9445  1.8200 -1.0858
27307SOL    HW286479   6.307  10.825  11.239 -0.4018 -0.5384 -1.2034
27308SOL     OW86480   5.637   1.902   2.210  0.0390 -0.0732 -0.3083
27308SOL    HW186481   5.558   1.931   2.255  0.2704 -0.2093  0.1892
27308SOL    HW286482   5.693   1.979   2.208  0.4889 -0.3680  0.6515
27309SOL     OW86483   8.475  10.680   4.811 -0.3479 -0.5680 -0.0928
27309SOL    HW186484   8.482  10.673   4.906 -1.4198 -2.2083 -0.0846
27309SOL    HW286485   8.463  10.774   4.794  0.0465 -0.2390  1.3619
27310SOL     OW86486   4.025   9.136   6.607 -0.5943  0.0666  1.1351
27310SOL    HW186487   3.962   9.115   6.676 -0.8309  1.2748  1.3113
27310SOL    HW286488   4.029   9.232   6.606 -0.1931  0.0622 -0.1712
27311SOL     OW86489   0.018   8.039  11.568  0.7028 -0.0252  0.0722
27311SOL    HW186490  -0.048   8.065  11.633  1.7433  0.1401  1.0954
27311SOL    HW286491   0.029   7.945  11.582  0.4338 -0.1205 -0.3431
27312SOL     OW86492   8.672   9.798  11.121 -0.2580  0.0657 -0.4489
27312SOL    HW186493   8.742   9.848  11.164 -0.1674 -0.7090  0.3310
27312SOL    HW286494   8.602   9.794  11.187 -0.5589 -0.1968 -0.7799
27313SOL     OW86495   7.299   9.857   7.457  0.2044  0.5559  0.4172
27313SOL    HW186496   7.271   9.817   7.375  0.9362 -0.3648  0.5947
27313SOL    HW286497   7.234   9.828   7.522 -0.2638  1.1221  0.2025
27314SOL     OW86498   5.690   3.521   7.697 -0.2592  0.0298  0.2810
27314SOL    HW186499   5.612   3.569   7.669  0.3609  1.0208  0.2212
27314SOL    HW286500   5.680   3.512   7.792 -0.7923 -0.4939  0.1825
27315SOL     OW86501   0.117  11.301   1.865  0.2673  0.1247 -0.2833
27315SOL    HW186502   0.052  11.275   1.801 -0.1571  0.4848 -0.0049
27315SOL    HW286503   0.144  11.219   1.907  0.7335 -0.1405 -1.0879
27316SOL     OW86504   6.198  10.368   8.439 -0.5105  0.1591  0.2228
27316SOL    HW186505   6.110  10.378   8.402 -0.5830 -0.7602  0.1217
27316SOL    HW286506   6.247  10.320   8.373 -0.5681 -1.2743  1.1847
27317SOL     OW86507   1.088   3.047  11.581 -0.7936 -0.5820 -0.1027
27317SOL    HW186508   1.014   3.084  11.629 -0.4443 -0.6632  0.5102
27317SOL    HW286509   1.146   3.121  11.564 -0.8835 -0.5655 -0.3414
27318SOL     OW86510   1.370   5.139   5.200  0.2950 -0.5178  0.3480
27318SOL    HW186511   1.360   5.139   5.295  0.8721  1.2406  0.4337
27318SOL    HW286512   1.329   5.220   5.171  1.3684 -0.3301 -0.7381
27319SOL     OW86513   5.577   2.024   3.179  0.3376 -0.2370  0.5969
27319SOL    HW186514   5.529   2.059   3.104 -1.3374  0.1765  1.7911
27319SOL    HW286515   5.668   2.053   3.165 -0.4255  2.1901  0.0875
27320SOL     OW86516   3.581   9.847   5.473  0.4376 -0.4721 -0.0974
27320SOL    HW186517   3.539   9.768   5.438 -2.7773 -0.1175  2.4658
27320SOL    HW286518   3.614   9.821   5.558 -2.7757  1.2508  1.8816
27321SOL     OW86519  10.185  11.160   7.054 -0.7031  0.4963 -0.0926
27321SOL    HW186520  10.217  11.073   7.078  1.1714  1.4813  1.2437
27321SOL    HW286521  10.119  11.181   7.121 -0.6656  0.3646 -0.0145
27322SOL     OW86522   5.658   2.971   4.197 -0.8607 -0.2035  0.7078
27322SOL    HW186523   5.702   3.054   4.217 -1.7867  0.5146 -0.1399
27322SOL    HW286524   5.726   2.905   4.205 -0.0733  0.6553  1.2636
27323SOL     OW86525   7.968   8.168  11.078  0.6070  0.6625  0.5097
27323SOL    HW186526   7.896   8.124  11.033  0.4813  0.1720  1.1782
27323SOL    HW286527   8.029   8.098  11.101  0.1834  0.7342  1.9977
27324SOL     OW86528   7.596   1.959   6.051  0.4176 -0.2299 -0.0969
27324SOL    HW186529   7.530   1.978   6.118 -1.1395 -0.7967 -1.3999
27324SOL    HW286530   7.574   1.870   6.021  1.3551 -0.1572 -1.0469
27325SOL     OW86531  11.751   6.035  11.511  0.9467 -0.6330 -0.7745
27325SOL    HW186532  11.824   6.086  11.476  1.4516  1.1069  2.4512
27325SOL    HW286533  11.754   6.048  11.605 -1.9143 -2.7676 -0.2089
27326SOL     OW86534   5.126   4.708   7.833  0.2362  0.4138  0.0722
27326SOL    HW186535   5.109   4.643   7.901  1.6652  0.3094  0.3519
27326SOL    HW286536   5.159   4.657   7.759  0.3282  0.7151 -0.0935
27327SOL     OW86537   1.834  12.046   0.437 -0.6814  0.1222  0.0524
27327SOL    HW186538   1.844  11.951   0.432  0.3740  0.1795  0.8647
27327SOL    HW286539   1.748  12.063   0.397 -1.0644 -1.2045  0.2740
27328SOL     OW86540  11.853  10.183   9.257  0.4418 -0.2075 -0.4581
27328SOL    HW186541  11.905  10.103   9.269  1.1235  0.4615  1.6697
27328SOL    HW286542  11.884  10.241   9.327 -2.1282  0.8012 -0.0654
27329SOL     OW86543  10.106   6.705   9.442  0.2457  0.1703 -0.3008
27329SOL    HW186544  10.133   6.751   9.521 -3.0036  0.1683  0.9864
27329SOL    HW286545  10.151   6.620   9.447  1.0761  0.6567  0.8885
27330SOL     OW86546   9.713   4.213  11.101 -0.5251  0.2462  0.3867
27330SOL    HW186547   9.712   4.212  11.005  3.0750  0.9743  0.1813
27330SOL    HW286548   9.754   4.130  11.125  0.2019  0.8165  1.1744
27331SOL     OW86549   3.774   4.195   8.073 -0.0161  0.2747  0.2834
27331SOL    HW186550   3.704   4.234   8.125  0.5853  0.1373  1.2115
27331SOL    HW286551   3.854   4.234   8.108  0.3662  0.6919 -0.9932
27332SOL     OW86552   8.608   6.785   4.266 -0.1774 -0.1799  0.2912
27332SOL    HW186553   8.526   6.819   4.300  0.3918  2.5138 -0.7795
27332SOL    HW286554   8.657   6.757   4.343 -1.3607 -0.0549  1.1036
27333SOL     OW86555   5.208   4.766   3.355 -0.0019  0.0386  0.0211
27333SOL    HW186556   5.260   4.845   3.357  0.4425 -0.2507 -0.0302
27333SOL    HW286557   5.117   4.797   3.361  0.1755  0.5350  0.1899
27334SOL     OW86558   9.414   2.451   3.784 -0.6764 -0.6868 -0.1559
27334SOL    HW186559   9.432   2.376   3.727  2.4456  0.6525 -1.1597
27334SOL    HW286560   9.458   2.429   3.866  1.5250  0.5645 -0.9424
27335SOL     OW86561  11.771   7.409   5.214  0.0997 -0.3628 -0.0274
27335SOL    HW186562  11.787   7.490   5.263  2.3321 -1.5524  1.3315
27335SOL    HW286563  11.737   7.348   5.279  0.3301 -1.1169 -0.6049
27336SOL     OW86564   2.050   3.720   3.038  0.2115  0.0750  0.4084
27336SOL    HW186565   2.031   3.810   3.065 -2.7657  0.2396 -1.7140
27336SOL    HW286566   2.112   3.729   2.965 -2.2177  0.7825 -1.7133
27337SOL     OW86567   8.291  10.295   2.749 -0.0308  0.2253  0.2045
27337SOL    HW186568   8.308  10.335   2.663  0.7954  0.5154  0.4944
27337SOL    HW286569   8.202  10.260   2.742  0.4199 -0.7235 -1.1315
27338SOL     OW86570   5.177   3.093   4.310 -0.1895 -0.3770 -0.3009
27338SOL    HW186571   5.125   3.165   4.274 -1.8252 -1.4242 -0.1301
27338SOL    HW286572   5.267   3.113   4.284 -0.6727  1.4387 -0.7075
27339SOL     OW86573   4.101   5.377   4.679 -0.1248  0.4002  0.1105
27339SOL    HW186574   4.156   5.454   4.665  0.1399  0.2373  0.2429
27339SOL    HW286575   4.015   5.403   4.647 -0.1827  0.9511  0.6719
27340SOL     OW86576   4.701   2.622   1.051 -0.1318  0.0483 -0.0496
27340SOL    HW186577   4.688   2.587   1.139 -1.4354  1.3056  0.2938
27340SOL    HW286578   4.677   2.714   1.058 -0.0108  0.2294 -1.6627
27341SOL     OW86579   5.143   4.549   7.601  0.4242 -0.1866  0.3009
27341SOL    HW186580   5.110   4.622   7.548 -0.0144 -0.0935  0.6917
27341SOL    HW286581   5.221   4.519   7.555  1.1840  1.1672  0.6575
27342SOL     OW86582   9.103   5.246   4.186  0.1979  0.1001 -0.4438
27342SOL    HW186583   9.033   5.187   4.157 -1.6969  1.9144  0.1546
27342SOL    HW286584   9.101   5.318   4.123  1.3794  0.3021 -0.2697
27343SOL     OW86585   9.666   2.939   0.770 -0.1094 -0.3683 -0.6785
27343SOL    HW186586   9.752   2.962   0.803 -0.2959 -0.9709  0.2645
27343SOL    HW286587   9.650   2.851   0.803 -1.1880 -0.1688 -0.6215
27344SOL     OW86588   6.005   0.610   2.536  0.0671  0.1046  0.0641
27344SOL    HW186589   5.944   0.629   2.607  0.3967  2.4739 -0.2259
27344SOL    HW286590   5.954   0.626   2.456  0.4159 -0.1181 -0.2042
27345SOL     OW86591   4.909  11.346   1.714  0.1743  0.2087 -0.1215
27345SOL    HW186592   4.815  11.352   1.733  0.5112  0.7492  1.5372
27345SOL    HW286593   4.919  11.263   1.668 -1.1414  0.2485 -0.5214
27346SOL     OW86594   2.714   1.275   6.842  0.0189 -0.2172  0.6224
27346SOL    HW186595   2.808   1.293   6.851 -0.4096  2.3723  0.5485
27346SOL    HW286596   2.678   1.354   6.801 -2.4253 -0.5484  1.9710
27347SOL     OW86597   6.253   1.745   7.679  0.1924  0.8811  0.1560
27347SOL    HW186598   6.317   1.794   7.629  0.1057 -0.7642 -1.7100
27347SOL    HW286599   6.302   1.710   7.753  1.6157 -0.5358 -1.3473
27348SOL     OW86600  10.756   0.020  10.239  0.3635  0.1817 -0.4505
27348SOL    HW186601  10.679   0.068  10.271  2.0271  1.9743  1.1139
27348SOL    HW286602  10.758  -0.060  10.292 -0.7751 -0.2305 -0.9943
27349SOL     OW86603   2.652   3.602   3.754 -0.7395 -0.3952 -0.2107
27349SOL    HW186604   2.705   3.522   3.761  0.8227  0.4841 -1.3423
27349SOL    HW286605   2.666   3.647   3.837 -0.9963 -0.9026  0.1183
27350SOL     OW86606  10.892  10.757   5.026  0.0175 -0.2185 -0.5949
27350SOL    HW186607  10.808  10.711   5.023 -0.7728  1.1896 -0.6962
27350SOL    HW286608  10.937  10.720   5.102 -0.7322 -0.9074 -0.4766
27351SOL     OW86609  11.243   7.543   4.802 -0.2511  0.1941  0.3712
27351SOL    HW186610  11.234   7.461   4.754  2.4640  1.5563 -2.8682
27351SOL    HW286611  11.317   7.528   4.861  0.1123  0.2360 -0.0701
27352SOL     OW86612   9.246   0.598   3.558 -0.2250  0.2093 -0.0382
27352SOL    HW186613   9.168   0.649   3.577  0.0503  1.5774 -2.2152
27352SOL    HW286614   9.248   0.591   3.462  2.6144  0.7780 -0.1159
27353SOL     OW86615   5.173   3.215   5.093  0.1169 -0.3283  0.1218
27353SOL    HW186616   5.124   3.282   5.046  0.2511  0.1256  0.6234
27353SOL    HW286617   5.257   3.256   5.113 -0.3638 -0.0571  1.8138
27354SOL     OW86618   4.505  10.004   8.942  0.1455 -0.2890  0.1350
27354SOL    HW186619   4.414   9.998   8.972  0.5416 -0.8226  1.3270
27354SOL    HW286620   4.519  10.097   8.928  0.0259  0.0673  2.0815
27355SOL     OW86621   9.671   7.223   3.622 -0.3965 -0.0127 -0.1617
27355SOL    HW186622   9.649   7.314   3.641  0.5589 -0.0201  1.1230
27355SOL    HW286623   9.697   7.224   3.530  1.0023  1.3294  0.1990
27356SOL     OW86624   9.276   6.286   6.672  0.3956  0.1344 -0.2521
27356SOL    HW186625   9.248   6.276   6.581  1.8594  2.8601 -1.1272
27356SOL    HW286626   9.244   6.207   6.716 -0.7535 -1.0703 -3.0056
27357SOL     OW86627  11.362  12.026   2.844 -0.0570 -0.5976 -0.6868
27357SOL    HW186628  11.416  11.954   2.812  1.0660 -0.2015  0.2809
27357SOL    HW286629  11.370  12.022   2.939  0.8077  1.3700 -0.6336
27358SOL     OW86630   9.244   0.087   8.147 -0.4051 -0.2517  0.6243
27358SOL    HW186631   9.244   0.114   8.055 -0.6892  1.4691  1.0807
27358SOL    HW286632   9.156   0.054   8.163  0.1066 -2.0488 -0.0918
27359SOL     OW86633   1.623   6.162   3.478  0.3991 -0.4523  0.0302
27359SOL    HW186634   1.648   6.137   3.567  2.6404 -1.9561 -0.9034
27359SOL    HW286635   1.706   6.181   3.434 -0.6493  0.4101 -1.6932
27360SOL     OW86636   5.144   0.332  12.066  0.4614  0.0008 -0.0939
27360SOL    HW186637   5.062   0.297  12.033  0.2339  1.8181 -1.6495
27360SOL    HW286638   5.207   0.261  12.055 -0.0891 -0.1975 -2.5842
27361SOL     OW86639   8.898   7.971  11.654 -0.5121 -0.3565 -0.3887
27361SOL    HW186640   8.830   8.022  11.699 -0.6970  0.4870 -1.5570
27361SOL    HW286641   8.850   7.900  11.611 -0.1376 -2.2019  2.0643
27362SOL     OW86642   2.380   7.970   7.639 -0.2609  0.0229  0.4683
27362SOL    HW186643   2.314   7.906   7.614  0.6417 -0.4379 -0.8057
27362SOL    HW286644   2.395   7.954   7.732  1.3350 -2.9634 -0.1891
27363SOL     OW86645   9.188  11.504   1.199  0.0913 -0.5759  0.4551
27363SOL    HW186646   9.132  11.563   1.148  1.7499  0.8522  0.1572
27363SOL    HW286647   9.129  11.438   1.234 -1.6747  0.5700 -0.2319
27364SOL     OW86648   9.236  12.035   5.743 -0.1173  0.2933 -0.0213
27364SOL    HW186649   9.239  12.086   5.662  0.3297 -0.8632 -0.7651
27364SOL    HW286650   9.232  11.944   5.714 -2.4457 -0.0987  1.2339
27365SOL     OW86651   8.949  10.955   4.334  0.5317  0.1888 -0.2354
27365SOL    HW186652   8.914  10.920   4.416  1.1742  0.8658  0.3332
27365SOL    HW286653   9.033  10.911   4.323  0.7216  0.5440 -0.2175
27366SOL     OW86654  10.513  10.167  10.015  0.6067 -0.0813  0.1035
27366SOL    HW186655  10.500  10.197   9.925  1.8388 -0.1256 -0.1050
27366SOL    HW286656  10.425  10.157  10.050  0.1146  2.5275 -0.2267
27367SOL     OW86657   3.826   8.012   8.695  0.1033  0.3985  0.4774
27367SOL    HW186658   3.912   8.007   8.738 -0.4394 -0.0818  1.5333
27367SOL    HW286659   3.797   8.103   8.709  0.1861  0.4053  0.6035
27368SOL     OW86660   4.465  10.366   5.925 -0.1457 -0.4246 -0.1999
27368SOL    HW186661   4.395  10.306   5.949  0.5868 -1.4305 -0.5000
27368SOL    HW286662   4.426  10.427   5.863 -0.9842 -0.3808  0.3578
27369SOL     OW86663   1.167   0.016   4.818  0.3705  0.1723  0.4568
27369SOL    HW186664   1.124   0.080   4.875  0.4956  0.3179  0.3896
27369SOL    HW286665   1.247  -0.008   4.865  0.0224 -0.3976  0.7669
27370SOL     OW86666   6.611   2.028   7.852 -0.1535 -0.3822  0.3079
27370SOL    HW186667   6.691   1.975   7.847 -0.3929 -0.7552  0.4298
27370SOL    HW286668   6.610   2.078   7.770  0.0574 -0.5843  0.1809
27371SOL     OW86669   1.731   5.209   5.972  0.5257 -0.7624  0.6832
27371SOL    HW186670   1.690   5.269   6.034  1.5218  0.5188  0.1433
27371SOL    HW286671   1.797   5.262   5.927 -1.2539 -1.1673 -2.7321
27372SOL     OW86672  11.308   3.936   4.127 -0.1676  0.5178  0.1272
27372SOL    HW186673  11.245   3.871   4.156 -0.3827 -0.1712 -1.7270
27372SOL    HW286674  11.350   3.968   4.207 -0.6490 -1.2863  1.1402
27373SOL     OW86675  11.414   1.341   8.888 -0.0159  0.0020 -0.0153
27373SOL    HW186676  11.328   1.361   8.851  0.8507  0.2737 -2.0437
27373SOL    HW286677  11.468   1.320   8.812  2.7291  3.5724  0.7049
27374SOL     OW86678   4.693   9.550  10.563 -0.2093 -0.4340  0.5575
27374SOL    HW186679   4.642   9.507  10.632  0.1258  0.0578  1.1186
27374SOL    HW286680   4.778   9.506  10.564 -0.4941 -1.0185 -0.1425
27375SOL     OW86681   1.311  10.431   5.347  0.1221 -0.1947  0.5629
27375SOL    HW186682   1.265  10.349   5.331 -0.1499 -0.0604  0.6509
27375SOL    HW286683   1.396  10.405   5.384  0.3338 -0.4629 -0.1023
27376SOL     OW86684   4.800   8.217  12.030  0.5760 -0.1404  0.1810
27376SOL    HW186685   4.709   8.207  12.057 -0.2304 -0.6792 -2.4463
27376SOL    HW286686   4.847   8.236  12.111 -1.4762 -2.2306  2.0208
27377SOL     OW86687  10.677   9.610   0.014 -0.2404  0.0835 -0.4926
27377SOL    HW186688  10.632   9.610   0.098  0.5309 -1.5946 -0.0650
27377SOL    HW286689  10.607   9.629  -0.050 -1.5857 -2.2802  0.1711
27378SOL     OW86690   7.926  10.829   1.786  0.1414  0.6006  0.3553
27378SOL    HW186691   7.923  10.900   1.850  1.1313  0.2063  0.8726
27378SOL    HW286692   7.957  10.870   1.706  1.2349  0.6732  0.7990
27379SOL     OW86693   0.367  10.517  10.873  0.7203 -0.2852 -0.1906
27379SOL    HW186694   0.336  10.580  10.939 -0.5534 -1.2679  0.1922
27379SOL    HW286695   0.340  10.432  10.907 -0.3614 -0.7903 -2.2017
27380SOL     OW86696   9.796   5.138   0.614  0.2816 -0.1681 -0.1442
27380SOL    HW186697   9.855   5.066   0.633  0.2040  0.0299  0.9272
27380SOL    HW286698   9.737   5.105   0.547  0.5961 -0.9063 -0.0599
27381SOL     OW86699   8.257   6.045   8.392 -0.4034 -0.1642 -0.5866
27381SOL    HW186700   8.345   6.007   8.390 -0.2082  0.3045 -1.1552
27381SOL    HW286701   8.210   5.993   8.458  1.2115  1.5399  2.0954
27382SOL     OW86702   8.433   2.113  11.590 -0.3700  0.2155  0.4828
27382SOL    HW186703   8.441   2.020  11.611 -1.8724  0.2098  1.1122
27382SOL    HW286704   8.522   2.139  11.565  0.0628 -1.3917  0.2300
27383SOL     OW86705   4.715   8.975   1.953 -0.3893  0.4535  0.4998
27383SOL    HW186706   4.777   8.903   1.961  0.1645  0.9164  0.4012
27383SOL    HW286707   4.686   8.972   1.862 -1.3761 -0.4615  0.8262
27384SOL     OW86708  10.228  10.338   0.424  0.5140 -0.0180  0.2212
27384SOL    HW186709  10.302  10.394   0.400 -0.7371  0.9673 -1.6273
27384SOL    HW286710  10.169  10.396   0.471 -0.2039 -0.1034 -0.5543
27385SOL     OW86711   0.785   1.678  11.519 -0.3617  0.1631  0.6839
27385SOL    HW186712   0.851   1.695  11.586  0.2569  0.2104  0.0729
27385SOL    HW286713   0.709   1.645  11.567  0.6020 -1.2831  1.2810
27386SOL     OW86714   3.732   0.334   4.746  0.3495  0.5517  0.1427
27386SOL    HW186715   3.638   0.318   4.755  0.0293  2.8928  1.9731
27386SOL    HW286716   3.773   0.267   4.802 -0.3622  0.7554  0.9206
27387SOL     OW86717   8.193   2.476  12.042 -0.0349 -0.3878 -0.4380
27387SOL    HW186718   8.155   2.478  12.130 -1.8934 -3.7694 -1.0132
27387SOL    HW286719   8.282   2.445  12.055 -1.1924 -3.9086  0.2203
27388SOL     OW86720  11.559   8.212   6.983  0.2231 -0.0299 -0.3735
27388SOL    HW186721  11.632   8.151   6.983  1.4468  1.3427 -1.7942
27388SOL    HW286722  11.511   8.192   7.063  2.4500 -0.6593  0.8994
27389SOL     OW86723   0.205  11.960   3.872 -0.1447 -0.4308  0.5072
27389SOL    HW186724   0.178  12.050   3.892 -0.6884 -0.3535 -0.5210
27389SOL    HW286725   0.213  11.918   3.957  1.2656  0.8969  1.0917
27390SOL     OW86726  10.168   7.885   1.360  0.2941  0.2287  0.5461
27390SOL    HW186727  10.205   7.833   1.430 -0.6813 -2.0419 -0.5045
27390SOL    HW286728  10.231   7.878   1.288 -0.9498 -1.7030 -0.4463
27391SOL     OW86729  10.939   3.785   5.060  0.5340  0.6188 -0.0306
27391SOL    HW186730  10.847   3.772   5.086  0.8406 -0.0332  0.7823
27391SOL    HW286731  10.985   3.797   5.142  1.4582 -0.9361 -0.2800
27392SOL     OW86732   0.140   3.062   2.572  0.3904 -0.0058 -0.3650
27392SOL    HW186733   0.180   3.065   2.485  1.9444  0.3485  0.3105
27392SOL    HW286734   0.047   3.047   2.556  0.4312  1.3220 -2.1430
27393SOL     OW86735   2.546   8.430   9.230  0.2181  0.2334  0.0017
27393SOL    HW186736   2.584   8.507   9.269 -0.7256 -0.3473  2.2003
27393SOL    HW286737   2.452   8.449   9.225 -0.2176 -1.1831  1.7632
27394SOL     OW86738   2.428   7.340  11.792  0.5740  0.0294  0.1232
27394SOL    HW186739   2.377   7.346  11.872  2.2287 -0.7257  1.2777
27394SOL    HW286740   2.365   7.314  11.725 -0.6082 -0.5680  1.4256
27395SOL     OW86741   9.551   0.534   0.082 -0.0522 -0.6329  0.0940
27395SOL    HW186742   9.515   0.619   0.107 -0.6922 -0.2698 -1.8808
27395SOL    HW286743   9.637   0.531   0.124  0.0246  1.0512  0.1153
27396SOL     OW86744   0.958   4.652   1.660 -0.4675 -0.1135 -0.2457
27396SOL    HW186745   0.867   4.624   1.671  0.1715 -1.7475  1.2118
27396SOL    HW286746   1.010   4.573   1.677  1.2804  1.1356  0.4854
27397SOL     OW86747  10.056  10.865   9.062 -0.0415 -0.0136  0.0199
27397SOL    HW186748  10.011  10.885   8.980  1.1784  0.5774 -0.5409
27397SOL    HW286749  10.147  10.891   9.046  0.1533  0.4685  1.6830
27398SOL     OW86750   5.070   2.722   3.954 -0.0648 -0.2528 -0.6588
27398SOL    HW186751   5.026   2.786   4.011  0.5340 -0.6759  0.3036
27398SOL    HW286752   5.074   2.642   4.007  0.7883 -0.5620 -1.1815
27399SOL     OW86753   2.401   3.512   8.759  0.2921  0.3904 -0.0737
27399SOL    HW186754   2.452   3.459   8.821 -0.1717 -0.0042 -0.0179
27399SOL    HW286755   2.340   3.562   8.814  0.4247  0.6455 -0.1578
27400SOL     OW86756   7.423  11.810   9.511 -0.3913  0.2387  0.0578
27400SOL    HW186757   7.435  11.901   9.483  1.3279  0.0382  0.0304
27400SOL    HW286758   7.512  11.778   9.527 -1.0392 -1.0723  1.2561
27401SOL     OW86759   9.482   6.026   4.278  0.3045 -0.4137 -0.2984
27401SOL    HW186760   9.452   6.088   4.344 -0.2084 -1.8306  0.8399
27401SOL    HW286761   9.406   6.014   4.220  0.4832  0.1751 -0.6695
27402SOL     OW86762   7.946   7.428   8.670 -0.2823 -0.0172 -0.2023
27402SOL    HW186763   7.871   7.416   8.728 -0.1757  1.1234  0.1837
27402SOL    HW286764   7.932   7.513   8.629 -0.1233 -0.6103 -1.5204
27403SOL     OW86765  11.214   5.139   8.949 -0.0386 -0.3269  0.4915
27403SOL    HW186766  11.236   5.081   8.876 -0.9433 -0.4245  0.2969
27403SOL    HW286767  11.189   5.221   8.908  0.0615 -0.1814  0.7185
27404SOL     OW86768   8.810   1.657   5.566 -0.1440 -0.3401  0.2072
27404SOL    HW186769   8.802   1.751   5.578  1.1394 -0.3475  1.3916
27404SOL    HW286770   8.794   1.620   5.652 -0.6330 -1.2127 -0.2477
27405SOL     OW86771   0.255   5.611   6.487 -0.4107 -0.1106 -0.0624
27405SOL    HW186772   0.323   5.587   6.424 -0.2038  2.2074 -0.8360
27405SOL    HW286773   0.295   5.593   6.572  1.8135  2.3912 -0.4286
27406SOL     OW86774   5.773   2.731  10.018 -0.4702  0.2908  0.4971
27406SOL    HW186775   5.783   2.807   9.961 -0.1691  1.5791  2.1957
27406SOL    HW286776   5.862   2.696  10.027 -0.4717  0.2655  0.4138
27407SOL     OW86777   6.737   1.094   1.887 -0.0811  0.4159  0.2646
27407SOL    HW186778   6.711   1.003   1.904  0.9240 -0.1612 -1.0952
27407SOL    HW286779   6.685   1.146   1.948 -0.9096 -1.0494  0.8491
27408SOL     OW86780   2.397   4.721   5.820  0.3390  0.1281 -0.9116
27408SOL    HW186781   2.388   4.738   5.914 -3.2450 -0.4837 -1.0056
27408SOL    HW286782   2.397   4.625   5.813  0.6231  0.1708 -1.5459
27409SOL     OW86783   8.826  10.482   8.197 -0.0467  0.2233  0.1508
27409SOL    HW186784   8.798  10.471   8.287  0.8024  2.4529  0.7590
27409SOL    HW286785   8.891  10.413   8.183 -1.5440 -1.3147  0.5920
27410SOL     OW86786  11.436  11.585   2.112 -0.0341  0.1260  0.0922
27410SOL    HW186787  11.376  11.515   2.138  0.6957 -0.0863  1.2708
27410SOL    HW286788  11.413  11.659   2.168  1.3106 -0.2177  1.1363
27411SOL     OW86789   9.974   8.599   6.496 -0.7027  0.0215 -0.2177
27411SOL    HW186790  10.059   8.643   6.500 -0.0817 -0.9576 -1.7391
27411SOL    HW286791   9.943   8.599   6.587  1.0727  0.1269  0.4320
27412SOL     OW86792   0.238   9.677   6.218  0.0929 -0.1396  0.9147
27412SOL    HW186793   0.252   9.648   6.308 -0.8549 -2.4363  0.4003
27412SOL    HW286794   0.325   9.678   6.179  0.8414  3.1070  2.3665
27413SOL     OW86795   1.959   0.654   7.776  0.1214 -0.6694  0.3861
27413SOL    HW186796   1.878   0.642   7.826  0.9182 -1.6063  1.4899
27413SOL    HW286797   1.948   0.739   7.735 -0.5714  0.1574  2.1597
27414SOL     OW86798   3.427   1.256   8.082 -0.3584 -0.1510  0.4990
27414SOL    HW186799   3.470   1.310   8.148 -0.1484 -0.0767  0.3050
27414SOL    HW286800   3.471   1.170   8.088 -0.2461 -0.1044  0.3675
27415SOL     OW86801   7.907  10.297  10.208 -0.2073 -0.2185  0.2243
27415SOL    HW186802   7.942  10.228  10.152 -1.7041 -0.9854  0.2063
27415SOL    HW286803   7.824  10.263  10.241 -0.1784  0.8906  1.5812
27416SOL     OW86804   6.884   0.828   0.234  0.1732 -0.3772 -0.0297
27416SOL    HW186805   6.978   0.813   0.236  0.2706  0.2120  0.0352
27416SOL    HW286806   6.846   0.743   0.215  0.6801 -0.7692  0.6627
27417SOL     OW86807  12.022   5.118   2.252 -0.3680  0.4242  0.0496
27417SOL    HW186808  12.064   5.049   2.200 -0.9210 -0.2329  0.4655
27417SOL    HW286809  11.991   5.181   2.187 -2.1768 -1.0043 -0.5622
27418SOL     OW86810   8.916  11.684  12.018 -0.2570 -0.3698  0.4581
27418SOL    HW186811   8.932  11.729  11.935 -0.4497 -1.3503 -0.1310
27418SOL    HW286812   9.002  11.655  12.047 -0.1103  0.5017  0.9250
27419SOL     OW86813   4.918   3.347  11.075  0.0900 -0.7504 -0.6375
27419SOL    HW186814   4.912   3.272  11.016  0.3045 -1.0499 -0.2875
27419SOL    HW286815   4.999   3.332  11.124 -1.3760 -1.9342  1.6228
27420SOL     OW86816   0.782   3.313   1.505  0.1952 -0.2606  0.2727
27420SOL    HW186817   0.782   3.245   1.438  1.6841 -0.7433  0.7149
27420SOL    HW286818   0.704   3.296   1.557 -1.5073  0.6586 -1.8102
27421SOL     OW86819   8.513  10.221  10.726 -0.0691  0.0648  0.2568
27421SOL    HW186820   8.595  10.268  10.737  1.2590 -2.0832  0.0520
27421SOL    HW286821   8.500  10.219  10.631  0.0066 -0.2164  0.2544
27422SOL     OW86822   1.781   3.540   2.563 -0.1475  0.1513 -0.3291
27422SOL    HW186823   1.837   3.471   2.529 -0.5176  1.0763 -3.0409
27422SOL    HW286824   1.831   3.579   2.635  2.9787  1.1979 -2.8263
27423SOL     OW86825   3.174   8.940   9.033  0.1420  0.4895 -0.2355
27423SOL    HW186826   3.230   8.999   9.084  0.1088 -0.9200  1.5186
27423SOL    HW286827   3.230   8.865   9.014  0.3197  1.1991 -2.8409
27424SOL     OW86828   1.903   9.703   8.423  0.2299  1.0405  0.0905
27424SOL    HW186829   1.937   9.770   8.483 -0.3742  0.0814  1.5827
27424SOL    HW286830   1.809   9.721   8.418  0.3169  1.2702 -0.7944
27425SOL     OW86831   9.240   5.137  10.915  0.5153 -0.4423 -0.4736
27425SOL    HW186832   9.217   5.070  10.979 -1.1661  0.4590 -0.0707
27425SOL    HW286833   9.259   5.088  10.835 -1.5511 -1.3951 -0.4439
27426SOL     OW86834   6.023   6.191   5.270 -0.0089 -0.2356 -0.2244
27426SOL    HW186835   6.057   6.113   5.314  0.9313  1.0310  1.3766
27426SOL    HW286836   5.975   6.238   5.338  0.0727  0.9498 -0.9683
27427SOL     OW86837   3.329  11.874   0.191 -0.0041 -0.0462 -0.6064
27427SOL    HW186838   3.328  11.944   0.126 -2.6143 -0.3196 -0.9815
27427SOL    HW286839   3.330  11.794   0.139 -0.3297 -0.2716 -0.2711
27428SOL     OW86840   3.555   4.892   1.330 -0.3676 -0.4574 -0.0913
27428SOL    HW186841   3.558   4.806   1.286  0.0358 -0.3114 -0.3570
27428SOL    HW286842   3.545   4.871   1.423 -0.1220 -0.7951 -0.1393
27429SOL     OW86843   8.201   3.256  12.056 -0.3712 -0.5756  0.3642
27429SOL    HW186844   8.212   3.235  12.149  2.2319  2.8064  1.0114
27429SOL    HW286845   8.289   3.273  12.024 -1.3800  0.4534 -2.1893
27430SOL     OW86846   3.907   5.822   6.896  0.1749  0.1983  0.1470
27430SOL    HW186847   3.972   5.755   6.916 -0.7114 -0.0311  2.6287
27430SOL    HW286848   3.843   5.779   6.839  1.9453  0.3460 -2.0955
27431SOL     OW86849   2.922  10.122   2.272 -0.2063 -0.1387 -1.0166
27431SOL    HW186850   2.964  10.045   2.310 -0.1716  0.6356  0.6198
27431SOL    HW286851   2.993  10.185   2.260 -0.4504  0.1613 -0.9184
27432SOL     OW86852   7.556   4.649   9.562  0.0348 -0.2636 -0.2515
27432SOL    HW186853   7.473   4.644   9.516  0.0882  0.3779 -0.4149
27432SOL    HW286854   7.553   4.732   9.610 -0.5093 -1.4120  1.8403
27433SOL     OW86855   7.379   8.550   0.860 -0.0301  0.0878 -0.1601
27433SOL    HW186856   7.372   8.472   0.914  1.1987 -0.0248 -0.1497
27433SOL    HW286857   7.413   8.519   0.776 -1.3425  0.3471 -0.8315
27434SOL     OW86858   9.267  10.351   9.317  0.0092  0.1715 -0.3080
27434SOL    HW186859   9.190  10.301   9.341 -0.7218  0.9055 -1.0560
27434SOL    HW286860   9.298  10.388   9.400  0.7703 -1.7432  0.3118
27435SOL     OW86861   4.931   9.893  11.744 -0.1083 -0.2202 -0.2125
27435SOL    HW186862   4.917   9.802  11.770 -0.4169 -0.3774 -0.8876
27435SOL    HW286863   4.997   9.888  11.675  0.0940  0.1010 -0.0438
27436SOL     OW86864   8.961   8.898   1.018 -0.6961  0.1773 -0.1923
27436SOL    HW186865   9.014   8.820   1.004  0.7708  1.0568  0.3288
27436SOL    HW286866   8.917   8.913   0.934 -0.6031 -0.9031 -0.4397
27437SOL     OW86867   0.440   2.463   1.979 -0.5253  0.2077 -0.1667
27437SOL    HW186868   0.461   2.419   2.061  0.3979  1.5968  0.3830
27437SOL    HW286869   0.366   2.520   2.001 -1.6523 -0.9183 -0.8503
27438SOL     OW86870   6.033   3.073   9.385  0.5865  0.6951 -0.0188
27438SOL    HW186871   6.041   3.046   9.293 -0.7290 -0.2149  0.1034
27438SOL    HW286872   6.068   2.999   9.435 -0.2400  0.4614  0.2378
27439SOL     OW86873   4.140   9.725   8.114  0.0022 -0.0668 -0.1353
27439SOL    HW186874   4.216   9.768   8.154  0.8263 -1.6036  0.0180
27439SOL    HW286875   4.069   9.789   8.124  1.7168  2.3665 -2.2564
27440SOL     OW86876   7.607   6.642   2.229  0.6081  0.5668  0.3966
27440SOL    HW186877   7.701   6.655   2.239  0.7342  2.9461 -2.6604
27440SOL    HW286878   7.568   6.721   2.267 -0.0644  0.2724  0.3288
27441SOL     OW86879   6.753   8.653   0.727  0.3839 -0.0643  0.2671
27441SOL    HW186880   6.773   8.739   0.763 -0.7299  0.5454 -0.5013
27441SOL    HW286881   6.664   8.634   0.759 -0.4124  0.2485 -1.6194
27442SOL     OW86882   2.806  12.113  10.487 -0.4420 -0.6736  0.6894
27442SOL    HW186883   2.726  12.134  10.439 -1.0064 -0.4138  1.6964
27442SOL    HW286884   2.780  12.115  10.579 -0.1167 -4.1513  0.9714
27443SOL     OW86885   8.834   0.731   9.792  0.5782 -0.5098 -0.5515
27443SOL    HW186886   8.834   0.821   9.759 -3.2633  0.2155  0.8955
27443SOL    HW286887   8.912   0.691   9.753  1.4830  2.8982 -2.6639
27444SOL     OW86888   8.939   9.804   7.623 -0.1342  0.4977  0.3149
27444SOL    HW186889   8.972   9.866   7.558  0.9593  0.6658  1.0032
27444SOL    HW286890   8.898   9.735   7.571  0.6960  0.6388 -0.5598
27445SOL     OW86891   2.407  11.994  11.924 -0.0939 -0.7045 -0.1415
27445SOL    HW186892   2.409  12.089  11.928 -1.7957 -0.6206 -0.5492
27445SOL    HW286893   2.452  11.965  12.004  2.2934  0.3827 -1.0262
27446SOL     OW86894  10.093   8.283   1.135  0.8136 -0.2871 -0.1436
27446SOL    HW186895  10.027   8.224   1.099  0.6414  1.3467 -2.7885
27446SOL    HW286896  10.099   8.259   1.228 -1.7810 -2.0417 -0.3231
27447SOL     OW86897   2.995   6.619   2.595 -0.2145 -0.2531 -0.2045
27447SOL    HW186898   2.952   6.536   2.615  0.9127 -0.8310 -0.1190
27447SOL    HW286899   3.036   6.645   2.677  3.1905 -1.8959 -1.2139
27448SOL     OW86900   0.202   3.605   7.061 -0.7648  0.2870  0.3554
27448SOL    HW186901   0.252   3.667   7.008 -1.1880 -1.0520 -1.7195
27448SOL    HW286902   0.248   3.522   7.051 -1.9335 -0.4037  0.5556
27449SOL     OW86903   3.346   0.602   0.749 -0.1635  0.3613  0.2418
27449SOL    HW186904   3.267   0.627   0.701 -0.0573  0.7083  0.2480
27449SOL    HW286905   3.325   0.621   0.841 -0.4792 -0.5825  0.3813
27450SOL     OW86906  11.166   0.959   6.252 -0.0773 -0.1863  0.6947
27450SOL    HW186907  11.145   0.878   6.297 -0.8681  0.0579  0.7795
27450SOL    HW286908  11.100   1.022   6.282  0.5262  0.4942  0.6426
27451SOL     OW86909  10.410  10.334   3.196  0.1648 -0.1340  0.1248
27451SOL    HW186910  10.454  10.249   3.192 -0.3409 -0.3465 -1.8153
27451SOL    HW286911  10.329  10.322   3.148  0.5627  1.7026 -1.1387
27452SOL     OW86912   6.732   8.063  11.187  0.2978  0.5127  0.3230
27452SOL    HW186913   6.767   8.011  11.114  1.4902 -0.5958  1.6454
27452SOL    HW286914   6.677   8.129  11.144  1.7721  0.5517 -1.6596
27453SOL     OW86915   7.398   0.793   3.059 -0.2918 -0.2987 -0.4508
27453SOL    HW186916   7.302   0.792   3.062 -0.2833  0.3690  0.2291
27453SOL    HW286917   7.420   0.880   3.027  0.0916 -0.4665 -0.6462
27454SOL     OW86918   6.155   4.140   3.575  0.2805 -0.1968 -0.0907
27454SOL    HW186919   6.200   4.208   3.625  1.4348 -1.5431  0.7669
27454SOL    HW286920   6.199   4.059   3.600 -0.8242 -1.2251 -1.3602
27455SOL     OW86921   9.643   0.050   3.460 -0.0922  0.0050 -0.7698
27455SOL    HW186922   9.561   0.001   3.461 -0.5547  0.7133  1.4854
27455SOL    HW286923   9.687   0.022   3.379 -1.8602 -1.5081 -1.2702
27456SOL     OW86924   4.245   0.497   5.667 -0.1363  0.0193  0.1610
27456SOL    HW186925   4.264   0.435   5.738 -0.6656  0.1231  0.4003
27456SOL    HW286926   4.196   0.568   5.710 -0.0952  0.2865 -0.2319
27457SOL     OW86927   7.547   7.266   8.651  0.0812  0.1302 -0.2254
27457SOL    HW186928   7.579   7.311   8.729 -0.5342 -0.2636  0.2743
27457SOL    HW286929   7.593   7.182   8.651  0.1527  0.1693 -0.3398
27458SOL     OW86930   3.429   5.243   2.829 -0.2621 -0.5457 -0.2891
27458SOL    HW186931   3.457   5.249   2.921  0.6394 -0.5076 -0.5484
27458SOL    HW286932   3.511   5.239   2.780 -0.7107  0.6036 -1.1754
27459SOL     OW86933   5.719   4.946   6.783 -0.9414  0.2583 -0.4999
27459SOL    HW186934   5.741   4.879   6.719  1.1020  0.6940 -0.3348
27459SOL    HW286935   5.803   4.971   6.822 -1.8529  1.6172  0.7354
27460SOL     OW86936   7.136   1.552   3.046  0.5288  0.1234  0.1651
27460SOL    HW186937   7.106   1.527   3.133  0.0105 -0.3452 -0.1418
27460SOL    HW286938   7.220   1.506   3.036  0.1792 -0.5066  0.0881
27461SOL     OW86939   5.316  10.996  10.524 -0.0489 -0.3667  0.0227
27461SOL    HW186940   5.254  11.069  10.532 -0.3682 -0.7429  1.1398
27461SOL    HW286941   5.309  10.950  10.607  0.5342 -1.3783 -0.4772
27462SOL     OW86942   7.894  11.083   2.164 -0.2507  0.0010 -0.7375
27462SOL    HW186943   7.881  11.103   2.072  0.0885  0.7536 -0.6291
27462SOL    HW286944   7.985  11.053   2.169  0.3899  1.8682 -0.3602
27463SOL     OW86945  11.534   4.072   0.338 -0.1669 -0.4668 -0.5549
27463SOL    HW186946  11.609   4.018   0.359 -0.7983 -1.4996 -0.8663
27463SOL    HW286947  11.545   4.095   0.246  1.1529  1.7077  0.0644
27464SOL     OW86948   1.623   4.752   4.495 -0.1628 -0.1922  0.3177
27464SOL    HW186949   1.616   4.797   4.579  2.1085  1.4943 -0.2815
27464SOL    HW286950   1.560   4.680   4.500  0.6069 -0.7987  3.8758
27465SOL     OW86951   1.075   0.642  10.793 -0.1712  0.0740  0.6825
27465SOL    HW186952   0.992   0.622  10.836 -0.8911  3.2134  0.9274
27465SOL    HW286953   1.124   0.693  10.857  0.7838  0.6214 -0.4552
27466SOL     OW86954   3.141   2.969   0.487 -0.9819  0.5168  0.0704
27466SOL    HW186955   3.229   2.948   0.454 -1.0434  0.6948 -0.2147
27466SOL    HW286956   3.082   2.912   0.438 -1.1178  1.1096 -0.4732
27467SOL     OW86957   6.432  11.447  11.638 -0.2766  0.1478 -0.2851
27467SOL    HW186958   6.438  11.497  11.719  0.7749  0.7565 -0.7209
27467SOL    HW286959   6.384  11.503  11.578 -0.9363 -0.2465 -0.1355
27468SOL     OW86960   0.699   0.326   8.455 -0.3080 -0.4520 -0.1089
27468SOL    HW186961   0.677   0.249   8.507 -0.7277 -2.3101 -2.8343
27468SOL    HW286962   0.659   0.311   8.369 -0.7032  2.9978 -0.7066
27469SOL     OW86963   2.451   9.908   9.836  0.3368  0.0411 -0.5578
27469SOL    HW186964   2.465  10.003   9.840  0.8120 -0.0360 -0.2519
27469SOL    HW286965   2.473   9.877   9.925  0.9961 -0.4554 -0.8816
27470SOL     OW86966   3.405   7.071  10.120  0.4683  0.7783  0.2063
27470SOL    HW186967   3.360   7.054  10.037  1.0233  0.4495 -0.0271
27470SOL    HW286968   3.434   7.162  10.114 -0.5427  1.1465  0.5439
27471SOL     OW86969   5.874   7.698   6.152 -0.4833 -0.3300  0.1242
27471SOL    HW186970   5.852   7.746   6.233 -0.5583 -0.7149  0.3333
27471SOL    HW286971   5.800   7.716   6.094  0.1535  0.9851 -0.3315
27472SOL     OW86972   6.362   9.930  10.577 -0.0347  0.1106 -0.0122
27472SOL    HW186973   6.293   9.989  10.608 -0.3965 -0.2512 -0.1197
27472SOL    HW286974   6.433   9.988  10.550 -0.9599  0.5774 -1.5597
27473SOL     OW86975   4.354  11.845  10.865  0.2171  0.2361 -0.6402
27473SOL    HW186976   4.289  11.800  10.811  0.3930 -0.2387 -0.4629
27473SOL    HW286977   4.396  11.775  10.915  0.3805  0.6186 -0.2354
27474SOL     OW86978   9.947   4.771   2.559 -0.2244  0.0499  0.5708
27474SOL    HW186979   9.960   4.680   2.585 -1.6884 -0.6853 -1.0359
27474SOL    HW286980  10.035   4.806   2.551  0.3785 -1.2625  1.1415
27475SOL     OW86981   7.650   3.961   1.580 -0.6569  0.1157 -0.6535
27475SOL    HW186982   7.623   4.048   1.549  1.2679  0.3731 -1.7672
27475SOL    HW286983   7.727   3.940   1.527 -1.4712 -2.5943 -0.8822
27476SOL     OW86984   9.382   7.812   0.787  0.0415  0.1531  0.0217
27476SOL    HW186985   9.322   7.863   0.843  0.5761 -1.6613  2.4420
27476SOL    HW286986   9.333   7.732   0.767 -0.1251  0.7529 -2.2325
27477SOL     OW86987   2.617   2.231   6.868  0.0911 -0.7104 -0.2706
27477SOL    HW186988   2.666   2.192   6.795  0.3937 -0.1747 -0.3637
27477SOL    HW286989   2.678   2.296   6.904 -0.0290 -1.0229  0.5057
27478SOL     OW86990   3.618   1.520  11.190 -0.3446  0.6780 -0.2303
27478SOL    HW186991   3.581   1.440  11.152 -0.0092  0.5324 -0.2584
27478SOL    HW286992   3.556   1.589  11.167  0.0282  0.6625 -1.3711
27479SOL     OW86993   7.181   5.745   9.781  0.0941  0.1774 -0.4815
27479SOL    HW186994   7.258   5.765   9.833 -0.0210  2.0428 -0.9492
27479SOL    HW286995   7.106   5.765   9.838 -0.0648 -1.0972 -0.2157
27480SOL     OW86996   2.383   3.936   1.996 -0.4934  0.5028 -0.2326
27480SOL    HW186997   2.401   3.859   1.942  1.0727 -0.2403  1.2685
27480SOL    HW286998   2.437   3.924   2.074 -0.5953  2.8911  0.2786
27481SOL     OW86999  10.367   0.732   3.552  0.3169  0.0438  0.4637
27481SOL    HW187000  10.359   0.652   3.500  1.9920  1.3405 -2.0532
27481SOL    HW287001  10.307   0.794   3.510  1.6144  1.0885  0.0656
27482SOL     OW87002   6.749  11.948   4.147  0.7869 -0.2128  0.0123
27482SOL    HW187003   6.824  11.947   4.089  1.7538 -1.7782  1.2257
27482SOL    HW287004   6.687  11.887   4.108  0.8218 -0.1680 -0.1137
27483SOL     OW87005   4.243   9.779   5.543  0.7318 -0.1695 -0.1117
27483SOL    HW187006   4.152   9.763   5.520 -0.1728  3.2310  0.6591
27483SOL    HW287007   4.291   9.760   5.462 -0.5822 -2.0481 -0.5261
27484SOL     OW87008   4.968   9.457  10.506  0.5870  0.1217 -0.2686
27484SOL    HW187009   4.988   9.367  10.531 -0.2974  0.3694  1.4603
27484SOL    HW287010   5.031   9.510  10.555  0.7805  0.4813 -0.8957
27485SOL     OW87011   9.660   8.602   7.500 -0.3602 -0.4016 -0.1545
27485SOL    HW187012   9.741   8.614   7.450  0.7199  0.6712  1.7575
27485SOL    HW287013   9.603   8.674   7.471 -0.0811 -0.2974 -0.4496
27486SOL     OW87014   8.596   6.160   6.101 -0.5069  0.6414  0.5405
27486SOL    HW187015   8.501   6.149   6.104 -0.7079  2.2927  0.9293
27486SOL    HW287016   8.613   6.195   6.014 -0.0076 -1.3933 -0.2407
27487SOL     OW87017   7.488  10.872   3.626  0.0059 -0.8517  0.0507
27487SOL    HW187018   7.567  10.898   3.580 -1.1345  2.4715 -0.2599
27487SOL    HW287019   7.509  10.886   3.719 -0.0730 -0.3291 -0.0064
27488SOL     OW87020   9.827   7.668   2.102  0.4055 -0.3204  0.1166
27488SOL    HW187021   9.810   7.576   2.080 -0.6696 -0.4746  1.4618
27488SOL    HW287022   9.883   7.664   2.179  0.5815  0.1689  0.0179
27489SOL     OW87023  10.362  10.027   6.554  0.0184  0.3185  0.0050
27489SOL    HW187024  10.456  10.020   6.569 -0.0913 -0.0498  0.5327
27489SOL    HW287025  10.351  10.111   6.509  0.7375 -0.2572 -1.2786
27490SOL     OW87026  10.431   7.502  11.470 -0.0118 -0.1327  0.4620
27490SOL    HW187027  10.350   7.511  11.421  0.2589 -1.2244 -0.2391
27490SOL    HW287028  10.484   7.578  11.445  0.2286 -0.8018 -1.1941
27491SOL     OW87029   3.751   9.484   1.043 -0.1097 -0.3564  0.0012
27491SOL    HW187030   3.689   9.421   1.079  1.0021 -1.6134 -0.1966
27491SOL    HW287031   3.830   9.432   1.024  1.1128  1.2317  0.5279
27492SOL     OW87032  11.374   7.063   5.074  0.2159 -0.2404 -0.3929
27492SOL    HW187033  11.387   6.987   5.018 -0.6803 -0.0341 -0.8922
27492SOL    HW287034  11.396   7.138   5.020 -0.9192 -0.0221 -0.5843
27493SOL     OW87035  10.221   8.594  10.213  0.5173  1.1265 -0.3598
27493SOL    HW187036  10.245   8.505  10.237 -0.0608  0.8449 -0.7994
27493SOL    HW287037  10.235   8.645  10.293  1.1337  0.6997 -0.1890
27494SOL     OW87038   7.523   5.584   9.187 -0.1910 -0.2279  0.0644
27494SOL    HW187039   7.511   5.532   9.108 -3.9424 -0.2082  0.4711
27494SOL    HW287040   7.497   5.526   9.258 -1.6490  1.2301  0.7883
27495SOL     OW87041   7.093   2.536   4.486 -0.5215 -0.4514  0.4868
27495SOL    HW187042   7.033   2.609   4.500 -0.3399 -0.2412  0.1926
27495SOL    HW287043   7.165   2.553   4.546  1.2415  1.5458 -1.9585
27496SOL     OW87044   2.515   6.810   7.639  0.1743  0.4355  0.1618
27496SOL    HW187045   2.435   6.796   7.691  0.4945 -0.8713  0.3500
27496SOL    HW287046   2.489   6.873   7.572 -0.7421  0.7849  0.8198
27497SOL     OW87047   6.184  10.285   4.279 -0.1728 -0.5205 -0.1458
27497SOL    HW187048   6.152  10.198   4.303 -0.6593 -0.2909  0.0334
27497SOL    HW287049   6.112  10.344   4.301 -0.1204 -0.1556 -0.9403
27498SOL     OW87050   1.647   9.450   4.214 -0.0193  0.3497 -0.0391
27498SOL    HW187051   1.555   9.478   4.218  0.3532  1.5156  0.6620
27498SOL    HW287052   1.678   9.482   4.129 -0.7556 -1.7463 -1.1852
27499SOL     OW87053   9.585   9.169   8.495 -0.1372 -0.0857 -0.0003
27499SOL    HW187054   9.584   9.264   8.484 -0.5747 -0.0985 -0.1145
27499SOL    HW287055   9.526   9.153   8.570  0.0885 -0.2500  0.1429
27500SOL     OW87056  10.690   6.885   0.289  0.5407 -0.7359 -0.1543
27500SOL    HW187057  10.734   6.942   0.225  0.6205 -0.8684 -0.2191
27500SOL    HW287058  10.645   6.820   0.236 -0.1669 -0.2929 -0.1025
27501SOL     OW87059   8.917  12.034   4.445  0.4780  0.2740 -0.6264
27501SOL    HW187060   9.007  12.037   4.478  1.2801 -1.2441 -2.4635
27501SOL    HW287061   8.908  12.113   4.393 -0.0589  1.5620  1.3165
27502SOL     OW87062  10.484   7.074   0.037 -0.7761  0.4374  0.6138
27502SOL    HW187063  10.541   7.125  -0.020 -0.9951 -0.6387 -0.6211
27502SOL    HW287064  10.514   7.094   0.126 -0.1043  1.7721  0.1066
27503SOL     OW87065   9.282   9.242  10.482 -0.5778 -0.2438 -0.2378
27503SOL    HW187066   9.225   9.297  10.535  0.1661  2.5378 -2.1434
27503SOL    HW287067   9.371   9.271  10.503 -0.0345 -1.8334 -0.1701
27504SOL     OW87068   9.404   7.991  10.524 -0.1414 -0.7494  0.2647
27504SOL    HW187069   9.474   8.051  10.500  1.2427 -1.9212  1.1904
27504SOL    HW287070   9.347   8.042  10.581 -0.1783  0.2846 -0.6639
27505SOL     OW87071   9.515  11.417   5.034 -0.0313  0.4593  0.1024
27505SOL    HW187072   9.588  11.363   5.065 -0.1259  1.7514  2.8862
27505SOL    HW287073   9.551  11.465   4.959  0.0653 -3.2272 -2.4848
27506SOL     OW87074   8.903   9.899  11.266  0.3811  0.0052  0.0954
27506SOL    HW187075   8.885   9.814  11.307  0.1672 -0.1576 -0.3315
27506SOL    HW287076   8.976   9.934  11.316  0.4841 -0.4395  0.2648
27507SOL     OW87077   0.151   8.953   1.538  0.1588  0.0130 -0.0909
27507SOL    HW187078   0.138   9.030   1.593  0.6533  0.0583 -0.0290
27507SOL    HW287079   0.233   8.970   1.491  0.7354 -0.8267  0.5520
27508SOL     OW87080   8.549   5.128   4.866 -0.7167  0.6160  0.3194
27508SOL    HW187081   8.467   5.079   4.874 -0.9759  0.6672 -1.6252
27508SOL    HW287082   8.524   5.219   4.878 -0.2631  0.4125  3.7523
27509SOL     OW87083   9.850   0.455   8.306 -0.0590  0.4922  0.0724
27509SOL    HW187084   9.879   0.496   8.387  0.4657 -0.8882  0.6244
27509SOL    HW287085   9.915   0.386   8.290  0.0130  0.9199 -1.6832
27510SOL     OW87086   1.221   6.725   1.839 -0.3249  0.0566  0.0259
27510SOL    HW187087   1.313   6.735   1.865 -0.5058  0.6513  0.4476
27510SOL    HW287088   1.225   6.675   1.757  0.4649  1.4078 -0.7850
27511SOL     OW87089  10.013   9.973   8.105  0.5042  0.3577  0.1298
27511SOL    HW187090  10.057  10.013   8.030 -0.9158  0.3393 -0.7398
27511SOL    HW287091   9.996  10.046   8.164 -0.5071  0.7994 -0.6656
27512SOL     OW87092   6.576   9.085   0.658 -0.1051 -0.0218 -0.7765
27512SOL    HW187093   6.621   9.169   0.649 -0.6749  0.2519 -1.1295
27512SOL    HW287094   6.519   9.081   0.581  0.5936 -1.1495 -1.2623
27513SOL     OW87095   4.584   9.972   4.922  0.2436  0.5690  0.5136
27513SOL    HW187096   4.657   9.968   4.983  0.6876 -1.3587 -0.0831
27513SOL    HW287097   4.559   9.881   4.909 -0.3767  0.9979 -1.5585
27514SOL     OW87098   3.276   2.460   7.394  0.3895 -0.1955 -0.4683
27514SOL    HW187099   3.231   2.531   7.347 -0.3176  0.1279  0.6321
27514SOL    HW287100   3.367   2.468   7.368 -0.0423 -0.3394 -2.1329
27515SOL     OW87101   3.169   5.572   6.018  0.2751 -0.2185 -0.3150
27515SOL    HW187102   3.232   5.501   6.031  0.4257 -0.2401 -1.1401
27515SOL    HW287103   3.223   5.650   6.007  0.2627 -0.5072 -2.8409
27516SOL     OW87104   4.664   3.475   8.241 -0.4963  0.1532  0.0148
27516SOL    HW187105   4.701   3.478   8.329  1.3331 -2.3253 -0.5483
27516SOL    HW287106   4.587   3.419   8.249  0.4474 -1.2251 -0.1216
27517SOL     OW87107   8.078   2.847   1.735  0.2089  0.2780  0.3505
27517SOL    HW187108   8.116   2.922   1.781  0.1732 -0.0185  0.8701
27517SOL    HW287109   8.153   2.790   1.716  0.2544  0.5050 -0.1686
27518SOL     OW87110   2.575   4.115   3.108 -0.2620  0.1134  0.1992
27518SOL    HW187111   2.489   4.141   3.141  0.1877  1.6535  0.2074
27518SOL    HW287112   2.581   4.021   3.129 -1.2503  0.3525  1.7085
27519SOL     OW87113   1.325   3.817   4.554 -0.0178  0.2155  0.2709
27519SOL    HW187114   1.407   3.860   4.528 -0.2007  0.0092 -0.6484
27519SOL    HW287115   1.346   3.724   4.556  0.3281  0.3011  2.0896
27520SOL     OW87116   5.338   0.623   7.537 -0.0818  0.0358 -0.5785
27520SOL    HW187117   5.257   0.625   7.588  0.5990  0.1025  0.5371
27520SOL    HW287118   5.335   0.702   7.483 -0.4566  0.3875 -0.0472
27521SOL     OW87119   2.626   7.315   8.811 -0.3278  0.0633 -0.4323
27521SOL    HW187120   2.651   7.396   8.856 -2.8210  1.0239 -0.6489
27521SOL    HW287121   2.657   7.327   8.722 -1.3602  1.1828 -0.6727
27522SOL     OW87122   8.488   3.062   8.713  0.2307 -0.2240  0.3010
27522SOL    HW187123   8.462   3.019   8.795  0.0376 -0.4830  0.1041
27522SOL    HW287124   8.440   3.145   8.714  0.3417 -0.1597  0.5187
27523SOL     OW87125   7.866   7.553  11.244 -0.1481  0.1766 -0.1757
27523SOL    HW187126   7.812   7.563  11.166 -0.6777 -2.1186 -0.1504
27523SOL    HW287127   7.809   7.512  11.309  0.6067  1.0274  1.0713
27524SOL     OW87128   3.966  11.854   8.231 -0.6442  0.2022 -0.0481
27524SOL    HW187129   3.921  11.781   8.275 -1.2443  0.4099 -0.3026
27524SOL    HW287130   3.946  11.842   8.138 -0.8649  0.7666 -0.0768
27525SOL     OW87131   5.120   7.968   5.800  0.3055  0.5066  0.7262
27525SOL    HW187132   5.153   7.879   5.817 -0.8228  0.3311  2.2328
27525SOL    HW287133   5.147   8.018   5.876 -2.1566  0.5219  1.7053
27526SOL     OW87134  10.252   3.456   6.532 -0.2818  0.5068 -0.8645
27526SOL    HW187135  10.277   3.375   6.575 -1.4337 -0.3816 -1.8101
27526SOL    HW287136  10.281   3.525   6.592  1.2569 -0.5549 -0.3242
27527SOL     OW87137   2.135   1.691   0.530 -0.2703  0.2652  0.6223
27527SOL    HW187138   2.074   1.732   0.469  0.4938 -0.0175 -0.3460
27527SOL    HW287139   2.124   1.597   0.515 -0.4273  0.1721  1.2784
27528SOL     OW87140   1.628   3.537   2.928 -0.0622 -0.2270 -0.4295
27528SOL    HW187141   1.677   3.603   2.878 -2.0010  0.8826 -0.9734
27528SOL    HW287142   1.614   3.466   2.866 -0.5705  0.1863 -0.7953
27529SOL     OW87143  10.159   8.449  10.941 -0.2037 -0.2256  0.0319
27529SOL    HW187144  10.145   8.470  10.848 -0.0223  1.3316  0.3268
27529SOL    HW287145  10.138   8.356  10.948  1.5674 -0.8488 -1.9373
27530SOL     OW87146  11.060   2.188   2.661 -0.3474 -0.0958 -0.7037
27530SOL    HW187147  11.137   2.177   2.718  1.8610 -1.3124 -3.6716
27530SOL    HW287148  11.003   2.114   2.684  1.1502 -1.3864 -0.9099
27531SOL     OW87149  10.781   1.436   6.580 -0.0765  0.7087 -0.1033
27531SOL    HW187150  10.852   1.442   6.517  0.6909  0.5288  0.7164
27531SOL    HW287151  10.807   1.496   6.651 -1.2350  1.4183 -0.2465
27532SOL     OW87152  11.868   2.866   8.637 -0.0850  0.1237 -0.3465
27532SOL    HW187153  11.945   2.870   8.694 -1.0209  2.1272  0.9107
27532SOL    HW287154  11.794   2.851   8.697 -1.0554  1.8893 -1.0197
27533SOL     OW87155   8.910   3.146   2.847 -0.5684 -0.1187 -0.2836
27533SOL    HW187156   8.923   3.123   2.939 -0.0809 -0.1019 -0.3429
27533SOL    HW287157   8.994   3.127   2.806 -0.4558  0.8255 -0.5221
27534SOL     OW87158   2.580  10.701   0.481  0.0596 -0.4130 -0.2964
27534SOL    HW187159   2.493  10.740   0.476 -0.2909 -1.1807 -0.4669
27534SOL    HW287160   2.563  10.606   0.484  0.8787 -0.5604 -0.0825
27535SOL     OW87161   3.122  12.103   9.709 -0.0952  0.0074 -0.5497
27535SOL    HW187162   3.119  12.121   9.615 -0.6541 -2.7249 -1.1518
27535SOL    HW287163   3.177  12.025   9.717  0.4675  0.5533  1.4929
27536SOL     OW87164   5.645   2.346   5.849 -0.1856 -0.2615  0.1683
27536SOL    HW187165   5.562   2.386   5.875 -0.6937 -1.8196  1.0555
27536SOL    HW287166   5.619   2.269   5.798  0.7465 -0.2154 -0.3936
27537SOL     OW87167   6.319  10.087  11.733 -0.1796 -0.8842  0.3967
27537SOL    HW187168   6.356  10.039  11.658 -0.1713 -1.2271  0.6174
27537SOL    HW287169   6.243  10.132  11.697  0.1179 -0.6400  0.0681
27538SOL     OW87170   0.704   7.591   7.358 -0.3844  0.3468 -0.0407
27538SOL    HW187171   0.724   7.681   7.332  1.4731  0.2520  0.8986
27538SOL    HW287172   0.629   7.599   7.418 -0.3398  1.2472 -0.0953
27539SOL     OW87173   5.435   2.259   6.448 -0.4957  0.6321  0.1433
27539SOL    HW187174   5.483   2.262   6.530 -0.0338  0.5326 -0.1215
27539SOL    HW287175   5.343   2.251   6.474 -0.1887 -3.9050  0.7096
27540SOL     OW87176  11.876   9.451   9.133 -0.3994 -0.2040 -0.1982
27540SOL    HW187177  11.921   9.373   9.165  1.1955  0.0131 -1.6955
27540SOL    HW287178  11.880   9.513   9.206  2.2920 -0.0252 -0.3885
27541SOL     OW87179  10.311   3.172   5.676 -0.2076 -0.1733  0.3313
27541SOL    HW187180  10.218   3.195   5.675 -0.6181 -1.7059 -0.3539
27541SOL    HW287181  10.351   3.236   5.735 -1.6927  0.5062  0.6514
27542SOL     OW87182   0.134   0.911  11.545 -0.1459  0.0268 -0.0829
27542SOL    HW187183   0.139   0.911  11.640 -1.2646 -0.5846 -0.0167
27542SOL    HW287184   0.043   0.931  11.525  0.2372  0.9078 -1.0501
27543SOL     OW87185   8.556   3.799  10.669 -0.3495 -0.0788  0.0836
27543SOL    HW187186   8.470   3.832  10.641 -0.4772  0.0551  0.6247
27543SOL    HW287187   8.536   3.729  10.732 -0.0621  0.2014  0.4903
27544SOL     OW87188   7.872   3.652   2.347 -0.7982  0.3275 -0.2556
27544SOL    HW187189   7.853   3.588   2.417 -1.9892  2.0982  1.1448
27544SOL    HW287190   7.816   3.624   2.275 -0.1748 -1.0598 -0.2421
27545SOL     OW87191   5.038   7.225   2.503  0.6750 -0.1714  0.2851
27545SOL    HW187192   5.066   7.172   2.429 -1.3719  0.5675 -1.0939
27545SOL    HW287193   5.062   7.315   2.479 -0.2857  0.1121  0.3610
27546SOL     OW87194   2.389  10.211   3.255 -0.0076  0.0646  0.2520
27546SOL    HW187195   2.405  10.178   3.343 -3.3761  0.2204  1.0581
27546SOL    HW287196   2.415  10.303   3.258  0.5724 -0.1182  0.8598
27547SOL     OW87197   9.079  11.165   0.120  0.0008  1.0995  0.5323
27547SOL    HW187198   9.134  11.240   0.095 -2.8262  2.4108 -2.6070
27547SOL    HW287199   9.103  11.097   0.057 -0.6479  1.0717  0.3040
27548SOL     OW87200   0.353   4.081   9.860 -0.3825  0.7675  0.0967
27548SOL    HW187201   0.271   4.127   9.872  0.1482  2.0701 -0.9295
27548SOL    HW287202   0.393   4.078   9.947 -2.0352 -1.0179  0.8603
27549SOL     OW87203   4.990   1.386   4.658 -0.2892 -0.4867  0.2163
27549SOL    HW187204   4.971   1.467   4.610  0.8488 -0.6155 -0.4852
27549SOL    HW287205   4.906   1.339   4.660 -0.6574  0.1179 -0.5254
27550SOL     OW87206   3.537   0.794   5.242 -0.0755 -0.0896 -0.3179
27550SOL    HW187207   3.601   0.859   5.213 -0.0158 -0.6785 -1.5660
27550SOL    HW287208   3.562   0.774   5.332 -0.1065  1.6095  0.0931
27551SOL     OW87209   3.666  11.658   5.180 -0.0438  0.3232  0.6502
27551SOL    HW187210   3.609  11.594   5.136 -0.0120  0.4657  0.3981
27551SOL    HW287211   3.742  11.607   5.209  0.1179  0.3008  0.1930
27552SOL     OW87212   7.182   8.721  11.071 -0.1315 -0.2796  0.3043
27552SOL    HW187213   7.156   8.734  11.162 -0.0340  4.3385 -0.0911
27552SOL    HW287214   7.103   8.740  11.020  0.6956  0.9584 -0.5900
27553SOL     OW87215   3.920   0.446   5.823 -0.1651  0.1420 -0.0476
27553SOL    HW187216   3.999   0.391   5.817 -1.3793 -1.7449  0.5296
27553SOL    HW287217   3.953   0.531   5.850  1.8001 -0.2501 -0.9874
27554SOL     OW87218   2.782  10.871   4.362 -0.2711 -0.8279  0.4617
27554SOL    HW187219   2.855  10.933   4.357 -0.5252 -0.6017 -1.0238
27554SOL    HW287220   2.822  10.788   4.390  0.9243 -1.1703 -1.9879
27555SOL     OW87221   7.706   7.834   0.413 -0.5309  0.0335 -0.0324
27555SOL    HW187222   7.662   7.766   0.362 -0.2289 -0.7862  0.7763
27555SOL    HW287223   7.639   7.865   0.473 -0.2138 -0.7513  0.7484
27556SOL     OW87224   7.536   8.438   5.813 -0.6159 -0.2531  0.1426
27556SOL    HW187225   7.594   8.362   5.817  0.1821  0.3010 -0.5555
27556SOL    HW287226   7.587   8.509   5.851 -1.1132  0.0864  0.1871
27557SOL     OW87227   3.106  11.375   6.644 -0.0810 -0.0992 -0.1346
27557SOL    HW187228   3.053  11.298   6.626 -0.6771  0.3314 -0.2444
27557SOL    HW287229   3.143  11.358   6.731 -0.2217 -0.5019 -0.1518
27558SOL     OW87230   8.620   1.193   8.688  0.2111 -0.0687 -0.0941
27558SOL    HW187231   8.544   1.150   8.728  0.7866 -1.1086 -0.0757
27558SOL    HW287232   8.612   1.285   8.714 -1.4347  0.0069 -0.6981
27559SOL     OW87233   0.076  11.954   5.308 -0.2216 -0.0297  0.0446
27559SOL    HW187234   0.120  11.882   5.353 -0.4392  0.2762  0.7789
27559SOL    HW287235  -0.018  11.936   5.320 -0.2829 -0.0252 -0.4243
27560SOL     OW87236   0.626   4.437   8.154  0.1584  0.0015  0.1813
27560SOL    HW187237   0.557   4.454   8.089 -0.3357 -0.8567  0.4660
27560SOL    HW287238   0.582   4.388   8.223  0.9113  0.0407  0.6947
27561SOL     OW87239   7.089   7.196   2.685  0.7369 -0.5657  0.6296
27561SOL    HW187240   7.030   7.159   2.619  0.6565 -0.6290  0.7362
27561SOL    HW287241   7.065   7.289   2.689 -0.7602 -0.9740  2.1282
27562SOL     OW87242   7.874   4.041  10.932 -0.8451  0.4337 -0.1911
27562SOL    HW187243   7.840   4.048  10.843  0.5388  0.1016 -0.7672
27562SOL    HW287244   7.922   3.959  10.932  0.4726  1.1793  0.3998
27563SOL     OW87245   4.814  11.991   2.678  0.2421  0.0554 -0.1093
27563SOL    HW187246   4.723  12.012   2.699  0.2181 -1.4700  1.6182
27563SOL    HW287247   4.865  12.062   2.716 -0.1940  1.0181 -1.2498
27564SOL     OW87248   1.137  10.918   1.672 -0.3480  0.2699  0.5849
27564SOL    HW187249   1.171  10.830   1.686 -2.5433 -0.7064  0.2084
27564SOL    HW287250   1.154  10.936   1.579 -3.3841 -1.4972 -0.4594
27565SOL     OW87251   5.173   7.540   8.478 -0.4578  0.3590  0.2901
27565SOL    HW187252   5.090   7.586   8.493 -0.2173  0.9152 -0.0741
27565SOL    HW287253   5.164   7.505   8.390 -0.4588  0.0861  0.3983
27566SOL     OW87254   0.782   2.133   3.133  0.4114 -0.1711  0.0468
27566SOL    HW187255   0.807   2.046   3.164 -0.0026 -0.3254 -0.0477
27566SOL    HW287256   0.832   2.146   3.053 -1.5643 -1.4909 -1.5147
27567SOL     OW87257   5.686   4.140   6.485 -0.2731  0.0247  0.2582
27567SOL    HW187258   5.657   4.063   6.534  1.3213 -0.5111  0.4244
27567SOL    HW287259   5.769   4.113   6.445  1.1324  2.1256  1.5627
27568SOL     OW87260   4.947   0.350   7.726 -0.2091  0.1225 -0.0612
27568SOL    HW187261   4.885   0.411   7.766  0.5868  1.1979 -0.4043
27568SOL    HW287262   4.970   0.289   7.796 -1.1452  0.1113  0.2494
27569SOL     OW87263   1.309   5.160   4.067  0.0141  0.0215  0.3708
27569SOL    HW187264   1.360   5.232   4.105  0.1007 -0.7779  1.8545
27569SOL    HW287265   1.320   5.170   3.972  0.8266  1.3640  0.5774
27570SOL     OW87266   4.087   2.824   2.977  0.3323  0.6269  0.0354
27570SOL    HW187267   4.038   2.817   3.059 -0.7001 -0.4545 -0.6480
27570SOL    HW287268   4.170   2.780   2.995  1.0937  2.3721  1.1667
27571SOL     OW87269   1.537   1.120   6.961  0.6288 -0.5023  0.2214
27571SOL    HW187270   1.564   1.211   6.973 -2.7656  0.5552  0.9428
27571SOL    HW287271   1.518   1.113   6.867 -1.8165  0.5132  0.5612
27572SOL     OW87272   7.686   5.944   4.873  0.3197  0.7857  0.1550
27572SOL    HW187273   7.630   6.012   4.910  0.2384  0.4454  0.6708
27572SOL    HW287274   7.733   5.908   4.949 -0.4149 -0.4512  0.0579
27573SOL     OW87275   9.622   5.780   7.398 -0.5987  0.3600 -0.2108
27573SOL    HW187276   9.678   5.831   7.340 -1.8648  0.3308 -1.5344
27573SOL    HW287277   9.533   5.797   7.366 -1.2460 -0.5782  1.0114
27574SOL     OW87278   2.666   2.854  10.224 -0.3146  0.1577  0.1881
27574SOL    HW187279   2.678   2.777  10.168 -0.2173 -0.2303  0.7382
27574SOL    HW287280   2.748   2.861  10.273 -0.3893  0.5155  0.2697
27575SOL     OW87281   1.547   9.879  10.307 -0.3920  0.2896  0.4197
27575SOL    HW187282   1.521   9.818  10.238 -0.1257  1.1526 -0.4890
27575SOL    HW287283   1.594   9.949  10.260 -0.3836  1.0105  1.4564
27576SOL     OW87284   5.438   3.799  10.199  0.3866  0.4553  0.1620
27576SOL    HW187285   5.486   3.827  10.277 -0.4449  1.9034  0.1964
27576SOL    HW287286   5.368   3.743  10.232  0.6362  0.2558  0.3515
27577SOL     OW87287   2.787   3.444   4.829  0.2293 -0.0703  0.0764
27577SOL    HW187288   2.743   3.365   4.801  0.4919  0.0204 -0.6090
27577SOL    HW287289   2.868   3.447   4.778 -1.1414  2.1733 -2.1957
27578SOL     OW87290   9.703  10.553   9.145  0.2654 -0.1382 -0.4462
27578SOL    HW187291   9.744  10.540   9.230 -0.0788  0.0860 -0.2414
27578SOL    HW287292   9.703  10.648   9.132 -0.0886 -0.1417 -0.4903
27579SOL     OW87293   0.240   9.443   2.985  0.0077  0.5575  0.4208
27579SOL    HW187294   0.177   9.512   3.008  0.1958  0.4292  1.3809
27579SOL    HW287295   0.232   9.434   2.890 -1.8565  0.1336  0.5676
27580SOL     OW87296  11.168   0.486  10.891 -0.0975 -0.0098 -0.0557
27580SOL    HW187297  11.160   0.482  10.796 -0.0915 -0.1473 -0.0501
27580SOL    HW287298  11.219   0.409  10.915 -0.0070  0.0813  0.0491
27581SOL     OW87299   0.163   0.802   1.053  0.4200  0.5546  0.4275
27581SOL    HW187300   0.106   0.737   1.012  0.0192  0.3752  1.2487
27581SOL    HW287301   0.251   0.765   1.047  0.3091  0.3387  0.1111
27582SOL     OW87302   2.298  10.320   0.974  0.1660 -0.2409 -0.0246
27582SOL    HW187303   2.309  10.382   1.047  1.8404 -1.2923  0.6680
27582SOL    HW287304   2.308  10.234   1.014  4.2736 -0.8362 -1.8691
27583SOL     OW87305   7.272   4.002   6.152  0.2802  0.1519 -0.6398
27583SOL    HW187306   7.232   3.938   6.094  0.6781 -0.2187 -0.5051
27583SOL    HW287307   7.291   3.954   6.232 -1.6160  1.0039  0.3823
27584SOL     OW87308   5.846   1.293   1.620 -0.0549  0.7914 -0.2513
27584SOL    HW187309   5.838   1.197   1.628 -0.7684  0.8801  0.2433
27584SOL    HW287310   5.756   1.324   1.627  0.2230  1.5340  0.0394
27585SOL     OW87311   1.346   4.294   6.777  0.1513 -0.2182  0.3811
27585SOL    HW187312   1.383   4.317   6.862 -0.0126 -0.1238  0.4269
27585SOL    HW287313   1.398   4.345   6.714 -0.5033  0.6318  0.5146
27586SOL     OW87314   0.558   0.878   9.758 -0.4387  0.0273 -0.2199
27586SOL    HW187315   0.611   0.900   9.834  1.2015  0.9250 -1.5687
27586SOL    HW287316   0.523   0.961   9.727  0.0259 -0.1349 -1.2289
27587SOL     OW87317  10.487   6.031   2.757 -0.6912  0.4346 -0.7758
27587SOL    HW187318  10.498   5.982   2.838  1.5433 -0.5708 -1.5902
27587SOL    HW287319  10.419   5.984   2.709 -0.5221 -0.2448 -0.3606
27588SOL     OW87320   3.830   9.588   8.625 -0.0111 -0.6915 -0.4788
27588SOL    HW187321   3.909   9.638   8.646 -1.5000  1.3237  0.7048
27588SOL    HW287322   3.819   9.602   8.531 -1.0020  2.3581 -0.0178
27589SOL     OW87323   3.085   9.025   3.337  0.2909 -0.1846 -0.3908
27589SOL    HW187324   3.011   9.084   3.325  0.2739 -0.1348 -0.0604
27589SOL    HW287325   3.079   8.997   3.428  1.7897  1.3817  0.2587
27590SOL     OW87326   2.382   9.855   4.874  0.2007 -0.1504 -0.2275
27590SOL    HW187327   2.428   9.904   4.942 -1.8692 -0.8852  1.8447
27590SOL    HW287328   2.442   9.783   4.852  0.4347 -0.6690  1.8301
27591SOL     OW87329   5.242   6.668   4.720 -0.4466 -0.2342  0.6050
27591SOL    HW187330   5.266   6.731   4.788  0.7120  0.3955 -0.3409
27591SOL    HW287331   5.188   6.719   4.659 -2.5624 -1.1112  1.6397
27592SOL     OW87332   6.715  11.811   1.592  1.0058 -0.8286  0.3013
27592SOL    HW187333   6.674  11.772   1.514 -0.1548 -0.5525  0.7495
27592SOL    HW287334   6.646  11.867   1.629  1.5407 -0.9664  1.5282
27593SOL     OW87335  11.883   7.898   2.325 -0.4247 -0.2462 -0.3363
27593SOL    HW187336  11.896   7.827   2.262 -0.3873 -1.6067  1.1151
27593SOL    HW287337  11.971   7.917   2.359 -0.5620 -0.2238  0.0125
27594SOL     OW87338   9.392  11.764   8.119  0.3027  0.0666 -0.5716
27594SOL    HW187339   9.347  11.748   8.202  1.9090 -0.2871  0.2876
27594SOL    HW287340   9.425  11.677   8.093  1.6147  0.4990 -0.4465
27595SOL     OW87341   7.696   8.058   9.265 -0.2971  0.1797 -0.0106
27595SOL    HW187342   7.706   7.978   9.315 -0.2148  0.3471  0.2424
27595SOL    HW287343   7.649   8.032   9.185 -1.3731  0.1006  0.6333
27596SOL     OW87344  10.043   7.720   6.550 -0.0001 -0.4898  0.7820
27596SOL    HW187345   9.989   7.757   6.480  1.4480 -1.1046 -0.7337
27596SOL    HW287346   9.983   7.668   6.603 -1.2453  0.5021  0.3881
27597SOL     OW87347   1.731   7.495  12.022 -0.6722  0.3286 -0.0769
27597SOL    HW187348   1.760   7.411  11.987 -2.1664 -0.4828  0.5138
27597SOL    HW287349   1.786   7.560  11.978  0.2541 -0.9161 -0.8398
27598SOL     OW87350   0.200   4.789   9.378 -0.0602  0.2728  0.5140
27598SOL    HW187351   0.186   4.702   9.341  2.5661 -0.4873  1.0730
27598SOL    HW287352   0.160   4.785   9.465  1.7242 -1.1691  1.3581
27599SOL     OW87353  11.073   3.455   2.789  0.3327 -0.4870  0.4932
27599SOL    HW187354  10.989   3.482   2.751  0.1840 -1.6014 -0.0087
27599SOL    HW287355  11.132   3.448   2.713  0.5862 -0.7419  0.7133
27600SOL     OW87356   9.596  10.546   6.599  0.5217  0.5734 -0.2396
27600SOL    HW187357   9.622  10.464   6.558  0.2134  0.7858 -0.8664
27600SOL    HW287358   9.583  10.607   6.526  0.0499  0.9787  0.1719
27601SOL     OW87359   8.141  10.063   8.322 -0.4357 -0.5684 -0.2073
27601SOL    HW187360   8.124   9.997   8.255 -0.2306 -1.8105  0.9023
27601SOL    HW287361   8.138  10.014   8.405 -2.2066  1.1640  0.8381
27602SOL     OW87362   9.993  11.739  12.009  0.4341  0.1729  0.3030
27602SOL    HW187363   9.985  11.800  12.082 -1.0322  0.3363  0.0363
27602SOL    HW287364   9.948  11.783  11.936  0.5728 -0.6223 -0.2756
27603SOL     OW87365   1.218   0.002   5.122 -0.2226 -0.4044  0.3146
27603SOL    HW187366   1.253   0.013   5.210 -1.0700  0.6266  0.5423
27603SOL    HW287367   1.179  -0.085   5.121 -0.8305 -0.1461  1.1825
27604SOL     OW87368   1.684  11.887   8.529  0.0586  0.5424  0.6166
27604SOL    HW187369   1.774  11.869   8.555 -1.1008 -2.6611  3.1387
27604SOL    HW287370   1.668  11.828   8.455 -0.2165  0.5051  0.7060
27605SOL     OW87371   5.958  10.431   4.364 -0.3296  0.0666 -0.1317
27605SOL    HW187372   5.886  10.382   4.324 -1.1906  0.7871  0.4856
27605SOL    HW287373   5.938  10.431   4.457  1.1639 -0.8053  0.2142
27606SOL     OW87374   7.472   5.625   4.846 -0.0528  0.1961  0.2850
27606SOL    HW187375   7.538   5.630   4.915  0.0321  1.3239  0.1303
27606SOL    HW287376   7.472   5.711   4.806  1.4448 -1.0015 -2.5992
27607SOL     OW87377   1.241   7.968   8.488  0.4918  0.3703  0.1208
27607SOL    HW187378   1.289   8.007   8.415  0.5029 -0.0658 -0.1081
27607SOL    HW287379   1.170   8.030   8.506 -0.0173  0.0766 -0.8161
27608SOL     OW87380   2.369   1.733   6.662  0.2018 -0.6862 -0.1277
27608SOL    HW187381   2.375   1.730   6.567 -0.3962 -1.6159 -0.1450
27608SOL    HW287382   2.456   1.763   6.690 -0.5055  2.5923 -1.0564
27609SOL     OW87383  12.064  10.425   8.437  0.0897  0.3380 -0.4435
27609SOL    HW187384  12.047  10.333   8.418 -2.2225  0.9032 -1.4761
27609SOL    HW287385  12.061  10.431   8.532 -1.4513 -0.3968 -0.4204
27610SOL     OW87386  11.735   3.102   4.408 -0.3910  0.0040  0.0687
27610SOL    HW187387  11.656   3.139   4.370 -2.2364 -2.0858  1.5738
27610SOL    HW287388  11.762   3.034   4.346 -0.1639  0.2693 -0.1242
27611SOL     OW87389   1.681   2.072   8.292 -0.1499 -0.5404 -0.1226
27611SOL    HW187390   1.614   2.134   8.321  0.2534  0.1116 -0.5461
27611SOL    HW287391   1.743   2.069   8.365  0.4034  0.4183 -0.5355
27612SOL     OW87392   4.338   7.797   9.511  0.1088 -0.2175  0.7278
27612SOL    HW187393   4.307   7.717   9.468 -0.1253  0.0291  0.4358
27612SOL    HW287394   4.377   7.848   9.440 -0.5313  0.3181  0.7547
27613SOL     OW87395   9.754   4.177   2.694  0.0136 -0.3859 -0.0163
27613SOL    HW187396   9.843   4.211   2.702 -0.6323  0.9577  2.4783
27613SOL    HW287397   9.763   4.082   2.701  1.3760 -0.4204 -1.6912
27614SOL     OW87398   7.764   0.351   6.295  0.1133  0.4852  0.2245
27614SOL    HW187399   7.821   0.290   6.249 -1.2657 -0.1669 -0.6588
27614SOL    HW287400   7.822   0.424   6.318  1.2063  0.0560 -1.0388
27615SOL     OW87401   7.563   9.122   6.352  0.3360 -0.3301  0.0657
27615SOL    HW187402   7.652   9.107   6.322  0.5466  0.0271  0.5074
27615SOL    HW287403   7.513   9.049   6.315  0.6312 -0.0393 -0.9442
27616SOL     OW87404   5.180   3.684   2.269 -0.1948  0.1837  0.0435
27616SOL    HW187405   5.193   3.617   2.336  1.5453  0.4324 -0.0126
27616SOL    HW287406   5.086   3.704   2.273 -0.6755 -1.9539  0.3264
27617SOL     OW87407   9.873   7.742   0.645 -0.3588 -0.0702  0.0629
27617SOL    HW187408   9.918   7.824   0.667 -0.7611  0.8588 -2.2291
27617SOL    HW287409   9.808   7.731   0.714 -0.4302  1.6663  0.3247
27618SOL     OW87410   0.363   6.220   1.387 -0.0836  0.3511  0.5552
27618SOL    HW187411   0.457   6.203   1.383  0.0377  1.2004 -0.6194
27618SOL    HW287412   0.356   6.313   1.407 -0.6367  0.6806 -1.0484
27619SOL     OW87413   5.268  11.910   2.068  0.3223 -0.0716  0.1739
27619SOL    HW187414   5.239  11.915   2.159 -0.1798 -0.4585  0.0384
27619SOL    HW287415   5.252  11.820   2.042 -1.2431  0.4464 -0.8435
27620SOL     OW87416  10.272   2.136   6.144  0.6600 -0.1800 -0.4602
27620SOL    HW187417  10.205   2.074   6.175  0.5620  0.4383  0.6125
27620SOL    HW287418  10.223   2.209   6.108  0.7317 -1.6680 -3.9388
27621SOL     OW87419   9.629   5.902  10.522  0.3944 -0.4461  0.5017
27621SOL    HW187420   9.709   5.852  10.537  1.4506  1.0054 -0.0765
27621SOL    HW287421   9.592   5.914  10.610  0.4835 -1.6004  0.7216
27622SOL     OW87422  10.301   0.819   6.644 -0.6763 -0.7828  0.0889
27622SOL    HW187423  10.240   0.869   6.697 -1.5735  0.1513 -1.7196
27622SOL    HW287424  10.383   0.821   6.692 -1.4381  0.0004  1.4070
27623SOL     OW87425   6.744  10.652   5.275  0.1802  0.6395 -0.0916
27623SOL    HW187426   6.764  10.628   5.366 -0.8482  2.6051  0.7087
27623SOL    HW287427   6.827  10.682   5.239  0.1527  2.1255  0.9926
27624SOL     OW87428   4.043   6.453  10.379 -0.0045  0.4137  0.2611
27624SOL    HW187429   4.105   6.382  10.361 -0.8042 -0.3731  0.4939
27624SOL    HW287430   4.047   6.508  10.301  0.4652 -0.0226 -0.0306
27625SOL     OW87431   7.456  10.089  10.105  0.3982 -0.3266 -0.1243
27625SOL    HW187432   7.400  10.024  10.063  1.7854 -1.4924 -0.2575
27625SOL    HW287433   7.422  10.097  10.194 -1.0233  0.2960 -0.7022
27626SOL     OW87434   0.313   6.934   1.113 -0.5869 -0.3072  0.0161
27626SOL    HW187435   0.361   6.868   1.163 -2.8137 -1.0454  1.2995
27626SOL    HW287436   0.238   6.886   1.076 -2.0775  1.4010  0.6950
27627SOL     OW87437  10.943   2.329   3.317  0.0600 -0.6909 -0.2893
27627SOL    HW187438  10.971   2.370   3.235  0.3336 -0.6698 -0.1885
27627SOL    HW287439  10.862   2.375   3.340  0.3294 -0.2409 -0.2111
27628SOL     OW87440   2.304   8.485   5.807 -0.0954  0.0959  0.3291
27628SOL    HW187441   2.295   8.460   5.716  1.9135  1.3190 -0.2801
27628SOL    HW287442   2.230   8.543   5.824 -0.6115 -0.3272 -0.4471
27629SOL     OW87443   3.251   4.380  10.903  0.6329  0.1642  0.5195
27629SOL    HW187444   3.177   4.408  10.958 -1.0681 -2.6326 -0.1550
27629SOL    HW287445   3.301   4.320  10.960  0.9474  0.0991  0.1757
27630SOL     OW87446   4.335   2.129   6.803 -0.2088 -0.0546 -0.1479
27630SOL    HW187447   4.272   2.080   6.856  0.5662 -0.9815 -0.0572
27630SOL    HW287448   4.400   2.064   6.776  0.9005  0.9246  0.0464
27631SOL     OW87449   7.432  11.675   8.167  1.1446  0.2883 -0.4139
27631SOL    HW187450   7.499  11.662   8.234 -1.1818 -1.1691  1.8705
27631SOL    HW287451   7.358  11.622   8.197 -1.0344  1.7456 -2.7560
27632SOL     OW87452  10.247   2.792   2.524 -0.5534 -0.1221  0.9461
27632SOL    HW187453  10.209   2.736   2.591  0.1687 -0.8112  0.7932
27632SOL    HW287454  10.185   2.787   2.451 -0.7346 -0.3427  1.1117
27633SOL     OW87455   4.203   7.643   6.439  0.1890  0.1989  0.0512
27633SOL    HW187456   4.255   7.703   6.492  1.9605 -2.0866  1.0737
27633SOL    HW287457   4.239   7.653   6.350 -0.6784  1.7984 -0.1487
27634SOL     OW87458  10.893   1.096  11.611 -0.1170 -0.4928  0.0157
27634SOL    HW187459  10.819   1.044  11.642 -0.7657  0.9449  0.9927
27634SOL    HW287460  10.853   1.170  11.565  0.6782  0.2993  0.5563
27635SOL     OW87461   0.149   1.990   7.558  0.0066 -0.1600 -1.0338
27635SOL    HW187462   0.062   1.951   7.562  0.6357 -1.9291 -2.7901
27635SOL    HW287463   0.191   1.965   7.641 -0.5171 -0.9592 -1.0043
27636SOL     OW87464   8.606   3.676   1.796 -0.0925 -0.3140 -0.4587
27636SOL    HW187465   8.561   3.760   1.807 -2.6829 -1.7069  0.2332
27636SOL    HW287466   8.684   3.698   1.745 -0.1461  2.6529  0.5389
27637SOL     OW87467   5.398   0.888  11.041  0.4845 -0.1884  0.0149
27637SOL    HW187468   5.450   0.914  11.117  0.8681  1.7178 -0.8477
27637SOL    HW287469   5.352   0.968  11.015 -0.3944 -1.0536 -1.1867
27638SOL     OW87470   5.271   0.878   9.375 -0.7884  0.2913 -0.9653
27638SOL    HW187471   5.184   0.857   9.409  0.1072 -1.5365  0.3964
27638SOL    HW287472   5.310   0.934   9.443 -0.5254  0.1937 -1.0334
27639SOL     OW87473  11.956   0.427   4.609 -0.1392  0.5926  0.0876
27639SOL    HW187474  11.878   0.372   4.606  0.3937 -0.3683  2.0857
27639SOL    HW287475  11.922   0.517   4.615 -1.0662  0.2533  0.1175
27640SOL     OW87476   7.032  11.696   3.882  0.2198  0.0732 -0.5578
27640SOL    HW187477   7.117  11.658   3.860  0.6797  0.8175 -0.0952
27640SOL    HW287478   6.973  11.660   3.816  0.9010 -0.4007 -0.9298
27641SOL     OW87479  10.571  10.992   2.766 -0.1912 -0.2456  0.1524
27641SOL    HW187480  10.612  10.997   2.680 -0.3542  1.3317  0.1365
27641SOL    HW287481  10.597  11.073   2.809 -1.2639 -0.3656  1.0698
27642SOL     OW87482   5.813   3.801   0.466  0.1240  0.3011  0.4266
27642SOL    HW187483   5.760   3.875   0.436  1.6202  1.8603  1.4528
27642SOL    HW287484   5.879   3.789   0.397 -1.8182 -2.1249 -1.2267
27643SOL     OW87485   4.442   7.853   4.615 -0.3705  0.2870  0.5502
27643SOL    HW187486   4.418   7.783   4.554  1.0677 -0.7379  1.1015
27643SOL    HW287487   4.365   7.910   4.617 -0.0169  1.1322 -3.2100
27644SOL     OW87488   5.524  11.685   9.415  0.1931 -0.3745 -0.4928
27644SOL    HW187489   5.444  11.659   9.368  1.3611 -2.7622 -1.3146
27644SOL    HW287490   5.495  11.755   9.475 -1.9589  0.6581 -2.5666
27645SOL     OW87491  11.966   6.511   1.507 -0.4626 -0.1059 -0.1442
27645SOL    HW187492  11.962   6.575   1.436 -3.2765  2.3651  1.9577
27645SOL    HW287493  12.057   6.512   1.536  0.2265  0.5257 -2.1672
27646SOL     OW87494   5.842   7.110   0.903  0.2507 -0.5567 -0.2096
27646SOL    HW187495   5.766   7.114   0.845  0.6350 -2.4067 -0.9157
27646SOL    HW287496   5.885   7.195   0.891 -1.2597  0.2092 -0.3919
27647SOL     OW87497  10.792   9.013   9.705 -0.1330 -0.0338  0.2211
27647SOL    HW187498  10.702   9.042   9.690  0.5328  2.2254  0.2237
27647SOL    HW287499  10.835   9.021   9.620 -0.0571 -1.7851  0.0482
27648SOL     OW87500   3.659  11.654   3.887 -0.1334  0.3809 -0.1828
27648SOL    HW187501   3.567  11.674   3.906 -0.4204 -1.7905  1.0266
27648SOL    HW287502   3.662  11.648   3.791 -1.5094 -0.5327 -0.2040
27649SOL     OW87503   0.767  11.125   5.614 -0.4942  0.4221 -0.2454
27649SOL    HW187504   0.803  11.155   5.531  0.6725 -0.0598  0.0689
27649SOL    HW287505   0.804  11.037   5.626 -0.6001  0.5080  0.8061
27650SOL     OW87506   6.391   3.402   7.819 -0.1341 -0.6723  0.2734
27650SOL    HW187507   6.387   3.475   7.758  0.0191 -1.1296 -0.2984
27650SOL    HW287508   6.321   3.343   7.791 -0.2939 -0.7199  0.7642
27651SOL     OW87509   6.188   2.464   0.563 -0.1216  0.1965 -0.3273
27651SOL    HW187510   6.198   2.430   0.652  1.6219 -0.2469 -0.6538
27651SOL    HW287511   6.123   2.534   0.571  1.1615  1.2501  1.6250
27652SOL     OW87512   9.543   3.189   4.748  0.0299 -0.5800 -0.2715
27652SOL    HW187513   9.583   3.143   4.822 -0.2398  0.1845  0.3630
27652SOL    HW287514   9.475   3.244   4.788 -0.7023 -0.8035 -1.1842
27653SOL     OW87515  10.197   7.311   9.114  0.9195  0.2658  0.4686
27653SOL    HW187516  10.182   7.286   9.023  1.6194  0.2321  0.3609
27653SOL    HW287517  10.117   7.284   9.159  0.2717  0.9150 -0.2505
27654SOL     OW87518   2.589   7.938   6.874  0.0572  1.0684  0.4040
27654SOL    HW187519   2.555   7.984   6.797 -0.0113  1.4456  0.6565
27654SOL    HW287520   2.511   7.900   6.916  0.1618  0.3513 -0.0416
27655SOL     OW87521   4.258   3.222   2.313  0.3961 -0.1204  0.3743
27655SOL    HW187522   4.203   3.220   2.235  2.4451  0.8926 -1.1945
27655SOL    HW287523   4.249   3.312   2.347  1.0138  0.0469  0.1208
27656SOL     OW87524   3.091   3.788   3.926 -0.2613  0.5833 -0.3322
27656SOL    HW187525   3.052   3.817   3.844  1.0668 -1.2504 -1.6889
27656SOL    HW287526   3.020   3.793   3.990 -2.2402 -0.9257 -2.2934
27657SOL     OW87527   9.499   1.057  10.329 -0.0571  0.2472  0.1459
27657SOL    HW187528   9.439   1.099  10.391 -0.9036 -1.4542  0.5599
27657SOL    HW287529   9.582   1.052  10.375 -0.4579 -0.2286  0.8471
27658SOL     OW87530   2.280   7.298   7.273  0.0847 -0.0176  0.3890
27658SOL    HW187531   2.343   7.241   7.228  2.5848  2.0832  0.9935
27658SOL    HW287532   2.225   7.333   7.204  0.0685 -1.2588 -0.2615
27659SOL     OW87533   4.823  10.837  10.866 -0.4181  0.0011  0.0406
27659SOL    HW187534   4.876  10.903  10.821  1.1213 -1.4701 -0.3858
27659SOL    HW287535   4.771  10.887  10.929  0.6825  1.6167 -0.2692
27660SOL     OW87536   8.027   9.118  11.472 -0.4517  0.1588  0.5263
27660SOL    HW187537   7.971   9.193  11.491  0.3527  1.2428 -1.1260
27660SOL    HW287538   8.083   9.147  11.400  0.8647 -1.5579  0.7776
27661SOL     OW87539   8.042  11.779   6.686  0.3789  0.5562 -0.4197
27661SOL    HW187540   8.078  11.840   6.750  1.1651 -0.6898  0.3689
27661SOL    HW287541   7.953  11.762   6.716  0.9896 -0.6122  0.8236
27662SOL     OW87542   9.322   2.294   8.199  0.3664  0.0818  0.2715
27662SOL    HW187543   9.335   2.277   8.106  3.2512 -2.1568  0.9068
27662SOL    HW287544   9.404   2.334   8.228 -0.6219  1.1046  1.8237
27663SOL     OW87545   3.494   1.791   7.767  0.1821  0.0960 -0.4996
27663SOL    HW187546   3.434   1.864   7.755  2.9673  2.5807 -0.3217
27663SOL    HW287547   3.496   1.777   7.861  0.5637  0.6442 -0.4226
27664SOL     OW87548   6.923   1.285   5.905  0.1210  0.1162  0.0476
27664SOL    HW187549   6.895   1.194   5.900  1.3380 -0.3026  0.4882
27664SOL    HW287550   7.019   1.281   5.902  0.3257  1.1517  2.6207
27665SOL     OW87551   2.180   0.301   5.799 -0.0426  0.1829 -0.3787
27665SOL    HW187552   2.255   0.241   5.807 -1.2826 -1.3285  0.3411
27665SOL    HW287553   2.185   0.355   5.878  0.9907  0.9961 -0.9571
27666SOL     OW87554   8.867   0.168   4.398 -0.0671  0.2441 -0.2720
27666SOL    HW187555   8.772   0.172   4.413 -0.0802 -1.5020  0.2647
27666SOL    HW287556   8.887   0.249   4.350 -1.7981  0.7038 -0.2747
27667SOL     OW87557   1.778  10.693   4.007  0.2900  0.3694  0.1904
27667SOL    HW187558   1.733  10.665   4.087  1.1457  0.9632  0.8909
27667SOL    HW287559   1.861  10.646   4.009 -0.4500 -1.0868 -1.3386
27668SOL     OW87560   5.527   7.525   5.850 -0.5930  0.1101 -0.6131
27668SOL    HW187561   5.564   7.504   5.936  0.1762  2.5853 -0.2544
27668SOL    HW287562   5.434   7.502   5.857 -1.4070  3.3429  2.2058
27669SOL     OW87563  10.381   9.789   7.888  0.1583 -0.2309  0.3389
27669SOL    HW187564  10.464   9.834   7.902 -0.2568  0.2916  1.1609
27669SOL    HW287565  10.386   9.710   7.942  0.7518 -1.0375 -0.8491
27670SOL     OW87566   4.463   3.851   8.767  0.0954 -0.4912 -0.1145
27670SOL    HW187567   4.518   3.928   8.776 -0.8331 -0.0348  2.6091
27670SOL    HW287568   4.417   3.845   8.851 -0.5182 -3.5051 -0.5641
27671SOL     OW87569  11.153   8.594   2.369  0.1458  0.1079 -1.0201
27671SOL    HW187570  11.193   8.568   2.286  2.2141 -0.3332  0.0613
27671SOL    HW287571  11.180   8.685   2.381 -0.0725  0.1400 -0.7567
27672SOL     OW87572  11.602   5.019   5.108  0.3963 -0.4321 -0.0361
27672SOL    HW187573  11.665   5.015   5.180  1.1991  0.5893 -0.6597
27672SOL    HW287574  11.579   5.112   5.102  0.7466 -0.4273 -1.4383
27673SOL     OW87575   8.109   0.092   5.318 -0.4025  0.8883 -0.2534
27673SOL    HW187576   8.181   0.068   5.377 -1.0852 -2.0364 -0.4677
27673SOL    HW287577   8.030   0.075   5.369 -0.9745 -0.3401 -1.4967
27674SOL     OW87578  10.912   6.563  10.702 -0.7763  0.0511 -0.2148
27674SOL    HW187579  10.948   6.652  10.700  0.5345 -0.4730 -0.5512
27674SOL    HW287580  10.892   6.543  10.611 -2.0385  0.3545 -0.0304
27675SOL     OW87581   7.344   9.958   1.997  0.3195 -0.2713  0.4288
27675SOL    HW187582   7.430   9.994   2.015 -0.8194  1.6935  2.5115
27675SOL    HW287583   7.293  10.033   1.965 -0.9533 -1.0878  0.4728
27676SOL     OW87584  12.105   6.365   2.436 -0.2988 -0.6068  0.1530
27676SOL    HW187585  12.104   6.277   2.398  1.9316 -0.1494 -1.1216
27676SOL    HW287586  12.109   6.351   2.531  2.5349 -2.0057 -0.0712
27677SOL     OW87587   2.603  11.894   2.733 -0.1925 -0.4198  0.3808
27677SOL    HW187588   2.629  11.920   2.822 -0.6633 -1.1272  0.7288
27677SOL    HW287589   2.525  11.947   2.714  0.6054  0.6263 -0.0978
27678SOL     OW87590   3.841  11.399   0.376  0.3627 -0.1720  0.0143
27678SOL    HW187591   3.822  11.316   0.420 -0.6796 -0.3004 -0.6444
27678SOL    HW287592   3.935  11.398   0.362  0.5530 -0.6285  1.2259
27679SOL     OW87593   9.567   5.949   3.092 -0.4004  0.0176 -0.5031
27679SOL    HW187594   9.578   5.934   3.186  0.7792 -1.3377 -0.8199
27679SOL    HW287595   9.559   6.044   3.083 -0.9000  0.1413  0.9867
27680SOL     OW87596   1.754   1.438   6.835  0.6655  0.1018  0.0909
27680SOL    HW187597   1.823   1.394   6.884  2.0360  2.0874  0.0253
27680SOL    HW287598   1.702   1.483   6.901  0.3317 -0.1326 -0.0030
27681SOL     OW87599   3.556   9.752  11.688  0.5302  0.2541  0.2698
27681SOL    HW187600   3.543   9.689  11.759 -0.2514 -0.7426 -0.7237
27681SOL    HW287601   3.554   9.699  11.608 -0.2819  1.5538 -0.6088
27682SOL     OW87602   9.816   5.344   7.428  0.0009 -0.3597 -0.2958
27682SOL    HW187603   9.766   5.412   7.383  2.0978 -0.6569 -3.3930
27682SOL    HW287604   9.904   5.381   7.437  0.7237 -1.9718 -0.3371
27683SOL     OW87605   6.035   7.930   0.783 -0.1021  0.7721  0.0750
27683SOL    HW187606   6.117   7.975   0.764 -0.2743  2.1600  2.1995
27683SOL    HW287607   6.056   7.837   0.778  2.1342  1.0630  2.2251
27684SOL     OW87608   2.935   6.690   8.079 -0.6557  0.3490 -0.1114
27684SOL    HW187609   3.023   6.705   8.044 -0.6834  0.9619  0.0759
27684SOL    HW287610   2.928   6.595   8.084  0.1527  0.2968  0.2542
27685SOL     OW87611   8.588   5.179   7.591  0.3509 -0.2769  0.3300
27685SOL    HW187612   8.655   5.246   7.598 -0.1984  0.3391 -0.1955
27685SOL    HW287613   8.583   5.159   7.497 -0.5224  0.0191  0.3071
27686SOL     OW87614   4.180   0.990   7.471 -0.0654  0.4809  0.0653
27686SOL    HW187615   4.131   1.012   7.550 -1.2870  0.6263 -0.7196
27686SOL    HW287616   4.183   0.894   7.471 -0.8429  0.4539 -0.1746
27687SOL     OW87617   7.037   6.101   9.520  0.1787 -0.1889 -0.4296
27687SOL    HW187618   7.121   6.142   9.540  1.8161 -3.2728 -0.3562
27687SOL    HW287619   6.974   6.148   9.573  2.0106  1.5890  0.2896
27688SOL     OW87620   9.332   3.153   4.556  0.1585 -0.2130 -0.0144
27688SOL    HW187621   9.419   3.156   4.594  0.9894 -0.0127 -1.8220
27688SOL    HW287622   9.300   3.243   4.562  0.4376 -0.1060 -0.1279
27689SOL     OW87623   5.454   3.807   5.922 -0.0577 -0.0020  0.1308
27689SOL    HW187624   5.437   3.900   5.904 -0.9778 -0.4344 -1.3937
27689SOL    HW287625   5.370   3.772   5.950  0.5141 -0.1923  1.7229
27690SOL     OW87626   0.683   6.053   6.519  0.5079 -0.5331 -0.1861
27690SOL    HW187627   0.769   6.086   6.491  0.5501 -2.3392 -2.4968
27690SOL    HW287628   0.691   6.043   6.614  2.8162 -0.5442 -0.3249
27691SOL     OW87629   4.197  10.046  10.066  0.2146  0.1365  0.9336
27691SOL    HW187630   4.290  10.049  10.043  0.3867  2.3320  1.7069
27691SOL    HW287631   4.194   9.992  10.145  0.5833 -1.2619  0.0318
27692SOL     OW87632   7.809   5.843   3.384 -0.0371 -0.7327 -0.4487
27692SOL    HW187633   7.882   5.784   3.370 -0.0134 -0.5858 -0.9724
27692SOL    HW287634   7.848   5.921   3.425  0.2408 -0.3192 -1.4757
27693SOL     OW87635   3.200  11.840   6.613  0.7646  0.1701  0.4296
27693SOL    HW187636   3.140  11.781   6.568  0.8426 -0.6087  1.3040
27693SOL    HW287637   3.205  11.918   6.557 -0.4602 -0.0624 -0.0250
27694SOL     OW87638   1.802   1.790   2.848 -0.4156 -0.1526 -0.2588
27694SOL    HW187639   1.802   1.883   2.873  0.2889 -0.9048  3.0956
27694SOL    HW287640   1.891   1.773   2.817 -0.4871  0.2483 -0.6864
27695SOL     OW87641   4.011   4.763  10.621 -0.0859  0.1584  0.3258
27695SOL    HW187642   3.971   4.760  10.534 -0.0212 -0.3301  0.3104
27695SOL    HW287643   3.966   4.695  10.671  0.3989 -0.0719  0.4518
27696SOL     OW87644   2.781  10.573   0.692  0.1245 -0.3378 -0.3619
27696SOL    HW187645   2.756  10.533   0.609  2.2657 -0.0825 -1.2099
27696SOL    HW287646   2.819  10.657   0.666 -1.2578  0.8017  1.1058
27697SOL     OW87647   7.594   8.579   8.197 -0.0430  0.1582 -0.1048
27697SOL    HW187648   7.680   8.583   8.156 -0.2548  0.1688 -0.5548
27697SOL    HW287649   7.541   8.642   8.148 -0.5365 -0.4710 -0.3921
27698SOL     OW87650   3.513   2.917   5.540  0.6132  0.3048 -0.5198
27698SOL    HW187651   3.445   2.904   5.606  1.4454 -1.0101  0.1189
27698SOL    HW287652   3.559   2.996   5.569  0.7521 -0.0632  0.3003
27699SOL     OW87653   3.969   6.130   2.252 -0.4338  0.1636 -0.9163
27699SOL    HW187654   3.947   6.065   2.185 -0.6195  0.7975 -1.4859
27699SOL    HW287655   3.953   6.214   2.209 -1.3602  0.5817  0.1928
27700SOL     OW87656   5.351   9.834   1.312  0.5742  0.2921  0.1566
27700SOL    HW187657   5.325   9.832   1.404  2.6177  1.1510  0.7916
27700SOL    HW287658   5.272   9.808   1.265 -0.3997 -0.5883  2.1582
27701SOL     OW87659   3.657   6.231   4.521  0.4117 -0.1081 -0.1442
27701SOL    HW187660   3.686   6.322   4.510  0.1814 -0.1367 -1.0686
27701SOL    HW287661   3.701   6.183   4.452  1.7762 -1.0165  1.2989
27702SOL     OW87662   1.368  11.614   9.142 -0.0884 -0.6492  0.1939
27702SOL    HW187663   1.406  11.535   9.104  1.6385 -0.7013  1.8973
27702SOL    HW287664   1.431  11.642   9.208 -0.7441  2.0529 -0.2002
27703SOL     OW87665   0.787   1.311   5.231 -0.4554  0.7759 -0.0726
27703SOL    HW187666   0.722   1.322   5.162 -0.4826 -0.7351 -0.3073
27703SOL    HW287667   0.736   1.301   5.311 -0.4451  1.3510  0.0164
27704SOL     OW87668  11.156   1.385   8.720 -0.3587 -0.3114 -0.3058
27704SOL    HW187669  11.121   1.474   8.715 -0.9102 -0.5228 -0.2263
27704SOL    HW287670  11.148   1.352   8.630  0.5115 -0.0357 -0.4944
27705SOL     OW87671   9.349   8.720   4.360  0.2639  0.3493 -0.0615
27705SOL    HW187672   9.392   8.689   4.280  2.4866  0.7887  0.8936
27705SOL    HW287673   9.287   8.651   4.382  0.8150 -0.5695 -1.2569
27706SOL     OW87674   6.499  11.401   8.822 -0.3360 -0.0505 -0.1160
27706SOL    HW187675   6.576  11.373   8.873  0.6702  1.5472 -0.6796
27706SOL    HW287676   6.471  11.323   8.776  1.2322 -0.5916 -0.2174
27707SOL     OW87677   5.562   7.662   1.322 -0.1422  0.4077 -1.0774
27707SOL    HW187678   5.615   7.617   1.255  0.4982  0.3713 -0.5620
27707SOL    HW287679   5.626   7.711   1.374 -0.4698 -0.4561  0.2070
27708SOL     OW87680   5.565   3.302  11.896 -0.4262  0.3372 -0.0318
27708SOL    HW187681   5.550   3.237  11.828 -1.0542  0.3076  0.1289
27708SOL    HW287682   5.540   3.258  11.978 -1.8034  1.0668 -0.0201
27709SOL     OW87683  10.378   8.744   4.268  0.4923  0.2389  0.4329
27709SOL    HW187684  10.430   8.678   4.223 -0.4515 -1.2025  1.3957
27709SOL    HW287685  10.290   8.734   4.233 -0.3831 -1.2507  2.8133
27710SOL     OW87686   1.244  10.204  11.117  0.1235 -0.0405  0.3006
27710SOL    HW187687   1.169  10.174  11.067  0.2545 -0.0638  0.1184
27710SOL    HW287688   1.263  10.292  11.082  0.1096  0.0115  0.4241
27711SOL     OW87689   4.011   9.424   1.977 -0.1765  0.9515 -0.2008
27711SOL    HW187690   4.106   9.438   1.983  0.0301 -0.6393  0.9438
27711SOL    HW287691   3.994   9.353   2.039 -1.9717  0.5452 -1.1091
27712SOL     OW87692   8.093   4.720   9.807  0.0886 -0.1382 -0.7082
27712SOL    HW187693   8.005   4.756   9.812  1.1045  2.5275 -0.3602
27712SOL    HW287694   8.122   4.714   9.898  0.5303 -0.2634 -0.8530
27713SOL     OW87695  10.396   8.235   3.345 -0.3470  0.6744 -0.2124
27713SOL    HW187696  10.367   8.310   3.293 -1.0587  0.0292 -0.7711
27713SOL    HW287697  10.450   8.183   3.285  0.9579  1.2088  0.4531
27714SOL     OW87698   0.987   6.773   9.145  0.3084 -0.2252 -0.2444
27714SOL    HW187699   0.940   6.794   9.065 -0.2605  2.0410  0.5821
27714SOL    HW287700   1.078   6.796   9.127  0.4253 -0.9792 -0.6381
27715SOL     OW87701   9.677   6.201  11.660 -0.3294 -0.2404  0.0701
27715SOL    HW187702   9.649   6.226  11.748  0.6689 -0.7983  0.5554
27715SOL    HW287703   9.739   6.130  11.673  1.7298  1.2644 -0.9283
27716SOL     OW87704   0.926   1.120  10.233  0.1664  0.2371  0.2621
27716SOL    HW187705   0.940   1.202  10.185 -0.3616  0.8414  1.1088
27716SOL    HW287706   0.843   1.132  10.278  0.1113 -0.7470  0.4530
27717SOL     OW87707   6.634   0.318   3.385  0.0768 -0.5292 -0.5007
27717SOL    HW187708   6.667   0.278   3.465  0.0307  2.0045  0.8948
27717SOL    HW287709   6.599   0.403   3.413 -1.8147 -0.3869 -2.9125
27718SOL     OW87710   6.390   0.995   1.806  0.2405  0.3955  0.3028
27718SOL    HW187711   6.458   1.045   1.761 -0.2470 -0.3155 -1.3060
27718SOL    HW287712   6.353   1.057   1.870  1.8491  1.0231  0.6780
27719SOL     OW87713  11.859   2.447   8.701 -0.2750  1.2395  0.2951
27719SOL    HW187714  11.831   2.469   8.789  0.4066  2.5538  0.2147
27719SOL    HW287715  11.955   2.455   8.704 -0.0989 -0.3024 -0.1612
27720SOL     OW87716   7.061   5.600  12.072 -0.2565 -0.5191 -0.0683
27720SOL    HW187717   7.146   5.570  12.040 -0.2959 -0.2077 -0.4791
27720SOL    HW287718   7.082   5.662  12.141 -0.1055  0.5207 -1.0141
27721SOL     OW87719   1.497   6.268   6.779 -0.7091  0.3795 -0.3153
27721SOL    HW187720   1.518   6.180   6.810 -0.1745  0.8737  0.7317
27721SOL    HW287721   1.535   6.327   6.843  1.7350  1.5130 -2.5885
27722SOL     OW87722   8.663   0.393   2.547 -0.0736 -0.4189 -0.2309
27722SOL    HW187723   8.573   0.395   2.579  0.3500  0.0163  1.0260
27722SOL    HW287724   8.716   0.381   2.626  1.1528  2.5017 -0.4696
27723SOL     OW87725   2.782   1.926   9.830 -0.4783  0.0105 -0.1125
27723SOL    HW187726   2.837   1.863   9.783 -0.7443 -0.3998  0.1188
27723SOL    HW287727   2.719   1.872   9.878  0.2787  0.3637  1.3631
27724SOL     OW87728   6.224  11.998   7.779 -0.2367 -0.1640  0.8525
27724SOL    HW187729   6.209  12.080   7.826 -2.2166  0.0751 -0.0729
27724SOL    HW287730   6.186  11.930   7.835  1.2361 -0.4684  1.5318
27725SOL     OW87731   7.087  10.736   3.806 -0.4052  0.1274 -0.3360
27725SOL    HW187732   7.136  10.679   3.746 -0.3299  0.6508 -0.7816
27725SOL    HW287733   7.062  10.811   3.752 -0.7065  0.4047  0.1853
27726SOL     OW87734   5.677   7.583   8.141 -0.3792  0.4696 -0.6092
27726SOL    HW187735   5.620   7.651   8.106  0.2455  0.8272 -0.9603
27726SOL    HW287736   5.759   7.592   8.091  0.7151  1.3192  1.2488
27727SOL     OW87737   0.826   5.136  10.353 -0.1156  0.3060 -0.3493
27727SOL    HW187738   0.920   5.126  10.366  0.2056  0.9586 -1.9661
27727SOL    HW287739   0.805   5.220  10.393 -0.2003 -0.2504  0.8115
27728SOL     OW87740   2.158  11.808   2.050  0.1243 -0.2671  0.0028
27728SOL    HW187741   2.108  11.851   2.119 -0.6989  1.8290 -1.7823
27728SOL    HW287742   2.092  11.771   1.991  0.7740 -0.9343 -0.3261
27729SOL     OW87743   4.242   5.941   9.071  0.0977 -0.7028  0.3434
27729SOL    HW187744   4.310   5.894   9.119  0.5154 -0.7858 -0.3214
27729SOL    HW287745   4.286   5.974   8.993 -0.7428 -1.2543 -0.3882
27730SOL     OW87746   1.114   5.641   2.357 -0.3875  0.4520 -0.3616
27730SOL    HW187747   1.039   5.626   2.415 -0.6554  1.4555 -0.4233
27730SOL    HW287748   1.191   5.635   2.414 -0.6794  2.0349  0.2589
27731SOL     OW87749  11.561   0.613   7.557  0.3027 -0.0613  0.6178
27731SOL    HW187750  11.509   0.558   7.615 -0.0512 -0.1111  0.2581
27731SOL    HW287751  11.652   0.588   7.575  0.1682 -0.4382  0.7791
27732SOL     OW87752   0.284   8.732   6.959  0.8057 -0.7526  0.6670
27732SOL    HW187753   0.288   8.828   6.956  2.1643 -0.8031 -0.6358
27732SOL    HW287754   0.248   8.712   7.045 -3.7047  0.9648 -0.5562
27733SOL     OW87755   8.139   5.908   3.383  0.1722  0.3767 -0.5000
27733SOL    HW187756   8.073   5.975   3.365 -0.8345 -0.9922 -2.1749
27733SOL    HW287757   8.188   5.900   3.301  1.2041  0.0197  0.1278
27734SOL     OW87758   7.241   9.419   8.864  0.4329  0.1796 -0.2857
27734SOL    HW187759   7.176   9.487   8.882  0.3889  0.5214 -1.6147
27734SOL    HW287760   7.260   9.381   8.949  1.2593  2.5809  0.6780
27735SOL     OW87761  10.312   4.054   7.706 -0.5365  0.2581 -0.2897
27735SOL    HW187762  10.279   3.987   7.646  1.5516 -1.1046 -0.0186
27735SOL    HW287763  10.254   4.049   7.782 -0.4036 -1.2986 -0.2606
27736SOL     OW87764   3.608   3.803   3.198  0.0968 -0.2199  0.2817
27736SOL    HW187765   3.642   3.735   3.256  1.9188 -0.3716 -0.8675
27736SOL    HW287766   3.533   3.762   3.155 -0.4464 -0.5606  1.5082
27737SOL     OW87767   9.388   2.916  10.694 -0.5040  0.1109 -0.2638
27737SOL    HW187768   9.438   2.835  10.701 -2.7472 -1.2238  3.2270
27737SOL    HW287769   9.453   2.984  10.680  1.7777 -1.9438 -0.2871
27738SOL     OW87770   5.724   5.394   8.759  0.0643  0.4820  0.5347
27738SOL    HW187771   5.671   5.437   8.691 -0.8595  1.0042  1.5532
27738SOL    HW287772   5.798   5.356   8.711 -0.6846  0.6235 -0.7977
27739SOL     OW87773   0.754   3.393   9.389  0.0114  0.0646 -0.0770
27739SOL    HW187774   0.753   3.310   9.340  1.9909 -0.2897  0.3713
27739SOL    HW287775   0.701   3.375   9.466 -1.3700 -0.0526 -1.0065
27740SOL     OW87776   6.255  10.847   8.465  0.3081  0.1907 -0.3846
27740SOL    HW187777   6.189  10.908   8.497  0.5153  0.7399 -1.0041
27740SOL    HW287778   6.289  10.805   8.545  0.7967  1.5227  0.1453
27741SOL     OW87779   4.858   4.310   6.320 -0.2544  0.2565  0.7459
27741SOL    HW187780   4.942   4.305   6.366 -0.7207 -1.8478  1.4941
27741SOL    HW287781   4.806   4.371   6.372 -0.3153 -1.0762  2.3254
27742SOL     OW87782   5.950   5.202   6.282  0.7354  0.1007  0.1112
27742SOL    HW187783   5.945   5.109   6.258  1.9151 -0.2494  1.1124
27742SOL    HW287784   6.006   5.204   6.359  0.6301  1.6491  0.1839
27743SOL     OW87785   5.808   6.157   8.574 -0.0325 -0.0768 -0.1426
27743SOL    HW187786   5.773   6.219   8.509 -0.8739 -0.5643 -0.1684
27743SOL    HW287787   5.901   6.151   8.554  0.1023  1.3222 -0.0286
27744SOL     OW87788   6.931   7.295   8.604  0.4624  0.4565 -0.0250
27744SOL    HW187789   6.896   7.207   8.616  1.2473  0.2655  0.9669
27744SOL    HW287790   6.919   7.313   8.511  0.9094 -0.9621 -0.3711
27745SOL     OW87791  11.305   9.983   1.646 -0.2374 -0.1586  0.2851
27745SOL    HW187792  11.314  10.056   1.707 -0.9229  1.8456 -1.9200
27745SOL    HW287793  11.231   9.932   1.680 -0.7562  1.0425  0.9927
27746SOL     OW87794  10.051  10.209   0.663 -0.1509 -0.0985 -0.0962
27746SOL    HW187795  10.057  10.166   0.577  0.0202  0.7903 -0.5459
27746SOL    HW287796  10.009  10.145   0.719 -2.4186  0.1087 -1.4258
27747SOL     OW87797   3.854   4.178  10.467 -1.1329  0.0175  0.0402
27747SOL    HW187798   3.826   4.245  10.404 -0.9779 -1.6553 -1.9176
27747SOL    HW287799   3.911   4.225  10.528 -0.2136  1.5059 -1.8513
27748SOL     OW87800   6.733   8.349   9.839 -0.1922  0.7096 -0.3788
27748SOL    HW187801   6.790   8.276   9.865 -2.0470 -0.8086 -0.2767
27748SOL    HW287802   6.782   8.427   9.863  1.9435 -0.4769 -0.5637
27749SOL     OW87803   8.435  11.736   0.753  0.7091 -0.3885  0.3968
27749SOL    HW187804   8.512  11.792   0.761 -0.6568  2.4460 -3.3093
27749SOL    HW287805   8.454  11.680   0.677 -0.8119  0.4800 -0.6851
27750SOL     OW87806   1.160   5.699   4.911 -0.4096  0.0892  0.9805
27750SOL    HW187807   1.143   5.684   4.818  0.1106  1.1243  0.7105
27750SOL    HW287808   1.072   5.700   4.950 -0.5952 -1.2315  0.6683
27751SOL     OW87809   5.598  11.670   7.671 -0.2338 -0.0179 -0.1673
27751SOL    HW187810   5.586  11.755   7.713 -1.6922 -0.1222 -0.3062
27751SOL    HW287811   5.591  11.689   7.577 -1.5224 -0.3867 -0.1708
27752SOL     OW87812   2.561   9.082   2.181  0.1057  0.2675  0.4627
27752SOL    HW187813   2.506   9.160   2.171 -0.6081 -0.2050  0.6475
27752SOL    HW287814   2.628   9.091   2.113  0.2536  1.2239  0.7247
27753SOL     OW87815  10.614   1.673   2.732  0.4821  0.3158  0.4998
27753SOL    HW187816  10.537   1.637   2.775  0.2100  0.3157  0.0096
27753SOL    HW287817  10.678   1.602   2.734 -0.5263 -0.7596 -1.7614
27754SOL     OW87818   5.922  11.441   2.986  0.5152  0.5257 -0.4903
27754SOL    HW187819   5.955  11.526   3.016 -0.1565  1.2339 -1.6698
27754SOL    HW287820   5.833  11.459   2.957  1.0256 -0.0983 -2.6993
27755SOL     OW87821   3.596   0.657   2.419 -0.3656  0.1890  0.1679
27755SOL    HW187822   3.533   0.644   2.490 -2.1287  0.4259 -1.2620
27755SOL    HW287823   3.596   0.574   2.371  1.9444 -0.5047  1.2187
27756SOL     OW87824   2.223   0.171   3.017  0.2132 -0.0670  0.7083
27756SOL    HW187825   2.202   0.132   2.932  2.9144  1.2755 -0.6850
27756SOL    HW287826   2.139   0.206   3.048 -0.8358 -0.4645 -1.4768
27757SOL     OW87827   1.906   6.081   1.878 -0.0966 -0.0193  0.0385
27757SOL    HW187828   1.975   6.028   1.839  0.4689  0.5459  0.2636
27757SOL    HW287829   1.839   6.017   1.905 -0.3189 -0.4593 -1.4612
27758SOL     OW87830   9.425   2.589   4.518  0.6796 -0.4404  0.0294
27758SOL    HW187831   9.370   2.513   4.500 -0.5222  0.8798 -2.3247
27758SOL    HW287832   9.507   2.571   4.471 -0.6293  0.8093 -2.9948
27759SOL     OW87833   5.568   7.907   1.026 -0.2684  0.1205 -0.1170
27759SOL    HW187834   5.656   7.888   1.060 -0.1987  0.8139  0.0972
27759SOL    HW287835   5.516   7.928   1.104 -0.7587 -0.7637 -0.1891
27760SOL     OW87836   7.646   0.930   4.526  0.1166 -0.5418  0.3620
27760SOL    HW187837   7.574   0.993   4.524  0.6246  0.0726  0.7535
27760SOL    HW287838   7.617   0.862   4.586  0.0734 -0.0207  0.9427
27761SOL     OW87839   2.124   2.288   3.972 -0.0222  0.3957 -0.2678
27761SOL    HW187840   2.045   2.342   3.977 -0.1005  0.5116 -1.9020
27761SOL    HW287841   2.150   2.294   3.880  2.1093  0.6447  0.3061
27762SOL     OW87842   5.350   7.414   5.352 -0.3515  0.4662 -0.5677
27762SOL    HW187843   5.430   7.376   5.386 -0.5330  0.3979 -0.2124
27762SOL    HW287844   5.378   7.493   5.306 -0.2331  1.3366  0.9427
27763SOL     OW87845   6.774   8.950  11.890  0.0719 -0.6558 -0.3722
27763SOL    HW187846   6.758   9.027  11.944 -0.8343  1.4868 -3.4279
27763SOL    HW287847   6.844   8.903  11.935  0.9735  2.1626  1.4322
27764SOL     OW87848   7.419   3.664   1.013  0.2097 -0.1749  0.4526
27764SOL    HW187849   7.341   3.674   0.958  1.4659 -1.2024 -1.6846
27764SOL    HW287850   7.436   3.752   1.047 -0.7093  0.5030 -0.7578
27765SOL     OW87851   8.298   5.871   3.614  0.5322  0.1949 -0.3940
27765SOL    HW187852   8.237   5.853   3.542 -0.2143  0.3797  0.1830
27765SOL    HW287853   8.268   5.955   3.649 -0.4559 -0.8863  1.4988
27766SOL     OW87854   6.081   8.124   8.974  0.4443 -0.2118  0.6773
27766SOL    HW187855   6.171   8.122   9.005 -0.2813 -2.5861  3.0385
27766SOL    HW287856   6.081   8.068   8.896  1.2116  0.8167 -0.0746
27767SOL     OW87857   5.148  12.037   8.388 -0.6067 -0.0072 -0.0366
27767SOL    HW187858   5.196  11.995   8.316 -1.7965 -1.4755 -0.0223
27767SOL    HW287859   5.165  12.130   8.377  0.8986 -0.3543 -0.9883
27768SOL     OW87860   8.954   1.454  11.371  0.5238 -0.3358 -0.1831
27768SOL    HW187861   8.955   1.540  11.329 -0.8470 -0.7835 -1.2002
27768SOL    HW287862   8.917   1.470  11.458  1.0679  0.2197 -0.0460
27769SOL     OW87863   6.496   1.254   0.082  0.2780  0.8167  0.2105
27769SOL    HW187864   6.441   1.272   0.158 -0.8419  2.1655 -0.8820
27769SOL    HW287865   6.467   1.315   0.015  0.8694 -0.6765 -1.5069
27770SOL     OW87866   3.887   2.551   5.403 -0.6110 -0.0192  0.0377
27770SOL    HW187867   3.793   2.558   5.386 -0.5702  0.2209 -0.0953
27770SOL    HW287868   3.925   2.624   5.354 -0.2583 -0.6555 -0.6445
27771SOL     OW87869   1.698   4.211   8.366  0.6754 -0.1037 -0.2431
27771SOL    HW187870   1.610   4.249   8.371  0.2417 -1.2091  0.8012
27771SOL    HW287871   1.726   4.229   8.276 -1.2242 -1.0376 -1.0870
27772SOL     OW87872   2.933   1.718   9.714 -0.1906  0.1957  0.1220
27772SOL    HW187873   2.987   1.765   9.650 -0.4155  0.8182  0.3749
27772SOL    HW287874   2.878   1.660   9.661  1.3581 -1.1479 -0.0862
27773SOL     OW87875   3.975  11.962   8.928 -0.2077 -0.5642 -0.0168
27773SOL    HW187876   4.061  12.002   8.945 -0.4641  0.7091 -1.5425
27773SOL    HW287877   3.965  11.966   8.833 -0.9121 -2.9824 -0.1070
27774SOL     OW87878   3.081   5.319   2.923 -0.1535 -0.4206 -0.0106
27774SOL    HW187879   3.123   5.364   2.850  0.6169 -1.0007  0.0653
27774SOL    HW287880   3.008   5.376   2.947 -0.1389  0.0054 -0.9256
27775SOL     OW87881   6.127   8.365   1.673  0.1146 -0.1207 -0.4043
27775SOL    HW187882   6.097   8.453   1.651  1.7111  0.6661  0.3798
27775SOL    HW287883   6.151   8.371   1.766  0.6779 -1.2605 -0.4628
27776SOL     OW87884   4.495   3.079  10.571 -0.3278 -0.1977 -0.1600
27776SOL    HW187885   4.579   3.035  10.567 -0.3314 -0.4859  1.8564
27776SOL    HW287886   4.471   3.094  10.480  0.8747 -2.0485 -0.8352
27777SOL     OW87887   5.499  10.745  10.398  0.2867 -0.2934  0.5938
27777SOL    HW187888   5.546  10.828  10.405 -0.7345  0.2747  0.9885
27777SOL    HW287889   5.406  10.770  10.399 -0.0563 -1.2689 -1.3887
27778SOL     OW87890   7.235   7.460   0.243  0.3770  0.2191 -0.0495
27778SOL    HW187891   7.237   7.539   0.297 -0.5335 -0.6162  1.2412
27778SOL    HW287892   7.187   7.396   0.295  1.5475 -1.3638 -0.8573
27779SOL     OW87893  10.688   8.334   0.394 -0.4227  0.1958 -0.5214
27779SOL    HW187894  10.636   8.406   0.431 -1.1042 -0.3764 -0.3609
27779SOL    HW287895  10.682   8.264   0.458  2.2184  0.7707  0.4965
27780SOL     OW87896  11.373   0.687   5.248 -0.0014  0.3090 -0.6145
27780SOL    HW187897  11.434   0.615   5.236  1.1182  1.1201  0.0294
27780SOL    HW287898  11.339   0.674   5.337 -0.9670 -0.2635 -1.0470
27781SOL     OW87899   5.200   2.605  11.510  0.5360  0.4362 -0.3527
27781SOL    HW187900   5.201   2.664  11.434  2.4700  0.6476 -0.2041
27781SOL    HW287901   5.265   2.642  11.570 -2.4485  1.5989  2.5076
27782SOL     OW87902   1.668   2.051   7.523 -0.5153  0.1151 -0.1570
27782SOL    HW187903   1.643   2.135   7.563 -0.8660  0.9228 -1.9667
27782SOL    HW287904   1.595   2.028   7.467  0.2321 -0.6071 -0.8646
27783SOL     OW87905   9.227   8.059  10.161 -0.0932  0.7388 -0.1156
27783SOL    HW187906   9.271   8.141  10.184  1.1141 -0.1163  0.7515
27783SOL    HW287907   9.200   8.071  10.070  0.2896  1.9975 -0.0836
27784SOL     OW87908   6.412   5.739   7.341  0.2423 -0.1967  0.1185
27784SOL    HW187909   6.374   5.749   7.428 -0.9117 -0.8410 -0.2780
27784SOL    HW287910   6.420   5.644   7.329 -0.3324 -0.1528 -0.7475
27785SOL     OW87911   9.063   2.721   7.297 -0.2515 -0.1084  0.5520
27785SOL    HW187912   9.020   2.805   7.316 -1.3912 -0.5213 -0.0943
27785SOL    HW287913   9.045   2.667   7.374 -3.2855 -1.1694 -0.7545
27786SOL     OW87914  11.006   2.210   4.450  0.2201  0.2750  0.2658
27786SOL    HW187915  10.969   2.278   4.507  0.1038  1.1587 -0.8255
27786SOL    HW287916  10.979   2.127   4.490 -0.6730  0.8896  0.9648
27787SOL     OW87917   0.559   1.880  10.843  0.0098 -0.0402 -0.3265
27787SOL    HW187918   0.643   1.926  10.842  1.2363 -2.0846  0.5277
27787SOL    HW287919   0.512   1.913  10.767  2.1528  0.2177 -1.6291
27788SOL     OW87920   9.542   9.360   7.003  0.3074  0.1228 -0.0082
27788SOL    HW187921   9.621   9.346   7.056 -0.3323  0.5270  1.0845
27788SOL    HW287922   9.518   9.273   6.972 -0.0268 -0.3266  1.4456
27789SOL     OW87923   7.267   8.019  10.528  0.0916  0.3032  0.3354
27789SOL    HW187924   7.342   7.961  10.536 -0.0799  0.2699  2.0708
27789SOL    HW287925   7.296   8.089  10.469  0.1716 -1.6670 -2.1219
27790SOL     OW87926  11.956   3.679   1.860 -0.3845 -0.3555 -0.3424
27790SOL    HW187927  12.046   3.704   1.839 -0.5064 -0.0768 -0.5467
27790SOL    HW287928  11.925   3.747   1.920 -0.6259 -0.1641 -0.6767
27791SOL     OW87929   1.278  11.326   3.101  0.5850 -0.2997 -0.1506
27791SOL    HW187930   1.235  11.246   3.132  1.4644 -0.3787  0.9409
27791SOL    HW287931   1.361  11.328   3.148  0.5790  1.2697 -0.1675
27792SOL     OW87932   9.629   2.084   4.646  0.2035  0.0637  0.6372
27792SOL    HW187933   9.590   2.171   4.651  0.1152  0.2657 -2.1879
27792SOL    HW287934   9.723   2.101   4.634  0.2347 -0.2597  0.4362
27793SOL     OW87935   5.626   2.239   1.898 -0.3454 -0.3482  0.1117
27793SOL    HW187936   5.629   2.271   1.988 -2.8441  1.1195 -0.2448
27793SOL    HW287937   5.694   2.172   1.894  3.1041  2.7038  1.8009
27794SOL     OW87938   4.634   3.427   7.827 -0.6034 -0.0782  0.2434
27794SOL    HW187939   4.668   3.515   7.843  0.8033 -0.8847  2.1749
27794SOL    HW287940   4.539   3.437   7.827 -0.4907  1.7291 -1.7604
27795SOL     OW87941  11.765   7.441   5.951  0.2028 -0.1356  0.6093
27795SOL    HW187942  11.838   7.378   5.946 -0.8072 -1.2425 -1.4668
27795SOL    HW287943  11.692   7.389   5.985 -0.6236 -0.1280 -1.0611
27796SOL     OW87944   0.751   2.388   7.262 -0.7254 -0.6390  0.0801
27796SOL    HW187945   0.740   2.440   7.182  1.7486 -0.0415  0.0334
27796SOL    HW287946   0.666   2.392   7.305 -1.5294  0.7850 -1.4944
27797SOL     OW87947   2.518   4.387  10.465  0.1967 -0.3377 -0.2123
27797SOL    HW187948   2.553   4.363  10.551  0.5709 -1.1293 -0.5757
27797SOL    HW287949   2.592   4.376  10.405  0.4878  2.0013 -0.4022
27798SOL     OW87950   3.589   2.693  11.730 -0.1940  0.1981  0.3751
27798SOL    HW187951   3.518   2.730  11.677 -0.1899 -0.0719  0.1787
27798SOL    HW287952   3.632   2.631  11.671  0.3064  0.4772  0.4400
27799SOL     OW87953  11.621   3.941   3.645 -0.0856  0.3322  0.5692
27799SOL    HW187954  11.560   3.973   3.578 -1.2954 -0.0137  1.4708
27799SOL    HW287955  11.634   4.015   3.703  1.1189  0.6915 -0.1196
27800SOL     OW87956   3.552   0.179  11.381 -0.1422  0.0403  0.8961
27800SOL    HW187957   3.551   0.147  11.291 -1.0806 -1.9244  1.5617
27800SOL    HW287958   3.541   0.274  11.372 -0.6970 -0.1611 -1.0345
27801SOL     OW87959   7.544   9.131   1.325 -0.4975  0.0224  0.3747
27801SOL    HW187960   7.598   9.205   1.351  0.2666 -0.4952  0.3217
27801SOL    HW287961   7.608   9.062   1.304 -1.2064 -0.8859  1.1438
27802SOL     OW87962   6.453   1.994   4.758  0.2858  0.0253 -0.1032
27802SOL    HW187963   6.526   1.962   4.812  1.4982  0.7100 -1.2876
27802SOL    HW287964   6.392   2.032   4.821 -1.8172 -5.2189  1.6501
27803SOL     OW87965   5.771   8.458   1.582  0.5237  0.1168 -0.4388
27803SOL    HW187966   5.844   8.508   1.618  0.4601  1.1423 -1.6928
27803SOL    HW287967   5.793   8.367   1.601  1.1055  0.5227  1.0255
27804SOL     OW87968   3.156   0.283   5.850 -0.5300  0.1005  0.1772
27804SOL    HW187969   3.238   0.286   5.900 -0.6694  0.1300  0.4020
27804SOL    HW287970   3.182   0.245   5.765  0.5148  3.7387 -1.3049
27805SOL     OW87971   3.799   0.444   3.300 -0.3707  0.9475 -0.0382
27805SOL    HW187972   3.862   0.509   3.332  0.6850  0.3821 -0.8995
27805SOL    HW287973   3.767   0.482   3.218 -0.0736  0.5989 -0.3215
27806SOL     OW87974   7.786   7.181   9.044  0.3095 -0.0801 -0.1199
27806SOL    HW187975   7.718   7.114   9.038  0.7892 -0.6497  0.5536
27806SOL    HW287976   7.755   7.252   8.989 -0.7680 -0.3777  0.0805
27807SOL     OW87977   6.555   4.614   3.646  0.2400 -0.1741  0.7328
27807SOL    HW187978   6.609   4.685   3.679  2.3096 -0.8263 -1.0416
27807SOL    HW287979   6.505   4.654   3.574 -0.7561  0.1069  1.5436
27808SOL     OW87980   3.045   4.152   9.325 -0.4763  0.0668  0.5606
27808SOL    HW187981   2.956   4.137   9.291 -0.7237  0.6549  0.9413
27808SOL    HW287982   3.039   4.133   9.418 -0.0137 -0.6378  0.4530
27809SOL     OW87983   7.231   7.181   3.741 -0.2252  0.7627 -0.5623
27809SOL    HW187984   7.281   7.217   3.814  1.8180 -0.8993 -1.0628
27809SOL    HW287985   7.224   7.254   3.679  0.7609  1.2945 -0.0721
27810SOL     OW87986   0.036   9.471   2.564  0.5143  0.5946  0.3061
27810SOL    HW187987  -0.049   9.479   2.521  0.5387  0.8672  0.3082
27810SOL    HW287988   0.017   9.482   2.657  0.5087  0.3470  0.3342
27811SOL     OW87989   3.520   7.853  11.570  0.5181  0.3626  0.4799
27811SOL    HW187990   3.568   7.776  11.539 -0.7964 -0.1874 -0.2595
27811SOL    HW287991   3.525   7.847  11.666 -1.4973 -1.9839  0.5468
27812SOL     OW87992   6.869   1.295   6.681 -0.1603 -0.3661 -0.2272
27812SOL    HW187993   6.964   1.310   6.671 -0.0921 -0.8797 -0.3918
27812SOL    HW287994   6.832   1.325   6.598 -0.2152  0.3644  0.0483
27813SOL     OW87995   8.501   0.465   7.322 -0.0399 -0.5368 -0.2350
27813SOL    HW187996   8.570   0.435   7.382 -0.9483 -0.1275  1.0568
27813SOL    HW287997   8.532   0.550   7.290 -1.1930  1.1061  2.6662
27814SOL     OW87998   8.221   8.498   9.248 -0.2651 -0.0990  0.5928
27814SOL    HW187999   8.188   8.410   9.268  0.6997 -0.4901  0.5114
27814SOL    HW288000   8.205   8.548   9.328  2.6356 -1.3807  2.1295
27815SOL     OW88001   4.566   9.005   5.969  0.2391  0.0702  0.3700
27815SOL    HW188002   4.636   9.030   5.909 -0.9100 -0.6146 -1.3426
27815SOL    HW288003   4.493   9.062   5.946 -0.8601 -1.5297 -0.3139
27816SOL     OW88004   2.353   5.731   1.994 -0.3328  0.3302 -0.0532
27816SOL    HW188005   2.403   5.807   1.967 -0.3911 -0.0929 -1.4131
27816SOL    HW288006   2.413   5.681   2.050  0.3340  0.4432 -0.6653
27817SOL     OW88007   0.142   8.776   2.331  0.2830 -0.3388  0.4677
27817SOL    HW188008   0.083   8.723   2.278  1.9383 -0.8916 -0.8932
27817SOL    HW288009   0.086   8.812   2.400 -1.9195  0.1821 -1.4606
27818SOL     OW88010   6.936   2.119  12.024 -0.3314  0.3538  0.5175
27818SOL    HW188011   6.901   2.043  11.977  1.7314 -0.3401 -0.0108
27818SOL    HW288012   6.908   2.194  11.971 -1.1801 -0.1338  0.2504
27819SOL     OW88013   7.093   0.606   2.711 -0.7461  0.0995  0.7471
27819SOL    HW188014   7.126   0.680   2.660 -1.1014  0.1606  0.6057
27819SOL    HW288015   7.003   0.593   2.680 -1.4670  1.0379  2.3430
27820SOL     OW88016   5.060   0.314   4.913  0.4156  0.6521 -0.5663
27820SOL    HW188017   5.015   0.296   4.995  0.9519  2.1718  0.0958
27820SOL    HW288018   5.130   0.249   4.910  1.3947  1.5615  1.0184
27821SOL     OW88019   5.896   0.919  10.458 -0.4346 -0.4231  0.1004
27821SOL    HW188020   5.893   0.888  10.368 -2.0073  2.2839 -0.8854
27821SOL    HW288021   5.990   0.933  10.476 -0.1842  0.6100 -1.7637
27822SOL     OW88022  10.758   1.838   9.729 -0.0478 -0.0982 -0.1300
27822SOL    HW188023  10.740   1.765   9.670 -0.4258  0.5340 -0.8001
27822SOL    HW288024  10.721   1.915   9.686 -1.0744  0.2602  1.3074
27823SOL     OW88025   1.839   9.292  11.153  0.2625 -0.0629 -0.0122
27823SOL    HW188026   1.763   9.310  11.096  0.0580  0.3855  0.3938
27823SOL    HW288027   1.860   9.377  11.191  1.4022 -0.0497 -0.6400
27824SOL     OW88028   5.973   7.475   6.451  0.8790 -0.3215 -0.8573
27824SOL    HW188029   5.932   7.555   6.485 -2.5161 -2.2600  0.1723
27824SOL    HW288030   6.016   7.436   6.527 -0.2515 -0.9776 -0.5255
27825SOL     OW88031  10.594   0.243   0.736  0.0189 -0.4007  0.9821
27825SOL    HW188032  10.633   0.185   0.802  1.1006  0.6031  1.2529
27825SOL    HW288033  10.660   0.250   0.668  0.1425  0.9530  1.2148
27826SOL     OW88034   8.744   1.883   3.090  0.5094  0.0573 -0.0818
27826SOL    HW188035   8.790   1.862   3.171  0.0827 -0.5704  0.0119
27826SOL    HW288036   8.806   1.859   3.020  1.1349  1.2390  0.0547
27827SOL     OW88037  10.049   8.189  11.009  0.5030  0.2977  0.6115
27827SOL    HW188038  10.094   8.121  10.959  0.2738  0.5983 -0.0293
27827SOL    HW288039   9.957   8.177  10.988  0.2838 -0.2198  1.7970
27828SOL     OW88040  11.937   9.209   0.368 -0.1707 -0.5646 -0.3658
27828SOL    HW188041  12.031   9.207   0.350 -0.0957  0.7072 -0.1788
27828SOL    HW288042  11.928   9.267   0.444 -1.2235  0.4242 -1.2078
27829SOL     OW88043   6.383   4.800   7.088  0.4051  0.2084  0.2997
27829SOL    HW188044   6.335   4.719   7.108 -0.6532  0.5937 -0.5462
27829SOL    HW288045   6.410   4.790   6.997 -0.6950  1.2438 -0.1634
27830SOL     OW88046   3.683   8.757   4.408  0.2095 -0.0157 -0.3128
27830SOL    HW188047   3.668   8.793   4.321 -2.5902 -0.0434  0.0522
27830SOL    HW288048   3.616   8.689   4.418 -0.9078  1.3113  2.5220
27831SOL     OW88049   6.150   4.344   7.151  0.1863 -0.2109 -0.3718
27831SOL    HW188050   6.083   4.305   7.209  0.2480  0.0506 -0.1203
27831SOL    HW288051   6.142   4.295   7.069 -1.2430  0.6973 -0.8204
27832SOL     OW88052   9.181   7.337  11.279 -0.4581 -0.2986 -0.0891
27832SOL    HW188053   9.085   7.336  11.272 -0.5016  0.6164  0.1244
27832SOL    HW288054   9.199   7.416  11.331  0.4202 -0.4067 -0.2238
27833SOL     OW88055   1.582   7.057   2.386  0.1044 -0.5635 -0.3333
27833SOL    HW188056   1.537   6.984   2.427  1.1556  0.5966  3.2747
27833SOL    HW288057   1.519   7.129   2.388  0.4465 -0.2698  0.0706
27834SOL     OW88058   2.533   2.173   5.720 -0.0970 -0.6150 -0.3206
27834SOL    HW188059   2.500   2.084   5.715 -2.0181 -0.1572  2.3929
27834SOL    HW288060   2.458   2.228   5.698  1.0703  0.4285 -2.0010
27835SOL     OW88061   7.122   5.179   4.710  0.3947  0.7601  0.0559
27835SOL    HW188062   7.148   5.155   4.799  2.3806 -0.4567 -0.7665
27835SOL    HW288063   7.091   5.097   4.671  2.6747  0.4622 -1.3255
27836SOL     OW88064  11.608   4.186   5.079 -0.2530  0.3019  0.2730
27836SOL    HW188065  11.702   4.168   5.085 -0.2110  0.4339  0.0109
27836SOL    HW288066  11.584   4.221   5.165 -0.4041 -1.3210  0.9232
27837SOL     OW88067   4.618   5.098   5.912 -0.3289 -1.0151 -0.0247
27837SOL    HW188068   4.620   5.007   5.941 -2.0821 -1.1245 -0.1251
27837SOL    HW288069   4.706   5.115   5.879  0.6812 -1.9791  1.9983
27838SOL     OW88070   3.587   8.204   2.651 -0.1927 -0.3592  0.0607
27838SOL    HW188071   3.499   8.214   2.688  0.1994  0.1415  0.9012
27838SOL    HW288072   3.587   8.117   2.611 -1.0972 -0.3266 -0.0392
27839SOL     OW88073   4.569   1.920   7.752 -0.1856 -0.4627 -0.0974
27839SOL    HW188074   4.486   1.890   7.714  0.0032 -0.5126 -0.4645
27839SOL    HW288075   4.562   2.016   7.752 -0.3019 -0.4704  0.0070
27840SOL     OW88076   6.206   4.467   0.484  0.3276 -0.9802  0.1634
27840SOL    HW188077   6.213   4.477   0.389  1.7877  0.8444  0.4066
27840SOL    HW288078   6.232   4.376   0.500 -0.7550 -1.5764 -1.2201
27841SOL     OW88079   8.836   0.659  11.807 -0.2544  0.0435  0.3938
27841SOL    HW188080   8.916   0.692  11.765 -0.5950 -0.3051 -0.5429
27841SOL    HW288081   8.841   0.564  11.797  0.0542 -0.1223  1.8834
27842SOL     OW88082   5.308   5.788   4.321 -0.4837 -0.3031  0.2505
27842SOL    HW188083   5.333   5.845   4.394 -0.2999  0.2045 -0.1993
27842SOL    HW288084   5.390   5.745   4.295 -0.4760 -0.2043  0.1084
27843SOL     OW88085   3.876   2.344   7.995 -0.6298  0.4928  0.1002
27843SOL    HW188086   3.953   2.399   8.010 -0.5177  1.0467 -2.1731
27843SOL    HW288087   3.908   2.274   7.938 -0.8316 -1.9046  2.7152
27844SOL     OW88088   9.173   5.166   8.713  0.3379  0.3777 -0.4923
27844SOL    HW188089   9.219   5.234   8.763  0.1714  0.5308 -0.5460
27844SOL    HW288090   9.200   5.181   8.623  0.7925 -0.0227 -0.4251
27845SOL     OW88091   4.868   1.441  11.314 -0.3443 -0.5052 -0.0251
27845SOL    HW188092   4.778   1.456  11.286 -0.3226  2.5741  1.1284
27845SOL    HW288093   4.922   1.480  11.244  0.0593 -1.0461 -0.0243
27846SOL     OW88094  11.479  10.066   4.172  0.4682 -0.4312 -0.0259
27846SOL    HW188095  11.456  10.043   4.262 -2.7892  0.3169 -0.5388
27846SOL    HW288096  11.484  10.162   4.172  1.8068 -0.4832 -0.3974
27847SOL     OW88097   0.499   1.142   1.796 -0.0832 -0.0927 -0.2531
27847SOL    HW188098   0.453   1.226   1.796  1.1737  0.6254 -0.9451
27847SOL    HW288099   0.546   1.141   1.712  0.3347 -1.2675 -0.0224
27848SOL     OW88100  10.924   4.257   4.098  0.1515 -0.2846 -0.2242
27848SOL    HW188101  11.015   4.228   4.105  1.3537  2.8972 -1.2242
27848SOL    HW288102  10.913   4.280   4.006 -1.3357  0.4274  0.1056
27849SOL     OW88103  11.099   0.222   0.393 -0.0225  0.1155 -0.8536
27849SOL    HW188104  11.082   0.306   0.436 -0.4835  0.1690 -1.1305
27849SOL    HW288105  11.012   0.187   0.375  0.1639  0.0017 -1.5605
27850SOL     OW88106   8.972   8.221   4.350  0.3502 -0.4148 -0.3570
27850SOL    HW188107   8.997   8.223   4.443  0.4103 -0.4750 -0.3718
27850SOL    HW288108   8.900   8.159   4.346 -0.7246  0.7649 -0.0878
27851SOL     OW88109   6.973   4.429   9.681  0.5569  0.6319  0.0796
27851SOL    HW188110   6.972   4.522   9.659 -0.9966  0.5349 -0.3718
27851SOL    HW288111   6.958   4.384   9.598  0.9126 -0.0038  0.3528
27852SOL     OW88112   0.194   7.341  10.569  0.0484 -0.0838 -0.7536
27852SOL    HW188113   0.268   7.397  10.545  0.8094 -0.5791  0.3336
27852SOL    HW288114   0.233   7.253  10.576 -0.9589 -0.6236 -1.6458
27853SOL     OW88115  10.456  11.574   4.378  0.3029 -0.1041 -0.1120
27853SOL    HW188116  10.522  11.636   4.347 -0.4610  0.8398  0.0926
27853SOL    HW288117  10.425  11.530   4.299  0.1381  0.5025 -0.3902
27854SOL     OW88118   8.673  11.287   5.289 -0.1941 -0.0954  0.3234
27854SOL    HW188119   8.586  11.287   5.249  0.3994 -3.2248 -1.3135
27854SOL    HW288120   8.709  11.373   5.269 -1.9192  0.3038 -1.3434
27855SOL     OW88121   0.526   0.413   8.183  0.1395 -0.0160  0.3939
27855SOL    HW188122   0.519   0.323   8.151  0.0971 -0.4885  1.6558
27855SOL    HW288123   0.439   0.435   8.215  0.1817  0.4268  0.2140
27856SOL     OW88124   9.870  12.070  10.018  0.1511 -0.5986  0.0843
27856SOL    HW188125   9.818  12.014  10.076 -0.0383 -1.5653 -0.9794
27856SOL    HW288126   9.823  12.066   9.934 -0.2602  1.7308  0.1498
27857SOL     OW88127   5.235  11.248  11.982 -0.3263  0.3169  0.4608
27857SOL    HW188128   5.280  11.282  11.905 -1.9669  0.4620 -0.4722
27857SOL    HW288129   5.284  11.169  12.005  0.8723  0.8991 -0.0164
27858SOL     OW88130  10.839   4.040   5.282  0.7122 -0.2863 -0.2809
27858SOL    HW188131  10.910   4.039   5.346  1.1106 -0.5555 -0.7089
27858SOL    HW288132  10.861   4.113   5.223  0.2593  0.0686 -0.0175
27859SOL     OW88133   8.987   3.764   5.498 -0.6522  0.2847 -0.1041
27859SOL    HW188134   8.994   3.855   5.526  2.1385  0.0674  0.2831
27859SOL    HW288135   8.905   3.759   5.449 -1.5658  2.6399  1.0442
27860SOL     OW88136   9.729  11.611  11.993  0.2424  0.4366 -0.3595
27860SOL    HW188137   9.780  11.654  11.924  0.5296  1.5798  0.5285
27860SOL    HW288138   9.795  11.579  12.055  0.0358 -1.4013 -1.0288
27861SOL     OW88139   6.160  10.692   6.830  0.5075 -0.0090  0.4861
27861SOL    HW188140   6.067  10.676   6.815  0.8056 -0.7236 -0.7575
27861SOL    HW288141   6.181  10.767   6.774  1.1618 -1.3231 -1.1060
27862SOL     OW88142   3.401   0.909   4.484 -0.3065  0.2492 -0.1146
27862SOL    HW188143   3.494   0.889   4.478  0.0656  1.8389 -0.2026
27862SOL    HW288144   3.376   0.935   4.395 -1.0576 -0.9830 -0.2853
27863SOL     OW88145   9.949   2.534   3.572 -0.2651 -0.8278 -0.6450
27863SOL    HW188146  10.034   2.530   3.528 -0.0196  0.6804 -0.3816
27863SOL    HW288147   9.967   2.508   3.662  0.2014  0.6701 -0.2727
27864SOL     OW88148  10.873   1.575   0.090 -0.2993 -0.0528  0.5502
27864SOL    HW188149  10.968   1.563   0.095 -0.1448  1.1167  0.6460
27864SOL    HW288150  10.862   1.655   0.038 -1.2090  0.2267  1.1542
27865SOL     OW88151   3.829  11.119   1.807 -0.2774  0.4818 -0.0793
27865SOL    HW188152   3.798  11.030   1.823  0.9715 -0.3744 -1.9917
27865SOL    HW288153   3.750  11.171   1.794 -1.0178 -1.0084 -1.9443
27866SOL     OW88154   0.056   9.828   4.588  0.2385 -0.0705 -0.6038
27866SOL    HW188155   0.070   9.734   4.599  1.0395  0.0989 -0.0520
27866SOL    HW288156   0.117   9.868   4.650  0.4249  0.8228 -1.3521
27867SOL     OW88157   6.644   1.925   9.373  0.2296  0.2165  0.4672
27867SOL    HW188158   6.693   1.843   9.382  1.2871  0.9993  2.5377
27867SOL    HW288159   6.702   1.981   9.321 -0.7878 -0.4737 -1.5591
27868SOL     OW88160   4.622   8.607   7.624 -0.3113 -0.1523 -0.4558
27868SOL    HW188161   4.553   8.545   7.601 -0.9544  0.0037  0.9571
27868SOL    HW288162   4.703   8.556   7.620 -0.1030  0.2158 -4.5042
27869SOL     OW88163   3.559  10.774   4.844 -0.8204 -0.1816 -0.6430
27869SOL    HW188164   3.530  10.844   4.903 -0.2798  0.3980 -1.0375
27869SOL    HW288165   3.654  10.770   4.857 -0.8634 -0.9321 -0.5348
27870SOL     OW88166   2.409   9.916   8.967  0.4988  0.7449 -0.0202
27870SOL    HW188167   2.370   9.935   9.052  0.1315 -0.6018  0.1418
27870SOL    HW288168   2.353   9.960   8.903 -0.2486  0.3028  0.3280
27871SOL     OW88169   7.083   3.153  10.709  0.2639 -0.2180  0.3954
27871SOL    HW188170   7.139   3.205  10.766 -1.0382  0.5870  0.9646
27871SOL    HW288171   7.114   3.173  10.620 -0.6303  2.0808  0.5417
27872SOL     OW88172   2.390   0.123   8.531 -0.2543 -0.4498 -0.4493
27872SOL    HW188173   2.467   0.121   8.475 -0.0989  1.3568 -0.3503
27872SOL    HW288174   2.380   0.215   8.556 -1.2708 -0.9492  1.1776
27873SOL     OW88175   3.173   3.500  11.463 -0.3143 -0.0610 -0.3453
27873SOL    HW188176   3.113   3.430  11.489 -1.0121  0.5958 -0.1673
27873SOL    HW288177   3.238   3.503  11.532 -0.4853 -0.2958 -0.1724
27874SOL     OW88178   8.912   1.994   5.140  0.1848  0.4057 -0.1398
27874SOL    HW188179   8.865   1.961   5.064 -0.7433  0.9882  0.1602
27874SOL    HW288180   9.001   1.960   5.131 -0.2903 -0.7172 -0.7216
27875SOL     OW88181  10.896   4.170   2.129 -0.0149  0.1237  0.5078
27875SOL    HW188182  10.854   4.103   2.182 -1.1876  0.1687 -0.3435
27875SOL    HW288183  10.828   4.202   2.070  1.5766 -0.9987 -2.1184
27876SOL     OW88184   0.010  10.700   2.220  0.4998 -0.0383  0.3449
27876SOL    HW188185   0.101  10.683   2.199  0.2984  1.3322 -2.0539
27876SOL    HW288186  -0.040  10.652   2.153 -0.5682 -0.7186  1.5758
27877SOL     OW88187   3.015   1.870   3.966  0.1472 -0.6460 -0.3543
27877SOL    HW188188   3.025   1.945   4.025 -0.8480 -1.1317  0.4740
27877SOL    HW288189   3.070   1.891   3.891 -0.0616  0.8830 -0.1128
27878SOL     OW88190   0.577  11.845  10.700 -0.3874 -0.3962  0.3917
27878SOL    HW188191   0.513  11.849  10.771 -0.5216  0.3560  0.2345
27878SOL    HW288192   0.657  11.813  10.742  0.1505  2.0092  1.3727
27879SOL     OW88193  10.986   1.680   8.251  0.1143 -0.0918  0.1687
27879SOL    HW188194  10.903   1.633   8.255  0.7603 -1.3291 -0.3530
27879SOL    HW288195  10.992   1.725   8.335 -1.0464 -0.0262  0.2379
27880SOL     OW88196  11.107  10.242   1.395 -0.5990 -0.3102 -0.0175
27880SOL    HW188197  11.072  10.331   1.388 -2.1620 -0.9184 -0.2627
27880SOL    HW288198  11.084  10.200   1.312  0.1958 -0.9376  0.0652
27881SOL     OW88199   3.398   9.338   5.986 -0.1011 -0.0536  0.0159
27881SOL    HW188200   3.357   9.337   5.899  0.3956 -1.2164 -0.2319
27881SOL    HW288201   3.489   9.365   5.969 -0.6413  2.3000  0.5330
27882SOL     OW88202   4.553   4.417   7.727 -0.3858 -0.0854  0.5231
27882SOL    HW188203   4.485   4.350   7.738  0.3118 -1.0211 -0.6999
27882SOL    HW288204   4.632   4.378   7.766  0.0970 -0.1105 -0.4585
27883SOL     OW88205   0.451   7.152   7.695 -0.1099 -0.5133 -0.2647
27883SOL    HW188206   0.482   7.074   7.741 -1.0475  0.0952  1.5332
27883SOL    HW288207   0.432   7.123   7.606  1.3875 -1.8624 -0.1832
27884SOL     OW88208   3.897   3.239   9.525  0.4885  0.4282  0.3230
27884SOL    HW188209   3.853   3.155   9.543  0.6608  0.5303  1.2711
27884SOL    HW288210   3.829   3.293   9.485  0.3591 -0.1399 -0.2457
27885SOL     OW88211   2.250  11.301   4.138 -0.2197  0.7333  0.3055
27885SOL    HW188212   2.239  11.296   4.233 -1.7589 -1.9896  0.1136
27885SOL    HW288213   2.170  11.260   4.103  0.7656  0.7153 -2.1242
27886SOL     OW88214  11.874   4.145   7.952  0.3472 -0.1034 -0.2561
27886SOL    HW188215  11.866   4.228   7.906 -0.5251 -0.1461 -0.2026
27886SOL    HW288216  11.901   4.082   7.885 -0.3468 -0.0494 -0.5982
27887SOL     OW88217  11.166   2.413   7.844  0.0968  0.2098  0.1767
27887SOL    HW188218  11.084   2.462   7.834 -0.8682 -1.3734  0.0067
27887SOL    HW288219  11.170   2.357   7.767  1.2340  0.0949  0.3039
27888SOL     OW88220   2.712   2.489   2.028 -0.4810  0.2699  0.4005
27888SOL    HW188221   2.674   2.437   2.098 -0.9416  0.3950  0.2500
27888SOL    HW288222   2.806   2.472   2.032 -0.4706  0.5206  1.2375
27889SOL     OW88223   5.401  11.650   6.686  0.4615 -0.3008  0.1162
27889SOL    HW188224   5.415  11.583   6.620  1.1595  1.4357 -1.5765
27889SOL    HW288225   5.339  11.711   6.646 -0.1103  0.1189  1.5820
27890SOL     OW88226   5.801   2.317   7.422 -0.0517  0.6689 -0.3565
27890SOL    HW188227   5.769   2.407   7.416 -1.1517  0.3309  0.2413
27890SOL    HW288228   5.722   2.264   7.434  0.6842 -0.2277  0.7786
27891SOL     OW88229  10.540   3.321   7.363  0.0321 -0.1303  0.0493
27891SOL    HW188230  10.507   3.250   7.417 -1.1130  0.9651  0.8557
27891SOL    HW288231  10.578   3.278   7.286  1.0318 -1.6837  1.3548
27892SOL     OW88232  10.272   0.082   8.261  0.1536  0.2009 -0.1714
27892SOL    HW188233  10.308   0.012   8.207  0.3376  1.3631 -1.6096
27892SOL    HW288234  10.348   0.131   8.291 -0.0768  1.4895 -1.5895
27893SOL     OW88235   1.317   7.841   9.007  0.1258  0.0646  0.4439
27893SOL    HW188236   1.387   7.880   9.060 -0.4760 -0.4865  1.6987
27893SOL    HW288237   1.362   7.801   8.933  1.2757 -1.0771  1.6973
27894SOL     OW88238  11.601   7.695   3.684 -0.1099  0.2555  0.0031
27894SOL    HW188239  11.517   7.674   3.644 -1.0332  0.4428  1.7202
27894SOL    HW288240  11.648   7.743   3.617 -2.2910  2.1867 -0.2877
27895SOL     OW88241   9.948   5.574   9.281  0.2200 -0.2592 -0.1478
27895SOL    HW188242   9.937   5.668   9.290  0.2583 -0.2776  0.1027
27895SOL    HW288243   9.863   5.537   9.306  0.7354 -0.3886  1.5868
27896SOL     OW88244   0.523  11.557   0.520  0.4779  0.2394 -0.3173
27896SOL    HW188245   0.605  11.598   0.493  1.0173 -0.6557 -0.0807
27896SOL    HW288246   0.520  11.571   0.615  0.5543 -0.0584 -0.2691
27897SOL     OW88247   4.216   3.338   3.803  0.4756  0.1531  0.5409
27897SOL    HW188248   4.298   3.322   3.758  0.5661  1.5146  0.1638
27897SOL    HW288249   4.149   3.297   3.748  0.8120 -0.1064  0.3291
27898SOL     OW88250   3.001   0.402   7.413  0.4076 -0.1923  0.2237
27898SOL    HW188251   3.047   0.472   7.367 -0.2467 -0.2302 -0.5084
27898SOL    HW288252   2.915   0.440   7.432  0.6014 -0.2400  1.2725
27899SOL     OW88253   5.787   9.651   6.128  0.6059  0.0607 -0.1021
27899SOL    HW188254   5.801   9.717   6.195 -0.6787  0.8751 -0.6108
27899SOL    HW288255   5.862   9.661   6.069  0.7043  0.6891  0.1268
27900SOL     OW88256   6.038   0.224   8.510 -0.2155  0.4832  0.4682
27900SOL    HW188257   5.987   0.190   8.584  1.4964 -2.9766  0.2453
27900SOL    HW288258   6.074   0.307   8.543 -0.9653 -0.0501  2.8707
27901SOL     OW88259  10.557  11.200   9.000  0.2991 -0.0505 -0.2516
27901SOL    HW188260  10.553  11.296   8.995  0.4788 -0.0030  0.3910
27901SOL    HW288261  10.645  11.182   9.032 -0.2354 -0.3545  1.1019
27902SOL     OW88262   7.503   3.371   9.401 -0.3982 -0.3024 -0.2324
27902SOL    HW188263   7.592   3.368   9.437 -0.5621 -0.5720  0.1597
27902SOL    HW288264   7.486   3.465   9.388 -0.1121 -0.2394 -0.1683
27903SOL     OW88265   3.088   8.469   6.338 -0.6050  0.5299  0.5482
27903SOL    HW188266   3.075   8.562   6.359 -1.7139  0.5980 -0.3372
27903SOL    HW288267   3.028   8.453   6.266 -0.3583 -0.8662  0.6385
27904SOL     OW88268   8.250   0.906   7.371 -0.0903 -0.2083 -0.0342
27904SOL    HW188269   8.206   0.842   7.315 -1.2868 -0.0465  0.7005
27904SOL    HW288270   8.208   0.989   7.351 -2.1384 -0.4658  2.6194
27905SOL     OW88271   7.083  10.661   5.906 -0.2818  0.3669 -0.6223
27905SOL    HW188272   7.005  10.606   5.915  0.4480 -1.3527 -3.4403
27905SOL    HW288273   7.081  10.717   5.983 -2.5520 -1.7860  1.0868
27906SOL     OW88274   1.339   4.716   4.815 -0.3780 -0.4691  0.3524
27906SOL    HW188275   1.291   4.644   4.775  0.0336 -0.1710 -0.7041
27906SOL    HW288276   1.314   4.793   4.764  0.4694 -0.1547  0.3956
27907SOL     OW88277  11.241   3.059   8.903 -0.2008 -0.8090 -0.2503
27907SOL    HW188278  11.282   3.085   8.985 -0.8273  0.6985 -0.3698
27907SOL    HW288279  11.314   3.044   8.843  0.2869  2.2308 -0.5823
27908SOL     OW88280   4.646   7.133   8.065 -0.8471  0.1886  0.1038
27908SOL    HW188281   4.579   7.154   7.999 -0.6413 -1.5806 -0.7144
27908SOL    HW288282   4.695   7.215   8.075 -2.6511  1.3279  0.1998
27909SOL     OW88283   2.629   0.083   5.061 -0.0538  0.2086  0.2384
27909SOL    HW188284   2.604  -0.004   5.031 -1.4887  0.5732  0.3373
27909SOL    HW288285   2.669   0.068   5.147  0.4163 -0.4236 -0.0833
27910SOL     OW88286   9.707   8.964   6.112  0.6703 -0.1697 -0.0577
27910SOL    HW188287   9.676   8.959   6.202  1.4826  0.4131  0.2702
27910SOL    HW288288   9.642   9.018   6.068  1.3309  1.3402  0.7092
27911SOL     OW88289   6.767   0.733  10.463  0.4911 -0.8656 -1.0173
27911SOL    HW188290   6.791   0.779  10.382  1.0843  1.1402  0.2338
27911SOL    HW288291   6.680   0.767  10.485  1.3137  0.4340  0.4028
27912SOL     OW88292   8.124   9.694   7.977  0.5271 -0.0420  0.2831
27912SOL    HW188293   8.203   9.703   8.030  0.6627 -0.5766  0.1805
27912SOL    HW288294   8.069   9.767   8.003 -0.9609 -2.2114  3.7803
27913SOL     OW88295   6.322   6.074   8.393  0.4253 -0.3312 -0.1134
27913SOL    HW188296   6.321   5.982   8.420 -0.1257 -0.1689  0.4534
27913SOL    HW288297   6.245   6.084   8.338  1.5888 -0.6770 -1.8671
27914SOL     OW88298   8.395   2.526   7.920 -0.2027  0.0541  0.2040
27914SOL    HW188299   8.409   2.508   8.013 -1.1382  1.9173  0.7592
27914SOL    HW288300   8.439   2.610   7.906  0.8700 -0.7233 -1.3283
27915SOL     OW88301  11.271   6.295  11.264 -0.0894  0.3175  0.5944
27915SOL    HW188302  11.230   6.332  11.342  0.9204  0.2863  1.1532
27915SOL    HW288303  11.310   6.371  11.219 -0.1584  0.2595  0.4375
27916SOL     OW88304   7.112  10.620   2.386  0.0168 -0.4550 -0.1600
27916SOL    HW188305   7.034  10.633   2.333  0.3789 -0.9201 -0.8139
27916SOL    HW288306   7.169  10.694   2.364  0.3568 -0.8903 -0.7768
27917SOL     OW88307   7.790  11.187   5.261 -0.4873  0.2488 -0.5942
27917SOL    HW188308   7.715  11.245   5.245  0.5760  1.7488 -0.3010
27917SOL    HW288309   7.801  11.140   5.178 -0.2770  1.7769 -1.4756
27918SOL     OW88310   9.854  10.313  11.750 -0.0081 -0.0390 -0.3711
27918SOL    HW188311   9.818  10.256  11.682 -2.3014  3.0915 -2.0169
27918SOL    HW288312   9.946  10.325  11.725 -0.0658 -1.1955 -1.2263
27919SOL     OW88313   5.441   2.017   1.487 -0.4381  0.2238  0.3277
27919SOL    HW188314   5.421   1.982   1.573 -0.5818  0.5864  0.4397
27919SOL    HW288315   5.391   1.962   1.426  0.3639 -0.6114  0.4006
27920SOL     OW88316   9.816   6.060   9.279 -0.1137  0.2509  0.2350
27920SOL    HW188317   9.885   5.994   9.290 -1.0419 -1.4333 -2.7721
27920SOL    HW288318   9.738   6.020   9.316 -0.0563  1.0914  1.3221
27921SOL     OW88319   5.227   9.672   3.864 -0.1695 -0.3085  0.5847
27921SOL    HW188320   5.186   9.627   3.938 -0.2598 -0.7922  0.2495
27921SOL    HW288321   5.163   9.662   3.793  0.0038 -0.0215  0.3895
27922SOL     OW88322  10.058   1.844   3.075 -0.0258 -0.1487 -0.8416
27922SOL    HW188323  10.003   1.918   3.050  0.1721  0.5726  0.7084
27922SOL    HW288324  10.138   1.855   3.025 -0.1080  0.5192 -0.8309
27923SOL     OW88325   4.773   9.237   3.143  0.2207  0.1248  0.1012
27923SOL    HW188326   4.688   9.208   3.108  0.7831  0.6030 -1.8046
27923SOL    HW288327   4.836   9.175   3.105  0.9990  1.4217 -0.7895
27924SOL     OW88328   7.184  12.111   9.547 -0.8001 -0.4143  0.1199
27924SOL    HW188329   7.211  12.101   9.638  0.0993 -1.3025 -0.2185
27924SOL    HW288330   7.126  12.186   9.547  1.3649  1.3769  0.9763
27925SOL     OW88331   9.659   2.146   9.275  0.2170 -0.1121 -0.4089
27925SOL    HW188332   9.601   2.096   9.218 -1.4128  0.5077  0.6328
27925SOL    HW288333   9.744   2.144   9.230 -0.2296 -2.2319 -1.2860
27926SOL     OW88334   0.357   1.759   6.722 -0.9665  0.8682  0.3549
27926SOL    HW188335   0.449   1.757   6.694 -0.5475  1.0724  1.6568
27926SOL    HW288336   0.345   1.676   6.769 -1.5465  0.7055 -0.0748
27927SOL     OW88337   8.897   8.078   3.566  0.0242 -0.0205  0.4751
27927SOL    HW188338   8.981   8.078   3.522  0.2160  0.3193  0.8368
27927SOL    HW288339   8.913   8.034   3.650  0.1623  1.2587  1.1328
27928SOL     OW88340   5.558   6.891   2.297  0.5123  0.3926  0.4595
27928SOL    HW188341   5.469   6.907   2.263  0.7382  0.8152  0.0559
27928SOL    HW288342   5.571   6.797   2.282  1.0256  0.7423 -1.7373
27929SOL     OW88343   3.652   2.484   6.526 -0.5472 -0.1364 -0.0491
27929SOL    HW188344   3.642   2.507   6.434 -1.0737  0.0641  0.0568
27929SOL    HW288345   3.719   2.544   6.558 -1.4877  0.8841  0.0782
27930SOL     OW88346   7.355   5.034  10.340 -0.5344  0.5883 -0.1229
27930SOL    HW188347   7.270   5.032  10.383 -0.3073  1.5612  0.4043
27930SOL    HW288348   7.374   4.943  10.319 -2.1609  0.4653 -1.1894
27931SOL     OW88349   4.891  11.691  10.039 -0.2812 -0.7081  0.6513
27931SOL    HW188350   4.971  11.693  10.092  0.9284 -0.8231 -1.0444
27931SOL    HW288351   4.919  11.727   9.954 -1.8474 -1.5172 -0.2407
27932SOL     OW88352   4.580   0.270   1.010  0.0393 -0.2029 -0.4391
27932SOL    HW188353   4.663   0.226   1.030  0.8039  0.4320 -2.0484
27932SOL    HW288354   4.571   0.264   0.915 -0.0478  2.6576 -0.7040
27933SOL     OW88355   3.220  10.300  11.269 -0.8378  0.2487  0.1601
27933SOL    HW188356   3.314  10.315  11.280 -0.8776 -0.5656  1.8988
27933SOL    HW288357   3.210  10.279  11.177  0.8361 -0.6359  0.1387
27934SOL     OW88358   3.201  11.143   3.884 -0.1953 -0.3981  0.2084
27934SOL    HW188359   3.177  11.088   3.810 -0.4173  0.0765 -0.0802
27934SOL    HW288360   3.138  11.120   3.952 -0.8998  0.1657 -0.2308
27935SOL     OW88361   4.022   8.336   7.372 -0.3894  0.0493 -0.0854
27935SOL    HW188362   4.016   8.325   7.277  0.0579  0.5379 -0.1770
27935SOL    HW288363   4.003   8.249   7.408 -1.4102  0.0524 -0.5808
27936SOL     OW88364   7.213   7.749   8.260 -1.1268 -0.3679  0.4660
27936SOL    HW188365   7.246   7.755   8.350  1.2995 -0.6220 -0.3451
27936SOL    HW288366   7.209   7.655   8.243 -1.4308 -0.3154  0.2417
27937SOL     OW88367   7.388   3.070  11.248  0.4597 -0.0967 -0.0577
27937SOL    HW188368   7.351   3.042  11.164  0.8263  0.2629 -0.3366
27937SOL    HW288369   7.454   3.135  11.226  0.5705 -0.0079  0.5101
27938SOL     OW88370   8.939   5.973   7.924  0.8806  0.5333  0.0265
27938SOL    HW188371   8.946   6.060   7.964 -0.4185  0.1424  1.1540
27938SOL    HW288372   8.921   5.914   7.997  0.0327 -0.4416 -0.9390
27939SOL     OW88373   8.023   5.316  12.032 -0.3158 -0.9105  0.1826
27939SOL    HW188374   8.069   5.386  11.986 -0.9660 -0.8623 -0.4101
27939SOL    HW288375   8.059   5.236  11.994 -0.7007 -0.8736 -0.2636
27940SOL     OW88376  11.635  11.584   9.314 -0.1389 -0.4989 -0.3796
27940SOL    HW188377  11.691  11.579   9.236  1.5657  1.0101  0.6754
27940SOL    HW288378  11.682  11.533   9.380  1.2786  2.5459  1.1735
27941SOL     OW88379   8.762   9.298   6.897  0.1627 -0.0575  0.1702
27941SOL    HW188380   8.746   9.204   6.905 -1.1643  0.1208 -0.2086
27941SOL    HW288381   8.814   9.319   6.975  0.0343 -1.0016  0.5348
27942SOL     OW88382   1.890   4.093   0.938 -0.8637 -0.5385 -0.0646
27942SOL    HW188383   1.892   4.060   0.848 -0.8982  1.5683 -0.9206
27942SOL    HW288384   1.815   4.153   0.939  0.7775  1.6358  0.4749
27943SOL     OW88385   9.717   0.217   2.280  0.0517 -0.3992 -0.5346
27943SOL    HW188386   9.685   0.298   2.240  2.2762  1.2118  0.7428
27943SOL    HW288387   9.718   0.154   2.209 -1.4266  0.7476 -1.6527
27944SOL     OW88388   9.852  11.276  11.341 -0.1763 -0.3338  0.4187
27944SOL    HW188389   9.810  11.361  11.343  0.0635 -0.2229  0.9722
27944SOL    HW288390   9.812  11.231  11.267  0.5280  0.6879 -0.6107
27945SOL     OW88391  11.135  11.685  11.402 -0.0282  0.2625 -0.0108
27945SOL    HW188392  11.121  11.642  11.318  1.0984 -0.7071  0.2777
27945SOL    HW288393  11.214  11.737  11.389  0.3632 -0.1860  0.5489
27946SOL     OW88394   3.640  10.477   9.703  0.0092 -0.0188 -0.3382
27946SOL    HW188395   3.559  10.527   9.710 -0.1130 -0.3511  0.8116
27946SOL    HW288396   3.702  10.522   9.760  0.8290  0.5612 -1.6374
27947SOL     OW88397   4.783  11.046   5.605  0.0119  0.0502 -0.1649
27947SOL    HW188398   4.746  10.964   5.634 -0.0672  1.0514  2.9006
27947SOL    HW288399   4.711  11.091   5.561  0.4624 -2.0187 -3.3326
27948SOL     OW88400  11.846   7.091   9.106  0.0790 -0.5188 -0.6020
27948SOL    HW188401  11.869   7.004   9.075  0.8167 -0.9156  0.9554
27948SOL    HW288402  11.908   7.150   9.063  0.6200 -0.9692 -0.4459
27949SOL     OW88403   2.901   6.750   6.406 -0.6372  0.1355  0.6920
27949SOL    HW188404   2.807   6.745   6.386 -0.5628 -1.6558  0.6134
27949SOL    HW288405   2.916   6.842   6.428 -2.2298  0.6379 -0.1519
27950SOL     OW88406   2.313   8.955   3.407  0.4458  0.1979 -0.1244
27950SOL    HW188407   2.296   8.869   3.370 -2.1053  0.6357 -0.1391
27950SOL    HW288408   2.273   8.952   3.494 -2.2574  2.1406 -1.1561
27951SOL     OW88409   7.063   1.493   4.118 -0.0767  0.6060 -0.0676
27951SOL    HW188410   7.014   1.539   4.186  0.4271 -0.5828  1.1594
27951SOL    HW288411   6.996   1.456   4.061 -0.5602  0.5190  0.5423
27952SOL     OW88412   6.493  10.014   2.334  0.0246 -0.3401  0.6791
27952SOL    HW188413   6.553  10.081   2.300  0.1414 -1.1995 -0.9060
27952SOL    HW288414   6.522   9.999   2.424  0.5819  1.0532  0.7623
27953SOL     OW88415   2.564  11.487   0.199  0.2967  0.4812 -0.4317
27953SOL    HW188416   2.598  11.564   0.153  0.8342  0.2535 -0.4151
27953SOL    HW288417   2.600  11.494   0.288 -1.2320  1.2519  0.1709
27954SOL     OW88418   3.525   0.140   6.969  0.3243 -0.0529  0.4469
27954SOL    HW188419   3.552   0.072   6.908 -1.6303 -0.4770 -0.0064
27954SOL    HW288420   3.501   0.093   7.049 -1.5464 -0.0102 -0.0439
27955SOL     OW88421  10.312   9.135   5.051  0.0445  0.0061  0.8027
27955SOL    HW188422  10.232   9.122   5.102  0.2434 -1.0370  0.8672
27955SOL    HW288423  10.356   9.050   5.052  1.3324  0.6522  1.0588
27956SOL     OW88424   5.133   3.728  11.206 -0.6956 -0.0198 -0.2238
27956SOL    HW188425   5.189   3.803  11.227  1.2489 -1.2637 -0.7063
27956SOL    HW288426   5.050   3.768  11.177 -0.1172  1.8914  0.5606
27957SOL     OW88427   6.829  10.428   0.493  0.1690 -0.2392  0.0417
27957SOL    HW188428   6.833  10.346   0.443 -0.0012 -1.3426  1.7706
27957SOL    HW288429   6.767  10.410   0.564  1.3776  0.8323  1.4328
27958SOL     OW88430   2.281   0.196   2.069  0.2532 -0.5767 -0.8750
27958SOL    HW188431   2.342   0.197   2.143 -0.7711  0.0788 -0.0026
27958SOL    HW288432   2.336   0.210   1.992  1.1990  0.0489 -0.1073
27959SOL     OW88433   9.376   0.638   6.300 -0.0862  0.1994 -0.3148
27959SOL    HW188434   9.309   0.576   6.272  0.6065 -0.0176 -1.6172
27959SOL    HW288435   9.453   0.584   6.319  0.1978  0.5587 -0.4109
27960SOL     OW88436   0.542  11.665   6.567 -0.1356 -0.0236  0.7265
27960SOL    HW188437   0.627  11.692   6.533  0.7395 -1.4831  1.6177
27960SOL    HW288438   0.541  11.696   6.658 -0.1074 -0.8789  1.0292
27961SOL     OW88439   3.252   8.186   3.067  0.1780 -0.0260 -0.0731
27961SOL    HW188440   3.193   8.220   2.999 -0.5453 -0.7738  0.1668
27961SOL    HW288441   3.316   8.256   3.080 -0.0095  0.3567 -1.1167
27962SOL     OW88442  11.689   7.476   4.671  0.0485  0.0297  0.6381
27962SOL    HW188443  11.782   7.497   4.673  0.4524 -1.3531 -1.1221
27962SOL    HW288444  11.657   7.497   4.759  2.2080 -0.2959  1.5560
27963SOL     OW88445  10.299   7.787   1.566  0.3510  0.1618  0.1774
27963SOL    HW188446  10.285   7.847   1.639  2.2741 -1.3059  1.8951
27963SOL    HW288447  10.391   7.761   1.574  0.3746 -0.7800 -2.2557
27964SOL     OW88448   6.279   4.907   6.683  0.1141 -0.2905  0.2909
27964SOL    HW188449   6.191   4.940   6.668 -0.2298 -1.2674  0.0639
27964SOL    HW288450   6.314   4.892   6.595  1.4204  2.3302  0.2921
27965SOL     OW88451   4.982  10.100   3.385  0.1639  0.0745  0.1076
27965SOL    HW188452   4.985  10.101   3.289  1.0482 -0.7267  0.1179
27965SOL    HW288453   4.899  10.059   3.406 -1.4727  2.8866 -0.2744
27966SOL     OW88454   2.594   0.854   5.878  0.0871 -0.3339 -0.0594
27966SOL    HW188455   2.681   0.886   5.899  0.7285 -2.0399  0.0133
27966SOL    HW288456   2.552   0.841   5.964 -0.3105  0.6433 -0.0982
27967SOL     OW88457   4.164   0.926   7.118  0.3419 -0.0555 -0.2617
27967SOL    HW188458   4.077   0.962   7.136  0.0413 -0.4487 -0.9099
27967SOL    HW288459   4.219   0.961   7.189 -0.9470 -2.1576  1.9030
27968SOL     OW88460   2.116   3.354   2.829 -0.3363 -0.5079 -0.2561
27968SOL    HW188461   2.121   3.446   2.803  0.6268 -0.6128 -0.4914
27968SOL    HW288462   2.135   3.355   2.923 -0.4774 -0.4532 -0.2280
27969SOL     OW88463  10.487   9.059   9.317 -0.7732  0.3090  0.2373
27969SOL    HW188464  10.561   9.119   9.326 -2.1045  1.8206  1.6582
27969SOL    HW288465  10.467   9.060   9.224  1.0343 -0.2436 -0.2125
27970SOL     OW88466   4.284   8.197   6.385  0.6162  0.0017 -0.0977
27970SOL    HW188467   4.291   8.236   6.472 -1.6428  0.8849 -0.2489
27970SOL    HW288468   4.361   8.229   6.338  1.1912  0.5669  1.1809
27971SOL     OW88469   3.319   7.140   5.779 -0.2948  0.7671  0.7372
27971SOL    HW188470   3.381   7.113   5.711  0.0560  0.5489  1.1375
27971SOL    HW288471   3.271   7.213   5.740  0.9172  1.6213  0.7934
27972SOL     OW88472   4.392   2.456   4.620 -0.2633 -0.1390  0.1933
27972SOL    HW188473   4.315   2.400   4.618  0.2671 -0.8710 -0.2353
27972SOL    HW288474   4.462   2.399   4.652 -0.4600  1.2600  3.6475
27973SOL     OW88475   5.835   5.697   6.970 -0.3621 -0.3238 -0.2339
27973SOL    HW188476   5.796   5.621   6.927  0.0964 -0.3633 -0.5882
27973SOL    HW288477   5.792   5.772   6.929 -0.4890 -0.3795 -0.2042
27974SOL     OW88478  11.709   1.951   4.010  0.5050  0.8456 -0.2782
27974SOL    HW188479  11.803   1.933   4.005  0.1282 -1.3046 -0.3899
27974SOL    HW288480  11.672   1.908   3.932 -0.8859 -0.8997  1.2492
27975SOL     OW88481  11.353   2.214  10.959 -0.0555  0.0151 -0.3094
27975SOL    HW188482  11.437   2.198  10.916 -1.0244 -1.1518 -1.8725
27975SOL    HW288483  11.364   2.179  11.048  0.8041 -1.0430 -0.8116
27976SOL     OW88484   4.797   7.523   4.082 -0.2099  0.1394  0.1507
27976SOL    HW188485   4.813   7.612   4.115 -1.5490  0.5146 -0.1496
27976SOL    HW288486   4.786   7.470   4.161  2.1496 -0.1305  0.3857
27977SOL     OW88487   4.038   7.870  10.621 -0.6990 -0.4897 -0.5404
27977SOL    HW188488   4.126   7.901  10.645 -0.5724 -1.2382 -0.0012
27977SOL    HW288489   4.020   7.799  10.683 -1.6845 -0.3481 -0.6552
27978SOL     OW88490  11.570   0.990   8.401  0.0813 -0.3504  0.0259
27978SOL    HW188491  11.564   1.078   8.363  0.2099  0.3074  1.4884
27978SOL    HW288492  11.529   0.933   8.335 -0.5877  0.8818 -0.6618
27979SOL     OW88493   4.134  10.089   7.953  0.0490  0.1690 -0.9992
27979SOL    HW188494   4.123   9.994   7.941  0.3420 -0.1828  1.0671
27979SOL    HW288495   4.166  10.120   7.869 -1.1458 -1.3748 -2.0882
27980SOL     OW88496   7.026  11.066   6.546  0.0906 -0.4665  0.2671
27980SOL    HW188497   6.968  10.999   6.509  0.5484 -0.5633 -0.2985
27980SOL    HW288498   6.986  11.149   6.520  0.0025 -0.5309  0.1965
27981SOL     OW88499   9.058   8.543   4.023  0.0269  0.3411 -0.0790
27981SOL    HW188500   9.082   8.492   4.101 -0.3289 -1.6011 -1.1913
27981SOL    HW288501   9.137   8.593   4.002  0.8253 -0.7270  0.3118
27982SOL     OW88502  11.460  10.126   3.731  0.2617 -0.2608 -0.5972
27982SOL    HW188503  11.446  10.051   3.789 -0.6251  0.0952 -0.3176
27982SOL    HW288504  11.380  10.130   3.678  0.2720  0.5045 -0.5676
27983SOL     OW88505   2.221   2.947   1.864  0.4113 -0.1067 -0.2777
27983SOL    HW188506   2.196   3.039   1.868 -1.9082 -0.6837 -0.0759
27983SOL    HW288507   2.184   2.916   1.781  1.4214 -0.8067 -0.4809
27984SOL     OW88508   2.710   2.781   1.725 -0.5424 -0.4638  0.5154
27984SOL    HW188509   2.630   2.825   1.697 -0.3288 -0.4692 -0.1103
27984SOL    HW288510   2.780   2.842   1.703 -0.5370  1.0104  3.9609
27985SOL     OW88511   6.324   7.855   4.316  0.2745 -0.4168  0.5759
27985SOL    HW188512   6.376   7.923   4.274  1.0342 -1.7271 -0.6768
27985SOL    HW288513   6.307   7.889   4.404  0.4457  1.4680 -0.0741
27986SOL     OW88514   4.530   3.673   1.745  0.2873 -0.0739  0.1268
27986SOL    HW188515   4.564   3.736   1.808  0.6988 -0.9427  0.7694
27986SOL    HW288516   4.576   3.592   1.763  0.9510 -0.1708 -1.7612
27987SOL     OW88517   7.464   7.172   5.714  0.0671  0.1518  0.1812
27987SOL    HW188518   7.523   7.102   5.740  0.8159  1.3471  1.8626
27987SOL    HW288519   7.377   7.133   5.716  0.6528 -1.2998 -1.1138
27988SOL     OW88520  11.208   9.019   9.913  0.0976 -0.3644  0.1462
27988SOL    HW188521  11.125   9.048   9.950 -0.3655  0.4234 -1.3962
27988SOL    HW288522  11.199   8.924   9.906  0.0128 -0.4691  1.5353
27989SOL     OW88523   6.728   6.962  11.030  0.2686 -0.2388 -0.3763
27989SOL    HW188524   6.750   7.055  11.036  1.0226 -0.4596  0.5438
27989SOL    HW288525   6.641   6.960  10.989 -0.9434  1.0128  1.9303
27990SOL     OW88526   2.368  10.806   5.403 -0.1072 -0.6799  0.4232
27990SOL    HW188527   2.457  10.771   5.396 -0.1069 -1.0223  1.8086
27990SOL    HW288528   2.379  10.887   5.454 -0.3500  0.3617 -1.1141
27991SOL     OW88529   5.373   5.419   8.729 -0.0736  0.1129 -0.0878
27991SOL    HW188530   5.391   5.481   8.659  0.2161  0.7742  0.5612
27991SOL    HW288531   5.278   5.421   8.740 -0.1047  0.1261 -0.3436
27992SOL     OW88532   6.604   3.941   3.344 -0.4964  0.0969 -0.1002
27992SOL    HW188533   6.554   3.862   3.365 -1.4979  0.8383  0.3910
27992SOL    HW288534   6.562   4.010   3.395  0.4523  0.9265 -0.4117
27993SOL     OW88535   6.289  10.841   1.817  0.4842 -0.5011 -0.4622
27993SOL    HW188536   6.205  10.838   1.771  0.4855  1.1168 -0.6300
27993SOL    HW288537   6.312  10.749   1.830 -2.2388 -1.0507  1.3119
27994SOL     OW88538  11.404   6.281   5.628  0.2247 -0.2032  0.0218
27994SOL    HW188539  11.419   6.306   5.720 -1.9817 -0.0291  0.3873
27994SOL    HW288540  11.380   6.363   5.585 -1.2316 -0.6791 -0.1136
27995SOL     OW88541   0.788   0.861   5.249 -0.0868  0.4423 -0.3570
27995SOL    HW188542   0.788   0.923   5.322 -0.4198  0.3904 -0.3125
27995SOL    HW288543   0.708   0.810   5.260  0.0672  0.1613 -0.5293
27996SOL     OW88544   6.967   1.596   7.905  0.4120 -0.2836  0.1458
27996SOL    HW188545   6.955   1.683   7.867 -1.1204 -1.0505 -1.2680
27996SOL    HW288546   7.017   1.548   7.840 -0.6251 -1.0818 -0.0783
27997SOL     OW88547  11.236   1.700  10.856 -0.1192  0.3056  0.8225
27997SOL    HW188548  11.313   1.756  10.854  0.1699 -0.0378 -2.0366
27997SOL    HW288549  11.264   1.624  10.908  2.7181 -1.2605 -2.5434
27998SOL     OW88550   2.486   8.430   7.777 -0.0321 -0.0935 -0.1652
27998SOL    HW188551   2.530   8.382   7.707 -1.0383 -1.9570  0.3930
27998SOL    HW288552   2.541   8.417   7.854 -1.6019 -2.8237  0.6479
27999SOL     OW88553  11.447   2.223  11.497  0.6677 -0.1825  0.1423
27999SOL    HW188554  11.531   2.223  11.452  0.6496  2.1438 -0.0065
27999SOL    HW288555  11.460   2.284  11.571 -0.5891 -0.5727  0.7105
28000SOL     OW88556   9.859   3.143  12.031  0.6162 -0.3190  0.2611
28000SOL    HW188557   9.854   3.162  12.125  0.4736  0.9434  0.0035
28000SOL    HW288558   9.791   3.196  11.991  0.8123 -0.6873 -0.5920
28001SOL     OW88559   3.747   3.683  11.275  0.2792  0.5321  0.3145
28001SOL    HW188560   3.779   3.767  11.242  0.9526  0.2028  0.0898
28001SOL    HW288561   3.664   3.703  11.317  0.8615  1.4580  1.0571
28002SOL     OW88562  12.060   9.426   7.951 -0.4291 -0.3136  0.4510
28002SOL    HW188563  12.123   9.442   8.021 -1.2155  1.1247  0.8490
28002SOL    HW288564  12.112   9.385   7.882  0.2949 -2.0604  1.9612
28003SOL     OW88565   2.589   3.356   0.585  0.4892  0.0885 -0.3824
28003SOL    HW188566   2.559   3.358   0.675  0.2500 -0.3392 -0.4526
28003SOL    HW288567   2.679   3.322   0.590  0.1878 -0.7264 -0.3811
28004SOL     OW88568   7.407   3.774   7.505  0.0914 -0.4185  0.4381
28004SOL    HW188569   7.343   3.721   7.553  0.7596 -1.1721  0.5170
28004SOL    HW288570   7.357   3.848   7.472 -0.5422 -0.2704  1.6711
28005SOL     OW88571   2.614   7.471   3.910  0.1154 -0.2740 -0.9367
28005SOL    HW188572   2.670   7.546   3.933  0.9829 -1.2017  0.0919
28005SOL    HW288573   2.552   7.506   3.847  0.3869  1.3606 -0.3441
28006SOL     OW88574   1.526   7.664   8.887 -0.3588  0.0056  0.0687
28006SOL    HW188575   1.529   7.581   8.934 -1.6238  0.2521  0.6172
28006SOL    HW288576   1.603   7.662   8.830  0.4087 -0.9155  1.1024
28007SOL     OW88577   8.763   2.398   6.271 -0.6983 -0.4193  0.6312
28007SOL    HW188578   8.693   2.441   6.221 -0.8225  0.1929  1.3120
28007SOL    HW288579   8.789   2.324   6.216 -2.0985 -0.8543  0.5076
28008SOL     OW88580   6.668   7.092   0.910  0.0771  0.2040  0.2647
28008SOL    HW188581   6.633   7.006   0.933 -0.3302 -0.4074 -2.3116
28008SOL    HW288582   6.762   7.085   0.925  0.6675 -2.0640 -3.2744
28009SOL     OW88583   8.092   8.430  12.008 -0.1723 -0.3765  0.2943
28009SOL    HW188584   8.001   8.399  12.010 -0.1841 -0.4608 -1.0590
28009SOL    HW288585   8.126   8.406  12.094 -0.8983 -1.9960  0.1782
28010SOL     OW88586   7.403   0.565   0.307 -0.1606  0.4274 -0.7003
28010SOL    HW188587   7.370   0.475   0.312  1.6136 -0.2290  3.0858
28010SOL    HW288588   7.475   0.561   0.244 -0.1700 -0.7951 -0.6634
28011SOL     OW88589  10.826   6.605   6.880 -0.5272  0.3377  0.8348
28011SOL    HW188590  10.834   6.672   6.947 -0.0393  0.8350  0.2962
28011SOL    HW288591  10.732   6.587   6.875 -0.6780  1.0553  0.9138
28012SOL     OW88592   8.880   8.541   1.910 -0.3417  0.0340 -0.6472
28012SOL    HW188593   8.790   8.550   1.878 -1.3993 -2.7576  1.1636
28012SOL    HW288594   8.928   8.501   1.838 -1.1460 -0.5615 -0.8681
28013SOL     OW88595   2.308  11.605   1.922  0.1991  0.1003  0.6665
28013SOL    HW188596   2.277  11.689   1.958  1.0306  0.3316  0.8518
28013SOL    HW288597   2.316  11.548   1.998 -0.1968 -0.1005  0.5610
28014SOL     OW88598  11.492   8.448   8.823 -0.1304 -0.1694  0.1756
28014SOL    HW188599  11.575   8.400   8.824 -0.2150 -0.3027  1.1890
28014SOL    HW288600  11.429   8.386   8.784  0.1954 -0.1254 -0.4414
28015SOL     OW88601   8.306   5.324   8.014 -0.3307 -0.0621 -0.0751
28015SOL    HW188602   8.401   5.324   8.010 -0.2984 -1.0495  0.3689
28015SOL    HW288603   8.277   5.305   7.925 -0.0586 -1.8409  0.1935
28016SOL     OW88604   4.713   0.659   9.356 -0.4707  0.6215  0.1016
28016SOL    HW188605   4.752   0.746   9.362 -0.5819  0.6977 -0.2115
28016SOL    HW288606   4.651   0.655   9.429 -0.8661  1.0189 -0.2018
28017SOL     OW88607  11.667   7.289   7.891 -0.1474  0.1161  0.6777
28017SOL    HW188608  11.731   7.352   7.858 -0.0370 -0.0908  0.4915
28017SOL    HW288609  11.583   7.320   7.857 -0.4135  1.3796  2.3418
28018SOL     OW88610  11.281  11.384   1.687 -0.6051  0.5316 -0.5565
28018SOL    HW188611  11.320  11.319   1.745  1.5690  1.7150 -0.5970
28018SOL    HW288612  11.237  11.333   1.619  1.2325 -0.9311 -0.7122
28019SOL     OW88613   1.232   7.490   7.482 -0.3234 -0.6157  0.2217
28019SOL    HW188614   1.253   7.451   7.397 -0.8653 -0.2373 -0.0947
28019SOL    HW288615   1.203   7.416   7.536  2.1226 -1.2399  0.8195
28020SOL     OW88616   9.193  10.673   7.393  0.3682  0.1181 -0.5039
28020SOL    HW188617   9.194  10.723   7.475  0.6562 -0.7034  0.0093
28020SOL    HW288618   9.126  10.606   7.407  1.5471 -1.0622 -0.2821
28021SOL     OW88619   4.732  10.361   4.567  0.3919 -0.0670 -0.0695
28021SOL    HW188620   4.783  10.413   4.505  0.0673 -0.1699 -0.4279
28021SOL    HW288621   4.782  10.364   4.648 -0.0658  1.5706  0.1925
28022SOL     OW88622   7.958  10.072   6.107  0.1767 -0.2274 -0.1855
28022SOL    HW188623   7.922  10.151   6.147  0.8501  0.2646 -0.5162
28022SOL    HW288624   7.953  10.089   6.012  1.2504 -0.1421 -0.2368
28023SOL     OW88625   1.082   9.130   3.040  0.2099 -0.5473  0.0828
28023SOL    HW188626   1.141   9.205   3.044  0.1206 -0.4759  0.0566
28023SOL    HW288627   1.104   9.086   2.958  0.3453 -0.6178  0.1568
28024SOL     OW88628   2.514   7.788   8.947 -0.1632 -0.3549 -0.8357
28024SOL    HW188629   2.604   7.821   8.950  0.2829 -1.3976 -2.0617
28024SOL    HW288630   2.488   7.782   9.039  1.2489 -0.6645 -0.4321
28025SOL     OW88631   1.834   5.184   8.665 -0.1415  0.4657 -0.5396
28025SOL    HW188632   1.771   5.239   8.619 -0.5167  0.2839 -0.2491
28025SOL    HW288633   1.875   5.132   8.596  1.8418  2.6477 -1.1417
28026SOL     OW88634   2.858   7.566   2.705 -0.2249  0.0161 -0.0835
28026SOL    HW188635   2.884   7.482   2.742 -0.3385 -0.3833 -0.8929
28026SOL    HW288636   2.862   7.553   2.610 -1.5580  0.4969 -0.2267
28027SOL     OW88637   5.888   9.099  10.395 -0.3969  0.4965 -0.1391
28027SOL    HW188638   5.959   9.078  10.335 -1.3439  1.2739 -1.5912
28027SOL    HW288639   5.917   9.178  10.441 -0.6257  1.2974 -1.3203
28028SOL     OW88640   0.705  11.331   0.819 -0.1487 -0.0851 -0.3472
28028SOL    HW188641   0.672  11.421   0.829 -0.7249 -0.4180  0.7845
28028SOL    HW288642   0.629  11.276   0.832 -0.4426 -0.7311 -3.7854
28029SOL     OW88643   1.219   7.420   7.871 -0.6431 -0.3342 -0.1469
28029SOL    HW188644   1.308   7.387   7.857 -0.5739  0.0658 -0.6681
28029SOL    HW288645   1.212   7.428   7.966 -0.0717 -0.2381 -0.1053
28030SOL     OW88646   6.628   0.723   0.942 -0.7253 -0.2964  0.2083
28030SOL    HW188647   6.581   0.656   0.991 -1.1237 -0.7441 -0.7748
28030SOL    HW288648   6.603   0.805   0.984 -2.9179 -0.4628 -0.6912
28031SOL     OW88649   1.399   4.302   3.775 -0.0899 -0.0074  0.5176
28031SOL    HW188650   1.306   4.314   3.795 -0.6626  0.2367 -2.0004
28031SOL    HW288651   1.410   4.207   3.770 -0.5956 -0.0118 -0.7403
28032SOL     OW88652   7.628   4.964   9.149  0.1663  0.1243  0.2395
28032SOL    HW188653   7.634   5.055   9.119  0.3359  0.1370  0.3109
28032SOL    HW288654   7.702   4.920   9.107  0.3256  0.1126  0.5347
28033SOL     OW88655   9.640  10.085   1.386 -0.1752 -0.1310  0.5202
28033SOL    HW188656   9.602  10.164   1.425 -0.0181  0.9256 -1.3593
28033SOL    HW288657   9.700  10.118   1.319  1.8548 -1.8264  1.4124
28034SOL     OW88658  11.721   6.942   0.996 -0.2560 -0.4582  0.0475
28034SOL    HW188659  11.659   6.947   0.924 -0.6045  3.5317  0.3688
28034SOL    HW288660  11.674   6.897   1.066 -1.4777 -0.6113 -0.8495
28035SOL     OW88661   1.662  11.953   5.619 -0.3568  0.2338 -0.6391
28035SOL    HW188662   1.593  11.902   5.575  0.0009 -1.0331  0.2214
28035SOL    HW288663   1.739  11.939   5.564  0.5710 -2.8559  1.1952
28036SOL     OW88664   1.145   2.847   0.663 -0.0966 -0.3942  0.7814
28036SOL    HW188665   1.101   2.864   0.580  1.1995 -0.7181  0.0082
28036SOL    HW288666   1.184   2.760   0.653  2.3276  0.6267  0.6741
28037SOL     OW88667   5.161   2.152   2.731  0.5378  0.0964 -0.1687
28037SOL    HW188668   5.070   2.184   2.738 -0.1294 -1.8911  0.9031
28037SOL    HW288669   5.214   2.230   2.745 -1.0082  1.0677  0.5997
28038SOL     OW88670   7.085   0.521  11.852  0.3799  0.3325  0.0667
28038SOL    HW188671   7.037   0.525  11.770  1.1019 -0.6123 -0.4362
28038SOL    HW288672   7.019   0.534  11.920 -0.3304  0.4966 -0.6442
28039SOL     OW88673   8.410   3.086   3.160 -0.5435 -0.2927  0.0905
28039SOL    HW188674   8.391   2.999   3.127 -0.2782 -0.2304 -0.2285
28039SOL    HW288675   8.495   3.108   3.123 -0.1774 -0.2733  0.9198
28040SOL     OW88676  10.384  10.011   1.870  0.2314 -0.0664  1.0251
28040SOL    HW188677  10.471  10.000   1.833 -0.4266 -0.0995 -0.5788
28040SOL    HW288678  10.399  10.041   1.960  1.8750  0.8109  0.4833
28041SOL     OW88679   1.127   7.363   3.414  0.2741 -0.2162 -0.3895
28041SOL    HW188680   1.128   7.455   3.388  1.3790  0.1675  0.8853
28041SOL    HW288681   1.075   7.319   3.346  2.1565  0.8517 -2.6535
28042SOL     OW88682   2.781   3.737  10.144 -0.3916 -0.1727  0.2169
28042SOL    HW188683   2.858   3.712  10.195 -0.3200  0.1911  0.2890
28042SOL    HW288684   2.707   3.714  10.201 -0.3257 -0.1937  0.2942
28043SOL     OW88685   2.254  10.742   3.356 -0.0722  0.0087 -0.2676
28043SOL    HW188686   2.173  10.727   3.308 -0.7205 -0.0714  0.8065
28043SOL    HW288687   2.230  10.807   3.423  0.6623 -0.2651  0.2769
28044SOL     OW88688   4.217   1.351   9.714 -0.1966  0.3802  0.1349
28044SOL    HW188689   4.272   1.304   9.776 -1.5161  1.0210  1.8890
28044SOL    HW288690   4.160   1.284   9.675 -0.1976  0.1416  0.5500
28045SOL     OW88691   6.097   1.098  11.105  0.4440  0.7292  0.7222
28045SOL    HW188692   6.156   1.022  11.110  0.1528  0.5534  1.5262
28045SOL    HW288693   6.142   1.158  11.045 -0.1549 -0.7959 -1.4129
28046SOL     OW88694   4.517   0.951  10.731 -0.1419  0.5058 -0.2303
28046SOL    HW188695   4.545   0.938  10.640 -0.2358  2.4066 -0.5559
28046SOL    HW288696   4.492   1.043  10.736  0.9516  0.7482  2.0185
28047SOL     OW88697   7.343   9.057   1.041  0.4950  0.7004  0.4107
28047SOL    HW188698   7.296   8.977   1.017 -1.1491  1.8334 -0.3514
28047SOL    HW288699   7.424   9.053   0.990 -0.8586  0.8252 -1.9413
28048SOL     OW88700   3.065   4.796   9.649  0.2226 -0.1746  0.3460
28048SOL    HW188701   3.145   4.759   9.686 -0.3445 -1.4472  0.3474
28048SOL    HW288702   3.036   4.731   9.585 -0.1361  0.8610 -0.5791
28049SOL     OW88703   9.537  10.389   7.806 -0.4427  0.2911 -0.5353
28049SOL    HW188704   9.614  10.332   7.813 -0.0692  0.8917  0.5200
28049SOL    HW288705   9.570  10.469   7.766 -0.6301  0.3641 -0.5455
28050SOL     OW88706   1.401   5.247   6.991  0.1689  0.3656  0.2306
28050SOL    HW188707   1.430   5.187   6.922  0.6191 -1.0943  1.6185
28050SOL    HW288708   1.331   5.199   7.036 -0.4330  1.4862  0.5361
28051SOL     OW88709  11.752   8.658  11.491  0.0827  0.2303  0.3367
28051SOL    HW188710  11.710   8.632  11.573  1.3386 -1.0415  0.6239
28051SOL    HW288711  11.690   8.718  11.450 -0.4374  1.1601  2.3529
28052SOL     OW88712   9.050  12.050   1.128  0.0145  0.3560 -0.1990
28052SOL    HW188713   9.045  12.007   1.213 -0.9042 -0.7177 -0.7589
28052SOL    HW288714   9.137  12.028   1.095  0.3256  0.6729  0.3952
28053SOL     OW88715   5.213   6.829   9.217  0.1034 -0.3386  0.1036
28053SOL    HW188716   5.140   6.826   9.279  1.3380  1.2759  1.7652
28053SOL    HW288717   5.184   6.888   9.149  0.0242  0.7397  1.0417
28054SOL     OW88718   7.372  11.323   1.881  0.3812  0.3439  0.4590
28054SOL    HW188719   7.279  11.347   1.880 -0.5207 -2.7292  0.9447
28054SOL    HW288720   7.402  11.341   1.792  0.0868  3.6915  0.9132
28055SOL     OW88721   0.377   1.153   2.627  0.2415 -0.0318  0.5425
28055SOL    HW188722   0.323   1.098   2.685  0.3663  0.2398  0.9236
28055SOL    HW288723   0.317   1.182   2.559  0.1291 -0.4882  0.4433
28056SOL     OW88724   4.099   0.327   5.499 -0.0563  0.3146  0.0557
28056SOL    HW188725   4.145   0.398   5.545  0.7473  0.3761 -0.8293
28056SOL    HW288726   4.118   0.341   5.407 -2.5391  0.8359 -0.4565
28057SOL     OW88727   0.294  11.538  11.655  0.3211 -0.2548 -0.1883
28057SOL    HW188728   0.335  11.518  11.571 -0.0759 -0.8875 -0.2398
28057SOL    HW288729   0.201  11.517  11.642  0.3488 -0.8985  0.5748
28058SOL     OW88730  11.586   5.669   6.740  0.2322 -0.0455  0.2892
28058SOL    HW188731  11.659   5.720   6.706  0.0224  0.0198 -0.0642
28058SOL    HW288732  11.512   5.691   6.683 -0.0253 -0.2279  0.5480
28059SOL     OW88733   0.038   8.927   2.539 -0.4677  0.3958 -0.5382
28059SOL    HW188734   0.021   9.013   2.500  0.1477  1.3958  1.2965
28059SOL    HW288735   0.061   8.946   2.630 -2.4639 -1.8624  0.5619
28060SOL     OW88736   7.739   2.714   0.289 -0.1059 -0.4292 -0.1091
28060SOL    HW188737   7.769   2.680   0.204  0.7858 -1.0085  0.4153
28060SOL    HW288738   7.730   2.637   0.344 -1.5642 -0.1488  0.0849
28061SOL     OW88739   9.552   2.775   8.977 -0.7043  0.1495 -0.1943
28061SOL    HW188740   9.557   2.720   8.898  1.4245 -0.8915  0.5751
28061SOL    HW288741   9.589   2.859   8.951 -1.1807  0.2282 -0.6206
28062SOL     OW88742   0.032   6.093   9.506  0.3664 -0.3887  0.2566
28062SOL    HW188743   0.069   6.070   9.421  1.8284 -0.5376  0.9040
28062SOL    HW288744  -0.058   6.059   9.503 -0.6180  2.0827 -2.2612
28063SOL     OW88745   3.793   2.690   8.504 -0.7843  0.1795  0.1063
28063SOL    HW188746   3.751   2.638   8.437 -2.8779  1.5612  0.2482
28063SOL    HW288747   3.765   2.651   8.587  1.1010 -0.9986  0.2546
28064SOL     OW88748  11.499   9.175   4.405  0.6494  0.4791  0.1169
28064SOL    HW188749  11.497   9.081   4.421 -1.9288  0.5777  0.7780
28064SOL    HW288750  11.470   9.215   4.487 -0.3965  1.6977 -0.7843
28065SOL     OW88751   5.699  10.792  10.989 -0.4614 -0.1612  0.5319
28065SOL    HW188752   5.746  10.708  10.985  0.3349  0.2816  0.3275
28065SOL    HW288753   5.668  10.807  10.900 -0.0162  0.0860  0.4177
28066SOL     OW88754   9.142   0.718   7.568 -0.5509 -0.1474  0.2622
28066SOL    HW188755   9.231   0.733   7.536 -0.6844 -1.4452 -0.8195
28066SOL    HW288756   9.150   0.721   7.664  1.0474 -2.0346  0.2607
28067SOL     OW88757   1.037  10.083   7.600 -0.0932 -0.0732 -0.5091
28067SOL    HW188758   0.996  10.152   7.546 -1.9106 -0.2189  0.6122
28067SOL    HW288759   1.083  10.131   7.668 -1.9440  0.1129  0.6940
28068SOL     OW88760   6.052   6.616   0.511  0.4514 -0.4197  0.6158
28068SOL    HW188761   5.975   6.562   0.529 -1.5416  2.1501  0.5630
28068SOL    HW288762   6.125   6.555   0.509 -1.5037 -2.9570  1.1810
28069SOL     OW88763   3.242   0.106  10.491  0.1081  0.0055 -0.4845
28069SOL    HW188764   3.172   0.081  10.550 -2.0344  1.7434 -2.1271
28069SOL    HW288765   3.207   0.090  10.403  1.9210  0.5296 -1.3639
28070SOL     OW88766  10.907   3.304   6.810 -0.6908  0.0117 -0.0575
28070SOL    HW188767  10.967   3.256   6.867  0.2387  0.4773 -0.6153
28070SOL    HW288768  10.843   3.343   6.869  0.2503  0.4742  0.6756
28071SOL     OW88769  10.692   4.259  11.918 -0.3146 -0.3698  0.0777
28071SOL    HW188770  10.706   4.193  11.985  0.8031 -1.0799 -0.8217
28071SOL    HW288771  10.643   4.213  11.849  0.8480 -0.4182 -0.7454
28072SOL     OW88772   5.224  10.754  11.852 -0.2529  0.1292  0.3256
28072SOL    HW188773   5.237  10.676  11.906 -0.3599  0.0368  0.2161
28072SOL    HW288774   5.258  10.730  11.766  0.2533  0.3966  0.4468
28073SOL     OW88775   7.345   1.026  11.118 -0.5504 -0.2663  0.4616
28073SOL    HW188776   7.300   0.965  11.058 -0.9080 -1.0844  1.5196
28073SOL    HW288777   7.313   1.001  11.205 -1.7116  2.2966  0.8453
28074SOL     OW88778   6.541   2.336   1.781 -0.5355  0.3386  0.2958
28074SOL    HW188779   6.564   2.364   1.692 -3.0590 -1.5181 -1.0672
28074SOL    HW288780   6.458   2.379   1.799 -1.1636 -1.0460  0.8264
28075SOL     OW88781   5.577  10.906   2.976 -0.0187 -0.2473 -0.2582
28075SOL    HW188782   5.515  10.910   2.903 -0.4081  0.0512  0.0888
28075SOL    HW288783   5.624  10.823   2.962 -1.3665 -1.1214  0.1862
28076SOL     OW88784   4.989   4.360   2.946  0.3434  0.3106  0.0807
28076SOL    HW188785   5.039   4.381   2.867  0.0354  1.2589  0.1272
28076SOL    HW288786   5.047   4.384   3.018  0.2794  0.2898  0.1396
28077SOL     OW88787   8.743  11.811   6.693  0.1511  0.7184  0.5435
28077SOL    HW188788   8.742  11.906   6.690  1.4014  0.8211  2.1584
28077SOL    HW288789   8.774  11.785   6.606  0.1064  1.7862  0.1929
28078SOL     OW88790   7.021   1.437   3.717 -0.2724  0.0740 -0.1435
28078SOL    HW188791   6.978   1.375   3.658 -1.4679 -0.8067  1.5441
28078SOL    HW288792   6.979   1.521   3.699 -0.9301 -0.2739 -0.2551
28079SOL     OW88793   1.959   1.243  12.022  0.0552  0.4088  0.2488
28079SOL    HW188794   1.954   1.338  12.024  1.8061  0.5840 -1.4811
28079SOL    HW288795   2.052   1.223  12.032 -0.1001 -1.0516 -0.8708
28080SOL     OW88796   4.628   1.590   3.309  0.0273 -0.1514 -0.3748
28080SOL    HW188797   4.668   1.663   3.261 -0.7924  1.0063  0.6332
28080SOL    HW288798   4.579   1.541   3.244  0.7716  0.0563 -1.1060
28081SOL     OW88799   2.757   0.182   9.811  0.0351  0.3500 -0.6861
28081SOL    HW188800   2.818   0.199   9.739 -0.7017  0.5977 -1.2717
28081SOL    HW288801   2.795   0.229   9.886  0.4611  0.6647 -1.0890
28082SOL     OW88802   7.711   6.824   8.802 -0.1478  0.1463 -1.0068
28082SOL    HW188803   7.751   6.832   8.888 -1.3201  1.2464 -0.5400
28082SOL    HW288804   7.649   6.751   8.811  0.9382 -0.8600 -1.4307
28083SOL     OW88805   9.504   4.615   3.485  0.1027 -0.1897 -0.5483
28083SOL    HW188806   9.542   4.552   3.423  0.6051  0.1804 -0.6205
28083SOL    HW288807   9.480   4.690   3.430  1.9459  0.7788 -0.1088
28084SOL     OW88808   6.961   1.798  10.944 -0.5326 -0.9250 -0.1346
28084SOL    HW188809   6.915   1.768  11.023 -0.6558  0.0360  0.1701
28084SOL    HW288810   6.984   1.889  10.963 -0.2180 -0.8032 -1.0620
28085SOL     OW88811   2.903  10.767  11.310  0.2794  0.2927 -0.2695
28085SOL    HW188812   2.885  10.694  11.250 -2.2333  0.1467  0.5301
28085SOL    HW288813   2.839  10.834  11.285  0.8829  1.2264  0.6353
28086SOL     OW88814  10.881   1.259   2.397  0.0995 -0.0198 -0.2115
28086SOL    HW188815  10.967   1.218   2.403  0.6252  1.1410  0.6015
28086SOL    HW288816  10.851   1.240   2.308  0.9331 -0.9244 -0.3180
28087SOL     OW88817   7.051   6.092   4.574  0.7281 -0.1513 -0.0942
28087SOL    HW188818   7.074   6.120   4.485  1.4175 -0.2986  0.0326
28087SOL    HW288819   6.974   6.037   4.563  0.9821 -0.4050 -0.6327
28088SOL     OW88820  11.473   8.953   9.592  0.1737  0.1952  0.2263
28088SOL    HW188821  11.392   8.912   9.563 -0.2634  0.0550  1.6050
28088SOL    HW288822  11.531   8.948   9.515 -1.1313  0.3899 -0.8115
28089SOL     OW88823   3.418   2.967   4.731 -0.1387  0.1147 -0.0224
28089SOL    HW188824   3.454   2.890   4.774  1.2600 -0.0347 -1.3423
28089SOL    HW288825   3.408   3.032   4.801 -3.3361 -1.8163  1.5337
28090SOL     OW88826   9.181  11.361   5.882  0.4013 -0.4933 -0.8905
28090SOL    HW188827   9.259  11.340   5.933 -0.0384 -0.5942 -0.2565
28090SOL    HW288828   9.211  11.359   5.791  1.2088 -0.2256 -0.6368
28091SOL     OW88829   5.616   2.394  11.073  0.0045  0.2148  0.2151
28091SOL    HW188830   5.700   2.350  11.055 -0.0615  0.3226 -0.3717
28091SOL    HW288831   5.559   2.368  11.001 -0.6587 -0.3229  0.9181
28092SOL     OW88832  11.852  10.990   3.692  0.3969  0.1666  0.7381
28092SOL    HW188833  11.901  11.059   3.738  2.6489 -1.0781  0.3214
28092SOL    HW288834  11.854  10.916   3.752 -1.7925  0.3339  1.0742
28093SOL     OW88835   9.578   3.151   6.585  0.7020 -0.2135  0.3968
28093SOL    HW188836   9.580   3.154   6.681  3.4213  1.0112  0.4087
28093SOL    HW288837   9.540   3.066   6.564  0.9261 -0.9084  2.5833
28094SOL     OW88838   5.638   2.335  10.491  0.0236  0.5732 -0.5725
28094SOL    HW188839   5.685   2.251  10.490 -0.3481  0.3623 -0.4560
28094SOL    HW288840   5.656   2.370  10.578  0.3265  0.6981 -0.6849
28095SOL     OW88841   8.203  10.746   0.270 -0.1531 -0.4074  0.3230
28095SOL    HW188842   8.251  10.672   0.232  0.7702  0.5185 -0.3931
28095SOL    HW288843   8.198  10.727   0.363  1.6091 -0.5652  0.4212
28096SOL     OW88844   4.143   9.993   4.685  0.5160  0.0613  0.4134
28096SOL    HW188845   4.072  10.033   4.635 -0.1834 -2.1574 -0.4840
28096SOL    HW288846   4.110   9.988   4.775  1.3134  2.9763  0.9755
28097SOL     OW88847   7.085  10.969   9.080  0.5581 -0.1150 -0.0705
28097SOL    HW188848   7.112  10.922   9.001  0.9202  1.7397 -1.1008
28097SOL    HW288849   7.073  11.059   9.051  0.7446  0.6262  2.0180
28098SOL     OW88850   1.507  10.460   2.962  0.0923  0.2774 -0.2410
28098SOL    HW188851   1.430  10.485   2.912  0.5868  1.2178 -0.5669
28098SOL    HW288852   1.546  10.389   2.912 -2.9448 -3.4630  2.2111
28099SOL     OW88853   1.800  10.577   3.655 -0.1070  0.1192  0.1487
28099SOL    HW188854   1.802  10.562   3.750  0.1925  1.0538  0.2985
28099SOL    HW288855   1.817  10.491   3.617  1.8900  0.1126  0.9662
28100SOL     OW88856   1.203  10.529   7.324 -0.2836 -0.0979  0.1910
28100SOL    HW188857   1.238  10.591   7.388  0.2899 -1.1415  0.9068
28100SOL    HW288858   1.250  10.448   7.340 -0.8517 -0.6663 -0.8947
28101SOL     OW88859   3.139   0.149   9.223  0.1467 -0.3776 -0.0545
28101SOL    HW188860   3.067   0.111   9.173 -0.3182  1.6437 -1.0318
28101SOL    HW288861   3.108   0.237   9.246  2.9709  1.3593 -2.2475
28102SOL     OW88862   4.447   6.905   4.887 -0.0511  0.7655  0.0460
28102SOL    HW188863   4.507   6.886   4.816 -0.0094  1.4937 -0.1252
28102SOL    HW288864   4.479   6.853   4.961 -1.3631 -1.7077 -1.0250
28103SOL     OW88865   5.824   9.546   7.945  0.4189 -0.2996  0.4426
28103SOL    HW188866   5.776   9.505   7.873 -1.4145 -0.4482  1.6664
28103SOL    HW288867   5.789   9.504   8.023  0.8854  1.2639  1.5432
28104SOL     OW88868   6.202  10.667  10.396 -0.1404  0.0389 -0.3110
28104SOL    HW188869   6.121  10.713  10.416 -0.2890  0.1409 -1.1262
28104SOL    HW288870   6.194  10.583  10.441 -1.5353 -0.7263 -1.9021
28105SOL     OW88871   4.508   3.598   5.161 -0.1123 -0.3655 -0.3754
28105SOL    HW188872   4.487   3.618   5.252  2.2820  0.2738  0.1044
28105SOL    HW288873   4.493   3.504   5.153  1.3602 -0.7751  1.2296
28106SOL     OW88874   1.076   4.551   6.675 -0.2511 -0.4760  0.7766
28106SOL    HW188875   1.014   4.584   6.610 -0.5586  0.0179  1.3097
28106SOL    HW288876   1.136   4.496   6.625  0.0693  0.6227 -0.0836
28107SOL     OW88877   6.006   7.359   1.122  0.3170 -0.1577 -0.2673
28107SOL    HW188878   5.993   7.281   1.176  0.3703  0.0199  0.0047
28107SOL    HW288879   6.069   7.411   1.171  0.9077 -0.3200 -0.8541
28108SOL     OW88880  11.834  11.116   9.794  0.3936  0.5051  0.6500
28108SOL    HW188881  11.884  11.166   9.729  0.5265  0.3658  0.6431
28108SOL    HW288882  11.761  11.080   9.744 -0.4653  1.7999  0.9396
28109SOL     OW88883   1.853   4.380  10.851 -0.1825  0.0657  0.5827
28109SOL    HW188884   1.899   4.403  10.932  2.3402  0.4104 -0.8422
28109SOL    HW288885   1.787   4.449  10.840  0.8957  1.2445  1.2605
28110SOL     OW88886   8.785   1.313   6.614  0.2096  0.4262  0.3707
28110SOL    HW188887   8.784   1.321   6.710 -0.1827  2.2062  0.2353
28110SOL    HW288888   8.856   1.371   6.586  0.8404 -0.6709 -0.4048
28111SOL     OW88889   5.031   0.427  11.656  0.1711 -0.7382  0.1350
28111SOL    HW188890   4.994   0.384  11.579  2.4276 -1.1322 -0.7942
28111SOL    HW288891   5.022   0.363  11.726 -0.6358 -0.9034 -0.0995
28112SOL     OW88892   0.798   9.287   0.545  0.0731  0.3530  0.2603
28112SOL    HW188893   0.879   9.242   0.570  1.1966  0.3070 -3.0008
28112SOL    HW288894   0.826   9.351   0.479 -2.6236 -0.1221 -1.4568
28113SOL     OW88895  10.132   8.921   7.601 -0.1621  0.0695  0.2098
28113SOL    HW188896  10.183   8.934   7.681  0.7958  2.4335 -0.6875
28113SOL    HW288897  10.063   8.988   7.605 -0.3509 -0.0525 -0.7401
28114SOL     OW88898   0.350   8.984   8.902  0.2005  0.4268  0.0569
28114SOL    HW188899   0.380   9.065   8.861 -2.1647  1.2674 -0.2230
28114SOL    HW288900   0.361   8.917   8.835  2.5554  0.3754  0.4252
28115SOL     OW88901   2.908   7.118   8.228 -0.4385  0.4488  0.3743
28115SOL    HW188902   2.953   7.127   8.144  0.0594  0.3903  0.6245
28115SOL    HW288903   2.976   7.085   8.287 -0.9494 -0.1253  0.6503
28116SOL     OW88904   0.955   1.166  12.074 -0.0762  0.1913 -0.1608
28116SOL    HW188905   0.958   1.160  12.169  1.1884  0.3531 -0.1707
28116SOL    HW288906   1.000   1.086  12.044  1.7734  1.3297 -0.5580
28117SOL     OW88907  11.076   9.375   5.559  0.1671 -0.0547 -0.5276
28117SOL    HW188908  11.097   9.287   5.590  1.6402 -0.4074 -2.3113
28117SOL    HW288909  11.156   9.425   5.571  0.0162  0.4424 -1.4608
28118SOL     OW88910   9.588   7.229   0.218 -0.4784 -0.0446 -0.7493
28118SOL    HW188911   9.558   7.144   0.252  0.0827 -0.1438 -0.4783
28118SOL    HW288912   9.674   7.210   0.180 -0.3267  0.4132 -0.6416
28119SOL     OW88913   8.451  11.148   4.113  0.6887  0.5418  0.4387
28119SOL    HW188914   8.505  11.070   4.124 -1.3328 -1.2573 -1.5033
28119SOL    HW288915   8.382  11.140   4.178 -1.0865 -0.8316 -1.4919
28120SOL     OW88916   3.320  10.943   8.951  0.4224  0.4111  0.0653
28120SOL    HW188917   3.301  11.026   8.906 -2.3859 -0.9967 -1.6362
28120SOL    HW288918   3.396  10.907   8.905 -0.1921  0.6917 -1.2271
28121SOL     OW88919   7.562   8.367  11.235  0.6507  0.6073 -0.0763
28121SOL    HW188920   7.512   8.446  11.255  0.7188  0.3023  1.4032
28121SOL    HW288921   7.566   8.320  11.318 -0.8119 -1.7750 -1.2411
28122SOL     OW88922   9.509   3.743   4.045 -0.8975 -0.1728 -0.5540
28122SOL    HW188923   9.569   3.669   4.045 -0.0539  0.4366  1.5197
28122SOL    HW288924   9.426   3.707   4.076 -0.9907 -0.5556 -1.2172
28123SOL     OW88925   7.928   5.865   0.661  0.3213 -0.1352 -0.2409
28123SOL    HW188926   8.018   5.832   0.660  0.8395  1.1115 -2.8469
28123SOL    HW288927   7.878   5.799   0.613  0.3888  0.4069 -1.0797
28124SOL     OW88928   3.831  10.068   2.083 -0.1848 -0.5561 -0.1258
28124SOL    HW188929   3.738  10.060   2.103  0.0158 -0.7255  0.7736
28124SOL    HW288930   3.876  10.034   2.161  0.6268  0.8764  0.0778
28125SOL     OW88931   4.358   2.714   2.930  0.2437 -0.7818  0.1652
28125SOL    HW188932   4.400   2.699   2.845 -0.7434 -0.4171 -0.4031
28125SOL    HW288933   4.366   2.630   2.976  0.2402 -1.1710 -0.5338
28126SOL     OW88934   2.629   5.954   4.773 -0.3071  0.3243  0.2375
28126SOL    HW188935   2.720   5.970   4.747 -0.2672  0.7237  0.6127
28126SOL    HW288936   2.603   5.877   4.723  0.3563 -0.0095  0.4000
28127SOL     OW88937   7.922   1.700  10.262 -0.0963 -0.0714 -0.4584
28127SOL    HW188938   8.007   1.656  10.267  1.3546  2.6119  0.3843
28127SOL    HW288939   7.917   1.731  10.172 -0.8768 -1.3819 -0.8993
28128SOL     OW88940   9.525   2.735  11.284  0.1419 -0.4458 -0.1640
28128SOL    HW188941   9.519   2.825  11.252  0.1969 -0.1814  0.5599
28128SOL    HW288942   9.619   2.719  11.294  0.1363 -0.6147 -0.3694
28129SOL     OW88943  11.999   3.369   9.175  0.5105 -0.1263  0.1840
28129SOL    HW188944  12.007   3.454   9.219 -0.0110 -0.9095  1.8372
28129SOL    HW288945  12.002   3.305   9.245  2.3049 -1.6100 -1.1372
28130SOL     OW88946   6.161   1.443   2.964 -0.1810  0.0434 -0.0926
28130SOL    HW188947   6.107   1.365   2.978  0.7181 -0.7117 -0.6956
28130SOL    HW288948   6.187   1.469   3.053  0.7916 -1.2962  0.0484
28131SOL     OW88949   9.680   7.544   6.493 -0.5958  0.1409  0.3401
28131SOL    HW188950   9.718   7.508   6.412  0.7662  1.0808  0.5153
28131SOL    HW288951   9.588   7.558   6.472 -0.2861  0.3129 -1.0516
28132SOL     OW88952   3.864   6.890  10.436  0.2132  0.2558  0.6081
28132SOL    HW188953   3.853   6.985  10.430  0.1507  0.4124  2.6662
28132SOL    HW288954   3.809   6.855  10.366 -0.8823  1.6848  0.7056
28133SOL     OW88955   9.420   4.610   4.883 -0.3258  0.3930  0.2794
28133SOL    HW188956   9.347   4.549   4.883 -0.5657  0.6784  0.4812
28133SOL    HW288957   9.453   4.609   4.793 -0.9112  0.6611  0.0581
28134SOL     OW88958  11.131   0.835   2.188 -0.4336 -0.1190  0.3044
28134SOL    HW188959  11.127   0.809   2.280 -1.2363  1.6669  0.8137
28134SOL    HW288960  11.219   0.870   2.177 -0.1246 -0.9055  0.2113
28135SOL     OW88961   0.606   5.298   2.945 -0.2066 -0.0431  0.3909
28135SOL    HW188962   0.625   5.235   3.014  0.2105 -0.3393  0.0033
28135SOL    HW288963   0.605   5.247   2.864  0.7116  0.5377  0.0014
28136SOL     OW88964   2.273   6.234   4.341 -0.3389  0.1717  0.1044
28136SOL    HW188965   2.224   6.235   4.423 -0.2086  0.3684  0.1809
28136SOL    HW288966   2.267   6.144   4.310 -0.6399  0.1666  0.1790
28137SOL     OW88967  11.941   0.987   6.355  0.3634  0.3466 -0.1639
28137SOL    HW188968  11.964   1.074   6.321 -0.9788  1.2342  1.1074
28137SOL    HW288969  11.975   0.986   6.444  1.6343 -1.0096 -0.6353
28138SOL     OW88970   7.524   9.598   5.755  0.2533  0.5463 -0.1255
28138SOL    HW188971   7.480   9.681   5.738 -1.2095 -0.0680  0.4477
28138SOL    HW288972   7.551   9.602   5.846 -1.4874 -0.2881  0.4682
28139SOL     OW88973   1.547  11.310   3.242  0.1601 -0.3634  0.3997
28139SOL    HW188974   1.563  11.396   3.280 -1.9030 -0.1786  0.9947
28139SOL    HW288975   1.622  11.294   3.185  0.3900  2.0362 -0.0816
28140SOL     OW88976   4.012   2.514   4.214  0.0482 -0.0315 -0.2833
28140SOL    HW188977   4.006   2.575   4.141  1.3494  0.0119 -0.3802
28140SOL    HW288978   4.100   2.476   4.207 -0.4042 -1.2347  0.3151
28141SOL     OW88979   3.325  10.080  10.943 -0.0979  0.2618  0.1175
28141SOL    HW188980   3.384  10.078  11.019 -0.0874  0.0954  0.1056
28141SOL    HW288981   3.243  10.115  10.978  0.5963  2.4438 -0.2961
28142SOL     OW88982  11.593   4.611   4.668  0.6390 -0.6620 -0.2023
28142SOL    HW188983  11.537   4.533   4.676  1.4053 -1.0551  2.1305
28142SOL    HW288984  11.543   4.681   4.710  0.5826 -0.2511 -0.9495
28143SOL     OW88985   1.240   6.337   4.021  0.1728 -0.1084 -0.2873
28143SOL    HW188986   1.195   6.347   3.937 -3.0987 -1.6428  1.0896
28143SOL    HW288987   1.286   6.253   4.014  1.9988  0.9151 -1.2994
28144SOL     OW88988   4.053   3.471   1.081  0.2774 -0.0771 -0.4193
28144SOL    HW188989   4.019   3.537   1.142 -0.1592 -0.5821 -0.1012
28144SOL    HW288990   4.000   3.483   1.002  0.5040  0.2440 -0.5278
28145SOL     OW88991  11.781   0.451   7.651  0.0637  0.2368 -0.4642
28145SOL    HW188992  11.787   0.439   7.746  0.2458  1.7217 -0.2598
28145SOL    HW288993  11.758   0.364   7.617 -0.2638 -0.2603  0.9574
28146SOL     OW88994   0.568   1.420   9.848 -0.3345 -0.1257 -0.0697
28146SOL    HW188995   0.517   1.434   9.928 -0.0265  0.4839  0.0307
28146SOL    HW288996   0.591   1.509   9.820  2.5496 -0.3960  1.0864
28147SOL     OW88997   9.906   5.656   8.013 -0.2135  0.2509 -0.0810
28147SOL    HW188998   9.928   5.749   8.021 -0.8220  0.4337 -0.4756
28147SOL    HW288999   9.813   5.651   8.034  0.1502 -0.5028  1.4603
28148SOL     OW89000  11.880  10.364   3.333  0.0751 -0.0372  0.5853
28148SOL    HW189001  11.962  10.368   3.382 -0.3656 -0.1872  1.3540
28148SOL    HW289002  11.817  10.328   3.395 -0.0374 -2.2935 -0.7095
28149SOL     OW89003   8.101   5.201   5.054 -0.4867 -0.2938  0.3134
28149SOL    HW189004   8.094   5.282   5.004  0.1105 -0.6854 -0.4277
28149SOL    HW289005   8.118   5.230   5.144 -2.6825  0.4490  0.5506
28150SOL     OW89006   4.241   1.357  11.430  0.1025 -0.4979  0.0393
28150SOL    HW189007   4.279   1.292  11.371  0.2546 -0.2341 -0.1527
28150SOL    HW289008   4.200   1.305  11.499  0.3797 -0.7967 -0.0167
28151SOL     OW89009   9.873   4.598   4.215 -0.0028 -0.0951  0.0117
28151SOL    HW189010   9.787   4.638   4.225 -0.4319 -0.7330 -1.0227
28151SOL    HW289011   9.893   4.562   4.301 -0.4305  0.6999  0.4588
28152SOL     OW89012   3.671   6.917   1.258 -0.3875  0.4371 -0.4376
28152SOL    HW189013   3.688   6.837   1.308  2.1758 -0.0918 -2.0094
28152SOL    HW289014   3.722   6.985   1.303 -1.2870  0.8647 -0.0370
28153SOL     OW89015   3.008   0.753  10.205  0.2821  0.1221  0.3890
28153SOL    HW189016   3.057   0.697  10.146 -1.8205 -0.6195 -0.7512
28153SOL    HW289017   3.043   0.733  10.292 -1.5856 -4.5222  0.3422
28154SOL     OW89018   6.571  10.854   6.060  0.1037  0.2651  0.1963
28154SOL    HW189019   6.599  10.934   6.104 -2.5117  1.4441 -0.1303
28154SOL    HW289020   6.633  10.844   5.987  1.8097  0.7101  1.5243
28155SOL     OW89021   4.596   2.442   3.307  0.1076 -0.8768 -0.1506
28155SOL    HW189022   4.607   2.521   3.254  1.2087 -1.7798 -1.3475
28155SOL    HW289023   4.510   2.409   3.283  0.2159 -0.7795 -0.6961
28156SOL     OW89024   5.217   8.573   6.490  0.4578 -0.0552 -0.3827
28156SOL    HW189025   5.177   8.573   6.577  2.2411  1.1498  0.4849
28156SOL    HW289026   5.185   8.654   6.450 -0.3005 -0.5716 -0.8615
28157SOL     OW89027  11.045   8.731   9.370  0.5925  0.1031 -0.3610
28157SOL    HW189028  10.998   8.747   9.288 -0.2804 -0.4073  0.0250
28157SOL    HW289029  11.025   8.640   9.392  0.4884  0.3597  0.6316
28158SOL     OW89030   1.424   1.466   2.724 -0.3732 -0.1685 -0.3359
28158SOL    HW189031   1.497   1.409   2.698 -0.0234  0.6004 -1.0841
28158SOL    HW289032   1.465   1.549   2.747 -0.8623 -0.2751  0.9855
28159SOL     OW89033   5.196   4.863   7.246 -0.6197  0.0943 -0.0658
28159SOL    HW189034   5.120   4.898   7.201 -0.8764 -1.2636 -0.7308
28159SOL    HW289035   5.211   4.777   7.206  0.2197 -0.3974  1.2323
28160SOL     OW89036   4.624   3.833   1.937  0.4284  0.6293 -0.2179
28160SOL    HW189037   4.685   3.802   2.004 -0.6582 -1.3612 -0.0985
28160SOL    HW289038   4.591   3.916   1.972  0.5116  0.0425  1.3290
28161SOL     OW89039   7.764   5.827   5.343 -0.2771  0.4988  0.4924
28161SOL    HW189040   7.853   5.859   5.361  0.6772 -1.2173 -0.7963
28161SOL    HW289041   7.737   5.876   5.265 -0.6632  1.3060  1.1113
28162SOL     OW89042  11.465   2.148   4.995 -0.5350  0.2059  0.6062
28162SOL    HW189043  11.439   2.183   4.910  0.7290  0.6966  0.4040
28162SOL    HW289044  11.553   2.183   5.010 -0.0149 -1.3118  1.3004
28163SOL     OW89045   1.277   1.030  10.765 -0.1418 -0.9392 -0.1541
28163SOL    HW189046   1.299   1.027  10.672 -0.7138  2.2523 -0.5103
28163SOL    HW289047   1.183   1.009  10.768 -0.2174 -0.6227 -0.3355
28164SOL     OW89048   7.898  11.549  11.167  0.1632  0.2635 -0.3782
28164SOL    HW189049   7.940  11.627  11.203  1.1898  0.6805 -2.3070
28164SOL    HW289050   7.964  11.480  11.178 -1.0517 -0.6220  2.0810
28165SOL     OW89051   1.397   2.312  10.895  0.5839 -0.3584  0.9495
28165SOL    HW189052   1.337   2.300  10.968  1.8112 -1.7699  1.7897
28165SOL    HW289053   1.484   2.290  10.931  1.2595 -0.7892 -0.8251
28166SOL     OW89054   9.732   9.060  10.167  0.1232  0.0428  0.0162
28166SOL    HW189055   9.827   9.068  10.156  0.0104  0.1245 -0.9510
28166SOL    HW289056   9.701   9.024  10.084 -0.4354 -2.1179  1.0928
28167SOL     OW89057   8.439   3.902   0.583  0.2682  0.1670 -0.0976
28167SOL    HW189058   8.507   3.851   0.627  0.0874 -0.2109 -0.2547
28167SOL    HW289059   8.360   3.887   0.636  0.9737  3.2840  2.1146
28168SOL     OW89060   1.903   4.812  10.004 -0.1423 -0.5160  0.1846
28168SOL    HW189061   1.950   4.872  10.063  0.4391 -0.0328 -0.7514
28168SOL    HW289062   1.889   4.862   9.924 -2.7093 -0.4960  0.5714
28169SOL     OW89063   7.352   5.621   7.869 -0.1816 -0.0996  0.0889
28169SOL    HW189064   7.386   5.533   7.850  1.1841  0.7141 -1.4488
28169SOL    HW289065   7.266   5.622   7.827 -0.4784 -0.8752  0.6391
28170SOL     OW89066   3.263   0.798  11.562 -0.3810 -0.1161  0.0051
28170SOL    HW189067   3.240   0.783  11.470  0.7315  1.5948 -0.6171
28170SOL    HW289068   3.184   0.837  11.600  0.1464  2.3243 -1.1610
28171SOL     OW89069  10.093   6.516   5.527 -0.6963  0.2415  0.2673
28171SOL    HW189070  10.180   6.555   5.524 -0.3088 -0.6532 -1.7575
28171SOL    HW289071  10.095   6.460   5.605  0.4320  0.4673  0.4173
28172SOL     OW89072   3.368   5.878  10.016  0.3106  0.0476 -0.4764
28172SOL    HW189073   3.338   5.793  10.047  2.4330  0.0022  1.7564
28172SOL    HW289074   3.290   5.920   9.981 -1.0137 -2.3475 -0.5935
28173SOL     OW89075   0.051   8.386  10.180 -0.1755 -0.4673  0.5248
28173SOL    HW189076   0.117   8.400  10.112 -0.3801 -1.8988  0.0055
28173SOL    HW289077  -0.014   8.329  10.139  0.8351 -3.2690  2.5581
28174SOL     OW89078   7.626   4.464   2.701 -0.1035 -0.5549 -0.5658
28174SOL    HW189079   7.656   4.479   2.790  2.5265 -2.0869 -1.1004
28174SOL    HW289080   7.552   4.403   2.710 -0.9496  0.5945  0.6094
28175SOL     OW89081   9.741   6.914   8.405  0.6643 -0.4677  0.0966
28175SOL    HW189082   9.757   6.830   8.361  1.5343 -0.4370  0.3271
28175SOL    HW289083   9.826   6.937   8.443  0.0413 -0.2657  1.3957
28176SOL     OW89084  10.700   9.012   2.266 -0.3300 -0.7524 -0.0895
28176SOL    HW189085  10.789   9.047   2.269 -0.4810 -0.4392  1.7979
28176SOL    HW289086  10.661   9.053   2.188  0.8592 -0.1379 -0.3866
28177SOL     OW89087   2.646   7.950  11.751 -0.4446 -0.3397 -0.3921
28177SOL    HW189088   2.656   7.855  11.739 -0.7159 -0.1966 -1.7986
28177SOL    HW289089   2.613   7.958  11.841  0.4546 -1.5145  0.0899
28178SOL     OW89090   6.547   4.070   4.685 -0.1884  0.4051 -0.0559
28178SOL    HW189091   6.546   3.999   4.621 -0.6085  0.5957 -0.2612
28178SOL    HW289092   6.495   4.038   4.758  0.2667  0.1998  0.1877
28179SOL     OW89093  10.955   3.544   0.384  0.1904 -0.3636  0.0146
28179SOL    HW189094  11.019   3.476   0.363  0.9548  0.0841  0.8318
28179SOL    HW289095  10.954   3.600   0.306  1.0064 -0.2215  0.0955
28180SOL     OW89096  10.799   9.378   0.341 -0.1141  0.1133 -0.6098
28180SOL    HW189097  10.786   9.314   0.411  0.9216 -0.2217 -0.7086
28180SOL    HW289098  10.877   9.426   0.368 -0.5215  0.9286 -0.8498
28181SOL     OW89099   0.649   1.760   6.786 -0.2476 -0.0604 -0.3790
28181SOL    HW189100   0.716   1.703   6.822 -0.5294 -0.2115 -0.0847
28181SOL    HW289101   0.665   1.845   6.827 -0.8831 -0.3571  0.5157
28182SOL     OW89102  10.063   3.741   0.137  0.3214 -0.1941  0.0806
28182SOL    HW189103  10.128   3.809   0.117 -0.9909  0.5903 -1.8737
28182SOL    HW289104  10.021   3.723   0.053 -1.6989 -0.9796  1.1882
28183SOL     OW89105   7.876   3.087  10.847  0.7568 -0.6849 -0.0541
28183SOL    HW189106   7.970   3.071  10.859  0.8770 -1.6625 -1.9766
28183SOL    HW289107   7.869   3.125  10.760 -0.7343 -1.7402 -0.4223
28184SOL     OW89108   2.531   9.651   0.244  0.7057  0.1475  0.2249
28184SOL    HW189109   2.531   9.657   0.148  0.8054 -1.7847  0.0616
28184SOL    HW289110   2.595   9.716   0.272  0.9317  0.4974 -1.0346
28185SOL     OW89111   0.763  10.216   7.734 -0.1993 -0.0294 -0.7748
28185SOL    HW189112   0.841  10.247   7.779 -0.3038 -0.4021 -0.3303
28185SOL    HW289113   0.767  10.258   7.648  0.4642 -0.0142 -0.7420
28186SOL     OW89114   2.415   6.921   7.256 -0.2096 -0.3222  0.5475
28186SOL    HW189115   2.435   6.832   7.228 -0.5608 -0.9222  2.0949
28186SOL    HW289116   2.408   6.971   7.175 -1.4634 -2.0178 -0.4476
28187SOL     OW89117   7.577   3.386  12.122 -0.4365  0.1960  0.4007
28187SOL    HW189118   7.670   3.363  12.119 -1.0315 -2.4222 -0.2391
28187SOL    HW289119   7.567   3.431  12.206  1.1594 -0.8253  1.2026
28188SOL     OW89120   7.020  11.448   2.538  0.5829 -0.3081 -0.2322
28188SOL    HW189121   6.983  11.425   2.453  0.5103 -0.3717 -0.1837
28188SOL    HW289122   7.011  11.543   2.544 -0.1942 -0.3869  0.0645
28189SOL     OW89123   4.499   9.671   7.602  0.6972 -0.5617  0.4321
28189SOL    HW189124   4.426   9.730   7.621  0.3134 -0.9782  0.2781
28189SOL    HW289125   4.577   9.720   7.629  0.6317  1.0425 -1.9771
28190SOL     OW89126   7.103  10.286   5.510  0.4160 -0.5048 -0.0330
28190SOL    HW189127   7.089  10.267   5.602 -1.1625 -2.0340 -0.5293
28190SOL    HW289128   7.106  10.382   5.505  0.7427 -0.4026  1.5997
28191SOL     OW89129   0.054   5.138  11.620  0.4941  0.5444 -0.8934
28191SOL    HW189130   0.052   5.103  11.532 -0.3287 -1.1348 -0.2487
28191SOL    HW289131  -0.032   5.116  11.657  1.4061 -0.2745  0.8587
28192SOL     OW89132   3.871   5.136   1.101  0.0793  0.7941 -0.1489
28192SOL    HW189133   3.957   5.098   1.086 -0.2991  0.3726 -1.3014
28192SOL    HW289134   3.864   5.207   1.037 -0.8905  0.0634 -0.8738
28193SOL     OW89135   5.059   5.026   2.495  0.5942 -0.1037  0.1787
28193SOL    HW189136   5.117   5.004   2.423 -1.0920 -0.0456 -1.2702
28193SOL    HW289137   4.978   5.056   2.453 -0.9343 -1.2899  2.0694
28194SOL     OW89138   5.904   2.743  10.366 -0.9836  0.2826 -0.2890
28194SOL    HW189139   5.937   2.713  10.451  2.3245  2.2190 -0.6926
28194SOL    HW289140   5.908   2.665  10.311  1.2310 -0.0918  0.2696
28195SOL     OW89141   7.215   1.974   0.234 -0.3964  0.4162  0.4857
28195SOL    HW189142   7.195   1.964   0.141 -1.7056 -0.8477  0.8562
28195SOL    HW289143   7.210   1.885   0.269  0.4215  0.8281  1.7125
28196SOL     OW89144   4.091   5.427   5.792  0.0032  0.3873 -0.0777
28196SOL    HW189145   4.048   5.433   5.878  0.7311 -1.9578  0.5293
28196SOL    HW289146   4.100   5.333   5.777  2.3412  0.7674 -1.4842
28197SOL     OW89147   1.537   3.609   0.583  0.5478  0.4165  0.6375
28197SOL    HW189148   1.560   3.539   0.643  1.0458  0.2130  0.2186
28197SOL    HW289149   1.615   3.622   0.530  0.4265  1.2298  0.6501
28198SOL     OW89150   4.503   8.927   7.095 -0.7490 -0.0995  0.1712
28198SOL    HW189151   4.408   8.917   7.087 -0.8179 -0.2182  1.0093
28198SOL    HW289152   4.522   8.902   7.186 -0.2548  2.3346  0.8294
28199SOL     OW89153   1.727   3.515   0.027  0.0097 -0.5280  0.4210
28199SOL    HW189154   1.661   3.579   0.001 -0.9616 -2.0676 -1.1909
28199SOL    HW289155   1.805   3.567   0.049 -1.4440  1.2790  1.5318
28200SOL     OW89156   3.999   5.322   3.618 -0.3390 -0.2455  0.0128
28200SOL    HW189157   4.087   5.285   3.622 -0.6561 -1.0933 -0.6246
28200SOL    HW289158   3.953   5.268   3.554 -1.4077  0.0137  0.5467
28201SOL     OW89159   3.932   0.054  10.684 -0.1174  0.2170 -0.2995
28201SOL    HW189160   3.933   0.129  10.744 -1.1196 -0.4606  0.5885
28201SOL    HW289161   4.025   0.031  10.673  0.3072  2.2133 -1.4410
28202SOL     OW89162   5.484   0.975   8.109  0.8341  0.9003 -0.0131
28202SOL    HW189163   5.559   0.977   8.050  0.3976  2.5005 -0.5592
28202SOL    HW289164   5.430   1.050   8.082 -1.7504 -1.0514 -0.6571
28203SOL     OW89165   6.893   3.092   5.096  0.1118 -0.2336 -0.5202
28203SOL    HW189166   6.799   3.105   5.107  0.5187  1.6223  1.4157
28203SOL    HW289167   6.901   2.999   5.073 -2.2035 -0.2921 -1.3691
28204SOL     OW89168   2.243   6.338   3.327 -0.0728  0.3795 -0.3263
28204SOL    HW189169   2.337   6.354   3.320 -0.5384  3.3074 -1.4654
28204SOL    HW289170   2.223   6.354   3.420  0.4697  0.3575 -0.2006
28205SOL     OW89171  11.552   6.893  10.272  0.3022 -0.0861  0.3937
28205SOL    HW189172  11.591   6.981  10.273  0.9329 -0.2487 -2.1816
28205SOL    HW289173  11.626   6.834  10.256 -0.4397 -0.7959 -0.5202
28206SOL     OW89174   3.011   0.178   4.766 -0.2783  0.2066 -0.0544
28206SOL    HW189175   3.006   0.222   4.851 -0.8133  0.0440 -0.0008
28206SOL    HW289176   3.032   0.087   4.787 -0.5968  0.1259 -0.0866
28207SOL     OW89177   8.834   6.991   8.689  0.0861 -0.1123  0.1694
28207SOL    HW189178   8.806   6.974   8.599  0.0216 -3.4837  0.6912
28207SOL    HW289179   8.752   6.998   8.739  0.1296  1.1613  0.0888
28208SOL     OW89180   3.761   9.087  11.807 -0.5326 -0.4196 -0.3489
28208SOL    HW189181   3.835   9.040  11.769 -0.6097 -0.4416 -0.4697
28208SOL    HW289182   3.726   9.028  11.874 -0.6069 -0.5191 -0.4759
28209SOL     OW89183  10.481   8.030   7.369  0.3557 -0.0038 -0.6325
28209SOL    HW189184  10.437   7.947   7.352 -2.5593  1.0286  1.1225
28209SOL    HW289185  10.460   8.050   7.460  1.2891  2.4978 -0.8916
28210SOL     OW89186   8.855  11.428   6.690 -0.5706 -0.1871  0.0918
28210SOL    HW189187   8.915  11.462   6.622 -0.8734 -0.1918 -0.1809
28210SOL    HW289188   8.769  11.431   6.649 -0.5996 -1.3775  0.0347
28211SOL     OW89189   4.310  10.863  11.441  0.0563  0.2697  0.1333
28211SOL    HW189190   4.360  10.809  11.381 -0.5240  0.2724 -0.3595
28211SOL    HW289191   4.237  10.807  11.469 -0.8793  0.9658 -0.8342
28212SOL     OW89192   6.497   7.661   6.356 -0.0843  0.4783 -0.3026
28212SOL    HW189193   6.527   7.608   6.431  1.2808 -0.8060 -1.6828
28212SOL    HW289194   6.405   7.638   6.347 -0.3782  0.9287  1.1691
28213SOL     OW89195  11.888   7.587  10.795  0.2734 -0.4565  0.2230
28213SOL    HW189196  11.847   7.505  10.822 -1.2976  0.0492 -0.4906
28213SOL    HW289197  11.815   7.647  10.781  1.4282  1.4764  1.9465
28214SOL     OW89198   3.500  11.115   7.904 -0.0367  0.1456 -0.1983
28214SOL    HW189199   3.572  11.133   7.965 -0.8721 -0.6060  1.0492
28214SOL    HW289200   3.536  11.137   7.818  2.7528 -2.9836 -0.0539
28215SOL     OW89201   4.987   4.803   4.530 -0.1949 -0.3562  0.6516
28215SOL    HW189202   5.065   4.748   4.540  0.1123 -0.4763 -1.8193
28215SOL    HW289203   4.968   4.834   4.619  3.0921  0.2960  1.2569
28216SOL     OW89204   4.997   6.263   6.730 -0.4622  0.7379  0.4379
28216SOL    HW189205   4.978   6.252   6.636  1.0124  1.2871  0.0520
28216SOL    HW289206   4.913   6.246   6.773 -1.0600  0.0077 -0.9411
28217SOL     OW89207   9.925   1.364   6.471  0.0159  0.7360 -0.3983
28217SOL    HW189208   9.842   1.410   6.468 -0.6286 -0.3959 -0.2992
28217SOL    HW289209   9.924   1.318   6.555  0.8479  0.9121 -0.2842
28218SOL     OW89210   2.644  11.007   0.719  0.1166 -0.2137 -0.1216
28218SOL    HW189211   2.574  10.994   0.655  0.1375 -1.6229  0.1158
28218SOL    HW289212   2.661  10.920   0.754  0.3989  0.4610  1.5115
28219SOL     OW89213  11.869   1.104   9.619 -0.4015 -0.0698  0.0994
28219SOL    HW189214  11.848   1.106   9.525 -2.0920 -0.0474  0.4354
28219SOL    HW289215  11.826   1.181   9.655  0.1030 -0.1621  0.9257
28220SOL     OW89216   0.415   6.464   5.916 -0.4640 -0.5853  0.6312
28220SOL    HW189217   0.471   6.387   5.924  0.2575  0.0135  1.6027
28220SOL    HW289218   0.340   6.434   5.866  0.0232 -1.8019  0.5969
28221SOL     OW89219   1.052  11.063   3.853 -0.6838 -0.2368  0.2301
28221SOL    HW189220   0.957  11.070   3.856 -0.7047 -0.6658  0.6811
28221SOL    HW289221   1.072  11.047   3.761 -1.1610 -1.6317  0.3453
28222SOL     OW89222   4.175   8.596   3.549 -0.3134  0.0700 -0.0055
28222SOL    HW189223   4.106   8.594   3.615  0.2331  2.3898  0.7344
28222SOL    HW289224   4.144   8.657   3.483  0.6243  0.4657 -0.1082
28223SOL     OW89225  10.989   7.080   5.933  0.0003  0.0901 -0.2258
28223SOL    HW189226  11.074   7.095   5.890 -0.4570  0.5390 -0.9993
28223SOL    HW289227  11.009   7.019   6.005  0.6935 -1.1701 -1.4353
28224SOL     OW89228  11.148   3.359   6.135 -0.4947 -0.0058  0.0268
28224SOL    HW189229  11.107   3.428   6.083 -0.6094 -0.1538 -0.0795
28224SOL    HW289230  11.165   3.400   6.220 -0.6936  0.1100  0.0100
28225SOL     OW89231   9.446   0.037  10.718  0.6293  0.8026 -0.0153
28225SOL    HW189232   9.425   0.039  10.625  2.2848 -1.4667 -0.4850
28225SOL    HW289233   9.415  -0.048  10.748  1.0819  1.0707  1.2753
28226SOL     OW89234   8.207   5.148  11.068  0.2736  0.0576  0.6178
28226SOL    HW189235   8.240   5.235  11.091  0.1264  0.0844  0.7295
28226SOL    HW289236   8.250   5.127  10.985 -0.4631  0.6631  0.0765
28227SOL     OW89237   8.632   5.241   2.563  0.0763  0.5817 -0.0099
28227SOL    HW189238   8.660   5.300   2.633  1.0656 -0.5774  0.6339
28227SOL    HW289239   8.685   5.162   2.577 -0.1168  0.1089 -1.7399
28228SOL     OW89240   2.554   2.364   1.189 -0.2799 -0.8673 -0.0820
28228SOL    HW189241   2.647   2.349   1.175  0.3737  2.1113  0.3448
28228SOL    HW289242   2.520   2.392   1.104  0.4636  2.9807  0.7004
28229SOL     OW89243   6.568  10.834   0.635 -0.0225  0.3724 -0.0502
28229SOL    HW189244   6.627  10.805   0.704 -0.8954  0.0499  0.5739
28229SOL    HW289245   6.513  10.901   0.677 -2.1640 -1.4862  0.2995
28230SOL     OW89246   7.821   4.687   6.937 -0.2278  0.2296  0.3856
28230SOL    HW189247   7.740   4.648   6.905  0.4283 -0.4310 -0.5317
28230SOL    HW289248   7.847   4.632   7.011 -1.3294  1.2826  1.5987
28231SOL     OW89249   2.879   9.018   6.394 -0.3880 -0.3407 -0.0233
28231SOL    HW189250   2.947   9.051   6.452 -1.6784  1.4240  0.5904
28231SOL    HW289251   2.807   8.996   6.453 -0.7897 -1.0031 -0.7496
28232SOL     OW89252   6.561   8.104   9.249  0.1236 -0.2268  0.2269
28232SOL    HW189253   6.643   8.087   9.295  1.0867 -0.1477 -1.3580
28232SOL    HW289254   6.502   8.139   9.316  1.8482  1.1163  1.1420
28233SOL     OW89255   4.248   9.916   0.371  0.4192 -0.4789 -0.1058
28233SOL    HW189256   4.291   9.931   0.287 -0.9564 -0.8463 -0.9139
28233SOL    HW289257   4.178   9.854   0.351  0.9549 -1.7093  1.6033
28234SOL     OW89258   3.328  10.540   3.139  0.0976  0.1005 -0.0652
28234SOL    HW189259   3.314  10.612   3.200 -0.2712 -0.6203  0.7199
28234SOL    HW289260   3.240  10.513   3.112  0.2331 -0.0302 -0.3897
28235SOL     OW89261   2.962  10.660   6.815 -0.3105  0.6004  0.3472
28235SOL    HW189262   2.969  10.575   6.770  2.9708  0.1913  1.3686
28235SOL    HW289263   2.936  10.721   6.746 -3.8914 -1.2934 -0.1955
28236SOL     OW89264  11.295  11.377  10.067  0.3830  0.1041 -0.3331
28236SOL    HW189265  11.305  11.449  10.130  1.7842  0.0458 -0.4690
28236SOL    HW289266  11.364  11.391  10.003  0.1438 -0.8993 -0.8268
28237SOL     OW89267   0.381   9.766   8.443 -0.1405  0.1616 -0.2931
28237SOL    HW189268   0.299   9.787   8.488 -1.5909 -1.0961 -2.2286
28237SOL    HW289269   0.355   9.720   8.364  2.5198 -2.8056  0.3384
28238SOL     OW89270  10.285   9.344   8.685 -0.0409  0.0881 -0.5767
28238SOL    HW189271  10.326   9.295   8.613 -0.6888 -2.4782  0.6664
28238SOL    HW289272  10.192   9.325   8.677 -0.1996  0.3282  0.5235
28239SOL     OW89273  10.790   8.893   3.141 -0.3600 -0.3782  0.0163
28239SOL    HW189274  10.863   8.843   3.177  0.1907  1.2322  1.2889
28239SOL    HW289275  10.824   8.982   3.133 -1.0459 -0.2995 -2.9177
28240SOL     OW89276   1.157   0.472   0.677  0.0227  0.4751  0.1430
28240SOL    HW189277   1.229   0.517   0.633  0.4535 -1.8048 -1.6659
28240SOL    HW289278   1.195   0.443   0.760  0.9270  0.0724 -0.3964
28241SOL     OW89279   0.378   4.302   2.764  0.9716 -0.1563  0.0517
28241SOL    HW189280   0.372   4.209   2.786 -1.2266  0.1261  0.8714
28241SOL    HW289281   0.405   4.303   2.672 -0.4124 -1.6885 -0.4297
28242SOL     OW89282   3.888   2.348   9.670  0.1253 -0.1557 -0.3612
28242SOL    HW189283   3.936   2.362   9.588  0.8717 -0.6572 -0.0218
28242SOL    HW289284   3.956   2.350   9.738 -0.5891  1.1118  0.3533
28243SOL     OW89285  10.332   4.635   6.955 -0.2983  0.2998  0.4926
28243SOL    HW189286  10.391   4.697   6.997 -1.1849  1.1473  0.5263
28243SOL    HW289287  10.389   4.566   6.922  0.7158  1.1242  0.4680
28244SOL     OW89288   6.681   9.824  11.822 -0.4033  0.7240  0.6211
28244SOL    HW189289   6.740   9.751  11.842 -0.1689 -0.0936 -2.5896
28244SOL    HW289290   6.661   9.862  11.908  3.3578 -0.0466  2.0711
28245SOL     OW89291   3.674  11.443   5.468 -0.5076 -0.8333 -0.1451
28245SOL    HW189292   3.587  11.416   5.440 -0.8721  0.7928 -0.7371
28245SOL    HW289293   3.727  11.442   5.388 -0.5310  0.1118 -0.1868
28246SOL     OW89294   5.705  10.241   5.807  0.5011 -0.7964  0.0481
28246SOL    HW189295   5.795  10.266   5.784 -0.0205  0.7271 -0.4897
28246SOL    HW289296   5.714  10.186   5.885  1.8102  0.8312  1.1085
28247SOL     OW89297   4.862   3.598   5.469  0.2930  0.0581 -0.8420
28247SOL    HW189298   4.941   3.628   5.425 -0.3464  2.9574 -0.1886
28247SOL    HW289299   4.880   3.613   5.562 -1.1376  1.0889 -0.7118
28248SOL     OW89300  11.530  11.109   5.225 -0.0233 -0.1912 -0.3741
28248SOL    HW189301  11.588  11.047   5.182  1.3634 -0.2677  1.4511
28248SOL    HW289302  11.485  11.058   5.292  2.4869  0.9530  2.4058
28249SOL     OW89303   8.304   9.876   2.959 -0.3095  0.4064  0.2881
28249SOL    HW189304   8.372   9.808   2.956 -1.4819 -0.8999  1.5673
28249SOL    HW289305   8.326   9.927   3.037 -0.4633  0.3382  0.3764
28250SOL     OW89306   0.861  11.848   1.956  0.0126 -0.1965  0.3491
28250SOL    HW189307   0.861  11.940   1.984  0.0189 -0.4261  1.1227
28250SOL    HW289308   0.880  11.852   1.862 -0.8161  0.6466  0.1994
28251SOL     OW89309   0.704   8.570  11.296 -0.0591  0.0909  0.4301
28251SOL    HW189310   0.778   8.629  11.308  0.1477 -0.6701  4.1379
28251SOL    HW289311   0.744   8.487  11.272 -0.0843  0.5575 -1.3489
28252SOL     OW89312   0.583  11.140  10.246  0.6424 -0.1583 -1.0496
28252SOL    HW189313   0.654  11.095  10.201  0.7349 -1.4216  0.2993
28252SOL    HW289314   0.505  11.089  10.225  0.6777 -0.7343  0.1325
28253SOL     OW89315  11.580   9.914  10.674 -0.2149  0.0055  0.2898
28253SOL    HW189316  11.547   9.825  10.660  0.0717  0.1144 -1.1761
28253SOL    HW289317  11.550   9.937  10.762 -0.4096 -1.4874  0.6303
28254SOL     OW89318   9.734   8.816   9.489  0.6074  0.0206 -0.0903
28254SOL    HW189319   9.795   8.885   9.463  0.9285  0.8356  2.5813
28254SOL    HW289320   9.647   8.856   9.480  0.8062  1.0031  1.8135
28255SOL     OW89321  11.128   9.173  11.776  0.3486 -0.1550 -0.2788
28255SOL    HW189322  11.050   9.184  11.721 -0.6977 -0.6950  1.0666
28255SOL    HW289323  11.200   9.168  11.713 -0.9129 -1.7796 -1.6959
28256SOL     OW89324   9.264   9.680   8.282 -0.3621 -0.3757 -0.8883
28256SOL    HW189325   9.334   9.615   8.284 -0.2470 -0.2486 -0.7599
28256SOL    HW289326   9.269   9.717   8.193  0.6330  0.5993 -0.4638
28257SOL     OW89327   3.888   0.506   1.974  0.1648  0.2411  0.0051
28257SOL    HW189328   3.928   0.479   1.891 -0.2479 -0.3430 -0.0101
28257SOL    HW289329   3.824   0.438   1.993  0.3959  0.2657  0.9107
28258SOL     OW89330  11.423   2.415   2.856 -0.1835 -0.0956  0.0268
28258SOL    HW189331  11.363   2.341   2.844  1.1754 -1.2775  0.3608
28258SOL    HW289332  11.509   2.381   2.830  0.7203  0.9360  1.5461
28259SOL     OW89333   0.400  10.992   9.140  0.2817 -0.0385  0.0911
28259SOL    HW189334   0.376  10.949   9.058 -0.5597  2.3759 -1.0182
28259SOL    HW289335   0.496  11.000   9.136  0.2754 -0.2367 -0.4984
28260SOL     OW89336   6.074   4.491   1.699 -0.0677  0.6193 -0.6208
28260SOL    HW189337   6.152   4.487   1.643 -0.3222  1.2634 -1.0297
28260SOL    HW289338   6.012   4.545   1.651 -0.8177  0.0326 -0.3425
28261SOL     OW89339  11.269   2.689   5.211 -0.1915 -0.0211 -0.7460
28261SOL    HW189340  11.292   2.768   5.261 -2.4334  0.4802 -0.4140
28261SOL    HW289341  11.298   2.617   5.267 -2.4315  0.5217  1.2893
28262SOL     OW89342   6.838  11.736  11.022 -0.4031  0.3953 -0.1760
28262SOL    HW189343   6.856  11.780  11.105 -0.0750 -2.1781  1.2005
28262SOL    HW289344   6.764  11.678  11.040  0.0085 -0.6047 -1.5327
28263SOL     OW89345  11.164   2.095   7.332 -0.1334 -0.1745  0.4956
28263SOL    HW189346  11.154   2.158   7.261 -0.8025 -1.0794 -0.2378
28263SOL    HW289347  11.248   2.117   7.373 -1.8150  3.4416  2.5188
28264SOL     OW89348   5.076   4.442   6.495 -0.2675 -0.2517 -0.0957
28264SOL    HW189349   5.011   4.468   6.561  1.9843  0.4770  1.9804
28264SOL    HW289350   5.141   4.512   6.496  1.2372 -1.5497 -1.1355
28265SOL     OW89351   0.989   7.067   9.218 -0.4159  0.0791  0.4002
28265SOL    HW189352   1.062   7.018   9.179  0.3926 -1.2310  3.2994
28265SOL    HW289353   1.030   7.144   9.257 -0.6595 -0.2855  1.4050
28266SOL     OW89354  11.133   1.954  11.033 -0.6829  0.4645 -0.2164
28266SOL    HW189355  11.199   1.941  10.966  0.1564 -0.4575  0.7688
28266SOL    HW289356  11.180   1.993  11.106 -1.4191  0.6600  0.1663
28267SOL     OW89357   0.514   0.835   2.802 -0.9102 -0.2043 -0.4377
28267SOL    HW189358   0.420   0.839   2.783 -0.6262 -0.3251 -2.0154
28267SOL    HW289359   0.521   0.774   2.876 -1.9627 -1.2384 -1.1567
28268SOL     OW89360  10.241   1.432  11.917 -0.1303 -0.0770  0.2162
28268SOL    HW189361  10.219   1.386  11.998  0.7430 -2.0535 -0.5989
28268SOL    HW289362  10.330   1.404  11.897 -0.1242  0.8134 -1.1567
28269SOL     OW89363  11.794   0.145   3.891 -0.0231 -0.1233 -0.7905
28269SOL    HW189364  11.876   0.157   3.843 -0.1628 -0.2370 -1.0602
28269SOL    HW289365  11.799   0.208   3.963  0.7027 -0.7531 -0.2653
28270SOL     OW89366   7.639  10.874   2.470  0.0082  0.3005 -0.5532
28270SOL    HW189367   7.619  10.887   2.563 -0.6822 -0.0181 -0.6565
28270SOL    HW289368   7.650  10.780   2.461  1.0097  0.4129 -0.6158
28271SOL     OW89369  10.623  10.702   9.963  0.0576 -0.7987  0.3064
28271SOL    HW189370  10.662  10.786   9.941 -1.4994  0.0103  0.5088
28271SOL    HW289371  10.635  10.693  10.058  0.2926 -0.8428  0.2719
28272SOL     OW89372   9.858  11.106   0.479 -0.3540 -0.0757 -0.4796
28272SOL    HW189373   9.944  11.081   0.444  0.0886  0.8792 -0.1040
28272SOL    HW289374   9.840  11.191   0.439 -0.6659  0.1865  0.2031
28273SOL     OW89375   5.745   1.501  10.020  0.0905 -0.0482 -0.7138
28273SOL    HW189376   5.787   1.423   9.984  1.5983 -0.9289  2.5767
28273SOL    HW289377   5.760   1.495  10.114 -1.2778  3.3598 -0.1342
28274SOL     OW89378  11.943   2.429   1.143  0.1219  0.0076 -0.4851
28274SOL    HW189379  11.882   2.450   1.072 -1.2772  0.0480  0.6865
28274SOL    HW289380  11.927   2.336   1.161 -0.9949  0.4748  1.0932
28275SOL     OW89381   4.302   7.621   2.706 -0.3923 -0.0840  0.4658
28275SOL    HW189382   4.302   7.669   2.622 -3.0206  0.5639  0.7202
28275SOL    HW289383   4.393   7.597   2.721  0.6942  2.7142 -0.9379
28276SOL     OW89384   9.211   8.318   1.847  0.4678  0.3200  0.0780
28276SOL    HW189385   9.263   8.243   1.876 -1.4333 -0.7463  0.9126
28276SOL    HW289386   9.164   8.286   1.770 -1.1333  0.2529  1.0303
28277SOL     OW89387   7.025  11.199   7.958 -0.1772 -0.2619  0.3140
28277SOL    HW189388   7.102  11.243   7.993 -1.1429 -0.2658  2.6430
28277SOL    HW289389   7.058  11.117   7.922  0.8894 -0.3296  1.3958
28278SOL     OW89390   9.392  10.390   1.909  0.4036 -0.2449 -0.5396
28278SOL    HW189391   9.378  10.341   1.991 -0.3104 -0.8130 -0.9826
28278SOL    HW289392   9.387  10.482   1.936 -1.6944 -0.3983 -0.1878
28279SOL     OW89393   1.559   9.563   5.325 -0.5851  0.0043 -0.5661
28279SOL    HW189394   1.519   9.647   5.302 -0.2720  0.7880  1.4783
28279SOL    HW289395   1.647   9.586   5.356 -0.6954 -0.9879  0.5648
28280SOL     OW89396   7.177   0.168   8.769  0.2623 -0.5782  0.0635
28280SOL    HW189397   7.103   0.165   8.708 -1.6800  1.6685  2.1280
28280SOL    HW289398   7.250   0.199   8.716 -1.5061  1.9238 -1.0666
28281SOL     OW89399   3.169   8.448  11.506  0.1449  0.3053  0.1724
28281SOL    HW189400   3.204   8.366  11.470 -1.1880 -0.3851  0.3879
28281SOL    HW289401   3.075   8.431  11.517 -0.1279  1.8193  0.3643
28282SOL     OW89402   3.203   0.167   4.531 -0.7082 -0.3546  0.3070
28282SOL    HW189403   3.131   0.194   4.589 -0.4806 -1.2418  1.0248
28282SOL    HW289404   3.269   0.235   4.543 -0.2453 -1.0253  1.9071
28283SOL     OW89405   0.212   5.189   8.068  0.3258  0.0618  0.3104
28283SOL    HW189406   0.151   5.121   8.097  0.2786 -0.1194 -0.1954
28283SOL    HW289407   0.168   5.230   7.994  0.1764  0.9249  0.8705
28284SOL     OW89408   5.815   0.220   4.752 -0.2922  0.2330 -0.2101
28284SOL    HW189409   5.786   0.216   4.843  2.0456  0.0969  0.5831
28284SOL    HW289410   5.761   0.155   4.707  1.9545 -3.6583  2.1678
28285SOL     OW89411   1.084   2.403  11.889  0.1184  0.2235 -0.4485
28285SOL    HW189412   1.168   2.447  11.903 -0.5174  0.6804  2.7428
28285SOL    HW289413   1.072   2.350  11.968 -2.4295 -0.1129 -0.9865
28286SOL     OW89414  10.076   9.609   4.028  0.1127 -0.6075  0.0910
28286SOL    HW189415  10.039   9.545   3.968  1.1672 -0.7087 -0.4833
28286SOL    HW289416  10.084   9.689   3.976 -2.1798  0.3691  1.0828
28287SOL     OW89417  12.111   5.162   3.191 -0.1643 -0.4333 -0.9302
28287SOL    HW189418  12.108   5.114   3.274  1.2549  0.8864 -0.0358
28287SOL    HW289419  12.150   5.247   3.215 -0.1289  0.1492 -2.8826
28288SOL     OW89420  10.529   2.202   0.243 -0.1680  0.3236  0.1228
28288SOL    HW189421  10.500   2.124   0.289 -3.3247  1.0938 -0.3452
28288SOL    HW289422  10.504   2.188   0.152  0.5658  1.2601 -0.2392
28289SOL     OW89423   3.769   7.411   4.222  0.2688  0.2789 -0.0168
28289SOL    HW189424   3.760   7.470   4.296 -1.6517  0.0435 -0.0223
28289SOL    HW289425   3.681   7.404   4.185  1.1399  0.3469 -2.2969
28290SOL     OW89426   1.256   3.513  10.767  0.2853  0.3847  0.2619
28290SOL    HW189427   1.282   3.590  10.716  0.3919 -0.3504 -0.8197
28290SOL    HW289428   1.313   3.443  10.735 -0.2887 -0.3092  0.7297
28291SOL     OW89429   3.649   6.089   4.205  0.3948 -0.0458 -0.4775
28291SOL    HW189430   3.661   6.030   4.130  0.9949 -0.0581 -0.3818
28291SOL    HW289431   3.579   6.049   4.256  0.1831 -0.1956 -0.8812
28292SOL     OW89432   5.975   2.253   7.611  0.0072  0.2322  0.6665
28292SOL    HW189433   5.914   2.312   7.567 -0.6698 -1.7281 -1.2421
28292SOL    HW289434   6.021   2.210   7.539 -1.3059 -3.3188  1.7256
28293SOL     OW89435   6.001   1.875   3.642  0.1060 -0.2885 -0.2657
28293SOL    HW189436   6.053   1.812   3.693  1.2338  0.6221 -0.2446
28293SOL    HW289437   6.020   1.852   3.551 -2.4838 -2.3935 -0.4061
28294SOL     OW89438   3.660   5.929   2.745 -0.8890  0.0644  0.0072
28294SOL    HW189439   3.638   5.975   2.825 -0.3375  2.0059 -0.8927
28294SOL    HW289440   3.746   5.964   2.719 -1.2975 -0.0849 -1.7155
28295SOL     OW89441   8.879  11.777   1.542 -0.3990  0.1450 -0.3906
28295SOL    HW189442   8.929  11.837   1.597 -1.0364  1.6635 -1.3938
28295SOL    HW289443   8.857  11.828   1.464 -0.3125 -1.6561 -1.6564
28296SOL     OW89444   0.651  12.058   4.260 -0.4408  0.2293 -0.2796
28296SOL    HW189445   0.730  12.070   4.314  0.6715  0.6801 -1.9369
28296SOL    HW289446   0.678  12.085   4.172 -1.5275 -2.6797 -1.6024
28297SOL     OW89447   9.998   7.976   2.086 -0.3894  0.2930 -0.2259
28297SOL    HW189448  10.091   7.972   2.109 -0.6313  0.9487  0.9573
28297SOL    HW289449   9.994   7.946   1.995  1.0061  0.5102 -0.3731
28298SOL     OW89450   1.343   3.633   9.571 -0.2582  0.4298 -0.0445
28298SOL    HW189451   1.400   3.566   9.534  0.3094  1.0276 -0.2632
28298SOL    HW289452   1.390   3.715   9.558 -1.0468  0.9046  0.0047
28299SOL     OW89453   0.949   5.377   3.992 -0.1834 -0.3019  0.1727
28299SOL    HW189454   0.976   5.469   3.988  1.6535 -0.7687  0.7177
28299SOL    HW289455   0.994   5.342   4.069 -1.4684 -1.4863  0.4268
28300SOL     OW89456   6.946   0.514   6.456 -0.4180  0.9089  0.3515
28300SOL    HW189457   6.873   0.513   6.395 -0.6929  0.0319  0.6851
28300SOL    HW289458   7.015   0.464   6.412 -0.0003  1.7493  0.0288
28301SOL     OW89459  11.895   4.335   6.795 -0.1481 -0.0244 -0.2285
28301SOL    HW189460  11.990   4.333   6.794 -0.1530 -0.5541 -0.1260
28301SOL    HW289461  11.872   4.425   6.773  0.4231  0.7121  1.9342
28302SOL     OW89462   1.435   3.348  11.009 -0.0521  0.0950  0.2115
28302SOL    HW189463   1.424   3.348  10.914 -0.7828  0.2949  0.2908
28302SOL    HW289464   1.437   3.255  11.033 -0.1014  0.0443  0.0199
28303SOL     OW89465   8.809   7.555   3.588 -0.2182 -0.2326 -0.3881
28303SOL    HW189466   8.718   7.531   3.569  0.3130 -0.9964 -2.1078
28303SOL    HW289467   8.834   7.613   3.516  1.1091 -1.2109 -0.7486
28304SOL     OW89468   4.682   3.367   5.389  0.3786 -0.5762  0.4707
28304SOL    HW189469   4.719   3.368   5.300  0.0614  0.8934  0.3430
28304SOL    HW289470   4.746   3.413   5.442 -1.5908  2.9555  0.0622
28305SOL     OW89471   7.931   7.879   0.231 -0.0910  0.8249 -0.1926
28305SOL    HW189472   7.860   7.897   0.293  0.0487 -2.6976  1.2361
28305SOL    HW289473   7.890   7.828   0.162  1.0716 -2.4541  1.3277
28306SOL     OW89474   8.285   2.469   5.438  0.7491  0.6916  0.0830
28306SOL    HW189475   8.229   2.443   5.511  0.6000  1.5405  0.2899
28306SOL    HW289476   8.224   2.499   5.371  0.8354 -1.0823 -0.8205
28307SOL     OW89477   4.030   1.162   9.642  0.7447 -0.0565  0.0902
28307SOL    HW189478   3.947   1.176   9.687  0.7131 -0.2940  0.1026
28307SOL    HW289479   4.006   1.122   9.558  0.7872  0.5339 -0.2141
28308SOL     OW89480   2.585   3.685   4.209 -0.3677 -0.2890  0.1026
28308SOL    HW189481   2.535   3.736   4.273 -0.1037  0.7771 -0.5144
28308SOL    HW289482   2.564   3.725   4.125  0.8091 -0.3915 -0.2628
28309SOL     OW89483   7.600   5.776   2.737  0.2071  0.2159  0.4017
28309SOL    HW189484   7.564   5.755   2.651  1.6394  0.7572 -0.3679
28309SOL    HW289485   7.528   5.818   2.784 -0.9448 -1.1397 -0.0857
28310SOL     OW89486   0.386   0.845   0.631 -0.4735 -0.2149  0.4689
28310SOL    HW189487   0.320   0.893   0.682 -0.2252 -0.3640  0.9268
28310SOL    HW289488   0.466   0.897   0.641 -0.5221 -0.0214 -0.1065
28311SOL     OW89489   8.492   2.026   3.452  0.1223  0.6291 -0.6125
28311SOL    HW189490   8.562   1.966   3.427  0.4298 -0.0459  1.6557
28311SOL    HW289491   8.412   1.973   3.448  0.3159  0.1854  0.7929
28312SOL     OW89492   5.078   0.497   1.493  0.2343  0.1003 -0.0331
28312SOL    HW189493   5.171   0.517   1.483  0.0557  2.1326  1.7345
28312SOL    HW289494   5.033   0.575   1.461 -0.8841 -0.6548 -0.3866
28313SOL     OW89495   4.484  11.155   6.197  0.6812 -0.0878  0.3285
28313SOL    HW189496   4.422  11.188   6.131  2.8521 -0.2256 -1.8918
28313SOL    HW289497   4.518  11.235   6.239  0.7106  0.1202 -0.0823
28314SOL     OW89498   0.714   3.990   2.315 -0.3542  0.4812 -0.4219
28314SOL    HW189499   0.750   3.903   2.296  1.2023  0.2558  2.9190
28314SOL    HW289500   0.788   4.049   2.305 -0.6198  0.9586  0.3654
28315SOL     OW89501   9.147   6.377   4.871 -0.3409  0.8299  0.0053
28315SOL    HW189502   9.202   6.313   4.827 -1.2542  0.0664 -0.0397
28315SOL    HW289503   9.180   6.462   4.840  1.6318  0.4686  0.9598
28316SOL     OW89504   7.199   8.627   2.956 -0.3286  0.2927 -0.0386
28316SOL    HW189505   7.294   8.622   2.965 -0.3571 -1.8580 -0.5009
28316SOL    HW289506   7.166   8.637   3.045  0.3079  1.1729  0.1114
28317SOL     OW89507   4.989   0.976   8.346  0.7886 -0.1561  0.1601
28317SOL    HW189508   4.901   1.001   8.373  0.6632 -1.0210  0.6002
28317SOL    HW289509   5.007   1.030   8.269 -0.0689  0.1272  0.1476
28318SOL     OW89510   2.712   9.094   6.672  0.0513 -0.2605 -0.1487
28318SOL    HW189511   2.739   9.123   6.759 -0.9346 -1.1440  0.4721
28318SOL    HW289512   2.634   9.040   6.687 -0.1577 -0.4063 -1.5813
28319SOL     OW89513   1.218   6.538   9.345 -0.6568 -0.1078 -0.4578
28319SOL    HW189514   1.261   6.459   9.379  0.7699  0.8361  0.0235
28319SOL    HW289515   1.162   6.567   9.416  1.1749  1.0098  0.6081
28320SOL     OW89516   8.355   3.851   6.775  0.0968  0.1116 -0.0078
28320SOL    HW189517   8.328   3.881   6.688 -0.7728 -1.8163 -0.4629
28320SOL    HW289518   8.290   3.890   6.834 -2.2126 -2.2335 -0.7921
28321SOL     OW89519   6.268   8.642   8.505  0.1530  0.5417  1.0393
28321SOL    HW189520   6.338   8.651   8.569  0.6426  0.1374  0.5757
28321SOL    HW289521   6.215   8.568   8.537  0.3574  0.3855  1.0196
28322SOL     OW89522   6.774   1.753   8.738  0.4049 -0.2936 -0.4928
28322SOL    HW189523   6.753   1.680   8.797  0.2024 -1.2032 -1.6502
28322SOL    HW289524   6.731   1.730   8.656  0.0233  1.3369 -0.7699
28323SOL     OW89525   0.629   2.631   7.398 -0.4313 -0.1447 -0.6596
28323SOL    HW189526   0.673   2.658   7.479 -1.4581  1.7919 -0.6769
28323SOL    HW289527   0.568   2.563   7.426  1.2339 -1.5806 -0.3426
28324SOL     OW89528   2.826   7.715   7.833  0.5429  1.0947  0.0690
28324SOL    HW189529   2.775   7.657   7.890  1.3161  0.3602  0.0375
28324SOL    HW289530   2.761   7.761   7.781 -0.0873 -0.8983 -1.0288
28325SOL     OW89531   8.005   9.561   8.586  0.2970 -0.0254 -0.2862
28325SOL    HW189532   8.044   9.570   8.499 -1.5095 -0.9628 -1.2466
28325SOL    HW289533   7.961   9.645   8.601  1.4256  0.5051  0.1885
28326SOL     OW89534   0.701   6.041  10.401  0.0471 -0.2814  0.5894
28326SOL    HW189535   0.659   6.113  10.355  0.3818 -0.0119  0.6956
28326SOL    HW289536   0.768   6.083  10.455 -0.5461 -0.5573  1.5685
28327SOL     OW89537   7.268   0.255   0.507 -0.6865  1.0992 -0.2700
28327SOL    HW189538   7.191   0.221   0.554 -0.1955 -0.7855 -0.7366
28327SOL    HW289539   7.246   0.244   0.415  0.7503 -1.0598 -0.4185
28328SOL     OW89540   9.743   5.580  10.918 -0.1284  0.2199 -0.3946
28328SOL    HW189541   9.829   5.620  10.928 -0.2921  0.4386  0.1742
28328SOL    HW289542   9.752   5.493  10.956 -0.2290  0.3456 -0.0756
28329SOL     OW89543   0.477   3.010   0.884  0.0332 -0.0140  0.1376
28329SOL    HW189544   0.444   2.985   0.970 -2.2603 -0.2811 -0.7504
28329SOL    HW289545   0.424   3.085   0.858 -0.5235 -0.9749 -1.7114
28330SOL     OW89546  11.182   0.815   4.456 -0.8044 -0.4152  0.0750
28330SOL    HW189547  11.268   0.791   4.490 -0.6893 -1.0669 -0.6471
28330SOL    HW289548  11.148   0.878   4.519 -0.4332 -1.2894  1.1775
28331SOL     OW89549  11.402   3.866   9.870 -0.2785 -0.4684  0.3844
28331SOL    HW189550  11.425   3.846   9.779  0.6714 -0.6933  0.6628
28331SOL    HW289551  11.339   3.937   9.863  0.3895  0.0706 -0.4264
28332SOL     OW89552   1.896   4.715   5.623 -0.3940  0.6619 -0.0758
28332SOL    HW189553   1.889   4.638   5.566  0.7461  0.4500  0.0316
28332SOL    HW289554   1.990   4.724   5.638 -0.5738  1.6250  0.5452
28333SOL     OW89555   8.033   9.870   1.245  0.2839 -0.0758  0.0238
28333SOL    HW189556   7.986   9.825   1.174  0.3818  1.3705 -1.0066
28333SOL    HW289557   7.972   9.937   1.276  0.5211 -0.2183  0.8063
28334SOL     OW89558   3.260   6.198   4.874  0.1665  0.2535  0.1420
28334SOL    HW189559   3.249   6.222   4.966 -0.7051  1.7697 -0.3399
28334SOL    HW289560   3.177   6.158   4.849  0.9331 -1.6546  0.3943
28335SOL     OW89561   9.082   9.727   0.921 -0.1669  0.2952 -0.0944
28335SOL    HW189562   9.137   9.660   0.881 -0.5976 -0.0752 -0.0790
28335SOL    HW289563   9.004   9.729   0.866 -0.8986 -0.4304  0.8736
28336SOL     OW89564   8.242   9.385  10.804  0.2454  0.1635  0.5503
28336SOL    HW189565   8.280   9.433  10.731 -0.9494  3.2628  1.7562
28336SOL    HW289566   8.248   9.446  10.878 -2.7823 -0.9300  1.8750
28337SOL     OW89567   0.535   9.770   4.159 -0.2423 -0.0614  0.2453
28337SOL    HW189568   0.567   9.857   4.135  0.9900 -0.3967  0.6140
28337SOL    HW289569   0.441   9.782   4.170 -0.2510  0.9988 -0.7219
28338SOL     OW89570   4.571  11.214   5.094 -0.1332 -0.4346 -0.3617
28338SOL    HW189571   4.644  11.221   5.033  0.4229 -0.9631  0.2322
28338SOL    HW289572   4.497  11.184   5.040  0.2319 -0.4614 -0.8544
28339SOL     OW89573  10.886   8.526   3.718  0.3077 -0.1050  0.3936
28339SOL    HW189574  10.901   8.533   3.624  0.8010 -0.3995  0.4493
28339SOL    HW289575  10.950   8.461   3.748  0.6466  0.5272  1.0549
28340SOL     OW89576   4.558   0.990   6.557  0.1709 -0.3364  0.1878
28340SOL    HW189577   4.576   1.081   6.532 -1.4784  0.0968  0.4610
28340SOL    HW289578   4.608   0.977   6.638  1.0028  0.0827 -0.2508
28341SOL     OW89579   3.255   3.357   3.603  0.0621  0.5706 -0.2432
28341SOL    HW189580   3.249   3.265   3.579 -1.3381  0.9704 -1.5781
28341SOL    HW289581   3.171   3.377   3.644  0.5710  1.1285  0.5620
28342SOL     OW89582   9.934   3.147   0.453  0.0743 -0.4735 -0.1613
28342SOL    HW189583   9.941   3.054   0.473  0.2050 -0.2905  0.6834
28342SOL    HW289584   9.991   3.190   0.518 -0.3636  0.2255 -0.2269
28343SOL     OW89585   5.032   4.860   8.906 -0.1655 -0.2429  0.1239
28343SOL    HW189586   5.070   4.947   8.899  0.6619 -0.7039 -1.5258
28343SOL    HW289587   5.092   4.813   8.965 -0.8437  0.3790  1.3599
28344SOL     OW89588  11.661   8.945   3.659  0.4840  0.3044  0.3516
28344SOL    HW189589  11.615   8.988   3.731  1.1695  0.9926  0.3941
28344SOL    HW289590  11.592   8.908   3.604 -0.0378 -0.5162  1.5349
28345SOL     OW89591  11.184   3.352   7.033  0.3880 -0.3789  0.4943
28345SOL    HW189592  11.161   3.389   7.118  2.2218  0.8756  0.5017
28345SOL    HW289593  11.256   3.407   7.001  2.3899 -3.1400 -0.1180
28346SOL     OW89594   8.671   8.246   0.954  0.3923 -0.0469  0.6025
28346SOL    HW189595   8.675   8.259   1.049  0.4978 -1.7455  0.8491
28346SOL    HW289596   8.589   8.199   0.939  1.3648 -1.6481  0.1052
28347SOL     OW89597   7.489  10.450   7.971  0.1411  0.4791 -0.3044
28347SOL    HW189598   7.417  10.439   8.033  0.9396  1.2398  0.7961
28347SOL    HW289599   7.495  10.545   7.958  1.6718  0.5435  0.5624
28348SOL     OW89600   8.176   3.823   5.487  0.2483 -0.1690  0.3519
28348SOL    HW189601   8.267   3.851   5.493  0.1193  0.1022  1.2684
28348SOL    HW289602   8.172   3.772   5.406  1.3493 -0.7033  0.6103
28349SOL     OW89603   3.784   1.943  10.393  0.8386 -0.2991 -0.0189
28349SOL    HW189604   3.750   2.010  10.333  1.5893 -0.2610 -0.4133
28349SOL    HW289605   3.780   1.985  10.479  0.0208 -0.2514 -0.0647
28350SOL     OW89606   7.519   5.369  11.827 -0.7620 -0.4686 -0.2240
28350SOL    HW189607   7.522   5.459  11.793 -1.7192  0.0753  1.0335
28350SOL    HW289608   7.604   5.356  11.868 -1.4354  0.8086  1.7393
28351SOL     OW89609   1.668   9.473   8.674 -0.4334  0.8870 -0.4845
28351SOL    HW189610   1.739   9.430   8.722 -0.5948  1.2023  0.0449
28351SOL    HW289611   1.592   9.464   8.731 -1.0564 -0.2635 -1.4591
28352SOL     OW89612   4.907   3.005   2.404 -0.0523  0.0109  0.3785
28352SOL    HW189613   4.885   3.097   2.419  0.6454 -0.0521  2.0179
28352SOL    HW289614   4.965   3.006   2.329 -1.5052  0.6878 -0.7942
28353SOL     OW89615   9.576   7.096  11.097  0.2347 -0.4323 -0.5426
28353SOL    HW189616   9.558   7.020  11.042  1.3125 -0.6491 -0.6104
28353SOL    HW289617   9.495   7.109  11.146 -0.2453 -1.1137 -1.1307
28354SOL     OW89618   8.485   6.422   9.404  0.3993 -0.6513 -0.5988
28354SOL    HW189619   8.415   6.369   9.441 -0.3674  0.4224 -0.4376
28354SOL    HW289620   8.560   6.407   9.461 -0.4396  0.1069  0.7622
28355SOL     OW89621   4.375  11.789   9.423 -0.2240 -0.3517 -0.1630
28355SOL    HW189622   4.385  11.776   9.328 -2.3410  0.2115 -0.5116
28355SOL    HW289623   4.299  11.737   9.447 -1.3592  1.5800  0.6862
28356SOL     OW89624   3.022  11.630   6.584 -0.0708  0.4675  0.2952
28356SOL    HW189625   2.950  11.643   6.645 -3.8104 -3.9979 -2.4972
28356SOL    HW289626   3.075  11.561   6.624  1.6434  2.3148  1.3933
28357SOL     OW89627   9.829   3.430   0.476  0.5831 -0.1068  0.0292
28357SOL    HW189628   9.815   3.468   0.390  1.4809 -0.2668 -0.1974
28357SOL    HW289629   9.845   3.337   0.458 -0.0887 -0.3072  0.4451
28358SOL     OW89630   5.158  11.037   2.355  0.5204 -0.7253 -0.6592
28358SOL    HW189631   5.176  11.110   2.415 -0.6696 -1.6905  0.9562
28358SOL    HW289632   5.135  11.080   2.272 -1.4646  0.8411  0.5934
28359SOL     OW89633   8.397   7.725  10.973  0.1697 -0.2097 -0.1162
28359SOL    HW189634   8.440   7.655  10.924 -0.9550 -0.9368 -0.0970
28359SOL    HW289635   8.307   7.727  10.938 -0.0304  0.7089  0.4174
28360SOL     OW89636   5.329  10.769   7.578  0.0963  0.1502 -0.0805
28360SOL    HW189637   5.392  10.824   7.623 -0.9688  1.4777 -0.1508
28360SOL    HW289638   5.301  10.821   7.502 -0.2932 -0.8496 -0.6484
28361SOL     OW89639  11.605   8.941   9.869  0.1667 -0.2669  0.3638
28361SOL    HW189640  11.582   9.031   9.894 -0.4517 -0.8108  1.8913
28361SOL    HW289641  11.544   8.918   9.800 -0.2905  0.1828  0.6127
28362SOL     OW89642   1.814   8.274   4.827 -0.4085  0.5365  0.4444
28362SOL    HW189643   1.800   8.337   4.757 -0.3693 -0.1343 -0.1756
28362SOL    HW289644   1.901   8.294   4.861 -0.5816  1.1044  0.5606
28363SOL     OW89645   9.263   4.950  11.384 -0.2195  0.0485 -0.0572
28363SOL    HW189646   9.236   4.946  11.476 -0.0683  0.3050 -0.0007
28363SOL    HW289647   9.322   4.875  11.374  0.2701  0.3879  0.2253
28364SOL     OW89648   6.729   1.803   4.428  0.3867 -0.2262  0.1844
28364SOL    HW189649   6.819   1.830   4.449  0.5894 -0.5028 -0.2949
28364SOL    HW289650   6.723   1.713   4.460  0.0469  0.0264  0.8488
28365SOL     OW89651  11.155   9.525  10.609  0.2594 -0.3421 -0.3785
28365SOL    HW189652  11.170   9.612  10.647  2.9224 -0.7395 -0.3155
28365SOL    HW289653  11.181   9.534  10.518  0.7434 -1.1147 -0.3254
28366SOL     OW89654   5.297  10.916   8.696  0.2540 -0.2937 -0.3527
28366SOL    HW189655   5.256  11.001   8.685  1.2173  0.1709 -0.4756
28366SOL    HW289656   5.383  10.935   8.733  0.0809 -1.2930  0.6234
28367SOL     OW89657   6.896  11.856  11.258 -0.0248  0.1896  0.5356
28367SOL    HW189658   6.917  11.833  11.349  2.1412 -0.0027  0.0548
28367SOL    HW289659   6.877  11.950  11.261  0.1278  0.2091  1.1651
28368SOL     OW89660   9.131   8.013   2.889  0.1436  0.5105 -0.0874
28368SOL    HW189661   9.180   8.011   2.807  0.3177 -2.1001  0.0077
28368SOL    HW289662   9.122   7.921   2.914 -0.8715  1.1775  2.2558
28369SOL     OW89663   5.558   4.239  10.612  0.0829  0.1316  0.1261
28369SOL    HW189664   5.562   4.151  10.574  0.2492  0.3581 -0.3833
28369SOL    HW289665   5.551   4.224  10.707 -0.0159 -0.4297  0.0303
28370SOL     OW89666   8.566  11.984   6.994  0.2244 -0.1325  0.0014
28370SOL    HW189667   8.571  11.980   7.089 -0.6349  1.0880  0.1088
28370SOL    HW289668   8.658  11.988   6.965  0.4691  0.1272  0.8070
28371SOL     OW89669   8.648   4.259   3.706 -0.2757  0.1488 -0.7720
28371SOL    HW189670   8.735   4.282   3.673 -0.0341 -0.7273 -0.7751
28371SOL    HW289671   8.594   4.335   3.685  0.8912  1.5207  0.8771
28372SOL     OW89672   4.873   6.921   7.081 -0.3128  0.1822 -0.6176
28372SOL    HW189673   4.835   7.009   7.079 -0.8692 -0.0435 -0.1049
28372SOL    HW289674   4.941   6.923   7.014  0.9619  1.6097  0.6232
28373SOL     OW89675   7.110  10.318   6.907  0.5264  0.6082  0.2942
28373SOL    HW189676   7.078  10.315   6.817  1.4283  1.4098 -0.0587
28373SOL    HW289677   7.174  10.388   6.908  0.9439  0.2321  1.4334
28374SOL     OW89678   1.502   6.642  11.431 -0.5120  0.2369  0.6773
28374SOL    HW189679   1.489   6.708  11.499  0.6551  0.1880  0.9771
28374SOL    HW289680   1.597   6.633  11.425 -0.5890  0.4108 -1.1412
28375SOL     OW89681   5.858  11.830   1.042 -0.0087 -0.2070  0.2924
28375SOL    HW189682   5.945  11.802   1.016 -0.8826 -1.5876 -1.3029
28375SOL    HW289683   5.825  11.880   0.968 -1.3914 -1.6226 -0.1140
28376SOL     OW89684   4.447  10.549   8.180 -0.4547 -0.0459  0.2846
28376SOL    HW189685   4.508  10.514   8.246 -0.5267 -0.4779  0.1238
28376SOL    HW289686   4.422  10.473   8.128 -0.1586  0.3517 -0.4407
28377SOL     OW89687   3.846  11.593   0.076 -0.3729 -0.2144 -0.4166
28377SOL    HW189688   3.829  11.636   0.160 -0.9416 -2.1816  0.5425
28377SOL    HW289689   3.832  11.500   0.094  0.9554 -0.8412 -2.3376
28378SOL     OW89690   1.982   1.509   0.816 -0.7296 -0.3460 -0.0549
28378SOL    HW189691   1.920   1.438   0.796 -0.8003 -0.7023  1.3730
28378SOL    HW289692   1.996   1.503   0.910  1.1568  0.0109 -0.2781
28379SOL     OW89693   8.155   0.037   9.350  0.3437  0.3934  0.0061
28379SOL    HW189694   8.128  -0.031   9.288  2.3370 -0.4944  0.0201
28379SOL    HW289695   8.109   0.116   9.322  0.4644 -0.2068 -2.0119
28380SOL     OW89696   6.243   6.740   5.720 -0.3651  0.0113 -0.8952
28380SOL    HW189697   6.323   6.707   5.679  0.5231 -0.9152  1.4547
28380SOL    HW289698   6.241   6.833   5.696  0.0600 -0.4537 -2.9963
28381SOL     OW89699   5.915   1.061   5.869 -0.5559 -0.3586  0.0706
28381SOL    HW189700   5.920   0.969   5.893  0.7777 -0.0256  1.1430
28381SOL    HW289701   5.931   1.062   5.774  1.8711 -1.0481  0.4178
28382SOL     OW89702   6.472   2.479   4.791  0.3014  0.6331  0.4036
28382SOL    HW189703   6.530   2.528   4.849 -0.2417  3.1975 -1.0463
28382SOL    HW289704   6.385   2.490   4.829  0.2068  0.6707  0.1809
28383SOL     OW89705   3.980   5.010   8.463  0.0217  0.1827  0.5929
28383SOL    HW189706   4.034   4.939   8.497 -0.4804 -0.1963  0.6038
28383SOL    HW289707   4.018   5.030   8.377 -0.2140 -0.5271  0.3123
28384SOL     OW89708   7.908  11.732   2.082 -0.3262  0.1990 -0.8268
28384SOL    HW189709   7.889  11.825   2.078 -0.7799  0.1065 -0.8792
28384SOL    HW289710   7.908  11.711   2.175 -1.6915 -0.0311 -0.8464
28385SOL     OW89711   6.034   7.804   1.600 -0.3367  0.0275  0.4417
28385SOL    HW189712   6.126   7.778   1.594 -0.5871 -1.1604  1.2502
28385SOL    HW289713   5.992   7.764   1.524 -0.0846  1.1075 -0.2809
28386SOL     OW89714   8.109  11.575   1.959 -0.6379  0.1310 -0.1493
28386SOL    HW189715   8.129  11.499   2.014  1.1686  0.2820 -0.5621
28386SOL    HW289716   8.046  11.626   2.010  2.8574  1.6547  3.0808
28387SOL     OW89717   1.012   0.103   3.492  0.0342  0.1665  0.0501
28387SOL    HW189718   0.925   0.065   3.506  0.0775  0.0571  0.0192
28387SOL    HW289719   1.065   0.031   3.461  0.8597 -0.4350  2.6495
28388SOL     OW89720   8.497   5.576   2.365 -0.3361  1.1460  0.0624
28388SOL    HW189721   8.430   5.511   2.385 -0.5520  2.0961  3.0806
28388SOL    HW289722   8.573   5.526   2.338 -1.8336 -0.0276 -2.2604
28389SOL     OW89723   1.469   7.713   3.897  0.1364 -0.5564 -0.7736
28389SOL    HW189724   1.445   7.635   3.846  0.4267 -0.4199 -1.1195
28389SOL    HW289725   1.523   7.765   3.838 -1.0194  0.4794 -0.9481
28390SOL     OW89726   9.028   6.656   1.045 -0.2459  0.1826 -0.0786
28390SOL    HW189727   9.102   6.703   1.085 -1.0174  1.6881 -0.3745
28390SOL    HW289728   8.975   6.628   1.119  0.0539  0.0382  0.0854
28391SOL     OW89729   3.101   3.545  10.986  0.6631  0.2737 -0.4700
28391SOL    HW189730   3.070   3.505  10.905 -0.0873  0.0906 -0.1089
28391SOL    HW289731   3.029   3.603  11.012  1.0962  0.6859 -0.1867
28392SOL     OW89732   4.601   6.938   3.567 -0.3941 -0.1581 -0.4050
28392SOL    HW189733   4.539   6.864   3.567  0.4341 -0.8704 -0.4158
28392SOL    HW289734   4.629   6.945   3.475  1.4567 -1.5136  0.0064
28393SOL     OW89735   3.630  10.453   0.609 -0.6821  0.3429  0.3236
28393SOL    HW189736   3.591  10.479   0.693 -0.2393 -2.1718  1.3920
28393SOL    HW289737   3.694  10.522   0.590 -1.9947  1.8495  1.1435
28394SOL     OW89738   9.145  10.459   6.209  0.2938  0.1777  0.2285
28394SOL    HW189739   9.060  10.427   6.177 -0.5049  1.7167  0.6822
28394SOL    HW289740   9.208  10.394   6.178 -1.0079 -0.8758 -0.3581
28395SOL     OW89741   0.942   8.239   6.046 -0.2916 -0.2484  0.3662
28395SOL    HW189742   0.953   8.319   6.097 -0.1941 -0.1810  0.2399
28395SOL    HW289743   1.023   8.231   5.995 -0.9510  0.4306 -0.8142
28396SOL     OW89744   8.108   4.793   0.289 -0.3370  0.3809  0.4241
28396SOL    HW189745   8.170   4.721   0.282  0.2113  0.7471  1.3338
28396SOL    HW289746   8.159   4.865   0.328 -0.6805  1.4880 -1.0707
28397SOL     OW89747   6.375   2.825   3.266  0.4000  0.4150 -0.7138
28397SOL    HW189748   6.335   2.887   3.327  4.0703  2.8303 -0.4895
28397SOL    HW289749   6.318   2.827   3.189 -1.4821  1.2902  0.6302
28398SOL     OW89750   9.689   1.317   7.827  0.2786 -0.1897  0.0475
28398SOL    HW189751   9.777   1.350   7.809 -0.6349  1.1076 -2.6175
28398SOL    HW289752   9.665   1.358   7.910  2.6860 -1.8771  1.7414
28399SOL     OW89753   9.892   2.952   7.962  0.1909  0.1332  0.2974
28399SOL    HW189754   9.860   2.874   8.007  1.7310  0.0090  1.2290
28399SOL    HW289755   9.982   2.931   7.939 -0.6483 -0.0278 -3.4221
28400SOL     OW89756   7.252   0.198   1.457  0.0582  0.1154 -0.1976
28400SOL    HW189757   7.202   0.257   1.401 -0.9382 -0.8390 -0.3410
28400SOL    HW289758   7.197   0.120   1.465  0.3242  0.0745  1.8212
28401SOL     OW89759   4.742   2.741   4.491 -0.4149  0.4325  0.0785
28401SOL    HW189760   4.773   2.831   4.504 -0.7920  0.7871 -1.2850
28401SOL    HW289761   4.646   2.749   4.490 -0.4742 -0.1081  0.6715
28402SOL     OW89762   7.095   7.638   3.172  0.2712 -0.5719 -0.0524
28402SOL    HW189763   7.105   7.619   3.265 -1.0511 -1.2163 -0.0120
28402SOL    HW289764   7.031   7.573   3.142  3.4834 -3.0510 -2.2929
28403SOL     OW89765   6.181   2.651   7.858  0.1697 -0.3509  0.4160
28403SOL    HW189766   6.267   2.688   7.837  0.0247  0.3662  1.0696
28403SOL    HW289767   6.165   2.587   7.788  0.6782  0.4028 -0.4109
28404SOL     OW89768   1.001   1.622  11.018  0.3220 -0.3795 -0.1081
28404SOL    HW189769   0.963   1.601  11.103  0.1289  0.3762 -0.0023
28404SOL    HW289770   0.936   1.590  10.955  0.1463 -0.3177  0.0420
28405SOL     OW89771   1.659   2.965   3.118  0.0727  0.3672 -0.1562
28405SOL    HW189772   1.641   2.876   3.149 -1.3959  0.2477 -1.2932
28405SOL    HW289773   1.681   3.013   3.198 -1.1628 -0.5273  0.7662
28406SOL     OW89774   2.889   4.877   6.940  0.0792 -0.7698  0.3017
28406SOL    HW189775   2.916   4.948   6.882  0.9781 -1.2258  0.1430
28406SOL    HW289776   2.971   4.841   6.974 -0.3889 -1.3306  0.8592
28407SOL     OW89777   3.478   1.276  11.121 -0.3002  0.1037  0.3189
28407SOL    HW189778   3.428   1.272  11.039 -0.6036 -1.1365  0.5480
28407SOL    HW289779   3.547   1.210  11.110 -0.9123 -0.7566  1.4163
28408SOL     OW89780   4.321  10.941   8.953  0.2260  0.1931  0.5123
28408SOL    HW189781   4.333  11.009   9.019 -2.0436  0.0174  1.1911
28408SOL    HW289782   4.334  10.985   8.869 -0.9298  1.4165  0.9545
28409SOL     OW89783   0.771   4.703  10.850 -0.5154  0.1464 -0.7085
28409SOL    HW189784   0.734   4.787  10.826 -1.4311 -0.1818 -0.4609
28409SOL    HW289785   0.774   4.653  10.768 -4.1136 -1.1585 -0.2120
28410SOL     OW89786   9.864  10.865   4.402  0.5051  0.7838  0.1737
28410SOL    HW189787   9.894  10.862   4.492  0.6638 -1.0562  0.0959
28410SOL    HW289788   9.773  10.895   4.408  0.1619 -0.3669  1.0650
28411SOL     OW89789   3.735  11.693   5.534 -0.3702 -1.3135 -0.0319
28411SOL    HW189790   3.686  11.718   5.456 -0.7844 -2.4104 -0.1352
28411SOL    HW289791   3.734  11.598   5.534 -0.4822 -1.3391  1.3713
28412SOL     OW89792   4.729  10.533   4.129 -0.3030  0.0785  0.1606
28412SOL    HW189793   4.721  10.624   4.102 -0.1646  0.2520  0.6897
28412SOL    HW289794   4.639  10.499   4.125 -0.2124 -0.0682 -1.0501
28413SOL     OW89795   8.612   5.871   6.582  0.5598 -0.5380  0.0265
28413SOL    HW189796   8.677   5.826   6.528  0.6023 -0.7287  0.2369
28413SOL    HW289797   8.538   5.810   6.586 -0.6331  0.6319 -2.1977
28414SOL     OW89798   0.853   9.372   7.226 -0.2010 -0.3819 -0.3379
28414SOL    HW189799   0.804   9.392   7.146  0.6077  1.0717 -0.5060
28414SOL    HW289800   0.846   9.452   7.278 -1.6250 -1.6522  1.5697
28415SOL     OW89801   4.420  10.330   4.475  0.6050 -0.5729  0.3682
28415SOL    HW189802   4.381  10.243   4.463  0.7148 -0.6927  0.8650
28415SOL    HW289803   4.488  10.317   4.540 -0.9937  0.3352  2.3158
28416SOL     OW89804   5.248  10.912   7.366  0.4565  0.3728 -0.1941
28416SOL    HW189805   5.316  10.968   7.327  0.9065  0.6333  0.9425
28416SOL    HW289806   5.186  10.897   7.294  0.2880  2.3750 -0.5324
28417SOL     OW89807   5.549   2.000   2.709  0.0318  0.4224 -0.0624
28417SOL    HW189808   5.624   1.994   2.769 -0.7740  0.2963  0.9614
28417SOL    HW289809   5.515   1.911   2.704 -0.3749  0.5783 -0.0978
28418SOL     OW89810   7.119   1.387   7.274 -0.0063 -0.4704 -0.8534
28418SOL    HW189811   7.095   1.442   7.349  2.7255 -1.9806  1.2981
28418SOL    HW289812   7.174   1.443   7.220 -1.3456  0.3910 -1.3641
28419SOL     OW89813  10.701   8.262   1.648  0.3054  0.1990  0.7490
28419SOL    HW189814  10.707   8.357   1.633  0.0079  0.2769  1.0906
28419SOL    HW289815  10.613   8.239   1.620 -0.5372  0.4758  2.9172
28420SOL     OW89816   6.409  11.455   9.928 -0.5218  0.7791  0.6714
28420SOL    HW189817   6.437  11.369   9.897  1.0461  1.7347 -0.7485
28420SOL    HW289818   6.314  11.455   9.914 -0.4501 -0.4464  0.0129
28421SOL     OW89819  11.743   4.192   3.385  0.2901 -0.6188  0.3684
28421SOL    HW189820  11.783   4.270   3.425  0.7686  0.2829 -1.7156
28421SOL    HW289821  11.658   4.223   3.353  0.1086 -1.1859  0.2915
28422SOL     OW89822   6.986   0.575   9.826  0.0037  0.2370 -0.4313
28422SOL    HW189823   7.027   0.586   9.740 -0.7215  0.0085 -0.8201
28422SOL    HW289824   6.893   0.587   9.809 -0.2139 -0.4681  0.1995
28423SOL     OW89825   6.782   9.768   4.662 -0.5882  0.1015 -0.0762
28423SOL    HW189826   6.858   9.717   4.689  0.0358  1.1454  0.1941
28423SOL    HW289827   6.717   9.754   4.730 -1.0278 -1.5824 -0.7953
28424SOL     OW89828   8.464   9.433   4.781 -0.2141  0.0293 -0.2040
28424SOL    HW189829   8.555   9.408   4.795 -0.6798 -2.8008 -1.5366
28424SOL    HW289830   8.462   9.472   4.694 -0.4524 -1.3139 -0.8281
28425SOL     OW89831   0.540  11.497   2.151 -0.4016 -0.3992 -0.1395
28425SOL    HW189832   0.565  11.582   2.115 -0.0938  0.2392  1.5101
28425SOL    HW289833   0.457  11.477   2.108  0.0295  0.2190 -1.3238
28426SOL     OW89834   5.827  10.531   5.846  0.0181  0.0685 -0.2728
28426SOL    HW189835   5.852  10.622   5.862 -0.6486  0.2758 -0.3783
28426SOL    HW289836   5.787  10.501   5.928 -1.8214  0.5945 -0.9195
28427SOL     OW89837   1.943  10.427   3.151 -0.1362  0.0335  0.6854
28427SOL    HW189838   1.961  10.345   3.106  2.1573  0.1671  1.2127
28427SOL    HW289839   1.848  10.433   3.154 -0.3586 -1.3099 -1.6395
28428SOL     OW89840   4.337   8.274   4.274 -0.5017  0.4402 -0.0310
28428SOL    HW189841   4.422   8.296   4.236 -0.2862 -0.6934 -0.2538
28428SOL    HW289842   4.274   8.292   4.205 -0.5827  2.2226  0.4557
28429SOL     OW89843   8.976   2.251   7.529 -0.0618 -0.2625  0.6152
28429SOL    HW189844   9.004   2.277   7.617  0.1599 -0.4571  0.6031
28429SOL    HW289845   8.963   2.334   7.483 -2.7956 -0.0411  1.6126
28430SOL     OW89846   2.287  10.937   4.315 -0.2736  0.2988  0.1509
28430SOL    HW189847   2.272  10.961   4.224 -0.3800 -0.3362 -0.0068
28430SOL    HW289848   2.237  10.856   4.327  1.1528 -0.5965  0.2644
28431SOL     OW89849   1.078   7.146   8.737  0.5372 -0.2914  0.0061
28431SOL    HW189850   1.150   7.204   8.709  0.2742 -0.1812 -0.4465
28431SOL    HW289851   1.022   7.202   8.791  1.5925 -0.7654  1.6666
28432SOL     OW89852  12.034   1.713   0.131  0.3411  0.0089  0.2678
28432SOL    HW189853  11.950   1.731   0.173  0.1667 -1.8176  0.7919
28432SOL    HW289854  12.020   1.733   0.039 -1.0395 -1.3063  0.1593
28433SOL     OW89855   8.754   7.764   3.396  0.5481  0.0867 -0.2098
28433SOL    HW189856   8.693   7.826   3.438 -0.3980 -0.2046 -1.1146
28433SOL    HW289857   8.769   7.801   3.309 -0.8222 -1.4358 -1.1427
28434SOL     OW89858   1.397   4.801   6.897  0.8611  0.1672  0.2752
28434SOL    HW189859   1.307   4.770   6.909  0.3030  1.6957  0.2492
28434SOL    HW289860   1.435   4.740   6.834  0.4456 -1.5937  1.6325
28435SOL     OW89861   5.391   8.116   1.434  0.4196  0.2206  0.3706
28435SOL    HW189862   5.426   8.049   1.375  1.9018 -0.0756  1.5308
28435SOL    HW289863   5.296   8.108   1.425  0.5846 -0.9678 -0.6835
28436SOL     OW89864  10.654  11.090   6.738  0.0793  0.1177 -0.0562
28436SOL    HW189865  10.565  11.120   6.754 -0.2317  0.1553 -1.7009
28436SOL    HW289866  10.661  11.008   6.786  0.4640  1.9460  3.3189
28437SOL     OW89867   7.190   4.709   7.096  0.0976  0.5496  0.5701
28437SOL    HW189868   7.149   4.642   7.152 -0.4370  0.4644  0.0833
28437SOL    HW289869   7.121   4.736   7.036  1.6073 -2.2119 -2.7572
28438SOL     OW89870   6.968   3.281   2.808  0.0980  0.1663  0.1407
28438SOL    HW189871   7.010   3.355   2.852  0.1590  1.1492 -1.5228
28438SOL    HW289872   6.876   3.306   2.802  0.3034  0.6617 -1.4322
28439SOL     OW89873   5.876  10.558  11.266  0.3069 -0.7032  0.1968
28439SOL    HW189874   5.823  10.550  11.345  0.8725 -0.8238  0.5729
28439SOL    HW289875   5.911  10.470  11.251  1.9482 -0.2516  1.0770
28440SOL     OW89876   3.033   0.830   4.454 -1.2483  0.1787  0.0367
28440SOL    HW189877   3.072   0.768   4.516 -2.2368  1.3852  1.9565
28440SOL    HW289878   3.073   0.914   4.476 -1.2860  0.5781 -1.3109
28441SOL     OW89879  11.691   3.365   9.928 -0.4234 -0.3621  0.1083
28441SOL    HW189880  11.765   3.385   9.986 -1.5385  0.0233  1.4465
28441SOL    HW289881  11.669   3.274   9.947  0.3136 -0.7952 -1.0184
28442SOL     OW89882   2.088   1.561   2.353  0.0045  0.4128  0.2338
28442SOL    HW189883   2.030   1.488   2.379  0.6583 -0.3249 -0.3335
28442SOL    HW289884   2.108   1.544   2.261  0.0825  1.3880  0.0626
28443SOL     OW89885   6.932   2.472   6.842 -0.0059 -0.2200  0.1274
28443SOL    HW189886   6.852   2.508   6.803  2.2074  2.6570 -2.1977
28443SOL    HW289887   6.934   2.508   6.930  0.0676  2.1237 -0.7637
28444SOL     OW89888   0.532  11.690   5.898 -0.3456 -0.1302 -0.3971
28444SOL    HW189889   0.564  11.763   5.952 -1.2373 -0.8147  1.1307
28444SOL    HW289890   0.489  11.632   5.961 -0.0901 -1.7329 -1.6558
28445SOL     OW89891   6.860  10.163   0.379 -0.2622 -0.3474 -0.1281
28445SOL    HW189892   6.820  10.099   0.437 -1.5255 -0.0841 -0.6655
28445SOL    HW289893   6.920  10.113   0.324  1.0691 -0.5762  1.4627
28446SOL     OW89894   6.827  11.674   2.359 -0.0212  0.1085  0.5165
28446SOL    HW189895   6.885  11.681   2.434  1.0090 -1.4731 -0.0777
28446SOL    HW289896   6.739  11.689   2.395  0.4738 -0.3656  1.9868
28447SOL     OW89897   7.079   3.301   4.003  0.0068  0.5428 -0.0394
28447SOL    HW189898   7.163   3.316   3.959  0.0989 -1.8222 -0.8292
28447SOL    HW289899   7.016   3.293   3.931 -0.1797 -1.4475  0.2790
28448SOL     OW89900   3.584  11.070  11.323  0.1333  0.5395  0.1216
28448SOL    HW189901   3.540  11.084  11.407 -0.4021 -0.3049 -0.0167
28448SOL    HW289902   3.539  11.129  11.262  0.3951  1.0095  0.3703
28449SOL     OW89903   3.963   8.633  10.441 -0.2001  0.4825  0.8299
28449SOL    HW189904   4.027   8.656  10.373 -0.1461 -1.0674  0.3145
28449SOL    HW289905   3.978   8.540  10.458 -1.5064  0.3827  1.5942
28450SOL     OW89906  11.817   2.795   5.392 -0.2499 -0.0472 -0.2381
28450SOL    HW189907  11.816   2.817   5.485  0.4823 -0.5151 -0.1084
28450SOL    HW289908  11.897   2.836   5.359 -0.1345 -0.4860 -0.5065
28451SOL     OW89909  11.411   1.570  11.073 -0.1871  0.0664 -0.9331
28451SOL    HW189910  11.465   1.636  11.029 -1.2585  1.2959 -0.4972
28451SOL    HW289911  11.470   1.498  11.092  1.1686  1.1326 -0.9694
28452SOL     OW89912  10.825  10.313   8.347 -0.6875 -0.7131 -0.2073
28452SOL    HW189913  10.767  10.379   8.384 -1.4509 -0.9680 -0.9189
28452SOL    HW289914  10.779  10.231   8.359  0.3205 -1.1601  0.7935
28453SOL     OW89915   9.636  10.366  11.500  0.9411  0.2172 -0.2897
28453SOL    HW189916   9.725  10.401  11.493  0.7317  1.4831  2.2371
28453SOL    HW289917   9.649  10.275  11.529  1.4045 -0.1304 -1.5341
28454SOL     OW89918   4.178   2.329  10.437 -0.1460  0.2679 -0.3075
28454SOL    HW189919   4.170   2.241  10.399  0.1246 -0.1463  0.5765
28454SOL    HW289920   4.188   2.314  10.531  0.2719  1.2310 -0.1864
28455SOL     OW89921   4.212   0.569   1.134 -0.5486  0.3621  0.0376
28455SOL    HW189922   4.238   0.558   1.225  0.5990  2.1669 -0.0175
28455SOL    HW289923   4.295   0.563   1.085 -1.0378  0.2556 -0.7905
28456SOL     OW89924   1.826   9.611   9.314  0.5972  0.4444 -0.8365
28456SOL    HW189925   1.854   9.670   9.384 -1.4632 -0.4362  0.8358
28456SOL    HW289926   1.899   9.551   9.303 -0.0854 -1.3614  2.8752
28457SOL     OW89927   9.330   1.524   6.144  0.4474 -0.1877 -0.1645
28457SOL    HW189928   9.246   1.494   6.181 -0.4877  0.9619 -1.2601
28457SOL    HW289929   9.331   1.618   6.162  0.8052  0.0643 -1.4447
28458SOL     OW89930  10.617   1.983   5.429  0.7939  0.3255  0.2115
28458SOL    HW189931  10.588   1.893   5.416  1.2770  0.4763 -2.5341
28458SOL    HW289932  10.537   2.035   5.429  0.5922  0.0175  0.5793
28459SOL     OW89933   5.724  10.508  11.586  0.2973  0.5180  0.5079
28459SOL    HW189934   5.783  10.584  11.587  2.4293 -1.0215 -0.3760
28459SOL    HW289935   5.781  10.433  11.605 -1.6441 -0.9423  0.8930
28460SOL     OW89936   7.363   9.142   3.314 -0.5446 -0.5848  0.2578
28460SOL    HW189937   7.286   9.085   3.319 -0.5289 -0.4920  3.6916
28460SOL    HW289938   7.433   9.086   3.279 -2.1590 -0.4471 -3.7974
28461SOL     OW89939  10.419  10.157   5.167 -0.2379  0.0975  0.0048
28461SOL    HW189940  10.436  10.065   5.183 -3.3787 -0.6216 -0.1884
28461SOL    HW289941  10.447  10.171   5.076  0.0683 -0.7083 -0.0329
28462SOL     OW89942   4.918  11.172   2.582 -0.0429 -0.0870  0.2412
28462SOL    HW189943   4.916  11.087   2.537 -0.2198  0.4444 -0.7930
28462SOL    HW289944   4.962  11.230   2.520  1.0487  0.3440  1.3741
28463SOL     OW89945   6.627   4.764   8.742  0.0172 -0.1775  0.0521
28463SOL    HW189946   6.707   4.814   8.727  0.7510 -1.2204  0.3680
28463SOL    HW289947   6.653   4.695   8.803 -1.4997  0.4402  1.4951
28464SOL     OW89948  11.517   1.582  11.937  0.0437  0.0880 -0.2490
28464SOL    HW189949  11.587   1.647  11.930  0.3246 -0.2465 -0.5682
28464SOL    HW289950  11.557   1.509  11.983 -0.1353 -0.0462 -0.3071
28465SOL     OW89951   8.604   2.603   1.958  0.0578 -0.0223  0.7050
28465SOL    HW189952   8.594   2.508   1.944 -0.3229  0.1548 -0.3560
28465SOL    HW289953   8.690   2.623   1.920 -0.4625  0.2744 -0.3448
28466SOL     OW89954   9.554   9.524   2.142  0.0127  0.7260 -0.2072
28466SOL    HW189955   9.468   9.494   2.113  0.8233 -0.4253 -1.5412
28466SOL    HW289956   9.557   9.617   2.118 -0.9727  0.8746  0.1970
28467SOL     OW89957   1.815   5.949   2.906 -0.4272  0.2264 -0.9142
28467SOL    HW189958   1.762   5.873   2.931  1.2573 -1.0953 -1.1744
28467SOL    HW289959   1.852   5.926   2.820 -0.7037  1.8053 -1.4974
28468SOL     OW89960   3.322   7.797   8.682 -0.5318  0.0272 -0.3048
28468SOL    HW189961   3.407   7.841   8.686 -0.7458  0.4323 -0.1877
28468SOL    HW289962   3.266   7.859   8.635 -1.0928  0.3038  0.7032
28469SOL     OW89963  10.382   8.452   7.671  0.4028 -0.5838 -0.2344
28469SOL    HW189964  10.380   8.379   7.610 -0.2319 -1.0427  0.3221
28469SOL    HW289965  10.460   8.503   7.646 -0.5351 -0.0344 -2.2514
28470SOL     OW89966   5.722   0.407   8.694  0.8202 -0.5096  0.3577
28470SOL    HW189967   5.661   0.387   8.765 -0.1682 -0.5209 -0.4653
28470SOL    HW289968   5.795   0.453   8.736 -0.2883  0.5229  1.2070
28471SOL     OW89969  11.217   1.346   0.654 -0.1226 -0.3612  0.0638
28471SOL    HW189970  11.158   1.338   0.579  0.5957  0.7102 -0.6460
28471SOL    HW289971  11.302   1.367   0.614 -0.1021  2.0757  1.2613
28472SOL     OW89972   3.644   6.470   9.486 -0.0268  0.4838  0.1612
28472SOL    HW189973   3.575   6.513   9.435 -0.6948 -0.9246 -0.1797
28472SOL    HW289974   3.619   6.378   9.488  1.6679 -0.0150  0.3481
28473SOL     OW89975  10.416   0.360   8.715 -0.1589  0.7702  0.1666
28473SOL    HW189976  10.337   0.394   8.759 -0.0438  1.4700 -0.1561
28473SOL    HW289977  10.395   0.269   8.696 -1.5015  1.3214 -1.2413
28474SOL     OW89978   1.345   3.440   2.817 -0.6179  0.4922  0.3625
28474SOL    HW189979   1.412   3.385   2.859  0.6715 -0.0355 -2.2129
28474SOL    HW289980   1.381   3.528   2.822 -0.6542  0.4888  0.7002
28475SOL     OW89981   5.144   6.478   4.887 -0.4522  0.1902  0.3195
28475SOL    HW189982   5.160   6.541   4.817 -0.1434 -1.1634 -0.8782
28475SOL    HW289983   5.122   6.396   4.841 -1.2644 -0.4753  1.8183
28476SOL     OW89984   6.177   0.593  11.400 -0.0572  0.1628  0.1129
28476SOL    HW189985   6.152   0.502  11.416 -1.1010  0.6125  1.2038
28476SOL    HW289986   6.136   0.615  11.316 -0.3398 -0.1855  0.1587
28477SOL     OW89987  11.114   3.457   9.463 -0.3275  0.8485 -0.1398
28477SOL    HW189988  11.198   3.447   9.417 -0.6150  2.7285 -1.1752
28477SOL    HW289989  11.103   3.374   9.509  1.0372 -0.3183 -1.7348
28478SOL     OW89990   1.829   1.496   1.365 -0.0903  0.5090 -0.3254
28478SOL    HW189991   1.843   1.512   1.458  2.6078 -1.3504 -0.3020
28478SOL    HW289992   1.783   1.412   1.362 -0.0145  0.4781 -0.6649
28479SOL     OW89993   6.307   9.367   1.826 -0.4116  0.6767 -0.5974
28479SOL    HW189994   6.379   9.430   1.821 -1.0432  1.4559 -0.2238
28479SOL    HW289995   6.350   9.282   1.836  0.4603  1.0419 -1.1271
28480SOL     OW89996   6.063   0.331   6.123 -0.3761 -0.5429  0.8231
28480SOL    HW189997   6.134   0.290   6.074  1.0891 -0.0292  2.3919
28480SOL    HW289998   6.033   0.263   6.183  1.1605  0.1461  2.5019
28481SOL     OW89999   5.710   5.558   5.813 -0.0635  0.0489  0.4768
28481SOL    HW190000   5.698   5.607   5.732  2.9698  0.7184  0.2867
28481SOL    HW290001   5.682   5.618   5.882  0.7582  0.9260  0.0781
28482SOL     OW90002   5.179   8.533   2.967 -0.2756  0.2114 -0.6143
28482SOL    HW190003   5.126   8.579   3.032  1.0421  1.0039 -0.0649
28482SOL    HW290004   5.217   8.459   3.014  0.9176  0.9547 -0.3693
28483SOL     OW90005   2.221   2.711   9.681 -0.2334  0.2060  0.0620
28483SOL    HW190006   2.289   2.719   9.748  0.6092 -1.2227 -0.5646
28483SOL    HW290007   2.202   2.617   9.677 -1.2949  0.4351 -0.7116
28484SOL     OW90008   6.819   9.378   5.659  0.2501 -0.0165  0.5448
28484SOL    HW190009   6.779   9.449   5.709 -0.1314 -0.7757  1.3534
28484SOL    HW290010   6.746   9.341   5.609  0.6002  0.6398 -0.4657
28485SOL     OW90011   1.819   1.089  11.199 -0.3221 -0.0824  0.1437
28485SOL    HW190012   1.768   1.012  11.173 -1.2978  0.5957 -0.0038
28485SOL    HW290013   1.773   1.162  11.159  0.5096  0.5984  0.4100
28486SOL     OW90014   5.144   1.638   1.795 -0.0094 -0.0404  0.2154
28486SOL    HW190015   5.053   1.618   1.816  0.3862 -0.9266  1.2124
28486SOL    HW290016   5.171   1.569   1.735 -0.0051  0.2599 -0.1331
28487SOL     OW90017   7.753  10.339  10.788 -0.0207 -0.0602  0.8553
28487SOL    HW190018   7.676  10.332  10.731 -0.2585  3.0988  0.6070
28487SOL    HW290019   7.826  10.350  10.728 -0.0883  1.9032  1.0843
28488SOL     OW90020   8.822   4.948   7.647  0.1351 -0.8301  0.1422
28488SOL    HW190021   8.828   4.985   7.735 -0.5646 -0.2611 -0.0462
28488SOL    HW290022   8.733   4.914   7.641 -0.1730  0.0729 -0.6987
28489SOL     OW90023   8.243   1.818   3.391  0.1831  0.1983 -0.0742
28489SOL    HW190024   8.272   1.831   3.301 -0.6598 -1.5187 -0.6437
28489SOL    HW290025   8.305   1.754   3.427 -0.2039 -0.0500  0.1596
28490SOL     OW90026   3.628   8.844  11.986 -0.2773 -0.2726  0.0769
28490SOL    HW190027   3.660   8.754  11.991 -3.4687 -1.4831  2.7863
28490SOL    HW290028   3.681   8.892  12.050  1.2109 -0.2412 -1.1320
28491SOL     OW90029  10.483   0.940   4.156  0.4743  0.7423 -0.2870
28491SOL    HW190030  10.488   0.875   4.085 -1.4563 -0.1741  0.3469
28491SOL    HW290031  10.557   0.918   4.213  0.1868 -0.5607 -0.3837
28492SOL     OW90032   9.488  11.121   4.504 -0.6124 -0.6954  0.5970
28492SOL    HW190033   9.453  11.205   4.477 -0.9285 -1.0426 -0.0876
28492SOL    HW290034   9.492  11.127   4.600  0.6345  0.5848  0.4983
28493SOL     OW90035  10.152   8.965   0.337  0.3214  0.1204 -0.2073
28493SOL    HW190036  10.147   8.912   0.258  1.0757  1.9500 -1.5664
28493SOL    HW290037  10.093   8.922   0.399 -1.3517 -0.6462 -2.2063
28494SOL     OW90038   6.392   2.686   0.356  0.0456 -0.0177 -0.6346
28494SOL    HW190039   6.338   2.644   0.423 -0.0761  1.7127  0.3993
28494SOL    HW290040   6.459   2.733   0.404  0.9023  0.0105 -1.8119
28495SOL     OW90041   9.607   6.923   7.946  0.0321  0.3812 -0.0362
28495SOL    HW190042   9.589   6.866   7.871 -0.2500  1.2423 -0.6370
28495SOL    HW290043   9.674   6.875   7.996  0.6667  0.0560 -1.1474
28496SOL     OW90044  12.014   0.465   0.410  0.1144  0.5915 -0.2583
28496SOL    HW190045  11.919   0.460   0.399  0.2566 -0.5260 -1.2432
28496SOL    HW290046  12.038   0.383   0.452  0.7316  0.4462 -0.8670
28497SOL     OW90047  11.328   4.784   1.588  0.7714 -0.3237 -0.0108
28497SOL    HW190048  11.244   4.786   1.633 -0.3713 -0.9837 -1.9816
28497SOL    HW290049  11.313   4.832   1.506  1.9693 -1.3810 -0.8961
28498SOL     OW90050  11.339   8.781   5.611 -0.0341  0.4559 -0.3220
28498SOL    HW190051  11.329   8.785   5.706 -1.5852  0.8230 -0.4731
28498SOL    HW290052  11.378   8.865   5.587 -0.8062  0.8775 -0.1262
28499SOL     OW90053  10.365   5.040   5.433 -0.2092  0.3151  0.2825
28499SOL    HW190054  10.441   5.046   5.491  0.8123  1.4213 -1.1365
28499SOL    HW290055  10.303   5.104   5.468  0.1449  0.5301  0.5245
28500SOL     OW90056   5.532   5.876   8.663 -0.5943 -0.2615 -0.2204
28500SOL    HW190057   5.607   5.924   8.700 -0.9787 -0.6568  1.1553
28500SOL    HW290058   5.465   5.943   8.650  0.4291  0.3572 -2.8483
28501SOL     OW90059   5.705   4.656   9.434  0.2393 -0.0422 -0.2178
28501SOL    HW190060   5.705   4.624   9.524 -0.6590 -0.3874 -0.3359
28501SOL    HW290061   5.787   4.706   9.427  0.3580 -0.0749  0.7594
28502SOL     OW90062   4.743   8.616   1.730  0.4065  0.5309  0.1846
28502SOL    HW190063   4.814   8.658   1.778  0.4194 -1.1603  1.7521
28502SOL    HW290064   4.780   8.532   1.703  0.1528  1.1343 -2.2255
28503SOL     OW90065   7.094   0.936   1.894 -0.1131  0.2630 -0.4256
28503SOL    HW190066   7.024   0.911   1.834 -0.1498 -0.7530  0.0215
28503SOL    HW290067   7.157   0.864   1.888 -0.8062 -0.6212  1.8362
28504SOL     OW90068   4.891   6.515   8.724 -0.1025 -0.9220 -0.0237
28504SOL    HW190069   4.878   6.517   8.819 -1.0904  0.2932 -0.1575
28504SOL    HW290070   4.966   6.456   8.711  2.3800  1.5688  1.7760
28505SOL     OW90071   6.422   2.451  11.906 -0.6387  0.4455  0.5022
28505SOL    HW190072   6.400   2.359  11.922  1.5622 -0.3877 -0.8190
28505SOL    HW290073   6.386   2.498  11.982 -0.0554 -1.7912  2.2861
28506SOL     OW90074   8.401   8.377  10.648 -0.3054  0.2123 -0.2561
28506SOL    HW190075   8.472   8.418  10.696 -1.3105  0.9571  0.6426
28506SOL    HW290076   8.380   8.439  10.578 -0.9239  0.6184  0.2776
28507SOL     OW90077   6.405   3.965   5.177 -0.4831  0.0934 -0.1085
28507SOL    HW190078   6.349   3.893   5.151  1.5532 -1.3166 -0.7975
28507SOL    HW290079   6.429   4.009   5.095 -0.2211  0.4137  0.1336
28508SOL     OW90080   2.442   9.176   7.414  0.1556  0.5580 -0.0157
28508SOL    HW190081   2.467   9.084   7.410 -0.0448  0.5508 -1.2008
28508SOL    HW290082   2.350   9.175   7.440  0.1628  0.4311  0.0058
28509SOL     OW90083   8.747   2.080  10.032  0.0488 -0.0891  0.5436
28509SOL    HW190084   8.722   2.148  10.095  0.7298 -0.2398  0.9915
28509SOL    HW290085   8.721   1.998  10.073 -1.2548 -0.0894 -0.2292
28510SOL     OW90086   8.145   3.807  10.358 -0.4000 -0.0281  0.6394
28510SOL    HW190087   8.226   3.756  10.368  0.4187  1.0560 -0.1982
28510SOL    HW290088   8.169   3.877  10.298 -2.4734 -0.7318 -1.1160
28511SOL     OW90089   9.738   8.064   3.287  0.1141  0.7731 -0.3820
28511SOL    HW190090   9.723   8.091   3.377  2.8677 -1.1492  0.7907
28511SOL    HW290091   9.698   8.133   3.234 -1.6643  1.9295  2.2533
28512SOL     OW90092   5.879  10.014   4.158 -0.2229  0.4537 -0.6179
28512SOL    HW190093   5.928  10.030   4.239  0.3752  0.3186 -0.9457
28512SOL    HW290094   5.830   9.934   4.175  0.3828  0.0793 -0.6000
28513SOL     OW90095   2.439   2.473   3.182 -0.2496 -0.1862  0.5416
28513SOL    HW190096   2.352   2.477   3.142 -0.6173 -1.2688  1.1665
28513SOL    HW290097   2.423   2.435   3.269  0.7577  0.3042  0.9542
28514SOL     OW90098   5.464   6.995   7.305  0.3479 -0.8064  0.2410
28514SOL    HW190099   5.368   6.990   7.296  0.2123  1.8552 -0.5769
28514SOL    HW290100   5.493   7.032   7.222  2.0214 -0.8229  0.7980
28515SOL     OW90101   0.472   0.614   2.958  0.5382 -0.2136 -0.3358
28515SOL    HW190102   0.554   0.567   2.974 -0.5600 -2.7338 -1.5671
28515SOL    HW290103   0.410   0.575   3.020 -0.5395 -0.8802 -1.7740
28516SOL     OW90104   3.684   3.117  10.552 -0.3758  0.1270  0.0816
28516SOL    HW190105   3.698   3.212  10.550  0.7611 -0.0394 -0.1527
28516SOL    HW290106   3.716   3.090  10.637 -1.3416  0.0278  0.4328
28517SOL     OW90107   7.484  11.342  10.333  0.9779  1.2394 -0.0212
28517SOL    HW190108   7.521  11.386  10.410  1.9020  2.1081 -0.9330
28517SOL    HW290109   7.391  11.362  10.337  1.1991  2.2936  0.2408
28518SOL     OW90110   9.862   5.660   7.744  0.5902 -0.2422 -0.5942
28518SOL    HW190111   9.926   5.729   7.757 -0.9622  0.9267  1.3309
28518SOL    HW290112   9.864   5.609   7.825 -0.6444 -0.4000 -0.6465
28519SOL     OW90113   1.434   9.878   9.500  0.2558 -0.1007 -0.3409
28519SOL    HW190114   1.499   9.885   9.431 -0.0025 -0.4477 -0.6200
28519SOL    HW290115   1.484   9.855   9.578  1.1355  3.9904  0.5456
28520SOL     OW90116   7.402   9.369   7.910 -0.1389  0.4067  0.4573
28520SOL    HW190117   7.488   9.411   7.917  0.2958 -0.4593  0.4568
28520SOL    HW290118   7.415   9.299   7.847 -0.9184  0.4322  0.2610
28521SOL     OW90119   6.639   9.723   8.717 -0.4041 -0.7360 -0.4422
28521SOL    HW190120   6.712   9.728   8.655 -1.5151  2.1482 -1.6883
28521SOL    HW290121   6.574   9.669   8.673 -0.7137  0.3112 -1.3019
28522SOL     OW90122   6.031   2.289   1.832 -0.0839  0.1396 -0.2655
28522SOL    HW190123   6.113   2.293   1.783 -1.2218 -0.5807 -2.3662
28522SOL    HW290124   6.034   2.204   1.878  0.5153  0.3066  0.0072
28523SOL     OW90125   3.318  10.955   3.032  0.0054 -0.0118 -0.0353
28523SOL    HW190126   3.338  11.034   2.983  0.0974  0.4853  0.7775
28523SOL    HW290127   3.292  10.986   3.119 -0.1718 -0.8597  0.2313
28524SOL     OW90128   1.297  10.950   6.760 -0.1003  0.2255 -0.3580
28524SOL    HW190129   1.269  10.917   6.675 -0.8976  1.4308 -0.5716
28524SOL    HW290130   1.347  10.877   6.798 -1.3445 -1.0244 -1.0472
28525SOL     OW90131   3.361  11.312  10.306  0.5965  0.1696  0.5437
28525SOL    HW190132   3.356  11.360  10.224 -1.6317  0.5846  0.8353
28525SOL    HW290133   3.449  11.276  10.309  0.9869  0.8402 -1.6174
28526SOL     OW90134   5.413   3.281   4.235  0.6475 -0.1313 -0.6510
28526SOL    HW190135   5.490   3.334   4.213  0.5042  1.9165  2.8469
28526SOL    HW290136   5.441   3.228   4.310 -1.0595  0.1312  0.2449
28527SOL     OW90137   4.147   7.981   1.731 -0.3095 -0.2904  0.3230
28527SOL    HW190138   4.051   7.979   1.730 -0.3060 -0.4758  0.2172
28527SOL    HW290139   4.171   8.051   1.670 -0.3682 -0.6485 -0.1157
28528SOL     OW90140   3.561   7.473   2.875  0.2215 -0.5478 -0.6867
28528SOL    HW190141   3.524   7.396   2.831  0.5918 -0.4259 -1.2229
28528SOL    HW290142   3.627   7.505   2.814  2.5838 -1.8533  1.0182
28529SOL     OW90143   2.501   1.933   4.426 -0.0416  0.5908 -0.7127
28529SOL    HW190144   2.524   1.883   4.505 -2.9505 -0.2764 -0.3015
28529SOL    HW290145   2.530   2.022   4.445  0.2990  0.1781  0.8542
28530SOL     OW90146   6.769   1.845   9.066 -0.4693 -0.1233 -0.7703
28530SOL    HW190147   6.687   1.845   9.018  0.0890 -0.7924 -1.7646
28530SOL    HW290148   6.765   1.766   9.121 -0.5992 -0.0074 -0.6118
28531SOL     OW90149   0.774   5.647   2.160 -0.4304  0.3283 -0.0785
28531SOL    HW190150   0.851   5.704   2.158 -0.0430 -0.1892 -1.5158
28531SOL    HW290151   0.731   5.663   2.076  0.2651 -2.2289 -1.0045
28532SOL     OW90152   4.633   5.890   3.996  0.2043  0.1773  0.3906
28532SOL    HW190153   4.627   5.970   3.943 -0.6546 -0.6077 -0.7510
28532SOL    HW290154   4.543   5.875   4.025  0.2654 -0.6547  0.1590
28533SOL     OW90155   6.495   0.792   0.335  0.5216 -0.4037 -0.0536
28533SOL    HW190156   6.404   0.766   0.320  0.9859 -1.6279 -0.9745
28533SOL    HW290157   6.489   0.873   0.385 -1.0546 -1.1778  1.1020
28534SOL     OW90158   2.887   1.489   6.492 -0.0552  0.2591 -0.0667
28534SOL    HW190159   2.933   1.547   6.553 -0.3306  1.1667 -0.7007
28534SOL    HW290160   2.879   1.541   6.412 -0.9725 -0.3927 -0.4028
28535SOL     OW90161   8.491   9.523   8.201  0.7753  0.6566 -0.3346
28535SOL    HW190162   8.578   9.534   8.164  1.1024 -0.4035  0.0837
28535SOL    HW290163   8.503   9.460   8.272 -0.1737  1.1902  0.3229
28536SOL     OW90164   1.115   0.618   4.331 -0.4964  0.1973 -0.0191
28536SOL    HW190165   1.047   0.673   4.370 -0.7285 -0.5456  0.6582
28536SOL    HW290166   1.195   0.643   4.378 -0.3670  0.7526 -0.5084
28537SOL     OW90167   5.740  10.307   6.615 -0.0140 -0.1657 -0.2373
28537SOL    HW190168   5.732  10.214   6.638  0.2861 -0.3263 -0.7513
28537SOL    HW290169   5.759  10.351   6.698  0.0147 -0.5903 -0.0151
28538SOL     OW90170   9.760   7.315   9.343  0.5962 -0.2487  0.2599
28538SOL    HW190171   9.678   7.314   9.392  0.8772  0.5787  0.7557
28538SOL    HW290172   9.775   7.407   9.323  2.6765 -0.0464  2.3487
28539SOL     OW90173  10.958   7.688  11.820 -0.3252  0.2558 -0.4938
28539SOL    HW190174  10.956   7.757  11.886  1.5044 -0.2320  0.1346
28539SOL    HW290175  10.921   7.612  11.864 -0.2692  0.2521 -0.4540
28540SOL     OW90176   2.921   1.356   6.211  0.1920  0.3205 -0.6756
28540SOL    HW190177   2.863   1.429   6.232  1.1259  0.8357  0.2174
28540SOL    HW290178   2.864   1.279   6.210 -0.6191  0.9069 -0.5737
28541SOL     OW90179   8.599   9.672   6.999  0.2014 -0.1020  0.3132
28541SOL    HW190180   8.690   9.687   6.975  0.4609 -1.0861  0.6310
28541SOL    HW290181   8.563   9.620   6.927  0.5170 -1.6079  1.2130
28542SOL     OW90182   7.128   8.954   7.776 -0.6661  0.2097  0.1454
28542SOL    HW190183   7.036   8.961   7.801 -0.5798 -1.3651  0.9968
28542SOL    HW290184   7.158   8.872   7.815  1.4623  1.3092  0.9821
28543SOL     OW90185  10.274  10.424   6.808  0.1791 -0.2218 -0.1522
28543SOL    HW190186  10.363  10.412   6.842  0.6769  0.3095 -1.2110
28543SOL    HW290187  10.242  10.335   6.793  0.3880 -0.4274  0.5687
28544SOL     OW90188   8.588   4.177   6.218 -0.2598 -0.3112 -0.0300
28544SOL    HW190189   8.508   4.224   6.241 -0.5024 -0.8026  0.1562
28544SOL    HW290190   8.557   4.097   6.175  0.1813  0.2845 -1.4931
28545SOL     OW90191   6.726   4.863   3.229 -0.7339 -0.2158 -0.0340
28545SOL    HW190192   6.747   4.789   3.284  0.4938  0.1570  0.0192
28545SOL    HW290193   6.781   4.852   3.151 -1.5886 -0.1143 -0.6726
28546SOL     OW90194   7.624   5.815  11.183  0.3671 -0.3431  0.1298
28546SOL    HW190195   7.679   5.795  11.259  1.4683  2.5371  0.2199
28546SOL    HW290196   7.554   5.870  11.217  0.7703  0.8266 -0.8704
28547SOL     OW90197   8.921  10.664   2.697 -0.2772 -0.1414  0.8156
28547SOL    HW190198   8.950  10.748   2.731 -1.0368  0.2293  0.5729
28547SOL    HW290199   8.890  10.683   2.608 -0.3572 -0.6884  0.7221
28548SOL     OW90200   0.983   3.041   0.057  0.0750 -0.5274  0.6135
28548SOL    HW190201   0.966   3.003  -0.029 -0.2910 -0.0301  0.4607
28548SOL    HW290202   0.897   3.068   0.089  0.3564  0.4712  0.5684
28549SOL     OW90203   1.279   4.700   3.518  0.2039  0.0841 -0.1695
28549SOL    HW190204   1.353   4.743   3.560 -0.9462  0.1113  1.9188
28549SOL    HW290205   1.314   4.616   3.488  0.9554 -0.1771  1.3571
28550SOL     OW90206   2.086   0.306   8.940 -0.0241  0.5567 -0.2454
28550SOL    HW190207   2.063   0.373   9.004  0.0578  1.3768 -1.0454
28550SOL    HW290208   2.133   0.239   8.990 -1.5868  0.2517  0.8742
28551SOL     OW90209   4.349   7.767   2.307 -0.2312 -0.6948 -0.0364
28551SOL    HW190210   4.308   7.846   2.271  0.4038 -0.8883 -1.2287
28551SOL    HW290211   4.435   7.796   2.338  1.3912 -1.4087 -3.3892
28552SOL     OW90212   0.386   5.471   1.735 -0.4542 -0.2803  0.1935
28552SOL    HW190213   0.397   5.462   1.830  0.0105 -2.3616 -0.0151
28552SOL    HW290214   0.298   5.506   1.725 -0.9522 -1.1087  1.3795
28553SOL     OW90215   7.174   1.286   6.724  0.7424 -0.1908 -0.1038
28553SOL    HW190216   7.145   1.354   6.784  1.4787  0.5154 -0.5314
28553SOL    HW290217   7.188   1.209   6.781  0.5490  0.2050  0.4859
28554SOL     OW90218   9.092   6.666   0.718  0.5139  0.2460 -0.1994
28554SOL    HW190219   9.026   6.676   0.786 -0.9780 -0.1033 -1.5278
28554SOL    HW290220   9.175   6.684   0.762 -0.2708 -0.9968  1.9388
28555SOL     OW90221   5.644  11.774   7.412 -0.3413 -0.1600 -0.0327
28555SOL    HW190222   5.731  11.744   7.387  0.2935  0.5590  1.1771
28555SOL    HW290223   5.604  11.806   7.331  0.1141 -1.4570 -0.7800
28556SOL     OW90224   3.466   1.565   0.923  0.8151  0.7944 -0.3784
28556SOL    HW190225   3.454   1.543   0.830 -1.9846 -0.0634  0.0866
28556SOL    HW290226   3.462   1.481   0.968  1.0334  1.3040  0.6203
28557SOL     OW90227   5.888   8.566   9.181 -0.2168  0.1803  0.1400
28557SOL    HW190228   5.868   8.497   9.244  3.6302 -0.3295  1.1031
28557SOL    HW290229   5.881   8.523   9.096 -1.7082 -0.2364  0.4620
28558SOL     OW90230   7.310   9.492  12.101  0.1363  0.0884  0.0445
28558SOL    HW190231   7.365   9.470  12.176  0.9079  1.0969 -0.1996
28558SOL    HW290232   7.366   9.546  12.045 -0.4790 -0.4851 -1.1777
28559SOL     OW90233   1.560   5.914   7.964 -0.0432  0.2401 -0.7096
28559SOL    HW190234   1.553   5.828   8.006 -0.0722  1.2300  1.4652
28559SOL    HW290235   1.531   5.975   8.031 -0.5847  1.9266 -2.4111
28560SOL     OW90236   8.578   9.550   2.385 -0.1162 -0.5422 -0.1170
28560SOL    HW190237   8.666   9.511   2.391  0.4522  0.8086  1.1296
28560SOL    HW290238   8.594   9.637   2.349 -0.6151  0.5103  2.0052
28561SOL     OW90239  12.043   0.852   0.023  0.2159  0.0715  0.3640
28561SOL    HW190240  12.088   0.936   0.021  1.2052 -0.4371 -0.4903
28561SOL    HW290241  12.104   0.793   0.068  0.5545 -0.6762 -0.9829
28562SOL     OW90242   6.278   1.863   8.885 -0.4793 -0.2129 -0.0951
28562SOL    HW190243   6.362   1.886   8.925 -0.9660  2.7781 -0.5507
28562SOL    HW290244   6.301   1.802   8.814  1.2869  0.3774 -0.0733
28563SOL     OW90245   3.614   1.012   1.304  0.2474 -0.1430  0.1050
28563SOL    HW190246   3.661   0.929   1.308  2.2173  0.7510 -1.9247
28563SOL    HW290247   3.682   1.078   1.321 -0.6080  1.1579 -1.2836
28564SOL     OW90248   2.313  12.074   8.735  0.4014 -0.0758  0.0117
28564SOL    HW190249   2.344  12.147   8.681 -0.0600 -1.2069 -1.8548
28564SOL    HW290250   2.218  12.084   8.738  0.4020 -0.1614  0.4319
28565SOL     OW90251  10.302  10.179   7.032  0.1404 -0.0591  0.4210
28565SOL    HW190252  10.369  10.140   6.977  0.0421  0.2579  0.0743
28565SOL    HW290253  10.224  10.184   6.976 -0.0487 -0.0289  0.6840
28566SOL     OW90254  10.310   1.798  11.643 -0.2140  0.1548 -0.3106
28566SOL    HW190255  10.250   1.767  11.711  1.8239  1.3757  2.2480
28566SOL    HW290256  10.351   1.718  11.610  1.3185 -0.3891  2.5620
28567SOL     OW90257   7.823   8.133   8.530 -0.0295 -0.3767  0.4894
28567SOL    HW190258   7.826   8.093   8.444  2.9711 -0.7159  0.6439
28567SOL    HW290259   7.848   8.063   8.591  0.0825  0.4029  1.3744
28568SOL     OW90260   4.788   3.328   0.376 -0.3283  0.1605  0.3243
28568SOL    HW190261   4.827   3.243   0.357 -0.0581  0.4493 -0.4413
28568SOL    HW290262   4.702   3.307   0.414 -0.9042 -0.4677 -1.2142
28569SOL     OW90263   0.696   5.434   5.692  0.5472  0.2288 -0.0462
28569SOL    HW190264   0.719   5.420   5.783  1.4624 -2.2741 -0.6047
28569SOL    HW290265   0.739   5.516   5.668 -0.3024  1.3042  1.9102
28570SOL     OW90266   0.539   6.867  10.825 -0.2583  0.0014 -0.0874
28570SOL    HW190267   0.621   6.847  10.870 -1.5733 -1.7030  1.7555
28570SOL    HW290268   0.509   6.949  10.865 -0.7650 -0.8160  1.2780
28571SOL     OW90269   3.935   9.793   3.186 -0.3033 -0.0693 -0.4920
28571SOL    HW190270   3.881   9.749   3.252 -2.5837  0.9655 -1.5413
28571SOL    HW290271   3.931   9.886   3.211  1.3576 -0.0003 -0.3974
28572SOL     OW90272   9.463  10.892   4.139 -0.2997  0.2965  0.3669
28572SOL    HW190273   9.424  10.943   4.067 -0.1177  0.7110  0.5557
28572SOL    HW290274   9.536  10.846   4.098 -0.8173 -0.2709  0.0698
28573SOL     OW90275  10.720   7.360   3.556  0.1489  0.1782 -0.1815
28573SOL    HW190276  10.702   7.306   3.632  2.0084 -1.7844 -1.0300
28573SOL    HW290277  10.658   7.433   3.563 -2.3905 -1.9251  1.1337
28574SOL     OW90278   1.468   9.417  10.930 -0.3461 -0.3845 -0.3879
28574SOL    HW190279   1.549   9.370  10.950 -0.4931 -0.4278  0.1274
28574SOL    HW290280   1.489   9.509  10.948 -0.1062 -0.2676 -1.2422
28575SOL     OW90281   4.537   1.405   1.886 -0.5823  0.3392  0.6434
28575SOL    HW190282   4.595   1.468   1.843  0.1088  0.5364  1.8033
28575SOL    HW290283   4.543   1.326   1.831  0.6613  0.4162  0.6232
28576SOL     OW90284   7.387   9.649   9.530  0.4205 -0.6725 -0.1667
28576SOL    HW190285   7.335   9.569   9.526  0.5236 -0.7106 -3.0987
28576SOL    HW290286   7.448   9.642   9.457  1.1864  1.5917  0.1562
28577SOL     OW90287   3.190   8.523  11.143 -0.1843  0.1578 -0.1450
28577SOL    HW190288   3.137   8.457  11.189  2.5474 -2.4152 -0.3728
28577SOL    HW290289   3.171   8.510  11.051  0.0794 -0.0971 -0.1666
28578SOL     OW90290   4.181   1.519   4.120 -0.1384  0.1729  0.1748
28578SOL    HW190291   4.271   1.548   4.135  0.0175 -0.1029 -0.2207
28578SOL    HW290292   4.189   1.444   4.062 -0.5511 -0.5634  1.0318
28579SOL     OW90293   8.541   1.626   5.441 -0.5416  0.6583  0.1636
28579SOL    HW190294   8.623   1.604   5.484  0.2373  2.6916 -0.1703
28579SOL    HW290295   8.519   1.714   5.473 -2.5796  0.1931  0.2060
28580SOL     OW90296  10.524   4.742   4.697  0.2153 -0.1387 -0.3602
28580SOL    HW190297  10.453   4.696   4.741  1.4719 -2.6445 -0.8163
28580SOL    HW290298  10.482   4.781   4.619 -0.8031 -0.8500 -0.1858
28581SOL     OW90299   6.630  10.875   8.940 -0.0638 -0.0930 -0.3053
28581SOL    HW190300   6.662  10.790   8.970 -2.3891 -1.8141 -2.3280
28581SOL    HW290301   6.535  10.872   8.955 -0.1168  2.6058  0.4970
28582SOL     OW90302   4.864   4.144   7.649  0.2444  0.2277 -0.7685
28582SOL    HW190303   4.817   4.186   7.577  1.0398  0.5329 -1.1196
28582SOL    HW290304   4.936   4.203   7.669  1.2609 -0.8321 -1.1287
28583SOL     OW90305   9.196   2.861   7.564 -0.2186  0.2156  0.2847
28583SOL    HW190306   9.144   2.907   7.499  2.0442  2.4194 -0.1367
28583SOL    HW290307   9.221   2.929   7.627  1.7595 -0.7978  0.6765
28584SOL     OW90308   3.164  10.095   9.765 -0.5247  0.1963  0.0020
28584SOL    HW190309   3.207  10.015   9.733 -1.8447  0.0413 -1.5194
28584SOL    HW290310   3.157  10.082   9.860  1.9882 -0.1143  0.2127
28585SOL     OW90311   6.216   6.956   0.977  0.3653 -0.1952  0.4660
28585SOL    HW190312   6.134   6.907   0.984 -0.2931  0.9351  1.0760
28585SOL    HW290313   6.223   7.001   1.061 -0.1562  2.3807 -0.7760
28586SOL     OW90314   8.701   4.265   4.221  0.4018  0.2193  0.6662
28586SOL    HW190315   8.675   4.181   4.184  1.3886 -0.8122  2.1740
28586SOL    HW290316   8.641   4.329   4.183  0.1378 -1.0413 -1.1218
28587SOL     OW90317   0.364   4.709   4.110 -0.4421  0.1291 -0.0887
28587SOL    HW190318   0.385   4.802   4.118 -0.8962  0.2786 -0.5488
28587SOL    HW290319   0.359   4.677   4.200 -0.3879  0.5715  0.0718
28588SOL     OW90320   8.451  10.263   3.658  0.2632  0.1261  0.3308
28588SOL    HW190321   8.424  10.237   3.570  0.7295  0.0932  0.1913
28588SOL    HW290322   8.499  10.345   3.645 -0.3169  0.5185  0.6464
28589SOL     OW90323   0.536   3.213   3.952  0.3459 -0.3391  0.0649
28589SOL    HW190324   0.446   3.214   3.922  0.3122 -0.5118  0.1569
28589SOL    HW290325   0.562   3.305   3.955  0.3689 -0.3215 -0.5518
28590SOL     OW90326   7.449  11.536  10.843 -0.1532  0.3852  0.0524
28590SOL    HW190327   7.400  11.587  10.908 -0.0957 -0.4879  0.7993
28590SOL    HW290328   7.466  11.452  10.886  1.0537  0.2720 -0.6011
28591SOL     OW90329   2.911   2.690   9.168  0.5101  0.4939 -0.3379
28591SOL    HW190330   2.989   2.667   9.116  1.9767 -0.2490  2.0383
28591SOL    HW290331   2.941   2.758   9.227 -0.5180 -0.0839  0.8925
28592SOL     OW90332   7.396  10.171   7.122 -0.4245 -0.0569  0.3149
28592SOL    HW190333   7.305  10.198   7.110  0.0258  1.2928 -0.3174
28592SOL    HW290334   7.404  10.152   7.215 -1.1259  0.7448  0.5468
28593SOL     OW90335   0.925   8.252   9.596  1.3017  0.4026 -0.1746
28593SOL    HW190336   0.843   8.245   9.546  0.5778  0.9782  0.8828
28593SOL    HW290337   0.981   8.183   9.561  0.1677 -0.3369 -0.5818
28594SOL     OW90338   8.979  11.533   4.829  0.0125 -0.0906  0.4621
28594SOL    HW190339   8.919  11.524   4.755 -0.9333  1.1080  1.0511
28594SOL    HW290340   9.056  11.481   4.803 -0.3248  0.2110 -1.3145
28595SOL     OW90341  11.917   2.344   4.204  0.4224  0.3614  0.2586
28595SOL    HW190342  11.926   2.439   4.201  0.7370  0.3276  0.0442
28595SOL    HW290343  11.823   2.329   4.210  0.3321  0.6765 -0.2769
28596SOL     OW90344   3.640  11.928  10.443  0.8412 -1.0089  0.0337
28596SOL    HW190345   3.636  11.872  10.520 -0.1245 -0.7323  0.2014
28596SOL    HW290346   3.624  12.016  10.477 -0.5581 -1.0002 -0.5883
28597SOL     OW90347   3.266   6.543  10.397 -0.3707  0.0294  0.4453
28597SOL    HW190348   3.231   6.632  10.396 -0.1128  0.1379 -0.6805
28597SOL    HW290349   3.271   6.520  10.490 -0.0433  1.3449  0.7756
28598SOL     OW90350   4.647   7.398   5.161 -0.1096  0.5121  0.2425
28598SOL    HW190351   4.561   7.357   5.171  0.3483 -0.7887 -0.8215
28598SOL    HW290352   4.698   7.334   5.111  1.2436  1.5884  0.1932
28599SOL     OW90353   9.049   6.300   1.220 -0.3469 -0.2724  0.0743
28599SOL    HW190354   9.019   6.209   1.218 -0.7825 -0.1374  0.3971
28599SOL    HW290355   9.048   6.324   1.312 -1.1927  0.3646 -0.0824
28600SOL     OW90356   3.147   8.980   2.944 -0.5334 -0.6603 -0.1225
28600SOL    HW190357   3.177   8.941   2.862  0.0354 -1.1172  0.2855
28600SOL    HW290358   3.087   8.915   2.981  0.1978 -1.0535  0.4239
28601SOL     OW90359   8.147   7.215   2.426 -0.1032  0.0405 -0.2890
28601SOL    HW190360   8.181   7.127   2.405 -0.6626  0.0710 -1.3844
28601SOL    HW290361   8.140   7.259   2.342  0.4320  1.2545  0.2746
28602SOL     OW90362   5.199   8.846   2.701  0.0869  0.2604 -0.4374
28602SOL    HW190363   5.123   8.843   2.644  0.8755 -0.4115 -1.5046
28602SOL    HW290364   5.258   8.910   2.660  0.0229  0.9373  0.4919
28603SOL     OW90365  11.785  10.605   0.959  0.0917 -0.4144  0.1188
28603SOL    HW190366  11.773  10.518   0.922  1.1885  0.8979 -3.7243
28603SOL    HW290367  11.878  10.608   0.983  0.8246  0.5230 -2.5242
28604SOL     OW90368   8.493   4.637   3.822  0.3077  0.0448 -0.5073
28604SOL    HW190369   8.456   4.597   3.743 -1.1259  0.5358 -0.1054
28604SOL    HW290370   8.586   4.615   3.818  0.3270  0.2971 -2.4806
28605SOL     OW90371   3.717   3.991  10.602  0.3306  0.1031 -0.1791
28605SOL    HW190372   3.678   3.947  10.526  1.5000 -0.6737 -0.3654
28605SOL    HW290373   3.769   4.062  10.565 -1.2933  1.5091  0.1024
28606SOL     OW90374   8.836   9.269   5.674 -0.4642  0.1710 -0.0850
28606SOL    HW190375   8.820   9.345   5.730 -0.7860  0.4793 -0.5955
28606SOL    HW290376   8.755   9.218   5.680 -0.2013 -0.2037  0.3591
28607SOL     OW90377   7.214   6.843  10.464  0.3660 -0.5063  0.4372
28607SOL    HW190378   7.253   6.861  10.549 -1.1335  1.1053  0.8288
28607SOL    HW290379   7.133   6.796  10.483 -1.1727  1.8689  0.1346
28608SOL     OW90380   9.740   8.132   0.452  0.0162  0.1806  0.5331
28608SOL    HW190381   9.805   8.085   0.504  0.2561  0.7834  0.7858
28608SOL    HW290382   9.668   8.069   0.442  1.0909 -0.9214 -0.7337
28609SOL     OW90383   8.172   1.182   0.157  0.9643 -0.3599  0.1215
28609SOL    HW190384   8.146   1.098   0.196  2.0515 -0.4271  0.7545
28609SOL    HW290385   8.201   1.160   0.069 -0.0373 -0.4361 -0.2055
28610SOL     OW90386  10.926   9.668   8.846 -0.1717 -0.5558 -0.0755
28610SOL    HW190387  11.009   9.634   8.811 -0.1030  0.3584 -0.8477
28610SOL    HW290388  10.920   9.757   8.811 -1.2610 -0.4488  0.3453
28611SOL     OW90389   0.364   9.072   2.511 -0.0200  0.0451 -0.5556
28611SOL    HW190390   0.296   9.129   2.477  0.3845  1.1489  0.4215
28611SOL    HW290391   0.446   9.118   2.493  0.6229 -1.8242 -2.8207
28612SOL     OW90392   4.427   5.029   8.801 -0.1560  0.2946  0.2036
28612SOL    HW190393   4.503   5.034   8.743  0.1242 -1.0570  0.4221
28612SOL    HW290394   4.448   5.088   8.874  0.6629 -0.0050  0.2208
28613SOL     OW90395   9.336   0.202   1.578 -0.3257  0.8487 -0.5538
28613SOL    HW190396   9.264   0.217   1.517 -2.0637  1.8448  1.6148
28613SOL    HW290397   9.293   0.178   1.660  1.9032  0.0178  0.4443
28614SOL     OW90398   2.082   0.606  10.065 -0.6501 -0.5194 -0.1803
28614SOL    HW190399   2.160   0.633  10.115 -0.5355 -0.7487 -0.2342
28614SOL    HW290400   2.116   0.548   9.998 -0.9197 -0.9573  0.0573
28615SOL     OW90401   2.969   1.916   7.524 -0.3795 -0.2801  0.0032
28615SOL    HW190402   3.034   1.958   7.467  1.4235 -1.5703  1.0289
28615SOL    HW290403   2.885   1.956   7.497  0.7848  1.3955 -1.3998
28616SOL     OW90404  10.438   7.077   8.051 -0.4276  0.3512  0.1936
28616SOL    HW190405  10.432   7.048   7.960 -1.0726 -2.7970  1.1247
28616SOL    HW290406  10.531   7.093   8.065  0.0028 -1.4038 -0.4268
28617SOL     OW90407   8.822   5.966   5.207  0.3109 -0.1397  0.1971
28617SOL    HW190408   8.759   5.984   5.276 -0.1716  0.8030 -0.4690
28617SOL    HW290409   8.778   5.903   5.149  0.6234 -0.7453  0.6097
28618SOL     OW90410   7.665  10.530   2.421 -0.4221  0.0207 -0.0913
28618SOL    HW190411   7.606  10.522   2.496 -0.2036 -0.7137  0.0180
28618SOL    HW290412   7.646  10.452   2.368  0.8276 -0.5237  0.2281
28619SOL     OW90413   7.681  11.185   2.762  0.2022 -0.2429  0.2399
28619SOL    HW190414   7.773  11.198   2.738  0.2536 -0.4189  0.3401
28619SOL    HW290415   7.636  11.260   2.723  0.4001 -0.1101  0.2625
28620SOL     OW90416   8.637   1.386  11.573 -0.2803  0.2009  0.1293
28620SOL    HW190417   8.682   1.344  11.500 -0.8020  2.8781 -1.9042
28620SOL    HW290418   8.701   1.447  11.609 -0.9730  1.1637 -0.2096
28621SOL     OW90419   8.469   5.911   7.605  0.3922  0.6641  0.2855
28621SOL    HW190420   8.560   5.900   7.635  0.7232  1.1548 -0.5083
28621SOL    HW290421   8.477   5.931   7.512 -0.5897 -0.3883 -0.0484
28622SOL     OW90422   3.171   7.867   0.094 -0.2026  0.7525  0.1760
28622SOL    HW190423   3.232   7.877   0.167 -0.9809  0.4693  0.8901
28622SOL    HW290424   3.091   7.832   0.135  0.3591 -2.5563 -1.2192
28623SOL     OW90425   5.517   1.114   4.026 -0.2514  0.2675  0.5273
28623SOL    HW190426   5.608   1.131   4.049 -0.3927  0.7387  0.7401
28623SOL    HW290427   5.519   1.098   3.932  0.0779  0.0802  0.5646
28624SOL     OW90428   1.320   3.037   1.439 -0.2433  0.2900  0.2539
28624SOL    HW190429   1.404   3.012   1.400 -1.1121  1.3231 -2.4374
28624SOL    HW290430   1.310   2.978   1.514  1.2405 -2.2382 -1.4201
28625SOL     OW90431   8.987   6.961   5.082  0.0487  0.4176 -0.1775
28625SOL    HW190432   9.024   7.046   5.057  0.2110  0.7757  1.1908
28625SOL    HW290433   8.920   6.982   5.148 -0.0186 -0.5010  0.0616
28626SOL     OW90434   5.184   6.424   1.058  0.1005  0.0684  0.2903
28626SOL    HW190435   5.177   6.515   1.086  0.8066  0.0444  0.5722
28626SOL    HW290436   5.107   6.381   1.096  0.3144  0.3314  1.0432
28627SOL     OW90437   7.939   6.896  11.215  0.3844  1.4313  0.1064
28627SOL    HW190438   7.973   6.846  11.289  0.4155  0.5954 -0.4570
28627SOL    HW290439   7.972   6.850  11.138  0.0504  2.0763 -0.4353
28628SOL     OW90440   1.883  10.086   8.903  0.1984  0.2033  0.7215
28628SOL    HW190441   1.793  10.084   8.935  0.1831  0.2993  0.6850
28628SOL    HW290442   1.921  10.003   8.932  1.1814  1.5866  3.8758
28629SOL     OW90443   0.075   9.985   5.367  0.4188  0.2247  0.3186
28629SOL    HW190444   0.165  10.016   5.378  0.2082  0.1888  2.9665
28629SOL    HW290445   0.085   9.893   5.341  1.2492 -0.2617  2.1446
28630SOL     OW90446   2.222  10.618   6.059  0.2802  0.7393  0.0357
28630SOL    HW190447   2.129  10.637   6.046  0.1026  0.6055  1.0557
28630SOL    HW290448   2.259  10.699   6.092  0.2062  0.3385  1.1209
28631SOL     OW90449   2.322   9.054   3.937  0.0719 -0.0568  0.0523
28631SOL    HW190450   2.416   9.072   3.936  0.3693 -1.4310  0.4412
28631SOL    HW290451   2.303   9.032   4.028 -0.5682 -0.1143 -0.0894
28632SOL     OW90452   0.232   6.844   4.631 -0.0023 -0.3132  0.2347
28632SOL    HW190453   0.197   6.931   4.652 -2.1931 -0.7940 -1.1072
28632SOL    HW290454   0.321   6.861   4.598 -0.1098  1.3200  0.7127
28633SOL     OW90455   9.558   6.517   7.341 -0.0551 -0.3273  0.1443
28633SOL    HW190456   9.508   6.535   7.261  0.4614 -0.3076 -0.1856
28633SOL    HW290457   9.640   6.479   7.309  0.0832 -0.4902  0.6798
28634SOL     OW90458   7.063   9.522   7.027 -0.2987  0.3863 -0.2496
28634SOL    HW190459   7.155   9.496   7.015 -0.2795 -0.1541  0.9146
28634SOL    HW290460   7.066   9.618   7.029  0.5802  0.3826  1.8292
28635SOL     OW90461   7.872   8.860   4.836  0.1735 -0.3753 -0.4954
28635SOL    HW190462   7.947   8.805   4.858  1.2373  1.3283  0.4344
28635SOL    HW290463   7.893   8.945   4.876 -1.7371  0.4772 -1.1926
28636SOL     OW90464   6.864   7.300   6.398  0.4450  0.4057 -0.0845
28636SOL    HW190465   6.837   7.388   6.374 -1.3029 -0.2953 -0.9139
28636SOL    HW290466   6.898   7.262   6.317 -0.7413 -0.3324 -0.2554
28637SOL     OW90467   9.619   5.927   0.297 -0.2768 -0.2201  0.3713
28637SOL    HW190468   9.593   6.016   0.322  1.0463  0.5995 -0.9512
28637SOL    HW290469   9.713   5.933   0.283  0.0595 -2.1585  1.4141
28638SOL     OW90470   7.333   6.727   3.554 -0.0164  0.3799 -0.5279
28638SOL    HW190471   7.331   6.812   3.510 -2.7679  0.3715 -0.5340
28638SOL    HW290472   7.318   6.664   3.484 -0.5243  0.0837 -0.1533
28639SOL     OW90473   8.047   3.557   2.773  0.2749  0.2795 -0.8891
28639SOL    HW190474   8.071   3.516   2.690 -1.3828  0.1471 -1.3434
28639SOL    HW290475   7.954   3.536   2.784  0.1250  1.4499  0.3340
28640SOL     OW90476   9.487   0.197   6.640 -0.0070 -0.5484 -0.4726
28640SOL    HW190477   9.422   0.206   6.570  1.3224  1.3442 -1.5651
28640SOL    HW290478   9.547   0.129   6.608  1.3387  1.2080 -1.8899
28641SOL     OW90479   8.669   1.615   2.782  0.2344 -0.0311  0.0509
28641SOL    HW190480   8.633   1.695   2.820  0.4828  0.4773 -0.7632
28641SOL    HW290481   8.679   1.635   2.689  0.2933 -1.0122 -0.1665
28642SOL     OW90482   9.127  11.162   9.802 -0.0541  0.1527 -0.2303
28642SOL    HW190483   9.145  11.085   9.748 -2.9236  0.5006 -1.9130
28642SOL    HW290484   9.113  11.127   9.890  0.2483 -1.0457 -0.6441
28643SOL     OW90485   4.352  11.051   1.637  0.9565  0.4187 -0.1270
28643SOL    HW190486   4.373  11.003   1.557 -0.3952 -1.7304  0.7306
28643SOL    HW290487   4.294  10.993   1.686  0.7942  2.1553  1.8990
28644SOL     OW90488   0.190   2.973   8.196 -0.1591 -0.7344 -0.0401
28644SOL    HW190489   0.169   2.923   8.275  0.4621 -0.6739  0.1685
28644SOL    HW290490   0.281   3.002   8.209 -1.2771  2.7009  1.0539
28645SOL     OW90491   5.638   5.212  10.122 -0.2880  0.0487  0.6579
28645SOL    HW190492   5.688   5.294  10.134  0.7793 -0.3686 -0.6868
28645SOL    HW290493   5.547   5.239  10.128  0.0220  1.5352 -0.7341
28646SOL     OW90494   0.093   5.652   4.795  0.4419  0.1894  0.0726
28646SOL    HW190495   0.105   5.565   4.757  0.3884  0.6353 -1.0017
28646SOL    HW290496   0.063   5.635   4.884  0.9911 -0.8927  0.0700
28647SOL     OW90497   9.687   0.905   1.098  0.2505 -0.3883 -0.3023
28647SOL    HW190498   9.734   0.915   1.016 -0.0540  2.4909 -0.2345
28647SOL    HW290499   9.597   0.932   1.078 -0.6135 -2.5538  0.3408
28648SOL     OW90500   5.120   3.124   3.401 -0.0152  0.4630  0.0673
28648SOL    HW190501   5.197   3.132   3.346  0.1153 -2.5989 -0.4051
28648SOL    HW290502   5.102   3.213   3.432  1.4056  1.8879 -2.8398
28649SOL     OW90503   1.314  11.905   4.198 -0.0813 -0.1606 -0.0361
28649SOL    HW190504   1.223  11.935   4.195 -0.4131 -0.7871  2.1724
28649SOL    HW290505   1.318  11.849   4.275  2.4615  0.7517  0.5709
28650SOL     OW90506   2.011   0.260  11.030 -0.1745 -0.0528 -0.1454
28650SOL    HW190507   1.929   0.306  11.009  1.4325  2.4004 -1.6378
28650SOL    HW290508   2.054   0.316  11.094  0.8165 -0.7064 -0.2191
28651SOL     OW90509   4.152   2.433   6.999  0.2027 -0.2997  0.1011
28651SOL    HW190510   4.247   2.432   7.007  0.2646  0.3438 -0.4504
28651SOL    HW290511   4.133   2.370   6.930  0.2573 -0.2165  0.0088
28652SOL     OW90512   8.065   9.540   0.668 -0.7571 -0.7479  0.5813
28652SOL    HW190513   8.044   9.630   0.641 -0.0399 -0.3415  1.3291
28652SOL    HW290514   8.067   9.491   0.586  1.7785  0.5407 -0.2333
28653SOL     OW90515  10.870   0.975   1.569  0.4170 -0.0441 -0.2506
28653SOL    HW190516  10.832   1.035   1.506 -0.3517 -0.4778 -0.2106
28653SOL    HW290517  10.960   0.962   1.539  0.5045  0.8931 -0.4162
28654SOL     OW90518  10.507  11.391   2.131 -0.1495  0.0869  0.0767
28654SOL    HW190519  10.538  11.302   2.147 -1.2087 -0.3953 -0.4899
28654SOL    HW290520  10.415  11.381   2.108 -0.7820  1.4817  1.7745
28655SOL     OW90521  10.205   6.120   7.940 -0.6339  0.4564  0.3167
28655SOL    HW190522  10.189   6.214   7.932  0.0245  0.7507  2.0693
28655SOL    HW290523  10.242   6.109   8.028 -1.4873 -1.5558  0.4719
28656SOL     OW90524   4.759   2.263   3.407  0.0458  0.5156 -0.2425
28656SOL    HW190525   4.694   2.328   3.379  0.0994 -0.2294 -2.2815
28656SOL    HW290526   4.750   2.192   3.343  0.8513 -0.9340  1.1881
28657SOL     OW90527   0.930   6.856   1.486  0.6254  0.1478 -0.1341
28657SOL    HW190528   0.986   6.789   1.445  0.4241 -1.1611  1.6102
28657SOL    HW290529   0.910   6.820   1.573  0.1160  2.2999  0.6837
28658SOL     OW90530   0.622   0.841  10.423  0.3138 -0.3741  0.0713
28658SOL    HW190531   0.626   0.773  10.491  0.3563 -1.6603 -1.1784
28658SOL    HW290532   0.658   0.919  10.466 -2.2135 -0.3578  2.3962
28659SOL     OW90533   7.949   7.948  11.876  0.2129  0.3697 -0.5093
28659SOL    HW190534   7.970   7.874  11.819  1.7606 -2.0088  2.7935
28659SOL    HW290535   8.035   7.982  11.904 -0.4162  0.3623  1.6019
28660SOL     OW90536   7.262   2.326   7.000 -0.0015 -0.3373  0.4358
28660SOL    HW190537   7.279   2.233   7.016  1.0045  0.1619  2.6971
28660SOL    HW290538   7.222   2.328   6.913  2.3067 -2.6061 -0.8107
28661SOL     OW90539   9.363   3.628  11.894  0.4273 -0.5711  0.3992
28661SOL    HW190540   9.429   3.648  11.828  0.0179  0.3153  0.2453
28661SOL    HW290541   9.344   3.535  11.881  1.9670 -0.9554  0.7561
28662SOL     OW90542   2.802  11.942   9.048  0.7543 -0.7409  0.1746
28662SOL    HW190543   2.734  11.923   8.983  0.9841  0.8332 -0.5652
28662SOL    HW290544   2.775  11.893   9.125 -1.2984 -0.1081 -0.0659
28663SOL     OW90545   9.365   7.396   3.211  0.0415  0.3604  0.6633
28663SOL    HW190546   9.333   7.420   3.298 -0.2294 -0.3829  0.7741
28663SOL    HW290547   9.309   7.322   3.184 -0.0450  0.7386 -0.2466
28664SOL     OW90548  11.105   4.463   1.458 -0.2349  0.5147 -0.0041
28664SOL    HW190549  11.161   4.476   1.535  0.9886 -3.4197  0.0064
28664SOL    HW290550  11.126   4.536   1.400  2.1790  1.1697  1.5385
28665SOL     OW90551   0.980   8.609   4.139 -0.0827  0.7748  0.1016
28665SOL    HW190552   1.019   8.683   4.185  2.0242 -0.5955  0.6637
28665SOL    HW290553   0.923   8.567   4.203  0.4331  0.6658  0.4927
28666SOL     OW90554   7.245   3.202  10.455  0.3210  0.0462 -0.5115
28666SOL    HW190555   7.216   3.283  10.496  0.2742  0.7045 -1.7879
28666SOL    HW290556   7.326   3.226  10.410  1.0988 -0.9753  0.2746
28667SOL     OW90557   8.813   4.099   8.925 -0.2691  0.0691 -0.6572
28667SOL    HW190558   8.844   4.024   8.975  0.6164  0.3849 -0.7121
28667SOL    HW290559   8.761   4.062   8.854  0.8625 -0.5565 -1.1839
28668SOL     OW90560   6.482   1.026  11.510 -0.0786  0.2692 -0.5957
28668SOL    HW190561   6.522   1.012  11.596 -0.3322  0.6274 -0.4224
28668SOL    HW290562   6.403   0.973  11.512 -0.7720  1.3044 -0.1249
28669SOL     OW90563   8.983   5.407   1.252  0.6211 -0.0694  0.0026
28669SOL    HW190564   8.986   5.502   1.239 -0.9784 -0.1595 -1.4595
28669SOL    HW290565   8.890   5.385   1.241  0.3947 -1.4387  3.5042
28670SOL     OW90566  11.954   5.852  11.887 -0.1891 -0.9553  0.1667
28670SOL    HW190567  12.000   5.881  11.967 -1.0767 -0.8867  0.6629
28670SOL    HW290568  11.979   5.917  11.821 -0.9683  0.1103  0.8861
28671SOL     OW90569   3.414  10.390   7.963  0.3050  0.2649 -0.2911
28671SOL    HW190570   3.457  10.357   7.884 -0.8388  2.1466 -1.8069
28671SOL    HW290571   3.359  10.318   7.993 -1.3130  0.2974 -2.8616
28672SOL     OW90572   9.836   7.715   9.448 -0.1319 -0.0332  0.1367
28672SOL    HW190573   9.824   7.645   9.512  3.0775 -1.6403 -0.8096
28672SOL    HW290574   9.821   7.672   9.363  1.6453  0.4243 -0.4507
28673SOL     OW90575   3.259   7.905   8.410 -0.5885  0.1759 -0.1211
28673SOL    HW190576   3.332   7.899   8.348  0.1125  1.5665  0.5324
28673SOL    HW290577   3.234   7.814   8.425  3.5384 -0.7946  2.5950
28674SOL     OW90578  12.109   7.022  11.439 -0.1538  0.1653 -0.2154
28674SOL    HW190579  12.167   6.973  11.381  1.7736 -0.1275  1.7820
28674SOL    HW290580  12.099   7.107  11.397  1.7138  0.1952 -0.7033
28675SOL     OW90581   4.844  11.464  11.609 -0.2680  0.3450  0.5088
28675SOL    HW190582   4.918  11.482  11.666  0.1504  0.4367 -0.0577
28675SOL    HW290583   4.839  11.368  11.606 -0.4626  0.3396  0.9119
28676SOL     OW90584   3.816   8.002  12.002 -0.1934  0.5210  0.0323
28676SOL    HW190585   3.843   7.948  12.076 -1.1233 -3.1333 -2.0619
28676SOL    HW290586   3.742   8.053  12.036  0.2401 -0.0366  1.9426
28677SOL     OW90587   2.871   9.136   0.314  0.0069 -0.0750  0.1744
28677SOL    HW190588   2.898   9.131   0.406 -0.1307  1.0777  0.2928
28677SOL    HW290589   2.937   9.191   0.273 -1.1724  1.3377  0.0963
28678SOL     OW90590   6.508  10.591  11.112  0.4463 -0.7988 -0.4234
28678SOL    HW190591   6.431  10.534  11.117  0.6539 -0.9964  2.7515
28678SOL    HW290592   6.483  10.670  11.161  1.0923  0.7451 -2.4366
28679SOL     OW90593   0.324   2.408   8.475  0.2318 -0.2105 -0.0466
28679SOL    HW190594   0.321   2.407   8.379  0.7370  1.2607 -0.0984
28679SOL    HW290595   0.232   2.403   8.501 -0.0495  1.2329 -0.6614
28680SOL     OW90596  10.730   8.229   8.321 -0.0577 -0.7054 -0.2365
28680SOL    HW190597  10.812   8.245   8.273 -0.3490 -1.4835 -1.0201
28680SOL    HW290598  10.756   8.176   8.396  0.4927  0.9928  0.8371
28681SOL     OW90599   8.303   0.428   3.183  0.1503  0.0830 -0.2556
28681SOL    HW190600   8.383   0.476   3.164  1.2660 -1.7869 -0.4249
28681SOL    HW290601   8.315   0.342   3.143 -0.6189 -1.3364  2.3096
28682SOL     OW90602   2.278   0.807   7.986 -0.6999 -0.1653 -0.2523
28682SOL    HW190603   2.303   0.858   7.909 -1.4604 -1.2652 -1.2584
28682SOL    HW290604   2.258   0.873   8.052  1.2283  0.7825 -0.5406
28683SOL     OW90605   6.891   6.298  11.890 -0.3968 -0.4335  0.2009
28683SOL    HW190606   6.835   6.374  11.876 -0.4708 -0.2591  1.3430
28683SOL    HW290607   6.837   6.223  11.865 -0.8384 -0.2132  0.4932
28684SOL     OW90608   3.878   7.671   6.198 -0.5626  0.1699 -0.1323
28684SOL    HW190609   3.837   7.602   6.251 -0.0671 -0.4367 -0.5175
28684SOL    HW290610   3.804   7.722   6.164 -0.9629 -0.4130 -0.1558
28685SOL     OW90611  12.000   5.329   0.117  0.1603  0.3714 -0.4048
28685SOL    HW190612  11.984   5.306   0.209 -0.1190  0.3151 -0.4666
28685SOL    HW290613  11.941   5.272   0.067  1.1001 -0.3813 -0.6888
28686SOL     OW90614   6.529   7.509   4.862 -0.4423  0.0126  0.1650
28686SOL    HW190615   6.566   7.421   4.872 -0.9459 -0.1213  0.9518
28686SOL    HW290616   6.534   7.547   4.949 -0.7679  0.5493 -0.0473
28687SOL     OW90617   7.488   7.299   9.093  0.1196 -0.0371 -0.4021
28687SOL    HW190618   7.540   7.368   9.051  1.8003 -0.5766  0.6841
28687SOL    HW290619   7.431   7.267   9.024 -2.0132  3.5436 -0.5891
28688SOL     OW90620   1.642   1.627  11.808 -0.2230 -0.1868  0.6146
28688SOL    HW190621   1.655   1.547  11.859  0.8510  0.4582  1.3925
28688SOL    HW290622   1.631   1.597  11.718  2.4054 -1.1497  0.5105
28689SOL     OW90623   1.912   8.910   0.981 -0.1185  0.3997  0.0739
28689SOL    HW190624   1.825   8.918   1.019 -0.5087  0.1968 -0.7569
28689SOL    HW290625   1.917   8.820   0.951 -0.0758  0.7233 -0.9344
28690SOL     OW90626   0.194   0.069   9.193  0.0098 -0.2569  0.5591
28690SOL    HW190627   0.100   0.068   9.172  0.3445 -0.7159 -1.0249
28690SOL    HW290628   0.232   0.131   9.132  0.7154  0.1942  1.4266
28691SOL     OW90629   5.471   9.861   2.171 -0.5252 -0.2605  0.0045
28691SOL    HW190630   5.506   9.947   2.194  0.2348 -0.4785 -0.3118
28691SOL    HW290631   5.517   9.837   2.091 -2.0644 -0.1545 -0.9601
28692SOL     OW90632   3.527   1.787   6.424  0.1921 -0.1284  0.5030
28692SOL    HW190633   3.580   1.860   6.457 -1.6094  1.8276 -0.7148
28692SOL    HW290634   3.564   1.768   6.338  0.6549 -0.7066  0.8156
28693SOL     OW90635  11.643   3.258   0.474 -0.1862  0.1827 -0.2906
28693SOL    HW190636  11.584   3.227   0.405 -1.3947  2.2736 -0.2661
28693SOL    HW290637  11.589   3.318   0.526  0.7852 -1.0576  2.3027
28694SOL     OW90638   0.234   5.077  10.495  0.3337 -0.0335 -0.4020
28694SOL    HW190639   0.183   5.127  10.431  1.6089 -0.0689 -1.4930
28694SOL    HW290640   0.183   4.997  10.508 -1.4562  1.2551  0.9530
28695SOL     OW90641   1.480   1.449  10.013  0.1089  0.2267  0.2058
28695SOL    HW190642   1.546   1.394  10.055  0.0866  0.7696  0.9806
28695SOL    HW290643   1.531   1.520   9.973 -0.0252  1.1455  1.5693
28696SOL     OW90644   8.439  10.042   9.036  0.5566  0.4961  0.2851
28696SOL    HW190645   8.363   9.990   9.060 -0.8592  2.4758  0.2882
28696SOL    HW290646   8.461  10.013   8.947 -1.1575  0.9313 -0.3111
28697SOL     OW90647   4.415   6.817   1.531 -0.0222 -0.3415 -0.1701
28697SOL    HW190648   4.439   6.787   1.618  0.0239 -1.0342 -0.4183
28697SOL    HW290649   4.468   6.765   1.471  0.6945  0.8240 -0.5905
28698SOL     OW90650   9.005   8.578   2.400 -0.3030  0.7728  0.4837
28698SOL    HW190651   8.955   8.503   2.431 -0.4452  0.7559  0.2148
28698SOL    HW290652   8.948   8.620   2.336 -1.0555  2.2462  2.0313
28699SOL     OW90653   6.172   5.783   0.997  0.0383 -0.1503 -0.5759
28699SOL    HW190654   6.228   5.781   1.075 -0.1818  0.8942 -0.3748
28699SOL    HW290655   6.221   5.734   0.932 -0.3041 -2.0621  0.5464
28700SOL     OW90656   9.794  11.848   8.940  0.5147  0.3754 -0.2463
28700SOL    HW190657   9.777  11.802   8.858 -1.0323  2.2017 -1.0294
28700SOL    HW290658   9.759  11.791   9.008 -0.0618 -0.2458 -1.0504
28701SOL     OW90659   2.295  11.376  10.272  0.9110 -0.1932 -0.0180
28701SOL    HW190660   2.317  11.322  10.349 -0.5734  0.7970  1.1532
28701SOL    HW290661   2.250  11.452  10.308 -0.1270  0.1485 -1.9051
28702SOL     OW90662   4.285   0.914   5.433 -0.1699  0.6395 -0.1487
28702SOL    HW190663   4.244   0.864   5.362 -1.5435  2.5403 -0.7919
28702SOL    HW290664   4.361   0.955   5.391  0.8374 -0.6753  0.3264
28703SOL     OW90665  10.330   1.325   8.167  0.1192 -0.1262 -0.0195
28703SOL    HW190666  10.387   1.250   8.151 -0.3818 -0.7066  0.7913
28703SOL    HW290667  10.250   1.286   8.204  0.4175  0.9037  1.8284
28704SOL     OW90668   0.296  10.861   5.809 -0.5003  0.2912 -0.5886
28704SOL    HW190669   0.295  10.797   5.880  1.6024  2.6148  1.7375
28704SOL    HW290670   0.210  10.851   5.767 -1.5220 -1.7569  1.7288
28705SOL     OW90671   8.269  10.519   0.044 -0.1219  0.1217 -0.3919
28705SOL    HW190672   8.307  10.601   0.013  0.3397 -0.5183 -1.5612
28705SOL    HW290673   8.214  10.489  -0.028 -0.4306 -0.5046  0.0971
28706SOL     OW90674   6.868   2.001   8.739 -0.2789 -0.7113 -0.8225
28706SOL    HW190675   6.857   1.918   8.691  0.9864 -1.7301  0.5614
28706SOL    HW290676   6.791   2.005   8.796 -1.0325 -0.2368 -1.8536
28707SOL     OW90677   7.908   5.725  10.745  0.1466  0.1424 -0.0436
28707SOL    HW190678   7.848   5.698  10.676  0.3624 -0.4753  0.0106
28707SOL    HW290679   7.882   5.815  10.764 -0.1578  0.1941 -0.6650
28708SOL     OW90680   9.234   4.339   1.877 -0.4699  0.6827 -0.4049
28708SOL    HW190681   9.239   4.428   1.840  1.0192  0.3902 -0.9939
28708SOL    HW290682   9.292   4.287   1.821 -0.4490 -0.4270  0.6071
28709SOL     OW90683   1.839   4.973   6.749 -0.3247  1.1414 -0.1705
28709SOL    HW190684   1.799   4.985   6.663 -1.3789  2.2343  0.4375
28709SOL    HW290685   1.922   5.019   6.743  1.0083 -1.2170 -1.4739
28710SOL     OW90686   0.062   8.428   5.922  0.2040 -0.6097 -0.3212
28710SOL    HW190687  -0.027   8.464   5.920  0.5417  0.2896  0.3053
28710SOL    HW290688   0.064   8.365   5.849 -0.9767 -0.7398 -0.2646
28711SOL     OW90689   2.415   4.810   3.489 -0.1456  0.1395 -0.0217
28711SOL    HW190690   2.509   4.821   3.478  0.2479 -3.2100 -1.0791
28711SOL    HW290691   2.381   4.802   3.400 -0.8061 -2.2828  0.3870
28712SOL     OW90692   8.301   5.042  10.115  0.4792  0.1412 -0.4145
28712SOL    HW190693   8.208   5.023  10.125  0.3089  1.3805  0.5682
28712SOL    HW290694   8.305   5.105  10.043  0.2168  2.3099  1.3704
28713SOL     OW90695  10.687   1.965   2.267  0.1751 -0.0303  0.0783
28713SOL    HW190696  10.758   2.019   2.303  2.2194 -1.5381 -1.4425
28713SOL    HW290697  10.655   1.914   2.342 -0.1744  1.5237  1.0291
28714SOL     OW90698   7.923   4.398   0.905  0.2078  0.1336 -0.2190
28714SOL    HW190699   7.993   4.416   0.842 -0.3107 -1.5462 -1.3448
28714SOL    HW290700   7.854   4.357   0.853 -0.2537 -1.3032  1.4304
28715SOL     OW90701  11.133   0.628   1.672  0.3686 -0.3112  0.0360
28715SOL    HW190702  11.093   0.613   1.587  0.8368 -0.5270 -0.1527
28715SOL    HW290703  11.089   0.566   1.731 -0.0800 -0.0356 -0.0123
28716SOL     OW90704  11.899   7.614  11.406  0.1924 -0.3918  0.5352
28716SOL    HW190705  11.908   7.571  11.321  1.0843  0.0091  0.4174
28716SOL    HW290706  11.969   7.680  11.408 -0.3047  0.1373  1.2592
28717SOL     OW90707   1.382   0.230  10.810 -0.0165  0.7011 -0.1790
28717SOL    HW190708   1.366   0.247  10.717 -0.1880 -2.5390 -0.8872
28717SOL    HW290709   1.474   0.203  10.814 -0.9557 -3.0832 -0.2644
28718SOL     OW90710   0.089   5.249  10.342 -0.1370  0.1422 -0.1606
28718SOL    HW190711  -0.005   5.235  10.329  0.0788 -0.9945 -0.5913
28718SOL    HW290712   0.105   5.338  10.309 -1.3343  0.9883  1.3962
28719SOL     OW90713   8.713   7.928   1.101  0.4147  0.0339 -0.5660
28719SOL    HW190714   8.791   7.975   1.074  2.3521 -1.7838  1.3860
28719SOL    HW290715   8.707   7.944   1.196 -0.8945 -0.8106 -0.4753
28720SOL     OW90716   2.316   1.834   3.348  0.6994  0.3148 -1.0694
28720SOL    HW190717   2.353   1.771   3.410 -0.1665  0.4472 -0.4048
28720SOL    HW290718   2.239   1.789   3.312  1.9505 -0.3195 -3.1110
28721SOL     OW90719  11.858   7.197   8.573 -0.2238 -0.3463  0.0183
28721SOL    HW190720  11.934   7.195   8.515  0.0675 -1.3229  0.4123
28721SOL    HW290721  11.828   7.288   8.571  0.4207 -0.1441 -0.8282
28722SOL     OW90722   8.997   4.147   4.224  0.4374 -0.1221 -0.5637
28722SOL    HW190723   8.907   4.167   4.248 -0.0443 -2.7476  0.0954
28722SOL    HW290724   9.045   4.146   4.307  0.1725 -2.6754 -0.3800
28723SOL     OW90725   3.218   5.835   8.777  0.3083  0.5766 -0.1064
28723SOL    HW190726   3.166   5.884   8.841  1.1598  2.1246 -0.5381
28723SOL    HW290727   3.160   5.823   8.702 -0.1363  0.2886  0.2809
28724SOL     OW90728   7.426  10.033   3.439  0.0193 -0.9573 -0.0518
28724SOL    HW190729   7.343   9.993   3.412 -0.8805  0.4365  0.5604
28724SOL    HW290730   7.435  10.011   3.532 -0.7797  0.6704  0.4491
28725SOL     OW90731   8.785   1.626   3.462  0.4051  0.0044 -0.1523
28725SOL    HW190732   8.841   1.686   3.413  0.5062 -2.2821 -3.1098
28725SOL    HW290733   8.792   1.543   3.415 -2.1150 -1.5390  1.9224
28726SOL     OW90734  11.617   6.863   1.548  0.0543 -0.1650 -0.2889
28726SOL    HW190735  11.616   6.774   1.582  0.6693 -0.6465 -1.4807
28726SOL    HW290736  11.710   6.888   1.550 -0.1455  0.5650  0.3054
28727SOL     OW90737   7.226   1.712   1.063  0.4986 -0.0950 -0.2195
28727SOL    HW190738   7.249   1.719   1.155 -2.8304 -0.3426  0.7679
28727SOL    HW290739   7.252   1.623   1.038 -0.0968 -0.6321  1.0039
28728SOL     OW90740   5.289   4.007  11.843  1.2110 -0.4724  0.3877
28728SOL    HW190741   5.317   3.921  11.812  0.0237 -0.4411 -0.8719
28728SOL    HW290742   5.214   3.990  11.900 -0.4900 -0.2286 -1.6251
28729SOL     OW90743   5.757  12.056   7.367 -0.2286 -0.0278  0.0215
28729SOL    HW190744   5.664  12.066   7.344 -0.2441  0.0857  0.1317
28729SOL    HW290745   5.758  11.987   7.433 -0.1726 -0.4278 -0.3881
28730SOL     OW90746   4.395   7.818   1.628 -0.3738 -0.2938 -0.2060
28730SOL    HW190747   4.395   7.723   1.615 -1.1851 -0.2282 -0.7486
28730SOL    HW290748   4.316   7.848   1.584 -0.5841  0.5408  0.7113
28731SOL     OW90749   2.474   5.650   6.500  0.1741 -0.2106 -0.0613
28731SOL    HW190750   2.530   5.613   6.432  2.5661  0.8499  1.2068
28731SOL    HW290751   2.414   5.578   6.523  0.5787 -1.1974 -1.8836
28732SOL     OW90752   4.801   0.932   8.033 -0.4729 -0.4707  0.2421
28732SOL    HW190753   4.829   0.855   8.082 -1.3319 -0.6132  0.5169
28732SOL    HW290754   4.826   0.913   7.943  0.3899 -0.5519  0.4820
28733SOL     OW90755   0.660   6.655   6.977 -0.4886 -0.2663  0.0102
28733SOL    HW190756   0.732   6.634   6.917  0.0871 -0.9796  0.9349
28733SOL    HW290757   0.694   6.725   7.032 -0.7145 -0.2054  0.0739
28734SOL     OW90758   6.816   6.542   5.268 -0.0695 -0.5074  0.2863
28734SOL    HW190759   6.796   6.466   5.323 -1.6208  0.1940  0.7775
28734SOL    HW290760   6.833   6.613   5.330  1.6158 -0.4809 -0.1645
28735SOL     OW90761   0.178   9.027  10.020 -0.1562  0.3253 -0.2376
28735SOL    HW190762   0.259   9.075  10.007  0.4080  0.3686  2.6526
28735SOL    HW290763   0.116   9.093  10.052 -1.1703  0.1711 -1.8071
28736SOL     OW90764   8.152   3.312   6.919  0.1059  0.6084  0.1389
28736SOL    HW190765   8.089   3.283   6.984  0.3452 -0.2384  0.0074
28736SOL    HW290766   8.119   3.276   6.836 -0.6527  2.3608 -0.3767
28737SOL     OW90767   3.101   2.188  10.177 -0.2823 -0.1086 -0.7071
28737SOL    HW190768   3.060   2.133  10.109  2.0659 -1.3309 -1.2657
28737SOL    HW290769   3.049   2.268  10.177 -1.5454 -0.8314 -2.6000
28738SOL     OW90770  12.001   7.426   1.193  0.2501  0.4188 -0.2746
28738SOL    HW190771  11.980   7.412   1.101 -0.1027  1.8985 -0.4392
28738SOL    HW290772  11.917   7.434   1.236  0.4090 -0.5873  0.2467
28739SOL     OW90773  10.961   5.445   9.798 -0.0536 -0.3914  0.2640
28739SOL    HW190774  10.991   5.534   9.816 -1.1277  0.1145 -0.3447
28739SOL    HW290775  10.977   5.433   9.704 -2.8203  0.3780 -0.3900
28740SOL     OW90776   0.036   2.056  11.609  0.1152  0.6950  0.1259
28740SOL    HW190777   0.103   2.066  11.677  0.3141  1.6000 -0.1928
28740SOL    HW290778  -0.021   2.132  11.620 -1.1328 -0.2816  0.6677
28741SOL     OW90779   2.785   0.499   8.093  0.1108  0.0874  0.5143
28741SOL    HW190780   2.856   0.563   8.085 -0.3532  0.5023 -0.3680
28741SOL    HW290781   2.830   0.415   8.106  0.8016  0.2042 -0.9828
28742SOL     OW90782   6.498   5.429   8.061  0.4833 -0.1698  0.1756
28742SOL    HW190783   6.524   5.416   7.970  0.8391 -0.2929  0.2967
28742SOL    HW290784   6.580   5.443   8.109  0.1837  2.7768  0.0429
28743SOL     OW90785   0.919   2.540  11.713 -0.1491  0.2663  0.4802
28743SOL    HW190786   0.982   2.508  11.778  1.6875 -1.7146 -2.0869
28743SOL    HW290787   0.866   2.463  11.691 -0.9183  0.9675 -0.2056
28744SOL     OW90788   8.196   4.959   6.441 -0.1287 -0.1855 -0.2650
28744SOL    HW190789   8.194   5.021   6.514 -0.8715 -1.0913  0.5183
28744SOL    HW290790   8.115   4.909   6.450  0.3033 -1.0671 -1.0479
28745SOL     OW90791   8.037   0.818   8.623 -0.5114 -0.7125  0.3190
28745SOL    HW190792   7.949   0.783   8.633 -0.8133 -0.1646 -0.2714
28745SOL    HW290793   8.031   0.876   8.547  0.6139 -1.4683 -0.3709
28746SOL     OW90794   9.977   2.416   9.545 -0.0148  0.0155  0.0468
28746SOL    HW190795  10.009   2.487   9.490 -0.5310 -0.2822 -0.6540
28746SOL    HW290796  10.035   2.417   9.622 -0.5781  1.7575  0.4771
28747SOL     OW90797   2.563   1.235   2.474  0.3548 -0.0536 -0.1506
28747SOL    HW190798   2.591   1.153   2.514  1.9975  1.4787  2.1362
28747SOL    HW290799   2.472   1.245   2.501 -0.1690 -1.5168 -1.2523
28748SOL     OW90800   7.605   9.417   1.380  0.7491 -0.2890 -0.2559
28748SOL    HW190801   7.604   9.488   1.315 -0.0912 -0.8846 -0.9348
28748SOL    HW290802   7.610   9.461   1.464 -2.2030  0.7790 -0.5116
28749SOL     OW90803   0.052   2.033  10.239  0.8181 -0.5953  0.2088
28749SOL    HW190804  -0.013   2.005  10.174 -1.3325  2.3093  0.8826
28749SOL    HW290805   0.048   1.966  10.308 -2.9172  0.3004  1.0659
28750SOL     OW90806   6.664  10.860   2.151  0.6527 -0.0652 -0.3801
28750SOL    HW190807   6.609  10.937   2.136 -1.2254 -0.9444  1.5524
28750SOL    HW290808   6.610  10.786   2.126  2.1562 -0.8539 -1.4691
28751SOL     OW90809   3.738   9.178   5.105 -0.0612 -0.4026  0.7250
28751SOL    HW190810   3.774   9.228   5.032 -1.8632  0.4394  0.3587
28751SOL    HW290811   3.815   9.144   5.150  1.1432 -1.4579 -1.8728
28752SOL     OW90812   8.783  10.311   6.435  0.3135 -0.4106 -0.1071
28752SOL    HW190813   8.752  10.317   6.525  0.0088  2.0180 -0.3106
28752SOL    HW290814   8.818  10.398   6.415 -0.1662 -0.6886 -2.5235
28753SOL     OW90815   2.391   2.570   6.734  0.2440  0.3053 -0.3680
28753SOL    HW190816   2.463   2.592   6.675 -0.5540  0.2636 -1.3653
28753SOL    HW290817   2.361   2.484   6.704  0.5507 -0.2484  0.8180
28754SOL     OW90818   8.062  11.754  11.285 -0.1703 -0.6258  0.2489
28754SOL    HW190819   8.038  11.846  11.293  0.6378  0.0309 -3.1278
28754SOL    HW290820   8.153  11.755  11.257  0.0584 -2.4977  0.7741
28755SOL     OW90821   8.157   3.400   7.504 -0.0937 -0.0836  0.7918
28755SOL    HW190822   8.065   3.427   7.493  0.4644  1.5705 -0.1824
28755SOL    HW290823   8.188   3.451   7.579  0.7910  1.5909 -0.6537
28756SOL     OW90824   0.649   5.216  10.805  0.1922  0.3882  0.1555
28756SOL    HW190825   0.619   5.263  10.728  2.0715  1.1025 -0.1797
28756SOL    HW290826   0.732   5.257  10.828  1.0835 -1.6643  0.8549
28757SOL     OW90827  10.680   3.190   9.476  0.1644 -0.6967 -0.5547
28757SOL    HW190828  10.653   3.140   9.399  3.7110  0.2136 -2.6254
28757SOL    HW290829  10.696   3.279   9.443  1.5156 -0.1857  1.2848
28758SOL     OW90830   8.597   1.297   1.849  0.0868 -0.0678 -0.3902
28758SOL    HW190831   8.622   1.223   1.904  0.6218  0.7953  0.5518
28758SOL    HW290832   8.501   1.295   1.847  0.0761 -0.3191  0.2834
28759SOL     OW90833  11.097   2.824   5.032 -0.3193  0.5539  0.0373
28759SOL    HW190834  11.157   2.831   4.957 -1.2936  0.1972 -0.8011
28759SOL    HW290835  11.152   2.791   5.103  0.3709 -0.2739 -0.8485
28760SOL     OW90836   4.544   3.211   4.738  0.4565 -0.5098 -0.1195
28760SOL    HW190837   4.458   3.190   4.775  0.8190 -0.0682  1.0144
28760SOL    HW290838   4.602   3.216   4.814  0.8050  2.5437 -0.4674
28761SOL     OW90839  10.012  11.722   8.679  0.5251 -0.7019  0.0853
28761SOL    HW190840   9.922  11.706   8.652  0.7010 -1.4846 -0.0596
28761SOL    HW290841  10.037  11.644   8.728  1.4827 -0.9959 -0.8179
28762SOL     OW90842   7.071   0.447  10.741  0.1128 -0.1252  0.6436
28762SOL    HW190843   7.163   0.457  10.763 -0.1128 -0.6308  1.9409
28762SOL    HW290844   7.041   0.535  10.717  1.1193 -0.1116 -0.6817
28763SOL     OW90845   8.650  11.800   2.254 -0.3818 -0.4116 -0.3629
28763SOL    HW190846   8.667  11.707   2.239 -0.8303 -0.5174 -0.2489
28763SOL    HW290847   8.722  11.829   2.310  0.1957 -0.4935 -1.0647
28764SOL     OW90848   8.628   4.303   4.840  0.3086  0.1346 -0.0363
28764SOL    HW190849   8.561   4.267   4.781 -0.7587  0.5037  0.9101
28764SOL    HW290850   8.618   4.398   4.832 -0.0634  0.1907  0.9568
28765SOL     OW90851   0.951  11.926   0.156 -0.3970  0.1317  0.4030
28765SOL    HW190852   0.946  11.970   0.071 -1.8679 -0.3915  0.1852
28765SOL    HW290853   1.000  11.846   0.139  2.2841  1.5963  0.7988
28766SOL     OW90854   1.862  12.023   7.133  0.1720 -0.4651 -0.6716
28766SOL    HW190855   1.874  11.928   7.131  0.0911 -0.4650 -1.3721
28766SOL    HW290856   1.876  12.047   7.224  0.2943 -1.1385 -0.5090
28767SOL     OW90857   3.202   2.506  10.058  0.1967  0.0708 -0.0150
28767SOL    HW190858   3.126   2.460  10.022 -0.4567  1.7490 -0.9288
28767SOL    HW290859   3.277   2.454  10.030 -0.5644 -1.3736  0.5134
28768SOL     OW90860   9.075   0.903  11.900 -0.0977 -0.0191  0.1762
28768SOL    HW190861   8.987   0.939  11.916 -0.2004  0.7191 -1.7200
28768SOL    HW290862   9.067   0.859  11.815  0.7186 -2.3125  1.2440
28769SOL     OW90863   5.258   1.314   9.327  0.1067 -0.0304  0.0829
28769SOL    HW190864   5.248   1.368   9.249 -0.8319 -0.0276  0.1884
28769SOL    HW290865   5.171   1.276   9.341  0.5009 -0.7625  0.5921
28770SOL     OW90866   7.722   1.660   4.169  0.0253 -0.1230 -0.2165
28770SOL    HW190867   7.769   1.657   4.252 -0.1196  0.0532 -0.1278
28770SOL    HW290868   7.768   1.728   4.119 -1.1986  1.3217  0.5287
28771SOL     OW90869   1.069   4.502  11.203 -0.3015 -0.3970  0.2507
28771SOL    HW190870   1.090   4.566  11.271 -0.4888 -0.7902  0.6914
28771SOL    HW290871   1.053   4.554  11.124  2.4510 -0.0539 -0.1785
28772SOL     OW90872   9.239   6.315   7.275 -0.0582  0.5852  0.1541
28772SOL    HW190873   9.291   6.372   7.332  0.1278 -0.9689  1.6205
28772SOL    HW290874   9.260   6.344   7.186  3.3026  0.1000  0.6564
28773SOL     OW90875   5.577   9.280   4.118 -0.7913  0.4884  0.0557
28773SOL    HW190876   5.582   9.316   4.029 -1.1267  1.3004  0.3588
28773SOL    HW290877   5.484   9.288   4.141 -0.5004  1.4817  0.9597
28774SOL     OW90878   4.168   3.178  10.140  0.4850 -0.1720 -0.3646
28774SOL    HW190879   4.147   3.142  10.054 -0.5214 -0.9228  0.1724
28774SOL    HW290880   4.233   3.246  10.122  0.4934 -0.4939 -1.6828
28775SOL     OW90881  10.686   1.324  10.055 -0.6165 -0.5329  0.2285
28775SOL    HW190882  10.748   1.287   9.993 -1.9776 -0.0256 -1.5208
28775SOL    HW290883  10.600   1.300  10.021 -1.4335 -0.9063  2.3739
28776SOL     OW90884   4.507   6.705   5.067  0.1000 -0.3492 -0.4582
28776SOL    HW190885   4.571   6.752   5.122  0.5820 -2.0805  0.5172
28776SOL    HW290886   4.559   6.637   5.024 -0.4940  0.2747 -2.2477
28777SOL     OW90887   5.935   2.634   0.551  0.7007  0.0088  0.0174
28777SOL    HW190888   5.877   2.627   0.627  0.4621  0.0554 -0.1578
28777SOL    HW290889   5.967   2.724   0.554  2.3276 -0.5798  1.2338
28778SOL     OW90890   8.066   6.748   6.818  0.3542 -0.3286 -0.2190
28778SOL    HW190891   8.147   6.759   6.769  0.8056 -0.1263  0.5577
28778SOL    HW290892   8.093   6.707   6.900 -0.0560  1.4271  0.8515
28779SOL     OW90893   3.707   3.071  11.331 -0.9450 -0.1039 -0.4742
28779SOL    HW190894   3.788   3.046  11.287 -1.5760 -1.7405 -0.8030
28779SOL    HW290895   3.696   3.004  11.400 -0.6859  1.6114  1.3231
28780SOL     OW90896   1.273  10.387  10.046  0.4657 -0.7062  0.2715
28780SOL    HW190897   1.184  10.422  10.044  0.4556 -0.6760  1.0191
28780SOL    HW290898   1.295  10.382  10.139  1.2946 -0.5899  0.0906
28781SOL     OW90899  11.592  11.049   6.048  0.2598  0.3851 -1.1949
28781SOL    HW190900  11.559  10.989   5.981  0.8841  0.3446 -1.4762
28781SOL    HW290901  11.641  11.115   5.999  0.5736  0.4535 -0.7917
28782SOL     OW90902   8.789   7.249   9.820  0.2454  0.3751  0.0012
28782SOL    HW190903   8.771   7.247   9.914 -0.9520 -1.0066 -0.2326
28782SOL    HW290904   8.708   7.283   9.781  0.7158  0.8916 -0.5424
28783SOL     OW90905   7.238   7.917  11.269 -0.0039  0.7016 -0.3421
28783SOL    HW190906   7.304   7.982  11.244 -1.1696  1.7399 -0.8580
28783SOL    HW290907   7.285   7.834  11.270  1.0082  1.1862 -2.1350
28784SOL     OW90908  10.852   4.789   9.006  0.0484  0.3548 -0.3345
28784SOL    HW190909  10.774   4.795   9.061 -0.6385  0.7987 -1.3200
28784SOL    HW290910  10.907   4.863   9.034  0.3788 -0.2730  0.7277
28785SOL     OW90911   3.592   9.872   8.916  0.2493 -0.1631  0.0046
28785SOL    HW190912   3.686   9.887   8.927  0.7645 -1.4111 -2.0944
28785SOL    HW290913   3.565   9.830   8.997  2.4402 -3.5960 -0.8409
28786SOL     OW90914   0.639  11.269   3.575 -0.2906 -0.2319 -0.2843
28786SOL    HW190915   0.568  11.330   3.591 -1.2710 -1.1155 -1.1462
28786SOL    HW290916   0.597  11.184   3.563  0.9317 -0.8525 -0.4124
28787SOL     OW90917   6.595   4.509  10.995  0.1013  0.0143  0.4666
28787SOL    HW190918   6.564   4.599  10.999  1.5527  0.5556  0.1757
28787SOL    HW290919   6.602   4.481  11.086  0.9621  0.6858  0.6206
28788SOL     OW90920  11.603   8.852   5.267  0.3873  0.4721 -0.3230
28788SOL    HW190921  11.572   8.850   5.177  1.8964 -0.3072 -0.8648
28788SOL    HW290922  11.583   8.765   5.302  0.4567  0.5296 -0.1361
28789SOL     OW90923  11.534   1.939   8.994  0.1737 -0.0487  0.1868
28789SOL    HW190924  11.462   1.884   8.966  0.9119 -0.7332 -0.4023
28789SOL    HW290925  11.570   1.976   8.913  1.1626 -0.5831  0.3640
28790SOL     OW90926   0.651   7.688   3.050 -0.2912 -0.1949 -0.1650
28790SOL    HW190927   0.642   7.603   3.006 -0.0933 -0.3269  0.0487
28790SOL    HW290928   0.618   7.673   3.138  1.2004 -0.4717  0.3725
28791SOL     OW90929  11.193   6.855   0.307  0.2948  0.0145 -0.1431
28791SOL    HW190930  11.163   6.813   0.387  2.8519 -0.0793  0.8520
28791SOL    HW290931  11.180   6.949   0.322  0.3795 -0.0304  0.2024
28792SOL     OW90932  11.729   6.711  11.024  0.0713 -0.3624 -0.0798
28792SOL    HW190933  11.704   6.619  11.026  0.8074 -0.5549  0.7722
28792SOL    HW290934  11.781   6.724  11.104  1.1742  0.4359 -0.8955
28793SOL     OW90935   7.440   3.519   8.992 -0.1864  0.6001  0.6119
28793SOL    HW190936   7.405   3.519   8.902  1.6643  1.0834 -0.1508
28793SOL    HW290937   7.362   3.531   9.047 -1.5381 -1.0220 -0.8182
28794SOL     OW90938   5.196   1.711   8.084 -0.1207 -0.5356 -0.3769
28794SOL    HW190939   5.123   1.769   8.064  0.1019 -0.5452 -1.2583
28794SOL    HW290940   5.171   1.627   8.046  0.4176 -0.4912 -0.8431
28795SOL     OW90941  10.184   2.714   0.099  0.1000 -0.1695 -1.0547
28795SOL    HW190942  10.120   2.706   0.029 -0.5699 -2.6117 -0.2275
28795SOL    HW290943  10.207   2.624   0.122 -0.6093  0.4573  2.6656
28796SOL     OW90944  11.188   0.481   6.527  0.2660  0.0283 -0.0670
28796SOL    HW190945  11.134   0.457   6.602  1.6532 -0.1016  0.9354
28796SOL    HW290946  11.276   0.450   6.550  0.5175 -1.1110 -2.2613
28797SOL     OW90947   8.885   5.901   8.569  0.4055 -0.2431 -0.2781
28797SOL    HW190948   8.889   5.944   8.484 -0.0764  0.3423 -0.0105
28797SOL    HW290949   8.894   5.972   8.632 -3.4503 -0.0371  0.2575
28798SOL     OW90950   4.101   6.386   3.109  0.2976  0.0043 -0.7166
28798SOL    HW190951   4.126   6.461   3.054  0.5476  0.8033  0.4428
28798SOL    HW290952   4.049   6.425   3.179  0.0386 -0.9857 -0.3490
28799SOL     OW90953   0.426   8.561   1.849  0.5261 -0.1467  0.0145
28799SOL    HW190954   0.495   8.619   1.880  0.1613 -0.8088  2.2295
28799SOL    HW290955   0.463   8.518   1.772  1.5766  1.4021 -0.3921
28800SOL     OW90956   9.965   1.048   2.279 -0.0123  0.1392 -0.1958
28800SOL    HW190957   9.980   0.956   2.302 -0.6515 -0.0346 -0.4388
28800SOL    HW290958   9.917   1.044   2.196 -0.1046  0.6948 -0.1716
28801SOL     OW90959   8.928  11.528   3.947 -0.0943 -0.5165  0.2199
28801SOL    HW190960   9.002  11.553   4.002 -0.8453  1.8927  0.2502
28801SOL    HW290961   8.856  11.513   4.008 -0.1518 -0.9064  0.0625
28802SOL     OW90962   7.461   4.992   3.409  0.0580  0.5525 -0.3124
28802SOL    HW190963   7.470   4.909   3.362  1.6114  0.4616  0.0927
28802SOL    HW290964   7.467   5.059   3.340 -0.4819  0.3578 -0.5528
28803SOL     OW90965   6.507   6.512   3.062 -0.0161  0.6116 -0.3682
28803SOL    HW190966   6.547   6.494   2.977  1.8110 -0.0508  0.5844
28803SOL    HW290967   6.544   6.596   3.088  0.7840 -0.0192  0.5443
28804SOL     OW90968  11.662  10.736   4.068 -0.3857 -0.2883  0.0593
28804SOL    HW190969  11.582  10.687   4.051  0.3418 -1.3780 -0.3498
28804SOL    HW290970  11.645  10.783   4.149 -0.8828 -1.7692  0.8593
28805SOL     OW90971   9.572   0.641   4.603  0.3008  0.1505  0.2890
28805SOL    HW190972   9.654   0.624   4.648  0.4405 -0.9272 -0.3437
28805SOL    HW290973   9.598   0.662   4.513 -0.1236 -0.3130  0.0578
28806SOL     OW90974   2.819   9.964  10.156 -0.1493 -0.0246  0.1006
28806SOL    HW190975   2.791   9.875  10.175  0.0562  0.0767  0.9014
28806SOL    HW290976   2.756   9.996  10.091 -0.8565 -0.3834  0.6054
28807SOL     OW90977   5.474  11.442   6.521 -0.0748 -0.2306  0.4842
28807SOL    HW190978   5.392  11.399   6.497  0.3904 -0.5550 -0.5967
28807SOL    HW290979   5.542  11.380   6.494  0.5665  0.6582  0.0150
28808SOL     OW90980   9.835   8.971  10.606 -0.9276 -0.5126 -0.2346
28808SOL    HW190981   9.856   8.882  10.578  1.4574 -0.2856  0.5558
28808SOL    HW290982   9.764   8.998  10.548  0.6333 -1.6987 -2.9430
28809SOL     OW90983   5.091   8.638   9.358  0.1796  0.4935 -0.7190
28809SOL    HW190984   5.041   8.558   9.344 -0.1501  0.8114 -1.4389
28809SOL    HW290985   5.173   8.609   9.398 -0.9867  0.0572  1.5110
28810SOL     OW90986  11.134   8.161   2.211 -0.0267 -0.7233 -0.3437
28810SOL    HW190987  11.040   8.168   2.196  0.0880 -0.7244 -1.0751
28810SOL    HW290988  11.151   8.222   2.283 -0.4415 -0.0471 -0.8081
28811SOL     OW90989   5.709   5.657   8.372 -0.0849 -0.1543  0.1290
28811SOL    HW190990   5.762   5.705   8.436 -1.0116 -0.5999  1.2607
28811SOL    HW290991   5.742   5.687   8.287  0.5300  1.1789  0.8001
28812SOL     OW90992   6.123   6.664   2.232 -0.2582  0.2498 -0.0697
28812SOL    HW190993   6.040   6.660   2.280  0.6468 -1.8434  1.5040
28812SOL    HW290994   6.148   6.756   2.235 -3.3490  1.3356 -2.2612
28813SOL     OW90995   1.811   1.052   6.330 -0.0514  0.1978 -0.1243
28813SOL    HW190996   1.829   1.039   6.423  0.1992  0.1048 -0.1859
28813SOL    HW290997   1.721   1.085   6.328 -0.2862 -0.4221  0.1064
28814SOL     OW90998   0.164   2.078   2.784 -0.2358 -0.0288  0.0837
28814SOL    HW190999   0.211   2.160   2.769  0.3910 -0.3976  0.0001
28814SOL    HW291000   0.158   2.071   2.879 -0.2883  0.1079  0.0917
28815SOL     OW91001   4.971  11.814   2.069  0.3029 -0.4672 -0.5847
28815SOL    HW191002   4.914  11.890   2.077 -0.1512 -0.8577 -0.1038
28815SOL    HW291003   4.956  11.782   1.980  2.3822  1.4871 -1.7609
28816SOL     OW91004   1.240   6.286   4.386 -0.0984 -0.0561 -0.0378
28816SOL    HW191005   1.272   6.205   4.425  1.9880  0.3225 -0.8224
28816SOL    HW291006   1.156   6.262   4.346  1.2718 -2.3418 -1.8208
28817SOL     OW91007   5.335   5.500   3.893 -0.2011  0.1759  0.3679
28817SOL    HW191008   5.257   5.518   3.841  0.3700  1.8627  0.0539
28817SOL    HW291009   5.386   5.580   3.890  1.0913 -0.5559  1.3994
28818SOL     OW91010   9.052   2.072   1.663 -0.3260  0.4813  0.1490
28818SOL    HW191011   9.072   1.985   1.698  0.2826  0.7206  0.4202
28818SOL    HW291012   9.135   2.101   1.624 -0.8502  0.4369 -1.0498
28819SOL     OW91013   1.355   2.561   5.211  0.4401 -0.0091  0.1153
28819SOL    HW191014   1.385   2.488   5.157  0.5753 -0.1874  0.4304
28819SOL    HW291015   1.271   2.532   5.247  0.7955 -0.2677  0.7507
28820SOL     OW91016   9.746   6.448   1.322  0.0871 -0.5090 -0.2976
28820SOL    HW191017   9.755   6.386   1.394  0.2019 -1.9182 -1.4884
28820SOL    HW291018   9.767   6.397   1.244  0.8202  1.2024 -1.2607
28821SOL     OW91019  11.219   4.932   7.777  0.3727  0.2292 -0.2208
28821SOL    HW191020  11.228   4.853   7.724 -1.9192  0.1294 -0.5511
28821SOL    HW291021  11.293   4.929   7.837 -0.4250 -2.9651  0.7658
28822SOL     OW91022   0.813   6.176   3.306 -0.4995  0.1374 -0.4874
28822SOL    HW191023   0.824   6.211   3.394  2.1649 -1.6023 -0.0212
28822SOL    HW291024   0.863   6.236   3.250  0.0363 -0.2264 -0.4036
28823SOL     OW91025   7.469   0.347   7.331  0.6876 -0.5178 -0.9287
28823SOL    HW191026   7.557   0.318   7.307  0.8284 -0.7176 -0.1811
28823SOL    HW291027   7.442   0.288   7.401 -0.1709 -0.6606 -1.3552
28824SOL     OW91028   1.678   7.480   9.513 -0.2293  0.3461  0.1097
28824SOL    HW191029   1.758   7.435   9.539 -1.1844 -0.3573  2.0428
28824SOL    HW291030   1.706   7.569   9.490  1.0353  0.3280  1.4423
28825SOL     OW91031   8.192  12.069  10.233  0.0515  0.7134 -0.3427
28825SOL    HW191032   8.179  12.159  10.204 -0.6303  1.6645  2.5840
28825SOL    HW291033   8.250  12.076  10.309 -0.3963 -1.2561  0.2437
28826SOL     OW91034  11.218   8.701   1.643 -0.2810  0.4513  0.9505
28826SOL    HW191035  11.306   8.666   1.657 -0.5174 -0.7342 -0.3760
28826SOL    HW291036  11.199   8.750   1.724  0.6989 -1.1522  2.2211
28827SOL     OW91037   2.004   1.872   2.635  0.3746  0.0008  0.0313
28827SOL    HW191038   1.959   1.865   2.551  1.9609  1.2064 -0.9724
28827SOL    HW291039   2.097   1.861   2.614  0.7041 -1.1775  1.8546
28828SOL     OW91040   0.235   0.080  10.633 -0.2095 -0.8596  0.2710
28828SOL    HW191041   0.189   0.136  10.570  2.3524 -1.2368 -2.1504
28828SOL    HW291042   0.279   0.141  10.692 -1.5850 -0.4664  0.9128
28829SOL     OW91043   1.568   3.236   1.712  0.0056 -0.1086  0.6490
28829SOL    HW191044   1.524   3.285   1.781 -2.5035 -1.5996  0.2204
28829SOL    HW291045   1.527   3.150   1.714  1.1279 -0.7611 -1.5225
28830SOL     OW91046   2.016   9.204   7.944 -0.3138 -0.0329  0.0617
28830SOL    HW191047   2.104   9.217   7.909 -0.6429 -0.2518 -0.8662
28830SOL    HW291048   1.958   9.247   7.881 -0.9035 -0.1715  0.4957
28831SOL     OW91049   6.168   2.033  10.456 -0.2272 -0.2948 -0.4967
28831SOL    HW191050   6.109   2.039  10.532  0.3001  0.3777 -0.1258
28831SOL    HW291051   6.115   1.990  10.389 -1.3054  0.6716 -0.3138
28832SOL     OW91052   3.209   5.299   3.698 -0.6180  0.3066 -0.3584
28832SOL    HW191053   3.271   5.294   3.770  0.5444  0.5115 -1.3275
28832SOL    HW291054   3.174   5.388   3.703 -0.0403  0.5403 -0.4581
28833SOL     OW91055   3.452   2.858   9.914 -0.0856 -0.2672  0.2474
28833SOL    HW191056   3.488   2.924   9.855  1.3915 -2.3160 -1.3022
28833SOL    HW291057   3.461   2.896  10.002 -1.1606  2.3389 -0.6841
28834SOL     OW91058  10.466   8.702   3.907  0.4822 -0.6703 -0.3411
28834SOL    HW191059  10.518   8.668   3.835 -1.0110  0.4739 -2.0483
28834SOL    HW291060  10.487   8.796   3.910 -0.3286 -0.4899 -0.0619
28835SOL     OW91061   1.630   3.879   2.951 -0.4895  0.7387 -0.3931
28835SOL    HW191062   1.642   3.971   2.978  0.4487  0.2266  1.1096
28835SOL    HW291063   1.661   3.829   3.026  2.0869 -0.8475 -2.3648
28836SOL     OW91064   2.395   0.574  10.415  0.3466  0.0560  0.5678
28836SOL    HW191065   2.475   0.532  10.447  1.4465  1.1942 -0.6140
28836SOL    HW291066   2.407   0.667  10.435  0.0425  0.4631 -1.0520
28837SOL     OW91067   1.538   1.264   3.246  0.2184  0.6811 -0.4431
28837SOL    HW191068   1.512   1.179   3.209  0.5631  0.1062  0.5899
28837SOL    HW291069   1.494   1.329   3.191  0.6840 -0.1293 -1.8255
28838SOL     OW91070   4.481   4.361   5.065  0.3806 -0.2405 -0.1348
28838SOL    HW191071   4.562   4.398   5.100 -0.8524  0.6064  2.0166
28838SOL    HW291072   4.485   4.268   5.088  1.6655 -0.7110 -1.9995
28839SOL     OW91073   5.256   9.437  10.193  0.0087 -0.1589 -0.2986
28839SOL    HW191074   5.345   9.468  10.210  0.2032  0.1176 -1.7394
28839SOL    HW291075   5.248   9.434  10.098 -0.8720 -2.0970 -0.2267
28840SOL     OW91076   9.309  12.077  10.380 -0.0240  0.0870 -0.0210
28840SOL    HW191077   9.394  12.121  10.384 -0.4584  1.0160 -0.7484
28840SOL    HW291078   9.330  11.984  10.376  0.9586  0.3130 -0.2621
28841SOL     OW91079   9.819   6.419   3.206 -0.4272  0.2005  0.2648
28841SOL    HW191080   9.751   6.388   3.265 -0.9895  1.7777  0.4750
28841SOL    HW291081   9.899   6.418   3.258 -1.0544  2.3513  1.3704
28842SOL     OW91082   3.090  11.214  11.203  0.7014  0.3470  0.0080
28842SOL    HW191083   3.135  11.229  11.119 -1.0899 -1.8284 -1.4633
28842SOL    HW291084   3.109  11.123  11.225  0.0676  0.5028  1.2731
28843SOL     OW91085  11.221   5.883  11.880  0.0042  0.0462 -0.2876
28843SOL    HW191086  11.255   5.822  11.814  0.4563  0.0842 -0.0903
28843SOL    HW291087  11.287   5.884  11.948  0.2822  1.2144 -0.5563
28844SOL     OW91088  10.307   6.507   1.348 -0.7377 -0.0364 -0.2742
28844SOL    HW191089  10.215   6.535   1.346 -0.5350  0.6013 -0.7976
28844SOL    HW291090  10.330   6.492   1.257 -0.4613 -0.6661 -0.1019
28845SOL     OW91091   1.439   3.012   4.038  0.2363 -0.1573  0.3464
28845SOL    HW191092   1.509   3.078   4.039 -0.6027  0.7671  1.6892
28845SOL    HW291093   1.453   2.963   3.957  2.4580 -0.0336  0.5923
28846SOL     OW91094   5.318   7.808   6.618 -0.3241 -0.2831 -0.4818
28846SOL    HW191095   5.356   7.724   6.644 -0.0183  0.3267  1.1354
28846SOL    HW291096   5.330   7.811   6.523 -1.6153 -2.6948 -0.8172
28847SOL     OW91097  10.052   7.845   4.492 -0.1671 -0.2772 -0.4994
28847SOL    HW191098  10.003   7.768   4.520  0.9940 -0.7296  0.3710
28847SOL    HW291099  10.044   7.907   4.565  0.6936 -0.4316 -0.2633
28848SOL     OW91100   4.272   3.349   3.446  0.0342 -0.2678 -0.3679
28848SOL    HW191101   4.336   3.370   3.515 -0.8937  0.3634  0.3266
28848SOL    HW291102   4.235   3.265   3.474 -1.1425  0.5256  0.5262
28849SOL     OW91103   9.952   2.909   2.728 -0.9007  0.3885 -0.0937
28849SOL    HW191104   9.886   2.900   2.659 -0.0522  0.5172 -0.9464
28849SOL    HW291105   9.907   2.955   2.799 -1.6557  0.6939 -0.7616
28850SOL     OW91106  11.188   4.069   8.200  0.0825  0.3166 -0.6299
28850SOL    HW191107  11.249   4.142   8.188  0.7687 -0.2377 -0.6057
28850SOL    HW291108  11.132   4.072   8.123  0.2608  0.7223 -0.7494
28851SOL     OW91109   8.338   1.978   8.914 -0.1855 -0.4932 -0.4308
28851SOL    HW191110   8.383   1.894   8.914  0.0469 -0.6203  3.9848
28851SOL    HW291111   8.252   1.960   8.951 -0.2059  1.1064  0.4204
28852SOL     OW91112   8.776  10.054   4.405  0.0051  0.0531 -0.6197
28852SOL    HW191113   8.723   9.978   4.429 -2.2695  1.4894 -0.8486
28852SOL    HW291114   8.803  10.091   4.490 -2.6904  1.4902 -0.2895
28853SOL     OW91115   5.799  10.902   5.294  0.8277  0.0484 -0.1702
28853SOL    HW191116   5.875  10.954   5.270  1.1357  0.3314  1.2767
28853SOL    HW291117   5.825  10.858   5.375 -0.7260  0.6399  0.7046
28854SOL     OW91118   7.878  11.411   7.214 -0.7890  0.3706  0.1501
28854SOL    HW191119   7.864  11.379   7.125  0.2453  1.5284 -0.4523
28854SOL    HW291120   7.961  11.373   7.241 -0.0638  1.6721 -0.1847
28855SOL     OW91121   5.554   2.913  10.636  0.6946 -0.5114 -0.0140
28855SOL    HW191122   5.607   2.963  10.697  1.8545  1.6085 -2.5491
28855SOL    HW291123   5.609   2.837  10.614  0.5991 -0.8656  0.9274
28856SOL     OW91124  11.248   6.511   3.540  0.1902 -0.1751 -0.2876
28856SOL    HW191125  11.297   6.522   3.459 -1.9286  1.5076 -1.4236
28856SOL    HW291126  11.215   6.421   3.536  1.7140 -0.7819 -0.2617
28857SOL     OW91127   0.841   7.060   5.374 -0.8134 -0.7445  0.3406
28857SOL    HW191128   0.904   6.988   5.371 -1.0481 -0.9656  0.6951
28857SOL    HW291129   0.755   7.018   5.372 -0.9505 -0.4793  0.5125
28858SOL     OW91130   7.547   6.740   9.369  0.0280  0.3226 -0.4462
28858SOL    HW191131   7.453   6.721   9.371 -0.3944  2.2981  0.7971
28858SOL    HW291132   7.554   6.831   9.397  2.5457 -0.6225  2.6076
28859SOL     OW91133   0.439   3.420  10.013 -0.6510  0.6082 -0.2044
28859SOL    HW191134   0.455   3.498  10.065 -0.0175  1.0744 -1.0746
28859SOL    HW291135   0.527   3.390   9.988 -0.7566 -1.3989  1.5575
28860SOL     OW91136   8.356   2.735   6.334 -0.1154 -0.6771  0.2202
28860SOL    HW191137   8.363   2.658   6.390 -0.9366 -2.0558 -1.4702
28860SOL    HW291138   8.279   2.718   6.279 -0.8045  1.7385  0.3363
28861SOL     OW91139   0.253   7.109   0.710 -0.2465 -0.3656  0.1284
28861SOL    HW191140   0.192   7.043   0.742 -0.1411 -1.7433 -2.2821
28861SOL    HW291141   0.338   7.083   0.745 -0.3034 -1.2231 -0.3453
28862SOL     OW91142   3.266   5.374   4.326  0.2661 -0.3777 -0.2935
28862SOL    HW191143   3.270   5.412   4.238  0.2432  0.5361  0.0948
28862SOL    HW291144   3.172   5.370   4.345  0.2939 -0.0720 -0.0949
28863SOL     OW91145  10.665  10.201   0.558 -0.2097  0.1672 -0.1805
28863SOL    HW191146  10.607  10.134   0.596  0.8635 -1.0336 -0.5955
28863SOL    HW291147  10.631  10.283   0.593 -1.4526 -0.5944  0.5144
28864SOL     OW91148   8.866   6.177   2.494 -0.5818  0.5558  0.3108
28864SOL    HW191149   8.807   6.188   2.568 -1.1012  0.1753 -0.0383
28864SOL    HW291150   8.875   6.082   2.484  2.9416  0.4832  2.5760
28865SOL     OW91151   0.196   7.738   5.870  0.0367  0.0272 -0.1276
28865SOL    HW191152   0.127   7.767   5.810 -0.3037 -1.0168 -0.2625
28865SOL    HW291153   0.157   7.749   5.957 -0.2160 -0.3127 -0.1928
28866SOL     OW91154   2.310   3.555   9.388 -0.6647 -0.2300 -0.5827
28866SOL    HW191155   2.327   3.635   9.438 -1.9363  0.3085 -0.9783
28866SOL    HW291156   2.246   3.508   9.440 -1.1149 -0.2265 -1.1323
28867SOL     OW91157   4.659   9.592   3.973  0.2831  0.1329  0.2247
28867SOL    HW191158   4.656   9.501   4.001 -0.0459  0.1521  0.2629
28867SOL    HW291159   4.731   9.596   3.911  1.3873  0.2078  1.4731
28868SOL     OW91160   2.101  10.300   3.374 -0.2652  0.8016 -0.4628
28868SOL    HW191161   2.194  10.314   3.391  0.0815  1.5262 -2.6027
28868SOL    HW291162   2.082  10.355   3.297 -2.2965  0.1295 -0.5111
28869SOL     OW91163   0.535   7.817   4.517  0.1593 -0.2041 -0.0505
28869SOL    HW191164   0.478   7.750   4.480 -0.0143 -0.6436  0.9564
28869SOL    HW291165   0.550   7.788   4.607  0.4877  0.8629  0.2557
28870SOL     OW91166   2.149   2.745   3.050  0.0779 -0.6036  0.3748
28870SOL    HW191167   2.064   2.772   3.083  0.4791 -0.4763  1.3385
28870SOL    HW291168   2.158   2.654   3.078  0.5327 -0.4136  0.8760
28871SOL     OW91169   2.623   5.445   2.531  0.3473 -0.2125 -0.1639
28871SOL    HW191170   2.669   5.501   2.593 -2.3000  2.0792 -0.0664
28871SOL    HW291171   2.664   5.359   2.541  2.6093  0.9921  1.8766
28872SOL     OW91172   5.710   7.714   8.486  0.4114 -0.7115  0.0451
28872SOL    HW191173   5.624   7.674   8.480  0.2674 -0.5721  1.0287
28872SOL    HW291174   5.745   7.685   8.570 -0.2797  2.2685  1.5109
28873SOL     OW91175   0.947   5.909   5.593  0.3256 -0.4269 -0.3131
28873SOL    HW191176   0.972   5.985   5.539  0.1472  0.0821  0.3006
28873SOL    HW291177   1.021   5.849   5.585  0.4687 -0.1890 -0.8186
28874SOL     OW91178   7.591  12.005   3.280 -0.0663 -0.0682 -0.0825
28874SOL    HW191179   7.525  12.069   3.252  0.4753 -0.0702 -1.4390
28874SOL    HW291180   7.583  12.003   3.375 -0.2484  1.8630 -0.0146
28875SOL     OW91181   5.198   2.013   4.639 -0.0615  0.2205  0.5812
28875SOL    HW191182   5.232   1.995   4.552  2.1682 -4.0010  2.0352
28875SOL    HW291183   5.259   2.077   4.676 -0.5048  1.3379 -0.5186
28876SOL     OW91184   9.183   6.820  12.039  0.1923  0.3638 -0.3114
28876SOL    HW191185   9.151   6.827  11.949 -1.9847 -0.3416  0.3255
28876SOL    HW291186   9.213   6.908  12.060  1.4521  0.3738 -1.9330
28877SOL     OW91187   9.059   4.298   6.124 -0.3464 -0.6848  0.3402
28877SOL    HW191188   9.047   4.209   6.091 -1.0753 -0.0209 -1.3115
28877SOL    HW291189   9.052   4.353   6.046  2.2882  0.6943  0.9628
28878SOL     OW91190   1.045  10.796   9.307  0.4390 -0.1335 -0.9358
28878SOL    HW191191   1.097  10.730   9.263 -0.0406 -0.2040 -1.4066
28878SOL    HW291192   1.008  10.849   9.236  1.0923  0.8562 -0.5570
28879SOL     OW91193   8.088   0.406   3.777  0.0403  0.0311  0.0456
28879SOL    HW191194   8.089   0.358   3.860 -0.0553  1.2392  0.7622
28879SOL    HW291195   8.082   0.337   3.710 -1.8799 -0.9084  1.0859
28880SOL     OW91196   5.521   2.387   4.583 -0.2782 -0.6600 -0.4555
28880SOL    HW191197   5.606   2.362   4.621 -0.0334 -0.3547 -0.7909
28880SOL    HW291198   5.499   2.469   4.625 -0.7337 -1.0709  0.1184
28881SOL     OW91199   0.919   6.318   4.424 -0.1481  0.2987  0.1522
28881SOL    HW191200   0.938   6.349   4.513  1.4724  2.0395 -0.7260
28881SOL    HW291201   0.883   6.394   4.380 -0.8143 -0.5111 -0.7331
28882SOL     OW91202   8.495   5.659   0.956  0.4756  0.1313 -0.4082
28882SOL    HW191203   8.566   5.661   1.020  1.0605 -0.1618 -1.0323
28882SOL    HW291204   8.440   5.733   0.978  1.2172  0.6179 -0.1726
28883SOL     OW91205   8.286   0.359   0.203 -0.1753 -0.5960  0.0814
28883SOL    HW191206   8.252   0.383   0.290 -1.4079 -1.7122 -0.0495
28883SOL    HW291207   8.367   0.408   0.195 -0.8106  0.7389  1.2300
28884SOL     OW91208   8.716   0.121   0.319  1.0099  0.4341 -0.2043
28884SOL    HW191209   8.687   0.122   0.228 -0.0230 -0.2545  0.1041
28884SOL    HW291210   8.655   0.062   0.364  0.8563  1.5607  1.1550
28885SOL     OW91211   5.161   8.613  10.170 -0.0467  0.6542 -0.6156
28885SOL    HW191212   5.075   8.602  10.129  0.0909  2.5060 -1.5305
28885SOL    HW291213   5.144   8.605  10.263 -0.9770 -0.2871 -0.8486
28886SOL     OW91214   0.072   2.989   3.127  0.3477  0.9728 -0.2715
28886SOL    HW191215   0.139   2.929   3.159  0.1972  2.2000  2.7201
28886SOL    HW291216  -0.007   2.936   3.119  1.5151 -0.4891 -3.8194
28887SOL     OW91217   1.783   0.676  11.444 -0.3991 -0.2728  0.2867
28887SOL    HW191218   1.767   0.769  11.454  0.2056 -0.2144  0.8133
28887SOL    HW291219   1.846   0.655  11.514  0.7517 -0.7299 -0.8413
28888SOL     OW91220   2.765   8.826   6.977  0.4093 -0.2868  0.6748
28888SOL    HW191221   2.771   8.894   7.044 -0.7585 -1.3289  1.9233
28888SOL    HW291222   2.809   8.750   7.016 -0.3891 -0.9449  0.3351
28889SOL     OW91223   3.602  11.082   8.992  0.7937  0.5915  0.2368
28889SOL    HW191224   3.638  11.032   8.918 -1.1964 -0.8506  0.1633
28889SOL    HW291225   3.609  11.022   9.067  0.0793  0.8934  0.5553
28890SOL     OW91226   3.092   3.361   5.482 -0.2376 -0.5654 -0.6524
28890SOL    HW191227   3.053   3.371   5.569 -1.4012 -1.2839 -1.0665
28890SOL    HW291228   3.186   3.354   5.499 -0.5327 -1.9152  0.6778
28891SOL     OW91229   4.928   3.016  10.049  0.8349  0.0435 -0.6297
28891SOL    HW191230   4.981   2.941  10.019  0.3259 -1.0489  1.0306
28891SOL    HW291231   4.993   3.081  10.077  1.2882  0.3880 -2.3777
28892SOL     OW91232   8.400   2.976   8.021  0.0649  0.1982  0.4010
28892SOL    HW191233   8.378   2.997   8.112 -2.1296  0.5830 -0.1415
28892SOL    HW291234   8.435   3.058   7.985 -0.6471  0.5443  0.4791
28893SOL     OW91235   8.172   4.292   5.346  0.1180  0.5308 -0.1605
28893SOL    HW191236   8.201   4.252   5.428  1.2732  0.5795 -0.5199
28893SOL    HW291237   8.092   4.339   5.369 -0.3095 -0.5332  0.6469
28894SOL     OW91238   2.605  10.044  10.924  0.5240 -0.1774  0.3491
28894SOL    HW191239   2.543  10.114  10.901 -0.0703 -0.4715  1.0403
28894SOL    HW291240   2.598  10.036  11.019  1.1772 -0.6357  0.3608
28895SOL     OW91241  11.976   6.279   5.879 -0.0695 -0.4733 -0.2286
28895SOL    HW191242  12.057   6.230   5.893  0.3939 -0.6991 -3.1207
28895SOL    HW291243  11.906   6.220   5.908  0.7111 -0.6220  1.4576
28896SOL     OW91244   5.890   9.980   8.340 -0.0824 -0.0779 -0.1655
28896SOL    HW191245   5.968   9.942   8.380 -0.2726 -1.4800 -1.0794
28896SOL    HW291246   5.872  10.058   8.393  1.7842  0.1524  0.2076
28897SOL     OW91247  10.213   4.146   9.046  0.0544 -0.3765  0.4135
28897SOL    HW191248  10.250   4.232   9.066  0.2243 -0.5374  0.8035
28897SOL    HW291249  10.121   4.152   9.074 -0.6216  0.4583 -1.7690
28898SOL     OW91250   1.696   8.712   7.725  0.1673 -0.1940 -0.8886
28898SOL    HW191251   1.671   8.622   7.704 -3.6169  0.5037 -0.1198
28898SOL    HW291252   1.703   8.714   7.820 -2.9233  0.8341 -0.5663
28899SOL     OW91253   2.988   4.529   2.187  0.2772  0.6858 -0.1723
28899SOL    HW191254   2.915   4.569   2.234 -0.5766 -1.5136  0.4465
28899SOL    HW291255   2.963   4.535   2.095  0.5837  2.3138 -0.1824
28900SOL     OW91256   2.478   3.455   8.053 -0.3097  0.2289  0.6064
28900SOL    HW191257   2.467   3.461   8.148  0.6714 -0.5170  0.7801
28900SOL    HW291258   2.489   3.361   8.035  1.2754  0.5053 -0.0265
28901SOL     OW91259   8.128   6.065   3.710  0.3841  0.0503  0.3537
28901SOL    HW191260   8.161   6.135   3.766  1.2598  0.6150 -0.8254
28901SOL    HW291261   8.053   6.103   3.665  0.6146  0.1075  0.0127
28902SOL     OW91262   7.857  11.723   5.166 -0.2847  0.2421  0.5009
28902SOL    HW191263   7.814  11.745   5.248 -1.4828 -1.5719  0.4091
28902SOL    HW291264   7.794  11.747   5.098  0.8254  2.0385  0.0250
28903SOL     OW91265   6.595   4.269  11.791 -0.1212  0.2150 -0.1141
28903SOL    HW191266   6.502   4.260  11.814  0.1551  0.1436  1.0345
28903SOL    HW291267   6.625   4.179  11.778  0.0057  0.1670  0.4675
28904SOL     OW91268   9.044   5.903  11.119  0.2910 -0.0198 -0.5299
28904SOL    HW191269   8.957   5.938  11.099  0.4450 -0.5874 -2.4224
28904SOL    HW291270   9.104   5.973  11.093  0.5008 -0.7646 -2.1669
28905SOL     OW91271   0.915   6.187   3.662 -0.3906  0.0302 -0.2614
28905SOL    HW191272   0.839   6.244   3.668  0.0550  0.6160 -0.0077
28905SOL    HW291273   0.894   6.112   3.718 -0.5759  0.4346  0.2161
28906SOL     OW91274  10.671  10.392   5.674 -0.0013  0.4926 -0.3063
28906SOL    HW191275  10.742  10.411   5.612 -0.5176  1.9200 -0.5135
28906SOL    HW291276  10.635  10.309   5.644  0.4398  0.6369 -1.2901
28907SOL     OW91277   8.588   3.181   3.467  0.3902  0.4332  0.0570
28907SOL    HW191278   8.532   3.246   3.424  0.6181  1.1724  0.8330
28907SOL    HW291279   8.581   3.103   3.412 -1.7824  0.3345  0.3809
28908SOL     OW91280   2.811   9.734  11.653  0.6777 -0.2772 -0.3934
28908SOL    HW191281   2.899   9.762  11.626  1.4149 -2.3989 -0.3965
28908SOL    HW291282   2.827   9.665  11.719 -0.9779 -0.6565 -0.3377
28909SOL     OW91283   3.097  11.292  11.838 -0.0722  0.2587 -0.1347
28909SOL    HW191284   3.099  11.334  11.924 -0.3685 -0.7931  0.3940
28909SOL    HW291285   3.184  11.309  11.801 -0.0276  0.9308  0.2570
28910SOL     OW91286   9.383   6.766  11.536  0.5532  0.4316  0.6198
28910SOL    HW191287   9.341   6.804  11.613  1.5791  2.5625  0.2149
28910SOL    HW291288   9.467   6.733  11.569  0.6179  0.5608  0.5880
28911SOL     OW91289   0.546  11.464   7.316  0.4855 -0.0296  0.1049
28911SOL    HW191290   0.596  11.533   7.360  0.0727  0.9304 -0.8984
28911SOL    HW291291   0.507  11.506   7.240  0.5266 -1.4648 -0.7577
28912SOL     OW91292   2.933   9.736   5.103 -0.0439  0.2989 -0.0317
28912SOL    HW191293   2.906   9.696   5.020 -1.0448  1.3987 -0.2589
28912SOL    HW291294   3.001   9.677   5.136 -1.5024 -1.6530 -0.3067
28913SOL     OW91295   9.927   6.668   0.513 -0.3737  0.4195 -0.5498
28913SOL    HW191296   9.890   6.584   0.539 -2.5875  1.4474 -0.2041
28913SOL    HW291297   9.882   6.732   0.567  1.4264  1.8566 -0.6438
28914SOL     OW91298  11.122   1.585   9.524 -0.0024 -0.3447 -0.1413
28914SOL    HW191299  11.074   1.630   9.454 -0.7426  0.9548  1.1466
28914SOL    HW291300  11.158   1.656   9.577  1.5507 -1.3010  0.1511
28915SOL     OW91301   5.113   2.141   0.538  0.0837  0.2683  0.6971
28915SOL    HW191302   5.187   2.164   0.594 -0.2367  0.8015  0.9066
28915SOL    HW291303   5.037   2.180   0.580 -0.0871  1.2112 -0.4146
28916SOL     OW91304   4.105  11.016   8.692  0.7700  0.6510  0.0790
28916SOL    HW191305   4.095  10.967   8.610 -2.5038  0.3622  0.4936
28916SOL    HW291306   4.199  11.018   8.708  1.4051 -0.7739 -2.7684
28917SOL     OW91307   6.479  10.912   3.505  0.1861  0.5035  0.1665
28917SOL    HW191308   6.417  10.914   3.432 -0.4559  0.3182  0.7006
28917SOL    HW291309   6.543  10.845   3.481 -0.0998  0.3474 -0.1626
28918SOL     OW91310  11.172  11.046   9.965 -0.0296  0.1535 -0.0380
28918SOL    HW191311  11.258  11.085   9.954  0.5706 -1.0889  0.1676
28918SOL    HW291312  11.145  11.022   9.877 -0.4016  0.9884 -0.1656
28919SOL     OW91313   6.421   3.596   7.646  0.8284  0.3231  0.5357
28919SOL    HW191314   6.380   3.608   7.560 -1.5721  0.6241  1.6706
28919SOL    HW291315   6.456   3.683   7.667  1.8479  0.1410 -0.2953
28920SOL     OW91316   5.540   3.410   8.885 -0.0133  0.2613 -0.0971
28920SOL    HW191317   5.583   3.485   8.926  1.1812 -0.6824  0.4479
28920SOL    HW291318   5.450   3.439   8.872  0.0102  1.2438  1.5635
28921SOL     OW91319   7.198   9.201   6.231  0.1753  0.3508  1.2405
28921SOL    HW191320   7.171   9.266   6.296  0.9753  0.5606  1.3665
28921SOL    HW291321   7.285   9.230   6.202  0.8595 -1.0358  1.8182
28922SOL     OW91322   2.685  11.334   9.487 -0.3039 -0.1952  0.5687
28922SOL    HW191323   2.757  11.346   9.426 -0.5950 -1.1639  0.0144
28922SOL    HW291324   2.606  11.339   9.433 -0.5862 -0.6026  0.9369
28923SOL     OW91325  10.194   8.999   4.758 -0.0099 -0.2679  0.0714
28923SOL    HW191326  10.266   9.062   4.761  1.0912 -1.5042  0.7137
28923SOL    HW291327  10.212   8.947   4.679 -0.3625 -0.4088  0.0851
28924SOL     OW91328   7.932   9.949   7.772  0.1125  1.0489  0.0904
28924SOL    HW191329   7.933   9.861   7.811  0.0368  1.2840  0.6365
28924SOL    HW291330   7.849   9.953   7.724 -0.9287  1.5687  1.8451
28925SOL     OW91331  10.453   6.816   9.410  0.3348 -0.4321 -0.4069
28925SOL    HW191332  10.390   6.826   9.482  1.1473 -1.6363  0.5164
28925SOL    HW291333  10.492   6.903   9.400 -0.7945  0.0916 -0.3563
28926SOL     OW91334  11.376   8.076  11.474 -0.4920 -0.4915  0.4428
28926SOL    HW191335  11.448   8.014  11.463 -1.0863 -1.0266 -0.5208
28926SOL    HW291336  11.370   8.121  11.389  0.3910  1.4291  1.3121
28927SOL     OW91337   3.047  12.111  10.332  0.3972  0.6397 -0.2853
28927SOL    HW191338   2.954  12.126  10.317  0.1436  0.1198  0.6890
28927SOL    HW291339   3.069  12.039  10.273  0.0129  0.3123 -0.0384
28928SOL     OW91340   0.819   7.004  11.305  0.2147 -0.2708  0.4844
28928SOL    HW191341   0.741   6.962  11.340 -0.9724  0.7985 -0.7691
28928SOL    HW291342   0.886   6.936  11.307 -1.3021 -1.8417 -0.3047
28929SOL     OW91343   8.395  11.214   6.971 -0.0058 -0.2061 -0.0129
28929SOL    HW191344   8.418  11.123   6.987  0.5642 -0.0903 -0.1520
28929SOL    HW291345   8.365  11.247   7.056 -0.1978 -0.5121  0.0409
28930SOL     OW91346   6.743   8.532   9.444  0.2991 -0.4241 -0.1974
28930SOL    HW191347   6.793   8.451   9.440  1.9213  0.3668  1.8463
28930SOL    HW291348   6.769   8.580   9.365  1.1969 -0.9038 -0.2086
28931SOL     OW91349   7.816   5.885   4.647 -0.0095 -0.2364 -0.1869
28931SOL    HW191350   7.852   5.802   4.677 -1.4688 -1.5839 -1.9770
28931SOL    HW291351   7.759   5.914   4.719 -0.9017 -1.7238 -0.2639
28932SOL     OW91352   8.319  11.313   4.448 -0.4349 -0.0276  0.0269
28932SOL    HW191353   8.339  11.228   4.409 -1.7408  0.2782 -1.4000
28932SOL    HW291354   8.238  11.341   4.405 -0.3292  1.6902  0.8604
28933SOL     OW91355   5.860   7.884   0.996  0.7495 -0.4864 -0.2890
28933SOL    HW191356   5.898   7.947   1.058 -0.7417 -1.1296  1.3824
28933SOL    HW291357   5.905   7.901   0.914  1.4770  1.7214  0.4900
28934SOL     OW91358   0.470   9.875   2.380 -0.3852  0.4417 -0.4629
28934SOL    HW191359   0.418   9.819   2.438 -1.3954 -0.2772 -1.9757
28934SOL    HW291360   0.559   9.841   2.386 -0.4356  0.5069  0.7923
28935SOL     OW91361   1.309   1.137   9.764  0.2979  0.2232 -0.2029
28935SOL    HW191362   1.294   1.067   9.828 -0.7062 -1.1503 -1.8483
28935SOL    HW291363   1.237   1.198   9.779 -0.5123 -0.6015 -0.6603
28936SOL     OW91364   3.440   9.210   2.571  0.2610 -0.0724  0.0387
28936SOL    HW191365   3.356   9.240   2.608  0.8687  1.8249 -0.0149
28936SOL    HW291366   3.496   9.196   2.648  0.5340  0.7499  0.0007
28937SOL     OW91367   6.257   0.858   4.040  0.4722  0.2346 -0.1841
28937SOL    HW191368   6.202   0.921   3.994  0.9753  0.5838 -0.3127
28937SOL    HW291369   6.332   0.909   4.070  1.7884 -0.6156 -1.8318
28938SOL     OW91370   7.242   0.857  10.927  0.0362 -0.0932 -0.0753
28938SOL    HW191371   7.165   0.804  10.951  0.5778 -0.8444  0.0472
28938SOL    HW291372   7.306   0.793  10.896 -0.3538  0.7563 -2.9076
28939SOL     OW91373   3.772   8.305  11.789 -0.2080  0.4457  0.3762
28939SOL    HW191374   3.722   8.258  11.856  1.3694 -0.2156  1.1419
28939SOL    HW291375   3.749   8.397  11.802  0.1253  0.3370  1.8902
28940SOL     OW91376   1.590   1.616   5.608 -0.0499 -0.6610 -0.7737
28940SOL    HW191377   1.599   1.525   5.579 -1.2769 -0.9113 -0.4241
28940SOL    HW291378   1.521   1.652   5.553  0.3539  0.0425 -0.8330
28941SOL     OW91379  11.456  11.576   3.922 -0.0900  0.2879  0.2302
28941SOL    HW191380  11.449  11.531   3.838 -0.5854  0.4526  0.1797
28941SOL    HW291381  11.379  11.633   3.926  0.6701  1.3569  0.1687
28942SOL     OW91382   6.879  11.046   3.224 -0.1421 -0.1442  0.3616
28942SOL    HW191383   6.865  10.974   3.162  0.4346 -0.1965  0.2865
28942SOL    HW291384   6.791  11.073   3.250 -0.4830  0.9630 -1.7327
28943SOL     OW91385   7.197  10.146   9.001  0.0190 -0.6227  0.6397
28943SOL    HW191386   7.211  10.053   9.020 -2.0052 -0.9809  0.6240
28943SOL    HW291387   7.148  10.146   8.919  2.5839  0.6383 -1.0134
28944SOL     OW91388   6.154   0.900   6.035  0.2325 -0.2635  0.3512
28944SOL    HW191389   6.171   0.993   6.021 -3.0485  0.4390  0.3554
28944SOL    HW291390   6.220   0.873   6.100  1.8221  1.7737 -0.3207
28945SOL     OW91391   8.233   8.665  12.061 -0.4134 -0.1613 -0.9646
28945SOL    HW191392   8.197   8.584  12.024 -0.1945 -0.8447  0.2330
28945SOL    HW291393   8.157   8.717  12.085 -0.6008 -0.7354 -0.2628
28946SOL     OW91394  11.016  11.610   4.847 -0.0444  0.2119 -0.2594
28946SOL    HW191395  10.967  11.576   4.922 -0.5538  0.1291 -0.6220
28946SOL    HW291396  10.957  11.598   4.773  0.2119  0.8764 -0.5732
28947SOL     OW91397   3.905  10.844   9.190 -0.0785  0.0546  0.5763
28947SOL    HW191398   3.823  10.885   9.162  0.0884  0.8920  1.2820
28947SOL    HW291399   3.879  10.759   9.223 -0.5086 -0.1888 -0.3560
28948SOL     OW91400   8.785   7.294   1.823 -0.0071 -0.1244  0.2089
28948SOL    HW191401   8.788   7.361   1.755  0.2011  0.0515  0.3876
28948SOL    HW291402   8.842   7.328   1.892  0.4219 -0.6745  0.1300
28949SOL     OW91403   2.046   4.043  11.682  0.5633 -0.7336 -0.2516
28949SOL    HW191404   2.015   4.051  11.772  1.5221 -0.7955  0.1006
28949SOL    HW291405   2.084   3.956  11.677  0.4387 -0.7630 -0.7442
28950SOL     OW91406   0.050   8.050   8.130 -0.3942 -0.0257  0.4176
28950SOL    HW191407  -0.042   8.037   8.107 -0.4302 -1.4607  1.2828
28950SOL    HW291408   0.058   8.144   8.144 -1.0582  0.5455 -2.4036
28951SOL     OW91409   9.283   0.995  10.704 -0.2157  0.4342  0.6961
28951SOL    HW191410   9.328   1.031  10.781 -0.4870  0.8375  0.6710
28951SOL    HW291411   9.212   0.942  10.740  0.8278 -0.9824  0.7586
28952SOL     OW91412   7.237   3.788   8.093 -0.0673  0.3812 -0.5612
28952SOL    HW191413   7.146   3.780   8.121  0.2937  1.4845  1.0200
28952SOL    HW291414   7.277   3.704   8.116 -0.3362  0.4434  0.1515
28953SOL     OW91415   6.948   7.701   0.936  0.5385  0.8373  0.2242
28953SOL    HW191416   6.865   7.743   0.959 -1.3322 -1.9471 -0.9227
28953SOL    HW291417   6.976   7.745   0.856 -1.9736 -0.6554 -1.6060
28954SOL     OW91418   8.058   8.804   2.106  0.1906  0.5668  0.5194
28954SOL    HW191419   8.104   8.862   2.046 -0.3867 -0.4980 -1.0410
28954SOL    HW291420   7.970   8.841   2.114 -0.1521  0.0070 -0.4112
28955SOL     OW91421   4.958   8.953   2.590  0.5809 -0.1122 -0.3905
28955SOL    HW191422   4.872   8.967   2.550 -0.6129  0.1116  2.0587
28955SOL    HW291423   5.009   9.031   2.567 -0.6581  0.8463  0.0167
28956SOL     OW91424   2.954   3.378   7.714 -0.5603 -0.5967  0.3834
28956SOL    HW191425   2.962   3.416   7.627 -1.0150 -1.1389  0.0980
28956SOL    HW291426   3.030   3.321   7.723 -0.6624 -0.7559  0.2321
28957SOL     OW91427   9.461   4.333  10.945 -0.0706  0.2804  0.4827
28957SOL    HW191428   9.483   4.420  10.914 -0.2288 -0.1829 -0.9933
28957SOL    HW291429   9.366   4.327  10.939  0.0037 -0.3142 -0.3946
28958SOL     OW91430   6.613   4.830   6.630  0.2951 -0.9002 -0.1080
28958SOL    HW191431   6.630   4.919   6.601  1.1884 -1.0128  0.0154
28958SOL    HW291432   6.600   4.780   6.549 -1.2756 -0.4750 -0.1382
28959SOL     OW91433   7.797   9.987   6.386 -0.2932  0.0120 -0.0208
28959SOL    HW191434   7.739   9.919   6.421  0.3348 -1.0176 -0.9059
28959SOL    HW291435   7.821  10.040   6.462 -0.7599 -0.7998  0.7022
28960SOL     OW91436   3.185   5.014   9.120  0.4315 -0.2800 -1.5572
28960SOL    HW191437   3.114   5.061   9.077 -0.0946  0.7699  0.3036
28960SOL    HW291438   3.157   5.008   9.212  2.1115 -1.0981 -1.0560
28961SOL     OW91439  10.522  11.187   5.820  0.3855 -0.0231  0.2725
28961SOL    HW191440  10.571  11.219   5.744  0.7794 -1.6694 -0.1910
28961SOL    HW291441  10.588  11.146   5.875 -0.0351  0.3843  1.0917
28962SOL     OW91442   4.380  10.734   7.750  0.2239  0.3526  0.4759
28962SOL    HW191443   4.457  10.684   7.777  0.1888  0.4839  0.8302
28962SOL    HW291444   4.332  10.750   7.831 -1.9596 -2.6003 -0.0752
28963SOL     OW91445   9.052  11.802   7.634 -0.1210  0.4735 -0.2195
28963SOL    HW191446   9.038  11.708   7.643 -1.8192  0.5597 -1.4632
28963SOL    HW291447   9.047  11.836   7.723 -1.3716 -0.4040  0.0739
28964SOL     OW91448   9.963   1.822   0.981  0.1847 -0.2567  0.8782
28964SOL    HW191449   9.947   1.728   0.990  0.0418 -0.3766 -0.4431
28964SOL    HW291450   9.876   1.861   0.972  0.2238  0.0553  1.7306
28965SOL     OW91451   4.869   6.592   6.761 -0.9301 -0.1579  0.5018
28965SOL    HW191452   4.909   6.506   6.776 -0.0701  0.1734  0.1495
28965SOL    HW291453   4.900   6.618   6.674 -1.0646  0.5787  0.6721
28966SOL     OW91454   0.369  11.202  11.619 -0.2343 -0.6962 -0.6091
28966SOL    HW191455   0.409  11.287  11.601  1.9150 -1.7614 -1.2527
28966SOL    HW291456   0.328  11.176  11.537 -0.5961 -0.4423 -0.5117
28967SOL     OW91457  10.637   9.784   6.541  0.0525 -0.3906  0.1853
28967SOL    HW191458  10.639   9.721   6.613 -0.9398 -1.5220 -0.7547
28967SOL    HW291459  10.618   9.868   6.584 -0.8923 -1.1000  1.2108
28968SOL     OW91460   7.018  11.729   2.534  0.1304  0.2058  0.1207
28968SOL    HW191461   6.975  11.811   2.558 -1.0595 -0.6465  1.0870
28968SOL    HW291462   7.103  11.755   2.500 -0.7294  1.9150 -0.8697
28969SOL     OW91463   9.035   3.508   4.048  0.1541 -0.1479  0.3519
28969SOL    HW191464   8.975   3.582   4.054  1.3364  0.7708  1.4575
28969SOL    HW291465   9.050   3.497   3.954  0.7361  1.6910  0.1927
28970SOL     OW91466   7.480   4.598   5.882  0.0601  0.0815  0.2232
28970SOL    HW191467   7.476   4.639   5.969 -0.1720  1.5592 -0.4468
28970SOL    HW291468   7.572   4.604   5.857  0.0746 -0.0795  0.2355
28971SOL     OW91469   5.538   5.575   0.777 -0.2676 -0.4155 -0.6143
28971SOL    HW191470   5.524   5.654   0.829 -2.5368 -1.3123  0.2457
28971SOL    HW291471   5.520   5.503   0.837 -0.0759 -1.5534 -1.8777
28972SOL     OW91472   0.532   6.442  11.775 -0.3350  0.1746  0.3640
28972SOL    HW191473   0.468   6.371  11.786 -1.1149  0.4777 -1.7641
28972SOL    HW291474   0.494   6.517  11.821 -1.0030  0.0578  0.0030
28973SOL     OW91475   9.673   2.276   9.687  0.0779 -0.8466  0.0583
28973SOL    HW191476   9.698   2.319   9.605  0.2650 -0.8537  0.1101
28973SOL    HW291477   9.666   2.183   9.664 -1.6027 -0.6497 -0.3582
28974SOL     OW91478   9.008   6.750   8.461 -0.2599 -0.3171 -0.3878
28974SOL    HW191479   8.914   6.767   8.453  0.0479  0.8838 -2.0549
28974SOL    HW291480   9.050   6.831   8.433  1.2773 -1.5557 -1.9169
28975SOL     OW91481   9.668   0.185   6.393 -0.9790 -0.0483  0.1681
28975SOL    HW191482   9.749   0.217   6.353 -1.4285 -0.0423 -0.7672
28975SOL    HW291483   9.697   0.122   6.459 -0.2429 -2.4340 -2.2606
28976SOL     OW91484   3.622   9.796   3.711 -0.3616 -0.2551  0.4685
28976SOL    HW191485   3.676   9.870   3.685  1.8930 -1.3599  1.7249
28976SOL    HW291486   3.534   9.833   3.721 -0.0866  1.4891 -2.2782
28977SOL     OW91487   6.948   7.506   7.044 -0.0759  0.7953  0.4379
28977SOL    HW191488   6.942   7.456   7.126  0.5259  1.1758  0.7261
28977SOL    HW291489   6.936   7.441   6.975 -1.9235  0.6747  0.8329
28978SOL     OW91490   4.568  11.699  10.549 -0.3873 -0.3841  0.3682
28978SOL    HW191491   4.634  11.695  10.479 -1.1669  0.7749 -0.4712
28978SOL    HW291492   4.519  11.617  10.540  0.8194 -1.2088  0.9247
28979SOL     OW91493   3.099   6.118   8.594  0.4432  0.1408  0.3794
28979SOL    HW191494   3.162   6.190   8.603 -0.2561  0.7054  0.8821
28979SOL    HW291495   3.052   6.118   8.678 -1.2826  0.7396 -0.5595
28980SOL     OW91496   5.150   3.815   8.489 -0.1714  0.3511  0.1926
28980SOL    HW191497   5.195   3.748   8.437 -0.4101  0.3460 -0.0112
28980SOL    HW291498   5.187   3.898   8.457  0.5600  0.2987  0.8624
28981SOL     OW91499  10.228   6.170  10.642 -0.3756  0.1213  0.5955
28981SOL    HW191500  10.301   6.223  10.672 -0.6851  1.2055 -0.4898
28981SOL    HW291501  10.246   6.154  10.549 -0.8360 -0.7633  0.6440
28982SOL     OW91502   0.419  10.924   3.304 -0.1754  0.2448 -0.1062
28982SOL    HW191503   0.325  10.910   3.291 -0.0227 -1.3241  0.3031
28982SOL    HW291504   0.459  10.839   3.286  1.1646  0.8284 -0.0612
28983SOL     OW91505  11.006   9.667   1.680  0.2849  0.6572  0.2372
28983SOL    HW191506  11.033   9.619   1.758 -1.0935 -1.1275 -0.3069
28983SOL    HW291507  10.910   9.665   1.683  0.1428 -0.7429 -2.1659
28984SOL     OW91508   3.021  10.664   9.162  0.4255  0.0164  0.2794
28984SOL    HW191509   3.038  10.580   9.204 -0.5256 -0.5023 -0.3479
28984SOL    HW291510   2.999  10.723   9.234 -1.6969 -0.9861  0.5409
28985SOL     OW91511   5.525   9.782   2.672 -0.0322 -0.3570  0.0583
28985SOL    HW191512   5.430   9.779   2.659  0.0815  1.2325 -1.6080
28985SOL    HW291513   5.561   9.740   2.594  0.6041  2.8120 -1.5362
28986SOL     OW91514   9.783   1.295  12.067  1.3008  0.0674 -0.1429
28986SOL    HW191515   9.697   1.267  12.098  1.0975  1.2095  0.3667
28986SOL    HW291516   9.826   1.214  12.039 -0.6974 -0.3265 -2.4160
28987SOL     OW91517   7.134   8.219   0.964  0.2260  0.1018 -0.3288
28987SOL    HW191518   7.065   8.280   0.937 -0.3975 -0.0550  0.8632
28987SOL    HW291519   7.103   8.183   1.047  2.0820  0.5729  0.6113
28988SOL     OW91520   4.393  10.925   1.403 -0.6850 -0.3223 -0.0199
28988SOL    HW191521   4.353  10.878   1.330 -0.1012  0.4214 -0.8416
28988SOL    HW291522   4.468  10.971   1.364 -0.9878  0.9475  0.8285
28989SOL     OW91523   1.307   6.821   9.919  0.0124  0.1572 -0.0187
28989SOL    HW191524   1.323   6.915   9.913 -0.6280  0.1789 -4.0852
28989SOL    HW291525   1.213   6.811   9.901 -0.2663 -1.2216  1.8923
28990SOL     OW91526   0.613  10.742  11.978  0.1526 -0.5054 -0.2415
28990SOL    HW191527   0.666  10.803  12.029 -0.2437 -0.6222  0.3271
28990SOL    HW291528   0.528  10.741  12.024  0.3159 -1.8749  0.0633
28991SOL     OW91529   3.940   3.379   4.691 -0.2784 -0.4471  0.0771
28991SOL    HW191530   4.004   3.375   4.620 -0.2999  0.1705  0.0203
28991SOL    HW291531   3.878   3.447   4.664  0.5906  0.9281  1.4109
28992SOL     OW91532   5.009   6.332   7.311 -0.5797 -0.4042  0.7354
28992SOL    HW191533   5.100   6.342   7.339 -0.3866 -1.6849  0.5874
28992SOL    HW291534   4.994   6.406   7.251  0.1069  0.2607  1.3710
28993SOL     OW91535  11.092   8.207   3.062  0.0608 -0.1297  0.4648
28993SOL    HW191536  11.186   8.212   3.075  0.1964 -0.9215 -0.1213
28993SOL    HW291537  11.078   8.122   3.020 -1.0345 -0.5404  1.5895
28994SOL     OW91538   2.061   6.309   1.977 -0.0522  0.0047 -0.2010
28994SOL    HW191539   2.024   6.237   1.927 -0.3069  0.2049 -0.3052
28994SOL    HW291540   2.037   6.291   2.068  1.3293 -0.9262  0.0097
28995SOL     OW91541   0.930   7.901   6.517 -0.1596 -0.7360  0.0749
28995SOL    HW191542   0.865   7.961   6.551 -0.1087 -0.6621  0.0436
28995SOL    HW291543   0.951   7.936   6.430  1.7738  0.7211  1.0479
28996SOL     OW91544   7.723   8.828   4.527  0.2841 -0.2342 -0.1691
28996SOL    HW191545   7.763   8.887   4.591 -0.1839  0.0809 -0.1646
28996SOL    HW291546   7.780   8.752   4.526  0.9423  0.2491 -0.2325
28997SOL     OW91547   1.237   9.907  10.881 -0.3417 -0.2137 -0.7400
28997SOL    HW191548   1.186   9.987  10.873 -3.5825 -1.8532  1.2396
28997SOL    HW291549   1.256   9.901  10.975  1.1392 -1.0426 -1.0714
28998SOL     OW91550   3.380   3.203   8.163 -0.1559  0.1061 -0.4421
28998SOL    HW191551   3.289   3.174   8.163 -0.4157  0.8676 -1.2555
28998SOL    HW291552   3.405   3.201   8.256 -1.7596  2.1140  0.1253
28999SOL     OW91553   6.363   3.135   9.791 -0.7119 -0.2858 -0.3216
28999SOL    HW191554   6.373   3.144   9.885 -0.7937  1.8672 -0.4664
28999SOL    HW291555   6.344   3.224   9.760  0.5883 -0.6885 -2.5201
29000SOL     OW91556   7.768   5.717   3.702  0.0438  0.0378 -0.1121
29000SOL    HW191557   7.773   5.682   3.613 -0.2254  0.8189 -0.4439
29000SOL    HW291558   7.845   5.681   3.746  1.2887  1.2062 -1.2410
29001SOL     OW91559  10.690  10.790   5.623 -0.1517  0.0115  0.3329
29001SOL    HW191560  10.639  10.723   5.579 -0.2023  0.0593  0.3196
29001SOL    HW291561  10.645  10.872   5.602  0.5306  0.1766 -0.5873
29002SOL     OW91562   3.800   8.828  10.026 -0.0878 -0.2455 -0.2673
29002SOL    HW191563   3.710   8.825  10.057 -0.0592 -0.1854 -0.1782
29002SOL    HW291564   3.829   8.737  10.029 -0.4144 -0.3834 -1.0987
29003SOL     OW91565   8.695   0.596   2.873  0.7418  0.1043  0.2792
29003SOL    HW191566   8.631   0.584   2.943  1.3492  1.7672  1.1564
29003SOL    HW291567   8.748   0.516   2.876  0.5178 -0.0232  1.4687
29004SOL     OW91568  10.545   4.824   6.530 -0.1033  0.1826  0.6022
29004SOL    HW191569  10.482   4.803   6.462  1.5729 -0.6870 -0.7595
29004SOL    HW291570  10.543   4.749   6.589 -0.2384  0.1043  0.4978
29005SOL     OW91571   1.051   5.910   1.653 -0.0217 -0.2855  0.2630
29005SOL    HW191572   1.037   5.843   1.586  1.9966 -1.5028  0.9729
29005SOL    HW291573   0.998   5.882   1.727 -0.6373 -0.0592 -0.0828
29006SOL     OW91574   7.172   4.030   5.172 -0.0397 -0.2781 -0.3636
29006SOL    HW191575   7.121   4.079   5.237 -1.5139 -0.4842 -1.3208
29006SOL    HW291576   7.261   4.027   5.208 -0.3717  1.3462  0.6649
29007SOL     OW91577   4.318   8.303  11.350  0.0599  0.0384  0.9178
29007SOL    HW191578   4.291   8.248  11.424 -2.6253  0.4059  0.3128
29007SOL    HW291579   4.283   8.390  11.371  3.4897  1.4210  1.4497
29008SOL     OW91580   4.618  10.646   7.859  0.0267 -0.0673 -0.1280
29008SOL    HW191581   4.605  10.693   7.941 -2.2610  1.3650 -1.1728
29008SOL    HW291582   4.656  10.712   7.800  2.7947 -1.4024  0.0171
29009SOL     OW91583  10.256   8.230   7.559 -0.1458  0.2127  0.0797
29009SOL    HW191584  10.184   8.238   7.496  2.2963  0.5365 -2.8772
29009SOL    HW291585  10.262   8.136   7.576 -1.2427  0.1797  0.3916
29010SOL     OW91586   3.117   6.396   8.229 -0.0177  0.6316  0.3532
29010SOL    HW191587   3.175   6.321   8.219  0.4597  0.9513  0.6750
29010SOL    HW291588   3.034   6.368   8.189  0.6058  0.4676 -0.8771
29011SOL     OW91589   4.657   2.411  10.300  0.1913  0.2242 -0.4779
29011SOL    HW191590   4.624   2.501  10.307  1.3232  0.7841 -1.9535
29011SOL    HW291591   4.703   2.397  10.383 -0.9614  0.5743  0.2468
29012SOL     OW91592   4.378   8.492   8.378 -0.3180 -0.6178 -0.7714
29012SOL    HW191593   4.322   8.425   8.337 -1.2682  0.4494 -1.2791
29012SOL    HW291594   4.326   8.523   8.452  0.3393 -0.7975 -0.2346
29013SOL     OW91595   9.909  10.152   1.575 -0.3297 -0.0584 -0.2808
29013SOL    HW191596   9.996  10.122   1.601 -0.2293  1.2991  1.0480
29013SOL    HW291597   9.849  10.093   1.620 -0.1457  1.7953  2.6625
29014SOL     OW91598   7.068  10.165  11.946 -0.2824 -0.5827  0.3297
29014SOL    HW191599   7.125  10.216  12.004 -1.2613 -0.3453  1.1250
29014SOL    HW291600   7.079  10.204  11.860 -0.2110  0.2966  0.7258
29015SOL     OW91601   0.065   1.752   8.943 -0.1107  0.1117 -0.4510
29015SOL    HW191602   0.015   1.809   8.885 -3.1257 -2.8654 -1.0906
29015SOL    HW291603   0.062   1.666   8.900  1.2147 -1.2930  2.0581
29016SOL     OW91604   8.194   1.924   5.903  0.4392 -0.2877 -0.2999
29016SOL    HW191605   8.135   1.853   5.877  0.6073 -0.4502 -0.2377
29016SOL    HW291606   8.280   1.883   5.909  0.4207 -0.2259  0.4036
29017SOL     OW91607  10.630   3.154  10.465  0.2773 -0.1851 -0.1689
29017SOL    HW191608  10.565   3.170  10.534  0.1881 -0.7653 -0.1146
29017SOL    HW291609  10.713   3.183  10.504  0.1367  0.0512 -0.0405
29018SOL     OW91610   2.424   8.896   3.742 -0.4587 -0.3146 -0.6999
29018SOL    HW191611   2.489   8.963   3.724  0.6984 -0.7833  1.3953
29018SOL    HW291612   2.357   8.940   3.794 -2.1153  0.2499 -3.1192
29019SOL     OW91613   8.944   0.533   5.356  0.1126 -0.1234  0.1302
29019SOL    HW191614   8.875   0.596   5.379  2.1217  1.9602  0.8008
29019SOL    HW291615   8.957   0.545   5.262 -1.8734 -2.1353 -0.4834
29020SOL     OW91616   5.807   5.563   6.551  0.0572 -0.3606  0.0229
29020SOL    HW191617   5.802   5.616   6.472  0.2268 -0.5332 -0.1040
29020SOL    HW291618   5.727   5.511   6.551  0.1310 -0.4751 -0.1177
29021SOL     OW91619   5.201   2.958   4.968 -0.7203  0.5019 -0.4517
29021SOL    HW191620   5.224   3.011   5.045 -2.2617 -1.1258  1.2394
29021SOL    HW291621   5.106   2.946   4.975 -0.5694 -1.5442 -1.3850
29022SOL     OW91622   2.996   4.091   6.402  0.1788  0.2610  0.0521
29022SOL    HW191623   2.943   4.147   6.347 -2.0994 -1.6459  0.1396
29022SOL    HW291624   2.967   4.110   6.491  1.0705  0.5643  0.2941
29023SOL     OW91625  11.391   3.853   7.650  0.1337  0.0345 -0.2957
29023SOL    HW191626  11.404   3.868   7.744 -1.4509  0.1760 -0.0588
29023SOL    HW291627  11.384   3.941   7.613  0.4693 -0.0251 -0.5058
29024SOL     OW91628   4.779   4.332   4.383  0.1826  0.4239 -0.0036
29024SOL    HW191629   4.752   4.291   4.465 -1.6041 -0.5109 -0.9917
29024SOL    HW291630   4.823   4.262   4.335 -2.2851 -0.2632 -1.4189
29025SOL     OW91631   7.411   0.631   9.535  0.1963 -0.3745 -0.2304
29025SOL    HW191632   7.324   0.638   9.496 -0.3709 -0.5179  0.9764
29025SOL    HW291633   7.456   0.565   9.481 -0.4711 -0.3719 -0.8013
29026SOL     OW91634   0.742   8.473   2.445  0.3862 -0.1045  0.3227
29026SOL    HW191635   0.657   8.431   2.452 -0.1568  1.0962  1.4715
29026SOL    HW291636   0.788   8.448   2.525  0.3019  0.9175  0.7091
29027SOL     OW91637   5.332   9.082   7.812  0.5150 -0.5656  0.2748
29027SOL    HW191638   5.258   9.106   7.756  0.5213 -0.2273  0.4038
29027SOL    HW291639   5.299   9.011   7.867  0.7940 -1.5325 -0.7785
29028SOL     OW91640   4.335   0.513   3.753 -0.2559 -0.2350 -0.2382
29028SOL    HW191641   4.243   0.497   3.734  0.1272 -0.1599 -2.3222
29028SOL    HW291642   4.335   0.550   3.842 -2.5312  2.4932 -1.2180
29029SOL     OW91643   5.065   5.756   5.443  0.5017  0.2102  0.3290
29029SOL    HW191644   5.009   5.722   5.513 -3.4366  3.0912 -1.0714
29029SOL    HW291645   5.109   5.832   5.482  1.6745 -0.6750  0.7756
29030SOL     OW91646   0.372  11.953   3.664 -0.0210  0.2906 -0.4509
29030SOL    HW191647   0.303  11.934   3.601  0.3005 -1.5060 -0.3107
29030SOL    HW291648   0.328  11.954   3.749 -0.4990  2.9601 -0.6570
29031SOL     OW91649  10.902  10.374   7.147  0.1252  0.4889 -0.0526
29031SOL    HW191650  10.864  10.312   7.086 -0.2502  1.1105 -0.4645
29031SOL    HW291651  10.953  10.320   7.208  2.6753  0.0103 -2.3872
29032SOL     OW91652  11.105   3.469   4.660  0.2673 -0.1517 -0.3153
29032SOL    HW191653  11.019   3.428   4.653  0.6101 -1.1825  1.0068
29032SOL    HW291654  11.090   3.547   4.715  0.0983 -0.0407 -0.5173
29033SOL     OW91655   1.728   9.857  10.527  0.3995 -0.0713  0.7265
29033SOL    HW191656   1.657   9.842  10.590 -0.6550 -5.1746 -1.2178
29033SOL    HW291657   1.683   9.864  10.442  2.0722 -1.3503 -0.3266
29034SOL     OW91658   9.899   8.066   1.123  0.4276 -0.9722  0.1012
29034SOL    HW191659   9.868   7.990   1.173  0.9617 -1.0253  0.3556
29034SOL    HW291660   9.821   8.122   1.114  0.1288 -1.3558  0.2602
29035SOL     OW91661  10.249  11.229   1.185 -0.1027 -0.1585 -0.1015
29035SOL    HW191662  10.242  11.134   1.194 -0.2424 -0.4211 -2.3870
29035SOL    HW291663  10.316  11.255   1.248  0.4259 -1.8606  0.0668
29036SOL     OW91664  10.278   3.948   8.884  0.5188  0.8128 -0.6552
29036SOL    HW191665  10.264   4.014   8.952 -0.7793 -0.7926  0.7346
29036SOL    HW291666  10.197   3.950   8.833  0.7367  0.7367 -1.0045
29037SOL     OW91667   5.945   8.472   8.359 -0.2454  0.4134  0.4071
29037SOL    HW191668   6.028   8.438   8.325 -0.2209  2.1050 -1.4330
29037SOL    HW291669   5.938   8.435   8.447  0.8850 -2.3284 -0.5262
29038SOL     OW91670   7.542   5.237   6.937 -0.0084 -0.0185  0.3067
29038SOL    HW191671   7.481   5.260   7.006  1.9369  0.8769  1.8434
29038SOL    HW291672   7.535   5.310   6.874 -0.6776 -0.0514  0.3386
29039SOL     OW91673   2.196  11.525   1.122  0.3568  0.3168  0.5739
29039SOL    HW191674   2.103  11.507   1.136  0.6297 -2.1368 -0.3304
29039SOL    HW291675   2.226  11.561   1.205 -1.2919  0.7846  1.0101
29040SOL     OW91676  12.101   3.955  10.173  0.1125  0.0260  0.0965
29040SOL    HW191677  12.058   3.909  10.245 -1.5213  1.8419  0.3492
29040SOL    HW291678  12.176   3.999  10.213 -0.3112  0.3579  0.5329
29041SOL     OW91679   3.073   8.287   2.862 -0.1714 -0.5163 -0.5825
29041SOL    HW191680   3.047   8.261   2.774  1.5875 -0.3705 -1.1786
29041SOL    HW291681   3.022   8.366   2.880  0.8674  0.6166 -2.3029
29042SOL     OW91682  10.311   9.305   0.055  0.0546 -0.1723  0.2582
29042SOL    HW191683  10.293   9.393   0.086  2.3960  0.2356  0.6123
29042SOL    HW291684  10.247   9.250   0.102  0.7942  0.9159  2.7123
29043SOL     OW91685   4.585   2.514  11.930  0.1121 -0.1868  0.0528
29043SOL    HW191686   4.542   2.557  12.004  1.9304 -1.6054  2.0433
29043SOL    HW291687   4.517   2.458  11.892 -1.1912  1.4849 -0.1816
29044SOL     OW91688   2.600   3.396   5.074 -0.0118 -0.4567  0.3242
29044SOL    HW191689   2.612   3.387   5.169  0.0769 -3.7544  0.1201
29044SOL    HW291690   2.688   3.417   5.042  0.4735 -1.6034  0.8261
29045SOL     OW91691   5.202   0.172   8.019  0.2263  0.1066  0.4827
29045SOL    HW191692   5.229   0.254   8.060 -0.6981 -0.7386  2.9830
29045SOL    HW291693   5.108   0.180   8.007  0.1955 -0.4017  0.3553
29046SOL     OW91694  11.512  10.010   8.188  0.0700  0.5600  0.2976
29046SOL    HW191695  11.585  10.060   8.226 -0.1458  0.9290  0.2301
29046SOL    HW291696  11.552   9.965   8.113 -0.2132  2.5081 -1.1214
29047SOL     OW91697   1.014   5.393   2.608  0.1565 -0.2865 -0.1742
29047SOL    HW191698   0.984   5.417   2.696 -0.4374 -1.4481 -0.0455
29047SOL    HW291699   1.108   5.410   2.610  0.1040 -0.0262  0.5946
29048SOL     OW91700   5.376   4.649   2.859  0.5739  0.0591  0.2993
29048SOL    HW191701   5.295   4.701   2.863 -0.2227 -1.1832  0.6394
29048SOL    HW291702   5.381   4.605   2.944  1.3894 -0.2038  0.1221
29049SOL     OW91703   1.828   8.885   4.717  0.0939  0.0525 -0.2427
29049SOL    HW191704   1.745   8.914   4.754  0.2141 -0.6951  0.6225
29049SOL    HW291705   1.835   8.935   4.635 -0.6525  0.9700  0.2232
29050SOL     OW91706   2.480  11.409   2.415 -0.2603  0.4229  0.0577
29050SOL    HW191707   2.520  11.432   2.330 -0.4226 -0.9447 -0.4088
29050SOL    HW291708   2.554  11.405   2.475 -0.0268  0.5085 -0.2189
29051SOL     OW91709  10.705   6.866  10.104 -0.2563 -0.1940 -0.4602
29051SOL    HW191710  10.736   6.784  10.142  0.2730  0.4019  0.4393
29051SOL    HW291711  10.750   6.934  10.155 -0.3627  0.6445 -1.4624
29052SOL     OW91712   4.654   4.758   6.511  0.2674 -1.0626  0.6442
29052SOL    HW191713   4.587   4.759   6.578  0.5957  0.2710  0.9949
29052SOL    HW291714   4.606   4.764   6.428 -0.0780 -0.8606  0.8592
29053SOL     OW91715  11.771   6.564   9.477 -0.1612 -0.0890  0.1245
29053SOL    HW191716  11.747   6.657   9.471 -0.3465 -0.1895 -0.7547
29053SOL    HW291717  11.841   6.553   9.413  1.2987 -0.1221  1.6501
29054SOL     OW91718   8.381   4.340  11.280  0.1108 -0.1674 -0.1100
29054SOL    HW191719   8.380   4.309  11.371 -0.2523 -1.0443 -0.4012
29054SOL    HW291720   8.320   4.414  11.279 -1.6359 -1.5465 -0.0985
29055SOL     OW91721  11.060   8.351  11.559  0.2572  0.4495 -0.0257
29055SOL    HW191722  11.103   8.329  11.642  1.3709  1.1781 -0.3806
29055SOL    HW291723  11.056   8.447  11.558  3.0753  0.6960 -2.0890
29056SOL     OW91724   6.004   1.523   4.801  0.2272  0.1973 -0.1557
29056SOL    HW191725   5.962   1.459   4.859  0.0267  0.6586  0.2185
29056SOL    HW291726   6.042   1.588   4.860 -2.0683  2.0215 -0.5133
29057SOL     OW91727   7.866   9.350   2.613 -0.0216 -0.0015 -0.0112
29057SOL    HW191728   7.936   9.362   2.548 -1.6506 -2.7712 -2.5446
29057SOL    HW291729   7.901   9.283   2.672  0.2988  0.2681  0.1103
29058SOL     OW91730   1.737   0.798  10.495 -0.0365  0.1884 -0.1921
29058SOL    HW191731   1.790   0.735  10.445  0.9649 -0.0872  1.1711
29058SOL    HW291732   1.662   0.747  10.524  1.2969 -0.7414  1.8152
29059SOL     OW91733   8.180   2.065   1.825 -0.1379  0.0739  0.2276
29059SOL    HW191734   8.088   2.058   1.849  0.1019  0.2539  1.2369
29059SOL    HW291735   8.228   2.044   1.905  0.7402 -1.8916 -0.7248
29060SOL     OW91736  11.684  11.446   0.778 -0.5343 -0.2454  0.3292
29060SOL    HW191737  11.613  11.481   0.725  1.0495 -0.9395 -2.4454
29060SOL    HW291738  11.680  11.351   0.762  1.7075 -0.1813 -0.9183
29061SOL     OW91739   4.921   2.078   9.341  0.6789  0.0103 -0.1566
29061SOL    HW191740   4.892   2.038   9.423  1.3949  1.1171  0.6572
29061SOL    HW291741   4.999   2.028   9.317  0.6221 -0.1419 -0.0267
29062SOL     OW91742   7.386  10.905   7.020  0.0727 -0.4659  0.0519
29062SOL    HW191743   7.473  10.899   6.982  0.2486  1.9173 -0.0323
29062SOL    HW291744   7.328  10.871   6.951  0.9574 -3.4974  0.6580
29063SOL     OW91745   8.643   4.234  10.802  0.6005  0.0713 -0.4845
29063SOL    HW191746   8.725   4.278  10.822  0.0143  0.7071  0.6400
29063SOL    HW291747   8.649   4.150  10.849  1.4504 -0.8301 -2.1101
29064SOL     OW91748  10.254   4.532   3.059  0.1449  0.3055  0.3705
29064SOL    HW191749  10.219   4.449   3.028 -1.0642  1.2285 -0.9192
29064SOL    HW291750  10.348   4.516   3.072  0.2568 -0.8303 -1.4599
29065SOL     OW91751   7.722  10.813   8.591  0.3631 -0.2798  0.3125
29065SOL    HW191752   7.658  10.860   8.645  0.1973 -0.0232 -0.1098
29065SOL    HW291753   7.787  10.879   8.568 -0.6788  0.1495 -1.5803
29066SOL     OW91754   6.755   9.776   2.596 -0.0058  0.3545 -0.3675
29066SOL    HW191755   6.698   9.853   2.595  1.1824  1.2823 -2.4491
29066SOL    HW291756   6.696   9.704   2.616 -1.4035  1.6156  0.2951
29067SOL     OW91757   2.255  10.059   4.777  0.4539 -0.3967 -0.4990
29067SOL    HW191758   2.301   9.984   4.814  0.1215  0.4993  1.8990
29067SOL    HW291759   2.319  10.131   4.780  0.2072 -0.1430 -1.0902
29068SOL     OW91760   4.351   1.377   6.418  0.1435  0.0812 -0.0412
29068SOL    HW191761   4.356   1.462   6.461 -1.7538  0.0906  0.2327
29068SOL    HW291762   4.344   1.314   6.490  0.0429 -0.1740 -0.2731
29069SOL     OW91763   1.111  11.364   8.900 -0.0770  0.1697 -0.2682
29069SOL    HW191764   1.094  11.451   8.936 -1.3418  0.0962 -0.6525
29069SOL    HW291765   1.049  11.355   8.827 -0.4004 -1.2758  0.1448
29070SOL     OW91766  11.084  11.084  11.753  0.3269 -0.0960 -0.3225
29070SOL    HW191767  11.089  11.074  11.849 -0.6522 -0.0527 -0.2590
29070SOL    HW291768  11.127  11.167  11.736  1.3278 -0.5263 -0.0238
29071SOL     OW91769   6.808   2.296   7.361 -0.1478  0.0032  0.3566
29071SOL    HW191770   6.876   2.334   7.306 -0.3352  3.3677  2.1554
29071SOL    HW291771   6.734   2.281   7.302  0.2309  1.8849 -0.6469
29072SOL     OW91772  11.061  11.638   9.220 -0.4286 -0.0893  0.0600
29072SOL    HW191773  11.105  11.722   9.230 -1.3225  0.5344 -1.0762
29072SOL    HW291774  10.969  11.656   9.237 -0.5246 -1.0206  0.6199
29073SOL     OW91775   1.386  10.573   8.844  0.6663  0.2329  0.4274
29073SOL    HW191776   1.330  10.501   8.871  1.0775  0.6274  2.5027
29073SOL    HW291777   1.337  10.652   8.868  1.0183  0.6274 -0.1175
29074SOL     OW91778  10.597   5.756   6.852  0.1063  0.4187  0.4527
29074SOL    HW191779  10.514   5.790   6.885 -0.1615 -1.0136  1.3394
29074SOL    HW291780  10.653   5.833   6.843 -1.0314  1.2906  0.6831
29075SOL     OW91781   7.005   1.865   4.749 -0.0923 -0.0855 -0.3520
29075SOL    HW191782   6.913   1.842   4.766 -0.5991  1.2414 -1.1712
29075SOL    HW291783   7.030   1.918   4.825 -0.7309  1.4346 -1.1587
29076SOL     OW91784   9.094   9.623  10.097  0.3087 -0.2803 -0.0989
29076SOL    HW191785   9.108   9.550  10.158 -0.7014 -0.0341  0.4515
29076SOL    HW291786   9.182   9.658  10.082  0.4867  0.7261  2.5975
29077SOL     OW91787   9.551   2.291   3.390  0.0484  0.3331  0.6462
29077SOL    HW191788   9.572   2.237   3.466 -0.8157  0.1192  0.7441
29077SOL    HW291789   9.631   2.340   3.372  0.4197  0.0027  1.3779
29078SOL     OW91790   8.879  11.793   6.922  0.1036 -0.1816 -0.2539
29078SOL    HW191791   8.833  11.788   6.839 -0.6173  0.4233  0.0953
29078SOL    HW291792   8.892  11.702   6.948  0.2109 -0.3721 -0.9530
29079SOL     OW91793  10.143   8.416   2.417 -0.2398 -0.8285 -0.0692
29079SOL    HW191794  10.166   8.327   2.441  3.2061 -0.7025 -2.2110
29079SOL    HW291795  10.164   8.422   2.324 -1.0616  2.0118 -0.1699
29080SOL     OW91796   4.699  11.192  11.595 -0.3386 -0.4358 -0.0452
29080SOL    HW191797   4.661  11.120  11.545 -1.7560 -2.0276  3.0240
29080SOL    HW291798   4.625  11.229  11.643  0.7771  1.5950  0.2230
29081SOL     OW91799   8.550   4.979   6.276 -0.2319  0.0552  0.0677
29081SOL    HW191800   8.587   4.914   6.335 -1.5294  1.6237  2.8017
29081SOL    HW291801   8.489   4.931   6.220 -0.7166 -1.1648  1.6074
29082SOL     OW91802  12.038   2.467   0.800 -0.3386 -0.4756 -0.2335
29082SOL    HW191803  12.054   2.377   0.829 -0.8902 -0.1672  1.1056
29082SOL    HW291804  11.965   2.497   0.855  0.1303  0.9425 -0.3466
29083SOL     OW91805   2.787   1.333   3.651  0.0832 -0.2056  0.6090
29083SOL    HW191806   2.772   1.350   3.744  1.8380 -0.4077  0.9528
29083SOL    HW291807   2.787   1.237   3.644  0.0451 -0.1922  0.4029
29084SOL     OW91808   8.220   1.626   3.642 -0.7424 -0.1790 -0.2069
29084SOL    HW191809   8.234   1.560   3.574 -2.6388 -0.6759 -0.1920
29084SOL    HW291810   8.307   1.648   3.673 -0.0226 -2.4934 -0.4088
29085SOL     OW91811   1.828   0.600   6.842 -0.3964  0.4863 -0.0379
29085SOL    HW191812   1.906   0.646   6.875  0.1367 -0.5385  0.1817
29085SOL    HW291813   1.862   0.517   6.808 -1.4279 -0.1086  0.3377
29086SOL     OW91814  12.028  11.755   6.142  0.4279 -0.4279 -0.6186
29086SOL    HW191815  12.047  11.785   6.232  0.5580 -0.1781 -0.7267
29086SOL    HW291816  11.977  11.826   6.104  0.1985 -0.6255 -0.6784
29087SOL     OW91817   0.532   1.993   7.988 -0.1631 -0.4248 -0.2515
29087SOL    HW191818   0.498   1.957   8.070  1.1604 -0.6180  0.2320
29087SOL    HW291819   0.534   2.087   8.003  1.3274 -0.5474  0.4587
29088SOL     OW91820   5.071  11.097   0.649  0.9364 -0.2590  0.1534
29088SOL    HW191821   5.051  11.054   0.565  0.9856  1.7274 -0.9336
29088SOL    HW291822   5.158  11.065   0.672  0.9286 -0.8290 -0.5533
29089SOL     OW91823   2.160  10.491   9.887  0.3149 -0.5928  0.2093
29089SOL    HW191824   2.241  10.524   9.850  0.7506 -1.4771  0.3559
29089SOL    HW291825   2.113  10.453   9.813 -0.1510  0.2492  0.0558
29090SOL     OW91826  11.618   4.719   8.816  0.2048 -0.4096 -0.4486
29090SOL    HW191827  11.549   4.749   8.756  0.3111 -0.6080 -0.6723
29090SOL    HW291828  11.630   4.627   8.794  1.8236  0.0489 -1.6869
29091SOL     OW91829   5.013   3.107   1.721  0.5648 -0.4039  0.2962
29091SOL    HW191830   5.006   3.188   1.671  0.0565 -0.7150 -0.1481
29091SOL    HW291831   5.053   3.045   1.660  1.9853 -0.2010  0.9845
29092SOL     OW91832   3.204   0.095   1.334  0.3400  0.4671  0.3127
29092SOL    HW191833   3.149   0.023   1.304  0.9117  0.1877 -0.0857
29092SOL    HW291834   3.274   0.101   1.268 -1.3375  3.3925 -1.4504
29093SOL     OW91835   0.721   0.409   4.613 -0.7225  0.5587 -0.2628
29093SOL    HW191836   0.699   0.448   4.528 -0.7662  0.0108 -0.5062
29093SOL    HW291837   0.805   0.449   4.636  0.3233 -0.7906 -1.5507
29094SOL     OW91838   1.074   7.063   6.504  0.7825 -0.1235  0.0213
29094SOL    HW191839   1.062   6.976   6.466  1.8063  0.1021 -0.8502
29094SOL    HW291840   1.073   7.047   6.599 -0.5414 -0.8627 -0.0888
29095SOL     OW91841  10.157   9.899   4.596 -0.1013  0.8479  0.4235
29095SOL    HW191842  10.212   9.928   4.523 -0.1029  1.0566  0.5039
29095SOL    HW291843  10.080   9.955   4.590 -1.2784 -0.7927 -0.9571
29096SOL     OW91844   1.148   4.574  10.624 -0.1960 -0.2568  0.4924
29096SOL    HW191845   1.184   4.538  10.705  1.6888  1.8160  0.6495
29096SOL    HW291846   1.221   4.623  10.585 -2.0965  1.8711 -0.5782
29097SOL     OW91847   2.066  10.796   9.576 -0.2231 -0.5266  0.9785
29097SOL    HW191848   1.979  10.799   9.536 -1.2748 -1.3285  3.0870
29097SOL    HW291849   2.116  10.737   9.519 -0.6208  0.8847 -0.9583
29098SOL     OW91850   8.390   0.644   1.507  0.1434 -0.0017  0.7019
29098SOL    HW191851   8.415   0.563   1.552  1.1154  1.1742  2.4007
29098SOL    HW291852   8.407   0.626   1.414 -0.5968 -2.0446  0.9070
29099SOL     OW91853   5.527   3.859   8.181 -0.0370 -0.7977 -0.5639
29099SOL    HW191854   5.608   3.814   8.157  1.1244  1.2308 -0.6488
29099SOL    HW291855   5.483   3.875   8.097 -0.0137 -0.9695 -0.6089
29100SOL     OW91856   2.037   9.423   9.651  0.0556 -0.3468  0.9582
29100SOL    HW191857   1.980   9.392   9.581 -2.1154 -1.4382  3.0506
29100SOL    HW291858   2.126   9.404   9.620 -0.7252  0.1758 -1.8726
29101SOL     OW91859   8.763  11.193   7.089 -0.0623 -0.3659  0.0833
29101SOL    HW191860   8.820  11.184   7.013  0.8840  1.8918  0.4622
29101SOL    HW291861   8.710  11.270   7.071  0.4502  0.4463  1.8394
29102SOL     OW91862   5.436   2.264  11.376 -0.6663  0.4116 -0.1518
29102SOL    HW191863   5.396   2.277  11.462 -2.0360 -0.2327 -0.6628
29102SOL    HW291864   5.476   2.349  11.355  0.6597  0.2628  1.5724
29103SOL     OW91865   7.162   2.248   1.476 -0.0520 -0.2125 -0.4668
29103SOL    HW191866   7.105   2.299   1.534  0.4382 -0.2919  0.0954
29103SOL    HW291867   7.250   2.268   1.507  0.1469 -1.3143 -0.3092
29104SOL     OW91868   1.370  11.378   8.986 -0.2027  0.1088 -0.2617
29104SOL    HW191869   1.276  11.363   8.980  0.0863 -1.4292 -1.5093
29104SOL    HW291870   1.387  11.451   8.927 -0.8637  1.8605  1.6074
29105SOL     OW91871   5.213   9.323   7.152 -0.1788  0.2566 -0.0888
29105SOL    HW191872   5.275   9.362   7.214  2.2185 -1.6425 -1.1420
29105SOL    HW291873   5.213   9.383   7.078 -2.6268  2.2391  1.3477
29106SOL     OW91874   6.141  12.010   1.332  0.4473 -0.3804  0.3550
29106SOL    HW191875   6.049  11.995   1.312  1.0968 -3.5912 -0.7010
29106SOL    HW291876   6.148  11.997   1.427 -0.2005  0.1137  0.4739
29107SOL     OW91877   2.324   8.387   0.084 -0.4528 -0.2520  0.1224
29107SOL    HW191878   2.295   8.298   0.103 -1.1007 -0.0023  0.3476
29107SOL    HW291879   2.418   8.385   0.099 -0.4840 -0.8615  0.2746
29108SOL     OW91880   2.261   9.676   0.306 -0.0244 -0.2453  0.2134
29108SOL    HW191881   2.355   9.692   0.297 -0.2044  0.2673 -0.8379
29108SOL    HW291882   2.243   9.690   0.399  0.3995  2.6563 -0.0682
29109SOL     OW91883   3.755  10.848  11.597 -0.0218  0.1751  0.3189
29109SOL    HW191884   3.787  10.759  11.610  0.7064  0.2908 -0.5751
29109SOL    HW291885   3.793  10.875  11.513 -0.0809  1.3919  0.6651
29110SOL     OW91886  11.869   0.507  10.099 -0.3582 -0.2864  0.0206
29110SOL    HW191887  11.849   0.491  10.007  0.1277 -1.9860  0.1838
29110SOL    HW291888  11.783   0.507  10.142 -0.6246  0.9346 -0.4535
29111SOL     OW91889   5.896   6.494  10.386 -0.4230  0.2988  0.3966
29111SOL    HW191890   5.967   6.477  10.324 -0.3084  0.1640  0.5633
29111SOL    HW291891   5.929   6.565  10.441 -0.8740  1.0315 -0.2551
29112SOL     OW91892   2.211   7.708  10.577 -0.0004  0.0748  0.5888
29112SOL    HW191893   2.139   7.676  10.522  0.6550  3.4969 -2.7156
29112SOL    HW291894   2.170   7.769  10.638 -0.3430 -1.4768  1.9940
29113SOL     OW91895   2.219  10.812   9.827 -0.0661 -0.0746 -0.3652
29113SOL    HW191896   2.181  10.830   9.740 -0.0393  1.9630 -0.0092
29113SOL    HW291897   2.295  10.870   9.832 -0.2419  0.0696  1.1297
29114SOL     OW91898   7.066   0.248   9.022 -0.0531  0.1449  0.0722
29114SOL    HW191899   7.084   0.342   9.022 -0.6645  0.2928 -1.8413
29114SOL    HW291900   7.102   0.216   8.939 -2.9516 -0.6407 -0.9852
29115SOL     OW91901   7.319  11.396   4.114  0.1950 -0.3870 -0.0719
29115SOL    HW191902   7.264  11.330   4.070  0.0808 -1.0371  1.0203
29115SOL    HW291903   7.285  11.480   4.083 -1.0130 -0.7953  0.1078
29116SOL     OW91904   2.327  11.183   1.849  0.3442 -0.2181 -0.2120
29116SOL    HW191905   2.421  11.204   1.852  0.7792 -2.0701  0.5844
29116SOL    HW291906   2.323  11.091   1.873 -1.7668  0.0008  0.4249
29117SOL     OW91907   9.387   3.188   9.998  0.1016 -0.0221  0.5932
29117SOL    HW191908   9.346   3.114   9.953 -2.9837  1.1381  1.1859
29117SOL    HW291909   9.394   3.256   9.931 -0.8860  0.4250  0.9147
29118SOL     OW91910   1.234   5.814   9.586  0.1054 -0.1286 -0.5457
29118SOL    HW191911   1.279   5.889   9.548 -1.2239  0.3731 -1.2335
29118SOL    HW291912   1.292   5.740   9.570  1.6115  0.7717  0.4679
29119SOL     OW91913   6.764   7.886   4.892 -0.0781  0.7477 -0.9196
29119SOL    HW191914   6.746   7.806   4.941 -0.5534  0.3227 -1.7532
29119SOL    HW291915   6.800   7.855   4.809  2.9657  1.5194  0.0090
29120SOL     OW91916  10.323   2.326  10.162  0.1250 -0.0743  0.4154
29120SOL    HW191917  10.297   2.409  10.124  0.6633  0.1581  0.5374
29120SOL    HW291918  10.267   2.261  10.120  0.6330  0.1832 -0.6919
29121SOL     OW91919   8.418   6.564  10.724  0.2128 -0.1176  0.1932
29121SOL    HW191920   8.341   6.510  10.704 -0.8214  0.6796  1.7542
29121SOL    HW291921   8.404   6.645  10.677 -0.1560  0.2019  0.8376
29122SOL     OW91922   1.754   5.212   2.917  0.5171  0.2307 -0.3658
29122SOL    HW191923   1.815   5.285   2.923 -1.5932  2.1256 -0.6139
29122SOL    HW291924   1.698   5.233   2.842 -3.8923  1.5524  2.8592
29123SOL     OW91925   4.588   1.955   4.440  0.7616  0.0818  0.2459
29123SOL    HW191926   4.538   1.875   4.425 -1.0400  1.2339 -0.1382
29123SOL    HW291927   4.612   1.986   4.352  0.8163  0.3503  0.3524
29124SOL     OW91928   0.376   9.237   3.440 -0.4780 -0.0563  0.6249
29124SOL    HW191929   0.371   9.331   3.423  1.9105  0.0883  0.4396
29124SOL    HW291930   0.372   9.229   3.535  2.9003  0.6328  0.9363
29125SOL     OW91931   5.962   9.853   8.770  0.1537  0.4296 -0.1540
29125SOL    HW191932   6.036   9.832   8.826  0.0318 -0.1741 -0.2114
29125SOL    HW291933   5.999   9.908   8.700  0.2094  1.6313  0.7821
29126SOL     OW91934   8.272   4.239   8.253  0.5401 -0.3454  0.2424
29126SOL    HW191935   8.336   4.301   8.285 -0.5768  0.2962  1.2854
29126SOL    HW291936   8.240   4.194   8.331 -0.4447 -0.4828 -0.2215
29127SOL     OW91937  10.643  10.379   9.101 -0.0603  0.8040 -0.7188
29127SOL    HW191938  10.567  10.358   9.046 -0.8777  1.6704  0.0393
29127SOL    HW291939  10.607  10.385   9.189  1.2742 -0.8218 -0.0037
29128SOL     OW91940  10.420   5.349   1.276  0.4893 -0.1886 -0.9451
29128SOL    HW191941  10.342   5.294   1.274  1.0797 -1.1264  0.1012
29128SOL    HW291942  10.467   5.327   1.196 -0.0227 -0.0571 -1.2877
29129SOL     OW91943   8.023   4.125   7.848  0.7998 -0.0150 -0.4411
29129SOL    HW191944   8.069   4.193   7.898  0.4258 -0.1408  0.0864
29129SOL    HW291945   8.092   4.082   7.797  1.0422  0.7420 -0.7623
29130SOL     OW91946   6.017   9.518   6.305  0.5619 -0.0185 -0.3626
29130SOL    HW191947   5.933   9.539   6.263  0.6247  2.8811  0.7381
29130SOL    HW291948   5.992   9.470   6.384 -0.2436  1.9095  0.6190
29131SOL     OW91949   7.061   7.811   0.710  0.3538  0.0719  0.9287
29131SOL    HW191950   7.089   7.897   0.742  0.1513  0.3528  0.3634
29131SOL    HW291951   7.142   7.765   0.691  0.4612  0.4592  0.4112
29132SOL     OW91952   0.678   4.781  11.493  0.0745 -0.0462  0.3850
29132SOL    HW191953   0.689   4.689  11.515 -0.2011 -0.4969 -1.2325
29132SOL    HW291954   0.583   4.793  11.490  0.1000  0.6088  1.7846
29133SOL     OW91955   3.130   6.145   2.815 -0.4763 -0.2525  0.2299
29133SOL    HW191956   3.139   6.050   2.816  1.5705 -0.1169 -0.2315
29133SOL    HW291957   3.208   6.177   2.861 -1.2895  1.2038  0.6544
29134SOL     OW91958   9.392  10.543   7.056  0.4729  0.0636  0.4366
29134SOL    HW191959   9.415  10.508   6.970  2.2358 -0.2384  0.9819
29134SOL    HW291960   9.335  10.477   7.095  0.3675 -0.2019 -0.1680
29135SOL     OW91961   7.700   9.701   5.573  0.0701 -0.1744 -0.0460
29135SOL    HW191962   7.648   9.765   5.525  0.7021 -1.8005 -3.1727
29135SOL    HW291963   7.642   9.670   5.643 -1.8353  0.6179 -1.1978
29136SOL     OW91964   0.347   1.784   3.470  0.5358 -0.3423  0.3350
29136SOL    HW191965   0.377   1.874   3.482 -2.3757  0.6235  1.4578
29136SOL    HW291966   0.416   1.730   3.508  1.6414  1.5212  1.1254
29137SOL     OW91967   0.241   5.473  10.218 -0.3754  0.1850  0.2164
29137SOL    HW191968   0.201   5.537  10.159 -1.4109 -0.9085 -0.3449
29137SOL    HW291969   0.294   5.524  10.278 -0.5128  1.4789 -0.7218
29138SOL     OW91970   1.018   4.818   7.729 -0.0620 -0.3516  0.0310
29138SOL    HW191971   1.047   4.756   7.662 -0.1928 -1.7855  1.2588
29138SOL    HW291972   0.937   4.780   7.763  1.1878 -0.9158  2.5931
29139SOL     OW91973  11.182   0.281   6.217  0.1500 -0.5475 -0.0073
29139SOL    HW191974  11.098   0.318   6.246 -0.8001 -1.3270 -1.6042
29139SOL    HW291975  11.201   0.326   6.135  1.0133 -0.7826  0.0540
29140SOL     OW91976   3.218  10.947  11.221 -0.1296 -0.0896 -0.2084
29140SOL    HW191977   3.311  10.968  11.214  0.1658 -1.1516  0.2378
29140SOL    HW291978   3.194  10.913  11.135  0.4061 -1.6121  0.1970
29141SOL     OW91979   1.480  10.737   6.839 -0.2249 -0.1198  0.5392
29141SOL    HW191980   1.557  10.737   6.781 -0.4133 -1.0230  0.2747
29141SOL    HW291981   1.449  10.647   6.837 -1.1425  0.1840  0.8513
29142SOL     OW91982   0.824   0.842  10.053 -0.1234  0.1485  0.0589
29142SOL    HW191983   0.862   0.836   9.966 -1.0498  0.2050 -0.3605
29142SOL    HW291984   0.735   0.875  10.039  0.3062  1.9644  1.1672
29143SOL     OW91985   1.862   2.457   4.508  0.1559 -0.3771 -0.1110
29143SOL    HW191986   1.923   2.428   4.439  0.9741 -0.3882  0.6018
29143SOL    HW291987   1.792   2.392   4.506 -1.0815  0.8924 -2.5083
29144SOL     OW91988  10.549   3.115   2.734  0.4683  0.3914  0.1421
29144SOL    HW191989  10.513   3.030   2.757  0.0166 -0.0557 -1.9916
29144SOL    HW291990  10.628   3.095   2.683  0.8638  1.2686  0.3874
29145SOL     OW91991   5.050   3.865  10.517  0.5039 -0.5262 -0.5162
29145SOL    HW191992   5.083   3.784  10.477 -1.3558 -0.5610 -2.1348
29145SOL    HW291993   4.955   3.856  10.513  0.2705  1.2434  0.3664
29146SOL     OW91994  11.875   2.587   3.870 -0.2356  0.1374  0.4519
29146SOL    HW191995  11.790   2.568   3.909 -0.0244  0.6501  1.1853
29146SOL    HW291996  11.904   2.667   3.914 -0.0389  0.8077 -0.8592
29147SOL     OW91997   9.913   0.622   9.746 -0.0120 -0.2125  0.3210
29147SOL    HW191998   9.852   0.555   9.775 -0.1296  0.2574  1.1904
29147SOL    HW291999   9.912   0.688   9.815 -0.0691  0.8081 -0.6184
29148SOL     OW92000   3.443  11.554   7.351 -0.0601 -0.6254  0.2681
29148SOL    HW192001   3.416  11.609   7.425  0.0102  0.3073 -0.3890
29148SOL    HW292002   3.531  11.583   7.330  0.1928 -1.3774  0.2587
29149SOL     OW92003   0.188   5.692   6.755  0.5811 -0.1578  0.1877
29149SOL    HW192004   0.148   5.698   6.842  1.3654  1.2229  0.4691
29149SOL    HW292005   0.129   5.743   6.698  1.3420  0.9647  0.3910
29150SOL     OW92006   2.520  11.096   4.474  0.0185  0.1126 -0.5675
29150SOL    HW192007   2.482  11.079   4.560  1.5738 -0.5981  0.0094
29150SOL    HW292008   2.466  11.045   4.413 -1.1786  0.7381 -0.0695
29151SOL     OW92009   1.799   5.448   4.368 -0.0668  0.1406 -0.1096
29151SOL    HW192010   1.784   5.358   4.398 -0.0911 -0.5488 -2.0288
29151SOL    HW292011   1.714   5.491   4.380 -0.0942 -0.1276  0.6950
29152SOL     OW92012   6.367   9.545  10.781  0.2378  0.7244 -0.5187
29152SOL    HW192013   6.376   9.641  10.781 -0.8061  0.8562  0.9341
29152SOL    HW292014   6.352   9.523  10.689  1.5035  1.8255 -1.0322
29153SOL     OW92015  11.883   0.028   8.972 -0.0788 -0.1904 -0.8210
29153SOL    HW192016  11.910   0.044   8.881  0.5684  0.6081 -0.4972
29153SOL    HW292017  11.957   0.057   9.024 -0.5855 -0.3261 -0.0124
29154SOL     OW92018   0.251  10.375   5.227 -0.3462  0.1771  0.0783
29154SOL    HW192019   0.323  10.397   5.168  0.6224  0.4913  1.3319
29154SOL    HW292020   0.217  10.292   5.194 -0.0202  0.4711 -1.0598
29155SOL     OW92021   9.589   5.617   0.333 -0.0871 -0.4576 -0.8730
29155SOL    HW192022   9.498   5.587   0.337 -0.3536  0.4392  0.6294
29155SOL    HW292023   9.584   5.710   0.357  1.4710 -0.9564  1.6076
29156SOL     OW92024   5.657  11.632   4.094  0.1371  0.6631  0.2463
29156SOL    HW192025   5.584  11.634   4.032  0.7130  0.0336 -0.4634
29156SOL    HW292026   5.618  11.662   4.176 -1.1505 -0.5345  0.1240
29157SOL     OW92027   6.999   9.487   7.575  1.1991 -0.4423  0.0256
29157SOL    HW192028   6.996   9.583   7.571 -2.0275 -0.4483 -1.2082
29157SOL    HW292029   6.947   9.465   7.653  2.9360 -1.2594  1.0215
29158SOL     OW92030   7.961   5.635   3.492  0.3445  0.2732 -0.3093
29158SOL    HW192031   8.045   5.593   3.510  0.3981  0.6031  0.2181
29158SOL    HW292032   7.913   5.571   3.439  0.1387 -0.7834  1.0941
29159SOL     OW92033   6.496   8.515   4.354 -0.7230 -0.4178 -0.0751
29159SOL    HW192034   6.471   8.500   4.445 -0.5457 -2.0014 -0.2599
29159SOL    HW292035   6.537   8.433   4.327 -0.2339  0.2470 -1.4029
29160SOL     OW92036  11.396   7.234  11.948  0.1615 -0.4580  0.0442
29160SOL    HW192037  11.306   7.266  11.949  0.8355  1.5591  0.1627
29160SOL    HW292038  11.390   7.147  11.907 -1.5861  0.4532 -1.8165
29161SOL     OW92039  10.289   2.662  10.518 -0.2144  0.1832  0.1116
29161SOL    HW192040  10.306   2.704  10.434  0.6164  3.0892  1.6039
29161SOL    HW292041  10.318   2.571  10.506  2.1229  1.1037 -2.0191
29162SOL     OW92042   8.457   1.137   9.592 -0.4408 -0.5129 -0.4053
29162SOL    HW192043   8.409   1.086   9.658 -1.5286 -0.8621 -1.4419
29162SOL    HW292044   8.425   1.105   9.508  2.5852 -1.6959 -1.2123
29163SOL     OW92045   2.990   1.379  10.745  0.2738  0.2622  0.0603
29163SOL    HW192046   3.036   1.332  10.815 -0.4168  0.2115  0.4992
29163SOL    HW292047   2.911   1.413  10.788 -2.3263 -3.1398 -1.4686
29164SOL     OW92048   5.134  10.083   1.235  0.0732  0.1387  0.0276
29164SOL    HW192049   5.159  10.112   1.323 -1.7270 -0.3415  0.7216
29164SOL    HW292050   5.072  10.149   1.205 -1.8035 -1.3458  0.4478
29165SOL     OW92051  10.753  10.208   5.430 -0.0354  0.1267 -0.1751
29165SOL    HW192052  10.748  10.302   5.442 -0.9994  0.2104 -1.0920
29165SOL    HW292053  10.815  10.196   5.357 -0.4322  0.0926 -0.5084
29166SOL     OW92054   8.002   7.404   5.881 -0.4315 -0.3104 -0.5320
29166SOL    HW192055   8.089   7.404   5.921 -0.5317 -1.5667 -0.2925
29166SOL    HW292056   8.018   7.427   5.789 -0.1824  2.3959  0.1125
29167SOL     OW92057   5.104   2.243  11.268 -0.0197  0.9333 -0.0898
29167SOL    HW192058   5.196   2.230  11.290  0.3772  2.0916 -0.9229
29167SOL    HW292059   5.071   2.300  11.337  0.2345  1.5261 -0.4450
29168SOL     OW92060   7.173  10.278   2.160 -0.4762  0.5339  0.2657
29168SOL    HW192061   7.187  10.214   2.091 -0.5582 -1.2068  1.7960
29168SOL    HW292062   7.254  10.328   2.164  0.4310 -0.9105  0.4503
29169SOL     OW92063   7.852  10.807   6.773  0.3564  0.7745  0.7944
29169SOL    HW192064   7.831  10.743   6.706  1.4383  2.6371 -1.4850
29169SOL    HW292065   7.940  10.783   6.803  0.6252  0.9642  0.1795
29170SOL     OW92066   4.298   5.608   7.101 -1.2726 -0.2803 -0.1601
29170SOL    HW192067   4.218   5.625   7.150 -2.3866 -2.6853 -0.9577
29170SOL    HW292068   4.270   5.612   7.009 -0.7961 -2.1670 -0.4356
29171SOL     OW92069   9.022  10.923   6.954  0.1948  0.0203 -0.1645
29171SOL    HW192070   9.100  10.887   6.997 -0.3175  0.8644  1.5616
29171SOL    HW292071   9.051  11.005   6.915  0.4400 -0.2518 -0.5523
29172SOL     OW92072   8.232   2.339   4.404 -0.0345  0.4384 -0.5025
29172SOL    HW192073   8.193   2.252   4.393  0.0123 -0.0976  2.6283
29172SOL    HW292074   8.171   2.398   4.360 -2.6819 -0.7384  1.2735
29173SOL     OW92075   7.178  10.748   5.668 -0.1283 -0.0894 -0.3383
29173SOL    HW192076   7.162  10.721   5.758  0.7390 -0.6615 -0.3471
29173SOL    HW292077   7.113  10.701   5.616  0.5283 -1.1648 -0.2082
29174SOL     OW92078   9.127   4.476   7.923 -0.1814 -0.2943 -0.2143
29174SOL    HW192079   9.140   4.523   8.005 -2.1097  0.7138 -0.4487
29174SOL    HW292080   9.068   4.404   7.946  1.3267 -1.5885 -0.2300
29175SOL     OW92081   0.127   9.035   4.026  0.2050  0.3391  0.1494
29175SOL    HW192082   0.033   9.024   4.016  0.0381  0.4941  1.4266
29175SOL    HW292083   0.160   8.947   4.044  0.6043 -0.0657 -2.2447
29176SOL     OW92084   0.543   5.466   5.154  0.2360  0.1513 -0.2830
29176SOL    HW192085   0.449   5.483   5.159  0.3005  0.3271  3.6535
29176SOL    HW292086   0.562   5.458   5.060 -3.7954 -0.6873 -1.1957
29177SOL     OW92087   7.445   2.539   3.283  0.5989 -0.6050  0.3242
29177SOL    HW192088   7.425   2.562   3.374  1.0046  0.2410  0.2133
29177SOL    HW292089   7.368   2.490   3.254 -0.2291  0.4346  0.6623
29178SOL     OW92090   1.153   8.269   7.097 -0.0657 -0.3367  0.4560
29178SOL    HW192091   1.087   8.214   7.138 -0.0253  0.9871  2.3934
29178SOL    HW292092   1.169   8.228   7.012 -3.0470 -0.9309  0.0981
29179SOL     OW92093   2.162  12.039   5.061  0.1824 -0.0254  0.4177
29179SOL    HW192094   2.211  12.027   4.980  0.3865  0.0199  0.5328
29179SOL    HW292095   2.081  12.081   5.034  1.4203  2.6486  0.5276
29180SOL     OW92096   5.895   8.196   0.953  0.4685 -0.3166  0.1250
29180SOL    HW192097   5.803   8.209   0.929  0.4316 -0.8918 -0.0747
29180SOL    HW292098   5.944   8.242   0.886  0.3587 -1.6863 -0.9433
29181SOL     OW92099   2.946   3.340   3.223 -0.4236 -0.2101  0.5669
29181SOL    HW192100   2.909   3.403   3.285  0.3605 -1.7251  2.6839
29181SOL    HW292101   3.031   3.317   3.259  0.1833 -0.9659 -1.2327
29182SOL     OW92102   8.977  10.194   9.655 -0.0479 -0.4527 -0.0070
29182SOL    HW192103   8.932  10.151   9.728  1.5826 -0.1687  1.2072
29182SOL    HW292104   9.054  10.235   9.694  1.6303 -1.4257 -2.0642
29183SOL     OW92105   6.082   7.901   3.039  0.6242  0.4905 -0.2320
29183SOL    HW192106   6.135   7.821   3.043  0.7457  0.6119  0.7679
29183SOL    HW292107   6.061   7.921   3.130 -0.2116  1.0708 -0.5396
29184SOL     OW92108   8.061  12.104   9.887  0.0624  0.1931  0.7763
29184SOL    HW192109   8.021  12.137   9.807  3.2757  1.6214 -0.4075
29184SOL    HW292110   8.107  12.024   9.861  1.5466  0.9326  0.9657
29185SOL     OW92111   4.596   0.228   3.265 -0.0596 -0.5977  0.4644
29185SOL    HW192112   4.547   0.309   3.247  1.5797  0.2306 -0.5026
29185SOL    HW292113   4.619   0.234   3.358 -0.2340 -0.1247  0.4799
29186SOL     OW92114   6.726   5.005  10.761 -0.3516 -0.1380  0.3393
29186SOL    HW192115   6.635   5.004  10.732 -0.2878 -2.3110  0.0162
29186SOL    HW292116   6.768   5.071  10.706 -1.8834  1.5295  1.1126
29187SOL     OW92117   9.429  12.053   5.244 -0.0278  0.3398 -0.3148
29187SOL    HW192118   9.448  12.142   5.214 -2.1664  0.6729 -0.8161
29187SOL    HW292119   9.355  12.024   5.190 -0.8406 -0.8994  1.3617
29188SOL     OW92120   6.342  10.955   5.486  0.0206  0.2848  0.0553
29188SOL    HW192121   6.406  10.958   5.414 -0.2434  1.4089 -0.1532
29188SOL    HW292122   6.271  10.901   5.452  0.1195  0.4013 -0.3460
29189SOL     OW92123   6.464   1.821   7.569  0.1798 -0.2490  0.8009
29189SOL    HW192124   6.517   1.901   7.567 -1.0907  0.6655 -1.9956
29189SOL    HW292125   6.528   1.750   7.570  1.5836  0.8070 -2.1659
29190SOL     OW92126   5.505   4.452  10.480 -0.6476 -0.0982  0.0193
29190SOL    HW192127   5.469   4.450  10.391 -3.0076 -0.2432  0.8858
29190SOL    HW292128   5.503   4.361  10.509 -0.3506  0.0047  0.3713
29191SOL     OW92129   1.870   5.811   8.933 -0.2537 -0.4699 -0.1670
29191SOL    HW192130   1.781   5.835   8.909 -0.0532  0.9800  0.5054
29191SOL    HW292131   1.860   5.740   8.997 -1.0921  2.0425  2.6780
29192SOL     OW92132   7.294   2.414   5.273 -0.4673 -0.5874 -0.1747
29192SOL    HW192133   7.273   2.379   5.360  0.7069 -1.4822 -0.2198
29192SOL    HW292134   7.316   2.506   5.288 -2.4801 -0.1290  0.1278
29193SOL     OW92135   0.322  12.070   2.113 -0.2803 -0.4306 -0.4409
29193SOL    HW192136   0.350  12.038   2.199  1.0292  0.1541 -0.6343
29193SOL    HW292137   0.340  11.997   2.053  0.6942 -0.1298 -0.5321
29194SOL     OW92138   9.171   2.307   6.981 -0.1761  0.4923  0.4892
29194SOL    HW192139   9.139   2.354   7.058  0.6710 -0.5903  1.5379
29194SOL    HW292140   9.158   2.215   7.001  0.9333  0.1502 -0.2593
29195SOL     OW92141   4.283  11.808   2.791  0.2035 -0.1633 -0.3060
29195SOL    HW192142   4.207  11.864   2.778 -0.8974 -1.9340 -2.1822
29195SOL    HW292143   4.320  11.796   2.703  1.7447 -0.5923  0.3558
29196SOL     OW92144   9.916   7.911   3.805  0.0684  0.1295 -0.7585
29196SOL    HW192145   9.995   7.858   3.792 -0.0005 -0.4364  0.9378
29196SOL    HW292146   9.946   7.988   3.852 -0.5829 -0.9045  1.4986
29197SOL     OW92147   5.658   4.741   8.214 -0.3657  0.5077  0.0872
29197SOL    HW192148   5.608   4.819   8.190 -1.0596  0.0157 -0.0727
29197SOL    HW292149   5.665   4.690   8.134 -1.6443 -0.5534  0.6188
29198SOL     OW92150  11.759  10.777   7.512 -0.2774 -0.1787 -0.5837
29198SOL    HW192151  11.673  10.807   7.542  0.6619 -0.3907  2.6972
29198SOL    HW292152  11.815  10.854   7.516 -0.0724 -0.2423 -1.8350
29199SOL     OW92153   3.735   7.654   9.411 -0.0884  0.2511 -0.5313
29199SOL    HW192154   3.720   7.729   9.354  1.8255 -0.3926 -1.9939
29199SOL    HW292155   3.658   7.599   9.399  0.0172  0.4080 -2.0553
29200SOL     OW92156   6.628   6.400   6.521 -0.0933  0.3987 -0.4687
29200SOL    HW192157   6.616   6.306   6.533 -1.6655  0.3819 -1.8623
29200SOL    HW292158   6.696   6.423   6.584  0.8030 -1.7756 -0.5352
29201SOL     OW92159   4.063   9.482   5.104 -0.2116  0.0936 -0.4604
29201SOL    HW192160   4.005   9.482   5.028 -0.6853  0.0762 -0.0965
29201SOL    HW292161   4.005   9.483   5.180  0.2589  0.8355 -0.0912
29202SOL     OW92162   5.004   3.215   3.986  0.1514 -0.2073 -0.2526
29202SOL    HW192163   5.096   3.220   4.011  0.2652 -0.8714 -0.5092
29202SOL    HW292164   4.962   3.165   4.057 -0.1051  0.5040  0.1009
29203SOL     OW92165   7.536   6.871   2.852 -0.3004 -0.0055 -0.2766
29203SOL    HW192166   7.579   6.849   2.935 -0.5617 -1.9154 -0.6180
29203SOL    HW292167   7.479   6.945   2.874  1.5437  1.2201  0.6410
29204SOL     OW92168   4.425   0.927   2.891  0.5799 -0.3138  0.3116
29204SOL    HW192169   4.400   0.913   2.800  2.0169  0.0752 -0.1646
29204SOL    HW292170   4.398   1.017   2.910  2.0724  0.3091 -0.3841
29205SOL     OW92171   2.077   6.405   2.446  0.1483 -0.0466  0.0833
29205SOL    HW192172   2.053   6.391   2.538  0.0601  0.0220  0.0709
29205SOL    HW292173   2.093   6.499   2.440  0.5976 -0.1177  0.1329
29206SOL     OW92174   8.528   6.682  10.946 -0.1944  0.0787 -0.1580
29206SOL    HW192175   8.465   6.642  11.005  0.8012 -0.9052  0.2637
29206SOL    HW292176   8.513   6.639  10.862 -0.3297  0.1183 -0.1547
29207SOL     OW92177   7.982   1.177   7.604 -0.2607 -0.2818  0.0277
29207SOL    HW192178   8.043   1.117   7.648  3.1127  2.0835 -0.9621
29207SOL    HW292179   8.003   1.169   7.511 -0.5903  1.4640 -0.2392
29208SOL     OW92180   4.220  12.047   0.529  0.3198 -0.1017  0.3518
29208SOL    HW192181   4.178  12.102   0.595 -0.1259  1.3064 -1.0300
29208SOL    HW292182   4.151  12.031   0.464  1.1514 -0.1155 -0.5583
29209SOL     OW92183   0.054  10.951   1.562  0.1428 -0.4664 -0.4860
29209SOL    HW192184   0.143  10.988   1.568 -0.1273  0.5144 -1.8611
29209SOL    HW292185   0.044  10.900   1.642  1.4290  0.5648  0.3859
29210SOL     OW92186   8.440   5.640  11.871  0.2644 -0.0061 -0.2906
29210SOL    HW192187   8.455   5.558  11.824 -0.5301  0.6608 -1.7983
29210SOL    HW292188   8.357   5.672  11.836 -1.0776 -0.0609  2.5119
29211SOL     OW92189   9.003  10.756   2.253 -0.3019 -0.0343 -0.7325
29211SOL    HW192190   9.076  10.740   2.312 -1.7899 -2.1133  0.6461
29211SOL    HW292191   8.926  10.754   2.308 -1.5027  1.5183 -2.2460
29212SOL     OW92192   0.875  11.513   2.342  0.1511  0.0934 -0.1267
29212SOL    HW192193   0.807  11.446   2.353  1.4493 -1.2267  0.0430
29212SOL    HW292194   0.865  11.541   2.250 -0.3260 -0.4147 -0.2364
29213SOL     OW92195   0.453   0.420   5.447  0.2787  0.2452 -0.3702
29213SOL    HW192196   0.437   0.455   5.535 -1.2026  0.6261 -0.7589
29213SOL    HW292197   0.548   0.416   5.439  0.5395 -2.7284  2.3780
29214SOL     OW92198   4.123   7.774   4.772 -0.4320  0.2752  0.0034
29214SOL    HW192199   4.131   7.748   4.864 -0.9330  0.2476  0.0392
29214SOL    HW292200   4.158   7.699   4.723  0.0741  0.3914  0.1742
29215SOL     OW92201  11.828  11.191   8.085 -0.1947  0.0066  0.0914
29215SOL    HW192202  11.837  11.122   8.019  1.1811 -2.1986  2.4361
29215SOL    HW292203  11.740  11.226   8.070 -0.3590 -1.1552 -2.1705
29216SOL     OW92204   8.724   9.036   4.873  0.1044  0.6324 -0.0708
29216SOL    HW192205   8.676   8.975   4.817 -2.0286  1.4707  0.7061
29216SOL    HW292206   8.811   9.043   4.833 -0.2536 -1.3192 -1.3141
29217SOL     OW92207  10.472  11.403   1.043  0.4848  0.4828 -0.2377
29217SOL    HW192208  10.505  11.443   1.123  0.2538 -1.3779  0.8562
29217SOL    HW292209  10.550  11.368   0.999  0.3620 -0.9409  0.6264
29218SOL     OW92210  11.091   9.451   6.512 -0.8637 -0.4579  0.5039
29218SOL    HW192211  11.119   9.523   6.456 -1.0904 -1.5955 -1.1198
29218SOL    HW292212  11.044   9.392   6.454 -2.9887 -0.6740  2.3084
29219SOL     OW92213  10.675   6.481   5.583  0.1391  0.0491 -0.1932
29219SOL    HW192214  10.704   6.565   5.620 -1.8657  0.9303 -0.4904
29219SOL    HW292215  10.629   6.505   5.503 -0.0729 -1.3854 -0.5159
29220SOL     OW92216   5.363  10.373   5.587  0.3478 -0.5309 -0.5571
29220SOL    HW192217   5.393  10.419   5.666  0.3808  0.9868 -1.4218
29220SOL    HW292218   5.357  10.282   5.614  1.4102 -0.2090  0.8984
29221SOL     OW92219   3.888   3.094   0.883 -0.6196 -0.6316 -0.0790
29221SOL    HW192220   3.917   3.062   0.968  0.3340  0.6249  0.1054
29221SOL    HW292221   3.922   3.031   0.820  1.5285  0.1427  0.2333
29222SOL     OW92222   5.941  11.075   4.008  0.5234  0.0365  0.2554
29222SOL    HW192223   5.995  10.999   4.029  2.5085  1.6994  1.4964
29222SOL    HW292224   5.915  11.111   4.093 -0.3698  0.7897 -0.3027
29223SOL     OW92225   6.721   4.017   8.073  0.2605 -0.3100  0.1245
29223SOL    HW192226   6.722   4.107   8.041 -0.2306 -0.6959 -1.0292
29223SOL    HW292227   6.751   4.023   8.164 -0.0341  1.0459  0.1481
29224SOL     OW92228  12.113   8.550   2.743  0.2500  0.5492 -0.7754
29224SOL    HW192229  12.111   8.617   2.811  0.2429 -0.9218  0.7295
29224SOL    HW292230  12.022   8.522   2.734  0.5003 -0.6453  0.0885
29225SOL     OW92231   4.861   1.254   1.943  0.2193  0.0941  0.4531
29225SOL    HW192232   4.797   1.194   1.904 -1.0555  1.6692  0.0352
29225SOL    HW292233   4.825   1.276   2.028  0.9224 -0.0686  0.8045
29226SOL     OW92234  10.848   8.380   4.532  0.4079 -0.3263  0.2030
29226SOL    HW192235  10.811   8.453   4.481 -1.3518 -0.6134  0.9937
29226SOL    HW292236  10.914   8.341   4.474  1.2940  1.7875 -0.2807
29227SOL     OW92237   6.005   5.295   4.353 -0.2537 -0.7271 -0.2489
29227SOL    HW192238   5.914   5.324   4.348  0.0125  0.4674  1.0357
29227SOL    HW292239   6.022   5.284   4.447  1.2508  0.2274 -0.3681
29228SOL     OW92240   8.618  11.322   8.878  0.1838  0.4083 -0.0411
29228SOL    HW192241   8.653  11.328   8.966  1.5951  0.3417 -0.5794
29228SOL    HW292242   8.602  11.229   8.864 -3.2892  0.6254  1.3043
29229SOL     OW92243   1.502   6.522   0.158 -0.4304 -0.2345 -0.5866
29229SOL    HW192244   1.570   6.587   0.175 -0.2865 -0.6299  0.3894
29229SOL    HW292245   1.477   6.537   0.067 -0.3790  1.1652 -0.3929
29230SOL     OW92246   7.106   4.535   4.050  0.5121 -0.0180 -0.5391
29230SOL    HW192247   7.110   4.485   4.132 -0.1015  0.7817 -0.0032
29230SOL    HW292248   7.036   4.598   4.064  2.1071  1.8846 -0.6517
29231SOL     OW92249   1.906   5.356   5.803  0.5544 -0.2637 -0.3786
29231SOL    HW192250   1.973   5.296   5.770  1.4521  0.3042  0.3463
29231SOL    HW292251   1.882   5.410   5.728  0.0960 -1.1922 -0.9151
29232SOL     OW92252  10.760   8.170   5.667  0.0359  0.6882 -0.2958
29232SOL    HW192253  10.720   8.121   5.594  1.3474 -1.0557  0.0717
29232SOL    HW292254  10.687   8.195   5.722 -0.8670  0.8769 -1.5242
29233SOL     OW92255   9.614   8.225   1.076  0.0488  0.3346  0.3270
29233SOL    HW192256   9.612   8.321   1.068  0.7557  0.4352  1.1522
29233SOL    HW292257   9.604   8.209   1.170  0.6907 -0.3613  0.2922
29234SOL     OW92258   1.704   9.608   3.955  0.1919 -0.3265  0.1339
29234SOL    HW192259   1.621   9.621   3.910 -0.6113 -1.8041  1.1178
29234SOL    HW292260   1.771   9.632   3.891 -0.9042 -2.0785 -1.7592
29235SOL     OW92261   5.720   1.668   2.300  0.4234 -0.1576  0.2716
29235SOL    HW192262   5.674   1.749   2.278  0.5944 -0.0018  0.4802
29235SOL    HW292263   5.657   1.617   2.350  1.2390  1.1007  2.7223
29236SOL     OW92264   3.690   0.054   1.359  0.2941 -0.8070 -0.2414
29236SOL    HW192265   3.698  -0.037   1.328  0.0518 -1.7537  2.2503
29236SOL    HW292266   3.612   0.088   1.315 -1.1571 -2.7127  0.7051
29237SOL     OW92267   1.023   4.020   1.408  0.1749 -0.0200 -0.3207
29237SOL    HW192268   1.086   3.948   1.401  1.2816  0.9547 -0.8380
29237SOL    HW292269   0.938   3.978   1.408  0.7981 -1.3348 -0.5382
29238SOL     OW92270  11.082   4.854   7.983 -0.5287  0.0736  0.3665
29238SOL    HW192271  11.028   4.777   7.968  1.0247 -1.3132  1.4358
29238SOL    HW292272  11.129   4.868   7.900  0.4436 -1.2175  0.6748
29239SOL     OW92273  10.739  11.438   8.137 -0.7112 -0.2273  0.3620
29239SOL    HW192274  10.796  11.483   8.199 -1.3391 -0.3244  1.0226
29239SOL    HW292275  10.668  11.402   8.191 -0.9325 -0.8526 -0.3292
29240SOL     OW92276  10.062   4.708  10.730  0.2861 -0.0223 -0.1750
29240SOL    HW192277  10.030   4.795  10.755  0.3612 -0.1005  0.1857
29240SOL    HW292278  10.081   4.664  10.812 -0.3517 -0.6114 -0.3439
29241SOL     OW92279   7.137   4.335   5.534 -0.2246 -0.1412  0.1504
29241SOL    HW192280   7.090   4.416   5.517  1.7359  0.9003 -0.5452
29241SOL    HW292281   7.123   4.319   5.628 -1.1748  0.6216  0.1556
29242SOL     OW92282   2.488   0.256   1.818 -0.2418  0.6046 -0.7067
29242SOL    HW192283   2.573   0.211   1.817 -0.5264  0.0057 -2.6655
29242SOL    HW292284   2.510   0.348   1.830  0.5867  0.3530 -0.1064
29243SOL     OW92285   1.488   8.678   8.603 -0.2935 -0.0146 -0.0762
29243SOL    HW192286   1.577   8.648   8.622 -1.0530 -1.6693  1.0950
29243SOL    HW292287   1.453   8.613   8.541 -0.8380  0.3424 -0.1518
29244SOL     OW92288   8.099   7.534   0.080 -0.2741 -0.1456 -0.6966
29244SOL    HW192289   8.134   7.504  -0.004 -1.5309  0.4407 -1.4471
29244SOL    HW292290   8.064   7.454   0.120 -2.2122 -0.0038 -2.0034
29245SOL     OW92291   7.112   3.920   9.557  0.0478  0.4132  0.3127
29245SOL    HW192292   7.138   4.011   9.572  0.4324  0.3829 -0.1579
29245SOL    HW292293   7.019   3.926   9.536  0.3485  0.8480 -1.0084
29246SOL     OW92294   3.594  10.379   0.983  0.6006  0.4266  0.0399
29246SOL    HW192295   3.535  10.344   0.916  0.4902 -0.2014  0.4495
29246SOL    HW292296   3.555  10.350   1.066  1.7354 -0.4163  0.3010
29247SOL     OW92297  11.268   9.845   6.394  0.3198 -0.3472 -0.2754
29247SOL    HW192298  11.256   9.805   6.308 -0.7773 -1.8169  0.5014
29247SOL    HW292299  11.210   9.920   6.395  1.3879  0.5238 -1.2863
29248SOL     OW92300   3.206   2.655   6.095  0.0575 -0.2924  0.2815
29248SOL    HW192301   3.179   2.566   6.119 -0.7146 -0.2832 -0.4955
29248SOL    HW292302   3.270   2.642   6.025 -1.5783 -0.2301 -1.3036
29249SOL     OW92303   8.363   7.373   0.906  0.3532 -0.1392 -0.5920
29249SOL    HW192304   8.405   7.427   0.839 -0.8857  1.7277  0.0823
29249SOL    HW292305   8.306   7.314   0.856 -0.8470  1.4755 -1.2187
29250SOL     OW92306   7.903   6.032   9.275 -0.2701 -0.2324 -0.5259
29250SOL    HW192307   7.983   6.082   9.258  0.6950 -2.0978 -1.7868
29250SOL    HW292308   7.920   5.986   9.357 -1.5451  2.1220  1.1773
29251SOL     OW92309   3.045  11.287   4.590  0.0681  0.2565 -0.1148
29251SOL    HW192310   3.027  11.240   4.508 -2.0192  0.0142  0.4292
29251SOL    HW292311   3.133  11.258   4.615 -0.1786 -1.4800 -1.0769
29252SOL     OW92312   6.466   1.420  11.061 -0.3295 -0.0739 -0.0003
29252SOL    HW192313   6.428   1.432  10.974 -1.1611 -3.8778 -0.3113
29252SOL    HW292314   6.527   1.348  11.051 -0.0782 -0.2847  2.4829
29253SOL     OW92315  11.639   3.148   5.114 -0.1679 -0.1423  0.6230
29253SOL    HW192316  11.589   3.157   5.195 -2.0149 -1.3975 -0.2737
29253SOL    HW292317  11.730   3.146   5.141 -0.6307  1.2488  2.4629
29254SOL     OW92318   6.966   1.617   1.327  0.2332  0.2415 -0.4883
29254SOL    HW192319   7.025   1.545   1.348  0.1269 -0.0661 -1.1916
29254SOL    HW292320   7.023   1.692   1.311  0.3348  0.3797  0.4424
29255SOL     OW92321   3.564   9.735  11.093  0.4929  0.3438  0.5591
29255SOL    HW192322   3.529   9.700  11.176  0.0568  1.4847  0.8777
29255SOL    HW292323   3.634   9.795  11.120  2.0377 -1.1231 -0.0364
29256SOL     OW92324   6.889   6.164  10.953 -0.2264  0.3137 -0.2413
29256SOL    HW192325   6.882   6.146  10.859  1.2200  0.3695 -0.3818
29256SOL    HW292326   6.919   6.082  10.991 -1.5230  0.0710  0.2987
29257SOL     OW92327   7.447   7.154  11.433 -0.0637 -0.0597 -0.6110
29257SOL    HW192328   7.354   7.149  11.457 -0.0148  0.2155 -0.3434
29257SOL    HW292329   7.450   7.221  11.365  0.3316  2.4016  1.6550
29258SOL     OW92330   0.657   7.447   4.389  0.3620  0.0338 -0.7427
29258SOL    HW192331   0.630   7.419   4.301 -0.7389 -0.4686 -0.2656
29258SOL    HW292332   0.620   7.381   4.447 -0.2680  1.1979  0.2242
29259SOL     OW92333   7.643   9.280   3.869  0.3304 -0.1670 -0.0154
29259SOL    HW192334   7.674   9.233   3.946 -2.3235 -1.4302  0.3905
29259SOL    HW292335   7.718   9.331   3.840  2.6631 -2.8087  0.9517
29260SOL     OW92336  10.696   3.412  10.824 -0.7617  0.2620  0.4329
29260SOL    HW192337  10.621   3.420  10.883 -0.9167  0.7741  0.1722
29260SOL    HW292338  10.770   3.392  10.882 -0.8720  0.9542  0.8240
29261SOL     OW92339   1.316   1.046   7.523 -0.1322  1.2622 -0.2499
29261SOL    HW192340   1.409   1.026   7.521 -0.0504  1.6620 -0.5617
29261SOL    HW292341   1.287   1.036   7.432 -0.1352  2.3275 -0.3759
29262SOL     OW92342   5.641   1.238   5.672 -0.1246  0.1529  0.0654
29262SOL    HW192343   5.635   1.145   5.694 -0.3277  0.3230  0.7607
29262SOL    HW292344   5.664   1.239   5.579  1.7114 -0.6151  0.4475
29263SOL     OW92345   5.451   6.420  10.479 -0.2837  0.2111  0.1044
29263SOL    HW192346   5.400   6.470  10.542  0.2828  0.1081  0.6513
29263SOL    HW292347   5.388   6.395  10.411 -0.7275  1.0064  0.2125
29264SOL     OW92348   3.995   1.645   4.822 -0.1985 -0.0770 -0.1807
29264SOL    HW192349   3.972   1.569   4.769 -0.9651 -0.8314  1.1801
29264SOL    HW292350   3.967   1.720   4.770  1.3709 -0.6266 -1.9517
29265SOL     OW92351   4.056   9.807   7.234 -0.3702 -0.0846 -0.5062
29265SOL    HW192352   4.073   9.715   7.215 -1.1332 -0.3071 -0.1534
29265SOL    HW292353   3.995   9.834   7.165  0.4719  0.3858 -1.0842
29266SOL     OW92354   1.256   4.263   0.903  0.3880  0.0100  0.8862
29266SOL    HW192355   1.288   4.260   0.993 -0.5836  1.9522  1.3448
29266SOL    HW292356   1.168   4.226   0.907  0.3436  0.0959  0.7161
29267SOL     OW92357   3.247   9.068   7.252  0.1544 -0.0327 -0.2366
29267SOL    HW192358   3.226   8.977   7.232  0.3434  0.1847 -1.4812
29267SOL    HW292359   3.212   9.118   7.178 -2.2740  1.2198  1.5794
29268SOL     OW92360   5.660   0.886   5.005  0.5715  0.1127  0.2120
29268SOL    HW192361   5.601   0.831   5.057 -0.4364  0.9912  0.0236
29268SOL    HW292362   5.663   0.844   4.919  0.5237 -0.1439  0.3344
29269SOL     OW92363  11.388  11.185   4.571  0.1623 -0.7086 -0.8128
29269SOL    HW192364  11.438  11.188   4.488  1.3700 -1.1767 -0.1322
29269SOL    HW292365  11.455  11.189   4.639 -0.8223 -0.2965  0.1586
29270SOL     OW92366   8.462   6.422   9.102  0.1119  0.0740  0.0349
29270SOL    HW192367   8.390   6.364   9.077  1.8573 -1.3022 -2.1739
29270SOL    HW292368   8.449   6.436   9.196 -2.4616 -0.8744 -0.0784
29271SOL     OW92369   5.270   5.456   8.249 -0.8085  0.0617 -0.2948
29271SOL    HW192370   5.346   5.507   8.221 -1.1027  0.1563 -0.9554
29271SOL    HW292371   5.195   5.513   8.230 -1.2070 -0.9020 -1.8454
29272SOL     OW92372   4.734   1.902   1.451  0.3087  0.9942  0.3711
29272SOL    HW192373   4.742   1.820   1.403 -3.2681  1.9619 -2.3144
29272SOL    HW292374   4.819   1.946   1.439  0.7092 -0.3246 -2.2334
29273SOL     OW92375   8.563   0.775  11.533 -0.5701 -0.5370  0.6575
29273SOL    HW192376   8.496   0.799  11.468 -0.2625 -0.6703  0.2854
29273SOL    HW292377   8.557   0.680  11.541 -2.7564 -0.3001  3.1927
29274SOL     OW92378   0.271   9.647  11.115  0.0855  0.0592  0.0014
29274SOL    HW192379   0.194   9.634  11.059 -1.8376 -0.8687  2.6731
29274SOL    HW292380   0.341   9.599  11.070 -1.5168 -1.2049 -1.2832
29275SOL     OW92381  11.023   5.868   5.945 -0.0215  0.2623 -0.2828
29275SOL    HW192382  11.077   5.927   5.997  2.9033 -0.0429 -2.6910
29275SOL    HW292383  11.049   5.780   5.973 -1.8881  0.0323  0.9188
29276SOL     OW92384   6.553   1.336   0.931  0.2484 -0.2042  0.1484
29276SOL    HW192385   6.594   1.253   0.906  0.7544  0.2427 -0.5381
29276SOL    HW292386   6.612   1.403   0.897 -0.9074  0.4458 -0.6416
29277SOL     OW92387   4.514  11.018   2.460  0.7277 -0.7294  0.3510
29277SOL    HW192388   4.549  10.969   2.386 -0.8750  0.5501 -1.3659
29277SOL    HW292389   4.433  10.972   2.483 -0.2248  0.4349 -0.5639
29278SOL     OW92390  11.768   5.868   8.850  0.5751  0.3947  0.4370
29278SOL    HW192391  11.818   5.808   8.904  1.0214  1.1643  0.8947
29278SOL    HW292392  11.721   5.924   8.912 -0.1990  0.2263  0.0169
29279SOL     OW92393   2.409   6.257   2.585  0.0889 -0.0919  0.0014
29279SOL    HW192394   2.465   6.179   2.586  0.5919  0.1847  2.9966
29279SOL    HW292395   2.322   6.224   2.607 -0.0326 -0.0015 -0.3452
29280SOL     OW92396   2.912   1.608   4.018  0.2270  0.0154 -0.3014
29280SOL    HW192397   2.944   1.698   4.010  0.8698 -0.2223 -0.4989
29280SOL    HW292398   2.817   1.616   4.019  0.2868  0.8119  1.1136
29281SOL     OW92399   3.381  10.598   8.705  0.6330 -0.0299  0.0895
29281SOL    HW192400   3.431  10.544   8.767  1.4499  2.3480  1.6298
29281SOL    HW292401   3.412  10.687   8.721 -3.0204  1.3988  0.0686
29282SOL     OW92402   9.841   2.493   7.706 -0.0230 -0.6049 -0.0243
29282SOL    HW192403   9.779   2.486   7.779 -0.4497 -1.2521 -0.4357
29282SOL    HW292404   9.856   2.587   7.696 -0.6896 -0.4557  0.2927
29283SOL     OW92405   6.468   0.207   4.470 -0.4685 -0.1067 -0.5802
29283SOL    HW192406   6.376   0.184   4.486 -0.6788  0.9545 -0.1409
29283SOL    HW292407   6.501   0.233   4.556  0.4963 -1.2530 -0.5808
29284SOL     OW92408   2.517   5.741   9.352  0.6161  0.3364  0.1181
29284SOL    HW192409   2.457   5.809   9.321 -0.9340 -0.6652  0.8457
29284SOL    HW292410   2.577   5.788   9.410  0.0348  1.2019  0.0458
29285SOL     OW92411   9.713  11.375  10.697 -0.1923  0.2259  0.6445
29285SOL    HW192412   9.726  11.468  10.715  0.1017  0.1238  0.9720
29285SOL    HW292413   9.711  11.333  10.783 -0.4966 -0.0520  0.5077
29286SOL     OW92414   8.803   6.702   9.896  0.0454 -0.2108 -0.2052
29286SOL    HW192415   8.870   6.670   9.836  0.7827 -0.2729  0.6284
29286SOL    HW292416   8.811   6.797   9.893  0.3099 -0.2232  0.0379
29287SOL     OW92417   3.142   9.727   2.868 -0.1730  0.4572  0.5866
29287SOL    HW192418   3.061   9.717   2.917 -0.1500  0.5653  0.6475
29287SOL    HW292419   3.182   9.807   2.903 -1.3235  1.9416 -1.2520
29288SOL     OW92420   8.235   2.709   2.031  0.4162  0.5894 -0.0548
29288SOL    HW192421   8.316   2.758   2.045  0.5905  0.6379 -1.1712
29288SOL    HW292422   8.263   2.619   2.017  0.2438  0.5219  0.0342
29289SOL     OW92423   4.424   1.355   4.851  0.1067 -0.1915  0.0262
29289SOL    HW192424   4.343   1.387   4.810 -0.4936  1.2572  2.1564
29289SOL    HW292425   4.490   1.420   4.828 -0.6667  1.7186  2.7352
29290SOL     OW92426   1.687   4.734  11.071 -0.1136  0.2336  0.0060
29290SOL    HW192427   1.604   4.733  11.024 -0.2608  2.2425  0.1073
29290SOL    HW292428   1.753   4.749  11.003  0.5206 -3.5251 -0.3882
29291SOL     OW92429   1.889   0.441   0.046 -0.2712  0.0988  0.5705
29291SOL    HW192430   1.885   0.349   0.021 -2.3124 -0.2464  1.8652
29291SOL    HW292431   1.938   0.441   0.128 -2.5951 -0.3121  2.0614
29292SOL     OW92432  10.983   3.067   2.170 -0.5906  0.1250  0.2467
29292SOL    HW192433  10.981   3.159   2.144 -0.5585 -0.2769 -1.3092
29292SOL    HW292434  10.985   3.068   2.265 -2.2865  1.7074  0.3019
29293SOL     OW92435   3.359   9.563   6.186 -0.5791  0.3046  0.4464
29293SOL    HW192436   3.340   9.495   6.120 -2.6501  1.0726  0.1830
29293SOL    HW292437   3.401   9.633   6.136  1.3077 -0.6189  0.6686
29294SOL     OW92438   7.335   3.963   8.670 -0.1365  0.0646  0.7556
29294SOL    HW192439   7.241   3.947   8.670 -1.0699  4.1158 -1.8538
29294SOL    HW292440   7.348   4.034   8.733  1.4492 -1.2827  2.0277
29295SOL     OW92441   1.505   4.264   8.815  0.2472 -0.4117  0.1618
29295SOL    HW192442   1.559   4.239   8.890  0.0088 -0.7255  0.2306
29295SOL    HW292443   1.447   4.189   8.801 -1.7230  0.7632  1.5129
29296SOL     OW92444  11.739   9.595  10.881  0.3248 -0.0279  0.8179
29296SOL    HW192445  11.646   9.596  10.859  0.3371 -0.2151  0.7547
29296SOL    HW292446  11.742   9.561  10.970  0.3139  0.2306  0.9177
29297SOL     OW92447   6.296   3.832  10.289 -0.6487  0.0374  0.3618
29297SOL    HW192448   6.288   3.773  10.365 -1.2208  0.2295  0.4548
29297SOL    HW292449   6.237   3.905  10.309  0.5809  1.0111  0.5823
29298SOL     OW92450   8.176   4.774   9.427  0.4363 -0.2049  0.0668
29298SOL    HW192451   8.211   4.860   9.404  1.3040 -0.5359  0.1033
29298SOL    HW292452   8.248   4.730   9.472 -0.1448 -0.7912  0.4514
29299SOL     OW92453   7.146   1.401   2.395  0.4596 -0.2429 -0.5515
29299SOL    HW192454   7.110   1.321   2.434 -1.5377  0.5365 -0.6790
29299SOL    HW292455   7.136   1.467   2.463 -3.0556  1.1301 -2.1673
29300SOL     OW92456   1.659   0.749   2.190  1.1146  0.1109  0.0807
29300SOL    HW192457   1.657   0.804   2.268  2.2560  0.1163  0.1152
29300SOL    HW292458   1.615   0.668   2.217 -1.4434  1.2687 -0.2360
29301SOL     OW92459   7.054   0.062   9.882 -0.1579  0.9331  0.3416
29301SOL    HW192460   6.972   0.084   9.837 -0.9264 -0.6290  0.8976
29301SOL    HW292461   7.039  -0.025   9.917  1.6869  0.7066  0.6613
29302SOL     OW92462  10.926   8.526   3.396  0.2794 -0.0866  0.3117
29302SOL    HW192463  10.992   8.474   3.349  0.6343  0.1897  0.5038
29302SOL    HW292464  10.952   8.617   3.381  0.5679  0.0011  1.2894
29303SOL     OW92465   4.286   3.769   4.780  0.2843 -0.1119 -0.1754
29303SOL    HW192466   4.191   3.757   4.778  0.0945  1.1409  0.6271
29303SOL    HW292467   4.314   3.721   4.858 -0.0392  1.6239  1.0563
29304SOL     OW92468   3.134   8.441   8.050  0.3925  0.4464  0.4215
29304SOL    HW192469   3.228   8.460   8.043  0.3580  0.7738  0.7741
29304SOL    HW292470   3.122   8.417   8.142  0.4866 -1.6463 -0.0799
29305SOL     OW92471   7.939   6.631   3.974  0.0617  0.2068 -0.7479
29305SOL    HW192472   7.957   6.720   3.943  0.0908  0.4907  0.0598
29305SOL    HW292473   7.878   6.596   3.909  0.9561  0.3947 -1.7110
29306SOL     OW92474   6.770   3.400   3.144  0.1821 -0.8481 -0.3694
29306SOL    HW192475   6.817   3.317   3.157  3.0197  0.9956  2.3470
29306SOL    HW292476   6.747   3.429   3.232 -0.9126  1.1920 -1.2658
29307SOL     OW92477   2.293   6.380   6.713 -0.6684 -0.5713  0.4592
29307SOL    HW192478   2.374   6.429   6.728  0.7864 -2.8094  0.3334
29307SOL    HW292479   2.257   6.366   6.801 -1.1425  0.7049  0.4949
29308SOL     OW92480   0.339   2.385   2.378 -0.2687 -0.0696 -0.3185
29308SOL    HW192481   0.402   2.384   2.450 -1.5457  0.1136  0.8272
29308SOL    HW292482   0.391   2.361   2.301  0.9675 -1.0244  0.7734
29309SOL     OW92483   8.576   8.508   2.164  1.0613 -0.4271 -0.0166
29309SOL    HW192484   8.545   8.598   2.147  1.7356 -0.4708 -1.6664
29309SOL    HW292485   8.671   8.517   2.175  0.8700 -0.6393  2.4437
29310SOL     OW92486   9.212   2.603   7.622  0.3449 -0.5934  0.2564
29310SOL    HW192487   9.291   2.570   7.578 -0.3780 -0.0963 -1.5210
29310SOL    HW292488   9.210   2.696   7.601 -0.8782 -0.6665 -0.0296
29311SOL     OW92489  10.638  10.138   5.894 -0.4599  0.3109 -0.6848
29311SOL    HW192490  10.660  10.071   5.960 -0.7900  1.9766  1.2263
29311SOL    HW292491  10.720  10.186   5.882 -0.7130  0.7854 -0.5278
29312SOL     OW92492   8.167   1.061  10.215 -0.3649  0.4226 -0.1462
29312SOL    HW192493   8.110   1.098  10.147  0.7326  0.0508 -1.2930
29312SOL    HW292494   8.251   1.105  10.202  0.2811 -0.7460 -0.0028
29313SOL     OW92495   4.094   4.967   6.040 -0.2565  0.0486  0.1740
29313SOL    HW192496   4.085   4.903   6.110 -0.2221  0.2987  0.4096
29313SOL    HW292497   4.023   4.947   5.979 -0.2952 -0.1598  0.2890
29314SOL     OW92498   5.716   5.128   6.186 -0.0859 -0.5075  0.3312
29314SOL    HW192499   5.798   5.164   6.219  0.4432 -0.7053 -0.7241
29314SOL    HW292500   5.649   5.163   6.244  0.5022  1.3871 -0.0790
29315SOL     OW92501  10.854   0.658   2.458  0.0900 -0.0603  0.1616
29315SOL    HW192502  10.801   0.632   2.533  0.1235 -0.0359  0.1940
29315SOL    HW292503  10.875   0.576   2.414  0.0085 -0.0680  0.1377
29316SOL     OW92504   2.029   2.030   4.621  0.2387  0.6921  0.0518
29316SOL    HW192505   2.070   2.056   4.538 -1.4555  2.4726 -0.3060
29316SOL    HW292506   1.942   1.999   4.595  0.3822 -0.5829  1.0194
29317SOL     OW92507   3.298   4.518   8.228  0.8541 -0.3220 -0.5573
29317SOL    HW192508   3.204   4.534   8.219  0.9923  0.4599 -0.6723
29317SOL    HW292509   3.308   4.490   8.319  0.8081  1.9835  0.2204
29318SOL     OW92510   8.003  11.474   5.140 -0.0699 -0.9195  0.4737
29318SOL    HW192511   7.943  11.547   5.155  0.4376  0.1467 -2.0801
29318SOL    HW292512   8.089  11.515   5.133  0.2883 -1.7815 -0.5162
29319SOL     OW92513   9.065   7.377   4.787  0.1384  0.0206 -0.0276
29319SOL    HW192514   9.091   7.403   4.699 -2.4547 -1.0434 -1.2009
29319SOL    HW292515   8.970   7.376   4.785 -0.0634  0.7694  3.0756
29320SOL     OW92516   4.666   8.152   1.493  0.0253 -1.4370 -0.3246
29320SOL    HW192517   4.631   8.095   1.562 -0.6120  0.5093  1.0539
29320SOL    HW292518   4.590   8.176   1.441 -0.3979  0.8782  1.2257
29321SOL     OW92519   1.499   0.152   9.913 -0.2883  0.0083 -0.0428
29321SOL    HW192520   1.524   0.077   9.859 -1.6333 -0.7309  0.3139
29321SOL    HW292521   1.575   0.170   9.967 -0.6211 -2.4742  1.3756
29322SOL     OW92522  11.750   0.784  10.280 -0.9053  0.7458 -0.3732
29322SOL    HW192523  11.656   0.766  10.272 -0.3946 -1.9769 -1.1501
29322SOL    HW292524  11.782   0.719  10.342  0.4124  2.0567  0.4040
29323SOL     OW92525   0.624   5.675   9.413 -0.3070 -0.0938  0.1414
29323SOL    HW192526   0.709   5.695   9.374  0.3354 -1.2160  0.9086
29323SOL    HW292527   0.576   5.629   9.344 -0.1450  0.2103 -0.1723
29324SOL     OW92528   2.196   9.408   7.312 -0.4254  0.2265  0.1171
29324SOL    HW192529   2.165   9.494   7.339  0.6340  0.8658 -0.6327
29324SOL    HW292530   2.161   9.396   7.224 -1.9106 -0.8318  0.8179
29325SOL     OW92531   6.085   6.950   6.831 -0.3315 -0.3156  0.1497
29325SOL    HW192532   6.121   6.864   6.851  1.0527 -0.3222 -2.0254
29325SOL    HW292533   6.161   7.007   6.819 -1.1906  0.9270  0.3385
29326SOL     OW92534   7.965   3.740   3.382  0.2368  0.0094 -0.0986
29326SOL    HW192535   7.885   3.693   3.357  0.2336 -0.4963  0.8141
29326SOL    HW292536   7.947   3.775   3.469  0.4945  1.1416 -0.4849
29327SOL     OW92537   5.375   1.573   4.754 -0.1671 -0.6196 -0.5919
29327SOL    HW192538   5.400   1.496   4.805  0.8244 -0.2586 -0.5015
29327SOL    HW292539   5.316   1.539   4.687 -0.5151 -1.2956  0.0397
29328SOL     OW92540  11.778   3.536   2.717  0.2001 -0.2727  0.2270
29328SOL    HW192541  11.775   3.523   2.812  0.0469 -1.0870  0.1169
29328SOL    HW292542  11.870   3.520   2.693  0.1002 -0.7610  0.1516
29329SOL     OW92543  10.502   7.341   5.329 -0.0068 -0.2789 -0.3052
29329SOL    HW192544  10.536   7.260   5.367 -2.4622 -1.0678  0.3927
29329SOL    HW292545  10.484   7.319   5.238 -0.6000 -0.5030 -0.1360
29330SOL     OW92546   8.912   4.320   1.286  0.7623  0.8879 -0.1789
29330SOL    HW192547   8.920   4.411   1.316  0.7915  0.6871  0.4462
29330SOL    HW292548   8.836   4.287   1.334 -0.0641  0.9689 -1.4015
29331SOL     OW92549   7.849   5.164   1.916  0.2601 -0.4307 -0.1194
29331SOL    HW192550   7.781   5.231   1.924 -0.8383 -1.6073  0.8050
29331SOL    HW292551   7.930   5.214   1.902 -0.4531  1.1248  0.9534
29332SOL     OW92552   8.066   1.302   5.474 -0.2275 -0.6762 -0.1693
29332SOL    HW192553   8.034   1.225   5.520 -0.2534 -0.7783 -0.3569
29332SOL    HW292554   7.996   1.323   5.412 -1.8675  1.5829  2.2123
29333SOL     OW92555   0.866   1.124   6.151 -0.2559  0.7956 -0.3761
29333SOL    HW192556   0.891   1.214   6.171  1.8182  1.0269 -3.2631
29333SOL    HW292557   0.806   1.132   6.077  0.0562 -0.1534 -0.7463
29334SOL     OW92558   3.279   6.825  10.919 -0.6397 -0.3378  0.0106
29334SOL    HW192559   3.255   6.863  10.834  0.8220 -1.0982 -0.7779
29334SOL    HW292560   3.338   6.890  10.958  0.7617 -1.1129 -0.7343
29335SOL     OW92561   5.774   9.388   1.567 -0.2483 -0.3883 -0.0891
29335SOL    HW192562   5.699   9.336   1.595  0.4351 -0.9403  0.7751
29335SOL    HW292563   5.744   9.432   1.487 -1.7957  0.1430  0.7354
29336SOL     OW92564   1.554  11.861   8.761  0.0722  0.3817  0.1374
29336SOL    HW192565   1.590  11.863   8.672  0.6179  0.4566  0.3617
29336SOL    HW292566   1.493  11.935   8.762  0.9489  1.1115  0.1965
29337SOL     OW92567  11.750   9.557   5.834  0.2993  0.1150 -0.1466
29337SOL    HW192568  11.842   9.533   5.832 -0.0083 -1.0787 -1.0096
29337SOL    HW292569  11.740   9.618   5.761  0.4580  0.4826  0.1350
29338SOL     OW92570   9.586  10.091  10.651  0.2859  0.5852 -0.1562
29338SOL    HW192571   9.522  10.141  10.600 -0.3092 -0.5927 -0.5864
29338SOL    HW292572   9.660  10.080  10.591 -0.6723 -1.3655 -1.0637
29339SOL     OW92573   9.564   8.703  10.316 -0.2987 -0.4032 -0.2079
29339SOL    HW192574   9.645   8.752  10.299  0.4033 -1.6868 -0.7474
29339SOL    HW292575   9.592   8.626  10.364 -1.5239  0.1908  1.5614
29340SOL     OW92576   7.309   0.445   3.902 -0.1080 -0.6862 -0.5185
29340SOL    HW192577   7.355   0.446   3.818  1.6803  1.8518  0.3734
29340SOL    HW292578   7.338   0.525   3.947 -3.4103 -0.2849  1.2585
29341SOL     OW92579   3.423  11.860  11.153  0.8408  0.3554  0.3808
29341SOL    HW192580   3.350  11.813  11.112  1.5353 -1.5785  1.2425
29341SOL    HW292581   3.383  11.941  11.187 -1.6631 -1.8476  3.3645
29342SOL     OW92582   1.430   0.680   4.734  0.0611  0.2414  0.2723
29342SOL    HW192583   1.443   0.631   4.815 -0.5304  0.3353  0.4294
29342SOL    HW292584   1.364   0.746   4.756 -1.6438 -1.0184 -0.8090
29343SOL     OW92585  11.674   4.319   0.147  0.2050  0.2594 -0.0020
29343SOL    HW192586  11.667   4.402   0.101  1.5069  0.1947 -0.3410
29343SOL    HW292587  11.679   4.343   0.240  1.6553  0.6416 -0.1637
29344SOL     OW92588   2.665   4.498   2.865 -0.4464 -0.4545 -0.0953
29344SOL    HW192589   2.621   4.583   2.865  0.3888 -0.0094  0.3877
29344SOL    HW292590   2.611   4.443   2.807 -1.8399 -0.0498  0.7656
29345SOL     OW92591   1.956  10.390  11.289 -0.0672  0.1102  0.3669
29345SOL    HW192592   2.042  10.413  11.325 -0.4877  0.5538  1.1150
29345SOL    HW292593   1.914  10.340  11.358 -0.3691 -0.2023 -0.0436
29346SOL     OW92594   1.869   8.183   9.514 -0.4061 -0.6280  0.5208
29346SOL    HW192595   1.777   8.183   9.488 -0.3428  0.0060  0.2765
29346SOL    HW292596   1.882   8.267   9.558  0.1518 -0.5270  0.1796
29347SOL     OW92597   5.241   6.413   2.892  0.0834 -0.5762 -0.2654
29347SOL    HW192598   5.199   6.433   2.976  1.6919 -0.0051  0.4464
29347SOL    HW292599   5.322   6.368   2.916  1.3193  0.9361 -1.4218
29348SOL     OW92600  10.896   0.549   5.594 -0.2866 -0.5192 -0.1415
29348SOL    HW192601  10.907   0.455   5.582 -1.9503 -0.9339  1.3113
29348SOL    HW292602  10.970   0.575   5.650  0.8691 -0.6823 -1.5235
29349SOL     OW92603   2.304   8.434  10.974 -0.5028 -0.6871  0.2818
29349SOL    HW192604   2.248   8.413  11.048 -1.0390  0.4958  0.2340
29349SOL    HW292605   2.291   8.528  10.959  3.6523  0.4088  2.0971
29350SOL     OW92606   2.686   0.871   6.904 -0.2239 -0.0138  0.0395
29350SOL    HW192607   2.699   0.883   6.810  0.0560 -0.0604  0.0703
29350SOL    HW292608   2.702   0.957   6.941 -1.3450  0.2439 -0.0547
29351SOL     OW92609   4.779   9.249   5.123 -0.2146  0.0413  0.5451
29351SOL    HW192610   4.700   9.300   5.142  0.4687  0.7434  1.6413
29351SOL    HW292611   4.752   9.188   5.054 -2.8049 -2.3327  3.3172
29352SOL     OW92612   9.509   8.879   1.494 -0.7875  0.1472 -0.1441
29352SOL    HW192613   9.599   8.857   1.517 -1.4193 -0.4675  1.9982
29352SOL    HW292614   9.460   8.797   1.504 -1.6649  0.5660 -0.8184
29353SOL     OW92615   6.846  11.129   3.910 -0.2213  1.3035  0.3201
29353SOL    HW192616   6.889  11.043   3.911  1.8611  2.2712 -0.1784
29353SOL    HW292617   6.785  11.127   3.983 -1.3018 -1.0941 -0.5529
29354SOL     OW92618   4.213   4.637   3.561 -0.6997  0.2335  0.3461
29354SOL    HW192619   4.299   4.660   3.596 -0.9565 -0.4981  1.5398
29354SOL    HW292620   4.221   4.647   3.466  0.9202 -0.5370  0.3784
29355SOL     OW92621   9.802  11.350   8.931  0.0749 -0.5096 -0.0190
29355SOL    HW192622   9.717  11.307   8.941 -0.8515  1.0913 -0.7463
29355SOL    HW292623   9.856  11.311   9.001 -1.1713 -1.6877  0.3386
29356SOL     OW92624  11.281   3.813   4.695  0.3307  0.5006  0.0627
29356SOL    HW192625  11.272   3.908   4.699  0.1027  0.4314  2.0284
29356SOL    HW292626  11.227   3.780   4.767 -0.0727 -1.1711 -0.9413
29357SOL     OW92627   4.267  11.534   9.754 -0.3056 -0.7279  0.7570
29357SOL    HW192628   4.288  11.499   9.668 -1.5203 -1.0758  0.5739
29357SOL    HW292629   4.186  11.490   9.779 -0.0196 -0.5742  2.0501
29358SOL     OW92630  10.296   8.999   1.548  0.4226 -0.1591  0.2205
29358SOL    HW192631  10.332   9.061   1.485  2.8678 -1.2883  0.3642
29358SOL    HW292632  10.322   8.913   1.514 -0.0670 -0.9038  1.6404
29359SOL     OW92633   8.727   9.266  11.813 -0.3525 -0.7370  0.1527
29359SOL    HW192634   8.636   9.296  11.820 -0.1730  0.9751 -2.9573
29359SOL    HW292635   8.720   9.179  11.773 -0.6941  0.2624 -2.1374
29360SOL     OW92636   4.785   6.129   7.544  0.1559 -0.5280  0.1005
29360SOL    HW192637   4.865   6.107   7.497  0.1842  1.1062 -0.7019
29360SOL    HW292638   4.815   6.186   7.616  0.0823 -2.7659  2.0096
29361SOL     OW92639   7.542   8.881  11.238  0.3763 -0.8883 -0.0141
29361SOL    HW192640   7.589   8.956  11.274  1.6352 -1.5970 -0.1305
29361SOL    HW292641   7.595   8.854  11.162 -1.1801 -0.6076 -1.2603
29362SOL     OW92642   8.889   5.423   5.428 -0.1695 -0.1295 -0.4987
29362SOL    HW192643   8.839   5.345   5.403  0.3670 -0.3989 -0.7414
29362SOL    HW292644   8.822   5.490   5.442 -0.5933 -0.4329 -1.0038
29363SOL     OW92645   1.873   6.457   4.942 -0.0428  0.4282 -0.2881
29363SOL    HW192646   1.841   6.394   5.006  0.7750 -0.0992 -0.3738
29363SOL    HW292647   1.940   6.507   4.989  0.5694  0.0304 -0.7299
29364SOL     OW92648  11.459   1.086   4.151  0.2710 -0.0549 -0.2312
29364SOL    HW192649  11.417   1.063   4.234  0.8757  0.1481  0.1387
29364SOL    HW292650  11.420   1.169   4.126 -0.9813 -0.8164 -0.9094
29365SOL     OW92651   4.281  11.384   2.429 -0.7446 -0.1316 -0.3728
29365SOL    HW192652   4.223  11.343   2.365 -0.9085  1.6390 -1.4062
29365SOL    HW292653   4.368  11.352   2.405 -0.6893  1.1820 -2.0864
29366SOL     OW92654  10.368   5.065   5.165  0.0067  0.3388 -0.0921
29366SOL    HW192655  10.376   5.066   5.260  3.2017  2.1916 -0.2477
29366SOL    HW292656  10.353   5.157   5.142  1.4720  0.2675 -1.4676
29367SOL     OW92657   8.688   3.241  10.391  0.2850  0.2227 -0.0837
29367SOL    HW192658   8.731   3.287  10.463  0.1905 -0.3296  0.3335
29367SOL    HW292659   8.691   3.148  10.416  1.4042 -0.1194 -1.4003
29368SOL     OW92660   8.456   4.642  10.228  0.3193 -0.2587 -0.0199
29368SOL    HW192661   8.541   4.608  10.253 -1.3161 -2.1088  3.7143
29368SOL    HW292662   8.411   4.568  10.187  0.1592  0.4758 -1.2420
29369SOL     OW92663   1.730   2.600   0.259 -0.5704  0.7637 -0.3774
29369SOL    HW192664   1.725   2.644   0.174  1.6573 -1.9560 -2.1089
29369SOL    HW292665   1.663   2.532   0.255 -1.5666  1.6422  0.7785
29370SOL     OW92666   7.526   7.431   1.029 -0.1953 -0.4930  0.5929
29370SOL    HW192667   7.611   7.388   1.041 -0.4312 -0.8796  0.9325
29370SOL    HW292668   7.532   7.511   1.080 -0.0314 -0.5143  0.6085
29371SOL     OW92669   3.726   4.973   5.351  0.7125 -0.9731 -0.2083
29371SOL    HW192670   3.711   5.052   5.403 -2.5893  0.8090 -3.3815
29371SOL    HW292671   3.697   4.901   5.408 -0.9375  0.6387  1.1349
29372SOL     OW92672   5.640   1.685   4.859 -0.4539  0.5591  0.1805
29372SOL    HW192673   5.550   1.682   4.827 -0.0073 -0.6143 -1.0531
29372SOL    HW292674   5.651   1.603   4.907  0.4608 -0.1410 -1.1748
29373SOL     OW92675   0.119   6.733  11.498  0.1013  0.5446 -0.2646
29373SOL    HW192676   0.207   6.751  11.530 -0.4799  0.6909  1.3204
29373SOL    HW292677   0.132   6.700  11.409  1.6198  2.8879 -1.0172
29374SOL     OW92678  10.889  10.796   0.498 -0.4261  0.0419 -0.5122
29374SOL    HW192679  10.824  10.772   0.433  0.7728 -0.0565 -1.7271
29374SOL    HW292680  10.967  10.819   0.447  1.0372 -1.4450  0.9197
29375SOL     OW92681   9.087   9.110  11.891  0.2698  0.2569  0.4441
29375SOL    HW192682   9.038   9.108  11.809  1.3547 -1.1600 -0.2099
29375SOL    HW292683   9.155   9.176  11.877  0.5049 -0.0430  0.1741
29376SOL     OW92684   8.205   6.256   8.256 -0.3635 -0.2222  0.4254
29376SOL    HW192685   8.173   6.216   8.174  0.9034 -1.2603  0.3953
29376SOL    HW292686   8.223   6.181   8.313 -0.8616  0.4825  1.5236
29377SOL     OW92687   7.365   6.439  10.445  0.4481 -0.4604 -0.1677
29377SOL    HW192688   7.339   6.405  10.531 -1.3321  0.1641 -0.4120
29377SOL    HW292689   7.393   6.529  10.463 -3.7606  1.1707 -0.6022
29378SOL     OW92690  11.770   2.603   3.195  0.3453  0.6518 -0.1053
29378SOL    HW192691  11.706   2.616   3.124  0.2062 -0.8398 -0.2826
29378SOL    HW292692  11.816   2.523   3.171  0.9864  0.6725  1.0025
29379SOL     OW92693   9.786  10.785   9.656  0.6054  0.4472  0.1954
29379SOL    HW192694   9.783  10.741   9.741 -0.8115  1.7771  0.8889
29379SOL    HW292695   9.819  10.873   9.676 -0.4915  1.0312 -0.4820
29380SOL     OW92696   7.609  10.094   3.061 -0.3449  0.2202  0.0146
29380SOL    HW192697   7.555  10.172   3.076 -2.1317 -1.0070  0.1444
29380SOL    HW292698   7.662  10.117   2.985 -1.4320  1.2589 -0.4657
29381SOL     OW92699   4.347   9.709   5.870  0.1349  0.6941  0.6704
29381SOL    HW192700   4.262   9.666   5.863  0.0789  1.0042 -0.7167
29381SOL    HW292701   4.410   9.637   5.874 -0.0680  0.4600 -0.1529
29382SOL     OW92702   1.692  11.939   3.354 -0.1901 -0.0138 -0.0104
29382SOL    HW192703   1.728  12.022   3.385 -2.2577  0.6778  0.7161
29382SOL    HW292704   1.702  11.880   3.429  0.5006 -0.1932 -0.2342
29383SOL     OW92705   2.339   2.146  11.713 -0.4434  0.0672  0.0493
29383SOL    HW192706   2.287   2.184  11.783 -0.0088 -0.6457  0.7708
29383SOL    HW292707   2.357   2.057  11.742  1.2526  0.3148 -0.1342
29384SOL     OW92708   2.743   3.304   7.507  0.3906 -0.0023 -0.0596
29384SOL    HW192709   2.688   3.300   7.584  0.4236 -1.7623 -0.0991
29384SOL    HW292710   2.798   3.226   7.511  0.6354  0.0344 -1.6741
29385SOL     OW92711   9.414   9.006   5.758  0.0498  0.7162  0.1333
29385SOL    HW192712   9.463   9.085   5.735 -1.7584  2.1944  1.0970
29385SOL    HW292713   9.339   9.006   5.698 -1.3800  1.2471  1.8204
29386SOL     OW92714   2.921   3.495  11.219 -0.0361  0.0935 -0.0678
29386SOL    HW192715   2.876   3.500  11.303  1.9324 -2.3019  1.2845
29386SOL    HW292716   2.942   3.402  11.208 -0.8544  0.1665 -3.6253
29387SOL     OW92717   5.593  11.304   5.808  0.0605  0.0253  0.3913
29387SOL    HW192718   5.590  11.399   5.803 -0.1157  0.0406  0.7435
29387SOL    HW292719   5.668  11.285   5.865  0.0149 -0.0390  0.4308
29388SOL     OW92720  11.340   4.129   2.762 -0.6639  0.0788  0.0067
29388SOL    HW192721  11.401   4.061   2.732  0.4248  0.7811  0.5821
29388SOL    HW292722  11.315   4.100   2.850 -0.4922  0.2341  0.1059
29389SOL     OW92723   2.308   8.191   7.495 -0.0358  0.2998  0.0243
29389SOL    HW192724   2.332   8.106   7.533 -2.3446 -0.1164  0.7120
29389SOL    HW292725   2.388   8.242   7.498  0.9688 -1.2487  1.2958
29390SOL     OW92726   4.795   7.359   3.784  0.0556  0.2506 -0.3640
29390SOL    HW192727   4.781   7.292   3.851  2.6427  0.7009  0.7604
29390SOL    HW292728   4.749   7.436   3.818  0.2251  0.0941  0.2288
29391SOL     OW92729   2.231   2.903   8.434  0.4018 -0.1599 -0.3550
29391SOL    HW192730   2.150   2.875   8.392  0.7681 -0.0831 -1.1340
29391SOL    HW292731   2.243   2.843   8.507  0.7611 -1.5432 -1.5095
29392SOL     OW92732   8.603   2.723  10.759  0.4273  0.5540 -0.4084
29392SOL    HW192733   8.573   2.635  10.737 -1.3182  0.2350  2.6560
29392SOL    HW292734   8.524   2.777  10.749  0.8357  1.2672  0.1691
29393SOL     OW92735   1.816   6.310   6.575 -0.0319  0.0135 -0.2821
29393SOL    HW192736   1.834   6.235   6.518  1.0925 -0.1951  0.3050
29393SOL    HW292737   1.797   6.382   6.516 -3.3350 -1.1745 -0.8760
29394SOL     OW92738   2.996  11.693  10.217 -0.0745 -0.2911 -0.4872
29394SOL    HW192739   2.914  11.708  10.263 -1.6431 -1.4146 -2.7089
29394SOL    HW292740   3.020  11.779  10.182  1.2394  0.6234  2.3336
29395SOL     OW92741  10.125   0.557   5.458  0.0723 -0.0099 -0.4215
29395SOL    HW192742  10.093   0.592   5.541  0.2072 -0.9216  0.0341
29395SOL    HW292743  10.193   0.495   5.484  0.3411 -0.0569 -1.2354
29396SOL     OW92744  11.441  11.000   9.937 -0.4870  0.4921 -0.1112
29396SOL    HW192745  11.496  11.045   9.871 -0.7630  0.3603 -0.4332
29396SOL    HW292746  11.503  10.972  10.004 -0.0075 -0.4972 -0.9349
29397SOL     OW92747   9.388  11.903   0.476  0.8570 -0.7155  0.2367
29397SOL    HW192748   9.430  11.825   0.439  0.2149  0.2409 -2.7184
29397SOL    HW292749   9.341  11.943   0.403 -2.9758 -0.1881  2.6752
29398SOL     OW92750   0.318   6.797   3.131  0.3543  0.5153  1.0864
29398SOL    HW192751   0.385   6.865   3.118  1.4100 -0.2387  2.3571
29398SOL    HW292752   0.287   6.810   3.220 -0.2041 -0.0195  0.9750
29399SOL     OW92753   4.300   3.179   1.950 -0.2126  0.4381 -0.4946
29399SOL    HW192754   4.219   3.138   1.981  0.1392  0.5862  0.6761
29399SOL    HW292755   4.365   3.108   1.951  0.3424  0.9290  1.3162
29400SOL     OW92756   1.770   7.695   7.974 -0.0813  0.3758 -0.2532
29400SOL    HW192757   1.765   7.791   7.972 -2.3263  0.3400  0.2579
29400SOL    HW292758   1.795   7.674   8.064 -1.3434  0.4945  0.1489
29401SOL     OW92759   9.516   7.581   0.617  0.1240  0.1721  0.2084
29401SOL    HW192760   9.424   7.608   0.618  0.3269  1.1797 -1.7508
29401SOL    HW292761   9.519   7.513   0.550  0.5222 -1.1783  1.5600
29402SOL     OW92762   2.091   1.695   1.086 -0.2304 -0.4934 -0.0245
29402SOL    HW192763   2.135   1.697   1.171 -0.9298  0.2965  0.3313
29402SOL    HW292764   2.034   1.772   1.087 -0.8602 -0.9391 -0.8801
29403SOL     OW92765  10.765   7.424   1.615  0.4301  0.0962  0.6423
29403SOL    HW192766  10.818   7.345   1.628 -0.5130 -0.5536  0.6619
29403SOL    HW292767  10.773   7.472   1.697  1.8216  0.5510  0.2826
29404SOL     OW92768  11.943   5.091   3.841  0.6220 -0.2121 -0.9295
29404SOL    HW192769  11.969   5.036   3.768  0.5982 -1.5778  0.0401
29404SOL    HW292770  11.849   5.074   3.852  0.6310 -0.0534 -0.5792
29405SOL     OW92771   8.101   5.303   8.812  0.2372  0.2434 -0.4930
29405SOL    HW192772   8.097   5.387   8.857  0.1439 -0.5502  1.0858
29405SOL    HW292773   8.129   5.324   8.723  1.3144  1.8362  0.1728
29406SOL     OW92774   6.118   4.644  10.258 -0.2413 -0.7646  0.1787
29406SOL    HW192775   6.166   4.578  10.308 -0.7329 -0.2348  1.4216
29406SOL    HW292776   6.055   4.680  10.322  0.1696  1.0531 -0.3867
29407SOL     OW92777   1.088   3.500   8.390  0.6452  0.1895 -0.0139
29407SOL    HW192778   1.119   3.427   8.336  1.3226 -0.4141  1.1420
29407SOL    HW292779   1.055   3.458   8.470 -1.3626  0.9695 -0.3729
29408SOL     OW92780   1.216   9.033   3.547  0.3757  0.1023 -0.4460
29408SOL    HW192781   1.180   9.059   3.462 -0.7327  0.4141  0.0992
29408SOL    HW292782   1.295   8.984   3.526 -0.4203 -0.6884 -1.7127
29409SOL     OW92783   2.213   7.906  11.263  0.0941  0.4918  0.2363
29409SOL    HW192784   2.249   7.882  11.178  1.1303  1.5260  0.3496
29409SOL    HW292785   2.214   7.825  11.313  3.2275  0.5815  0.5345
29410SOL     OW92786  11.312   8.461   7.895  0.1197 -0.3398  0.6193
29410SOL    HW192787  11.255   8.507   7.833 -1.9240  0.6221  3.0517
29410SOL    HW292788  11.328   8.524   7.965  0.5056 -2.0620  2.1642
29411SOL     OW92789   7.478   3.273   5.874  0.5978 -0.2388  0.1773
29411SOL    HW192790   7.421   3.214   5.923 -0.8885  0.9683 -0.0349
29411SOL    HW292791   7.532   3.214   5.820 -1.5882 -1.4169 -0.8649
29412SOL     OW92792   9.398   2.973   0.955  0.0006 -0.4107 -1.0976
29412SOL    HW192793   9.411   2.904   0.890  0.4610 -2.5607  1.0965
29412SOL    HW292794   9.474   3.031   0.945  0.7737 -1.4719 -1.5857
29413SOL     OW92795   8.580   9.085   2.080  0.3744 -0.3748 -0.4260
29413SOL    HW192796   8.534   9.082   1.996 -0.3606  0.7414 -0.0870
29413SOL    HW292797   8.672   9.084   2.056  0.1769  0.0555 -1.2597
29414SOL     OW92798  10.466   6.271   5.226 -0.4537 -0.3522 -0.2754
29414SOL    HW192799  10.532   6.303   5.287  1.5046 -0.8505 -2.0329
29414SOL    HW292800  10.452   6.180   5.251  1.0770 -0.8509 -1.0932
29415SOL     OW92801   9.825   2.767  11.331  0.1327  0.0297 -0.5779
29415SOL    HW192802   9.877   2.784  11.409 -1.6644  0.3855  0.6101
29415SOL    HW292803   9.883   2.719  11.273  1.3194 -0.8248  1.2420
29416SOL     OW92804   1.782  10.762   9.524  0.3461 -0.4051 -0.3561
29416SOL    HW192805   1.712  10.698   9.519  0.2364 -0.2959 -0.2152
29416SOL    HW292806   1.773  10.800   9.612  0.5739 -0.3860 -0.3404
29417SOL     OW92807   6.783   8.414   0.610 -0.6730  0.2635 -0.6602
29417SOL    HW192808   6.724   8.406   0.535 -1.5142  1.5198 -0.1590
29417SOL    HW292809   6.769   8.503   0.642  0.6919  0.2120  0.1555
29418SOL     OW92810   0.651   4.026   7.005  0.1306  0.1405  0.2351
29418SOL    HW192811   0.712   4.091   6.973 -0.4570  0.0023 -1.2201
29418SOL    HW292812   0.646   3.960   6.936 -0.2031 -0.8375  1.1515
29419SOL     OW92813   3.471   0.019   8.076 -0.0100 -0.1086  0.1075
29419SOL    HW192814   3.448  -0.070   8.049 -3.5494  0.7877 -0.4163
29419SOL    HW292815   3.410   0.038   8.148  0.7441  1.8488  0.2787
29420SOL     OW92816   6.802   9.743  10.494 -0.0100  0.6826  0.1335
29420SOL    HW192817   6.739   9.810  10.469 -0.0198  0.6994  0.2042
29420SOL    HW292818   6.860   9.787  10.556 -0.7195  0.3051  1.0868
29421SOL     OW92819   8.342   5.439   9.790 -0.0815 -0.2363  0.2471
29421SOL    HW192820   8.269   5.489   9.753 -2.2958 -2.8486  0.7925
29421SOL    HW292821   8.406   5.433   9.718  0.2650  3.1026  0.1251
29422SOL     OW92822   4.993   1.533   6.115 -0.4665 -0.7064  0.1944
29422SOL    HW192823   5.009   1.479   6.038  0.0043 -1.6375  0.9295
29422SOL    HW292824   4.922   1.592   6.089  0.9661  0.3324 -1.6061
29423SOL     OW92825   4.515  10.138  10.311  0.2192  0.2657 -0.0881
29423SOL    HW192826   4.592  10.112  10.261  0.7640  0.3987  0.6657
29423SOL    HW292827   4.452  10.067  10.296  1.1400 -0.7537  0.7386
29424SOL     OW92828   8.940   4.559  11.792 -0.1225 -0.2474  0.1363
29424SOL    HW192829   8.932   4.481  11.847 -2.0527  0.3356  0.7531
29424SOL    HW292830   8.930   4.632  11.853  0.2897  0.4746 -0.6353
29425SOL     OW92831   4.982  11.025  10.751  0.5214 -0.2006 -0.5458
29425SOL    HW192832   5.039  11.022  10.828 -1.3733 -1.2847  0.8889
29425SOL    HW292833   4.939  11.111  10.757  1.2225  0.1949 -1.0637
29426SOL     OW92834   0.882   2.226   3.664 -0.0693  0.0288 -0.2490
29426SOL    HW192835   0.878   2.222   3.568 -1.9932  1.3405 -0.2792
29426SOL    HW292836   0.930   2.306   3.683  0.3322 -0.2440 -0.1113
29427SOL     OW92837   5.122   7.114   5.567 -0.6845  0.0503  0.1858
29427SOL    HW192838   5.196   7.087   5.512 -0.2543  0.0734  0.7442
29427SOL    HW292839   5.162   7.167   5.636 -1.1205 -0.7073  1.0250
29428SOL     OW92840   8.719   4.827  11.745  0.2914 -0.2404 -0.2160
29428SOL    HW192841   8.782   4.795  11.809  0.7118 -1.0046 -0.9798
29428SOL    HW292842   8.772   4.850  11.669 -0.3388 -1.0245 -0.9257
29429SOL     OW92843   5.012   8.588   6.739  0.0618 -0.3782  0.0334
29429SOL    HW192844   5.088   8.617   6.788 -0.2097 -1.0396  0.8731
29429SOL    HW292845   4.994   8.499   6.772  0.8064 -1.5001 -2.3570
29430SOL     OW92846  11.161  11.178   7.707 -0.3926  0.0369 -0.3642
29430SOL    HW192847  11.154  11.242   7.777  0.8783 -1.1690  0.9327
29430SOL    HW292848  11.074  11.175   7.668 -1.0979  0.8277  1.0823
29431SOL     OW92849   3.320   9.956   4.783  0.0003 -0.7981 -0.0278
29431SOL    HW192850   3.387  10.021   4.808 -0.6059  0.7090 -2.0509
29431SOL    HW292851   3.364   9.900   4.718 -0.3020 -0.6207 -0.3911
29432SOL     OW92852   0.470   7.138   8.790  0.8333  0.0739 -0.1649
29432SOL    HW192853   0.525   7.066   8.759  1.1342  0.8077 -1.4342
29432SOL    HW292854   0.432   7.175   8.710  0.2866  1.0038  0.5005
29433SOL     OW92855   2.524   4.124   2.839 -0.4471 -0.2754  0.1202
29433SOL    HW192856   2.520   4.124   2.935  0.3366  0.5498  0.1619
29433SOL    HW292857   2.592   4.060   2.818 -0.4674 -0.2994  0.1282
29434SOL     OW92858   0.361  10.746   2.740 -0.1303 -0.1100  0.4299
29434SOL    HW192859   0.411  10.710   2.667  1.3270 -0.4768  1.5649
29434SOL    HW292860   0.302  10.675   2.766 -0.5399 -0.0345 -0.2510
29435SOL     OW92861  10.194   9.034   9.866  0.1436  0.3637  0.9722
29435SOL    HW192862  10.205   8.965   9.932 -2.6922 -0.9246  0.2390
29435SOL    HW292863  10.154   9.107   9.914  2.7728  1.4818  1.6584
29436SOL     OW92864   2.442   3.525   9.154  0.2885 -0.3518 -0.6229
29436SOL    HW192865   2.400   3.565   9.230 -1.3537 -0.4120 -1.4599
29436SOL    HW292866   2.483   3.445   9.189  2.0238  1.0332  0.7038
29437SOL     OW92867  11.380   6.376   6.364 -0.6344 -0.3182 -0.1515
29437SOL    HW192868  11.297   6.350   6.323 -0.8763 -0.9568  0.7154
29437SOL    HW292869  11.404   6.301   6.419 -0.3477  0.5334  0.9091
29438SOL     OW92870   1.242   4.490  11.890  0.3088  0.6430 -0.0004
29438SOL    HW192871   1.288   4.408  11.870 -1.6565 -0.1831 -1.5576
29438SOL    HW292872   1.296   4.558  11.851  0.8934 -0.1575 -0.6300
29439SOL     OW92873  11.295   8.702  10.669 -0.0562  0.8427  0.2267
29439SOL    HW192874  11.275   8.645  10.594 -0.2194  2.8835 -1.3861
29439SOL    HW292875  11.277   8.790  10.637 -1.7931  1.7307  3.2496
29440SOL     OW92876   9.197   2.081   1.955  0.7573  0.5368  0.6434
29440SOL    HW192877   9.144   2.125   1.889  0.8919  0.3514  0.4129
29440SOL    HW292878   9.276   2.135   1.961  0.9712  0.2692  0.2804
29441SOL     OW92879  12.036   0.318   2.249  0.0750 -0.4789 -0.7128
29441SOL    HW192880  12.080   0.274   2.322 -2.6170  0.0316  1.3789
29441SOL    HW292881  12.069   0.408   2.251  0.9120 -0.7740 -0.9396
29442SOL     OW92882   8.961   1.974   5.830 -0.0462 -0.4326 -0.0571
29442SOL    HW192883   9.021   1.939   5.764  1.1117 -2.0362  1.7578
29442SOL    HW292884   8.993   2.063   5.846  0.9764 -0.7679 -0.1457
29443SOL     OW92885   7.823   4.437   7.902 -0.2007  0.2867 -0.6513
29443SOL    HW192886   7.872   4.498   7.846 -1.5411 -0.3860 -2.6745
29443SOL    HW292887   7.819   4.356   7.851 -0.4313 -0.7779  0.9925
29444SOL     OW92888   5.570   9.711   8.506  0.1586 -0.0424  0.3743
29444SOL    HW192889   5.632   9.651   8.465  0.5861  0.9108 -0.4162
29444SOL    HW292890   5.608   9.731   8.592 -0.4700 -1.6258  1.0470
29445SOL     OW92891   5.988   9.090  11.062 -0.0389 -0.1171 -0.4102
29445SOL    HW192892   5.892   9.088  11.063 -0.0473 -0.8978 -1.1638
29445SOL    HW292893   6.013   9.043  11.141 -0.2819  0.1703 -0.1616
29446SOL     OW92894   8.761   1.597   1.067  0.3234  0.6835  0.0490
29446SOL    HW192895   8.683   1.649   1.047  0.2197  0.4310 -0.1930
29446SOL    HW292896   8.745   1.562   1.155  1.3548  2.8894  1.2162
29447SOL     OW92897   9.655  10.574   2.407 -0.1216 -0.9014 -0.0894
29447SOL    HW192898   9.647  10.610   2.495 -0.7196  0.2454 -0.5868
29447SOL    HW292899   9.586  10.618   2.357  0.4370 -1.2667 -1.2102
29448SOL     OW92900   4.201   7.105   9.975  0.9901 -0.2437 -0.3019
29448SOL    HW192901   4.186   7.186  10.023 -1.5430 -1.4547  1.1147
29448SOL    HW292902   4.179   7.127   9.884  0.7025  0.7311 -0.0054
29449SOL     OW92903   6.135  10.291   2.431 -0.4173  0.2959 -0.1981
29449SOL    HW192904   6.182  10.235   2.493  0.0609  2.2851  1.3421
29449SOL    HW292905   6.186  10.285   2.350  1.9641  1.5352  1.1056
29450SOL     OW92906   4.263   0.986   9.773  0.3766  0.2437 -0.7929
29450SOL    HW192907   4.272   0.994   9.868 -1.1288  0.6044 -0.6478
29450SOL    HW292908   4.192   1.046   9.751 -1.1508 -1.7971 -1.7622
29451SOL     OW92909   3.207  11.601   5.964 -0.3074 -0.4511 -0.0445
29451SOL    HW192910   3.234  11.525   5.914  0.5350 -0.4269  0.3719
29451SOL    HW292911   3.214  11.674   5.902  0.6926 -0.4274  0.0805
29452SOL     OW92912   0.791   1.724   0.537 -0.0804  0.2521 -0.2402
29452SOL    HW192913   0.857   1.788   0.562 -1.8396  0.7798  3.7555
29452SOL    HW292914   0.728   1.773   0.484  0.1592  1.0459  0.2052
29453SOL     OW92915   1.716   8.753   2.983  0.3791 -0.2723 -0.0201
29453SOL    HW192916   1.706   8.847   2.974  3.0922  0.0341 -0.8507
29453SOL    HW292917   1.741   8.740   3.075  1.3928 -0.0001 -0.2500
29454SOL     OW92918   0.288   7.092   1.345  0.0698 -0.2779  0.6378
29454SOL    HW192919   0.311   7.025   1.281  3.0255 -0.8468  2.1331
29454SOL    HW292920   0.273   7.043   1.426 -1.5966  0.5983  0.8988
29455SOL     OW92921   2.119   0.947   9.041  0.8979  0.2029 -0.6971
29455SOL    HW192922   2.179   0.994   8.983 -1.1959  1.1950 -2.2165
29455SOL    HW292923   2.083   0.877   8.986  0.3518 -0.0903  0.0146
29456SOL     OW92924   4.357   1.910   2.304 -0.3439  0.1362  0.1292
29456SOL    HW192925   4.421   1.963   2.256  0.3317 -1.2576 -0.5579
29456SOL    HW292926   4.358   1.946   2.393 -1.3489  2.5383 -0.7390
29457SOL     OW92927  10.688   8.953   4.715 -0.1058  0.1196  0.3679
29457SOL    HW192928  10.770   8.903   4.726 -1.5402 -2.0916  1.9009
29457SOL    HW292929  10.640   8.906   4.647 -0.2682  1.2211 -0.2992
29458SOL     OW92930   8.776   7.308   9.115 -0.0859  0.9045  0.4588
29458SOL    HW192931   8.762   7.359   9.035 -0.9231 -0.2714 -0.1727
29458SOL    HW292932   8.710   7.340   9.175  0.7717  2.0433  0.8371
29459SOL     OW92933   1.615   1.670  10.674  0.2785  0.2335 -0.0403
29459SOL    HW192934   1.571   1.741  10.721  0.6635  0.6813 -0.3507
29459SOL    HW292935   1.548   1.635  10.616 -0.1918 -0.3018  0.7988
29460SOL     OW92936   4.025   3.600  10.305 -0.2061 -0.5664 -0.2476
29460SOL    HW192937   4.047   3.573  10.394 -1.7672  1.9629  1.0367
29460SOL    HW292938   4.106   3.588  10.255  0.0474 -4.4103  0.7854
29461SOL     OW92939   5.317   8.481   8.463 -0.3916 -0.3787  0.4229
29461SOL    HW192940   5.239   8.501   8.514  0.1556  2.4972  0.2497
29461SOL    HW292941   5.289   8.492   8.372  0.1514  0.5507  0.3549
29462SOL     OW92942  10.013   8.898   1.321 -0.6835 -0.4005 -0.0228
29462SOL    HW192943  10.043   8.987   1.338  0.4675 -0.8019  0.0918
29462SOL    HW292944  10.010   8.857   1.407 -0.5645 -0.6706 -0.1467
29463SOL     OW92945   7.304  11.055   3.508 -0.1420 -0.1038 -0.5330
29463SOL    HW192946   7.268  11.035   3.421  0.3975 -1.5471 -0.4585
29463SOL    HW292947   7.350  10.975   3.533  0.3017  0.5434  0.7929
29464SOL     OW92948   0.744  10.775   8.554  0.7685  0.2961  0.0781
29464SOL    HW192949   0.651  10.796   8.539  0.9827  0.2642 -1.4154
29464SOL    HW292950   0.742  10.698   8.611 -0.1444 -0.2804 -0.6994
29465SOL     OW92951  12.091   4.416   6.420 -0.6660  0.1089  0.6053
29465SOL    HW192952  12.122   4.388   6.334 -1.2687 -1.1827  0.7688
29465SOL    HW292953  12.170   4.434   6.470 -0.3176  1.4729 -0.3778
29466SOL     OW92954  11.226   0.257   7.216  0.0257 -0.2666  0.2712
29466SOL    HW192955  11.141   0.278   7.177  0.6942 -0.5901 -1.4446
29466SOL    HW292956  11.255   0.179   7.169  1.2206 -0.2444  0.9332
29467SOL     OW92957  11.863   9.630   8.567  0.5560  0.4590 -0.4791
29467SOL    HW192958  11.909   9.569   8.625  0.9077  0.1758 -1.0441
29467SOL    HW292959  11.870   9.590   8.480  0.0068  0.8590 -0.7119
29468SOL     OW92960   9.159   2.042   7.921  0.2253  0.2134  0.5171
29468SOL    HW192961   9.225   2.096   7.878 -0.4957  0.3947 -0.3985
29468SOL    HW292962   9.097   2.020   7.852 -1.3022  0.9997  1.5725
29469SOL     OW92963   9.572   8.888   6.343  0.1075  0.4167 -0.0050
29469SOL    HW192964   9.625   8.810   6.362 -0.3327 -0.6158 -2.5801
29469SOL    HW292965   9.486   8.854   6.319 -0.1989  1.7117 -0.8683
29470SOL     OW92966  12.053  10.351   1.880 -0.1579  0.9142  0.0987
29470SOL    HW192967  12.079  10.306   1.960  0.7528  2.2903  0.5903
29470SOL    HW292968  11.987  10.293   1.842 -0.3367  0.0463  1.6333
29471SOL     OW92969   2.295  11.673   7.386  0.5025  0.4376  0.2098
29471SOL    HW192970   2.371  11.619   7.408  1.5634  0.6615 -2.4690
29471SOL    HW292971   2.244  11.619   7.325 -0.0867  1.2546 -0.0454
29472SOL     OW92972   8.330   7.215   3.700  0.0156  0.1876 -0.1928
29472SOL    HW192973   8.280   7.296   3.689 -1.8977 -0.5065  2.4690
29472SOL    HW292974   8.409   7.241   3.747 -0.1500  0.6485 -0.1678
29473SOL     OW92975   5.295   2.080  10.646  0.0469  0.0164 -0.3751
29473SOL    HW192976   5.341   2.062  10.564 -0.0503  1.4422 -0.7621
29473SOL    HW292977   5.204   2.057  10.628  0.1511 -0.3563 -0.4340
29474SOL     OW92978   2.782   9.606   4.475  0.1838  0.2872 -0.2039
29474SOL    HW192979   2.746   9.564   4.553 -1.5682  0.3082 -0.9542
29474SOL    HW292980   2.708   9.612   4.415  1.2208  1.3266 -1.4337
29475SOL     OW92981  10.039   1.166   8.942  0.4559  0.0546 -0.3714
29475SOL    HW192982  10.104   1.107   8.904 -0.2774 -0.6685 -0.5382
29475SOL    HW292983  10.086   1.213   9.011  0.8130 -1.3800  0.3797
29476SOL     OW92984   9.940   1.226   7.502  0.5842  0.0135 -0.0696
29476SOL    HW192985   9.860   1.247   7.454  0.9087 -0.7153 -0.9500
29476SOL    HW292986   9.979   1.311   7.521 -0.5993  0.3954  0.7313
29477SOL     OW92987  10.414   8.930   6.000 -0.3075 -0.2023  0.5382
29477SOL    HW192988  10.441   8.951   6.090 -2.9872  0.7768  1.1995
29477SOL    HW292989  10.420   9.013   5.953  0.7603 -0.6425 -0.1242
29478SOL     OW92990   5.242   6.790   7.542 -0.1753 -0.4622  0.5142
29478SOL    HW192991   5.161   6.769   7.496  0.1084 -1.0315  0.2695
29478SOL    HW292992   5.309   6.792   7.473 -0.1814  1.2931  0.5000
29479SOL     OW92993   8.244   1.180   4.112 -0.4271  0.1208  0.3291
29479SOL    HW192994   8.271   1.208   4.199 -0.2022  2.8677 -0.5354
29479SOL    HW292995   8.240   1.260   4.061 -1.2057 -1.3217 -2.0464
29480SOL     OW92996   5.623   0.352  12.041  0.0760  0.3295 -0.1030
29480SOL    HW192997   5.552   0.288  12.040 -0.9114  1.3228  1.4552
29480SOL    HW292998   5.700   0.304  12.011 -0.9361 -1.1789 -0.3584
29481SOL     OW92999   1.918   0.390   2.500 -0.9582  0.0642  0.4539
29481SOL    HW193000   1.906   0.329   2.427  0.5784  1.3057 -0.8915
29481SOL    HW293001   1.979   0.345   2.559  3.0621  1.4655 -2.2103
29482SOL     OW93002   3.100   4.190   7.092  0.1065 -0.9857  0.6270
29482SOL    HW193003   3.147   4.124   7.143  0.7383 -1.1576 -0.1574
29482SOL    HW293004   3.070   4.254   7.157  2.9185  0.0813  1.0422
29483SOL     OW93005   3.160  10.802   7.828 -0.1108 -0.2313 -0.3686
29483SOL    HW193006   3.092  10.830   7.767 -0.5828 -1.7198 -0.5622
29483SOL    HW293007   3.196  10.723   7.789  2.2425  0.8642 -0.6239
29484SOL     OW93008  11.712   7.195   7.577 -0.0847 -0.0517  0.1789
29484SOL    HW193009  11.706   7.172   7.670 -1.1520  2.8531  0.9501
29484SOL    HW293010  11.777   7.135   7.541  0.4661 -1.1694  2.8371
29485SOL     OW93011   0.607   1.747   1.314  0.3569  0.4861 -0.2370
29485SOL    HW193012   0.517   1.779   1.301  0.1755  0.5058  0.9705
29485SOL    HW293013   0.631   1.710   1.229 -0.9008  0.2295 -0.5117
29486SOL     OW93014  10.396  11.801  10.619 -0.4207 -0.1081  0.2791
29486SOL    HW193015  10.416  11.894  10.612  1.3100 -0.4838 -0.2319
29486SOL    HW293016  10.419  11.778  10.710  0.8825 -0.3759 -0.0918
29487SOL     OW93017   5.075   0.539   4.278 -0.4422 -0.4327 -0.4238
29487SOL    HW193018   5.111   0.521   4.191  1.3874 -1.4160  0.4695
29487SOL    HW293019   5.117   0.621   4.305 -0.0190 -0.7913  0.0236
29488SOL     OW93020   6.800   4.599   2.232 -0.2263 -0.2929  0.0852
29488SOL    HW193021   6.736   4.537   2.198 -2.1468  1.1520  0.8608
29488SOL    HW293022   6.786   4.678   2.179  0.7574  0.1378  0.4496
29489SOL     OW93023   6.894  10.614   7.574 -0.2305  0.3640 -0.6456
29489SOL    HW193024   6.967  10.598   7.633  0.4832  1.3113 -1.2385
29489SOL    HW293025   6.820  10.632   7.632 -0.1231 -1.0741 -0.0379
29490SOL     OW93026   9.349  10.594   1.181 -0.3454  0.4094 -0.3437
29490SOL    HW193027   9.329  10.510   1.139  0.1422  0.2764 -0.3121
29490SOL    HW293028   9.282  10.654   1.149  0.0820  0.3414 -1.3949
29491SOL     OW93029   4.688  10.056   1.357 -0.2183 -0.1471  0.1869
29491SOL    HW193030   4.739  10.128   1.320 -0.4646 -0.7867 -1.4502
29491SOL    HW293031   4.753   9.999   1.399  0.6169 -1.3591 -2.5203
29492SOL     OW93032  11.742   4.508   3.349 -0.1106  0.2490 -0.6243
29492SOL    HW193033  11.738   4.534   3.257 -0.0381 -0.8249 -0.9373
29492SOL    HW293034  11.827   4.466   3.358  1.0820  2.7082  0.5940
29493SOL     OW93035   9.544  11.658   7.366 -0.5536 -0.0134  0.2072
29493SOL    HW193036   9.462  11.623   7.403 -0.4438  0.2200  0.6626
29493SOL    HW293037   9.555  11.743   7.408  0.3804 -0.4184  0.7977
29494SOL     OW93038   6.266  11.745   5.762  0.4550 -0.2853 -0.6001
29494SOL    HW193039   6.317  11.715   5.837 -0.3983 -1.7181 -0.5668
29494SOL    HW293040   6.266  11.671   5.702  1.3920  0.9474 -2.2006
29495SOL     OW93041   6.887   1.000  11.786 -0.0231  0.0365 -0.3403
29495SOL    HW193042   6.900   1.001  11.881  1.0878  0.9950 -0.4860
29495SOL    HW293043   6.850   1.086  11.766 -0.0798 -0.0939 -0.8069
29496SOL     OW93044   7.369   4.348   9.401 -0.4417  0.2241 -0.0655
29496SOL    HW193045   7.428   4.303   9.342 -1.3814  1.9387 -2.4724
29496SOL    HW293046   7.344   4.428   9.355 -2.3793  0.9881  2.0616
29497SOL     OW93047   2.227   8.446   9.571  0.3625  0.5805 -0.3213
29497SOL    HW193048   2.216   8.512   9.639 -3.9125  1.0865 -1.1871
29497SOL    HW293049   2.223   8.362   9.618  1.3346  0.9215  0.3763
29498SOL     OW93050  11.703   5.847   4.829 -0.0025  0.1410  0.0186
29498SOL    HW193051  11.781   5.840   4.884  0.0893  2.2841  0.2598
29498SOL    HW293052  11.635   5.879   4.888 -0.7472 -0.5589 -0.4530
29499SOL     OW93053   3.019   1.155   0.791  0.5150 -0.3651  0.0989
29499SOL    HW193054   3.107   1.192   0.792  0.9981 -1.4763  0.1239
29499SOL    HW293055   3.021   1.088   0.722 -0.8476  0.8082 -1.1784
29500SOL     OW93056   7.488   9.750   8.575  0.4222  0.3038 -0.2754
29500SOL    HW193057   7.507   9.808   8.648  0.2552 -0.8736  0.7432
29500SOL    HW293058   7.411   9.700   8.604  0.3922 -0.2255 -1.2317
29501SOL     OW93059   0.993   8.950   9.623 -0.1160 -0.0960 -0.0548
29501SOL    HW193060   0.948   8.866   9.640  0.4722 -0.5173 -0.5593
29501SOL    HW293061   1.011   8.985   9.711 -1.3788  0.0618  0.1601
29502SOL     OW93062   4.770  10.830   7.709  0.0970 -0.2367  0.2485
29502SOL    HW193063   4.828  10.825   7.633  0.2590 -0.2211  0.3713
29502SOL    HW293064   4.698  10.885   7.679 -0.2442 -0.8835 -0.1547
29503SOL     OW93065   3.060   9.682   9.074  0.5806  0.1199 -0.0927
29503SOL    HW193066   3.002   9.757   9.065  1.0576  0.7148  1.4644
29503SOL    HW293067   3.099   9.671   8.988  0.1203  1.3437 -0.4746
29504SOL     OW93068   1.600  10.623   4.259  0.1076 -0.1394 -0.0999
29504SOL    HW193069   1.536  10.636   4.190 -0.2803  0.2086  0.3195
29504SOL    HW293070   1.573  10.543   4.303 -1.6916  1.3930  1.8138
29505SOL     OW93071   1.470   1.176   9.139  0.0523 -0.0767  0.2066
29505SOL    HW193072   1.486   1.216   9.054 -2.8097 -0.3776 -0.5912
29505SOL    HW293073   1.436   1.247   9.194  2.1340  0.1808  1.2600
29506SOL     OW93074   7.180   1.591   1.528  0.2349 -0.2697 -0.1965
29506SOL    HW193075   7.274   1.603   1.512  0.3702  0.2649  0.9111
29506SOL    HW293076   7.170   1.497   1.542  0.7582 -0.2284  0.5280
29507SOL     OW93077   8.531   0.955   1.210 -0.2744  0.1023  0.7500
29507SOL    HW193078   8.483   0.953   1.127 -1.7653  0.3550  1.5683
29507SOL    HW293079   8.618   0.988   1.187 -0.4591 -0.4249 -0.7960
29508SOL     OW93080  11.989   1.064   0.734 -0.0437 -0.6329 -0.3458
29508SOL    HW193081  12.071   1.054   0.781 -0.7297  4.0015  2.3928
29508SOL    HW293082  11.932   0.997   0.771  1.7505 -2.4784 -0.7326
29509SOL     OW93083   2.819   8.618  10.534 -0.6348 -0.0329  0.1835
29509SOL    HW193084   2.865   8.698  10.560 -0.4458  0.1242 -0.6066
29509SOL    HW293085   2.889   8.553  10.524 -0.9017 -0.7116  2.1883
29510SOL     OW93086   9.991   3.795   5.394  0.6053  0.0005 -0.2748
29510SOL    HW193087   9.974   3.857   5.464 -0.3586 -0.6617  0.1002
29510SOL    HW293088  10.026   3.717   5.437  1.1044  0.0027 -0.6590
29511SOL     OW93089   6.781  11.339  11.933  0.3286  0.1265  0.0588
29511SOL    HW193090   6.720  11.410  11.951  0.8474  0.4928  0.4321
29511SOL    HW293091   6.807  11.308  12.020  2.2771  1.3867 -0.0127
29512SOL     OW93092   2.743   0.927   4.832  0.1506 -0.1018  0.3319
29512SOL    HW193093   2.794   0.962   4.905 -2.8350 -0.8595  3.0155
29512SOL    HW293094   2.716   0.840   4.862 -2.3206  0.1146 -1.0343
29513SOL     OW93095   7.260   6.064  10.030  0.6709 -0.0707 -0.0078
29513SOL    HW193096   7.280   5.975  10.002  1.6475 -0.3227  1.3879
29513SOL    HW293097   7.190   6.054  10.094  0.6331  0.1890 -0.0088
29514SOL     OW93098  11.267   0.178   1.753 -0.5186  0.4687 -0.0733
29514SOL    HW193099  11.276   0.095   1.800  1.5637 -0.8899 -2.5940
29514SOL    HW293100  11.280   0.245   1.820 -1.5606 -1.2073  1.9225
29515SOL     OW93101   2.330   0.372   7.844 -0.4101 -0.5636 -0.3772
29515SOL    HW193102   2.292   0.406   7.925  0.6389  0.7694 -0.4173
29515SOL    HW293103   2.313   0.441   7.779  2.3307  0.3010 -0.3125
29516SOL     OW93104   2.785   8.821  11.561 -0.0721  0.0484  0.3105
29516SOL    HW193105   2.739   8.862  11.487 -1.6508 -1.1553  0.5692
29516SOL    HW293106   2.788   8.728  11.539 -1.8407 -0.5764  2.3104
29517SOL     OW93107   5.532   9.724   0.572 -0.5940  0.1498  0.2633
29517SOL    HW193108   5.501   9.741   0.483 -2.7890  1.3658  1.1863
29517SOL    HW293109   5.491   9.791   0.626  0.9452 -0.3436  2.1801
29518SOL     OW93110   8.514   2.788   7.877 -0.3102  0.9213 -0.4985
29518SOL    HW193111   8.573   2.834   7.816  3.3276  0.7439  2.5103
29518SOL    HW293112   8.484   2.856   7.937 -0.8002  0.5297 -0.2964
29519SOL     OW93113   2.887   5.188   9.751 -0.0899  0.2754 -0.1503
29519SOL    HW193114   2.947   5.214   9.822 -0.8436 -1.3682  1.1675
29519SOL    HW293115   2.907   5.248   9.679  2.7487  0.1570  0.4224
29520SOL     OW93116   5.153   1.820   5.970  0.1577 -0.3609 -0.1656
29520SOL    HW193117   5.214   1.849   5.901 -1.3752  0.2188 -1.3214
29520SOL    HW293118   5.198   1.747   6.012  1.6387  0.0152 -1.0145
29521SOL     OW93119   9.026   3.924  10.589  0.1003 -0.2377  0.2907
29521SOL    HW193120   9.011   3.904  10.496  0.1682 -2.3994  0.6970
29521SOL    HW293121   8.939   3.948  10.622 -0.6657 -2.8297  0.3774
29522SOL     OW93122   8.135  10.812   4.673 -0.3486  0.0497  0.1130
29522SOL    HW193123   8.168  10.826   4.762 -1.5298  0.8948  0.4461
29522SOL    HW293124   8.138  10.899   4.632  0.3156 -0.3548 -0.7323
29523SOL     OW93125   7.980  12.091   0.370 -0.1518 -0.2038  0.3445
29523SOL    HW193126   8.039  12.087   0.295  0.3848  2.0197  0.5893
29523SOL    HW293127   8.037  12.082   0.447 -0.5398 -1.1565  0.5392
29524SOL     OW93128   8.852   3.174  11.603  0.0697  0.1607 -0.0202
29524SOL    HW193129   8.939   3.138  11.585 -0.4596 -1.4133  0.3920
29524SOL    HW293130   8.792   3.105  11.575 -1.0171  0.8883  0.4699
29525SOL     OW93131   1.906   6.086   4.146 -0.0701  0.1333 -0.0446
29525SOL    HW193132   1.841   6.136   4.096 -1.2293 -0.1847  1.0738
29525SOL    HW293133   1.962   6.046   4.080 -0.2402  1.4342 -1.0111
29526SOL     OW93134   6.125   2.111   6.597  0.1065  0.4797 -0.2890
29526SOL    HW193135   6.086   2.038   6.645  2.3024 -0.8787 -0.4578
29526SOL    HW293136   6.102   2.188   6.650  0.5522 -0.7082  1.7756
29527SOL     OW93137   7.290  11.122  10.390  0.1999  0.4059 -0.3118
29527SOL    HW193138   7.262  11.035  10.420 -0.0279  0.3439 -0.7031
29527SOL    HW293139   7.241  11.136  10.309 -0.7361  1.4438  0.4050
29528SOL     OW93140   0.018   4.965   1.085  0.0352  0.3201  0.3032
29528SOL    HW193141   0.027   5.060   1.075 -0.7364  0.3075 -0.7089
29528SOL    HW293142  -0.038   4.955   1.162 -0.3945  0.7120  0.0470
29529SOL     OW93143  11.770   7.267   0.428  0.5108 -0.0835 -0.1492
29529SOL    HW193144  11.825   7.191   0.449  0.5883  0.4038  1.5435
29529SOL    HW293145  11.686   7.230   0.404  1.0117 -0.7646 -0.8923
29530SOL     OW93146   0.095   5.778   2.370  0.1982  0.1833  0.0237
29530SOL    HW193147   0.105   5.704   2.431 -2.1518 -0.8882 -0.7550
29530SOL    HW293148   0.101   5.856   2.425 -0.3871 -0.7034  1.4032
29531SOL     OW93149   9.602  11.850   0.038  0.1639 -0.4598  0.0786
29531SOL    HW193150   9.592  11.915  -0.032  1.5312  0.9813  1.1337
29531SOL    HW293151   9.638  11.773  -0.006 -0.7191 -0.2484 -1.0794
29532SOL     OW93152   4.189   6.669   7.789  0.3474 -0.0761  0.3263
29532SOL    HW193153   4.225   6.708   7.709 -1.0568  0.1373 -0.2334
29532SOL    HW293154   4.122   6.731   7.816  2.7023  1.4230  3.3817
29533SOL     OW93155   3.532   1.614   1.361  0.6363  0.1057  0.0177
29533SOL    HW193156   3.462   1.564   1.401  0.0580  1.0959  0.2870
29533SOL    HW293157   3.514   1.612   1.267 -0.8655  1.8945  0.2048
29534SOL     OW93158  12.121   0.493  10.963  0.4345  0.3884 -0.3492
29534SOL    HW193159  12.157   0.439  10.892  4.1459 -0.1752  1.7485
29534SOL    HW293160  12.076   0.430  11.020  0.7239  0.2465 -0.2775
29535SOL     OW93161   1.546   0.810   2.730 -0.1941 -0.0011 -0.2755
29535SOL    HW193162   1.542   0.763   2.646 -2.1251  0.5158 -0.5205
29535SOL    HW293163   1.471   0.777   2.780  0.7889 -0.1179  1.1755
29536SOL     OW93164   4.066   1.476   7.979  0.0577 -0.4912 -0.0897
29536SOL    HW193165   4.002   1.543   8.007  1.1247  0.7486 -0.5149
29536SOL    HW293166   4.096   1.436   8.060  0.6173  0.7049  0.3077
29537SOL     OW93167   0.754   6.957   2.386  0.5235  0.1211 -0.5797
29537SOL    HW193168   0.682   7.016   2.360 -0.9188 -0.8989  0.9214
29537SOL    HW293169   0.751   6.886   2.321 -1.4002 -1.1031  0.7430
29538SOL     OW93170   2.414   4.663  10.338 -0.0525 -0.1873  0.1076
29538SOL    HW193171   2.440   4.578  10.373 -0.7981  0.0598  1.3101
29538SOL    HW293172   2.412   4.651  10.243  0.5328 -1.3068  0.2330
29539SOL     OW93173   4.434  10.663   3.601 -0.3587  0.1051 -0.2557
29539SOL    HW193174   4.464  10.735   3.546  0.8253 -0.1277  0.0755
29539SOL    HW293175   4.452  10.584   3.550  1.9833 -0.2134  0.9494
29540SOL     OW93176   7.909   2.124   9.410 -0.5300 -0.0397 -0.1726
29540SOL    HW193177   7.882   2.206   9.369  0.3272  0.5442  0.3949
29540SOL    HW293178   8.001   2.113   9.383 -1.0891 -1.6697 -1.5784
29541SOL     OW93179  11.815   6.095   8.672  0.3914 -0.2334  0.4710
29541SOL    HW193180  11.761   6.099   8.593  0.2214  2.0788  0.6268
29541SOL    HW293181  11.787   6.014   8.716 -1.5306 -0.1343 -0.4324
29542SOL     OW93182   9.332   0.588   2.645  0.2012  0.3896  0.4715
29542SOL    HW193183   9.383   0.640   2.582 -1.4576  3.7176  1.6087
29542SOL    HW293184   9.394   0.568   2.715  0.6673  1.9001  0.5282
29543SOL     OW93185   9.236   5.690  10.950 -0.0113  0.3104 -0.1036
29543SOL    HW193186   9.330   5.702  10.935  0.3427 -1.7156  0.3085
29543SOL    HW293187   9.194   5.747  10.885  1.4944 -0.1337 -1.5074
29544SOL     OW93188   3.882  10.130   7.254 -0.1124  0.5046 -0.0222
29544SOL    HW193189   3.927  10.102   7.174 -0.5649  0.5493 -0.2951
29544SOL    HW293190   3.805  10.074   7.259 -0.1407  0.5741  0.3282
29545SOL     OW93191   3.346   3.978   3.166  0.5514  0.7454  0.0143
29545SOL    HW193192   3.262   4.002   3.206  0.0654  0.3307 -0.7417
29545SOL    HW293193   3.385   3.918   3.229 -0.5455 -0.4893 -0.4318
29546SOL     OW93194   2.966   6.769   7.744  0.0585  0.6590 -0.0506
29546SOL    HW193195   2.883   6.811   7.765 -0.8853 -1.7272  1.4856
29546SOL    HW293196   3.026   6.799   7.813 -0.3823  0.1648  0.5652
29547SOL     OW93197   9.455   2.163   8.451 -0.0944  0.7538  0.2880
29547SOL    HW193198   9.442   2.219   8.374 -0.5870  2.4081  1.5111
29547SOL    HW293199   9.366   2.151   8.486  0.1174 -0.0512  0.5563
29548SOL     OW93200  10.623   8.772   0.229 -0.4943 -0.2896  0.3497
29548SOL    HW193201  10.688   8.784   0.299 -1.0326 -0.7224  0.9412
29548SOL    HW293202  10.567   8.849   0.235 -0.1194  0.0174 -0.0706
29549SOL     OW93203   3.917  10.711   6.933  0.6729  0.0688  0.1709
29549SOL    HW193204   3.998  10.661   6.928  0.3294 -0.3719 -1.5825
29549SOL    HW293205   3.903  10.744   6.844 -0.8746  0.4487  0.5191
29550SOL     OW93206   9.963   2.194   0.240  0.0731  0.7211 -0.3542
29550SOL    HW193207  10.017   2.129   0.194  0.3990  1.4200 -0.9754
29550SOL    HW293208   9.895   2.142   0.282  1.1691 -0.1785  0.3797
29551SOL     OW93209  11.963   0.736   0.498  0.5051  0.1691 -0.1541
29551SOL    HW193210  11.974   0.641   0.496 -1.1836 -0.0525 -1.2548
29551SOL    HW293211  11.968   0.763   0.406 -1.7572  0.7384 -0.1738
29552SOL     OW93212   1.318   4.250   6.115 -0.0908 -0.6693  0.2136
29552SOL    HW193213   1.301   4.338   6.082  0.3262  0.2591  2.3300
29552SOL    HW293214   1.232   4.217   6.142 -0.1034 -0.4808  0.4064
29553SOL     OW93215   5.123   2.720   1.244  0.2470  0.4382  0.1329
29553SOL    HW193216   5.097   2.802   1.201 -2.7810 -1.2404 -1.5860
29553SOL    HW293217   5.089   2.728   1.333 -2.1312  0.2399 -0.6896
29554SOL     OW93218   1.783   7.088   6.173 -0.0886 -0.2704 -0.1443
29554SOL    HW193219   1.800   7.135   6.091  1.8988  1.1207  0.9634
29554SOL    HW293220   1.804   7.152   6.241 -1.4653 -1.4605  1.4867
29555SOL     OW93221   1.498   6.763   1.853  0.1859  0.2453 -0.2703
29555SOL    HW193222   1.534   6.770   1.941  0.3373 -1.8766 -0.0972
29555SOL    HW293223   1.572   6.735   1.799 -0.2771 -0.1580 -0.7096
29556SOL     OW93224   9.510   3.991   9.320 -0.0587 -0.0515 -0.5254
29556SOL    HW193225   9.460   4.062   9.359 -0.0203 -0.5791  0.5303
29556SOL    HW293226   9.595   4.030   9.300  0.1649  0.0658  0.5961
29557SOL     OW93227   9.269   9.689   6.709 -0.3738  0.0562 -0.2433
29557SOL    HW193228   9.288   9.725   6.795 -1.9059  0.7947 -0.1850
29557SOL    HW293229   9.232   9.602   6.727  0.2207 -0.1997 -0.2222
29558SOL     OW93230   8.364   0.805  11.388 -0.1156 -0.2924  0.5565
29558SOL    HW193231   8.271   0.786  11.374 -0.2948  1.9595 -2.2319
29558SOL    HW293232   8.367   0.900  11.400  1.9234 -0.0007 -1.4716
29559SOL     OW93233  11.235   4.205   0.709 -0.2171  0.0696  0.1235
29559SOL    HW193234  11.290   4.271   0.750 -0.0329  0.0922 -0.1567
29559SOL    HW293235  11.248   4.126   0.761 -1.2344  0.5100  1.1034
29560SOL     OW93236   2.736   4.794   5.245 -0.7110 -0.1180  0.3410
29560SOL    HW193237   2.736   4.719   5.185  0.7035 -1.2716  1.7024
29560SOL    HW293238   2.789   4.860   5.201 -3.2246  0.7775 -1.5813
29561SOL     OW93239   5.857   0.289  11.701 -0.5297 -0.0751  0.1338
29561SOL    HW193240   5.894   0.376  11.716  1.6288 -1.0432  0.7877
29561SOL    HW293241   5.840   0.255  11.789 -0.9896 -0.4919 -0.1100
29562SOL     OW93242   6.930  10.286   7.942  0.4563 -0.1407 -0.3254
29562SOL    HW193243   6.911  10.359   8.001  1.3484  1.0051 -1.3707
29562SOL    HW293244   6.953  10.213   7.999 -2.3709 -0.2295  0.8017
29563SOL     OW93245   1.151   1.707   9.570  0.1261 -0.3475 -0.7242
29563SOL    HW193246   1.183   1.648   9.638  0.8408  0.3245 -0.4584
29563SOL    HW293247   1.133   1.651   9.495 -0.7865 -1.1225  0.0380
29564SOL     OW93248   3.489   3.885   6.346 -0.3345 -0.6965  0.0401
29564SOL    HW193249   3.508   3.828   6.272 -1.6165 -1.1101 -0.0003
29564SOL    HW293250   3.432   3.833   6.403  1.0310 -0.5720  1.5880
29565SOL     OW93251   5.841   2.228   4.634  0.0396 -0.5804  0.2403
29565SOL    HW193252   5.928   2.188   4.629 -0.7241 -2.5660  1.4384
29565SOL    HW293253   5.858   2.320   4.655  1.8741 -0.3743 -1.7025
29566SOL     OW93254   6.015   9.104   0.341  0.0835  0.4595 -0.3333
29566SOL    HW193255   5.999   9.193   0.371 -0.1663  0.1603  0.4574
29566SOL    HW293256   6.108   9.103   0.319  0.3055  0.6763  0.5404
29567SOL     OW93257  10.819   9.693   9.530 -0.0802  0.2903  0.3787
29567SOL    HW193258  10.907   9.688   9.569  1.1248 -0.2433 -2.1573
29567SOL    HW293259  10.790   9.602   9.526  0.7572  0.0588 -1.7781
29568SOL     OW93260  10.018   1.872   7.045 -0.2022 -0.0793 -0.0561
29568SOL    HW193261   9.952   1.838   6.985  0.4164 -1.2032 -0.1137
29568SOL    HW293262  10.101   1.840   7.010  0.2993  0.5689  0.5210
29569SOL     OW93263   9.906   1.303   8.710 -0.3628  0.3057  0.3533
29569SOL    HW193264   9.821   1.261   8.704  0.9613 -2.3851 -1.2118
29569SOL    HW293265   9.942   1.275   8.794 -0.1982 -0.2344  0.1017
29570SOL     OW93266   6.745   6.305   6.949 -0.1921  0.3001 -0.4432
29570SOL    HW193267   6.787   6.226   6.916  1.0992  0.8719 -0.1975
29570SOL    HW293268   6.770   6.373   6.887 -1.4872  0.4995 -0.7881
29571SOL     OW93269   7.497   4.297   9.121  0.3331  0.1501 -0.0362
29571SOL    HW193270   7.485   4.258   9.034  0.9021 -0.2599  0.0682
29571SOL    HW293271   7.511   4.390   9.104  1.4102 -0.0835 -0.4495
29572SOL     OW93272  10.438   3.241   4.660 -0.5303 -0.0521  0.2496
29572SOL    HW193273  10.347   3.260   4.685  0.0213 -0.1994  2.5710
29572SOL    HW293274  10.487   3.247   4.742  1.5570 -0.1155 -0.9327
29573SOL     OW93275   0.623   2.738   9.320  0.0698 -0.4986 -0.1128
29573SOL    HW193276   0.709   2.777   9.336  0.2538 -0.1096 -1.8346
29573SOL    HW293277   0.609   2.750   9.226 -1.7742 -0.7550  0.1000
29574SOL     OW93278   7.765   8.272   6.346 -0.3264  0.1838 -0.0331
29574SOL    HW193279   7.699   8.224   6.295 -1.4776 -0.2916  1.8047
29574SOL    HW293280   7.820   8.204   6.384  0.0536  0.4944 -0.0208
29575SOL     OW93281   9.411   9.773   1.767  0.3634 -0.0011 -0.1511
29575SOL    HW193282   9.325   9.760   1.727  1.8468 -1.2730 -3.2552
29575SOL    HW293283   9.448   9.849   1.723  1.9069 -1.2034 -1.0508
29576SOL     OW93284  11.856  11.363  11.448 -0.3574 -0.3139  0.2758
29576SOL    HW193285  11.936  11.391  11.402  0.7391 -1.8544  1.1290
29576SOL    HW293286  11.860  11.409  11.532 -0.8356  0.2505 -0.0001
29577SOL     OW93287   2.456   4.184   9.347 -0.3000 -0.0669  0.5514
29577SOL    HW193288   2.365   4.199   9.320 -0.3936  1.5931  1.6410
29577SOL    HW293289   2.484   4.268   9.383  1.9271 -0.3191 -0.4290
29578SOL     OW93290   7.866  10.334   6.473 -0.3114 -0.7584 -0.1458
29578SOL    HW193291   7.938  10.279   6.506  0.4193  0.4131  0.2664
29578SOL    HW293292   7.815  10.355   6.551  0.6926  0.9658  0.0964
29579SOL     OW93293   0.863   9.667   1.046 -0.1911 -0.1667  0.0629
29579SOL    HW193294   0.932   9.732   1.035  0.9550 -1.2893  0.4459
29579SOL    HW293295   0.877   9.631   1.134  1.3107 -3.2550 -1.3056
29580SOL     OW93296   6.687   7.104   5.586  0.0256  0.3051  0.0132
29580SOL    HW193297   6.618   7.165   5.558 -0.6825 -0.6128 -0.2794
29580SOL    HW293298   6.641   7.039   5.640  0.9717  0.7103  1.3748
29581SOL     OW93299   1.105  10.328   3.598 -0.2556 -0.0499 -0.0847
29581SOL    HW193300   1.139  10.371   3.677 -1.0502  1.5086 -0.5458
29581SOL    HW293301   1.183  10.298   3.552  0.2055 -1.9186  1.7294
29582SOL     OW93302   6.589   0.597   3.474 -0.2537 -0.6170  0.1172
29582SOL    HW193303   6.677   0.622   3.501 -0.2833  0.3306 -0.6024
29582SOL    HW293304   6.532   0.660   3.518 -0.3749  0.2959 -1.2736
29583SOL     OW93305   8.561   5.897   0.204  0.1094 -0.3240 -0.2079
29583SOL    HW193306   8.472   5.930   0.200  0.9629  2.5549  1.3143
29583SOL    HW293307   8.574   5.853   0.120 -2.3690  0.1698 -0.9380
29584SOL     OW93308   2.211   4.508   3.743 -0.1909  0.0144  0.0082
29584SOL    HW193309   2.233   4.513   3.836 -0.1937 -3.1084  0.2554
29584SOL    HW293310   2.277   4.450   3.705  0.3318  1.8801 -2.1797
29585SOL     OW93311  10.276   2.432  11.162 -0.3627  0.0438 -0.4217
29585SOL    HW193312  10.243   2.343  11.166 -0.5473  0.0876 -1.0123
29585SOL    HW293313  10.272   2.463  11.253  0.4756 -0.8213 -0.0669
29586SOL     OW93314   5.303   8.605  10.801 -0.2626  0.0366 -0.1273
29586SOL    HW193315   5.242   8.638  10.867  3.0523  4.4563  1.2137
29586SOL    HW293316   5.362   8.548  10.849 -0.0696  0.2465 -0.1117
29587SOL     OW93317   3.553   0.857   6.705  0.1489  0.5777  0.1455
29587SOL    HW193318   3.643   0.874   6.677  1.1503  0.1631  2.8268
29587SOL    HW293319   3.547   0.762   6.710  0.1220  0.6339  1.5270
29588SOL     OW93320   0.460   2.046  11.438 -0.3874 -0.5173 -0.1304
29588SOL    HW193321   0.505   2.009  11.362  0.8642  1.2909 -0.3329
29588SOL    HW293322   0.389   2.099  11.401 -1.0338 -1.2158  0.0778
29589SOL     OW93323   6.303  11.267   8.254 -0.2481  0.2579  0.0108
29589SOL    HW193324   6.282  11.278   8.347  1.0540  3.4349  0.0669
29589SOL    HW293325   6.246  11.330   8.209  0.4351  0.0881 -1.1330
29590SOL     OW93326   6.513   3.477   2.274 -0.3970  0.0293 -0.1036
29590SOL    HW193327   6.581   3.484   2.341 -0.6254 -0.5862  0.2063
29590SOL    HW293328   6.549   3.418   2.209 -0.3384  0.3000 -0.3159
29591SOL     OW93329   7.997   3.816   9.993  0.4957 -0.4085 -0.3470
29591SOL    HW193330   7.907   3.811   9.959 -0.2783 -1.8051  1.6371
29591SOL    HW293331   8.015   3.726  10.022  1.3768  0.4603  1.9858
29592SOL     OW93332  11.777   7.975  11.408  0.6427  0.5174 -0.2491
29592SOL    HW193333  11.854   7.919  11.416  1.1004  1.1319 -0.2459
29592SOL    HW293334  11.709   7.930  11.458  0.7323 -0.4966 -1.0069
29593SOL     OW93335   1.416   2.757   4.345 -0.0207 -0.4218  0.4590
29593SOL    HW193336   1.401   2.728   4.435  0.6068  2.3447  1.5470
29593SOL    HW293337   1.358   2.832   4.334  1.7189  0.8323 -0.5356
29594SOL     OW93338   2.865   9.134   6.900  0.2420 -0.0635 -0.2376
29594SOL    HW193339   2.960   9.146   6.898  0.1797  0.6256  0.6419
29594SOL    HW293340   2.849   9.086   6.981 -0.2723  0.8399  0.1952
29595SOL     OW93341   9.628   7.316   7.786  0.0787  0.2406 -0.2556
29595SOL    HW193342   9.638   7.277   7.872 -1.5463  1.2433  0.4289
29595SOL    HW293343   9.658   7.406   7.797  4.3272 -0.7180 -1.9477
29596SOL     OW93344   3.180  10.788  11.015  0.3212 -0.0615 -0.4201
29596SOL    HW193345   3.262  10.744  10.990 -0.7195 -2.2780 -0.2022
29596SOL    HW293346   3.112  10.741  10.968 -1.0086  0.4335  0.9147
29597SOL     OW93347  10.387   9.398   3.971 -0.1757  0.4638  0.4429
29597SOL    HW193348  10.480   9.380   3.961 -0.2685 -0.2979  0.8699
29597SOL    HW293349  10.377   9.427   4.062 -0.3537  0.5579  0.3952
29598SOL     OW93350   8.616   2.667   5.092 -0.1414  0.2929 -0.3450
29598SOL    HW193351   8.696   2.683   5.042  0.9384 -1.9081  0.5075
29598SOL    HW293352   8.558   2.622   5.031  0.3283 -0.4486 -0.2631
29599SOL     OW93353   1.591  10.079   0.890 -0.8284 -0.2959  0.1606
29599SOL    HW193354   1.660  10.018   0.914 -0.4623  0.3687  0.8514
29599SOL    HW293355   1.547  10.038   0.815  0.1466 -0.8474 -0.1216
29600SOL     OW93356   0.312  11.702   8.981 -0.2843  0.4725 -0.3659
29600SOL    HW193357   0.278  11.643   9.049 -0.5486  1.3535  0.2864
29600SOL    HW293358   0.341  11.644   8.911 -0.9864 -0.4122  0.0572
29601SOL     OW93359   4.874   3.801   4.140  0.7876 -0.2913 -0.5196
29601SOL    HW193360   4.850   3.719   4.097  0.2236 -0.5789  0.3212
29601SOL    HW293361   4.836   3.870   4.085 -2.1312 -0.7127  0.7800
29602SOL     OW93362   9.529  10.902   9.609  0.4171 -0.1602  0.1117
29602SOL    HW193363   9.527  10.898   9.514 -0.1449  0.5993  0.0859
29602SOL    HW293364   9.602  10.844   9.634  1.9910  1.3043 -0.8827
29603SOL     OW93365   2.982   2.068   8.430 -0.0677 -0.3645  0.4715
29603SOL    HW193366   2.921   2.031   8.366  1.3176 -2.7861  0.4434
29603SOL    HW293367   2.959   2.161   8.434 -1.2367 -0.4353 -2.3429
29604SOL     OW93368   9.748   6.338   7.615  0.1128 -0.1605  0.8633
29604SOL    HW193369   9.744   6.293   7.700  0.2131 -1.4140  0.2224
29604SOL    HW293370   9.749   6.268   7.550 -0.7276  0.7902 -0.2226
29605SOL     OW93371   0.328   2.845   4.955  0.2219 -0.2782  0.7115
29605SOL    HW193372   0.381   2.775   4.917  3.4465  2.4680 -0.3788
29605SOL    HW293373   0.372   2.865   5.038  0.9410  1.9251 -0.1193
29606SOL     OW93374   3.175  10.387   2.541  0.3496  0.2203  0.6612
29606SOL    HW193375   3.166  10.296   2.569  0.1287  0.1580  0.3947
29606SOL    HW293376   3.160  10.439   2.621  1.1878  0.0090  0.9661
29607SOL     OW93377   0.498   2.067   7.168 -1.0393  0.0101  0.0303
29607SOL    HW193378   0.582   2.021   7.174 -0.8697  0.3735  0.5776
29607SOL    HW293379   0.433   2.004   7.197 -0.5852  0.7207  2.9878
29608SOL     OW93380   1.673  12.089   1.456  0.4859  0.1108  0.4949
29608SOL    HW193381   1.704  12.117   1.370  1.3752 -2.0581  0.0419
29608SOL    HW293382   1.587  12.049   1.440  0.7573 -0.5125  0.5509
29609SOL     OW93383   6.096   9.872   2.104 -1.5318 -0.1506  1.1324
29609SOL    HW193384   6.033   9.837   2.041 -1.1014  0.9304  0.0672
29609SOL    HW293385   6.090   9.812   2.179 -0.7462 -2.5883 -0.6143
29610SOL     OW93386  12.007   6.563  10.105 -0.6683  0.0017  0.1884
29610SOL    HW193387  12.050   6.537  10.024 -0.7729 -1.0702  0.4670
29610SOL    HW293388  12.076   6.607  10.155 -0.9421  1.9414 -1.0193
29611SOL     OW93389   1.329   3.169   3.772  0.0903  0.0100 -0.2235
29611SOL    HW193390   1.413   3.124   3.771  0.2856  0.2335  2.0592
29611SOL    HW293391   1.327   3.218   3.689  1.5328 -1.1451 -0.9746
29612SOL     OW93392   3.827   3.426   7.417 -0.6542  0.4491 -0.5772
29612SOL    HW193393   3.886   3.352   7.406  1.9981  2.3529 -0.2195
29612SOL    HW293394   3.812   3.431   7.512 -1.3036  0.0768 -0.6512
29613SOL     OW93395   3.998   5.964   8.930  0.0306 -0.9146  0.0638
29613SOL    HW193396   4.088   5.946   8.960  0.1593 -1.6369 -0.7199
29613SOL    HW293397   3.997   5.933   8.839 -0.7824 -0.1534 -0.1927
29614SOL     OW93398   7.840   4.228   5.924  0.0739 -0.4305 -0.2452
29614SOL    HW193399   7.846   4.147   5.873  0.7456 -0.7422  0.3245
29614SOL    HW293400   7.817   4.295   5.859 -3.0010 -1.4484 -0.3760
29615SOL     OW93401  10.053   5.489   1.032 -0.5048 -0.0020 -0.5098
29615SOL    HW193402  10.031   5.553   1.100 -0.8362 -1.2228  0.5620
29615SOL    HW293403  10.051   5.540   0.950 -2.5179  1.0077  0.0842
29616SOL     OW93404   0.498   7.998   0.662  0.1306 -0.3321  0.3010
29616SOL    HW193405   0.417   7.947   0.660 -0.1973  0.1629  0.7124
29616SOL    HW293406   0.474   8.080   0.706  0.6044  0.2484 -0.4862
29617SOL     OW93407  10.709   0.575   8.385 -0.3127 -0.0725 -0.0349
29617SOL    HW193408  10.757   0.498   8.416  0.9099  0.7669  0.2363
29617SOL    HW293409  10.723   0.640   8.453 -0.3624  0.7595 -0.8138
29618SOL     OW93410   8.481   7.999   5.376  0.0725  0.6011  0.0502
29618SOL    HW193411   8.559   7.980   5.323 -0.5967 -1.4346 -0.2775
29618SOL    HW293412   8.485   7.935   5.447 -1.3623  0.3873 -0.0373
29619SOL     OW93413   9.025   9.513   7.828 -0.0630  0.1304 -0.0822
29619SOL    HW193414   9.102   9.491   7.775  0.4541  0.3345  0.5703
29619SOL    HW293415   9.013   9.607   7.815 -0.4098  0.0358 -0.4520
29620SOL     OW93416   9.608   0.428   2.154  0.2262 -0.4465  0.3588
29620SOL    HW193417   9.525   0.422   2.106  0.7417 -3.4286 -0.3702
29620SOL    HW293418   9.634   0.519   2.146 -2.3119  0.2749 -0.5354
29621SOL     OW93419   8.330   4.095   1.986  0.3601  0.4730 -0.0855
29621SOL    HW193420   8.332   4.190   1.998 -1.0915  0.3818  1.2555
29621SOL    HW293421   8.247   4.079   1.941  0.7740 -0.1314 -0.6383
29622SOL     OW93422  11.727  11.695   8.003 -0.2423 -0.3405  0.0638
29622SOL    HW193423  11.691  11.614   7.969  1.7435 -0.4963 -1.9312
29622SOL    HW293424  11.773  11.734   7.929 -0.2433  2.1084  1.2349
29623SOL     OW93425  10.784   2.231   9.941  0.3743  0.7673 -0.1380
29623SOL    HW193426  10.867   2.280   9.938 -0.2937  1.9795  0.5027
29623SOL    HW293427  10.717   2.299   9.940 -0.6490 -0.2259 -1.5274
29624SOL     OW93428   5.022  11.434   1.951 -0.0992 -0.3650 -0.4152
29624SOL    HW193429   5.000  11.391   1.868  0.7980  0.5203 -1.1331
29624SOL    HW293430   5.100  11.388   1.982  0.0576 -0.1571 -0.4958
29625SOL     OW93431   5.393  11.823   0.192  0.1730 -0.2473  0.0001
29625SOL    HW193432   5.447  11.893   0.229  0.4213 -0.8826  0.8505
29625SOL    HW293433   5.313  11.824   0.244  0.5386 -1.1681  0.5975
29626SOL     OW93434   3.725   0.604   3.058  0.2422 -0.2489 -0.7768
29626SOL    HW193435   3.686   0.609   2.971 -0.5814  1.2480 -0.3533
29626SOL    HW293436   3.675   0.666   3.111  1.9436  0.2979  0.2784
29627SOL     OW93437   4.839   1.296   5.705 -0.5350 -0.0811  0.3047
29627SOL    HW193438   4.862   1.375   5.656 -0.0657 -0.8990 -0.8527
29627SOL    HW293439   4.792   1.328   5.781  0.2850  1.3618  0.2510
29628SOL     OW93440   9.712   1.176   3.870 -0.1032  0.7057  0.1617
29628SOL    HW193441   9.777   1.216   3.928  1.2225  1.1539 -1.5809
29628SOL    HW293442   9.736   1.084   3.866  0.8535  0.9967 -1.0105
29629SOL     OW93443   4.211   3.477   8.434 -0.1111 -0.0946 -0.1340
29629SOL    HW193444   4.294   3.524   8.423 -0.1772  0.2717  0.8346
29629SOL    HW293445   4.222   3.429   8.516  0.7425 -3.4503 -2.0454
29630SOL     OW93446  10.777   9.194   9.369 -0.9467  0.7408  0.0871
29630SOL    HW193447  10.788   9.207   9.275  0.3233  0.1117  0.1351
29630SOL    HW293448  10.813   9.107   9.386 -1.2397  0.8128  1.1518
29631SOL     OW93449   9.289   2.093   5.334 -0.2261  0.1463 -0.0714
29631SOL    HW193450   9.212   2.137   5.369 -1.0849 -0.6776 -0.8701
29631SOL    HW293451   9.348   2.164   5.309  0.7398  0.7933  3.5524
29632SOL     OW93452   3.513   2.284   1.423 -0.3106  0.1626  0.1571
29632SOL    HW193453   3.549   2.242   1.345 -2.1754  0.4420 -0.9236
29632SOL    HW293454   3.579   2.348   1.449 -0.7316  2.1009 -2.9500
29633SOL     OW93455   4.881   3.848  11.832  0.1575 -0.7939  0.0847
29633SOL    HW193456   4.806   3.854  11.891  0.7215  1.8377  0.6423
29633SOL    HW293457   4.957   3.863  11.889  0.7033  2.0863 -1.2669
29634SOL     OW93458   8.502   8.350   2.365  0.0861 -0.4184  0.0598
29634SOL    HW193459   8.583   8.299   2.367  0.0922 -0.5213 -1.5174
29634SOL    HW293460   8.510   8.403   2.286 -0.6244  0.8830  0.8152
29635SOL     OW93461   7.330   2.689  10.437  0.3682  0.4420 -0.5753
29635SOL    HW193462   7.348   2.780  10.412  0.0663  0.5470 -0.4101
29635SOL    HW293463   7.417   2.652  10.454  0.6346  0.1897 -2.3371
29636SOL     OW93464   3.169   4.384  10.429  0.1577  1.0882  0.1770
29636SOL    HW193465   3.214   4.447  10.373  1.5902  0.2969  0.3904
29636SOL    HW293466   3.204   4.400  10.516  2.6600 -1.6893 -0.1354
29637SOL     OW93467   7.042   0.358   3.875  0.5407  0.5673 -0.2125
29637SOL    HW193468   7.028   0.368   3.969  2.4941 -0.5785  0.2463
29637SOL    HW293469   7.134   0.382   3.862  0.1419  1.2891 -1.9390
29638SOL     OW93470   9.749   0.865   8.106 -0.1191 -0.1506  0.1557
29638SOL    HW193471   9.734   0.943   8.053 -0.6093 -1.2655 -1.4466
29638SOL    HW293472   9.671   0.811   8.092  1.1580 -1.8985 -0.6364
29639SOL     OW93473   4.757   9.194   6.197  0.1724 -0.0655  0.3452
29639SOL    HW193474   4.819   9.199   6.270  0.5674  1.3697 -0.0616
29639SOL    HW293475   4.768   9.105   6.164 -1.3069 -1.4193  3.0949
29640SOL     OW93476   0.128   4.369  10.288  0.9108 -1.0787 -0.3464
29640SOL    HW193477   0.069   4.403  10.220  2.5551  1.1119 -0.7858
29640SOL    HW293478   0.192   4.316  10.240  2.5587  1.1252 -0.7498
29641SOL     OW93479   1.526  10.923  11.255  0.5999  0.4180 -0.0650
29641SOL    HW193480   1.460  10.992  11.259  0.5159  0.3726 -0.6544
29641SOL    HW293481   1.583  10.941  11.329  1.9682  2.5175 -1.5288
29642SOL     OW93482   2.812   5.162   7.596  0.6980 -0.0036  0.4234
29642SOL    HW193483   2.861   5.245   7.598  1.0026 -0.1460 -0.5613
29642SOL    HW293484   2.736   5.181   7.542  1.3229 -0.6367 -0.7274
29643SOL     OW93485  11.083  10.541   8.822 -0.1200 -0.4974  0.1902
29643SOL    HW193486  11.127  10.519   8.905 -0.4602 -0.7189  0.3121
29643SOL    HW293487  11.052  10.457   8.789  2.4621 -0.8766 -1.5921
29644SOL     OW93488  10.037   3.422   2.718 -0.3890 -0.0673 -0.5512
29644SOL    HW193489   9.967   3.389   2.662 -1.0123  0.2425  0.0339
29644SOL    HW293490   9.993   3.482   2.778  0.5778  1.1479 -1.0149
29645SOL     OW93491   5.654  11.531   1.686 -0.3118  0.4441  0.5552
29645SOL    HW193492   5.654  11.627   1.695 -1.6253  0.3676  1.6887
29645SOL    HW293493   5.741  11.505   1.715  0.1211  1.3020  0.0748
29646SOL     OW93494   8.290   1.293   1.399  0.5487  0.0611  0.5554
29646SOL    HW193495   8.321   1.345   1.325 -0.7969  0.5769  0.3269
29646SOL    HW293496   8.291   1.203   1.366 -1.6069  0.4229 -0.7417
29647SOL     OW93497   7.774   6.882   4.395 -0.4302 -0.2952  0.3649
29647SOL    HW193498   7.846   6.892   4.333  1.0823 -1.0257  1.9397
29647SOL    HW293499   7.816   6.868   4.480 -2.3984 -2.0873  1.1444
29648SOL     OW93500  10.409   7.481   7.370  0.4172  0.1277 -0.0192
29648SOL    HW193501  10.382   7.459   7.281  0.3755  2.5783 -0.6765
29648SOL    HW293502  10.375   7.410   7.424 -0.9195 -0.6073 -1.7571
29649SOL     OW93503   3.237   7.761   7.652  0.5112 -0.2730  0.0967
29649SOL    HW193504   3.311   7.705   7.627 -1.2015 -1.8382 -1.7553
29649SOL    HW293505   3.173   7.701   7.689 -1.9176  0.0419 -3.1233
29650SOL     OW93506   4.785   9.559   7.664  0.3256 -0.1707 -0.1251
29650SOL    HW193507   4.845   9.487   7.644  1.4411  1.0968 -1.6957
29650SOL    HW293508   4.752   9.540   7.751  3.7144 -0.5572  1.2318
29651SOL     OW93509   7.823   2.434   2.539 -0.3771 -0.7671 -0.7131
29651SOL    HW193510   7.915   2.409   2.546 -0.1895 -0.3511 -1.6404
29651SOL    HW293511   7.809   2.450   2.446 -1.3912 -0.8322 -0.5801
29652SOL     OW93512   7.579   4.889  10.869 -0.0144  0.1430  0.2337
29652SOL    HW193513   7.641   4.962  10.874  0.4560 -0.2486  0.2013
29652SOL    HW293514   7.536   4.888  10.955 -0.2884  0.6845  0.1062
29653SOL     OW93515   0.351   9.625  11.969  0.2749 -0.3980 -0.4867
29653SOL    HW193516   0.366   9.555  12.032  0.7661  1.6409  1.8158
29653SOL    HW293517   0.256   9.633  11.964  0.2388 -0.0073  0.6937
29654SOL     OW93518   1.257   4.514   3.282  0.5334 -0.3628  0.3301
29654SOL    HW193519   1.279   4.426   3.311  3.0921  0.1236  0.0567
29654SOL    HW293520   1.177   4.503   3.230  1.2670 -2.6435 -0.4062
29655SOL     OW93521  10.461   7.730   7.061  0.6209  0.0942 -0.1810
29655SOL    HW193522  10.456   7.642   7.024  0.8957 -0.0382  0.0911
29655SOL    HW293523  10.535   7.771   7.016  1.0826 -0.1356  0.3609
29656SOL     OW93524   2.624   9.258   9.041 -0.0952 -0.5247 -0.0105
29656SOL    HW193525   2.530   9.245   9.027 -0.1008  0.1005 -0.6169
29656SOL    HW293526   2.632   9.275   9.135 -0.7015  0.3034 -0.0988
29657SOL     OW93527   0.446   3.045   0.251  0.2692  0.9578  0.6249
29657SOL    HW193528   0.372   3.017   0.305 -0.7496  3.2093  0.5149
29657SOL    HW293529   0.523   3.033   0.307 -0.2021 -0.9296  0.9303
29658SOL     OW93530   6.935   4.759   3.802 -0.5166  0.1719 -0.0471
29658SOL    HW193531   6.843   4.782   3.789 -0.7013 -0.6379 -0.1984
29658SOL    HW293532   6.979   4.843   3.817 -1.3664  0.5062  0.5855
29659SOL     OW93533   4.644   8.062   5.206 -0.3400  0.2348 -0.8907
29659SOL    HW193534   4.590   8.072   5.128 -1.0676 -1.9226 -0.7360
29659SOL    HW293535   4.730   8.035   5.173  0.6219  3.1751 -1.1038
29660SOL     OW93536  10.026   1.202  11.748 -0.2755  0.3973  0.7802
29660SOL    HW193537  10.053   1.272  11.688 -1.3747  0.9304  0.8727
29660SOL    HW293538  10.085   1.211  11.823  1.7146 -0.8467 -0.5421
29661SOL     OW93539   9.628   2.127   3.578  0.0785 -0.3844  0.7209
29661SOL    HW193540   9.561   2.069   3.613  0.4565 -1.5412 -0.4190
29661SOL    HW293541   9.666   2.170   3.656 -1.6741  0.0015  1.4095
29662SOL     OW93542   7.458   3.079   1.874 -0.2359 -0.8251 -0.6114
29662SOL    HW193543   7.446   3.173   1.859  2.1973 -0.5101 -1.1536
29662SOL    HW293544   7.486   3.045   1.789 -0.7540 -1.9846 -0.3305
29663SOL     OW93545   8.470   3.158   0.582 -0.0353 -0.0978  0.3385
29663SOL    HW193546   8.439   3.068   0.591  0.6475 -0.1560  2.5954
29663SOL    HW293547   8.525   3.156   0.503 -2.8337 -0.7639 -1.7549
29664SOL     OW93548  10.116   2.074   5.202 -0.6891  0.3832  0.6313
29664SOL    HW193549  10.184   2.037   5.145 -1.3645 -1.0802  0.7247
29664SOL    HW293550  10.038   2.023   5.182 -1.1988  0.5266  2.1454
29665SOL     OW93551   7.513   1.964   8.775  0.1414  0.2130  0.0729
29665SOL    HW193552   7.428   1.980   8.815  0.6069  0.6589  0.9034
29665SOL    HW293553   7.539   2.048   8.738  0.7812  0.3925  0.9197
29666SOL     OW93554   2.496  11.333   5.891  0.1903 -0.4283 -0.3230
29666SOL    HW193555   2.579  11.380   5.895  0.0598 -0.2765  0.8425
29666SOL    HW293556   2.429  11.400   5.897 -0.0032 -0.6731  0.3189
29667SOL     OW93557   2.995   6.195   8.870 -0.0402 -0.2670  0.1970
29667SOL    HW193558   2.959   6.206   8.958 -1.0672  0.1373 -0.2561
29667SOL    HW293559   2.982   6.280   8.828  2.7803  0.4014  0.4418
29668SOL     OW93560   4.872  10.295  10.449 -0.5664  0.3831 -0.4050
29668SOL    HW193561   4.889  10.207  10.416  2.6810  0.3430  1.0121
29668SOL    HW293562   4.839  10.283  10.537  1.6644  0.4916  0.5097
29669SOL     OW93563   6.200  10.763  11.541  0.0422  0.2673  0.1314
29669SOL    HW193564   6.173  10.847  11.580 -0.5350  0.3548 -0.4416
29669SOL    HW293565   6.218  10.707  11.617 -0.9429  0.4762  0.5450
29670SOL     OW93566  11.210   0.020   9.749 -0.1598  0.0448  0.2746
29670SOL    HW193567  11.279   0.047   9.809 -0.3354  0.3320  0.3529
29670SOL    HW293568  11.211  -0.075   9.752  0.8045  0.0207 -0.3878
29671SOL     OW93569   8.801   8.453   4.149  0.5189  0.4987  0.6042
29671SOL    HW193570   8.878   8.443   4.094 -1.4203 -0.3384 -2.2289
29671SOL    HW293571   8.762   8.536   4.121  0.1499  0.6871  1.6558
29672SOL     OW93572   4.762   0.299   3.496  0.2929 -0.6413  0.2975
29672SOL    HW193573   4.808   0.383   3.499 -1.1583  0.2011 -0.0554
29672SOL    HW293574   4.686   0.312   3.553 -1.0343 -1.0151 -1.3189
29673SOL     OW93575   4.646   8.860  10.688 -0.1731 -0.1629 -0.0861
29673SOL    HW193576   4.684   8.892  10.606  0.6809 -1.9851 -0.4531
29673SOL    HW293577   4.562   8.824  10.664 -0.3175  0.1084  0.0048
29674SOL     OW93578   0.911  11.938   3.208  0.1407  0.7047  0.1763
29674SOL    HW193579   0.826  11.958   3.249  0.8953  1.3842  1.4784
29674SOL    HW293580   0.889  11.885   3.132 -1.3344 -1.0587  1.7191
29675SOL     OW93581   2.715   1.741  11.722 -0.0948  0.1704 -0.0781
29675SOL    HW193582   2.743   1.829  11.699  1.5122 -0.5599 -1.1038
29675SOL    HW293583   2.680   1.704  11.641  0.6103 -0.6260 -0.0373
29676SOL     OW93584   6.431   9.172   9.322 -0.6294 -0.4689  0.1413
29676SOL    HW193585   6.367   9.233   9.287 -0.7181 -1.9776 -2.5827
29676SOL    HW293586   6.380   9.109   9.372 -1.0435 -0.6230 -0.4715
29677SOL     OW93587   1.447   8.378   0.426 -0.0045 -0.9346 -0.0084
29677SOL    HW193588   1.439   8.419   0.340  1.1951 -0.3232  0.1364
29677SOL    HW293589   1.542   8.369   0.439 -0.2070 -2.1278  0.7371
29678SOL     OW93590  11.269   8.163   1.845  0.0329 -0.4629 -0.0786
29678SOL    HW193591  11.196   8.198   1.793  1.1733  0.5730 -1.0256
29678SOL    HW293592  11.326   8.121   1.780  1.8895  1.5512  0.1562
29679SOL     OW93593   6.818   4.663   9.829  0.8069 -0.0674  0.0573
29679SOL    HW193594   6.769   4.743   9.847  0.4906 -0.5636  1.6116
29679SOL    HW293595   6.899   4.693   9.787  0.2873  0.9816 -0.2265
29680SOL     OW93596   1.683   3.084   2.800  0.3267 -0.1426  0.4561
29680SOL    HW193597   1.653   3.166   2.761 -1.9700 -1.7102 -1.3365
29680SOL    HW293598   1.753   3.111   2.861 -1.7506  3.3749  1.6134
29681SOL     OW93599   7.720  11.459   1.996  0.0957 -0.1225  0.0072
29681SOL    HW193600   7.689  11.369   1.987 -0.9949  0.0239  1.8084
29681SOL    HW293601   7.785  11.455   2.066  1.6868  0.1829 -1.3683
29682SOL     OW93602   6.823   1.110   0.667  0.0673 -0.3619 -0.2861
29682SOL    HW193603   6.850   1.197   0.641  0.8115 -0.1603  1.0662
29682SOL    HW293604   6.839   1.055   0.590  3.3305 -0.0508  0.0499
29683SOL     OW93605   8.906   0.900  10.929 -0.5221  0.5669  0.2441
29683SOL    HW193606   8.920   0.922  11.021  1.8145 -1.4115  0.4513
29683SOL    HW293607   8.844   0.828  10.931 -1.3053  1.2184  0.1510
29684SOL     OW93608   8.759   1.133   5.734  0.4016  0.0202 -0.4744
29684SOL    HW193609   8.682   1.109   5.683 -0.1688  2.0773 -0.6924
29684SOL    HW293610   8.724   1.172   5.815  1.0470  2.9437 -1.4765
29685SOL     OW93611   7.603  11.315   6.047  0.2942  0.3698 -0.1092
29685SOL    HW193612   7.508  11.317   6.060  0.2727 -1.3717  0.1733
29685SOL    HW293613   7.631  11.406   6.059 -0.7557  0.3316  4.5562
29686SOL     OW93614   7.544   1.032  12.116 -0.7696 -0.3803  0.2003
29686SOL    HW193615   7.541   0.973  12.040  0.1700 -0.2594  0.0559
29686SOL    HW293616   7.481   1.101  12.095  0.3052  0.2728 -1.0128
29687SOL     OW93617   6.289  11.853   8.932  0.4822 -0.0456 -0.1310
29687SOL    HW193618   6.233  11.806   8.995 -0.8415  1.9086  0.2367
29687SOL    HW293619   6.378  11.824   8.954 -0.0155 -0.1169  2.0797
29688SOL     OW93620   7.154  11.986  10.530 -0.1301  0.0524  0.1281
29688SOL    HW193621   7.218  11.951  10.468  2.2762  1.6042  1.5567
29688SOL    HW293622   7.121  11.910  10.577  1.3778 -0.7249 -0.0298
29689SOL     OW93623   9.046   1.444   2.081  0.0188  0.3559 -0.5995
29689SOL    HW193624   9.005   1.358   2.084 -0.4550  0.5852 -0.1254
29689SOL    HW293625   8.973   1.505   2.068 -0.1726  0.9738  2.4996
29690SOL     OW93626  12.060   6.868   7.290 -0.2095  0.0839 -0.2444
29690SOL    HW193627  12.115   6.946   7.277  0.7744 -0.6555 -0.5921
29690SOL    HW293628  12.098   6.802   7.233 -0.9243 -0.7207  0.1929
29691SOL     OW93629   1.192   2.643   7.502  0.7484  0.5731  0.2725
29691SOL    HW193630   1.099   2.663   7.496  0.0300 -2.3923 -0.3422
29691SOL    HW293631   1.219   2.622   7.412  1.1660 -1.5115  0.8170
29692SOL     OW93632   5.678   6.235   7.417 -0.1265  0.1710  0.0028
29692SOL    HW193633   5.601   6.205   7.466  0.5573  0.9956  1.6528
29692SOL    HW293634   5.676   6.330   7.425  0.2847  0.2997 -1.2017
29693SOL     OW93635   3.421  10.296   0.717 -0.5947 -0.6419  0.1288
29693SOL    HW193636   3.329  10.299   0.692 -0.0358 -1.6314 -2.3371
29693SOL    HW293637   3.468  10.333   0.642  0.9344  2.8159  2.5124
29694SOL     OW93638   7.318   8.516   7.824 -0.4857  0.1598  1.1659
29694SOL    HW193639   7.303   8.458   7.898 -0.6718 -0.3088  0.7606
29694SOL    HW293640   7.398   8.564   7.847  0.1037 -0.8046  1.1631
29695SOL     OW93641   3.052   2.303   6.410 -0.1648  0.1277  0.3906
29695SOL    HW193642   2.959   2.316   6.390 -0.1781 -0.6317 -0.0904
29695SOL    HW293643   3.076   2.378   6.465 -0.8375  0.8000 -0.2062
29696SOL     OW93644   0.355   2.038   0.708 -0.1835  0.5175 -0.8338
29696SOL    HW193645   0.429   2.098   0.709  0.3661 -0.1343 -1.2925
29696SOL    HW293646   0.393   1.952   0.689 -1.1501  0.3093 -1.9643
29697SOL     OW93647   7.880   4.740   4.088  0.5472  0.4183 -0.2504
29697SOL    HW193648   7.967   4.771   4.065  0.5515  0.0689 -0.7228
29697SOL    HW293649   7.829   4.820   4.104  1.0312  0.6136  0.3320
29698SOL     OW93650   9.744   4.868  11.284 -0.0798 -0.3684 -0.3650
29698SOL    HW193651   9.769   4.776  11.285 -0.4438 -0.4843 -1.3371
29698SOL    HW293652   9.654   4.869  11.316  0.7716 -0.0323  2.3298
29699SOL     OW93653   2.431   9.317   8.161  0.1057  0.1688 -0.1321
29699SOL    HW193654   2.489   9.248   8.194  1.3136  1.5401  0.7133
29699SOL    HW293655   2.464   9.335   8.073  0.2123  0.1357 -0.0996
29700SOL     OW93656   9.953  11.326   7.635  0.5595 -0.0666  0.6936
29700SOL    HW193657   9.944  11.276   7.716  0.9861  0.1764  0.8961
29700SOL    HW293658  10.045  11.354   7.635  0.5461 -0.0191  0.1527
29701SOL     OW93659   9.669   5.055  10.075  0.2450 -0.4145 -0.8124
29701SOL    HW193660   9.609   5.063  10.149  0.0293 -1.3622 -0.8648
29701SOL    HW293661   9.710   5.141  10.067  0.7126 -0.4574  0.7831
29702SOL     OW93662   8.210   1.566   7.415 -0.2126  0.1718 -0.4351
29702SOL    HW193663   8.278   1.569   7.481  0.4268 -0.8722 -1.0221
29702SOL    HW293664   8.128   1.575   7.464  0.2167 -1.1054  0.5555
29703SOL     OW93665   0.548   7.801  11.878  0.1427 -0.2207 -0.0882
29703SOL    HW193666   0.453   7.808  11.890  0.2603 -1.2267  1.7015
29703SOL    HW293667   0.562   7.714  11.842  0.3606  0.0899 -0.7613
29704SOL     OW93668  11.798   8.237   1.456 -0.6451 -0.4775 -0.5275
29704SOL    HW193669  11.771   8.203   1.541 -0.5154 -1.2794 -0.7972
29704SOL    HW293670  11.729   8.210   1.396  0.7478 -2.6905 -1.2479
29705SOL     OW93671   7.635   8.835   7.002 -0.1364  0.2509  0.1990
29705SOL    HW193672   7.577   8.760   7.001 -0.8053  0.7214  1.8308
29705SOL    HW293673   7.577   8.911   6.998  0.3843  0.7196  1.2373
29706SOL     OW93674   3.386   4.956   3.707 -0.3006  0.1620  0.1360
29706SOL    HW193675   3.355   5.017   3.640 -1.5328  0.8971  1.3251
29706SOL    HW293676   3.432   5.012   3.771 -0.4979 -0.2853  0.6812
29707SOL     OW93677   6.961   5.429   9.634 -0.5544 -0.4109  0.6801
29707SOL    HW193678   6.883   5.476   9.664 -0.7547 -0.6169  0.4865
29707SOL    HW293679   6.953   5.427   9.539  0.5325  1.0155  0.5379
29708SOL     OW93680   6.919   7.487   2.867  0.3481 -0.2661 -0.2569
29708SOL    HW193681   6.901   7.578   2.891  0.8596  0.4330 -2.3330
29708SOL    HW293682   6.916   7.440   2.950 -0.1136  1.5984  0.8548
29709SOL     OW93683   4.163   8.994   2.075  0.4501 -0.2024 -0.3848
29709SOL    HW193684   4.254   8.967   2.069  0.4790 -0.1674 -0.1139
29709SOL    HW293685   4.167   9.088   2.093  0.3932 -0.5033  1.3643
29710SOL     OW93686  11.016  11.708   8.352  0.4766 -0.0834 -0.1214
29710SOL    HW193687  10.968  11.750   8.281 -2.7986 -0.2763  1.8032
29710SOL    HW293688  11.040  11.779   8.411  0.0797 -0.2837  0.2844
29711SOL     OW93689   8.510  10.708   0.451 -0.1767 -0.0065  0.0035
29711SOL    HW193690   8.478  10.632   0.403 -0.5919  0.1133  0.0823
29711SOL    HW293691   8.574  10.673   0.512 -0.0032 -0.2238 -0.3027
29712SOL     OW93692   5.317   2.931   9.172  0.2785  0.1840 -0.0488
29712SOL    HW193693   5.275   2.988   9.108  0.0527  0.9251  0.7449
29712SOL    HW293694   5.408   2.962   9.176  0.3130  0.0856 -0.0661
29713SOL     OW93695   0.961  11.940   1.680 -0.3717  0.0877 -0.0298
29713SOL    HW193696   0.902  12.009   1.709 -0.1039  0.8651 -1.2417
29713SOL    HW293697   1.024  11.985   1.623 -0.5425 -1.2322 -1.3349
29714SOL     OW93698  11.140   9.569   3.397 -0.4376 -0.2089 -0.1349
29714SOL    HW193699  11.103   9.581   3.309  0.2455 -0.5738 -0.4773
29714SOL    HW293700  11.152   9.658   3.430 -0.8490 -0.0726 -0.3410
29715SOL     OW93701   9.863   2.212   0.753  0.1752 -0.2535 -0.2784
29715SOL    HW193702   9.835   2.233   0.842 -0.2299  0.7323 -0.6228
29715SOL    HW293703   9.836   2.121   0.739  1.1791 -0.7679  0.9650
29716SOL     OW93704   8.660   5.384   8.989  1.0191  0.0850  0.1989
29716SOL    HW193705   8.620   5.304   9.023 -1.7185  1.2505 -0.0443
29716SOL    HW293706   8.686   5.433   9.068  0.7571 -0.1033  0.4041
29717SOL     OW93707   9.066   1.939   4.853  0.5033 -0.1824 -0.2175
29717SOL    HW193708   9.126   2.006   4.885  2.4779 -1.4692 -0.9977
29717SOL    HW293709   9.030   1.975   4.773  1.7817 -0.1336 -0.7938
29718SOL     OW93710   1.784   4.105   9.509  0.2674 -0.0792  0.1676
29718SOL    HW193711   1.835   4.081   9.586 -1.5553  1.0875  1.8465
29718SOL    HW293712   1.836   4.173   9.466  0.5809  0.4139  1.2986
29719SOL     OW93713  10.656   4.732   9.371  0.1591 -0.3143 -0.3117
29719SOL    HW193714  10.676   4.805   9.430 -0.9038 -1.0967  1.1069
29719SOL    HW293715  10.740   4.689   9.357  0.3537 -0.5241  1.2648
29720SOL     OW93716   4.593  10.004  11.198  0.3072 -0.9297  0.1607
29720SOL    HW193717   4.645   9.923  11.194  1.7992 -0.1088  1.7426
29720SOL    HW293718   4.632  10.054  11.270 -2.0038  0.2442  0.6732
29721SOL     OW93719   9.958   8.696  10.167 -0.2963  0.1871 -0.2549
29721SOL    HW193720  10.051   8.711  10.147 -0.6783  1.1452 -1.4349
29721SOL    HW293721   9.950   8.601  10.173  1.1049  0.1387  1.7111
29722SOL     OW93722  10.449   5.983  11.481 -0.6162 -0.0829  0.0464
29722SOL    HW193723  10.442   6.043  11.556  0.6085  0.9770 -0.6449
29722SOL    HW293724  10.430   6.038  11.405  1.1288 -0.3864 -0.6625
29723SOL     OW93725  10.216   5.841   3.149 -0.1224 -0.9710  0.2194
29723SOL    HW193726  10.144   5.778   3.143 -0.3479 -0.6781 -0.1784
29723SOL    HW293727  10.188   5.905   3.214 -0.3134 -0.7460 -0.0793
29724SOL     OW93728   1.575   2.347   0.506 -0.0135 -0.2562 -0.9740
29724SOL    HW193729   1.491   2.309   0.533 -0.0648 -0.7211 -1.7563
29724SOL    HW293730   1.594   2.304   0.423 -0.5327  2.1377 -2.3923
29725SOL     OW93731   2.117  11.663   6.910  0.5525  0.5423 -0.3397
29725SOL    HW193732   2.156  11.594   6.855 -0.5503 -0.3441 -0.0624
29725SOL    HW293733   2.185  11.684   6.974  0.2191 -1.8498  0.9300
29726SOL     OW93734   2.159   9.276   3.839 -0.0365 -0.2881  0.5176
29726SOL    HW193735   2.247   9.312   3.851  0.1673  0.0772 -1.6166
29726SOL    HW293736   2.166   9.184   3.865  0.4443  0.1949  2.2290
29727SOL     OW93737  10.431   9.888   9.625  0.0066 -0.2274  1.0000
29727SOL    HW193738  10.367   9.831   9.668  0.1071 -0.7420  0.4806
29727SOL    HW293739  10.447   9.846   9.540 -3.5869  2.9950 -1.6497
29728SOL     OW93740   5.427  10.523  10.615  0.1896  0.7487 -0.9824
29728SOL    HW193741   5.421  10.433  10.583 -0.0572  0.4134 -0.0451
29728SOL    HW293742   5.425  10.577  10.536 -1.2132  0.0063 -1.5076
29729SOL     OW93743   9.394   1.056   3.582  0.3433 -0.0191 -0.0066
29729SOL    HW193744   9.486   1.031   3.584  0.1137 -1.1210 -1.6036
29729SOL    HW293745   9.375   1.070   3.489 -1.0349  0.4458  0.3209
29730SOL     OW93746   7.196   7.913   1.209 -0.0075 -0.2529  0.0441
29730SOL    HW193747   7.244   7.977   1.261  2.1506  0.7648 -2.8990
29730SOL    HW293748   7.109   7.951   1.200  0.8581  1.7288 -0.6019
29731SOL     OW93749   6.177   0.167   9.059  0.5116 -0.0474 -0.0725
29731SOL    HW193750   6.117   0.106   9.016  1.2966 -1.8982  1.3705
29731SOL    HW293751   6.119   0.233   9.098 -0.3902 -0.2709 -0.9864
29732SOL     OW93752   3.930  11.031   7.971  0.0444 -0.2959  0.4627
29732SOL    HW193753   3.999  11.082   7.929 -0.7279 -0.9757 -1.8377
29732SOL    HW293754   3.890  10.982   7.899 -1.8701 -1.0448  1.9382
29733SOL     OW93755   4.654   0.314   1.329 -0.0397  0.1054 -0.3060
29733SOL    HW193756   4.682   0.405   1.330  0.6715 -0.0566 -1.9691
29733SOL    HW293757   4.696   0.277   1.251 -0.8229 -1.4805 -0.0150
29734SOL     OW93758   7.314   8.267   6.998 -0.3665 -0.2127 -0.5307
29734SOL    HW193759   7.219   8.269   6.983 -0.5414 -0.0946  0.5149
29734SOL    HW293760   7.331   8.343   7.054 -0.0792 -1.7023  1.5109
29735SOL     OW93761  10.357   7.014   2.953 -0.0398 -0.7316  0.1750
29735SOL    HW193762  10.374   6.995   2.861 -0.5438 -0.9773  0.1241
29735SOL    HW293763  10.338   7.107   2.956 -0.6183 -0.8354 -0.0716
29736SOL     OW93764   6.647   2.302   6.029 -0.0504 -0.1918 -0.0313
29736SOL    HW193765   6.634   2.356   6.107 -0.1459 -0.6335  0.2579
29736SOL    HW293766   6.740   2.314   6.008  0.1841 -0.7605  0.6635
29737SOL     OW93767   4.165   0.714   4.310 -0.3656  0.1291  0.1683
29737SOL    HW193768   4.246   0.748   4.348  0.7100 -0.6890 -1.3134
29737SOL    HW293769   4.188   0.628   4.276 -1.5996  0.2708 -1.1388
29738SOL     OW93770  11.081   8.463   9.461  0.1301  0.0286  0.2365
29738SOL    HW193771  11.035   8.382   9.483  1.3600 -0.5256  0.8755
29738SOL    HW293772  11.070   8.518   9.539  0.2328  0.0447  0.2392
29739SOL     OW93773   5.532   8.018   2.425 -0.8666 -0.3459  0.5697
29739SOL    HW193774   5.477   8.023   2.347 -0.7609  0.9939  0.5505
29739SOL    HW293775   5.512   8.099   2.473 -0.7434 -1.0146  1.8104
29740SOL     OW93776   1.078   8.199  11.932  0.2153 -0.2259  0.4404
29740SOL    HW193777   0.991   8.228  11.962 -0.1808 -0.8264 -0.1034
29740SOL    HW293778   1.096   8.254  11.855  0.2381 -0.2277  0.4446
29741SOL     OW93779   3.945   7.578   1.326 -0.2535 -0.0729  0.4288
29741SOL    HW193780   3.860   7.555   1.365 -0.8468 -1.2803 -1.4103
29741SOL    HW293781   3.955   7.672   1.344 -0.4753 -0.5277  3.3290
29742SOL     OW93782   9.373   0.135   0.382 -0.4990  0.1806  0.2754
29742SOL    HW193783   9.347   0.173   0.466  0.2647  1.7398 -0.1512
29742SOL    HW293784   9.463   0.164   0.369  0.0125 -1.5083 -0.2841
29743SOL     OW93785   0.216   4.704   2.685 -0.0368  0.3693  0.4150
29743SOL    HW193786   0.309   4.684   2.697 -0.0466  0.3770  0.5034
29743SOL    HW293787   0.171   4.652   2.751 -0.2288 -0.8401 -0.6473
29744SOL     OW93788   1.870   2.247   9.013  0.2376 -0.2505  0.1889
29744SOL    HW193789   1.920   2.310   8.962  1.1651 -0.6862  0.5518
29744SOL    HW293790   1.925   2.170   9.018 -0.0389 -0.3930  1.4280
29745SOL     OW93791   1.337   4.149  11.305  0.1691  0.2790 -0.0262
29745SOL    HW193792   1.308   4.219  11.247 -0.8215 -0.0438  0.0668
29745SOL    HW293793   1.432   4.146  11.293  0.2344  1.6446 -0.0161
29746SOL     OW93794   1.178  11.047   6.061  0.5160 -0.6688  0.5441
29746SOL    HW193795   1.090  11.075   6.086  1.5691  0.5946  3.2849
29746SOL    HW293796   1.175  10.951   6.065 -0.4798 -0.6063  1.6545
29747SOL     OW93797  10.186   9.372   8.208 -1.0878 -0.0561  0.1377
29747SOL    HW193798  10.224   9.427   8.140 -0.6289 -0.5203  0.0188
29747SOL    HW293799  10.165   9.433   8.279 -0.4873  0.2561  0.0467
29748SOL     OW93800   8.642   7.037  11.992  0.7499  0.0162  0.0468
29748SOL    HW193801   8.561   7.038  12.043  0.6386 -0.0518 -0.1238
29748SOL    HW293802   8.711   7.025  12.056  0.4350 -2.6595 -0.0210
29749SOL     OW93803   8.107   3.387   3.051  0.3861  0.5512 -0.4658
29749SOL    HW193804   8.112   3.432   2.967 -1.1678  1.2434 -0.2170
29749SOL    HW293805   8.133   3.453   3.115  0.0281  0.4999 -0.2678
29750SOL     OW93806  11.934   7.266   9.742 -0.5220  0.3044  0.0335
29750SOL    HW193807  11.905   7.352   9.711 -2.9984 -0.7338 -0.7991
29750SOL    HW293808  11.955   7.219   9.662  3.2479  0.7958  0.5740
29751SOL     OW93809   7.882  10.576   7.457 -0.1869 -0.5638  0.1082
29751SOL    HW193810   7.911  10.609   7.542  0.5786  0.5621 -0.5718
29751SOL    HW293811   7.910  10.484   7.455  2.4105  0.1662 -0.0771
29752SOL     OW93812   4.544  11.156   1.294  0.0569  0.6181 -0.4460
29752SOL    HW193813   4.636  11.166   1.317  0.0534  3.2927 -1.2475
29752SOL    HW293814   4.521  11.238   1.250 -2.6435 -0.0788 -0.5242
29753SOL     OW93815   6.612  11.368   2.279 -0.1674  0.1607  0.3924
29753SOL    HW193816   6.634  11.348   2.369 -0.6010 -0.2249  0.4174
29753SOL    HW293817   6.553  11.444   2.285 -2.3197 -1.4269  0.6442
29754SOL     OW93818  10.630   3.611  10.119  0.0738 -0.1674  0.1120
29754SOL    HW193819  10.696   3.673  10.151 -1.3758  1.6158 -0.1419
29754SOL    HW293820  10.654   3.527  10.159  1.5774  0.7464  1.2553
29755SOL     OW93821   9.499   4.814   5.056 -0.6673 -0.5691 -0.0022
29755SOL    HW193822   9.593   4.805   5.071 -1.1015 -1.5560  2.6075
29755SOL    HW293823   9.476   4.737   5.003  0.0293 -0.1258 -0.9681
29756SOL     OW93824   5.289   5.118   8.951  0.2941  0.1225 -0.0241
29756SOL    HW193825   5.288   5.112   9.047  0.4319  1.1855  0.0494
29756SOL    HW293826   5.381   5.123   8.927  0.2294  1.5847 -0.0754
29757SOL     OW93827   0.706   3.784  11.289  0.5589  0.5049  0.0531
29757SOL    HW193828   0.751   3.852  11.239 -0.5458  0.9287 -0.4093
29757SOL    HW293829   0.650   3.740  11.224 -0.2403  0.4919  0.7298
29758SOL     OW93830   7.845  12.096   3.888  0.1783  0.2108  0.2781
29758SOL    HW193831   7.883  12.122   3.804  1.3531  0.8652  0.9814
29758SOL    HW293832   7.821  12.004   3.875 -0.8681  0.6514 -1.1644
29759SOL     OW93833  12.096   4.755   4.073 -0.1397  1.1540 -0.5522
29759SOL    HW193834  12.013   4.794   4.046 -0.7541 -0.2579 -0.7995
29759SOL    HW293835  12.131   4.816   4.138 -2.4356  0.7383  1.2136
29760SOL     OW93836  11.936  10.897   4.147 -0.2938  0.2593  0.1961
29760SOL    HW193837  12.027  10.921   4.134 -0.2862 -0.0124 -0.2777
29760SOL    HW293838  11.902  10.880   4.058 -0.9680  0.9463  0.3123
29761SOL     OW93839   9.948   0.739   0.357  0.1669  0.0717  0.0762
29761SOL    HW193840   9.981   0.821   0.394 -0.9528  0.3010  0.5735
29761SOL    HW293841   9.992   0.671   0.408  0.0980  0.3710  0.5419
29762SOL     OW93842   4.524   2.238   8.620  0.3530 -0.3047 -0.4070
29762SOL    HW193843   4.585   2.218   8.691  0.1929  0.5310 -0.0211
29762SOL    HW293844   4.580   2.261   8.546  0.5153  0.1884 -0.1355
29763SOL     OW93845   6.832  11.568   5.107 -0.5674  0.5834 -0.1488
29763SOL    HW193846   6.866  11.569   5.018  1.5158  0.4503  0.5843
29763SOL    HW293847   6.904  11.534   5.160 -1.8038  0.4935  1.5737
29764SOL     OW93848   1.995  10.716   0.291 -0.5617 -0.8773 -0.0680
29764SOL    HW193849   1.910  10.729   0.248 -0.3154 -0.5481 -0.4502
29764SOL    HW293850   2.026  10.804   0.311  1.0582 -0.7934 -2.5662
29765SOL     OW93851   2.958   2.018   1.209  0.0205 -0.5092  0.0028
29765SOL    HW193852   2.983   1.925   1.211  0.9866 -0.2496  0.9180
29765SOL    HW293853   2.933   2.038   1.299 -1.5544 -0.2034 -0.4576
29766SOL     OW93854   7.548  11.646   1.893 -0.2143  0.5246 -0.4527
29766SOL    HW193855   7.561  11.630   1.800 -0.4387 -0.8714 -0.2622
29766SOL    HW293856   7.628  11.615   1.935  0.1988  1.8216 -0.2125
29767SOL     OW93857   7.569   5.006   2.964 -0.1267 -0.0095 -0.0842
29767SOL    HW193858   7.585   5.024   2.872  0.3418  0.2271  0.0417
29767SOL    HW293859   7.479   4.973   2.967 -1.2833  2.9054 -0.2337
29768SOL     OW93860  11.505   5.876   9.970 -0.1801 -0.1186  0.2634
29768SOL    HW193861  11.434   5.824   9.932  0.3511 -1.0631  0.5307
29768SOL    HW293862  11.461   5.936  10.031 -0.6252 -2.1192  2.0506
29769SOL     OW93863   0.270   9.577   4.317  0.7502 -0.3145 -0.2068
29769SOL    HW193864   0.211   9.561   4.391  0.0597 -2.0153 -1.0575
29769SOL    HW293865   0.322   9.497   4.311  0.8713 -0.1542 -1.4839
29770SOL     OW93866   5.116   2.063   6.961 -0.0243 -0.4764 -0.0865
29770SOL    HW193867   5.046   1.998   6.960  0.6617 -1.2480  0.1459
29770SOL    HW293868   5.106   2.108   7.045 -0.2892 -0.5253 -0.0911
29771SOL     OW93869   1.984   1.349   5.448  0.1270  0.2840 -0.5439
29771SOL    HW193870   1.926   1.366   5.374 -1.3639  0.8758  0.7087
29771SOL    HW293871   1.985   1.432   5.497  1.5149  0.0794 -0.1770
29772SOL     OW93872   4.493   7.417   3.001  0.0980 -0.2983 -0.2934
29772SOL    HW193873   4.549   7.452   3.070  0.2788  1.2103 -1.1673
29772SOL    HW293874   4.511   7.472   2.924 -0.8824 -1.2425 -1.2458
29773SOL     OW93875  11.279  11.182   0.185 -0.5769 -0.0783 -0.5697
29773SOL    HW193876  11.306  11.095   0.157  2.6504  0.5937  0.0527
29773SOL    HW293877  11.192  11.169   0.223 -1.1437 -2.5852 -2.4580
29774SOL     OW93878   9.923   0.979   5.483 -0.7651 -0.1857  0.5383
29774SOL    HW193879   9.913   1.035   5.406 -0.9830  0.1966  0.8386
29774SOL    HW293880  10.002   0.928   5.466  1.0368  2.1189  1.3985
29775SOL     OW93881   8.591   3.991   3.779 -0.3936  0.7824 -0.2261
29775SOL    HW193882   8.614   4.082   3.762  0.1682  1.2776  2.7628
29775SOL    HW293883   8.502   3.994   3.812 -0.5222  0.1908 -0.5059
29776SOL     OW93884   0.884   7.957  10.144 -0.2259  0.0657  0.4386
29776SOL    HW193885   0.799   8.000  10.135  0.4648  0.9995 -3.7736
29776SOL    HW293886   0.940   8.022  10.188 -1.0259  0.4645  0.8787
29777SOL     OW93887  11.716   7.445   9.991  0.4604  0.0185  0.1232
29777SOL    HW193888  11.797   7.492   9.971 -0.3901  1.2158 -0.6958
29777SOL    HW293889  11.651   7.514  10.000 -0.3562 -0.8826  1.3963
29778SOL     OW93890   3.898   8.789   0.643 -0.2640  0.1391 -0.1740
29778SOL    HW193891   3.842   8.772   0.719  0.0495 -0.1395 -0.0050
29778SOL    HW293892   3.847   8.756   0.568  0.2854 -1.4855  0.1348
29779SOL     OW93893   5.321  11.320   2.667  0.6619 -0.1480  0.1318
29779SOL    HW193894   5.377  11.373   2.724 -0.0789  0.6296  0.1655
29779SOL    HW293895   5.235  11.322   2.710  0.7364 -1.8592  0.4282
29780SOL     OW93896   7.907   3.993   9.228 -0.6449  0.3843  0.0700
29780SOL    HW193897   7.918   3.901   9.202  1.3163  0.3295  0.9388
29780SOL    HW293898   7.849   4.030   9.161 -1.6667 -1.5193 -0.1714
29781SOL     OW93899   5.295   2.677   7.773  0.0138 -0.0821 -0.0350
29781SOL    HW193900   5.277   2.591   7.810  1.4914 -0.1008  0.7026
29781SOL    HW293901   5.303   2.735   7.850  1.6060  0.1768 -0.3519
29782SOL     OW93902   7.578   5.807   6.517 -0.3184  0.0432  0.0895
29782SOL    HW193903   7.662   5.853   6.512 -0.5669  0.4183 -1.0713
29782SOL    HW293904   7.570   5.764   6.432 -1.3985  0.1864  0.1066
29783SOL     OW93905   2.724   5.274   3.900 -0.1868  0.5743 -0.0203
29783SOL    HW193906   2.780   5.352   3.905  1.4065 -0.4781 -0.6755
29783SOL    HW293907   2.726   5.238   3.989 -0.1017  0.7132  0.0351
29784SOL     OW93908  12.070   2.757   8.154 -0.3812 -0.0107 -0.1693
29784SOL    HW193909  12.061   2.750   8.249 -1.1969  1.0238 -0.1509
29784SOL    HW293910  12.063   2.851   8.136  1.9024  0.0769 -1.0624
29785SOL     OW93911   2.071  11.234  10.186  0.1793 -0.1646 -0.0359
29785SOL    HW193912   2.087  11.141  10.205 -0.3840 -0.3855 -0.5751
29785SOL    HW293913   2.157  11.276  10.195  0.6825 -0.9502 -0.9170
29786SOL     OW93914   2.632   8.716   7.467 -0.1049  0.3750 -0.3850
29786SOL    HW193915   2.686   8.637   7.467 -0.8494 -0.1623  0.6857
29786SOL    HW293916   2.692   8.787   7.444  0.4310 -0.5777 -2.1646
29787SOL     OW93917   5.181   2.891   7.066  0.2475  0.3927 -0.2168
29787SOL    HW193918   5.186   2.964   7.128  1.5598  1.0202 -1.0100
29787SOL    HW293919   5.180   2.933   6.980 -0.4507 -0.4952 -0.6557
29788SOL     OW93920  11.338  10.245   7.854  0.3893 -0.0740  0.0794
29788SOL    HW193921  11.369  10.318   7.907 -0.9303  0.6055 -0.0397
29788SOL    HW293922  11.245  10.240   7.873  0.1742 -0.7511 -1.0716
29789SOL     OW93923   1.646  10.087  10.138 -0.0475  0.2296 -0.0812
29789SOL    HW193924   1.657  10.063  10.046 -1.1394 -0.6635  0.0055
29789SOL    HW293925   1.717  10.149  10.155 -1.3372  2.4789 -2.2273
29790SOL     OW93926   6.048   1.687  10.952 -0.6883 -0.2041  0.0901
29790SOL    HW193927   5.953   1.689  10.966 -0.5437  0.1331  1.0871
29790SOL    HW293928   6.063   1.604  10.908 -1.6060  0.3696 -1.4002
29791SOL     OW93929   0.784   6.160   8.241 -0.4344  0.0136  0.5903
29791SOL    HW193930   0.818   6.084   8.288 -0.4749  0.2408  0.9987
29791SOL    HW293931   0.721   6.199   8.302 -1.0232 -0.0962  0.0583
29792SOL     OW93932   2.293   0.933   4.911  0.7921  0.0222  0.5779
29792SOL    HW193933   2.250   0.951   4.994 -1.2802 -0.3765 -0.3285
29792SOL    HW293934   2.280   1.012   4.859  0.2506 -0.4707 -0.0543
29793SOL     OW93935   7.491  11.840   2.874  0.2755 -0.3676 -0.7899
29793SOL    HW193936   7.469  11.925   2.910  0.2117 -1.1265  1.0964
29793SOL    HW293937   7.564  11.809   2.928  0.6096 -1.3059 -1.7408
29794SOL     OW93938   8.623  10.142   7.088  0.1848 -0.2106  0.2977
29794SOL    HW193939   8.574  10.068   7.124  0.2648 -0.3761  0.0713
29794SOL    HW293940   8.697  10.102   7.043  0.9120  0.0737  1.2143
29795SOL     OW93941   0.775  11.697   6.974  0.2420 -0.5410 -0.3656
29795SOL    HW193942   0.690  11.671   7.008  1.1416 -1.9684  0.8815
29795SOL    HW293943   0.786  11.646   6.893 -0.6729  0.7361 -1.3364
29796SOL     OW93944   6.983   7.118   9.527 -0.1144 -0.4774 -0.3423
29796SOL    HW193945   7.072   7.112   9.493  0.0848 -0.9912  0.2381
29796SOL    HW293946   6.949   7.029   9.522  0.3991 -0.8668  1.9982
29797SOL     OW93947   0.533   9.371   2.986  0.5183  0.5921  0.9227
29797SOL    HW193948   0.467   9.438   3.003  0.5352  1.4722 -1.9610
29797SOL    HW293949   0.507   9.297   3.042 -0.9814  2.0536  2.2672
29798SOL     OW93950   2.708   4.352   5.698  0.1634 -0.2426  0.3546
29798SOL    HW193951   2.746   4.395   5.621  0.4418 -1.1470 -0.0204
29798SOL    HW293952   2.672   4.270   5.664 -0.4501 -0.2655  1.0466
29799SOL     OW93953   7.158   8.052   0.744 -0.0277 -0.2887  0.7221
29799SOL    HW193954   7.145   8.083   0.834 -0.6842 -0.1824  0.5968
29799SOL    HW293955   7.227   8.107   0.709 -0.1776  0.0626  0.9725
29800SOL     OW93956   8.506   4.694  11.359 -0.0420 -0.1762  0.6086
29800SOL    HW193957   8.528   4.766  11.301 -1.5839  1.0607  1.4756
29800SOL    HW293958   8.490   4.619  11.301  0.2123  0.5418 -0.4063
29801SOL     OW93959   5.499  10.654  10.041  0.1897 -0.3010  0.5484
29801SOL    HW193960   5.553  10.581  10.010  1.8293  2.0081 -2.6109
29801SOL    HW293961   5.563  10.722  10.063 -1.3517  1.2938  0.2472
29802SOL     OW93962  11.887   5.508   7.951  0.5098 -0.3072 -0.4718
29802SOL    HW193963  11.916   5.549   7.870  1.5674  0.3245  0.2006
29802SOL    HW293964  11.955   5.443   7.970  0.7125  0.1287  0.3337
29803SOL     OW93965   9.860   4.868   6.344 -0.6710 -0.2979 -0.0351
29803SOL    HW193966   9.846   4.878   6.250 -0.0207 -0.0274 -0.1066
29803SOL    HW293967   9.950   4.898   6.358 -0.5561 -0.9213  0.5835
29804SOL     OW93968   0.967   0.284   0.853 -0.3948  0.1831 -0.5064
29804SOL    HW193969   1.012   0.366   0.873  0.8334 -0.5791 -0.0598
29804SOL    HW293970   0.878   0.296   0.887 -0.3462  1.4502 -0.7765
29805SOL     OW93971   1.887   3.464   6.682  0.1945 -0.9833  0.6682
29805SOL    HW193972   1.903   3.465   6.776 -0.8233 -1.5730  0.8623
29805SOL    HW293973   1.893   3.555   6.655  0.4597 -0.8069  1.3081
29806SOL     OW93974   7.080   7.924   6.306 -0.4840 -0.2613 -0.2234
29806SOL    HW193975   7.024   7.961   6.374 -0.3171  1.1377 -0.8055
29806SOL    HW293976   7.018   7.889   6.241 -0.6651 -0.0330 -0.1748
29807SOL     OW93977   9.288   0.643   1.568  0.5947 -0.3562  0.2376
29807SOL    HW193978   9.231   0.603   1.634  1.4491 -0.7267  0.7790
29807SOL    HW293979   9.300   0.575   1.502 -0.9016  0.2803 -0.7461
29808SOL     OW93980   2.263   3.242   9.799 -0.0083 -0.4721  0.0973
29808SOL    HW193981   2.176   3.281   9.806  0.9827  1.8403  0.1054
29808SOL    HW293982   2.304   3.259   9.884  0.1772 -2.3902  0.4423
29809SOL     OW93983   4.925   1.231   8.644 -0.0166  0.2502  0.5766
29809SOL    HW193984   4.879   1.173   8.583  0.9203 -1.5936  1.5415
29809SOL    HW293985   4.880   1.315   8.636  0.0995  0.1320 -2.6950
29810SOL     OW93986   9.552  11.192   9.010  0.0020  0.3108  0.1143
29810SOL    HW193987   9.514  11.154   9.090 -1.0417  0.0150 -0.5013
29810SOL    HW293988   9.585  11.117   8.961  0.1457  0.4424  0.0079
29811SOL     OW93989  10.594   9.113   7.871  0.9437 -0.3457 -0.1519
29811SOL    HW193990  10.635   9.175   7.932 -0.0304 -0.4226  0.6025
29811SOL    HW293991  10.609   9.028   7.911 -0.2228 -0.3460  0.3044
29812SOL     OW93992   6.177   6.997   7.306 -0.1083 -0.2548 -0.4159
29812SOL    HW193993   6.259   6.996   7.258  0.4538 -0.2940  0.5251
29812SOL    HW293994   6.185   7.071   7.367 -0.7977 -0.2159 -0.3614
29813SOL     OW93995   6.818   8.739   6.624 -0.4809  0.1681 -0.2476
29813SOL    HW193996   6.836   8.671   6.560 -1.1844  0.2715 -0.5614
29813SOL    HW293997   6.744   8.706   6.674 -1.1933  0.9457 -0.7706
29814SOL     OW93998  11.952   2.424   6.663  0.2365 -0.1655  0.1457
29814SOL    HW193999  11.954   2.439   6.757  1.9386  3.9622 -0.3310
29814SOL    HW294000  11.862   2.444   6.638  0.1288  0.1490  0.7571
29815SOL     OW94001   9.646   5.878  10.110  0.0785 -0.0290 -0.1420
29815SOL    HW194002   9.563   5.914  10.140 -0.8128 -0.6131 -1.7444
29815SOL    HW294003   9.621   5.807  10.051  1.5719  1.5094 -2.8765
29816SOL     OW94004   1.649   1.316  10.172 -0.0390  0.2483  0.4873
29816SOL    HW194005   1.684   1.229  10.195 -0.4392  0.0231  0.2578
29816SOL    HW294006   1.725   1.364  10.139  0.0140 -0.3112 -0.2317
29817SOL     OW94007   0.692   2.709   7.693  0.6591 -0.3314  0.0379
29817SOL    HW194008   0.619   2.765   7.669  0.7890 -0.4494 -0.6574
29817SOL    HW294009   0.661   2.659   7.767  1.0055  1.6571  1.6249
29818SOL     OW94010   9.952   3.715   6.512  0.0476  0.4905  0.1563
29818SOL    HW194011   9.927   3.804   6.490  1.3291  0.7220 -0.4546
29818SOL    HW294012  10.039   3.704   6.474 -0.0565 -1.0007  0.2641
29819SOL     OW94013   7.048   7.540   5.647  0.7282  0.0982 -0.6067
29819SOL    HW194014   7.054   7.560   5.741  1.1880 -1.6394 -0.2349
29819SOL    HW294015   6.962   7.499   5.637  0.0770  1.5448 -1.2356
29820SOL     OW94016   9.069   1.850   3.655  0.0193 -0.1006  0.2927
29820SOL    HW194017   9.093   1.915   3.589 -1.2985  0.3291  0.2171
29820SOL    HW294018   9.112   1.769   3.625 -0.0117  0.2424 -0.7198
29821SOL     OW94019   1.595  10.767   8.170  0.1598 -0.7560 -0.5503
29821SOL    HW194020   1.665  10.706   8.147  0.4610 -0.1805 -1.2109
29821SOL    HW294021   1.642  10.847   8.197 -0.2242 -0.7961  0.2493
29822SOL     OW94022   6.269   1.613   6.609 -0.1203 -0.6079 -0.1857
29822SOL    HW194023   6.225   1.686   6.653  1.4414 -0.4143  1.2091
29822SOL    HW294024   6.254   1.628   6.516 -0.4638  1.0877  0.0996
29823SOL     OW94025  11.480  11.985   9.380 -0.2359 -0.4706  0.1278
29823SOL    HW194026  11.480  11.988   9.284  0.8569  1.4107  0.1190
29823SOL    HW294027  11.495  12.076   9.406 -1.5905 -0.7624  2.1271
29824SOL     OW94028   1.290   6.530   1.585 -0.0667  0.3646 -0.5710
29824SOL    HW194029   1.370   6.486   1.615  1.3798  1.7837 -2.1511
29824SOL    HW294030   1.318   6.619   1.564 -2.4664  1.4633  0.5004
29825SOL     OW94031   1.038   0.766   0.146  0.4177 -0.1613 -0.5755
29825SOL    HW194032   1.067   0.676   0.158  1.0304  0.1976  0.8832
29825SOL    HW294033   1.117   0.818   0.160 -0.0718  0.6300 -0.7300
29826SOL     OW94034   8.254   6.943   8.772  0.1662  0.3955 -0.5591
29826SOL    HW194035   8.257   6.857   8.730  1.7041  0.4151 -0.5197
29826SOL    HW294036   8.177   6.939   8.829  0.5050 -1.1363 -0.1788
29827SOL     OW94037   5.895   0.742   3.879 -0.1016 -0.2836 -0.0136
29827SOL    HW194038   5.813   0.731   3.927 -1.2066 -1.7044 -2.0395
29827SOL    HW294039   5.934   0.654   3.879 -0.7776 -0.6824 -2.6151
29828SOL     OW94040   1.716  11.895  10.160  0.3132  0.5430 -0.0383
29828SOL    HW194041   1.621  11.888  10.161  0.2304  1.4008  1.2278
29828SOL    HW294042   1.739  11.920  10.250  1.8837 -1.3102  0.1316
29829SOL     OW94043   1.089   9.825   7.535 -0.4530 -0.2151  0.3716
29829SOL    HW194044   1.047   9.783   7.610  1.1618  0.2845  1.5992
29829SOL    HW294045   1.075   9.918   7.548 -2.0065 -0.1672 -1.1347
29830SOL     OW94046   9.740   1.033   9.641 -0.1269 -0.2321  0.2162
29830SOL    HW194047   9.686   1.060   9.566  0.1645 -1.1364 -0.3329
29830SOL    HW294048   9.733   1.106   9.703 -0.0766  0.6880 -0.8413
29831SOL     OW94049   0.506   3.804   3.398 -0.2272 -0.0413  0.1746
29831SOL    HW194050   0.416   3.813   3.429 -1.0163 -4.2393 -0.2719
29831SOL    HW294051   0.498   3.812   3.303  0.0169  0.2394  0.1769
29832SOL     OW94052   8.727   5.318   8.546 -0.0530  0.3029 -0.6369
29832SOL    HW194053   8.794   5.262   8.587  0.0009  0.3788 -0.6204
29832SOL    HW294054   8.664   5.257   8.509 -0.2579  0.2380 -0.1781
29833SOL     OW94055   4.764   0.079  11.078  0.6862 -0.3109  0.3770
29833SOL    HW194056   4.697   0.125  11.128  0.6289  0.5501 -0.4668
29833SOL    HW294057   4.726  -0.007  11.059  1.1549 -1.1275  2.7641
29834SOL     OW94058   8.467   6.437   3.626 -0.7202 -0.2867 -0.2577
29834SOL    HW194059   8.440   6.519   3.585  0.3780 -0.5332 -1.5885
29834SOL    HW294060   8.533   6.402   3.565  0.4662 -1.0470  1.3927
29835SOL     OW94061  11.296   9.128   0.538 -0.0415  0.8029 -0.3332
29835SOL    HW194062  11.341   9.196   0.487  0.2096  0.5483 -0.4490
29835SOL    HW294063  11.348   9.049   0.525  0.6124  0.9540  1.1371
29836SOL     OW94064   2.939   3.732   2.835  0.5370 -0.1655  0.1437
29836SOL    HW194065   2.931   3.785   2.914  1.7262 -0.6256  0.5984
29836SOL    HW294066   2.849   3.710   2.812  0.0754  1.1938  0.5119
29837SOL     OW94067   0.033   8.001   1.757 -0.4225  0.2682 -0.4425
29837SOL    HW194068  -0.007   8.087   1.742 -0.0221  0.8258  1.4196
29837SOL    HW294069   0.084   8.012   1.837  0.6920 -1.3703 -0.8699
29838SOL     OW94070   9.922   1.037  11.556 -0.0498  0.1480 -0.1964
29838SOL    HW194071   9.869   1.104  11.512 -1.1496 -1.0560 -0.7559
29838SOL    HW294072   9.970   1.085  11.623 -0.0214  1.6731 -1.2473
29839SOL     OW94073   7.228   7.596   7.052 -0.2097  0.2790 -0.0244
29839SOL    HW194074   7.300   7.570   7.110 -1.0037 -0.4767  0.6509
29839SOL    HW294075   7.149   7.585   7.105 -0.8900  0.3952 -0.9814
29840SOL     OW94076   0.864   9.043  11.319 -0.2769  0.4784  0.3147
29840SOL    HW194077   0.831   9.034  11.409  0.3775  1.7781  0.7077
29840SOL    HW294078   0.835   9.130  11.292  2.9543  1.8258  0.7753
29841SOL     OW94079   8.862   3.447   0.613  0.2593  0.0761  0.1781
29841SOL    HW194080   8.834   3.499   0.688  0.3639  2.1317 -1.1429
29841SOL    HW294081   8.891   3.511   0.548 -0.4841 -1.5701 -1.9133
29842SOL     OW94082   9.203   6.088   6.327 -0.4454 -0.3788  0.7826
29842SOL    HW194083   9.226   6.115   6.238  0.7009  1.6109  1.6246
29842SOL    HW294084   9.180   5.995   6.318  0.2000 -0.3931 -1.4680
29843SOL     OW94085   2.717   0.740   1.787 -0.2776 -0.0221 -0.4069
29843SOL    HW194086   2.793   0.711   1.837 -1.0130  1.3826  1.6729
29843SOL    HW294087   2.737   0.831   1.764 -1.6402  0.6605  0.9462
29844SOL     OW94088   0.580   0.748   4.937  0.0153  0.4352 -0.5680
29844SOL    HW194089   0.572   0.666   4.888 -0.9571  0.2491 -0.1143
29844SOL    HW294090   0.632   0.725   5.014 -0.9466  0.0323 -0.0177
29845SOL     OW94091  10.911   9.136   5.145  0.6892 -0.0368 -0.5629
29845SOL    HW194092  10.962   9.148   5.066  1.7380  1.7252  0.3415
29845SOL    HW294093  10.973   9.103   5.210  0.1028 -0.3239 -0.1303
29846SOL     OW94094   0.763   0.260   2.029 -0.2247 -0.1170 -0.3775
29846SOL    HW194095   0.807   0.345   2.036 -0.6929  0.0503  0.8402
29846SOL    HW294096   0.687   0.277   1.973  0.3712 -0.0350 -1.1708
29847SOL     OW94097  10.935   7.572  10.151  0.6566  0.2737  0.0260
29847SOL    HW194098  10.991   7.546  10.224  1.0002  0.6551 -0.0987
29847SOL    HW294099  10.847   7.546  10.178  0.4076  2.4446  1.5960
29848SOL     OW94100  11.537   1.993   5.614  0.2897 -0.2369 -0.0293
29848SOL    HW194101  11.549   2.087   5.601  1.9201 -0.4255 -0.1660
29848SOL    HW294102  11.504   1.962   5.530 -1.9727  0.4206  0.5454
29849SOL     OW94103  12.059  10.884   8.441  0.0382 -0.7138 -0.2426
29849SOL    HW194104  12.151  10.911   8.443  0.9891 -3.6031  0.2925
29849SOL    HW294105  12.017  10.947   8.383  2.3154  0.7859 -0.4042
29850SOL     OW94106   0.826   8.265   0.600 -0.1757 -0.1707  0.2041
29850SOL    HW194107   0.912   8.256   0.558  0.1746 -0.7404  1.0211
29850SOL    HW294108   0.828   8.352   0.641 -0.3506  0.2012 -0.5626
29851SOL     OW94109   0.257   7.804  11.861  0.2127 -0.8762  0.4474
29851SOL    HW194110   0.250   7.881  11.804  1.4711 -0.9334  0.1858
29851SOL    HW294111   0.225   7.731  11.807 -1.4013 -0.4885  0.8478
29852SOL     OW94112   1.080   7.036   5.193 -0.0152 -0.6967  0.0362
29852SOL    HW194113   1.112   7.118   5.230  0.3536 -1.1766  0.7915
29852SOL    HW294114   0.987   7.053   5.173  0.0964 -0.0576  0.0571
29853SOL     OW94115   9.926  11.786   9.811 -0.2497 -0.2545  0.3802
29853SOL    HW194116   9.849  11.730   9.809  0.5761 -1.4100 -0.9093
29853SOL    HW294117   9.911  11.851   9.743 -0.6310  0.2942  0.9846
29854SOL     OW94118   7.460  10.295   9.309 -0.5907 -0.2343  0.4492
29854SOL    HW194119   7.526  10.315   9.376  0.1169  0.1337 -0.3389
29854SOL    HW294120   7.423  10.380   9.285 -0.4554 -0.2996 -0.0057
29855SOL     OW94121   1.308   9.704   6.835 -0.0632  0.5655 -0.6465
29855SOL    HW194122   1.216   9.695   6.811  0.1346  0.9602 -1.6100
29855SOL    HW294123   1.314   9.669   6.923 -1.0767  0.2412 -0.7007
29856SOL     OW94124   2.164   9.440   1.746 -0.2928  0.1979 -0.1861
29856SOL    HW194125   2.236   9.416   1.803 -1.3028  0.9709  1.4752
29856SOL    HW294126   2.090   9.389   1.777 -0.4547 -0.8138 -2.0559
29857SOL     OW94127   1.254   0.988   7.254  0.1814  0.2546  0.0993
29857SOL    HW194128   1.276   1.079   7.234  0.0659  0.1567 -0.5071
29857SOL    HW294129   1.293   0.938   7.182  1.5258 -0.3327  1.1908
29858SOL     OW94130   8.813   2.243   0.611 -0.6379  0.4424  0.0363
29858SOL    HW194131   8.823   2.293   0.692 -0.6508 -1.0361  0.9908
29858SOL    HW294132   8.902   2.214   0.590 -0.7541  0.0766  0.0352
29859SOL     OW94133   1.109  10.545  11.384  0.4535  0.0297 -0.1188
29859SOL    HW194134   1.149  10.458  11.390  1.5307  0.5923  1.2306
29859SOL    HW294135   1.032  10.540  11.441  1.8126  0.6088  1.8663
29860SOL     OW94136   3.270   1.176   0.170  0.0774  0.1507  0.2175
29860SOL    HW194137   3.344   1.115   0.180  0.2369  0.4462  0.9238
29860SOL    HW294138   3.220   1.166   0.251 -0.7226 -0.1147 -0.2995
29861SOL     OW94139   1.033   9.772   6.902  0.2337 -1.0466 -0.3170
29861SOL    HW194140   1.017   9.682   6.873  0.6658 -0.2645 -3.2478
29861SOL    HW294141   0.949   9.800   6.939 -0.2285 -2.2841 -0.3705
29862SOL     OW94142   9.907   3.083   2.991 -0.1356 -0.1057  0.1993
29862SOL    HW194143   9.991   3.126   2.973  0.0833 -0.0799  1.2566
29862SOL    HW294144   9.928   3.016   3.055 -0.9191 -0.1342  0.4302
29863SOL     OW94145   0.078   5.411  12.102  0.0398  0.0102  0.0197
29863SOL    HW194146   0.005   5.398  12.163  0.0000 -1.7706 -0.3438
29863SOL    HW294147   0.142   5.344  12.127  0.6767  0.2448 -0.9300
29864SOL     OW94148   3.077   8.242   5.925 -0.1423  0.4819  0.2606
29864SOL    HW194149   3.122   8.244   5.840 -0.4714  3.5321  0.0276
29864SOL    HW294150   3.006   8.180   5.913 -2.0008  2.8536 -2.8349
29865SOL     OW94151   3.913   2.245   0.724 -0.2476  0.0526  0.2907
29865SOL    HW194152   3.876   2.190   0.655 -1.5549  1.3598 -0.1149
29865SOL    HW294153   4.004   2.257   0.699 -0.5505  0.0092 -0.9022
29866SOL     OW94154   6.696   1.374   6.087  0.1517  0.1618  0.1055
29866SOL    HW194155   6.603   1.351   6.084 -0.0127  0.3426  2.1931
29866SOL    HW294156   6.732   1.337   6.007 -1.5673 -0.6047 -0.3688
29867SOL     OW94157  11.106   6.549  11.445 -0.0906  0.5345 -0.0550
29867SOL    HW194158  11.090   6.493  11.521  0.1599  1.5925  0.8044
29867SOL    HW294159  11.039   6.523  11.382 -1.8621  1.2488  1.4442
29868SOL     OW94160   6.859   8.350   8.520 -0.1106 -0.2899 -0.4987
29868SOL    HW194161   6.778   8.311   8.554 -0.2492 -0.1976 -0.7145
29868SOL    HW294162   6.929   8.311   8.571 -0.3575  0.3469  0.3466
29869SOL     OW94163  11.735  10.588   1.985 -0.0022 -0.3445  0.0809
29869SOL    HW194164  11.644  10.583   1.957  0.6196 -1.3335 -2.0120
29869SOL    HW294165  11.753  10.502   2.023 -0.4896  0.5807  2.5720
29870SOL     OW94166   6.702  11.989   8.899 -0.5283 -0.4512  0.2707
29870SOL    HW194167   6.612  12.017   8.884 -0.1189  2.4014  2.4108
29870SOL    HW294168   6.755  12.066   8.878  1.1398 -1.0896  1.9183
29871SOL     OW94169  11.018   2.557   9.661 -0.3331  0.4489  0.0012
29871SOL    HW194170  11.055   2.540   9.574 -2.5865 -2.0877 -0.5952
29871SOL    HW294171  11.004   2.651   9.664  1.4090  0.8248 -1.6389
29872SOL     OW94172   2.472   8.298   0.380  0.1054 -0.2550  0.0076
29872SOL    HW194173   2.460   8.329   0.470  1.4853  0.4566 -0.0244
29872SOL    HW294174   2.494   8.377   0.331 -0.4235 -0.6766 -0.9153
29873SOL     OW94175   3.496   6.558  10.200  0.1093  0.1352 -0.3210
29873SOL    HW194176   3.442   6.551  10.279  2.7076  3.3076  1.9812
29873SOL    HW294177   3.551   6.480  10.201 -1.1341 -0.7632 -0.0860
29874SOL     OW94178   4.125   5.245   8.069  0.4029  0.5302  0.0815
29874SOL    HW194179   4.092   5.324   8.028  1.9551  0.8065 -0.7109
29874SOL    HW294180   4.187   5.209   8.006  1.1714 -0.2534  1.2323
29875SOL     OW94181  10.662   0.335   4.821 -0.0029 -0.0402  0.8758
29875SOL    HW194182  10.576   0.341   4.862  0.5544  1.3578  1.9259
29875SOL    HW294183  10.708   0.414   4.849  1.3859 -0.3951 -0.2463
29876SOL     OW94184   0.123   0.729   0.155  0.0493 -0.2909  0.1014
29876SOL    HW194185   0.170   0.771   0.227  0.8871  0.4177 -0.8364
29876SOL    HW294186   0.188   0.721   0.085 -0.8378 -0.6546 -0.6997
29877SOL     OW94187   7.191   1.871   9.557 -0.7562  0.0671 -0.3841
29877SOL    HW194188   7.120   1.907   9.610 -0.9417 -1.1496  0.2445
29877SOL    HW294189   7.213   1.788   9.600  1.2086  0.5272 -0.4248
29878SOL     OW94190   7.547   6.992   9.488 -0.5191 -0.2482  0.2638
29878SOL    HW194191   7.614   7.047   9.527 -0.3052 -0.6126  0.4109
29878SOL    HW294192   7.515   7.043   9.413  0.6876 -0.5204 -0.4742
29879SOL     OW94193   1.755   4.523   6.990  0.6855  0.0078  0.5030
29879SOL    HW194194   1.766   4.616   6.968 -1.0317  0.0419 -0.3414
29879SOL    HW294195   1.779   4.476   6.910  0.8939 -0.2522  0.7142
29880SOL     OW94196   0.355   7.097  10.194 -0.5185 -0.2695 -0.1587
29880SOL    HW194197   0.350   7.034  10.266  0.2945 -0.2194 -0.0529
29880SOL    HW294198   0.264   7.115  10.172 -0.7809 -1.9934 -0.6396
29881SOL     OW94199  10.208  10.377   1.381 -0.7259  0.3405  0.6807
29881SOL    HW194200  10.152  10.310   1.343 -1.8757  1.7336 -0.1789
29881SOL    HW294201  10.251  10.418   1.306  0.2152  0.3568  1.2168
29882SOL     OW94202   1.315   6.058   2.395  0.0507 -0.9717  0.1462
29882SOL    HW194203   1.346   5.982   2.444  3.1943  0.0134 -0.0523
29882SOL    HW294204   1.279   6.117   2.461 -0.6441 -1.8401  0.5480
29883SOL     OW94205  10.893  11.734   5.309  0.0470  0.3360  0.1272
29883SOL    HW194206  10.816  11.723   5.364  0.6091  0.2538  0.9240
29883SOL    HW294207  10.915  11.645   5.280  0.5841  0.1779  0.9640
29884SOL     OW94208   1.227   5.195  10.172 -0.3664  0.4790  0.0447
29884SOL    HW194209   1.184   5.148  10.101  0.4288 -1.3319  0.7299
29884SOL    HW294210   1.261   5.275  10.131 -0.4999 -0.2067 -1.4405
29885SOL     OW94211  11.559  10.240   7.109 -0.2457 -0.2352  0.3288
29885SOL    HW194212  11.642  10.199   7.136  0.5674  1.1777  0.0511
29885SOL    HW294213  11.523  10.275   7.190  0.1101  0.3388  0.2417
29886SOL     OW94214   9.305   5.226   9.157 -0.7274 -0.2540  0.3564
29886SOL    HW194215   9.279   5.309   9.199  0.0941 -0.7943  2.0193
29886SOL    HW294216   9.261   5.159   9.208 -2.9461 -0.8762 -2.1270
29887SOL     OW94217   8.212   5.357   0.952 -0.7797  0.0503  0.4210
29887SOL    HW194218   8.150   5.425   0.928 -0.2572  0.5184  0.3756
29887SOL    HW294219   8.179   5.322   1.034 -0.9589  0.4793  0.5344
29888SOL     OW94220   1.599   3.743  11.568 -0.1487 -0.2163 -0.1408
29888SOL    HW194221   1.505   3.738  11.587 -0.3682 -0.7105 -1.2652
29888SOL    HW294222   1.634   3.801  11.635 -1.6000  1.5279 -0.8067
29889SOL     OW94223   1.319   8.877   5.969 -0.1289 -0.6729 -0.2171
29889SOL    HW194224   1.366   8.855   5.889 -0.6034 -0.1979 -0.6286
29889SOL    HW294225   1.309   8.793   6.014  2.1974 -0.6395  0.4972
29890SOL     OW94226  10.737   6.405   5.889  0.2647  0.5665  0.1482
29890SOL    HW194227  10.809   6.435   5.833 -1.0370  1.6243 -1.0548
29890SOL    HW294228  10.710   6.483   5.937 -1.8314  0.9410 -1.4894
29891SOL     OW94229   1.642   4.329   5.272 -0.1362 -0.2337  0.0983
29891SOL    HW194230   1.667   4.274   5.198  1.1203  1.5714 -0.8970
29891SOL    HW294231   1.559   4.369   5.246 -0.2086 -0.3688  0.1174
29892SOL     OW94232  11.055   2.700   5.990 -0.4190  0.5048 -0.5960
29892SOL    HW194233  11.117   2.687   6.061  0.7469 -1.0776 -1.8253
29892SOL    HW294234  11.085   2.779   5.946 -0.3890  0.7776 -0.0926
29893SOL     OW94235   6.025  10.936   3.029  0.9576  0.0528  0.1697
29893SOL    HW194236   6.092  10.886   2.983  0.8912  1.3349 -1.3974
29893SOL    HW294237   5.949  10.935   2.971  0.1807  0.0415  1.1601
29894SOL     OW94238   6.436   1.144   9.268  0.2281  0.0605  0.1351
29894SOL    HW194239   6.504   1.166   9.204  0.0853  0.9002  0.2491
29894SOL    HW294240   6.481   1.147   9.353  0.2063 -0.0924  0.1519
29895SOL     OW94241   5.525  10.775   4.967  0.3445  0.0775 -0.2325
29895SOL    HW194242   5.462  10.778   5.039 -1.0120 -0.4601 -1.3460
29895SOL    HW294243   5.609  10.758   5.009  0.0026  2.0745  1.4335
29896SOL     OW94244  10.676   9.759   7.822 -0.3817 -0.0238 -0.0092
29896SOL    HW194245  10.767   9.753   7.791  0.0074 -4.5860  1.2599
29896SOL    HW294246  10.624   9.741   7.744  0.0099 -0.6499 -0.1350
29897SOL     OW94247   8.933   2.950   1.282 -0.8275 -0.3950 -0.5178
29897SOL    HW194248   8.853   3.003   1.285 -0.9015 -0.5174 -0.3276
29897SOL    HW294249   8.963   2.948   1.373 -1.2678 -1.3576 -0.3901
29898SOL     OW94250  11.787   7.435   2.480  0.1547  0.4707 -0.0432
29898SOL    HW194251  11.781   7.379   2.402  0.2321  1.1652 -0.5626
29898SOL    HW294252  11.747   7.383   2.550 -1.3940  0.4469 -0.8902
29899SOL     OW94253   0.985   9.880   0.938  0.5686  0.3513 -0.5221
29899SOL    HW194254   1.070   9.923   0.933  1.6904 -1.7939 -1.0561
29899SOL    HW294255   0.970   9.847   0.850  0.6233 -1.8185  0.2162
29900SOL     OW94256   3.950   9.039   3.213  0.2121 -0.1291  0.1580
29900SOL    HW194257   3.879   8.981   3.241 -0.0077 -0.4517 -0.9991
29900SOL    HW294258   3.906   9.108   3.163  0.6138  0.2396  0.3080
29901SOL     OW94259   7.028   2.779   1.478 -0.0702 -0.2544  0.3985
29901SOL    HW194260   7.058   2.786   1.568  0.2291 -2.1145  0.4701
29901SOL    HW294261   7.074   2.850   1.432  0.8474 -0.1568  1.4290
29902SOL     OW94262   9.220   1.599  11.640  0.1202 -0.1841  0.1022
29902SOL    HW194263   9.266   1.660  11.697 -0.1426  0.1259 -0.0161
29902SOL    HW294264   9.157   1.556  11.698 -2.7453  2.7111 -0.5687
29903SOL     OW94265  11.664   8.750  10.825  0.1896 -0.4683  0.5379
29903SOL    HW194266  11.668   8.791  10.738 -0.1686 -0.4898  0.5090
29903SOL    HW294267  11.718   8.806  10.880  0.1243 -0.2472  0.3806
29904SOL     OW94268   5.789   6.447   0.918 -0.0717  0.5115  0.6044
29904SOL    HW194269   5.774   6.369   0.865 -1.4154  0.8793  0.4100
29904SOL    HW294270   5.788   6.415   1.008 -1.2436  0.3798  0.5559
29905SOL     OW94271   5.926   4.359  10.496  0.0464  0.3393  0.8664
29905SOL    HW194272   5.878   4.276  10.487  0.9620 -0.0461 -1.3624
29905SOL    HW294273   5.861   4.421  10.529 -1.5918 -0.5457 -0.4823
29906SOL     OW94274  10.097   1.391   9.617  0.1897 -0.5949 -0.3490
29906SOL    HW194275  10.129   1.474   9.654 -0.8014 -0.2274 -0.2954
29906SOL    HW294276  10.002   1.397   9.623  0.0993 -2.4393  1.2190
29907SOL     OW94277   5.827   9.061   5.701 -0.0253 -0.6795 -0.3213
29907SOL    HW194278   5.843   9.065   5.795  0.2078 -0.7889 -0.3549
29907SOL    HW294279   5.733   9.079   5.691  0.2637  1.0975 -0.2022
29908SOL     OW94280   5.762   7.885   7.325  0.4841  0.4000 -0.0332
29908SOL    HW194281   5.788   7.854   7.411 -0.8020 -1.5826 -0.2896
29908SOL    HW294282   5.678   7.842   7.308 -0.0611  1.9498 -1.6442
29909SOL     OW94283   4.669  11.969  11.264 -0.1144  0.8024 -0.3615
29909SOL    HW194284   4.675  11.953  11.170 -1.6355  1.1205 -0.5387
29909SOL    HW294285   4.714  12.052  11.277 -1.9175  1.9687 -1.2113
29910SOL     OW94286   3.096   6.700  11.075 -0.4466 -0.1180 -0.5324
29910SOL    HW194287   3.151   6.725  11.150 -1.5553  2.0767 -0.3741
29910SOL    HW294288   3.140   6.738  10.999 -0.9179  0.2932 -0.6017
29911SOL     OW94289   2.862   2.088   0.232  0.2594 -0.2624  0.1140
29911SOL    HW194290   2.843   2.013   0.176 -2.0224  0.1810  0.1738
29911SOL    HW294291   2.795   2.085   0.300 -0.0623  1.9158 -0.0183
29912SOL     OW94292   1.684   8.493   9.935  0.2151 -0.3682  0.3555
29912SOL    HW194293   1.669   8.539   9.853 -0.4953  0.0011  0.6894
29912SOL    HW294294   1.618   8.424   9.936 -0.3793  0.1964  1.0330
29913SOL     OW94295   6.350   1.903   6.788  0.1096  0.5017  0.4648
29913SOL    HW194296   6.303   1.978   6.823  0.5361  0.8809  0.2391
29913SOL    HW294297   6.372   1.850   6.865 -1.3364 -0.0783  0.5091
29914SOL     OW94298   6.499   2.130   3.501  0.4774  0.6986 -0.5133
29914SOL    HW194299   6.489   2.073   3.577 -1.6030  2.4800  0.6670
29914SOL    HW294300   6.583   2.175   3.516  1.9891 -1.6847 -1.3136
29915SOL     OW94301  10.196   1.227   3.015  0.2031 -0.3514  0.0022
29915SOL    HW194302  10.249   1.155   2.980 -0.8682 -1.0695 -0.2012
29915SOL    HW294303  10.195   1.292   2.945  0.3972 -0.5614 -0.1964
29916SOL     OW94304   4.147   6.114   8.399 -0.4259  0.0337  0.0513
29916SOL    HW194305   4.209   6.181   8.430 -3.0639  1.8157  1.9541
29916SOL    HW294306   4.157   6.042   8.461  0.5270 -0.1931 -0.3554
29917SOL     OW94307  11.091   7.498   2.680 -0.3793 -0.2894  0.1972
29917SOL    HW194308  11.111   7.589   2.658  1.4884 -0.7289 -0.0987
29917SOL    HW294309  11.080   7.498   2.776 -2.4171  0.5512  0.0194
29918SOL     OW94310  12.074   4.816   9.074 -0.0591 -0.0877  0.6452
29918SOL    HW194311  12.091   4.734   9.120  1.9159 -0.4282 -0.6075
29918SOL    HW294312  11.995   4.798   9.023 -0.8895 -0.4639  1.9788
29919SOL     OW94313   1.436   4.130  11.574 -0.0355  0.1264  0.2788
29919SOL    HW194314   1.373   4.163  11.510 -0.2603  0.6983  0.7791
29919SOL    HW294315   1.514   4.184  11.562  1.7169 -2.7632 -2.6802
29920SOL     OW94316   0.571   1.168   5.884 -0.4908  0.3245 -0.5855
29920SOL    HW194317   0.531   1.154   5.970  0.2323  0.1958 -0.2619
29920SOL    HW294318   0.628   1.244   5.897  1.7090 -1.2969 -0.2021
29921SOL     OW94319   3.841   3.628   9.267  0.1207 -0.0862 -0.5348
29921SOL    HW194320   3.756   3.669   9.253  0.8361  1.8456  0.4162
29921SOL    HW294321   3.858   3.579   9.186 -1.0726  0.9785 -1.4633
29922SOL     OW94322  10.820   2.621  11.835  0.4847  0.0494 -0.3627
29922SOL    HW194323  10.833   2.715  11.833  0.0579  0.1106 -0.3750
29922SOL    HW294324  10.820   2.594  11.743  1.6924 -0.1237 -0.3269
29923SOL     OW94325   0.516   0.568   2.399 -0.2975 -0.3077  0.1169
29923SOL    HW194326   0.464   0.578   2.319 -0.5225 -0.1188  0.2826
29923SOL    HW294327   0.593   0.623   2.385 -0.4971 -0.0103  0.1591
29924SOL     OW94328   2.061   4.997  10.607  0.0912 -0.6489 -1.0517
29924SOL    HW194329   2.088   5.088  10.592  0.5732 -0.9179 -1.8732
29924SOL    HW294330   1.984   4.985  10.552  0.0539 -0.7523 -0.9785
29925SOL     OW94331  10.804   0.568  11.404 -0.1014  0.2046 -0.2067
29925SOL    HW194332  10.726   0.590  11.455  1.4479 -0.9317  2.8848
29925SOL    HW294333  10.772   0.503  11.340 -1.6251 -0.6475  1.3291
29926SOL     OW94334   0.518  11.274   1.783 -0.5713  0.0988  0.4658
29926SOL    HW194335   0.590  11.298   1.725  1.7331  0.7567  3.3580
29926SOL    HW294336   0.486  11.190   1.749  2.3897 -0.8235 -0.2801
29927SOL     OW94337   3.297   6.777   5.665  0.0441 -0.0013  0.6080
29927SOL    HW194338   3.319   6.751   5.754 -0.3925 -2.2388  0.1036
29927SOL    HW294339   3.354   6.724   5.609  1.1067  2.1351 -0.4970
29928SOL     OW94340   2.620   3.856   3.627 -0.3175 -0.0707 -0.1739
29928SOL    HW194341   2.701   3.871   3.578 -0.8202 -0.9352 -1.3168
29928SOL    HW294342   2.632   3.770   3.668 -1.0705 -0.7181 -1.2639
29929SOL     OW94343   5.958   4.032   5.823 -0.2075  0.2050 -0.0174
29929SOL    HW194344   5.888   3.967   5.831  1.6022 -1.9475 -0.3470
29929SOL    HW294345   5.998   4.012   5.738  1.8687  0.1428  0.9092
29930SOL     OW94346   6.845   6.464   8.218 -0.2351 -0.2185 -0.7428
29930SOL    HW194347   6.933   6.444   8.250 -0.8905 -1.4935  0.3813
29930SOL    HW294348   6.859   6.510   8.135  1.4847  0.3973 -0.1429
29931SOL     OW94349   5.073   1.566  10.709  0.4465 -0.1862 -0.9146
29931SOL    HW194350   5.067   1.488  10.764  2.6687  0.5204  0.4570
29931SOL    HW294351   4.986   1.605  10.712  0.2221 -0.7326  1.2815
29932SOL     OW94352   7.046   4.312   9.145  0.3422  0.1234  0.2877
29932SOL    HW194353   7.097   4.290   9.066 -0.0196  0.4797 -0.0523
29932SOL    HW294354   7.111   4.344   9.207  0.5844  0.2015 -0.0019
29933SOL     OW94355   1.323   5.372   4.367  0.0687  0.2472  0.0797
29933SOL    HW194356   1.339   5.426   4.444  1.6706 -0.4865  0.2997
29933SOL    HW294357   1.278   5.295   4.401 -3.6364  1.9785 -0.4379
29934SOL     OW94358   8.753  11.615   5.633  0.3067 -0.2323  0.0389
29934SOL    HW194359   8.744  11.657   5.548 -1.4418  1.9180  1.1715
29934SOL    HW294360   8.812  11.673   5.682 -0.8340  0.0654  1.1112
29935SOL     OW94361   2.091   9.864   2.970 -0.3232  0.6233  0.3998
29935SOL    HW194362   2.164   9.919   2.998  0.5029 -0.0511 -0.3744
29935SOL    HW294363   2.093   9.868   2.875  1.2153 -2.5045  0.1651
29936SOL     OW94364   4.070  10.022   2.288  0.6160  0.1107 -0.4557
29936SOL    HW194365   4.125  10.087   2.245 -1.0157  2.0448  0.2352
29936SOL    HW294366   4.108  10.012   2.376 -0.2165  1.6503  0.1188
29937SOL     OW94367   7.616   8.066   6.219 -0.3139  0.4442 -1.0148
29937SOL    HW194368   7.582   8.054   6.131 -1.3930 -1.5626 -0.3955
29937SOL    HW294369   7.590   7.986   6.266  1.2399  0.9229  0.8020
29938SOL     OW94370   6.495   7.961   1.781 -0.2865  0.0404 -0.0486
29938SOL    HW194371   6.472   8.050   1.754 -0.0370 -0.3818 -1.7335
29938SOL    HW294372   6.418   7.930   1.828 -0.2363  1.2517  0.8965
29939SOL     OW94373   5.013   6.828   6.849 -0.1255  0.1636  0.4268
29939SOL    HW194374   5.088   6.769   6.854 -0.0104  0.3576  1.2557
29939SOL    HW294375   4.948   6.781   6.798  0.4196 -0.1705  0.0396
29940SOL     OW94376   4.856   5.758  10.303  0.2578  0.2364  0.1791
29940SOL    HW194377   4.933   5.728  10.255 -0.3585 -0.0840 -0.6319
29940SOL    HW294378   4.889   5.779  10.391  1.5103  1.4074 -0.5367
29941SOL     OW94379   2.905   7.243  10.865  0.2267  0.4405  0.3899
29941SOL    HW194380   2.810   7.251  10.852  0.4099  1.1641 -0.5934
29941SOL    HW294381   2.943   7.289  10.790  1.3609 -0.4387  0.4181
29942SOL     OW94382   2.826   8.272   3.455  0.1258  0.4945  0.0935
29942SOL    HW194383   2.876   8.272   3.373  0.8940  1.3712  0.5341
29942SOL    HW294384   2.820   8.365   3.478 -0.8989  0.3190  0.5525
29943SOL     OW94385   5.171   6.327   7.894 -0.6567 -0.0316  0.1756
29943SOL    HW194386   5.242   6.264   7.890  0.4305  1.1036  0.9620
29943SOL    HW294387   5.178   6.376   7.812 -0.5591  0.0588  0.2383
29944SOL     OW94388   4.138   3.480   5.752 -0.1076  0.5165  0.2155
29944SOL    HW194389   4.069   3.427   5.713  1.1382  0.2928 -1.8347
29944SOL    HW294390   4.193   3.417   5.799  0.6714  0.1114 -1.1752
29945SOL     OW94391   8.384   3.842  12.071  0.2058  0.1641 -0.2598
29945SOL    HW194392   8.352   3.913  12.014  1.2704  2.5849  1.9333
29945SOL    HW294393   8.477   3.834  12.049  0.1438 -0.4092 -0.3245
29946SOL     OW94394   8.054  10.969   4.889  0.0638 -0.1818  0.6869
29946SOL    HW194395   8.053  11.041   4.952 -0.8401 -0.4855  1.0273
29946SOL    HW294396   7.978  10.984   4.833  0.8272  0.0559 -0.3160
29947SOL     OW94397   5.174   7.654   1.144 -0.3313  0.2465 -0.2976
29947SOL    HW194398   5.246   7.643   1.081  0.0534 -1.0353  0.3198
29947SOL    HW294399   5.100   7.684   1.091  0.0710 -0.4859 -1.3175
29948SOL     OW94400   2.561   7.090  10.526  0.3815 -0.7369  0.0977
29948SOL    HW194401   2.509   7.092  10.607 -0.5972  0.4489 -0.5231
29948SOL    HW294402   2.587   6.998  10.517 -2.1445 -1.5359  0.1314
29949SOL     OW94403   5.310   9.419   6.472 -0.1043  0.5116  0.7885
29949SOL    HW194404   5.216   9.435   6.482 -0.6690 -1.8310 -0.2504
29949SOL    HW294405   5.343   9.412   6.562 -1.2885 -0.5004  1.1589
29950SOL     OW94406   8.679   9.378   1.837  0.0255 -0.9847  0.6674
29950SOL    HW194407   8.596   9.400   1.879 -0.7063 -1.7733 -0.3010
29950SOL    HW294408   8.736   9.452   1.856 -0.7003 -0.7101  1.8781
29951SOL     OW94409   8.876   7.134   3.789  0.2240  0.6804  0.2503
29951SOL    HW194410   8.795   7.108   3.744  0.8286 -3.2011  1.0906
29951SOL    HW294411   8.849   7.148   3.879  0.0775  2.2571 -0.0093
29952SOL     OW94412   7.717   8.588   0.406 -0.5788 -0.2726 -0.1002
29952SOL    HW194413   7.764   8.659   0.363 -1.8646  1.0792  0.6790
29952SOL    HW294414   7.786   8.524   0.428  0.8104  1.3327  0.3942
29953SOL     OW94415  11.475   6.208   2.595  0.7760 -0.0765  0.0818
29953SOL    HW194416  11.539   6.276   2.570 -0.0119  0.5096 -0.3823
29953SOL    HW294417  11.394   6.256   2.612  0.5332 -0.7775  1.0065
29954SOL     OW94418   6.077  11.527   1.973  0.0363  0.2567  0.1450
29954SOL    HW194419   6.093  11.487   2.058  0.7776 -0.8694 -0.5036
29954SOL    HW294420   6.065  11.453   1.913  0.5099  1.0117 -0.9133
29955SOL     OW94421  10.436   4.125  10.409 -0.1486 -0.3606 -0.2008
29955SOL    HW194422  10.376   4.175  10.353  1.0839 -1.1238 -2.3074
29955SOL    HW294423  10.409   4.147  10.498 -0.7447  2.7485 -1.0190
29956SOL     OW94424   0.718   2.183   2.650  0.6257  0.4158 -0.0469
29956SOL    HW194425   0.804   2.180   2.608  0.4008 -2.9210 -0.5688
29956SOL    HW294426   0.734   2.148   2.738 -0.3352 -1.5792 -0.6158
29957SOL     OW94427   9.848   5.890  10.880  0.2101  0.2043 -0.4067
29957SOL    HW194428   9.812   5.873  10.967 -0.5968 -0.9242 -0.9408
29957SOL    HW294429   9.937   5.920  10.897 -0.0196  0.2665  0.8200
29958SOL     OW94430  11.044   8.852   4.275  0.0351  0.0542  0.1163
29958SOL    HW194431  11.067   8.789   4.206 -0.2086  0.9824 -0.8288
29958SOL    HW294432  11.091   8.932   4.252 -0.2470  0.4559  0.8944
29959SOL     OW94433   9.036   2.147   0.848 -0.4102 -0.1853 -0.1209
29959SOL    HW194434   9.029   2.073   0.787 -2.0683 -1.4006  1.4459
29959SOL    HW294435   8.953   2.194   0.837  0.1061  0.7208 -0.1875
29960SOL     OW94436   7.697   2.896  10.637  0.5413  0.4072  0.2937
29960SOL    HW194437   7.743   2.812  10.647 -1.8175 -1.3852 -2.1470
29960SOL    HW294438   7.763   2.956  10.602  1.9570 -0.8546  0.7030
29961SOL     OW94439   4.830  11.015   5.933  0.2373  0.5150  0.8669
29961SOL    HW194440   4.772  10.951   5.975 -0.9376  1.3180  0.5299
29961SOL    HW294441   4.881  10.963   5.870  0.2743 -0.3022  1.5570
29962SOL     OW94442  10.745  11.833   0.323  0.0555 -0.1583 -0.1828
29962SOL    HW194443  10.711  11.837   0.234  0.2455  0.7373 -0.2241
29962SOL    HW294444  10.670  11.806   0.376 -1.1571  3.0082 -0.0972
29963SOL     OW94445   5.112   7.859   9.062  0.2849  0.7580 -0.4772
29963SOL    HW194446   5.161   7.815   9.131 -1.1968  0.7855  0.6317
29963SOL    HW294447   5.071   7.934   9.105  0.0094  1.2679 -1.5787
29964SOL     OW94448  12.041   7.794   8.220  0.0085 -0.2509  0.1652
29964SOL    HW194449  11.990   7.855   8.166 -2.5547 -2.4769 -0.1840
29964SOL    HW294450  12.105   7.756   8.160  0.8850  1.2131  0.1268
29965SOL     OW94451   0.221   0.630  10.929  0.4276 -0.4083 -0.1287
29965SOL    HW194452   0.139   0.587  10.954 -0.3691  1.3898  0.4658
29965SOL    HW294453   0.208   0.722  10.952  2.0143  0.2035 -1.4912
29966SOL     OW94454   2.616   8.305   1.322 -0.4071  0.3829  0.2996
29966SOL    HW194455   2.568   8.282   1.401 -1.2012  0.8735 -0.0289
29966SOL    HW294456   2.653   8.391   1.340  0.4988 -0.0615  0.6099
29967SOL     OW94457   8.726   6.138   1.822 -0.1623 -0.2535 -0.3990
29967SOL    HW194458   8.663   6.165   1.889 -0.6359 -0.9873 -0.5371
29967SOL    HW294459   8.763   6.056   1.855  0.9502  0.3311 -0.1778
29968SOL     OW94460  11.381   8.704   8.020 -0.2391 -0.4719 -0.5565
29968SOL    HW194461  11.306   8.751   7.983 -0.9151 -1.8289 -0.9695
29968SOL    HW294462  11.376   8.722   8.114  0.1188  1.0846 -0.8120
29969SOL     OW94463  11.577   4.939   3.612  0.5556  0.1926 -0.1915
29969SOL    HW194464  11.501   4.934   3.555  1.7774  2.5157 -2.2131
29969SOL    HW294465  11.652   4.934   3.553  1.9719  0.0493  1.5189
29970SOL     OW94466  11.117   1.466   3.043  0.4334 -0.2769  0.1575
29970SOL    HW194467  11.144   1.474   2.952 -2.3398  1.2492 -0.6466
29970SOL    HW294468  11.099   1.373   3.055 -0.4072 -0.3317 -1.2818
29971SOL     OW94469   8.390   8.988   7.294 -0.1582 -0.0759 -0.2204
29971SOL    HW194470   8.421   8.903   7.263 -1.3418 -0.7338  0.3290
29971SOL    HW294471   8.465   9.025   7.340  0.6931 -0.3538 -1.3306
29972SOL     OW94472  10.056  11.342   9.659 -0.0735 -0.5461 -0.0104
29972SOL    HW194473   9.972  11.323   9.703 -1.5125  0.8632 -1.9829
29972SOL    HW294474  10.064  11.273   9.593 -0.1393 -0.1723 -0.4123
29973SOL     OW94475   1.105   4.252   7.752 -0.1000  0.1881 -0.5486
29973SOL    HW194476   1.198   4.235   7.737 -0.1238  0.1169 -0.6106
29973SOL    HW294477   1.103   4.293   7.839 -0.1371 -1.0098  0.0420
29974SOL     OW94478   7.901   2.830   7.745 -0.3983  0.0753  0.5687
29974SOL    HW194479   7.897   2.735   7.757 -0.4743  0.1570  1.2645
29974SOL    HW294480   7.973   2.844   7.684 -0.3847 -0.4267  0.4633
29975SOL     OW94481   1.904   6.480   3.547 -0.6338 -0.1172 -0.4358
29975SOL    HW194482   1.913   6.416   3.476  2.1418 -0.9927  0.5557
29975SOL    HW294483   1.839   6.542   3.515  0.0948 -0.7568 -3.5482
29976SOL     OW94484  10.272   0.931   8.259  0.1625  0.4679 -0.2293
29976SOL    HW194485  10.206   0.863   8.248  1.5512 -0.9688 -0.0628
29976SOL    HW294486  10.268   0.953   8.352  0.0978  0.1961 -0.1674
29977SOL     OW94487   1.654   6.276   5.121  0.5450  0.6303  0.3064
29977SOL    HW194488   1.612   6.193   5.102 -1.3747  1.0488  2.3307
29977SOL    HW294489   1.733   6.252   5.170  1.8172 -0.0584 -1.9004
29978SOL     OW94490   1.587   9.210   7.343 -0.3681  0.9361 -0.6049
29978SOL    HW194491   1.680   9.192   7.331 -0.4783  0.8006 -1.2872
29978SOL    HW294492   1.577   9.302   7.319 -0.4832  0.8349 -0.9484
29979SOL     OW94493   3.622   8.022   5.763  0.3944 -0.1984 -0.3068
29979SOL    HW194494   3.676   7.987   5.834 -0.4233  0.7789  0.8330
29979SOL    HW294495   3.668   7.997   5.683  2.4043  0.3941  0.6087
29980SOL     OW94496   5.747   4.001   9.208 -0.0682  0.0384 -0.1845
29980SOL    HW194497   5.694   3.989   9.287 -1.9085  0.8110 -1.2273
29980SOL    HW294498   5.783   3.914   9.190 -1.5580 -0.6870  0.1956
29981SOL     OW94499   3.800   2.232   4.812 -0.0631  0.0050 -0.1493
29981SOL    HW194500   3.705   2.239   4.816 -0.1917 -1.4221 -0.2286
29981SOL    HW294501   3.830   2.255   4.900 -0.6412 -1.4707  0.4677
29982SOL     OW94502   1.475   9.826   8.047 -0.3659  0.3118 -0.3951
29982SOL    HW194503   1.488   9.747   7.995 -2.1436  0.7035 -1.5257
29982SOL    HW294504   1.387   9.856   8.024 -0.3982  1.6862  1.2834
29983SOL     OW94505   0.584   8.345  12.029  0.1661  1.0042 -0.0275
29983SOL    HW194506   0.620   8.426  11.994 -1.6530  1.3800 -1.1534
29983SOL    HW294507   0.558   8.295  11.953  3.8752 -2.1024  0.4139
29984SOL     OW94508   7.769   2.530   5.945  0.1200 -0.2010  0.0751
29984SOL    HW194509   7.691   2.514   5.998 -1.0090  0.6144 -1.2511
29984SOL    HW294510   7.832   2.569   6.005 -1.0491  0.5469  0.8492
29985SOL     OW94511   7.296   7.370   2.317 -0.0701 -0.0778 -0.0203
29985SOL    HW194512   7.204   7.345   2.333  0.4994 -1.8078  0.7863
29985SOL    HW294513   7.325   7.410   2.399  0.8300 -2.6414  1.0156
29986SOL     OW94514   0.734  10.100   1.645 -0.2389 -0.4368 -0.3598
29986SOL    HW194515   0.823  10.132   1.655 -0.1361 -0.9475  0.4703
29986SOL    HW294516   0.681  10.180   1.638  0.0936 -0.0658  0.9515
29987SOL     OW94517  10.291   6.290   7.519 -0.6382  0.5469 -0.1423
29987SOL    HW194518  10.319   6.275   7.609 -1.3837 -1.5521 -0.1928
29987SOL    HW294519  10.222   6.356   7.525  0.4473  1.6486  0.6073
29988SOL     OW94520   6.553   0.660   4.932 -0.2205 -0.3920 -0.0431
29988SOL    HW194521   6.566   0.634   4.841 -0.4665 -1.3682  0.1880
29988SOL    HW294522   6.534   0.754   4.928  2.0353  0.1066 -0.7970
29989SOL     OW94523   7.217   4.423  10.867 -0.1595  0.5983  0.2627
29989SOL    HW194524   7.219   4.374  10.949  0.1396  0.8395  0.4012
29989SOL    HW294525   7.223   4.515  10.894 -0.4870  0.7023 -0.0073
29990SOL     OW94526   4.319   8.533  11.881 -0.2214 -0.3968 -0.3608
29990SOL    HW194527   4.257   8.488  11.824  1.2937 -2.9904 -0.1507
29990SOL    HW294528   4.264   8.568  11.952 -1.6936 -0.4698 -1.4109
29991SOL     OW94529   8.464   7.439   0.466  0.1530  0.3649 -0.2834
29991SOL    HW194530   8.369   7.432   0.456  0.0967 -0.7524  0.7459
29991SOL    HW294531   8.476   7.467   0.557  0.8246 -1.1802  0.1345
29992SOL     OW94532   4.693   6.163   4.804 -0.5761 -0.3240 -0.1207
29992SOL    HW194533   4.628   6.205   4.860 -1.0046 -1.6416  0.3912
29992SOL    HW294534   4.707   6.077   4.843  2.9137  0.5715  0.9304
29993SOL     OW94535   0.787   6.122   9.494  0.2931 -0.1244  0.1373
29993SOL    HW194536   0.737   6.170   9.429 -0.3132 -1.0770 -0.1288
29993SOL    HW294537   0.733   6.046   9.515  1.2774 -0.7766  0.4194
29994SOL     OW94538  12.093   8.154   9.397 -0.4011  0.3205  0.1358
29994SOL    HW194539  12.152   8.226   9.377 -1.0041  0.8395  0.1779
29994SOL    HW294540  12.111   8.133   9.488  0.7480 -0.5223 -0.2622
29995SOL     OW94541  11.258   5.559   3.580 -0.0656 -0.1874 -0.2210
29995SOL    HW194542  11.178   5.513   3.554 -0.0463  1.1444 -2.9605
29995SOL    HW294543  11.318   5.546   3.507  0.6535  2.4184 -0.1855
29996SOL     OW94544   4.580   1.019   8.991 -0.3161 -0.0996 -0.2756
29996SOL    HW194545   4.661   0.970   9.000 -0.1781  0.1119 -0.3561
29996SOL    HW294546   4.591   1.069   8.910 -1.1659 -1.2653 -1.1387
29997SOL     OW94547   8.889   8.272   6.995  0.1052  0.2725  0.0832
29997SOL    HW194548   8.895   8.194   7.051 -2.0411  0.1252  0.2114
29997SOL    HW294549   8.872   8.237   6.907  1.3212  0.5562 -0.2711
29998SOL     OW94550   6.876  11.935   3.904 -0.5157  0.5150  0.4610
29998SOL    HW194551   6.919  11.850   3.914  0.5029  0.9667  0.0388
29998SOL    HW294552   6.948  11.998   3.898 -1.2533  1.5912  2.1951
29999SOL     OW94553   1.603   3.286   7.441 -0.3185 -0.0300  0.0167
29999SOL    HW194554   1.623   3.380   7.448 -0.1919  0.0552 -1.1774
29999SOL    HW294555   1.638   3.261   7.355  0.8799 -1.5026  0.8972
30000SOL     OW94556   5.736   0.490   1.722 -0.1773 -0.0345 -0.1078
30000SOL    HW194557   5.700   0.579   1.724  0.7042  0.3268  1.4634
30000SOL    HW294558   5.671   0.437   1.769 -1.3013 -0.5148 -2.0879
30001SOL     OW94559   1.468  11.957   0.526 -0.1465  0.1835  0.4524
30001SOL    HW194560   1.499  11.897   0.593  2.0104 -0.2240 -0.8077
30001SOL    HW294561   1.373  11.958   0.536  0.0176 -0.8939  2.5912
30002SOL     OW94562   0.246   7.276  11.382  0.2430 -0.3892  0.5444
30002SOL    HW194563   0.174   7.285  11.444  0.5462  1.6861  0.6712
30002SOL    HW294564   0.211   7.308  11.299  0.6606 -0.4937  0.3199
30003SOL     OW94565   8.923   1.977  10.642 -0.1222  0.5479 -0.5499
30003SOL    HW194566   8.986   1.988  10.712  0.3021 -1.5836 -0.5108
30003SOL    HW294567   8.838   1.977  10.686  0.1236 -0.4947 -0.0328
30004SOL     OW94568   1.695   0.552  11.221  0.5448  0.4052 -0.1989
30004SOL    HW194569   1.770   0.572  11.166 -0.7362  3.8067 -0.9569
30004SOL    HW294570   1.714   0.596  11.304  0.2373 -0.3960  0.3089
30005SOL     OW94571   0.557  11.835   9.479  1.1637 -0.0455 -0.2710
30005SOL    HW194572   0.481  11.824   9.536  0.2934 -0.4321 -1.4522
30005SOL    HW294573   0.602  11.912   9.513  0.3042  0.1305  0.5254
30006SOL     OW94574   6.755   4.797   0.751  0.4156  0.0665 -0.0452
30006SOL    HW194575   6.795   4.818   0.835 -1.3091 -1.8394  1.3723
30006SOL    HW294576   6.665   4.830   0.759 -0.5465 -2.3381 -0.0338
30007SOL     OW94577  11.173   6.907   0.605  0.0346  0.2142 -0.6342
30007SOL    HW194578  11.144   6.818   0.627 -0.6570  0.4609 -0.5487
30007SOL    HW294579  11.269   6.902   0.611 -0.0369 -0.2920  0.2906
30008SOL     OW94580   8.104   1.641  10.678  0.5166  0.3538  0.1065
30008SOL    HW194581   8.036   1.617  10.742  0.8332  0.7594  0.6040
30008SOL    HW294582   8.101   1.571  10.613 -0.0941  0.1495  0.3448
30009SOL     OW94583   7.720   2.270   1.388  0.7653  0.7456  0.8096
30009SOL    HW194584   7.797   2.282   1.332  0.6758 -1.7406  0.0294
30009SOL    HW294585   7.757   2.252   1.475  1.3620 -3.2933 -0.0836
30010SOL     OW94586   9.639  11.869   5.134 -0.1997 -0.0828 -0.3510
30010SOL    HW194587   9.619  11.779   5.161  0.2271 -0.4129 -1.1270
30010SOL    HW294588   9.555  11.915   5.140 -0.3730 -0.4607  0.2841
30011SOL     OW94589   9.627   6.887  11.858 -0.5344  0.1219  0.2044
30011SOL    HW194590   9.554   6.828  11.877  0.4352 -1.4691 -0.7946
30011SOL    HW294591   9.602   6.970  11.899 -2.3161 -0.7347  0.9580
30012SOL     OW94592   2.337   0.930   3.108  0.2746 -0.3530  0.4714
30012SOL    HW194593   2.281   0.877   3.052  0.9395 -1.3425  0.7239
30012SOL    HW294594   2.287   0.940   3.189 -1.4754  2.5531 -0.7871
30013SOL     OW94595   2.034   7.265   4.638  0.0624 -0.5883 -0.1917
30013SOL    HW194596   1.998   7.324   4.704 -1.3307 -1.4659 -0.1304
30013SOL    HW294597   2.096   7.210   4.685 -0.5368 -0.8617  0.2934
30014SOL     OW94598   4.228   1.225   1.556  0.4249 -0.7695  0.5980
30014SOL    HW194599   4.233   1.147   1.501  2.1333 -1.8272  2.1473
30014SOL    HW294600   4.258   1.296   1.499  0.7261 -1.5725 -0.2826
30015SOL     OW94601   4.753   8.577   2.063  0.5754 -0.4808  0.4788
30015SOL    HW194602   4.721   8.629   2.137  1.4235  0.9071 -0.0919
30015SOL    HW294603   4.843   8.606   2.051  0.5642 -0.9592 -0.8625
30016SOL     OW94604  11.722  11.515   7.771  0.7451  0.5452 -0.0555
30016SOL    HW194605  11.660  11.459   7.818  1.5748 -0.0268  0.3843
30016SOL    HW294606  11.806  11.471   7.780  1.0187  0.6513 -1.7148
30017SOL     OW94607   3.735   8.481   4.071  0.2678  0.3158  0.2433
30017SOL    HW194608   3.768   8.560   4.030  5.7562 -0.1029  3.0216
30017SOL    HW294609   3.749   8.412   4.006  0.6445  0.8486 -0.2494
30018SOL     OW94610   2.583   8.384   4.720  0.0262  0.1926  0.1938
30018SOL    HW194611   2.504   8.345   4.757 -0.1375 -0.4469 -0.7809
30018SOL    HW294612   2.570   8.478   4.730 -0.5361  0.0706  0.6780
30019SOL     OW94613   0.359   9.731   2.140 -0.4672 -0.7678 -0.0957
30019SOL    HW194614   0.397   9.678   2.210  0.3518  0.7569  0.6816
30019SOL    HW294615   0.369   9.821   2.171 -0.6185 -0.0792 -1.9247
30020SOL     OW94616  10.132   8.596   0.193  0.2276  0.3747 -0.0351
30020SOL    HW194617  10.121   8.513   0.147 -0.1824  0.1660  0.4404
30020SOL    HW294618  10.206   8.581   0.252  0.1640  0.3531  0.0387
30021SOL     OW94619   3.924   2.620   8.030  0.3063  0.1300 -0.4710
30021SOL    HW194620   3.955   2.670   7.955  0.6694  2.2111  0.9816
30021SOL    HW294621   3.988   2.636   8.098  0.0491 -1.8115  0.2967
30022SOL     OW94622   3.180  11.275   2.718 -0.5179 -0.2605  1.1493
30022SOL    HW194623   3.199  11.361   2.682 -0.2626 -0.0617  1.7548
30022SOL    HW294624   3.125  11.233   2.652  1.7563 -0.7464 -0.5708
30023SOL     OW94625   6.538  11.482   8.026  0.3060  0.3033  0.0684
30023SOL    HW194626   6.561  11.505   8.116  0.9855  1.1383 -0.2954
30023SOL    HW294627   6.494  11.560   7.992  1.9289  0.8287 -0.9503
30024SOL     OW94628   1.602   4.815   7.964  0.5017 -0.4888  0.2017
30024SOL    HW194629   1.563   4.755   8.028  2.2031  0.5746  2.3599
30024SOL    HW294630   1.673   4.765   7.925 -2.1743 -2.1142 -3.0797
30025SOL     OW94631   2.392   2.929  10.929  0.2444 -0.2725  0.2606
30025SOL    HW194632   2.299   2.924  10.947  0.0161 -0.6285 -0.8781
30025SOL    HW294633   2.415   2.841  10.898  0.9287 -0.1618  0.4355
30026SOL     OW94634   8.518   6.352   2.779  0.2374 -0.6713 -0.1336
30026SOL    HW194635   8.444   6.400   2.743  1.1974  0.3754 -0.7943
30026SOL    HW294636   8.482   6.267   2.805 -1.0512 -0.4036 -0.9816
30027SOL     OW94637   9.726   9.887  11.498 -0.6565 -0.3206 -0.0716
30027SOL    HW194638   9.750   9.806  11.543  1.0531 -0.1354 -0.5518
30027SOL    HW294639   9.810   9.923  11.469 -1.1884  2.3857  1.4134
30028SOL     OW94640  10.077   4.270   5.725  0.3285 -0.2750 -0.1577
30028SOL    HW194641  10.131   4.257   5.803 -0.4674 -0.3978  0.3750
30028SOL    HW294642   9.994   4.228   5.745  0.8551 -2.3900 -1.9691
30029SOL     OW94643   6.678   4.372   9.389  0.4511  0.0311  0.0176
30029SOL    HW194644   6.726   4.428   9.327  0.2464 -1.1214 -1.2511
30029SOL    HW294645   6.669   4.425   9.468  1.8042  1.1199 -0.5126
30030SOL     OW94646  11.215  11.202   6.107 -0.7703  0.4817 -0.4571
30030SOL    HW194647  11.198  11.294   6.085  0.9100  0.2935 -3.0535
30030SOL    HW294648  11.231  11.160   6.022 -0.9037 -2.1013  0.7071
30031SOL     OW94649  11.625  11.947   8.904  0.3702 -0.1708 -0.3773
30031SOL    HW194650  11.711  11.921   8.938  0.6397 -0.3383 -1.1679
30031SOL    HW294651  11.616  11.898   8.822  0.4000  1.3513 -1.3281
30032SOL     OW94652   8.409   7.891   6.319  0.0092  0.3312  0.2334
30032SOL    HW194653   8.463   7.820   6.284  1.0821  0.8527  0.7900
30032SOL    HW294654   8.394   7.867   6.411 -0.4052  0.3714  0.1789
30033SOL     OW94655  10.256   4.314   6.581 -0.3006  0.8478 -0.2151
30033SOL    HW194656  10.250   4.237   6.525  0.0813 -0.0865  0.9896
30033SOL    HW294657  10.231   4.387   6.525 -0.1100 -0.0812 -1.5408
30034SOL     OW94658   4.059   7.748   1.994  0.8807  0.3183 -0.1675
30034SOL    HW194659   4.134   7.803   1.974  0.2485  1.5006  0.6331
30034SOL    HW294660   4.032   7.712   1.909  0.4589  2.3518 -0.9372
30035SOL     OW94661  11.868   5.168   9.380 -0.1360  0.4741  0.0939
30035SOL    HW194662  11.931   5.103   9.411  2.5962  1.6280 -2.5332
30035SOL    HW294663  11.786   5.119   9.370  0.9252 -1.7053  1.3140
30036SOL     OW94664   9.555   6.185   0.419  0.6464 -0.0792 -0.0536
30036SOL    HW194665   9.543   6.159   0.510  0.7218 -0.9617 -0.2852
30036SOL    HW294666   9.650   6.200   0.411  0.9401 -1.8501 -0.4288
30037SOL     OW94667  11.950   8.227   1.229  0.0687  0.6067  0.4223
30037SOL    HW194668  12.000   8.146   1.221  0.7206  1.1472 -1.5444
30037SOL    HW294669  11.908   8.221   1.314  0.2751 -1.6936  0.4136
30038SOL     OW94670   4.202  12.028  11.067  0.2472  0.1855 -0.5498
30038SOL    HW194671   4.192  11.935  11.088  2.4424  0.1583  0.7196
30038SOL    HW294672   4.246  12.030  10.982  0.1209  0.0613 -0.6171
30039SOL     OW94673   5.451   0.054   0.603 -0.1371 -0.6271  0.4699
30039SOL    HW194674   5.539   0.080   0.575  0.8887 -0.1249  3.7078
30039SOL    HW294675   5.411   0.134   0.635 -0.6391 -1.3055  1.6308
30040SOL     OW94676   5.958   8.902   4.007  0.3190 -0.2028 -0.2572
30040SOL    HW194677   6.037   8.913   4.059 -1.0039 -0.5784  1.9836
30040SOL    HW294678   5.954   8.808   3.990  1.3264  0.0407 -2.1226
30041SOL     OW94679   5.302   0.314  10.002 -0.2075 -0.3762 -0.2484
30041SOL    HW194680   5.357   0.329  10.079  2.2065 -0.9189 -1.7499
30041SOL    HW294681   5.276   0.401   9.974  2.6940  0.2216 -1.3525
30042SOL     OW94682   1.941  11.024   6.149  0.0932  0.1084 -0.6081
30042SOL    HW194683   1.916  11.021   6.242  1.0631  0.6794 -0.3110
30042SOL    HW294684   1.877  10.969   6.105  0.0250 -0.7310  0.5004
30043SOL     OW94685   8.184  11.813   6.449  0.1930 -0.0608  0.1510
30043SOL    HW194686   8.212  11.898   6.482  1.6764 -0.2260 -0.6257
30043SOL    HW294687   8.131  11.776   6.520 -0.8001  1.6423  0.3566
30044SOL     OW94688   2.787   3.210  10.332  0.6829 -0.8178  0.1998
30044SOL    HW194689   2.819   3.171  10.414 -0.8759  1.8918  2.2804
30044SOL    HW294690   2.848   3.281  10.315  0.6088 -0.9531 -0.6476
30045SOL     OW94691   1.427   3.696  10.664  0.3972 -0.7514 -0.5335
30045SOL    HW194692   1.410   3.776  10.616  0.4907 -0.1870  0.3516
30045SOL    HW294693   1.481   3.723  10.739 -0.4986 -1.4393  0.3989
30046SOL     OW94694   7.094  11.484  10.733  0.0437 -0.1349 -0.2749
30046SOL    HW194695   7.028  11.492  10.664 -0.8701 -2.2404  0.2798
30046SOL    HW294696   7.142  11.404  10.711  1.6503  0.7068  0.0097
30047SOL     OW94697   9.779   1.527   1.439  0.2153 -0.0298 -0.0439
30047SOL    HW194698   9.728   1.453   1.407 -0.3792  0.8035 -1.0768
30047SOL    HW294699   9.852   1.487   1.487  1.6979 -1.3846 -3.1606
30048SOL     OW94700   9.034   2.461   7.198  0.0717  0.6072  0.1573
30048SOL    HW194701   9.004   2.551   7.214  1.8372  1.1357  0.8012
30048SOL    HW294702   9.065   2.430   7.283  1.1007  0.0596 -0.3883
30049SOL     OW94703   5.588   7.479   6.102  0.7120  0.2979 -0.0996
30049SOL    HW194704   5.589   7.535   6.179 -1.7686  0.3152 -0.0281
30049SOL    HW294705   5.555   7.395   6.133 -0.8220  0.4625 -1.2000
30050SOL     OW94706   3.508  11.829  10.139  0.7572 -0.0109  0.2048
30050SOL    HW194707   3.477  11.815  10.229 -1.1998  0.9870 -0.2655
30050SOL    HW294708   3.574  11.761  10.126 -0.3067 -1.4232  1.7596
30051SOL     OW94709   4.010   4.261   6.449 -0.2137 -0.1387 -0.3830
30051SOL    HW194710   4.041   4.218   6.369  1.7501 -1.2991  0.9294
30051SOL    HW294711   4.070   4.232   6.517 -1.6519  1.0498  1.4949
30052SOL     OW94712   8.044   8.180   3.610 -0.5388  0.7718 -0.4658
30052SOL    HW194713   8.070   8.252   3.668 -1.3156  1.3262 -0.7799
30052SOL    HW294714   8.126   8.137   3.586 -0.2671 -0.1786  1.9070
30053SOL     OW94715  11.723   8.037  11.149  0.1587  0.1640 -0.2351
30053SOL    HW194716  11.721   8.003  11.239  1.2082  1.1107  0.1643
30053SOL    HW294717  11.801   8.092  11.146  0.3947 -0.2228 -1.8722
30054SOL     OW94718  10.392   1.328   4.498  0.1384 -0.3328 -0.2141
30054SOL    HW194719  10.352   1.316   4.584 -0.7391  1.3483 -0.3533
30054SOL    HW294720  10.338   1.273   4.440 -1.3295  1.0045 -0.1963
30055SOL     OW94721   7.185   3.113   6.732  0.4261 -0.3739  0.0939
30055SOL    HW194722   7.220   3.069   6.810  2.0047  2.3676  1.0653
30055SOL    HW294723   7.228   3.070   6.659  1.9218 -0.4835  0.9880
30056SOL     OW94724   7.112   4.759  10.771  0.2499  0.3253 -0.2344
30056SOL    HW194725   7.026   4.732  10.737  0.0323 -0.5405  0.9233
30056SOL    HW294726   7.116   4.719  10.858  2.4987 -1.0643 -0.8849
30057SOL     OW94727   4.502  10.238   7.694 -0.3146 -0.3565 -0.9250
30057SOL    HW194728   4.526  10.292   7.619  0.4738  1.4934  0.5759
30057SOL    HW294729   4.445  10.294   7.747  0.4903 -0.9653  0.6722
30058SOL     OW94730  11.090   4.300   4.593 -0.0265  0.1586  0.1896
30058SOL    HW194731  11.100   4.335   4.682 -0.0118 -0.1611  0.3143
30058SOL    HW294732  11.028   4.359   4.551  0.7655  0.9288  0.0809
30059SOL     OW94733   5.204  12.126   6.015  0.3470 -0.1721 -0.2505
30059SOL    HW194734   5.169  12.053   5.965 -0.8312  0.4184 -0.3067
30059SOL    HW294735   5.206  12.199   5.954 -0.9366  0.5096  0.4778
30060SOL     OW94736   9.616  11.691   4.231 -0.0649 -0.1538 -0.0184
30060SOL    HW194737   9.575  11.715   4.314 -0.3470  1.4821 -0.5952
30060SOL    HW294738   9.573  11.747   4.166  2.4975  1.1138 -0.7605
30061SOL     OW94739   8.518   0.696   0.021 -0.1183  0.0687 -0.1585
30061SOL    HW194740   8.608   0.681  -0.008 -0.8592 -0.7001 -2.3039
30061SOL    HW294741   8.518   0.785   0.055  1.1116  0.7427 -1.7629
30062SOL     OW94742   6.547  10.069   4.767 -0.1078  0.1210  0.0879
30062SOL    HW194743   6.482  10.104   4.827  0.4033 -1.7547  1.8394
30062SOL    HW294744   6.630  10.072   4.815  0.2979 -1.5530 -0.4231
30063SOL     OW94745   8.007   7.868   1.977 -0.1697  0.0893 -0.7933
30063SOL    HW194746   8.063   7.938   1.942 -0.6796  0.3595 -1.0886
30063SOL    HW294747   7.918   7.898   1.959 -0.5060  0.6817  1.5813
30064SOL     OW94748   1.717  10.537   9.835 -0.5290  0.6050  0.0693
30064SOL    HW194749   1.629  10.500   9.833  0.3733 -1.7209 -2.0549
30064SOL    HW294750   1.775  10.462   9.849  1.2485  1.5841 -1.5479
30065SOL     OW94751  11.712   3.743   2.258  0.2758  0.8568  0.3843
30065SOL    HW194752  11.686   3.794   2.182 -0.3617  0.5841  0.4117
30065SOL    HW294753  11.710   3.805   2.331  1.8906  1.3672  0.0282
30066SOL     OW94754  11.317   9.900   7.301 -0.5188  0.0516 -0.0369
30066SOL    HW194755  11.267   9.884   7.221 -0.3779 -1.8416  0.2147
30066SOL    HW294756  11.408   9.883   7.277 -0.6358 -2.1042  0.8646
30067SOL     OW94757   3.015   8.297   6.710  0.4688 -0.3696 -0.0646
30067SOL    HW194758   3.080   8.305   6.641  1.0182 -2.2029  0.1957
30067SOL    HW294759   3.016   8.205   6.735 -3.2549 -0.8265 -1.0022
30068SOL     OW94760   2.760   8.796  11.840  0.4467  0.0824 -0.0662
30068SOL    HW194761   2.772   8.780  11.746 -0.7704 -2.3376  0.1188
30068SOL    HW294762   2.678   8.846  11.845  0.9840  1.0038 -0.3237
30069SOL     OW94763   9.238   6.735   6.302 -0.4337 -0.3052  0.3797
30069SOL    HW194764   9.244   6.646   6.337 -0.1802 -0.6985 -0.6298
30069SOL    HW294765   9.322   6.775   6.325  0.2702 -0.9914 -0.8927
30070SOL     OW94766   1.703   5.926   2.025 -0.0293  0.2881 -0.0253
30070SOL    HW194767   1.646   5.961   2.094  0.3091 -0.6335  0.7540
30070SOL    HW294768   1.706   5.832   2.043  0.2842  0.0763 -1.1522
30071SOL     OW94769   1.162   8.531   3.047 -0.1638  0.4108  0.0448
30071SOL    HW194770   1.176   8.613   3.000  0.5116  0.4544  0.3140
30071SOL    HW294771   1.235   8.475   3.022  0.8278  0.8188  1.8387
30072SOL     OW94772   1.902   9.417   4.307 -0.1291 -0.2669  0.3096
30072SOL    HW194773   1.940   9.495   4.265 -0.6002 -0.3106 -0.2109
30072SOL    HW294774   1.808   9.434   4.309 -0.2236 -0.7714  0.2979
30073SOL     OW94775   9.040   0.644   9.617 -0.3082  0.2952  0.4405
30073SOL    HW194776   9.104   0.574   9.608 -1.3930 -0.7453  0.5312
30073SOL    HW294777   9.025   0.674   9.527 -0.8372 -0.5367  0.2391
30074SOL     OW94778   3.124   3.967  11.465 -0.0701  0.0266  0.1991
30074SOL    HW194779   3.110   3.887  11.415  1.3123 -1.0503  1.4096
30074SOL    HW294780   3.219   3.977  11.467 -0.2043  1.3787  0.5758
30075SOL     OW94781   0.297   4.213   2.328 -0.7019  0.6310  0.5664
30075SOL    HW194782   0.329   4.137   2.279 -0.2918  0.8227  0.5394
30075SOL    HW294783   0.282   4.179   2.416 -0.7141  0.4721  0.5049
30076SOL     OW94784   9.874   7.104   7.427 -0.4152  0.5423 -0.0828
30076SOL    HW194785   9.834   7.186   7.398 -1.6897  0.3499  1.0400
30076SOL    HW294786   9.885   7.052   7.347 -0.9126  1.2438 -0.6109
30077SOL     OW94787   6.881   7.643   9.497 -0.4090  0.1373  0.5439
30077SOL    HW194788   6.893   7.687   9.413 -0.2171 -1.5452 -0.3526
30077SOL    HW294789   6.870   7.550   9.474 -0.0828 -0.3949  2.3857
30078SOL     OW94790   9.487   1.647   7.886  0.2918  0.0323  0.5936
30078SOL    HW194791   9.417   1.710   7.870  0.2856  0.5825  2.5244
30078SOL    HW294792   9.442   1.568   7.916  0.4641  0.9779  3.6725
30079SOL     OW94793   6.728   5.234   6.195  0.1081 -0.6113 -0.0658
30079SOL    HW194794   6.728   5.323   6.231  0.4008 -0.3091 -0.7905
30079SOL    HW294795   6.789   5.238   6.121 -1.4071 -0.9093 -1.3680
30080SOL     OW94796   3.509   6.308   8.692 -0.2253  0.6566 -0.1210
30080SOL    HW194797   3.470   6.304   8.605  2.4291  0.7600 -1.4067
30080SOL    HW294798   3.548   6.222   8.706  0.0580  0.8909  0.6350
30081SOL     OW94799   2.149   5.767   2.196 -0.0959  0.0816 -0.6156
30081SOL    HW194800   2.096   5.844   2.175 -0.9355 -0.1570  0.5317
30081SOL    HW294801   2.202   5.752   2.118 -2.3880 -0.2418 -2.2064
30082SOL     OW94802   8.323   3.860   4.406  0.1094 -0.1949  0.4711
30082SOL    HW194803   8.384   3.895   4.471  0.5459  1.5804 -0.8288
30082SOL    HW294804   8.378   3.813   4.344 -0.0081  0.2123  0.0572
30083SOL     OW94805   0.213   2.923  11.257  0.2498  0.1456 -0.1665
30083SOL    HW194806   0.138   2.980  11.272  0.0488  0.3817 -1.8674
30083SOL    HW294807   0.194   2.844  11.308 -1.1028  0.2505 -0.4730
30084SOL     OW94808   3.922   7.376   6.038 -0.0408  0.4473 -1.5270
30084SOL    HW194809   3.908   7.466   6.068  0.1092  0.5081 -1.6430
30084SOL    HW294810   3.949   7.329   6.117  1.3989  0.8331 -1.7676
30085SOL     OW94811   3.813   9.400   3.181  0.0218 -0.4784 -0.3362
30085SOL    HW194812   3.905   9.376   3.190 -0.2012 -1.2311 -0.0076
30085SOL    HW294813   3.791   9.445   3.263  0.0879 -0.3197 -0.4049
30086SOL     OW94814   0.949   2.419   8.963 -0.1814 -0.0649 -0.0080
30086SOL    HW194815   0.983   2.477   8.895  0.0545  2.1380  1.8367
30086SOL    HW294816   1.025   2.370   8.994  0.4286  1.3512  0.8490
30087SOL     OW94817   2.993   3.753   0.615 -0.6291  0.1727 -0.2676
30087SOL    HW194818   2.904   3.718   0.617 -0.1786 -1.0191  1.1276
30087SOL    HW294819   3.047   3.680   0.585  0.0937  0.2699  0.7268
30088SOL     OW94820   2.631   4.920   9.635  0.1724 -0.0380  0.0699
30088SOL    HW194821   2.725   4.903   9.633  0.5561  1.8597  0.5427
30088SOL    HW294822   2.597   4.857   9.700  0.9951 -1.1513 -0.5472
30089SOL     OW94823   4.757   5.078   4.974 -1.2419  0.0391 -0.0777
30089SOL    HW194824   4.742   5.127   4.892  0.2328  2.5852  1.0326
30089SOL    HW294825   4.693   5.114   5.035  0.1277  0.9447  0.8768
30090SOL     OW94826   3.781   9.143   1.715 -0.7602 -0.1833  0.0852
30090SOL    HW194827   3.820   9.230   1.712  0.1988 -0.5760  0.5514
30090SOL    HW294828   3.771   9.124   1.808  0.9200 -1.3449  0.0806
30091SOL     OW94829  10.313   2.638   3.095 -0.5288 -0.0390  0.7072
30091SOL    HW194830  10.275   2.638   3.183  1.2994 -1.2556  1.5638
30091SOL    HW294831  10.343   2.728   3.082  0.0441 -0.0611  1.7474
30092SOL     OW94832   1.249   4.005   3.630  0.0168 -0.3721  0.3903
30092SOL    HW194833   1.233   4.099   3.624 -0.0570 -0.2317  2.1864
30092SOL    HW294834   1.341   3.998   3.656  0.0581 -0.7976  0.1312
30093SOL     OW94835  10.344  10.369  10.918 -0.4513 -0.0957 -0.2581
30093SOL    HW194836  10.301  10.377  11.003  0.4111 -0.9634  0.2800
30093SOL    HW294837  10.393  10.287  10.924  1.3530  0.8876 -0.8107
30094SOL     OW94838   2.948   3.951   3.734 -0.4591 -0.3888 -0.6174
30094SOL    HW194839   2.929   3.881   3.672  2.5357 -1.8275 -0.0834
30094SOL    HW294840   2.862   3.987   3.757 -1.9557 -2.5809 -2.3853
30095SOL     OW94841   3.461  11.458  10.727 -0.2109  0.1312 -0.5305
30095SOL    HW194842   3.548  11.495  10.714  0.4375 -1.3693 -0.5476
30095SOL    HW294843   3.467  11.368  10.696 -1.1467 -0.6986  1.4743
30096SOL     OW94844   1.675  11.970  11.826 -0.6598 -0.6511  0.6631
30096SOL    HW194845   1.768  11.989  11.819 -0.6653 -1.0107 -0.7988
30096SOL    HW294846   1.653  11.928  11.743 -2.3446  0.3781  0.5337
30097SOL     OW94847   5.424   2.353   8.796 -0.1500  0.0806  0.6966
30097SOL    HW194848   5.519   2.359   8.789 -0.1202 -0.9237  0.1223
30097SOL    HW294849   5.406   2.259   8.802 -1.1790  0.1737 -0.5413
30098SOL     OW94850   4.610   8.910  11.291 -0.4609  0.5600  0.1916
30098SOL    HW194851   4.639   8.825  11.258  1.4864  0.6611  1.4411
30098SOL    HW294852   4.517   8.898  11.311 -0.4664 -0.9468 -0.6310
30099SOL     OW94853   3.038   5.319   4.740 -0.1875 -0.3292  0.0171
30099SOL    HW194854   3.086   5.238   4.762  1.6831  0.6568 -0.2357
30099SOL    HW294855   3.053   5.331   4.647 -2.2971 -0.7915 -0.4347
30100SOL     OW94856   0.450   5.056   2.283 -0.1318 -0.0480  0.0784
30100SOL    HW194857   0.385   5.004   2.330  1.4906 -1.6528  0.6544
30100SOL    HW294858   0.443   5.025   2.192  1.6893 -2.3634  0.6229
30101SOL     OW94859  11.878   9.764   0.606 -0.2907 -0.5959  0.2716
30101SOL    HW194860  11.887   9.853   0.640 -0.7399 -0.3577 -0.2237
30101SOL    HW294861  11.968   9.734   0.594 -0.1294  0.1421 -0.4525
30102SOL     OW94862   1.247   6.038   5.606 -0.3556  0.2988 -0.1368
30102SOL    HW194863   1.322   6.099   5.604 -0.7817  0.8260 -0.8370
30102SOL    HW294864   1.270   5.971   5.541  0.3578 -0.6130  1.0200
30103SOL     OW94865   2.177   8.792   2.190  0.7032  0.2737  0.2018
30103SOL    HW194866   2.242   8.730   2.225 -0.4677 -0.7675  0.6170
30103SOL    HW294867   2.198   8.799   2.097  1.0446 -0.5053  0.2145
30104SOL     OW94868   1.416   2.718   3.625 -0.1486 -0.3373  0.0245
30104SOL    HW194869   1.350   2.780   3.655  0.4866  0.2835  0.1619
30104SOL    HW294870   1.436   2.664   3.702 -1.6949 -1.6499 -0.4391
30105SOL     OW94871   5.152  11.421  11.659  0.0781  0.4669 -0.0780
30105SOL    HW194872   5.206  11.364  11.714 -1.4701 -2.8781 -1.6942
30105SOL    HW294873   5.081  11.448  11.716  0.7680  0.6826  0.7011
30106SOL     OW94874   5.672   4.644   2.560  0.1114 -0.7561  0.6428
30106SOL    HW194875   5.741   4.595   2.604  0.1390 -1.0203  0.3170
30106SOL    HW294876   5.626   4.578   2.507  1.0873 -0.2102 -0.9810
30107SOL     OW94877   3.701   0.128  10.424  0.0372 -0.1185  0.1426
30107SOL    HW194878   3.738   0.209  10.459  3.0218 -0.9225 -0.8983
30107SOL    HW294879   3.737   0.121  10.336 -2.7589 -1.0086 -1.0543
30108SOL     OW94880  11.823   3.098   4.679  0.1356  0.1895  0.4422
30108SOL    HW194881  11.821   3.110   4.584 -1.6835 -0.8524  0.3082
30108SOL    HW294882  11.849   3.184   4.713  2.4996  0.1328 -1.0179
30109SOL     OW94883   4.899   2.940   4.082 -0.3599  0.3650 -0.2235
30109SOL    HW194884   4.932   2.890   4.157  0.7857 -0.6926 -1.3894
30109SOL    HW294885   4.833   2.998   4.120 -0.8203 -1.1173  1.3823
30110SOL     OW94886  11.183   8.370  10.736 -0.0879 -0.0598  0.4608
30110SOL    HW194887  11.196   8.426  10.813 -1.8081 -2.1410  2.3896
30110SOL    HW294888  11.108   8.409  10.690 -0.5475 -0.1249  1.1510
30111SOL     OW94889   0.107   0.180   3.142  0.1784  0.1652  0.0923
30111SOL    HW194890   0.195   0.170   3.178 -0.4544  0.6103  1.8213
30111SOL    HW294891   0.084   0.271   3.158 -0.2505  0.3218 -1.2439
30112SOL     OW94892   5.183   9.074   3.268  0.1119 -0.3921 -0.3360
30112SOL    HW194893   5.125   9.086   3.343  2.3160  2.4893  1.1279
30112SOL    HW294894   5.251   9.014   3.300  0.3514 -0.1998 -0.4826
30113SOL     OW94895  10.022   7.554   9.902  0.0094 -0.1178 -0.1695
30113SOL    HW194896  10.092   7.518   9.847 -0.3116 -1.1983  0.1088
30113SOL    HW294897   9.949   7.494   9.890 -0.3139  0.0559  0.8552
30114SOL     OW94898  10.835   2.740  10.457 -0.2230 -0.3599  0.6215
30114SOL    HW194899  10.840   2.674  10.527  0.9732 -1.4152 -0.4030
30114SOL    HW294900  10.743   2.737  10.428 -0.1682 -1.6778  0.5236
30115SOL     OW94901   2.045   6.941   5.812 -0.3621 -0.5645  0.1858
30115SOL    HW194902   2.075   6.875   5.875 -0.3984 -0.2052  0.5814
30115SOL    HW294903   2.059   6.900   5.727  0.2655 -0.8160  0.4037
30116SOL     OW94904   8.405   8.107  10.713 -0.1727  0.4011 -0.1138
30116SOL    HW194905   8.498   8.093  10.696 -0.0685  0.1568  0.6501
30116SOL    HW294906   8.394   8.202  10.709  0.3066  0.5033  0.7689
30117SOL     OW94907   6.261   5.859   6.740  0.2451  0.0582  0.0133
30117SOL    HW194908   6.320   5.876   6.668  0.6083  1.2730  0.5836
30117SOL    HW294909   6.178   5.835   6.698  0.2559  1.3881 -0.8193
30118SOL     OW94910   1.745   4.165   4.719  0.3654  0.2208  0.5963
30118SOL    HW194911   1.827   4.119   4.734  0.1257 -0.6403 -0.5902
30118SOL    HW294912   1.770   4.254   4.693  1.0231 -0.5739 -1.6626
30119SOL     OW94913  10.046   9.394   2.738  0.8210  0.6099  0.0341
30119SOL    HW194914   9.986   9.410   2.665  1.0010 -0.6780 -0.4344
30119SOL    HW294915  10.106   9.326   2.705  0.5671 -0.4038  1.5390
30120SOL     OW94916   9.797   7.294   5.415  0.0733 -0.3145 -0.0754
30120SOL    HW194917   9.888   7.302   5.444  0.2554 -0.3174 -0.6390
30120SOL    HW294918   9.756   7.237   5.480  0.3392  0.1022  0.4704
30121SOL     OW94919   1.603   2.482   5.009 -0.4603  0.0310 -0.2170
30121SOL    HW194920   1.585   2.549   5.075  0.2678 -0.5839  0.6237
30121SOL    HW294921   1.552   2.407   5.038 -0.9272  0.0671 -0.9176
30122SOL     OW94922   1.954  12.059   1.402  0.0845  1.1234  0.8605
30122SOL    HW194923   2.050  12.057   1.403  0.1130  1.9783  1.9440
30122SOL    HW294924   1.933  12.139   1.355 -0.2165 -0.7913 -2.6133
30123SOL     OW94925   3.624  11.210   0.897 -0.2928 -0.1440  0.3257
30123SOL    HW194926   3.647  11.147   0.829 -0.6904 -0.9961  0.9640
30123SOL    HW294927   3.656  11.171   0.978 -3.1356 -0.9886  1.1624
30124SOL     OW94928  10.930   9.488   3.633  0.0122  0.6660  0.0845
30124SOL    HW194929  11.023   9.504   3.621 -0.3088  3.2933  0.3894
30124SOL    HW294930  10.924   9.448   3.720  0.9930 -2.4512 -1.1357
30125SOL     OW94931  10.792   1.963   1.560  0.2971 -0.0803  0.2518
30125SOL    HW194932  10.711   1.923   1.593  0.2645  0.1460  0.4520
30125SOL    HW294933  10.782   2.056   1.580 -0.5112  0.3832 -1.9572
30126SOL     OW94934   6.396   1.485   0.731  0.1909 -0.1898 -1.2979
30126SOL    HW194935   6.310   1.495   0.772  0.1452 -1.6100 -1.0102
30126SOL    HW294936   6.438   1.414   0.779  1.2869  0.0644 -1.8408
30127SOL     OW94937   7.193   4.962  11.584  0.0983 -0.1964 -0.1293
30127SOL    HW194938   7.138   4.944  11.660  1.4077 -2.5772  0.3886
30127SOL    HW294939   7.136   4.948  11.508 -0.2894 -1.6798  0.4023
30128SOL     OW94940   1.806   9.413   6.334 -0.3858 -0.4563  0.0534
30128SOL    HW194941   1.895   9.407   6.367 -0.3767 -2.8276 -0.2182
30128SOL    HW294942   1.806   9.490   6.277  1.2268  0.0995  0.7489
30129SOL     OW94943  10.993  11.993   9.972 -0.1536  0.2479  0.6700
30129SOL    HW194944  10.980  12.074  10.020 -1.2579  0.9152 -0.6600
30129SOL    HW294945  10.904  11.958   9.960  0.1263 -0.1118 -0.4836
30130SOL     OW94946   4.708   9.373   4.612 -0.0780 -0.3353  0.4633
30130SOL    HW194947   4.705   9.422   4.530 -0.0335  0.0237  0.6745
30130SOL    HW294948   4.660   9.427   4.675  0.9987  0.0337  1.0076
30131SOL     OW94949   4.861  11.073   1.861  0.2486 -0.5099  0.6605
30131SOL    HW194950   4.873  10.988   1.818  1.2383 -0.2016  0.3029
30131SOL    HW294951   4.947  11.115   1.855 -0.2251  0.5106  0.8620
30132SOL     OW94952  11.460   2.621   9.039  0.4574 -0.0440  0.2836
30132SOL    HW194953  11.510   2.611   8.958 -0.1789 -2.0747  0.0822
30132SOL    HW294954  11.490   2.549   9.094 -2.4135 -1.6185  0.0099
30133SOL     OW94955   0.655  10.061   5.993 -0.2711 -0.0747  0.3535
30133SOL    HW194956   0.724  10.069   5.927  0.5154 -3.0020  0.6825
30133SOL    HW294957   0.702  10.038   6.073 -1.3459  1.9704  1.6817
30134SOL     OW94958   6.528   4.781   9.467 -0.3588 -0.2652  0.2639
30134SOL    HW194959   6.533   4.813   9.557  1.9661 -1.1047  0.5020
30134SOL    HW294960   6.481   4.849   9.419 -1.5687  0.2315  2.0657
30135SOL     OW94961  10.602  10.823   8.237 -0.3726  0.4414  0.1350
30135SOL    HW194962  10.685  10.812   8.190 -0.7713 -0.8981 -0.3207
30135SOL    HW294963  10.591  10.917   8.244  2.1076  0.7060  1.9027
30136SOL     OW94964   4.847   3.568   7.128  0.4143 -0.5443  0.0006
30136SOL    HW194965   4.825   3.558   7.221  0.7348 -0.0466  0.1380
30136SOL    HW294966   4.858   3.663   7.117 -2.0998 -0.2784 -1.1100
30137SOL     OW94967   3.320   1.567   6.930 -0.4527 -0.2647 -0.1579
30137SOL    HW194968   3.254   1.631   6.904 -0.6110 -0.4013 -0.0946
30137SOL    HW294969   3.272   1.505   6.986 -0.1799 -0.1268  0.2329
30138SOL     OW94970   3.471  11.942   3.564 -0.2633  0.6995  0.4376
30138SOL    HW194971   3.526  12.018   3.546  0.6273  0.2735  1.2944
30138SOL    HW294972   3.500  11.911   3.650 -0.3384 -0.8435 -0.0700
30139SOL     OW94973   6.945   8.477   9.009 -0.1361  0.1510 -0.1280
30139SOL    HW194974   6.867   8.432   9.043 -1.0862  0.6399 -1.5754
30139SOL    HW294975   6.910   8.545   8.952  1.3704  0.4516 -0.7288
30140SOL     OW94976   7.321   7.491   6.573  0.4878  0.0603  0.7950
30140SOL    HW194977   7.305   7.551   6.646  1.1881  0.9877  0.1929
30140SOL    HW294978   7.416   7.490   6.563  0.4659 -0.9078  0.5826
30141SOL     OW94979  11.317   5.189   3.501  0.5470  0.3651  0.2344
30141SOL    HW194980  11.225   5.205   3.480  0.9379  0.7516 -1.2451
30141SOL    HW294981  11.326   5.094   3.495  0.3593  0.3682 -0.1085
30142SOL     OW94982   6.057   0.585  10.614  0.1658  0.3100 -0.8210
30142SOL    HW194983   6.096   0.590  10.527  1.7794  1.6982 -0.0817
30142SOL    HW294984   6.124   0.545  10.668 -0.3282  0.6118  0.0328
30143SOL     OW94985  11.555   4.151   1.826 -0.0170  0.0535 -0.1236
30143SOL    HW194986  11.477   4.106   1.859  0.4920  0.1291  1.2170
30143SOL    HW294987  11.532   4.175   1.736 -1.5059  0.0021  0.2169
30144SOL     OW94988   1.515   8.487   7.195  0.5406 -0.3965  0.0899
30144SOL    HW194989   1.525   8.478   7.100  1.6756 -0.7357  0.2210
30144SOL    HW294990   1.458   8.414   7.220  0.5655 -0.5513 -0.2935
30145SOL     OW94991  10.092   1.363   6.066 -0.1658  0.1032  0.2851
30145SOL    HW194992  10.147   1.289   6.092 -0.2620 -0.3216 -0.6478
30145SOL    HW294993  10.003   1.333   6.082 -0.1747  0.3277  0.6619
30146SOL     OW94994   6.860   3.210   8.320 -0.6684  0.0016 -0.1933
30146SOL    HW194995   6.931   3.198   8.382 -0.3916 -0.4608 -0.5998
30146SOL    HW294996   6.784   3.233   8.375 -0.5654 -0.9517  0.3681
30147SOL     OW94997   7.549   5.835   8.259 -0.2446 -0.1530 -0.1470
30147SOL    HW194998   7.607   5.794   8.196 -1.4055 -1.4653 -0.4121
30147SOL    HW294999   7.537   5.924   8.227  0.4615 -0.3113 -0.8738
30148SOL     OW95000   8.180   5.405   8.485 -0.2874 -0.0310 -0.0101
30148SOL    HW195001   8.230   5.478   8.449 -0.6145  1.0826  1.6642
30148SOL    HW295002   8.103   5.446   8.525 -1.4470 -1.4860 -0.6325
30149SOL     OW95003   3.388   1.949   2.637 -0.2318  0.2431 -0.5645
30149SOL    HW195004   3.301   1.988   2.630  0.0363  0.9035 -0.3747
30149SOL    HW295005   3.422   1.980   2.721  1.2037  2.1920 -1.7585
30150SOL     OW95006  12.018   2.685   4.545  0.0827 -0.2166 -0.1546
30150SOL    HW195007  12.053   2.651   4.627 -0.0913 -2.0268 -0.7746
30150SOL    HW295008  12.084   2.662   4.479  0.0263  0.8181 -0.5844
30151SOL     OW95009  10.374  11.723  11.012  0.1673  0.2463 -0.4359
30151SOL    HW195010  10.382  11.632  11.039  0.7973 -0.5849 -3.0822
30151SOL    HW295011  10.284  11.729  10.977 -0.5002  1.1696  1.3468
30152SOL     OW95012   4.436   8.193   1.344 -0.4157  0.0828  0.2623
30152SOL    HW195013   4.445   8.285   1.368  0.0022  0.1657 -0.2020
30152SOL    HW295014   4.481   8.185   1.260 -1.1992 -0.3609 -0.1270
30153SOL     OW95015   2.501   6.506   5.201  0.0095 -0.1067  0.5560
30153SOL    HW195016   2.565   6.485   5.268 -0.5501 -1.9597  0.5506
30153SOL    HW295017   2.433   6.439   5.209 -0.5497  0.1770 -1.2251
30154SOL     OW95018   5.102  10.073   6.241 -0.5599 -0.1661 -0.2077
30154SOL    HW195019   5.014  10.051   6.210 -0.7738 -0.2713  0.4461
30154SOL    HW295020   5.140   9.989   6.266 -0.6523 -0.0221  0.4509
30155SOL     OW95021   8.440   0.867   9.273 -0.1998  0.5232 -0.1500
30155SOL    HW195022   8.422   0.809   9.347  2.1334 -0.1416 -0.0318
30155SOL    HW295023   8.384   0.834   9.203 -0.2731 -0.7196  0.4607
30156SOL     OW95024   6.513  12.113  11.748  0.1639  0.1019  0.0771
30156SOL    HW195025   6.441  12.162  11.787  0.1070 -0.5107  0.7823
30156SOL    HW295026   6.530  12.042  11.811  2.3344  1.0548  0.6446
30157SOL     OW95027   1.899   4.038  11.983 -0.3425 -0.0119 -0.0742
30157SOL    HW195028   1.878   3.993  12.065  0.8482 -0.8677 -0.2138
30157SOL    HW295029   1.992   4.061  11.992 -0.3937  0.5511 -0.8847
30158SOL     OW95030   0.461   5.753   5.067  0.3590 -0.0184  0.4859
30158SOL    HW195031   0.412   5.834   5.083 -1.2890 -0.7899 -0.4479
30158SOL    HW295032   0.552   5.776   5.086 -0.2839  1.5680  1.9472
30159SOL     OW95033   5.247   8.890   2.170  0.1998 -0.0614 -0.3416
30159SOL    HW195034   5.178   8.838   2.129  1.8340 -1.2305 -1.7602
30159SOL    HW295035   5.307   8.825   2.208 -0.5282  0.9498  2.8550
30160SOL     OW95036   8.589   4.146  11.745  0.2675 -0.3117 -0.0827
30160SOL    HW195037   8.607   4.238  11.767 -1.3215  0.4860 -1.8184
30160SOL    HW295038   8.501   4.130  11.781  1.5476 -2.0684  2.5592
30161SOL     OW95039   1.743   5.264   3.504 -0.0671  0.3465 -0.3996
30161SOL    HW195040   1.689   5.196   3.464  1.2384 -1.5118  0.8350
30161SOL    HW295041   1.695   5.345   3.488 -1.0429 -0.6452 -3.0770
30162SOL     OW95042   4.769   7.668   7.797 -0.2553 -0.1500  0.4182
30162SOL    HW195043   4.674   7.684   7.789  0.0030  2.1461  1.2702
30162SOL    HW295044   4.808   7.755   7.799  1.7852 -1.0247  1.4268
30163SOL     OW95045   8.350   9.715   0.233  0.6850  0.2174  0.0257
30163SOL    HW195046   8.304   9.630   0.234 -0.0702  0.6040 -0.3761
30163SOL    HW295047   8.439   9.694   0.205 -0.6681  0.0126 -5.3030
30164SOL     OW95048   3.830   7.516  11.007 -0.0199  0.1413 -0.6352
30164SOL    HW195049   3.772   7.441  11.001 -1.3327  1.0432  0.1314
30164SOL    HW295050   3.790   7.582  10.951  1.0298  0.3259 -1.1882
30165SOL     OW95051  10.717   7.056   2.869 -0.3492 -0.3415  0.2613
30165SOL    HW195052  10.709   6.961   2.878 -1.8080 -0.3133 -0.4714
30165SOL    HW295053  10.627   7.086   2.856 -0.2079  1.4093  2.7199
30166SOL     OW95054   5.607   1.833  10.859  0.0399  0.5452  0.0475
30166SOL    HW195055   5.622   1.919  10.821 -1.8681  1.2049  0.6637
30166SOL    HW295056   5.512   1.826  10.865  0.1460 -1.7602 -0.2982
30167SOL     OW95057   7.210   5.202   9.125 -0.4166  0.1132 -0.1811
30167SOL    HW195058   7.144   5.142   9.160 -1.0027  0.3234 -0.8983
30167SOL    HW295059   7.271   5.146   9.078  0.0226 -0.1012  0.6287
30168SOL     OW95060   0.367   3.258   2.128 -0.2946 -0.1341  0.1948
30168SOL    HW195061   0.329   3.320   2.190  1.0210  0.5400  0.3538
30168SOL    HW295062   0.454   3.292   2.109  1.1916 -2.8036  1.5874
30169SOL     OW95063   0.762   5.677   5.574  0.4590  0.1780  0.7910
30169SOL    HW195064   0.768   5.681   5.478  1.9151 -0.3577  0.8348
30169SOL    HW295065   0.793   5.763   5.603 -1.5693  0.9769  0.7767
30170SOL     OW95066   9.882   3.166   6.101  0.1519 -0.1800 -0.2756
30170SOL    HW195067   9.802   3.216   6.084 -0.7971 -1.6889 -0.4407
30170SOL    HW295068   9.851   3.078   6.121  1.8279 -1.0809 -1.4509
30171SOL     OW95069   3.878   7.736  11.922  0.0366  0.5120 -0.2919
30171SOL    HW195070   3.808   7.771  11.978  0.2240  1.7198 -0.7978
30171SOL    HW295071   3.943   7.806  11.918  1.4448 -0.7046  0.4207
30172SOL     OW95072   9.524   1.253   0.576 -0.2658  0.1704 -0.1991
30172SOL    HW195073   9.458   1.238   0.509 -0.5105  1.2300 -0.2036
30172SOL    HW295074   9.556   1.165   0.598 -0.2906 -0.2032 -1.5749
30173SOL     OW95075   0.265   8.229   1.063 -0.9046  0.1761 -0.2664
30173SOL    HW195076   0.320   8.153   1.049 -0.2149  0.3042  1.4487
30173SOL    HW295077   0.197   8.199   1.124 -0.7869  0.8395  0.2082
30174SOL     OW95078   4.602  10.265   4.860 -0.3137  0.3141 -0.0115
30174SOL    HW195079   4.550  10.239   4.784 -1.3696 -1.8318  1.3602
30174SOL    HW295080   4.624  10.183   4.903 -0.9197  1.5048  2.7662
30175SOL     OW95081   3.011   8.839   9.802  0.3025 -0.3372  0.6516
30175SOL    HW195082   2.970   8.920   9.771  0.5690 -0.1587  0.7596
30175SOL    HW295083   2.943   8.796   9.854 -0.8490 -1.5939 -1.7083
30176SOL     OW95084   5.841  10.990   6.517  0.0513  0.0610 -0.5127
30176SOL    HW195085   5.871  11.080   6.500  1.3011 -0.3034 -0.3554
30176SOL    HW295086   5.815  10.957   6.431  0.9303  0.1198 -0.8125
30177SOL     OW95087  11.582  11.130   8.582 -0.8155  0.1942  0.5576
30177SOL    HW195088  11.498  11.086   8.597 -0.5984 -0.6723 -0.6112
30177SOL    HW295089  11.602  11.113   8.490  0.4621  0.7257  0.7148
30178SOL     OW95090   6.514   4.251  10.376  0.0350  0.3745  0.4588
30178SOL    HW195091   6.588   4.197  10.350 -0.3400 -0.2299  0.6139
30178SOL    HW295092   6.513   4.324  10.314  0.5132  0.1732  0.2146
30179SOL     OW95093   5.064   5.747   8.689 -0.6899  0.4799 -0.4220
30179SOL    HW195094   5.124   5.765   8.616 -0.1359 -1.3428 -0.4584
30179SOL    HW295095   5.121   5.723   8.761 -1.2577  1.9012  0.5329
30180SOL     OW95096   8.357   4.519   6.790  0.1995  0.1802  0.4244
30180SOL    HW195097   8.271   4.557   6.808  0.0453 -0.5983  1.3728
30180SOL    HW295098   8.406   4.529   6.871  0.6234 -0.3801  0.2473
30181SOL     OW95099  11.487   6.874   0.859 -0.4006 -0.4850  0.7547
30181SOL    HW195100  11.401   6.834   0.849 -0.1224 -0.8912 -0.0758
30181SOL    HW295101  11.476   6.937   0.931 -1.5561 -0.0730  0.2338
30182SOL     OW95102   9.999  10.789   1.702 -0.1763 -0.1245 -0.3004
30182SOL    HW195103  10.064  10.745   1.757  1.3914  0.0275 -1.9482
30182SOL    HW295104   9.967  10.861   1.757 -2.3687 -2.7965  2.2469
30183SOL     OW95105  11.029  12.002   1.753 -0.0705  0.4932  0.0196
30183SOL    HW195106  11.056  11.964   1.669  0.9969 -0.8022  0.9123
30183SOL    HW295107  10.946  11.959   1.773  0.3190 -0.1828  0.2299
30184SOL     OW95108   6.807   3.241   5.874  0.4086 -0.4427  0.2337
30184SOL    HW195109   6.749   3.168   5.898  0.6524 -0.2354  1.5213
30184SOL    HW295110   6.750   3.301   5.826  0.0747 -1.2233 -0.3802
30185SOL     OW95111   2.608  10.054   9.075 -0.1371  0.4120  0.0232
30185SOL    HW195112   2.547   9.984   9.052 -0.3557  0.6336 -0.0687
30185SOL    HW295113   2.643  10.083   8.991 -0.8976  1.1895 -0.0352
30186SOL     OW95114   7.329   2.109   3.716  0.7062 -0.0622 -0.0700
30186SOL    HW195115   7.368   2.114   3.629  0.9329 -0.5523 -0.0009
30186SOL    HW295116   7.249   2.058   3.703 -0.7234  2.1555 -0.4815
30187SOL     OW95117   1.382   5.881   4.895 -0.0202  0.6010 -0.2186
30187SOL    HW195118   1.428   5.893   4.812 -0.0409  0.4102 -0.2597
30187SOL    HW295119   1.311   5.820   4.875  0.9967 -0.8332  0.2854
30188SOL     OW95120   8.390   1.670   1.776  0.0907  0.3036 -0.2629
30188SOL    HW195121   8.485   1.669   1.790  0.2414  0.9339 -1.0838
30188SOL    HW295122   8.376   1.604   1.708 -0.3286 -1.1419  1.1753
30189SOL     OW95123  10.966   2.109   3.473  0.1009 -0.0011 -0.2698
30189SOL    HW195124  10.966   2.180   3.409 -1.0937 -1.0774 -1.5372
30189SOL    HW295125  10.874   2.083   3.480  0.1525  0.2405  2.1135
30190SOL     OW95126   0.476   8.006   8.420  0.4407 -0.0347 -0.4560
30190SOL    HW195127   0.406   7.967   8.368  0.7420 -0.9193 -0.2043
30190SOL    HW295128   0.550   8.012   8.359  0.2938  0.4815 -0.5926
30191SOL     OW95129   9.353   7.451   6.666 -0.3062  0.0555 -0.1347
30191SOL    HW195130   9.386   7.498   6.590 -1.1385 -0.1742 -0.6534
30191SOL    HW295131   9.398   7.490   6.740  0.8131  0.0112 -0.7806
30192SOL     OW95132  10.297   4.891   7.746  0.4454  0.1149 -0.0161
30192SOL    HW195133  10.207   4.865   7.727  0.7664 -0.3601 -0.9809
30192SOL    HW295134  10.349   4.813   7.726  1.1659  0.6784 -0.3797
30193SOL     OW95135   9.229   4.006   1.821 -0.4891  1.3961 -0.1627
30193SOL    HW195136   9.189   3.927   1.857  3.7831  0.0458  2.2570
30193SOL    HW295137   9.217   4.072   1.889  1.2022  0.9725  0.5956
30194SOL     OW95138  12.099   7.900   0.051  0.2023 -0.1149  0.5794
30194SOL    HW195139  12.153   7.978   0.038  0.6122 -0.4615  0.1202
30194SOL    HW295140  12.158   7.827   0.030 -0.0658 -0.5694  1.3676
30195SOL     OW95141  11.162  11.282   1.465 -0.4607 -0.1225 -0.3333
30195SOL    HW195142  11.084  11.256   1.416  1.1493 -2.1806 -2.0190
30195SOL    HW295143  11.222  11.208   1.454  1.4639  1.0490  1.5555
30196SOL     OW95144   8.344   2.032   0.226 -0.1457 -0.2435 -0.0527
30196SOL    HW195145   8.275   2.012   0.289 -0.6392 -2.3866 -1.1662
30196SOL    HW295146   8.358   1.949   0.179  2.7056  0.2929 -0.3351
30197SOL     OW95147   9.995   9.949   9.769  0.6673 -0.7089  0.7423
30197SOL    HW195148  10.001   9.882   9.838 -0.0749 -1.2520  0.3008
30197SOL    HW295149  10.057  10.016   9.796  0.2714 -0.8199  2.0473
30198SOL     OW95150  10.477  10.114  10.924 -0.0487  0.5732 -0.8443
30198SOL    HW195151  10.551  10.149  10.874  0.1664  2.2295  0.5226
30198SOL    HW295152  10.510  10.108  11.013 -0.8712 -0.9056 -0.6207
30199SOL     OW95153  10.973  10.219   0.797  0.1787  0.3287  0.0606
30199SOL    HW195154  11.054  10.169   0.812 -0.8094 -1.2474  0.3643
30199SOL    HW295155  10.979  10.246   0.706  1.1185  0.3889  0.1223
30200SOL     OW95156   3.284   9.455   2.884 -0.1039 -0.1273 -0.4058
30200SOL    HW195157   3.306   9.427   2.973  0.5882 -0.5178 -0.6935
30200SOL    HW295158   3.222   9.528   2.896 -0.1903 -0.3246  0.3847
30201SOL     OW95159   1.954   7.323   3.841  0.5057 -0.0288  0.0109
30201SOL    HW195160   1.883   7.375   3.880 -2.1440 -2.3890 -1.3272
30201SOL    HW295161   1.939   7.329   3.747  0.2524 -2.9184 -0.1998
30202SOL     OW95162   7.299   9.360   3.468 -0.2537 -0.2596  0.4037
30202SOL    HW195163   7.364   9.354   3.537 -1.7331 -0.3608  1.8512
30202SOL    HW295164   7.316   9.284   3.412  2.9362  1.4818 -1.2420
30203SOL     OW95165   4.735   6.870   9.758 -0.1259 -0.1202  0.6226
30203SOL    HW195166   4.667   6.859   9.824  0.3172 -1.3315  0.9160
30203SOL    HW295167   4.777   6.784   9.753  0.7993  0.3566 -0.1852
30204SOL     OW95168  11.950  10.752   8.054 -0.6307 -0.2193 -0.4531
30204SOL    HW195169  12.045  10.752   8.061 -0.6458 -0.9331 -0.1357
30204SOL    HW295170  11.920  10.709   8.134 -1.2999  1.4377  0.2201
30205SOL     OW95171   3.351  10.043   9.412 -0.0179 -0.1091  0.5791
30205SOL    HW195172   3.297   9.971   9.380  2.2982 -1.7264  0.0499
30205SOL    HW295173   3.289  10.113   9.431 -2.0853 -0.8870 -2.4805
30206SOL     OW95174   5.649   0.220   2.196  0.8619 -0.1186 -0.2326
30206SOL    HW195175   5.670   0.174   2.115 -0.8784  0.4466 -1.0513
30206SOL    HW295176   5.628   0.309   2.168  0.8679  0.2645  0.9282
30207SOL     OW95177   3.068  11.274   2.985  0.0317  0.0185  0.5137
30207SOL    HW195178   3.143  11.313   3.030 -0.7335  2.4571 -0.1576
30207SOL    HW295179   3.091  11.277   2.892  0.3618 -2.2125  0.4623
30208SOL     OW95180  11.339   5.942   8.787 -0.4375 -0.2172  0.3997
30208SOL    HW195181  11.376   5.912   8.704  3.1155  0.1128  1.6502
30208SOL    HW295182  11.365   5.875   8.850 -0.5720  0.8827  1.6760
30209SOL     OW95183  10.080   0.405   7.599 -0.6514 -0.0809  0.3440
30209SOL    HW195184  10.091   0.469   7.529 -1.5605  0.5628  0.7789
30209SOL    HW295185  10.096   0.454   7.680 -1.3325 -0.3938  0.6806
30210SOL     OW95186  11.458   6.037  11.472  0.1307 -0.1034 -0.1487
30210SOL    HW195187  11.548   6.064  11.453  0.9320 -0.4589  2.6847
30210SOL    HW295188  11.467   5.962  11.531 -2.0351 -0.2675  0.0726
30211SOL     OW95189   6.407   6.398   2.727  0.8138  0.2839 -0.3719
30211SOL    HW195190   6.449   6.484   2.733 -0.8680  1.0496  1.7879
30211SOL    HW295191   6.361   6.399   2.643  1.7086  1.0319 -0.8679
30212SOL     OW95192   9.922   4.766   9.191 -0.0536  0.3779 -0.3434
30212SOL    HW195193   9.839   4.780   9.236 -1.3961 -1.7253 -1.9916
30212SOL    HW295194   9.906   4.795   9.101  1.1597  0.3559 -0.5941
30213SOL     OW95195   6.892   7.098   5.002 -0.0003 -0.1482  0.0721
30213SOL    HW195196   6.984   7.112   4.980  0.0612  0.8865  0.9240
30213SOL    HW295197   6.879   7.146   5.084 -1.5061  0.4678 -0.4850
30214SOL     OW95198   3.466   1.523   8.803 -0.5841 -0.0721 -0.2634
30214SOL    HW195199   3.478   1.618   8.807  0.3759 -0.2213  0.9550
30214SOL    HW295200   3.531   1.494   8.738 -0.2176  0.0055  0.0669
30215SOL     OW95201   9.452   1.149   7.396  0.2030  0.0420 -0.0788
30215SOL    HW195202   9.386   1.206   7.435  0.1619 -0.2335  0.2569
30215SOL    HW295203   9.518   1.137   7.465 -0.1431 -0.8871  0.1015
30216SOL     OW95204   9.164   3.693   7.605 -0.1405 -0.2870 -0.0642
30216SOL    HW195205   9.156   3.609   7.561  2.2305  0.0505 -1.2852
30216SOL    HW295206   9.219   3.745   7.547  1.0874  1.0219  2.1690
30217SOL     OW95207   6.145   8.731   6.525 -0.4655  0.3581  0.3526
30217SOL    HW195208   6.103   8.806   6.484 -0.9979 -0.9112 -1.5251
30217SOL    HW295209   6.078   8.696   6.584 -1.3977 -0.4699 -1.1363
30218SOL     OW95210   2.100   5.753   5.207 -0.0608 -0.1805  0.2789
30218SOL    HW195211   2.005   5.764   5.216 -0.0731 -1.1880  1.8379
30218SOL    HW295212   2.113   5.658   5.200  0.8950 -0.1605  1.3984
30219SOL     OW95213   8.374   0.322   2.614 -0.1410 -0.4053  0.2404
30219SOL    HW195214   8.325   0.392   2.657 -0.1444 -1.5952  2.2998
30219SOL    HW295215   8.307   0.271   2.567 -0.9617 -1.8512  2.7990
30220SOL     OW95216  11.273   9.270   7.478 -0.7635 -0.0242  0.6107
30220SOL    HW195217  11.348   9.211   7.479 -2.6945 -2.6210  1.1544
30220SOL    HW295218  11.228   9.254   7.560 -3.2771 -0.4530 -0.7628
30221SOL     OW95219   4.275   9.203   3.272 -0.4437  0.1173  0.3556
30221SOL    HW195220   4.322   9.186   3.190 -2.4365  0.5709 -0.9514
30221SOL    HW295221   4.316   9.145   3.336  1.0162 -0.4251 -1.0027
30222SOL     OW95222   0.221   4.159   8.742 -0.2936 -0.2215 -0.1127
30222SOL    HW195223   0.151   4.160   8.807  1.2402  0.7456  1.6054
30222SOL    HW295224   0.232   4.250   8.716 -1.0697 -0.6150 -2.0308
30223SOL     OW95225   3.539  12.076   7.177 -0.4854  0.1448 -0.2494
30223SOL    HW195226   3.498  11.999   7.216 -1.3655  0.3054 -0.8411
30223SOL    HW295227   3.556  12.135   7.251  0.6098 -0.7836  0.2683
30224SOL     OW95228   3.419   7.504   5.812  0.3624 -0.7897 -0.2242
30224SOL    HW195229   3.488   7.452   5.773  0.3806  0.3110 -1.7525
30224SOL    HW295230   3.464   7.559   5.877  1.0785  0.3098 -1.5798
30225SOL     OW95231  11.327   8.465   9.133 -0.0331 -0.3726  0.2242
30225SOL    HW195232  11.383   8.429   9.064  0.0120  0.2002 -0.0461
30225SOL    HW295233  11.280   8.537   9.090 -0.5736 -0.5041  0.5921
30226SOL     OW95234  10.567  11.841   0.653 -0.4421 -0.7171 -0.5227
30226SOL    HW195235  10.561  11.926   0.611  1.2146  0.0708  0.7024
30226SOL    HW295236  10.634  11.794   0.602  0.0020 -0.5759 -0.0714
30227SOL     OW95237   0.758   0.632   9.754 -0.1556  1.0541 -0.4067
30227SOL    HW195238   0.666   0.624   9.730 -0.5863 -0.8752  1.6029
30227SOL    HW295239   0.800   0.555   9.713  0.5824  1.8940 -1.2738
30228SOL     OW95240   7.013   9.569  10.646  0.4407  0.1881 -0.2094
30228SOL    HW195241   7.025   9.660  10.672  1.0750  0.2752 -0.7835
30228SOL    HW295242   6.942   9.571  10.583 -0.4477  0.0992  0.7548
30229SOL     OW95243   5.164   4.259   4.629  0.0372 -0.2252  0.7260
30229SOL    HW195244   5.242   4.299   4.591  0.8673 -0.1773  2.3888
30229SOL    HW295245   5.188   4.167   4.641 -0.6593 -0.5108  0.0223
30230SOL     OW95246  11.024  11.824   4.466  0.0733 -0.2857  0.1008
30230SOL    HW195247  11.061  11.790   4.548 -1.5833 -1.2623  0.4940
30230SOL    HW295248  11.085  11.892   4.439  1.6718 -1.2230  1.1467
30231SOL     OW95249   9.149   9.442   6.579  0.5616 -0.4394  0.1387
30231SOL    HW195250   9.201   9.400   6.647 -0.2695 -1.2846  0.2682
30231SOL    HW295251   9.138   9.375   6.511  1.0676  0.2721 -0.6744
30232SOL     OW95252   6.783   0.124   8.255 -0.1612 -0.2161 -0.6277
30232SOL    HW195253   6.843   0.130   8.329 -0.6825 -0.7094 -0.1585
30232SOL    HW295254   6.811   0.045   8.208  0.7427  0.5925 -1.4796
30233SOL     OW95255   6.872   3.471   0.025  0.1056  0.2743  0.4551
30233SOL    HW195256   6.900   3.380   0.020  0.7849  0.4920  0.0094
30233SOL    HW295257   6.949   3.518   0.057 -0.5859  0.5480  1.7770
30234SOL     OW95258   0.929   7.659   3.715  0.1135 -0.1063  0.5303
30234SOL    HW195259   0.913   7.726   3.649  1.8292 -0.4090 -0.2544
30234SOL    HW295260   0.878   7.687   3.791 -2.1575  0.1080 -0.9644
30235SOL     OW95261   3.710   1.543   9.218  0.0321  0.0915  0.2761
30235SOL    HW195262   3.786   1.510   9.266  0.9343  2.3690  0.4929
30235SOL    HW295263   3.635   1.509   9.267  0.8948 -1.0307  0.8708
30236SOL     OW95264   7.006   0.833   5.731  0.3449 -0.1910 -0.1562
30236SOL    HW195265   6.911   0.826   5.717 -0.0145  0.1037  1.9162
30236SOL    HW295266   7.022   0.927   5.736  0.7665 -0.2428 -0.4944
30237SOL     OW95267   4.154   7.806  11.279 -0.3892 -0.0116  0.2116
30237SOL    HW195268   4.190   7.883  11.323 -2.6897 -0.1309  2.5849
30237SOL    HW295269   4.118   7.839  11.197 -1.0199  1.4211  1.0214
30238SOL     OW95270   3.769   6.176   0.036 -0.0412  0.6947 -0.7830
30238SOL    HW195271   3.814   6.096   0.066 -2.1606 -1.8166 -3.7634
30238SOL    HW295272   3.684   6.174   0.080  0.1772  1.7984 -0.2747
30239SOL     OW95273   5.510   6.773  10.611  0.3560  0.1213  0.2823
30239SOL    HW195274   5.423   6.801  10.584  0.5434  0.2760 -0.1664
30239SOL    HW295275   5.570   6.833  10.566  0.6719  0.4673  1.1457
30240SOL     OW95276  10.233   3.896   1.868 -0.1358  0.2443 -0.0122
30240SOL    HW195277  10.315   3.934   1.898  0.0597 -1.0721  1.2075
30240SOL    HW295278  10.251   3.802   1.860 -0.4787  0.3342 -3.3337
30241SOL     OW95279  11.338  10.402  11.787 -0.1671 -0.0760 -0.2594
30241SOL    HW195280  11.329  10.496  11.797 -2.7305  0.0470 -2.7622
30241SOL    HW295281  11.271  10.365  11.844 -0.8564 -0.2486 -1.1654
30242SOL     OW95282   2.518   4.076   5.317 -0.2260  0.2172  0.3959
30242SOL    HW195283   2.447   4.105   5.259  0.2940 -0.0518 -0.3903
30242SOL    HW295284   2.595   4.123   5.286  0.3173 -0.8666  0.0708
30243SOL     OW95285  11.404   0.546   4.020  0.1631 -0.5415 -0.1684
30243SOL    HW195286  11.326   0.513   3.976  0.6100  0.4349 -1.7619
30243SOL    HW295287  11.472   0.544   3.953  0.8519  1.0854  0.4365
30244SOL     OW95288   9.929   6.918   6.331 -0.0798  0.0158  0.0866
30244SOL    HW195289   9.959   6.829   6.347 -1.8415 -0.6560 -0.1503
30244SOL    HW295290  10.008   6.972   6.340  1.0711 -1.5804 -0.0624
30245SOL     OW95291   2.092   0.421   1.169 -0.2910  0.7252 -0.3736
30245SOL    HW195292   2.109   0.421   1.075 -0.6061 -2.3440 -0.5267
30245SOL    HW295293   2.179   0.416   1.210 -0.2155 -1.1064 -0.6717
30246SOL     OW95294  11.507   8.024  10.945  0.6456 -0.1626 -0.7257
30246SOL    HW195295  11.575   8.012  10.878 -0.0378 -0.4378 -1.3782
30246SOL    HW295296  11.556   8.052  11.023  1.5707 -0.8515 -1.0343
30247SOL     OW95297  10.124   1.695   1.267  0.2226 -0.2795 -0.4183
30247SOL    HW195298  10.076   1.659   1.192  0.7639 -1.5598 -0.1911
30247SOL    HW295299  10.056   1.724   1.327 -0.2206  1.0974 -1.5385
30248SOL     OW95300   6.036   9.034   8.770 -0.1753  0.3712 -0.0525
30248SOL    HW195301   6.113   9.087   8.750  1.2684 -0.8970  1.8472
30248SOL    HW295302   6.051   8.952   8.723 -1.7010  1.0373 -1.8113
30249SOL     OW95303   4.450   3.988   9.730  0.2938  0.1202 -0.0421
30249SOL    HW195304   4.463   3.921   9.798  1.5279  2.0599  1.7745
30249SOL    HW295305   4.356   4.006   9.733  0.5850  1.8181  2.9808
30250SOL     OW95306  10.485   6.375  11.197 -0.1591  0.6262 -0.0980
30250SOL    HW195307  10.556   6.361  11.260 -0.3527  4.1220  1.1243
30250SOL    HW295308  10.526   6.361  11.112  1.1266 -0.5095  0.6587
30251SOL     OW95309   9.430   8.813   1.811 -0.0482  0.2115 -0.0176
30251SOL    HW195310   9.492   8.820   1.884 -1.2540  0.9762  0.9770
30251SOL    HW295311   9.475   8.759   1.746  0.9845 -0.6595  1.3689
30252SOL     OW95312   1.785   0.052   0.705 -0.6956 -0.1743 -0.0178
30252SOL    HW195313   1.843   0.017   0.637 -0.4481  1.4739 -0.7116
30252SOL    HW295314   1.844   0.078   0.776 -0.4668  1.8546 -0.8781
30253SOL     OW95315   2.435  10.948   0.547 -0.6306 -0.4219 -0.2656
30253SOL    HW195316   2.358  10.892   0.559 -0.6355 -0.1998  0.7950
30253SOL    HW295317   2.415  10.998   0.468 -1.2655 -0.8710 -0.4025
30254SOL     OW95318  10.506   5.194   6.381 -0.4271  0.9979  0.3663
30254SOL    HW195319  10.557   5.172   6.303 -0.9701  2.4402 -0.4270
30254SOL    HW295320  10.509   5.290   6.386  0.6128  0.9268  2.8198
30255SOL     OW95321   2.609   2.634   6.588  0.5805  0.3835 -0.1461
30255SOL    HW195322   2.566   2.654   6.505  1.2632 -0.9184 -0.8357
30255SOL    HW295323   2.701   2.655   6.572  0.5215  1.3730  0.7190
30256SOL     OW95324  10.108   3.005  10.854  0.5263 -0.3614  0.1023
30256SOL    HW195325  10.151   3.003  10.768  0.1044  0.3261 -0.1295
30256SOL    HW295326  10.161   3.065  10.906  0.1854  0.0347 -0.0038
30257SOL     OW95327  11.257   1.785   9.937 -0.0065  0.0714 -0.7365
30257SOL    HW195328  11.319   1.858   9.941  0.2542 -0.2077  1.7082
30257SOL    HW295329  11.171   1.826   9.950  0.1935 -0.0606  1.2773
30258SOL     OW95330   6.467   5.324   6.224 -0.2357 -0.3645 -0.0903
30258SOL    HW195331   6.433   5.349   6.138 -0.6944  0.1497  0.2359
30258SOL    HW295332   6.543   5.269   6.204  0.1265  0.3732 -0.8268
30259SOL     OW95333  10.675   1.863   2.953 -0.2239 -0.0455 -0.2493
30259SOL    HW195334  10.696   1.775   2.986  0.1098  0.1266 -0.0052
30259SOL    HW295335  10.646   1.847   2.863  1.4417 -0.2577 -0.7889
30260SOL     OW95336   6.530  11.874  11.129  0.1924  0.4944  0.0054
30260SOL    HW195337   6.588  11.878  11.053  2.6753 -0.5074  1.6929
30260SOL    HW295338   6.533  11.782  11.155 -1.7452  0.5530  0.5116
30261SOL     OW95339  10.868   5.411   6.329 -0.3105 -0.3585 -0.2364
30261SOL    HW195340  10.947   5.447   6.289  0.5235 -3.0117 -1.2271
30261SOL    HW295341  10.828   5.359   6.259 -1.8838 -0.6325  0.8184
30262SOL     OW95342   0.509   6.336   2.032 -0.4138  0.1171  0.0323
30262SOL    HW195343   0.476   6.320   1.944 -1.6489 -1.1309  0.6919
30262SOL    HW295344   0.566   6.261   2.050  1.1323  1.1748 -0.2805
30263SOL     OW95345   8.892  10.144   4.849  0.1031 -0.0210  0.3051
30263SOL    HW195346   8.898  10.153   4.944 -1.8380 -1.3807  0.6321
30263SOL    HW295347   8.803  10.172   4.829  0.7923  1.1399 -1.2691
30264SOL     OW95348   3.121   0.966  10.011 -0.1049 -0.3181 -0.8956
30264SOL    HW195349   3.213   0.942  10.023 -0.5562 -1.7636 -0.0491
30264SOL    HW295350   3.073   0.910  10.073 -1.5542  0.4245 -1.2952
30265SOL     OW95351   4.112   9.253   5.723 -0.0610 -0.4437  0.1198
30265SOL    HW195352   4.081   9.224   5.637 -0.5571 -0.7743  0.4058
30265SOL    HW295353   4.035   9.245   5.780 -0.1924  1.3032  0.2443
30266SOL     OW95354   6.101   4.156   0.514  0.2492 -0.6730 -0.1228
30266SOL    HW195355   6.049   4.155   0.434 -0.7006 -1.0490  0.4847
30266SOL    HW295356   6.190   4.135   0.486  0.0668 -0.0927 -1.1674
30267SOL     OW95357   0.101   7.809   6.146 -0.5136 -0.0266  0.8972
30267SOL    HW195358   0.140   7.878   6.200 -1.5697  0.1309  1.4945
30267SOL    HW295359   0.017   7.845   6.118 -1.2939 -1.2200  1.5960
30268SOL     OW95360  11.355   8.991  10.171 -0.2037  0.4191  0.0364
30268SOL    HW195361  11.295   8.925  10.204  1.5353 -0.2315  2.0896
30268SOL    HW295362  11.332   9.000  10.079 -2.6742 -0.5954  0.4754
30269SOL     OW95363   3.820   2.963   1.867 -0.4322  0.2693  0.0758
30269SOL    HW195364   3.793   2.904   1.938  2.1165  0.7522  1.5520
30269SOL    HW295365   3.769   3.043   1.882 -2.2090 -0.6957 -0.5622
30270SOL     OW95366   7.289   5.213  11.155  0.5967  0.0109  0.4456
30270SOL    HW195367   7.383   5.216  11.175  1.0527  1.5259 -1.5655
30270SOL    HW295368   7.285   5.173  11.068 -0.5529  0.5230  0.2495
30271SOL     OW95369  11.745   5.374   1.845  0.3799 -0.2228 -0.0105
30271SOL    HW195370  11.656   5.345   1.862  0.8474 -0.7431  1.7532
30271SOL    HW295371  11.775   5.319   1.772 -0.1021 -1.3961  0.6543
30272SOL     OW95372   1.723   3.378  10.552 -0.0399  0.5056  0.4961
30272SOL    HW195373   1.630   3.360  10.537 -0.0112  0.0497  0.8373
30272SOL    HW295374   1.762   3.378  10.465  0.1150 -2.0074  0.4977
30273SOL     OW95375   9.361   4.800   5.303  0.0724  0.3519  0.5032
30273SOL    HW195376   9.428   4.844   5.354  1.1734  0.3651 -0.8794
30273SOL    HW295377   9.393   4.804   5.213 -1.3041 -0.5388 -0.0659
30274SOL     OW95378   1.911   7.409  11.658 -0.2328 -0.2304  0.1258
30274SOL    HW195379   1.947   7.486  11.614  1.0302 -0.0925  1.3199
30274SOL    HW295380   1.820   7.404  11.629 -0.0081  1.0345 -0.8649
30275SOL     OW95381   2.774   5.792   6.296  0.1065  0.7265 -0.1064
30275SOL    HW195382   2.850   5.755   6.251  0.2152  1.1250 -0.2490
30275SOL    HW295383   2.713   5.719   6.304  0.0581  0.6750 -0.9585
30276SOL     OW95384   3.083   9.184  11.367  0.1495 -0.4176 -0.0829
30276SOL    HW195385   3.055   9.184  11.458 -1.2496  0.7656 -0.4718
30276SOL    HW295386   3.133   9.103  11.357  0.1566 -0.6631  1.6675
30277SOL     OW95387  11.984  10.776   0.235 -0.0370  0.2431 -0.1272
30277SOL    HW195388  12.055  10.778   0.171 -0.5969 -0.5515 -0.8034
30277SOL    HW295389  11.924  10.709   0.202 -1.0486  0.8142  0.4836
30278SOL     OW95390   5.628   7.533   9.496 -0.0095 -0.3204  0.0582
30278SOL    HW195391   5.580   7.491   9.567  0.4939 -1.1682 -0.0891
30278SOL    HW295392   5.584   7.502   9.416 -0.3780  0.3785 -0.0140
30279SOL     OW95393   6.293   7.946   8.345  0.1828  0.5619 -0.0561
30279SOL    HW195394   6.374   7.996   8.338 -0.3752  1.5448  0.1842
30279SOL    HW295395   6.232   7.992   8.287  0.1747 -1.0107 -1.3649
30280SOL     OW95396  10.725   6.415   9.913 -0.3263  0.7233  0.2373
30280SOL    HW195397  10.735   6.324   9.940 -0.1374  1.1318  1.6145
30280SOL    HW295398  10.649   6.414   9.855 -2.3750  0.1393  2.7222
30281SOL     OW95399  10.101   8.605   6.173 -0.3188 -0.4355 -0.9297
30281SOL    HW195400  10.138   8.635   6.090  0.6238 -0.7482 -0.6347
30281SOL    HW295401  10.082   8.685   6.221  1.5764 -0.2611 -0.4075
30282SOL     OW95402   4.481   9.437   3.232  0.1577 -0.1863 -0.3316
30282SOL    HW195403   4.399   9.443   3.281  0.6042 -0.1549  0.4193
30282SOL    HW295404   4.481   9.348   3.198 -1.2534  0.4729 -2.2631
30283SOL     OW95405   8.035   0.958   9.213  0.7216 -0.2699 -0.5107
30283SOL    HW195406   7.949   0.983   9.247  1.0590 -0.2869  0.3580
30283SOL    HW295407   8.016   0.903   9.137 -0.0469  1.5525 -1.7091
30284SOL     OW95408   2.039   6.428   8.463 -0.2587 -0.2673  0.4246
30284SOL    HW195409   1.980   6.418   8.537 -2.0195 -0.9037 -0.9924
30284SOL    HW295410   2.040   6.342   8.421  1.6495 -0.2565  0.3365
30285SOL     OW95411   0.657  10.435   2.695 -0.6914  0.1896  0.0419
30285SOL    HW195412   0.651  10.348   2.734  1.4206 -1.1962 -2.3461
30285SOL    HW295413   0.712  10.485   2.756  0.4184 -1.0884  0.1436
30286SOL     OW95414   0.997   8.650   0.506  0.1243  0.8084 -0.2727
30286SOL    HW195415   1.083   8.611   0.490  1.0735  3.0383 -0.9919
30286SOL    HW295416   0.991   8.656   0.601 -0.2845 -1.4213 -0.0962
30287SOL     OW95417   8.463   9.539   1.960  0.1934 -0.2726 -0.9109
30287SOL    HW195418   8.459   9.590   2.040  2.6141  0.6080 -1.2695
30287SOL    HW295419   8.407   9.587   1.898 -1.4075 -0.7726  0.0877
30288SOL     OW95420   8.737   0.563   3.274  0.6553  0.0100  0.6279
30288SOL    HW195421   8.766   0.654   3.270  1.1704 -0.0970  1.7984
30288SOL    HW295422   8.805   0.517   3.322 -0.1907 -0.7602  1.1272
30289SOL     OW95423   7.930   3.705  12.028  0.5439 -0.6463  0.0432
30289SOL    HW195424   7.979   3.755  11.963  0.4724 -0.7407 -0.0846
30289SOL    HW295425   7.968   3.617  12.023 -0.5558 -1.0918 -1.0478
30290SOL     OW95426   6.205  10.747   4.516  0.0537 -0.7980  0.3642
30290SOL    HW195427   6.112  10.730   4.527 -0.0395 -1.4763 -1.1936
30290SOL    HW295428   6.215  10.765   4.422  1.3665  0.1336  0.6519
30291SOL     OW95429   3.594   0.560  10.271 -0.1481  0.1065  0.1210
30291SOL    HW195430   3.676   0.605  10.292 -1.5392  2.3066  1.2137
30291SOL    HW295431   3.612   0.514  10.189  1.6458  2.0056 -0.6324
30292SOL     OW95432   3.385   3.023   7.594 -0.5976 -0.5670 -0.5809
30292SOL    HW195433   3.400   2.947   7.537 -0.6260 -1.0888  0.1007
30292SOL    HW295434   3.298   3.008   7.631  0.1908 -1.2313  1.1033
30293SOL     OW95435  10.926   9.668   7.269  0.0076 -0.0088  0.6515
30293SOL    HW195436  10.959   9.643   7.355 -3.2933  0.1900  2.1165
30293SOL    HW295437  10.920   9.585   7.221 -0.6936 -0.5370  1.6182
30294SOL     OW95438   1.649   4.175   6.792  0.4945 -0.1939 -0.3787
30294SOL    HW195439   1.578   4.233   6.766  0.7017  0.0617 -0.3795
30294SOL    HW295440   1.726   4.232   6.797  0.3012 -0.0441  1.6793
30295SOL     OW95441   5.004   2.646   6.280  0.0258 -0.1317  0.1812
30295SOL    HW195442   4.913   2.630   6.304 -0.1784  1.7002  0.8077
30295SOL    HW295443   5.011   2.616   6.189 -1.5295  0.7897 -0.2804
30296SOL     OW95444   1.957   5.544   6.275  0.1089 -0.2139 -0.7800
30296SOL    HW195445   2.036   5.597   6.268 -0.6149  1.1626  0.7612
30296SOL    HW295446   1.887   5.600   6.242 -0.6875 -0.1456  0.9261
30297SOL     OW95447   9.037   3.702   0.927 -0.3957  0.5319  0.1621
30297SOL    HW195448   9.010   3.794   0.937  0.4452  0.8454 -0.3182
30297SOL    HW295449   9.086   3.683   1.007 -0.5454  0.5139  0.2489
30298SOL     OW95450   5.336   8.331   7.773 -0.7186  0.0282  0.0598
30298SOL    HW195451   5.339   8.297   7.862  0.8539  1.0683  0.4303
30298SOL    HW295452   5.262   8.392   7.773 -2.0034 -1.4733  0.0556
30299SOL     OW95453  10.661   7.006  10.707  0.5667 -0.3515 -0.1213
30299SOL    HW195454  10.727   6.968  10.764  1.9505  0.7534 -0.9248
30299SOL    HW295455  10.595   7.043  10.766  1.4049 -0.2093  0.7378
30300SOL     OW95456   3.087   9.407   4.353  0.4879 -0.1242 -0.0579
30300SOL    HW195457   3.098   9.480   4.414  0.1114 -0.0027 -0.1347
30300SOL    HW295458   3.002   9.422   4.312  0.4131 -0.6069 -0.0824
30301SOL     OW95459   8.015   4.159  11.865 -0.0445  0.0659 -0.2389
30301SOL    HW195460   8.004   4.131  11.956 -0.2721 -0.9505 -0.5643
30301SOL    HW295461   8.015   4.254  11.869  0.4515  0.0366  0.8863
30302SOL     OW95462   3.415   8.007   2.852  0.4155 -0.1049  0.1006
30302SOL    HW195463   3.370   7.976   2.773  0.1514 -1.2678  0.6752
30302SOL    HW295464   3.362   8.081   2.882  0.5607  0.3973 -0.8388
30303SOL     OW95465   9.468   5.348   6.169  0.8352  0.0822  0.1385
30303SOL    HW195466   9.391   5.293   6.183  2.7402 -2.6213  0.9028
30303SOL    HW295467   9.519   5.303   6.102  1.7847  1.7827 -0.3574
30304SOL     OW95468   7.807   1.860   9.453 -0.7575  0.7433 -0.2795
30304SOL    HW195469   7.852   1.944   9.453 -0.5348  0.6725  1.5630
30304SOL    HW295470   7.855   1.807   9.516 -1.1479 -0.6484 -1.1067
30305SOL     OW95471  10.596   5.275   9.658  0.4454  0.4062 -0.2071
30305SOL    HW195472  10.631   5.268   9.569 -0.8420 -1.3195 -0.6280
30305SOL    HW295473  10.574   5.368   9.667  1.8384  0.8726 -1.1696
30306SOL     OW95474   1.604   7.320   2.708  0.0946  0.1787 -0.3348
30306SOL    HW195475   1.666   7.250   2.686  1.3911  1.3710 -0.5919
30306SOL    HW295476   1.591   7.366   2.625 -1.5015 -0.3003 -0.3844
30307SOL     OW95477   3.847   2.448   3.525 -0.0620 -0.3448  0.4080
30307SOL    HW195478   3.909   2.431   3.596  1.3528 -0.0776 -0.7151
30307SOL    HW295479   3.802   2.364   3.511  2.5479 -1.6174 -1.0518
30308SOL     OW95480   9.550   2.418   8.575  0.5335  1.0077 -0.1429
30308SOL    HW195481   9.568   2.359   8.649 -0.3938  1.2993  0.3395
30308SOL    HW295482   9.512   2.361   8.508 -0.2521  1.0153  0.2787
30309SOL     OW95483  10.467   4.340   8.268 -0.1134  0.0806 -0.1860
30309SOL    HW195484  10.462   4.407   8.335  1.2095  1.6977 -1.6234
30309SOL    HW295485  10.493   4.260   8.314 -0.2051  0.9070  1.3295
30310SOL     OW95486   1.973   2.613  11.686 -0.0212 -0.5088 -0.5839
30310SOL    HW195487   2.012   2.533  11.719  0.1073 -0.1533  0.1387
30310SOL    HW295488   2.038   2.649  11.625  1.8174  1.1558  2.1047
30311SOL     OW95489   6.015   9.725   7.294  0.5871  0.6534 -0.0887
30311SOL    HW195490   6.052   9.643   7.262 -0.2743  0.2519 -0.0873
30311SOL    HW295491   6.091   9.779   7.317  1.1642 -0.6881  1.3236
30312SOL     OW95492   9.902   4.569   5.632  0.6176 -0.4844 -0.0664
30312SOL    HW195493   9.853   4.501   5.677  1.1341  0.9310  2.8794
30312SOL    HW295494   9.994   4.543   5.642  0.8965  1.0344  2.0259
30313SOL     OW95495   4.298  11.915   0.944 -0.1151 -0.2985 -0.4738
30313SOL    HW195496   4.364  11.975   0.979 -0.1148 -0.1804 -0.6720
30313SOL    HW295497   4.304  11.927   0.849 -0.1010 -0.6262 -0.5147
30314SOL     OW95498   9.808   9.752   8.820  0.5905 -0.7307 -0.3922
30314SOL    HW195499   9.780   9.678   8.874 -0.7850  0.0091 -0.0449
30314SOL    HW295500   9.884   9.787   8.866 -1.4164  0.8271  2.0530
30315SOL     OW95501   6.447   2.706   5.524 -0.1002  0.3842 -0.2954
30315SOL    HW195502   6.466   2.615   5.548  0.0213  0.0893 -1.4907
30315SOL    HW295503   6.385   2.735   5.592  0.4058 -0.3484  0.5096
30316SOL     OW95504   4.961   6.743   3.063 -0.1783  0.1644 -0.2447
30316SOL    HW195505   5.019   6.815   3.086  0.3357  0.1332 -1.3470
30316SOL    HW295506   4.902   6.734   3.137  1.2049  0.2104  0.8966
30317SOL     OW95507   1.127  11.782   0.705  0.0743  0.4539  0.5892
30317SOL    HW195508   1.128  11.814   0.795  2.1288 -0.3349  0.8933
30317SOL    HW295509   1.127  11.861   0.651  1.6385  0.9688  1.3071
30318SOL     OW95510  11.114   0.958   0.161 -0.2962 -0.1599  0.0713
30318SOL    HW195511  11.194   0.999   0.196  0.4293  0.0146 -1.7074
30318SOL    HW295512  11.069   1.028   0.114 -1.4645 -0.2894  0.9395
30319SOL     OW95513   0.011   0.768   8.816  0.0883  0.8496 -0.5428
30319SOL    HW195514   0.049   0.731   8.896 -0.1955  1.0768 -0.3006
30319SOL    HW295515  -0.052   0.702   8.787 -2.0412  2.0487  1.1006
30320SOL     OW95516   3.617   4.376  10.023 -0.2314 -0.2609  0.4008
30320SOL    HW195517   3.548   4.342  10.081 -0.9867  1.3026  0.4785
30320SOL    HW295518   3.627   4.310   9.956 -0.4394 -1.4097  1.4597
30321SOL     OW95519   1.340  11.037   3.967  0.3686 -0.8531  0.0373
30321SOL    HW195520   1.270  10.982   3.933  0.7487 -1.1641 -0.2559
30321SOL    HW295521   1.304  11.125   3.967  0.0732 -0.9721 -0.3738
30322SOL     OW95522   7.751   6.942   7.136  0.0729 -0.0537  0.0041
30322SOL    HW195523   7.655   6.949   7.128  0.0567 -0.5801 -0.2973
30322SOL    HW295524   7.771   6.990   7.216 -0.1672  2.1033 -1.1796
30323SOL     OW95525   2.654   7.306  10.869  0.3243 -0.2084 -0.3712
30323SOL    HW195526   2.625   7.277  10.956 -1.4054 -1.5984 -1.3388
30323SOL    HW295527   2.679   7.397  10.881 -4.4037  1.2362  0.7287
30324SOL     OW95528   3.352   4.767   2.845  0.0474  0.2794 -0.1580
30324SOL    HW195529   3.325   4.685   2.887 -0.1892 -0.1284 -1.0659
30324SOL    HW295530   3.338   4.751   2.752 -0.6256  1.5859 -0.3022
30325SOL     OW95531   6.299   5.915   4.075  0.3833 -0.0250 -0.2374
30325SOL    HW195532   6.359   5.967   4.022  0.0574  1.4766  0.8206
30325SOL    HW295533   6.218   5.965   4.076 -0.3377 -1.1600 -0.1841
30326SOL     OW95534   8.562   1.621  11.973  0.1732  0.2326 -0.2184
30326SOL    HW195535   8.498   1.553  11.996  2.4707 -2.5808 -1.3858
30326SOL    HW295536   8.643   1.592  12.015  1.3837  2.0381 -1.1635
30327SOL     OW95537  11.090   6.435   8.107 -0.1960  0.5216  0.2564
30327SOL    HW195538  11.067   6.385   8.186  2.0489  0.8146  1.1664
30327SOL    HW295539  11.040   6.393   8.037 -2.2214  0.2181  1.7838
30328SOL     OW95540   9.571   4.903   1.640 -0.0413 -0.1590 -0.0414
30328SOL    HW195541   9.634   4.974   1.640 -0.8494  0.6022  1.8537
30328SOL    HW295542   9.552   4.886   1.732 -1.3812 -1.4642 -0.5063
30329SOL     OW95543   9.916   5.787   8.538  0.7123 -0.1984 -0.2237
30329SOL    HW195544   9.842   5.837   8.504  0.3019 -1.9998 -2.1941
30329SOL    HW295545   9.950   5.741   8.461  3.5458  0.1215  0.7274
30330SOL     OW95546  10.359   7.339   3.197  0.5532 -0.4218 -0.6096
30330SOL    HW195547  10.320   7.419   3.234  3.3504  1.2255 -0.9122
30330SOL    HW295548  10.373   7.282   3.273 -0.4779 -0.1658 -0.2172
30331SOL     OW95549  10.756   1.749   2.051  0.2446  0.3478  0.1190
30331SOL    HW195550  10.738   1.814   2.119  0.5592  0.4929  0.0609
30331SOL    HW295551  10.721   1.667   2.087 -2.7417  1.0229 -0.9398
30332SOL     OW95552  11.450  11.592   1.666  0.1550  0.2759 -0.4229
30332SOL    HW195553  11.498  11.606   1.747  1.4124  0.5867 -1.1950
30332SOL    HW295554  11.393  11.518   1.684 -0.4349  1.0522  1.0966
30333SOL     OW95555   2.265   4.732   1.853  0.0354  0.3650  0.2988
30333SOL    HW195556   2.269   4.814   1.903 -1.1169  0.3580  0.4302
30333SOL    HW295557   2.292   4.757   1.764 -0.0917  0.8445  0.3902
30334SOL     OW95558   2.396   0.174  10.730  0.1576 -0.4523 -0.5234
30334SOL    HW195559   2.317   0.227  10.717  0.4719 -0.4527 -3.0428
30334SOL    HW295560   2.437   0.210  10.808 -1.5821  0.4797  0.0234
30335SOL     OW95561   8.432  10.809   8.988 -0.1279 -0.1705 -0.0872
30335SOL    HW195562   8.350  10.815   9.039  0.1177 -1.0965  0.4330
30335SOL    HW295563   8.429  10.722   8.948 -0.0314  0.3231 -1.1826
30336SOL     OW95564  11.795   7.029   4.085  0.0016  0.6466 -0.1617
30336SOL    HW195565  11.879   7.013   4.128 -0.3664  1.4682  0.9288
30336SOL    HW295566  11.817   7.039   3.992  0.8278 -1.1253 -0.1968
30337SOL     OW95567   2.348   0.708   1.902 -0.3857 -0.1679  0.0670
30337SOL    HW195568   2.374   0.630   1.952 -2.5985 -1.2752 -0.3696
30337SOL    HW295569   2.285   0.753   1.959  1.1055  1.5488  0.4479
30338SOL     OW95570   6.873   6.592   2.585 -0.0284 -0.1351  0.1426
30338SOL    HW195571   6.861   6.503   2.618  1.7806 -0.9030 -1.1311
30338SOL    HW295572   6.793   6.611   2.536 -1.1753 -0.3524  1.8432
30339SOL     OW95573   4.853   7.045   2.848 -0.0777 -0.3370  0.3452
30339SOL    HW195574   4.771   7.086   2.879  0.1885  1.7112 -1.4427
30339SOL    HW295575   4.914   7.057   2.921 -1.0980 -1.0700  1.3493
30340SOL     OW95576   3.070   1.034   1.988 -0.1603 -0.5633 -0.3429
30340SOL    HW195577   3.128   0.986   1.928 -0.9147 -1.2092 -0.5640
30340SOL    HW295578   3.130   1.085   2.043  0.5214  0.7075 -2.1769
30341SOL     OW95579   6.847   0.978   2.686 -0.3257 -0.2526 -0.2140
30341SOL    HW195580   6.757   1.009   2.697 -0.2945  0.0069 -0.6921
30341SOL    HW295581   6.858   0.969   2.592  0.2194 -0.0827 -0.1672
30342SOL     OW95582   1.851   1.048   8.982 -0.4197  0.3407  0.1457
30342SOL    HW195583   1.940   1.027   9.010 -0.5012 -0.3923 -0.1345
30342SOL    HW295584   1.796   0.981   9.022 -0.3749 -1.7497 -2.9492
30343SOL     OW95585   6.309   5.708   4.704  0.2647  0.0127 -0.0034
30343SOL    HW195586   6.280   5.617   4.691  0.6597 -0.1347  0.1339
30343SOL    HW295587   6.404   5.704   4.697  0.4198  0.1349  1.5573
30344SOL     OW95588   3.518  11.108   4.353  0.4218 -0.0020  0.5137
30344SOL    HW195589   3.475  11.039   4.301 -0.3225 -0.5804  1.8418
30344SOL    HW295590   3.565  11.060   4.421  1.9531  0.7114 -0.0198
30345SOL     OW95591   0.967  10.227  10.226 -0.0610  0.1814  0.0539
30345SOL    HW195592   0.994  10.153  10.172 -0.6671  0.8734 -1.2500
30345SOL    HW295593   0.989  10.304  10.173 -0.3006  0.9084  0.9823
30346SOL     OW95594   7.646   8.561   6.625 -0.6503 -0.4192 -0.3815
30346SOL    HW195595   7.646   8.656   6.626  2.1478 -0.3372 -0.0044
30346SOL    HW295596   7.669   8.537   6.535  2.8916 -0.4860  0.3673
30347SOL     OW95597   7.431   0.406   4.342  0.1891 -0.1282  0.2555
30347SOL    HW195598   7.376   0.383   4.267 -0.0410  0.0725  0.3595
30347SOL    HW295599   7.481   0.327   4.361  0.5528 -0.0519 -0.3687
30348SOL     OW95600   9.784  11.784   7.062 -0.4048  0.3996  0.4259
30348SOL    HW195601   9.867  11.832   7.063  0.2516 -0.6989  0.8897
30348SOL    HW295602   9.721  11.845   7.100  0.3198  1.0319  0.6476
30349SOL     OW95603   2.740   4.225   5.247  0.1432  0.4272  0.0175
30349SOL    HW195604   2.831   4.207   5.223 -0.5111  0.1559 -2.5546
30349SOL    HW295605   2.733   4.320   5.242  0.3572  0.4733  0.5466
30350SOL     OW95606   9.622   1.118   8.734  0.5429  0.4484 -0.2771
30350SOL    HW195607   9.597   1.052   8.799  0.9910  0.0181 -0.5366
30350SOL    HW295608   9.544   1.174   8.727  0.1203 -0.1059 -0.1246
30351SOL     OW95609   2.442   6.806  10.874  0.4382 -0.1483  0.6244
30351SOL    HW195610   2.460   6.859  10.797  0.0267  0.6128  1.0473
30351SOL    HW295611   2.512   6.827  10.935  1.5613 -1.7669 -0.0178
30352SOL     OW95612   9.778   2.318   1.007  0.3200  0.9942 -0.1980
30352SOL    HW195613   9.758   2.226   1.024 -2.1088  1.4254 -0.3973
30352SOL    HW295614   9.809   2.352   1.090  0.8852  0.0990 -0.0277
30353SOL     OW95615   6.196   6.324   3.769  1.0145  0.0416  0.4129
30353SOL    HW195616   6.147   6.244   3.753 -1.3107  1.3901  0.2415
30353SOL    HW295617   6.238   6.344   3.685  0.1010 -0.0573 -0.0802
30354SOL     OW95618   4.759  10.541   2.194  0.4833  0.9937 -0.0184
30354SOL    HW195619   4.776  10.451   2.221 -2.6214 -0.2642 -1.7490
30354SOL    HW295620   4.779  10.541   2.100 -0.2883  1.8570 -0.1930
30355SOL     OW95621   0.482   3.933   0.229  0.8207 -0.2489  0.4829
30355SOL    HW195622   0.392   3.921   0.257  0.6749 -2.5839 -0.6664
30355SOL    HW295623   0.487   4.024   0.200 -1.8551 -0.6438 -1.6190
30356SOL     OW95624   9.309   0.098   2.333  0.0699  0.0605 -0.4925
30356SOL    HW195625   9.384   0.135   2.381  0.1596 -0.9067  0.1449
30356SOL    HW295626   9.239   0.163   2.344  0.4772  0.4496 -0.1481
30357SOL     OW95627   1.058   0.298   3.980 -0.5343 -0.0831 -0.3520
30357SOL    HW195628   0.991   0.277   3.915 -1.0356 -2.6226  0.8731
30357SOL    HW295629   1.028   0.381   4.019 -1.8653 -0.1196 -1.2269
30358SOL     OW95630   3.340   9.614   2.491 -0.3964 -0.2115  0.5467
30358SOL    HW195631   3.417   9.645   2.539 -1.6834  0.7097  2.0822
30358SOL    HW295632   3.377   9.577   2.410  1.5402  1.8691  0.3641
30359SOL     OW95633   3.355   1.993   9.192  0.4597  0.1440 -0.4881
30359SOL    HW195634   3.427   1.933   9.208  1.4284  1.1476 -0.9310
30359SOL    HW295635   3.392   2.080   9.206 -0.7446  0.6773 -0.4427
30360SOL     OW95636   8.042   0.616   7.473  0.4303  0.7857 -0.0830
30360SOL    HW195637   7.979   0.546   7.455  0.0547  1.0370  0.2347
30360SOL    HW295638   8.127   0.574   7.462  0.2895  1.0906 -3.1728
30361SOL     OW95639   1.400   1.526   1.681  0.6125 -0.0623 -0.1100
30361SOL    HW195640   1.329   1.543   1.743  0.7265  0.5280 -0.1336
30361SOL    HW295641   1.418   1.433   1.690  0.4009 -0.0486  0.5056
30362SOL     OW95642   6.802   9.304   5.947  0.7943 -0.0659  0.3306
30362SOL    HW195643   6.747   9.240   5.992 -0.3621  0.8470  0.2447
30362SOL    HW295644   6.788   9.286   5.854  0.3945  0.3686  0.3052
30363SOL     OW95645   8.917   6.522   3.561  0.4995  0.2444 -0.5680
30363SOL    HW195646   8.901   6.551   3.650 -1.3584  0.1221 -0.8229
30363SOL    HW295647   9.012   6.511   3.555  0.6173 -0.1537  1.5143
30364SOL     OW95648   3.007   7.181   8.755 -0.9902 -0.2155  0.4976
30364SOL    HW195649   3.030   7.088   8.757 -2.5186 -0.6551 -0.5496
30364SOL    HW295650   3.089   7.227   8.776 -0.3502 -1.7977  1.6133
30365SOL     OW95651   9.141   5.796   4.324  0.5350 -0.1551  0.0139
30365SOL    HW195652   9.213   5.834   4.273  0.2989  0.7873  0.3633
30365SOL    HW295653   9.139   5.848   4.404 -0.2954 -0.4171  0.1680
30366SOL     OW95654   5.560   7.379   6.435  0.4584  0.0058  0.2475
30366SOL    HW195655   5.492   7.409   6.495  0.5107 -1.7639  1.2552
30366SOL    HW295656   5.564   7.447   6.367  0.1108  1.8707  2.0030
30367SOL     OW95657   9.723   7.892   7.417 -0.3826 -0.0579  0.4388
30367SOL    HW195658   9.748   7.971   7.466  2.0365  1.5586 -3.0168
30367SOL    HW295659   9.650   7.921   7.362 -1.8565 -1.3531  1.5906
30368SOL     OW95660   4.599   3.685  12.080  0.0551 -0.2215 -0.1382
30368SOL    HW195661   4.575   3.661  12.170 -1.4807  0.6871 -0.2529
30368SOL    HW295662   4.559   3.617  12.026  0.6907 -0.5796 -0.1708
30369SOL     OW95663   5.390   4.042   4.629 -0.0032 -0.6948  0.3258
30369SOL    HW195664   5.456   3.983   4.667 -0.3057  0.2046  2.3819
30369SOL    HW295665   5.319   3.984   4.601  1.4851 -1.6574 -1.7106
30370SOL     OW95666   8.468   8.997   3.441 -0.2265 -0.5704  0.1633
30370SOL    HW195667   8.449   9.064   3.507 -0.5494 -0.7949  0.3049
30370SOL    HW295668   8.466   8.915   3.489 -0.9872 -0.7877 -0.2137
30371SOL     OW95669   4.208   5.805   3.186 -0.3540  0.1522  0.6924
30371SOL    HW195670   4.154   5.755   3.125  0.1038  1.0787 -0.4983
30371SOL    HW295671   4.145   5.855   3.238 -0.6761  1.2426 -0.7029
30372SOL     OW95672   9.471   0.254  11.489  0.5586  0.3736 -0.0554
30372SOL    HW195673   9.546   0.214  11.533 -0.1974 -0.7997  0.2330
30372SOL    HW295674   9.454   0.334  11.538  1.7075  0.7329 -0.2238
30373SOL     OW95675  11.339   3.891   3.170  0.4257 -0.7320  0.1401
30373SOL    HW195676  11.386   3.868   3.090 -0.0582 -0.2237 -0.3020
30373SOL    HW295677  11.358   3.820   3.231  1.2640 -0.8404 -0.2352
30374SOL     OW95678   7.032   8.563   2.125 -0.1420 -0.0933 -0.5466
30374SOL    HW195679   7.012   8.641   2.176  3.2456  1.2580 -0.9707
30374SOL    HW295680   7.089   8.595   2.055  1.7971 -2.9729 -0.4514
30375SOL     OW95681   6.983  10.211   5.103  0.1332  0.0519 -0.2360
30375SOL    HW195682   7.071  10.214   5.140  0.3514  1.6875 -0.7819
30375SOL    HW295683   6.996  10.184   5.012 -0.1068 -1.1248  0.0568
30376SOL     OW95684   9.810   8.452   4.310 -0.0324 -0.1604 -0.2323
30376SOL    HW195685   9.795   8.546   4.319  1.4163 -0.0180  1.1461
30376SOL    HW295686   9.741   8.411   4.362 -0.0862  0.1895 -0.0252
30377SOL     OW95687   9.823   1.719   2.334  0.3183 -0.2498  0.7578
30377SOL    HW195688   9.774   1.730   2.253 -0.5089  0.3248  1.3200
30377SOL    HW295689   9.793   1.791   2.390  1.0215 -0.5226  1.4995
30378SOL     OW95690   8.647   9.861   2.604 -0.1039  0.6554 -0.3678
30378SOL    HW195691   8.674   9.823   2.520 -0.3635  1.1946 -0.7054
30378SOL    HW295692   8.715   9.925   2.624 -0.6507  1.3833 -0.7766
30379SOL     OW95693   2.631   2.772  11.459  0.4949  0.4639 -0.1306
30379SOL    HW195694   2.578   2.700  11.426 -0.3353  1.8552 -2.0273
30379SOL    HW295695   2.584   2.804  11.536 -1.2258  1.3570 -1.4952
30380SOL     OW95696  10.964  11.195   0.723 -0.1822 -0.5468 -0.2858
30380SOL    HW195697  10.980  11.217   0.815  1.4247 -0.7940 -0.4675
30380SOL    HW295698  11.002  11.267   0.674  0.8048 -1.3568 -0.7694
30381SOL     OW95699   2.729   9.316   5.193  0.3587  0.1439 -0.1504
30381SOL    HW195700   2.767   9.354   5.272 -2.1276 -0.7315  1.5566
30381SOL    HW295701   2.704   9.392   5.140  3.7260  0.7568 -1.1180
30382SOL     OW95702   5.133   9.268   3.866  0.0525  0.3303  0.1309
30382SOL    HW195703   5.056   9.283   3.921 -2.2637  0.9924 -2.9989
30382SOL    HW295704   5.195   9.223   3.923 -2.6081 -0.2037  2.8521
30383SOL     OW95705   1.424   2.476  10.405 -0.3136 -0.1655  0.8973
30383SOL    HW195706   1.397   2.474  10.497 -1.8163  2.7545  0.6171
30383SOL    HW295707   1.344   2.453  10.356  0.3699 -1.2902  0.2657
30384SOL     OW95708  11.969   9.022   4.017 -0.2277  0.0291 -0.7220
30384SOL    HW195709  11.908   8.948   4.027  2.7521 -2.3953  2.2741
30384SOL    HW295710  11.956   9.074   4.096  0.8876 -0.0554 -0.4546
30385SOL     OW95711   7.237   1.478   6.384 -0.0206  0.4635  0.2161
30385SOL    HW195712   7.172   1.480   6.314  0.4312 -0.0215 -0.2324
30385SOL    HW295713   7.268   1.568   6.391 -0.3675  0.5935  0.0718
30386SOL     OW95714   0.604   0.688  11.321  0.3938 -0.3411  0.5291
30386SOL    HW195715   0.691   0.719  11.345 -0.0596  0.0075  1.8123
30386SOL    HW295716   0.546   0.726  11.388 -0.7369 -0.5755 -0.2933
30387SOL     OW95717  11.190   5.307   6.344 -0.3292  0.6281  0.1051
30387SOL    HW195718  11.279   5.279   6.321 -0.8286  0.6772 -2.0756
30387SOL    HW295719  11.172   5.263   6.427  0.8410 -1.3629 -0.6317
30388SOL     OW95720   8.831  12.061   7.482  0.2952  0.3101 -0.8835
30388SOL    HW195721   8.811  12.134   7.540 -0.6660 -1.6221  1.3400
30388SOL    HW295722   8.927  12.065   7.472  0.6281  0.1540  1.6554
30389SOL     OW95723   9.401   4.553   9.440  0.3449  0.4043  0.4273
30389SOL    HW195724   9.365   4.584   9.357 -0.9862  1.1684  1.2413
30389SOL    HW295725   9.337   4.489   9.471  0.1479  1.0629  1.4464
30390SOL     OW95726   6.720   8.992   2.568 -0.0434  0.2792 -0.1147
30390SOL    HW195727   6.632   8.956   2.562 -0.0738  0.0056  1.6248
30390SOL    HW295728   6.776   8.926   2.528 -0.5226  0.1217 -0.5450
30391SOL     OW95729   6.019  11.261   3.682 -0.3341 -0.4983 -0.0337
30391SOL    HW195730   5.933  11.274   3.643  0.4315  1.9368 -1.1161
30391SOL    HW295731   6.055  11.185   3.636 -1.6584 -1.2203  0.0700
30392SOL     OW95732   0.049   4.446   3.648 -0.0243 -0.5303 -0.0569
30392SOL    HW195733  -0.032   4.454   3.699  1.7538  0.5943  2.8256
30392SOL    HW295734   0.089   4.364   3.679  0.2914 -0.7185 -0.9418
30393SOL     OW95735   2.236   6.756   3.480  0.0886  0.0081  0.0775
30393SOL    HW195736   2.162   6.720   3.430  0.9104  0.3345 -1.4486
30393SOL    HW295737   2.230   6.714   3.566 -0.1695 -2.2050 -0.9539
30394SOL     OW95738   4.941   7.126  10.695 -0.1380  0.5372 -0.2868
30394SOL    HW195739   4.980   7.090  10.616  0.9731  0.5124  0.2581
30394SOL    HW295740   4.961   7.220  10.691 -1.5447  0.8376 -0.8537
30395SOL     OW95741   0.260   0.590   9.804  0.0053 -0.2625  0.0229
30395SOL    HW195742   0.339   0.561   9.758  0.2415  0.3543  0.0221
30395SOL    HW295743   0.293   0.627   9.886 -0.3712 -0.9081  0.4767
30396SOL     OW95744   9.682   1.263   3.014 -0.0539  0.3256  0.5634
30396SOL    HW195745   9.662   1.305   3.098 -0.0425 -0.0316  0.7448
30396SOL    HW295746   9.691   1.170   3.035 -1.4066  0.0264 -0.0585
30397SOL     OW95747   0.912   6.741   8.873 -0.0236  0.0004 -0.1095
30397SOL    HW195748   0.948   6.655   8.894 -0.7679 -0.5217 -0.9161
30397SOL    HW295749   0.988   6.792   8.843  0.4007 -0.3933  0.2698
30398SOL     OW95750   1.846   8.619   6.720  0.2982 -0.0759  0.1094
30398SOL    HW195751   1.790   8.580   6.653  0.1883 -1.1666  0.7967
30398SOL    HW295752   1.793   8.690   6.757 -0.0150 -0.0894 -0.3056
30399SOL     OW95753   5.075   7.190   3.417 -0.0138  0.4865  0.5523
30399SOL    HW195754   4.980   7.184   3.430  0.1321 -0.6036  1.2667
30399SOL    HW295755   5.094   7.283   3.427 -0.9084  0.6189  1.2387
30400SOL     OW95756   7.853   2.265   1.658  0.2403 -0.3171 -0.0427
30400SOL    HW195757   7.894   2.339   1.704  0.5383 -1.7256  2.0891
30400SOL    HW295758   7.893   2.188   1.697  1.7028 -1.7042 -3.8361
30401SOL     OW95759   3.545   3.074  10.090 -0.0776  0.7866  0.1139
30401SOL    HW195760   3.590   3.144  10.042  2.8222 -0.1758  1.2365
30401SOL    HW295761   3.527   3.112  10.176  0.7374  0.4459  0.4419
30402SOL     OW95762   8.508   7.922   2.857  0.4065 -0.1319  0.6870
30402SOL    HW195763   8.542   7.832   2.854 -0.4743 -0.4966  1.2548
30402SOL    HW295764   8.585   7.977   2.842  0.7400 -0.9985 -0.9963
30403SOL     OW95765   8.898   2.424   0.797  0.0167  0.1414 -0.5484
30403SOL    HW195766   8.822   2.452   0.848  0.2470  1.2938 -0.8146
30403SOL    HW295767   8.898   2.483   0.721  0.7287 -0.3637 -0.9473
30404SOL     OW95768   2.923   1.025   8.601 -0.0941  0.1441  0.2028
30404SOL    HW195769   3.016   1.040   8.583  0.1086 -1.6246 -0.3976
30404SOL    HW295770   2.886   1.112   8.608  1.2867  0.9074 -1.2852
30405SOL     OW95771  10.337   1.196   0.916 -0.2121  0.2185  0.1961
30405SOL    HW195772  10.269   1.189   0.850  1.7383 -0.5743 -1.8747
30405SOL    HW295773  10.413   1.231   0.869  1.5715 -1.3626  1.7247
30406SOL     OW95774   2.229   7.062  10.163  0.0938 -0.0899  0.1681
30406SOL    HW195775   2.284   6.993  10.124 -0.0241 -0.9776  1.5193
30406SOL    HW295776   2.289   7.111  10.219 -0.0933  0.1541  0.1564
30407SOL     OW95777   7.063   6.583   9.531 -0.4430 -0.8945 -0.4264
30407SOL    HW195778   7.048   6.526   9.456  2.2905 -2.1405 -0.1394
30407SOL    HW295779   7.057   6.525   9.607 -0.6496 -0.1501  0.1452
30408SOL     OW95780   6.627   8.816  10.833 -0.1099 -0.4626  0.6057
30408SOL    HW195781   6.605   8.865  10.912 -1.2025  0.2315 -0.1030
30408SOL    HW295782   6.542   8.792  10.796  0.4035 -1.7165  0.2114
30409SOL     OW95783   5.458   8.676   4.747  0.6795  0.6741  0.3503
30409SOL    HW195784   5.457   8.758   4.699  0.5022  1.8921  2.3059
30409SOL    HW295785   5.384   8.682   4.807  0.7380 -0.8582  0.6295
30410SOL     OW95786   6.957   1.919   5.376 -0.4325 -0.3337  0.1891
30410SOL    HW195787   7.044   1.880   5.378 -1.1170 -1.9347  1.4328
30410SOL    HW295788   6.945   1.947   5.285  1.1248 -0.6181 -0.1387
30411SOL     OW95789  11.810   1.918   2.051  0.1457 -0.1524 -0.1740
30411SOL    HW195790  11.840   1.830   2.027 -0.6607 -0.9401  1.5498
30411SOL    HW295791  11.889   1.963   2.081  0.1687 -1.2344  1.5300
30412SOL     OW95792   6.990   4.935   4.677 -0.0186  0.1310  0.0715
30412SOL    HW195793   6.997   4.904   4.768  2.7763  1.8397  0.5833
30412SOL    HW295794   6.899   4.961   4.668 -0.3367  0.1414  2.4930
30413SOL     OW95795   4.214   1.604   3.144 -0.2929 -0.1567  0.1806
30413SOL    HW195796   4.156   1.678   3.157  0.9383  0.8731  0.0385
30413SOL    HW295797   4.159   1.537   3.103 -1.3068  0.8487 -0.1571
30414SOL     OW95798   2.955   0.637   9.800  0.2516 -0.3968  0.1494
30414SOL    HW195799   3.016   0.635   9.726  1.4811  0.1869  1.0987
30414SOL    HW295800   2.905   0.718   9.787  0.4545 -0.2995 -0.0472
30415SOL     OW95801  10.936   9.255   4.628 -0.1800  0.4473  0.4658
30415SOL    HW195802  10.848   9.230   4.598  0.3723 -0.5117 -0.4132
30415SOL    HW295803  10.937   9.233   4.721  0.0855 -2.4210 -0.1314
30416SOL     OW95804   4.468   1.962  10.719 -0.1133  0.4819 -0.1949
30416SOL    HW195805   4.378   1.990  10.732 -0.3277 -0.6643  0.9928
30416SOL    HW295806   4.465   1.867  10.723  1.4122  0.4264  2.1045
30417SOL     OW95807   0.864  10.138   0.639  0.0614  0.0379 -0.1057
30417SOL    HW195808   0.867  10.170   0.729  0.3439 -0.8243  0.2011
30417SOL    HW295809   0.931  10.190   0.594  0.4833 -0.0789  0.3683
30418SOL     OW95810   0.606   9.819   0.702  0.8708 -0.6244 -0.1409
30418SOL    HW195811   0.529   9.876   0.691 -0.1709 -1.6509  1.4880
30418SOL    HW295812   0.570   9.732   0.716  2.3513 -1.2156  0.1710
30419SOL     OW95813   6.861   0.228  11.477 -0.4504 -0.1049  0.0380
30419SOL    HW195814   6.853   0.246  11.384 -1.5382 -0.0894  0.1200
30419SOL    HW295815   6.780   0.262  11.515 -0.0829 -0.2354  0.9697
30420SOL     OW95816   9.149   9.323   0.714  0.1263 -0.4954 -0.6064
30420SOL    HW195817   9.137   9.360   0.627  0.5915  0.9717 -0.0805
30420SOL    HW295818   9.074   9.264   0.725 -1.6282  1.5411 -0.8869
30421SOL     OW95819  10.982  10.455   2.336 -0.0327 -0.6800 -0.5787
30421SOL    HW195820  11.056  10.450   2.397 -1.1801 -1.6576  0.8020
30421SOL    HW295821  10.921  10.517   2.377 -0.1703 -0.2076 -1.4860
30422SOL     OW95822  11.354   2.474   8.053 -0.5947  0.1232 -0.0483
30422SOL    HW195823  11.294   2.499   7.982  0.6434  0.2051 -1.0951
30422SOL    HW295824  11.362   2.379   8.045  1.5811  0.3904 -1.7404
30423SOL     OW95825   7.043  10.593   5.475  0.6422 -0.0217 -0.7543
30423SOL    HW195826   6.954  10.608   5.506  0.2556 -0.2311 -1.7345
30423SOL    HW295827   7.042  10.623   5.383  1.9953  1.4899 -0.3308
30424SOL     OW95828   9.521   1.363  10.884 -0.3089 -0.1389 -0.1843
30424SOL    HW195829   9.556   1.406  10.961  1.6907 -3.1158  0.7049
30424SOL    HW295830   9.505   1.273  10.911 -4.0632 -0.2220 -1.9994
30425SOL     OW95831  11.032   1.051  11.331 -0.2485  0.1735 -0.4212
30425SOL    HW195832  10.988   1.130  11.300  0.1194  0.2647 -0.7129
30425SOL    HW295833  10.962   0.986  11.337 -0.5498  0.5118 -0.1926
30426SOL     OW95834  10.447   8.557   5.299 -0.5408  0.8693 -0.1418
30426SOL    HW195835  10.425   8.487   5.362  0.3674  0.2331 -0.5056
30426SOL    HW295836  10.524   8.599   5.337  0.6837 -0.2256 -1.3398
30427SOL     OW95837   3.402   7.973   9.261 -0.0573  0.0464 -0.6844
30427SOL    HW195838   3.492   7.945   9.277  1.5458  2.8438 -3.4729
30427SOL    HW295839   3.374   7.921   9.185 -0.2664  0.1443 -0.6754
30428SOL     OW95840   3.155   0.894   7.811 -0.2964  0.0065 -0.0751
30428SOL    HW195841   3.060   0.902   7.809 -0.3687  0.3162  1.9372
30428SOL    HW295842   3.171   0.817   7.865  0.6125 -0.3537 -0.8267
30429SOL     OW95843   0.501   6.110   6.309  0.5818 -0.0010 -0.2848
30429SOL    HW195844   0.554   6.078   6.383 -1.3231 -1.6672  0.4580
30429SOL    HW295845   0.462   6.031   6.272 -2.4476  1.2098  0.0789
30430SOL     OW95846   8.263   9.146   0.295  0.1081 -0.0327  0.1198
30430SOL    HW195847   8.198   9.082   0.323 -1.4250  1.4159  0.0548
30430SOL    HW295848   8.276   9.129   0.202 -1.6165  0.7819 -0.3200
30431SOL     OW95849   0.461   4.336   7.476  0.1925 -0.2777 -0.3572
30431SOL    HW195850   0.555   4.330   7.457  0.2637 -0.9271  0.1373
30431SOL    HW295851   0.449   4.423   7.512  0.6035 -0.1795 -0.4514
30432SOL     OW95852   4.582   3.468   1.229 -0.2262  0.4001 -0.6530
30432SOL    HW195853   4.505   3.446   1.280 -0.1051  2.0075  0.2712
30432SOL    HW295854   4.648   3.493   1.294  0.9595 -0.5500 -1.4431
30433SOL     OW95855   7.795   3.268  11.940  0.0878 -0.1289 -0.0097
30433SOL    HW195856   7.872   3.213  11.931  0.5203  0.3638  0.5935
30433SOL    HW295857   7.812   3.343  11.884 -0.3051 -0.3924 -0.4884
30434SOL     OW95858   8.399  10.689   3.956  0.5535  0.1403 -0.3088
30434SOL    HW195859   8.375  10.624   3.890  0.7213 -1.5789  1.2215
30434SOL    HW295860   8.493  10.699   3.948  0.8035 -1.1733  0.5374
30435SOL     OW95861   8.806   4.077   8.173  0.3150 -0.5474  0.0333
30435SOL    HW195862   8.798   3.983   8.159  1.4656 -0.4453 -1.4793
30435SOL    HW295863   8.719   4.112   8.154 -0.6377 -1.4405  2.3425
30436SOL     OW95864  10.835   2.185   4.674  0.5368 -0.3035 -0.3940
30436SOL    HW195865  10.812   2.096   4.650 -0.3515 -0.5539  1.2050
30436SOL    HW295866  10.752   2.226   4.698  1.0415  0.6657 -0.2263
30437SOL     OW95867   6.760   5.209  11.598  0.1536  0.5013  0.2485
30437SOL    HW195868   6.757   5.250  11.512  2.1193 -0.0258 -0.1214
30437SOL    HW295869   6.685   5.150  11.600 -0.3968  1.1504 -0.7643
30438SOL     OW95870  11.773   0.105   1.490  0.0348  0.6181  0.0256
30438SOL    HW195871  11.757   0.199   1.481 -0.9779  0.3649 -1.2661
30438SOL    HW295872  11.685   0.066   1.487  0.5300 -0.4869 -1.5919
30439SOL     OW95873  10.337   0.087   1.513  0.4032 -0.6043 -0.2655
30439SOL    HW195874  10.283   0.159   1.546  0.0474 -1.5513  1.3505
30439SOL    HW295875  10.417   0.129   1.482  0.9773  0.3778  2.3322
30440SOL     OW95876  11.979   3.445   2.214  0.6835 -0.2886  0.2303
30440SOL    HW195877  11.919   3.465   2.142  0.2353  0.2690  0.7400
30440SOL    HW295878  11.969   3.520   2.273  1.4863 -0.4549  0.5818
30441SOL     OW95879   2.421   0.797   4.021 -0.1597 -0.1204  0.0829
30441SOL    HW195880   2.428   0.876   3.968  0.1087  0.0328  0.3449
30441SOL    HW295881   2.463   0.820   4.104 -0.9077 -0.2337  0.5029
30442SOL     OW95882   0.665   1.523   0.111 -0.0474  0.1780 -0.3557
30442SOL    HW195883   0.713   1.533   0.029 -2.4812 -0.0164 -1.9137
30442SOL    HW295884   0.728   1.484   0.171  1.4500 -1.0088 -2.5534
30443SOL     OW95885   0.025  10.857   5.737  0.5714  0.3467  0.2661
30443SOL    HW195886   0.042  10.768   5.707  0.4352  0.1377  0.7864
30443SOL    HW295887  -0.042  10.847   5.805  0.5956  0.8382  0.3674
30444SOL     OW95888   9.970   5.227   0.402 -0.0922  0.0429  0.0713
30444SOL    HW195889   9.956   5.147   0.453 -0.3575  0.6636  1.0019
30444SOL    HW295890   9.882   5.256   0.378 -0.0456  0.5089  0.4559
30445SOL     OW95891  11.810   3.704   9.026  0.1459  0.2167  0.0020
30445SOL    HW195892  11.906   3.705   9.026  0.2233 -1.8822  0.6637
30445SOL    HW295893  11.786   3.666   8.941 -0.0936  0.5907 -0.0973
30446SOL     OW95894  11.628   0.905   0.043 -0.3551  0.4038 -0.3239
30446SOL    HW195895  11.653   0.827  -0.008  0.3943  1.1092 -1.0719
30446SOL    HW295896  11.706   0.926   0.095 -0.9030  0.0632  0.6680
30447SOL     OW95897  11.085   9.101   5.647 -0.0198  0.0207 -0.8876
30447SOL    HW195898  11.112   9.063   5.730  1.9617  1.9185 -0.5653
30447SOL    HW295899  10.993   9.076   5.638 -0.8620  1.1715  2.7296
30448SOL     OW95900   4.728   3.490   4.556  0.0160  0.0218 -0.3230
30448SOL    HW195901   4.715   3.551   4.483  2.5745  1.3051  0.1819
30448SOL    HW295902   4.813   3.515   4.594 -0.9367 -0.9464  2.7649
30449SOL     OW95903  11.902   9.905  12.076  0.1870  0.1689 -0.2690
30449SOL    HW195904  11.884   9.999  12.072 -1.0950 -0.1024 -2.1116
30449SOL    HW295905  11.996   9.897  12.059  0.0195  1.0479 -1.7738
30450SOL     OW95906   3.191   0.554   8.287 -0.3645  0.4581 -0.0022
30450SOL    HW195907   3.179   0.638   8.244 -2.3159 -0.1706 -0.7658
30450SOL    HW295908   3.115   0.501   8.261  0.7969 -1.5524  0.4496
30451SOL     OW95909   7.231  11.252   7.251  0.0227 -0.3801  0.4983
30451SOL    HW195910   7.138  11.237   7.265 -0.0144  0.2078  0.9250
30451SOL    HW295911   7.269  11.252   7.339  0.3466 -0.1457  0.3621
30452SOL     OW95912   1.468   1.001   3.564  0.0819 -0.0527 -0.3233
30452SOL    HW195913   1.373   1.012   3.564  0.1340  0.4069 -0.2970
30452SOL    HW295914   1.484   0.929   3.626 -0.1271  1.0328  1.0428
30453SOL     OW95915   0.739   8.051   4.172 -0.4282 -0.1868 -0.6297
30453SOL    HW195916   0.731   8.068   4.078 -1.6414 -1.8727 -0.8729
30453SOL    HW295917   0.665   7.994   4.193 -0.0884  0.0099  1.3281
30454SOL     OW95918   4.256   2.097   7.689 -0.2294 -0.0215 -0.0987
30454SOL    HW195919   4.299   2.015   7.667  0.0299 -0.1071  0.7044
30454SOL    HW295920   4.175   2.096   7.637  1.9679  1.4832 -3.9696
30455SOL     OW95921   1.306   2.458   0.065  0.5006  0.1736  0.0938
30455SOL    HW195922   1.365   2.503   0.004  0.4454 -0.4023 -0.3939
30455SOL    HW295923   1.334   2.488   0.151  0.9116  0.6098 -0.1813
30456SOL     OW95924   3.766   8.500  12.121 -0.2183 -0.1571  0.0876
30456SOL    HW195925   3.792   8.410  12.100  0.5651  0.2240 -0.5922
30456SOL    HW295926   3.675   8.491  12.150 -0.0052 -1.2293  0.4929
30457SOL     OW95927  11.663   8.307  11.751 -0.2027  0.4393 -0.1470
30457SOL    HW195928  11.570   8.292  11.737  0.0531 -0.8379 -0.5990
30457SOL    HW295929  11.704   8.279  11.670  0.4545  2.6528 -0.6447
30458SOL     OW95930   8.691   0.998   4.764  0.3786  0.0145 -1.0109
30458SOL    HW195931   8.623   1.066   4.766 -1.6802 -1.9431  0.6981
30458SOL    HW295932   8.761   1.032   4.819 -0.1924  1.1329 -0.9415
30459SOL     OW95933   2.351   6.804   8.314 -0.6554  0.0958 -0.4445
30459SOL    HW195934   2.372   6.897   8.318 -0.4697  0.0284  0.4112
30459SOL    HW295935   2.320   6.790   8.225 -3.5337  1.5762  0.1782
30460SOL     OW95936  11.611   9.332   6.434  0.1750  0.2404  0.3886
30460SOL    HW195937  11.586   9.240   6.428  2.4256 -0.4035 -0.1191
30460SOL    HW295938  11.530   9.380   6.416 -1.1846 -1.6069  1.2733
30461SOL     OW95939   5.857   7.380   0.785 -0.0712  0.2065  0.0213
30461SOL    HW195940   5.781   7.364   0.728  2.0600 -1.3409 -2.5894
30461SOL    HW295941   5.887   7.467   0.760 -2.4220  2.1085  3.0549
30462SOL     OW95942   8.500   1.831   4.345  0.4173 -0.6053 -0.4421
30462SOL    HW195943   8.421   1.849   4.294  0.1104 -0.0746  0.2120
30462SOL    HW295944   8.571   1.873   4.297  0.1529 -0.2387 -0.5095
30463SOL     OW95945   2.415   7.832   7.288  0.7185  0.1543  0.4617
30463SOL    HW195946   2.355   7.896   7.326  0.8936 -1.3921  3.6282
30463SOL    HW295947   2.359   7.770   7.243  0.2349  0.4961  0.5890
30464SOL     OW95948   5.680   3.800   5.495  0.1297 -0.9378 -0.8874
30464SOL    HW195949   5.752   3.836   5.444  0.8763 -1.3596 -0.1597
30464SOL    HW295950   5.614   3.776   5.430  1.5872 -2.7057 -1.8006
30465SOL     OW95951   1.949   8.857   4.150 -0.5113  0.0733 -0.1019
30465SOL    HW195952   1.970   8.950   4.154  1.0596 -0.2946  2.3057
30465SOL    HW295953   2.001   8.823   4.077  1.0664  0.6485  0.7082
30466SOL     OW95954  11.468   7.715   2.574  0.4588 -0.1021  0.0770
30466SOL    HW195955  11.561   7.725   2.552  0.5850  2.3537  1.5033
30466SOL    HW295956  11.425   7.704   2.489  1.6035  3.1750 -1.0771
30467SOL     OW95957   9.919   9.289   2.512 -0.5044  0.2582  0.0131
30467SOL    HW195958   9.888   9.222   2.450  1.6326  0.0939 -0.9884
30467SOL    HW295959   9.849   9.297   2.576 -1.5271 -1.7767 -0.7552
30468SOL     OW95960   5.901   5.173   0.405  0.3511 -0.1801 -0.5634
30468SOL    HW195961   5.921   5.080   0.393  0.9521 -0.7307  3.4964
30468SOL    HW295962   5.806   5.179   0.391  0.3985 -1.2259 -1.5012
30469SOL     OW95963   4.748   1.270  10.236  0.4061  0.4552 -0.4000
30469SOL    HW195964   4.794   1.198  10.194  0.0391  0.2088 -0.3831
30469SOL    HW295965   4.815   1.337  10.249  1.0227 -0.3422  0.6877
30470SOL     OW95966   9.729   7.491  11.589  0.5770  0.2467  0.4261
30470SOL    HW195967   9.802   7.533  11.632  1.1225  0.2517 -0.4731
30470SOL    HW295968   9.724   7.404  11.629  2.0624 -0.3216 -0.5555
30471SOL     OW95969  10.024   0.781   9.027  0.1660  0.2287  0.4628
30471SOL    HW195970   9.970   0.781   9.106 -1.6370  0.1360 -0.7151
30471SOL    HW295971   9.978   0.839   8.967  1.0009 -0.4567 -0.8698
30472SOL     OW95972   9.361   7.529   1.332  0.2204 -0.3186 -0.3128
30472SOL    HW195973   9.298   7.476   1.283  0.0899 -0.5940  0.1465
30472SOL    HW295974   9.416   7.569   1.265  0.3982 -1.1328 -0.6662
30473SOL     OW95975   0.846   6.863   0.279  0.0015  0.8021 -0.0715
30473SOL    HW195976   0.803   6.881   0.196 -1.9274 -1.7601  0.2556
30473SOL    HW295977   0.777   6.873   0.345  0.9761  0.7545  1.0057
30474SOL     OW95978   0.537   4.248   8.329  0.0810 -0.7043 -0.0024
30474SOL    HW195979   0.452   4.220   8.362 -0.9427  0.1183 -1.8009
30474SOL    HW295980   0.569   4.174   8.278 -0.0785 -0.6175 -0.2314
30475SOL     OW95981   5.705   3.751  10.512  0.0411 -0.5485 -0.0840
30475SOL    HW195982   5.760   3.782  10.440  0.0105  1.0957  0.5617
30475SOL    HW295983   5.753   3.777  10.591 -0.3483 -1.5490  0.5045
30476SOL     OW95984   7.110   4.074   3.167 -0.1426 -0.2682  0.4154
30476SOL    HW195985   7.061   4.101   3.090 -2.3606  0.7042  2.0754
30476SOL    HW295986   7.118   4.154   3.220 -0.7569 -1.3794  2.2744
30477SOL     OW95987   8.495   8.843   8.570  0.0398  0.0630 -0.3597
30477SOL    HW195988   8.504   8.860   8.664  1.5879  0.4694 -0.5432
30477SOL    HW295989   8.554   8.906   8.529 -0.7605  0.0181 -1.6239
30478SOL     OW95990   8.792  10.735   3.447 -0.4190  0.4797  0.8782
30478SOL    HW195991   8.795  10.801   3.378  0.6666  1.2908  1.6561
30478SOL    HW295992   8.842  10.774   3.519 -0.4422 -0.8643  1.6509
30479SOL     OW95993  10.971   9.407   1.549  0.2134 -0.4724 -0.1643
30479SOL    HW195994  10.991   9.483   1.603 -0.6392 -0.4608  0.1493
30479SOL    HW295995  10.876   9.410   1.537  0.4825  0.2504 -2.7477
30480SOL     OW95996   5.304   8.554   0.886  1.0223  0.0321 -0.3207
30480SOL    HW195997   5.279   8.473   0.843  1.0851  0.2420 -0.7549
30480SOL    HW295998   5.392   8.573   0.854  0.7219  0.6607 -0.7922
30481SOL     OW95999   1.119   4.208   8.110  0.3004 -0.4147 -0.1604
30481SOL    HW196000   1.141   4.203   8.203 -1.0249 -0.4202  0.1742
30481SOL    HW296001   1.071   4.127   8.093 -1.4707  0.6076 -0.2742
30482SOL     OW96002   9.048   1.065   5.601 -0.0308 -0.0653  0.0743
30482SOL    HW196003   9.102   0.996   5.640 -1.6944 -1.7032 -0.3589
30482SOL    HW296004   8.989   1.018   5.542  0.5670  2.0303 -2.3810
30483SOL     OW96005   2.901   7.832   6.584 -0.3491  0.1238  0.6005
30483SOL    HW196006   2.816   7.876   6.589 -0.0110  1.1044 -1.1557
30483SOL    HW296007   2.929   7.847   6.493  1.5978 -0.3470  1.0912
30484SOL     OW96008  10.504   9.222   3.089  0.4541  0.3960 -0.0265
30484SOL    HW196009  10.463   9.307   3.109  1.1746  0.6173  0.5327
30484SOL    HW296010  10.571   9.211   3.156  1.0301 -0.1586 -0.6765
30485SOL     OW96011   1.413   9.095  10.269 -0.2759 -0.5414 -0.2968
30485SOL    HW196012   1.502   9.130  10.276 -0.8953  1.8168 -2.5221
30485SOL    HW296013   1.424   9.000  10.273  3.0860 -0.7286 -5.3423
30486SOL     OW96014   0.783   9.459   6.976 -0.1822  0.5074 -1.1590
30486SOL    HW196015   0.775   9.393   6.907 -1.5474  0.0422 -0.6037
30486SOL    HW296016   0.693   9.488   6.992  0.3387  2.2062 -1.0797
30487SOL     OW96017   1.891   5.289   5.206 -0.3898  0.4537 -0.2313
30487SOL    HW196018   1.847   5.216   5.249  0.0972  1.8591  2.8855
30487SOL    HW296019   1.966   5.250   5.161 -0.4886 -1.0430  0.8571
30488SOL     OW96020   1.820   5.002   6.123 -0.0555  0.4886  0.1529
30488SOL    HW196021   1.785   5.081   6.084  0.6388  0.6650 -0.1337
30488SOL    HW296022   1.745   4.944   6.134 -0.5684  1.1879  0.3686
30489SOL     OW96023   7.304   9.765  10.751 -0.1621  0.6628  0.0939
30489SOL    HW196024   7.309   9.701  10.680  0.0008 -1.3003  1.7738
30489SOL    HW296025   7.251   9.722  10.818  0.4499  2.0587  1.5313
30490SOL     OW96026   7.367   5.270   5.322  0.4544 -0.0663 -0.3565
30490SOL    HW196027   7.445   5.289   5.375  0.5520 -0.4068 -0.3770
30490SOL    HW296028   7.394   5.197   5.266  0.5426  0.6735 -1.2912
30491SOL     OW96029   6.706   6.354  10.686  0.4500 -0.0281  0.2021
30491SOL    HW196030   6.736   6.308  10.765 -0.6101 -0.3773  0.4230
30491SOL    HW296031   6.649   6.424  10.720  0.5983  0.2978 -0.2170
30492SOL     OW96032   3.248  10.488   6.606  0.1905 -0.1493  0.3766
30492SOL    HW196033   3.171  10.441   6.638 -0.2741 -0.7189 -1.4427
30492SOL    HW296034   3.211  10.559   6.553  0.9127 -0.5489 -0.6830
30493SOL     OW96035   8.975   0.990  10.678 -0.3444  0.0756 -0.3302
30493SOL    HW196036   8.958   1.084  10.666  1.6466  0.6620  1.0182
30493SOL    HW296037   8.913   0.963  10.745 -0.1001  0.7136  0.1594
30494SOL     OW96038   4.830   0.291  12.009 -0.6585 -0.6180  0.1883
30494SOL    HW196039   4.834   0.386  12.019 -0.5599 -0.5803 -0.1906
30494SOL    HW296040   4.788   0.260  12.089  0.2718 -0.3482  0.7973
30495SOL     OW96041   0.639   2.985   8.964  0.5878  0.6981 -0.0597
30495SOL    HW196042   0.600   3.004   9.049 -0.4468 -1.1965 -0.0597
30495SOL    HW296043   0.578   3.022   8.901 -0.5922 -1.0670 -0.0228
30496SOL     OW96044   5.031   7.764   6.714  0.1318 -0.1795  0.0511
30496SOL    HW196045   5.103   7.826   6.700 -0.0598 -0.2204 -1.2233
30496SOL    HW296046   4.972   7.780   6.641  0.0484 -1.8347 -0.2718
30497SOL     OW96047   8.218   2.934   5.329  0.2439 -0.2690  0.4078
30497SOL    HW196048   8.198   2.949   5.237 -1.2151  0.8334  0.8771
30497SOL    HW296049   8.260   3.014   5.359 -3.1853  1.2187  1.7122
30498SOL     OW96050   3.050   6.665   8.353 -0.1711  0.1049 -0.5096
30498SOL    HW196051   3.090   6.581   8.329 -0.0024  0.1574 -0.4070
30498SOL    HW296052   2.977   6.675   8.291 -0.4107 -0.2889 -0.2953
30499SOL     OW96053   6.099   3.838   9.979 -0.0444  0.5503 -0.1636
30499SOL    HW196054   6.107   3.922  10.023 -0.3637  0.0087  0.9607
30499SOL    HW296055   6.039   3.855   9.905 -1.0862  1.0528  0.7709
30500SOL     OW96056  10.696  11.990   9.436  0.1699  0.0420 -0.2160
30500SOL    HW196057  10.661  12.071   9.474  1.1382  0.7882 -0.8603
30500SOL    HW296058  10.787  12.011   9.414  0.9405 -1.7311  1.0661
30501SOL     OW96059   4.072   2.123   6.181  0.1555  0.3803  0.3984
30501SOL    HW196060   3.978   2.138   6.188 -0.0947 -0.4479 -0.9318
30501SOL    HW296061   4.098   2.167   6.100  0.7653 -0.0603  0.3453
30502SOL     OW96062   9.194  11.130   8.439 -0.2125 -0.6088 -0.0442
30502SOL    HW196063   9.219  11.046   8.478 -0.7771 -1.4529 -1.4309
30502SOL    HW296064   9.245  11.136   8.359  0.6782  0.9421  0.6006
30503SOL     OW96065   1.375   3.113   7.537  0.1897  0.1675 -0.0756
30503SOL    HW196066   1.454   3.157   7.505  1.2501 -2.2529 -0.9838
30503SOL    HW296067   1.399   3.021   7.540 -2.5411 -0.6058 -0.0898
30504SOL     OW96068   2.479   0.389   1.486  0.4592  0.0630 -0.5045
30504SOL    HW196069   2.509   0.298   1.490  1.4619  0.4028 -0.0293
30504SOL    HW296070   2.546   0.438   1.532  0.6626  1.2472 -1.9854
30505SOL     OW96071   0.556   0.635   6.290  0.5358  0.7079  0.6679
30505SOL    HW196072   0.556   0.685   6.372  1.2393  1.3404  0.3017
30505SOL    HW296073   0.608   0.557   6.309 -0.6466  0.0332  1.2726
30506SOL     OW96074   9.014  11.005   9.462  0.2639  0.5661 -0.2213
30506SOL    HW196075   8.952  11.077   9.459  0.0426  0.3980  0.2170
30506SOL    HW296076   9.031  10.983   9.370  0.7625  1.5406 -0.3763
30507SOL     OW96077   8.099   0.236   8.632 -0.1470 -0.2632  0.5800
30507SOL    HW196078   8.156   0.161   8.649  2.1933  0.6786 -2.2179
30507SOL    HW296079   8.025   0.199   8.585 -0.2565 -1.0994  1.3712
30508SOL     OW96080   8.211   7.734   7.800 -0.4069 -0.4298 -0.1965
30508SOL    HW196081   8.196   7.641   7.784 -0.2858 -0.5590  0.4233
30508SOL    HW296082   8.175   7.778   7.723 -0.8062 -0.9658 -0.3197
30509SOL     OW96083   1.145   6.443   3.393  0.2557  0.7638 -0.4118
30509SOL    HW196084   1.189   6.479   3.470 -1.3361  2.8048 -0.3458
30509SOL    HW296085   1.134   6.350   3.412  0.5704  1.0777  1.5132
30510SOL     OW96086   9.334   0.397   8.391 -0.0876  0.0899  0.3045
30510SOL    HW196087   9.389   0.386   8.314 -0.8322  0.5199 -0.3021
30510SOL    HW296088   9.324   0.492   8.401  0.8282  0.0828  1.5354
30511SOL     OW96089   8.567   2.493   6.120 -0.0356 -0.4065 -0.0890
30511SOL    HW196090   8.562   2.465   6.029  0.5009 -1.0943  0.0892
30511SOL    HW296091   8.534   2.583   6.119 -2.0170 -1.1040 -0.6280
30512SOL     OW96092   6.585   3.693   0.654  0.6362 -0.5213 -0.0203
30512SOL    HW196093   6.492   3.695   0.677  0.9521 -0.5525  1.3288
30512SOL    HW296094   6.600   3.603   0.623  0.2065 -0.4936 -0.3142
30513SOL     OW96095  10.823   7.488  11.948  0.2976  0.4300 -0.4453
30513SOL    HW196096  10.774   7.425  11.896 -0.6083  0.8429 -0.1145
30513SOL    HW296097  10.769   7.504  12.025  1.4653  0.0755  0.4796
30514SOL     OW96098   7.471   1.021   7.527 -0.9335 -0.5885  0.0528
30514SOL    HW196099   7.555   0.977   7.519 -0.3761  0.5705 -0.8621
30514SOL    HW296100   7.406   0.952   7.515 -0.1158 -0.9279 -4.1580
30515SOL     OW96101   4.916  11.777   7.081  0.2076  0.1646 -0.2167
30515SOL    HW196102   4.842  11.734   7.038  1.0902 -2.1955  0.4960
30515SOL    HW296103   4.940  11.848   7.021 -0.2739 -1.3548 -2.3480
30516SOL     OW96104  11.170   5.777   7.861  0.2765 -0.7124  0.1710
30516SOL    HW196105  11.101   5.733   7.811  0.7739 -1.3567  0.0422
30516SOL    HW296106  11.164   5.869   7.834 -0.7075 -0.7105  0.3653
30517SOL     OW96107   3.829   7.018   2.703  0.5329  0.5389 -0.5585
30517SOL    HW196108   3.752   6.964   2.722  0.7016  0.0672 -1.1843
30517SOL    HW296109   3.898   6.954   2.683  0.9564  0.9702 -0.5020
30518SOL     OW96110   7.919   1.605   6.651  0.0515  0.2421  0.4063
30518SOL    HW196111   7.960   1.536   6.598  2.3099 -0.4869  2.8613
30518SOL    HW296112   7.897   1.561   6.733 -0.9320  1.8859  1.0531
30519SOL     OW96113   4.449   8.022   4.995  0.0304 -0.1556  0.4636
30519SOL    HW196114   4.362   8.028   5.034 -0.3985  0.7550 -0.5584
30519SOL    HW296115   4.458   8.103   4.944  0.4621 -1.3327 -1.4441
30520SOL     OW96116   3.765   4.378   2.142  0.1182  0.0734 -0.2469
30520SOL    HW196117   3.800   4.464   2.167 -0.1561  0.4108 -1.0044
30520SOL    HW296118   3.718   4.348   2.220 -1.6798  1.6041 -0.6753
30521SOL     OW96119   1.762   7.959  12.069 -0.0227 -0.1869 -0.2158
30521SOL    HW196120   1.812   8.038  12.092 -0.1274  0.0127 -0.6691
30521SOL    HW296121   1.674   7.976  12.103  0.4241 -0.9335  1.4350
30522SOL     OW96122   4.653   3.399   1.761 -0.0261  0.2371 -0.0656
30522SOL    HW196123   4.692   3.404   1.673 -0.1449 -0.3971 -0.1605
30522SOL    HW296124   4.724   3.366   1.816  0.1946  1.0942  0.1796
30523SOL     OW96125   1.017   7.940   0.327  0.0938 -0.5286  0.5318
30523SOL    HW196126   0.930   7.907   0.352 -0.7463  0.0234 -1.4235
30523SOL    HW296127   1.022   7.925   0.233  0.7175  2.4223 -0.0180
30524SOL     OW96128   8.420   1.448   8.778 -0.0810 -0.0680  0.0207
30524SOL    HW196129   8.476   1.443   8.856 -0.0772  2.1237  0.2321
30524SOL    HW296130   8.331   1.434   8.811 -0.0856  0.9137  0.4572
30525SOL     OW96131   9.789   2.283   8.405 -0.6697  0.1038  0.6440
30525SOL    HW196132   9.698   2.281   8.375 -1.2038 -1.8893  2.1357
30525SOL    HW296133   9.796   2.209   8.465  2.1873 -0.3748 -0.0912
30526SOL     OW96134   7.516   1.159  10.212  0.4531 -0.0983  0.3846
30526SOL    HW196135   7.493   1.194  10.299  0.9485  0.7846  0.1737
30526SOL    HW296136   7.457   1.085  10.200  2.1600 -1.9705  2.6081
30527SOL     OW96137   0.167   9.803   3.408 -0.6085 -0.0481  0.9188
30527SOL    HW196138   0.104   9.793   3.337 -0.3675 -1.6349  0.8853
30527SOL    HW296139   0.178   9.714   3.443  0.7158  0.3877  1.6878
30528SOL     OW96140   5.006   1.242   3.512  0.0228 -0.2545 -0.3935
30528SOL    HW196141   5.082   1.206   3.466 -1.0482 -1.7198 -1.1064
30528SOL    HW296142   4.948   1.272   3.443 -0.2744  0.4201  0.1328
30529SOL     OW96143   5.902  10.866   3.256  0.0523  0.4612 -0.0217
30529SOL    HW196144   5.962  10.887   3.183 -1.8280  0.0728 -1.7631
30529SOL    HW296145   5.833  10.931   3.249 -1.4953 -1.1378 -0.2193
30530SOL     OW96146   6.804  10.602  11.782  0.2443  0.0797 -0.4565
30530SOL    HW196147   6.813  10.514  11.819  2.8651  0.7969  0.8559
30530SOL    HW296148   6.711  10.609  11.760 -0.0484 -2.9942 -0.6330
30531SOL     OW96149   3.683   5.745   5.969  0.8108 -0.0510 -0.2274
30531SOL    HW196150   3.659   5.837   5.969  0.0273 -0.2357 -1.3233
30531SOL    HW296151   3.643   5.709   6.048 -0.5448  0.1522 -0.8041
30532SOL     OW96152  10.930   8.416   9.976 -0.5939  0.2186 -0.4062
30532SOL    HW196153  10.939   8.428  10.071 -0.1329 -1.1405 -0.2465
30532SOL    HW296154  10.847   8.456   9.954 -0.6181  0.7257  0.5467
30533SOL     OW96155  11.543   2.292   6.499 -0.3183 -0.1567 -0.0309
30533SOL    HW196156  11.558   2.197   6.498  1.1819  0.0343  0.7370
30533SOL    HW296157  11.562   2.318   6.590  4.0151  1.4704 -1.1320
30534SOL     OW96158   6.617   3.379   9.111  0.2842  0.2643 -0.3261
30534SOL    HW196159   6.646   3.411   9.026  0.5370 -0.8500 -0.6737
30534SOL    HW296160   6.577   3.294   9.093 -0.8853  0.6114  0.4973
30535SOL     OW96161   0.839   7.226   7.735 -0.2973 -0.2640 -0.4971
30535SOL    HW196162   0.868   7.256   7.649  2.8099  1.2219  0.9190
30535SOL    HW296163   0.772   7.289   7.762  1.2842  1.4766 -0.4235
30536SOL     OW96164   0.969   3.448   5.827 -0.1385  0.2501  0.2344
30536SOL    HW196165   0.874   3.435   5.830  0.0684 -1.2240  1.8599
30536SOL    HW296166   0.999   3.396   5.753 -0.5968  0.9542 -0.4692
30537SOL     OW96167   6.833   4.366   5.427  0.0659 -0.5805  0.1215
30537SOL    HW196168   6.771   4.426   5.469  1.2368 -1.0246  2.6929
30537SOL    HW296169   6.825   4.285   5.476  0.7466 -1.5508 -1.3003
30538SOL     OW96170  10.171   2.477   6.727 -0.0892 -0.2229  0.1950
30538SOL    HW196171  10.137   2.415   6.662 -1.3989 -1.3497  1.8739
30538SOL    HW296172  10.243   2.521   6.682  0.3358 -2.3358 -1.3741
30539SOL     OW96173   0.720   6.360   8.903  0.1882 -0.1726 -0.4859
30539SOL    HW196174   0.740   6.273   8.867  0.3974 -0.3153 -0.0264
30539SOL    HW296175   0.654   6.343   8.970  1.4836 -0.1960  0.8201
30540SOL     OW96176   6.433   3.513   1.289  0.2061  0.1665 -0.6334
30540SOL    HW196177   6.426   3.420   1.312 -0.2878 -0.4774 -3.0772
30540SOL    HW296178   6.521   3.538   1.316 -0.7354  0.0275  3.2043
30541SOL     OW96179   1.623  11.351   4.106  0.1378  0.1377  0.2753
30541SOL    HW196180   1.604  11.281   4.168 -0.4229  1.3817  1.5559
30541SOL    HW296181   1.702  11.322   4.061 -0.0541 -1.2902  0.7895
30542SOL     OW96182  10.288   4.601   8.310  0.2453  0.0389 -0.5074
30542SOL    HW196183  10.374   4.643   8.298  0.0811  0.4307 -0.3291
30542SOL    HW296184  10.248   4.649   8.382 -0.7627  0.8833 -1.6089
30543SOL     OW96185  10.348   8.309   9.647 -0.5288 -0.0236 -0.7308
30543SOL    HW196186  10.346   8.328   9.553 -0.2431  1.1347 -0.5074
30543SOL    HW296187  10.266   8.344   9.680 -0.6082 -0.3940 -0.5292
30544SOL     OW96188   6.858  12.062   4.892  0.3414  0.5190  0.3953
30544SOL    HW196189   6.852  12.059   4.797 -0.0352  1.4835  0.3697
30544SOL    HW296190   6.949  12.088   4.909  1.2393 -2.2961  0.4148
30545SOL     OW96191   0.559   8.887  10.875 -0.2765 -0.0366  0.4134
30545SOL    HW196192   0.635   8.875  10.818  0.8899  1.5044  1.5732
30545SOL    HW296193   0.573   8.826  10.947 -0.0624  0.3381  0.6917
30546SOL     OW96194   9.668   2.520   1.573  0.4397  0.4932 -0.3256
30546SOL    HW196195   9.644   2.487   1.486  2.0229  1.1503 -1.0756
30546SOL    HW296196   9.631   2.608   1.576  0.4191  0.4864 -0.3668
30547SOL     OW96197   0.407   0.374  10.167 -0.2765 -0.1826 -0.5060
30547SOL    HW196198   0.373   0.461  10.148  0.4467  0.2248  0.0328
30547SOL    HW296199   0.350   0.315  10.118 -2.1106  0.4344  0.7768
30548SOL     OW96200  10.305   2.838  11.266  0.1456 -0.4814  0.7242
30548SOL    HW196201  10.231   2.839  11.206 -1.2255 -1.2766  2.3371
30548SOL    HW296202  10.290   2.763  11.323  1.3496  0.2760  2.1348
30549SOL     OW96203   4.310   0.108   2.358  0.0211 -0.0762 -0.0395
30549SOL    HW196204   4.378   0.040   2.358  0.3188  0.1933 -1.3273
30549SOL    HW296205   4.323   0.155   2.440 -0.7936 -2.1412  1.3625
30550SOL     OW96206   9.148   3.743  12.111  0.0243 -0.1563  0.4628
30550SOL    HW196207   9.188   3.658  12.126 -2.7882 -1.9279 -1.1171
30550SOL    HW296208   9.192   3.776  12.032  0.2096 -0.7995  0.2894
30551SOL     OW96209   4.911  10.382   4.784  0.0974  0.1286 -0.0538
30551SOL    HW196210   4.923  10.355   4.875  1.5818 -0.0185 -0.2630
30551SOL    HW296211   4.990  10.433   4.764 -1.4710  2.5712 -0.4105
30552SOL     OW96212   6.729   1.178   4.171 -0.6705  0.1336  0.2185
30552SOL    HW196213   6.812   1.207   4.207 -0.9841  1.4772 -0.0786
30552SOL    HW296214   6.699   1.109   4.230  0.3621  0.0611  0.6674
30553SOL     OW96215   6.636   2.045   5.986  0.1207 -0.3257  0.3250
30553SOL    HW196216   6.679   2.051   5.900 -0.5866  0.2844  0.0012
30553SOL    HW296217   6.647   2.133   6.024 -0.7778 -0.1735  0.2555
30554SOL     OW96218   7.318   5.516   3.558 -0.0845 -0.1241 -0.0013
30554SOL    HW196219   7.381   5.446   3.575 -0.2719  0.3092  3.0803
30554SOL    HW296220   7.234   5.479   3.586 -0.8894  0.0875 -1.9522
30555SOL     OW96221   8.916   8.947   5.107 -0.6393 -0.2995 -0.6433
30555SOL    HW196222   8.891   8.966   5.197  0.1029  1.2128 -0.7321
30555SOL    HW296223   8.855   8.999   5.054  0.8639  1.2572 -0.9151
30556SOL     OW96224   9.679  10.153   2.347  0.3698  0.2710  0.1718
30556SOL    HW196225   9.627  10.217   2.298 -3.3003  2.1329  5.5560
30556SOL    HW296226   9.635  10.069   2.331 -0.7259  0.8201  0.2258
30557SOL     OW96227  12.014   9.201   9.256  0.0790 -0.1753  0.4436
30557SOL    HW196228  12.083   9.256   9.294 -0.0500 -0.7928  1.5956
30557SOL    HW296229  12.028   9.115   9.295 -1.3636 -0.3029  0.7112
30558SOL     OW96230   9.574   3.700  10.923  0.8775 -0.5806  0.2095
30558SOL    HW196231   9.597   3.691  10.831 -0.3820  0.0664 -0.2007
30558SOL    HW296232   9.636   3.765  10.957  0.3664  0.3678 -0.6014
30559SOL     OW96233  11.286   4.557   7.219 -0.4782 -0.2950  0.0488
30559SOL    HW196234  11.359   4.555   7.158 -0.7575  2.1473 -0.4651
30559SOL    HW296235  11.208   4.546   7.165 -0.5815 -3.9569  0.7016
30560SOL     OW96236   8.397  11.536   0.202 -0.7084  0.0788  0.2749
30560SOL    HW196237   8.465  11.487   0.156  1.1208  2.3410  0.3962
30560SOL    HW296238   8.364  11.598   0.137  0.0373  1.5116  1.2002
30561SOL     OW96239  12.054  11.848   0.721  0.2318 -0.3710 -0.3937
30561SOL    HW196240  11.967  11.872   0.690  0.1971  1.8885  1.2400
30561SOL    HW296241  12.076  11.770   0.671 -1.8030  0.2643 -2.4637
30562SOL     OW96242   9.516   5.495   4.193  0.0292  0.3874 -0.0421
30562SOL    HW196243   9.421   5.489   4.198  0.0545  0.2502  0.3098
30562SOL    HW296244   9.548   5.428   4.253  0.3199  1.9359  1.6415
30563SOL     OW96245   1.370  11.070   2.741 -0.2942 -0.4215 -0.2854
30563SOL    HW196246   1.344  10.992   2.692  0.4164 -0.2804 -0.9063
30563SOL    HW296247   1.460  11.051   2.770 -0.3635 -0.1111  0.1501
30564SOL     OW96248   8.984   9.196   9.204  0.5114 -0.4696 -0.5987
30564SOL    HW196249   9.020   9.173   9.118  0.8806 -1.0291 -0.3010
30564SOL    HW296250   8.972   9.291   9.200  2.5479 -0.1598 -0.5285
30565SOL     OW96251   2.310   3.795   7.064 -0.0126 -0.3448  0.8148
30565SOL    HW196252   2.359   3.760   7.139  2.1807 -2.6407 -1.4758
30565SOL    HW296253   2.264   3.718   7.029  0.7520  0.1393 -1.3888
30566SOL     OW96254   1.161  10.521   4.687 -0.5514  0.4496 -0.0906
30566SOL    HW196255   1.233  10.571   4.649 -0.3983  1.3455  1.3339
30566SOL    HW296256   1.168  10.536   4.781 -0.9339 -1.6786  0.3334
30567SOL     OW96257   2.868   0.888   5.948  0.0494  0.0589 -0.3469
30567SOL    HW196258   2.935   0.849   6.004 -0.4570 -0.8953 -0.3924
30567SOL    HW296259   2.902   0.975   5.927  0.5448  0.1878  0.9143
30568SOL     OW96260   6.395   4.300   9.512 -0.5950  0.5554 -0.0497
30568SOL    HW196261   6.478   4.316   9.557  0.1320  2.6360 -1.9481
30568SOL    HW296262   6.347   4.383   9.520 -2.0375 -0.2338 -0.0012
30569SOL     OW96263   9.303   6.916   7.114  0.2354 -0.0636 -0.5698
30569SOL    HW196264   9.364   6.989   7.105  0.5461 -0.4063 -1.3685
30569SOL    HW296265   9.304   6.895   7.207 -0.8143  1.7464 -0.1056
30570SOL     OW96266  11.300   3.895   2.049 -0.2088 -0.2908  0.2674
30570SOL    HW196267  11.253   3.943   1.982  0.4362 -1.3128 -0.9653
30570SOL    HW296268  11.238   3.887   2.122 -1.3482 -0.1970 -0.6706
30571SOL     OW96269   3.086   8.462  10.902 -0.0142 -0.5565 -0.8035
30571SOL    HW196270   2.994   8.467  10.878  0.1810  2.2779 -1.3273
30571SOL    HW296271   3.134   8.489  10.824  1.0634  0.8430  0.2636
30572SOL     OW96272   8.572   3.970   6.466 -0.3731 -0.3221  0.2102
30572SOL    HW196273   8.593   4.061   6.488 -0.7595  0.2640 -1.6549
30572SOL    HW296274   8.478   3.962   6.484 -0.5617 -0.0154 -0.5548
30573SOL     OW96275   6.650   6.002   8.077  0.3156 -0.2692  0.3388
30573SOL    HW196276   6.720   5.939   8.095  0.9681  0.5734  0.8515
30573SOL    HW296277   6.684   6.056   8.006  0.3976  0.4507  0.9180
30574SOL     OW96278   2.281   1.506   0.981 -0.3140 -0.4605  0.4597
30574SOL    HW196279   2.230   1.427   1.001  0.6675 -0.7628  1.9461
30574SOL    HW296280   2.229   1.578   1.016 -2.6466  0.0031 -3.4249
30575SOL     OW96281  11.547   2.923   8.163  0.5110  0.0454  0.2007
30575SOL    HW196282  11.615   2.866   8.128  1.7984  0.9097  1.1952
30575SOL    HW296283  11.560   3.007   8.118  1.6137  0.8968  2.0019
30576SOL     OW96284  11.498  11.029   2.506 -0.0550  0.1976  0.6180
30576SOL    HW196285  11.570  11.057   2.449 -0.8328  2.0242  0.4530
30576SOL    HW296286  11.437  10.985   2.447  0.5289 -0.6113  0.6068
30577SOL     OW96287   5.060   0.839   5.480  0.4219  0.2466 -0.2064
30577SOL    HW196288   5.132   0.899   5.500  1.5314 -1.2710  0.4932
30577SOL    HW296289   5.000   0.849   5.553  0.0679  1.2683 -0.6201
30578SOL     OW96290   1.094   7.827   5.515  0.0538 -0.2392  0.4352
30578SOL    HW196291   1.069   7.751   5.463  0.4094 -0.6026  0.7888
30578SOL    HW296292   1.018   7.885   5.512  0.0245 -0.3074 -0.3836
30579SOL     OW96293  11.300  10.603   4.278 -0.0943  0.6058 -0.0908
30579SOL    HW196294  11.262  10.520   4.306 -0.6328  0.9834  0.3186
30579SOL    HW296295  11.298  10.658   4.357  0.1546  1.0456 -0.3878
30580SOL     OW96296   9.499   7.589   9.845 -1.1275 -0.7156  0.5544
30580SOL    HW196297   9.414   7.545   9.844 -1.5200  0.0390 -0.1754
30580SOL    HW296298   9.485   7.669   9.795  0.2054 -0.9319 -0.2037
30581SOL     OW96299  11.069   9.808   2.714 -0.2647 -0.0357 -0.4689
30581SOL    HW196300  11.144   9.814   2.655  0.3170 -1.3452  0.0848
30581SOL    HW296301  11.107   9.784   2.799 -1.2193  0.3402  0.0814
30582SOL     OW96302   7.977  11.252   8.853  0.2650 -0.2067  0.5017
30582SOL    HW196303   7.941  11.329   8.897 -0.9018  1.2104 -2.5702
30582SOL    HW296304   8.071  11.263   8.860  0.1147  1.0226  0.9481
30583SOL     OW96305   2.661   6.287   9.689 -0.2101  0.2334  0.5414
30583SOL    HW196306   2.714   6.209   9.676 -0.2053  0.3754 -0.3136
30583SOL    HW296307   2.598   6.287   9.617  0.9548  1.9663 -0.5481
30584SOL     OW96308   8.399   9.757   2.673 -0.1104 -0.0935 -0.3088
30584SOL    HW196309   8.374   9.788   2.760 -0.4822  0.4356 -0.6002
30584SOL    HW296310   8.489   9.788   2.662  0.7498 -2.0399  0.7569
30585SOL     OW96311  10.548   3.346   2.535  0.1211 -0.4765 -0.6244
30585SOL    HW196312  10.588   3.259   2.531  2.7865  0.4241  2.3173
30585SOL    HW296313  10.485   3.339   2.607  0.4938  0.0466 -0.2403
30586SOL     OW96314   4.185   9.668   1.864 -0.1782  0.1559 -0.6279
30586SOL    HW196315   4.253   9.602   1.878 -0.4488  0.0618  0.3711
30586SOL    HW296316   4.203   9.735   1.930 -1.1058  0.0793 -0.2771
30587SOL     OW96317   6.216   6.406   6.135  0.4559  0.6240  0.2464
30587SOL    HW196318   6.211   6.428   6.228  1.2568 -0.8942  0.6732
30587SOL    HW296319   6.308   6.419   6.112 -0.0010  2.4452 -0.7510
30588SOL     OW96320   0.572   7.929   1.461  0.4003  0.3974 -0.2736
30588SOL    HW196321   0.536   7.999   1.406 -1.0535 -0.9255 -1.0916
30588SOL    HW296322   0.610   7.867   1.400 -0.4247 -0.6595  0.2432
30589SOL     OW96323   7.261  10.343   2.469 -0.5430 -0.0221 -0.2214
30589SOL    HW196324   7.196  10.338   2.539 -1.0232  0.3142 -0.6271
30589SOL    HW296325   7.243  10.427   2.427  0.3962  0.2356 -0.1196
30590SOL     OW96326   3.788   2.378   6.952  0.4276 -0.0238 -0.0532
30590SOL    HW196327   3.786   2.474   6.955  0.1293 -0.0509  1.1414
30590SOL    HW296328   3.845   2.353   7.024  1.2098 -0.7384 -0.9071
30591SOL     OW96329   0.752   2.727   9.964  0.3179 -0.2487  0.6593
30591SOL    HW196330   0.842   2.754   9.980  0.7587 -0.9201 -0.5718
30591SOL    HW296331   0.717   2.794   9.904  0.4106 -0.6792  0.1193
30592SOL     OW96332   4.054  10.595   9.507 -0.2335  0.1502  0.5914
30592SOL    HW196333   4.017  10.559   9.426 -0.0229 -1.7686  1.3061
30592SOL    HW296334   4.028  10.534   9.575  3.7972 -1.1897  1.2259
30593SOL     OW96335   6.107   3.960   9.631 -0.1523  0.3871  0.5356
30593SOL    HW196336   6.022   3.946   9.675 -1.1139  4.3306  0.2790
30593SOL    HW296337   6.084   3.978   9.540  1.0753  0.7216  0.2794
30594SOL     OW96338   6.362   7.961  10.169 -0.0164  0.3593 -0.2764
30594SOL    HW196339   6.441   7.966  10.224  1.7186 -1.0839 -2.4664
30594SOL    HW296340   6.384   8.012  10.091 -1.7557  0.9356 -0.4127
30595SOL     OW96341   2.962   8.868   6.752  0.2177 -0.0302 -0.2528
30595SOL    HW196342   2.903   8.922   6.805 -1.3436 -0.7848 -1.1389
30595SOL    HW296343   2.992   8.799   6.811 -0.2067  0.0657  0.0787
30596SOL     OW96344   7.316   8.116   8.495  0.4691  0.3548 -0.7040
30596SOL    HW196345   7.347   8.028   8.515 -2.2407 -1.0869 -2.2557
30596SOL    HW296346   7.396   8.169   8.487  2.1882 -1.9786  0.0544
30597SOL     OW96347   2.398   0.262  11.029 -0.7273 -0.6435 -0.3281
30597SOL    HW196348   2.315   0.310  11.022 -0.5570 -0.1958  0.5337
30597SOL    HW296349   2.428   0.280  11.118  0.2723 -0.8501 -0.6149
30598SOL     OW96350  11.727   6.151   5.088 -0.2962  0.8906  0.3608
30598SOL    HW196351  11.719   6.059   5.113  0.7318 -0.0558 -2.4396
30598SOL    HW296352  11.772   6.193   5.162 -0.4031 -0.9232  1.5028
30599SOL     OW96353   0.906  10.827   5.385  0.0416  0.0150  0.5894
30599SOL    HW196354   0.946  10.743   5.409 -1.3239 -0.5289  1.0766
30599SOL    HW296355   0.812  10.815   5.403 -0.4782  0.9593 -1.2267
30600SOL     OW96356   8.751   2.197   2.251 -0.3457  0.6117  0.1566
30600SOL    HW196357   8.827   2.159   2.207  0.0676  0.9572  0.5713
30600SOL    HW296358   8.769   2.291   2.252  0.0150  0.5531  1.7440
30601SOL     OW96359   1.269   0.395   8.571  0.6058  0.0341 -0.2372
30601SOL    HW196360   1.220   0.455   8.514  2.1879  0.7133 -0.9230
30601SOL    HW296361   1.354   0.436   8.583  0.6392 -0.5460  1.9253
30602SOL     OW96362   9.216   2.003   9.429 -0.3443 -0.1221  0.1068
30602SOL    HW196363   9.143   1.946   9.406  0.1407 -0.4466 -0.6337
30602SOL    HW296364   9.294   1.951   9.413  0.0466 -0.4666  2.7388
30603SOL     OW96365   2.796   8.935   2.840 -0.2354  0.7664  0.3235
30603SOL    HW196366   2.847   8.976   2.770 -1.5469  1.6808 -0.1399
30603SOL    HW296367   2.706   8.933   2.806 -0.2641 -2.7108  0.2495
30604SOL     OW96368   8.424   8.230   8.671 -0.5270  0.1224  0.2673
30604SOL    HW196369   8.441   8.200   8.581 -1.4950  0.5446 -0.0761
30604SOL    HW296370   8.433   8.325   8.666 -1.2890  0.2067  0.4484
30605SOL     OW96371   1.087   0.989   0.477 -0.6641  0.1394 -0.2683
30605SOL    HW196372   1.072   1.083   0.486 -2.6165 -0.1531  0.1697
30605SOL    HW296373   1.021   0.949   0.535  0.2018 -1.4903 -0.3507
30606SOL     OW96374   3.800   4.988   9.586  0.0419 -0.8715 -0.0055
30606SOL    HW196375   3.879   5.012   9.537  0.8039 -2.9790  0.0960
30606SOL    HW296376   3.729   4.993   9.522 -0.0190  2.0190  0.1247
30607SOL     OW96377   4.090   9.110   7.181  0.2720 -0.2764  0.0491
30607SOL    HW196378   4.154   9.127   7.250  0.9126 -1.7822 -0.1258
30607SOL    HW296379   4.006   9.132   7.220  0.8900  2.4115  0.0639
30608SOL     OW96380   8.133   6.756   3.055  0.4029  0.8214  0.1702
30608SOL    HW196381   8.078   6.827   3.090 -0.0835  1.3152 -1.5016
30608SOL    HW296382   8.146   6.698   3.129  0.3721  2.3826  1.4690
30609SOL     OW96383   6.836   5.189  10.608 -0.1407  0.4802 -0.0430
30609SOL    HW196384   6.796   5.254  10.667  0.3655  1.1845 -0.4608
30609SOL    HW296385   6.900   5.239  10.558 -0.1456 -0.2376 -0.7763
30610SOL     OW96386   4.759   0.338   6.028  0.1786  0.4786  0.1544
30610SOL    HW196387   4.769   0.356   6.121 -0.2061  0.3372  0.2241
30610SOL    HW296388   4.673   0.372   6.005  0.4913  1.0006 -0.2742
30611SOL     OW96389   6.711   4.298   8.017 -0.3519 -0.4039 -0.4152
30611SOL    HW196390   6.766   4.370   8.049 -0.1861  0.0248 -1.5974
30611SOL    HW296391   6.622   4.331   8.026 -0.4031 -0.8084  0.8015
30612SOL     OW96392  11.205  10.587   8.190 -0.1207  0.0958 -0.0695
30612SOL    HW196393  11.149  10.520   8.230  0.0220  0.5513  0.9413
30612SOL    HW296394  11.284  10.586   8.244  0.6367 -0.1776 -1.1640
30613SOL     OW96395   5.997   7.554   2.127 -0.5594 -0.0733 -0.0471
30613SOL    HW196396   6.072   7.613   2.136 -0.4692 -0.2953  0.7203
30613SOL    HW296397   5.921   7.611   2.119 -0.5787  0.1762  1.5559
30614SOL     OW96398   6.027   1.768   1.104 -0.1098 -0.4540 -0.5146
30614SOL    HW196399   6.032   1.764   1.008 -0.9781 -0.9008 -0.5473
30614SOL    HW296400   6.056   1.857   1.125  2.2171 -1.0347 -1.0209
30615SOL     OW96401   4.328   0.146   5.099  0.3554 -0.3403  0.2318
30615SOL    HW196402   4.293   0.082   5.037 -2.2634  1.9750 -0.8878
30615SOL    HW296403   4.309   0.108   5.185 -0.4552 -1.4088 -0.3814
30616SOL     OW96404   6.306   8.778   4.800  0.0957  0.0284  0.1706
30616SOL    HW196405   6.264   8.692   4.793  2.2940 -1.0095 -1.2450
30616SOL    HW296406   6.369   8.768   4.871  0.0416  0.6471  0.3122
30617SOL     OW96407   5.973   2.242   2.107  0.4792 -0.0104 -0.4244
30617SOL    HW196408   6.021   2.181   2.051 -1.0161 -0.5434 -1.1669
30617SOL    HW296409   5.992   2.213   2.196 -0.1658 -1.5537 -0.7647
30618SOL     OW96410  10.994   0.222   7.766  0.4855  0.3203  0.7146
30618SOL    HW196411  11.037   0.263   7.841 -0.2074 -0.8615  1.8134
30618SOL    HW296412  11.065   0.180   7.717  0.7036 -1.3888  2.3587
30619SOL     OW96413  10.320   3.234   4.305  0.4776 -0.5104  0.2415
30619SOL    HW196414  10.371   3.161   4.341  1.1334 -0.1775 -0.0101
30619SOL    HW296415  10.383   3.305   4.295 -0.1586  0.1035  0.4873
30620SOL     OW96416   2.812   4.264   7.464  1.0163  0.3614 -0.4486
30620SOL    HW196417   2.862   4.192   7.502  1.4198  0.3185 -1.0544
30620SOL    HW296418   2.875   4.310   7.409  0.4733  0.5212 -0.9352
30621SOL     OW96419  10.230   1.686   9.136  0.1167  0.0614 -0.9088
30621SOL    HW196420  10.200   1.648   9.219 -1.3672  0.2368 -1.3254
30621SOL    HW296421  10.309   1.637   9.114  1.1568  0.6979  1.1136
30622SOL     OW96422   3.293  10.907   9.219  0.4550  0.0391 -0.5917
30622SOL    HW196423   3.309  10.919   9.125  1.1625 -0.3878 -0.5365
30622SOL    HW296424   3.228  10.974   9.241  0.8093  0.6143 -1.2415
30623SOL     OW96425   4.924   8.967  11.839  0.5252 -0.2320  0.0655
30623SOL    HW196426   4.855   9.033  11.829 -0.6997 -1.5291 -0.3565
30623SOL    HW296427   5.005   9.018  11.846 -0.4347  1.3240  0.3134
30624SOL     OW96428   7.817   3.573   0.111  0.3980 -0.2162  0.2467
30624SOL    HW196429   7.773   3.639   0.165 -1.9175  0.4263 -2.1783
30624SOL    HW296430   7.845   3.622   0.033 -0.4775 -1.8642 -1.1614
30625SOL     OW96431  12.010   3.627   9.271 -0.3947  0.5228 -0.1156
30625SOL    HW196432  12.054   3.688   9.329 -1.1461  0.1250  0.9073
30625SOL    HW296433  11.981   3.680   9.197 -1.3975  1.5215  0.9450
30626SOL     OW96434   6.663   5.399   1.728 -0.0293 -0.3862 -0.2866
30626SOL    HW196435   6.640   5.438   1.812 -0.1186 -0.4604 -0.2765
30626SOL    HW296436   6.699   5.472   1.677 -0.8640 -0.1222 -0.5193
30627SOL     OW96437   5.189   7.242   0.985  0.2857 -0.1783 -0.4218
30627SOL    HW196438   5.281   7.214   0.991  0.4497  0.1761 -1.1535
30627SOL    HW296439   5.175   7.294   1.064  0.6722 -0.3486 -0.2364
30628SOL     OW96440  11.203   4.975   8.736  0.8451 -0.1726  0.1741
30628SOL    HW196441  11.211   4.978   8.641 -1.7175  2.5636 -0.1164
30628SOL    HW296442  11.109   4.965   8.751  0.8678  1.9904  2.3193
30629SOL     OW96443   1.393  10.026   8.473 -0.4655  0.2740  0.0575
30629SOL    HW196444   1.301  10.049   8.490 -0.2221  0.4296  1.2748
30629SOL    HW296445   1.442  10.098   8.513  0.1970  0.0639 -0.3747
30630SOL     OW96446   0.314   3.894   8.817  0.2042  0.8840 -0.0038
30630SOL    HW196447   0.270   3.969   8.778  1.3970  0.3770 -2.4818
30630SOL    HW296448   0.265   3.818   8.785  0.2851  0.4853  0.7717
30631SOL     OW96449  10.838   8.551   6.647  0.6608  0.3667  0.0560
30631SOL    HW196450  10.823   8.594   6.731  1.5704  1.1286 -0.1539
30631SOL    HW296451  10.900   8.481   6.666  1.1534  0.7742 -0.0392
30632SOL     OW96452  11.976   8.604   0.028  0.2219  0.0357  0.1591
30632SOL    HW196453  11.985   8.681   0.083  0.5361 -0.0064  0.1687
30632SOL    HW296454  12.016   8.533   0.078  0.6888  0.0379 -0.2074
30633SOL     OW96455  11.388   6.257   3.127 -0.4011 -0.0879 -0.7123
30633SOL    HW196456  11.443   6.228   3.200 -1.2063 -4.2400 -1.4872
30633SOL    HW296457  11.448   6.259   3.052 -0.0061  2.1803 -0.4029
30634SOL     OW96458   6.847   7.879  11.003  0.4009 -0.3373 -0.3227
30634SOL    HW196459   6.849   7.904  10.910 -0.4355 -2.0823 -0.8706
30634SOL    HW296460   6.938   7.882  11.031  0.7750 -0.5345 -1.4431
30635SOL     OW96461   0.947   0.836   0.906 -0.3072 -0.0571  0.3077
30635SOL    HW196462   1.013   0.767   0.898 -0.7729 -0.2861 -3.0470
30635SOL    HW296463   0.886   0.803   0.972  0.4083 -2.0812  0.0293
30636SOL     OW96464   5.024   1.975   5.488  0.3775 -0.4852 -0.3955
30636SOL    HW196465   5.014   1.965   5.393  1.6732 -0.6104 -0.5297
30636SOL    HW296466   5.117   1.962   5.504  0.2463 -0.0006  0.8456
30637SOL     OW96467   4.121   8.571   1.834 -0.1194 -0.9697  0.1956
30637SOL    HW196468   4.056   8.634   1.861  0.2177 -0.9077  0.8823
30637SOL    HW296469   4.172   8.553   1.913 -0.5574 -2.5174  0.1598
30638SOL     OW96470   0.048   1.262   0.870  0.1514 -1.0389  0.3580
30638SOL    HW196471   0.062   1.169   0.888  4.7423 -0.4708  0.9526
30638SOL    HW296472   0.041   1.268   0.775  0.1312 -1.9621  0.2998
30639SOL     OW96473   8.494   3.390   9.951 -0.1710 -0.3817  0.0546
30639SOL    HW196474   8.564   3.326   9.946 -0.2971 -0.4406 -1.5823
30639SOL    HW296475   8.415   3.339   9.969 -0.4189 -0.8580 -2.1172
30640SOL     OW96476   9.925   5.615   3.602 -0.0765 -0.2140  0.6704
30640SOL    HW196477   9.983   5.591   3.530 -0.0543  0.4524  0.4562
30640SOL    HW296478   9.876   5.690   3.569 -0.8933 -0.6205  0.9392
30641SOL     OW96479   7.837   5.853   2.037  0.4882 -0.1553  0.2683
30641SOL    HW196480   7.784   5.891   2.108 -1.4559 -1.8170 -0.2040
30641SOL    HW296481   7.879   5.777   2.077  1.7781  0.5665  0.3567
30642SOL     OW96482   8.489   2.451   4.929  0.3086 -0.0754  0.0307
30642SOL    HW196483   8.400   2.479   4.952 -0.3519 -0.0929 -2.2971
30642SOL    HW296484   8.481   2.357   4.911  1.0761 -0.3371  0.9590
30643SOL     OW96485   1.449   8.724   3.255 -0.4097  0.1403 -0.4657
30643SOL    HW196486   1.480   8.655   3.196 -0.3952  0.4729 -0.8523
30643SOL    HW296487   1.520   8.735   3.319  0.2877  0.8735 -1.3273
30644SOL     OW96488   8.066  10.161   1.413 -0.5944  0.1229  0.4250
30644SOL    HW196489   7.972  10.145   1.409 -0.9252  1.3338  2.1484
30644SOL    HW296490   8.075  10.257   1.408  0.6861 -0.0296 -1.2976
30645SOL     OW96491   7.937   1.753   4.345  0.7019  0.4199 -0.0428
30645SOL    HW196492   7.912   1.713   4.429  0.4781  2.3304  0.8432
30645SOL    HW296493   7.993   1.687   4.303  0.7812 -0.5980  1.5835
30646SOL     OW96494   6.396  11.275   3.649 -0.6785  0.1019  0.2333
30646SOL    HW196495   6.327  11.257   3.585 -0.3969 -0.5839  0.1053
30646SOL    HW296496   6.463  11.209   3.630 -0.4329  0.1199  1.0022
30647SOL     OW96497  10.255   8.455   5.821  0.6192  0.4178 -0.0615
30647SOL    HW196498  10.168   8.430   5.790  0.7436 -0.1974  0.0889
30647SOL    HW296499  10.242   8.542   5.860 -0.0433  0.0837  0.4729
30648SOL     OW96500  10.237  10.404  11.156  0.1255  0.2766 -0.0705
30648SOL    HW196501  10.274  10.436  11.239  2.8577  0.4042 -1.2260
30648SOL    HW296502  10.183  10.476  11.124 -0.1885  0.5987  1.1218
30649SOL     OW96503   0.760  12.122   9.330 -0.5682 -0.1863  0.1800
30649SOL    HW196504   0.752  12.032   9.299  0.1534 -0.9509  2.0437
30649SOL    HW296505   0.815  12.165   9.264  1.1667 -1.8015  0.4755
30650SOL     OW96506   5.510   8.493   8.261 -0.1699 -0.6110  0.0152
30650SOL    HW196507   5.551   8.407   8.254  0.0777 -0.4459 -0.5596
30650SOL    HW296508   5.465   8.491   8.346  0.7181 -0.9174  0.4931
30651SOL     OW96509   1.486   6.071   6.276 -0.5392  0.2918 -0.3851
30651SOL    HW196510   1.473   6.090   6.369  1.5482  0.2130 -0.0309
30651SOL    HW296511   1.496   5.976   6.272  1.1027  0.4287 -0.3915
30652SOL     OW96512  11.431   3.892   2.396 -0.0687 -0.1535 -0.0765
30652SOL    HW196513  11.424   3.969   2.340 -1.9204  0.3475  0.7724
30652SOL    HW296514  11.474   3.924   2.475  3.2913 -1.0268 -1.3388
30653SOL     OW96515   0.136   5.413  11.553  0.0397  0.5191 -0.3745
30653SOL    HW196516   0.123   5.319  11.565 -0.6435  0.5996 -0.4572
30653SOL    HW296517   0.228   5.422  11.527  0.4482 -0.0189  0.7919
30654SOL     OW96518   0.078   5.314   9.689 -0.3871 -0.0922  0.3199
30654SOL    HW196519  -0.005   5.343   9.727 -0.4757  1.1076 -0.7190
30654SOL    HW296520   0.083   5.221   9.712 -3.5514 -1.0848 -2.1494
30655SOL     OW96521   4.107  10.059   4.953 -0.2041  0.1521  0.1113
30655SOL    HW196522   4.182  10.110   4.984 -1.4867 -0.0954  4.0563
30655SOL    HW296523   4.032  10.093   5.001 -1.4511 -4.0423  1.5836
30656SOL     OW96524   9.378   6.202   1.121 -0.2567  0.3251  0.1924
30656SOL    HW196525   9.331   6.135   1.171  0.9413  0.5181  1.6291
30656SOL    HW296526   9.331   6.283   1.139  0.8877  0.6210  2.0977
30657SOL     OW96527  10.876  11.485   5.617 -0.2239 -0.2616  0.1298
30657SOL    HW196528  10.862  11.495   5.712 -1.6554 -0.8945  0.0086
30657SOL    HW296529  10.838  11.565   5.580  0.0355 -0.1711  0.0550
30658SOL     OW96530  10.543   0.036   1.858 -0.7383 -0.5256 -0.0317
30658SOL    HW196531  10.621   0.058   1.909 -0.1780 -1.6931 -0.3677
30658SOL    HW296532  10.561  -0.051   1.821 -1.7198 -0.3181 -1.0617
30659SOL     OW96533   3.215   6.688   7.039 -0.5155  0.3408  0.4593
30659SOL    HW196534   3.123   6.671   7.056 -0.5909  0.6921  0.4192
30659SOL    HW296535   3.261   6.653   7.116 -0.7342  0.6841  0.7525
30660SOL     OW96536   7.166  10.570   3.349 -0.6646 -0.3333 -0.0698
30660SOL    HW196537   7.193  10.487   3.387 -1.6174 -0.1717  1.0352
30660SOL    HW296538   7.198  10.568   3.259 -2.1407 -2.6212 -0.6110
30661SOL     OW96539   7.058   9.232   5.470  0.3551 -0.0074  0.5548
30661SOL    HW196540   6.973   9.195   5.444 -1.1059  0.4520  4.0559
30661SOL    HW296541   7.043   9.327   5.470  0.8966  0.0815  1.0444
30662SOL     OW96542   3.690   7.741   5.110 -0.0621  0.3732 -0.1152
30662SOL    HW196543   3.601   7.705   5.114  0.4069 -1.0015 -1.4040
30662SOL    HW296544   3.690   7.796   5.032  0.3741 -0.1006 -0.4554
30663SOL     OW96545  11.753  11.188   2.716 -0.1915 -0.0128 -0.5042
30663SOL    HW196546  11.662  11.215   2.729 -0.3005 -0.5429 -0.1392
30663SOL    HW296547  11.790  11.186   2.805 -0.2387 -1.2308 -0.4980
30664SOL     OW96548   3.207   3.549   9.066 -0.2424  0.7453  0.2251
30664SOL    HW196549   3.131   3.523   9.015  0.3508 -1.4731  0.3594
30664SOL    HW296550   3.179   3.543   9.157  0.4174 -1.5101  0.3423
30665SOL     OW96551   0.773  11.139   4.527 -0.4501 -0.3909  0.4644
30665SOL    HW196552   0.826  11.218   4.518  0.9549 -1.2347  0.8256
30665SOL    HW296553   0.727  11.151   4.610  0.3486 -0.2517  0.9058
30666SOL     OW96554   1.717   2.337   0.791 -0.2244  0.4207 -0.5600
30666SOL    HW196555   1.718   2.242   0.800  0.3647  0.6071  2.0307
30666SOL    HW296556   1.782   2.355   0.723 -0.4644 -1.0053 -1.2029
30667SOL     OW96557  11.815   1.266   5.290  0.1253  0.3866 -0.0134
30667SOL    HW196558  11.785   1.214   5.216  1.5367  1.0246 -1.0723
30667SOL    HW296559  11.737   1.315   5.317 -1.2686 -2.2737  1.0983
30668SOL     OW96560   6.867  10.011   4.248 -0.5941  0.1426  0.6741
30668SOL    HW196561   6.907  10.097   4.263  0.6439 -0.1398 -0.7841
30668SOL    HW296562   6.876   9.996   4.154 -2.6603 -0.7082  0.5708
30669SOL     OW96563   7.538   6.123  11.421 -0.7119  0.4001 -0.1982
30669SOL    HW196564   7.535   6.112  11.516 -0.1150 -1.8711 -0.3809
30669SOL    HW296565   7.630   6.140  11.402 -0.6650 -0.0943 -0.4320
30670SOL     OW96566   4.237   4.631   4.758 -0.5029  0.2016  0.0883
30670SOL    HW196567   4.322   4.593   4.735 -0.1409  0.7150  0.5521
30670SOL    HW296568   4.224   4.610   4.850 -2.2857 -2.4672 -0.6524
30671SOL     OW96569  10.409   0.166   0.550  0.3249 -0.3728  0.0295
30671SOL    HW196570  10.467   0.217   0.606 -1.7607  0.7415  1.2843
30671SOL    HW296571  10.385   0.090   0.603 -0.9310  0.2137  0.3322
30672SOL     OW96572   6.364   2.465   7.466 -0.0656  0.5594  0.3073
30672SOL    HW196573   6.274   2.461   7.434  0.1829 -0.6641 -0.2937
30672SOL    HW296574   6.395   2.551   7.440  0.2652 -0.4880 -3.2977
30673SOL     OW96575   6.194  11.289  10.938 -0.1458 -0.0223 -0.5320
30673SOL    HW196576   6.156  11.240  11.010 -0.1036  3.3599  2.0074
30673SOL    HW296577   6.280  11.249  10.924  0.3877 -0.0186  2.2523
30674SOL     OW96578   2.097   2.860   5.208  0.4824 -0.3378 -0.2066
30674SOL    HW196579   2.098   2.845   5.113 -0.3114 -0.7057 -0.1571
30674SOL    HW296580   2.047   2.788   5.244  2.0606 -1.0447  0.6693
30675SOL     OW96581  11.814   9.356   1.581 -0.1446  0.0369 -0.1028
30675SOL    HW196582  11.808   9.399   1.666 -1.1295 -0.2989  0.0069
30675SOL    HW296583  11.866   9.277   1.598 -0.7846 -0.3038  0.3103
30676SOL     OW96584   3.050   0.283   0.824  0.0122 -0.1850 -0.1673
30676SOL    HW196585   3.140   0.312   0.812  0.5394 -0.5826  2.2179
30676SOL    HW296586   3.049   0.245   0.912 -2.2285 -1.2163 -0.5654
30677SOL     OW96587   8.441   0.875   6.580 -0.0803 -0.2839  0.0443
30677SOL    HW196588   8.377   0.824   6.531 -0.3240  0.0474  0.0114
30677SOL    HW296589   8.519   0.820   6.583 -0.6029 -1.0069  0.7213
30678SOL     OW96590   7.139   5.109   8.763 -0.0888  0.1877 -0.6287
30678SOL    HW196591   7.057   5.158   8.767 -0.8060 -1.0424  1.3426
30678SOL    HW296592   7.116   5.029   8.716 -0.3155 -0.5830  0.7328
30679SOL     OW96593   8.584  11.193  10.437  0.2369 -0.0765  0.0509
30679SOL    HW196594   8.589  11.163  10.527  0.5495 -0.1243  0.0191
30679SOL    HW296595   8.564  11.114  10.386 -0.2655  0.0070  0.1117
30680SOL     OW96596  10.141   2.538   1.591 -0.4710 -0.1341  0.0303
30680SOL    HW196597  10.075   2.473   1.615 -1.3235  0.9762  0.7458
30680SOL    HW296598  10.112   2.619   1.632  0.3729  0.8078 -1.1485
30681SOL     OW96599   6.752   0.982   3.099  0.1280  0.2608  0.0927
30681SOL    HW196600   6.706   0.929   3.165 -0.3092  0.7989  0.2260
30681SOL    HW296601   6.791   0.918   3.040  0.6522 -0.2415  0.9565
30682SOL     OW96602  12.055   6.345   4.927 -0.5355 -0.2038  0.5091
30682SOL    HW196603  12.021   6.434   4.938 -0.2136  0.0240 -0.2454
30682SOL    HW296604  12.144   6.358   4.894 -1.1051 -0.8039 -1.3846
30683SOL     OW96605   7.838   8.982   8.270 -0.2950 -0.2165 -0.4183
30683SOL    HW196606   7.788   8.905   8.243  0.7097 -0.8560 -0.5397
30683SOL    HW296607   7.850   9.032   8.190 -0.1402 -0.4312 -0.5322
30684SOL     OW96608  11.992  11.229   0.634 -0.4280  0.1367 -0.2796
30684SOL    HW196609  12.039  11.146   0.640  0.5413  0.6320 -0.7747
30684SOL    HW296610  11.900  11.205   0.646 -0.1136 -0.9304  0.1276
30685SOL     OW96611   0.775   1.410  10.220 -0.6063 -0.1275  0.1018
30685SOL    HW196612   0.807   1.365  10.141 -1.1552 -0.6236  0.1546
30685SOL    HW296613   0.703   1.465  10.188  0.5725  1.3700 -0.1019
30686SOL     OW96614   8.534   9.560   0.433  0.6134  0.1222  0.2010
30686SOL    HW196615   8.493   9.502   0.497  1.0556 -0.0206  0.3582
30686SOL    HW296616   8.556   9.639   0.483 -0.3383  0.5988 -0.0953
30687SOL     OW96617   8.681   8.017   7.335 -0.0530 -0.4027  0.4425
30687SOL    HW196618   8.593   8.048   7.314 -0.1021 -1.1535 -0.4935
30687SOL    HW296619   8.698   8.052   7.423 -0.9859  0.3686  0.3322
30688SOL     OW96620   9.567   4.104   5.019  0.4350  0.6455 -0.2157
30688SOL    HW196621   9.649   4.124   5.065 -0.9898  1.3248  2.1631
30688SOL    HW296622   9.543   4.186   4.976 -0.4325  1.3701  1.5335
30689SOL     OW96623   4.557   8.661   7.287 -0.2060  0.5266  0.5698
30689SOL    HW196624   4.628   8.601   7.309 -0.6913  0.1025  0.9978
30689SOL    HW296625   4.583   8.745   7.325  0.7614  0.7640 -0.5412
30690SOL     OW96626   7.654  11.460  11.065 -0.3101  0.1826 -0.2860
30690SOL    HW196627   7.584  11.496  11.120  0.3374  0.5317  0.3211
30690SOL    HW296628   7.734  11.500  11.099  0.0199  1.0504 -2.0174
30691SOL     OW96629   9.206   9.571   1.581 -0.2837  0.0276  0.1541
30691SOL    HW196630   9.193   9.572   1.486  0.0869  1.9897  0.0842
30691SOL    HW296631   9.144   9.505   1.613  1.0161 -2.1662 -1.5997
30692SOL     OW96632  11.525   8.583   4.525 -0.1466 -0.0363  0.0438
30692SOL    HW196633  11.579   8.554   4.599  1.3740 -0.7282 -1.2613
30692SOL    HW296634  11.556   8.671   4.506  1.0510 -0.6784 -1.1227
30693SOL     OW96635   4.548  10.968  11.537 -0.0423 -0.1724 -0.4718
30693SOL    HW196636   4.603  10.891  11.550  0.9073  0.7077  0.9570
30693SOL    HW296637   4.464  10.932  11.508  0.5482 -1.7023 -0.3986
30694SOL     OW96638   4.176  11.630   8.855 -0.0256 -0.1027 -0.1271
30694SOL    HW196639   4.239  11.628   8.928  0.1393  0.7215 -0.2282
30694SOL    HW296640   4.214  11.692   8.793 -0.1020 -0.8992 -0.9829
30695SOL     OW96641   3.574  10.251   5.918  0.6078 -0.3258 -0.1382
30695SOL    HW196642   3.499  10.196   5.898  0.3825  0.3826 -1.3290
30695SOL    HW296643   3.588  10.303   5.838  1.3767  0.6732  0.6148
30696SOL     OW96644   4.919   1.344   7.138 -0.3280  0.2918 -0.3281
30696SOL    HW196645   4.872   1.326   7.220 -0.5444 -0.8780 -0.6847
30696SOL    HW296646   5.011   1.353   7.166 -0.4034 -0.0581  0.0528
30697SOL     OW96647   0.527   7.339   0.730  0.5014 -0.4148  0.1801
30697SOL    HW196648   0.437   7.353   0.760  0.1154 -0.5470 -0.8925
30697SOL    HW296649   0.541   7.245   0.742  0.5651 -0.3626  0.5245
30698SOL     OW96650   0.544   2.215   0.686 -0.1240  0.2722 -0.3461
30698SOL    HW196651   0.507   2.296   0.650  0.8606  1.3877  1.0564
30698SOL    HW296652   0.614   2.245   0.745  1.6694 -1.6603 -1.3585
30699SOL     OW96653   7.372   8.164  11.194 -0.0800  0.1882  0.4597
30699SOL    HW196654   7.446   8.224  11.204  0.1840 -0.1940  0.8166
30699SOL    HW296655   7.296   8.214  11.224  0.1119  0.4119  0.5726
30700SOL     OW96656  10.040   2.879   3.128  0.0950  0.1268  0.2754
30700SOL    HW196657   9.978   2.808   3.135  0.1592  0.1981  1.6922
30700SOL    HW296658  10.094   2.873   3.207  1.5925  0.3428 -0.6854
30701SOL     OW96659   7.559   5.760  10.195 -0.7728  0.0455 -0.0922
30701SOL    HW196660   7.564   5.673  10.155  0.3083  0.7247 -1.5454
30701SOL    HW296661   7.569   5.744  10.289  0.9245 -1.3005 -0.4382
30702SOL     OW96662   9.488   9.108   6.484 -0.4819 -0.2172 -0.3821
30702SOL    HW196663   9.403   9.080   6.451 -1.9582 -0.5525  3.1772
30702SOL    HW296664   9.552   9.050   6.442 -2.2277 -1.3697 -1.5503
30703SOL     OW96665  10.892   3.912   0.598 -0.1390 -0.0583 -0.3906
30703SOL    HW196666  10.906   3.991   0.649 -0.2441  0.3643 -1.0081
30703SOL    HW296667  10.903   3.939   0.507 -1.6199 -0.4242 -0.7095
30704SOL     OW96668   8.360  11.646  10.013 -0.2698  0.7881 -0.3468
30704SOL    HW196669   8.439  11.689   9.980 -0.6798  2.4526  0.7060
30704SOL    HW296670   8.351  11.677  10.103 -0.7304 -1.4007  0.4338
30705SOL     OW96671   9.218   8.263   0.782  0.1441 -0.2249  0.2907
30705SOL    HW196672   9.173   8.181   0.758 -0.5677 -0.5154  2.3573
30705SOL    HW296673   9.154   8.332   0.763 -1.1060 -0.5899  2.6730
30706SOL     OW96674   2.030   4.512   2.914 -0.0849  0.1747 -0.2752
30706SOL    HW196675   2.028   4.607   2.903  1.0418  0.1961 -0.4143
30706SOL    HW296676   2.123   4.490   2.912 -0.3447 -0.9590 -0.4766
30707SOL     OW96677   6.518   8.588   4.027 -0.6790  0.2367 -0.2584
30707SOL    HW196678   6.505   8.545   4.112 -1.1064 -1.4744 -1.1411
30707SOL    HW296679   6.435   8.574   3.980  0.0957 -0.2673 -1.5332
30708SOL     OW96680   5.093  12.084  10.910 -0.1082  0.2361 -0.1247
30708SOL    HW196681   5.044  12.027  10.852 -1.1456  1.7296 -0.7856
30708SOL    HW296682   5.052  12.170  10.899  1.1499  1.0341  1.1034
30709SOL     OW96683   9.311  10.178   7.257 -0.0786 -0.1318  0.7844
30709SOL    HW196684   9.282  10.268   7.245  2.1517  0.6153  0.4758
30709SOL    HW296685   9.245  10.125   7.212 -0.2023  1.5229 -1.1059
30710SOL     OW96686   7.140  10.654   4.472  0.1723  0.2265  0.6672
30710SOL    HW196687   7.234  10.644   4.483  0.0451 -0.7875  0.9570
30710SOL    HW296688   7.128  10.667   4.378  0.5659 -0.1252  0.5648
30711SOL     OW96689   7.688   7.102   4.221 -0.1178  0.1399 -1.1414
30711SOL    HW196690   7.661   7.054   4.143 -2.6150 -1.1918  0.4339
30711SOL    HW296691   7.770   7.061   4.248 -1.2287 -2.0103 -0.9050
30712SOL     OW96692   8.611   7.500   4.879  0.6584 -0.2947  0.4178
30712SOL    HW196693   8.573   7.588   4.888  1.1420  0.0110 -0.4889
30712SOL    HW296694   8.561   7.447   4.941 -0.7579  0.2653 -0.1871
30713SOL     OW96695   3.621   4.300   3.963 -0.2419 -0.1766 -0.1126
30713SOL    HW196696   3.541   4.269   3.920 -0.3659 -2.5056  1.5403
30713SOL    HW296697   3.592   4.373   4.017 -1.0958 -0.4293 -0.2062
30714SOL     OW96698  11.248   4.813   9.193 -0.2153  0.3857 -1.0641
30714SOL    HW196699  11.187   4.882   9.218 -0.2943  0.4292 -1.3783
30714SOL    HW296700  11.248   4.754   9.268 -1.8416 -0.4409 -1.6505
30715SOL     OW96701   0.223   6.330   5.753  0.3237  0.1896  0.2621
30715SOL    HW196702   0.296   6.272   5.730  1.0525  0.2585  2.1720
30715SOL    HW296703   0.178   6.283   5.823 -0.7896  0.6779 -0.1172
30716SOL     OW96704   6.909   6.682   9.912  0.1073  0.1900  0.3951
30716SOL    HW196705   6.882   6.772   9.891  2.0275  0.8030  0.3748
30716SOL    HW296706   7.004   6.683   9.904  0.0918 -2.2993 -1.2372
30717SOL     OW96707   9.744   5.520   8.322 -0.1349 -0.7921  0.0784
30717SOL    HW196708   9.825   5.570   8.320 -1.5619  1.7881  1.7591
30717SOL    HW296709   9.712   5.522   8.232  1.7488 -2.1605 -0.6875
30718SOL     OW96710  10.693   3.804   3.952  0.1455 -0.1199 -0.4449
30718SOL    HW196711  10.769   3.748   3.936  0.0494 -0.6389  0.7687
30718SOL    HW296712  10.729   3.889   3.974  0.4497 -0.5900  1.0149
30719SOL     OW96713   2.958   3.204  11.767 -0.2200 -0.4985  0.1395
30719SOL    HW196714   2.869   3.178  11.789 -0.2774  0.5982  1.3315
30719SOL    HW296715   2.963   3.198  11.672 -2.3033  1.6468 -0.1876
30720SOL     OW96716   0.183   4.342   3.930 -0.1955 -0.3044  0.6211
30720SOL    HW196717   0.099   4.299   3.943  0.0823 -1.4735 -1.1773
30720SOL    HW296718   0.162   4.435   3.921 -1.5590 -0.7982 -1.8484
30721SOL     OW96719   6.409   5.544  10.109  0.0464 -0.2898  0.1126
30721SOL    HW196720   6.376   5.621  10.155 -1.1686 -1.9286  2.2164
30721SOL    HW296721   6.487   5.519  10.157  0.7504 -0.0852 -0.9016
30722SOL     OW96722   7.541   3.597   2.421  0.4219  0.2245  0.1897
30722SOL    HW196723   7.466   3.577   2.477 -0.2879  2.6095  0.2045
30722SOL    HW296724   7.504   3.647   2.349  2.0291  1.6943  0.3403
30723SOL     OW96725  11.554   6.264   8.437  0.2104  0.1741  0.0639
30723SOL    HW196726  11.485   6.272   8.371  0.8026  1.3080 -0.4450
30723SOL    HW296727  11.507   6.249   8.519 -0.5426 -1.0951 -0.5696
30724SOL     OW96728  11.463   0.144   5.578  0.8536  0.1590  0.5628
30724SOL    HW196729  11.382   0.179   5.617 -0.5264 -1.3048 -0.7965
30724SOL    HW296730  11.525   0.141   5.651 -1.0545 -0.8177  2.2649
30725SOL     OW96731   3.212   8.749   1.363 -0.6118  0.0738 -0.0492
30725SOL    HW196732   3.255   8.801   1.430  0.8947  1.7269 -2.1431
30725SOL    HW296733   3.119   8.771   1.371 -0.2618  1.4579  0.4973
30726SOL     OW96734   2.233   5.705   8.737  0.4002 -0.0698 -0.1324
30726SOL    HW196735   2.157   5.663   8.698  0.2901  0.9114 -1.0147
30726SOL    HW296736   2.260   5.770   8.673  0.3588  1.4413  1.3278
30727SOL     OW96737   8.386   9.419   9.714 -0.7134 -0.0615 -0.4669
30727SOL    HW196738   8.414   9.362   9.642 -1.6231 -0.1958 -0.7281
30727SOL    HW296739   8.453   9.407   9.782 -0.3736 -0.6846 -0.9002
30728SOL     OW96740   3.360   2.468   8.960 -1.0342 -0.2511 -0.2793
30728SOL    HW196741   3.394   2.553   8.934  0.5520 -0.3458  1.2549
30728SOL    HW296742   3.438   2.413   8.971 -2.0480 -2.1933 -2.0475
30729SOL     OW96743  10.263   1.413   1.833  0.1452 -0.6347 -0.0398
30729SOL    HW196744  10.354   1.444   1.840 -0.0511 -0.0986  0.2080
30729SOL    HW296745  10.228   1.459   1.757 -0.0007 -0.6306  0.0303
30730SOL     OW96746   1.610   7.997   1.617  0.8626 -0.0154  0.6669
30730SOL    HW196747   1.578   7.908   1.602  0.3555  0.1405  0.8196
30730SOL    HW296748   1.562   8.027   1.694  0.7399  0.5330  0.3799
30731SOL     OW96749  12.067   3.254   8.932  0.3893  0.1344 -0.1405
30731SOL    HW196750  12.053   3.295   9.017  0.8906  0.6241 -0.2921
30731SOL    HW296751  12.068   3.160   8.951 -3.5595 -0.0757 -0.1654
30732SOL     OW96752   1.141   7.067   6.750 -0.6962 -0.1424 -0.4006
30732SOL    HW196753   1.126   7.023   6.834 -0.5966  2.2085  0.9514
30732SOL    HW296754   1.233   7.051   6.731 -0.1579  0.9694  1.0514
30733SOL     OW96755   1.637   0.932   2.398  0.2543 -0.4411 -0.5019
30733SOL    HW196756   1.576   0.984   2.347 -0.4728 -1.6944 -0.9742
30733SOL    HW296757   1.581   0.879   2.455  1.0409  1.8989  2.7373
30734SOL     OW96758   4.770   5.134   9.548 -0.6953 -0.3262  0.8937
30734SOL    HW196759   4.848   5.132   9.492 -0.9264 -0.1021  0.5552
30734SOL    HW296760   4.804   5.129   9.637 -0.3316 -0.9333  0.7274
30735SOL     OW96761   5.842  10.458   6.814  0.0665 -0.1398 -0.3273
30735SOL    HW196762   5.807  10.535   6.858  1.3047  0.4999 -0.3963
30735SOL    HW296763   5.903  10.420   6.877 -1.6591 -1.9939  0.3140
30736SOL     OW96764   6.179   3.128   2.973 -0.0779 -0.1399  0.1831
30736SOL    HW196765   6.181   3.224   2.975 -1.0703 -0.1227  1.1984
30736SOL    HW296766   6.219   3.105   2.888 -0.0968  1.1675 -0.2009
30737SOL     OW96767   5.593  10.431   1.524 -0.0228  0.3360 -0.4647
30737SOL    HW196768   5.588  10.349   1.572 -1.9049  1.9268  2.3491
30737SOL    HW296769   5.575  10.499   1.590  1.7763  3.0715 -2.5439
30738SOL     OW96770  11.884   1.634   4.764  0.1446  0.7265 -0.2958
30738SOL    HW196771  11.933   1.591   4.694  0.2033 -0.1677  0.2775
30738SOL    HW296772  11.795   1.642   4.728 -0.0087 -0.3937 -0.2227
30739SOL     OW96773   1.034   7.115   5.674 -0.1974 -0.0542  0.2060
30739SOL    HW196774   1.031   7.159   5.589 -2.7904  0.7838  0.6600
30739SOL    HW296775   1.047   7.022   5.653 -0.0267  0.2410 -1.0544
30740SOL     OW96776   1.040   5.860  11.223  0.0231  0.1111 -0.6761
30740SOL    HW196777   1.004   5.939  11.263  1.8948  0.5567  0.2487
30740SOL    HW296778   1.107   5.893  11.162 -0.0532 -0.7249 -1.2244
30741SOL     OW96779  10.673   3.686  11.034  0.0965  0.6781  0.3537
30741SOL    HW196780  10.606   3.620  11.050  1.5675 -0.5968  1.6253
30741SOL    HW296781  10.738   3.641  10.979 -0.4334  2.1412 -1.5752
30742SOL     OW96782   8.448  11.307  11.006 -0.3701  0.1361  0.5187
30742SOL    HW196783   8.493  11.230  11.041 -1.9466 -1.3802 -0.6097
30742SOL    HW296784   8.512  11.349  10.950  0.1598 -1.0605  0.1961
30743SOL     OW96785   8.397   0.935   4.329 -0.2314 -0.1521 -0.3620
30743SOL    HW196786   8.454   0.950   4.404 -0.6307  0.1688 -0.1130
30743SOL    HW296787   8.433   0.990   4.259  0.4501 -0.8523 -0.5773
30744SOL     OW96788   0.885  11.931  10.814 -0.1500  0.1693  0.3512
30744SOL    HW196789   0.837  12.012  10.793 -0.3891  0.0935  0.6107
30744SOL    HW296790   0.903  11.937  10.908  2.9248  1.6112 -0.1728
30745SOL     OW96791   2.861   5.592   4.470  0.0214  0.0592 -0.0833
30745SOL    HW196792   2.765   5.589   4.470 -0.2669  3.4053 -2.3140
30745SOL    HW296793   2.884   5.592   4.377  2.0556  0.8911  0.3735
30746SOL     OW96794  10.103   4.876  11.415  0.3480  0.4393 -0.0485
30746SOL    HW196795  10.080   4.794  11.459  4.0177  0.3619  2.0475
30746SOL    HW296796  10.019   4.909  11.381 -1.3967 -3.7137 -0.3267
30747SOL     OW96797   5.307   7.029   5.107  0.0274  0.2164 -0.3745
30747SOL    HW196798   5.259   7.112   5.113  1.8784  1.2478  1.3176
30747SOL    HW296799   5.399   7.055   5.103  0.6761 -1.7675  0.6410
30748SOL     OW96800  11.712   5.916   7.464 -0.3126 -0.0219 -0.0211
30748SOL    HW196801  11.628   5.899   7.506 -0.0645 -0.2810  0.3713
30748SOL    HW296802  11.689   5.948   7.377 -0.8260  0.3236  0.2352
30749SOL     OW96803   6.116   7.977   8.751  0.0346  0.7802  0.0012
30749SOL    HW196804   6.065   8.014   8.679 -2.6472  0.1862  1.4591
30749SOL    HW296805   6.141   7.890   8.721 -1.3499  0.4097 -0.1378
30750SOL     OW96806   1.226  10.727  10.845 -0.2014  0.1552 -0.1990
30750SOL    HW196807   1.137  10.757  10.861 -0.3521 -0.2807 -0.1987
30750SOL    HW296808   1.281  10.805  10.857 -0.6429  0.5706 -0.8385
30751SOL     OW96809  10.174  10.958   9.678 -0.0457 -0.1561  0.0157
30751SOL    HW196810  10.245  11.015   9.706 -1.7994  1.9133  0.5170
30751SOL    HW296811  10.129  11.007   9.609 -0.4582 -1.8181 -0.9436
30752SOL     OW96812   7.037   6.226   5.481 -0.5778 -0.2937  0.0671
30752SOL    HW196813   6.975   6.285   5.524 -1.3866 -0.9394 -0.1761
30752SOL    HW296814   7.119   6.276   5.476 -1.1630  0.6932  0.1083
30753SOL     OW96815  11.471   8.291  10.569 -0.1361 -0.1024  0.1620
30753SOL    HW196816  11.487   8.386  10.571 -1.6064  0.1759  0.1657
30753SOL    HW296817  11.489   8.266  10.479 -1.1669  0.4934 -0.2403
30754SOL     OW96818   0.548   5.413   0.712  0.5588 -0.0084 -0.1173
30754SOL    HW196819   0.631   5.446   0.677  2.6401 -4.1276  0.3682
30754SOL    HW296820   0.497   5.388   0.635 -0.4049  2.5496 -0.4185
30755SOL     OW96821  10.896   0.408   7.581  0.1826 -0.3967 -0.5381
30755SOL    HW196822  10.947   0.358   7.516 -0.7655 -0.9984 -0.8384
30755SOL    HW296823  10.902   0.356   7.661 -0.1417 -0.5855 -0.6351
30756SOL     OW96824   3.962  10.121   1.844 -0.0488 -0.1847  0.5066
30756SOL    HW196825   4.035  10.176   1.874 -0.7407  0.8855  0.2963
30756SOL    HW296826   3.910  10.105   1.922 -0.3683  0.2822  0.3920
30757SOL     OW96827   2.140   7.591   9.697 -0.0970  0.5931  0.1489
30757SOL    HW196828   2.047   7.571   9.705  0.4739 -2.0122  1.4859
30757SOL    HW296829   2.156   7.658   9.764 -1.2231  2.1231 -1.0634
30758SOL     OW96830  11.543   3.044   5.763  0.2522  0.2763 -0.2876
30758SOL    HW196831  11.624   3.079   5.800  2.4329 -2.3141 -2.2077
30758SOL    HW296832  11.504   2.993   5.834  1.5485 -0.2816  0.0577
30759SOL     OW96833   8.753   4.185   1.955  0.1234 -0.3687  0.6912
30759SOL    HW196834   8.726   4.153   2.041 -1.5028 -0.5686  0.1363
30759SOL    HW296835   8.713   4.124   1.893  0.9923 -0.0308 -0.2363
30760SOL     OW96836  10.291   3.929   9.696 -0.1168  0.7279  0.0685
30760SOL    HW196837  10.247   3.964   9.774 -0.8593  1.0263 -0.4702
30760SOL    HW296838  10.271   3.836   9.696  0.0361  0.6956  0.3332
30761SOL     OW96839   3.857  11.145   4.472 -0.4432 -0.7167  0.3707
30761SOL    HW196840   3.798  11.103   4.535  2.0777 -0.4686  3.1330
30761SOL    HW296841   3.937  11.093   4.476  0.1448 -0.0992 -2.0101
30762SOL     OW96842   3.098  10.761   0.999  0.2228  0.3032 -0.7625
30762SOL    HW196843   3.018  10.707   0.996 -0.3388  1.1336 -3.4888
30762SOL    HW296844   3.167  10.701   0.970  0.2083  0.1482 -0.4790
30763SOL     OW96845  10.901   7.455   7.881 -0.1781  0.6309 -0.4282
30763SOL    HW196846  10.930   7.412   7.801  1.6109  2.1878 -0.6867
30763SOL    HW296847  10.811   7.482   7.863  0.0108  0.4697 -1.7021
30764SOL     OW96848   6.080   0.957   4.515 -0.3630 -0.0859 -0.5899
30764SOL    HW196849   6.012   0.894   4.490  0.0886 -1.5160  1.4899
30764SOL    HW296850   6.163   0.914   4.492 -0.0168 -0.6532  1.4974
30765SOL     OW96851   4.121  11.941   1.893  0.7489  0.2502  0.3434
30765SOL    HW196852   4.169  11.859   1.883  1.1211  0.4554  0.4325
30765SOL    HW296853   4.116  11.954   1.987 -0.4382 -0.3247  0.3777
30766SOL     OW96854   7.562   5.010   8.827  0.1132  0.0005 -0.1385
30766SOL    HW196855   7.589   4.923   8.857 -0.8428 -0.2711 -0.0392
30766SOL    HW296856   7.642   5.048   8.790  0.8995 -0.3513  1.1182
30767SOL     OW96857   0.785   0.548   6.100 -0.0970 -0.5479 -0.0352
30767SOL    HW196858   0.760   0.621   6.158  0.8396  0.5361 -0.9590
30767SOL    HW296859   0.734   0.563   6.021 -0.1667 -1.1182 -0.0987
30768SOL     OW96860   4.399   2.208   0.910 -0.0762  0.4356 -0.2683
30768SOL    HW196861   4.492   2.189   0.897 -0.0970 -1.4420  1.8451
30768SOL    HW296862   4.375   2.163   0.990 -2.4132  2.4199  0.2895
30769SOL     OW96863  11.951   7.133   2.713  0.1733  0.7462 -0.5058
30769SOL    HW196864  11.936   7.189   2.637 -2.4996 -0.5941 -1.0710
30769SOL    HW296865  11.901   7.174   2.784  0.5673  0.6041 -0.1389
30770SOL     OW96866   5.957   5.578   1.219  0.8466  0.4966 -0.7326
30770SOL    HW196867   6.007   5.546   1.294 -0.1597  1.0824  0.2190
30770SOL    HW296868   5.970   5.673   1.220 -1.3311  0.8540  0.3875
30771SOL     OW96869   2.219   6.087   2.062 -0.5149 -0.2040 -0.1575
30771SOL    HW196870   2.228   6.182   2.072  0.8042 -0.4205  1.1785
30771SOL    HW296871   2.309   6.054   2.073 -1.0339 -1.6313 -0.0817
30772SOL     OW96872   1.830   3.792  12.079 -0.1658 -0.2464  0.3697
30772SOL    HW196873   1.875   3.773  11.996  1.3516  0.7148  0.9394
30772SOL    HW296874   1.737   3.779  12.059  0.1453  0.2315 -1.5567
30773SOL     OW96875   3.882  10.591   2.163 -0.0353  0.1513 -0.2669
30773SOL    HW196876   3.971  10.563   2.186 -0.7828 -1.4068  0.9358
30773SOL    HW296877   3.848  10.519   2.109 -0.6936  0.5787 -0.4293
30774SOL     OW96878   4.823   4.349   6.028 -0.3685  0.9951 -0.0743
30774SOL    HW196879   4.847   4.359   6.120  1.5343 -2.5797 -0.0396
30774SOL    HW296880   4.773   4.268   6.025 -0.7938  1.2819 -2.1942
30775SOL     OW96881   3.707  11.280   5.963  0.1881  0.2962  0.0990
30775SOL    HW196882   3.662  11.291   5.879  0.6889  0.6351 -0.1281
30775SOL    HW296883   3.786  11.229   5.941  0.2867  0.3315  0.3720
30776SOL     OW96884  11.231   7.300   2.517  0.0218  0.2278  0.5596
30776SOL    HW196885  11.323   7.313   2.493 -0.1574 -0.0434 -0.2784
30776SOL    HW296886  11.204   7.384   2.554  0.3708  0.5697  0.0448
30777SOL     OW96887  11.503   6.968   9.419  0.3109  0.1997  0.1838
30777SOL    HW196888  11.416   7.000   9.442  0.6541 -0.0334  1.9568
30777SOL    HW296889  11.563   7.022   9.469  1.0273 -1.4483  1.2088
30778SOL     OW96890   0.100   7.442   3.130  0.0987 -0.1100 -0.0113
30778SOL    HW196891   0.159   7.477   3.063 -2.2282 -1.0541 -2.7303
30778SOL    HW296892   0.129   7.352   3.143 -1.0283 -0.8102 -1.8881
30779SOL     OW96893   6.094   3.559   0.798  0.7353  0.0566 -0.2100
30779SOL    HW196894   6.172   3.512   0.828  0.5546 -0.2390 -0.2004
30779SOL    HW296895   6.052   3.499   0.736  0.8889  0.4931 -0.7519
30780SOL     OW96896   6.996   5.820   3.866 -0.1328  0.6050 -0.3877
30780SOL    HW196897   7.062   5.869   3.817 -0.7622  0.8872 -0.9720
30780SOL    HW296898   6.937   5.786   3.799  0.0460 -0.6004  0.0441
30781SOL     OW96899   3.276   7.962   5.461 -0.1851 -0.0814 -0.2713
30781SOL    HW196900   3.181   7.972   5.463 -0.3623 -1.3581 -1.1605
30781SOL    HW296901   3.306   8.002   5.543 -1.4973  0.1613  0.1084
30782SOL     OW96902   9.666   1.117   6.566 -0.1087  0.1098  0.2393
30782SOL    HW196903   9.607   1.041   6.566 -0.5975  0.4586 -1.3617
30782SOL    HW296904   9.665   1.148   6.476  0.7198  1.5472  0.7004
30783SOL     OW96905   5.453   8.051   5.995  0.2643  0.2006  0.5010
30783SOL    HW196906   5.364   8.072   6.023 -0.0578 -0.5604  0.0797
30783SOL    HW296907   5.508   8.113   6.042 -0.5842  1.5257 -0.2073
30784SOL     OW96908  10.606   0.747   3.732  0.7961  0.2266  0.1594
30784SOL    HW196909  10.549   0.817   3.699 -0.2490 -0.9242 -0.5415
30784SOL    HW296910  10.665   0.728   3.660 -0.0310 -0.7512 -0.2877
30785SOL     OW96911   8.280   3.821  11.136 -0.2403  0.1267 -0.1537
30785SOL    HW196912   8.366   3.794  11.167 -0.0543  0.5571 -0.2826
30785SOL    HW296913   8.244   3.874  11.207  0.0442  0.8255 -0.5104
30786SOL     OW96914   6.930   0.228   8.635  0.1734  0.1825 -0.2920
30786SOL    HW196915   6.975   0.235   8.551  0.2310 -0.0593 -0.2798
30786SOL    HW296916   6.939   0.315   8.674  1.2171 -0.0559  0.0143
30787SOL     OW96917   4.355   0.865   3.953 -0.5056 -0.4519  0.4198
30787SOL    HW196918   4.350   0.772   3.977 -0.3072 -0.5699  0.0195
30787SOL    HW296919   4.448   0.879   3.934 -0.2735  0.2007  1.9135
30788SOL     OW96920   0.744   6.219   1.159  0.3605 -0.0480  0.2055
30788SOL    HW196921   0.745   6.297   1.214 -1.1426  0.8581 -0.9851
30788SOL    HW296922   0.769   6.251   1.072 -0.8879 -0.7626 -0.4341
30789SOL     OW96923   9.701   6.940   3.704 -0.2796 -0.2480  0.8321
30789SOL    HW196924   9.618   6.964   3.745 -1.2564  0.4746 -1.4055
30789SOL    HW296925   9.729   7.019   3.658 -0.6498 -1.6478 -2.0397
30790SOL     OW96926   6.425   5.102   6.832  0.1785 -0.4760  0.6372
30790SOL    HW196927   6.357   5.036   6.816 -0.1237 -0.5293  2.0347
30790SOL    HW296928   6.402   5.174   6.773 -0.9961 -0.5818  0.9377
30791SOL     OW96929   1.278   7.489   3.094 -0.3095  0.0859  0.1542
30791SOL    HW196930   1.365   7.526   3.079  0.2676 -0.5228  1.7824
30791SOL    HW296931   1.272   7.415   3.033  0.1421  0.3532 -0.2231
30792SOL     OW96932   9.954   9.569   5.584 -0.0033  0.0477 -0.5805
30792SOL    HW196933   9.879   9.613   5.545  0.5061  2.0100  0.5384
30792SOL    HW296934   9.926   9.478   5.593 -2.9125  1.0006  1.2885
30793SOL     OW96935   1.358   1.362   4.719  0.5132  0.5816  0.4551
30793SOL    HW196936   1.385   1.413   4.795  0.0861  1.4327  0.0532
30793SOL    HW296937   1.309   1.424   4.665 -1.5769 -0.6982  0.7844
30794SOL     OW96938   9.215   0.055  11.961  0.0019  0.6201 -0.1612
30794SOL    HW196939   9.242  -0.018  11.905 -2.6739 -1.1518  0.6395
30794SOL    HW296940   9.265   0.042  12.042  0.5067  0.4602 -0.4919
30795SOL     OW96941   3.257  11.178   8.838  0.7026 -0.1382  0.5009
30795SOL    HW196942   3.212  11.256   8.870 -0.3248 -1.5931  2.8469
30795SOL    HW296943   3.337  11.211   8.797  0.1348  2.1324  1.0790
30796SOL     OW96944   7.475   3.222   3.988 -0.4951 -0.0955 -0.6525
30796SOL    HW196945   7.545   3.209   3.924  0.6295  0.2517  0.4529
30796SOL    HW296946   7.426   3.297   3.955  0.5733  0.6003 -0.7110
30797SOL     OW96947   9.611  12.025   1.130 -0.8073 -0.1770 -0.3756
30797SOL    HW196948   9.636  11.946   1.083 -0.0056  0.0674 -0.3692
30797SOL    HW296949   9.669  12.093   1.097 -1.4965  0.4213 -0.3897
30798SOL     OW96950   7.791   1.707   8.944  0.2450 -0.0875  0.3248
30798SOL    HW196951   7.762   1.786   8.991 -0.6697  0.4467 -1.0656
30798SOL    HW296952   7.790   1.638   9.010  1.0592  1.0435  1.5816
30799SOL     OW96953  10.413   7.493   5.733  0.1150 -0.1486  0.5418
30799SOL    HW196954  10.338   7.544   5.762 -0.5413  0.4455 -1.9069
30799SOL    HW296955  10.380   7.442   5.659  2.0685  0.0263 -0.5308
30800SOL     OW96956  11.438   3.433   8.562  0.7941 -0.7222 -0.1401
30800SOL    HW196957  11.378   3.448   8.635 -0.0709 -2.1206 -0.5269
30800SOL    HW296958  11.509   3.381   8.600  0.4328 -1.2978 -0.2413
30801SOL     OW96959   3.737   9.175   8.081  0.1445 -0.2959  0.0638
30801SOL    HW196960   3.739   9.234   8.006 -0.0901 -0.0120  0.2805
30801SOL    HW296961   3.661   9.203   8.132  0.7675  0.0380  0.8263
30802SOL     OW96962   0.357   6.720   5.422 -0.6404  0.4892 -0.1882
30802SOL    HW196963   0.354   6.815   5.432 -0.3371  0.5814 -0.9276
30802SOL    HW296964   0.355   6.705   5.328 -1.2836 -0.2635 -0.0713
30803SOL     OW96965   8.851   8.038   5.868  0.1835 -0.7011  0.8575
30803SOL    HW196966   8.764   8.006   5.890  0.6887 -1.8375  1.3328
30803SOL    HW296967   8.837   8.100   5.797 -1.1976  0.6763  2.2436
30804SOL     OW96968  11.619   7.669   5.991  0.6422 -0.9219 -0.1321
30804SOL    HW196969  11.689   7.725   5.959  0.4141 -0.2889  0.4566
30804SOL    HW296970  11.646   7.580   5.967 -0.0993 -0.4477 -3.2353
30805SOL     OW96971   0.574   2.242   8.261 -0.4839 -0.0782 -0.7981
30805SOL    HW196972   0.578   2.150   8.236  1.6303 -0.2460 -0.0353
30805SOL    HW296973   0.665   2.271   8.261 -1.0614  1.8906 -0.5199
30806SOL     OW96974   5.452   5.816   9.312 -0.1804 -0.1467  0.7877
30806SOL    HW196975   5.464   5.740   9.369  0.6020 -0.1134  0.6702
30806SOL    HW296976   5.357   5.821   9.299 -0.3610 -0.2579  1.9525
30807SOL     OW96977   7.609   5.527   2.266  0.0211  0.1265 -0.8127
30807SOL    HW196978   7.627   5.438   2.235  1.3309  1.1877 -3.3367
30807SOL    HW296979   7.692   5.556   2.305 -0.1232  0.5346 -0.8033
30808SOL     OW96980   5.780  10.290   4.215  0.0675  0.1611  0.6101
30808SOL    HW196981   5.748  10.256   4.299  1.8105  0.3628  1.4018
30808SOL    HW296982   5.780  10.215   4.156 -3.8970  0.5542 -0.1734
30809SOL     OW96983   6.736   6.772   6.776 -0.2669  0.0435  0.1935
30809SOL    HW196984   6.718   6.856   6.818  1.7588  0.3957  0.4500
30809SOL    HW296985   6.797   6.792   6.706 -1.8107 -0.8885 -1.5168
30810SOL     OW96986   7.231   7.301   3.322  0.4031 -0.1518 -0.3482
30810SOL    HW196987   7.300   7.301   3.387 -0.2422  0.4989  0.3621
30810SOL    HW296988   7.271   7.338   3.243  1.1067 -0.6640 -0.2326
30811SOL     OW96989   2.800  10.331   0.508 -0.2134 -0.0247 -0.0157
30811SOL    HW196990   2.789  10.272   0.434 -1.1941 -1.5527  1.2958
30811SOL    HW296991   2.865  10.288   0.564  2.4286  2.2710 -1.0344
30812SOL     OW96992   1.608   4.225   9.077 -0.5874  0.2036  0.9623
30812SOL    HW196993   1.545   4.270   9.133 -0.2601 -0.4113  1.8513
30812SOL    HW296994   1.586   4.132   9.086 -0.2358  0.0639  0.4251
30813SOL     OW96995  11.628   5.312   9.614 -0.1599 -0.8982  0.0940
30813SOL    HW196996  11.608   5.218   9.614 -0.2482 -0.8786 -0.0303
30813SOL    HW296997  11.544   5.354   9.594 -0.6093 -0.7002  2.1649
30814SOL     OW96998   6.579   1.858   3.976  0.2002 -0.4214 -0.1869
30814SOL    HW196999   6.592   1.804   4.054  0.0441  1.3805  1.1474
30814SOL    HW297000   6.532   1.936   4.008  2.8978  1.8795 -1.4269
30815SOL     OW97001   3.518   4.004  10.027 -0.4282 -0.1070 -0.5418
30815SOL    HW197002   3.464   3.944   9.975 -0.8680  0.4825 -0.7833
30815SOL    HW297003   3.541   4.074   9.966  0.0751 -0.0252 -0.2631
30816SOL     OW97004  11.219  11.088   5.868  0.1914 -0.4326 -0.2657
30816SOL    HW197005  11.224  11.172   5.822  0.1541 -0.8340 -1.0191
30816SOL    HW297006  11.146  11.042   5.826  0.4339 -0.9772 -0.0998
30817SOL     OW97007  10.106   7.765   3.057 -0.1725 -0.0475  0.2191
30817SOL    HW197008  10.121   7.855   3.087  0.5347  0.1734 -0.7691
30817SOL    HW297009  10.094   7.772   2.963 -2.0037 -0.7783  0.3475
30818SOL     OW97010  11.094  11.841   3.753  0.2590 -0.2223 -0.3120
30818SOL    HW197011  11.038  11.863   3.679 -0.2124 -0.5799 -0.0718
30818SOL    HW297012  11.035  11.842   3.828  0.6259 -0.3827 -0.0201
30819SOL     OW97013   7.667   3.023   0.838 -0.3284  0.2534 -0.0070
30819SOL    HW197014   7.586   3.025   0.786 -0.1337 -1.2721 -0.4383
30819SOL    HW297015   7.737   3.036   0.774 -0.1871  0.4630  0.1918
30820SOL     OW97016   6.439   3.878   8.674  0.1581  0.0500 -0.1690
30820SOL    HW197017   6.460   3.844   8.587  0.1363  1.5354 -0.7761
30820SOL    HW297018   6.457   3.805   8.733 -0.4705 -1.2153 -1.4748
30821SOL     OW97019  11.312   1.645   3.152  0.8764  0.6681 -0.3414
30821SOL    HW197020  11.359   1.585   3.210  0.8948  0.3471 -0.6796
30821SOL    HW297021  11.243   1.590   3.114  1.1657  0.7508 -0.9887
30822SOL     OW97022   9.127   6.980   8.382  0.4038 -0.1147  0.0322
30822SOL    HW197023   9.219   6.983   8.356  0.4231 -0.5460  0.0345
30822SOL    HW297024   9.090   7.062   8.351  0.7670  0.0140 -0.0605
30823SOL     OW97025   4.868  11.596   8.330  0.2025  0.0932 -0.3487
30823SOL    HW197026   4.901  11.522   8.381 -0.0363 -0.0328 -0.3785
30823SOL    HW297027   4.829  11.556   8.252 -2.0830  0.0521  0.7420
30824SOL     OW97028   2.014   2.122   2.748  0.1433  0.7712 -0.6153
30824SOL    HW197029   1.992   2.029   2.756 -0.0646  0.7711 -1.1463
30824SOL    HW297030   2.073   2.126   2.673  2.8400  0.6374  1.3563
30825SOL     OW97031   3.335  11.039  10.759 -0.1587 -0.5882 -0.1331
30825SOL    HW197032   3.408  10.997  10.804  2.5305  2.2623 -1.4738
30825SOL    HW297033   3.286  10.966  10.720  0.9999 -2.7154  2.0714
30826SOL     OW97034   1.250  11.952   6.884 -0.6172 -0.6189  0.0690
30826SOL    HW197035   1.343  11.971   6.897 -0.6367  0.4687 -1.1954
30826SOL    HW297036   1.225  11.904   6.962  1.8848 -4.3523 -1.1626
30827SOL     OW97037   6.804   1.586   7.324 -0.3515  0.6828 -0.1426
30827SOL    HW197038   6.831   1.673   7.294 -2.5515  1.3026 -0.5029
30827SOL    HW297039   6.737   1.604   7.390 -2.0209 -0.7129 -1.3904
30828SOL     OW97040   6.844   2.035   9.628  0.7409  0.5463 -0.0029
30828SOL    HW197041   6.833   1.943   9.652  0.7181  0.6729  0.4741
30828SOL    HW297042   6.759   2.061   9.593  0.3768  0.7106  0.9698
30829SOL     OW97043   1.434   9.081   4.979 -0.0591 -0.6972 -0.1593
30829SOL    HW197044   1.435   9.162   4.927  1.8979 -0.2781  0.4316
30829SOL    HW297045   1.363   9.029   4.941 -0.1604  0.5204 -1.7778
30830SOL     OW97046   8.120   2.633   2.323  0.0136  0.2064  0.0782
30830SOL    HW197047   8.163   2.550   2.302  0.9849  0.6457  0.3202
30830SOL    HW297048   8.027   2.617   2.303  0.0886 -1.1289  0.6591
30831SOL     OW97049  10.119  11.531   2.710  0.5526 -0.4371  0.2244
30831SOL    HW197050  10.105  11.437   2.703  0.9691 -0.5480  0.8248
30831SOL    HW297051  10.106  11.564   2.621  1.6920 -1.2298 -0.2586
30832SOL     OW97052   7.745   9.738   9.572 -0.3062  0.1447  0.0283
30832SOL    HW197053   7.730   9.727   9.666 -0.5691  0.2436  0.0010
30832SOL    HW297054   7.734   9.832   9.557  2.8201  0.6786  0.4173
30833SOL     OW97055   5.172  10.244   6.476  0.0277  0.3421  0.4865
30833SOL    HW197056   5.147  10.175   6.415 -1.5126  2.2460 -1.1897
30833SOL    HW297057   5.265  10.260   6.457  0.0770 -0.4257  0.0507
30834SOL     OW97058  11.062   2.363   5.390 -0.2208 -0.1486  0.4375
30834SOL    HW197059  11.073   2.296   5.323  0.6605  0.4960 -0.0839
30834SOL    HW297060  11.015   2.434   5.346 -1.3176 -0.4635  1.0349
30835SOL     OW97061   6.211  12.087   6.291 -0.3312 -0.2125  0.3474
30835SOL    HW197062   6.265  12.122   6.220  0.3628 -1.3152  0.3123
30835SOL    HW297063   6.264  12.101   6.370 -0.1989 -0.8437  0.3753
30836SOL     OW97064   2.455   5.633  10.302 -0.3296  0.7428 -0.2406
30836SOL    HW197065   2.429   5.567  10.367  0.1772  0.3957 -0.3781
30836SOL    HW297066   2.469   5.582  10.222  2.3780  0.6160  0.2204
30837SOL     OW97067   9.411  11.632   3.261 -0.3811  0.0707 -0.8668
30837SOL    HW197068   9.478  11.686   3.220  0.1220 -0.3434 -0.6073
30837SOL    HW297069   9.355  11.694   3.308 -0.2149  0.4223 -1.1280
30838SOL     OW97070   0.989   9.530   6.812  0.3287  0.3370 -0.4730
30838SOL    HW197071   0.919   9.528   6.877  0.5746  0.8346 -0.1876
30838SOL    HW297072   1.013   9.438   6.800 -2.0913 -0.1531 -2.4714
30839SOL     OW97073   8.134  11.917   4.276 -0.3269  0.5816 -0.4440
30839SOL    HW197074   8.137  11.978   4.202 -0.5096  1.1558  0.0104
30839SOL    HW297075   8.161  11.970   4.351  1.8903 -0.4954 -0.4002
30840SOL     OW97076  10.714  10.517   9.792 -0.9248 -0.6514 -0.3901
30840SOL    HW197077  10.729  10.575   9.718 -1.4973 -0.7714 -0.6042
30840SOL    HW297078  10.686  10.575   9.863  0.5074 -0.4229  0.0194
30841SOL     OW97079   9.219  11.943   2.332 -0.5650  0.4693  0.1087
30841SOL    HW197080   9.280  12.008   2.368 -0.5361  0.9689 -0.8225
30841SOL    HW297081   9.145  11.995   2.300 -0.5273  0.0465 -0.6687
30842SOL     OW97082   3.918   4.736  10.284 -0.3999  0.3014  0.7672
30842SOL    HW197083   3.858   4.688  10.228  0.3015 -0.2834  0.4968
30842SOL    HW297084   3.913   4.826  10.253 -1.1988  0.2790  0.8160
30843SOL     OW97085   2.139   3.821   2.167 -0.4870  0.5510  0.2055
30843SOL    HW197086   2.231   3.804   2.148 -0.5602 -0.1911  0.4665
30843SOL    HW297087   2.099   3.734   2.171 -1.0514  0.8281  0.8123
30844SOL     OW97088   0.021   1.409   9.336  0.6051 -0.1861 -0.6821
30844SOL    HW197089   0.095   1.348   9.327  0.3106 -0.7652  0.6386
30844SOL    HW297090   0.011   1.420   9.430 -2.8331 -2.4434 -0.6024
30845SOL     OW97091   6.887   7.323   8.308  0.0158  0.7084 -0.3848
30845SOL    HW197092   6.801   7.360   8.286  0.4008 -0.0236 -3.6578
30845SOL    HW297093   6.887   7.237   8.266  2.4656  0.8493 -0.8046
30846SOL     OW97094   1.338   7.437   6.739 -0.2920 -0.2301 -0.9401
30846SOL    HW197095   1.331   7.407   6.648  0.8353 -0.8671 -0.8477
30846SOL    HW297096   1.272   7.505   6.748 -0.1067  0.1667 -2.3789
30847SOL     OW97097   8.013   8.411   6.760  0.5221  0.3233  0.5012
30847SOL    HW197098   7.996   8.497   6.720 -2.5501 -0.9741 -1.3343
30847SOL    HW297099   7.937   8.397   6.817  0.4384 -1.5446 -0.0196
30848SOL     OW97100   8.228   4.353   5.968  0.1635  0.6314 -0.1839
30848SOL    HW197101   8.234   4.422   5.902  0.8565 -0.2768 -1.1124
30848SOL    HW297102   8.254   4.273   5.921 -0.7324 -0.2891  0.8184
30849SOL     OW97103   0.459   0.151   2.020  0.2125  0.3206  0.0396
30849SOL    HW197104   0.384   0.099   2.047 -0.5502  1.2508 -0.2393
30849SOL    HW297105   0.527   0.087   2.000 -1.0541 -0.6465 -1.3659
30850SOL     OW97106   5.377   8.886   3.340 -0.4592 -0.2975  0.0914
30850SOL    HW197107   5.356   8.850   3.426  0.0174 -1.0980 -0.1116
30850SOL    HW297108   5.355   8.815   3.279 -1.2782  0.4463 -0.4931
30851SOL     OW97109   6.960   3.518   0.751 -0.4793 -0.3853 -0.0886
30851SOL    HW197110   6.870   3.522   0.782 -0.3366 -1.0304  0.4429
30851SOL    HW297111   6.967   3.431   0.710  0.0522 -0.5630  0.3701
30852SOL     OW97112   4.239   0.272   9.336  0.4342 -0.0715  0.0650
30852SOL    HW197113   4.190   0.253   9.256 -2.3712  2.3233  1.0657
30852SOL    HW297114   4.245   0.187   9.380 -0.4412 -0.9321 -1.3789
30853SOL     OW97115   2.915   0.423   3.191  0.6226 -0.2150 -0.5345
30853SOL    HW197116   2.889   0.513   3.212  2.5267  0.1934  0.3488
30853SOL    HW297117   2.833   0.375   3.185 -0.4906  1.7064 -1.7258
30854SOL     OW97118   0.339   7.088   9.631 -0.0317 -0.3923 -0.0423
30854SOL    HW197119   0.305   7.040   9.706  1.3648 -0.6792  0.4173
30854SOL    HW297120   0.405   7.147   9.667  1.3467 -1.2091 -1.1355
30855SOL     OW97121   4.790   1.159   5.466  0.1222  0.2014 -0.3536
30855SOL    HW197122   4.762   1.233   5.413  0.0457 -0.5824 -1.4483
30855SOL    HW297123   4.839   1.198   5.538  1.0276  1.2553 -1.4994
30856SOL     OW97124   9.419   0.589   7.147 -0.2832  0.6625 -0.0422
30856SOL    HW197125   9.381   0.667   7.107 -1.5185  0.4893  0.7432
30856SOL    HW297126   9.502   0.618   7.184  0.2354  1.1312 -1.4978
30857SOL     OW97127   5.670   4.530   9.662  0.4497 -0.4468 -0.6335
30857SOL    HW197128   5.590   4.570   9.695 -0.8284 -1.8391 -1.9317
30857SOL    HW297129   5.719   4.507   9.741 -0.7829 -0.2969  0.2033
30858SOL     OW97130   6.361   6.730  11.741 -0.2054  0.5521  0.4480
30858SOL    HW197131   6.430   6.739  11.807 -0.4952 -1.4531  1.0852
30858SOL    HW297132   6.407   6.708  11.661  0.0650  1.9856  0.1740
30859SOL     OW97133   5.457  10.616   5.416 -0.7492  0.6943  0.7275
30859SOL    HW197134   5.485  10.526   5.401 -0.9329  0.7687 -0.1132
30859SOL    HW297135   5.498  10.640   5.499 -0.9688 -0.2656  1.1279
30860SOL     OW97136  10.568   0.894   0.956  0.1044  0.0733  0.2987
30860SOL    HW197137  10.545   0.823   1.017  0.3582  0.9093  1.3947
30860SOL    HW297138  10.591   0.968   1.013 -2.3561  1.8008 -0.7784
30861SOL     OW97139   7.584   9.427  11.341 -0.1950 -0.5007  0.0856
30861SOL    HW197140   7.664   9.373  11.337 -0.5645 -1.0076 -1.0998
30861SOL    HW297141   7.573   9.459  11.251  0.5426  2.4040  0.9210
30862SOL     OW97142   8.173   1.014   7.752  0.2488  0.1436 -0.1357
30862SOL    HW197143   8.124   0.937   7.727 -0.0592  0.6934 -1.2912
30862SOL    HW297144   8.127   1.049   7.828 -0.5457  0.0832 -0.5864
30863SOL     OW97145   7.769   4.037  11.745  0.2788 -0.3631  0.3524
30863SOL    HW197146   7.811   3.960  11.706  0.2409 -0.6717  0.9158
30863SOL    HW297147   7.842   4.091  11.775  0.3212 -1.6510  2.8148
30864SOL     OW97148  11.477   2.915   7.533  0.4141  0.1092  0.0776
30864SOL    HW197149  11.499   2.850   7.466 -0.0797 -0.3144  0.3211
30864SOL    HW297150  11.397   2.882   7.573  1.4669 -0.4033  1.8630
30865SOL     OW97151   2.748  11.192   8.647  0.4393 -0.0543 -0.3016
30865SOL    HW197152   2.837  11.179   8.679 -0.4878  1.3931  3.4484
30865SOL    HW297153   2.744  11.285   8.626  0.0247 -0.2952 -1.3375
30866SOL     OW97154   4.135   1.181   4.340 -0.5697 -0.1169  0.7895
30866SOL    HW197155   4.131   1.276   4.346 -0.2655 -0.0702  0.3099
30866SOL    HW297156   4.149   1.163   4.247 -3.6188 -0.7386  0.3517
30867SOL     OW97157   8.801   8.511   5.384 -0.5127 -0.1780  0.2582
30867SOL    HW197158   8.729   8.519   5.445 -0.8645  0.1832 -0.2001
30867SOL    HW297159   8.831   8.601   5.369 -1.4360 -0.0935 -1.2814
30868SOL     OW97160  11.822   1.791   6.538  0.0173 -0.2496  0.3686
30868SOL    HW197161  11.829   1.779   6.444  0.3459 -1.2743  0.5165
30868SOL    HW297162  11.777   1.713   6.570  1.2959 -0.6787  1.2305
30869SOL     OW97163   9.775   9.472   4.509 -0.5585  0.0220 -0.3202
30869SOL    HW197164   9.683   9.499   4.510 -0.6033 -0.1447  0.1495
30869SOL    HW297165   9.823   9.549   4.479 -0.4632  1.2841  2.7543
30870SOL     OW97166  11.743   1.682   3.273  0.4114  0.3013 -0.4018
30870SOL    HW197167  11.823   1.723   3.304  0.2640 -0.9733  1.8575
30870SOL    HW297168  11.758   1.588   3.284  0.2454 -0.3200 -4.1306
30871SOL     OW97169  11.736   1.455   6.164  0.5149 -0.1833 -0.2170
30871SOL    HW197170  11.665   1.401   6.129  1.4244 -0.8526 -1.0361
30871SOL    HW297171  11.756   1.416   6.249 -0.1735  0.0890  0.0793
30872SOL     OW97172   6.084   7.475   8.345 -0.4423  0.3858  0.1748
30872SOL    HW197173   6.106   7.417   8.272 -0.8905 -1.0182  1.1259
30872SOL    HW297174   6.145   7.548   8.336 -0.6292  0.3654 -1.7293
30873SOL     OW97175   0.615   5.687   1.923  0.1629  0.4938 -0.3652
30873SOL    HW197176   0.606   5.592   1.924 -1.1559  0.6069 -0.1147
30873SOL    HW297177   0.525   5.720   1.927  0.6401  1.7507  0.9582
30874SOL     OW97178   1.844   8.924   5.682  0.2480 -0.0742 -0.1541
30874SOL    HW197179   1.841   9.008   5.728  0.2318  0.4276 -1.0542
30874SOL    HW297180   1.933   8.917   5.650  0.9255 -1.4851  1.8385
30875SOL     OW97181   3.902   0.545   1.325  0.3033  0.2735  0.2070
30875SOL    HW197182   3.978   0.509   1.371  0.9076  0.6877 -0.4503
30875SOL    HW297183   3.928   0.545   1.233  0.3498  2.4513  0.1759
30876SOL     OW97184   4.740  10.895   7.276  0.1666  0.6315 -0.4130
30876SOL    HW197185   4.823  10.858   7.307  1.6455  2.2363 -2.1746
30876SOL    HW297186   4.717  10.960   7.343 -0.3039 -0.5854  0.6429
30877SOL     OW97187   5.550   2.033   7.637  0.5061  0.0248  0.3580
30877SOL    HW197188   5.625   2.085   7.663 -0.5278  0.5366  2.6422
30877SOL    HW297189   5.560   1.951   7.686  0.4034 -0.5844 -0.6119
30878SOL     OW97190  11.904   7.674   0.131  0.0157 -0.6674  0.1422
30878SOL    HW197191  11.881   7.743   0.069 -0.6459 -0.8776  0.1429
30878SOL    HW297192  11.900   7.715   0.217 -1.5344 -0.9761  0.2425
30879SOL     OW97193   9.811   6.555   6.754 -0.3934  0.2131  0.2111
30879SOL    HW197194   9.875   6.488   6.731  0.1422  0.7131  0.2403
30879SOL    HW297195   9.794   6.543   6.847  0.6751  0.9323  0.5125
30880SOL     OW97196   4.687   6.736   8.784 -0.2051  0.3158 -0.1009
30880SOL    HW197197   4.768   6.705   8.744  0.1795  0.8793  0.2179
30880SOL    HW297198   4.705   6.827   8.807 -1.2905  0.7890 -1.0112
30881SOL     OW97199   4.845  10.757   6.692 -0.7119  0.3777 -0.3625
30881SOL    HW197200   4.780  10.697   6.656 -0.3611 -0.5213  0.4329
30881SOL    HW297201   4.916  10.757   6.627 -0.3919 -0.6728 -0.0441
30882SOL     OW97202  11.871   8.193   0.169 -0.0838  0.4663  0.7025
30882SOL    HW197203  11.876   8.160   0.079  2.7198  1.6039  0.3449
30882SOL    HW297204  11.784   8.232   0.175 -0.3087  0.4562 -1.5629
30883SOL     OW97205   0.253   5.723  12.054  0.4886  0.3078  0.9679
30883SOL    HW197206   0.302   5.704  11.974  0.8889 -1.5265  1.5871
30883SOL    HW297207   0.169   5.678  12.041  0.0001  1.1923  1.0092
30884SOL     OW97208   7.721  11.468   7.447 -0.9679 -0.0000 -0.8401
30884SOL    HW197209   7.769  11.418   7.382 -0.9810 -1.3195  0.1266
30884SOL    HW297210   7.764  11.553   7.449 -0.1094 -0.4013 -1.5922
30885SOL     OW97211  10.028   9.403   1.338  0.4429  0.1715 -0.3606
30885SOL    HW197212  10.068   9.460   1.404  0.3865  0.3521 -0.4806
30885SOL    HW297213  10.033   9.315   1.376 -0.5680  0.4077  0.3640
30886SOL     OW97214   3.639   8.525  11.195  0.3567 -0.6684  0.1888
30886SOL    HW197215   3.555   8.510  11.240  0.8094 -2.1425  0.6067
30886SOL    HW297216   3.679   8.438  11.190  1.2234 -0.2215 -1.3144
30887SOL     OW97217   7.353   0.546  11.908 -0.3715  0.2353  0.5120
30887SOL    HW197218   7.258   0.558  11.899 -0.2275  0.3784 -0.9982
30887SOL    HW297219   7.379   0.501  11.828  0.9591  0.9249  0.5388
30888SOL     OW97220   6.472   3.836  10.044  0.3925  0.1882 -0.1492
30888SOL    HW197221   6.418   3.828  10.123  1.2313 -2.9539  0.2479
30888SOL    HW297222   6.432   3.776   9.982 -0.4218  2.8160 -2.3382
30889SOL     OW97223  10.380   8.900   3.288 -0.0777  0.0042  0.4018
30889SOL    HW197224  10.438   8.960   3.335  0.1392 -0.5859  0.8882
30889SOL    HW297225  10.372   8.939   3.201  1.6206 -0.2688  0.0940
30890SOL     OW97226   9.454   7.962   9.954  0.2139  0.1368 -0.1722
30890SOL    HW197227   9.367   8.001   9.949 -0.4189 -1.0252  1.0870
30890SOL    HW297228   9.497   8.010  10.025 -0.3492 -0.9871  0.9627
30891SOL     OW97229  10.250   7.467   3.462 -0.2550  0.1349  0.4217
30891SOL    HW197230  10.159   7.454   3.487 -0.6900 -0.0186 -1.1458
30891SOL    HW297231  10.258   7.562   3.448 -0.2500  0.1096  0.2578
30892SOL     OW97232   0.622   0.590  11.680  0.3497  0.4741  0.3791
30892SOL    HW197233   0.660   0.662  11.630 -0.5572  1.7839  1.4813
30892SOL    HW297234   0.678   0.583  11.757  0.2852  0.1869  0.3979
30893SOL     OW97235   7.505   4.805   5.673 -0.1846 -0.1677  0.3439
30893SOL    HW197236   7.522   4.781   5.582  0.2179 -2.3162  0.9201
30893SOL    HW297237   7.448   4.735   5.706 -0.7598  0.8550  1.6048
30894SOL     OW97238   8.358   9.748   8.114 -0.5938 -0.3299  0.5461
30894SOL    HW197239   8.402   9.785   8.191 -0.2217 -1.0820  0.7015
30894SOL    HW297240   8.386   9.657   8.112  1.4022  0.2166 -1.8951
30895SOL     OW97241   1.696  10.568   5.926 -0.1605 -0.6112 -0.0318
30895SOL    HW197242   1.718  10.475   5.923 -2.2984 -1.1490 -1.3575
30895SOL    HW297243   1.779  10.612   5.947  0.9500 -2.7662  0.3899
30896SOL     OW97244   6.133  10.255  10.158  0.2116  0.0288 -0.0069
30896SOL    HW197245   6.194  10.327  10.144  1.4430 -1.1256 -0.7971
30896SOL    HW297246   6.048  10.298  10.173  0.8314  1.6138 -0.8141
30897SOL     OW97247   3.323   7.990   5.752 -0.3327  0.1151  0.3824
30897SOL    HW197248   3.286   7.968   5.837  0.2686 -1.2906  0.3027
30897SOL    HW297249   3.418   7.988   5.766 -0.2119 -0.9284 -0.4921
30898SOL     OW97250   6.204   7.491   1.220 -0.0846 -0.1426  0.1671
30898SOL    HW197251   6.274   7.519   1.162 -0.5616  0.2079 -0.2497
30898SOL    HW297252   6.248   7.475   1.304  0.5766 -0.4853 -0.2340
30899SOL     OW97253   9.943   3.807   2.054 -0.0169  0.1229 -0.2622
30899SOL    HW197254  10.004   3.768   2.117  1.7990  2.1266 -0.6721
30899SOL    HW297255   9.994   3.816   1.973 -1.1658  0.9503 -0.9332
30900SOL     OW97256   1.221   2.394  10.642  0.2331 -0.5155  0.3267
30900SOL    HW197257   1.144   2.337  10.640  0.8099 -1.2933 -0.9041
30900SOL    HW297258   1.215   2.439  10.726 -1.7239 -0.3314  0.1330
30901SOL     OW97259   6.442   1.120   2.286  0.3117 -0.2135  0.1452
30901SOL    HW197260   6.506   1.151   2.350  0.9641 -2.0015  0.4197
30901SOL    HW297261   6.360   1.114   2.336  0.0459  1.4500 -0.0404
30902SOL     OW97262   1.886   5.452  10.758  0.1884  0.4304  0.1905
30902SOL    HW197263   1.823   5.408  10.815  0.8952  0.3457  0.9120
30902SOL    HW297264   1.970   5.443  10.803  0.3998  2.2750  0.2200
30903SOL     OW97265   8.422   1.538   5.818  0.6955 -0.7621 -0.5217
30903SOL    HW197266   8.398   1.631   5.816 -1.5106 -1.2121  1.2333
30903SOL    HW297267   8.517   1.538   5.811  1.1542  1.9406  3.0063
30904SOL     OW97268   2.524   8.510  11.342  0.1384  0.0033  0.2108
30904SOL    HW197269   2.568   8.444  11.288 -2.0223 -0.8047 -0.7063
30904SOL    HW297270   2.466   8.459  11.399 -3.0522  1.0200 -1.8639
30905SOL     OW97271   7.130   3.468   2.951 -0.0383  0.4308 -0.4959
30905SOL    HW197272   7.162   3.558   2.942 -1.5219  0.9997 -0.3078
30905SOL    HW297273   7.209   3.414   2.942  1.1427  1.7992  0.9808
30906SOL     OW97274   0.678   9.434   8.155  0.1370  0.0568  0.4592
30906SOL    HW197275   0.600   9.481   8.126  0.1526 -0.1051  0.1514
30906SOL    HW297276   0.750   9.477   8.109  0.2043  0.0371  0.5453
30907SOL     OW97277   4.729  11.725  10.243 -0.1167 -0.1579  0.4401
30907SOL    HW197278   4.664  11.758  10.180 -0.5793  1.6630  1.7816
30907SOL    HW297279   4.806  11.704  10.190 -0.7625  0.5738 -0.8274
30908SOL     OW97280   4.572   5.853   4.574 -0.6135  0.3680 -0.2196
30908SOL    HW197281   4.643   5.903   4.534  0.7207 -0.8781  0.4602
30908SOL    HW297282   4.588   5.763   4.545 -2.0442  0.0782 -0.1865
30909SOL     OW97283   1.400   1.258   5.088 -0.7752 -0.2326 -0.6735
30909SOL    HW197284   1.404   1.324   5.019  2.0687 -0.5903 -0.9664
30909SOL    HW297285   1.434   1.178   5.047  2.0526 -0.1898  1.3241
30910SOL     OW97286   8.707   4.729   4.806 -0.2480  0.1516 -0.1426
30910SOL    HW197287   8.728   4.821   4.789 -1.2017  0.6381  1.1726
30910SOL    HW297288   8.698   4.690   4.719 -0.4469  1.4511 -0.7229
30911SOL     OW97289   6.701   1.859   5.545  0.5202 -0.4676 -0.0135
30911SOL    HW197290   6.726   1.876   5.454 -1.8888 -2.3545 -1.1295
30911SOL    HW297291   6.776   1.813   5.582  0.8942 -1.2174 -1.6054
30912SOL     OW97292   8.412   1.691   5.111 -0.2993 -0.2917 -0.3372
30912SOL    HW197293   8.419   1.747   5.188 -1.8347 -1.5515  0.7928
30912SOL    HW297294   8.337   1.724   5.063 -1.4300 -1.5014  0.5152
30913SOL     OW97295  11.749   2.183   9.838  0.3611 -0.2785 -0.2089
30913SOL    HW197296  11.704   2.126   9.776  2.5274 -1.6858 -0.6233
30913SOL    HW297297  11.699   2.175   9.919 -0.0185 -1.9314 -0.5712
30914SOL     OW97298   2.139   0.517  10.842  0.5214  0.3229 -0.1150
30914SOL    HW197299   2.142   0.428  10.807  1.9353  0.8939 -1.5838
30914SOL    HW297300   2.105   0.506  10.931  0.0305 -1.5942 -0.4801
30915SOL     OW97301   2.863   8.260  11.065  0.5318 -0.5178  0.4329
30915SOL    HW197302   2.783   8.289  11.111 -0.2872  0.1698 -1.3467
30915SOL    HW297303   2.934   8.291  11.121 -0.2887  3.9757 -0.5727
30916SOL     OW97304   3.186   5.279   5.255 -0.1381 -0.1213 -0.0028
30916SOL    HW197305   3.157   5.325   5.333 -0.6510  1.3319 -0.9946
30916SOL    HW297306   3.151   5.191   5.264  0.2263 -0.1357  1.6027
30917SOL     OW97307   5.479   0.354  10.211 -0.3308  0.0450 -0.8160
30917SOL    HW197308   5.438   0.277  10.251 -2.1406  0.4874 -1.7057
30917SOL    HW297309   5.485   0.417  10.283 -1.4966  0.0569 -0.7100
30918SOL     OW97310   8.710  12.121  11.384  0.3476 -0.1804 -0.7400
30918SOL    HW197311   8.759  12.066  11.323 -0.4779 -0.9819 -0.7009
30918SOL    HW297312   8.669  12.187  11.328  0.0909 -0.5377 -0.9758
30919SOL     OW97313   2.181   0.943   1.595  0.1635 -0.2088  0.1364
30919SOL    HW197314   2.218   0.966   1.509 -0.4606 -0.4422 -0.2042
30919SOL    HW297315   2.257   0.926   1.650  0.5762 -1.6995 -0.8305
30920SOL     OW97316   8.197   0.427  10.155  0.1548 -0.3411 -0.3275
30920SOL    HW197317   8.271   0.392  10.205 -0.6166 -0.0665  1.0555
30920SOL    HW297318   8.145   0.350  10.133  1.0069 -0.5807 -1.6344
30921SOL     OW97319  10.941   5.437   3.156 -0.8015 -0.3243  0.1403
30921SOL    HW197320  10.899   5.399   3.233 -0.3820  0.3257  0.6993
30921SOL    HW297321  11.027   5.395   3.152 -0.0926  0.9775  1.1179
30922SOL     OW97322   3.953   3.068   2.536  0.1503 -0.5236  0.0140
30922SOL    HW197323   3.960   3.163   2.522  0.0310 -0.6089 -0.6550
30922SOL    HW297324   4.010   3.051   2.611  0.4852  0.0225 -0.1080
30923SOL     OW97325  10.813   1.513   1.904 -0.4653 -0.5258 -0.3258
30923SOL    HW197326  10.876   1.473   1.963  1.9497  0.5197 -1.9879
30923SOL    HW297327  10.798   1.601   1.940 -1.2700 -0.8943  0.2541
30924SOL     OW97328   7.403   2.756   1.715 -0.5555  0.1861 -0.4344
30924SOL    HW197329   7.382   2.673   1.672 -1.7119 -0.7035  1.7051
30924SOL    HW297330   7.494   2.773   1.691  0.0302 -2.2273 -0.1826
30925SOL     OW97331   0.984  11.481   9.299 -0.6815  1.0090  0.2526
30925SOL    HW197332   0.986  11.504   9.206 -1.4596  0.5085  0.1079
30925SOL    HW297333   1.064  11.430   9.313  0.2348  2.3613  0.2179
30926SOL     OW97334   2.662   0.367   6.696 -0.1052  0.0175 -0.1193
30926SOL    HW197335   2.636   0.415   6.618  0.7897 -1.6637 -1.5265
30926SOL    HW297336   2.705   0.288   6.662 -0.2464 -1.0729  2.0754
30927SOL     OW97337   7.431  10.642   1.479 -0.0344 -0.2491  0.2368
30927SOL    HW197338   7.354  10.678   1.524  0.7813 -0.4833  1.9023
30927SOL    HW297339   7.498  10.636   1.547  1.1913 -0.9017 -0.9721
30928SOL     OW97340   2.798   1.881   1.738  0.3604  0.2657  0.3704
30928SOL    HW197341   2.718   1.932   1.743  0.4802  0.3500  1.6347
30928SOL    HW297342   2.855   1.918   1.805  0.8521 -0.8259  0.5817
30929SOL     OW97343   4.532   9.659   5.562  0.4654  0.1074  0.0288
30929SOL    HW197344   4.521   9.698   5.475 -0.6463 -0.1120  0.0565
30929SOL    HW297345   4.503   9.727   5.623 -1.6753 -0.7703  0.0691
30930SOL     OW97346  10.756   0.468   5.870 -0.0647  0.1774  0.2427
30930SOL    HW197347  10.800   0.438   5.950  0.5395  0.9542  0.2118
30930SOL    HW297348  10.778   0.561   5.864 -1.4655  0.5199  0.0507
30931SOL     OW97349   7.672  11.427   9.416 -0.0564  0.1937  0.2379
30931SOL    HW197350   7.624  11.477   9.481 -2.4564  0.0516 -1.2952
30931SOL    HW297351   7.755  11.473   9.406 -1.0343  2.1884  0.9096
30932SOL     OW97352  10.164   8.422   3.909  0.0050 -0.1433  0.1888
30932SOL    HW197353  10.173   8.481   3.834 -2.5975 -0.2295 -0.2727
30932SOL    HW297354  10.219   8.347   3.886 -1.3216 -0.5093 -2.0578
30933SOL     OW97355  11.212  10.441  10.649 -0.1871  0.1176  0.7154
30933SOL    HW197356  11.121  10.470  10.636 -1.3468 -3.7998 -1.3243
30933SOL    HW297357  11.218  10.425  10.744 -1.4230  0.9122  0.9545
30934SOL     OW97358   7.350  10.420   5.740  0.1166  0.1299  0.1943
30934SOL    HW197359   7.263  10.385   5.760  0.4811 -0.5222  0.7132
30934SOL    HW297360   7.401  10.400   5.819  0.8530  0.0822 -0.2920
30935SOL     OW97361   6.589   6.662   1.758 -0.3790 -0.2861  0.2986
30935SOL    HW197362   6.619   6.670   1.848  0.9476 -0.2566 -0.1311
30935SOL    HW297363   6.552   6.748   1.737 -0.1138 -0.0991  0.6083
30936SOL     OW97364   7.289  11.988   2.668 -0.5152  0.1062 -0.6475
30936SOL    HW197365   7.281  11.912   2.612  1.1224 -0.5703  0.0030
30936SOL    HW297366   7.240  11.965   2.747 -0.4321 -0.0682 -0.6484
30937SOL     OW97367   2.496  11.214   6.574 -0.6784 -0.4380  0.1056
30937SOL    HW197368   2.553  11.155   6.524  1.5455  0.9248  0.8553
30937SOL    HW297369   2.480  11.168   6.656 -0.2513 -0.6645  0.0654
30938SOL     OW97370   4.504   4.087   7.251 -0.0278  0.3877  0.4943
30938SOL    HW197371   4.460   4.002   7.247  0.0554  0.3587  0.1643
30938SOL    HW297372   4.450   4.145   7.198 -0.2101  0.6027  0.9056
30939SOL     OW97373   3.086   9.744   3.343 -0.0060  0.2905 -0.1444
30939SOL    HW197374   3.167   9.699   3.320  1.2074  2.1314  0.3239
30939SOL    HW297375   3.114   9.817   3.398 -1.9472  1.1864 -0.2736
30940SOL     OW97376   6.614  11.580   6.225  0.3482  0.3048  0.0170
30940SOL    HW197377   6.635  11.569   6.317  2.5678 -2.2662 -0.6690
30940SOL    HW297378   6.639  11.670   6.204  1.3122  0.4131  1.5534
30941SOL     OW97379   1.907   0.175   1.270  0.6520 -0.0341 -0.3460
30941SOL    HW197380   1.929   0.204   1.359  1.5425 -2.7090  0.4051
30941SOL    HW297381   1.956   0.234   1.213  0.4919  1.4035  0.9316
30942SOL     OW97382   7.267   4.880   4.053 -0.4719 -0.2802  0.2622
30942SOL    HW197383   7.340   4.941   4.046 -2.0154  1.6357  0.0511
30942SOL    HW297384   7.256   4.846   3.964  0.1640 -0.6036  0.3025
30943SOL     OW97385   5.012   9.442   1.594 -0.5401  0.0140 -0.0757
30943SOL    HW197386   5.061   9.398   1.664  1.0843  2.1013  0.1955
30943SOL    HW297387   4.922   9.448   1.628 -0.6586 -2.3553  0.1637
30944SOL     OW97388   6.001   2.897   0.547  0.7402  0.3105 -0.0182
30944SOL    HW197389   5.916   2.934   0.524  0.2524 -0.8327 -0.1332
30944SOL    HW297390   6.024   2.939   0.630 -1.0639 -1.0492  1.2634
30945SOL     OW97391  10.184   2.068   8.153 -0.1100  0.2675  0.3924
30945SOL    HW197392  10.238   1.992   8.174  0.0930  0.6763  1.4638
30945SOL    HW297393  10.097   2.032   8.136  0.2353 -0.2951 -0.2001
30946SOL     OW97394   5.114   8.889   1.440 -0.4197  0.2928 -0.1125
30946SOL    HW197395   5.118   8.857   1.350 -0.3621 -0.8091  0.2737
30946SOL    HW297396   5.194   8.941   1.451 -0.9822  1.4127 -1.0388
30947SOL     OW97397   5.990  10.429   0.604  0.3405  0.1938 -0.0209
30947SOL    HW197398   5.994  10.335   0.585 -1.3784  0.3632 -1.4857
30947SOL    HW297399   5.916  10.438   0.664 -0.2882  0.7386 -0.8679
30948SOL     OW97400  10.982   9.002   8.934 -0.3765 -0.1791 -0.1098
30948SOL    HW197401  11.009   9.035   8.848  0.3643 -0.1829  0.1138
30948SOL    HW297402  11.036   9.051   8.996 -0.2259 -0.8565  0.3028
30949SOL     OW97403   4.275  10.685  10.429 -0.2170 -0.1867 -0.2158
30949SOL    HW197404   4.230  10.741  10.492 -0.8776 -1.2974  0.3453
30949SOL    HW297405   4.205  10.652  10.372  0.3354  0.5737 -1.3704
30950SOL     OW97406   7.022  11.465   9.265 -0.3926  0.1484 -0.1674
30950SOL    HW197407   7.048  11.485   9.355  1.4421 -1.7901 -0.1820
30950SOL    HW297408   6.954  11.397   9.274 -1.5703  1.2750 -0.2530
30951SOL     OW97409   3.411  11.828   6.780  0.2647 -0.6077 -0.5070
30951SOL    HW197410   3.371  11.782   6.854 -1.3688  0.5695 -0.6013
30951SOL    HW297411   3.344  11.827   6.712  0.9616  0.1423 -1.2301
30952SOL     OW97412   5.524   4.098   8.451  0.0982 -0.2569  0.1851
30952SOL    HW197413   5.431   4.105   8.474 -0.0341 -0.8443 -0.1487
30952SOL    HW297414   5.528   4.129   8.361  0.0042 -1.4388 -0.2450
30953SOL     OW97415   7.512   8.957  10.330  0.5904 -0.0269  0.1448
30953SOL    HW197416   7.465   8.993  10.405  1.3004  2.0805 -0.3352
30953SOL    HW297417   7.444   8.938  10.266  0.1272 -0.0839  0.6442
30954SOL     OW97418   5.789   1.953  11.527 -0.0643 -0.1523  0.3207
30954SOL    HW197419   5.788   1.859  11.509 -1.4724 -0.1851  0.4642
30954SOL    HW297420   5.872   1.968  11.573  0.9790 -1.0168 -1.1919
30955SOL     OW97421   6.991   2.131   3.675 -0.2283  0.1306  0.0897
30955SOL    HW197422   7.010   2.055   3.730 -0.0006  0.2296  0.1516
30955SOL    HW297423   6.962   2.094   3.591  0.8236 -0.0494 -0.2171
30956SOL     OW97424   2.726   3.018   9.672 -0.2733 -0.4410  0.1637
30956SOL    HW197425   2.690   2.975   9.749  1.1700 -1.4454  0.3150
30956SOL    HW297426   2.748   3.107   9.702  1.4722 -1.2067  1.3154
30957SOL     OW97427   4.626  11.587   3.049 -0.1430  0.4590  0.0332
30957SOL    HW197428   4.592  11.669   3.014 -1.6613 -0.1487  0.0265
30957SOL    HW297429   4.569  11.520   3.014 -0.0945 -0.4287  1.5447
30958SOL     OW97430   5.806   3.142   4.915  0.1352 -0.4002 -0.2906
30958SOL    HW197431   5.876   3.207   4.922  0.1691 -0.5704  1.7037
30958SOL    HW297432   5.852   3.058   4.923 -0.1944 -0.5429  0.1397
30959SOL     OW97433   3.666   9.347   7.765 -0.1617  0.5912 -0.6409
30959SOL    HW197434   3.731   9.413   7.742 -0.1536  0.7189 -0.2544
30959SOL    HW297435   3.582   9.387   7.745 -0.3759  2.0078  2.6140
30960SOL     OW97436   6.995   1.727   1.951 -0.2998 -0.3740 -0.1395
30960SOL    HW197437   6.920   1.725   2.011 -1.3820  0.5471 -1.3983
30960SOL    HW297438   7.072   1.728   2.008 -1.2769  0.0148  1.2171
30961SOL     OW97439   9.040   7.258   4.096 -0.1234  0.0654  0.5139
30961SOL    HW197440   9.094   7.222   4.026  0.1370  0.3320  0.5747
30961SOL    HW297441   9.102   7.301   4.155 -0.2030 -1.1308  1.5196
30962SOL     OW97442  11.066   1.287   8.488 -0.7926  0.0268  0.5235
30962SOL    HW197443  11.066   1.193   8.505 -1.1048 -0.0795 -0.0487
30962SOL    HW297444  11.026   1.296   8.402 -1.4215  0.7430  0.8854
30963SOL     OW97445   5.875   4.639   1.560  0.1202  0.1700  0.7503
30963SOL    HW197446   5.892   4.716   1.614 -0.7647  0.9367 -0.0389
30963SOL    HW297447   5.780   4.639   1.548 -0.0042 -1.5302  1.4343
30964SOL     OW97448   1.895   0.174   2.338 -0.2719 -0.5958 -0.2665
30964SOL    HW197449   1.832   0.104   2.355 -0.1543 -0.7155 -0.3230
30964SOL    HW297450   1.981   0.132   2.344 -0.0597  0.0904  2.4645
30965SOL     OW97451  10.629   6.795   1.147  0.1590 -0.3540 -0.1518
30965SOL    HW197452  10.701   6.779   1.086  1.3810  2.9456  0.2216
30965SOL    HW297453  10.672   6.813   1.230 -1.2626 -0.8433  0.7085
30966SOL     OW97454   5.500   9.793  10.789  0.3899  0.0219  0.2896
30966SOL    HW197455   5.566   9.735  10.751 -0.3398  0.2434 -1.3852
30966SOL    HW297456   5.425   9.737  10.806  0.4108  0.0950  0.6494
30967SOL     OW97457   3.256   6.454   9.268 -0.2961 -0.3269 -0.7048
30967SOL    HW197458   3.351   6.470   9.269 -0.1963 -0.8684  0.3164
30967SOL    HW297459   3.218   6.535   9.302 -0.2506  0.1420 -1.7587
30968SOL     OW97460  11.777  11.458   3.235 -0.1575  0.5294  0.1981
30968SOL    HW197461  11.758  11.377   3.188 -0.4481  0.2277  0.8261
30968SOL    HW297462  11.870  11.453   3.256  0.0140  0.7398 -0.4645
30969SOL     OW97463  11.970  10.472   6.494 -0.1328  0.1457 -0.2040
30969SOL    HW197464  12.051  10.475   6.545  0.3148 -2.5496 -0.6342
30969SOL    HW297465  11.951  10.564   6.474  1.2761  1.0732  2.2446
30970SOL     OW97466   2.494   2.004   3.243  0.2768 -0.4412 -0.2293
30970SOL    HW197467   2.451   1.928   3.282  0.0481 -0.3399 -0.2813
30970SOL    HW297468   2.523   2.056   3.317 -0.1696 -0.2420 -0.1914
30971SOL     OW97469  11.241   5.803   3.291  0.0412 -0.9167 -0.6735
30971SOL    HW197470  11.220   5.795   3.198 -1.6644  2.7987 -0.7758
30971SOL    HW297471  11.163   5.844   3.330  0.9968 -1.6564  2.2877
30972SOL     OW97472   4.029   4.284   2.156  0.1735  0.7852 -0.0314
30972SOL    HW197473   4.001   4.262   2.068  0.3051 -0.5318  0.2415
30972SOL    HW297474   3.949   4.280   2.208  0.2222  0.8247  0.0465
30973SOL     OW97475   2.397   0.850   2.383 -0.0769 -0.3132 -0.2874
30973SOL    HW197476   2.473   0.872   2.330  2.6345 -2.4847  2.3872
30973SOL    HW297477   2.396   0.754   2.387 -1.4922 -0.2951  1.7007
30974SOL     OW97478   4.304   5.093   9.466  0.2966 -0.4528  0.0203
30974SOL    HW197479   4.364   5.167   9.473 -0.0512 -0.2425  1.0228
30974SOL    HW297480   4.360   5.018   9.450  0.7496 -0.1264  0.0511
30975SOL     OW97481   2.196   3.254   2.170  0.0957  0.4253 -0.2367
30975SOL    HW197482   2.238   3.169   2.160  2.1180  1.5175 -1.7033
30975SOL    HW297483   2.198   3.271   2.265  0.9472 -0.5213 -0.0744
30976SOL     OW97484   5.864  11.199   4.236 -0.5155  0.4589 -0.1092
30976SOL    HW197485   5.869  11.221   4.329 -0.8168  1.0142 -0.2195
30976SOL    HW297486   5.860  11.283   4.192  2.2808  0.3006 -0.8312
30977SOL     OW97487   8.852   9.357   8.163  0.0475  0.6128 -0.4250
30977SOL    HW197488   8.887   9.433   8.116 -1.8376  0.9133 -1.4718
30977SOL    HW297489   8.810   9.394   8.241  1.5291  0.3176  0.5355
30978SOL     OW97490   5.606   0.577  11.658 -0.3707 -0.0625  0.2560
30978SOL    HW197491   5.633   0.582  11.566  1.1881  0.7336  0.7270
30978SOL    HW297492   5.529   0.635  11.662 -0.0135  0.4856 -0.4052
30979SOL     OW97493   4.014   1.815   3.215  0.0172 -0.4617 -0.3307
30979SOL    HW197494   3.998   1.820   3.121 -0.5915 -2.1159 -0.3397
30979SOL    HW297495   3.932   1.843   3.255 -0.2416 -1.2289 -0.3138
30980SOL     OW97496   4.978   3.350  11.526 -0.6171 -0.3038  0.0265
30980SOL    HW197497   4.939   3.291  11.462  0.7424  0.1424 -1.2799
30980SOL    HW297498   4.965   3.437  11.489  1.8542 -0.1524 -0.6662
30981SOL     OW97499   3.663   3.340  11.440 -0.1020 -0.1526  0.5476
30981SOL    HW197500   3.702   3.258  11.410 -0.0016 -0.6563  1.9711
30981SOL    HW297501   3.703   3.407  11.385  3.0101 -0.6111  2.0631
30982SOL     OW97502  11.442  11.224   6.781 -0.2940 -0.2331 -0.4098
30982SOL    HW197503  11.367  11.274   6.813 -0.3683  0.1709 -1.1996
30982SOL    HW297504  11.404  11.140   6.755 -0.6168  0.2505 -1.5413
30983SOL     OW97505   9.430   6.925   0.949  0.7824 -0.8348 -0.5245
30983SOL    HW197506   9.379   6.966   1.019  1.4174 -1.2769  0.2046
30983SOL    HW297507   9.520   6.926   0.981  0.9556 -1.8243 -0.9612
30984SOL     OW97508   1.306   9.229  10.981 -0.0919 -0.6747  0.2628
30984SOL    HW197509   1.367   9.296  10.951  0.7719 -1.8655 -0.6813
30984SOL    HW297510   1.359   9.170  11.034 -0.8668 -0.5900  1.1566
30985SOL     OW97511   8.668   2.810  10.441  0.2028 -0.3528  0.2608
30985SOL    HW197512   8.714   2.859  10.510  0.0494 -0.3443  0.3572
30985SOL    HW297513   8.703   2.846  10.359 -0.8438  0.8317  0.3044
30986SOL     OW97514   2.215  10.997  10.999 -0.0155 -0.1365  0.1935
30986SOL    HW197515   2.130  11.010  10.957  0.2727  0.6351 -0.1620
30986SOL    HW297516   2.201  10.922  11.057 -1.2926  0.7383  1.0740
30987SOL     OW97517   0.703  11.043   7.437  0.5186 -0.4312 -0.2148
30987SOL    HW197518   0.635  11.052   7.369  0.1290 -1.4558  0.0317
30987SOL    HW297519   0.713  11.132   7.471  0.2854 -0.0112 -1.1979
30988SOL     OW97520  11.366   1.224   3.256  0.2520  0.3556  0.0436
30988SOL    HW197521  11.380   1.318   3.271  1.6812  0.7431 -2.9474
30988SOL    HW297522  11.295   1.220   3.192  0.0700 -0.6407  0.2909
30989SOL     OW97523   1.335  11.692  11.912 -0.3027  0.0037 -0.4441
30989SOL    HW197524   1.289  11.618  11.871  0.3978 -0.7911  0.1689
30989SOL    HW297525   1.426  11.682  11.884  0.2728 -0.7720  1.5263
30990SOL     OW97526   2.619   1.711   1.588 -0.2690 -0.5948 -0.3460
30990SOL    HW197527   2.691   1.760   1.627 -0.6204  0.3622 -0.8672
30990SOL    HW297528   2.571   1.675   1.664  0.8116 -1.3574 -0.0046
30991SOL     OW97529   5.110  10.069   9.710 -0.0604  0.0577  0.0458
30991SOL    HW197530   5.085   9.983   9.744  0.6146 -0.3724 -0.5153
30991SOL    HW297531   5.109  10.126   9.786 -0.9958 -0.3283  0.3466
30992SOL     OW97532   2.643   4.578   5.927 -0.1859  0.4302 -0.1975
30992SOL    HW197533   2.566   4.532   5.892 -0.3926  2.4102 -2.6901
30992SOL    HW297534   2.696   4.597   5.849  1.2474  1.8948  1.0772
30993SOL     OW97535   1.445   0.338   3.576 -0.1295  0.0891 -0.0439
30993SOL    HW197536   1.435   0.324   3.482 -0.1186  2.7438 -0.5084
30993SOL    HW297537   1.355   0.344   3.609 -0.1321 -0.3755  0.0333
30994SOL     OW97538  11.494  10.076   2.092 -0.4504  0.8278  0.5676
30994SOL    HW197539  11.585  10.095   2.114 -0.0928  0.3357 -0.4284
30994SOL    HW297540  11.445  10.153   2.121  0.6150  2.1886 -1.1086
30995SOL     OW97541   6.073   5.781   7.803 -0.0474 -0.0318 -0.6361
30995SOL    HW197542   6.017   5.838   7.750 -1.1321 -1.1674 -0.7645
30995SOL    HW297543   6.140   5.749   7.742 -0.8597 -0.7617 -1.1717
30996SOL     OW97544  10.522   6.125   7.527  0.3688  0.1204 -0.2706
30996SOL    HW197545  10.550   6.216   7.522 -1.1424  0.5564 -1.6628
30996SOL    HW297546  10.464   6.122   7.604  0.6127  0.2608 -0.0782
30997SOL     OW97547   8.827   3.396   1.553 -0.2552  0.7194  0.9251
30997SOL    HW197548   8.740   3.432   1.536 -0.1186  1.0994  1.0151
30997SOL    HW297549   8.875   3.410   1.471 -0.6270 -0.5508  0.4749
30998SOL     OW97550   5.907   8.241   2.612 -0.3990  0.2639  0.4039
30998SOL    HW197551   5.867   8.241   2.699  0.0491  0.6584  0.6149
30998SOL    HW297552   5.962   8.163   2.612 -0.9902 -0.1596  0.1921
30999SOL     OW97553  10.196   4.320   0.264  0.1379  0.7067  0.2923
30999SOL    HW197554  10.288   4.317   0.292  0.2293  0.8411  0.0077
30999SOL    HW297555  10.178   4.232   0.233  0.3161  0.8106 -0.1096
31000SOL     OW97556  11.911   8.746   5.516  0.0652  0.4521  0.2199
31000SOL    HW197557  11.992   8.781   5.553  0.5026  0.1775 -0.4702
31000SOL    HW297558  11.924   8.750   5.421 -0.3275 -0.5260  0.1128
31001SOL     OW97559   8.480   8.779   0.218  0.2588  0.5501  0.3757
31001SOL    HW197560   8.517   8.837   0.150  0.3160  0.7588  0.5819
31001SOL    HW297561   8.427   8.837   0.272  2.2071  0.9206  2.0129
31002SOL     OW97562  10.460   6.682   0.164 -0.1237  0.2138 -0.1572
31002SOL    HW197563  10.465   6.750   0.097  1.8889  0.4563  0.1884
31002SOL    HW297564  10.402   6.719   0.231 -2.3465 -0.1245 -1.7871
31003SOL     OW97565   0.515   1.809   4.043 -0.5663 -0.4314 -0.6539
31003SOL    HW197566   0.444   1.864   4.075 -0.3375 -0.4967 -0.0316
31003SOL    HW297567   0.529   1.744   4.111  1.1112  0.5086 -0.0335
31004SOL     OW97568   4.617  10.501   2.981 -0.3829 -0.1188  0.0424
31004SOL    HW197569   4.603  10.568   2.914 -2.5072  0.2037  0.7337
31004SOL    HW297570   4.549  10.436   2.964 -1.2321  0.1702  2.0944
31005SOL     OW97571   7.302  12.035   0.033  0.1583 -0.1301 -0.3152
31005SOL    HW197572   7.383  12.008  -0.009  1.2045  1.2740  0.7114
31005SOL    HW297573   7.309  12.130   0.041  0.2347 -0.3159  3.3520
31006SOL     OW97574   8.249   3.256  10.518 -0.1676  0.4924 -0.1496
31006SOL    HW197575   8.251   3.191  10.447 -1.3643 -1.1620  1.2293
31006SOL    HW297576   8.300   3.216  10.588 -0.5701  1.2346  0.5831
31007SOL     OW97577   0.225   1.595   6.008 -0.3340 -0.5746  0.2359
31007SOL    HW197578   0.199   1.684   6.032 -2.1320 -1.5337  2.1178
31007SOL    HW297579   0.291   1.607   5.939 -0.4185  2.1895  0.5387
31008SOL     OW97580   1.294   4.232   3.255 -0.1843  0.5262 -0.0668
31008SOL    HW197581   1.376   4.183   3.254 -0.4912 -0.0163  0.3419
31008SOL    HW297582   1.257   4.221   3.168  0.9721  2.1819 -0.8134
31009SOL     OW97583   7.570  10.434   0.968  0.1744  0.1881  0.0046
31009SOL    HW197584   7.482  10.448   1.004 -0.2084  2.4864 -1.6047
31009SOL    HW297585   7.629  10.469   1.035 -0.2083 -0.0840  0.4942
31010SOL     OW97586   8.807  11.920   0.973  0.2757 -0.8110 -0.4101
31010SOL    HW197587   8.826  11.846   1.030  2.1277 -0.0344  0.0905
31010SOL    HW297588   8.883  11.978   0.983 -1.3476  1.4552 -0.2935
31011SOL     OW97589   6.879   2.602   3.798  0.1600  0.4831  0.3470
31011SOL    HW197590   6.896   2.594   3.892  0.4124  0.4833  0.3017
31011SOL    HW297591   6.945   2.547   3.757  0.0455  0.4785  0.1681
31012SOL     OW97592   6.041   3.039   9.113 -0.2480 -0.3766 -0.5964
31012SOL    HW197593   6.037   2.947   9.087  2.3133 -0.4992 -0.8280
31012SOL    HW297594   6.047   3.086   9.030 -0.6540 -0.0476 -0.4433
31013SOL     OW97595   6.181   8.052   2.109 -0.6722 -0.0933  0.3583
31013SOL    HW197596   6.109   7.991   2.095  0.2575 -1.2663  0.5315
31013SOL    HW297597   6.224   8.020   2.189  2.3944 -1.8696 -1.7942
31014SOL     OW97598   3.509   7.553   6.797 -0.1661 -0.1243  0.0199
31014SOL    HW197599   3.585   7.591   6.841  0.1439 -0.5186 -0.1648
31014SOL    HW297600   3.434   7.597   6.836  0.1612  0.3177  0.1558
31015SOL     OW97601   7.139   4.311   0.487 -0.4680 -0.1153  0.7336
31015SOL    HW197602   7.197   4.235   0.481  0.1326  0.4303 -0.7144
31015SOL    HW297603   7.056   4.280   0.450 -0.4501 -0.2698  0.8191
31016SOL     OW97604   5.582   6.639   8.002  0.0126  0.1111 -0.4375
31016SOL    HW197605   5.573   6.632   8.097 -1.1635 -0.9028 -0.5991
31016SOL    HW297606   5.675   6.658   7.988  0.2945 -0.1663  0.8917
31017SOL     OW97607   3.313   8.860   5.167 -0.3516 -0.6178 -0.3172
31017SOL    HW197608   3.320   8.806   5.246  0.4926  0.9042  0.6985
31017SOL    HW297609   3.322   8.798   5.095  2.3719 -1.7047  0.7867
31018SOL     OW97610   1.495   9.663   5.926 -0.0794  0.3392 -0.0815
31018SOL    HW197611   1.507   9.749   5.966  2.1100 -0.4357  1.1142
31018SOL    HW297612   1.408   9.636   5.954 -1.9389  3.1316 -2.5860
31019SOL     OW97613   1.834   4.451  10.555 -0.1351  0.6001 -0.7787
31019SOL    HW197614   1.899   4.405  10.609  0.7917  1.5506 -1.0578
31019SOL    HW297615   1.831   4.539  10.592 -0.3433  0.9185 -1.5502
31020SOL     OW97616   6.657  10.784  10.115  0.5753 -0.1570 -0.0322
31020SOL    HW197617   6.667  10.736  10.033 -0.0038 -2.1060  0.9797
31020SOL    HW297618   6.565  10.774  10.137  0.1436  2.4799 -0.3503
31021SOL     OW97619  11.873  10.845   9.963  0.2641  0.6622  0.1826
31021SOL    HW197620  11.851  10.880   9.877 -0.3749  0.6589  0.3410
31021SOL    HW297621  11.920  10.917  10.006  2.5987 -0.0772 -0.9445
31022SOL     OW97622   2.328   3.191   4.363  0.2235 -0.0897  0.7576
31022SOL    HW197623   2.333   3.285   4.378  1.8866 -0.1078  0.5034
31022SOL    HW297624   2.406   3.155   4.405 -0.2675 -1.3324  0.6615
31023SOL     OW97625   2.784  10.427  11.659 -0.3641 -0.6654  0.4132
31023SOL    HW197626   2.874  10.433  11.690  1.1935  0.2330 -3.6555
31023SOL    HW297627   2.760  10.335  11.673  0.7280 -0.6790  2.5434
31024SOL     OW97628   8.765   0.058  11.751 -0.7089  0.1744 -0.0766
31024SOL    HW197629   8.684   0.094  11.786 -0.5623  0.3281  0.1028
31024SOL    HW297630   8.786   0.113  11.676  0.0763  1.1249  0.8188
31025SOL     OW97631   3.919   4.342   6.099  0.2287 -0.6051  0.5472
31025SOL    HW197632   3.996   4.391   6.126 -1.7681  2.0897  1.8403
31025SOL    HW297633   3.907   4.364   6.007  0.1571  0.1950  0.7440
31026SOL     OW97634   7.412  11.110   1.021 -0.2469  0.0638  0.6523
31026SOL    HW197635   7.343  11.108   1.087 -1.0165  0.4533 -0.1154
31026SOL    HW297636   7.418  11.019   0.990 -1.8073  0.3503 -0.6426
31027SOL     OW97637   4.925   0.627  11.316  0.0923 -0.1877  0.2040
31027SOL    HW197638   4.973   0.704  11.348  1.8387 -0.6836 -1.0852
31027SOL    HW297639   4.843   0.663  11.283 -0.0269  0.8364  1.5141
31028SOL     OW97640   1.275   4.683   7.223 -0.4434  0.2205 -0.2158
31028SOL    HW197641   1.365   4.649   7.217 -0.6471 -0.8953  1.9402
31028SOL    HW297642   1.238   4.670   7.136  1.7392  1.5653 -1.4277
31029SOL     OW97643   9.979   5.831   9.192 -0.2904  0.4773  0.2975
31029SOL    HW197644  10.033   5.908   9.179 -0.2196  0.4382  0.3605
31029SOL    HW297645   9.895   5.853   9.152 -0.1584  0.4556  0.0036
31030SOL     OW97646   3.909  10.530   5.584 -0.0441 -0.2863 -0.5406
31030SOL    HW197647   3.975  10.516   5.652 -1.5135  0.4333  1.1109
31030SOL    HW297648   3.889  10.623   5.590 -0.7095 -0.3584 -1.5113
31031SOL     OW97649   4.999   1.143   6.046 -0.2543  0.2350 -0.3995
31031SOL    HW197650   4.907   1.171   6.045  0.0296  1.1823 -0.8013
31031SOL    HW297651   5.021   1.132   5.954 -0.1087 -0.4958 -0.2794
31032SOL     OW97652   1.356   7.112   5.731 -0.4402  0.0514  0.1138
31032SOL    HW197653   1.435   7.156   5.763  1.0800  0.0150 -3.1796
31032SOL    HW297654   1.284   7.158   5.774  1.2911  1.6846  1.4309
31033SOL     OW97655  11.371   1.064   4.442 -0.3768  0.2357 -0.2543
31033SOL    HW197656  11.400   0.984   4.485 -1.6954 -1.1669 -1.8031
31033SOL    HW297657  11.291   1.088   4.489 -0.3078  0.3136 -0.1755
31034SOL     OW97658   3.236   7.949   6.450  0.0465  0.8081  0.1874
31034SOL    HW197659   3.154   7.993   6.476 -1.0226 -0.5983 -0.6503
31034SOL    HW297660   3.207   7.874   6.398  1.8796  0.0615  0.1849
31035SOL     OW97661   6.874   6.286   9.654  0.0885 -0.1522 -0.6753
31035SOL    HW197662   6.852   6.237   9.734 -1.5076  1.0559 -0.3286
31035SOL    HW297663   6.791   6.323   9.625  1.2774  2.8730 -0.5567
31036SOL     OW97664   1.035   1.479  10.079 -0.1814 -0.7726 -0.5346
31036SOL    HW197665   0.975   1.500  10.151 -0.2396 -1.2077 -0.4576
31036SOL    HW297666   1.064   1.565  10.047  1.7394 -0.5420  1.5927
31037SOL     OW97667   6.860   6.577   4.326  0.1788  0.2657 -0.2307
31037SOL    HW197668   6.934   6.630   4.356  0.4248  1.0848 -2.1055
31037SOL    HW297669   6.784   6.633   4.337  0.0651  0.0253  0.2076
31038SOL     OW97670   1.419   2.775   7.132 -0.3136  0.0066 -0.2705
31038SOL    HW197671   1.377   2.701   7.175 -1.0409 -0.3716 -1.5755
31038SOL    HW297672   1.424   2.843   7.199 -1.4635 -0.5363  0.3880
31039SOL     OW97673   7.040   3.802   0.032  0.1981  0.2225  0.1162
31039SOL    HW197674   6.987   3.765   0.103  2.1245 -0.4800  1.2502
31039SOL    HW297675   7.013   3.894   0.029 -0.1547  0.1951  1.5602
31040SOL     OW97676   9.017   4.366  10.150  0.3159 -0.1138 -0.2896
31040SOL    HW197677   9.057   4.293  10.103  1.2329  0.9332 -1.2057
31040SOL    HW297678   9.056   4.444  10.110  0.1263  0.8545  1.3234
31041SOL     OW97679   5.548   2.677   2.125 -0.1099 -0.0701 -0.3832
31041SOL    HW197680   5.523   2.607   2.065 -0.8092  0.7421 -1.0561
31041SOL    HW297681   5.493   2.751   2.101  1.6723  1.2159 -0.7076
31042SOL     OW97682   8.191   3.234   0.466  0.4025  0.6783 -0.7799
31042SOL    HW197683   8.205   3.231   0.372  0.5600 -1.4928 -0.7365
31042SOL    HW297684   8.258   3.176   0.502 -1.3710 -0.7607  0.4092
31043SOL     OW97685   8.188  11.014  12.101 -0.6227  0.0510 -0.6044
31043SOL    HW197686   8.096  11.004  12.079 -0.7744  0.4557 -0.1693
31043SOL    HW297687   8.190  11.012  12.197 -0.0546 -1.0100 -0.6144
31044SOL     OW97688   1.724   8.146  10.715  0.3091  1.0840 -0.5926
31044SOL    HW197689   1.702   8.059  10.683 -0.3557  1.0814 -0.1382
31044SOL    HW297690   1.753   8.194  10.637  2.0303  0.0508 -0.6396
31045SOL     OW97691   8.471   5.647   6.590  0.4332 -0.3152 -0.2521
31045SOL    HW197692   8.394   5.677   6.540  0.2918 -1.0288 -0.4781
31045SOL    HW297693   8.517   5.589   6.530  1.1896  0.1478 -0.1337
31046SOL     OW97694   9.182   1.277   1.905  0.3053  0.3843 -0.2604
31046SOL    HW197695   9.147   1.190   1.922  0.3737  0.0655 -1.6035
31046SOL    HW297696   9.129   1.335   1.959  0.4113 -0.4966  0.8417
31047SOL     OW97697  11.997   7.576   1.968 -0.2635  0.2984 -0.3016
31047SOL    HW197698  11.917   7.534   1.936  0.2581 -0.0432 -1.2247
31047SOL    HW297699  12.061   7.560   1.898  0.2437  1.7195 -0.2035
31048SOL     OW97700   7.993   4.043   1.166 -0.2603 -0.2890  0.6741
31048SOL    HW197701   8.089   4.043   1.162 -0.1372  2.0540  1.8515
31048SOL    HW297702   7.965   4.035   1.075  1.2465  4.1308 -0.4570
31049SOL     OW97703   4.644   5.838   8.597  0.3835 -0.2435  0.3621
31049SOL    HW197704   4.568   5.798   8.555  0.3599 -1.4020  1.4618
31049SOL    HW297705   4.696   5.764   8.629  0.4833  0.5863  2.1967
31050SOL     OW97706   8.146   7.944  11.051 -0.1066 -0.2981 -0.3714
31050SOL    HW197707   8.152   7.958  10.956  0.7863  1.5648 -0.0850
31050SOL    HW297708   8.233   7.969  11.084 -0.7305  0.0725  1.0492
31051SOL     OW97709   0.134   9.627   7.702  0.1912  0.1006 -0.3928
31051SOL    HW197710   0.068   9.693   7.726  0.7871  0.6245 -0.1791
31051SOL    HW297711   0.160   9.590   7.786 -1.0586 -1.3294 -0.5845
31052SOL     OW97712   0.583  10.227  11.033  0.2303 -0.2024  0.2106
31052SOL    HW197713   0.499  10.271  11.018 -1.0284 -1.2345  3.5166
31052SOL    HW297714   0.642  10.298  11.058 -0.0342  0.3606 -0.7217
31053SOL     OW97715  11.458   8.609   1.712 -0.0032 -0.1691  0.0781
31053SOL    HW197716  11.501   8.579   1.792  0.6037 -2.0964 -0.9112
31053SOL    HW297717  11.521   8.670   1.673 -0.1133  0.4412  0.8350
31054SOL     OW97718   9.033   3.174   3.783  0.0614 -0.2555 -0.1344
31054SOL    HW197719   8.986   3.117   3.844  1.5719 -0.3314  1.0271
31054SOL    HW297720   8.964   3.214   3.730 -1.2410 -0.9141  0.9836
31055SOL     OW97721   2.647  10.065   7.258  0.4250  0.7579 -0.2094
31055SOL    HW197722   2.602  10.143   7.228 -1.7659  0.3792  1.8158
31055SOL    HW297723   2.703  10.040   7.184 -0.7921  2.6950 -1.9003
31056SOL     OW97724   5.050   1.294   0.141  0.3045 -0.6659  0.3278
31056SOL    HW197725   5.064   1.201   0.126  1.5279 -0.1379 -2.6138
31056SOL    HW297726   5.087   1.336   0.063 -2.0029  2.1632  0.6015
31057SOL     OW97727   6.179   0.547   1.333 -0.0319  0.3753  0.0612
31057SOL    HW197728   6.251   0.609   1.332 -1.5918  2.3237  0.7210
31057SOL    HW297729   6.220   0.462   1.319  2.2785  1.4644 -0.2661
31058SOL     OW97730   9.282   2.833  11.796  0.4589 -0.0749 -0.2528
31058SOL    HW197731   9.194   2.866  11.816  0.8537  0.4068  0.7472
31058SOL    HW297732   9.312   2.793  11.878  1.2177 -0.1482 -0.5572
31059SOL     OW97733   9.255   3.599  10.390 -0.2958  0.1625  0.6307
31059SOL    HW197734   9.211   3.623  10.472 -2.9896  2.3893 -1.2806
31059SOL    HW297735   9.185   3.596  10.325  1.8444 -0.5740 -1.8348
31060SOL     OW97736  10.060   5.183   2.152  0.3606  0.0730 -0.4395
31060SOL    HW197737  10.041   5.136   2.070  0.5843 -0.6690 -0.0716
31060SOL    HW297738  10.124   5.129   2.197 -2.3742 -1.4589  1.9183
31061SOL     OW97739   6.625   9.285   3.293  0.0348 -0.1484 -0.8666
31061SOL    HW197740   6.692   9.335   3.246  0.9125  0.8178  1.2828
31061SOL    HW297741   6.544   9.334   3.278  0.6396  1.2301  0.0690
31062SOL     OW97742   7.309   3.868   9.343  1.0069 -0.4033 -0.5704
31062SOL    HW197743   7.257   3.879   9.423  1.8873 -2.7699  0.4208
31062SOL    HW297744   7.271   3.930   9.281  0.2629  1.4838  1.6419
31063SOL     OW97745   2.812   0.217   5.695  0.0031 -0.0034  0.6438
31063SOL    HW197746   2.806   0.306   5.728  1.7947  0.2502  0.3786
31063SOL    HW297747   2.875   0.174   5.753  0.4182 -0.6005 -0.2295
31064SOL     OW97748   6.142   4.302   6.847  0.7148  0.0460 -0.5180
31064SOL    HW197749   6.225   4.344   6.825  0.9257  0.1722  0.4600
31064SOL    HW297750   6.088   4.372   6.881  1.1573 -0.4713  1.3606
31065SOL     OW97751   0.783   7.942   2.330 -0.4833 -0.2482  0.0593
31065SOL    HW197752   0.854   8.000   2.302  0.7843 -1.7092  0.1301
31065SOL    HW297753   0.753   7.901   2.249 -1.2742  0.3682  0.0300
31066SOL     OW97754  11.549   1.452  11.622  0.0544  0.6644 -0.6103
31066SOL    HW197755  11.609   1.500  11.564 -0.3848  0.6543 -1.0847
31066SOL    HW297756  11.579   1.362  11.618  0.2372  0.7231 -0.5560
31067SOL     OW97757  10.532   0.298   9.694 -0.5372  0.0475 -0.1846
31067SOL    HW197758  10.552   0.342   9.611 -0.7915  1.6652  0.5641
31067SOL    HW297759  10.489   0.366   9.747  0.9106 -0.4897  1.7964
31068SOL     OW97760   0.064   5.844   1.852  0.5508 -0.4964 -0.1051
31068SOL    HW197761   0.023   5.852   1.938 -1.3181 -1.0895 -0.8912
31068SOL    HW297762  -0.007   5.819   1.794  1.8419 -0.4544 -1.7775
31069SOL     OW97763   3.618   2.188   7.455 -0.6040  0.0309  0.2735
31069SOL    HW197764   3.693   2.246   7.466 -1.7118  1.1741  2.2646
31069SOL    HW297765   3.637   2.113   7.511  0.2489 -1.0134 -1.3344
31070SOL     OW97766   3.050  12.008   5.857 -0.1425 -0.3777 -0.0897
31070SOL    HW197767   2.998  12.084   5.882  0.5132 -0.2477  0.9481
31070SOL    HW297768   2.991  11.934   5.869 -0.3157 -0.1695  0.3858
31071SOL     OW97769  11.235   2.346  12.010  0.0884 -0.1155  0.5744
31071SOL    HW197770  11.219   2.433  12.046 -0.5657  0.2085 -0.4558
31071SOL    HW297771  11.148   2.309  11.998  0.3019 -0.3626 -0.2897
31072SOL     OW97772   6.663   1.891   5.036 -0.0693 -0.3016 -0.3535
31072SOL    HW197773   6.674   1.985   5.021  0.9411 -0.5041 -0.9481
31072SOL    HW297774   6.595   1.885   5.104  0.7157  0.8874  0.5743
31073SOL     OW97775  10.141   5.076   1.765  0.0416  0.4883 -0.2181
31073SOL    HW197776  10.212   5.045   1.709  0.0765 -0.2730  0.2272
31073SOL    HW297777  10.170   5.161   1.796  0.5687  0.3741 -0.3951
31074SOL     OW97778  12.003   8.444   4.057 -0.6228  0.0413 -0.6166
31074SOL    HW197779  12.025   8.395   3.978  0.3854  0.3179 -0.5104
31074SOL    HW297780  12.065   8.516   4.059 -0.8986  0.2657  0.2215
31075SOL     OW97781   8.474   3.692   5.762  1.1149  0.6146 -0.5655
31075SOL    HW197782   8.536   3.763   5.748  0.2572  1.2476 -1.2239
31075SOL    HW297783   8.409   3.728   5.823 -0.2279  0.9834 -2.1520
31076SOL     OW97784   2.319   1.155   0.844  0.2466  0.0059  0.1022
31076SOL    HW197785   2.253   1.209   0.800  0.3924  0.8405  0.8957
31076SOL    HW297786   2.391   1.152   0.781  0.0150  0.2645 -0.1847
31077SOL     OW97787   4.896   7.840   6.500  0.1407 -0.1978 -0.0860
31077SOL    HW197788   4.820   7.850   6.442  1.7078 -1.5018 -2.5028
31077SOL    HW297789   4.936   7.927   6.502  0.6584 -0.3532 -1.9193
31078SOL     OW97790   6.346  11.833   6.108  0.7688 -0.4221  1.2452
31078SOL    HW197791   6.332  11.915   6.061 -1.6996 -1.9076 -0.8735
31078SOL    HW297792   6.402  11.782   6.050  0.0065 -1.2338  1.2038
31079SOL     OW97793   1.246   0.451  12.076 -0.7095  0.3557  0.5499
31079SOL    HW197794   1.181   0.466  12.008 -2.7599  0.9060  2.5056
31079SOL    HW297795   1.224   0.365  12.112 -0.0295  0.3227  0.9207
31080SOL     OW97796   9.300   7.643   0.292 -0.3372 -0.1498 -0.0991
31080SOL    HW197797   9.392   7.644   0.264 -0.8910 -1.9448 -2.3056
31080SOL    HW297798   9.262   7.720   0.250  0.2689  1.1016  1.5289
31081SOL     OW97799   3.193  10.827   8.304 -0.3564  0.1633 -0.7377
31081SOL    HW197800   3.285  10.803   8.292  0.6217  2.4072  1.4354
31081SOL    HW297801   3.156  10.822   8.216  2.0771  0.0778 -1.8536
31082SOL     OW97802  10.358   6.179   8.988  0.0062 -0.3540  0.0845
31082SOL    HW197803  10.332   6.093   8.953  0.1081 -0.1547 -0.4982
31082SOL    HW297804  10.441   6.198   8.944 -0.0957  0.1111  0.0925
31083SOL     OW97805  10.095   0.241   5.679 -0.4171  0.3437 -0.4698
31083SOL    HW197806  10.017   0.290   5.652  0.7891  1.4325 -2.1943
31083SOL    HW297807  10.167   0.283   5.632  0.8539 -2.4615 -1.2672
31084SOL     OW97808   6.973  11.055  10.757 -0.3767 -0.1071  0.2864
31084SOL    HW197809   6.998  10.991  10.822 -0.9849 -1.5092 -0.8050
31084SOL    HW297810   6.882  11.034  10.736 -0.9476  1.7954  0.6700
31085SOL     OW97811   4.449   3.381   8.997  0.3752  0.0501 -0.1389
31085SOL    HW197812   4.481   3.423   9.077 -1.2457  0.3711  0.3782
31085SOL    HW297813   4.471   3.442   8.927 -0.5811  1.0513  0.4132
31086SOL     OW97814   9.981   6.591   3.762  0.6754  0.1750  0.6740
31086SOL    HW197815  10.046   6.660   3.744  0.5193 -0.2945 -2.0535
31086SOL    HW297816   9.900   6.623   3.723 -0.1168 -0.4025  1.7717
31087SOL     OW97817   4.041   1.521   1.406 -0.1342  0.0730 -0.0678
31087SOL    HW197818   4.052   1.433   1.371 -0.6984 -0.2202  0.4715
31087SOL    HW297819   4.112   1.572   1.368 -0.1267 -0.4863 -0.8183
31088SOL     OW97820   6.162   4.096   4.575 -0.3017 -0.0146  0.5418
31088SOL    HW197821   6.157   4.156   4.649 -1.1750  0.9421 -0.2679
31088SOL    HW297822   6.124   4.014   4.608 -0.8195  0.4499  1.1174
31089SOL     OW97823   7.222   9.832   3.352  0.4448 -0.1195 -0.1920
31089SOL    HW197824   7.229   9.803   3.261 -1.7060 -1.8813  0.1125
31089SOL    HW297825   7.133   9.808   3.378 -0.8791  4.7897  0.9291
31090SOL     OW97826   7.645   5.182   4.944 -0.3672 -0.3254  0.1264
31090SOL    HW197827   7.680   5.204   4.858  1.6779 -1.7636  0.5228
31090SOL    HW297828   7.551   5.200   4.937 -1.0044 -3.5932 -3.5651
31091SOL     OW97829   9.184   1.927   5.139 -0.1385 -0.0305  0.2209
31091SOL    HW197830   9.223   1.981   5.208 -0.1097  0.3052 -0.0620
31091SOL    HW297831   9.217   1.964   5.057 -1.1263  0.3158 -0.0311
31092SOL     OW97832   1.723   7.857   1.103  0.4664  0.0714 -0.2549
31092SOL    HW197833   1.753   7.927   1.045 -0.7888  0.5692 -0.3327
31092SOL    HW297834   1.757   7.881   1.190  1.8706 -0.3823 -0.6476
31093SOL     OW97835   7.112   1.345   9.870 -0.1658 -0.5260 -0.4081
31093SOL    HW197836   7.203   1.350   9.844  0.1391  0.4503  0.7332
31093SOL    HW297837   7.106   1.264   9.922  0.4083  0.1218  0.7113
31094SOL     OW97838   4.490   8.660   8.183 -0.2002 -0.3174  0.5845
31094SOL    HW197839   4.570   8.613   8.159 -0.9816 -0.1242 -2.8272
31094SOL    HW297840   4.444   8.600   8.242  1.2711 -1.4881  0.6008
31095SOL     OW97841   0.741   9.719   3.983 -0.2184 -0.6244  0.1183
31095SOL    HW197842   0.700   9.685   4.062  0.1688  1.1487  1.1538
31095SOL    HW297843   0.668   9.738   3.924 -0.7480  0.2783  1.0214
31096SOL     OW97844   0.660  11.008  11.390  0.1893  0.5695  0.0813
31096SOL    HW197845   0.664  11.027  11.296 -0.1635  0.1930 -0.0101
31096SOL    HW297846   0.688  10.917  11.398  0.5852  0.7120  0.3841
31097SOL     OW97847  11.431   4.565   1.108  0.4726 -0.1423 -0.0850
31097SOL    HW197848  11.454   4.473   1.117 -0.7133 -0.4254  0.2630
31097SOL    HW297849  11.347   4.574   1.153  1.0384  1.3292  0.7543
31098SOL     OW97850   4.598   7.167   9.598  0.1821 -0.3529  0.0012
31098SOL    HW197851   4.518   7.116   9.585  1.2383 -1.7261 -1.5598
31098SOL    HW297852   4.604   7.222   9.520 -0.9608  2.3454  1.6750
31099SOL     OW97853  11.881   3.685  11.894  0.1072 -0.8078  0.0611
31099SOL    HW197854  11.791   3.676  11.862  0.5525 -1.3227 -1.1328
31099SOL    HW297855  11.914   3.764  11.852  0.7765 -1.6163 -0.9957
31100SOL     OW97856   3.998   7.531   3.887  0.3243 -0.2481  0.0157
31100SOL    HW197857   4.079   7.529   3.836  0.6550 -1.6165  0.5524
31100SOL    HW297858   3.971   7.439   3.893 -0.8670  0.1087  0.4855
31101SOL     OW97859  10.341   4.117   4.240 -0.3714  0.1373 -0.3850
31101SOL    HW197860  10.268   4.076   4.287 -1.1844  0.1910 -1.5516
31101SOL    HW297861  10.346   4.068   4.157  1.0362  0.0263 -0.2567
31102SOL     OW97862   6.369   4.141   4.396 -0.6508  0.2336  0.3495
31102SOL    HW197863   6.278   4.131   4.423 -0.3389  0.0769  1.3948
31102SOL    HW297864   6.401   4.051   4.387 -0.1728  0.2569  1.5638
31103SOL     OW97865   6.126  11.903   2.943 -0.0762  0.4189  0.0006
31103SOL    HW197866   6.130  11.993   2.976  1.5820 -0.2269  1.6723
31103SOL    HW297867   6.202  11.895   2.886  0.2792 -0.1902  0.5586
31104SOL     OW97868   9.312   9.107   3.968  0.0840  0.2421 -0.0625
31104SOL    HW197869   9.405   9.083   3.962  0.3878  1.5353 -0.7421
31104SOL    HW297870   9.312   9.192   4.012 -0.8901 -0.3310  1.1141
31105SOL     OW97871   0.108   8.215   0.500  0.0380 -0.4383  0.4130
31105SOL    HW197872   0.099   8.157   0.425  1.5057  0.2192 -0.2987
31105SOL    HW297873   0.084   8.160   0.575 -2.6814 -0.7617 -0.5830
31106SOL     OW97874  10.605  10.760   1.232  0.5289 -0.1358 -0.1400
31106SOL    HW197875  10.534  10.823   1.239  0.8465  0.1309  0.9886
31106SOL    HW297876  10.586  10.695   1.300 -0.3601 -1.8624 -1.9687
31107SOL     OW97877  10.647   2.882   4.734  0.1412  0.7050  0.0045
31107SOL    HW197878  10.689   2.797   4.720  1.5332  1.6805 -2.3301
31107SOL    HW297879  10.700   2.923   4.802  1.8257  1.1100 -1.4783
31108SOL     OW97880   1.155   4.852  10.347  0.5399 -0.2942  0.7307
31108SOL    HW197881   1.249   4.839  10.358  0.9369  0.5068 -1.4213
31108SOL    HW297882   1.129   4.785  10.284 -0.7620 -1.7537  2.6750
31109SOL     OW97883   4.013  11.771   7.972  0.2596 -0.3539  0.1477
31109SOL    HW197884   4.080  11.742   7.911 -1.1681 -1.6914 -0.8838
31109SOL    HW297885   3.930  11.758   7.925 -0.7483  1.0289  1.4319
31110SOL     OW97886   1.688   0.284  10.094  0.5413 -0.5637 -0.5256
31110SOL    HW197887   1.691   0.366  10.046 -1.0598 -0.7020 -0.9164
31110SOL    HW297888   1.704   0.309  10.185  1.1730  0.0177 -0.7879
31111SOL     OW97889   2.902   1.176   5.362  0.0754 -0.1751  0.4988
31111SOL    HW197890   2.991   1.158   5.331 -0.1271  0.6607 -0.6119
31111SOL    HW297891   2.877   1.095   5.408  2.1298  0.2844  2.6598
31112SOL     OW97892   6.696   5.663  11.258 -0.3040  0.4026  0.0665
31112SOL    HW197893   6.627   5.644  11.194 -1.3346 -0.6456  1.4478
31112SOL    HW297894   6.777   5.643  11.212 -1.1103 -5.2185  0.4642
31113SOL     OW97895   8.292   1.940   6.217 -0.5601  0.6148 -0.0475
31113SOL    HW197896   8.248   1.858   6.196  0.0064  0.6394 -1.3958
31113SOL    HW297897   8.263   2.001   6.150  0.3719  1.0377 -0.0800
31114SOL     OW97898  12.000   3.669  11.404  0.9133 -0.0655  1.1184
31114SOL    HW197899  11.932   3.734  11.419 -0.6520 -1.3283 -0.0593
31114SOL    HW297900  11.980   3.599  11.466  1.4854 -0.1959  1.1564
31115SOL     OW97901  11.136   6.392   2.329 -0.0247 -0.2717 -0.6392
31115SOL    HW197902  11.171   6.441   2.403  0.3124  0.1409 -1.0667
31115SOL    HW297903  11.111   6.307   2.366 -2.0212  0.7203  0.4144
31116SOL     OW97904  10.642   1.354   6.280 -0.6211 -0.7919 -0.1354
31116SOL    HW197905  10.708   1.324   6.342  1.4701  2.7325 -0.4065
31116SOL    HW297906  10.691   1.376   6.201 -2.0981  1.7126 -0.4403
31117SOL     OW97907   2.855   7.390   9.952 -0.3768 -0.0098  0.6489
31117SOL    HW197908   2.821   7.370   9.865  2.3878  0.1151 -0.5548
31117SOL    HW297909   2.912   7.316   9.973 -0.6375  0.1899  2.1860
31118SOL     OW97910  11.949   6.037   1.773 -0.0795  0.7003 -0.2771
31118SOL    HW197911  11.997   5.999   1.699  0.5155  2.8249 -1.0616
31118SOL    HW297912  11.931   5.962   1.831  0.9462 -0.7466 -1.7264
31119SOL     OW97913   0.246   7.210   6.515 -0.3710  0.1559 -0.0418
31119SOL    HW197914   0.222   7.173   6.430  0.5405  0.5686 -0.4930
31119SOL    HW297915   0.234   7.137   6.577  0.9515 -0.7799 -0.8407
31120SOL     OW97916  10.788  11.719   6.534 -0.0025  0.0190  0.1885
31120SOL    HW197917  10.863  11.704   6.476  1.2506  0.2906  1.6481
31120SOL    HW297918  10.812  11.674   6.615 -2.0693 -1.0356  0.2629
31121SOL     OW97919   0.616  10.660   0.532  0.4751  0.3682  0.1315
31121SOL    HW197920   0.577  10.712   0.603 -0.7851  1.4394 -1.2789
31121SOL    HW297921   0.710  10.678   0.537  0.2046  1.7675  0.4977
31122SOL     OW97922   2.238  10.270  10.971  0.2663  0.3412 -0.5064
31122SOL    HW197923   2.163  10.224  10.934  0.7258 -1.1389  0.3094
31122SOL    HW297924   2.220  10.273  11.065  1.0448  0.2741 -0.3448
31123SOL     OW97925   1.565   2.252   4.225  0.0943 -0.2233 -0.2398
31123SOL    HW197926   1.500   2.184   4.245 -0.3912 -0.0633 -1.2437
31123SOL    HW297927   1.524   2.306   4.157  1.1507  0.0635 -0.6675
31124SOL     OW97928   4.966   2.388   7.054  0.3779  0.4198 -0.7116
31124SOL    HW197929   4.950   2.345   7.138 -0.2077 -1.0734 -1.5514
31124SOL    HW297930   4.927   2.474   7.063  0.9983  0.5771  0.8002
31125SOL     OW97931   3.070   8.223   7.753  0.3185 -0.3238  0.0654
31125SOL    HW197932   3.031   8.211   7.840  0.0653  0.4937  0.0691
31125SOL    HW297933   3.021   8.163   7.697 -1.4237  1.1288 -0.0585
31126SOL     OW97934   8.188  10.753   0.543 -0.3821  0.4698  0.0849
31126SOL    HW197935   8.266  10.745   0.598 -0.5298  0.0039  0.2364
31126SOL    HW297936   8.144  10.832   0.575 -0.1627  0.5291  0.2426
31127SOL     OW97937   0.593   7.546   6.144  0.1971 -0.4433 -0.1926
31127SOL    HW197938   0.501   7.538   6.120  0.5676 -1.0309 -1.5091
31127SOL    HW297939   0.627   7.615   6.087  0.3269  0.6106  1.1055
31128SOL     OW97940   1.690   8.162   1.413 -0.5869  0.3146  0.2570
31128SOL    HW197941   1.669   8.118   1.496 -0.3731  0.6604  0.4947
31128SOL    HW297942   1.617   8.140   1.356 -1.0327  0.5492  0.7216
31129SOL     OW97943   0.623   5.177  10.146  0.2771 -0.0026  0.1351
31129SOL    HW197944   0.582   5.150  10.228  0.8424 -1.3368  0.0086
31129SOL    HW297945   0.717   5.162  10.160  0.5555  1.3351 -0.1853
31130SOL     OW97946   0.914   0.623   0.601  0.6689 -0.3900 -0.0753
31130SOL    HW197947   0.847   0.582   0.654  0.8699 -1.2975 -0.4983
31130SOL    HW297948   0.996   0.585   0.632  0.8719 -0.2000 -0.3682
31131SOL     OW97949   2.805   2.697   4.091  0.4565 -0.3071 -0.3849
31131SOL    HW197950   2.750   2.620   4.106  1.2700 -0.6577  0.9246
31131SOL    HW297951   2.743   2.766   4.067 -0.5412 -0.7368  0.8366
31132SOL     OW97952   5.958   9.327   1.308  0.3541 -0.2950 -0.7961
31132SOL    HW197953   5.889   9.368   1.361  1.5656 -0.6784  1.2132
31132SOL    HW297954   5.974   9.388   1.236 -1.5160  0.1608 -0.8577
31133SOL     OW97955   2.003   3.126   9.435  0.6659 -0.3424  0.7836
31133SOL    HW197956   1.936   3.161   9.377  1.1439 -0.6790  0.0038
31133SOL    HW297957   2.021   3.039   9.400  4.0043  0.9934 -1.2313
31134SOL     OW97958   7.592   0.440   1.123 -0.4306 -0.2548 -0.3970
31134SOL    HW197959   7.613   0.356   1.082 -0.8393  0.0968 -1.3511
31134SOL    HW297960   7.531   0.481   1.063 -2.3887 -0.4254  1.3601
31135SOL     OW97961   4.018   0.065   9.220 -0.6841  0.4618 -0.4359
31135SOL    HW197962   4.019  -0.023   9.259 -0.3382  0.7723  0.2715
31135SOL    HW297963   3.984   0.122   9.289 -0.7350  0.9152 -0.8296
31136SOL     OW97964   4.421  10.432   3.460 -0.0577  0.9346  0.0126
31136SOL    HW197965   4.442  10.465   3.373 -0.9591 -0.8736 -0.9585
31136SOL    HW297966   4.476  10.354   3.470 -1.1993  0.1419  0.3185
31137SOL     OW97967  10.050   6.419   7.479 -0.2643 -0.0548  0.2686
31137SOL    HW197968  10.018   6.331   7.461 -2.3408  0.6628  0.1532
31137SOL    HW297969   9.990   6.477   7.432  0.5002  1.4633  1.0578
31138SOL     OW97970   9.764   4.688   5.065 -0.2918 -0.1375  0.0153
31138SOL    HW197971   9.799   4.704   4.978  1.2004 -2.3165  0.1425
31138SOL    HW297972   9.831   4.636   5.109 -1.2760  0.3863  2.2678
31139SOL     OW97973   3.783   9.908  11.208 -0.0476 -0.5194  0.1661
31139SOL    HW197974   3.848   9.972  11.237  0.1640 -0.8854  0.4936
31139SOL    HW297975   3.833   9.828  11.190 -0.0505 -0.1172 -1.9000
31140SOL     OW97976   6.884   0.022   5.946 -0.4753 -0.4008  0.2608
31140SOL    HW197977   6.925   0.085   6.005 -2.2233  0.8840  0.2005
31140SOL    HW297978   6.903   0.055   5.858 -1.9093  0.4658  0.2360
31141SOL     OW97979   9.593   1.738  11.466  0.3114  0.0436  0.0804
31141SOL    HW197980   9.602   1.696  11.381 -1.5486 -1.1527  0.4059
31141SOL    HW297981   9.618   1.829  11.452 -0.7199  0.0529 -1.9359
31142SOL     OW97982   3.573   9.185   6.220  0.0947  0.2078  0.5016
31142SOL    HW197983   3.540   9.237   6.147 -0.0570 -2.1705 -1.2390
31142SOL    HW297984   3.570   9.244   6.295  1.0416  3.0337 -1.5378
31143SOL     OW97985   9.891   1.525   7.474 -0.1741 -0.3559 -0.0517
31143SOL    HW197986   9.867   1.618   7.483  0.4090 -0.0466 -1.4426
31143SOL    HW297987   9.968   1.515   7.529 -0.6157 -0.1814  0.6121
31144SOL     OW97988   7.620   6.150  10.341 -0.0730  0.4104  0.6464
31144SOL    HW197989   7.609   6.244  10.330 -0.3612  0.5582  1.9787
31144SOL    HW297990   7.532   6.117  10.356 -0.3275 -0.4762 -2.1623
31145SOL     OW97991   5.080   3.014   9.332 -1.1159  0.1012  0.1526
31145SOL    HW197992   5.146   2.984   9.269 -0.3477 -0.1310  1.0364
31145SOL    HW297993   5.033   3.084   9.286 -0.3763  0.1434 -0.5708
31146SOL     OW97994  11.517   1.829   7.552 -0.0722 -0.5493 -0.5187
31146SOL    HW197995  11.611   1.818   7.541 -0.1623 -1.6792 -0.3103
31146SOL    HW297996  11.481   1.740   7.542 -1.1196 -0.1245 -0.6728
31147SOL     OW97997   4.872   6.861   6.387 -0.1892 -0.1720 -0.0591
31147SOL    HW197998   4.909   6.933   6.337 -0.0879 -0.2696 -0.1247
31147SOL    HW297999   4.777   6.873   6.380 -0.1710  0.0878  0.1234
31148SOL     OW98000   3.604  11.025  10.103 -0.5203 -0.3137 -0.3898
31148SOL    HW198001   3.588  11.011  10.196  1.8915  0.1757  0.1623
31148SOL    HW298002   3.528  11.073  10.072 -1.0089  0.2024  1.5166
31149SOL     OW98003   0.759  11.358  11.941  0.0170 -0.0825  0.1061
31149SOL    HW198004   0.820  11.425  11.912 -1.1528  0.7824 -0.4557
31149SOL    HW298005   0.783  11.279  11.892  1.9606 -0.3685  1.4108
31150SOL     OW98006   1.349  11.028   5.648 -0.5306 -0.8700  0.4521
31150SOL    HW198007   1.410  11.022   5.722 -0.1767 -0.9272  0.1581
31150SOL    HW298008   1.287  11.096   5.674  2.0137  2.2451 -0.9065
31151SOL     OW98009   2.440   0.003   6.253 -0.0433 -0.0383  0.4376
31151SOL    HW198010   2.493   0.079   6.231  0.2450 -0.0446  1.0683
31151SOL    HW298011   2.461  -0.061   6.185  1.0154 -0.1514  0.8432
31152SOL     OW98012   1.134  11.766   3.134 -0.0638 -0.3408  0.3318
31152SOL    HW198013   1.087  11.684   3.150 -0.1915 -0.1115  1.1835
31152SOL    HW298014   1.065  11.829   3.115  0.0899 -0.6293 -1.3300
31153SOL     OW98015   7.995   3.506   6.581  0.0278  0.3365 -0.4577
31153SOL    HW198016   7.978   3.578   6.520  1.7143 -0.9806 -2.6520
31153SOL    HW298017   8.076   3.531   6.626  1.5549 -0.7720 -2.4111
31154SOL     OW98018   4.677  11.873   8.217 -0.0558  0.7301  0.9540
31154SOL    HW198019   4.678  11.796   8.274 -1.2059  1.1470  1.5512
31154SOL    HW298020   4.655  11.838   8.131  0.8103  0.2173  0.9267
31155SOL     OW98021   1.082   3.067   7.015  0.2239 -0.4687 -0.6332
31155SOL    HW198022   1.150   3.081   7.081  0.8216 -3.2295 -0.5701
31155SOL    HW298023   1.117   3.108   6.936 -0.1760  2.2197  0.4500
31156SOL     OW98024   3.857   9.263   2.741 -0.0292 -0.1831 -0.2435
31156SOL    HW198025   3.806   9.279   2.662  0.0226 -0.9532 -0.4492
31156SOL    HW298026   3.896   9.347   2.763 -0.8053  0.2533 -0.4953
31157SOL     OW98027  10.809   0.388   3.631  0.6581  0.5065 -0.3724
31157SOL    HW198028  10.846   0.455   3.574 -1.8176  2.8045  0.5035
31157SOL    HW298029  10.826   0.421   3.720  0.1685 -0.5087  0.1099
31158SOL     OW98030   0.186  11.388   2.295 -0.0340  0.0841 -0.1880
31158SOL    HW198031   0.244  11.312   2.290 -0.6146 -0.7171  3.0747
31158SOL    HW298032   0.099  11.353   2.274 -0.0594  0.2262 -0.3218
31159SOL     OW98033   8.899   7.320  11.194  0.0774  0.0606  0.0589
31159SOL    HW198034   8.922   7.303  11.102 -1.1856  0.6382 -0.3833
31159SOL    HW298035   8.805   7.337  11.193  0.3979  2.2877  1.1123
31160SOL     OW98036   6.648   3.716   4.565 -0.5808 -0.2411  0.6682
31160SOL    HW198037   6.703   3.767   4.624 -0.1746 -0.3039  0.3457
31160SOL    HW298038   6.690   3.630   4.562 -0.8092 -0.3518  0.5727
31161SOL     OW98039   0.155   2.668   1.466  0.5129 -0.8312 -0.0755
31161SOL    HW198040   0.080   2.633   1.417  0.9622  0.2997 -1.6503
31161SOL    HW298041   0.137   2.762   1.474  1.8451 -0.4910 -0.6969
31162SOL     OW98042   1.492   4.445   9.567  0.1729 -0.3718 -1.0039
31162SOL    HW198043   1.444   4.424   9.648  0.3799  2.8223  0.0948
31162SOL    HW298044   1.426   4.488   9.512  0.5932 -0.4525 -1.5698
31163SOL     OW98045  11.324   5.355   7.862 -0.5461  0.0867 -0.5521
31163SOL    HW198046  11.409   5.370   7.820 -1.0446  0.5705 -1.4249
31163SOL    HW298047  11.280   5.291   7.806 -1.3328  0.9454 -0.9470
31164SOL     OW98048  10.932  10.483   3.507 -0.6197  0.3918 -0.5794
31164SOL    HW198049  10.915  10.566   3.551 -1.3741 -0.9169  1.7628
31164SOL    HW298050  10.952  10.422   3.577  0.6274 -1.2843 -2.2846
31165SOL     OW98051   4.770   1.781   9.725  0.2654  0.1359  0.1368
31165SOL    HW198052   4.732   1.702   9.764  2.6759 -0.9852  0.3877
31165SOL    HW298053   4.828   1.815   9.793 -0.3767  1.8898 -0.1574
31166SOL     OW98054   1.620  10.230   8.489 -0.1652 -0.5839 -0.2367
31166SOL    HW198055   1.710  10.231   8.457  0.0791  1.6980  0.3943
31166SOL    HW298056   1.578  10.305   8.446 -0.9026  0.2284  1.7967
31167SOL     OW98057   3.208   5.861   2.825  0.1907 -0.7167  0.2191
31167SOL    HW198058   3.217   5.798   2.753  0.6291 -1.5471  0.9910
31167SOL    HW298059   3.297   5.892   2.841  0.1601 -0.8727  0.7004
31168SOL     OW98060   2.347  11.641   0.233  0.0229 -0.3619 -0.1680
31168SOL    HW198061   2.411  11.572   0.215  0.1075 -0.3857  0.2174
31168SOL    HW298062   2.296  11.608   0.306  0.1694  0.0558  0.1226
31169SOL     OW98063   9.771   2.600   9.690 -0.1544 -0.2654  0.4024
31169SOL    HW198064   9.840   2.666   9.695  0.3017 -0.7940  1.3601
31169SOL    HW298065   9.813   2.525   9.649 -0.8381  0.2108 -1.2656
31170SOL     OW98066   8.697   9.356   3.280  0.1376 -0.0005 -0.2781
31170SOL    HW198067   8.740   9.410   3.214  0.5123 -0.0055 -0.0336
31170SOL    HW298068   8.733   9.268   3.265  1.9979  0.4090  1.4418
31171SOL     OW98069   1.440   5.479   6.551 -0.2211  0.0628  0.8487
31171SOL    HW198070   1.488   5.552   6.589 -0.1810  0.3885  0.1988
31171SOL    HW298071   1.351   5.488   6.586  0.1884 -0.5674  2.0845
31172SOL     OW98072   8.553   6.239   8.873  0.3901 -0.5868 -0.6891
31172SOL    HW198073   8.542   6.156   8.828 -2.1185 -0.3788 -0.5604
31172SOL    HW298074   8.534   6.220   8.965  1.6685 -0.2146 -0.3165
31173SOL     OW98075   0.092   5.134   4.429  0.1265  0.3357  0.0881
31173SOL    HW198076   0.140   5.154   4.510  0.3976  0.7102 -0.1598
31173SOL    HW298077   0.078   5.219   4.388 -0.5279  0.2070  0.0242
31174SOL     OW98078   4.559   6.242   7.458 -0.6784 -0.0605 -0.3894
31174SOL    HW198079   4.563   6.207   7.369 -0.0554 -0.9277 -0.0383
31174SOL    HW298080   4.641   6.214   7.499 -0.1927  1.7494 -0.0421
31175SOL     OW98081   2.324   3.412   0.137  0.2300  0.1128  0.1825
31175SOL    HW198082   2.245   3.358   0.132  0.8027 -0.7599  0.2531
31175SOL    HW298083   2.396   3.349   0.146  1.0387  0.8422 -0.8762
31176SOL     OW98084  10.550   9.070   3.469  0.1431  0.5211 -0.0108
31176SOL    HW198085  10.582   9.027   3.548  0.1901  2.2953  0.9857
31176SOL    HW298086  10.627   9.114   3.433  0.2333 -0.6813 -1.3467
31177SOL     OW98087   3.805   8.180   9.674 -0.0451  0.0144  0.1154
31177SOL    HW198088   3.801   8.272   9.699  3.0777 -0.3194  2.4873
31177SOL    HW298089   3.857   8.139   9.743 -0.1950 -3.3020 -1.5538
31178SOL     OW98090  10.449   8.397  10.986 -0.1547 -0.2521 -0.4243
31178SOL    HW198091  10.473   8.490  10.976 -0.3776 -0.0508  0.6858
31178SOL    HW298092  10.354   8.396  10.984 -0.1425 -0.5042 -0.7965
31179SOL     OW98093   9.732   2.319   7.533  0.7770 -0.0507  0.4018
31179SOL    HW198094   9.769   2.244   7.579  2.0265 -0.2786 -0.8803
31179SOL    HW298095   9.776   2.395   7.572  0.5464 -0.0867  0.7411
31180SOL     OW98096   7.056   2.064   4.940 -0.1335 -0.1154  0.2061
31180SOL    HW198097   7.108   2.110   5.006 -1.3971  0.7017  0.6782
31180SOL    HW298098   6.992   2.014   4.990 -1.9000  1.4596 -0.3606
31181SOL     OW98099   9.469   7.870   2.006 -0.1344 -0.0407 -0.2375
31181SOL    HW198100   9.532   7.845   2.074 -0.7462 -0.2648  0.2611
31181SOL    HW298101   9.426   7.949   2.041  0.0795  0.2866 -0.7068
31182SOL     OW98102   2.174   5.391   2.919 -0.1784  0.1027  0.4933
31182SOL    HW198103   2.225   5.415   2.997 -0.0302  0.2444  0.3534
31182SOL    HW298104   2.200   5.455   2.853 -1.5360  1.0119  0.8131
31183SOL     OW98105   3.662  11.969   8.352  0.2980  0.2341  0.3003
31183SOL    HW198106   3.637  11.877   8.346  0.4556  0.3002 -2.5377
31183SOL    HW298107   3.597  12.008   8.412 -0.4694 -1.4604  0.6207
31184SOL     OW98108   2.453  11.878   1.684  0.5293 -0.0374  0.1751
31184SOL    HW198109   2.397  11.941   1.639 -0.3948 -0.5094  0.6349
31184SOL    HW298110   2.540  11.893   1.649 -0.2160 -0.6604 -2.0972
31185SOL     OW98111   3.281   8.973   9.409 -0.6339  0.0320 -0.2164
31185SOL    HW198112   3.191   8.983   9.440  0.1096  0.5745  1.9807
31185SOL    HW298113   3.319   8.910   9.469  0.6376  0.3198 -0.7016
31186SOL     OW98114   6.003   9.331   0.082 -0.0325  0.5892  0.0122
31186SOL    HW198115   6.013   9.370  -0.005 -0.8623 -0.3553 -0.5294
31186SOL    HW298116   6.066   9.378   0.137 -0.2237  1.9074 -0.8586
31187SOL     OW98117   0.963   6.934   4.236 -0.1406  0.2528  0.1979
31187SOL    HW198118   0.893   6.996   4.213 -0.4272 -0.1162  0.0601
31187SOL    HW298119   1.029   6.988   4.278  0.2863  0.9100 -1.2377
31188SOL     OW98120   2.206   2.700   8.643  0.1974  0.3263  0.2272
31188SOL    HW198121   2.292   2.662   8.661  0.1025 -0.3681 -0.6853
31188SOL    HW298122   2.176   2.733   8.727 -0.7084 -3.6699  1.7327
31189SOL     OW98123   5.086   0.574   0.479 -0.0752 -0.1218 -0.1387
31189SOL    HW198124   5.037   0.511   0.533 -1.0353 -0.0776 -0.9264
31189SOL    HW298125   5.086   0.536   0.391 -1.8929  1.5768 -0.9488
31190SOL     OW98126   3.134   4.829   3.678 -0.1540 -0.4505  0.6451
31190SOL    HW198127   3.225   4.804   3.663 -0.1816 -1.4801  1.9341
31190SOL    HW298128   3.134   4.865   3.767 -0.6245  1.7209 -0.1808
31191SOL     OW98129  10.273   4.372   9.394  0.4778  0.0184 -0.0556
31191SOL    HW198130  10.228   4.405   9.316 -0.8416  1.5011  1.2469
31191SOL    HW298131  10.273   4.277   9.383  0.3420  0.1845 -1.8462
31192SOL     OW98132   6.277   0.065   0.376  0.2889 -0.0481 -0.5110
31192SOL    HW198133   6.257   0.004   0.446 -1.3810  2.0520  0.9946
31192SOL    HW298134   6.237   0.027   0.298  1.4213 -1.9971 -0.1955
31193SOL     OW98135   2.227   2.317   3.733  0.3421  0.0882 -0.6236
31193SOL    HW198136   2.164   2.357   3.673  0.7403 -1.8021 -2.4368
31193SOL    HW298137   2.308   2.364   3.717 -0.2650  1.7166  0.8291
31194SOL     OW98138  10.935   0.031   4.992  0.0231  0.2902  0.3281
31194SOL    HW198139  10.927  -0.060   5.020  1.3108 -0.1890 -0.7391
31194SOL    HW298140  11.018   0.061   5.031  0.6834  0.3158 -1.0423
31195SOL     OW98141   2.501   8.430   9.780  0.0237 -0.3078 -0.1519
31195SOL    HW198142   2.465   8.515   9.806 -1.2420 -0.7143 -0.5186
31195SOL    HW298143   2.555   8.403   9.855 -0.0219  0.5441  0.2032
31196SOL     OW98144   8.979   2.928   9.214  0.0439 -0.5966 -0.0940
31196SOL    HW198145   8.965   2.912   9.121 -0.1344  0.1268 -0.1943
31196SOL    HW298146   9.062   2.884   9.234  0.7802  0.3970 -0.8992
31197SOL     OW98147   3.163   6.695   4.712 -0.5305 -0.3753 -0.3867
31197SOL    HW198148   3.203   6.764   4.763  0.3051  0.3541 -1.9812
31197SOL    HW298149   3.104   6.651   4.774 -2.4035  2.7781  0.2889
31198SOL     OW98150   1.662   9.042  11.279 -0.2479 -0.1465  0.0566
31198SOL    HW198151   1.690   9.107  11.215  1.0887  0.1583  0.9145
31198SOL    HW298152   1.575   9.071  11.305  0.6460  1.8390  1.0539
31199SOL     OW98153   2.535   9.585  10.774 -0.3309 -0.5849  0.6711
31199SOL    HW198154   2.621   9.547  10.756  0.4453  0.9067  1.0965
31199SOL    HW298155   2.514   9.635  10.696  0.5315  1.3865  1.6313
31200SOL     OW98156  10.542   2.807   7.344 -0.0015 -0.1620  0.8560
31200SOL    HW198157  10.576   2.777   7.259 -0.5383  1.0237  0.1931
31200SOL    HW298158  10.474   2.744   7.367 -0.0796 -0.3089  0.2367
31201SOL     OW98159   1.448   8.926   8.413 -0.1066  0.1131  0.0800
31201SOL    HW198160   1.382   8.940   8.345  1.4290  1.7869 -1.1590
31201SOL    HW298161   1.444   8.832   8.431 -1.2744 -0.1996 -1.5707
31202SOL     OW98162   9.984   0.383  10.604 -0.1912  0.2167  0.0261
31202SOL    HW198163  10.057   0.341  10.648 -0.4192  0.8051  1.0016
31202SOL    HW298164  10.025   0.447  10.545  0.2216 -2.1141 -2.4250
31203SOL     OW98165   9.159   4.588   8.639 -0.0503 -0.2009 -0.0526
31203SOL    HW198166   9.064   4.599   8.643  0.0380  0.6186 -0.1138
31203SOL    HW298167   9.190   4.662   8.587  0.6199 -0.4823 -0.0649
31204SOL     OW98168  11.420   7.907   6.383 -0.7637 -0.1029 -0.8868
31204SOL    HW198169  11.449   7.824   6.345  1.6551  0.8911 -1.4315
31204SOL    HW298170  11.372   7.883   6.462  2.3689 -2.0338  0.6192
31205SOL     OW98171   9.160   9.826   1.655  0.3125 -0.4348 -0.3560
31205SOL    HW198172   9.077   9.827   1.703  0.0264 -0.5894 -0.8381
31205SOL    HW298173   9.172   9.735   1.629  1.7469 -0.8750  1.5803
31206SOL     OW98174   4.694   0.838   3.498 -0.0333  0.1826 -0.0482
31206SOL    HW198175   4.691   0.915   3.555  1.0971  0.6767 -0.6246
31206SOL    HW298176   4.713   0.873   3.411  1.3041 -0.7948 -0.1766
31207SOL     OW98177   1.597   1.589   0.959  0.6697  0.2056 -0.4934
31207SOL    HW198178   1.663   1.628   0.902  1.2088  0.4190  0.2622
31207SOL    HW298179   1.645   1.524   1.010  0.2437  0.1912 -0.1081
31208SOL     OW98180   4.561   5.946   3.657  0.5158 -0.5900 -0.1521
31208SOL    HW198181   4.496   6.017   3.661 -0.2773 -1.2924 -0.3393
31208SOL    HW298182   4.522   5.875   3.708  0.7499 -1.3145 -0.9536
31209SOL     OW98183  10.370   2.830   7.090  0.1196 -0.2702 -0.5297
31209SOL    HW198184  10.376   2.859   6.999 -3.9014  0.0310 -0.8525
31209SOL    HW298185  10.388   2.908   7.142 -0.6740  0.3517 -1.1774
31210SOL     OW98186   4.423   4.462   4.209  0.7845  0.3135  0.4386
31210SOL    HW198187   4.466   4.548   4.219 -0.9952  1.6922 -2.3692
31210SOL    HW298188   4.484   4.413   4.153  1.2626  0.1570  1.0832
31211SOL     OW98189   1.877   2.806   2.772  0.0698 -0.1789 -0.1245
31211SOL    HW198190   1.869   2.861   2.849  1.6358 -0.7988  0.5237
31211SOL    HW298191   1.838   2.857   2.701 -1.0207  0.5728  0.9869
31212SOL     OW98192   6.226  11.236   3.431  0.0422 -0.0972  0.4906
31212SOL    HW198193   6.190  11.165   3.378  0.2080 -0.8091  1.3004
31212SOL    HW298194   6.194  11.316   3.390 -1.0246 -0.6697  0.1716
31213SOL     OW98195  11.751   5.416   2.310 -0.1276 -0.3107  0.2484
31213SOL    HW198196  11.803   5.494   2.327 -0.0717 -0.5742  1.4128
31213SOL    HW298197  11.735   5.379   2.397 -1.6528 -0.6279 -0.1369
31214SOL     OW98198  10.337   1.037   2.366  0.0279 -0.2579  0.3431
31214SOL    HW198199  10.280   1.108   2.395 -1.8693 -2.7189  3.3176
31214SOL    HW298200  10.308   1.018   2.276 -3.0594 -0.4943  1.2561
31215SOL     OW98201   7.288   2.631   9.512  0.2697 -0.0636 -0.2442
31215SOL    HW198202   7.247   2.684   9.444  2.1100  1.9439  0.0791
31215SOL    HW298203   7.248   2.545   9.504 -0.9539  0.6523 -2.5701
31216SOL     OW98204  12.110   8.876   8.128 -0.2553 -0.4535  0.3775
31216SOL    HW198205  12.166   8.876   8.206 -1.4573  2.8612  1.3971
31216SOL    HW298206  12.021   8.879   8.162 -0.9524 -1.8537 -1.1950
31217SOL     OW98207   2.600   6.851   3.695  0.0971  0.0404  0.2604
31217SOL    HW198208   2.552   6.922   3.652 -4.0023 -0.7870  2.9601
31217SOL    HW298209   2.644   6.892   3.769 -0.6003  0.0778  0.6552
31218SOL     OW98210   7.712  10.745   8.310  0.3622 -0.1800 -0.0221
31218SOL    HW198211   7.620  10.732   8.287  0.4765  0.9248 -1.2843
31218SOL    HW298212   7.711  10.772   8.402 -0.8018  1.9152 -0.5930
31219SOL     OW98213  11.454   3.444  10.479 -0.1667 -0.4352 -0.1628
31219SOL    HW198214  11.491   3.357  10.492  0.2578 -0.0083  1.9641
31219SOL    HW298215  11.359   3.431  10.487 -0.0249 -0.5136  1.8385
31220SOL     OW98216   6.481   3.775  12.088 -0.1755  0.3576  0.1813
31220SOL    HW198217   6.434   3.726  12.155 -1.0444 -0.2666 -0.8578
31220SOL    HW298218   6.553   3.717  12.061 -2.0117 -1.0611 -2.0423
31221SOL     OW98219   4.772   2.034   2.025 -0.1025  0.4982  0.2626
31221SOL    HW198220   4.793   1.983   2.103 -2.7432 -0.4616  0.4498
31221SOL    HW298221   4.793   1.976   1.952 -2.3272 -0.6422  0.4561
31222SOL     OW98222   0.125   9.852   7.305  0.5181  0.1310 -0.7025
31222SOL    HW198223   0.196   9.876   7.245  1.3636  0.8542  0.5488
31222SOL    HW298224   0.068   9.928   7.306  0.4623  0.0886 -0.6303
31223SOL     OW98225  10.732  11.725  11.056 -0.5455 -0.0736 -0.1063
31223SOL    HW198226  10.796  11.763  10.995 -0.4739 -1.1113 -0.7055
31223SOL    HW298227  10.650  11.770  11.034 -0.0001  1.4778  0.8663
31224SOL     OW98228   0.705   6.411   7.983 -0.5903  0.4854 -0.3906
31224SOL    HW198229   0.610   6.420   7.993 -0.5711  0.1459  0.1348
31224SOL    HW298230   0.739   6.498   8.003 -0.6489  0.1312  1.3840
31225SOL     OW98231  11.277   9.854   8.604  0.8271 -0.0607  0.0312
31225SOL    HW198232  11.290   9.933   8.551 -0.1669  0.4406  0.5095
31225SOL    HW298233  11.317   9.784   8.553  0.5549  0.5360 -1.0320
31226SOL     OW98234  10.372   7.726   4.611  0.0936 -0.9317  0.8661
31226SOL    HW198235  10.369   7.659   4.679  0.3601 -0.9182  0.8953
31226SOL    HW298236  10.304   7.701   4.549 -0.8293 -0.3970  1.6351
31227SOL     OW98237   9.486   7.402   0.408 -0.0857 -0.0182  0.1267
31227SOL    HW198238   9.392   7.404   0.390 -0.2708 -0.0711  1.0547
31227SOL    HW298239   9.525   7.369   0.327 -0.8646 -0.0374 -0.2509
31228SOL     OW98240   6.010   3.550   8.391 -0.2251  0.2301  0.5508
31228SOL    HW198241   5.946   3.600   8.441 -2.7729 -1.6074 -0.6443
31228SOL    HW298242   6.051   3.615   8.333 -0.9776  1.4566  1.3418
31229SOL     OW98243   7.041  10.164   0.936 -0.0215 -0.4112  0.4790
31229SOL    HW198244   7.046  10.209   0.851  0.2291 -0.8153  0.2768
31229SOL    HW298245   7.103  10.210   0.992 -1.5650  1.0896  1.0275
31230SOL     OW98246   9.695   1.263   9.809 -0.1330 -0.3253  0.1536
31230SOL    HW198247   9.737   1.340   9.847 -1.3897  0.8243 -0.6889
31230SOL    HW298248   9.602   1.284   9.807 -0.3726 -1.3151 -1.2995
31231SOL     OW98249   1.474   5.799   3.288  0.4684  0.5892 -0.8723
31231SOL    HW198250   1.420   5.774   3.363 -0.0394 -0.6549 -1.6209
31231SOL    HW298251   1.558   5.824   3.326 -0.0827  0.9143  0.1792
31232SOL     OW98252   5.400   8.038   4.666 -0.7298 -0.4373  0.0238
31232SOL    HW198253   5.326   7.993   4.706 -1.4799  1.1965  0.5612
31232SOL    HW298254   5.463   7.969   4.647 -2.7199 -2.0209 -1.2684
31233SOL     OW98255   5.553   7.916   4.009  0.4268 -0.0782 -0.5954
31233SOL    HW198256   5.644   7.931   4.033  0.2996 -1.3142  0.8129
31233SOL    HW298257   5.510   8.001   4.019  0.8154 -0.0925  1.7913
31234SOL     OW98258   6.931   5.105   8.370 -0.0979  0.3424  0.1184
31234SOL    HW198259   6.889   5.106   8.284  1.3068 -0.4899 -0.6090
31234SOL    HW298260   6.858   5.114   8.432 -1.0611  1.8359 -1.1574
31235SOL     OW98261   4.802   2.340   9.387  0.8709  0.4749  0.3186
31235SOL    HW198262   4.821   2.368   9.476 -1.9178 -1.5277  1.6894
31235SOL    HW298263   4.846   2.256   9.377 -0.3820 -0.2438  0.5773
31236SOL     OW98264   2.281  10.725   0.622 -0.4869  0.2377 -0.0465
31236SOL    HW198265   2.322  10.677   0.694 -0.3441  0.4626  0.0220
31236SOL    HW298266   2.198  10.756   0.657 -1.4925 -1.6083 -0.6741
31237SOL     OW98267   5.817  10.458   4.977  0.0440  0.0582 -0.8283
31237SOL    HW198268   5.855  10.531   4.928 -0.0905  1.0484  0.4751
31237SOL    HW298269   5.725  10.482   4.988  0.3530  0.5804  1.0773
31238SOL     OW98270   1.313   0.750   3.773 -0.2485 -0.2585  0.3068
31238SOL    HW198271   1.396   0.718   3.735 -0.2433  0.3337 -0.1927
31238SOL    HW298272   1.248   0.733   3.705 -0.6905 -1.3992  0.9800
31239SOL     OW98273   4.353   4.559   5.331 -0.0099  0.3744  0.8911
31239SOL    HW198274   4.433   4.505   5.338  0.1608  0.2839 -1.1634
31239SOL    HW298275   4.282   4.496   5.332  0.1283  0.1798 -0.3233
31240SOL     OW98276   0.316  11.468  10.348  0.0326 -0.0819 -0.0976
31240SOL    HW198277   0.304  11.413  10.426  0.7021  0.6000  0.5073
31240SOL    HW298278   0.377  11.536  10.377  0.1360  0.2907 -1.1736
31241SOL     OW98279   5.810  10.853   2.446 -0.0551  0.3428 -0.5104
31241SOL    HW198280   5.756  10.806   2.509 -0.6432  1.5980 -0.0427
31241SOL    HW298281   5.877  10.897   2.499  0.7269 -0.2667 -0.9747
31242SOL     OW98282  10.352   4.276   0.747  0.6606  0.1713  0.8593
31242SOL    HW198283  10.278   4.298   0.691  0.8448 -1.9917 -0.3491
31242SOL    HW298284  10.323   4.200   0.798  2.1152 -0.9659  0.0826
31243SOL     OW98285  10.142   5.698   4.381 -0.2063 -0.3496 -0.0736
31243SOL    HW198286  10.133   5.776   4.436 -2.0920  0.4491 -1.3779
31243SOL    HW298287  10.067   5.703   4.322 -1.0156 -3.7579  0.4835
31244SOL     OW98288   9.990   8.988   6.129 -0.0203  0.3788 -0.0298
31244SOL    HW198289   9.898   9.012   6.134  0.2445  1.1658  2.0377
31244SOL    HW298290  10.031   9.057   6.077 -0.3954  0.7526  0.1654
31245SOL     OW98291   2.483   4.993   5.298  0.1307  0.1679  0.0287
31245SOL    HW198292   2.540   4.922   5.268  0.4250 -0.2885  1.5686
31245SOL    HW298293   2.397   4.972   5.262  0.2936 -0.7997  0.1871
31246SOL     OW98294   2.070   7.916   8.629  0.2486 -0.1910 -0.2912
31246SOL    HW198295   2.156   7.930   8.669 -0.6257 -0.7249  1.9020
31246SOL    HW298296   2.084   7.847   8.565  1.8161  1.0803 -1.3967
31247SOL     OW98297   6.786   9.112   0.415 -0.3024 -0.3392 -0.0696
31247SOL    HW198298   6.795   9.184   0.477  1.2874 -1.0077  0.5324
31247SOL    HW298299   6.692   9.107   0.397 -0.4535  1.8274 -0.1030
31248SOL     OW98300  10.800   5.471   6.589  0.1725  0.1605  0.5928
31248SOL    HW198301  10.825   5.427   6.508  2.1070 -0.6072  1.5371
31248SOL    HW298302  10.821   5.408   6.658  0.1677  1.4215  1.7910
31249SOL     OW98303   1.336   2.755   1.817  0.0786 -0.6285 -0.0748
31249SOL    HW198304   1.349   2.795   1.903 -1.4393  0.2840 -0.2269
31249SOL    HW298305   1.300   2.668   1.836 -1.1992 -0.0573  0.2414
31250SOL     OW98306   8.286  10.913   1.871  0.0668  0.2514  0.3457
31250SOL    HW198307   8.231  10.868   1.935 -1.3261 -0.6167 -1.3641
31250SOL    HW298308   8.289  11.004   1.901  0.9199 -0.4477  2.5498
31251SOL     OW98309   1.478   8.020   0.031 -0.0543  0.2746  0.4689
31251SOL    HW198310   1.409   8.075  -0.007 -0.4694 -0.7615 -0.3086
31251SOL    HW298311   1.431   7.947   0.071  0.5664 -0.2229  0.2935
31252SOL     OW98312   4.467   8.973   7.810 -0.3485  0.2807 -0.1232
31252SOL    HW198313   4.381   8.987   7.848 -1.5812 -0.0757 -2.5470
31252SOL    HW298314   4.496   8.888   7.845 -1.4333 -0.0596 -0.0249
31253SOL     OW98315   6.396  10.627   8.291  0.2505 -0.0304 -0.2445
31253SOL    HW198316   6.417  10.583   8.373 -0.3510  0.4741  0.1854
31253SOL    HW298317   6.382  10.719   8.315 -1.2457 -0.1141 -0.6766
31254SOL     OW98318   0.045   6.306   4.599  0.3459 -0.0694  0.4625
31254SOL    HW198319   0.044   6.376   4.533  0.4857  1.8895  2.4076
31254SOL    HW298320  -0.047   6.282   4.610  0.3596 -0.8115 -0.7578
31255SOL     OW98321  10.798   0.565   3.986  0.7532  0.0682  0.7337
31255SOL    HW198322  10.716   0.517   3.973 -0.1426  1.3220  1.5435
31255SOL    HW298323  10.820   0.549   4.077 -0.1930  2.0679  1.3703
31256SOL     OW98324  10.692   6.447   6.479  0.1690 -0.7752 -0.1059
31256SOL    HW198325  10.606   6.485   6.497  1.1699  1.7687 -0.2838
31256SOL    HW298326  10.755   6.515   6.507  2.1778 -2.9157  0.9053
31257SOL     OW98327   0.090   4.808   0.198  0.0008 -0.2017 -0.7739
31257SOL    HW198328   0.039   4.879   0.159 -0.2338 -0.2493 -0.5539
31257SOL    HW298329   0.180   4.824   0.169 -0.0808  0.0823 -0.8705
31258SOL     OW98330   4.382   0.855   4.398 -0.2326 -0.6392 -0.9142
31258SOL    HW198331   4.384   0.854   4.494  0.5724 -1.3505 -0.9219
31258SOL    HW298332   4.380   0.948   4.375  0.9809 -0.4224 -0.2206
31259SOL     OW98333   4.545  11.432   8.348  0.0706  0.3072  0.7258
31259SOL    HW198334   4.507  11.345   8.356  0.9740 -0.2501 -0.7665
31259SOL    HW298335   4.514  11.464   8.263 -0.7139  1.6987  1.4968
31260SOL     OW98336   6.845   5.089   3.986  0.1748 -0.0192 -0.2794
31260SOL    HW198337   6.935   5.069   3.959  0.6018  0.5201  0.7017
31260SOL    HW298338   6.836   5.183   3.973 -0.3769 -0.1314 -0.7233
31261SOL     OW98339   4.859   4.718   7.090  0.4035  0.0238 -0.2600
31261SOL    HW198340   4.774   4.736   7.051 -0.5510 -2.7454  0.2966
31261SOL    HW298341   4.913   4.687   7.017  0.4758  0.3751 -0.3572
31262SOL     OW98342   6.840   9.805   5.853  0.4011 -0.6082  0.0270
31262SOL    HW198343   6.795   9.888   5.869 -1.0075 -1.6070  1.5949
31262SOL    HW298344   6.931   9.823   5.877  0.0593  0.4254  0.6370
31263SOL     OW98345  10.928   3.121  10.866 -0.3158  0.2653 -0.0939
31263SOL    HW198346  10.889   3.050  10.917 -0.3279  0.3441  0.0081
31263SOL    HW298347  10.898   3.201  10.910 -0.4559  0.3374 -0.3181
31264SOL     OW98348   3.130   3.770   9.348 -0.4342  0.0055 -0.5399
31264SOL    HW198349   3.098   3.682   9.325 -1.2741  0.6247 -1.9056
31264SOL    HW298350   3.081   3.829   9.290  0.2322  1.3703  0.2334
31265SOL     OW98351   6.230   8.615   5.250 -0.1277  0.6521 -0.0157
31265SOL    HW198352   6.244   8.533   5.297  0.1561 -0.1540 -1.4227
31265SOL    HW298353   6.137   8.634   5.262  0.0050  0.6255  1.0862
31266SOL     OW98354  11.199  11.285  11.029  0.3477  0.3986  0.1954
31266SOL    HW198355  11.121  11.322  11.070 -0.1984 -0.0074 -0.4641
31266SOL    HW298356  11.190  11.191  11.040  1.2323  0.3829  0.9649
31267SOL     OW98357   2.588   2.196   4.523  0.1702 -0.0949 -0.0829
31267SOL    HW198358   2.550   2.282   4.542  0.0267 -0.3473  0.8147
31267SOL    HW298359   2.628   2.169   4.606  1.3932 -0.3106 -0.7132
31268SOL     OW98360   8.554   9.320   9.166  0.1165  0.2826 -0.2138
31268SOL    HW198361   8.467   9.296   9.134 -0.4628  1.7656  0.1827
31268SOL    HW298362   8.564   9.268   9.247 -0.0668 -0.4646 -0.6591
31269SOL     OW98363   1.593  10.113   2.485  0.1123  0.3296 -0.8834
31269SOL    HW198364   1.586  10.187   2.424  0.0201  0.9973 -0.0796
31269SOL    HW298365   1.674  10.130   2.533  0.7961 -0.8009 -1.5893
31270SOL     OW98366   8.596   0.262   4.933  0.1845  0.2504  0.1500
31270SOL    HW198367   8.651   0.316   4.989 -0.8749  0.6306  0.8671
31270SOL    HW298368   8.531   0.323   4.897  0.8590  0.0209 -1.5465
31271SOL     OW98369   7.841   6.628   4.941  0.3759  0.3504  0.7326
31271SOL    HW198370   7.935   6.613   4.940  0.3533  0.0025  1.9591
31271SOL    HW298371   7.826   6.692   4.872  1.4323 -0.0029  0.1516
31272SOL     OW98372   7.397   3.901   1.139  0.5409  0.1628 -0.5927
31272SOL    HW198373   7.448   3.980   1.154  0.9766  0.0137 -1.2703
31272SOL    HW298374   7.384   3.864   1.226  1.0532  0.5327 -0.3546
31273SOL     OW98375   3.502   1.328   2.365 -0.3856  0.7167 -0.3036
31273SOL    HW198376   3.504   1.328   2.270 -0.6174  1.0001 -0.3101
31273SOL    HW298377   3.594   1.338   2.391 -0.2235 -0.2187 -0.4883
31274SOL     OW98378   4.028   7.284   8.455  0.2440  0.2764  0.3958
31274SOL    HW198379   4.063   7.337   8.527  0.0012 -1.2156  1.6799
31274SOL    HW298380   4.015   7.197   8.494 -1.9757 -0.0254 -0.8434
31275SOL     OW98381  11.156   2.846  10.148  0.3593  0.8986 -0.8237
31275SOL    HW198382  11.093   2.868  10.079  0.0018  2.2289 -0.0949
31275SOL    HW298383  11.223   2.914  10.142  1.5704 -0.2880 -1.3384
31276SOL     OW98384   5.066   8.280   1.564  0.4638 -0.1447  0.1487
31276SOL    HW198385   5.132   8.320   1.507  0.3194 -0.9179 -0.5873
31276SOL    HW298386   5.003   8.241   1.504 -0.5175  0.3203  0.8484
31277SOL     OW98387   6.555   1.951   8.917 -0.6177 -0.1480  0.1611
31277SOL    HW198388   6.533   1.972   8.826 -2.4959  0.2269  0.6709
31277SOL    HW298389   6.621   2.017   8.941  0.6429 -0.8478 -1.1853
31278SOL     OW98390   9.364   5.943   8.163 -0.0608 -0.2387 -0.4863
31278SOL    HW198391   9.333   5.981   8.081 -0.6965  0.0039 -0.1453
31278SOL    HW298392   9.381   6.018   8.220 -0.0858 -0.4169 -0.2379
31279SOL     OW98393   7.116   1.629   5.629 -0.1196  0.0806  0.2251
31279SOL    HW198394   7.105   1.642   5.535 -0.7286 -1.7699  0.0069
31279SOL    HW298395   7.209   1.647   5.645  0.3313 -0.9918 -1.0000
31280SOL     OW98396  11.580   1.744   0.686  0.1860  0.1316 -0.4860
31280SOL    HW198397  11.576   1.649   0.698  1.6177  0.1613  0.5953
31280SOL    HW298398  11.534   1.780   0.762 -0.6087  0.3114 -1.0454
31281SOL     OW98399   4.868   0.885   7.779  0.4154 -0.6702  0.0191
31281SOL    HW198400   4.778   0.882   7.748  0.3058  1.7518 -0.0521
31281SOL    HW298401   4.920   0.908   7.702  0.4706  2.5045  0.8409
31282SOL     OW98402   8.988   1.364   9.271  0.3378  0.0842 -0.3615
31282SOL    HW198403   9.041   1.310   9.330  1.1988  1.0411 -0.2316
31282SOL    HW298404   8.948   1.301   9.211 -0.8455 -0.9671  1.4185
31283SOL     OW98405   4.142   2.584   0.652 -0.3297  0.0152  0.4641
31283SOL    HW198406   4.219   2.639   0.660 -0.3826  0.0423  0.7898
31283SOL    HW298407   4.165   2.502   0.696  0.1733 -0.6847 -1.0209
31284SOL     OW98408  11.468  10.002   4.453  0.0753  0.1054  0.0676
31284SOL    HW198409  11.511   9.943   4.514  0.4416  0.1172 -0.1705
31284SOL    HW298410  11.424  10.067   4.508  1.3985  0.8203  0.3131
31285SOL     OW98411   5.277   5.910   5.818  0.5763  0.0182  0.3710
31285SOL    HW198412   5.209   5.913   5.750  0.1418 -0.2723  0.7939
31285SOL    HW298413   5.231   5.928   5.899  1.0868  0.2756  0.6077
31286SOL     OW98414   9.112   8.037   5.404  0.0791 -0.7240  0.2644
31286SOL    HW198415   9.194   8.076   5.436 -0.7682  1.9783 -0.6080
31286SOL    HW298416   9.051   8.049   5.476  0.0074 -1.1952  0.2828
31287SOL     OW98417   4.122   2.106  10.317 -0.0512 -0.2869  0.3401
31287SOL    HW198418   4.177   2.031  10.295  0.1949 -0.8548  2.6383
31287SOL    HW298419   4.058   2.072  10.379  0.2385  1.4239  1.6717
31288SOL     OW98420   6.497  10.369   0.003 -0.3187 -0.0118  0.1645
31288SOL    HW198421   6.488  10.326  -0.081  1.3222  0.0777 -0.0902
31288SOL    HW298422   6.479  10.301   0.068 -0.7473 -0.2854 -0.2381
31289SOL     OW98423   3.756   4.046   4.469  0.4726  0.4292 -0.2892
31289SOL    HW198424   3.712   4.042   4.554  1.1229 -0.7493  0.0189
31289SOL    HW298425   3.834   4.100   4.486  0.2831  0.7103 -0.2992
31290SOL     OW98426   7.172   6.625   7.187 -0.7559 -0.3958 -0.0605
31290SOL    HW198427   7.132   6.697   7.139  0.6629 -0.3161 -1.1853
31290SOL    HW298428   7.129   6.546   7.153  0.5943 -0.3899 -1.9397
31291SOL     OW98429   4.388   3.292   5.866 -0.1851 -0.3749  0.0944
31291SOL    HW198430   4.481   3.313   5.878 -0.8563  2.7124  0.7709
31291SOL    HW298431   4.362   3.249   5.947  0.2848  0.2399  0.5724
31292SOL     OW98432   1.421   7.590   6.010 -0.0606 -0.6286  0.7474
31292SOL    HW198433   1.514   7.582   6.034  0.0264  1.9473  1.6026
31292SOL    HW298434   1.380   7.513   6.049  1.3663 -0.5407  2.5946
31293SOL     OW98435   2.742   6.997   3.309 -0.6150  0.6497  0.2901
31293SOL    HW198436   2.678   6.957   3.367  2.5421 -1.8519  2.4396
31293SOL    HW298437   2.807   7.034   3.369  2.4647 -1.4450 -1.4776
31294SOL     OW98438   0.153   6.747  12.047 -0.3716  0.5941 -0.0911
31294SOL    HW198439   0.105   6.666  12.066 -0.5200  0.6075 -0.4073
31294SOL    HW298440   0.233   6.739  12.099 -0.0290 -0.1039 -0.7037
31295SOL     OW98441   1.345   0.900   2.316  0.1543 -0.1106  0.0641
31295SOL    HW198442   1.375   0.875   2.229 -0.4340  0.1827 -0.2318
31295SOL    HW298443   1.249   0.902   2.309  0.1091  0.1852  0.6393
31296SOL     OW98444  10.442   5.688   5.169 -0.5436 -0.3398  0.5322
31296SOL    HW198445  10.400   5.608   5.200 -0.7029 -0.0380  1.1126
31296SOL    HW298446  10.370   5.745   5.143 -0.4207 -0.4894 -0.1669
31297SOL     OW98447   2.157   2.845  10.355 -0.3466  0.3164 -0.5114
31297SOL    HW198448   2.162   2.935  10.324 -0.1081  0.5845  0.2777
31297SOL    HW298449   2.248   2.819  10.369 -0.4837  0.6296  1.1121
31298SOL     OW98450  11.358  10.039   1.096  0.1256 -0.4598 -0.1204
31298SOL    HW198451  11.336  10.019   1.187 -0.6644 -0.9597 -0.4116
31298SOL    HW298452  11.330  10.130   1.085 -1.2951 -0.8990 -0.3101
31299SOL     OW98453   9.905  10.428   8.638 -0.5099  0.2059 -0.1109
31299SOL    HW198454   9.951  10.349   8.666  0.8015  1.1462  0.5077
31299SOL    HW298455   9.840  10.444   8.706  2.5465  2.3908  2.6318
31300SOL     OW98456   0.611   9.647   7.346 -0.0841  0.3011 -0.0681
31300SOL    HW198457   0.687   9.683   7.300  0.1205 -0.4497 -0.3235
31300SOL    HW298458   0.648   9.597   7.419 -0.4083  1.6253  1.0621
31301SOL     OW98459   7.399  10.833   5.127  0.2798 -0.2958 -0.6283
31301SOL    HW198460   7.389  10.783   5.208  0.0679  1.9510  0.7913
31301SOL    HW298461   7.309  10.844   5.095  0.4505 -2.6579 -2.2165
31302SOL     OW98462   7.923   1.017   3.071  0.5814  0.2876  0.5059
31302SOL    HW198463   7.935   0.975   2.986 -1.4489 -1.9872  1.2253
31302SOL    HW298464   7.892   1.105   3.050 -1.0711 -0.6326 -1.1704
31303SOL     OW98465  10.304   8.329  10.276  0.3525 -0.0866 -0.2625
31303SOL    HW198466  10.265   8.306  10.192 -2.0623 -0.6961  0.9577
31303SOL    HW298467  10.354   8.252  10.301 -1.0476 -0.9159  0.0374
31304SOL     OW98468  11.926   5.655   9.519  0.0913  0.0246  0.2217
31304SOL    HW198469  11.885   5.572   9.495 -0.6895  0.6546 -0.7038
31304SOL    HW298470  12.008   5.655   9.470  0.3694 -0.4462  0.6753
31305SOL     OW98471   1.379   1.653  11.905 -0.2142  0.2841  0.3840
31305SOL    HW198472   1.329   1.722  11.861 -0.5089 -1.1092 -1.6389
31305SOL    HW298473   1.466   1.657  11.865  0.1571  0.2858  1.1713
31306SOL     OW98474   9.147   4.821   4.959  0.1012 -0.4346 -0.2713
31306SOL    HW198475   9.164   4.773   4.878 -1.3947 -0.0966 -0.8209
31306SOL    HW298476   9.106   4.902   4.931  2.3444  1.1142  0.6560
31307SOL     OW98477   3.024   2.979   6.239 -0.0822  0.3838 -0.4224
31307SOL    HW198478   2.945   2.990   6.291 -0.4811  1.0856 -1.1620
31307SOL    HW298479   2.993   2.947   6.154  0.3032  1.6682 -1.0728
31308SOL     OW98480   6.807   7.280   2.250 -0.5662  0.7173 -0.1315
31308SOL    HW198481   6.739   7.289   2.183 -0.5013  1.0716 -0.1498
31308SOL    HW298482   6.760   7.288   2.333 -0.5274  1.0844 -0.1460
31309SOL     OW98483  10.833   3.395   3.520 -0.1430 -0.1349  0.4530
31309SOL    HW198484  10.825   3.346   3.438 -1.5367 -0.8614  1.0134
31309SOL    HW298485  10.778   3.472   3.507  0.4083  0.2512  0.3562
31310SOL     OW98486   7.089   2.049  10.985 -0.2315  0.0725 -0.1068
31310SOL    HW198487   7.142   2.123  11.014 -1.1997  1.1316 -0.9308
31310SOL    HW298488   7.087   2.058  10.889  0.9344 -1.9505 -0.3856
31311SOL     OW98489   3.909  10.044  11.795 -0.1411 -0.1441 -0.5146
31311SOL    HW198490   3.865  10.125  11.772  1.0096  0.6600  0.0329
31311SOL    HW298491   3.870  10.018  11.879  0.1962  0.3919 -0.1894
31312SOL     OW98492   1.495   6.671   7.071 -0.0678  0.0999  0.8871
31312SOL    HW198493   1.422   6.616   7.099 -0.8586 -0.0520 -1.3137
31312SOL    HW298494   1.535   6.624   6.998 -0.0621  1.8865 -0.3338
31313SOL     OW98495   7.007   4.581   5.510  0.5514  0.7453  0.1596
31313SOL    HW198496   7.004   4.615   5.599 -0.2923  2.3259 -0.4363
31313SOL    HW298497   6.922   4.537   5.498  1.0736 -0.3862  0.4532
31314SOL     OW98498  10.413   4.814   9.957  0.0808 -0.1239  0.2026
31314SOL    HW198499  10.475   4.789  10.026  1.7020  1.1392 -0.7099
31314SOL    HW298500  10.360   4.883   9.995  1.1025  0.7092  0.1637
31315SOL     OW98501   7.501   2.787   9.794  0.0855  0.1022  0.4679
31315SOL    HW198502   7.534   2.751   9.713  1.9098 -0.0046  1.2169
31315SOL    HW298503   7.539   2.732   9.863  1.2544  2.1091  1.5342
31316SOL     OW98504   6.967  10.554  11.232  0.5546 -0.3685 -0.0716
31316SOL    HW198505   7.026  10.510  11.170  1.2598  0.9640 -0.3744
31316SOL    HW298506   6.985  10.647  11.220 -0.5250 -0.0113  0.9424
31317SOL     OW98507   9.157   2.377   5.313  0.0079  0.0150  0.1953
31317SOL    HW198508   9.182   2.466   5.340  0.1738  0.2172 -0.5970
31317SOL    HW298509   9.121   2.338   5.392  0.2673  0.6669  0.6500
31318SOL     OW98510   4.040   3.753  11.584  0.4073 -0.3939 -0.5306
31318SOL    HW198511   4.049   3.800  11.501 -1.2638  1.0398  0.0219
31318SOL    HW298512   4.126   3.762  11.626  1.4384 -1.5834 -2.2697
31319SOL     OW98513   8.920   8.842  12.099 -0.0170 -0.2230  0.2053
31319SOL    HW198514   8.951   8.917  12.150  0.0049  0.7455 -1.1790
31319SOL    HW298515   8.825   8.852  12.096  0.0431  0.1434 -0.5645
31320SOL     OW98516   8.371   5.537   6.094  0.7163  0.0769  0.2794
31320SOL    HW198517   8.292   5.496   6.060 -1.1987  1.3003  2.9440
31320SOL    HW298518   8.370   5.626   6.059  1.4133 -0.1542 -0.3596
31321SOL     OW98519   9.216   3.472   1.856  0.4806  0.0111  0.5340
31321SOL    HW198520   9.220   3.496   1.949 -1.4336 -1.7858  1.1820
31321SOL    HW298521   9.123   3.451   1.841  0.9953 -1.1255 -1.4128
31322SOL     OW98522   5.478   2.012   9.442 -0.2456  0.2703 -0.1077
31322SOL    HW198523   5.468   1.922   9.412 -0.1452 -0.1610  1.1237
31322SOL    HW298524   5.521   2.005   9.527 -0.2683  1.4795  0.0204
31323SOL     OW98525   3.749   2.957   6.143 -0.1890  0.7353  0.7370
31323SOL    HW198526   3.679   2.957   6.208  0.4476 -0.4386  1.4509
31323SOL    HW298527   3.778   2.866   6.139  2.0152  1.3694  1.2539
31324SOL     OW98528  11.777   8.079   4.751 -0.1387  0.0159 -0.1570
31324SOL    HW198529  11.854   8.110   4.800  1.2017 -3.6457  0.3784
31324SOL    HW298530  11.733   8.019   4.812 -0.7162 -1.5598 -2.0335
31325SOL     OW98531   1.018   5.451   5.270 -0.2170  0.0790 -0.0113
31325SOL    HW198532   1.113   5.439   5.280 -0.2052 -1.1102 -1.2847
31325SOL    HW298533   0.980   5.376   5.316 -0.5430  0.5220  0.4422
31326SOL     OW98534   0.777   2.811   0.977 -0.8184  0.3705 -0.0124
31326SOL    HW198535   0.777   2.759   0.896  0.3221  1.4562 -0.7441
31326SOL    HW298536   0.861   2.857   0.976 -0.6989  0.2673  1.8998
31327SOL     OW98537   9.502   9.903   1.549 -0.5545  0.2756  0.4304
31327SOL    HW198538   9.475   9.834   1.488  0.2994 -0.2198  0.5863
31327SOL    HW298539   9.527   9.976   1.493 -0.6816  0.1646  0.2282
31328SOL     OW98540  11.855  11.945   5.948  0.1051  0.1170  0.2477
31328SOL    HW198541  11.788  12.013   5.948  0.1040  0.1416 -1.0773
31328SOL    HW298542  11.936  11.991   5.926  0.3622 -0.0993  0.7149
31329SOL     OW98543   0.815   9.493   0.841 -0.6123  0.5043 -0.1623
31329SOL    HW198544   0.834   9.543   0.921 -0.0219 -1.6384  1.1129
31329SOL    HW298545   0.895   9.445   0.823 -1.3973 -0.5888 -0.8713
31330SOL     OW98546   0.229   5.884   4.738  0.0689  0.3801 -0.1509
31330SOL    HW198547   0.204   5.795   4.765  0.6452  0.1639 -0.3181
31330SOL    HW298548   0.189   5.941   4.804  1.2257 -0.1160  1.0302
31331SOL     OW98549   4.312   9.764   4.701  0.2266  0.2169  0.4767
31331SOL    HW198550   4.327   9.706   4.627  1.9996  0.4388  0.6116
31331SOL    HW298551   4.235   9.816   4.677 -2.3153 -3.0322  0.9324
31332SOL     OW98552   8.507  11.864   5.462 -0.1924 -0.6544  0.5708
31332SOL    HW198553   8.462  11.834   5.541 -1.1738 -0.3095  0.1609
31332SOL    HW298554   8.538  11.952   5.485 -3.5246  0.9400 -0.4885
31333SOL     OW98555   6.688   1.650   3.837  0.6031 -0.2501  0.1946
31333SOL    HW198556   6.766   1.668   3.889  1.1993  0.8786 -1.0325
31333SOL    HW298557   6.637   1.731   3.841  0.5044 -0.2588 -0.6999
31334SOL     OW98558   6.985   5.508   7.567  0.1774  0.0628  0.7086
31334SOL    HW198559   7.015   5.422   7.538 -0.6186 -0.4733  1.4416
31334SOL    HW298560   6.891   5.498   7.579  0.4033  0.3375  3.1017
31335SOL     OW98561   3.888  12.113  11.142  0.4825  0.8369 -0.6913
31335SOL    HW198562   3.919  12.134  11.230  0.5479  0.2189 -0.5667
31335SOL    HW298563   3.967  12.104  11.090  0.5483 -0.6648 -0.3896
31336SOL     OW98564   2.406   3.156   0.447  0.1704 -0.4669  0.0069
31336SOL    HW198565   2.455   3.235   0.470 -0.2510  0.1121 -0.9996
31336SOL    HW298566   2.412   3.100   0.525  3.7931 -1.1381 -0.5532
31337SOL     OW98567   6.487   2.079  10.961  0.2560  0.5907  0.5217
31337SOL    HW198568   6.402   2.090  10.918  1.3059  2.6933 -1.2113
31337SOL    HW298569   6.540   2.151  10.927  2.2970  0.2135  2.6969
31338SOL     OW98570   2.294   6.530  10.559  0.0814  0.1042 -0.0148
31338SOL    HW198571   2.320   6.438  10.551 -0.8711 -0.1612 -0.1996
31338SOL    HW298572   2.297   6.547  10.653 -1.7985 -0.7604  0.2326
31339SOL     OW98573  11.818  10.687   8.874 -0.4789 -0.4370 -0.1582
31339SOL    HW198574  11.901  10.721   8.840 -0.7062  1.0842  0.7008
31339SOL    HW298575  11.844  10.632   8.949 -0.2365  0.1387  0.1893
31340SOL     OW98576  11.140   2.139   2.362  0.1901 -0.0753  0.6585
31340SOL    HW198577  11.136   2.234   2.348  1.4776  0.2166  1.9914
31340SOL    HW298578  11.119   2.128   2.455 -0.5815 -1.1632  0.3683
31341SOL     OW98579  11.271   3.554  11.755 -0.0316  0.0848  0.1410
31341SOL    HW198580  11.249   3.552  11.662 -0.8074 -1.4955  0.3346
31341SOL    HW298581  11.334   3.483  11.767  0.4339  0.5877  0.7374
31342SOL     OW98582   6.999   6.253   9.050  0.5566 -0.4420  0.2027
31342SOL    HW198583   6.998   6.283   8.959 -0.5219  0.3475  0.4628
31342SOL    HW298584   7.073   6.192   9.054  0.4598 -0.6885 -1.2637
31343SOL     OW98585   5.004   8.016   0.476  0.3463  0.3271  0.4094
31343SOL    HW198586   4.915   8.024   0.441 -0.7043 -0.2524  2.7652
31343SOL    HW298587   5.061   8.046   0.405 -1.9194  5.6639  0.3650
31344SOL     OW98588  11.370  11.314   5.398  0.3036  0.1571 -0.5747
31344SOL    HW198589  11.335  11.390   5.446 -0.8034 -0.9848  0.4854
31344SOL    HW298590  11.320  11.313   5.317 -1.9287 -1.1683  0.7123
31345SOL     OW98591   0.260  10.171   6.190  0.8378  0.5934  0.2509
31345SOL    HW198592   0.236  10.234   6.259 -0.1330  0.6840 -0.1556
31345SOL    HW298593   0.316  10.222   6.131  0.9123  0.7794  0.4780
31346SOL     OW98594   4.720   4.667   2.831  0.3999 -0.3790  0.3772
31346SOL    HW198595   4.661   4.599   2.797  0.0710  0.3076 -0.4659
31346SOL    HW298596   4.682   4.749   2.800  2.1055  0.0547 -0.6486
31347SOL     OW98597  11.455  11.782   5.719 -0.3885 -0.8224  0.0669
31347SOL    HW198598  11.422  11.855   5.665  0.3625 -0.1316  0.5321
31347SOL    HW298599  11.537  11.756   5.677  1.1588  0.9232  1.8613
31348SOL     OW98600  10.931   4.465   4.436 -0.2017 -0.0037  0.5987
31348SOL    HW198601  10.887   4.525   4.496  1.1225  0.9094  0.6962
31348SOL    HW298602  10.939   4.513   4.354  1.5962  0.3003  0.9167
31349SOL     OW98603   5.337   5.824   8.006  0.4598  0.5977  0.2246
31349SOL    HW198604   5.386   5.826   8.088 -0.0721 -1.1380  0.6213
31349SOL    HW298605   5.298   5.737   8.003 -0.3461  0.9704 -1.4077
31350SOL     OW98606   6.647   4.413   5.889  0.1211  0.2613 -0.1708
31350SOL    HW198607   6.621   4.325   5.915  0.7725 -0.0039 -0.3863
31350SOL    HW298608   6.723   4.433   5.944 -0.0345  0.6900 -0.1114
31351SOL     OW98609   5.708  11.057   5.753 -0.0667  0.1150  0.1174
31351SOL    HW198610   5.649  11.133   5.755  0.4606  0.5096  0.6964
31351SOL    HW298611   5.654  10.984   5.784  0.3703  0.9143  2.9790
31352SOL     OW98612  11.796  11.968  11.175 -0.5053 -0.0760  0.3820
31352SOL    HW198613  11.801  12.031  11.104  0.2232  0.5640  0.9897
31352SOL    HW298614  11.885  11.932  11.183 -0.4804  0.1407  1.2150
31353SOL     OW98615   2.829   3.811   7.850 -0.1272  0.1712  0.3360
31353SOL    HW198616   2.906   3.754   7.845  0.8567  1.4110  0.9399
31353SOL    HW298617   2.767   3.773   7.788  1.3761 -0.2390 -0.9660
31354SOL     OW98618   0.504   7.551   3.726 -0.4012 -0.0854 -0.4780
31354SOL    HW198619   0.539   7.611   3.792  0.9113 -0.2265 -1.0002
31354SOL    HW298620   0.519   7.596   3.643  1.9281 -1.6408 -1.0163
31355SOL     OW98621   9.289   4.577  12.015 -0.4787 -0.3302  0.3090
31355SOL    HW198622   9.214   4.517  12.020 -1.3156  0.7391  1.3245
31355SOL    HW298623   9.250   4.662  11.993  0.7838 -0.2904 -1.9860
31356SOL     OW98624   1.594   2.385   1.355  0.2890 -0.3184 -0.7800
31356SOL    HW198625   1.646   2.310   1.326 -0.4195 -1.5010  0.8451
31356SOL    HW298626   1.614   2.394   1.448 -0.4911  0.8095 -0.6957
31357SOL     OW98627  10.791   1.490   5.009  0.2614 -0.4627  0.4220
31357SOL    HW198628  10.825   1.443   5.085  0.9450  1.1284  1.1441
31357SOL    HW298629  10.866   1.497   4.950 -0.2492 -1.6301 -0.4138
31358SOL     OW98630   0.609  10.715   7.506  0.0895  0.3422 -0.0322
31358SOL    HW198631   0.532  10.659   7.509 -0.0633  0.4473 -1.2910
31358SOL    HW298632   0.649  10.706   7.592 -1.7633  0.9081  0.9416
31359SOL     OW98633   4.719   0.253   9.647  0.4243  0.0355  0.3612
31359SOL    HW198634   4.671   0.176   9.676 -0.2228 -0.2613 -1.3773
31359SOL    HW298635   4.715   0.249   9.551 -0.6958  2.8764  0.2058
31360SOL     OW98636  11.736   8.218  11.512  0.0849  0.0077 -0.0378
31360SOL    HW198637  11.760   8.284  11.447 -1.8820 -0.5315 -1.4080
31360SOL    HW298638  11.744   8.135  11.466  1.0510 -0.6142  1.1986
31361SOL     OW98639   8.844   3.374   9.252  0.1181  0.2566 -0.3915
31361SOL    HW198640   8.878   3.407   9.335  0.2711  0.7573 -0.6444
31361SOL    HW298641   8.920   3.334   9.209  0.2234  0.7044 -0.6298
31362SOL     OW98642   2.036  10.960   5.819  0.1666 -0.1339 -0.3215
31362SOL    HW198643   2.070  11.041   5.857 -0.5788 -0.3938  0.9402
31362SOL    HW298644   1.999  10.988   5.735 -0.2396  0.8831  0.1743
31363SOL     OW98645   7.014   7.975   3.352  0.3676 -0.6643  0.1352
31363SOL    HW198646   7.098   7.964   3.397 -0.5702 -0.8790  1.9401
31363SOL    HW298647   6.976   8.053   3.392 -0.0261 -0.1810 -1.1420
31364SOL     OW98648  10.170   2.212  11.569  0.1110 -0.2229 -0.4849
31364SOL    HW198649  10.183   2.306  11.585 -1.0058  0.0006 -0.7853
31364SOL    HW298650  10.075   2.203  11.560  0.3034 -1.1756 -1.7867
31365SOL     OW98651  10.262   5.110   3.219 -0.9154 -0.0229 -0.2147
31365SOL    HW198652  10.313   5.029   3.221 -1.3259 -0.2732  0.4050
31365SOL    HW298653  10.177   5.086   3.256 -1.0495  0.6876 -0.0404
31366SOL     OW98654  11.191   0.502   4.692  0.2764 -0.2112 -0.1864
31366SOL    HW198655  11.243   0.580   4.711  0.7215 -0.4744 -0.3109
31366SOL    HW298656  11.210   0.481   4.601  0.9268 -1.0348  0.1331
31367SOL     OW98657   0.259  11.124   0.565  0.0267 -0.0434 -0.0218
31367SOL    HW198658   0.308  11.155   0.490  0.8780 -1.2738 -0.0161
31367SOL    HW298659   0.257  11.198   0.626 -0.2896  0.8170 -1.0480
31368SOL     OW98660   3.175   1.681   8.479 -0.2221  0.5392 -0.4151
31368SOL    HW198661   3.185   1.748   8.411  2.6857 -0.9058 -1.5765
31368SOL    HW298662   3.237   1.707   8.547 -0.0455 -0.2709 -0.2647
31369SOL     OW98663   0.614   7.241  10.142  0.6687 -0.0745  0.0844
31369SOL    HW198664   0.642   7.294  10.217 -0.2645  1.8852 -0.8654
31369SOL    HW298665   0.528   7.207  10.168  0.6623  0.0167  0.1849
31370SOL     OW98666  10.639   1.267   7.810  0.0292 -0.3021  0.3682
31370SOL    HW198667  10.561   1.315   7.838 -0.0472  0.1432 -0.5654
31370SOL    HW298668  10.687   1.329   7.755 -0.1893 -1.3327 -1.0625
31371SOL     OW98669   3.080   5.805   6.915  0.1062 -0.1104 -0.4726
31371SOL    HW198670   3.129   5.782   6.995 -0.4781 -1.7748 -0.5406
31371SOL    HW298671   3.098   5.732   6.855 -1.8848 -0.4459 -0.7332
31372SOL     OW98672   2.339   7.808   6.894 -0.2328 -0.1402 -0.0581
31372SOL    HW198673   2.301   7.884   6.940 -0.8620 -0.6388  0.2516
31372SOL    HW298674   2.281   7.792   6.820  1.0333  0.9532 -1.3601
31373SOL     OW98675   1.732  10.548   6.375  0.3359  0.0383 -0.0718
31373SOL    HW198676   1.801  10.484   6.359  1.7436  0.8141  2.3581
31373SOL    HW298677   1.665  10.499   6.422 -0.4332 -0.5018 -1.6493
31374SOL     OW98678  10.362   8.763   1.435  0.3154  0.0268 -0.2098
31374SOL    HW198679  10.403   8.700   1.376  2.0127 -0.4738  1.3898
31374SOL    HW298680  10.346   8.714   1.516 -0.8272  0.9767  0.1795
31375SOL     OW98681  10.934   7.713   7.971  0.8110  0.0704  0.7026
31375SOL    HW198682  10.945   7.618   7.961  1.0461  0.1951 -0.3376
31375SOL    HW298683  10.941   7.747   7.882  2.2700  1.2231  1.2242
31376SOL     OW98684   6.963   8.231  12.008 -0.1730 -0.6033 -0.1333
31376SOL    HW198685   6.995   8.321  12.001  3.8299 -1.8363 -0.3091
31376SOL    HW298686   6.991   8.202  12.094 -3.5425 -1.0958  0.9283
31377SOL     OW98687  11.883   8.596   0.788  0.3357  0.5968  0.3641
31377SOL    HW198688  11.905   8.510   0.825 -1.0261 -0.5407 -1.3250
31377SOL    HW298689  11.939   8.603   0.710 -0.4188  0.6975 -0.1742
31378SOL     OW98690   3.323   2.671   1.329  0.1303  0.2232  0.2292
31378SOL    HW198691   3.229   2.654   1.341  0.7014 -2.9718  1.1672
31378SOL    HW298692   3.342   2.744   1.387 -1.5560  0.0537  1.0526
31379SOL     OW98693   1.313   2.584   0.607 -0.0485 -0.7184  0.2030
31379SOL    HW198694   1.365   2.549   0.678  0.0572 -0.2234  0.3760
31379SOL    HW298695   1.254   2.513   0.582 -1.1190 -0.4319  1.7731
31380SOL     OW98696   8.556   2.316   2.022 -0.6368 -0.0754 -0.1086
31380SOL    HW198697   8.605   2.317   2.104 -1.5408 -1.0906  0.4669
31380SOL    HW298698   8.464   2.324   2.049 -0.9126  0.1145 -1.0622
31381SOL     OW98699   4.868   4.061   3.561  0.6349 -0.2660  0.2564
31381SOL    HW198700   4.864   3.977   3.607  0.3653 -0.6714 -0.4946
31381SOL    HW298701   4.953   4.060   3.517  0.0209 -0.7936 -0.9515
31382SOL     OW98702   7.742   5.459   3.892  0.6915  0.2971 -0.2959
31382SOL    HW198703   7.690   5.535   3.863 -0.8279 -0.8230 -0.6793
31382SOL    HW298704   7.833   5.485   3.878  0.1655  1.5805 -1.6106
31383SOL     OW98705   7.496   3.863   4.293 -0.1251 -0.3121  0.9149
31383SOL    HW198706   7.552   3.932   4.329  0.1579 -0.7522  1.3376
31383SOL    HW298707   7.412   3.874   4.338  0.0336 -0.4696  1.2524
31384SOL     OW98708   0.766   9.990   7.100  0.6306 -0.3521 -1.2346
31384SOL    HW198709   0.796   9.963   7.187 -0.2697  0.1347 -0.7682
31384SOL    HW298710   0.841  10.036   7.062  1.1453 -0.8647 -0.8567
31385SOL     OW98711   5.577   5.319   5.448 -1.0773 -0.6177 -0.1417
31385SOL    HW198712   5.646   5.302   5.512 -1.8013  0.4416  0.9782
31385SOL    HW298713   5.622   5.356   5.372 -0.4132  0.2755  0.6546
31386SOL     OW98714   4.079   8.028   4.398  0.6736 -0.5460  0.1784
31386SOL    HW198715   4.081   8.107   4.452  1.2865 -0.4366  0.0042
31386SOL    HW298716   4.007   8.043   4.337 -0.1881 -0.7736  1.1034
31387SOL     OW98717  11.850   1.071   1.326  0.3365 -0.1340  0.2526
31387SOL    HW198718  11.920   1.105   1.381  1.0691 -0.3542 -0.5248
31387SOL    HW298719  11.832   1.142   1.264 -0.5469  0.1470  0.7934
31388SOL     OW98720   1.000  10.962   9.070 -0.0991  0.0204 -0.3391
31388SOL    HW198721   1.015  11.054   9.091 -2.0060  0.0913  0.9698
31388SOL    HW298722   1.018  10.955   8.976  0.8218  1.5339 -0.2973
31389SOL     OW98723   3.574  11.993   8.923  0.4194 -0.3276  0.2942
31389SOL    HW198724   3.479  11.990   8.917  0.5552 -1.4685 -2.7370
31389SOL    HW298725   3.599  12.074   8.878  0.9284  0.4754  1.9061
31390SOL     OW98726   9.284   1.002  11.681 -0.2285  0.0534 -0.0926
31390SOL    HW198727   9.195   0.988  11.715 -0.2485  1.8354  0.7535
31390SOL    HW298728   9.315   1.079  11.729  1.1348  0.4954 -1.6058
31391SOL     OW98729   2.319  11.333   9.427  0.3644  0.3699 -0.7119
31391SOL    HW198730   2.387  11.335   9.360  1.4314 -1.9668  0.1779
31391SOL    HW298731   2.342  11.259   9.483 -2.0073  0.5218  0.6358
31392SOL     OW98732   9.282   3.088   2.075  0.2780  0.0418  0.6035
31392SOL    HW198733   9.308   3.179   2.090 -0.2679  0.1285  1.0583
31392SOL    HW298734   9.202   3.094   2.023  0.4892 -0.1924  0.2454
31393SOL     OW98735   2.757   0.693   4.989 -0.0875  0.3688  0.2027
31393SOL    HW198736   2.817   0.620   5.005  0.1289  0.0416 -1.8666
31393SOL    HW298737   2.793   0.765   5.041 -0.3744 -0.9682  2.4017
31394SOL     OW98738   4.477   9.440  10.703  0.2676 -0.0337 -0.0678
31394SOL    HW198739   4.402   9.383  10.722  1.1527 -1.3899 -0.4908
31394SOL    HW298740   4.445   9.528  10.721 -1.4637 -0.5640 -0.3411
31395SOL     OW98741  10.664   3.705   5.130 -0.3946 -0.4151  0.1763
31395SOL    HW198742  10.653   3.674   5.220  1.4926  0.4790  0.7807
31395SOL    HW298743  10.664   3.625   5.077 -2.7914 -0.8713  0.7602
31396SOL     OW98744   9.358   1.424   8.003 -1.0031 -0.4512  0.1778
31396SOL    HW198745   9.333   1.488   8.070 -0.2167  0.3677 -0.2812
31396SOL    HW298746   9.451   1.407   8.019 -0.9349 -0.6326 -0.3869
31397SOL     OW98747   2.019  10.612   2.819 -0.3929 -0.0475 -0.9653
31397SOL    HW198748   1.963  10.691   2.821  0.6735  0.7118 -0.0777
31397SOL    HW298749   2.093  10.637   2.765 -1.0004 -1.1545 -2.3809
31398SOL     OW98750   2.281   9.299   2.437 -0.0230  0.5092 -0.4449
31398SOL    HW198751   2.266   9.209   2.407 -1.4482  0.7537 -0.5425
31398SOL    HW298752   2.242   9.354   2.368 -0.6700  1.1527  0.4083
31399SOL     OW98753   2.084   9.664   7.372 -0.4189  0.1617  0.1884
31399SOL    HW198754   2.154   9.722   7.401 -0.7733  0.2288  0.9476
31399SOL    HW298755   2.014   9.723   7.342  0.6540  0.1184 -2.7571
31400SOL     OW98756   3.838   7.771   3.750  0.2697  0.2147 -0.7084
31400SOL    HW198757   3.846   7.844   3.811  0.9187  1.0997 -1.8170
31400SOL    HW298758   3.905   7.709   3.779  1.7063  1.3461 -1.4568
31401SOL     OW98759   2.776  11.830  10.316 -0.6553  0.6350  0.5026
31401SOL    HW198760   2.688  11.827  10.353  0.2905  0.5793  2.9586
31401SOL    HW298761   2.780  11.914  10.270 -1.9479  0.6500  0.3794
31402SOL     OW98762   1.644   7.420   4.713  0.6058 -0.3472  0.1675
31402SOL    HW198763   1.596   7.431   4.795  0.7865 -0.3578  0.2754
31402SOL    HW298764   1.737   7.424   4.738  0.6647 -0.5407 -0.0082
31403SOL     OW98765   6.841  12.039   9.328  0.1829 -0.1140 -0.1926
31403SOL    HW198766   6.757  12.008   9.293  0.5201 -0.6731 -0.5275
31403SOL    HW298767   6.886  12.076   9.252  0.6135 -0.6562 -0.2136
31404SOL     OW98768   5.650   8.700  11.002 -0.3115  0.3323 -0.8089
31404SOL    HW198769   5.568   8.746  10.987 -1.6094 -0.5742  2.5264
31404SOL    HW298770   5.687   8.742  11.079  1.3270 -0.6120 -1.0382
31405SOL     OW98771   8.680   2.471   0.943  0.0042 -0.0084 -0.7409
31405SOL    HW198772   8.641   2.556   0.963  1.2839  0.8996 -1.9309
31405SOL    HW298773   8.608   2.408   0.954 -0.8697  1.1638  0.5214
31406SOL     OW98774   7.978  10.984   4.258 -0.5876 -0.6934 -0.4856
31406SOL    HW198775   7.968  10.897   4.297 -0.4482 -0.7082 -0.4839
31406SOL    HW298776   7.914  11.038   4.305  0.6598 -0.3344  0.8834
31407SOL     OW98777   3.336   4.657   7.454  0.1343  0.5073  0.3420
31407SOL    HW198778   3.248   4.692   7.469 -0.8597 -1.7565  0.3580
31407SOL    HW298779   3.376   4.657   7.541 -0.3630  0.3561  0.5799
31408SOL     OW98780   4.827   7.391   7.554 -0.0134  0.3786 -0.0294
31408SOL    HW198781   4.910   7.434   7.576  0.0751  0.9482 -1.3617
31408SOL    HW298782   4.853   7.315   7.502 -0.3201  0.9421 -1.0481
31409SOL     OW98783   0.886   6.176   6.889  0.1104  0.1502  0.3236
31409SOL    HW198784   0.960   6.116   6.877  0.1561  0.1187  0.7410
31409SOL    HW298785   0.810   6.118   6.896 -0.0863  0.2224 -1.0434
31410SOL     OW98786   2.524   5.122   2.431  0.2483  0.1537 -0.2081
31410SOL    HW198787   2.466   5.063   2.479  2.6596 -0.4639  2.1262
31410SOL    HW298788   2.477   5.206   2.430 -1.0461 -0.5242  0.8563
31411SOL     OW98789   5.045   3.195   8.115 -0.1340 -0.4242 -0.5093
31411SOL    HW198790   5.052   3.290   8.105  0.6287 -0.3949  0.1990
31411SOL    HW298791   4.986   3.183   8.189 -1.1337 -0.5373 -1.3020
31412SOL     OW98792   6.304   1.425   1.644 -0.0696 -0.3250  0.0056
31412SOL    HW198793   6.340   1.514   1.648 -1.1159  0.2131 -1.6748
31412SOL    HW298794   6.222   1.430   1.694 -0.3144 -0.2224 -0.3949
31413SOL     OW98795   8.425   2.425  10.391  0.1809 -0.0721 -0.4166
31413SOL    HW198796   8.358   2.356  10.391 -0.2959  0.3450 -1.8696
31413SOL    HW298797   8.435   2.449  10.483  0.9522 -2.6382  0.2439
31414SOL     OW98798   1.508   3.069   8.572 -0.2299 -0.1745  0.2115
31414SOL    HW198799   1.578   3.039   8.515 -1.2051 -2.3648  0.0642
31414SOL    HW298800   1.508   3.164   8.562  0.0176 -0.3984 -2.9963
31415SOL     OW98801   4.314   1.559   7.894  0.3660 -0.2722 -0.0460
31415SOL    HW198802   4.223   1.530   7.904 -0.2428  0.8957 -1.8494
31415SOL    HW298803   4.321   1.635   7.952  0.2687 -0.4657  0.2263
31416SOL     OW98804   6.953   8.865   4.872  0.6215  0.2614 -0.1438
31416SOL    HW198805   6.907   8.847   4.954  1.0454 -1.9381 -0.3353
31416SOL    HW298806   7.044   8.880   4.897  0.7666 -0.4894 -0.1922
31417SOL     OW98807   2.631   2.793   4.798  0.0172  0.1099  0.1053
31417SOL    HW198808   2.602   2.707   4.829  0.7743  0.4554  1.9216
31417SOL    HW298809   2.714   2.808   4.843  0.9413  0.9414 -1.7621
31418SOL     OW98810  10.174  11.332  10.861  0.6091 -0.0354 -0.1048
31418SOL    HW198811  10.268  11.349  10.855  0.6216 -0.2390 -0.4743
31418SOL    HW298812  10.165  11.238  10.844  0.4084 -0.1586  0.6451
31419SOL     OW98813   9.190   3.356   5.275  0.0721  0.1950 -0.0683
31419SOL    HW198814   9.194   3.407   5.194 -0.6494  1.2327  0.5350
31419SOL    HW298815   9.111   3.303   5.265 -0.6240  1.1334  0.4193
31420SOL     OW98816   8.561   2.755   1.223  0.3110  0.5017  0.1903
31420SOL    HW198817   8.513   2.672   1.228  2.1361 -0.6519 -0.4724
31420SOL    HW298818   8.556   2.779   1.130  0.6009  0.6051  0.1999
31421SOL     OW98819   1.786   2.011   8.528  0.0501 -0.7102 -0.4139
31421SOL    HW198820   1.827   1.924   8.530 -0.8051 -1.1454 -1.0020
31421SOL    HW298821   1.746   2.020   8.615 -1.3341 -1.6716 -0.9002
31422SOL     OW98822  11.159  11.368  10.671 -0.3031  0.8623 -0.0369
31422SOL    HW198823  11.101  11.305  10.629  1.3205 -0.2923 -0.6487
31422SOL    HW298824  11.163  11.341  10.762  0.8550 -0.3525 -0.4151
31423SOL     OW98825   0.187   3.474   1.290  0.6329 -0.4553 -0.1168
31423SOL    HW198826   0.223   3.452   1.376  0.3501 -0.8840 -0.1049
31423SOL    HW298827   0.104   3.517   1.309  1.2843  0.8462 -0.1330
31424SOL     OW98828  10.137   8.612   3.250  0.3033  0.2900  0.0404
31424SOL    HW198829  10.158   8.690   3.300  1.0128 -0.6037  1.2093
31424SOL    HW298830  10.045   8.593   3.271  0.5028  0.1064  0.7782
31425SOL     OW98831  12.100   8.111   0.288  0.3147 -0.3311  0.0797
31425SOL    HW198832  12.017   8.129   0.243  0.8616  1.4726 -0.2907
31425SOL    HW298833  12.165   8.106   0.217  0.6066 -1.2973  0.3986
31426SOL     OW98834   7.450   2.416   1.887 -0.1511  0.3931  0.2562
31426SOL    HW198835   7.512   2.422   1.815  0.1119  0.0891  0.4572
31426SOL    HW298836   7.375   2.368   1.851 -0.5140  1.2374 -0.1496
31427SOL     OW98837   6.240   6.738   6.921 -0.2504 -0.4073 -0.3600
31427SOL    HW198838   6.332   6.710   6.923 -0.6409 -1.7581  0.9624
31427SOL    HW298839   6.202   6.698   7.000 -1.7682  0.8569 -0.4178
31428SOL     OW98840   1.686   2.543   2.270 -0.1652 -0.0385 -0.1936
31428SOL    HW198841   1.722   2.546   2.182  1.0785 -2.4249  0.1500
31428SOL    HW298842   1.700   2.453   2.299 -1.8682  0.2798  1.9166
31429SOL     OW98843   1.372   2.202   1.293 -0.7614  0.3437 -0.0655
31429SOL    HW198844   1.351   2.150   1.370 -0.6688  2.3095  1.3602
31429SOL    HW298845   1.428   2.272   1.326  0.4602  0.4509 -2.1836
31430SOL     OW98846   9.035   6.777   9.624  0.4953  0.0594  0.2480
31430SOL    HW198847   9.080   6.839   9.681 -1.7346  1.4605  0.5868
31430SOL    HW298848   9.046   6.692   9.668 -0.2897  0.9467  2.2555
31431SOL     OW98849   9.093  11.999  10.503  0.7279  0.3532  0.3758
31431SOL    HW198850   9.173  12.041  10.471  1.5069 -1.7604 -0.6495
31431SOL    HW298851   9.070  11.935  10.435 -0.9661 -0.1599  1.3642
31432SOL     OW98852   4.518  10.580   0.620 -0.1430  0.2916  0.0982
31432SOL    HW198853   4.571  10.607   0.694  1.7258  2.1570 -1.7984
31432SOL    HW298854   4.571  10.515   0.574 -1.0623 -0.4705  0.0717
31433SOL     OW98855  11.583  10.085   9.934  0.0331 -0.2012  0.3048
31433SOL    HW198856  11.619  10.041  10.011  1.4435 -0.2064 -0.3436
31433SOL    HW298857  11.490  10.062   9.936 -0.1913  0.6276  2.5671
31434SOL     OW98858   4.501   7.833   3.913 -0.0457  0.5572 -0.3075
31434SOL    HW198859   4.422   7.800   3.956  0.3931 -0.0378  0.0552
31434SOL    HW298860   4.469   7.885   3.840 -0.7610 -0.3702 -0.6570
31435SOL     OW98861   1.196  10.800   4.548  0.6645  0.5027  0.1147
31435SOL    HW198862   1.185  10.817   4.454 -0.0172  1.1798  0.3040
31435SOL    HW298863   1.180  10.885   4.589 -0.4807 -0.0822  0.9393
31436SOL     OW98864   9.251   3.883   5.710 -0.8549 -0.0378 -0.3180
31436SOL    HW198865   9.203   3.832   5.775  0.3408 -0.8218 -0.0000
31436SOL    HW298866   9.243   3.974   5.740  0.6214 -0.4734  1.6358
31437SOL     OW98867   3.909  11.553   2.989  0.0738  0.4248  0.0264
31437SOL    HW198868   3.852  11.478   3.009 -0.9405  0.8000 -1.3132
31437SOL    HW298869   3.956  11.526   2.911 -1.3884  1.6898 -1.3669
31438SOL     OW98870   2.784   9.384   1.203 -0.1243  0.5916  0.4500
31438SOL    HW198871   2.693   9.408   1.185 -0.1650 -0.1243 -0.3810
31438SOL    HW298872   2.829   9.468   1.213 -0.8373  0.9553  0.6967
31439SOL     OW98873   8.256  11.633   5.112 -0.2985  0.0937 -0.2420
31439SOL    HW198874   8.340  11.634   5.064 -0.6238 -0.6588 -0.8664
31439SOL    HW298875   8.277  11.668   5.198  0.5153  0.5743 -0.6223
31440SOL     OW98876   7.440   6.624  11.950 -0.1684  0.2795 -0.1711
31440SOL    HW198877   7.427   6.556  11.885  1.3305 -0.8885  0.6801
31440SOL    HW298878   7.481   6.696  11.902 -1.5150  0.5144 -1.0230
31441SOL     OW98879  11.150   2.132   8.037  0.0441  0.0199  0.2892
31441SOL    HW198880  11.220   2.151   8.099 -1.1703  1.1132  1.3838
31441SOL    HW298881  11.093   2.070   8.082 -0.9285  0.9393  0.3801
31442SOL     OW98882   9.059   0.158   2.895 -0.7992  0.3617  0.1292
31442SOL    HW198883   9.103   0.242   2.912 -0.9181  0.3389  0.5690
31442SOL    HW298884   8.970   0.171   2.927 -0.9541  0.2222 -0.2445
31443SOL     OW98885   6.386  11.211   9.504 -0.0548  0.1951 -0.6145
31443SOL    HW198886   6.446  11.186   9.433 -0.2489 -2.5182  0.1002
31443SOL    HW298887   6.309  11.245   9.459  0.5415  0.2325 -1.6452
31444SOL     OW98888   0.174   7.008  11.964  0.1560 -0.0315  0.1987
31444SOL    HW198889   0.124   7.006  11.883 -3.2500  0.1761  2.1325
31444SOL    HW298890   0.172   6.918  11.996 -0.2809  0.2551  1.0067
31445SOL     OW98891   1.140   2.391   0.535  0.4652  0.2094  0.7431
31445SOL    HW198892   1.068   2.411   0.595  0.5241  2.0645  0.2700
31445SOL    HW298893   1.183   2.315   0.574  0.1047  0.9328  2.6925
31446SOL     OW98894  11.920   9.052   8.593 -0.1941  0.1431  0.2021
31446SOL    HW198895  11.904   9.013   8.679 -0.7027  0.0573  0.0702
31446SOL    HW298896  11.897   9.144   8.603  1.8800  0.6527  0.7704
31447SOL     OW98897   5.724  11.488   9.465 -0.4173 -0.4961 -0.1731
31447SOL    HW198898   5.671  11.417   9.430 -1.9431 -0.2449  1.5174
31447SOL    HW298899   5.665  11.562   9.471  0.5087  0.2238  0.3933
31448SOL     OW98900   4.770   0.887   7.063 -0.2638  0.0847 -0.3536
31448SOL    HW198901   4.848   0.932   7.095  0.6881 -1.8419  0.2121
31448SOL    HW298902   4.754   0.924   6.976  2.2172 -0.5360 -1.1548
31449SOL     OW98903   2.794   6.433   8.956 -0.0905 -0.7168 -0.2911
31449SOL    HW198904   2.717   6.467   9.001  0.8406  1.8646 -0.4780
31449SOL    HW298905   2.765   6.420   8.865 -0.3678  0.0082 -0.3078
31450SOL     OW98906   3.539   5.358   1.058 -0.3398 -0.5074  0.5774
31450SOL    HW198907   3.465   5.339   1.000 -0.6942  0.3506  0.7396
31450SOL    HW298908   3.534   5.290   1.126  0.8609 -2.3498 -1.0761
31451SOL     OW98909   7.931  12.050   9.602 -0.8996  0.1673 -0.1309
31451SOL    HW198910   7.973  12.014   9.523 -1.0410  0.7633 -0.4801
31451SOL    HW298911   7.845  12.079   9.572 -2.6400 -3.2228  1.0401
31452SOL     OW98912   7.591   0.319   6.797  0.1318 -0.0511 -0.9256
31452SOL    HW198913   7.644   0.249   6.835 -1.1073  0.0838  1.2404
31452SOL    HW298914   7.618   0.323   6.705  1.5270 -2.1187 -0.6685
31453SOL     OW98915   9.049   3.987   7.134  0.0355  0.0064 -0.2721
31453SOL    HW198916   9.071   3.894   7.129 -0.1109 -0.0872  0.6576
31453SOL    HW298917   9.030   4.012   7.043  0.6743 -0.7145 -0.6144
31454SOL     OW98918   3.918  11.838   4.624  0.1729  0.0554  0.4597
31454SOL    HW198919   3.850  11.799   4.569  1.4170 -1.5440 -0.0258
31454SOL    HW298920   3.932  11.772   4.693  1.4864  0.1854  0.3290
31455SOL     OW98921   7.273   0.271   2.507 -0.5612  0.3971  0.1964
31455SOL    HW198922   7.342   0.275   2.440  0.9496 -1.0332  1.5557
31455SOL    HW298923   7.193   0.251   2.459  0.8327 -2.8055 -1.0918
31456SOL     OW98924   0.837   1.739   7.613 -0.0143  0.5100  0.6619
31456SOL    HW198925   0.898   1.746   7.687  0.2761 -2.1657  0.7752
31456SOL    HW298926   0.760   1.789   7.640 -0.5258 -1.5611  3.5193
31457SOL     OW98927   1.301   6.812   7.940 -0.2492  0.2914  0.2420
31457SOL    HW198928   1.306   6.803   7.845  1.0799 -1.4425  0.4342
31457SOL    HW298929   1.246   6.889   7.954 -2.2221 -0.6134 -1.9052
31458SOL     OW98930   8.383   5.845   4.144 -1.1807  0.3164  0.6826
31458SOL    HW198931   8.342   5.769   4.102  0.0824 -1.0923  1.8909
31458SOL    HW298932   8.447   5.876   4.081 -2.6424  1.2797 -0.3857
31459SOL     OW98933   4.659   7.471   9.106  0.5545 -0.7880  0.1175
31459SOL    HW198934   4.600   7.431   9.041 -1.4898  1.3400  0.5179
31459SOL    HW298935   4.711   7.534   9.056 -0.6944  0.5168  0.4047
31460SOL     OW98936   2.536   2.468   4.584  0.0039  0.0338  0.6594
31460SOL    HW198937   2.630   2.485   4.576  0.0486  0.9068  2.4523
31460SOL    HW298938   2.494   2.539   4.536  0.2553 -0.1874  0.1095
31461SOL     OW98939   7.687   8.477   1.432 -0.2516 -0.1960  0.5859
31461SOL    HW198940   7.707   8.474   1.338  0.3909 -0.4224  0.7261
31461SOL    HW298941   7.652   8.565   1.446 -1.1828 -0.4539 -0.0243
31462SOL     OW98942  11.296   5.020   2.832  0.1051 -0.2918 -0.6747
31462SOL    HW198943  11.231   5.090   2.840  1.0318  0.5517 -0.2315
31462SOL    HW298944  11.319   4.998   2.923  1.0592  0.0381 -0.8212
31463SOL     OW98945  11.262   6.425   1.243  0.7413  0.1047  0.1299
31463SOL    HW198946  11.275   6.519   1.255 -0.7782  0.1970  1.3909
31463SOL    HW298947  11.311   6.403   1.164  1.1017  1.9502 -0.1883
31464SOL     OW98948   4.643   6.902   5.182 -0.0280  0.0806 -0.2008
31464SOL    HW198949   4.606   6.926   5.267 -0.2159  1.2770 -0.6011
31464SOL    HW298950   4.657   6.985   5.138  2.2885 -0.3822 -0.4495
31465SOL     OW98951   4.896   5.478   8.296  0.7258  0.4726  0.6935
31465SOL    HW198952   4.827   5.417   8.268  1.5383 -0.5172  0.8083
31465SOL    HW298953   4.961   5.475   8.225  1.1277  0.6316  1.0545
31466SOL     OW98954   4.115   8.196   2.914 -0.0573  0.0933  0.2786
31466SOL    HW198955   4.104   8.226   3.004 -0.1402 -2.1997  1.0842
31466SOL    HW298956   4.096   8.103   2.916  1.2808 -0.3172 -1.8530
31467SOL     OW98957   5.253   3.989   3.619 -0.1201  0.2576  0.3524
31467SOL    HW198958   5.338   3.952   3.593 -0.2647  0.3550 -0.2740
31467SOL    HW298959   5.198   3.977   3.542 -0.6741  0.2079  0.7546
31468SOL     OW98960  11.138   5.414   8.048  0.3321  0.0509  0.5746
31468SOL    HW198961  11.049   5.429   8.015  0.1427 -0.5687  0.7922
31468SOL    HW298962  11.188   5.389   7.970 -0.3652 -2.5059  0.8741
31469SOL     OW98963   6.607  11.504  12.082  0.0211  0.3304  0.2818
31469SOL    HW198964   6.557  11.455  12.146 -0.9609  0.8901 -0.0390
31469SOL    HW298965   6.680  11.541  12.132  0.0251 -0.3549  0.7876
31470SOL     OW98966   1.641   1.161   7.224  0.4318  0.7006 -0.1130
31470SOL    HW198967   1.578   1.161   7.152 -1.7549  0.1133  1.7035
31470SOL    HW298968   1.652   1.254   7.247 -1.2127  0.7197  0.7042
31471SOL     OW98969  11.446   2.848   9.191 -0.3278  0.1240  0.2008
31471SOL    HW198970  11.483   2.779   9.247  1.8058  0.1405 -1.0638
31471SOL    HW298971  11.392   2.801   9.128  0.0950 -0.2783  0.1299
31472SOL     OW98972   5.106   0.857   0.517 -0.0138 -0.0045  0.0006
31472SOL    HW198973   5.107   0.764   0.494  1.0505  0.0385 -0.1739
31472SOL    HW298974   5.065   0.860   0.603  0.6788 -0.7281  0.3659
31473SOL     OW98975   8.875   9.330  10.802  0.0584  0.1540  0.4582
31473SOL    HW198976   8.814   9.373  10.860  0.0504  0.8807 -0.0738
31473SOL    HW298977   8.822   9.267  10.753 -0.3072  0.9215 -0.1429
31474SOL     OW98978   1.512   3.544   4.514  0.0772 -0.2314  0.3785
31474SOL    HW198979   1.575   3.538   4.443 -0.1901  3.7125 -0.4144
31474SOL    HW298980   1.565   3.556   4.593  0.3478  0.8323  0.0396
31475SOL     OW98981   3.153   9.081   2.176 -0.3177  0.3130  0.7410
31475SOL    HW198982   3.067   9.037   2.180 -0.1114 -0.0108  2.8099
31475SOL    HW298983   3.140   9.164   2.222 -0.0738  1.3555 -0.9941
31476SOL     OW98984   5.241   5.208   9.517  0.2003 -0.1694 -0.0915
31476SOL    HW198985   5.309   5.274   9.531 -0.3577  0.3814  0.0836
31476SOL    HW298986   5.271   5.132   9.567  0.5901  0.1333  0.1427
31477SOL     OW98987  12.025   8.735   6.255 -0.2955 -0.3805 -0.1994
31477SOL    HW198988  12.090   8.668   6.236 -0.4197 -0.3931 -0.5850
31477SOL    HW298989  11.973   8.743   6.175  0.0157  0.5056 -0.3261
31478SOL     OW98990   9.355   0.281   5.761  0.0379 -0.1996  0.1933
31478SOL    HW198991   9.335   0.373   5.777  1.8289  0.5967 -1.6945
31478SOL    HW298992   9.411   0.256   5.835 -0.7242  0.1017  0.8888
31479SOL     OW98993   0.781   4.886  10.191  0.7468 -0.5374  0.0366
31479SOL    HW198994   0.832   4.949  10.241 -0.0757 -0.3104  0.6023
31479SOL    HW298995   0.787   4.805  10.243  1.7248 -0.9223 -0.6400
31480SOL     OW98996   5.211   4.238  10.311 -0.3066 -0.4486 -0.3142
31480SOL    HW198997   5.178   4.314  10.359  1.4350  1.3562 -1.7727
31480SOL    HW298998   5.139   4.175  10.313 -2.3822  1.7770 -0.2130
31481SOL     OW98999   7.749  11.887  10.768 -0.0170  0.5170 -0.2461
31481SOL    HW199000   7.705  11.807  10.741 -0.2616  0.6482 -0.2372
31481SOL    HW299001   7.735  11.892  10.863  1.1789 -0.1469 -0.0208
31482SOL     OW99002   6.450   1.288   4.565  0.3351 -0.2866  0.2716
31482SOL    HW199003   6.375   1.347   4.567 -0.7176 -1.5310 -0.6831
31482SOL    HW299004   6.498   1.312   4.486  1.5401  1.1611  1.3925
31483SOL     OW99005  11.943   6.726   8.489 -0.0768  0.0517  0.2152
31483SOL    HW199006  11.898   6.774   8.420 -0.8533 -1.0501 -0.0680
31483SOL    HW299007  11.885   6.653   8.509  0.4670 -0.0424  1.5457
31484SOL     OW99008  11.871   3.706   1.109 -0.1002 -0.2875  0.0204
31484SOL    HW199009  11.817   3.783   1.095 -1.0288 -0.9622 -0.1781
31484SOL    HW299010  11.887   3.671   1.022 -0.5966 -0.9259  0.1781
31485SOL     OW99011   6.509  10.098   0.527 -0.2183 -0.5917  0.2342
31485SOL    HW199012   6.538  10.008   0.511  1.8432  0.3277 -1.8695
31485SOL    HW299013   6.430  10.107   0.473  0.9432 -0.5157 -1.5548
31486SOL     OW99014   7.545   0.648   3.745  0.7617 -0.2675  0.2776
31486SOL    HW199015   7.581   0.584   3.684  1.0041  0.1899 -0.0709
31486SOL    HW299016   7.621   0.679   3.794  0.7596  0.2469 -0.0310
31487SOL     OW99017   6.609   9.687   1.400  0.5503  0.5632 -0.7422
31487SOL    HW199018   6.653   9.608   1.431 -2.5793 -0.5084  1.4221
31487SOL    HW299019   6.572   9.662   1.315  0.8761  0.2347 -0.7908
31488SOL     OW99020   2.343  11.738   7.048  0.6774 -0.0201 -1.5258
31488SOL    HW199021   2.419  11.713   6.995  0.2338 -0.6211 -1.8794
31488SOL    HW299022   2.374  11.814   7.098  1.2863  0.2017 -2.2080
31489SOL     OW99023  11.526   4.702   3.778 -0.0843 -0.1225  0.6266
31489SOL    HW199024  11.501   4.715   3.687 -0.1723 -0.2418  0.6331
31489SOL    HW299025  11.619   4.680   3.775  0.1700  0.9170  0.6497
31490SOL     OW99026   0.734   1.454   4.310  0.0508 -0.7784 -0.0175
31490SOL    HW199027   0.762   1.381   4.366  1.9005  0.0857  0.2900
31490SOL    HW299028   0.792   1.526   4.336  1.0324 -0.3398 -3.0560
31491SOL     OW99029   8.601   1.365   4.222  0.0865 -0.1819  0.4523
31491SOL    HW199030   8.636   1.416   4.150  0.9998 -0.6362  0.5622
31491SOL    HW299031   8.625   1.414   4.301 -0.9248  0.3235  0.4646
31492SOL     OW99032   1.162   3.971   2.020  0.7918  0.5696  0.3782
31492SOL    HW199033   1.176   4.046   1.962  1.8652 -1.4859 -2.1867
31492SOL    HW299034   1.249   3.955   2.058  0.7880  0.0792  0.1843
31493SOL     OW99035   8.325   5.992   4.755  0.4087 -0.2057  0.2223
31493SOL    HW199036   8.237   5.985   4.792  0.1434 -0.6312 -0.4773
31493SOL    HW299037   8.373   6.045   4.819 -0.6371  0.9526  0.0968
31494SOL     OW99038   5.685  11.968   5.699  0.7569  0.0057  0.4077
31494SOL    HW199039   5.732  12.052   5.692  0.8660 -0.1213 -0.5844
31494SOL    HW299040   5.592  11.993   5.703  0.8646  0.2839  2.8982
31495SOL     OW99041   3.845   7.787  11.282 -0.4691  0.4817  0.0675
31495SOL    HW199042   3.852   7.834  11.364 -0.9068 -2.5678  2.0242
31495SOL    HW299043   3.922   7.814  11.231  0.7272  1.2496  2.1803
31496SOL     OW99044  11.012   4.951   4.619 -0.3707 -0.5564  0.1157
31496SOL    HW199045  10.923   4.982   4.636  0.2846  1.7021 -0.1866
31496SOL    HW299046  11.011   4.924   4.527 -0.6104  0.0431 -0.0625
31497SOL     OW99047   6.063   2.012   3.967  0.2744  0.5810  0.5777
31497SOL    HW199048   5.987   2.019   3.909  1.4803  2.3752 -0.9188
31497SOL    HW299049   6.069   1.919   3.988 -0.6509 -0.0508 -1.6460
31498SOL     OW99050   9.908   2.270   4.053  0.5686 -0.8624  0.2255
31498SOL    HW199051   9.981   2.224   4.013  0.5912 -1.5332  1.0180
31498SOL    HW299052   9.946   2.352   4.086  0.7093 -0.6716 -0.3988
31499SOL     OW99053   3.726   7.097   8.222 -0.2806 -0.2448 -0.0339
31499SOL    HW199054   3.785   7.023   8.236 -0.4908 -0.8119 -1.9057
31499SOL    HW299055   3.783   7.170   8.200 -0.1414 -0.0700  0.8435
31500SOL     OW99056   2.880   4.692   2.948 -0.0716  0.1979  0.2807
31500SOL    HW199057   2.939   4.760   2.980  2.1372 -0.0935 -2.7762
31500SOL    HW299058   2.807   4.741   2.908  0.3367  0.6936  0.1342
31501SOL     OW99059   9.889   8.955  11.698 -0.1630  1.1068 -0.7275
31501SOL    HW199060   9.927   9.041  11.677 -0.9678  1.6225 -0.1442
31501SOL    HW299061   9.928   8.895  11.635  0.0668  1.9930 -1.4460
31502SOL     OW99062   7.409   5.192   9.650 -0.0719 -0.4634  0.4150
31502SOL    HW199063   7.483   5.158   9.600 -0.2263  1.0616 -0.9239
31502SOL    HW299064   7.446   5.264   9.701 -0.6495  0.4993 -0.4843
31503SOL     OW99065  10.723   5.164   1.312  0.1578  0.0368 -0.1866
31503SOL    HW199066  10.676   5.082   1.325 -0.0617  0.1264 -0.3968
31503SOL    HW299067  10.717   5.209   1.396  1.4483 -0.7482  0.3534
31504SOL     OW99068   3.104  11.634   4.549  0.5132  0.3340 -0.3445
31504SOL    HW199069   3.046  11.571   4.591  2.2167 -1.4828 -0.5439
31504SOL    HW299070   3.071  11.640   4.459 -0.0233  0.1957 -0.1610
31505SOL     OW99071   9.946   2.639  12.073 -0.1026 -0.3466 -0.2563
31505SOL    HW199072   9.869   2.615  12.124  0.7090 -0.7978  0.7891
31505SOL    HW299073   9.922   2.721  12.031 -0.8512 -0.0356  0.7424
31506SOL     OW99074   1.569   0.131   9.316 -0.4090 -0.2214 -0.6762
31506SOL    HW199075   1.583   0.207   9.373 -0.2092 -0.6253 -0.1810
31506SOL    HW299076   1.540   0.062   9.375  1.6954 -1.2330 -0.7188
31507SOL     OW99077   1.234   2.427  11.450 -0.6751  0.2165 -0.2779
31507SOL    HW199078   1.258   2.514  11.481  1.4631 -0.3508 -0.1764
31507SOL    HW299079   1.234   2.373  11.530  1.3649 -0.5188 -0.7034
31508SOL     OW99080   4.938   0.012   9.860 -0.1700  0.6674  0.0105
31508SOL    HW199081   4.844  -0.002   9.863 -0.3077  0.8289 -2.0771
31508SOL    HW299082   4.957   0.027   9.768  2.1739 -1.2693  0.0700
31509SOL     OW99083  11.465   5.270   5.089 -0.4663 -0.0663 -0.0728
31509SOL    HW199084  11.399   5.293   5.154  0.1396 -0.5083  0.7183
31509SOL    HW299085  11.416   5.254   5.009 -1.2899 -0.1636  0.4438
31510SOL     OW99086   8.259  11.971   2.059  0.3804  0.4810  1.0706
31510SOL    HW199087   8.272  12.030   2.133 -0.1170 -0.0472  1.5885
31510SOL    HW299088   8.164  11.964   2.050  0.3926  1.5519 -0.4545
31511SOL     OW99089   1.939   8.645   4.763 -0.3403  0.4252  0.3339
31511SOL    HW199090   1.891   8.628   4.844 -0.3314  0.0796  0.2679
31511SOL    HW299091   1.913   8.734   4.738 -0.2769  0.5662  0.7609
31512SOL     OW99092   2.788   0.626   7.378  0.5180  1.4675 -0.1346
31512SOL    HW199093   2.846   0.697   7.352 -1.7775  2.6776 -2.3518
31512SOL    HW299094   2.784   0.569   7.301 -1.5318  1.6697 -0.2221
31513SOL     OW99095   9.392   8.217   5.478 -0.3287  0.2441 -0.6057
31513SOL    HW199096   9.359   8.271   5.406  0.6871  1.0360 -0.5064
31513SOL    HW299097   9.401   8.277   5.552  0.2756 -0.1748 -0.3264
31514SOL     OW99098   9.179   0.304   4.400 -0.3502 -0.4697 -0.2923
31514SOL    HW199099   9.265   0.304   4.442 -0.7217 -0.5784  0.4799
31514SOL    HW299100   9.198   0.288   4.307  0.3451 -2.7593  0.1763
31515SOL     OW99101   8.434   3.891   5.467  0.2490 -0.3897  0.0983
31515SOL    HW199102   8.496   3.926   5.403 -0.8620 -1.2104 -1.4717
31515SOL    HW299103   8.475   3.810   5.497 -0.2464 -1.1964 -1.3120
31516SOL     OW99104   9.173   6.595   8.304 -0.5056 -0.1845 -0.0113
31516SOL    HW199105   9.129   6.510   8.296 -1.0852  0.1640 -0.6528
31516SOL    HW299106   9.111   6.649   8.353 -1.4172  0.6926 -1.9964
31517SOL     OW99107   3.651   9.881   5.218 -0.1597 -0.4974  0.3431
31517SOL    HW199108   3.650   9.973   5.194  3.7749 -0.1220  0.9452
31517SOL    HW299109   3.633   9.880   5.312  0.0378 -0.2940  0.3839
31518SOL     OW99110  11.973   4.398   1.303 -0.0332 -0.1963 -0.5906
31518SOL    HW199111  11.899   4.383   1.362  0.2187  0.5226 -0.0840
31518SOL    HW299112  11.932   4.408   1.216 -0.5207  0.0921 -0.3315
31519SOL     OW99113   0.836   4.142   8.359  0.4742  0.1472  0.1045
31519SOL    HW199114   0.751   4.153   8.316  0.6946  2.0975  0.0594
31519SOL    HW299115   0.865   4.054   8.334 -2.4974 -1.5314  1.9434
31520SOL     OW99116   0.072   0.368   6.356 -0.2413  0.1828  0.0054
31520SOL    HW199117   0.154   0.341   6.314  0.2816 -0.6617  1.4778
31520SOL    HW299118   0.023   0.287   6.367  0.1354  0.1672  1.9829
31521SOL     OW99119   3.597   7.603  11.943 -0.2454 -0.4785  0.0382
31521SOL    HW199120   3.667   7.594  11.878  0.0390  1.6816 -0.0264
31521SOL    HW299121   3.519   7.571  11.899  0.2239 -0.4173 -0.8584
31522SOL     OW99122   8.907   6.643   4.787  0.1136  0.9415 -0.3546
31522SOL    HW199123   8.968   6.580   4.826 -0.3756  0.3154 -0.5900
31522SOL    HW299124   8.951   6.728   4.798  2.1423  0.2896 -2.5951
31523SOL     OW99125   4.624   6.922   5.471  0.0478  0.1591  0.0964
31523SOL    HW199126   4.716   6.923   5.497 -0.1049 -1.5709  0.8772
31523SOL    HW299127   4.588   7.003   5.505  1.0104  0.2573  0.9254
31524SOL     OW99128   9.846  11.337   7.066  0.4952  0.8623  0.0835
31524SOL    HW199129   9.846  11.241   7.069  1.3838  0.8591  0.9916
31524SOL    HW299130   9.755  11.361   7.055  0.3225 -0.0984 -0.7273
31525SOL     OW99131   3.410   9.260   1.997 -0.5355  0.0979 -0.1136
31525SOL    HW199132   3.470   9.189   2.019 -1.3960 -0.3548  0.8682
31525SOL    HW299133   3.466   9.337   1.986  0.2561 -0.3990  0.3609
31526SOL     OW99134  10.110   5.388   8.497 -0.4245 -0.0181  0.3138
31526SOL    HW199135  10.083   5.366   8.586  0.1774  1.4513  0.8821
31526SOL    HW299136  10.076   5.316   8.444 -0.8138 -0.9149  1.7170
31527SOL     OW99137   2.293   0.045  10.321 -0.4311  0.5323 -0.4712
31527SOL    HW199138   2.250   0.131  10.319  0.3353  1.0797  2.2955
31527SOL    HW299139   2.229  -0.013  10.362  0.1503  0.5610  0.5223
31528SOL     OW99140   8.340   6.169   1.846 -0.2280  0.0192  0.0044
31528SOL    HW199141   8.424   6.153   1.890 -1.0051 -0.1609  1.4890
31528SOL    HW299142   8.364   6.195   1.757  1.3330 -2.8873 -0.5570
31529SOL     OW99143  12.031   8.175   4.336  0.2299  0.3917  0.3211
31529SOL    HW199144  12.117   8.206   4.364  0.3056  1.1207 -0.6588
31529SOL    HW299145  12.047   8.134   4.251 -0.7436  2.9321 -1.2021
31530SOL     OW99146  10.007   5.594   8.331 -0.3585 -0.0112 -0.0367
31530SOL    HW199147  10.038   5.526   8.392 -1.1281 -2.0772 -1.8120
31530SOL    HW299148  10.077   5.601   8.266 -0.6543  0.2759 -0.3214
31531SOL     OW99149  10.232   7.830   5.155  0.5688  0.1275 -0.0508
31531SOL    HW199150  10.240   7.773   5.079  0.7247  0.8341 -0.5724
31531SOL    HW299151  10.138   7.843   5.166  0.2940 -2.5604  1.8586
31532SOL     OW99152   3.069  10.021   4.605  0.1390  0.2121 -0.1184
31532SOL    HW199153   3.080  10.109   4.640 -0.9455  0.9267 -1.4681
31532SOL    HW299154   3.082   9.963   4.680 -0.5152  1.5777  1.0975
31533SOL     OW99155  10.554   9.697  11.419  0.2407 -0.0327 -0.3232
31533SOL    HW199156  10.593   9.641  11.352 -1.0629  0.2398 -1.3375
31533SOL    HW299157  10.554   9.785  11.380  1.7496  0.6176  1.0268
31534SOL     OW99158   9.038   5.682   1.246  0.2991  0.1926 -0.3338
31534SOL    HW199159   9.075   5.737   1.315 -0.7652  0.4299  0.0738
31534SOL    HW299160   9.103   5.684   1.176  0.8157  1.0037  0.1507
31535SOL     OW99161   0.369   9.323  11.521  0.2973  0.1954  0.1358
31535SOL    HW199162   0.325   9.269  11.456 -0.8886 -2.0561  2.6209
31535SOL    HW299163   0.380   9.408  11.478 -3.6611 -0.0523 -1.7857
31536SOL     OW99164   8.351   9.554   4.075  0.3635  0.4953  0.6064
31536SOL    HW199165   8.330   9.641   4.110 -0.2811  0.9437 -0.8341
31536SOL    HW299166   8.288   9.496   4.117  0.2615  0.8487  0.9592
31537SOL     OW99167   6.904   5.059  11.802  0.7820  0.6860  0.1254
31537SOL    HW199168   6.876   5.100  11.720 -0.4541  0.4798  0.4352
31537SOL    HW299169   6.950   5.129  11.849  1.9846  0.6622 -0.9458
31538SOL     OW99170   0.783   0.814   2.789  0.3859  0.2769  0.2020
31538SOL    HW199171   0.764   0.823   2.882 -0.4507 -3.1940  0.4927
31538SOL    HW299172   0.697   0.807   2.747  0.7101 -2.4408 -0.1879
31539SOL     OW99173   0.949   8.328   6.698  0.0519 -0.3739 -0.2000
31539SOL    HW199174   0.990   8.313   6.613 -0.6584  1.3503 -0.8828
31539SOL    HW299175   1.009   8.286   6.761  1.1634 -0.7084 -1.4410
31540SOL     OW99176   1.160   5.760   7.596  0.0011 -0.5479 -0.0064
31540SOL    HW199177   1.185   5.787   7.684  0.0077  1.3706 -0.5487
31540SOL    HW299178   1.232   5.704   7.566  0.4862 -0.3840  0.8319
31541SOL     OW99179   2.494  10.498   4.673  0.1298  0.2818  0.4500
31541SOL    HW199180   2.538  10.532   4.595 -1.7157  0.9637 -0.3414
31541SOL    HW299181   2.558  10.438   4.712  1.5670  0.8759 -0.8773
31542SOL     OW99182  10.679  11.086   3.335  0.4275 -0.5126 -0.5971
31542SOL    HW199183  10.751  11.146   3.317 -0.0947  0.1170 -0.6380
31542SOL    HW299184  10.640  11.118   3.416 -0.7575  0.0951 -1.3731
31543SOL     OW99185  11.402   7.412   1.213 -0.2354 -0.4352  0.0956
31543SOL    HW199186  11.411   7.506   1.226  1.4962 -0.5463 -0.0219
31543SOL    HW299187  11.444   7.395   1.129  0.7493 -1.4605  0.7486
31544SOL     OW99188  10.485   1.992   4.568 -0.2353 -0.1978  0.3727
31544SOL    HW199189  10.564   1.961   4.611 -0.1781 -0.8499 -0.1792
31544SOL    HW299190  10.502   1.981   4.475  0.4186  3.0507  0.0073
31545SOL     OW99191   1.995   9.895   7.865  0.3025 -0.5706  0.0958
31545SOL    HW199192   2.007   9.924   7.955 -0.8908 -1.7430  0.6679
31545SOL    HW299193   1.918   9.944   7.834  0.9249  0.1003 -0.4268
31546SOL     OW99194   2.700   7.509   9.037  0.3292 -0.1089 -0.0809
31546SOL    HW199195   2.693   7.552   9.122 -0.0368  2.0997 -1.1498
31546SOL    HW299196   2.758   7.435   9.053  0.3969  0.3222  2.0528
31547SOL     OW99197   4.248   2.547  10.053 -0.5509 -0.4059 -0.5069
31547SOL    HW199198   4.205   2.554  10.138 -0.1841 -0.9863 -0.2647
31547SOL    HW299199   4.259   2.453  10.040  0.2957 -0.2832 -0.7370
31548SOL     OW99200   1.507   0.943  10.159 -0.0665 -0.6335  0.3774
31548SOL    HW199201   1.445   0.998  10.206 -0.1066  0.0831 -0.4943
31548SOL    HW299202   1.538   0.880  10.224 -0.6452 -0.1031  1.1726
31549SOL     OW99203   7.197   9.665  11.007 -0.4455 -0.0064  0.4603
31549SOL    HW199204   7.161   9.673  11.096 -0.2353 -1.1317  0.6591
31549SOL    HW299205   7.195   9.571  10.989 -0.5900  0.2192 -0.7798
31550SOL     OW99206   5.630   5.625   3.639 -0.3217 -0.0312 -0.1792
31550SOL    HW199207   5.581   5.648   3.560 -0.7282 -1.0773 -0.2457
31550SOL    HW299208   5.642   5.530   3.634  1.5530  0.1589 -0.0636
31551SOL     OW99209   6.880   3.505   6.747 -0.4118 -0.0909 -0.1968
31551SOL    HW199210   6.964   3.459   6.753  0.3600  1.1938 -0.7447
31551SOL    HW299211   6.891   3.566   6.674 -2.3423 -0.9254 -1.2654
31552SOL     OW99212   1.682   8.412   8.949  0.1291  0.0914 -0.0160
31552SOL    HW199213   1.739   8.353   8.998 -1.7450 -2.6088 -0.8544
31552SOL    HW299214   1.718   8.413   8.861 -0.5670 -0.9361 -0.3331
31553SOL     OW99215   0.617   4.522   0.393 -0.2944  0.3761 -0.5762
31553SOL    HW199216   0.603   4.429   0.414  0.5905  0.1088 -1.1121
31553SOL    HW299217   0.669   4.521   0.313 -0.7047  1.3499 -0.8717
31554SOL     OW99218   7.737  10.002   9.639 -0.2621  0.4273  0.6141
31554SOL    HW199219   7.831  10.003   9.658 -0.2346  2.7978  0.6196
31554SOL    HW299220   7.695   9.997   9.726 -0.3150 -4.7148  0.5927
31555SOL     OW99221   0.836   4.944   3.169 -0.7520  0.9801 -0.2787
31555SOL    HW199222   0.792   4.925   3.252  0.6420  0.7953  0.4400
31555SOL    HW299223   0.928   4.923   3.185 -0.2562  2.0812 -1.5142
31556SOL     OW99224   2.453   9.856   8.169 -0.6536  0.0905  0.0395
31556SOL    HW199225   2.539   9.864   8.209 -0.0625 -0.1450 -1.1273
31556SOL    HW299226   2.429   9.764   8.182  1.1221 -0.9700 -3.0883
31557SOL     OW99227   1.209   7.899   7.037  0.1333 -0.0668 -0.5081
31557SOL    HW199228   1.177   7.964   6.974 -0.3906  0.1712 -0.0048
31557SOL    HW299229   1.282   7.857   6.993  0.5119  0.9021 -0.8257
31558SOL     OW99230   6.934   5.655   8.335 -0.1378  0.2859 -0.3398
31558SOL    HW199231   6.902   5.707   8.262 -0.6045  0.6200  0.0979
31558SOL    HW299232   6.918   5.709   8.412  1.9817  0.7009 -0.1319
31559SOL     OW99233   4.904   6.642   9.843 -0.3850 -0.5464 -0.1551
31559SOL    HW199234   4.927   6.566   9.895 -0.7146  0.7432  1.9901
31559SOL    HW299235   4.937   6.622   9.755  1.6246 -2.1581  0.8886
31560SOL     OW99236   4.553   6.485   6.337  0.2610 -0.0727  0.3600
31560SOL    HW199237   4.561   6.450   6.425  2.3105  0.4218  0.4358
31560SOL    HW299238   4.459   6.497   6.324 -0.0368  1.3706  3.0835
31561SOL     OW99239   1.512   3.701   8.698 -0.1508 -1.3926  0.1913
31561SOL    HW199240   1.562   3.781   8.711 -0.5994 -1.3418  1.8983
31561SOL    HW299241   1.566   3.648   8.639  1.2377 -0.7820  0.8623
31562SOL     OW99242   6.405   1.624  10.517 -0.1906 -0.1877 -0.2695
31562SOL    HW199243   6.416   1.719  10.523 -1.5367 -0.0493  0.4269
31562SOL    HW299244   6.321   1.612  10.472 -1.2366 -0.9709  1.7389
31563SOL     OW99245   3.427   3.719   4.144 -0.2109  0.1212  0.0135
31563SOL    HW199246   3.369   3.793   4.124 -2.4187 -1.2992  0.6984
31563SOL    HW299247   3.473   3.701   4.062 -1.6762  0.5798 -0.9547
31564SOL     OW99248   8.898   9.594  11.064  0.5433  0.5232 -0.0490
31564SOL    HW199249   8.828   9.647  11.104 -0.3649 -0.5383 -0.2007
31564SOL    HW299250   8.894   9.510  11.110 -0.0685 -0.4899 -1.8731
31565SOL     OW99251  11.845   3.376   3.626  0.2588 -0.1666 -0.1411
31565SOL    HW199252  11.812   3.466   3.628  0.1763 -0.1993  1.1919
31565SOL    HW299253  11.893   3.370   3.544  0.8113  1.2854  0.0408
31566SOL     OW99254   1.417   8.120  10.981 -0.2922  0.1724  0.2994
31566SOL    HW199255   1.442   8.052  11.044 -1.0191 -0.1808  0.2195
31566SOL    HW299256   1.496   8.172  10.969  0.2482 -0.5961  0.4421
31567SOL     OW99257   7.930   3.941   5.077  0.4437 -0.4673 -0.4380
31567SOL    HW199258   7.996   4.002   5.044 -0.1887 -0.1498 -1.1453
31567SOL    HW299259   7.861   3.942   5.011  0.2430 -1.6588 -0.2777
31568SOL     OW99260   7.871   9.685   8.365 -0.5030 -0.5980 -0.0865
31568SOL    HW199261   7.807   9.618   8.391 -0.1538 -1.2806 -0.9529
31568SOL    HW299262   7.824   9.739   8.301 -0.2198 -1.1086 -0.7343
31569SOL     OW99263   2.696   0.392   0.264  0.3712  0.0099  0.4455
31569SOL    HW199264   2.775   0.444   0.254  1.3531 -1.5759 -0.4757
31569SOL    HW299265   2.645   0.411   0.185  1.8947 -2.2137 -1.2104
31570SOL     OW99266   6.573   3.327   8.051 -0.0332  0.1530  0.2157
31570SOL    HW199267   6.494   3.338   7.998  0.3561 -0.0830 -0.4327
31570SOL    HW299268   6.580   3.232   8.063  0.2332  0.1627  0.1372
31571SOL     OW99269   1.443   1.806  11.058  0.2908 -0.5166  0.5275
31571SOL    HW199270   1.485   1.879  11.105 -0.4971  0.0351  0.3980
31571SOL    HW299271   1.350   1.819  11.073 -0.1888  0.8099 -2.7578
31572SOL     OW99272   3.809  10.608   8.059  0.1016  0.1604 -0.8299
31572SOL    HW199273   3.816  10.517   8.032  0.0800 -0.9434  2.4127
31572SOL    HW299274   3.730  10.640   8.016 -1.1958 -2.1008 -0.2923
31573SOL     OW99275   2.311   8.490   2.911  0.0284  0.1523 -0.2180
31573SOL    HW199276   2.339   8.549   2.841 -0.0197  0.7206  0.2276
31573SOL    HW299277   2.392   8.459   2.951  0.2038 -2.5265 -2.3584
31574SOL     OW99278  11.440   3.285   6.500  0.4192 -0.5343 -0.0962
31574SOL    HW199279  11.454   3.379   6.510  0.5940 -0.3902 -1.5407
31574SOL    HW299280  11.377   3.263   6.569 -0.4558  0.8455 -0.4227
31575SOL     OW99281   6.557   8.418   7.122 -0.4614  0.1267  0.0609
31575SOL    HW199282   6.465   8.425   7.147 -0.8483 -0.8196 -1.0236
31575SOL    HW299283   6.565   8.477   7.046 -0.4927 -0.7323 -0.6259
31576SOL     OW99284   3.272   9.045   8.057  0.4108 -0.3401  0.1347
31576SOL    HW199285   3.187   9.071   8.021 -0.0362  0.1942  1.5050
31576SOL    HW299286   3.253   8.966   8.108  1.4745 -2.5747 -2.6919
31577SOL     OW99287   8.735  10.415   9.410 -0.4066 -0.0836  0.0489
31577SOL    HW199288   8.810  10.358   9.431 -0.9517 -1.3715 -1.2498
31577SOL    HW299289   8.659  10.365   9.438 -0.8206  0.8631  0.6172
31578SOL     OW99290   2.399   8.854   1.859  0.0957  0.3450 -0.0057
31578SOL    HW199291   2.315   8.808   1.853  0.0910  0.1096  1.3606
31578SOL    HW299292   2.450   8.801   1.921  1.4880  0.1551 -1.2787
31579SOL     OW99293   8.560   2.214   9.531 -0.6972  0.0237  0.5361
31579SOL    HW199294   8.552   2.214   9.626  0.3790  0.1108  0.6341
31579SOL    HW299295   8.634   2.272   9.513 -0.9929  0.1389 -0.3696
31580SOL     OW99296   7.309   9.859   4.299  0.2275 -0.3102  0.0356
31580SOL    HW199297   7.383   9.886   4.244  0.6169 -1.3748  0.0156
31580SOL    HW299298   7.266   9.941   4.323  1.4069  0.3392  0.0279
31581SOL     OW99299   1.760   8.738  11.661 -0.0509  0.5542  0.1710
31581SOL    HW199300   1.669   8.761  11.683  0.0309  1.6858 -0.5843
31581SOL    HW299301   1.761   8.643  11.663 -1.6315  0.4566 -1.2090
31582SOL     OW99302   3.184   9.417  10.392  0.2920  0.4011  0.1137
31582SOL    HW199303   3.268   9.371  10.388  1.1122  1.7808  0.7431
31582SOL    HW299304   3.143   9.384  10.472  0.0684 -0.5275 -0.3712
31583SOL     OW99305   8.009   2.872  11.569 -0.5348 -0.6421 -0.7074
31583SOL    HW199306   7.954   2.946  11.543  1.0722  0.3628 -1.3503
31583SOL    HW299307   8.066   2.858  11.494  1.6528 -0.1626  0.7893
31584SOL     OW99308   2.847   3.681   8.693  0.3115 -0.4639 -0.2193
31584SOL    HW199309   2.772   3.633   8.657  0.1710  0.2279 -0.8707
31584SOL    HW299310   2.923   3.629   8.666  0.0414 -1.7553  1.3573
31585SOL     OW99311  11.254  12.026   8.694 -0.2976 -0.1667 -0.8078
31585SOL    HW199312  11.306  11.988   8.622 -0.8754  3.5499 -3.5308
31585SOL    HW299313  11.316  12.035   8.766  1.5502 -0.2510 -2.3087
31586SOL     OW99314   9.350   3.102   7.192  0.1058 -0.1293 -0.6367
31586SOL    HW199315   9.337   3.007   7.196  0.9509 -0.2201  1.2798
31586SOL    HW299316   9.269   3.139   7.225  0.5986 -0.3043  0.8529
31587SOL     OW99317   7.747   8.481   6.857  0.4712 -0.5026  0.3426
31587SOL    HW199318   7.685   8.429   6.908  0.8420 -1.1645  0.1232
31587SOL    HW299319   7.699   8.506   6.778 -0.6536  1.8699  1.6740
31588SOL     OW99320   0.530   8.080   2.892 -0.2613 -0.0616 -0.3557
31588SOL    HW199321   0.546   8.163   2.937 -1.0372 -0.7042  1.1556
31588SOL    HW299322   0.607   8.027   2.912  0.9095  0.7071 -2.4736
31589SOL     OW99323   4.714   8.248   0.735 -0.0285  0.0570 -0.2194
31589SOL    HW199324   4.765   8.305   0.678  1.1621  0.3056  1.0338
31589SOL    HW299325   4.726   8.160   0.700  1.2477  0.1176  0.0179
31590SOL     OW99326   7.437  12.098   2.953  0.3968  0.0824 -0.3025
31590SOL    HW199327   7.488  12.173   2.983  0.1445  0.2163 -0.1980
31590SOL    HW299328   7.377  12.135   2.888 -1.4683  0.4801  1.5291
31591SOL     OW99329   3.702   4.422   3.728 -0.3550 -0.2874  0.0294
31591SOL    HW199330   3.651   4.362   3.782 -0.5965 -0.7996 -0.7483
31591SOL    HW299331   3.747   4.479   3.791 -0.8314 -0.6947  0.7541
31592SOL     OW99332   0.663   3.833   2.916  0.2539  0.0507 -0.5056
31592SOL    HW199333   0.684   3.744   2.888  1.1846  0.0461  0.1688
31592SOL    HW299334   0.580   3.853   2.872 -1.2949 -2.0289  1.2417
31593SOL     OW99335  11.565   2.954   2.355 -0.7481 -0.3904  0.4767
31593SOL    HW199336  11.499   2.902   2.310 -0.3802  0.0148 -0.5530
31593SOL    HW299337  11.523   2.981   2.437 -1.5955 -0.7317  0.1618
31594SOL     OW99338   0.265   9.946   3.167  0.2388  0.0367 -0.1282
31594SOL    HW199339   0.208   9.987   3.232  0.6409  2.9174 -1.4364
31594SOL    HW299340   0.354   9.967   3.196  0.6078 -2.0922  0.4437
31595SOL     OW99341  11.820  11.309   2.475 -0.0322  0.9099 -0.1415
31595SOL    HW199342  11.805  11.257   2.555 -1.9183  2.6499  0.7126
31595SOL    HW299343  11.768  11.264   2.408 -0.2024  0.6662  0.1472
31596SOL     OW99344  11.263   0.527   0.740 -0.3307  0.4234 -0.5186
31596SOL    HW199345  11.207   0.581   0.796 -0.3100  1.1470 -1.1823
31596SOL    HW299346  11.352   0.554   0.763 -0.2452 -0.4450  0.2514
31597SOL     OW99347   6.697  10.779   3.092  0.2524  0.1675  0.1989
31597SOL    HW199348   6.636  10.852   3.095  0.6976  0.6213 -1.1325
31597SOL    HW299349   6.766  10.808   3.033 -0.1438 -1.7656 -1.3020
31598SOL     OW99350   2.428   0.068   3.355  0.3400  1.1289 -0.2905
31598SOL    HW199351   2.427   0.156   3.393 -0.1992  0.6059  0.9764
31598SOL    HW299352   2.354   0.023   3.397  0.7553  0.0004 -0.7267
31599SOL     OW99353   1.921   8.441   8.028  0.3082 -0.1585 -0.3661
31599SOL    HW199354   1.959   8.526   8.049  1.2329 -0.7468  0.4053
31599SOL    HW299355   1.918   8.439   7.932  0.0118  0.8426 -0.3875
31600SOL     OW99356   0.631   4.529  12.111  0.7796  0.1420 -0.3445
31600SOL    HW199357   0.660   4.491  12.027  0.9021 -0.7280  0.0839
31600SOL    HW299358   0.706   4.517  12.170  1.0239  1.5299 -0.3197
31601SOL     OW99359   5.569   1.544   4.273 -0.4606 -0.0883 -0.5888
31601SOL    HW199360   5.510   1.502   4.210  1.4441  0.3872 -2.8438
31601SOL    HW299361   5.622   1.603   4.219  2.3310 -0.7858  1.2296
31602SOL     OW99362   1.286   4.004   9.681 -0.2115 -0.9259 -0.0799
31602SOL    HW199363   1.271   3.919   9.721  1.0767 -0.8900  0.5293
31602SOL    HW299364   1.379   4.022   9.698 -0.4915  0.6407 -0.1206
31603SOL     OW99365   2.168   4.104   5.244 -0.4427 -0.4962 -0.0235
31603SOL    HW199366   2.201   4.042   5.179 -0.0346 -0.2430 -0.0645
31603SOL    HW299367   2.078   4.076   5.261 -0.3972 -0.8467 -0.3470
31604SOL     OW99368   8.622   1.296   5.910 -0.2923  0.4545  0.9595
31604SOL    HW199369   8.653   1.377   5.949  1.3962  0.1843  0.2574
31604SOL    HW299370   8.538   1.280   5.952  0.0559  1.7554  2.2261
31605SOL     OW99371   8.914   7.796   9.019  0.3508 -0.2896  0.4334
31605SOL    HW199372   8.863   7.877   9.023  0.3937 -0.1264 -1.2879
31605SOL    HW299373   9.000   7.823   8.986  1.1186 -0.7536  1.9844
31606SOL     OW99374   7.019   7.643   4.514 -0.7427  0.2315  0.6773
31606SOL    HW199375   6.964   7.567   4.497 -1.1002  0.7151 -0.3935
31606SOL    HW299376   7.018   7.652   4.610 -1.7676 -0.3171  0.7323
31607SOL     OW99377   4.714   9.627   0.508  0.5601  0.6864  0.0979
31607SOL    HW199378   4.766   9.662   0.435  0.5145  0.4675 -0.0416
31607SOL    HW299379   4.624   9.651   0.487  0.6974  1.9342  0.8376
31608SOL     OW99380   0.586  11.944   6.922  0.0878 -0.2721 -0.3201
31608SOL    HW199381   0.676  11.925   6.896  0.3871  0.7158 -0.0712
31608SOL    HW299382   0.595  11.984   7.009 -0.7288 -1.6599  0.4281
31609SOL     OW99383   6.460  11.202   9.790 -0.2253 -0.2470  0.1570
31609SOL    HW199384   6.429  11.183   9.701 -1.2139  0.8959  0.2309
31609SOL    HW299385   6.553  11.178   9.788  0.4215  2.0251 -1.9477
31610SOL     OW99386  11.673   3.462   0.689  0.2477  0.2777 -0.1385
31610SOL    HW199387  11.723   3.388   0.654  0.6331 -0.1707  1.3062
31610SOL    HW299388  11.599   3.423   0.734  1.4919  0.5854  2.3377
31611SOL     OW99389   9.583   8.892   2.025 -0.1050  0.7419 -0.8963
31611SOL    HW199390   9.639   8.830   2.072 -1.3025  0.8568  0.7739
31611SOL    HW299391   9.644   8.959   1.993  0.8214  0.4181  0.1169
31612SOL     OW99392  11.586   1.768   6.780 -0.2437 -0.3976  0.1227
31612SOL    HW199393  11.667   1.798   6.823  0.3143  0.0582 -1.1737
31612SOL    HW299394  11.603   1.677   6.758 -0.7175 -0.7742  1.2742
31613SOL     OW99395   8.178   7.137   9.546  0.0041  0.1972 -0.5995
31613SOL    HW199396   8.180   7.100   9.634 -0.3474  1.3505 -0.0931
31613SOL    HW299397   8.240   7.084   9.496 -1.0174 -1.5552 -0.1092
31614SOL     OW99398   6.370   9.939   2.031  0.4113  0.4481  0.0107
31614SOL    HW199399   6.370   9.965   1.939  1.3824 -5.1084 -1.9711
31614SOL    HW299400   6.277   9.935   2.054  0.1186  1.3613 -0.9195
31615SOL     OW99401   9.929   3.690  11.345  0.1527 -0.2335 -0.5087
31615SOL    HW199402   9.977   3.693  11.428 -1.2499  0.2818  0.3155
31615SOL    HW299403   9.915   3.597  11.329 -0.2870 -0.3090  0.2739
31616SOL     OW99404   6.796   1.620  10.755 -0.1651 -0.1416 -0.2870
31616SOL    HW199405   6.820   1.603  10.846  3.2860  1.5388 -0.7372
31616SOL    HW299406   6.715   1.671  10.761 -0.4007 -0.6610  1.7490
31617SOL     OW99407   3.833   4.067   9.595 -0.5220  0.3923  0.0334
31617SOL    HW199408   3.800   4.152   9.567  0.0346  0.1063 -1.5866
31617SOL    HW299409   3.785   4.004   9.541 -0.8754 -0.3289  1.1671
31618SOL     OW99410  11.907   1.273   5.606  0.1838  0.8733  0.2623
31618SOL    HW199411  11.943   1.254   5.692  0.8289  0.6082 -0.0604
31618SOL    HW299412  11.876   1.363   5.612 -1.0307  0.4291  1.1861
31619SOL     OW99413   5.228   8.081   3.170 -0.1324 -0.0883  0.8679
31619SOL    HW199414   5.305   8.038   3.208 -0.3030  0.4528  1.8388
31619SOL    HW299415   5.198   8.020   3.103  0.3852 -0.9030  1.3591
31620SOL     OW99416  10.922   8.022   8.424  0.0669  0.2932 -0.2661
31620SOL    HW199417  10.967   7.971   8.492  0.4965  1.4632  0.3505
31620SOL    HW299418  10.946   7.978   8.342  2.5483  0.9907  0.0148
31621SOL     OW99419   5.977   3.412   0.561 -0.7276 -0.4196  0.2163
31621SOL    HW199420   5.886   3.440   0.575 -0.4158  0.9335 -0.3376
31621SOL    HW299421   5.981   3.394   0.467 -0.6375 -1.3222  0.3888
31622SOL     OW99422   7.654   6.352   7.989  0.3357  0.2451  0.8498
31622SOL    HW199423   7.616   6.272   7.952 -0.7225  0.6370  1.0444
31622SOL    HW299424   7.633   6.420   7.925  0.3759  0.5372  1.1454
31623SOL     OW99425   5.776   1.674   6.718 -0.3153 -0.4133 -0.6672
31623SOL    HW199426   5.777   1.721   6.635  0.2433 -0.0238 -0.4405
31623SOL    HW299427   5.866   1.680   6.751 -0.6016 -0.2846  0.1176
31624SOL     OW99428   9.182   7.741   5.660 -0.2581 -0.4302 -0.0316
31624SOL    HW199429   9.248   7.810   5.667 -2.0726  1.2858  1.8417
31624SOL    HW299430   9.231   7.659   5.667  1.7417  0.7297  0.2053
31625SOL     OW99431   0.457   6.642   2.921  0.1881 -0.0931 -0.2547
31625SOL    HW199432   0.404   6.651   3.001 -0.2206  0.8268 -0.6152
31625SOL    HW299433   0.393   6.622   2.853  0.5082 -0.6328 -0.3992
31626SOL     OW99434  10.727  10.922   6.493 -0.2578  0.2706 -0.0555
31626SOL    HW199435  10.667  10.950   6.563 -0.8952  1.3224 -0.9887
31626SOL    HW299436  10.718  10.827   6.491  0.4925  0.1073  1.9081
31627SOL     OW99437   7.780  11.483  10.351  0.2968  0.0518  0.1041
31627SOL    HW199438   7.726  11.562  10.355 -0.7128 -0.6569  1.3030
31627SOL    HW299439   7.849  11.504  10.288 -0.6287  1.4519 -0.4870
31628SOL     OW99440   2.941  10.836   7.261  0.6509 -0.4697 -0.4577
31628SOL    HW199441   2.991  10.893   7.319 -0.4939  0.9544 -0.7965
31628SOL    HW299442   2.883  10.787   7.320 -0.4180  0.8773 -0.3429
31629SOL     OW99443   2.627   3.388  11.797  0.0654 -0.2085  0.7755
31629SOL    HW199444   2.620   3.449  11.870  0.8465  0.8575 -0.0194
31629SOL    HW299445   2.713   3.406  11.759 -1.2022  0.8788 -1.7950
31630SOL     OW99446   2.244   0.390   6.421 -0.8519  0.5071  0.3102
31630SOL    HW199447   2.183   0.345   6.362 -2.5196  2.8247  0.1438
31630SOL    HW299448   2.271   0.322   6.483  1.1591 -2.1305 -3.0629
31631SOL     OW99449   4.675  10.838   1.636 -0.0383 -0.1127  0.0472
31631SOL    HW199450   4.714  10.767   1.688  1.3208  0.1686 -0.5395
31631SOL    HW299451   4.591  10.855   1.678  0.0205 -1.4417  0.7604
31632SOL     OW99452   3.740   9.164   3.096 -0.0943  0.4258  0.0998
31632SOL    HW199453   3.774   9.252   3.111  0.1861  0.3991 -0.3383
31632SOL    HW299454   3.706   9.136   3.181  0.2826  0.7561  0.3645
31633SOL     OW99455   8.170   6.497   2.870  0.3505 -0.3755 -0.0760
31633SOL    HW199456   8.111   6.568   2.846  0.0170 -0.7223 -0.2813
31633SOL    HW299457   8.251   6.541   2.896 -0.4408  0.1954  1.5724
31634SOL     OW99458   6.963   2.750   9.598 -0.1326 -0.1440 -0.0432
31634SOL    HW199459   6.915   2.679   9.555 -0.8921  0.8155 -0.8562
31634SOL    HW299460   6.906   2.777   9.670 -1.3517  1.5936 -1.5459
31635SOL     OW99461   5.908  11.894   7.893 -0.3503  0.1778 -0.3758
31635SOL    HW199462   5.923  11.840   7.815 -1.0048  0.6546 -0.8482
31635SOL    HW299463   5.852  11.965   7.862 -1.9137 -0.4519  0.8537
31636SOL     OW99464   9.519   0.054   7.641 -0.1968 -0.0412 -0.3756
31636SOL    HW199465   9.424   0.037   7.646 -0.5293  1.4685 -1.0099
31636SOL    HW299466   9.551   0.031   7.728 -1.1894 -0.3836 -0.0803
31637SOL     OW99467  10.627  10.377   6.062  0.0125 -0.6159  0.0954
31637SOL    HW199468  10.603  10.468   6.082 -0.6777 -0.9650  0.8900
31637SOL    HW299469  10.714  10.384   6.022 -0.2454  0.4374 -0.3285
31638SOL     OW99470   4.485   6.400   2.541  0.0088  0.3154  0.3518
31638SOL    HW199471   4.398   6.388   2.579  0.8735 -3.5370  1.5962
31638SOL    HW299472   4.471   6.395   2.446 -1.2159  1.1206  0.4624
31639SOL     OW99473   7.967   9.036   3.290 -0.9123 -0.2136 -0.3464
31639SOL    HW199474   8.015   9.102   3.340  1.4153 -0.7001 -1.7887
31639SOL    HW299475   7.898   9.084   3.246  0.4537  1.2407 -1.0040
31640SOL     OW99476  10.459   0.749   4.703 -0.2019  0.4500  0.1767
31640SOL    HW199477  10.429   0.692   4.774  0.0956 -0.2567 -0.2597
31640SOL    HW299478  10.552   0.762   4.720 -0.1077  0.1938 -0.1454
31641SOL     OW99479   8.604  11.886   7.583  0.1547 -0.1332  0.2756
31641SOL    HW199480   8.526  11.907   7.532  0.8058  0.4301 -0.5148
31641SOL    HW299481   8.655  11.967   7.584 -0.1151  0.0698  2.3647
31642SOL     OW99482   8.789   7.880  10.500 -0.2677 -0.1876 -0.6031
31642SOL    HW199483   8.743   7.796  10.492 -0.0222 -0.5743  1.5315
31642SOL    HW299484   8.879   7.856  10.520  0.2869  0.6053 -1.9982
31643SOL     OW99485   1.096   2.040   9.866 -0.0720 -0.6189  0.2452
31643SOL    HW199486   1.090   2.050   9.961  1.1582 -0.6424  0.3410
31643SOL    HW299487   1.005   2.038   9.837 -0.4696 -0.4711  1.4044
31644SOL     OW99488  10.830  11.512   3.384  0.5694 -0.0606 -0.1700
31644SOL    HW199489  10.868  11.589   3.343 -1.1049  0.5156 -0.6887
31644SOL    HW299490  10.797  11.543   3.468 -0.5911 -0.0525 -0.6070
31645SOL     OW99491   8.237   6.381   1.196 -0.0331 -1.2343 -0.0790
31645SOL    HW199492   8.238   6.463   1.245 -1.6662 -1.5753  0.6055
31645SOL    HW299493   8.146   6.372   1.167  0.8228 -1.1701 -3.0203
31646SOL     OW99494   1.358   2.803  11.229 -0.2409  0.5492  0.1224
31646SOL    HW199495   1.343   2.897  11.221  4.2557  1.4849  0.2977
31646SOL    HW299496   1.355   2.787  11.323  2.1031  1.2899  0.3819
31647SOL     OW99497  10.749   0.063   4.793 -0.1517  0.4634  0.9274
31647SOL    HW199498  10.798   0.056   4.875 -0.7120  0.7500  1.2894
31647SOL    HW299499  10.725   0.155   4.788 -0.2960  0.4038  0.5439
31648SOL     OW99500   3.476   2.049  10.137 -0.0839 -0.1479  0.5944
31648SOL    HW199501   3.411   1.989  10.100  0.5737  0.7195 -2.2668
31648SOL    HW299502   3.426   2.107  10.194 -1.3395 -1.1204  0.5303
31649SOL     OW99503   7.722   8.629   5.870  0.4701  0.1372 -0.4329
31649SOL    HW199504   7.805   8.665   5.901  1.8835 -1.1842 -2.4438
31649SOL    HW299505   7.678   8.703   5.828 -0.5421  1.4335  2.6520
31650SOL     OW99506  10.719   1.125   6.522  0.1758 -0.2830 -0.2840
31650SOL    HW199507  10.744   1.038   6.555  1.5418 -0.2507 -1.1221
31650SOL    HW299508  10.739   1.185   6.594  1.0795 -0.4541 -0.3810
31651SOL     OW99509   1.191  11.681   1.018  0.0207  0.4715  0.1708
31651SOL    HW199510   1.177  11.684   1.113  0.7942  1.4099  0.2651
31651SOL    HW299511   1.277  11.638   1.009 -0.4112 -0.3424 -0.1512
31652SOL     OW99512  11.813   6.505   4.464 -0.6500 -0.3066 -0.3815
31652SOL    HW199513  11.780   6.522   4.376  0.0376  1.0400 -0.4062
31652SOL    HW299514  11.905   6.483   4.451 -0.5991 -0.3101 -0.0167
31653SOL     OW99515   0.463   7.568  10.233  0.1769 -0.4102 -0.1691
31653SOL    HW199516   0.543   7.621  10.237 -0.0293  0.2652 -3.0199
31653SOL    HW299517   0.495   7.477  10.239  1.4838 -0.2551 -2.9749
31654SOL     OW99518   6.916   6.447  10.876  0.0944  0.3524 -0.4145
31654SOL    HW199519   6.978   6.395  10.927 -1.2789 -1.3673 -0.3797
31654SOL    HW299520   6.914   6.531  10.921  1.4276  0.0192  0.3425
31655SOL     OW99521  11.559   0.098   9.408  0.1664 -0.8821 -0.6237
31655SOL    HW199522  11.564   0.193   9.396 -0.8130 -0.6983  0.2645
31655SOL    HW299523  11.619   0.062   9.343  0.6045  0.3498 -0.9221
31656SOL     OW99524  10.674   2.695  10.039 -0.7444  0.3384 -0.4198
31656SOL    HW199525  10.758   2.685  10.084 -0.8535  0.2892 -0.2240
31656SOL    HW299526  10.687   2.768   9.979  0.1719 -1.1818 -2.1512
31657SOL     OW99527   4.999   2.361   1.813 -0.4712 -0.1664  0.1724
31657SOL    HW199528   5.094   2.366   1.827 -0.0180  0.6527 -2.6537
31657SOL    HW299529   4.965   2.443   1.849  0.2427  0.5957 -0.8340
31658SOL     OW99530   9.071   4.359  12.006  0.5656  0.0966  0.6014
31658SOL    HW199531   9.049   4.305  11.930 -1.7533  0.9305  0.5976
31658SOL    HW299532   9.105   4.296  12.070  1.6959 -0.7506 -0.7615
31659SOL     OW99533   3.048   7.630   1.644  0.2957  0.4586 -0.1425
31659SOL    HW199534   3.084   7.558   1.592 -0.1127  0.4236 -0.3766
31659SOL    HW299535   2.954   7.615   1.644  0.1775  1.1542 -0.4320
31660SOL     OW99536   2.918   0.237  10.946 -0.2597  0.2050  0.5082
31660SOL    HW199537   2.890   0.238  10.854 -0.3590 -0.8293  0.5213
31660SOL    HW299538   2.957   0.151  10.958  1.5091  1.0238  0.9284
31661SOL     OW99539   4.223   3.712   9.017 -0.1367  0.3792 -0.8458
31661SOL    HW199540   4.200   3.699   8.925 -1.5627  0.7238 -0.5496
31661SOL    HW299541   4.173   3.646   9.064  0.7145  0.0961 -0.3168
31662SOL     OW99542  10.116   2.510   0.765  0.7406 -0.3436  0.3869
31662SOL    HW199543  10.056   2.541   0.833 -1.6292  0.6329 -1.9923
31662SOL    HW299544  10.200   2.497   0.811 -0.7066  0.2508  3.4363
31663SOL     OW99545   7.703  10.411   2.750 -0.2777 -0.1397 -0.4960
31663SOL    HW199546   7.660  10.496   2.737 -0.7262 -0.1390  0.8622
31663SOL    HW299547   7.788  10.433   2.788 -0.5520 -0.3199  0.2210
31664SOL     OW99548  12.009   3.020   9.066 -0.1442 -0.2911 -0.0719
31664SOL    HW199549  11.928   2.970   9.055 -1.8835  2.5799 -1.4481
31664SOL    HW299550  11.991   3.078   9.139 -0.1682  1.7275 -1.5961
31665SOL     OW99551  11.504   4.729   9.403 -0.3992  0.5311  0.5011
31665SOL    HW199552  11.551   4.736   9.486 -0.0550 -1.9903  0.5921
31665SOL    HW299553  11.419   4.693   9.425  0.2676 -1.7490 -0.2951
31666SOL     OW99554  10.263   9.553   8.925  0.1739  0.1437  0.1940
31666SOL    HW199555  10.254   9.493   8.851  3.4826  0.3376 -0.5354
31666SOL    HW299556  10.281   9.496   9.000 -0.0982  0.0637  0.1965
31667SOL     OW99557   1.088   3.207   9.643 -0.4385 -0.5927  0.4485
31667SOL    HW199558   1.148   3.133   9.647  0.5674  0.2511  1.5439
31667SOL    HW299559   1.071   3.218   9.549  0.6923 -1.1804  0.1527
31668SOL     OW99560   3.889  11.170   0.517 -0.1473 -0.0354  0.1947
31668SOL    HW199561   3.847  11.119   0.586 -0.3412 -0.6184 -0.3426
31668SOL    HW299562   3.929  11.105   0.460  0.3551  0.4581 -0.0283
31669SOL     OW99563  11.817   6.025   9.290  0.6099 -0.3815  0.1999
31669SOL    HW199564  11.887   5.984   9.240 -0.0883 -1.1768 -0.1532
31669SOL    HW299565  11.833   6.000   9.381  0.9053 -0.3679  0.1521
31670SOL     OW99566   0.058   7.276  11.596 -0.4907  0.1673  0.5984
31670SOL    HW199567   0.136   7.298  11.646  1.1614 -1.5027 -1.0826
31670SOL    HW299568  -0.007   7.253  11.662  1.0214 -0.2163  2.0143
31671SOL     OW99569  12.063   6.584   6.057  0.3840  0.2438 -0.3323
31671SOL    HW199570  12.146   6.632   6.055  0.3929  0.2588 -2.4128
31671SOL    HW299571  12.083   6.500   6.016 -0.3676 -0.2507  0.2761
31672SOL     OW99572   0.389   2.711   8.460  0.2981  0.4999  0.4993
31672SOL    HW199573   0.467   2.757   8.492  2.2568 -0.9148 -1.8984
31672SOL    HW299574   0.401   2.620   8.487 -0.0060  0.0704 -0.7660
31673SOL     OW99575   9.292   0.166   6.442  0.0095 -0.3497 -0.2322
31673SOL    HW199576   9.265   0.075   6.453  0.0612 -0.5249 -1.4629
31673SOL    HW299577   9.226   0.217   6.490 -0.0558 -1.0122  0.4011
31674SOL     OW99578   2.754   1.118   7.988 -0.3629 -0.5329 -0.0910
31674SOL    HW199579   2.756   1.096   8.081  0.1781 -4.4611 -0.8297
31674SOL    HW299580   2.661   1.131   7.969 -0.7041 -1.5719  0.7119
31675SOL     OW99581   0.227   1.543   9.138 -1.0913 -0.2906  0.0200
31675SOL    HW199582   0.143   1.586   9.155 -2.4257 -2.3041 -1.1771
31675SOL    HW299583   0.215   1.453   9.166  1.3075 -0.2488  1.4792
31676SOL     OW99584   8.073  10.234  11.052 -0.1415  0.0050 -0.7375
31676SOL    HW199585   8.006  10.178  11.014 -0.0245 -0.9801  0.4316
31676SOL    HW299586   8.042  10.323  11.035 -3.1838 -0.3289  1.9538
31677SOL     OW99587   9.667   9.497   9.926 -0.0185  0.3628 -0.1108
31677SOL    HW199588   9.594   9.516   9.867  1.3268  1.0562 -1.5979
31677SOL    HW299589   9.727   9.444   9.875  0.4430 -0.4132  1.1805
31678SOL     OW99590   6.644   1.515   3.130 -0.4882 -0.1707 -0.7352
31678SOL    HW199591   6.651   1.603   3.167  0.9431 -0.5047 -0.1465
31678SOL    HW299592   6.623   1.529   3.038 -0.9091  0.7634 -0.5031
31679SOL     OW99593   5.175   6.571   8.451  0.8859 -0.5442  0.0326
31679SOL    HW199594   5.236   6.642   8.431  0.6890 -0.7778 -1.5416
31679SOL    HW299595   5.090   6.615   8.458  0.6067 -0.6830 -1.8837
31680SOL     OW99596   4.080   5.482   4.362  0.4738  0.1947  0.1465
31680SOL    HW199597   4.158   5.431   4.338  1.0178  0.8091  0.5541
31680SOL    HW299598   4.048   5.517   4.279  0.4199 -0.3527 -0.0682
31681SOL     OW99599   1.228   3.064  11.258 -0.4915  0.1941  0.2872
31681SOL    HW199600   1.168   3.056  11.332  0.4326  1.1155  1.1805
31681SOL    HW299601   1.241   3.159  11.247  1.9408  0.0436  1.1475
31682SOL     OW99602   5.147   3.942   9.296 -0.3390  0.1904  0.4572
31682SOL    HW199603   5.159   3.973   9.206 -2.8686 -2.9280 -1.1706
31682SOL    HW299604   5.063   3.980   9.323 -0.6039 -0.4892  0.6312
31683SOL     OW99605   8.080   3.182   0.807 -0.1601 -0.2127 -0.4892
31683SOL    HW199606   8.020   3.109   0.796 -0.5120 -0.0378  0.2520
31683SOL    HW299607   8.152   3.163   0.746 -0.8190 -0.5594 -1.1733
31684SOL     OW99608   3.028   9.419   5.952 -0.3724  0.4701 -0.2285
31684SOL    HW199609   3.074   9.336   5.937  1.0134  1.2265 -0.2844
31684SOL    HW299610   2.983   9.407   6.035 -1.2573 -0.7855 -0.8494
31685SOL     OW99611   2.208   3.090  10.197 -0.1948  0.1243 -0.0790
31685SOL    HW199612   2.238   3.106  10.107 -0.0144 -0.2598 -0.0894
31685SOL    HW299613   2.285   3.054  10.241 -0.2324  0.4805  0.2783
31686SOL     OW99614   5.592   5.081   8.958  0.4099 -0.1021 -0.1096
31686SOL    HW199615   5.648   5.044   8.889  0.6830 -0.8382  0.4856
31686SOL    HW299616   5.603   5.176   8.949  1.8036 -0.2276  0.0130
31687SOL     OW99617   3.776   5.437   4.666  0.1827  0.3214 -0.3671
31687SOL    HW199618   3.747   5.405   4.581  1.0970 -2.0435  0.1326
31687SOL    HW299619   3.827   5.516   4.647 -1.2780  0.9539 -1.7898
31688SOL     OW99620   6.558   6.202   9.317  0.4614 -0.1642  0.3840
31688SOL    HW199621   6.485   6.257   9.343  0.3050 -0.9095  1.6010
31688SOL    HW299622   6.607   6.254   9.253 -1.3057  0.2202 -0.7115
31689SOL     OW99623  11.538   8.346   4.960 -0.5267  0.0451  0.6133
31689SOL    HW199624  11.577   8.259   4.972  1.5591  0.7605 -0.3685
31689SOL    HW299625  11.471   8.334   4.892  1.2302 -0.4896 -1.1258
31690SOL     OW99626   2.991   1.303   7.283 -0.0540  0.1234 -0.3798
31690SOL    HW199627   2.999   1.322   7.377  0.1272  1.2691 -0.6104
31690SOL    HW299628   2.896   1.304   7.267 -0.0698  0.3616 -0.2843
31691SOL     OW99629   9.836   1.312   6.170 -0.3788  0.1880 -0.3292
31691SOL    HW199630   9.811   1.220   6.154 -1.0953 -0.0032  1.6588
31691SOL    HW299631   9.756   1.353   6.201  0.5170  0.8526  1.2179
31692SOL     OW99632   5.974   0.763  10.794  0.0921 -0.0212  0.4112
31692SOL    HW199633   6.037   0.835  10.783 -1.3973  1.1053 -1.4396
31692SOL    HW299634   5.986   0.709  10.716 -0.6923 -0.1969  0.4020
31693SOL     OW99635  10.151   0.457  11.483 -0.1745 -0.0990 -0.4324
31693SOL    HW199636  10.223   0.399  11.507 -1.0052 -1.0065 -0.0917
31693SOL    HW299637  10.193   0.542  11.469  0.8895 -0.4908  0.2548
31694SOL     OW99638  10.709  11.624   9.753 -0.6320 -0.3637  0.0213
31694SOL    HW199639  10.710  11.716   9.780 -1.5597 -0.8463  1.8498
31694SOL    HW299640  10.670  11.626   9.666 -0.0983  1.0215 -0.2145
31695SOL     OW99641   8.734   3.878   2.050  0.0703 -0.2129 -0.3426
31695SOL    HW199642   8.797   3.860   1.981  1.5249  0.8527  0.6353
31695SOL    HW299643   8.723   3.794   2.096  0.8307 -0.4022 -0.4990
31696SOL     OW99644   8.952   9.925  10.853 -0.0398  0.5468  0.4642
31696SOL    HW199645   8.913   9.969  10.928 -0.5948  0.6322  0.1308
31696SOL    HW299646   8.885   9.863  10.825 -0.4865  1.6470 -0.9584
31697SOL     OW99647  11.503   2.190   9.185 -0.1197 -0.2006  0.0169
31697SOL    HW199648  11.527   2.122   9.122  2.3351 -0.9367  1.5918
31697SOL    HW299649  11.468   2.143   9.260  2.5368  0.0362  1.5397
31698SOL     OW99650   1.374   3.557   7.547 -0.0864 -0.0387  0.4563
31698SOL    HW199651   1.469   3.544   7.557  0.2148 -0.4283 -2.1945
31698SOL    HW299652   1.355   3.526   7.459 -2.8483 -0.6143  1.1622
31699SOL     OW99653   7.956   9.286   8.545 -0.0651  0.3447  0.0577
31699SOL    HW199654   7.950   9.381   8.557  1.1506  0.4659 -0.1546
31699SOL    HW299655   8.042   9.273   8.506  0.3492 -0.9705  1.3441
31700SOL     OW99656   0.976   7.292   4.453  0.3682  0.2909 -0.9013
31700SOL    HW199657   1.039   7.219   4.449  0.1481  0.0809 -0.5386
31700SOL    HW299658   0.971   7.323   4.363  0.8189  0.1570 -0.9762
31701SOL     OW99659   5.111   7.380   7.035  0.3266  0.1168  0.1415
31701SOL    HW199660   5.089   7.456   6.981  0.7777  0.7986  0.8840
31701SOL    HW299661   5.058   7.309   7.000 -1.1316  1.0995  0.2771
31702SOL     OW99662   2.541  10.419   2.045 -0.0749 -0.6620  0.1203
31702SOL    HW199663   2.578  10.362   2.114  0.3227 -0.0204  0.4479
31702SOL    HW299664   2.539  10.363   1.967  0.9613 -0.9310  0.2630
31703SOL     OW99665   4.585   3.247   0.969 -0.7677 -0.6105  0.6968
31703SOL    HW199666   4.548   3.279   1.051 -1.7895  0.6259 -0.1930
31703SOL    HW299667   4.511   3.209   0.922 -0.3081 -0.8082  0.1149
31704SOL     OW99668   5.771   8.968   2.920  0.0875 -0.1887 -0.5049
31704SOL    HW199669   5.858   8.969   2.880 -0.5644 -0.8931 -1.9989
31704SOL    HW299670   5.788   8.947   3.012  1.5394  0.3261 -0.6271
31705SOL     OW99671   5.708   1.342   1.138 -0.5601 -0.0530  0.1165
31705SOL    HW199672   5.753   1.424   1.160  0.9416 -1.0845  1.0773
31705SOL    HW299673   5.778   1.278   1.130 -1.7429 -1.3478 -0.1833
31706SOL     OW99674   7.808   1.463   9.080 -0.7747  0.1397  0.3201
31706SOL    HW199675   7.750   1.408   9.133 -0.8387 -0.5834 -0.4623
31706SOL    HW299676   7.804   1.422   8.993 -0.1495  0.8950 -0.0634
31707SOL     OW99677   2.457   2.589  11.310 -0.0118 -0.5781 -0.0186
31707SOL    HW199678   2.400   2.548  11.376  0.0653 -1.8261 -0.7047
31707SOL    HW299679   2.482   2.517  11.253 -0.8415  0.6307 -1.9910
31708SOL     OW99680  10.003  11.501  10.390  0.2795  0.2290  0.2445
31708SOL    HW199681  10.005  11.581  10.443 -2.0882  0.8025 -0.4561
31708SOL    HW299682  10.012  11.431  10.454 -0.9216  0.9542  1.2507
31709SOL     OW99683   1.964   4.114   1.882  0.4397  0.2315  0.1724
31709SOL    HW199684   1.991   4.099   1.791 -0.6313 -1.1860  0.0493
31709SOL    HW299685   1.972   4.029   1.924  1.0970  0.9154  1.4837
31710SOL     OW99686  11.819  11.785   3.219  0.1221  0.1845  0.0361
31710SOL    HW199687  11.751  11.737   3.173 -0.1301  0.2727  0.3203
31710SOL    HW299688  11.899  11.768   3.168 -0.4338  1.5922 -1.3814
31711SOL     OW99689   0.763   4.314   9.264  0.1213 -0.1568  0.1103
31711SOL    HW199690   0.798   4.397   9.295 -0.4401 -0.2104  0.9168
31711SOL    HW299691   0.711   4.281   9.337  0.3151 -1.2060 -0.2111
31712SOL     OW99692   5.844   9.358  11.914 -0.4170 -0.3743  0.2612
31712SOL    HW199693   5.907   9.425  11.941 -2.1864  1.8263 -0.6517
31712SOL    HW299694   5.897   9.292  11.868  1.1579  2.0820 -1.7579
31713SOL     OW99695   6.408   5.712   9.695 -0.8085  0.1185  0.2194
31713SOL    HW199696   6.473   5.673   9.753 -0.0435 -1.6030 -1.6464
31713SOL    HW299697   6.448   5.795   9.667 -1.0426  0.8057  1.8057
31714SOL     OW99698   9.739   4.925   4.202  0.6114  0.4653 -0.3968
31714SOL    HW199699   9.734   4.873   4.122  1.9214  1.9586 -1.5218
31714SOL    HW299700   9.651   4.921   4.239  0.2314 -1.0622 -1.3812
31715SOL     OW99701   8.967   3.657   2.242  0.5412 -0.1545 -0.3042
31715SOL    HW199702   8.986   3.612   2.324 -0.4860 -0.3266 -0.1556
31715SOL    HW299703   8.890   3.710   2.260  0.1717 -0.3575 -1.2177
31716SOL     OW99704   2.990   0.187   2.074  0.3573 -0.6130 -0.0311
31716SOL    HW199705   3.043   0.128   2.127  0.8810  0.7076  0.9813
31716SOL    HW299706   2.900   0.172   2.103  0.4670 -1.0156  0.0999
31717SOL     OW99707   2.526   0.066   4.625 -0.2712 -0.2141  0.3723
31717SOL    HW199708   2.563   0.140   4.578  0.4439 -0.5151  0.4420
31717SOL    HW299709   2.438   0.094   4.649  0.0823  0.7212  0.6385
31718SOL     OW99710   1.625   1.038   8.178  0.1750 -0.3291  0.3626
31718SOL    HW199711   1.707   1.070   8.141  0.0452 -1.6581 -1.2037
31718SOL    HW299712   1.560   1.105   8.156  0.3084 -0.6110 -0.9625
31719SOL     OW99713  10.861   1.525  11.842  0.2701 -0.1537  0.5128
31719SOL    HW199714  10.859   1.535  11.937  0.5504  1.7729  0.3564
31719SOL    HW299715  10.856   1.615  11.808 -2.1072 -0.8499 -1.3450
31720SOL     OW99716  11.503   1.927  10.348 -0.2441  0.1732  0.1219
31720SOL    HW199717  11.473   1.994  10.287 -1.6313  1.1894  1.8284
31720SOL    HW299718  11.588   1.959  10.379 -0.7806  1.0256  0.7324
31721SOL     OW99719   9.690   3.857   8.806 -1.1374  0.3482 -0.3691
31721SOL    HW199720   9.714   3.950   8.798 -0.2519  0.2802  1.1810
31721SOL    HW299721   9.643   3.852   8.889 -0.8060 -0.6780 -0.2405
31722SOL     OW99722   7.259  10.823   2.290  0.3907 -0.3632  0.2013
31722SOL    HW199723   7.251  10.903   2.238 -0.9807 -0.0485  0.8609
31722SOL    HW299724   7.337  10.780   2.255  1.0016  1.1221 -0.3401
31723SOL     OW99725   9.362  10.104   2.097  0.4842  0.1164 -0.2460
31723SOL    HW199726   9.389  10.035   2.158  0.3559 -0.2821 -0.6383
31723SOL    HW299727   9.377  10.186   2.145 -0.5550 -0.2233  0.6984
31724SOL     OW99728   3.029   5.488   6.337  0.0547  0.3999  0.1713
31724SOL    HW199729   2.967   5.434   6.288  0.5578  0.1346 -0.1774
31724SOL    HW299730   3.042   5.440   6.419  1.6153 -0.7916 -0.7201
31725SOL     OW99731   8.503  11.512   5.718 -0.1233 -0.2065  0.6166
31725SOL    HW199732   8.595  11.499   5.694 -0.8835 -3.1451 -1.1421
31725SOL    HW299733   8.469  11.571   5.650 -0.2094 -1.5859 -0.5804
31726SOL     OW99734   9.408   4.894  10.357  0.3050 -0.0930  0.0550
31726SOL    HW199735   9.468   4.829  10.394  2.0172  1.4757  0.2027
31726SOL    HW299736   9.452   4.978  10.372 -1.7709  1.1034 -0.2228
31727SOL     OW99737   4.930  11.454   4.247 -0.6429 -0.1868 -0.0697
31727SOL    HW199738   4.843  11.494   4.238 -1.3081 -1.4415  0.5292
31727SOL    HW299739   4.930  11.414   4.334 -0.1552 -1.7769 -0.7496
31728SOL     OW99740   1.484   6.432   3.485  0.1904 -0.4802 -0.5788
31728SOL    HW199741   1.471   6.485   3.407  0.6314 -0.4827 -0.6557
31728SOL    HW299742   1.531   6.355   3.455 -0.6626 -1.0403 -0.5082
31729SOL     OW99743   6.180   2.899   5.215  0.0412  0.0605 -0.3848
31729SOL    HW199744   6.214   2.985   5.236  0.8154 -0.3883  0.2659
31729SOL    HW299745   6.086   2.912   5.204  0.4170  1.3453 -2.4063
31730SOL     OW99746   5.663  11.789   1.763 -0.0688 -0.1723 -0.5200
31730SOL    HW199747   5.708  11.763   1.844  1.3054 -0.2835 -1.2845
31730SOL    HW299748   5.592  11.847   1.792  0.6254  0.0795  0.7408
31731SOL     OW99749   5.969   3.960   2.047 -0.2586  0.2820  0.1675
31731SOL    HW199750   6.044   4.011   2.016  0.0636  0.2473  0.8773
31731SOL    HW299751   5.965   3.885   1.987  0.7021 -0.0790  0.5387
31732SOL     OW99752   8.307   5.412   2.428  0.1444 -0.0984  0.5361
31732SOL    HW199753   8.240   5.419   2.361  0.5187  0.3086  0.1998
31732SOL    HW299754   8.356   5.333   2.404  0.5100  0.2550  0.1167
31733SOL     OW99755  11.487  11.365  11.984 -0.2092  0.7591  0.2367
31733SOL    HW199756  11.402  11.407  11.996  0.5529  1.8625  2.3541
31733SOL    HW299757  11.521  11.402  11.902 -0.3821  2.8832  1.0588
31734SOL     OW99758  11.229   8.330   2.787 -0.1942 -0.1339 -0.2153
31734SOL    HW199759  11.187   8.362   2.867  0.5890 -0.3103  0.2830
31734SOL    HW299760  11.157   8.297   2.733 -0.5260 -3.0851  1.8007
31735SOL     OW99761   5.860   9.888   5.296  0.0916  0.1339  0.1209
31735SOL    HW199762   5.787   9.860   5.241  0.6728  0.0103 -0.6040
31735SOL    HW299763   5.847   9.982   5.306 -0.6824 -0.0264  0.7897
31736SOL     OW99764  11.690   0.207   7.558 -0.2050  0.5368 -0.0754
31736SOL    HW199765  11.694   0.147   7.633  2.5253  1.6221  0.7660
31736SOL    HW299766  11.619   0.172   7.503  0.5608 -2.8315  0.8489
31737SOL     OW99767  10.465  10.190   3.863 -0.3066 -0.5533  0.1459
31737SOL    HW199768  10.425  10.268   3.903  1.2341  0.6788 -0.6081
31737SOL    HW299769  10.393  10.148   3.816 -1.1067  0.5892  0.2987
31738SOL     OW99770   0.052   6.701   7.111  0.2958  0.9075  0.1986
31738SOL    HW199771   0.106   6.622   7.105 -0.8831 -0.0440  1.5096
31738SOL    HW299772   0.052   6.737   7.022 -0.1448 -1.2642 -0.7291
31739SOL     OW99773   4.862   5.302  10.231  0.0642 -0.0756 -0.5190
31739SOL    HW199774   4.860   5.293  10.327  0.7470 -2.6332 -0.6746
31739SOL    HW299775   4.799   5.371  10.213 -1.5736 -0.8498  1.6874
31740SOL     OW99776   1.356   9.801   7.447 -0.6096  0.6907  0.3785
31740SOL    HW199777   1.263   9.785   7.462  0.1120 -2.6407  2.4606
31740SOL    HW299778   1.395   9.799   7.535  2.1552 -5.0942 -0.5101
31741SOL     OW99779   6.646   6.131   5.628  0.1681 -0.0156  0.0183
31741SOL    HW199780   6.575   6.160   5.571  0.3804  0.7226  0.1199
31741SOL    HW299781   6.611   6.055   5.674 -0.1582 -0.3422 -0.7659
31742SOL     OW99782   0.147   2.278   0.329 -0.7050 -0.3841 -0.4210
31742SOL    HW199783   0.137   2.349   0.392  0.5257 -0.3541 -0.2263
31742SOL    HW299784   0.157   2.322   0.245  3.1306 -0.0554  0.0374
31743SOL     OW99785   6.431   0.964   5.325  0.2900  0.7095  0.3094
31743SOL    HW199786   6.493   1.035   5.309  1.3518 -0.1562  0.4752
31743SOL    HW299787   6.448   0.900   5.256 -1.6462  1.2257 -0.7198
31744SOL     OW99788   0.029   3.608   4.613  0.5326 -0.3031 -0.4023
31744SOL    HW199789  -0.012   3.657   4.542 -1.5227 -0.6664  0.4677
31744SOL    HW299790   0.095   3.668   4.649 -1.0227  1.3884 -0.1956
31745SOL     OW99791  10.679   4.198  11.378  0.1142  0.3504 -0.1671
31745SOL    HW199792  10.605   4.207  11.317 -0.6898  0.7587  0.8436
31745SOL    HW299793  10.708   4.107  11.366 -2.4419 -0.8084  1.4480
31746SOL     OW99794   2.350   4.718   8.101 -0.3115  0.0083  0.8373
31746SOL    HW199795   2.377   4.705   8.192  0.4775  0.1518  0.6287
31746SOL    HW299796   2.417   4.673   8.050 -0.6114  0.1529  0.3161
31747SOL     OW99797  10.772   5.086  10.725  0.2814  0.0231 -0.8892
31747SOL    HW199798  10.714   5.157  10.699  2.1984  1.4320 -1.5510
31747SOL    HW299799  10.785   5.035  10.645 -2.2663 -2.1143 -0.1123
31748SOL     OW99800   7.053   7.408   4.041 -0.2105  0.2987  0.5667
31748SOL    HW199801   7.129   7.453   4.004  0.4176 -1.5423 -0.5188
31748SOL    HW299802   7.022   7.352   3.970 -0.6258 -1.3624  1.9842
31749SOL     OW99803   9.324   9.903   9.198  0.1525  0.1628 -0.1970
31749SOL    HW199804   9.261   9.864   9.258 -0.4781  1.2354 -0.1386
31749SOL    HW299805   9.289   9.884   9.111  0.6022 -0.6124 -0.2279
31750SOL     OW99806   1.012   7.445   9.967  0.3942  0.1271 -0.0552
31750SOL    HW199807   1.074   7.517   9.967  1.6327 -0.8855 -1.3774
31750SOL    HW299808   1.036   7.392   9.890 -1.2947 -0.9833  0.1226
31751SOL     OW99809   1.058   7.807   7.716  0.2806  0.1577 -0.2281
31751SOL    HW199810   1.127   7.811   7.649  0.4304 -1.7947 -0.2493
31751SOL    HW299811   1.001   7.735   7.687 -0.1559 -0.1324  1.2798
31752SOL     OW99812  10.302   8.611   9.959 -0.1399  0.0880  0.4914
31752SOL    HW199813  10.269   8.589  10.046  0.3499  1.5280  1.0820
31752SOL    HW299814  10.240   8.676   9.925  1.1997  1.7010  0.9975
31753SOL     OW99815   3.202   7.339   3.165 -0.0056  0.3195  0.1255
31753SOL    HW199816   3.255   7.286   3.225 -1.5197 -1.5882 -0.1338
31753SOL    HW299817   3.210   7.428   3.199  1.0892 -0.3365  1.7256
31754SOL     OW99818   9.277   4.040   8.770 -0.3945 -0.3667 -0.2249
31754SOL    HW199819   9.206   4.102   8.752  0.0790  0.3090  0.2067
31754SOL    HW299820   9.299   4.055   8.862  0.2871 -0.5969 -0.3474
31755SOL     OW99821   9.683   8.096  11.724  0.1191 -0.7824  0.0978
31755SOL    HW199822   9.662   8.025  11.784 -0.7538 -1.1734 -0.6490
31755SOL    HW299823   9.737   8.156  11.776 -0.1680 -1.3697  1.1038
31756SOL     OW99824   7.319   9.363  11.750  0.9292 -0.0768  0.3404
31756SOL    HW199825   7.351   9.340  11.837 -0.2806 -0.5063  0.6806
31756SOL    HW299826   7.317   9.280  11.702 -2.2510 -0.6004  1.1852
31757SOL     OW99827   2.888   3.140   0.475 -0.0936  0.0365  0.9067
31757SOL    HW199828   2.835   3.142   0.555  0.6542 -0.7813  1.4423
31757SOL    HW299829   2.929   3.054   0.476 -1.3100 -0.6384 -1.2055
31758SOL     OW99830   6.500   4.319   3.276 -0.1678 -0.5368 -0.1522
31758SOL    HW199831   6.531   4.354   3.359  0.8605 -1.2244 -0.2281
31758SOL    HW299832   6.507   4.224   3.286  0.5618 -0.6180 -1.2396
31759SOL     OW99833  10.222  12.127   1.273 -0.5542 -0.3077  0.4340
31759SOL    HW199834  10.127  12.130   1.287 -0.3731 -1.1728  2.0139
31759SOL    HW299835  10.259  12.117   1.361  0.9893 -0.3464 -0.1950
31760SOL     OW99836  10.286   9.000   6.990 -0.1922 -0.1992  0.1555
31760SOL    HW199837  10.233   8.922   7.004 -0.3030  0.0310  1.1439
31760SOL    HW299838  10.295   9.039   7.078  1.1920  0.0274 -0.0493
31761SOL     OW99839   2.924   8.783   0.569  0.0751  0.2635  0.5012
31761SOL    HW199840   2.849   8.739   0.527  0.6749 -0.0512 -0.2513
31761SOL    HW299841   2.917   8.757   0.661  1.4216 -2.9916 -0.1599
31762SOL     OW99842   7.713   6.061   9.099  0.7135  0.1783  0.0831
31762SOL    HW199843   7.707   5.974   9.061 -0.0837 -0.4072  1.5116
31762SOL    HW299844   7.770   6.050   9.176  1.9124  1.2500 -0.5983
31763SOL     OW99845   7.556   4.592   9.109  0.9382  0.2940  0.3303
31763SOL    HW199846   7.647   4.594   9.138  0.7536  3.1028  1.0241
31763SOL    HW299847   7.506   4.585   9.191  0.4774 -1.6203 -0.0664
31764SOL     OW99848   2.339   1.214   6.131  0.4289  0.1480  0.0845
31764SOL    HW199849   2.332   1.210   6.035 -1.3040 -1.2820  0.2245
31764SOL    HW299850   2.300   1.298   6.154 -2.1092 -0.8388 -0.3103
31765SOL     OW99851   3.932   9.771   9.548  0.2329 -0.8128  0.6936
31765SOL    HW199852   3.864   9.705   9.533 -1.9765  1.5786 -1.0112
31765SOL    HW299853   3.921   9.797   9.639 -1.8506  0.0949  0.2498
31766SOL     OW99854   2.217   0.515   9.421 -0.0116 -0.8495 -0.2907
31766SOL    HW199855   2.281   0.538   9.489  0.0299 -1.6688 -0.0398
31766SOL    HW299856   2.237   0.574   9.349  0.0328 -0.0552  0.3514
31767SOL     OW99857   6.725  11.281   0.620 -0.2400 -0.4900 -0.6654
31767SOL    HW199858   6.768  11.271   0.705 -1.1721 -0.7751 -0.2037
31767SOL    HW299859   6.752  11.368   0.590 -1.2831  0.3813  0.7760
31768SOL     OW99860   2.379  10.953   8.856 -0.2958 -0.1866  0.1794
31768SOL    HW199861   2.341  10.923   8.773 -0.7869 -0.7400  0.5965
31768SOL    HW299862   2.467  10.982   8.833  0.0690 -1.5979 -0.3111
31769SOL     OW99863  11.211   4.165   3.644 -0.2220  0.0844 -0.3484
31769SOL    HW199864  11.253   4.100   3.701 -0.7205 -0.8792 -1.0534
31769SOL    HW299865  11.148   4.210   3.701 -1.8430 -1.9308 -0.4620
31770SOL     OW99866   6.048   0.666  11.892 -0.0541 -0.3184  0.3253
31770SOL    HW199867   5.998   0.630  11.818  1.8958 -0.2375 -1.1015
31770SOL    HW299868   5.984   0.674  11.963 -2.2208  0.5297 -1.6373
31771SOL     OW99869   6.599   1.359   5.791 -0.0999 -0.2178 -0.1170
31771SOL    HW199870   6.534   1.399   5.733  0.8523  0.8358 -0.5154
31771SOL    HW299871   6.681   1.403   5.768  1.0544 -2.4540 -0.5933
31772SOL     OW99872  11.207   0.048   0.597 -0.0202 -0.2481 -0.4991
31772SOL    HW199873  11.252   0.126   0.631  0.3235 -0.9431  0.6861
31772SOL    HW299874  11.163   0.079   0.519  0.3631  1.0790 -0.2203
31773SOL     OW99875   4.222   3.631   3.618  0.0293  0.2464  0.0405
31773SOL    HW199876   4.158   3.564   3.642  0.8181 -0.0197  1.5124
31773SOL    HW299877   4.185   3.713   3.650  0.1658  0.1740  0.3811
31774SOL     OW99878   8.079   5.833  10.523  0.1935 -0.4968  0.2983
31774SOL    HW199879   8.043   5.919  10.500  0.0282 -0.9056 -1.0694
31774SOL    HW299880   8.079   5.832  10.618 -2.8491 -0.2369  0.3873
31775SOL     OW99881   5.725   0.035   1.244 -0.5074 -0.8550  0.4407
31775SOL    HW199882   5.778  -0.044   1.229 -0.8544 -1.1438  0.7078
31775SOL    HW299883   5.690   0.023   1.332 -0.5363 -0.3833  0.4943
31776SOL     OW99884  11.583   3.996   1.112 -0.2468 -0.6656 -0.0315
31776SOL    HW199885  11.604   4.041   1.030 -1.3582  2.2339  1.1219
31776SOL    HW299886  11.530   3.921   1.086 -1.1928  0.5790 -1.9634
31777SOL     OW99887   6.764  10.837   4.977 -0.0244  0.2429  0.3415
31777SOL    HW199888   6.768  10.869   4.887 -0.3261 -0.8150 -0.0582
31777SOL    HW299889   6.687  10.780   4.979 -0.2379  0.5438  1.3723
31778SOL     OW99890   7.887  11.936   7.254 -0.0863  0.5230  0.0994
31778SOL    HW199891   7.976  11.909   7.234  0.2573  1.4150  0.3661
31778SOL    HW299892   7.836  11.913   7.176  0.3276 -0.1867  0.0333
31779SOL     OW99893  11.991  10.603   2.030 -0.2167  0.1852 -0.4026
31779SOL    HW199894  11.902  10.609   1.995  0.0893  0.5026 -1.1213
31779SOL    HW299895  12.024  10.519   1.998  0.1254  0.5547 -1.0316
31780SOL     OW99896   3.993   2.839   0.728 -0.3438  0.9054 -0.3094
31780SOL    HW199897   3.999   2.778   0.654  0.1939  0.8920 -0.2620
31780SOL    HW299898   4.025   2.922   0.692 -1.8527  1.3862 -0.6048
31781SOL     OW99899   3.902   7.389   7.753 -0.0455 -0.3338  0.4215
31781SOL    HW199900   3.896   7.317   7.689 -0.3504 -0.2763  0.3839
31781SOL    HW299901   3.964   7.451   7.713 -0.4385 -0.1721  0.0533
31782SOL     OW99902   9.463   9.122   5.017  0.0480 -0.1526  0.2621
31782SOL    HW199903   9.518   9.049   4.988  0.1255  0.0237 -0.0397
31782SOL    HW299904   9.378   9.105   4.977 -0.5385 -1.1670  1.8392
31783SOL     OW99905   4.428   1.392   0.138 -0.2376 -0.4679 -0.6184
31783SOL    HW199906   4.470   1.477   0.147  1.2030 -1.0840 -1.2123
31783SOL    HW299907   4.449   1.346   0.220 -3.2653  0.6177  0.9133
31784SOL     OW99908   0.238   2.271   5.694  0.3288 -0.0311 -0.3397
31784SOL    HW199909   0.191   2.209   5.637  0.3076  1.0611 -1.5436
31784SOL    HW299910   0.169   2.310   5.748  0.3567 -1.1157  0.5148
31785SOL     OW99911  11.864  10.108   5.297  0.1402  0.5350  0.0636
31785SOL    HW199912  11.892  10.196   5.271  0.9093  0.4253  0.4995
31785SOL    HW299913  11.819  10.121   5.380  0.4286  0.4952  0.2275
31786SOL     OW99914   3.731   0.685   9.065  0.3799 -0.2460  0.0696
31786SOL    HW199915   3.677   0.700   8.987 -0.7111 -2.0317  0.4246
31786SOL    HW299916   3.812   0.732   9.046 -0.4800  0.7638 -1.4051
31787SOL     OW99917   6.878  10.287   7.658  1.0563  0.0849  0.1111
31787SOL    HW199918   6.890  10.377   7.630  1.5160  0.2067  0.6725
31787SOL    HW299919   6.882  10.291   7.754 -2.0131 -0.0630  0.3443
31788SOL     OW99920   6.685   4.556  10.576 -0.3428 -0.0817  0.1974
31788SOL    HW199921   6.727   4.542  10.491 -1.0346 -1.7697  0.0965
31788SOL    HW299922   6.709   4.479  10.627 -0.3986  0.6485  1.3515
31789SOL     OW99923  11.168   7.786   9.425  0.0631 -0.3933  0.2982
31789SOL    HW199924  11.192   7.829   9.343  1.1885 -1.8035 -0.1465
31789SOL    HW299925  11.103   7.845   9.464  1.3638  1.5865 -0.3666
31790SOL     OW99926   7.477   1.070  10.760  0.4562 -0.8098  0.0327
31790SOL    HW199927   7.533   1.073  10.838  1.4689 -1.9021 -0.6216
31790SOL    HW299928   7.392   1.103  10.790  1.6258  1.7584  0.8514
31791SOL     OW99929   7.033   3.340  11.553  0.5237 -0.3114  0.6266
31791SOL    HW199930   7.119   3.322  11.514 -0.4463 -1.4524 -1.0935
31791SOL    HW299931   7.008   3.425  11.518  0.5106 -0.4522  0.2887
31792SOL     OW99932   7.016   6.988   2.848 -0.7872 -0.0620  0.2342
31792SOL    HW199933   7.031   7.066   2.795 -0.2963  0.6505  1.3826
31792SOL    HW299934   7.027   6.915   2.787 -1.1449  0.7450 -0.8347
31793SOL     OW99935   8.737   6.337   5.499 -0.4830  0.3800  0.1343
31793SOL    HW199936   8.674   6.392   5.546  0.0577  0.1742  1.1262
31793SOL    HW299937   8.799   6.399   5.461 -0.4657  0.5049  0.3679
31794SOL     OW99938   5.099   7.319   1.945 -0.3761  0.4627  0.1061
31794SOL    HW199939   5.099   7.369   2.027 -0.4352  2.2449 -0.9398
31794SOL    HW299940   5.075   7.383   1.878  0.9889 -0.6336 -1.4915
31795SOL     OW99941   3.598   9.760   9.163  0.2105  0.2946 -0.0909
31795SOL    HW199942   3.688   9.784   9.184  0.0938  2.1789 -1.5443
31795SOL    HW299943   3.546   9.795   9.236  0.3305  2.2611 -0.9030
31796SOL     OW99944   7.684  10.554   0.356  0.1185 -0.2913 -0.1935
31796SOL    HW199945   7.686  10.477   0.299 -0.3228  0.5251 -1.3587
31796SOL    HW299946   7.776  10.581   0.363  0.1827 -0.4071 -0.5387
31797SOL     OW99947   1.114   0.024   2.205  0.7328  0.0810  0.1033
31797SOL    HW199948   1.173   0.083   2.158  1.2704 -0.2155  0.3812
31797SOL    HW299949   1.112   0.058   2.294 -0.5869  0.8654 -0.1992
31798SOL     OW99950   5.129   0.596  10.487 -0.3126 -0.4337 -0.1904
31798SOL    HW199951   5.193   0.601  10.558  1.1233  0.5830 -1.4926
31798SOL    HW299952   5.063   0.535  10.519  0.7815 -0.7494  1.6200
31799SOL     OW99953   1.393   0.930   1.732 -0.0016 -0.1323  0.0854
31799SOL    HW199954   1.303   0.902   1.715 -0.3900  0.7421  0.6371
31799SOL    HW299955   1.394   0.954   1.825  1.1004 -1.2183  0.3896
31800SOL     OW99956   2.661   3.472   7.114  0.0367 -0.1470  0.2047
31800SOL    HW199957   2.667   3.549   7.057  0.2160 -1.4229 -1.5655
31800SOL    HW299958   2.718   3.493   7.189  0.5165  1.2022 -0.5123
31801SOL     OW99959   2.725   8.371   1.002 -0.4540  0.7845 -0.2918
31801SOL    HW199960   2.661   8.437   1.031  0.3058  1.1884  0.5017
31801SOL    HW299961   2.674   8.290   0.995 -1.1911  1.2360 -0.3209
31802SOL     OW99962  12.006   8.057   5.436  0.0875  0.3409  0.5181
31802SOL    HW199963  11.926   8.086   5.392 -0.2265  2.2884  2.2106
31802SOL    HW299964  12.056   8.137   5.450  2.1687 -0.7841 -0.0853
31803SOL     OW99965  11.073   8.364   6.707 -0.1249  0.2920 -0.5554
31803SOL    HW199966  11.090   8.309   6.631  4.1935  0.8636 -0.2707
31803SOL    HW299967  11.044   8.303   6.775  0.7928 -1.0486 -1.3127
31804SOL     OW99968  10.382  10.297   5.936  0.3965 -0.2861 -0.5350
31804SOL    HW199969  10.469  10.332   5.956 -0.8920  2.8596  0.1800
31804SOL    HW299970  10.360  10.336   5.852 -0.7187 -0.1496 -0.1939
31805SOL     OW99971   4.845   1.748   9.254  0.1759 -0.0916 -0.2491
31805SOL    HW199972   4.867   1.724   9.344  0.2351 -2.0047 -0.7380
31805SOL    HW299973   4.762   1.703   9.237  0.9143 -0.9980 -1.6162
31806SOL     OW99974   4.559   6.817  10.009  0.3571  0.0660 -0.2187
31806SOL    HW199975   4.464   6.816   9.997  0.4282  1.4894 -1.1972
31806SOL    HW299976   4.573   6.877  10.083  0.4596 -1.0169  0.6687
31807SOL     OW99977  11.982   5.621   6.084 -0.2845 -0.0049  0.3197
31807SOL    HW199978  11.977   5.690   6.150  0.4473 -0.2569  0.6513
31807SOL    HW299979  11.940   5.545   6.125  1.8705 -0.7447  1.2925
31808SOL     OW99980   2.255   6.227   9.426  0.4453 -0.2554  0.3639
31808SOL    HW199981   2.192   6.283   9.470  0.3267  0.8421 -1.1136
31808SOL    HW299982   2.201   6.166   9.375  0.5804 -0.9447  1.0351
31809SOL     OW99983   3.704  11.527   0.657 -0.3189 -0.1352 -0.2888
31809SOL    HW199984   3.756  11.523   0.737 -2.2532 -3.2251  0.9747
31809SOL    HW299985   3.755  11.478   0.593  0.7624  1.5017 -0.7610
31810SOL     OW99986  11.078   1.578   1.427 -0.6865  0.1744  0.6685
31810SOL    HW199987  11.043   1.631   1.356 -0.9677  1.2025  1.5427
31810SOL    HW299988  11.172   1.600   1.429 -0.6071 -0.1384  0.3792
31811SOL     OW99989   2.363  10.593  10.930 -0.6393 -0.0838  0.1509
31811SOL    HW199990   2.283  10.541  10.936 -0.0651 -1.2553 -1.5215
31811SOL    HW299991   2.370  10.615  10.837 -0.6315  2.7019  0.7364
31812SOL     OW99992   3.737  12.116  11.532  0.1956 -0.0161  0.0447
31812SOL    HW199993   3.643  12.104  11.520 -0.2863  1.0983  2.2341
31812SOL    HW299994   3.762  12.176  11.462 -0.8109  0.0341 -0.2871
31813SOL     OW99995  10.342   5.674   4.188  0.4846 -0.1269  0.0257
31813SOL    HW199996  10.270   5.679   4.251  0.3348 -1.2252 -0.0364
31813SOL    HW299997  10.299   5.669   4.102  0.6339 -0.5377 -0.0289
31814SOL     OW99998  11.919   1.550   5.687  0.1931  0.0167 -0.3614
31814SOL    HW199999  11.879   1.540   5.774 -0.1758 -1.9380 -0.6970
31814SOL    HW2    0  11.867   1.619   5.645  1.5462  2.3565  1.5554
31815SOL     OW    1   1.303   0.785   3.240 -0.0789  0.0759  0.0913
31815SOL    HW1    2   1.241   0.792   3.312 -1.6083 -1.7346 -0.9397
31815SOL    HW2    3   1.322   0.875   3.215 -1.2562  0.6981  1.3013
31816SOL     OW    4   3.828   1.199  11.862  0.2801 -0.7387 -0.0100
31816SOL    HW1    5   3.908   1.230  11.904 -0.0463  1.7286 -0.9915
31816SOL    HW2    6   3.798   1.274  11.810 -2.1948 -1.8673 -0.3725
31817SOL     OW    7   5.176   3.773   5.909 -0.3341  0.1746 -0.3572
31817SOL    HW1    8   5.123   3.693   5.903  0.3918 -0.4030  0.6932
31817SOL    HW2    9   5.129   3.827   5.974 -0.4700  0.3324 -0.5841
31818SOL     OW   10   6.750   8.095   4.500  0.3018  0.2762 -0.1576
31818SOL    HW1   11   6.733   8.012   4.544  1.7940 -0.4419 -0.8493
31818SOL    HW2   12   6.795   8.148   4.566  0.4138  0.0900 -0.0836
31819SOL     OW   13  11.689   6.921   7.929  0.0064  0.0619  0.0784
31819SOL    HW1   14  11.598   6.896   7.946  0.2539 -1.4300 -0.6854
31819SOL    HW2   15  11.708   6.987   7.996 -1.9238  1.1180 -0.3141
31820SOL     OW   16  10.960   5.690   7.678  0.1756  0.0978 -0.3650
31820SOL    HW1   17  10.948   5.696   7.583  0.8911 -1.0556 -0.5399
31820SOL    HW2   18  10.895   5.625   7.706 -0.0448  0.4464 -0.0535
31821SOL     OW   19   4.607   3.693   1.075  0.2922  0.1939  0.4033
31821SOL    HW1   20   4.574   3.727   1.158  2.1692  0.7780  0.9475
31821SOL    HW2   21   4.588   3.599   1.078 -1.6661  0.5443  0.4680
31822SOL     OW   22   8.708   5.213   5.727  0.2467 -0.0718  0.0768
31822SOL    HW1   23   8.661   5.294   5.705 -1.6613  0.0355  3.7118
31822SOL    HW2   24   8.647   5.166   5.784  2.5084 -2.6356  0.5506
31823SOL     OW   25   4.278   0.217   8.761 -0.1223  0.1508 -0.1823
31823SOL    HW1   26   4.309   0.150   8.700 -0.9599 -0.0783 -0.3747
31823SOL    HW2   27   4.236   0.167   8.832  0.8193  0.4143  0.5826
31824SOL     OW   28   5.650  11.293   7.570  0.2075  0.3916  0.0203
31824SOL    HW1   29   5.691  11.322   7.488  0.3355 -2.4865 -1.0594
31824SOL    HW2   30   5.723  11.262   7.624 -0.0115  0.9380  0.6417
31825SOL     OW   31  10.574   6.333   0.442 -0.4377  0.3568 -0.2176
31825SOL    HW1   32  10.588   6.375   0.356  0.5285  0.9421  0.2097
31825SOL    HW2   33  10.510   6.388   0.485  0.3114  1.0222  0.0695
31826SOL     OW   34   2.644   3.526   1.995 -0.2612 -0.0346  0.1483
31826SOL    HW1   35   2.609   3.519   1.906 -2.4829  2.1156  0.7360
31826SOL    HW2   36   2.609   3.449   2.040 -0.4327 -0.3115 -0.4430
31827SOL     OW   37   0.157   2.138   9.921 -0.4494 -0.0724  0.2141
31827SOL    HW1   38   0.139   2.057   9.874 -1.4289  1.0457 -1.4215
31827SOL    HW2   39   0.071   2.171   9.945  0.0031 -0.2624  2.2700
31828SOL     OW   40   5.536   2.104  10.788  0.2175  0.4563  0.1123
31828SOL    HW1   41   5.463   2.053  10.752  0.9974  0.7546 -2.1086
31828SOL    HW2   42   5.497   2.188  10.813 -0.4021  0.1800  0.0835
31829SOL     OW   43   3.995   1.100   4.734 -0.0904 -0.0781  0.8351
31829SOL    HW1   44   4.053   1.068   4.665 -0.8903  0.2580 -0.0129
31829SOL    HW2   45   4.039   1.076   4.815  0.8229 -0.5712  0.2117
31830SOL     OW   46   0.958   4.760   8.730  0.5006 -0.3272  0.7354
31830SOL    HW1   47   0.986   4.807   8.809  1.2178 -0.1311  0.3737
31830SOL    HW2   48   0.930   4.828   8.670 -1.2620 -0.5451  1.2607
31831SOL     OW   49   8.298   7.079   1.255  0.5720  0.4692  0.5344
31831SOL    HW1   50   8.299   7.101   1.348 -0.4645  0.3418  0.5874
31831SOL    HW2   51   8.206   7.079   1.232  0.7312 -0.8497 -0.1789
31832SOL     OW   52   7.412  10.666   4.466  0.6779  0.2342 -0.4116
31832SOL    HW1   53   7.445  10.725   4.399  1.9633  3.2550  2.5765
31832SOL    HW2   54   7.490  10.618   4.494  0.7151  0.8449  0.5735
31833SOL     OW   55  10.934   4.070   9.196 -0.3149  0.4129  0.0242
31833SOL    HW1   56  10.853   4.025   9.172 -0.7747  1.3498 -0.2074
31833SOL    HW2   57  10.917   4.105   9.283  0.2379 -0.3001  0.4358
31834SOL     OW   58   9.907   4.550   8.818  0.4318 -0.5687  0.1387
31834SOL    HW1   59   9.835   4.558   8.880 -0.2864  0.0052 -0.7377
31834SOL    HW2   60   9.910   4.456   8.797 -1.8733 -0.2966 -1.8323
31835SOL     OW   61  12.073   2.165   6.921 -0.1211 -0.3829 -1.1311
31835SOL    HW1   62  12.076   2.260   6.910  2.0766 -0.4378 -1.5636
31835SOL    HW2   63  12.096   2.131   6.834 -2.0822 -1.3839 -1.3120
31836SOL     OW   64   1.001  11.870   4.529 -0.0347  0.6608 -0.2528
31836SOL    HW1   65   0.995  11.825   4.445 -2.9421  0.8477 -0.2294
31836SOL    HW2   66   0.969  11.959   4.510  1.9822  1.6131  0.5118
31837SOL     OW   67   7.703  11.989   2.738  0.0525 -0.0156  0.4651
31837SOL    HW1   68   7.730  12.074   2.775 -1.3492  1.2717 -1.2763
31837SOL    HW2   69   7.633  11.959   2.796  0.5528  0.0249  1.0932
31838SOL     OW   70   8.422  10.517   5.425  0.0335  0.5130 -0.1397
31838SOL    HW1   71   8.348  10.576   5.408 -1.6910 -0.8425  2.2174
31838SOL    HW2   72   8.392  10.432   5.393  0.1054 -0.2570  1.7204
31839SOL     OW   73   1.577   4.690   2.362 -0.1794  0.5285  0.5954
31839SOL    HW1   74   1.654   4.633   2.373 -1.7175 -1.2612  3.1136
31839SOL    HW2   75   1.516   4.638   2.310 -0.9846  0.5450  1.5190
31840SOL     OW   76   0.758   1.356  11.521  0.0637 -0.1745 -0.6146
31840SOL    HW1   77   0.700   1.431  11.509 -0.5507 -0.5046  0.1993
31840SOL    HW2   78   0.794   1.367  11.609 -1.1319 -1.5361  0.1031
31841SOL     OW   79  10.456  11.740   8.224 -0.2317  0.0371 -0.4158
31841SOL    HW1   80  10.505  11.770   8.148 -0.9085  2.6328  0.0789
31841SOL    HW2   81  10.522  11.732   8.293 -0.3503  3.4484  0.2330
31842SOL     OW   82  11.137   7.516   3.427  0.3991 -0.0011  0.3910
31842SOL    HW1   83  11.165   7.438   3.476  0.1987  0.3577  1.0879
31842SOL    HW2   84  11.042   7.505   3.418  0.2591  0.5414  1.1724
31843SOL     OW   85   3.292   9.875  10.203  0.2940 -0.5286 -0.1724
31843SOL    HW1   86   3.234   9.826  10.262 -0.0468 -0.6033 -0.5660
31843SOL    HW2   87   3.273   9.967  10.221  0.6928 -0.5403  0.3281
31844SOL     OW   88  11.396   1.325   4.075 -0.6439 -0.2621  0.3658
31844SOL    HW1   89  11.378   1.346   3.984 -1.1368  0.6050  0.6570
31844SOL    HW2   90  11.393   1.409   4.121  0.5628 -0.5529  1.0307
31845SOL     OW   91   0.662   3.939   5.783  0.3995 -0.0318  0.4549
31845SOL    HW1   92   0.572   3.911   5.772  0.0655  1.2347 -0.3285
31845SOL    HW2   93   0.664   3.982   5.868  0.3328 -0.3254  0.6030
31846SOL     OW   94   9.861  10.644   0.606  0.2139 -0.1659  0.1284
31846SOL    HW1   95   9.768  10.630   0.587  0.1063  1.3612 -0.6276
31846SOL    HW2   96   9.868  10.738   0.622  2.0576  0.2428 -2.5531
31847SOL     OW   97   0.450  10.057   0.169  0.0131  0.3844 -0.2484
31847SOL    HW1   98   0.432  10.023   0.081 -1.2710  0.3336  0.0254
31847SOL    HW2   99   0.536  10.022   0.190 -1.0728 -2.4259 -0.1297
31848SOL     OW  100   0.940   8.455   8.831  0.1735  0.3197 -0.1033
31848SOL    HW1  101   0.994   8.534   8.830 -1.1825  1.2943  0.2104
31848SOL    HW2  102   0.988   8.393   8.884  1.1581  1.0172 -0.1523
31849SOL     OW  103   7.581   7.810   6.625  0.2009 -0.1383  0.2788
31849SOL    HW1  104   7.582   7.814   6.720  0.1977 -0.8300  0.3120
31849SOL    HW2  105   7.663   7.766   6.602 -0.8413 -2.0585  0.0812
31850SOL     OW  106   6.325   4.913   9.302  0.0374 -0.2497  0.0490
31850SOL    HW1  107   6.253   4.942   9.357 -0.6287 -1.8435  0.0780
31850SOL    HW2  108   6.285   4.897   9.216  0.1486 -1.9037  0.2701
31851SOL     OW  109  10.202   8.551   3.679  0.3310 -0.0943  0.4448
31851SOL    HW1  110  10.216   8.639   3.644  1.2255  0.1406  1.3458
31851SOL    HW2  111  10.107   8.540   3.677  0.2503  0.6051 -0.3480
31852SOL     OW  112   0.700   4.046   7.682  0.1373  0.0308  0.4023
31852SOL    HW1  113   0.751   4.003   7.613 -0.9341 -1.1029  0.2950
31852SOL    HW2  114   0.645   3.977   7.719  1.0579  0.4571  2.7915
31853SOL     OW  115  11.674  11.040  11.774 -0.4308 -0.1834 -0.2748
31853SOL    HW1  116  11.625  11.106  11.725 -1.2985  0.8456  1.8105
31853SOL    HW2  117  11.737  11.004  11.712  0.0811  2.6260 -1.5145
31854SOL     OW  118   0.543   0.048   3.628 -0.3410  0.3186 -0.6318
31854SOL    HW1  119   0.632   0.020   3.609 -0.2364  1.0878 -1.3259
31854SOL    HW2  120   0.494  -0.034   3.636  0.8844 -0.2514  2.4272
31855SOL     OW  121   7.397   7.030   3.472  0.1504 -0.2496  0.1917
31855SOL    HW1  122   7.487   7.052   3.495 -0.0458  1.5606 -0.5804
31855SOL    HW2  123   7.344   7.071   3.541 -0.1262 -1.0038  0.4445
31856SOL     OW  124  10.431   4.151   0.272 -0.3225  0.3698  0.1838
31856SOL    HW1  125  10.409   4.063   0.302 -0.2060  0.4498  0.5146
31856SOL    HW2  126  10.490   4.138   0.198 -1.1411  0.1593 -0.4506
31857SOL     OW  127   9.917   6.546   7.788 -0.6321 -0.0343 -0.1557
31857SOL    HW1  128   9.874   6.537   7.703 -1.0674  0.3082  0.0185
31857SOL    HW2  129   9.863   6.493   7.847  0.2709 -1.1232 -0.2862
31858SOL     OW  130   0.841  10.168   2.057  0.0210  0.0295  0.2806
31858SOL    HW1  131   0.767  10.222   2.027  1.6359  1.7900 -0.7323
31858SOL    HW2  132   0.856  10.197   2.147 -0.1518  0.0703  0.2978
31859SOL     OW  133  11.655   0.033  11.349  0.5434 -0.7432  0.1265
31859SOL    HW1  134  11.720   0.101  11.366 -0.1269  0.1255 -0.7081
31859SOL    HW2  135  11.700  -0.029  11.292  0.3423  0.4177 -1.3612
31860SOL     OW  136   1.347   4.645   8.008 -0.2324  0.4212 -0.7791
31860SOL    HW1  137   1.385   4.665   8.094 -2.0940 -1.6455  0.6367
31860SOL    HW2  138   1.297   4.722   7.985 -1.2634  0.3230  0.9624
31861SOL     OW  139   5.904   3.590  11.290 -0.1271  0.0674 -0.5477
31861SOL    HW1  140   5.823   3.603  11.240 -1.3137  0.0041  1.2684
31861SOL    HW2  141   5.956   3.668  11.271 -1.3838  0.9951 -0.3594
31862SOL     OW  142   1.401   9.116   0.638 -0.3959 -0.1744 -0.3912
31862SOL    HW1  143   1.357   9.165   0.569  0.3513  0.4147 -0.4611
31862SOL    HW2  144   1.395   9.172   0.716 -0.3650 -0.3935 -0.2299
31863SOL     OW  145   0.375   7.786   3.188  0.2093  0.3345  0.0173
31863SOL    HW1  146   0.419   7.847   3.129  1.4354 -1.6115 -1.1683
31863SOL    HW2  147   0.314   7.842   3.238  1.5830  2.5772 -0.6530
31864SOL     OW  148   0.197   5.135   0.563 -0.1185  0.6946  0.3586
31864SOL    HW1  149   0.213   5.041   0.571  0.2758  0.7594  0.3690
31864SOL    HW2  150   0.136   5.142   0.490  1.0261  0.5264 -0.6591
31865SOL     OW  151   0.448   2.629   9.810 -0.6612 -0.1136 -0.4782
31865SOL    HW1  152   0.440   2.671   9.896 -2.7849  0.9660 -1.1211
31865SOL    HW2  153   0.488   2.544   9.828 -0.1049  0.5086  1.4258
31866SOL     OW  154   5.825   6.900   5.018  0.2184  0.1577  1.0386
31866SOL    HW1  155   5.760   6.849   4.969  1.8725  0.3381 -1.5273
31866SOL    HW2  156   5.899   6.841   5.030 -0.1182  0.1281  3.4535
31867SOL     OW  157   2.000   8.444   2.276  0.8762 -0.2780  0.3580
31867SOL    HW1  158   2.065   8.432   2.207  0.8649 -0.2672  0.3456
31867SOL    HW2  159   1.918   8.415   2.237  0.9789 -0.8762  0.5739
31868SOL     OW  160  10.868  11.566   4.614 -0.1015 -0.1320 -0.5931
31868SOL    HW1  161  10.780  11.540   4.643 -1.4615  0.4854 -3.7306
31868SOL    HW2  162  10.876  11.527   4.527  2.6784  0.0899 -0.5175
31869SOL     OW  163   4.894   9.682   1.934  0.1546 -0.4705  0.1730
31869SOL    HW1  164   4.847   9.634   2.002 -0.7674 -0.5678 -0.5100
31869SOL    HW2  165   4.938   9.753   1.981 -0.2218 -0.7096  0.9056
31870SOL     OW  166   9.278   6.079   8.890  0.0225 -0.1792  0.9436
31870SOL    HW1  167   9.355   6.129   8.862 -0.5870  0.2758  0.0333
31870SOL    HW2  168   9.314   5.999   8.928  0.9426 -0.2488 -0.0128
31871SOL     OW  169  10.396   8.682   1.726 -0.5178  0.1514  0.0992
31871SOL    HW1  170  10.412   8.719   1.813  0.0206 -1.4928  0.7533
31871SOL    HW2  171  10.382   8.589   1.743  1.1720 -0.5028 -1.7130
31872SOL     OW  172   5.779   7.510   8.656  0.1721  0.2638  0.8320
31872SOL    HW1  173   5.714   7.449   8.691 -1.2142  0.5132 -1.1796
31872SOL    HW2  174   5.816   7.465   8.580  0.8451  1.0013  0.7096
31873SOL     OW  175  11.977   0.725   2.150  0.1321 -0.4135  0.0596
31873SOL    HW1  176  11.975   0.646   2.204 -1.3133  0.1038  0.8350
31873SOL    HW2  177  11.895   0.770   2.171 -0.1735  0.1418 -2.1122
31874SOL     OW  178   5.157   4.413   9.166 -0.0979 -0.2720 -0.0329
31874SOL    HW1  179   5.216   4.439   9.095 -0.2118  0.0677 -0.0027
31874SOL    HW2  180   5.196   4.452   9.245 -0.4023  0.0052 -0.0222
31875SOL     OW  181   3.477   8.059   1.019  0.5170  0.3793 -0.5872
31875SOL    HW1  182   3.480   7.968   1.048  0.5835  0.4630 -0.3320
31875SOL    HW2  183   3.487   8.054   0.923  0.4370  0.1148 -0.5816
31876SOL     OW  184  10.166   6.431   7.886 -0.1263 -0.4208  0.1405
31876SOL    HW1  185  10.207   6.518   7.886  0.0361 -0.4965  0.4434
31876SOL    HW2  186  10.083   6.444   7.841  0.5735 -0.4302 -1.2240
31877SOL     OW  187   4.955   3.810   5.688  0.4237  0.1244 -0.0420
31877SOL    HW1  188   4.888   3.872   5.714  0.1291 -0.2916  0.1968
31877SOL    HW2  189   4.954   3.743   5.756  0.3121 -0.4696 -0.6224
31878SOL     OW  190   2.904   6.689   6.991  0.1348  0.3237 -0.1689
31878SOL    HW1  191   2.854   6.749   7.047 -0.7789  0.2591 -0.8830
31878SOL    HW2  192   2.949   6.747   6.929 -3.6812  0.3664 -3.3518
31879SOL     OW  193   6.220  10.853   2.527 -0.3928  0.0669  0.4381
31879SOL    HW1  194   6.162  10.785   2.493  0.0895  0.6627 -1.7572
31879SOL    HW2  195   6.270  10.810   2.596 -0.7733 -1.5509 -0.2450
31880SOL     OW  196   5.969   9.778   1.030 -0.4951 -0.3513 -0.3756
31880SOL    HW1  197   5.893   9.834   1.012 -0.4203 -0.4135 -0.8902
31880SOL    HW2  198   6.024   9.786   0.952 -0.2520 -0.7632 -0.2488
31881SOL     OW  199   6.062   6.790   5.074  0.0014  0.1767 -0.7324
31881SOL    HW1  200   6.087   6.781   5.166 -0.3877  0.9072 -0.5415
31881SOL    HW2  201   6.111   6.721   5.029 -0.0650 -0.4093  0.0651
31882SOL     OW  202   6.558  10.138   1.547 -0.6510  0.1692  0.2960
31882SOL    HW1  203   6.568  10.053   1.506  0.3458  0.9221 -1.0980
31882SOL    HW2  204   6.517  10.193   1.480  0.9770  1.4126  0.2527
31883SOL     OW  205   3.197   2.089   0.455 -0.3121  0.5147 -0.4709
31883SOL    HW1  206   3.182   2.096   0.360 -1.1248  0.6257 -0.3396
31883SOL    HW2  207   3.234   2.175   0.479  0.2558  0.3535 -0.7427
31884SOL     OW  208   4.776   6.812   2.252  0.0309  0.3118  0.0439
31884SOL    HW1  209   4.752   6.905   2.249 -1.0383  0.2711  3.5588
31884SOL    HW2  210   4.694   6.766   2.271  0.6020 -1.3681 -1.2913
31885SOL     OW  211   5.731   8.882  11.251 -0.4541  0.2214 -0.1410
31885SOL    HW1  212   5.652   8.904  11.301 -0.1703 -1.6458  1.2585
31885SOL    HW2  213   5.731   8.944  11.178 -2.4813  1.1518  0.5539
31886SOL     OW  214  11.730   9.032   8.007  0.5454 -0.8749 -0.5619
31886SOL    HW1  215  11.814   9.074   7.987 -0.6561  1.0308 -1.8379
31886SOL    HW2  216  11.695   9.006   7.922 -1.2320  0.5399 -0.3169
31887SOL     OW  217   9.469   9.729   0.138  0.0147 -0.0185  0.4024
31887SOL    HW1  218   9.525   9.796   0.180 -0.0465 -0.5361  1.3403
31887SOL    HW2  219   9.427   9.685   0.211 -0.2077 -0.8644 -0.2293
31888SOL     OW  220   1.700  11.447   2.625  0.2933 -0.3609  0.0815
31888SOL    HW1  221   1.663  11.526   2.663  0.9019 -0.5628  1.1256
31888SOL    HW2  222   1.637  11.421   2.557 -0.2962  0.5735  0.2556
31889SOL     OW  223  11.791   8.514   6.112 -0.2362 -0.3058 -0.2762
31889SOL    HW1  224  11.856   8.452   6.146 -0.1367 -0.4316 -0.6926
31889SOL    HW2  225  11.707   8.479   6.144  0.0246  0.9946  2.0390
31890SOL     OW  226  10.396   2.383  10.769 -0.0296 -0.4712 -0.3331
31890SOL    HW1  227  10.487   2.384  10.738  0.5363  0.1305  1.2629
31890SOL    HW2  228  10.344   2.384  10.689  1.3586  0.9388 -1.2795
31891SOL     OW  229   2.739   4.136   3.725 -0.3864  0.3756  0.4243
31891SOL    HW1  230   2.656   4.117   3.681 -0.0964 -0.3885  0.1900
31891SOL    HW2  231   2.753   4.229   3.711 -0.8400  0.3588 -0.1659
31892SOL     OW  232   9.800   1.808   3.368 -0.1247  0.0942  0.4390
31892SOL    HW1  233   9.725   1.798   3.428 -1.4769  2.1595 -0.7882
31892SOL    HW2  234   9.820   1.902   3.371 -0.0009  0.1919 -2.0593
31893SOL     OW  235   9.724   6.318   6.509 -0.3074  0.4708 -0.1387
31893SOL    HW1  236   9.662   6.391   6.504 -0.0885  0.7538  1.0458
31893SOL    HW2  237   9.796   6.352   6.562  0.7201  0.0366 -1.2317
31894SOL     OW  238   2.206   3.123   7.422  0.2039 -0.0655  0.0867
31894SOL    HW1  239   2.295   3.096   7.444  0.8905  0.3785 -1.9307
31894SOL    HW2  240   2.203   3.215   7.448  0.0859 -0.2742  0.8229
31895SOL     OW  241   3.712  10.478  11.359  0.5606  0.1025 -0.0875
31895SOL    HW1  242   3.772  10.511  11.427  1.2081 -0.0452 -0.5791
31895SOL    HW2  243   3.768  10.465  11.283 -0.2904  0.9500 -0.8795
31896SOL     OW  244   8.327   0.279   2.949 -0.3926 -0.1202 -0.1822
31896SOL    HW1  245   8.278   0.352   2.910 -2.0860 -0.4088  1.2867
31896SOL    HW2  246   8.275   0.201   2.927  0.2681 -0.6367  0.0649
31897SOL     OW  247   7.691  11.095   2.323  0.2030  0.1057  0.4156
31897SOL    HW1  248   7.676  11.012   2.368  1.0822 -1.1979 -1.5463
31897SOL    HW2  249   7.781  11.090   2.292  0.1528  1.6442 -0.0874
31898SOL     OW  250   9.739  10.811  11.526  0.7841 -0.0037  0.5887
31898SOL    HW1  251   9.648  10.787  11.543  0.8285 -0.6620 -0.0387
31898SOL    HW2  252   9.750  10.896  11.569 -0.7045  1.0824 -1.0423
31899SOL     OW  253   9.155   5.103   0.765  0.5585 -0.2846  0.2392
31899SOL    HW1  254   9.134   5.128   0.855  1.4167  0.9342  0.1158
31899SOL    HW2  255   9.110   5.166   0.710  0.9895 -0.3014 -0.1469
31900SOL     OW  256   1.154   1.167   6.194 -0.5868  0.3727 -0.1249
31900SOL    HW1  257   1.192   1.121   6.118 -1.6072  0.3582 -0.6441
31900SOL    HW2  258   1.118   1.097   6.249  1.0546  0.3024  0.9135
31901SOL     OW  259  10.274   1.518   5.355 -0.0006  0.4431 -0.0350
31901SOL    HW1  260  10.221   1.458   5.408  0.5671 -0.8682 -0.8968
31901SOL    HW2  261  10.264   1.487   5.265  0.9268  1.1790 -0.4139
31902SOL     OW  262  11.522   5.517   0.589  0.1546  0.0517 -0.7441
31902SOL    HW1  263  11.523   5.424   0.568  0.7281  0.4058 -2.5258
31902SOL    HW2  264  11.527   5.560   0.503 -1.5600  1.7461 -0.0633
31903SOL     OW  265   1.506  11.496  10.921 -0.4073 -0.0205 -0.1246
31903SOL    HW1  266   1.420  11.535  10.939  0.8063  1.8697  2.2661
31903SOL    HW2  267   1.549  11.560  10.865 -0.0104 -0.1546  0.0279
31904SOL     OW  268   8.184  10.732   5.031 -0.1795 -0.4426  0.2733
31904SOL    HW1  269   8.123  10.805   5.028 -0.0150 -0.2448  1.3169
31904SOL    HW2  270   8.139  10.661   4.987 -0.1032  0.4497 -1.3035
31905SOL     OW  271   3.491   1.249   3.564  0.9236 -0.3787 -0.7134
31905SOL    HW1  272   3.411   1.282   3.604  0.4490 -2.7458  0.4750
31905SOL    HW2  273   3.540   1.328   3.539 -1.4033  1.1295 -0.8077
31906SOL     OW  274   3.746  10.362   7.929  0.4270  0.4980 -0.0356
31906SOL    HW1  275   3.752  10.284   7.985  1.1695  1.9542  2.0209
31906SOL    HW2  276   3.677  10.341   7.866  1.4145 -2.2738 -0.3351
31907SOL     OW  277  11.180  11.380   4.020 -0.1848  0.2376  0.5207
31907SOL    HW1  278  11.267  11.343   4.001 -0.5319 -1.7430  2.3265
31907SOL    HW2  279  11.195  11.437   4.095 -0.4437 -0.2985  0.9914
31908SOL     OW  280  10.249   1.818  10.251  0.4084  0.2993 -0.5684
31908SOL    HW1  281  10.199   1.820  10.333 -1.8400  2.3856 -1.8531
31908SOL    HW2  282  10.213   1.743  10.204  1.4785 -0.7050  0.1408
31909SOL     OW  283  11.589   8.327   1.210  0.7619  0.3197 -0.1122
31909SOL    HW1  284  11.530   8.358   1.140 -0.2065  0.7232  0.8425
31909SOL    HW2  285  11.596   8.402   1.269 -0.0640 -0.6380  1.2518
31910SOL     OW  286   6.063   1.568   4.273  0.0847 -0.1036 -0.1111
31910SOL    HW1  287   5.992   1.506   4.255 -1.2478  1.7804 -1.8753
31910SOL    HW2  288   6.030   1.652   4.241  1.7317  1.6115  2.3196
31911SOL     OW  289  10.625   7.058   0.536 -0.1455 -0.0515  0.4506
31911SOL    HW1  290  10.629   7.021   0.625 -2.2708 -0.5079  0.4154
31911SOL    HW2  291  10.648   6.985   0.479  1.0124  0.1858  0.5790
31912SOL     OW  292   7.572   7.416  10.965 -0.0799  0.2783  0.4744
31912SOL    HW1  293   7.564   7.474  10.890  4.3346  1.5447  0.7408
31912SOL    HW2  294   7.600   7.332  10.928 -1.0790 -0.1133  0.5494
31913SOL     OW  295   8.396   0.461  11.266  0.2022  0.4398 -0.0214
31913SOL    HW1  296   8.400   0.549  11.227 -0.4179  0.1228 -0.8231
31913SOL    HW2  297   8.310   0.458  11.309  0.3495  0.3293  0.2662
31914SOL     OW  298  12.115   8.719   3.925 -0.0903  0.5166  0.4302
31914SOL    HW1  299  12.145   8.714   3.834 -0.5202  0.7863  0.2707
31914SOL    HW2  300  12.195   8.728   3.977  0.3925 -2.0028  0.2919
31915SOL     OW  301  10.149   3.424  11.964 -0.0841  0.3205  1.1591
31915SOL    HW1  302  10.188   3.488  11.904  0.8694 -1.1882  0.1033
31915SOL    HW2  303  10.071   3.468  11.998  1.2455  2.5746  1.5655
31916SOL     OW  304  10.681   2.901   3.670 -0.1900 -0.3481 -0.2346
31916SOL    HW1  305  10.752   2.894   3.734 -0.8741 -0.0927  0.5647
31916SOL    HW2  306  10.716   2.959   3.602  1.7702 -3.1080 -1.8323
31917SOL     OW  307   3.165   8.845  10.314  0.1376  0.2089 -0.4142
31917SOL    HW1  308   3.151   8.909  10.244 -0.2510  0.7351  0.1349
31917SOL    HW2  309   3.077   8.831  10.351  0.1338 -1.0374 -0.8630
31918SOL     OW  310   4.569   7.701   0.857 -0.0141 -0.7726  0.4228
31918SOL    HW1  311   4.506   7.772   0.844  0.6549 -0.5771 -2.5476
31918SOL    HW2  312   4.649   7.732   0.815  0.2134 -3.3477 -1.2447
31919SOL     OW  313   9.175   2.959   8.772 -0.3761  0.1572  0.5812
31919SOL    HW1  314   9.208   2.876   8.806 -1.5099 -0.2972  0.6067
31919SOL    HW2  315   9.144   3.006   8.849  1.4923  1.2208  0.7508
31920SOL     OW  316   3.551   4.673   5.651  0.1878 -0.1581 -0.1636
31920SOL    HW1  317   3.592   4.682   5.566 -0.4752  2.3231 -0.2813
31920SOL    HW2  318   3.610   4.616   5.701  2.1048  0.7453 -1.3240
31921SOL     OW  319   7.410   2.461   2.168 -0.1384  0.3734 -0.2799
31921SOL    HW1  320   7.416   2.455   2.073  2.2108  0.5659 -0.1952
31921SOL    HW2  321   7.386   2.553   2.185 -2.2801 -0.0594 -0.6734
31922SOL     OW  322   5.807   2.490   4.690 -0.3882  0.4687 -0.1403
31922SOL    HW1  323   5.760   2.526   4.765  0.2504  0.6076  0.1998
31922SOL    HW2  324   5.808   2.560   4.626 -0.9923  0.3285 -0.3066
31923SOL     OW  325   1.220  11.992   5.607  0.1880 -0.1924  0.2567
31923SOL    HW1  326   1.235  12.069   5.662 -0.1322 -0.0783  0.1845
31923SOL    HW2  327   1.142  11.950   5.644 -0.8359  0.6155 -0.8882
31924SOL     OW  328   1.165   3.120   6.734 -0.1762 -0.2710 -0.0339
31924SOL    HW1  329   1.163   3.127   6.639 -0.7851  0.9745  0.0584
31924SOL    HW2  330   1.231   3.053   6.751  1.2960  0.7721 -1.2885
31925SOL     OW  331   0.721   4.828   5.477  0.6582 -0.5142 -0.0662
31925SOL    HW1  332   0.648   4.766   5.486  0.4407 -0.2362  0.0894
31925SOL    HW2  333   0.694   4.888   5.408  1.3103 -1.2002 -0.9616
31926SOL     OW  334   7.039   7.602   1.629  0.5255 -0.0146 -0.7025
31926SOL    HW1  335   7.108   7.624   1.566  1.7655  0.0339  0.6132
31926SOL    HW2  336   7.073   7.526   1.676 -0.5462 -0.2928 -0.3431
31927SOL     OW  337  10.321  10.682   4.988  0.0043  0.1150  0.9684
31927SOL    HW1  338  10.317  10.696   5.083  2.9194  1.9546  0.9727
31927SOL    HW2  339  10.334  10.770   4.953  0.9015 -0.7350 -0.9463
31928SOL     OW  340  11.650   5.497   0.296  0.1143 -0.2939 -0.2925
31928SOL    HW1  341  11.704   5.419   0.307 -0.2166 -0.5788 -0.6231
31928SOL    HW2  342  11.576   5.467   0.242  1.0436  0.7343 -2.2196
31929SOL     OW  343   9.716   8.212   7.702 -0.5357  0.3089 -0.2088
31929SOL    HW1  344   9.760   8.237   7.621 -1.3048  0.1517 -0.6840
31929SOL    HW2  345   9.626   8.194   7.676 -0.4200 -1.2858  0.4105
31930SOL     OW  346  11.545   1.788  11.691  0.0050 -1.0234  0.5124
31930SOL    HW1  347  11.632   1.822  11.672 -0.8599  2.5214  2.1100
31930SOL    HW2  348  11.485   1.850  11.650 -1.7650 -1.5098  2.1851
31931SOL     OW  349   0.285   0.086   3.457  0.2971 -0.2190 -0.1844
31931SOL    HW1  350   0.360   0.113   3.511 -0.3718  1.3026  0.0508
31931SOL    HW2  351   0.313   0.104   3.368  0.1777  0.4912 -0.0868
31932SOL     OW  352   9.883  11.241   9.822  0.9816 -0.6361 -0.7794
31932SOL    HW1  353   9.832  11.166   9.789  1.6413 -1.1425 -0.6801
31932SOL    HW2  354   9.912  11.213   9.909  1.1905 -0.2398 -0.7199
31933SOL     OW  355   7.312   0.453   9.898 -0.3169  0.6183 -0.1824
31933SOL    HW1  356   7.383   0.395   9.871 -0.4479  0.7466 -0.8119
31933SOL    HW2  357   7.232   0.406   9.875 -0.4740  0.1342  1.2164
31934SOL     OW  358   4.220   8.263   5.688 -0.3419  0.3198 -0.0263
31934SOL    HW1  359   4.152   8.293   5.747  0.2150  0.6911  0.4439
31934SOL    HW2  360   4.227   8.332   5.622 -1.2049 -0.2561 -0.7523
31935SOL     OW  361  10.250   4.735   6.618 -0.0218 -0.2048  0.5490
31935SOL    HW1  362  10.189   4.696   6.680  0.3569  0.9339  1.6552
31935SOL    HW2  363  10.238   4.829   6.627  0.6561  0.0041 -0.4902
31936SOL     OW  364   5.966   0.074   6.195  0.1312 -0.0004 -0.0396
31936SOL    HW1  365   6.040   0.023   6.228  0.8271 -0.2438 -1.8610
31936SOL    HW2  366   5.900   0.008   6.171  0.6403 -0.0107 -1.4719
31937SOL     OW  367   9.937  11.144   2.942 -0.2164  0.0465 -0.1326
31937SOL    HW1  368  10.014  11.118   2.993 -1.0052 -0.5204  0.8141
31937SOL    HW2  369   9.878  11.183   3.007 -0.7463  0.4452 -0.8371
31938SOL     OW  370   7.968   1.609   7.526  0.2769 -0.2459 -0.0394
31938SOL    HW1  371   7.977   1.696   7.566  2.4242 -1.4921  2.4522
31938SOL    HW2  372   7.953   1.550   7.600  0.9217 -2.2777 -1.4470
31939SOL     OW  373   1.622   3.483   3.421  0.6179  0.4962  0.1714
31939SOL    HW1  374   1.546   3.516   3.469  1.1405  0.4356  1.0544
31939SOL    HW2  375   1.591   3.475   3.330 -0.4239  0.4649  0.5179
31940SOL     OW  376  11.235   5.630  11.796 -0.0090 -0.2014  0.4372
31940SOL    HW1  377  11.151   5.627  11.750 -1.2078 -0.6467  2.5197
31940SOL    HW2  378  11.212   5.625  11.888  2.1015  3.2884  1.3268
31941SOL     OW  379   0.658   2.664  10.844  0.1154 -0.6967  0.0523
31941SOL    HW1  380   0.615   2.745  10.818  1.0192  0.0467  0.7889
31941SOL    HW2  381   0.640   2.656  10.938  2.2724  0.1399  0.6126
31942SOL     OW  382   1.298  11.969   7.580  0.1684 -0.3219  0.4436
31942SOL    HW1  383   1.324  12.052   7.621  0.9190 -1.0182  1.4363
31942SOL    HW2  384   1.271  11.914   7.653  1.1691 -1.4692 -0.0119
31943SOL     OW  385   8.538  10.425   1.445 -0.3252  0.3680 -0.0097
31943SOL    HW1  386   8.466  10.368   1.473  0.1195 -1.2150 -1.8645
31943SOL    HW2  387   8.596  10.429   1.520 -1.2558 -0.1661  0.7674
31944SOL     OW  388   6.864   1.347   0.528 -0.1878 -0.2299 -0.4946
31944SOL    HW1  389   6.937   1.390   0.484 -0.8865 -1.2894 -2.8347
31944SOL    HW2  390   6.812   1.309   0.457 -2.3555 -0.5551  1.1748
31945SOL     OW  391   2.791   1.532   1.826 -0.3479 -0.1554 -0.2723
31945SOL    HW1  392   2.745   1.449   1.832  1.0331 -0.8588  2.1115
31945SOL    HW2  393   2.722   1.598   1.828 -1.3700 -1.2097  1.1223
31946SOL     OW  394  10.638   4.395   4.318 -0.0736 -0.6429  0.1867
31946SOL    HW1  395  10.721   4.371   4.359 -0.2568  1.7136  2.1437
31946SOL    HW2  396  10.633   4.491   4.327 -2.5657 -0.5943 -0.7513
31947SOL     OW  397   3.095   9.505   7.158  0.2524 -0.2480 -0.3244
31947SOL    HW1  398   3.118   9.510   7.251  1.0683 -0.4581 -0.5072
31947SOL    HW2  399   3.000   9.520   7.156  0.1649 -0.6358  0.5752
31948SOL     OW  400   9.062   5.661   9.822 -0.1407 -0.2344  0.7579
31948SOL    HW1  401   9.040   5.574   9.787  0.6376 -0.1125 -0.0794
31948SOL    HW2  402   8.979   5.696   9.854 -0.7071 -0.7629 -0.0938
31949SOL     OW  403   8.369   8.258   3.080 -0.2543  0.1326 -0.1263
31949SOL    HW1  404   8.394   8.263   3.172 -0.0268  0.2693 -0.1938
31949SOL    HW2  405   8.431   8.317   3.035 -0.2338 -0.0886 -0.3905
31950SOL     OW  406   2.113   2.655   0.515 -0.2123  0.3404  0.4451
31950SOL    HW1  407   2.188   2.622   0.564  1.2824  1.4097 -1.0295
31950SOL    HW2  408   2.043   2.663   0.580  0.8036 -1.0575  1.7718
31951SOL     OW  409   9.481   8.932  10.192  0.0703 -0.6200 -0.3028
31951SOL    HW1  410   9.504   8.847  10.231 -0.4633 -0.8589 -0.4972
31951SOL    HW2  411   9.420   8.910  10.121 -0.5765 -0.0237  0.0567
31952SOL     OW  412  11.748   8.288   9.307  0.2659 -0.8024  0.4603
31952SOL    HW1  413  11.780   8.378   9.296 -1.6499 -0.2109 -0.8147
31952SOL    HW2  414  11.802   8.237   9.247 -0.0082 -0.1186 -0.3933
31953SOL     OW  415   7.546  10.681   6.522 -0.3367 -0.0848 -0.1508
31953SOL    HW1  416   7.572  10.725   6.440 -0.6437  0.3336 -0.0269
31953SOL    HW2  417   7.451  10.690   6.524 -0.1974  1.3961  1.0822
31954SOL     OW  418   8.837   2.584  10.023 -0.0431  0.0175 -0.0084
31954SOL    HW1  419   8.933   2.587  10.029 -0.0346 -0.8579  0.4025
31954SOL    HW2  420   8.807   2.584  10.114 -0.3560 -1.5411 -0.0891
31955SOL     OW  421   4.784  10.772   5.106 -0.7134 -0.0173  0.0480
31955SOL    HW1  422   4.787  10.831   5.031 -2.2858 -0.4080 -0.3543
31955SOL    HW2  423   4.875  10.746   5.119 -0.2714  0.8640 -1.0603
31956SOL     OW  424  11.280  10.265  10.094 -0.3445 -0.6018  0.1430
31956SOL    HW1  425  11.279  10.178  10.135 -3.2148 -1.6388 -1.8056
31956SOL    HW2  426  11.208  10.312  10.136 -2.4047 -1.1988 -2.4852
31957SOL     OW  427   1.900  11.042   6.708  0.1052  0.0259 -0.0472
31957SOL    HW1  428   1.866  10.986   6.777 -1.2374  0.8931  0.0305
31957SOL    HW2  429   1.984  11.003   6.684  0.8812  0.0238  2.4524
31958SOL     OW  430   0.074   6.564   7.751 -0.1434 -0.3745 -0.0781
31958SOL    HW1  431   0.132   6.577   7.676  1.5593  1.3452  1.4116
31958SOL    HW2  432  -0.014   6.566   7.715  0.5398  1.9876 -1.8804
31959SOL     OW  433   0.624   8.362   6.738  0.5081  0.2158  0.2200
31959SOL    HW1  434   0.554   8.355   6.803 -0.1043  1.1189 -0.3199
31959SOL    HW2  435   0.589   8.421   6.672  0.4407 -1.9357 -1.8159
31960SOL     OW  436   4.426   6.592   6.732  0.7143  0.2258  0.0051
31960SOL    HW1  437   4.456   6.537   6.660 -0.1418  0.1480 -0.3106
31960SOL    HW2  438   4.333   6.570   6.741  0.0480  2.4154 -0.8777
31961SOL     OW  439  11.024   5.717   7.071  0.2367  0.5040  0.1041
31961SOL    HW1  440  11.049   5.698   7.161  1.1738 -0.8291 -0.4106
31961SOL    HW2  441  10.979   5.638   7.041  2.3192 -0.2001 -1.4323
31962SOL     OW  442   1.041  11.109   4.129 -0.3957  0.1913 -0.1639
31962SOL    HW1  443   1.097  11.187   4.121 -1.3531  0.8899 -0.2891
31962SOL    HW2  444   1.050  11.064   4.045  1.1685 -0.5593  0.3648
31963SOL     OW  445   3.157  11.138   8.475 -0.2263  0.1813 -0.0206
31963SOL    HW1  446   3.152  11.069   8.540  0.0250 -0.5558 -0.7606
31963SOL    HW2  447   3.249  11.140   8.449  0.0419  1.6946  0.9181
31964SOL     OW  448   8.527   1.947  10.761  0.2161  0.3889 -0.5331
31964SOL    HW1  449   8.608   1.983  10.797  0.5854  0.4777 -1.4363
31964SOL    HW2  450   8.539   1.949  10.666 -0.2322 -0.9854 -0.6520
31965SOL     OW  451   4.558   7.545   2.751 -0.2221  0.6976  0.0437
31965SOL    HW1  452   4.611   7.468   2.730 -0.8283  0.5276 -0.9094
31965SOL    HW2  453   4.622   7.612   2.773  0.3769  0.3421 -0.5634
31966SOL     OW  454   1.135   1.763  10.825 -0.7436 -0.1910 -0.4998
31966SOL    HW1  455   1.068   1.728  10.884 -1.1180 -2.6110 -2.2020
31966SOL    HW2  456   1.174   1.686  10.785  0.7938  1.2902 -2.0163
31967SOL     OW  457   3.189   3.099   1.578  0.0395 -0.2490 -0.0651
31967SOL    HW1  458   3.270   3.081   1.625  0.1752 -0.8156 -0.5064
31967SOL    HW2  459   3.159   3.183   1.612  2.1511  1.2878 -1.6927
31968SOL     OW  460  11.218   5.032  10.335 -0.4082  0.8943 -0.0120
31968SOL    HW1  461  11.160   4.976  10.284  2.4198 -2.1168 -0.2010
31968SOL    HW2  462  11.262   5.087  10.270  1.9060 -1.7305 -0.8764
31969SOL     OW  463  10.185   5.744   0.037 -0.4202 -0.2360  0.1239
31969SOL    HW1  464  10.218   5.708   0.119 -0.9251 -0.7666  0.1019
31969SOL    HW2  465  10.114   5.803   0.064 -0.6121 -0.4403  0.0696
31970SOL     OW  466   0.711   6.272   9.244  0.2178  0.1320 -0.3663
31970SOL    HW1  467   0.789   6.327   9.231 -0.0764  0.4913 -0.6069
31970SOL    HW2  468   0.643   6.315   9.193 -0.0419 -0.4034 -0.4658
31971SOL     OW  469   6.435   5.704   5.154  0.3421 -0.4195  0.1638
31971SOL    HW1  470   6.404   5.788   5.119  1.6111 -0.7034 -1.7737
31971SOL    HW2  471   6.358   5.648   5.154  0.0456 -0.0644 -1.2318
31972SOL     OW  472   4.758   4.271   1.536 -0.4433  0.3438  0.1761
31972SOL    HW1  473   4.851   4.280   1.560 -0.3155  0.8113 -0.4444
31972SOL    HW2  474   4.759   4.265   1.440 -1.0529  0.2919  0.1697
31973SOL     OW  475   8.707   3.834   8.091 -0.4068 -0.0507  0.4730
31973SOL    HW1  476   8.745   3.749   8.114  1.2156  0.2906 -0.7414
31973SOL    HW2  477   8.613   3.818   8.088 -0.1587 -1.7376  0.5645
31974SOL     OW  478   2.489   9.757  10.531  0.1091  0.7831  0.3643
31974SOL    HW1  479   2.525   9.841  10.559  0.3999  0.4723  0.9553
31974SOL    HW2  480   2.558   9.717  10.478 -0.0753  0.9629 -0.0177
31975SOL     OW  481  10.653   5.111   7.791  0.2621  0.0762 -0.0799
31975SOL    HW1  482  10.658   5.116   7.696 -0.8381  1.9050 -0.0844
31975SOL    HW2  483  10.744   5.116   7.820  0.5284  0.8439 -1.0038
31976SOL     OW  484   0.128   4.379   6.629 -0.1982 -0.0262 -0.1483
31976SOL    HW1  485   0.206   4.346   6.585 -0.1997 -0.0124 -0.1614
31976SOL    HW2  486   0.159   4.453   6.681 -0.7184  2.1246 -2.6854
31977SOL     OW  487   2.692  10.184  11.291  0.0135  0.5400  0.1481
31977SOL    HW1  488   2.620  10.122  11.278 -0.9258  1.0939  2.2209
31977SOL    HW2  489   2.648  10.268  11.307  1.1932  1.2416 -0.1796
31978SOL     OW  490  11.781   2.106   5.345  0.3728  0.2465 -0.2615
31978SOL    HW1  491  11.862   2.084   5.390 -0.6468 -1.9035  0.6924
31978SOL    HW2  492  11.726   2.147   5.413 -0.4053 -1.0672 -0.0712
31979SOL     OW  493   0.387   4.762   9.947  0.0445  0.1325 -0.2522
31979SOL    HW1  494   0.434   4.841   9.920  1.4154  0.2800  2.2695
31979SOL    HW2  495   0.416   4.746  10.037 -2.7096 -1.3562  0.5041
31980SOL     OW  496   7.711   1.464   3.216 -0.4741 -0.1475 -0.0305
31980SOL    HW1  497   7.766   1.414   3.277 -0.6950 -1.2319 -0.6894
31980SOL    HW2  498   7.771   1.528   3.177 -0.1624  0.0676  0.7766
31981SOL     OW  499   6.084  10.850   0.984  0.3517  0.3838 -0.4129
31981SOL    HW1  500   6.077  10.936   0.943  1.9506  0.2042 -1.1680
31981SOL    HW2  501   6.140  10.800   0.925  1.3291 -0.4486  1.1449
31982SOL     OW  502  11.828   4.860   0.571 -0.0600 -0.1340  0.4094
31982SOL    HW1  503  11.804   4.787   0.628  0.7865 -0.3097  0.5630
31982SOL    HW2  504  11.795   4.938   0.616  0.3545 -0.2956  1.0135
31983SOL     OW  505   2.684   5.974   9.975  0.3889 -0.4334  0.6663
31983SOL    HW1  506   2.601   5.939  10.007  0.4484  0.0090  1.3156
31983SOL    HW2  507   2.734   5.995  10.054  0.3604  1.0906  0.3119
31984SOL     OW  508   8.852   6.967   9.899 -0.0213  0.2349 -0.2312
31984SOL    HW1  509   8.938   6.970   9.942  0.2641 -1.6049 -0.5733
31984SOL    HW2  510   8.807   7.046   9.929  1.5686  0.9499  0.4151
31985SOL     OW  511  10.063   3.338  10.761  0.7965 -0.4794 -0.3215
31985SOL    HW1  512  10.143   3.295  10.730  1.7605  1.8602 -1.3428
31985SOL    HW2  513  10.094   3.403  10.825 -0.4304 -0.3375  0.1562
31986SOL     OW  514   0.695   5.276  11.486  0.1720  0.1964 -0.0991
31986SOL    HW1  515   0.745   5.326  11.552  1.1511  0.7164 -1.1955
31986SOL    HW2  516   0.644   5.214  11.537  0.0769  1.3043  1.2293
31987SOL     OW  517   5.735   4.275   0.478  0.2440  0.4789  0.3209
31987SOL    HW1  518   5.758   4.269   0.385 -0.0419 -0.6111  0.3080
31987SOL    HW2  519   5.666   4.211   0.490  0.2013  0.6869  1.2720
31988SOL     OW  520   5.643   8.561   4.537  0.2195 -0.3384  0.6248
31988SOL    HW1  521   5.610   8.483   4.492 -0.9186 -1.1213  2.7089
31988SOL    HW2  522   5.567   8.616   4.550  0.8176  0.6084  0.2056
31989SOL     OW  523   6.877  10.609   4.696 -0.1718 -0.2715  0.0854
31989SOL    HW1  524   6.886  10.690   4.647 -1.1675 -0.4199 -0.3800
31989SOL    HW2  525   6.797  10.569   4.661 -0.8317 -0.4653  1.7201
31990SOL     OW  526   9.676   4.665   6.972  0.4326  0.0859  0.4096
31990SOL    HW1  527   9.639   4.589   7.018 -1.3841  0.4079 -0.4182
31990SOL    HW2  528   9.627   4.740   7.006  1.2369  0.7155  0.2046
31991SOL     OW  529   3.656   6.642  10.643 -0.2749 -0.4472 -0.1193
31991SOL    HW1  530   3.725   6.703  10.669 -0.6633 -0.1965  0.3397
31991SOL    HW2  531   3.593   6.645  10.715 -1.3959  0.2938 -1.0900
31992SOL     OW  532  10.334   7.923   5.394 -0.2766  0.2147 -0.2593
31992SOL    HW1  533  10.300   7.887   5.312 -2.3010  0.3442  0.4548
31992SOL    HW2  534  10.257   7.930   5.450  1.0222  0.3205  1.5957
31993SOL     OW  535  11.820   1.492  10.057  0.0366 -0.2729 -0.1153
31993SOL    HW1  536  11.861   1.415  10.099 -0.6574 -1.1115 -0.9396
31993SOL    HW2  537  11.727   1.484  10.080 -0.1588 -0.1020 -0.8501
31994SOL     OW  538   8.739   6.944   6.033 -0.2958  0.2812  0.1516
31994SOL    HW1  539   8.750   6.950   5.938 -0.4052 -0.9558  0.0379
31994SOL    HW2  540   8.828   6.926   6.065  0.0427  2.3155  0.4749
31995SOL     OW  541  11.833  11.762   8.963  0.3788 -0.1354 -0.1984
31995SOL    HW1  542  11.813  11.768   9.057  2.2671  0.1018  0.2279
31995SOL    HW2  543  11.929  11.755   8.959  0.3612  0.1757 -2.1345
31996SOL     OW  544   9.055   2.061   6.333  0.2579  0.4353  0.4994
31996SOL    HW1  545   8.993   2.062   6.260  0.7337  0.0372  0.0870
31996SOL    HW2  546   9.012   2.113   6.401  0.4027  1.9599 -0.5428
31997SOL     OW  547   0.107   0.035   5.552  0.3899 -0.2320 -0.8474
31997SOL    HW1  548   0.168   0.086   5.498 -0.9234  1.4934 -0.7867
31997SOL    HW2  549   0.020   0.070   5.530 -0.5807 -2.2498 -0.5543
31998SOL     OW  550   8.497   3.262   4.442 -0.1631  0.1884  0.0776
31998SOL    HW1  551   8.549   3.316   4.383 -0.5938  0.4218 -0.0958
31998SOL    HW2  552   8.413   3.308   4.448 -1.0921 -1.2426 -1.2627
31999SOL     OW  553  10.571   4.346  10.004  0.5608  0.4394  0.3748
31999SOL    HW1  554  10.602   4.286   9.937 -0.8727  0.3258 -0.2165
31999SOL    HW2  555  10.537   4.421   9.956 -0.2616  0.4660  0.9688
32000SOL     OW  556   8.523   8.377   0.603 -0.1103 -0.7310  0.3873
32000SOL    HW1  557   8.557   8.317   0.537  1.5230  0.7082 -0.1787
32000SOL    HW2  558   8.500   8.456   0.554  0.2466  0.0248  1.3955
32001SOL     OW  559   1.773   9.621   1.438  0.5026  0.3394  0.2909
32001SOL    HW1  560   1.723   9.691   1.481  1.4007  1.5473 -0.5644
32001SOL    HW2  561   1.858   9.624   1.481 -0.1983 -2.0359  2.0850
32002SOL     OW  562   4.836   4.771   4.063  0.0634 -0.4477  0.0183
32002SOL    HW1  563   4.879   4.692   4.097  1.8172  0.1592 -0.6919
32002SOL    HW2  564   4.746   4.744   4.049  0.5206 -2.2247  0.1747
32003SOL     OW  565  11.271  10.906   0.140 -0.2082  0.0774 -0.2599
32003SOL    HW1  566  11.329  10.839   0.176 -0.8714 -1.0748 -1.2512
32003SOL    HW2  567  11.187  10.891   0.182  0.4248  2.6816  2.3096
32004SOL     OW  568   3.860  11.236  10.771  0.3834  0.1876  0.1852
32004SOL    HW1  569   3.818  11.185  10.840  0.2892  0.2356  0.1636
32004SOL    HW2  570   3.945  11.261  10.807  0.3925  0.0917  0.2296
32005SOL     OW  571   0.148   2.983   0.878  0.5917  0.0084 -0.1143
32005SOL    HW1  572   0.153   2.945   0.966 -0.6749 -0.1251 -0.0824
32005SOL    HW2  573   0.219   2.940   0.829  1.9659  0.8152  1.0914
32006SOL     OW  574   0.390   8.534   7.741 -0.2512  0.3660  0.3527
32006SOL    HW1  575   0.477   8.495   7.754 -0.7396 -0.7864  0.2943
32006SOL    HW2  576   0.392   8.568   7.652  0.2106  0.5280  0.4212
32007SOL     OW  577  11.824   7.004   5.145  0.0116  0.3718  0.2379
32007SOL    HW1  578  11.875   6.990   5.225  3.3829  0.9699 -1.6364
32007SOL    HW2  579  11.805   6.916   5.113  0.0943  0.1395  0.8080
32008SOL     OW  580   0.781  10.625   4.037 -0.0364 -0.3082 -0.2946
32008SOL    HW1  581   0.801  10.640   4.130  0.6374  0.1651 -0.5034
32008SOL    HW2  582   0.760  10.532   4.031 -1.3920 -0.0857  0.5578
32009SOL     OW  583   3.448  11.156   0.141 -0.0095 -0.0295  0.4379
32009SOL    HW1  584   3.514  11.137   0.208  1.0834  0.3852 -0.4959
32009SOL    HW2  585   3.432  11.072   0.098 -0.3846 -0.2032  0.8953
32010SOL     OW  586   0.102   9.854   7.953 -0.2254 -0.1387 -0.2423
32010SOL    HW1  587   0.180   9.905   7.931  0.3058  0.0551  1.8586
32010SOL    HW2  588   0.029   9.910   7.929  0.2088 -0.4671 -2.5843
32011SOL     OW  589  11.203   8.728   6.117  0.6836  0.3670 -0.1081
32011SOL    HW1  590  11.124   8.773   6.147  1.0782  1.5588 -0.7482
32011SOL    HW2  591  11.229   8.674   6.191  0.2289  1.2922  0.7611
32012SOL     OW  592   9.407   5.662   6.452  0.1882  0.2327  0.3233
32012SOL    HW1  593   9.334   5.678   6.512  0.6762  1.7614  0.5443
32012SOL    HW2  594   9.458   5.742   6.454 -0.2390  0.7195 -2.7997
32013SOL     OW  595  10.342   3.714   8.064  0.1293 -0.7997 -0.0889
32013SOL    HW1  596  10.304   3.711   7.976  0.2428  0.2339 -0.1815
32013SOL    HW2  597  10.416   3.773   8.056 -0.8994  0.7403  1.0758
32014SOL     OW  598   1.605   7.755   4.751 -0.4498  0.1072  0.3147
32014SOL    HW1  599   1.645   7.671   4.728  1.3869  1.3606 -1.3988
32014SOL    HW2  600   1.666   7.795   4.812 -1.4414  0.1302  1.3266
32015SOL     OW  601   6.032  12.047   2.586 -0.6146  0.1532  0.1222
32015SOL    HW1  602   6.072  12.123   2.628 -1.2073  0.3071  0.4157
32015SOL    HW2  603   5.943  12.074   2.567 -0.9818 -0.6413  0.6826
32016SOL     OW  604   6.079   7.876   3.337 -0.3281  0.2926 -0.3755
32016SOL    HW1  605   6.017   7.916   3.397  0.7465  0.7742  0.4403
32016SOL    HW2  606   6.058   7.782   3.341 -0.5472  0.3636  0.4405
32017SOL     OW  607   0.411  10.795   2.414  0.0604 -0.2566 -0.1283
32017SOL    HW1  608   0.474  10.760   2.351 -1.5583 -0.6972 -1.5915
32017SOL    HW2  609   0.335  10.820   2.361 -0.9622  0.3608  1.5393
32018SOL     OW  610   3.232   2.344   1.601 -0.6411  0.8072  0.0776
32018SOL    HW1  611   3.235   2.253   1.572  0.5184  0.5947  0.7813
32018SOL    HW2  612   3.143   2.356   1.633 -0.9857  0.1042 -0.5815
32019SOL     OW  613   1.795   6.713   6.651 -0.2928  0.1121 -0.0322
32019SOL    HW1  614   1.756   6.664   6.579 -0.5377 -0.6143  0.5685
32019SOL    HW2  615   1.886   6.684   6.654 -0.3182  0.0369  0.0296
32020SOL     OW  616   7.542   8.966   4.158 -0.0177  0.2918  0.1579
32020SOL    HW1  617   7.509   8.900   4.097  0.8760 -0.5492  0.5568
32020SOL    HW2  618   7.467   9.024   4.173 -1.6137 -1.9607  1.6425
32021SOL     OW  619   3.901   8.157   4.249 -0.3224  0.4105 -0.3452
32021SOL    HW1  620   3.861   8.110   4.176  0.4985  1.3368 -1.4155
32021SOL    HW2  621   3.826   8.183   4.304 -0.7621 -3.9247  1.5481
32022SOL     OW  622  10.603   4.344   0.658 -0.1126  0.1851 -0.1304
32022SOL    HW1  623  10.577   4.411   0.594  0.2515  1.6428  1.2001
32022SOL    HW2  624  10.521   4.313   0.695 -0.2179  2.3722  1.6591
32023SOL     OW  625   6.707   1.598   6.232 -0.3300 -0.0111  0.0755
32023SOL    HW1  626   6.713   1.528   6.167 -0.0359 -0.7020  0.8173
32023SOL    HW2  627   6.660   1.669   6.188  1.1499  0.1232 -1.3599
32024SOL     OW  628   2.532  11.620   0.779 -0.5474  0.6589 -0.0467
32024SOL    HW1  629   2.546  11.712   0.803 -0.8950  0.3339  1.5182
32024SOL    HW2  630   2.511  11.577   0.862  0.0250 -0.9216 -0.6979
32025SOL     OW  631   9.437   2.421   6.538 -0.1776  0.7312 -0.0103
32025SOL    HW1  632   9.357   2.405   6.487  0.4113  0.1967 -0.7897
32025SOL    HW2  633   9.412   2.491   6.599 -2.2439 -1.6291  2.1023
32026SOL     OW  634   7.469   2.141   4.221 -0.4853 -0.0052  0.7311
32026SOL    HW1  635   7.444   2.231   4.238 -0.1458  0.4415 -0.8990
32026SOL    HW2  636   7.411   2.113   4.150  2.0573  0.3711 -1.6817
32027SOL     OW  637   8.628   1.763  11.356  0.1319 -0.1304  0.7442
32027SOL    HW1  638   8.627   1.671  11.328 -0.5066 -0.2724  1.1958
32027SOL    HW2  639   8.715   1.776  11.392  0.7395 -0.1274 -0.6699
32028SOL     OW  640   8.161   9.411   4.193 -0.6548  0.3544  0.4921
32028SOL    HW1  641   8.198   9.333   4.234 -0.8089  0.5264  0.9669
32028SOL    HW2  642   8.068   9.409   4.219 -1.3344 -0.8070 -1.7714
32029SOL     OW  643   3.254  10.642  11.850 -0.0592 -0.0395 -0.4860
32029SOL    HW1  644   3.265  10.723  11.798 -0.4924 -0.4659 -1.2623
32029SOL    HW2  645   3.189  10.665  11.916 -1.5794 -0.2569 -1.8490
32030SOL     OW  646   2.070   0.213   2.649  0.0314  0.5191  0.1838
32030SOL    HW1  647   2.138   0.148   2.637  0.4821  1.1254 -0.6592
32030SOL    HW2  648   2.026   0.187   2.730  1.6530  0.4801  1.0927
32031SOL     OW  649   8.860   0.808   0.237  0.3108  0.8875  0.1251
32031SOL    HW1  650   8.867   0.742   0.168  2.3850  0.6549  0.5083
32031SOL    HW2  651   8.897   0.887   0.199 -0.5073  1.3561  0.2802
32032SOL     OW  652   4.002   3.418   4.966 -0.2457 -0.5736  0.0409
32032SOL    HW1  653   4.004   3.366   4.886  0.8276  0.0889 -0.3794
32032SOL    HW2  654   3.941   3.489   4.947 -1.2297 -1.2889  0.3987
32033SOL     OW  655  11.390  10.745  11.556 -0.4826  0.3090  0.3027
32033SOL    HW1  656  11.343  10.666  11.533  1.5315 -1.1519  0.8694
32033SOL    HW2  657  11.420  10.782  11.473 -2.8404  1.5107 -0.1038
32034SOL     OW  658   5.614   8.963   7.796  0.1730  0.3450 -0.1511
32034SOL    HW1  659   5.629   8.878   7.835  0.6050 -0.3896 -1.8455
32034SOL    HW2  660   5.537   8.951   7.740  1.1117  0.6399 -1.5607
32035SOL     OW  661   4.119   7.942   4.010  0.5629 -0.3579 -0.1068
32035SOL    HW1  662   4.176   7.878   4.052 -0.3819 -1.0331  0.1832
32035SOL    HW2  663   4.031   7.905   4.018 -0.1711  1.4916  1.0466
32036SOL     OW  664   1.700   5.408   8.933  0.6222 -0.1625  0.2639
32036SOL    HW1  665   1.736   5.322   8.909 -0.3050 -0.7206  0.8116
32036SOL    HW2  666   1.759   5.471   8.892  1.3805 -1.0609 -0.0640
32037SOL     OW  667  10.723   6.339   0.963  0.2340  0.3840  0.4273
32037SOL    HW1  668  10.647   6.286   0.936  0.1917  0.2284  0.8573
32037SOL    HW2  669  10.685   6.412   1.011  0.2599  1.0403 -0.5211
32038SOL     OW  670   7.890   8.354  11.490 -0.0760  0.0244  0.1812
32038SOL    HW1  671   7.881   8.365  11.585  1.1296 -1.5708  0.5114
32038SOL    HW2  672   7.832   8.421  11.453  0.5082  1.6365  2.0122
32039SOL     OW  673   3.300   1.534  10.402  0.0217  0.1314 -0.1251
32039SOL    HW1  674   3.280   1.447  10.435  1.5192 -0.2702 -0.2025
32039SOL    HW2  675   3.354   1.574  10.471 -1.2075  1.2920  0.2324
32040SOL     OW  676   3.512   1.092   4.822  0.4388  0.2535  0.0240
32040SOL    HW1  677   3.512   0.998   4.838  0.5321  0.3640  0.7332
32040SOL    HW2  678   3.579   1.105   4.754  0.2156 -0.2195 -0.2916
32041SOL     OW  679   7.735   4.590   0.222 -0.0235 -0.4751 -0.1675
32041SOL    HW1  680   7.669   4.650   0.255 -0.7648 -0.6054 -1.3610
32041SOL    HW2  681   7.737   4.606   0.127  1.1185 -0.9999 -0.2492
32042SOL     OW  682  10.932   8.711  10.563 -0.1346 -0.0166  0.0166
32042SOL    HW1  683  10.936   8.800  10.597  1.7192  0.2770 -0.8311
32042SOL    HW2  684  10.974   8.657  10.630 -0.4718 -0.1277  0.1416
32043SOL     OW  685   0.983   8.672   6.485 -0.0509 -0.2164  0.3753
32043SOL    HW1  686   0.991   8.721   6.567  0.7828 -0.2517  0.3308
32043SOL    HW2  687   0.902   8.704   6.445  1.2104  2.3024 -0.3806
32044SOL     OW  688  10.964   2.530   4.912  0.1352 -0.0330 -0.6296
32044SOL    HW1  689  11.000   2.444   4.887 -0.5653 -0.0852 -1.5377
32044SOL    HW2  690  10.928   2.564   4.830  0.7430  1.3029 -0.3544
32045SOL     OW  691  10.099   2.806   4.435  0.0814  0.2873  0.0599
32045SOL    HW1  692  10.121   2.808   4.342 -3.8784 -1.2439 -1.1503
32045SOL    HW2  693  10.085   2.713   4.454 -2.0384  0.7868  1.3013
32046SOL     OW  694   2.153   3.116   2.674 -0.4768  0.4455 -0.1237
32046SOL    HW1  695   2.140   3.208   2.697  3.0360  0.8363  0.9270
32046SOL    HW2  696   2.168   3.073   2.759 -0.7703 -0.8636 -0.7145
32047SOL     OW  697   4.057   0.693   8.236 -0.4132  0.8032 -0.1034
32047SOL    HW1  698   4.113   0.717   8.162  2.6799 -0.7199  1.5153
32047SOL    HW2  699   4.058   0.597   8.236  0.8243  0.7310  2.5607
32048SOL     OW  700   8.148   5.151  10.386 -0.2119 -0.0709  0.1787
32048SOL    HW1  701   8.235   5.130  10.418 -0.3865 -0.7963  0.1926
32048SOL    HW2  702   8.099   5.070  10.393 -0.6042  0.0662 -0.7695
32049SOL     OW  703   9.914   8.166   8.789  0.3773  0.2180  0.0997
32049SOL    HW1  704   9.835   8.179   8.841  0.1041 -0.6526 -0.0882
32049SOL    HW2  705   9.944   8.254   8.768 -0.6966  0.5514 -0.0687
32050SOL     OW  706   0.050  11.873  10.912 -0.2374 -0.1991  0.2934
32050SOL    HW1  707   0.079  11.885  11.003 -1.4492 -1.1363  0.8382
32050SOL    HW2  708  -0.004  11.950  10.894 -0.6685 -0.4099  0.6640
32051SOL     OW  709   0.909   0.680  11.161 -0.2206  0.1693 -1.0334
32051SOL    HW1  710   0.976   0.749  11.161 -1.0782  1.0353 -0.5370
32051SOL    HW2  711   0.917   0.638  11.246 -0.2956  0.2600 -0.9814
32052SOL     OW  712   7.450   0.652   0.856  0.0605 -0.3979  0.0465
32052SOL    HW1  713   7.378   0.593   0.832  0.5912 -0.7324 -0.7844
32052SOL    HW2  714   7.409   0.719   0.910 -0.4825 -1.7857  1.4447
32053SOL     OW  715   4.011   4.297   8.170  0.0802 -0.0770  0.2051
32053SOL    HW1  716   3.972   4.373   8.126 -2.1387 -0.0372  2.0271
32053SOL    HW2  717   4.073   4.334   8.233  0.1253  0.1370  0.0338
32054SOL     OW  718   2.345  10.796   9.098 -0.1504  0.5682  0.1877
32054SOL    HW1  719   2.352  10.869   9.036 -0.7655 -0.5622 -1.2631
32054SOL    HW2  720   2.253  10.769   9.094  0.5300 -1.8448 -1.2003
32055SOL     OW  721   3.986   5.145   9.842 -0.3154  0.3043 -0.0367
32055SOL    HW1  722   4.039   5.224   9.832 -0.1705  0.2526  0.2907
32055SOL    HW2  723   4.035   5.091   9.905 -1.6043  1.0267  1.6774
32056SOL     OW  724   1.654   7.064   7.903  0.4597 -0.2711 -0.4956
32056SOL    HW1  725   1.641   6.975   7.869 -1.7688 -0.3179  0.3654
32056SOL    HW2  726   1.701   7.109   7.832 -1.1221 -1.2827 -2.2843
32057SOL     OW  727   8.274   3.922   5.957 -0.5842  0.3786  0.7556
32057SOL    HW1  728   8.299   3.986   5.890  0.7642 -1.0751 -0.2096
32057SOL    HW2  729   8.210   3.866   5.914 -0.0598 -0.2791  0.8062
32058SOL     OW  730   9.204   8.089   9.878 -0.4656 -0.0061 -0.3526
32058SOL    HW1  731   9.226   8.139   9.800 -1.8393 -0.4692 -1.0715
32058SOL    HW2  732   9.108   8.091   9.882 -0.4278  1.1281  2.0703
32059SOL     OW  733   8.283   7.851   4.137 -0.0943 -0.2652  0.1226
32059SOL    HW1  734   8.329   7.767   4.136 -0.5794 -0.5311 -0.2197
32059SOL    HW2  735   8.282   7.877   4.230  0.2887 -0.5080  0.1951
32060SOL     OW  736  11.484   2.230   2.451  0.0981 -0.3724 -0.1325
32060SOL    HW1  737  11.525   2.147   2.427  0.4871 -0.1044 -0.4118
32060SOL    HW2  738  11.427   2.208   2.525  0.3389 -0.8491 -0.0829
32061SOL     OW  739   3.254   3.480   9.863  0.7320 -0.2216 -0.5800
32061SOL    HW1  740   3.180   3.496   9.921  0.3332  1.4412 -1.4848
32061SOL    HW2  741   3.215   3.472   9.776  1.5873  0.5929 -1.0575
32062SOL     OW  742   9.414  11.272   5.987  0.4639  0.0549 -0.4665
32062SOL    HW1  743   9.430  11.190   5.939 -0.6399  0.0402 -0.8402
32062SOL    HW2  744   9.378  11.244   6.071  0.3065  0.1383 -0.5041
32063SOL     OW  745   0.072   2.135   2.021 -0.5756  0.1514  0.0818
32063SOL    HW1  746   0.073   2.202   1.953 -1.0758  1.3187  1.1817
32063SOL    HW2  747   0.164   2.121   2.043 -0.4557  0.3154 -0.3118
32064SOL     OW  748   8.722  10.801  11.329  0.0896 -0.0631  0.5211
32064SOL    HW1  749   8.678  10.768  11.251  1.2021  0.3278 -0.2987
32064SOL    HW2  750   8.814  10.777  11.316  0.1432 -0.8888  2.1968
32065SOL     OW  751   8.380   6.592  11.193 -0.2942  0.2017  0.0979
32065SOL    HW1  752   8.305   6.534  11.180  0.6467 -0.8625 -0.7815
32065SOL    HW2  753   8.360   6.638  11.275 -1.5570 -0.5831  0.2687
32066SOL     OW  754  12.122   6.174   7.760  0.3111  0.0192 -0.1290
32066SOL    HW1  755  12.067   6.215   7.693  0.9627  2.1356  0.5285
32066SOL    HW2  756  12.085   6.087   7.772 -0.8693  0.2055 -1.9966
32067SOL     OW  757   3.534   7.610   3.433 -0.0591  0.3338  0.0068
32067SOL    HW1  758   3.604   7.673   3.452  0.6501 -0.3910 -0.1192
32067SOL    HW2  759   3.484   7.651   3.362 -0.3728  1.3077  0.7734
32068SOL     OW  760   5.958   3.546   1.315 -0.2000  0.1201  0.4209
32068SOL    HW1  761   5.952   3.500   1.399  2.6522  2.8119  2.3497
32068SOL    HW2  762   6.052   3.554   1.299 -0.5895  2.8272 -1.1417
32069SOL     OW  763  12.020  12.029  11.356 -0.1980 -0.0776  0.1089
32069SOL    HW1  764  11.954  12.096  11.369 -0.9285 -0.2633 -2.1601
32069SOL    HW2  765  12.103  12.076  11.362 -0.5716  0.4882  1.2041
32070SOL     OW  766   4.418   3.451   6.625 -0.0939 -0.3787  0.4146
32070SOL    HW1  767   4.480   3.425   6.692  0.9885 -0.1935 -0.4880
32070SOL    HW2  768   4.332   3.443   6.667  0.5067 -0.9980  1.5608
32071SOL     OW  769   1.857   9.507  10.058 -0.8794  0.0953  0.0922
32071SOL    HW1  770   1.822   9.508   9.968  1.0458  1.2067 -0.6917
32071SOL    HW2  771   1.872   9.599  10.079 -3.1277  0.0415  2.3776
32072SOL     OW  772  10.450   3.206   6.346  0.4458 -0.5249 -0.0631
32072SOL    HW1  773  10.360   3.178   6.328 -0.7144  1.9942  1.2501
32072SOL    HW2  774  10.469   3.171   6.434  0.5699 -0.6495 -0.1389
32073SOL     OW  775   8.811   6.074   0.067  0.4144  0.3708  0.4532
32073SOL    HW1  776   8.816   6.100   0.159 -0.2958  1.1605  0.2813
32073SOL    HW2  777   8.785   5.982   0.069 -1.0454  0.7689  1.0378
32074SOL     OW  778   8.363   0.173   1.652 -0.4116 -0.3023  0.2513
32074SOL    HW1  779   8.317   0.148   1.572  0.2028  2.1288 -0.9432
32074SOL    HW2  780   8.422   0.100   1.670 -0.3197 -0.7561 -1.6993
32075SOL     OW  781   5.688   3.292   3.975  0.5468 -0.0052 -0.0586
32075SOL    HW1  782   5.644   3.340   3.905  0.7138 -0.0716 -0.2093
32075SOL    HW2  783   5.721   3.213   3.932  2.8818  1.1203 -0.5049
32076SOL     OW  784   2.925   1.391   4.630 -0.1923 -0.2359  0.3541
32076SOL    HW1  785   2.868   1.349   4.695 -0.1772 -1.8361 -0.6111
32076SOL    HW2  786   3.005   1.412   4.679 -1.0206  0.6859  1.3697
32077SOL     OW  787   7.719   5.701   7.323 -0.4116  0.3739 -0.1092
32077SOL    HW1  788   7.682   5.632   7.267 -0.3850 -0.5371  0.9565
32077SOL    HW2  789   7.662   5.776   7.311  1.6618  1.5966 -4.3194
32078SOL     OW  790   4.283   5.247   5.590  0.0111 -0.0153 -0.0658
32078SOL    HW1  791   4.218   5.176   5.596 -0.2160  0.0508 -1.3503
32078SOL    HW2  792   4.238   5.316   5.541  0.2837  0.9746  1.0505
32079SOL     OW  793   7.943   7.776   0.590 -0.4808 -0.0363  1.1938
32079SOL    HW1  794   7.868   7.801   0.537 -0.8427  0.8860  2.1054
32079SOL    HW2  795   7.911   7.703   0.644 -0.8013  0.4971  1.7365
32080SOL     OW  796   5.904   8.640   7.003 -0.0768  0.1183 -0.5564
32080SOL    HW1  797   5.820   8.660   6.961 -1.2149  2.4310  2.4930
32080SOL    HW2  798   5.898   8.546   7.022 -1.7049  0.0882 -0.9855
32081SOL     OW  799   1.610   6.610   7.741  0.1862 -0.1446 -0.8447
32081SOL    HW1  800   1.683   6.549   7.742 -1.5714 -2.3802  0.1343
32081SOL    HW2  801   1.542   6.567   7.689 -1.8956 -0.1452  1.6283
32082SOL     OW  802   3.505   2.672   4.646  0.0159 -0.4590  0.1141
32082SOL    HW1  803   3.426   2.632   4.683  0.2524 -2.9858 -1.8373
32082SOL    HW2  804   3.578   2.627   4.689  0.3496 -0.3743 -0.3551
32083SOL     OW  805   4.562   2.934   7.157 -0.2083  0.2142 -0.6608
32083SOL    HW1  806   4.582   3.004   7.219  1.7287  0.2669 -1.2994
32083SOL    HW2  807   4.550   2.857   7.212 -0.0367  0.5660 -0.1225
32084SOL     OW  808   0.122   0.994   0.859  0.8936  0.2580 -0.0615
32084SOL    HW1  809   0.117   0.932   0.932 -0.3107 -0.2135 -0.5257
32084SOL    HW2  810   0.216   1.006   0.845  1.2068 -2.3368 -0.6939
32085SOL     OW  811   6.766   7.805   4.585 -0.0373 -1.2190 -0.1085
32085SOL    HW1  812   6.759   7.783   4.492 -4.4416  0.3467 -0.3680
32085SOL    HW2  813   6.684   7.773   4.624 -0.2385  1.7597  2.3083
32086SOL     OW  814   3.451   4.010  11.746  0.7833 -0.0835 -0.6141
32086SOL    HW1  815   3.357   4.019  11.761  0.9400  2.1119 -0.5068
32086SOL    HW2  816   3.460   4.014  11.650  0.7220 -1.2252 -0.6790
32087SOL     OW  817   3.788   5.361   3.027  0.6591 -0.8294  0.4707
32087SOL    HW1  818   3.860   5.301   3.046  0.5320 -1.3381 -0.5819
32087SOL    HW2  819   3.814   5.405   2.945  1.1777  1.2474  1.6710
32088SOL     OW  820   1.911   6.131   8.581 -0.2281  0.2140  0.1120
32088SOL    HW1  821   1.939   6.110   8.670  1.1495 -1.7484 -0.7130
32088SOL    HW2  822   1.992   6.143   8.532 -0.9479  0.7561 -0.9991
32089SOL     OW  823   2.631  11.037   6.423  0.1550  0.0159  0.3445
32089SOL    HW1  824   2.725  11.047   6.440  0.4289 -0.5001 -0.8064
32089SOL    HW2  825   2.618  10.944   6.408 -0.5659  0.0712  0.5622
32090SOL     OW  826   5.116   3.458   5.367  0.1632  0.2794 -0.5578
32090SOL    HW1  827   5.159   3.396   5.426 -0.0802  0.0901 -0.5775
32090SOL    HW2  828   5.187   3.495   5.315  0.3040 -0.0357 -0.5950
32091SOL     OW  829   8.759  10.666  10.706 -0.4500  0.4613  0.0681
32091SOL    HW1  830   8.830  10.611  10.740 -1.2453 -0.4670  0.3017
32091SOL    HW2  831   8.800  10.720  10.639  0.3198 -0.6268 -0.3714
32092SOL     OW  832   2.758  11.731   8.048  0.3394 -0.2267 -0.1354
32092SOL    HW1  833   2.741  11.792   8.120 -0.7886 -1.4556  0.6801
32092SOL    HW2  834   2.680  11.736   7.994  0.1090 -1.1414  0.0969
32093SOL     OW  835   9.488   7.687   1.819 -0.1107  0.4483 -0.0434
32093SOL    HW1  836   9.502   7.773   1.859 -0.2449  0.3122  0.3014
32093SOL    HW2  837   9.437   7.638   1.884 -2.6333  1.0709 -1.4144
32094SOL     OW  838   4.438   8.261   4.811 -1.0520 -0.1230 -0.4787
32094SOL    HW1  839   4.425   8.356   4.818  0.0117  0.1964 -2.1751
32094SOL    HW2  840   4.401   8.238   4.726 -0.2193 -1.0169 -0.6120
32095SOL     OW  841   4.601   1.721   1.617 -0.2589  0.1123  0.1479
32095SOL    HW1  842   4.625   1.812   1.598  0.0376  0.0961  0.4467
32095SOL    HW2  843   4.583   1.683   1.531 -3.1265  1.1968  0.1601
32096SOL     OW  844   6.750   1.807   2.407 -0.1378  0.9261 -0.2183
32096SOL    HW1  845   6.734   1.715   2.427 -1.0219  0.6335 -2.0200
32096SOL    HW2  846   6.723   1.854   2.485  1.9236 -0.3957  1.4355
32097SOL     OW  847   5.033   5.206  10.045 -0.2232  0.1475 -0.0938
32097SOL    HW1  848   4.993   5.201  10.132 -1.8584 -0.4077 -0.8521
32097SOL    HW2  849   5.003   5.289  10.009  1.1414  0.7789  0.1758
32098SOL     OW  850   3.225  10.306   1.883 -0.0170 -0.3269 -0.2212
32098SOL    HW1  851   3.293  10.334   1.945  0.5447 -0.4048 -0.7866
32098SOL    HW2  852   3.155  10.369   1.894  0.3075 -0.0146  0.1008
32099SOL     OW  853   1.234   2.897   3.428  0.1510 -0.0270  0.1743
32099SOL    HW1  854   1.260   2.887   3.519  1.7977 -0.7472 -0.3310
32099SOL    HW2  855   1.142   2.872   3.426 -0.6112  2.2430  1.9999
32100SOL     OW  856   5.179   0.984   7.011 -0.0126 -0.6400  0.7842
32100SOL    HW1  857   5.100   1.002   7.062 -1.6359 -0.2941 -1.6740
32100SOL    HW2  858   5.227   1.067   7.010 -0.5775 -0.3136  0.7158
32101SOL     OW  859   0.541  10.335   9.133 -0.1356 -0.3161  0.6500
32101SOL    HW1  860   0.547  10.282   9.212 -1.8124  1.4793  2.0867
32101SOL    HW2  861   0.456  10.311   9.095  0.0425 -0.1761  0.1541
32102SOL     OW  862   5.121   7.060   6.739 -0.4447  0.1756 -0.3870
32102SOL    HW1  863   5.055   7.128   6.753  0.2345  0.6433  0.6325
32102SOL    HW2  864   5.082   6.981   6.777 -0.4542  0.4333  0.1420
32103SOL     OW  865   9.217   5.658   7.983 -0.0001  0.3512 -0.1643
32103SOL    HW1  866   9.220   5.562   7.993 -0.8756  0.4343  1.2429
32103SOL    HW2  867   9.207   5.691   8.072  0.2207  1.7622 -0.6392
32104SOL     OW  868  11.121   1.127   8.817  0.5040  0.1797 -0.1574
32104SOL    HW1  869  11.103   1.122   8.723  0.1799  1.3552 -0.1709
32104SOL    HW2  870  11.128   1.221   8.835 -2.5131  0.1884  1.5457
32105SOL     OW  871   6.422  10.026   9.131  0.2317 -0.4369  0.1592
32105SOL    HW1  872   6.501   9.981   9.161  0.2982  0.4131  1.2905
32105SOL    HW2  873   6.370  10.040   9.210  0.1790  1.4022 -0.1596
32106SOL     OW  874   8.117   9.666   8.284  0.5060  0.2425  0.1024
32106SOL    HW1  875   8.025   9.673   8.312  0.3743 -1.0120  0.0407
32106SOL    HW2  876   8.128   9.738   8.222 -0.6515 -0.0037 -0.4319
32107SOL     OW  877   5.737   9.745   0.354  0.0203 -0.0393 -0.1276
32107SOL    HW1  878   5.796   9.820   0.367  0.4570 -0.3593 -0.2153
32107SOL    HW2  879   5.663   9.780   0.306  1.2904 -0.1093 -2.2845
32108SOL     OW  880   9.829   8.625   0.624  0.1521 -0.1493  0.0628
32108SOL    HW1  881   9.924   8.637   0.620  0.2483 -0.9330 -0.2470
32108SOL    HW2  882   9.816   8.532   0.604 -0.6943 -0.0043 -0.1075
32109SOL     OW  883   5.131   3.888  12.019 -0.1107 -0.2849 -0.0014
32109SOL    HW1  884   5.094   3.820  12.075 -1.0006  0.8178  0.7851
32109SOL    HW2  885   5.149   3.961  12.079  0.4499  0.3240 -0.8920
32110SOL     OW  886   7.815   9.657   6.878  0.9305  0.0636  0.4436
32110SOL    HW1  887   7.738   9.686   6.927 -1.0034 -1.6967 -1.3930
32110SOL    HW2  888   7.814   9.562   6.884  1.3988 -0.1453 -1.7836
32111SOL     OW  889   7.083   4.942   0.822  0.1288 -0.1922 -0.2192
32111SOL    HW1  890   7.176   4.962   0.833  0.0104  0.2858 -0.0452
32111SOL    HW2  891   7.060   4.983   0.739 -0.0993  0.3367  0.1009
32112SOL     OW  892   9.375   5.736   9.366  0.3797  0.4239 -0.2953
32112SOL    HW1  893   9.451   5.794   9.356  0.4815  0.0023 -2.4294
32112SOL    HW2  894   9.368   5.691   9.282 -0.6350 -1.5441  0.7813
32113SOL     OW  895   6.133   7.621   9.459  0.3535 -0.1428 -0.0160
32113SOL    HW1  896   6.166   7.571   9.384 -1.5336  1.9982 -2.4697
32113SOL    HW2  897   6.053   7.574   9.485  0.1275 -0.0030 -0.4448
32114SOL     OW  898   7.977   1.009  10.438  0.0940  0.0771  0.3147
32114SOL    HW1  899   8.067   1.009  10.405 -0.0708  0.5924 -0.1676
32114SOL    HW2  900   7.985   0.996  10.532  0.5983 -1.2420  0.1040
32115SOL     OW  901   9.904   1.639  11.558  0.0270 -0.7227  0.4930
32115SOL    HW1  902   9.941   1.727  11.545 -0.0930 -0.6066  0.9227
32115SOL    HW2  903   9.944   1.609  11.640 -1.9743  0.0093  1.7940
32116SOL     OW  904   6.019   4.354   2.379 -0.1200 -0.3552 -0.8219
32116SOL    HW1  905   6.071   4.291   2.429 -0.9106  0.5081  1.2023
32116SOL    HW2  906   5.931   4.316   2.377 -0.3435  0.1265 -0.5431
32117SOL     OW  907   0.058   4.215   8.068  0.0242  0.0157  0.2126
32117SOL    HW1  908   0.006   4.295   8.061  0.2106  0.1916  0.7768
32117SOL    HW2  909   0.069   4.185   7.978  2.1233  2.0417 -0.2978
32118SOL     OW  910  10.436   6.555   8.233  0.4749  0.4066  0.3927
32118SOL    HW1  911  10.386   6.604   8.169  0.2374 -0.2719  0.0497
32118SOL    HW2  912  10.456   6.618   8.302  0.7877  1.1609 -0.3710
32119SOL     OW  913   6.910   8.657  11.321 -0.7501  0.2396  0.3017
32119SOL    HW1  914   6.880   8.745  11.344 -0.3817  0.8041 -1.2664
32119SOL    HW2  915   6.839   8.600  11.348 -0.5112  0.8475  2.4442
32120SOL     OW  916   3.359   1.650   7.586  0.2197 -0.4404 -0.3134
32120SOL    HW1  917   3.386   1.729   7.632 -1.1945  1.8971 -3.1348
32120SOL    HW2  918   3.370   1.580   7.649  0.0669  2.2128  2.9137
32121SOL     OW  919   0.376   1.558   2.501  0.2168 -0.5518 -0.4981
32121SOL    HW1  920   0.397   1.467   2.484 -2.1904 -1.4795  1.0239
32121SOL    HW2  921   0.410   1.575   2.589  0.5336  0.0176 -0.7173
32122SOL     OW  922   7.628   2.083   4.933  0.3033  0.0393 -0.1933
32122SOL    HW1  923   7.533   2.079   4.920  0.1658 -0.3196  0.8790
32122SOL    HW2  924   7.644   2.173   4.960 -0.1790 -0.6724  2.7709
32123SOL     OW  925   9.639   6.558   6.519 -0.2201 -0.5094  0.1961
32123SOL    HW1  926   9.699   6.588   6.588  1.4584 -0.2759 -1.3031
32123SOL    HW2  927   9.587   6.636   6.497 -0.5096 -0.4902  0.9131
32124SOL     OW  928   8.462   6.365   8.316 -0.6870  0.2892  0.4934
32124SOL    HW1  929   8.458   6.363   8.412 -1.5357 -0.0924  0.4567
32124SOL    HW2  930   8.378   6.328   8.288 -0.2412 -0.0550 -0.4000
32125SOL     OW  931   6.936   2.295   8.830  0.0131 -0.1014 -0.1467
32125SOL    HW1  932   7.027   2.284   8.857 -0.5002  0.4392  2.0417
32125SOL    HW2  933   6.922   2.228   8.763  1.6304 -1.0951  0.4579
32126SOL     OW  934  11.911   4.975   5.805 -0.3382 -0.5795 -0.1159
32126SOL    HW1  935  11.968   5.006   5.875 -2.2631  0.3091  1.1229
32126SOL    HW2  936  11.848   5.046   5.792 -1.2471 -1.5698 -1.3611
32127SOL     OW  937  11.219   6.804   8.191 -0.8238  0.2500 -0.3995
32127SOL    HW1  938  11.171   6.773   8.115 -1.7052  0.2348  0.1425
32127SOL    HW2  939  11.187   6.748   8.263 -0.4452  0.6493  0.0814
32128SOL     OW  940  11.111   8.358   3.319  0.1474  0.3111 -0.1438
32128SOL    HW1  941  11.198   8.398   3.313 -0.3057  1.2701 -0.4577
32128SOL    HW2  942  11.106   8.301   3.242 -0.7820  2.9031 -2.1574
32129SOL     OW  943   5.286   9.487   9.598  0.0913  0.2353  0.1799
32129SOL    HW1  944   5.377   9.517   9.597 -0.1144  0.9029  1.0002
32129SOL    HW2  945   5.236   9.560   9.562 -0.1819  0.0724  0.2238
32130SOL     OW  946   6.867   5.049   0.121 -0.1519 -0.0333  0.6319
32130SOL    HW1  947   6.782   5.029   0.083  0.8645  0.6909 -2.2806
32130SOL    HW2  948   6.896   5.129   0.076  2.1409 -0.3671  1.3571
32131SOL     OW  949   7.044   0.213  10.176 -0.3709  0.1841  0.0037
32131SOL    HW1  950   7.057   0.163  10.095 -0.2064 -0.4047  0.3836
32131SOL    HW2  951   7.025   0.302  10.147 -0.9689 -0.1622 -0.7047
32132SOL     OW  952   4.692   0.123   4.693  0.6111  0.7479  0.4545
32132SOL    HW1  953   4.732   0.209   4.706 -1.9878  2.0968  0.0396
32132SOL    HW2  954   4.669   0.093   4.781 -0.7536  1.6859  0.4513
32133SOL     OW  955  11.896   7.465  11.148 -0.3120  0.0161  0.1614
32133SOL    HW1  956  11.851   7.448  11.065 -1.1135  0.7597  0.4192
32133SOL    HW2  957  11.942   7.548  11.134 -0.4799  0.1631  0.4688
32134SOL     OW  958   6.329   4.911   7.648 -0.4000 -0.1486  0.8149
32134SOL    HW1  959   6.262   4.845   7.670  1.1795 -2.2332 -0.3268
32134SOL    HW2  960   6.322   4.921   7.553 -1.0222  1.8852  1.0258
32135SOL     OW  961   8.409  10.109   5.054 -0.5984  0.0912  0.2094
32135SOL    HW1  962   8.454  10.193   5.056  2.5174 -1.4353  0.6512
32135SOL    HW2  963   8.439  10.068   4.973 -1.1814 -1.0081  0.5376
32136SOL     OW  964   2.397   4.345  11.239 -0.6820 -0.0081  0.5715
32136SOL    HW1  965   2.390   4.290  11.162  0.2542 -0.2840  0.6742
32136SOL    HW2  966   2.312   4.335  11.284 -0.3229 -1.8428  0.9024
32137SOL     OW  967  10.449  11.976   7.720 -0.6333  0.0298 -0.0899
32137SOL    HW1  968  10.381  12.001   7.657 -0.4555  1.0452  0.0991
32137SOL    HW2  969  10.452  11.880   7.715 -1.6257  0.0054 -0.5663
32138SOL     OW  970   3.838   0.681   8.634  0.5759 -0.1223 -0.3046
32138SOL    HW1  971   3.770   0.709   8.696  0.0181 -0.6564 -0.6738
32138SOL    HW2  972   3.843   0.753   8.571  2.5974  1.4430  1.4323
32139SOL     OW  973  10.708   4.568   1.577  0.0772  0.0830 -0.2483
32139SOL    HW1  974  10.741   4.592   1.490  0.7591  2.1683  0.5226
32139SOL    HW2  975  10.614   4.555   1.565  0.3414 -0.9342 -1.5057
32140SOL     OW  976   5.078   9.899   3.587  0.0388 -0.1680 -0.0594
32140SOL    HW1  977   4.987   9.928   3.592  0.3647  0.8370  0.2768
32140SOL    HW2  978   5.102   9.910   3.495 -0.3077 -0.8458 -0.2331
32141SOL     OW  979   0.635   3.984  11.575  0.0883 -0.5411 -0.4535
32141SOL    HW1  980   0.728   3.963  11.582  0.1527 -0.0543  0.2060
32141SOL    HW2  981   0.605   3.993  11.665 -0.0948  1.4597 -0.6702
32142SOL     OW  982   7.575   1.148   8.973 -0.1061  0.2782 -0.0811
32142SOL    HW1  983   7.558   1.199   8.893  0.0308 -0.1871 -0.4136
32142SOL    HW2  984   7.527   1.066   8.959 -1.5360  0.8865  1.0870
32143SOL     OW  985  10.459   2.188   4.246 -0.2473 -0.2939 -0.3737
32143SOL    HW1  986  10.545   2.197   4.287  0.6925  1.2957 -2.4551
32143SOL    HW2  987  10.434   2.097   4.262  1.8190 -0.8042  0.3198
32144SOL     OW  988   7.804   8.497   2.768  0.1828 -0.0176  0.1080
32144SOL    HW1  989   7.756   8.439   2.827 -0.8089 -1.7909 -2.2546
32144SOL    HW2  990   7.736   8.534   2.711  1.1211  1.4563 -0.0991
32145SOL     OW  991   5.623   9.678   7.311 -0.1906  0.6314 -0.0597
32145SOL    HW1  992   5.564   9.620   7.264 -1.1634  1.5381  0.0150
32145SOL    HW2  993   5.709   9.661   7.273 -0.5860 -0.2870 -0.5675
32146SOL     OW  994   8.684   6.385   0.599  0.1234  0.0787  0.7372
32146SOL    HW1  995   8.771   6.364   0.633 -0.3862 -0.6797  1.5938
32146SOL    HW2  996   8.659   6.464   0.646  0.8361  1.0419 -0.4119
32147SOL     OW  997   5.521  11.295  12.109  0.0966  0.0754 -0.5291
32147SOL    HW1  998   5.558  11.368  12.158 -2.0997  0.0956  1.3093
32147SOL    HW2  999   5.451  11.335  12.056  0.8601 -0.3066 -1.8723
32148SOL     OW 1000  12.025   1.682   1.507 -0.4023  0.0354  0.8076
32148SOL    HW1 1001  11.945   1.734   1.508 -1.0497 -0.9021 -0.3160
32148SOL    HW2 1002  11.998   1.595   1.479  1.2028  0.0694 -1.0934
32149SOL     OW 1003   9.285   3.341   9.451 -0.2570  0.0889 -0.2424
32149SOL    HW1 1004   9.263   3.390   9.530  1.4741 -1.5611  1.3806
32149SOL    HW2 1005   9.205   3.343   9.399 -1.2641  1.7855  1.2412
32150SOL     OW 1006   1.684  10.651  11.724 -0.3206  0.3882  0.1760
32150SOL    HW1 1007   1.764  10.673  11.771 -0.2360  0.9297 -0.2167
32150SOL    HW2 1008   1.618  10.642  11.793  0.1409 -0.3926  0.5301
32151SOL     OW 1009   0.717  10.627  11.256 -0.3059 -0.2804  0.1236
32151SOL    HW1 1010   0.668  10.692  11.206 -0.1471 -0.2702 -0.0189
32151SOL    HW2 1011   0.653  10.559  11.275 -0.5471  0.0535  0.5224
32152SOL     OW 1012   5.126  10.315   3.489 -0.1268 -0.3073 -0.5680
32152SOL    HW1 1013   5.174  10.295   3.569  2.4228 -2.7456 -2.5029
32152SOL    HW2 1014   5.068  10.240   3.476  0.0762 -0.3347 -1.3917
32153SOL     OW 1015   1.666   8.135   0.225 -0.4728  0.4783 -0.0679
32153SOL    HW1 1016   1.604   8.143   0.153 -1.9282  0.7719  1.1819
32153SOL    HW2 1017   1.641   8.055   0.270  1.3479 -0.5080 -0.6849
32154SOL     OW 1018   1.580   5.857   9.503 -0.6431 -0.1240  0.5282
32154SOL    HW1 1019   1.568   5.879   9.595  0.0612 -1.4926  0.9720
32154SOL    HW2 1020   1.587   5.762   9.501  0.2160 -0.0701 -0.8283
32155SOL     OW 1021   2.212   8.297   8.888  0.9162  0.3819 -0.1641
32155SOL    HW1 1022   2.239   8.206   8.900  0.0778  0.3368  1.7044
32155SOL    HW2 1023   2.181   8.301   8.797  0.1394 -1.4131 -0.0072
32156SOL     OW 1024  11.349   6.444   8.673 -0.1654 -0.5879  0.6314
32156SOL    HW1 1025  11.384   6.355   8.675  0.3048 -0.4057  0.5641
32156SOL    HW2 1026  11.262   6.436   8.712  0.2424 -0.9153  1.4881
32157SOL     OW 1027  10.705   8.245   9.006  0.8234  0.5461 -0.2231
32157SOL    HW1 1028  10.655   8.271   8.928  1.2648  0.6144 -0.4915
32157SOL    HW2 1029  10.750   8.326   9.033  0.8535  0.4672 -0.0370
32158SOL     OW 1030  10.862   5.182   6.580 -0.1408  0.2278 -0.4447
32158SOL    HW1 1031  10.865   5.152   6.489  0.7074 -0.7784 -0.0979
32158SOL    HW2 1032  10.786   5.139   6.617 -0.3017  0.3878 -0.5853
32159SOL     OW 1033   3.510  11.027   6.457 -0.2536  0.1773 -0.1601
32159SOL    HW1 1034   3.431  11.002   6.506 -1.6381  1.7804 -1.4329
32159SOL    HW2 1035   3.500  10.985   6.372 -1.5832  3.0122 -1.5759
32160SOL     OW 1036   7.009   7.957   8.192 -0.1080 -1.1106 -0.0424
32160SOL    HW1 1037   6.922   7.925   8.168 -0.0180 -1.3898  0.0031
32160SOL    HW2 1038   7.067   7.882   8.179 -0.2301 -1.6784  2.2345
32161SOL     OW 1039  10.893   8.019   2.710 -0.0586 -0.1527  0.1135
32161SOL    HW1 1040  10.869   7.930   2.684  0.3008 -0.3113  0.3194
32161SOL    HW2 1041  10.851   8.031   2.795 -1.2475  0.3700 -0.5292
32162SOL     OW 1042  11.074   6.254   5.590  0.0527  0.4153 -0.2048
32162SOL    HW1 1043  11.140   6.241   5.522  0.8446 -0.8960  0.7728
32162SOL    HW2 1044  10.997   6.287   5.543  0.1814 -1.5425 -1.9164
32163SOL     OW 1045  10.716   2.945   7.588 -0.0255  0.0452  0.0679
32163SOL    HW1 1046  10.719   2.898   7.505  1.1816  1.2648 -0.6188
32163SOL    HW2 1047  10.789   2.907   7.639  0.4364  0.6032 -0.1731
32164SOL     OW 1048   1.593   9.858   9.712  0.1848 -0.3125 -0.4173
32164SOL    HW1 1049   1.597   9.931   9.773  1.3559  0.8468 -1.8037
32164SOL    HW2 1050   1.685   9.841   9.689 -0.0097 -2.5028  0.1465
32165SOL     OW 1051   5.859   5.105   0.751  0.1667 -0.7428  0.2875
32165SOL    HW1 1052   5.898   5.055   0.823 -1.6252 -2.5578  0.0658
32165SOL    HW2 1053   5.853   5.043   0.679  0.4075  0.5998 -0.9381
32166SOL     OW 1054   7.578   8.230   4.661  0.6281  0.1325 -0.3645
32166SOL    HW1 1055   7.673   8.237   4.649  0.4711 -0.0893 -2.1316
32166SOL    HW2 1056   7.550   8.171   4.590 -0.8150  0.1189  0.1894
32167SOL     OW 1057   1.247  10.381   1.446  0.8824  0.2063  0.4962
32167SOL    HW1 1058   1.215  10.388   1.536  0.9878  2.2073  0.4296
32167SOL    HW2 1059   1.310  10.453   1.438  0.1238  0.7226 -1.4455
32168SOL     OW 1060   7.277   5.364   2.602  0.4091  0.2018  0.4704
32168SOL    HW1 1061   7.290   5.414   2.683  2.1145  0.8073 -0.1362
32168SOL    HW2 1062   7.220   5.418   2.549 -0.7905 -0.2334  1.2729
32169SOL     OW 1063   1.391   4.224   7.762  0.9847  0.0650  0.1970
32169SOL    HW1 1064   1.427   4.294   7.817  0.2991  0.8893 -0.3650
32169SOL    HW2 1065   1.376   4.151   7.821 -0.6433  1.2463  1.3161
32170SOL     OW 1066   5.003   3.426   8.536  0.8226  0.5491 -0.8128
32170SOL    HW1 1067   5.043   3.428   8.449  4.1412 -1.6347  0.5062
32170SOL    HW2 1068   5.058   3.368   8.587  0.1570  3.1844  3.3555
32171SOL     OW 1069   9.341   0.252  10.897  0.3924  0.3950  0.3014
32171SOL    HW1 1070   9.403   0.227  10.967 -1.2842  0.2316  1.7931
32171SOL    HW2 1071   9.313   0.169  10.860  0.1156  0.4065  0.4854
32172SOL     OW 1072   9.836   5.334  11.618 -0.0771 -0.3264 -0.3370
32172SOL    HW1 1073   9.766   5.324  11.682 -0.1327 -1.3322 -0.5457
32172SOL    HW2 1074   9.791   5.352  11.536  0.0089  1.5753 -0.0298
32173SOL     OW 1075  12.123   1.553   9.992  0.2490 -0.0739  0.1702
32173SOL    HW1 1076  12.129   1.648   9.981 -0.8024 -0.0054  0.0148
32173SOL    HW2 1077  12.032   1.539  10.018 -0.2404 -1.2277 -1.9473
32174SOL     OW 1078   0.183   8.063   9.102 -0.1922 -0.7500  0.1557
32174SOL    HW1 1079   0.211   8.152   9.078  0.2346 -0.4956  1.5211
32174SOL    HW2 1080   0.191   8.013   9.020 -1.0644  0.5884 -0.8049
32175SOL     OW 1081  10.036   1.092   3.805 -0.5366 -0.5082  0.2523
32175SOL    HW1 1082   9.971   1.046   3.858 -1.3030  0.2482 -0.0190
32175SOL    HW2 1083  10.015   1.069   3.715  1.0043 -2.1090  0.2292
32176SOL     OW 1084   1.714   3.457  11.033 -0.2060  0.1092  0.5535
32176SOL    HW1 1085   1.728   3.487  11.123 -1.7431  0.8699  0.5665
32176SOL    HW2 1086   1.621   3.435  11.029  0.0689 -0.9429 -0.5701
32177SOL     OW 1087   7.419   8.386   6.600 -0.1534  0.5133 -0.1738
32177SOL    HW1 1088   7.423   8.291   6.612  0.0127  0.3943 -1.1078
32177SOL    HW2 1089   7.502   8.418   6.636 -1.2718  0.6210  2.5762
32178SOL     OW 1090   7.803   8.332   7.889 -0.5847 -0.7518 -0.6254
32178SOL    HW1 1091   7.805   8.267   7.959  1.6752  0.0072  0.0818
32178SOL    HW2 1092   7.836   8.285   7.812 -0.7527 -0.9221 -0.5951
32179SOL     OW 1093   9.884   2.257  12.102 -0.1684 -0.2705  0.1010
32179SOL    HW1 1094   9.911   2.249  12.194 -0.4315 -0.5491  0.1529
32179SOL    HW2 1095   9.945   2.321  12.066 -1.0093  0.9973  0.8486
32180SOL     OW 1096   9.977   0.102   1.495 -0.3604  0.4306 -1.1706
32180SOL    HW1 1097  10.058   0.153   1.500  1.0528 -1.8135  3.0030
32180SOL    HW2 1098   9.910   0.161   1.528  1.0212  0.2255  2.3886
32181SOL     OW 1099   7.549   8.179   9.671  0.3393 -0.0865 -0.3036
32181SOL    HW1 1100   7.545   8.249   9.605 -1.2156 -0.8115 -1.0425
32181SOL    HW2 1101   7.588   8.105   9.626  3.0518  0.5740  0.8065
32182SOL     OW 1102   5.706   5.284   5.702 -0.1276  0.1466 -0.1434
32182SOL    HW1 1103   5.716   5.367   5.749  1.3653 -1.0243  1.7360
32182SOL    HW2 1104   5.639   5.236   5.750 -0.0652 -0.2555 -0.4478
32183SOL     OW 1105   0.557   1.147   0.031 -0.0955 -0.3185 -0.0402
32183SOL    HW1 1106   0.563   1.101   0.115  0.5312  1.7697  1.1169
32183SOL    HW2 1107   0.466   1.174   0.025 -0.6455 -2.2035 -1.0654
32184SOL     OW 1108   0.052   0.401   3.591  0.3522 -0.0700 -0.0901
32184SOL    HW1 1109  -0.006   0.330   3.618  0.7078 -0.4602 -0.3373
32184SOL    HW2 1110   0.046   0.403   3.496 -0.3773  0.8563 -0.0325
32185SOL     OW 1111   9.323   6.887   2.088  0.4055  0.6552  0.6513
32185SOL    HW1 1112   9.309   6.980   2.069 -1.0173  0.3577  0.0723
32185SOL    HW2 1113   9.418   6.877   2.094  0.7923  1.5740 -2.4502
32186SOL     OW 1114   8.711   7.679   8.725  0.2844  0.1306 -0.4103
32186SOL    HW1 1115   8.777   7.624   8.767 -0.6831 -0.1279  0.8025
32186SOL    HW2 1116   8.663   7.720   8.797 -2.1820 -1.2285 -1.1636
32187SOL     OW 1117   3.283   0.007  10.911  0.1558  0.0058  0.1103
32187SOL    HW1 1118   3.314  -0.070  10.864 -0.2080  0.3961 -0.8028
32187SOL    HW2 1119   3.363   0.051  10.940  0.3642 -0.6826  0.5915
32188SOL     OW 1120   8.435   8.899   4.195 -0.6382 -0.3635  0.1476
32188SOL    HW1 1121   8.477   8.929   4.276  2.3278 -1.6598 -0.8048
32188SOL    HW2 1122   8.501   8.911   4.127 -2.3143 -1.2313 -1.7286
32189SOL     OW 1123   0.043   6.954   5.429 -1.0453  0.1233  0.4141
32189SOL    HW1 1124   0.078   6.950   5.518  0.6159 -0.6608 -0.2228
32189SOL    HW2 1125   0.006   6.867   5.413 -2.2907  0.5850  0.6743
32190SOL     OW 1126   7.046   3.992   6.966 -0.4013  0.0435  0.4138
32190SOL    HW1 1127   6.956   4.020   6.948 -0.2306  0.6582  0.5069
32190SOL    HW2 1128   7.040   3.896   6.969 -0.7386 -0.0205 -1.2517
32191SOL     OW 1129   0.643   8.702   1.859 -0.2901  0.7055 -0.0154
32191SOL    HW1 1130   0.735   8.727   1.864 -0.1479  0.0561  0.8005
32191SOL    HW2 1131   0.595   8.784   1.875  0.1428  1.0084 -0.2616
32192SOL     OW 1132   8.571  12.087   0.477  0.1379  0.0282 -0.0134
32192SOL    HW1 1133   8.547  12.171   0.516  1.3170  0.5277 -0.3065
32192SOL    HW2 1134   8.489  12.039   0.471 -0.9364  1.9061 -1.6673
32193SOL     OW 1135   2.771   3.877   9.921  0.7183 -0.0586  0.0557
32193SOL    HW1 1136   2.764   3.811   9.990 -0.1411  0.6721  0.6946
32193SOL    HW2 1137   2.841   3.936   9.952 -1.3067  1.7080  1.6340
32194SOL     OW 1138   8.215   1.538   9.607 -0.7589 -0.0927 -0.2657
32194SOL    HW1 1139   8.253   1.491   9.533 -1.1881  0.5730 -0.9195
32194SOL    HW2 1140   8.283   1.535   9.674 -0.2228 -0.3867 -0.8086
32195SOL     OW 1141   5.901   7.873   5.872  0.1006  0.2670 -0.4531
32195SOL    HW1 1142   5.826   7.849   5.926 -0.9543  1.0596 -1.5148
32195SOL    HW2 1143   5.947   7.791   5.856  0.7828  0.0664  2.0837
32196SOL     OW 1144   7.727   7.633   8.124  0.1850 -0.3370 -0.3362
32196SOL    HW1 1145   7.786   7.643   8.049  0.1587 -0.4177 -0.3673
32196SOL    HW2 1146   7.725   7.720   8.165 -0.4788 -0.0546 -0.9321
32197SOL     OW 1147   3.315   3.820   2.054 -0.0187  0.5460  0.2627
32197SOL    HW1 1148   3.390   3.880   2.050  0.5235 -0.1690 -1.4282
32197SOL    HW2 1149   3.245   3.865   2.008  0.9658 -0.7614 -2.7918
32198SOL     OW 1150   7.206   5.623   3.322  0.1875  0.4809 -0.3132
32198SOL    HW1 1151   7.257   5.605   3.401 -0.9286 -1.6467 -0.0140
32198SOL    HW2 1152   7.137   5.683   3.351  1.2537  1.7155 -0.2651
32199SOL     OW 1153   7.614   9.326   5.439  0.0600  0.1172 -0.0041
32199SOL    HW1 1154   7.530   9.331   5.394 -0.7643 -1.2736  1.2683
32199SOL    HW2 1155   7.593   9.342   5.531  1.1652 -0.2879  0.3418
32200SOL     OW 1156   0.919   7.714   1.340  0.2054 -0.1613  0.0574
32200SOL    HW1 1157   0.931   7.656   1.265 -1.7870 -0.9940  0.3161
32200SOL    HW2 1158   0.906   7.655   1.414 -1.8216  0.5359  0.3347
32201SOL     OW 1159   9.731   1.125   5.652 -0.1330  0.3517  0.3775
32201SOL    HW1 1160   9.652   1.158   5.608  0.4240  1.2219 -0.0184
32201SOL    HW2 1161   9.782   1.083   5.582 -0.1818 -0.0806  0.6008
32202SOL     OW 1162  10.665   3.423   7.618  0.1951  0.8980  0.4872
32202SOL    HW1 1163  10.706   3.356   7.673 -0.7203  0.4513  0.6479
32202SOL    HW2 1164  10.645   3.377   7.536 -3.6722 -0.1332  1.8031
32203SOL     OW 1165  12.029   7.622   1.507  0.4511  0.1076  0.3146
32203SOL    HW1 1166  11.935   7.629   1.526  0.1040 -1.5762 -0.6068
32203SOL    HW2 1167  12.071   7.631   1.593 -0.7250 -1.6842  1.1475
32204SOL     OW 1168   5.209   6.382  10.337 -0.0058  0.4003  0.3049
32204SOL    HW1 1169   5.133   6.394  10.394 -0.9052 -1.6361 -0.3564
32204SOL    HW2 1170   5.184   6.311  10.279  2.1820  0.1162 -0.3875
32205SOL     OW 1171   5.937   3.354  11.120 -0.5343 -0.6927 -0.4175
32205SOL    HW1 1172   5.942   3.285  11.186  0.9975 -0.9802 -0.8036
32205SOL    HW2 1173   5.912   3.433  11.169 -0.8760 -1.2029  0.2518
32206SOL     OW 1174   8.070   8.694   9.446 -0.3521 -0.4789 -0.1378
32206SOL    HW1 1175   8.006   8.622   9.441  0.7794 -1.5176 -0.2372
32206SOL    HW2 1176   8.076   8.715   9.539 -1.2977  0.0638 -0.1935
32207SOL     OW 1177   4.706   5.938   2.509 -0.1389 -0.3320  0.0313
32207SOL    HW1 1178   4.656   6.018   2.526  2.6462  1.2647  1.4892
32207SOL    HW2 1179   4.743   5.952   2.422  2.2974  1.2240  1.2184
32208SOL     OW 1180   8.727   5.795   8.847 -0.2736  0.2183 -1.1134
32208SOL    HW1 1181   8.741   5.868   8.787  1.7397 -0.4842 -1.6016
32208SOL    HW2 1182   8.738   5.717   8.793 -0.1714 -0.4376 -0.1752
32209SOL     OW 1183   6.158   3.846   3.510 -0.4242  0.5258  0.1211
32209SOL    HW1 1184   6.160   3.750   3.514 -1.1194  0.3191 -2.6190
32209SOL    HW2 1185   6.074   3.869   3.550  0.1442  0.1145  1.6371
32210SOL     OW 1186   7.678  11.598  11.370 -0.2998  0.9275  0.4358
32210SOL    HW1 1187   7.743  11.559  11.312  0.6369 -0.6475  2.4340
32210SOL    HW2 1188   7.708  11.688  11.383 -0.2784  1.1639 -1.0876
32211SOL     OW 1189   1.767  11.276   2.803 -0.4486  0.0744 -0.6145
32211SOL    HW1 1190   1.750  11.335   2.730 -1.3522 -0.3505 -0.7626
32211SOL    HW2 1191   1.714  11.198   2.783  0.1540 -0.4902 -0.0606
32212SOL     OW 1192   0.686   5.681   4.800  0.6059 -0.2549  0.0144
32212SOL    HW1 1193   0.617   5.746   4.786  3.0475  3.0529  2.0869
32212SOL    HW2 1194   0.644   5.615   4.855 -1.5742  0.2137 -0.9372
32213SOL     OW 1195   1.093   5.775  11.970 -0.1439 -0.0018 -0.2650
32213SOL    HW1 1196   1.119   5.800  11.881 -0.5224  1.2015 -0.0653
32213SOL    HW2 1197   1.023   5.837  11.992  0.4051  0.1585  1.1173
32214SOL     OW 1198   8.630   7.844   7.655  0.2173 -0.3888 -0.0974
32214SOL    HW1 1199   8.570   7.916   7.638 -0.3116 -0.6086  0.7748
32214SOL    HW2 1200   8.715   7.886   7.670  0.5429 -0.1293 -2.2887
32215SOL     OW 1201  10.953   9.692   3.111  0.4368  0.9983 -1.5219
32215SOL    HW1 1202  11.017   9.762   3.116 -0.0650  1.3956  0.7584
32215SOL    HW2 1203  10.874   9.728   3.153  0.6031 -1.2709  1.0681
32216SOL     OW 1204  11.146   1.799   4.291 -0.0203  0.1113 -0.0279
32216SOL    HW1 1205  11.194   1.870   4.249  2.5156 -0.2120  2.0483
32216SOL    HW2 1206  11.203   1.722   4.281 -0.8308 -0.6776  1.1793
32217SOL     OW 1207   0.630   6.210  11.647  0.0163 -0.2161 -0.1347
32217SOL    HW1 1208   0.578   6.284  11.678 -2.3800 -1.6223 -0.5356
32217SOL    HW2 1209   0.638   6.152  11.722 -1.7263 -1.4275 -0.8243
32218SOL     OW 1210  10.076   6.006   8.892  0.2984 -0.1344 -0.2222
32218SOL    HW1 1211  10.123   5.981   8.972  0.1742  0.3490  0.0019
32218SOL    HW2 1212  10.019   6.077   8.918 -0.3530 -0.5194 -0.5647
32219SOL     OW 1213   1.086   3.938  11.892 -0.1460 -0.1786  0.4404
32219SOL    HW1 1214   1.013   3.883  11.865  0.0314  0.3074 -1.1456
32219SOL    HW2 1215   1.141   3.945  11.814  0.2043  1.6367  0.7987
32220SOL     OW 1216   8.634   2.559   0.088  0.4368 -0.1197  0.2193
32220SOL    HW1 1217   8.555   2.570   0.141  0.1415 -0.0098 -0.2346
32220SOL    HW2 1218   8.704   2.544   0.151  0.1588  0.4087  0.6563
32221SOL     OW 1219   1.769   6.974  10.201 -0.1058 -0.1013 -0.5622
32221SOL    HW1 1220   1.773   6.897  10.257 -0.0874  0.3834  0.1115
32221SOL    HW2 1221   1.842   6.963  10.140  0.4589 -0.1680  0.1144
32222SOL     OW 1222   6.206   0.081  10.759  0.2353  0.1503  0.3456
32222SOL    HW1 1223   6.237   0.059  10.671 -0.4536  0.1011  0.1047
32222SOL    HW2 1224   6.278   0.058  10.817  1.2890  1.5665 -0.3410
32223SOL     OW 1225   9.504   4.944   7.372 -0.6979 -0.1771  0.1123
32223SOL    HW1 1226   9.588   4.985   7.392 -0.9810  0.0625  0.8813
32223SOL    HW2 1227   9.444   4.979   7.439 -1.4653 -0.1595 -0.5665
32224SOL     OW 1228   9.692   2.882   5.250  0.1859 -0.2015  0.1211
32224SOL    HW1 1229   9.627   2.821   5.285 -0.7961  1.0020  0.4520
32224SOL    HW2 1230   9.776   2.844   5.276 -0.3889 -1.4063  0.3167
32225SOL     OW 1231  10.097   5.938  11.199  0.0735 -0.5041 -0.4393
32225SOL    HW1 1232  10.002   5.927  11.210 -0.3158  2.6866  0.5538
32225SOL    HW2 1233  10.131   5.948  11.288  1.0999 -0.1566 -0.8552
32226SOL     OW 1234   2.120   9.068   8.627 -0.2854 -0.6443  0.1117
32226SOL    HW1 1235   2.203   9.030   8.599 -0.5284  0.1046 -1.8191
32226SOL    HW2 1236   2.144   9.137   8.689  0.4978 -0.7860 -0.0326
32227SOL     OW 1237   1.110   3.501   2.938  0.1776 -0.3756  0.2073
32227SOL    HW1 1238   1.195   3.465   2.911 -0.4699 -0.5692 -1.7968
32227SOL    HW2 1239   1.047   3.432   2.915 -0.6839  0.4625  0.0057
32228SOL     OW 1240   4.832   8.846   2.811 -0.8034  0.3490  0.8833
32228SOL    HW1 1241   4.782   8.925   2.789 -1.1972  0.6218  2.6529
32228SOL    HW2 1242   4.915   8.856   2.764 -1.0380  1.5777  0.6952
32229SOL     OW 1243   8.662  11.012  11.672  0.3144  0.5217 -0.0009
32229SOL    HW1 1244   8.595  10.945  11.682  1.4026 -0.6919 -0.5525
32229SOL    HW2 1245   8.616  11.095  11.689 -1.3476 -0.2464 -0.5207
32230SOL     OW 1246   1.673   8.824   8.083  0.5538 -0.2898  0.3903
32230SOL    HW1 1247   1.687   8.866   8.168  0.9669 -1.7666  1.0865
32230SOL    HW2 1248   1.657   8.897   8.023 -1.2702  0.7218  1.9991
32231SOL     OW 1249   4.803  11.689   8.585 -0.4197  0.2355 -0.2577
32231SOL    HW1 1250   4.855  11.679   8.505 -0.4809  0.0706 -0.2765
32231SOL    HW2 1251   4.864  11.726   8.649  0.1203 -1.2828  0.1454
32232SOL     OW 1252   8.520   3.582   6.528 -0.3464  0.2604 -0.5331
32232SOL    HW1 1253   8.437   3.597   6.483  0.3435 -0.8186 -2.2601
32232SOL    HW2 1254   8.520   3.489   6.550  0.0680  0.4178  0.1570
32233SOL     OW 1255   8.151   0.478   0.413 -0.1843  0.5470 -0.5811
32233SOL    HW1 1256   8.057   0.465   0.401 -0.7061  2.1293  1.1947
32233SOL    HW2 1257   8.162   0.573   0.416  1.2094  0.3911  0.7792
32234SOL     OW 1258  11.002   4.991   5.700 -0.2356 -0.0287 -0.0169
32234SOL    HW1 1259  11.074   4.946   5.744  2.7877  3.0753 -1.3357
32234SOL    HW2 1260  10.963   5.046   5.767  3.1370  3.2677 -0.4157
32235SOL     OW 1261   3.914   9.033   5.271 -0.2687  0.1194  0.8538
32235SOL    HW1 1262   3.971   8.980   5.216 -1.7098 -0.7742  0.1478
32235SOL    HW2 1263   3.882   8.972   5.338 -1.3106  0.2797  0.5213
32236SOL     OW 1264   2.564   0.005  10.350 -0.1077 -0.0412 -0.1833
32236SOL    HW1 1265   2.616   0.081  10.325  0.4735  0.9460  3.3995
32236SOL    HW2 1266   2.473   0.032  10.334  0.2049 -0.3756 -3.0246
32237SOL     OW 1267   7.691   0.913   1.528  0.3498  0.1614 -0.2857
32237SOL    HW1 1268   7.775   0.871   1.545 -0.3272 -0.8706  0.6300
32237SOL    HW2 1269   7.669   0.956   1.610 -0.6515 -0.7464 -0.0593
32238SOL     OW 1270   4.541   0.713   3.696 -0.3553 -0.4896  0.0712
32238SOL    HW1 1271   4.445   0.710   3.692 -0.4584  0.3774  1.3683
32238SOL    HW2 1272   4.568   0.725   3.605 -1.3084 -3.5530 -0.7587
32239SOL     OW 1273   1.632   1.687   9.049  0.7584 -0.1457 -0.1719
32239SOL    HW1 1274   1.610   1.769   9.005 -0.5085 -0.1000  0.5216
32239SOL    HW2 1275   1.723   1.699   9.077  1.4392  0.0299 -2.2614
32240SOL     OW 1276   3.302   3.392   5.236  0.7900  0.1202  0.2256
32240SOL    HW1 1277   3.219   3.424   5.272  0.9359 -0.0500  0.7238
32240SOL    HW2 1278   3.294   3.297   5.237  1.5699  0.0362  1.7269
32241SOL     OW 1279   9.891   9.594   6.287 -0.3777  0.2068  0.5009
32241SOL    HW1 1280   9.834   9.596   6.364 -0.7068  2.8899  0.2889
32241SOL    HW2 1281   9.978   9.615   6.320 -0.3907  0.6693  0.2562
32242SOL     OW 1282   0.933   5.720   8.039 -0.4559 -0.2012  0.0313
32242SOL    HW1 1283   0.951   5.763   7.956  0.5167 -0.4320  0.1211
32242SOL    HW2 1284   0.840   5.740   8.056 -0.4912  0.3767 -0.7853
32243SOL     OW 1285  10.488  11.862   7.419  0.1399 -0.7879 -0.3798
32243SOL    HW1 1286  10.573  11.827   7.447 -1.0598 -3.2586  0.4112
32243SOL    HW2 1287  10.470  11.933   7.481  1.6432 -0.1492 -0.6274
32244SOL     OW 1288   2.778   4.856   4.091  0.1830 -0.2273 -0.1272
32244SOL    HW1 1289   2.717   4.796   4.134 -1.0104  1.1744  0.2080
32244SOL    HW2 1290   2.773   4.832   3.998  0.3682 -1.1795  0.0924
32245SOL     OW 1291   1.643  11.677  10.517  0.6856 -0.0572  0.0575
32245SOL    HW1 1292   1.564  11.717  10.553  0.8483  0.1819  0.1526
32245SOL    HW2 1293   1.649  11.593  10.562  0.3712 -0.1665 -0.1042
32246SOL     OW 1294   2.665   9.483   0.919  0.2381  0.4376 -0.4254
32246SOL    HW1 1295   2.618   9.486   1.002 -0.6734 -0.8824 -0.8647
32246SOL    HW2 1296   2.626   9.553   0.866 -1.9300 -1.2161 -1.1118
32247SOL     OW 1297   2.343   8.358  11.534  0.3049 -0.3848 -0.0275
32247SOL    HW1 1298   2.376   8.268  11.539  1.5732  0.0240 -0.5556
32247SOL    HW2 1299   2.282   8.365  11.607 -2.1864 -2.5794 -1.7168
32248SOL     OW 1300   5.902   1.725   3.158 -0.4602 -0.4782  0.5315
32248SOL    HW1 1301   5.902   1.695   3.067 -0.0633 -0.7822  0.6318
32248SOL    HW2 1302   5.960   1.801   3.159 -0.3856 -0.5351  0.5495
32249SOL     OW 1303  11.066   3.939   1.893  0.3468  0.4513 -0.1387
32249SOL    HW1 1304  11.055   4.034   1.896  2.0423  0.6568  2.5152
32249SOL    HW2 1305  10.980   3.905   1.918 -0.6958  1.1577 -2.4744
32250SOL     OW 1306   4.960   7.844   5.611 -0.1689 -0.0406  0.3923
32250SOL    HW1 1307   4.875   7.824   5.649 -0.3797  1.6366  0.8464
32250SOL    HW2 1308   5.013   7.874   5.685  0.4057  0.2014 -0.1108
32251SOL     OW 1309   2.664   8.901  10.985  0.6476  0.4869  0.0137
32251SOL    HW1 1310   2.751   8.939  10.977  1.7276 -1.6678  0.8037
32251SOL    HW2 1311   2.679   8.807  10.990 -1.4898  0.1693  2.8492
32252SOL     OW 1312   1.106   0.198   1.427 -0.4604  0.3737 -0.0519
32252SOL    HW1 1313   1.033   0.252   1.398 -0.4583 -0.0619 -0.9196
32252SOL    HW2 1314   1.124   0.226   1.517 -2.0811  0.0705  0.3956
32253SOL     OW 1315   0.800  11.691   3.420  0.6598 -0.2867 -0.2497
32253SOL    HW1 1316   0.862  11.736   3.477 -0.0515  1.6172 -0.8901
32253SOL    HW2 1317   0.816  11.598   3.435  1.0543  0.1344  2.4375
32254SOL     OW 1318   2.552   7.890   8.149 -0.8169  0.0852  0.3085
32254SOL    HW1 1319   2.528   7.821   8.210 -0.7819  0.1528  0.3987
32254SOL    HW2 1320   2.647   7.883   8.141 -0.9562 -0.9876 -0.9954
32255SOL     OW 1321   1.493  11.615  10.211 -0.7487 -0.1591  0.0236
32255SOL    HW1 1322   1.460  11.561  10.139 -0.5553 -1.9889  1.2367
32255SOL    HW2 1323   1.506  11.702  10.172 -1.1900 -0.9369 -1.9790
32256SOL     OW 1324   2.922   3.943   5.325  0.2398 -0.1459 -0.5282
32256SOL    HW1 1325   2.979   3.874   5.357 -0.3327 -0.4409 -0.1316
32256SOL    HW2 1326   2.978   4.021   5.323  0.3530 -0.1596  0.9880
32257SOL     OW 1327   9.258   2.995   9.774 -0.0542 -0.1350 -0.4021
32257SOL    HW1 1328   9.331   2.970   9.717 -1.0603 -1.6680 -1.0943
32257SOL    HW2 1329   9.268   2.941   9.852 -0.8651 -0.9579 -0.8451
32258SOL     OW 1330   7.060   4.810   2.821  0.4771 -0.1242 -0.6337
32258SOL    HW1 1331   7.008   4.775   2.893  1.1898 -1.3865 -0.6982
32258SOL    HW2 1332   7.017   4.778   2.742 -0.9014  2.0894 -0.8816
32259SOL     OW 1333   8.700   8.967  10.437 -0.6940 -0.0171 -0.0875
32259SOL    HW1 1334   8.605   8.976  10.444 -0.7556 -0.8074  0.1827
32259SOL    HW2 1335   8.717   8.876  10.458  0.2904  0.5031  1.5780
32260SOL     OW 1336   5.300   2.623   4.207 -0.7701  0.0188 -0.1966
32260SOL    HW1 1337   5.325   2.713   4.190  1.3794 -0.5006 -0.0054
32260SOL    HW2 1338   5.312   2.579   4.123  0.4126 -0.5377  0.2458
32261SOL     OW 1339   1.084   9.311   7.694 -0.2449 -0.3669  0.2424
32261SOL    HW1 1340   1.131   9.245   7.745 -0.9423  0.4774  2.0648
32261SOL    HW2 1341   0.998   9.273   7.678 -0.3644 -0.2428  0.5768
32262SOL     OW 1342  10.465   5.076   2.426  0.1661 -0.0208 -0.5115
32262SOL    HW1 1343  10.474   4.981   2.434  0.5528 -0.0842 -1.5522
32262SOL    HW2 1344  10.386   5.090   2.375 -0.4875  0.2687  0.5384
32263SOL     OW 1345   4.730  10.271  10.770  1.0240 -0.7485 -0.1987
32263SOL    HW1 1346   4.742  10.215  10.846 -0.2840 -0.6298  0.1178
32263SOL    HW2 1347   4.741  10.360  10.804  1.1156 -0.7252 -0.2892
32264SOL     OW 1348   1.614   1.183   5.696  0.0164 -0.3946  0.1665
32264SOL    HW1 1349   1.640   1.243   5.626 -0.3433 -1.3393 -0.7993
32264SOL    HW2 1350   1.648   1.098   5.669  0.5410 -0.6374  1.5349
32265SOL     OW 1351  11.340   8.014   3.456 -0.4321  0.1086  0.5405
32265SOL    HW1 1352  11.310   7.931   3.418 -0.1009  0.0817  0.3307
32265SOL    HW2 1353  11.308   8.012   3.546 -1.6841  0.4029  0.1300
32266SOL     OW 1354   8.493   5.878   8.374  0.0873 -0.0481  0.2358
32266SOL    HW1 1355   8.524   5.813   8.436 -1.0966 -1.6098 -0.7230
32266SOL    HW2 1356   8.515   5.841   8.288 -1.2375  0.4791 -0.3521
32267SOL     OW 1357   7.568   7.563   0.399  0.0169 -0.0040 -0.3175
32267SOL    HW1 1358   7.521   7.481   0.414  1.1602 -0.6958 -0.3184
32267SOL    HW2 1359   7.583   7.599   0.486 -1.3015  0.6949 -0.3705
32268SOL     OW 1360   2.480   0.709   0.313 -0.4554  1.0225  0.1473
32268SOL    HW1 1361   2.547   0.777   0.319  1.6203 -1.0367  2.0195
32268SOL    HW2 1362   2.499   0.649   0.384 -1.2849 -2.3409 -2.1998
32269SOL     OW 1363  11.318  11.858   5.329  0.1043 -0.3891 -0.4502
32269SOL    HW1 1364  11.261  11.811   5.390 -0.4833 -0.5541 -1.1142
32269SOL    HW2 1365  11.278  11.844   5.243  1.7144 -1.3891 -1.0858
32270SOL     OW 1366   1.040   2.553   8.744  0.0170 -0.4441 -0.0502
32270SOL    HW1 1367   1.074   2.522   8.660 -0.5207  0.2031 -0.5238
32270SOL    HW2 1368   1.116   2.593   8.787  0.5114 -1.6219  0.1982
32271SOL     OW 1369   6.383  10.535   9.249 -0.2234 -0.1654  0.1215
32271SOL    HW1 1370   6.445  10.487   9.193  2.1863  1.7378  0.9819
32271SOL    HW2 1371   6.325  10.579   9.187 -1.0491 -2.3353 -0.7091
32272SOL     OW 1372   8.991   4.062   1.256  0.2169 -0.2050  0.2700
32272SOL    HW1 1373   9.080   4.061   1.222  0.7305  2.0775  1.3404
32272SOL    HW2 1374   8.967   4.155   1.259 -1.7448 -0.6778  1.1436
32273SOL     OW 1375   4.778   0.946   9.355  0.0659 -0.1056  0.3517
32273SOL    HW1 1376   4.738   0.970   9.271  0.4507 -1.0857 -0.1245
32273SOL    HW2 1377   4.804   1.030   9.393  3.3128  0.2960 -2.2336
32274SOL     OW 1378  10.136   8.212  10.041 -0.1181  0.5201  0.7896
32274SOL    HW1 1379  10.197   8.138  10.038  1.9802  2.1266  1.6872
32274SOL    HW2 1380  10.140   8.249   9.953 -1.3836 -0.5079  0.2524
32275SOL     OW 1381   6.131   2.374   9.789 -0.7617 -0.6696  0.2732
32275SOL    HW1 1382   6.117   2.468   9.774  1.1430 -0.3744  0.1294
32275SOL    HW2 1383   6.104   2.360   9.879  0.2937  0.3224  0.7614
32276SOL     OW 1384   1.690  10.605   4.630  0.2767 -0.4975  0.1475
32276SOL    HW1 1385   1.603  10.641   4.610  0.4293 -1.1620 -2.0520
32276SOL    HW2 1386   1.679  10.560   4.714 -0.9941  1.0052  0.8382
32277SOL     OW 1387   6.725  11.123   9.681  0.4062  0.4193 -0.3673
32277SOL    HW1 1388   6.787  11.074   9.628  2.1209  2.4500 -0.3365
32277SOL    HW2 1389   6.705  11.065   9.754  2.5347 -0.1951 -0.2172
32278SOL     OW 1390   0.512   0.239   3.844  0.4159  0.5894  0.0668
32278SOL    HW1 1391   0.431   0.271   3.804  0.0699  0.0734  0.3357
32278SOL    HW2 1392   0.505   0.143   3.839  1.4875  0.5346 -0.8359
32279SOL     OW 1393   9.047   2.294   2.676  0.1870  0.1599 -0.2063
32279SOL    HW1 1394   9.111   2.236   2.718  2.8215  2.4544 -0.6955
32279SOL    HW2 1395   9.043   2.265   2.586  0.4456 -0.1033 -0.1334
32280SOL     OW 1396   5.629   3.415   1.886  0.4746  0.4065 -0.7835
32280SOL    HW1 1397   5.710   3.447   1.926  1.0208 -0.4328 -1.1700
32280SOL    HW2 1398   5.659   3.360   1.813 -0.4785  1.8868 -2.3588
32281SOL     OW 1399  11.343   8.554  11.622  0.1801  0.2842  0.0958
32281SOL    HW1 1400  11.394   8.625  11.661 -0.2159 -0.4288  2.0793
32281SOL    HW2 1401  11.407   8.486  11.603  0.3674  0.6012 -0.4220
32282SOL     OW 1402   4.155   4.076   0.783 -0.3702 -0.0399  0.2263
32282SOL    HW1 1403   4.077   4.131   0.788 -0.6246 -0.2634 -1.0756
32282SOL    HW2 1404   4.186   4.084   0.693  0.3677 -0.9724  0.3724
32283SOL     OW 1405  11.539   7.945  10.480 -0.6414 -0.1058  0.6830
32283SOL    HW1 1406  11.509   7.990  10.401 -0.8141 -3.9141 -1.6904
32283SOL    HW2 1407  11.461   7.941  10.536 -1.0635  0.9928  0.2014
32284SOL     OW 1408   9.252  11.135  11.347 -0.1081 -0.0007  0.5698
32284SOL    HW1 1409   9.184  11.175  11.294  0.0713  4.2707  3.1197
32284SOL    HW2 1410   9.204  11.089  11.416 -0.3639  0.1198  0.4736
32285SOL     OW 1411   9.300   8.841   9.998  0.1416 -0.1139  1.1180
32285SOL    HW1 1412   9.242   8.915  10.013 -1.0005 -0.7420  0.0013
32285SOL    HW2 1413   9.260   8.793   9.926  0.9246 -1.7491  1.7144
32286SOL     OW 1414  11.770   9.045   2.155 -0.1409  0.4376 -0.3495
32286SOL    HW1 1415  11.804   9.055   2.065 -1.6342 -0.5477 -1.0541
32286SOL    HW2 1416  11.821   9.108   2.206  2.3099 -0.5449 -1.4362
32287SOL     OW 1417   3.447  11.177   6.806 -0.3497  0.1331  0.0996
32287SOL    HW1 1418   3.414  11.211   6.723  1.1119  2.4068  0.3591
32287SOL    HW2 1419   3.396  11.223   6.873  0.3063  0.3716  0.4492
32288SOL     OW 1420   3.308  12.112   0.338 -0.0027 -0.0844 -0.5211
32288SOL    HW1 1421   3.338  12.027   0.307  0.8039 -0.4443  1.1564
32288SOL    HW2 1422   3.228  12.092   0.388  0.8608 -0.0567  0.9232
32289SOL     OW 1423   0.725   4.109   4.442 -0.3345 -0.1260  0.1866
32289SOL    HW1 1424   0.701   4.149   4.358 -2.0403 -0.1525  0.6232
32289SOL    HW2 1425   0.642   4.076   4.477  0.6791 -2.0838  0.8695
32290SOL     OW 1426  10.123   0.149   8.962 -0.3005 -0.3630 -0.3367
32290SOL    HW1 1427  10.046   0.188   9.004  0.2166  0.1546  0.1571
32290SOL    HW2 1428  10.093   0.124   8.875 -0.6644  1.1674 -0.6808
32291SOL     OW 1429  11.283   8.101   6.697 -0.1289 -0.1848 -0.0901
32291SOL    HW1 1430  11.259   8.109   6.605  0.9342  1.9076 -0.2531
32291SOL    HW2 1431  11.306   8.008   6.708  0.7761 -0.2673 -2.2152
32292SOL     OW 1432   1.747   1.499   9.500 -0.5732  0.2457  0.0672
32292SOL    HW1 1433   1.704   1.450   9.430 -1.0171 -0.3014  0.7129
32292SOL    HW2 1434   1.785   1.432   9.557  0.8741  0.6999 -0.2979
32293SOL     OW 1435   0.344   4.491  10.430 -0.1349 -0.2695  0.5740
32293SOL    HW1 1436   0.262   4.445  10.412 -0.3601 -0.4285  1.8941
32293SOL    HW2 1437   0.369   4.462  10.517 -0.1885  1.9501  1.3883
32294SOL     OW 1438   1.635   6.619   7.312  0.0336 -0.1059  0.1037
32294SOL    HW1 1439   1.586   6.671   7.375  0.7467 -0.8148  1.2788
32294SOL    HW2 1440   1.581   6.619   7.233 -2.1323 -1.2586  1.4901
32295SOL     OW 1441   0.855   6.878  11.620  0.8969  0.2501  1.2024
32295SOL    HW1 1442   0.787   6.908  11.560  0.5802 -1.1326  0.8287
32295SOL    HW2 1443   0.898   6.807  11.573  1.1959 -0.2967  2.2823
32296SOL     OW 1444   9.518   5.944  10.781 -0.4444  0.1097 -0.1541
32296SOL    HW1 1445   9.508   5.865  10.836 -0.3966 -0.5296 -1.0483
32296SOL    HW2 1446   9.432   5.986  10.784 -0.8426 -0.6541 -0.6893
32297SOL     OW 1447   3.186   0.967   9.646 -0.0090 -0.0612  0.0207
32297SOL    HW1 1448   3.125   0.935   9.713 -0.7722 -1.3066 -1.2095
32297SOL    HW2 1449   3.231   1.041   9.688 -3.6011  2.1372  0.4155
32298SOL     OW 1450   7.326   8.181   1.822 -0.1374 -0.3922  0.2099
32298SOL    HW1 1451   7.408   8.163   1.868  0.1401 -0.6585 -0.3684
32298SOL    HW2 1452   7.306   8.100   1.775 -0.5321 -0.2063  0.0514
32299SOL     OW 1453   6.866   7.383   9.505  0.2053  0.0901 -0.1652
32299SOL    HW1 1454   6.834   7.396   9.595 -0.7212  2.0150 -0.7069
32299SOL    HW2 1455   6.904   7.295   9.505 -0.4861 -0.2632  1.8970
32300SOL     OW 1456   6.889   7.093  10.365  0.0298 -0.3601  0.2745
32300SOL    HW1 1457   6.846   7.125  10.286  0.7176  0.2180  0.1267
32300SOL    HW2 1458   6.979   7.076  10.338  0.0737 -0.9203  0.7455
32301SOL     OW 1459   5.350   6.993   4.656  0.1664 -0.4429  0.4106
32301SOL    HW1 1460   5.291   6.991   4.581  0.2987 -0.7006  0.3110
32301SOL    HW2 1461   5.403   7.072   4.643 -0.3245 -0.0655  0.6369
32302SOL     OW 1462   4.108   8.232  11.564  0.4601  0.1464  0.0450
32302SOL    HW1 1463   4.057   8.281  11.628  0.1908  0.0445 -0.0911
32302SOL    HW2 1464   4.181   8.195  11.614 -0.0747 -0.4290  0.4096
32303SOL     OW 1465   8.393   7.107   8.571 -0.3144  0.0311  0.2118
32303SOL    HW1 1466   8.325   7.066   8.624  0.8922  0.0358  1.8466
32303SOL    HW2 1467   8.387   7.064   8.486 -1.8906 -0.4359  0.5278
32304SOL     OW 1468   8.821   6.831   7.847 -0.9199  0.1845  0.2846
32304SOL    HW1 1469   8.877   6.836   7.770 -0.1110  0.8113  0.9065
32304SOL    HW2 1470   8.732   6.833   7.811 -0.5638  0.0382 -0.6525
32305SOL     OW 1471   9.238   0.892   0.527  0.0603  0.0362  0.3253
32305SOL    HW1 1472   9.257   0.904   0.620 -3.1916  1.7974  0.9125
32305SOL    HW2 1473   9.170   0.956   0.508  0.7402 -0.1291 -3.3726
32306SOL     OW 1474   8.996   5.042   2.728 -0.2140 -0.1843  0.0593
32306SOL    HW1 1475   9.067   4.988   2.763  1.4218  1.8526  0.0566
32306SOL    HW2 1476   8.961   5.089   2.805  1.2717  1.9112 -0.4544
32307SOL     OW 1477   9.053  11.194   1.689  0.6016 -0.1916 -0.7649
32307SOL    HW1 1478   9.057  11.262   1.756  0.7949 -2.5265  1.7948
32307SOL    HW2 1479   9.091  11.234   1.611  1.8634  2.2129  0.9569
32308SOL     OW 1480   8.982   5.743  11.476 -0.7256 -0.1587 -0.5008
32308SOL    HW1 1481   8.931   5.707  11.403  0.1608  2.2359 -2.4418
32308SOL    HW2 1482   8.985   5.838  11.458 -0.3758  0.5173  2.6349
32309SOL     OW 1483   1.490   3.647   3.926  0.3350  0.7209 -0.2966
32309SOL    HW1 1484   1.441   3.566   3.909  1.1593  0.1182  0.1013
32309SOL    HW2 1485   1.449   3.684   4.004  1.3705 -0.5329  0.9006
32310SOL     OW 1486  11.187   3.866   6.965 -0.3691 -0.3436 -0.2394
32310SOL    HW1 1487  11.158   3.955   6.985  0.7599 -0.2573  1.1475
32310SOL    HW2 1488  11.155   3.813   7.038 -0.8095 -1.0451 -0.9268
32311SOL     OW 1489   9.238   1.607   1.130 -0.0281  0.1775  0.3472
32311SOL    HW1 1490   9.202   1.524   1.098  0.9532  0.4023 -1.5151
32311SOL    HW2 1491   9.161   1.663   1.144 -0.5550  0.1745 -2.1101
32312SOL     OW 1492   3.582  10.094   0.045 -0.0826  0.6961  0.2167
32312SOL    HW1 1493   3.528  10.165   0.009 -0.6586  0.6157  0.8897
32312SOL    HW2 1494   3.520  10.024   0.064  0.2583  0.5778  0.9526
32313SOL     OW 1495  11.339   8.236  10.943  0.0336  0.1430 -0.0244
32313SOL    HW1 1496  11.335   8.266  10.852  1.5000 -0.6051 -0.3788
32313SOL    HW2 1497  11.393   8.157  10.939  0.4162  0.2995  1.5391
32314SOL     OW 1498   1.874   2.349   9.635  0.6595 -0.8806  0.2164
32314SOL    HW1 1499   1.892   2.305   9.552 -0.7854 -0.0048 -0.6078
32314SOL    HW2 1500   1.787   2.318   9.660  0.6124 -0.2892  0.8174
32315SOL     OW 1501   8.795   8.614   1.567 -0.3566  0.0401  0.1852
32315SOL    HW1 1502   8.855   8.549   1.603 -1.0757 -1.3343 -0.9748
32315SOL    HW2 1503   8.782   8.677   1.638 -0.1513 -1.4476  1.5983
32316SOL     OW 1504   0.830   7.176   4.153  0.0041  0.5225  0.2141
32316SOL    HW1 1505   0.816   7.192   4.060  0.6078  2.0155  0.3514
32316SOL    HW2 1506   0.888   7.247   4.181  1.8855 -1.2891  1.2014
32317SOL     OW 1507   0.312   2.659   0.261 -0.5938  0.3427 -0.1360
32317SOL    HW1 1508   0.384   2.608   0.226 -0.4592  0.8568 -0.6390
32317SOL    HW2 1509   0.277   2.706   0.185 -1.8312 -0.3420 -0.0096
32318SOL     OW 1510   5.635   7.785  10.811  0.0555  0.0407  0.1434
32318SOL    HW1 1511   5.568   7.804  10.876  0.9139 -0.5585  1.2432
32318SOL    HW2 1512   5.706   7.846  10.831  0.5409 -0.5077  0.1256
32319SOL     OW 1513   5.082   5.715   2.557 -0.0396 -0.7067  0.6042
32319SOL    HW1 1514   5.071   5.632   2.511  1.2253 -0.2284 -0.6589
32319SOL    HW2 1515   5.134   5.769   2.496  0.4815  0.4655  2.0252
32320SOL     OW 1516  11.226   1.522   2.787  0.6375  0.0003 -0.2123
32320SOL    HW1 1517  11.278   1.562   2.719  0.2010 -0.3090 -0.7360
32320SOL    HW2 1518  11.251   1.429   2.786 -0.1002 -0.2029 -0.6470
32321SOL     OW 1519  12.093  11.106   3.233 -0.7221 -0.1630 -0.4002
32321SOL    HW1 1520  12.094  11.027   3.180  2.3502 -1.7352  1.7393
32321SOL    HW2 1521  12.145  11.169   3.184 -0.5936 -0.5098 -0.7109
32322SOL     OW 1522   6.732   9.013   0.883 -0.2388  0.6264 -0.0394
32322SOL    HW1 1523   6.669   9.027   0.812 -1.5993 -0.1616  0.9571
32322SOL    HW2 1524   6.689   8.950   0.941  1.0578  0.8452  1.2210
32323SOL     OW 1525  11.816  11.482  10.303  0.1958  0.2030 -0.7095
32323SOL    HW1 1526  11.738  11.487  10.359  0.9782 -0.7264  0.5060
32323SOL    HW2 1527  11.862  11.565  10.319  0.4411 -0.0781  0.0864
32324SOL     OW 1528   0.942  11.195   6.073 -0.0353 -0.6020  0.2591
32324SOL    HW1 1529   0.879  11.215   6.142 -0.5876 -1.6281  0.0676
32324SOL    HW2 1530   0.996  11.274   6.067 -0.8899  0.0504  0.8617
32325SOL     OW 1531   8.680   6.992   5.500  0.0478  0.4500  0.3242
32325SOL    HW1 1532   8.596   7.023   5.536 -0.3224 -0.2636  0.0925
32325SOL    HW2 1533   8.662   6.903   5.471  0.2916  1.0507 -1.8119
32326SOL     OW 1534  10.784   5.701   8.466  0.1436  0.1614  0.1816
32326SOL    HW1 1535  10.867   5.722   8.422 -0.1848 -1.4904 -1.3388
32326SOL    HW2 1536  10.717   5.738   8.408 -0.2605 -1.1363 -0.2160
32327SOL     OW 1537   5.774   9.425  10.072 -0.1776  0.3473 -0.2361
32327SOL    HW1 1538   5.702   9.363  10.070 -1.1285  1.4223 -0.1457
32327SOL    HW2 1539   5.795   9.435  10.165 -1.2091  1.4800 -0.1110
32328SOL     OW 1540  10.064   0.291   8.434 -0.1364  0.2137 -0.2038
32328SOL    HW1 1541  10.139   0.348   8.449  1.0940 -1.3632 -0.1193
32328SOL    HW2 1542  10.003   0.312   8.506  0.6947  0.7502  0.3608
32329SOL     OW 1543   5.990   9.235   4.582  0.5088 -0.5637  0.2004
32329SOL    HW1 1544   5.977   9.307   4.643  0.1945  0.9554 -1.5874
32329SOL    HW2 1545   5.921   9.172   4.604  0.0220  0.2238  0.9999
32330SOL     OW 1546   5.477   7.766   5.484  0.1208  0.3759  0.6851
32330SOL    HW1 1547   5.394   7.746   5.440  0.2588  0.0703  0.5579
32330SOL    HW2 1548   5.538   7.786   5.412  0.6862 -1.3588  0.6192
32331SOL     OW 1549   2.548   0.104   1.499 -0.2375  0.1715  0.2404
32331SOL    HW1 1550   2.529   0.030   1.441  0.7557 -0.4266  0.6556
32331SOL    HW2 1551   2.511   0.078   1.583 -2.6978  1.5244 -0.3394
32332SOL     OW 1552   0.515  11.318  10.995 -0.5291 -0.0180 -0.0748
32332SOL    HW1 1553   0.441  11.295  11.052 -0.6769  1.1136  0.2124
32332SOL    HW2 1554   0.477  11.320  10.907 -0.3180 -1.6928 -0.2426
32333SOL     OW 1555   6.005   9.624   9.887  0.1444  0.0483 -0.2742
32333SOL    HW1 1556   6.014   9.537   9.925 -0.6681  0.0746  0.0013
32333SOL    HW2 1557   5.911   9.632   9.868  0.4358  0.2618 -1.7399
32334SOL     OW 1558  11.486   8.056   8.615  0.0830 -0.1097  0.0533
32334SOL    HW1 1559  11.561   8.029   8.562  0.6131  0.5004  0.4897
32334SOL    HW2 1560  11.428   7.979   8.615  0.8783 -0.7197  0.0348
32335SOL     OW 1561   4.191   7.834   6.998  0.3824  0.0914 -0.9270
32335SOL    HW1 1562   4.245   7.913   6.992  1.1112 -0.1842  1.1638
32335SOL    HW2 1563   4.244   7.772   7.048 -1.9093 -0.0945  1.4906
32336SOL     OW 1564   0.725  10.429  11.620  0.3254  0.0315  0.1721
32336SOL    HW1 1565   0.635  10.461  11.624 -0.4020 -1.7610 -0.5777
32336SOL    HW2 1566   0.769  10.488  11.558 -0.2848  0.9975  0.6343
32337SOL     OW 1567  10.543   8.583   3.133  0.3942  0.0738  0.1547
32337SOL    HW1 1568  10.453   8.599   3.102  0.7093  1.6826 -0.0234
32337SOL    HW2 1569  10.548   8.630   3.216  0.8707 -0.6155  0.5231
32338SOL     OW 1570  11.574   8.690   0.604 -0.4264 -0.2277 -0.5802
32338SOL    HW1 1571  11.639   8.726   0.543 -0.9063  2.1593  0.1936
32338SOL    HW2 1572  11.626   8.643   0.669  0.0411 -4.1490 -3.4082
32339SOL     OW 1573   8.511  10.311   9.647  0.1342 -0.5779  0.0399
32339SOL    HW1 1574   8.532  10.256   9.722 -0.5966 -0.0970  0.6071
32339SOL    HW2 1575   8.502  10.399   9.683 -0.2891 -0.3532 -0.5958
32340SOL     OW 1576   4.030  10.092   4.299  0.0320 -0.0645  0.1958
32340SOL    HW1 1577   4.044  10.074   4.206  0.0285  0.7066  0.0467
32340SOL    HW2 1578   3.946  10.050   4.318  0.3219 -0.7493  0.0024
32341SOL     OW 1579   8.888   8.524   8.340  0.4995  0.5017  0.1566
32341SOL    HW1 1580   8.911   8.454   8.402  1.1929 -1.0517 -1.7542
32341SOL    HW2 1581   8.811   8.566   8.379 -1.9032 -3.2791  0.0004
32342SOL     OW 1582   6.307   6.563   2.062 -0.5736  0.0106 -0.3771
32342SOL    HW1 1583   6.276   6.543   1.974  0.1332  0.6741 -0.7881
32342SOL    HW2 1584   6.229   6.593   2.108 -0.7100  0.9859 -1.1934
32343SOL     OW 1585   5.821  10.293  12.012  0.1973 -0.0111 -0.2150
32343SOL    HW1 1586   5.902  10.339  12.033  0.0465  0.2886 -0.2788
32343SOL    HW2 1587   5.779  10.347  11.944  1.5364 -1.8816 -2.6890
32344SOL     OW 1588  10.203   9.716   9.734 -0.4236 -0.2060  0.1584
32344SOL    HW1 1589  10.138   9.721   9.805 -0.5038 -3.0030  0.4053
32344SOL    HW2 1590  10.171   9.645   9.678 -0.1030  1.5807 -2.5113
32345SOL     OW 1591   5.310   2.806   1.484 -0.5017  0.8037  0.3194
32345SOL    HW1 1592   5.351   2.749   1.419  1.8819  1.7425  0.9199
32345SOL    HW2 1593   5.338   2.894   1.461 -0.5747  1.2750  1.9017
32346SOL     OW 1594  10.676   2.595   3.629 -0.6295  0.1400  0.5331
32346SOL    HW1 1595  10.610   2.619   3.694  0.9571  0.3914  2.1300
32346SOL    HW2 1596  10.718   2.678   3.605 -0.9889  0.0153 -0.6323
32347SOL     OW 1597   4.965   0.262   6.689 -0.0809  0.3762  0.2269
32347SOL    HW1 1598   4.907   0.332   6.720  0.8029  0.9616  0.5762
32347SOL    HW2 1599   5.025   0.247   6.762 -0.3790 -0.8906  0.2341
32348SOL     OW 1600   3.217  11.668   3.729  0.4215  0.0936  0.8807
32348SOL    HW1 1601   3.267  11.708   3.800 -1.8090  0.0014  2.6365
32348SOL    HW2 1602   3.238  11.575   3.734  1.5035  0.3042  0.3480
32349SOL     OW 1603   8.674  10.353  11.625 -0.3005 -0.9556 -0.0864
32349SOL    HW1 1604   8.634  10.297  11.559  1.1287 -1.3347 -0.6780
32349SOL    HW2 1605   8.683  10.438  11.582  0.2363 -1.0838 -0.2297
32350SOL     OW 1606   4.789   9.708   9.790 -0.1147 -0.1128  0.1144
32350SOL    HW1 1607   4.746   9.794   9.791 -1.3666 -0.6476  3.0340
32350SOL    HW2 1608   4.740   9.657   9.726 -0.4375  0.8484 -0.4259
32351SOL     OW 1609   8.448   4.542   9.133 -0.1838 -0.2390  0.6498
32351SOL    HW1 1610   8.369   4.505   9.172 -0.6689  0.0880 -0.0251
32351SOL    HW2 1611   8.505   4.559   9.209  0.0509 -2.2784  1.0077
32352SOL     OW 1612   6.024   3.528  10.929  0.6182  0.4572  0.0556
32352SOL    HW1 1613   5.942   3.532  10.880  1.5024 -2.2664 -1.8691
32352SOL    HW2 1614   6.009   3.462  10.996  1.6606 -1.3669 -1.4066
32353SOL     OW 1615   2.267   7.918   2.366 -0.0953 -0.1205  0.4005
32353SOL    HW1 1616   2.315   7.835   2.364  2.2875  1.1789 -0.4930
32353SOL    HW2 1617   2.271   7.946   2.458  0.7298 -0.1019  0.3612
32354SOL     OW 1618   7.596   7.577   8.453 -0.1130 -0.5058  0.2445
32354SOL    HW1 1619   7.645   7.502   8.488  0.9336 -1.1650 -2.4186
32354SOL    HW2 1620   7.530   7.537   8.396 -1.2094  0.5477  0.7418
32355SOL     OW 1621   4.179   2.583   5.544  0.1107  0.8377 -0.1038
32355SOL    HW1 1622   4.121   2.600   5.470  2.2962 -1.1982 -2.4479
32355SOL    HW2 1623   4.121   2.554   5.614 -1.9013  1.4592 -1.4439
32356SOL     OW 1624  10.431   7.771  10.145  0.0262  0.3120  0.1679
32356SOL    HW1 1625  10.355   7.713  10.141 -0.5597  0.8922  2.0268
32356SOL    HW2 1626  10.500   7.718  10.185  0.1617  0.2253 -0.1806
32357SOL     OW 1627   3.469   5.954   3.382 -0.3124 -0.4804 -0.1705
32357SOL    HW1 1628   3.423   5.976   3.463  0.4794  1.0487 -0.0851
32357SOL    HW2 1629   3.400   5.940   3.317 -0.9361 -0.7364  0.5417
32358SOL     OW 1630   9.350   6.666   7.578  0.0198  0.1227 -0.8406
32358SOL    HW1 1631   9.370   6.573   7.588 -0.3583 -0.0498 -1.6159
32358SOL    HW2 1632   9.277   6.681   7.638  0.1532 -0.0496 -0.6321
32359SOL     OW 1633   3.309   5.808   6.042 -0.2084  0.0175 -0.8585
32359SOL    HW1 1634   3.391   5.776   6.079 -1.2199 -1.6127  0.0891
32359SOL    HW2 1635   3.289   5.887   6.092  0.5923  0.2322 -0.8602
32360SOL     OW 1636   0.955   8.808   3.084  0.4214  0.0971 -0.3785
32360SOL    HW1 1637   0.993   8.735   3.034  0.2050 -1.3091  1.4301
32360SOL    HW2 1638   1.024   8.834   3.144  0.0308  0.4919 -0.0973
32361SOL     OW 1639  10.685   6.239   2.681  0.2676 -0.5240  0.1916
32361SOL    HW1 1640  10.709   6.237   2.774  0.8169 -1.8746  0.0443
32361SOL    HW2 1641  10.657   6.150   2.661  0.3509 -0.3044 -0.9902
32362SOL     OW 1642   5.112   2.551   2.393 -0.3555  0.2679  0.3292
32362SOL    HW1 1643   5.083   2.566   2.483  2.0800  1.1062  1.0627
32362SOL    HW2 1644   5.042   2.587   2.339 -1.5744  0.3548  1.8774
32363SOL     OW 1645   9.942  11.561   5.832 -0.6358 -0.5694 -0.2233
32363SOL    HW1 1646   9.893  11.512   5.898  0.3075 -1.2715 -0.0368
32363SOL    HW2 1647  10.022  11.511   5.819 -0.6036 -0.2085 -1.5831
32364SOL     OW 1648   8.646   3.552   4.136  0.3799 -0.1280  0.0534
32364SOL    HW1 1649   8.664   3.603   4.057  0.9107  0.1866  0.3689
32364SOL    HW2 1650   8.664   3.462   4.110 -1.6410 -0.3218 -0.8305
32365SOL     OW 1651  11.690  10.352   4.205 -0.2330 -0.8267 -0.4108
32365SOL    HW1 1652  11.725  10.273   4.247 -1.4157 -0.4760  1.3637
32365SOL    HW2 1653  11.747  10.423   4.237 -1.7728 -0.4084  1.5899
32366SOL     OW 1654   9.463   4.774   9.611 -0.4909 -0.2370  0.5890
32366SOL    HW1 1655   9.454   4.705   9.545  1.5734  0.9626 -1.0940
32366SOL    HW2 1656   9.542   4.751   9.659 -1.0043 -0.1556  1.4970
32367SOL     OW 1657   6.972   0.354   9.310 -0.5122 -0.1494 -0.2666
32367SOL    HW1 1658   7.044   0.417   9.302 -2.1408  1.8867  0.0536
32367SOL    HW2 1659   6.954   0.327   9.220  0.3130 -0.2773 -0.3958
32368SOL     OW 1660   7.707   6.922  11.358  0.1228  0.2874  0.4205
32368SOL    HW1 1661   7.650   6.916  11.281 -1.4396  0.8327  1.5004
32368SOL    HW2 1662   7.796   6.925  11.321 -0.4498 -1.4799 -1.2681
32369SOL     OW 1663  11.266   5.863   6.934  0.3148 -0.2916  0.2546
32369SOL    HW1 1664  11.244   5.797   6.868  0.2310 -0.4933  0.4826
32369SOL    HW2 1665  11.206   5.845   7.007 -1.5289  1.6677 -0.7016
32370SOL     OW 1666   3.034   4.682   7.493  0.5003 -0.7699 -0.0815
32370SOL    HW1 1667   2.990   4.657   7.574  0.0871  0.3860  0.0672
32370SOL    HW2 1668   2.976   4.652   7.423 -0.3243  0.3460  0.1079
32371SOL     OW 1669   0.703   8.606   0.086 -0.0982  0.0577  0.5531
32371SOL    HW1 1670   0.656   8.552   0.149 -0.6644 -1.3132 -0.9492
32371SOL    HW2 1671   0.634   8.641   0.028  0.4658  0.5748  0.1791
32372SOL     OW 1672  10.784  11.596  12.060 -0.0672 -0.5967 -0.7652
32372SOL    HW1 1673  10.740  11.665  12.011 -0.1427 -0.0317  0.0925
32372SOL    HW2 1674  10.727  11.580  12.135  0.4447 -0.9058 -0.4428
32373SOL     OW 1675   0.628   4.825   1.723 -0.1598  0.6107 -0.4399
32373SOL    HW1 1676   0.570   4.892   1.685 -0.1085 -0.3147 -2.2657
32373SOL    HW2 1677   0.601   4.744   1.681  0.3858 -0.3846  1.0630
32374SOL     OW 1678  11.711   9.614   4.763 -0.2413  0.7595  0.0449
32374SOL    HW1 1679  11.796   9.653   4.781 -0.9054  2.2317  0.2140
32374SOL    HW2 1680  11.714   9.528   4.805  0.9143  1.0652  0.6383
32375SOL     OW 1681   7.974   9.345   5.135 -0.1811 -0.5224  0.3864
32375SOL    HW1 1682   8.055   9.304   5.164 -0.2761 -1.9949 -1.2270
32375SOL    HW2 1683   7.989   9.439   5.144  0.2926 -0.7993  3.6095
32376SOL     OW 1684  11.722   4.355   6.154 -0.0575  0.2704  0.4058
32376SOL    HW1 1685  11.810   4.322   6.136 -0.1001  0.3144  0.1163
32376SOL    HW2 1686  11.735   4.422   6.221  0.1649  0.5084  0.1211
32377SOL     OW 1687  11.113  11.193   3.431  0.0734 -0.2327 -0.5611
32377SOL    HW1 1688  11.191  11.151   3.395  0.1918 -0.8413  0.3655
32377SOL    HW2 1689  11.139  11.222   3.518  0.0522  1.9877 -1.2310
32378SOL     OW 1690   6.411   0.067   8.069  0.5731  0.0334 -0.2850
32378SOL    HW1 1691   6.362   0.070   8.151 -0.4570  1.3980 -0.9009
32378SOL    HW2 1692   6.456  -0.017   8.071  1.6370  0.5860  2.2560
32379SOL     OW 1693   4.968   2.666   9.200 -0.5674 -0.2208 -0.2518
32379SOL    HW1 1694   4.948   2.620   9.282  1.5725 -0.0930  0.3922
32379SOL    HW2 1695   4.901   2.734   9.193 -1.9422 -1.4633  0.3602
32380SOL     OW 1696   7.094   2.648   5.274  0.3519 -0.4319 -0.5623
32380SOL    HW1 1697   7.187   2.634   5.260  0.8673  3.0540 -1.5569
32380SOL    HW2 1698   7.055   2.641   5.187  0.6118  3.0214 -1.0971
32381SOL     OW 1699   0.509   1.219   1.232 -0.1630  0.0312 -0.8593
32381SOL    HW1 1700   0.437   1.233   1.294  0.5389  0.5346 -0.1351
32381SOL    HW2 1701   0.469   1.171   1.160 -1.0416 -0.4672 -0.0742
32382SOL     OW 1702   1.705  11.082   8.677  0.3075  0.2231 -0.5546
32382SOL    HW1 1703   1.661  11.001   8.699  2.6556 -1.6655 -2.2648
32382SOL    HW2 1704   1.763  11.099   8.752  0.5579 -0.2489 -0.6418
32383SOL     OW 1705  11.471  10.176  11.654 -0.6047  0.0852  0.0338
32383SOL    HW1 1706  11.539  10.213  11.710 -1.6168 -1.5528  2.5392
32383SOL    HW2 1707  11.390  10.221  11.681 -1.2600 -1.3874  0.6656
32384SOL     OW 1708   5.316   0.891  10.050 -0.4709 -0.0035  0.1414
32384SOL    HW1 1709   5.281   0.954   9.986 -1.3860  0.1150  0.7428
32384SOL    HW2 1710   5.240   0.837  10.074 -0.1039 -0.1414  1.0193
32385SOL     OW 1711  11.878   6.591   1.949 -0.3090 -0.2185 -0.3402
32385SOL    HW1 1712  11.941   6.609   2.018 -0.8449 -0.9148  0.3573
32385SOL    HW2 1713  11.871   6.495   1.948  1.0165 -0.3538 -2.5830
32386SOL     OW 1714  10.894   9.969   6.506 -0.5156 -0.3028 -0.5979
32386SOL    HW1 1715  10.891   9.959   6.411 -0.4398 -0.9702 -0.5293
32386SOL    HW2 1716  10.877   9.882   6.541 -1.7567  0.1724  0.0259
32387SOL     OW 1717   1.255  10.106   7.804  0.0027  0.7405 -0.3392
32387SOL    HW1 1718   1.254  10.069   7.892 -0.3559  3.3801  0.8513
32387SOL    HW2 1719   1.339  10.078   7.767  0.7420  0.6443  1.3409
32388SOL     OW 1720   0.392   3.571   6.732  0.6008  0.2214 -0.0124
32388SOL    HW1 1721   0.483   3.597   6.745  0.8242 -0.5210 -0.0285
32388SOL    HW2 1722   0.342   3.651   6.746  1.3761  1.0506 -1.7248
32389SOL     OW 1723  11.993   4.451   9.536  0.6441  0.3152 -0.7371
32389SOL    HW1 1724  12.067   4.390   9.546  1.7451  1.5787 -0.8071
32389SOL    HW2 1725  11.959   4.433   9.449 -0.4413 -1.6282  0.0153
32390SOL     OW 1726   3.682   0.706   7.779 -0.1331  0.0229  0.4744
32390SOL    HW1 1727   3.640   0.625   7.748  0.3042  0.1477 -0.4557
32390SOL    HW2 1728   3.693   0.692   7.873 -2.8671  0.2484  0.9118
32391SOL     OW 1729   2.794   8.204   4.520  1.1364  0.0577 -0.0469
32391SOL    HW1 1730   2.729   8.254   4.569  0.1756 -0.4434 -0.7750
32391SOL    HW2 1731   2.823   8.263   4.450 -0.1578 -0.4549 -1.0389
32392SOL     OW 1732   5.899   0.922   9.868 -0.2474 -0.0484 -0.1569
32392SOL    HW1 1733   5.882   1.012   9.844 -1.8497 -0.2707  0.0246
32392SOL    HW2 1734   5.843   0.870   9.811  0.2620 -0.9065  0.0908
32393SOL     OW 1735   7.127   4.986  11.309 -0.7847  0.1577 -0.4816
32393SOL    HW1 1736   7.065   4.953  11.244  0.6929 -0.1815 -1.7790
32393SOL    HW2 1737   7.171   5.059  11.266 -0.7585  0.8600  0.6847
32394SOL     OW 1738  11.679  12.091   8.233  0.0213 -0.1389 -0.2069
32394SOL    HW1 1739  11.769  12.067   8.210  0.0951 -0.8382  0.7711
32394SOL    HW2 1740  11.680  12.103   8.328 -0.5911  1.3366 -0.3518
32395SOL     OW 1741   1.117   7.977   4.764 -0.0231 -0.6045  0.2814
32395SOL    HW1 1742   1.105   7.991   4.670  0.0400 -1.7706  0.0860
32395SOL    HW2 1743   1.210   7.960   4.775  0.3806  1.6832  0.8806
32396SOL     OW 1744   9.092   1.281   3.756  0.2203 -0.2203 -0.5137
32396SOL    HW1 1745   9.129   1.245   3.837  0.5036 -0.1639 -0.6142
32396SOL    HW2 1746   9.035   1.352   3.784 -0.8104 -1.1213 -0.2702
32397SOL     OW 1747   7.787   2.975   3.909  0.4130 -0.0205  0.3132
32397SOL    HW1 1748   7.699   2.938   3.898  1.1238 -1.5391 -0.5076
32397SOL    HW2 1749   7.830   2.916   3.971  0.9054  0.6420  0.6147
32398SOL     OW 1750   6.491   9.496   6.639  0.3222 -0.3246 -0.3712
32398SOL    HW1 1751   6.448   9.550   6.705  0.8421 -2.8986  2.2742
32398SOL    HW2 1752   6.579   9.531   6.632  0.1219  0.2501 -0.0531
32399SOL     OW 1753   6.872   2.016   9.219 -0.5515  0.1142 -0.1203
32399SOL    HW1 1754   6.958   1.974   9.230 -0.3687  0.2396 -1.0393
32399SOL    HW2 1755   6.825   1.960   9.157 -1.5731 -0.5849  1.2326
32400SOL     OW 1756   1.385   6.107  10.950 -0.6290  0.0450  0.7420
32400SOL    HW1 1757   1.294   6.129  10.968 -0.9019 -2.4097  3.0401
32400SOL    HW2 1758   1.383   6.016  10.921  0.9318  0.7083 -1.7616
32401SOL     OW 1759   6.322  11.793   3.875 -0.1700  0.2275  0.0880
32401SOL    HW1 1760   6.278  11.720   3.832 -2.4299  1.2889  0.4210
32401SOL    HW2 1761   6.373  11.835   3.805  1.8724 -2.0812  0.0805
32402SOL     OW 1762   5.001   9.147   2.998 -0.4620 -0.0504 -0.0616
32402SOL    HW1 1763   5.026   9.057   2.979 -1.9858 -0.3824 -0.6339
32402SOL    HW2 1764   5.063   9.201   2.949 -0.6057 -0.8261 -1.1221
32403SOL     OW 1765   2.766   9.069   1.999  0.4395 -0.6563 -0.1857
32403SOL    HW1 1766   2.801   9.157   1.983  1.8887 -1.1257  0.2613
32403SOL    HW2 1767   2.738   9.039   1.913  1.0742 -0.2288 -0.5474
32404SOL     OW 1768   9.383   4.167  10.162 -0.0870 -0.3619  0.7454
32404SOL    HW1 1769   9.332   4.219  10.225 -0.3493 -1.8967  1.8458
32404SOL    HW2 1770   9.329   4.167  10.083 -1.0641 -0.6569  1.3953
32405SOL     OW 1771   2.510   6.487   6.216 -0.4278  0.2459 -0.4827
32405SOL    HW1 1772   2.469   6.457   6.297  0.3404 -1.0714 -0.5659
32405SOL    HW2 1773   2.436   6.503   6.157 -0.8938 -1.9175 -0.5711
32406SOL     OW 1774  10.257   0.946   9.842  0.3000  0.0073 -0.1597
32406SOL    HW1 1775  10.274   1.026   9.793 -0.2028 -0.0772 -0.4720
32406SOL    HW2 1776  10.180   0.907   9.801 -0.0481 -0.1375  0.5994
32407SOL     OW 1777   2.335   2.434  11.902 -0.0429 -0.2652 -0.1399
32407SOL    HW1 1778   2.383   2.373  11.957 -2.2612 -0.8133  1.3088
32407SOL    HW2 1779   2.270   2.474  11.960 -1.7751 -0.0493 -2.0818
32408SOL     OW 1780   2.936   4.793   6.139  0.1783 -0.0613 -0.1636
32408SOL    HW1 1781   2.993   4.855   6.093  0.7789 -0.7729 -0.3858
32408SOL    HW2 1782   2.852   4.802   6.095  0.3530  0.3345 -0.4310
32409SOL     OW 1783   0.571   9.188   4.160 -0.7480 -0.5682  0.2123
32409SOL    HW1 1784   0.567   9.198   4.064  0.2605  1.7711  0.3653
32409SOL    HW2 1785   0.620   9.107   4.173  2.1295  0.7729 -1.3312
32410SOL     OW 1786   2.979   7.308   4.717 -0.1721 -0.4940 -0.4329
32410SOL    HW1 1787   2.965   7.401   4.699  0.3036 -0.6512 -1.7603
32410SOL    HW2 1788   3.061   7.306   4.767 -1.7275 -0.0115  2.3496
32411SOL     OW 1789   8.081   7.371   2.640 -0.0558 -0.5748  0.3963
32411SOL    HW1 1790   7.985   7.371   2.629 -0.0317  0.5922  0.0039
32411SOL    HW2 1791   8.112   7.311   2.572 -0.4935 -0.7291  0.3230
32412SOL     OW 1792   1.026   9.759   7.808  0.0818  0.6162  0.1829
32412SOL    HW1 1793   1.121   9.774   7.806  0.3908 -1.0444  0.8122
32412SOL    HW2 1794   1.017   9.668   7.835 -1.7058  0.6732 -0.1309
32413SOL     OW 1795   3.762   6.365   6.311 -0.3446 -0.3609  0.1168
32413SOL    HW1 1796   3.733   6.370   6.402  0.5399  0.5373  0.3746
32413SOL    HW2 1797   3.826   6.436   6.303  1.0374 -1.6170 -0.6679
32414SOL     OW 1798   7.300  11.051   8.687  0.3126 -0.6338 -0.0331
32414SOL    HW1 1799   7.361  11.043   8.613  1.5596  0.2781  0.8491
32414SOL    HW2 1800   7.281  11.144   8.692 -0.8123 -0.8509  0.0058
32415SOL     OW 1801   2.454   1.294  11.817  0.0986 -0.2391  0.3146
32415SOL    HW1 1802   2.468   1.292  11.723 -0.8558  0.3187  0.1419
32415SOL    HW2 1803   2.484   1.208  11.848 -1.7340 -1.3718 -0.8449
32416SOL     OW 1804  10.152  11.119   7.763 -0.8531 -0.0799 -0.2706
32416SOL    HW1 1805  10.127  11.041   7.811  1.2571 -0.3002  0.6005
32416SOL    HW2 1806  10.215  11.163   7.820  0.5595  0.4708 -2.1392
32417SOL     OW 1807   6.818   0.815   1.381 -0.0561  0.1711  0.2920
32417SOL    HW1 1808   6.834   0.823   1.475  2.0790  0.6980 -0.0572
32417SOL    HW2 1809   6.755   0.884   1.361 -1.0835 -0.4111  1.4355
32418SOL     OW 1810   1.815   6.123  10.918 -0.5019 -0.4014 -0.2610
32418SOL    HW1 1811   1.841   6.187  10.852  2.3431 -1.4550 -0.2677
32418SOL    HW2 1812   1.775   6.052  10.868  0.9897 -0.8727 -0.8249
32419SOL     OW 1813   8.401   1.656   7.608 -0.2529  0.1474  0.3020
32419SOL    HW1 1814   8.475   1.656   7.547  2.3973  0.8067  3.2310
32419SOL    HW2 1815   8.431   1.603   7.681 -3.0708 -0.2216  1.3062
32420SOL     OW 1816  10.305   6.823   1.392 -0.2930 -0.1356  0.4928
32420SOL    HW1 1817  10.318   6.783   1.305  0.5593  0.4118  0.3610
32420SOL    HW2 1818  10.366   6.776   1.449  0.0335  0.3404  0.5351
32421SOL     OW 1819   6.909   5.306   2.667  0.0903 -0.3215  0.4485
32421SOL    HW1 1820   6.931   5.219   2.702  1.3426 -0.1134  0.2245
32421SOL    HW2 1821   6.993   5.352   2.663 -0.4164  0.5633 -0.3595
32422SOL     OW 1822   6.651   8.208   3.056  0.7494  0.1306  0.2564
32422SOL    HW1 1823   6.563   8.181   3.083  0.4812 -0.7337 -1.3478
32422SOL    HW2 1824   6.686   8.256   3.131 -0.3037 -1.2653  1.6907
32423SOL     OW 1825   5.965   5.726   4.116  0.0061 -0.1519  0.3971
32423SOL    HW1 1826   5.884   5.681   4.091 -1.4650  0.1110  4.0433
32423SOL    HW2 1827   6.031   5.656   4.119 -0.8394 -0.9700  0.3459
32424SOL     OW 1828   1.473  10.895  10.557  0.1510  0.0688 -0.3836
32424SOL    HW1 1829   1.502  10.832  10.623  1.6431 -0.9235 -1.9100
32424SOL    HW2 1830   1.515  10.866  10.476 -1.4210  1.3782 -1.7419
32425SOL     OW 1831   6.606   8.832   1.063 -0.3027  0.2959 -0.7286
32425SOL    HW1 1832   6.639   8.797   1.146 -0.3211 -2.4982 -1.8162
32425SOL    HW2 1833   6.524   8.876   1.086  0.3689  0.7742  0.8949
32426SOL     OW 1834   6.050   3.448   6.377  0.1124 -0.6054 -0.2164
32426SOL    HW1 1835   6.039   3.474   6.285 -0.2048  1.0769  0.2606
32426SOL    HW2 1836   6.135   3.484   6.402 -0.3424  0.0028  0.4776
32427SOL     OW 1837   9.087   5.170   7.965  0.2427 -0.3043 -0.1203
32427SOL    HW1 1838   9.025   5.210   7.903 -0.5188 -0.3028  0.6262
32427SOL    HW2 1839   9.039   5.097   8.003  0.3409  0.2683  1.1668
32428SOL     OW 1840   0.175   5.370  10.856  1.1089 -0.6033 -0.5363
32428SOL    HW1 1841   0.161   5.430  10.929  0.3964  0.4895 -1.5360
32428SOL    HW2 1842   0.268   5.351  10.858  1.5015  1.1317 -0.6225
32429SOL     OW 1843  10.179   0.604  10.398 -0.5689 -0.2461  0.4706
32429SOL    HW1 1844  10.116   0.651  10.452 -0.3040  1.6726 -0.8022
32429SOL    HW2 1845  10.247   0.576  10.459 -1.8331 -0.9627  1.6092
32430SOL     OW 1846  11.196   1.714   5.918 -0.5040 -0.0172 -0.7730
32430SOL    HW1 1847  11.254   1.682   5.987 -0.6656  1.8576  0.3061
32430SOL    HW2 1848  11.247   1.781   5.872 -1.7385  1.7012  0.2183
32431SOL     OW 1849   0.746  10.826   5.794 -0.6270 -0.5276 -0.4851
32431SOL    HW1 1850   0.827  10.781   5.818 -0.8782 -0.7686 -0.0758
32431SOL    HW2 1851   0.683  10.797   5.859 -0.8840  0.1482 -0.4271
32432SOL     OW 1852   3.969   6.840   2.578 -0.3781  0.6439  0.0921
32432SOL    HW1 1853   4.047   6.788   2.599 -1.8370 -0.9657  1.7714
32432SOL    HW2 1854   3.935   6.801   2.498 -0.0752  0.6858 -0.0624
32433SOL     OW 1855   2.971   8.668   3.802 -0.2354 -0.3727 -0.2785
32433SOL    HW1 1856   2.968   8.759   3.830  2.1867 -0.2834 -0.0754
32433SOL    HW2 1857   2.980   8.672   3.707  0.6796 -0.3391 -0.2018
32434SOL     OW 1858   4.203  11.825   1.538 -0.1015 -0.0786  0.2776
32434SOL    HW1 1859   4.123  11.830   1.486  0.1632 -1.2776 -0.2771
32434SOL    HW2 1860   4.183  11.761   1.607  0.0488  0.3718  0.7453
32435SOL     OW 1861   8.835   5.270   7.532 -0.5696  0.1633 -0.2704
32435SOL    HW1 1862   8.839   5.345   7.472  0.2927  0.6516  0.3732
32435SOL    HW2 1863   8.853   5.194   7.477 -0.8302  0.4842 -0.8138
32436SOL     OW 1864  11.692   9.859   9.756  0.2534 -0.1656 -0.3421
32436SOL    HW1 1865  11.732   9.803   9.689 -0.5160 -2.1431  0.7855
32436SOL    HW2 1866  11.608   9.818   9.775 -0.9102  2.0818 -0.3101
32437SOL     OW 1867   5.821   8.139   5.876  0.5284 -0.4348  0.9931
32437SOL    HW1 1868   5.906   8.183   5.877 -0.0116  0.6686  0.4012
32437SOL    HW2 1869   5.838   8.052   5.912  1.3095  0.8425  3.9587
32438SOL     OW 1870   0.131   2.344   1.107  0.0168  0.0533 -0.4680
32438SOL    HW1 1871   0.063   2.400   1.070  0.0375  1.3269  1.3310
32438SOL    HW2 1872   0.083   2.271   1.147 -0.2779  0.6910  0.3606
32439SOL     OW 1873   7.607   5.542   7.124 -0.2418  0.3812 -0.6508
32439SOL    HW1 1874   7.636   5.453   7.146 -1.2702  0.2489  0.3246
32439SOL    HW2 1875   7.655   5.564   7.045  0.4275 -0.8466 -0.6240
32440SOL     OW 1876  10.132   3.987   7.294 -0.0478 -0.0124  0.0790
32440SOL    HW1 1877  10.074   3.933   7.241 -0.3868  0.9288 -0.5452
32440SOL    HW2 1878  10.097   4.076   7.284  0.8972  0.4190  0.5134
32441SOL     OW 1879   7.741   4.593   1.378 -1.0879 -0.2308  0.1232
32441SOL    HW1 1880   7.684   4.553   1.443 -1.1809 -1.6191 -0.7746
32441SOL    HW2 1881   7.689   4.666   1.343 -0.9479  0.6822  1.7087
32442SOL     OW 1882   2.452   8.435   5.553 -0.6122  0.6338 -0.3307
32442SOL    HW1 1883   2.538   8.398   5.573 -0.3701  1.3790  0.0748
32442SOL    HW2 1884   2.416   8.379   5.485 -0.4488 -0.5933  0.5646
32443SOL     OW 1885   1.396   1.297  10.598 -0.1497 -0.0744 -0.0338
32443SOL    HW1 1886   1.413   1.272  10.508  0.2637 -1.1418  0.3315
32443SOL    HW2 1887   1.337   1.230  10.631 -1.6145  1.1800  0.0319
32444SOL     OW 1888   2.466   9.164   6.047 -0.3561  0.3336 -0.1096
32444SOL    HW1 1889   2.464   9.152   6.142 -2.1111 -0.9078 -0.2482
32444SOL    HW2 1890   2.558   9.149   6.023 -0.1801 -1.0547  1.2179
32445SOL     OW 1891   0.097   0.291   7.070 -0.0928  0.4020 -0.0582
32445SOL    HW1 1892   0.113   0.199   7.092  2.7985  1.1280  1.4173
32445SOL    HW2 1893   0.162   0.311   7.003 -2.7421  0.6998 -2.7667
32446SOL     OW 1894   9.634   3.508   7.198  0.2251  0.0089  0.0091
32446SOL    HW1 1895   9.727   3.532   7.195  0.6893 -1.2961  2.0582
32446SOL    HW2 1896   9.605   3.537   7.284 -1.2368  0.1877 -0.5202
32447SOL     OW 1897   4.553   9.646   8.286  0.6443 -0.7351  0.5274
32447SOL    HW1 1898   4.639   9.605   8.278  1.3791  0.6010  1.1469
32447SOL    HW2 1899   4.538   9.650   8.381  0.0923 -0.6057  0.4342
32448SOL     OW 1900   0.681   1.826   5.416  0.3211  0.5412 -0.1279
32448SOL    HW1 1901   0.589   1.823   5.390 -0.0574 -1.6654  1.2497
32448SOL    HW2 1902   0.682   1.793   5.506  2.5499 -0.2838 -0.4011
32449SOL     OW 1903   7.873   7.696   1.003  0.1349  0.1165 -0.1103
32449SOL    HW1 1904   7.801   7.737   0.956  0.1014  0.3645  0.1603
32449SOL    HW2 1905   7.950   7.710   0.947 -0.0610 -0.3205 -0.4934
32450SOL     OW 1906   7.914   2.361   7.496  0.0828  0.5840  0.2984
32450SOL    HW1 1907   7.883   2.289   7.440 -1.0190  0.0461  1.5459
32450SOL    HW2 1908   8.003   2.335   7.521 -0.3284 -0.4087  0.7937
32451SOL     OW 1909  12.031   9.526  10.151  0.3459  0.6155 -0.2456
32451SOL    HW1 1910  12.106   9.547  10.096 -1.1878 -0.5272 -2.9535
32451SOL    HW2 1911  12.003   9.610  10.187  1.6881  1.3318 -0.7934
32452SOL     OW 1912   5.643  10.048   4.814 -0.0649  0.0556  0.2392
32452SOL    HW1 1913   5.600  10.117   4.864 -1.1277  0.2539 -0.8778
32452SOL    HW2 1914   5.593   9.969   4.835 -0.0931  0.0165  0.0316
32453SOL     OW 1915   7.702   8.518   4.931 -0.6083  0.0104 -0.4931
32453SOL    HW1 1916   7.648   8.583   4.887 -1.9236 -0.0201  1.0085
32453SOL    HW2 1917   7.650   8.438   4.928  0.4000 -0.6439 -1.1040
32454SOL     OW 1918  10.918   0.672   7.033  0.0176 -0.3154  0.3643
32454SOL    HW1 1919  10.998   0.662   7.084 -0.0272 -2.0431  0.1557
32454SOL    HW2 1920  10.861   0.601   7.064 -0.7620 -0.1707 -0.6827
32455SOL     OW 1921   9.334   4.387   5.282  0.3361 -0.2559 -0.2160
32455SOL    HW1 1922   9.302   4.434   5.359  2.4048  0.7053  0.1309
32455SOL    HW2 1923   9.403   4.443   5.247 -0.9289 -0.3553 -3.1896
32456SOL     OW 1924  10.737   0.208   3.427  0.1179  0.3490  0.3996
32456SOL    HW1 1925  10.765   0.252   3.507 -0.7203  2.2134 -0.2990
32456SOL    HW2 1926  10.660   0.256   3.397  1.0103  0.3874 -2.0972
32457SOL     OW 1927  10.166   6.807   3.721 -0.2965 -0.1469 -0.1273
32457SOL    HW1 1928  10.206   6.854   3.648 -0.2789 -0.8276 -0.5718
32457SOL    HW2 1929  10.171   6.868   3.795 -1.1067  0.8955 -0.9032
32458SOL     OW 1930   9.975   6.187   2.459  0.5138 -0.1401 -0.6299
32458SOL    HW1 1931   9.966   6.093   2.469  2.9591 -0.2027  2.7135
32458SOL    HW2 1932  10.019   6.199   2.375 -1.9950 -1.6810 -2.2721
32459SOL     OW 1933   5.064   2.525   5.742  0.1462  0.0961  0.3915
32459SOL    HW1 1934   5.106   2.450   5.785 -0.3879 -0.9282 -0.7949
32459SOL    HW2 1935   4.971   2.500   5.738  0.0430  0.5995 -0.4557
32460SOL     OW 1936   9.987  10.828   7.556  0.4736  0.3752  0.0275
32460SOL    HW1 1937   9.906  10.817   7.506  0.3995  1.4908 -0.1272
32460SOL    HW2 1938  10.000  10.744   7.599 -1.1015  0.3608  0.5419
32461SOL     OW 1939  11.648   8.700   2.590  0.5069  0.6192 -0.0080
32461SOL    HW1 1940  11.667   8.624   2.536 -2.3480  0.6210 -1.1516
32461SOL    HW2 1941  11.729   8.714   2.640  1.4395 -2.5476 -0.4229
32462SOL     OW 1942  10.683   7.581   0.059  0.2821 -0.0955 -0.2915
32462SOL    HW1 1943  10.776   7.601   0.074  0.0755 -0.7311  2.2602
32462SOL    HW2 1944  10.638   7.659   0.090 -0.0615  1.4331 -4.1178
32463SOL     OW 1945   3.452   6.287   3.530 -0.4757 -0.1496 -0.0444
32463SOL    HW1 1946   3.468   6.381   3.518 -0.9037 -0.1380 -0.5673
32463SOL    HW2 1947   3.539   6.250   3.547 -0.3260  0.3645  0.3493
32464SOL     OW 1948   1.315   4.851   5.436  0.1707 -0.6673 -0.4364
32464SOL    HW1 1949   1.371   4.788   5.482 -0.0710 -0.1840  0.5445
32464SOL    HW2 1950   1.359   4.935   5.447 -0.1287 -0.4738 -0.6980
32465SOL     OW 1951   5.156  10.371   8.118 -0.2159 -0.3469 -0.2434
32465SOL    HW1 1952   5.136  10.279   8.102 -0.2137 -0.4097  0.0892
32465SOL    HW2 1953   5.074  10.409   8.149  0.1723 -0.6327  1.2346
32466SOL     OW 1954  10.845   6.264   8.618  0.6138 -0.5742  0.1797
32466SOL    HW1 1955  10.794   6.254   8.538 -2.7030 -0.7370  2.1318
32466SOL    HW2 1956  10.806   6.340   8.663  2.9132  0.0360  1.2848
32467SOL     OW 1957   4.593   0.783   6.101  0.2981 -0.3177  0.3028
32467SOL    HW1 1958   4.677   0.819   6.072 -1.0445  0.9352 -2.4308
32467SOL    HW2 1959   4.549   0.757   6.020 -1.7569 -1.3887  1.6844
32468SOL     OW 1960   6.236   4.674   1.865  0.0784  0.5082 -0.2751
32468SOL    HW1 1961   6.305   4.697   1.803  0.6708  0.8996  0.5061
32468SOL    HW2 1962   6.160   4.655   1.811  0.7921  0.0956 -1.1507
32469SOL     OW 1963   4.605   8.104   5.624  0.0298  0.6276  0.2584
32469SOL    HW1 1964   4.640   8.015   5.620 -1.7907 -0.1809  1.2577
32469SOL    HW2 1965   4.557   8.108   5.707 -1.7903  1.7870 -0.7716
32470SOL     OW 1966   4.819   3.905   9.924 -0.6470  0.3339 -0.7849
32470SOL    HW1 1967   4.848   3.993   9.899 -0.2101  0.6577  0.7279
32470SOL    HW2 1968   4.885   3.875   9.986 -2.3677  0.2103  1.1099
32471SOL     OW 1969  10.201  10.380  10.299  0.2194  0.2256  0.7324
32471SOL    HW1 1970  10.240  10.380  10.212  0.3207 -2.1190  0.6998
32471SOL    HW2 1971  10.173  10.470  10.313 -0.0829  0.6145 -1.8387
32472SOL     OW 1972  11.297   6.269   9.533 -0.2496  0.6963  0.0274
32472SOL    HW1 1973  11.287   6.316   9.615  0.4114 -0.3684  0.7417
32472SOL    HW2 1974  11.357   6.198   9.553  0.4185  0.7687 -1.5265
32473SOL     OW 1975   6.707   6.493   4.886 -0.3891  0.5796  0.5078
32473SOL    HW1 1976   6.795   6.524   4.867 -0.7040  2.4223  1.7424
32473SOL    HW2 1977   6.720   6.414   4.938  0.5118  0.0772 -0.4690
32474SOL     OW 1978   5.728   6.024   1.085  0.1053 -0.4555 -0.4255
32474SOL    HW1 1979   5.666   5.980   1.144 -0.1851 -0.3077 -0.6148
32474SOL    HW2 1980   5.809   5.974   1.094  0.1511 -0.2653  0.3086
32475SOL     OW 1981   3.542   8.629   4.609 -0.0397  0.5389 -0.0469
32475SOL    HW1 1982   3.463   8.581   4.588  0.1307 -0.4872  1.4489
32475SOL    HW2 1983   3.520   8.678   4.689  1.0278 -0.3776  0.8499
32476SOL     OW 1984   3.359   7.352  10.781 -0.2682 -0.0160 -0.1919
32476SOL    HW1 1985   3.410   7.284  10.738 -1.1746 -0.3925 -0.6903
32476SOL    HW2 1986   3.369   7.429  10.725 -0.1244 -0.0409 -0.2015
32477SOL     OW 1987   8.118   5.088   2.082 -0.4685 -0.3157  0.3434
32477SOL    HW1 1988   8.156   5.000   2.086  0.0985 -0.0703  0.4387
32477SOL    HW2 1989   8.031   5.078   2.120 -0.5488 -0.9100  0.0185
32478SOL     OW 1990   1.407   6.343   5.000 -0.2348  0.0687 -0.0880
32478SOL    HW1 1991   1.502   6.342   5.009 -0.2307  0.7906  0.0385
32478SOL    HW2 1992   1.374   6.315   5.085 -0.1383  0.4060  0.0620
32479SOL     OW 1993   2.975   1.118  10.611 -0.0120 -0.8611 -0.0283
32479SOL    HW1 1994   3.006   1.128  10.702  0.5300 -1.4202 -0.1444
32479SOL    HW2 1995   2.976   1.207  10.576 -0.4630 -0.6058  0.5900
32480SOL     OW 1996   2.467   6.848   3.317  0.2854  0.1207  0.6113
32480SOL    HW1 1997   2.421   6.919   3.271  0.1776 -1.2331 -1.5289
32480SOL    HW2 1998   2.402   6.813   3.378 -0.8439 -0.3102 -0.7752
32481SOL     OW 1999   5.041  11.886   6.199  0.0819 -0.6259 -0.4988
32481SOL    HW1 2000   5.002  11.948   6.137  0.8575  0.8899  0.4610
32481SOL    HW2 2001   5.005  11.911   6.284  1.3694 -0.6581  0.0877
32482SOL     OW 2002   4.373   4.770   2.904 -0.2002 -0.2625 -0.5631
32482SOL    HW1 2003   4.399   4.747   2.994 -0.4813 -1.0667 -0.6783
32482SOL    HW2 2004   4.331   4.691   2.870 -2.7529  0.9231 -0.4230
32483SOL     OW 2005   7.671   4.471   2.301  0.1990 -0.5554  0.8840
32483SOL    HW1 2006   7.729   4.482   2.376 -0.0603 -0.2629  1.0458
32483SOL    HW2 2007   7.640   4.381   2.309  0.7715 -0.7720  0.6907
32484SOL     OW 2008   1.618  11.496   3.491 -0.2191 -0.8922  0.5108
32484SOL    HW1 2009   1.532  11.537   3.503  0.1863  0.1862 -0.1169
32484SOL    HW2 2010   1.679  11.569   3.490  0.3475 -1.2932 -2.5059
32485SOL     OW 2011   5.644   6.943   5.514  0.4275 -0.4514  0.0810
32485SOL    HW1 2012   5.689   6.871   5.470 -1.2165 -1.5025  0.0223
32485SOL    HW2 2013   5.624   6.910   5.601  0.7677  0.4181  0.5032
32486SOL     OW 2014  10.360   4.613   2.695  0.4540  0.0233 -0.1450
32486SOL    HW1 2015  10.391   4.702   2.682  0.2027  0.1466  0.0857
32486SOL    HW2 2016  10.320   4.613   2.782  1.9133 -0.7393  0.5539
32487SOL     OW 2017   9.243   2.256  11.292  0.4516 -0.2035  0.1248
32487SOL    HW1 2018   9.205   2.337  11.327  0.3212 -0.8834  1.6216
32487SOL    HW2 2019   9.167   2.205  11.263  0.5602  0.3629 -1.2216
32488SOL     OW 2020   2.294   7.031   3.194 -0.4041 -0.8303  0.1481
32488SOL    HW1 2021   2.312   7.125   3.180 -1.9517  0.2210  3.9748
32488SOL    HW2 2022   2.203   7.020   3.166 -0.1094 -1.3356 -0.6455
32489SOL     OW 2023   7.527   7.552   3.630  0.3807 -0.3223 -0.4860
32489SOL    HW1 2024   7.565   7.509   3.706 -0.0170  0.9253  0.4666
32489SOL    HW2 2025   7.601   7.589   3.583  0.7077 -1.8151 -1.2124
32490SOL     OW 2026   9.778   0.332   5.749  0.2766 -0.2579  0.3532
32490SOL    HW1 2027   9.758   0.365   5.661 -0.9957  0.9154  1.0551
32490SOL    HW2 2028   9.738   0.245   5.751 -0.1562 -0.0769 -0.0630
32491SOL     OW 2029   1.409   3.276   6.163  0.0801  0.0126  0.6595
32491SOL    HW1 2030   1.474   3.258   6.095  0.7638  0.6353  1.1465
32491SOL    HW2 2031   1.334   3.313   6.115  0.2726 -0.2216  0.1662
32492SOL     OW 2032  10.184   0.184   7.477 -0.1354 -0.1159 -0.1720
32492SOL    HW1 2033  10.216   0.215   7.392  1.3522 -1.0287  0.0063
32492SOL    HW2 2034  10.139   0.259   7.515 -0.2777  0.5029 -1.4903
32493SOL     OW 2035   7.530   0.737  11.388 -0.0788  0.4424 -0.6598
32493SOL    HW1 2036   7.486   0.768  11.467  1.1087 -0.7638  0.5438
32493SOL    HW2 2037   7.460   0.698  11.335 -0.9088  1.3336 -0.2420
32494SOL     OW 2038   9.341   9.052   1.426  0.2364 -0.5305 -0.1845
32494SOL    HW1 2039   9.317   9.044   1.333 -1.8508 -2.8751  0.4440
32494SOL    HW2 2040   9.415   8.991   1.437 -0.0784 -0.9056 -0.1404
32495SOL     OW 2041   0.523   9.190   9.116  0.1683 -0.6745 -0.2403
32495SOL    HW1 2042   0.467   9.117   9.142  0.1966 -0.4560  0.4498
32495SOL    HW2 2043   0.603   9.148   9.084 -0.0308 -0.9602 -0.3740
32496SOL     OW 2044   5.821   5.621   4.992  0.2050  0.3266 -0.2152
32496SOL    HW1 2045   5.836   5.665   4.908 -2.0786 -0.1428 -0.9379
32496SOL    HW2 2046   5.863   5.536   4.982  0.5144  0.5264 -0.6383
32497SOL     OW 2047   9.543   8.043   7.235 -0.1756 -0.2017  0.5726
32497SOL    HW1 2048   9.585   8.049   7.149  0.7054  0.2980  1.0191
32497SOL    HW2 2049   9.499   8.126   7.246 -1.7282 -0.8990 -0.0896
32498SOL     OW 2050  11.982   3.910  11.767 -0.3177  0.5211  0.7470
32498SOL    HW1 2051  11.917   3.937  11.702 -0.3765 -2.9817 -0.8960
32498SOL    HW2 2052  12.062   3.958  11.742 -1.0483  1.3229 -0.1424
32499SOL     OW 2053   6.676   1.928   7.354 -0.3776  0.1988 -0.1645
32499SOL    HW1 2054   6.636   1.845   7.327 -0.7439  0.4715 -0.4733
32499SOL    HW2 2055   6.683   1.978   7.273 -1.6113  1.0908  0.2462
32500SOL     OW 2056   2.595   2.271   1.645 -0.1398 -0.2126 -0.2225
32500SOL    HW1 2057   2.604   2.367   1.641 -0.1368 -0.2032  0.0126
32500SOL    HW2 2058   2.572   2.246   1.556 -0.5797  0.0550 -0.1852
32501SOL     OW 2059   5.782   7.476  10.813 -0.5748 -0.3293  0.2292
32501SOL    HW1 2060   5.846   7.546  10.827  1.2918 -1.3277 -2.4312
32501SOL    HW2 2061   5.818   7.401  10.861 -0.1457 -0.6527 -0.5729
32502SOL     OW 2062  11.577  10.210   9.335  0.3099  0.0988  0.3176
32502SOL    HW1 2063  11.672  10.219   9.331  0.2661  0.2166 -2.4590
32502SOL    HW2 2064  11.543  10.294   9.303 -0.8275  0.6385  2.7205
32503SOL     OW 2065  11.385   4.381   3.606  0.1197 -0.5194 -0.6145
32503SOL    HW1 2066  11.474   4.356   3.629  0.4958  0.6447 -0.7209
32503SOL    HW2 2067  11.331   4.307   3.632  1.1632 -1.3982 -0.9015
32504SOL     OW 2068  10.250   9.201  11.166  0.6296 -0.5553 -0.1639
32504SOL    HW1 2069  10.186   9.185  11.096 -2.9534  1.8784  2.2292
32504SOL    HW2 2070  10.303   9.274  11.134 -0.2430 -0.1842 -0.8009
32505SOL     OW 2071   6.550   9.315   1.505 -0.7196 -0.0081  0.4872
32505SOL    HW1 2072   6.472   9.366   1.481 -1.1827 -0.3072  1.3119
32505SOL    HW2 2073   6.540   9.233   1.456 -0.7805  0.0645  0.3757
32506SOL     OW 2074   6.241   5.631   3.470 -0.1205  0.0384 -0.6488
32506SOL    HW1 2075   6.237   5.623   3.375 -0.8360 -0.2320 -0.5989
32506SOL    HW2 2076   6.298   5.559   3.498  1.8103  1.3397 -1.0198
32507SOL     OW 2077  11.468   6.409   5.863 -0.0749  0.1173 -0.4900
32507SOL    HW1 2078  11.434   6.485   5.910  0.2453  1.1128 -1.8009
32507SOL    HW2 2079  11.558   6.434   5.840 -0.1087 -0.4718 -1.3074
32508SOL     OW 2080   1.005   5.376   4.802  0.6826  0.3726 -0.0051
32508SOL    HW1 2081   0.981   5.459   4.843 -0.4535 -0.8661  2.0009
32508SOL    HW2 2082   1.077   5.343   4.855  0.3581 -0.4580 -0.0773
32509SOL     OW 2083  11.353   4.176   4.891 -0.7096  0.5365  0.4694
32509SOL    HW1 2084  11.287   4.192   4.959  0.7647  0.6185  1.9633
32509SOL    HW2 2085  11.435   4.208   4.930  0.3418 -0.2518 -1.0051
32510SOL     OW 2086   8.982   7.436   0.774 -0.0106 -0.4789 -0.1468
32510SOL    HW1 2087   8.996   7.376   0.847 -0.4437  0.4113  0.6874
32510SOL    HW2 2088   8.991   7.381   0.696  0.9861 -1.3386  0.5477
32511SOL     OW 2089   5.928   4.144  11.111  0.7469 -0.0351 -0.3525
32511SOL    HW1 2090   6.016   4.125  11.079  0.9055  1.5715 -1.0119
32511SOL    HW2 2091   5.940   4.166  11.203  1.2847  1.4155 -0.7275
32512SOL     OW 2092   2.126   1.860   1.519 -0.2526 -0.0766 -0.1913
32512SOL    HW1 2093   2.147   1.850   1.612 -1.2395  0.8343  0.1406
32512SOL    HW2 2094   2.035   1.831   1.511 -0.0334 -0.5914 -0.9640
32513SOL     OW 2095  11.505   9.274   0.708  0.4587 -0.0500 -0.4085
32513SOL    HW1 2096  11.451   9.353   0.695 -1.3787 -0.7269  2.2557
32513SOL    HW2 2097  11.444   9.201   0.697  1.6658 -1.0455 -0.7817
32514SOL     OW 2098  11.530  11.003   9.126  0.5564 -0.3760 -0.1061
32514SOL    HW1 2099  11.526  11.098   9.120  1.4522 -0.2819  0.4903
32514SOL    HW2 2100  11.572  10.975   9.045 -0.0617 -0.3016 -0.4564
32515SOL     OW 2101   6.857  10.137   3.254 -0.7938  0.2084 -0.1963
32515SOL    HW1 2102   6.944  10.097   3.261 -0.3038  0.7647 -2.2277
32515SOL    HW2 2103   6.862  10.214   3.311 -0.3693 -0.3982  0.6062
32516SOL     OW 2104   3.708   9.730   0.593 -0.6219  0.0066  0.0759
32516SOL    HW1 2105   3.636   9.756   0.651 -0.5843 -1.3663  0.7875
32516SOL    HW2 2106   3.685   9.642   0.563  0.4759 -0.2347 -0.1334
32517SOL     OW 2107  11.537  10.711   2.290  0.3720 -0.3406  0.9484
32517SOL    HW1 2108  11.556  10.617   2.296 -2.7406 -1.0529  1.4285
32517SOL    HW2 2109  11.476  10.727   2.362 -2.7989  0.9900 -1.8010
32518SOL     OW 2110  10.695   8.553  11.334  0.0280 -0.4467  0.3760
32518SOL    HW1 2111  10.621   8.562  11.274 -0.1323 -0.7553  0.5258
32518SOL    HW2 2112  10.677   8.614  11.405 -1.2547 -2.1620  1.5934
32519SOL     OW 2113   5.121   5.215   8.276 -0.2822  0.1000 -0.4491
32519SOL    HW1 2114   5.147   5.299   8.238  2.0971 -0.9205 -1.3029
32519SOL    HW2 2115   5.046   5.187   8.225 -0.2025  1.0439 -1.1116
32520SOL     OW 2116   9.350   3.400   3.194  0.3400  0.4583  0.2500
32520SOL    HW1 2117   9.390   3.478   3.234  0.1345 -0.1237  1.6674
32520SOL    HW2 2118   9.364   3.331   3.259  0.6545 -0.7354 -1.0525
32521SOL     OW 2119  10.506   6.731   8.457  0.7969 -0.2698 -0.3598
32521SOL    HW1 2120  10.540   6.699   8.541  0.2128 -0.2942 -0.1232
32521SOL    HW2 2121  10.566   6.801   8.432  0.2109  0.7021  0.7893
32522SOL     OW 2122  11.369   6.834   4.946 -0.1677  0.1589  0.4615
32522SOL    HW1 2123  11.334   6.747   4.963  1.3827 -0.6636 -0.4098
32522SOL    HW2 2124  11.414   6.827   4.862  2.6062  0.9615  1.7535
32523SOL     OW 2125   8.457   4.003   2.971 -0.1208  0.4157  0.0528
32523SOL    HW1 2126   8.505   4.041   2.897 -0.4829  0.0983 -0.3543
32523SOL    HW2 2127   8.506   3.923   2.992 -0.5291  0.0198 -0.4510
32524SOL     OW 2128   4.156  10.835   9.623 -0.0646  0.2064 -0.3522
32524SOL    HW1 2129   4.120  10.897   9.559  1.3409 -0.2087 -1.5952
32524SOL    HW2 2130   4.118  10.750   9.599 -0.5209  0.2504  0.1810
32525SOL     OW 2131   9.568   5.854   2.829 -0.0628 -0.4249 -0.6815
32525SOL    HW1 2132   9.574   5.938   2.783 -1.1256 -0.6067 -1.1661
32525SOL    HW2 2133   9.557   5.878   2.921 -2.4651  0.0456 -1.0297
32526SOL     OW 2134   1.649  11.630   4.209 -0.0505 -0.2316  0.0341
32526SOL    HW1 2135   1.566  11.583   4.202 -0.3864 -0.2650  3.1252
32526SOL    HW2 2136   1.714  11.569   4.174 -0.9603 -1.4548  0.4242
32527SOL     OW 2137  10.936   9.328   1.252 -0.2238  0.1120 -0.2278
32527SOL    HW1 2138  11.006   9.377   1.210 -0.6286  0.7107 -0.2313
32527SOL    HW2 2139  10.962   9.324   1.344 -1.0185  1.9397  0.1373
32528SOL     OW 2140   6.256   9.194   6.727 -0.5882  0.1039  0.5197
32528SOL    HW1 2141   6.207   9.123   6.769  0.4594 -0.0943  1.4504
32528SOL    HW2 2142   6.248   9.267   6.787  0.6185 -0.0683  0.9178
32529SOL     OW 2143  11.875   6.948   1.480 -0.0461 -0.0887  0.1063
32529SOL    HW1 2144  11.890   6.893   1.403  0.3322 -0.2079  0.2628
32529SOL    HW2 2145  11.961   6.987   1.498 -0.4035  0.9046 -0.2686
32530SOL     OW 2146   8.997   1.592   1.393  0.1599  0.0797 -0.3383
32530SOL    HW1 2147   8.995   1.500   1.366  0.1323 -0.1067  0.2837
32530SOL    HW2 2148   9.029   1.639   1.316  0.6322 -0.5092 -0.5097
32531SOL     OW 2149   6.337   9.840  10.260  0.3697  0.2127 -0.2623
32531SOL    HW1 2150   6.260   9.893  10.279 -0.5154 -1.2157  0.3342
32531SOL    HW2 2151   6.316   9.797  10.177 -0.1970 -1.3402  0.6227
32532SOL     OW 2152   1.723   3.628   1.809 -0.5796 -0.1358 -0.1229
32532SOL    HW1 2153   1.661   3.679   1.861 -0.5030 -1.9628  1.8650
32532SOL    HW2 2154   1.673   3.603   1.731 -2.0543 -0.7127  0.9597
32533SOL     OW 2155   9.888   0.793   5.680 -0.2570  0.4157  0.3737
32533SOL    HW1 2156   9.824   0.733   5.642  0.7950 -0.3285 -0.2662
32533SOL    HW2 2157   9.903   0.858   5.612  0.8615 -0.3400 -0.1393
32534SOL     OW 2158   6.706   5.281   4.281 -0.7956  0.0649  0.0169
32534SOL    HW1 2159   6.777   5.302   4.221 -1.0192  0.3483 -0.1503
32534SOL    HW2 2160   6.631   5.263   4.225 -0.9980  0.3069  0.2086
32535SOL     OW 2161   7.282   0.031   8.472  0.3181  0.7804 -0.4269
32535SOL    HW1 2162   7.332  -0.038   8.515 -0.3602  1.9449  2.4357
32535SOL    HW2 2163   7.208  -0.014   8.431  0.6911 -0.3363  0.1114
32536SOL     OW 2164  11.516   4.901   9.080  0.2098 -0.5425 -0.2506
32536SOL    HW1 2165  11.561   4.816   9.077 -0.1794 -0.8489  1.4683
32536SOL    HW2 2166  11.429   4.880   9.114 -0.0422  0.4917 -0.2334
32537SOL     OW 2167   2.208  10.633   9.399 -0.3797 -0.0247 -0.2372
32537SOL    HW1 2168   2.193  10.545   9.432  2.8071  0.0324  1.7804
32537SOL    HW2 2169   2.228  10.620   9.306  0.0124 -1.4682  0.0203
32538SOL     OW 2170   1.428  11.244  10.804  0.4341  0.0378  0.3803
32538SOL    HW1 2171   1.503  11.185  10.796  1.1583  1.1529 -1.9107
32538SOL    HW2 2172   1.461  11.319  10.853  0.6466  0.2730 -0.1236
32539SOL     OW 2173   1.727   3.426  11.545 -0.1690  0.3471  0.1870
32539SOL    HW1 2174   1.733   3.332  11.566  1.5087  0.1698 -0.9101
32539SOL    HW2 2175   1.640   3.451  11.575 -0.2607 -1.3100  1.5098
32540SOL     OW 2176   7.755   7.306   5.638 -0.2683  0.4167 -0.0160
32540SOL    HW1 2177   7.783   7.215   5.646 -1.7078 -0.1976 -1.3306
32540SOL    HW2 2178   7.836   7.356   5.633  0.5531 -0.8191  0.4931
32541SOL     OW 2179   9.813   7.841   5.769  0.1310  0.0658 -0.5149
32541SOL    HW1 2180   9.906   7.863   5.773  0.5782 -1.5452 -0.9302
32541SOL    HW2 2181   9.767   7.925   5.770  1.5298  0.8631  0.7837
32542SOL     OW 2182   2.186   7.693   1.531  0.0041 -0.4704  0.3882
32542SOL    HW1 2183   2.212   7.605   1.555 -1.1893 -0.9889 -0.1495
32542SOL    HW2 2184   2.198   7.698   1.436 -1.6306 -0.6923  0.1325
32543SOL     OW 2185  11.511   0.357   4.465 -0.0389  0.1143 -0.4907
32543SOL    HW1 2186  11.585   0.311   4.504 -0.7270 -0.3134  0.3517
32543SOL    HW2 2187  11.506   0.323   4.376  0.9428  0.3539 -0.6447
32544SOL     OW 2188  10.862   3.085   1.724 -0.3752 -0.0331  0.2892
32544SOL    HW1 2189  10.938   3.029   1.739  0.2376  0.6559 -0.1786
32544SOL    HW2 2190  10.802   3.063   1.796 -0.0254 -1.0555  0.2831
32545SOL     OW 2191  11.445   8.006   7.720  0.3071  0.2257 -0.3040
32545SOL    HW1 2192  11.446   8.077   7.783 -0.3489 -0.2529  0.2559
32545SOL    HW2 2193  11.398   7.935   7.764  1.0797 -0.6132 -0.7847
32546SOL     OW 2194   0.102   0.905   6.230  0.3598 -0.1675  0.0160
32546SOL    HW1 2195   0.032   0.896   6.294 -1.8592 -0.5688 -2.3150
32546SOL    HW2 2196   0.097   0.826   6.177  2.4946 -0.1196 -0.3766
32547SOL     OW 2197  11.161   7.461   1.579  0.6748 -0.4256  0.6627
32547SOL    HW1 2198  11.123   7.376   1.604 -2.2721  0.1333 -1.3215
32547SOL    HW2 2199  11.160   7.459   1.483  2.1684  1.2156  0.5794
32548SOL     OW 2200   9.271   8.966   9.681 -0.2254 -0.3592  0.1113
32548SOL    HW1 2201   9.271   9.013   9.765  1.5352 -1.8755  1.0353
32548SOL    HW2 2202   9.229   8.883   9.699 -1.0958 -0.1656 -0.9010
32549SOL     OW 2203   9.169   8.257   6.457 -0.6386  0.0694  0.3924
32549SOL    HW1 2204   9.142   8.183   6.404  1.8651 -0.0618 -0.8588
32549SOL    HW2 2205   9.263   8.243   6.472 -0.8559  1.0504  3.3561
32550SOL     OW 2206  10.526  10.593   2.147 -0.5416  0.2859 -0.1722
32550SOL    HW1 2207  10.608  10.611   2.101 -1.0572  1.6873 -0.6191
32550SOL    HW2 2208  10.469  10.555   2.080  0.1067 -1.8652  0.4407
32551SOL     OW 2209   1.724  10.318   1.227 -0.5218 -0.7787 -0.1134
32551SOL    HW1 2210   1.698  10.401   1.269  0.8303  0.3010 -1.3089
32551SOL    HW2 2211   1.641  10.272   1.213 -1.2806  0.2234  0.8461
32552SOL     OW 2212   7.076   3.704   6.978 -0.1774  0.2928 -0.4308
32552SOL    HW1 2213   7.137   3.646   6.933 -0.6676 -0.3753 -0.2476
32552SOL    HW2 2214   7.111   3.710   7.068 -0.5779 -0.3889 -0.2230
32553SOL     OW 2215  10.665  10.348  11.101  0.2285  0.5728  0.3894
32553SOL    HW1 2216  10.639  10.416  11.163  1.4698  1.5263 -0.0788
32553SOL    HW2 2217  10.633  10.380  11.016  1.3964  0.9442  0.0651
32554SOL     OW 2218   1.668   5.518   2.533 -0.1028  0.5949 -0.0202
32554SOL    HW1 2219   1.633   5.596   2.576  0.2332  0.9914 -0.4495
32554SOL    HW2 2220   1.729   5.481   2.595 -0.8224  0.2449  0.4899
32555SOL     OW 2221   4.586   7.650  11.043  0.1086 -0.0787  0.4594
32555SOL    HW1 2222   4.567   7.600  10.964  1.4063 -0.6825  0.4895
32555SOL    HW2 2223   4.501   7.661  11.086 -0.7893  1.1538 -1.4917
32556SOL     OW 2224   6.206   5.128   2.738 -0.7291  0.0250  0.0529
32556SOL    HW1 2225   6.163   5.065   2.797  0.1590  0.6746  1.4406
32556SOL    HW2 2226   6.177   5.101   2.650 -2.2037 -0.8880  0.7670
32557SOL     OW 2227  11.859  10.521   3.124 -0.0308  0.0432  0.3277
32557SOL    HW1 2228  11.769  10.529   3.092 -0.1826  0.2993  0.8028
32557SOL    HW2 2229  11.849  10.501   3.217  0.3946  1.9254  0.8126
32558SOL     OW 2230   7.193   1.179   7.755 -0.0301 -0.5198 -0.6520
32558SOL    HW1 2231   7.219   1.163   7.664 -0.2216  1.0004 -0.9952
32558SOL    HW2 2232   7.274   1.175   7.804 -0.1006 -2.9304 -0.6013
32559SOL     OW 2233   5.257   1.660   3.034 -0.2228 -0.4932 -0.2897
32559SOL    HW1 2234   5.233   1.731   2.974  1.1490  0.5994  0.3820
32559SOL    HW2 2235   5.192   1.665   3.104  0.1503  0.4557  0.0067
32560SOL     OW 2236   3.760  10.899   0.296  0.2456 -0.1398  0.2292
32560SOL    HW1 2237   3.699  10.955   0.345  2.1170  1.2386  1.0947
32560SOL    HW2 2238   3.842  10.949   0.294  1.4887 -2.1162 -0.5192
32561SOL     OW 2239   2.238   0.122   8.037  0.3665 -0.3392 -0.0541
32561SOL    HW1 2240   2.331   0.129   8.019  0.8902 -0.4599  2.2676
32561SOL    HW2 2241   2.204   0.211   8.026  1.2887  0.2460  1.5245
32562SOL     OW 2242  10.267   2.156   2.305  0.5151 -0.4779 -0.2295
32562SOL    HW1 2243  10.174   2.160   2.326 -0.2262  0.5595 -3.2232
32562SOL    HW2 2244  10.297   2.246   2.315  0.8301 -0.5280 -0.7028
32563SOL     OW 2245   4.224  11.091  10.716 -0.3103  0.0657 -0.3415
32563SOL    HW1 2246   4.190  11.152  10.651 -0.6268 -0.7244 -0.9208
32563SOL    HW2 2247   4.178  11.114  10.797 -0.7700  0.2881 -0.6638
32564SOL     OW 2248  11.628   3.178   6.110  0.1332  0.3419 -0.5113
32564SOL    HW1 2249  11.630   3.241   6.182  0.2464 -0.6187  0.3416
32564SOL    HW2 2250  11.672   3.100   6.145 -3.5290 -1.7343 -0.0837
32565SOL     OW 2251   6.998   8.401   4.759 -0.9783  0.0361 -0.0636
32565SOL    HW1 2252   6.920   8.416   4.706 -0.5162 -0.9856 -1.0759
32565SOL    HW2 2253   7.028   8.314   4.734  0.9021  0.6780 -0.2489
32566SOL     OW 2254  11.057   3.309   0.206 -0.2531 -0.5547 -0.8001
32566SOL    HW1 2255  11.105   3.229   0.229 -1.1846 -0.9023  0.0330
32566SOL    HW2 2256  10.999   3.282   0.134  0.9034 -0.0861 -1.9425
32567SOL     OW 2257   3.352   0.199   8.713  0.2750 -0.0610  0.2398
32567SOL    HW1 2258   3.382   0.290   8.710  0.9236 -0.2582  0.4819
32567SOL    HW2 2259   3.430   0.149   8.739  0.3068 -0.8494 -1.2475
32568SOL     OW 2260   8.626  10.447   2.067 -0.2249  0.3326 -0.0602
32568SOL    HW1 2261   8.705  10.443   2.013  0.5749 -2.1798  1.1376
32568SOL    HW2 2262   8.658  10.434   2.157 -1.9306  0.0729  0.5431
32569SOL     OW 2263   4.499   0.658   4.905  0.1780  0.3881 -0.4364
32569SOL    HW1 2264   4.594   0.669   4.913 -0.0063  1.1413  1.1796
32569SOL    HW2 2265   4.485   0.563   4.902  1.0064  0.2821 -1.4197
32570SOL     OW 2266   6.873   1.121   8.260 -0.0290 -0.3499  0.2265
32570SOL    HW1 2267   6.934   1.195   8.259 -0.6628  0.1786  0.4317
32570SOL    HW2 2268   6.916   1.055   8.205  0.8788 -0.1096  0.6266
32571SOL     OW 2269   3.462   2.462   6.057 -0.1623 -0.3691  0.3998
32571SOL    HW1 2270   3.522   2.393   6.084 -0.9053 -0.4643  1.9094
32571SOL    HW2 2271   3.455   2.452   5.962  1.2435 -1.1172  0.3414
32572SOL     OW 2272   1.156   1.139   5.197  0.2375  0.2886  0.0789
32572SOL    HW1 2273   1.244   1.143   5.160  0.9127 -2.1538  1.2186
32572SOL    HW2 2274   1.107   1.082   5.136 -0.5531  1.4945 -0.4590
32573SOL     OW 2275   9.495   6.417   9.971 -0.2026 -0.3187 -0.5845
32573SOL    HW1 2276   9.490   6.397   9.877 -1.4679 -0.4911 -0.5029
32573SOL    HW2 2277   9.403   6.425   9.998  0.1260 -0.8342  0.7565
32574SOL     OW 2278   2.533   5.943   2.043  0.5219  0.3325  0.0021
32574SOL    HW1 2279   2.547   6.005   2.115 -0.6528  1.8166 -0.9893
32574SOL    HW2 2280   2.622   5.919   2.015  1.0106 -0.1237  1.7653
32575SOL     OW 2281  10.340   6.367   4.621 -0.1722  0.0457 -0.0334
32575SOL    HW1 2282  10.370   6.310   4.692  0.7806 -0.3701 -0.7384
32575SOL    HW2 2283  10.250   6.390   4.645 -0.2070 -0.8758  0.8100
32576SOL     OW 2284  11.836   2.363  10.951 -0.0640 -0.2150 -0.0256
32576SOL    HW1 2285  11.811   2.450  10.983 -1.2840 -0.6133  0.1498
32576SOL    HW2 2286  11.899   2.331  11.015  0.2583  0.4609  0.0109
32577SOL     OW 2287   9.289   4.146   6.520 -0.6372  0.4965  0.2952
32577SOL    HW1 2288   9.235   4.075   6.555 -1.8425  1.0239 -0.4402
32577SOL    HW2 2289   9.376   4.131   6.557 -0.8661 -1.3589  0.1687
32578SOL     OW 2290   5.616   1.326  11.182 -0.6131  0.0144 -0.1517
32578SOL    HW1 2291   5.708   1.326  11.205 -0.3750 -0.6887 -1.0640
32578SOL    HW2 2292   5.584   1.412  11.210  0.1628  0.0244  0.7374
32579SOL     OW 2293   5.914   3.747   9.149  0.1833 -0.1669 -0.1490
32579SOL    HW1 2294   5.921   3.668   9.095 -0.0356 -0.3106  0.0328
32579SOL    HW2 2295   5.981   3.805   9.114 -0.9448  0.3352 -1.5847
32580SOL     OW 2296   2.489   3.396   6.328  0.6018 -0.5296  0.1765
32580SOL    HW1 2297   2.396   3.415   6.338  0.8743 -0.3729  3.5955
32580SOL    HW2 2298   2.492   3.320   6.271 -1.6236 -0.6394  0.1050
32581SOL     OW 2299   7.961  10.847   9.441 -0.2047 -0.2261  0.5807
32581SOL    HW1 2300   7.927  10.920   9.390  0.7815 -0.7544 -0.8899
32581SOL    HW2 2301   8.038  10.883   9.486 -0.8233  0.1209  1.4026
32582SOL     OW 2302   7.980   4.596   8.092 -0.1649  0.0498 -0.0827
32582SOL    HW1 2303   8.027   4.534   8.148  0.3049 -1.0976 -1.6609
32582SOL    HW2 2304   7.941   4.542   8.023 -2.9751  1.0754  0.5457
32583SOL     OW 2305  10.528   9.636   1.929 -0.4447  0.3551 -0.0071
32583SOL    HW1 2306  10.578   9.708   1.892 -0.8046  0.2623 -0.6788
32583SOL    HW2 2307  10.570   9.557   1.896 -1.7880  0.2751 -1.6439
32584SOL     OW 2308   5.033   9.415   6.223  0.3188 -0.2109 -0.0194
32584SOL    HW1 2309   5.098   9.484   6.217  0.4076 -0.1206  1.5473
32584SOL    HW2 2310   5.071   9.341   6.175  1.2517  0.0817  0.2561
32585SOL     OW 2311   5.295   6.247   4.515 -0.2769  0.5471 -0.3749
32585SOL    HW1 2312   5.347   6.170   4.494  0.1622  0.2379  1.6155
32585SOL    HW2 2313   5.358   6.319   4.520 -0.4660  0.7423 -0.7842
32586SOL     OW 2314   7.252   8.199  11.571 -0.1707 -0.1420  0.6304
32586SOL    HW1 2315   7.175   8.203  11.628  0.2920  0.4319  1.2383
32586SOL    HW2 2316   7.261   8.106  11.550 -0.4282 -0.3480  1.3972
32587SOL     OW 2317   5.121   3.774   5.389  0.1017 -0.3940 -0.1209
32587SOL    HW1 2318   5.167   3.779   5.473 -2.0175  1.3180  1.0165
32587SOL    HW2 2319   5.181   3.725   5.332  2.6177  0.4080  1.6923
32588SOL     OW 2320  11.597   5.353   7.741  1.1386  0.1015 -0.3470
32588SOL    HW1 2321  11.637   5.268   7.760 -0.2710 -0.8833 -1.4935
32588SOL    HW2 2322  11.594   5.358   7.646 -2.2747 -0.4035 -0.4013
32589SOL     OW 2323   5.682   4.778   7.762 -0.3308  0.3351 -0.2353
32589SOL    HW1 2324   5.588   4.786   7.744 -0.1665  0.5987 -1.0020
32589SOL    HW2 2325   5.715   4.719   7.695 -0.2687 -1.3503  1.1850
32590SOL     OW 2326   2.364   9.256  11.965 -0.3866  0.0854 -0.3128
32590SOL    HW1 2327   2.413   9.237  11.885 -0.7249 -4.0361  0.2707
32590SOL    HW2 2328   2.272   9.249  11.939 -0.5255 -0.0105  0.2005
32591SOL     OW 2329   2.112   8.560   6.841 -0.0654  0.3271  0.1832
32591SOL    HW1 2330   2.072   8.622   6.902 -0.9606 -0.8531  0.8319
32591SOL    HW2 2331   2.040   8.528   6.788  0.7050  1.3262 -1.5535
32592SOL     OW 2332   0.733   3.160   9.254 -0.2881 -0.7141 -0.7356
32592SOL    HW1 2333   0.647   3.130   9.225 -0.3191 -0.1957 -1.1789
32592SOL    HW2 2334   0.786   3.161   9.175 -0.0511 -0.4210 -0.5732
32593SOL     OW 2335   2.741   4.433  10.829 -0.2433  0.1687 -0.1600
32593SOL    HW1 2336   2.821   4.450  10.779 -0.0709 -0.1177  0.0164
32593SOL    HW2 2337   2.692   4.371  10.775  0.2984 -0.7464  0.3776
32594SOL     OW 2338   0.747  10.679   1.413 -0.4721 -0.7081  0.1333
32594SOL    HW1 2339   0.694  10.640   1.482 -0.7882 -0.3979  0.0654
32594SOL    HW2 2340   0.814  10.729   1.460  0.9905 -2.6590  0.2657
32595SOL     OW 2341   8.484   0.704  10.152  0.1508  0.7020 -0.0814
32595SOL    HW1 2342   8.510   0.780  10.204  1.6444  1.5220 -1.9248
32595SOL    HW2 2343   8.506   0.629  10.207 -1.5342  1.5234  1.8578
32596SOL     OW 2344  12.088   7.775   2.586 -0.0928  0.0688 -0.4344
32596SOL    HW1 2345  12.149   7.776   2.512 -0.5126  0.1425 -0.7883
32596SOL    HW2 2346  12.086   7.684   2.615 -1.2059 -0.3163 -1.6101
32597SOL     OW 2347   6.358   9.178  10.921 -0.2462 -0.3394  0.1382
32597SOL    HW1 2348   6.407   9.112  10.970  1.5817  1.8662  1.4824
32597SOL    HW2 2349   6.416   9.254  10.917 -2.4526  1.4423 -0.7828
32598SOL     OW 2350   1.036   5.985  10.317  0.5450 -0.0027  0.2935
32598SOL    HW1 2351   1.075   5.930  10.386  2.0460 -0.2983 -0.7450
32598SOL    HW2 2352   1.035   5.929  10.240 -0.4309  0.5709 -0.1240
32599SOL     OW 2353   7.732   5.294   7.181  0.8895  0.5546 -0.4709
32599SOL    HW1 2354   7.824   5.318   7.164  1.5991 -2.4256 -1.4483
32599SOL    HW2 2355   7.720   5.211   7.134 -1.9721  0.2142  0.6721
32600SOL     OW 2356   7.762   5.941   6.320  0.6117 -0.2891  1.0285
32600SOL    HW1 2357   7.701   6.004   6.283  1.3065  1.5575  2.8672
32600SOL    HW2 2358   7.845   5.960   6.277  0.0192 -2.9654 -1.6612
32601SOL     OW 2359   5.896   9.285   6.701  0.2810 -0.0282  0.6964
32601SOL    HW1 2360   5.874   9.200   6.739 -2.3353 -0.1600 -0.8392
32601SOL    HW2 2361   5.950   9.264   6.625 -1.7159 -0.5393 -0.6466
32602SOL     OW 2362  11.137  11.670  10.625 -0.6958  0.6831  0.1970
32602SOL    HW1 2363  11.137  11.716  10.708  1.9003 -0.8513  1.1759
32602SOL    HW2 2364  11.106  11.582  10.646  2.2966 -0.5034  0.2008
32603SOL     OW 2365   3.775  11.884   3.552  0.1812  0.4830  0.6957
32603SOL    HW1 2366   3.861  11.898   3.513 -0.0214 -0.1636 -0.0007
32603SOL    HW2 2367   3.750  11.971   3.585  0.5445  0.9679 -0.2496
32604SOL     OW 2368   5.010   0.122   0.879 -0.3390  0.1621  0.6342
32604SOL    HW1 2369   5.078   0.058   0.899  3.2037  2.9105 -1.4032
32604SOL    HW2 2370   4.958   0.082   0.809  1.7590 -0.5746 -0.5654
32605SOL     OW 2371   9.860   4.526   6.171  0.6200 -0.0658  0.3495
32605SOL    HW1 2372   9.783   4.558   6.122  0.7167  0.8707  0.7720
32605SOL    HW2 2373   9.856   4.431   6.162  0.8061  0.0647 -1.7331
32606SOL     OW 2374   2.246  10.046   8.795  0.3719 -0.4490 -0.1130
32606SOL    HW1 2375   2.237  10.141   8.795  0.3798 -0.4299  1.3124
32606SOL    HW2 2376   2.160  10.014   8.769 -0.0163 -0.0719  0.6904
32607SOL     OW 2377   0.750  10.200   4.179  0.1860  0.3939  0.0814
32607SOL    HW1 2378   0.786  10.112   4.175  0.8190  0.6767 -0.6030
32607SOL    HW2 2379   0.826  10.256   4.198  0.3245  1.1158 -2.3521
32608SOL     OW 2380   0.470   0.589   6.564 -0.4791 -0.6002 -0.5453
32608SOL    HW1 2381   0.530   0.515   6.566  0.5069 -0.0716 -4.0792
32608SOL    HW2 2382   0.383   0.550   6.573  0.1499 -1.8055  0.6493
32609SOL     OW 2383  10.372  10.014  10.369 -0.0740  0.5737  0.4294
32609SOL    HW1 2384  10.363   9.965  10.451 -0.6112 -0.3334 -0.1502
32609SOL    HW2 2385  10.319  10.093  10.382 -1.0757 -0.1003  0.5670
32610SOL     OW 2386  11.969   3.568   6.422 -0.1865 -0.1893  0.0167
32610SOL    HW1 2387  11.914   3.643   6.443 -0.0808 -0.1134  0.0210
32610SOL    HW2 2388  12.052   3.586   6.466 -0.5430 -0.8693  1.0155
32611SOL     OW 2389  10.459   6.942  10.432 -0.4675 -0.1066  0.1401
32611SOL    HW1 2390  10.376   6.989  10.425 -0.1953  0.7472  1.9949
32611SOL    HW2 2391  10.451   6.891  10.513  0.7028 -0.2219  0.2037
32612SOL     OW 2392   0.922  10.624   6.534 -0.4125  0.5611  0.4982
32612SOL    HW1 2393   0.954  10.658   6.451 -2.4619  0.4754 -0.3977
32612SOL    HW2 2394   0.996  10.577   6.572 -0.0071 -1.2155 -2.2651
32613SOL     OW 2395   6.733   8.562   6.941  0.1666  0.3358 -0.0215
32613SOL    HW1 2396   6.743   8.491   6.878  1.5468  1.8033 -1.5517
32613SOL    HW2 2397   6.822   8.575   6.976 -0.2709  0.6288  1.0432
32614SOL     OW 2398   4.429   1.295   5.696 -0.5744 -0.5046 -0.3100
32614SOL    HW1 2399   4.476   1.211   5.691 -1.1271 -0.8205 -0.3605
32614SOL    HW2 2400   4.342   1.275   5.660 -0.9000 -0.0499  0.2096
32615SOL     OW 2401   2.316  11.974  11.583 -0.1294  0.2430 -0.3620
32615SOL    HW1 2402   2.337  12.065  11.605  0.0469 -0.2770  1.8077
32615SOL    HW2 2403   2.389  11.923  11.617 -0.7389 -0.8122 -0.5970
32616SOL     OW 2404  11.736   9.855   4.301  0.4486 -0.6506 -0.1407
32616SOL    HW1 2405  11.669   9.893   4.357 -1.1512 -2.3437 -0.7995
32616SOL    HW2 2406  11.770   9.781   4.351  1.7928  0.1357  0.1455
32617SOL     OW 2407   1.016  10.038   1.350  0.2949  0.2253  0.4732
32617SOL    HW1 2408   0.996   9.961   1.403  1.5725 -1.1465 -0.9118
32617SOL    HW2 2409   0.945  10.043   1.287 -0.0355  0.4889  0.8581
32618SOL     OW 2410   3.779   1.403   8.973  0.1565 -0.6534 -0.1233
32618SOL    HW1 2411   3.868   1.436   8.962  0.5678 -1.8302 -0.4518
32618SOL    HW2 2412   3.731   1.476   9.013  1.3549 -0.1431  0.4169
32619SOL     OW 2413   4.056   9.671   0.069 -0.0733  0.2174  0.0134
32619SOL    HW1 2414   4.081   9.581   0.050 -0.3975  0.1313 -0.0170
32619SOL    HW2 2415   4.025   9.669   0.159  0.6055  0.4477  0.2595
32620SOL     OW 2416   1.767   2.915   0.963 -0.1805  0.8074 -0.4091
32620SOL    HW1 2417   1.748   2.854   1.034 -1.1950  0.1868 -1.1961
32620SOL    HW2 2418   1.748   2.866   0.883 -0.2051  1.8764 -1.0778
32621SOL     OW 2419   8.013   2.492   3.895  0.1786  0.6908  0.7352
32621SOL    HW1 2420   7.960   2.504   3.817  1.0622  2.3266  0.3292
32621SOL    HW2 2421   8.062   2.411   3.879 -1.1032 -0.0717  0.5063
32622SOL     OW 2422   1.335   4.584   9.339  0.6164 -0.6303  0.3728
32622SOL    HW1 2423   1.350   4.528   9.263  0.8746  0.3244 -0.2976
32622SOL    HW2 2424   1.261   4.639   9.314  3.5385  2.9837 -1.1866
32623SOL     OW 2425  11.739   8.586   0.178 -0.2217 -0.0337  0.3132
32623SOL    HW1 2426  11.656   8.566   0.135  1.0240 -2.5992 -1.1456
32623SOL    HW2 2427  11.805   8.570   0.110  1.5240  1.0764  1.6709
32624SOL     OW 2428  11.415   9.559   3.293 -0.1026 -0.2368 -0.1738
32624SOL    HW1 2429  11.476   9.586   3.362 -0.3601  0.7862 -0.3300
32624SOL    HW2 2430  11.329   9.568   3.332 -0.1836 -1.2212 -0.1099
32625SOL     OW 2431   6.745   8.748   9.247 -0.1072  0.3311 -0.0909
32625SOL    HW1 2432   6.664   8.779   9.287  0.4028 -0.6849  1.8605
32625SOL    HW2 2433   6.814   8.790   9.298  0.5720 -1.1686  0.2870
32626SOL     OW 2434   5.223  10.471   0.992  0.3504 -0.4518 -0.0317
32626SOL    HW1 2435   5.205  10.506   0.904  2.3044 -1.1352 -0.7535
32626SOL    HW2 2436   5.189  10.538   1.051  0.5110  0.8437 -1.3369
32627SOL     OW 2437  10.846   8.865   1.212 -0.6484 -0.2095 -0.1837
32627SOL    HW1 2438  10.878   8.939   1.161 -0.3668 -0.5038 -0.4396
32627SOL    HW2 2439  10.779   8.826   1.156 -1.1923  0.1830  0.1902
32628SOL     OW 2440   5.565   0.414   8.463  0.5639 -0.5074  0.2010
32628SOL    HW1 2441   5.639   0.406   8.524  0.3712 -0.4813  0.4369
32628SOL    HW2 2442   5.526   0.499   8.484  1.3576  0.1582 -0.9202
32629SOL     OW 2443   7.692   8.403   5.593  0.0401  0.2344 -0.1011
32629SOL    HW1 2444   7.655   8.367   5.512 -0.1663 -0.4501  0.2915
32629SOL    HW2 2445   7.617   8.427   5.646  0.1623 -0.1475  0.2513
32630SOL     OW 2446   6.454   1.469   4.007 -0.0160  0.5344  0.1336
32630SOL    HW1 2447   6.492   1.554   3.985 -3.8151  1.8704 -2.1373
32630SOL    HW2 2448   6.396   1.487   4.081 -0.0210 -0.3358  0.3509
32631SOL     OW 2449  11.215   8.519  10.458  0.1804 -0.8354  0.3566
32631SOL    HW1 2450  11.292   8.541  10.406  0.2494  0.6193  1.0162
32631SOL    HW2 2451  11.249   8.468  10.531  0.5405 -0.1876  0.6523
32632SOL     OW 2452   6.119   4.571   7.433  0.3574 -0.1957 -0.2104
32632SOL    HW1 2453   6.174   4.621   7.494  0.3378 -0.1110 -0.2616
32632SOL    HW2 2454   6.134   4.480   7.457  0.1798 -0.1554  0.0668
32633SOL     OW 2455  10.567   2.884  11.302  0.2174 -0.1263 -0.2214
32633SOL    HW1 2456  10.605   2.801  11.272 -0.9914 -0.7827 -0.0183
32633SOL    HW2 2457  10.475   2.878  11.276 -0.0359  0.8505  0.4270
32634SOL     OW 2458   0.293   7.696   8.460  0.2933  0.2015  0.1269
32634SOL    HW1 2459   0.366   7.635   8.451  1.4363  1.3070  1.5282
32634SOL    HW2 2460   0.263   7.711   8.370  0.9718 -1.2187 -0.3674
32635SOL     OW 2461   1.648   7.719   3.650 -0.2013 -0.1224 -0.4478
32635SOL    HW1 2462   1.609   7.806   3.665 -0.6074 -0.4256  0.3324
32635SOL    HW2 2463   1.699   7.729   3.570  0.2326  1.0016 -0.0602
32636SOL     OW 2464   0.042   1.303   0.571 -0.2071  0.0235 -0.2670
32636SOL    HW1 2465  -0.019   1.355   0.520  1.6619  0.2466 -2.4260
32636SOL    HW2 2466   0.068   1.232   0.512  0.9323 -0.5759  0.9077
32637SOL     OW 2467   9.857  11.235   3.860  0.0654 -0.5008 -0.0660
32637SOL    HW1 2468   9.903  11.174   3.918  0.0430 -0.4040  0.0533
32637SOL    HW2 2469   9.768  11.200   3.854 -0.1145 -0.1476  0.4842
32638SOL     OW 2470   0.814   0.755   4.320 -0.3691  0.0812  0.6169
32638SOL    HW1 2471   0.857   0.778   4.237  0.0267  0.8435  1.0213
32638SOL    HW2 2472   0.800   0.839   4.364 -0.4342 -0.3271  1.3928
32639SOL     OW 2473  10.010   0.186  11.678  0.0301  0.3485 -0.2786
32639SOL    HW1 2474   9.948   0.117  11.704 -1.1736  0.2950 -2.9293
32639SOL    HW2 2475   9.990   0.259  11.736 -1.0972 -0.3623  0.2739
32640SOL     OW 2476   0.371   7.586   4.804  0.1850  0.8303  0.1132
32640SOL    HW1 2477   0.403   7.630   4.883 -0.6906  0.8310  0.4796
32640SOL    HW2 2478   0.403   7.640   4.732 -2.5983  3.3848  0.5854
32641SOL     OW 2479   3.787   4.243   8.712  0.4115  0.0307 -0.7231
32641SOL    HW1 2480   3.854   4.196   8.663  0.7317 -1.0588  0.7204
32641SOL    HW2 2481   3.810   4.231   8.804 -1.5935 -0.1508 -0.1839
32642SOL     OW 2482   7.210   5.267   3.748 -0.3080 -0.3869 -0.5107
32642SOL    HW1 2483   7.298   5.240   3.721  0.3439  0.9788  0.1600
32642SOL    HW2 2484   7.155   5.249   3.672  0.5424 -1.2535 -0.9463
32643SOL     OW 2485   1.783   4.868   2.241  0.5823  0.3639  0.2357
32643SOL    HW1 2486   1.694   4.853   2.274  0.3421 -1.9841 -1.2040
32643SOL    HW2 2487   1.830   4.787   2.262  2.0570  1.0926 -0.0928
32644SOL     OW 2488   0.179   4.084   2.563  0.2158  0.2860 -0.4403
32644SOL    HW1 2489   0.244   4.065   2.630  0.9921  2.5441 -0.4567
32644SOL    HW2 2490   0.122   4.149   2.603 -0.0691  0.7291 -1.5281
32645SOL     OW 2491  10.269   8.934   1.208 -0.3120  0.4953  0.2570
32645SOL    HW1 2492  10.227   8.882   1.276  1.7388  0.2504  1.3890
32645SOL    HW2 2493  10.298   9.014   1.252  2.8861 -0.5465  0.2736
32646SOL     OW 2494  11.686   4.614   7.469 -0.7029 -0.4535 -0.2559
32646SOL    HW1 2495  11.687   4.702   7.429 -0.3443  0.2933  1.3305
32646SOL    HW2 2496  11.748   4.564   7.416  0.9425  0.9450  0.2380
32647SOL     OW 2497   4.143   6.391   9.291 -0.1347 -0.2971 -0.9761
32647SOL    HW1 2498   4.135   6.390   9.195 -0.3150 -0.3594 -0.9613
32647SOL    HW2 2499   4.187   6.309   9.312  1.7209  0.5948 -1.1566
32648SOL     OW 2500   9.369  10.777   9.135  0.4944  0.1200 -0.5308
32648SOL    HW1 2501   9.405  10.795   9.048 -0.5882  1.6641 -0.7052
32648SOL    HW2 2502   9.294  10.720   9.118 -0.5729  1.5399 -0.8146
32649SOL     OW 2503   4.734   9.584   5.026 -0.3986  0.1339 -0.2100
32649SOL    HW1 2504   4.812   9.531   5.011  1.9074  2.9171  0.9854
32649SOL    HW2 2505   4.711   9.618   4.939  0.2007 -0.0950 -0.4665
32650SOL     OW 2506  10.938   4.905   8.733  0.0504  0.1193 -0.6155
32650SOL    HW1 2507  10.914   4.906   8.641 -0.4241 -0.9734 -0.5163
32650SOL    HW2 2508  10.868   4.955   8.776  0.7554  1.4192 -0.9377
32651SOL     OW 2509   9.233   2.104   6.118  0.0093  0.7111  0.0937
32651SOL    HW1 2510   9.309   2.155   6.093 -0.7630  1.2334 -1.2891
32651SOL    HW2 2511   9.159   2.147   6.075 -1.3741  1.2589  2.7513
32652SOL     OW 2512   7.985  10.212   7.078 -0.7535 -0.1141 -0.6996
32652SOL    HW1 2513   7.894  10.241   7.078 -0.3498  1.3188 -2.0791
32652SOL    HW2 2514   7.993  10.156   7.001 -0.2641  0.5399 -1.1372
32653SOL     OW 2515   9.631  10.846   3.912  0.0927  0.3051  0.9504
32653SOL    HW1 2516   9.646  10.914   3.847  0.0837 -1.1574 -0.6301
32653SOL    HW2 2517   9.718  10.810   3.930  0.0058  0.2269  1.2240
32654SOL     OW 2518   0.524   9.374   6.042  0.1141 -0.6228  0.1542
32654SOL    HW1 2519   0.488   9.457   6.074  0.5544 -0.2617 -0.2752
32654SOL    HW2 2520   0.598   9.400   5.987  1.2120 -1.3644  1.2449
32655SOL     OW 2521  11.775   3.515   2.039 -0.5000  0.4133 -0.3395
32655SOL    HW1 2522  11.818   3.593   2.004 -2.2563  0.6590 -2.1986
32655SOL    HW2 2523  11.681   3.534   2.031 -1.0119 -0.8171  1.7586
32656SOL     OW 2524   7.421  11.070   4.011 -1.0585  0.0317 -0.1438
32656SOL    HW1 2525   7.363  11.109   4.077  1.3709  1.8677  1.0185
32656SOL    HW2 2526   7.379  11.091   3.927 -1.5582  2.2459  0.6040
32657SOL     OW 2527   6.161   4.880  11.859 -0.6473  0.0180 -0.6113
32657SOL    HW1 2528   6.180   4.964  11.818 -1.9691  0.8656  0.4261
32657SOL    HW2 2529   6.084   4.847  11.813 -0.2418 -0.5346 -0.8950
32658SOL     OW 2530   9.461  11.311  10.586  0.2338 -0.1898 -0.5757
32658SOL    HW1 2531   9.550  11.290  10.612 -0.2889 -0.4620  1.1250
32658SOL    HW2 2532   9.408  11.240  10.622 -0.8204  0.7159 -0.2762
32659SOL     OW 2533   6.716  11.251   6.624 -0.1267  1.1301  0.1327
32659SOL    HW1 2534   6.797  11.277   6.668 -0.7199 -0.7629  2.5532
32659SOL    HW2 2535   6.680  11.180   6.678 -2.7929  1.0672 -1.5093
32660SOL     OW 2536  12.057   9.484   5.218  0.0427  0.9862 -0.1091
32660SOL    HW1 2537  12.093   9.407   5.174 -0.3497 -1.3224  3.2166
32660SOL    HW2 2538  12.099   9.484   5.304  0.8524  5.2322 -0.2797
32661SOL     OW 2539   0.566   6.415   5.303  0.5417 -0.0601 -0.6832
32661SOL    HW1 2540   0.538   6.464   5.225  0.4900  0.8107 -0.1394
32661SOL    HW2 2541   0.660   6.430   5.308  0.4871  0.1846 -0.3797
32662SOL     OW 2542   5.064   2.991   8.465  0.2618  0.0584 -0.0614
32662SOL    HW1 2543   5.046   2.917   8.522  2.0556 -1.1687 -1.0026
32662SOL    HW2 2544   5.126   3.045   8.515  1.7957 -0.9919 -0.7617
32663SOL     OW 2545   2.262   0.133   1.309 -0.5520  0.2049 -0.2019
32663SOL    HW1 2546   2.274   0.137   1.404 -1.9824 -0.7045  0.0472
32663SOL    HW2 2547   2.280   0.222   1.278  1.4811  0.1575  0.6947
32664SOL     OW 2548   1.458   5.612   6.996  0.8612 -0.4327 -0.0927
32664SOL    HW1 2549   1.475   5.520   7.016 -0.2634 -0.7832 -0.6622
32664SOL    HW2 2550   1.363   5.622   7.008  0.7201  0.2435 -1.5838
32665SOL     OW 2551   0.455   7.910   4.209 -0.1921  0.4493 -0.2225
32665SOL    HW1 2552   0.487   7.843   4.149 -1.5374  1.0359 -1.6611
32665SOL    HW2 2553   0.360   7.904   4.205 -0.3298  0.8348  1.5107
32666SOL     OW 2554   7.888   2.175   3.415 -0.2118 -0.4321 -0.3347
32666SOL    HW1 2555   7.931   2.111   3.472 -0.2236 -2.0794 -2.0528
32666SOL    HW2 2556   7.812   2.205   3.465  2.5744  2.4405  2.7426
32667SOL     OW 2557   8.921   0.532   6.426  0.1294 -0.0433  0.0492
32667SOL    HW1 2558   8.944   0.606   6.370  0.3841  0.2743  0.5700
32667SOL    HW2 2559   8.833   0.553   6.458 -0.5516 -0.8174 -1.2024
32668SOL     OW 2560   2.248   9.792   1.396 -0.2494  0.2505  0.0063
32668SOL    HW1 2561   2.244   9.837   1.480 -2.1212 -0.1700  0.1947
32668SOL    HW2 2562   2.160   9.803   1.359  0.7068  0.9477 -2.1946
32669SOL     OW 2563   6.278  11.724  10.429  0.5785 -0.1248  0.0973
32669SOL    HW1 2564   6.286  11.656  10.363 -0.3942  0.1245 -0.3022
32669SOL    HW2 2565   6.281  11.806  10.380  0.5409  0.0817  0.4348
32670SOL     OW 2566   1.813  12.112   1.947 -0.5350  0.4832  0.7224
32670SOL    HW1 2567   1.814  12.088   1.855 -0.4319  0.7725  0.6465
32670SOL    HW2 2568   1.880  12.180   1.955 -0.0224 -0.0583  1.1516
32671SOL     OW 2569   8.059   1.754   5.548 -0.3659 -0.3307  0.5275
32671SOL    HW1 2570   7.984   1.786   5.498 -0.5480 -1.3121  0.1469
32671SOL    HW2 2571   8.024   1.683   5.601  0.1721 -0.3837  0.8229
32672SOL     OW 2572   0.816   7.461   7.948  0.0912  0.0711 -0.2442
32672SOL    HW1 2573   0.854   7.463   7.860 -0.6593  0.4864 -0.5682
32672SOL    HW2 2574   0.724   7.435   7.934  0.2745 -1.0920  0.5371
32673SOL     OW 2575   9.684   0.978   0.297  0.2713 -0.3561 -0.3338
32673SOL    HW1 2576   9.637   1.042   0.350 -1.7715 -1.2361 -0.9810
32673SOL    HW2 2577   9.616   0.933   0.247  1.7152 -2.3563 -0.6513
32674SOL     OW 2578   0.881   8.742   3.786 -0.0042  0.1087  0.3205
32674SOL    HW1 2579   0.870   8.711   3.696 -0.9916  0.2255  0.3844
32674SOL    HW2 2580   0.939   8.818   3.779 -1.4103  1.1561 -0.4566
32675SOL     OW 2581   9.397   5.784   8.626 -0.6772  0.6754  0.0558
32675SOL    HW1 2582   9.394   5.773   8.531 -1.0798  0.4951  0.0852
32675SOL    HW2 2583   9.490   5.784   8.647 -0.5931  0.1572 -0.2799
32676SOL     OW 2584   8.614  11.581   4.712 -0.3898  0.2939 -0.0471
32676SOL    HW1 2585   8.577  11.604   4.627  1.6685  1.1980 -0.7683
32676SOL    HW2 2586   8.607  11.486   4.716 -1.4926  0.3291 -0.7304
32677SOL     OW 2587   7.619   1.483   3.710 -0.5130 -0.5277  0.3376
32677SOL    HW1 2588   7.576   1.522   3.786  0.0659 -0.1501  0.4866
32677SOL    HW2 2589   7.584   1.531   3.635  1.8930  2.0447  0.6672
32678SOL     OW 2590  10.761   9.240  10.033  0.0179  0.0387 -0.0976
32678SOL    HW1 2591  10.760   9.330  10.000  0.3670 -0.2965 -1.0744
32678SOL    HW2 2592  10.690   9.197   9.985 -0.7864  0.0084  1.0676
32679SOL     OW 2593   4.536   9.739  10.919  0.0575  0.0663 -0.1033
32679SOL    HW1 2594   4.505   9.653  10.946  1.2618 -0.0306  1.0293
32679SOL    HW2 2595   4.505   9.748  10.828  0.4533 -1.8281 -0.4655
32680SOL     OW 2596  10.894   0.074   4.392 -0.3096  0.1111 -0.7268
32680SOL    HW1 2597  10.934   0.085   4.478  2.8393 -1.2468 -1.8829
32680SOL    HW2 2598  10.833   0.001   4.404 -1.4394  1.2309  0.7468
32681SOL     OW 2599  11.077  11.634  10.031  0.2800 -0.0064  0.0794
32681SOL    HW1 2600  11.059  11.605   9.942  0.9217  0.0310 -0.0677
32681SOL    HW2 2601  11.035  11.569  10.087  2.4149 -1.7718 -0.2199
32682SOL     OW 2602   2.703   0.901   0.360  0.0157 -0.2434  0.3341
32682SOL    HW1 2603   2.712   0.848   0.439  3.0811 -1.8512 -0.9214
32682SOL    HW2 2604   2.760   0.977   0.375 -0.8282  0.3957  0.3620
32683SOL     OW 2605   5.232   5.453   7.354  0.0884 -0.3010  0.0499
32683SOL    HW1 2606   5.265   5.454   7.444 -0.0837  0.3400  0.1061
32683SOL    HW2 2607   5.206   5.543   7.337 -1.1424 -0.6892 -0.1808
32684SOL     OW 2608   3.675   2.899   0.423  0.3551  0.1199 -0.0002
32684SOL    HW1 2609   3.664   2.822   0.368  0.4001 -0.8108  1.2581
32684SOL    HW2 2610   3.761   2.933   0.399 -0.1929  0.5501 -1.4706
32685SOL     OW 2611   7.689   8.781   8.629 -0.2584  0.4567  0.8874
32685SOL    HW1 2612   7.636   8.704   8.608  0.0172  0.2354  1.0091
32685SOL    HW2 2613   7.636   8.855   8.599  0.0373  0.1656 -0.3951
32686SOL     OW 2614   4.185   0.881   8.050 -0.3373  0.2583  0.5786
32686SOL    HW1 2615   4.198   0.976   8.055 -0.8530  0.2584  3.2123
32686SOL    HW2 2616   4.268   0.848   8.015 -0.0706  1.6303 -0.1704
32687SOL     OW 2617  10.120   4.715   3.222 -0.3153 -0.0416  0.6232
32687SOL    HW1 2618  10.152   4.641   3.170 -0.7103 -0.7509  1.3682
32687SOL    HW2 2619  10.044   4.681   3.268 -1.7848  1.4162 -0.5956
32688SOL     OW 2620   3.576   0.531   2.833 -0.0385  0.0376  0.8225
32688SOL    HW1 2621   3.624   0.458   2.795  0.9894  0.9192  0.3869
32688SOL    HW2 2622   3.515   0.558   2.764  0.5324  0.4435  0.4606
32689SOL     OW 2623   5.361   6.630   2.797 -0.2204  0.1024  0.1456
32689SOL    HW1 2624   5.430   6.636   2.863  0.8322  0.2097 -0.9354
32689SOL    HW2 2625   5.297   6.571   2.835  0.0143  0.7056  1.5651
32690SOL     OW 2626   3.795  11.909   0.175 -0.0706  0.2992  0.0618
32690SOL    HW1 2627   3.725  11.844   0.167  0.6116 -0.4393 -0.1240
32690SOL    HW2 2628   3.784  11.966   0.098 -0.3585  0.0755 -0.0644
32691SOL     OW 2629   3.902   8.731   0.029 -0.3089 -0.5807  0.4510
32691SOL    HW1 2630   3.930   8.747   0.119 -1.5381  0.3643  0.6882
32691SOL    HW2 2631   3.845   8.654   0.035 -0.2984 -0.5875  0.4606
32692SOL     OW 2632   8.035   5.940   8.565  0.0101 -0.4690  0.5067
32692SOL    HW1 2633   7.992   6.003   8.623  2.1622  0.1648  1.4916
32692SOL    HW2 2634   8.044   5.861   8.618 -0.5664 -0.8432  0.0598
32693SOL     OW 2635   3.556   8.211  11.204  0.2575 -0.0540  0.6258
32693SOL    HW1 2636   3.461   8.199  11.202  0.2529  0.0442  0.1859
32693SOL    HW2 2637   3.585   8.158  11.278  0.0368 -1.3067 -0.1451
32694SOL     OW 2638   0.259   7.942   5.145  0.2097  0.2165 -0.2206
32694SOL    HW1 2639   0.321   7.907   5.081 -1.2694  0.6592 -1.9750
32694SOL    HW2 2640   0.264   7.881   5.218  2.0286 -0.2605 -0.6881
32695SOL     OW 2641   0.231   9.874  10.129  0.0842  0.1036 -0.0901
32695SOL    HW1 2642   0.207   9.844  10.217 -0.3069 -0.9822 -0.5461
32695SOL    HW2 2643   0.267   9.962  10.143 -1.3406  0.5581  0.9790
32696SOL     OW 2644   2.218  10.915   1.913  0.3792  0.1196 -0.1529
32696SOL    HW1 2645   2.256  10.832   1.943 -0.8334 -0.5883 -0.4828
32696SOL    HW2 2646   2.176  10.952   1.990 -0.4166 -0.3609 -0.3448
32697SOL     OW 2647   9.355   3.967   3.650 -0.0381 -0.0807  0.7150
32697SOL    HW1 2648   9.343   3.888   3.598 -0.6705  0.7753 -0.4854
32697SOL    HW2 2649   9.396   3.936   3.731  1.2219 -1.4252 -0.3776
32698SOL     OW 2650   5.394   0.005   2.077  0.3440  0.3086 -0.1619
32698SOL    HW1 2651   5.484   0.001   2.043  0.8385 -1.1369  1.1692
32698SOL    HW2 2652   5.364  -0.086   2.076 -1.2625  0.8116 -0.8991
32699SOL     OW 2653   0.163  11.592   0.637 -0.0874  0.2088  0.1898
32699SOL    HW1 2654   0.203  11.560   0.718 -0.0162  0.4321  0.2449
32699SOL    HW2 2655   0.079  11.548   0.633  0.6030 -1.0989 -0.4820
32700SOL     OW 2656   5.878   7.120   4.858  0.4596 -0.0659  0.8119
32700SOL    HW1 2657   5.856   7.048   4.917 -0.1591 -0.0744  0.5766
32700SOL    HW2 2658   5.834   7.196   4.897  0.4975  0.0338  0.6591
32701SOL     OW 2659   0.159   0.001  11.286 -0.1654 -0.2955  0.4711
32701SOL    HW1 2660   0.219   0.024  11.358 -2.1472  1.7102  1.5981
32701SOL    HW2 2661   0.130   0.086  11.251 -1.0408 -1.2296 -1.1834
32702SOL     OW 2662  10.182  12.000   9.907  0.3282  0.1285 -0.2470
32702SOL    HW1 2663  10.158  12.030   9.820  1.8306  1.8755 -0.1095
32702SOL    HW2 2664  10.254  11.938   9.893  0.9325  0.8180 -0.2374
32703SOL     OW 2665  11.415   8.632   5.393 -0.5250  0.2323 -0.1733
32703SOL    HW1 2666  11.341   8.583   5.358 -0.9588  0.0012  1.0163
32703SOL    HW2 2667  11.390   8.652   5.483 -0.3364  2.5948 -0.5873
32704SOL     OW 2668   7.937   9.844   2.622 -0.7540 -0.1965 -0.4873
32704SOL    HW1 2669   7.999   9.902   2.666 -0.4656 -0.4156 -0.6040
32704SOL    HW2 2670   7.991   9.774   2.586 -1.0965 -0.5053 -0.4024
32705SOL     OW 2671   1.535  11.656   2.725  0.5730  0.1222 -0.0032
32705SOL    HW1 2672   1.504  11.654   2.634 -0.5457 -0.7795  0.3820
32705SOL    HW2 2673   1.467  11.611   2.775 -0.7447  3.7459  1.8820
32706SOL     OW 2674   3.160   2.811   1.661  0.1892 -0.0943 -0.1530
32706SOL    HW1 2675   3.092   2.826   1.727 -0.0066 -3.3115  0.5380
32706SOL    HW2 2676   3.121   2.749   1.600  1.8784 -0.5653 -0.8038
32707SOL     OW 2677   6.037   0.946   3.612  0.0947  0.4881 -0.2749
32707SOL    HW1 2678   5.950   0.961   3.650  0.0079  1.1826 -0.7460
32707SOL    HW2 2679   6.021   0.942   3.518  0.7088  1.5884 -0.4324
32708SOL     OW 2680   0.492   1.181   9.771 -0.7136 -0.0332 -0.2787
32708SOL    HW1 2681   0.399   1.163   9.789 -0.4077  0.0543  1.5585
32708SOL    HW2 2682   0.508   1.266   9.811  0.1215  0.0585 -0.7854
32709SOL     OW 2683   2.960   7.372   1.495  0.0505  0.0128  0.2752
32709SOL    HW1 2684   2.899   7.446   1.495 -0.3340 -0.3006  0.7149
32709SOL    HW2 2685   2.945   7.329   1.411 -1.9616 -1.3818  1.2852
32710SOL     OW 2686   0.544   2.787   3.083 -0.0582 -0.4061 -0.3875
32710SOL    HW1 2687   0.565   2.879   3.066 -0.9669  0.1663  1.2911
32710SOL    HW2 2688   0.484   2.762   3.013 -0.4398  0.5400 -0.4115
32711SOL     OW 2689   7.299   2.606   4.670  0.6936  0.0830  0.4106
32711SOL    HW1 2690   7.268   2.681   4.721  1.2153  0.1877  0.5748
32711SOL    HW2 2691   7.355   2.644   4.602  2.3784 -0.2719  1.5464
32712SOL     OW 2692  11.738  11.915  10.010  0.0047 -0.1609 -0.0403
32712SOL    HW1 2693  11.642  11.919  10.008  0.0238  1.3726  0.9044
32712SOL    HW2 2694  11.767  11.981   9.948  0.4629 -0.3778 -0.0632
32713SOL     OW 2695   3.633   9.695   1.797  0.7791  0.1073  0.2221
32713SOL    HW1 2696   3.657   9.724   1.709  2.1127 -1.1386  0.1318
32713SOL    HW2 2697   3.713   9.707   1.848  0.3065 -0.1037  1.0176
32714SOL     OW 2698   8.125   2.515   9.760 -0.0866 -0.0837 -0.3365
32714SOL    HW1 2699   8.156   2.470   9.682  0.5217  0.6877 -0.5546
32714SOL    HW2 2700   8.131   2.449   9.830 -3.0819 -1.6209 -1.3463
32715SOL     OW 2701   1.684   3.536   4.271 -0.4063  0.1818  0.2835
32715SOL    HW1 2702   1.681   3.491   4.187  0.6411 -0.4126  0.5320
32715SOL    HW2 2703   1.703   3.627   4.249  1.4688 -0.2492 -0.0998
32716SOL     OW 2704   2.166   7.737   9.945  0.7206  0.2262  0.2372
32716SOL    HW1 2705   2.230   7.780  10.001  2.3702 -1.4308 -0.2557
32716SOL    HW2 2706   2.146   7.655   9.991 -1.5089  0.9139  0.6363
32717SOL     OW 2707   2.998   7.927   6.127  0.0093 -0.3906  0.0678
32717SOL    HW1 2708   2.976   8.009   6.171 -3.2680 -0.9708 -0.2318
32717SOL    HW2 2709   2.973   7.940   6.036  1.8427 -0.9274 -0.5491
32718SOL     OW 2710   3.591   3.577   1.031 -0.5136 -0.5818 -0.2256
32718SOL    HW1 2711   3.677   3.581   0.988 -0.3361  0.8158  0.1937
32718SOL    HW2 2712   3.596   3.498   1.086  0.2377 -0.9106 -0.7430
32719SOL     OW 2713   0.029   8.837   5.586  0.1660  0.2670  0.7218
32719SOL    HW1 2714   0.097   8.784   5.628  1.0280  0.0061 -0.8982
32719SOL    HW2 2715   0.078   8.895   5.528 -0.9832 -0.0544 -0.6261
32720SOL     OW 2716   0.452   4.751   3.546 -0.1754  0.3758 -0.6715
32720SOL    HW1 2717   0.374   4.696   3.559  0.1319 -0.2485 -1.3866
32720SOL    HW2 2718   0.481   4.772   3.635 -1.5113  1.1449 -0.3910
32721SOL     OW 2719   0.205   6.345   7.848  0.6272  0.2463 -0.0652
32721SOL    HW1 2720   0.168   6.432   7.834 -1.1393 -0.0184  2.3340
32721SOL    HW2 2721   0.144   6.285   7.805 -0.6712 -0.0313  2.0089
32722SOL     OW 2722  11.765   3.022  10.802  0.2417 -0.1664  0.4792
32722SOL    HW1 2723  11.779   2.959  10.731  0.6553 -1.5596  1.7288
32722SOL    HW2 2724  11.853   3.055  10.821  0.2335 -0.3092  0.7748
32723SOL     OW 2725   5.245  11.247  10.781 -0.0063  0.1291  0.1313
32723SOL    HW1 2726   5.230  11.154  10.794  1.5817 -0.0881  0.5612
32723SOL    HW2 2727   5.339  11.255  10.766 -0.3022  1.5034 -1.3572
32724SOL     OW 2728  11.441   8.666   2.918 -0.3403 -0.1832 -0.2067
32724SOL    HW1 2729  11.504   8.594   2.907 -0.0315  0.1125 -0.4103
32724SOL    HW2 2730  11.432   8.703   2.830 -0.2681  0.2156 -0.0465
32725SOL     OW 2731  11.678   5.826   1.026  0.1774 -0.2617  0.2010
32725SOL    HW1 2732  11.729   5.882   1.085  0.6401 -2.2652  1.8065
32725SOL    HW2 2733  11.707   5.737   1.047 -2.2728 -1.2985 -0.5364
32726SOL     OW 2734   0.983   7.648   5.324 -0.2711  0.6160  0.3369
32726SOL    HW1 2735   1.022   7.697   5.251 -0.4844  2.4903  1.4039
32726SOL    HW2 2736   0.984   7.557   5.296  2.0899  0.9581 -0.9233
32727SOL     OW 2737   2.042   2.852   9.915 -0.1333 -0.7300 -0.6368
32727SOL    HW1 2738   1.991   2.800   9.853 -3.0953  0.4214  0.6431
32727SOL    HW2 2739   1.999   2.938   9.915  2.6839  0.8019 -0.4011
32728SOL     OW 2740   0.345   9.370   8.936 -0.1689  0.3647 -0.0961
32728SOL    HW1 2741   0.397   9.345   9.012  0.7369  4.6164  0.9723
32728SOL    HW2 2742   0.405   9.363   8.862 -0.3808 -1.7014 -0.1040
32729SOL     OW 2743   9.523   5.957  11.807  0.2018 -0.7787 -0.3177
32729SOL    HW1 2744   9.472   5.981  11.730 -0.9617 -1.7400  0.1289
32729SOL    HW2 2745   9.557   6.040  11.841  2.0850 -0.4536 -2.7448
32730SOL     OW 2746   5.000   9.385  11.119  0.3750 -0.1394  0.2311
32730SOL    HW1 2747   4.982   9.292  11.137 -0.2594 -0.3211 -1.2373
32730SOL    HW2 2748   4.945   9.432  11.181 -0.7243 -0.7412 -0.2627
32731SOL     OW 2749   0.801   7.566  11.494 -0.0077  1.4684  0.3337
32731SOL    HW1 2750   0.791   7.475  11.521 -0.1090  1.9260  1.9203
32731SOL    HW2 2751   0.770   7.567  11.403 -2.1420  0.3474  0.9838
32732SOL     OW 2752   8.775  10.491   7.621  0.2040 -0.2808  0.3763
32732SOL    HW1 2753   8.732  10.543   7.689 -0.0544 -0.3603  0.2732
32732SOL    HW2 2754   8.711  10.485   7.550  0.1989 -0.8046  0.4186
32733SOL     OW 2755   5.064   9.796   4.148 -0.3880 -0.0177 -0.5559
32733SOL    HW1 2756   5.101   9.821   4.233 -0.5048 -0.7350 -0.2843
32733SOL    HW2 2757   4.972   9.824   4.154 -1.2823 -2.8610  0.8351
32734SOL     OW 2758   5.435   5.281   1.253 -0.1614 -0.6465 -0.6272
32734SOL    HW1 2759   5.382   5.356   1.279 -2.1536 -1.8866 -0.8941
32734SOL    HW2 2760   5.524   5.316   1.245 -0.6774  1.2517  1.0726
32735SOL     OW 2761   0.606   8.911   8.104 -0.2909  0.6113  0.4480
32735SOL    HW1 2762   0.628   8.818   8.098 -1.7637  0.2885 -4.7187
32735SOL    HW2 2763   0.688   8.957   8.086 -0.2633  0.0632 -0.9880
32736SOL     OW 2764   2.824  11.285  11.100  0.0531  0.0211  0.6674
32736SOL    HW1 2765   2.882  11.267  11.173 -0.8906 -1.0056  1.2090
32736SOL    HW2 2766   2.747  11.325  11.140 -0.6314 -0.8967  0.3169
32737SOL     OW 2767   1.186   3.310   8.220  0.4175 -0.2034 -0.3350
32737SOL    HW1 2768   1.246   3.376   8.184  0.0428 -0.1961 -0.9701
32737SOL    HW2 2769   1.178   3.245   8.150 -0.5503 -0.0461 -0.3838
32738SOL     OW 2770   3.563   9.954  10.838 -0.2928 -0.1592  0.1962
32738SOL    HW1 2771   3.555   9.860  10.859  1.0188  0.0099  1.6899
32738SOL    HW2 2772   3.485   9.993  10.878 -1.3849 -0.7074 -1.3181
32739SOL     OW 2773   3.462   0.975  11.689  0.9113 -0.2034 -0.6857
32739SOL    HW1 2774   3.551   0.961  11.655  1.1411  2.0646 -1.1728
32739SOL    HW2 2775   3.405   0.966  11.613  0.6799 -1.7451 -0.3573
32740SOL     OW 2776   6.458   5.929  11.220 -0.4189  0.0791 -0.0114
32740SOL    HW1 2777   6.501   5.880  11.150 -0.5497  1.4842 -1.1282
32740SOL    HW2 2778   6.525   5.939  11.287  1.1078  2.2296 -1.7151
32741SOL     OW 2779   1.257   4.639   4.311 -0.3292  0.2272  0.0246
32741SOL    HW1 2780   1.195   4.661   4.381  0.9167  0.0065  1.2342
32741SOL    HW2 2781   1.244   4.708   4.246 -0.2911  1.4542  1.2744
32742SOL     OW 2782  11.800   6.957  11.585  0.5775  0.1688 -0.6968
32742SOL    HW1 2783  11.889   6.921  11.578  1.0169  1.3650 -1.6843
32742SOL    HW2 2784  11.813   7.047  11.612 -0.3788  0.2057 -0.3359
32743SOL     OW 2785   6.037   4.028  10.445  0.4144 -0.4383 -0.3122
32743SOL    HW1 2786   5.976   4.013  10.372  0.6136 -1.8368 -0.2279
32743SOL    HW2 2787   6.104   4.086  10.410 -0.4443  0.3458 -0.6936
32744SOL     OW 2788   6.781  11.363   2.999  0.1134 -0.0108  0.7671
32744SOL    HW1 2789   6.869  11.325   3.004  0.5677  1.1377  1.9272
32744SOL    HW2 2790   6.779  11.407   2.914  1.5828  2.0548  1.7316
32745SOL     OW 2791  10.591   7.928   5.531 -0.3796  0.3203  0.0566
32745SOL    HW1 2792  10.591   7.896   5.621 -0.3800 -1.1993 -0.4636
32745SOL    HW2 2793  10.498   7.927   5.505 -0.2404 -0.7365 -0.4511
32746SOL     OW 2794   0.030   0.913   4.770  0.2761 -0.1075  0.3034
32746SOL    HW1 2795   0.046   0.951   4.857  0.6792  0.3437  0.0337
32746SOL    HW2 2796   0.113   0.872   4.746 -0.2779 -1.6227  0.7966
32747SOL     OW 2797  11.701   2.618   8.208 -0.0469  0.4746 -0.5332
32747SOL    HW1 2798  11.723   2.685   8.143 -2.5771  1.7465 -0.2068
32747SOL    HW2 2799  11.666   2.546   8.157 -0.6326  0.8602 -0.6802
32748SOL     OW 2800   5.672   0.894   0.698  0.1873  0.2187  0.5065
32748SOL    HW1 2801   5.765   0.873   0.707  0.2473  0.0670 -0.3660
32748SOL    HW2 2802   5.629   0.809   0.689 -0.1917  0.2118  2.0263
32749SOL     OW 2803   1.534   2.264   7.643 -0.2066  0.0927 -0.5265
32749SOL    HW1 2804   1.505   2.210   7.716 -1.5080  2.0098  0.4637
32749SOL    HW2 2805   1.458   2.320   7.623  1.1082  1.6675 -1.3587
32750SOL     OW 2806   3.558   4.434   3.268  0.4013  0.2435  0.4504
32750SOL    HW1 2807   3.473   4.461   3.303 -1.8997 -2.4233 -2.4872
32750SOL    HW2 2808   3.590   4.512   3.222 -1.7767  0.6324 -0.5421
32751SOL     OW 2809  10.403   7.160   4.738 -0.0893 -0.1724 -0.2388
32751SOL    HW1 2810  10.412   7.168   4.643  1.6986  3.0514  0.0301
32751SOL    HW2 2811  10.488   7.125   4.767 -0.1438  0.0938  0.2512
32752SOL     OW 2812   6.666   6.880   8.428 -0.1906 -0.3634  0.4337
32752SOL    HW1 2813   6.651   6.974   8.416  1.1243  0.1452  2.2388
32752SOL    HW2 2814   6.656   6.867   8.522 -0.3614 -2.0583  0.2062
32753SOL     OW 2815   5.116   3.858   8.083 -0.5213 -0.3360 -0.1020
32753SOL    HW1 2816   5.171   3.852   8.005 -0.5853 -0.1913 -0.1588
32753SOL    HW2 2817   5.032   3.891   8.051 -0.1627  0.9190  0.1975
32754SOL     OW 2818   6.902   8.303   9.560  0.5252  0.1839  0.4098
32754SOL    HW1 2819   6.997   8.297   9.569  0.3811 -0.5415  1.7844
32754SOL    HW2 2820   6.876   8.370   9.624  0.1637  0.8984 -0.4615
32755SOL     OW 2821   8.079   6.242   4.655 -0.0996  0.0857  0.2521
32755SOL    HW1 2822   8.084   6.167   4.596  0.5597  0.2418  0.1029
32755SOL    HW2 2823   8.087   6.318   4.597  0.4428  0.2430  0.5253
32756SOL     OW 2824   1.602   0.446   1.361  0.3404 -0.0942 -0.1548
32756SOL    HW1 2825   1.672   0.493   1.406 -1.1751  0.7360  1.4519
32756SOL    HW2 2826   1.638   0.359   1.344  0.6777 -0.9070  3.7891
32757SOL     OW 2827  10.655   9.200   4.791  0.3309 -0.0561 -0.3588
32757SOL    HW1 2828  10.658   9.208   4.886 -1.3943 -1.0656 -0.1766
32757SOL    HW2 2829  10.656   9.106   4.774 -1.3751  0.0362 -1.1971
32758SOL     OW 2830   6.239  11.796   4.336 -0.3235 -0.1830 -0.7159
32758SOL    HW1 2831   6.168  11.788   4.401  1.7789 -1.4970  1.5989
32758SOL    HW2 2832   6.292  11.869   4.368  0.0171  0.0495 -1.7741
32759SOL     OW 2833   0.291   8.808   9.104  0.1626  0.0670 -0.0802
32759SOL    HW1 2834   0.287   8.872   9.033  0.8639 -0.2392 -0.3952
32759SOL    HW2 2835   0.205   8.766   9.103 -0.5436  1.4317  0.5311
32760SOL     OW 2836   9.813  10.032  10.824  0.6095  0.3206 -0.1650
32760SOL    HW1 2837   9.722  10.052  10.803  0.7553  0.7893 -0.3899
32760SOL    HW2 2838   9.863  10.070  10.751  0.9654 -0.1512 -0.1713
32761SOL     OW 2839   3.324   8.845   4.281  0.5431  0.5561  0.1701
32761SOL    HW1 2840   3.315   8.882   4.193  2.4188  3.3416  0.9994
32761SOL    HW2 2841   3.257   8.889   4.333 -1.3606 -1.9377  0.0428
32762SOL     OW 2842   4.777   0.982  12.088 -0.7891  0.2894 -0.2143
32762SOL    HW1 2843   4.709   0.939  12.139 -0.4555  0.1362  0.1042
32762SOL    HW2 2844   4.762   1.076  12.103  0.4490  0.2256  1.7007
32763SOL     OW 2845   9.357   5.687   2.707 -0.2594 -0.2400 -0.5919
32763SOL    HW1 2846   9.326   5.604   2.746 -1.2186  0.8190  1.0570
32763SOL    HW2 2847   9.427   5.716   2.765 -0.3121  0.3694 -0.8245
32764SOL     OW 2848   0.499   6.839   6.740 -0.1031 -0.1000  0.2765
32764SOL    HW1 2849   0.485   6.751   6.704 -1.0110  0.5476 -1.0374
32764SOL    HW2 2850   0.593   6.856   6.726  0.0363 -0.7838  0.3580
32765SOL     OW 2851   0.422   2.902   5.189 -0.2161  0.1055  0.5629
32765SOL    HW1 2852   0.389   2.988   5.165  0.9722  0.4032 -0.1058
32765SOL    HW2 2853   0.476   2.917   5.266  1.4334  0.3012 -0.5720
32766SOL     OW 2854  10.777   9.043   2.657  0.4809 -0.3458 -0.2504
32766SOL    HW1 2855  10.774   9.099   2.735 -1.6286  0.8940 -1.1262
32766SOL    HW2 2856  10.699   9.067   2.607  0.8703 -2.2995 -1.9485
32767SOL     OW 2857  11.567   5.618   1.231 -0.3838  0.1281  1.0684
32767SOL    HW1 2858  11.632   5.601   1.163 -1.2750  0.7265  0.0345
32767SOL    HW2 2859  11.618   5.641   1.308  0.7587 -2.7046  1.3031
32768SOL     OW 2860  10.169   1.471   6.482  0.0639  0.1149  0.2962
32768SOL    HW1 2861  10.215   1.437   6.406 -0.8764 -2.1089  0.6281
32768SOL    HW2 2862  10.087   1.420   6.485  0.5937 -0.7794  3.4295
32769SOL     OW 2863   4.587   3.792   7.575  0.3089 -0.1257  0.0177
32769SOL    HW1 2864   4.492   3.782   7.575  0.1744  0.9251 -1.4248
32769SOL    HW2 2865   4.605   3.851   7.648 -0.0538 -0.9416  0.7810
32770SOL     OW 2866   6.241   8.764   7.577 -0.8316 -0.3009  0.2148
32770SOL    HW1 2867   6.234   8.740   7.669 -1.6439 -1.5673 -0.1382
32770SOL    HW2 2868   6.290   8.692   7.537  0.4650  0.7704 -0.1689
32771SOL     OW 2869   1.041   4.392  10.074  0.8650  0.1689 -0.4935
32771SOL    HW1 2870   0.959   4.355  10.107  1.4436 -1.6001 -0.9488
32771SOL    HW2 2871   1.025   4.405   9.980  0.9321  0.3516 -0.4801
32772SOL     OW 2872   5.773   7.886   8.926 -0.0752 -0.3563  0.4476
32772SOL    HW1 2873   5.802   7.946   8.995  1.3352  1.0094 -1.2228
32772SOL    HW2 2874   5.846   7.825   8.916  0.0113 -0.1452 -0.2438
32773SOL     OW 2875   5.528   0.700  10.025  0.0740 -0.0677 -0.6222
32773SOL    HW1 2876   5.460   0.759  10.058 -0.8440 -1.7014  0.5891
32773SOL    HW2 2877   5.605   0.755  10.015 -0.4047  1.1378  1.6035
32774SOL     OW 2878   0.578  10.994   3.638  0.3780  0.0232  0.0402
32774SOL    HW1 2879   0.671  10.973   3.643  0.3531 -0.0005  0.4539
32774SOL    HW2 2880   0.553  10.972   3.548  0.7383 -0.0997 -0.0313
32775SOL     OW 2881   6.614   4.331  11.237 -0.0758 -0.3440 -0.4587
32775SOL    HW1 2882   6.608   4.263  11.304 -1.2625  0.8416  0.7205
32775SOL    HW2 2883   6.675   4.296  11.172  0.7594 -1.7527  1.0037
32776SOL     OW 2884  10.993   9.314   8.804  0.4750  0.3122  0.0714
32776SOL    HW1 2885  11.056   9.387   8.799  0.3158  0.4359 -0.1238
32776SOL    HW2 2886  11.018   9.267   8.884 -0.1895  1.2945  0.8871
32777SOL     OW 2887   6.738  10.977  11.371 -0.1722  0.1285 -0.0072
32777SOL    HW1 2888   6.702  11.057  11.334 -0.6101  0.1914  0.5346
32777SOL    HW2 2889   6.832  10.982  11.354 -0.1768  0.8169  0.1390
32778SOL     OW 2890   1.549   9.026   3.343  0.1012 -0.8883  0.1513
32778SOL    HW1 2891   1.637   9.032   3.304 -0.6642 -1.0942 -1.7247
32778SOL    HW2 2892   1.526   8.933   3.334 -0.9902 -0.5338 -1.0392
32779SOL     OW 2893   4.703   3.353   6.639 -0.6060 -0.0509 -0.3002
32779SOL    HW1 2894   4.736   3.433   6.681  0.0042  0.4865 -1.7513
32779SOL    HW2 2895   4.713   3.369   6.546  0.2255 -2.1182 -0.6124
32780SOL     OW 2896   9.241   4.607   1.799 -0.3138  0.2897  0.2956
32780SOL    HW1 2897   9.196   4.689   1.815  0.6429  0.7175  0.8923
32780SOL    HW2 2898   9.334   4.628   1.807  0.0898 -0.3293 -2.0149
32781SOL     OW 2899   4.580   9.796   7.064  0.1615 -0.0788 -0.5147
32781SOL    HW1 2900   4.593   9.835   7.151 -0.8797  0.0136 -0.3884
32781SOL    HW2 2901   4.487   9.808   7.046 -0.1487 -2.1911 -0.6285
32782SOL     OW 2902   5.539   8.586   6.105 -0.8554  0.3637 -0.3924
32782SOL    HW1 2903   5.587   8.647   6.160 -1.8757  1.8010 -1.0402
32782SOL    HW2 2904   5.607   8.530   6.067 -0.0835 -0.2172  1.7243
32783SOL     OW 2905   7.700   7.400   9.626  0.1250  0.0487 -0.3338
32783SOL    HW1 2906   7.730   7.309   9.617  0.5486  0.0803  0.6596
32783SOL    HW2 2907   7.755   7.450   9.565  0.9783 -0.1341  0.2736
32784SOL     OW 2908   3.200   1.394   7.983 -0.0406  0.1478 -0.2042
32784SOL    HW1 2909   3.263   1.339   8.030  1.2322  2.5862  1.1276
32784SOL    HW2 2910   3.249   1.427   7.907 -0.3572  0.4317 -0.2883
32785SOL     OW 2911   0.317   6.947   5.010 -0.6364 -0.2270 -0.4087
32785SOL    HW1 2912   0.228   6.915   4.991 -0.6767  0.1431 -0.8719
32785SOL    HW2 2913   0.305   7.039   5.033 -0.3763 -0.1866 -0.4305
32786SOL     OW 2914  10.086   9.117   6.834  0.1908  0.8869 -0.5527
32786SOL    HW1 2915  10.148   9.060   6.879 -0.3531 -0.3707 -1.3359
32786SOL    HW2 2916  10.052   9.174   6.903  1.3707  0.8378  0.0962
32787SOL     OW 2917   3.027  11.393  11.429  0.6486 -0.4589  0.6190
32787SOL    HW1 2918   3.013  11.318  11.372 -1.5511  0.5434 -0.2631
32787SOL    HW2 2919   2.984  11.370  11.511  0.4651 -0.3808  0.5439
32788SOL     OW 2920   3.412   6.792   8.814  0.2396  0.4765  0.3053
32788SOL    HW1 2921   3.484   6.822   8.869  2.2213  0.0826 -1.9092
32788SOL    HW2 2922   3.367   6.726   8.867  1.2275  1.0355  1.9116
32789SOL     OW 2923  10.062   8.874   1.594  0.4555 -0.0251  0.0010
32789SOL    HW1 2924  10.128   8.942   1.585  2.0213 -1.3479  0.9446
32789SOL    HW2 2925  10.033   8.881   1.685  1.9656 -1.7093  0.6724
32790SOL     OW 2926   6.471   7.988   9.710 -0.0452 -0.2530  0.0907
32790SOL    HW1 2927   6.563   7.960   9.709  0.2546  0.6792  0.6877
32790SOL    HW2 2928   6.423   7.913   9.674  0.7806 -1.3626  1.1948
32791SOL     OW 2929   7.991   2.605   3.164  0.6907 -0.0566  0.0764
32791SOL    HW1 2930   8.002   2.527   3.110 -1.5340 -1.0870  1.0027
32791SOL    HW2 2931   7.962   2.673   3.103 -2.3032 -1.3302 -0.1002
32792SOL     OW 2932   9.935   6.979   5.527  0.2218  0.1953  0.0645
32792SOL    HW1 2933   9.998   6.918   5.488  1.0709  0.9275  0.2679
32792SOL    HW2 2934   9.979   7.064   5.524 -0.5870  0.6425  0.6139
32793SOL     OW 2935  10.107   5.805   8.734 -0.0766 -0.1301 -0.1382
32793SOL    HW1 2936  10.104   5.885   8.785 -1.1383 -0.9663  1.1736
32793SOL    HW2 2937  10.075   5.829   8.647  0.4745  1.0259 -0.0368
32794SOL     OW 2938   1.031   1.371   5.219 -0.1616 -0.0715 -0.8299
32794SOL    HW1 2939   1.083   1.292   5.204  0.4071  0.3249 -0.9869
32794SOL    HW2 2940   0.941   1.339   5.227  0.2134 -0.8848  0.4570
32795SOL     OW 2941   5.985  11.445  10.483 -0.0581 -0.0873  0.3203
32795SOL    HW1 2942   5.910  11.497  10.510 -0.8916 -0.0274 -1.9464
32795SOL    HW2 2943   6.047  11.454  10.556 -1.7723  0.7520  1.7597
32796SOL     OW 2944   5.963   2.043  10.653  0.2187 -0.0356  0.5564
32796SOL    HW1 2945   5.974   1.997  10.737 -0.2516 -0.0192  0.6301
32796SOL    HW2 2946   5.868   2.047  10.641  0.2489  1.0369  0.6211
32797SOL     OW 2947   9.043   1.681   4.907 -0.7628  0.2632 -0.1995
32797SOL    HW1 2948   9.076   1.655   4.993  0.9587 -0.5792 -1.0684
32797SOL    HW2 2949   9.062   1.775   4.901  1.0862 -0.0969 -0.4604
32798SOL     OW 2950   8.153   5.042   6.944  0.1424 -0.5615  0.2492
32798SOL    HW1 2951   8.076   5.026   6.889 -0.5190  0.7004  0.7713
32798SOL    HW2 2952   8.214   4.971   6.922 -0.3820 -0.4798 -1.5941
32799SOL     OW 2953   8.064  10.760  11.941  0.1495  0.2798  0.0114
32799SOL    HW1 2954   8.019  10.684  11.905  1.3241 -0.1030 -0.7217
32799SOL    HW2 2955   8.026  10.772  12.028 -1.6317  0.2512 -0.7376
32800SOL     OW 2956  11.446   5.790   7.905  0.2369 -0.2845 -0.6040
32800SOL    HW1 2957  11.501   5.713   7.919 -0.1595 -0.4113  0.3976
32800SOL    HW2 2958  11.357   5.754   7.904  0.0066  0.2054  0.4790
32801SOL     OW 2959   9.059   7.497   7.189  0.5328  0.4251  0.5986
32801SOL    HW1 2960   9.025   7.464   7.272  0.8788  1.8228  1.3242
32801SOL    HW2 2961   9.037   7.590   7.189 -1.9708 -0.0115 -2.1569
32802SOL     OW 2962   9.629  10.003   9.953 -0.3919 -0.2382 -0.2055
32802SOL    HW1 2963   9.563  10.053   9.904  0.0773 -1.4182 -2.1626
32802SOL    HW2 2964   9.699  10.066   9.970  0.2635 -0.1627 -2.7729
32803SOL     OW 2965   2.785   5.567   6.811  0.0175 -0.1312 -0.4997
32803SOL    HW1 2966   2.749   5.633   6.871 -0.4601 -0.1979 -0.7094
32803SOL    HW2 2967   2.802   5.616   6.730  2.0494  0.2994  0.1198
32804SOL     OW 2968   4.419   3.228   6.943  0.2204 -0.4490 -0.5598
32804SOL    HW1 2969   4.399   3.235   7.036  0.8893  0.7449 -0.4843
32804SOL    HW2 2970   4.445   3.316   6.917  2.1565 -1.2044 -1.3830
32805SOL     OW 2971  12.097   1.392   3.663 -0.0450  0.0057  0.3922
32805SOL    HW1 2972  12.110   1.423   3.753 -0.3711  1.5480 -0.0552
32805SOL    HW2 2973  12.150   1.452   3.609 -0.1279 -0.6816 -0.4779
32806SOL     OW 2974   9.165   8.594   4.536 -0.6077  0.3068  0.2375
32806SOL    HW1 2975   9.125   8.536   4.600  0.2323 -0.2271  0.2972
32806SOL    HW2 2976   9.092   8.628   4.485 -1.1632 -0.3525  0.5757
32807SOL     OW 2977   9.436   8.971   3.653 -0.2855  0.3400 -0.4913
32807SOL    HW1 2978   9.372   8.910   3.616 -1.6868  0.0038  2.2380
32807SOL    HW2 2979   9.473   8.925   3.729  1.5095  1.4505 -0.6172
32808SOL     OW 2980   4.254   3.930   3.786  0.0634 -0.4598  0.0490
32808SOL    HW1 2981   4.260   3.985   3.707 -0.8820  1.4031  1.2008
32808SOL    HW2 2982   4.161   3.908   3.794  0.1915 -0.8696  0.4952
32809SOL     OW 2983   4.468   0.515   1.031  0.0636 -0.1551 -0.1843
32809SOL    HW1 2984   4.451   0.502   0.938 -0.2538 -0.5460 -0.0749
32809SOL    HW2 2985   4.499   0.430   1.061  1.5925  0.3649 -0.2372
32810SOL     OW 2986   9.808   1.476   9.602  0.0671  0.0914  0.4722
32810SOL    HW1 2987   9.847   1.556   9.638  0.0425  0.3046  0.0317
32810SOL    HW2 2988   9.779   1.427   9.679  0.1414  0.4751  0.7501
32811SOL     OW 2989   4.512   3.538   2.858 -0.0201  0.1334  0.2036
32811SOL    HW1 2990   4.536   3.619   2.813  0.3631  0.1117  0.3701
32811SOL    HW2 2991   4.422   3.521   2.830 -0.5309  1.2607  1.0778
32812SOL     OW 2992  11.289   8.631   6.359  0.0291 -0.0773  0.3717
32812SOL    HW1 2993  11.217   8.653   6.418 -1.0064 -1.5763 -0.2758
32812SOL    HW2 2994  11.329   8.553   6.398  0.7916  0.2733  0.3005
32813SOL     OW 2995   6.591   7.952   2.066  0.3735 -0.7522  0.2971
32813SOL    HW1 2996   6.605   8.044   2.043  5.4474 -0.8297  1.8762
32813SOL    HW2 2997   6.575   7.909   1.981 -0.0984  1.2796 -0.7068
32814SOL     OW 2998   5.020   2.577   5.184  0.2482  0.0706  0.2106
32814SOL    HW1 2999   5.101   2.602   5.229  0.5646 -1.2468  0.4386
32814SOL    HW2 3000   4.956   2.566   5.253  0.1942 -0.0069  0.1493
32815SOL     OW 3001   9.636   9.339   1.815  0.1659  0.4321  0.0487
32815SOL    HW1 3002   9.597   9.410   1.764  0.4233  0.1277 -0.5791
32815SOL    HW2 3003   9.576   9.265   1.803  0.5725  0.1690 -0.3476
32816SOL     OW 3004   7.438   1.684   0.567  0.2796  0.1749  0.2481
32816SOL    HW1 3005   7.514   1.699   0.622  0.2762  0.2770  0.2263
32816SOL    HW2 3006   7.448   1.747   0.495 -0.3640  0.9298  0.7912
32817SOL     OW 3007   1.573   1.138   9.714 -0.3771  0.1014  0.0939
32817SOL    HW1 3008   1.557   1.133   9.620  1.5973  0.9087 -0.3310
32817SOL    HW2 3009   1.489   1.166   9.751 -0.7443  1.4841 -1.6184
32818SOL     OW 3010   0.272   8.408   8.194 -0.2297 -0.5586 -0.5026
32818SOL    HW1 3011   0.181   8.403   8.164 -0.7240 -0.4167  0.9220
32818SOL    HW2 3012   0.294   8.319   8.221 -1.7756  0.2267  4.1568
32819SOL     OW 3013   6.931   3.905   7.552 -0.2689  0.7463 -0.0042
32819SOL    HW1 3014   6.865   3.919   7.619 -0.8856 -1.2983 -0.1274
32819SOL    HW2 3015   6.887   3.854   7.484  0.7021  1.6535 -1.3833
32820SOL     OW 3016   1.254   3.612   6.835  0.5097  0.6994  0.4773
32820SOL    HW1 3017   1.323   3.612   6.769  0.0751  0.6106  0.0197
32820SOL    HW2 3018   1.239   3.520   6.854 -0.6663  0.6256 -0.6835
32821SOL     OW 3019   0.881  12.017   6.804 -0.6212 -0.3050 -0.2278
32821SOL    HW1 3020   0.947  12.082   6.778 -1.2218  0.0100 -0.9744
32821SOL    HW2 3021   0.908  11.991   6.893 -0.9622  1.7331  0.5285
32822SOL     OW 3022   4.899   2.086  11.134 -0.7005 -0.3152 -0.0572
32822SOL    HW1 3023   4.965   2.139  11.179 -1.8405  0.8776  0.3043
32822SOL    HW2 3024   4.840   2.057  11.204 -1.2228 -0.3477 -0.5049
32823SOL     OW 3025   3.802   4.467   3.475  0.2446 -0.1997  0.3455
32823SOL    HW1 3026   3.814   4.386   3.426 -0.5701 -0.4826  0.6099
32823SOL    HW2 3027   3.779   4.439   3.564 -1.0761  0.2994  0.1841
32824SOL     OW 3028   0.217   5.823   9.481  0.0048  0.1010 -0.3683
32824SOL    HW1 3029   0.275   5.863   9.546 -1.6986 -0.6507  1.7164
32824SOL    HW2 3030   0.218   5.885   9.408  0.8688  1.7175  0.9397
32825SOL     OW 3031   8.129   5.913   6.569 -0.4692  0.2125  0.1942
32825SOL    HW1 3032   8.182   5.909   6.649 -0.0824  0.8491 -0.0193
32825SOL    HW2 3033   8.169   5.848   6.511 -0.5588 -0.0331  0.4086
32826SOL     OW 3034   1.133   2.980  11.014 -0.0147  0.6902  0.0792
32826SOL    HW1 3035   1.052   3.029  11.001 -1.3328 -1.5322 -0.5785
32826SOL    HW2 3036   1.161   3.002  11.103 -1.2648  1.6035  0.2652
32827SOL     OW 3037   7.277   1.408   1.101 -0.2361  0.4556  0.3626
32827SOL    HW1 3038   7.309   1.384   1.188  1.9175 -0.1601 -0.5198
32827SOL    HW2 3039   7.207   1.346   1.083  0.5504 -0.6280  0.9399
32828SOL     OW 3040   5.049   4.885   3.935  0.1195 -0.2866 -0.3493
32828SOL    HW1 3041   5.063   4.814   3.873 -3.2768  1.5115 -3.5814
32828SOL    HW2 3042   4.982   4.852   3.995 -1.8906  0.1914 -2.2031
32829SOL     OW 3043   3.653   2.914   3.584 -0.3299  0.2423  0.3496
32829SOL    HW1 3044   3.696   2.986   3.631  0.7625 -0.2506  0.1394
32829SOL    HW2 3045   3.582   2.886   3.643  0.8478 -0.1903  1.6379
32830SOL     OW 3046   3.405   1.433   9.068 -0.1181 -0.0300 -0.2306
32830SOL    HW1 3047   3.435   1.348   9.101 -0.1271 -0.1406 -0.5087
32830SOL    HW2 3048   3.439   1.437   8.979  1.1441  0.8905  0.2638
32831SOL     OW 3049   4.796  12.111   7.175 -0.6103  0.9322 -0.2571
32831SOL    HW1 3050   4.708  12.079   7.154 -0.9675  1.5818  0.2128
32831SOL    HW2 3051   4.826  12.154   7.096 -0.2065 -0.3537 -0.8319
32832SOL     OW 3052   1.522   6.720   0.849  0.4706  0.1422  0.1335
32832SOL    HW1 3053   1.595   6.701   0.790  0.1375 -2.3613  0.4039
32832SOL    HW2 3054   1.466   6.780   0.800  0.5980 -1.2528 -1.8218
32833SOL     OW 3055   8.521   8.999   8.303 -0.6646  0.5372 -0.2421
32833SOL    HW1 3056   8.499   8.999   8.210 -1.0280 -0.6878 -0.1732
32833SOL    HW2 3057   8.584   9.070   8.312 -1.4358  1.3851 -1.2157
32834SOL     OW 3058   0.038   0.815   5.808  0.0438  0.3359 -0.0801
32834SOL    HW1 3059  -0.022   0.859   5.748  0.0352 -0.4226 -0.6378
32834SOL    HW2 3060   0.123   0.855   5.791  0.3249 -0.8427 -1.6344
32835SOL     OW 3061   7.168   9.175   1.270 -0.1450 -0.3367 -0.0090
32835SOL    HW1 3062   7.208   9.099   1.312 -2.3734 -1.5903 -0.0007
32835SOL    HW2 3063   7.104   9.207   1.335  2.0760  2.8654  0.8489
32836SOL     OW 3064   8.704   7.513   6.131  0.1948  0.1554  0.0505
32836SOL    HW1 3065   8.658   7.434   6.103  1.0803 -0.2695 -0.2548
32836SOL    HW2 3066   8.777   7.522   6.070  0.7220  0.6135  0.7207
32837SOL     OW 3067   9.349   4.188   9.443 -0.3359 -0.2336  0.8096
32837SOL    HW1 3068   9.377   4.210   9.532 -0.7131  1.1937  0.6025
32837SOL    HW2 3069   9.279   4.125   9.455 -1.4839  1.1354  1.6370
32838SOL     OW 3070   2.313  10.881   7.732  0.2117 -0.0872 -0.1123
32838SOL    HW1 3071   2.381  10.841   7.786  0.7386  0.3363 -0.4580
32838SOL    HW2 3072   2.351  10.886   7.645 -0.4109 -0.2008 -0.3987
32839SOL     OW 3073   6.657   9.046   4.703  0.5588  0.0472  0.6261
32839SOL    HW1 3074   6.734   9.027   4.649  0.3584 -0.3242  0.4650
32839SOL    HW2 3075   6.680   9.013   4.790  0.1658 -1.1067  0.3197
32840SOL     OW 3076  10.862   1.676   0.581 -0.5374 -0.1051 -0.1496
32840SOL    HW1 3077  10.781   1.628   0.597 -0.4509 -0.4156 -0.6351
32840SOL    HW2 3078  10.835   1.758   0.540 -0.5536 -0.5856 -1.1297
32841SOL     OW 3079   1.547  11.259   0.207 -0.1419 -0.7476 -0.4854
32841SOL    HW1 3080   1.549  11.349   0.176  1.7439 -0.5858 -0.0065
32841SOL    HW2 3081   1.536  11.206   0.127 -3.9720 -0.1152 -0.5814
32842SOL     OW 3082   8.479   6.403   6.403  0.4983  0.2457 -0.0582
32842SOL    HW1 3083   8.414   6.470   6.424 -0.2327 -0.6797  0.7555
32842SOL    HW2 3084   8.495   6.413   6.309  0.1543  1.3343 -0.0122
32843SOL     OW 3085   3.720   6.803   7.321  0.0452 -0.2189  0.6372
32843SOL    HW1 3086   3.720   6.791   7.226  0.8104 -2.9627  0.8784
32843SOL    HW2 3087   3.662   6.877   7.336 -0.6474 -0.1369 -1.9316
32844SOL     OW 3088   9.891   6.712   1.265  0.4925 -0.0054 -0.2955
32844SOL    HW1 3089   9.954   6.781   1.243  0.0255  0.2199 -0.9902
32844SOL    HW2 3090   9.806   6.757   1.265  0.1957 -0.5496 -0.6294
32845SOL     OW 3091   4.359   7.129   4.436 -0.3697  0.0806  0.2341
32845SOL    HW1 3092   4.328   7.175   4.514 -1.5321 -0.7887  0.3117
32845SOL    HW2 3093   4.285   7.130   4.376  0.7556  1.4183 -1.2173
32846SOL     OW 3094   6.443   8.950   8.281  0.2476  0.5085 -0.1729
32846SOL    HW1 3095   6.483   9.037   8.290  0.5932  0.2164  1.4976
32846SOL    HW2 3096   6.513   8.889   8.305  0.4739 -0.3744 -2.7653
32847SOL     OW 3097   4.663  10.641   4.738  0.1032 -0.4241  0.0340
32847SOL    HW1 3098   4.747  10.665   4.697 -1.9474  3.4327 -2.5483
32847SOL    HW2 3099   4.629  10.570   4.684  1.1397 -1.2051  0.3772
32848SOL     OW 3100   4.165  10.238   2.838 -0.0103  0.2145 -0.4296
32848SOL    HW1 3101   4.105  10.273   2.904  0.4967  1.3467 -0.5392
32848SOL    HW2 3102   4.108  10.217   2.763 -0.4004  0.3275 -0.1685
32849SOL     OW 3103   4.487   9.386  10.205 -0.6289 -0.6281 -0.0718
32849SOL    HW1 3104   4.464   9.418  10.292 -1.0482  0.6981 -0.6448
32849SOL    HW2 3105   4.580   9.409  10.195 -1.2374  1.7482 -0.9826
32850SOL     OW 3106   5.657   8.618   9.810  0.2582  0.4344  0.2988
32850SOL    HW1 3107   5.695   8.645   9.727 -1.4279 -0.4619 -0.8211
32850SOL    HW2 3108   5.665   8.695   9.866  0.5414  1.3898 -0.9997
32851SOL     OW 3109   9.871   4.442  11.113  0.1970  0.3210 -0.0039
32851SOL    HW1 3110   9.871   4.438  11.018 -1.0514  2.2356 -0.1328
32851SOL    HW2 3111   9.846   4.354  11.141 -0.0558 -0.0944 -1.4570
32852SOL     OW 3112   2.528   7.362   9.769 -0.3361  0.3093 -0.2251
32852SOL    HW1 3113   2.505   7.398   9.683  0.4660 -0.4890 -0.8018
32852SOL    HW2 3114   2.495   7.272   9.767  2.3058 -0.7388 -0.9333
32853SOL     OW 3115   2.722   1.033  10.119  0.2594  0.2173  0.4048
32853SOL    HW1 3116   2.805   1.079  10.123  0.3856 -0.0430  3.0883
32853SOL    HW2 3117   2.725   0.972  10.193 -2.3731  0.3348  0.7243
32854SOL     OW 3118   0.216   9.295   4.006  0.2253  0.3336  0.1341
32854SOL    HW1 3119   0.140   9.348   4.030  0.5836 -0.2263  2.7616
32854SOL    HW2 3120   0.183   9.205   4.008  0.6053  0.1860 -0.2124
32855SOL     OW 3121   8.608   8.267   1.240  0.0204  0.1753 -0.2837
32855SOL    HW1 3122   8.649   8.346   1.275 -2.7103  0.3455  3.0934
32855SOL    HW2 3123   8.645   8.196   1.292 -1.8431  0.0524  0.9826
32856SOL     OW 3124   1.276   1.500  12.118  0.3127  0.3092  0.6015
32856SOL    HW1 3125   1.333   1.537  12.050  1.0380 -0.9653  0.4875
32856SOL    HW2 3126   1.220   1.573  12.144 -1.1307  0.5018 -2.5242
32857SOL     OW 3127   4.934   0.320   8.218  0.5217 -0.8660 -0.1416
32857SOL    HW1 3128   4.843   0.326   8.188  0.1928 -0.6791  0.8760
32857SOL    HW2 3129   4.931   0.261   8.293  1.1753 -0.5561  0.1349
32858SOL     OW 3130   9.908   7.540   8.961 -0.0432 -0.0146 -0.5797
32858SOL    HW1 3131   9.957   7.536   8.879 -0.6408  0.3950 -0.9647
32858SOL    HW2 3132   9.964   7.589   9.021  0.5159 -0.5502 -0.6468
32859SOL     OW 3133   4.039   1.366   3.120  0.2296 -0.6290  0.5834
32859SOL    HW1 3134   4.029   1.327   3.207 -2.4609 -0.5521  0.3819
32859SOL    HW2 3135   4.007   1.298   3.060  2.8975 -1.0497 -0.5182
32860SOL     OW 3136   5.627   4.768   6.572  0.0583  0.4581 -0.3720
32860SOL    HW1 3137   5.596   4.854   6.542 -0.8381 -0.4179 -2.0977
32860SOL    HW2 3138   5.583   4.705   6.514 -2.3816 -1.4818  3.2043
32861SOL     OW 3139   1.883   7.443   9.207  0.0407  0.1434  0.3284
32861SOL    HW1 3140   1.839   7.361   9.187 -0.2294  0.6033 -1.1189
32861SOL    HW2 3141   1.813   7.509   9.206  0.4275  0.5619  0.2450
32862SOL     OW 3142   8.344   3.185   5.309  0.6411  0.2125 -0.3961
32862SOL    HW1 3143   8.419   3.235   5.342  0.4537  0.3070 -0.1098
32862SOL    HW2 3144   8.369   3.160   5.221  0.8689  0.5404 -0.4262
32863SOL     OW 3145   2.640   8.013   7.406 -0.3200  0.0821  0.1498
32863SOL    HW1 3146   2.621   8.105   7.424 -0.8530  0.1289 -0.6278
32863SOL    HW2 3147   2.585   7.991   7.332 -0.5881 -1.0236  0.6627
32864SOL     OW 3148   0.654   5.028   9.486  0.3089  0.2296  0.6519
32864SOL    HW1 3149   0.572   4.993   9.453  0.5788 -0.0068  0.2206
32864SOL    HW2 3150   0.717   4.956   9.477  0.4673  0.2623  1.3882
32865SOL     OW 3151   2.721   7.452   5.053 -0.2515 -0.1269  0.1451
32865SOL    HW1 3152   2.809   7.428   5.083  0.0534  1.6154  0.8120
32865SOL    HW2 3153   2.701   7.389   4.984  0.7691 -1.6707  1.1896
32866SOL     OW 3154   0.492   2.564   9.459  0.3828 -0.4746 -0.3790
32866SOL    HW1 3155   0.409   2.555   9.412  1.1521 -0.8692 -1.7146
32866SOL    HW2 3156   0.538   2.635   9.413  1.5097 -1.4464 -0.8045
32867SOL     OW 3157   9.891   2.148  11.537 -0.7351  0.2355 -0.5737
32867SOL    HW1 3158   9.852   2.124  11.621 -0.5032  0.3883 -0.4228
32867SOL    HW2 3159   9.930   2.066  11.505 -0.5170  0.2550 -0.3660
32868SOL     OW 3160   8.549   7.451   1.115 -0.4390 -0.7803  0.1692
32868SOL    HW1 3161   8.540   7.546   1.111 -0.7472 -0.7536  1.3142
32868SOL    HW2 3162   8.515   7.421   1.030  2.8683  0.3028 -1.7109
32869SOL     OW 3163   4.254   9.551   3.053  0.2294 -0.3229 -0.3457
32869SOL    HW1 3164   4.298   9.586   3.131  0.0900 -1.0631  0.0828
32869SOL    HW2 3165   4.197   9.622   3.023  0.7916  0.2087 -0.1717
32870SOL     OW 3166   5.811   8.938   3.215 -0.3739  0.5593 -0.8524
32870SOL    HW1 3167   5.873   9.006   3.241  0.0253  0.1623 -0.7666
32870SOL    HW2 3168   5.725   8.979   3.227 -0.1282  1.2162 -1.2586
32871SOL     OW 3169   3.447   5.667   8.338 -0.0375  0.0085  0.2095
32871SOL    HW1 3170   3.415   5.603   8.275  0.3573  1.3434 -1.4382
32871SOL    HW2 3171   3.396   5.651   8.417 -0.6366 -1.6569 -0.4720
32872SOL     OW 3172  12.054   6.684   5.567 -0.5308 -0.2724  0.6400
32872SOL    HW1 3173  12.015   6.609   5.612 -2.0381 -0.3079 -0.6675
32872SOL    HW2 3174  12.147   6.677   5.587 -0.2218 -3.8098 -1.1997
32873SOL     OW 3175   4.534   7.418   5.834 -0.3192  0.1839 -0.3164
32873SOL    HW1 3176   4.475   7.459   5.771 -0.0558 -0.2918 -0.8829
32873SOL    HW2 3177   4.493   7.333   5.853 -0.8279  0.6634  0.7958
32874SOL     OW 3178   4.578   3.890   6.569 -0.0283  0.0233  0.3783
32874SOL    HW1 3179   4.505   3.829   6.554 -0.4564  0.2183  1.5803
32874SOL    HW2 3180   4.637   3.874   6.496  0.5091 -2.7612  1.3188
32875SOL     OW 3181   5.263   8.067   5.275 -0.0970 -0.6590  0.2500
32875SOL    HW1 3182   5.294   8.076   5.365 -0.8146 -0.2278  0.4712
32875SOL    HW2 3183   5.187   8.009   5.282 -0.9519  0.4055  0.1337
32876SOL     OW 3184   4.093   7.738   1.036  0.0275  0.0677  0.0301
32876SOL    HW1 3185   4.160   7.744   1.105 -1.8284  1.4161  1.8699
32876SOL    HW2 3186   4.081   7.644   1.022  1.7287 -0.2045  0.2210
32877SOL     OW 3187   2.468   9.335   6.502  0.0629  0.0637  0.0476
32877SOL    HW1 3188   2.440   9.387   6.577 -1.3245 -1.5570  0.7087
32877SOL    HW2 3189   2.563   9.330   6.511  0.3387  2.9446 -0.4049
32878SOL     OW 3190   8.169   2.134  11.780 -0.1122 -0.2087  0.5752
32878SOL    HW1 3191   8.249   2.082  11.773  0.1563  0.0641  1.4517
32878SOL    HW2 3192   8.171   2.192  11.704  1.0780  0.5458  1.1728
32879SOL     OW 3193   9.352  11.450   2.354  0.2798  0.3170 -0.2307
32879SOL    HW1 3194   9.291  11.482   2.287  1.6802 -2.2978 -2.9606
32879SOL    HW2 3195   9.402  11.528   2.379 -2.3831  2.0082  0.2472
32880SOL     OW 3196   6.966   3.062   6.083  0.8087 -0.1161  0.7082
32880SOL    HW1 3197   6.979   3.157   6.084  3.0202 -0.3588  1.8654
32880SOL    HW2 3198   6.929   3.042   6.169  1.1162 -0.3821  0.7798
32881SOL     OW 3199   6.818   6.273  11.201 -0.0410 -0.4739 -0.2288
32881SOL    HW1 3200   6.866   6.221  11.265  0.1596 -1.1318 -0.9102
32881SOL    HW2 3201   6.844   6.238  11.116  0.5246  1.0837 -0.7461
32882SOL     OW 3202   8.887   9.827   7.993 -0.5248 -0.1738  0.1836
32882SOL    HW1 3203   8.965   9.863   7.951 -0.2109 -0.4304  0.5418
32882SOL    HW2 3204   8.815   9.879   7.957 -0.1938  0.0517 -0.1651
32883SOL     OW 3205   4.357   7.543   0.741 -0.0650 -0.2808 -0.6021
32883SOL    HW1 3206   4.412   7.602   0.792 -0.9427 -1.1297  1.4510
32883SOL    HW2 3207   4.389   7.552   0.651  0.9836  1.9457 -0.0782
32884SOL     OW 3208   6.960   7.830   4.307 -0.2127  0.1908 -0.2589
32884SOL    HW1 3209   6.942   7.746   4.266  1.6391 -0.7871  0.7576
32884SOL    HW2 3210   7.001   7.807   4.391 -1.3372  2.1058  0.8878
32885SOL     OW 3211   2.763   1.487   5.816 -0.2073  0.6791 -0.2806
32885SOL    HW1 3212   2.750   1.582   5.812 -1.1476  0.6339  0.9973
32885SOL    HW2 3213   2.818   1.467   5.740 -2.7819  1.7813 -2.6194
32886SOL     OW 3214   7.126   9.619   5.751  0.2318 -0.0973 -0.2320
32886SOL    HW1 3215   7.085   9.605   5.666  0.8603 -0.5775 -0.4714
32886SOL    HW2 3216   7.150   9.531   5.781 -0.8951 -0.0438  0.9265
32887SOL     OW 3217  10.773  11.797   0.868  0.2261 -0.1620  0.1512
32887SOL    HW1 3218  10.683  11.813   0.895  0.2729  1.1991 -0.3957
32887SOL    HW2 3219  10.766  11.768   0.777  0.3028 -0.7936  0.3428
32888SOL     OW 3220   6.767   7.558   1.245 -0.0535  0.5090  0.2535
32888SOL    HW1 3221   6.838   7.609   1.282  0.5105 -0.8338  1.0927
32888SOL    HW2 3222   6.725   7.517   1.321  0.5077 -1.5169 -0.4777
32889SOL     OW 3223   3.898   3.715   8.690  0.7046  0.2788 -0.1407
32889SOL    HW1 3224   3.815   3.760   8.673  0.8865  0.3894 -0.7845
32889SOL    HW2 3225   3.896   3.694   8.783 -0.0855  0.2025 -0.1681
32890SOL     OW 3226   8.081  11.441  11.858 -0.4904 -0.4680 -0.7335
32890SOL    HW1 3227   8.109  11.377  11.924 -0.7948 -0.1340 -0.2720
32890SOL    HW2 3228   8.152  11.505  11.857  0.1059 -1.1122 -1.6327
32891SOL     OW 3229   1.004   6.804   6.063 -0.2902  0.1335  0.3183
32891SOL    HW1 3230   1.078   6.755   6.026 -1.1892 -0.1439 -1.1936
32891SOL    HW2 3231   0.929   6.745   6.053 -1.1347  1.2700 -0.2478
32892SOL     OW 3232   9.644   8.354   2.020 -0.8633  0.5291 -0.4105
32892SOL    HW1 3233   9.666   8.387   2.108 -0.5945  1.0032 -0.6524
32892SOL    HW2 3234   9.716   8.294   1.999 -0.3399  1.2657 -0.7611
32893SOL     OW 3235   9.874   8.178   0.170 -0.4874 -0.1860 -0.2106
32893SOL    HW1 3236   9.829   8.162   0.253  0.4710  1.8708  0.8064
32893SOL    HW2 3237   9.850   8.105   0.114 -2.0535 -1.0694  1.5191
32894SOL     OW 3238   7.823   6.105   7.257 -0.1758  0.6685 -0.6904
32894SOL    HW1 3239   7.883   6.179   7.266 -0.2637  0.9222 -1.9989
32894SOL    HW2 3240   7.737   6.141   7.281  0.0494  0.4883  0.4766
32895SOL     OW 3241   2.261   1.535   5.758  0.5850  0.8644 -0.3769
32895SOL    HW1 3242   2.256   1.459   5.816 -0.9122 -0.7582 -2.4689
32895SOL    HW2 3243   2.351   1.536   5.728  0.7218  0.1776 -0.0083
32896SOL     OW 3244   8.963   2.608  11.343 -0.2995 -0.0984  1.0652
32896SOL    HW1 3245   8.971   2.652  11.258 -1.4040 -1.9441 -0.0490
32896SOL    HW2 3246   8.873   2.626  11.371 -1.1543 -2.4440  0.0547
32897SOL     OW 3247   7.217   5.092   7.982  0.1166  0.1222  0.9369
32897SOL    HW1 3248   7.279   5.021   8.001 -0.1005 -0.0132  1.1439
32897SOL    HW2 3249   7.216   5.144   8.062  0.2136  0.3134  0.8137
32898SOL     OW 3250   9.811   4.177   5.135 -0.1590 -0.0637 -0.0338
32898SOL    HW1 3251   9.885   4.121   5.162 -1.3109 -1.0143  1.2860
32898SOL    HW2 3252   9.762   4.191   5.216 -2.3851 -0.9184 -1.1735
32899SOL     OW 3253  10.694   5.690   9.284  0.0879 -0.0087  0.7034
32899SOL    HW1 3254  10.755   5.753   9.246 -0.7912  0.1143 -0.5617
32899SOL    HW2 3255  10.736   5.661   9.365  2.8227 -1.4820 -1.0847
32900SOL     OW 3256   1.126   0.259   8.030  0.0233 -0.5206  0.2312
32900SOL    HW1 3257   1.146   0.166   8.022 -0.7611 -0.7166  0.4170
32900SOL    HW2 3258   1.203   0.303   7.996  0.9543 -1.2216  1.3699
32901SOL     OW 3259   0.778  11.328   1.642 -0.0068 -0.7559 -0.3321
32901SOL    HW1 3260   0.868  11.333   1.676  0.4165  1.0072 -1.6029
32901SOL    HW2 3261   0.767  11.408   1.592 -1.8279 -1.6268 -1.3992
32902SOL     OW 3262   7.353  10.308   4.922  0.0479 -0.3389 -0.1669
32902SOL    HW1 3263   7.368  10.392   4.967 -0.3631 -0.1999 -0.2892
32902SOL    HW2 3264   7.433  10.258   4.939 -0.6755 -0.8798  2.0281
32903SOL     OW 3265   8.457  11.686   1.233  0.2322  0.0772  0.8941
32903SOL    HW1 3266   8.404  11.759   1.266 -1.6114 -1.6868  2.0768
32903SOL    HW2 3267   8.456  11.622   1.304 -0.1344 -2.0306 -0.9029
32904SOL     OW 3268   6.083   9.830   0.757 -0.4167 -0.3210  0.2786
32904SOL    HW1 3269   6.086   9.896   0.688  0.1965 -0.6025  0.0248
32904SOL    HW2 3270   6.018   9.766   0.727 -1.0464  0.1797  0.5478
32905SOL     OW 3271   5.706   8.040   1.461  0.2803  0.1704 -0.2165
32905SOL    HW1 3272   5.719   8.067   1.370 -2.4503 -0.5329 -0.9061
32905SOL    HW2 3273   5.747   8.109   1.512  1.3917  0.8843 -1.9652
32906SOL     OW 3274   7.534   8.023  10.990 -0.6426 -0.6099  0.1010
32906SOL    HW1 3275   7.567   8.081  10.922  0.8391 -1.8709 -0.3062
32906SOL    HW2 3276   7.455   8.067  11.023 -0.6544  0.6584 -1.5059
32907SOL     OW 3277   4.704   1.918   8.413  0.5229 -0.1684  0.7113
32907SOL    HW1 3278   4.761   1.938   8.488 -0.2308 -0.5012  1.3866
32907SOL    HW2 3279   4.751   1.955   8.338  2.7127 -2.2592  0.9121
32908SOL     OW 3280   9.661   7.078   4.102  0.2954  0.4807  1.0873
32908SOL    HW1 3281   9.599   7.134   4.149 -0.5839  0.0962  0.3928
32908SOL    HW2 3282   9.747   7.105   4.136 -0.2630  0.7197  2.3684
32909SOL     OW 3283   2.653   2.420   8.264  0.1134 -0.0036  0.1970
32909SOL    HW1 3284   2.706   2.402   8.342 -0.4181  0.3052  0.6365
32909SOL    HW2 3285   2.567   2.444   8.299 -0.2743 -0.3653 -0.5067
32910SOL     OW 3286   8.195   8.782  11.556 -0.5258  0.9694  0.0803
32910SOL    HW1 3287   8.100   8.771  11.556 -0.5170  0.7374 -0.9393
32910SOL    HW2 3288   8.218   8.786  11.463  0.9296 -3.6408 -0.0147
32911SOL     OW 3289   4.543   1.774   3.021  0.0256 -0.0973  0.2449
32911SOL    HW1 3290   4.627   1.787   3.064 -0.7470  0.0757  1.7702
32911SOL    HW2 3291   4.535   1.679   3.012 -0.0747 -0.1837  1.1079
32912SOL     OW 3292   1.003   5.808   4.676  0.1899 -0.4122 -0.1587
32912SOL    HW1 3293   1.095   5.831   4.661  0.1567  0.8348  1.3220
32912SOL    HW2 3294   0.976   5.767   4.594  2.4228 -2.0581 -0.1774
32913SOL     OW 3295   5.856   5.644   0.841  0.0818  0.1853  0.6793
32913SOL    HW1 3296   5.826   5.555   0.821 -0.1201 -0.2862  2.8332
32913SOL    HW2 3297   5.776   5.691   0.868  0.3818  0.6224  0.8190
32914SOL     OW 3298   8.009   9.271   6.340  0.4701 -0.8886  0.1545
32914SOL    HW1 3299   7.982   9.206   6.405 -2.8095  0.4752  0.3225
32914SOL    HW2 3300   8.016   9.222   6.258  2.5158 -2.2038  1.0276
32915SOL     OW 3301   9.956   3.578  10.991 -0.7527 -0.0701 -0.2630
32915SOL    HW1 3302   9.925   3.528  11.066 -0.1453  1.3766  0.9980
32915SOL    HW2 3303   9.959   3.668  11.022  1.4227  0.2995 -1.3993
32916SOL     OW 3304   9.037  11.961   1.687  0.3065 -0.2463 -0.0848
32916SOL    HW1 3305   8.974  12.026   1.719  0.4161 -0.0974 -0.1702
32916SOL    HW2 3306   9.086  11.936   1.765 -0.1915 -0.7341  0.0775
32917SOL     OW 3307  11.859   8.592   3.793 -0.4334 -0.4490  0.2122
32917SOL    HW1 3308  11.889   8.504   3.813  0.9125 -0.3592 -1.1708
32917SOL    HW2 3309  11.933   8.632   3.746 -1.3350  1.1189  0.0606
32918SOL     OW 3310   8.552   7.489   3.525  0.3468  0.7171  0.1831
32918SOL    HW1 3311   8.476   7.442   3.558 -0.6410  1.6393 -0.7175
32918SOL    HW2 3312   8.523   7.579   3.515  1.3091  0.9369 -0.9441
32919SOL     OW 3313   9.763   1.757   1.843  0.0383 -0.3957 -0.6646
32919SOL    HW1 3314   9.852   1.758   1.876 -0.0842 -0.3120 -0.3321
32919SOL    HW2 3315   9.745   1.664   1.824 -0.1752 -0.5532  0.2851
32920SOL     OW 3316   4.548   1.419  10.084  0.2012 -0.5991  0.0980
32920SOL    HW1 3317   4.629   1.410  10.134  0.0100  1.7955  0.9673
32920SOL    HW2 3318   4.488   1.465  10.143 -0.7149  0.4973 -1.5928
32921SOL     OW 3319   1.947   0.881   6.745 -0.2330 -0.1597 -0.0472
32921SOL    HW1 3320   2.010   0.949   6.769  0.2721 -0.3511 -0.7898
32921SOL    HW2 3321   1.959   0.813   6.812  0.6395 -0.3706 -0.3997
32922SOL     OW 3322   9.425   8.158   3.230  0.0837 -0.4554 -0.3204
32922SOL    HW1 3323   9.389   8.075   3.197 -1.0541 -0.6631  1.3792
32922SOL    HW2 3324   9.498   8.176   3.170 -1.5254 -1.0668 -2.6215
32923SOL     OW 3325   7.173   2.717   6.660 -0.2932 -0.2439  0.2703
32923SOL    HW1 3326   7.204   2.742   6.572 -1.1280 -0.6785 -0.1593
32923SOL    HW2 3327   7.124   2.636   6.645  1.2898 -1.4781  1.4434
32924SOL     OW 3328   7.015   4.801  11.779 -0.0382 -0.2512 -0.6567
32924SOL    HW1 3329   6.972   4.883  11.756 -0.2904 -0.2763 -0.2737
32924SOL    HW2 3330   6.975   4.775  11.862  3.0810  1.5671  1.7074
32925SOL     OW 3331   7.407   6.476   9.926 -0.5820  0.2070 -0.5909
32925SOL    HW1 3332   7.469   6.546   9.944  0.3953 -0.4227 -1.3790
32925SOL    HW2 3333   7.380   6.445  10.012  0.5281  0.2138 -0.2247
32926SOL     OW 3334   6.505   1.407   7.430  0.3133 -0.1597 -0.0655
32926SOL    HW1 3335   6.535   1.327   7.387 -0.1812 -0.0252 -0.6745
32926SOL    HW2 3336   6.425   1.382   7.476 -1.3031  0.4997 -2.3350
32927SOL     OW 3337   3.301   9.232   4.314 -0.4851 -0.8092  0.1769
32927SOL    HW1 3338   3.323   9.226   4.221 -0.0263 -0.5672  0.2715
32927SOL    HW2 3339   3.229   9.295   4.317  0.4997  0.3569  0.1429
32928SOL     OW 3340   8.031   7.017   5.067 -0.1216 -0.2097  0.5347
32928SOL    HW1 3341   8.058   7.099   5.026  2.0267 -0.3959  1.4459
32928SOL    HW2 3342   7.953   7.039   5.118  1.3495  1.6887  2.0850
32929SOL     OW 3343   0.813   4.061  12.050 -0.5692  0.9190 -0.4028
32929SOL    HW1 3344   0.866   4.037  11.974  0.4207  0.6549  0.3578
32929SOL    HW2 3345   0.727   4.023  12.032 -0.4608  1.1788 -1.5585
32930SOL     OW 3346   8.976   9.876  10.216 -0.0633 -0.1409 -0.1165
32930SOL    HW1 3347   9.050   9.835  10.172 -0.4386  0.3023 -1.2236
32930SOL    HW2 3348   8.912   9.805  10.226  0.6450 -0.6135  1.2009
32931SOL     OW 3349   9.762   1.086   7.947 -0.4286 -0.0574 -0.4245
32931SOL    HW1 3350   9.855   1.108   7.943  0.0179 -1.9123 -1.1699
32931SOL    HW2 3351   9.719   1.155   7.897  0.4533  1.2161  0.5237
32932SOL     OW 3352   5.864   1.555   1.195  0.1474 -0.2802 -0.1325
32932SOL    HW1 3353   5.845   1.595   1.280 -2.5697 -0.9548 -0.3263
32932SOL    HW2 3354   5.914   1.622   1.148 -0.5070  1.1292  1.0889
32933SOL     OW 3355   6.190  10.357  10.494 -0.0299  0.4095 -0.4005
32933SOL    HW1 3356   6.178  10.308  10.575  0.6159 -0.5385 -0.8613
32933SOL    HW2 3357   6.110  10.411  10.487 -0.4248 -0.0354  0.4774
32934SOL     OW 3358   2.191   0.858   2.069  0.4246 -0.5588 -0.4127
32934SOL    HW1 3359   2.134   0.811   2.129  0.2695 -0.2750 -0.3337
32934SOL    HW2 3360   2.217   0.937   2.118 -2.8753  1.7853 -2.0813
32935SOL     OW 3361   1.313   4.429   1.699  0.1987  0.2022 -0.1557
32935SOL    HW1 3362   1.303   4.463   1.788  2.4405  1.2649 -0.2584
32935SOL    HW2 3363   1.301   4.505   1.642  1.1091  0.0082 -0.6209
32936SOL     OW 3364   5.195  11.373   0.086  0.1113 -0.1312  0.4144
32936SOL    HW1 3365   5.219  11.325   0.007  1.5551  0.6312  0.3400
32936SOL    HW2 3366   5.240  11.458   0.076 -0.6643  0.4242  1.4933
32937SOL     OW 3367   5.944   6.050   7.714 -0.4757  0.4949 -0.4241
32937SOL    HW1 3368   5.871   6.012   7.666  1.0237 -2.7006 -0.4734
32937SOL    HW2 3369   6.011   6.065   7.647 -1.0347  3.6141 -0.4231
32938SOL     OW 3370   9.004  12.082   8.132 -0.3095  0.5550 -0.5571
32938SOL    HW1 3371   8.958  12.031   8.065  1.4982 -2.0407  0.0499
32938SOL    HW2 3372   8.944  12.081   8.207 -0.5032 -0.3210 -0.7096
32939SOL     OW 3373   4.306   9.426   1.991  0.6360  0.1867 -0.3495
32939SOL    HW1 3374   4.366   9.417   2.065 -0.3649 -1.5149  0.3240
32939SOL    HW2 3375   4.312   9.342   1.945 -1.1110 -0.0142 -0.3037
32940SOL     OW 3376   5.814  11.188   7.779 -0.0954 -0.3452 -0.9708
32940SOL    HW1 3377   5.824  11.229   7.865  1.1600 -1.6454 -0.4504
32940SOL    HW2 3378   5.872  11.112   7.782 -1.7751 -1.7474 -2.1437
32941SOL     OW 3379  10.334   5.005   1.575  0.1027  0.3205 -0.3170
32941SOL    HW1 3380  10.259   4.995   1.515 -0.3678 -0.4035  0.3813
32941SOL    HW2 3381  10.405   4.956   1.533 -0.6924 -1.5948  0.4909
32942SOL     OW 3382   9.312   8.123   8.509  0.4271  0.1517  0.5026
32942SOL    HW1 3383   9.379   8.147   8.444 -1.5277  1.9165 -0.9990
32942SOL    HW2 3384   9.273   8.207   8.535 -4.2063 -0.8688 -2.1015
32943SOL     OW 3385   9.228   7.220   9.730 -0.1019  0.0939  0.0826
32943SOL    HW1 3386   9.173   7.213   9.652 -0.1712 -1.6087  0.2586
32943SOL    HW2 3387   9.200   7.302   9.771 -0.7002  0.5538 -1.1788
32944SOL     OW 3388   6.981   1.089  11.066  0.0513  0.0251 -0.7273
32944SOL    HW1 3389   6.972   0.994  11.078 -0.8675  0.1835 -0.0364
32944SOL    HW2 3390   7.046   1.098  10.997 -1.2170 -1.1408 -2.1375
32945SOL     OW 3391   7.886  11.066   9.812  0.0413 -0.0795 -0.4197
32945SOL    HW1 3392   7.954  11.030   9.869 -0.4980 -1.9726 -0.8990
32945SOL    HW2 3393   7.826  11.112   9.871  0.0198 -1.1698  0.4403
32946SOL     OW 3394   1.294   3.815   9.876 -0.3245  0.1003 -0.2881
32946SOL    HW1 3395   1.374   3.766   9.856 -1.1308 -1.2357 -0.3573
32946SOL    HW2 3396   1.229   3.748   9.897 -1.2173  1.1900  0.5783
32947SOL     OW 3397   8.622  11.459   7.301  0.0210 -0.5729 -0.1874
32947SOL    HW1 3398   8.712  11.473   7.331  0.9368 -2.1997 -1.9680
32947SOL    HW2 3399   8.626  11.465   7.206 -2.1569  1.1686 -0.2528
32948SOL     OW 3400   6.932   8.791   4.599 -0.5835 -0.0684  0.1221
32948SOL    HW1 3401   6.960   8.807   4.689 -3.0031  1.6082  0.6803
32948SOL    HW2 3402   6.858   8.731   4.607  0.3172 -1.3883 -0.9562
32949SOL     OW 3403   4.320   6.861   5.404 -0.1794 -0.1578  0.0134
32949SOL    HW1 3404   4.351   6.831   5.490 -1.3672  1.5045  1.0845
32949SOL    HW2 3405   4.342   6.789   5.345  1.6139 -0.9204  1.4945
32950SOL     OW 3406  11.715   7.387   8.323  0.1033  0.3751  0.3730
32950SOL    HW1 3407  11.769   7.418   8.396  3.0052 -2.8958 -0.1569
32950SOL    HW2 3408  11.741   7.441   8.249 -0.4002  1.4964  0.9920
32951SOL     OW 3409  11.545   1.371   5.300 -0.3486 -0.0072  0.1244
32951SOL    HW1 3410  11.525   1.285   5.263  2.3767 -0.2511 -0.9956
32951SOL    HW2 3411  11.459   1.412   5.312 -1.7783 -2.9229  0.9333
32952SOL     OW 3412   9.387   3.663   4.410  0.0871 -0.4888 -0.1620
32952SOL    HW1 3413   9.465   3.620   4.375  0.1129 -1.6531  1.2416
32952SOL    HW2 3414   9.420   3.725   4.474 -0.0564  0.3925 -0.9202
32953SOL     OW 3415   4.592   3.097   8.297 -0.1579  0.4488 -0.2081
32953SOL    HW1 3416   4.557   3.088   8.385 -0.1988  1.4035 -0.1097
32953SOL    HW2 3417   4.684   3.074   8.305 -0.4697 -0.8823 -0.2237
32954SOL     OW 3418   3.533   2.110   1.640  0.1774 -0.0680  0.1686
32954SOL    HW1 3419   3.522   2.190   1.589 -1.6109 -0.4382 -0.1114
32954SOL    HW2 3420   3.561   2.045   1.576 -0.8510 -0.2361 -0.1378
32955SOL     OW 3421   1.531   2.039   6.482  0.2422 -0.1996  0.0344
32955SOL    HW1 3422   1.501   2.102   6.548  0.8124  0.6839 -0.5329
32955SOL    HW2 3423   1.492   2.070   6.400  0.2430 -0.7857 -0.1884
32956SOL     OW 3424   3.943   6.433   2.450 -0.6601  0.6130 -0.2698
32956SOL    HW1 3425   3.984   6.366   2.505 -0.1288  1.4753  0.4179
32956SOL    HW2 3426   3.850   6.412   2.452 -0.4262 -0.5116 -0.6456
32957SOL     OW 3427   9.211   7.888  10.353  0.2493 -0.3017  0.6051
32957SOL    HW1 3428   9.276   7.904  10.420 -0.4862 -1.1830  1.5582
32957SOL    HW2 3429   9.229   7.953  10.285  2.2544 -0.6995  0.7193
32958SOL     OW 3430  11.995   1.306   6.714  0.4040  0.4401  0.4530
32958SOL    HW1 3431  12.070   1.277   6.765  0.7579 -0.4688 -0.5539
32958SOL    HW2 3432  12.029   1.376   6.658  0.7587 -0.5804 -0.6587
32959SOL     OW 3433   3.038   9.816   8.138  0.1603 -0.2518 -0.4367
32959SOL    HW1 3434   3.035   9.743   8.199 -0.2436 -0.7814 -1.0720
32959SOL    HW2 3435   2.957   9.808   8.087 -0.0340  0.8107 -0.3188
32960SOL     OW 3436   0.486  11.889   1.030 -0.1190  0.3286 -0.4031
32960SOL    HW1 3437   0.525  11.850   1.108 -3.2690 -0.0877  1.1262
32960SOL    HW2 3438   0.407  11.932   1.062 -0.7372  1.4845 -3.1917
32961SOL     OW 3439   7.760   1.263   4.704 -0.1696  0.0765  0.1097
32961SOL    HW1 3440   7.741   1.261   4.610  1.7686  0.3578 -0.3332
32961SOL    HW2 3441   7.852   1.238   4.710 -0.5375 -1.0201  2.0499
32962SOL     OW 3442   5.696   1.658   5.210  0.2357  1.0737  0.1737
32962SOL    HW1 3443   5.696   1.636   5.303 -0.3242  0.4068  0.0249
32962SOL    HW2 3444   5.789   1.670   5.188  0.3831  1.0762  0.7786
32963SOL     OW 3445   0.037   3.396   8.040  0.4673 -1.0652  0.2642
32963SOL    HW1 3446   0.002   3.337   7.973 -2.3439  0.9638 -0.1901
32963SOL    HW2 3447   0.036   3.343   8.120 -2.1688 -1.6698 -0.0795
32964SOL     OW 3448  10.438   6.168   6.582 -0.4330  0.0382  0.0639
32964SOL    HW1 3449  10.366   6.113   6.550 -0.3027 -0.0854 -0.0172
32964SOL    HW2 3450  10.511   6.150   6.523 -0.5102  0.6050 -0.2034
32965SOL     OW 3451  11.587   3.226  10.540 -0.6648  0.7320  0.4969
32965SOL    HW1 3452  11.649   3.206  10.470 -0.6993 -0.3561  0.7546
32965SOL    HW2 3453  11.562   3.140  10.575 -0.0367  1.2785  2.3713
32966SOL     OW 3454  11.891   1.410   9.236  0.0858  0.2122  0.3892
32966SOL    HW1 3455  11.984   1.431   9.241 -0.0337  0.5666  1.4953
32966SOL    HW2 3456  11.869   1.416   9.143  0.7700  1.9070  0.3034
32967SOL     OW 3457   9.770  11.072   9.650  0.4147 -0.1230 -0.0172
32967SOL    HW1 3458   9.680  11.040   9.659  0.3968 -0.2896 -0.7554
32967SOL    HW2 3459   9.765  11.141   9.585  0.4083  1.6788  1.7865
32968SOL     OW 3460   8.891   0.366   7.995  0.1552 -0.2943 -0.0508
32968SOL    HW1 3461   8.858   0.363   8.085 -1.5164 -1.7879 -0.6577
32968SOL    HW2 3462   8.835   0.429   7.951  1.3890  0.9286  0.0649
32969SOL     OW 3463   2.254   3.248   7.816  0.1769  0.0662 -0.2501
32969SOL    HW1 3464   2.196   3.178   7.844 -0.0968 -0.3047 -1.6701
32969SOL    HW2 3465   2.320   3.253   7.885 -0.5285 -0.7075  0.5061
32970SOL     OW 3466   3.749   3.788  11.594 -0.2224  0.1674  0.0244
32970SOL    HW1 3467   3.788   3.794  11.506 -0.4710  1.7968 -0.0083
32970SOL    HW2 3468   3.803   3.844  11.648 -1.0611  0.5101  0.5295
32971SOL     OW 3469   6.994   4.430  11.937  0.3176  0.2797 -0.6749
32971SOL    HW1 3470   6.913   4.411  11.983  1.7079  0.1568  1.9275
32971SOL    HW2 3471   7.027   4.510  11.978  1.4623  0.4113 -1.7714
32972SOL     OW 3472  11.175   1.944   6.759 -0.1988  1.0256 -0.4549
32972SOL    HW1 3473  11.269   1.947   6.776 -0.2782  2.6281 -0.1380
32972SOL    HW2 3474  11.159   2.018   6.699 -1.2234  0.6342 -0.6887
32973SOL     OW 3475   7.614   9.919   3.612  0.0860  0.2310 -0.0523
32973SOL    HW1 3476   7.676   9.867   3.563  0.6868  0.3055  0.6147
32973SOL    HW2 3477   7.658  10.003   3.624  1.2232 -0.6888  3.1029
32974SOL     OW 3478   2.307   4.991   9.417  0.1501  0.2069 -0.3246
32974SOL    HW1 3479   2.278   4.913   9.463  2.1896 -0.6810 -0.4270
32974SOL    HW2 3480   2.334   4.960   9.331  3.4526  0.4395  0.4880
32975SOL     OW 3481   9.195   8.729   9.795  0.4589  0.6349  0.2392
32975SOL    HW1 3482   9.227   8.639   9.795  0.0943  0.5026  1.0009
32975SOL    HW2 3483   9.102   8.722   9.773 -0.0186  0.6470  2.1139
32976SOL     OW 3484   7.011  10.126   8.788 -0.0993  0.1722  0.0743
32976SOL    HW1 3485   6.998  10.220   8.780 -1.4387 -0.0367 -0.4058
32976SOL    HW2 3486   6.948  10.087   8.727  1.0330 -1.0204 -0.3821
32977SOL     OW 3487  10.710  11.049   3.833  0.2438 -0.2975 -0.3799
32977SOL    HW1 3488  10.745  10.961   3.818  1.1610 -0.1512  0.8132
32977SOL    HW2 3489  10.615  11.037   3.834  0.3680 -1.3277  0.1244
32978SOL     OW 3490   0.375   3.181   4.210 -0.4582  0.1735  0.0295
32978SOL    HW1 3491   0.295   3.145   4.171  0.1380 -1.2697  0.0538
32978SOL    HW2 3492   0.439   3.180   4.139  0.1730 -0.9051  0.5834
32979SOL     OW 3493   3.757   2.905   1.458 -0.6009 -0.1449 -0.3984
32979SOL    HW1 3494   3.720   2.917   1.371 -0.9878 -0.7895 -0.3314
32979SOL    HW2 3495   3.689   2.857   1.507 -0.7622  0.9809  0.5316
32980SOL     OW 3496  12.104   1.624   3.190 -0.1980  0.3302 -0.2878
32980SOL    HW1 3497  12.168   1.675   3.240  0.0438  0.6809 -0.9408
32980SOL    HW2 3498  12.042   1.689   3.157 -0.4047  0.0911 -0.3716
32981SOL     OW 3499   0.840   0.644   0.340  0.6118  0.3536 -0.0286
32981SOL    HW1 3500   0.922   0.613   0.303 -0.7388 -2.9922 -0.6135
32981SOL    HW2 3501   0.848   0.630   0.434  0.5426 -0.5393 -0.1458
32982SOL     OW 3502   7.093  11.664   7.103  0.4666 -0.3101 -0.2891
32982SOL    HW1 3503   7.145  11.700   7.175 -0.1011 -0.4804  0.2220
32982SOL    HW2 3504   7.154  11.611   7.052  1.0124  0.3005 -0.2809
32983SOL     OW 3505   0.219   6.975   4.329  0.1485  0.6894 -0.4621
32983SOL    HW1 3506   0.253   6.887   4.314  1.2801  1.3493 -2.0367
32983SOL    HW2 3507   0.181   7.001   4.245 -3.4604  0.3986  0.9313
32984SOL     OW 3508   0.663   4.091   8.153  0.1604  0.3704  0.1389
32984SOL    HW1 3509   0.678   3.997   8.163 -0.0866  0.1356 -1.3377
32984SOL    HW2 3510   0.724   4.118   8.084 -0.2231  1.1562  0.0951
32985SOL     OW 3511   8.772   2.282   3.230 -0.3185  0.0036 -0.0366
32985SOL    HW1 3512   8.838   2.346   3.205  0.0930 -1.1902 -2.2447
32985SOL    HW2 3513   8.792   2.263   3.322  1.5731  0.6685 -0.2501
32986SOL     OW 3514   2.632   9.373   9.597 -0.1917 -0.0757 -0.1920
32986SOL    HW1 3515   2.718   9.404   9.570  0.1696 -0.4453  0.4901
32986SOL    HW2 3516   2.601   9.437   9.661  0.5444 -1.0519  1.1968
32987SOL     OW 3517   2.875  11.860   8.726 -0.4874 -0.5448  0.7853
32987SOL    HW1 3518   2.786  11.828   8.743 -0.7928 -0.1669 -0.0701
32987SOL    HW2 3519   2.865  11.955   8.722  0.1225 -0.4374  1.6048
32988SOL     OW 3520   9.293   2.418  10.177 -0.0112 -0.2239  0.1792
32988SOL    HW1 3521   9.323   2.412  10.268 -0.6815  0.8449  0.4965
32988SOL    HW2 3522   9.246   2.335  10.162  0.0927 -0.4045  0.8096
32989SOL     OW 3523  11.377   2.495   6.498 -0.4085  0.5699 -0.8631
32989SOL    HW1 3524  11.434   2.418   6.493 -0.1083  0.7448 -0.2217
32989SOL    HW2 3525  11.422   2.561   6.446  0.3327  0.9195  0.1850
32990SOL     OW 3526   6.533   5.775  11.757  0.5204 -0.0320  0.4180
32990SOL    HW1 3527   6.555   5.827  11.835  2.2925  0.6002 -0.4447
32990SOL    HW2 3528   6.507   5.840  11.692 -0.6859 -0.5379  0.3618
32991SOL     OW 3529   4.517   4.071   3.859 -0.3583  0.2824  0.5107
32991SOL    HW1 3530   4.425   4.047   3.872 -0.7240  1.1917 -0.3477
32991SOL    HW2 3531   4.538   4.125   3.935 -0.8886  1.0401  0.1329
32992SOL     OW 3532   1.902   6.719   9.318 -0.1655 -0.2737 -0.2067
32992SOL    HW1 3533   1.873   6.702   9.228 -0.4392 -1.0549  0.0267
32992SOL    HW2 3534   1.929   6.634   9.352  1.3340  0.2487 -0.0242
32993SOL     OW 3535   1.899   3.992   2.267 -0.2656 -0.6383  0.2434
32993SOL    HW1 3536   1.884   3.897   2.271 -1.7154 -0.4600 -0.4185
32993SOL    HW2 3537   1.821   4.030   2.306  0.3719  0.3056  0.6428
32994SOL     OW 3538   7.126   2.026  11.381  0.3910 -0.1154 -0.5909
32994SOL    HW1 3539   7.043   2.069  11.401 -0.5471 -2.2932  0.5621
32994SOL    HW2 3540   7.101   1.944  11.339  2.0258 -0.4185 -1.0529
32995SOL     OW 3541   9.606   4.278   3.098  0.0235  0.2071  0.3813
32995SOL    HW1 3542   9.548   4.203   3.082  2.1768 -1.6107  0.5814
32995SOL    HW2 3543   9.614   4.320   3.012  1.3337 -1.8100 -0.5718
32996SOL     OW 3544   2.647   5.661   9.701  0.3243 -0.1399 -0.7269
32996SOL    HW1 3545   2.584   5.591   9.687  1.3182 -0.6657 -3.0673
32996SOL    HW2 3546   2.652   5.671   9.796  0.2372 -3.3419 -0.2791
32997SOL     OW 3547   2.363   4.822   6.677  0.2290 -0.2478  0.1547
32997SOL    HW1 3548   2.355   4.807   6.771 -0.4674 -2.5101 -0.1890
32997SOL    HW2 3549   2.457   4.830   6.662  0.3809 -0.3940  0.9879
32998SOL     OW 3550   4.815   2.637   7.127  0.0126 -0.3796 -0.2025
32998SOL    HW1 3551   4.780   2.679   7.049 -0.4510 -0.3178  0.0315
32998SOL    HW2 3552   4.847   2.709   7.181  0.9202 -0.4684 -0.6113
32999SOL     OW 3553   1.544   6.245  10.286 -0.2121 -0.0088 -0.3035
32999SOL    HW1 3554   1.558   6.321  10.230  3.1147  0.2989  0.6842
32999SOL    HW2 3555   1.540   6.281  10.375  2.8176 -0.9325  0.3271
33000SOL     OW 3556   6.076   7.051   3.586 -0.2591 -0.2076 -0.1145
33000SOL    HW1 3557   6.032   7.075   3.668  0.0107  1.4249 -0.4318
33000SOL    HW2 3558   6.132   6.977   3.610 -0.4976 -0.0236  1.0736
33001SOL     OW 3559   8.860   1.350   5.561  0.1999 -0.4939  0.1143
33001SOL    HW1 3560   8.787   1.413   5.556 -0.6614 -1.4166  0.7068
33001SOL    HW2 3561   8.874   1.323   5.471 -0.4789 -0.6069  0.0333
33002SOL     OW 3562   4.283   0.806  10.740  0.1319 -0.0075 -0.3459
33002SOL    HW1 3563   4.281   0.808  10.644 -1.6660  1.3511 -0.3280
33002SOL    HW2 3564   4.350   0.870  10.764  0.2035  0.0533 -0.6954
33003SOL     OW 3565  11.243   2.499   3.131  0.1199  0.6904 -0.3592
33003SOL    HW1 3566  11.275   2.460   3.049  1.3786 -0.7673  0.7497
33003SOL    HW2 3567  11.321   2.539   3.171  0.8332 -2.8650  2.3652
33004SOL     OW 3568   7.052   4.127   4.199 -0.2102 -0.7053  0.3254
33004SOL    HW1 3569   7.114   4.069   4.156 -0.0055 -0.3127  0.0802
33004SOL    HW2 3570   7.103   4.207   4.216 -0.4381 -0.6599  0.8068
33005SOL     OW 3571   0.921   8.780   0.961  0.3331  0.2311  0.3599
33005SOL    HW1 3572   0.964   8.718   0.902 -0.7810  0.9763 -1.3258
33005SOL    HW2 3573   0.856   8.728   1.008  0.2525 -0.1264 -0.1387
33006SOL     OW 3574  10.688  10.286   7.358  0.4419  0.2586 -0.5495
33006SOL    HW1 3575  10.646  10.212   7.402  0.8295  0.7746  0.7512
33006SOL    HW2 3576  10.772  10.251   7.327  1.1223  0.3706  1.0275
33007SOL     OW 3577   7.701   3.693   9.449 -0.5322  0.2439  0.3594
33007SOL    HW1 3578   7.644   3.734   9.383 -1.5539  0.2358  1.1985
33007SOL    HW2 3579   7.755   3.765   9.482 -0.2051  0.2991 -0.2858
33008SOL     OW 3580   9.081  11.033  11.625  0.2515  0.2139 -0.3199
33008SOL    HW1 3581   9.069  11.124  11.600  3.3526  0.5504 -1.0415
33008SOL    HW2 3582   9.141  11.037  11.700 -0.8683 -1.1996  0.6979
33009SOL     OW 3583   3.245   8.217  10.084  0.8542  0.3400 -0.3329
33009SOL    HW1 3584   3.297   8.143  10.055 -0.0239 -0.1703 -0.6552
33009SOL    HW2 3585   3.296   8.256  10.156  2.0319  0.3412 -1.1473
33010SOL     OW 3586   6.150   6.116   6.459 -0.2433  0.2280 -0.3877
33010SOL    HW1 3587   6.241   6.091   6.475 -0.2284  0.0618 -0.7384
33010SOL    HW2 3588   6.143   6.204   6.495 -0.7296 -0.8360  2.4013
33011SOL     OW 3589   6.945   4.793   8.368  0.4290 -0.2181  0.3219
33011SOL    HW1 3590   6.929   4.699   8.368  0.4888 -0.2342 -0.2705
33011SOL    HW2 3591   6.886   4.827   8.301  1.3419 -0.0076 -0.3934
33012SOL     OW 3592   0.434   5.751   7.759 -0.4008  0.0237 -0.1141
33012SOL    HW1 3593   0.520   5.761   7.719  0.4885 -1.4656  1.3037
33012SOL    HW2 3594   0.381   5.821   7.721  1.4273  0.9628 -1.0336
33013SOL     OW 3595   9.433   8.255  10.989  0.3678 -0.1310 -0.3177
33013SOL    HW1 3596   9.378   8.181  10.965 -1.1260  0.8041  0.0664
33013SOL    HW2 3597   9.517   8.216  11.014  0.0613 -1.5560 -1.4155
33014SOL     OW 3598   1.101   5.128  10.398 -0.5113  0.7109  0.2203
33014SOL    HW1 3599   1.170   5.165  10.343  1.3862  1.6603  3.0109
33014SOL    HW2 3600   1.127   5.036  10.409 -0.6569  0.6297 -0.1027
33015SOL     OW 3601   7.613   3.155   4.236  0.3037 -0.3817  0.2947
33015SOL    HW1 3602   7.704   3.172   4.214  0.2102  0.3606  0.4472
33015SOL    HW2 3603   7.563   3.190   4.161  0.0228  1.5135  1.2992
33016SOL     OW 3604  10.280  11.267   6.603 -0.0091 -0.1346 -0.1233
33016SOL    HW1 3605  10.264  11.307   6.689 -1.9905 -0.6824 -0.1778
33016SOL    HW2 3606  10.276  11.341   6.542 -0.3754  0.0384  0.0991
33017SOL     OW 3607   6.031   9.173   9.997  0.8713 -0.0830 -0.1305
33017SOL    HW1 3608   6.051   9.129  10.080  1.4202 -0.0097 -0.2231
33017SOL    HW2 3609   6.057   9.264  10.012 -0.8966  0.3934  0.2985
33018SOL     OW 3610   6.848   2.570   4.713 -0.5117 -0.4930  0.4488
33018SOL    HW1 3611   6.782   2.605   4.772 -0.5154 -0.6235  0.5229
33018SOL    HW2 3612   6.896   2.507   4.766  0.7470  0.7882  0.8781
33019SOL     OW 3613   9.625   8.414   8.037  0.6224 -0.0854  0.4076
33019SOL    HW1 3614   9.559   8.376   7.978  0.8659  1.4151 -0.8967
33019SOL    HW2 3615   9.706   8.368   8.015  1.1194  1.6781 -1.8182
33020SOL     OW 3616   7.617   5.238   8.097 -0.1838  0.2685  0.5072
33020SOL    HW1 3617   7.680   5.309   8.087  0.0025  0.1603  0.8838
33020SOL    HW2 3618   7.634   5.180   8.023 -0.3721  0.6408  0.1671
33021SOL     OW 3619   2.036  10.953  11.346  0.3569  0.0572  0.3213
33021SOL    HW1 3620   1.968  10.898  11.386  1.0975 -0.4777  0.8722
33021SOL    HW2 3621   2.075  10.897  11.278  1.9381 -0.6023  1.6884
33022SOL     OW 3622   2.212   0.718   4.758 -0.7074  0.4948  0.3415
33022SOL    HW1 3623   2.248   0.788   4.812 -1.9225 -0.3617  2.4161
33022SOL    HW2 3624   2.261   0.640   4.784  0.3225  0.4362 -1.6060
33023SOL     OW 3625   8.848   3.569  10.385 -0.0538 -0.5191  0.2495
33023SOL    HW1 3626   8.925   3.547  10.332 -0.6686 -0.3295 -0.7455
33023SOL    HW2 3627   8.817   3.651  10.349 -1.9511 -1.6231 -0.7923
33024SOL     OW 3628  11.312   4.700   0.772 -0.0362 -0.0952 -0.4263
33024SOL    HW1 3629  11.349   4.751   0.701  0.3002 -0.1604 -0.2982
33024SOL    HW2 3630  11.304   4.762   0.845  0.6002 -0.2774 -0.1938
33025SOL     OW 3631   0.658   6.709   7.447 -0.4820 -0.3515 -0.0032
33025SOL    HW1 3632   0.576   6.665   7.424  0.2550 -1.3506 -0.8434
33025SOL    HW2 3633   0.631   6.786   7.495 -1.9622 -0.2582 -0.9098
33026SOL     OW 3634   8.566  10.816   2.673  0.5631  0.4048  0.1330
33026SOL    HW1 3635   8.606  10.766   2.744  1.3774  2.3311  1.1034
33026SOL    HW2 3636   8.614  10.791   2.595  0.5988 -0.6879  0.4895
33027SOL     OW 3637   3.043   5.297   6.583  0.7161  0.9640  0.2109
33027SOL    HW1 3638   3.036   5.201   6.588  0.0908  0.9989 -0.0166
33027SOL    HW2 3639   3.125   5.317   6.629  1.7532  0.1802 -1.1979
33028SOL     OW 3640   9.326  11.634  10.614  0.5201  0.1988 -0.2915
33028SOL    HW1 3641   9.371  11.643  10.698 -1.9693 -0.4848  1.2394
33028SOL    HW2 3642   9.326  11.540  10.596  0.8329  0.3187 -0.9372
33029SOL     OW 3643   1.008   9.947   5.879 -0.0592  0.4038 -0.2653
33029SOL    HW1 3644   0.932   9.965   5.824  0.1088 -0.1440 -0.6813
33029SOL    HW2 3645   0.983   9.980   5.965 -1.7038 -1.7943  0.2018
33030SOL     OW 3646  11.447   6.710  11.899  0.1137  0.1510  0.0465
33030SOL    HW1 3647  11.424   6.646  11.832  1.5697 -0.0718 -0.2709
33030SOL    HW2 3648  11.502   6.662  11.960 -1.4397  0.2660  1.6197
33031SOL     OW 3649   3.862   1.876   8.930  0.0688 -0.5435  0.0143
33031SOL    HW1 3650   3.922   1.949   8.944 -0.2417 -0.6348  2.0724
33031SOL    HW2 3651   3.870   1.823   9.009 -0.5368 -2.1663 -0.9593
33032SOL     OW 3652   7.469   1.428  10.385  0.2743 -0.1191 -0.0867
33032SOL    HW1 3653   7.379   1.397  10.396  0.6474 -1.2848 -0.0853
33032SOL    HW2 3654   7.470   1.516  10.422 -0.5745 -0.5643  1.0312
33033SOL     OW 3655   7.742   2.926   5.937  0.7623  0.2211  0.1948
33033SOL    HW1 3656   7.734   2.879   5.854  2.3663  0.4386 -0.1212
33033SOL    HW2 3657   7.837   2.931   5.953  0.5348  1.3173  1.3779
33034SOL     OW 3658   6.179   8.741   4.122  0.0358  0.0165  0.5174
33034SOL    HW1 3659   6.239   8.808   4.155  0.6320  0.2281 -0.8998
33034SOL    HW2 3660   6.185   8.669   4.185  1.9054 -0.0278  0.3507
33035SOL     OW 3661  10.755   7.726   2.430  0.1342 -0.4506 -0.1028
33035SOL    HW1 3662  10.844   7.757   2.446 -0.2242 -0.1327  1.3950
33035SOL    HW2 3663  10.767   7.643   2.384  1.1830 -0.1506 -0.4116
33036SOL     OW 3664   8.416   1.960   0.583  0.0395  0.0037 -0.1860
33036SOL    HW1 3665   8.487   1.897   0.595 -0.3673 -0.4705 -0.2372
33036SOL    HW2 3666   8.348   1.911   0.536 -0.9078  0.0253  1.1145
33037SOL     OW 3667   7.376   6.380  10.194  0.5577 -0.2351 -0.0701
33037SOL    HW1 3668   7.344   6.291  10.211  0.1085  0.1335  1.0963
33037SOL    HW2 3669   7.369   6.425  10.278  1.7258  0.6272 -0.4055
33038SOL     OW 3670  10.593   6.084   3.654 -0.3969 -0.0267  0.2068
33038SOL    HW1 3671  10.637   6.013   3.700 -0.1238 -0.6752 -1.0260
33038SOL    HW2 3672  10.499   6.065   3.665 -0.3771  0.5922  1.6422
33039SOL     OW 3673  11.697  10.524   5.905  0.6025  0.2868  0.1744
33039SOL    HW1 3674  11.685  10.590   5.837 -3.7439  1.5453  1.7856
33039SOL    HW2 3675  11.732  10.573   5.980 -2.0060  0.8494  1.1571
33040SOL     OW 3676   6.115   9.670   9.654 -0.6823 -0.0834  0.2465
33040SOL    HW1 3677   6.078   9.672   9.743 -1.3959  0.1074 -0.0429
33040SOL    HW2 3678   6.131   9.762   9.633 -0.5047 -0.1292  0.1786
33041SOL     OW 3679   8.286  10.387   0.526  0.1171  0.4421 -0.1729
33041SOL    HW1 3680   8.363  10.389   0.583 -0.4069  3.3280  0.6184
33041SOL    HW2 3681   8.320  10.402   0.438  0.6491 -0.7675 -0.1818
33042SOL     OW 3682   5.279  10.726   6.304 -0.0310  0.2820  0.2731
33042SOL    HW1 3683   5.283  10.630   6.306 -0.2297  0.2531 -0.6674
33042SOL    HW2 3684   5.320  10.751   6.222 -0.1565  1.0018  0.4202
33043SOL     OW 3685   4.277   3.616   2.080  0.2971  0.1461  0.1747
33043SOL    HW1 3686   4.347   3.562   2.118 -0.5167 -0.1292  1.3417
33043SOL    HW2 3687   4.289   3.607   1.986  1.2478 -0.6683  0.3484
33044SOL     OW 3688   1.734   2.325   5.942  0.2442  0.1653 -0.0084
33044SOL    HW1 3689   1.643   2.353   5.947 -0.2161 -1.2242 -0.0305
33044SOL    HW2 3690   1.734   2.238   5.982  1.4107 -0.1734 -0.7003
33045SOL     OW 3691   7.206   2.651   5.604  0.2147 -0.1476 -0.1356
33045SOL    HW1 3692   7.164   2.649   5.690  2.2257 -1.2648  0.9119
33045SOL    HW2 3693   7.214   2.744   5.583  1.0339  0.2236  1.6396
33046SOL     OW 3694   8.263  10.459   8.686  0.4785 -0.1134  0.6167
33046SOL    HW1 3695   8.277  10.365   8.686  1.1024 -0.0264  1.3356
33046SOL    HW2 3696   8.347  10.496   8.713  1.2281  0.8096 -2.4782
33047SOL     OW 3697   7.165  10.178  10.848 -0.2439 -0.8390 -0.1965
33047SOL    HW1 3698   7.163  10.258  10.795 -0.6299 -1.9916 -2.0300
33047SOL    HW2 3699   7.210  10.114  10.793 -0.4044 -2.0311  1.0118
33048SOL     OW 3700   7.872   8.259   9.756 -0.0880 -0.5079 -0.2875
33048SOL    HW1 3701   7.824   8.212   9.824  1.5146 -0.5235  0.8931
33048SOL    HW2 3702   7.925   8.191   9.714 -1.7338 -0.6851 -2.2550
33049SOL     OW 3703  10.778   0.174   2.948  0.3901 -0.5623  0.7532
33049SOL    HW1 3704  10.838   0.184   3.022  0.2722 -0.8564  0.8887
33049SOL    HW2 3705  10.828   0.124   2.883  1.3117  1.5746 -0.2973
33050SOL     OW 3706   5.548   9.539   9.653 -0.1090  0.1483  0.5689
33050SOL    HW1 3707   5.603   9.616   9.638 -0.2622  0.2559  0.5626
33050SOL    HW2 3708   5.529   9.540   9.747  0.6220 -0.3739  0.7354
33051SOL     OW 3709   9.101   3.222   9.796 -0.2164  0.1126  0.1144
33051SOL    HW1 3710   9.179   3.166   9.795  0.2270  0.7246 -0.3610
33051SOL    HW2 3711   9.133   3.307   9.826 -0.7688  0.2862  0.2222
33052SOL     OW 3712   5.799   6.586   6.663  0.1013 -0.5048  0.3927
33052SOL    HW1 3713   5.868   6.647   6.689  1.6517 -1.5478 -1.0129
33052SOL    HW2 3714   5.821   6.504   6.707 -0.4334 -0.7622  0.1927
33053SOL     OW 3715   0.267  11.888   2.795 -0.1567  0.3760 -0.0479
33053SOL    HW1 3716   0.354  11.862   2.763  0.7506  1.9316  1.0660
33053SOL    HW2 3717   0.249  11.971   2.751 -1.2052 -0.0435 -0.4427
33054SOL     OW 3718   4.120  10.097   0.873  0.3141  0.0821 -0.0750
33054SOL    HW1 3719   4.140  10.052   0.955  0.4607 -0.5391 -0.4500
33054SOL    HW2 3720   4.055  10.041   0.830  0.3590  0.3177 -0.4557
33055SOL     OW 3721   8.391   6.284   7.713  0.4064  0.1005 -0.1467
33055SOL    HW1 3722   8.392   6.348   7.784 -2.0215  0.6302 -0.5030
33055SOL    HW2 3723   8.431   6.206   7.751 -1.5660  0.0965  2.1577
33056SOL     OW 3724   2.442   3.299   4.875  0.1859 -0.0372 -0.2402
33056SOL    HW1 3725   2.507   3.336   4.935 -0.8751 -0.2955  1.1286
33056SOL    HW2 3726   2.378   3.256   4.932 -1.1629  0.1499 -1.5328
33057SOL     OW 3727   5.065   4.193   9.621 -0.3180  0.0807 -0.1911
33057SOL    HW1 3728   5.042   4.167   9.532 -0.7038  1.6018 -0.5636
33057SOL    HW2 3729   5.128   4.264   9.609 -0.4978  0.4073  0.7446
33058SOL     OW 3730   3.702   4.378   9.570  0.7166 -0.5911 -0.0020
33058SOL    HW1 3731   3.628   4.373   9.510  0.2870 -1.1298  0.5676
33058SOL    HW2 3732   3.775   4.405   9.514  0.2154 -0.5619 -0.6667
33059SOL     OW 3733   3.132   5.967   5.229  0.2033 -0.0229 -0.3513
33059SOL    HW1 3734   3.074   6.012   5.167 -0.5445 -0.7394 -0.1939
33059SOL    HW2 3735   3.197   5.923   5.175 -0.5582 -0.7983 -0.6586
33060SOL     OW 3736   4.684   5.897   4.827 -0.1768 -0.0560 -0.1957
33060SOL    HW1 3737   4.614   5.889   4.762 -0.7129 -2.3936  0.5639
33060SOL    HW2 3738   4.763   5.869   4.782 -0.4257 -0.9948 -0.0825
33061SOL     OW 3739   5.082   9.511   6.722 -0.3658 -0.3386  0.1742
33061SOL    HW1 3740   5.137   9.589   6.714  0.1271 -0.6739  0.2080
33061SOL    HW2 3741   4.998   9.537   6.685 -1.8026  1.6996  4.2111
33062SOL     OW 3742   8.429   7.101   2.853 -0.2003 -0.3346  0.0955
33062SOL    HW1 3743   8.348   7.132   2.814  0.3325 -0.9974 -1.6201
33062SOL    HW2 3744   8.405   7.022   2.900 -0.4235 -1.0299 -1.1527
33063SOL     OW 3745   1.639  11.071   0.631 -0.3619  0.0336  0.4135
33063SOL    HW1 3746   1.589  11.117   0.699  1.4625  2.4702  0.2289
33063SOL    HW2 3747   1.575  11.057   0.560 -1.1278  1.9356  0.6703
33064SOL     OW 3748   3.082  11.396   4.166 -0.6116 -0.1341  0.4842
33064SOL    HW1 3749   3.171  11.381   4.198 -0.7270  1.8021  1.9381
33064SOL    HW2 3750   3.055  11.478   4.209 -4.1118 -2.0192  2.3105
33065SOL     OW 3751   7.355   1.962   5.544  0.7063  0.1613 -0.3421
33065SOL    HW1 3752   7.433   1.924   5.585 -0.1434 -2.0451 -0.6492
33065SOL    HW2 3753   7.370   1.952   5.450  1.1272  2.0689 -0.5241
33066SOL     OW 3754   1.617   0.067   5.041 -0.1535 -0.0626  0.4076
33066SOL    HW1 3755   1.674   0.116   4.982  0.1768 -1.3546 -0.3813
33066SOL    HW2 3756   1.571   0.006   4.984 -2.2219  0.8077  1.0488
33067SOL     OW 3757   2.776   3.211   1.861  0.1431  0.2937  0.7711
33067SOL    HW1 3758   2.696   3.250   1.827  0.3856 -1.1350 -1.6997
33067SOL    HW2 3759   2.746   3.132   1.906  0.1514 -1.3269 -1.8381
33068SOL     OW 3760   3.232   7.055   9.926  0.0528 -0.4617  0.2450
33068SOL    HW1 3761   3.214   7.106   9.847 -1.4557 -1.1598  0.1141
33068SOL    HW2 3762   3.228   6.964   9.897 -3.3360 -0.8754  1.5668
33069SOL     OW 3763   5.400   8.194   2.585  0.2774 -0.3487  0.6557
33069SOL    HW1 3764   5.409   8.183   2.679  0.0146  2.0773  1.0444
33069SOL    HW2 3765   5.378   8.287   2.574  1.5416 -0.2533 -1.8604
33070SOL     OW 3766   7.809  12.109   6.257 -0.0102  0.5978 -0.4066
33070SOL    HW1 3767   7.737  12.073   6.207  0.5668  0.9014 -1.4977
33070SOL    HW2 3768   7.787  12.091   6.348 -1.3907  0.5845 -0.7233
33071SOL     OW 3769   8.850   0.957  10.071  0.3546  0.0005  0.6308
33071SOL    HW1 3770   8.914   1.028  10.062  0.7972 -0.5295 -0.5836
33071SOL    HW2 3771   8.803   0.957   9.988  2.1616 -2.8109 -0.5257
33072SOL     OW 3772   6.121   6.048   2.033 -0.3603  0.1833  1.0528
33072SOL    HW1 3773   6.114   6.139   2.005  0.0602 -0.0875  0.0291
33072SOL    HW2 3774   6.096   6.049   2.125 -1.5609  1.1496  0.7414
33073SOL     OW 3775   2.398   8.473   6.363  0.0830  0.0587 -0.4358
33073SOL    HW1 3776   2.327   8.531   6.392 -0.2578 -0.1009 -0.9348
33073SOL    HW2 3777   2.366   8.436   6.281  0.0722 -1.2384  0.1385
33074SOL     OW 3778   6.443  11.831   1.903  0.3131  0.2121 -0.8849
33074SOL    HW1 3779   6.531  11.794   1.906  0.0911 -0.3004  2.4650
33074SOL    HW2 3780   6.389  11.761   1.866  1.2787  0.7769 -3.6607
33075SOL     OW 3781   6.290  11.174   1.079 -0.0407  0.5844 -0.5358
33075SOL    HW1 3782   6.275  11.261   1.115  1.1840  0.1378  1.1460
33075SOL    HW2 3783   6.383  11.158   1.091 -0.2439 -0.9830 -0.7999
33076SOL     OW 3784   3.879   7.962   4.721 -0.2244  0.0503 -0.2984
33076SOL    HW1 3785   3.971   7.968   4.694  0.4778  1.5957  2.1208
33076SOL    HW2 3786   3.830   7.956   4.638  1.9316  1.0851 -1.7416
33077SOL     OW 3787   5.397   1.180  11.911  0.3354  0.2417 -0.4942
33077SOL    HW1 3788   5.337   1.225  11.971  0.1012 -0.4836 -0.1646
33077SOL    HW2 3789   5.344   1.109  11.874  0.4024  0.8109 -1.7545
33078SOL     OW 3790   6.332   6.203   5.162  0.1070 -0.4354 -0.0130
33078SOL    HW1 3791   6.269   6.275   5.172  0.2067 -0.2428 -0.6640
33078SOL    HW2 3792   6.417   6.243   5.182  0.0686 -0.5947  0.4765
33079SOL     OW 3793   9.888   0.955   5.065  0.1575 -0.3069  0.0091
33079SOL    HW1 3794   9.861   1.024   5.003 -2.1021 -1.1591 -0.0394
33079SOL    HW2 3795   9.852   0.875   5.028 -1.1843 -0.8646  2.3720
33080SOL     OW 3796   9.769   1.813   2.703 -0.3510  0.0677 -0.0178
33080SOL    HW1 3797   9.693   1.771   2.662 -1.0251 -0.5032  1.7191
33080SOL    HW2 3798   9.732   1.875   2.765  0.6091  0.3135  0.3272
33081SOL     OW 3799  12.010   9.588   4.823  0.3070  0.0644  0.0511
33081SOL    HW1 3800  12.099   9.621   4.836  0.0985  0.3197  0.9413
33081SOL    HW2 3801  12.017   9.529   4.748  1.0903  0.5960 -0.3084
33082SOL     OW 3802   3.168   8.935   5.457 -0.0440 -0.5217  0.2637
33082SOL    HW1 3803   3.202   8.983   5.532 -0.8339 -0.4884  0.6114
33082SOL    HW2 3804   3.155   8.846   5.489  0.5585 -0.7575 -0.1244
33083SOL     OW 3805   2.251   1.694   6.391  0.5899 -0.1991  0.2439
33083SOL    HW1 3806   2.168   1.741   6.387  0.0291 -1.2153 -1.7807
33083SOL    HW2 3807   2.293   1.712   6.307  1.8236 -0.7441  0.7140
33084SOL     OW 3808   0.501   8.051   6.746 -0.2010 -0.4861  0.0855
33084SOL    HW1 3809   0.501   8.124   6.807  0.2742 -1.2447  1.0240
33084SOL    HW2 3810   0.579   8.065   6.692  1.3742 -1.6055  1.9323
33085SOL     OW 3811   6.079   2.902   1.379  0.2721 -0.2444 -0.0282
33085SOL    HW1 3812   6.060   2.830   1.319  2.2276 -1.6059  0.8480
33085SOL    HW2 3813   6.066   2.864   1.466 -2.1169  1.5659  0.5015
33086SOL     OW 3814   4.535   2.315   3.708 -0.6491 -0.0745 -0.4234
33086SOL    HW1 3815   4.499   2.307   3.796 -1.6748 -0.0078 -0.8305
33086SOL    HW2 3816   4.620   2.357   3.721 -0.3350 -1.0036  0.6213
33087SOL     OW 3817   7.579   5.837   0.714  0.7078 -0.3186  0.4403
33087SOL    HW1 3818   7.562   5.789   0.794 -0.0129 -0.2350  0.3428
33087SOL    HW2 3819   7.646   5.786   0.669 -0.1480 -1.3180  0.2743
33088SOL     OW 3820  11.206   8.158   9.000  0.2540 -0.7568  0.3631
33088SOL    HW1 3821  11.172   8.209   8.927  0.2060 -2.0890 -0.5909
33088SOL    HW2 3822  11.225   8.222   9.068  0.2569  0.5186 -0.7979
33089SOL     OW 3823   7.618   0.505   0.150 -0.0203 -0.2866  0.1115
33089SOL    HW1 3824   7.675   0.577   0.178 -0.8742  1.2574 -1.8895
33089SOL    HW2 3825   7.673   0.427   0.158  1.0661  0.5979  1.9742
33090SOL     OW 3826   0.893   9.607   5.578 -0.5949 -0.1500 -0.1539
33090SOL    HW1 3827   0.810   9.653   5.565 -0.8290 -0.7284 -0.7805
33090SOL    HW2 3828   0.959   9.663   5.537 -0.4556  0.9739  1.5093
33091SOL     OW 3829   3.084  11.772   5.451  0.4683  0.0665 -0.3311
33091SOL    HW1 3830   2.993  11.744   5.440 -0.4623  2.4137  0.7685
33091SOL    HW2 3831   3.118  11.717   5.522 -0.8467  0.6914  0.8282
33092SOL     OW 3832   7.094   1.866   9.817  0.4473  0.0296 -0.1461
33092SOL    HW1 3833   7.071   1.783   9.859 -1.3078  1.0058  0.9247
33092SOL    HW2 3834   7.023   1.926   9.840  1.4290  1.7285 -1.2708
33093SOL     OW 3835   6.042  11.224  10.342  0.4942 -0.5216  0.2821
33093SOL    HW1 3836   6.012  11.306  10.380 -1.1389 -1.6314  1.5364
33093SOL    HW2 3837   6.094  11.183  10.411  2.1893 -0.1335 -0.6987
33094SOL     OW 3838   4.062   6.675   7.034 -0.2015 -0.0661 -0.4623
33094SOL    HW1 3839   4.053   6.686   7.129  2.2600  0.3650 -0.1967
33094SOL    HW2 3840   3.974   6.653   7.004 -1.4585  1.6793  1.6435
33095SOL     OW 3841   4.901   2.719  11.261  0.1492 -0.0540 -0.2851
33095SOL    HW1 3842   4.876   2.765  11.341 -1.3555 -0.6321 -0.3731
33095SOL    HW2 3843   4.993   2.699  11.273  0.2730  0.9883  0.7398
33096SOL     OW 3844   2.109   4.834   5.767 -0.0073 -0.0600 -0.4454
33096SOL    HW1 3845   2.194   4.800   5.741 -0.1551 -0.2070 -0.7387
33096SOL    HW2 3846   2.103   4.816   5.861 -0.4829 -1.6983 -0.7715
33097SOL     OW 3847   2.334   3.724   8.135  0.2851  0.1683 -0.5452
33097SOL    HW1 3848   2.424   3.748   8.114  0.0346  3.1552  1.1489
33097SOL    HW2 3849   2.282   3.754   8.060  0.6047 -1.3618 -1.4246
33098SOL     OW 3850   0.357   8.618   0.169 -0.2476  0.1086  0.0387
33098SOL    HW1 3851   0.429   8.562   0.199  1.4771  1.7038 -0.8461
33098SOL    HW2 3852   0.286   8.602   0.231  1.5097 -0.1830  2.1073
33099SOL     OW 3853   8.539   2.198   5.141  0.4090  0.3909 -0.4741
33099SOL    HW1 3854   8.522   2.284   5.180 -2.1016 -0.9104  1.6284
33099SOL    HW2 3855   8.462   2.181   5.087 -0.5590 -1.5876  1.3539
33100SOL     OW 3856   4.741   3.688   0.645 -0.1746  0.6681  0.0761
33100SOL    HW1 3857   4.729   3.595   0.665  0.1228  0.6447  0.1548
33100SOL    HW2 3858   4.833   3.705   0.666 -0.2837  1.0324  0.2770
33101SOL     OW 3859   8.807   7.425   3.336  0.0785  0.1850  0.0701
33101SOL    HW1 3860   8.737   7.490   3.327  0.2479  0.4337  0.5293
33101SOL    HW2 3861   8.781   7.373   3.412 -0.7899 -1.2108 -1.1021
33102SOL     OW 3862   2.914  10.501   9.845  0.5471 -0.1306 -0.2521
33102SOL    HW1 3863   2.889  10.441   9.915 -0.1354  0.1673 -0.2347
33102SOL    HW2 3864   2.989  10.459   9.803  0.5597 -0.6183  0.2504
33103SOL     OW 3865  11.459   8.897   4.159  0.3640  0.5782 -0.0181
33103SOL    HW1 3866  11.416   8.813   4.141  1.6404 -0.2492  0.6708
33103SOL    HW2 3867  11.536   8.874   4.210  0.2255  2.2666  1.0330
33104SOL     OW 3868   6.136   8.966  11.255 -0.3111 -0.5981 -0.1958
33104SOL    HW1 3869   6.198   8.910  11.208  0.2792  0.3865 -0.6171
33104SOL    HW2 3870   6.187   9.006  11.326 -0.5630 -0.1298 -0.2695
33105SOL     OW 3871   5.531   1.509   6.709 -0.1147 -0.1867  0.5194
33105SOL    HW1 3872   5.581   1.571   6.657 -1.3033 -1.8063 -2.8009
33105SOL    HW2 3873   5.446   1.550   6.720  0.0935  0.0964  1.1456
33106SOL     OW 3874   4.012   8.964   1.510 -0.5014 -0.2100 -0.1226
33106SOL    HW1 3875   4.082   9.029   1.512 -0.3418 -0.3029 -1.5344
33106SOL    HW2 3876   3.934   9.012   1.482 -0.4714 -0.5311 -0.7838
33107SOL     OW 3877   0.881   3.763   0.170 -0.3229  0.3791  0.2056
33107SOL    HW1 3878   0.930   3.697   0.219  0.3052  0.7544  0.0941
33107SOL    HW2 3879   0.803   3.717   0.138 -0.0516 -0.2185  0.4011
33108SOL     OW 3880   0.049  10.543   5.555  0.3528  0.6975  0.4780
33108SOL    HW1 3881   0.046  10.451   5.531  4.7015  0.9075 -1.9072
33108SOL    HW2 3882   0.034  10.544   5.650  2.7844 -2.8213  1.0865
33109SOL     OW 3883   8.524   4.973   7.373  0.2726  0.7047 -0.3141
33109SOL    HW1 3884   8.602   4.996   7.322 -0.4020  1.1650 -1.1677
33109SOL    HW2 3885   8.546   4.889   7.414  0.6051 -0.0286 -1.9205
33110SOL     OW 3886   8.045   0.236   2.898  0.0271  0.0432 -0.2786
33110SOL    HW1 3887   8.001   0.303   2.950  0.7621 -0.8480  1.5662
33110SOL    HW2 3888   8.017   0.253   2.808 -2.7955  0.4616  0.6016
33111SOL     OW 3889  12.071   8.550   7.823  0.2799 -0.0100 -0.3076
33111SOL    HW1 3890  12.011   8.566   7.749 -1.5701 -0.0751  1.0996
33111SOL    HW2 3891  12.113   8.467   7.802 -0.8373 -0.4486 -0.9298
33112SOL     OW 3892   9.131   4.406   3.738 -0.4466 -0.7334  0.0197
33112SOL    HW1 3893   9.207   4.456   3.767 -0.5601 -0.8998  0.6203
33112SOL    HW2 3894   9.085   4.384   3.819 -2.3636  1.2625 -0.4472
33113SOL     OW 3895   9.142   4.147   0.052 -0.2609 -0.6149  0.4218
33113SOL    HW1 3896   9.076   4.079   0.070  0.4126 -1.2300  0.6075
33113SOL    HW2 3897   9.226   4.100   0.054  0.0543 -0.2936 -2.0327
33114SOL     OW 3898   6.141   7.023   4.043  0.6537 -0.3400 -0.2908
33114SOL    HW1 3899   6.145   7.056   4.133  1.1353  0.1823 -0.4948
33114SOL    HW2 3900   6.204   6.951   4.041  0.6143 -0.3765 -0.1982
33115SOL     OW 3901   1.526   9.724   2.986  0.0259 -0.5609 -0.4377
33115SOL    HW1 3902   1.454   9.742   2.926 -0.5117  1.9596  0.8487
33115SOL    HW2 3903   1.484   9.699   3.068  0.6400 -0.3618 -0.0508
33116SOL     OW 3904   1.312   9.374   0.623 -0.1345 -0.0350 -0.1955
33116SOL    HW1 3905   1.351   9.387   0.537 -1.3891  1.6882 -0.5638
33116SOL    HW2 3906   1.350   9.443   0.677  1.0796 -1.4470  0.8415
33117SOL     OW 3907   2.504  11.358   8.138 -0.3254  0.2273  0.2773
33117SOL    HW1 3908   2.598  11.372   8.131 -0.2064 -0.7640 -0.1784
33117SOL    HW2 3909   2.466  11.430   8.087  0.2486 -0.3534 -1.0336
33118SOL     OW 3910   9.753  11.474   2.101  0.5258  0.1846 -0.5162
33118SOL    HW1 3911   9.723  11.387   2.128 -0.1691  0.8400  0.9606
33118SOL    HW2 3912   9.766  11.467   2.007 -2.1159 -0.8206 -0.8945
33119SOL     OW 3913   1.630   4.298   6.353  0.0281 -0.4970  0.0392
33119SOL    HW1 3914   1.678   4.242   6.414  0.3873 -0.3007 -0.0598
33119SOL    HW2 3915   1.615   4.243   6.276 -0.5985 -0.8084  0.3761
33120SOL     OW 3916   5.394   8.912   8.181 -0.4286 -0.1360 -0.0845
33120SOL    HW1 3917   5.427   8.823   8.196 -1.1532 -0.2766  0.7212
33120SOL    HW2 3918   5.473   8.966   8.177 -0.0401 -0.4898  1.6837
33121SOL     OW 3919   0.606   1.463   1.352  0.5417 -0.1859  0.0296
33121SOL    HW1 3920   0.595   1.389   1.292 -0.0384 -0.6920  0.7534
33121SOL    HW2 3921   0.521   1.472   1.395  1.2355 -0.4441  1.4803
33122SOL     OW 3922  10.109  11.031   0.348 -0.0545  0.0298 -0.0138
33122SOL    HW1 3923  10.108  10.941   0.378  1.4468 -0.2549 -0.7292
33122SOL    HW2 3924  10.200  11.048   0.326 -0.1974  1.9229  0.6750
33123SOL     OW 3925  10.052   6.430   7.166  0.5371 -0.2330  0.5881
33123SOL    HW1 3926  10.050   6.401   7.075  1.3118  2.5892 -0.4486
33123SOL    HW2 3927  10.143   6.418   7.193  0.2023 -1.5231  1.1825
33124SOL     OW 3928   9.277   8.698   6.968  0.8327  0.4179  0.2997
33124SOL    HW1 3929   9.253   8.608   6.945  1.2329 -0.1769  2.0104
33124SOL    HW2 3930   9.269   8.747   6.886  1.1653 -1.2911 -0.8154
33125SOL     OW 3931  10.965   2.511   3.129 -0.2080 -0.0299 -0.3339
33125SOL    HW1 3932  11.055   2.538   3.146 -0.6161  0.9953  0.3125
33125SOL    HW2 3933  10.951   2.534   3.037 -0.0879  0.6530 -0.1881
33126SOL     OW 3934  11.703  10.345   8.647  0.2294  0.1360 -0.2779
33126SOL    HW1 3935  11.645  10.275   8.618  0.2557  0.3054 -0.7475
33126SOL    HW2 3936  11.784  10.300   8.672 -0.7456 -0.3548  2.3704
33127SOL     OW 3937   7.643  11.366   8.252  0.8618  0.2655  0.2272
33127SOL    HW1 3938   7.632  11.450   8.296 -0.7910  0.4803 -0.5045
33127SOL    HW2 3939   7.678  11.388   8.166 -4.1364  0.9402 -2.0135
33128SOL     OW 3940   9.579   0.670   1.341  0.0660 -0.3651  0.5709
33128SOL    HW1 3941   9.523   0.737   1.381  0.0727 -0.5569  0.9039
33128SOL    HW2 3942   9.664   0.714   1.330 -0.0950 -0.1352  0.2461
33129SOL     OW 3943   0.143   4.804   7.472  0.1077 -0.1319  0.1031
33129SOL    HW1 3944   0.074   4.741   7.493 -0.1195  0.3711  0.9266
33129SOL    HW2 3945   0.207   4.754   7.421  0.0020 -1.0649  0.8562
33130SOL     OW 3946   7.873  10.735   4.363 -0.1135 -0.0502 -0.1827
33130SOL    HW1 3947   7.933  10.662   4.379 -0.8086 -0.7012 -0.4763
33130SOL    HW2 3948   7.819  10.705   4.290 -2.4409 -0.5225  1.6234
33131SOL     OW 3949   6.187   9.384  10.071  0.1540 -0.1161  0.1109
33131SOL    HW1 3950   6.184   9.412  10.163  1.9820  0.6079  0.0037
33131SOL    HW2 3951   6.261   9.432  10.034 -0.1878 -0.8340 -1.6078
33132SOL     OW 3952   3.537   4.625   3.905 -0.6260  0.0427  0.8003
33132SOL    HW1 3953   3.605   4.686   3.875 -0.6002 -0.3767 -0.0230
33132SOL    HW2 3954   3.532   4.639   3.999 -0.8485  1.5552  0.5816
33133SOL     OW 3955   4.354   7.897   5.288 -0.2675 -0.2640 -0.2291
33133SOL    HW1 3956   4.383   7.887   5.379  1.6470 -2.6297 -0.9879
33133SOL    HW2 3957   4.433   7.918   5.239 -0.9760 -0.5688 -1.5728
33134SOL     OW 3958  10.658   2.056   7.315  0.5932  0.0350  0.7057
33134SOL    HW1 3959  10.622   2.124   7.257 -1.9167 -0.8275  1.1347
33134SOL    HW2 3960  10.728   2.017   7.264  0.4334  1.2828 -0.5537
33135SOL     OW 3961  10.187   9.797  10.378  0.5351  0.6499 -0.0292
33135SOL    HW1 3962  10.195   9.882  10.335 -0.2155 -0.5122 -2.6397
33135SOL    HW2 3963  10.174   9.819  10.470 -2.0904  3.4700 -0.9008
33136SOL     OW 3964   4.793  11.709   9.631 -0.1924  0.3838 -0.3937
33136SOL    HW1 3965   4.783  11.614   9.641  0.9447  0.4049  1.3514
33136SOL    HW2 3966   4.709  11.744   9.660 -0.3769 -0.0642 -0.3692
33137SOL     OW 3967   5.127   7.957   2.953 -0.1450  0.0411 -0.0467
33137SOL    HW1 3968   5.114   8.052   2.948 -2.7285 -0.0974  1.8950
33137SOL    HW2 3969   5.099   7.924   2.868  1.5924  1.0075 -1.0570
33138SOL     OW 3970   5.817   3.531   3.666  0.3075 -0.6350  0.0443
33138SOL    HW1 3971   5.735   3.504   3.707  0.5265 -1.0941  0.1952
33138SOL    HW2 3972   5.864   3.448   3.650  0.0760 -0.5095 -1.4583
33139SOL     OW 3973   2.448   2.848  11.232  0.1198  0.0153  0.0175
33139SOL    HW1 3974   2.460   2.757  11.257 -0.4605  0.1305  0.7345
33139SOL    HW2 3975   2.492   2.856  11.147 -1.0271 -1.2653 -0.7268
33140SOL     OW 3976   3.165  11.543   5.663  0.6143  0.6627  0.2732
33140SOL    HW1 3977   3.088  11.489   5.683 -0.2542  0.5677 -2.8847
33140SOL    HW2 3978   3.235  11.505   5.716 -1.2784  0.3336  2.7512
33141SOL     OW 3979   6.684  11.360  11.280 -0.8663  0.0626  0.0634
33141SOL    HW1 3980   6.667  11.349  11.373 -1.5062  1.2941  0.1097
33141SOL    HW2 3981   6.778  11.377  11.274 -0.5815 -1.3080  0.3439
33142SOL     OW 3982   8.540   9.030   0.459  0.1565  0.0039 -0.1671
33142SOL    HW1 3983   8.479   9.061   0.392 -0.1604  1.8345  0.8788
33142SOL    HW2 3984   8.615   9.089   0.453  0.0721  0.2903  1.1252
33143SOL     OW 3985   0.331   5.737   8.029 -0.0547 -0.0379 -0.5615
33143SOL    HW1 3986   0.327   5.829   8.056 -0.7427  0.2494 -1.5927
33143SOL    HW2 3987   0.368   5.740   7.940  0.2500 -0.7865 -0.4646
33144SOL     OW 3988  10.205  10.014   5.466 -0.3606 -0.2218 -0.2869
33144SOL    HW1 3989  10.130  10.020   5.408  0.7314  0.2675 -1.7165
33144SOL    HW2 3990  10.209   9.921   5.490  0.3533 -0.8881 -2.7155
33145SOL     OW 3991   0.369   2.320   3.983 -0.0980  0.1010  0.2399
33145SOL    HW1 3992   0.357   2.248   3.921  0.2956 -0.5614  0.9205
33145SOL    HW2 3993   0.336   2.397   3.936  2.4856  0.1190 -1.8136
33146SOL     OW 3994   0.623  11.826   6.318  0.2324  0.0179 -0.7616
33146SOL    HW1 3995   0.671  11.765   6.262  0.4816  1.0144 -1.6680
33146SOL    HW2 3996   0.691  11.879   6.359 -0.0205  0.2402 -0.6326
33147SOL     OW 3997   2.779   3.514   4.287  0.4169  0.0245 -0.5261
33147SOL    HW1 3998   2.701   3.569   4.278  0.5334  0.3741  0.5290
33147SOL    HW2 3999   2.746   3.432   4.323  0.3605 -0.3181 -1.3322
33148SOL     OW 4000   4.485   1.471   2.228 -0.3432 -0.4475  0.2991
33148SOL    HW1 4001   4.522   1.410   2.164  2.2814  0.0425  1.1983
33148SOL    HW2 4002   4.545   1.546   2.227 -2.8794  1.7371 -0.0246
33149SOL     OW 4003   4.835   9.104   8.289 -0.1214 -1.1889  0.3346
33149SOL    HW1 4004   4.777   9.035   8.255 -0.0227 -1.0407 -0.1307
33149SOL    HW2 4005   4.896   9.057   8.346 -1.4239 -1.2128  1.7964
33150SOL     OW 4006   8.079   6.997  10.016 -0.3506  0.2488 -0.1051
33150SOL    HW1 4007   8.002   6.958   9.975 -0.3098 -1.1811  1.0676
33150SOL    HW2 4008   8.130   6.921  10.046  1.1775  1.1812 -0.2525
33151SOL     OW 4009  10.140   8.538   9.634  0.0276  0.6193 -0.4650
33151SOL    HW1 4010  10.177   8.580   9.557 -1.3186  2.7890 -0.0167
33151SOL    HW2 4011  10.050   8.572   9.639 -1.9051 -3.7103 -1.0494
33152SOL     OW 4012   8.215   5.810   0.925  0.2726 -0.4058 -0.1695
33152SOL    HW1 4013   8.298   5.850   0.897  1.7429 -3.0330  0.2144
33152SOL    HW2 4014   8.184   5.764   0.847 -1.8445  1.9417 -0.8587
33153SOL     OW 4015   4.777  12.045   1.229  0.0886  0.2728 -0.0039
33153SOL    HW1 4016   4.690  12.056   1.268 -1.0026  2.0182 -2.6380
33153SOL    HW2 4017   4.761  12.002   1.145  2.0422 -1.1894  0.3029
33154SOL     OW 4018   8.803   6.755   6.275  0.2406 -0.6830  0.5241
33154SOL    HW1 4019   8.803   6.673   6.225  0.1626 -0.7670  0.6592
33154SOL    HW2 4020   8.884   6.800   6.248 -0.2694 -0.2813 -0.3958
33155SOL     OW 4021   0.618   1.738   0.250  0.8322  0.7780  0.7264
33155SOL    HW1 4022   0.650   1.656   0.211 -1.7412 -0.6471  1.4264
33155SOL    HW2 4023   0.550   1.768   0.190  0.0767  1.0856  1.7203
33156SOL     OW 4024   0.356   1.371   1.404 -0.1974 -0.4740 -0.4502
33156SOL    HW1 4025   0.317   1.318   1.474  0.5723 -0.8415 -0.2929
33156SOL    HW2 4026   0.281   1.406   1.356 -0.7378 -2.5732 -1.2364
33157SOL     OW 4027   2.141   5.714   5.667 -0.0197  0.2300  0.1711
33157SOL    HW1 4028   2.223   5.714   5.617 -1.1034 -0.3929 -1.6855
33157SOL    HW2 4029   2.077   5.676   5.608 -1.5797  0.2966  1.7510
33158SOL     OW 4030   9.263   2.805   6.494 -0.6675  0.3958  0.5584
33158SOL    HW1 4031   9.200   2.853   6.440 -0.6883  0.7459  0.8893
33158SOL    HW2 4032   9.209   2.750   6.551 -0.6362 -0.2675 -0.0357
33159SOL     OW 4033   3.802   4.159   9.296 -0.1663  0.0246 -0.0402
33159SOL    HW1 4034   3.769   4.092   9.356 -0.2057 -1.1704 -1.3225
33159SOL    HW2 4035   3.734   4.167   9.230 -0.7844  2.3699  0.7793
33160SOL     OW 4036   7.500   3.342   5.426 -0.0269  0.2228 -0.1888
33160SOL    HW1 4037   7.588   3.366   5.397  0.1410 -0.5024 -0.3003
33160SOL    HW2 4038   7.454   3.317   5.346  0.4131 -1.7040  0.1089
33161SOL     OW 4039   5.755   7.087  11.753 -0.5094  0.1573  0.4460
33161SOL    HW1 4040   5.818   7.019  11.777  1.1108  1.5261  0.3450
33161SOL    HW2 4041   5.733   7.068  11.662  1.8586  1.0828 -0.4068
33162SOL     OW 4042   0.428  11.192   3.328  0.3346  0.0616 -0.0871
33162SOL    HW1 4043   0.417  11.097   3.331  2.2995 -0.2107  2.0762
33162SOL    HW2 4044   0.447  11.211   3.237 -0.8087 -1.5002 -0.6987
33163SOL     OW 4045   9.081  11.976   1.422 -0.2250  0.4944 -0.0810
33163SOL    HW1 4046   9.075  11.880   1.415 -0.4224  0.3611  1.5626
33163SOL    HW2 4047   9.072  11.994   1.516  0.7112  2.0708 -0.2545
33164SOL     OW 4048   7.441   2.135   6.752  0.6741  0.0929  0.5167
33164SOL    HW1 4049   7.459   2.043   6.736  1.4257  0.3748 -0.3028
33164SOL    HW2 4050   7.347   2.144   6.738  0.9643 -0.0762 -1.8831
33165SOL     OW 4051   0.850   5.508   3.699  0.1555 -0.1489  0.0794
33165SOL    HW1 4052   0.826   5.464   3.618  0.4475 -0.5550  0.2081
33165SOL    HW2 4053   0.940   5.481   3.715  0.8218  1.5616 -0.5357
33166SOL     OW 4054   2.319  11.963   8.166 -1.1097 -0.4792 -0.1935
33166SOL    HW1 4055   2.287  12.028   8.103  0.5187  1.2710  0.6668
33166SOL    HW2 4056   2.292  11.997   8.251  0.7686 -0.2751  0.3595
33167SOL     OW 4057   5.713   5.926   2.757 -0.0927  0.2538 -0.2459
33167SOL    HW1 4058   5.708   5.834   2.731 -0.3943  0.1502  0.1747
33167SOL    HW2 4059   5.622   5.952   2.771  0.0708  0.2891  0.7658
33168SOL     OW 4060   8.332   3.527   3.369  0.1400  0.2559  0.1413
33168SOL    HW1 4061   8.349   3.438   3.337 -0.2057 -0.0759  0.8452
33168SOL    HW2 4062   8.305   3.576   3.292 -1.4451 -0.7102  0.0350
33169SOL     OW 4063   8.745   9.816   8.864 -0.3250  0.4412 -0.0499
33169SOL    HW1 4064   8.652   9.828   8.844 -0.4312 -1.4378 -0.8811
33169SOL    HW2 4065   8.746   9.757   8.939  0.1835 -0.3270 -0.6449
33170SOL     OW 4066   7.185  12.006   1.462  0.4520  0.0994  0.4396
33170SOL    HW1 4067   7.253  12.025   1.397 -0.3905  0.5511 -0.3379
33170SOL    HW2 4068   7.233  11.984   1.542  1.5520 -1.5802 -0.6165
33171SOL     OW 4069   7.875   5.057  12.068 -0.3585  0.2119 -1.1037
33171SOL    HW1 4070   7.891   4.971  12.107  0.5470  1.3777  1.3023
33171SOL    HW2 4071   7.792   5.086  12.105  0.3114  1.1737 -0.2976
33172SOL     OW 4072  10.602   2.481   7.785 -0.4237  0.0914 -0.0915
33172SOL    HW1 4073  10.562   2.449   7.866  0.2450  0.2329  0.2949
33172SOL    HW2 4074  10.584   2.575   7.785 -0.0843  0.1563  0.0859
33173SOL     OW 4075   9.511   4.689   6.457 -0.7197  0.7038 -0.1631
33173SOL    HW1 4076   9.527   4.700   6.550 -2.1928  0.6658  0.1192
33173SOL    HW2 4077   9.597   4.671   6.420  0.0379  1.7172  1.0248
33174SOL     OW 4078   7.499   9.861   2.936 -0.3982  0.1272  0.0654
33174SOL    HW1 4079   7.548   9.860   2.854  1.3465  1.8602  0.9809
33174SOL    HW2 4080   7.544   9.927   2.989 -3.1122  1.0388  1.4141
33175SOL     OW 4081   9.692   3.639   8.634  0.3493 -0.2305 -0.0601
33175SOL    HW1 4082   9.693   3.550   8.669  4.8918 -0.5034 -0.2805
33175SOL    HW2 4083   9.695   3.696   8.711  1.1735 -0.4739  0.1011
33176SOL     OW 4084  10.176   5.502   8.772  0.1231  0.2846  0.5199
33176SOL    HW1 4085  10.121   5.428   8.798  0.8981 -0.1174  1.0471
33176SOL    HW2 4086  10.114   5.575   8.764 -0.8027 -0.6038 -0.9526
33177SOL     OW 4087  11.827   2.791   9.863  0.3179  0.0287  0.1318
33177SOL    HW1 4088  11.888   2.837   9.922  0.8678 -1.6451  0.9323
33177SOL    HW2 4089  11.884   2.745   9.801 -0.1781 -0.3225 -0.0694
33178SOL     OW 4090   2.604   6.793   4.264 -0.1312  0.1206 -0.0066
33178SOL    HW1 4091   2.644   6.831   4.342 -1.8431  0.8427  0.5793
33178SOL    HW2 4092   2.639   6.844   4.192  0.0995  0.6510  0.4719
33179SOL     OW 4093   3.170   7.935   9.445  0.4685  0.3334 -0.0509
33179SOL    HW1 4094   3.254   7.977   9.428  0.0714  0.3136 -2.4393
33179SOL    HW2 4095   3.105   7.997   9.411 -0.3009 -0.8037 -0.7080
33180SOL     OW 4096  10.058   6.878   8.114 -0.3692 -0.0987 -0.0029
33180SOL    HW1 4097  10.041   6.895   8.021  0.6430 -0.5209 -0.2797
33180SOL    HW2 4098   9.972   6.861   8.151 -0.9483  1.3408 -0.5908
33181SOL     OW 4099  11.994   8.318   0.603  0.3515  0.1248 -0.7294
33181SOL    HW1 4100  12.060   8.264   0.560  0.8684 -0.3425  0.6126
33181SOL    HW2 4101  12.019   8.318   0.695 -0.3580  1.6429 -0.5138
33182SOL     OW 4102   4.451   3.949  11.072  0.0547  0.2303  0.4658
33182SOL    HW1 4103   4.468   3.939  11.166 -0.2229  0.3202  0.5253
33182SOL    HW2 4104   4.484   4.036  11.051  1.6505 -0.4178  0.1278
33183SOL     OW 4105   8.621   7.435   8.929  0.6801  0.0345 -0.4598
33183SOL    HW1 4106   8.687   7.504   8.936  1.1267 -0.5469  3.7184
33183SOL    HW2 4107   8.545   7.470   8.976  0.3345 -1.6511  0.3129
33184SOL     OW 4108   7.738   1.956   6.462 -0.2529 -0.3224  0.3722
33184SOL    HW1 4109   7.740   2.020   6.390 -2.0811  0.3824  0.8954
33184SOL    HW2 4110   7.821   1.909   6.454  0.6779  1.3809 -0.7008
33185SOL     OW 4111   1.219  11.927  11.983  0.0287 -0.2346  0.5211
33185SOL    HW1 4112   1.277  11.999  12.009  0.5317 -1.2663  2.4718
33185SOL    HW2 4113   1.277  11.866  11.938  0.1521 -0.5558  1.1038
33186SOL     OW 4114  10.300   1.618  11.261 -0.0877 -0.2879 -0.0222
33186SOL    HW1 4115  10.332   1.621  11.171 -1.9972  0.3769 -0.7188
33186SOL    HW2 4116  10.260   1.531  11.269 -0.7471  0.0103 -0.1084
33187SOL     OW 4117   9.531   3.008  10.401  0.6804  0.0519 -0.0615
33187SOL    HW1 4118   9.572   3.038  10.482  0.4342 -0.3024  0.1962
33187SOL    HW2 4119   9.571   2.923  10.384  0.6120  0.0522 -0.2251
33188SOL     OW 4120   7.572   8.224   5.995 -0.0420 -0.3915  0.5510
33188SOL    HW1 4121   7.498   8.280   5.971  0.5864  0.7390  1.1401
33188SOL    HW2 4122   7.610   8.266   6.072  0.4985 -1.6171  0.9855
33189SOL     OW 4123   2.186  12.023   5.567 -0.2431  0.3426 -0.3850
33189SOL    HW1 4124   2.268  12.031   5.617 -1.0377 -1.3008  1.3294
33189SOL    HW2 4125   2.205  12.063   5.483  1.3408  2.9167  1.0583
33190SOL     OW 4126   5.363   8.727   2.323  0.2925  0.1381 -0.5753
33190SOL    HW1 4127   5.436   8.680   2.364  0.1136 -1.4876 -2.0096
33190SOL    HW2 4128   5.285   8.680   2.352 -0.1023  0.9839 -0.2177
33191SOL     OW 4129   5.894   4.223   3.512  0.2073  0.0622  0.9340
33191SOL    HW1 4130   5.838   4.145   3.508 -1.1552  1.0489 -0.6248
33191SOL    HW2 4131   5.977   4.191   3.546 -0.6347 -1.8666  1.3397
33192SOL     OW 4132   2.786   3.129   7.993  0.4829  0.3470 -0.4027
33192SOL    HW1 4133   2.825   3.209   8.031  0.5033  0.0642  0.1848
33192SOL    HW2 4134   2.692   3.147   7.991  0.2915 -0.2671  1.3704
33193SOL     OW 4135  10.763   2.631   5.264 -0.3050  0.0583 -0.3085
33193SOL    HW1 4136  10.841   2.576   5.258 -0.6422 -0.2829 -2.2738
33193SOL    HW2 4137  10.795   2.716   5.295  0.5454 -0.6191  0.6950
33194SOL     OW 4138   6.178  10.338   5.570  0.0678  0.0286 -0.1155
33194SOL    HW1 4139   6.160  10.244   5.575 -0.0831  0.0751  0.2290
33194SOL    HW2 4140   6.245  10.346   5.502  0.3192 -0.3604  0.0829
33195SOL     OW 4141   7.285   5.057   7.351  0.1125  0.0487  0.0920
33195SOL    HW1 4142   7.368   5.090   7.317  0.8997 -0.4395  1.4521
33195SOL    HW2 4143   7.272   5.105   7.432 -1.3836  0.7142 -0.5086
33196SOL     OW 4144   7.639   5.754   0.216  0.2357 -0.3706 -0.6380
33196SOL    HW1 4145   7.652   5.830   0.160 -0.7715 -1.4948 -2.5272
33196SOL    HW2 4146   7.577   5.783   0.282 -0.9575  0.2333 -1.9550
33197SOL     OW 4147   8.238   1.632   6.175  0.4810  0.0701  0.5866
33197SOL    HW1 4148   8.226   1.556   6.118  1.9101  0.5339 -0.3836
33197SOL    HW2 4149   8.202   1.605   6.259  0.9669 -1.6714  0.2639
33198SOL     OW 4150   4.369   6.254   8.424 -0.0143 -0.0454 -0.0306
33198SOL    HW1 4151   4.454   6.210   8.424 -0.0209 -0.1704 -2.3952
33198SOL    HW2 4152   4.373   6.314   8.498  1.0761 -1.9600  1.5484
33199SOL     OW 4153   0.221   0.320  10.435  0.0215 -0.2332  0.1529
33199SOL    HW1 4154   0.221   0.299  10.342 -0.2106  1.6102 -0.3031
33199SOL    HW2 4155   0.313   0.323  10.460  0.0755 -2.5418  0.4848
33200SOL     OW 4156   4.937   1.485  11.751 -0.6415  0.2081  0.7803
33200SOL    HW1 4157   4.875   1.423  11.714 -1.4425  0.6152  1.4123
33200SOL    HW2 4158   4.886   1.565  11.764  0.5282  1.2342 -0.6418
33201SOL     OW 4159   4.968   4.064  10.246  0.1742 -0.8251  0.1696
33201SOL    HW1 4160   4.896   4.099  10.194 -0.4546 -0.2567  1.3919
33201SOL    HW2 4161   4.971   3.971  10.223  1.0744 -0.2902 -2.1956
33202SOL     OW 4162   8.100   6.565   5.037 -0.2739 -0.1049 -0.1053
33202SOL    HW1 4163   8.112   6.562   5.132  1.4121 -1.3347 -0.3082
33202SOL    HW2 4164   8.149   6.642   5.009 -1.2453  0.5879  0.0555
33203SOL     OW 4165   0.301   6.727   8.647 -0.1697 -0.0092  0.2006
33203SOL    HW1 4166   0.367   6.796   8.637  0.2466 -0.5047 -0.5259
33203SOL    HW2 4167   0.251   6.731   8.566  0.9975 -1.7487 -0.6534
33204SOL     OW 4168   0.924   6.869   3.026 -0.0935  1.2702 -0.1287
33204SOL    HW1 4169   0.941   6.775   3.018  0.1472  1.3904 -1.2671
33204SOL    HW2 4170   0.880   6.878   3.110 -1.0453 -0.0095 -0.4426
33205SOL     OW 4171   7.336   1.811   2.862  0.2839  0.2385 -0.2352
33205SOL    HW1 4172   7.389   1.740   2.899  0.5374  0.4889 -0.1131
33205SOL    HW2 4173   7.400   1.876   2.833  0.2662 -0.8869 -3.1914
33206SOL     OW 4174   5.301   6.549   7.291 -0.0914  0.0811  0.7092
33206SOL    HW1 4175   5.378   6.567   7.237  0.4844  2.3052  2.1402
33206SOL    HW2 4176   5.230   6.596   7.247 -0.3493 -0.7891  0.1699
33207SOL     OW 4177   5.092  10.209   0.669  0.1411  0.0509 -0.1947
33207SOL    HW1 4178   5.072  10.272   0.600 -0.2115 -0.1741 -0.2970
33207SOL    HW2 4179   5.061  10.126   0.635  1.4731 -0.3620 -0.4766
33208SOL     OW 4180   1.206   6.076   0.567 -0.0473  0.2740 -0.7553
33208SOL    HW1 4181   1.179   6.067   0.475 -1.3559  1.1658 -0.4839
33208SOL    HW2 4182   1.127   6.102   0.613  0.5065 -0.5172  0.7125
33209SOL     OW 4183   0.110   6.258   6.216  0.0326  0.1741  0.4066
33209SOL    HW1 4184   0.192   6.299   6.242  0.1030 -0.3546  1.0418
33209SOL    HW2 4185   0.111   6.173   6.260 -0.9827  0.2796  0.6518
33210SOL     OW 4186   6.234   8.430   5.971  0.0636 -0.5719 -0.1526
33210SOL    HW1 4187   6.205   8.509   5.926  0.5933  1.0645  2.1530
33210SOL    HW2 4188   6.302   8.460   6.031 -0.2250 -2.6617  1.3494
33211SOL     OW 4189   3.850   7.995  10.910 -0.4461 -0.0720 -0.1992
33211SOL    HW1 4190   3.778   8.049  10.945 -1.9652 -2.5754  0.8452
33211SOL    HW2 4191   3.812   7.907  10.902  2.2447 -1.2990 -0.5801
33212SOL     OW 4192   8.833   5.649   7.719 -0.0822  0.0049  0.3790
33212SOL    HW1 4193   8.900   5.674   7.655 -1.0009  0.4785 -0.4069
33212SOL    HW2 4194   8.808   5.731   7.761  0.2537 -0.2553  1.1141
33213SOL     OW 4195   9.964   0.878   0.123  0.1193 -0.5066 -0.3636
33213SOL    HW1 4196   9.942   0.819   0.195 -0.5837 -1.5257 -1.3674
33213SOL    HW2 4197   9.889   0.936   0.115 -0.2002 -0.9799 -0.8408
33214SOL     OW 4198  12.053   0.093  10.470  0.2825  0.3339  0.2755
33214SOL    HW1 4199  12.011   0.119  10.553  0.5429 -0.2020  0.5781
33214SOL    HW2 4200  12.007   0.144  10.403 -0.1087  0.5751  0.7195
33215SOL     OW 4201  11.513   1.133   9.960  0.1713 -0.3571 -0.2674
33215SOL    HW1 4202  11.455   1.096  10.026  0.2152  0.4412  0.2333
33215SOL    HW2 4203  11.602   1.119   9.994  0.1736  0.5122  0.0972
33216SOL     OW 4204  10.615  11.061   7.419  1.0314  0.4966  0.3775
33216SOL    HW1 4205  10.526  11.044   7.388  1.6999 -1.4162 -0.6741
33216SOL    HW2 4206  10.603  11.100   7.506 -0.8298  0.5688  0.1246
33217SOL     OW 4207   4.100  10.072   8.783 -0.5192 -0.4431 -0.1026
33217SOL    HW1 4208   4.114  10.135   8.853  1.9003 -0.1038 -0.8015
33217SOL    HW2 4209   4.174  10.011   8.791  0.0546 -0.1616 -2.5541
33218SOL     OW 4210   0.383   5.433   9.936 -0.0548  0.4727 -0.0478
33218SOL    HW1 4211   0.303   5.385   9.957  0.6607 -0.8901 -0.3338
33218SOL    HW2 4212   0.425   5.448  10.021  0.0679 -0.0460 -0.0151
33219SOL     OW 4213   6.238   4.847   0.624 -0.0498 -0.0020 -0.1009
33219SOL    HW1 4214   6.152   4.814   0.598  0.1914 -0.7944  0.0617
33219SOL    HW2 4215   6.300   4.788   0.581  0.5096  1.9686 -2.1271
33220SOL     OW 4216   5.889  11.938   1.301  0.8615  0.1094  0.4865
33220SOL    HW1 4217   5.868  11.889   1.222 -2.1348  2.0163 -0.0754
33220SOL    HW2 4218   5.867  11.879   1.373 -0.3304 -0.2354 -0.1425
33221SOL     OW 4219   1.619  10.848   2.232  0.4116  0.2627 -0.1646
33221SOL    HW1 4220   1.697  10.812   2.189 -1.3853 -1.8404 -1.8651
33221SOL    HW2 4221   1.564  10.772   2.250 -1.9188  1.7948 -0.4073
33222SOL     OW 4222   2.688   9.160   5.621 -0.0135  0.1985  0.4405
33222SOL    HW1 4223   2.755   9.115   5.672 -0.1171 -0.2069  0.2299
33222SOL    HW2 4224   2.677   9.245   5.664 -2.0079 -1.1061  2.8076
33223SOL     OW 4225   7.908   1.252   6.164  0.5054 -0.0898  0.3266
33223SOL    HW1 4226   7.973   1.220   6.226 -0.0049  0.4923  1.1797
33223SOL    HW2 4227   7.825   1.245   6.210  0.0304 -0.2873 -0.5425
33224SOL     OW 4228   5.151   9.147  11.466  0.4718 -0.3636 -0.0772
33224SOL    HW1 4229   5.191   9.067  11.502 -0.1110 -0.8743 -0.5544
33224SOL    HW2 4230   5.222   9.212  11.468  1.3262 -1.2386 -0.8679
33225SOL     OW 4231   1.838   1.733   1.956 -0.1466 -0.0176 -0.3149
33225SOL    HW1 4232   1.910   1.672   1.940  0.3058  0.2536  0.6393
33225SOL    HW2 4233   1.863   1.813   1.910  0.0408 -0.0119 -0.2039
33226SOL     OW 4234   4.845   8.079   4.131  0.4866  0.1515 -0.3270
33226SOL    HW1 4235   4.904   8.004   4.132  0.1524 -0.1208  1.1959
33226SOL    HW2 4236   4.902   8.156   4.139  0.7794  0.0398 -1.2329
33227SOL     OW 4237  11.396   3.341   2.034 -0.2755 -0.0212  0.2805
33227SOL    HW1 4238  11.454   3.276   2.073 -0.5921 -0.6415 -0.2538
33227SOL    HW2 4239  11.338   3.367   2.106  0.1283 -0.0054  0.6055
33228SOL     OW 4240  11.858   1.269   7.373  0.0415  0.3455 -0.1265
33228SOL    HW1 4241  11.804   1.348   7.374 -0.4454  0.0393 -1.1562
33228SOL    HW2 4242  11.799   1.198   7.397  0.3695  0.2290  0.3448
33229SOL     OW 4243   7.640   0.787   4.244  0.2900  0.5480  0.6709
33229SOL    HW1 4244   7.676   0.875   4.248  1.7335  0.0154  0.0816
33229SOL    HW2 4245   7.671   0.752   4.160 -1.4517 -0.0238  0.2259
33230SOL     OW 4246   0.279   3.753   4.721 -0.0505  0.1276  0.2613
33230SOL    HW1 4247   0.332   3.716   4.650  0.9448 -0.2351  1.1760
33230SOL    HW2 4248   0.322   3.724   4.801 -0.3228  1.7369  1.0242
33231SOL     OW 4249   7.081   5.116   1.700 -0.2412  0.3701  0.2181
33231SOL    HW1 4250   7.021   5.113   1.775  0.4287  0.1532  0.7526
33231SOL    HW2 4251   7.111   5.207   1.698 -0.6425  0.4954 -0.0924
33232SOL     OW 4252   5.794  12.108   6.520 -0.1338 -0.4792  0.5326
33232SOL    HW1 4253   5.878  12.138   6.553  0.0321 -1.6453  1.2374
33232SOL    HW2 4254   5.797  12.123   6.426  0.0415  1.3814  0.7951
33233SOL     OW 4255   2.669  12.034   4.176  0.5182 -0.4565  0.0242
33233SOL    HW1 4256   2.723  12.094   4.227  0.1821 -1.3201  1.4899
33233SOL    HW2 4257   2.639  12.085   4.101  1.3075  0.7804  0.5188
33234SOL     OW 4258  11.603   2.292   7.071  0.3870 -0.3165 -0.7842
33234SOL    HW1 4259  11.532   2.235   7.042  0.7926 -0.6659 -1.0862
33234SOL    HW2 4260  11.573   2.327   7.155  0.1807 -1.0457 -0.5512
33235SOL     OW 4261   6.437   6.931   8.012  0.4126  0.7024 -0.4525
33235SOL    HW1 4262   6.371   6.888   8.066 -1.1529  0.2303 -2.6105
33235SOL    HW2 4263   6.489   6.858   7.976  0.6820  0.9220 -0.5110
33236SOL     OW 4264   9.953  10.412   6.563  0.2771  0.2591  0.5538
33236SOL    HW1 4265   9.915  10.468   6.632 -0.1686 -0.5849  1.0054
33236SOL    HW2 4266  10.041  10.447   6.550 -0.7143  2.4858 -0.7510
33237SOL     OW 4267  11.892   1.324   1.914  0.6726 -0.2443 -0.4496
33237SOL    HW1 4268  11.896   1.230   1.898  0.7092 -0.0274 -1.8407
33237SOL    HW2 4269  11.813   1.337   1.967  1.9664 -1.2958  1.9241
33238SOL     OW 4270   8.021  12.077  12.062  0.2850  0.5719  0.3819
33238SOL    HW1 4271   8.026  12.128  12.143  0.9473  0.0059  0.7045
33238SOL    HW2 4272   8.091  12.112  12.007  1.5752 -0.7810  1.0848
33239SOL     OW 4273   0.277   7.676   1.678  0.2790 -0.1526  0.1161
33239SOL    HW1 4274   0.299   7.743   1.743 -1.0290  0.2706  0.1387
33239SOL    HW2 4275   0.298   7.717   1.593 -2.7264  1.2636 -0.0472
33240SOL     OW 4276   0.317   2.900   0.434 -0.0567 -0.0109  0.0575
33240SOL    HW1 4277   0.381   2.910   0.505  1.2791  1.9665 -1.3197
33240SOL    HW2 4278   0.357   2.836   0.375  0.6419  1.1182 -0.7314
33241SOL     OW 4279   3.281   6.797   8.208  0.1235  0.4214 -0.4679
33241SOL    HW1 4280   3.342   6.757   8.268  0.6756 -0.0745 -1.3410
33241SOL    HW2 4281   3.194   6.774   8.242  0.4307 -0.5265 -0.3100
33242SOL     OW 4282   0.004   8.981   9.360  0.1946 -0.8807 -0.0548
33242SOL    HW1 4283   0.085   8.989   9.409  0.4739  0.3243 -0.6628
33242SOL    HW2 4284   0.031   8.956   9.272  0.0999  1.1384 -0.7122
33243SOL     OW 4285   1.879   4.033   9.743 -0.3209 -0.2584 -0.0188
33243SOL    HW1 4286   1.825   3.969   9.791  0.5113 -0.5935  0.4987
33243SOL    HW2 4287   1.969   4.007   9.763  0.0646 -0.4560 -1.8600
33244SOL     OW 4288   9.443  10.114   4.339  0.0219 -0.6042  0.0946
33244SOL    HW1 4289   9.356  10.074   4.340 -0.0031 -0.5440  0.4584
33244SOL    HW2 4290   9.430  10.196   4.291  0.1180 -1.1148 -0.8258
33245SOL     OW 4291   8.414   0.679   9.471  0.2561  0.6152  0.1441
33245SOL    HW1 4292   8.353   0.668   9.544  0.4517  1.3540  0.4213
33245SOL    HW2 4293   8.497   0.644   9.504 -0.1734 -1.1777 -0.5145
33246SOL     OW 4294  10.998   7.414   2.226 -0.3337 -0.1470  0.0040
33246SOL    HW1 4295  11.036   7.336   2.186  1.7774  1.0000 -0.4061
33246SOL    HW2 4296  11.033   7.487   2.174 -1.5588  1.1342  0.8943
33247SOL     OW 4297  11.577   1.017   8.997  0.0763  0.2426  0.3478
33247SOL    HW1 4298  11.550   1.021   8.905 -1.8071  0.2206  0.8569
33247SOL    HW2 4299  11.551   0.929   9.026  2.2202 -0.4027  0.4931
33248SOL     OW 4300   2.606   6.208   8.286  0.4202  0.0414  0.0023
33248SOL    HW1 4301   2.595   6.129   8.232 -1.3922 -1.5099  2.4115
33248SOL    HW2 4302   2.554   6.275   8.242 -0.4865 -0.9962 -0.5492
33249SOL     OW 4303   9.399   5.511   3.375  0.2485 -0.2450  0.0623
33249SOL    HW1 4304   9.464   5.465   3.322  0.3396 -0.1354  0.0785
33249SOL    HW2 4305   9.450   5.571   3.430  0.2973 -1.4717  1.4169
33250SOL     OW 4306   1.010   5.836  10.699 -0.2268  0.0393 -0.1857
33250SOL    HW1 4307   1.046   5.749  10.715  0.9970  0.9598  2.7872
33250SOL    HW2 4308   1.073   5.879  10.641  1.0146  0.0336  1.1072
33251SOL     OW 4309   0.018  11.705   3.150  0.0687 -0.5422 -0.8485
33251SOL    HW1 4310   0.067  11.626   3.126  3.3990  0.7254  1.0928
33251SOL    HW2 4311   0.073  11.778   3.122 -1.2782  1.0532  0.3876
33252SOL     OW 4312   9.991   6.231   4.580  0.6742  0.7122 -0.1073
33252SOL    HW1 4313  10.026   6.157   4.630  2.4654  1.2770 -0.4372
33252SOL    HW2 4314  10.001   6.306   4.638 -0.5118  0.8258 -0.0260
33253SOL     OW 4315   7.386   9.717   0.279 -0.8500 -1.2502 -0.6091
33253SOL    HW1 4316   7.455   9.769   0.238 -1.1081 -1.0418 -0.7778
33253SOL    HW2 4317   7.391   9.740   0.372 -0.5698 -1.3753 -0.5924
33254SOL     OW 4318  10.141  12.072  10.857  0.0576 -0.0857 -0.7268
33254SOL    HW1 4319  10.065  12.076  10.799 -0.5579  1.9091  0.1000
33254SOL    HW2 4320  10.105  12.045  10.942  0.8243 -2.2302 -1.0388
33255SOL     OW 4321   0.682   8.206   2.210  0.2143  0.0633  0.4943
33255SOL    HW1 4322   0.777   8.220   2.208  0.1009  1.2357  1.5951
33255SOL    HW2 4323   0.657   8.231   2.299 -0.8976 -1.9787  0.8198
33256SOL     OW 4324   7.447   1.351   4.556  0.6591  0.1551  0.5456
33256SOL    HW1 4325   7.399   1.304   4.488  1.2222  0.8618 -0.3575
33256SOL    HW2 4326   7.536   1.317   4.550  0.7720  0.4121  0.7508
33257SOL     OW 4327   8.306   1.019   1.357 -0.4655  0.5325 -0.0297
33257SOL    HW1 4328   8.382   1.008   1.300 -0.6295 -1.1314  0.0201
33257SOL    HW2 4329   8.235   0.977   1.311 -0.9819  0.6180  0.6739
33258SOL     OW 4330  10.476   5.748   4.569 -0.3336  0.0661 -0.3448
33258SOL    HW1 4331  10.399   5.800   4.591 -0.8551 -0.4913 -0.7837
33258SOL    HW2 4332  10.545   5.812   4.555 -1.0926  0.6922 -1.3957
33259SOL     OW 4333   2.522   2.513   5.825 -0.4718 -0.0110  0.1983
33259SOL    HW1 4334   2.432   2.518   5.858 -0.7501 -3.6423  0.4053
33259SOL    HW2 4335   2.512   2.502   5.731 -0.4587 -2.0471  0.3747
33260SOL     OW 4336   6.328  10.679   8.691 -0.5128 -0.2330  0.2144
33260SOL    HW1 4337   6.242  10.644   8.713 -0.9167  0.3121 -0.4530
33260SOL    HW2 4338   6.355  10.728   8.769  0.6877 -3.0992  1.7325
33261SOL     OW 4339  11.298   2.066   1.638  0.7234  0.4562 -0.1255
33261SOL    HW1 4340  11.287   2.081   1.544 -0.0774 -1.6274 -0.4193
33261SOL    HW2 4341  11.226   2.009   1.662  0.8662  1.0168  1.8077
33262SOL     OW 4342   5.587   4.000   3.725 -0.2941 -0.7366  0.5384
33262SOL    HW1 4343   5.505   4.045   3.748  0.0197 -1.3349  3.0648
33262SOL    HW2 4344   5.628   3.980   3.809  4.5921  3.2560 -0.4567
33263SOL     OW 4345   1.053  12.033   8.581 -0.3980 -0.6787 -0.3759
33263SOL    HW1 4346   1.036  12.057   8.672  1.9852 -2.5721  0.6739
33263SOL    HW2 4347   1.146  12.010   8.579 -0.1211  0.2531 -3.5595
33264SOL     OW 4348   0.559   3.191   8.607 -0.0702  0.4005 -0.8172
33264SOL    HW1 4349   0.582   3.264   8.664  1.4194 -0.2853 -0.4741
33264SOL    HW2 4350   0.465   3.202   8.590 -0.0636  1.8762 -0.0687
33265SOL     OW 4351   9.658   0.137   9.198 -0.3019 -0.7729  0.0556
33265SOL    HW1 4352   9.652   0.120   9.293 -0.1143 -0.1746  0.1760
33265SOL    HW2 4353   9.731   0.082   9.169 -0.6152 -1.2648  0.1822
33266SOL     OW 4354  11.682   7.757  11.072  0.0113 -0.1427  0.0260
33266SOL    HW1 4355  11.766   7.751  11.027 -0.5465  1.6922 -1.3908
33266SOL    HW2 4356  11.661   7.850  11.072 -2.3176 -0.5886 -0.2485
33267SOL     OW 4357   3.877   8.579   6.286 -0.6270  0.2484  0.2809
33267SOL    HW1 4358   3.816   8.619   6.224 -0.4394 -3.4005 -2.6009
33267SOL    HW2 4359   3.963   8.606   6.255 -0.5729  1.2390  1.2151
33268SOL     OW 4360  12.014   2.584   7.453 -0.0577  0.1593 -0.5973
33268SOL    HW1 4361  11.970   2.505   7.422  2.8196 -1.2411 -1.5324
33268SOL    HW2 4362  12.035   2.633   7.373  3.2137 -1.0943 -0.6443
33269SOL     OW 4363   0.947   6.972   2.136 -0.3186 -0.2248 -0.1606
33269SOL    HW1 4364   0.987   7.033   2.198 -2.3847 -0.7751  1.8388
33269SOL    HW2 4365   0.940   6.890   2.185 -2.9786 -0.3936 -0.6922
33270SOL     OW 4366   6.531   1.189   1.642 -0.0061 -0.1809 -0.0739
33270SOL    HW1 4367   6.623   1.198   1.618 -0.0924  0.6729 -0.1171
33270SOL    HW2 4368   6.492   1.274   1.623 -0.9834 -0.7624 -0.7824
33271SOL     OW 4369   2.439  11.794   9.142  0.0487 -0.1130  0.4857
33271SOL    HW1 4370   2.420  11.876   9.189 -2.0782 -0.9395  1.1794
33271SOL    HW2 4371   2.382  11.798   9.065  0.2053 -0.7922  0.3345
33272SOL     OW 4372   5.115   2.094   9.638  0.8477  0.1717 -0.3637
33272SOL    HW1 4373   5.033   2.047   9.623  0.2444  1.3693 -0.9862
33272SOL    HW2 4374   5.164   2.039   9.699 -0.4278 -0.5643  0.0281
33273SOL     OW 4375   3.001   1.759  10.159  0.1358  0.0348  0.7019
33273SOL    HW1 4376   3.018   1.685  10.217 -0.2179  0.0487  0.8265
33273SOL    HW2 4377   2.935   1.727  10.098 -1.5923  0.8587  2.0272
33274SOL     OW 4378  10.399   8.867   5.080  0.0007  0.1174 -0.0597
33274SOL    HW1 4379  10.353   8.799   5.129  0.7011 -1.0977 -1.0444
33274SOL    HW2 4380  10.458   8.819   5.021  0.3106  1.5672 -0.9784
33275SOL     OW 4381   9.924   1.321   1.242  0.0386 -0.1924  0.1339
33275SOL    HW1 4382   9.856   1.258   1.219 -1.2746  1.4090 -0.5334
33275SOL    HW2 4383   9.925   1.321   1.338 -0.7607 -0.3755  0.1464
33276SOL     OW 4384   2.593  11.049   5.977  0.2372 -0.4442 -0.1136
33276SOL    HW1 4385   2.542  10.986   5.927  0.1683  0.2667 -0.9733
33276SOL    HW2 4386   2.581  11.132   5.930  0.7545  0.0968  0.6794
33277SOL     OW 4387   4.694  10.864   5.337 -0.4176 -0.0716  0.0275
33277SOL    HW1 4388   4.751  10.860   5.260  1.2183  0.5603  1.1576
33277SOL    HW2 4389   4.615  10.908   5.306 -1.2353 -2.7035 -2.0762
33278SOL     OW 4390   7.088  10.634   9.302 -0.1516  0.2046 -0.0203
33278SOL    HW1 4391   7.173  10.620   9.345 -0.2882  1.4344  0.7255
33278SOL    HW2 4392   7.104  10.614   9.210  0.3992 -1.6078  0.4262
33279SOL     OW 4393   4.819  11.434   8.066  0.3354 -0.2975 -0.3013
33279SOL    HW1 4394   4.864  11.475   7.991 -0.2998 -0.8869 -1.0133
33279SOL    HW2 4395   4.734  11.408   8.031 -0.3114  0.1978  0.8609
33280SOL     OW 4396   7.512   1.985   2.773 -0.1566 -0.6260 -0.6171
33280SOL    HW1 4397   7.517   2.081   2.770 -0.8821 -0.6045 -1.9784
33280SOL    HW2 4398   7.596   1.956   2.737  0.2227 -0.5149  0.1607
33281SOL     OW 4399  11.297   2.041  11.231 -0.2673  0.1146  0.1041
33281SOL    HW1 4400  11.389   2.062  11.246  0.4074 -2.4910  0.0427
33281SOL    HW2 4401  11.263   2.017  11.317 -1.2002  1.9599  0.2965
33282SOL     OW 4402   8.568   1.156   6.275 -0.2892  0.1093  0.8023
33282SOL    HW1 4403   8.572   1.109   6.191  0.7686 -0.3415  1.0867
33282SOL    HW2 4404   8.623   1.104   6.334 -0.6610  0.6660  1.6606
33283SOL     OW 4405   8.217   2.621   1.655  0.6663 -0.0783 -0.0868
33283SOL    HW1 4406   8.304   2.646   1.624  0.6379  0.1850  0.0480
33283SOL    HW2 4407   8.175   2.581   1.579  0.4311  0.9769 -0.5242
33284SOL     OW 4408   9.178   6.224   8.479  0.4401  0.0155 -0.7534
33284SOL    HW1 4409   9.102   6.281   8.492  0.9939  0.8518 -1.1196
33284SOL    HW2 4410   9.157   6.145   8.529  0.0934  0.9278  0.6031
33285SOL     OW 4411   3.750  11.022   8.765  0.0038 -0.6180  0.4460
33285SOL    HW1 4412   3.708  11.038   8.681 -0.4059 -0.7273  0.6242
33285SOL    HW2 4413   3.843  11.013   8.745 -0.2157 -1.7836 -0.1607
33286SOL     OW 4414  10.255   1.773   4.369  0.6834 -0.4130 -0.0291
33286SOL    HW1 4415  10.307   1.716   4.425  0.0771  0.4945  1.5238
33286SOL    HW2 4416  10.165   1.741   4.379  0.2880  0.9580  1.1078
33287SOL     OW 4417   5.408   6.601  11.374  0.4292 -0.4773  0.6120
33287SOL    HW1 4418   5.367   6.667  11.318 -1.6398  0.2308  2.7782
33287SOL    HW2 4419   5.359   6.520  11.355  0.3607 -0.4567  0.6997
33288SOL     OW 4420  10.193  10.280   2.825 -0.3964 -0.2274  0.5636
33288SOL    HW1 4421  10.129  10.257   2.758 -2.1790  0.8208  1.8196
33288SOL    HW2 4422  10.230  10.363   2.795 -0.0572 -0.5250  0.1436
33289SOL     OW 4423  10.317   3.099   1.799  0.4782  0.1034  0.1015
33289SOL    HW1 4424  10.331   3.073   1.708  1.6392  0.0728  0.2788
33289SOL    HW2 4425  10.321   3.017   1.848 -1.2085 -0.0203  0.0847
33290SOL     OW 4426  10.407  12.114   7.301 -0.2768  0.5748  0.1693
33290SOL    HW1 4427  10.486  12.166   7.286  0.8553 -0.8150  1.1041
33290SOL    HW2 4428  10.356  12.165   7.365 -0.0034  1.3102 -0.1825
33291SOL     OW 4429   1.722  11.336   6.054 -0.0458 -0.8073 -0.5532
33291SOL    HW1 4430   1.813  11.364   6.049 -0.6380  1.2926 -0.8712
33291SOL    HW2 4431   1.709  11.282   5.977  0.5592  0.1876 -1.3794
33292SOL     OW 4432   2.880   6.090   2.384  0.2298  0.3216 -0.2108
33292SOL    HW1 4433   2.838   6.098   2.298  0.5494  0.6829 -0.3363
33292SOL    HW2 4434   2.871   6.177   2.422  0.4835  0.2830 -0.0630
33293SOL     OW 4435   2.351   9.521  11.741 -0.1255  0.0436  0.0094
33293SOL    HW1 4436   2.341   9.557  11.829  1.4154  1.0171 -0.1737
33293SOL    HW2 4437   2.425   9.461  11.748  0.2301  0.3909 -0.6851
33294SOL     OW 4438   0.169   7.305   3.835 -0.1278  0.5106 -0.4368
33294SOL    HW1 4439   0.185   7.216   3.803  0.8297 -0.5584  2.6809
33294SOL    HW2 4440   0.126   7.292   3.920 -0.5759  3.0678 -0.2154
33295SOL     OW 4441   1.632   5.065   8.453 -0.2366  0.0685  0.4832
33295SOL    HW1 4442   1.616   4.976   8.483  2.1737 -0.7398 -0.4030
33295SOL    HW2 4443   1.561   5.083   8.391 -0.3883 -1.4910  0.1639
33296SOL     OW 4444   9.180   3.637   6.675 -0.2953  0.2036 -0.3114
33296SOL    HW1 4445   9.195   3.641   6.581 -1.8467 -0.8574 -0.6495
33296SOL    HW2 4446   9.224   3.557   6.703 -4.1749 -2.5673 -1.1969
33297SOL     OW 4447   5.239   6.884   5.438 -0.1482  0.1624  0.1609
33297SOL    HW1 4448   5.288   6.964   5.416  0.7259 -0.4870 -0.2998
33297SOL    HW2 4449   5.161   6.888   5.382 -0.1570  0.7334  0.2049
33298SOL     OW 4450   9.457   1.642   6.995 -1.2238  0.3558  0.4951
33298SOL    HW1 4451   9.462   1.738   6.999 -0.8073  0.3943 -0.5635
33298SOL    HW2 4452   9.381   1.625   6.938 -2.2805  0.0177  1.9466
33299SOL     OW 4453   4.682  10.636   7.410 -0.2622  0.0080 -0.0420
33299SOL    HW1 4454   4.756  10.631   7.349 -0.6383 -1.3015 -0.4067
33299SOL    HW2 4455   4.709  10.703   7.473  1.5378 -0.8916  0.2214
33300SOL     OW 4456   9.827   3.079   1.916  0.1668  0.5596 -0.3670
33300SOL    HW1 4457   9.740   3.111   1.893  0.2071  1.7364  0.9574
33300SOL    HW2 4458   9.831   3.088   2.012  1.1457 -1.0457 -0.2184
33301SOL     OW 4459   1.830  11.683   9.769 -0.3548 -0.1640  0.1454
33301SOL    HW1 4460   1.841  11.703   9.676 -0.7642  1.1746  0.3695
33301SOL    HW2 4461   1.741  11.712   9.789 -0.5685 -1.2037  0.7787
33302SOL     OW 4462   7.824   3.270   3.102 -0.1790  0.7267  0.5917
33302SOL    HW1 4463   7.900   3.267   3.161 -0.5539 -0.1943  1.0525
33302SOL    HW2 4464   7.855   3.227   3.022 -0.0280  0.9163  0.5468
33303SOL     OW 4465   8.716   0.683  10.968  0.1091  0.0058 -0.4276
33303SOL    HW1 4466   8.694   0.634  10.889  0.4193 -1.0973  0.1423
33303SOL    HW2 4467   8.640   0.671  11.026  0.4394 -0.3217 -0.0531
33304SOL     OW 4468   8.606   5.314   1.724  0.5717  0.1422 -0.7168
33304SOL    HW1 4469   8.678   5.297   1.663  2.6248  0.1156  1.5714
33304SOL    HW2 4470   8.600   5.409   1.728  0.9699  0.1574 -0.3974
33305SOL     OW 4471  12.013  11.535   0.609 -0.3115 -0.2967 -0.0582
33305SOL    HW1 4472  12.010  11.440   0.593  0.0652 -0.3203 -0.0039
33305SOL    HW2 4473  11.956  11.572   0.542  0.8819 -0.4287 -1.1992
33306SOL     OW 4474   9.428  11.070   5.815  0.2886  0.4503  0.2752
33306SOL    HW1 4475   9.377  11.013   5.757  1.1797  0.5016 -0.5791
33306SOL    HW2 4476   9.416  11.158   5.779 -0.0689  0.6464  0.8530
33307SOL     OW 4477   0.403   0.691   4.347 -0.0763 -0.7804 -0.1502
33307SOL    HW1 4478   0.319   0.681   4.392  0.6111  1.8982  2.0020
33307SOL    HW2 4479   0.381   0.722   4.259 -1.3671 -3.6413 -0.9505
33308SOL     OW 4480   0.573   9.552   3.479  0.0222 -0.9659  0.2521
33308SOL    HW1 4481   0.574   9.644   3.506 -0.3904 -0.7805 -0.3459
33308SOL    HW2 4482   0.655   9.516   3.513  0.6884 -0.1081 -0.3990
33309SOL     OW 4483   3.487   8.063   7.243 -0.4278  0.1923  0.5210
33309SOL    HW1 4484   3.579   8.071   7.217 -0.6149  1.2026  0.1383
33309SOL    HW2 4485   3.472   7.969   7.247  0.8007 -0.0053  1.2081
33310SOL     OW 4486   2.060   6.119   8.318  0.0064  0.0174 -0.1476
33310SOL    HW1 4487   2.064   6.033   8.276  0.6560 -0.1919  0.3163
33310SOL    HW2 4488   1.970   6.148   8.306 -0.6594 -1.4350  1.0638
33311SOL     OW 4489   8.752   4.313   9.145 -0.4901  0.5125  0.3639
33311SOL    HW1 4490   8.671   4.288   9.191  0.2221 -1.7684  0.4835
33311SOL    HW2 4491   8.730   4.308   9.052 -0.6124  0.4167  0.3980
33312SOL     OW 4492   4.523   2.182   6.089  0.0635 -0.6497 -0.2495
33312SOL    HW1 4493   4.521   2.149   5.999  0.6096 -2.0727  0.2436
33312SOL    HW2 4494   4.453   2.134   6.133  0.1259 -0.3209  0.2101
33313SOL     OW 4495   4.615   3.750  10.936 -0.7913 -0.8225  0.2438
33313SOL    HW1 4496   4.577   3.836  10.955 -2.8758 -1.7215  0.4626
33313SOL    HW2 4497   4.544   3.688  10.955 -0.1512 -2.4373 -2.1224
33314SOL     OW 4498   2.665   9.381   3.948  0.4453 -0.3587  0.3579
33314SOL    HW1 4499   2.758   9.356   3.953  0.0072 -1.9388  1.6896
33314SOL    HW2 4500   2.666   9.476   3.945  2.1208 -0.3288  0.6208
33315SOL     OW 4501   2.211   7.943   4.523  0.4224  0.5084 -0.6130
33315SOL    HW1 4502   2.186   7.949   4.431  1.2676 -0.7050 -0.9600
33315SOL    HW2 4503   2.129   7.933   4.570 -0.0886  2.0628 -1.1235
33316SOL     OW 4504   8.126   9.246   8.128  0.3840  0.0678  0.1554
33316SOL    HW1 4505   8.207   9.234   8.078  0.5598 -1.0216  0.6604
33316SOL    HW2 4506   8.078   9.314   8.081  0.6029 -0.8347 -1.4295
33317SOL     OW 4507   6.681   8.792   3.521 -0.4467  0.4291 -0.0120
33317SOL    HW1 4508   6.654   8.792   3.613 -0.1240  0.0835  0.0842
33317SOL    HW2 4509   6.631   8.721   3.481  1.1215 -0.9919  0.4177
33318SOL     OW 4510   4.543   9.302   4.042  0.2058  0.3720  0.1680
33318SOL    HW1 4511   4.466   9.299   3.985 -0.1088 -1.2876  0.6461
33318SOL    HW2 4512   4.617   9.281   3.985  0.3240  1.7602 -0.2460
33319SOL     OW 4513   4.223  11.847   5.397  0.4347 -0.1706  0.2692
33319SOL    HW1 4514   4.269  11.765   5.379  1.0977 -0.4505  2.9056
33319SOL    HW2 4515   4.134  11.820   5.418 -0.0181  0.0570 -1.2074
33320SOL     OW 4516   8.737   6.694   1.030 -0.0030 -0.6561  0.3908
33320SOL    HW1 4517   8.781   6.611   1.049 -1.7263 -1.7753 -0.2302
33320SOL    HW2 4518   8.801   6.745   0.980  0.8895 -1.8212  0.3054
33321SOL     OW 4519   2.967   2.635   3.123  0.2014 -0.2407 -0.8420
33321SOL    HW1 4520   2.922   2.618   3.040  2.0591 -1.2017 -1.7217
33321SOL    HW2 4521   2.942   2.561   3.180 -1.3275  0.5850 -0.3891
33322SOL     OW 4522   1.828   9.215  10.023  0.0198 -0.1679  0.3742
33322SOL    HW1 4523   1.870   9.296  10.053 -2.1544  0.9063  0.6953
33322SOL    HW2 4524   1.796   9.173  10.103  0.8374 -1.2035  0.1756
33323SOL     OW 4525   6.665   2.570   7.208  0.3500 -0.1161 -0.1751
33323SOL    HW1 4526   6.630   2.512   7.140 -0.3429  0.1438 -0.0431
33323SOL    HW2 4527   6.715   2.636   7.159  0.0084 -0.0383 -0.4211
33324SOL     OW 4528   8.883   5.210   2.209  0.2232  0.3166 -0.3559
33324SOL    HW1 4529   8.928   5.135   2.247 -0.0946  1.0468  1.5751
33324SOL    HW2 4530   8.941   5.240   2.139  1.6586 -0.1314  0.6038
33325SOL     OW 4531   1.243   8.115   0.749 -0.6858 -0.2500 -0.0471
33325SOL    HW1 4532   1.278   8.116   0.659 -1.2751 -1.2700 -0.3092
33325SOL    HW2 4533   1.230   8.207   0.770 -0.0312  0.0356 -0.8077
33326SOL     OW 4534  12.032   3.431   4.386 -0.1476  0.0914  0.1830
33326SOL    HW1 4535  12.117   3.468   4.364  0.0258 -0.9463 -1.0092
33326SOL    HW2 4536  12.051   3.360   4.448 -0.2335  0.3639  0.5259
33327SOL     OW 4537   7.462   0.629   5.826 -0.1478 -0.2587  0.4280
33327SOL    HW1 4538   7.473   0.709   5.877  0.0202  0.2912 -0.4620
33327SOL    HW2 4539   7.528   0.635   5.757 -0.5810 -0.8528 -0.0433
33328SOL     OW 4540   3.445   5.958   6.238  0.1914  0.2434 -0.4919
33328SOL    HW1 4541   3.532   5.937   6.272  0.7679  0.5313 -1.7157
33328SOL    HW2 4542   3.397   5.990   6.314  0.5208 -1.7248  0.6078
33329SOL     OW 4543   1.832   2.008   3.272 -0.0209 -0.3286  0.6523
33329SOL    HW1 4544   1.876   2.063   3.208  0.3272  0.7228  1.7615
33329SOL    HW2 4545   1.779   2.069   3.324 -3.2091 -1.5539 -0.8869
33330SOL     OW 4546   9.207  10.070   2.596  0.4686 -0.2492 -0.1388
33330SOL    HW1 4547   9.272  10.140   2.592 -0.6142  0.7640 -0.8564
33330SOL    HW2 4548   9.250   9.999   2.643  1.4861  1.0357  0.9492
33331SOL     OW 4549   6.364   0.091   7.062 -0.4105 -0.1061 -0.1471
33331SOL    HW1 4550   6.337   0.104   7.153 -0.4974 -0.4356 -0.1256
33331SOL    HW2 4551   6.437   0.030   7.067 -0.2568  0.0643 -0.2820
33332SOL     OW 4552   5.882   7.833  10.045  0.1047  0.6238 -0.6804
33332SOL    HW1 4553   5.830   7.912  10.034 -0.0152  0.6971  0.3445
33332SOL    HW2 4554   5.931   7.825   9.963  0.9433  2.3463 -0.3842
33333SOL     OW 4555  11.655   7.489   3.440 -0.3941  0.4691  0.4425
33333SOL    HW1 4556  11.570   7.533   3.437 -0.4234  0.3988  0.2647
33333SOL    HW2 4557  11.704   7.537   3.507  0.2007  1.9121 -0.9718
33334SOL     OW 4558   6.518  10.632  11.598  0.2610  0.1180  0.2456
33334SOL    HW1 4559   6.479  10.558  11.552  0.2809  0.5756 -0.5148
33334SOL    HW2 4560   6.486  10.709  11.551 -1.0514  0.6936  1.9915
33335SOL     OW 4561   1.098   8.650   4.982 -0.5027  0.1221  0.2274
33335SOL    HW1 4562   1.082   8.651   5.077  0.8391  1.2861  0.4658
33335SOL    HW2 4563   1.123   8.559   4.964  0.6621  0.2119  1.2616
33336SOL     OW 4564   7.045   4.894  12.101  0.2252 -0.2733  0.3628
33336SOL    HW1 4565   6.964   4.926  12.062  0.8347  0.8195 -0.0652
33336SOL    HW2 4566   7.057   4.948  12.179  1.0771  0.3352 -0.1636
33337SOL     OW 4567   5.141  11.410   8.021 -0.5160  0.7262 -0.3766
33337SOL    HW1 4568   5.177  11.413   8.110  2.9287 -0.1417 -1.5706
33337SOL    HW2 4569   5.092  11.491   8.012 -1.7477  0.4303  2.5459
33338SOL     OW 4570   2.630   7.692   7.462 -0.3178  0.1126  0.5390
33338SOL    HW1 4571   2.714   7.691   7.508  0.3781  1.5034 -0.6028
33338SOL    HW2 4572   2.601   7.783   7.467 -0.7497  0.0725 -0.8150
33339SOL     OW 4573   1.910   7.462   7.158  0.3275  0.1664 -0.3217
33339SOL    HW1 4574   1.985   7.521   7.164  1.3213 -0.7727 -2.2230
33339SOL    HW2 4575   1.923   7.417   7.074 -1.0862 -1.7548  0.4209
33340SOL     OW 4576  11.007  10.352  10.200 -0.0804 -0.4684 -0.6189
33340SOL    HW1 4577  10.984  10.428  10.254  1.9226  0.5589 -1.1066
33340SOL    HW2 4578  10.931  10.294  10.207 -0.2793 -0.0197  2.6161
33341SOL     OW 4579   6.323   9.417   6.447  0.7017 -0.0221  0.0207
33341SOL    HW1 4580   6.299   9.496   6.399 -0.9821  0.0982  0.9708
33341SOL    HW2 4581   6.366   9.449   6.526 -1.5349  0.0968  1.2622
33342SOL     OW 4582   2.003   2.013  12.013 -0.2010 -0.6984  0.1136
33342SOL    HW1 4583   1.960   2.038  11.932 -0.1934  0.1053  0.3460
33342SOL    HW2 4584   2.014   1.918  12.007  0.3049 -0.5822 -1.0710
33343SOL     OW 4585   3.673   1.154   6.856  0.2859  0.4456  0.6292
33343SOL    HW1 4586   3.713   1.097   6.921 -0.3576 -1.3479 -0.4507
33343SOL    HW2 4587   3.682   1.106   6.773  0.5509  2.3703 -0.5287
33344SOL     OW 4588   2.428  11.878   2.485 -0.3270  0.5664  0.4075
33344SOL    HW1 4589   2.466  11.841   2.406  0.8365 -0.6795  1.5056
33344SOL    HW2 4590   2.498  11.927   2.526 -0.7035  0.6129  1.0199
33345SOL     OW 4591   6.068   2.491   4.751  0.1814  0.4017 -0.1328
33345SOL    HW1 4592   6.094   2.403   4.722 -1.1103 -0.3963  0.9742
33345SOL    HW2 4593   5.976   2.497   4.725  0.4874  1.8023 -0.9686
33346SOL     OW 4594   3.237   2.137   2.808  0.1209 -0.4514  0.1650
33346SOL    HW1 4595   3.320   2.118   2.851  0.0718 -0.1282  0.4088
33346SOL    HW2 4596   3.171   2.121   2.877 -0.0563 -1.1053 -0.1399
33347SOL     OW 4597   6.401   4.954   6.403  0.2747  0.6260 -0.0229
33347SOL    HW1 4598   6.492   4.950   6.431  0.3831  2.3233 -0.0047
33347SOL    HW2 4599   6.376   5.046   6.415 -1.8237 -0.0160  1.1201
33348SOL     OW 4600   5.389   1.946   6.328  0.7756  0.0928  0.5028
33348SOL    HW1 4601   5.294   1.934   6.319  0.7584  0.7149 -0.2356
33348SOL    HW2 4602   5.422   1.859   6.351 -0.3287  0.4761  4.1173
33349SOL     OW 4603  11.729   2.862   9.555 -0.0575  0.1885 -0.0357
33349SOL    HW1 4604  11.669   2.932   9.579 -0.5710 -0.0038 -0.7109
33349SOL    HW2 4605  11.709   2.790   9.616 -0.9539 -0.0965 -0.6438
33350SOL     OW 4606   5.566   9.661   2.368 -0.2228  0.1715 -0.5341
33350SOL    HW1 4607   5.601   9.739   2.324 -0.7148  1.3462  1.0474
33350SOL    HW2 4608   5.485   9.641   2.320  0.2108  0.2597 -1.3182
33351SOL     OW 4609   8.518   1.637   3.655  0.3758 -0.0368 -0.2867
33351SOL    HW1 4610   8.536   1.563   3.713  0.0010  1.0582  1.2822
33351SOL    HW2 4611   8.601   1.684   3.649 -0.3394  1.8153  2.3262
33352SOL     OW 4612   8.523  11.439   7.830  0.0575 -0.8856  0.1121
33352SOL    HW1 4613   8.607  11.395   7.812 -0.7137 -1.7735 -1.4211
33352SOL    HW2 4614   8.540  11.531   7.812  0.8087 -0.9943  0.2125
33353SOL     OW 4615   0.280   8.749  10.157 -0.0920 -0.3684  0.0587
33353SOL    HW1 4616   0.261   8.655  10.158  0.3654 -0.5594 -2.5909
33353SOL    HW2 4617   0.374   8.755  10.176  0.1236 -0.5619 -0.9057
33354SOL     OW 4618   1.302  11.870   9.029  0.5203 -0.4751 -0.3224
33354SOL    HW1 4619   1.384  11.918   9.038  1.3443 -1.7298 -0.8324
33354SOL    HW2 4620   1.321  11.783   9.064 -0.5157 -0.8564 -0.6674
33355SOL     OW 4621   7.024   2.549   6.466  0.0288 -0.1347 -0.8702
33355SOL    HW1 4622   7.072   2.626   6.435 -1.4147  1.3448  0.4081
33355SOL    HW2 4623   7.037   2.483   6.397  0.2493  1.6743 -2.6453
33356SOL     OW 4624   5.373   2.678  11.701  0.0514  0.1207 -0.4249
33356SOL    HW1 4625   5.467   2.696  11.701  0.2895 -1.0264  0.6581
33356SOL    HW2 4626   5.333   2.758  11.735  0.8234 -0.1565  1.1816
33357SOL     OW 4627   3.556   8.530   5.908 -0.7285 -0.2617 -0.8786
33357SOL    HW1 4628   3.573   8.438   5.889  0.7717 -0.0894 -0.4509
33357SOL    HW2 4629   3.600   8.578   5.838  0.1245  0.1881 -0.0435
33358SOL     OW 4630  11.580   3.508  11.549  0.0974  0.1608  0.5438
33358SOL    HW1 4631  11.641   3.435  11.536 -0.2898 -0.0028 -0.4227
33358SOL    HW2 4632  11.513   3.495  11.483  0.3607  1.7684 -0.0771
33359SOL     OW 4633  10.841  12.053   2.174  0.0942 -0.1524 -0.5371
33359SOL    HW1 4634  10.869  12.106   2.099  0.1181  1.2551  0.4556
33359SOL    HW2 4635  10.749  12.073   2.185  0.6740  1.6845  1.4158
33360SOL     OW 4636   1.264   9.029   9.697  0.0492  0.7332  0.0318
33360SOL    HW1 4637   1.179   9.038   9.654 -0.6655 -1.0762  0.9455
33360SOL    HW2 4638   1.242   9.009   9.789  1.4602  0.1039  0.2458
33361SOL     OW 4639   0.989   0.040   8.799 -0.4155  0.2727 -0.2942
33361SOL    HW1 4640   1.057   0.103   8.775  0.1553  0.0139  0.5843
33361SOL    HW2 4641   0.951   0.076   8.879  0.1197 -0.6400  0.3859
33362SOL     OW 4642   8.501   9.932   0.962  0.7985 -0.7402  0.9740
33362SOL    HW1 4643   8.422   9.935   1.016 -0.0156 -0.2152 -0.1896
33362SOL    HW2 4644   8.494   9.850   0.913  0.6979 -0.4490  0.4918
33363SOL     OW 4645   4.852   1.885   2.241 -0.3807 -0.4376  0.2551
33363SOL    HW1 4646   4.931   1.917   2.284 -0.3414 -1.5186  1.0157
33363SOL    HW2 4647   4.883   1.820   2.178 -0.4433  1.0708 -1.4270
33364SOL     OW 4648   5.769   0.180   4.398 -0.1234  0.2397  0.4338
33364SOL    HW1 4649   5.860   0.159   4.418 -0.7363 -1.3064  1.9457
33364SOL    HW2 4650   5.749   0.254   4.454  0.5287  1.4351 -0.8605
33365SOL     OW 4651   8.052   2.364   0.392 -0.4569 -0.6799  0.2439
33365SOL    HW1 4652   8.032   2.289   0.336 -0.4279 -1.1177  0.8102
33365SOL    HW2 4653   8.039   2.440   0.336 -0.5799 -1.1045 -0.3114
33366SOL     OW 4654   1.926   1.351   5.988 -0.1551 -0.3678  0.6452
33366SOL    HW1 4655   1.966   1.438   5.984 -0.3335 -0.3179 -2.4651
33366SOL    HW2 4656   2.000   1.292   6.000  0.2261  0.0746  0.5084
33367SOL     OW 4657   7.262   9.123  10.351 -0.2017 -0.2521 -0.2203
33367SOL    HW1 4658   7.311   9.128  10.434 -1.7855 -0.5886  0.7879
33367SOL    HW2 4659   7.270   9.031  10.325 -0.0061 -0.2272 -0.2513
33368SOL     OW 4660   5.380   4.898   3.558  0.9390 -0.3166 -0.3815
33368SOL    HW1 4661   5.424   4.899   3.643  0.8440 -1.5332 -0.3010
33368SOL    HW2 4662   5.289   4.920   3.577  0.6021 -1.9367  0.0564
33369SOL     OW 4663   7.429   3.541  10.985  0.1831 -0.2424 -0.6162
33369SOL    HW1 4664   7.378   3.467  10.951  0.6962 -0.6411 -0.5377
33369SOL    HW2 4665   7.509   3.541  10.933  1.1989 -1.1516  0.8490
33370SOL     OW 4666   7.577   8.621   6.139 -0.6370  0.6541  0.1334
33370SOL    HW1 4667   7.616   8.685   6.197  0.5763 -0.1193  0.2028
33370SOL    HW2 4668   7.620   8.635   6.055 -0.6718  0.2150  0.0392
33371SOL     OW 4669   0.719   0.489   3.276 -0.0649 -0.6097 -0.0852
33371SOL    HW1 4670   0.748   0.509   3.187  1.8547 -0.8461  0.4299
33371SOL    HW2 4671   0.795   0.510   3.331 -1.2177 -0.4394  1.5019
33372SOL     OW 4672   8.830   6.159   3.205 -0.3464 -0.4811  0.0171
33372SOL    HW1 4673   8.847   6.065   3.202  0.9429 -0.2667 -2.8575
33372SOL    HW2 4674   8.908   6.196   3.246  0.5352 -0.4965 -1.5633
33373SOL     OW 4675   1.648   8.229  10.967  0.5305  0.3016  0.4169
33373SOL    HW1 4676   1.735   8.232  11.007  1.0892  0.1897 -0.7629
33373SOL    HW2 4677   1.664   8.214  10.874 -0.8033 -1.3210  0.3961
33374SOL     OW 4678   0.120   1.960   3.016  0.0313  0.4290  0.1521
33374SOL    HW1 4679   0.075   1.876   3.027  0.7964 -0.1809 -1.0897
33374SOL    HW2 4680   0.205   1.947   3.058  0.9498 -0.1638 -1.7667
33375SOL     OW 4681   8.142   4.094   4.979  0.2848 -0.3154  0.5079
33375SOL    HW1 4682   8.207   4.159   5.006 -1.0466  0.8129  1.1396
33375SOL    HW2 4683   8.180   4.010   5.003  1.4802  0.3245  0.9201
33376SOL     OW 4684   5.091  10.651   1.135 -0.0302  0.5267  0.3077
33376SOL    HW1 4685   5.031  10.592   1.180 -0.3154 -0.4033 -1.2444
33376SOL    HW2 4686   5.039  10.729   1.117 -0.0181  0.7589  1.2267
33377SOL     OW 4687   7.522   0.023   6.608 -0.2100 -0.3103 -0.5866
33377SOL    HW1 4688   7.494  -0.051   6.661  1.4277 -1.6732 -1.5005
33377SOL    HW2 4689   7.590   0.065   6.660  0.6580 -1.0214 -1.1085
33378SOL     OW 4690   6.929   2.668  10.955  0.0257  0.3084 -0.2657
33378SOL    HW1 4691   7.014   2.700  10.984  0.5436  0.3647 -1.7586
33378SOL    HW2 4692   6.885   2.639  11.035  1.0682  1.1469  0.6371
33379SOL     OW 4693   6.737   0.738   1.692  0.6612 -0.0213  0.2002
33379SOL    HW1 4694   6.728   0.645   1.672  0.1132  0.2120 -0.6877
33379SOL    HW2 4695   6.658   0.778   1.656  1.3244  0.9084 -0.2584
33380SOL     OW 4696   6.689  12.093   4.390 -0.1659  0.0070 -0.4247
33380SOL    HW1 4697   6.710  12.048   4.308  0.3106  0.4368 -0.5414
33380SOL    HW2 4698   6.593  12.096   4.391 -0.2702 -2.0494  0.1536
33381SOL     OW 4699   6.646   3.941   6.071 -0.3110  0.0809  0.2779
33381SOL    HW1 4700   6.602   4.026   6.070 -0.6898 -0.0401  2.1838
33381SOL    HW2 4701   6.739   3.962   6.076 -0.4006  0.3972  0.6427
33382SOL     OW 4702   1.543   1.787   7.904 -0.3040 -0.0202 -0.1904
33382SOL    HW1 4703   1.489   1.810   7.979  0.7350 -0.5295  0.7272
33382SOL    HW2 4704   1.480   1.778   7.832 -1.4124 -0.3149  0.7851
33383SOL     OW 4705   8.849  10.059   1.689 -0.0971  0.0555  0.3315
33383SOL    HW1 4706   8.853  10.004   1.768 -1.1979 -0.2382  0.1991
33383SOL    HW2 4707   8.882  10.144   1.718 -0.9505  0.0950  1.2428
33384SOL     OW 4708  11.761   1.557   5.917 -0.2298  0.5053  0.5832
33384SOL    HW1 4709  11.737   1.517   6.001 -0.4350  0.2605  0.4090
33384SOL    HW2 4710  11.679   1.560   5.868  0.2731 -1.4182 -0.4787
33385SOL     OW 4711   8.282   4.857   6.763  0.5245 -0.3630 -0.2781
33385SOL    HW1 4712   8.227   4.803   6.707  0.1535  0.1063 -0.3775
33385SOL    HW2 4713   8.349   4.893   6.705  0.6561 -0.5579 -0.2494
33386SOL     OW 4714   2.127   2.093   4.355 -0.0114  0.0733 -0.1459
33386SOL    HW1 4715   2.164   2.082   4.267  1.2181 -1.2507  0.4920
33386SOL    HW2 4716   2.036   2.065   4.346  0.0131  0.2505 -1.0636
33387SOL     OW 4717   7.552   3.288   8.591 -0.2196  0.0168  0.1246
33387SOL    HW1 4718   7.548   3.362   8.531 -2.4155  0.8158  1.1282
33387SOL    HW2 4719   7.506   3.217   8.546  0.7436 -0.3453 -0.3093
33388SOL     OW 4720   4.547   2.026   7.038 -0.2641  0.5306 -0.2102
33388SOL    HW1 4721   4.532   1.994   7.127  2.1178 -1.2933 -0.3536
33388SOL    HW2 4722   4.466   2.006   6.992 -1.0617  0.3041  1.2402
33389SOL     OW 4723  11.934   5.546   3.167 -0.3300 -0.7733  0.0680
33389SOL    HW1 4724  11.877   5.581   3.098 -0.5750  1.2990  1.2309
33389SOL    HW2 4725  11.892   5.573   3.249  1.3211 -0.8451  0.9745
33390SOL     OW 4726   0.893   5.002   9.232  0.2536  0.5202 -0.0292
33390SOL    HW1 4727   0.867   4.953   9.310 -1.0383  0.7218 -0.3219
33390SOL    HW2 4728   0.862   4.949   9.159  1.4255  0.3527 -0.4290
33391SOL     OW 4729  10.255  11.327   2.072  0.1223 -0.4190 -0.2906
33391SOL    HW1 4730  10.193  11.400   2.082  1.0103  0.4169 -0.6512
33391SOL    HW2 4731  10.208  11.250   2.104 -1.2547  0.1084 -0.9918
33392SOL     OW 4732   2.092   5.904   7.890  0.7016 -0.1518 -0.1768
33392SOL    HW1 4733   2.133   5.891   7.805  1.8253  1.3168  0.1104
33392SOL    HW2 4734   2.003   5.933   7.870 -0.0710 -2.7183 -0.8062
33393SOL     OW 4735  11.268   1.848   3.317  0.4165 -0.2430  0.2352
33393SOL    HW1 4736  11.268   1.794   3.238 -0.3071  1.1399 -0.7495
33393SOL    HW2 4737  11.361   1.861   3.338  0.6325 -2.7353  1.1704
33394SOL     OW 4738   1.479   6.646  11.163  0.6587 -0.3405  0.4920
33394SOL    HW1 4739   1.509   6.556  11.157  0.2335 -0.5057  0.8199
33394SOL    HW2 4740   1.480   6.666  11.256  1.4269  0.2288  0.3709
33395SOL     OW 4741   6.207  10.037   9.917  0.2979 -0.0832 -0.0527
33395SOL    HW1 4742   6.182  10.013  10.007 -0.1670 -0.9113 -0.3935
33395SOL    HW2 4743   6.172  10.125   9.906 -0.5617 -0.3765  0.2311
33396SOL     OW 4744   3.047   9.315   0.262  0.0881 -0.0825 -0.6043
33396SOL    HW1 4745   2.995   9.375   0.315 -0.4051  1.1656 -2.4188
33396SOL    HW2 4746   3.133   9.358   0.254 -0.6945  1.2412 -3.1088
33397SOL     OW 4747   4.083   6.900   1.677  0.1212 -0.4487 -0.5559
33397SOL    HW1 4748   4.086   6.877   1.584 -2.2687 -4.1236  0.0801
33397SOL    HW2 4749   4.115   6.822   1.722  0.7938  1.0732  1.7994
33398SOL     OW 4750   8.038   4.916  11.674 -0.0646  0.4450 -0.9039
33398SOL    HW1 4751   8.002   4.841  11.627  1.5360  0.3317 -2.0379
33398SOL    HW2 4752   7.967   4.945  11.732 -1.9086  0.2126 -2.9206
33399SOL     OW 4753  11.695   0.786   2.445 -0.2758  0.4616  0.6195
33399SOL    HW1 4754  11.708   0.875   2.412  2.5689 -0.1880 -0.2449
33399SOL    HW2 4755  11.751   0.781   2.523  0.2763 -0.7855  0.1739
33400SOL     OW 4756   5.434  10.843   0.559  0.1695 -0.1400 -0.3980
33400SOL    HW1 4757   5.502  10.910   0.569  0.8689 -0.8436 -0.4054
33400SOL    HW2 4758   5.428  10.827   0.465  0.9761 -1.0668 -0.3057
33401SOL     OW 4759   3.991   2.768  11.813 -0.1759  0.1361 -0.3254
33401SOL    HW1 4760   3.899   2.794  11.811  0.4692  2.6911 -0.8496
33401SOL    HW2 4761   4.015   2.771  11.906 -0.8168 -1.5126 -0.0727
33402SOL     OW 4762   6.012   3.896   2.321 -0.0487  0.8328 -0.2575
33402SOL    HW1 4763   6.008   3.924   2.229  0.3011  0.6558 -0.3281
33402SOL    HW2 4764   6.053   3.810   2.318 -1.0900  0.3129 -0.0394
33403SOL     OW 4765   6.382   8.947   3.654  0.0446  0.2162  0.2275
33403SOL    HW1 4766   6.442   9.017   3.680  0.7001  0.1608 -1.0400
33403SOL    HW2 4767   6.412   8.870   3.703 -0.4828  0.7100  1.3826
33404SOL     OW 4768   1.935   6.937   2.161 -0.1208  0.3390 -0.1267
33404SOL    HW1 4769   1.992   6.861   2.148  2.2137  2.1812 -1.4556
33404SOL    HW2 4770   1.943   6.956   2.255 -3.0537 -2.5929  0.9394
33405SOL     OW 4771  11.085   9.527   1.082  0.4868  0.1098  0.8319
33405SOL    HW1 4772  10.997   9.553   1.053  0.1091 -2.2055 -0.2990
33405SOL    HW2 4773  11.143   9.564   1.015  0.2387  0.4468  0.7992
33406SOL     OW 4774   6.667   8.538  11.704  0.1140 -0.1196 -0.0064
33406SOL    HW1 4775   6.604   8.518  11.773 -0.6894 -2.0680 -1.1865
33406SOL    HW2 4776   6.636   8.620  11.666  0.4345  0.8442  1.7416
33407SOL     OW 4777  10.599  10.457  10.257  0.0311  0.6052  0.1906
33407SOL    HW1 4778  10.545  10.423  10.186  0.1190  0.1688  0.3326
33407SOL    HW2 4779  10.598  10.388  10.323 -2.3684  2.0649  1.8645
33408SOL     OW 4780   1.898   4.067  11.472  0.2709 -0.4114  0.0319
33408SOL    HW1 4781   1.875   3.975  11.472  0.7824 -0.5420 -0.1184
33408SOL    HW2 4782   1.951   4.079  11.551  0.9870 -0.4490 -0.4385
33409SOL     OW 4783   8.745   3.310   9.758 -0.2535 -0.3116 -0.0473
33409SOL    HW1 4784   8.796   3.233   9.733  2.8245  2.0063 -1.3864
33409SOL    HW2 4785   8.779   3.335   9.844 -0.5955  0.0941 -0.0229
33410SOL     OW 4786  10.499   8.567   8.251  0.2472 -0.4792 -0.4088
33410SOL    HW1 4787  10.458   8.492   8.294 -0.1190 -0.0044  0.0835
33410SOL    HW2 4788  10.458   8.571   8.164 -0.1532 -0.5015 -0.2209
33411SOL     OW 4789   8.165   8.243   6.634 -0.3087 -0.3620 -0.2212
33411SOL    HW1 4790   8.196   8.280   6.551  0.5161  1.0568  0.6978
33411SOL    HW2 4791   8.109   8.310   6.672 -2.8201 -1.9898 -0.7667
33412SOL     OW 4792   1.673   1.421   4.052  0.0939 -0.0093  0.0349
33412SOL    HW1 4793   1.704   1.491   3.995 -0.5885  0.9848  0.8590
33412SOL    HW2 4794   1.640   1.354   3.992  0.2799  0.5965 -0.7510
33413SOL     OW 4795   3.723   3.463   3.120 -0.4466  0.5850 -0.1258
33413SOL    HW1 4796   3.752   3.379   3.085  0.2917  0.3995  0.8931
33413SOL    HW2 4797   3.698   3.514   3.043  1.2238  0.2278 -0.9432
33414SOL     OW 4798  10.897   7.269   9.161  0.0572 -0.0026 -0.3747
33414SOL    HW1 4799  10.842   7.246   9.086 -0.7344  0.3629  0.0843
33414SOL    HW2 4800  10.974   7.214   9.151 -0.3787 -0.5189 -1.0352
33415SOL     OW 4801   9.817   7.754   2.838 -0.1724 -0.3303 -0.3945
33415SOL    HW1 4802   9.762   7.810   2.782  1.2976  1.6178  0.0076
33415SOL    HW2 4803   9.787   7.772   2.927 -0.7251 -1.4098 -0.3461
33416SOL     OW 4804  11.437   3.924   4.404  0.6735 -0.0174 -0.4179
33416SOL    HW1 4805  11.350   3.899   4.434  1.0662 -1.3178 -0.2798
33416SOL    HW2 4806  11.471   3.845   4.361  1.8284  0.4229 -0.3453
33417SOL     OW 4807  10.308   1.962   9.153  0.1877  0.0470  0.0969
33417SOL    HW1 4808  10.274   1.875   9.135  0.4142 -0.4767  1.9964
33417SOL    HW2 4809  10.231   2.015   9.173 -0.2365  1.0243 -3.4311
33418SOL     OW 4810  11.639   8.008   0.293  0.0236 -0.1863 -0.2916
33418SOL    HW1 4811  11.560   8.058   0.271  0.9057  1.1725 -0.4641
33418SOL    HW2 4812  11.612   7.950   0.364 -0.7583  1.3323  0.6928
33419SOL     OW 4813  12.052   5.780   8.504  0.2096 -0.1280 -0.6522
33419SOL    HW1 4814  12.100   5.701   8.478  1.1912 -0.1550  1.0729
33419SOL    HW2 4815  12.120   5.846   8.517 -0.4508  0.5294 -0.5028
33420SOL     OW 4816   6.706  10.769   2.775 -0.1299  0.1753  0.5703
33420SOL    HW1 4817   6.786  10.809   2.810  0.4389  0.3574 -0.8689
33420SOL    HW2 4818   6.736  10.718   2.700 -1.3846  0.4107 -0.1131
33421SOL     OW 4819   3.047   0.254   1.103  0.1085  0.7829  0.2561
33421SOL    HW1 4820   2.972   0.314   1.100 -0.0164  0.6301  0.2992
33421SOL    HW2 4821   3.113   0.301   1.154 -0.1345  0.7242  0.6303
33422SOL     OW 4822  11.605   5.980   1.771 -0.2055  0.1042  0.2306
33422SOL    HW1 4823  11.525   6.027   1.796 -0.5870 -0.8639  0.8910
33422SOL    HW2 4824  11.659   5.980   1.851 -0.4932 -1.1192  0.4482
33423SOL     OW 4825   5.150   2.941   6.683 -0.2012  0.9542  0.3982
33423SOL    HW1 4826   5.234   2.902   6.659  0.9170  2.1297  2.1312
33423SOL    HW2 4827   5.111   2.967   6.599 -0.0764 -1.9110 -0.6526
33424SOL     OW 4828   8.379   1.362   9.071  0.2245  0.0618 -0.2225
33424SOL    HW1 4829   8.442   1.337   9.139 -1.2352 -0.1139  1.1019
33424SOL    HW2 4830   8.313   1.294   9.072 -0.4079  0.6394 -1.0699
33425SOL     OW 4831  11.060   8.595  11.656 -0.6224  0.2650 -0.0500
33425SOL    HW1 4832  11.153   8.599  11.677 -0.2205  1.7545 -1.7931
33425SOL    HW2 4833  11.015   8.613  11.738  0.6281 -0.2418  0.7670
33426SOL     OW 4834   6.761   2.802   7.082  0.1922 -0.2437  0.9309
33426SOL    HW1 4835   6.732   2.855   7.157  1.8955 -1.4939  2.5659
33426SOL    HW2 4836   6.801   2.866   7.022  2.5305  0.4400  3.0079
33427SOL     OW 4837   0.072   5.812   5.343  0.1187 -1.0185 -0.4202
33427SOL    HW1 4838   0.153   5.860   5.324 -1.0771  0.9373 -0.8816
33427SOL    HW2 4839   0.095   5.754   5.416  2.4430 -2.0274 -1.8301
33428SOL     OW 4840   7.882   7.856   3.425 -0.2532 -0.1615 -0.4364
33428SOL    HW1 4841   7.824   7.852   3.349 -0.7896 -0.6360 -0.0133
33428SOL    HW2 4842   7.966   7.885   3.390 -0.4147 -0.6624 -1.2576
33429SOL     OW 4843  10.390   4.030  11.323 -0.1834  0.1433  0.1197
33429SOL    HW1 4844  10.333   3.959  11.292 -0.4307 -0.6646  2.2541
33429SOL    HW2 4845  10.472   3.987  11.345  0.1862  0.7834  0.0121
33430SOL     OW 4846   5.617   9.415   8.855 -0.4649  0.3721 -0.2857
33430SOL    HW1 4847   5.580   9.361   8.925  0.7060 -2.6734 -1.8409
33430SOL    HW2 4848   5.547   9.419   8.790 -1.0057  1.9169  0.3463
33431SOL     OW 4849  12.025   8.181  10.037 -0.1498  0.0458  0.4468
33431SOL    HW1 4850  11.957   8.228   9.988  0.4786 -0.3489 -0.8645
33431SOL    HW2 4851  12.038   8.100   9.987  0.2326 -0.5713  1.5191
33432SOL     OW 4852   1.420   9.379   9.136 -0.2699 -0.4059 -0.1412
33432SOL    HW1 4853   1.336   9.358   9.097 -0.5274 -1.3227  0.8569
33432SOL    HW2 4854   1.398   9.427   9.216  0.1845 -0.0531 -0.2194
33433SOL     OW 4855  11.945  11.622   7.045 -0.3463  0.1715  0.4191
33433SOL    HW1 4856  11.869  11.592   6.996 -0.8132  0.2730  1.0725
33433SOL    HW2 4857  11.910  11.653   7.128  0.1371  2.1888 -0.0665
33434SOL     OW 4858   6.956   7.454  10.221 -0.0755 -0.3357 -0.0722
33434SOL    HW1 4859   6.935   7.510  10.145  2.9658  1.4866  0.2584
33434SOL    HW2 4860   7.030   7.402  10.192  0.5296 -0.2931  1.3366
33435SOL     OW 4861   5.831   0.768   5.896 -0.5938 -0.0352  0.0588
33435SOL    HW1 4862   5.789   0.797   5.977 -1.4132  0.0583 -0.3877
33435SOL    HW2 4863   5.760   0.767   5.831 -0.2607 -1.4705 -0.3227
33436SOL     OW 4864   9.688   9.400   4.972  0.0248 -0.1509 -0.3076
33436SOL    HW1 4865   9.777   9.365   4.979  0.2448 -0.0238 -2.0855
33436SOL    HW2 4866   9.638   9.331   4.929 -1.0683 -0.6951  1.7343
33437SOL     OW 4867   1.399   5.729   1.584 -0.2999 -0.5226 -0.3896
33437SOL    HW1 4868   1.390   5.634   1.577  1.0718 -0.7176  0.1847
33437SOL    HW2 4869   1.345   5.763   1.513 -2.3204 -1.6378  0.5114
33438SOL     OW 4870   6.344   1.103   3.860 -0.2952  0.4714 -0.2255
33438SOL    HW1 4871   6.356   1.159   3.783 -0.9403  0.3502 -0.4215
33438SOL    HW2 4872   6.419   1.124   3.917 -0.0068  0.8220 -0.7234
33439SOL     OW 4873   8.356   7.576   4.693  0.4101 -0.1442  0.3378
33439SOL    HW1 4874   8.358   7.552   4.600 -1.2079  1.8360 -0.2707
33439SOL    HW2 4875   8.440   7.620   4.709  0.9347 -0.9908 -0.0053
33440SOL     OW 4876   3.865   7.951   0.626 -0.0195  0.6483  0.1760
33440SOL    HW1 4877   3.878   7.917   0.715  1.2890  0.6521  0.0042
33440SOL    HW2 4878   3.798   8.018   0.636 -0.9120 -0.3023  0.9217
33441SOL     OW 4879   2.306   5.531   4.037 -0.2135 -0.3230 -0.3812
33441SOL    HW1 4880   2.281   5.440   4.018 -0.6541 -0.1486 -0.6440
33441SOL    HW2 4881   2.397   5.538   4.007 -0.3370 -0.5380 -0.8079
33442SOL     OW 4882  10.868   9.355   8.319  0.4370  0.2253  0.1870
33442SOL    HW1 4883  10.817   9.410   8.378 -0.0008 -0.2378  0.2529
33442SOL    HW2 4884  10.951   9.342   8.364  0.1579 -0.0098  0.6521
33443SOL     OW 4885   1.992   8.771   3.105  0.2342 -0.1989 -0.4764
33443SOL    HW1 4886   2.011   8.701   3.041  0.3066 -0.5886 -0.0384
33443SOL    HW2 4887   2.040   8.847   3.071 -1.5694  0.2855 -2.1289
33444SOL     OW 4888   3.375   3.249   5.509 -0.9727  0.3876  0.0115
33444SOL    HW1 4889   3.437   3.196   5.560 -2.1990 -0.3243  0.8069
33444SOL    HW2 4890   3.349   3.192   5.436 -1.6031  0.2233  0.3581
33445SOL     OW 4891   5.194  11.340   1.034  0.9547 -0.0952  0.4248
33445SOL    HW1 4892   5.110  11.346   0.988  2.2881 -0.3836 -2.2578
33445SOL    HW2 4893   5.186  11.402   1.106 -2.5653 -2.2061  2.0898
33446SOL     OW 4894   0.783   8.009   4.781  1.1755 -0.4913 -0.3503
33446SOL    HW1 4895   0.834   7.954   4.840  0.7679  0.7047  1.1739
33446SOL    HW2 4896   0.700   7.963   4.770  0.8078 -0.1654  0.9744
33447SOL     OW 4897   5.441   3.524   4.415  0.2044 -0.5132  0.2645
33447SOL    HW1 4898   5.464   3.611   4.446 -0.5844  0.2650 -1.2132
33447SOL    HW2 4899   5.466   3.524   4.322 -0.6667 -1.5156 -0.0024
33448SOL     OW 4900   1.514  12.043   4.356 -0.1676 -0.2565 -0.4719
33448SOL    HW1 4901   1.445  12.006   4.301  1.4260 -2.5092 -1.0899
33448SOL    HW2 4902   1.474  12.122   4.395 -2.1578  0.0466 -2.8779
33449SOL     OW 4903   9.937  11.738   8.121 -0.1347 -0.6348  0.2290
33449SOL    HW1 4904   9.976  11.721   8.207  0.0330  1.9221  0.7200
33449SOL    HW2 4905   9.982  11.677   8.062  1.5893 -0.6544  1.5005
33450SOL     OW 4906   8.182   5.559  10.622  0.0253  0.7083 -0.4342
33450SOL    HW1 4907   8.132   5.599  10.693 -0.6186  1.1975 -1.1492
33450SOL    HW2 4908   8.119   5.506  10.575  0.6074 -0.1860 -0.2390
33451SOL     OW 4909   3.593  11.506   2.250 -0.1200 -0.3140  0.0863
33451SOL    HW1 4910   3.558  11.564   2.318 -0.3796  1.0359 -1.1615
33451SOL    HW2 4911   3.515  11.470   2.207  0.0468 -0.8441  0.2145
33452SOL     OW 4912  11.501   8.469   7.133 -0.1755 -0.1546 -0.1678
33452SOL    HW1 4913  11.504   8.374   7.138  1.9982 -0.0893  1.5181
33452SOL    HW2 4914  11.412   8.492   7.160 -1.0376 -1.7005 -1.5455
33453SOL     OW 4915  10.064   9.143  11.605 -0.0909 -0.7629  0.1237
33453SOL    HW1 4916  10.088   9.133  11.513  0.8890  0.6646  0.2020
33453SOL    HW2 4917  10.133   9.097  11.654 -0.0788 -0.6817  0.1834
33454SOL     OW 4918   9.645   3.766  11.961  0.1784 -0.2746 -0.0238
33454SOL    HW1 4919   9.614   3.733  11.877 -0.6580 -0.4550  0.3437
33454SOL    HW2 4920   9.720   3.710  11.983  1.7518  1.0895 -1.6089
33455SOL     OW 4921  10.311   2.094   8.713  0.4261  0.3721 -0.7213
33455SOL    HW1 4922  10.356   2.028   8.660 -0.4984 -1.2019  0.4075
33455SOL    HW2 4923  10.231   2.113   8.664 -1.0333 -1.9750  0.5664
33456SOL     OW 4924   7.095   3.778   6.204 -0.1266  0.1292  0.3892
33456SOL    HW1 4925   7.180   3.781   6.247 -0.2746  0.4181  0.6675
33456SOL    HW2 4926   7.048   3.707   6.248 -0.3150  0.4920  0.7786
33457SOL     OW 4927   2.416   8.159   8.145 -0.2146  0.1792 -0.8513
33457SOL    HW1 4928   2.472   8.083   8.157  0.1762  0.5007 -0.6446
33457SOL    HW2 4929   2.332   8.123   8.116 -0.4425 -0.4403  0.4993
33458SOL     OW 4930   7.966   3.148   7.643 -0.3630 -0.3616 -0.4706
33458SOL    HW1 4931   7.917   3.221   7.603  0.6343  1.0324  0.7173
33458SOL    HW2 4932   7.907   3.116   7.712 -0.1260  0.5550  0.1947
33459SOL     OW 4933   5.218   3.057   9.788  0.5293 -0.0044 -0.8051
33459SOL    HW1 4934   5.282   3.020   9.848 -0.4770 -1.4251 -0.5571
33459SOL    HW2 4935   5.252   3.144   9.767  2.0696 -0.3825 -0.0025
33460SOL     OW 4936   5.314   7.777   4.034  0.3383  0.6642  0.0907
33460SOL    HW1 4937   5.398   7.809   4.001 -0.1678 -0.0194 -2.0766
33460SOL    HW2 4938   5.318   7.682   4.022 -0.4451  0.5480  0.6809
33461SOL     OW 4939   2.666   8.798   9.537 -0.1763 -0.2679 -0.3311
33461SOL    HW1 4940   2.688   8.749   9.617  0.6954  0.0245 -0.3864
33461SOL    HW2 4941   2.641   8.885   9.569 -1.1998 -0.5617 -0.2784
33462SOL     OW 4942   6.203  10.645   0.833 -0.3882 -0.1491  0.4097
33462SOL    HW1 4943   6.259  10.578   0.873 -1.0508 -0.4513  0.8511
33462SOL    HW2 4944   6.238  10.656   0.745  0.6032 -0.0573  0.7989
33463SOL     OW 4945   5.269   2.397   7.130 -0.4563 -0.2579 -0.3803
33463SOL    HW1 4946   5.305   2.484   7.145 -0.6066  0.2725 -2.6965
33463SOL    HW2 4947   5.176   2.412   7.114 -1.2396 -1.2953  2.6649
33464SOL     OW 4948   8.848   3.603   2.625 -0.0381 -0.1889  0.3564
33464SOL    HW1 4949   8.902   3.675   2.657 -1.4717  0.6636  0.9624
33464SOL    HW2 4950   8.767   3.610   2.676 -0.6816 -1.4871 -0.4459
33465SOL     OW 4951   3.262  11.925  10.439 -0.1889  0.0411  0.6325
33465SOL    HW1 4952   3.189  11.987  10.446 -0.7814 -0.6075  0.3606
33465SOL    HW2 4953   3.312  11.956  10.363 -2.0515 -1.3660 -1.2744
33466SOL     OW 4954   8.317   1.254   5.354 -0.1327  0.3467 -0.2464
33466SOL    HW1 4955   8.242   1.214   5.398 -0.0692  0.8648  0.3378
33466SOL    HW2 4956   8.336   1.195   5.281 -1.6622  0.6581 -0.9235
33467SOL     OW 4957   6.320  12.003   0.598 -0.1977 -0.0230 -0.4106
33467SOL    HW1 4958   6.287  11.917   0.571  3.6158 -1.3521 -1.5143
33467SOL    HW2 4959   6.335  11.995   0.692 -2.0314  0.3091 -0.0658
33468SOL     OW 4960  11.972   6.392   3.279  0.1197 -0.6034 -0.3038
33468SOL    HW1 4961  12.010   6.412   3.193  0.6685  0.3722  0.1452
33468SOL    HW2 4962  12.048   6.386   3.337 -0.3323  0.3496  0.4141
33469SOL     OW 4963  11.783   9.529   3.672 -0.0033 -0.6523 -0.8478
33469SOL    HW1 4964  11.767   9.435   3.663 -1.2372 -0.2671 -4.3996
33469SOL    HW2 4965  11.696   9.568   3.681  0.4400  0.2289 -0.2160
33470SOL     OW 4966   9.043   1.727  10.554 -0.0462 -0.1027  0.1523
33470SOL    HW1 4967   8.979   1.684  10.497 -0.9523  0.5855  0.6381
33470SOL    HW2 4968   9.000   1.808  10.582  0.5434 -0.2307  1.4830
33471SOL     OW 4969  11.006   2.860   1.752  0.5694  0.4127  0.0495
33471SOL    HW1 4970  11.021   2.811   1.671  3.0156  1.0084  0.0714
33471SOL    HW2 4971  11.022   2.797   1.822  3.4426  1.0542  0.0729
33472SOL     OW 4972   8.918   7.590   0.301  0.4155  0.0452 -0.4328
33472SOL    HW1 4973   8.891   7.551   0.219 -1.2790 -1.5953  0.8394
33472SOL    HW2 4974   8.983   7.529   0.337  0.5583  0.3390 -0.1792
33473SOL     OW 4975   8.284   4.156   7.377  0.4573 -0.1963 -0.1394
33473SOL    HW1 4976   8.286   4.123   7.287  2.2106 -0.7132  0.0674
33473SOL    HW2 4977   8.192   4.150   7.402  0.2108 -1.7635 -1.2718
33474SOL     OW 4978   4.874   3.156   8.350 -0.1425  0.1420 -0.5289
33474SOL    HW1 4979   4.931   3.085   8.380  0.1901  0.5021 -0.3032
33474SOL    HW2 4980   4.835   3.191   8.430  1.1756  1.4702 -0.4281
33475SOL     OW 4981   9.697   6.396   7.918  0.6225 -0.4363 -0.6169
33475SOL    HW1 4982   9.711   6.407   8.012  1.6513 -0.0087 -0.8157
33475SOL    HW2 4983   9.632   6.326   7.913 -0.2836  0.2872  0.4394
33476SOL     OW 4984   1.161   9.246   9.513  0.4609 -0.6116  0.4495
33476SOL    HW1 4985   1.068   9.224   9.506  0.1812  0.7683 -0.9754
33476SOL    HW2 4986   1.171   9.281   9.601 -0.6028  0.1057  0.3060
33477SOL     OW 4987   9.831  10.371   2.447  0.2434 -0.4375 -0.1799
33477SOL    HW1 4988   9.768  10.303   2.423  0.1526 -0.7990  0.9877
33477SOL    HW2 4989   9.788  10.453   2.427 -0.3426 -0.7009 -0.0070
33478SOL     OW 4990   4.829   0.302   0.396  0.3909 -0.5091 -0.2223
33478SOL    HW1 4991   4.842   0.385   0.350  0.3263 -0.4588 -0.1495
33478SOL    HW2 4992   4.896   0.244   0.359  1.0677 -0.1477  0.3954
33479SOL     OW 4993   6.567  11.144   0.441  0.5001  0.1736  0.8744
33479SOL    HW1 4994   6.636  11.186   0.492  0.1819  2.0893 -0.1823
33479SOL    HW2 4995   6.504  11.113   0.507  1.7872 -0.6132  1.7809
33480SOL     OW 4996   2.469   2.628  11.705 -0.2599  0.1565  0.3463
33480SOL    HW1 4997   2.551   2.581  11.719 -0.1560 -0.4637 -1.8772
33480SOL    HW2 4998   2.405   2.581  11.759  0.2462 -1.3650 -0.3151
33481SOL     OW 4999   3.016   8.885  11.201  0.2884  0.6703 -0.1454
33481SOL    HW1 5000   2.967   8.964  11.224  0.6730  0.7544  0.4077
33481SOL    HW2 5001   3.097   8.891  11.253  1.0582  0.7189 -1.3208
33482SOL     OW 5002   9.470   1.858   5.868 -0.2300  0.0482  0.9106
33482SOL    HW1 5003   9.546   1.854   5.809 -0.8656  1.1233 -0.0232
33482SOL    HW2 5004   9.413   1.925   5.829 -1.9308 -1.1166  1.2776
33483SOL     OW 5005   2.335   2.689   8.070  0.1206  0.6600 -0.4581
33483SOL    HW1 5006   2.279   2.762   8.096 -0.1998 -0.3268  1.9371
33483SOL    HW2 5007   2.279   2.636   8.013 -0.3516  1.2149 -0.5245
33484SOL     OW 5008   8.049   6.613   6.140 -0.9613 -0.0206 -0.0499
33484SOL    HW1 5009   8.020   6.567   6.062  1.8515 -1.1584 -0.5284
33484SOL    HW2 5010   8.115   6.674   6.109 -0.8965  0.6219  1.2762
33485SOL     OW 5011   6.718   5.337   9.212 -0.3157  0.3866  0.0032
33485SOL    HW1 5012   6.647   5.280   9.183  0.0091  0.7196 -1.5198
33485SOL    HW2 5013   6.711   5.414   9.155  1.2324  0.4396 -0.1449
33486SOL     OW 5014  10.890   9.099   1.079  0.0510 -0.2338 -0.4031
33486SOL    HW1 5015  10.894   9.176   1.136 -1.8365 -0.8711  0.6963
33486SOL    HW2 5016  10.816   9.117   1.022  1.3657 -0.0163 -2.1096
33487SOL     OW 5017   7.064  10.435   6.152  0.0261  0.5175  0.5712
33487SOL    HW1 5018   7.155  10.444   6.123 -0.3308 -0.4523 -0.8987
33487SOL    HW2 5019   7.063  10.479   6.237  2.7941 -2.7125  2.5320
33488SOL     OW 5020   9.969   6.655   4.953 -0.2059 -0.5518  0.7181
33488SOL    HW1 5021   9.892   6.600   4.942  0.2109 -0.9997 -0.0408
33488SOL    HW2 5022  10.027   6.603   5.010 -0.8389  0.1941  2.0991
33489SOL     OW 5023   7.447  10.547   5.026 -0.0588  0.6119  0.1839
33489SOL    HW1 5024   7.476  10.538   5.117 -0.0782 -1.1066  0.0419
33489SOL    HW2 5025   7.428  10.640   5.017  1.5180  1.1136  1.4561
33490SOL     OW 5026   9.694  10.520   8.115 -0.5063 -0.4389  0.0722
33490SOL    HW1 5027   9.641  10.444   8.091 -0.1698 -0.9958  1.0456
33490SOL    HW2 5028   9.630  10.586   8.143 -0.8405 -0.1209 -1.3414
33491SOL     OW 5029   1.375  11.390   8.136  0.4447 -0.2673 -0.4523
33491SOL    HW1 5030   1.378  11.294   8.129 -0.1116 -0.3210 -0.0375
33491SOL    HW2 5031   1.314  11.407   8.208  2.6936  0.3324  1.4555
33492SOL     OW 5032  11.634   6.985   6.877 -0.7412  0.2828 -0.0144
33492SOL    HW1 5033  11.555   7.007   6.827  0.3461  0.8143 -1.5852
33492SOL    HW2 5034  11.703   6.978   6.810  0.3421 -1.1667  1.2094
33493SOL     OW 5035   6.013  11.320  12.092  0.3695  0.2452 -0.1129
33493SOL    HW1 5036   6.097  11.273  12.096 -0.0287 -0.4401  0.5473
33493SOL    HW2 5037   5.965  11.288  12.168 -0.0441  1.5107  0.1820
33494SOL     OW 5038   6.178   3.539  11.430  0.0254  0.3752  0.1079
33494SOL    HW1 5039   6.122   3.466  11.403 -0.2280  0.5355  0.1954
33494SOL    HW2 5040   6.266   3.503  11.432  0.4895  0.9312 -3.4353
33495SOL     OW 5041   8.934  11.426   0.396 -0.0388 -0.0945  0.3754
33495SOL    HW1 5042   8.887  11.497   0.439 -0.8098 -2.3633  3.6407
33495SOL    HW2 5043   8.983  11.383   0.466  2.3406 -1.3722 -1.8802
33496SOL     OW 5044   6.483   9.463   2.436 -0.2004 -0.1233 -0.4506
33496SOL    HW1 5045   6.479   9.416   2.520  0.6745  0.0191 -0.3137
33496SOL    HW2 5046   6.422   9.417   2.379 -1.1810  0.0786  0.4169
33497SOL     OW 5047   4.875   6.310  10.754  0.0098 -0.4501 -0.0599
33497SOL    HW1 5048   4.816   6.351  10.818 -0.5338  1.5029 -1.6987
33497SOL    HW2 5049   4.942   6.268  10.808 -0.1949  1.4273  1.8111
33498SOL     OW 5050   6.218  10.901   8.024 -0.0495  0.1989 -0.4454
33498SOL    HW1 5051   6.282  10.940   8.083 -0.7248  0.3839  0.1695
33498SOL    HW2 5052   6.178  10.830   8.074  0.1089 -0.3269 -1.0447
33499SOL     OW 5053   7.494   5.645   3.176 -0.2440  0.3028 -0.2671
33499SOL    HW1 5054   7.517   5.714   3.237 -0.8951  0.1587  0.1485
33499SOL    HW2 5055   7.412   5.675   3.135  0.3306  0.5384 -1.2920
33500SOL     OW 5056   0.734   2.003   1.409 -0.7393  0.0607 -0.4859
33500SOL    HW1 5057   0.673   1.947   1.361  0.0417 -1.2843  0.0582
33500SOL    HW2 5058   0.775   2.057   1.341 -3.7340  2.2964 -0.7214
33501SOL     OW 5059   2.142   9.331   5.518  0.4373 -0.8093 -0.4585
33501SOL    HW1 5060   2.122   9.339   5.425 -0.5704 -1.3774 -0.3029
33501SOL    HW2 5061   2.168   9.240   5.530 -0.0909 -0.9095 -0.0616
33502SOL     OW 5062   8.301  11.569   8.153  0.0888 -0.1870  0.3100
33502SOL    HW1 5063   8.265  11.538   8.236 -0.3202  0.9421  0.5662
33502SOL    HW2 5064   8.267  11.507   8.088  0.4446 -1.0968  0.9714
33503SOL     OW 5065   4.322   9.835   7.064  0.1230  0.1991  0.1203
33503SOL    HW1 5066   4.268   9.850   7.142 -0.5115  0.0511 -0.2823
33503SOL    HW2 5067   4.269   9.869   6.992 -0.2517 -1.6023 -0.5098
33504SOL     OW 5068   3.297   8.777   0.721 -0.3785 -0.1584  0.2781
33504SOL    HW1 5069   3.243   8.713   0.675  0.3009 -0.4608 -0.1252
33504SOL    HW2 5070   3.323   8.839   0.653  2.7562 -2.0058 -0.4486
33505SOL     OW 5071   4.054   0.775   9.717 -0.7053  0.3378  0.2732
33505SOL    HW1 5072   4.007   0.841   9.768  0.2841  0.4827  1.0315
33505SOL    HW2 5073   4.136   0.818   9.692 -0.0386 -0.5988  0.7959
33506SOL     OW 5074   9.871   0.962   8.889 -0.5372  0.1985  0.8590
33506SOL    HW1 5075   9.918   1.044   8.879 -0.2134 -0.2235 -2.0038
33506SOL    HW2 5076   9.780   0.988   8.902 -0.6427  1.1193 -1.2139
33507SOL     OW 5077   7.627   7.785   6.066 -0.2348  0.2140 -0.2554
33507SOL    HW1 5078   7.703   7.729   6.054 -0.0851  0.1351  0.8860
33507SOL    HW2 5079   7.610   7.783   6.161 -1.3670  0.6038 -0.4257
33508SOL     OW 5080  10.165   8.818   8.663  0.0433 -0.2393 -0.1406
33508SOL    HW1 5081  10.071   8.830   8.656  0.1553  1.1016  0.3165
33508SOL    HW2 5082  10.184   8.829   8.756  0.6376 -0.6166 -0.2107
33509SOL     OW 5083   5.636  11.854   6.446 -0.6141 -0.1275  0.2952
33509SOL    HW1 5084   5.687  11.922   6.491 -2.3907  0.7265  1.1070
33509SOL    HW2 5085   5.545  11.874   6.466 -1.3856 -0.9809 -1.9970
33510SOL     OW 5086  12.100   5.655   0.452 -0.0984 -0.4352  0.2363
33510SOL    HW1 5087  12.012   5.621   0.436  0.9537 -3.3647  0.0339
33510SOL    HW2 5088  12.106   5.662   0.547 -0.7030  0.3171  0.2294
33511SOL     OW 5089   5.492  10.565   7.762 -0.1741 -0.4864 -0.7902
33511SOL    HW1 5090   5.427  10.509   7.804  0.6655  0.2993  1.7126
33511SOL    HW2 5091   5.441  10.625   7.707 -1.6000  0.1487  1.1409
33512SOL     OW 5092   8.890   8.850   3.109  0.5046  0.2475  0.3640
33512SOL    HW1 5093   8.932   8.885   3.030 -2.0905  0.5421 -0.9882
33512SOL    HW2 5094   8.938   8.889   3.181  1.8275  1.4104 -1.0783
33513SOL     OW 5095  11.012   8.787   5.535 -0.7078  0.3164 -0.4245
33513SOL    HW1 5096  10.951   8.723   5.573 -2.1364  0.8154 -1.7857
33513SOL    HW2 5097  11.099   8.750   5.552 -1.3984 -0.8366  0.8235
33514SOL     OW 5098   2.032  11.676   5.935  0.0193 -0.1455  0.0710
33514SOL    HW1 5099   2.067  11.714   5.855  1.0593 -1.0370  0.0878
33514SOL    HW2 5100   1.938  11.669   5.919  0.0226  0.9800 -0.5172
33515SOL     OW 5101   6.174   7.354  10.640  0.3488 -0.0668 -0.0402
33515SOL    HW1 5102   6.250   7.401  10.604 -0.5503  0.5442 -1.1966
33515SOL    HW2 5103   6.157   7.284  10.577 -0.4794  0.2351 -0.1598
33516SOL     OW 5104   0.893   4.062  11.639  0.1907  0.0166 -0.3721
33516SOL    HW1 5105   0.927   4.026  11.721 -0.6390 -0.6575 -0.3081
33516SOL    HW2 5106   0.942   4.017  11.570  1.6581  1.3698 -0.2533
33517SOL     OW 5107   2.164   0.848   0.348 -0.1488 -0.6652 -0.0814
33517SOL    HW1 5108   2.151   0.833   0.442  1.3622 -2.3693 -0.0759
33517SOL    HW2 5109   2.119   0.931   0.330 -0.2386 -0.1512  2.1929
33518SOL     OW 5110   5.360   6.390   1.889 -0.1712  0.4963 -0.1903
33518SOL    HW1 5111   5.273   6.402   1.851 -1.2727  1.5338  2.3881
33518SOL    HW2 5112   5.388   6.479   1.910  1.6083  0.1815 -1.0748
33519SOL     OW 5113   8.583  12.005   9.349 -0.2926 -0.2997 -0.6776
33519SOL    HW1 5114   8.545  12.001   9.261 -0.3991 -0.8245 -0.6074
33519SOL    HW2 5115   8.507  12.004   9.407 -0.1773 -1.8430 -0.5189
33520SOL     OW 5116   0.792   5.384  11.716 -0.1289  0.0253 -0.4265
33520SOL    HW1 5117   0.795   5.463  11.768  1.3920 -0.6730  0.6023
33520SOL    HW2 5118   0.883   5.356  11.708 -0.6284 -1.6335 -0.7282
33521SOL     OW 5119  11.560   1.199   1.312 -0.4529 -0.0079  0.9549
33521SOL    HW1 5120  11.608   1.119   1.327 -1.5089 -0.1478  4.2901
33521SOL    HW2 5121  11.484   1.172   1.260  0.6746 -0.5430 -0.4983
33522SOL     OW 5122  10.429   8.338  11.310  0.0002 -0.0067  0.2183
33522SOL    HW1 5123  10.440   8.287  11.230  2.2930 -1.0548  1.1183
33522SOL    HW2 5124  10.421   8.428  11.281 -0.5702 -0.4909 -1.2240
33523SOL     OW 5125   7.069   3.520  10.145 -0.1027  0.3634 -0.2547
33523SOL    HW1 5126   7.035   3.514  10.056 -0.0655 -0.9421 -0.1893
33523SOL    HW2 5127   6.991   3.527  10.200 -0.2359 -1.2654 -0.2111
33524SOL     OW 5128   5.418   5.131   7.057 -0.1532  0.0165  0.3894
33524SOL    HW1 5129   5.437   5.217   7.096 -1.7748  1.3654 -1.6328
33524SOL    HW2 5130   5.364   5.087   7.122 -1.1053  1.4049  0.5750
33525SOL     OW 5131   3.498   0.868  11.350 -0.0851  0.0714 -0.2971
33525SOL    HW1 5132   3.578   0.820  11.371 -0.1206 -0.5645 -1.5185
33525SOL    HW2 5133   3.429   0.801  11.350 -0.4967  0.4888  0.0233
33526SOL     OW 5134   2.326   8.108   2.024  0.0400  0.1989 -0.2627
33526SOL    HW1 5135   2.405   8.069   2.063  1.2883  1.5486 -1.3387
33526SOL    HW2 5136   2.319   8.068   1.937  0.7385  1.5549 -0.9683
33527SOL     OW 5137   6.731   6.184   6.309  0.2617  0.3885 -0.5371
33527SOL    HW1 5138   6.763   6.261   6.263 -0.1045  0.1104 -1.2741
33527SOL    HW2 5139   6.763   6.194   6.399  0.9957  0.9324 -0.8550
33528SOL     OW 5140   6.386   8.728   5.695  0.0040 -0.3439  0.7860
33528SOL    HW1 5141   6.303   8.770   5.720 -0.0452  0.0614 -0.0253
33528SOL    HW2 5142   6.361   8.667   5.625  0.6657  1.3189 -0.9891
33529SOL     OW 5143   6.729   1.656   5.188 -0.0902 -0.0779  0.1864
33529SOL    HW1 5144   6.687   1.582   5.144  1.1041 -2.5496  2.8421
33529SOL    HW2 5145   6.821   1.632   5.193 -0.0643  0.1839  3.4896
33530SOL     OW 5146  11.480   5.583   1.857  0.3305 -0.6551 -0.1507
33530SOL    HW1 5147  11.444   5.495   1.845  0.7836 -0.8869  0.1530
33530SOL    HW2 5148  11.506   5.586   1.949 -0.3911  0.0701  0.0430
33531SOL     OW 5149   5.145   4.036   4.353  0.2177 -0.2895 -0.1779
33531SOL    HW1 5150   5.143   3.958   4.298  1.9665  0.1833 -0.9838
33531SOL    HW2 5151   5.149   4.002   4.443  0.8887 -1.1494 -0.5178
33532SOL     OW 5152   1.024   5.508   9.283  0.2996  0.2550 -0.1983
33532SOL    HW1 5153   1.000   5.417   9.305  0.7143  0.7086  2.5822
33532SOL    HW2 5154   1.100   5.499   9.227 -0.7208 -1.1110 -1.4548
33533SOL     OW 5155   6.964  11.075   2.758  0.3133 -0.1562  0.4552
33533SOL    HW1 5156   6.931  11.065   2.669  0.1653 -0.5889  0.5570
33533SOL    HW2 5157   6.992  11.167   2.764  0.0987 -0.0660  0.0423
33534SOL     OW 5158   5.073   4.435   4.400  0.3730  0.1541  0.4379
33534SOL    HW1 5159   4.983   4.426   4.432 -0.0348  1.4977 -0.2615
33534SOL    HW2 5160   5.085   4.358   4.344 -1.6370  1.6555 -2.3018
33535SOL     OW 5161   1.874   8.632   0.932 -0.3570 -0.7293  0.1621
33535SOL    HW1 5162   1.957   8.618   0.888 -0.5237 -1.7612  0.1589
33535SOL    HW2 5163   1.889   8.606   1.023 -0.2799  0.4875  0.5197
33536SOL     OW 5164   7.708   9.143  10.276 -0.3686  0.2459  0.3692
33536SOL    HW1 5165   7.650   9.067  10.282  0.4650 -0.5177 -0.8040
33536SOL    HW2 5166   7.776   9.116  10.214  1.2939  1.0854  1.7502
33537SOL     OW 5167   8.493   7.925   9.355 -0.0049  0.3805  0.1922
33537SOL    HW1 5168   8.430   7.866   9.396  0.2282 -1.3574 -1.7842
33537SOL    HW2 5169   8.447   8.009   9.349 -0.6795  0.2080  2.2619
33538SOL     OW 5170  10.812   7.818   0.875  0.4783  0.0391 -0.0583
33538SOL    HW1 5171  10.858   7.740   0.908  0.5104  0.8704  2.0484
33538SOL    HW2 5172  10.737   7.827   0.934 -0.3518  0.7804 -1.1949
33539SOL     OW 5173   5.492   0.797   4.454  0.1762  0.1336 -0.4343
33539SOL    HW1 5174   5.533   0.766   4.535 -0.5622 -0.6244 -0.3385
33539SOL    HW2 5175   5.530   0.742   4.385  0.3599  0.3796 -0.5320
33540SOL     OW 5176   8.145   0.299  11.727  0.4710 -0.3099  0.0257
33540SOL    HW1 5177   8.098   0.217  11.746 -2.1068  0.8267 -0.9786
33540SOL    HW2 5178   8.211   0.274  11.663 -1.3502 -1.4103 -1.5460
33541SOL     OW 5179  10.748  10.729   9.603 -0.2224 -0.0069  0.2796
33541SOL    HW1 5180  10.692  10.736   9.525 -0.1412 -2.4752 -0.0638
33541SOL    HW2 5181  10.835  10.711   9.568  0.3946  1.5770  0.9041
33542SOL     OW 5182   3.501   0.456  11.332 -0.2525  0.0738 -0.0808
33542SOL    HW1 5183   3.592   0.481  11.340  0.1732 -0.8286 -1.6372
33542SOL    HW2 5184   3.476   0.482  11.243 -0.7043 -1.9965 -0.6183
33543SOL     OW 5185   3.874   1.136   7.505  0.1483 -0.0229 -0.0318
33543SOL    HW1 5186   3.864   1.223   7.544 -0.9557  0.4968 -1.3734
33543SOL    HW2 5187   3.816   1.080   7.556 -0.1060  0.3204  0.0641
33544SOL     OW 5188   7.432   9.419   7.477 -0.9226 -0.1939 -0.0032
33544SOL    HW1 5189   7.503   9.451   7.532 -0.2180 -0.5363 -0.6950
33544SOL    HW2 5190   7.441   9.469   7.395 -2.3006  0.7213  0.3624
33545SOL     OW 5191   1.311   8.437  10.706 -0.0567 -0.4985  0.2172
33545SOL    HW1 5192   1.291   8.529  10.724 -0.5418 -0.8387  1.5978
33545SOL    HW2 5193   1.402   8.437  10.677 -0.0508  0.4130  0.2174
33546SOL     OW 5194   5.270  11.733   6.293  0.5236  0.0226 -0.2567
33546SOL    HW1 5195   5.192  11.777   6.260 -0.0181 -0.5761  0.1770
33546SOL    HW2 5196   5.256  11.641   6.271  0.5886 -0.2456  0.7629
33547SOL     OW 5197   6.196   3.229   7.697 -1.1146  0.0288  0.5444
33547SOL    HW1 5198   6.107   3.225   7.662 -1.4207  0.2745  1.2742
33547SOL    HW2 5199   6.253   3.218   7.620 -1.7340  2.0823 -0.2955
33548SOL     OW 5200   1.831   9.409   7.340  0.1239 -0.4315 -0.4552
33548SOL    HW1 5201   1.739   9.435   7.348 -0.0459 -1.0466 -0.3220
33548SOL    HW2 5202   1.867   9.466   7.273  0.2399  1.4045  1.0914
33549SOL     OW 5203   8.765   7.849   9.346 -0.0381 -0.7738  0.0451
33549SOL    HW1 5204   8.797   7.906   9.416 -0.4633  1.4389 -1.4467
33549SOL    HW2 5205   8.677   7.881   9.328  0.3512 -0.7408 -1.9938
33550SOL     OW 5206  11.559   4.680   5.550 -0.1719 -0.4912  0.3214
33550SOL    HW1 5207  11.617   4.731   5.607 -0.4103 -0.6041  0.6682
33550SOL    HW2 5208  11.579   4.711   5.461 -0.9700  0.8923  0.5951
33551SOL     OW 5209   4.127   2.143   2.309  0.1903  0.7203 -0.4954
33551SOL    HW1 5210   4.047   2.091   2.323  0.2945  0.6966  0.0343
33551SOL    HW2 5211   4.153   2.123   2.219  1.5475 -2.0193  0.3915
33552SOL     OW 5212   7.479   5.451   8.947  0.9400  0.8483  0.0962
33552SOL    HW1 5213   7.408   5.412   8.898  0.2337 -0.0995  1.7922
33552SOL    HW2 5214   7.557   5.403   8.919  0.5136  0.1546  0.0784
33553SOL     OW 5215   3.972   2.596   5.920 -0.0009 -0.0115 -0.2546
33553SOL    HW1 5216   3.902   2.660   5.907  0.1485  0.1914 -0.0657
33553SOL    HW2 5217   3.970   2.543   5.840 -1.9465 -1.5683  0.7337
33554SOL     OW 5218   0.064   2.317  10.220 -0.1980 -0.4581  0.4303
33554SOL    HW1 5219   0.111   2.360  10.149  0.9462 -0.4429  1.1798
33554SOL    HW2 5220   0.088   2.224  10.211 -2.2975 -0.9563 -0.9058
33555SOL     OW 5221  10.647   7.353   0.231 -0.3419  0.0536 -0.4423
33555SOL    HW1 5222  10.629   7.425   0.171 -1.3784 -0.5173 -0.8482
33555SOL    HW2 5223  10.621   7.385   0.317  0.0915  0.4835 -0.4683
33556SOL     OW 5224   7.150   2.734   0.990 -0.4656 -0.1859 -0.0839
33556SOL    HW1 5225   7.212   2.805   1.006 -0.2643 -0.3860  0.0396
33556SOL    HW2 5226   7.186   2.660   1.040 -0.2573 -0.5901 -0.8224
33557SOL     OW 5227   4.098   5.673   7.284  0.1159 -0.2261  0.1850
33557SOL    HW1 5228   4.011   5.644   7.310 -0.1815 -0.0907 -0.6348
33557SOL    HW2 5229   4.083   5.751   7.231  0.8061  0.4062  0.8973
33558SOL     OW 5230   4.231   2.579   9.570 -0.0121  0.4521  0.4159
33558SOL    HW1 5231   4.198   2.557   9.657  0.2466 -1.9919 -0.0358
33558SOL    HW2 5232   4.326   2.584   9.580 -0.0436  1.0055  0.4399
33559SOL     OW 5233   8.421   4.213   8.530  0.2374  0.1409 -0.1877
33559SOL    HW1 5234   8.366   4.245   8.601  0.7621  1.0578 -0.1833
33559SOL    HW2 5235   8.452   4.292   8.486 -1.1049 -0.4069 -2.2659
33560SOL     OW 5236  11.860   6.185   6.152  0.2713 -0.2468  0.2568
33560SOL    HW1 5237  11.905   6.203   6.234  1.7945 -1.6495 -0.2142
33560SOL    HW2 5238  11.772   6.222   6.164  0.7955  0.5276  2.0814
33561SOL     OW 5239   6.171   2.959   0.831 -0.0953  0.0178  0.1196
33561SOL    HW1 5240   6.251   3.011   0.820  0.2619 -0.2641  1.3047
33561SOL    HW2 5241   6.108   3.019   0.871  0.1421 -0.2930  0.9747
33562SOL     OW 5242  11.663  11.946  11.853 -0.4596  0.5812 -0.4778
33562SOL    HW1 5243  11.740  11.942  11.910 -1.8911 -1.9367  1.5220
33562SOL    HW2 5244  11.671  11.869  11.797 -0.5272  1.4501 -1.7132
33563SOL     OW 5245  12.114   0.711   9.539 -0.4711  0.5915 -0.1627
33563SOL    HW1 5246  12.205   0.736   9.523 -0.3476 -0.6974 -1.7501
33563SOL    HW2 5247  12.117   0.657   9.618  0.4807 -0.9737 -1.2043
33564SOL     OW 5248   1.194   6.851   7.450 -0.5689  0.3705 -0.8082
33564SOL    HW1 5249   1.173   6.771   7.402 -1.2628 -0.8528  1.4469
33564SOL    HW2 5250   1.163   6.921   7.392 -1.2273 -1.0052 -2.2122
33565SOL     OW 5251   8.787   5.016   3.285  0.2378  0.0526 -0.4876
33565SOL    HW1 5252   8.825   5.048   3.367 -0.8882  1.3392 -0.4377
33565SOL    HW2 5253   8.694   5.037   3.292 -0.1334 -1.1079 -1.5076
33566SOL     OW 5254  10.141   9.442   5.389  0.5807 -0.2754  0.1977
33566SOL    HW1 5255  10.064   9.465   5.441  0.4386  0.5398 -0.3533
33566SOL    HW2 5256  10.164   9.353   5.418 -0.3222 -0.3731  0.6488
33567SOL     OW 5257   3.675   6.351   4.097  0.0384  0.3159  0.1624
33567SOL    HW1 5258   3.717   6.320   4.017 -0.6310 -1.7662  0.5318
33567SOL    HW2 5259   3.701   6.287   4.164  0.0077  1.6059  1.4541
33568SOL     OW 5260   8.373   2.489   0.515 -0.9181 -0.5212  0.1409
33568SOL    HW1 5261   8.305   2.434   0.554 -1.4509 -0.4673 -0.6900
33568SOL    HW2 5262   8.424   2.521   0.589 -2.1926 -0.0525  0.8363
33569SOL     OW 5263   1.906   1.750   9.122 -0.2553 -0.6042 -0.1077
33569SOL    HW1 5264   1.959   1.830   9.124 -0.9224 -0.1620  0.0604
33569SOL    HW2 5265   1.897   1.725   9.214 -2.2716  0.6314  0.0907
33570SOL     OW 5266   4.844   7.950   2.768  0.0761  0.5731  0.2585
33570SOL    HW1 5267   4.847   7.947   2.863 -0.1963  1.1955  0.2923
33570SOL    HW2 5268   4.791   8.028   2.748 -1.2107 -0.4236 -0.3790
33571SOL     OW 5269   7.150   8.722   3.533  0.1657  0.2399 -0.3613
33571SOL    HW1 5270   7.142   8.692   3.623  0.1462 -1.3901 -0.8851
33571SOL    HW2 5271   7.241   8.704   3.509 -0.1727 -0.5651 -1.0838
33572SOL     OW 5272   5.206  11.917   9.931 -0.1398 -0.0481  0.2207
33572SOL    HW1 5273   5.142  11.876   9.873 -1.4165  1.0784  0.7844
33572SOL    HW2 5274   5.220  12.004   9.894  2.0807 -0.7016 -0.6223
33573SOL     OW 5275   0.083   5.983   6.270 -0.9698 -0.6508 -0.3265
33573SOL    HW1 5276   0.003   5.931   6.272 -1.1522 -0.3898 -0.9068
33573SOL    HW2 5277   0.133   5.948   6.196 -0.1513 -1.3864  0.5321
33574SOL     OW 5278   0.411   5.354   5.685  0.3095  0.0041  0.4129
33574SOL    HW1 5279   0.413   5.446   5.660  0.0097 -0.0799  0.0663
33574SOL    HW2 5280   0.503   5.329   5.694  0.3921  0.7898  2.2213
33575SOL     OW 5281   8.008   6.105   2.065  0.2515  0.6410  0.0980
33575SOL    HW1 5282   8.008   6.169   1.994 -2.0357  0.6850  0.0758
33575SOL    HW2 5283   7.983   6.022   2.023  0.6511  0.2753  0.5631
33576SOL     OW 5284   5.647   8.613  11.575  0.1171 -0.1095 -0.1526
33576SOL    HW1 5285   5.625   8.701  11.607  0.4367  0.4735 -1.4668
33576SOL    HW2 5286   5.563   8.569  11.567 -0.3545  1.0351 -2.1148
33577SOL     OW 5287   2.411   8.931   5.006  0.1950  0.0888 -0.0466
33577SOL    HW1 5288   2.414   9.019   5.043 -0.4534 -0.0638  0.3964
33577SOL    HW2 5289   2.345   8.936   4.937  0.7617  0.1527 -0.5887
33578SOL     OW 5290   3.355   6.703   4.416  0.7586 -0.3086  0.0442
33578SOL    HW1 5291   3.275   6.746   4.447  0.7282  0.4259 -0.9995
33578SOL    HW2 5292   3.323   6.623   4.373  0.5187  0.2329 -0.8147
33579SOL     OW 5293   8.964   9.919   9.911 -0.1912  0.6866 -0.2038
33579SOL    HW1 5294   8.948   9.950  10.000 -0.7429  0.2808 -0.1545
33579SOL    HW2 5295   8.904   9.845   9.900  0.6872 -0.0011 -0.5119
33580SOL     OW 5296   9.158   2.724   0.334  0.3170 -0.1393  0.1183
33580SOL    HW1 5297   9.205   2.678   0.403  1.1040  0.8785  0.2913
33580SOL    HW2 5298   9.096   2.781   0.381  0.3904  0.0668 -0.0323
33581SOL     OW 5299   9.282   8.478   9.785 -0.4872 -0.0202 -0.0308
33581SOL    HW1 5300   9.256   8.403   9.732 -0.1426  0.1205 -0.4053
33581SOL    HW2 5301   9.334   8.441   9.856  0.6062 -0.0484 -0.8203
33582SOL     OW 5302  11.879   0.564   2.355  0.2571 -0.1325  0.1661
33582SOL    HW1 5303  11.820   0.638   2.368  0.2274 -0.3152  1.1085
33582SOL    HW2 5304  11.821   0.488   2.345  0.3125 -0.4924  2.2042
33583SOL     OW 5305  12.123   8.347   8.099  0.1524  0.0708 -0.1507
33583SOL    HW1 5306  12.052   8.313   8.044  0.9450  0.3010 -1.3536
33583SOL    HW2 5307  12.107   8.441   8.103  0.9050  0.2556 -1.2149
33584SOL     OW 5308  10.134   2.874   7.968  0.5548  0.2409  0.5864
33584SOL    HW1 5309  10.203   2.940   7.975  0.3045  0.4434  1.2733
33584SOL    HW2 5310  10.174   2.794   8.004  1.5970 -0.6243 -2.2172
33585SOL     OW 5311   9.566   9.493   3.802 -0.4356 -0.0210  0.4686
33585SOL    HW1 5312   9.494   9.551   3.777 -1.9235 -1.5329  1.0165
33585SOL    HW2 5313   9.616   9.544   3.866 -0.1765  1.5710 -0.9307
33586SOL     OW 5314   8.314   3.864   5.039  0.0794 -0.1332 -0.5973
33586SOL    HW1 5315   8.390   3.922   5.034 -0.6315  0.9521  0.5217
33586SOL    HW2 5316   8.328   3.815   5.120  0.1436 -0.7567 -0.9838
33587SOL     OW 5317   5.235   2.313   2.996 -0.4039 -0.7241 -0.6140
33587SOL    HW1 5318   5.181   2.295   3.072 -0.5612 -1.1169 -0.8181
33587SOL    HW2 5319   5.185   2.377   2.945  1.3775  2.6719  1.5108
33588SOL     OW 5320  12.121  10.159   9.525 -0.0558  0.0676  0.6475
33588SOL    HW1 5321  12.169  10.100   9.584  2.1917  0.0686 -1.0632
33588SOL    HW2 5322  12.104  10.237   9.578 -1.4276 -1.3146  2.3792
33589SOL     OW 5323   4.078  10.494  10.668  0.4552  0.5284  0.0301
33589SOL    HW1 5324   4.146  10.561  10.683  0.8123 -0.3113  2.7937
33589SOL    HW2 5325   4.013  10.511  10.737 -1.7968  0.7812 -2.0427
33590SOL     OW 5326   1.592   7.882   9.600 -0.1726  0.1129 -0.4531
33590SOL    HW1 5327   1.653   7.891   9.674 -0.6169  1.3860 -0.2122
33590SOL    HW2 5328   1.577   7.971   9.570 -0.5092 -0.3334 -1.6888
33591SOL     OW 5329   2.064  11.491   4.313  1.1256  0.4293  0.0828
33591SOL    HW1 5330   2.070  11.406   4.357  1.0227 -0.0807 -0.8594
33591SOL    HW2 5331   1.991  11.482   4.252  1.2231  1.1323 -0.1500
33592SOL     OW 5332   9.919   8.943   3.171 -0.3453 -0.0342  0.3713
33592SOL    HW1 5333   9.931   8.877   3.239  0.4955  1.4996  1.7862
33592SOL    HW2 5334  10.006   8.979   3.156 -0.8563  1.1505  0.0676
33593SOL     OW 5335   6.021   4.795   5.596  0.3092 -0.0065  0.5277
33593SOL    HW1 5336   5.969   4.716   5.580  1.3445 -0.9325  1.5569
33593SOL    HW2 5337   6.111   4.767   5.587  0.7893  0.5218  3.0258
33594SOL     OW 5338   0.900  12.122   2.035  0.4314  0.1636 -0.1508
33594SOL    HW1 5339   0.985  12.112   2.077 -0.2542 -0.5251  1.1320
33594SOL    HW2 5340   0.868  12.207   2.064  1.4854  1.3658 -2.2286
33595SOL     OW 5341   5.983   6.440   3.056 -0.0171 -0.5289  0.5448
33595SOL    HW1 5342   6.075   6.421   3.037 -0.2484 -0.1913 -1.1217
33595SOL    HW2 5343   5.935   6.395   2.986 -0.8870  1.9547 -0.5618
33596SOL     OW 5344   0.569   2.322   8.597  0.0094  0.2706 -0.5978
33596SOL    HW1 5345   0.481   2.355   8.580 -0.8801 -1.6716  0.0151
33596SOL    HW2 5346   0.579   2.248   8.538  0.2699 -1.0199  1.0008
33597SOL     OW 5347   3.034   6.009   5.648  0.1507 -0.1746  0.3183
33597SOL    HW1 5348   3.068   5.959   5.723 -2.1213 -1.7405  0.4032
33597SOL    HW2 5349   2.956   6.053   5.681 -2.2607 -2.7000 -1.4994
33598SOL     OW 5350   7.827   7.025   5.641 -0.2826  0.0522  0.3285
33598SOL    HW1 5351   7.819   6.984   5.555  0.9179  1.1212 -0.3312
33598SOL    HW2 5352   7.759   6.984   5.694 -2.2112  0.5990 -1.5945
33599SOL     OW 5353   7.556  11.146   1.272 -0.4064  0.0623 -0.1748
33599SOL    HW1 5354   7.555  11.179   1.183 -1.6332  0.2838 -0.0878
33599SOL    HW2 5355   7.553  11.050   1.262 -1.0435  0.0982 -0.3729
33600SOL     OW 5356   0.621   1.296   5.516 -0.2428  0.4852 -0.5259
33600SOL    HW1 5357   0.569   1.301   5.596 -0.0325  0.7234 -0.3990
33600SOL    HW2 5358   0.638   1.388   5.493 -2.2647  0.5184 -2.1504
33601SOL     OW 5359   1.790   7.875   4.373  0.1112  0.3618  0.1812
33601SOL    HW1 5360   1.699   7.893   4.396 -0.4510 -1.8108 -0.1190
33601SOL    HW2 5361   1.817   7.806   4.433  1.0141 -0.2098 -0.8429
33602SOL     OW 5362   2.831   7.785  11.314 -0.2119  0.0259  0.4020
33602SOL    HW1 5363   2.806   7.865  11.359 -0.9441 -1.7029  3.3031
33602SOL    HW2 5364   2.753   7.760  11.264 -0.8283 -0.1235  1.4243
33603SOL     OW 5365   7.519   3.061   0.541  0.2004  0.9789 -0.3735
33603SOL    HW1 5366   7.457   3.068   0.468 -1.0275 -1.0490  0.3991
33603SOL    HW2 5367   7.597   3.021   0.503 -0.6671 -0.6612 -0.4776
33604SOL     OW 5368   6.304   6.461   3.274 -0.3537  0.4183 -0.0187
33604SOL    HW1 5369   6.344   6.458   3.187  0.2125 -0.3539  0.2556
33604SOL    HW2 5370   6.234   6.396   3.270 -0.0921  0.1178  0.2044
33605SOL     OW 5371  10.447   9.036   0.864  0.1495 -0.3171 -0.5508
33605SOL    HW1 5372  10.444   8.955   0.812 -0.3766 -0.7894  0.1809
33605SOL    HW2 5373  10.441   9.006   0.954 -0.8356  0.5706 -0.2922
33606SOL     OW 5374   3.557  10.617   2.949 -0.3636  0.4274 -0.8270
33606SOL    HW1 5375   3.529  10.599   2.859  0.6344 -0.7323 -0.9291
33606SOL    HW2 5376   3.491  10.575   3.004  0.5986 -1.5336 -1.0631
33607SOL     OW 5377   1.326   6.048   0.855 -0.4008 -0.1975 -0.2721
33607SOL    HW1 5378   1.293   5.966   0.817 -0.2642 -1.3341  1.8760
33607SOL    HW2 5379   1.274   6.059   0.935 -0.3185  1.7725 -0.4448
33608SOL     OW 5380   0.524  10.367  12.121 -0.1865  0.2672 -0.0918
33608SOL    HW1 5381   0.467  10.356  12.045  0.9661  1.1617 -1.1465
33608SOL    HW2 5382   0.603  10.317  12.099 -0.1215 -0.0655  0.8520
33609SOL     OW 5383   4.119   0.425   8.658  0.2546 -0.5304 -0.0372
33609SOL    HW1 5384   4.155   0.345   8.697 -0.3057 -0.4145  0.7577
33609SOL    HW2 5385   4.188   0.490   8.667  0.8218 -0.9899 -0.9492
33610SOL     OW 5386   8.244   6.822   0.734 -0.0866 -0.2167  0.4518
33610SOL    HW1 5387   8.294   6.897   0.767 -0.7381 -0.3677  1.8405
33610SOL    HW2 5388   8.309   6.767   0.691  0.4087  1.1292 -0.6115
33611SOL     OW 5389   9.684   4.444   0.790 -0.3226  0.3580  0.3658
33611SOL    HW1 5390   9.728   4.404   0.715  1.6335  0.1052  1.5903
33611SOL    HW2 5391   9.646   4.370   0.838  2.0656 -0.0055  1.8511
33612SOL     OW 5392   6.239   1.456   4.603 -0.1816 -0.1003  0.2232
33612SOL    HW1 5393   6.203   1.372   4.573  1.0630 -0.7266  0.3753
33612SOL    HW2 5394   6.177   1.487   4.669  0.6126 -2.2550  2.1411
33613SOL     OW 5395   0.207   2.681   4.153 -0.5457  0.1244  0.4410
33613SOL    HW1 5396   0.233   2.772   4.140 -1.3930  0.3272  0.0870
33613SOL    HW2 5397   0.160   2.658   4.073  2.2484 -1.6256 -0.8679
33614SOL     OW 5398   1.712   8.185  10.423 -0.0724  0.0019 -0.0297
33614SOL    HW1 5399   1.758   8.108  10.388  1.9495  0.6501  1.0238
33614SOL    HW2 5400   1.705   8.245  10.349 -1.1302 -0.9188 -0.7135
33615SOL     OW 5401   7.812  11.320   0.404  0.8104  0.1542 -0.2176
33615SOL    HW1 5402   7.761  11.250   0.443 -0.2117 -0.0991 -1.9275
33615SOL    HW2 5403   7.888  11.330   0.462 -0.1161 -0.8768  1.2185
33616SOL     OW 5404  11.777  11.798   0.580  0.3275  0.2873 -0.5358
33616SOL    HW1 5405  11.748  11.708   0.566  0.0629  0.4007 -0.7121
33616SOL    HW2 5406  11.816  11.825   0.497 -0.3482  0.6177 -0.7543
33617SOL     OW 5407   8.211   1.506  10.261  0.0882  0.3560 -0.3919
33617SOL    HW1 5408   8.150   1.464  10.322  1.2583 -1.2038 -0.2255
33617SOL    HW2 5409   8.297   1.494  10.302  0.8716 -0.4446 -2.1709
33618SOL     OW 5410   2.825  10.015   0.566 -0.0941  0.0732 -0.0609
33618SOL    HW1 5411   2.900  10.074   0.557 -0.4421  0.5186 -0.0456
33618SOL    HW2 5412   2.848   9.959   0.641  0.2435  0.1668 -0.0908
33619SOL     OW 5413   7.668   6.888   6.799 -0.0661  0.0916 -0.0092
33619SOL    HW1 5414   7.673   6.835   6.879  0.2702 -0.5589 -0.4509
33619SOL    HW2 5415   7.759   6.903   6.775 -0.1261  1.7893  0.6845
33620SOL     OW 5416   0.884   7.927   1.750 -0.3661 -0.2970 -0.9049
33620SOL    HW1 5417   0.870   8.003   1.807  0.7838 -1.7360  1.4490
33620SOL    HW2 5418   0.797   7.906   1.717 -1.2974 -0.0047  1.1877
33621SOL     OW 5419   7.076  11.203   2.351 -0.4865  0.0810 -0.0995
33621SOL    HW1 5420   7.034  11.127   2.311 -2.3421  0.2452  1.3787
33621SOL    HW2 5421   7.148  11.167   2.403 -0.9910 -0.6126  0.1276
33622SOL     OW 5422   7.307   6.670   7.760  0.0610 -0.5776  0.3967
33622SOL    HW1 5423   7.281   6.608   7.692 -0.0388  0.5777 -0.6410
33622SOL    HW2 5424   7.402   6.657   7.769  0.5542  0.9754 -1.8055
33623SOL     OW 5425   0.545   8.076   4.443 -0.1150  0.1657  0.1506
33623SOL    HW1 5426   0.551   7.994   4.493  0.5726  0.5026  0.6306
33623SOL    HW2 5427   0.487   8.054   4.370 -1.6883 -0.1527  1.4362
33624SOL     OW 5428   9.520   1.031   9.441 -0.1132 -0.2929 -0.2884
33624SOL    HW1 5429   9.503   1.029   9.347  1.2735  1.4964 -0.6213
33624SOL    HW2 5430   9.510   0.940   9.469 -1.3928 -0.7321 -1.9809
33625SOL     OW 5431  11.067  11.588   2.168  0.0209 -0.6167  0.2131
33625SOL    HW1 5432  11.072  11.601   2.263  0.3312  0.2079  0.0971
33625SOL    HW2 5433  10.974  11.585   2.149 -0.0420 -0.7878  0.5478
33626SOL     OW 5434   7.116  11.763  10.713 -0.2802  0.0146 -0.0802
33626SOL    HW1 5435   7.118  11.801  10.801  2.9013 -0.0869  0.0279
33626SOL    HW2 5436   7.116  11.669  10.727 -0.7206 -0.0021 -0.1986
33627SOL     OW 5437   7.365   5.625   8.371  0.0008 -0.2341 -0.1968
33627SOL    HW1 5438   7.397   5.536   8.382 -1.6038 -0.8550 -0.2416
33627SOL    HW2 5439   7.426   5.666   8.310  1.3359 -0.9690  0.6124
33628SOL     OW 5440  10.958  11.352   5.983  0.5161 -0.6873 -0.3979
33628SOL    HW1 5441  10.994  11.433   6.020 -0.9643  0.0047 -0.3924
33628SOL    HW2 5442  10.881  11.334   6.037  0.2310 -1.5148 -1.0698
33629SOL     OW 5443  12.079   3.165   4.483  0.1064 -0.0039  0.2364
33629SOL    HW1 5444  12.100   3.078   4.449 -1.6978 -0.3564 -0.0782
33629SOL    HW2 5445  12.143   3.180   4.552  1.5073 -0.8505 -0.8245
33630SOL     OW 5446   0.761   1.653   9.290 -0.0164 -0.3324 -0.3772
33630SOL    HW1 5447   0.837   1.651   9.347  0.1657  1.6425 -0.4780
33630SOL    HW2 5448   0.778   1.586   9.224  1.4137 -0.2321 -0.1225
33631SOL     OW 5449  11.005  10.577   4.629  0.3441 -0.0936 -0.1264
33631SOL    HW1 5450  11.070  10.620   4.685 -0.7673  1.0089  0.3651
33631SOL    HW2 5451  11.057  10.519   4.573  1.7185  0.5241  0.4473
33632SOL     OW 5452   8.438   4.883   6.526 -1.0124  0.0778  0.2711
33632SOL    HW1 5453   8.475   4.968   6.550 -1.3597  0.2748  0.1125
33632SOL    HW2 5454   8.369   4.903   6.464 -0.1107 -0.4248 -0.9346
33633SOL     OW 5455   9.565   2.736   1.474 -0.2555  0.0570 -0.1275
33633SOL    HW1 5456   9.486   2.687   1.450 -0.8847  0.6932  0.6034
33633SOL    HW2 5457   9.534   2.805   1.532  1.0142 -0.5676  1.3714
33634SOL     OW 5458   7.532   9.817   6.247 -0.1764 -0.1537  0.0627
33634SOL    HW1 5459   7.554   9.788   6.335 -1.6759 -0.0441  0.4867
33634SOL    HW2 5460   7.444   9.853   6.254 -1.2303 -2.0936 -1.9010
33635SOL     OW 5461   8.128   3.600   3.200  0.1144  0.0661 -0.0679
33635SOL    HW1 5462   8.118   3.665   3.131 -0.3685 -1.2174 -1.2568
33635SOL    HW2 5463   8.081   3.636   3.275  1.3411  1.8532 -0.1132
33636SOL     OW 5464   9.840   1.466   9.919 -0.1766  0.3829 -0.3293
33636SOL    HW1 5465   9.834   1.555   9.954 -0.6328  0.6159 -0.9763
33636SOL    HW2 5466   9.932   1.443   9.929 -0.1101  0.8145  0.1200
33637SOL     OW 5467   6.515   8.751   0.514  0.0137  0.5453 -0.2373
33637SOL    HW1 5468   6.445   8.746   0.580 -0.4265  0.4988 -0.6957
33637SOL    HW2 5469   6.506   8.838   0.476  2.2467  1.8060  1.8686
33638SOL     OW 5470   9.152   2.776   5.779 -0.1261 -0.6771  0.8505
33638SOL    HW1 5471   9.083   2.787   5.714  0.4049  1.8029  0.5928
33638SOL    HW2 5472   9.145   2.853   5.836  2.0993 -0.5581  1.0742
33639SOL     OW 5473  11.869   9.906   5.697 -0.0433  0.1626 -0.2127
33639SOL    HW1 5474  11.788   9.855   5.707  0.1480  0.1283  1.3945
33639SOL    HW2 5475  11.840   9.997   5.691 -0.2157  0.1360  0.1995
33640SOL     OW 5476   8.398   7.996   5.831  0.0223 -0.0081  0.2678
33640SOL    HW1 5477   8.379   8.048   5.753 -2.4959 -2.6596 -1.0528
33640SOL    HW2 5478   8.338   8.030   5.897 -1.2199 -0.7799 -0.4236
33641SOL     OW 5479  10.681   5.515   8.629  0.3960 -0.8615 -0.2331
33641SOL    HW1 5480  10.664   5.583   8.694  1.4385  0.1716 -0.9870
33641SOL    HW2 5481  10.704   5.564   8.549  0.8147 -2.0992 -0.8889
33642SOL     OW 5482   8.276   5.917   0.192 -0.7404 -0.0238 -0.2066
33642SOL    HW1 5483   8.254   5.936   0.101 -2.3658 -0.4673  0.0640
33642SOL    HW2 5484   8.201   5.867   0.225 -0.2004  0.1638  1.3852
33643SOL     OW 5485  11.489   9.509   9.994  0.4789  0.0396  0.5543
33643SOL    HW1 5486  11.549   9.504  10.068  0.7259  1.2517  0.4637
33643SOL    HW2 5487  11.403   9.490  10.031  0.9789 -2.8291  0.4910
33644SOL     OW 5488   3.692   1.624   5.562 -0.4498 -0.0832  0.5313
33644SOL    HW1 5489   3.699   1.716   5.536  0.1520 -0.0739  0.7178
33644SOL    HW2 5490   3.745   1.576   5.498 -0.6616 -0.2907  0.5075
33645SOL     OW 5491   3.256  11.064   3.267 -0.2729  0.8225  0.2717
33645SOL    HW1 5492   3.211  11.145   3.291 -1.4084  0.5883 -0.9913
33645SOL    HW2 5493   3.270  11.020   3.351  2.5052  3.3066  1.3306
33646SOL     OW 5494   7.902   2.794   1.540  0.0395 -0.8195 -0.2556
33646SOL    HW1 5495   7.946   2.747   1.469  1.4274  0.8313 -0.5441
33646SOL    HW2 5496   7.969   2.803   1.608  0.2809  1.8819 -0.7633
33647SOL     OW 5497   1.997  11.439   0.090  0.0451 -0.0066  0.4507
33647SOL    HW1 5498   1.931  11.388   0.138  1.2046  1.4852  3.9299
33647SOL    HW2 5499   2.068  11.378   0.074 -0.1117 -0.3926  1.2043
33648SOL     OW 5500  10.208  10.887   8.722  0.3265 -0.6789  0.0952
33648SOL    HW1 5501  10.286  10.933   8.753 -0.0774 -0.4045  0.7170
33648SOL    HW2 5502  10.236  10.846   8.640  1.0392 -0.3370  0.1562
33649SOL     OW 5503   9.950   1.987   3.838 -0.6100  0.4643 -0.3958
33649SOL    HW1 5504   9.943   1.948   3.924 -1.9563  0.3875 -0.5331
33649SOL    HW2 5505   9.950   1.913   3.777 -0.1879  0.5468 -0.5062
33650SOL     OW 5506  10.600   2.282  11.056 -0.3436 -0.0627 -0.0192
33650SOL    HW1 5507  10.676   2.282  10.997 -0.2118 -2.4470  0.0658
33650SOL    HW2 5508  10.558   2.367  11.040  2.8729  1.8346  0.7233
33651SOL     OW 5509   0.858  12.118   5.145  0.1519 -0.2038 -0.0983
33651SOL    HW1 5510   0.897  12.116   5.233 -2.0847 -0.0128  0.9633
33651SOL    HW2 5511   0.817  12.204   5.139 -0.7714 -0.6838 -0.8498
33652SOL     OW 5512   8.074   1.362  11.463  0.5599  0.1730  0.3114
33652SOL    HW1 5513   8.026   1.279  11.454  1.1197 -0.0249 -1.2104
33652SOL    HW2 5514   8.160   1.336  11.497  0.7001  0.1219 -0.0696
33653SOL     OW 5515  11.483   5.981   6.826  0.3891 -0.2133  0.3951
33653SOL    HW1 5516  11.478   6.059   6.880 -0.2762  0.5209 -0.6769
33653SOL    HW2 5517  11.405   5.930   6.849 -1.9958  1.8374 -2.3408
33654SOL     OW 5518   9.390   9.422   5.562 -0.3740  0.0412 -0.3444
33654SOL    HW1 5519   9.316   9.468   5.521  1.3660  1.5054 -2.0608
33654SOL    HW2 5520   9.409   9.473   5.641 -0.2083  0.6632 -0.7722
33655SOL     OW 5521   8.973   6.232   2.750  0.5348 -0.4781 -0.1959
33655SOL    HW1 5522   8.949   6.264   2.663  1.3157  0.1587 -0.1896
33655SOL    HW2 5523   8.960   6.308   2.808  2.2184 -0.1861 -0.1504
33656SOL     OW 5524  11.481   2.707   8.669 -0.3213 -0.3019 -0.7290
33656SOL    HW1 5525  11.399   2.755   8.656 -0.5550 -0.9046 -1.5194
33656SOL    HW2 5526  11.510   2.683   8.581  1.1545  0.6178 -0.5237
33657SOL     OW 5527   6.252   0.081   5.467  0.5570  0.2936 -0.1229
33657SOL    HW1 5528   6.159   0.085   5.489  0.4242  0.3121 -0.6667
33657SOL    HW2 5529   6.265  -0.008   5.434 -0.0003  1.2196 -3.1189
33658SOL     OW 5530   7.301   8.094   1.410  0.1081 -0.1094  0.2657
33658SOL    HW1 5531   7.282   8.058   1.496  0.0868 -0.3035  0.1811
33658SOL    HW2 5532   7.393   8.118   1.414  0.8065 -2.3389 -0.4057
33659SOL     OW 5533   4.747   8.403  11.613  0.3178 -0.4444 -0.4012
33659SOL    HW1 5534   4.829   8.415  11.660 -0.2602  2.4075  0.0616
33659SOL    HW2 5535   4.679   8.429  11.676 -0.8171 -1.1656 -1.2873
33660SOL     OW 5536   8.846   4.164   4.907 -0.4205  0.5187 -0.0184
33660SOL    HW1 5537   8.857   4.227   4.978 -0.2604  0.2183  0.2298
33660SOL    HW2 5538   8.783   4.204   4.848 -0.6807  0.6993  0.3789
33661SOL     OW 5539  11.490   4.323   6.507 -0.0151 -0.3506  0.3148
33661SOL    HW1 5540  11.582   4.297   6.519 -0.2165 -0.4556  1.8472
33661SOL    HW2 5541  11.450   4.249   6.461  0.7747 -0.0647 -0.8754
33662SOL     OW 5542   9.730   3.989   4.799  0.1145  0.2570 -0.4922
33662SOL    HW1 5543   9.638   4.006   4.781  0.3553  0.9961 -1.0869
33662SOL    HW2 5544   9.777   4.034   4.728  0.9598  0.6781  0.3121
33663SOL     OW 5545   5.704   0.870  11.558  0.6247  0.6003  0.8582
33663SOL    HW1 5546   5.693   0.953  11.604 -0.8987  1.3355 -0.7397
33663SOL    HW2 5547   5.616   0.846  11.531  1.2285 -0.8238  0.0600
33664SOL     OW 5548   3.480   9.490   8.300  0.3914  0.3753  0.0681
33664SOL    HW1 5549   3.499   9.431   8.373 -0.6811 -0.4236 -0.2752
33664SOL    HW2 5550   3.453   9.572   8.343 -0.7565 -0.2552  0.6042
33665SOL     OW 5551   6.180   2.492   1.512 -0.1441 -0.1919  0.2159
33665SOL    HW1 5552   6.207   2.401   1.524  0.8367  0.1037  0.2860
33665SOL    HW2 5553   6.104   2.487   1.454  0.5937 -0.9662 -0.6966
33666SOL     OW 5554   8.169   8.018   0.108 -0.1629 -0.1671 -0.2741
33666SOL    HW1 5555   8.243   8.001   0.167 -1.1599  0.2778  1.1536
33666SOL    HW2 5556   8.097   7.968   0.146 -0.9422  0.4859 -0.8741
33667SOL     OW 5557   1.345   1.228   1.423 -0.1628  0.2575  0.1510
33667SOL    HW1 5558   1.400   1.150   1.415 -0.1876  0.2489  0.0590
33667SOL    HW2 5559   1.371   1.268   1.506 -0.5997 -0.1970  0.5147
33668SOL     OW 5560   3.234  11.544   2.375 -0.2693 -0.7385 -0.1966
33668SOL    HW1 5561   3.314  11.584   2.408  0.5413 -0.9847 -1.7475
33668SOL    HW2 5562   3.167  11.611   2.384  0.5446  0.1454 -0.6305
33669SOL     OW 5563  11.233   0.223   7.632 -0.0661  0.0527  0.3840
33669SOL    HW1 5564  11.163   0.210   7.569 -0.3128 -0.7280  0.8089
33669SOL    HW2 5565  11.311   0.186   7.590 -0.0871  0.1426  0.2645
33670SOL     OW 5566   1.558  10.195   9.387  0.6059 -0.2644  0.8120
33670SOL    HW1 5567   1.600  10.262   9.333 -0.7275  0.2064  0.3330
33670SOL    HW2 5568   1.597  10.208   9.474 -0.2840  1.7720  0.9596
33671SOL     OW 5569   3.569   2.381   0.362  0.8838  0.3245  0.6151
33671SOL    HW1 5570   3.542   2.395   0.271 -0.2151 -0.3226  0.8222
33671SOL    HW2 5571   3.545   2.290   0.381  0.8276  0.5357  1.6337
33672SOL     OW 5572  11.458   1.729   8.302  0.2276  0.2507  0.1635
33672SOL    HW1 5573  11.529   1.716   8.239 -1.2201 -0.5806 -1.3700
33672SOL    HW2 5574  11.421   1.642   8.314 -0.8126  0.7375  0.6006
33673SOL     OW 5575   0.129   8.731  10.757 -0.3490  0.3942 -0.0769
33673SOL    HW1 5576   0.131   8.785  10.836  1.3710 -0.2002  0.3391
33673SOL    HW2 5577   0.128   8.795  10.685  0.8810  1.0068  0.4150
33674SOL     OW 5578   3.597   7.363   6.124  0.4467 -0.3320 -0.2656
33674SOL    HW1 5579   3.519   7.309   6.135  1.3432 -1.5960  0.1485
33674SOL    HW2 5580   3.641   7.327   6.047  2.3188 -1.8859  1.4052
33675SOL     OW 5581   9.657   8.270   5.893 -0.1077  0.0174  0.7877
33675SOL    HW1 5582   9.619   8.191   5.856  0.6244 -1.2041  2.5103
33675SOL    HW2 5583   9.612   8.342   5.848 -0.3596 -1.3360 -1.2543
33676SOL     OW 5584   5.336   3.091   1.118  0.2661 -0.6859 -0.6348
33676SOL    HW1 5585   5.244   3.065   1.126  0.1199 -0.1583 -0.5801
33676SOL    HW2 5586   5.385   3.010   1.135 -0.1516 -0.6976  0.6075
33677SOL     OW 5587  10.886   4.370   3.600 -0.2186  0.0398  0.0824
33677SOL    HW1 5588  10.854   4.346   3.687 -0.7125 -0.8043 -0.3186
33677SOL    HW2 5589  10.957   4.432   3.616 -1.4052  1.2000  1.0380
33678SOL     OW 5590  10.512   5.629  11.472  0.8551 -0.0887 -0.3718
33678SOL    HW1 5591  10.499   5.723  11.457 -0.4854 -0.3278 -0.9010
33678SOL    HW2 5592  10.424   5.596  11.491  1.3712 -1.1714  0.2008
33679SOL     OW 5593   1.822   3.814   1.392 -0.1789  0.0017 -1.0436
33679SOL    HW1 5594   1.874   3.852   1.322  3.1317 -1.3647  0.4578
33679SOL    HW2 5595   1.856   3.725   1.402 -3.5731 -1.4032 -0.5440
33680SOL     OW 5596   9.034   6.332  10.702 -0.0229  0.2561  0.1262
33680SOL    HW1 5597   8.966   6.399  10.708  1.3352  1.7094 -0.0850
33680SOL    HW2 5598   9.089   6.346  10.779  1.5357  0.8461 -1.0514
33681SOL     OW 5599   7.613   8.010  11.532  0.5010 -0.0402 -0.1268
33681SOL    HW1 5600   7.659   7.984  11.611 -0.5928 -0.4884  0.3815
33681SOL    HW2 5601   7.662   7.969  11.461  0.1071 -1.6394  0.4947
33682SOL     OW 5602   0.406   1.255   8.435 -0.2319 -0.4946 -0.5126
33682SOL    HW1 5603   0.385   1.205   8.356  0.9944  0.1535 -1.2857
33682SOL    HW2 5604   0.478   1.206   8.475 -0.7815 -0.7650  0.1678
33683SOL     OW 5605   2.511   5.206   5.951 -0.1227  0.0425 -0.4330
33683SOL    HW1 5606   2.498   5.123   5.997 -0.5900  1.4739  2.1846
33683SOL    HW2 5607   2.428   5.253   5.962  0.8148  1.6866  0.0062
33684SOL     OW 5608   3.958  11.409   4.725 -0.3885  0.2725 -0.4504
33684SOL    HW1 5609   3.893  11.347   4.692 -1.2508  1.6511 -1.4987
33684SOL    HW2 5610   3.906  11.483   4.757  0.6040  0.4479  0.7980
33685SOL     OW 5611  11.600   9.845   7.264 -0.3289 -0.2878 -0.1344
33685SOL    HW1 5612  11.675   9.844   7.204 -1.0490  1.9819 -1.1807
33685SOL    HW2 5613  11.632   9.890   7.342 -0.2778 -0.3343 -0.1283
33686SOL     OW 5614   9.946   6.157   5.916  0.3926 -0.1239  0.3455
33686SOL    HW1 5615   9.857   6.147   5.883 -0.5430  1.3204  2.2082
33686SOL    HW2 5616   9.935   6.179   6.008  2.6642  0.8177  0.4627
33687SOL     OW 5617   8.089   4.606   5.871 -0.0985 -0.0985 -0.5526
33687SOL    HW1 5618   8.159   4.595   5.807 -0.0776  0.8317 -0.7040
33687SOL    HW2 5619   8.036   4.678   5.836  0.2331  0.8201  0.7478
33688SOL     OW 5620   5.895   1.082  10.670  0.2694  0.1090 -0.3444
33688SOL    HW1 5621   5.884   1.034  10.588  0.0695  0.5868 -0.6071
33688SOL    HW2 5622   5.980   1.125  10.661  0.7882 -0.7757  0.2022
33689SOL     OW 5623   0.022   0.021   2.946 -0.6541  0.1142  0.0574
33689SOL    HW1 5624   0.036   0.082   3.018  1.0291 -2.5575  2.2153
33689SOL    HW2 5625   0.093   0.039   2.884 -0.4417  0.6363  0.4527
33690SOL     OW 5626   3.756   8.686  10.609 -0.0545 -0.1480  0.1799
33690SOL    HW1 5627   3.733   8.753  10.545  1.6313 -0.6006 -0.9589
33690SOL    HW2 5628   3.834   8.643  10.573  0.1068 -1.3780  1.8510
33691SOL     OW 5629   6.867   7.466   3.130  0.5814 -0.0777 -0.1429
33691SOL    HW1 5630   6.906   7.384   3.161  1.1867  0.2462 -0.0328
33691SOL    HW2 5631   6.827   7.504   3.209  0.7499 -0.0128 -0.0904
33692SOL     OW 5632   6.703  10.020   6.577 -0.3860 -0.4395  0.1564
33692SOL    HW1 5633   6.712  10.031   6.482 -2.5599 -0.2388 -0.0691
33692SOL    HW2 5634   6.721  10.107   6.612 -2.4251  0.2514 -0.3650
33693SOL     OW 5635   2.564   2.799   3.134 -1.2354 -0.0438  0.0208
33693SOL    HW1 5636   2.542   2.786   3.042 -0.9992  2.6279 -0.4887
33693SOL    HW2 5637   2.618   2.723   3.157 -1.0393 -0.6119 -2.1332
33694SOL     OW 5638   0.304  10.676   2.121  0.0927 -0.6166 -0.0339
33694SOL    HW1 5639   0.375  10.736   2.099  0.4934 -1.4829 -1.2332
33694SOL    HW2 5640   0.349  10.594   2.143 -0.5063 -0.9177  0.0729
33695SOL     OW 5641   2.436   1.723   5.452  0.2294 -0.0338 -0.4116
33695SOL    HW1 5642   2.361   1.671   5.423 -0.6321  0.0324  1.5097
33695SOL    HW2 5643   2.489   1.736   5.373 -0.5524 -2.1075 -1.3332
33696SOL     OW 5644   9.407   5.996   2.048 -0.2659  0.4322 -0.2735
33696SOL    HW1 5645   9.479   6.055   2.027 -0.0710 -0.1319 -1.2342
33696SOL    HW2 5646   9.329   6.041   2.017 -0.1143  0.1913 -1.0360
33697SOL     OW 5647   8.454   4.815   5.701 -0.5934  0.2037 -0.2937
33697SOL    HW1 5648   8.446   4.856   5.787 -0.0965 -1.4235  0.5720
33697SOL    HW2 5649   8.393   4.864   5.645 -1.1294  1.1181  1.0387
33698SOL     OW 5650   4.493   1.051   4.601 -0.1360  0.2668 -0.4379
33698SOL    HW1 5651   4.584   1.025   4.609 -0.1618 -0.6719 -2.5087
33698SOL    HW2 5652   4.447   1.002   4.669  0.8315  0.4079  0.3273
33699SOL     OW 5653   9.402   0.712   2.419 -0.0877 -0.3611 -0.5113
33699SOL    HW1 5654   9.411   0.773   2.492 -0.0251 -1.1878  0.1829
33699SOL    HW2 5655   9.445   0.756   2.346  0.1438  0.3288  0.0291
33700SOL     OW 5656   1.449   3.288  10.454 -0.8716 -0.0444 -0.5108
33700SOL    HW1 5657   1.361   3.256  10.475 -0.7286  0.2414  0.5822
33700SOL    HW2 5658   1.438   3.339  10.374 -1.6178 -0.3753 -0.6266
33701SOL     OW 5659   3.807   7.627   4.405  0.1972 -0.3821 -0.4847
33701SOL    HW1 5660   3.893   7.651   4.370 -0.1268  2.5704  0.4848
33701SOL    HW2 5661   3.826   7.580   4.486  0.9314  0.1625 -0.3286
33702SOL     OW 5662   2.899  10.511   2.404  0.3011 -0.2681  0.3444
33702SOL    HW1 5663   2.976  10.474   2.447  0.4041 -0.5850 -0.1065
33702SOL    HW2 5664   2.934  10.566   2.335  0.1451  0.5800  0.9172
33703SOL     OW 5665   6.328   5.937   5.050  0.2144 -0.1350  0.1631
33703SOL    HW1 5666   6.340   6.013   5.108 -1.7249  0.7240 -0.4673
33703SOL    HW2 5667   6.244   5.954   5.006 -0.1576 -2.5485 -0.1711
33704SOL     OW 5668   6.399   1.631   5.010 -0.0417 -0.1440 -0.1481
33704SOL    HW1 5669   6.476   1.602   4.962  1.0023 -0.0508  1.4025
33704SOL    HW2 5670   6.408   1.589   5.096 -1.2309  0.6309  0.3715
33705SOL     OW 5671   6.653   5.755   1.097 -0.2175 -0.2756  0.2258
33705SOL    HW1 5672   6.653   5.726   1.189  2.4790 -1.3527 -0.0171
33705SOL    HW2 5673   6.705   5.688   1.052 -1.1332  0.4700 -2.0290
33706SOL     OW 5674   8.040   8.039   4.333  0.3378  0.3960  0.3029
33706SOL    HW1 5675   8.120   8.082   4.302  1.2322 -0.4785  1.3406
33706SOL    HW2 5676   8.014   8.090   4.410  0.8849 -0.3550  0.9925
33707SOL     OW 5677   0.300  11.074   1.569  0.6796  0.4611  0.1140
33707SOL    HW1 5678   0.390  11.047   1.547  0.0760 -1.1476 -0.5107
33707SOL    HW2 5679   0.273  11.130   1.496  0.5739 -0.5075 -0.6159
33708SOL     OW 5680   9.775   0.556   0.220  0.0040 -0.1540  0.8266
33708SOL    HW1 5681   9.822   0.473   0.216  1.6833  0.7781 -1.8488
33708SOL    HW2 5682   9.841   0.619   0.249 -0.1260  0.8079 -0.8196
33709SOL     OW 5683   6.438   9.368   2.151  0.3235 -0.4863  0.2362
33709SOL    HW1 5684   6.485   9.285   2.166 -0.5302 -1.0553 -0.1548
33709SOL    HW2 5685   6.356   9.358   2.201  0.4300  0.3268  0.5787
33710SOL     OW 5686   8.034   0.950   8.307 -0.3398 -0.3402  0.1168
33710SOL    HW1 5687   7.978   1.002   8.249 -0.1737  0.7284  0.8930
33710SOL    HW2 5688   8.115   0.939   8.257  0.0084  1.0501  0.3367
33711SOL     OW 5689   8.087   6.759  11.421  0.2597  0.4046 -0.3758
33711SOL    HW1 5690   8.070   6.665  11.429  0.9048  0.2570 -0.6288
33711SOL    HW2 5691   8.183   6.765  11.418  0.2027  0.9523 -1.7182
33712SOL     OW 5692   6.449  10.728  11.860 -0.7167 -0.2757 -0.0952
33712SOL    HW1 5693   6.474  10.685  11.779 -2.0109 -0.3358 -0.4815
33712SOL    HW2 5694   6.435  10.820  11.836 -0.8133 -0.2302  0.1261
33713SOL     OW 5695   0.334   2.212   7.609 -0.3989 -0.6578  0.2814
33713SOL    HW1 5696   0.337   2.189   7.702  0.6822  0.6847  0.6083
33713SOL    HW2 5697   0.260   2.162   7.574 -1.2630 -0.6410  2.0008
33714SOL     OW 5698   3.364  11.732   0.424 -0.1360 -0.1036  0.1001
33714SOL    HW1 5699   3.321  11.777   0.351 -0.2718 -0.3049  0.0536
33714SOL    HW2 5700   3.307  11.750   0.500  0.2219  0.4471  0.2462
33715SOL     OW 5701   8.573  11.629   9.553 -0.5952 -0.1476  0.5841
33715SOL    HW1 5702   8.546  11.647   9.463 -0.5575  2.6988  1.0465
33715SOL    HW2 5703   8.661  11.668   9.560  0.0203 -1.6005  1.4819
33716SOL     OW 5704   7.369   7.747   3.722  0.3760  0.7184  0.3294
33716SOL    HW1 5705   7.420   7.671   3.696  0.7252  0.9673  0.2847
33716SOL    HW2 5706   7.409   7.778   3.803  0.8497  1.4317 -0.1617
33717SOL     OW 5707   0.912   7.030   9.705  0.3033  1.1554  0.0528
33717SOL    HW1 5708   0.903   7.123   9.683 -1.4112  1.2703  1.1130
33717SOL    HW2 5709   0.823   7.000   9.722  0.8751 -0.5843  0.1767
33718SOL     OW 5710   6.332  10.182  10.947 -0.6188 -0.5133  0.0020
33718SOL    HW1 5711   6.352  10.199  10.856 -0.0178 -0.5217  0.1328
33718SOL    HW2 5712   6.305  10.267  10.982  0.1161 -0.3047  0.0672
33719SOL     OW 5713   7.837   9.266   8.978 -0.1146 -0.2224 -0.0181
33719SOL    HW1 5714   7.794   9.272   9.063  0.0161 -0.4904  0.0684
33719SOL    HW2 5715   7.769   9.230   8.920 -0.2945  0.2363 -0.0961
33720SOL     OW 5716   4.086   9.611   5.849  0.0432 -0.3880 -0.3811
33720SOL    HW1 5717   4.018   9.550   5.879  0.5634 -0.9609 -0.3344
33720SOL    HW2 5718   4.048   9.698   5.863 -0.4637 -0.6843  0.1625
33721SOL     OW 5719   8.244   0.062   7.462  0.4795  0.3486  0.0510
33721SOL    HW1 5720   8.248   0.121   7.388  2.2124 -1.8436 -1.7427
33721SOL    HW2 5721   8.297   0.104   7.530 -0.3648  1.9404 -0.2244
33722SOL     OW 5722   6.767  10.747  11.497  0.0263  0.4122  0.4219
33722SOL    HW1 5723   6.725  10.829  11.472  0.2015 -0.2105 -2.1382
33722SOL    HW2 5724   6.701  10.701  11.549 -1.8618  0.2612 -1.9515
33723SOL     OW 5725   4.239   7.863   1.261 -0.3015  0.1228 -0.3545
33723SOL    HW1 5726   4.154   7.857   1.304  0.1737  1.7706  0.9349
33723SOL    HW2 5727   4.235   7.943   1.210  0.8955  1.0006  0.8441
33724SOL     OW 5728   1.110   9.712   2.008 -0.2860 -0.7351  0.2877
33724SOL    HW1 5729   1.167   9.788   1.999  1.3521 -1.7157  1.7080
33724SOL    HW2 5730   1.022   9.748   2.006  0.3243  0.8487 -1.9956
33725SOL     OW 5731   6.753   4.452   1.029  0.0279 -0.5522 -0.3581
33725SOL    HW1 5732   6.775   4.529   1.080  0.1741 -0.3936 -0.6570
33725SOL    HW2 5733   6.672   4.476   0.984  2.0160  0.9243 -3.4878
33726SOL     OW 5734   0.241  11.759   8.577 -0.3408  0.1228 -0.0383
33726SOL    HW1 5735   0.314  11.705   8.547 -0.1715  0.9499 -1.1767
33726SOL    HW2 5736   0.279  11.819   8.641  0.2269  1.1974 -1.3203
33727SOL     OW 5737   9.548   4.059  11.738  0.3426  0.3954 -0.4405
33727SOL    HW1 5738   9.588   4.068  11.825 -0.0323  0.1867 -0.2435
33727SOL    HW2 5739   9.467   4.110  11.745  0.8996  1.4037 -1.0547
33728SOL     OW 5740  11.688   9.287   4.241 -0.1803 -0.6264  0.1942
33728SOL    HW1 5741  11.678   9.283   4.146 -0.8623  1.0758  0.1594
33728SOL    HW2 5742  11.621   9.227   4.274  0.3699 -1.5912 -0.3857
33729SOL     OW 5743   0.720   8.666   8.071  0.4941 -0.1018 -0.2463
33729SOL    HW1 5744   0.804   8.627   8.047  0.9342  1.0765 -0.6753
33729SOL    HW2 5745   0.656   8.599   8.049  1.1555 -0.2562 -1.8266
33730SOL     OW 5746  11.568   1.160   9.222  0.2858  0.6689 -0.3900
33730SOL    HW1 5747  11.583   1.122   9.136 -0.1142 -2.2574  0.7229
33730SOL    HW2 5748  11.641   1.130   9.275 -0.4675  0.7718  0.7482
33731SOL     OW 5749   3.450   4.643   0.390  0.0292 -0.4455  0.4525
33731SOL    HW1 5750   3.471   4.619   0.300 -1.8975  2.1180 -0.8318
33731SOL    HW2 5751   3.481   4.733   0.398 -0.3018 -0.4562  2.2017
33732SOL     OW 5752  11.944   5.865   3.730  0.0352 -0.6278  0.1385
33732SOL    HW1 5753  11.937   5.791   3.790  0.1770 -2.0411 -1.4981
33732SOL    HW2 5754  11.907   5.832   3.647 -1.7360  1.7647 -0.1429
33733SOL     OW 5755  10.562   6.105   1.953 -0.4620 -0.2592 -0.5699
33733SOL    HW1 5756  10.565   6.042   2.025  0.9684  0.9142  0.4576
33733SOL    HW2 5757  10.654   6.126   1.936 -0.9036  1.5817 -0.8537
33734SOL     OW 5758   7.507   3.705  11.408 -0.2136  1.0034 -1.2320
33734SOL    HW1 5759   7.540   3.736  11.492  0.1627 -0.3522 -0.8462
33734SOL    HW2 5760   7.413   3.722  11.411 -0.0040  2.1878 -1.1029
33735SOL     OW 5761  10.197   7.110   9.459  0.3095  0.2038  0.4018
33735SOL    HW1 5762  10.177   7.132   9.551  0.9963 -2.1530  1.1771
33735SOL    HW2 5763  10.129   7.048   9.434  1.0947 -0.4592 -0.1270
33736SOL     OW 5764  10.702   8.709   8.793 -0.2964  0.2975 -0.6495
33736SOL    HW1 5765  10.686   8.785   8.738 -0.4074  0.0176 -1.0044
33736SOL    HW2 5766  10.790   8.680   8.770  0.0484  0.7649  0.0288
33737SOL     OW 5767   8.774   2.433   6.559 -0.1699 -0.2017 -0.2186
33737SOL    HW1 5768   8.778   2.435   6.463 -2.4312  0.8892 -0.3529
33737SOL    HW2 5769   8.772   2.525   6.585  0.2953 -0.4862  0.8866
33738SOL     OW 5770   8.822   4.475  12.046  0.1966  0.5137  0.6372
33738SOL    HW1 5771   8.880   4.399  12.038 -0.0947 -0.0340  2.9058
33738SOL    HW2 5772   8.874   4.540  12.093  0.1527  1.4459 -0.5401
33739SOL     OW 5773   7.383  10.427  11.330  0.0492  0.3786 -0.2384
33739SOL    HW1 5774   7.436  10.438  11.409 -0.5697  0.5503  0.1604
33739SOL    HW2 5775   7.363  10.333  11.328 -1.4037  0.6363  0.7911
33740SOL     OW 5776   0.658   6.239   2.451  0.6412 -0.1464 -0.0285
33740SOL    HW1 5777   0.649   6.293   2.372 -0.4636  0.2188  0.3348
33740SOL    HW2 5778   0.727   6.283   2.502 -1.2017  1.8265  0.9286
33741SOL     OW 5779   4.428   6.853   2.930 -0.3289 -0.4178  0.4543
33741SOL    HW1 5780   4.424   6.948   2.941  0.4653 -0.4319  1.0083
33741SOL    HW2 5781   4.359   6.833   2.868 -0.4862  0.5290  0.3046
33742SOL     OW 5782   0.398   9.895   6.771  0.0154 -0.0809 -0.2184
33742SOL    HW1 5783   0.403   9.920   6.679 -1.1461 -0.1231 -0.3072
33742SOL    HW2 5784   0.443   9.964   6.818 -0.3724  0.5329 -0.7326
33743SOL     OW 5785   9.817   2.542   5.394  0.1245  0.0868 -1.0892
33743SOL    HW1 5786   9.780   2.547   5.482  0.4115 -0.2816 -0.9482
33743SOL    HW2 5787   9.832   2.449   5.379  0.4689  0.1850 -1.3685
33744SOL     OW 5788   8.037   3.090   1.214  0.3644 -0.1832 -0.1343
33744SOL    HW1 5789   8.110   3.096   1.276  1.0761 -0.0003 -0.9665
33744SOL    HW2 5790   7.967   3.048   1.263  0.5754  0.8625  1.0878
33745SOL     OW 5791   3.971   5.040   4.075  0.5152  0.5141 -0.3328
33745SOL    HW1 5792   3.923   5.122   4.064 -0.1461  0.1123 -0.5147
33745SOL    HW2 5793   4.031   5.037   4.000 -0.3684  0.2271 -1.0489
33746SOL     OW 5794   7.604  11.276   5.775 -0.2204  0.0650  0.2132
33746SOL    HW1 5795   7.628  11.299   5.865 -1.2036 -0.5648  0.6451
33746SOL    HW2 5796   7.581  11.360   5.735 -0.4456  0.2693  0.7545
33747SOL     OW 5797   9.902   8.788   4.887 -0.0300  0.0988  0.5251
33747SOL    HW1 5798   9.991   8.779   4.919 -0.7282  0.0934  2.6010
33747SOL    HW2 5799   9.910   8.847   4.812  1.7350 -0.0587  0.5484
33748SOL     OW 5800   7.896   8.346   4.055 -0.2584  0.0160 -0.1058
33748SOL    HW1 5801   7.935   8.368   3.970 -1.3322  0.1854 -0.5659
33748SOL    HW2 5802   7.829   8.281   4.036 -1.5368  1.1173  0.3779
33749SOL     OW 5803   1.786   6.565   9.067 -0.6806 -0.4846  0.7545
33749SOL    HW1 5804   1.877   6.594   9.062 -1.5522  2.3601 -0.6040
33749SOL    HW2 5805   1.778   6.499   8.999  0.1353  0.0080  0.1573
33750SOL     OW 5806   9.962  10.866   3.033 -0.1504  0.1386 -0.1633
33750SOL    HW1 5807   9.989  10.815   2.956 -0.0568  0.8640 -0.6236
33750SOL    HW2 5808  10.031  10.931   3.044 -0.9243  1.0317 -0.4269
33751SOL     OW 5809  11.705   3.829   0.881  0.3571  0.2690  0.6788
33751SOL    HW1 5810  11.628   3.805   0.932  0.8436 -1.3230  0.7257
33751SOL    HW2 5811  11.732   3.747   0.839 -0.0118  1.4978 -2.1796
33752SOL     OW 5812  11.594   8.395   2.663 -0.4028 -0.0044 -0.2489
33752SOL    HW1 5813  11.582   8.352   2.579 -0.7951  0.7716 -0.5970
33752SOL    HW2 5814  11.545   8.340   2.725 -0.0447 -0.6219 -0.4995
33753SOL     OW 5815  10.099   7.259  10.658  0.1855 -0.0645 -0.3851
33753SOL    HW1 5816  10.153   7.299  10.726  0.8775  1.7489 -1.9240
33753SOL    HW2 5817  10.013   7.250  10.699  0.6246  0.8240  0.7996
33754SOL     OW 5818   1.805   9.250   4.864 -0.1077  0.0368  0.1184
33754SOL    HW1 5819   1.794   9.322   4.802 -1.1761 -0.9258 -0.8470
33754SOL    HW2 5820   1.896   9.223   4.854 -0.6885 -1.3086 -2.4578
33755SOL     OW 5821   8.631   6.422  10.238 -0.2221 -0.2840 -0.2331
33755SOL    HW1 5822   8.560   6.421  10.174 -1.7817  1.3011  1.3429
33755SOL    HW2 5823   8.591   6.390  10.319  1.3241 -0.9314  0.3147
33756SOL     OW 5824  11.615   7.500   9.168 -0.0729  0.5017 -0.1306
33756SOL    HW1 5825  11.596   7.466   9.081 -2.0412  0.7784  0.1472
33756SOL    HW2 5826  11.710   7.489   9.178 -0.2494 -2.7087 -0.9436
33757SOL     OW 5827   2.529   0.394   4.604  0.1462  0.3069  0.5068
33757SOL    HW1 5828   2.549   0.476   4.650 -1.4829  1.0739 -0.0737
33757SOL    HW2 5829   2.453   0.359   4.649 -0.0619 -0.1210 -0.1666
33758SOL     OW 5830  10.628   2.468   2.028 -0.1951  0.3554 -0.4937
33758SOL    HW1 5831  10.605   2.441   1.939 -0.7200 -0.1751 -0.2049
33758SOL    HW2 5832  10.638   2.386   2.076  0.8987  0.6085 -0.2520
33759SOL     OW 5833   4.884   4.310   4.949  0.4890 -0.0815 -0.4091
33759SOL    HW1 5834   4.903   4.299   5.043 -0.2601 -0.6614 -0.3086
33759SOL    HW2 5835   4.923   4.233   4.908  0.2685 -0.1547 -0.4841
33760SOL     OW 5836  10.214   3.492   2.506 -0.0165 -0.4338 -0.6241
33760SOL    HW1 5837  10.224   3.406   2.465 -2.9515  0.4288 -3.6245
33760SOL    HW2 5838  10.155   3.477   2.580  0.0432 -1.0858 -0.7028
33761SOL     OW 5839   1.077   3.506   1.884  0.2257 -0.0926  0.4519
33761SOL    HW1 5840   1.107   3.503   1.793 -0.9402 -1.3065  0.0653
33761SOL    HW2 5841   1.156   3.491   1.936  0.5314 -1.9459 -0.4690
33762SOL     OW 5842   2.229   9.682   7.841  0.3954 -0.2785 -0.3445
33762SOL    HW1 5843   2.160   9.671   7.775  0.4059 -0.4450 -0.3264
33762SOL    HW2 5844   2.192   9.644   7.921 -0.5442  1.9117  0.3589
33763SOL     OW 5845   0.314   5.728   1.419 -0.3961  0.1397  0.1380
33763SOL    HW1 5846   0.279   5.790   1.483  0.9840  0.8510  0.2384
33763SOL    HW2 5847   0.397   5.699   1.457  1.3976  1.9441 -2.0584
33764SOL     OW 5848  10.294   0.502   9.493  0.0832 -0.0396  0.3686
33764SOL    HW1 5849  10.373   0.491   9.545  0.9388 -0.5344 -0.9981
33764SOL    HW2 5850  10.226   0.455   9.541  0.9552 -0.8684  0.8096
33765SOL     OW 5851   9.039  10.179   8.395  0.3820  0.1131 -0.3566
33765SOL    HW1 5852   8.963  10.191   8.339 -1.2632  1.5234  1.9837
33765SOL    HW2 5853   9.047  10.085   8.408 -0.0602 -0.1282 -1.7823
33766SOL     OW 5854  10.121   8.881   0.067  0.5529 -0.4024  0.4330
33766SOL    HW1 5855  10.174   8.919  -0.003  0.1017  1.8957  1.2361
33766SOL    HW2 5856  10.141   8.788   0.065  0.2047 -0.5270 -3.0370
33767SOL     OW 5857   8.489   7.735   3.832 -0.0371 -0.0187 -0.8605
33767SOL    HW1 5858   8.418   7.681   3.868  0.3584 -0.2061 -0.3463
33767SOL    HW2 5859   8.457   7.825   3.838  0.5405  0.0843  1.2203
33768SOL     OW 5860   2.449  10.501   0.189  0.3453 -0.3225  0.3147
33768SOL    HW1 5861   2.486  10.428   0.139  2.3570  0.7588  0.1068
33768SOL    HW2 5862   2.468  10.479   0.281 -1.1811 -1.1561  0.4533
33769SOL     OW 5863   6.720  10.200   9.203  0.1714 -0.0564  0.2934
33769SOL    HW1 5864   6.704  10.126   9.262  0.2496 -0.9341 -0.7427
33769SOL    HW2 5865   6.772  10.163   9.132 -0.6042  0.7584 -0.7403
33770SOL     OW 5866   7.932   5.867   6.844  0.3583 -0.2665  0.2987
33770SOL    HW1 5867   7.896   5.912   6.920  0.9990 -0.2267  0.5834
33770SOL    HW2 5868   7.889   5.909   6.769 -0.3170 -0.3425  0.6294
33771SOL     OW 5869  11.964   8.734  10.984  0.0490 -0.4120 -0.0734
33771SOL    HW1 5870  11.910   8.812  10.971 -0.9330 -0.5386  2.5832
33771SOL    HW2 5871  12.049   8.768  11.010  0.1776 -0.2451 -0.6844
33772SOL     OW 5872  12.122   3.919   0.221 -0.1264 -0.3930  0.0544
33772SOL    HW1 5873  12.113   3.907   0.126 -1.2135 -0.5185  0.1707
33772SOL    HW2 5874  12.073   3.847   0.260  1.9770 -1.5413  0.7413
33773SOL     OW 5875   7.255   7.970   7.649 -0.3894  0.3647  0.4700
33773SOL    HW1 5876   7.348   7.954   7.637 -0.2011 -0.2553  2.3746
33773SOL    HW2 5877   7.217   7.884   7.662 -1.1329  0.6657  0.3405
33774SOL     OW 5878  11.629   7.099  12.120 -0.0905  0.4216 -0.0660
33774SOL    HW1 5879  11.552   7.111  12.176 -0.8803  0.3210 -1.0962
33774SOL    HW2 5880  11.593   7.068  12.037  1.2827 -2.2492  0.2379
33775SOL     OW 5881   7.022   2.042   8.192 -0.4614 -0.6602  0.3126
33775SOL    HW1 5882   6.961   2.032   8.266  0.5803  0.2156  1.3363
33775SOL    HW2 5883   7.095   2.092   8.229 -0.7256  1.4297 -1.7495
33776SOL     OW 5884   4.774   8.597   8.045  0.2892 -0.2850  0.1994
33776SOL    HW1 5885   4.838   8.668   8.040 -0.4877  0.5643  1.6969
33776SOL    HW2 5886   4.793   8.553   8.127  0.1494 -1.2299 -0.2585
33777SOL     OW 5887   2.821   3.231   5.963  0.0207  0.6253 -0.8241
33777SOL    HW1 5888   2.820   3.220   5.868  0.7389 -0.7581 -0.6986
33777SOL    HW2 5889   2.867   3.154   5.995 -0.1743  1.0988  0.6524
33778SOL     OW 5890   7.381   6.353   1.732 -0.1992 -0.3889  0.2911
33778SOL    HW1 5891   7.293   6.316   1.737  0.0069 -0.9032  0.1931
33778SOL    HW2 5892   7.417   6.319   1.650 -0.7876  1.7859 -0.9526
33779SOL     OW 5893   5.489   7.549   2.864  0.2724  0.1265 -0.2686
33779SOL    HW1 5894   5.531   7.619   2.815  0.6730  0.1837  0.1504
33779SOL    HW2 5895   5.559   7.509   2.915 -0.3668  0.9554  1.3178
33780SOL     OW 5896   8.031  10.783  10.139 -0.0473 -0.1152  0.1375
33780SOL    HW1 5897   8.014  10.875  10.120  2.5672  0.3701 -0.1702
33780SOL    HW2 5898   7.999  10.737  10.062  0.9357  0.8148 -0.8593
33781SOL     OW 5899   4.000  10.451  10.131  0.0620  0.0850  0.0481
33781SOL    HW1 5900   4.078  10.473  10.080  1.0409 -0.5172  1.2221
33781SOL    HW2 5901   4.008  10.357  10.147 -1.4068 -0.1760 -0.5895
33782SOL     OW 5902   3.769   4.676   9.629 -0.0488  0.0850  0.7751
33782SOL    HW1 5903   3.806   4.764   9.620  1.7353 -0.6780  0.3311
33782SOL    HW2 5904   3.813   4.624   9.562 -1.0794 -1.1742  1.0281
33783SOL     OW 5905   6.814  11.382   3.445 -0.5446  0.3494  0.1721
33783SOL    HW1 5906   6.765  11.451   3.399 -0.7125  0.0068 -0.1770
33783SOL    HW2 5907   6.873  11.347   3.378 -2.7913 -2.1214 -0.7001
33784SOL     OW 5908   1.479   7.316   7.928  0.2956  0.1178 -0.5264
33784SOL    HW1 5909   1.563   7.347   7.895  0.1668  1.9200  0.6773
33784SOL    HW2 5910   1.494   7.224   7.949  2.6462  0.8326  1.4998
33785SOL     OW 5911   7.924  12.092   2.301  0.0145 -0.3322 -0.0275
33785SOL    HW1 5912   7.841  12.056   2.269 -0.0118 -0.4968  0.2202
33785SOL    HW2 5913   7.975  12.015   2.326  0.2454 -0.2314 -0.1854
33786SOL     OW 5914   8.783   9.460   1.279 -0.7126 -0.5536 -0.3976
33786SOL    HW1 5915   8.769   9.484   1.187  0.3402 -2.2155 -1.0393
33786SOL    HW2 5916   8.696   9.440   1.312 -1.0962  0.0165 -1.0325
33787SOL     OW 5917   7.028   7.469   3.443 -0.0426  0.2960  0.2003
33787SOL    HW1 5918   6.940   7.434   3.433 -0.0847  0.6708 -0.8806
33787SOL    HW2 5919   7.086   7.397   3.418 -0.0906  0.5006 -0.5264
33788SOL     OW 5920  11.173   2.608   8.994 -0.2817 -0.0473  0.4082
33788SOL    HW1 5921  11.154   2.629   8.903  0.2961  0.5125  0.4063
33788SOL    HW2 5922  11.269   2.611   9.000 -0.3372  0.4845  1.1534
33789SOL     OW 5923   5.480   6.387   4.978 -0.0691 -0.1353 -0.0389
33789SOL    HW1 5924   5.439   6.300   4.977 -0.6676  0.1136 -2.1145
33789SOL    HW2 5925   5.429   6.437   5.042 -1.6229 -0.4867 -0.9508
33790SOL     OW 5926   0.350   9.247  11.112  0.2436 -0.3684 -0.4748
33790SOL    HW1 5927   0.414   9.176  11.111 -0.3624 -0.9245 -1.6385
33790SOL    HW2 5928   0.292   9.227  11.185  0.8660 -0.3494  0.0248
33791SOL     OW 5929   4.254   9.008   9.935 -0.3886  0.0858 -0.2760
33791SOL    HW1 5930   4.274   8.915   9.923  1.4643  0.2732  0.9879
33791SOL    HW2 5931   4.298   9.052   9.862 -2.2447 -0.0856 -1.5511
33792SOL     OW 5932  11.651   0.034   2.341 -0.1610 -0.1569  0.1187
33792SOL    HW1 5933  11.723   0.070   2.393 -0.5825  0.7423  0.0987
33792SOL    HW2 5934  11.685   0.028   2.252 -0.2662  0.7449  0.0114
33793SOL     OW 5935   1.510   0.056   3.974 -0.9415  0.0545  0.4830
33793SOL    HW1 5936   1.598   0.062   4.009 -0.7422 -0.4574  0.0928
33793SOL    HW2 5937   1.502   0.131   3.915 -0.3799 -0.4844 -0.3014
33794SOL     OW 5938   2.412   7.109  10.782 -0.6705  0.0458  0.3278
33794SOL    HW1 5939   2.415   7.204  10.770  2.7323 -0.2280 -2.1517
33794SOL    HW2 5940   2.482   7.090  10.844 -0.2211 -0.9460 -0.4545
33795SOL     OW 5941   1.029  11.019   7.023 -0.3607 -0.5336 -0.1571
33795SOL    HW1 5942   1.030  10.942   6.966  1.9956 -0.5742 -0.1683
33795SOL    HW2 5943   1.089  11.081   6.981 -0.2662  0.3066  1.1585
33796SOL     OW 5944   4.389  12.071   6.657  0.0121 -0.0285  0.2114
33796SOL    HW1 5945   4.391  12.165   6.672 -0.6999 -0.1612  1.2667
33796SOL    HW2 5946   4.318  12.039   6.714  0.6195 -1.2619  0.3140
33797SOL     OW 5947   5.991   9.179   9.612  0.3381 -0.1562 -0.2663
33797SOL    HW1 5948   5.945   9.120   9.672  0.4078  0.5120  0.4669
33797SOL    HW2 5949   5.978   9.141   9.526 -1.3822 -0.1276 -0.0580
33798SOL     OW 5950   3.730   4.263   4.245 -0.6206  0.4724  0.4996
33798SOL    HW1 5951   3.668   4.272   4.317 -0.6233 -0.3823  0.6128
33798SOL    HW2 5952   3.816   4.270   4.288 -0.6167 -0.3231  0.6422
33799SOL     OW 5953   4.605  12.111  10.740 -0.1041  0.4539  0.6172
33799SOL    HW1 5954   4.654  12.193  10.738 -2.2273  1.7827 -0.3277
33799SOL    HW2 5955   4.556  12.111  10.658 -0.1403 -1.8105  0.5878
33800SOL     OW 5956   4.053   8.484  11.700  0.2472 -0.4805  0.4399
33800SOL    HW1 5957   3.992   8.492  11.626 -1.7882 -0.7284  2.0150
33800SOL    HW2 5958   4.020   8.544  11.766  2.3816  0.1839  1.0026
33801SOL     OW 5959   9.959   7.786   5.194  0.3071 -0.1261 -0.1368
33801SOL    HW1 5960   9.881   7.825   5.234  0.5213  1.2783 -0.9790
33801SOL    HW2 5961   9.990   7.723   5.258 -1.2081 -0.3280  0.4574
33802SOL     OW 5962   8.081   2.967   9.460 -0.3964 -0.1816 -0.7557
33802SOL    HW1 5963   8.109   3.012   9.380  1.3736 -0.4992 -0.3426
33802SOL    HW2 5964   8.060   2.878   9.431 -0.1900 -0.1741 -0.9298
33803SOL     OW 5965   2.033   4.273   7.086  0.5599 -0.6440 -0.4761
33803SOL    HW1 5966   2.006   4.336   7.153  2.5911 -0.6490  0.4455
33803SOL    HW2 5967   2.076   4.203   7.136 -0.7956 -2.3091 -1.5552
33804SOL     OW 5968  11.512   2.646  11.796 -0.5553  0.1142 -0.1174
33804SOL    HW1 5969  11.438   2.703  11.775  0.4039  0.4791 -3.0968
33804SOL    HW2 5970  11.546   2.680  11.879 -2.9443  0.6890  0.6902
33805SOL     OW 5971  10.324  10.884   8.982 -0.3665  0.1066  0.1448
33805SOL    HW1 5972  10.391  10.915   8.921  1.0022  0.7618  1.8653
33805SOL    HW2 5973  10.308  10.793   8.956 -0.4878  0.6098 -1.6791
33806SOL     OW 5974  11.756   1.067  10.009 -0.1695 -0.4216 -0.3150
33806SOL    HW1 5975  11.808   1.006   9.958 -0.4623  0.1800 -1.3544
33806SOL    HW2 5976  11.772   1.042  10.100  1.0916 -0.9110 -0.6567
33807SOL     OW 5977   2.340   7.184   2.767 -0.2022 -0.4134  0.0471
33807SOL    HW1 5978   2.353   7.218   2.856  1.5287 -0.9747  0.0495
33807SOL    HW2 5979   2.246   7.171   2.760 -0.4272  0.1104  1.6300
33808SOL     OW 5980   8.546   2.801   6.105  0.1832 -0.4874 -0.5690
33808SOL    HW1 5981   8.632   2.822   6.141  0.3103 -0.4753 -0.8711
33808SOL    HW2 5982   8.487   2.805   6.179  0.1463  1.2238 -0.6602
33809SOL     OW 5983   0.571   9.920   4.826  0.1929 -0.5810 -0.3953
33809SOL    HW1 5984   0.532   9.854   4.883  0.7267 -0.3831  0.2130
33809SOL    HW2 5985   0.637   9.964   4.881 -0.5045  0.8073 -0.6230
33810SOL     OW 5986   8.420  11.696   4.888  0.6563 -0.6705 -0.2203
33810SOL    HW1 5987   8.419  11.791   4.893 -1.7174 -0.5856 -1.0227
33810SOL    HW2 5988   8.498  11.675   4.836  0.7771  0.8839 -0.7009
33811SOL     OW 5989  11.749   4.384   2.899  0.2092 -0.1258  0.0924
33811SOL    HW1 5990  11.776   4.301   2.939 -0.4110 -0.6747 -0.5773
33811SOL    HW2 5991  11.670   4.361   2.849 -0.0928  0.9204  0.0663
33812SOL     OW 5992  10.756  11.912   1.707 -0.3120 -0.4192  0.7359
33812SOL    HW1 5993  10.667  11.883   1.726  0.0366 -1.8065  0.3746
33812SOL    HW2 5994  10.762  11.909   1.611  0.0644 -0.1105  0.7453
33813SOL     OW 5995  12.117   9.293  11.680 -0.3724 -0.2111  0.5457
33813SOL    HW1 5996  12.092   9.289  11.588  0.2735  0.4644  0.3336
33813SOL    HW2 5997  12.059   9.230  11.723 -1.5518  0.4123 -0.1089
33814SOL     OW 5998  11.409   9.913   5.375  0.5364 -0.1380  0.1652
33814SOL    HW1 5999  11.425   9.871   5.290  3.4850 -2.1098  1.4994
33814SOL    HW2 6000  11.414   9.841   5.438 -1.5466  1.2575  2.0730
33815SOL     OW 6001   0.132   2.324   6.248 -0.1958  0.9690 -0.1770
33815SOL    HW1 6002   0.109   2.346   6.157 -0.7826  1.8275  0.1636
33815SOL    HW2 6003   0.102   2.400   6.299  0.9930  0.9260  0.6277
33816SOL     OW 6004   8.257   2.377   1.093 -0.0078 -0.7184 -0.1063
33816SOL    HW1 6005   8.165   2.351   1.104 -0.5087  1.4213  1.6258
33816SOL    HW2 6006   8.257   2.429   1.013 -0.0609 -1.6411 -0.7166
33817SOL     OW 6007   6.071   9.491  12.020  0.1637  0.0867  0.7456
33817SOL    HW1 6008   6.119   9.446  11.950  0.8640  0.3149  1.0682
33817SOL    HW2 6009   6.133   9.556  12.054 -0.5702  0.7825  0.7968
33818SOL     OW 6010   9.327   3.736   2.907 -0.0305 -0.4315  0.1442
33818SOL    HW1 6011   9.266   3.670   2.940 -1.5427  1.1955  0.7424
33818SOL    HW2 6012   9.347   3.791   2.983  0.2359  0.5194 -0.5894
33819SOL     OW 6013   2.152   6.015   7.135 -0.0530 -0.7158 -0.3932
33819SOL    HW1 6014   2.244   6.034   7.119  0.0911 -1.8114 -0.9747
33819SOL    HW2 6015   2.146   6.002   7.230  0.5307 -1.2724 -0.4237
33820SOL     OW 6016   8.396   6.136   3.216 -0.1214  0.3438  0.5622
33820SOL    HW1 6017   8.456   6.192   3.167 -1.2108  0.7458 -0.3716
33820SOL    HW2 6018   8.449   6.062   3.244 -0.0218 -1.7775 -4.2218
33821SOL     OW 6019   8.948   1.190   2.054 -0.1407 -0.1912  0.1634
33821SOL    HW1 6020   8.904   1.155   1.977  0.1883  1.5291 -0.8512
33821SOL    HW2 6021   8.880   1.193   2.121 -0.2112 -2.6146  0.3100
33822SOL     OW 6022   5.316   8.885  10.393  0.5998 -0.5090  0.3590
33822SOL    HW1 6023   5.303   8.828  10.469  1.6471 -0.4514  0.5921
33822SOL    HW2 6024   5.345   8.827  10.323 -0.6717 -0.6109 -0.1088
33823SOL     OW 6025   7.833   8.580  11.940 -0.1001  0.1676 -0.3596
33823SOL    HW1 6026   7.878   8.631  11.873  0.6684 -0.4982 -0.3644
33823SOL    HW2 6027   7.743   8.573  11.909  0.3647 -0.5701 -1.5978
33824SOL     OW 6028   9.311   1.408   0.834 -0.4722 -0.0318 -0.2557
33824SOL    HW1 6029   9.276   1.339   0.776 -1.7522 -1.0796  1.6353
33824SOL    HW2 6030   9.298   1.373   0.922 -2.2266  3.0773  0.8754
33825SOL     OW 6031   7.920  11.541   5.546 -0.0983  0.0347 -0.1154
33825SOL    HW1 6032   7.835  11.584   5.540 -0.9102 -1.5028 -0.0190
33825SOL    HW2 6033   7.931  11.496   5.462  0.1324 -0.6261  0.2535
33826SOL     OW 6034   6.919   4.597  11.143 -0.0728  0.3295  0.1659
33826SOL    HW1 6035   6.927   4.516  11.194 -0.1577 -0.1006 -0.4942
33826SOL    HW2 6036   6.865   4.654  11.198 -0.0991 -0.0973  0.5916
33827SOL     OW 6037  10.507   9.599   9.189  0.2938  0.3362 -0.2858
33827SOL    HW1 6038  10.585   9.586   9.135 -0.9388  0.3542 -2.1588
33827SOL    HW2 6039  10.461   9.515   9.186 -0.8930  0.9846 -1.1431
33828SOL     OW 6040  10.417   7.524  12.030 -0.2842  0.0924  0.2998
33828SOL    HW1 6041  10.500   7.571  12.037 -0.6239  0.5431  1.6060
33828SOL    HW2 6042  10.373   7.540  12.114 -2.1751  0.8100 -0.7513
33829SOL     OW 6043   7.917   9.537  11.679  0.3184  0.4479 -0.3806
33829SOL    HW1 6044   7.968   9.601  11.628 -0.9703  0.3514 -1.8603
33829SOL    HW2 6045   7.882   9.587  11.752  2.0767  0.6284  0.3962
33830SOL     OW 6046   9.454  10.882   5.150 -0.3677  0.2469  0.3215
33830SOL    HW1 6047   9.431  10.834   5.070 -1.0744  0.0943  0.6096
33830SOL    HW2 6048   9.493  10.964   5.118  0.8326 -0.4823 -0.1782
33831SOL     OW 6049   0.485   7.033   3.057  0.2245  0.1152 -0.6949
33831SOL    HW1 6050   0.521   7.038   3.145  2.1970 -1.9354 -1.3030
33831SOL    HW2 6051   0.541   7.093   3.006 -0.9667  1.3659 -0.5921
33832SOL     OW 6052   4.753   9.186   9.606 -0.1274 -0.1104  0.1872
33832SOL    HW1 6053   4.702   9.266   9.614 -1.5455 -1.0547  0.9631
33832SOL    HW2 6054   4.739   9.158   9.515  0.8560  0.7846 -0.2740
33833SOL     OW 6055   6.583   2.473   6.742 -0.4975  0.9078 -0.0413
33833SOL    HW1 6056   6.542   2.387   6.732  0.8337 -0.0941  2.2046
33833SOL    HW2 6057   6.626   2.489   6.658 -1.5859 -0.1475 -0.8392
33834SOL     OW 6058   0.101   3.650   2.229  0.3247 -0.4695  0.2587
33834SOL    HW1 6059   0.019   3.605   2.208  0.8450 -0.5909 -1.6784
33834SOL    HW2 6060   0.161   3.580   2.256  0.6342 -0.7631 -1.1350
33835SOL     OW 6061   0.835   0.279   6.085  0.8332 -0.0656  0.3070
33835SOL    HW1 6062   0.803   0.369   6.089  2.7746  0.7503 -0.8886
33835SOL    HW2 6063   0.766   0.230   6.041 -0.5572  0.6422  1.6049
33836SOL     OW 6064   2.249   9.428  11.150  0.1750  0.4002 -0.4453
33836SOL    HW1 6065   2.305   9.441  11.226 -0.4797  2.1534 -0.2161
33836SOL    HW2 6066   2.294   9.361  11.098 -0.2630 -2.2396  2.3109
33837SOL     OW 6067   3.695   6.592   7.507  0.0554 -0.0733  0.2529
33837SOL    HW1 6068   3.732   6.653   7.443  1.7610  0.4766  1.6762
33837SOL    HW2 6069   3.618   6.638   7.541 -1.3650 -0.7115 -1.8868
33838SOL     OW 6070   9.610  12.084   7.876  0.3300  0.4095  0.2849
33838SOL    HW1 6071   9.546  12.078   7.947 -1.1441 -0.8363 -1.0749
33838SOL    HW2 6072   9.672  12.012   7.893 -1.1686 -1.1910 -0.7044
33839SOL     OW 6073   1.373   0.344   5.661  0.2104  0.1854  0.0087
33839SOL    HW1 6074   1.356   0.336   5.755  0.4923  0.1401  0.0550
33839SOL    HW2 6075   1.406   0.258   5.635  0.7934  0.4073  0.0057
33840SOL     OW 6076   6.120   4.846   2.838 -0.4860 -0.0715  0.3294
33840SOL    HW1 6077   6.102   4.885   2.752  0.7581  0.1646  0.1573
33840SOL    HW2 6078   6.161   4.762   2.818 -0.3978 -0.1187  0.6983
33841SOL     OW 6079   1.387   2.088   0.844  0.0945  0.5429 -0.4796
33841SOL    HW1 6080   1.473   2.049   0.827  0.3595  0.4336  1.0086
33841SOL    HW2 6081   1.404   2.158   0.907 -0.9183  0.4454 -0.0791
33842SOL     OW 6082   0.286   2.593   2.639  0.1169 -0.0793  0.3891
33842SOL    HW1 6083   0.288   2.622   2.548  1.2013 -0.6363  0.2223
33842SOL    HW2 6084   0.265   2.672   2.688  2.6769  0.9983 -0.0910
33843SOL     OW 6085   2.428   2.590   8.766  0.3234 -0.2646 -0.2104
33843SOL    HW1 6086   2.446   2.613   8.857 -0.6754 -1.5910  0.3556
33843SOL    HW2 6087   2.381   2.507   8.771 -0.4479  0.0307 -1.9105
33844SOL     OW 6088   7.115   7.472   8.283  0.4594  0.4032 -0.1647
33844SOL    HW1 6089   7.170   7.418   8.226  1.6678  0.8719  0.5368
33844SOL    HW2 6090   7.039   7.416   8.303 -0.1077  0.2882 -2.3504
33845SOL     OW 6091   3.922  11.794   4.114 -0.4729  0.1875 -0.6645
33845SOL    HW1 6092   3.960  11.715   4.076  2.5756  0.9776  0.3969
33845SOL    HW2 6093   3.872  11.833   4.043 -1.0679 -2.0431 -1.5692
33846SOL     OW 6094   7.322   8.063   3.851  0.4723  0.2678  0.2268
33846SOL    HW1 6095   7.310   8.012   3.771  0.3706  0.5276  0.0763
33846SOL    HW2 6096   7.238   8.057   3.896 -0.2264  1.9554 -0.7523
33847SOL     OW 6097   7.657   0.438   4.100 -0.7500 -0.4074  0.1441
33847SOL    HW1 6098   7.571   0.417   4.136 -1.7519 -1.6402 -2.6912
33847SOL    HW2 6099   7.667   0.378   4.026  1.2947  1.6872 -1.4124
33848SOL     OW 6100   0.589   0.731   4.043 -0.0936  0.2807  0.0414
33848SOL    HW1 6101   0.558   0.694   4.126 -1.2666  1.5947  0.2238
33848SOL    HW2 6102   0.611   0.821   4.063  1.7524  0.0173 -0.6219
33849SOL     OW 6103  10.659   1.179   1.877  0.0187  0.3436  0.0119
33849SOL    HW1 6104  10.699   1.099   1.842  0.6047  0.5476  0.2150
33849SOL    HW2 6105  10.565   1.166   1.863  0.0617 -0.6406  0.5788
33850SOL     OW 6106   9.512   2.581   9.612  0.1634  0.0688 -0.4440
33850SOL    HW1 6107   9.599   2.592   9.650  0.5667  3.0369 -1.9387
33850SOL    HW2 6108   9.520   2.507   9.552  1.5803  0.1199 -0.3406
33851SOL     OW 6109  11.964   5.633   7.717  0.2654 -0.2550  0.0209
33851SOL    HW1 6110  11.954   5.719   7.676  2.2138  0.0855  0.1687
33851SOL    HW2 6111  11.983   5.574   7.644  0.8052 -0.2044  0.1211
33852SOL     OW 6112   1.736   1.409   8.372  0.7750  0.1985  0.1395
33852SOL    HW1 6113   1.752   1.327   8.324  0.2526  0.7691 -1.0320
33852SOL    HW2 6114   1.750   1.385   8.464  1.9520 -0.8810 -0.2867
33853SOL     OW 6115   1.984   0.175   1.963 -0.1112 -0.0534 -0.0040
33853SOL    HW1 6116   2.063   0.198   2.011 -0.0820 -0.1231 -0.0181
33853SOL    HW2 6117   1.980   0.238   1.891 -0.3717  0.3068  0.3210
33854SOL     OW 6118   6.961  11.748  11.928 -0.2572 -0.5246  0.1711
33854SOL    HW1 6119   7.011  11.696  11.991 -1.1585 -0.1675  1.1983
33854SOL    HW2 6120   6.919  11.816  11.980  0.6811  1.1147 -1.0963
33855SOL     OW 6121   6.498  10.696  10.645  0.0349  0.4859  0.1318
33855SOL    HW1 6122   6.538  10.634  10.584 -0.7847  0.7169 -0.6659
33855SOL    HW2 6123   6.447  10.640  10.705 -1.1436  0.3805 -0.9167
33856SOL     OW 6124   1.067   6.609   1.430  0.0615  0.1455 -0.6407
33856SOL    HW1 6125   1.106   6.606   1.342  0.3572 -0.0929 -0.5039
33856SOL    HW2 6126   1.130   6.564   1.486 -1.0470 -1.4934 -0.6506
33857SOL     OW 6127   9.683   2.464   3.925 -0.1163 -0.5489 -0.1322
33857SOL    HW1 6128   9.743   2.390   3.912 -0.7564 -0.8234 -1.8446
33857SOL    HW2 6129   9.725   2.537   3.880  0.8500  0.3726  2.1541
33858SOL     OW 6130   7.320   4.497  10.270  0.4720 -0.0850  0.6571
33858SOL    HW1 6131   7.403   4.473  10.228  1.0314 -0.0226  1.6825
33858SOL    HW2 6132   7.335   4.479  10.363 -0.7939 -0.4064  0.8168
33859SOL     OW 6133  10.025   7.852   4.236  0.5644  0.1881  0.5657
33859SOL    HW1 6134  10.050   7.847   4.328  1.6634 -0.4333  0.2633
33859SOL    HW2 6135  10.091   7.910   4.197 -1.3116  2.5028  0.5791
33860SOL     OW 6136   5.429   9.349  11.616  0.1666 -0.1310 -0.1614
33860SOL    HW1 6137   5.520   9.368  11.591 -0.0855 -1.2737 -2.1921
33860SOL    HW2 6138   5.378   9.372  11.538 -1.1726 -0.4083  0.6160
33861SOL     OW 6139   4.945   7.676   8.535  0.7308 -0.0216  0.1794
33861SOL    HW1 6140   4.921   7.725   8.614 -2.0602 -0.4095 -0.3185
33861SOL    HW2 6141   4.983   7.741   8.477 -0.9209  1.1646  0.3534
33862SOL     OW 6142  12.030   7.560   5.195  0.2415 -0.1952  0.1351
33862SOL    HW1 6143  11.954   7.600   5.154  0.1569 -0.3670  0.1234
33862SOL    HW2 6144  12.036   7.602   5.281  0.8307  0.6651 -0.3114
33863SOL     OW 6145   0.489   4.301   2.520 -0.0901  0.2892 -0.6006
33863SOL    HW1 6146   0.546   4.378   2.513  0.6332 -0.2419 -0.7638
33863SOL    HW2 6147   0.450   4.292   2.434 -0.9607  1.0525 -0.2955
33864SOL     OW 6148   6.577  12.127   0.414 -0.8761 -0.1304  0.2525
33864SOL    HW1 6149   6.491  12.168   0.405 -1.3063 -0.0649  3.5003
33864SOL    HW2 6150   6.571  12.078   0.495  1.8528 -1.0159 -0.0043
33865SOL     OW 6151   7.340   7.313   3.954 -0.0988 -0.5079 -0.2231
33865SOL    HW1 6152   7.374   7.325   4.043  1.7117 -0.9279 -0.8200
33865SOL    HW2 6153   7.305   7.399   3.930  2.0709  0.4585 -0.1580
33866SOL     OW 6154   8.078   1.092   7.979 -0.3540 -0.0147  0.1683
33866SOL    HW1 6155   8.152   1.036   8.003  1.5362  1.8701 -0.8881
33866SOL    HW2 6156   8.081   1.164   8.043 -1.3892 -0.0074  0.2194
33867SOL     OW 6157   4.460   4.868   9.479 -0.3242  0.1737  0.2331
33867SOL    HW1 6158   4.402   4.803   9.519 -0.7322  0.5353  0.2431
33867SOL    HW2 6159   4.538   4.869   9.535  0.1789 -1.1214 -0.4170
33868SOL     OW 6160   8.455   8.807  11.997  0.1717  0.5149  0.0670
33868SOL    HW1 6161   8.427   8.826  11.907  1.4918 -0.1444 -0.5074
33868SOL    HW2 6162   8.404   8.729  12.021 -0.8083  1.1805  0.2268
33869SOL     OW 6163   5.358   1.833   5.747  0.0254  0.0577  0.4450
33869SOL    HW1 6164   5.435   1.891   5.745 -0.3226  0.5449 -2.0557
33869SOL    HW2 6165   5.391   1.751   5.782  1.4795  0.5457  0.3020
33870SOL     OW 6166   3.856   9.045   5.707  0.2934 -0.5183  0.0819
33870SOL    HW1 6167   3.881   9.093   5.628 -0.4406 -0.1310  0.0833
33870SOL    HW2 6168   3.801   8.973   5.676  0.2306 -0.5279  0.2148
33871SOL     OW 6169   4.397   4.380   3.403  0.2553  0.3568  1.1557
33871SOL    HW1 6170   4.402   4.367   3.497 -1.2002  3.5120  1.8143
33871SOL    HW2 6171   4.307   4.357   3.380  0.3585  0.3939  0.6948
33872SOL     OW 6172  10.037   8.819  11.479 -0.5564  0.5528  0.5153
33872SOL    HW1 6173  10.043   8.898  11.425 -0.1014  0.8093  0.9319
33872SOL    HW2 6174  10.103   8.760  11.443 -0.4075  0.6375  0.6502
33873SOL     OW 6175   3.247   4.601   4.292 -0.0039 -0.7580 -0.2047
33873SOL    HW1 6176   3.193   4.597   4.213  0.6948 -3.2700 -0.6355
33873SOL    HW2 6177   3.334   4.574   4.263  0.7669  0.2489  1.0602
33874SOL     OW 6178   7.037   5.042   2.483 -0.5120  0.1519 -0.0791
33874SOL    HW1 6179   6.969   5.024   2.548 -0.3625  0.1444  0.0748
33874SOL    HW2 6180   7.119   5.043   2.533 -0.3181 -0.5296 -0.3776
33875SOL     OW 6181   7.748   9.224  11.218  0.2823  0.2778  0.6656
33875SOL    HW1 6182   7.660   9.223  11.180 -0.3502  1.3231  2.0124
33875SOL    HW2 6183   7.752   9.145  11.270  0.7954 -0.6543 -0.7374
33876SOL     OW 6184   5.888   7.960   0.544  0.5733  0.4684  0.1025
33876SOL    HW1 6185   5.970   7.959   0.497  0.4192 -0.7476 -0.1666
33876SOL    HW2 6186   5.913   7.968   0.636  0.9295  1.3161 -0.0600
33877SOL     OW 6187   7.197   2.959   8.928  0.2116 -0.2575 -0.6236
33877SOL    HW1 6188   7.243   2.928   9.005 -0.0769 -0.8056 -0.6648
33877SOL    HW2 6189   7.107   2.972   8.957  0.4721  1.2409 -0.4271
33878SOL     OW 6190  11.574   1.291   8.278  0.0419  0.2884 -0.2978
33878SOL    HW1 6191  11.561   1.327   8.190  0.7749 -0.2818 -0.6459
33878SOL    HW2 6192  11.634   1.353   8.321  1.8673 -0.8149 -1.1321
33879SOL     OW 6193   3.505   9.597  11.439 -0.5609  0.5853  0.1095
33879SOL    HW1 6194   3.534   9.509  11.414  0.0398  0.4688  1.1514
33879SOL    HW2 6195   3.410   9.589  11.449 -0.5358  0.1031 -0.0041
33880SOL     OW 6196   9.836   2.522   2.304  0.1915  0.9606  0.4656
33880SOL    HW1 6197   9.813   2.430   2.320 -0.2355  1.1517  0.9855
33880SOL    HW2 6198   9.830   2.532   2.209 -1.2797  0.8357  0.5269
33881SOL     OW 6199   3.540   8.982   5.043  0.2547 -0.2803 -0.4103
33881SOL    HW1 6200   3.467   8.973   5.104 -1.5989  0.1484 -2.4073
33881SOL    HW2 6201   3.587   9.060   5.073  0.9661 -1.4946  1.8718
33882SOL     OW 6202  11.624   6.987   3.294  0.0278 -0.6559  0.2435
33882SOL    HW1 6203  11.607   7.069   3.339 -0.3460 -1.3484  1.4077
33882SOL    HW2 6204  11.614   7.008   3.201  1.9922  1.0719  0.3689
33883SOL     OW 6205   9.598   6.735   1.889 -0.0859 -0.1804 -0.1331
33883SOL    HW1 6206   9.589   6.789   1.968 -0.0013  0.3587 -0.4911
33883SOL    HW2 6207   9.580   6.646   1.919  0.5282 -0.0630  0.6262
33884SOL     OW 6208   8.645  10.534   6.589 -0.1215 -1.1121  0.0948
33884SOL    HW1 6209   8.650  10.629   6.588  0.0608 -1.1089  0.8050
33884SOL    HW2 6210   8.711  10.506   6.525  0.4622 -0.7759  0.5380
33885SOL     OW 6211   2.229   0.084   9.018  0.1842 -0.1618 -0.0018
33885SOL    HW1 6212   2.287   0.010   9.037  0.9252  0.2860 -0.4544
33885SOL    HW2 6213   2.172   0.090   9.095 -0.2661 -1.5351 -0.1957
33886SOL     OW 6214   7.555   0.953   3.894 -0.1663  0.4989  0.2361
33886SOL    HW1 6215   7.637   0.974   3.939 -0.2252  1.7535 -0.2082
33886SOL    HW2 6216   7.490   0.949   3.964 -0.1200  1.6993  0.3640
33887SOL     OW 6217   5.703   2.494   4.299 -0.1383  0.9931 -0.3679
33887SOL    HW1 6218   5.649   2.490   4.220  2.0081 -0.9181 -1.8711
33887SOL    HW2 6219   5.687   2.411   4.343  1.1932  0.5532 -0.6474
33888SOL     OW 6220   7.400   1.645  11.044  0.3483  0.1334  0.8048
33888SOL    HW1 6221   7.363   1.602  11.121 -0.8236  1.7432  1.2140
33888SOL    HW2 6222   7.361   1.733  11.045  1.7041  0.8005 -0.6308
33889SOL     OW 6223   3.337  10.224   7.601 -0.6369  0.7760  0.2365
33889SOL    HW1 6224   3.280  10.162   7.557 -2.4593  1.4525  1.5515
33889SOL    HW2 6225   3.356  10.291   7.535  1.4788 -1.1158 -1.2525
33890SOL     OW 6226   7.205   3.240   1.591  0.3506  0.6168  0.2480
33890SOL    HW1 6227   7.208   3.171   1.525 -1.3568  1.4886 -0.8225
33890SOL    HW2 6228   7.184   3.320   1.542  1.0361  1.6824  1.6042
33891SOL     OW 6229   4.154   6.393   7.567 -0.2689 -0.0278 -0.1714
33891SOL    HW1 6230   4.071   6.408   7.612 -0.7216 -1.1471 -0.5887
33891SOL    HW2 6231   4.219   6.390   7.636 -0.3075  2.3778  0.0531
33892SOL     OW 6232  10.422   5.611   3.152 -0.6622 -1.0878  0.0222
33892SOL    HW1 6233  10.389   5.528   3.186 -0.7097 -0.3163  1.9883
33892SOL    HW2 6234  10.405   5.674   3.222  1.0316  0.2134 -0.6720
33893SOL     OW 6235   9.358   0.486  10.074 -0.2526 -0.0913 -0.1187
33893SOL    HW1 6236   9.274   0.522  10.103 -0.7812 -1.0571 -0.4161
33893SOL    HW2 6237   9.395   0.445  10.152 -1.2274 -1.8430 -0.5350
33894SOL     OW 6238  10.144   3.859   1.566  0.8154 -0.5433 -0.3182
33894SOL    HW1 6239  10.229   3.871   1.608  1.4719 -1.3075 -1.3824
33894SOL    HW2 6240  10.164   3.851   1.473 -0.2992 -1.9022 -0.4804
33895SOL     OW 6241   3.792  10.143   8.118 -0.3192 -0.7560 -0.2586
33895SOL    HW1 6242   3.754  10.072   8.067 -1.5915  0.3738 -0.9424
33895SOL    HW2 6243   3.728  10.161   8.187  0.2945 -0.7071  0.3066
33896SOL     OW 6244   2.345  11.060   9.351 -0.8338 -0.3522  0.2312
33896SOL    HW1 6245   2.394  11.048   9.432  0.2386  0.5094 -0.2450
33896SOL    HW2 6246   2.254  11.066   9.377 -0.4456  0.5472  1.4391
33897SOL     OW 6247   6.425   3.233   1.818  0.6502  0.4843  0.0527
33897SOL    HW1 6248   6.394   3.294   1.751  0.2230  0.9513  0.6536
33897SOL    HW2 6249   6.516   3.216   1.796  1.0931  2.1617  0.4320
33898SOL     OW 6250   4.649   2.598  10.759  0.3159  0.0113  0.0302
33898SOL    HW1 6251   4.609   2.684  10.741 -1.2089 -0.6322  0.1463
33898SOL    HW2 6252   4.650   2.592  10.855  0.3549 -0.1161  0.0217
33899SOL     OW 6253   8.153   9.325   9.872  0.0079 -0.2174 -0.1555
33899SOL    HW1 6254   8.209   9.387   9.918  0.8040  1.0534 -2.6488
33899SOL    HW2 6255   8.203   9.300   9.795 -1.9797 -0.6913 -1.3778
33900SOL     OW 6256   7.636   9.951   9.394 -0.3008 -0.5349 -0.7350
33900SOL    HW1 6257   7.627   9.982   9.484 -0.6833 -0.5974 -0.7469
33900SOL    HW2 6258   7.696  10.013   9.353  0.2620 -0.7840 -0.3096
33901SOL     OW 6259  11.275   9.607   0.914 -0.0214  0.1894  0.3611
33901SOL    HW1 6260  11.364   9.586   0.942  0.1157 -0.3570 -0.4320
33901SOL    HW2 6261  11.270   9.572   0.824 -0.9513  0.4344  0.3124
33902SOL     OW 6262   7.338   6.121   0.272 -0.2840 -0.5354 -0.0549
33902SOL    HW1 6263   7.386   6.203   0.276  0.9715 -1.2637  0.5713
33902SOL    HW2 6264   7.263   6.133   0.330  1.0386 -0.5108  1.7482
33903SOL     OW 6265   5.267   7.958   8.713 -0.0641 -0.0221  0.6153
33903SOL    HW1 6266   5.212   8.005   8.651 -0.5362 -0.6963  0.5055
33903SOL    HW2 6267   5.339   7.923   8.661  0.9101  1.5075  0.8899
33904SOL     OW 6268   4.626   3.876   9.030  0.5581  0.3102  0.7734
33904SOL    HW1 6269   4.542   3.872   9.077  0.8855  0.4397  1.3807
33904SOL    HW2 6270   4.618   3.952   8.973  0.4914  0.6947  1.2863
33905SOL     OW 6271   6.898   8.446   5.383 -0.2773  0.0646 -0.1562
33905SOL    HW1 6272   6.889   8.431   5.477 -2.1127 -0.2131 -0.3293
33905SOL    HW2 6273   6.879   8.539   5.372  0.8273  0.2966 -0.1716
33906SOL     OW 6274   6.412   8.014   7.836  0.1469  0.0720  0.2000
33906SOL    HW1 6275   6.507   8.027   7.844  0.8513 -1.6212 -3.4464
33906SOL    HW2 6276   6.398   7.921   7.852 -1.0888  0.4761  1.6497
33907SOL     OW 6277   9.056   6.336   6.160 -0.1375  0.4370  0.4850
33907SOL    HW1 6278   9.036   6.303   6.248  1.1770 -1.6378  0.0632
33907SOL    HW2 6279   9.011   6.277   6.101 -0.4261  1.3994 -0.2873
33908SOL     OW 6280   3.836   1.927   4.302  0.1597 -0.1161 -0.2933
33908SOL    HW1 6281   3.838   1.835   4.326 -0.1172 -0.7442 -2.4997
33908SOL    HW2 6282   3.776   1.932   4.228 -1.7407  2.2506  1.2354
33909SOL     OW 6283  10.390   1.399   9.438 -0.4470 -0.0855 -0.2447
33909SOL    HW1 6284  10.484   1.383   9.426 -0.1946  0.3228  1.0252
33909SOL    HW2 6285  10.351   1.312   9.436 -0.0588 -0.2579 -0.8187
33910SOL     OW 6286   4.360   4.250   5.836 -0.1532 -0.4614  0.6007
33910SOL    HW1 6287   4.384   4.284   5.922  0.3602  0.8144 -0.0089
33910SOL    HW2 6288   4.388   4.319   5.775 -1.1169 -1.0385 -0.5302
33911SOL     OW 6289   6.008  10.099   7.680  0.3124 -1.0406 -0.2398
33911SOL    HW1 6290   6.085  10.145   7.715 -1.0929  0.5421  0.9016
33911SOL    HW2 6291   6.044  10.020   7.640  2.8343  0.7967 -1.9334
33912SOL     OW 6292   6.758  12.116  11.205 -1.1962 -0.3583  0.4155
33912SOL    HW1 6293   6.736  12.091  11.295 -1.2181 -0.7885  0.2955
33912SOL    HW2 6294   6.777  12.209  11.209  1.2744 -0.8362  1.3502
33913SOL     OW 6295   6.843   4.156   4.850 -0.6334 -0.1182 -0.2162
33913SOL    HW1 6296   6.758   4.192   4.876 -0.9408 -0.8519 -0.1708
33913SOL    HW2 6297   6.860   4.195   4.764 -1.6978 -1.0324 -0.8792
33914SOL     OW 6298   1.262  11.259  10.563  0.6582 -0.4525 -0.8620
33914SOL    HW1 6299   1.187  11.319  10.561 -1.5525 -2.9451  0.1352
33914SOL    HW2 6300   1.284  11.252  10.656  0.0227 -2.0501 -0.7917
33915SOL     OW 6301   7.837   0.033   5.384 -0.2505 -0.0086 -0.3314
33915SOL    HW1 6302   7.887  -0.048   5.384 -0.9391 -0.4732 -2.1174
33915SOL    HW2 6303   7.749   0.007   5.408 -0.2209  0.3986  0.2333
33916SOL     OW 6304   0.520   9.907   5.399 -0.1714 -0.3082 -0.6474
33916SOL    HW1 6305   0.598   9.875   5.353  0.1443  2.3800 -2.1630
33916SOL    HW2 6306   0.469   9.951   5.331 -0.2452  2.8770  1.2789
33917SOL     OW 6307   8.539   2.947   4.799 -0.3275 -0.0299  0.2520
33917SOL    HW1 6308   8.477   2.874   4.787  0.8494 -0.8808 -0.9024
33917SOL    HW2 6309   8.492   3.023   4.766 -0.8497 -0.6287 -0.4268
33918SOL     OW 6310   4.002   1.154   1.698 -0.3899 -0.0985 -0.0691
33918SOL    HW1 6311   4.064   1.148   1.626 -3.0467 -0.8451 -2.4980
33918SOL    HW2 6312   3.964   1.241   1.690 -0.5026 -0.0839  0.5979
33919SOL     OW 6313   5.209   9.589   6.239 -0.6467  0.1643  0.1719
33919SOL    HW1 6314   5.275   9.540   6.289  1.0862 -0.0380 -2.1770
33919SOL    HW2 6315   5.258   9.661   6.199 -2.5721  2.1136  1.0996
33920SOL     OW 6316  11.536  10.711   9.253 -0.0548 -0.1681 -0.0764
33920SOL    HW1 6317  11.616  10.719   9.305  0.1506  1.9652 -0.6500
33920SOL    HW2 6318  11.530  10.793   9.205 -1.2194 -1.3271 -2.0461
33921SOL     OW 6319  10.107   8.401   9.209  0.4921 -0.2804 -0.5833
33921SOL    HW1 6320  10.059   8.356   9.139 -1.0750 -0.8428  0.7788
33921SOL    HW2 6321  10.039   8.440   9.264  1.7545  2.3170 -0.7134
33922SOL     OW 6322  11.782   7.840   2.808  0.2460 -0.2516  0.1783
33922SOL    HW1 6323  11.731   7.883   2.740 -0.1060  0.6854  1.0067
33922SOL    HW2 6324  11.810   7.757   2.769  0.0219  0.2431 -1.0771
33923SOL     OW 6325   6.987   4.841   4.922  0.8933 -0.5795  0.1332
33923SOL    HW1 6326   7.057   4.778   4.908  0.9605 -0.4786  0.0209
33923SOL    HW2 6327   7.005   4.878   5.009  1.2542 -0.1986 -0.1034
33924SOL     OW 6328  10.848   1.358   5.246  0.7543  0.0315 -0.1025
33924SOL    HW1 6329  10.914   1.292   5.268  0.2921 -0.0819  0.9623
33924SOL    HW2 6330  10.868   1.433   5.302  0.8985  0.5756 -0.8658
33925SOL     OW 6331   4.597   1.720  10.149  0.2099  0.6539  0.3906
33925SOL    HW1 6332   4.656   1.795  10.152  2.0198 -0.4534 -2.6166
33925SOL    HW2 6333   4.643   1.651  10.197 -0.4065  0.8250  1.2371
33926SOL     OW 6334   7.317   2.540   7.212  0.1327 -0.0734 -0.4419
33926SOL    HW1 6335   7.291   2.489   7.135 -1.2661 -0.8071  0.4732
33926SOL    HW2 6336   7.239   2.541   7.268  0.0910  3.0716 -0.3788
33927SOL     OW 6337   2.139   8.360  11.716 -0.0511 -0.4928 -0.2683
33927SOL    HW1 6338   2.153   8.265  11.717 -0.3821 -0.5443 -0.4290
33927SOL    HW2 6339   2.084   8.377  11.792 -0.5256 -0.5144 -0.6066
33928SOL     OW 6340   4.987  11.883   5.088  0.0524 -0.1025 -0.6129
33928SOL    HW1 6341   4.894  11.896   5.072  0.1400 -0.1556 -1.2178
33928SOL    HW2 6342   4.996  11.788   5.099 -0.3748  0.1342  2.3483
33929SOL     OW 6343   2.522   1.183   5.149 -0.8422  0.5816 -0.0815
33929SOL    HW1 6344   2.502   1.111   5.089  3.1726 -0.1617 -0.8416
33929SOL    HW2 6345   2.492   1.151   5.235 -0.4867 -1.3957 -0.6408
33930SOL     OW 6346   4.517   8.445  10.758  0.0144 -0.3276  0.0133
33930SOL    HW1 6347   4.572   8.390  10.814 -0.7492 -1.0785  0.0559
33930SOL    HW2 6348   4.571   8.465  10.682 -0.3420 -2.9347 -1.0419
33931SOL     OW 6349  10.210   8.393   6.300 -0.3095 -0.0371 -0.2274
33931SOL    HW1 6350  10.166   8.477   6.285 -0.7920 -0.1320  0.6219
33931SOL    HW2 6351  10.265   8.381   6.222 -0.0831  1.1557 -0.2727
33932SOL     OW 6352   3.950   0.115  11.383 -1.1380  0.1769 -0.2274
33932SOL    HW1 6353   4.021   0.175  11.405 -1.9482  0.7692  0.8130
33932SOL    HW2 6354   3.977   0.031  11.422 -1.1907  0.4984  0.5085
33933SOL     OW 6355   0.770   8.049   7.989  0.3199  0.1323  0.0428
33933SOL    HW1 6356   0.803   8.124   8.039  0.9046 -1.0676  1.5370
33933SOL    HW2 6357   0.808   8.060   7.902 -0.0611  1.8517  0.0547
33934SOL     OW 6358   5.033   2.002   0.244 -0.2998 -0.4650  0.4082
33934SOL    HW1 6359   5.040   1.907   0.237 -2.7523 -0.8713  2.3223
33934SOL    HW2 6360   5.058   2.022   0.334  1.4711  0.9331 -0.3288
33935SOL     OW 6361  11.301  11.543   5.511  0.2932  0.4248  0.1987
33935SOL    HW1 6362  11.236  11.608   5.487  1.0148  0.7907 -0.8177
33935SOL    HW2 6363  11.383  11.592   5.518  0.2875  0.2421  2.8121
33936SOL     OW 6364   3.257   8.263   1.779  0.4052  0.3615  0.1403
33936SOL    HW1 6365   3.176   8.239   1.824  0.2282 -1.5125 -1.0439
33936SOL    HW2 6366   3.248   8.356   1.760 -1.2081  0.3177  0.5735
33937SOL     OW 6367   3.838   5.209   8.097 -0.4841  0.2952 -0.1366
33937SOL    HW1 6368   3.861   5.163   8.177 -1.3357 -1.5781 -0.9203
33937SOL    HW2 6369   3.795   5.289   8.127  0.0431  0.0737  1.2613
33938SOL     OW 6370   1.359   7.551   9.200 -0.4650 -0.3939  0.6828
33938SOL    HW1 6371   1.283   7.572   9.145 -0.2125  0.4643  0.6352
33938SOL    HW2 6372   1.322   7.539   9.288 -0.2878  6.1432  2.1708
33939SOL     OW 6373  10.101   2.170   6.677  0.0193 -0.0501 -0.1288
33939SOL    HW1 6374  10.154   2.174   6.757  2.4804 -0.6345 -1.6398
33939SOL    HW2 6375  10.087   2.077   6.662 -0.2429  0.0508 -0.5163
33940SOL     OW 6376   9.110   0.216   8.911 -0.1823  0.3663 -0.2493
33940SOL    HW1 6377   9.134   0.231   9.003  2.3378  0.3970 -0.8419
33940SOL    HW2 6378   9.014   0.208   8.912 -0.6036  3.7281  1.9195
33941SOL     OW 6379   3.807   8.371   0.729  0.1901 -0.5760  0.3833
33941SOL    HW1 6380   3.896   8.337   0.732  0.4453  0.0037 -0.2386
33941SOL    HW2 6381   3.817   8.460   0.694 -0.6801 -0.7031 -0.2241
33942SOL     OW 6382   8.116   8.776   3.401  0.5600  0.3997 -0.3123
33942SOL    HW1 6383   8.093   8.748   3.312  2.4038 -0.1111 -0.6573
33942SOL    HW2 6384   8.191   8.835   3.389  1.5282 -0.5216  0.9631
33943SOL     OW 6385   9.622   7.334   1.331 -0.0160 -0.2462  0.1959
33943SOL    HW1 6386   9.656   7.350   1.420  0.5455 -0.7105  0.0718
33943SOL    HW2 6387   9.530   7.310   1.345 -0.3424  1.1369  0.5321
33944SOL     OW 6388   2.549  10.316   8.743  0.0768 -0.9995  0.0279
33944SOL    HW1 6389   2.595  10.385   8.694  0.2218 -0.1194  1.3570
33944SOL    HW2 6390   2.460  10.317   8.708  0.2770 -0.6555 -0.4842
33945SOL     OW 6391   3.974   4.644   1.020 -0.1594  0.0489 -0.5108
33945SOL    HW1 6392   3.918   4.703   1.070  0.9200 -0.5280  1.5065
33945SOL    HW2 6393   4.041   4.701   0.982 -1.8726  0.6987 -2.6985
33946SOL     OW 6394   5.907   8.406   2.359 -0.8857 -0.3346  0.5385
33946SOL    HW1 6395   5.888   8.343   2.428  1.4436 -1.9294 -0.1751
33946SOL    HW2 6396   5.892   8.358   2.278  2.8188 -0.7625 -0.0348
33947SOL     OW 6397   3.572   9.879   9.720  0.5417  0.2254  0.3083
33947SOL    HW1 6398   3.620   9.961   9.713  1.2963 -0.3370 -2.1657
33947SOL    HW2 6399   3.615   9.831   9.791  2.1003  0.7266 -0.2681
33948SOL     OW 6400   8.985   6.816   5.630 -0.3434 -0.0684  0.0077
33948SOL    HW1 6401   8.969   6.747   5.565 -0.2326  0.5573 -0.7013
33948SOL    HW2 6402   8.999   6.769   5.712  0.6543 -0.9304 -0.6386
33949SOL     OW 6403   1.425   0.768   9.948 -0.6560  0.5876 -0.1795
33949SOL    HW1 6404   1.484   0.825   9.997  1.1300 -1.5752  0.3457
33949SOL    HW2 6405   1.400   0.699  10.010 -0.4454 -0.7726 -1.5275
33950SOL     OW 6406   6.953  10.639   6.386 -0.0158  0.0303  0.3723
33950SOL    HW1 6407   6.860  10.646   6.361  0.1498  0.0047 -0.2570
33950SOL    HW2 6408   6.952  10.583   6.463 -0.5630  0.3361  0.6016
33951SOL     OW 6409   0.676   8.015  10.470  0.9678 -0.4616 -0.1909
33951SOL    HW1 6410   0.644   8.027  10.380 -0.3525 -0.1165  0.3058
33951SOL    HW2 6411   0.659   8.099  10.513  1.0224 -0.8157  0.5423
33952SOL     OW 6412   7.826  10.052   1.401 -0.6760 -0.3944 -0.2054
33952SOL    HW1 6413   7.751  10.007   1.440 -1.0586  0.5155  0.1301
33952SOL    HW2 6414   7.795  10.080   1.315  0.3613 -2.9470 -1.5108
33953SOL     OW 6415  10.167   8.755   4.910 -0.4057 -0.4402  0.4509
33953SOL    HW1 6416  10.244   8.808   4.890  0.0445 -0.1731  2.6442
33953SOL    HW2 6417  10.194   8.700   4.984 -2.8302  1.0790  2.6332
33954SOL     OW 6418   4.901   2.912   7.235  0.3534 -0.1237 -0.2593
33954SOL    HW1 6419   4.922   2.984   7.175  1.4036  0.3886  0.6750
33954SOL    HW2 6420   4.852   2.953   7.306 -0.1323 -0.5661 -0.3332
33955SOL     OW 6421   1.469   9.603   7.894 -0.3859  0.2260  0.0269
33955SOL    HW1 6422   1.459   9.542   7.967 -0.8618  0.3138  0.0404
33955SOL    HW2 6423   1.557   9.586   7.860 -0.5070 -0.4602  0.0426
33956SOL     OW 6424   0.357  10.271   7.236 -0.0595 -0.2492 -0.8122
33956SOL    HW1 6425   0.348  10.365   7.248  1.0253 -0.3483  1.0894
33956SOL    HW2 6426   0.271  10.236   7.259  0.1654  0.1346  0.7609
33957SOL     OW 6427   8.226   1.034   9.408  0.1006 -0.7367  0.0769
33957SOL    HW1 6428   8.169   1.009   9.334  0.5768  0.5459 -0.7615
33957SOL    HW2 6429   8.174   1.013   9.486 -1.4061  0.0918 -0.6539
33958SOL     OW 6430   4.647   2.552   8.955  0.1784  0.1312  0.1335
33958SOL    HW1 6431   4.689   2.480   9.003  0.2927 -0.2451 -0.5232
33958SOL    HW2 6432   4.555   2.547   8.981  0.2711  0.0484  0.4570
33959SOL     OW 6433   7.105   0.435   5.548  0.2885 -0.7022 -0.6351
33959SOL    HW1 6434   7.053   0.370   5.501 -0.4465  0.0839 -0.9462
33959SOL    HW2 6435   7.069   0.519   5.520  0.2499 -0.1910  0.8236
33960SOL     OW 6436   7.582   4.750   7.138 -0.1826  0.1983 -0.1401
33960SOL    HW1 6437   7.622   4.788   7.216 -0.5433  0.6853 -0.1856
33960SOL    HW2 6438   7.494   4.788   7.135 -1.4678 -2.4328  1.1146
33961SOL     OW 6439   8.557   8.803  11.218 -0.5116  0.0349  0.9053
33961SOL    HW1 6440   8.492   8.781  11.151 -1.6587  1.1731  1.5968
33961SOL    HW2 6441   8.598   8.719  11.239 -0.8023 -0.4991 -0.5050
33962SOL     OW 6442   1.341   3.527   2.027  0.0179  0.2446  0.0310
33962SOL    HW1 6443   1.403   3.500   2.094 -1.9446 -1.2427  1.3826
33962SOL    HW2 6444   1.299   3.606   2.062  0.5344  0.7791 -0.5147
33963SOL     OW 6445   7.020  11.937   8.456 -0.3768 -0.4635  0.5136
33963SOL    HW1 6446   6.936  11.910   8.419  0.4035 -0.3380 -1.5215
33963SOL    HW2 6447   7.082  11.872   8.421  0.5974  0.3804  0.6391
33964SOL     OW 6448  11.472   9.231   3.312 -0.2114 -0.8919  0.3673
33964SOL    HW1 6449  11.447   9.270   3.228 -0.5602 -1.3813  0.2374
33964SOL    HW2 6450  11.441   9.294   3.377  1.6445  0.3810  0.1038
33965SOL     OW 6451   9.461   3.865   8.583  0.4161  0.0829  0.5604
33965SOL    HW1 6452   9.394   3.894   8.645  0.3307  0.5005  0.2755
33965SOL    HW2 6453   9.525   3.819   8.636 -0.4720 -1.0056  0.7513
33966SOL     OW 6454   2.953   3.409   3.669  0.1658 -0.1101  0.0914
33966SOL    HW1 6455   2.878   3.356   3.695 -0.5678  1.2584  0.8293
33966SOL    HW2 6456   3.004   3.420   3.750  0.2220  0.4488 -0.0165
33967SOL     OW 6457   9.182   9.269   6.096 -0.5310 -0.2378 -0.3714
33967SOL    HW1 6458   9.098   9.304   6.067 -0.5078 -0.5209 -0.7789
33967SOL    HW2 6459   9.234   9.261   6.016 -0.2598 -0.4569 -0.1752
33968SOL     OW 6460   1.800   3.159   1.618 -0.2935  0.5586  0.5576
33968SOL    HW1 6461   1.726   3.210   1.650  0.7095  1.4094  1.6384
33968SOL    HW2 6462   1.836   3.117   1.696 -0.8924 -1.5798 -0.2717
33969SOL     OW 6463  11.595   4.767   9.644  0.0355 -0.1222  0.1638
33969SOL    HW1 6464  11.641   4.683   9.636 -0.0306 -0.0524 -1.2114
33969SOL    HW2 6465  11.588   4.782   9.739  1.0243 -1.1262  0.4196
33970SOL     OW 6466   6.981   8.783   2.827 -0.2300 -0.1161 -0.5488
33970SOL    HW1 6467   7.075   8.776   2.846  0.1773 -1.4762 -2.6930
33970SOL    HW2 6468   6.976   8.840   2.751 -1.2974  1.0323  0.3456
33971SOL     OW 6469  10.148  12.026   1.002 -0.5339  0.2959 -0.2901
33971SOL    HW1 6470  10.191  12.106   0.972  0.2577 -0.0778 -0.1773
33971SOL    HW2 6471  10.154  12.030   1.098 -0.5928  0.1585 -0.2802
33972SOL     OW 6472  10.150   7.032   7.509  0.0759  0.8520 -0.2379
33972SOL    HW1 6473  10.162   6.950   7.462  0.0522  1.4674 -1.3768
33972SOL    HW2 6474  10.060   7.059   7.487 -0.7851  0.0511  2.0208
33973SOL     OW 6475   7.328   6.943   9.237 -0.1774 -0.2527 -0.7122
33973SOL    HW1 6476   7.245   6.953   9.189 -0.7901  0.2504  0.3979
33973SOL    HW2 6477   7.325   6.853   9.271 -1.0915  0.2933  0.7422
33974SOL     OW 6478   7.056   3.956   8.642 -0.3647  0.2475  0.2686
33974SOL    HW1 6479   7.080   4.006   8.564  0.9284 -1.3307 -0.4262
33974SOL    HW2 6480   6.986   4.006   8.683  1.3393  2.9672  0.0444
33975SOL     OW 6481   2.513  12.037   6.935  0.3978  0.1791 -0.9259
33975SOL    HW1 6482   2.490  12.072   7.022 -0.6241  0.4205 -1.2808
33975SOL    HW2 6483   2.435  12.054   6.881  0.6208 -0.9157 -1.6180
33976SOL     OW 6484   1.786  11.069   3.001  0.5757 -0.0732  0.0042
33976SOL    HW1 6485   1.758  11.033   2.917 -0.1085 -1.1914  0.6891
33976SOL    HW2 6486   1.782  11.164   2.989 -0.4400 -0.2181 -0.9312
33977SOL     OW 6487  10.087   1.814   2.380 -0.1287  0.5244  0.3202
33977SOL    HW1 6488   9.994   1.793   2.380  0.3467 -1.8690  1.1521
33977SOL    HW2 6489  10.113   1.808   2.288 -0.8495  1.7178  0.0131
33978SOL     OW 6490   8.783   7.646   7.930 -0.1069 -0.2446  0.2072
33978SOL    HW1 6491   8.722   7.719   7.916  1.8923  1.1097 -2.1390
33978SOL    HW2 6492   8.851   7.658   7.864  1.2463 -3.2970  0.8671
33979SOL     OW 6493   9.712   1.245   8.377  0.3974  0.2265  0.1233
33979SOL    HW1 6494   9.741   1.169   8.428  0.8977  1.1433  1.2543
33979SOL    HW2 6495   9.622   1.225   8.353  0.7225 -0.9964 -0.1357
33980SOL     OW 6496   2.325   5.704   4.432  0.0779 -0.1611 -0.8231
33980SOL    HW1 6497   2.365   5.748   4.357 -0.8042 -0.0572 -1.2516
33980SOL    HW2 6498   2.320   5.772   4.500  2.1780 -0.6297 -0.1467
33981SOL     OW 6499   3.114   4.261   8.276 -0.1468 -0.3210  0.1716
33981SOL    HW1 6500   3.205   4.253   8.249  0.0642 -0.2016  0.8150
33981SOL    HW2 6501   3.091   4.174   8.311  0.2207  0.0673  1.4512
33982SOL     OW 6502  10.031  11.737  11.584 -0.4612 -0.4778  0.2034
33982SOL    HW1 6503  10.118  11.773  11.563 -0.2565  0.4396  2.4159
33982SOL    HW2 6504  10.002  11.697  11.502  0.3722  2.5696 -1.7595
33983SOL     OW 6505   8.971   4.222   8.560  0.3913  0.0934 -0.0836
33983SOL    HW1 6506   8.940   4.133   8.547  1.2405  0.1794 -3.5269
33983SOL    HW2 6507   8.905   4.277   8.518  1.3999  0.8240 -0.7629
33984SOL     OW 6508   3.295   7.778  11.126 -0.1650 -0.0728  0.1807
33984SOL    HW1 6509   3.354   7.730  11.183  0.3339 -0.2801 -0.5008
33984SOL    HW2 6510   3.256   7.712  11.070 -0.6177  0.1351  0.2438
33985SOL     OW 6511   7.480   1.055   6.464 -0.1513  0.5277 -0.2283
33985SOL    HW1 6512   7.401   1.108   6.478 -1.3442 -1.0087 -0.9078
33985SOL    HW2 6513   7.447   0.969   6.438  1.7656  0.1545 -1.6383
33986SOL     OW 6514   9.009   8.360   1.362 -0.6966  0.4348  0.6907
33986SOL    HW1 6515   9.039   8.299   1.295 -2.1403  0.8468 -0.3632
33986SOL    HW2 6516   9.085   8.415   1.379 -0.4989  0.7794 -1.1293
33987SOL     OW 6517   8.444   9.954   4.522  0.8569 -0.4873  0.0839
33987SOL    HW1 6518   8.425  10.022   4.457 -2.3325 -1.3671 -0.0388
33987SOL    HW2 6519   8.520   9.908   4.486  1.9158  1.7346 -0.7590
33988SOL     OW 6520   2.583   0.495   7.543  0.8924 -0.1570  0.4168
33988SOL    HW1 6521   2.659   0.551   7.526  0.7895  0.2368  1.1881
33988SOL    HW2 6522   2.573   0.497   7.638  0.4704 -0.9447  0.3974
33989SOL     OW 6523   2.327  10.713   7.112 -0.4504 -0.2488 -0.1615
33989SOL    HW1 6524   2.263  10.772   7.151 -1.1417 -1.0998  0.0262
33989SOL    HW2 6525   2.411  10.756   7.126 -0.7702 -0.0635  1.4080
33990SOL     OW 6526   8.873   8.202   5.454 -0.4243 -0.1258  0.6686
33990SOL    HW1 6527   8.856   8.227   5.545  0.3211  2.0667  0.2653
33990SOL    HW2 6528   8.887   8.285   5.409  0.1521 -1.2242 -1.2756
33991SOL     OW 6529  10.957   5.181  10.145  0.0064  0.2825  0.3095
33991SOL    HW1 6530  10.905   5.202  10.067 -0.6523  2.1164  1.1790
33991SOL    HW2 6531  10.979   5.089  10.135 -3.3128 -0.6024 -0.2199
33992SOL     OW 6532   7.994   1.131   3.866  0.2633 -0.5765  0.2366
33992SOL    HW1 6533   7.915   1.180   3.841  0.3376 -0.9354 -0.7631
33992SOL    HW2 6534   7.964   1.040   3.873  0.0298 -0.3756  2.5084
33993SOL     OW 6535   6.692   8.269  10.589 -0.6153 -0.1722  0.3068
33993SOL    HW1 6536   6.605   8.230  10.595 -1.9021  2.5200  0.3163
33993SOL    HW2 6537   6.718   8.284  10.680 -0.9915  0.7285  0.2767
33994SOL     OW 6538   0.444   2.553   6.752  0.0996 -0.3860 -0.7333
33994SOL    HW1 6539   0.434   2.521   6.663 -0.0812 -0.5026 -0.6718
33994SOL    HW2 6540   0.355   2.572   6.781  0.0247 -1.5139 -0.1511
33995SOL     OW 6541   6.989  10.704  11.967 -0.0357  0.3198  0.5296
33995SOL    HW1 6542   6.953  10.645  11.901 -1.6372  2.5844 -0.7919
33995SOL    HW2 6543   6.916  10.761  11.991  1.2384  1.3679  2.1702
33996SOL     OW 6544  12.092   0.505   0.115 -0.5145  0.6413  0.2499
33996SOL    HW1 6545  12.181   0.496   0.148 -0.2130  0.9597 -0.4493
33996SOL    HW2 6546  12.075   0.600   0.118 -1.1869  0.5039  1.2770
33997SOL     OW 6547   2.762  11.267   3.683  0.3706  0.0720 -0.3079
33997SOL    HW1 6548   2.792  11.331   3.619  1.4983 -0.4738 -0.3442
33997SOL    HW2 6549   2.840  11.244   3.733 -0.2380 -0.4741  0.4122
33998SOL     OW 6550  10.558  10.717   8.937 -0.1492  0.3407  0.4959
33998SOL    HW1 6551  10.613  10.749   9.009  2.8098  1.0306 -1.8849
33998SOL    HW2 6552  10.613  10.653   8.891 -1.8623  0.0380 -1.2862
33999SOL     OW 6553   6.930   9.687  11.651 -0.4680 -0.0674 -0.0997
33999SOL    HW1 6554   6.906   9.779  11.636 -1.6936 -0.2334  0.7101
33999SOL    HW2 6555   6.930   9.648  11.564 -0.1612  0.6467 -0.4264
34000SOL     OW 6556   2.510  10.517   3.891 -0.2912 -0.1131  0.4848
34000SOL    HW1 6557   2.482  10.468   3.813  2.7156 -0.0032 -0.7745
34000SOL    HW2 6558   2.543  10.449   3.951 -0.7653 -0.0182  0.8619
34001SOL     OW 6559   9.611   5.543   8.567 -0.1205 -0.3325 -0.2327
34001SOL    HW1 6560   9.648   5.532   8.480 -0.8811 -0.7194 -0.5101
34001SOL    HW2 6561   9.652   5.623   8.601  0.0812 -0.1148 -0.9834
34002SOL     OW 6562   1.892   9.864   9.736 -0.1224  0.4397  0.4508
34002SOL    HW1 6563   1.955   9.840   9.804  2.2934 -0.2317 -1.8448
34002SOL    HW2 6564   1.901   9.959   9.729  0.4106  0.3859  0.3553
34003SOL     OW 6565   4.880   1.515   0.208 -0.2053 -0.0974 -0.2577
34003SOL    HW1 6566   4.925   1.517   0.292  2.4704  0.9917 -1.6007
34003SOL    HW2 6567   4.912   1.435   0.165 -2.3198 -1.1906  0.0768
34004SOL     OW 6568   3.530   1.839   2.190  0.2672 -0.2675  0.0872
34004SOL    HW1 6569   3.520   1.744   2.190 -1.1884 -0.1849  2.6387
34004SOL    HW2 6570   3.625   1.853   2.195  0.5232 -1.5395 -0.6572
34005SOL     OW 6571   1.585   9.923   3.463  0.2914  0.4130  0.0405
34005SOL    HW1 6572   1.639  10.001   3.478 -1.1475  1.5121 -0.2132
34005SOL    HW2 6573   1.495   9.955   3.469 -0.3402 -1.0805 -0.9053
34006SOL     OW 6574   9.199   4.637   3.538 -0.6705  0.4235 -0.2770
34006SOL    HW1 6575   9.291   4.660   3.546 -0.1832 -1.1602 -0.8827
34006SOL    HW2 6576   9.194   4.547   3.571 -2.2448  0.9090  0.9740
34007SOL     OW 6577   3.954   6.567   6.302 -0.5480  0.0450  0.3169
34007SOL    HW1 6578   3.938   6.661   6.294  0.9776  0.2720 -0.3273
34007SOL    HW2 6579   3.979   6.555   6.393  1.8327  0.7238 -0.1902
34008SOL     OW 6580   9.945   3.358  11.633 -0.2005  0.2649  0.1946
34008SOL    HW1 6581  10.007   3.431  11.633  0.4162 -0.2312 -1.0542
34008SOL    HW2 6582   9.863   3.397  11.665  0.2982  1.3437  0.2082
34009SOL     OW 6583   9.642   1.080   7.577 -0.1774 -0.2444 -0.0422
34009SOL    HW1 6584   9.578   1.052   7.643  0.1213  0.6733  0.6636
34009SOL    HW2 6585   9.723   1.035   7.602 -0.0310  0.2049  0.3046
34010SOL     OW 6586   1.083  10.384   1.042  0.3702 -0.1065  0.0379
34010SOL    HW1 6587   1.084  10.399   1.137  0.9017 -2.6309  0.5133
34010SOL    HW2 6588   1.074  10.471   1.004 -1.1760  0.8661  2.4177
34011SOL     OW 6589   7.221   1.092   6.903  0.0302 -0.1815 -0.1440
34011SOL    HW1 6590   7.277   1.021   6.936 -0.7290 -0.6375  0.1954
34011SOL    HW2 6591   7.194   1.139   6.982 -1.1939 -0.8233 -0.1682
34012SOL     OW 6592   6.057   8.528   9.910 -0.8139 -0.1262 -0.5616
34012SOL    HW1 6593   6.085   8.466   9.843  2.1292  0.5058 -0.0719
34012SOL    HW2 6594   5.981   8.486   9.951  0.2324 -2.7945 -1.1177
34013SOL     OW 6595   1.148   8.297  11.689 -0.8329  0.4781 -0.1499
34013SOL    HW1 6596   1.193   8.213  11.691 -0.0533  0.8954  0.8000
34013SOL    HW2 6597   1.201   8.351  11.631 -1.6175  0.1800 -1.1733
34014SOL     OW 6598   8.211  11.201   6.734  0.7891  0.1378 -0.1185
34014SOL    HW1 6599   8.275  11.149   6.782  0.4218  0.4150  0.6960
34014SOL    HW2 6600   8.129  11.151   6.739  0.0948  1.3540  1.8125
34015SOL     OW 6601   2.004  10.444   8.086  0.0520  0.2892  0.3175
34015SOL    HW1 6602   2.066  10.372   8.103  0.5885  0.4673 -0.8047
34015SOL    HW2 6603   2.060  10.520   8.070 -0.3692  0.1908 -1.9509
34016SOL     OW 6604   6.145   5.968   2.663  0.4201 -0.2490 -0.4938
34016SOL    HW1 6605   6.084   6.026   2.708  0.0470  0.3764 -1.7370
34016SOL    HW2 6606   6.212   5.949   2.727 -0.9145 -0.7104  0.8239
34017SOL     OW 6607   2.642   5.165   9.832 -0.4057 -0.0587  0.4520
34017SOL    HW1 6608   2.598   5.124   9.758 -1.7623 -0.9334  1.6985
34017SOL    HW2 6609   2.732   5.176   9.803 -0.9888  0.0006 -1.4673
34018SOL     OW 6610   9.889   6.904  10.255  0.7085 -0.0708  0.3025
34018SOL    HW1 6611   9.818   6.850  10.290  1.2400 -0.3557  0.9533
34018SOL    HW2 6612   9.969   6.858  10.280  1.1288  0.1445 -0.5886
34019SOL     OW 6613   7.778   1.625   0.191 -0.3921  0.4333 -0.4061
34019SOL    HW1 6614   7.756   1.577   0.271 -0.5268 -2.0254 -1.8132
34019SOL    HW2 6615   7.805   1.557   0.130 -1.1082  2.1249 -2.7252
34020SOL     OW 6616   6.110   8.866   8.553  0.0540  0.0841 -0.0835
34020SOL    HW1 6617   6.167   8.799   8.515  1.2676  1.5388 -0.9316
34020SOL    HW2 6618   6.141   8.948   8.516 -0.7545  1.2468  1.6825
34021SOL     OW 6619   8.770  10.078   5.658  0.1041  0.6752 -0.2362
34021SOL    HW1 6620   8.847  10.135   5.661  0.2874  0.4201 -0.0990
34021SOL    HW2 6621   8.798  10.002   5.606  1.0724 -1.0616  2.5945
34022SOL     OW 6622   7.311   9.152   5.507 -0.1190 -0.2041 -0.2009
34022SOL    HW1 6623   7.217   9.173   5.512  0.1240  1.3617 -1.6252
34022SOL    HW2 6624   7.352   9.216   5.565 -0.0186 -1.9803  1.8031
34023SOL     OW 6625   1.384   7.239  12.025 -0.2494  0.2939  0.3119
34023SOL    HW1 6626   1.314   7.297  12.055  2.0296  3.2318  0.2496
34023SOL    HW2 6627   1.391   7.257  11.931  0.5487 -0.0604  0.3009
34024SOL     OW 6628  10.431   4.530   0.146 -0.5099  0.5826 -0.1449
34024SOL    HW1 6629  10.457   4.601   0.088 -1.1936  0.9474 -0.0270
34024SOL    HW2 6630  10.470   4.553   0.231 -2.9289  2.3135  0.6194
34025SOL     OW 6631  10.906   2.037  10.555  0.1523 -0.3202  0.2456
34025SOL    HW1 6632  10.912   2.071  10.644 -2.1064  0.6990  0.0855
34025SOL    HW2 6633  10.891   1.943  10.566  0.4126 -0.2843  0.9272
34026SOL     OW 6634  11.483   6.865  11.110 -0.1426 -0.5704 -0.2208
34026SOL    HW1 6635  11.539   6.891  11.037 -1.4775 -1.4982 -1.6593
34026SOL    HW2 6636  11.540   6.868  11.187  0.9866  1.7041 -1.0668
34027SOL     OW 6637  10.309   6.602   1.777  0.1382  0.3509 -0.0602
34027SOL    HW1 6638  10.361   6.523   1.794  0.1019  0.4509  0.5497
34027SOL    HW2 6639  10.361   6.652   1.715  0.0468 -0.2696 -0.6512
34028SOL     OW 6640   6.216   4.930  10.497 -0.2931 -0.3757  0.8970
34028SOL    HW1 6641   6.128   4.949  10.528  0.1124  0.2694  1.6629
34028SOL    HW2 6642   6.263   4.899  10.574  0.6300  0.9218  0.8750
34029SOL     OW 6643   0.114   7.227   9.348  0.2002 -0.0344 -0.0571
34029SOL    HW1 6644   0.101   7.249   9.441 -1.2123 -0.3761 -0.1446
34029SOL    HW2 6645   0.193   7.174   9.347  0.6324  0.5703  0.8591
34030SOL     OW 6646   4.931  11.480   0.105  0.4318 -0.2635 -0.0896
34030SOL    HW1 6647   4.901  11.469   0.195 -1.0213 -1.1740 -0.6580
34030SOL    HW2 6648   5.022  11.451   0.106 -0.2709 -2.6453  0.6081
34031SOL     OW 6649   8.515   2.614  10.209 -0.3271 -0.3519  0.0039
34031SOL    HW1 6650   8.475   2.555  10.273  0.1887 -2.7647 -1.7794
34031SOL    HW2 6651   8.603   2.632  10.244  0.3688 -2.5549 -0.4994
34032SOL     OW 6652   2.788   0.072   4.348  0.3957  0.2190 -0.0449
34032SOL    HW1 6653   2.775  -0.008   4.399 -0.9098  0.8582  0.6447
34032SOL    HW2 6654   2.804   0.140   4.413  1.4697  0.5501 -0.6287
34033SOL     OW 6655   9.273   3.050  10.942 -0.4363 -0.4022 -0.5902
34033SOL    HW1 6656   9.287   3.141  10.915  0.2262 -0.3376 -0.0748
34033SOL    HW2 6657   9.278   3.000  10.861  2.9123 -0.3662 -0.5491
34034SOL     OW 6658  10.552   0.815   6.761 -0.2420  0.1327 -0.6244
34034SOL    HW1 6659  10.635   0.835   6.717  0.3483 -1.4470 -0.3065
34034SOL    HW2 6660  10.577   0.756   6.832 -1.2762  1.9523  1.3571
34035SOL     OW 6661   5.478  11.014  11.647  0.5908  0.1644  0.1714
34035SOL    HW1 6662   5.474  10.970  11.732  0.1305  1.1392  0.6741
34035SOL    HW2 6663   5.408  10.974  11.595  1.3096 -0.9132 -0.0025
34036SOL     OW 6664   2.291   9.322   1.521 -0.4787  0.0940 -0.7158
34036SOL    HW1 6665   2.224   9.362   1.576  0.1262  1.2031 -0.7664
34036SOL    HW2 6666   2.243   9.257   1.469 -1.0661 -1.0320  1.1089
34037SOL     OW 6667   7.843   1.113   8.765  0.2939  0.0168 -0.2192
34037SOL    HW1 6668   7.824   1.128   8.672  0.6607 -1.8493 -0.6208
34037SOL    HW2 6669   7.776   1.052   8.794  1.0752 -0.5839  0.3576
34038SOL     OW 6670  10.845   7.405   5.423 -0.6485 -0.3811 -0.4997
34038SOL    HW1 6671  10.847   7.417   5.328 -2.1296 -0.9282 -0.6379
34038SOL    HW2 6672  10.918   7.345   5.440  1.2945  1.7070 -0.8943
34039SOL     OW 6673   8.024   9.498   4.787 -0.2551  0.0970  1.1325
34039SOL    HW1 6674   8.081   9.575   4.778 -1.0213  0.5393 -0.1302
34039SOL    HW2 6675   7.976   9.514   4.868 -0.1412  0.7722  1.0760
34040SOL     OW 6676   3.980   7.234   4.504 -0.0929  0.4584 -0.0889
34040SOL    HW1 6677   3.938   7.316   4.532 -0.6455  0.3975 -0.7347
34040SOL    HW2 6678   3.915   7.166   4.523  1.0921 -0.1201  2.2993
34041SOL     OW 6679  10.147   1.281  11.007 -0.0280  0.4785  0.5090
34041SOL    HW1 6680  10.232   1.269  11.049  0.7070  3.0625 -0.0993
34041SOL    HW2 6681  10.166   1.285  10.914 -0.9347  0.2782  0.3034
34042SOL     OW 6682  10.666   1.351   2.750 -0.2444  0.0232  0.1028
34042SOL    HW1 6683  10.756   1.323   2.737  0.7713  1.6050  2.9164
34042SOL    HW2 6684  10.640   1.389   2.666  1.8458 -0.1093 -0.6561
34043SOL     OW 6685   0.978   9.891   2.252 -0.5843 -0.1861 -0.7597
34043SOL    HW1 6686   0.936   9.875   2.168 -0.1545 -1.5440 -0.7347
34043SOL    HW2 6687   0.919   9.851   2.316 -1.0228  1.0313 -0.3667
34044SOL     OW 6688   8.127   2.724   3.711  0.5329  0.2936  0.3557
34044SOL    HW1 6689   8.049   2.688   3.669  0.4200  0.8727  0.0586
34044SOL    HW2 6690   8.191   2.653   3.705  0.1430 -0.0631  0.2874
34045SOL     OW 6691   9.123   5.986   2.288 -0.3320 -0.5231 -0.1247
34045SOL    HW1 6692   9.201   5.932   2.275 -0.5424 -1.1030  0.9020
34045SOL    HW2 6693   9.105   5.980   2.382 -1.5994 -0.3845 -0.3447
34046SOL     OW 6694   0.409   7.828  11.497  0.1927  0.6725  0.2098
34046SOL    HW1 6695   0.318   7.798  11.504  0.2604  0.3121 -0.4792
34046SOL    HW2 6696   0.461   7.748  11.505  0.3737  0.5708 -1.5998
34047SOL     OW 6697  10.580  11.923   7.151 -0.4052  0.0737  0.4704
34047SOL    HW1 6698  10.517  11.891   7.086  0.7625 -1.4073  0.0014
34047SOL    HW2 6699  10.537  11.909   7.235 -0.8785 -0.5063  0.1410
34048SOL     OW 6700  10.671   0.017   7.029  0.3703  0.4212  0.0074
34048SOL    HW1 6701  10.669   0.003   6.935  1.8292  1.4483 -0.2075
34048SOL    HW2 6702  10.626  -0.059   7.066  0.2666 -0.2638 -1.4776
34049SOL     OW 6703   0.164   9.238   5.508 -0.4785 -0.5860  0.3600
34049SOL    HW1 6704   0.162   9.193   5.592  1.3034  0.3154  0.9301
34049SOL    HW2 6705   0.190   9.328   5.529 -2.9149  0.5058 -0.8565
34050SOL     OW 6706   1.297   1.526   4.475 -0.3056 -0.3485 -0.3091
34050SOL    HW1 6707   1.328   1.490   4.392 -1.8031  0.4555 -1.2577
34050SOL    HW2 6708   1.203   1.507   4.475 -0.4426  0.2780  0.8951
34051SOL     OW 6709   0.363   0.436   7.373 -0.5696  0.0605  0.2923
34051SOL    HW1 6710   0.274   0.402   7.369 -0.2602 -0.9498  1.3754
34051SOL    HW2 6711   0.393   0.413   7.460  1.1330 -0.5823 -0.4294
34052SOL     OW 6712   3.449   7.045  10.968 -0.1915 -0.2249  0.0263
34052SOL    HW1 6713   3.424   7.137  10.977 -2.0608 -0.6815 -0.0191
34052SOL    HW2 6714   3.545   7.046  10.960 -0.2132  1.7278 -0.3983
34053SOL     OW 6715   6.370  11.592   5.465  0.0706 -0.2445  0.1084
34053SOL    HW1 6716   6.394  11.681   5.489 -1.2716  0.4573 -1.0177
34053SOL    HW2 6717   6.349  11.550   5.548  2.0907 -0.0025  0.8172
34054SOL     OW 6718   3.839   3.695  10.558 -0.0010 -0.5829 -0.2999
34054SOL    HW1 6719   3.811   3.687  10.467 -1.6601  2.6518 -0.2513
34054SOL    HW2 6720   3.766   3.659  10.609  0.4007 -1.2976 -0.2203
34055SOL     OW 6721   5.836   3.263   2.073 -0.1570 -0.1229  0.0350
34055SOL    HW1 6722   5.860   3.351   2.047  0.2078 -0.6820 -1.6231
34055SOL    HW2 6723   5.911   3.209   2.048 -0.4298 -0.9421  0.9016
34056SOL     OW 6724   0.794   1.188   3.781 -0.2062 -0.8131 -0.2237
34056SOL    HW1 6725   0.857   1.257   3.800 -1.1305  0.0597 -0.2057
34056SOL    HW2 6726   0.773   1.199   3.689  0.2531 -1.6057 -0.4291
34057SOL     OW 6727   3.586  10.661  10.140  0.0485  0.5578  0.1782
34057SOL    HW1 6728   3.668  10.706  10.119 -0.9199  2.6007  0.5526
34057SOL    HW2 6729   3.563  10.693  10.227 -1.2300  0.1350  0.0120
34058SOL     OW 6730   4.272   1.157   2.874  0.0166  0.0714 -0.2618
34058SOL    HW1 6731   4.212   1.183   2.804  1.3878 -1.2089 -1.9910
34058SOL    HW2 6732   4.359   1.172   2.838  0.7623 -1.2102  0.9207
34059SOL     OW 6733   9.904  10.990   3.300  0.1856  0.6190 -0.0611
34059SOL    HW1 6734   9.879  10.937   3.224  0.5351 -0.6866  0.7161
34059SOL    HW2 6735   9.992  10.962   3.322 -0.2828  0.2473  1.4487
34060SOL     OW 6736  10.098   6.717   7.049  0.1400 -0.1337  0.3216
34060SOL    HW1 6737  10.034   6.646   7.039  0.2052 -0.2852  0.9690
34060SOL    HW2 6738  10.183   6.673   7.041  0.1719  0.0472 -0.4000
34061SOL     OW 6739   8.456   1.379   5.603 -0.2617 -0.2690  0.1314
34061SOL    HW1 6740   8.419   1.295   5.628  0.2902 -0.2414  1.0953
34061SOL    HW2 6741   8.425   1.441   5.669 -0.4152  0.2270 -0.3930
34062SOL     OW 6742   2.677   2.426   7.961  0.9673  0.4931 -0.6306
34062SOL    HW1 6743   2.666   2.422   8.056  0.7787  0.0450 -0.6704
34062SOL    HW2 6744   2.589   2.434   7.926  0.8489 -1.3562 -0.8575
34063SOL     OW 6745   2.733   2.195  10.538  0.3427 -0.4358 -0.5046
34063SOL    HW1 6746   2.646   2.229  10.558  0.0750 -1.2499 -0.2430
34063SOL    HW2 6747   2.724   2.154  10.452  0.7017  0.2851 -0.8909
34064SOL     OW 6748   7.413   0.198   0.102 -0.0547  0.0514 -0.3921
34064SOL    HW1 6749   7.330   0.230   0.136  0.4463  0.5449  0.3945
34064SOL    HW2 6750   7.409   0.216   0.008 -0.8008  0.1259 -0.3546
34065SOL     OW 6751   0.887  10.512   5.358 -0.1945  0.5259 -0.5471
34065SOL    HW1 6752   0.881  10.467   5.442  0.8381 -0.4773 -0.9942
34065SOL    HW2 6753   0.799  10.504   5.320  0.1753 -1.9479 -1.0169
34066SOL     OW 6754  11.286   0.540   3.517 -0.7417  0.1030 -0.2390
34066SOL    HW1 6755  11.370   0.518   3.479 -0.9448 -1.2533  0.0469
34066SOL    HW2 6756  11.254   0.613   3.464  0.2360  0.0987 -0.8614
34067SOL     OW 6757   2.970   9.476   9.942 -0.1959  0.4461 -0.5838
34067SOL    HW1 6758   2.972   9.564   9.907 -1.1974  1.0453  0.7459
34067SOL    HW2 6759   2.981   9.487  10.036 -0.5542 -0.8272 -0.3674
34068SOL     OW 6760   0.596   6.416  12.094 -0.3663 -0.5621  0.1292
34068SOL    HW1 6761   0.670   6.423  12.033 -0.2115 -1.1066  0.2526
34068SOL    HW2 6762   0.627   6.358  12.163 -0.2517  0.6678  1.1629
34069SOL     OW 6763  10.877   3.034  10.325  0.0700 -0.7213  0.0131
34069SOL    HW1 6764  10.877   3.080  10.408 -1.4381 -1.0408  0.2216
34069SOL    HW2 6765  10.876   2.941  10.349  0.7466 -0.8350 -0.3765
34070SOL     OW 6766   2.788  11.452   7.357  0.4238 -0.1861  0.0087
34070SOL    HW1 6767   2.722  11.386   7.377  0.2643  0.8256  3.4555
34070SOL    HW2 6768   2.870  11.402   7.347 -0.4382 -1.2887 -2.8407
34071SOL     OW 6769   1.134   0.852  11.193  0.3378  0.4026 -0.1224
34071SOL    HW1 6770   1.111   0.945  11.192  0.1413  0.3520 -0.3298
34071SOL    HW2 6771   1.218   0.849  11.238  0.7588  0.7754 -0.8581
34072SOL     OW 6772   9.623   7.478   3.158 -0.2178  0.2975  0.4082
34072SOL    HW1 6773   9.530   7.458   3.162  0.0824 -1.0781  0.8597
34072SOL    HW2 6774   9.650   7.450   3.071  0.4110 -2.3683  1.3853
34073SOL     OW 6775   6.412  12.119  11.203  0.3329 -0.1303  0.1951
34073SOL    HW1 6776   6.432  12.143  11.293  0.1294  0.7594  0.0132
34073SOL    HW2 6777   6.458  12.036  11.189 -0.8404 -1.0490  1.5737
34074SOL     OW 6778   3.611   6.021   8.652  0.0153 -0.2586 -0.2062
34074SOL    HW1 6779   3.573   5.987   8.570 -2.3290 -0.2526  0.8011
34074SOL    HW2 6780   3.631   5.942   8.703 -0.8712 -0.2365  0.1904
34075SOL     OW 6781   2.824   2.337  10.777 -0.0947 -0.2554 -0.4293
34075SOL    HW1 6782   2.772   2.274  10.726 -1.2555  0.5520 -0.2605
34075SOL    HW2 6783   2.880   2.379  10.712  0.4345 -1.1782 -0.6018
34076SOL     OW 6784   0.613   7.311   8.580  0.6133  0.2649 -0.3944
34076SOL    HW1 6785   0.669   7.377   8.622 -0.6916  0.7991  0.5393
34076SOL    HW2 6786   0.647   7.228   8.612  0.5538  0.6066  0.5989
34077SOL     OW 6787   8.428   6.483   7.886  0.0056 -0.3266 -0.1069
34077SOL    HW1 6788   8.379   6.469   7.967  0.7438 -1.7628  0.1107
34077SOL    HW2 6789   8.445   6.578   7.885  3.0261 -0.6416  3.2755
34078SOL     OW 6790   9.033  10.229   3.301  0.0252 -0.0861 -0.5544
34078SOL    HW1 6791   9.111  10.208   3.249  0.1290  0.6020 -0.6816
34078SOL    HW2 6792   9.041  10.322   3.319  1.9121 -0.8407  3.7646
34079SOL     OW 6793   2.397   9.417   3.832  0.7884 -0.2824  0.1773
34079SOL    HW1 6794   2.463   9.441   3.898  1.0175 -0.3680 -0.0160
34079SOL    HW2 6795   2.437   9.442   3.749  0.9774 -1.1857 -0.0228
34080SOL     OW 6796   7.646   4.870   0.181 -0.0482 -0.1880 -0.8328
34080SOL    HW1 6797   7.556   4.852   0.208 -0.2887  1.1756 -0.6769
34080SOL    HW2 6798   7.670   4.950   0.228  0.7272  0.3085 -2.0297
34081SOL     OW 6799   3.604   8.361   3.240 -0.5920  0.1125 -0.5365
34081SOL    HW1 6800   3.540   8.371   3.169  0.6801 -0.7902 -1.8506
34081SOL    HW2 6801   3.569   8.289   3.293 -0.9859  0.0466 -0.8770
34082SOL     OW 6802   2.961   0.738   0.760  0.2816  0.0489  0.7395
34082SOL    HW1 6803   2.968   0.741   0.855  2.3807 -0.2787  0.6415
34082SOL    HW2 6804   2.990   0.824   0.731 -1.6036  0.6095  0.4100
34083SOL     OW 6805   4.006  10.685   7.546 -0.4134  0.0277 -0.3169
34083SOL    HW1 6806   3.982  10.610   7.600  2.0900 -0.9046 -0.3302
34083SOL    HW2 6807   3.947  10.681   7.471 -1.1491 -1.1861  0.2974
34084SOL     OW 6808   3.443   9.652   6.836  0.3613  0.1173  0.5559
34084SOL    HW1 6809   3.492   9.627   6.758  2.3084 -1.7307  2.2290
34084SOL    HW2 6810   3.471   9.741   6.855  1.1479 -0.0228  0.0786
34085SOL     OW 6811   4.980  10.636   6.382  0.3450 -0.1901  0.0433
34085SOL    HW1 6812   4.930  10.561   6.414  1.0693 -0.0844  1.4619
34085SOL    HW2 6813   5.041  10.657   6.453  0.6423  1.2989 -0.6228
34086SOL     OW 6814   9.085   9.383   7.502 -0.7261  0.1403 -0.3063
34086SOL    HW1 6815   9.144   9.334   7.560  1.9669  1.9240 -1.3391
34086SOL    HW2 6816   9.137   9.400   7.424 -2.7763  1.5585 -1.4579
34087SOL     OW 6817   0.267   5.875  11.613  0.6965  0.0050 -0.1274
34087SOL    HW1 6818   0.287   5.809  11.547  0.5432  0.4198 -0.5970
34087SOL    HW2 6819   0.173   5.868  11.627  0.6719  0.1547 -0.2146
34088SOL     OW 6820  10.598   1.042   5.133 -0.1024  0.1506  0.0210
34088SOL    HW1 6821  10.569   1.104   5.199  1.0775  1.3426 -0.5351
34088SOL    HW2 6822  10.693   1.056   5.126 -0.1875  0.0874 -1.9041
34089SOL     OW 6823   4.331   9.521   7.761 -0.3688  0.2387  0.1794
34089SOL    HW1 6824   4.253   9.509   7.708 -0.7501  1.8643  0.3224
34089SOL    HW2 6825   4.400   9.544   7.698 -0.5093  0.8812  0.2604
34090SOL     OW 6826   9.399   9.557   5.810 -0.2982  0.2017  0.8661
34090SOL    HW1 6827   9.485   9.598   5.800 -0.7967  0.7156 -2.1190
34090SOL    HW2 6828   9.375   9.574   5.902  0.9718  3.7301  0.6931
34091SOL     OW 6829   6.251   0.018  12.037 -0.9750  0.0782 -0.3062
34091SOL    HW1 6830   6.254   0.014  11.941 -1.8493  1.0377 -0.3889
34091SOL    HW2 6831   6.343   0.012  12.064 -0.8265 -3.1800 -1.0185
34092SOL     OW 6832  12.065   4.638   7.485 -0.6502  0.3657 -0.1290
34092SOL    HW1 6833  12.006   4.599   7.420 -0.1133  0.3305 -0.6069
34092SOL    HW2 6834  12.007   4.685   7.545 -1.2156 -0.2379 -0.1885
34093SOL     OW 6835  10.628  11.809   6.736 -0.1577  0.3548  0.2965
34093SOL    HW1 6836  10.611  11.731   6.789  0.4279  0.3984  0.5475
34093SOL    HW2 6837  10.651  11.774   6.650  0.3396  0.2432  0.4741
34094SOL     OW 6838   0.062  11.622   7.842  0.1005 -0.3964 -0.1095
34094SOL    HW1 6839   0.100  11.621   7.754  1.3459  1.4944  0.3373
34094SOL    HW2 6840   0.041  11.531   7.860  1.6651 -1.1111 -1.6002
34095SOL     OW 6841   1.821   8.976   5.407  0.3468 -0.3983  0.1623
34095SOL    HW1 6842   1.738   9.018   5.386  0.7386  0.2485 -0.1335
34095SOL    HW2 6843   1.798   8.902   5.463 -0.4988 -0.7271 -0.6062
34096SOL     OW 6844   4.549   1.449   4.413  0.6227 -0.0621 -0.7153
34096SOL    HW1 6845   4.485   1.396   4.461  0.1304 -0.0509 -1.3427
34096SOL    HW2 6846   4.597   1.385   4.360  2.6781 -0.3890  1.3732
34097SOL     OW 6847   3.530   3.295   2.773 -0.3112  0.1971 -0.2116
34097SOL    HW1 6848   3.457   3.354   2.753 -0.9239  0.3693  2.2342
34097SOL    HW2 6849   3.492   3.207   2.768  0.2459  0.0181 -2.4011
34098SOL     OW 6850   0.391   9.430  10.468 -0.9731  0.1327 -0.4214
34098SOL    HW1 6851   0.375   9.347  10.513  0.1145 -0.0878 -0.4062
34098SOL    HW2 6852   0.363   9.415  10.378 -0.8984 -0.2187 -0.3855
34099SOL     OW 6853   0.031   9.663   3.044 -1.2488  0.5880 -0.0215
34099SOL    HW1 6854   0.087   9.741   3.037 -0.1334 -0.0739  1.1103
34099SOL    HW2 6855  -0.003   9.667   3.134 -2.2518  0.4495 -0.3797
34100SOL     OW 6856   6.224   0.835  11.480 -0.1368 -0.2837  0.0062
34100SOL    HW1 6857   6.206   0.742  11.465 -0.5576  0.0576 -1.8673
34100SOL    HW2 6858   6.171   0.881  11.415  2.4224  1.1193 -1.2314
34101SOL     OW 6859   1.536   4.381   0.583 -0.1771  0.0449 -0.7598
34101SOL    HW1 6860   1.589   4.302   0.591 -0.1585  0.1222 -0.1077
34101SOL    HW2 6861   1.588   4.449   0.626 -1.0479  0.0042  0.4006
34102SOL     OW 6862   5.783   9.687   4.584 -0.2818  0.0002  0.4561
34102SOL    HW1 6863   5.858   9.638   4.550 -0.8542 -0.3978 -0.2683
34102SOL    HW2 6864   5.710   9.626   4.578 -0.7219  0.4748  0.9009
34103SOL     OW 6865   8.751  11.772   4.831 -0.2761 -0.3381  0.3282
34103SOL    HW1 6866   8.795  11.824   4.765  0.5523  0.6913  1.6332
34103SOL    HW2 6867   8.698  11.709   4.782  0.5868  0.1498 -1.2774
34104SOL     OW 6868  10.088   2.856   3.597 -0.0925  0.0577 -0.4860
34104SOL    HW1 6869  10.073   2.819   3.683 -0.1946  2.5265  0.6595
34104SOL    HW2 6870  10.115   2.946   3.614  0.5093  0.4492 -3.0232
34105SOL     OW 6871   8.558   4.874  10.405 -0.3159 -0.0075 -0.5110
34105SOL    HW1 6872   8.532   4.853  10.494  1.5883  1.3415  0.4317
34105SOL    HW2 6873   8.596   4.792  10.372  0.3558 -0.1089  0.4767
34106SOL     OW 6874   1.981   5.126   1.870 -0.1255  0.4338 -0.3156
34106SOL    HW1 6875   1.966   5.033   1.853  0.4890  0.3746 -0.5641
34106SOL    HW2 6876   1.964   5.137   1.963  1.8685 -0.3724  0.1923
34107SOL     OW 6877   1.548   2.269  11.161 -0.4968 -0.5113 -0.6202
34107SOL    HW1 6878   1.580   2.318  11.237 -3.4239 -0.4673  0.7156
34107SOL    HW2 6879   1.453   2.275  11.166 -0.8588 -1.8308 -3.4709
34108SOL     OW 6880   1.122   1.429   4.211  0.2767  0.2491 -0.2894
34108SOL    HW1 6881   1.100   1.397   4.298  0.5281  2.5240  0.6872
34108SOL    HW2 6882   1.085   1.364   4.151 -1.5880 -0.4181  1.4638
34109SOL     OW 6883   4.269   4.416   2.484  1.0638 -0.3709  0.4749
34109SOL    HW1 6884   4.335   4.432   2.417 -0.1350  0.0469 -0.6632
34109SOL    HW2 6885   4.224   4.336   2.455  1.0209 -0.6162  1.1921
34110SOL     OW 6886   9.136   3.830  11.298 -0.0427  0.1138 -0.0603
34110SOL    HW1 6887   9.189   3.853  11.222  0.5592 -1.8610 -0.2900
34110SOL    HW2 6888   9.083   3.755  11.269  0.8761 -1.2819  1.6778
34111SOL     OW 6889   1.872   3.575   5.625 -0.0760  0.1786 -0.0043
34111SOL    HW1 6890   1.831   3.632   5.690 -2.8856 -2.6190  0.9666
34111SOL    HW2 6891   1.941   3.530   5.674 -0.7086 -0.2922  0.4834
34112SOL     OW 6892   8.982   9.953   1.465  0.1353  0.0067 -0.7019
34112SOL    HW1 6893   9.052   9.904   1.508 -0.2677 -0.1489 -0.2181
34112SOL    HW2 6894   8.937   9.998   1.536 -0.1051  0.3048 -1.0382
34113SOL     OW 6895   6.872   4.503   2.822 -0.3343 -0.2977 -0.2428
34113SOL    HW1 6896   6.856   4.559   2.746 -1.2508  0.9938  0.8590
34113SOL    HW2 6897   6.806   4.529   2.886  0.6556 -1.0750  1.1670
34114SOL     OW 6898   7.930   6.908  11.594 -0.1044  0.0907  0.1294
34114SOL    HW1 6899   7.875   6.838  11.629  0.8117 -0.3825  0.6541
34114SOL    HW2 6900   7.974   6.869  11.519 -0.0180  0.2821  0.0791
34115SOL     OW 6901  11.429   7.901  10.002 -0.1514 -0.1032  0.6005
34115SOL    HW1 6902  11.450   7.911   9.909  0.8022 -0.0926  0.8158
34115SOL    HW2 6903  11.339   7.934  10.009 -0.0644  0.3419 -0.2306
34116SOL     OW 6904   1.036   0.191   9.532  0.6241 -0.0803 -0.5389
34116SOL    HW1 6905   0.981   0.245   9.475  0.3146  0.7303  0.4845
34116SOL    HW2 6906   1.056   0.113   9.480 -1.5024 -0.4094 -0.9570
34117SOL     OW 6907   4.284  10.384   0.419 -0.4791  0.0752  0.6988
34117SOL    HW1 6908   4.237  10.374   0.336 -0.9506  2.2086  0.6394
34117SOL    HW2 6909   4.274  10.300   0.463  1.2277 -1.7125 -2.0980
34118SOL     OW 6910  10.034   5.571  11.948  0.2638 -0.2574  0.0748
34118SOL    HW1 6911  10.089   5.649  11.959  0.4904  0.2311 -3.3969
34118SOL    HW2 6912   9.959   5.601  11.897  0.7596 -2.3793 -2.0697
34119SOL     OW 6913  10.259   1.793   6.969  0.0955 -0.1384  0.0727
34119SOL    HW1 6914  10.293   1.767   6.884 -0.4573 -0.7719  0.0404
34119SOL    HW2 6915  10.321   1.859   7.000  0.0234  0.4647 -1.0359
34120SOL     OW 6916   7.196   6.103   7.922  0.2222 -0.0380  0.7846
34120SOL    HW1 6917   7.237   6.034   7.870 -0.5380 -0.3498  0.5735
34120SOL    HW2 6918   7.150   6.157   7.858 -0.1880 -0.0499  1.0655
34121SOL     OW 6919  10.510   4.599   8.086 -0.1710 -0.4514  0.1654
34121SOL    HW1 6920  10.506   4.611   7.991 -1.9420  0.5407  0.3127
34121SOL    HW2 6921  10.419   4.588   8.112 -0.2577  3.5199  2.2099
34122SOL     OW 6922   3.946   0.195   5.174  0.9600  0.4135 -0.3390
34122SOL    HW1 6923   3.977   0.127   5.114  0.7902 -0.6351  0.7145
34122SOL    HW2 6924   3.870   0.155   5.217 -0.5738  2.1228 -1.3381
34123SOL     OW 6925  11.762   1.029   8.156 -0.4823  0.0081  0.5274
34123SOL    HW1 6926  11.743   1.116   8.189  0.1792  0.8801 -1.2451
34123SOL    HW2 6927  11.695   1.012   8.090 -1.4841 -1.4828  1.8287
34124SOL     OW 6928   8.853   2.337  11.613  0.2066  0.0691 -0.0456
34124SOL    HW1 6929   8.913   2.262  11.609  0.1940 -0.0590  1.5988
34124SOL    HW2 6930   8.909   2.411  11.638  0.0267  0.3814 -0.5582
34125SOL     OW 6931   3.676   7.750  10.589 -0.0273 -0.5582 -0.3941
34125SOL    HW1 6932   3.596   7.798  10.567 -0.2098  0.5460  2.3224
34125SOL    HW2 6933   3.747   7.804  10.555 -0.3506 -0.3389 -0.7303
34126SOL     OW 6934  11.636   0.836  11.741 -0.0605  0.2883 -0.2465
34126SOL    HW1 6935  11.701   0.804  11.805 -0.9065  0.7221  0.8615
34126SOL    HW2 6936  11.616   0.925  11.769 -0.5564  0.4425 -1.0490
34127SOL     OW 6937   2.333   1.863   9.488  0.0415 -0.3627  0.0535
34127SOL    HW1 6938   2.338   1.937   9.428 -0.0213 -0.4465 -0.0546
34127SOL    HW2 6939   2.356   1.900   9.574  0.3107 -0.2822 -0.0516
34128SOL     OW 6940   7.220  11.783   8.374  0.2905  0.2251  0.0553
34128SOL    HW1 6941   7.256  11.769   8.286 -1.6283  0.4242 -0.7944
34128SOL    HW2 6942   7.249  11.706   8.423  0.5237 -0.4137 -1.0415
34129SOL     OW 6943   2.996  10.573   0.438  0.2145 -0.0468 -0.2728
34129SOL    HW1 6944   2.914  10.535   0.467 -0.2088  0.4575 -0.7818
34129SOL    HW2 6945   3.050  10.497   0.413 -0.2696 -0.3554 -0.3876
34130SOL     OW 6946  11.318   6.586   9.842 -0.6112  0.5736 -0.1200
34130SOL    HW1 6947  11.303   6.491   9.833  2.2560 -0.0950  0.9334
34130SOL    HW2 6948  11.251   6.615   9.904  0.2573 -1.4334  1.9012
34131SOL     OW 6949   7.085   7.469  11.209  0.1885  0.7534  0.0226
34131SOL    HW1 6950   7.007   7.452  11.262  0.3255 -0.4936 -0.1493
34131SOL    HW2 6951   7.122   7.383  11.193  0.5980  1.1729 -1.4317
34132SOL     OW 6952  12.070   1.458  10.423 -0.4888 -0.3608 -0.3933
34132SOL    HW1 6953  12.037   1.426  10.339  0.1831  0.5646 -1.0251
34132SOL    HW2 6954  12.033   1.546  10.432  0.4168  0.0226 -0.3035
34133SOL     OW 6955   4.565   2.327   2.926 -0.3360  0.6646 -0.7298
34133SOL    HW1 6956   4.474   2.341   2.952 -0.0411  2.4489 -0.5012
34133SOL    HW2 6957   4.562   2.323   2.830 -0.7410 -0.1363 -0.6904
34134SOL     OW 6958   8.500  12.026  10.632  0.1229  0.4746  0.5934
34134SOL    HW1 6959   8.433  11.965  10.662 -0.9985  0.4736 -1.7653
34134SOL    HW2 6960   8.538  12.060  10.713 -1.1447 -1.2136  1.9815
34135SOL     OW 6961   1.735   8.061   6.847  0.4317 -0.1347 -0.7774
34135SOL    HW1 6962   1.753   8.000   6.776 -0.5673 -0.8946 -0.3983
34135SOL    HW2 6963   1.753   8.148   6.810  1.0251 -0.5881 -1.5840
34136SOL     OW 6964   5.636   2.495   1.049  0.2122  0.1467  0.1855
34136SOL    HW1 6965   5.697   2.552   1.097  2.7004 -2.4173  0.3514
34136SOL    HW2 6966   5.691   2.448   0.987 -1.6511 -2.0366  0.0328
34137SOL     OW 6967  11.725   6.284   6.699  0.3555  0.4942 -0.4950
34137SOL    HW1 6968  11.657   6.230   6.657 -2.6717  1.5739  2.5325
34137SOL    HW2 6969  11.728   6.364   6.647  1.1008 -0.4784 -2.0174
34138SOL     OW 6970   5.593   5.101   0.853  0.3890  0.3250  0.2993
34138SOL    HW1 6971   5.667   5.108   0.793  1.2694  0.4164  1.3749
34138SOL    HW2 6972   5.599   5.012   0.888 -1.1581 -0.3652 -1.0266
34139SOL     OW 6973   6.292   0.903   6.278  0.0674 -0.2117 -0.3561
34139SOL    HW1 6974   6.276   0.987   6.322  0.2119  0.2393 -1.1452
34139SOL    HW2 6975   6.239   0.840   6.327 -0.7384  0.4924 -0.2877
34140SOL     OW 6976   5.963   9.614   7.692  0.8181  0.0199 -0.3046
34140SOL    HW1 6977   5.893   9.587   7.751  1.5122 -0.4418  0.3166
34140SOL    HW2 6978   5.949   9.562   7.612  2.2028 -2.3376  0.9032
34141SOL     OW 6979  10.812   9.710   4.782  0.0723  0.1553 -0.9492
34141SOL    HW1 6980  10.753   9.739   4.851  0.5897 -2.0725  0.5377
34141SOL    HW2 6981  10.754   9.677   4.713 -0.4842 -0.9897  0.0301
34142SOL     OW 6982   0.408   3.519   4.817  0.5460  0.3835 -0.1935
34142SOL    HW1 6983   0.497   3.555   4.823  0.8178 -0.1956 -0.6630
34142SOL    HW2 6984   0.421   3.424   4.811 -0.1890  0.1115  1.7360
34143SOL     OW 6985   9.376   6.966   1.411 -0.4613  0.1612 -0.0027
34143SOL    HW1 6986   9.446   6.969   1.477 -0.0059  0.6669 -0.4999
34143SOL    HW2 6987   9.298   6.942   1.461  0.4090 -2.3630  0.2685
34144SOL     OW 6988   7.845   4.396   5.708 -0.4736 -0.3887 -0.3822
34144SOL    HW1 6989   7.807   4.421   5.624 -1.6540  2.0265  0.7827
34144SOL    HW2 6990   7.917   4.338   5.684 -0.7193  0.2474 -3.0715
34145SOL     OW 6991  10.233   2.168   7.763 -0.2496 -0.0098 -0.6290
34145SOL    HW1 6992  10.227   2.251   7.811  1.8765  0.4761 -1.0668
34145SOL    HW2 6993  10.206   2.189   7.674  0.6520  0.3326 -0.8321
34146SOL     OW 6994   1.242   2.670   9.619 -0.0538  0.1356 -0.1195
34146SOL    HW1 6995   1.177   2.627   9.564 -0.5708 -0.2188  0.7471
34146SOL    HW2 6996   1.324   2.624   9.600 -0.2811 -0.1659 -0.3786
34147SOL     OW 6997   5.619   9.635   9.032  0.1341  0.1922  0.4473
34147SOL    HW1 6998   5.595   9.560   9.087  0.0790  0.7493  1.2010
34147SOL    HW2 6999   5.587   9.612   8.945 -2.0981  0.3898  1.1662
34148SOL     OW 7000   3.692   5.585   5.398 -0.0696  0.1303  0.1827
34148SOL    HW1 7001   3.719   5.517   5.460 -0.8135 -1.1658 -0.8564
34148SOL    HW2 7002   3.772   5.636   5.384  0.4751 -0.4162  1.1184
34149SOL     OW 7003   0.761   9.173   9.749  0.4339  0.1421  0.1597
34149SOL    HW1 7004   0.791   9.107   9.811 -1.0183  0.4568  1.2569
34149SOL    HW2 7005   0.770   9.256   9.796  1.5841  0.6733 -0.9472
34150SOL     OW 7006   0.152   0.703   7.617  0.0788  0.2303  0.1042
34150SOL    HW1 7007   0.114   0.773   7.564  0.8723 -0.4657 -1.4725
34150SOL    HW2 7008   0.092   0.630   7.607  1.3323 -0.6331 -1.7922
34151SOL     OW 7009   8.448   3.671   8.941 -0.2005  0.0303  0.0249
34151SOL    HW1 7010   8.507   3.677   9.015  0.2318 -0.5629 -0.2652
34151SOL    HW2 7011   8.361   3.686   8.978  0.0005 -0.3342  0.6626
34152SOL     OW 7012   3.079   0.199   3.886 -0.0132  0.5585 -0.1276
34152SOL    HW1 7013   3.115   0.170   3.970  0.5761 -1.2089 -0.9412
34152SOL    HW2 7014   3.018   0.129   3.861 -1.6582  1.9911 -0.3011
34153SOL     OW 7015   2.053   2.230   6.052 -0.0870  0.1333  0.2353
34153SOL    HW1 7016   2.082   2.231   5.961 -1.6778  1.7052 -0.3093
34153SOL    HW2 7017   1.977   2.171   6.051 -0.2688  0.3638  0.4815
34154SOL     OW 7018   0.957   7.601   6.175 -0.2942 -0.3994 -0.0625
34154SOL    HW1 7019   1.004   7.625   6.255 -0.3850  0.1946 -0.1838
34154SOL    HW2 7020   0.871   7.571   6.206  0.4459 -2.3727  0.2395
34155SOL     OW 7021   8.282   7.273   4.529 -0.2258 -0.9736  0.5032
34155SOL    HW1 7022   8.268   7.194   4.581  0.6551 -1.1652  0.4605
34155SOL    HW2 7023   8.363   7.311   4.564 -1.3242  0.6358  1.4128
34156SOL     OW 7024   0.062   9.509   6.067  0.2676 -0.6159 -0.4374
34156SOL    HW1 7025   0.041   9.427   6.112 -1.3901 -0.7145 -1.3471
34156SOL    HW2 7026   0.114   9.558   6.132 -3.0014 -0.2382  2.1804
34157SOL     OW 7027   7.627   7.037  10.174 -0.9712 -0.0782  0.4053
34157SOL    HW1 7028   7.719   7.062  10.184 -1.1583  0.5426  0.6656
34157SOL    HW2 7029   7.611   7.040  10.080 -0.9915  0.8640  0.4227
34158SOL     OW 7030   0.284   3.804  10.517  0.0928  0.7858  0.2946
34158SOL    HW1 7031   0.326   3.719  10.530  0.5777  0.5460 -2.2232
34158SOL    HW2 7032   0.204   3.783  10.469  0.2832  1.7489 -0.4664
34159SOL     OW 7033  10.286   0.452   8.492  0.0837  0.0369 -0.3799
34159SOL    HW1 7034  10.346   0.415   8.557 -0.2955  0.5655  0.2801
34159SOL    HW2 7035  10.343   0.499   8.430  0.3699  0.3399  0.1090
34160SOL     OW 7036   2.051   7.188   7.411  0.0164  0.0014 -0.5932
34160SOL    HW1 7037   2.004   7.239   7.477 -0.5872  0.2253 -1.1808
34160SOL    HW2 7038   2.135   7.233   7.402  0.3519 -0.3924  0.4585
34161SOL     OW 7039   6.934   0.429   2.087 -0.0820 -0.4719 -0.5863
34161SOL    HW1 7040   6.898   0.490   2.022  1.2214 -0.7061 -1.5691
34161SOL    HW2 7041   6.948   0.483   2.165 -1.9596 -0.2579 -0.3568
34162SOL     OW 7042   4.382   7.970  11.049 -0.2884 -0.1058  0.4894
34162SOL    HW1 7043   4.327   8.048  11.055 -1.8028 -1.1012  0.1722
34162SOL    HW2 7044   4.383   7.935  11.138  0.5355  0.3466  0.6687
34163SOL     OW 7045   2.810   2.534   5.901  0.3054 -0.2900 -0.4240
34163SOL    HW1 7046   2.823   2.474   5.974  1.4500  0.0617 -0.3340
34163SOL    HW2 7047   2.718   2.521   5.877  0.2834 -1.4096  0.1791
34164SOL     OW 7048   8.278   6.390   9.606 -0.4870 -0.3260  0.5930
34164SOL    HW1 7049   8.328   6.455   9.655  0.1659  1.0774 -1.7748
34164SOL    HW2 7050   8.197   6.434   9.583  0.1402 -0.1047 -1.3981
34165SOL     OW 7051   0.511   6.346   4.695 -0.0495 -0.0158  0.4597
34165SOL    HW1 7052   0.423   6.380   4.677  0.2410  0.5158 -0.0031
34165SOL    HW2 7053   0.564   6.425   4.706  0.2348 -0.3319  1.4296
34166SOL     OW 7054   3.396   5.449   3.509 -0.1761  0.0499 -0.0603
34166SOL    HW1 7055   3.379   5.388   3.581  0.1265 -0.1225 -0.1329
34166SOL    HW2 7056   3.420   5.393   3.435  1.2990  0.3045  0.1988
34167SOL     OW 7057   6.504  11.911   5.698 -0.1765  0.1509 -0.0355
34167SOL    HW1 7058   6.510  12.007   5.702  0.1153  0.0924  1.8476
34167SOL    HW2 7059   6.415  11.892   5.726 -0.1722 -0.1301 -0.2158
34168SOL     OW 7060   4.359   6.833  10.281  0.4394 -0.0932  0.5428
34168SOL    HW1 7061   4.335   6.815  10.372  0.8245  1.2456  0.9330
34168SOL    HW2 7062   4.439   6.886  10.287  0.6878 -0.3124 -0.5850
34169SOL     OW 7063  10.121   2.084   0.826  0.5306 -0.7320  0.1812
34169SOL    HW1 7064  10.131   2.114   0.917  0.8153 -0.2978  0.0112
34169SOL    HW2 7065  10.036   2.119   0.799  0.6628 -0.4476  0.1269
34170SOL     OW 7066   7.190  10.782   0.563  0.0572  0.0680 -0.0651
34170SOL    HW1 7067   7.148  10.696   0.571 -0.4690  0.2383 -0.9310
34170SOL    HW2 7068   7.283  10.765   0.579 -0.1704 -0.4992  0.7290
34171SOL     OW 7069   7.189  11.293   8.716  0.0096  0.1066  0.0485
34171SOL    HW1 7070   7.151  11.286   8.803  0.7172 -0.4489  0.3183
34171SOL    HW2 7071   7.221  11.383   8.711  2.1651 -0.5194  1.3066
34172SOL     OW 7072   0.121   2.841  10.126 -0.5636 -0.2510  0.6556
34172SOL    HW1 7073   0.169   2.856  10.044 -2.3907  1.0527 -0.2344
34172SOL    HW2 7074   0.185   2.797  10.183  1.6098  1.1950 -0.5266
34173SOL     OW 7075   8.593  11.948   6.346  0.2721  0.1447  0.7716
34173SOL    HW1 7076   8.548  12.030   6.328  0.2239 -0.1403 -0.4881
34173SOL    HW2 7077   8.684  11.965   6.319 -0.0265 -0.6235 -0.7831
34174SOL     OW 7078   6.369  10.151   7.594 -0.0813 -0.0110 -0.1003
34174SOL    HW1 7079   6.332  10.237   7.616  0.2136  0.4837 -1.4661
34174SOL    HW2 7080   6.326  10.126   7.513  1.1051 -0.3605 -0.6417
34175SOL     OW 7081   8.442  11.876   4.051 -0.1830  0.8335  0.1864
34175SOL    HW1 7082   8.369  11.831   4.007 -2.3479  0.7425  3.5230
34175SOL    HW2 7083   8.458  11.954   3.998 -2.8410  0.9250 -0.6289
34176SOL     OW 7084   7.770  11.619   4.719  0.0407 -0.0325 -0.0163
34176SOL    HW1 7085   7.860  11.651   4.719 -0.1196  0.5264  1.7986
34176SOL    HW2 7086   7.751  11.601   4.627  2.3530 -1.1819 -0.3389
34177SOL     OW 7087   7.926   8.670   1.461  0.0245 -0.2375 -0.2197
34177SOL    HW1 7088   7.854   8.636   1.514 -0.4769  0.1513 -0.6428
34177SOL    HW2 7089   7.895   8.756   1.431  0.3116 -0.4369 -1.1062
34178SOL     OW 7090   4.190   2.848   7.167  0.1730 -0.2077 -0.2576
34178SOL    HW1 7091   4.237   2.878   7.089  0.3218 -1.6021 -0.7410
34178SOL    HW2 7092   4.137   2.774   7.136  0.2092 -0.7654  0.9497
34179SOL     OW 7093   5.950   8.652   5.205 -0.1945  0.3000 -0.5792
34179SOL    HW1 7094   5.878   8.713   5.186  0.8263  1.9060  0.4374
34179SOL    HW2 7095   5.913   8.591   5.269 -1.1474 -0.0016 -1.3796
34180SOL     OW 7096  10.249   9.854   0.725  0.8621 -0.5211  0.1981
34180SOL    HW1 7097  10.255   9.759   0.736  0.6473 -0.6503 -0.7357
34180SOL    HW2 7098  10.220   9.887   0.811 -0.4000 -1.4280  0.1379
34181SOL     OW 7099   1.500   8.984   6.457  0.5971 -0.5412  0.0488
34181SOL    HW1 7100   1.480   8.974   6.364  0.2052  1.0806 -0.0657
34181SOL    HW2 7101   1.581   9.035   6.458  0.6966 -0.7058  0.6068
34182SOL     OW 7102   5.827   8.675   5.697 -0.2144 -0.0544 -0.0380
34182SOL    HW1 7103   5.819   8.584   5.727  0.1223 -0.4236 -1.0181
34182SOL    HW2 7104   5.760   8.723   5.746 -0.1669 -0.7663  0.7365
34183SOL     OW 7105  10.686   1.557   5.586 -0.0422  0.5682 -0.0486
34183SOL    HW1 7106  10.610   1.503   5.608 -0.2953  1.0719  0.3246
34183SOL    HW2 7107  10.676   1.635   5.640  0.0596  1.2134 -0.9501
34184SOL     OW 7108   8.450   6.695   1.044 -0.0144  0.4938  0.3318
34184SOL    HW1 7109   8.416   6.607   1.026 -2.9291  2.0373 -2.9720
34184SOL    HW2 7110   8.545   6.684   1.046 -0.2032 -2.5742 -1.0555
34185SOL     OW 7111   6.209   8.239   2.539  0.1372 -0.6138 -0.2118
34185SOL    HW1 7112   6.213   8.196   2.625 -0.7723  0.0488  0.1679
34185SOL    HW2 7113   6.117   8.262   2.527  0.2180 -0.8515 -1.4509
34186SOL     OW 7114  12.028   6.957   7.726  0.0799  0.6629  0.6625
34186SOL    HW1 7115  11.944   6.960   7.680 -0.5716  0.7460  1.8125
34186SOL    HW2 7116  12.080   7.026   7.685  0.7721 -1.3257 -2.1712
34187SOL     OW 7117   9.151   7.463   4.543 -0.0712 -0.3851 -0.2527
34187SOL    HW1 7118   9.115   7.542   4.504  0.2050 -0.9665 -1.7634
34187SOL    HW2 7119   9.245   7.479   4.548 -0.0459 -0.5132 -0.3079
34188SOL     OW 7120   2.277   0.028   6.797  0.1819  0.0828  0.1199
34188SOL    HW1 7121   2.305   0.117   6.819 -0.8176  0.3459  0.3918
34188SOL    HW2 7122   2.202   0.012   6.854 -0.5468 -0.3904 -0.9298
34189SOL     OW 7123   3.433   5.769   9.767  0.0617  0.1876  0.1177
34189SOL    HW1 7124   3.404   5.786   9.857  2.6504 -0.4881  1.1784
34189SOL    HW2 7125   3.489   5.692   9.775  2.1038  1.3850 -1.6709
34190SOL     OW 7126   5.293   7.330  10.363  0.0751  0.0986  0.2872
34190SOL    HW1 7127   5.352   7.263  10.398 -0.5563 -0.1051  0.9884
34190SOL    HW2 7128   5.335   7.358  10.282  1.3727  0.2883  0.9847
34191SOL     OW 7129  11.867   2.840   4.788 -0.1434 -0.2838  0.0097
34191SOL    HW1 7130  11.896   2.926   4.757  1.2805 -0.2957  1.2052
34191SOL    HW2 7131  11.896   2.779   4.720 -0.0358  0.0394 -0.2370
34192SOL     OW 7132   4.017   4.856   9.751  0.9788  0.7858 -0.3888
34192SOL    HW1 7133   4.065   4.871   9.832 -0.8028 -0.3518  0.9444
34192SOL    HW2 7134   3.987   4.943   9.725  1.8504  1.2076 -0.0339
34193SOL     OW 7135   1.331   6.810   3.604  0.2470  0.4779  0.1752
34193SOL    HW1 7136   1.366   6.837   3.689  0.6898  1.3803 -0.2740
34193SOL    HW2 7137   1.360   6.879   3.544 -0.7242  0.2599 -0.5608
34194SOL     OW 7138   7.932  10.606   9.676 -0.1597 -0.3190 -0.1715
34194SOL    HW1 7139   7.952  10.623   9.584  2.1757 -2.8559 -0.2494
34194SOL    HW2 7140   7.842  10.574   9.675  0.3772 -1.9362 -1.8634
34195SOL     OW 7141   3.981   3.686   7.678  0.0564  0.0234 -0.0250
34195SOL    HW1 7142   3.933   3.731   7.748  0.5221  1.2060 -0.4384
34195SOL    HW2 7143   4.025   3.756   7.631  0.6240 -0.8659 -0.8470
34196SOL     OW 7144   8.729   3.698   8.520 -0.7467 -0.1136  0.0612
34196SOL    HW1 7145   8.790   3.684   8.448 -1.7163  0.5979 -0.9325
34196SOL    HW2 7146   8.781   3.684   8.599  0.5319 -0.1517 -0.7613
34197SOL     OW 7147   2.660   4.707   3.286 -0.3476  0.3638  0.2472
34197SOL    HW1 7148   2.714   4.785   3.301 -0.4969  1.1776 -2.8575
34197SOL    HW2 7149   2.720   4.643   3.247 -0.8283 -0.1103  0.2682
34198SOL     OW 7150  11.469   2.540   7.578 -0.3861 -0.4676  0.2478
34198SOL    HW1 7151  11.437   2.574   7.662  2.0034 -0.3065  1.1606
34198SOL    HW2 7152  11.456   2.612   7.517  0.2216  0.3758  1.0830
34199SOL     OW 7153   5.295   9.574   2.228  0.6159 -0.1764  0.2377
34199SOL    HW1 7154   5.264   9.665   2.220 -0.0194 -0.4472 -0.4506
34199SOL    HW2 7155   5.333   9.554   2.143 -0.1159 -0.8684  0.0626
34200SOL     OW 7156  12.061  11.745   5.129  0.2577  0.1134  0.4527
34200SOL    HW1 7157  12.043  11.787   5.213  0.7328  0.8605  0.1906
34200SOL    HW2 7158  12.011  11.664   5.132  0.4493  0.0160  1.5539
34201SOL     OW 7159   9.460   9.502   9.745  0.1159 -0.0142  0.4757
34201SOL    HW1 7160   9.505   9.502   9.660  0.6135  0.4224  0.7373
34201SOL    HW2 7161   9.376   9.544   9.727  0.5123  0.7438  0.3412
34202SOL     OW 7162  10.916   1.883   4.181  0.7111 -0.0676 -0.5636
34202SOL    HW1 7163  10.997   1.842   4.213  0.8618  0.2587 -0.5211
34202SOL    HW2 7164  10.871   1.813   4.133  0.6239 -0.4811  0.1096
34203SOL     OW 7165   2.294  10.478  11.878  0.0426 -0.3671  0.3439
34203SOL    HW1 7166   2.277  10.568  11.907  1.6853 -0.2519  1.0825
34203SOL    HW2 7167   2.244  10.423  11.937 -0.3448  0.0408  0.3941
34204SOL     OW 7168   0.387   0.226  12.077  0.2190  0.4683  0.1293
34204SOL    HW1 7169   0.392   0.265  12.164  1.1862 -0.8107  0.6734
34204SOL    HW2 7170   0.413   0.135  12.090 -0.8182 -0.0622 -1.3050
34205SOL     OW 7171   4.610   2.302  11.573 -0.2450 -0.1815 -0.7996
34205SOL    HW1 7172   4.615   2.272  11.483 -2.3740  2.8226 -2.0735
34205SOL    HW2 7173   4.516   2.313  11.590 -0.0765 -2.1988  2.4553
34206SOL     OW 7174  10.863   0.269   1.178  0.6289 -0.0981 -0.0731
34206SOL    HW1 7175  10.809   0.343   1.149 -1.5839 -1.4242  0.4348
34206SOL    HW2 7176  10.953   0.302   1.172 -0.2658  3.0942  1.4004
34207SOL     OW 7177   4.637   6.005   5.219 -0.1255  0.0563  0.2138
34207SOL    HW1 7178   4.723   5.980   5.186 -0.0321  0.2050  0.3394
34207SOL    HW2 7179   4.632   5.962   5.305  0.1511  0.6765  0.5555
34208SOL     OW 7180   8.681   8.315   4.847  0.6182  0.4505 -0.3091
34208SOL    HW1 7181   8.747   8.380   4.870  0.6375  0.1308  0.5652
34208SOL    HW2 7182   8.599   8.365   4.844  0.7436  0.6536 -0.3713
34209SOL     OW 7183   9.388   4.393   2.108 -0.2032 -0.0689  0.0383
34209SOL    HW1 7184   9.377   4.482   2.141 -1.5678 -0.6373  1.2001
34209SOL    HW2 7185   9.330   4.388   2.032  1.7224  0.7394 -1.5735
34210SOL     OW 7186   7.522  10.330   9.992  0.0854  0.4223 -0.2826
34210SOL    HW1 7187   7.492  10.259  10.048 -0.5877  1.0035  0.1144
34210SOL    HW2 7188   7.551  10.398  10.053 -1.2716  1.3301 -0.5914
34211SOL     OW 7189  11.173   9.021   1.598  0.1566  0.8187 -0.2361
34211SOL    HW1 7190  11.150   9.027   1.505  0.8056 -1.3945 -0.6108
34211SOL    HW2 7191  11.096   8.983   1.640 -0.6757  3.1253  0.4449
34212SOL     OW 7192   5.396   1.308  11.042 -0.5526  0.8492 -0.2567
34212SOL    HW1 7193   5.480   1.294  11.086 -0.4994  0.2659 -0.5205
34212SOL    HW2 7194   5.405   1.394  11.000 -0.5312  1.3118  0.6865
34213SOL     OW 7195  10.274   2.712   9.584 -0.2396 -0.1095  0.6422
34213SOL    HW1 7196  10.263   2.791   9.638  2.4080  0.0672  1.0688
34213SOL    HW2 7197  10.368   2.711   9.563 -0.1045 -3.3203  0.9162
34214SOL     OW 7198  10.030   5.281   0.700  0.1773  0.6440 -0.2834
34214SOL    HW1 7199  10.050   5.229   0.777 -1.5538  0.6123  0.1684
34214SOL    HW2 7200   9.950   5.243   0.664  0.5463  1.1109 -1.6845
34215SOL     OW 7201   1.482   0.356   4.706  0.6350 -0.4753 -0.0059
34215SOL    HW1 7202   1.454   0.422   4.770  0.3239 -0.8605  0.2547
34215SOL    HW2 7203   1.566   0.325   4.738  0.6590 -0.3968  0.0086
34216SOL     OW 7204   2.371   9.737   4.544  0.4631  0.3581 -0.2292
34216SOL    HW1 7205   2.389   9.801   4.476 -1.0648  1.4591  0.3319
34216SOL    HW2 7206   2.284   9.703   4.522  1.1291 -1.3536 -0.3611
34217SOL     OW 7207   2.146   8.869   5.628  0.3454 -0.6985 -0.2371
34217SOL    HW1 7208   2.113   8.831   5.547 -0.9872 -0.4819  0.1839
34217SOL    HW2 7209   2.210   8.935   5.599  0.5235 -1.2168 -1.0666
34218SOL     OW 7210  11.515   6.209   2.869 -0.3554 -0.4082 -0.1312
34218SOL    HW1 7211  11.473   6.126   2.893 -0.1955  0.0537  1.8948
34218SOL    HW2 7212  11.525   6.203   2.774 -3.3086 -1.3136 -0.5062
34219SOL     OW 7213   5.271  10.368   7.022  0.3138  0.1129  0.2932
34219SOL    HW1 7214   5.274  10.363   6.927  1.0468  0.0987  0.3181
34219SOL    HW2 7215   5.214  10.443   7.040 -0.5954 -0.4505 -0.1372
34220SOL     OW 7216  10.371   4.876  12.019  0.4140 -0.2827 -0.1093
34220SOL    HW1 7217  10.426   4.803  12.046  0.2383 -0.6606 -0.7768
34220SOL    HW2 7218  10.430   4.952  12.022  0.4871 -0.3659  0.9960
34221SOL     OW 7219   6.041   1.112   7.896  0.3271  0.7784  0.0161
34221SOL    HW1 7220   6.030   1.142   7.806 -1.4490  1.3230  0.3787
34221SOL    HW2 7221   6.025   1.017   7.892  0.0308  0.8391 -0.2076
34222SOL     OW 7222  10.854   3.326   5.325  0.4567 -0.4987 -0.2503
34222SOL    HW1 7223  10.930   3.312   5.382  1.2692 -1.0194 -1.4219
34222SOL    HW2 7224  10.886   3.306   5.237 -1.2122 -1.3704 -0.7049
34223SOL     OW 7225   5.021   1.887   0.735  0.3229  0.1799 -0.3961
34223SOL    HW1 7226   5.011   1.793   0.747 -0.1452  0.0940 -1.3153
34223SOL    HW2 7227   5.110   1.906   0.764  0.5419 -0.6082 -0.5340
34224SOL     OW 7228   1.371   0.550   6.901 -0.4025 -0.4969 -0.1137
34224SOL    HW1 7229   1.284   0.574   6.869 -0.4792  0.8548  1.0470
34224SOL    HW2 7230   1.426   0.625   6.879 -0.3353  0.2413  2.3616
34225SOL     OW 7231   0.957  12.056  12.054 -0.0538  0.0495  0.2758
34225SOL    HW1 7232   1.010  12.091  11.982  0.0386  0.3058  0.4634
34225SOL    HW2 7233   0.873  12.101  12.046 -0.3063 -0.4878 -0.1278
34226SOL     OW 7234   5.712   3.810   0.020  0.2268  0.3332 -0.4003
34226SOL    HW1 7235   5.721   3.868  -0.056 -1.4404  0.6685 -0.3854
34226SOL    HW2 7236   5.622   3.823   0.049 -1.3010 -4.3201 -2.1147
34227SOL     OW 7237   2.684   8.197   1.712  0.1724 -0.0303 -1.1569
34227SOL    HW1 7238   2.734   8.243   1.779 -0.8476  1.2092 -1.1883
34227SOL    HW2 7239   2.749   8.147   1.663  1.1281  0.1945 -0.1526
34228SOL     OW 7240   5.483   2.717   6.231 -0.0240  0.3865 -0.1138
34228SOL    HW1 7241   5.402   2.734   6.280  0.5993  0.7840  0.8039
34228SOL    HW2 7242   5.494   2.622   6.234 -0.3518  0.3471 -0.0905
34229SOL     OW 7243   9.982   5.059   9.337  0.1128 -0.1490  0.2713
34229SOL    HW1 7244   9.956   4.972   9.308 -1.6823  0.5191 -0.3050
34229SOL    HW2 7245   9.899   5.106   9.347  1.0623  1.6719 -0.0342
34230SOL     OW 7246  11.138   0.973   4.234 -0.3933 -0.3729  0.0695
34230SOL    HW1 7247  11.192   1.005   4.306  1.1483 -1.6462 -0.4643
34230SOL    HW2 7248  11.126   1.049   4.177  0.0576  0.1492  0.6577
34231SOL     OW 7249   1.446   9.005   6.178 -0.0192  0.1336 -0.3775
34231SOL    HW1 7250   1.531   8.978   6.143  0.3211  0.9275 -0.1805
34231SOL    HW2 7251   1.383   8.977   6.111  0.4674  0.2188 -0.8835
34232SOL     OW 7252   4.471   1.098   4.966 -0.5330 -0.7101  0.0858
34232SOL    HW1 7253   4.448   1.189   4.945  1.3898  0.3812  2.1592
34232SOL    HW2 7254   4.551   1.082   4.917  0.2921 -0.4878  1.3112
34233SOL     OW 7255   9.332   5.849   3.679  0.8389  0.0717  0.4303
34233SOL    HW1 7256   9.375   5.919   3.631  1.6474  0.2944  1.4415
34233SOL    HW2 7257   9.238   5.870   3.674  0.8915  0.0753 -1.0172
34234SOL     OW 7258   6.078   3.966   7.158 -0.3767  0.2785 -0.3300
34234SOL    HW1 7259   6.063   3.990   7.067 -0.6065 -1.3314 -0.7556
34234SOL    HW2 7260   6.042   4.038   7.209  1.4523  2.1324 -1.4943
34235SOL     OW 7261   0.977  10.815   6.309 -0.3874  0.5317 -0.0623
34235SOL    HW1 7262   0.942  10.841   6.224 -1.5964  1.0622  0.5616
34235SOL    HW2 7263   1.069  10.839   6.306 -0.6591  1.5580 -0.8402
34236SOL     OW 7264   5.211   0.173   5.814 -0.1493  0.5576 -0.5496
34236SOL    HW1 7265   5.223   0.167   5.719 -1.3506  1.0517 -0.7513
34236SOL    HW2 7266   5.155   0.250   5.826 -1.8219 -0.7425  0.3849
34237SOL     OW 7267   8.327   4.383   7.112 -0.4808  0.5243 -0.5159
34237SOL    HW1 7268   8.420   4.387   7.088 -1.0018 -0.0713 -2.8834
34237SOL    HW2 7269   8.301   4.474   7.126  0.7830  0.6039  1.8181
34238SOL     OW 7270   5.611   7.244   5.255 -0.3935  0.2749 -0.3755
34238SOL    HW1 7271   5.672   7.277   5.320  0.0676  0.1974 -0.7634
34238SOL    HW2 7272   5.651   7.265   5.171 -1.9478  2.2397 -0.6937
34239SOL     OW 7273  10.570   9.226  11.236  0.1502  0.8068  0.0723
34239SOL    HW1 7274  10.554   9.195  11.325 -0.8763  1.5457  0.1638
34239SOL    HW2 7275  10.663   9.248  11.235  1.1815 -2.8172 -0.2034
34240SOL     OW 7276   7.219   3.803   2.537 -0.1785  0.7469 -0.4520
34240SOL    HW1 7277   7.251   3.713   2.543  0.4587  0.9616 -0.5871
34240SOL    HW2 7278   7.171   3.805   2.454  0.5604  0.7603 -0.8866
34241SOL     OW 7279  11.663  11.581   0.094 -0.1418  0.0338  0.7256
34241SOL    HW1 7280  11.694  11.490   0.100  2.3291  0.7344 -0.1673
34241SOL    HW2 7281  11.623  11.586   0.007 -1.5175 -0.4944  1.2967
34242SOL     OW 7282  10.006   9.646   3.605  0.2365  0.0728 -0.0454
34242SOL    HW1 7283   9.975   9.591   3.532  1.4862  1.6652 -1.8952
34242SOL    HW2 7284  10.071   9.703   3.565  1.7567  0.3366  2.6002
34243SOL     OW 7285   4.392   2.708   0.664  0.0518 -0.6652  0.2636
34243SOL    HW1 7286   4.453   2.642   0.697  0.4058  0.1819  1.3552
34243SOL    HW2 7287   4.395   2.778   0.729 -1.7692 -0.4128  0.1173
34244SOL     OW 7288   6.735   1.071   6.774  0.0868  0.0970  0.5165
34244SOL    HW1 7289   6.789   0.999   6.804  0.8779  0.8329  0.9025
34244SOL    HW2 7290   6.797   1.142   6.755 -0.5729  0.3491 -0.8387
34245SOL     OW 7291   3.035   0.472  11.215 -0.1367 -0.4254 -0.2856
34245SOL    HW1 7292   2.951   0.516  11.200 -0.4579 -0.7460  0.5328
34245SOL    HW2 7293   3.012   0.386  11.251  0.5476 -0.3159  0.4484
34246SOL     OW 7294   9.714   4.736   2.418  0.5575 -0.2050 -0.2946
34246SOL    HW1 7295   9.787   4.770   2.470 -0.0363 -0.1523  0.5125
34246SOL    HW2 7296   9.743   4.649   2.391  1.1978  0.0804 -0.5631
34247SOL     OW 7297   2.470   1.109   7.992  0.0519 -0.2528 -0.3543
34247SOL    HW1 7298   2.406   1.049   7.955  0.8008 -1.0429 -0.4025
34247SOL    HW2 7299   2.440   1.124   8.082 -2.2413  2.3400 -1.4375
34248SOL     OW 7300   6.996   9.868  10.950  0.5190  0.4734  0.1038
34248SOL    HW1 7301   7.014   9.943  11.007  3.2523  0.2626 -0.3344
34248SOL    HW2 7302   7.068   9.807  10.967  0.2301 -0.5568 -1.9922
34249SOL     OW 7303   0.454   2.804   1.814  0.4325 -0.2528 -0.0185
34249SOL    HW1 7304   0.398   2.793   1.891  0.5802 -0.0121  0.1248
34249SOL    HW2 7305   0.543   2.794   1.846  0.4928 -0.2142 -0.1699
34250SOL     OW 7306   9.904   9.758   1.778  0.0052  0.1172 -0.2227
34250SOL    HW1 7307   9.956   9.781   1.855  0.5961 -2.0915  0.0935
34250SOL    HW2 7308   9.957   9.787   1.704 -0.1684  1.4638  0.1400
34251SOL     OW 7309   8.212   0.151  10.891  0.0148  0.0710  0.4268
34251SOL    HW1 7310   8.143   0.209  10.859 -0.5311  1.6486  3.9928
34251SOL    HW2 7311   8.165   0.083  10.939  0.8044 -2.0345 -1.5626
34252SOL     OW 7312   0.829   5.096   9.727 -0.2930 -0.2115 -0.1301
34252SOL    HW1 7313   0.764   5.070   9.662  0.1261 -0.4965 -0.4395
34252SOL    HW2 7314   0.817   5.191   9.736 -1.1770 -0.3535  0.2905
34253SOL     OW 7315   6.363  11.422   5.080  1.0342 -0.3055 -0.1146
34253SOL    HW1 7316   6.354  11.374   5.162 -0.1741 -0.6819 -0.4384
34253SOL    HW2 7317   6.275  11.459   5.065  0.5891 -2.1004 -2.3600
34254SOL     OW 7318  10.655   2.507   1.756 -0.4736  0.7572 -0.1486
34254SOL    HW1 7319  10.630   2.526   1.665 -0.5234  0.2898 -0.2343
34254SOL    HW2 7320  10.751   2.498   1.753 -0.4558  0.9246 -0.1168
34255SOL     OW 7321   1.951  11.469   3.578 -0.0139  0.1471  0.1020
34255SOL    HW1 7322   2.040  11.444   3.603  0.2409 -1.0045 -1.7610
34255SOL    HW2 7323   1.956  11.563   3.562  1.1874 -0.0818 -1.0793
34256SOL     OW 7324   7.767   5.371  11.994  0.2750  0.0500  0.1780
34256SOL    HW1 7325   7.798   5.447  11.945  2.0374  0.6341  2.0618
34256SOL    HW2 7326   7.847   5.326  12.021 -0.6537 -0.8088  1.6405
34257SOL     OW 7327   0.457   9.240   7.277 -0.5936  0.3056  0.0450
34257SOL    HW1 7328   0.390   9.192   7.229 -1.3273  1.5215 -0.1996
34257SOL    HW2 7329   0.487   9.308   7.216  0.9826 -0.2977  0.0948
34258SOL     OW 7330   5.783   1.489   8.212 -0.0405 -0.5012  0.0120
34258SOL    HW1 7331   5.808   1.435   8.138  0.5679  1.8031 -1.5880
34258SOL    HW2 7332   5.865   1.506   8.260 -0.2887 -1.2636  0.7315
34259SOL     OW 7333  10.794   4.942   5.971  0.1538 -0.1448  0.1731
34259SOL    HW1 7334  10.874   4.993   5.962  0.5830 -0.5793  1.2991
34259SOL    HW2 7335  10.813   4.879   6.041 -0.3365 -1.9200 -1.2136
34260SOL     OW 7336   8.179  11.363   6.494  0.3046  0.2522 -0.2258
34260SOL    HW1 7337   8.223  11.442   6.524  1.5139 -0.6010  0.3446
34260SOL    HW2 7338   8.188  11.302   6.567  0.3760 -0.7830 -1.0820
34261SOL     OW 7339   6.690  11.755   6.676 -0.7539 -0.1364  0.1990
34261SOL    HW1 7340   6.675  11.672   6.630 -1.3147  1.4353 -2.6904
34261SOL    HW2 7341   6.604  11.797   6.678  0.2528  2.6747 -3.4927
34262SOL     OW 7342   8.079   2.144   5.747 -0.0304 -0.0011 -0.0119
34262SOL    HW1 7343   8.133   2.075   5.786  0.7857  0.3386 -0.4974
34262SOL    HW2 7344   8.040   2.189   5.821  0.9559  0.2016  0.4056
34263SOL     OW 7345   4.448   5.133   3.280 -0.2740 -0.7599  0.1306
34263SOL    HW1 7346   4.411   5.058   3.327  1.1199 -1.4636  0.1550
34263SOL    HW2 7347   4.468   5.100   3.193 -0.9265 -0.0243 -0.3128
34264SOL     OW 7348   3.194   1.185   2.650  0.0127 -0.5414  0.3488
34264SOL    HW1 7349   3.270   1.211   2.703  1.9372 -1.1022 -1.9298
34264SOL    HW2 7350   3.159   1.267   2.617  1.9189 -0.3249 -1.4046
34265SOL     OW 7351   0.928   8.474   6.181 -0.0562  0.4467  0.4631
34265SOL    HW1 7352   0.852   8.467   6.238 -0.7756  0.1824 -0.5224
34265SOL    HW2 7353   0.937   8.568   6.166  0.9213  0.6533  2.0118
34266SOL     OW 7354   4.286   3.796  11.677 -0.3905  0.3988 -0.2816
34266SOL    HW1 7355   4.374   3.759  11.689  0.9604  2.7589 -2.0641
34266SOL    HW2 7356   4.278   3.861  11.747 -0.5254  0.5247 -0.4139
34267SOL     OW 7357  11.312   7.947   5.568  0.5672  0.3125  0.4894
34267SOL    HW1 7358  11.323   8.003   5.492  1.5246  0.2081  0.5400
34267SOL    HW2 7359  11.400   7.938   5.604  0.4386 -1.2065  0.4835
34268SOL     OW 7360   8.578   4.052   5.032 -0.5088 -0.2660  0.3533
34268SOL    HW1 7361   8.504   4.092   5.078 -0.3596  0.0577  0.3150
34268SOL    HW2 7362   8.618   4.125   4.984 -0.0929 -0.4127  0.4721
34269SOL     OW 7363   8.663   5.157   8.108 -0.3019  0.3726  0.2911
34269SOL    HW1 7364   8.648   5.144   8.202  2.9412 -2.6921  0.6098
34269SOL    HW2 7365   8.717   5.236   8.104  2.5899 -1.3772  1.5586
34270SOL     OW 7366   7.959   2.232   6.574 -0.9074  0.4148 -0.2478
34270SOL    HW1 7367   8.023   2.165   6.552 -1.1219  0.3673 -0.7441
34270SOL    HW2 7368   7.888   2.219   6.510 -0.0495  2.4219 -1.6900
34271SOL     OW 7369   8.623   8.616   1.809 -0.3000  0.5636  0.3090
34271SOL    HW1 7370   8.603   8.603   1.716  0.1802 -2.2612  0.5001
34271SOL    HW2 7371   8.540   8.603   1.854 -0.4271  1.3810  0.3116
34272SOL     OW 7372   0.264   1.905   4.840 -0.0297  0.5381  0.4670
34272SOL    HW1 7373   0.222   1.872   4.919  0.1239  2.2239  1.2909
34272SOL    HW2 7374   0.230   1.994   4.830  2.0487  1.3567  0.2075
34273SOL     OW 7375  11.369   5.767  10.593  0.1969 -0.9067 -1.0925
34273SOL    HW1 7376  11.451   5.751  10.640  1.1634 -0.1274 -2.4478
34273SOL    HW2 7377  11.316   5.689  10.610  0.6398 -0.8167  0.9404
34274SOL     OW 7378   2.273   1.622   2.575 -0.1713  0.0094  0.3586
34274SOL    HW1 7379   2.219   1.605   2.498 -1.0632 -0.1741  1.0003
34274SOL    HW2 7380   2.272   1.717   2.586  0.2340  0.0644 -0.0355
34275SOL     OW 7381   7.792   1.887   4.949  0.5858 -0.0496 -0.7673
34275SOL    HW1 7382   7.745   1.969   4.960 -0.3579 -0.6007 -0.6387
34275SOL    HW2 7383   7.810   1.883   4.855 -0.4353 -0.2713 -0.9580
34276SOL     OW 7384  10.649   1.731   0.193 -0.1886  0.1296 -0.6763
34276SOL    HW1 7385  10.722   1.677   0.164 -0.8524 -0.1652 -1.8275
34276SOL    HW2 7386  10.690   1.797   0.250  1.0673  0.3754 -1.8185
34277SOL     OW 7387   3.429   7.204   1.750  0.0885  0.4938  0.0954
34277SOL    HW1 7388   3.381   7.122   1.734 -2.4203  1.3934  2.1904
34277SOL    HW2 7389   3.499   7.204   1.685 -1.4970 -1.9690 -1.8196
34278SOL     OW 7390   8.664  11.887  12.046 -0.2702  0.3576  0.6994
34278SOL    HW1 7391   8.703  11.863  12.130 -1.5389 -0.2789  1.1329
34278SOL    HW2 7392   8.735  11.876  11.983  0.1757 -1.1112  1.4158
34279SOL     OW 7393  12.121   6.116   3.001  0.1162  0.5876 -0.5853
34279SOL    HW1 7394  12.185   6.177   2.965 -1.1652  3.1977  1.2532
34279SOL    HW2 7395  12.037   6.159   2.989 -1.0585 -1.5521 -0.5546
34280SOL     OW 7396   3.298  11.671   2.947  0.2206 -0.0283 -0.4006
34280SOL    HW1 7397   3.225  11.733   2.949  0.5915  0.4113  1.6767
34280SOL    HW2 7398   3.360  11.705   3.012  0.3229 -2.6804  1.0007
34281SOL     OW 7399   0.072   4.665   9.597  0.1909 -0.1261 -0.0289
34281SOL    HW1 7400   0.048   4.712   9.677  0.2177  2.0200 -1.2337
34281SOL    HW2 7401  -0.003   4.607   9.580  0.6043 -1.3573  2.0449
34282SOL     OW 7402   1.723   1.285  10.637 -0.1983  0.0339 -0.2589
34282SOL    HW1 7403   1.734   1.320  10.549 -3.1186  1.6523 -0.0816
34282SOL    HW2 7404   1.678   1.201  10.624 -2.2475  1.0798 -0.3334
34283SOL     OW 7405   2.750   9.390  10.781  0.1001 -0.1822 -0.1572
34283SOL    HW1 7406   2.752   9.299  10.751 -2.2522 -0.2879 -0.1834
34283SOL    HW2 7407   2.747   9.384  10.876  2.9937  0.0197  0.0214
34284SOL     OW 7408   6.299  11.560   7.669 -0.2382  0.6956 -0.8834
34284SOL    HW1 7409   6.253  11.479   7.690 -0.2241 -0.0999 -3.5076
34284SOL    HW2 7410   6.230  11.625   7.658 -0.4019  0.5542 -0.6958
34285SOL     OW 7411   1.265   3.404   5.502  0.1624  0.4579  0.2187
34285SOL    HW1 7412   1.171   3.407   5.518  0.1352  4.5567  0.4856
34285SOL    HW2 7413   1.305   3.422   5.587  1.0102  1.5607 -0.3822
34286SOL     OW 7414   3.241   8.443   0.852  0.2726 -0.1572 -0.5919
34286SOL    HW1 7415   3.259   8.508   0.783  2.5867  0.5758  0.5659
34286SOL    HW2 7416   3.196   8.493   0.920  0.6373 -0.1364 -0.3616
34287SOL     OW 7417   2.595   4.556   6.930 -0.3339  0.3951 -0.4285
34287SOL    HW1 7418   2.624   4.643   6.902 -1.1013  0.6388 -0.4911
34287SOL    HW2 7419   2.581   4.508   6.848 -0.8243  0.5218 -0.4217
34288SOL     OW 7420   5.590   1.878   7.134 -0.2891 -0.3711  0.7419
34288SOL    HW1 7421   5.615   1.962   7.172  1.0832 -0.3357 -0.1723
34288SOL    HW2 7422   5.512   1.898   7.082  0.0017  0.3395  0.5644
34289SOL     OW 7423   8.110   5.051   4.274 -0.2560 -0.5304  0.0721
34289SOL    HW1 7424   8.191   5.086   4.311  0.2149  1.0579 -2.2632
34289SOL    HW2 7425   8.086   4.979   4.333  1.4179  0.5975  2.2977
34290SOL     OW 7426   0.522   2.066   2.383  0.1024  0.4746 -0.1793
34290SOL    HW1 7427   0.499   2.151   2.344  0.2425  1.5157  1.8626
34290SOL    HW2 7428   0.617   2.069   2.392  0.0800  0.2244  0.1528
34291SOL     OW 7429   0.239   4.925   2.387  0.0339  0.1916 -0.8951
34291SOL    HW1 7430   0.175   4.889   2.326 -0.4373  0.3597 -0.5026
34291SOL    HW2 7431   0.190   4.989   2.439 -0.2491 -1.7791  1.4257
34292SOL     OW 7432  11.501  11.292  10.206  0.0205  0.2841  0.2181
34292SOL    HW1 7433  11.568  11.284  10.138 -0.1667 -1.5077  0.1733
34292SOL    HW2 7434  11.425  11.329  10.161  1.1799  3.2008  0.4724
34293SOL     OW 7435   1.172   4.364   8.635 -0.7499 -0.2800  0.0360
34293SOL    HW1 7436   1.086   4.389   8.601  0.0603  1.3246 -0.8964
34293SOL    HW2 7437   1.175   4.401   8.723 -1.5859 -1.6781  0.6900
34294SOL     OW 7438   3.650   5.157   7.840 -0.3686  0.1179  0.0198
34294SOL    HW1 7439   3.593   5.205   7.780  0.7630  0.1876 -1.0229
34294SOL    HW2 7440   3.723   5.126   7.786 -1.6988 -4.1248  0.2214
34295SOL     OW 7441   0.076   8.463   6.220  0.3641  0.0279  0.0954
34295SOL    HW1 7442   0.007   8.423   6.272  0.1337 -0.0878 -0.2963
34295SOL    HW2 7443   0.068   8.423   6.134 -1.1756  2.3463 -0.9235
34296SOL     OW 7444   7.902   9.345   3.783 -0.2320  0.5968 -0.6563
34296SOL    HW1 7445   7.875   9.273   3.727 -0.2679  0.8721 -0.9984
34296SOL    HW2 7446   7.996   9.333   3.794 -0.2500  0.4589 -0.6565
34297SOL     OW 7447   4.360  10.553   9.424  0.5876 -0.4648 -0.1358
34297SOL    HW1 7448   4.287  10.513   9.472  0.1049  0.1460 -0.3453
34297SOL    HW2 7449   4.378  10.491   9.352 -0.0346 -0.3985 -0.3555
34298SOL     OW 7450   7.079   3.700   5.446 -0.0736  0.0098  0.1361
34298SOL    HW1 7451   7.169   3.669   5.434 -1.0989 -3.2373 -0.2277
34298SOL    HW2 7452   7.053   3.665   5.531 -0.8595  1.3962  0.4937
34299SOL     OW 7453   0.748   2.902  10.235 -0.2501  0.2708  0.2300
34299SOL    HW1 7454   0.818   2.883  10.172  1.3387  0.3005  1.8927
34299SOL    HW2 7455   0.755   2.996  10.251 -0.6797  0.2730  0.4131
34300SOL     OW 7456   1.021  10.489  10.041 -1.0000  0.2333 -0.4594
34300SOL    HW1 7457   1.006  10.582  10.025 -0.7398  0.5295  0.9146
34300SOL    HW2 7458   0.985  10.445   9.964 -3.1780  1.3170 -0.1288
34301SOL     OW 7459   2.481   2.426   5.557  0.0687 -0.3778  0.4921
34301SOL    HW1 7460   2.422   2.475   5.500  0.1571  0.0757  0.7848
34301SOL    HW2 7461   2.544   2.386   5.498  1.3656  1.6928  0.3717
34302SOL     OW 7462   5.028   0.883   9.484 -0.1992  0.5138 -0.3826
34302SOL    HW1 7463   4.948   0.893   9.431 -0.1893 -0.7840 -0.6877
34302SOL    HW2 7464   4.998   0.887   9.574 -1.0270 -2.2137 -0.4370
34303SOL     OW 7465  11.520   9.588   0.998 -0.1695 -0.5483 -0.3780
34303SOL    HW1 7466  11.542   9.667   1.047  1.2558 -2.1905  1.8036
34303SOL    HW2 7467  11.598   9.534   1.004 -0.3910 -1.4001 -3.4887
34304SOL     OW 7468   4.883   3.342  10.435  0.3039 -0.2509 -0.6796
34304SOL    HW1 7469   4.801   3.305  10.469 -0.7573  3.7231  1.6697
34304SOL    HW2 7470   4.946   3.270  10.443 -2.1062 -2.3748  0.8872
34305SOL     OW 7471   4.854   9.307   2.094  0.0441  0.2153 -0.1692
34305SOL    HW1 7472   4.763   9.296   2.065 -0.3215 -0.7827  1.2471
34305SOL    HW2 7473   4.903   9.242   2.046 -0.2398 -0.1933  0.0870
34306SOL     OW 7474   4.491   0.430   1.998  0.6143  0.3486 -0.2605
34306SOL    HW1 7475   4.554   0.399   1.933 -0.8911  0.5232 -1.8845
34306SOL    HW2 7476   4.434   0.355   2.014  2.0321 -0.2743  2.3166
34307SOL     OW 7477   4.719  10.003   0.000 -0.5572 -0.2990 -0.7256
34307SOL    HW1 7478   4.744  10.082  -0.048 -0.2760  0.3682  0.4604
34307SOL    HW2 7479   4.799   9.951   0.003 -0.0807  0.4583  0.4807
34308SOL     OW 7480   1.164  10.256   8.727  0.5387  0.0559 -0.5558
34308SOL    HW1 7481   1.217  10.224   8.654 -0.3367 -0.9775 -0.7655
34308SOL    HW2 7482   1.088  10.297   8.685  0.6349  0.5662 -0.2404
34309SOL     OW 7483   2.703   3.816   1.928  0.3061  0.0280  0.7539
34309SOL    HW1 7484   2.693   3.907   1.957  0.6421  0.1491  0.4921
34309SOL    HW2 7485   2.722   3.768   2.008 -1.6299 -0.1102  1.1881
34310SOL     OW 7486   9.523   6.498   9.023 -0.4732  0.3045 -0.4214
34310SOL    HW1 7487   9.432   6.500   8.994 -0.4737 -1.1414 -0.5683
34310SOL    HW2 7488   9.531   6.574   9.082 -2.9383 -1.8439  3.0621
34311SOL     OW 7489   9.496   9.588   2.970  0.3877  0.4787 -0.0644
34311SOL    HW1 7490   9.591   9.601   2.960  0.4477 -0.9162 -1.7554
34311SOL    HW2 7491   9.488   9.534   3.048  1.2680 -1.8086 -1.4672
34312SOL     OW 7492   2.704   4.389   3.625  0.4706  0.4688 -0.5871
34312SOL    HW1 7493   2.695   4.471   3.576  0.5629  1.5340  1.0931
34312SOL    HW2 7494   2.650   4.402   3.703  0.7504 -0.9675 -0.1284
34313SOL     OW 7495   9.168   6.249  10.483  0.3723  0.0164  1.2897
34313SOL    HW1 7496   9.253   6.270  10.522 -0.5726  0.7321  3.0774
34313SOL    HW2 7497   9.104   6.284  10.544 -1.2379  0.4927 -0.5665
34314SOL     OW 7498   0.480   8.510   8.047 -0.6637  0.4198  0.0651
34314SOL    HW1 7499   0.454   8.532   7.957 -1.6811 -1.2892 -0.1038
34314SOL    HW2 7500   0.399   8.515   8.097 -0.6190 -1.1078  0.3405
34315SOL     OW 7501   4.695  10.905   3.169 -0.2792 -0.7500  0.0220
34315SOL    HW1 7502   4.731  10.943   3.250  1.8017 -0.0160 -1.1761
34315SOL    HW2 7503   4.609  10.871   3.195  0.1194 -0.1241  2.4250
34316SOL     OW 7504   5.008   8.828  10.846  0.7311  0.2175  0.4935
34316SOL    HW1 7505   4.939   8.808  10.909 -0.2638  1.9636  0.0202
34316SOL    HW2 7506   5.057   8.899  10.887  1.3307 -0.0065  0.1653
34317SOL     OW 7507   2.805   5.696   8.058 -0.4310 -0.0118 -0.4368
34317SOL    HW1 7508   2.817   5.626   8.122 -1.4077  1.1450  1.0942
34317SOL    HW2 7509   2.892   5.734   8.048 -0.0151 -1.0258 -0.8153
34318SOL     OW 7510   0.330   6.886   3.424  0.2364 -0.1235  0.4770
34318SOL    HW1 7511   0.351   6.838   3.504  1.4594 -1.3758 -0.5342
34318SOL    HW2 7512   0.407   6.941   3.409  0.1778 -0.1739 -0.0168
34319SOL     OW 7513   3.687   6.373   3.251  0.7382  0.4419 -0.0990
34319SOL    HW1 7514   3.776   6.397   3.225  1.1448 -0.1954  0.6769
34319SOL    HW2 7515   3.692   6.280   3.270 -0.5511 -0.0534 -1.9026
34320SOL     OW 7516  10.538   1.940  11.850  0.1992  0.6589 -0.2000
34320SOL    HW1 7517  10.509   1.957  11.761  0.5067 -1.1648 -0.6832
34320SOL    HW2 7518  10.458   1.915  11.897 -0.2322  3.0531  0.4801
34321SOL     OW 7519   7.849   8.911   1.367 -0.4600 -0.1661 -0.3404
34321SOL    HW1 7520   7.774   8.872   1.322 -0.1884 -0.7311 -0.3108
34321SOL    HW2 7521   7.890   8.967   1.301 -0.7755 -0.0276 -0.4233
34322SOL     OW 7522   2.476   9.703   2.217  0.1655  0.6088  0.1050
34322SOL    HW1 7523   2.419   9.772   2.185  0.3539  1.5751  1.7705
34322SOL    HW2 7524   2.565   9.735   2.201  0.2571  0.9397  1.2164
34323SOL     OW 7525   9.400   3.757   3.507 -0.4119  1.3008  0.1590
34323SOL    HW1 7526   9.482   3.770   3.460  0.3893  0.0780  1.1489
34323SOL    HW2 7527   9.415   3.679   3.561 -3.8243 -2.2341 -3.3225
34324SOL     OW 7528   7.909  12.023   1.712  1.0583  0.0034  0.0152
34324SOL    HW1 7529   7.958  11.945   1.685  0.5156 -0.6866  0.9768
34324SOL    HW2 7530   7.944  12.046   1.797 -0.0926 -0.3620  0.6126
34325SOL     OW 7531   4.750   7.404  10.633 -0.2239  0.2468 -0.2899
34325SOL    HW1 7532   4.699   7.396  10.713 -1.9164 -0.0442 -1.3406
34325SOL    HW2 7533   4.809   7.478  10.649 -1.1506  0.7534  0.9000
34326SOL     OW 7534   5.640  11.580   8.239 -0.3227  0.2824  0.1785
34326SOL    HW1 7535   5.686  11.643   8.184 -0.3028 -2.3449 -3.1243
34326SOL    HW2 7536   5.550  11.583   8.208 -0.3086 -1.2847 -0.0575
34327SOL     OW 7537   9.681   5.240   5.600 -0.3047  0.1587 -0.0839
34327SOL    HW1 7538   9.591   5.270   5.610 -0.6084 -0.9574  0.7889
34327SOL    HW2 7539   9.727   5.277   5.676 -0.2992 -0.2274  0.1016
34328SOL     OW 7540   7.350   2.473  11.811  0.4748 -0.1138 -0.5491
34328SOL    HW1 7541   7.376   2.566  11.813 -2.0741  0.7269 -2.1534
34328SOL    HW2 7542   7.257   2.474  11.834  0.3928 -2.3006 -0.6313
34329SOL     OW 7543   1.674  12.057   5.253  0.1039  0.1916  0.2833
34329SOL    HW1 7544   1.642  12.129   5.198  2.4354  1.3926  0.3598
34329SOL    HW2 7545   1.597  12.003   5.269 -1.4002  1.7759 -1.1527
34330SOL     OW 7546   5.844   2.732   1.004 -0.5179  0.2678 -0.7047
34330SOL    HW1 7547   5.824   2.826   1.004 -0.1038  0.3730  0.2498
34330SOL    HW2 7548   5.893   2.718   0.923 -0.1349  0.9916 -0.6146
34331SOL     OW 7549   3.818   3.606   8.319 -0.0394  0.0534 -0.4309
34331SOL    HW1 7550   3.894   3.661   8.338  0.3623 -0.3323 -0.9061
34331SOL    HW2 7551   3.831   3.528   8.374  2.2593 -2.0939 -3.6304
34332SOL     OW 7552  11.088   6.115  10.906  0.5729 -0.3321  0.8429
34332SOL    HW1 7553  11.135   6.050  10.854 -0.3146  0.4723 -1.0981
34332SOL    HW2 7554  10.996   6.093  10.894  0.3530 -0.7071  2.9566
34333SOL     OW 7555   6.737  11.426   1.896 -0.4962  0.1054  0.5080
34333SOL    HW1 7556   6.683  11.460   1.968  0.0046  3.3515 -0.4973
34333SOL    HW2 7557   6.824  11.462   1.913  0.5941 -2.2392  0.2538
34334SOL     OW 7558   5.545   4.363   2.522  0.0960  0.2074  0.7785
34334SOL    HW1 7559   5.513   4.394   2.437 -0.1112  1.6735  1.3582
34334SOL    HW2 7560   5.616   4.303   2.501 -0.7768 -0.4305 -0.4548
34335SOL     OW 7561   8.871   2.686   3.356 -0.7470 -0.9952 -0.0949
34335SOL    HW1 7562   8.843   2.682   3.447  0.7645  0.4740  0.4941
34335SOL    HW2 7563   8.793   2.712   3.308 -1.1605  0.0328  1.0666
34336SOL     OW 7564   1.571   0.717   3.275  0.2144  0.1847 -0.4548
34336SOL    HW1 7565   1.489   0.766   3.266 -0.0418 -0.0506  0.4738
34336SOL    HW2 7566   1.556   0.658   3.349 -0.4058 -3.1186 -2.9248
34337SOL     OW 7567  10.823   4.511   7.710  0.0108 -0.0333  0.1693
34337SOL    HW1 7568  10.778   4.589   7.676  0.4646  0.7219  1.2205
34337SOL    HW2 7569  10.758   4.442   7.704 -0.6399  0.5847 -0.1513
34338SOL     OW 7570   0.841   4.896   4.420  0.0497  0.0147  0.8951
34338SOL    HW1 7571   0.746   4.895   4.415  0.1206 -0.5424 -1.4021
34338SOL    HW2 7572   0.867   4.972   4.368  0.8844 -0.5835  0.4177
34339SOL     OW 7573   5.137   6.685  11.058  0.0691 -0.0095  0.1355
34339SOL    HW1 7574   5.071   6.754  11.047  1.4041  1.1298 -1.0925
34339SOL    HW2 7575   5.142   6.643  10.973 -0.0475 -1.0134  0.6144
34340SOL     OW 7576   3.494   7.113   6.741 -0.2624  0.0679 -0.0806
34340SOL    HW1 7577   3.450   7.047   6.795 -1.1536 -1.0836 -2.0990
34340SOL    HW2 7578   3.563   7.148   6.798 -2.0127 -0.0430  2.2480
34341SOL     OW 7579   2.536  11.227  10.802  0.0009  0.7168 -0.1749
34341SOL    HW1 7580   2.493  11.147  10.771  0.8722  0.1835 -0.0211
34341SOL    HW2 7581   2.467  11.294  10.796 -0.7391 -0.0314 -0.3139
34342SOL     OW 7582  10.019   3.146  10.485  0.0974  1.0505  0.2529
34342SOL    HW1 7583  10.069   3.076  10.528  1.6279  1.5349 -0.6637
34342SOL    HW2 7584   9.994   3.205  10.556 -1.7301 -0.6775  1.1314
34343SOL     OW 7585  11.423   6.238  10.745  0.4804  0.4070  0.5119
34343SOL    HW1 7586  11.405   6.198  10.830  0.5837  0.8703  0.7493
34343SOL    HW2 7587  11.343   6.285  10.724  0.5055  0.4038  0.4109
34344SOL     OW 7588   6.646   6.213   7.850 -0.1865 -0.1891 -0.0178
34344SOL    HW1 7589   6.577   6.215   7.784 -1.1517 -0.1727  0.9695
34344SOL    HW2 7590   6.651   6.303   7.882 -0.5295 -0.4360  0.7453
34345SOL     OW 7591   5.689   6.762   5.777  0.2570  0.2043 -0.6880
34345SOL    HW1 7592   5.672   6.701   5.849  0.4075  0.9841  0.0168
34345SOL    HW2 7593   5.620   6.828   5.784 -0.4094 -0.3191 -1.9626
34346SOL     OW 7594   2.106   4.185  11.155  0.3080  0.4006  0.3148
34346SOL    HW1 7595   2.128   4.143  11.072  0.7226 -0.7362  0.9768
34346SOL    HW2 7596   2.013   4.163  11.168  0.5167 -0.3140  0.6471
34347SOL     OW 7597   7.514   7.642   1.847  0.7405  0.2354 -0.2660
34347SOL    HW1 7598   7.464   7.578   1.898  0.4102  2.6601  2.7600
34347SOL    HW2 7599   7.604   7.610   1.851  0.4804 -0.4469  0.5623
34348SOL     OW 7600   0.318   1.514   9.675 -0.2466 -0.1349  0.1852
34348SOL    HW1 7601   0.255   1.444   9.659 -0.0918 -0.2739  0.1837
34348SOL    HW2 7602   0.328   1.516   9.770  0.0510 -0.3822  0.1605
34349SOL     OW 7603   2.100   9.142   3.178  0.3645 -0.1982 -0.1795
34349SOL    HW1 7604   2.070   9.227   3.207  0.5514  0.4165 -1.6864
34349SOL    HW2 7605   2.184   9.129   3.223 -0.1888 -0.1078  0.9073
34350SOL     OW 7606   2.329  10.100   1.609  1.2291  0.0426  0.8970
34350SOL    HW1 7607   2.396  10.038   1.638 -0.1023 -1.7055  0.3984
34350SOL    HW2 7608   2.374  10.155   1.544  2.2311 -0.9871  0.6868
34351SOL     OW 7609   3.192   3.890   5.924  0.2758  0.5742 -0.1400
34351SOL    HW1 7610   3.183   3.933   6.009 -1.2452 -0.3197  0.1836
34351SOL    HW2 7611   3.143   3.809   5.932 -0.3382  0.7038 -2.0318
34352SOL     OW 7612  10.360   1.978   3.848  0.2337  0.0201 -0.2881
34352SOL    HW1 7613  10.289   2.032   3.814 -0.3636  0.1905  1.1404
34352SOL    HW2 7614  10.347   1.892   3.807 -1.5638 -0.3033  0.8458
34353SOL     OW 7615   2.205   1.696   7.511 -0.2643 -0.2585  0.2018
34353SOL    HW1 7616   2.218   1.601   7.507  0.2178 -0.2844  1.6804
34353SOL    HW2 7617   2.202   1.715   7.605 -0.2128  1.2111 -0.0802
34354SOL     OW 7618   1.381   6.072   7.808  0.3633 -0.1756  0.1970
34354SOL    HW1 7619   1.338   6.136   7.865  0.0097 -0.7635  0.5958
34354SOL    HW2 7620   1.324   5.996   7.810 -0.0061  0.0211 -1.4770
34355SOL     OW 7621   7.680   4.150   0.027  0.6871 -0.4819  0.0853
34355SOL    HW1 7622   7.633   4.111  -0.047 -0.1970  1.1716 -0.2688
34355SOL    HW2 7623   7.623   4.136   0.102  0.3115  0.1987 -0.0644
34356SOL     OW 7624  10.125   1.646   8.097 -0.0934  0.0053 -0.2269
34356SOL    HW1 7625  10.092   1.607   8.178  0.7190  0.6700  0.4530
34356SOL    HW2 7626  10.208   1.686   8.123  1.0646 -1.2843 -1.7727
34357SOL     OW 7627   8.620   8.300   4.322 -0.1565  0.5184  0.4733
34357SOL    HW1 7628   8.535   8.331   4.290 -0.5514  0.3907  1.3728
34357SOL    HW2 7629   8.683   8.333   4.258 -0.9419  0.0752 -0.5614
34358SOL     OW 7630   0.603  10.421   8.885  0.2441  0.2529 -0.8345
34358SOL    HW1 7631   0.682  10.473   8.902  0.0313  0.2536  0.1928
34358SOL    HW2 7632   0.586  10.376   8.968  1.1972 -2.5395 -2.0362
34359SOL     OW 7633   3.098   2.951  10.122  0.3902  0.6055 -0.0310
34359SOL    HW1 7634   3.127   2.868  10.160  0.8660  1.0320  0.5443
34359SOL    HW2 7635   3.036   2.925  10.054  0.7132 -0.2356 -0.0192
34360SOL     OW 7636   1.257   9.837  11.139 -0.0304 -0.1608 -0.3122
34360SOL    HW1 7637   1.331   9.826  11.198  0.2336 -2.6520 -0.9886
34360SOL    HW2 7638   1.188   9.875  11.194  1.1447  0.4612  0.7857
34361SOL     OW 7639   4.663   6.555   5.968  0.2152 -0.1251 -0.7143
34361SOL    HW1 7640   4.612   6.482   5.934  0.7205 -0.9704  0.2665
34361SOL    HW2 7641   4.754   6.527   5.960  0.3586 -0.6975  1.8719
34362SOL     OW 7642  10.870   6.535   0.338  0.3720 -0.5630  0.4786
34362SOL    HW1 7643  10.932   6.469   0.305  0.6153  1.1677 -2.9742
34362SOL    HW2 7644  10.785   6.505   0.308  0.4134  0.3530 -0.5985
34363SOL     OW 7645   0.534   1.396   9.500 -0.1819  0.2877  0.1506
34363SOL    HW1 7646   0.537   1.356   9.587  0.2523  1.0237  0.4884
34363SOL    HW2 7647   0.557   1.488   9.516  2.5900 -0.1020 -1.0500
34364SOL     OW 7648   2.566   3.281   7.731 -0.3804 -0.3874 -0.1837
34364SOL    HW1 7649   2.565   3.229   7.811  2.0425 -1.4814 -0.7722
34364SOL    HW2 7650   2.586   3.370   7.760  1.9180 -1.0227  0.4223
34365SOL     OW 7651   5.433   8.010   7.826 -0.4080 -0.0132 -0.4612
34365SOL    HW1 7652   5.457   8.050   7.910 -1.5287 -0.6718  0.1981
34365SOL    HW2 7653   5.390   8.080   7.778 -1.7379 -0.1785  0.4151
34366SOL     OW 7654   5.604   5.571   3.177  0.4001 -0.4267 -0.4018
34366SOL    HW1 7655   5.558   5.541   3.098  0.0014 -0.3825 -0.1868
34366SOL    HW2 7656   5.658   5.496   3.202 -0.2644 -0.8172 -0.1172
34367SOL     OW 7657   9.570   9.445   8.450  0.4624 -0.3862 -0.4487
34367SOL    HW1 7658   9.570   9.540   8.443  1.4963 -0.4033 -0.8969
34367SOL    HW2 7659   9.520   9.415   8.374  2.2913 -0.2484 -1.7687
34368SOL     OW 7660   5.133   8.909   2.978  0.6326  0.1365 -0.3457
34368SOL    HW1 7661   5.168   8.881   2.894 -2.1288 -1.2860 -1.1435
34368SOL    HW2 7662   5.180   8.857   3.043  2.0445  0.4864 -1.0583
34369SOL     OW 7663   7.005   2.287   9.954 -0.3305 -0.1396 -0.4670
34369SOL    HW1 7664   6.948   2.344  10.007  0.0912  1.4470 -1.6378
34369SOL    HW2 7665   7.055   2.348   9.900 -0.0912 -1.6653 -2.0365
34370SOL     OW 7666   5.182   6.339   3.400 -0.4820  0.2246  0.4142
34370SOL    HW1 7667   5.264   6.386   3.384 -0.2960 -0.3160 -0.3023
34370SOL    HW2 7668   5.208   6.247   3.401 -1.1036  0.0382 -0.0107
34371SOL     OW 7669   6.695   4.869   0.370  0.2004  0.3404  0.7973
34371SOL    HW1 7670   6.697   4.915   0.286 -0.1682 -0.0763  0.5546
34371SOL    HW2 7671   6.608   4.886   0.405 -0.0320 -0.3755  0.5845
34372SOL     OW 7672   7.925   5.409   9.051 -0.3085  0.3187  0.3777
34372SOL    HW1 7673   8.008   5.453   9.067 -0.1175  0.6914 -1.4510
34372SOL    HW2 7674   7.874   5.472   9.000  0.3151 -1.7724 -3.1508
34373SOL     OW 7675  10.664   6.665   4.995  0.5723 -0.0805  0.5876
34373SOL    HW1 7676  10.620   6.580   4.995  1.0476 -0.3893 -1.7443
34373SOL    HW2 7677  10.751   6.647   4.959  0.3402  1.5143 -0.8983
34374SOL     OW 7678   5.730   7.334  10.440 -0.4839 -0.3761 -0.1139
34374SOL    HW1 7679   5.710   7.285  10.520 -0.7015 -0.9619 -0.5302
34374SOL    HW2 7680   5.691   7.420  10.455 -0.1931 -0.3533  0.5711
34375SOL     OW 7681   4.022   6.597  10.162  0.7756 -0.1059  0.1120
34375SOL    HW1 7682   4.031   6.692  10.167 -1.0850  0.0978  0.3985
34375SOL    HW2 7683   3.990   6.580  10.074 -1.5964 -0.1419  0.9096
34376SOL     OW 7684   0.017  10.737  10.927 -0.0082  0.3657  0.2446
34376SOL    HW1 7685  -0.055  10.710  10.985 -0.2106 -0.8381 -0.5267
34376SOL    HW2 7686   0.022  10.667  10.862  0.9574  1.1362 -0.5286
34377SOL     OW 7687   0.950   6.675  11.475 -0.2489  0.5214  0.3999
34377SOL    HW1 7688   0.993   6.590  11.473  0.2446  0.7298  1.1963
34377SOL    HW2 7689   0.990   6.724  11.403  0.0050  0.3198  0.4016
34378SOL     OW 7690   7.326   4.308  11.670 -0.2575 -0.2036 -0.4066
34378SOL    HW1 7691   7.297   4.279  11.756  0.1073  0.8514  0.0878
34378SOL    HW2 7692   7.382   4.237  11.639  0.3123 -0.2241  0.6082
34379SOL     OW 7693   2.573   1.006   8.424 -0.6762  0.5802 -0.2170
34379SOL    HW1 7694   2.492   0.955   8.413 -0.7637  0.4973  0.7155
34379SOL    HW2 7695   2.642   0.940   8.434 -0.6470  0.6414  0.0015
34380SOL     OW 7696   5.170   1.561   8.609  0.2024 -0.1503  0.4591
34380SOL    HW1 7697   5.248   1.514   8.578 -0.3820 -0.9107  0.0974
34380SOL    HW2 7698   5.204   1.643   8.644  1.0730 -0.0645 -0.5351
34381SOL     OW 7699   0.928  11.338  11.594  0.0187 -0.6947 -0.7604
34381SOL    HW1 7700   0.954  11.282  11.521  3.6785 -1.6539  1.0127
34381SOL    HW2 7701   0.905  11.278  11.664  2.4288 -0.0895  0.6631
34382SOL     OW 7702   7.755   7.278   3.429 -0.8613  0.5666  0.4182
34382SOL    HW1 7703   7.713   7.308   3.348 -0.4367  1.0425  0.3713
34382SOL    HW2 7704   7.846   7.264   3.405 -1.2060 -1.6936  0.1945
34383SOL     OW 7705   2.191   4.519   4.405  0.3695 -0.3641  0.1716
34383SOL    HW1 7706   2.139   4.598   4.402  0.1725 -0.4337  1.2660
34383SOL    HW2 7707   2.127   4.448   4.407  0.4508 -0.4269  2.1649
34384SOL     OW 7708   3.540   1.776   8.717 -0.4959 -0.0349 -0.0938
34384SOL    HW1 7709   3.533   1.842   8.785  1.7901  0.2595 -0.0563
34384SOL    HW2 7710   3.554   1.826   8.636  1.7011 -0.3770 -0.0011
34385SOL     OW 7711   9.197   1.371   9.867 -0.7554  0.1022 -0.7442
34385SOL    HW1 7712   9.180   1.449   9.814  0.6428  1.0862  0.1904
34385SOL    HW2 7713   9.274   1.394   9.919 -0.9441 -1.5349  0.3137
34386SOL     OW 7714   7.309   3.332   4.231  0.1918  0.2178 -0.1584
34386SOL    HW1 7715   7.256   3.296   4.159 -0.5630  0.7046  0.1481
34386SOL    HW2 7716   7.349   3.410   4.194  0.1992  0.1925 -0.2044
34387SOL     OW 7717   7.760   9.039   5.950 -0.1599  0.0351  0.1786
34387SOL    HW1 7718   7.793   9.088   5.875  1.1050  0.7157  1.1290
34387SOL    HW2 7719   7.665   9.047   5.945 -0.1668 -0.8873 -1.9561
34388SOL     OW 7720   0.705   2.694   0.218  0.7626 -0.0848 -0.5707
34388SOL    HW1 7721   0.663   2.626   0.165  2.3788 -1.3321 -0.3392
34388SOL    HW2 7722   0.705   2.772   0.162  0.5473 -0.8036 -1.5947
34389SOL     OW 7723   3.437   2.277   9.295  0.2295 -0.0807  0.1263
34389SOL    HW1 7724   3.489   2.271   9.375 -0.5395  1.1389  0.7484
34389SOL    HW2 7725   3.439   2.370   9.271  0.1735 -0.3755 -1.0947
34390SOL     OW 7726   7.943   5.012   9.701 -0.2354 -0.0461 -0.3830
34390SOL    HW1 7727   7.982   5.092   9.735  0.4189 -0.1272 -0.9264
34390SOL    HW2 7728   7.921   4.961   9.780 -0.7983  0.7243 -0.0360
34391SOL     OW 7729   8.472   0.280   8.700 -0.0482  0.1527  0.0944
34391SOL    HW1 7730   8.557   0.253   8.666 -0.3286  0.9674 -1.3483
34391SOL    HW2 7731   8.421   0.198   8.706  0.7568 -0.3112  0.8041
34392SOL     OW 7732   2.950  11.901   4.864 -1.0009  0.2479  0.1133
34392SOL    HW1 7733   2.930  11.983   4.910 -2.2298 -0.6655  1.2834
34392SOL    HW2 7734   2.944  11.833   4.931 -0.0504 -0.8195 -0.8460
34393SOL     OW 7735   6.823  11.821   0.322  0.1000  0.0734  0.0865
34393SOL    HW1 7736   6.856  11.819   0.412  0.5333 -0.1372 -0.0752
34393SOL    HW2 7737   6.894  11.786   0.269 -1.7644 -4.4700  0.1298
34394SOL     OW 7738   4.046   4.350   9.871 -0.0767 -0.1005  0.0842
34394SOL    HW1 7739   3.997   4.432   9.865  0.7670  0.4090  0.0853
34394SOL    HW2 7740   4.061   4.338   9.964  0.9594  0.4610  0.0135
34395SOL     OW 7741   0.119   2.236   2.341 -0.2529  0.3647  0.5002
34395SOL    HW1 7742   0.179   2.295   2.385 -0.0882 -0.2406  1.0999
34395SOL    HW2 7743   0.112   2.160   2.399 -0.0971 -0.4133 -0.4684
34396SOL     OW 7744   4.565   0.657   8.154 -0.4872  0.1381 -0.5534
34396SOL    HW1 7745   4.499   0.690   8.216  0.0150 -0.2571  0.2094
34396SOL    HW2 7746   4.639   0.632   8.209 -0.3077 -0.9173 -1.2499
34397SOL     OW 7747  11.015   9.457  11.594  0.5246 -0.1391  0.0829
34397SOL    HW1 7748  10.945   9.417  11.645 -0.4702  0.2820 -0.9276
34397SOL    HW2 7749  11.064   9.510  11.658  0.3309 -0.9572  0.9207
34398SOL     OW 7750   3.021   3.263   6.753 -0.0111  1.0299 -0.0828
34398SOL    HW1 7751   3.015   3.259   6.657  0.7735 -0.5594 -0.0953
34398SOL    HW2 7752   2.930   3.256   6.782 -0.1366 -0.0447 -0.6902
34399SOL     OW 7753  11.912   1.723   8.648 -0.2025  0.3005  0.2347
34399SOL    HW1 7754  11.897   1.748   8.557 -0.1288  2.6639  0.8134
34399SOL    HW2 7755  11.956   1.798   8.687  0.0658 -0.7861  2.1605
34400SOL     OW 7756  11.257   8.887  11.653  0.0491 -0.2019  0.6653
34400SOL    HW1 7757  11.237   8.878  11.746 -1.1071 -1.8043  0.3027
34400SOL    HW2 7758  11.352   8.871  11.647  0.1230 -0.1187  1.5593
34401SOL     OW 7759   9.211  10.636   2.396  0.0249  0.2210  0.3529
34401SOL    HW1 7760   9.201  10.564   2.334 -1.7914 -0.6813  1.6027
34401SOL    HW2 7761   9.253  10.705   2.346  3.1367 -2.0898 -0.5826
34402SOL     OW 7762   3.767  11.811   5.966  0.0578  0.1148 -0.3297
34402SOL    HW1 7763   3.862  11.793   5.968  0.1337  0.2959 -1.5313
34402SOL    HW2 7764   3.758  11.887   5.909 -0.7009  1.0646  0.9942
34403SOL     OW 7765  10.444   0.616   5.198  0.2676 -0.4359  0.1619
34403SOL    HW1 7766  10.397   0.699   5.197 -0.0577 -0.6221 -0.1806
34403SOL    HW2 7767  10.520   0.632   5.253  0.1607  0.0646  0.1646
34404SOL     OW 7768  10.617   7.184  10.422  0.1918  0.3953  0.5773
34404SOL    HW1 7769  10.652   7.168  10.510 -1.0128 -2.7433  0.6056
34404SOL    HW2 7770  10.547   7.120  10.412  1.8413 -1.1243 -3.5366
34405SOL     OW 7771   1.056   6.774   2.334  0.2296 -0.2100 -0.4022
34405SOL    HW1 7772   1.003   6.716   2.388  0.8040 -1.5466 -1.2036
34405SOL    HW2 7773   1.072   6.724   2.254 -1.3757  2.0471 -2.2504
34406SOL     OW 7774  11.544   1.485   1.025 -0.4594  0.2974 -0.4494
34406SOL    HW1 7775  11.624   1.479   1.078 -0.0589 -1.1306 -1.1866
34406SOL    HW2 7776  11.502   1.566   1.056  0.4998  0.2908  1.0014
34407SOL     OW 7777   0.626   8.029   6.326 -0.4951  0.4788  0.0081
34407SOL    HW1 7778   0.654   8.024   6.235 -1.0284  0.8538 -0.1824
34407SOL    HW2 7779   0.575   7.949   6.340 -1.7209  1.1546 -0.4869
34408SOL     OW 7780   8.349  12.102   0.117  0.1528 -0.0885 -0.1913
34408SOL    HW1 7781   8.300  12.143   0.189 -0.3591 -0.6115 -0.2354
34408SOL    HW2 7782   8.393  12.175   0.074 -0.3279  0.3549  0.0511
34409SOL     OW 7783   7.072   6.076   4.983  0.2193  0.2847  0.0043
34409SOL    HW1 7784   7.090   6.170   4.988 -2.6933  0.8606  2.1809
34409SOL    HW2 7785   7.121   6.039   5.056 -1.9982  0.8774  1.9036
34410SOL     OW 7786   6.185   1.092   9.769  0.2447 -0.5487  0.2345
34410SOL    HW1 7787   6.197   0.997   9.765  0.5600 -0.5719  1.3842
34410SOL    HW2 7788   6.148   1.107   9.856  2.3732  0.5935  1.0081
34411SOL     OW 7789  10.484  11.971   2.767 -0.3022  0.6650 -0.3923
34411SOL    HW1 7790  10.398  12.009   2.788 -1.4467 -1.3709 -1.1427
34411SOL    HW2 7791  10.517  11.939   2.851 -0.4623  1.0567 -0.1729
34412SOL     OW 7792  10.576   9.096   9.905 -0.0442  0.0795  0.2907
34412SOL    HW1 7793  10.577   9.002   9.926  0.1077  0.0144 -0.0078
34412SOL    HW2 7794  10.533   9.101   9.820 -0.8940  0.3733  0.7215
34413SOL     OW 7795   8.382   8.499   3.321  0.2676  0.0918  0.6564
34413SOL    HW1 7796   8.389   8.591   3.295  1.8591 -0.5565 -1.3897
34413SOL    HW2 7797   8.299   8.470   3.282 -0.3828  0.6760  1.5428
34414SOL     OW 7798   7.622  12.088   0.010 -0.1586 -0.0132 -0.7516
34414SOL    HW1 7799   7.668  12.031   0.071 -0.9072 -1.8919 -1.8392
34414SOL    HW2 7800   7.552  12.127   0.061 -0.2232 -0.8458 -0.1926
34415SOL     OW 7801   3.693   8.390   2.828 -0.4177 -0.1952 -0.0197
34415SOL    HW1 7802   3.628   8.459   2.813 -1.0560 -0.7125  0.3250
34415SOL    HW2 7803   3.672   8.323   2.763  1.0837  0.5099 -1.3207
34416SOL     OW 7804  10.483   1.681   4.739  0.3079 -0.0646  0.4713
34416SOL    HW1 7805  10.457   1.673   4.647 -0.8832  0.4069  0.7484
34416SOL    HW2 7806  10.565   1.632   4.745  1.8291  2.0740 -1.3994
34417SOL     OW 7807   0.966   2.147   2.534  0.4611  0.0742 -0.2597
34417SOL    HW1 7808   0.990   2.056   2.517 -0.4309  0.0688 -1.6558
34417SOL    HW2 7809   1.017   2.198   2.471 -2.0888  0.1614 -2.3859
34418SOL     OW 7810   0.763   3.475   5.369  0.0208  0.0708  0.2534
34418SOL    HW1 7811   0.786   3.549   5.426 -0.2455 -1.4535  2.4471
34418SOL    HW2 7812   0.815   3.402   5.403 -2.1254 -1.5396  0.2320
34419SOL     OW 7813   9.821   8.025  10.890 -0.0600  0.5297 -0.3062
34419SOL    HW1 7814   9.755   7.981  10.836  0.9463 -0.2332 -0.9402
34419SOL    HW2 7815   9.776   8.043  10.973 -1.2319  0.5373 -0.9235
34420SOL     OW 7816  11.822   3.543   5.040 -0.3674 -0.2910 -0.2394
34420SOL    HW1 7817  11.898   3.489   5.061 -0.7256 -1.4537 -1.7273
34420SOL    HW2 7818  11.846   3.587   4.958 -0.4678  1.0660  0.4349
34421SOL     OW 7819   7.111   8.680   9.407 -0.3620 -0.1127  0.6365
34421SOL    HW1 7820   7.052   8.616   9.447 -0.6297 -0.4548 -0.2614
34421SOL    HW2 7821   7.130   8.643   9.320 -0.1753  0.8250  0.2696
34422SOL     OW 7822   0.479   6.537   6.181 -0.5153 -0.5069 -0.0272
34422SOL    HW1 7823   0.483   6.632   6.187  0.3332 -0.4321 -1.4312
34422SOL    HW2 7824   0.439   6.520   6.096  0.8473 -1.4052 -0.5073
34423SOL     OW 7825   1.297   3.625   7.941  0.3151  0.3664 -0.5140
34423SOL    HW1 7826   1.253   3.591   7.863  0.2357 -0.4752 -0.1145
34423SOL    HW2 7827   1.327   3.712   7.916 -1.8330  1.1166 -0.7124
34424SOL     OW 7828  10.421  10.823   2.263 -0.1540 -0.6774  0.2166
34424SOL    HW1 7829  10.367  10.839   2.185  0.6259  0.6288 -0.0960
34424SOL    HW2 7830  10.470  10.744   2.242  0.8756  0.2628 -1.1394
34425SOL     OW 7831   8.516   5.476   9.593 -0.2922 -0.2643  0.1128
34425SOL    HW1 7832   8.536   5.570   9.595 -0.5353 -0.1879  3.1652
34425SOL    HW2 7833   8.569   5.442   9.521 -0.3524  2.2045 -1.2224
34426SOL     OW 7834   4.662  10.069   6.711  0.0636  0.3778 -0.1019
34426SOL    HW1 7835   4.626  10.118   6.784  0.2789  1.9041 -0.9750
34426SOL    HW2 7836   4.708   9.995   6.751 -0.9378  0.4330  1.2029
34427SOL     OW 7837   0.986   5.638   0.595  0.0585 -0.4899 -0.4646
34427SOL    HW1 7838   1.075   5.647   0.560 -0.3170  0.8612 -1.1100
34427SOL    HW2 7839   0.992   5.674   0.684  0.1693 -0.4765 -0.4769
34428SOL     OW 7840   2.326   1.449  10.775 -0.3147 -0.1118 -0.1905
34428SOL    HW1 7841   2.265   1.410  10.837  0.2990  0.3322  0.7140
34428SOL    HW2 7842   2.288   1.534  10.753 -0.4542 -0.2027 -0.3006
34429SOL     OW 7843   7.819   8.763   5.099 -0.2840  0.2866  0.2990
34429SOL    HW1 7844   7.806   8.673   5.069  0.4572 -0.2733  1.5674
34429SOL    HW2 7845   7.800   8.817   5.022 -2.2365 -0.8490 -0.0925
34430SOL     OW 7846   6.635   2.684   0.750 -0.3704  0.1149 -0.1901
34430SOL    HW1 7847   6.654   2.701   0.657  0.0971 -1.5134 -0.4395
34430SOL    HW2 7848   6.657   2.591   0.761 -1.1788  0.0875  1.3681
34431SOL     OW 7849   0.938   0.729   4.911 -0.7874 -0.3043  0.0644
34431SOL    HW1 7850   0.856   0.684   4.892 -0.2666 -0.8426 -0.9759
34431SOL    HW2 7851   1.004   0.679   4.864  0.3483 -0.6987  2.0084
34432SOL     OW 7852   4.953   9.900   5.886  0.3219  0.1934 -0.0167
34432SOL    HW1 7853   5.046   9.923   5.876  0.5158 -0.8279 -0.7325
34432SOL    HW2 7854   4.953   9.805   5.896 -0.7906 -0.1306 -2.4239
34433SOL     OW 7855   3.925   6.025   8.634 -0.0929 -0.1032  0.3705
34433SOL    HW1 7856   3.928   5.947   8.579  2.7978  0.5653 -0.5925
34433SOL    HW2 7857   3.895   6.094   8.575  2.8138  0.5716 -0.4955
34434SOL     OW 7858   6.457   6.626   5.547  0.4881  0.2378 -0.2090
34434SOL    HW1 7859   6.464   6.530   5.542 -0.5289  0.0459  1.2825
34434SOL    HW2 7860   6.430   6.653   5.460 -2.3454 -1.1870  0.1284
34435SOL     OW 7861   3.166   0.722   6.193  0.0764  0.2758  0.6279
34435SOL    HW1 7862   3.077   0.716   6.160  0.4399  0.2767 -0.3965
34435SOL    HW2 7863   3.182   0.816   6.201  0.5304  0.3523 -0.8053
34436SOL     OW 7864   2.173   7.998   7.319 -0.7454 -0.0417 -0.5394
34436SOL    HW1 7865   2.114   7.960   7.384 -0.3296 -0.3831 -0.3496
34436SOL    HW2 7866   2.183   8.089   7.346 -1.0467 -0.0261 -0.4755
34437SOL     OW 7867   4.426   1.336   0.411 -0.3579  0.0944  0.3368
34437SOL    HW1 7868   4.406   1.388   0.489 -0.5572 -0.3460  0.5886
34437SOL    HW2 7869   4.438   1.247   0.445  0.8394  0.1270  0.0282
34438SOL     OW 7870   6.787   0.543   5.842  0.1274 -0.8938  0.1902
34438SOL    HW1 7871   6.755   0.550   5.932  1.7672 -0.8997  0.8019
34438SOL    HW2 7872   6.745   0.615   5.796  0.3029 -0.0755  1.2857
34439SOL     OW 7873   1.567  10.410   3.324 -0.4940 -0.0226  0.1492
34439SOL    HW1 7874   1.530  10.373   3.243  0.1331  0.1415 -0.2220
34439SOL    HW2 7875   1.643  10.460   3.294 -1.5261  1.8802  0.5860
34440SOL     OW 7876   4.345  10.642   1.973  0.3079  0.2575  0.2761
34440SOL    HW1 7877   4.339  10.575   2.041  0.7960 -0.0378  0.0342
34440SOL    HW2 7878   4.372  10.594   1.895  0.9388  0.7800  0.1630
34441SOL     OW 7879   1.503   9.688   4.258  0.1492 -0.0738 -0.2091
34441SOL    HW1 7880   1.455   9.758   4.301 -0.7847 -1.9834  2.0219
34441SOL    HW2 7881   1.590   9.726   4.242 -0.5928  1.8726  0.0477
34442SOL     OW 7882   8.154   2.712   1.086 -0.0508 -0.2225  0.1418
34442SOL    HW1 7883   8.158   2.801   1.052 -1.1742 -0.6640 -1.2222
34442SOL    HW2 7884   8.237   2.673   1.061  1.1548  0.8633  2.1386
34443SOL     OW 7885   1.888   7.602   9.745  0.5936 -0.3547 -0.2845
34443SOL    HW1 7886   1.874   7.693   9.718 -1.6368 -0.5163  0.1626
34443SOL    HW2 7887   1.834   7.591   9.823  0.7549 -2.1063 -0.3782
34444SOL     OW 7888   0.781   8.572   5.066 -0.1191 -0.1628 -0.2123
34444SOL    HW1 7889   0.816   8.496   5.018 -1.5644  0.6456 -2.7650
34444SOL    HW2 7890   0.833   8.646   5.034 -0.9094  0.3552 -0.3403
34445SOL     OW 7891   8.905   8.313   3.828  1.2196  0.4149  0.0567
34445SOL    HW1 7892   8.971   8.323   3.759  0.6634  0.7209 -0.4375
34445SOL    HW2 7893   8.880   8.402   3.851 -0.8741  0.3249 -1.5741
34446SOL     OW 7894   8.095   0.923   1.207  0.4404  0.0162 -0.2394
34446SOL    HW1 7895   8.055   0.846   1.248  0.4700  0.9587  1.6481
34446SOL    HW2 7896   8.024   0.988   1.205  0.3500 -0.0825 -2.0193
34447SOL     OW 7897  10.160   2.978   2.887 -0.2274 -0.1082  0.0125
34447SOL    HW1 7898  10.084   2.951   2.835 -1.4198  0.6951  1.2715
34447SOL    HW2 7899  10.144   2.942   2.974 -0.3296  1.9494  0.9116
34448SOL     OW 7900   0.264   9.719   8.199  0.2897 -0.3902 -0.6485
34448SOL    HW1 7901   0.198   9.781   8.168  0.4401  2.2476  3.5366
34448SOL    HW2 7902   0.345   9.749   8.159 -0.1936 -0.2742 -1.5732
34449SOL     OW 7903   8.503   7.725   7.901 -0.3683 -0.3420  0.1335
34449SOL    HW1 7904   8.536   7.773   7.825 -1.8238 -1.4015 -1.2197
34449SOL    HW2 7905   8.499   7.791   7.971  2.9984  0.1894 -0.0071
34450SOL     OW 7906   2.812   7.667  10.158 -0.8022  0.0762 -0.8226
34450SOL    HW1 7907   2.824   7.602  10.089  0.1492  0.3715 -0.9611
34450SOL    HW2 7908   2.750   7.627  10.219  0.8488 -1.6211 -0.1363
34451SOL     OW 7909   9.254   8.837  11.650 -0.6078  0.7527 -0.2122
34451SOL    HW1 7910   9.234   8.860  11.741 -0.9404  0.2251 -0.1507
34451SOL    HW2 7911   9.212   8.906  11.598 -3.1490 -0.6201 -0.1212
34452SOL     OW 7912   6.301   6.267  10.562  0.4584  0.0922 -0.0554
34452SOL    HW1 7913   6.262   6.336  10.616 -0.4509  0.0963 -0.6938
34452SOL    HW2 7914   6.232   6.202  10.552  1.2081 -0.7806  0.2835
34453SOL     OW 7915   1.113   8.206   8.554 -0.0834 -0.1974 -0.1442
34453SOL    HW1 7916   1.074   8.201   8.642  1.1797 -2.7936  0.3554
34453SOL    HW2 7917   1.193   8.256   8.567 -0.6074  0.6600 -0.1340
34454SOL     OW 7918   3.595   3.133   3.993  0.3699  0.0920 -0.1011
34454SOL    HW1 7919   3.571   3.147   4.085  0.1953  0.5889 -0.2189
34454SOL    HW2 7920   3.606   3.038   3.985 -1.7392 -0.1840 -0.0864
34455SOL     OW 7921   8.029  11.077   8.220 -0.4584 -0.6471 -0.3742
34455SOL    HW1 7922   8.113  11.048   8.256  0.8158  1.1388 -1.7704
34455SOL    HW2 7923   8.021  11.031   8.137 -1.3768 -1.5287  0.1655
34456SOL     OW 7924   9.862   3.136   9.782  0.3889 -0.6550  0.1922
34456SOL    HW1 7925   9.841   3.149   9.874  2.0759  1.5169  0.3550
34456SOL    HW2 7926   9.859   3.224   9.744  1.5036 -1.2476 -1.3983
34457SOL     OW 7927   0.983   4.490   2.552 -0.3466  0.2493  0.2338
34457SOL    HW1 7928   0.912   4.441   2.510  0.2274 -1.1052  0.7798
34457SOL    HW2 7929   0.942   4.569   2.585 -1.5759 -0.4245  0.3817
34458SOL     OW 7930   9.476   4.420   7.451  0.4055  0.2949  0.2581
34458SOL    HW1 7931   9.515   4.505   7.431  0.1294  0.7380  1.5029
34458SOL    HW2 7932   9.470   4.418   7.546  0.1028 -0.9926  0.2309
34459SOL     OW 7933   9.906   9.364   2.994  0.0032  0.2593  0.0222
34459SOL    HW1 7934   9.918   9.327   2.906  1.7726  1.3915 -0.2725
34459SOL    HW2 7935   9.969   9.317   3.049 -0.5717  0.0752  0.5282
34460SOL     OW 7936   3.094   0.448   2.906  0.2488  0.3657  0.6173
34460SOL    HW1 7937   3.059   0.361   2.929 -0.5594  0.4134 -0.3393
34460SOL    HW2 7938   3.189   0.436   2.907  0.1542 -0.7114 -0.0459
34461SOL     OW 7939  11.137   9.118   3.292 -0.3013 -0.3729  0.0644
34461SOL    HW1 7940  11.200   9.060   3.250 -1.9388 -1.9425 -0.3580
34461SOL    HW2 7941  11.079   9.146   3.221 -0.9427 -0.1071  0.6776
34462SOL     OW 7942  11.463  11.701   7.419 -0.2022  0.0186 -0.4930
34462SOL    HW1 7943  11.462  11.613   7.456  2.0671 -0.7560 -2.0717
34462SOL    HW2 7944  11.405  11.696   7.343 -0.3978  0.0261 -0.3461
34463SOL     OW 7945  11.220   6.239   0.556  0.2912 -0.1988  0.1483
34463SOL    HW1 7946  11.225   6.193   0.641 -0.4479  0.7951  0.7480
34463SOL    HW2 7947  11.311   6.263   0.537  0.2046  2.0596  2.0998
34464SOL     OW 7948   3.323   0.150   1.631  0.0202 -0.3510  0.2001
34464SOL    HW1 7949   3.249   0.198   1.669 -0.3774 -0.2847 -0.6496
34464SOL    HW2 7950   3.287   0.106   1.554  0.9285 -0.0692 -0.4028
34465SOL     OW 7951   9.503   9.694   9.283 -0.0072  0.3620 -0.0818
34465SOL    HW1 7952   9.422   9.746   9.281 -0.4563 -0.1933  1.5144
34465SOL    HW2 7953   9.565   9.749   9.331 -0.1256 -0.0927  0.6015
34466SOL     OW 7954   1.420   0.127   7.558 -0.0799 -0.0267 -0.2321
34466SOL    HW1 7955   1.500   0.179   7.562  0.7345 -1.1913  4.2747
34466SOL    HW2 7956   1.356   0.177   7.609 -1.5030 -0.3031 -1.6686
34467SOL     OW 7957   8.983   3.631  11.225  1.0791 -0.0091  0.1321
34467SOL    HW1 7958   8.979   3.571  11.299 -0.3746 -0.6351 -0.4139
34467SOL    HW2 7959   8.900   3.679  11.229 -0.3936 -2.0196 -2.6326
34468SOL     OW 7960   8.624   3.635   4.893  0.0834 -0.1972 -0.0369
34468SOL    HW1 7961   8.572   3.566   4.852 -1.0125  0.1431  0.7584
34468SOL    HW2 7962   8.691   3.655   4.827 -1.1864 -0.1753 -1.3984
34469SOL     OW 7963   2.728   8.539   0.389  0.3249 -0.0924 -0.0477
34469SOL    HW1 7964   2.711   8.508   0.300 -0.0965  0.2519 -0.0886
34469SOL    HW2 7965   2.701   8.630   0.389  0.3636 -0.0775  0.4208
34470SOL     OW 7966   2.376   2.319   6.973 -0.1821  0.0516  0.1637
34470SOL    HW1 7967   2.322   2.240   6.971 -0.1194  0.0189 -0.1891
34470SOL    HW2 7968   2.453   2.296   6.921  0.2911  0.0103  0.8716
34471SOL     OW 7969   3.741  11.512  10.776 -0.6888 -0.6014 -0.5479
34471SOL    HW1 7970   3.774  11.427  10.747 -0.9790 -1.1103  0.5756
34471SOL    HW2 7971   3.751  11.511  10.871 -0.0774  0.8855 -0.5604
34472SOL     OW 7972   2.780  11.772   4.244  0.1151 -0.4597  0.2636
34472SOL    HW1 7973   2.723  11.705   4.281 -0.6169 -0.0216 -0.0590
34472SOL    HW2 7974   2.724  11.848   4.232  1.0591  0.4359  1.2018
34473SOL     OW 7975   8.597   5.060   2.179 -0.0737  0.5314  0.0590
34473SOL    HW1 7976   8.692   5.065   2.188 -0.0475 -0.6620  0.6893
34473SOL    HW2 7977   8.583   5.005   2.102 -0.2694  1.1088 -0.3274
34474SOL     OW 7978  10.517   7.707   0.698  0.2089  0.2689  0.2338
34474SOL    HW1 7979  10.425   7.701   0.724  0.1428 -0.6327 -0.1651
34474SOL    HW2 7980  10.566   7.673   0.773  0.0046 -2.6100 -0.7930
34475SOL     OW 7981   7.834   9.823   3.038  0.0856 -0.0397 -0.5122
34475SOL    HW1 7982   7.759   9.855   3.089  0.4924  0.1253 -0.0011
34475SOL    HW2 7983   7.904   9.887   3.055  0.1788  0.1215 -1.4389
34476SOL     OW 7984   9.038   4.843   4.213 -0.9145 -0.1963 -0.0960
34476SOL    HW1 7985   9.110   4.879   4.161 -1.0905  1.2135  0.6120
34476SOL    HW2 7986   8.963   4.897   4.191 -2.2826 -2.7143 -2.1496
34477SOL     OW 7987  10.806   9.775   2.825 -0.0369  0.4391 -0.2824
34477SOL    HW1 7988  10.786   9.786   2.918 -2.2574 -0.6379 -0.5772
34477SOL    HW2 7989  10.846   9.688   2.819  3.2690  1.7875  0.0202
34478SOL     OW 7990   0.239   4.298   7.687 -0.1844  0.2096 -0.1806
34478SOL    HW1 7991   0.309   4.238   7.710  0.2072  0.9647  0.6468
34478SOL    HW2 7992   0.260   4.328   7.599  0.0407 -0.2594 -0.2855
34479SOL     OW 7993   1.007  11.521   4.775  0.2697 -0.2792  0.3969
34479SOL    HW1 7994   0.917  11.523   4.810 -0.4613  2.1146 -1.3099
34479SOL    HW2 7995   1.015  11.434   4.736 -1.9210 -0.0423 -0.7621
34480SOL     OW 7996   4.483   1.840   3.616  0.5428 -0.0286 -0.7742
34480SOL    HW1 7997   4.410   1.815   3.559 -0.9686 -1.2506  1.5460
34480SOL    HW2 7998   4.454   1.921   3.658  0.3675 -0.6476  0.3354
34481SOL     OW 7999   8.739   1.233  10.138 -0.7530 -0.6549  0.2798
34481SOL    HW1 8000   8.831   1.227  10.166 -0.7221 -0.6308  0.1843
34481SOL    HW2 8001   8.741   1.289  10.061 -0.7333 -1.3447 -0.2299
34482SOL     OW 8002  11.980   3.886  12.098  0.8977  0.7199 -0.5229
34482SOL    HW1 8003  11.955   3.974  12.127 -1.1281  0.2094 -0.5555
34482SOL    HW2 8004  11.989   3.894  12.003  1.4164  1.0301 -0.4527
34483SOL     OW 8005   9.753   7.442   2.894  0.2707 -0.0219 -0.1157
34483SOL    HW1 8006   9.741   7.529   2.856  0.1979  0.3818  0.8233
34483SOL    HW2 8007   9.842   7.443   2.929  0.4566 -0.5073 -0.5527
34484SOL     OW 8008   1.800  11.579   4.782 -0.1728  0.2546  0.0143
34484SOL    HW1 8009   1.835  11.524   4.712  0.3932  0.5761  0.0357
34484SOL    HW2 8010   1.843  11.664   4.769 -0.8705  0.6349  0.1039
34485SOL     OW 8011   7.862   2.045   4.501 -0.0722 -0.3384  0.2157
34485SOL    HW1 8012   7.830   2.015   4.416  0.1378 -2.6264  0.8761
34485SOL    HW2 8013   7.956   2.061   4.487 -0.2928  0.5814 -0.2753
34486SOL     OW 8014   9.022   0.767   4.295  0.4570 -0.3680 -0.4177
34486SOL    HW1 8015   9.068   0.843   4.332 -1.4220  0.5035  0.2526
34486SOL    HW2 8016   8.987   0.721   4.371 -3.8579  1.7056 -0.8655
34487SOL     OW 8017   7.910   7.163  10.543  0.1409  0.2586 -0.0605
34487SOL    HW1 8018   7.967   7.221  10.593  2.1486  0.7074 -2.6527
34487SOL    HW2 8019   7.959   7.081  10.537 -0.2560  0.0648 -0.8431
34488SOL     OW 8020   8.233  10.173  11.790 -0.1711 -0.4228  0.3610
34488SOL    HW1 8021   8.295  10.245  11.808  1.5684 -1.4699 -1.1279
34488SOL    HW2 8022   8.170  10.210  11.728  1.5100 -0.4734 -1.4836
34489SOL     OW 8023   8.750   0.303   5.773 -0.1485  0.1507  0.4510
34489SOL    HW1 8024   8.841   0.287   5.749 -0.2069  0.1827  0.2026
34489SOL    HW2 8025   8.742   0.399   5.774 -0.9264  0.2429 -2.5282
34490SOL     OW 8026   4.616   9.958   7.285 -0.0270 -0.1910  0.0929
34490SOL    HW1 8027   4.537   9.915   7.318 -0.0465  0.4215  0.8793
34490SOL    HW2 8028   4.648  10.009   7.359 -0.7569  2.2392 -1.1658
34491SOL     OW 8029   9.155  11.557   6.648  0.1988  0.0874  0.0973
34491SOL    HW1 8030   9.182  11.648   6.639 -0.2095  0.2501  0.4830
34491SOL    HW2 8031   9.159  11.522   6.559  1.1038  0.2663  0.0636
34492SOL     OW 8032  11.237  10.773   3.451  0.0266 -0.0574 -0.1081
34492SOL    HW1 8033  11.256  10.712   3.522 -1.6548 -1.1512 -0.5411
34492SOL    HW2 8034  11.169  10.830   3.487  1.0429  1.1095  0.0285
34493SOL     OW 8035   9.716   7.492   0.104  0.3457 -0.1940 -0.0983
34493SOL    HW1 8036   9.736   7.435   0.030 -0.9657 -1.2443  0.3262
34493SOL    HW2 8037   9.714   7.434   0.179 -2.2981  0.1295  0.1678
34494SOL     OW 8038   9.463   7.046   0.670 -0.2506  0.4014 -0.1171
34494SOL    HW1 8039   9.371   7.023   0.657 -0.3662  0.5726  0.3535
34494SOL    HW2 8040   9.481   7.022   0.762  1.2057 -3.0629 -1.1300
34495SOL     OW 8041   6.321   8.821   9.937 -0.0324  0.7602  0.0322
34495SOL    HW1 8042   6.359   8.903   9.969  2.3270 -0.4432  0.5543
34495SOL    HW2 8043   6.233   8.845   9.908  0.7095  3.5638 -0.2370
34496SOL     OW 8044  11.005   6.909  10.213  0.4782  0.0270 -0.2622
34496SOL    HW1 8045  11.014   6.914  10.308  2.6200 -2.8918 -0.1589
34496SOL    HW2 8046  10.967   6.822  10.197 -0.3044  0.6406 -2.1099
34497SOL     OW 8047   9.498   7.417  11.987  0.0693 -0.4873  0.2029
34497SOL    HW1 8048   9.590   7.426  11.963 -0.1768  0.5534 -0.3912
34497SOL    HW2 8049   9.455   7.382  11.909 -0.1927 -0.1180  0.1810
34498SOL     OW 8050   9.604   6.852  11.343  0.9251 -0.5550 -0.6694
34498SOL    HW1 8051   9.651   6.842  11.426 -0.5840 -2.1458  0.0512
34498SOL    HW2 8052   9.521   6.807  11.357  0.1563  0.1478 -2.6833
34499SOL     OW 8053   6.670   4.572   6.881  0.5610 -0.2749 -0.3170
34499SOL    HW1 8054   6.679   4.664   6.906 -2.1915 -0.6601  2.6631
34499SOL    HW2 8055   6.576   4.562   6.863  0.9533 -2.3649 -1.4547
34500SOL     OW 8056   0.685   0.331   4.029 -0.4090  0.0618 -0.0536
34500SOL    HW1 8057   0.685   0.417   3.987  0.4466 -0.0755 -0.3500
34500SOL    HW2 8058   0.634   0.276   3.969 -1.2760  0.4360  0.3211
34501SOL     OW 8059   3.494  10.565   6.322  0.1646 -0.5518  0.0739
34501SOL    HW1 8060   3.425  10.505   6.293 -1.8146  1.5198  0.1933
34501SOL    HW2 8061   3.491  10.561   6.418 -1.8698  1.6220  0.1760
34502SOL     OW 8062   3.311  11.639  11.568  0.5023  0.3179 -0.8040
34502SOL    HW1 8063   3.344  11.708  11.510  0.6870  1.3270  0.4645
34502SOL    HW2 8064   3.364  11.647  11.647 -0.3223 -0.4692 -0.1567
34503SOL     OW 8065   0.497   3.910  12.063  0.1978  0.0727 -0.0438
34503SOL    HW1 8066   0.491   3.876  12.152 -0.9826 -0.1547 -0.1940
34503SOL    HW2 8067   0.411   3.948  12.046  0.1736 -0.4957 -1.3258
34504SOL     OW 8068   0.401   8.568   5.679  0.4107 -0.8862  0.4944
34504SOL    HW1 8069   0.429   8.491   5.630  1.3036 -0.5705  0.4833
34504SOL    HW2 8070   0.307   8.556   5.692  0.1701 -1.0459 -1.1552
34505SOL     OW 8071   4.100   2.516   0.394 -0.3159 -0.4025  0.5153
34505SOL    HW1 8072   4.011   2.548   0.377 -0.1043  0.4763  0.9779
34505SOL    HW2 8073   4.112   2.529   0.488  0.1863 -0.8258  0.5127
34506SOL     OW 8074  11.434  10.604   3.185  0.4924 -0.0922 -0.5839
34506SOL    HW1 8075  11.345  10.617   3.153 -0.0134 -0.2646  0.7011
34506SOL    HW2 8076  11.426  10.539   3.255  1.3275  1.2592  0.8345
34507SOL     OW 8077  11.074  10.071  10.596  0.2815 -0.0884  0.0020
34507SOL    HW1 8078  10.988  10.114  10.590  0.3348  0.2825  1.5210
34507SOL    HW2 8079  11.088  10.033  10.509 -2.7696 -2.6891  0.4455
34508SOL     OW 8080  10.259   2.192  12.126 -0.3063  0.1968  0.4612
34508SOL    HW1 8081  10.229   2.121  12.183  0.0343  0.5864  1.1529
34508SOL    HW2 8082  10.234   2.166  12.038 -0.7501 -0.4788  0.7838
34509SOL     OW 8083   2.761   4.821   7.227 -0.2823 -0.3468  0.2983
34509SOL    HW1 8084   2.757   4.859   7.140  0.4258 -0.3532  0.2526
34509SOL    HW2 8085   2.685   4.856   7.273 -0.6433 -0.3199 -0.3065
34510SOL     OW 8086   1.519   8.752   0.204  0.1521 -0.5719 -0.2602
34510SOL    HW1 8087   1.544   8.761   0.112 -0.6594 -2.2119 -0.6954
34510SOL    HW2 8088   1.477   8.665   0.208 -2.4759  0.6443  1.0442
34511SOL     OW 8089   1.695  11.378   0.805  0.4163 -0.2815  0.2219
34511SOL    HW1 8090   1.686  11.473   0.799  0.6308 -0.2324  0.6808
34511SOL    HW2 8091   1.619  11.344   0.757  0.4198  0.1165 -0.0731
34512SOL     OW 8092   3.687   9.551   8.153 -0.5972  0.0174  0.0654
34512SOL    HW1 8093   3.621   9.496   8.197  0.0721 -2.7548 -2.0695
34512SOL    HW2 8094   3.635   9.612   8.100 -1.4316 -0.0886  0.7309
34513SOL     OW 8095   0.870   8.140   1.901  0.0660  0.2159 -0.2437
34513SOL    HW1 8096   0.965   8.137   1.911  0.1844  0.0372 -1.3046
34513SOL    HW2 8097   0.847   8.231   1.920  0.5100  0.3809 -0.4759
34514SOL     OW 8098  10.365  10.209   4.880  0.1034 -0.0295  0.1398
34514SOL    HW1 8099  10.270  10.205   4.891 -0.0129 -0.4553 -0.8823
34514SOL    HW2 8100  10.381  10.175   4.792  0.9861  2.3297 -0.6844
34515SOL     OW 8101   5.190   1.151  10.952  0.2451 -0.2287 -0.2492
34515SOL    HW1 8102   5.132   1.225  10.935 -0.3907 -0.6088  0.1828
34515SOL    HW2 8103   5.272   1.190  10.980 -0.7941  0.3495  2.3172
34516SOL     OW 8104  11.535   3.397   8.288  0.8010  0.3691  0.6580
34516SOL    HW1 8105  11.512   3.465   8.225  2.1020  0.5030  0.2969
34516SOL    HW2 8106  11.504   3.431   8.372  0.5457  0.9584  0.3312
34517SOL     OW 8107   0.548   1.842   6.395  0.2078 -0.2757  0.0425
34517SOL    HW1 8108   0.452   1.836   6.398  0.2157 -1.7433 -1.2801
34517SOL    HW2 8109   0.568   1.928   6.431 -1.7202  0.7669 -1.2122
34518SOL     OW 8110   5.382   2.296   6.911 -0.6410  0.5152 -0.4158
34518SOL    HW1 8111   5.309   2.347   6.876 -0.7276  0.3346 -0.4972
34518SOL    HW2 8112   5.378   2.310   7.005 -1.1585  0.0047 -0.3595
34519SOL     OW 8113   8.545  10.322   8.228 -0.2083  0.0621  0.5248
34519SOL    HW1 8114   8.504  10.349   8.145 -1.6396 -0.5539  0.9870
34519SOL    HW2 8115   8.471  10.293   8.282  0.8903 -1.3639  1.3211
34520SOL     OW 8116  10.908   8.526   4.110 -0.2910 -0.5720  0.5922
34520SOL    HW1 8117  10.967   8.538   4.185  1.0545  0.2287 -0.5284
34520SOL    HW2 8118  10.881   8.434   4.115  0.2606 -0.6977  1.6941
34521SOL     OW 8119   7.866   6.304   8.128  0.9135 -0.3926 -0.2453
34521SOL    HW1 8120   7.872   6.208   8.129  0.8757 -0.4042 -0.7373
34521SOL    HW2 8121   7.786   6.322   8.078  0.5659 -0.1138  0.4015
34522SOL     OW 8122   9.981   4.151  10.477  0.1862 -0.2937 -0.3751
34522SOL    HW1 8123  10.046   4.116  10.415 -1.6654  0.2882 -2.8197
34522SOL    HW2 8124   9.972   4.243  10.453 -0.8387 -0.1357  0.5451
34523SOL     OW 8125   0.726   8.859  10.657  0.2867 -0.5030  0.1971
34523SOL    HW1 8126   0.786   8.900  10.594  0.5730 -0.1207  0.7060
34523SOL    HW2 8127   0.712   8.771  10.623 -0.2002 -0.0513 -0.8390
34524SOL     OW 8128   1.951   9.400   7.710 -0.8955  0.8820 -0.4200
34524SOL    HW1 8129   1.940   9.491   7.682 -0.0450  0.5477 -1.9972
34524SOL    HW2 8130   2.044   9.382   7.694 -0.7159  0.1690  1.2846
34525SOL     OW 8131   1.288   0.834   8.854  0.1960 -0.0253 -0.8424
34525SOL    HW1 8132   1.219   0.772   8.830 -0.1396  0.4514 -1.1138
34525SOL    HW2 8133   1.242   0.913   8.879  0.5250 -0.5066  1.4890
34526SOL     OW 8134   1.415  11.702   7.904  0.6365  0.1889 -0.5834
34526SOL    HW1 8135   1.331  11.744   7.884  0.6365 -0.0476 -1.0985
34526SOL    HW2 8136   1.459  11.695   7.820  2.0856  2.1989 -0.0778
34527SOL     OW 8137   4.896   3.639   1.041  0.4946 -0.2703  0.2556
34527SOL    HW1 8138   4.811   3.682   1.037  0.0534 -1.1039  0.5319
34527SOL    HW2 8139   4.942   3.682   1.113 -0.2640 -0.8295  1.0875
34528SOL     OW 8140   3.983   9.838   1.768  0.5614  0.0759  0.3207
34528SOL    HW1 8141   3.988   9.933   1.774  0.5098  0.0821  0.2746
34528SOL    HW2 8142   4.073   9.809   1.753  0.6733  0.0708  0.9864
34529SOL     OW 8143   3.549   3.421   0.092 -0.3528  0.0531 -0.3409
34529SOL    HW1 8144   3.564   3.515   0.097 -0.0248  0.0101 -0.5051
34529SOL    HW2 8145   3.549   3.401  -0.002 -0.5642 -0.0874 -0.3118
34530SOL     OW 8146   3.041   5.371   7.926  0.2325  0.4118 -0.3152
34530SOL    HW1 8147   3.111   5.310   7.906  1.2057  1.8694 -1.6115
34530SOL    HW2 8148   3.037   5.373   8.022  1.7071  0.0166 -0.2286
34531SOL     OW 8149   3.503   7.791   7.154 -0.0627  0.0012 -0.4086
34531SOL    HW1 8150   3.408   7.794   7.162  0.0261  0.0948  0.9252
34531SOL    HW2 8151   3.532   7.743   7.231  1.0849  1.7568  0.3313
34532SOL     OW 8152  12.015   8.339   6.379 -0.6437  0.2495 -0.3424
34532SOL    HW1 8153  11.924   8.309   6.388 -0.2378 -0.6084  1.2740
34532SOL    HW2 8154  12.061   8.265   6.341 -0.0809 -0.4735  1.5974
34533SOL     OW 8155   7.757  11.534   6.817  0.1528  0.0755  0.0473
34533SOL    HW1 8156   7.693  11.562   6.883 -0.9109 -0.8360 -0.5513
34533SOL    HW2 8157   7.772  11.442   6.836  0.8197  0.1325 -0.2028
34534SOL     OW 8158  11.948   7.177   9.464  0.7336 -0.1490 -0.1530
34534SOL    HW1 8159  12.006   7.165   9.389  1.9964  1.2395  0.5570
34534SOL    HW2 8160  11.864   7.200   9.426  0.8474 -1.3251 -1.1783
34535SOL     OW 8161   8.129   1.906  11.249 -0.2127 -0.1765 -0.2599
34535SOL    HW1 8162   8.129   1.963  11.172 -0.4268 -1.3201 -1.1385
34535SOL    HW2 8163   8.215   1.863  11.246  0.3479  0.8114  0.9610
34536SOL     OW 8164   8.125   2.274   8.216 -0.2019  0.4604 -0.1516
34536SOL    HW1 8165   8.120   2.234   8.129  0.3688  0.3849 -0.1544
34536SOL    HW2 8166   8.170   2.209   8.270 -1.0781  0.2651  0.3469
34537SOL     OW 8167   9.763   1.130   4.580 -0.5224  0.3105  0.0241
34537SOL    HW1 8168   9.758   1.171   4.493  1.3506  0.2151 -0.1778
34537SOL    HW2 8169   9.736   1.200   4.640 -2.7250  0.1112 -0.6384
34538SOL     OW 8170   7.520  10.437  10.510 -0.7507  0.2343  0.2839
34538SOL    HW1 8171   7.523  10.357  10.564  0.9319  0.2601  0.2930
34538SOL    HW2 8172   7.604  10.437  10.464 -1.3689  1.2220 -0.8911
34539SOL     OW 8173   7.308   3.272   4.803  0.5008 -0.4072 -0.2118
34539SOL    HW1 8174   7.340   3.298   4.889 -0.4220 -0.5457  0.1842
34539SOL    HW2 8175   7.292   3.355   4.758 -0.3390 -0.2954  0.2628
34540SOL     OW 8176   8.220   8.101  11.668  0.3359 -0.4064 -0.4105
34540SOL    HW1 8177   8.160   8.035  11.702  0.4259 -0.1429  0.2765
34540SOL    HW2 8178   8.238   8.158  11.743 -0.4990  0.9775 -1.1972
34541SOL     OW 8179   9.064  10.959   5.314 -0.5109 -0.2810 -0.3753
34541SOL    HW1 8180   8.987  10.994   5.269  0.0856 -1.4753 -2.4171
34541SOL    HW2 8181   9.059  10.864   5.302 -0.5595 -0.7299  2.5493
34542SOL     OW 8182   3.682   9.177  11.042 -0.1593 -0.0784 -0.5529
34542SOL    HW1 8183   3.640   9.189  11.127  1.3761 -1.1988  0.4089
34542SOL    HW2 8184   3.633   9.106  11.000 -0.2705 -0.2380 -0.1551
34543SOL     OW 8185   5.198   9.270   8.068 -0.0605 -0.1806  0.0759
34543SOL    HW1 8186   5.153   9.352   8.047  2.2182  0.7004 -1.6625
34543SOL    HW2 8187   5.288   9.295   8.086 -0.0028 -1.9625  2.8949
34544SOL     OW 8188   3.456   9.379  10.356 -0.2036 -0.0158 -0.2998
34544SOL    HW1 8189   3.481   9.319  10.426  0.1938  2.0036  1.4279
34544SOL    HW2 8190   3.510   9.353  10.282  0.4742 -1.3178  0.6008
34545SOL     OW 8191   6.645   3.387   7.222 -0.5090  0.0892 -0.1348
34545SOL    HW1 8192   6.653   3.482   7.234 -0.7964  0.0796  0.1483
34545SOL    HW2 8193   6.721   3.350   7.266  0.5156  0.2814 -1.6767
34546SOL     OW 8194   6.353   3.332   6.576 -0.5829  0.0633 -0.2053
34546SOL    HW1 8195   6.333   3.239   6.590 -2.4814  0.5065  0.3182
34546SOL    HW2 8196   6.447   3.339   6.592 -0.3391 -1.8282 -0.6205
34547SOL     OW 8197   7.624  11.560   0.526  0.1031  0.2587 -0.2089
34547SOL    HW1 8198   7.558  11.495   0.549 -1.3923  1.7424 -0.0814
34547SOL    HW2 8199   7.703  11.509   0.509 -0.1795 -1.3792  2.7404
34548SOL     OW 8200   4.132   0.071   8.968 -0.3412 -0.3665 -0.1393
34548SOL    HW1 8201   4.076   0.072   9.045  0.5335  1.0911  0.5220
34548SOL    HW2 8202   4.212   0.028   8.997 -0.8563 -1.9403 -0.9281
34549SOL     OW 8203   4.146   8.391   3.782 -0.1910  0.4511 -0.2440
34549SOL    HW1 8204   4.162   8.320   3.720 -1.9002 -1.9451  1.8347
34549SOL    HW2 8205   4.148   8.348   3.868 -0.2943  3.1494  1.2020
34550SOL     OW 8206   1.112   2.589   8.468  0.1283  1.1194  0.3576
34550SOL    HW1 8207   1.020   2.565   8.473 -0.0103  0.6606 -2.7086
34550SOL    HW2 8208   1.122   2.659   8.533 -2.2393  0.8717  1.0717
34551SOL     OW 8209   9.382   0.396   3.730  0.0649 -0.3030 -0.5432
34551SOL    HW1 8210   9.332   0.317   3.751  1.0407 -1.0112 -0.8110
34551SOL    HW2 8211   9.318   0.454   3.687 -0.7780 -0.7423  0.0776
34552SOL     OW 8212  10.955  10.852   2.219 -0.1371  0.0738  0.2131
34552SOL    HW1 8213  10.965  10.942   2.252 -0.7120  0.5998 -0.9472
34552SOL    HW2 8214  11.044  10.824   2.197  0.1503  0.0136  1.4233
34553SOL     OW 8215   8.795   9.831   3.324 -0.0977 -0.2867  0.3266
34553SOL    HW1 8216   8.881   9.788   3.318  0.3344  0.5652  0.1975
34553SOL    HW2 8217   8.814   9.924   3.309 -1.0147 -0.0561  0.5403
34554SOL     OW 8218   1.881   8.870   1.736 -0.2085  0.0616 -0.0623
34554SOL    HW1 8219   1.904   8.921   1.814 -0.6242  1.1182 -0.6043
34554SOL    HW2 8220   1.837   8.793   1.770 -0.1187  0.3682  0.7699
34555SOL     OW 8221   3.289   9.393   3.165 -0.3555 -0.2867 -0.3981
34555SOL    HW1 8222   3.201   9.399   3.202 -0.7481 -1.5115 -1.0794
34555SOL    HW2 8223   3.347   9.412   3.239 -1.1607 -0.8077  0.3853
34556SOL     OW 8224   6.441   8.905   2.602  0.0348 -0.6645 -0.2861
34556SOL    HW1 8225   6.390   8.958   2.663  0.1521  1.4227 -1.8711
34556SOL    HW2 8226   6.376   8.867   2.543 -0.0499 -2.4057  0.8558
34557SOL     OW 8227   9.078   0.778   1.350 -0.2789  0.2244 -0.7913
34557SOL    HW1 8228   9.133   0.703   1.373  1.4346  1.5770 -0.2465
34557SOL    HW2 8229   9.040   0.756   1.265 -0.8363 -1.7688 -0.0694
34558SOL     OW 8230   2.720   9.354   9.294 -0.0893 -0.0304  0.2261
34558SOL    HW1 8231   2.796   9.319   9.341 -1.4139  0.7170  3.1896
34558SOL    HW2 8232   2.750   9.436   9.256  1.1927 -0.9465 -0.8317
34559SOL     OW 8233   7.603   5.339   3.549  0.6768 -0.0791 -0.3564
34559SOL    HW1 8234   7.616   5.427   3.514 -0.1722 -0.0476 -0.6364
34559SOL    HW2 8235   7.664   5.284   3.501  0.7266  0.2513 -0.6778
34560SOL     OW 8236   7.554  12.101   5.366  0.1033  0.1881 -0.0385
34560SOL    HW1 8237   7.508  12.184   5.367  0.6074  0.4665  0.3425
34560SOL    HW2 8238   7.486  12.036   5.348 -0.3207  0.6596 -0.1625
34561SOL     OW 8239   9.284   1.310   3.564  0.1597  0.6718  0.0776
34561SOL    HW1 8240   9.221   1.270   3.623  0.0296  2.0747  0.9252
34561SOL    HW2 8241   9.360   1.253   3.568 -0.4678 -0.1670  0.2742
34562SOL     OW 8242   5.797   9.236   6.205 -0.3348  0.2671 -0.2725
34562SOL    HW1 8243   5.727   9.296   6.231 -0.5448 -0.7380  1.6034
34562SOL    HW2 8244   5.783   9.158   6.258  0.1719 -1.3289 -2.3511
34563SOL     OW 8245   6.217   2.331   5.348  0.0349  0.1360 -0.6799
34563SOL    HW1 8246   6.209   2.320   5.442  0.0414  0.6889 -0.6086
34563SOL    HW2 8247   6.152   2.399   5.326  1.3076  1.3519 -0.7885
34564SOL     OW 8248   8.306   0.379   4.282 -0.0535  0.1550 -0.4115
34564SOL    HW1 8249   8.301   0.353   4.374 -0.6914  0.8613 -0.2334
34564SOL    HW2 8250   8.324   0.298   4.235 -0.6844 -0.3788  0.2456
34565SOL     OW 8251   6.716   3.806   6.711  0.1809  0.4591 -0.0884
34565SOL    HW1 8252   6.773   3.735   6.682  0.1625  0.2805  0.3004
34565SOL    HW2 8253   6.639   3.799   6.655 -0.1241 -0.2698  0.4041
34566SOL     OW 8254  11.993   5.103   7.276  0.7751  0.4347  0.5382
34566SOL    HW1 8255  11.948   5.031   7.231  0.7539 -0.3487  1.7827
34566SOL    HW2 8256  12.072   5.118   7.223 -1.1876  2.3480 -2.1311
34567SOL     OW 8257   4.693  10.097  11.471 -0.4760  0.1600  0.2515
34567SOL    HW1 8258   4.734  10.182  11.487 -0.7549  0.1895  0.8606
34567SOL    HW2 8259   4.601  10.118  11.455 -0.1796  0.1448 -1.6785
34568SOL     OW 8260   3.962   3.012   7.209 -0.1948 -0.2574 -0.0479
34568SOL    HW1 8261   3.981   3.104   7.192  1.2947 -0.2995  1.2305
34568SOL    HW2 8262   4.047   2.971   7.222 -0.8718 -1.6818  0.1021
34569SOL     OW 8263   5.512   7.706   7.436 -0.2432 -0.0853 -0.5454
34569SOL    HW1 8264   5.488   7.781   7.382  1.0080  0.6522 -0.1126
34569SOL    HW2 8265   5.527   7.742   7.523 -0.7044 -1.0240 -0.0542
34570SOL     OW 8266   8.171  12.126   2.921  0.2088  0.0901  0.1643
34570SOL    HW1 8267   8.106  12.186   2.884 -2.7377 -2.4300  0.7647
34570SOL    HW2 8268   8.197  12.167   3.003 -0.8009  1.1306 -0.0028
34571SOL     OW 8269   3.611   4.656   1.221 -0.0655 -0.6735 -0.2505
34571SOL    HW1 8270   3.529   4.612   1.202 -0.0270 -2.2765  2.7623
34571SOL    HW2 8271   3.644   4.614   1.300  0.5422  3.9499  2.3472
34572SOL     OW 8272   6.283   8.519   1.479 -0.1408 -0.1476 -0.0669
34572SOL    HW1 8273   6.287   8.544   1.571  0.1994 -0.7841  0.0952
34572SOL    HW2 8274   6.286   8.424   1.480  2.2753 -0.1478 -0.8380
34573SOL     OW 8275   4.946   9.537   5.314 -0.0402 -0.3777  0.1481
34573SOL    HW1 8276   5.011   9.494   5.259  0.2180 -0.0686  0.2062
34573SOL    HW2 8277   4.862   9.502   5.284  0.0111  0.5213 -1.1298
34574SOL     OW 8278   4.433  10.933   5.768 -0.5243  0.5526 -0.1291
34574SOL    HW1 8279   4.410  11.014   5.724 -2.3071 -0.8080 -1.8702
34574SOL    HW2 8280   4.505  10.897   5.717 -1.4212 -0.1578 -0.9381
34575SOL     OW 8281   5.462   9.269  11.286  0.0738  0.1108 -0.5092
34575SOL    HW1 8282   5.533   9.331  11.267 -0.2327 -0.0206 -2.2763
34575SOL    HW2 8283   5.384   9.310  11.248  0.0400 -1.7395 -2.6703
34576SOL     OW 8284   9.722   2.808   0.166  0.1848  1.0633 -0.0999
34576SOL    HW1 8285   9.807   2.787   0.204  0.8961  2.0260 -1.0739
34576SOL    HW2 8286   9.659   2.779   0.231  1.1048 -2.0767 -0.4556
34577SOL     OW 8287   6.688  11.860   6.187  0.1387 -0.7166 -0.3096
34577SOL    HW1 8288   6.619  11.896   6.243 -0.0275  0.3666 -1.1873
34577SOL    HW2 8289   6.747  11.817   6.248  0.0276  0.5466  0.7392
34578SOL     OW 8290   9.733  11.726   8.705  0.2250 -0.3865  0.2446
34578SOL    HW1 8291   9.671  11.790   8.669  1.1338  0.5954  0.3934
34578SOL    HW2 8292   9.677  11.658   8.742 -0.7704  0.3895  0.2227
34579SOL     OW 8293   2.104   0.249   9.323 -0.0909 -0.9924 -0.3121
34579SOL    HW1 8294   2.041   0.180   9.344 -0.8676 -0.4131 -0.7018
34579SOL    HW2 8295   2.134   0.280   9.408 -1.6828 -0.0588 -0.0589
34580SOL     OW 8296   3.082   9.199   5.374  0.1638  0.4116  0.1977
34580SOL    HW1 8297   3.120   9.113   5.391  1.2702  1.2826  2.7435
34580SOL    HW2 8298   2.999   9.199   5.422 -0.2487  0.4905 -0.5049
34581SOL     OW 8299   1.552  10.160   0.489 -0.0222  0.6932  0.2749
34581SOL    HW1 8300   1.641  10.185   0.512  0.5604  0.9425 -2.0001
34581SOL    HW2 8301   1.562  10.089   0.425 -1.4750  0.2514  0.4901
34582SOL     OW 8302  10.770   0.863   6.574  0.5046 -0.1010  0.0809
34582SOL    HW1 8303  10.769   0.832   6.483 -0.2953 -0.2557  0.1418
34582SOL    HW2 8304  10.817   0.795   6.622 -1.1033 -1.1672  0.1840
34583SOL     OW 8305   3.341   8.136   8.024 -0.5210 -0.5330 -0.6238
34583SOL    HW1 8306   3.322   8.046   7.996  0.5995 -1.0171  0.1019
34583SOL    HW2 8307   3.341   8.132   8.119 -1.4364  0.4702 -0.5587
34584SOL     OW 8308   6.666   3.426   8.284  0.0211 -0.4729  0.0721
34584SOL    HW1 8309   6.626   3.397   8.201 -0.0562  1.4938 -0.6246
34584SOL    HW2 8310   6.599   3.407   8.350 -0.9378  0.1789 -0.6815
34585SOL     OW 8311   7.182   0.607   1.157 -0.1477  0.6817  0.3649
34585SOL    HW1 8312   7.158   0.657   1.235  0.5536 -0.1427  1.1325
34585SOL    HW2 8313   7.182   0.671   1.087 -0.0191  1.6097  1.1888
34586SOL     OW 8314   5.510   6.086   9.878  0.0049 -0.4167 -0.8249
34586SOL    HW1 8315   5.515   6.124   9.965 -0.2851  0.4039 -1.1573
34586SOL    HW2 8316   5.539   6.156   9.819  1.6258 -1.4209 -1.2805
34587SOL     OW 8317   1.227  10.259   0.833  0.1306  0.0723  0.0060
34587SOL    HW1 8318   1.316  10.285   0.857  1.3729 -1.3355 -2.6580
34587SOL    HW2 8319   1.172  10.327   0.871  1.9537 -0.4835  4.2404
34588SOL     OW 8320  11.014   4.926   2.709  0.0036 -0.4279 -0.0661
34588SOL    HW1 8321  11.071   4.915   2.633 -1.1093 -0.9881 -0.8511
34588SOL    HW2 8322  11.007   4.839   2.747 -0.5858 -0.4287 -0.1704
34589SOL     OW 8323  10.907   5.037   5.450 -0.4147 -0.7004 -0.1542
34589SOL    HW1 8324  10.988   5.033   5.401 -0.0291 -0.6694  0.4681
34589SOL    HW2 8325  10.932   5.016   5.540 -1.3155 -2.0462 -0.1950
34590SOL     OW 8326   1.038   0.697   2.023 -0.7924 -0.4206  0.3778
34590SOL    HW1 8327   0.991   0.778   2.046 -1.8262 -0.9660  0.2098
34590SOL    HW2 8328   1.096   0.682   2.098 -0.8434  0.2873  0.5691
34591SOL     OW 8329  10.559   2.159   3.933  0.1732 -0.8358  0.2294
34591SOL    HW1 8330  10.546   2.135   4.025 -2.1012  0.0327  0.1901
34591SOL    HW2 8331  10.515   2.090   3.884  1.4830 -1.3625 -0.2595
34592SOL     OW 8332   3.556  11.253   9.316 -0.3449  0.1575 -0.2448
34592SOL    HW1 8333   3.524  11.307   9.388 -0.3486 -1.3256  0.9228
34592SOL    HW2 8334   3.480  11.241   9.259 -0.8985 -0.2547  0.5556
34593SOL     OW 8335   8.172   5.006   5.720  0.8434 -0.3571  0.1002
34593SOL    HW1 8336   8.183   5.031   5.628 -1.2916 -0.6190 -0.2830
34593SOL    HW2 8337   8.168   4.911   5.719  0.1164 -0.3377  0.3570
34594SOL     OW 8338   4.687   1.657   3.690 -0.2071 -0.1803 -0.4328
34594SOL    HW1 8339   4.619   1.723   3.672 -1.2328 -0.9804  0.3631
34594SOL    HW2 8340   4.645   1.573   3.671 -0.6606 -0.9562  3.1864
34595SOL     OW 8341  11.012  10.482   1.740 -0.0613 -0.5660  0.3799
34595SOL    HW1 8342  11.013  10.529   1.823  1.0091  0.1381  0.0020
34595SOL    HW2 8343  10.982  10.548   1.676  1.1979 -0.4434 -0.1128
34596SOL     OW 8344   9.608   3.085  10.646 -0.1743 -0.5493  0.2812
34596SOL    HW1 8345   9.581   3.162  10.595  0.4822 -0.8782 -0.5860
34596SOL    HW2 8346   9.674   3.119  10.706  0.7196 -0.5705 -0.6642
34597SOL     OW 8347   6.854   0.572   2.558  0.2689  0.1452  0.0257
34597SOL    HW1 8348   6.780   0.512   2.546 -0.3751  0.9106  0.1222
34597SOL    HW2 8349   6.814   0.657   2.573  1.1762  0.9229 -1.6723
34598SOL     OW 8350   5.888   7.836  11.049  0.2137  0.0807 -0.0543
34598SOL    HW1 8351   5.909   7.892  11.124 -0.5752 -1.2485  1.2252
34598SOL    HW2 8352   5.803   7.798  11.072 -0.0433 -0.3653 -1.6449
34599SOL     OW 8353   8.747   4.609   5.071 -0.0042  0.0556  0.6544
34599SOL    HW1 8354   8.840   4.598   5.090 -0.1493 -0.2151  1.2282
34599SOL    HW2 8355   8.745   4.639   4.980  0.6443  0.1290  0.6567
34600SOL     OW 8356   5.777   8.666   4.228  0.1394  0.2693  0.1785
34600SOL    HW1 8357   5.793   8.583   4.272  1.9518  0.2278 -0.4522
34600SOL    HW2 8358   5.770   8.731   4.298 -0.0857 -0.2311  0.6206
34601SOL     OW 8359   5.574   9.516   4.501  0.4321 -0.6211  0.8106
34601SOL    HW1 8360   5.600   9.485   4.414 -0.0008  2.5567 -0.5781
34601SOL    HW2 8361   5.497   9.464   4.522  1.0441 -2.0574 -0.2613
34602SOL     OW 8362   5.864   4.451  11.152  0.4778  0.1158  0.0980
34602SOL    HW1 8363   5.937   4.398  11.120 -2.1158 -2.6352 -1.6904
34602SOL    HW2 8364   5.843   4.413  11.237 -0.0345 -0.3178 -0.2215
34603SOL     OW 8365   5.439   5.398   9.594  0.2212  0.1486 -0.7175
34603SOL    HW1 8366   5.415   5.482   9.554  0.1340 -0.1354 -1.2822
34603SOL    HW2 8367   5.480   5.421   9.677  1.9043  0.8477 -1.7018
34604SOL     OW 8368   7.714   9.857   7.542 -0.5081  0.4779 -0.0424
34604SOL    HW1 8369   7.779   9.788   7.548 -0.0376  0.9676  0.7934
34604SOL    HW2 8370   7.641   9.827   7.597  0.6656  1.6274  2.3061
34605SOL     OW 8371  11.922   0.707   7.334  0.4576  0.0257  0.1867
34605SOL    HW1 8372  11.897   0.615   7.332 -0.9572  0.4002 -0.4959
34605SOL    HW2 8373  11.964   0.723   7.249 -0.5735  0.3349 -0.2743
34606SOL     OW 8374   3.932   8.896  10.729 -0.1893  0.4552  0.3441
34606SOL    HW1 8375   4.008   8.858  10.773 -0.4707  0.2881  0.6907
34606SOL    HW2 8376   3.864   8.828  10.735 -0.1608  0.3326 -0.5561
34607SOL     OW 8377   5.553   0.067   9.313  0.5265  0.1203  0.2504
34607SOL    HW1 8378   5.469   0.096   9.349 -0.8054  0.4405 -2.7368
34607SOL    HW2 8379   5.606   0.044   9.389 -2.5181 -0.8124  2.2750
34608SOL     OW 8380  12.012   9.456   1.381  0.0716 -0.4208 -0.1711
34608SOL    HW1 8381  11.931   9.407   1.396 -0.7858  0.2059 -2.3097
34608SOL    HW2 8382  12.071   9.394   1.338  0.5879 -0.7586  1.0068
34609SOL     OW 8383   5.911  12.023   4.139 -0.1184 -0.2619  0.0399
34609SOL    HW1 8384   5.854  11.956   4.102 -0.6679  0.2744 -0.1072
34609SOL    HW2 8385   6.000  11.991   4.123 -0.3658 -0.7642 -0.3686
34610SOL     OW 8386   4.784   1.311   1.456 -0.4658  0.8091  0.4293
34610SOL    HW1 8387   4.779   1.244   1.388  0.6771  1.7161 -0.5962
34610SOL    HW2 8388   4.839   1.271   1.524 -0.7237  0.2966  0.3450
34611SOL     OW 8389   2.202  10.374   4.152  0.1407 -0.4661  0.6530
34611SOL    HW1 8390   2.224  10.336   4.237  2.3162  0.2339  0.4656
34611SOL    HW2 8391   2.274  10.347   4.094 -0.4753  0.3768 -0.5480
34612SOL     OW 8392   9.162   0.175   0.800 -0.0895  0.0044  0.0664
34612SOL    HW1 8393   9.203   0.209   0.721 -1.3966  1.1203 -0.1887
34612SOL    HW2 8394   9.233   0.136   0.850  1.0490  0.8087 -0.8778
34613SOL     OW 8395   4.921   8.859   6.341 -0.3150 -0.0099 -0.1415
34613SOL    HW1 8396   4.890   8.784   6.391 -0.6832  1.2989  1.6954
34613SOL    HW2 8397   4.998   8.827   6.295 -1.3846 -1.9351 -0.7310
34614SOL     OW 8398   2.058  11.438   1.862  0.1408  0.1971 -0.3023
34614SOL    HW1 8399   2.145  11.411   1.892  0.3138  2.4313  1.4735
34614SOL    HW2 8400   1.998  11.379   1.908  0.6386 -0.0266  0.0753
34615SOL     OW 8401   9.147   7.446   0.046  0.2864  0.1509  0.0444
34615SOL    HW1 8402   9.108   7.508  -0.016  0.7513  1.7161  1.2510
34615SOL    HW2 8403   9.184   7.501   0.115  1.1480 -1.4690  0.9347
34616SOL     OW 8404   8.495   7.458  10.231  0.6764 -0.8540  0.3431
34616SOL    HW1 8405   8.515   7.498  10.316  1.7291 -1.0454  0.2040
34616SOL    HW2 8406   8.528   7.520  10.167  1.6583 -1.5846  0.1138
34617SOL     OW 8407   5.151   5.262   3.095  0.4320 -0.3223  0.4450
34617SOL    HW1 8408   5.117   5.348   3.071  0.8718  0.1129  1.3689
34617SOL    HW2 8409   5.208   5.278   3.169 -1.0791 -1.6463  1.9761
34618SOL     OW 8410   9.902   3.187   8.220  0.0245 -0.3226 -0.0571
34618SOL    HW1 8411   9.983   3.185   8.271  0.1277  0.9312 -0.1311
34618SOL    HW2 8412   9.877   3.095   8.210 -0.5692 -0.6128  3.1010
34619SOL     OW 8413   2.174   3.869  11.114  0.1293  0.0016 -0.1835
34619SOL    HW1 8414   2.200   3.832  11.030 -0.0362  0.1987 -0.3212
34619SOL    HW2 8415   2.172   3.794  11.173  0.8284 -0.0505 -0.2100
34620SOL     OW 8416   0.116   9.388   4.477  0.1079  0.7002 -0.0991
34620SOL    HW1 8417   0.132   9.304   4.519 -0.7357  0.8856  0.6203
34620SOL    HW2 8418   0.051   9.369   4.410  0.5175  0.6393 -0.4860
34621SOL     OW 8419   8.406   7.219   6.643 -0.1972  0.0782 -0.1768
34621SOL    HW1 8420   8.431   7.182   6.559 -0.9480 -0.6296 -0.1050
34621SOL    HW2 8421   8.488   7.234   6.689  0.2179  0.4776 -1.0337
34622SOL     OW 8422   9.347   1.152  10.505 -0.4454 -0.2960 -0.0480
34622SOL    HW1 8423   9.330   1.076  10.561 -0.7064  0.0653  0.3718
34622SOL    HW2 8424   9.316   1.226  10.557  0.3107  0.1516 -0.2278
34623SOL     OW 8425   3.596   9.319   9.445  0.2950 -0.7354  0.1092
34623SOL    HW1 8426   3.577   9.258   9.373  0.9264 -0.3544 -0.3919
34623SOL    HW2 8427   3.649   9.267   9.506 -1.9756 -1.7161  1.3765
34624SOL     OW 8428  10.868   4.053  11.660  0.1763  0.4254 -0.0109
34624SOL    HW1 8429  10.851   3.981  11.721 -1.0150  1.3067  0.7419
34624SOL    HW2 8430  10.832   4.023  11.577 -1.8987  0.7991  0.7077
34625SOL     OW 8431   0.625   6.183  10.137 -0.2521  0.4930  0.0257
34625SOL    HW1 8432   0.617   6.106  10.082  0.6200  1.2194 -1.1725
34625SOL    HW2 8433   0.541   6.189  10.183 -0.1144 -1.4699  0.6136
34626SOL     OW 8434   4.119   0.081   5.694  0.2631  0.2864  0.3859
34626SOL    HW1 8435   4.187   0.130   5.741  1.3859  0.3105 -1.1784
34626SOL    HW2 8436   4.126   0.111   5.603  0.7923 -2.4975 -0.5944
34627SOL     OW 8437   6.234   4.360  11.527  0.1910 -0.6184  0.5198
34627SOL    HW1 8438   6.193   4.415  11.595  1.1675 -0.0970  0.6978
34627SOL    HW2 8439   6.284   4.421  11.473 -1.5721 -0.8331 -1.4908
34628SOL     OW 8440  11.280   5.021   4.658 -0.1420 -0.4484 -0.3019
34628SOL    HW1 8441  11.190   4.989   4.651 -0.1631 -0.0427 -2.4692
34628SOL    HW2 8442  11.330   4.966   4.598  0.7706  0.3723 -0.3269
34629SOL     OW 8443   6.299   3.411   8.256 -0.1659  0.8134  0.5644
34629SOL    HW1 8444   6.312   3.428   8.162 -1.3719 -0.8401  0.0545
34629SOL    HW2 8445   6.248   3.486   8.287 -1.3037  0.5287 -0.5333
34630SOL     OW 8446   1.100  10.339   5.044 -0.3778 -0.4982 -0.7645
34630SOL    HW1 8447   1.144  10.306   5.122 -0.3569 -1.3652 -1.1206
34630SOL    HW2 8448   1.164  10.398   5.004  0.3428 -1.4518 -1.0722
34631SOL     OW 8449  11.553   3.376  11.276  0.1443  0.5127  0.3577
34631SOL    HW1 8450  11.634   3.339  11.311  0.7651 -0.8738 -2.2815
34631SOL    HW2 8451  11.567   3.379  11.181 -2.5235  1.1788 -0.0973
34632SOL     OW 8452  12.064  10.089   7.621  0.6878 -0.4587 -0.1278
34632SOL    HW1 8453  12.153  10.121   7.612  0.3271  0.4745 -0.4815
34632SOL    HW2 8454  12.011  10.150   7.570 -0.3079 -0.2350  1.1181
34633SOL     OW 8455   4.717   7.805   3.649 -0.8218 -0.9716 -0.0323
34633SOL    HW1 8456   4.744   7.837   3.735  1.1147  1.9228 -1.5341
34633SOL    HW2 8457   4.792   7.756   3.616 -1.4765 -1.9017 -0.1882
34634SOL     OW 8458   4.903   1.952   5.731  0.3795 -0.2223  1.0557
34634SOL    HW1 8459   4.934   1.954   5.641 -2.1370  0.6557  0.1303
34634SOL    HW2 8460   4.973   1.994   5.781  0.2240  2.9524 -1.0795
34635SOL     OW 8461   7.830   3.063   7.853  0.4727 -0.3895 -0.1269
34635SOL    HW1 8462   7.867   2.978   7.829 -0.1838 -0.4969 -0.8037
34635SOL    HW2 8463   7.774   3.044   7.928 -0.8781 -0.8499 -1.2173
34636SOL     OW 8464   6.620  10.414   5.710  0.2191  0.2966 -0.1521
34636SOL    HW1 8465   6.617  10.330   5.665  0.9958 -0.4936  1.1918
34636SOL    HW2 8466   6.551  10.410   5.775  0.6853  0.4171  0.3626
34637SOL     OW 8467   9.688   1.956   1.441  0.3271 -0.6401 -0.2392
34637SOL    HW1 8468   9.646   1.913   1.366 -1.6696  1.1008 -0.2183
34637SOL    HW2 8469   9.616   1.996   1.489  1.6886 -0.6582  1.9690
34638SOL     OW 8470   0.184   1.526   2.810 -0.2862  1.0427 -0.9530
34638SOL    HW1 8471   0.102   1.556   2.769 -0.5745 -0.9700 -1.9982
34638SOL    HW2 8472   0.237   1.606   2.818 -2.9802  2.7926  1.5005
34639SOL     OW 8473  11.590   5.022  10.211 -0.3169 -0.1416  0.0677
34639SOL    HW1 8474  11.627   5.095  10.260 -0.8040 -0.1729  0.4871
34639SOL    HW2 8475  11.597   4.947  10.270  0.3258 -0.4759 -0.4184
34640SOL     OW 8476  10.498   0.712   3.997 -0.4277 -0.0359  0.1286
34640SOL    HW1 8477  10.417   0.681   3.957 -0.1907 -0.9753  0.3595
34640SOL    HW2 8478  10.558   0.722   3.923 -0.3368 -0.6807  0.1081
34641SOL     OW 8479  10.868   3.120   1.276  0.3408 -0.3118 -0.5247
34641SOL    HW1 8480  10.942   3.076   1.234  0.9456  0.5134 -0.3679
34641SOL    HW2 8481  10.853   3.198   1.223  0.7649  0.4597  0.4347
34642SOL     OW 8482   0.566   5.606   8.610 -0.1934 -0.7352  0.3457
34642SOL    HW1 8483   0.511   5.557   8.548 -1.7546  0.1620  0.9448
34642SOL    HW2 8484   0.531   5.582   8.696  0.2553 -0.0060  0.7352
34643SOL     OW 8485   2.801   4.907   7.713 -0.0280  0.2154 -0.4971
34643SOL    HW1 8486   2.822   4.949   7.796 -0.0754  1.0053 -0.8783
34643SOL    HW2 8487   2.825   4.972   7.646  1.4773 -0.9756 -1.1903
34644SOL     OW 8488  10.973   2.938   3.438 -0.5782 -0.1099  0.5270
34644SOL    HW1 8489  11.041   2.999   3.466 -0.4823 -0.3259  0.7711
34644SOL    HW2 8490  10.974   2.870   3.506 -1.1867 -0.0005  0.6443
34645SOL     OW 8491   5.674   7.982   3.302  0.4384 -0.2811 -0.3447
34645SOL    HW1 8492   5.605   7.920   3.277  2.6026 -2.9951 -0.1526
34645SOL    HW2 8493   5.646   8.016   3.387 -2.5392  1.9257 -2.0534
34646SOL     OW 8494   7.222   3.566  11.925 -0.2778  0.5285  0.0361
34646SOL    HW1 8495   7.182   3.532  12.005 -0.6245  1.6874  0.3715
34646SOL    HW2 8496   7.199   3.502  11.858  0.2541 -0.6148  0.8948
34647SOL     OW 8497   3.724   3.872   1.222  0.2388  0.0658  0.0120
34647SOL    HW1 8498   3.754   3.875   1.131  2.0009  0.7760  0.5876
34647SOL    HW2 8499   3.694   3.782   1.234 -0.8695  0.1942 -1.5081
34648SOL     OW 8500   9.096   8.063   8.105  0.4098  0.1393 -0.4325
34648SOL    HW1 8501   9.082   7.976   8.069  0.3101  0.3458 -0.9096
34648SOL    HW2 8502   9.040   8.120   8.052 -2.2882  0.0528  2.0628
34649SOL     OW 8503   8.316   6.828   5.823 -0.4721 -0.0207 -0.2427
34649SOL    HW1 8504   8.287   6.800   5.910 -1.3946  1.0553 -0.1802
34649SOL    HW2 8505   8.261   6.904   5.803 -1.4973 -1.2609 -2.4968
34650SOL     OW 8506   9.331   9.737  11.240  0.4295 -0.0145 -0.4288
34650SOL    HW1 8507   9.426   9.735  11.255  0.2096  1.0523  1.4800
34650SOL    HW2 8508   9.312   9.828  11.219 -0.1180 -0.3478 -1.4494
34651SOL     OW 8509   0.168   2.302   6.727 -0.2789  0.2433  0.2004
34651SOL    HW1 8510   0.141   2.393   6.741  1.9887  0.9399  0.4103
34651SOL    HW2 8511   0.190   2.298   6.634  1.1453  0.3732  0.5153
34652SOL     OW 8512   7.930  11.273   1.419  0.6126 -0.4967  0.8546
34652SOL    HW1 8513   7.896  11.360   1.399  1.8889 -0.0677  0.4863
34652SOL    HW2 8514   8.023  11.278   1.400  0.8543 -1.7212  1.5899
34653SOL     OW 8515   3.767  11.955   5.653 -0.6652  0.2431  0.8650
34653SOL    HW1 8516   3.758  11.890   5.583 -0.1211  0.5150  0.5331
34653SOL    HW2 8517   3.679  11.993   5.662 -1.1543 -0.9963  1.5322
34654SOL     OW 8518   3.281   6.929   6.597 -0.0448 -0.0823 -0.0472
34654SOL    HW1 8519   3.213   6.875   6.638  0.9338 -1.9237 -0.7354
34654SOL    HW2 8520   3.335   6.959   6.671 -0.5680 -0.1125  0.3515
34655SOL     OW 8521   7.979   7.144   8.724  0.0757 -0.2764 -0.0460
34655SOL    HW1 8522   7.949   7.234   8.720  0.3021 -0.2251 -1.0229
34655SOL    HW2 8523   8.003   7.123   8.633  1.7241 -0.7247  0.4565
34656SOL     OW 8524   1.083   8.181   8.169  0.5378 -0.0491  0.2722
34656SOL    HW1 8525   1.176   8.163   8.186  0.3809 -0.3127  0.8901
34656SOL    HW2 8526   1.072   8.161   8.076  1.1306  0.1214  0.1571
34657SOL     OW 8527   6.811  10.782   1.253  0.0284  0.1287  0.0369
34657SOL    HW1 8528   6.841  10.856   1.305 -1.2174 -0.8763  2.3311
34657SOL    HW2 8529   6.716  10.796   1.243  0.3652  0.9585 -3.2075
34658SOL     OW 8530   8.651   0.446  10.149 -0.6343  0.1821  0.2436
34658SOL    HW1 8531   8.657   0.350  10.151 -0.4143  0.1603 -0.9109
34658SOL    HW2 8532   8.673   0.470  10.059  3.1605  1.5739  1.3044
34659SOL     OW 8533   5.898   8.225   1.601  0.0702 -0.1400 -0.1381
34659SOL    HW1 8534   5.901   8.208   1.695 -0.5081 -0.4413 -0.1645
34659SOL    HW2 8535   5.980   8.269   1.581  0.0375  0.2537  0.5736
34660SOL     OW 8536   9.342   9.140   7.876 -0.3293 -0.4421 -0.1026
34660SOL    HW1 8537   9.405   9.088   7.927  0.1366  0.8340  0.6626
34660SOL    HW2 8538   9.340   9.225   7.920 -0.1647  0.6123 -2.0255
34661SOL     OW 8539  11.310  10.779   6.883  0.4505  0.0585 -0.1661
34661SOL    HW1 8540  11.378  10.827   6.930  1.8678 -2.6575  0.8054
34661SOL    HW2 8541  11.358  10.731   6.815 -0.3342 -2.2624  0.8073
34662SOL     OW 8542   6.593   2.453   8.418 -0.0417  0.2055 -0.0931
34662SOL    HW1 8543   6.616   2.495   8.335  2.1236  0.8260  0.7467
34662SOL    HW2 8544   6.595   2.524   8.482  0.3853 -0.6141  0.8213
34663SOL     OW 8545   8.189   1.673   0.290 -0.3363 -0.0304 -0.0300
34663SOL    HW1 8546   8.125   1.739   0.263  0.7315  0.2345 -2.1576
34663SOL    HW2 8547   8.156   1.591   0.253  0.7161  0.1894 -1.5746
34664SOL     OW 8548  11.299   8.175   1.151  0.0085  0.3362 -0.0085
34664SOL    HW1 8549  11.296   8.108   1.082  0.9541  0.0034  0.2553
34664SOL    HW2 8550  11.272   8.256   1.107 -1.9831 -0.3395 -0.1408
34665SOL     OW 8551   0.143   8.709   4.378 -0.2931  0.3946  0.1099
34665SOL    HW1 8552   0.133   8.617   4.353 -2.1791  0.2042  1.3578
34665SOL    HW2 8553   0.134   8.758   4.296 -2.9548 -0.3693 -0.1589
34666SOL     OW 8554   8.103   2.449  10.199  0.1882  0.2087 -0.5184
34666SOL    HW1 8555   8.065   2.397  10.129 -0.5867  0.9948 -0.7053
34666SOL    HW2 8556   8.096   2.395  10.277 -2.1327  0.6316 -0.3714
34667SOL     OW 8557   8.825   0.315   3.569  0.0010  0.1894 -0.0393
34667SOL    HW1 8558   8.856   0.405   3.579 -1.6290  0.7440  0.1512
34667SOL    HW2 8559   8.780   0.315   3.485  1.1295 -0.8170 -0.6827
34668SOL     OW 8560   8.145   2.075   4.490 -0.2182  0.3959 -0.5178
34668SOL    HW1 8561   8.191   2.101   4.570 -2.6436  1.4171  0.6533
34668SOL    HW2 8562   8.163   1.982   4.482 -0.6262  0.0557  1.7730
34669SOL     OW 8563   2.912  11.461  10.508 -0.4980  0.7976  0.3040
34669SOL    HW1 8564   2.913  11.458  10.603  0.3719 -1.3907  0.2879
34669SOL    HW2 8565   3.004  11.455  10.483 -0.7951 -0.2245 -0.6547
34670SOL     OW 8566  10.623   6.979   8.338 -0.4168  0.0899 -0.0585
34670SOL    HW1 8567  10.705   6.933   8.353 -0.4036  0.9012  3.1518
34670SOL    HW2 8568  10.629   7.011   8.248  2.2548 -0.8580 -0.2910
34671SOL     OW 8569   7.108   3.215   6.393  0.3139 -0.1737  0.0706
34671SOL    HW1 8570   7.181   3.238   6.450 -0.3422 -0.2937  0.9989
34671SOL    HW2 8571   7.115   3.275   6.319 -0.9113  2.6564  2.0238
34672SOL     OW 8572   6.483   0.717   6.140 -0.4448  0.3683 -0.3676
34672SOL    HW1 8573   6.464   0.796   6.189  0.0831 -0.2396  0.8733
34672SOL    HW2 8574   6.403   0.665   6.145  0.2968 -0.6868  1.8882
34673SOL     OW 8575   9.187   0.896   1.845 -0.1445 -0.2511  0.7782
34673SOL    HW1 8576   9.263   0.839   1.834 -0.6839 -0.8477  0.0320
34673SOL    HW2 8577   9.121   0.859   1.788 -1.4120 -0.4479  2.3005
34674SOL     OW 8578   8.931   9.324   4.110  0.3075 -0.0551  0.2416
34674SOL    HW1 8579   8.968   9.302   4.024 -0.0793 -1.6021  0.4421
34674SOL    HW2 8580   8.913   9.418   4.104  0.8414 -0.0077 -1.1557
34675SOL     OW 8581   1.105   3.538  11.729  0.0663  0.6028 -0.8374
34675SOL    HW1 8582   1.128   3.593  11.654  1.5374  1.5663  0.2414
34675SOL    HW2 8583   1.043   3.591  11.779  0.6343  0.8418 -0.3671
34676SOL     OW 8584   4.636   3.892  11.933  0.4374 -0.5191  0.0194
34676SOL    HW1 8585   4.622   3.818  11.992  0.6687  0.4755  1.3467
34676SOL    HW2 8586   4.548   3.915  11.903  0.4708 -2.2911 -1.6873
34677SOL     OW 8587   6.851   1.172  11.514 -0.2206  0.9515  0.0263
34677SOL    HW1 8588   6.778   1.233  11.525 -1.8843 -0.9917  0.3398
34677SOL    HW2 8589   6.831   1.126  11.432  1.6738  1.6376 -0.8727
34678SOL     OW 8590   8.860   9.345   3.505  0.0250 -0.0971  0.0407
34678SOL    HW1 8591   8.802   9.354   3.429  0.4724  0.6670 -0.2176
34678SOL    HW2 8592   8.832   9.414   3.564  0.3988 -0.0012  0.1028
34679SOL     OW 8593   6.711   2.788  11.965  0.3446 -0.2845  0.0462
34679SOL    HW1 8594   6.645   2.857  11.957  1.8593  1.7410  3.0323
34679SOL    HW2 8595   6.702   2.757  12.055  1.9679 -1.5948 -0.2000
34680SOL     OW 8596   7.304   1.635   4.006  1.2766 -0.0860  0.2217
34680SOL    HW1 8597   7.293   1.717   4.054  0.4944  1.0167 -1.6964
34680SOL    HW2 8598   7.231   1.580   4.035  0.3979  0.8294 -0.1813
34681SOL     OW 8599   8.564   4.654   6.599 -0.2316 -0.8720 -0.4595
34681SOL    HW1 8600   8.516   4.736   6.615  1.4040  0.0898 -0.2993
34681SOL    HW2 8601   8.618   4.642   6.677  2.6179  0.1480 -2.1251
34682SOL     OW 8602   3.377   1.763   9.521 -0.6460  0.0915  0.1194
34682SOL    HW1 8603   3.416   1.732   9.440  1.2571 -0.5273  1.2052
34682SOL    HW2 8604   3.377   1.687   9.579 -1.5486  0.6291  0.8603
34683SOL     OW 8605   8.523   6.780   9.059 -0.1826  0.6454 -1.1104
34683SOL    HW1 8606   8.441   6.742   9.029  0.7963 -2.3282 -0.3772
34683SOL    HW2 8607   8.528   6.757   9.152  1.2126  1.2467 -1.0012
34684SOL     OW 8608   7.162   1.742   5.305  0.8539 -0.5358  0.4763
34684SOL    HW1 8609   7.206   1.658   5.319  0.5125 -0.6450  0.8946
34684SOL    HW2 8610   7.186   1.767   5.215 -2.8622 -3.3885 -1.5977
34685SOL     OW 8611   2.288   3.877   5.102  0.0746  0.1959  0.7459
34685SOL    HW1 8612   2.360   3.924   5.058 -1.2201  2.2684  0.7054
34685SOL    HW2 8613   2.329   3.797   5.134  1.8049  0.0374 -1.5421
34686SOL     OW 8614   6.068   9.044   9.342 -0.1703 -0.2104  0.4523
34686SOL    HW1 8615   6.120   9.115   9.305  1.5598 -1.7476 -0.2146
34686SOL    HW2 8616   6.059   8.980   9.271 -2.9732 -0.0727  0.5624
34687SOL     OW 8617   7.887  11.303   7.725 -0.1659  0.2994  0.0782
34687SOL    HW1 8618   7.794  11.325   7.730 -0.1854  0.0922  0.7485
34687SOL    HW2 8619   7.927  11.351   7.798 -0.1060 -1.2782  1.1395
34688SOL     OW 8620   2.225   8.127   6.023 -0.7262 -0.2920 -0.2936
34688SOL    HW1 8621   2.200   8.212   5.987  1.2376 -0.1126 -1.3319
34688SOL    HW2 8622   2.266   8.080   5.951  2.6340 -0.2179  1.3516
34689SOL     OW 8623   5.853   8.710   1.924 -0.2105  0.4478 -0.7619
34689SOL    HW1 8624   5.773   8.714   1.976  1.0813 -1.8975  1.5902
34689SOL    HW2 8625   5.903   8.787   1.952  0.2744 -0.5407  1.2550
34690SOL     OW 8626   3.285   9.347   8.555 -0.2904  0.3452  0.5906
34690SOL    HW1 8627   3.244   9.356   8.641 -0.4112  2.5963  0.3623
34690SOL    HW2 8628   3.376   9.372   8.569 -0.1290 -0.0224  0.2093
34691SOL     OW 8629   6.185   4.441  10.449 -0.2505 -0.0249 -0.1441
34691SOL    HW1 8630   6.224   4.474  10.531 -1.0704 -0.6889  0.5267
34691SOL    HW2 8631   6.096   4.415  10.474 -0.1295 -1.3024 -0.9953
34692SOL     OW 8632   8.508   4.257   5.431 -0.0092 -0.4165 -0.2884
34692SOL    HW1 8633   8.532   4.330   5.488  0.0309 -0.9972  0.4625
34692SOL    HW2 8634   8.558   4.270   5.351  0.8006 -0.1871  0.2435
34693SOL     OW 8635   7.612   8.006  10.209  0.2348 -0.6422 -0.0162
34693SOL    HW1 8636   7.671   7.996  10.134 -1.5203 -1.1955 -1.3824
34693SOL    HW2 8637   7.578   7.918  10.225 -1.9804  0.0104 -0.7971
34694SOL     OW 8638   4.135   4.078   9.192  0.0294 -0.1464 -0.3125
34694SOL    HW1 8639   4.056   4.075   9.246  0.3162  1.3187  0.2305
34694SOL    HW2 8640   4.207   4.084   9.255  0.5499 -0.7938 -0.8252
34695SOL     OW 8641   5.990   9.661   1.959 -0.5110  0.4045  0.2883
34695SOL    HW1 8642   6.039   9.594   2.007 -0.7697 -0.8461 -1.1396
34695SOL    HW2 8643   5.923   9.612   1.911  0.4014  1.4378 -2.2125
34696SOL     OW 8644  11.804   8.045   7.369  0.4031  0.1119 -0.1408
34696SOL    HW1 8645  11.729   8.030   7.426  1.5556 -0.1998  1.3567
34696SOL    HW2 8646  11.814   8.141   7.368  1.6404  0.0748  1.9946
34697SOL     OW 8647   0.452   5.127   4.339 -0.0393  0.1890 -0.1707
34697SOL    HW1 8648   0.495   5.179   4.408  0.0256 -0.5546  0.3711
34697SOL    HW2 8649   0.396   5.189   4.293  0.6354  0.9031 -0.0493
34698SOL     OW 8650   9.138   4.868  11.655  0.1931  0.0116  0.4643
34698SOL    HW1 8651   9.159   4.779  11.629 -0.2293  0.1411 -0.3751
34698SOL    HW2 8652   9.196   4.887  11.728  3.1833  0.3988 -1.8111
34699SOL     OW 8653   2.292   1.422   6.449  0.2433 -0.4592 -0.5110
34699SOL    HW1 8654   2.250   1.365   6.385  0.9049  0.1798 -1.5404
34699SOL    HW2 8655   2.245   1.505   6.441 -0.2916 -0.6361  0.5249
34700SOL     OW 8656   8.419  11.955   6.560 -0.4077 -0.6563 -0.3950
34700SOL    HW1 8657   8.467  11.943   6.642 -1.2150 -1.2898  0.0013
34700SOL    HW2 8658   8.486  11.948   6.492  0.2841 -0.0580  0.2030
34701SOL     OW 8659   1.941   6.999   9.194  0.9424 -0.2626  0.2494
34701SOL    HW1 8660   1.934   6.945   9.273  0.0994 -1.5086 -0.6250
34701SOL    HW2 8661   2.014   7.058   9.211  2.7808 -2.5529  0.7648
34702SOL     OW 8662   8.817  10.615   7.259  0.8310 -0.3829  0.7328
34702SOL    HW1 8663   8.752  10.547   7.277  0.7719 -0.6441 -0.4169
34702SOL    HW2 8664   8.792  10.651   7.174  1.2211  0.6640  1.0466
34703SOL     OW 8665   0.500  12.106   7.512 -0.0820  0.1498  0.2991
34703SOL    HW1 8666   0.545  12.178   7.556  0.2889  1.5567 -2.1653
34703SOL    HW2 8667   0.439  12.149   7.452 -1.6097 -1.6700  0.4667
34704SOL     OW 8668   1.155   5.004   7.520 -0.6974  0.1984  0.7820
34704SOL    HW1 8669   1.069   5.029   7.554 -1.3934  0.0272 -0.7607
34704SOL    HW2 8670   1.150   4.909   7.509 -0.3609  0.2049  0.5384
34705SOL     OW 8671   7.091   2.632   5.856  0.0138 -0.1034 -0.2337
34705SOL    HW1 8672   7.138   2.686   5.919 -0.5039 -0.3091  0.3341
34705SOL    HW2 8673   7.097   2.543   5.891 -2.3426  0.1012  0.8234
34706SOL     OW 8674   4.000   2.127   7.602 -0.1456  0.3733  0.4335
34706SOL    HW1 8675   3.981   2.200   7.543  1.8177 -0.5306 -1.4439
34706SOL    HW2 8676   3.998   2.049   7.545  4.2079 -0.3067  0.8564
34707SOL     OW 8677   1.833  10.166   2.997 -0.0238  0.5277  0.0446
34707SOL    HW1 8678   1.824  10.224   2.921  1.0631 -0.4428 -0.8604
34707SOL    HW2 8679   1.777  10.091   2.977  2.7395 -1.2941 -1.4214
34708SOL     OW 8680   6.159   9.389   3.591  0.0116  0.4055 -0.2926
34708SOL    HW1 8681   6.122   9.356   3.673 -2.0491  4.1717  0.4901
34708SOL    HW2 8682   6.253   9.395   3.609 -0.1336 -0.6492  1.0580
34709SOL     OW 8683   6.451   4.497   3.865 -0.0157  0.3500  0.3696
34709SOL    HW1 8684   6.440   4.568   3.928  2.8654  1.4097 -0.1792
34709SOL    HW2 8685   6.483   4.540   3.786 -0.0510 -1.3637 -0.6257
34710SOL     OW 8686   7.432   6.945   5.402  0.1231 -0.2259  0.4020
34710SOL    HW1 8687   7.434   6.863   5.451  0.8774  0.0720  0.8737
34710SOL    HW2 8688   7.512   6.990   5.427  0.6161 -0.1438 -1.2421
34711SOL     OW 8689  10.705   6.362  10.992 -1.1121  0.4612 -0.2308
34711SOL    HW1 8690  10.774   6.320  11.043 -2.0423 -0.7993  0.0434
34711SOL    HW2 8691  10.643   6.291  10.972 -1.8803  1.3708 -1.2281
34712SOL     OW 8692   7.971   1.175   2.034  0.2397  0.1277  0.8296
34712SOL    HW1 8693   7.933   1.218   2.111  0.8380  0.4877  0.9286
34712SOL    HW2 8694   8.003   1.247   1.980  2.6463 -0.2072  1.7113
34713SOL     OW 8695  11.714   5.127   3.447  0.1155  0.4932  0.4930
34713SOL    HW1 8696  11.654   5.199   3.466 -2.7887 -1.2863 -1.1943
34713SOL    HW2 8697  11.730   5.134   3.353  1.0504 -0.2230  0.5835
34714SOL     OW 8698   8.183  11.161   0.943 -0.1796  0.7105  0.5906
34714SOL    HW1 8699   8.160  11.227   1.008 -0.4330  0.9159  0.2911
34714SOL    HW2 8700   8.140  11.189   0.863  0.6867  0.8277  0.1479
34715SOL     OW 8701   0.392   9.687  10.525  0.0060 -0.3414  0.2986
34715SOL    HW1 8702   0.463   9.727  10.475 -1.4140  0.1499 -1.4200
34715SOL    HW2 8703   0.384   9.599  10.489 -0.7108 -0.1514 -0.0165
34716SOL     OW 8704  11.214   4.085   8.489 -0.0936 -0.0618  0.5860
34716SOL    HW1 8705  11.133   4.130   8.466  0.1506 -0.1944 -0.6231
34716SOL    HW2 8706  11.275   4.108   8.418  0.9100 -0.0042  1.4398
34717SOL     OW 8707   1.250   8.812   7.883 -0.4025 -0.4008 -0.3384
34717SOL    HW1 8708   1.234   8.722   7.853 -1.1188 -0.6442  0.7108
34717SOL    HW2 8709   1.301   8.852   7.813  0.5073 -1.8295 -0.5305
34718SOL     OW 8710   8.102   4.849   2.371 -0.1341 -0.8004  0.7335
34718SOL    HW1 8711   8.154   4.926   2.396 -0.8628 -0.0176 -0.0782
34718SOL    HW2 8712   8.012   4.875   2.388 -0.7685  0.0025 -2.9124
34719SOL     OW 8713   6.627   0.138   1.352  0.3676  0.1100 -0.3525
34719SOL    HW1 8714   6.662   0.200   1.416  2.9213 -0.1869 -1.3530
34719SOL    HW2 8715   6.689   0.065   1.353 -0.8299 -0.9661 -1.5066
34720SOL     OW 8716   5.098  11.044  11.000  1.0098 -0.1514 -0.6303
34720SOL    HW1 8717   5.126  11.098  11.073 -0.5134 -1.7238  1.2255
34720SOL    HW2 8718   5.134  10.958  11.018  0.1163 -0.7102 -1.3908
34721SOL     OW 8719  11.509   9.145   8.148  0.5235 -0.0277 -0.6677
34721SOL    HW1 8720  11.555   9.219   8.187  1.3201 -0.9966  0.3042
34721SOL    HW2 8721  11.578   9.083   8.124  0.0169  0.2677 -3.1552
34722SOL     OW 8722   6.289   2.442   8.626 -0.0186 -0.3681 -0.0044
34722SOL    HW1 8723   6.292   2.394   8.543 -2.7771 -0.7432  0.0211
34722SOL    HW2 8724   6.196   2.463   8.638  0.0389 -1.6603  3.7493
34723SOL     OW 8725   7.873   8.253   0.162 -0.2064 -0.1655 -1.0297
34723SOL    HW1 8726   7.823   8.183   0.203  0.8653 -0.8315 -0.8036
34723SOL    HW2 8727   7.841   8.256   0.072 -0.4856 -0.7369 -0.9535
34724SOL     OW 8728   8.800   1.997   0.323  0.1841  0.3002 -0.0565
34724SOL    HW1 8729   8.771   2.016   0.234  2.2817 -0.0410 -0.8795
34724SOL    HW2 8730   8.895   2.009   0.320  0.0860  3.4432  2.9538
34725SOL     OW 8731   3.256   3.843   0.170  0.4013  0.2050 -0.1734
34725SOL    HW1 8732   3.181   3.786   0.155 -1.4454  1.6655  2.5251
34725SOL    HW2 8733   3.320   3.787   0.215  0.0980 -0.5893 -0.7163
34726SOL     OW 8734   8.328   1.576   2.944 -0.1914 -0.1330 -0.0084
34726SOL    HW1 8735   8.353   1.492   2.904 -2.5886 -1.8236  1.7197
34726SOL    HW2 8736   8.341   1.562   3.038 -2.0654  0.8403  0.4491
34727SOL     OW 8737   3.653   0.884   7.085  0.5268  0.1271 -0.0573
34727SOL    HW1 8738   3.739   0.848   7.067  0.6755  1.4122 -2.3441
34727SOL    HW2 8739   3.670   0.969   7.126  0.5277  1.3186 -2.3259
34728SOL     OW 8740   5.223   7.252   6.406 -0.0339 -0.4465 -0.1835
34728SOL    HW1 8741   5.221   7.156   6.403 -1.3253 -0.4254 -0.9483
34728SOL    HW2 8742   5.225   7.278   6.314 -2.1200  0.2403 -0.0968
34729SOL     OW 8743  11.164   4.275   6.022  0.1161 -0.1451  0.0717
34729SOL    HW1 8744  11.092   4.300   5.964  0.7210  1.0669 -0.1856
34729SOL    HW2 8745  11.220   4.219   5.968  0.6949  1.0065 -0.5614
34730SOL     OW 8746   7.560   7.579   7.235  0.5998 -0.6299 -0.3262
34730SOL    HW1 8747   7.489   7.519   7.211  1.2934 -1.3255 -0.6926
34730SOL    HW2 8748   7.524   7.666   7.221 -0.7197 -0.9101  0.9849
34731SOL     OW 8749   7.725   3.821   4.142  0.2892 -0.4871 -0.2878
34731SOL    HW1 8750   7.651   3.826   4.203  0.3611 -0.5669 -0.1930
34731SOL    HW2 8751   7.759   3.732   4.154  1.6475  0.1892  1.1190
34732SOL     OW 8752  10.762   9.681   5.112  0.8194  0.0953 -0.0641
34732SOL    HW1 8753  10.709   9.643   5.042 -0.6632  1.6016  0.1724
34732SOL    HW2 8754  10.765   9.614   5.180 -2.6616  0.6710  0.8298
34733SOL     OW 8755   3.138  11.933   7.101 -0.5906  0.3552 -0.5308
34733SOL    HW1 8756   3.147  11.849   7.055  0.3800 -0.4870  1.1142
34733SOL    HW2 8757   3.177  11.996   7.041  2.2667 -0.9780 -0.2611
34734SOL     OW 8758   3.801   7.500   0.846  0.0150  0.1737 -0.4227
34734SOL    HW1 8759   3.849   7.461   0.919 -1.8420 -3.2901 -0.8023
34734SOL    HW2 8760   3.866   7.507   0.776  1.1143  0.6515  0.6067
34735SOL     OW 8761   7.751   7.915   4.967 -0.2017  0.3491  0.4249
34735SOL    HW1 8762   7.830   7.930   5.019 -1.2530 -0.2307  2.3060
34735SOL    HW2 8763   7.782   7.909   4.877  2.1370 -1.4588  1.2325
34736SOL     OW 8764   2.916   8.943   0.139 -0.6387 -0.1141  0.1625
34736SOL    HW1 8765   3.005   8.962   0.110 -1.0191  0.6449 -0.5689
34736SOL    HW2 8766   2.898   9.009   0.206 -1.0311  0.4544 -0.4887
34737SOL     OW 8767   9.574   2.493   9.151  1.0131 -0.6351  0.1262
34737SOL    HW1 8768   9.519   2.431   9.104  1.3488 -0.6997 -0.1855
34737SOL    HW2 8769   9.604   2.445   9.228 -0.3854 -0.1933  0.9778
34738SOL     OW 8770   6.605   2.425   2.963 -0.1363  0.3684 -0.0023
34738SOL    HW1 8771   6.602   2.367   3.039 -1.0814  0.0157 -0.2939
34738SOL    HW2 8772   6.652   2.375   2.896  1.0656  0.8358  0.4491
34739SOL     OW 8773   9.803  11.142   0.766  0.4052  0.1492  0.3280
34739SOL    HW1 8774   9.828  11.141   0.673 -1.5123  1.1286 -0.2429
34739SOL    HW2 8775   9.709  11.159   0.765  0.2114 -0.5767  2.4513
34740SOL     OW 8776   1.051   4.631  12.075 -0.0166 -0.1546 -0.0869
34740SOL    HW1 8777   1.004   4.678  12.143  1.4200  0.6682  0.3771
34740SOL    HW2 8778   1.063   4.695  12.005  0.8857 -0.1820  0.0365
34741SOL     OW 8779   1.539   1.383   7.043  0.2935 -1.1554  0.0876
34741SOL    HW1 8780   1.505   1.464   7.006 -0.6023 -0.2885  2.6332
34741SOL    HW2 8781   1.603   1.411   7.108  1.1165 -2.5759 -0.0703
34742SOL     OW 8782   0.777   9.362   4.402  0.3874  0.0732 -0.4690
34742SOL    HW1 8783   0.712   9.426   4.370  0.1198 -0.4238 -0.9451
34742SOL    HW2 8784   0.794   9.388   4.492  0.8709  1.2865 -0.8989
34743SOL     OW 8785  10.270   2.010   4.749  0.2133  0.2557  0.2312
34743SOL    HW1 8786  10.234   2.098   4.738  1.3827  0.9201  1.4611
34743SOL    HW2 8787  10.349   2.009   4.694 -0.4150 -0.4341 -0.6849
34744SOL     OW 8788   2.401  10.928   1.259  0.5716 -0.0567 -0.6858
34744SOL    HW1 8789   2.418  10.969   1.344 -1.0368 -0.4991 -0.1201
34744SOL    HW2 8790   2.383  11.001   1.201 -3.0494  0.1630  0.4945
34745SOL     OW 8791   0.805   4.088   0.932  0.3696 -0.2253 -0.0528
34745SOL    HW1 8792   0.768   4.008   0.967 -0.6838  0.5819  0.7525
34745SOL    HW2 8793   0.751   4.158   0.968  0.7415  0.8086 -1.3827
34746SOL     OW 8794   8.537   6.068  11.821  0.1116  0.0967 -0.1981
34746SOL    HW1 8795   8.499   6.055  11.734  0.9089 -0.3827 -0.4829
34746SOL    HW2 8796   8.561   6.160  11.823 -2.7680  0.9315  0.6957
34747SOL     OW 8797   5.396   2.597   1.273  0.2120 -0.5291  0.0852
34747SOL    HW1 8798   5.326   2.605   1.208 -1.4170  1.2964  1.8815
34747SOL    HW2 8799   5.385   2.509   1.309  0.5289 -1.2027 -1.4108
34748SOL     OW 8800   5.092   0.757  10.111  0.1760 -0.0889  0.6230
34748SOL    HW1 8801   5.143   0.677  10.125 -1.4417 -1.4022 -0.4911
34748SOL    HW2 8802   5.018   0.728  10.058 -0.3825  2.2154  0.0539
34749SOL     OW 8803   9.448   7.842   8.266  0.0069 -0.2141 -0.1326
34749SOL    HW1 8804   9.443   7.923   8.214  0.7569  0.3487  0.6416
34749SOL    HW2 8805   9.462   7.872   8.356  2.9573 -1.1863 -0.1465
34750SOL     OW 8806   8.390  10.539   5.967 -0.2503 -0.1502  0.0148
34750SOL    HW1 8807   8.430  10.499   5.890 -1.8618 -1.4894 -0.1751
34750SOL    HW2 8808   8.357  10.466   6.018 -1.4363  0.8312  0.7138
34751SOL     OW 8809   0.888   8.069   9.796 -0.1785  0.6280  0.3394
34751SOL    HW1 8810   0.796   8.045   9.804 -0.1848  0.0027 -1.3265
34751SOL    HW2 8811   0.888   8.147   9.740  0.3734 -0.2313 -0.8981
34752SOL     OW 8812   3.595   0.353  10.065 -0.0510 -0.1667 -0.4500
34752SOL    HW1 8813   3.617   0.358   9.972  3.4430  1.4152  0.3110
34752SOL    HW2 8814   3.619   0.264  10.091  2.2496  0.3837 -0.4674
34753SOL     OW 8815   6.047   3.775  10.526  0.4201 -0.3472  0.6962
34753SOL    HW1 8816   6.035   3.864  10.494  0.5292 -1.5357 -3.0884
34753SOL    HW2 8817   6.137   3.753  10.501 -0.9776 -2.9402 -2.8390
34754SOL     OW 8818   4.867   0.379  11.419 -0.4399  0.0179  0.6777
34754SOL    HW1 8819   4.889   0.469  11.396  1.7970 -0.3881  1.0020
34754SOL    HW2 8820   4.897   0.327  11.345  1.3136 -0.7345  1.8658
34755SOL     OW 8821   0.534   5.632   1.529  0.4323  0.6406 -0.3524
34755SOL    HW1 8822   0.495   5.581   1.600 -1.0218  2.0765 -0.0729
34755SOL    HW2 8823   0.594   5.571   1.486  1.1545 -0.3492  1.9142
34756SOL     OW 8824   8.679   2.618   2.666  0.8012 -0.0463 -0.0985
34756SOL    HW1 8825   8.717   2.706   2.667 -0.3197  0.4799  1.6560
34756SOL    HW2 8826   8.742   2.564   2.712  0.5512  0.3263  0.7136
34757SOL     OW 8827   3.963  11.249   7.331 -0.0765 -0.4671 -0.1449
34757SOL    HW1 8828   3.942  11.312   7.263 -0.9550  0.0488  0.5750
34757SOL    HW2 8829   4.046  11.210   7.304 -1.2174 -1.5169 -2.3631
34758SOL     OW 8830  11.911  11.002  10.875  0.0780  0.0352  0.1856
34758SOL    HW1 8831  11.847  11.058  10.830  1.6200  2.7539  1.0991
34758SOL    HW2 8832  11.957  10.957  10.805 -1.0058  0.1463 -0.6246
34759SOL     OW 8833  11.054   9.620   6.299  0.0558  0.1125 -0.4859
34759SOL    HW1 8834  11.001   9.696   6.273 -1.0014 -0.5592 -0.3477
34759SOL    HW2 8835  10.991   9.548   6.304  1.0712 -0.8075 -0.7472
34760SOL     OW 8836   6.696   5.078   6.852 -0.2558 -0.2533 -0.0049
34760SOL    HW1 8837   6.608   5.060   6.819 -0.5671  0.2172  0.5560
34760SOL    HW2 8838   6.712   5.170   6.833 -0.6883  0.2041  1.6549
34761SOL     OW 8839   0.710   5.753   0.067  0.2053 -0.0914  0.0269
34761SOL    HW1 8840   0.702   5.796  -0.018 -0.8694  0.3090  0.3070
34761SOL    HW2 8841   0.705   5.659   0.047  0.2712 -0.0105 -0.3773
34762SOL     OW 8842  10.812   7.281   0.619 -0.2618  0.0134  0.1509
34762SOL    HW1 8843  10.767   7.216   0.565 -0.6080 -1.5079  2.1416
34762SOL    HW2 8844  10.899   7.289   0.580 -0.7721 -0.3868 -1.1123
34763SOL     OW 8845   1.448  11.980   9.355 -0.7237 -0.1461  0.1554
34763SOL    HW1 8846   1.471  11.970   9.263 -1.3739 -5.4675  0.2892
34763SOL    HW2 8847   1.362  12.022   9.354 -0.5665  0.1981 -1.6188
34764SOL     OW 8848   2.015   7.941  11.573 -0.0102  0.0385  0.0381
34764SOL    HW1 8849   1.978   8.022  11.609  0.1117  0.3847 -0.6140
34764SOL    HW2 8850   2.106   7.942  11.602 -0.2715 -0.4033  0.9326
34765SOL     OW 8851   8.805   8.304   3.428  0.5656 -0.3099  0.2175
34765SOL    HW1 8852   8.874   8.339   3.485 -0.4690 -0.0005  1.3186
34765SOL    HW2 8853   8.792   8.215   3.459 -0.9293  0.2756  1.4292
34766SOL     OW 8854   5.117   0.897   3.620 -0.2481  0.3556 -0.3136
34766SOL    HW1 8855   5.114   0.982   3.665 -1.4534 -0.9072  2.2102
34766SOL    HW2 8856   5.193   0.903   3.562 -0.6819  3.3567 -0.7315
34767SOL     OW 8857   6.712   5.091   8.517  0.3357  0.6535 -1.3382
34767SOL    HW1 8858   6.627   5.050   8.500 -0.1585  0.0081  2.0319
34767SOL    HW2 8859   6.691   5.179   8.547  0.6705  0.0107  0.9495
34768SOL     OW 8860  10.395  10.098   2.744  0.3889 -0.0811  0.2229
34768SOL    HW1 8861  10.459  10.170   2.743 -0.7485  1.1840 -4.2679
34768SOL    HW2 8862  10.312  10.140   2.767  0.2148 -0.5176  0.3934
34769SOL     OW 8863   8.677   2.060   7.241  0.4021 -0.1639  0.4241
34769SOL    HW1 8864   8.584   2.035   7.243  0.7343 -2.1154 -2.2076
34769SOL    HW2 8865   8.676   2.154   7.221 -1.0172 -0.1443  0.4790
34770SOL     OW 8866   7.562   9.347   4.528  0.0044 -0.3344 -0.8397
34770SOL    HW1 8867   7.631   9.371   4.590 -0.0352 -0.8428 -0.5962
34770SOL    HW2 8868   7.503   9.292   4.579 -0.4524 -0.1037 -1.1172
34771SOL     OW 8869   2.103   7.629   4.288  0.2705  0.2807  0.4912
34771SOL    HW1 8870   2.100   7.598   4.379 -1.0109 -0.1306  0.3355
34771SOL    HW2 8871   2.042   7.571   4.242  0.2643  1.0268 -0.4557
34772SOL     OW 8872   6.529   7.408   8.886  0.0226 -0.0644  0.5096
34772SOL    HW1 8873   6.552   7.421   8.795  1.2050 -0.3241  0.7560
34772SOL    HW2 8874   6.455   7.467   8.901 -0.8474 -0.7558 -0.8664
34773SOL     OW 8875   9.032   5.528   2.747 -0.1515  0.0608  0.3146
34773SOL    HW1 8876   9.047   5.622   2.761  1.5444  0.2255 -2.0456
34773SOL    HW2 8877   9.116   5.487   2.765  0.6916 -0.2899 -3.4725
34774SOL     OW 8878  10.898   4.217   0.283 -0.0304 -0.6819  0.3205
34774SOL    HW1 8879  10.911   4.270   0.204  2.6590  0.0577  1.1773
34774SOL    HW2 8880  10.825   4.260   0.328 -0.1242  0.2289 -0.6497
34775SOL     OW 8881   3.026   9.108   6.608 -0.6677  0.4304  0.2573
34775SOL    HW1 8882   3.007   9.067   6.693  0.0447  0.3772  0.3954
34775SOL    HW2 8883   3.121   9.099   6.598 -1.1075 -2.8672 -2.2336
34776SOL     OW 8884  11.990   9.821   1.524 -0.1160  0.0013 -0.0036
34776SOL    HW1 8885  12.056   9.797   1.589  0.9901  1.4406 -0.5164
34776SOL    HW2 8886  11.906   9.809   1.568  0.5506 -0.4181  1.1909
34777SOL     OW 8887   0.944   0.270   8.231  0.3970 -0.4636  0.4841
34777SOL    HW1 8888   0.998   0.246   8.156  0.4766 -0.1653  0.4436
34777SOL    HW2 8889   0.976   0.216   8.303  0.9181 -0.1115  0.5192
34778SOL     OW 8890   9.020  10.304   8.113 -0.5304  0.1603  0.3684
34778SOL    HW1 8891   8.999  10.288   8.021 -1.9793 -1.7948  0.9664
34778SOL    HW2 8892   9.049  10.219   8.146 -2.9069  0.0043  2.3667
34779SOL     OW 8893   7.980   8.828  11.207 -0.1202  0.2516  0.3724
34779SOL    HW1 8894   7.982   8.870  11.121 -0.0302  0.2240  0.3612
34779SOL    HW2 8895   8.068   8.841  11.243 -1.0029  3.0664  1.8107
34780SOL     OW 8896   1.483   7.551  12.074  0.2933  0.4596 -0.0190
34780SOL    HW1 8897   1.455   7.460  12.074 -0.3877  0.6172  1.9887
34780SOL    HW2 8898   1.576   7.548  12.051  0.5507 -0.8587  1.0599
34781SOL     OW 8899   3.771   6.836   1.844  1.0473  0.5431  0.0450
34781SOL    HW1 8900   3.741   6.897   1.777  0.2836  0.7462  0.5574
34781SOL    HW2 8901   3.808   6.893   1.912  0.5302  0.4250  0.4273
34782SOL     OW 8902   2.387   0.638   6.373  0.5372  0.2060  0.5351
34782SOL    HW1 8903   2.472   0.601   6.399  0.5005 -0.1262  0.1815
34782SOL    HW2 8904   2.325   0.566   6.382  0.5223  0.0900 -0.4572
34783SOL     OW 8905   4.439   8.289   2.864  0.1017 -0.5883  0.0368
34783SOL    HW1 8906   4.485   8.364   2.901 -0.7782 -0.1681  0.2987
34783SOL    HW2 8907   4.368   8.270   2.926 -1.2693 -0.0190 -1.2784
34784SOL     OW 8908   3.475  12.089   8.502  0.2467  0.5892 -0.3070
34784SOL    HW1 8909   3.407  12.104   8.568  1.1699 -1.4138  1.2220
34784SOL    HW2 8910   3.501  12.176   8.473 -0.2496  1.5573  1.9670
34785SOL     OW 8911   0.955   0.449   5.759 -0.5011  0.5097  0.3212
34785SOL    HW1 8912   0.883   0.395   5.793  0.3230  0.1079  1.4742
34785SOL    HW2 8913   0.911   0.518   5.709 -1.5598 -2.1662 -2.7751
34786SOL     OW 8914   0.362   1.994   6.082 -0.8641 -0.4297  0.0116
34786SOL    HW1 8915   0.390   2.084   6.092 -1.8872  0.0023 -0.7894
34786SOL    HW2 8916   0.385   1.972   5.992 -2.4144 -0.2824 -0.4468
34787SOL     OW 8917  12.116   8.793   0.194 -0.2375 -0.4711  0.6099
34787SOL    HW1 8918  12.071   8.818   0.275 -0.6637 -0.1241  0.2694
34787SOL    HW2 8919  12.186   8.735   0.223  0.7630  1.0752  1.4347
34788SOL     OW 8920   4.990   7.813   1.004  0.2208  0.3010 -0.0494
34788SOL    HW1 8921   4.909   7.804   1.053  1.3186 -0.7101  1.7018
34788SOL    HW2 8922   4.971   7.879   0.937 -1.6696  0.9844  1.0892
34789SOL     OW 8923   1.864  10.395  10.928  0.1275  0.4931 -0.2153
34789SOL    HW1 8924   1.879  10.301  10.921  0.7106  0.5109  0.6648
34789SOL    HW2 8925   1.770  10.402  10.945  0.1261  0.0440 -0.0013
34790SOL     OW 8926   7.669   9.782   0.890  0.1644  0.2924 -0.2747
34790SOL    HW1 8927   7.700   9.771   0.800  1.0456  0.9466 -0.0631
34790SOL    HW2 8928   7.597   9.844   0.883 -0.9916 -1.0652 -0.7442
34791SOL     OW 8929   8.665   9.774   1.978 -0.3920  0.3156 -0.0952
34791SOL    HW1 8930   8.684   9.711   2.048 -0.6810  0.7543  0.3883
34791SOL    HW2 8931   8.661   9.722   1.898  3.0687  0.1631 -0.3245
34792SOL     OW 8932  10.653  10.838   7.869 -0.3066  0.7688 -0.3302
34792SOL    HW1 8933  10.597  10.910   7.896 -0.9526 -0.2046  1.0455
34792SOL    HW2 8934  10.615  10.761   7.912  0.5758 -0.3333 -1.4537
34793SOL     OW 8935   1.033   1.798   7.340 -0.2004 -0.5281  0.4951
34793SOL    HW1 8936   0.983   1.731   7.387 -1.2278 -0.5455 -0.5599
34793SOL    HW2 8937   1.023   1.877   7.394  0.4588 -1.0490  1.4027
34794SOL     OW 8938   9.279   3.123   0.657 -0.0738  0.4731 -0.1283
34794SOL    HW1 8939   9.212   3.173   0.609  1.4707  1.1761 -1.6985
34794SOL    HW2 8940   9.255   3.032   0.644 -1.9695  0.7071  1.2896
34795SOL     OW 8941   8.291   7.979   5.160  0.4106 -0.0356  0.8479
34795SOL    HW1 8942   8.290   7.993   5.065 -0.2683 -0.3930  0.7952
34795SOL    HW2 8943   8.380   8.001   5.186  0.7126 -0.2860  0.0694
34796SOL     OW 8944   0.416   4.774   6.858 -0.0474 -0.8499  0.2976
34796SOL    HW1 8945   0.506   4.779   6.890 -0.5651  0.8641  1.6242
34796SOL    HW2 8946   0.364   4.755   6.935 -0.8266 -1.9669 -0.4853
34797SOL     OW 8947   1.825  11.937   5.067 -0.2945 -0.5337  0.0295
34797SOL    HW1 8948   1.771  11.976   5.136  1.3956  1.0365  0.5566
34797SOL    HW2 8949   1.855  12.012   5.016  2.8607 -1.0943  0.8761
34798SOL     OW 8950   6.987  11.938   5.591 -0.1534  1.5025 -0.2823
34798SOL    HW1 8951   6.894  11.925   5.570 -0.1340 -1.0309  0.8694
34798SOL    HW2 8952   7.026  11.968   5.509 -1.6630  0.7670 -1.3187
34799SOL     OW 8953   5.221   8.606   7.496  0.4501  1.0039  0.1509
34799SOL    HW1 8954   5.224   8.668   7.423 -0.3224  0.6264 -0.2172
34799SOL    HW2 8955   5.144   8.552   7.479  1.1389 -0.1085  0.4314
34800SOL     OW 8956  10.059  10.499   5.529 -0.6374 -0.3518 -0.0070
34800SOL    HW1 8957  10.153  10.480   5.532  0.0361  2.3437  4.1690
34800SOL    HW2 8958  10.016  10.415   5.547  0.9831 -1.3388 -0.5268
34801SOL     OW 8959  10.085   9.847   8.957 -0.2748 -0.1280  0.5678
34801SOL    HW1 8960  10.013   9.900   8.991  0.5796  0.8291  0.9386
34801SOL    HW2 8961  10.133   9.819   9.035  0.9687  1.0188  0.2531
34802SOL     OW 8962   4.755  11.898   2.436  0.1468 -0.0384 -0.1353
34802SOL    HW1 8963   4.838  11.920   2.395  0.2466  1.4549  0.7953
34802SOL    HW2 8964   4.767  11.921   2.529 -1.2789  0.1652  0.0202
34803SOL     OW 8965   7.269   0.308   4.149 -0.0186 -0.2427 -0.1053
34803SOL    HW1 8966   7.180   0.275   4.163 -0.2496 -1.2782 -3.2666
34803SOL    HW2 8967   7.258   0.381   4.088  1.3624 -1.6651 -2.1625
34804SOL     OW 8968   2.414   1.705   3.780 -0.2384 -0.6027  0.1807
34804SOL    HW1 8969   2.378   1.792   3.764  1.0439  0.1262  1.1102
34804SOL    HW2 8970   2.433   1.671   3.693 -0.2653  0.2514 -0.1649
34805SOL     OW 8971   6.272   7.156  10.902  0.2633 -0.0769 -0.4925
34805SOL    HW1 8972   6.292   7.114  10.985  0.3360 -0.4344 -0.6907
34805SOL    HW2 8973   6.270   7.250  10.922 -0.1995 -0.1903  0.0075
34806SOL     OW 8974   4.064  11.077   8.206 -0.1932 -0.7431 -0.5903
34806SOL    HW1 8975   4.124  11.143   8.171  0.4367 -0.7121  0.5015
34806SOL    HW2 8976   4.033  11.029   8.129 -1.1583  1.2169 -1.4917
34807SOL     OW 8977   6.972   3.285   3.752 -0.1015 -0.3240 -0.2615
34807SOL    HW1 8978   6.914   3.211   3.772  0.4430 -0.4731  0.8223
34807SOL    HW2 8979   7.050   3.245   3.714 -0.0487 -0.2552 -0.2248
34808SOL     OW 8980   0.591   8.124   3.666  0.3801  0.1189 -0.0124
34808SOL    HW1 8981   0.649   8.155   3.596  0.8747 -0.6144  0.0704
34808SOL    HW2 8982   0.512   8.094   3.620 -1.1331  3.5271  0.0077
34809SOL     OW 8983   0.802  12.041   3.997  0.2115 -0.0972 -0.3611
34809SOL    HW1 8984   0.852  12.016   3.920 -1.0066  2.0320 -1.9740
34809SOL    HW2 8985   0.712  12.047   3.966 -0.2837  1.0335  1.1618
34810SOL     OW 8986   0.126   8.013   7.207  0.2384  0.0804  0.2175
34810SOL    HW1 8987   0.206   8.030   7.256  1.1331 -1.4922 -0.6166
34810SOL    HW2 8988   0.107   8.095   7.161  1.1383  0.5872  0.7268
34811SOL     OW 8989   4.585   4.528   7.452  0.4819 -0.0332 -0.6532
34811SOL    HW1 8990   4.552   4.458   7.395 -2.5659  1.3336 -0.7476
34811SOL    HW2 8991   4.573   4.494   7.540  0.7733 -0.3456 -0.7310
34812SOL     OW 8992   4.352   3.066  10.897  0.4342  0.1643 -0.1405
34812SOL    HW1 8993   4.261   3.088  10.876  0.2427 -0.7812 -0.3272
34812SOL    HW2 8994   4.384   3.021  10.819  0.7346 -0.4492  0.3300
34813SOL     OW 8995   0.927   7.990   1.375 -0.7504  0.1558 -0.1126
34813SOL    HW1 8996   0.919   7.896   1.392  0.5872 -0.3213 -1.8214
34813SOL    HW2 8997   0.984   7.996   1.298 -1.1419  2.3608 -0.3045
34814SOL     OW 8998  11.531  10.245  10.659 -0.1446 -0.1475 -0.1044
34814SOL    HW1 8999  11.605  10.211  10.709 -0.0503  0.3679  0.1095
34814SOL    HW2 9000  11.569  10.302  10.593 -0.1343 -2.0499 -1.8524
34815SOL     OW 9001   0.134   0.581   9.017 -0.0545  0.0248 -0.6527
34815SOL    HW1 9002   0.067   0.620   9.073  2.3634  0.0321  2.5077
34815SOL    HW2 9003   0.107   0.490   9.008 -1.9763  0.6489 -2.0552
34816SOL     OW 9004   2.522   0.654  11.066  0.0197  0.2380 -0.5415
34816SOL    HW1 9005   2.498   0.733  11.115  0.3254  1.0403 -1.6350
34816SOL    HW2 9006   2.610   0.633  11.097 -0.3580 -0.1501  0.3134
34817SOL     OW 9007   5.389  10.898   9.847 -0.2891  0.7195  0.0846
34817SOL    HW1 9008   5.456  10.830   9.834 -0.7417  0.3087 -0.1564
34817SOL    HW2 9009   5.309  10.849   9.868 -0.3821  1.2289  0.9850
34818SOL     OW 9010  10.865   2.594   2.156 -0.4511  0.2909 -0.3562
34818SOL    HW1 9011  10.794   2.573   2.095  0.6962  1.0393 -2.0249
34818SOL    HW2 9012  10.884   2.686   2.139  0.4976  0.2622  0.4959
34819SOL     OW 9013   7.441   6.793   9.686  0.1737  0.3201  0.1478
34819SOL    HW1 9014   7.354   6.828   9.708  0.0301  0.2337 -0.2613
34819SOL    HW2 9015   7.477   6.858   9.626  0.4046  0.3685  0.3401
34820SOL     OW 9016   7.054   8.949   8.345  0.3481  0.6235  0.3978
34820SOL    HW1 9017   7.077   8.869   8.296  0.4456  1.2593 -0.6330
34820SOL    HW2 9018   7.117   9.014   8.315  0.7909  0.8923  1.8482
34821SOL     OW 9019   0.853  11.010   3.623  0.4680  0.0142  0.4956
34821SOL    HW1 9020   0.933  10.968   3.589  0.6954  0.3557  0.6080
34821SOL    HW2 9021   0.837  11.083   3.563  0.4946  0.2171  0.7364
34822SOL     OW 9022   3.922   2.137   2.923 -0.1966  0.6848  0.1480
34822SOL    HW1 9023   3.954   2.225   2.902  0.4043  0.1350 -1.4562
34822SOL    HW2 9024   3.836   2.151   2.961  0.3454  2.0161  0.9728
34823SOL     OW 9025   8.232   0.594   3.597  0.5459 -0.6235  0.1406
34823SOL    HW1 9026   8.258   0.654   3.666  1.8678 -0.8432 -0.1410
34823SOL    HW2 9027   8.156   0.547   3.632  0.1860  0.4210  0.7852
34824SOL     OW 9028   7.835   3.383  10.503  0.2884 -0.0729  0.4774
34824SOL    HW1 9029   7.919   3.427  10.512 -0.0976  1.0436 -0.9595
34824SOL    HW2 9030   7.770   3.452  10.513 -0.4473 -0.7995  0.8598
34825SOL     OW 9031   8.681   5.798   7.292  0.0385 -0.6537 -0.2717
34825SOL    HW1 9032   8.591   5.828   7.285  0.3121  0.4058  0.5561
34825SOL    HW2 9033   8.675   5.710   7.329 -0.6520 -0.6215 -0.3037
34826SOL     OW 9034   9.291  11.485   7.788  0.1914 -0.2880  0.3335
34826SOL    HW1 9035   9.207  11.498   7.742 -0.3551 -0.2744  1.3121
34826SOL    HW2 9036   9.356  11.521   7.728 -0.3636 -1.2967 -0.9513
34827SOL     OW 9037   5.168   0.980   1.471  0.2199 -0.1598 -0.1591
34827SOL    HW1 9038   5.170   1.056   1.413  0.8188  0.1581  0.2637
34827SOL    HW2 9039   5.207   1.011   1.552  0.7068 -0.9870 -0.0604
34828SOL     OW 9040   2.625   8.158   8.748  0.1401 -0.2444 -0.4109
34828SOL    HW1 9041   2.581   8.231   8.792 -0.4563 -1.5462  1.2724
34828SOL    HW2 9042   2.692   8.130   8.810  1.2195 -0.3527 -1.5878
34829SOL     OW 9043   4.229   7.515   1.664 -0.4282 -0.2520 -0.5285
34829SOL    HW1 9044   4.207   7.480   1.578  0.5627 -1.8005 -0.2070
34829SOL    HW2 9045   4.250   7.437   1.716  4.0345  0.8100 -0.3399
34830SOL     OW 9046   3.782   9.748   6.860  0.1564  0.6179  0.4636
34830SOL    HW1 9047   3.706   9.801   6.836  0.6414  0.3972 -1.8015
34830SOL    HW2 9048   3.797   9.692   6.783  1.4962 -0.6495  1.5899
34831SOL     OW 9049   4.455  11.313   7.030  0.3201 -0.2334  0.1496
34831SOL    HW1 9050   4.399  11.361   6.970 -0.4355  0.3536  1.2852
34831SOL    HW2 9051   4.541  11.312   6.988 -0.3120 -0.3134 -1.1724
34832SOL     OW 9052   8.497   4.692   4.434  0.1403  0.0067 -0.5549
34832SOL    HW1 9053   8.486   4.787   4.437 -0.7211 -0.0949  1.3390
34832SOL    HW2 9054   8.412   4.659   4.406  0.1611 -0.2437 -0.3217
34833SOL     OW 9055   2.046   5.317   3.735  0.2660 -0.1217 -0.3907
34833SOL    HW1 9056   2.031   5.273   3.651 -0.2183 -0.7909  0.0390
34833SOL    HW2 9057   1.959   5.321   3.775  0.6146 -0.4873  0.4131
34834SOL     OW 9058   6.189   0.105   3.366 -0.1084 -0.0160  0.0690
34834SOL    HW1 9059   6.245   0.067   3.298  2.0431  2.3822  0.3827
34834SOL    HW2 9060   6.100   0.080   3.340  0.9399 -3.3495 -0.8467
34835SOL     OW 9061   8.062   2.026   4.020  0.7531  0.0534  0.1704
34835SOL    HW1 9062   8.075   2.016   3.926 -0.8472  0.8479 -0.1651
34835SOL    HW2 9063   7.973   1.995   4.036 -0.0724  2.5984  0.9347
34836SOL     OW 9064   2.561   7.458   2.445 -0.0373  0.4628  0.4043
34836SOL    HW1 9065   2.492   7.518   2.472 -1.4795 -1.5195  1.3550
34836SOL    HW2 9066   2.555   7.455   2.350 -1.6852 -0.1318  0.5106
34837SOL     OW 9067   5.166   1.946   6.716  0.0386  0.1024 -0.3261
34837SOL    HW1 9068   5.153   1.852   6.727  1.4583  0.0805  1.6929
34837SOL    HW2 9069   5.165   1.981   6.805  1.0664  1.7825 -0.9350
34838SOL     OW 9070   6.780  10.851  10.369  0.8896 -0.0051 -0.0106
34838SOL    HW1 9071   6.751  10.939  10.348  0.9534  0.4191  1.5149
34838SOL    HW2 9072   6.755  10.798  10.294 -0.0392  1.1289 -0.5259
34839SOL     OW 9073   2.497   0.844  10.419  1.0833 -0.3082  0.1404
34839SOL    HW1 9074   2.509   0.898  10.497  1.8327 -1.3317  0.7600
34839SOL    HW2 9075   2.438   0.895  10.363  0.4678  0.4003  1.4020
34840SOL     OW 9076   0.215   2.846   3.328  0.0176 -0.1295  0.3168
34840SOL    HW1 9077   0.278   2.828   3.398  0.3794 -0.7855 -0.1727
34840SOL    HW2 9078   0.135   2.872   3.375  0.0476 -1.2027  1.0025
34841SOL     OW 9079   0.015   2.147   8.453 -0.2501  0.1404 -0.1921
34841SOL    HW1 9080   0.026   2.185   8.366  3.7593 -0.7881 -0.2588
34841SOL    HW2 9081  -0.010   2.056   8.437 -2.1187  0.6185 -0.2193
34842SOL     OW 9082   7.159   0.024   6.193 -0.9867 -0.1973 -0.2182
34842SOL    HW1 9083   7.184   0.015   6.285 -1.3134 -0.6937 -0.1706
34842SOL    HW2 9084   7.172   0.117   6.173  0.2769 -0.3252 -0.0315
34843SOL     OW 9085   8.725   9.974   8.230 -0.1242  0.5464  0.5358
34843SOL    HW1 9086   8.739   9.978   8.136 -2.2898  1.5862  0.1911
34843SOL    HW2 9087   8.651   9.914   8.240 -0.8307  1.5453  1.4397
34844SOL     OW 9088  11.616   6.661   5.478 -0.3932  0.1238 -0.2000
34844SOL    HW1 9089  11.553   6.725   5.445 -0.1010  0.9399  0.7803
34844SOL    HW2 9090  11.700   6.688   5.441 -0.4703 -0.4773 -0.8391
34845SOL     OW 9091   9.724   1.302   7.371 -0.3186  0.1287 -0.2827
34845SOL    HW1 9092   9.728   1.397   7.362  0.4179  0.2807  1.3523
34845SOL    HW2 9093   9.684   1.287   7.456  1.2188 -0.9670  0.2979
34846SOL     OW 9094   3.521   9.843   1.152 -0.0122  0.1588  0.6700
34846SOL    HW1 9095   3.526   9.928   1.195 -1.2473 -0.4330  2.0739
34846SOL    HW2 9096   3.599   9.839   1.098  0.5203  1.8147  1.2544
34847SOL     OW 9097   1.582   5.903   3.898  0.4457  0.6781  0.6742
34847SOL    HW1 9098   1.605   5.838   3.831  2.2481  1.7698  0.1491
34847SOL    HW2 9099   1.644   5.886   3.969 -2.2865 -1.3228  2.7508
34848SOL     OW 9100   8.097   8.566   0.227  0.5252  0.1149  0.1947
34848SOL    HW1 9101   8.022   8.554   0.169 -1.0118 -0.9620  2.2698
34848SOL    HW2 9102   8.167   8.514   0.188 -0.0736  0.4131 -1.3125
34849SOL     OW 9103   0.810   0.858  10.941  0.1300 -0.0192  0.2232
34849SOL    HW1 9104   0.858   0.790  10.988 -0.5615  0.2790  1.4037
34849SOL    HW2 9105   0.728   0.815  10.916 -0.2482  0.3250  0.8482
34850SOL     OW 9106   3.344   2.428   6.455 -0.2442  0.2846 -0.2304
34850SOL    HW1 9107   3.403   2.491   6.414 -1.5918  1.5635 -0.2907
34850SOL    HW2 9108   3.341   2.453   6.547  0.4230 -0.7063  0.0825
34851SOL     OW 9109   0.178   7.510   9.516  0.5816  0.2882  0.2159
34851SOL    HW1 9110   0.270   7.509   9.489  0.1576  1.1348 -1.3726
34851SOL    HW2 9111   0.158   7.418   9.536  1.4825 -0.0769 -0.4697
34852SOL     OW 9112   7.566  10.582   9.240  0.1153 -0.0311 -0.0499
34852SOL    HW1 9113   7.607  10.509   9.194 -0.4294 -0.9916  0.9192
34852SOL    HW2 9114   7.640  10.632   9.276  0.6174 -2.5514  2.9296
34853SOL     OW 9115   0.688   4.312  10.649 -0.2966  0.4658  0.0068
34853SOL    HW1 9116   0.733   4.396  10.640 -1.3618  0.9577 -1.0138
34853SOL    HW2 9117   0.735   4.267  10.719  0.0501  2.0895  0.8759
34854SOL     OW 9118   1.693  11.079   2.017 -0.5389  0.2604  0.6263
34854SOL    HW1 9119   1.667  11.133   2.091  0.3025  2.0873 -0.3354
34854SOL    HW2 9120   1.736  11.003   2.056 -2.8866 -0.4348  2.0656
34855SOL     OW 9121   3.381  11.812   6.230  0.0939 -0.0575 -0.7913
34855SOL    HW1 9122   3.342  11.880   6.175 -0.8855 -0.1210 -0.1946
34855SOL    HW2 9123   3.474  11.835   6.233  0.4203 -0.7330 -3.4144
34856SOL     OW 9124   5.309   8.305   0.774 -0.2353  0.3066  0.2840
34856SOL    HW1 9125   5.244   8.253   0.727  0.5359 -0.4158 -0.0020
34856SOL    HW2 9126   5.381   8.316   0.712  1.2459 -1.5136  1.5598
34857SOL     OW 9127   3.736   6.821   6.525 -0.2784  0.4348  0.4268
34857SOL    HW1 9128   3.701   6.910   6.518  1.3616  1.0536 -0.6670
34857SOL    HW2 9129   3.751   6.808   6.618  1.5357  2.2201  0.4563
34858SOL     OW 9130   0.429   6.726   9.792  0.3293 -0.3505  0.3662
34858SOL    HW1 9131   0.398   6.747   9.703 -0.0227 -2.3360 -0.0159
34858SOL    HW2 9132   0.491   6.654   9.780  1.2942  0.2252  1.6328
34859SOL     OW 9133   4.785  10.758  11.585  0.2255  0.1035  0.0163
34859SOL    HW1 9134   4.828  10.783  11.504 -0.8213  1.7998 -0.0430
34859SOL    HW2 9135   4.851  10.774  11.653  0.3245  0.8927 -0.2619
34860SOL     OW 9136   5.819   3.658   2.532  0.3533 -0.2500 -0.3136
34860SOL    HW1 9137   5.854   3.688   2.449 -0.6492  0.4550 -0.5042
34860SOL    HW2 9138   5.750   3.595   2.508  0.6428 -0.7026  0.0156
34861SOL     OW 9139  10.033   2.326   4.448 -0.5961  0.3032  0.4910
34861SOL    HW1 9140  10.004   2.416   4.463 -1.7224 -0.1048  0.9051
34861SOL    HW2 9141  10.080   2.329   4.365  0.5947  1.5220  1.1584
34862SOL     OW 9142   9.095   5.913   4.989  0.4065 -0.2794  0.1749
34862SOL    HW1 9143   9.162   5.890   5.054  0.3787 -1.0939 -0.0649
34862SOL    HW2 9144   9.052   5.990   5.024  1.8758  0.6418  0.0478
34863SOL     OW 9145   4.926   4.339   8.499  0.2193 -0.1367  0.1395
34863SOL    HW1 9146   4.877   4.364   8.578  0.8552  0.8048  0.2531
34863SOL    HW2 9147   4.990   4.409   8.487 -0.2060  0.0100 -1.5213
34864SOL     OW 9148   8.795   0.373   0.902  0.1769  0.0317 -0.2584
34864SOL    HW1 9149   8.873   0.366   0.847 -0.1122  1.1822 -0.8500
34864SOL    HW2 9150   8.792   0.466   0.927 -0.1896 -0.2903  0.9742
34865SOL     OW 9151  10.041   2.507   4.133  0.0024  0.3273  0.4157
34865SOL    HW1 9152  10.109   2.453   4.173  0.9802  0.4339 -1.0185
34865SOL    HW2 9153  10.086   2.589   4.110 -0.5468  0.3510 -0.6589
34866SOL     OW 9154   6.039   5.651   2.542  0.3328 -0.5191  0.3385
34866SOL    HW1 9155   6.097   5.649   2.618  0.8868  1.1141  0.0069
34866SOL    HW2 9156   6.058   5.571   2.494  0.3161 -1.3380  1.6650
34867SOL     OW 9157   6.407   5.841   0.626  0.6437  0.2767  0.3566
34867SOL    HW1 9158   6.393   5.788   0.704 -1.3143 -1.0030 -0.7865
34867SOL    HW2 9159   6.377   5.929   0.651  0.6124  0.0275  1.2168
34868SOL     OW 9160   9.149   5.329   8.455  0.0962  0.1486  0.6839
34868SOL    HW1 9161   9.212   5.387   8.498  0.6684  1.1606 -1.3665
34868SOL    HW2 9162   9.097   5.387   8.400 -0.8487 -1.0180  0.3036
34869SOL     OW 9163  11.153   1.362  11.215  0.2503  0.1107 -0.2126
34869SOL    HW1 9164  11.224   1.306  11.245 -1.2700 -1.3621  0.8155
34869SOL    HW2 9165  11.173   1.379  11.123  1.6071 -0.7557 -0.1075
34870SOL     OW 9166   3.738   1.400   6.257  0.2793  0.0257  0.0760
34870SOL    HW1 9167   3.769   1.392   6.166 -2.0353 -0.3505 -0.7459
34870SOL    HW2 9168   3.735   1.494   6.272  1.4771  0.0836  0.1014
34871SOL     OW 9169   2.825   5.498   4.717  0.1667  0.3733  0.5144
34871SOL    HW1 9170   2.879   5.424   4.743 -0.7174 -0.0750  1.1146
34871SOL    HW2 9171   2.875   5.541   4.647  1.1170 -0.2336  0.8035
34872SOL     OW 9172   6.722   4.620   8.047 -0.6469 -0.1002  0.2043
34872SOL    HW1 9173   6.706   4.660   8.132 -0.2091 -1.4926  0.9672
34872SOL    HW2 9174   6.636   4.619   8.004 -0.6637  1.6759  0.1120
34873SOL     OW 9175   2.864   5.069   7.915 -0.1224 -0.2101  0.1587
34873SOL    HW1 9176   2.823   5.155   7.912  1.0024  0.4095  1.5202
34873SOL    HW2 9177   2.875   5.051   8.009  0.3705 -1.4853 -0.1260
34874SOL     OW 9178   5.356   0.055   0.911  0.5258 -0.2114  0.8262
34874SOL    HW1 9179   5.400   0.007   0.840  0.5748  2.0788 -0.7954
34874SOL    HW2 9180   5.427   0.087   0.966  0.5890 -0.5736  0.9588
34875SOL     OW 9181   0.158   6.032   7.008 -0.3523  0.1480  0.0574
34875SOL    HW1 9182   0.197   5.945   7.009 -0.0475  0.2716 -0.5513
34875SOL    HW2 9183   0.089   6.027   6.942 -0.0344  0.4859 -0.3121
34876SOL     OW 9184   9.690   8.342   6.524 -0.1910  0.1129  0.1260
34876SOL    HW1 9185   9.689   8.348   6.619 -2.3094 -1.3776  0.2783
34876SOL    HW2 9186   9.692   8.433   6.494  1.3285  0.5967  1.5384
34877SOL     OW 9187   9.659  10.129  11.627  0.7823 -0.0743  0.3220
34877SOL    HW1 9188   9.676  10.045  11.585 -2.7226  0.6176 -3.0117
34877SOL    HW2 9189   9.642  10.106  11.719  1.4734 -2.7444 -0.1263
34878SOL     OW 9190   7.027   4.589   5.825  0.6182  0.4872  0.6683
34878SOL    HW1 9191   7.019   4.494   5.816 -0.8196  0.5816  0.7397
34878SOL    HW2 9192   6.965   4.611   5.894 -2.1441  1.9110 -2.0397
34879SOL     OW 9193   9.855   0.532  10.872 -0.0888  0.4976 -0.3804
34879SOL    HW1 9194   9.825   0.589  10.801  2.2537 -0.0436 -1.9557
34879SOL    HW2 9195   9.950   0.542  10.871  0.1249 -0.8278  1.6013
34880SOL     OW 9196   3.127  11.571   1.179 -0.4537  0.1224 -0.6140
34880SOL    HW1 9197   3.190  11.627   1.224 -0.1271 -0.6387 -0.0945
34880SOL    HW2 9198   3.141  11.588   1.086 -2.0816  2.7639 -0.4965
34881SOL     OW 9199  10.953   1.214   5.564  0.0460 -0.4153  0.2631
34881SOL    HW1 9200  11.024   1.177   5.512 -0.6163 -1.6202  0.1718
34881SOL    HW2 9201  10.914   1.139   5.608 -1.5565  0.1112 -0.1725
34882SOL     OW 9202   0.581   7.357   7.840 -0.1041 -0.1650  0.4249
34882SOL    HW1 9203   0.561   7.293   7.773  0.3692  1.0034 -0.8695
34882SOL    HW2 9204   0.508   7.350   7.902 -0.7998 -0.9246 -0.4570
34883SOL     OW 9205   4.508   9.543   9.126  0.3825 -1.0390 -0.1650
34883SOL    HW1 9206   4.582   9.520   9.071  0.6044  0.7570 -0.7083
34883SOL    HW2 9207   4.432   9.538   9.067  0.4025 -0.6471 -0.2282
34884SOL     OW 9208   6.336  10.573  12.035  0.2473 -0.1646 -0.6234
34884SOL    HW1 9209   6.388  10.638  11.989  0.2619  0.1362 -0.1834
34884SOL    HW2 9210   6.400  10.506  12.062  0.5083  0.4874  0.4200
34885SOL     OW 9211   9.101   9.257   6.394  0.3349 -0.2563  0.4657
34885SOL    HW1 9212   9.074   9.259   6.303 -0.4524  1.2711  0.7074
34885SOL    HW2 9213   9.034   9.204   6.438  0.1462 -0.1349  0.3254
34886SOL     OW 9214   7.230   7.059   5.752 -0.3191 -0.0291 -0.2507
34886SOL    HW1 9215   7.141   7.084   5.727 -0.0256  0.5648 -0.7400
34886SOL    HW2 9216   7.234   7.076   5.846 -0.8685 -0.5290 -0.1266
34887SOL     OW 9217   3.583   5.156   9.338 -0.0597 -0.4234 -0.1825
34887SOL    HW1 9218   3.633   5.237   9.328  0.2393 -0.6920 -0.8960
34887SOL    HW2 9219   3.540   5.144   9.254  0.4482 -1.3707 -0.3232
34888SOL     OW 9220   2.486  11.382   7.789  0.2688  0.1828  0.4313
34888SOL    HW1 9221   2.418  11.448   7.774  0.1741 -0.3781 -1.8983
34888SOL    HW2 9222   2.438  11.305   7.820 -0.2666 -0.3359 -1.5732
34889SOL     OW 9223   0.686   2.526   3.665  0.3166  0.3597  0.0410
34889SOL    HW1 9224   0.627   2.470   3.614 -0.6009 -0.3466  1.7726
34889SOL    HW2 9225   0.689   2.485   3.751  1.1403  1.9536  0.8138
34890SOL     OW 9226   5.610   8.036   0.177 -0.0782 -0.3212  0.2572
34890SOL    HW1 9227   5.537   8.047   0.116  0.8175 -1.1213 -1.0288
34890SOL    HW2 9228   5.666   7.969   0.136  2.5776  1.8844 -0.0244
34891SOL     OW 9229   8.266  10.800   2.652  0.2982 -0.7263  0.2926
34891SOL    HW1 9230   8.266  10.878   2.595  0.2224 -0.8626  0.1060
34891SOL    HW2 9231   8.355  10.797   2.687  0.5350 -0.9942 -0.3078
34892SOL     OW 9232   1.256   5.075   8.605  0.1203 -0.6759  0.1269
34892SOL    HW1 9233   1.165   5.064   8.577  0.1265  2.5962 -1.7223
34892SOL    HW2 9234   1.307   5.065   8.524  1.2001 -0.4104  0.7527
34893SOL     OW 9235   2.735   0.251   3.785 -0.3654  0.0883  0.4428
34893SOL    HW1 9236   2.717   0.220   3.696 -1.2003  1.7769 -0.0068
34893SOL    HW2 9237   2.782   0.334   3.772 -1.2750  0.7936  1.5628
34894SOL     OW 9238   2.122   7.214   9.332  0.2241  0.4329  0.3919
34894SOL    HW1 9239   2.212   7.237   9.310  0.3341 -0.5275 -0.2256
34894SOL    HW2 9240   2.069   7.275   9.282  0.5038 -0.9054 -1.6621
34895SOL     OW 9241   9.709   9.401  10.824  0.3300 -0.4696 -0.2478
34895SOL    HW1 9242   9.726   9.452  10.903 -0.6073 -3.7142  2.2976
34895SOL    HW2 9243   9.617   9.377  10.831  0.0397 -0.3198 -2.7441
34896SOL     OW 9244   2.372   3.135  10.431 -0.0405 -0.5771  0.1001
34896SOL    HW1 9245   2.455   3.168  10.396  0.2925 -0.1569  1.2322
34896SOL    HW2 9246   2.396   3.089  10.511 -0.7532 -1.7346 -0.3143
34897SOL     OW 9247  10.708  10.792   3.192 -0.4537 -0.0806  0.9754
34897SOL    HW1 9248  10.640  10.859   3.196 -0.0060  0.3511  1.6734
34897SOL    HW2 9249  10.662  10.709   3.207 -0.9703  0.0979  0.3870
34898SOL     OW 9250  11.827   6.808   8.259  0.7573 -0.3406 -0.6711
34898SOL    HW1 9251  11.871   6.888   8.229  0.0631  0.4729  0.3958
34898SOL    HW2 9252  11.832   6.748   8.185 -0.4957  1.4006 -2.2261
34899SOL     OW 9253   9.536   9.557   0.839 -0.1887 -0.5732  0.4727
34899SOL    HW1 9254   9.567   9.535   0.927  0.3645  1.0791  0.7189
34899SOL    HW2 9255   9.443   9.535   0.841  0.3257 -3.0118  0.5941
34900SOL     OW 9256   4.420  10.512   9.820  0.2637 -0.1977  0.2082
34900SOL    HW1 9257   4.451  10.582   9.762 -0.9235  0.5399  0.4334
34900SOL    HW2 9258   4.491  10.501   9.884  2.7933 -2.7469 -2.6680
34901SOL     OW 9259   3.704   7.598   7.990  0.2538 -0.4280 -0.2702
34901SOL    HW1 9260   3.666   7.685   7.996  1.1632  0.1101 -1.7962
34901SOL    HW2 9261   3.636   7.544   7.949  0.7761  0.3398 -2.2486
34902SOL     OW 9262  12.044  10.568  11.225  0.0650  0.1662 -0.1343
34902SOL    HW1 9263  12.065  10.483  11.186  1.6715  0.0341  0.9227
34902SOL    HW2 9264  11.968  10.599  11.176  1.7104 -0.1533 -3.0896
34903SOL     OW 9265   1.380   3.030   4.753  0.0769  0.2825  0.0006
34903SOL    HW1 9266   1.303   2.984   4.720 -0.5585  0.1935  1.5132
34903SOL    HW2 9267   1.403   2.983   4.833  1.1140  0.9184  0.0929
34904SOL     OW 9268   6.178   0.614   8.256 -0.0266  0.0969  0.1577
34904SOL    HW1 9269   6.203   0.524   8.279 -3.5670 -0.7925  1.1668
34904SOL    HW2 9270   6.169   0.659   8.341 -1.3737  0.4142 -0.1251
34905SOL     OW 9271   6.943   9.710   3.688 -0.8496  0.3408  0.2466
34905SOL    HW1 9272   6.929   9.691   3.780  1.0821 -1.2688  0.2839
34905SOL    HW2 9273   7.032   9.680   3.670 -1.7439 -1.0762 -2.5423
34906SOL     OW 9274  10.856   9.341  11.763 -0.0413 -0.1851 -0.1552
34906SOL    HW1 9275  10.771   9.383  11.758  0.3213  0.4543 -1.8145
34906SOL    HW2 9276  10.837   9.247  11.763 -0.8931 -0.2293  4.2359
34907SOL     OW 9277   5.737   1.359   5.419  0.7703 -0.0977 -0.0892
34907SOL    HW1 9278   5.772   1.448   5.423  0.8297 -0.1227 -0.0556
34907SOL    HW2 9279   5.643   1.371   5.402  0.3120  0.0419  2.2201
34908SOL     OW 9280   7.408   3.455   6.638 -0.3644  0.2396  0.3366
34908SOL    HW1 9281   7.456   3.399   6.698  0.7764 -0.3504 -1.0553
34908SOL    HW2 9282   7.473   3.518   6.606 -0.5772 -0.2791 -1.2420
34909SOL     OW 9283   0.225   1.193  10.981 -0.5507 -0.0873 -0.4119
34909SOL    HW1 9284   0.130   1.189  10.990 -0.5250 -0.1370 -0.1561
34909SOL    HW2 9285   0.254   1.251  11.052 -0.4261  0.2544 -0.7406
34910SOL     OW 9286   9.156   8.971   6.567 -0.1988  0.1860  0.0801
34910SOL    HW1 9287   9.064   8.961   6.541 -0.0374 -2.0815  0.1403
34910SOL    HW2 9288   9.199   9.004   6.488 -1.1043  1.6891  0.1834
34911SOL     OW 9289   3.429   3.986  11.475 -0.1111  0.6445  0.3927
34911SOL    HW1 9290   3.453   4.065  11.427 -0.5141  1.2886  1.2149
34911SOL    HW2 9291   3.454   3.914  11.418  1.7812  1.3272  0.3072
34912SOL     OW 9292   0.298   8.634   6.227  0.0039 -0.0436  0.7516
34912SOL    HW1 9293   0.224   8.581   6.258 -0.9226 -0.2759 -1.6124
34912SOL    HW2 9294   0.256   8.710   6.185  1.0259 -0.6484 -1.4752
34913SOL     OW 9295   5.078   6.125   5.182  0.6617 -0.1005  0.1354
34913SOL    HW1 9296   5.011   6.184   5.218  1.1896  0.6208 -0.0504
34913SOL    HW2 9297   5.161   6.167   5.204  1.0266 -0.4216 -0.6081
34914SOL     OW 9298   8.450  12.126   6.178 -0.2435  0.0441 -0.0041
34914SOL    HW1 9299   8.504  12.202   6.156  1.5129 -0.5687  1.9377
34914SOL    HW2 9300   8.483  12.056   6.121 -1.7130  0.5888 -1.6313
34915SOL     OW 9301   7.582   9.556   4.363  0.0200 -0.6249  0.5379
34915SOL    HW1 9302   7.573   9.510   4.279 -1.5062 -0.0439  0.3455
34915SOL    HW2 9303   7.549   9.493   4.428  1.3455 -1.1337  0.7586
34916SOL     OW 9304   4.045   5.059   5.491 -0.2653  0.6268  0.6335
34916SOL    HW1 9305   4.019   5.074   5.581  0.4177  0.3270  0.8927
34916SOL    HW2 9306   4.018   4.969   5.473 -1.3219  1.0174  0.1935
34917SOL     OW 9307   4.111   0.814   1.373 -0.0087  0.0994 -0.4060
34917SOL    HW1 9308   4.143   0.729   1.404  1.5660  0.3212 -1.2984
34917SOL    HW2 9309   4.061   0.849   1.446 -0.6789 -1.5824 -0.0160
34918SOL     OW 9310   5.346   1.825   0.415 -0.2217 -0.3220 -0.0202
34918SOL    HW1 9311   5.421   1.884   0.418 -1.0865  0.8198  2.7309
34918SOL    HW2 9312   5.272   1.882   0.393 -0.6566 -0.9624 -0.2586
34919SOL     OW 9313   6.406   0.296   5.536  0.5173  0.5556  0.0178
34919SOL    HW1 9314   6.490   0.294   5.489  1.3918  0.0980  1.5267
34919SOL    HW2 9315   6.361   0.216   5.508  0.3669  1.0475 -1.1700
34920SOL     OW 9316  12.125   0.970  10.758  0.1720 -0.2112 -0.7363
34920SOL    HW1 9317  12.111   1.064  10.771 -2.0042 -0.0972 -3.1473
34920SOL    HW2 9318  12.086   0.929  10.835  1.8168  0.8160  0.7156
34921SOL     OW 9319   4.405   2.399   6.857 -0.0051  0.0843  0.0601
34921SOL    HW1 9320   4.412   2.451   6.777 -0.1136 -0.4672 -0.3136
34921SOL    HW2 9321   4.368   2.315   6.828  2.6702 -1.2419  0.1615
34922SOL     OW 9322   6.577   1.194   7.269  0.1297  0.1938  0.1147
34922SOL    HW1 9323   6.556   1.226   7.182  1.2370  0.7275  0.0241
34922SOL    HW2 9324   6.670   1.216   7.281 -0.2016  0.8566  1.7395
34923SOL     OW 9325   1.451   8.990   1.439 -0.1840  0.3766 -0.0120
34923SOL    HW1 9326   1.457   8.984   1.534 -0.8570  0.9429  0.0830
34923SOL    HW2 9327   1.541   8.991   1.408  0.0331 -0.0296  0.6043
34924SOL     OW 9328   9.981   6.770   3.073  0.3964 -0.2559 -0.5822
34924SOL    HW1 9329  10.046   6.822   3.027  0.4170 -0.3023 -0.6051
34924SOL    HW2 9330  10.032   6.708   3.126  0.3617 -0.7892 -1.1646
34925SOL     OW 9331   3.987   0.551   0.341 -0.9525  0.0265 -0.2938
34925SOL    HW1 9332   4.065   0.515   0.384 -0.7376 -0.1751 -0.8477
34925SOL    HW2 9333   3.922   0.481   0.348 -1.2221  0.3506  0.5360
34926SOL     OW 9334   8.554   2.034   2.542  0.2524 -0.5722  0.2804
34926SOL    HW1 9335   8.483   1.970   2.556 -0.3128  0.0408  0.2652
34926SOL    HW2 9336   8.579   2.062   2.630 -0.8217  0.5946  0.2471
34927SOL     OW 9337   4.349   9.528  10.957 -0.0153  0.0565  0.3240
34927SOL    HW1 9338   4.325   9.464  10.890  3.0388  1.0126 -1.8520
34927SOL    HW2 9339   4.278   9.593  10.954 -0.7726 -0.7792 -0.7551
34928SOL     OW 9340   2.976   2.947   0.898 -0.3216  0.6553  0.7337
34928SOL    HW1 9341   2.986   2.993   0.814  1.2203  0.0641  0.5437
34928SOL    HW2 9342   2.889   2.907   0.894 -0.4463  1.0080 -0.4036
34929SOL     OW 9343   4.444   3.073   6.705 -0.6306 -0.2473 -0.0551
34929SOL    HW1 9344   4.418   3.106   6.619  1.1233  1.0490 -0.1407
34929SOL    HW2 9345   4.407   3.136   6.767 -0.2877 -0.0981  0.0033
34930SOL     OW 9346   4.309   2.670   1.853 -0.3849  0.2753  0.2510
34930SOL    HW1 9347   4.255   2.746   1.830  1.7832  2.3824  1.6475
34930SOL    HW2 9348   4.278   2.643   1.939 -0.9939 -0.2774 -0.1383
34931SOL     OW 9349   0.826   7.109   1.623  0.2499  0.0501 -0.2047
34931SOL    HW1 9350   0.879   7.094   1.544  1.3082 -0.1909  0.5266
34931SOL    HW2 9351   0.874   7.063   1.693 -0.9131 -0.1394  0.4982
34932SOL     OW 9352   0.462   8.923   1.862 -0.4194 -0.0384 -0.4630
34932SOL    HW1 9353   0.502   9.002   1.898 -1.4855 -0.2112  1.2148
34932SOL    HW2 9354   0.368   8.944   1.858 -0.4867 -0.5302 -1.9003
34933SOL     OW 9355   5.613   0.097   5.366  0.4324  0.1528 -0.3527
34933SOL    HW1 9356   5.690   0.053   5.332  1.2736 -0.5631  2.2447
34933SOL    HW2 9357   5.545   0.030   5.367  0.7302 -0.1445  0.3940
34934SOL     OW 9358   4.395   8.958  10.888 -0.1883 -0.0538 -0.2827
34934SOL    HW1 9359   4.369   8.973  10.797 -1.6412 -1.1343 -0.0784
34934SOL    HW2 9360   4.471   8.900  10.881  0.9655  1.4525 -0.8286
34935SOL     OW 9361   9.275   0.681   6.615 -0.1447 -0.2176 -0.2778
34935SOL    HW1 9362   9.304   0.691   6.524  0.0702  0.5214 -0.1337
34935SOL    HW2 9363   9.220   0.602   6.614  1.9005 -1.7516 -0.5622
34936SOL     OW 9364  10.665   5.823  10.540  0.1865  0.1612 -0.3261
34936SOL    HW1 9365  10.602   5.831  10.611  0.1500  0.8641 -0.4289
34936SOL    HW2 9366  10.739   5.776  10.579 -1.3863 -2.9857 -0.8848
34937SOL     OW 9367   8.176   6.565   9.034 -0.2110 -0.0714  0.2137
34937SOL    HW1 9368   8.104   6.560   8.971 -0.4024  1.5233  0.2830
34937SOL    HW2 9369   8.228   6.487   9.016 -0.8029 -0.1603 -1.2597
34938SOL     OW 9370   2.956  12.108   6.521  0.0732  0.8083  0.6526
34938SOL    HW1 9371   3.052  12.114   6.525  0.1143  1.7653 -1.0487
34938SOL    HW2 9372   2.940  12.030   6.468 -0.0859  0.9608  0.4792
34939SOL     OW 9373   3.845  11.639   4.891  0.1658  0.3137  0.6991
34939SOL    HW1 9374   3.831  11.554   4.932  0.2756 -0.0856 -0.0855
34939SOL    HW2 9375   3.774  11.648   4.827  0.3855  0.6337  0.4955
34940SOL     OW 9376   7.937   3.734   8.472  0.0048  0.6410  0.4146
34940SOL    HW1 9377   7.851   3.768   8.495 -0.6850 -1.3885  1.0567
34940SOL    HW2 9378   7.941   3.741   8.376 -1.6751 -0.8805  0.1739
34941SOL     OW 9379   8.022   0.653   4.399 -0.3878 -0.3104 -0.7029
34941SOL    HW1 9380   8.013   0.647   4.494  1.3523  0.5349 -0.4403
34941SOL    HW2 9381   8.016   0.562   4.368 -0.4808 -0.6382  0.2717
34942SOL     OW 9382   6.740   6.559   2.137  0.0391  0.1241 -0.0893
34942SOL    HW1 9383   6.707   6.470   2.143  0.1073 -0.0518 -1.8189
34942SOL    HW2 9384   6.824   6.556   2.182  0.2313 -0.8008 -0.4837
34943SOL     OW 9385   4.128   0.606   9.905  0.3435  0.0638 -0.1644
34943SOL    HW1 9386   4.071   0.583   9.832 -1.3952  1.2814  0.7470
34943SOL    HW2 9387   4.149   0.698   9.891  1.7854 -0.2586 -0.2597
34944SOL     OW 9388   5.942  10.263   3.812 -1.0554  0.2075  0.3011
34944SOL    HW1 9389   6.011  10.324   3.840 -1.9855  1.7714 -0.6592
34944SOL    HW2 9390   5.980  10.217   3.737  0.0988 -1.3579  1.7566
34945SOL     OW 9391   4.919  10.496   8.669  0.2720 -0.6892  0.0133
34945SOL    HW1 9392   4.936  10.427   8.733  2.9368 -0.5978 -0.4787
34945SOL    HW2 9393   4.995  10.553   8.673 -0.3966  0.4520 -1.8259
34946SOL     OW 9394   3.605   5.693   3.225  0.7181 -0.2448 -0.6411
34946SOL    HW1 9395   3.666   5.718   3.155  0.4447  0.2771 -0.6934
34946SOL    HW2 9396   3.537   5.760   3.223 -0.8679 -1.7632 -1.8097
34947SOL     OW 9397   9.176   5.103   4.421  0.0468 -0.5425  0.0597
34947SOL    HW1 9398   9.086   5.083   4.445  0.0663  0.1171  0.7162
34947SOL    HW2 9399   9.169   5.141   4.333 -0.6021  1.6195  0.9702
34948SOL     OW 9400   2.195   8.093   5.017 -0.0720 -0.1203  0.2445
34948SOL    HW1 9401   2.213   7.999   5.009 -1.5963 -0.4217  0.0303
34948SOL    HW2 9402   2.253   8.123   5.087  0.2797 -1.2722  0.4582
34949SOL     OW 9403   5.753   3.699   8.793 -0.3534 -0.0736  0.0679
34949SOL    HW1 9404   5.779   3.638   8.862  1.0133  1.8567  1.3335
34949SOL    HW2 9405   5.664   3.724   8.815 -0.2782 -0.2315  0.5587
34950SOL     OW 9406  11.259  10.527   7.720 -0.1930 -0.0866  0.1087
34950SOL    HW1 9407  11.331  10.568   7.767 -0.5502  3.2025 -1.9293
34950SOL    HW2 9408  11.301  10.461   7.665  1.0626  0.6600  0.1339
34951SOL     OW 9409   8.598   8.513   5.563 -0.4188 -0.1701  0.7086
34951SOL    HW1 9410   8.591   8.508   5.659  0.6199 -0.4671  0.7884
34951SOL    HW2 9411   8.567   8.428   5.533  1.2990 -0.9365  0.9538
34952SOL     OW 9412   9.046   0.560   2.656 -0.3879 -0.1889  0.3059
34952SOL    HW1 9413   9.140   0.569   2.641 -0.4525  1.0078  0.6054
34952SOL    HW2 9414   9.029   0.608   2.736 -1.5128  1.0299 -0.6118
34953SOL     OW 9415  11.417   4.202   1.558  0.6910 -0.1726  0.4267
34953SOL    HW1 9416  11.452   4.237   1.476 -1.3022 -1.1985 -0.9427
34953SOL    HW2 9417  11.354   4.135   1.531  0.1983 -0.7826  2.8214
34954SOL     OW 9418   1.390   3.451   8.110 -0.1885 -0.0425  0.1512
34954SOL    HW1 9419   1.373   3.524   8.050 -0.8834 -0.7398 -0.5317
34954SOL    HW2 9420   1.408   3.492   8.194 -1.3622  0.9071 -0.0311
34955SOL     OW 9421   0.888   2.507   2.872 -0.0664  0.2427  0.4722
34955SOL    HW1 9422   0.912   2.454   2.947  1.9529  2.3304  1.4460
34955SOL    HW2 9423   0.900   2.450   2.796  1.1221 -0.9560  1.5236
34956SOL     OW 9424   6.562   1.130   9.511 -0.2641 -0.0195  0.0529
34956SOL    HW1 9425   6.527   1.051   9.552  0.6224  0.0362  0.9757
34956SOL    HW2 9426   6.513   1.202   9.551  0.4548  0.0205  0.9096
34957SOL     OW 9427   9.990  10.986  11.523 -0.7027 -0.1696  0.2596
34957SOL    HW1 9428  10.026  10.918  11.580  1.0376  0.4293 -0.0618
34957SOL    HW2 9429   9.949  11.048  11.583  1.7653  0.8504  1.0480
34958SOL     OW 9430   0.324   6.305   6.619  0.3875 -0.6417 -0.5125
34958SOL    HW1 9431   0.306   6.326   6.527 -1.2089  3.6085  0.5434
34958SOL    HW2 9432   0.266   6.233   6.639 -1.2796  0.1438 -2.2061
34959SOL     OW 9433   7.508   5.370   8.377  0.4449 -0.2913 -0.5875
34959SOL    HW1 9434   7.534   5.347   8.287  1.2208  1.7962 -0.9637
34959SOL    HW2 9435   7.578   5.334   8.431  0.6548 -0.4472 -0.9540
34960SOL     OW 9436   6.859   3.411   9.901  0.3416 -0.0200  0.4697
34960SOL    HW1 9437   6.854   3.342   9.836  0.6627 -0.2504  0.6886
34960SOL    HW2 9438   6.859   3.492   9.850 -0.8975 -0.1328  0.2374
34961SOL     OW 9439   8.616   8.707   8.351  0.0415  0.2540 -0.2550
34961SOL    HW1 9440   8.571   8.791   8.340  0.3946  0.2621 -1.9743
34961SOL    HW2 9441   8.594   8.679   8.439 -1.8102  1.1535 -0.3864
34962SOL     OW 9442   6.131  10.522   2.597 -0.0088  0.0694 -0.1131
34962SOL    HW1 9443   6.105  10.567   2.516  1.2512 -0.1538 -0.6645
34962SOL    HW2 9444   6.150  10.433   2.570  1.2185  0.1954  0.2519
34963SOL     OW 9445   7.920   9.165   5.618  0.1929 -0.2257  0.1460
34963SOL    HW1 9446   7.865   9.131   5.548  1.0533 -0.6672 -0.3366
34963SOL    HW2 9447   7.963   9.088   5.655  1.9655  0.2658 -0.7900
34964SOL     OW 9448   0.258   2.428   3.616 -0.2696  0.3235 -0.3007
34964SOL    HW1 9449   0.259   2.480   3.696 -0.5508 -0.2166  0.0639
34964SOL    HW2 9450   0.174   2.380   3.619  0.4405 -0.9528 -0.0878
34965SOL     OW 9451  10.550   6.872  11.043 -0.5020 -0.2176  0.4212
34965SOL    HW1 9452  10.593   6.950  11.077 -1.5316  1.6829 -2.2979
34965SOL    HW2 9453  10.459   6.881  11.071 -0.6836 -0.2819 -0.1365
34966SOL     OW 9454   5.642   0.803   4.016  0.3025  0.2668 -0.3940
34966SOL    HW1 9455   5.622   0.745   4.090  1.5228 -0.4131 -0.5820
34966SOL    HW2 9456   5.566   0.862   4.011 -1.2053 -1.5710 -0.4674
34967SOL     OW 9457   8.296   1.505  12.079  0.1192  0.2647  0.3122
34967SOL    HW1 9458   8.225   1.482  12.139  0.5452 -0.6650  0.4724
34967SOL    HW2 9459   8.328   1.589  12.112 -0.9370  0.7320  0.1939
34968SOL     OW 9460  10.065  11.308  11.787  0.3360  0.3673  0.2941
34968SOL    HW1 9461  10.085  11.393  11.826 -0.5149  0.6879  0.0637
34968SOL    HW2 9462  10.055  11.326  11.694  3.8183 -0.6458 -0.4002
34969SOL     OW 9463  12.068   4.308   7.436 -0.4464 -0.0504 -0.0544
34969SOL    HW1 9464  12.021   4.376   7.387  2.4991  0.9701 -1.7529
34969SOL    HW2 9465  12.132   4.274   7.373  2.5249  0.2068  2.6432
34970SOL     OW 9466   1.573   4.545  10.538 -0.2622  0.0760  0.0497
34970SOL    HW1 9467   1.660   4.525  10.505 -0.0505  0.4647  0.3552
34970SOL    HW2 9468   1.525   4.462  10.533  0.5018 -0.4466  1.0370
34971SOL     OW 9469   1.116  10.172   2.268  0.1100 -0.2652  0.2605
34971SOL    HW1 9470   1.081  10.084   2.280 -1.7218  0.3825 -0.0511
34971SOL    HW2 9471   1.118  10.184   2.173 -1.5524  0.7118  0.3126
34972SOL     OW 9472   7.309  11.133   4.934  0.2185 -0.3856  0.6630
34972SOL    HW1 9473   7.252  11.195   4.979  0.2094 -1.2482  1.8848
34972SOL    HW2 9474   7.397  11.170   4.940 -0.0804  0.6333 -0.6689
34973SOL     OW 9475   1.593   4.122  11.180  0.3818  0.4173  0.1068
34973SOL    HW1 9476   1.556   4.115  11.092  1.4411  2.6031 -0.5674
34973SOL    HW2 9477   1.586   4.033  11.215  1.1822 -0.8658 -2.6763
34974SOL     OW 9478   7.397   8.389   2.696  0.4861 -0.3853 -0.1892
34974SOL    HW1 9479   7.428   8.463   2.644  1.0115  0.2774  1.0151
34974SOL    HW2 9480   7.312   8.366   2.658  0.5587  0.4836 -0.9144
34975SOL     OW 9481   9.981   7.216  11.761  0.3048  0.1950 -0.3457
34975SOL    HW1 9482  10.063   7.256  11.732  0.9548 -1.3644 -0.7359
34975SOL    HW2 9483  10.009   7.142  11.815 -0.8107 -0.9071 -1.2295
34976SOL     OW 9484   7.519   8.041   5.763  0.0293  0.6121 -0.4815
34976SOL    HW1 9485   7.426   8.061   5.763 -0.4242 -1.2695  0.7673
34976SOL    HW2 9486   7.554   8.089   5.837  0.4258  2.5816 -1.8550
34977SOL     OW 9487   9.670   1.371   1.048 -0.4185  0.3444  0.1463
34977SOL    HW1 9488   9.605   1.326   1.102  2.1017 -0.7404  2.5293
34977SOL    HW2 9489   9.677   1.458   1.087  0.7515 -0.1303  1.0327
34978SOL     OW 9490   9.974   9.495   7.121 -0.1250  0.2501  0.2149
34978SOL    HW1 9491  10.020   9.573   7.151 -0.5837  0.7256 -0.2970
34978SOL    HW2 9492   9.957   9.512   7.029 -0.1533 -0.4983  0.0782
34979SOL     OW 9493   7.367   1.760   6.041 -0.4373  0.4283  0.0433
34979SOL    HW1 9494   7.374   1.769   6.137  2.2234 -1.3468  0.1242
34979SOL    HW2 9495   7.274   1.772   6.023 -1.3152 -0.7315  3.0654
34980SOL     OW 9496  10.640   7.184   4.563  0.0957  0.2307  0.5551
34980SOL    HW1 9497  10.689   7.227   4.493 -0.8637  1.6742  0.7375
34980SOL    HW2 9498  10.706   7.164   4.630  0.6955  0.6900  0.1105
34981SOL     OW 9499  11.402   0.911   5.074  0.1110 -0.1070 -0.1703
34981SOL    HW1 9500  11.331   0.894   5.012  1.3344  0.3218 -1.7673
34981SOL    HW2 9501  11.387   0.848   5.145 -0.8376 -1.2655 -1.3351
34982SOL     OW 9502   3.409   1.299   9.546  0.4053 -0.5635  0.6741
34982SOL    HW1 9503   3.469   1.246   9.494  0.2801 -1.3339  1.3067
34982SOL    HW2 9504   3.405   1.255   9.631  0.9125  0.8828  1.4901
34983SOL     OW 9505   2.337   0.499   2.196 -0.2150  0.2304  1.0589
34983SOL    HW1 9506   2.411   0.439   2.203  1.4867  1.9935 -0.5349
34983SOL    HW2 9507   2.341   0.552   2.276  0.5600  0.6071  0.7836
34984SOL     OW 9508   8.338   1.580   2.557  0.3086 -0.5740  0.1288
34984SOL    HW1 9509   8.343   1.485   2.559 -1.1482 -0.7188 -1.2235
34984SOL    HW2 9510   8.336   1.603   2.465  1.6172  0.8667  0.4184
34985SOL     OW 9511  10.012   4.641   9.516 -0.4238  0.5759  0.6459
34985SOL    HW1 9512   9.967   4.625   9.434  0.5898 -1.2947  0.4022
34985SOL    HW2 9513   9.966   4.717   9.554 -1.7986  0.6095 -0.9496
34986SOL     OW 9514   1.288  10.634   7.080  0.2439  0.0436  0.3518
34986SOL    HW1 9515   1.254  10.618   7.168  1.7499  0.9565  1.1429
34986SOL    HW2 9516   1.379  10.603   7.083  0.1236 -0.5160 -1.0839
34987SOL     OW 9517  12.062  10.237  11.702  0.4623 -0.6769 -0.0563
34987SOL    HW1 9518  12.150  10.256  11.671 -0.0572  0.0255 -1.1658
34987SOL    HW2 9519  12.008  10.235  11.623 -0.8124  0.5942  0.7241
34988SOL     OW 9520   1.893   5.102   2.126 -0.5677  0.1618 -0.6465
34988SOL    HW1 9521   1.856   5.020   2.159 -2.9753  1.4709  0.1455
34988SOL    HW2 9522   1.956   5.130   2.193  0.3004 -1.0025 -0.9440
34989SOL     OW 9523   0.567   1.068   4.259 -0.3405  0.2387  0.2036
34989SOL    HW1 9524   0.608   1.024   4.334 -1.0267  0.7232  0.8738
34989SOL    HW2 9525   0.482   1.025   4.250 -1.1295  1.5773  1.0321
34990SOL     OW 9526   6.631  11.938   0.658  0.0470  0.8595  0.2888
34990SOL    HW1 9527   6.713  11.959   0.704 -0.3844 -0.9356  2.0466
34990SOL    HW2 9528   6.563  11.956   0.722 -0.4907 -3.2074  1.1532
34991SOL     OW 9529   4.032   9.285  11.960  0.0541  0.0864  0.3812
34991SOL    HW1 9530   3.965   9.322  11.902 -0.3891  0.3946  1.0637
34991SOL    HW2 9531   4.107   9.268  11.904 -0.0985  1.0706 -0.1439
34992SOL     OW 9532   7.654  10.222   2.548 -0.3801  0.6628  0.1883
34992SOL    HW1 9533   7.665  10.291   2.613 -1.1743  0.1811  0.8550
34992SOL    HW2 9534   7.565  10.189   2.563 -0.9148  1.0981 -1.6825
34993SOL     OW 9535  11.154  11.419   5.192 -0.1156 -0.3379  0.4711
34993SOL    HW1 9536  11.078  11.382   5.148  0.5408 -1.0970 -0.0660
34993SOL    HW2 9537  11.182  11.490   5.134  0.0363 -0.5603  0.2676
34994SOL     OW 9538   3.180  11.271  10.656  0.0293 -0.2130  0.1271
34994SOL    HW1 9539   3.210  11.181  10.645 -2.3729 -1.1800  0.7090
34994SOL    HW2 9540   3.213  11.318  10.580  2.4780 -1.2071  0.4942
34995SOL     OW 9541   9.055   1.589   5.456  0.1697  0.1303 -0.1456
34995SOL    HW1 9542   8.981   1.605   5.514 -1.3042 -0.6381 -1.7271
34995SOL    HW2 9543   9.092   1.507   5.488  0.2439  0.4283  0.5502
34996SOL     OW 9544  10.238   8.858   2.010  0.3924  0.3199  0.5942
34996SOL    HW1 9545  10.308   8.794   2.006 -1.1639 -1.4230  0.0165
34996SOL    HW2 9546  10.222   8.871   2.104  1.3159  0.5788  0.7235
34997SOL     OW 9547  10.958   0.027  11.569  0.2799  0.8749 -0.0078
34997SOL    HW1 9548  10.955   0.109  11.519 -1.1617  0.7572 -0.1748
34997SOL    HW2 9549  10.881   0.032  11.626 -1.2038 -1.3224 -1.6547
34998SOL     OW 9550  12.098   3.219   3.292 -0.2178  0.2275 -0.3682
34998SOL    HW1 9551  12.092   3.124   3.305  0.6183  0.1131 -0.7361
34998SOL    HW2 9552  12.169   3.247   3.349 -1.2290  0.8295  0.6325
34999SOL     OW 9553   0.548   9.155   4.605 -0.0242 -0.5970 -0.0048
34999SOL    HW1 9554   0.581   9.193   4.524 -0.6391  1.2223  0.5477
34999SOL    HW2 9555   0.453   9.156   4.596 -0.0576 -1.7283  0.1607
35000SOL     OW 9556   9.113  11.657   9.557 -0.4301  0.0712  0.6331
35000SOL    HW1 9557   9.087  11.577   9.602  0.4638 -0.5214  0.1282
35000SOL    HW2 9558   9.205  11.670   9.582  0.0202 -0.1455 -0.7987
35001SOL     OW 9559   4.048   8.936   1.137  0.3257  0.4259  0.0021
35001SOL    HW1 9560   4.094   8.893   1.065  1.0157 -1.7554  1.6250
35001SOL    HW2 9561   4.099   9.015   1.155  2.6935 -1.1823  0.7926
35002SOL     OW 9562   0.364   2.625   8.857 -0.4181  0.7138  0.2743
35002SOL    HW1 9563   0.454   2.659   8.856 -0.4776  0.8758 -0.1426
35002SOL    HW2 9564   0.372   2.535   8.889 -0.0328  0.5345 -0.3078
35003SOL     OW 9565   3.404   8.176  11.776  0.0330  0.1375  0.4131
35003SOL    HW1 9566   3.338   8.237  11.808 -1.0946 -0.4021 -0.8077
35003SOL    HW2 9567   3.355   8.111  11.725  1.4332 -0.6242 -0.0268
35004SOL     OW 9568   1.192   4.563   2.215 -0.1620  0.1227  0.2187
35004SOL    HW1 9569   1.222   4.610   2.293  1.8463  0.3031 -0.6072
35004SOL    HW2 9570   1.099   4.583   2.210  0.4174  3.4415  0.3397
35005SOL     OW 9571   3.399   1.878   1.146 -0.0273  0.2080 -0.1946
35005SOL    HW1 9572   3.413   1.950   1.085 -1.4999  1.1472  0.5117
35005SOL    HW2 9573   3.484   1.865   1.188  0.0319  2.3703  0.4918
35006SOL     OW 9574   1.388   4.013   7.223 -0.4743  0.1145  0.5598
35006SOL    HW1 9575   1.305   4.018   7.270  0.2036 -1.4168  1.9996
35006SOL    HW2 9576   1.455   4.033   7.289  0.3906 -0.1716 -0.2025
35007SOL     OW 9577  11.381   9.578   7.245  0.0177  0.2443 -0.2813
35007SOL    HW1 9578  11.409   9.608   7.331  1.6207  1.7654 -1.2823
35007SOL    HW2 9579  11.318   9.508   7.264  0.4379  0.4233  2.1013
35008SOL     OW 9580   9.143   1.962   7.035 -0.2819  0.3096 -0.0869
35008SOL    HW1 9581   9.104   1.931   6.953 -0.7625  0.8274 -0.0596
35008SOL    HW2 9582   9.143   1.885   7.092 -0.8004  0.1723 -0.2627
35009SOL     OW 9583   3.271  11.818   5.776 -0.0312  0.4247 -0.1351
35009SOL    HW1 9584   3.197  11.880   5.769  0.4227  0.8381 -1.6867
35009SOL    HW2 9585   3.302  11.809   5.686  2.5251  1.1356  0.6040
35010SOL     OW 9586   0.833   2.673   1.277  0.1432  0.2524 -0.0434
35010SOL    HW1 9587   0.887   2.602   1.310 -0.7083 -0.5134 -0.2525
35010SOL    HW2 9588   0.879   2.706   1.200  1.2516  0.8830  0.8636
35011SOL     OW 9589  10.301  10.917   1.645 -0.7084 -0.1723  0.1858
35011SOL    HW1 9590  10.254  10.977   1.587  0.8072 -0.5825 -1.5391
35011SOL    HW2 9591  10.364  10.972   1.692  0.1906 -0.2790 -0.8702
35012SOL     OW 9592   5.247   6.692   2.163  0.4015  0.0010  0.2121
35012SOL    HW1 9593   5.248   6.646   2.246  0.3192 -1.0386 -0.3474
35012SOL    HW2 9594   5.243   6.785   2.187 -0.8373 -0.3201  1.3574
35013SOL     OW 9595   1.076   1.832   8.492 -0.8616  0.4207  0.1030
35013SOL    HW1 9596   1.152   1.890   8.493 -0.2852 -0.3085 -0.2206
35013SOL    HW2 9597   1.020   1.865   8.422 -1.3020  1.5116  0.9323
35014SOL     OW 9598   8.464  11.826   3.022  0.2194 -0.4639  0.5082
35014SOL    HW1 9599   8.490  11.762   3.088  1.3486 -0.9425 -0.3564
35014SOL    HW2 9600   8.513  11.905   3.044 -0.4265 -0.1935  1.0049
35015SOL     OW 9601   5.790   7.154   5.458  0.2620  0.1806 -0.5991
35015SOL    HW1 9602   5.827   7.106   5.385 -0.1681  0.8973 -1.3067
35015SOL    HW2 9603   5.729   7.093   5.499  1.4929 -0.6838  0.0045
35016SOL     OW 9604   9.600   3.537   6.147  0.4998  0.2454  0.4046
35016SOL    HW1 9605   9.509   3.556   6.171 -0.5038 -3.5002  0.1951
35016SOL    HW2 9606   9.642   3.512   6.229  0.3831 -1.2065  0.0384
35017SOL     OW 9607   8.710  10.905   5.383 -0.4002 -0.1811  0.0500
35017SOL    HW1 9608   8.723  10.813   5.403 -1.1715 -0.2558  0.2363
35017SOL    HW2 9609   8.634  10.907   5.325 -0.7474  0.3706  0.5029
35018SOL     OW 9610   9.502  10.321   8.090  0.4135  0.5300 -0.2333
35018SOL    HW1 9611   9.434  10.340   8.025  0.5965  2.1164  0.0058
35018SOL    HW2 9612   9.552  10.249   8.051  0.0917  0.9886 -1.5538
35019SOL     OW 9613   9.842  10.646   0.174  0.2478 -0.0800  0.3146
35019SOL    HW1 9614   9.792  10.568   0.149 -0.3938 -0.0144  1.3590
35019SOL    HW2 9615   9.833  10.651   0.269  1.0594  0.7483  0.3595
35020SOL     OW 9616   4.556  11.777   7.996 -0.4307 -0.2791  0.0785
35020SOL    HW1 9617   4.515  11.858   7.965  0.5223  0.4481  0.6536
35020SOL    HW2 9618   4.587  11.734   7.916 -1.0905 -0.1608 -0.2455
35021SOL     OW 9619   4.041  11.618   5.748  0.1218  0.3418  0.3416
35021SOL    HW1 9620   4.045  11.693   5.808 -2.0639  1.1096 -0.3979
35021SOL    HW2 9621   4.068  11.654   5.663 -0.4173  0.1628  0.0924
35022SOL     OW 9622   0.468   7.068   1.878 -0.3620  0.7896  0.1601
35022SOL    HW1 9623   0.492   7.065   1.785  0.1803 -0.2313  0.3277
35022SOL    HW2 9624   0.389   7.123   1.880 -0.6277  0.4746 -0.9592
35023SOL     OW 9625   5.573   6.784   5.214 -0.0603  0.5337 -0.4343
35023SOL    HW1 9626   5.663   6.758   5.231 -1.2564 -2.7942  2.0405
35023SOL    HW2 9627   5.577   6.833   5.132  3.8622 -0.0996 -0.8184
35024SOL     OW 9628   7.071   2.526   3.269 -0.1756  0.1188  0.0242
35024SOL    HW1 9629   7.085   2.613   3.305 -2.0155 -0.0967  1.4662
35024SOL    HW2 9630   6.999   2.490   3.322  0.9349 -2.5161 -0.0907
35025SOL     OW 9631  10.969  11.586   7.941 -0.2898 -0.5822 -0.0776
35025SOL    HW1 9632  11.014  11.611   8.021 -0.8346  1.2608 -0.3016
35025SOL    HW2 9633  10.885  11.632   7.944 -0.5093 -0.8217 -1.4846
35026SOL     OW 9634   5.931  11.192   6.988  0.3033 -0.2686  0.4656
35026SOL    HW1 9635   5.915  11.133   6.915  1.0914 -0.5592  0.5187
35026SOL    HW2 9636   5.850  11.242   6.997  0.0394 -0.5464 -0.3097
35027SOL     OW 9637   0.892   9.130   4.303  0.1199 -0.0142 -0.5323
35027SOL    HW1 9638   0.972   9.106   4.350  0.4944 -1.1787 -1.7175
35027SOL    HW2 9639   0.869   9.216   4.338  1.3330 -0.0948  0.5384
35028SOL     OW 9640   1.336   8.345   4.111 -0.3615 -0.2863  0.0516
35028SOL    HW1 9641   1.401   8.405   4.073 -0.5514  1.4663  2.2290
35028SOL    HW2 9642   1.388   8.283   4.162 -0.3021  0.3556  0.7944
35029SOL     OW 9643   3.271   8.807   9.849 -0.2149  0.4759  0.1045
35029SOL    HW1 9644   3.183   8.840   9.833 -0.3798 -0.4672 -1.0664
35029SOL    HW2 9645   3.305   8.785   9.762  0.4518 -0.9438  0.6872
35030SOL     OW 9646   8.274   9.076   0.580 -0.2771 -0.3310 -0.5521
35030SOL    HW1 9647   8.355   9.025   0.583  0.3381  0.5881 -0.9903
35030SOL    HW2 9648   8.276   9.119   0.495 -0.7875  0.3984 -0.2078
35031SOL     OW 9649  12.012   1.280   5.970 -0.4830  0.2785  0.3758
35031SOL    HW1 9650  11.919   1.260   5.976 -0.0880 -1.5683  0.7348
35031SOL    HW2 9651  12.021   1.363   6.017 -1.7927 -0.0200  1.2103
35032SOL     OW 9652   0.020   8.067   4.687 -0.3649 -0.2505  0.3788
35032SOL    HW1 9653   0.093   8.124   4.712  0.5980 -0.5188 -1.6612
35032SOL    HW2 9654   0.059   7.980   4.679 -1.3526 -0.8000  1.1901
35033SOL     OW 9655   5.272   2.899  11.844  0.2001 -0.2375  0.5625
35033SOL    HW1 9656   5.297   2.976  11.895  0.8402  1.4903 -2.1639
35033SOL    HW2 9657   5.193   2.926  11.797  3.0218  0.8628 -4.2604
35034SOL     OW 9658  11.987   2.697  11.619  0.0177 -0.4493 -0.3694
35034SOL    HW1 9659  12.035   2.639  11.679  1.2522  0.3148 -0.5895
35034SOL    HW2 9660  11.974   2.778  11.668 -0.1005 -0.2668 -0.6958
35035SOL     OW 9661   1.894   9.014   6.554  0.0669 -0.7151 -0.2087
35035SOL    HW1 9662   1.955   8.955   6.599  2.2529  0.8922 -0.9037
35035SOL    HW2 9663   1.915   9.003   6.461 -0.7570 -0.1815 -0.4635
35036SOL     OW 9664  10.146   9.012   4.282 -0.1014  0.0734  0.2381
35036SOL    HW1 9665  10.127   9.098   4.320  0.9517  0.2557  0.3725
35036SOL    HW2 9666  10.059   8.975   4.264 -0.5686  1.4135 -0.4182
35037SOL     OW 9667   1.248   8.858  10.139  0.2231 -0.0662 -0.3503
35037SOL    HW1 9668   1.199   8.886  10.062 -0.3125 -1.3996 -0.5208
35037SOL    HW2 9669   1.188   8.870  10.212  0.0016 -0.7012 -0.4203
35038SOL     OW 9670   3.722   2.954   9.320  0.2797 -0.1589  0.0061
35038SOL    HW1 9671   3.659   3.008   9.273  1.4386 -0.1232 -1.6089
35038SOL    HW2 9672   3.807   2.992   9.298  1.0263 -1.7636 -0.0136
35039SOL     OW 9673   0.949   2.703   7.594  0.4810  0.5705 -0.2467
35039SOL    HW1 9674   0.986   2.652   7.666 -0.5461  0.7910  0.4582
35039SOL    HW2 9675   0.855   2.707   7.613  0.1936  0.6650 -1.5820
35040SOL     OW 9676   2.919   9.855   1.494 -0.5581  0.4956 -0.0351
35040SOL    HW1 9677   2.840   9.871   1.442  0.6199  0.4227 -1.9495
35040SOL    HW2 9678   2.886   9.823   1.578 -2.6233  2.3129 -0.0540
35041SOL     OW 9679   0.361   1.540   3.245 -0.1666  0.4089  0.0268
35041SOL    HW1 9680   0.312   1.459   3.227 -0.2911 -0.0743  2.2634
35041SOL    HW2 9681   0.294   1.606   3.259 -0.1313  0.3080  0.6910
35042SOL     OW 9682   5.681   4.825   4.263 -0.1635 -0.1873  0.3372
35042SOL    HW1 9683   5.677   4.904   4.209  0.5188 -0.8319 -0.7060
35042SOL    HW2 9684   5.722   4.853   4.344 -0.8940  0.7381  0.4122
35043SOL     OW 9685   8.655   4.336   7.065 -0.1411 -0.2387 -0.0454
35043SOL    HW1 9686   8.718   4.268   7.039  2.2925  1.1244  1.9052
35043SOL    HW2 9687   8.652   4.330   7.160 -3.0061 -0.1622 -0.0466
35044SOL     OW 9688   4.451  11.123   2.149 -0.2602  0.5555  0.9982
35044SOL    HW1 9689   4.394  11.196   2.124 -0.1823  1.1625  2.4973
35044SOL    HW2 9690   4.395  11.046   2.139 -1.0664  1.0516  1.5600
35045SOL     OW 9691   0.958   8.674   2.315  0.1766 -0.2549  0.0948
35045SOL    HW1 9692   1.025   8.738   2.291  0.4921 -0.4254  0.4938
35045SOL    HW2 9693   0.968   8.664   2.410 -1.1117  0.4913  0.3315
35046SOL     OW 9694   0.171   4.110   3.315 -0.6426  0.3942 -0.2219
35046SOL    HW1 9695   0.213   4.196   3.309 -0.5821  0.4163  0.5158
35046SOL    HW2 9696   0.089   4.126   3.362 -0.6427  0.0493 -0.0989
35047SOL     OW 9697   8.030   0.712   4.042  0.1743  0.1762  0.6148
35047SOL    HW1 9698   8.115   0.728   4.083  0.1366 -1.2579  1.3127
35047SOL    HW2 9699   7.973   0.684   4.114 -0.6331  0.2081  0.0069
35048SOL     OW 9700   6.738   8.309   3.840 -0.6511  0.0801  0.3956
35048SOL    HW1 9701   6.768   8.391   3.879  1.5858 -0.0344 -0.9342
35048SOL    HW2 9702   6.772   8.241   3.897  1.4707 -0.0335 -0.9049
35049SOL     OW 9703   0.932  10.789   9.591  0.4158  0.3440  0.3420
35049SOL    HW1 9704   0.851  10.839   9.602  1.4007  2.1536 -0.2193
35049SOL    HW2 9705   0.966  10.817   9.506  2.6684  1.2454  1.4727
35050SOL     OW 9706   2.150   1.834   5.689 -0.7601  0.0819 -0.0722
35050SOL    HW1 9707   2.167   1.742   5.672 -0.9671  0.1133 -0.4615
35050SOL    HW2 9708   2.097   1.863   5.615  1.1735  1.0987 -1.1432
35051SOL     OW 9709  11.943   0.266   7.426  0.1297  0.4424 -0.0294
35051SOL    HW1 9710  11.903   0.348   7.395  0.7606  0.4130 -0.9735
35051SOL    HW2 9711  11.871   0.217   7.465 -0.5448  0.8425 -0.7429
35052SOL     OW 9712   3.908   9.381   9.364  0.1084  0.9209  0.4472
35052SOL    HW1 9713   3.984   9.407   9.417 -0.1684  0.7547  0.9306
35052SOL    HW2 9714   3.885   9.459   9.315 -0.1964  1.3520  1.2617
35053SOL     OW 9715   6.285  10.420  11.148  0.0300  0.0309 -0.0764
35053SOL    HW1 9716   6.297  10.329  11.177 -0.7102  0.4886  1.8189
35053SOL    HW2 9717   6.191  10.427  11.132 -0.2326  0.9307  1.6360
35054SOL     OW 9718   9.851   7.149   6.206  0.0816  0.2515  0.2037
35054SOL    HW1 9719   9.868   7.076   6.266  2.9739  0.2042 -0.5313
35054SOL    HW2 9720   9.815   7.109   6.128  1.5785 -0.4425 -0.1614
35055SOL     OW 9721   3.004   3.310   9.727 -0.4271 -0.4458  0.4334
35055SOL    HW1 9722   2.941   3.330   9.795 -0.6014 -0.9339  0.4210
35055SOL    HW2 9723   3.069   3.254   9.770 -0.0808 -0.0581  0.4118
35056SOL     OW 9724   6.577   6.932  11.303 -0.1891  0.1370  0.3008
35056SOL    HW1 9725   6.532   6.869  11.247 -0.4794  0.7338 -0.1627
35056SOL    HW2 9726   6.651   6.885  11.339 -0.3613 -0.4432 -0.0934
35057SOL     OW 9727   4.624   7.038   7.284  0.0895  0.4960  0.6514
35057SOL    HW1 9728   4.669   7.105   7.336 -1.1985  0.4529  1.8886
35057SOL    HW2 9729   4.551   7.085   7.243  0.0231  0.1483  0.3715
35058SOL     OW 9730   2.258   8.145   9.285 -0.4611 -0.4100 -0.0189
35058SOL    HW1 9731   2.309   8.123   9.364 -0.9303 -1.2746  0.0567
35058SOL    HW2 9732   2.187   8.081   9.284  0.0258 -0.9930 -1.6112
35059SOL     OW 9733   4.369  10.716   2.335  0.2220 -0.0693  0.3110
35059SOL    HW1 9734   4.303  10.655   2.369  1.3136  0.0316  2.8424
35059SOL    HW2 9735   4.452  10.668   2.343  0.8813  1.0845  0.6260
35060SOL     OW 9736   5.467   0.311   0.738  0.2030  0.2397 -0.0006
35060SOL    HW1 9737   5.440   0.346   0.823 -1.0019  0.2030 -0.3411
35060SOL    HW2 9738   5.558   0.283   0.750 -0.5673 -1.6726  1.8739
35061SOL     OW 9739  11.894  11.873  11.989  0.2731 -0.7212  0.6666
35061SOL    HW1 9740  11.840  11.846  12.064 -3.0901  0.4693 -1.1390
35061SOL    HW2 9741  11.943  11.949  12.021  0.1841 -1.2246  2.0809
35062SOL     OW 9742   9.281  10.754   9.999  0.1644 -0.2850  0.6154
35062SOL    HW1 9743   9.188  10.759   9.981 -0.2006  0.9304  2.5136
35062SOL    HW2 9744   9.323  10.748   9.913 -1.5817  0.6464 -0.3426
35063SOL     OW 9745   7.456   1.972   9.485 -0.5148 -0.3281 -0.0405
35063SOL    HW1 9746   7.363   1.961   9.505 -0.0392 -1.8409  1.6375
35063SOL    HW2 9747   7.501   1.942   9.564  1.4924 -2.6576 -1.9163
35064SOL     OW 9748  11.239   1.169   5.961  0.3027 -0.5136  0.6144
35064SOL    HW1 9749  11.236   1.216   6.044  1.0127 -0.4126  0.5922
35064SOL    HW2 9750  11.153   1.183   5.922  0.9158  2.0336 -0.0568
35065SOL     OW 9751   1.911   1.194   7.202 -0.1639 -0.2166 -0.2871
35065SOL    HW1 9752   1.828   1.153   7.228  0.3573 -0.9513  0.2753
35065SOL    HW2 9753   1.949   1.226   7.284  0.8680 -1.3654 -0.2731
35066SOL     OW 9754  10.869   5.094   9.102  0.4897  0.5418  0.5491
35066SOL    HW1 9755  10.824   5.111   9.019  1.5167  1.2564  0.1116
35066SOL    HW2 9756  10.799   5.092   9.167 -0.1864  1.6320 -0.1102
35067SOL     OW 9757  12.040   2.711   6.098 -0.3348  0.7078 -0.0364
35067SOL    HW1 9758  12.029   2.773   6.026  0.1222 -1.3850 -2.0252
35067SOL    HW2 9759  12.081   2.635   6.058  0.2723 -0.4410  2.5448
35068SOL     OW 9760   6.396   4.711   3.997  0.5144  0.0411  0.2111
35068SOL    HW1 9761   6.333   4.765   4.046  0.6245  0.7879 -0.4500
35068SOL    HW2 9762   6.481   4.745   4.024  0.6106 -0.3200  0.3684
35069SOL     OW 9763   9.585  11.489   5.992 -0.7750  0.3846 -0.1488
35069SOL    HW1 9764   9.527  11.414   5.978 -1.4198  0.6207  1.0357
35069SOL    HW2 9765   9.580  11.539   5.911 -1.7141  0.0440 -0.3149
35070SOL     OW 9766   4.548   7.557   1.674 -0.1756 -0.8305 -0.4261
35070SOL    HW1 9767   4.542   7.555   1.769  1.1262 -0.1021 -0.3197
35070SOL    HW2 9768   4.474   7.503   1.645 -0.6486 -0.9798  0.9793
35071SOL     OW 9769   5.079   2.244   5.784  0.4496  0.0646 -0.0035
35071SOL    HW1 9770   5.109   2.230   5.873  0.1572  1.4626  0.3401
35071SOL    HW2 9771   5.159   2.253   5.733  0.6185 -0.9986  0.0654
35072SOL     OW 9772   5.975  11.017   8.279 -0.1840 -0.3215 -0.1604
35072SOL    HW1 9773   6.037  11.063   8.222  0.3452 -1.2757 -0.3786
35072SOL    HW2 9774   6.008  11.031   8.368 -1.3139  1.6313  0.0086
35073SOL     OW 9775  10.834   3.251   3.290  0.2730 -0.5097 -0.2451
35073SOL    HW1 9776  10.786   3.169   3.299  0.2037 -0.2426  3.3085
35073SOL    HW2 9777  10.779   3.305   3.233 -0.8608 -2.0628 -0.7087
35074SOL     OW 9778   4.999  10.500   7.363 -0.0550 -0.4271 -0.1416
35074SOL    HW1 9779   5.034  10.518   7.276 -0.9370  0.0974 -0.4015
35074SOL    HW2 9780   5.007  10.405   7.372 -1.4893 -0.7211 -1.4936
35075SOL     OW 9781   6.643   7.406   7.530 -0.0809  0.0954  0.5379
35075SOL    HW1 9782   6.685   7.323   7.508 -1.5991 -0.9847  1.5951
35075SOL    HW2 9783   6.716   7.468   7.535  1.0021 -0.9383 -1.1229
35076SOL     OW 9784   5.799   3.313  10.806  0.3505 -0.4807 -0.1690
35076SOL    HW1 9785   5.735   3.346  10.742  1.6148  1.3375 -0.5677
35076SOL    HW2 9786   5.756   3.325  10.891 -0.1312  0.0069 -0.4722
35077SOL     OW 9787   1.248   0.693   5.097 -0.7248 -0.0963 -0.2378
35077SOL    HW1 9788   1.193   0.715   5.022  0.4122  2.2868 -0.4747
35077SOL    HW2 9789   1.210   0.744   5.169 -1.5428 -2.0200  0.7745
35078SOL     OW 9790   4.990   9.958   0.336 -0.1023  0.3183 -0.4856
35078SOL    HW1 9791   4.957   9.977   0.424  0.2298  0.1703 -0.3256
35078SOL    HW2 9792   5.077   9.921   0.351 -0.1063  0.1493 -0.8699
35079SOL     OW 9793   3.375   9.911   8.181  0.2675  0.5020 -0.2143
35079SOL    HW1 9794   3.432   9.985   8.203  1.1379 -0.1727 -0.1294
35079SOL    HW2 9795   3.294   9.951   8.150  0.0296  1.5015  1.5575
35080SOL     OW 9796   5.640   5.699   1.049  0.2757 -0.3773  0.3124
35080SOL    HW1 9797   5.709   5.643   1.085 -0.3755  0.0718  2.3746
35080SOL    HW2 9798   5.605   5.745   1.125 -1.9469 -0.1936 -0.7645
35081SOL     OW 9799  10.246   3.627   1.758  0.2352 -0.4576 -0.1332
35081SOL    HW1 9800  10.319   3.593   1.706  1.1032 -0.1616  0.8636
35081SOL    HW2 9801  10.169   3.580   1.725  1.0218 -1.4969 -0.5372
35082SOL     OW 9802   5.084   2.730   8.907  0.6740 -0.0493 -0.1944
35082SOL    HW1 9803   5.085   2.753   9.000 -1.9154  0.3484 -0.1957
35082SOL    HW2 9804   5.009   2.671   8.897 -0.8879  2.0896 -2.4315
35083SOL     OW 9805   1.345   0.355   7.913 -0.1727 -0.0962 -1.0014
35083SOL    HW1 9806   1.331   0.429   7.854 -0.6551 -0.5727 -1.4994
35083SOL    HW2 9807   1.440   0.354   7.927  0.0722 -0.5035 -2.4988
35084SOL     OW 9808  10.933   5.649   4.243 -0.5773  0.1456  0.4224
35084SOL    HW1 9809  10.993   5.694   4.183 -0.9526 -0.7789 -0.6915
35084SOL    HW2 9810  10.862   5.711   4.256  0.2649  0.9789  1.1970
35085SOL     OW 9811   1.050   6.096   5.996 -0.3369  0.2314  0.4317
35085SOL    HW1 9812   1.047   6.130   5.906  0.8151  0.3015  0.4117
35085SOL    HW2 9813   0.969   6.046   6.005 -0.1581 -0.3473 -0.8802
35086SOL     OW 9814  10.560   2.887   0.810 -0.0354 -0.3631  0.2496
35086SOL    HW1 9815  10.641   2.884   0.760  0.7410 -1.4206  1.5114
35086SOL    HW2 9816  10.552   2.978   0.837  0.8218 -0.2788  0.2464
35087SOL     OW 9817   6.054   4.399  11.991  0.6885 -0.5551  0.5438
35087SOL    HW1 9818   6.039   4.484  12.032  1.1570 -0.5099  0.6202
35087SOL    HW2 9819   6.144   4.376  12.013  0.6901 -0.8945  0.2029
35088SOL     OW 9820  10.436   9.496   3.685 -0.1301  0.0420  0.0613
35088SOL    HW1 9821  10.424   9.426   3.749  0.3575  1.9279  2.3577
35088SOL    HW2 9822  10.521   9.478   3.645  0.8862  0.3048  1.9946
35089SOL     OW 9823   7.455   2.257  11.905 -0.0844  0.1426  0.3195
35089SOL    HW1 9824   7.441   2.336  11.852 -0.4283 -0.8751 -1.1851
35089SOL    HW2 9825   7.367   2.222  11.918  0.0476  0.1108  1.1876
35090SOL     OW 9826   0.883   7.294  10.734  0.1820 -0.1189  0.0144
35090SOL    HW1 9827   0.940   7.223  10.765  1.3454  1.3987  1.5785
35090SOL    HW2 9828   0.820   7.251  10.677  0.5926 -2.4658  1.1978
35091SOL     OW 9829   2.638   0.595   2.786 -0.3085  0.7073 -0.6385
35091SOL    HW1 9830   2.572   0.643   2.836  0.3377  0.9585 -0.0079
35091SOL    HW2 9831   2.720   0.616   2.830  0.1447  0.1046 -1.1938
35092SOL     OW 9832   2.711   7.634   6.879 -0.1944 -0.3712 -0.0819
35092SOL    HW1 9833   2.669   7.712   6.914 -1.0503 -2.3331  3.7407
35092SOL    HW2 9834   2.794   7.627   6.926  1.1535 -0.4677 -2.2985
35093SOL     OW 9835   5.456   1.694   3.314 -0.2926  0.1015 -0.5371
35093SOL    HW1 9836   5.380   1.637   3.311 -0.7887  0.7451 -0.4228
35093SOL    HW2 9837   5.530   1.635   3.329 -0.8413 -0.4599  0.0118
35094SOL     OW 9838   5.624   2.089  11.310 -0.1988  0.1596  0.0536
35094SOL    HW1 9839   5.655   2.053  11.392  0.5537 -0.6294 -0.5655
35094SOL    HW2 9840   5.549   2.145  11.335 -0.6644 -0.9089  1.1401
35095SOL     OW 9841   9.321   8.781   3.100  0.0135  0.1096 -0.4132
35095SOL    HW1 9842   9.409   8.816   3.085  0.6677 -1.8674 -1.5479
35095SOL    HW2 9843   9.289   8.759   3.013 -0.3571 -2.0227  0.2182
35096SOL     OW 9844  10.037  10.552   7.311 -0.1507 -0.2063 -0.4637
35096SOL    HW1 9845  10.027  10.600   7.229 -1.5875 -1.2023 -0.8977
35096SOL    HW2 9846  10.127  10.571   7.338  0.4664 -0.1021 -2.4191
35097SOL     OW 9847   7.042   4.065   5.898 -0.3452 -0.2341 -0.7797
35097SOL    HW1 9848   6.968   4.009   5.875  0.0505 -1.4140  0.6913
35097SOL    HW2 9849   7.118   4.019   5.862 -0.0398 -0.5631  0.2635
35098SOL     OW 9850   9.428  10.165   9.219  0.0162  0.6116  0.0506
35098SOL    HW1 9851   9.379  10.083   9.207  1.8740 -0.6825  0.9313
35098SOL    HW2 9852   9.361  10.228   9.248 -1.2854 -0.8385  0.3555
35099SOL     OW 9853   4.442   4.090   2.636 -0.4917  0.4887 -0.3948
35099SOL    HW1 9854   4.373   4.122   2.578 -0.0941  1.6496 -0.2486
35099SOL    HW2 9855   4.433   3.995   2.634 -1.5700  0.5916 -1.0178
35100SOL     OW 9856   2.230  10.699   2.690 -0.6365  0.4605 -0.1445
35100SOL    HW1 9857   2.219  10.764   2.621 -1.8893  0.7853  0.3249
35100SOL    HW2 9858   2.278  10.744   2.759  0.1315  0.3017 -0.5634
35101SOL     OW 9859  10.706   1.237   7.144 -0.4006  0.1387 -0.9607
35101SOL    HW1 9860  10.696   1.177   7.218 -0.2489 -1.6443 -2.3200
35101SOL    HW2 9861  10.800   1.242   7.129 -0.4853 -3.1333 -3.7269
35102SOL     OW 9862   7.392   0.540   3.310 -0.0799  0.1582 -0.0958
35102SOL    HW1 9863   7.340   0.619   3.297 -0.1821  0.1492  0.2744
35102SOL    HW2 9864   7.460   0.545   3.242 -0.8753 -0.0970 -0.9407
35103SOL     OW 9865   7.245   4.653   0.456 -0.0221  0.1536 -0.5018
35103SOL    HW1 9866   7.178   4.668   0.389  0.0105  1.4167 -0.2815
35103SOL    HW2 9867   7.198   4.665   0.539  0.4704  1.1238 -0.3483
35104SOL     OW 9868   7.632   3.562  10.270 -0.4617 -0.6499  0.0547
35104SOL    HW1 9869   7.628   3.655  10.252 -1.4185 -0.7042 -0.0829
35104SOL    HW2 9870   7.540   3.534  10.272 -0.1673 -1.7714 -0.9125
35105SOL     OW 9871   5.064   2.345   6.401 -0.1890  0.2866  0.0026
35105SOL    HW1 9872   5.079   2.294   6.481 -1.2401 -0.4011 -0.2107
35105SOL    HW2 9873   4.994   2.298   6.356  1.0559  0.1015 -1.8288
35106SOL     OW 9874   1.725   7.846  11.116  0.4311  0.1519 -0.1905
35106SOL    HW1 9875   1.637   7.878  11.133  0.0932 -0.0194 -1.4994
35106SOL    HW2 9876   1.770   7.851  11.200 -1.1453 -0.7579  0.7521
35107SOL     OW 9877   1.851   1.772   2.392 -0.5083 -0.0459 -0.4403
35107SOL    HW1 9878   1.771   1.721   2.396 -0.2276 -0.5748 -1.3913
35107SOL    HW2 9879   1.921   1.709   2.409 -0.2759  0.3878  0.2709
35108SOL     OW 9880   5.590   9.667   5.813  0.1782 -0.1481  0.0101
35108SOL    HW1 9881   5.665   9.613   5.836 -0.7421 -1.3646  0.2892
35108SOL    HW2 9882   5.577   9.725   5.887  0.8442  0.0709 -0.0454
35109SOL     OW 9883   4.116   5.513   8.609  0.0807 -0.5044  0.0538
35109SOL    HW1 9884   4.124   5.489   8.516 -1.1526 -1.3059  0.1316
35109SOL    HW2 9885   4.168   5.447   8.655 -0.7476 -1.1871  0.0402
35110SOL     OW 9886   3.383   4.136   9.214 -0.3234 -0.3084  0.3905
35110SOL    HW1 9887   3.399   4.046   9.241 -0.3563 -1.4470 -2.9400
35110SOL    HW2 9888   3.298   4.133   9.170 -0.8884  1.6551  1.2082
35111SOL     OW 9889   1.290   4.487   6.453  0.4920 -0.6053 -0.3872
35111SOL    HW1 9890   1.203   4.468   6.416  0.2813 -0.5628  0.0733
35111SOL    HW2 9891   1.328   4.551   6.393 -0.6095  0.9138  0.4637
35112SOL     OW 9892   7.614   8.440  10.962  0.6092  0.1869 -0.2908
35112SOL    HW1 9893   7.606   8.417  11.054  0.1123 -3.0958 -1.0314
35112SOL    HW2 9894   7.704   8.470  10.952  0.4433  1.3536  1.3586
35113SOL     OW 9895   5.440   3.607   0.698 -0.2503 -0.2492 -0.1049
35113SOL    HW1 9896   5.535   3.605   0.709 -0.4514 -1.2500  1.6669
35113SOL    HW2 9897   5.412   3.687   0.743 -0.1327  1.0149 -2.1318
35114SOL     OW 9898   2.563   3.230   6.032 -0.3645 -0.4923 -0.4264
35114SOL    HW1 9899   2.520   3.158   5.987 -1.0999 -0.3384 -0.0013
35114SOL    HW2 9900   2.654   3.225   6.006 -0.9914  0.5473 -3.1950
35115SOL     OW 9901   1.920   6.701   2.316 -0.5386 -0.4065 -0.5392
35115SOL    HW1 9902   1.901   6.626   2.260 -1.4158 -1.0852  0.6237
35115SOL    HW2 9903   2.009   6.687   2.346  0.2394  0.3756 -2.3527
35116SOL     OW 9904   9.939   0.855  10.811 -0.1356 -0.0663 -0.2287
35116SOL    HW1 9905   9.878   0.837  10.883 -0.3018  2.0221  0.2367
35116SOL    HW2 9906   9.943   0.951  10.808  2.1122 -0.1452 -1.1279
35117SOL     OW 9907   7.319   4.904   4.368 -0.9614 -0.2842  0.1183
35117SOL    HW1 9908   7.296   4.940   4.282  1.0217 -0.7701 -0.7011
35117SOL    HW2 9909   7.407   4.868   4.354  0.2192  1.2806  2.8337
35118SOL     OW 9910   9.228   3.976   4.937 -0.4505 -0.7881  0.4280
35118SOL    HW1 9911   9.309   3.927   4.932 -0.6526 -1.1253  0.4436
35118SOL    HW2 9912   9.235   4.027   5.018 -0.8062 -1.8035  1.1120
35119SOL     OW 9913   2.793   3.845   9.328  0.0062 -0.2798 -0.5140
35119SOL    HW1 9914   2.747   3.762   9.319 -0.7864 -0.0616  1.1581
35119SOL    HW2 9915   2.854   3.846   9.255  0.6398 -2.7115 -0.1132
35120SOL     OW 9916  10.889   0.486   6.580 -0.2878 -0.3830 -1.1170
35120SOL    HW1 9917  10.899   0.537   6.660  2.4167 -0.6431 -1.1695
35120SOL    HW2 9918  10.807   0.438   6.591  0.3616 -0.9834  1.8532
35121SOL     OW 9919   5.222   4.590   9.376  0.2241  0.6458  0.8082
35121SOL    HW1 9920   5.212   4.542   9.458  0.2586  2.6494  2.0510
35121SOL    HW2 9921   5.299   4.646   9.390  1.0863  0.0446 -1.1293
35122SOL     OW 9922   3.269   4.436   6.584 -0.4229  0.2244 -0.1758
35122SOL    HW1 9923   3.224   4.354   6.605  1.2500 -0.7767 -0.3233
35122SOL    HW2 9924   3.330   4.449   6.657 -2.0371  2.4618  0.8957
35123SOL     OW 9925   3.968   2.327   0.213  0.2237  0.1742  0.3103
35123SOL    HW1 9926   3.965   2.391   0.284  2.9910 -0.6912  1.3433
35123SOL    HW2 9927   3.877   2.304   0.197 -0.7382  3.1643  0.9581
35124SOL     OW 9928   0.341   9.730   1.493  0.1591  0.0338 -0.6865
35124SOL    HW1 9929   0.375   9.728   1.583  0.4761 -1.7891 -0.8037
35124SOL    HW2 9930   0.258   9.776   1.500  0.6248  0.7480  0.3763
35125SOL     OW 9931  12.060   3.938   1.004  0.4834 -0.0784 -0.1757
35125SOL    HW1 9932  12.087   4.028   1.022 -0.3398  0.0394  0.5429
35125SOL    HW2 9933  12.058   3.896   1.090  0.8470 -0.7862 -0.5050
35126SOL     OW 9934   1.935   7.944   4.947 -0.0706 -0.0126 -0.6891
35126SOL    HW1 9935   1.995   8.018   4.956 -0.8586  0.6542 -0.8565
35126SOL    HW2 9936   1.850   7.978   4.976 -0.5404 -0.7142 -1.2211
35127SOL     OW 9937   9.525   1.786   8.156  0.0067  0.4136  0.0402
35127SOL    HW1 9938   9.577   1.787   8.075  0.2710 -0.8669  0.1731
35127SOL    HW2 9939   9.449   1.841   8.136  0.5298  0.8705 -0.7589
35128SOL     OW 9940   6.181  11.911   4.092 -0.2626 -0.3134  0.0511
35128SOL    HW1 9941   6.227  11.853   4.031  1.0203  1.3645 -0.6621
35128SOL    HW2 9942   6.205  11.878   4.179 -1.0596 -1.9346 -0.3016
35129SOL     OW 9943   7.548   7.591   4.550  0.2364 -0.2233 -0.1750
35129SOL    HW1 9944   7.521   7.673   4.591  1.3255  0.3661 -0.6042
35129SOL    HW2 9945   7.470   7.562   4.502 -0.1476  0.5773 -0.0576
35130SOL     OW 9946  10.019   7.405   7.518  0.1404  0.1322  0.3101
35130SOL    HW1 9947  10.092   7.343   7.518  0.5584  0.5851  1.8172
35130SOL    HW2 9948   9.998   7.418   7.611  1.1314  3.4441  0.2244
35131SOL     OW 9949   1.924  10.329   1.974  0.1174 -0.1001  0.7939
35131SOL    HW1 9950   1.973  10.406   1.947  0.6656 -0.3196  1.1561
35131SOL    HW2 9951   1.923  10.272   1.897 -0.7542  0.4894  0.3498
35132SOL     OW 9952   2.156   5.852  10.268 -0.1884  0.0467  0.3884
35132SOL    HW1 9953   2.167   5.875  10.360  2.1681  1.6375 -0.2109
35132SOL    HW2 9954   2.158   5.756  10.267  0.5541  0.0144  1.9053
35133SOL     OW 9955   9.081   9.884   2.447 -0.0174  0.5369 -0.4388
35133SOL    HW1 9956   9.034   9.915   2.370 -0.4286 -0.1800 -0.4896
35133SOL    HW2 9957   9.118   9.963   2.486  2.5344  0.7129 -2.8715
35134SOL     OW 9958   7.533  10.290   4.248 -0.0049  0.5079 -0.0791
35134SOL    HW1 9959   7.623  10.322   4.255  0.1463  0.3688 -1.1522
35134SOL    HW2 9960   7.532  10.209   4.299  0.3804  0.6956  0.2326
35135SOL     OW 9961   0.202   4.030   6.295  0.0097  0.0804 -0.0303
35135SOL    HW1 9962   0.185   4.124   6.294 -2.3036 -0.2662  0.1529
35135SOL    HW2 9963   0.165   3.998   6.212  2.8997 -0.4272 -1.2607
35136SOL     OW 9964   1.114  10.237   0.554  0.0035 -0.2211 -0.1329
35136SOL    HW1 9965   1.171  10.214   0.627 -0.5169 -0.9189  0.0652
35136SOL    HW2 9966   1.083  10.325   0.574 -0.7243 -0.6926  0.8625
35137SOL     OW 9967  10.719   5.616   3.883  0.3913 -0.2159 -0.8589
35137SOL    HW1 9968  10.789   5.600   3.946 -0.4952 -0.9369 -0.0198
35137SOL    HW2 9969  10.656   5.545   3.898  0.2261 -0.5059 -2.6756
35138SOL     OW 9970   9.465   7.907   9.447 -0.2150 -0.2211  0.8674
35138SOL    HW1 9971   9.506   7.951   9.372 -0.2409  1.2914  1.7072
35138SOL    HW2 9972   9.372   7.927   9.438 -0.2048  0.0592  1.3575
35139SOL     OW 9973   3.901  10.762  10.554 -0.5238 -0.2234  0.1852
35139SOL    HW1 9974   3.891  10.702  10.628  1.0452 -1.5077 -0.5906
35139SOL    HW2 9975   3.909  10.706  10.477 -0.3472  1.0289 -0.7568
35140SOL     OW 9976   8.350   9.696   9.774  0.2178  0.1828  0.3101
35140SOL    HW1 9977   8.262   9.669   9.798  0.2094  0.3715  0.4963
35140SOL    HW2 9978   8.391   9.617   9.738  0.0990 -0.0027  0.5841
35141SOL     OW 9979   6.313  11.611   3.365 -0.0716  0.2841 -0.6330
35141SOL    HW1 9980   6.302  11.706   3.362  0.9103  0.6161  2.5399
35141SOL    HW2 9981   6.401  11.599   3.402  0.0062 -1.8768 -1.4079
35142SOL     OW 9982   9.256   9.511   0.865  0.3235 -0.8282 -0.0693
35142SOL    HW1 9983   9.215   9.465   0.939 -0.7486  0.3679  0.0952
35142SOL    HW2 9984   9.233   9.459   0.788 -1.4541 -0.2367  0.0307
35143SOL     OW 9985   9.139   7.077   7.409  0.2784 -0.1058 -0.0551
35143SOL    HW1 9986   9.117   7.044   7.496  0.4313  0.8189  0.3498
35143SOL    HW2 9987   9.173   7.001   7.363  0.6318 -0.5210  0.8495
35144SOL     OW 9988   3.846   9.668   7.845  0.4995  0.1146  0.0337
35144SOL    HW1 9989   3.834   9.637   7.755 -0.4973  2.3242 -0.6510
35144SOL    HW2 9990   3.886   9.593   7.890  0.4019 -1.2961 -2.0522
35145SOL     OW 9991   7.023   9.897  12.025  0.1510 -0.2822 -0.0300
35145SOL    HW1 9992   7.083   9.854  12.087  0.3428 -0.9925 -0.6902
35145SOL    HW2 9993   7.078   9.960  11.978  0.3239 -0.7264 -0.4327
35146SOL     OW 9994   4.791  10.040   9.572  0.2810 -0.0364 -0.1351
35146SOL    HW1 9995   4.795   9.954   9.530  1.9561 -0.3535  0.5987
35146SOL    HW2 9996   4.754  10.022   9.659 -0.4919  0.1810 -0.4120
35147SOL     OW 9997   4.220   8.813  11.086 -0.0793 -0.4044  0.0197
35147SOL    HW1 9998   4.289   8.848  11.030 -1.2092  1.0617 -0.5257
35147SOL    HW2 9999   4.192   8.887  11.139 -2.0323 -0.6165 -0.6250
35148SOL     OW10000  10.587   4.439  10.251  0.0518  0.1332 -0.1604
35148SOL    HW110001  10.577   4.394  10.167  0.0756  0.4091 -0.3118
35148SOL    HW210002  10.567   4.530  10.232 -2.0171 -0.1147  0.5535
35149SOL     OW10003   8.123   7.684   0.298  0.1368 -0.0327 -0.2231
35149SOL    HW110004   8.079   7.762   0.264  0.3340 -0.1617 -0.7964
35149SOL    HW210005   8.124   7.623   0.223 -0.3863 -0.7423  0.3324
35150SOL     OW10006   9.897   5.098  11.245  0.3536 -0.3843 -0.4842
35150SOL    HW110007   9.844   5.019  11.247 -0.7612  0.3315 -0.3430
35150SOL    HW210008   9.951   5.089  11.167 -0.6510 -0.7362 -1.1596
35151SOL     OW10009  10.344  11.466  11.106  0.2536  0.6565  0.2623
35151SOL    HW110010  10.304  11.381  11.126 -0.9793  1.1457  0.0217
35151SOL    HW210011  10.393  11.451  11.026  1.3428 -0.1906  1.0609
35152SOL     OW10012   9.887   3.629   1.488  0.3514 -0.2991  0.2724
35152SOL    HW110013   9.950   3.686   1.444  1.0545 -0.8822  0.5137
35152SOL    HW210014   9.870   3.672   1.572  0.6381 -0.2750  0.3194
35153SOL     OW10015   7.515  11.956   7.655  0.4544 -0.1186  0.0756
35153SOL    HW110016   7.476  11.869   7.661  2.3543 -1.0561 -0.4173
35153SOL    HW210017   7.530  11.969   7.562 -0.9256  1.3036  0.0090
35154SOL     OW10018   2.612  10.766   3.813 -0.5855 -0.1491 -0.8017
35154SOL    HW110019   2.658  10.804   3.887 -0.9159  0.1755 -0.7629
35154SOL    HW210020   2.609  10.672   3.833  0.8211 -0.3110 -1.2227
35155SOL     OW10021   6.404   2.379  11.022  0.5116  0.2411  0.3255
35155SOL    HW110022   6.439   2.368  11.111  1.1680  0.8439  0.1493
35155SOL    HW210023   6.366   2.467  11.023  0.8096  0.3739 -0.0893
35156SOL     OW10024  10.478   7.943   0.038  0.0066 -0.1371 -0.6048
35156SOL    HW110025  10.417   7.897  -0.020 -2.0172 -0.2787  1.5057
35156SOL    HW210026  10.504   7.877   0.103 -0.3684  0.8206  0.5558
35157SOL     OW10027   1.631  11.739   6.103 -0.3357 -0.6163  0.9672
35157SOL    HW110028   1.539  11.713   6.094 -1.1588  1.5925  2.2491
35157SOL    HW210029   1.647  11.797   6.029  0.4750 -2.0140  0.0026
35158SOL     OW10030   1.374   8.900   8.107  0.5658  0.2175 -0.6369
35158SOL    HW110031   1.430   8.834   8.148 -0.5798  0.4475  1.4638
35158SOL    HW210032   1.361   8.869   8.018  1.4972 -1.4653 -0.2294
35159SOL     OW10033   6.724   3.211  12.033  0.2950 -0.6195 -0.3386
35159SOL    HW110034   6.730   3.172  12.121  0.2599  0.5862  0.2218
35159SOL    HW210035   6.633   3.240  12.027  0.4083 -0.3203 -0.6038
35160SOL     OW10036   2.619  11.194  10.021  0.0561 -0.6632 -0.0532
35160SOL    HW110037   2.603  11.233   9.935  0.9169 -1.9737 -0.8575
35160SOL    HW210038   2.714  11.181  10.023  0.1886  0.3199  1.5575
35161SOL     OW10039   4.864  10.548   1.252 -0.2375 -0.8235  0.1842
35161SOL    HW110040   4.780  10.545   1.207  0.4956 -0.9517 -1.2305
35161SOL    HW210041   4.847  10.599   1.331 -2.0085 -2.1908  0.7630
35162SOL     OW10042   3.585   0.325   5.148  0.3249  0.0173 -0.8847
35162SOL    HW110043   3.598   0.284   5.062 -1.2774  0.7886 -1.5395
35162SOL    HW210044   3.522   0.395   5.131  1.3711  1.3745  0.6062
35163SOL     OW10045   4.882   1.526   4.286 -0.0843 -0.2034  0.2436
35163SOL    HW110046   4.916   1.536   4.375  0.1551  1.2578  0.0255
35163SOL    HW210047   4.856   1.615   4.261  2.4860  0.0164 -2.1567
35164SOL     OW10048  12.036   7.478  11.886  0.2813 -0.4667  0.2477
35164SOL    HW110049  11.952   7.489  11.930  1.3033  2.0367  1.7931
35164SOL    HW210050  12.014   7.435  11.803 -2.4661 -0.1723  0.7231
35165SOL     OW10051   5.854   3.050   1.731  0.6448 -0.0123 -0.1444
35165SOL    HW110052   5.890   2.981   1.675 -0.7137  0.0708 -1.1858
35165SOL    HW210053   5.788   3.006   1.784  0.3402  0.3304 -0.2313
35166SOL     OW10054   5.593   3.880   1.777  0.4586  0.4803  0.0737
35166SOL    HW110055   5.537   3.895   1.854 -0.1603  0.3877 -0.3520
35166SOL    HW210056   5.589   3.785   1.764 -1.5601  0.7313 -1.6203
35167SOL     OW10057   0.528   3.365   3.275  0.4722 -0.1247 -0.1667
35167SOL    HW110058   0.472   3.412   3.337  2.4098  1.1923  0.6940
35167SOL    HW210059   0.512   3.272   3.294  0.1742  0.2391  1.5239
35168SOL     OW10060   8.531  10.371   6.858 -0.8117 -0.4984 -0.0572
35168SOL    HW110061   8.538  10.428   6.781 -0.5856 -0.5355 -0.0673
35168SOL    HW210062   8.610  10.390   6.909 -1.5616  0.4063  0.7798
35169SOL     OW10063   2.136  12.017   2.477  0.2370  0.1262  0.2292
35169SOL    HW110064   2.217  11.970   2.459 -0.2409 -0.3187 -0.7859
35169SOL    HW210065   2.126  12.076   2.403 -0.1606  0.4814  0.5622
35170SOL     OW10066   5.377  10.345   1.173  0.2946  0.0845 -0.3193
35170SOL    HW110067   5.317  10.392   1.116  0.2012 -0.2046 -0.4640
35170SOL    HW210068   5.364  10.383   1.260  0.5739  0.6575 -0.5246
35171SOL     OW10069   2.872  10.253   1.668 -0.0521  0.1649 -0.0317
35171SOL    HW110070   2.906  10.189   1.731  0.0513  0.3864  0.1414
35171SOL    HW210071   2.948  10.276   1.614  0.2139  1.0553  0.6928
35172SOL     OW10072  10.346   4.000   2.157  0.3890 -0.4273 -0.1142
35172SOL    HW110073  10.281   3.965   2.218  0.1179 -0.5143 -0.4517
35172SOL    HW210074  10.395   3.923   2.128 -0.4307 -0.5790 -1.1209
35173SOL     OW10075  10.276  10.080   1.252  0.1203 -0.0332 -0.2065
35173SOL    HW110076  10.191  10.072   1.209 -0.6887  1.4854  1.0012
35173SOL    HW210077  10.338  10.094   1.180 -0.8959  0.5090 -1.0114
35174SOL     OW10078   0.118   3.877   0.774 -0.4222 -0.0754 -0.2126
35174SOL    HW110079   0.073   3.882   0.858 -0.6366 -1.9037 -0.1953
35174SOL    HW210080   0.211   3.875   0.796 -0.4967 -3.7740  0.2666
35175SOL     OW10081   0.318   7.693   9.095  0.4935 -0.8515  0.6972
35175SOL    HW110082   0.259   7.691   9.170  1.2238 -1.2974  1.2754
35175SOL    HW210083   0.399   7.653   9.127  1.4047  0.5043  0.1692
35176SOL     OW10084   4.214   3.447   4.659  0.0567  0.0368 -0.6064
35176SOL    HW110085   4.298   3.469   4.700  0.3387 -1.0324 -0.5655
35176SOL    HW210086   4.238   3.394   4.583 -0.5091  1.3061 -1.7084
35177SOL     OW10087   0.404   4.120  10.819  0.0674 -0.1220 -0.1990
35177SOL    HW110088   0.459   4.102  10.743 -0.8099  0.6202 -1.0527
35177SOL    HW210089   0.403   4.216  10.826  0.9029 -0.1981  1.3536
35178SOL     OW10090  10.962   1.079  11.003  0.1443  0.5496  0.0601
35178SOL    HW110091  10.954   1.171  10.977 -0.8064  0.3797 -0.2899
35178SOL    HW210092  10.959   1.080  11.098  0.9653  0.9510  0.0863
35179SOL     OW10093   8.240   2.432   6.805 -0.3153 -0.1702  0.4649
35179SOL    HW110094   8.299   2.367   6.768  0.6586  0.9296 -0.0093
35179SOL    HW210095   8.201   2.390   6.882  0.3654 -1.2453  0.2377
35180SOL     OW10096  10.610  11.609   2.961  0.3629 -0.5097  0.5193
35180SOL    HW110097  10.633  11.656   2.881 -1.3034  2.2110  1.5204
35180SOL    HW210098  10.678  11.542   2.970  3.5026  2.3156 -0.4859
35181SOL     OW10099   2.021  11.187  11.477 -0.7656 -0.2265  0.1045
35181SOL    HW110100   1.996  11.237  11.399  2.0562  0.2651 -0.6183
35181SOL    HW210101   2.030  11.097  11.445  1.4582  0.1472 -0.5262
35182SOL     OW10102  11.871   9.886   3.591  0.5470 -0.5530 -0.3215
35182SOL    HW110103  11.854   9.885   3.686  1.4269  0.6777 -0.1153
35182SOL    HW210104  11.966   9.892   3.584  0.4309  0.6537 -1.2443
35183SOL     OW10105   9.336   3.973  10.521 -0.2275 -0.0771  0.1700
35183SOL    HW110106   9.308   4.036  10.588 -0.8497 -0.7840  0.5841
35183SOL    HW210107   9.294   3.891  10.546  0.2059 -0.5512 -0.6273
35184SOL     OW10108   3.550   2.824   9.498 -0.6848 -0.2624  0.1433
35184SOL    HW110109   3.610   2.846   9.427 -1.3278  0.3524 -0.2167
35184SOL    HW210110   3.577   2.736   9.525  0.4790  0.0697  0.1010
35185SOL     OW10111   2.465   1.638   8.497  0.2198  0.0413  0.1070
35185SOL    HW110112   2.505   1.629   8.410  0.4304  1.1625  0.0762
35185SOL    HW210113   2.537   1.664   8.554  0.2217 -1.3493  0.7780
35186SOL     OW10114  10.420  11.921   1.274 -0.2866  0.4151  0.1407
35186SOL    HW110115  10.370  11.991   1.232 -1.2156 -1.0406 -1.2988
35186SOL    HW210116  10.375  11.841   1.248  3.5877 -1.1853 -2.6316
35187SOL     OW10117   5.846   4.738   5.256 -0.4983 -0.7812  0.0717
35187SOL    HW110118   5.770   4.770   5.305  0.3659 -1.2439  1.7822
35187SOL    HW210119   5.882   4.668   5.310  1.2388 -0.4677 -0.6238
35188SOL     OW10120   6.600   4.662   6.399 -0.6717  0.0397  0.1818
35188SOL    HW110121   6.614   4.721   6.325  1.8354  0.0302  0.5416
35188SOL    HW210122   6.549   4.590   6.363 -2.5015  1.6477 -0.6281
35189SOL     OW10123   6.566   6.130  12.097  0.2182 -0.3426  0.1133
35189SOL    HW110124   6.641   6.112  12.040  0.0599  0.6124 -0.4061
35189SOL    HW210125   6.582   6.076  12.175  1.6304  0.1391  0.1798
35190SOL     OW10126   9.608  11.372  10.953 -0.0879  0.2043  0.4675
35190SOL    HW110127   9.546  11.440  10.926  0.4009  0.9116  1.0457
35190SOL    HW210128   9.556  11.309  11.002 -0.6057 -0.0043 -0.3348
35191SOL     OW10129   9.632   8.655   4.697  0.2201  0.2240  0.1733
35191SOL    HW110130   9.628   8.560   4.701  4.2649 -0.1152  0.6070
35191SOL    HW210131   9.602   8.685   4.783 -1.1651 -0.5999 -0.0028
35192SOL     OW10132   8.624   0.536   5.073 -0.4262 -0.0142  0.5279
35192SOL    HW110133   8.543   0.539   5.023  0.5159 -3.1110 -1.4935
35192SOL    HW210134   8.686   0.587   5.022 -0.1221 -1.0411 -0.1636
35193SOL     OW10135   0.258   2.185   6.969 -0.3462 -0.1807  0.2350
35193SOL    HW110136   0.266   2.097   6.931  0.0022  0.5681 -1.5349
35193SOL    HW210137   0.195   2.229   6.912  0.3412  1.0673  0.4059
35194SOL     OW10138   8.575   1.661   4.911 -0.0967  0.4181 -0.0292
35194SOL    HW110139   8.571   1.568   4.887 -2.2152  0.1322  1.1701
35194SOL    HW210140   8.522   1.668   4.990  2.3545  2.1995  1.5943
35195SOL     OW10141   7.140   1.185  10.431 -0.4970 -0.8282 -0.4221
35195SOL    HW110142   7.067   1.145  10.479  0.5425 -1.9998  0.2289
35195SOL    HW210143   7.218   1.146  10.469  0.4260 -0.7354 -2.1463
35196SOL     OW10144   2.167   3.354   7.008  0.5465 -0.1456 -0.2081
35196SOL    HW110145   2.175   3.439   6.964  0.4307  0.3784  0.7391
35196SOL    HW210146   2.246   3.348   7.061  0.0980 -0.1798  0.4683
35197SOL     OW10147   7.515  11.109   3.018  0.1183  0.3845  0.1499
35197SOL    HW110148   7.572  11.164   2.963  0.9615 -0.5433  0.0629
35197SOL    HW210149   7.428  11.148   3.008  0.5258  1.1472 -0.6408
35198SOL     OW10150   7.825   2.168   2.759 -0.0057 -0.1146  0.3726
35198SOL    HW110151   7.904   2.132   2.800 -0.5867 -1.6235  0.2266
35198SOL    HW210152   7.859   2.222   2.687  0.8924 -0.9191  0.1763
35199SOL     OW10153   4.666   4.233   6.773  0.3365 -0.4613  0.3616
35199SOL    HW110154   4.663   4.207   6.681  0.7233  0.6247  0.0377
35199SOL    HW210155   4.748   4.282   6.782  0.0586 -0.1261  1.1740
35200SOL     OW10156   6.341   9.576  11.416 -0.4533  0.4449 -0.4542
35200SOL    HW110157   6.423   9.625  11.408 -1.4426  2.1738 -0.3987
35200SOL    HW210158   6.369   9.486  11.433  1.4540  0.6928 -1.9084
35201SOL     OW10159   4.167   4.026   8.928 -0.1496 -0.2676 -0.2913
35201SOL    HW110160   4.161   3.933   8.946 -1.9981 -0.0966  0.1644
35201SOL    HW210161   4.165   4.068   9.014 -0.6728  0.2435 -0.5464
35202SOL     OW10162   5.179   7.511   2.151 -0.2082  0.3851  0.3786
35202SOL    HW110163   5.126   7.578   2.107 -0.6218  0.6073  1.1977
35202SOL    HW210164   5.251   7.494   2.090 -1.1916  0.1035 -0.7451
35203SOL     OW10165   1.945   8.215  11.526 -0.1147 -0.0545 -0.0372
35203SOL    HW110166   2.029   8.193  11.484  0.9916  0.5733  1.7259
35203SOL    HW210167   1.969   8.276  11.596 -2.1254  0.4765  0.2446
35204SOL     OW10168   3.182   3.105   9.848  0.2073 -0.0225 -0.2707
35204SOL    HW110169   3.245   3.102   9.920  0.4461  0.8802 -0.4265
35204SOL    HW210170   3.109   3.051   9.878 -0.4452  1.6917  1.3913
35205SOL     OW10171  11.994   4.440   3.416  0.3813  0.3600  0.0216
35205SOL    HW110172  12.065   4.391   3.458  1.0014  0.4142 -0.9303
35205SOL    HW210173  12.035   4.521   3.386 -0.0023  0.2462 -0.8272
35206SOL     OW10174   6.672   5.909   0.593  0.5057 -0.1197  0.3235
35206SOL    HW110175   6.726   5.870   0.661  1.4083 -0.7711 -0.7300
35206SOL    HW210176   6.584   5.875   0.609 -0.0341  2.1220  2.9679
35207SOL     OW10177  11.318   0.236  10.541  0.3973  0.1403  0.0866
35207SOL    HW110178  11.361   0.321  10.551  0.7577  0.2040 -1.6688
35207SOL    HW210179  11.390   0.173  10.539  0.1757 -0.1355  0.6626
35208SOL     OW10180   6.518   2.987   6.324  0.5173 -0.1755  0.0423
35208SOL    HW110181   6.451   2.978   6.257 -0.8575 -2.1527  1.5761
35208SOL    HW210182   6.563   3.068   6.302  0.1268 -0.7036 -3.2255
35209SOL     OW10183  10.705   8.472   7.752  0.4442 -0.5241 -0.0651
35209SOL    HW110184  10.653   8.393   7.767 -1.8236  1.0177  0.7303
35209SOL    HW210185  10.648   8.544   7.780  3.1385  1.3034  1.2009
35210SOL     OW10186   1.197   9.526   6.270 -0.3551 -0.1384 -0.0046
35210SOL    HW110187   1.246   9.554   6.347  1.3598  1.5716 -1.6030
35210SOL    HW210188   1.114   9.493   6.304 -0.3141  2.0162  2.4514
35211SOL     OW10189   8.245   2.023   2.079  0.1744  0.1417  0.3300
35211SOL    HW110190   8.189   1.967   2.133  1.7373 -1.2543  0.5964
35211SOL    HW210191   8.297   2.074   2.141  0.2724  0.2968  0.1225
35212SOL     OW10192   8.547   6.669   8.539 -0.0006  1.1048  0.5199
35212SOL    HW110193   8.534   6.595   8.598  1.2821  1.5694  1.4309
35212SOL    HW210194   8.476   6.730   8.561 -1.0197  0.2050 -0.1873
35213SOL     OW10195   2.833   2.633  12.011 -0.1948  0.4481 -0.1849
35213SOL    HW110196   2.758   2.666  12.060 -0.6783  2.2468 -1.9926
35213SOL    HW210197   2.909   2.653  12.066 -0.9208 -0.7036  1.3221
35214SOL     OW10198   9.923   8.528   3.659  0.2544 -0.0235 -0.8816
35214SOL    HW110199   9.912   8.506   3.567  0.6453 -0.7338 -0.7634
35214SOL    HW210200   9.844   8.577   3.682  0.7994  1.4391 -1.9638
35215SOL     OW10201   8.356   1.406   1.640 -0.2563  0.2868 -0.4797
35215SOL    HW110202   8.443   1.439   1.617  0.4026 -0.8989  0.2137
35215SOL    HW210203   8.318   1.378   1.557  0.9479 -1.3012 -0.5319
35216SOL     OW10204  11.871   3.929  10.331 -0.4673 -0.3531  0.6394
35216SOL    HW110205  11.793   3.974  10.297  0.1765  0.4608  0.2090
35216SOL    HW210206  11.836   3.852  10.376 -1.5438  0.1551  0.7135
35217SOL     OW10207   1.075   3.498  10.450 -0.2673  0.1131 -0.3072
35217SOL    HW110208   1.062   3.439  10.524  0.5389  0.0728 -0.1912
35217SOL    HW210209   1.109   3.578  10.488 -2.2015  1.0254 -0.3530
35218SOL     OW10210   0.310   4.009   4.077 -0.6391  0.2651  0.0374
35218SOL    HW110211   0.259   4.000   3.997 -0.3358 -0.6842 -0.0495
35218SOL    HW210212   0.401   4.012   4.048 -0.5393  0.1500  0.3365
35219SOL     OW10213   4.700   7.180   6.555  0.2258  0.3130 -0.2667
35219SOL    HW110214   4.791   7.169   6.528  0.2647  2.6349 -1.2282
35219SOL    HW210215   4.651   7.187   6.474 -0.4050  1.8849  0.2167
35220SOL     OW10216   6.777   9.528  10.925 -0.6188 -0.3665 -0.0650
35220SOL    HW110217   6.798   9.463  10.993 -0.3072 -1.1188 -0.8504
35220SOL    HW210218   6.844   9.596  10.936  0.6519 -1.4376 -0.8327
35221SOL     OW10219   6.881   4.889   8.621  0.0675 -0.2153  0.3376
35221SOL    HW110220   6.891   4.838   8.542 -0.0264 -0.3643  0.4220
35221SOL    HW210221   6.825   4.963   8.596  2.1111  1.1677 -0.3890
35222SOL     OW10222   3.346   4.959   5.890 -0.7068  0.2768  0.1247
35222SOL    HW110223   3.253   4.948   5.869 -0.3406 -0.7959 -1.0164
35222SOL    HW210224   3.346   4.994   5.979 -2.2507  2.0634 -0.4983
35223SOL     OW10225   8.735   0.571   6.800  0.4415 -0.3504 -0.1329
35223SOL    HW110226   8.685   0.644   6.836  0.4869 -0.5231  0.2820
35223SOL    HW210227   8.732   0.584   6.705  0.4518  0.1885 -0.0589
35224SOL     OW10228   1.903   4.212   6.097 -0.0966 -0.0102 -0.3581
35224SOL    HW110229   1.946   4.128   6.086  0.4971  0.4108 -1.5552
35224SOL    HW210230   1.928   4.241   6.185  0.1213 -0.8396 -0.1380
35225SOL     OW10231   0.035   1.041   9.510 -0.2369  0.0869 -0.0100
35225SOL    HW110232   0.058   0.954   9.543 -0.6028 -0.2197 -0.5489
35225SOL    HW210233  -0.042   1.067   9.560 -0.3505 -0.0617 -0.1063
35226SOL     OW10234   2.919  11.653   0.868 -0.1165  0.7541 -0.0598
35226SOL    HW110235   2.881  11.697   0.792  0.1895  0.4976 -0.3661
35226SOL    HW210236   2.950  11.569   0.834 -0.2987  0.4855  0.4239
35227SOL     OW10237   2.909   8.839   1.374 -0.4602  0.5675  0.3176
35227SOL    HW110238   2.935   8.912   1.318  0.7798 -0.5130 -0.6001
35227SOL    HW210239   2.932   8.867   1.463  2.6761  0.2730 -0.2873
35228SOL     OW10240   8.128   7.118   9.198 -0.4528  0.2544 -0.5675
35228SOL    HW110241   8.040   7.091   9.225 -0.1914 -1.4396 -1.2795
35228SOL    HW210242   8.143   7.070   9.116  0.8444  1.1094 -0.8487
35229SOL     OW10243   2.302  12.086   5.293 -0.1043  0.1966  0.2622
35229SOL    HW110244   2.305  12.038   5.210 -1.3292 -0.0771  0.3617
35229SOL    HW210245   2.262  12.170   5.271 -0.7186  0.0046  0.6275
35230SOL     OW10246   9.722   7.560   8.708  0.4290 -0.1459  0.4661
35230SOL    HW110247   9.802   7.598   8.671 -0.2581  0.5876 -0.3132
35230SOL    HW210248   9.684   7.508   8.636 -0.8339  1.1579  0.1367
35231SOL     OW10249   9.197   2.575   9.733 -0.7637  0.5515  0.1359
35231SOL    HW110250   9.234   2.487   9.745  1.7691  1.5441  0.1055
35231SOL    HW210251   9.167   2.575   9.642 -1.5949 -0.5075  0.3734
35232SOL     OW10252   7.561  10.728   7.996 -0.9452 -0.1664 -0.2002
35232SOL    HW110253   7.555  10.779   7.915 -1.6794 -2.7175 -1.8723
35232SOL    HW210254   7.642  10.678   7.986 -0.3817  0.4015  1.2804
35233SOL     OW10255   1.984   6.450   4.694 -0.1774 -0.1392 -0.5274
35233SOL    HW110256   1.957   6.431   4.784  1.7007 -0.1760  0.0734
35233SOL    HW210257   2.038   6.375   4.669 -0.9844 -0.3024 -1.8407
35234SOL     OW10258   2.566   9.707  11.090  0.1911 -0.0597 -0.3576
35234SOL    HW110259   2.655   9.673  11.099  0.2480  0.3935  0.9866
35234SOL    HW210260   2.542   9.686  11.000  1.1028 -1.5048 -0.2935
35235SOL     OW10261  10.169   1.209   3.281  0.2814  0.8680  0.2619
35235SOL    HW110262  10.081   1.172   3.275  0.1940  0.8472  1.4989
35235SOL    HW210263  10.198   1.216   3.190  0.7618 -3.3174 -0.1029
35236SOL     OW10264   3.103   6.166   4.129 -0.2026 -0.1132  0.1298
35236SOL    HW110265   3.049   6.182   4.207 -0.5994 -0.5600 -0.0444
35236SOL    HW210266   3.042   6.175   4.056 -0.6911 -3.1436  0.0511
35237SOL     OW10267   9.082  10.675   3.487  0.1515 -0.1633  0.4772
35237SOL    HW110268   9.132  10.713   3.416 -0.6237 -1.3141 -0.7301
35237SOL    HW210269   9.019  10.742   3.512  0.4698  0.2649  0.1358
35238SOL     OW10270   4.155   6.506   6.803  0.3201 -0.3147 -0.2491
35238SOL    HW110271   4.154   6.567   6.877 -0.5952  0.7403 -1.0925
35238SOL    HW210272   4.137   6.421   6.842 -0.2959  0.2428  0.7379
35239SOL     OW10273   3.411   5.166  10.022 -0.2341 -0.4525  0.4299
35239SOL    HW110274   3.365   5.248  10.008 -0.1892 -0.6041 -0.6640
35239SOL    HW210275   3.500   5.183   9.994 -0.5428 -1.2509 -1.1312
35240SOL     OW10276   9.250  11.739   6.374  0.1966  0.4292 -0.1294
35240SOL    HW110277   9.262  11.644   6.370  0.6536  0.4845 -0.1008
35240SOL    HW210278   9.156  11.751   6.364 -0.0599 -0.1230  1.3051
35241SOL     OW10279   0.855   5.822   7.052  0.0555 -1.0551 -0.1590
35241SOL    HW110280   0.813   5.865   7.126  1.1958 -0.3894  0.1111
35241SOL    HW210281   0.925   5.769   7.090  1.3540  0.1295 -0.8035
35242SOL     OW10282  10.099   7.005   3.944  0.1918  0.0971  0.7855
35242SOL    HW110283  10.069   7.063   3.874  0.3734 -0.8608 -0.1174
35242SOL    HW210284  10.048   7.030   4.021 -0.8699  0.3782  0.0023
35243SOL     OW10285   8.716   6.972  10.516 -1.0481  0.3709 -0.0270
35243SOL    HW110286   8.781   6.964  10.586 -1.8127  0.3574  0.6885
35243SOL    HW210287   8.768   6.968  10.435 -0.1470  0.4987  0.5332
35244SOL     OW10288  11.701   3.720   6.403 -0.4439  0.2428 -0.4685
35244SOL    HW110289  11.721   3.812   6.415 -1.2767  0.3134  0.6047
35244SOL    HW210290  11.714   3.704   6.310 -1.4130  1.7337 -0.8957
35245SOL     OW10291   9.342   1.568  10.790  0.6042  0.0399 -0.0516
35245SOL    HW110292   9.323   1.633  10.857 -1.1304 -0.6392  0.1540
35245SOL    HW210293   9.413   1.515  10.826 -0.8948 -0.8849  1.6868
35246SOL     OW10294   0.974   5.125   7.263  0.4510 -0.0785  0.6149
35246SOL    HW110295   0.996   5.191   7.328  0.1975  0.8163 -0.1930
35246SOL    HW210296   0.898   5.080   7.300  0.3100  0.4172  0.9403
35247SOL     OW10297   6.673   5.314   3.666  0.1695  0.2566  0.0108
35247SOL    HW110298   6.603   5.327   3.602 -0.4703  1.2900  0.8788
35247SOL    HW210299   6.746   5.365   3.631  0.6192 -1.0344 -1.0318
35248SOL     OW10300  10.667   4.298   4.638 -0.0400 -0.2617 -0.1666
35248SOL    HW110301  10.609   4.228   4.609 -0.1108 -0.2958  0.0532
35248SOL    HW210302  10.741   4.252   4.678 -0.8035 -0.2174  1.3863
35249SOL     OW10303  11.105   6.235   9.983 -0.1604  0.1566  0.4517
35249SOL    HW110304  11.059   6.269  10.060 -0.8203  0.2238  0.0327
35249SOL    HW210305  11.058   6.155   9.961 -1.0371  1.0097 -0.8920
35250SOL     OW10306   5.637   0.803  10.530  0.0978  0.2642  0.2079
35250SOL    HW110307   5.653   0.773  10.620 -0.8768 -1.0357 -0.0174
35250SOL    HW210308   5.724   0.821  10.494  0.7615 -2.2392  0.4205
35251SOL     OW10309   6.850   0.388  10.547 -0.1321 -0.1279 -0.1893
35251SOL    HW110310   6.909   0.446  10.499  1.5161  1.1206  3.0520
35251SOL    HW210311   6.766   0.434  10.545  0.4769  1.0427  0.0152
35252SOL     OW10312   9.649   2.301   7.275 -0.2556  0.7580 -0.1103
35252SOL    HW110313   9.687   2.358   7.209  1.1593 -1.3432 -1.2311
35252SOL    HW210314   9.707   2.309   7.350 -0.9487  1.9177  0.3289
35253SOL     OW10315   1.468   3.666   0.862 -0.1657  0.1066  0.1124
35253SOL    HW110316   1.405   3.739   0.866 -0.8504 -0.4838  0.4607
35253SOL    HW210317   1.505   3.671   0.774  0.2742  1.2601  0.3500
35254SOL     OW10318  10.951   5.345  11.241  0.5588  0.4328  0.1242
35254SOL    HW110319  10.959   5.310  11.330  1.2065 -0.2312 -0.1855
35254SOL    HW210320  10.857   5.360  11.230  0.3053 -0.7846  0.4404
35255SOL     OW10321  10.017   0.012   7.786  0.2780  0.1486 -0.1628
35255SOL    HW110322  10.026  -0.056   7.719 -0.6537 -0.1093 -0.0426
35255SOL    HW210323  10.099   0.007   7.836  0.5453 -0.3616 -0.6344
35256SOL     OW10324   8.614   8.057   4.143  0.0167  0.5786  0.4146
35256SOL    HW110325   8.692   8.003   4.151 -0.7837 -0.6204  0.3828
35256SOL    HW210326   8.632   8.135   4.196  0.9433 -0.0089  0.9699
35257SOL     OW10327   2.216   0.150   7.694  0.3146 -0.1694 -0.0891
35257SOL    HW110328   2.121   0.141   7.694  0.1967  0.6931  1.0850
35257SOL    HW210329   2.232   0.224   7.754  1.6237  0.7990 -1.5674
35258SOL     OW10330   7.523   8.643   4.315  0.4338  0.0087  0.1205
35258SOL    HW110331   7.428   8.650   4.326  0.6062  0.3858  1.6456
35258SOL    HW210332   7.540   8.671   4.225 -0.7298  1.6859  0.3880
35259SOL     OW10333   4.817   1.681  10.782  0.8942  0.0847  0.2479
35259SOL    HW110334   4.730   1.643  10.770  1.0558 -0.5798  1.0926
35259SOL    HW210335   4.801   1.770  10.814  0.5301 -0.1537  0.7274
35260SOL     OW10336   3.244   9.621  10.107  0.4304  0.1654 -0.5823
35260SOL    HW110337   3.257   9.527  10.097  0.9306  0.2557 -0.8241
35260SOL    HW210338   3.327   9.653  10.142  0.9293  0.7755 -2.2253
35261SOL     OW10339  11.628   1.656  10.362 -0.4709  0.4046 -0.2596
35261SOL    HW110340  11.617   1.578  10.308 -0.7705  0.2863 -0.0279
35261SOL    HW210341  11.578   1.724  10.317  1.9023  1.1807 -1.9053
35262SOL     OW10342   8.436   3.811   4.118 -0.4773 -0.1296 -0.3685
35262SOL    HW110343   8.517   3.778   4.078 -1.4616 -1.6095 -1.2384
35262SOL    HW210344   8.401   3.874   4.054  0.8327  1.8869  0.7964
35263SOL     OW10345   6.590   6.918   6.265 -0.4669  0.1186 -0.7072
35263SOL    HW110346   6.640   6.949   6.340 -0.7670 -0.1123 -0.4129
35263SOL    HW210347   6.502   6.904   6.299 -0.3979 -0.8036 -0.9042
35264SOL     OW10348   2.559   1.988   0.623 -0.0781 -0.2637 -0.2822
35264SOL    HW110349   2.608   2.018   0.700 -0.5616 -1.8507  0.7141
35264SOL    HW210350   2.601   1.905   0.600  0.6248  0.6068 -2.3274
35265SOL     OW10351   3.402   3.919   4.403 -0.1047  0.0147  0.3955
35265SOL    HW110352   3.314   3.881   4.394  0.0783 -0.8936  1.9964
35265SOL    HW210353   3.400   3.962   4.489  1.5664 -1.6821  1.3550
35266SOL     OW10354   8.218   2.439   1.457  0.4215 -0.5122  0.3555
35266SOL    HW110355   8.286   2.390   1.410  0.4248 -0.4226  0.2665
35266SOL    HW210356   8.210   2.393   1.541  1.4963  0.2329  0.8882
35267SOL     OW10357   8.340   3.438   1.183  0.2677  0.3270  0.1767
35267SOL    HW110358   8.286   3.397   1.115  1.2153 -0.9333  0.1494
35267SOL    HW210359   8.422   3.460   1.139  1.1465 -1.0929  1.0128
35268SOL     OW10360   1.992   9.893   0.414  0.0204 -0.0876 -0.3860
35268SOL    HW110361   1.938   9.905   0.492 -0.5931  1.8649 -1.0508
35268SOL    HW210362   1.994   9.798   0.400  0.5859 -0.5273  2.2685
35269SOL     OW10363   7.850   7.099   0.651 -0.5070 -0.1957  0.2150
35269SOL    HW110364   7.867   7.185   0.613 -1.4973  0.0887  0.3764
35269SOL    HW210365   7.865   7.038   0.579  0.6843  0.0503  0.2314
35270SOL     OW10366  11.852   5.519   5.745  0.0214  0.0629  0.3157
35270SOL    HW110367  11.938   5.560   5.753  0.6208 -1.3782  1.8987
35270SOL    HW210368  11.790   5.588   5.767  0.7437  1.1083 -0.7705
35271SOL     OW10369   1.692   2.574  10.106  0.0159  0.2401  0.1595
35271SOL    HW110370   1.753   2.553  10.177  0.1591  0.4288  0.0930
35271SOL    HW210371   1.748   2.599  10.033 -0.1043 -0.8458 -0.3207
35272SOL     OW10372   0.184   3.722   0.062  0.1892  0.1505 -0.3481
35272SOL    HW110373   0.167   3.699  -0.029  2.5430 -1.3630 -0.5034
35272SOL    HW210374   0.208   3.815   0.059 -1.3793  0.5723 -0.9747
35273SOL     OW10375   2.654   5.735   5.954 -0.1537  0.5533  0.2728
35273SOL    HW110376   2.602   5.808   5.920  1.5080  0.3160 -3.2831
35273SOL    HW210377   2.741   5.749   5.917  0.6845 -2.2845  0.9287
35274SOL     OW10378   0.494   5.251   9.197 -0.2524  0.0289 -0.2226
35274SOL    HW110379   0.566   5.313   9.207  0.1928 -0.2728 -1.3499
35274SOL    HW210380   0.454   5.245   9.284  0.2150  1.2537  0.0971
35275SOL     OW10381   5.662   0.344   9.161  0.3603  0.0316  0.4765
35275SOL    HW110382   5.671   0.435   9.189  3.6097  0.2808 -0.9480
35275SOL    HW210383   5.721   0.295   9.219  1.1422 -0.6205 -0.8380
35276SOL     OW10384   1.943   1.999   8.230  0.0560  0.0680  0.4263
35276SOL    HW110385   1.970   1.972   8.143  0.8356 -1.3118  1.0788
35276SOL    HW210386   1.853   2.031   8.219  0.1757 -0.0268 -0.8746
35277SOL     OW10387   9.327   7.906   3.201 -0.1703  0.6902  0.3689
35277SOL    HW110388   9.347   7.824   3.156 -1.0687  0.6403  0.0466
35277SOL    HW210389   9.378   7.902   3.282 -1.4207 -0.9240  1.1228
35278SOL     OW10390  11.654  10.680   4.946  0.3564  0.6654  0.3094
35278SOL    HW110391  11.723  10.695   4.881  0.3268 -0.0826  0.0881
35278SOL    HW210392  11.574  10.712   4.904  0.1302 -0.9028 -0.5481
35279SOL     OW10393   8.037   3.486  11.950 -0.2761  0.4775  0.2974
35279SOL    HW110394   7.985   3.452  11.877  0.0339  0.7704 -0.0727
35279SOL    HW210395   8.114   3.429  11.954  1.2945  2.2583 -1.6751
35280SOL     OW10396   3.480   5.565   9.955  0.1280 -0.2078 -0.0498
35280SOL    HW110397   3.402   5.556  10.010 -0.4020 -0.6046 -0.8533
35280SOL    HW210398   3.542   5.501   9.990 -0.1696 -0.3910  0.1436
35281SOL     OW10399  11.993   5.927   2.726  0.1062 -0.0932 -0.1131
35281SOL    HW110400  11.902   5.955   2.722  0.0026 -0.5405 -1.9142
35281SOL    HW210401  12.011   5.914   2.819 -1.6038  0.2046  0.2792
35282SOL     OW10402   6.943   3.849   8.211 -0.0960  0.3764 -0.5984
35282SOL    HW110403   6.873   3.911   8.231 -0.9691 -0.7553 -0.0546
35282SOL    HW210404   6.917   3.768   8.255  1.8202  0.0706  0.0548
35283SOL     OW10405   7.922  11.380   3.592 -0.1197 -0.0996 -0.3090
35283SOL    HW110406   7.860  11.398   3.521 -0.1976  0.6958 -0.0568
35283SOL    HW210407   7.868  11.385   3.672  0.7626  4.0888  0.2544
35284SOL     OW10408   2.511   3.550  12.038  0.0161 -0.1652 -0.1151
35284SOL    HW110409   2.535   3.642  12.026  0.7127 -0.2016  0.9090
35284SOL    HW210410   2.425   3.542  11.996 -0.5022  1.1735  0.6297
35285SOL     OW10411   0.281   2.104   3.822 -0.6988 -0.0004 -0.5738
35285SOL    HW110412   0.301   2.053   3.900  1.6403  0.9695 -0.4382
35285SOL    HW210413   0.187   2.120   3.826 -0.5119  0.9659  2.6510
35286SOL     OW10414   3.267  11.051   0.393  0.0544 -0.4141  0.4852
35286SOL    HW110415   3.215  10.978   0.360  0.4360 -0.5358  0.1401
35286SOL    HW210416   3.235  11.127   0.344 -0.3261 -0.3538  0.8275
35287SOL     OW10417   4.337   9.137   5.968 -0.1895  0.3772  0.2555
35287SOL    HW110418   4.273   9.174   5.907 -0.0718 -2.5423 -1.8910
35287SOL    HW210419   4.290   9.066   6.012  0.9112 -0.3497  0.3025
35288SOL     OW10420   4.330   2.651   8.891 -0.4388 -0.0182  0.5213
35288SOL    HW110421   4.249   2.662   8.841 -0.2521 -0.2432  0.1642
35288SOL    HW210422   4.337   2.556   8.904  0.0679 -0.0539  0.0360
35289SOL     OW10423  10.630  11.333   5.364  0.3374  0.0825  0.5451
35289SOL    HW110424  10.681  11.274   5.309 -0.2809 -0.3907  0.4670
35289SOL    HW210425  10.542  11.295   5.366  0.3995 -0.0482  2.0507
35290SOL     OW10426   6.470   9.328   5.288 -0.2893 -0.1356 -0.4131
35290SOL    HW110427   6.499   9.264   5.223  0.0434 -0.7207  0.2881
35290SOL    HW210428   6.479   9.413   5.245 -0.8436 -0.5662 -1.4031
35291SOL     OW10429  10.122   0.023   8.524 -0.2689 -0.3443  0.0224
35291SOL    HW110430  10.203   0.061   8.557 -1.8258  4.1967 -0.6794
35291SOL    HW210431  10.062   0.025   8.599 -0.2810 -2.0764  0.0964
35292SOL     OW10432   2.798  11.361   9.021  0.3886 -0.4713  0.0016
35292SOL    HW110433   2.839  11.425   8.962  1.0474 -1.4120 -0.5798
35292SOL    HW210434   2.857  11.286   9.021 -0.4056 -1.1185  0.6265
35293SOL     OW10435   1.850  10.924   3.214  0.1390 -0.2775  0.1943
35293SOL    HW110436   1.830  10.957   3.127 -0.3536 -0.5397  0.2038
35293SOL    HW210437   1.860  11.002   3.269  0.2529 -0.1188 -0.0523
35294SOL     OW10438   7.320   9.646   1.522  0.0450  0.9029  0.6307
35294SOL    HW110439   7.314   9.655   1.427 -0.5263 -0.8210  0.4540
35294SOL    HW210440   7.232   9.667   1.555 -0.2585 -0.2120  0.5755
35295SOL     OW10441   1.546   0.531   5.563  0.3131 -0.0191  0.6224
35295SOL    HW110442   1.534   0.483   5.480 -0.9676  0.6735  0.3729
35295SOL    HW210443   1.498   0.479   5.627  0.0833  0.2134  0.6358
35296SOL     OW10444   1.926   5.558   5.511 -1.0337 -0.1093 -0.7691
35296SOL    HW110445   1.989   5.487   5.516 -2.2840 -1.1485  1.8585
35296SOL    HW210446   1.887   5.549   5.424  0.9568 -0.6694 -1.6719
35297SOL     OW10447   7.564   4.477   1.564 -0.2426 -0.0614 -0.1916
35297SOL    HW110448   7.594   4.484   1.655 -2.2161 -1.0503  0.5985
35297SOL    HW210449   7.470   4.489   1.569 -1.1201 -4.5293 -1.4153
35298SOL     OW10450   1.014  11.568   7.778 -0.1489 -0.1037 -0.5410
35298SOL    HW110451   1.068  11.646   7.785 -1.7136  0.9020  1.0091
35298SOL    HW210452   1.074  11.495   7.792  1.4028  0.7614 -2.3813
35299SOL     OW10453   9.381   9.346   9.276 -0.1132 -0.4064 -0.0742
35299SOL    HW110454   9.343   9.366   9.191 -0.1747  1.0084  0.2702
35299SOL    HW210455   9.398   9.431   9.316  1.0211 -1.0370  0.8443
35300SOL     OW10456   6.735   4.148   5.236  0.0420  0.4030 -0.7447
35300SOL    HW110457   6.653   4.106   5.211 -0.0671 -0.9200  1.6381
35300SOL    HW210458   6.799   4.112   5.175 -0.5894 -0.9726 -0.6310
35301SOL     OW10459   8.044   1.230   0.631  0.0169  0.3885 -0.0076
35301SOL    HW110460   8.087   1.291   0.691 -0.1995  0.5004  0.0339
35301SOL    HW210461   7.950   1.246   0.644 -0.0630 -0.5215  0.6004
35302SOL     OW10462   8.221   8.404   6.388 -0.2258 -0.1760  0.7359
35302SOL    HW110463   8.197   8.496   6.378  0.2388 -0.1167  0.1371
35302SOL    HW210464   8.316   8.403   6.381 -0.2634 -0.7611  0.2738
35303SOL     OW10465   9.636   9.258  10.436  0.2116  0.0069 -0.0815
35303SOL    HW110466   9.712   9.302  10.398  0.7517  0.1968  1.1878
35303SOL    HW210467   9.594   9.325  10.490  1.6271 -1.2137  2.7262
35304SOL     OW10468   6.473   8.898   7.516 -0.0901 -0.2706  0.2341
35304SOL    HW110469   6.553   8.873   7.562  0.9674  1.4444 -0.5350
35304SOL    HW210470   6.403   8.851   7.561  1.3640 -2.0355  0.7623
35305SOL     OW10471   0.755   4.223  11.014  0.4398 -0.1111  0.0428
35305SOL    HW110472   0.750   4.315  10.989  1.3787 -0.3705 -1.1955
35305SOL    HW210473   0.674   4.207  11.064  0.0943  1.2774 -0.0404
35306SOL     OW10474   5.123   0.789   5.915 -0.4473  0.1078 -0.1943
35306SOL    HW110475   5.093   0.700   5.933 -0.8669 -0.3547 -2.8112
35306SOL    HW210476   5.202   0.799   5.969 -0.9426 -1.4632  0.8923
35307SOL     OW10477   6.025   3.611   2.299  0.0992 -0.6587  0.2958
35307SOL    HW110478   6.104   3.606   2.245 -1.9347 -0.3876 -2.9626
35307SOL    HW210479   6.002   3.520   2.316  0.7617 -0.7478  0.7524
35308SOL     OW10480   2.402  10.830  11.792  0.1460  0.2654 -0.2429
35308SOL    HW110481   2.319  10.825  11.745 -0.6469 -0.7034  1.1812
35308SOL    HW210482   2.449  10.902  11.750 -1.5172  1.0192 -0.9074
35309SOL     OW10483   6.195  10.406   5.124  0.2426  0.5572  0.3550
35309SOL    HW110484   6.142  10.329   5.145  1.9507 -0.5187  0.9882
35309SOL    HW210485   6.194  10.411   5.029 -2.2223  1.5164  0.3694
35310SOL     OW10486   8.845   8.357   2.478  0.4484 -0.1176  0.7321
35310SOL    HW110487   8.865   8.293   2.545 -0.5816 -0.0585  1.1200
35310SOL    HW210488   8.762   8.396   2.506  2.1735  3.1356  1.8210
35311SOL     OW10489  10.324   6.867  12.034  0.3392 -0.0218  0.0192
35311SOL    HW110490  10.393   6.817  11.991  0.6721 -0.0335  0.5621
35311SOL    HW210491  10.368   6.943  12.071  0.0654 -0.0404  0.3856
35312SOL     OW10492  11.029   1.178   6.627  0.1912 -0.2823  0.1643
35312SOL    HW110493  11.090   1.104   6.636 -0.8434 -0.9951  1.8948
35312SOL    HW210494  11.085   1.255   6.626  1.2166 -1.0068 -0.0169
35313SOL     OW10495   8.631   6.723   3.242  0.2961  0.0738  0.2674
35313SOL    HW110496   8.657   6.740   3.152  3.1874  0.3300  1.0596
35313SOL    HW210497   8.560   6.785   3.258 -1.2639 -0.9265 -2.1754
35314SOL     OW10498   3.479   3.253   7.208  0.2424  0.4049  0.2643
35314SOL    HW110499   3.555   3.309   7.194 -0.1457  1.0371  0.6728
35314SOL    HW210500   3.508   3.188   7.271  0.3710  0.7922  0.6058
35315SOL     OW10501   8.735   3.539   8.157  0.1739  0.3054 -0.2696
35315SOL    HW110502   8.777   3.456   8.177  0.6450  0.7760  0.7785
35315SOL    HW210503   8.649   3.532   8.198 -0.6643 -0.4938 -2.0558
35316SOL     OW10504  11.846   5.112   1.097 -0.1797 -0.0482 -0.0147
35316SOL    HW110505  11.771   5.118   1.037  0.2050  0.2184 -0.4781
35316SOL    HW210506  11.893   5.034   1.069  0.0691  0.1454 -0.1482
35317SOL     OW10507  10.513   8.242  10.634 -0.1849  0.6426  0.1503
35317SOL    HW110508  10.532   8.189  10.556  1.1321  0.6974  0.4146
35317SOL    HW210509  10.417   8.242  10.639 -0.2505 -1.4142 -0.0461
35318SOL     OW10510   4.449   8.103   7.463 -0.3263 -0.3780 -0.2027
35318SOL    HW110511   4.424   8.043   7.393  0.4031  0.8648 -1.5946
35318SOL    HW210512   4.432   8.191   7.427  1.5520  0.3515  0.5375
35319SOL     OW10513   9.680   6.122   2.172 -0.1470 -0.0554  0.1453
35319SOL    HW110514   9.727   6.045   2.202 -2.4221 -1.9681 -0.8790
35319SOL    HW210515   9.648   6.164   2.252  1.3821  0.0641  0.7261
35320SOL     OW10516   4.955   1.921   4.545  0.2771  0.0315  0.1573
35320SOL    HW110517   5.038   1.955   4.578  0.0540  2.0561 -1.1537
35320SOL    HW210518   4.906   1.999   4.520 -1.2770 -1.2066 -0.8448
35321SOL     OW10519   8.225   1.089   9.037  0.3228 -0.0807 -0.2511
35321SOL    HW110520   8.282   1.012   9.040  1.9001  1.0641  0.9287
35321SOL    HW210521   8.138   1.055   9.055  1.2431 -1.3962  2.1674
35322SOL     OW10522   6.122   2.911   9.827  0.4844  0.0481 -0.2286
35322SOL    HW110523   6.076   2.995   9.831 -0.0190 -0.2030 -0.6453
35322SOL    HW210524   6.206   2.928   9.870  0.4116  0.7821 -0.3555
35323SOL     OW10525   0.880   3.393  11.575  0.5841  0.0046  0.6900
35323SOL    HW110526   0.827   3.384  11.496 -1.1967 -1.2664  1.9340
35323SOL    HW210527   0.906   3.485  11.576 -2.4263  0.9994  0.3988
35324SOL     OW10528   7.373   2.740  11.052 -0.6115  0.3019 -0.3095
35324SOL    HW110529   7.449   2.698  11.093 -0.5720  0.5794 -0.0877
35324SOL    HW210530   7.298   2.709  11.104 -0.7328 -0.5041 -0.9461
35325SOL     OW10531  11.374   7.462   1.779 -0.2519 -0.4209  0.6155
35325SOL    HW110532  11.394   7.370   1.797  0.5528 -0.5866 -0.9346
35325SOL    HW210533  11.303   7.458   1.714  0.1797  0.0191  0.1033
35326SOL     OW10534   5.212   9.403  11.789  0.0950  0.6020 -0.0141
35326SOL    HW110535   5.157   9.435  11.717  1.6151  1.0358 -1.0355
35326SOL    HW210536   5.295   9.379  11.747  1.6902  2.5782  1.7902
35327SOL     OW10537   9.016  10.268   1.774 -0.0294 -0.5716 -0.1048
35327SOL    HW110538   9.000  10.330   1.703 -1.1482  1.3838  1.7406
35327SOL    HW210539   9.096  10.222   1.748 -0.0602  0.4859 -2.3135
35328SOL     OW10540   8.837  11.923   7.132  0.6124  0.0545 -0.1507
35328SOL    HW110541   8.837  11.859   7.061  3.3071  0.7469 -0.9018
35328SOL    HW210542   8.929  11.947   7.143  0.0716  1.3909  2.3207
35329SOL     OW10543  10.381  11.606   0.639  0.0506 -0.0889  0.0693
35329SOL    HW110544  10.462  11.648   0.609 -0.9935  0.8309 -1.6203
35329SOL    HW210545  10.374  11.527   0.584 -0.2348 -0.1254  0.1595
35330SOL     OW10546   8.566   8.389   6.800 -0.4970  0.5346 -0.6424
35330SOL    HW110547   8.555   8.474   6.842 -1.1418  0.6464 -1.0303
35330SOL    HW210548   8.570   8.327   6.873  0.3987  0.9256 -0.3373
35331SOL     OW10549  11.160   6.144   9.172 -0.6453 -0.2579 -0.3428
35331SOL    HW110550  11.238   6.092   9.193 -0.8283 -0.7980 -0.9761
35331SOL    HW210551  11.175   6.228   9.216  0.2213 -0.4060 -0.3318
35332SOL     OW10552   8.247   9.202   6.736  0.2606  0.6206  0.1972
35332SOL    HW110553   8.339   9.181   6.750 -0.2206 -1.8994  0.0402
35332SOL    HW210554   8.220   9.146   6.663 -0.9531  2.7593 -1.1279
35333SOL     OW10555   0.737   5.786  10.679  0.1784 -0.4306  0.2739
35333SOL    HW110556   0.697   5.873  10.672  0.6976 -0.2136 -0.0879
35333SOL    HW210557   0.828   5.803  10.702 -0.3978 -0.9937  3.3835
35334SOL     OW10558  11.325   4.696   4.837 -0.3244 -0.1694  0.2725
35334SOL    HW110559  11.307   4.759   4.767 -0.2142 -0.3640  0.0665
35334SOL    HW210560  11.301   4.611   4.799  0.6969 -0.3989  0.1067
35335SOL     OW10561   5.905   5.660   2.892  0.5299  0.3985  1.1106
35335SOL    HW110562   5.836   5.670   2.827  2.2796  0.2622 -0.8451
35335SOL    HW210563   5.937   5.570   2.880  2.0021  0.9218  0.9777
35336SOL     OW10564  10.779   7.756   3.009  0.1681 -0.3787 -0.3241
35336SOL    HW110565  10.769   7.717   3.096  0.0299 -0.2688 -0.2895
35336SOL    HW210566  10.825   7.690   2.958  1.9980  0.2963  0.3676
35337SOL     OW10567   8.987  10.245   5.653 -0.1902  0.4054 -0.2176
35337SOL    HW110568   9.023  10.320   5.700 -0.1150  0.0733  0.2556
35337SOL    HW210569   9.063  10.194   5.627 -0.1998  0.8306 -1.1267
35338SOL     OW10570   2.210   4.269   6.841  0.0815 -0.5786  0.2324
35338SOL    HW110571   2.162   4.279   6.923 -0.0191 -0.2273  0.1299
35338SOL    HW210572   2.207   4.355   6.800 -0.4120 -0.9018 -0.4441
35339SOL     OW10573  10.377   4.030   6.723  0.3272 -0.0960 -0.3335
35339SOL    HW110574  10.413   4.005   6.808 -1.0688  0.7793  0.5586
35339SOL    HW210575  10.391   4.124   6.717 -2.7914  0.5482  0.6479
35340SOL     OW10576   5.306   8.287  11.465 -0.3404  0.2242 -0.6195
35340SOL    HW110577   5.303   8.305  11.371 -2.4643 -0.6172 -0.7736
35340SOL    HW210578   5.346   8.364  11.504  0.1490  0.7811 -2.1678
35341SOL     OW10579   0.582   5.916   4.387  0.2109  0.4241 -0.3125
35341SOL    HW110580   0.666   5.962   4.395 -0.1715  0.8828  1.6718
35341SOL    HW210581   0.590   5.841   4.446 -1.2445  1.2867  1.0611
35342SOL     OW10582   5.609   0.477   2.114 -0.2093  0.5777 -0.1539
35342SOL    HW110583   5.624   0.528   2.194  3.7057  1.0739 -1.0025
35342SOL    HW210584   5.547   0.530   2.064 -0.8708  1.4516  1.5014
35343SOL     OW10585   9.297   6.317  12.056 -0.0705  0.3287 -0.1590
35343SOL    HW110586   9.203   6.317  12.071 -0.1567 -0.3288 -0.6470
35343SOL    HW210587   9.324   6.227  12.074  0.7483  0.8881  1.6577
35344SOL     OW10588  11.498  10.193   5.402 -0.2599 -0.2725  0.2027
35344SOL    HW110589  11.473  10.114   5.355 -1.1259 -0.0886  0.3311
35344SOL    HW210590  11.416  10.226   5.439  0.2057  0.2737  0.7824
35345SOL     OW10591   8.174   7.115   1.800  0.4050 -0.6529 -0.5311
35345SOL    HW110592   8.210   7.200   1.824  0.1223 -0.7590  0.3029
35345SOL    HW210593   8.117   7.133   1.725 -2.8682  0.6514  2.0338
35346SOL     OW10594   0.248   3.761   9.284 -0.1507  0.1421 -0.2987
35346SOL    HW110595   0.188   3.788   9.215  1.3682  3.2840 -0.5419
35346SOL    HW210596   0.280   3.675   9.256  0.0319  1.0689 -3.2704
35347SOL     OW10597   1.634   2.445   3.426  0.3852  0.0701 -0.2178
35347SOL    HW110598   1.650   2.427   3.334  0.1057  1.9195 -0.6638
35347SOL    HW210599   1.543   2.474   3.429 -0.2211 -1.7734  0.9542
35348SOL     OW10600   6.682   6.721   9.528  0.1295 -0.0198  0.2461
35348SOL    HW110601   6.628   6.778   9.473  1.1726 -0.9952 -1.8926
35348SOL    HW210602   6.674   6.635   9.488  0.1659 -1.0068  2.2574
35349SOL     OW10603   5.955  11.846   3.414 -0.2879  0.0868 -0.3468
35349SOL    HW110604   5.867  11.838   3.378 -0.8063  0.0797  0.8531
35349SOL    HW210605   5.971  11.762   3.458 -0.2351  0.5663  0.5877
35350SOL     OW10606  11.626   7.141   8.409 -0.0627  0.5553 -0.6288
35350SOL    HW110607  11.681   7.117   8.484  0.8480 -0.2991 -1.5235
35350SOL    HW210608  11.659   7.226   8.381  1.4818 -0.3336 -1.6984
35351SOL     OW10609   5.614   9.844   6.570 -0.2862  0.4443 -0.0887
35351SOL    HW110610   5.581   9.756   6.589 -0.1954  0.8930  2.5816
35351SOL    HW210611   5.709   9.836   6.574 -0.2814  0.6929  0.4055
35352SOL     OW10612  11.130   0.500  10.091 -0.2228 -0.0193  0.0655
35352SOL    HW110613  11.180   0.533  10.017 -3.1182 -0.6188 -2.3519
35352SOL    HW210614  11.128   0.405  10.079 -1.3079 -0.0666  0.4689
35353SOL     OW10615   5.744  12.111   1.770 -0.2079  0.2495 -0.4066
35353SOL    HW110616   5.828  12.066   1.780 -1.2463 -2.4760 -2.7155
35353SOL    HW210617   5.703  12.105   1.856  1.7513  1.3845  0.6836
35354SOL     OW10618   5.824   6.761   9.904  0.3486  0.5273  0.4429
35354SOL    HW110619   5.803   6.681   9.855  1.4416  0.1877  0.4886
35354SOL    HW210620   5.746   6.780   9.955  0.2899 -0.8914  0.9276
35355SOL     OW10621   9.575   5.277   3.549 -0.0474 -0.3986 -0.2063
35355SOL    HW110622   9.621   5.347   3.595 -2.1938  0.1647  1.2420
35355SOL    HW210623   9.499   5.258   3.603 -0.6205 -2.4898 -1.5882
35356SOL     OW10624   1.971   4.050   4.793 -0.4726  0.2164  0.0983
35356SOL    HW110625   1.991   3.998   4.871 -0.8148  1.0205  0.7323
35356SOL    HW210626   2.049   4.040   4.738 -0.3153 -0.5367  0.4336
35357SOL     OW10627   1.255   2.992   8.691 -0.5859  0.2297  0.4701
35357SOL    HW110628   1.349   3.000   8.675 -0.6263 -0.3555 -0.1451
35357SOL    HW210629   1.215   3.009   8.605 -1.1229  1.6877  0.9826
35358SOL     OW10630  11.561   2.517   4.743  0.2065 -0.5260 -0.0149
35358SOL    HW110631  11.613   2.585   4.786 -0.4273 -0.1966  0.2415
35358SOL    HW210632  11.478   2.516   4.790  0.4942 -2.0672  0.5296
35359SOL     OW10633   9.282  10.350  12.095 -0.2959  0.1167  0.4450
35359SOL    HW110634   9.262  10.437  12.129 -1.1224  0.2659 -0.3659
35359SOL    HW210635   9.309  10.300  12.172 -1.6637  0.5636  1.2657
35360SOL     OW10636   7.231   8.631   0.515  0.1842 -0.1072 -0.2919
35360SOL    HW110637   7.306   8.625   0.457  0.1133  1.9671 -0.6873
35360SOL    HW210638   7.156   8.609   0.459  0.2260  0.7541 -0.6983
35361SOL     OW10639   9.095   8.218   2.623 -0.3334  0.0889  0.3932
35361SOL    HW110640   9.123   8.265   2.702  1.0286  0.4604 -0.2764
35361SOL    HW210641   9.110   8.280   2.552  0.4352 -0.9412 -0.3802
35362SOL     OW10642   8.659   2.943   7.705  0.2444 -0.2265 -0.1663
35362SOL    HW110643   8.685   3.027   7.742 -0.0293 -0.8458  1.5233
35362SOL    HW210644   8.610   2.966   7.626  2.5065  1.0665 -1.2882
35363SOL     OW10645   2.120   0.460   0.870 -0.0434 -0.0455  0.0377
35363SOL    HW110646   2.075   0.418   0.797  0.4978 -1.0082  0.2346
35363SOL    HW210647   2.082   0.547   0.875 -1.6837 -0.7235  0.0190
35364SOL     OW10648   5.711   9.203   9.080  0.3072  0.6235  0.0063
35364SOL    HW110649   5.688   9.142   9.150 -0.5277  0.8187 -0.0813
35364SOL    HW210650   5.719   9.148   9.002 -2.0783  0.7754 -0.4180
35365SOL     OW10651   1.736  11.418   9.832  0.2235  0.2985  0.5615
35365SOL    HW110652   1.792  11.403   9.909  2.0381  1.4938 -0.4607
35365SOL    HW210653   1.771  11.498   9.792  0.4553 -1.1849 -2.4706
35366SOL     OW10654   9.245   4.264   1.008 -0.1994  0.3191 -0.0329
35366SOL    HW110655   9.218   4.178   0.976 -0.0890  0.2910 -0.0497
35366SOL    HW210656   9.297   4.246   1.086  1.3877  0.2538 -1.0509
35367SOL     OW10657   6.283   9.583   9.157  0.0163 -0.4125  0.4730
35367SOL    HW110658   6.315   9.654   9.101 -0.1709 -0.5139  0.2359
35367SOL    HW210659   6.347   9.578   9.228  0.4710 -0.5470  0.0541
35368SOL     OW10660   1.033   6.298   2.063  0.2870  0.7030 -0.0731
35368SOL    HW110661   1.069   6.223   2.110 -0.6973  0.6050  0.5414
35368SOL    HW210662   1.010   6.263   1.977  1.7559  0.7989 -0.5266
35369SOL     OW10663   4.172  10.273   7.676 -0.3620 -0.5223  0.1161
35369SOL    HW110664   4.220  10.353   7.655  0.5202 -1.0727 -0.0432
35369SOL    HW210665   4.121  10.255   7.597 -0.2500 -0.3324 -0.0014
35370SOL     OW10666   5.231  10.350   0.190  0.1912  0.1133  0.1032
35370SOL    HW110667   5.209  10.432   0.235  1.0172  1.0954 -1.2292
35370SOL    HW210668   5.146  10.311   0.170 -0.2075  0.3244  1.2814
35371SOL     OW10669   4.271   1.235   7.386  0.1315  0.3284  0.0817
35371SOL    HW110670   4.277   1.268   7.476 -2.7189  1.5821 -0.0881
35371SOL    HW210671   4.230   1.149   7.395  0.4015  0.1938  0.0239
35372SOL     OW10672   1.870   3.713   5.384 -0.0680 -0.4972 -0.4547
35372SOL    HW110673   1.894   3.664   5.305  1.6483 -2.5520  1.1823
35372SOL    HW210674   1.893   3.654   5.456 -0.4322  1.7396  1.6297
35373SOL     OW10675   3.234   7.364  10.217  0.0708  0.4698  0.3628
35373SOL    HW110676   3.163   7.366  10.282 -0.2533 -2.2623  0.1971
35373SOL    HW210677   3.313   7.379  10.268 -0.2283 -1.1479  1.3875
35374SOL     OW10678   5.814   4.220   2.727 -0.4833 -0.4165 -0.4408
35374SOL    HW110679   5.802   4.129   2.754 -1.1315  0.5516  3.0060
35374SOL    HW210680   5.901   4.222   2.687 -0.8668 -2.6830 -1.5414
35375SOL     OW10681  10.396   4.109   8.571  0.3047 -0.1237 -0.0999
35375SOL    HW110682  10.462   4.129   8.505  1.5102  1.2295  1.4080
35375SOL    HW210683  10.330   4.178   8.562 -1.1726 -1.6585 -1.8206
35376SOL     OW10684   8.244   3.682   0.676 -0.5222  0.0545  0.1986
35376SOL    HW110685   8.170   3.730   0.638  1.3097  1.1852 -2.2080
35376SOL    HW210686   8.226   3.591   0.654 -1.0837  0.3379 -0.5880
35377SOL     OW10687   7.873   0.337   5.344 -0.6055  0.0233 -0.1957
35377SOL    HW110688   7.838   0.248   5.343  0.1355 -0.3086  1.0412
35377SOL    HW210689   7.961   0.329   5.307 -0.9770  0.4683 -1.2116
35378SOL     OW10690   7.074  12.093  10.998 -0.1441  0.1345  0.3670
35378SOL    HW110691   6.981  12.116  11.000  0.1252  1.2821  0.0863
35378SOL    HW210692   7.120  12.177  11.004  0.8802 -0.2831 -1.1842
35379SOL     OW10693   9.436   8.684   2.182 -0.0848 -0.3532 -0.3981
35379SOL    HW110694   9.365   8.670   2.119 -0.4755 -1.1860  0.1924
35379SOL    HW210695   9.405   8.642   2.262  1.0603 -0.7045 -0.1134
35380SOL     OW10696   0.118  10.394   1.037 -0.5548 -0.2166  0.4163
35380SOL    HW110697   0.213  10.397   1.046 -0.4127  0.9785 -1.0901
35380SOL    HW210698   0.086  10.368   1.124  1.0339  1.4959  1.6017
35381SOL     OW10699   5.639   8.703   6.363  0.0887 -0.0245 -0.3001
35381SOL    HW110700   5.701   8.756   6.413  0.3632 -1.2561  0.7041
35381SOL    HW210701   5.556   8.750   6.369  0.6097  0.9406 -0.5129
35382SOL     OW10702   8.038   3.534   6.204 -0.3086 -0.1659  0.8749
35382SOL    HW110703   8.001   3.510   6.120 -0.1333 -1.1275  1.0604
35382SOL    HW210704   8.023   3.457   6.260  1.0312 -0.1846  1.2463
35383SOL     OW10705   6.051   6.062   8.923  0.0008  0.1719  0.6429
35383SOL    HW110706   6.072   6.152   8.897  0.3792  0.3970  1.7053
35383SOL    HW210707   5.956   6.058   8.918  0.0206  0.4118 -0.0978
35384SOL     OW10708   8.467   5.421  11.702 -0.0140 -0.3662 -0.3005
35384SOL    HW110709   8.499   5.333  11.725  0.6885  0.2665  1.3837
35384SOL    HW210710   8.399   5.406  11.637 -0.9312 -2.2939  0.9777
35385SOL     OW10711   8.306   7.850   8.312  0.7519  0.3667  0.3470
35385SOL    HW110712   8.309   7.795   8.233  0.3273 -0.8598  1.1486
35385SOL    HW210713   8.397   7.850   8.344  0.7589  0.1417  0.3315
35386SOL     OW10714   8.715   8.411   3.206  0.0450  0.2109 -0.1778
35386SOL    HW110715   8.664   8.478   3.251  0.5286 -0.4338  1.4033
35386SOL    HW210716   8.756   8.360   3.277  2.1785  0.1730 -1.3587
35387SOL     OW10717   8.555   6.851   7.638 -0.6874  0.1147 -0.2369
35387SOL    HW110718   8.559   6.798   7.559  0.2092  0.4741 -0.4321
35387SOL    HW210719   8.537   6.940   7.607 -1.9167 -0.0067  0.0732
35388SOL     OW10720   7.300   2.405   5.626  0.0756 -0.2763  0.1947
35388SOL    HW110721   7.374   2.437   5.677 -0.1547 -1.0771  1.0575
35388SOL    HW210722   7.245   2.483   5.611 -0.3508 -0.1899  2.0225
35389SOL     OW10723  11.687   8.962   6.260 -0.3907  0.2990  0.5451
35389SOL    HW110724  11.711   9.004   6.342 -1.4555  1.1588  0.4277
35389SOL    HW210725  11.650   8.878   6.285  0.6006 -0.0645  0.8479
35390SOL     OW10726   4.624   9.456   7.325 -0.3281  0.0828 -0.2713
35390SOL    HW110727   4.647   9.363   7.316 -0.1078  0.2865 -2.2480
35390SOL    HW210728   4.562   9.473   7.254 -0.6589  1.3667  0.2958
35391SOL     OW10729   0.126   6.754   1.946 -0.0727  0.4927 -0.1613
35391SOL    HW110730   0.087   6.675   1.910  0.7581  0.7038 -1.5895
35391SOL    HW210731   0.169   6.725   2.027 -2.1187  0.0485  0.8164
35392SOL     OW10732   5.823   3.343   6.008 -0.4143  0.9251  0.6663
35392SOL    HW110733   5.766   3.419   6.012 -1.8632 -0.1132  0.7100
35392SOL    HW210734   5.787   3.283   6.074  0.2786 -0.0669  0.1691
35393SOL     OW10735   9.263   6.533   3.870  0.1153 -0.2669 -0.3333
35393SOL    HW110736   9.345   6.486   3.855  0.6528  0.4849  0.2034
35393SOL    HW210737   9.278   6.621   3.836 -1.1632 -0.6597 -2.0881
35394SOL     OW10738   6.685  12.071  10.550  0.1941  0.5790  0.3437
35394SOL    HW110739   6.736  12.047  10.627  0.7574 -0.0305 -0.2048
35394SOL    HW210740   6.658  11.987  10.512  2.5398  0.6872 -1.8372
35395SOL     OW10741   0.826   2.759   4.411  0.7290 -0.0935  0.7388
35395SOL    HW110742   0.767   2.695   4.451  0.8340 -0.2809  0.6002
35395SOL    HW210743   0.772   2.803   4.345  0.4814  0.4043  1.2659
35396SOL     OW10744   6.020   8.657   4.747 -0.0300  0.2546  0.1447
35396SOL    HW110745   5.926   8.649   4.765 -0.3846  4.5227  1.3361
35396SOL    HW210746   6.062   8.639   4.832  0.1474 -0.4639 -0.0905
35397SOL     OW10747   3.298  11.826   4.173  0.1249  0.4208  0.1650
35397SOL    HW110748   3.307  11.829   4.268 -1.6890  0.6916  0.3599
35397SOL    HW210749   3.352  11.899   4.142  3.9764 -1.9622  0.5976
35398SOL     OW10750   6.179   8.336   6.891  0.1175 -0.6888  0.0909
35398SOL    HW110751   6.100   8.307   6.936 -1.1393 -2.0210 -2.7041
35398SOL    HW210752   6.173   8.296   6.804  2.6791  1.1368 -1.0554
35399SOL     OW10753   1.275   0.551  11.230 -0.0930 -0.6071  0.1848
35399SOL    HW110754   1.191   0.595  11.216  0.4415  0.3119 -0.2249
35399SOL    HW210755   1.283   0.490  11.156 -0.0658 -0.1559 -0.1922
35400SOL     OW10756   0.180   5.538   3.449 -0.1883 -0.0523  0.0923
35400SOL    HW110757   0.268   5.546   3.486  0.1633 -1.9807 -0.2236
35400SOL    HW210758   0.194   5.500   3.362 -1.2589  0.9826 -0.5590
35401SOL     OW10759   1.354   0.580   1.396  0.0993  0.3517  0.1846
35401SOL    HW110760   1.435   0.531   1.383 -1.9270 -3.0060 -1.2359
35401SOL    HW210761   1.336   0.573   1.490  0.6251 -0.3866  0.2363
35402SOL     OW10762   6.512   6.934   1.044  0.1881  0.4239  0.0022
35402SOL    HW110763   6.488   6.841   1.047  4.1159 -0.8267 -1.2853
35402SOL    HW210764   6.489   6.968   1.131 -2.0873 -1.4744  0.2357
35403SOL     OW10765   1.491   4.434   5.698  0.0745 -0.5284  0.2152
35403SOL    HW110766   1.512   4.353   5.652  0.0681  0.2526 -1.2210
35403SOL    HW210767   1.549   4.435   5.774  2.2480 -0.4709 -1.3579
35404SOL     OW10768   1.193  10.295   4.493 -0.5672 -0.1004  0.2444
35404SOL    HW110769   1.287  10.311   4.499 -0.6418  0.2513  0.4941
35404SOL    HW210770   1.152  10.371   4.535 -1.0383  0.9415 -1.9221
35405SOL     OW10771   8.296   4.743   5.256 -0.1901 -0.5506 -0.1989
35405SOL    HW110772   8.300   4.782   5.169  0.7211 -1.6216 -0.6675
35405SOL    HW210773   8.320   4.652   5.242 -2.9367 -1.5394  0.7256
35406SOL     OW10774   9.990   7.793  10.586 -0.0422 -0.3469 -0.2765
35406SOL    HW110775   9.903   7.753  10.591 -0.9772  1.4114 -1.4206
35406SOL    HW210776  10.049   7.729  10.626 -1.9264 -1.3599  0.9980
35407SOL     OW10777   8.250   3.367  11.395  0.3715 -0.4391 -0.0136
35407SOL    HW110778   8.215   3.433  11.336 -0.2023 -0.5357  0.2182
35407SOL    HW210779   8.257   3.288  11.341 -3.2128 -1.4687  0.7692
35408SOL     OW10780   8.567   0.490   5.871  0.7460  0.0249  0.0675
35408SOL    HW110781   8.551   0.581   5.845  1.4142 -0.6338 -3.0727
35408SOL    HW210782   8.481   0.448   5.861  0.5692  0.1596  0.9403
35409SOL     OW10783   6.608   9.171   6.094  0.3174 -0.8139 -0.3879
35409SOL    HW110784   6.591   9.091   6.044  0.7367 -1.2266  0.1224
35409SOL    HW210785   6.522   9.211   6.105 -0.4063 -2.8287  2.0823
35410SOL     OW10786   3.891   0.300   0.206 -0.1410  0.2532  0.5636
35410SOL    HW110787   3.940   0.227   0.170  1.4977  1.9225 -0.8097
35410SOL    HW210788   3.830   0.260   0.268  0.9426 -2.2004  0.1664
35411SOL     OW10789   1.429  12.032   1.034  0.4680 -0.7601  1.1311
35411SOL    HW110790   1.479  12.003   1.111  0.8691 -0.3786  1.0165
35411SOL    HW210791   1.495  12.066   0.974  0.3107 -2.2667  0.0430
35412SOL     OW10792  10.025   4.259   4.257  0.1123  0.0908 -0.6178
35412SOL    HW110793  10.057   4.207   4.331 -0.5209 -1.1731 -1.2003
35412SOL    HW210794   9.940   4.221   4.236 -0.0904  0.9730 -1.4761
35413SOL     OW10795   8.797   3.809   4.426  0.3520  0.1497 -0.2066
35413SOL    HW110796   8.806   3.810   4.330 -0.5787 -3.1573 -0.4317
35413SOL    HW210797   8.881   3.842   4.458  1.8423 -1.4101 -2.2059
35414SOL     OW10798   2.254   2.455   1.488 -0.1379 -0.4050 -1.1081
35414SOL    HW110799   2.205   2.459   1.406 -0.9168 -2.3748 -0.7902
35414SOL    HW210800   2.255   2.362   1.512  0.5132  0.0470  0.8563
35415SOL     OW10801   4.242   0.417  11.385  0.6161  0.5746  0.0605
35415SOL    HW110802   4.317   0.389  11.332  0.9050  1.1448  0.1580
35415SOL    HW210803   4.178   0.449  11.322  0.1089 -0.6794 -0.0832
35416SOL     OW10804   1.201  11.756   1.829 -0.1405  0.5078 -0.0983
35416SOL    HW110805   1.268  11.776   1.763 -0.9184 -0.1478 -1.1107
35416SOL    HW210806   1.124  11.805   1.800 -0.2369  0.9441  0.8475
35417SOL     OW10807  11.487   1.878   0.986  0.0549 -0.0954 -0.5963
35417SOL    HW110808  11.411   1.894   0.930  0.4550 -0.2338 -1.1832
35417SOL    HW210809  11.460   1.805   1.043 -0.8944  1.0298  0.4435
35418SOL     OW10810   2.514   7.554   8.304 -0.5899 -0.1504 -0.4850
35418SOL    HW110811   2.440   7.578   8.359 -0.3961 -1.0408  0.1909
35418SOL    HW210812   2.497   7.462   8.281  0.8947 -0.7508  0.6741
35419SOL     OW10813   4.803   8.308   4.377  0.2000  0.2325 -0.6864
35419SOL    HW110814   4.893   8.290   4.349  0.0445  1.5193 -2.1006
35419SOL    HW210815   4.756   8.227   4.360  0.2971  0.6814 -3.5245
35420SOL     OW10816   6.183   4.641   7.182  0.3431 -0.2074  0.1667
35420SOL    HW110817   6.182   4.554   7.222 -0.5241 -0.2473  0.0736
35420SOL    HW210818   6.207   4.700   7.254  0.6035 -0.4844  0.3078
35421SOL     OW10819   5.928  11.235   0.982  0.2678  0.3114  0.5738
35421SOL    HW110820   5.951  11.264   1.070  1.2054 -1.2734  0.8878
35421SOL    HW210821   6.009  11.242   0.931 -0.3420  1.5357 -0.2899
35422SOL     OW10822   5.123   8.165   2.152 -0.3418 -0.0326 -0.0804
35422SOL    HW110823   5.036   8.173   2.189 -0.0628 -0.5904  0.7245
35422SOL    HW210824   5.138   8.248   2.107 -0.8782  0.4808  0.6705
35423SOL     OW10825   7.013  11.906   9.770  0.0064  0.2270  0.1763
35423SOL    HW110826   6.951  11.943   9.707  0.5074  0.6376 -0.0907
35423SOL    HW210827   7.090  11.883   9.717  0.0031 -0.4756  0.4687
35424SOL     OW10828   7.128  10.135   0.620 -0.2670  0.3526  0.7234
35424SOL    HW110829   7.223  10.129   0.617 -0.3243 -1.2292  1.4025
35424SOL    HW210830   7.099  10.054   0.662 -2.0096 -0.0800 -1.1112
35425SOL     OW10831   3.128   1.575  10.630  0.4937  0.4060  0.1896
35425SOL    HW110832   3.163   1.618  10.708  0.0105 -0.5671  0.9719
35425SOL    HW210833   3.082   1.498  10.664 -0.8719  0.6762 -0.9532
35426SOL     OW10834   0.318   3.487   3.448  0.4825 -0.6449 -0.3256
35426SOL    HW110835   0.243   3.543   3.429  0.7748 -0.6792 -1.6556
35426SOL    HW210836   0.280   3.404   3.476  0.0423  0.0945  1.3729
35427SOL     OW10837   3.112   8.591  10.575 -0.4161 -0.4363 -0.2821
35427SOL    HW110838   3.169   8.526  10.616 -1.3402 -1.0065  0.1039
35427SOL    HW210839   3.140   8.592  10.483  0.7415 -0.1293  0.0455
35428SOL     OW10840   3.459   1.297   0.976 -0.3173 -0.0644 -0.4433
35428SOL    HW110841   3.548   1.263   0.965 -0.5314 -0.9720  0.4593
35428SOL    HW210842   3.458   1.332   1.065 -0.7882  0.1673 -0.5382
35429SOL     OW10843   7.560  10.734   0.206 -0.3105  0.4737 -0.4194
35429SOL    HW110844   7.607  10.662   0.249  0.4223  0.2625 -1.5355
35429SOL    HW210845   7.478  10.695   0.177  0.2459 -0.0477 -1.3658
35430SOL     OW10846   2.920   1.051   5.007 -0.2722 -0.6786 -0.4563
35430SOL    HW110847   2.861   1.122   5.033  0.3086 -0.1287 -0.6110
35430SOL    HW210848   2.946   1.010   5.089 -0.6975 -0.7851 -0.3731
35431SOL     OW10849  10.127   9.722   6.974  0.1549 -0.5067  0.4940
35431SOL    HW110850  10.068   9.751   6.904  1.0926 -0.3173 -0.2350
35431SOL    HW210851  10.182   9.656   6.932  0.7489 -0.3683  1.0489
35432SOL     OW10852   1.455   6.521   3.998  0.4009 -0.9228 -0.9361
35432SOL    HW110853   1.481   6.478   3.917 -0.6539 -0.4552 -1.5356
35432SOL    HW210854   1.369   6.483   4.019  1.2737 -2.1383  0.7794
35433SOL     OW10855   1.113   0.104   0.679  0.4986  0.2382  0.1304
35433SOL    HW110856   1.128   0.186   0.630 -0.2537 -0.3021 -1.0545
35433SOL    HW210857   1.060   0.130   0.754 -0.9750  0.6539 -1.0049
35434SOL     OW10858   6.816  12.102   6.531  0.5909  0.3125  0.4160
35434SOL    HW110859   6.835  12.078   6.622  0.9026  1.0688  0.5546
35434SOL    HW210860   6.812  12.018   6.485 -0.1799 -0.1220  1.2356
35435SOL     OW10861   6.818   9.603   9.155 -0.1496  0.0535  0.0164
35435SOL    HW110862   6.830   9.544   9.229 -1.7249 -0.0888  0.1756
35435SOL    HW210863   6.798   9.545   9.081 -0.0408  0.2864 -0.1982
35436SOL     OW10864   2.485   1.340   2.219 -0.3661  0.1020 -0.0374
35436SOL    HW110865   2.558   1.300   2.173 -0.9792  0.9181 -1.8092
35436SOL    HW210866   2.519   1.360   2.307  0.7912 -1.6355 -0.0478
35437SOL     OW10867   3.696   9.283   5.928  0.2395 -0.0834  0.1450
35437SOL    HW110868   3.707   9.267   5.835  2.0384 -2.1548  0.6116
35437SOL    HW210869   3.703   9.196   5.968 -0.5268  0.7430  2.2063
35438SOL     OW10870   0.297  10.546   7.233 -0.4064 -0.7481 -0.0064
35438SOL    HW110871   0.300  10.635   7.196 -1.4237 -0.8252 -0.2863
35438SOL    HW210872   0.205  10.523   7.235 -0.3181 -1.0972  1.8044
35439SOL     OW10873   7.025  11.428   0.321 -0.0662 -0.4357 -0.0429
35439SOL    HW110874   7.012  11.338   0.351 -1.7855  0.2711  1.5196
35439SOL    HW210875   7.093  11.463   0.379  0.0326 -0.4929 -0.1241
35440SOL     OW10876   1.895   4.404   3.263  0.0742  0.0793  0.2133
35440SOL    HW110877   1.948   4.396   3.343  2.4482 -1.3475 -1.3751
35440SOL    HW210878   1.864   4.495   3.264 -0.5715 -0.0623  3.0292
35441SOL     OW10879   6.460   6.713   7.797 -0.0573 -0.7932 -0.6238
35441SOL    HW110880   6.486   6.804   7.790 -1.6157 -0.1112  1.3759
35441SOL    HW210881   6.526   6.672   7.852  0.4822 -0.8217 -1.2805
35442SOL     OW10882   6.984   2.472   6.156  0.6467 -0.1996 -0.0162
35442SOL    HW110883   6.962   2.564   6.172  0.1538 -0.1454 -0.9724
35442SOL    HW210884   6.942   2.451   6.073  1.2615 -1.1221 -0.1071
35443SOL     OW10885   5.320   6.745   6.618  0.3729  0.5758  0.2127
35443SOL    HW110886   5.412   6.723   6.602  0.5854 -0.9871  2.9565
35443SOL    HW210887   5.277   6.730   6.534  2.1010 -1.9728 -0.3551
35444SOL     OW10888   6.091  11.103  10.768  0.2284  1.0429 -0.4885
35444SOL    HW110889   6.076  11.170  10.835 -1.2508  0.3467 -0.0755
35444SOL    HW210890   6.154  11.043  10.808 -2.2499 -0.5928  1.2977
35445SOL     OW10891   9.259   9.842   8.055 -0.0524 -0.0508 -0.6686
35445SOL    HW110892   9.339   9.808   8.014 -0.7468 -0.5626 -1.6262
35445SOL    HW210893   9.193   9.840   7.986 -0.6971  1.1554 -0.1265
35446SOL     OW10894   0.117   7.544   4.780  0.6637 -0.7418 -0.2011
35446SOL    HW110895   0.089   7.502   4.861 -0.1291 -0.9058 -0.5492
35446SOL    HW210896   0.212   7.551   4.788  0.7206 -1.8632  0.2181
35447SOL     OW10897  10.381   3.994   1.477 -0.3937  0.2384  0.6700
35447SOL    HW110898  10.441   4.041   1.534 -0.6969  0.7928  0.5453
35447SOL    HW210899  10.364   4.055   1.405 -0.5648 -0.1776  0.3533
35448SOL     OW10900   1.507   2.780   8.731  0.0197 -0.1717 -0.1612
35448SOL    HW110901   1.523   2.870   8.760 -1.6750 -0.0919  0.6565
35448SOL    HW210902   1.472   2.789   8.643 -0.3657 -0.0027  0.0067
35449SOL     OW10903  11.931  10.830   7.154 -0.0851 -0.6656 -0.5421
35449SOL    HW110904  11.942  10.790   7.068 -2.5519  0.6782 -1.5583
35449SOL    HW210905  11.873  10.770   7.201 -1.3825  0.1601 -1.0256
35450SOL     OW10906   7.775  11.260   4.617 -0.2571 -0.1482  0.3777
35450SOL    HW110907   7.822  11.325   4.671  0.2113 -0.9865  1.0038
35450SOL    HW210908   7.690  11.300   4.601  0.6323  1.4156 -0.7741
35451SOL     OW10909   2.342  10.254   0.485  0.0486 -0.0677  0.1633
35451SOL    HW110910   2.330  10.224   0.575  1.0784 -1.5445 -0.1607
35451SOL    HW210911   2.327  10.177   0.431  2.1012  0.0830 -0.7463
35452SOL     OW10912  11.136   2.405   0.359  0.3024  1.0502 -0.1879
35452SOL    HW110913  11.174   2.493   0.365  1.5617  0.8198 -3.0723
35452SOL    HW210914  11.063   2.415   0.298  0.2046  0.1836 -0.2148
35453SOL     OW10915   5.547   8.085   3.583  0.3074  0.4977  0.0721
35453SOL    HW110916   5.472   8.082   3.642  0.7955  1.7185  0.7739
35453SOL    HW210917   5.620   8.051   3.634  0.7108  1.4652  0.1602
35454SOL     OW10918   2.808   1.071   3.317  0.2159  0.3448 -0.1347
35454SOL    HW110919   2.754   1.086   3.239  0.2060 -1.0310 -0.4119
35454SOL    HW210920   2.814   0.976   3.324  0.6735  0.4573  1.2407
35455SOL     OW10921   1.714   6.976   3.545  0.5296 -0.3915  0.1521
35455SOL    HW110922   1.750   7.065   3.549  0.7986 -0.5059  0.2293
35455SOL    HW210923   1.703   6.950   3.636 -1.8665  0.5039  0.1795
35456SOL     OW10924  12.058   9.724  11.153 -0.0741  0.2218 -0.2288
35456SOL    HW110925  11.964   9.735  11.170 -0.0861 -2.2836  1.9344
35456SOL    HW210926  12.099   9.800  11.195 -0.9884 -0.0094  1.1472
35457SOL     OW10927   9.338   1.710  10.119 -0.3017  0.2117  0.4688
35457SOL    HW110928   9.338   1.617  10.095 -0.2834  0.3177  0.0514
35457SOL    HW210929   9.251   1.725  10.155 -0.9188  0.4289 -1.0485
35458SOL     OW10930   2.306   8.145   3.293 -0.0117  0.3759  0.1223
35458SOL    HW110931   2.227   8.129   3.241 -0.2566  1.6664  0.0753
35458SOL    HW210932   2.363   8.071   3.273 -1.6877 -1.2909  1.1321
35459SOL     OW10933   3.457  10.154   9.872  0.0679 -0.4161 -0.0013
35459SOL    HW110934   3.448  10.161   9.967  0.4885 -0.2811  0.0346
35459SOL    HW210935   3.552  10.146   9.859  0.3623  2.7319 -0.6096
35460SOL     OW10936   5.318   2.371  11.634  0.0872  0.2930 -0.5340
35460SOL    HW110937   5.273   2.454  11.619 -0.5865  0.5836  2.4588
35460SOL    HW210938   5.398   2.395  11.681 -0.6180 -0.7431  1.2947
35461SOL     OW10939   7.090   9.790   9.618 -0.3803 -0.5577 -0.0769
35461SOL    HW110940   7.094   9.874   9.665  0.9287 -0.6084 -0.0560
35461SOL    HW210941   7.105   9.813   9.527  1.7368 -0.8829  0.1194
35462SOL     OW10942   4.963   8.782   8.089 -0.0615 -0.0408 -0.3072
35462SOL    HW110943   5.024   8.855   8.087 -1.0324  0.9282  1.9818
35462SOL    HW210944   4.879   8.822   8.113 -0.2691 -2.0575  2.8170
35463SOL     OW10945   9.569   6.287   0.935 -0.2495  0.6807 -0.5558
35463SOL    HW110946   9.500   6.278   1.001  1.6898  0.2491  1.5356
35463SOL    HW210947   9.603   6.198   0.924  0.3495  0.9724 -1.1377
35464SOL     OW10948   5.338  10.076   7.592  0.0711 -0.2020 -0.2962
35464SOL    HW110949   5.257  10.118   7.620  0.9140  0.9412  0.4961
35464SOL    HW210950   5.372  10.033   7.671 -0.1518 -1.3795 -0.8104
35465SOL     OW10951  11.131   3.250   2.534  0.0997 -0.0959  0.2159
35465SOL    HW110952  11.174   3.328   2.568 -1.0866 -0.2970  2.3935
35465SOL    HW210953  11.059   3.283   2.481 -0.2315  0.2983  0.9064
35466SOL     OW10954   5.505   2.456   3.332 -0.2845 -0.0628  0.5768
35466SOL    HW110955   5.547   2.448   3.247  0.5060 -0.6163  1.0052
35466SOL    HW210956   5.556   2.523   3.377 -1.2788  0.9195  0.2932
35467SOL     OW10957   4.579  11.484   4.697 -0.2758  0.2568 -0.0844
35467SOL    HW110958   4.652  11.527   4.741  0.6289 -1.1598 -0.1275
35467SOL    HW210959   4.505  11.495   4.757  0.3912  0.2653  0.7564
35468SOL     OW10960   5.807  11.131   1.649  0.7112  0.0581  0.1808
35468SOL    HW110961   5.872  11.101   1.713 -0.4974  0.9214  1.9008
35468SOL    HW210962   5.757  11.053   1.626  1.9505 -0.5001 -0.7185
35469SOL     OW10963   2.025   5.226   3.488  0.4292 -0.1617  0.4809
35469SOL    HW110964   2.074   5.195   3.412  1.5440 -0.1280  1.1629
35469SOL    HW210965   1.933   5.221   3.461  0.7428 -1.1936 -0.4674
35470SOL     OW10966   2.194   2.321   0.708  1.3226 -0.2490 -0.1346
35470SOL    HW110967   2.250   2.398   0.706  1.0649 -0.0760 -0.8334
35470SOL    HW210968   2.111   2.350   0.669  0.8215 -0.5617  0.6616
35471SOL     OW10969   8.830   1.732   3.744  0.5755  0.2470  0.4260
35471SOL    HW110970   8.912   1.781   3.744  2.1632 -2.2187  1.3078
35471SOL    HW210971   8.793   1.747   3.657  2.6299  0.3843 -0.4797
35472SOL     OW10972   0.990  10.394   8.564  0.3949  0.6582 -0.4105
35472SOL    HW110973   0.897  10.383   8.549  0.6371 -0.4310 -1.2916
35472SOL    HW210974   1.019  10.454   8.496  0.3694  0.8628 -0.2418
35473SOL     OW10975   4.751   3.861   7.171 -0.0306 -0.3702  0.1485
35473SOL    HW110976   4.679   3.847   7.109 -2.0420  1.6947  1.8552
35473SOL    HW210977   4.708   3.886   7.252  2.6196  2.9704  0.7202
35474SOL     OW10978   6.797   0.149   4.036 -0.1475 -0.1441  0.1156
35474SOL    HW110979   6.789   0.239   4.003 -0.7703 -0.8137 -1.7170
35474SOL    HW210980   6.717   0.136   4.087 -0.6834 -0.0331 -0.6615
35475SOL     OW10981   6.364  12.099   3.175 -0.2438  0.2106  0.3691
35475SOL    HW110982   6.426  12.119   3.105 -0.9386  0.2813 -0.2358
35475SOL    HW210983   6.291  12.055   3.131 -1.3324  1.5035  0.8165
35476SOL     OW10984   3.927   3.569   1.832 -0.1847  0.0190 -0.4977
35476SOL    HW110985   3.930   3.478   1.862  2.3976  0.3743  0.6241
35476SOL    HW210986   4.017   3.588   1.806 -0.4009  2.5626  0.3337
35477SOL     OW10987   0.330   7.444   5.232 -0.3081  0.1045 -0.6298
35477SOL    HW110988   0.390   7.397   5.175  1.8722  1.5940  0.2994
35477SOL    HW210989   0.303   7.521   5.181 -2.2062 -0.9770 -1.3636
35478SOL     OW10990   7.530  11.729   9.932 -0.2105  0.5306 -0.1605
35478SOL    HW110991   7.439  11.756   9.948 -0.2258  1.3799 -1.5303
35478SOL    HW210992   7.543  11.655   9.991 -0.0185  3.7204  4.2779
35479SOL     OW10993   3.761   2.628  10.469  0.2825 -0.3597 -0.2683
35479SOL    HW110994   3.764   2.577  10.388  4.6563 -0.8521 -0.0030
35479SOL    HW210995   3.754   2.719  10.441 -1.8419 -0.6909 -0.9644
35480SOL     OW10996   5.280   8.072  12.086  0.0104 -0.2007 -0.2476
35480SOL    HW110997   5.320   8.143  12.135 -0.0827  1.1100 -1.9848
35480SOL    HW210998   5.198   8.109  12.053 -0.5925 -1.4887 -0.2542
35481SOL     OW10999   9.828   9.702   6.003  0.6145 -0.1621 -0.2544
35481SOL    HW111000   9.892   9.773   5.995  0.6202  0.0499  1.3593
35481SOL    HW211001   9.858   9.651   6.078 -0.6462 -0.5543  0.0046
35482SOL     OW11002   8.154   1.745   8.739 -0.1347  0.5756 -0.3871
35482SOL    HW111003   8.058   1.741   8.734 -0.2395  0.7548  1.1368
35482SOL    HW211004   8.173   1.758   8.832  1.3483  1.2940 -0.7603
35483SOL     OW11005   5.973   9.432   4.811 -0.9070 -0.5722  0.7196
35483SOL    HW111006   5.885   9.412   4.781 -0.1895  2.1107 -4.1708
35483SOL    HW211007   5.973   9.527   4.826  1.1094 -0.4929  0.5474
35484SOL     OW11008   8.569   3.579   2.774 -0.0889 -0.2563 -0.0924
35484SOL    HW111009   8.547   3.610   2.862  0.5582  1.0582 -0.3616
35484SOL    HW211010   8.502   3.617   2.718 -0.8250 -1.5522 -0.1090
35485SOL     OW11011   5.398   1.068   9.537  0.4809 -0.2082  0.3032
35485SOL    HW111012   5.333   1.137   9.552 -1.0259 -0.7561 -2.9003
35485SOL    HW211013   5.372   0.997   9.595 -0.9421  0.1227  0.0967
35486SOL     OW11014   2.816   7.547   7.314  0.1146  0.0430 -0.1009
35486SOL    HW111015   2.768   7.623   7.282  0.3584  1.2256  2.1798
35486SOL    HW211016   2.851   7.574   7.399  0.0804 -2.6780  0.8682
35487SOL     OW11017   2.510   9.660   9.136  0.1647  0.1118  0.1281
35487SOL    HW111018   2.517   9.721   9.062  2.4912  0.4397  0.5512
35487SOL    HW211019   2.600   9.633   9.154 -0.6957 -3.1583  0.2437
35488SOL     OW11020   2.122   3.875   4.290 -0.1281  0.0219 -0.4237
35488SOL    HW111021   2.099   3.809   4.225  0.5293  0.7803 -1.4467
35488SOL    HW211022   2.143   3.825   4.369  1.6531 -1.0881 -1.5493
35489SOL     OW11023   9.876   0.186   2.834 -0.3449  0.1045 -0.0345
35489SOL    HW111024   9.803   0.200   2.895 -1.8316 -0.4851 -1.5836
35489SOL    HW211025   9.893   0.273   2.797  0.8857  0.5554  1.5087
35490SOL     OW11026   7.909   6.183  11.050  0.3302 -0.0138  0.4254
35490SOL    HW111027   7.834   6.125  11.057  1.7526 -1.8844  0.8686
35490SOL    HW211028   7.960   6.169  11.130  0.1927  2.7203  1.1144
35491SOL     OW11029   7.536   6.564   5.592  0.1775 -0.4679  0.5128
35491SOL    HW111030   7.460   6.614   5.564 -0.1347 -1.6944 -0.9663
35491SOL    HW211031   7.512   6.530   5.678 -0.4459  0.1612  0.5907
35492SOL     OW11032   9.526   2.035  10.300  0.2760  0.3246 -0.3697
35492SOL    HW111033   9.614   2.015  10.332  0.5276  0.4935 -0.9462
35492SOL    HW211034   9.540   2.091  10.223 -0.3403  0.5152 -0.3502
35493SOL     OW11035   1.585   9.946   4.114  0.0622 -0.0738 -0.2836
35493SOL    HW111036   1.537   9.977   4.190  0.3648 -0.0942 -0.0830
35493SOL    HW211037   1.517   9.925   4.049 -0.3186 -1.8978  0.6454
35494SOL     OW11038   6.293   2.032   5.002  0.3638 -0.0133  0.0048
35494SOL    HW111039   6.198   2.017   5.000  0.4249 -0.4394 -1.9863
35494SOL    HW211040   6.302   2.126   5.017 -0.3383 -0.0887  1.0100
35495SOL     OW11041   7.700   2.762   5.665 -1.1181  0.3996 -0.0674
35495SOL    HW111042   7.763   2.695   5.637 -0.4598  1.4154 -1.1003
35495SOL    HW211043   7.662   2.795   5.584 -2.0748  0.7010  0.4772
35496SOL     OW11044   6.238   6.248   6.934 -0.1273  0.1682 -0.1528
35496SOL    HW111045   6.181   6.173   6.915  1.6658 -1.2444 -0.1848
35496SOL    HW211046   6.324   6.222   6.900  0.8149  1.7743  0.8920
35497SOL     OW11047   1.219   8.905  12.036  1.2180 -0.3781 -0.0168
35497SOL    HW111048   1.222   8.999  12.055  2.5197 -0.3455 -0.2822
35497SOL    HW211049   1.144   8.895  11.977  0.8658  0.4437  0.2816
35498SOL     OW11050   5.160   3.462   6.458 -0.3420  0.4424  0.2283
35498SOL    HW111051   5.167   3.522   6.533  0.2439  1.0869 -0.3298
35498SOL    HW211052   5.066   3.458   6.440 -0.6502 -0.8757  1.8994
35499SOL     OW11053   9.592   4.793   0.272  0.2667 -0.0809 -0.5434
35499SOL    HW111054   9.509   4.820   0.310  0.7672 -0.2557  0.7260
35499SOL    HW211055   9.638   4.747   0.343  0.5242 -1.9923 -1.8672
35500SOL     OW11056   7.462   9.058   0.147 -0.2943 -0.1631  0.9129
35500SOL    HW111057   7.542   9.109   0.158 -1.0558  1.4044 -0.3091
35500SOL    HW211058   7.481   9.001   0.072 -0.5973  0.9342 -0.0470
35501SOL     OW11059   3.517   2.388   7.284  0.2564  0.7597  0.1191
35501SOL    HW111060   3.592   2.443   7.260  0.2403  0.0305 -1.7143
35501SOL    HW211061   3.554   2.317   7.336  0.6251  1.1772  0.4293
35502SOL     OW11062   7.300   1.916  11.788  0.0779  0.5054 -0.0517
35502SOL    HW111063   7.262   1.988  11.838  0.9388 -0.8503  2.7818
35502SOL    HW211064   7.251   1.839  11.817  2.3467 -0.7204  0.7598
35503SOL     OW11065   6.906   9.694   2.883  0.3983  0.2615 -0.9733
35503SOL    HW111066   6.954   9.656   2.810 -0.6805  0.1307 -1.6344
35503SOL    HW211067   6.941   9.783   2.891  1.2333 -0.0607 -0.9844
35504SOL     OW11068   5.914   3.869   9.769  0.7605 -0.4891 -0.3287
35504SOL    HW111069   5.899   3.774   9.770  0.3209 -0.4269 -0.6893
35504SOL    HW211070   5.827   3.907   9.775  0.8503 -0.1124 -1.2560
35505SOL     OW11071  10.275  11.356   6.864 -0.1660  0.5499 -0.3060
35505SOL    HW111072  10.276  11.277   6.918 -2.0519 -1.3813 -2.7929
35505SOL    HW211073  10.195  11.402   6.890 -0.8897 -0.2011 -1.1245
35506SOL     OW11074   1.146   3.338  10.225 -0.0246  0.2222 -0.2768
35506SOL    HW111075   1.113   3.386  10.301  2.3844 -0.1553  1.0810
35506SOL    HW211076   1.230   3.379  10.205 -0.2778 -0.1593 -2.3279
35507SOL     OW11077   3.324   2.797   2.029 -0.2326 -0.5121 -0.2274
35507SOL    HW111078   3.370   2.873   2.065 -1.0466 -0.8106  1.5751
35507SOL    HW211079   3.357   2.789   1.940 -1.3017  2.9752 -1.1211
35508SOL     OW11080   8.965   3.429   9.519  0.4705  0.0643  0.0763
35508SOL    HW111081   8.982   3.523   9.514 -1.2072  0.4006  0.1873
35508SOL    HW211082   8.900   3.420   9.589 -1.0572 -0.9242 -1.4056
35509SOL     OW11083  10.817   7.049   5.283  0.1157 -0.0174  0.7935
35509SOL    HW111084  10.894   7.043   5.340 -0.6758 -1.1990  1.7674
35509SOL    HW211085  10.845   7.107   5.212  2.0528 -0.7526  0.8887
35510SOL     OW11086  11.879   6.763   7.837 -0.3820 -0.1542 -0.3933
35510SOL    HW111087  11.808   6.815   7.874 -0.3716 -0.3478 -0.0951
35510SOL    HW211088  11.950   6.825   7.821  0.2821 -0.3295  1.6010
35511SOL     OW11089   3.312   1.984   5.631 -0.1366  0.5368  0.1067
35511SOL    HW111090   3.366   1.968   5.554  0.4610 -0.2596  0.6764
35511SOL    HW211091   3.260   1.905   5.642 -2.8878  1.9493 -1.5191
35512SOL     OW11092   2.227   8.636   0.140  0.1873 -0.1706 -0.2820
35512SOL    HW111093   2.301   8.696   0.138  0.0767 -0.0069 -2.6941
35512SOL    HW211094   2.266   8.549   0.128  0.1525 -0.3451  0.7934
35513SOL     OW11095  10.990   7.402   4.688 -0.6094 -0.2552  0.1154
35513SOL    HW111096  10.996   7.461   4.612  0.3866  0.0454  0.4031
35513SOL    HW211097  10.937   7.329   4.658 -1.3178  0.4819 -0.4643
35514SOL     OW11098  11.301   6.189   3.603 -0.2491 -0.1859 -0.2700
35514SOL    HW111099  11.254   6.171   3.684 -0.4616  1.0449 -0.0875
35514SOL    HW211100  11.383   6.230   3.632 -0.2573  0.1129 -0.6617
35515SOL     OW11101   3.255   9.751   1.185 -0.3351 -0.2165 -0.0614
35515SOL    HW111102   3.232   9.793   1.268 -0.2023  0.7082 -0.4821
35515SOL    HW211103   3.347   9.772   1.173 -0.1151 -1.1032 -0.0192
35516SOL     OW11104  11.180   5.429   9.531  0.0379 -0.3116  0.2373
35516SOL    HW111105  11.110   5.389   9.479  0.1560 -0.0091 -0.1582
35516SOL    HW211106  11.260   5.388   9.497 -0.0004 -1.3400  1.3078
35517SOL     OW11107   5.611   5.413   4.379 -0.0192  0.1080 -0.5076
35517SOL    HW111108   5.691   5.465   4.367  0.8315 -0.2835  2.5105
35517SOL    HW211109   5.547   5.476   4.412 -0.1371 -0.0689 -0.4012
35518SOL     OW11110   3.062  10.090   4.323 -0.2020 -0.2028  1.0834
35518SOL    HW111111   2.989  10.152   4.320 -2.7186 -2.9811  0.0963
35518SOL    HW211112   3.065  10.061   4.414  1.8320  2.1062  1.8669
35519SOL     OW11113   9.249   4.783   9.787  0.4519 -0.1294 -0.1495
35519SOL    HW111114   9.314   4.773   9.717  0.2077  1.1639 -0.5980
35519SOL    HW211115   9.222   4.694   9.809  0.7028 -0.5668 -1.5506
35520SOL     OW11116   1.170   4.947   3.586  0.2991  0.5744  0.0058
35520SOL    HW111117   1.117   4.924   3.663 -0.9277  1.0880 -0.6735
35520SOL    HW211118   1.184   4.863   3.541 -1.6387  0.6702 -0.8621
35521SOL     OW11119   7.284   4.596   1.510 -0.0463 -0.2582  0.1189
35521SOL    HW111120   7.227   4.549   1.450  0.2038  0.3601 -0.6322
35521SOL    HW211121   7.232   4.607   1.590  0.1441 -2.4007  0.5915
35522SOL     OW11122  11.381   6.361   4.035 -0.4895 -0.1043  0.0078
35522SOL    HW111123  11.420   6.425   3.976 -0.2704 -0.9949 -0.8435
35522SOL    HW211124  11.301   6.334   3.991 -1.1409  0.3627  0.8755
35523SOL     OW11125   8.855   6.164   6.209  0.2798  0.0998  0.0074
35523SOL    HW111126   8.773   6.128   6.177  1.2699 -3.1373  0.7405
35523SOL    HW211127   8.829   6.227   6.276 -1.6015  1.4399 -1.8799
35524SOL     OW11128  11.920  11.738  11.011 -0.5514 -0.3970  0.1470
35524SOL    HW111129  11.826  11.754  11.010 -0.3816  0.6856 -0.0240
35524SOL    HW211130  11.959  11.826  11.011  0.4612 -0.8055 -1.2031
35525SOL     OW11131   6.532   9.966  12.023  0.0720  1.0462  0.1372
35525SOL    HW111132   6.489   9.949  12.107 -0.8246  2.1406 -0.0745
35525SOL    HW211133   6.576  10.051  12.035  0.4581  0.9153 -0.3088
35526SOL     OW11134   4.541   8.577   9.864  0.5444  0.2605  0.1839
35526SOL    HW111135   4.633   8.593   9.842  0.7936 -0.3877  0.7354
35526SOL    HW211136   4.544   8.515   9.936 -0.3393  0.0990  0.0901
35527SOL     OW11137   9.033  10.419   2.650  0.1035 -0.0832  0.1533
35527SOL    HW111138   9.044  10.410   2.745 -0.9386  1.8333  0.5137
35527SOL    HW211139   8.983  10.500   2.639  1.8279  0.7913 -2.1387
35528SOL     OW11140   6.707  10.835   3.802 -0.0847 -0.1082  0.5013
35528SOL    HW111141   6.663  10.770   3.857  0.3140 -0.5043  0.3605
35528SOL    HW211142   6.638  10.894   3.774 -0.4211 -0.3633  0.7933
35529SOL     OW11143   6.184   5.779  10.701  0.3249 -0.2457  0.1632
35529SOL    HW111144   6.106   5.797  10.753  1.2456 -0.3951  1.6479
35529SOL    HW211145   6.230   5.864  10.696  1.5024 -0.7305  1.8112
35530SOL     OW11146   2.536   4.473   6.599  0.4579 -0.2360 -0.6645
35530SOL    HW111147   2.615   4.506   6.556  0.5942 -0.9667 -1.0041
35530SOL    HW211148   2.567   4.404   6.657  0.5509  2.1142  2.3050
35531SOL     OW11149   9.785   4.836   2.882 -0.1220 -0.2424 -0.0023
35531SOL    HW111150   9.826   4.862   2.965  0.4959  3.7267 -1.3701
35531SOL    HW211151   9.858   4.806   2.828  0.4548  2.4705 -0.8752
35532SOL     OW11152   3.792   3.945   5.320  0.2557  0.1411 -0.3245
35532SOL    HW111153   3.770   3.870   5.375  0.7001  0.6510  0.5703
35532SOL    HW211154   3.746   4.019   5.360 -0.2526  0.3421 -1.2529
35533SOL     OW11155   6.220   0.555   2.139 -0.0736  0.8570  0.0758
35533SOL    HW111156   6.248   0.472   2.177 -0.3534  0.0776 -1.3580
35533SOL    HW211157   6.291   0.616   2.159 -0.1854  0.4766  1.7520
35534SOL     OW11158   1.169   9.878   1.661  0.5562  0.1826 -0.0061
35534SOL    HW111159   1.106   9.919   1.720 -0.0084  0.2313 -0.6316
35534SOL    HW211160   1.138   9.900   1.573  1.5493  0.3564 -0.3246
35535SOL     OW11161   8.846   2.441   2.795 -0.1561 -0.0667  0.8442
35535SOL    HW111162   8.927   2.423   2.748  0.5808  0.6855  1.7653
35535SOL    HW211163   8.789   2.367   2.775 -0.0870  0.4465 -1.5942
35536SOL     OW11164   1.313   9.835  11.925 -0.0129  0.3817 -0.5712
35536SOL    HW111165   1.397   9.800  11.956 -1.0569 -1.0601  0.7965
35536SOL    HW211166   1.260   9.757  11.906 -1.6401  1.2220  0.3234
35537SOL     OW11167   5.604  11.044   0.609 -0.1626  0.2058  0.0070
35537SOL    HW111168   5.672  11.065   0.673 -0.4458  1.3955 -0.0608
35537SOL    HW211169   5.646  11.055   0.524  0.2005 -1.3302 -0.0428
35538SOL     OW11170  10.538  11.672   3.219 -0.1221  0.0636 -0.0025
35538SOL    HW111171  10.527  11.593   3.273  1.6483  0.4580  0.9999
35538SOL    HW211172  10.571  11.640   3.135 -0.3128 -0.3274  0.0703
35539SOL     OW11173   1.274   6.167  10.503  0.2859  0.5193 -0.1143
35539SOL    HW111174   1.355   6.216  10.514  0.1678  0.5289  0.7207
35539SOL    HW211175   1.208   6.217  10.551  0.1446 -0.3929  0.6843
35540SOL     OW11176  12.042   0.006   4.147  0.0348 -0.0139 -0.3424
35540SOL    HW111177  12.017   0.094   4.174 -1.4045  0.0197 -1.6779
35540SOL    HW211178  12.048  -0.044   4.229  0.9320  1.2965  0.4352
35541SOL     OW11179   6.265   1.649   1.910 -0.5774 -0.0641  0.2784
35541SOL    HW111180   6.244   1.703   1.986 -0.4544 -1.8006  1.5942
35541SOL    HW211181   6.180   1.634   1.867 -1.0905 -1.3392  1.6660
35542SOL     OW11182   8.940  11.691   8.116 -0.8655  0.2714 -0.3423
35542SOL    HW111183   8.920  11.701   8.209 -0.7207  0.8831 -0.3746
35542SOL    HW211184   8.855  11.670   8.076 -0.7469 -1.1139  0.0700
35543SOL     OW11185   2.034  10.867   5.218 -0.0549  0.1347  0.2731
35543SOL    HW111186   2.102  10.879   5.283 -0.6595  0.6035  0.8365
35543SOL    HW211187   1.992  10.953   5.211  0.9599  0.5185 -1.8461
35544SOL     OW11188   6.726   2.939   0.776  0.1852  0.0781  0.5189
35544SOL    HW111189   6.678   2.856   0.777 -1.9932  1.2619  1.7244
35544SOL    HW211190   6.813   2.916   0.810  1.2775 -2.4435 -3.2820
35545SOL     OW11191   7.700   8.903   2.176  0.2721  0.5459  0.2728
35545SOL    HW111192   7.715   8.891   2.082  0.7919 -0.8757  0.5092
35545SOL    HW211193   7.731   8.991   2.194 -1.0430  1.3519 -1.1192
35546SOL     OW11194   8.320   9.690   6.028  0.3655  0.1981 -0.5183
35546SOL    HW111195   8.399   9.742   6.041  0.0851  0.5951 -0.3959
35546SOL    HW211196   8.345   9.623   5.964  0.9444 -0.0008 -0.0967
35547SOL     OW11197  10.994   4.115  10.716  0.0232 -0.3336  0.6804
35547SOL    HW111198  10.993   4.180  10.786 -1.3526 -0.0431  0.4141
35547SOL    HW211199  10.902   4.104  10.691  0.4218 -0.8821 -0.6592
35548SOL     OW11200   2.439   0.087  11.685 -0.0173  0.0261 -0.1843
35548SOL    HW111201   2.394   0.171  11.674 -0.3291 -0.0604  0.3994
35548SOL    HW211202   2.468   0.087  11.776 -1.1372 -1.0412  0.2002
35549SOL     OW11203   9.967   4.160   3.933  0.2517 -0.0879  0.3771
35549SOL    HW111204   9.937   4.070   3.928 -0.3234  0.1078  0.1881
35549SOL    HW211205  10.026   4.171   3.858  0.8934 -0.5017  0.8069
35550SOL     OW11206   0.041   9.998   1.413  0.1151  0.2151  0.1959
35550SOL    HW111207  -0.009   9.919   1.434 -1.2155  0.1450 -2.8268
35550SOL    HW211208  -0.015  10.070   1.442  1.3839  0.1914  3.0732
35551SOL     OW11209   3.907   7.597  11.688  0.5059 -0.8165  0.2487
35551SOL    HW111210   3.903   7.655  11.764  0.3886 -0.2545 -0.1864
35551SOL    HW211211   3.816   7.591  11.658  0.6967 -0.2520 -0.4423
35552SOL     OW11212   1.795   4.112   6.496 -0.3379  0.2069 -0.0405
35552SOL    HW111213   1.875   4.081   6.455  1.7242  2.3617  2.0843
35552SOL    HW211214   1.755   4.033   6.533  1.1862 -0.8265 -0.5235
35553SOL     OW11215  10.569   0.745   3.306 -0.4544 -0.3393 -0.1094
35553SOL    HW111216  10.503   0.733   3.374  0.1856 -0.9533  0.4276
35553SOL    HW211217  10.601   0.834   3.320 -0.6039 -0.3232  0.1425
35554SOL     OW11218   3.608   9.656   2.602  0.4509 -0.0138  0.4355
35554SOL    HW111219   3.651   9.582   2.644  2.5985  2.4160  2.8747
35554SOL    HW211220   3.671   9.686   2.536 -1.1895 -1.3244 -1.8908
35555SOL     OW11221   3.080   9.549   5.674  0.3387 -0.0990  0.0238
35555SOL    HW111222   2.988   9.544   5.700  0.3903  0.5011  0.3203
35555SOL    HW211223   3.081   9.510   5.586 -0.0366 -0.9711  0.3974
35556SOL     OW11224   8.478   6.757   7.886  0.2853 -0.0122 -0.2399
35556SOL    HW111225   8.407   6.810   7.921 -1.2791 -0.8537 -1.9515
35556SOL    HW211226   8.504   6.801   7.805  0.0645 -0.9657 -0.8450
35557SOL     OW11227   2.780   7.593   8.371 -0.5367  0.0976  0.2563
35557SOL    HW111228   2.685   7.603   8.364 -0.6124  0.6019  1.7692
35557SOL    HW211229   2.793   7.501   8.393 -0.8752  0.5314  2.5587
35558SOL     OW11230   5.682   3.866   8.430  0.2200 -0.4525  0.5156
35558SOL    HW111231   5.650   3.873   8.341  0.6652 -2.6754  0.1069
35558SOL    HW211232   5.633   3.931   8.479 -0.8861 -0.0048 -1.1176
35559SOL     OW11233  11.161   7.712   2.454 -0.1676 -0.0643 -0.4848
35559SOL    HW111234  11.254   7.710   2.432  0.1727  1.6310  0.6499
35559SOL    HW211235  11.117   7.740   2.374  0.1568 -1.8216 -1.3185
35560SOL     OW11236   4.853   0.716   6.618 -0.6809  0.2237  0.2488
35560SOL    HW111237   4.820   0.716   6.528 -0.7534 -1.0256  0.2679
35560SOL    HW211238   4.774   0.713   6.672 -0.6440  1.1358  0.3801
35561SOL     OW11239   3.877   0.101   5.482 -0.1271 -0.1068  0.2817
35561SOL    HW111240   3.963   0.086   5.444 -0.6809  1.2008 -1.6217
35561SOL    HW211241   3.886   0.184   5.530 -0.2770 -0.0689  0.2447
35562SOL     OW11242   5.031   3.437   9.007 -0.4314 -0.0520  0.0425
35562SOL    HW111243   5.035   3.392   9.091  0.7332 -2.1890 -1.0634
35562SOL    HW211244   5.122   3.460   8.987 -0.7582  0.9090 -0.3950
35563SOL     OW11245   8.256   0.331   8.900 -0.4974  0.2681 -0.0962
35563SOL    HW111246   8.174   0.378   8.912 -0.7492  0.1267 -1.1812
35563SOL    HW211247   8.250   0.293   8.813 -0.1294 -1.4647  0.5982
35564SOL     OW11248   3.013  11.865   1.042  0.7075 -0.1528 -0.1685
35564SOL    HW111249   3.045  11.865   0.951  1.9903 -0.4814  0.2565
35564SOL    HW211250   2.947  11.796   1.043 -1.0313  1.4126 -1.3857
35565SOL     OW11251   1.459   8.302   4.827 -0.7673 -0.1225  0.2301
35565SOL    HW111252   1.445   8.223   4.879 -2.2559 -0.8199 -1.1364
35565SOL    HW211253   1.378   8.352   4.838 -1.2040 -0.3845 -1.5091
35566SOL     OW11254   6.915   1.028   7.267  0.3199  0.5352 -0.0923
35566SOL    HW111255   6.989   1.064   7.218 -0.1209  0.8366 -0.5416
35566SOL    HW211256   6.867   1.105   7.299  0.4553  0.3436  0.6052
35567SOL     OW11257   6.069   8.958   4.779 -0.0229 -0.6566 -0.0277
35567SOL    HW111258   6.147   8.906   4.800  0.4504  0.2189  0.4674
35567SOL    HW211259   6.028   8.911   4.707  0.8549 -1.2519 -0.1647
35568SOL     OW11260   5.253   3.580  10.668  0.1040 -0.8437 -0.1550
35568SOL    HW111261   5.184   3.521  10.698 -1.5545  0.5540 -0.9764
35568SOL    HW211262   5.273   3.634  10.745 -0.0109 -1.0050 -0.0098
35569SOL     OW11263   4.488   9.781   6.716  0.2300  0.1027 -0.5557
35569SOL    HW111264   4.447   9.697   6.695  0.2179 -0.3117  0.9928
35569SOL    HW211265   4.561   9.758   6.773  0.7842  1.0828 -0.8541
35570SOL     OW11266   1.108   7.227  10.994 -0.0236  0.2891  0.8916
35570SOL    HW111267   1.053   7.175  10.935  1.3520 -1.9988  1.4975
35570SOL    HW211268   1.045   7.270  11.052 -1.2593 -1.1718  0.7163
35571SOL     OW11269   4.146   1.013   4.527 -0.6805 -0.3743 -0.1717
35571SOL    HW111270   4.133   1.073   4.453 -2.2731  0.0593  0.4274
35571SOL    HW211271   4.110   0.929   4.497  0.7246 -0.8312 -0.6760
35572SOL     OW11272   0.117   8.042   5.727  0.6385  0.1596 -0.5019
35572SOL    HW111273   0.065   7.982   5.672  1.1796  0.2799 -1.1596
35572SOL    HW211274   0.076   8.128   5.713  1.8939  0.5310 -2.2104
35573SOL     OW11275   5.324   6.936   9.753 -0.0220  0.2097  0.1185
35573SOL    HW111276   5.299   6.981   9.672 -0.1727  0.0667  0.0856
35573SOL    HW211277   5.245   6.889   9.780  0.1286 -0.0176  0.1652
35574SOL     OW11278   2.835  10.637   4.074 -0.1889  0.0761 -0.5067
35574SOL    HW111279   2.807  10.546   4.084 -0.7773  0.1665 -1.2129
35574SOL    HW211280   2.928  10.631   4.052  0.1270 -0.2835  0.8278
35575SOL     OW11281  12.037   2.454   5.510  0.0340  0.2026  0.0933
35575SOL    HW111282  12.003   2.503   5.435 -2.0704 -1.3745 -0.0552
35575SOL    HW211283  12.100   2.392   5.472 -1.0564 -0.6215 -0.4178
35576SOL     OW11284   8.639   0.647   1.732 -0.1903 -0.0507 -0.1624
35576SOL    HW111285   8.720   0.665   1.684  0.5458 -0.7288  0.7962
35576SOL    HW211286   8.575   0.626   1.663  1.0531 -1.8243 -0.8538
35577SOL     OW11287   4.381   3.708   8.290 -0.0112 -0.0163 -0.2159
35577SOL    HW111288   4.443   3.674   8.354  1.0053  1.1788 -0.5058
35577SOL    HW211289   4.380   3.643   8.220 -1.0896 -1.3055  0.9585
35578SOL     OW11290   6.728  11.037   7.157  0.0150  0.5460 -0.1766
35578SOL    HW111291   6.766  11.019   7.072  0.8216  0.0395  0.2873
35578SOL    HW211292   6.637  11.060   7.138  0.3572  1.0665 -1.2220
35579SOL     OW11293   5.123   0.738   2.486 -0.5367  0.2122  0.4682
35579SOL    HW111294   5.176   0.660   2.470  0.4669  0.6832  1.4130
35579SOL    HW211295   5.153   0.770   2.571 -2.3098  0.5342  0.9985
35580SOL     OW11296   6.712   0.616   9.765 -0.4098  0.0869 -0.3394
35580SOL    HW111297   6.653   0.580   9.698  1.1258 -0.3534 -1.5124
35580SOL    HW211298   6.715   0.710   9.747 -0.8741  0.1350 -0.1718
35581SOL     OW11299   3.366   1.571   3.886  0.2422 -0.3555 -0.3781
35581SOL    HW111300   3.308   1.579   3.961  0.7442 -2.4655  0.2800
35581SOL    HW211301   3.454   1.566   3.924  0.4962 -1.5232 -1.0734
35582SOL     OW11302   2.400   9.256  10.202  0.1334 -0.2847  0.3638
35582SOL    HW111303   2.467   9.320  10.223  0.6309 -0.9705  0.9035
35582SOL    HW211304   2.347   9.298  10.134  0.0695  0.9282  1.1437
35583SOL     OW11305   9.542   9.183   5.590  0.3682  0.1235  0.0214
35583SOL    HW111306   9.605   9.178   5.518 -0.2713 -0.2370 -0.5200
35583SOL    HW211307   9.497   9.266   5.577 -0.5677 -0.4887 -0.6888
35584SOL     OW11308  10.518   8.172  11.544 -0.2436  0.3651  0.0255
35584SOL    HW111309  10.600   8.217  11.567  2.0891 -2.7091 -1.4691
35584SOL    HW211310  10.503   8.195  11.452  0.3675 -0.9434 -0.4257
35585SOL     OW11311   8.301   5.977   6.772 -0.0444  0.6033  0.0414
35585SOL    HW111312   8.309   6.044   6.705 -0.3549  0.3008 -0.3061
35585SOL    HW211313   8.245   6.016   6.839 -0.7682  0.4601 -0.4676
35586SOL     OW11314   5.460   9.326   1.657  0.0197  0.0597  0.7770
35586SOL    HW111315   5.465   9.416   1.688 -0.5734  0.0469  0.9210
35586SOL    HW211316   5.381   9.323   1.604  1.7400  0.4462 -2.0257
35587SOL     OW11317  10.898  11.933   9.624 -0.0338 -0.2756  0.0567
35587SOL    HW111318  10.949  11.916   9.703 -0.5836 -1.0772  0.2483
35587SOL    HW211319  10.831  11.996   9.651  0.1628 -0.0768  0.0781
35588SOL     OW11320   6.849   5.498   4.955 -0.1715  0.3294 -0.6923
35588SOL    HW111321   6.895   5.571   4.913 -0.4698  0.1854 -1.2833
35588SOL    HW211322   6.760   5.531   4.970  0.1171  0.6195  0.4764
35589SOL     OW11323   0.980   2.519   3.393  0.0580 -0.1114  0.4043
35589SOL    HW111324   0.895   2.555   3.369 -0.3574 -0.5494  1.2156
35589SOL    HW211325   0.975   2.502   3.487  1.7836  1.9029  0.9559
35590SOL     OW11326   8.355   9.518   8.901  0.3341 -0.2796 -0.2176
35590SOL    HW111327   8.305   9.437   8.904 -0.0151 -0.0349  2.5373
35590SOL    HW211328   8.390   9.529   8.989  1.2708  2.0244 -0.7884
35591SOL     OW11329  10.338   8.981   3.721  0.1637 -0.0410 -0.2980
35591SOL    HW111330  10.355   8.960   3.813  1.9779 -1.3389 -0.8625
35591SOL    HW211331  10.424   9.004   3.687 -0.3078 -0.5841 -1.9093
35592SOL     OW11332   9.304   9.007   7.153  0.0058  0.1666  0.0948
35592SOL    HW111333   9.303   9.028   7.246  2.0122 -0.6279  0.3403
35592SOL    HW211334   9.220   8.963   7.137 -0.8564  1.3312  1.2454
35593SOL     OW11335   4.950   5.317   4.438 -0.5681 -0.3291 -0.0062
35593SOL    HW111336   4.888   5.247   4.457 -3.0237  1.1256 -2.0244
35593SOL    HW211337   4.938   5.379   4.511 -0.2048 -0.8313  0.4894
35594SOL     OW11338   1.229   3.156   8.445 -0.1063  0.4951 -0.8313
35594SOL    HW111339   1.205   3.174   8.354 -2.3825 -0.6674 -0.5041
35594SOL    HW211340   1.178   3.219   8.496  2.6721  2.5612 -0.3394
35595SOL     OW11341   1.286   0.196   1.648 -0.7693  0.1828 -0.5875
35595SOL    HW111342   1.360   0.199   1.588 -0.7034  1.3769 -0.4707
35595SOL    HW211343   1.320   0.232   1.730 -0.7162 -1.9006  0.3595
35596SOL     OW11344   2.768   8.869   5.574 -0.0358 -0.4806  0.0919
35596SOL    HW111345   2.825   8.928   5.525 -0.8406 -0.5390 -0.9749
35596SOL    HW211346   2.827   8.806   5.616  0.7069 -0.2174 -0.5394
35597SOL     OW11347   6.489   2.517  11.642 -0.0053  0.5758  0.6166
35597SOL    HW111348   6.412   2.530  11.588  0.4474  0.3799 -0.0901
35597SOL    HW211349   6.455   2.511  11.732 -0.9338 -0.8028  0.1988
35598SOL     OW11350   4.332   6.331  10.183  0.4682  0.6082  0.2559
35598SOL    HW111351   4.377   6.261  10.135  1.1114  0.0076  1.6679
35598SOL    HW211352   4.391   6.406  10.178  0.9063  0.3071  0.7410
35599SOL     OW11353   5.887   3.945   8.810 -0.0184  0.1875  0.3585
35599SOL    HW111354   5.859   3.855   8.793  0.0737 -0.7022  4.0863
35599SOL    HW211355   5.979   3.948   8.783  0.1493 -1.0300  0.7688
35600SOL     OW11356   4.870   0.958  11.537 -0.5108 -0.1897 -0.7003
35600SOL    HW111357   4.793   0.902  11.547 -0.5104 -0.0162  0.4256
35600SOL    HW211358   4.911   0.928  11.456 -0.4550 -1.9009 -0.0794
35601SOL     OW11359   0.697   4.491  11.027  0.2579 -0.0674  0.1693
35601SOL    HW111360   0.744   4.553  10.971  0.1648  1.6761  1.9236
35601SOL    HW211361   0.732   4.507  11.114  0.6727 -2.9648  0.6366
35602SOL     OW11362  11.146   5.571  12.044 -0.2396 -0.0461  0.4827
35602SOL    HW111363  11.079   5.503  12.051 -0.3071  0.0789  1.2237
35602SOL    HW211364  11.223   5.533  12.087 -0.8133  0.9693  2.5629
35603SOL     OW11365  11.346   7.171   6.346 -0.1534  0.4979 -0.0140
35603SOL    HW111366  11.303   7.138   6.424 -0.1511 -1.8029 -0.9121
35603SOL    HW211367  11.435   7.194   6.375 -0.6255  1.1618  0.9432
35604SOL     OW11368   0.341   3.131   7.798  0.5431 -0.2012  0.0301
35604SOL    HW111369   0.414   3.110   7.856  0.5043 -0.6720 -0.0875
35604SOL    HW211370   0.298   3.047   7.781  1.1325 -0.2259 -1.4654
35605SOL     OW11371   1.093   4.915  11.055  0.4731 -0.4274 -0.8476
35605SOL    HW111372   1.050   4.953  10.979  3.2173 -0.1489 -2.3577
35605SOL    HW211373   1.182   4.948  11.053  0.9373 -1.1621  1.9993
35606SOL     OW11374   8.598   6.701   7.383  0.4894  0.0839 -0.8111
35606SOL    HW111375   8.596   6.622   7.329  1.5227 -0.4228 -0.1453
35606SOL    HW211376   8.670   6.753   7.347 -0.0959  0.6699 -1.1595
35607SOL     OW11377   5.115   7.477   2.425 -0.2888 -0.6496 -0.2194
35607SOL    HW111378   5.148   7.459   2.337 -1.4149 -0.1729 -0.7677
35607SOL    HW211379   5.187   7.521   2.470 -0.3445  0.9019 -1.5552
35608SOL     OW11380   0.676   9.913   2.696  0.0242  0.2372  0.7176
35608SOL    HW111381   0.694   9.850   2.627 -1.1473  1.7099 -1.0327
35608SOL    HW211382   0.735   9.888   2.767  1.2832 -1.3694 -0.7940
35609SOL     OW11383   8.027   9.911   9.917  0.6360  0.0506 -0.0112
35609SOL    HW111384   8.080   9.856   9.861 -1.0623 -0.9096 -0.7602
35609SOL    HW211385   7.950   9.857   9.937 -1.2291  2.1929 -0.9740
35610SOL     OW11386   4.867   8.941   3.988  0.2504  0.1613  0.1076
35610SOL    HW111387   4.881   8.848   4.008 -1.2579  0.0020  0.6279
35610SOL    HW211388   4.790   8.941   3.930 -1.0098  1.1553  1.6888
35611SOL     OW11389   7.726   0.677  10.494  0.9127  0.1841  0.0682
35611SOL    HW111390   7.678   0.731  10.556  0.6066 -0.2152  0.1821
35611SOL    HW211391   7.815   0.674  10.529  0.2555 -1.9037  1.7633
35612SOL     OW11392   1.093   8.873   2.212  0.0896  0.4122 -0.4987
35612SOL    HW111393   1.125   8.935   2.278  0.1860 -0.4313  0.2597
35612SOL    HW211394   1.053   8.929   2.145 -0.4176  1.2625  0.4862
35613SOL     OW11395  11.217   4.663   8.967 -0.0012 -0.7712 -0.2700
35613SOL    HW111396  11.207   4.705   9.053  0.3562 -0.4400 -0.3808
35613SOL    HW211397  11.225   4.570   8.986 -1.1240 -0.8333 -0.0399
35614SOL     OW11398   1.953   1.250   9.229 -0.2150  0.2449  0.0749
35614SOL    HW111399   2.015   1.196   9.279  0.0670 -0.9963 -1.4963
35614SOL    HW211400   1.870   1.242   9.276 -0.2724 -1.9194 -0.2600
35615SOL     OW11401   2.279   3.945   1.438  0.3547  0.5886  0.2933
35615SOL    HW111402   2.227   3.868   1.415 -0.1997  1.4628 -1.6588
35615SOL    HW211403   2.361   3.933   1.390  0.7445  0.6550  0.9396
35616SOL     OW11404   6.535  11.557   3.519  0.3896  0.4083 -0.2862
35616SOL    HW111405   6.564  11.565   3.610  0.9280  0.6756 -0.4768
35616SOL    HW211406   6.501  11.468   3.513 -1.1623  0.8996  0.5952
35617SOL     OW11407  11.376   7.727   1.939 -0.0996  0.2526  0.2055
35617SOL    HW111408  11.326   7.690   2.012  0.0720 -1.7836 -0.6364
35617SOL    HW211409  11.419   7.651   1.899  0.5838  1.4443 -1.4145
35618SOL     OW11410   2.126   8.732   1.900 -0.3720  0.3587  0.4646
35618SOL    HW111411   2.087   8.647   1.920 -0.0841  0.6239  2.2481
35618SOL    HW211412   2.052   8.792   1.890 -0.5673 -0.0272 -0.6229
35619SOL     OW11413   5.625  11.791   9.791 -0.3190 -0.1214 -0.4151
35619SOL    HW111414   5.609  11.821   9.702  0.2801 -0.0654 -0.5033
35619SOL    HW211415   5.537  11.775   9.827 -0.6804  2.0627 -0.2382
35620SOL     OW11416  11.919   6.574   7.617 -0.7666 -0.0425  0.0906
35620SOL    HW111417  11.907   6.660   7.658  2.7732  1.2451 -1.2285
35620SOL    HW211418  11.885   6.585   7.528 -1.0979 -0.2775  0.1885
35621SOL     OW11419   3.806   7.209   9.383  0.4911 -0.6817  0.5649
35621SOL    HW111420   3.810   7.289   9.330 -0.4595 -0.7913  0.3086
35621SOL    HW211421   3.824   7.139   9.321 -1.0186 -0.8423  0.2817
35622SOL     OW11422   2.801   4.549   6.501  0.7044 -0.1037 -0.2935
35622SOL    HW111423   2.876   4.563   6.444  2.7019  0.3247  2.2523
35622SOL    HW211424   2.837   4.552   6.590 -2.4739  1.0252  1.1189
35623SOL     OW11425  11.066  11.886   8.547  0.3768 -0.2495 -0.4841
35623SOL    HW111426  11.057  11.831   8.624 -0.5274 -0.0622 -0.4519
35623SOL    HW211427  11.125  11.957   8.574  2.9349 -2.0142 -0.9880
35624SOL     OW11428   7.389  10.681   7.640 -0.2983  0.1829  0.8215
35624SOL    HW111429   7.373  10.587   7.640  0.5157  0.0363  1.2736
35624SOL    HW211430   7.474  10.691   7.596 -0.8855  0.8055 -0.2146
35625SOL     OW11431   3.015   4.811   9.229 -0.0946 -0.4152 -0.7117
35625SOL    HW111432   3.060   4.746   9.175  0.8986  1.4003 -2.2135
35625SOL    HW211433   3.071   4.822   9.306  0.9499  0.2546 -1.5374
35626SOL     OW11434   7.322   1.308  11.486  0.2833  0.0143 -0.1409
35626SOL    HW111435   7.334   1.335  11.577  1.3338 -2.1856  0.4229
35626SOL    HW211436   7.264   1.232  11.490  1.1313 -0.7290 -1.1796
35627SOL     OW11437   5.372   0.731   6.110 -0.0694 -0.1244 -0.0745
35627SOL    HW111438   5.371   0.800   6.176  1.8106 -2.1452  2.2669
35627SOL    HW211439   5.350   0.651   6.159  2.4893 -1.8854 -1.5870
35628SOL     OW11440  10.924   8.116   7.554  0.0616 -0.4687  0.0656
35628SOL    HW111441  10.922   8.054   7.627 -2.4298  0.3914  0.8413
35628SOL    HW211442  10.836   8.110   7.516  0.8535  0.1682 -1.9555
35629SOL     OW11443   8.030   2.117   1.032 -0.0748  0.1689 -0.3693
35629SOL    HW111444   8.100   2.093   0.971  0.9315 -1.0720  1.1964
35629SOL    HW211445   8.006   2.036   1.076 -0.0753  1.1454  1.5687
35630SOL     OW11446  10.051   1.067   7.057 -0.3632  0.0068  0.0520
35630SOL    HW111447  10.113   1.117   7.110 -0.3408  0.2596 -0.2085
35630SOL    HW211448   9.965   1.097   7.086 -0.3477  1.1476 -0.9768
35631SOL     OW11449   2.480   5.808   7.745 -1.0983 -0.2767 -0.2373
35631SOL    HW111450   2.448   5.747   7.813 -0.2296  0.9910  1.3883
35631SOL    HW211451   2.575   5.808   7.757 -0.9619  0.2112 -1.2847
35632SOL     OW11452   3.834   0.112   1.019 -0.1661  0.2686 -0.2782
35632SOL    HW111453   3.772   0.084   0.952  0.3484  0.4644 -0.8363
35632SOL    HW211454   3.798   0.195   1.051 -0.8827 -0.2639  0.3180
35633SOL     OW11455   4.141   2.131   0.593  0.5927 -0.6176 -0.3001
35633SOL    HW111456   4.096   2.054   0.627  1.5896 -1.6068 -1.1108
35633SOL    HW211457   4.138   2.120   0.498 -1.6998  1.8102 -0.6052
35634SOL     OW11458  12.057   0.537   1.677 -0.2862  0.3950  0.0173
35634SOL    HW111459  12.022   0.542   1.766 -1.3962 -1.2801 -0.2652
35634SOL    HW211460  12.114   0.460   1.678  1.5319  1.6959 -0.1658
35635SOL     OW11461   2.651   5.953   8.123 -0.7696 -0.0080 -0.3829
35635SOL    HW111462   2.703   5.875   8.104 -2.2963 -1.3170  0.6384
35635SOL    HW211463   2.708   6.026   8.097  1.4415 -1.3693  0.3424
35636SOL     OW11464  11.190  10.166   3.644 -0.0220  0.0030 -0.2068
35636SOL    HW111465  11.160  10.229   3.709  0.4980  0.9992 -0.8995
35636SOL    HW211466  11.111  10.118   3.618 -0.4053  0.3015  0.4031
35637SOL     OW11467   2.351   0.861   7.284  0.1388  0.7578 -0.1110
35637SOL    HW111468   2.406   0.801   7.235  0.8835  2.0983 -0.9735
35637SOL    HW211469   2.262   0.830   7.267  0.5481 -1.8274  1.8229
35638SOL     OW11470  12.114  11.717  11.662 -0.6078 -0.1292  0.4000
35638SOL    HW111471  12.187  11.766  11.624 -1.8001  0.7096 -0.8928
35638SOL    HW211472  12.142  11.701  11.753  2.2609 -2.0857 -0.6738
35639SOL     OW11473   6.453   3.191   4.730 -0.2482  0.0706  0.1535
35639SOL    HW111474   6.458   3.167   4.822  4.1842 -2.0534 -0.3642
35639SOL    HW211475   6.513   3.265   4.720 -2.4291  1.8102 -0.7475
35640SOL     OW11476   0.751   0.034  10.883 -0.2919  0.2617  0.1903
35640SOL    HW111477   0.663   0.018  10.849  0.8409 -0.9655 -2.4045
35640SOL    HW211478   0.776   0.119  10.846  0.5634 -0.6062 -1.2906
35641SOL     OW11479   4.496   0.391   2.964 -0.0332 -0.2771 -0.1170
35641SOL    HW111480   4.415   0.363   3.006  0.7376 -0.5958  1.1919
35641SOL    HW211481   4.483   0.484   2.946 -1.7144 -0.8786 -2.4023
35642SOL     OW11482  11.735   2.327   9.583 -0.2101  0.4706 -0.5361
35642SOL    HW111483  11.753   2.282   9.666 -2.0277  0.9572  0.1752
35642SOL    HW211484  11.751   2.261   9.516 -0.7940 -0.6129  0.3600
35643SOL     OW11485   5.813   3.370   9.898  0.2301  0.7448  0.1677
35643SOL    HW111486   5.744   3.309   9.927  0.6302  0.5149  0.6501
35643SOL    HW211487   5.888   3.349   9.953  1.0740  0.1980 -1.1469
35644SOL     OW11488   6.524   7.509   0.316  0.6137 -0.2977  0.0249
35644SOL    HW111489   6.442   7.553   0.295  0.5563  0.5554  1.8444
35644SOL    HW211490   6.554   7.551   0.397  2.0965 -1.5824  0.1969
35645SOL     OW11491   3.514   2.905   3.306 -0.1714 -0.7358  0.0028
35645SOL    HW111492   3.429   2.948   3.310 -0.3142 -0.7831 -1.5656
35645SOL    HW211493   3.550   2.913   3.394 -0.4767  1.9694 -0.0384
35646SOL     OW11494   2.634   8.398   6.867 -0.3450  0.4897  0.3396
35646SOL    HW111495   2.545   8.403   6.832 -0.7574 -2.6141  0.6257
35646SOL    HW211496   2.690   8.403   6.789 -1.0017 -1.0550 -0.2841
35647SOL     OW11497   8.083  10.262   0.630  0.0002 -0.0099  0.2867
35647SOL    HW111498   8.145  10.213   0.684  0.8933  1.3242  0.5273
35647SOL    HW211499   8.138  10.325   0.582 -1.2028  1.5798  0.9150
35648SOL     OW11500   6.836   3.696   6.032 -0.3464  0.0315  0.5647
35648SOL    HW111501   6.752   3.653   6.049 -1.3902  1.6997 -0.1331
35648SOL    HW211502   6.846   3.759   6.103  1.5415 -1.7985  2.0125
35649SOL     OW11503  11.982  11.316   1.701  0.6336 -0.1837 -0.4035
35649SOL    HW111504  12.027  11.381   1.647 -0.2867  1.3582  0.5852
35649SOL    HW211505  11.939  11.259   1.638  4.6901 -2.4725 -1.4781
35650SOL     OW11506   1.958   5.747   2.703 -0.2858  0.1808 -0.2638
35650SOL    HW111507   1.932   5.734   2.612  0.3551  0.5343 -0.5049
35650SOL    HW211508   2.012   5.671   2.724 -0.4295  0.1018 -0.1823
35651SOL     OW11509   5.196   2.533   4.788 -0.0754 -0.0244  0.2031
35651SOL    HW111510   5.170   2.492   4.871 -1.5067  1.3647  0.4860
35651SOL    HW211511   5.141   2.611   4.782 -1.2104 -0.9307 -2.8639
35652SOL     OW11512   6.549   8.577   5.887 -0.0155 -0.1047  0.1233
35652SOL    HW111513   6.522   8.570   5.978 -0.9184 -0.4011 -0.1612
35652SOL    HW211514   6.494   8.646   5.850 -0.0219 -0.3469 -0.3318
35653SOL     OW11515   3.072   8.138   5.219 -0.3557  0.2571 -0.2185
35653SOL    HW111516   3.095   8.098   5.136  0.6017  0.6947 -0.1739
35653SOL    HW211517   3.040   8.226   5.196 -1.8059 -0.2489 -0.2585
35654SOL     OW11518   9.771   7.540   7.738 -0.2925 -0.7584 -0.2068
35654SOL    HW111519   9.764   7.627   7.698 -0.9736 -0.8305 -0.2551
35654SOL    HW211520   9.865   7.528   7.753 -0.2091  0.0595 -0.0413
35655SOL     OW11521   5.200   0.522   7.133 -0.1597  0.2572  0.6148
35655SOL    HW111522   5.134   0.482   7.189  0.2389 -0.3096  0.6935
35655SOL    HW211523   5.283   0.486   7.165  0.2448  1.4435  0.9212
35656SOL     OW11524  10.332   2.896  10.008  0.0162 -0.3675 -0.5907
35656SOL    HW111525  10.351   2.988   9.991 -0.4963 -0.2276 -0.4372
35656SOL    HW211526  10.348   2.853   9.924  0.8929 -0.2537 -0.4940
35657SOL     OW11527   7.051  11.466   5.237  0.4523  0.0344  0.1669
35657SOL    HW111528   7.110  11.438   5.167  0.2188 -2.1505  0.7980
35657SOL    HW211529   7.086  11.427   5.317  0.2915  1.8730  1.2194
35658SOL     OW11530   4.202   9.337  10.777 -0.1211 -0.4876 -0.1930
35658SOL    HW111531   4.114   9.373  10.762 -0.3763 -0.5888  0.9904
35658SOL    HW211532   4.218   9.282  10.700 -1.1066 -0.5049 -0.4013
35659SOL     OW11533   6.045   1.588   5.886 -0.2009  0.0128  0.0058
35659SOL    HW111534   6.010   1.583   5.975  0.5841  1.8819  0.4857
35659SOL    HW211535   5.983   1.538   5.832 -0.6147 -1.2587  1.6126
35660SOL     OW11536  10.664   0.851   4.858 -0.8350  0.2999 -0.6083
35660SOL    HW111537  10.596   0.912   4.886 -0.9203  0.8600 -1.9775
35660SOL    HW211538  10.692   0.808   4.939 -2.8561 -0.0060 -0.0089
35661SOL     OW11539   7.632   3.178   4.865  0.0993 -0.9868  0.2452
35661SOL    HW111540   7.545   3.211   4.846  0.2075 -0.8512 -0.0368
35661SOL    HW211541   7.659   3.223   4.944  0.5748  0.2422 -0.5847
35662SOL     OW11542   0.886   9.745   2.784 -0.2095  0.0934  0.1581
35662SOL    HW111543   0.845   9.686   2.847 -2.1326  0.8231 -0.3413
35662SOL    HW211544   0.859   9.711   2.698 -0.0877  0.8010 -0.1703
35663SOL     OW11545  10.370   6.716   2.047  0.2161  0.7475  0.3238
35663SOL    HW111546  10.374   6.691   1.955 -0.9612  1.8927 -0.0698
35663SOL    HW211547  10.460   6.707   2.079  0.5256 -0.2301 -0.7725
35664SOL     OW11548   2.914   2.868   8.657  0.7209  0.2045 -0.4607
35664SOL    HW111549   3.009   2.873   8.655  0.7216  0.2696 -0.2872
35664SOL    HW211550   2.893   2.783   8.617  0.7611  1.1289 -2.6009
35665SOL     OW11551   9.238   8.238   5.125  0.3179  0.0036 -0.0176
35665SOL    HW111552   9.230   8.293   5.203 -0.6711 -0.8812  0.5243
35665SOL    HW211553   9.244   8.301   5.053 -0.0966  0.8388  0.6522
35666SOL     OW11554   6.727   9.612   4.184 -0.2129  0.0081  0.1859
35666SOL    HW111555   6.786   9.639   4.255  0.4325  0.5308 -0.5354
35666SOL    HW211556   6.648   9.666   4.197  0.4742  1.1780 -0.3404
35667SOL     OW11557   0.247   2.450  10.048 -0.5185 -0.1685 -0.0317
35667SOL    HW111558   0.331   2.403  10.049  0.3303  1.2536  1.2446
35667SOL    HW211559   0.213   2.438   9.960  0.8036 -1.1871 -0.4324
35668SOL     OW11560   2.785   8.732   6.591  0.3848  0.0153  0.2524
35668SOL    HW111561   2.848   8.784   6.640  0.1127  0.0372  0.5797
35668SOL    HW211562   2.740   8.679   6.657 -2.3680  2.4641  0.5666
35669SOL     OW11563   7.775   3.366   5.425 -0.8140  0.2778 -0.1057
35669SOL    HW111564   7.840   3.436   5.419 -1.1909  0.5207 -1.8974
35669SOL    HW211565   7.822   3.292   5.465  0.2536  0.7932 -0.3910
35670SOL     OW11566  10.172   7.463   6.113  0.2951  0.4647  0.1570
35670SOL    HW111567  10.260   7.457   6.151  0.6477  0.7215 -0.6146
35670SOL    HW211568  10.153   7.374   6.083 -1.7919 -0.9686  4.7714
35671SOL     OW11569   3.055   2.846  11.589 -0.2478 -0.0233  0.2476
35671SOL    HW111570   3.068   2.759  11.627 -1.2500  0.2956  1.3584
35671SOL    HW211571   3.007   2.830  11.508 -0.4974 -0.4995  0.4854
35672SOL     OW11572   8.555   7.660   2.089 -0.5855  0.3606  0.2752
35672SOL    HW111573   8.572   7.605   2.012  1.2402  0.9159  0.2529
35672SOL    HW211574   8.550   7.749   2.054  0.4465  0.6349  0.8124
35673SOL     OW11575   5.923  11.502   7.621  0.0220 -0.1018  0.5458
35673SOL    HW111576   5.927  11.476   7.529  0.0994  1.2588  0.1420
35673SOL    HW211577   5.949  11.594   7.621  1.4315 -0.4640  2.1140
35674SOL     OW11578   8.822   9.473   5.866  0.1760  0.8310  0.0379
35674SOL    HW111579   8.828   9.427   5.950  2.6026  1.9708  0.5675
35674SOL    HW211580   8.728   9.491   5.856 -0.2718  0.0344  2.1287
35675SOL     OW11581   0.975   4.006   4.272 -0.0103  0.8185  0.1562
35675SOL    HW111582   0.997   4.095   4.245 -0.5327  1.5305  1.9402
35675SOL    HW211583   0.883   4.010   4.296 -0.1182 -0.2921 -0.0364
35676SOL     OW11584   3.160   4.082   0.864  0.2242 -0.0114  0.5227
35676SOL    HW111585   3.112   4.020   0.919  0.3308 -0.2773  0.3146
35676SOL    HW211586   3.125   4.067   0.776 -0.2559  0.7067  0.5756
35677SOL     OW11587   9.964   9.038   5.788  0.0345  0.0272  0.2648
35677SOL    HW111588  10.028   9.080   5.846  0.2906  0.8575 -0.6080
35677SOL    HW211589   9.909   9.110   5.755  0.5447 -0.2754 -1.3321
35678SOL     OW11590   2.641   7.695   7.148  0.2723  0.3826  0.2808
35678SOL    HW111591   2.595   7.743   7.217  0.9424 -0.3400  1.2540
35678SOL    HW211592   2.590   7.615   7.136  0.6373  0.1057  0.5590
35679SOL     OW11593   2.040   6.617   9.739  0.7630 -0.6211  0.4188
35679SOL    HW111594   2.003   6.704   9.755 -1.1368 -1.7929  3.3598
35679SOL    HW211595   2.134   6.629   9.742  0.7779  1.9129 -3.5485
35680SOL     OW11596   0.294   3.157   2.801  0.4512 -0.0880 -0.3331
35680SOL    HW111597   0.385   3.154   2.770  0.2788  0.9825 -1.0113
35680SOL    HW211598   0.243   3.121   2.728  0.2775  0.0105 -0.2619
35681SOL     OW11599   1.223   7.795   1.150 -0.5243  0.3878  0.3802
35681SOL    HW111600   1.308   7.835   1.167 -0.4148  1.1291 -1.6426
35681SOL    HW211601   1.160   7.867   1.161 -0.6762  0.3233 -0.0542
35682SOL     OW11602   2.651   7.012   9.438  0.1842  0.4496  0.1144
35682SOL    HW111603   2.582   7.014   9.371  1.5673 -1.7262 -1.4946
35682SOL    HW211604   2.621   6.947   9.501  1.1990 -1.4410 -1.2384
35683SOL     OW11605   6.492   3.953  11.577 -0.5154  0.0127 -0.4284
35683SOL    HW111606   6.441   4.033  11.591 -1.7249 -0.8139  0.1304
35683SOL    HW211607   6.527   3.932  11.664  0.8176  0.5628 -0.8034
35684SOL     OW11608   2.955   3.964  11.711 -0.6812  0.3272 -0.1081
35684SOL    HW111609   2.864   3.993  11.723 -1.2309 -1.1476 -0.4730
35684SOL    HW211610   2.985   4.010  11.633  0.0986  3.4662  1.8393
35685SOL     OW11611  10.537   4.673  12.068  0.5201  0.4874 -0.2460
35685SOL    HW111612  10.611   4.718  12.110  0.8584 -0.2771 -0.0083
35685SOL    HW211613  10.578   4.612  12.007  0.0652  0.4856 -0.5441
35686SOL     OW11614   1.790   7.155   7.692  0.5355  0.5869  0.6447
35686SOL    HW111615   1.834   7.083   7.647  0.3468  0.1955  1.0776
35686SOL    HW211616   1.847   7.231   7.679 -0.7573  1.1781 -2.5684
35687SOL     OW11617   5.468  11.377   3.389  0.1481  0.0089 -0.0307
35687SOL    HW111618   5.451  11.417   3.474 -0.1758 -0.4855  0.1370
35687SOL    HW211619   5.479  11.284   3.408 -2.7180 -0.5804 -0.8616
35688SOL     OW11620   0.878   2.075   3.902 -0.1011  0.0306 -0.5623
35688SOL    HW111621   0.875   2.138   3.831 -3.4019  1.2243  0.4631
35688SOL    HW211622   0.787   2.051   3.918  0.5986 -1.2514  2.3490
35689SOL     OW11623   4.804  10.271   4.008  0.0310 -0.0142 -0.3653
35689SOL    HW111624   4.710  10.274   3.989  0.3643  0.1538 -2.1832
35689SOL    HW211625   4.818  10.341   4.072 -1.2155 -0.7199  0.7280
35690SOL     OW11626   0.422   8.830   2.604 -0.3934  0.0264 -0.2210
35690SOL    HW111627   0.398   8.917   2.572  0.3645  0.6415  0.8340
35690SOL    HW211628   0.343   8.777   2.593 -1.7982  1.5786  1.7150
35691SOL     OW11629   6.609   1.923  11.148  0.8569 -0.1021 -0.0232
35691SOL    HW111630   6.568   1.968  11.075  1.4556 -0.5448 -0.6500
35691SOL    HW211631   6.683   1.979  11.172  0.9900 -0.2346 -0.1240
35692SOL     OW11632   6.474   0.269   0.912  0.4723 -0.0234  0.1579
35692SOL    HW111633   6.452   0.245   0.822 -0.5555  0.2525  0.3280
35692SOL    HW211634   6.390   0.275   0.957  0.8547  1.4898  0.7317
35693SOL     OW11635   4.242  10.662   2.656 -0.4766  0.0708  0.0424
35693SOL    HW111636   4.314  10.605   2.629 -1.2183  0.8586 -4.4004
35693SOL    HW211637   4.164  10.607   2.646 -0.7758 -0.0243  2.3826
35694SOL     OW11638   1.729   5.558   5.266 -0.0715 -0.0050 -0.1055
35694SOL    HW111639   1.776   5.491   5.216  0.7737  1.5252 -1.4426
35694SOL    HW211640   1.645   5.567   5.221  1.1449  2.2409 -2.1947
35695SOL     OW11641   0.403   3.044   1.975 -0.2842  0.3190  0.8118
35695SOL    HW111642   0.321   3.035   1.926 -0.1307 -0.4252  0.6817
35695SOL    HW211643   0.403   3.135   2.005 -1.6620  0.0451  1.7174
35696SOL     OW11644   2.412   0.990  10.620  0.2834  0.1668  0.0887
35696SOL    HW111645   2.319   0.976  10.638  0.1698  1.4895  0.5763
35696SOL    HW211646   2.457   0.922  10.671 -0.2879  1.0372  1.8122
35697SOL     OW11647   6.330   4.356   7.647  0.1815 -0.4659  0.1826
35697SOL    HW111648   6.363   4.437   7.610  0.7049 -0.5413  0.4862
35697SOL    HW211649   6.306   4.303   7.571  0.4346 -0.2766 -0.0295
35698SOL     OW11650   6.319   3.519   1.902  0.1831  0.1468  0.2519
35698SOL    HW111651   6.414   3.515   1.895  0.0754 -2.4869 -0.3358
35698SOL    HW211652   6.303   3.545   1.993  1.4925 -1.4070  0.9672
35699SOL     OW11653   9.699   0.287   1.891  0.4269  0.5910  0.2097
35699SOL    HW111654   9.713   0.321   1.980 -1.5211  2.1946 -0.0172
35699SOL    HW211655   9.605   0.301   1.875  0.6008 -0.3109 -1.8534
35700SOL     OW11656   5.049   8.864  10.534 -0.1335  0.1363 -0.3726
35700SOL    HW111657   5.070   8.868  10.627  0.7048  0.3313 -0.5600
35700SOL    HW211658   5.130   8.833  10.493 -0.8310 -1.0311 -0.9205
35701SOL     OW11659  11.793   9.940   2.854 -0.2035  0.3916  0.4662
35701SOL    HW111660  11.699   9.942   2.839 -0.3869  2.0135  1.6638
35701SOL    HW211661  11.823   9.861   2.807 -1.8882  0.7299 -1.3118
35702SOL     OW11662  11.601   4.360   5.305  0.1105  0.7901  1.0850
35702SOL    HW111663  11.689   4.381   5.274 -0.2923 -0.3683 -1.0488
35702SOL    HW211664  11.611   4.347   5.399  2.2319  0.5966  0.8894
35703SOL     OW11665   1.176  10.447   3.865  0.7517 -0.3561  0.3108
35703SOL    HW111666   1.159  10.368   3.917  0.9707 -1.6673 -1.4806
35703SOL    HW211667   1.101  10.504   3.882 -0.8245 -2.1117 -0.3638
35704SOL     OW11668   6.931   0.688   3.268  0.1802  0.1213  0.5710
35704SOL    HW111669   6.839   0.678   3.292  0.5547 -1.6833  1.3909
35704SOL    HW211670   6.977   0.700   3.351  0.8263 -0.1963  0.2660
35705SOL     OW11671  11.307  10.874   2.379 -0.1062 -0.2701 -0.0865
35705SOL    HW111672  11.261  10.888   2.296 -0.7210 -0.9393  0.1297
35705SOL    HW211673  11.252  10.811   2.426 -0.2068  0.7106  1.1772
35706SOL     OW11674   6.484  10.072   6.779 -0.7571 -0.0406  0.0410
35706SOL    HW111675   6.481   9.980   6.806 -2.0425 -1.0237 -3.0257
35706SOL    HW211676   6.537  10.072   6.700 -4.5827  0.8682 -2.7966
35707SOL     OW11677   9.344   5.185   2.591  0.2503  0.2851 -0.4608
35707SOL    HW111678   9.269   5.126   2.582 -1.1044  1.8015  0.3738
35707SOL    HW211679   9.362   5.215   2.502 -0.1835 -0.0178 -0.6555
35708SOL     OW11680  12.083   2.310   3.321  0.1054 -0.0499  0.6567
35708SOL    HW111681  12.132   2.365   3.381 -0.9233  2.2579 -0.4906
35708SOL    HW211682  12.138   2.305   3.242 -0.1074 -0.0929  0.5094
35709SOL     OW11683  11.122   5.066   9.187  0.6770  0.4384  0.3797
35709SOL    HW111684  11.164   5.105   9.111 -1.4187  0.9300 -0.6047
35709SOL    HW211685  11.028   5.073   9.169  0.1451 -1.1660  2.1529
35710SOL     OW11686  10.080   4.635  11.229  0.1475  0.0031 -0.0758
35710SOL    HW111687  10.166   4.644  11.271  0.1088  1.1919 -0.2330
35710SOL    HW211688  10.039   4.562  11.277  1.2290 -0.5906 -0.0039
35711SOL     OW11689   9.293   1.201   3.036 -0.1119  0.5723  0.6589
35711SOL    HW111690   9.279   1.222   3.128  2.6462  1.5256  0.9549
35711SOL    HW211691   9.325   1.111   3.036 -0.1217  0.5688  0.6452
35712SOL     OW11692   9.069   0.135   7.904 -0.6110  0.2624  0.0731
35712SOL    HW111693   9.016   0.058   7.923  0.4920 -0.2071  1.4352
35712SOL    HW211694   9.011   0.209   7.922 -1.0523 -0.2353  0.7560
35713SOL     OW11695  10.758  11.798   4.395  0.2141  0.3052  0.0737
35713SOL    HW111696  10.851  11.784   4.414  0.1940  0.5859  0.3815
35713SOL    HW211697  10.737  11.880   4.438 -0.1647  0.2713 -0.0466
35714SOL     OW11698   5.449  11.647  11.716  0.2106  0.1724 -0.4667
35714SOL    HW111699   5.437  11.686  11.630  1.2415 -2.7814 -2.1133
35714SOL    HW211700   5.526  11.691  11.752 -0.6930  1.9873 -0.6610
35715SOL     OW11701   6.943   6.943   7.534 -0.1259  0.4422 -0.1446
35715SOL    HW111702   6.890   6.863   7.532 -0.6520  0.7194  1.3981
35715SOL    HW211703   7.023   6.920   7.486 -0.1060 -1.1258  0.5884
35716SOL     OW11704   0.486   1.395   3.459 -0.0493 -0.2638 -0.3072
35716SOL    HW111705   0.466   1.421   3.369 -0.9578  2.0776  0.4886
35716SOL    HW211706   0.499   1.478   3.505  0.8887 -1.4187  1.6323
35717SOL     OW11707   5.127   5.342   8.844 -0.3950  0.3641 -0.2510
35717SOL    HW111708   5.189   5.275   8.871  0.2521  0.9104 -0.3661
35717SOL    HW211709   5.090   5.375   8.926  0.4776  0.9861 -0.0906
35718SOL     OW11710   1.200   9.912   9.388 -0.2091  0.3028 -0.7723
35718SOL    HW111711   1.223   9.953   9.305  0.7476  1.6125  0.0850
35718SOL    HW211712   1.282   9.911   9.438 -1.1971  1.6710  1.0079
35719SOL     OW11713   5.777   0.846   1.450  0.3812  0.1928 -0.0364
35719SOL    HW111714   5.754   0.754   1.435  0.5208 -0.0381  1.0318
35719SOL    HW211715   5.867   0.843   1.482 -0.1563  0.5243  1.6129
35720SOL     OW11716   0.869   8.293  10.688  0.0497 -0.2814 -0.3987
35720SOL    HW111717   0.807   8.310  10.617  0.5856  0.6015 -0.6722
35720SOL    HW211718   0.953   8.284  10.644  0.6376  1.7276  0.2129
35721SOL     OW11719   8.164   5.769  11.407  0.6542 -0.3507  0.2060
35721SOL    HW111720   8.240   5.733  11.360  1.3361 -1.1612  1.8382
35721SOL    HW211721   8.102   5.696  11.410 -0.1235  0.2346 -0.9066
35722SOL     OW11722   7.462   5.161  11.652 -0.0036  0.2695  0.7417
35722SOL    HW111723   7.388   5.195  11.602 -1.0650 -1.4967  1.0227
35722SOL    HW211724   7.499   5.238  11.695  0.1686  1.6330 -1.7066
35723SOL     OW11725   0.400   7.030  11.403  0.0217  0.2313  0.0674
35723SOL    HW111726   0.408   7.014  11.309 -1.7475 -1.5166  0.1311
35723SOL    HW211727   0.327   7.092  11.410 -0.0271  0.1487  0.2859
35724SOL     OW11728   3.833  10.321   4.000  0.2135  0.0296  0.8782
35724SOL    HW111729   3.789  10.270   4.069 -1.4152 -0.5093 -0.4938
35724SOL    HW211730   3.899  10.261   3.964  0.5733  0.0641  1.4678
35725SOL     OW11731   9.221   8.025   5.772  0.2412  0.7964  0.0515
35725SOL    HW111732   9.246   8.037   5.863 -0.3585  0.5062  0.2609
35725SOL    HW211733   9.147   8.084   5.759 -1.1137 -0.7420  0.3958
35726SOL     OW11734   4.798   3.460   3.232  0.1882 -0.5897 -0.3540
35726SOL    HW111735   4.718   3.492   3.274  0.6590 -1.7371  1.5116
35726SOL    HW211736   4.844   3.412   3.300  1.5657 -1.5841 -1.8978
35727SOL     OW11737   5.147   3.137   0.730  0.0108  1.0923  0.1836
35727SOL    HW111738   5.172   3.045   0.742 -0.0755  0.9800 -0.4776
35727SOL    HW211739   5.174   3.179   0.812  0.0228  0.4757  0.5082
35728SOL     OW11740   6.975   4.818  10.108  0.3662  0.7674 -0.3672
35728SOL    HW111741   6.948   4.739  10.156  2.6375 -0.7917 -1.4647
35728SOL    HW211742   7.059   4.795  10.070 -1.1349  1.8966 -5.0040
35729SOL     OW11743   0.522   5.749   0.289  0.4398 -0.5009  0.4306
35729SOL    HW111744   0.574   5.738   0.209  2.2377 -0.6982  1.5660
35729SOL    HW211745   0.448   5.690   0.278 -0.7186  1.2332 -2.1249
35730SOL     OW11746   1.030   9.940  11.254  0.1083 -0.8851 -0.2162
35730SOL    HW111747   0.989   9.991  11.324  1.1115 -1.4246  0.7960
35730SOL    HW211748   0.965   9.939  11.184 -1.4210 -1.2924  1.1351
35731SOL     OW11749   4.169   5.372   7.479  0.4525 -0.0175 -0.0308
35731SOL    HW111750   4.153   5.301   7.416  1.8445  0.7361 -1.3163
35731SOL    HW211751   4.260   5.395   7.466  0.6008  0.6345  1.8515
35732SOL     OW11752   5.821   8.835  10.612  0.2660  0.2196 -0.2136
35732SOL    HW111753   5.883   8.879  10.554 -1.1875  1.1893 -1.1066
35732SOL    HW211754   5.774   8.906  10.657  0.0596 -0.4880  0.7248
35733SOL     OW11755   9.946   9.605   0.200 -0.5609  0.2945 -0.2989
35733SOL    HW111756   9.893   9.526   0.190  0.8286 -0.6603 -0.4765
35733SOL    HW211757   9.906   9.653   0.272 -0.3928 -1.4711  1.0205
35734SOL     OW11758   3.661   5.863  10.113  0.2758  0.0874 -0.9359
35734SOL    HW111759   3.688   5.912  10.190  0.1910 -0.6517 -0.4202
35734SOL    HW211760   3.566   5.857  10.120  0.4167 -1.6677 -0.0226
35735SOL     OW11761   2.912  10.866   1.589 -0.1004  0.0901  0.5669
35735SOL    HW111762   2.993  10.865   1.640 -0.0911 -0.4015  0.5442
35735SOL    HW211763   2.932  10.921   1.513  0.7433 -1.3807 -0.3056
35736SOL     OW11764   7.753   5.716   6.685  0.5002 -0.2830 -0.3158
35736SOL    HW111765   7.798   5.721   6.601 -1.8907 -0.7574 -1.7178
35736SOL    HW211766   7.674   5.768   6.673 -1.4584 -2.8424  0.5300
35737SOL     OW11767   9.614   7.131   6.701  0.0701  0.2126 -0.3136
35737SOL    HW111768   9.647   7.078   6.629  1.1042  0.7613 -0.2681
35737SOL    HW211769   9.688   7.137   6.762 -1.1491 -1.2699  1.4180
35738SOL     OW11770   8.986   4.631   4.353 -0.3222  0.0080 -0.0620
35738SOL    HW111771   9.007   4.708   4.301  1.3948 -0.1346  0.3817
35738SOL    HW211772   8.916   4.587   4.304  2.1376 -0.8851 -3.0377
35739SOL     OW11773   5.611   1.814   7.800 -0.2133  0.4358 -0.5864
35739SOL    HW111774   5.603   1.752   7.873 -1.1355  1.6078  0.3464
35739SOL    HW211775   5.666   1.768   7.736 -0.3818 -1.1082  0.3130
35740SOL     OW11776   8.858   7.609  10.385  0.0338 -0.7971 -0.4103
35740SOL    HW111777   8.938   7.613  10.437 -1.2950 -0.9098  1.7548
35740SOL    HW211778   8.822   7.522  10.402 -1.0460 -0.4006 -0.5549
35741SOL     OW11779  10.922   6.910   6.771 -0.2184  0.0055  0.7725
35741SOL    HW111780  10.931   6.870   6.857 -1.0876 -1.0209  0.4018
35741SOL    HW211781  10.992   6.869   6.719 -0.4917 -0.3138  0.6548
35742SOL     OW11782  11.231   3.596  11.182 -0.2490  0.3192  0.4719
35742SOL    HW111783  11.234   3.692  11.190  1.5398  0.5336 -1.6481
35742SOL    HW211784  11.311   3.574  11.135 -0.3390 -2.3230  1.4340
35743SOL     OW11785   9.713   9.938   0.519  0.6972 -0.2625 -0.2164
35743SOL    HW111786   9.672   9.918   0.603  0.6866  0.4947 -0.0321
35743SOL    HW211787   9.700  10.033   0.508 -0.1815 -0.5125 -1.5410
35744SOL     OW11788  10.789  10.007   9.843  0.5554  0.1685 -0.1311
35744SOL    HW111789  10.867   9.974   9.798  1.0040 -0.4036  1.0081
35744SOL    HW211790  10.790  10.101   9.826  1.5594  0.1890 -0.0594
35745SOL     OW11791   0.135   2.014   2.520 -0.5150  0.7924  0.4959
35745SOL    HW111792   0.168   2.034   2.608  0.6625  3.6360 -0.4895
35745SOL    HW211793   0.188   1.940   2.490 -0.1686  0.5123  1.7333
35746SOL     OW11794  11.816   1.468   9.775 -0.1429  0.0786 -0.2029
35746SOL    HW111795  11.751   1.413   9.730  0.9914  0.1642 -2.0538
35746SOL    HW211796  11.795   1.459   9.867 -2.0664 -0.8114 -0.6784
35747SOL     OW11797  11.484  11.016   2.060  0.6529 -0.1152  0.3938
35747SOL    HW111798  11.418  10.965   2.013  1.4310 -0.1306 -0.7158
35747SOL    HW211799  11.561  10.960   2.061  1.5586  1.0368 -0.9445
35748SOL     OW11800   4.991  10.967   7.993  0.4281  0.3784  0.0629
35748SOL    HW111801   4.980  10.922   8.077  0.2381  1.4147  0.6162
35748SOL    HW211802   4.935  10.919   7.933  0.0377  0.0223  0.6927
35749SOL     OW11803   5.975  11.831   6.633  0.3470  0.4000  0.2774
35749SOL    HW111804   5.935  11.783   6.560  1.1621  0.2623 -0.0893
35749SOL    HW211805   5.915  11.816   6.706 -0.7590  0.9831 -0.4856
35750SOL     OW11806   0.951   9.819   0.231 -0.0851 -0.0188  0.0239
35750SOL    HW111807   0.871   9.870   0.242 -0.1797 -0.0252 -0.5926
35750SOL    HW211808   1.016   9.863   0.286  0.3186  1.8254 -1.8085
35751SOL     OW11809   4.414   9.711  10.145  1.1751 -0.6392 -0.2810
35751SOL    HW111810   4.467   9.645  10.190 -0.7010 -0.9973  1.5742
35751SOL    HW211811   4.375   9.664  10.072  0.7005 -1.3381  0.3997
35752SOL     OW11812   6.580   2.287  11.257  0.0658 -0.6510  0.0997
35752SOL    HW111813   6.508   2.224  11.247 -1.3968  1.0117 -0.3922
35752SOL    HW211814   6.583   2.304  11.351 -2.5992  1.7711 -0.0836
35753SOL     OW11815   2.146   6.059   3.627 -0.1824  0.8555 -0.2443
35753SOL    HW111816   2.207   6.070   3.701 -0.2244  0.1583 -0.1012
35753SOL    HW211817   2.117   6.148   3.608 -0.3947  1.0222  0.7783
35754SOL     OW11818   5.181   7.424   6.615 -0.5784  0.5180 -0.0856
35754SOL    HW111819   5.199   7.370   6.539 -0.9462  0.9543 -0.4918
35754SOL    HW211820   5.093   7.459   6.600 -1.2421 -0.5072  1.2156
35755SOL     OW11821   7.235   8.074   5.182  0.1901 -0.3473 -0.3283
35755SOL    HW111822   7.204   8.011   5.117 -1.1952  0.8604 -0.8846
35755SOL    HW211823   7.329   8.082   5.165 -0.0436 -0.4995 -1.7896
35756SOL     OW11824   1.042   0.302  11.183 -0.6076 -0.4947  0.4613
35756SOL    HW111825   1.036   0.311  11.278  0.5000 -0.5608  0.5405
35756SOL    HW211826   0.976   0.235  11.161 -2.4280  1.0549  0.8998
35757SOL     OW11827  10.006  11.425   0.765  0.1852 -0.1040 -0.5596
35757SOL    HW111828  10.081  11.476   0.796  0.8053 -0.8366 -0.8006
35757SOL    HW211829  10.046  11.354   0.714 -0.5554 -1.4610  0.6618
35758SOL     OW11830   7.242   2.593   8.442 -0.3683  0.4369  0.0683
35758SOL    HW111831   7.242   2.607   8.348  0.1429 -2.1468 -0.3829
35758SOL    HW211832   7.155   2.620   8.471 -1.5327 -1.3360 -1.6120
35759SOL     OW11833   1.412   7.449  10.215  0.1614 -0.0158  0.1160
35759SOL    HW111834   1.410   7.537  10.253  0.1318  0.1272 -0.2129
35759SOL    HW211835   1.444   7.462  10.126  1.0790 -0.4506  0.3620
35760SOL     OW11836   4.474   8.021   9.379 -0.0410  0.1338  0.0638
35760SOL    HW111837   4.524   8.073   9.443 -0.7733 -0.2342  0.9532
35760SOL    HW211838   4.506   8.051   9.294  0.3270  1.2778  0.5803
35761SOL     OW11839  11.453   5.401   2.809 -0.0086 -0.4068 -0.0071
35761SOL    HW111840  11.368   5.371   2.776  0.6763 -1.1959 -1.1387
35761SOL    HW211841  11.465   5.352   2.891 -1.0812  0.4701  0.6988
35762SOL     OW11842   7.668  11.078   0.409  0.7763  0.3646 -0.3538
35762SOL    HW111843   7.687  11.073   0.315  0.5172 -1.4030 -0.3314
35762SOL    HW211844   7.575  11.059   0.416  1.0841 -0.9751  0.3671
35763SOL     OW11845   8.542   0.784   5.910 -0.1197 -0.0282 -0.0954
35763SOL    HW111846   8.520   0.728   5.985  0.2854 -0.3950 -0.2495
35763SOL    HW211847   8.599   0.851   5.947 -0.1423 -0.0484 -0.0226
35764SOL     OW11848   0.149   4.462   6.907 -0.0011 -0.1288 -0.2685
35764SOL    HW111849   0.097   4.381   6.905 -1.0304  0.5096 -2.2537
35764SOL    HW211850   0.239   4.433   6.917 -0.5088 -1.4104  0.8330
35765SOL     OW11851   3.382   2.344   3.047  0.0031 -0.7871 -0.2495
35765SOL    HW111852   3.347   2.423   3.006 -0.9677 -1.5633 -0.9644
35765SOL    HW211853   3.466   2.330   3.002  1.0687  0.7707  1.0937
35766SOL     OW11854   3.378   7.107   3.216 -0.3530  0.1476 -0.1641
35766SOL    HW111855   3.330   7.028   3.242 -1.3634 -0.0495 -2.3417
35766SOL    HW211856   3.392   7.095   3.122  1.7516  1.4235 -0.0496
35767SOL     OW11857   4.926   0.498   3.932 -0.0778  0.0006 -0.3955
35767SOL    HW111858   4.900   0.503   4.024 -0.9235 -0.1538 -0.6170
35767SOL    HW211859   4.948   0.405   3.919 -0.5164 -0.0881 -0.4966
35768SOL     OW11860   7.823   0.705   6.538 -0.3325  0.0437  0.2054
35768SOL    HW111861   7.811   0.752   6.456 -1.5726 -0.7162 -0.0860
35768SOL    HW211862   7.877   0.629   6.515  0.7314  0.7179  0.4472
35769SOL     OW11863   8.584   0.821   9.902  1.0091  0.2781 -0.4359
35769SOL    HW111864   8.559   0.768   9.977  0.2400  1.8972  0.5111
35769SOL    HW211865   8.660   0.776   9.864  0.8559 -1.0446  0.7686
35770SOL     OW11866  11.942   8.415   2.204 -0.2129 -0.0025  0.0559
35770SOL    HW111867  11.942   8.320   2.204 -2.2652 -0.0250 -0.1286
35770SOL    HW211868  11.922   8.439   2.295  0.1401  0.2720  0.0675
35771SOL     OW11869   4.921   6.321   3.746 -0.3862  0.2000  0.9082
35771SOL    HW111870   4.997   6.321   3.805  0.7187  0.5197 -0.4527
35771SOL    HW211871   4.870   6.245   3.773  0.8424 -0.4981  1.3641
35772SOL     OW11872   5.250   2.393   3.642 -0.3472 -0.2276 -0.5309
35772SOL    HW111873   5.172   2.362   3.596 -1.1547  1.1245 -0.1150
35772SOL    HW211874   5.233   2.485   3.661  1.6159  0.2807 -0.9746
35773SOL     OW11875   2.566   3.275   0.062 -0.0059  0.0561 -0.1232
35773SOL    HW111876   2.646   3.259   0.112 -1.3081 -1.1744  1.7347
35773SOL    HW211877   2.575   3.365   0.030  1.3033  0.6028  1.6109
35774SOL     OW11878   5.654   3.628   1.724 -0.1564  0.2107  0.3682
35774SOL    HW111879   5.738   3.591   1.696 -0.3112  0.0966  0.0572
35774SOL    HW211880   5.617   3.562   1.782 -0.7286 -0.4187 -0.6911
35775SOL     OW11881  10.929   5.633  10.912 -0.2595 -0.5097  0.0962
35775SOL    HW111882  10.953   5.544  10.886 -0.0046 -0.5556  0.4980
35775SOL    HW211883  10.967   5.689  10.843 -0.7890 -0.7365 -0.3922
35776SOL     OW11884   7.217   7.080   5.239  0.3355  0.0598 -0.2538
35776SOL    HW111885   7.307   7.091   5.270  0.7503 -2.4057 -0.4017
35776SOL    HW211886   7.224   7.075   5.144  0.5584 -3.2784 -0.1730
35777SOL     OW11887   7.546   6.207   4.997  0.5185  0.6379  0.3787
35777SOL    HW111888   7.483   6.232   4.930  0.1300  0.3100  0.6215
35777SOL    HW211889   7.590   6.288   5.020  0.9105  0.7030 -0.5347
35778SOL     OW11890   0.897  10.465   1.582 -0.5355 -0.4226 -0.4177
35778SOL    HW111891   0.969  10.421   1.627 -1.0803 -1.6892 -0.7502
35778SOL    HW211892   0.911  10.558   1.601  0.8087 -0.6958  0.0558
35779SOL     OW11893  10.920   2.687   4.079  0.0944  0.0122  0.4340
35779SOL    HW111894  11.006   2.661   4.112  0.5327  2.8095  1.7554
35779SOL    HW211895  10.859   2.625   4.120  1.4373 -2.8153 -1.4715
35780SOL     OW11896   7.665   5.503   2.608  0.3718 -0.4610  0.1974
35780SOL    HW111897   7.626   5.576   2.560 -0.9072  0.5072  2.5598
35780SOL    HW211898   7.751   5.536   2.635  0.9538 -0.8859 -1.0674
35781SOL     OW11899  10.089   5.610   7.243  0.2222  0.0348  1.0757
35781SOL    HW111900  10.162   5.557   7.211 -0.8386 -1.2964  0.7700
35781SOL    HW211901  10.130   5.676   7.298  1.7310 -0.1468  0.2340
35782SOL     OW11902   4.915   2.473   7.422 -0.1054  0.4605 -0.1319
35782SOL    HW111903   4.891   2.397   7.368  1.9033 -0.3319  0.0102
35782SOL    HW211904   4.937   2.436   7.507  3.0148  0.8399 -0.6721
35783SOL     OW11905  11.715   6.674   2.660  0.5121 -0.1137 -0.3444
35783SOL    HW111906  11.656   6.609   2.699  0.5973  0.3824  0.6578
35783SOL    HW211907  11.764   6.625   2.594  1.4381 -1.3834  1.2023
35784SOL     OW11908   0.378   9.439  10.038 -0.9036 -0.1922 -0.1963
35784SOL    HW111909   0.436   9.499  10.084  2.3229  0.1074 -4.1032
35784SOL    HW211910   0.304   9.494  10.010  0.0365  1.0172 -0.3625
35785SOL     OW11911  10.310   1.922   6.527  0.4328 -0.5981  0.3849
35785SOL    HW111912  10.280   1.922   6.436 -1.4759 -1.2634  0.9790
35785SOL    HW211913  10.271   1.844   6.565  1.0646 -0.2287  1.8387
35786SOL     OW11914   7.355   5.175  10.883 -0.0399  0.0691 -0.1125
35786SOL    HW111915   7.431   5.160  10.827 -0.6850  0.5782 -1.1507
35786SOL    HW211916   7.284   5.126  10.841 -0.8788  1.6159 -0.5795
35787SOL     OW11917   2.955   6.223   4.337 -0.3541  0.0953 -0.1953
35787SOL    HW111918   2.953   6.225   4.432  0.6739 -0.0582 -0.1517
35787SOL    HW211919   2.872   6.262   4.310 -1.2927 -1.1564  0.7488
35788SOL     OW11920   2.548  11.107   9.154 -0.3482  0.0268  0.0187
35788SOL    HW111921   2.477  11.082   9.213  0.0278 -1.5205 -0.1232
35788SOL    HW211922   2.624  11.057   9.186 -0.3472 -1.5735 -2.2673
35789SOL     OW11923  10.124   1.756   7.275  0.1245 -0.3026 -0.2718
35789SOL    HW111924  10.063   1.793   7.212 -0.3980 -0.2252  0.2680
35789SOL    HW211925  10.122   1.661   7.259  0.3171 -0.2440 -0.6486
35790SOL     OW11926   4.312  11.262   7.639 -0.5653  0.3238  0.5898
35790SOL    HW111927   4.284  11.197   7.574 -2.9738  0.5168  1.3149
35790SOL    HW211928   4.345  11.211   7.712 -0.2889  0.0133  0.2501
35791SOL     OW11929   5.041  11.953  10.278  0.1576 -0.3482  0.8309
35791SOL    HW111930   5.028  12.028  10.220  0.7952 -1.6385 -1.0644
35791SOL    HW211931   5.085  11.888  10.224  0.5195 -1.7497  2.6990
35792SOL     OW11932  10.907   0.240   5.526  0.3025 -0.4898  0.0725
35792SOL    HW111933  10.949   0.280   5.450 -0.2567  0.4767  0.2625
35792SOL    HW211934  10.822   0.211   5.494 -0.5708  1.2948  0.6629
35793SOL     OW11935   7.570   6.502   3.427  0.2501 -0.2622  0.3904
35793SOL    HW111936   7.545   6.433   3.489 -1.2077  0.2987  0.4669
35793SOL    HW211937   7.494   6.512   3.370  0.8957  0.4790 -0.3680
35794SOL     OW11938  11.526  10.365   9.993  0.3278  0.2821 -0.3107
35794SOL    HW111939  11.432  10.359  10.010  0.4690 -1.4107  0.0541
35794SOL    HW211940  11.553  10.276   9.972  2.1467  0.3742  1.2556
35795SOL     OW11941  10.394   5.911   0.138  0.6073 -0.3911  0.4447
35795SOL    HW111942  10.356   5.876   0.057  1.9795 -0.6016 -0.1437
35795SOL    HW211943  10.358   5.856   0.207  0.8941 -1.4594 -0.2296
35796SOL     OW11944  11.511   7.004   5.565  0.0325  0.2393 -0.6872
35796SOL    HW111945  11.552   7.031   5.483 -0.9525  0.6049 -1.0716
35796SOL    HW211946  11.463   6.924   5.543  0.2703 -0.0097 -0.3163
35797SOL     OW11947   6.032   6.143  10.160 -0.4516  0.1158  0.1105
35797SOL    HW111948   6.046   6.062  10.211  0.3375 -0.4351 -0.9454
35797SOL    HW211949   6.051   6.118  10.070  0.0839  1.5584 -0.1991
35798SOL     OW11950   2.313   6.338   3.898  0.5037  0.2639 -0.2287
35798SOL    HW111951   2.223   6.371   3.893  0.4217  0.0800 -0.0356
35798SOL    HW211952   2.308   6.251   3.860  0.4026 -0.1139  0.6144
35799SOL     OW11953   2.057   7.707   7.266  0.3201 -0.3782  0.0865
35799SOL    HW111954   1.990   7.706   7.334  0.2385 -1.5973  0.0251
35799SOL    HW211955   2.135   7.741   7.308  0.1823 -0.8241  0.7138
35800SOL     OW11956   1.249   4.453   4.974 -0.2405  0.4169  0.2268
35800SOL    HW111957   1.244   4.363   5.006  0.2440  1.0642  2.2834
35800SOL    HW211958   1.161   4.489   4.991  0.0293  0.7768  0.8824
35801SOL     OW11959   8.349   4.150   5.834 -0.3544 -0.0201 -0.0020
35801SOL    HW111960   8.367   4.145   5.740 -0.9695  0.2214 -0.1445
35801SOL    HW211961   8.430   4.181   5.873 -0.5344  1.3462 -0.6409
35802SOL     OW11962   9.533   1.872   6.609 -0.3368 -0.1667  0.1502
35802SOL    HW111963   9.545   1.960   6.645  1.0909  0.0326 -0.7207
35802SOL    HW211964   9.622   1.839   6.595 -0.8325 -0.9256 -1.4697
35803SOL     OW11965   1.575   2.959  11.370 -0.0395  0.2593 -0.3639
35803SOL    HW111966   1.579   2.973  11.464  2.0736 -0.7003 -0.2569
35803SOL    HW211967   1.574   2.864  11.359 -3.8795  0.2027 -1.3126
35804SOL     OW11968   8.306  10.932   5.460 -0.1149 -0.0864  0.2043
35804SOL    HW111969   8.365  11.007   5.457  0.6788 -0.5914  2.1272
35804SOL    HW211970   8.219  10.970   5.469  0.1674  0.6197 -0.0026
35805SOL     OW11971   1.692  11.787   2.374  0.2800 -0.1977  0.4672
35805SOL    HW111972   1.740  11.746   2.301 -0.8797  0.7530 -0.8857
35805SOL    HW211973   1.760  11.810   2.437  1.3778 -0.6642 -0.5007
35806SOL     OW11974   3.768   0.909   3.425  0.0043  0.7315 -0.5513
35806SOL    HW111975   3.795   0.995   3.391  1.6070  0.2785 -0.4985
35806SOL    HW211976   3.705   0.930   3.494  0.3160  1.8691 -0.5818
35807SOL     OW11977  11.641   6.215   3.937 -0.6266 -0.0661  0.3923
35807SOL    HW111978  11.559   6.215   3.986 -0.6733 -0.9142  0.3329
35807SOL    HW211979  11.709   6.228   4.003 -0.5873 -2.3778  0.9177
35808SOL     OW11980  11.021   3.803   0.175 -0.5445  0.3117 -0.7612
35808SOL    HW111981  11.098   3.820   0.229 -1.3751 -0.2789  0.6725
35808SOL    HW211982  11.045   3.835   0.088  0.8579  1.2563 -0.0632
35809SOL     OW11983   7.305   2.947  10.644 -0.2054 -0.2234  0.0960
35809SOL    HW111984   7.286   2.914  10.556 -0.1488  0.7183 -0.2775
35809SOL    HW211985   7.350   3.030  10.630  2.7237 -1.5532  0.9639
35810SOL     OW11986  10.604   1.998   8.064 -0.3037 -0.2953  0.2269
35810SOL    HW111987  10.536   1.931   8.065  1.9584 -2.9482 -2.3328
35810SOL    HW211988  10.664   1.973   8.135 -0.1024 -0.2140  0.0874
35811SOL     OW11989   2.257   4.324  10.439  0.3862  0.5028  0.7188
35811SOL    HW111990   2.349   4.347  10.426  0.1350  0.4430 -1.7686
35811SOL    HW211991   2.213   4.407  10.454  0.5761  0.7853 -0.2265
35812SOL     OW11992   8.211   9.422  11.830 -0.1590 -0.2609  0.0722
35812SOL    HW111993   8.223   9.516  11.817 -0.6379 -0.2437 -0.2619
35812SOL    HW211994   8.147   9.414  11.901 -0.0302 -0.3365  0.1819
35813SOL     OW11995  11.410   2.336   0.628  0.0395  0.0357 -0.1793
35813SOL    HW111996  11.416   2.269   0.559  1.5411 -0.8911  0.7988
35813SOL    HW211997  11.435   2.417   0.584 -1.3860 -0.0604 -1.2806
35814SOL     OW11998   3.400   2.345  11.149 -0.0413  0.0534 -0.2100
35814SOL    HW111999   3.406   2.258  11.110  1.9943  0.0324  0.0456
35814SOL    HW212000   3.405   2.329  11.243  1.4444  0.4766 -0.1918
35815SOL     OW12001   4.952  11.567   1.325  0.5096 -0.1079 -0.0675
35815SOL    HW112002   5.037  11.544   1.288  0.2166  0.2698 -0.9902
35815SOL    HW212003   4.966  11.563   1.420  1.0132 -2.0644 -0.1778
35816SOL     OW12004   8.658   9.399   6.104  0.3678 -0.2265 -0.1774
35816SOL    HW112005   8.693   9.402   6.193 -1.2595  0.7621  0.4831
35816SOL    HW212006   8.564   9.386   6.115 -0.1281  1.5761 -1.6442
35817SOL     OW12007   8.747   3.977   7.838 -0.6595 -0.5837 -0.5808
35817SOL    HW112008   8.837   3.951   7.816 -0.8640 -1.2562 -0.6304
35817SOL    HW212009   8.733   3.941   7.926 -0.4401  0.6244 -0.0212
35818SOL     OW12010  10.642   1.942   0.675  0.0065  0.5126 -0.5414
35818SOL    HW112011  10.697   1.879   0.723  1.4806  1.5610 -0.8043
35818SOL    HW212012  10.693   2.022   0.673 -0.6821  0.9662 -2.5298
35819SOL     OW12013   1.671  10.739   6.189  0.3046 -0.6199 -0.5270
35819SOL    HW112014   1.668  10.658   6.240 -2.3792  1.5035  3.2306
35819SOL    HW212015   1.605  10.726   6.120 -0.2606 -1.5542  0.1603
35820SOL     OW12016   5.122   0.336   5.321 -0.4631 -0.1156  0.0527
35820SOL    HW112017   5.033   0.323   5.288 -0.3106  1.4490 -1.0818
35820SOL    HW212018   5.134   0.431   5.322  1.3325 -0.3008 -0.1867
35821SOL     OW12019   9.064  11.554   3.705 -0.6836 -0.4475 -0.4138
35821SOL    HW112020   9.004  11.566   3.779 -0.8602 -0.9997 -0.4659
35821SOL    HW212021   9.110  11.473   3.724  0.3712  0.1907 -0.1587
35822SOL     OW12022   2.626  10.719   5.267 -0.1274 -0.2931  0.3194
35822SOL    HW112023   2.691  10.756   5.206 -1.6023  0.0835 -1.1077
35822SOL    HW212024   2.677  10.693   5.344  1.5694  0.8687 -0.3453
35823SOL     OW12025   2.059   7.542   8.990  0.2260 -0.2209  0.6724
35823SOL    HW112026   1.999   7.524   9.062  0.5008  0.2319  1.0163
35823SOL    HW212027   2.071   7.636   8.992  1.2711 -0.3515  0.8649
35824SOL     OW12028   0.859   0.536  10.900  0.1173 -0.4043 -0.5429
35824SOL    HW112029   0.898   0.530  10.987  0.2282 -2.7819 -0.6791
35824SOL    HW212030   0.766   0.551  10.915  0.0665 -1.2313  0.0265
35825SOL     OW12031   4.225   4.005  10.155  0.6413 -0.0765  0.5110
35825SOL    HW112032   4.300   3.946  10.165 -0.9266 -1.8887  2.6265
35825SOL    HW212033   4.156   3.965  10.208 -1.4031  2.2612 -0.2024
35826SOL     OW12034  11.751   6.580   1.697  0.1694 -0.1630 -0.0268
35826SOL    HW112035  11.819   6.536   1.646 -0.0173 -0.4331 -0.0456
35826SOL    HW212036  11.791   6.596   1.783  0.0173 -0.9982  0.2146
35827SOL     OW12037   0.087   6.148  11.920 -0.3834 -0.3499  0.2321
35827SOL    HW112038   0.103   6.238  11.947  1.5609 -0.4019 -0.5832
35827SOL    HW212039   0.115   6.095  11.995  2.0857 -0.3652 -0.5924
35828SOL     OW12040   3.323  10.230  11.858 -0.5732  0.8303  0.4910
35828SOL    HW112041   3.243  10.258  11.902 -0.1453  0.9823  1.1945
35828SOL    HW212042   3.296  10.156  11.803 -1.5137  1.9468 -0.5839
35829SOL     OW12043   2.635   7.591  10.333  0.2318  0.2944 -0.1244
35829SOL    HW112044   2.549   7.624  10.360  0.5478 -0.3164  1.8242
35829SOL    HW212045   2.636   7.500  10.364  1.9195  0.5798  0.8026
35830SOL     OW12046   3.671   0.965   8.640 -0.1233  0.3006  0.4584
35830SOL    HW112047   3.737   0.982   8.572  0.8380 -1.4605  0.8985
35830SOL    HW212048   3.675   1.042   8.696  0.9274  0.6364 -0.0408
35831SOL     OW12049   0.095   2.918   6.282  0.1850  0.6707  0.0434
35831SOL    HW112050   0.051   2.835   6.299 -1.2998  1.0495 -1.5997
35831SOL    HW212051   0.101   2.922   6.186 -0.2250  2.6421  0.0584
35832SOL     OW12052   8.168   2.272   7.514  0.3298 -0.0829  0.6110
35832SOL    HW112053   8.242   2.286   7.573  0.1199  0.2739  0.7931
35832SOL    HW212054   8.170   2.179   7.495  1.5039  0.0917 -0.2777
35833SOL     OW12055   5.240   8.197   9.518 -0.6594 -0.5824 -0.1407
35833SOL    HW112056   5.165   8.246   9.553 -0.8297 -0.9837  0.0603
35833SOL    HW212057   5.209   8.107   9.511 -0.7951 -0.4556 -1.7801
35834SOL     OW12058   4.734   2.656   4.094 -0.1131  0.2656  0.0702
35834SOL    HW112059   4.782   2.724   4.140  0.5946  0.1968 -0.5502
35834SOL    HW212060   4.758   2.574   4.139 -1.0205  0.4204  0.8610
35835SOL     OW12061  11.967   3.239  11.866 -0.0815  0.1664 -0.7906
35835SOL    HW112062  11.875   3.264  11.866 -0.5921 -1.5658 -1.1265
35835SOL    HW212063  11.977   3.182  11.942  0.7160  0.3640 -0.7362
35836SOL     OW12064   1.379   7.071  10.485  0.1707  0.4036 -0.4756
35836SOL    HW112065   1.315   7.120  10.536  0.9718  1.4038 -0.4110
35836SOL    HW212066   1.460   7.121  10.492  0.9863 -0.8361 -0.5400
35837SOL     OW12067   4.720   8.276  10.436  0.0512 -0.1854  0.0073
35837SOL    HW112068   4.653   8.209  10.454 -0.3286  0.1881 -0.0101
35837SOL    HW212069   4.778   8.235  10.372 -0.2187 -0.4756 -0.0528
35838SOL     OW12070   5.821   6.578   5.119 -0.1550  0.3040  0.2306
35838SOL    HW112071   5.868   6.622   5.049  1.3235 -1.3584  0.1319
35838SOL    HW212072   5.746   6.536   5.076  0.2997 -0.0510 -0.2129
35839SOL     OW12073  10.203   7.608  10.135  0.7631 -0.1470 -1.0973
35839SOL    HW112074  10.172   7.583  10.048 -0.1611 -1.9925 -0.3048
35839SOL    HW212075  10.126   7.602  10.192  1.3796  0.8329 -0.1169
35840SOL     OW12076  11.000   8.733   5.245  0.3771  0.0857 -0.0947
35840SOL    HW112077  11.021   8.747   5.338  0.4383 -1.7493  0.2130
35840SOL    HW212078  10.934   8.798   5.225  0.2398  0.4036  1.2935
35841SOL     OW12079   2.486   9.371   2.144  0.6119 -0.0434  0.4485
35841SOL    HW112080   2.491   9.449   2.199 -0.0768 -0.1442  0.6616
35841SOL    HW212081   2.409   9.385   2.089  1.1462 -0.0622 -0.3188
35842SOL     OW12082   1.520   4.144  10.088 -0.0099 -0.4137 -0.0919
35842SOL    HW112083   1.587   4.188  10.036 -0.5291 -1.0826 -1.3682
35842SOL    HW212084   1.528   4.183  10.175  1.0138  0.5892 -0.6076
35843SOL     OW12085   6.077   6.773   9.802  0.0493  0.1451 -0.9229
35843SOL    HW112086   5.989   6.791   9.835  0.6458 -1.0367  1.6394
35843SOL    HW212087   6.132   6.838   9.846  0.7571 -0.8176 -0.3458
35844SOL     OW12088   2.200   9.200   0.109 -0.8060  0.5612  0.3517
35844SOL    HW112089   2.188   9.260   0.183  0.7020 -0.2566  1.2884
35844SOL    HW212090   2.158   9.119   0.138 -0.9042  0.4827 -0.0151
35845SOL     OW12091   3.291   8.251   9.276 -0.0028 -0.3080  0.0773
35845SOL    HW112092   3.372   8.303   9.281 -1.4171  1.9777  0.3555
35845SOL    HW212093   3.322   8.161   9.263  2.6053  0.3562  0.9782
35846SOL     OW12094   0.707   9.463   6.597 -0.2425 -0.2731 -0.5324
35846SOL    HW112095   0.644   9.408   6.644 -0.4629  1.1047  0.8602
35846SOL    HW212096   0.770   9.401   6.561 -0.0592 -1.4386  1.6320
35847SOL     OW12097   1.152  11.633   5.318 -0.7653 -0.3058 -0.7754
35847SOL    HW112098   1.155  11.614   5.224 -0.0856  0.2536 -0.8748
35847SOL    HW212099   1.222  11.580   5.355 -0.5151  0.0719 -0.7019
35848SOL     OW12100   2.658   0.063   5.860  0.3247  0.7046  0.6342
35848SOL    HW112101   2.748   0.065   5.891 -0.5989  1.0017  3.5274
35848SOL    HW212102   2.657   0.122   5.785  1.9752  2.9179  2.2484
35849SOL     OW12103   7.997   8.667   6.621 -0.8212 -0.3426  0.8277
35849SOL    HW112104   8.056   8.700   6.553  1.1544 -1.4092  1.9251
35849SOL    HW212105   7.909   8.685   6.588  0.0915  0.3798 -1.3701
35850SOL     OW12106  10.749   7.511   2.283  0.0581 -0.3762  0.3360
35850SOL    HW112107  10.686   7.443   2.308  0.1412 -0.1397  1.2413
35850SOL    HW212108  10.834   7.468   2.287  0.0146 -0.5141 -0.2024
35851SOL     OW12109   0.616   1.028  11.437  0.0497  0.0382 -0.0551
35851SOL    HW112110   0.634   0.936  11.454  1.5511  0.2651 -0.3327
35851SOL    HW212111   0.589   1.063  11.522  2.9944  0.1271  0.9452
35852SOL     OW12112   5.303   3.938   0.665 -0.3764 -0.2130  0.4010
35852SOL    HW112113   5.311   4.013   0.724 -0.4529 -0.4621  0.7289
35852SOL    HW212114   5.247   3.877   0.712 -1.5962  0.1633 -0.4970
35853SOL     OW12115  10.913   6.400   3.874  0.1453 -0.0680 -0.7292
35853SOL    HW112116  10.937   6.479   3.824 -0.1998  0.3696 -0.2085
35853SOL    HW212117  10.823   6.416   3.903 -0.4893 -1.3115 -1.8948
35854SOL     OW12118   4.920   9.152   1.887  0.6848  0.2703  0.5616
35854SOL    HW112119   4.858   9.086   1.918  2.9869 -1.4924  1.6661
35854SOL    HW212120   4.960   9.112   1.809 -0.7000  2.1309 -1.2242
35855SOL     OW12121   0.726   8.987  11.563 -0.5111 -0.4228  0.0653
35855SOL    HW112122   0.732   8.982  11.659  0.4557  0.0169  0.0465
35855SOL    HW212123   0.643   8.945  11.542 -3.1076  3.4158  1.4480
35856SOL     OW12124   7.048   3.469   8.462 -0.1451  0.3690 -0.0615
35856SOL    HW112125   7.037   3.550   8.512  0.8493  1.5946 -1.7140
35856SOL    HW212126   7.003   3.487   8.379 -0.2452 -0.9353 -0.3054
35857SOL     OW12127   5.303   0.158   1.366  0.2282 -0.3360 -0.4867
35857SOL    HW112128   5.331   0.150   1.457  0.1133 -0.1356 -0.4343
35857SOL    HW212129   5.318   0.070   1.329  0.2965 -0.4111 -0.2829
35858SOL     OW12130   4.583   4.205  10.980  0.1520  0.3191 -0.2538
35858SOL    HW112131   4.637   4.252  11.044  1.7193 -1.4308 -0.2336
35858SOL    HW212132   4.588   4.259  10.901  2.4031 -0.0619 -0.4124
35859SOL     OW12133   4.067   6.008   7.013 -0.4976  0.1227  0.0169
35859SOL    HW112134   4.040   5.988   7.103 -1.2378 -0.2403 -0.2788
35859SOL    HW212135   4.024   5.941   6.960  1.1706 -0.6273 -0.4684
35860SOL     OW12136   0.066   3.893  11.371 -0.0227  0.3332 -0.0258
35860SOL    HW112137   0.081   3.905  11.278  0.5128  0.1732  0.0318
35860SOL    HW212138   0.005   3.819  11.377  0.1597  0.1611 -0.2451
35861SOL     OW12139  11.158  10.421   6.547  0.1173  0.6065  0.1505
35861SOL    HW112140  11.107  10.501   6.533  2.2129  1.9785 -0.0423
35861SOL    HW212141  11.200  10.433   6.632 -1.3450 -1.3840  1.2459
35862SOL     OW12142   3.566   5.292   3.715 -0.4112 -0.4101  0.1653
35862SOL    HW112143   3.598   5.227   3.652  0.1220  0.5739 -0.6013
35862SOL    HW212144   3.620   5.369   3.700 -0.3785 -0.0843  1.7245
35863SOL     OW12145   9.669   4.206   6.937  0.0895 -0.1004  0.4058
35863SOL    HW112146   9.664   4.199   7.032 -0.6114 -2.3115  0.2779
35863SOL    HW212147   9.578   4.222   6.910  0.5037  2.0418  0.1475
35864SOL     OW12148   1.138   0.784   1.795  0.4558  0.1168  0.3658
35864SOL    HW112149   1.114   0.747   1.879  1.0626  0.0670  0.5222
35864SOL    HW212150   1.059   0.776   1.741  0.2004 -0.2432  0.7910
35865SOL     OW12151  11.010  10.267   4.270 -0.2063 -0.5093 -0.4916
35865SOL    HW112152  10.923  10.248   4.306 -0.5989  0.7707 -0.6909
35865SOL    HW212153  11.066  10.196   4.302 -0.9226 -0.3572  1.2069
35866SOL     OW12154  11.099  11.807   4.103  0.5143  0.1176 -0.0455
35866SOL    HW112155  11.108  11.901   4.116 -0.9878  0.3797 -0.7064
35866SOL    HW212156  11.171  11.783   4.045  1.2478  0.7376  0.5917
35867SOL     OW12157  10.217   1.493   1.566 -0.6743 -0.3062 -0.5329
35867SOL    HW112158  10.168   1.575   1.571  0.1132  0.1839 -0.6028
35867SOL    HW212159  10.272   1.503   1.488  1.0349  0.0283  0.6636
35868SOL     OW12160   5.395   7.583   6.755 -0.1625 -0.3759 -0.4344
35868SOL    HW112161   5.308   7.559   6.722 -0.7175  0.6635  0.2061
35868SOL    HW212162   5.412   7.520   6.825  0.1967 -1.4116 -1.4215
35869SOL     OW12163   8.062   6.392  10.937  0.2107 -0.5296 -0.2285
35869SOL    HW112164   8.015   6.313  10.965 -0.2635  0.0006  0.5057
35869SOL    HW212165   8.115   6.415  11.013  0.7857 -0.4608 -0.6486
35870SOL     OW12166  10.359   8.349   4.177  0.1437 -0.0025 -0.3652
35870SOL    HW112167  10.399   8.267   4.147 -0.6544  0.3855 -2.6487
35870SOL    HW212168  10.432   8.410   4.184  0.4363 -0.2762 -0.9647
35871SOL     OW12169   1.838   4.050   7.228  0.0900  0.3925 -0.2112
35871SOL    HW112170   1.815   4.119   7.290 -1.4959 -1.2113  1.1152
35871SOL    HW212171   1.818   4.087   7.142 -0.2028  1.7440  0.4076
35872SOL     OW12172   3.873   9.569   8.356  0.6413  0.3166  0.0351
35872SOL    HW112173   3.795   9.560   8.301 -1.5989  0.0932  2.9957
35872SOL    HW212174   3.918   9.485   8.347  0.3987  0.3238 -1.4886
35873SOL     OW12175   0.905   4.377  11.993  0.3697 -0.0193  0.3867
35873SOL    HW112176   0.859   4.293  11.992  1.5418 -0.7036 -1.1211
35873SOL    HW212177   0.863   4.429  11.925  2.0533 -0.8464 -1.3771
35874SOL     OW12178   0.401  11.866   3.270 -0.3325 -0.0200  0.1394
35874SOL    HW112179   0.340  11.855   3.343 -1.1887 -1.3280 -0.7279
35874SOL    HW212180   0.345  11.879   3.194  0.4393 -1.3392 -0.6931
35875SOL     OW12181   5.610   7.028   8.089  0.2812  0.5100 -0.3470
35875SOL    HW112182   5.538   7.002   8.146  0.7382  1.7794  0.8430
35875SOL    HW212183   5.616   7.123   8.098  1.5861  0.5186 -1.0394
35876SOL     OW12184   9.397   2.734   9.811 -0.5852  0.3035  0.3843
35876SOL    HW112185   9.305   2.709   9.823 -0.5953 -0.2283 -0.6985
35876SOL    HW212186   9.420   2.700   9.725  0.3837  1.1809  0.2753
35877SOL     OW12187   0.953  11.606   0.615 -0.0514  0.0272  0.7488
35877SOL    HW112188   1.032  11.659   0.628  0.8424 -1.3184  1.0695
35877SOL    HW212189   0.939  11.563   0.700 -1.9411  1.2707  1.1106
35878SOL     OW12190   7.835   8.436  10.687  0.0410 -0.2160 -0.2181
35878SOL    HW112191   7.919   8.426  10.732 -0.5823  0.4681  1.1730
35878SOL    HW212192   7.843   8.382  10.609  1.2420 -1.3505  0.6400
35879SOL     OW12193   3.206  10.566   7.457  0.2214 -0.2483 -0.1173
35879SOL    HW112194   3.189  10.508   7.383  0.5225 -1.0314  0.4179
35879SOL    HW212195   3.202  10.654   7.420 -3.6577 -0.3377 -0.3660
35880SOL     OW12196   8.994   9.013   9.670  0.3234 -0.2068 -0.0290
35880SOL    HW112197   8.964   8.927   9.699 -2.0634  0.5435 -0.1146
35880SOL    HW212198   8.918   9.070   9.680  1.9549  2.0340  0.4520
35881SOL     OW12199   0.474   6.604   3.272 -0.2284  0.3488 -0.5413
35881SOL    HW112200   0.415   6.661   3.225 -1.9886 -0.9225  0.0089
35881SOL    HW212201   0.420   6.529   3.298  1.2544 -0.1881  1.2841
35882SOL     OW12202   4.905   1.780  11.117 -0.2079 -0.2863  0.0425
35882SOL    HW112203   4.957   1.771  11.197  0.8301  0.0307 -0.5738
35882SOL    HW212204   4.956   1.839  11.061 -1.1807 -0.0593 -0.6410
35883SOL     OW12205   4.735   2.785   8.883 -0.3403  0.4761 -0.3401
35883SOL    HW112206   4.687   2.861   8.913  0.7977  0.8355  0.6637
35883SOL    HW212207   4.710   2.715   8.944  1.6587  1.1036  1.3260
35884SOL     OW12208  11.571   0.367   9.351  0.2726  0.7148 -0.6740
35884SOL    HW112209  11.547   0.435   9.413  1.6902  0.4154  0.2656
35884SOL    HW212210  11.510   0.378   9.278 -3.1085 -0.4646  1.7301
35885SOL     OW12211  11.981   8.967   3.057  1.0338  0.1120 -0.1546
35885SOL    HW112212  11.894   9.005   3.040  0.0406 -1.4075  1.2140
35885SOL    HW212213  12.012   9.012   3.136 -1.0607 -3.0381  2.7492
35886SOL     OW12214   1.279   2.292  11.201  0.5988  0.5898  0.3436
35886SOL    HW112215   1.257   2.340  11.281 -1.2852 -2.1972  1.6335
35886SOL    HW212216   1.224   2.214  11.204  1.2090 -0.1301 -3.2161
35887SOL     OW12217   5.989   2.719  10.626  0.1334 -0.0375 -0.8709
35887SOL    HW112218   6.042   2.798  10.636  0.1701 -0.1279 -0.3467
35887SOL    HW212219   5.937   2.715  10.706  1.8970 -1.8645  0.2734
35888SOL     OW12220   2.279   8.099   6.949 -0.6945 -0.4983 -0.1351
35888SOL    HW112221   2.301   8.148   7.028 -1.1157  0.1485 -0.4119
35888SOL    HW212222   2.336   8.136   6.882 -2.8699  1.5573 -0.9819
35889SOL     OW12223   5.677  11.526   2.857 -0.3089 -0.0133 -0.7264
35889SOL    HW112224   5.592  11.485   2.851  0.2998 -1.5932  0.7410
35889SOL    HW212225   5.707  11.533   2.766 -0.6598 -2.4108 -1.0887
35890SOL     OW12226   7.812   8.770   0.214 -1.0251  0.8093 -0.5597
35890SOL    HW112227   7.728   8.783   0.170 -1.0621 -0.1004 -0.7982
35890SOL    HW212228   7.859   8.709   0.157 -0.6991  0.3394  0.1962
35891SOL     OW12229   9.293   2.456   8.904 -0.2102 -0.0281  0.5293
35891SOL    HW112230   9.271   2.421   8.817 -0.1205  0.4831  0.2992
35891SOL    HW212231   9.353   2.391   8.941 -0.9326 -0.6944  0.5681
35892SOL     OW12232   3.006   4.337   5.688 -0.8740  0.1169 -0.0426
35892SOL    HW112233   3.073   4.268   5.695  0.4653  1.4789  1.5488
35892SOL    HW212234   2.938   4.299   5.633  1.3276 -1.2517 -2.0025
35893SOL     OW12235  11.169   1.805   2.901  0.0942  0.4278 -0.2876
35893SOL    HW112236  11.131   1.796   2.814  0.6508  1.0701 -0.6094
35893SOL    HW212237  11.184   1.715   2.930  0.4142  0.2111 -1.0874
35894SOL     OW12238   5.353  11.552   7.631  0.2004 -0.4448  0.7237
35894SOL    HW112239   5.442  11.553   7.667  0.2116 -2.2227  0.8702
35894SOL    HW212240   5.359  11.602   7.550  0.9315  0.8941  1.5774
35895SOL     OW12241   7.334   7.762   0.684  0.5311  0.3610  0.1175
35895SOL    HW112242   7.322   7.669   0.702 -1.8489  0.1536 -1.9675
35895SOL    HW212243   7.358   7.801   0.768 -1.6165 -1.6571  1.7721
35896SOL     OW12244   1.339   8.048  10.710 -0.7399 -0.5368 -0.2753
35896SOL    HW112245   1.348   8.091  10.795  0.0436  1.9719 -1.5112
35896SOL    HW212246   1.362   7.957  10.726 -1.6041 -0.3550  2.3655
35897SOL     OW12247   0.480   8.753   8.535  0.0046  0.0614 -0.0546
35897SOL    HW112248   0.459   8.703   8.456  0.3890  0.5071 -0.4452
35897SOL    HW212249   0.416   8.823   8.537 -0.1681 -0.1024  0.1739
35898SOL     OW12250   3.911   4.047   4.132  0.1856  0.1663 -0.1135
35898SOL    HW112251   3.976   4.048   4.201  1.5792  1.7773 -1.3568
35898SOL    HW212252   3.953   4.001   4.059  0.5236  2.3291 -1.3722
35899SOL     OW12253   2.086   0.990   6.217  0.0818 -0.6079  0.3674
35899SOL    HW112254   2.117   1.069   6.260  0.0007 -0.5723  0.3608
35899SOL    HW212255   1.991   0.990   6.232 -0.1123 -0.0347 -0.7393
35900SOL     OW12256   8.709   6.752   1.340 -1.0016 -0.5283  0.4383
35900SOL    HW112257   8.749   6.835   1.315 -2.0105 -0.1621 -0.0012
35900SOL    HW212258   8.686   6.710   1.257  1.9998 -2.5708  0.4831
35901SOL     OW12259  10.149   9.549   8.431 -0.7024  0.5856 -0.2182
35901SOL    HW112260  10.232   9.562   8.477 -0.7206 -1.8781  0.6631
35901SOL    HW212261  10.101   9.630   8.444  1.6979  2.2673 -1.1389
35902SOL     OW12262   7.397   5.116   2.152 -0.3173 -0.1776 -0.1408
35902SOL    HW112263   7.332   5.186   2.144 -0.8065 -0.3071  2.1869
35902SOL    HW212264   7.353   5.039   2.115  0.0261  0.5549 -2.2083
35903SOL     OW12265   3.093   4.648   4.088  0.2826 -0.9228 -0.4326
35903SOL    HW112266   3.041   4.714   4.133  0.0217 -0.5881 -1.2046
35903SOL    HW212267   3.127   4.692   4.010  2.5246 -0.8666  0.5213
35904SOL     OW12268   4.487   7.735   1.159 -0.0094 -0.8893 -0.1005
35904SOL    HW112269   4.409   7.782   1.189  0.8974  0.6278 -0.0145
35904SOL    HW212270   4.560   7.777   1.205  1.0513 -0.9099 -1.6667
35905SOL     OW12271   5.146   9.649   7.602  0.1744 -0.6409  0.4573
35905SOL    HW112272   5.068   9.703   7.613 -1.3884 -2.7376  0.3570
35905SOL    HW212273   5.166   9.654   7.508 -0.3068 -0.6634  0.3510
35906SOL     OW12274   6.787   7.744   7.761  0.4704 -0.1694 -0.4745
35906SOL    HW112275   6.810   7.721   7.671 -0.0860 -2.5535 -0.0618
35906SOL    HW212276   6.694   7.725   7.768  1.1134 -3.3833  1.4481
35907SOL     OW12277   9.373   2.349   1.504  0.0293 -0.4916  0.2897
35907SOL    HW112278   9.444   2.314   1.451  0.0241 -2.1126  1.2727
35907SOL    HW212279   9.348   2.430   1.460  1.8394 -0.3617 -0.6062
35908SOL     OW12280   2.629   3.194   6.988  0.1797 -0.1789  0.3240
35908SOL    HW112281   2.621   3.287   7.007  2.9716 -0.0932  1.4084
35908SOL    HW212282   2.627   3.189   6.892 -2.0653  0.6910  0.2540
35909SOL     OW12283   9.461   7.751  11.387 -0.2563  0.1761 -0.1116
35909SOL    HW112284   9.535   7.709  11.344  1.5925  2.6005  0.4237
35909SOL    HW212285   9.475   7.735  11.481 -0.4091  0.6176 -0.0078
35910SOL     OW12286  11.618   4.323   7.197  0.3269  1.1422  0.3972
35910SOL    HW112287  11.608   4.278   7.113 -0.4241 -2.0348  1.9989
35910SOL    HW212288  11.703   4.366   7.192  1.1181 -0.4812 -1.3641
35911SOL     OW12289  11.347   6.834   5.425 -0.7074 -0.3338 -0.0788
35911SOL    HW112290  11.317   6.836   5.334  0.7732  0.4231 -0.5764
35911SOL    HW212291  11.267   6.849   5.477 -1.0874  2.6896 -1.3623
35912SOL     OW12292   3.560   0.545   5.895 -0.2700 -0.1264 -0.2564
35912SOL    HW112293   3.480   0.554   5.947 -0.0012 -0.2339  0.1865
35912SOL    HW212294   3.608   0.473   5.938 -0.5272 -0.9308 -1.2869
35913SOL     OW12295   8.276   8.300   0.701  0.3771  0.2035  0.0664
35913SOL    HW112296   8.208   8.348   0.653 -0.0787 -0.7852 -0.3015
35913SOL    HW212297   8.357   8.326   0.658  0.0681  0.1009 -0.5942
35914SOL     OW12298   1.160   5.470   1.629  0.0799 -0.0933  0.6199
35914SOL    HW112299   1.109   5.468   1.548 -0.4909  1.5691  0.8933
35914SOL    HW212300   1.099   5.437   1.696 -0.5402  1.5220  0.8804
35915SOL     OW12301   0.020   4.011   9.191 -0.3141  0.8608  0.0498
35915SOL    HW112302   0.032   4.083   9.130 -0.2955  0.6519 -0.1935
35915SOL    HW212303  -0.036   3.949   9.145  0.8548  0.0432 -0.3083
35916SOL     OW12304   8.112   9.407   7.684 -0.6019  1.1709 -0.0432
35916SOL    HW112305   8.150   9.324   7.655 -1.2235  0.9915 -0.3512
35916SOL    HW212306   8.172   9.474   7.651  0.4663  0.8141  1.0730
35917SOL     OW12307   7.371  11.340   2.944 -0.8897 -0.1410 -0.0496
35917SOL    HW112308   7.418  11.415   2.980 -1.7058  0.4841 -0.2792
35917SOL    HW212309   7.366  11.358   2.850  0.9062 -1.5818 -0.4993
35918SOL     OW12310   0.630  10.859   0.744 -0.5671 -0.1739 -0.3219
35918SOL    HW112311   0.713  10.831   0.784 -0.5442 -0.9331 -0.8820
35918SOL    HW212312   0.565  10.848   0.813 -0.4981 -1.2960 -0.4151
35919SOL     OW12313   7.475   8.537   7.071 -0.4581  0.0603 -0.1809
35919SOL    HW112314   7.559   8.491   7.075 -0.1392  0.5198 -1.2568
35919SOL    HW212315   7.441   8.517   6.984 -0.5927  1.3716 -0.4505
35920SOL     OW12316  11.304   2.945   5.344  0.2349 -0.3126 -0.4673
35920SOL    HW112317  11.390   2.940   5.385 -0.1811 -0.2204  0.4321
35920SOL    HW212318  11.244   2.965   5.416 -0.7173 -1.6267 -0.8584
35921SOL     OW12319   9.552  11.084  10.903 -0.3727  1.0734 -0.1145
35921SOL    HW112320   9.632  11.084  10.850  0.1463 -2.7469  0.3547
35921SOL    HW212321   9.481  11.095  10.840  0.3403 -1.1714 -1.4201
35922SOL     OW12322  10.595   2.339  10.325  0.2528  0.0114 -0.1341
35922SOL    HW112323  10.690   2.329  10.324  0.4588  1.6088  0.2032
35922SOL    HW212324  10.579   2.425  10.286 -1.0141  0.0320  0.3664
35923SOL     OW12325   0.291   6.550  10.556 -0.2141  0.5057 -0.0361
35923SOL    HW112326   0.248   6.480  10.603 -1.5584  0.3528 -1.4204
35923SOL    HW212327   0.314   6.512  10.471 -0.2348  1.5072 -0.5104
35924SOL     OW12328   5.551  10.485   5.066 -0.0057  0.3074 -0.2690
35924SOL    HW112329   5.460  10.515   5.068 -0.3693 -0.7813  0.1426
35924SOL    HW212330   5.555  10.413   5.129  0.5505 -1.2245 -1.9325
35925SOL     OW12331   7.070   1.039   2.154  0.1102  0.2252 -0.2936
35925SOL    HW112332   6.975   1.038   2.168 -0.0126 -1.4775 -1.0103
35925SOL    HW212333   7.084   0.986   2.075  1.7942 -1.2850  0.9188
35926SOL     OW12334   6.784   8.390   2.871 -0.3048  0.4842 -0.2449
35926SOL    HW112335   6.703   8.349   2.902 -1.4824  2.2875 -0.7315
35926SOL    HW212336   6.845   8.380   2.944 -2.1559  2.2856  1.7133
35927SOL     OW12337   1.636   1.533   3.426 -0.4617 -0.0474  0.3216
35927SOL    HW112338   1.686   1.469   3.375 -1.4316 -1.4959  1.1013
35927SOL    HW212339   1.664   1.618   3.393  0.8645 -0.8746 -0.7748
35928SOL     OW12340   2.290  11.408  11.579 -0.4301  0.0733  0.2854
35928SOL    HW112341   2.318  11.421  11.670 -0.0810 -2.9383  0.7173
35928SOL    HW212342   2.351  11.460  11.527  1.5815 -0.8371  1.6238
35929SOL     OW12343   2.766   2.822   5.984  0.1885 -0.3639 -0.3304
35929SOL    HW112344   2.766   2.741   5.934  2.5334 -0.2224 -0.6628
35929SOL    HW212345   2.828   2.879   5.938 -1.0482  1.4676  0.1644
35930SOL     OW12346   1.067   8.903   3.706  0.6063 -0.2061  0.4465
35930SOL    HW112347   1.026   8.981   3.743  0.7061 -0.5136  1.2320
35930SOL    HW212348   1.135   8.936   3.648 -1.9033  0.3892 -2.4035
35931SOL     OW12349   5.364   4.815   8.804 -0.3861  0.8578  0.5166
35931SOL    HW112350   5.310   4.860   8.739 -0.9821 -0.7925 -0.1923
35931SOL    HW212351   5.439   4.781   8.754 -1.3672 -1.3177  0.4041
35932SOL     OW12352   9.507   5.697   3.548 -0.4606  0.4498 -0.1529
35932SOL    HW112353   9.439   5.749   3.590 -1.8048 -1.9605  0.7976
35932SOL    HW212354   9.563   5.668   3.619 -0.4571 -0.4152 -0.4977
35933SOL     OW12355   2.602   3.850   2.769 -0.5348 -0.0367 -0.0695
35933SOL    HW112356   2.549   3.798   2.708 -0.4145  0.3174 -0.4894
35933SOL    HW212357   2.616   3.793   2.844 -2.7922  0.3709  0.7257
35934SOL     OW12358   0.519   8.678   4.552 -0.2419  0.0642  0.3559
35934SOL    HW112359   0.524   8.669   4.456  0.5478 -1.9672  0.5433
35934SOL    HW212360   0.582   8.748   4.572  0.0532  0.0794 -0.5485
35935SOL     OW12361  11.168   6.698   8.759 -0.4274 -0.3552 -0.0574
35935SOL    HW112362  11.239   6.678   8.698 -0.0171  0.9110 -0.0131
35935SOL    HW212363  11.108   6.624   8.750  0.3440 -0.9014 -0.9123
35936SOL     OW12364   6.017   2.870   8.797 -0.4864  0.2112  0.1039
35936SOL    HW112365   5.943   2.862   8.737  0.7219  2.0939 -1.7835
35936SOL    HW212366   5.978   2.868   8.885 -2.5835 -0.3212 -0.7930
35937SOL     OW12367   2.312   6.674   9.703 -0.2604  0.2426 -0.1320
35937SOL    HW112368   2.259   6.656   9.625 -0.7712 -0.1333  0.2891
35937SOL    HW212369   2.381   6.607   9.701 -1.0936 -0.6659  0.4680
35938SOL     OW12370   6.108  10.433   6.010 -0.0760  0.7182  0.2926
35938SOL    HW112371   6.106  10.519   5.967  0.9996  1.2767  1.3087
35938SOL    HW212372   6.028  10.390   5.980  0.4160  1.2126 -1.9545
35939SOL     OW12373   0.678   0.283   4.297  0.3098 -0.2778 -0.1158
35939SOL    HW112374   0.645   0.367   4.327 -0.1277 -0.6119  0.3600
35939SOL    HW212375   0.680   0.291   4.202  0.8121  0.4653 -0.0502
35940SOL     OW12376   1.351   8.688   0.672  0.4321  0.9905  0.3622
35940SOL    HW112377   1.291   8.745   0.624 -0.1785  0.7417  0.8350
35940SOL    HW212378   1.356   8.726   0.760  1.9790  1.7702 -0.0147
35941SOL     OW12379   3.065   6.429   3.300  0.1815 -0.9343 -0.3425
35941SOL    HW112380   3.099   6.343   3.326 -0.2103 -0.0826  3.7105
35941SOL    HW212381   3.142   6.486   3.302 -0.0768 -0.5926  0.4658
35942SOL     OW12382   9.462  11.979  11.422  0.2797 -0.0327 -0.3597
35942SOL    HW112383   9.537  11.920  11.418 -0.7676 -1.3446 -1.9513
35942SOL    HW212384   9.470  12.023  11.507  1.2452 -2.2619  0.7662
35943SOL     OW12385  11.742  11.848   0.092  0.3615 -0.5285 -0.3788
35943SOL    HW112386  11.738  11.754   0.076  0.5759 -0.8266  1.1329
35943SOL    HW212387  11.803  11.857   0.166  0.0944  0.7609 -0.2921
35944SOL     OW12388   7.629   4.906   8.263  0.5370 -0.3718 -0.8587
35944SOL    HW112389   7.652   4.815   8.243 -0.3605 -0.5667 -1.0584
35944SOL    HW212390   7.583   4.902   8.347 -1.8854 -0.4968 -2.0963
35945SOL     OW12391   6.926   2.400   0.587  0.4479  0.0125 -0.0086
35945SOL    HW112392   6.920   2.466   0.518  3.8822  0.1276 -0.3634
35945SOL    HW212393   6.930   2.451   0.668  0.2382  0.0626 -0.0281
35946SOL     OW12394   7.939   0.179   5.102  0.2367  0.0962 -0.2020
35946SOL    HW112395   8.006   0.138   5.157 -1.4977 -0.5266  1.5594
35946SOL    HW212396   7.865   0.119   5.105 -1.7848  2.4735  1.0992
35947SOL     OW12397  11.746   4.332   1.489  0.2485  0.7347 -0.1717
35947SOL    HW112398  11.680   4.298   1.429  0.8553  0.7328 -0.8428
35947SOL    HW212399  11.785   4.255   1.529 -0.1228  0.7345  0.1971
35948SOL     OW12400   7.420   9.216   4.086 -0.4706  0.5978  0.1086
35948SOL    HW112401   7.444   9.303   4.119 -1.6245  1.1376 -0.4037
35948SOL    HW212402   7.478   9.204   4.010  0.5159  0.3876  0.8707
35949SOL     OW12403   0.880   8.052   7.722 -0.0336  0.1501 -0.5677
35949SOL    HW112404   0.963   8.037   7.677  0.5086 -0.5060  0.5955
35949SOL    HW212405   0.825   7.978   7.697  0.8533 -1.1434  1.1169
35950SOL     OW12406   4.461   9.254   9.477  0.1164 -0.3948 -0.6933
35950SOL    HW112407   4.479   9.344   9.449 -0.8337 -0.0003 -0.0951
35950SOL    HW212408   4.419   9.213   9.402 -0.1014 -0.1130 -0.7278
35951SOL     OW12409   2.087   6.306   6.356 -0.2529 -0.2974  0.1982
35951SOL    HW112410   2.124   6.230   6.400 -0.1704 -1.0509 -1.1296
35951SOL    HW212411   2.014   6.272   6.306  0.8443  0.1484 -1.7993
35952SOL     OW12412   1.237   7.356   8.632 -0.8707 -0.2646 -0.1299
35952SOL    HW112413   1.229   7.436   8.684 -2.8164 -0.2506 -0.3812
35952SOL    HW212414   1.234   7.386   8.541  0.2929 -0.4806 -0.2549
35953SOL     OW12415   3.559   6.757   8.333 -0.6818 -0.3222 -0.0103
35953SOL    HW112416   3.607   6.675   8.331 -0.0598  0.0480 -1.8288
35953SOL    HW212417   3.626   6.825   8.338 -1.1829  0.1201  1.3300
35954SOL     OW12418   9.823   9.992   3.454  0.5231  0.1226  0.2287
35954SOL    HW112419   9.801  10.029   3.368 -1.1414 -0.6154  0.2967
35954SOL    HW212420   9.899   9.935   3.436  0.4244  0.2520 -0.6792
35955SOL     OW12421   6.533   8.488  12.051 -0.6179  0.2032 -0.5152
35955SOL    HW112422   6.495   8.574  12.070 -2.2001 -0.8531  1.3613
35955SOL    HW212423   6.622   8.493  12.087 -1.1376  0.6496  0.7602
35956SOL     OW12424   7.888   7.120   2.903 -1.1990 -0.4461 -0.2964
35956SOL    HW112425   7.863   7.105   2.994  0.6138  2.9988  0.9715
35956SOL    HW212426   7.855   7.207   2.883 -1.8212 -1.2331 -3.1196
35957SOL     OW12427   6.787   5.630   7.104  0.1104 -0.1429 -0.0279
35957SOL    HW112428   6.845   5.555   7.089 -0.4764 -0.3466 -1.4672
35957SOL    HW212429   6.702   5.600   7.072 -0.4708  0.6350  0.7642
35958SOL     OW12430   7.153   3.131   1.134 -0.2480  0.2346  0.0298
35958SOL    HW112431   7.147   3.225   1.151 -0.8685  0.2066 -0.0127
35958SOL    HW212432   7.212   3.123   1.060 -0.0147  0.5742  0.1788
35959SOL     OW12433   4.064   0.801   1.105 -0.2553 -0.9435 -0.2496
35959SOL    HW112434   4.098   0.712   1.109  1.1265 -0.4862 -0.8588
35959SOL    HW212435   4.067   0.832   1.196  0.4732 -1.1093 -0.2103
35960SOL     OW12436   4.112   0.740   5.592 -0.4489  0.0611 -0.5469
35960SOL    HW112437   4.053   0.702   5.526  0.8421 -0.4519 -1.4475
35960SOL    HW212438   4.197   0.703   5.572  0.0400  0.0679  1.3004
35961SOL     OW12439   5.228   1.275   9.610 -0.0854  0.0857 -0.0010
35961SOL    HW112440   5.148   1.317   9.641 -0.4479  0.5994 -1.5529
35961SOL    HW212441   5.254   1.326   9.533 -0.2813 -2.2141 -1.6970
35962SOL     OW12442   2.099  11.256  11.064 -0.3237 -0.1909  0.2204
35962SOL    HW112443   2.137  11.175  11.097 -2.0124 -0.7216  0.9916
35962SOL    HW212444   2.051  11.292  11.138 -0.2789  1.0940 -0.3502
35963SOL     OW12445   8.717   3.239  10.080  0.3328 -0.0088 -0.8977
35963SOL    HW112446   8.718   3.246  10.176 -1.8907 -0.8657 -0.7623
35963SOL    HW212447   8.810   3.230  10.056  1.0449  1.4790  1.0335
35964SOL     OW12448   3.173   7.411   4.146 -0.1451 -0.2290 -0.1857
35964SOL    HW112449   3.189   7.368   4.229  0.9683 -2.0736 -1.2992
35964SOL    HW212450   3.094   7.370   4.112  0.6942 -1.1420 -1.0704
35965SOL     OW12451   3.655   8.859   1.871 -0.1368 -0.3188  0.2003
35965SOL    HW112452   3.661   8.917   1.948 -1.7623 -0.5893  0.5677
35965SOL    HW212453   3.737   8.810   1.872  0.2574  0.3185  1.2364
35966SOL     OW12454  12.078   6.380   2.729  0.2884  0.6306  0.1263
35966SOL    HW112455  12.108   6.331   2.806  0.1224  0.6163  0.1803
35966SOL    HW212456  12.012   6.440   2.763  0.8973  1.2936  0.1614
35967SOL     OW12457   7.884   3.037   0.627 -0.2520 -0.1861  0.4576
35967SOL    HW112458   7.855   3.013   0.539 -0.3786 -0.0346  0.4584
35967SOL    HW212459   7.959   2.981   0.644  1.2847  1.4411 -0.6874
35968SOL     OW12460   5.074   8.896   4.701 -0.5386  0.0576 -0.1874
35968SOL    HW112461   5.031   8.941   4.775  0.3780 -0.3139  0.5886
35968SOL    HW212462   5.022   8.816   4.689 -0.0109 -0.4585  0.8388
35969SOL     OW12463   7.147   1.921  12.090  0.4079 -0.1659  0.3670
35969SOL    HW112464   7.059   1.959  12.096  0.4648  0.1754 -0.7377
35969SOL    HW212465   7.136   1.842  12.037  0.8599  0.2226 -0.3242
35970SOL     OW12466   3.785  10.994   9.636  0.5031  0.3494 -0.0151
35970SOL    HW112467   3.852  11.048   9.593  0.3769 -0.5264 -1.3605
35970SOL    HW212468   3.762  11.044   9.715  0.4690  2.2220 -1.1330
35971SOL     OW12469   6.262   2.760   5.759 -0.9559 -0.6123  0.3445
35971SOL    HW112470   6.211   2.834   5.725  0.1303 -0.2470 -0.5415
35971SOL    HW212471   6.199   2.710   5.811 -1.2800  2.0554  2.7949
35972SOL     OW12472   6.758   2.953   4.419  0.2387 -0.0509 -0.4573
35972SOL    HW112473   6.689   2.998   4.467  1.3271 -1.4931  2.7972
35972SOL    HW212474   6.818   3.023   4.392 -0.6353  0.8793 -0.0520
35973SOL     OW12475   9.677   3.413   6.390 -0.3028 -0.0256 -0.5882
35973SOL    HW112476   9.628   3.474   6.446 -2.6216 -0.9721 -1.4479
35973SOL    HW212477   9.768   3.425   6.416 -0.6293  3.5829 -0.4819
35974SOL     OW12478   2.703   4.408   7.129 -0.6380  0.2117 -0.3985
35974SOL    HW112479   2.753   4.342   7.082 -2.3280 -1.6677  0.3139
35974SOL    HW212480   2.668   4.465   7.061 -1.0262 -1.0039 -1.2405
35975SOL     OW12481  10.198   2.324   3.285  0.0404  0.3431 -0.5776
35975SOL    HW112482  10.175   2.291   3.199 -0.2828 -0.7121 -0.1007
35975SOL    HW212483  10.292   2.340   3.281  0.0866 -0.0404 -1.0163
35976SOL     OW12484   2.915  10.647   4.481 -0.0476  0.1382  0.2197
35976SOL    HW112485   2.937  10.563   4.440 -2.2451 -0.2241 -0.3447
35976SOL    HW212486   2.877  10.623   4.566 -1.5604  0.4678 -0.3382
35977SOL     OW12487   6.653  10.743  10.922 -0.1673 -0.1143  0.0337
35977SOL    HW112488   6.611  10.806  10.863 -0.3176 -0.1480  0.1039
35977SOL    HW212489   6.587  10.726  10.989  0.3660  0.7250  0.8021
35978SOL     OW12490   9.617  10.081   0.863 -0.1691 -0.2512 -0.0389
35978SOL    HW112491   9.689  10.143   0.872  0.0883 -0.6031  0.3771
35978SOL    HW212492   9.560  10.099   0.937 -0.3041 -0.2322 -0.1479
35979SOL     OW12493   1.296   1.693   9.112 -0.8083 -0.9486  0.3619
35979SOL    HW112494   1.243   1.754   9.163 -1.8582 -0.8250 -0.8360
35979SOL    HW212495   1.386   1.723   9.125 -1.3048  1.0018 -0.3709
35980SOL     OW12496   4.444   8.966   2.109 -0.1219  0.0192  0.5729
35980SOL    HW112497   4.506   8.990   2.039 -0.3977  0.3495  0.4397
35980SOL    HW212498   4.436   8.871   2.102  0.4088 -0.0350  0.6238
35981SOL     OW12499   1.619   7.358   6.418  0.0377  0.5179 -0.2410
35981SOL    HW112500   1.593   7.267   6.403  2.6531 -0.5515  0.9731
35981SOL    HW212501   1.554   7.392   6.479 -1.2008 -0.4003 -1.0170
35982SOL     OW12502   7.718   0.901   2.035 -0.0246 -0.1938  0.4487
35982SOL    HW112503   7.708   0.953   2.114  0.8923 -1.0021  1.1151
35982SOL    HW212504   7.805   0.921   2.003  0.3680 -1.3225  0.7479
35983SOL     OW12505   1.178   9.345   3.149 -0.1164 -0.3717 -0.3292
35983SOL    HW112506   1.148   9.435   3.161  1.5623  0.4213 -1.5945
35983SOL    HW212507   1.206   9.317   3.236  0.1116  0.6445 -0.0657
35984SOL     OW12508   9.790  11.225   5.027 -0.2189  0.1208 -0.0263
35984SOL    HW112509   9.800  11.307   5.076 -2.5370 -0.1607  1.0437
35984SOL    HW212510   9.842  11.161   5.076 -0.4238  0.4032  0.5639
35985SOL     OW12511   1.949   3.129   9.918 -0.4165  0.1448  0.7187
35985SOL    HW112512   1.855   3.116   9.928 -0.5247 -0.3158 -0.7465
35985SOL    HW212513   1.957   3.211   9.870 -0.0578  0.3582  1.1401
35986SOL     OW12514   5.785   7.869   6.369  0.1486 -0.1915 -0.4993
35986SOL    HW112515   5.737   7.921   6.433  1.0403  0.6648 -0.4954
35986SOL    HW212516   5.856   7.927   6.340 -0.3111 -0.4762 -2.3741
35987SOL     OW12517  11.486  10.169  11.132  0.3570 -0.0603 -0.5271
35987SOL    HW112518  11.516  10.116  11.057 -0.1151 -1.5879  0.3177
35987SOL    HW212519  11.541  10.140  11.204 -1.6489 -1.3565  0.5652
35988SOL     OW12520  11.519   4.384   0.511 -0.2753  0.2417  0.1920
35988SOL    HW112521  11.605   4.420   0.530  0.1650 -1.2930  1.3879
35988SOL    HW212522  11.527   4.291   0.534 -1.6471 -0.3946 -1.6542
35989SOL     OW12523   9.525   0.062   4.048  0.3131  0.0744 -0.6591
35989SOL    HW112524   9.439   0.037   4.081 -0.4864  0.6948 -2.1470
35989SOL    HW212525   9.512   0.070   3.953  2.3263 -1.0699 -1.0942
35990SOL     OW12526   1.695   2.299   2.784  0.4413  0.6384  0.1694
35990SOL    HW112527   1.767   2.360   2.770 -1.3348  3.2421  1.4973
35990SOL    HW212528   1.620   2.340   2.741 -0.6384 -1.1522  0.2380
35991SOL     OW12529   1.611   0.743   1.891  0.2433 -0.1802 -0.1632
35991SOL    HW112530   1.629   0.836   1.903 -2.2860  0.5063 -0.9941
35991SOL    HW212531   1.637   0.703   1.974  1.4832  1.2260  0.1732
35992SOL     OW12532  11.037   2.764   6.385  0.1591  0.0609 -0.3567
35992SOL    HW112533  11.026   2.698   6.454 -0.4780 -0.4284 -0.9066
35992SOL    HW212534  11.113   2.816   6.413  1.2195 -1.4355 -0.3180
35993SOL     OW12535   9.096   0.622   8.316  0.0725  0.4410 -0.3921
35993SOL    HW112536   9.104   0.714   8.292 -1.4938  0.7392  0.0746
35993SOL    HW212537   9.105   0.574   8.234  0.9459  1.0013 -0.6305
35994SOL     OW12538   5.222   9.823   2.162 -0.4963  0.1396  0.9054
35994SOL    HW112539   5.313   9.849   2.173 -0.3773 -0.1019  0.4807
35994SOL    HW212540   5.206   9.829   2.068 -0.6676 -0.6518  0.8796
35995SOL     OW12541   2.749   1.477  11.758  0.0084  0.5872  0.3901
35995SOL    HW112542   2.713   1.565  11.755  1.8818  1.3877 -0.4202
35995SOL    HW212543   2.810   1.473  11.684  0.1040 -1.3339  0.5091
35996SOL     OW12544   8.928   6.399  11.323 -0.7234 -0.4733 -0.1288
35996SOL    HW112545   8.878   6.449  11.388 -0.2488  0.6878 -0.6311
35996SOL    HW212546   8.870   6.393  11.248 -0.7089 -0.5222 -0.1367
35997SOL     OW12547   6.115   9.367   7.860 -0.0081 -0.0744 -0.2216
35997SOL    HW112548   6.100   9.280   7.824 -1.7980  0.2785 -0.4526
35997SOL    HW212549   6.071   9.426   7.798  0.6053  0.9311  0.2706
35998SOL     OW12550   6.487   0.361   0.558 -0.4936  0.8043 -0.1842
35998SOL    HW112551   6.458   0.430   0.618  0.8911  0.9863  0.3035
35998SOL    HW212552   6.500   0.406   0.475 -0.5325  0.9392 -0.1172
35999SOL     OW12553   9.799   9.206   4.651  0.4650  0.4908 -0.6083
35999SOL    HW112554   9.708   9.195   4.678  0.6779  1.0073  0.3463
35999SOL    HW212555   9.800   9.289   4.603  0.6750  1.1814  0.5595
36000SOL     OW12556   1.967   4.956   9.282  0.5269 -0.3313 -0.0975
36000SOL    HW112557   1.994   4.879   9.332  0.8128 -0.3699 -0.3091
36000SOL    HW212558   2.027   5.025   9.311  0.2240 -0.1649  0.1472
36001SOL     OW12559  10.039   6.747   4.105  0.5795 -0.0268 -0.7913
36001SOL    HW112560  10.017   6.808   4.034  2.1375  0.1883 -1.1339
36001SOL    HW212561   9.965   6.687   4.110 -0.0855  0.6870 -1.8017
36002SOL     OW12562   3.551   1.129   9.374 -0.1308 -0.4094  0.5184
36002SOL    HW112563   3.568   1.167   9.288 -0.8787  1.6007  1.1917
36002SOL    HW212564   3.490   1.058   9.358  1.4254 -1.5348 -0.8263
36003SOL     OW12565   1.533   1.940   8.998 -0.2439  0.6194 -0.0550
36003SOL    HW112566   1.515   1.969   9.088  2.0624 -0.8091  0.9567
36003SOL    HW212567   1.576   2.015   8.958 -0.9054  1.1186  0.1315
36004SOL     OW12568   8.393   8.778   6.646 -1.2968  0.0130  0.3280
36004SOL    HW112569   8.459   8.828   6.599  0.0057 -1.8699  0.0297
36004SOL    HW212570   8.341   8.737   6.578 -0.4557 -1.3867  0.4907
36005SOL     OW12571  10.125   0.770   6.179 -0.0864  0.0286 -0.2383
36005SOL    HW112572  10.033   0.793   6.166  0.2041  1.8528  0.6584
36005SOL    HW212573  10.133   0.757   6.274  0.2137 -1.9508 -0.4880
36006SOL     OW12574   5.670   4.839   5.443 -1.0219 -0.1568 -0.0282
36006SOL    HW112575   5.673   4.773   5.512  0.5589 -1.7964 -1.5821
36006SOL    HW212576   5.579   4.837   5.411 -0.9042 -1.8705 -0.3113
36007SOL     OW12577   2.267   7.360   4.855  0.1207  0.0504 -0.1624
36007SOL    HW112578   2.358   7.389   4.852 -0.1155  0.8310 -0.1237
36007SOL    HW212579   2.219   7.437   4.887 -0.7225  0.0829 -1.4398
36008SOL     OW12580   8.406   8.991   9.192  0.0573 -0.6703  0.4681
36008SOL    HW112581   8.355   8.920   9.153 -0.8715  0.3082 -0.1716
36008SOL    HW212582   8.381   9.069   9.142  2.0026 -0.0917  0.2961
36009SOL     OW12583   4.703   1.438  10.638 -0.8454 -0.4646  0.1360
36009SOL    HW112584   4.747   1.405  10.717 -0.3644 -0.5116 -0.1456
36009SOL    HW212585   4.704   1.364  10.578 -1.0380 -0.3684  0.0165
36010SOL     OW12586   1.023   6.835  11.260 -0.1317  0.2378  0.5990
36010SOL    HW112587   1.073   6.917  11.256 -1.2283  0.8944 -1.0667
36010SOL    HW212588   1.074   6.773  11.209  0.2246  0.1614  1.0466
36011SOL     OW12589  10.526   7.484  10.826  0.1183  0.2177  0.5262
36011SOL    HW112590  10.609   7.448  10.793  0.4567 -0.0302  1.5951
36011SOL    HW212591  10.552   7.557  10.881 -0.2965 -0.4499  1.6383
36012SOL     OW12592   5.873   2.609   2.645  0.1632 -0.3299 -0.5037
36012SOL    HW112593   5.808   2.617   2.575  0.8644 -0.4521 -1.1777
36012SOL    HW212594   5.924   2.689   2.640  0.1212 -0.2646 -0.0121
36013SOL     OW12595   7.754   4.135  11.379  0.1843  0.3903 -0.1696
36013SOL    HW112596   7.849   4.139  11.391  0.3037 -1.2872 -0.3541
36013SOL    HW212597   7.739   4.174  11.293  0.7452  0.2761 -0.3230
36014SOL     OW12598   1.902   8.246   4.294  0.2798  0.4688 -0.3760
36014SOL    HW112599   1.812   8.244   4.327  0.5662 -1.2449  0.3837
36014SOL    HW212600   1.905   8.178   4.227  1.1785  0.0302  0.0933
36015SOL     OW12601  10.712   5.174  11.889 -0.2926 -0.2623 -0.1577
36015SOL    HW112602  10.661   5.143  11.814 -1.5055 -2.4120  1.4285
36015SOL    HW212603  10.789   5.117  11.890  0.2473  0.4585 -0.3622
36016SOL     OW12604   1.157   8.837  10.598 -0.0088 -0.0030 -0.5427
36016SOL    HW112605   1.247   8.818  10.574  0.1085 -1.1758  0.7317
36016SOL    HW212606   1.137   8.776  10.668 -1.5735  0.7153 -0.3170
36017SOL     OW12607  11.284   1.439   3.807 -0.1263  0.4505 -0.2431
36017SOL    HW112608  11.281   1.526   3.846 -3.1550 -0.0277  0.8103
36017SOL    HW212609  11.224   1.443   3.733 -0.4508 -0.7796 -0.0693
36018SOL     OW12610   0.687  11.885   0.244 -0.4164 -0.1885 -0.0101
36018SOL    HW112611   0.776  11.900   0.210 -0.6912  1.9940  0.0676
36018SOL    HW212612   0.700  11.864   0.337  0.0415 -0.2984 -0.0981
36019SOL     OW12613   4.939  10.368   6.196  0.4388  0.4738 -0.5516
36019SOL    HW112614   4.966  10.348   6.286 -1.9211  2.9455  0.8424
36019SOL    HW212615   4.844  10.355   6.196  0.1506  2.1340 -2.1906
36020SOL     OW12616  11.147   6.918   5.641 -0.2246 -0.3251  0.2701
36020SOL    HW112617  11.207   6.969   5.696 -0.2708  0.3802 -0.3106
36020SOL    HW212618  11.095   6.867   5.703  0.4644 -0.3815  0.8207
36021SOL     OW12619   1.113  11.996   9.459  0.3504  0.3997  0.4183
36021SOL    HW112620   1.094  12.001   9.553  0.4026 -0.1353  0.4612
36021SOL    HW212621   1.104  11.903   9.438  2.8645  0.1032  0.4289
36022SOL     OW12622   6.891   3.463   5.434  0.3226  0.1256 -0.2056
36022SOL    HW112623   6.913   3.438   5.344  0.7709 -0.2220  0.0002
36022SOL    HW212624   6.811   3.414   5.454 -0.1778  0.7388 -0.6551
36023SOL     OW12625   5.238   7.596   4.978  0.0513 -0.2509  0.7157
36023SOL    HW112626   5.285   7.660   4.925 -0.7371 -1.3480 -1.4405
36023SOL    HW212627   5.156   7.581   4.930  0.0734 -2.6131  1.2863
36024SOL     OW12628   6.775   5.730  10.825  0.1579 -1.0254  0.1147
36024SOL    HW112629   6.771   5.781  10.744 -0.9310  0.2157  0.9081
36024SOL    HW212630   6.722   5.780  10.888  0.2016 -2.4340  1.3346
36025SOL     OW12631   0.759   2.462   9.885  0.3460  0.4711  0.1164
36025SOL    HW112632   0.815   2.436   9.813  1.5324  1.5674  0.6047
36025SOL    HW212633   0.774   2.556   9.895 -1.2708  0.7229  0.5388
36026SOL     OW12634  10.830   7.746   7.162 -0.2362  0.6534  0.4239
36026SOL    HW112635  10.824   7.773   7.071 -1.0659 -0.8960 -0.0253
36026SOL    HW212636  10.806   7.824   7.212 -4.1344  0.4866 -0.8183
36027SOL     OW12637  11.699   2.230   3.981  0.3907 -0.2243  0.3304
36027SOL    HW112638  11.669   2.143   4.009  1.0733 -0.9486 -1.0601
36027SOL    HW212639  11.780   2.213   3.932 -0.1241  1.0530 -1.0520
36028SOL     OW12640   5.388   1.474   0.767  0.0124 -0.0409  0.0350
36028SOL    HW112641   5.418   1.485   0.677 -1.1632 -0.0691 -0.3820
36028SOL    HW212642   5.330   1.399   0.764 -0.7000  0.4693  0.6416
36029SOL     OW12643   8.571   2.270   3.060 -0.3546 -0.1903 -0.2364
36029SOL    HW112644   8.540   2.360   3.058  1.7278  0.6029 -2.5649
36029SOL    HW212645   8.638   2.269   3.128  0.7561  0.5174 -1.2742
36030SOL     OW12646   7.874   3.185   8.506 -0.4883  0.6225  0.3892
36030SOL    HW112647   7.843   3.213   8.592  0.5453  1.9610  0.3624
36030SOL    HW212648   7.821   3.236   8.444  1.9750  3.4227  0.3458
36031SOL     OW12649  12.008   9.017  10.616 -0.3099 -0.0254  0.4728
36031SOL    HW112650  12.047   9.010  10.529  1.0934  0.6628  1.0142
36031SOL    HW212651  11.933   8.956  10.614  0.9481 -1.6224 -0.5210
36032SOL     OW12652   2.558   8.381   5.841 -0.0805  0.4941 -0.2065
36032SOL    HW112653   2.573   8.422   5.926 -1.8672  0.0442  0.3504
36032SOL    HW212654   2.482   8.427   5.805 -1.7648 -1.8152  0.1654
36033SOL     OW12655   2.215   5.178   9.997 -0.1282  0.2853 -0.1055
36033SOL    HW112656   2.200   5.135   9.913 -0.6945 -1.7557  0.9791
36033SOL    HW212657   2.311   5.184  10.003 -0.0798  0.5364 -0.9014
36034SOL     OW12658   4.025   1.742   9.837  0.4079 -0.5394  0.2743
36034SOL    HW112659   4.106   1.759   9.789 -0.0678  0.1829 -0.2950
36034SOL    HW212660   3.992   1.828   9.862  0.1811 -0.8560  1.1446
36035SOL     OW12661   1.060   4.066   2.775  0.3799 -0.7241  0.1504
36035SOL    HW112662   1.001   3.999   2.740  0.4620 -1.3802  1.2342
36035SOL    HW212663   1.147   4.029   2.767  0.6362  0.0837 -1.0805
36036SOL     OW12664   8.734   5.922   7.722 -0.4410  0.0049  0.2062
36036SOL    HW112665   8.790   5.961   7.789  0.4475  0.1885 -0.6234
36036SOL    HW212666   8.724   5.991   7.656 -2.4775  0.3401  0.7832
36037SOL     OW12667   9.247   1.883  10.671 -0.7125  0.5622 -0.0512
36037SOL    HW112668   9.215   1.877  10.761  1.1890  0.1495  0.6533
36037SOL    HW212669   9.229   1.796  10.633  2.7997 -1.0988  1.5810
36038SOL     OW12670   9.444  11.186   3.586 -0.3549 -0.0376 -0.0711
36038SOL    HW112671   9.499  11.227   3.518  0.5212  1.1013  1.2568
36038SOL    HW212672   9.372  11.146   3.538 -0.6724  2.1507 -1.5917
36039SOL     OW12673   5.876   3.831   6.040  0.0952  0.2573  0.2460
36039SOL    HW112674   5.824   3.791   5.971  0.6137 -1.3699  0.7524
36039SOL    HW212675   5.918   3.757   6.084  1.2953  1.3933  1.0726
36040SOL     OW12676   8.540  10.212   5.674 -0.2097  0.2275 -0.6270
36040SOL    HW112677   8.550  10.301   5.708 -1.5511  0.0757  0.2595
36040SOL    HW212678   8.629  10.178   5.668  0.2258  1.1148  0.4343
36041SOL     OW12679   7.598   0.539   8.701 -0.2908  0.3017 -0.4631
36041SOL    HW112680   7.527   0.603   8.711  0.2805  1.0363 -0.9945
36041SOL    HW212681   7.573   0.486   8.625  0.1616  1.1716 -1.2425
36042SOL     OW12682   1.169   6.320   8.943 -0.5912  0.2941 -0.6372
36042SOL    HW112683   1.264   6.333   8.950 -0.2394 -2.4196  1.4056
36042SOL    HW212684   1.160   6.232   8.905 -2.1608 -0.6149  1.6112
36043SOL     OW12685   2.452   8.819   8.860 -0.0473 -0.6041 -0.4010
36043SOL    HW112686   2.387   8.760   8.822 -0.2733  0.3521 -1.5697
36043SOL    HW212687   2.511   8.762   8.908 -0.8208 -1.6682 -0.6846
36044SOL     OW12688   9.818   7.851  11.930  0.2335  0.2413 -0.4559
36044SOL    HW112689   9.861   7.936  11.925  1.0785 -0.2432 -2.2532
36044SOL    HW212690   9.733   7.864  11.888  0.3734  0.1993 -0.7542
36045SOL     OW12691   0.469   9.682   2.936 -0.2303  0.4538 -0.4430
36045SOL    HW112692   0.388   9.732   2.928 -0.6315 -0.3900 -2.0148
36045SOL    HW212693   0.478   9.666   3.030 -3.0223 -1.2513 -0.3706
36046SOL     OW12694   9.325  12.074   1.309  0.0764  0.5139  0.1830
36046SOL    HW112695   9.258  12.043   1.370  1.4771 -0.8792  1.0807
36046SOL    HW212696   9.329  12.007   1.241  1.8136 -0.4297  1.1416
36047SOL     OW12697   8.018   9.518   8.901 -0.5823 -0.4927 -0.0804
36047SOL    HW112698   8.022   9.430   8.939  1.1346 -1.2927 -1.9594
36047SOL    HW212699   8.001   9.503   8.808 -0.0262  1.1587 -0.4740
36048SOL     OW12700   8.847   0.823   2.901 -0.0135  0.4029  0.4305
36048SOL    HW112701   8.790   0.879   2.953  1.3187  1.5478  0.6998
36048SOL    HW212702   8.799   0.740   2.894 -1.5320  1.2077  0.9417
36049SOL     OW12703   6.016  11.465   5.857  0.4991  0.0182 -0.2511
36049SOL    HW112704   6.099  11.418   5.852  0.5436  0.1474 -0.7912
36049SOL    HW212705   6.035  11.543   5.909  0.9655  0.5602 -1.2070
36050SOL     OW12706  10.401   7.688   7.582 -0.0129  0.1729  0.0977
36050SOL    HW112707  10.481   7.638   7.598  0.3411  1.1297  1.4617
36050SOL    HW212708  10.399   7.701   7.487 -0.6079 -3.1626 -0.4995
36051SOL     OW12709   2.948   8.448  11.883 -0.2577 -0.1110  0.4260
36051SOL    HW112710   2.908   8.534  11.875 -2.1014 -0.9319  0.3103
36051SOL    HW212711   2.888   8.398  11.937 -0.0826 -1.8109 -0.8547
36052SOL     OW12712   6.450   4.118   3.471  0.7215  0.1704 -0.1837
36052SOL    HW112713   6.501   4.191   3.505  0.1745  1.4083 -1.8719
36052SOL    HW212714   6.394   4.092   3.544  1.4015  0.9767  0.6572
36053SOL     OW12715   7.792  11.126   6.138 -0.6820 -0.0254 -0.3265
36053SOL    HW112716   7.732  11.192   6.102  0.1624  1.0068  0.1151
36053SOL    HW212717   7.745  11.088   6.212 -0.8107  0.7591 -0.0015
36054SOL     OW12718  10.129   6.711   7.842  0.0641  0.1685 -0.2213
36054SOL    HW112719  10.108   6.803   7.824  0.0025  0.3809  0.8435
36054SOL    HW212720  10.043   6.668   7.849  0.0829  0.1326 -0.2083
36055SOL     OW12721  11.078   5.702   8.974 -0.7179 -0.4202  0.1167
36055SOL    HW112722  11.115   5.718   8.887  0.1625  1.7956  0.8454
36055SOL    HW212723  10.985   5.686   8.957 -0.3819 -1.0980 -1.3019
36056SOL     OW12724  10.730   8.245   6.340 -0.0932 -0.1820  0.2312
36056SOL    HW112725  10.654   8.211   6.293 -0.9993  0.0981  1.4377
36056SOL    HW212726  10.698   8.325   6.383  0.1626 -1.3125  2.6951
36057SOL     OW12727  10.510   0.223   5.083 -0.6395  0.4854 -0.2295
36057SOL    HW112728  10.511   0.132   5.052  0.5483  0.1527  0.7358
36057SOL    HW212729  10.418   0.249   5.077 -1.1613 -1.0994  0.3884
36058SOL     OW12730  11.007   2.231   3.016 -0.2052 -0.0070 -0.5088
36058SOL    HW112731  10.988   2.319   2.984  0.1459  0.4002  0.3776
36058SOL    HW212732  10.924   2.184   3.008 -0.2932  0.2858 -1.3566
36059SOL     OW12733   7.963   4.498   0.321 -0.6109  0.3683 -0.5013
36059SOL    HW112734   7.885   4.539   0.282 -0.7745  0.8570  0.3151
36059SOL    HW212735   8.027   4.495   0.250 -1.2774  0.2170 -1.1082
36060SOL     OW12736   7.503   4.022  11.748  0.6190  0.0159 -0.3363
36060SOL    HW112737   7.597   4.038  11.741  0.9033 -1.6188 -0.6201
36060SOL    HW212738   7.487   4.009  11.841  0.6477  0.3554 -0.2815
36061SOL     OW12739   0.999   7.954   4.211  0.0176  0.2864 -0.4408
36061SOL    HW112740   0.922   7.987   4.164 -0.5441  0.8915  0.8420
36061SOL    HW212741   1.074   7.995   4.167 -0.4471  0.3838 -1.1528
36062SOL     OW12742   0.812  11.212   3.866 -0.0870  0.5856 -0.7631
36062SOL    HW112743   0.725  11.211   3.827 -0.2431  2.4271 -0.5773
36062SOL    HW212744   0.801  11.169   3.951 -0.6348  0.0936 -1.0807
36063SOL     OW12745   0.138   6.178  10.222 -0.5417 -0.5269  0.6748
36063SOL    HW112746   0.068   6.232  10.260 -0.5565 -1.0802  1.4560
36063SOL    HW212747   0.140   6.099  10.276  1.2079 -0.1896  1.1683
36064SOL     OW12748   0.775   5.538   7.801  0.0118 -0.6212  0.1239
36064SOL    HW112749   0.839   5.590   7.753  0.0387 -0.5965  0.1881
36064SOL    HW212750   0.726   5.601   7.854  0.0256 -0.6581  0.1797
36065SOL     OW12751   4.885   7.754   4.180  0.3865 -0.4482  0.6532
36065SOL    HW112752   4.978   7.773   4.165 -0.0704  0.4320 -1.2990
36065SOL    HW212753   4.864   7.804   4.260  1.0680  1.1903 -0.1348
36066SOL     OW12754   7.192   5.669   6.751  0.5561  0.4108 -0.0173
36066SOL    HW112755   7.142   5.617   6.813  0.6527  1.0575  0.6176
36066SOL    HW212756   7.127   5.724   6.708  0.5037  0.0387 -0.4262
36067SOL     OW12757   5.330   8.859   0.725  0.5016 -0.2549 -0.5090
36067SOL    HW112758   5.338   8.778   0.675 -1.5990 -0.6200 -0.3662
36067SOL    HW212759   5.392   8.849   0.797  0.6275 -1.5242 -0.7709
36068SOL     OW12760   8.896   6.008   8.311 -0.0424  0.2295  0.0431
36068SOL    HW112761   8.811   6.049   8.293  0.1333  0.2430 -0.8202
36068SOL    HW212762   8.959   6.080   8.306  0.1127  0.0824 -0.1582
36069SOL     OW12763   2.354   5.972   2.757  0.2325  0.1735  0.2984
36069SOL    HW112764   2.294   6.013   2.695  2.0543  1.2363 -0.8619
36069SOL    HW212765   2.397   5.903   2.707  0.7863  0.1739  0.7598
36070SOL     OW12766   7.870   2.748   4.020 -0.5946 -0.1637 -0.0098
36070SOL    HW112767   7.788   2.748   4.070 -0.9251 -1.1174 -0.5163
36070SOL    HW212768   7.885   2.655   3.999  1.8368 -0.3588  2.0005
36071SOL     OW12769   5.858  10.422   8.662 -0.7256 -0.5214  0.1550
36071SOL    HW112770   5.880  10.446   8.752 -1.6884 -2.8741  1.1032
36071SOL    HW212771   5.783  10.477   8.640  0.8843  1.6991 -0.1219
36072SOL     OW12772   7.786  11.172  10.533 -0.5185 -0.2234 -0.0758
36072SOL    HW112773   7.804  11.212  10.448  0.1894  0.0408  0.1851
36072SOL    HW212774   7.692  11.185  10.546 -0.5222  0.2816 -0.5410
36073SOL     OW12775   6.655  11.575  11.100 -0.0338  0.6540  0.2212
36073SOL    HW112776   6.659  11.534  11.186 -3.3299  3.3230  1.8643
36073SOL    HW212777   6.585  11.528  11.053 -0.3586  1.1667  0.1861
36074SOL     OW12778   8.349   4.489   5.251  0.2443  0.2310 -0.3799
36074SOL    HW112779   8.440   4.460   5.256 -0.0657 -0.6143  1.3713
36074SOL    HW212780   8.299   4.413   5.279 -1.0580  0.5409 -1.7652
36075SOL     OW12781   0.094   7.258   9.616  0.5427 -0.2897  0.0259
36075SOL    HW112782   0.168   7.207   9.647  0.9948  0.6227  0.4976
36075SOL    HW212783   0.071   7.314   9.691 -0.6255 -0.5594 -0.1126
36076SOL     OW12784   5.621   6.653  10.962  0.3293  0.3261 -0.6250
36076SOL    HW112785   5.561   6.723  10.937  0.3512  0.2085 -1.0199
36076SOL    HW212786   5.625   6.596  10.885  0.6585  0.1326 -0.4696
36077SOL     OW12787   8.976   4.309   2.963  0.2924 -0.3641 -0.4559
36077SOL    HW112788   8.897   4.330   2.913  0.3702 -0.7810 -0.7596
36077SOL    HW212789   8.951   4.231   3.014  0.2612 -0.0360  0.0379
36078SOL     OW12790  11.743   7.849   1.875  0.1341  0.1083  0.5486
36078SOL    HW112791  11.771   7.907   1.946  0.8433  0.6507 -0.1476
36078SOL    HW212792  11.823   7.801   1.850 -0.2921 -0.6710  0.6567
36079SOL     OW12793   9.043   3.349  12.054  0.3492  0.0923  0.5824
36079SOL    HW112794   9.066   3.330  11.963  0.7271 -1.9797  1.0738
36079SOL    HW212795   8.957   3.390  12.048  0.8503  1.0278 -0.7638
36080SOL     OW12796   6.075   5.763   5.930  0.3969  0.1007  0.1965
36080SOL    HW112797   6.095   5.670   5.926  1.6324  0.1276  3.4002
36080SOL    HW212798   5.993   5.768   5.978 -0.4425  0.6650 -1.2240
36081SOL     OW12799   7.569   4.459   1.040  0.2973  0.2972  0.0565
36081SOL    HW112800   7.587   4.394   0.972  1.0749 -1.1113  1.5550
36081SOL    HW212801   7.630   4.531   1.022 -0.8231  0.8702 -1.8372
36082SOL     OW12802   7.289   6.062   6.452 -0.2615 -0.1128 -0.0983
36082SOL    HW112803   7.358   6.028   6.395 -0.3771 -2.3591  0.9935
36082SOL    HW212804   7.269   5.989   6.511 -1.4524  1.4883  1.5855
36083SOL     OW12805  11.933   0.599   6.790 -0.5913  0.3119 -0.5886
36083SOL    HW112806  11.930   0.529   6.855 -0.9896  1.1482  0.3172
36083SOL    HW212807  11.961   0.556   6.709  0.5523 -0.6299  0.2891
36084SOL     OW12808   3.180   3.449   0.148 -0.1057 -0.4073  0.2389
36084SOL    HW112809   3.192   3.398   0.228  1.5779  0.2927  0.4867
36084SOL    HW212810   3.269   3.466   0.118 -0.6803  0.7378 -0.8860
36085SOL     OW12811   3.715   5.876   4.597  0.1689 -0.9354  0.3886
36085SOL    HW112812   3.797   5.827   4.596  0.4901 -0.4273  0.9774
36085SOL    HW212813   3.694   5.891   4.505  1.1526 -0.4032  0.2384
36086SOL     OW12814   7.734   6.538   5.418  0.3942  0.0127 -0.0631
36086SOL    HW112815   7.668   6.556   5.485  1.4432 -1.0863  1.3290
36086SOL    HW212816   7.710   6.452   5.383  0.0374  0.4394 -0.9062
36087SOL     OW12817   2.103   3.711   8.630 -0.6076 -0.5510  0.2338
36087SOL    HW112818   2.090   3.774   8.559 -0.0287  1.0191  1.4556
36087SOL    HW212819   2.161   3.645   8.593  1.1219  1.1649 -0.2699
36088SOL     OW12820  10.559  10.418   3.709 -0.7164 -0.4822  0.2580
36088SOL    HW112821  10.520  10.427   3.622 -0.5338  0.0957  0.2273
36088SOL    HW212822  10.508  10.349   3.751 -1.2451 -0.3059 -0.0744
36089SOL     OW12823   0.602   0.065   4.913  0.0984  0.2890 -0.4341
36089SOL    HW112824   0.683   0.032   4.873  0.5164 -0.4572  0.9716
36089SOL    HW212825   0.557  -0.014   4.943 -0.0116  0.8430  0.9023
36090SOL     OW12826  10.854   4.890  10.222 -0.3831  0.0764  0.1479
36090SOL    HW112827  10.787   4.906  10.156  0.5918  0.6456 -0.7249
36090SOL    HW212828  10.925   4.846  10.175 -0.4836 -1.3155  1.2423
36091SOL     OW12829   6.885  10.014   7.246  0.2062 -0.5341  0.5715
36091SOL    HW112830   6.920   9.928   7.225  0.2130 -0.1228 -1.3372
36091SOL    HW212831   6.928  10.039   7.327  0.2345 -2.2964  1.1315
36092SOL     OW12832  10.242   0.181   5.322  0.0956  0.5895 -0.0622
36092SOL    HW112833  10.272   0.230   5.245 -0.1555  0.2724 -0.3628
36092SOL    HW212834  10.305   0.111   5.333  0.3683  0.8809  0.2776
36093SOL     OW12835   1.335   6.161   7.520 -0.3818 -0.3020 -0.4200
36093SOL    HW112836   1.400   6.118   7.575 -0.2017  0.2502 -0.1959
36093SOL    HW212837   1.289   6.221   7.578  0.5023  1.0478 -1.0621
36094SOL     OW12838   5.087   6.763   8.716 -0.1900  0.3098 -0.4209
36094SOL    HW112839   5.014   6.822   8.693  0.0747  0.8485  0.0899
36094SOL    HW212840   5.044   6.682   8.745 -0.5415 -0.4375 -2.8177
36095SOL     OW12841   4.225   2.287   3.652 -0.1545  0.0811  0.3762
36095SOL    HW112842   4.293   2.344   3.614  1.0366 -1.4866  0.0555
36095SOL    HW212843   4.254   2.273   3.742 -0.0759 -0.5393  0.2596
36096SOL     OW12844   5.695   2.521   5.499 -0.3362 -0.1612 -0.1676
36096SOL    HW112845   5.785   2.552   5.506 -0.2222 -0.4172 -0.4484
36096SOL    HW212846   5.654   2.547   5.581  0.7321 -2.4178  1.1973
36097SOL     OW12847  10.271  11.590   1.680  0.3292  0.8376 -0.4751
36097SOL    HW112848  10.245  11.673   1.719 -2.0676 -1.1580  2.7667
36097SOL    HW212849  10.313  11.542   1.751  1.2395 -0.9264 -2.1023
36098SOL     OW12850   2.912   8.169   0.289 -0.0924  0.7982 -0.2656
36098SOL    HW112851   2.924   8.259   0.259 -1.5750  0.6796 -1.3042
36098SOL    HW212852   2.817   8.157   0.291  0.0867 -1.0343 -1.0573
36099SOL     OW12853  10.259   3.214  11.589 -0.6142  0.2074 -0.0931
36099SOL    HW112854  10.258   3.119  11.579 -1.3642  0.2122 -0.1381
36099SOL    HW212855  10.256   3.228  11.684 -0.2291  0.1887 -0.0757
36100SOL     OW12856   8.392  10.724   7.435 -0.2712  0.0937  0.3867
36100SOL    HW112857   8.434  10.696   7.516 -2.0696  0.0561  1.3667
36100SOL    HW212858   8.432  10.809   7.415  2.2346 -1.1662 -0.3304
36101SOL     OW12859   2.905   0.313   6.519  0.0686 -0.5242 -0.4470
36101SOL    HW112860   2.848   0.242   6.549 -0.5293 -0.0677 -0.4886
36101SOL    HW212861   2.982   0.308   6.576 -1.1848  0.5539  1.4626
36102SOL     OW12862   2.132  10.546   0.461  0.0624 -0.1872 -0.0995
36102SOL    HW112863   2.196  10.594   0.513 -0.9879  0.1577  0.9220
36102SOL    HW212864   2.074  10.614   0.426 -0.4677 -0.5869 -0.0073
36103SOL     OW12865  11.258   5.753   1.891 -0.0866  0.6589 -0.2936
36103SOL    HW112866  11.337   5.699   1.888  0.1669  0.9756  0.3855
36103SOL    HW212867  11.190   5.694   1.922  0.3090  0.8321  0.9931
36104SOL     OW12868   5.458  10.284   6.462 -0.3762 -0.2437  0.2914
36104SOL    HW112869   5.446  10.190   6.446  0.0178 -0.1109 -0.8483
36104SOL    HW212870   5.523  10.288   6.531 -0.1882 -0.8075  0.1567
36105SOL     OW12871   5.598   1.074   7.444 -0.2348 -0.3047  0.1945
36105SOL    HW112872   5.579   0.993   7.397  1.6087 -0.8951  0.3606
36105SOL    HW212873   5.648   1.127   7.381  1.2301 -0.6162  1.0401
36106SOL     OW12874   7.148  10.588   4.807 -0.0082  0.0773  0.1866
36106SOL    HW112875   7.068  10.605   4.756  0.6828 -0.6822 -1.2180
36106SOL    HW212876   7.116  10.552   4.890 -1.1770  1.5516  0.4301
36107SOL     OW12877   5.307  11.483  10.607  0.0471 -0.5167 -0.2410
36107SOL    HW112878   5.398  11.506  10.629 -0.0558  0.3348 -0.6553
36107SOL    HW212879   5.295  11.396  10.645  1.3542 -1.0752 -1.0196
36108SOL     OW12880   7.421   9.315   7.091 -0.0949  0.2119  0.5299
36108SOL    HW112881   7.355   9.322   7.161 -0.0731 -1.0346  0.6832
36108SOL    HW212882   7.381   9.359   7.016 -0.6616  0.4031  0.9358
36109SOL     OW12883   0.612   8.296   3.086 -0.1203 -0.4405 -0.1937
36109SOL    HW112884   0.678   8.359   3.059  0.4324 -1.4117 -1.1939
36109SOL    HW212885   0.643   8.262   3.170 -0.0338  0.0670 -0.0206
36110SOL     OW12886   7.960   9.705   6.326  0.2199  0.1648 -0.3028
36110SOL    HW112887   7.950   9.634   6.262  0.2889 -0.0753 -0.0522
36110SOL    HW212888   7.915   9.673   6.404 -1.6161  1.2831 -0.8483
36111SOL     OW12889   2.460   3.726  11.534  0.0643  0.1849  0.2950
36111SOL    HW112890   2.551   3.711  11.557 -0.2190 -0.3889  1.0754
36111SOL    HW212891   2.445   3.674  11.455  0.4806  0.5059  0.0019
36112SOL     OW12892   1.222   0.436   9.952 -0.8079 -0.5774 -0.5729
36112SOL    HW112893   1.135   0.400   9.941 -1.5342  0.4764  1.2977
36112SOL    HW212894   1.208   0.523   9.990  1.0362 -0.4243 -0.1275
36113SOL     OW12895   4.513   2.795   7.734  0.3494 -0.0932  0.0161
36113SOL    HW112896   4.598   2.825   7.764  1.3487 -2.1638 -0.5797
36113SOL    HW212897   4.506   2.826   7.644  0.3859  0.2033  0.1138
36114SOL     OW12898  10.755   2.937   6.799  0.2862  0.2648  0.1870
36114SOL    HW112899  10.760   2.915   6.706  0.5205  0.2534  0.2026
36114SOL    HW212900  10.786   3.027   6.804 -1.8280  1.0743 -0.0476
36115SOL     OW12901   5.999  11.792  10.083  0.5031 -0.4194  0.3127
36115SOL    HW112902   6.066  11.818  10.019  0.3453 -1.7482 -0.4435
36115SOL    HW212903   5.916  11.813  10.041  0.3719 -2.0649 -0.3303
36116SOL     OW12904   6.340   9.792   0.863  0.4108  0.0631 -0.0501
36116SOL    HW112905   6.253   9.827   0.841  0.4196  0.7749  0.9860
36116SOL    HW212906   6.321   9.717   0.920  0.4771  1.1020  1.3971
36117SOL     OW12907   2.513   5.583   8.645 -0.3342  0.1145 -0.0459
36117SOL    HW112908   2.508   5.540   8.730  0.1193  0.3754  0.1114
36117SOL    HW212909   2.581   5.650   8.655 -0.3288  0.1948 -0.5886
36118SOL     OW12910   1.385   2.188   5.756 -0.0860 -0.3367  0.1970
36118SOL    HW112911   1.419   2.243   5.685  2.1289  0.5636  1.8330
36118SOL    HW212912   1.436   2.107   5.750 -0.6118 -0.6663  0.1506
36119SOL     OW12913   1.394   5.621   7.917  0.3560  0.0790 -0.2522
36119SOL    HW112914   1.411   5.543   7.865  0.2184 -0.0881 -0.0498
36119SOL    HW212915   1.455   5.613   7.991 -1.9696 -1.6200  1.6429
36120SOL     OW12916  11.466  10.565   2.587 -0.1409 -0.1137  0.4559
36120SOL    HW112917  11.544  10.613   2.616 -0.7641  1.5053 -0.4374
36120SOL    HW212918  11.492  10.473   2.590  2.2734  0.4382 -1.0662
36121SOL     OW12919  11.603  10.098   0.645  0.5318 -0.2400 -0.1189
36121SOL    HW112920  11.516  10.100   0.684 -0.1074  1.9364 -1.4887
36121SOL    HW212921  11.591  10.057   0.560  0.9421 -0.3295 -0.1369
36122SOL     OW12922   5.656  10.041   2.708  0.7286  0.1924  0.3425
36122SOL    HW112923   5.731  10.048   2.768  0.3981  0.4934  0.7294
36122SOL    HW212924   5.627   9.950   2.717  1.2610 -0.0207 -0.0722
36123SOL     OW12925   4.931   5.314   5.951  0.2093 -0.1895  0.0542
36123SOL    HW112926   4.953   5.222   5.965 -1.1018 -0.8482 -1.8608
36123SOL    HW212927   5.016   5.358   5.944  0.9181 -1.7645 -1.9363
36124SOL     OW12928   8.289   0.239   7.200  0.1945 -0.5432 -0.3667
36124SOL    HW112929   8.379   0.221   7.174 -0.3307 -2.5342 -0.9789
36124SOL    HW212930   8.272   0.328   7.169  2.1574  0.1789  0.4431
36125SOL     OW12931  10.123   2.094   1.447  0.3836  0.1914  0.4339
36125SOL    HW112932  10.144   2.095   1.540 -0.4974  1.2186  0.6444
36125SOL    HW212933  10.132   2.185   1.419 -0.0983  0.0284 -0.3045
36126SOL     OW12934   3.904   5.267   0.846 -0.2818  0.6035 -0.7153
36126SOL    HW112935   3.873   5.343   0.894 -2.2006 -1.1796  1.0915
36126SOL    HW212936   3.830   5.241   0.791 -0.5719 -1.2666  0.4721
36127SOL     OW12937   1.978  11.886   0.677 -0.4396  0.3334 -0.5453
36127SOL    HW112938   1.976  11.845   0.590  0.7976  0.4510 -0.6475
36127SOL    HW212939   2.069  11.913   0.688  0.0140 -1.8614  1.8184
36128SOL     OW12940   0.238  12.001   6.448 -0.2609 -0.1491 -0.3479
36128SOL    HW112941   0.265  11.928   6.393 -1.0471 -0.5515 -0.1965
36128SOL    HW212942   0.244  12.078   6.391  0.9759 -0.2449 -0.3893
36129SOL     OW12943   4.593  11.016   3.910 -0.1838 -0.0746 -0.5109
36129SOL    HW112944   4.599  11.067   3.991  0.5182  0.6805 -1.0169
36129SOL    HW212945   4.585  11.082   3.841 -0.4819 -0.6983 -1.0888
36130SOL     OW12946   0.707   0.314   3.644 -0.2251  0.6595 -0.2638
36130SOL    HW112947   0.650   0.305   3.720  0.6910 -1.9954  0.2181
36130SOL    HW212948   0.660   0.270   3.573  0.7580 -0.7309 -0.0903
36131SOL     OW12949   8.234   9.871   9.070 -0.0867 -0.3532 -0.5154
36131SOL    HW112950   8.173   9.807   9.108 -0.9432  0.2264 -0.9016
36131SOL    HW212951   8.240   9.847   8.978  2.0989 -1.8402 -0.0539
36132SOL     OW12952   0.430   1.505   1.105 -0.2066  0.4356 -0.6749
36132SOL    HW112953   0.498   1.552   1.057  1.4124 -0.6098  0.4816
36132SOL    HW212954   0.423   1.551   1.188 -0.8725  0.4668 -0.7385
36133SOL     OW12955   3.039   9.353   3.550  0.2090  0.0862  0.0269
36133SOL    HW112956   3.029   9.297   3.627  0.1585 -0.4460 -0.3635
36133SOL    HW212957   3.133   9.355   3.535  0.0995 -1.4462 -1.0790
36134SOL     OW12958   4.352   6.877   9.706  0.3192  0.1399 -0.1961
36134SOL    HW112959   4.362   6.933   9.628 -1.5140 -0.6958 -1.0859
36134SOL    HW212960   4.352   6.938   9.779 -3.5685  1.7032 -1.2245
36135SOL     OW12961   5.035  11.890   8.130  0.0869 -0.1314  0.0188
36135SOL    HW112962   4.995  11.872   8.045 -0.6603 -1.2325  0.5645
36135SOL    HW212963   5.019  11.810   8.181 -0.0332  0.7204  1.3856
36136SOL     OW12964   9.576   2.454   2.942  0.8854  0.2209 -0.1373
36136SOL    HW112965   9.638   2.461   2.869 -1.0763 -0.8392 -2.0064
36136SOL    HW212966   9.557   2.544   2.966  1.2762  0.6124 -1.2192
36137SOL     OW12967   1.641   2.744   1.671 -0.1142 -0.3127  0.0470
36137SOL    HW112968   1.705   2.754   1.742 -0.6202 -0.3839  0.5234
36137SOL    HW212969   1.608   2.655   1.682  0.2765 -0.5547 -0.6868
36138SOL     OW12970   1.954   0.795   2.248  0.4238 -0.4200  0.3813
36138SOL    HW112971   1.947   0.742   2.327 -0.2568 -1.5869 -0.4233
36138SOL    HW212972   1.873   0.777   2.200 -0.3692  2.2271  0.5714
36139SOL     OW12973   5.990   4.097   2.496 -0.0497  0.2511  0.0009
36139SOL    HW112974   6.000   4.031   2.427  0.5433 -1.0064  1.2421
36139SOL    HW212975   6.026   4.055   2.574 -0.5007  1.7277  1.0339
36140SOL     OW12976   6.663   4.550   4.794  0.1063 -0.0523 -0.5975
36140SOL    HW112977   6.717   4.604   4.736 -2.3597  1.7768 -1.3521
36140SOL    HW212978   6.682   4.460   4.767  1.5580  0.5814 -1.8731
36141SOL     OW12979   1.228   2.976  11.859  0.5083  0.3855 -0.1620
36141SOL    HW112980   1.249   2.935  11.943  1.4560 -1.6010 -1.3125
36141SOL    HW212981   1.134   2.996  11.866  0.0053 -1.8811  0.5456
36142SOL     OW12982   2.030   8.150  10.800 -0.1370  0.7369  0.3177
36142SOL    HW112983   2.022   8.094  10.877 -0.6263  0.5966  0.1699
36142SOL    HW212984   1.940   8.172  10.778 -0.1770 -0.9477 -1.4677
36143SOL     OW12985   5.240   9.437   9.934 -0.4345  0.1209 -0.2338
36143SOL    HW112986   5.240   9.368   9.868  0.9127 -0.3629  0.2482
36143SOL    HW212987   5.150   9.472   9.932 -0.5057 -0.0581 -2.1066
36144SOL     OW12988   3.284   6.134   8.190 -0.5165 -0.2354 -0.2987
36144SOL    HW112989   3.265   6.068   8.257  1.0540 -0.4689 -0.0392
36144SOL    HW212990   3.353   6.094   8.137  0.1793  1.0324 -0.3814
36145SOL     OW12991   2.431  11.723   3.498  0.1278 -0.0047  0.1102
36145SOL    HW112992   2.369  11.687   3.434  1.1025 -0.5265 -0.5586
36145SOL    HW212993   2.382  11.723   3.581  0.0232 -2.8210  0.1479
36146SOL     OW12994   9.710  11.071  11.593 -0.3065  0.0381 -0.3466
36146SOL    HW112995   9.667  11.089  11.510 -0.2472 -1.4831 -0.7365
36146SOL    HW212996   9.662  11.123  11.657 -0.6052  0.9162 -1.2677
36147SOL     OW12997  10.378   1.697  10.727 -0.0455  0.1229 -0.2745
36147SOL    HW112998  10.360   1.788  10.750 -0.2083  0.4476 -1.5884
36147SOL    HW212999  10.446   1.702  10.659  1.4799 -0.8557  1.1160
36148SOL     OW13000   9.644   1.068   2.759  0.2099  0.2192 -0.3033
36148SOL    HW113001   9.565   1.121   2.770 -0.0609 -0.0396 -0.9555
36148SOL    HW213002   9.699   1.119   2.700  1.3257  1.2447  1.5241
36149SOL     OW13003   5.882   4.189  12.013  0.8160 -0.4528 -0.0774
36149SOL    HW113004   5.939   4.259  11.982 -1.3212  0.8088 -1.4450
36149SOL    HW213005   5.836   4.227  12.089 -0.1060 -0.4432 -0.6198
36150SOL     OW13006   4.285   3.181   0.881 -0.3331 -0.1934 -0.3508
36150SOL    HW113007   4.282   3.268   0.842 -0.0798 -0.7679 -1.7151
36150SOL    HW213008   4.238   3.189   0.964  0.0895  1.3412 -0.2385
36151SOL     OW13009   8.029   7.634   9.079  0.0001 -0.3101  0.0628
36151SOL    HW113010   8.080   7.558   9.108 -0.4267 -0.9250 -0.7368
36151SOL    HW213011   7.945   7.596   9.050 -0.9828  0.6804  1.4592
36152SOL     OW13012   7.730   7.045   4.839  0.0345  0.5946 -0.6136
36152SOL    HW113013   7.671   7.101   4.890  0.4442  0.1307  0.3946
36152SOL    HW213014   7.787   7.106   4.792 -0.7104  1.0357 -0.9654
36153SOL     OW13015   0.920   6.254   8.022 -0.0160 -0.3640 -0.0604
36153SOL    HW113016   0.843   6.309   8.008 -1.1712 -1.8494  0.2101
36153SOL    HW213017   0.906   6.214   8.108  0.8484 -0.9842 -0.1900
36154SOL     OW13018   7.153   2.013   8.498 -0.6573 -0.2812 -0.0280
36154SOL    HW113019   7.204   1.941   8.461 -1.8532 -0.3310 -1.6842
36154SOL    HW213020   7.202   2.092   8.475 -0.9904 -0.3698 -1.1163
36155SOL     OW13021   8.240   7.714   0.643  0.1612 -0.1472 -0.8511
36155SOL    HW113022   8.161   7.740   0.690  0.3842 -3.6741  1.9292
36155SOL    HW213023   8.210   7.647   0.581  0.8527 -1.6530  0.3594
36156SOL     OW13024  11.554   6.407   9.512  0.0449 -0.5736 -0.7227
36156SOL    HW113025  11.634   6.457   9.499 -0.2996  0.3520  0.5258
36156SOL    HW213026  11.484   6.464   9.481 -0.3057 -0.4613  0.2285
36157SOL     OW13027   2.043   6.977   8.153  0.4246 -0.4564  0.1154
36157SOL    HW113028   1.959   7.018   8.176  1.0895  1.5373 -0.8438
36157SOL    HW213029   2.097   6.989   8.231 -0.6573 -3.4635  1.5120
36158SOL     OW13030   7.819   4.215   0.693 -0.3322  0.0866  0.2402
36158SOL    HW113031   7.894   4.225   0.635 -0.4328 -0.0394  0.0866
36158SOL    HW213032   7.748   4.187   0.635 -0.3661 -0.3029  0.4649
36159SOL     OW13033   1.359   1.405   3.120 -0.4507 -0.2714 -0.2481
36159SOL    HW113034   1.278   1.382   3.074 -1.9417  0.7801  1.7065
36159SOL    HW213035   1.394   1.478   3.070 -0.8088 -0.6027 -1.0054
36160SOL     OW13036   4.280   6.680   5.192  0.4716  0.5793  0.2621
36160SOL    HW113037   4.354   6.670   5.134  0.3291  0.2801  0.1279
36160SOL    HW213038   4.204   6.690   5.134  0.4770  1.4783  0.3945
36161SOL     OW13039  10.100   3.600   6.908 -0.2176 -0.1292 -0.3481
36161SOL    HW113040  10.026   3.553   6.869 -0.8016  1.6972 -1.5435
36161SOL    HW213041  10.073   3.615   6.999 -0.7476 -0.6186 -0.4205
36162SOL     OW13042  11.714   5.854   5.701  0.5606  0.2905  0.3109
36162SOL    HW113043  11.717   5.814   5.614  0.6016 -0.3913  0.6179
36162SOL    HW213044  11.802   5.890   5.714  0.0238  2.0357 -0.6731
36163SOL     OW13045   3.223   4.129   3.514 -0.3891  0.0717 -0.3136
36163SOL    HW113046   3.176   4.049   3.489  1.4417 -0.8558 -0.9578
36163SOL    HW213047   3.205   4.139   3.607 -2.1731  0.0015 -0.6112
36164SOL     OW13048   1.442   8.155   0.942  0.6207 -0.5869 -0.5088
36164SOL    HW113049   1.393   8.123   0.866 -0.1384  0.7253 -0.5989
36164SOL    HW213050   1.534   8.147   0.917  0.3779 -0.1407 -1.5785
36165SOL     OW13051  11.605   1.248   5.743 -0.1872  0.0030 -0.3805
36165SOL    HW113052  11.514   1.247   5.712 -0.5551  1.0358  0.6087
36165SOL    HW213053  11.636   1.336   5.722  0.4229 -0.1744 -0.2409
36166SOL     OW13054   8.090   4.695  10.084 -0.0467 -0.0414 -0.2804
36166SOL    HW113055   8.090   4.786  10.113 -0.6804  0.0091 -0.4231
36166SOL    HW213056   8.064   4.645  10.161  2.6976 -0.3838  0.5487
36167SOL     OW13057   7.555   5.962   5.823 -0.0286  0.4430 -0.0673
36167SOL    HW113058   7.586   5.935   5.737  2.3788  0.2437  0.7687
36167SOL    HW213059   7.546   6.057   5.817  0.3053  0.4485 -0.4875
36168SOL     OW13060   1.506   9.009   4.399 -0.1594 -0.3947 -0.1511
36168SOL    HW113061   1.570   8.952   4.440  0.9688  1.6003  1.0230
36168SOL    HW213062   1.558   9.078   4.358 -1.3287 -1.3319 -3.5572
36169SOL     OW13063   7.163   7.035   2.115 -0.0426 -0.2774  0.5877
36169SOL    HW113064   7.257   7.025   2.102 -0.0358  1.9499 -2.2394
36169SOL    HW213065   7.153   7.055   2.208  2.4629  0.7223  0.7076
36170SOL     OW13066   1.504   8.129   1.216 -0.5177  0.0116  0.1765
36170SOL    HW113067   1.485   8.129   1.122 -1.3318 -0.3190  0.3299
36170SOL    HW213068   1.521   8.037   1.237  0.5262  0.2040  0.1917
36171SOL     OW13069   5.398   7.478   2.338  0.0291 -0.2793  0.1470
36171SOL    HW113070   5.357   7.559   2.308  0.5652 -0.5994 -1.5366
36171SOL    HW213071   5.490   7.487   2.313  0.0847 -1.4215 -0.1167
36172SOL     OW13072  11.148  12.071   7.684 -0.6790 -0.0334  0.1903
36172SOL    HW113073  11.198  12.002   7.728 -1.0866  0.7450  1.9393
36172SOL    HW213074  11.209  12.145   7.680 -1.3634  0.6462  1.5791
36173SOL     OW13075   2.458   9.964  11.871 -0.0484  0.2233 -0.1391
36173SOL    HW113076   2.454  10.044  11.923 -0.1483 -0.6682  1.2839
36173SOL    HW213077   2.373   9.958  11.830  0.2556  1.2881 -0.9639
36174SOL     OW13078   6.317   3.122   2.762 -0.6605 -0.2734 -0.1684
36174SOL    HW113079   6.402   3.156   2.792  0.4113 -3.0574  0.2535
36174SOL    HW213080   6.336   3.084   2.676 -1.4095 -1.1410  0.0374
36175SOL     OW13081   5.588   3.938  11.699 -0.2878 -0.1429 -0.0440
36175SOL    HW113082   5.649   3.931  11.772  0.7007 -0.4354 -0.8833
36175SOL    HW213083   5.585   3.851  11.660 -0.4621  0.1159 -0.6289
36176SOL     OW13084   7.397   8.622   3.441 -0.3580 -0.5079 -0.3734
36176SOL    HW113085   7.468   8.659   3.388  0.7410 -2.8696 -0.6571
36176SOL    HW213086   7.352   8.562   3.382 -1.2584 -0.6341  0.4163
36177SOL     OW13087   3.711  11.552   4.167 -0.2080  0.0619  0.0135
36177SOL    HW113088   3.690  11.592   4.082 -0.3501 -0.5220 -0.2307
36177SOL    HW213089   3.664  11.469   4.167 -1.0108  0.4993  1.0876
36178SOL     OW13090   0.022   2.479   6.428  0.5379 -0.5381 -0.2566
36178SOL    HW113091   0.016   2.574   6.432 -0.3574 -0.5712 -0.4654
36178SOL    HW213092  -0.021   2.448   6.508 -0.8836 -0.7829 -1.0612
36179SOL     OW13093   1.051   4.818  11.868 -0.2645 -0.1944  0.6924
36179SOL    HW113094   1.055   4.762  11.790  0.6648  1.1897 -0.3148
36179SOL    HW213095   0.968   4.866  11.858 -0.1529 -0.0282  0.5536
36180SOL     OW13096  10.199   0.229  10.680 -0.3736  0.4936 -0.1305
36180SOL    HW113097  10.170   0.152  10.730  2.3974 -1.0001 -0.6320
36180SOL    HW213098  10.263   0.272  10.737 -2.0304  2.6614  0.2231
36181SOL     OW13099   6.743   8.899  10.026  0.3822  0.4606  0.0169
36181SOL    HW113100   6.711   8.975  10.074 -0.5744  0.4131 -0.5275
36181SOL    HW213101   6.689   8.826  10.055 -1.3710  0.7325 -2.2933
36182SOL     OW13102   4.875   4.116   5.362  0.3827  0.0605 -0.1310
36182SOL    HW113103   4.846   4.139   5.451  0.1567  0.6862 -0.3588
36182SOL    HW213104   4.968   4.097   5.372  0.2851 -0.2083  0.2986
36183SOL     OW13105  10.870   2.671   7.013 -0.0093  0.1172  0.1077
36183SOL    HW113106  10.803   2.623   6.964  1.0029 -1.1734 -0.0480
36183SOL    HW213107  10.820   2.729   7.071 -1.2310  1.2409 -1.9748
36184SOL     OW13108   9.534   6.606   6.844 -0.1271  0.2184 -0.5298
36184SOL    HW113109   9.560   6.690   6.879  1.1376 -0.6400  0.6620
36184SOL    HW213110   9.616   6.564   6.817 -0.8256 -0.2189 -2.1093
36185SOL     OW13111   2.920   9.619   3.571 -0.2682  0.0994 -0.4608
36185SOL    HW113112   2.940   9.527   3.555 -1.1321 -0.3739  0.9605
36185SOL    HW213113   2.991   9.650   3.627 -1.6344 -0.6777  1.8478
36186SOL     OW13114   2.472   3.591   0.492 -0.1039  0.2836 -0.1729
36186SOL    HW113115   2.493   3.498   0.500 -0.5340  0.2682  0.8460
36186SOL    HW213116   2.513   3.617   0.409 -0.1028 -0.8410 -0.5475
36187SOL     OW13117   6.203   2.524  10.758  0.1653  0.6247  0.0213
36187SOL    HW113118   6.147   2.458  10.800  0.2849  0.0051 -0.7809
36187SOL    HW213119   6.147   2.600  10.747 -0.3089  0.2603 -0.0981
36188SOL     OW13120   8.802   2.856   2.648 -0.1626  0.2106 -0.5440
36188SOL    HW113121   8.823   2.949   2.639  1.5332 -0.1149 -0.3235
36188SOL    HW213122   8.783   2.844   2.741  0.6069  0.1721 -0.3837
36189SOL     OW13123  11.804   7.452   9.563 -0.8122  0.5642 -0.3386
36189SOL    HW113124  11.828   7.407   9.482 -0.2901 -1.7723  1.0057
36189SOL    HW213125  11.848   7.537   9.557  0.5725 -0.1911 -1.8148
36190SOL     OW13126   4.634   9.044   2.760 -0.0630 -0.2993  0.2334
36190SOL    HW113127   4.555   9.045   2.705 -1.8540  0.0329  2.6644
36190SOL    HW213128   4.659   9.136   2.765 -0.7128 -0.1501  1.0087
36191SOL     OW13129   2.661   0.134  11.537  0.0663  0.0803  0.3395
36191SOL    HW113130   2.693   0.220  11.509 -1.7293  0.2925 -1.2743
36191SOL    HW213131   2.582   0.153  11.587 -1.4374 -0.6501 -1.6434
36192SOL     OW13132   2.425   6.669   7.110 -0.4835 -0.0425 -0.1263
36192SOL    HW113133   2.330   6.656   7.118 -0.6156  0.0500 -1.3306
36192SOL    HW213134   2.445   6.641   7.021  0.8264 -1.1591  0.4820
36193SOL     OW13135  11.015   3.667   0.635 -0.2490 -0.7336  0.1860
36193SOL    HW113136  11.018   3.643   0.542  0.0996 -1.8170  0.4568
36193SOL    HW213137  10.937   3.722   0.643 -1.0514 -1.7101 -0.5304
36194SOL     OW13138   2.733   2.279   4.303  0.0980 -0.2495 -0.2556
36194SOL    HW113139   2.690   2.236   4.377 -0.5683  1.0229  0.1235
36194SOL    HW213140   2.762   2.206   4.247 -0.2230 -1.2021  0.7802
36195SOL     OW13141   1.432   5.984  11.233 -0.0875  0.6235  0.4832
36195SOL    HW113142   1.489   6.057  11.209 -1.1108  0.6137 -2.2856
36195SOL    HW213143   1.378   6.019  11.304 -0.5022  2.5988 -0.7059
36196SOL     OW13144   9.850   1.370   1.784  0.0345  0.4990 -0.1175
36196SOL    HW113145   9.777   1.404   1.732 -0.6751 -0.2226  0.3961
36196SOL    HW213146   9.816   1.367   1.874  1.0999  1.3112  0.3424
36197SOL     OW13147   9.098   0.738   7.859  0.3284  0.1942 -0.4550
36197SOL    HW113148   9.107   0.679   7.934  0.4518  0.2781 -0.4041
36197SOL    HW213149   9.163   0.806   7.874 -0.5354  0.9325  0.0410
36198SOL     OW13150   1.965   9.274   2.364 -0.4351  0.3489 -0.0862
36198SOL    HW113151   1.945   9.350   2.418 -1.8272 -0.9038  1.2894
36198SOL    HW213152   2.037   9.231   2.409  0.5847  1.0064 -1.0520
36199SOL     OW13153   1.720   4.532   7.405  0.2678  0.0205 -1.0615
36199SOL    HW113154   1.805   4.535   7.362 -0.4354  0.8633 -2.4764
36199SOL    HW213155   1.735   4.568   7.492  1.7540 -1.8172 -0.4934
36200SOL     OW13156  11.322   5.152  10.593  0.0629 -0.0531 -0.2015
36200SOL    HW113157  11.358   5.240  10.586 -1.1998  0.4167 -1.2071
36200SOL    HW213158  11.298   5.129  10.504 -0.2166 -1.1710  0.1461
36201SOL     OW13159   0.395  11.856   7.720  0.3893  0.1257  0.0759
36201SOL    HW113160   0.315  11.885   7.677 -1.2819 -0.9137  2.2775
36201SOL    HW213161   0.407  11.766   7.690 -1.3773 -0.9741  2.3955
36202SOL     OW13162   7.514  11.339   4.599  0.5892  0.2117  0.0169
36202SOL    HW113163   7.540  11.368   4.512  1.5479 -0.5449  0.0333
36202SOL    HW213164   7.489  11.247   4.587 -0.3928  0.4366  0.3303
36203SOL     OW13165   3.830  10.955   7.318  0.0066  0.0431  0.1812
36203SOL    HW113166   3.840  10.979   7.226  0.6928  1.7718  0.6779
36203SOL    HW213167   3.838  10.859   7.318 -1.1126 -0.1137 -1.6682
36204SOL     OW13168   6.023   9.619   9.171 -0.3588  0.3301  0.1852
36204SOL    HW113169   5.975   9.542   9.140  2.0492 -1.3486  0.3794
36204SOL    HW213170   6.114   9.591   9.175  1.3500  4.3055 -3.3688
36205SOL     OW13171   7.134   7.221  11.341  0.1973 -0.2966  0.1313
36205SOL    HW113172   7.042   7.195  11.330 -0.1530  1.5604 -2.1747
36205SOL    HW213173   7.150   7.214  11.435 -2.0176 -1.5162  0.4965
36206SOL     OW13174  11.696   4.169   5.840 -0.1416  0.1970 -0.3033
36206SOL    HW113175  11.608   4.178   5.876 -0.3015 -1.9557 -0.0264
36206SOL    HW213176  11.745   4.242   5.878 -1.0883 -0.2034  1.8240
36207SOL     OW13177   3.287   9.603   7.741  0.4244 -0.3207 -0.0061
36207SOL    HW113178   3.244   9.522   7.716 -2.0239  0.4694  1.3285
36207SOL    HW213179   3.242   9.631   7.820  1.5638  2.0800 -0.1066
36208SOL     OW13180   9.614   6.696  10.039  0.2136 -0.0213  0.2451
36208SOL    HW113181   9.676   6.641   9.992  0.4122 -0.4912  1.0445
36208SOL    HW213182   9.530   6.682   9.995  0.0284 -1.8012  1.0811
36209SOL     OW13183   7.238   8.352   0.281  0.8861  0.1187 -0.3131
36209SOL    HW113184   7.213   8.432   0.235 -0.2230 -0.0604 -0.0571
36209SOL    HW213185   7.246   8.286   0.211 -0.5293 -0.0893 -0.3223
36210SOL     OW13186   0.576   1.975   1.719  0.0109 -0.0261 -0.4893
36210SOL    HW113187   0.638   2.014   1.780  3.0600 -1.0215 -2.7205
36210SOL    HW213188   0.606   2.002   1.633 -3.0064 -0.1856 -1.7265
36211SOL     OW13189   2.420   9.870   7.297 -0.3168 -0.2656  0.0633
36211SOL    HW113190   2.343   9.907   7.253  0.0967  1.2434  0.5482
36211SOL    HW213191   2.487   9.938   7.290  0.5854 -1.0554  0.7515
36212SOL     OW13192   6.758   3.208  10.960  0.3876 -0.4626 -0.6296
36212SOL    HW113193   6.818   3.133  10.953  0.3519 -0.4093 -1.5957
36212SOL    HW213194   6.787   3.254  11.039  1.1620 -0.8350 -0.6848
36213SOL     OW13195   4.331   1.634   6.522  0.1392  0.2219 -0.4677
36213SOL    HW113196   4.276   1.639   6.443 -1.6082 -0.3459  0.6540
36213SOL    HW213197   4.393   1.706   6.513 -1.2157  1.3077 -1.4815
36214SOL     OW13198   3.712  11.746   6.799 -0.3202  0.6462  0.9832
36214SOL    HW113199   3.703  11.655   6.769 -1.2511  0.3338  2.1524
36214SOL    HW213200   3.624  11.772   6.824 -0.1916  2.1302  0.0113
36215SOL     OW13201   4.547   6.253   8.873  0.1521 -0.2251  0.0803
36215SOL    HW113202   4.543   6.347   8.891 -0.7710 -0.3440  0.5717
36215SOL    HW213203   4.593   6.247   8.790  2.2705  0.5069  1.1153
36216SOL     OW13204   4.829   1.113   9.898  0.2075 -0.3752 -0.9038
36216SOL    HW113205   4.885   1.102   9.975  1.0907  1.5224 -1.2322
36216SOL    HW213206   4.745   1.141   9.933  0.2017 -0.8099 -0.5615
36217SOL     OW13207   8.027   3.502   0.413 -0.2256 -0.0186  0.1951
36217SOL    HW113208   8.075   3.422   0.437  0.5661 -0.0657 -1.4173
36217SOL    HW213209   7.935   3.476   0.411  0.0828 -1.1178 -1.0372
36218SOL     OW13210   8.448   9.645   7.788  0.3219  0.1231 -0.5819
36218SOL    HW113211   8.460   9.737   7.813  1.0511 -0.3278  0.9020
36218SOL    HW213212   8.382   9.646   7.719 -1.3635  1.5909  0.9424
36219SOL     OW13213   5.689   1.321   9.187  0.1596  0.0219  0.2591
36219SOL    HW113214   5.742   1.252   9.148  2.7154  1.9632  0.0134
36219SOL    HW213215   5.698   1.395   9.128 -1.1721  1.0741  1.3006
36220SOL     OW13216   8.703   3.067   2.018  0.0557 -0.0846 -0.2324
36220SOL    HW113217   8.761   2.998   2.050 -0.2621 -1.0575 -1.6500
36220SOL    HW213218   8.615   3.036   2.041 -0.1008 -0.2700 -1.0485
36221SOL     OW13219   6.656   1.762  10.392  0.1384  0.0427 -0.0903
36221SOL    HW113220   6.708   1.835  10.357  1.3628 -0.6102  0.2947
36221SOL    HW213221   6.574   1.802  10.420  0.4016  1.1098 -0.7686
36222SOL     OW13222   7.234  12.089   5.538  0.5647  0.1721  0.0187
36222SOL    HW113223   7.258  12.011   5.588 -1.2833 -0.3306  0.1650
36222SOL    HW213224   7.291  12.086   5.461  0.1031 -1.6939 -0.3069
36223SOL     OW13225   4.172   1.071  11.325 -0.2756  0.2594 -0.0344
36223SOL    HW113226   4.129   1.033  11.401  1.3813 -0.3627  0.6302
36223SOL    HW213227   4.228   1.001  11.291  1.6450  1.5508  0.2910
36224SOL     OW13228   7.066   1.845   7.507  0.4430 -0.4382  0.1751
36224SOL    HW113229   7.034   1.928   7.471  1.3967 -0.1824 -0.1151
36224SOL    HW213230   7.005   1.824   7.577  0.5335  0.8337  0.6672
36225SOL     OW13231   7.043   3.455  10.791 -0.2911  0.0758 -0.0861
36225SOL    HW113232   7.063   3.440  10.884 -0.0220 -0.2111 -0.1864
36225SOL    HW213233   6.954   3.423  10.780 -1.1908  2.1990  0.5717
36226SOL     OW13234   8.313   3.172   5.691 -0.2494  0.2521  0.1514
36226SOL    HW113235   8.250   3.106   5.718  0.0628 -0.3667 -0.5627
36226SOL    HW213236   8.398   3.137   5.719  0.0223 -0.1521 -1.0698
36227SOL     OW13237   2.560   4.565  11.139 -0.1283 -0.1426 -0.5530
36227SOL    HW113238   2.525   4.491  11.188  0.1533 -1.8494 -2.7569
36227SOL    HW213239   2.485   4.599  11.090  0.0680 -0.0141 -0.7659
36228SOL     OW13240   0.762   1.191  10.823 -0.1909 -0.6979  0.3536
36228SOL    HW113241   0.782   1.188  10.916 -0.2490  0.4825  0.4220
36228SOL    HW213242   0.751   1.099  10.797  0.5401 -1.0750  1.3393
36229SOL     OW13243   4.354   3.246   1.668 -0.0935 -0.0642  0.1866
36229SOL    HW113244   4.436   3.207   1.697 -0.0300 -0.4192 -0.4499
36229SOL    HW213245   4.378   3.293   1.587 -0.3898  0.3695  0.3460
36230SOL     OW13246   6.987   9.205   8.024 -0.1364  0.0898  0.2328
36230SOL    HW113247   7.048   9.159   8.083 -1.0949 -1.1704  0.2661
36230SOL    HW213248   6.931   9.255   8.083 -1.4903 -1.6496  0.4831
36231SOL     OW13249   2.237   2.190   6.362 -0.3079 -0.3997  0.4303
36231SOL    HW113250   2.250   2.285   6.373  0.8079 -0.4404 -0.3295
36231SOL    HW213251   2.213   2.159   6.449  2.0674  0.1883  1.3826
36232SOL     OW13252   3.699   4.258   1.037 -0.1156  0.3557  0.1038
36232SOL    HW113253   3.692   4.208   0.956  0.6618 -1.7936  1.2880
36232SOL    HW213254   3.657   4.342   1.017  0.6091  0.1445 -2.6867
36233SOL     OW13255  10.764   8.009   8.652  0.3384  0.8741 -0.3178
36233SOL    HW113256  10.797   8.006   8.562  0.7007 -0.0169 -0.1676
36233SOL    HW213257  10.827   8.062   8.700  1.3919 -0.4961 -0.1186
36234SOL     OW13258   4.432  10.744   4.878  0.3214 -0.5322  0.1936
36234SOL    HW113259   4.525  10.756   4.858 -0.2594  0.1964 -2.4849
36234SOL    HW213260   4.416  10.651   4.862  0.1876 -0.2444 -1.5479
36235SOL     OW13261   8.909   4.465   0.493  0.0529  0.2895 -0.1551
36235SOL    HW113262   8.893   4.380   0.536 -2.6673 -0.0487 -1.5639
36235SOL    HW213263   8.932   4.442   0.403  0.3299  1.0295 -0.2781
36236SOL     OW13264  11.587   4.857   4.227  0.4154 -0.1391  0.0831
36236SOL    HW113265  11.502   4.813   4.219  0.9012 -0.9434 -0.9546
36236SOL    HW213266  11.628   4.816   4.303  0.7813 -1.3729 -0.7568
36237SOL     OW13267   4.007   6.793   3.984 -0.8760 -0.2258 -0.1433
36237SOL    HW113268   4.005   6.764   4.075  0.5274 -0.1174 -0.0611
36237SOL    HW213269   4.009   6.711   3.933  1.1846 -0.3362  0.0348
36238SOL     OW13270  10.266   5.443   9.148  0.0763  0.1553 -0.1297
36238SOL    HW113271  10.320   5.521   9.152 -0.6311  0.7501 -1.5087
36238SOL    HW213272  10.309   5.381   9.207  1.7583  0.8890 -0.5203
36239SOL     OW13273   5.524   2.591   6.934 -0.1019 -0.1720  0.1401
36239SOL    HW113274   5.560   2.521   6.988 -2.4251 -1.7181 -0.1713
36239SOL    HW213275   5.445   2.618   6.980  0.9312  2.6379  0.4761
36240SOL     OW13276  11.282   0.684   1.293 -0.0093  0.2298  0.4634
36240SOL    HW113277  11.341   0.637   1.352  0.8380 -1.6832 -1.7693
36240SOL    HW213278  11.207   0.626   1.283 -0.0970  0.4850 -0.3899
36241SOL     OW13279   5.482   9.609   6.145  0.6677  0.2073  0.1288
36241SOL    HW113280   5.577   9.595   6.148  0.6616 -0.4526 -1.5553
36241SOL    HW213281   5.456   9.578   6.058 -0.9989  1.0303  0.2963
36242SOL     OW13282   8.677   8.615   9.509  0.4404 -0.1533 -0.2480
36242SOL    HW113283   8.588   8.650   9.511  1.0611  1.6028 -1.1232
36242SOL    HW213284   8.728   8.682   9.462  2.0523 -1.4965 -0.5096
36243SOL     OW13285   3.677   8.504   1.468  0.9158 -0.0549  0.2954
36243SOL    HW113286   3.684   8.462   1.382 -1.7968  1.3122 -0.7265
36243SOL    HW213287   3.747   8.570   1.468  1.0203 -0.1425 -0.8345
36244SOL     OW13288   0.807   6.957   7.984 -0.3406  0.0583 -0.1478
36244SOL    HW113289   0.878   6.934   7.924 -0.6534 -0.4904 -0.3243
36244SOL    HW213290   0.834   7.038   8.025  0.7784 -0.5756  0.4079
36245SOL     OW13291  11.879  11.635   5.788 -0.0907  0.2157 -0.2152
36245SOL    HW113292  11.949  11.570   5.780 -0.0689  0.2304 -0.1338
36245SOL    HW213293  11.904  11.688   5.863 -0.3457  0.0328 -0.0002
36246SOL     OW13294   1.405   0.601   5.911  0.7406 -0.0589 -0.1802
36246SOL    HW113295   1.362   0.682   5.936  2.0690  0.3996  0.7515
36246SOL    HW213296   1.334   0.540   5.894 -0.2761  1.2245 -0.6673
36247SOL     OW13297   4.565   3.907   0.600 -0.3360 -0.0957  0.5337
36247SOL    HW113298   4.527   3.887   0.686 -1.4892 -0.2327  0.0076
36247SOL    HW213299   4.636   3.844   0.591 -0.9714 -0.8908  0.8885
36248SOL     OW13300   8.220   3.233   8.490  0.1175 -0.0213  0.2894
36248SOL    HW113301   8.126   3.247   8.504  0.0110 -0.2159 -0.2023
36248SOL    HW213302   8.260   3.255   8.574 -0.4558 -0.7794  0.7804
36249SOL     OW13303   3.906   8.750   7.634  0.3254 -0.5059  0.4069
36249SOL    HW113304   3.824   8.754   7.585 -0.7846 -0.9052  2.1403
36249SOL    HW213305   3.951   8.672   7.600 -0.5193 -0.9017  0.1790
36250SOL     OW13306   9.441   9.169   1.690  0.0650 -0.1391  0.3237
36250SOL    HW113307   9.407   9.135   1.606  0.1554 -2.2282  1.0782
36250SOL    HW213308   9.367   9.161   1.750  1.1914 -3.0651  1.5415
36251SOL     OW13309   1.204   9.964   6.994  0.4775  0.4358  0.0338
36251SOL    HW113310   1.145   9.888   6.991  0.8269  0.1875 -0.6790
36251SOL    HW213311   1.289   9.927   7.018  0.8519  0.4645 -1.2067
36252SOL     OW13312   8.562   0.780   5.637 -0.0195  0.2032 -0.1669
36252SOL    HW113313   8.542   0.871   5.613  0.3290  0.7320  1.4099
36252SOL    HW213314   8.547   0.777   5.732  0.8918 -1.1332 -0.0401
36253SOL     OW13315   6.812   9.051   8.410 -0.4526 -0.7803  0.2710
36253SOL    HW113316   6.900   9.014   8.397 -0.6412 -0.6095 -1.7991
36253SOL    HW213317   6.756   9.001   8.351 -1.2599  0.8760 -0.4316
36254SOL     OW13318   4.255   8.742   7.647 -0.2088 -0.2117  0.2203
36254SOL    HW113319   4.254   8.766   7.740  0.4040  0.0331  0.1712
36254SOL    HW213320   4.188   8.674   7.639 -1.4141  0.8932  0.5304
36255SOL     OW13321   5.499   3.568   6.442 -0.5456 -0.5087 -0.2988
36255SOL    HW113322   5.567   3.570   6.374 -0.7516  1.0523 -0.5041
36255SOL    HW213323   5.445   3.493   6.420  0.7803 -1.4498 -0.4557
36256SOL     OW13324   8.736   8.070   0.070  0.3344  0.2431  0.2953
36256SOL    HW113325   8.736   8.159   0.035  1.5803  0.3020  0.4148
36256SOL    HW213326   8.664   8.026   0.024  1.0834  0.6863 -1.3646
36257SOL     OW13327  11.637   9.230  11.321  0.1507  0.0356  0.2111
36257SOL    HW113328  11.567   9.294  11.311 -0.5343 -0.5750  0.9267
36257SOL    HW213329  11.627   9.198  11.411 -0.2317 -1.8693 -0.4664
36258SOL     OW13330   5.984   1.223   4.852  0.1050  0.3719  0.4054
36258SOL    HW113331   5.906   1.187   4.893 -0.3228 -1.9361 -2.1701
36258SOL    HW213332   6.031   1.147   4.819  0.5069  1.9398 -3.0774
36259SOL     OW13333   9.133   5.022  10.296 -0.2143  0.0246  0.5287
36259SOL    HW113334   9.157   4.990  10.383  1.3747 -0.5554 -0.0805
36259SOL    HW213335   9.206   4.997  10.240 -0.4527  1.7745 -0.6697
36260SOL     OW13336   6.039   2.374   7.930  0.0974  0.0948  0.2336
36260SOL    HW113337   6.052   2.306   7.996 -2.9376 -0.1010  0.7880
36260SOL    HW213338   6.114   2.366   7.871  0.9830 -2.2124  1.5598
36261SOL     OW13339  10.758   9.253   8.047  0.3918 -0.3140 -0.4835
36261SOL    HW113340  10.838   9.227   8.094  1.1976  1.5446 -0.7541
36261SOL    HW213341  10.724   9.328   8.096 -0.7662 -0.5858 -0.8380
36262SOL     OW13342   8.734  11.144  10.165  0.0175  0.3726 -0.6711
36262SOL    HW113343   8.683  11.063  10.166  1.8827 -0.8708 -1.0508
36262SOL    HW213344   8.669  11.214  10.174 -1.4819 -1.2023  2.9567
36263SOL     OW13345   1.669  11.678   1.066 -0.0448 -0.1792  0.0249
36263SOL    HW113346   1.655  11.673   0.971 -0.9253 -0.4187  0.1594
36263SOL    HW213347   1.687  11.771   1.082  0.1326 -0.1393 -0.3762
36264SOL     OW13348   1.771   8.652   0.371  0.0468 -0.3477 -0.1195
36264SOL    HW113349   1.701   8.715   0.393 -0.7097 -0.8872 -0.9455
36264SOL    HW213350   1.731   8.594   0.307  2.0845  1.0084 -2.7813
36265SOL     OW13351  11.667   0.571   0.059 -0.0830  0.4227 -0.3256
36265SOL    HW113352  11.599   0.507   0.037  1.5927 -1.7576  0.4502
36265SOL    HW213353  11.707   0.593  -0.025  2.2836 -3.1787 -0.3604
36266SOL     OW13354   1.235   3.492   1.337 -0.6580  0.2636 -0.5115
36266SOL    HW113355   1.292   3.434   1.286 -0.4890  0.0954 -0.1352
36266SOL    HW213356   1.243   3.577   1.294 -1.3161 -0.1056 -1.3850
36267SOL     OW13357   9.939   6.519   0.248  0.3170  0.4875  0.2074
36267SOL    HW113358   9.860   6.498   0.199  1.8932 -2.9481 -1.2171
36267SOL    HW213359   9.907   6.552   0.332 -2.5654  0.3260 -0.7112
36268SOL     OW13360  11.399   5.260   2.102 -0.6797  0.2928  0.5011
36268SOL    HW113361  11.413   5.280   2.010  1.2791  0.2682  0.7482
36268SOL    HW213362  11.476   5.209   2.127 -0.9267  0.7274  2.2746
36269SOL     OW13363   0.399   1.190   6.084  0.0300 -0.6124 -0.1112
36269SOL    HW113364   0.416   1.242   6.163  1.3188  1.6276 -1.7353
36269SOL    HW213365   0.304   1.181   6.082 -0.1126  0.2646  1.1097
36270SOL     OW13366   3.481   7.227   3.668  0.3427  0.3891 -0.1680
36270SOL    HW113367   3.436   7.271   3.596  1.2913 -0.0707 -1.0551
36270SOL    HW213368   3.570   7.213   3.636  0.3349 -1.2951  0.4647
36271SOL     OW13369   9.518   9.100   6.005  0.2588 -1.1799  0.3713
36271SOL    HW113370   9.452   9.118   6.072 -1.5263 -1.6640 -1.1671
36271SOL    HW213371   9.467   9.074   5.928  2.2380 -0.8809 -1.1099
36272SOL     OW13372   3.356   2.903   9.196 -0.4293  0.1832  0.2694
36272SOL    HW113373   3.421   2.969   9.220 -0.5879 -0.3807  2.3985
36272SOL    HW213374   3.294   2.950   9.139  0.3406  1.4244  0.4246
36273SOL     OW13375   8.615   8.223   7.009  0.2909  0.1078  0.4773
36273SOL    HW113376   8.609   8.127   7.008  0.1725  0.0586  2.3310
36273SOL    HW213377   8.709   8.241   7.019  0.0685  0.0176  3.9177
36274SOL     OW13378   8.073  10.705  11.460  0.4644 -0.5145  0.6028
36274SOL    HW113379   8.047  10.786  11.503  1.3815 -0.8866  1.9096
36274SOL    HW213380   7.992  10.673  11.420 -0.3390  0.0722  1.6754
36275SOL     OW13381  10.087   7.331  10.397 -0.1268  0.5501  0.1296
36275SOL    HW113382  10.022   7.402  10.390 -1.3334 -0.3504  1.6172
36275SOL    HW213383  10.088   7.309  10.490  0.2603 -1.3651 -0.3003
36276SOL     OW13384   1.961   4.483   8.494  0.0259  0.2160  0.0903
36276SOL    HW113385   1.929   4.525   8.573  1.5967  1.1464  0.2893
36276SOL    HW213386   1.954   4.390   8.511 -0.7961  0.4065  0.8335
36277SOL     OW13387   2.771   1.771   0.619 -0.7479  0.4582 -0.0187
36277SOL    HW113388   2.779   1.732   0.532 -1.3466  1.0617 -0.3672
36277SOL    HW213389   2.842   1.835   0.623 -0.6616  0.3623 -0.0344
36278SOL     OW13390   6.055   1.515  12.120  0.0696 -0.5553  0.0200
36278SOL    HW113391   6.130   1.559  12.160  0.1908 -0.2670 -0.5098
36278SOL    HW213392   5.990   1.585  12.107 -0.6507 -0.9647  1.2968
36279SOL     OW13393   3.471  11.487   9.810  0.2323 -0.1288 -0.1312
36279SOL    HW113394   3.413  11.543   9.861  1.8884  1.0515  0.5143
36279SOL    HW213395   3.475  11.529   9.724  0.2063 -0.1744 -0.1549
36280SOL     OW13396   0.559   4.253   0.482 -0.0483  0.1846 -0.2083
36280SOL    HW113397   0.591   4.163   0.493 -0.3441 -0.0434 -1.1584
36280SOL    HW213398   0.494   4.264   0.551 -2.5444 -1.5276 -2.1016
36281SOL     OW13399   6.759   7.062   6.478  0.3179 -0.0641  1.3310
36281SOL    HW113400   6.782   7.155   6.483  1.2992 -0.3151  1.6572
36281SOL    HW213401   6.827   7.024   6.423 -1.3067 -0.2230 -0.7436
36282SOL     OW13402   9.528   6.036   4.966 -0.1664  0.0562  0.0447
36282SOL    HW113403   9.448   6.053   5.017  0.0799  0.3489  0.3419
36282SOL    HW213404   9.570   6.122   4.959 -0.0718 -0.0297 -0.4427
36283SOL     OW13405  12.091   4.736   5.505 -0.2605  0.1345  0.2969
36283SOL    HW113406  12.068   4.695   5.588 -1.3463 -1.0225 -0.5285
36283SOL    HW213407  12.179   4.703   5.486 -0.3854 -0.3553  0.5446
36284SOL     OW13408  10.354  12.103   2.053  0.0791  0.8434  0.0414
36284SOL    HW113409  10.416  12.149   1.996  0.7191  1.8689  1.5166
36284SOL    HW213410  10.409  12.059   2.118 -0.5478 -1.6345 -0.9776
36285SOL     OW13411  10.429   5.996   5.300  0.4434 -0.3759 -0.5486
36285SOL    HW113412  10.433   5.985   5.395  0.4685  2.1639 -0.1799
36285SOL    HW213413  10.519   5.977   5.270  1.5703  2.6485  0.5355
36286SOL     OW13414  10.306   0.157   3.817 -0.2871 -0.0441 -0.0447
36286SOL    HW113415  10.336   0.161   3.907 -0.0395  0.2007 -0.1353
36286SOL    HW213416  10.212   0.177   3.821 -0.3025 -0.1601  0.1688
36287SOL     OW13417  10.729   6.358  11.345 -0.4387 -0.1378  0.0784
36287SOL    HW113418  10.770   6.331  11.427 -0.0033  1.0297  0.2738
36287SOL    HW213419  10.790   6.422  11.308 -1.1142  0.0960 -0.6538
36288SOL     OW13420   9.134   8.061   7.257 -0.3172  0.5082 -0.0056
36288SOL    HW113421   9.169   8.131   7.201 -1.1825  1.1502  0.2345
36288SOL    HW213422   9.183   7.983   7.231  0.4366  1.1306 -0.5109
36289SOL     OW13423   4.132   2.580   0.126  0.8695  0.4860 -0.0923
36289SOL    HW113424   4.147   2.570   0.220  0.7151  1.2932  0.0305
36289SOL    HW213425   4.090   2.499   0.099  1.6924 -0.1061  0.3657
36290SOL     OW13426  11.513   3.400   2.708 -0.6730 -0.0302 -0.5217
36290SOL    HW113427  11.600   3.439   2.702 -0.6012 -0.1414 -0.1973
36290SOL    HW213428  11.528   3.313   2.746 -1.1290  0.6827  1.3903
36291SOL     OW13429   5.684   5.724   5.601  0.3811  0.1302  0.2202
36291SOL    HW113430   5.670   5.780   5.524  2.1549 -0.1883 -0.3915
36291SOL    HW213431   5.732   5.779   5.662  1.5874 -0.4884 -0.1331
36292SOL     OW13432   1.607   4.407   2.527 -0.2363  0.4137 -0.0491
36292SOL    HW113433   1.651   4.370   2.450 -0.4234 -0.5052  0.2698
36292SOL    HW213434   1.677   4.448   2.577  0.1166 -0.2104 -0.0139
36293SOL     OW13435   1.641   3.734   6.492 -0.4558  0.5847  0.6213
36293SOL    HW113436   1.688   3.702   6.415 -0.2062  0.8256  0.6763
36293SOL    HW213437   1.561   3.772   6.456  0.3632  2.0988  0.3331
36294SOL     OW13438   9.496   1.904   3.688  0.2997  0.7054 -0.1182
36294SOL    HW113439   9.442   1.862   3.621  0.0965 -0.7182  0.8888
36294SOL    HW213440   9.484   1.850   3.766 -0.5574  3.0731  1.4972
36295SOL     OW13441  10.861   6.911   4.952 -0.4357  0.4861 -0.1737
36295SOL    HW113442  10.878   6.824   4.917  1.7114  0.7110  0.1789
36295SOL    HW213443  10.945   6.956   4.948 -1.1094  1.9988  1.1697
36296SOL     OW13444   6.130   2.844  12.075  0.1833 -0.7530  0.5257
36296SOL    HW113445   6.079   2.915  12.036  3.3339  2.1092  1.1436
36296SOL    HW213446   6.107   2.846  12.168 -0.6790 -1.4783  0.3413
36297SOL     OW13447  11.970  11.119   8.311  0.6119  0.3122 -0.4576
36297SOL    HW113448  11.920  11.140   8.232 -1.2941 -1.2993  0.2240
36297SOL    HW213449  11.951  11.192   8.371 -1.0671 -0.2960 -0.1902
36298SOL     OW13450   4.746   9.033   2.363  0.1803 -0.2409 -0.2790
36298SOL    HW113451   4.758   8.951   2.316 -3.0465 -2.2944  2.0608
36298SOL    HW213452   4.689   9.085   2.306  0.3916 -0.5861 -0.8092
36299SOL     OW13453   7.868  12.033   4.340 -0.2251 -0.7864  0.0405
36299SOL    HW113454   7.893  12.008   4.429  0.6340 -1.6069 -0.4067
36299SOL    HW213455   7.924  12.108   4.319 -1.0569 -0.0189  0.4948
36300SOL     OW13456   5.778   7.660   4.641 -0.2047  0.1810 -0.5527
36300SOL    HW113457   5.840   7.635   4.709 -1.4708 -1.0893  0.1819
36300SOL    HW213458   5.833   7.683   4.566  1.1531 -1.9446 -0.2900
36301SOL     OW13459   2.939   9.735  10.666  0.2351  0.3443  0.1439
36301SOL    HW113460   2.894   9.753  10.749  0.2285 -0.9452  0.4531
36301SOL    HW213461   3.032   9.749  10.686  0.2643 -0.2654  0.4800
36302SOL     OW13462   3.679   5.902   9.746  0.1221  0.0736  0.3138
36302SOL    HW113463   3.591   5.885   9.779 -1.1087  0.8164 -2.3240
36302SOL    HW213464   3.698   5.828   9.688  0.0666  1.1814 -1.1870
36303SOL     OW13465   9.014   0.256   9.400 -0.1051 -0.0481 -0.0701
36303SOL    HW113466   8.945   0.287   9.340 -1.1381 -0.3788  0.9092
36303SOL    HW213467   8.967   0.207   9.467  1.0679 -0.0251  0.8020
36304SOL     OW13468   0.284  10.113   1.453 -0.2015 -0.2818  0.1337
36304SOL    HW113469   0.259  10.170   1.526 -0.4512  1.5417 -1.3191
36304SOL    HW213470   0.203  10.069   1.428 -0.1381 -0.8322  0.8510
36305SOL     OW13471  10.669   5.625  11.236  0.2328  0.5042  0.1612
36305SOL    HW113472  10.631   5.683  11.169 -0.5487 -0.3727 -0.1789
36305SOL    HW213473  10.625   5.650  11.317 -0.0377  0.4614  0.0308
36306SOL     OW13474  10.362   8.730  11.688 -0.3803  0.0444  0.5460
36306SOL    HW113475  10.310   8.796  11.641  1.0239  0.3911 -0.6024
36306SOL    HW213476  10.334   8.646  11.651 -0.1200  0.2314 -0.0879
36307SOL     OW13477   6.097   0.936   4.806  0.5049 -1.1410 -0.1085
36307SOL    HW113478   6.046   0.856   4.798  0.8487 -1.4149  0.3657
36307SOL    HW213479   6.129   0.954   4.718 -0.2145 -1.0929 -0.3640
36308SOL     OW13480  11.473   0.601   0.398  0.2104 -0.4439 -0.3706
36308SOL    HW113481  11.457   0.667   0.331  1.5006  0.3429  0.0495
36308SOL    HW213482  11.446   0.642   0.480  0.2274 -0.7578 -0.2052
36309SOL     OW13483   1.937  10.229   2.287  0.7280 -0.7728 -0.3878
36309SOL    HW113484   1.921  10.139   2.316  1.0187 -0.8552 -0.4848
36309SOL    HW213485   1.902  10.231   2.197 -1.1221 -0.2351  0.2931
36310SOL     OW13486   0.612   1.309   4.111  0.1526 -0.4800  0.3393
36310SOL    HW113487   0.603   1.217   4.136  0.4360 -0.5479  0.1948
36310SOL    HW213488   0.659   1.349   4.184 -1.3651 -0.0965  1.1560
36311SOL     OW13489  10.486   6.985   1.838 -0.8100 -0.2960 -0.5208
36311SOL    HW113490  10.501   6.900   1.795  0.2621 -0.0574 -0.6491
36311SOL    HW213491  10.423   7.029   1.781 -0.0527 -0.3256 -1.3988
36312SOL     OW13492   8.670   3.848   5.695  0.7585  0.3404  0.4368
36312SOL    HW113493   8.732   3.909   5.735 -0.8848  2.4793 -0.0858
36312SOL    HW213494   8.665   3.875   5.603 -0.2317 -0.4056  0.2533
36313SOL     OW13495   1.064   2.443   3.676  0.4932  0.1893 -0.0139
36313SOL    HW113496   1.131   2.376   3.693  0.6512  0.3085 -0.1699
36313SOL    HW213497   1.049   2.485   3.761 -1.6384 -1.9010  0.7809
36314SOL     OW13498   5.451  10.686   9.180  0.5327 -0.0964 -0.1788
36314SOL    HW113499   5.535  10.646   9.159  0.4382 -0.9231  0.9092
36314SOL    HW213500   5.458  10.776   9.147  0.9941 -0.7957 -2.0832
36315SOL     OW13501   1.113   3.798   6.058  0.2564 -0.1231  0.7969
36315SOL    HW113502   1.038   3.851   6.084  0.7517  0.0828  1.8544
36315SOL    HW213503   1.189   3.845   6.093  1.0784  0.7178 -1.8868
36316SOL     OW13504   4.182   8.798   8.669 -0.0250  0.8109 -0.1034
36316SOL    HW113505   4.154   8.859   8.600  0.7576 -0.0734 -1.2278
36316SOL    HW213506   4.251   8.846   8.715 -0.2446  1.2394 -0.2084
36317SOL     OW13507   7.978   2.011  11.434 -0.1407 -0.7834  0.0391
36317SOL    HW113508   8.037   1.967  11.372 -1.2842 -0.1624 -1.5425
36317SOL    HW213509   8.030   2.083  11.469 -0.1521  0.2528 -1.9517
36318SOL     OW13510  10.460   0.054   6.316 -0.6984  0.2109  0.4430
36318SOL    HW113511  10.393   0.034   6.381  0.3088 -0.3316  1.3483
36318SOL    HW213512  10.543   0.036   6.361  0.0444  0.5718 -0.7439
36319SOL     OW13513   8.466   0.225   5.990  0.1699  0.5734  0.0496
36319SOL    HW113514   8.411   0.290   6.032 -0.4431  1.0183 -1.3751
36319SOL    HW213515   8.556   0.249   6.014 -0.1251  1.2568  0.4674
36320SOL     OW13516   8.882   4.611   1.232  0.7138  0.3316  0.0673
36320SOL    HW113517   8.912   4.666   1.160  3.0311  0.1809  0.8232
36320SOL    HW213518   8.841   4.673   1.294  0.7660  0.7822 -0.3413
36321SOL     OW13519   3.709   9.299   4.817 -0.5965 -0.6494  0.2291
36321SOL    HW113520   3.727   9.255   4.733 -0.5458 -0.6503  0.2399
36321SOL    HW213521   3.614   9.296   4.826 -0.4818 -2.9571  1.4196
36322SOL     OW13522   2.443  11.252   7.130  0.0637 -0.1452 -0.0095
36322SOL    HW113523   2.508  11.224   7.064 -0.2212  0.6666 -0.6564
36322SOL    HW213524   2.372  11.290   7.078 -0.8291 -0.8241  0.7120
36323SOL     OW13525   8.099   2.914   7.574  0.1872 -0.3506 -0.1045
36323SOL    HW113526   8.155   2.925   7.651 -0.0448 -1.5279  0.2406
36323SOL    HW213527   8.039   2.989   7.578  0.4824 -0.1419  0.5972
36324SOL     OW13528   1.621  10.347   7.867 -0.1517  0.0794 -0.4218
36324SOL    HW113529   1.683  10.316   7.802  0.2651 -1.5394  0.6884
36324SOL    HW213530   1.650  10.307   7.949 -1.3591  1.0937  0.5435
36325SOL     OW13531   6.246  10.797   4.258  0.0626 -0.1941  0.3247
36325SOL    HW113532   6.305  10.871   4.273 -1.4604  1.0780  0.2839
36325SOL    HW213533   6.286  10.749   4.186 -0.6033  2.5572 -2.0722
36326SOL     OW13534   1.069   4.128   1.650  0.3562  0.5705 -0.0638
36326SOL    HW113535   1.050   4.093   1.563  0.1176  0.3598  0.0703
36326SOL    HW213536   0.990   4.178   1.673  0.9371  1.7174 -0.5125
36327SOL     OW13537   6.704   7.706   6.946  0.0583  0.3441 -0.6473
36327SOL    HW113538   6.774   7.644   6.962  0.0545  0.7014  0.9557
36327SOL    HW213539   6.626   7.664   6.983 -0.2027  0.7520 -0.7265
36328SOL     OW13540  10.217   1.321   9.075  0.2035  0.0732  0.2095
36328SOL    HW113541  10.302   1.364   9.088 -0.8838  2.2022  0.7559
36328SOL    HW213542  10.191   1.295   9.163 -0.8582  1.8630  0.4821
36329SOL     OW13543  10.030   5.404   9.643  0.1317 -0.1375 -0.4192
36329SOL    HW113544  10.052   5.382   9.552 -1.1724  1.9685 -1.3035
36329SOL    HW213545  10.100   5.463   9.671 -0.8640  1.3547 -1.0038
36330SOL     OW13546   7.908  11.235   5.698 -0.4089 -0.0785 -0.0883
36330SOL    HW113547   7.835  11.255   5.757  3.2065  1.9893  4.2979
36330SOL    HW213548   7.924  11.317   5.651  0.2521  0.1132  0.4603
36331SOL     OW13549   8.759   0.402  10.436 -0.6035 -0.4399  0.6823
36331SOL    HW113550   8.703   0.327  10.459  0.2310 -1.4529 -0.4490
36331SOL    HW213551   8.734   0.424  10.346  0.4335 -0.5943  0.3368
36332SOL     OW13552   9.614  11.488   0.970 -0.2600 -0.0201 -0.1593
36332SOL    HW113553   9.645  11.496   1.060 -0.3818 -2.0656  0.0991
36332SOL    HW213554   9.522  11.462   0.978  0.0185 -1.2940 -0.8275
36333SOL     OW13555   9.977   8.056  10.657 -0.0792 -0.3159  0.2983
36333SOL    HW113556  10.000   7.970  10.620  0.7275 -0.5556  1.3272
36333SOL    HW213557   9.932   8.036  10.739 -0.0536  0.2443  0.4510
36334SOL     OW13558   2.662   5.069   8.832 -0.2096  0.1141  0.4132
36334SOL    HW113559   2.643   5.065   8.738  0.3487  0.9594  0.2600
36334SOL    HW213560   2.720   4.995   8.849  0.3758  0.4561 -0.0777
36335SOL     OW13561   9.466   9.074  11.152 -0.0108 -0.0219 -0.2152
36335SOL    HW113562   9.378   9.069  11.115 -0.1981  2.9168 -0.4483
36335SOL    HW213563   9.522   9.034  11.085 -1.0238 -0.7101 -0.6747
36336SOL     OW13564   2.807  10.198  11.939  0.0176  0.1794 -0.3769
36336SOL    HW113565   2.740  10.257  11.973  0.9961  1.4407 -0.5503
36336SOL    HW213566   2.761  10.143  11.875 -0.7815  1.2728 -0.7728
36337SOL     OW13567   3.215   0.598   6.430 -0.6933  0.0780  0.0310
36337SOL    HW113568   3.221   0.654   6.353 -2.4778  0.9427  0.4639
36337SOL    HW213569   3.129   0.617   6.467 -0.3664 -1.1935  1.5724
36338SOL     OW13570   7.947   4.967  10.415  0.5882 -0.8107 -0.0319
36338SOL    HW113571   7.861   5.009  10.415  0.6879 -0.5980  0.4153
36338SOL    HW213572   7.932   4.880  10.452  1.0617  0.3396  3.2079
36339SOL     OW13573   1.207  10.754   3.956  0.4248 -0.1000  0.0529
36339SOL    HW113574   1.177  10.808   3.882  1.1027  1.8454  1.1352
36339SOL    HW213575   1.127  10.711   3.987 -0.2346  0.6397 -0.5535
36340SOL     OW13576   5.669   7.314   8.868  0.5094 -0.0612 -0.5487
36340SOL    HW113577   5.660   7.331   8.962 -0.4012 -0.5482 -0.5373
36340SOL    HW213578   5.585   7.277   8.842 -0.0444  1.9880 -1.9890
36341SOL     OW13579  12.112   4.133   3.518 -0.1234 -0.0162  0.7533
36341SOL    HW113580  12.145   4.154   3.605  1.1792 -2.1402  0.8316
36341SOL    HW213581  12.085   4.041   3.523  0.9339 -0.5017 -1.3079
36342SOL     OW13582   3.547   0.485   9.740  0.2492 -0.1040 -0.1512
36342SOL    HW113583   3.454   0.494   9.720  0.0827 -2.8854 -1.1707
36342SOL    HW213584   3.582   0.573   9.733 -2.4922  1.2788  1.5490
36343SOL     OW13585   7.025   7.258  12.071  0.0192  0.4422  0.3723
36343SOL    HW113586   7.041   7.352  12.059  1.0085  0.1846 -0.5107
36343SOL    HW213587   6.988   7.251  12.159 -3.4444  2.0217 -0.7966
36344SOL     OW13588  11.790   5.692   0.397 -0.1777 -0.1514  0.2269
36344SOL    HW113589  11.790   5.692   0.493 -0.7016 -0.5936  0.2291
36344SOL    HW213590  11.745   5.611   0.373  0.7550 -0.5013 -0.4001
36345SOL     OW13591   3.272  12.036   4.545 -0.5181 -0.0094  0.3099
36345SOL    HW113592   3.246  12.128   4.540 -2.4894 -0.5304  0.1165
36345SOL    HW213593   3.189  11.988   4.551  0.3587 -1.8812 -1.3486
36346SOL     OW13594   1.570   5.622   4.420 -0.1612 -0.1646  0.4515
36346SOL    HW113595   1.572   5.689   4.352  0.0965  0.9909  1.5557
36346SOL    HW213596   1.490   5.572   4.402 -0.4030  0.4910 -0.3601
36347SOL     OW13597  11.305   3.276  10.997  0.2097  0.0838  0.3678
36347SOL    HW113598  11.350   3.354  10.966  0.0515 -0.3318 -1.0127
36347SOL    HW213599  11.257   3.244  10.920 -1.8450  0.0918  1.5806
36348SOL     OW13600   4.144   6.766   8.768  0.0929 -0.0228  0.0817
36348SOL    HW113601   4.072   6.748   8.707  2.0232 -3.3456 -1.4813
36348SOL    HW213602   4.119   6.721   8.849 -0.2282  0.1727  0.0968
36349SOL     OW13603   6.340  10.765   2.151  0.0052  0.3281  0.1782
36349SOL    HW113604   6.395  10.737   2.078  0.2391  1.3309 -0.0403
36349SOL    HW213605   6.299  10.685   2.182  0.7731 -0.2796 -0.3355
36350SOL     OW13606   8.329   4.912   5.480 -0.6399 -0.0109 -0.4369
36350SOL    HW113607   8.314   4.827   5.440 -1.3197 -0.2939  0.3840
36350SOL    HW213608   8.368   4.965   5.411  0.4809 -1.1952 -0.7633
36351SOL     OW13609   0.569   7.260   9.739 -0.1292 -0.2548  0.7641
36351SOL    HW113610   0.625   7.270   9.662 -0.9535 -0.2226  0.1490
36351SOL    HW213611   0.629   7.238   9.810  0.4870 -2.0194 -0.2427
36352SOL     OW13612   3.571   9.841   9.434 -0.8064  0.3635 -0.1680
36352SOL    HW113613   3.575   9.816   9.526  1.0824  1.4661  0.1162
36352SOL    HW213614   3.512   9.917   9.432 -0.2670  0.8066  0.2900
36353SOL     OW13615   9.856   9.726  11.688 -0.2607  0.8394 -0.1014
36353SOL    HW113616   9.874   9.817  11.709 -1.3306  1.0336  0.0258
36353SOL    HW213617   9.938   9.680  11.708  0.2005  1.7256  0.0832
36354SOL     OW13618   7.919   5.543  11.691 -0.3340 -0.4376 -0.2288
36354SOL    HW113619   7.945   5.532  11.600 -2.1898 -1.6181 -0.6757
36354SOL    HW213620   7.951   5.463  11.734 -1.3343 -0.9208 -0.3475
36355SOL     OW13621   5.973  10.332   5.759 -0.2005  0.2185  1.0652
36355SOL    HW113622   6.057  10.339   5.712 -1.1351  0.7032 -0.6061
36355SOL    HW213623   5.946  10.423   5.771 -1.5646  0.0658 -0.4961
36356SOL     OW13624   9.387  11.110   9.657  0.0004 -0.9140 -0.4926
36356SOL    HW113625   9.408  11.131   9.748  0.4861 -1.3373 -0.5037
36356SOL    HW213626   9.437  11.031   9.638 -0.3467 -1.0135 -1.0316
36357SOL     OW13627   7.621   6.091   7.833  0.1100 -0.2518 -0.0095
36357SOL    HW113628   7.579   6.046   7.760  1.1861 -0.2489 -0.6410
36357SOL    HW213629   7.703   6.124   7.798  1.4406 -1.6305  1.5699
36358SOL     OW13630   0.879   7.896   3.923 -0.5701 -0.3252 -0.6404
36358SOL    HW113631   0.943   7.950   3.876 -0.4663  0.1680  0.0506
36358SOL    HW213632   0.798   7.947   3.920 -0.9379 -0.9373 -1.4900
36359SOL     OW13633   8.954   2.488  10.478  0.2273 -0.4414 -0.3440
36359SOL    HW113634   9.045   2.472  10.501  0.1846 -0.3297 -0.0853
36359SOL    HW213635   8.936   2.576  10.513  0.3149 -0.0344 -1.2793
36360SOL     OW13636  11.409   1.294   9.558  0.1181  0.0149 -0.2103
36360SOL    HW113637  11.316   1.309   9.571 -0.1826 -1.8983  0.0969
36360SOL    HW213638  11.414   1.217   9.501  1.4835 -0.9277  1.0892
36361SOL     OW13639  10.702   7.161   1.860 -0.4135  0.4621 -0.4629
36361SOL    HW113640  10.740   7.140   1.945 -0.3579 -0.1882 -0.6474
36361SOL    HW213641  10.623   7.108   1.855  0.1053 -0.2601 -1.2335
36362SOL     OW13642   0.326  10.715   3.766 -0.0732  0.0586 -0.6514
36362SOL    HW113643   0.292  10.800   3.737  0.3683 -0.6012 -3.3620
36362SOL    HW213644   0.298  10.654   3.699  1.4493 -1.5663  0.1248
36363SOL     OW13645   5.408   8.284   6.595 -0.4434  0.6605  0.4626
36363SOL    HW113646   5.488   8.288   6.646 -0.1809  0.8699  0.0419
36363SOL    HW213647   5.419   8.351   6.528 -0.4537 -0.1340 -0.3447
36364SOL     OW13648   1.323  10.308   7.415  0.5889  0.2815  0.4917
36364SOL    HW113649   1.321  10.309   7.511 -0.0755 -0.8824  0.5053
36364SOL    HW213650   1.343  10.217   7.393  1.0441  0.6031 -0.4787
36365SOL     OW13651   9.593   0.650  11.530  0.2504  0.2338  0.0686
36365SOL    HW113652   9.570   0.720  11.591 -0.0296 -1.1890  1.6674
36365SOL    HW213653   9.600   0.572  11.585  1.2736 -0.8700 -1.5470
36366SOL     OW13654   2.531   1.607   1.847  0.3839 -0.0202  0.0031
36366SOL    HW113655   2.536   1.512   1.834  0.1627  0.0419 -0.5830
36366SOL    HW213656   2.500   1.618   1.937  1.0350 -0.4931  0.2911
36367SOL     OW13657   9.283   0.798   5.350  0.0363  0.6482 -0.4817
36367SOL    HW113658   9.300   0.868   5.288  0.4443  0.1010 -0.9961
36367SOL    HW213659   9.331   0.824   5.429  1.2923  0.3283 -1.1050
36368SOL     OW13660   8.369  10.511   2.055 -0.1664 -0.2332 -0.2108
36368SOL    HW113661   8.452  10.466   2.075 -0.3430 -0.7882 -0.6944
36368SOL    HW213662   8.304  10.463   2.106 -0.0782  0.7562  0.8693
36369SOL     OW13663   4.248  11.196   6.065  0.3421 -0.4853  0.3939
36369SOL    HW113664   4.248  11.109   6.026  3.5415 -0.0778 -0.8416
36369SOL    HW213665   4.236  11.255   5.990 -2.2471  0.2285  1.2623
36370SOL     OW13666   8.058  11.725   9.146 -0.0346  0.1704 -0.3230
36370SOL    HW113667   8.086  11.636   9.167 -1.6388  0.0691  1.7561
36370SOL    HW213668   8.023  11.719   9.057 -0.9378 -1.5234  0.1007
36371SOL     OW13669   1.562   5.251   3.146 -0.2380 -0.5769  0.1501
36371SOL    HW113670   1.631   5.232   3.083  1.3934  0.6356  1.4792
36371SOL    HW213671   1.570   5.345   3.163 -1.1186 -0.7332  1.5768
36372SOL     OW13672   1.892  10.034   8.100 -0.2708 -0.1318 -0.2814
36372SOL    HW113673   1.895  10.062   8.191  1.6411  3.4611 -1.2721
36372SOL    HW213674   1.869  10.113   8.051  1.6682 -1.1608 -3.1241
36373SOL     OW13675   2.325   3.149  11.294 -0.2056 -0.1847 -0.2675
36373SOL    HW113676   2.417   3.140  11.268 -0.3316 -0.5103 -0.6052
36373SOL    HW213677   2.298   3.234  11.258 -0.1727 -0.3065 -0.5816
36374SOL     OW13678   4.012   1.517   9.370  0.0860  0.1147  0.1402
36374SOL    HW113679   3.973   1.528   9.456 -1.3790  0.1771 -0.4949
36374SOL    HW213680   4.081   1.452   9.382  0.0016  0.2369  1.3780
36375SOL     OW13681   3.306   9.931   6.212  0.0742 -0.0630  0.5450
36375SOL    HW113682   3.295   9.921   6.117 -0.3200  0.4567  0.5305
36375SOL    HW213683   3.326  10.024   6.223 -0.0085 -0.0986  0.9845
36376SOL     OW13684   8.979   5.524   6.710 -0.4309  0.0089  0.3662
36376SOL    HW113685   8.907   5.520   6.647  0.3442  2.9131 -0.8729
36376SOL    HW213686   9.040   5.456   6.681 -1.0768 -0.1211 -0.7209
36377SOL     OW13687  10.442   8.629  11.259 -0.6454 -0.2240 -0.3737
36377SOL    HW113688  10.487   8.701  11.215 -0.9811  0.1343 -0.1341
36377SOL    HW213689  10.368   8.670  11.304 -1.6537 -0.8892 -1.3617
36378SOL     OW13690   6.716  10.971   7.799  0.2690 -0.2140 -0.0554
36378SOL    HW113691   6.671  11.029   7.860  0.8514 -0.8039  0.9674
36378SOL    HW213692   6.731  11.024   7.721  2.3092  1.6096  1.4558
36379SOL     OW13693   9.284  10.033  10.482 -0.0287  0.0880 -0.4553
36379SOL    HW113694   9.324  10.120  10.483 -1.7021  0.8969 -0.5770
36379SOL    HW213695   9.271  10.011  10.574  1.4481 -0.5812 -0.3742
36380SOL     OW13696   9.835   0.573  10.127 -0.5272 -0.3196 -0.2041
36380SOL    HW113697   9.900   0.641  10.111 -1.4273  0.9092  1.0889
36380SOL    HW213698   9.757   0.602  10.079 -0.7178 -0.8051 -0.2010
36381SOL     OW13699   7.011   9.097   5.702  0.0357 -0.2348 -0.2270
36381SOL    HW113700   6.952   9.154   5.752  0.7538  0.9177 -0.6435
36381SOL    HW213701   7.024   9.143   5.619 -0.6206 -1.8015 -1.2301
36382SOL     OW13702   6.371   9.645   5.335 -0.1009  0.6400  0.3659
36382SOL    HW113703   6.296   9.701   5.355  0.4560  1.3414  0.5214
36382SOL    HW213704   6.361   9.624   5.243 -0.3509  0.9450  0.3209
36383SOL     OW13705   5.759   3.271   7.952 -0.8256 -0.0931  1.0152
36383SOL    HW113706   5.717   3.356   7.938 -0.3158 -0.3143 -3.3811
36383SOL    HW213707   5.696   3.207   7.920 -1.0448 -1.4805  3.8900
36384SOL     OW13708   5.506   8.915  10.907  0.0897  1.0700 -0.0586
36384SOL    HW113709   5.454   8.993  10.926 -1.1440  0.5908 -1.2721
36384SOL    HW213710   5.462   8.876  10.831 -1.9102 -3.1013  2.8613
36385SOL     OW13711   3.755   0.924  10.459  0.1884  0.1791  0.2573
36385SOL    HW113712   3.760   1.018  10.481  3.1947  0.4788 -1.1117
36385SOL    HW213713   3.795   0.880  10.534  3.8011  0.5994 -1.1941
36386SOL     OW13714   3.667   7.038   7.837  0.0903  0.1749  0.4745
36386SOL    HW113715   3.712   7.108   7.885  0.6950  0.2063 -0.1346
36386SOL    HW213716   3.737   6.981   7.807 -0.1665  0.7520 -1.3338
36387SOL     OW13717   0.454   8.318   5.351 -0.6211 -0.0970  0.1273
36387SOL    HW113718   0.498   8.333   5.435 -0.8283 -1.0739  0.4269
36387SOL    HW213719   0.482   8.391   5.296 -0.2003  0.3662  0.9360
36388SOL     OW13720   6.946   6.016  11.365 -0.7088  0.0496 -0.1622
36388SOL    HW113721   6.939   5.942  11.425  0.9231  0.1877  0.2480
36388SOL    HW213722   6.926   6.092  11.419 -1.3959 -0.0001 -0.3394
36389SOL     OW13723   7.724   7.119   3.153 -0.0252 -0.2320 -0.3750
36389SOL    HW113724   7.669   7.198   3.159 -3.5545 -2.4822 -0.3340
36389SOL    HW213725   7.762   7.110   3.240 -1.0549  0.4570  0.1667
36390SOL     OW13726   3.438   0.627  11.682  0.5284  0.2264 -0.1470
36390SOL    HW113727   3.524   0.667  11.671  0.8333 -0.7655 -1.7441
36390SOL    HW213728   3.377   0.691  11.646  0.4996  1.1605  1.4697
36391SOL     OW13729   4.226   5.206   2.643  0.0470 -0.0475 -0.5338
36391SOL    HW113730   4.257   5.160   2.566 -1.5963 -0.8466 -0.7726
36391SOL    HW213731   4.219   5.139   2.711  0.6477  0.4784  0.0658
36392SOL     OW13732   0.897  11.799   7.389 -0.1180 -0.6377  0.0129
36392SOL    HW113733   0.924  11.708   7.392  0.8663 -0.4435 -1.6935
36392SOL    HW213734   0.979  11.848   7.380 -0.6865  0.3597  0.0722
36393SOL     OW13735   8.875   9.217   6.034 -0.1281  0.1233 -0.1087
36393SOL    HW113736   8.794   9.253   6.069 -0.2749  0.2493 -0.5671
36393SOL    HW213737   8.866   9.122   6.046 -0.7856  0.0527 -1.0576
36394SOL     OW13738   9.053   6.041   3.003 -0.1587 -0.0914  0.4418
36394SOL    HW113739   9.125   6.076   3.055 -0.5532  1.8364 -0.2451
36394SOL    HW213740   9.004   6.118   2.974 -0.1729 -1.0940 -2.4814
36395SOL     OW13741   9.804   8.345   0.614  0.4000 -0.1389 -0.3300
36395SOL    HW113742   9.772   8.277   0.554  3.0042 -2.6697  0.8881
36395SOL    HW213743   9.890   8.313   0.642  0.8061  2.6537  2.0599
36396SOL     OW13744   5.331   8.308   5.765  0.1612 -0.1892  0.4843
36396SOL    HW113745   5.296   8.304   5.676 -0.3922  1.3157  0.6181
36396SOL    HW213746   5.368   8.220   5.780 -2.3156 -1.4156 -0.1538
36397SOL     OW13747  11.821   2.754   1.453  0.3223 -0.3478  0.0582
36397SOL    HW113748  11.733   2.783   1.428  0.7482 -0.8805 -2.3036
36397SOL    HW213749  11.806   2.675   1.506 -0.6305  0.1287  0.5287
36398SOL     OW13750  11.496   6.086  11.861 -0.3076  0.5253  0.0738
36398SOL    HW113751  11.560   6.135  11.809 -1.2672  1.1325 -0.5636
36398SOL    HW213752  11.484   6.004  11.813  0.7472 -0.0455  0.7482
36399SOL     OW13753   2.054   7.933  10.254  0.1065  0.4649  0.5637
36399SOL    HW113754   1.960   7.939  10.269  0.2652  2.8802  0.8447
36399SOL    HW213755   2.070   7.986  10.176  1.2331  0.0462  0.4844
36400SOL     OW13756   0.337   6.375   3.353 -0.0092  0.4113 -0.1905
36400SOL    HW113757   0.265   6.313   3.345  0.9393 -0.6578 -0.8265
36400SOL    HW213758   0.377   6.355   3.438 -2.1265  2.9277  1.5374
36401SOL     OW13759   4.805   2.148   6.519  0.3814  0.5006  0.1105
36401SOL    HW113760   4.888   2.109   6.492  0.1658  0.6042 -0.7326
36401SOL    HW213761   4.814   2.161   6.613  1.2202  0.2693  0.0683
36402SOL     OW13762   8.424   9.719  11.229  0.3459  0.0610  0.3710
36402SOL    HW113763   8.413   9.678  11.315  0.8344 -0.5495  0.1472
36402SOL    HW213764   8.378   9.803  11.237 -1.1424 -0.7583  0.6547
36403SOL     OW13765   7.296   0.061   5.108  0.0715  0.6106 -0.2983
36403SOL    HW113766   7.345   0.024   5.034 -0.6589 -1.5527  0.2295
36403SOL    HW213767   7.361   0.112   5.156  1.0915  0.2353 -1.2304
36404SOL     OW13768   4.548   9.483   6.883 -0.4006  0.5556 -0.4240
36404SOL    HW113769   4.570   9.478   6.790  0.7010  1.0312 -0.2033
36404SOL    HW213770   4.632   9.497   6.927 -0.9407  0.6095  0.6217
36405SOL     OW13771   0.129   8.698   7.603 -0.0009 -0.4971  0.1611
36405SOL    HW113772   0.053   8.680   7.658 -0.3467 -0.6755 -0.3665
36405SOL    HW213773   0.151   8.613   7.565  0.7367 -0.5364  0.6449
36406SOL     OW13774   4.831   0.833   9.694 -0.1585 -0.6827 -0.4276
36406SOL    HW113775   4.795   0.746   9.675  0.1917 -0.9599  0.1547
36406SOL    HW213776   4.766   0.874   9.750 -0.7466 -0.2198 -1.4140
36407SOL     OW13777   8.573   1.540   8.578 -0.0840  0.1353 -0.6750
36407SOL    HW113778   8.520   1.507   8.652 -0.9191  1.1069 -0.8229
36407SOL    HW213779   8.518   1.608   8.538  0.8065  0.3505 -1.5521
36408SOL     OW13780   0.284   7.894   7.942  0.0437 -0.1913 -0.1770
36408SOL    HW113781   0.293   7.988   7.958 -0.6159  0.4684 -3.1245
36408SOL    HW213782   0.372   7.866   7.916 -0.3746  0.3762 -2.4127
36409SOL     OW13783   4.359  11.486   3.542  0.1436 -0.4949 -0.0793
36409SOL    HW113784   4.271  11.488   3.504 -0.1161 -0.0416  0.5351
36409SOL    HW213785   4.418  11.507   3.469 -0.3691  0.6629 -0.1778
36410SOL     OW13786   0.925   0.288  10.279  0.0684 -0.0734 -0.1027
36410SOL    HW113787   0.933   0.224  10.208 -1.4770  1.3503 -1.6581
36410SOL    HW213788   0.831   0.304  10.286  0.1842 -0.0873  2.2509
36411SOL     OW13789   5.361   0.536   1.566  0.2308 -0.3092  0.5642
36411SOL    HW113790   5.424   0.494   1.508 -0.4275  0.9160 -1.1211
36411SOL    HW213791   5.414   0.592   1.623  0.7163  0.3853 -0.5461
36412SOL     OW13792   5.493  11.658   1.487 -0.1502 -0.2849 -0.3698
36412SOL    HW113793   5.569  11.603   1.506  0.5500  0.8064  0.0630
36412SOL    HW213794   5.479  11.709   1.568 -1.6311 -0.7893 -0.2673
36413SOL     OW13795   4.855   0.448   5.521  0.6976 -0.4321  0.4884
36413SOL    HW113796   4.888   0.502   5.594  0.3548 -0.4796  0.6845
36413SOL    HW213797   4.864   0.358   5.552 -1.5241 -0.4097  1.4292
36414SOL     OW13798  10.464   5.184   1.721  0.5196 -0.7406 -0.2401
36414SOL    HW113799  10.383   5.214   1.762  1.5867  0.6813  0.9365
36414SOL    HW213800  10.435   5.123   1.653 -1.6697  0.9914 -1.0101
36415SOL     OW13801   6.254   9.760  10.025 -0.7486  0.2633 -0.1033
36415SOL    HW113802   6.188   9.690  10.020  1.3183 -1.8064 -0.1799
36415SOL    HW213803   6.266   9.788   9.934 -0.3431 -0.5299 -0.2979
36416SOL     OW13804   0.093   5.433   1.835 -0.3837  0.3654 -0.0987
36416SOL    HW113805   0.022   5.497   1.843 -0.6726  0.2116 -1.3021
36416SOL    HW213806   0.090   5.404   1.744  1.7974  0.9938 -0.4265
36417SOL     OW13807   5.169   4.047   5.455 -0.8348  0.3065  0.2389
36417SOL    HW113808   5.253   4.072   5.494 -1.4145  1.5531  0.7401
36417SOL    HW213809   5.154   3.958   5.487  0.3959 -0.0309 -0.0577
36418SOL     OW13810   1.655   8.822   0.936  0.3239 -0.2185  0.0159
36418SOL    HW113811   1.581   8.882   0.925  0.1662 -0.4186 -0.0264
36418SOL    HW213812   1.636   8.777   1.018  0.2060 -0.5418 -0.1885
36419SOL     OW13813   6.314   7.418   2.607 -0.2298 -0.4029 -0.1759
36419SOL    HW113814   6.253   7.462   2.665 -0.1526 -0.6836  0.1246
36419SOL    HW213815   6.270   7.336   2.583 -0.7820  0.2574 -1.4989
36420SOL     OW13816  10.837   6.954   2.024  0.0134 -0.3414 -0.1417
36420SOL    HW113817  10.789   6.928   2.102  1.8275 -1.8683  0.5620
36420SOL    HW213818  10.926   6.923   2.040  1.1623  1.9935 -1.5335
36421SOL     OW13819   2.920  10.559   3.452  0.0107 -0.2917 -0.1032
36421SOL    HW113820   2.838  10.513   3.434  0.6945 -1.0475 -1.4534
36421SOL    HW213821   2.915  10.639   3.398  0.6532 -0.9381 -1.1592
36422SOL     OW13822   9.073   0.601   9.083 -0.1739  0.8233  0.2556
36422SOL    HW113823   9.087   0.507   9.094 -2.3573  0.4694  0.6325
36422SOL    HW213824   9.118   0.624   9.002 -0.8253 -0.8775 -0.6240
36423SOL     OW13825   0.016  10.518  10.721  0.2074 -0.3701 -0.2150
36423SOL    HW113826   0.009  10.433  10.678 -0.9279  0.3378 -1.4992
36423SOL    HW213827  -0.063  10.565  10.694  1.1878  1.3771 -0.1439
36424SOL     OW13828   7.140   0.796   2.522 -0.0691 -0.4763 -0.7990
36424SOL    HW113829   7.052   0.809   2.486 -0.1555 -0.0151 -0.4299
36424SOL    HW213830   7.192   0.868   2.486 -0.1697  0.0210  0.0222
36425SOL     OW13831   3.399   8.233  10.626  0.4518 -0.2102 -0.4802
36425SOL    HW113832   3.493   8.251  10.617  0.7335 -1.3235  0.1664
36425SOL    HW213833   3.357   8.318  10.608  1.5369  0.1625 -1.3726
36426SOL     OW13834   5.902   4.011  11.521  0.3985 -0.2920 -0.3050
36426SOL    HW113835   5.837   3.942  11.503  1.2558 -1.6508  1.4455
36426SOL    HW213836   5.970   3.998  11.455  0.2156 -0.6839 -0.4216
36427SOL     OW13837   1.992  10.592   6.669  0.5456 -0.0837  0.5886
36427SOL    HW113838   1.990  10.667   6.609  1.3590 -0.5105  0.0027
36427SOL    HW213839   1.983  10.516   6.611  2.4729 -0.5641  0.8442
36428SOL     OW13840   6.468  10.261   3.540 -0.2027 -0.0407  0.7034
36428SOL    HW113841   6.473  10.325   3.611 -1.6777  0.0494  0.7556
36428SOL    HW213842   6.391  10.288   3.489  0.9003 -0.0108 -1.0339
36429SOL     OW13843  10.657   0.118   8.561  0.3849 -0.2314  0.5531
36429SOL    HW113844  10.741   0.098   8.521  0.1464  0.2339 -0.1866
36429SOL    HW213845  10.646   0.049   8.628  0.3115 -1.6380 -0.8513
36430SOL     OW13846   2.294  11.933   4.563  0.3649 -0.3311 -0.2660
36430SOL    HW113847   2.234  11.874   4.517  0.4256 -1.0244  0.5259
36430SOL    HW213848   2.363  11.952   4.499  1.2884 -2.5143  0.0030
36431SOL     OW13849   8.847   8.660   2.192 -0.1085  0.3181  0.2328
36431SOL    HW113850   8.866   8.753   2.181  0.4084  0.2652  0.6435
36431SOL    HW213851   8.884   8.618   2.115 -3.6077  0.8348 -1.9527
36432SOL     OW13852   0.081  11.923   6.956 -0.4866 -0.6237 -0.4133
36432SOL    HW113853   0.000  11.924   6.905 -0.0906 -1.3168 -1.0847
36432SOL    HW213854   0.150  11.913   6.890  0.1450 -0.0907  0.1553
36433SOL     OW13855   5.563   0.307   8.920 -0.4380 -0.4003 -0.5881
36433SOL    HW113856   5.468   0.314   8.923 -0.3699  0.4433 -0.0210
36433SOL    HW213857   5.591   0.325   9.010  0.4103  2.2717 -1.2850
36434SOL     OW13858   7.976   0.292   9.219 -0.2600  0.3210  0.4464
36434SOL    HW113859   7.889   0.331   9.218 -0.8085 -0.8782  0.5402
36434SOL    HW213860   7.975   0.227   9.149  0.0495 -0.7565  1.4041
36435SOL     OW13861   8.834   1.350   6.876 -0.0856 -0.3971 -0.6169
36435SOL    HW113862   8.917   1.387   6.906 -0.6305  0.5839 -0.2714
36435SOL    HW213863   8.791   1.318   6.956 -0.9129  0.9342 -0.4913
36436SOL     OW13864   9.772  11.105   4.157  0.1785  0.0121 -0.2303
36436SOL    HW113865   9.676  11.114   4.151  0.3379  2.6310 -0.1470
36436SOL    HW213866   9.794  11.146   4.241  1.3902 -0.4606 -0.3097
36437SOL     OW13867   5.390   7.250   0.661 -0.2864  0.2000 -0.0633
36437SOL    HW113868   5.319   7.308   0.689 -1.2774 -0.5673 -0.9001
36437SOL    HW213869   5.378   7.242   0.566  0.5094 -0.4889 -0.1193
36438SOL     OW13870   4.391   4.318   6.159  0.3128 -0.0911 -0.5542
36438SOL    HW113871   4.400   4.317   6.255 -0.5389 -1.2917 -0.4615
36438SOL    HW213872   4.479   4.335   6.127  0.6986 -0.1318  0.4396
36439SOL     OW13873   8.249  11.189   8.912  0.2608 -0.0139  0.2917
36439SOL    HW113874   8.252  11.181   9.008 -0.2285  2.7865  0.6361
36439SOL    HW213875   8.337  11.166   8.883  0.1193 -1.9410  1.2813
36440SOL     OW13876  10.491   2.213   2.919 -0.0681 -0.0080 -0.4902
36440SOL    HW113877  10.439   2.149   2.968  1.5200 -0.6582  0.4020
36440SOL    HW213878  10.479   2.295   2.968  0.9681 -0.5055  0.6509
36441SOL     OW13879   5.398   1.096   5.042 -0.2256 -0.7705  0.3594
36441SOL    HW113880   5.418   1.099   4.948 -0.0970 -2.0826  0.3362
36441SOL    HW213881   5.330   1.030   5.051  0.0913 -0.9976  1.2454
36442SOL     OW13882   7.362   5.838   5.582  0.2500 -0.2173 -0.2526
36442SOL    HW113883   7.361   5.774   5.652 -2.6369  0.2067  0.1885
36442SOL    HW213884   7.453   5.870   5.580  0.7950 -1.4369  2.1326
36443SOL     OW13885  11.363   0.453   7.688 -0.1496  0.4115 -0.0094
36443SOL    HW113886  11.314   0.375   7.662 -1.0457  1.6334 -2.3790
36443SOL    HW213887  11.295   0.518   7.708  0.5366  0.2234  3.6627
36444SOL     OW13888  11.524   6.560  11.329  0.0666  0.1466  0.5336
36444SOL    HW113889  11.514   6.498  11.401 -1.9577 -1.0401 -0.6667
36444SOL    HW213890  11.486   6.641  11.362  0.2915 -0.0182  1.2178
36445SOL     OW13891   6.706   8.001   8.151  0.0941 -0.2742  0.1970
36445SOL    HW113892   6.714   8.017   8.057 -0.5436  1.0488  0.3403
36445SOL    HW213893   6.650   7.923   8.158 -1.1739  0.5479 -0.5195
36446SOL     OW13894   3.258   3.758   7.644 -0.1519 -0.0863  0.4129
36446SOL    HW113895   3.332   3.753   7.583 -0.5436 -0.2587 -0.0517
36446SOL    HW213896   3.298   3.781   7.728  0.2343  1.9850 -0.2730
36447SOL     OW13897  11.478   9.974  11.480  0.0417  0.6708  0.7634
36447SOL    HW113898  11.564   9.937  11.498 -0.2784  0.7893  2.7303
36447SOL    HW213899  11.460  10.032  11.554 -2.5013 -0.7679  1.4121
36448SOL     OW13900   1.597   5.250   2.707 -0.1010 -0.0789 -0.0298
36448SOL    HW113901   1.526   5.304   2.740 -0.6233 -0.0463 -1.1915
36448SOL    HW213902   1.573   5.161   2.732 -0.0040  0.0414  0.5168
36449SOL     OW13903   7.828   7.867   4.716 -0.6857  0.3129  0.1482
36449SOL    HW113904   7.860   7.779   4.737 -1.4409  0.0671  0.2943
36449SOL    HW213905   7.814   7.865   4.621  0.5727  0.7075 -0.0581
36450SOL     OW13906   3.976   1.588  10.348  0.0155 -0.1027  0.1592
36450SOL    HW113907   3.883   1.608  10.342  0.5912  3.9783  1.6411
36450SOL    HW213908   4.012   1.618  10.264  0.2883  0.5165  0.4961
36451SOL     OW13909   8.028   5.764  11.044  0.2514  0.0761  0.2368
36451SOL    HW113910   7.995   5.774  10.954 -0.0239 -5.0888 -0.5310
36451SOL    HW213911   7.951   5.776  11.099 -1.0357 -2.5538 -0.8270
36452SOL     OW13912   7.217   7.546   7.363  0.0502  0.2049 -0.1681
36452SOL    HW113913   7.208   7.453   7.381  0.1930  0.2003 -0.1239
36452SOL    HW213914   7.129   7.582   7.377  0.2090  0.2474  0.7821
36453SOL     OW13915   9.101   9.577   5.103  0.5724 -0.1384  0.1609
36453SOL    HW113916   9.151   9.622   5.035 -1.3124 -1.6776 -2.4394
36453SOL    HW213917   9.158   9.507   5.134  1.1194 -0.0317 -0.5852
36454SOL     OW13918   5.074   1.997   2.228 -0.7663 -0.0524 -0.8829
36454SOL    HW113919   5.100   2.036   2.312  1.9092  0.3531 -1.8239
36454SOL    HW213920   5.037   2.071   2.179 -0.4518  0.1578 -0.8053
36455SOL     OW13921   3.921   3.350   2.526 -0.3399  0.2231 -0.2515
36455SOL    HW113922   3.840   3.393   2.554 -1.0549 -0.6354 -0.9579
36455SOL    HW213923   3.932   3.376   2.435 -1.6721 -2.3120 -1.2201
36456SOL     OW13924   3.552   7.347   4.378 -0.2713  0.2094 -0.0160
36456SOL    HW113925   3.538   7.388   4.463  0.8837  1.4232 -0.3815
36456SOL    HW213926   3.502   7.401   4.317  1.8589  1.6499 -0.6104
36457SOL     OW13927   8.340   2.210  11.073  0.1667  0.3438 -0.5680
36457SOL    HW113928   8.250   2.180  11.089  0.2814  0.0575 -0.4416
36457SOL    HW213929   8.369   2.244  11.157 -0.3526  1.8825 -0.9783
36458SOL     OW13930   5.235   4.103  10.848 -0.5628 -0.1316  0.0293
36458SOL    HW113931   5.177   4.058  10.909 -0.2509  1.4532  1.5624
36458SOL    HW213932   5.315   4.119  10.899  0.5841 -0.6931 -1.4913
36459SOL     OW13933   0.337   1.737   5.554 -0.2403 -0.3196 -0.0027
36459SOL    HW113934   0.289   1.655   5.538  0.8887 -0.6225 -2.2911
36459SOL    HW213935   0.353   1.772   5.466  0.6513  1.5748  0.8700
36460SOL     OW13936   8.896   9.566   9.453  0.1568  0.1000  0.0238
36460SOL    HW113937   8.875   9.511   9.377 -1.4860  1.1673 -0.3526
36460SOL    HW213938   8.834   9.638   9.448  0.9334  0.9340  1.6337
36461SOL     OW13939  10.891  11.299   7.639  0.1101  0.3101 -0.3286
36461SOL    HW113940  10.917  11.374   7.586 -2.3902  0.6326 -1.2295
36461SOL    HW213941  10.821  11.332   7.695 -0.1194 -1.0321  0.2085
36462SOL     OW13942   7.942   7.888   9.073  0.5422 -0.0116  0.2423
36462SOL    HW113943   7.862   7.863   9.028  1.1634 -0.1629 -0.8231
36462SOL    HW213944   7.985   7.805   9.093  1.5368  0.0745 -1.3101
36463SOL     OW13945   8.731   3.965   5.977  0.1901  0.4311  0.2244
36463SOL    HW113946   8.733   3.870   5.966  1.0920  0.0764  2.8220
36463SOL    HW213947   8.672   3.980   6.050  0.5459  1.8232  0.2551
36464SOL     OW13948   2.712  10.080   6.137  0.5198  0.3899  1.3083
36464SOL    HW113949   2.644  10.013   6.136 -1.4009  2.1259 -1.8074
36464SOL    HW213950   2.694  10.131   6.216  0.2738 -1.0233  2.2080
36465SOL     OW13951   9.776  11.500   1.826 -0.8922 -0.3505 -0.1378
36465SOL    HW113952   9.832  11.499   1.749  0.9165  2.4298  0.9934
36465SOL    HW213953   9.687  11.512   1.792 -0.5542 -2.2264 -1.8498
36466SOL     OW13954   4.633   0.297   6.978 -0.3128 -0.4453 -0.2904
36466SOL    HW113955   4.664   0.306   7.068 -1.8631 -1.8224  0.4460
36466SOL    HW213956   4.590   0.211   6.976 -2.2913  0.5000 -1.7086
36467SOL     OW13957   7.025   2.341   2.070 -0.5515  0.4234 -0.3934
36467SOL    HW113958   7.066   2.413   2.022 -0.7985 -0.1512 -1.5065
36467SOL    HW213959   7.019   2.372   2.160 -2.0806  2.4145 -1.1073
36468SOL     OW13960   4.773   9.334  10.114  0.1469 -0.0107  0.2069
36468SOL    HW113961   4.787   9.303  10.025 -0.3619  0.2819  0.0226
36468SOL    HW213962   4.839   9.402  10.127  0.1647  0.0055  0.0252
36469SOL     OW13963   8.048   1.803   2.918  0.7499 -0.0216 -0.0705
36469SOL    HW113964   8.136   1.831   2.942  0.1131  1.5085  0.5993
36469SOL    HW213965   7.991   1.841   2.984 -0.5857  0.3545 -1.3695
36470SOL     OW13966   7.764   9.491   5.959  0.8389 -0.4142 -0.2396
36470SOL    HW113967   7.823   9.485   6.034 -0.3902 -1.4953  0.7114
36470SOL    HW213968   7.697   9.553   5.987  1.0329  0.1130 -0.9389
36471SOL     OW13969  11.402   3.538   7.442  0.0278  0.1525  0.1097
36471SOL    HW113970  11.443   3.547   7.528 -0.7555 -0.2117  0.5244
36471SOL    HW213971  11.459   3.589   7.384  0.5782  0.3830  0.8289
36472SOL     OW13972   2.523  11.145   3.140  0.0000  0.2097 -0.4465
36472SOL    HW113973   2.543  11.075   3.077  1.1909 -0.5269  0.6984
36472SOL    HW213974   2.439  11.120   3.178 -0.2849  0.1823 -1.0781
36473SOL     OW13975  10.596   1.427   3.608  0.3430 -0.1825 -0.0832
36473SOL    HW113976  10.558   1.371   3.676  0.9377 -0.2990  0.1552
36473SOL    HW213977  10.534   1.421   3.535 -0.5575  0.3437  0.6203
36474SOL     OW13978   8.601   5.251  10.409 -0.2118  0.1076  0.1550
36474SOL    HW113979   8.670   5.313  10.432 -0.3953  0.0252  0.9877
36474SOL    HW213980   8.596   5.254  10.314  0.6330  0.4456  0.1117
36475SOL     OW13981   2.176  10.041   4.494  0.1186 -0.6601 -0.4154
36475SOL    HW113982   2.213  10.032   4.582  1.6394  2.6587 -0.5865
36475SOL    HW213983   2.166   9.950   4.464 -1.3134 -1.9783  3.4087
36476SOL     OW13984   5.095   5.968   5.639  0.1583  0.3502 -0.7902
36476SOL    HW113985   5.035   5.944   5.710  0.9641  0.0234 -0.1954
36476SOL    HW213986   5.089   6.064   5.634 -0.0590  0.3606 -0.4021
36477SOL     OW13987   6.196   4.240   9.815  0.1717  0.3557  0.5722
36477SOL    HW113988   6.102   4.237   9.797  0.1062 -2.9439  0.9044
36477SOL    HW213989   6.237   4.209   9.734  1.1036  2.4046  0.1865
36478SOL     OW13990   7.524   0.134   0.641 -0.2298  0.3425 -0.0793
36478SOL    HW113991   7.443   0.173   0.608 -1.6635 -2.7317 -0.4968
36478SOL    HW213992   7.517   0.142   0.736 -0.6498  0.7762 -0.1432
36479SOL     OW13993   3.788   2.651   6.193 -0.3037 -0.0791 -0.2810
36479SOL    HW113994   3.821   2.651   6.283 -0.9612  0.1207 -0.0293
36479SOL    HW213995   3.693   2.650   6.203 -0.4064  0.9136 -0.9586
36480SOL     OW13996   9.425   3.707   8.224  0.1521 -0.4559 -0.1155
36480SOL    HW113997   9.477   3.788   8.225  0.6193 -0.7446  1.0793
36480SOL    HW213998   9.482   3.642   8.264 -1.1641 -0.7496  1.3766
36481SOL     OW13999   0.106   6.081   4.896  0.3961 -0.1236  0.0645
36481SOL    HW114000   0.015   6.064   4.870  0.4637  1.0894 -1.0968
36481SOL    HW214001   0.104   6.169   4.934  0.7118 -1.0005  2.2216
36482SOL     OW14002   1.297   8.049   1.440  0.0116  0.0854 -0.6992
36482SOL    HW114003   1.327   8.076   1.354 -0.4502  1.3745 -0.4804
36482SOL    HW214004   1.340   7.965   1.456  1.7119  0.8059 -1.3131
36483SOL     OW14005   3.137   8.731   4.835  0.2129 -0.1227  0.1877
36483SOL    HW114006   3.232   8.742   4.837  0.4925 -1.7546 -1.3542
36483SOL    HW214007   3.116   8.718   4.743 -1.6112  0.8301  0.4229
36484SOL     OW14008   8.030  11.814  11.764 -0.1531  0.3766 -0.4381
36484SOL    HW114009   8.114  11.798  11.807 -1.5354 -1.8223  1.7724
36484SOL    HW214010   8.027  11.750  11.693 -0.0417  0.3000 -0.3742
36485SOL     OW14011   2.468   4.636   9.735 -0.5583 -0.1629  0.2137
36485SOL    HW114012   2.550   4.647   9.783 -0.9551  0.2466  0.8174
36485SOL    HW214013   2.445   4.544   9.746  0.2727 -0.4975 -0.7170
36486SOL     OW14014   6.193   6.540   2.497  0.6437 -0.4437 -0.1187
36486SOL    HW114015   6.115   6.578   2.536  1.2039 -1.1954  1.8530
36486SOL    HW214016   6.202   6.584   2.412 -1.4784  0.1691 -0.0740
36487SOL     OW14017   7.496   1.564   2.905  0.1773 -0.1159  0.2320
36487SOL    HW114018   7.587   1.596   2.909 -0.1307  0.7062  2.1296
36487SOL    HW214019   7.473   1.550   2.997 -1.4620 -0.8261 -0.2644
36488SOL     OW14020  11.308   4.135   9.041 -0.1987  0.8042  0.0541
36488SOL    HW114021  11.321   4.130   8.946 -1.2287  0.2806 -0.0709
36488SOL    HW214022  11.301   4.044   9.068  1.8620  0.8407  0.9225
36489SOL     OW14023   4.407   8.754   8.881  0.2662  0.3144  0.0104
36489SOL    HW114024   4.336   8.691   8.877  0.3550  0.2835 -2.7870
36489SOL    HW214025   4.487   8.700   8.883  0.2854  0.3617  1.0782
36490SOL     OW14026  11.817   0.592   4.036 -0.1946  0.1296  0.0367
36490SOL    HW114027  11.850   0.657   4.097 -1.9249 -0.3128  1.5256
36490SOL    HW214028  11.809   0.639   3.953  1.0679  1.0614  0.4116
36491SOL     OW14029   9.253   1.153   5.050 -0.7931  0.0147 -0.0793
36491SOL    HW114030   9.208   1.197   5.122 -1.1304 -0.3722 -0.0467
36491SOL    HW214031   9.290   1.223   4.998  0.4034  0.2743  1.0667
36492SOL     OW14032   8.627  10.995   7.204 -0.0996 -0.1558  0.5947
36492SOL    HW114033   8.599  11.020   7.292 -1.7079 -0.7639  0.2869
36492SOL    HW214034   8.677  11.070   7.173 -0.4325  0.5146  1.6250
36493SOL     OW14035   1.396   7.759   7.793 -0.8218  0.0600 -0.0135
36493SOL    HW114036   1.428   7.717   7.713 -0.2684 -1.9061  1.1837
36493SOL    HW214037   1.325   7.703   7.824 -1.1695  0.9008  0.7977
36494SOL     OW14038   6.032   7.230   7.585  0.0377  0.4977 -0.4474
36494SOL    HW114039   6.052   7.173   7.660 -1.3314  0.6742  0.0810
36494SOL    HW214040   6.118   7.254   7.550  0.7599  0.8965  1.4401
36495SOL     OW14041   9.030  12.120   3.950  0.7863  0.0179  0.1321
36495SOL    HW114042   8.974  12.194   3.973  2.6643  1.7297 -0.4667
36495SOL    HW214043   8.970  12.048   3.933 -1.1276  1.3987  0.7217
36496SOL     OW14044   8.716   2.989   7.257  0.3142 -0.3146 -0.3326
36496SOL    HW114045   8.719   3.039   7.176 -1.6716 -0.2828 -0.4280
36496SOL    HW214046   8.647   3.031   7.309  1.7298 -0.1576  1.5193
36497SOL     OW14047  10.971   4.044   5.920  0.4370 -0.9160  0.0628
36497SOL    HW114048  11.044   4.070   5.864  0.7665 -1.9364 -0.0101
36497SOL    HW214049  10.929   4.126   5.945 -0.2670 -0.4539 -2.3824
36498SOL     OW14050  11.462   6.950  10.775  0.1383  0.3401  0.3026
36498SOL    HW114051  11.407   6.874  10.791  0.7387 -0.8247 -2.4963
36498SOL    HW214052  11.460   6.961  10.680 -0.2715  4.1466  0.6023
36499SOL     OW14053   6.762   7.300   1.329 -0.6489 -0.0918 -0.0332
36499SOL    HW114054   6.800   7.343   1.253  0.1344 -0.9413 -0.1351
36499SOL    HW214055   6.683   7.256   1.296 -0.7404  0.1893 -0.1875
36500SOL     OW14056   2.063   5.434   6.528 -0.0426  0.4304 -0.4674
36500SOL    HW114057   2.017   5.502   6.579  0.4972  1.2651 -1.0601
36500SOL    HW214058   1.998   5.403   6.466 -0.6204 -0.3857  0.5171
36501SOL     OW14059   5.251   6.662   3.770 -0.6954 -0.0192 -0.3582
36501SOL    HW114060   5.182   6.661   3.703 -0.8235  0.7284 -0.2479
36501SOL    HW214061   5.233   6.740   3.822  0.3026  0.2583 -0.3969
36502SOL     OW14062   1.328   4.698   3.094  0.0627  0.4892  0.6991
36502SOL    HW114063   1.336   4.623   3.153 -1.3774  0.7953  1.3144
36502SOL    HW214064   1.238   4.695   3.062  1.1516 -0.4984 -2.6920
36503SOL     OW14065  10.670   6.393   8.080 -0.8796 -0.7993  0.3814
36503SOL    HW114066  10.684   6.423   7.990  0.0718 -2.1583  0.0325
36503SOL    HW214067  10.620   6.312   8.070 -0.8901 -0.8821  1.0821
36504SOL     OW14068   6.359  11.596   2.193  0.3062  0.1173 -0.5092
36504SOL    HW114069   6.389  11.687   2.189  0.2052  0.1471 -0.6226
36504SOL    HW214070   6.407  11.552   2.123  0.2053  0.1294 -0.5864
36505SOL     OW14071   5.674   7.022  11.510 -0.1223  0.0028  0.2066
36505SOL    HW114072   5.682   6.930  11.486 -2.1591 -0.7667  2.1545
36505SOL    HW214073   5.599   7.053  11.458 -0.2251  0.2116  0.4809
36506SOL     OW14074   7.850   9.081   3.700  0.7347  0.1277 -0.1316
36506SOL    HW114075   7.800   9.040   3.771 -0.7475  1.1418 -0.5237
36506SOL    HW214076   7.869   9.009   3.639  0.6049 -0.4567  0.5032
36507SOL     OW14077   7.701   9.017  11.665  0.2796  0.2961 -0.0648
36507SOL    HW114078   7.618   8.982  11.632  0.0468 -0.1801  0.9993
36507SOL    HW214079   7.688   9.111  11.668 -1.0648  0.0915  2.2588
36508SOL     OW14080   4.303   3.128   9.529  0.6284  0.8623  0.4919
36508SOL    HW114081   4.340   3.202   9.480  0.6886  0.6835  0.2675
36508SOL    HW214082   4.238   3.168   9.587 -1.3758  0.8090 -1.5890
36509SOL     OW14083   2.406   7.832  11.063  0.3413 -0.1641 -0.0834
36509SOL    HW114084   2.389   7.893  10.991  0.7108  1.6406  1.2998
36509SOL    HW214085   2.469   7.877  11.119  0.6851 -1.8555  0.9799
36510SOL     OW14086   2.030   5.591   7.871  0.1757  0.3812 -0.0371
36510SOL    HW114087   1.967   5.568   7.803 -0.5912 -1.0726  1.0849
36510SOL    HW214088   2.014   5.683   7.889 -1.4471  0.1191 -0.0023
36511SOL     OW14089  11.407   0.771  11.456 -0.5955 -0.2104 -0.0653
36511SOL    HW114090  11.418   0.707  11.526  0.2910  3.1550  3.2356
36511SOL    HW214091  11.321   0.810  11.474 -0.6387  0.2675 -1.2610
36512SOL     OW14092  12.050   5.983   6.864  0.5167  0.3238 -0.1401
36512SOL    HW114093  11.957   5.998   6.849 -0.0506 -2.0397  0.5957
36512SOL    HW214094  12.092   6.005   6.781 -0.6972  1.3902 -0.4854
36513SOL     OW14095   9.995   2.634   0.971 -0.2358  0.0816  0.2838
36513SOL    HW114096  10.003   2.554   1.024  0.8836  0.0513  0.0944
36513SOL    HW214097  10.030   2.703   1.028 -1.1852  0.4421  0.4415
36514SOL     OW14098   8.320  11.529   5.437  0.0208  0.1613 -0.5095
36514SOL    HW114099   8.297  11.438   5.458  1.9238 -0.0878  0.8494
36514SOL    HW214100   8.261  11.581   5.491 -1.9442 -0.1839 -2.2389
36515SOL     OW14101   1.488   5.369   4.136  0.2779  0.7578  0.0738
36515SOL    HW114102   1.449   5.377   4.223  0.2966  1.7868 -0.0000
36515SOL    HW214103   1.432   5.422   4.079  0.0007 -0.2759 -0.6464
36516SOL     OW14104   1.629   6.888   7.684 -0.1521  0.3365  0.0581
36516SOL    HW114105   1.606   6.796   7.698 -0.7742  0.5842  0.7703
36516SOL    HW214106   1.632   6.898   7.589 -2.8131  0.1886 -0.1389
36517SOL     OW14107   5.387   2.170   4.747  0.2319 -0.1393  0.0584
36517SOL    HW114108   5.386   2.149   4.841  0.2846 -0.2298  0.0396
36517SOL    HW214109   5.474   2.142   4.717  0.2634  0.0122  0.0095
36518SOL     OW14110   6.578   3.588   9.288  1.0501  0.4441  0.3292
36518SOL    HW114111   6.604   3.510   9.240  0.1711 -0.0332  0.5929
36518SOL    HW214112   6.496   3.562   9.332  1.8872  0.7962  2.1991
36519SOL     OW14113   7.847   2.403   9.196 -0.3852 -0.7651 -0.9578
36519SOL    HW114114   7.849   2.473   9.130  0.8554  1.2249  1.0331
36519SOL    HW214115   7.789   2.436   9.264  1.0903 -1.1210  0.5373
36520SOL     OW14116   6.310   8.779   2.060  0.5653  0.5070  0.6004
36520SOL    HW114117   6.242   8.744   2.002  0.8773 -1.0846  1.1356
36520SOL    HW214118   6.262   8.816   2.134  0.2346 -1.9109  1.6940
36521SOL     OW14119   0.654   6.501   0.329 -0.3224 -0.7738  0.2581
36521SOL    HW114120   0.745   6.531   0.328 -0.6794  0.3833 -0.5974
36521SOL    HW214121   0.647   6.443   0.252 -0.5401 -0.0592 -0.2726
36522SOL     OW14122   5.674   1.778   5.629 -0.3680  0.5644  0.6780
36522SOL    HW114123   5.619   1.857   5.633 -0.5912  0.4474  0.0368
36522SOL    HW214124   5.760   1.808   5.659 -0.2893  1.2049 -0.1543
36523SOL     OW14125   5.630   4.464   5.365  0.1059  0.0991 -0.0232
36523SOL    HW114126   5.615   4.505   5.279  2.1952  0.0983 -0.4516
36523SOL    HW214127   5.551   4.413   5.381 -1.5195  2.2711 -0.6481
36524SOL     OW14128  11.349   7.513  11.904  0.0983 -0.1964  0.5421
36524SOL    HW114129  11.368   7.447  11.970 -0.0506 -0.3435  0.4400
36524SOL    HW214130  11.303   7.465  11.835  0.9364 -0.2096 -0.0188
36525SOL     OW14131   0.433   5.095   6.107  0.9244 -0.1440  0.2576
36525SOL    HW114132   0.412   5.006   6.081  3.6744 -0.9928  0.6482
36525SOL    HW214133   0.388   5.150   6.044  0.5345 -1.8568 -1.0249
36526SOL     OW14134   9.220   2.326   0.701  0.0083 -0.4365 -0.6148
36526SOL    HW114135   9.313   2.309   0.717  0.2612  1.0674 -0.3228
36526SOL    HW214136   9.175   2.287   0.776  0.6463  1.0063  0.5636
36527SOL     OW14137   3.765   2.530   2.934  0.9837  0.1983 -0.0171
36527SOL    HW114138   3.766   2.484   3.018  1.2273  1.6209  0.7957
36527SOL    HW214139   3.854   2.520   2.900  0.4397 -1.8535 -0.9886
36528SOL     OW14140   9.185   6.807   7.803  0.5426 -0.5501 -0.4053
36528SOL    HW114141   9.208   6.818   7.895  1.2601 -0.3109 -0.6042
36528SOL    HW214142   9.097   6.770   7.804  0.4309 -0.2760  0.3701
36529SOL     OW14143   1.096   7.331   6.874 -0.0491  0.2561  0.0904
36529SOL    HW114144   1.155   7.332   6.949  0.6006  1.0252 -0.4070
36529SOL    HW214145   1.117   7.250   6.827  2.6494  1.8023 -1.6067
36530SOL     OW14146   2.053   9.565   5.670  0.0672 -0.4126  0.0442
36530SOL    HW114147   2.089   9.498   5.613  0.2003 -0.4842  0.2099
36530SOL    HW214148   2.081   9.648   5.631  0.4596 -0.4703  0.2011
36531SOL     OW14149   8.489   7.351   8.413  0.3372  0.3062  0.1179
36531SOL    HW114150   8.524   7.275   8.365 -1.3346 -1.6831  1.8249
36531SOL    HW214151   8.504   7.425   8.354 -0.2734 -1.7208 -2.8453
36532SOL     OW14152   5.005   2.315   2.478  0.3905  0.2190  0.3488
36532SOL    HW114153   5.049   2.390   2.439 -0.2376 -0.4531 -1.7772
36532SOL    HW214154   4.938   2.354   2.535  2.2417  1.2244  1.9533
36533SOL     OW14155   2.814  11.587  11.757 -0.3268  0.3481 -0.6284
36533SOL    HW114156   2.861  11.670  11.750 -2.8389  1.9816  0.1847
36533SOL    HW214157   2.878  11.520  11.733  2.0384  2.4390 -0.5294
36534SOL     OW14158   0.063  10.913   7.123 -1.1306  0.7722 -0.4120
36534SOL    HW114159   0.095  11.003   7.115 -2.1427  1.0288 -1.9574
36534SOL    HW214160  -0.028  10.921   7.150 -1.0849  0.1846 -0.0606
36535SOL     OW14161   9.870   4.657  10.438 -0.8770  0.0507 -0.4604
36535SOL    HW114162   9.811   4.696  10.374  0.6965  0.4361 -1.7432
36535SOL    HW214163   9.895   4.730  10.494 -2.2686 -0.2900  0.6615
36536SOL     OW14164   1.933   6.606  10.504 -0.4698  0.3008 -0.1399
36536SOL    HW114165   1.989   6.541  10.461 -0.0110 -0.2374  1.2024
36536SOL    HW214166   1.958   6.689  10.465  1.6470  0.1529  0.7265
36537SOL     OW14167   8.801   9.464   8.405  0.3802 -0.0415 -0.2371
36537SOL    HW114168   8.763   9.439   8.490  1.2222  0.2403  0.2341
36537SOL    HW214169   8.794   9.560   8.403  2.6923  0.2123  0.6889
36538SOL     OW14170   4.899   0.508   1.965  0.0176  0.4566  0.5693
36538SOL    HW114171   4.980   0.559   1.959 -0.7282  1.5541 -1.0296
36538SOL    HW214172   4.878   0.505   2.058  2.0718 -0.1953  1.0632
36539SOL     OW14173   5.834   8.160   8.114  0.4174  0.1648 -0.0628
36539SOL    HW114174   5.889   8.239   8.105  1.3491 -0.4934 -0.3304
36539SOL    HW214175   5.894   8.093   8.147 -0.7381 -0.0285  1.8109
36540SOL     OW14176  10.337   2.011   5.428 -0.4434  0.1450  0.6604
36540SOL    HW114177  10.363   1.919   5.426  1.1185  0.5422  1.4153
36540SOL    HW214178  10.257   2.015   5.375 -0.6631 -1.6735  0.8078
36541SOL     OW14179   2.438   8.910   2.882 -0.5020 -0.0430 -0.4003
36541SOL    HW114180   2.486   8.916   2.964  0.8873  2.6240 -1.2929
36541SOL    HW214181   2.443   8.817   2.858  3.0927 -0.1678  0.2941
36542SOL     OW14182   4.031   5.749   9.195  0.3676  0.1001 -0.0622
36542SOL    HW114183   4.069   5.673   9.239 -0.9913 -0.9434 -0.5883
36542SOL    HW214184   4.090   5.767   9.122  0.0713 -1.2720 -0.6787
36543SOL     OW14185   3.556   6.912   3.719  0.3108 -0.7811  0.0259
36543SOL    HW114186   3.490   6.978   3.738  0.6418 -0.1399 -0.9651
36543SOL    HW214187   3.605   6.903   3.800 -0.2810 -0.4475  0.4312
36544SOL     OW14188   2.508   9.669   3.613 -0.5708 -0.0640  0.0965
36544SOL    HW114189   2.565   9.666   3.536  1.4661 -0.8634  1.5282
36544SOL    HW214190   2.456   9.588   3.608  0.4474 -0.7409  0.1608
36545SOL     OW14191  11.388  12.002  12.113  0.1499  0.6474 -0.4376
36545SOL    HW114192  11.340  11.970  12.190 -1.1606  1.1277 -1.0228
36545SOL    HW214193  11.406  11.923  12.062  0.6984  0.3708  0.1676
36546SOL     OW14194   1.939   9.306   0.035  0.1990  0.0763  0.0389
36546SOL    HW114195   1.908   9.301   0.125 -0.0989 -2.8462 -0.1536
36546SOL    HW214196   2.033   9.290   0.040 -0.0617 -1.6955 -0.2595
36547SOL     OW14197   5.108   3.727   8.747  0.7782  0.3640 -0.1105
36547SOL    HW114198   5.129   3.763   8.660 -0.4560  0.2451 -0.4729
36547SOL    HW214199   5.013   3.716   8.746  0.5457  1.7880  1.8176
36548SOL     OW14200   6.276   4.189   5.299 -0.3678  0.0479 -0.1473
36548SOL    HW114201   6.191   4.144   5.301  0.4753 -1.6394 -0.1231
36548SOL    HW214202   6.339   4.119   5.279  0.9708  1.3381 -0.6030
36549SOL     OW14203  10.302  11.404   8.114 -0.2341  0.1903 -0.2716
36549SOL    HW114204  10.380  11.427   8.064 -0.3297 -0.3025 -0.6553
36549SOL    HW214205  10.243  11.478   8.101  0.4151  0.8762  0.5713
36550SOL     OW14206   1.191   1.945   0.350 -0.5082  0.0917 -0.0242
36550SOL    HW114207   1.100   1.962   0.327 -1.3363 -1.0964  2.1560
36550SOL    HW214208   1.191   1.858   0.388  1.3231  0.5696  1.2195
36551SOL     OW14209   4.640   4.428   3.634 -0.8075  0.9325  0.0526
36551SOL    HW114210   4.663   4.343   3.597 -0.0975  2.1535 -2.5908
36551SOL    HW214211   4.616   4.410   3.725 -1.3534 -2.1514 -0.6033
36552SOL     OW14212   2.721  12.012   1.957  0.2927 -0.1119 -0.9689
36552SOL    HW114213   2.720  12.083   1.892  0.3516  0.1507 -0.6845
36552SOL    HW214214   2.697  12.054   2.039  0.8495 -0.3205 -0.6943
36553SOL     OW14215   2.053   3.465  11.906  0.1363 -0.5808  0.1759
36553SOL    HW114216   2.117   3.500  11.968 -0.6645  1.8634 -0.2571
36553SOL    HW214217   2.020   3.385  11.947  1.1527 -0.1734  1.8828
36554SOL     OW14218  11.642   9.893  11.068  0.1646 -0.1576  0.2914
36554SOL    HW114219  11.579   9.852  11.010 -0.9147 -0.0890  1.3749
36554SOL    HW214220  11.708   9.929  11.010 -1.3988  0.7987 -0.9774
36555SOL     OW14221   0.521   9.317   7.531 -0.1476 -0.5269 -0.3921
36555SOL    HW114222   0.499   9.301   7.439  1.0933 -2.4380 -0.4041
36555SOL    HW214223   0.544   9.231   7.566 -0.2633  0.2164  1.6307
36556SOL     OW14224   8.069   6.304   6.131 -0.4963  0.8389  0.4378
36556SOL    HW114225   8.050   6.395   6.108 -1.9054  0.0835 -1.6771
36556SOL    HW214226   8.161   6.292   6.108 -1.0669  0.9724 -2.1848
36557SOL     OW14227   1.824   0.654   1.744 -0.4335  0.0248 -0.3009
36557SOL    HW114228   1.851   0.733   1.697  0.8144  0.6171  1.3493
36557SOL    HW214229   1.733   0.670   1.767 -0.2026  0.9886 -0.0105
36558SOL     OW14230   9.567  11.975   4.303 -0.4044  0.1795  0.1443
36558SOL    HW114231   9.489  12.018   4.340 -0.9563 -0.6165 -0.0513
36558SOL    HW214232   9.541  11.951   4.214 -0.9871 -2.5836  0.9548
36559SOL     OW14233   0.610  11.747  10.990 -0.4617 -0.0538  0.4764
36559SOL    HW114234   0.520  11.761  10.960 -0.5303  0.8486  1.0765
36559SOL    HW214235   0.600  11.703  11.074 -0.2960 -1.2609 -0.1090
36560SOL     OW14236   4.087   9.997   9.634 -0.2039  0.2258 -0.5249
36560SOL    HW114237   4.065   9.912   9.596  0.4770 -0.1493 -0.1071
36560SOL    HW214238   4.180   9.989   9.657 -0.4650  0.5960  0.7638
36561SOL     OW14239   4.261   6.146   9.263  0.5758 -0.2594 -0.6681
36561SOL    HW114240   4.356   6.162   9.266  0.9881 -2.3452 -0.7579
36561SOL    HW214241   4.251   6.075   9.199 -0.9709 -0.5724 -0.1222
36562SOL     OW14242   3.907   5.999   3.205 -0.2818  0.2302  0.5560
36562SOL    HW114243   3.952   5.940   3.266  0.0014  0.3235  0.4386
36562SOL    HW214244   3.850   6.052   3.261  0.6955  0.9881  0.8646
36563SOL     OW14245   7.477   1.842   9.726 -0.0936 -0.0899 -0.3689
36563SOL    HW114246   7.423   1.900   9.779  0.8660  2.3454 -1.9219
36563SOL    HW214247   7.544   1.809   9.786  0.2710  1.6802  0.2373
36564SOL     OW14248   0.250   6.756  11.085  0.1772 -0.1503 -0.0124
36564SOL    HW114249   0.180   6.758  11.020 -0.8293  1.0942  1.0707
36564SOL    HW214250   0.295   6.839  11.075  1.1389 -0.6927 -0.2884
36565SOL     OW14251  10.974   7.232   5.096  0.4994  0.4016 -0.1392
36565SOL    HW114252  11.000   7.187   5.016  0.0909  0.2398 -0.1845
36565SOL    HW214253  11.054   7.236   5.148  0.3346 -1.3030  0.3123
36566SOL     OW14254   2.972   1.511  11.209 -0.9857 -0.1026  0.0166
36566SOL    HW114255   2.941   1.547  11.292 -0.3854  0.5684 -0.0389
36566SOL    HW214256   2.977   1.587  11.150  2.6786  0.2959  0.5754
36567SOL     OW14257  11.062   9.152   4.916 -0.7130 -0.3548  0.7250
36567SOL    HW114258  11.144   9.200   4.925 -1.2923  0.9310 -0.3651
36567SOL    HW214259  11.082   9.079   4.858 -0.7694  1.2589 -1.4602
36568SOL     OW14260   1.428   5.765   2.894  0.1011 -0.1122 -0.3261
36568SOL    HW114261   1.406   5.805   2.978 -1.4392 -0.4640 -0.5454
36568SOL    HW214262   1.355   5.787   2.836  0.5109 -0.9788 -1.2090
36569SOL     OW14263   5.240   2.132   7.593 -0.8611 -0.2996 -0.4575
36569SOL    HW114264   5.179   2.062   7.571 -0.6557  0.1322 -2.6884
36569SOL    HW214265   5.327   2.093   7.582 -0.6268 -0.9415  2.8049
36570SOL     OW14266   4.330   1.722  11.901 -0.3945 -0.4663  0.2271
36570SOL    HW114267   4.257   1.673  11.863  0.1178 -0.6759 -0.5084
36570SOL    HW214268   4.399   1.657  11.912  0.6014  0.2104 -1.5730
36571SOL     OW14269   9.315   1.017   8.988 -0.0468 -0.0150  0.0092
36571SOL    HW114270   9.223   1.002   8.966  0.1832  0.0074 -0.9787
36571SOL    HW214271   9.330   1.109   8.968 -0.1569  0.3549  1.4759
36572SOL     OW14272   3.482   9.428   7.397  0.1344 -0.4466 -0.1156
36572SOL    HW114273   3.506   9.468   7.313 -2.7355 -0.5036 -1.0552
36572SOL    HW214274   3.494   9.334   7.382  0.4473 -0.4059 -0.1476
36573SOL     OW14275   2.438  12.004   3.819  0.6000  0.6696 -0.3712
36573SOL    HW114276   2.503  12.024   3.887  0.5126 -0.1845 -0.0184
36573SOL    HW214277   2.487  12.005   3.737  1.6288 -2.1427  0.0705
36574SOL     OW14278   3.524   6.154   6.582 -0.3590 -0.0664 -0.2469
36574SOL    HW114279   3.479   6.155   6.497 -1.6221 -0.3258  0.4061
36574SOL    HW214280   3.476   6.090   6.634 -1.2347  1.9437  1.5517
36575SOL     OW14281   8.219   9.254   5.229  0.1627  0.3003 -0.3348
36575SOL    HW114282   8.267   9.233   5.148  0.2218  1.0430 -0.4968
36575SOL    HW214283   8.262   9.333   5.262 -0.7057  0.7533 -0.2799
36576SOL     OW14284   2.397   9.934   0.794 -0.0103  0.4958 -0.3191
36576SOL    HW114285   2.394   9.959   0.886  0.0619 -1.6649  0.3125
36576SOL    HW214286   2.327   9.984   0.753  0.0097  1.5425  0.8772
36577SOL     OW14287   0.912   8.422   4.705  0.2788  0.2597  0.7154
36577SOL    HW114288   0.885   8.357   4.641 -0.4450 -0.4206  1.6875
36577SOL    HW214289   0.831   8.455   4.742  0.6806  0.8625  1.0774
36578SOL     OW14290   7.216   2.579   8.135  0.3238  0.2094  0.5063
36578SOL    HW114291   7.311   2.581   8.128  0.3335  0.2938  0.6493
36578SOL    HW214292   7.186   2.538   8.054  0.3923  1.8341 -0.3787
36579SOL     OW14293   9.438   0.322   4.468 -0.3349 -0.0392  0.7914
36579SOL    HW114294   9.513   0.262   4.469 -0.5550 -0.3197  0.5217
36579SOL    HW214295   9.474   0.403   4.432  0.0374  0.0918  1.4528
36580SOL     OW14296   2.243   8.543   7.152 -0.4626  0.0647  0.2200
36580SOL    HW114297   2.196   8.529   7.070  0.4776 -0.2601 -0.2765
36580SOL    HW214298   2.335   8.545   7.127 -0.2208  1.0503  1.1277
36581SOL     OW14299   3.715   9.759   5.684 -0.3879 -0.2025 -0.0121
36581SOL    HW114300   3.713   9.740   5.777 -0.3188  1.6075  0.3999
36581SOL    HW214301   3.800   9.802   5.670 -0.4783 -0.2777 -0.8587
36582SOL     OW14302   0.401   3.739   8.400 -0.3929 -0.0893 -0.2451
36582SOL    HW114303   0.488   3.702   8.384 -0.9155 -1.0956 -0.9251
36582SOL    HW214304   0.370   3.766   8.313 -0.4743  0.9460  0.0946
36583SOL     OW14305   7.229   7.052   3.995 -0.6297  0.0941  0.6325
36583SOL    HW114306   7.203   7.053   3.903 -0.1311 -0.9615  0.4631
36583SOL    HW214307   7.273   7.136   4.008 -1.2355  0.5127  0.0752
36584SOL     OW14308   5.083   2.049   8.250  0.2306 -0.2583  0.7199
36584SOL    HW114309   5.098   1.963   8.290  1.2097 -0.0646  0.7846
36584SOL    HW214310   5.041   2.101   8.318  0.3728 -0.4419  0.9496
36585SOL     OW14311   3.182   8.111   7.152 -0.4501 -0.3014 -0.4369
36585SOL    HW114312   3.219   8.031   7.191  0.7488 -0.5882 -2.0447
36585SOL    HW214313   3.094   8.085   7.124 -0.1036 -1.0507 -0.8774
36586SOL     OW14314   5.425   7.406   4.393  1.0029 -0.1785 -0.3119
36586SOL    HW114315   5.335   7.389   4.422  0.5676  1.1831 -0.7829
36586SOL    HW214316   5.478   7.394   4.472  0.4549 -1.2874 -0.0956
36587SOL     OW14317   1.447  10.976  11.597  0.4287  0.0268  0.0761
36587SOL    HW114318   1.421  11.019  11.516  0.9179 -1.8412 -1.1119
36587SOL    HW214319   1.418  11.037  11.666 -1.5219  0.8657 -1.3926
36588SOL     OW14320   5.622   7.056   3.769  0.0687  0.1572  0.2353
36588SOL    HW114321   5.577   7.033   3.851 -1.6081 -2.7351 -1.3142
36588SOL    HW214322   5.714   7.041   3.788 -0.0240  1.6719  2.1789
36589SOL     OW14323  10.937   6.881   6.363  0.1249  0.3257 -0.3198
36589SOL    HW114324  10.850   6.873   6.403  0.0524  1.0278 -0.3220
36589SOL    HW214325  10.975   6.960   6.403  0.0848  1.0022 -1.5580
36590SOL     OW14326   7.703   6.529   3.819  0.6315 -0.2179 -0.1170
36590SOL    HW114327   7.675   6.609   3.776  0.0369  0.1692  0.9425
36590SOL    HW214328   7.623   6.477   3.828  1.0155 -0.9624 -0.8342
36591SOL     OW14329  11.939   8.961   3.733  0.1214  0.5098  0.2229
36591SOL    HW114330  11.934   8.961   3.828 -0.2955 -1.1180  0.2326
36591SOL    HW214331  11.848   8.956   3.704  0.2876  0.1881 -0.2439
36592SOL     OW14332  11.680   5.689   5.903  0.0599 -0.2512  0.0365
36592SOL    HW114333  11.649   5.733   5.982 -0.3315  2.3659 -1.4683
36592SOL    HW214334  11.672   5.754   5.834  2.0867 -1.8376 -1.8562
36593SOL     OW14335   4.362  10.745   5.434 -0.3581  0.1390 -0.3502
36593SOL    HW114336   4.354  10.740   5.529  0.0351 -1.3452 -0.3690
36593SOL    HW214337   4.398  10.832   5.417  0.9675 -0.1094  0.9771
36594SOL     OW14338   5.526   3.069  11.740  0.0170 -0.2064  0.2981
36594SOL    HW114339   5.485   2.998  11.691 -0.7565 -1.2392  2.3160
36594SOL    HW214340   5.618   3.067  11.714 -0.3257 -0.8291 -0.9282
36595SOL     OW14341   1.501   9.331   3.859 -0.0115 -0.5824 -0.1543
36595SOL    HW114342   1.415   9.288   3.862 -0.2256 -0.1148  0.5400
36595SOL    HW214343   1.487   9.415   3.902  1.1406 -1.1051  1.3301
36596SOL     OW14344  11.754   3.050  11.502 -0.0153 -0.3870  0.3962
36596SOL    HW114345  11.726   2.967  11.465  0.1488  0.5448 -2.0602
36596SOL    HW214346  11.677   3.083  11.549 -0.9127 -0.8430 -0.6917
36597SOL     OW14347   7.578   5.422   6.389  0.0204  0.5367 -0.3703
36597SOL    HW114348   7.669   5.420   6.358 -0.7268 -1.7011 -2.8762
36597SOL    HW214349   7.535   5.487   6.334 -0.1633  0.6651 -0.0772
36598SOL     OW14350   1.334   7.177   3.795 -0.3007 -0.4194 -0.0419
36598SOL    HW114351   1.338   7.180   3.700  0.5615 -0.2220 -0.0156
36598SOL    HW214352   1.269   7.242   3.819  0.5015  0.5702 -0.4577
36599SOL     OW14353   7.734   9.465   4.705  0.0900 -0.4051  0.3518
36599SOL    HW114354   7.734   9.529   4.777  3.3353 -1.5389  1.5364
36599SOL    HW214355   7.826   9.448   4.688 -0.6294 -2.7160 -1.8502
36600SOL     OW14356   1.360   2.411   6.718 -0.0464 -0.3163 -0.1795
36600SOL    HW114357   1.413   2.359   6.779 -0.7967  1.7147  2.3753
36600SOL    HW214358   1.287   2.442   6.771 -0.3477  2.1878 -1.9316
36601SOL     OW14359   5.026  10.084   5.651 -0.3904  0.3047 -0.3486
36601SOL    HW114360   5.022  10.177   5.674 -3.1970  0.4922 -1.2284
36601SOL    HW214361   4.974  10.041   5.718  1.7988 -0.8896  0.7107
36602SOL     OW14362  11.772   5.478   5.352  0.0607 -0.9881 -0.0626
36602SOL    HW114363  11.836   5.472   5.281 -0.9847 -0.8664 -1.0594
36602SOL    HW214364  11.817   5.445   5.429  1.4333 -0.5600 -0.6539
36603SOL     OW14365  10.659   5.703  10.936  0.2619  0.2827 -0.7337
36603SOL    HW114366  10.749   5.693  10.969  0.0759  2.0752  0.4557
36603SOL    HW214367  10.631   5.614  10.915  1.6514 -0.5373  0.6774
36604SOL     OW14368   5.656   5.891   6.873 -0.9186  0.0783 -0.2303
36604SOL    HW114369   5.673   5.950   6.800  1.9946 -0.5261 -0.1723
36604SOL    HW214370   5.661   5.946   6.951  2.6833 -0.1802 -0.1056
36605SOL     OW14371   0.275   8.624   8.378 -0.3117 -0.2076 -0.1231
36605SOL    HW114372   0.306   8.563   8.311  0.4882 -0.0618  0.1009
36605SOL    HW214373   0.239   8.568   8.446 -0.3459 -0.3964 -0.2950
36606SOL     OW14374   1.568   6.960   4.314  0.2543 -0.0416 -0.4598
36606SOL    HW114375   1.493   6.983   4.260  0.8238  0.8788 -0.8763
36606SOL    HW214376   1.632   6.923   4.254  1.0629  1.3906 -0.5201
36607SOL     OW14377   8.501   0.817   3.417 -0.4157 -0.1545  0.3319
36607SOL    HW114378   8.406   0.805   3.406 -0.9659  2.4421  1.6073
36607SOL    HW214379   8.533   0.833   3.329 -1.3823  0.2225  0.0313
36608SOL     OW14380   8.169   9.752   2.475  0.3157  0.7348 -0.2510
36608SOL    HW114381   8.182   9.846   2.460 -0.2677  0.3794 -3.9916
36608SOL    HW214382   8.258   9.717   2.484  0.6060  1.4845 -0.0950
36609SOL     OW14383   1.835   9.956   2.674  0.2831 -0.1722  0.1416
36609SOL    HW114384   1.917   9.970   2.720 -0.3574  1.3571  0.8886
36609SOL    HW214385   1.769   9.948   2.743 -0.7823  2.7084 -0.4106
36610SOL     OW14386   8.279   2.284   7.850 -0.2938  0.1937 -0.4630
36610SOL    HW114387   8.337   2.216   7.884  0.0057  1.1191  0.9591
36610SOL    HW214388   8.319   2.366   7.880 -2.3965  0.8548  0.7290
36611SOL     OW14389   5.615   7.750   5.735  0.0347 -0.1940  0.2879
36611SOL    HW114390   5.563   7.766   5.656 -2.1454  1.4259  1.9381
36611SOL    HW214391   5.584   7.665   5.768  0.9268 -0.8582 -0.5313
36612SOL     OW14392  11.128   1.073   4.551 -0.2394  0.0075 -0.0286
36612SOL    HW114393  11.035   1.097   4.542 -0.5047 -1.4769 -1.6831
36612SOL    HW214394  11.156   1.120   4.630 -2.4125  0.4335  0.5851
36613SOL     OW14395  10.337  11.272   2.473  0.0395 -0.1173  0.4997
36613SOL    HW114396  10.356  11.337   2.405  0.5284  0.2051  0.9283
36613SOL    HW214397  10.328  11.325   2.553 -3.1934 -0.1641  0.2893
36614SOL     OW14398   2.551   6.336   3.637  0.2434  0.2314 -0.1039
36614SOL    HW114399   2.494   6.374   3.704 -1.9526 -1.7023 -0.7383
36614SOL    HW214400   2.544   6.396   3.563 -0.4827  0.3558  0.0547
36615SOL     OW14401   0.549  10.759  11.713 -0.0065 -0.2333 -0.0116
36615SOL    HW114402   0.578  10.721  11.795  1.2224 -0.7026 -0.6405
36615SOL    HW214403   0.577  10.851  11.717 -1.5285  0.2237  0.8176
36616SOL     OW14404   6.078   1.454   0.866 -0.6434  0.5240 -0.6353
36616SOL    HW114405   6.107   1.418   0.950  0.2425  0.5572 -0.9199
36616SOL    HW214406   6.117   1.541   0.862  0.0589  0.1830 -1.4710
36617SOL     OW14407   5.521   7.708  10.025  0.1904  0.0154  0.1718
36617SOL    HW114408   5.615   7.709  10.003  0.4139 -0.5715  1.0223
36617SOL    HW214409   5.478   7.749   9.950  1.1924  0.9548  0.0809
36618SOL     OW14410   7.310   0.847   1.000  0.7080  0.6042 -0.7251
36618SOL    HW114411   7.252   0.835   0.925  0.6747  0.0175 -0.6140
36618SOL    HW214412   7.285   0.932   1.037 -0.0205  0.3997 -0.7296
36619SOL     OW14413   6.261   4.068   1.389 -0.2010 -0.2735 -0.4788
36619SOL    HW114414   6.238   4.055   1.481 -2.0701  0.3142 -0.8021
36619SOL    HW214415   6.225   3.992   1.344  0.8770 -0.6566 -0.7138
36620SOL     OW14416   1.136   3.089  10.150  0.2691  0.0500  0.0626
36620SOL    HW114417   1.207   3.079  10.087 -0.0586  0.3326 -0.3488
36620SOL    HW214418   1.147   3.177  10.185 -0.1831  0.2887 -0.3806
36621SOL     OW14419   9.515   4.500   5.113 -0.3974  0.1575 -0.3731
36621SOL    HW114420   9.459   4.519   5.037 -1.0515  1.1248  0.3244
36621SOL    HW214421   9.604   4.507   5.080 -0.4923 -4.1553 -2.2414
36622SOL     OW14422   8.868   1.628  11.089  0.1179 -0.1846  1.2692
36622SOL    HW114423   8.891   1.536  11.105  2.1775  0.2385  1.0125
36622SOL    HW214424   8.876   1.638  10.994  0.1373  0.3127  1.3211
36623SOL     OW14425   7.953   7.265  11.761  0.0867 -0.9326 -0.0922
36623SOL    HW114426   7.895   7.192  11.779 -0.0295 -0.5379  1.2317
36623SOL    HW214427   7.904   7.343  11.788  0.6686 -0.4693 -0.3343
36624SOL     OW14428   0.633   7.715   4.149 -0.6550 -0.0208 -0.1282
36624SOL    HW114429   0.723   7.683   4.155 -0.1988  1.1180 -0.5767
36624SOL    HW214430   0.579   7.636   4.150  0.2397 -0.6646  1.8438
36625SOL     OW14431   6.049   2.099   2.662  0.1754 -0.4943  0.0367
36625SOL    HW114432   6.094   2.182   2.645 -1.0191  0.1825  0.0300
36625SOL    HW214433   5.956   2.122   2.658 -0.2003 -2.1201 -1.3584
36626SOL     OW14434  11.460   1.627   2.290  0.1077 -0.7317 -0.3086
36626SOL    HW114435  11.502   1.659   2.210 -2.0626  0.0807 -1.2046
36626SOL    HW214436  11.531   1.592   2.342  1.6245 -1.2058 -2.5543
36627SOL     OW14437   1.771   9.743   1.941 -0.0245 -0.2332  0.2937
36627SOL    HW114438   1.752   9.772   2.030  0.1516  3.5757 -0.7368
36627SOL    HW214439   1.685   9.739   1.898  0.0158 -0.6430  0.2472
36628SOL     OW14440   2.845   1.566   2.142  0.3110  0.2029  0.6003
36628SOL    HW114441   2.941   1.574   2.150  0.7525 -1.5916 -1.8296
36628SOL    HW214442   2.830   1.474   2.124 -1.7657  0.7229 -0.5875
36629SOL     OW14443   9.781   6.632   0.999  0.1541  0.1312  0.0639
36629SOL    HW114444   9.843   6.699   0.969 -0.0261  0.8657  1.2628
36629SOL    HW214445   9.786   6.636   1.094 -0.9485 -0.5673  0.1657
36630SOL     OW14446   5.154   3.118   6.872  0.1347  0.4281  0.1525
36630SOL    HW114447   5.067   3.155   6.854 -0.8909 -2.1058 -0.7016
36630SOL    HW214448   5.178   3.075   6.790  0.1805 -2.5266  1.5794
36631SOL     OW14449   3.767   6.949   3.913 -0.3966 -0.9838  0.0327
36631SOL    HW114450   3.858   6.925   3.892 -0.4806 -0.4180 -1.0306
36631SOL    HW214451   3.771   6.981   4.003  0.5832 -0.2958 -0.2422
36632SOL     OW14452   8.172   7.592   5.529  0.2346 -0.8936 -0.3681
36632SOL    HW114453   8.202   7.609   5.440 -2.6349  1.7261 -1.0274
36632SOL    HW214454   8.247   7.615   5.584  1.0015  0.9294 -2.0361
36633SOL     OW14455   7.160  10.719  10.819  0.2430 -0.1877  0.1217
36633SOL    HW114456   7.099  10.748  10.886 -0.5328  0.8359 -0.9759
36633SOL    HW214457   7.107  10.711  10.740  1.9463  3.8358 -1.7019
36634SOL     OW14458   6.397   8.103   7.475 -0.1342 -0.0193  0.6757
36634SOL    HW114459   6.430   8.038   7.537  1.2955  0.7995  0.8272
36634SOL    HW214460   6.327   8.147   7.522  1.0159  0.6749  1.8092
36635SOL     OW14461   9.860   7.454   4.404  0.5005  0.2533 -0.3103
36635SOL    HW114462   9.938   7.399   4.400 -0.4646 -1.2398  0.2703
36635SOL    HW214463   9.809   7.429   4.327 -0.3038 -0.2832  0.3694
36636SOL     OW14464  10.058   4.860   0.249  0.0183 -0.1545  0.4731
36636SOL    HW114465  10.079   4.912   0.172 -2.0058 -0.8563 -0.6382
36636SOL    HW214466   9.998   4.793   0.217  0.3949 -1.4929  2.3720
36637SOL     OW14467   5.163   4.409   3.183 -0.3056  0.3377  0.1031
36637SOL    HW114468   5.229   4.475   3.163 -0.8357  1.1267  0.8586
36637SOL    HW214469   5.134   4.431   3.272 -2.5925  0.8961 -0.7154
36638SOL     OW14470   4.834   0.571  12.004 -0.4047 -0.3922 -0.7752
36638SOL    HW114471   4.851   0.589  11.911  2.7661 -1.0010 -0.4409
36638SOL    HW214472   4.902   0.621  12.050 -2.0354  0.0445  1.2702
36639SOL     OW14473  11.302  11.680   7.191 -0.0512 -0.1414 -0.8063
36639SOL    HW114474  11.276  11.592   7.164 -0.6893 -0.7919  1.5996
36639SOL    HW214475  11.224  11.733   7.177 -1.0401 -0.8972  1.3350
36640SOL     OW14476   3.794   2.988   4.934  0.1899  0.1569 -0.7097
36640SOL    HW114477   3.734   2.920   4.965  0.2889  0.8555  1.1441
36640SOL    HW214478   3.737   3.062   4.912  0.1126 -0.3678 -2.3674
36641SOL     OW14479   9.580  10.717  10.121  0.9432 -0.0928  0.0535
36641SOL    HW114480   9.670  10.699  10.149  0.8906  0.9066  0.9517
36641SOL    HW214481   9.541  10.631  10.109  1.3983 -0.5753  1.7758
36642SOL     OW14482   4.024  11.089  10.254 -0.1673  0.1459 -0.0598
36642SOL    HW114483   3.989  11.076  10.343  0.9583  3.4702  1.0257
36642SOL    HW214484   4.109  11.130  10.268  1.1142 -1.3771 -2.7238
36643SOL     OW14485   0.461   9.860   3.375 -0.1928  0.4507 -0.1280
36643SOL    HW114486   0.457   9.790   3.310 -1.4435 -1.6686  2.0672
36643SOL    HW214487   0.372   9.866   3.409  0.3292  1.7589  1.1203
36644SOL     OW14488   8.175  11.628   0.555 -0.2053 -0.7915 -0.2384
36644SOL    HW114489   8.216  11.705   0.594  0.7324 -0.3474 -2.0071
36644SOL    HW214490   8.103  11.662   0.503 -1.1164 -1.3315  0.6217
36645SOL     OW14491   4.662   7.268   9.308  0.6254 -0.3206  0.1730
36645SOL    HW114492   4.637   7.348   9.260  1.5274  0.6773  1.3100
36645SOL    HW214493   4.592   7.206   9.288 -0.3028  0.8713 -0.4420
36646SOL     OW14494  11.706  10.945   8.943  0.2776 -0.0323 -0.0440
36646SOL    HW114495  11.731  11.001   8.870  0.2203 -0.8751 -0.7216
36646SOL    HW214496  11.725  10.857   8.913 -0.7610 -0.4763  0.5554
36647SOL     OW14497   5.292   9.903  10.140  0.2128  0.3714  0.6328
36647SOL    HW114498   5.207   9.934  10.173 -0.2875 -0.8587  0.5367
36647SOL    HW214499   5.270   9.856  10.060  0.8759 -0.7174  1.0770
36648SOL     OW14500   0.233   8.755   4.089 -0.4630  0.5485  0.9179
36648SOL    HW114501   0.250   8.665   4.060 -2.4159  1.3298 -3.3562
36648SOL    HW214502   0.320   8.792   4.103  0.7314 -0.6786 -2.2264
36649SOL     OW14503   9.008   2.523   6.336  0.5041  0.2158 -0.1772
36649SOL    HW114504   8.917   2.503   6.315  0.4878 -0.3905  0.4473
36649SOL    HW214505   9.055   2.512   6.253  0.4789 -2.3378  0.0776
36650SOL     OW14506  11.452   6.812   8.663 -0.0168  0.0110 -0.6180
36650SOL    HW114507  11.498   6.822   8.579  0.8853  0.5283 -0.0809
36650SOL    HW214508  11.413   6.897   8.680 -1.0727 -0.3869 -0.9976
36651SOL     OW14509   2.833   7.896  12.008 -0.0481  0.3533 -0.3988
36651SOL    HW114510   2.910   7.888  12.065 -0.0462  0.3785 -0.3977
36651SOL    HW214511   2.768   7.941  12.062 -0.3540 -0.4046 -0.1130
36652SOL     OW14512   1.151   9.648   9.402 -0.0580  0.3133 -0.2295
36652SOL    HW114513   1.086   9.619   9.466  1.8415  0.5369  1.9353
36652SOL    HW214514   1.160   9.742   9.418  1.2699  0.1606 -0.0131
36653SOL     OW14515   2.730   6.338   6.297  0.3305  0.3099 -0.1531
36653SOL    HW114516   2.658   6.375   6.246  0.5084  0.3371 -0.3875
36653SOL    HW214517   2.704   6.351   6.388 -0.7384 -1.1313 -0.2069
36654SOL     OW14518   0.234   1.338   4.934 -0.0631  0.0419  0.1203
36654SOL    HW114519   0.206   1.351   4.843  0.1557  0.1059  0.0622
36654SOL    HW214520   0.272   1.422   4.959 -1.0077  0.3490  0.5902
36655SOL     OW14521   9.585   6.323  11.439 -0.5918  0.0443 -0.1652
36655SOL    HW114522   9.605   6.417  11.435 -1.0622  0.1122 -2.5854
36655SOL    HW214523   9.613   6.296  11.526  1.5524  1.9928 -0.1640
36656SOL     OW14524  11.802  11.056   8.723  0.1308  0.2176 -0.6128
36656SOL    HW114525  11.730  11.084   8.667 -0.4905 -0.6157 -0.2386
36656SOL    HW214526  11.844  10.985   8.674 -0.6661 -0.7938  0.1409
36657SOL     OW14527  11.103   7.349   8.449 -0.3268  0.1185 -0.0922
36657SOL    HW114528  11.009   7.332   8.442 -0.3305 -0.7031  1.5043
36657SOL    HW214529  11.109   7.441   8.473 -0.7312  0.1278 -0.0261
36658SOL     OW14530  10.195   7.337   8.830  0.3420  0.0755  0.4168
36658SOL    HW114531  10.162   7.427   8.836  2.1452  0.7265  1.3684
36658SOL    HW214532  10.270   7.343   8.771 -0.7035 -1.2140 -1.0978
36659SOL     OW14533   0.372   3.608   3.694 -0.0465  0.0778  0.0804
36659SOL    HW114534   0.359   3.596   3.600 -1.1319 -2.1364  0.4579
36659SOL    HW214535   0.399   3.522   3.726 -0.0916  0.6823  1.8698
36660SOL     OW14536   5.650  11.767   2.526 -0.2990 -0.0945  0.4336
36660SOL    HW114537   5.637  11.846   2.579  0.1821  0.5028 -0.3274
36660SOL    HW214538   5.686  11.703   2.588  0.2935  0.6030  0.8331
36661SOL     OW14539   8.768   4.471  11.611 -0.2552 -0.1240  0.1607
36661SOL    HW114540   8.823   4.519  11.674 -0.1640 -1.2893  1.0120
36661SOL    HW214541   8.682   4.512  11.618 -0.3748 -0.5513  1.4450
36662SOL     OW14542   9.698   8.435   2.274  0.5686  0.2874 -0.0180
36662SOL    HW114543   9.620   8.443   2.329 -1.3372 -4.2819 -1.5819
36662SOL    HW214544   9.771   8.426   2.335 -0.6703  0.6660  1.5724
36663SOL     OW14545  11.728   3.815   8.306 -0.0658  0.1382  0.1616
36663SOL    HW114546  11.751   3.906   8.289 -2.0959  0.5552 -0.6721
36663SOL    HW214547  11.636   3.808   8.279  0.0479 -2.1638  0.1533
36664SOL     OW14548   5.789   1.926   2.900  0.1014  0.1119 -0.2460
36664SOL    HW114549   5.755   1.839   2.921  1.3491 -0.3403 -0.0016
36664SOL    HW214550   5.882   1.912   2.881  1.0393  1.7605  2.5470
36665SOL     OW14551   2.113   8.061   1.790  0.2515  0.1376 -0.2072
36665SOL    HW114552   2.019   8.067   1.774  0.0616  2.4940  1.2277
36665SOL    HW214553   2.149   8.024   1.710 -1.7676  0.2462 -1.2363
36666SOL     OW14554   8.078   6.665   7.070  0.1848 -0.1227 -0.6111
36666SOL    HW114555   8.014   6.594   7.064 -1.0673  0.9234 -0.2227
36666SOL    HW214556   8.153   6.626   7.114 -0.7896 -1.0189  0.3383
36667SOL     OW14557   9.698   9.377   5.980  0.4602 -0.0955 -0.1425
36667SOL    HW114558   9.769   9.397   6.042  2.9936 -0.5195 -2.7084
36667SOL    HW214559   9.680   9.284   5.994  1.5247 -0.3699 -0.4505
36668SOL     OW14560   1.059   2.025   3.237  0.5829  0.5111 -0.2804
36668SOL    HW114561   1.029   2.027   3.146  2.1105  0.2695 -0.8191
36668SOL    HW214562   1.153   2.044   3.232  1.3051 -2.2233  0.9465
36669SOL     OW14563   8.389   0.226   7.691  0.3120  0.0601  0.2009
36669SOL    HW114564   8.455   0.235   7.622  0.2291 -2.1202 -0.2462
36669SOL    HW214565   8.423   0.277   7.764  1.5129  0.5809 -0.6907
36670SOL     OW14566  10.875   7.949  11.547 -0.1413  0.3272 -0.4368
36670SOL    HW114567  10.912   7.906  11.470 -0.0517 -0.7783  0.2024
36670SOL    HW214568  10.787   7.914  11.554 -0.5828  1.3432 -0.7175
36671SOL     OW14569   4.236   7.982   2.149 -0.3523 -0.0800 -0.5313
36671SOL    HW114570   4.292   7.952   2.077 -0.5416 -0.4174 -0.5412
36671SOL    HW214571   4.174   8.042   2.109  0.6023  1.0484 -0.3559
36672SOL     OW14572   1.517  10.131   0.131 -0.6667 -1.1149  0.2457
36672SOL    HW114573   1.563  10.106   0.212 -2.5839 -0.7222  1.5213
36672SOL    HW214574   1.427  10.103   0.145 -0.6756 -2.9117 -2.6484
36673SOL     OW14575   8.911   8.738   9.742 -0.0210 -0.2063 -0.1044
36673SOL    HW114576   8.873   8.670   9.685  2.0501 -1.9373  0.4585
36673SOL    HW214577   8.882   8.715   9.830  1.8426 -1.3081  0.2799
36674SOL     OW14578   2.308   9.045  10.000 -0.4811 -0.4022 -0.1778
36674SOL    HW114579   2.351   9.012   9.921  1.7458  2.0133 -0.0868
36674SOL    HW214580   2.338   8.987  10.069 -0.5364 -1.0954 -0.7227
36675SOL     OW14581   8.810   9.883   0.221  0.5171  0.2981  0.6232
36675SOL    HW114582   8.786   9.975   0.213 -1.6969 -0.3475 -1.7097
36675SOL    HW214583   8.884   9.872   0.162 -0.5983  0.2089 -0.7988
36676SOL     OW14584   1.949   9.309   6.802  0.1543 -0.3378 -0.2788
36676SOL    HW114585   1.872   9.290   6.856 -1.4344 -1.4318 -2.7406
36676SOL    HW214586   1.959   9.404   6.806 -2.0678 -0.0336 -0.7518
36677SOL     OW14587   1.793   1.733   0.791 -0.4015  0.4523  0.0364
36677SOL    HW114588   1.855   1.662   0.805 -0.6216  0.2366 -0.0825
36677SOL    HW214589   1.840   1.812   0.819 -0.8099  0.0509  1.9747
36678SOL     OW14590  11.458  10.423   1.049 -0.3330  0.0929 -0.4167
36678SOL    HW114591  11.387  10.359   1.041 -0.7224  0.5787 -0.9478
36678SOL    HW214592  11.444  10.464   1.135  0.5888 -1.3080  0.4235
36679SOL     OW14593  11.404  10.650   4.032  0.0275 -0.2525 -0.1194
36679SOL    HW114594  11.325  10.682   3.988 -0.3239 -0.4799  0.3208
36679SOL    HW214595  11.380  10.649   4.125 -0.5244 -3.0982 -0.1774
36680SOL     OW14596   0.193   5.939  10.393 -0.0955 -0.2213 -0.2471
36680SOL    HW114597   0.258   5.977  10.452 -0.7225 -1.6493  1.4883
36680SOL    HW214598   0.199   5.844  10.409 -1.0060 -0.5708 -1.7654
36681SOL     OW14599   6.085  11.349   9.108 -0.0115  0.0534  0.3028
36681SOL    HW114600   6.007  11.295   9.094  1.4267 -1.4545 -2.7247
36681SOL    HW214601   6.071  11.427   9.054  0.2036  0.2204  0.4843
36682SOL     OW14602   3.558   4.300   7.828 -0.5262  0.9883  0.3444
36682SOL    HW114603   3.612   4.336   7.899  0.4321 -1.1000  0.7408
36682SOL    HW214604   3.472   4.341   7.841 -1.0888 -0.9943  4.2139
36683SOL     OW14605   1.624   7.557   2.513 -0.9110  0.2542  0.1149
36683SOL    HW114606   1.531   7.570   2.493 -1.2387 -0.6411  0.9849
36683SOL    HW214607   1.667   7.632   2.473 -1.7187 -0.5274 -2.3787
36684SOL     OW14608   4.103   2.276   8.300  0.2708  0.0048 -0.9745
36684SOL    HW114609   4.140   2.355   8.260  0.6608 -0.3878 -1.4060
36684SOL    HW214610   4.057   2.307   8.377  2.1456  0.4447  0.0380
36685SOL     OW14611   9.629   3.524   4.845 -0.4582  0.0454  0.4233
36685SOL    HW114612   9.602   3.505   4.755 -0.9106  0.5732  0.4439
36685SOL    HW214613   9.707   3.578   4.835  1.4474 -2.5429  0.3616
36686SOL     OW14614   8.164   6.182  10.119  0.0110  0.2154 -0.3525
36686SOL    HW114615   8.101   6.112  10.101  0.3168  0.1783 -1.3668
36686SOL    HW214616   8.199   6.205  10.033  0.8268  0.7618  0.1118
36687SOL     OW14617   4.954   8.348   5.316 -0.4258 -0.1009  0.3783
36687SOL    HW114618   4.872   8.365   5.269 -0.2839 -1.1789 -0.3010
36687SOL    HW214619   5.021   8.348   5.247  0.1227  0.5364  0.8988
36688SOL     OW14620   4.611   8.851   3.041 -0.6238 -0.2249  0.0949
36688SOL    HW114621   4.644   8.821   3.126 -1.5799 -2.5487 -0.2907
36688SOL    HW214622   4.657   8.797   2.977 -1.9845 -0.4638 -0.7027
36689SOL     OW14623   4.880   3.393   3.474  0.0130 -0.0640  0.7113
36689SOL    HW114624   4.921   3.445   3.544 -0.9917 -0.5273  1.6826
36689SOL    HW214625   4.858   3.310   3.516 -2.3901  0.3572  0.4251
36690SOL     OW14626   4.209   0.760   1.710  0.0761  0.2580  0.6872
36690SOL    HW114627   4.227   0.699   1.638  0.4850  0.1360  0.8907
36690SOL    HW214628   4.197   0.705   1.787  0.6208  0.4425  0.9071
36691SOL     OW14629   1.803  12.054   4.029 -0.0686 -0.8486 -0.2272
36691SOL    HW114630   1.798  12.056   3.934 -0.0653  1.2420 -0.2283
36691SOL    HW214631   1.746  11.981   4.055 -1.2635 -0.5241 -1.7812
36692SOL     OW14632  10.914   2.090   0.991 -0.5655  0.3124  0.2895
36692SOL    HW114633  10.883   2.017   1.044  1.7208  0.4511  1.9611
36692SOL    HW214634  10.928   2.161   1.054  2.6091  0.3754 -0.3159
36693SOL     OW14635   7.732   8.840   6.159 -0.3501 -0.4286  0.2450
36693SOL    HW114636   7.802   8.775   6.151 -0.6437 -0.7387  0.1517
36693SOL    HW214637   7.744   8.898   6.084 -0.4438 -0.7281 -0.0012
36694SOL     OW14638   8.863   6.124  10.418  0.3875  0.3089  0.0788
36694SOL    HW114639   8.887   6.148  10.328  1.1386  1.9232  0.6709
36694SOL    HW214640   8.945   6.130  10.467 -0.1831  0.3378  1.0495
36695SOL     OW14641   9.614   4.662   4.251 -0.3004 -0.0365  0.1489
36695SOL    HW114642   9.604   4.633   4.342  0.6626 -3.0647 -0.5994
36695SOL    HW214643   9.547   4.612   4.203 -1.8556  2.6545 -0.7018
36696SOL     OW14644   6.888  11.067   5.070  0.4161  0.4911  0.7429
36696SOL    HW114645   6.825  11.138   5.065 -0.1306  0.1047  1.8539
36696SOL    HW214646   6.838  10.988   5.050  0.8297  0.3130  0.3786
36697SOL     OW14647   7.178  11.761   9.617  0.2645  0.4386 -0.7532
36697SOL    HW114648   7.141  11.789   9.533  0.3178 -1.1184 -1.3328
36697SOL    HW214649   7.273  11.772   9.606  0.2090  1.2274 -0.5005
36698SOL     OW14650  12.109   2.195   3.042  0.3407  0.3099  0.8840
36698SOL    HW114651  12.173   2.124   3.049  0.0374  0.1489  2.3912
36698SOL    HW214652  12.026   2.150   3.024  0.1574  0.2781  1.7919
36699SOL     OW14653   1.354   1.720   7.006  0.3162 -0.6536  0.4089
36699SOL    HW114654   1.339   1.789   6.942 -0.0668 -0.1949  0.9903
36699SOL    HW214655   1.446   1.697   6.996  0.2698 -0.5500 -0.2701
36700SOL     OW14656   5.149  11.253   4.164 -0.0753 -0.9007  0.1822
36700SOL    HW114657   5.175  11.340   4.194  1.8094 -1.6166  0.8071
36700SOL    HW214658   5.102  11.216   4.238  1.0447 -1.1861  0.7755
36701SOL     OW14659   9.215   8.852  11.900 -0.2917  0.2919  0.4856
36701SOL    HW114660   9.185   8.937  11.932  1.3950  0.6361  1.2468
36701SOL    HW214661   9.310   8.856  11.906 -0.0459 -0.8320 -1.5939
36702SOL     OW14662  11.438   9.971  10.902 -0.4206  0.5611 -0.9590
36702SOL    HW114663  11.392  10.038  10.852 -0.1205  1.6947  0.2258
36702SOL    HW214664  11.370   9.934  10.959 -0.3623  0.5643 -0.8881
36703SOL     OW14665  10.932   4.301  10.038 -0.2295 -0.4661  0.2628
36703SOL    HW114666  10.953   4.392  10.057  1.9052 -0.6596 -0.9329
36703SOL    HW214667  10.853   4.305   9.984 -0.2118  0.6574  0.3006
36704SOL     OW14668   5.521   7.267   3.121 -0.0758  0.3526 -0.1470
36704SOL    HW114669   5.551   7.261   3.030 -0.1033  0.3980 -0.1592
36704SOL    HW214670   5.425   7.272   3.114  0.0044  2.2507 -0.2126
36705SOL     OW14671  10.465  10.468   4.845  0.1856  0.2603  0.0254
36705SOL    HW114672  10.400  10.533   4.874  0.2135  0.1855  0.2569
36705SOL    HW214673  10.444  10.389   4.895 -0.0070  0.0131 -0.4478
36706SOL     OW14674   3.002   3.760  10.344  0.3014 -0.4383 -0.2298
36706SOL    HW114675   2.970   3.840  10.383  0.7507 -0.7568  0.8212
36706SOL    HW214676   3.006   3.697  10.416 -0.4819 -1.5493 -1.1108
36707SOL     OW14677   9.855   0.587   7.796 -0.2623  0.2634 -0.4393
36707SOL    HW114678   9.798   0.658   7.766 -0.2352  1.1428  1.4353
36707SOL    HW214679   9.795   0.518   7.824 -0.4286  0.9530  0.9753
36708SOL     OW14680   6.325   2.287   9.614 -0.1557 -0.1619  0.4161
36708SOL    HW114681   6.253   2.314   9.670 -0.3669 -0.5490  0.3333
36708SOL    HW214682   6.302   2.321   9.528  0.2162  0.5160  0.5773
36709SOL     OW14683   6.199   9.721   4.322  0.5692 -0.1981 -0.3966
36709SOL    HW114684   6.128   9.657   4.321  1.8489 -1.6877  0.0199
36709SOL    HW214685   6.236   9.718   4.234  1.7733 -1.4173  0.1146
36710SOL     OW14686   7.950   5.587   5.585 -0.6969  0.4925  0.0683
36710SOL    HW114687   7.892   5.591   5.509  0.8503  0.1414 -1.1930
36710SOL    HW214688   7.976   5.495   5.589 -0.7242  0.5218  1.0071
36711SOL     OW14689   3.380   0.890  10.035 -0.4488  0.2186 -0.0673
36711SOL    HW114690   3.434   0.811  10.043  1.2628  1.2500 -0.9448
36711SOL    HW214691   3.395   0.938  10.115 -1.5163 -0.3213  0.4798
36712SOL     OW14692   8.138   9.673   3.392  0.2386  0.0503  0.2267
36712SOL    HW114693   8.063   9.669   3.333  1.5463 -1.4570 -1.4576
36712SOL    HW214694   8.161   9.766   3.396 -2.1159  0.6632  1.4251
36713SOL     OW14695   8.026   0.799   7.685 -0.2027 -0.7790  0.5331
36713SOL    HW114696   8.034   0.745   7.606  0.4073  0.7618 -0.5077
36713SOL    HW214697   7.934   0.790   7.710 -0.9552  0.3136 -1.6052
36714SOL     OW14698  11.421   6.713   4.169  0.1264  0.1354  0.1975
36714SOL    HW114699  11.514   6.731   4.160  0.3208 -0.2981  1.1584
36714SOL    HW214700  11.392   6.688   4.081  0.8644  0.4978 -0.1520
36715SOL     OW14701  10.483  10.396   4.585  0.5877 -0.1060 -0.1494
36715SOL    HW114702  10.562  10.442   4.555 -0.1422  0.7677 -0.8079
36715SOL    HW214703  10.466  10.432   4.672 -0.9183  2.2198 -1.3025
36716SOL     OW14704   2.879   4.100  10.933  0.0952  0.0817 -0.1396
36716SOL    HW114705   2.862   4.010  10.962  5.1498 -0.7961  0.9963
36716SOL    HW214706   2.823   4.154  10.989 -1.5198 -2.2088  0.6165
36717SOL     OW14707  10.763   7.107   1.582  0.1591  0.7442 -0.1780
36717SOL    HW114708  10.798   7.019   1.594  0.7757  0.8295 -1.2085
36717SOL    HW214709  10.724   7.130   1.666 -0.9691 -0.9319 -0.1919
36718SOL     OW14710   2.820   1.328  11.100 -0.1041 -0.1161 -0.2419
36718SOL    HW114711   2.865   1.391  11.157  0.7785  0.3810 -1.4458
36718SOL    HW214712   2.807   1.376  11.018 -2.9014 -0.2408  0.0538
36719SOL     OW14713   4.697   0.761   4.352 -0.1175  0.5710  0.1946
36719SOL    HW114714   4.640   0.838   4.348  0.4468  1.1069  1.8452
36719SOL    HW214715   4.785   0.797   4.360  0.1128 -0.2211  1.5144
36720SOL     OW14716   7.539   5.281   2.879 -0.2239  0.1237  0.1395
36720SOL    HW114717   7.530   5.331   2.960 -1.7541 -0.9985  0.7070
36720SOL    HW214718   7.468   5.313   2.823 -0.0172 -0.0659 -0.2330
36721SOL     OW14719   4.134   6.696   4.909  0.0482  0.1265  0.1059
36721SOL    HW114720   4.060   6.688   4.969  0.8952  0.0895  1.1771
36721SOL    HW214721   4.115   6.775   4.859 -1.1452 -0.3762 -0.2676
36722SOL     OW14722   9.753   6.420   2.882  0.9237 -0.1280  0.5746
36722SOL    HW114723   9.734   6.486   2.949 -1.0758  2.0187 -1.9047
36722SOL    HW214724   9.848   6.423   2.872  0.8531  3.8209 -0.6139
36723SOL     OW14725   8.190   0.952   3.226 -0.4156  0.1079 -0.4893
36723SOL    HW114726   8.106   0.937   3.182  0.7078 -1.9063 -2.1661
36723SOL    HW214727   8.225   0.864   3.239  0.8493  0.8503  1.4476
36724SOL     OW14728  11.734  11.647  10.050  0.0440  0.2223 -0.3587
36724SOL    HW114729  11.704  11.598  10.127  0.0348  0.7143 -0.0451
36724SOL    HW214730  11.748  11.736  10.082 -1.1420  0.7365 -1.1834
36725SOL     OW14731   4.970   4.754   4.985 -0.8843  0.4866 -0.3543
36725SOL    HW114732   4.947   4.817   5.052 -0.3338  0.4687 -0.1433
36725SOL    HW214733   5.059   4.779   4.957 -0.3608 -0.6132  0.2443
36726SOL     OW14734   3.446   1.002   2.787  0.1496  0.0584  0.3443
36726SOL    HW114735   3.428   0.961   2.702 -0.6388 -0.7891  0.9023
36726SOL    HW214736   3.487   1.086   2.765  1.2068 -0.7284 -0.8411
36727SOL     OW14737   5.134   9.138   9.513 -0.8230  0.3212 -0.1059
36727SOL    HW114738   5.150   9.137   9.419 -0.7502  1.3167 -0.1133
36727SOL    HW214739   5.072   9.066   9.528  0.2488 -0.7719 -0.6934
36728SOL     OW14740   7.719  12.013   8.826  0.0638  0.3368  0.0714
36728SOL    HW114741   7.655  12.011   8.898 -0.6207  1.2619 -0.4893
36728SOL    HW214742   7.751  11.923   8.821 -2.5905 -0.6597 -0.8315
36729SOL     OW14743   4.951  11.558  11.171  0.6953  0.1524 -0.7404
36729SOL    HW114744   4.889  11.594  11.235  1.2702  1.4406 -0.8808
36729SOL    HW214745   4.895  11.519  11.104  0.0736 -1.5652  0.6809
36730SOL     OW14746   8.480   9.215  11.449  0.1065 -0.3584  0.0791
36730SOL    HW114747   8.394   9.242  11.481  0.7721  0.5546  1.1623
36730SOL    HW214748   8.477   9.119  11.451 -0.3837 -0.3407  1.5467
36731SOL     OW14749   4.135   8.542   0.561 -0.8491  0.4188 -0.4662
36731SOL    HW114750   4.144   8.495   0.478  2.2045 -0.6541  0.3549
36731SOL    HW214751   4.112   8.632   0.535  0.3463  0.1892 -2.5130
36732SOL     OW14752   5.183   7.800   0.042 -0.2277  0.0897 -0.3464
36732SOL    HW114753   5.094   7.790   0.008 -1.0443 -1.8267  2.1066
36732SOL    HW214754   5.193   7.894   0.056 -1.4542  0.4440 -1.6006
36733SOL     OW14755   4.611   2.525   1.276 -0.2822 -0.0939  0.5141
36733SOL    HW114756   4.634   2.577   1.353 -2.5828 -1.7248  2.4322
36733SOL    HW214757   4.517   2.534   1.267 -0.1596 -0.4590 -1.7803
36734SOL     OW14758   8.682  10.688  10.072 -0.2831 -0.1885 -0.0172
36734SOL    HW114759   8.706  10.606  10.027 -1.2830  0.1801 -1.2715
36734SOL    HW214760   8.654  10.660  10.159  1.6746 -0.9245  0.4479
36735SOL     OW14761  11.765   1.164   6.691  0.2018  0.5247 -0.6333
36735SOL    HW114762  11.849   1.207   6.710  0.1578  0.8474 -1.1564
36735SOL    HW214763  11.712   1.232   6.650 -1.1983  1.0672  1.8343
36736SOL     OW14764   9.538   4.254   6.239 -0.3698  0.1280  0.1451
36736SOL    HW114765   9.466   4.238   6.298 -0.5010 -0.1598 -0.0882
36736SOL    HW214766   9.609   4.287   6.294 -1.4399  2.7493  0.0548
36737SOL     OW14767   8.171   5.991  11.068  0.7633  0.4597  0.3055
36737SOL    HW114768   8.165   5.906  11.025  0.4203  0.2151  0.8310
36737SOL    HW214769   8.182   6.054  10.996  2.9520 -0.1928  0.0018
36738SOL     OW14770  10.174   4.814  10.475  0.7098  0.1615 -0.1776
36738SOL    HW114771  10.147   4.793  10.564  0.6607 -1.3022 -0.5107
36738SOL    HW214772  10.269   4.821  10.479  0.5957  1.7053  0.2863
36739SOL     OW14773   4.862   2.517   5.416  0.2962  0.4051 -0.5561
36739SOL    HW114774   4.863   2.425   5.441  1.2377  0.1195 -1.5426
36739SOL    HW214775   4.808   2.560   5.482  1.2272 -0.5665  0.8920
36740SOL     OW14776  11.012   7.699   8.385  0.2750  0.2615  0.0577
36740SOL    HW114777  11.028   7.709   8.479 -0.4351  3.5168 -0.0357
36740SOL    HW214778  11.099   7.699   8.346  0.5544  1.7129  0.5948
36741SOL     OW14779   0.498   8.636   4.285  0.1913  0.5341  0.2342
36741SOL    HW114780   0.509   8.711   4.227  3.1724 -0.5137 -0.8052
36741SOL    HW214781   0.413   8.599   4.262 -0.8054  2.8500 -0.0460
36742SOL     OW14782   4.667   4.435   3.961 -0.2865 -0.0757  1.0926
36742SOL    HW114783   4.744   4.386   3.934  1.2375  2.3035  0.8502
36742SOL    HW214784   4.686   4.464   4.050 -0.1279  1.8789  0.4731
36743SOL     OW14785   6.824   1.132   1.616 -0.0326 -0.0280 -0.4494
36743SOL    HW114786   6.790   1.100   1.699  0.6644 -0.8157 -0.4628
36743SOL    HW214787   6.846   1.224   1.633 -0.4006 -0.0326  0.0682
36744SOL     OW14788  11.309   4.355   6.710  0.0714  0.0614 -0.7279
36744SOL    HW114789  11.267   4.269   6.712 -1.4650  0.7757 -1.3358
36744SOL    HW214790  11.369   4.350   6.635  0.7532 -0.7990 -0.1448
36745SOL     OW14791   8.761   7.959   5.354  0.2320 -0.2371  0.4200
36745SOL    HW114792   8.776   8.050   5.383 -0.5215 -0.6248  2.1868
36745SOL    HW214793   8.814   7.906   5.414  1.5690 -0.9600 -1.3093
36746SOL     OW14794   8.926   7.044   1.591 -0.2761  0.8518  0.4101
36746SOL    HW114795   8.835   7.052   1.619 -0.7156  2.0755 -1.2430
36746SOL    HW214796   8.959   7.134   1.590  0.5335  0.5563 -0.3365
36747SOL     OW14797   8.402   9.868  11.876  0.5545 -0.6321 -0.0069
36747SOL    HW114798   8.400   9.962  11.895 -3.3251 -0.8270  1.3790
36747SOL    HW214799   8.466   9.833  11.938  0.7098  0.8871  0.7412
36748SOL     OW14800  10.913   5.016   0.098 -0.1013 -0.5168  0.2827
36748SOL    HW114801  10.992   4.996   0.148 -0.1161 -0.8095  0.1881
36748SOL    HW214802  10.945   5.027   0.008 -0.4674 -3.0260 -0.2338
36749SOL     OW14803  12.120   8.691   1.789 -0.1955  0.8615  0.2108
36749SOL    HW114804  12.148   8.606   1.757 -0.2939  1.0939 -0.5089
36749SOL    HW214805  12.194   8.724   1.840 -0.2871  0.2076  0.7739
36750SOL     OW14806   6.601   2.859   4.764 -0.1386 -0.0447 -0.3283
36750SOL    HW114807   6.678   2.908   4.736 -0.0515  0.9476  1.4933
36750SOL    HW214808   6.556   2.836   4.683  1.2784  0.6535 -1.3474
36751SOL     OW14809   1.301   5.220   7.391 -0.8093  0.4696 -0.1580
36751SOL    HW114810   1.274   5.135   7.427 -0.1508  0.1147 -0.4813
36751SOL    HW214811   1.274   5.216   7.299 -1.3250  0.8573 -0.0265
36752SOL     OW14812  11.164  12.105  10.367 -0.4969 -0.4877  0.1440
36752SOL    HW114813  11.119  12.021  10.375 -1.8438 -0.0614 -2.0849
36752SOL    HW214814  11.094  12.170  10.375  0.3935  0.3963  0.9003
36753SOL     OW14815  11.476   4.814   7.941 -0.3898 -0.1406  0.5895
36753SOL    HW114816  11.405   4.771   7.988 -0.1901 -0.5014  0.5680
36753SOL    HW214817  11.509   4.879   8.002  1.1906 -1.9389  1.7634
36754SOL     OW14818   1.267   6.428   5.855 -0.5649  0.4381  0.1766
36754SOL    HW114819   1.341   6.481   5.825 -0.5250 -1.1438 -3.0404
36754SOL    HW214820   1.206   6.428   5.781 -1.4989 -2.2287  0.8119
36755SOL     OW14821   9.034   8.607  11.814  0.2947  0.1763 -0.2803
36755SOL    HW114822   9.093   8.681  11.830 -0.5257  0.9494 -0.7131
36755SOL    HW214823   9.091   8.537  11.782  1.2933  0.1441  1.4442
36756SOL     OW14824   8.698   8.624   6.601 -0.4153 -0.4627 -0.3736
36756SOL    HW114825   8.663   8.550   6.650 -0.2542 -0.2594  0.0652
36756SOL    HW214826   8.727   8.685   6.669 -2.2386  0.8278 -0.6851
36757SOL     OW14827   3.211   2.385   5.481  0.1226  0.1724  0.3393
36757SOL    HW114828   3.275   2.317   5.457  1.6533  0.8611  2.2207
36757SOL    HW214829   3.242   2.464   5.435  0.2730  0.3553  0.7462
36758SOL     OW14830   0.725   1.834   3.331 -0.0466  0.4282 -0.2200
36758SOL    HW114831   0.702   1.760   3.387 -1.2855 -0.2911 -1.6073
36758SOL    HW214832   0.765   1.795   3.253  1.3479  1.3828 -0.0182
36759SOL     OW14833   1.880   3.775   4.001  0.5324 -0.4661  0.0494
36759SOL    HW114834   1.857   3.728   3.921  0.0976 -1.7098  0.8805
36759SOL    HW214835   1.798   3.778   4.051  1.0141 -0.5199  0.8544
36760SOL     OW14836  11.080   4.035   1.081 -0.3138 -0.6343 -0.6164
36760SOL    HW114837  11.117   3.965   1.134  0.2405 -0.0160 -0.1569
36760SOL    HW214838  11.111   4.115   1.123 -1.9734 -0.0808 -0.3581
36761SOL     OW14839   5.541   3.904   3.252  0.5826  0.0260  0.4043
36761SOL    HW114840   5.546   3.995   3.222  1.5541 -0.9108 -2.5669
36761SOL    HW214841   5.472   3.864   3.200  0.4949 -1.0726  1.3183
36762SOL     OW14842  10.289   6.743   8.629 -0.5045 -0.2296 -0.0797
36762SOL    HW114843  10.339   6.783   8.558  0.6366 -2.1297 -0.4218
36762SOL    HW214844  10.286   6.811   8.697  3.7666 -0.3271  0.4998
36763SOL     OW14845  11.863  10.082   1.283  0.3423  0.4259  0.3431
36763SOL    HW114846  11.901  10.040   1.206 -1.3168  0.2085 -0.4005
36763SOL    HW214847  11.828  10.165   1.250  1.2673  1.2101  1.2656
36764SOL     OW14848   4.705   1.433   7.942 -0.2485  0.1328  0.5695
36764SOL    HW114849   4.774   1.499   7.943 -0.8757  0.9057 -1.5886
36764SOL    HW214850   4.735   1.369   7.877 -0.5216 -0.7378  1.2888
36765SOL     OW14851   5.437  11.443   9.131  0.0008 -0.5817  0.5485
36765SOL    HW114852   5.434  11.423   9.224  0.3934 -0.8577  0.5046
36765SOL    HW214853   5.462  11.361   9.089  1.1307 -0.1423  0.3208
36766SOL     OW14854   6.046   8.334  10.916  0.4471  0.4133 -0.2681
36766SOL    HW114855   6.127   8.338  10.968  0.5017 -0.1043 -0.3062
36766SOL    HW214856   6.067   8.380  10.835 -0.1023  2.6006  0.7491
36767SOL     OW14857   5.401   0.474   5.935 -0.3553  0.2309  0.5228
36767SOL    HW114858   5.392   0.524   5.854  1.4023  0.2789  0.3072
36767SOL    HW214859   5.319   0.488   5.982 -0.9878  1.0473 -0.7851
36768SOL     OW14860   9.978   2.767  11.577 -0.2589  0.0193 -0.5227
36768SOL    HW114861  10.052   2.707  11.563 -0.2576 -0.0852 -0.0783
36768SOL    HW214862  10.016   2.841  11.625  0.2562  1.5061 -3.0397
36769SOL     OW14863   4.780   0.026   3.953  0.1574  0.5603  0.3485
36769SOL    HW114864   4.752   0.019   4.045 -0.6388 -0.3882  0.0521
36769SOL    HW214865   4.701   0.007   3.903  1.0701 -1.1154 -0.5298
36770SOL     OW14866   7.661  11.630  10.712  0.2744 -0.5316  0.3827
36770SOL    HW114867   7.598  11.591  10.772 -1.7863 -1.6306 -2.2914
36770SOL    HW214868   7.741  11.579  10.724 -0.0415 -0.6746  2.1459
36771SOL     OW14869   3.707   7.718   8.288  0.1234  0.0487  0.2760
36771SOL    HW114870   3.712   7.629   8.254  2.2660  0.5347 -0.8974
36771SOL    HW214871   3.618   7.746   8.271 -0.7885 -2.0623  1.2486
36772SOL     OW14872   0.434   8.036   3.467 -0.1152  0.1376  0.3018
36772SOL    HW114873   0.340   8.055   3.468 -0.0355  0.5993  2.0269
36772SOL    HW214874   0.454   8.020   3.375 -1.7506  0.6815 -0.1830
36773SOL     OW14875   1.492   8.046   2.111  0.2923 -0.3966  0.5407
36773SOL    HW114876   1.529   7.963   2.082  0.6819 -0.0729  0.0909
36773SOL    HW214877   1.480   8.035   2.205  0.4627 -0.9159  0.5072
36774SOL     OW14878   9.557  11.929   8.659 -0.2902  0.7482 -0.2039
36774SOL    HW114879   9.550  12.008   8.714  0.3548  0.9492 -0.3945
36774SOL    HW214880   9.592  11.961   8.576  1.3741  0.0775  0.2000
36775SOL     OW14881   7.376   7.109   2.805 -0.1440 -0.2552  0.0428
36775SOL    HW114882   7.375   7.188   2.751  0.9984 -0.0888  0.2456
36775SOL    HW214883   7.356   7.139   2.893  1.6811  0.0542  0.3906
36776SOL     OW14884   0.616  11.037   9.855 -0.0290 -0.0367 -0.3873
36776SOL    HW114885   0.557  11.109   9.834  0.0601 -0.0197 -0.5814
36776SOL    HW214886   0.631  11.045   9.949  2.4390  2.0733 -0.8602
36777SOL     OW14887   0.321   0.922   7.417  0.2941 -0.3068 -0.1221
36777SOL    HW114888   0.259   0.941   7.487 -0.2815 -4.6553  0.8005
36777SOL    HW214889   0.267   0.909   7.340  0.6606  1.3316 -0.6975
36778SOL     OW14890   4.563  11.268   1.748  0.1654 -0.3825  0.1766
36778SOL    HW114891   4.492  11.245   1.688  1.2559 -0.0100 -1.3191
36778SOL    HW214892   4.532  11.238   1.834 -2.6675  1.5608 -0.0229
36779SOL     OW14893  10.142   8.588   7.731 -0.2338  0.3679 -0.4108
36779SOL    HW114894  10.124   8.637   7.651  2.0790  0.7471 -0.7745
36779SOL    HW214895  10.224   8.542   7.713 -0.0093 -0.0808  1.5174
36780SOL     OW14896  11.527   6.414  10.373  0.5841  0.4791 -0.3187
36780SOL    HW114897  11.468   6.448  10.305 -0.8151  0.0658  0.6534
36780SOL    HW214898  11.475   6.416  10.453  1.4063 -1.2855  0.3045
36781SOL     OW14899   7.137   8.365   6.426  0.4656 -0.0074 -0.0645
36781SOL    HW114900   7.203   8.350   6.494 -0.1906  0.6419  0.7310
36781SOL    HW214901   7.188   8.375   6.345  1.2747 -0.5085  0.3715
36782SOL     OW14902   4.567   7.865   6.807 -0.1396 -0.5193  0.4038
36782SOL    HW114903   4.607   7.946   6.774  0.6021 -0.4371  1.4515
36782SOL    HW214904   4.592   7.862   6.899 -3.1729 -0.1189  1.3429
36783SOL     OW14905   5.808   1.483   3.227  0.1600 -0.0827 -0.0670
36783SOL    HW114906   5.728   1.487   3.174 -1.0189 -0.7492  1.5472
36783SOL    HW214907   5.839   1.573   3.230 -1.7509  0.6110  0.9481
36784SOL     OW14908   8.758   2.601   7.593  0.4919 -0.2171 -0.4337
36784SOL    HW114909   8.705   2.521   7.603 -1.8107  1.3769  1.1990
36784SOL    HW214910   8.707   2.657   7.536  0.8748  1.0211  0.4094
36785SOL     OW14911   5.559  10.920  11.990  0.4116 -0.5668 -0.0718
36785SOL    HW114912   5.630  10.859  11.970  1.2109  0.3414 -0.0673
36785SOL    HW214913   5.602  10.994  12.033 -0.4630  0.2204 -0.5109
36786SOL     OW14914  11.613   4.958   6.366  0.2044 -0.1575 -0.1281
36786SOL    HW114915  11.526   4.955   6.406 -0.1100  2.2709 -0.4844
36786SOL    HW214916  11.665   4.896   6.418 -0.8757  0.8633  2.3564
36787SOL     OW14917   1.394   4.016   2.280  0.1954  0.0746 -0.0591
36787SOL    HW114918   1.426   4.045   2.194 -0.5273  0.4761 -0.2046
36787SOL    HW214919   1.321   4.075   2.299  0.4149  0.0612  0.8879
36788SOL     OW14920   8.851   7.538   5.233  0.3343 -0.1736 -0.2879
36788SOL    HW114921   8.880   7.463   5.181 -0.7701 -2.0377  1.6191
36788SOL    HW214922   8.927   7.596   5.237  2.1177 -2.4180  0.3063
36789SOL     OW14923   9.236   8.048   0.286  0.1193 -0.2000 -0.0537
36789SOL    HW114924   9.241   7.971   0.229  0.0287  0.3082 -0.7475
36789SOL    HW214925   9.147   8.081   0.273  0.5092  0.6525 -0.5658
36790SOL     OW14926   9.644   4.509  10.290  0.2545 -0.5481  0.2394
36790SOL    HW114927   9.712   4.479  10.230  1.0137 -0.1456  0.8873
36790SOL    HW214928   9.602   4.429  10.322 -1.0331 -0.7603 -1.7798
36791SOL     OW14929   2.201   2.544  12.110 -0.4280  0.3151  0.2233
36791SOL    HW114930   2.194   2.528  12.204  0.0775  1.0260  0.3931
36791SOL    HW214931   2.112   2.566  12.082 -0.8164 -1.0745  0.2931
36792SOL     OW14932   0.182   7.501  12.067  0.2134 -0.4387 -0.0294
36792SOL    HW114933   0.104   7.467  12.110 -1.6260  1.1342 -1.8989
36792SOL    HW214934   0.191   7.591  12.101  1.6141 -0.7914  0.6205
36793SOL     OW14935   0.667   7.052   7.136 -0.2160  0.1684  0.2500
36793SOL    HW114936   0.716   7.050   7.054 -0.3936 -1.3008  0.1539
36793SOL    HW214937   0.723   7.009   7.200 -0.3348  0.7576  0.7672
36794SOL     OW14938  11.805   4.153   2.670 -0.2014  0.2304 -0.4592
36794SOL    HW114939  11.792   4.071   2.718  1.3801  0.5194  0.5587
36794SOL    HW214940  11.721   4.198   2.677 -1.4137 -1.6437 -1.8299
36795SOL     OW14941   2.976   8.543   4.979  0.2011 -0.0946  0.3885
36795SOL    HW114942   3.053   8.585   4.940  1.0669 -0.2482  1.8808
36795SOL    HW214943   2.948   8.480   4.913  0.8833  0.4990 -0.5008
36796SOL     OW14944   8.473   8.643   1.509 -0.6085  0.2044  0.6130
36796SOL    HW114945   8.499   8.726   1.549  0.3223  0.8890 -1.2795
36796SOL    HW214946   8.515   8.644   1.423  2.5801 -3.8735  1.8057
36797SOL     OW14947   0.393   0.336   0.333  0.2965  0.0711  0.2957
36797SOL    HW114948   0.392   0.251   0.289  2.2769 -0.1668  0.6071
36797SOL    HW214949   0.304   0.369   0.325 -0.2082 -1.4923 -0.8884
36798SOL     OW14950   1.454   6.191  11.463  0.7557 -0.2270  0.0152
36798SOL    HW114951   1.415   6.261  11.410 -1.1511 -0.7796  0.6221
36798SOL    HW214952   1.489   6.235  11.540  0.1405  0.1499  0.0844
36799SOL     OW14953   0.915   5.058   3.553  0.4853  0.0041 -0.2211
36799SOL    HW114954   0.990   5.020   3.508  1.0781 -0.1405  0.8314
36799SOL    HW214955   0.884   4.989   3.611 -0.4240  0.0897 -0.6038
36800SOL     OW14956   0.876   7.909  10.835 -0.3566 -0.0281 -0.1453
36800SOL    HW114957   0.927   7.835  10.868  0.6355  0.5245 -0.3964
36800SOL    HW214958   0.917   7.986  10.875 -0.9895  0.4352 -0.3669
36801SOL     OW14959   7.618   1.716   9.284 -0.1298  0.1941 -0.4045
36801SOL    HW114960   7.607   1.774   9.209 -0.4700 -0.6837 -1.0435
36801SOL    HW214961   7.664   1.769   9.349 -2.6959  2.0506  0.0302
36802SOL     OW14962   3.392  10.848   8.508  0.3994  0.2869  0.4043
36802SOL    HW114963   3.340  10.825   8.584 -0.5798 -3.0175 -1.0760
36802SOL    HW214964   3.336  10.905   8.456  0.4048  1.1431  1.3224
36803SOL     OW14965   8.150   7.204   7.111  0.5190  0.5084 -0.3803
36803SOL    HW114966   8.080   7.168   7.056  0.2755  1.6023 -0.7995
36803SOL    HW214967   8.224   7.145   7.098 -0.1302 -0.3246 -0.3944
36804SOL     OW14968   5.430   3.403  10.883  0.3414 -0.6857  0.0563
36804SOL    HW114969   5.412   3.496  10.899 -0.2025 -0.5167 -1.3467
36804SOL    HW214970   5.517   3.388  10.919  0.2772  0.2738  0.6432
36805SOL     OW14971   2.422   4.144   8.806 -0.6390 -0.2747 -0.1632
36805SOL    HW114972   2.460   4.083   8.743  1.2618  1.2252 -0.5583
36805SOL    HW214973   2.488   4.149   8.876 -0.9526  0.9829  0.0562
36806SOL     OW14974   3.191   3.777   2.782  0.3725 -0.0929 -0.4486
36806SOL    HW114975   3.104   3.742   2.801 -0.2132  0.8075 -1.3754
36806SOL    HW214976   3.230   3.714   2.722  0.1158 -0.2014 -0.5025
36807SOL     OW14977  10.737   0.821   5.373 -0.1325 -0.4889  0.1245
36807SOL    HW114978  10.712   0.741   5.420 -0.8546 -0.3322  0.0056
36807SOL    HW214979  10.655   0.864   5.353  0.1044 -0.9533 -2.0352
36808SOL     OW14980   5.737   6.887   3.527 -0.0581  0.4677  0.0576
36808SOL    HW114981   5.696   6.927   3.604 -1.4975 -1.1142  0.1819
36808SOL    HW214982   5.679   6.910   3.455  1.9160  2.9673 -0.8671
36809SOL     OW14983   9.326   7.099  11.820  0.1408  0.0004 -0.0115
36809SOL    HW114984   9.415   7.117  11.850  0.6761 -1.8124 -0.4159
36809SOL    HW214985   9.316   7.153  11.741  0.5251  0.8976  0.5329
36810SOL     OW14986   9.978   9.146   3.890  0.4013 -0.3363  0.1128
36810SOL    HW114987  10.066   9.140   3.927  0.1340 -2.3945  0.5211
36810SOL    HW214988   9.962   9.240   3.883  2.2722  0.0962  0.8610
36811SOL     OW14989   5.592   0.113  10.652  0.4815  0.3261  0.1054
36811SOL    HW114990   5.636   0.075  10.727  1.1029 -1.3470 -1.0566
36811SOL    HW214991   5.661   0.124  10.586 -0.0978  1.4846 -0.3391
36812SOL     OW14992   3.470   0.075   0.626  0.1063 -0.2050  0.5864
36812SOL    HW114993   3.422   0.067   0.544  1.1056  2.4166 -0.3716
36812SOL    HW214994   3.560   0.094   0.600  0.4486  0.7048  2.2797
36813SOL     OW14995   3.593   0.087   5.288 -0.0632 -0.3668 -0.0334
36813SOL    HW114996   3.643   0.103   5.368 -0.5935  1.1938  0.0222
36813SOL    HW214997   3.592   0.171   5.243 -0.7597 -0.9302 -1.1235
36814SOL     OW14998   9.165   6.048   1.264  0.1164  0.4258 -0.0459
36814SOL    HW114999   9.096   6.005   1.315 -0.0020  0.9707  0.2623
36814SOL    HW215000   9.130   6.053   1.175  0.2741 -0.4194 -0.1741
36815SOL     OW15001  10.828  10.318   4.009  0.1256 -0.4810  0.0451
36815SOL    HW115002  10.758  10.313   4.075  0.3480  1.1377  0.4527
36815SOL    HW215003  10.818  10.238   3.958 -1.0795 -1.0075  1.0377
36816SOL     OW15004  11.079   0.673   8.282  0.1166  0.1138  0.4753
36816SOL    HW115005  11.057   0.759   8.317  0.9364 -0.0568  1.4326
36816SOL    HW215006  11.066   0.613   8.355  1.8271 -0.2496  0.5084
36817SOL     OW15007   6.504   1.159   0.433 -0.0389  0.3595  0.1810
36817SOL    HW115008   6.580   1.151   0.375 -0.3514 -2.5691  0.0161
36817SOL    HW215009   6.438   1.202   0.379  0.3358 -0.4510 -0.9801
36818SOL     OW15010  11.784  11.102  10.636 -0.5030 -0.0663 -0.2841
36818SOL    HW115011  11.729  11.173  10.603  0.6433  1.6576  1.2859
36818SOL    HW215012  11.870  11.117  10.596 -0.1922 -0.4034  0.2406
36819SOL     OW15013   3.201   6.777   9.851 -0.7316  0.4732  0.5779
36819SOL    HW115014   3.189   6.768   9.756 -1.0173 -0.2254  0.6776
36819SOL    HW215015   3.209   6.687   9.883 -0.7975  0.6991  1.2426
36820SOL     OW15016   7.787   2.075  10.100  0.2760  0.5562 -0.4161
36820SOL    HW115017   7.705   2.026  10.101  1.2726 -1.2042 -0.5979
36820SOL    HW215018   7.823   2.063  10.188  0.5858  0.9135 -0.4894
36821SOL     OW15019   6.814   3.677   4.271  0.3211 -0.6747 -0.2846
36821SOL    HW115020   6.850   3.591   4.251 -3.1777 -2.1943 -0.7076
36821SOL    HW215021   6.776   3.667   4.358  1.4833  1.1069  0.4931
36822SOL     OW15022   0.914  11.539  11.207  0.3222  0.6040  0.0835
36822SOL    HW115023   0.998  11.503  11.180  0.0931  1.7733 -2.4238
36822SOL    HW215024   0.855  11.464  11.211  1.0185  0.0475 -0.0781
36823SOL     OW15025   6.324   1.809  11.172  0.4854  0.0254 -0.3941
36823SOL    HW115026   6.244   1.850  11.204  1.1610  0.3511  0.9518
36823SOL    HW215027   6.307   1.793  11.080 -0.3085  2.1429 -0.6830
36824SOL     OW15028   6.448   0.403   7.816  0.0928 -0.1542 -0.2374
36824SOL    HW115029   6.491   0.440   7.739  1.5323  1.0858  1.1013
36824SOL    HW215030   6.398   0.328   7.782  1.9334 -0.6136 -2.1256
36825SOL     OW15031   5.248  11.207   3.910  0.7375 -0.6813  0.5106
36825SOL    HW115032   5.211  11.223   3.997 -0.8193  0.7225 -0.3573
36825SOL    HW215033   5.339  11.182   3.927  0.2913 -1.1004  2.5577
36826SOL     OW15034   5.520   0.305   5.504 -0.0548  0.2767 -0.1598
36826SOL    HW115035   5.579   0.242   5.461  0.8189  0.8146  0.2434
36826SOL    HW215036   5.471   0.345   5.431 -0.3375 -0.5672 -0.4503
36827SOL     OW15037   7.709   7.608   2.892  0.4530 -0.5193  0.4118
36827SOL    HW115038   7.774   7.597   2.962  0.5318  0.2722  0.4653
36827SOL    HW215039   7.733   7.690   2.849 -0.7706  0.0135  0.7062
36828SOL     OW15040  11.217   0.876   3.822 -0.0766 -0.2637 -0.0296
36828SOL    HW115041  11.242   0.860   3.730  0.2387 -0.4072  0.0788
36828SOL    HW215042  11.226   0.971   3.833 -1.8531  0.0019 -0.6464
36829SOL     OW15043   5.959   6.424   6.965 -0.0574  0.3978  1.0729
36829SOL    HW115044   5.944   6.393   6.876 -0.8577  0.7963  1.0583
36829SOL    HW215045   6.047   6.393   6.987 -0.5092 -1.1789  0.7774
36830SOL     OW15046   4.554   0.234   9.137  0.3087 -0.0125 -0.1683
36830SOL    HW115047   4.482   0.297   9.130  0.1167 -0.2633 -0.4982
36830SOL    HW215048   4.596   0.238   9.051  0.3431 -0.2824 -0.1623
36831SOL     OW15049   9.674   0.950   7.098 -0.7107 -0.5037 -0.3458
36831SOL    HW115050   9.737   0.895   7.051 -0.4626 -0.5689  0.0536
36831SOL    HW215051   9.715   1.036   7.101  0.2895 -0.9745  1.5940
36832SOL     OW15052   7.333   6.294  10.708  0.3142  0.2467  0.3226
36832SOL    HW115053   7.402   6.232  10.683  1.6598  2.5314 -2.1225
36832SOL    HW215054   7.252   6.248  10.687  1.1706 -1.3465  0.2717
36833SOL     OW15055   3.578   3.422   1.510 -0.1201 -0.2791 -0.9541
36833SOL    HW115056   3.515   3.388   1.574  0.1895  1.1500  0.1658
36833SOL    HW215057   3.657   3.369   1.525 -0.0690  0.0006 -0.1765
36834SOL     OW15058   1.530   7.602   3.358 -0.0056  0.7421  0.4892
36834SOL    HW115059   1.585   7.524   3.351 -1.5782 -0.2361 -2.6749
36834SOL    HW215060   1.541   7.646   3.274 -4.0335  0.4247 -0.3901
36835SOL     OW15061   3.560   4.687   3.123  0.4102  0.2388 -0.4492
36835SOL    HW115062   3.487   4.680   3.061 -0.7133  0.0824  0.8371
36835SOL    HW215063   3.611   4.761   3.092 -0.5022  0.5775 -1.1865
36836SOL     OW15064  12.033   9.801   3.966 -0.1534 -0.1258 -0.1791
36836SOL    HW115065  12.038   9.774   4.057  0.5941  0.5816  0.0049
36836SOL    HW215066  11.964   9.866   3.964  1.8215  2.1363  0.5274
36837SOL     OW15067   2.144   1.890   2.012  0.4291 -0.4481  0.4380
36837SOL    HW115068   2.220   1.853   1.966  1.8605  0.9036  1.5746
36837SOL    HW215069   2.180   1.923   2.094 -0.9458  2.2521  0.0723
36838SOL     OW15070  12.040   2.738  11.919  0.4725 -0.0825  0.0246
36838SOL    HW115071  12.065   2.771  12.005  0.7749 -0.3552  0.0412
36838SOL    HW215072  11.986   2.661  11.939  2.0411 -1.2328 -0.0434
36839SOL     OW15073   8.658   3.179   2.775 -0.3395  0.2717 -0.7094
36839SOL    HW115074   8.753   3.165   2.772 -0.6595 -2.0360 -1.6403
36839SOL    HW215075   8.640   3.201   2.867  1.1168  1.1621 -0.6087
36840SOL     OW15076   4.550   2.548   0.852  0.4348 -0.1321  0.0896
36840SOL    HW115077   4.598   2.547   0.935 -0.2380  1.5195  0.5303
36840SOL    HW215078   4.515   2.459   0.843  0.4378 -0.3068  1.6083
36841SOL     OW15079   3.954   5.173   6.170  0.0918  0.3238 -0.2043
36841SOL    HW115080   3.898   5.118   6.224 -0.2136  0.7670 -0.0684
36841SOL    HW215081   3.990   5.113   6.105  0.1220 -0.1271  0.2205
36842SOL     OW15082   9.906   3.922   3.572  0.4343 -0.1430 -0.4346
36842SOL    HW115083   9.814   3.907   3.590  0.2495  0.9755 -0.3891
36842SOL    HW215084   9.915   4.017   3.565  0.9682 -0.2863 -3.6161
36843SOL     OW15085   1.124  10.181  10.447  0.1494  0.5596  0.4392
36843SOL    HW115086   1.052  10.193  10.385  1.3052 -2.2843 -1.6407
36843SOL    HW215087   1.089  10.119  10.512  0.5510 -0.5374 -0.3664
36844SOL     OW15088   1.681   7.135   8.177 -0.3253  0.5334  0.1761
36844SOL    HW115089   1.699   7.105   8.088 -0.5491 -0.4930  0.4676
36844SOL    HW215090   1.623   7.069   8.214  0.3609  0.5375  1.3335
36845SOL     OW15091   7.599   1.595   4.652  0.0288 -0.5692  0.2058
36845SOL    HW115092   7.546   1.524   4.615  0.5639 -1.4537  1.1042
36845SOL    HW215093   7.653   1.553   4.718  0.1354  0.7339  0.9775
36846SOL     OW15094  11.967   9.231   5.620 -0.2215 -0.1372 -0.1170
36846SOL    HW115095  11.936   9.322   5.614  0.6798  0.4843  2.9238
36846SOL    HW215096  11.908   9.190   5.683  0.8359 -0.9414  0.3705
36847SOL     OW15097   1.193   0.854   5.322  0.1556  0.2163 -0.2692
36847SOL    HW115098   1.218   0.838   5.413  0.9603  1.7494 -0.2004
36847SOL    HW215099   1.181   0.949   5.316  0.4442  0.1836 -1.8392
36848SOL     OW15100   3.071   8.938  11.780  0.9358 -0.5512 -0.1523
36848SOL    HW115101   2.996   8.966  11.727 -0.1074 -1.3284  0.8686
36848SOL    HW215102   3.141   8.999  11.757 -0.0024  0.1922 -1.1279
36849SOL     OW15103   0.055  10.120   5.833  0.7297  0.7976 -0.5096
36849SOL    HW115104  -0.011  10.151   5.771  1.4644 -0.0685 -1.7602
36849SOL    HW215105   0.099  10.048   5.788  1.5272  0.3696  0.8862
36850SOL     OW15106   7.436   6.649   0.635  0.3290  0.3110  0.1117
36850SOL    HW115107   7.360   6.630   0.580 -0.8187 -0.2369  1.7995
36850SOL    HW215108   7.493   6.573   0.622 -0.3783 -0.2885  0.4077
36851SOL     OW15109   9.557   5.943  11.510  0.2038 -0.1975 -0.1146
36851SOL    HW115110   9.651   5.961  11.511  0.3443 -0.9110  1.0389
36851SOL    HW215111   9.541   5.907  11.422  0.9363  0.2419 -0.4387
36852SOL     OW15112  10.696   7.042   9.521  0.0151  0.5445 -0.0407
36852SOL    HW115113  10.615   7.086   9.494 -0.3255  0.7980  1.2871
36852SOL    HW215114  10.679   7.017   9.612  1.1970  0.0109  0.0455
36853SOL     OW15115   0.176   8.989  10.320  0.3690 -0.3424  0.3791
36853SOL    HW115116   0.217   8.966  10.237 -0.4917  3.9057 -1.5241
36853SOL    HW215117   0.082   8.995  10.300  0.1630  0.9595  1.5373
36854SOL     OW15118   0.639   4.309   5.715 -0.3683 -0.0328 -0.1573
36854SOL    HW115119   0.639   4.265   5.630  1.4166  1.8114 -1.1865
36854SOL    HW215120   0.729   4.338   5.727 -0.6918  0.1943  2.1711
36855SOL     OW15121   5.355   0.268  10.585  0.4102 -0.2214 -0.9155
36855SOL    HW115122   5.405   0.212  10.645 -0.1355 -0.1690 -0.4015
36855SOL    HW215123   5.421   0.326  10.546  0.6468  0.4034  0.3631
36856SOL     OW15124   9.986   1.473   9.266 -0.0950 -0.4569 -0.0165
36856SOL    HW115125  10.009   1.381   9.272 -1.0888 -0.6619  1.1076
36856SOL    HW215126  10.053   1.519   9.315  0.8471 -0.4717 -1.2385
36857SOL     OW15127  11.789   4.787   3.395  0.0881  0.5433  0.3227
36857SOL    HW115128  11.768   4.700   3.427  0.0346 -0.0507 -1.2308
36857SOL    HW215129  11.881   4.800   3.418 -0.0387  0.2788  0.9878
36858SOL     OW15130   8.515  10.553   8.744 -0.0192  0.7558  0.0149
36858SOL    HW115131   8.588  10.492   8.740 -0.9141 -0.3166 -0.8945
36858SOL    HW215132   8.555  10.638   8.761  1.4119  0.1834 -0.3462
36859SOL     OW15133   0.128  10.884   8.043 -0.6489 -0.8024  0.8255
36859SOL    HW115134   0.215  10.882   8.003 -1.6776  0.0125 -1.6349
36859SOL    HW215135   0.131  10.958   8.104 -0.3033  0.8153 -1.0789
36860SOL     OW15136  10.572   0.647  11.522 -0.4972 -0.1139  0.1706
36860SOL    HW115137  10.545   0.729  11.482 -0.2985 -1.3788 -2.8085
36860SOL    HW215138  10.498   0.588  11.509  0.5479 -1.2977 -0.7309
36861SOL     OW15139   9.367  11.326   2.986 -0.1273  0.2775  0.0871
36861SOL    HW115140   9.423  11.254   3.014  0.1934 -0.1380 -1.5269
36861SOL    HW215141   9.280  11.304   3.019  0.1711 -0.3383  0.4666
36862SOL     OW15142   4.474   2.923   3.253 -0.4435  1.0085 -0.1063
36862SOL    HW115143   4.428   2.906   3.335  1.1674 -1.1487  0.4601
36862SOL    HW215144   4.504   3.013   3.260 -0.2773  0.8366  1.7297
36863SOL     OW15145   6.790   3.814   2.420  0.3348  0.0788 -0.2807
36863SOL    HW115146   6.765   3.906   2.432 -0.4269 -0.2247  0.5292
36863SOL    HW215147   6.779   3.774   2.506  1.6257 -0.5612 -0.3866
36864SOL     OW15148   0.750   4.382  10.178 -0.0851  0.1210  0.4129
36864SOL    HW115149   0.754   4.335  10.095 -0.9021  0.8097 -0.0192
36864SOL    HW215150   0.657   4.391  10.197  0.0854  0.4429  1.1443
36865SOL     OW15151   7.036   6.230   3.405 -0.1158  0.1575 -0.0730
36865SOL    HW115152   7.120   6.250   3.445 -0.0778  1.8256 -0.9013
36865SOL    HW215153   7.037   6.277   3.321 -1.5687 -0.3956 -0.4399
36866SOL     OW15154  10.176   9.760   5.503 -0.4444  0.2603  0.4851
36866SOL    HW115155  10.153   9.669   5.522 -1.3563  0.4956  0.5704
36866SOL    HW215156  10.102   9.793   5.452 -0.2939  1.0633  0.7734
36867SOL     OW15157  11.014   9.430   2.314 -0.4840  0.6799  0.7528
36867SOL    HW115158  10.948   9.395   2.254  0.4549 -0.4977  0.3820
36867SOL    HW215159  11.076   9.359   2.326 -0.3986  1.0330  2.7911
36868SOL     OW15160  11.084   6.329   7.606 -0.1977 -0.3405 -0.4072
36868SOL    HW115161  11.147   6.357   7.539  1.3106 -0.7472  0.7777
36868SOL    HW215162  11.118   6.245   7.637 -1.1871 -0.4334  0.4610
36869SOL     OW15163  11.818   8.455  11.323 -0.0836 -0.3959 -0.0604
36869SOL    HW115164  11.824   8.541  11.365 -0.9211 -0.3334 -0.0443
36869SOL    HW215165  11.816   8.475  11.229  0.6120 -0.4573 -0.0882
36870SOL     OW15166   8.138  10.363  10.407 -0.1945  0.3067 -0.0555
36870SOL    HW115167   8.083  10.303  10.357  0.6526 -0.8302  0.3286
36870SOL    HW215168   8.095  10.449  10.398 -1.5060 -0.3703 -0.5011
36871SOL     OW15169   0.727   2.334   1.475  0.1093 -0.3014 -0.7447
36871SOL    HW115170   0.820   2.332   1.451  0.1735  0.5793 -0.6119
36871SOL    HW215171   0.686   2.269   1.419  1.0270 -1.7024  0.1502
36872SOL     OW15172  11.666   3.265   0.131 -0.0417 -0.0871  0.5217
36872SOL    HW115173  11.590   3.238   0.183  1.1539  0.2048  2.5207
36872SOL    HW215174  11.736   3.207   0.159  0.7704  0.3813 -0.4663
36873SOL     OW15175   9.286   9.293   2.861  0.0472 -0.7121  0.0053
36873SOL    HW115176   9.311   9.246   2.940  0.6066 -1.1623 -0.4341
36873SOL    HW215177   9.214   9.350   2.889  0.0910 -1.0272  0.7833
36874SOL     OW15178   1.441   3.879   0.515 -0.0808  0.0907 -0.0290
36874SOL    HW115179   1.512   3.887   0.451  0.6308 -0.9340  0.5946
36874SOL    HW215180   1.434   3.785   0.530 -1.2004  0.2231  0.3493
36875SOL     OW15181   3.833   8.243   3.084 -0.4604 -0.1865 -0.0590
36875SOL    HW115182   3.746   8.232   3.120 -0.3804  0.3404  0.3088
36875SOL    HW215183   3.840   8.175   3.016 -1.8426  0.9333 -1.3968
36876SOL     OW15184   8.863  10.246   4.235 -0.1615 -0.0598  0.9456
36876SOL    HW115185   8.920  10.302   4.287  0.2701 -0.3740  0.8170
36876SOL    HW215186   8.838  10.176   4.294 -0.6514  0.2337  1.0883
36877SOL     OW15187   7.662   2.420   3.759  0.1384 -0.8460 -0.0838
36877SOL    HW115188   7.675   2.480   3.833  0.3600  1.3974 -1.8388
36877SOL    HW215189   7.578   2.379   3.777 -0.6205  0.9013  0.6489
36878SOL     OW15190   9.338   2.514   2.738  0.4872 -0.4884 -0.0057
36878SOL    HW115191   9.404   2.469   2.685 -0.4067 -2.1465  0.2461
36878SOL    HW215192   9.260   2.516   2.682  0.5530  0.9583 -0.0865
36879SOL     OW15193   4.097   3.059  10.365 -0.9703 -0.1823 -0.2187
36879SOL    HW115194   4.046   3.134  10.395  0.3785  0.2299  1.1235
36879SOL    HW215195   4.113   3.076  10.272  0.9889  2.2447  0.4612
36880SOL     OW15196   8.920   5.443  10.510  0.2994 -0.2469  0.7684
36880SOL    HW115197   8.930   5.369  10.450 -1.4359 -0.8264  1.1261
36880SOL    HW215198   8.896   5.403  10.594 -1.5765  0.6999  0.7494
36881SOL     OW15199   4.577   3.199   9.314 -0.3207  0.3794 -0.3608
36881SOL    HW115200   4.506   3.263   9.312  0.5171  1.3247 -0.5337
36881SOL    HW215201   4.643   3.238   9.372  0.7314  0.2633 -1.4434
36882SOL     OW15202   2.325   9.987   5.312  0.6960 -0.1350 -0.3454
36882SOL    HW115203   2.276   9.904   5.312  0.6386 -0.1074  0.4511
36882SOL    HW215204   2.383   9.980   5.237 -0.1161 -0.4198 -0.9597
36883SOL     OW15205   7.310   3.272   2.917  0.2530  0.3396  0.1499
36883SOL    HW115206   7.238   3.242   2.862 -0.0425  0.3589  0.5237
36883SOL    HW215207   7.388   3.234   2.877  0.1105  0.8476 -0.6372
36884SOL     OW15208   3.127  10.263   6.722  0.2483  0.2264  0.7566
36884SOL    HW115209   3.166  10.258   6.809  0.4576  1.2278  0.7301
36884SOL    HW215210   3.163  10.188   6.675 -1.4431 -1.5594  2.1316
36885SOL     OW15211   9.735   9.976   1.694  0.0892  0.0283  0.6382
36885SOL    HW115212   9.654   9.948   1.651  1.0822  0.1486 -1.4854
36885SOL    HW215213   9.779   9.894   1.717  0.2537 -0.0931 -0.0636
36886SOL     OW15214   4.838   6.336   7.707 -0.5077 -0.4393  0.3045
36886SOL    HW115215   4.908   6.377   7.757  1.3693 -3.0021 -0.0473
36886SOL    HW215216   4.797   6.408   7.659  0.8358  1.3518  1.7226
36887SOL     OW15217   1.102  11.066  10.454  0.0119 -0.3026 -0.1673
36887SOL    HW115218   1.015  11.089  10.487 -0.9494 -2.0106 -1.3814
36887SOL    HW215219   1.159  11.136  10.487 -1.9927  1.4827 -0.2710
36888SOL     OW15220   9.924   6.420  10.981  0.4620 -0.1962  0.6033
36888SOL    HW115221   9.887   6.501  10.944 -0.2992 -0.2276  1.2641
36888SOL    HW215222  10.015   6.419  10.950  0.2834  0.5577  0.0141
36889SOL     OW15223  10.458   2.898   4.057 -0.3075  0.4316  0.2169
36889SOL    HW115224  10.444   2.908   3.963 -1.2006 -0.6856  0.2006
36889SOL    HW215225  10.380   2.850   4.088  0.2220  0.3062  1.4204
36890SOL     OW15226   7.915   0.740   1.541  0.0875 -0.5496  0.3109
36890SOL    HW115227   7.985   0.704   1.594  0.1667 -0.7824  0.0526
36890SOL    HW215228   7.909   0.681   1.466  0.8844  0.5096 -0.6272
36891SOL     OW15229   3.036  10.300   8.308 -0.4294  0.3080  0.8147
36891SOL    HW115230   2.951  10.296   8.264 -1.3956  1.1735  2.5034
36891SOL    HW215231   3.056  10.209   8.331 -1.9355  0.2996  2.2223
36892SOL     OW15232   5.144   0.278   0.434 -0.3665  0.8111  0.6034
36892SOL    HW115233   5.122   0.185   0.433 -2.0286  1.1751 -0.5506
36892SOL    HW215234   5.133   0.306   0.343  0.6440  2.0306  0.8283
36893SOL     OW15235   5.873   1.665   7.446  0.4326 -0.5891  0.0679
36893SOL    HW115236   5.963   1.635   7.441  0.2609 -1.4568  1.5155
36893SOL    HW215237   5.850   1.656   7.539 -1.6816 -2.0856 -0.5322
36894SOL     OW15238   2.461   3.029   5.905  0.0129  0.1021 -0.2775
36894SOL    HW115239   2.457   2.994   5.816  0.7432  0.2306 -0.3650
36894SOL    HW215240   2.455   2.952   5.961  0.7626 -0.0952 -0.4582
36895SOL     OW15241   3.125  11.607   5.200  0.4397  0.6435  0.0681
36895SOL    HW115242   3.157  11.686   5.156 -1.3356  0.9889 -0.7237
36895SOL    HW215243   3.034  11.627   5.223  0.2312 -0.8355  0.6915
36896SOL     OW15244   6.491   2.355   8.780  0.4926  0.2407 -0.4968
36896SOL    HW115245   6.553   2.426   8.799  0.3303 -0.1217  1.5741
36896SOL    HW215246   6.418   2.399   8.736  1.0276  1.1055 -0.5500
36897SOL     OW15247   4.908   4.677   3.029  0.9001  0.0869 -0.5889
36897SOL    HW115248   4.851   4.610   2.994  0.9610 -1.7825  2.5303
36897SOL    HW215249   4.849   4.740   3.071  0.8157 -2.1330  3.1328
36898SOL     OW15250   5.640   8.142  10.359  0.4496  0.1202 -0.1104
36898SOL    HW115251   5.714   8.198  10.334 -0.4969  0.7638 -1.6328
36898SOL    HW215252   5.619   8.169  10.449  1.5311  0.5065  0.0436
36899SOL     OW15253   9.046  10.366   2.343 -0.4612 -0.2149  0.2292
36899SOL    HW115254   9.069  10.433   2.407 -0.7364 -0.6558  0.7868
36899SOL    HW215255   8.994  10.302   2.391 -3.2627  0.9315 -1.0634
36900SOL     OW15256   7.030   3.722   3.788 -0.3477  0.6017  0.3682
36900SOL    HW115257   7.041   3.798   3.731 -1.9630 -0.9136 -2.1722
36900SOL    HW215258   7.036   3.647   3.729 -2.5417 -1.0763  2.1208
36901SOL     OW15259   9.030   1.180  10.031 -0.7993 -0.3168  0.1404
36901SOL    HW115260   9.053   1.249   9.969  0.0687 -0.0472  0.7471
36901SOL    HW215261   9.102   1.117  10.025  0.2744  0.6138  2.1707
36902SOL     OW15262   4.273   8.203   2.684 -0.1213 -0.2476 -0.1997
36902SOL    HW115263   4.196   8.191   2.741 -0.2271  0.3734 -0.2018
36902SOL    HW215264   4.342   8.233   2.743 -0.5565  1.5743 -0.5472
36903SOL     OW15265   2.980   2.786   5.788  0.1342  0.0767  0.5482
36903SOL    HW115266   3.023   2.701   5.790 -0.9649 -0.5995 -1.3642
36903SOL    HW215267   2.974   2.808   5.695  1.7703  3.0222  1.0225
36904SOL     OW15268   2.691   3.129  11.836 -0.4404  0.8228 -0.1979
36904SOL    HW115269   2.629   3.201  11.848 -0.7771  0.7048 -1.1675
36904SOL    HW215270   2.659   3.081  11.760  0.4474  0.3481 -0.2920
36905SOL     OW15271  11.168   1.906   3.886 -0.0387 -0.3701 -0.2369
36905SOL    HW115272  11.130   1.834   3.837 -2.0097 -1.1974  2.2795
36905SOL    HW215273  11.094   1.946   3.931  1.5371  0.7089  1.5464
36906SOL     OW15274   0.470   4.029   6.393  0.0499 -0.7356  0.4125
36906SOL    HW115275   0.469   4.079   6.475 -2.4892  1.7315 -0.9119
36906SOL    HW215276   0.383   3.988   6.389  0.4393 -1.5008 -0.6528
36907SOL     OW15277   1.030   8.584   5.882 -0.1993  0.5064  0.0331
36907SOL    HW115278   0.997   8.649   5.943  0.2947 -0.5196  1.4362
36907SOL    HW215279   0.952   8.536   5.853 -0.3954  0.7504  0.1525
36908SOL     OW15280   1.865  11.698   5.178  1.1444 -0.0121 -0.0055
36908SOL    HW115281   1.843  11.769   5.118  2.1559  0.8654  0.6139
36908SOL    HW215282   1.858  11.619   5.125 -3.8072  0.0094  0.1912
36909SOL     OW15283  11.634  11.055   8.308  0.1611  0.2101  0.4882
36909SOL    HW115284  11.575  11.046   8.233 -0.1526 -2.1862  0.9269
36909SOL    HW215285  11.721  11.057   8.269 -0.0763  2.5435 -0.0890
36910SOL     OW15286   0.553   3.887   9.830 -0.2260 -0.1823  0.1076
36910SOL    HW115287   0.622   3.933   9.782 -0.8902 -0.0755 -0.7713
36910SOL    HW215288   0.481   3.949   9.836 -0.6207 -0.6295  0.1153
36911SOL     OW15289   5.686  11.790   2.077  0.2983  0.5031 -0.4192
36911SOL    HW115290   5.606  11.740   2.090 -0.2340  1.5312  0.4451
36911SOL    HW215291   5.748  11.727   2.039 -1.1975 -0.0643 -2.0818
36912SOL     OW15292   9.555  11.620   5.226 -0.2849  0.1531  0.2087
36912SOL    HW115293   9.497  11.571   5.168 -1.1841 -2.3016  2.8646
36912SOL    HW215294   9.631  11.563   5.237  0.1929  0.8849  0.8258
36913SOL     OW15295   3.888  10.771   6.685 -0.2153  0.0122 -0.1784
36913SOL    HW115296   3.812  10.813   6.644  0.7228  0.4032 -1.5682
36913SOL    HW215297   3.891  10.684   6.646 -0.8088 -0.5545  0.9977
36914SOL     OW15298   9.436   2.186   7.960 -0.2983 -0.1162 -0.0411
36914SOL    HW115299   9.529   2.169   7.945 -0.5790 -1.9759  0.1559
36914SOL    HW215300   9.399   2.198   7.873  0.1263  0.7158 -0.1147
36915SOL     OW15301   5.277   7.375   9.881 -0.5982 -0.1109 -0.1389
36915SOL    HW115302   5.340   7.325   9.828  0.5727  0.5374  0.6098
36915SOL    HW215303   5.193   7.358   9.839 -0.0366 -1.5560 -0.7621
36916SOL     OW15304   8.750   4.025  11.469  0.2202  0.4446 -0.9496
36916SOL    HW115305   8.713   3.987  11.548  3.0998 -0.8378 -0.0862
36916SOL    HW215306   8.795   4.104  11.499  0.5864  0.4405 -1.4766
36917SOL     OW15307   6.595   7.532   3.104  0.3864  0.3136 -0.4320
36917SOL    HW115308   6.570   7.623   3.116 -0.0042  0.1827 -0.2092
36917SOL    HW215309   6.690   7.531   3.115  0.3242  0.6006  0.1800
36918SOL     OW15310   3.037  10.170   0.550 -0.7106 -0.3164 -0.1545
36918SOL    HW115311   3.098  10.108   0.511 -0.4160  0.4103 -0.8909
36918SOL    HW215312   3.093  10.241   0.582 -1.0873 -0.1432  0.1280
36919SOL     OW15313   5.814  10.469   8.044 -0.9303 -0.2110 -0.0873
36919SOL    HW115314   5.840  10.531   7.976 -0.1121 -0.4947 -0.0479
36919SOL    HW215315   5.719  10.463   8.037 -1.2895  2.5161  1.1843
36920SOL     OW15316   1.121   8.602  11.879 -0.3138  0.0175 -0.0175
36920SOL    HW115317   1.111   8.644  11.794 -0.9750 -1.3033 -0.6118
36920SOL    HW215318   1.041   8.624  11.927 -0.3625 -0.0231 -0.0811
36921SOL     OW15319   5.941   2.028   9.561  0.5462 -0.3603  0.5513
36921SOL    HW115320   5.966   2.086   9.489  1.7384 -1.7957 -0.2631
36921SOL    HW215321   5.923   1.944   9.519 -0.6003 -0.7472  1.7541
36922SOL     OW15322  10.196   4.058   6.483 -0.6235  0.3251 -0.6426
36922SOL    HW115323  10.184   3.968   6.454  0.4062  0.6010 -2.0282
36922SOL    HW215324  10.235   4.050   6.570 -2.0683 -0.5312 -0.0328
36923SOL     OW15325   6.762   1.570   1.162  0.0677 -0.5551 -0.2197
36923SOL    HW115326   6.836   1.597   1.216  1.9490 -0.1447 -2.8396
36923SOL    HW215327   6.784   1.482   1.132 -1.9908 -1.6906  1.3257
36924SOL     OW15328   3.973   2.971   5.128  0.3202  0.0311 -0.0912
36924SOL    HW115329   3.931   2.984   5.043  0.6341 -1.1280 -0.4352
36924SOL    HW215330   4.008   3.057   5.150 -0.2906  0.4868 -0.8431
36925SOL     OW15331   1.923   4.676  10.928  0.9522 -0.4046 -0.4398
36925SOL    HW115332   1.955   4.611  10.991  2.2001  0.1522 -0.4713
36925SOL    HW215333   2.001   4.724  10.901  0.0129  1.3957 -0.1071
36926SOL     OW15334   0.881   9.635   7.351 -0.4061 -0.2428 -0.1190
36926SOL    HW115335   0.953   9.693   7.327 -1.3648  0.3212 -1.7827
36926SOL    HW215336   0.880   9.635   7.447  0.7716  1.0114 -0.0907
36927SOL     OW15337   6.669   2.537   6.218  0.4154  0.7186  0.6888
36927SOL    HW115338   6.603   2.595   6.256  0.7040  1.7118 -0.2676
36927SOL    HW215339   6.749   2.588   6.219  0.5820  0.5211 -0.5741
36928SOL     OW15340   4.155  11.250   3.760  0.3579  0.3628 -0.9092
36928SOL    HW115341   4.249  11.252   3.774  0.1486  2.0379  0.6825
36928SOL    HW215342   4.119  11.302   3.832 -1.9140 -1.6655 -0.4156
36929SOL     OW15343   4.997   6.469  10.539 -0.2599  0.4366 -0.6644
36929SOL    HW115344   4.937   6.446  10.610 -0.7119  1.3242 -0.7517
36929SOL    HW215345   5.079   6.490  10.583 -0.5729  1.1008 -0.3874
36930SOL     OW15346   6.828  11.144  10.224 -0.1687  0.2907 -0.0092
36930SOL    HW115347   6.739  11.119  10.200  0.0453  0.6747 -1.2343
36930SOL    HW215348   6.864  11.184  10.146  1.6953 -1.4548 -0.1311
36931SOL     OW15349   1.175  10.112   4.279  0.3297  0.0088  0.2728
36931SOL    HW115350   1.176  10.155   4.365  0.2097 -1.1986  0.9111
36931SOL    HW215351   1.105  10.156   4.231  1.6129  1.9804  0.0834
36932SOL     OW15352   7.028   3.953   6.475  0.1553  0.1635 -0.6592
36932SOL    HW115353   7.057   4.009   6.546 -1.2243  1.1385 -0.8220
36932SOL    HW215354   7.039   4.006   6.396 -0.3097 -0.1207 -0.9236
36933SOL     OW15355   0.350   4.145  11.426 -0.3574 -0.2300  0.8206
36933SOL    HW115356   0.338   4.166  11.334 -0.0408 -0.6781  0.6761
36933SOL    HW215357   0.444   4.131  11.436 -0.3649  0.0175  1.2532
36934SOL     OW15358   1.242   0.271   2.649 -0.3654  0.4121  0.4913
36934SOL    HW115359   1.269   0.209   2.581  2.1907  0.2302  1.5595
36934SOL    HW215360   1.163   0.233   2.685  0.0648 -1.2346 -0.1796
36935SOL     OW15361   8.233   2.810   8.406 -0.4420 -0.2145 -0.1505
36935SOL    HW115362   8.208   2.718   8.405  0.2959 -0.4528  1.0655
36935SOL    HW215363   8.155   2.857   8.376 -1.9464 -1.0198  2.2137
36936SOL     OW15364   3.489   9.616   3.547 -0.2721 -0.2389  0.0878
36936SOL    HW115365   3.551   9.649   3.481  0.0438  0.3705  0.6760
36936SOL    HW215366   3.529   9.639   3.631 -0.6324 -1.0798  0.5007
36937SOL     OW15367  11.312  11.951  10.579 -0.0327  0.3078 -0.0379
36937SOL    HW115368  11.222  11.959  10.547  0.5070  0.9496 -1.5000
36937SOL    HW215369  11.339  12.042  10.596  0.1478  0.0743  0.9737
36938SOL     OW15370  12.047   9.986   4.934 -0.2276 -0.3843 -0.2117
36938SOL    HW115371  12.081   9.965   5.021  1.3693  1.5637 -0.2839
36938SOL    HW215372  11.998  10.068   4.946 -0.5417 -0.4335 -1.0440
36939SOL     OW15373   5.750   7.136   4.118 -0.0738 -0.1615  0.7834
36939SOL    HW115374   5.768   7.042   4.113 -1.7771 -0.5288  1.0072
36939SOL    HW215375   5.750   7.156   4.211 -0.4158 -0.1023  0.7732
36940SOL     OW15376   1.032   1.150   1.194 -0.1531 -0.0094  0.5533
36940SOL    HW115377   1.052   1.103   1.113 -1.6649 -0.9021  0.6660
36940SOL    HW215378   1.113   1.197   1.215  0.5396 -0.4564 -0.9948
36941SOL     OW15379   4.769   1.336  10.892  0.0537 -1.0711  0.0145
36941SOL    HW115380   4.724   1.257  10.862 -0.5389 -1.2974  1.4088
36941SOL    HW215381   4.713   1.369  10.963  0.5870  0.2908 -0.1848
36942SOL     OW15382   9.806  10.296   6.083  0.7457 -0.2964  0.1236
36942SOL    HW115383   9.754  10.255   6.152  1.4712 -0.3795  0.6319
36942SOL    HW215384   9.774  10.256   6.002  1.4041 -1.8610  0.5987
36943SOL     OW15385   8.807   2.405   8.908 -0.1826 -0.2649 -0.3709
36943SOL    HW115386   8.802   2.310   8.919  1.0250 -0.1918  1.2455
36943SOL    HW215387   8.722   2.429   8.871 -2.0368 -1.5815  2.6119
36944SOL     OW15388   5.916   2.582   3.581  0.3525  0.5213  0.0427
36944SOL    HW115389   5.965   2.506   3.614 -0.7672  0.1294  0.8803
36944SOL    HW215390   5.825   2.563   3.605 -0.0642  1.7099 -0.5576
36945SOL     OW15391   6.506   7.400  10.045  0.2833 -0.3563  0.1139
36945SOL    HW115392   6.447   7.370   9.976  0.5061  0.0373 -0.2575
36945SOL    HW215393   6.450   7.409  10.122 -0.3905  1.0356 -0.4923
36946SOL     OW15394   8.984  10.262   5.176  0.0315  0.5240  0.4734
36946SOL    HW115395   8.890  10.271   5.159  0.1495 -1.5095 -1.7102
36946SOL    HW215396   8.989  10.195   5.244 -0.0816  0.8911  0.8509
36947SOL     OW15397  11.006   4.761   0.831  0.5934  0.3050  0.3701
36947SOL    HW115398  11.013   4.857   0.832  2.6021  0.2465 -0.9698
36947SOL    HW215399  10.946   4.742   0.760  0.2176  0.5652  0.6146
36948SOL     OW15400   7.305   5.014   8.953 -0.8864 -0.3684  0.5128
36948SOL    HW115401   7.245   5.045   8.884 -0.3664  2.2921  1.1412
36948SOL    HW215402   7.388   4.999   8.908 -1.2536 -1.2733  0.1230
36949SOL     OW15403   0.341   0.940  11.766 -0.4152  0.2327  0.2558
36949SOL    HW115404   0.361   1.022  11.720  0.1011 -0.0051  0.0367
36949SOL    HW215405   0.421   0.888  11.756 -0.9088 -0.4861 -0.0299
36950SOL     OW15406  11.648   5.107   8.915  0.1449 -0.1549 -0.5801
36950SOL    HW115407  11.580   5.143   8.858  0.5386  0.4979 -0.6413
36950SOL    HW215408  11.603   5.040   8.967 -0.7277  0.8261 -0.0433
36951SOL     OW15409   0.563   9.977   8.367 -0.1185  0.4323 -0.1002
36951SOL    HW115410   0.576   9.926   8.287  1.8561  0.2950  0.2476
36951SOL    HW215411   0.498   9.928   8.417 -1.0210  0.2696 -1.3866
36952SOL     OW15412   3.071   8.630   9.625  0.1864 -0.9637  0.9357
36952SOL    HW115413   3.049   8.713   9.667 -3.6292 -1.4628  0.2910
36952SOL    HW215414   3.038   8.563   9.686  0.7296 -1.9090  0.2169
36953SOL     OW15415   2.809   5.755   6.598 -0.0842  0.0862 -0.1856
36953SOL    HW115416   2.759   5.769   6.518 -0.6823 -0.3651  0.1032
36953SOL    HW215417   2.821   5.843   6.635  0.8528  0.3873 -1.1446
36954SOL     OW15418   3.479  10.476   8.212  0.4675 -0.1429  0.2053
36954SOL    HW115419   3.505  10.387   8.238  0.1074 -0.3246 -0.0525
36954SOL    HW215420   3.459  10.469   8.119  2.0568  0.5698 -0.2332
36955SOL     OW15421   9.674   3.698   3.792 -0.6746  0.0490  0.3959
36955SOL    HW115422   9.676   3.692   3.696  0.7586 -1.2412  0.4758
36955SOL    HW215423   9.621   3.623   3.820  1.5696 -1.5310  0.6841
36956SOL     OW15424   6.453   0.008  11.470 -0.1794 -0.6254  0.1178
36956SOL    HW115425   6.544  -0.002  11.442 -0.1284 -0.1675  0.1115
36956SOL    HW215426   6.459   0.019  11.565 -0.1087  0.7918 -0.0327
36957SOL     OW15427   0.960  11.216   0.755  0.2132 -0.2190 -0.4495
36957SOL    HW115428   1.021  11.178   0.818  0.9860  0.0224 -1.0397
36957SOL    HW215429   0.884  11.241   0.808  0.3033 -1.2091  0.1769
36958SOL     OW15430   8.511   7.090   4.351  0.2664 -0.3351 -0.2213
36958SOL    HW115431   8.582   7.148   4.381 -0.5029  0.2172  0.6075
36958SOL    HW215432   8.473   7.136   4.276  0.7481 -0.6061 -0.6342
36959SOL     OW15433  10.605   7.848  10.863 -0.0076  0.3516 -0.0667
36959SOL    HW115434  10.543   7.862  10.792  2.2305 -0.4473 -2.3407
36959SOL    HW215435  10.551   7.829  10.939 -2.5184 -0.9150 -2.0329
36960SOL     OW15436   4.066   0.429  10.637 -0.0239 -0.1107 -0.0203
36960SOL    HW115437   4.022   0.372  10.700  0.5806  0.1775  0.6812
36960SOL    HW215438   4.147   0.454  10.680  1.7033 -1.9886 -1.9505
36961SOL     OW15439   6.334   1.580   3.667 -0.8531 -0.6692 -0.2653
36961SOL    HW115440   6.421   1.540   3.671 -0.1708  0.8186  1.7109
36961SOL    HW215441   6.341   1.647   3.600 -1.0241 -1.6607 -1.3026
36962SOL     OW15442   7.853   3.904   3.926  0.1821 -0.1738 -0.2659
36962SOL    HW115443   7.788   3.884   3.992 -0.1860 -0.5546 -0.7384
36962SOL    HW215444   7.897   3.821   3.910 -0.5483 -0.3622 -1.3715
36963SOL     OW15445   9.126   4.183  10.347  0.7958  0.0350 -0.1019
36963SOL    HW115446   9.136   4.090  10.370  2.6975  0.6576  1.9920
36963SOL    HW215447   9.054   4.185  10.284 -0.2483 -2.6992  0.8580
36964SOL     OW15448   4.480   5.440   6.412  0.2368  0.1011 -0.3086
36964SOL    HW115449   4.463   5.471   6.501  1.9056 -2.1497  0.8998
36964SOL    HW215450   4.467   5.345   6.417  1.0723 -0.1732 -2.3080
36965SOL     OW15451   7.911   3.509  10.827  0.5687 -0.6476  0.4181
36965SOL    HW115452   7.968   3.474  10.758  0.9522 -0.0954  0.4442
36965SOL    HW215453   7.905   3.439  10.892  0.1910 -1.1803 -0.1833
36966SOL     OW15454   0.963   0.910   3.071  1.0876  0.4810 -0.2279
36966SOL    HW115455   1.001   0.944   3.153  0.7794 -2.4230  1.2539
36966SOL    HW215456   1.035   0.864   3.029  0.3523 -1.3731  0.4398
36967SOL     OW15457   8.090   6.816   4.859 -0.4007  0.7372 -0.1012
36967SOL    HW115458   8.045   6.870   4.923 -1.6249 -1.1398  0.7261
36967SOL    HW215459   8.177   6.802   4.895 -0.8069  0.3819  0.7844
36968SOL     OW15460   9.397   1.018  11.427 -0.3297  0.6189 -0.0988
36968SOL    HW115461   9.450   0.943  11.399 -0.0170  1.3252 -1.5266
36968SOL    HW215462   9.348   0.986  11.503 -0.7867 -1.2714 -1.1239
36969SOL     OW15463   5.291   7.218   1.559  0.2195  0.2590 -0.4038
36969SOL    HW115464   5.330   7.251   1.479 -1.2148  0.5811 -1.0020
36969SOL    HW215465   5.307   7.123   1.556  0.3511  0.2952 -0.9662
36970SOL     OW15466   3.376   0.959   4.232  0.4126 -0.0398 -0.5652
36970SOL    HW115467   3.422   0.888   4.186  0.1787 -0.1570 -0.6172
36970SOL    HW215468   3.381   1.033   4.173  1.5914  0.3088 -0.0712
36971SOL     OW15469  10.182  10.265   2.071  0.0041 -0.1759 -0.2250
36971SOL    HW115470  10.199  10.197   2.136  0.7177 -0.5442 -0.7863
36971SOL    HW215471  10.107  10.232   2.021  0.5471 -0.7114 -0.7023
36972SOL     OW15472   1.715   9.132   1.500 -0.0933 -0.0933 -0.4198
36972SOL    HW115473   1.662   9.210   1.483  0.6090  0.3832 -0.4405
36972SOL    HW215474   1.728   9.132   1.595  1.2719  0.7360 -0.5760
36973SOL     OW15475  10.404   1.103  11.018  0.5367 -0.1346  0.1394
36973SOL    HW115476  10.455   1.104  10.937  0.3118 -0.9191 -0.0165
36973SOL    HW215477  10.329   1.046  10.999 -0.1367  0.6022  0.5291
36974SOL     OW15478  12.012   2.307  11.146  0.3848 -1.0417 -1.0732
36974SOL    HW115479  11.997   2.348  11.231 -0.6970 -1.1418 -1.2067
36974SOL    HW215480  11.992   2.215  11.160 -2.3357 -0.6784 -2.0146
36975SOL     OW15481   2.731   1.536   0.081 -0.7586  0.2216 -0.0055
36975SOL    HW115482   2.655   1.553   0.137 -1.3603 -0.7848 -0.4950
36975SOL    HW215483   2.729   1.606   0.016 -0.2912  1.1619  0.9656
36976SOL     OW15484   7.825   5.941   2.471 -0.1470  0.3234 -0.2625
36976SOL    HW115485   7.859   5.869   2.524  1.9303  0.8276 -0.8491
36976SOL    HW215486   7.764   5.986   2.530 -0.2472 -0.9321  0.6478
36977SOL     OW15487   0.313   1.694   7.546 -0.3415 -0.2926 -0.5402
36977SOL    HW115488   0.318   1.607   7.507 -1.5421  0.2060 -1.8736
36977SOL    HW215489   0.222   1.703   7.574 -0.0841  0.3083  0.1509
36978SOL     OW15490  11.759   7.090   6.618  0.0323 -0.2528  0.7479
36978SOL    HW115491  11.853   7.076   6.603  0.1283  1.0331 -0.0395
36978SOL    HW215492  11.717   7.040   6.548  0.2389  0.8350 -0.1841
36979SOL     OW15493   2.232  11.515   0.733  0.0538  0.0146 -0.0652
36979SOL    HW115494   2.287  11.566   0.792  0.8193  0.2283 -0.9447
36979SOL    HW215495   2.166  11.474   0.791  0.3199  0.8114  0.8248
36980SOL     OW15496   4.027   9.526   3.523 -0.8904 -0.4533 -0.1599
36980SOL    HW115497   3.970   9.553   3.595 -1.1540 -1.2607 -0.0655
36980SOL    HW215498   3.984   9.563   3.445 -0.7144  0.2424  0.0603
36981SOL     OW15499   8.830  11.589   6.074  0.2486  0.2572 -0.1070
36981SOL    HW115500   8.736  11.601   6.065  0.2841  0.5072 -0.1768
36981SOL    HW215501   8.848  11.501   6.040 -0.2871 -0.7874  2.1597
36982SOL     OW15502  11.802   6.513   0.145  0.0076 -0.4279  0.0757
36982SOL    HW115503  11.890   6.551   0.154 -0.1953 -0.1565  1.0041
36982SOL    HW215504  11.805   6.433   0.197 -0.7806  0.4557  1.5544
36983SOL     OW15505   6.572  11.761   4.050 -0.0739 -0.6843  0.1493
36983SOL    HW115506   6.508  11.779   3.981 -0.7633  1.1058  1.1805
36983SOL    HW215507   6.522  11.713   4.117 -0.4873  0.9407  1.0724
36984SOL     OW15508   6.488   6.182   1.082 -0.3480 -0.0718 -0.0369
36984SOL    HW115509   6.510   6.251   1.020  2.2753 -1.0161 -0.2943
36984SOL    HW215510   6.529   6.209   1.164 -1.3304 -0.1978  0.5026
36985SOL     OW15511   6.428   5.029   2.983 -0.4879  0.2954 -0.2796
36985SOL    HW115512   6.487   5.097   2.952  1.1119 -0.5076  0.8763
36985SOL    HW215513   6.368   5.075   3.042 -1.0473  1.1167 -1.4543
36986SOL     OW15514   4.220   0.444   9.569  0.0944 -0.2912  0.3814
36986SOL    HW115515   4.219   0.400   9.484  0.8424  0.5027 -0.0565
36986SOL    HW215516   4.134   0.425   9.607  0.5688 -2.4889  0.4359
36987SOL     OW15517   4.608   7.702   8.102  0.4118 -0.4268 -0.2138
36987SOL    HW115518   4.604   7.742   8.015  1.5127  1.4345  0.5213
36987SOL    HW215519   4.530   7.733   8.147  1.1542  0.7699  0.2845
36988SOL     OW15520   9.492   6.866  10.925 -0.1937  0.0753  0.0139
36988SOL    HW115521   9.483   6.838  11.016 -1.1179 -0.5948 -0.2681
36988SOL    HW215522   9.421   6.821  10.879 -0.6527  1.5338 -0.7764
36989SOL     OW15523   8.930   7.019  11.802  0.7215  0.6795 -0.3007
36989SOL    HW115524   8.876   7.049  11.730  1.7492  0.6390 -1.1084
36989SOL    HW215525   8.876   7.033  11.880 -0.8762 -0.3609 -1.1523
36990SOL     OW15526   2.965   2.420   2.079 -0.4891  0.3054  0.6774
36990SOL    HW115527   3.060   2.436   2.082 -0.5126  0.8958 -0.8312
36990SOL    HW215528   2.938   2.420   2.171  0.9102  0.5104  1.1153
36991SOL     OW15529   2.016   7.289   2.260  0.4202  0.1784  0.5426
36991SOL    HW115530   1.924   7.265   2.243  0.4138  0.3040  0.3991
36991SOL    HW215531   2.011   7.362   2.321  0.3241  1.9396 -1.4507
36992SOL     OW15532   1.486   3.700   9.161 -0.6201 -0.0941 -0.6626
36992SOL    HW115533   1.521   3.787   9.140  0.3880 -0.5187 -0.7797
36992SOL    HW215534   1.558   3.654   9.203 -2.4076  0.6473  3.7946
36993SOL     OW15535   9.399   1.490   1.608  0.2295  0.7131 -0.2280
36993SOL    HW115536   9.308   1.519   1.618  0.0472  0.1203 -0.1207
36993SOL    HW215537   9.426   1.524   1.523 -0.5012 -0.1322 -0.8199
36994SOL     OW15538  10.944  10.324   0.241  0.0922  0.1099  0.2405
36994SOL    HW115539  10.888  10.294   0.312  0.0416  0.4730  0.3587
36994SOL    HW215540  10.884  10.361   0.177  0.0209 -1.3845 -0.6023
36995SOL     OW15541   9.146  11.289  10.555  0.4122  0.8198 -0.1519
36995SOL    HW115542   9.108  11.354  10.614  0.7419  0.8308  0.0510
36995SOL    HW215543   9.211  11.243  10.609  2.2133  2.1906 -1.0334
36996SOL     OW15544   9.564  10.327   3.239  0.0397 -0.1358 -0.2804
36996SOL    HW115545   9.544  10.326   3.145  0.6756 -0.2175 -0.4180
36996SOL    HW215546   9.479  10.312   3.281 -0.3977  0.7441 -0.8154
36997SOL     OW15547   2.338  11.918  10.850  0.3598 -0.3392 -0.1646
36997SOL    HW115548   2.294  11.980  10.792 -0.1019  0.3694  0.9127
36997SOL    HW215549   2.367  11.970  10.925 -0.0343 -1.3920  0.7678
36998SOL     OW15550  10.477  12.093  10.023 -0.2103 -0.2893  0.2586
36998SOL    HW115551  10.463  12.119   9.932  3.5697 -0.7982 -0.6725
36998SOL    HW215552  10.469  12.173  10.074 -2.2612  0.0218 -0.5007
36999SOL     OW15553  11.674   3.766   4.309 -0.0942  0.3053  0.2193
36999SOL    HW115554  11.606   3.699   4.304 -1.0461  0.8059  3.5009
36999SOL    HW215555  11.729   3.751   4.232 -2.4667 -1.7138 -1.2382
37000SOL     OW15556   0.516   5.829   7.187  0.4606  0.0563 -0.0356
37000SOL    HW115557   0.589   5.789   7.235 -1.2010 -2.1386  0.8523
37000SOL    HW215558   0.446   5.763   7.191 -0.4618  0.5530 -3.8301
37001SOL     OW15559   3.263   0.425   3.862  0.5253 -0.2116  0.4631
37001SOL    HW115560   3.237   0.405   3.952  0.0333 -1.0001  0.1577
37001SOL    HW215561   3.214   0.363   3.809 -0.3478  1.2205 -0.4723
37002SOL     OW15562   5.248   9.723   7.285 -0.0264  0.0023 -0.5848
37002SOL    HW115563   5.302   9.667   7.230 -0.2279  1.1082 -1.9446
37002SOL    HW215564   5.169   9.739   7.234  0.0901  1.6336 -0.3044
37003SOL     OW15565  10.854   5.728   7.411 -0.3763 -0.4164 -0.1119
37003SOL    HW115566  10.823   5.818   7.403 -0.7124 -0.4605  0.5965
37003SOL    HW215567  10.806   5.679   7.345 -0.4395 -0.1405 -0.2704
37004SOL     OW15568   5.315   2.546   7.484 -0.0180 -0.1974 -0.0249
37004SOL    HW115569   5.241   2.579   7.433  0.8251 -1.0951 -1.9638
37004SOL    HW215570   5.310   2.592   7.567 -2.0365  0.6546 -0.5591
37005SOL     OW15571   3.073   4.992   6.027 -0.4497  0.5921 -0.7002
37005SOL    HW115572   3.058   5.026   6.116  0.3888 -1.1214  0.1511
37005SOL    HW215573   3.023   5.050   5.970 -2.4936  0.6704  1.0552
37006SOL     OW15574   5.540   5.958  10.827 -0.1998  0.0893 -1.0827
37006SOL    HW115575   5.575   6.046  10.808 -1.6067  0.5415 -1.6837
37006SOL    HW215576   5.521   5.921  10.741 -0.4685 -0.4559 -0.7950
37007SOL     OW15577   4.014   0.983   3.543  0.2610 -0.7314  0.5244
37007SOL    HW115578   3.925   0.988   3.578 -0.2415 -0.6689 -0.6847
37007SOL    HW215579   4.070   0.973   3.619 -0.9309 -2.5945  1.2185
37008SOL     OW15580  11.468  10.602   0.209 -0.1578 -0.1498 -0.0616
37008SOL    HW115581  11.478  10.510   0.233 -1.2673 -0.2653 -0.0058
37008SOL    HW215582  11.547  10.622   0.158  0.2340 -1.0439  0.1767
37009SOL     OW15583   3.578   2.062   5.730  0.0336  0.1602  0.1657
37009SOL    HW115584   3.490   2.045   5.698 -0.1748  1.8230 -0.2271
37009SOL    HW215585   3.598   1.987   5.787 -2.2589  0.5299  1.5586
37010SOL     OW15586   6.229   1.493   1.092 -0.2913 -0.2401 -0.2647
37010SOL    HW115587   6.236   1.435   1.168 -0.5366  1.3112  0.9886
37010SOL    HW215588   6.320   1.516   1.071 -0.2884  0.5770  0.5828
37011SOL     OW15589  11.324   8.170  12.046  0.0636 -0.3131 -0.8118
37011SOL    HW115590  11.311   8.229  12.121 -1.0438  0.0103 -1.2450
37011SOL    HW215591  11.405   8.200  12.006  0.2210  0.0495 -0.2321
37012SOL     OW15592  11.979   0.262   0.107  0.8909  0.5144 -0.2482
37012SOL    HW115593  11.937   0.259   0.021 -2.9954  0.0819  1.4564
37012SOL    HW215594  12.000   0.355   0.120 -0.7704  1.0001 -0.7516
37013SOL     OW15595   4.328   4.602   8.712 -0.1873 -0.4830 -0.3390
37013SOL    HW115596   4.374   4.518   8.710 -1.3680 -1.2228  1.3707
37013SOL    HW215597   4.248   4.586   8.663 -0.9465 -0.7303  0.9400
37014SOL     OW15598   0.211   4.465   1.061  0.0011 -0.2621 -0.1855
37014SOL    HW115599   0.148   4.538   1.067  0.2551 -0.1060  0.8450
37014SOL    HW215600   0.295   4.505   1.083  0.6791 -0.2578 -2.5171
37015SOL     OW15601  10.185  12.016   0.332  0.2058 -0.2793 -0.1214
37015SOL    HW115602  10.223  11.971   0.256  1.3543  0.0249  0.2469
37015SOL    HW215603  10.193  11.952   0.404  0.5955  0.0002  0.0916
37016SOL     OW15604   4.857   7.760   5.298  0.0089  0.9599 -0.0035
37016SOL    HW115605   4.851   7.752   5.203 -1.6860  2.0789 -0.0325
37016SOL    HW215606   4.902   7.843   5.313 -0.2684  1.0754  0.1817
37017SOL     OW15607   4.544   4.182   9.114 -0.6612 -0.2545  0.8065
37017SOL    HW115608   4.547   4.251   9.180  0.2107  1.0725 -0.5602
37017SOL    HW215609   4.475   4.123   9.144 -2.0710  1.6744  1.5611
37018SOL     OW15610  10.828  11.308   8.810 -0.3772  0.2709  0.0745
37018SOL    HW115611  10.881  11.370   8.861 -0.1866  0.4492 -0.3357
37018SOL    HW215612  10.738  11.336   8.824 -0.3755 -0.0953  0.8614
37019SOL     OW15613   5.359   8.943   6.836 -0.3712  0.1318 -0.1432
37019SOL    HW115614   5.408   8.879   6.784  1.9280  1.2061  0.5574
37019SOL    HW215615   5.272   8.906   6.845  0.5448 -2.3372 -0.7548
37020SOL     OW15616   5.064   2.502   0.333  0.3336 -0.3823 -0.7452
37020SOL    HW115617   5.005   2.576   0.319 -0.4563 -0.9272 -0.3751
37020SOL    HW215618   5.012   2.425   0.311  0.5142 -0.9609  0.7496
37021SOL     OW15619   9.834   4.652  11.449 -0.2971 -0.0248 -0.6321
37021SOL    HW115620   9.787   4.600  11.384 -1.0642  0.5736 -0.5800
37021SOL    HW215621   9.874   4.588  11.507 -2.7297 -0.6387  0.5267
37022SOL     OW15622  10.282   5.162   0.353  0.7580  0.2589  0.2654
37022SOL    HW115623  10.256   5.178   0.262 -0.4733 -1.3050  0.3038
37022SOL    HW215624  10.215   5.208   0.405  1.8385  1.7259  0.4293
37023SOL     OW15625   7.886   1.559   3.510  0.7497 -0.2765  0.1014
37023SOL    HW115626   7.948   1.526   3.575 -0.0396  0.8712  1.5119
37023SOL    HW215627   7.846   1.481   3.472  3.9428 -1.1447 -1.8813
37024SOL     OW15628   0.432   4.345   4.079  0.1062 -0.2988  0.3540
37024SOL    HW115629   0.345   4.340   4.039  0.7448 -1.2109 -0.9933
37024SOL    HW215630   0.476   4.416   4.032  0.0957  0.1728  1.0445
37025SOL     OW15631  11.761   1.055   5.617  0.1136 -0.1907 -0.1862
37025SOL    HW115632  11.812   1.131   5.589 -0.5153 -0.1909 -1.4144
37025SOL    HW215633  11.686   1.093   5.663  0.4810 -0.1320  0.3717
37026SOL     OW15634   4.637   8.975   1.700  0.1808  0.1938  0.0234
37026SOL    HW115635   4.582   9.053   1.704  0.2313  0.2909 -0.9461
37026SOL    HW215636   4.592   8.917   1.638  0.6129 -0.1698  0.0421
37027SOL     OW15637   2.836   4.538   3.179 -0.3202  0.3527  0.2745
37027SOL    HW115638   2.836   4.570   3.089 -0.8147 -1.6726 -0.5062
37027SOL    HW215639   2.928   4.534   3.203  0.0236 -1.5075 -1.1210
37028SOL     OW15640   8.207   8.471   1.029 -0.2288  0.3201 -0.3746
37028SOL    HW115641   8.138   8.409   1.005 -0.3763  0.5881 -0.6540
37028SOL    HW215642   8.174   8.516   1.106  0.4432 -0.8667  0.6538
37029SOL     OW15643   0.901   3.844   4.574  0.2256  0.3529  0.2520
37029SOL    HW115644   0.898   3.937   4.553  1.1090  0.2063 -0.5935
37029SOL    HW215645   0.884   3.840   4.669 -0.4079  1.3088  0.1973
37030SOL     OW15646   2.273   2.625   9.391  0.3366  0.2264  0.2031
37030SOL    HW115647   2.309   2.695   9.335 -2.5902  0.4118 -1.6386
37030SOL    HW215648   2.265   2.665   9.477 -1.1570  2.2195 -0.7851
37031SOL     OW15649  11.564   3.888   6.993 -0.3110  0.1616 -0.5086
37031SOL    HW115650  11.483   3.847   6.964 -1.3451  1.9725 -0.3215
37031SOL    HW215651  11.562   3.975   6.954  0.3243  1.1355  1.4760
37032SOL     OW15652  11.266   3.464   2.607  0.3018 -0.1098  0.0077
37032SOL    HW115653  11.299   3.532   2.549 -1.2674  0.0834 -0.6959
37032SOL    HW215654  11.343   3.410   2.627  0.9033 -0.1841 -2.2378
37033SOL     OW15655   1.373   6.526   9.063 -0.3498 -0.1157 -0.0086
37033SOL    HW115656   1.312   6.574   9.118 -0.1850  0.5092 -0.3668
37033SOL    HW215657   1.446   6.504   9.121 -0.4567  0.0132  0.1736
37034SOL     OW15658  10.566   8.689   4.646  0.3524  0.1586  0.1518
37034SOL    HW115659  10.609   8.693   4.560  0.2984  1.5071  0.1712
37034SOL    HW215660  10.472   8.693   4.626  0.2349 -1.6604  0.1746
37035SOL     OW15661   1.424  11.508   6.332 -0.3813  0.8884  0.2809
37035SOL    HW115662   1.366  11.574   6.293 -3.1065 -0.9860  0.8574
37035SOL    HW215663   1.380  11.484   6.414 -0.2804 -2.5628 -0.5501
37036SOL     OW15664  10.203   9.278   7.727  0.3521  0.1876  0.0189
37036SOL    HW115665  10.287   9.305   7.762  0.0017  2.5100 -0.7345
37036SOL    HW215666  10.206   9.306   7.635 -0.3863 -1.7832 -0.6540
37037SOL     OW15667   0.658   8.586   1.411  0.0033  0.5878 -0.0778
37037SOL    HW115668   0.594   8.519   1.435  0.9490  0.0424  1.0197
37037SOL    HW215669   0.632   8.663   1.462  0.2974  0.3294  0.4602
37038SOL     OW15670   7.876   7.115   7.640  0.1035  0.1849 -0.6453
37038SOL    HW115671   7.799   7.124   7.695  0.0840  1.1634 -0.8261
37038SOL    HW215672   7.932   7.053   7.687  0.2937  1.3450  0.7180
37039SOL     OW15673   0.245   7.854   5.437 -0.0199  0.1181 -0.3494
37039SOL    HW115674   0.291   7.886   5.515 -1.0142  1.0794 -0.1222
37039SOL    HW215675   0.241   7.759   5.449  1.3468  0.0841 -0.0843
37040SOL     OW15676   5.559   9.175   8.016  0.2316  0.0899  0.0932
37040SOL    HW115677   5.627   9.109   8.028  1.0154  0.7680 -0.5382
37040SOL    HW215678   5.503   9.141   7.947 -0.7930 -1.0178  1.4018
37041SOL     OW15679  10.387   3.332   8.465  0.4711 -0.4935 -0.2154
37041SOL    HW115680  10.448   3.308   8.396 -0.7430  1.5508 -2.1787
37041SOL    HW215681  10.381   3.428   8.459 -3.3452 -0.5889 -0.6495
37042SOL     OW15682  10.414   7.929   7.941  0.2364  0.2710 -0.3740
37042SOL    HW115683  10.485   7.945   8.004 -0.7131 -0.0618  0.8269
37042SOL    HW215684  10.352   7.999   7.956 -0.0192  0.1730 -0.9415
37043SOL     OW15685   7.976   9.568   5.794  0.2415 -0.0270 -0.2544
37043SOL    HW115686   7.980   9.659   5.763 -0.5043  0.3042  0.5847
37043SOL    HW215687   7.905   9.568   5.859 -0.6963 -1.4997 -1.2093
37044SOL     OW15688   9.857  11.965   4.956 -0.4750  0.4904 -0.2225
37044SOL    HW115689   9.809  11.931   4.880  1.1500  1.0635 -1.5723
37044SOL    HW215690   9.804  11.939   5.031 -3.4199  1.9055 -1.6199
37045SOL     OW15691   5.893   4.017   6.364  0.3117 -0.4020 -0.1627
37045SOL    HW115692   5.973   3.996   6.317  1.2972 -2.0786  2.0489
37045SOL    HW215693   5.837   3.941   6.350  0.4175 -0.6901  0.8944
37046SOL     OW15694   2.528   8.948   6.787 -0.0751  0.1930 -0.1559
37046SOL    HW115695   2.571   8.893   6.852 -0.8879  1.2651  1.3589
37046SOL    HW215696   2.450   8.898   6.761 -0.1908  0.1192  0.3272
37047SOL     OW15697   4.780   2.794   7.779 -0.1593 -0.1655  0.0160
37047SOL    HW115698   4.820   2.725   7.726 -0.9029 -0.3996 -0.2557
37047SOL    HW215699   4.822   2.787   7.864  1.7104  0.7716 -0.7481
37048SOL     OW15700   4.339   9.630   4.281 -0.5427  0.4148 -0.0307
37048SOL    HW115701   4.273   9.695   4.305 -0.7016  1.0321 -1.9613
37048SOL    HW215702   4.322   9.556   4.339 -1.4592  1.4229  1.0462
37049SOL     OW15703   9.448   4.294   4.782 -0.1167 -0.1676  0.3051
37049SOL    HW115704   9.448   4.205   4.747 -0.6873 -0.3785  0.8301
37049SOL    HW215705   9.368   4.333   4.747  0.8656  0.6515 -1.1650
37050SOL     OW15706   6.718   8.328   6.776 -0.7051 -0.0893 -0.1304
37050SOL    HW115707   6.625   8.303   6.782 -0.6127 -0.1725  1.3057
37050SOL    HW215708   6.761   8.253   6.735 -1.5258  0.7178 -2.7174
37051SOL     OW15709   9.078  10.307   8.907 -0.6210 -0.1242  0.0735
37051SOL    HW115710   9.123  10.224   8.889 -0.4099 -0.2914  1.2758
37051SOL    HW215711   8.986  10.282   8.915 -0.4886 -0.3427  0.9825
37052SOL     OW15712   2.513   9.534   9.971 -0.1681  0.4895 -0.5690
37052SOL    HW115713   2.511   9.510  10.063  1.0028  2.4607  0.0452
37052SOL    HW215714   2.521   9.450   9.924  1.6002 -0.4437  1.2533
37053SOL     OW15715   3.128  11.920   8.001  0.0347  0.2119 -0.5264
37053SOL    HW115716   3.144  11.884   8.088  0.0796  2.5405  0.5061
37053SOL    HW215717   3.129  12.015   8.013 -1.4844  0.6160 -2.8016
37054SOL     OW15718   4.777  10.729   3.604  0.1440  0.0818  0.3893
37054SOL    HW115719   4.733  10.664   3.549  1.5988 -1.1564  0.6127
37054SOL    HW215720   4.728  10.809   3.590 -2.1192 -1.1931  0.5967
37055SOL     OW15721  10.057   7.266  12.058 -0.0271  0.4367 -0.5982
37055SOL    HW115722  10.105   7.329  12.004  1.1843 -1.1704 -1.4650
37055SOL    HW215723  10.102   7.183  12.045 -2.1565 -0.8587 -0.2684
37056SOL     OW15724   3.498   4.314   4.942 -0.8494  0.1185  0.4352
37056SOL    HW115725   3.436   4.305   4.869 -1.7212 -1.7294  1.3224
37056SOL    HW215726   3.465   4.387   4.993  0.0792  1.8006 -1.2384
37057SOL     OW15727   7.983   3.356  11.062  0.1166  0.1323  0.4550
37057SOL    HW115728   8.026   3.381  11.143  2.0621 -0.3723 -0.3636
37057SOL    HW215729   7.938   3.274  11.082 -0.8207  0.8685  1.4331
37058SOL     OW15730   4.408   7.884   5.577 -0.3995  0.1202 -0.1551
37058SOL    HW115731   4.481   7.832   5.610 -0.7113 -0.0944  0.2037
37058SOL    HW215732   4.434   7.975   5.591  0.5439  0.1126 -1.6145
37059SOL     OW15733   2.059   4.201   2.746 -0.0736  0.0446 -0.3283
37059SOL    HW115734   2.042   4.224   2.838 -0.6191 -0.2437 -0.3476
37059SOL    HW215735   2.120   4.128   2.751 -0.2827 -0.1220 -0.1871
37060SOL     OW15736   7.739   8.581   1.975 -0.2094 -0.3660 -0.4839
37060SOL    HW115737   7.702   8.546   1.895  2.5555 -1.8270 -1.2608
37060SOL    HW215738   7.803   8.646   1.945 -0.0619  0.0254  0.6239
37061SOL     OW15739   5.964  10.628   0.442 -0.7142 -0.1781 -0.8109
37061SOL    HW115740   5.974  10.563   0.512 -1.7217 -0.0126 -0.5047
37061SOL    HW215741   6.052  10.638   0.406 -0.2226 -0.4291  0.2871
37062SOL     OW15742   1.477   8.307   9.948 -0.1898  0.3109 -0.1282
37062SOL    HW115743   1.408   8.343  10.005  0.0302  1.9703 -0.8528
37062SOL    HW215744   1.437   8.229   9.909 -1.2665  0.6128  0.3226
37063SOL     OW15745   5.801   5.195   9.730  0.2115  1.1769 -0.3873
37063SOL    HW115746   5.830   5.156   9.812  1.2107  1.3081 -0.6691
37063SOL    HW215747   5.820   5.288   9.740  2.8269  0.8699 -1.7529
37064SOL     OW15748  10.368   6.544   9.464  0.1520 -0.4595  0.6088
37064SOL    HW115749  10.398   6.503   9.383  0.9839 -0.6996  1.0264
37064SOL    HW215750  10.412   6.629   9.466 -0.4188 -0.1536  0.4715
37065SOL     OW15751   9.140   1.370   1.080 -0.3643  0.2984 -1.1546
37065SOL    HW115752   9.092   1.328   1.152 -0.7865  2.3461 -0.1843
37065SOL    HW215753   9.132   1.308   1.008 -0.0847 -1.7591  0.4685
37066SOL     OW15754   4.989   4.233   4.220  0.2404  0.2503 -0.2047
37066SOL    HW115755   5.032   4.154   4.253 -2.4130 -1.9814 -1.6244
37066SOL    HW215756   5.028   4.247   4.133 -0.3935 -0.5500 -0.6381
37067SOL     OW15757   4.042  11.748  12.071  0.1345 -0.3936 -0.0430
37067SOL    HW115758   4.007  11.813  12.011  0.1732  0.6172  1.0123
37067SOL    HW215759   3.966  11.696  12.097  0.1400 -0.9410 -1.0604
37068SOL     OW15760   2.783   5.332   8.070  0.3733  0.9055  0.1259
37068SOL    HW115761   2.760   5.365   7.983 -1.4691 -0.2274  0.1383
37068SOL    HW215762   2.804   5.411   8.120 -0.8568  1.7948 -0.6860
37069SOL     OW15763   4.195   6.543   2.915  0.1555 -0.0212  0.1912
37069SOL    HW115764   4.171   6.634   2.898  1.5430  0.5661  1.1546
37069SOL    HW215765   4.291   6.542   2.910  0.2066 -1.2653  0.9314
37070SOL     OW15766   6.704   2.039   4.287  0.6865 -0.2461  0.1885
37070SOL    HW115767   6.667   1.962   4.329  2.5394 -1.7551 -0.7693
37070SOL    HW215768   6.775   2.005   4.232  1.1141  2.0705 -0.8449
37071SOL     OW15769  10.093   8.715   5.689  0.1366  0.0847  0.1748
37071SOL    HW115770  10.167   8.660   5.662  1.0442  0.7318  1.2048
37071SOL    HW215771  10.024   8.653   5.712  1.1021 -0.6470  1.2274
37072SOL     OW15772   0.132  10.273  11.287 -0.3075 -0.1300  0.1327
37072SOL    HW115773   0.119  10.330  11.363  1.4200  0.1835  0.2341
37072SOL    HW215774   0.096  10.322  11.213 -2.4000 -0.6206  0.7709
37073SOL     OW15775   0.908   2.702   0.413 -0.2085  0.2805  0.0243
37073SOL    HW115776   0.926   2.794   0.431  0.2045  0.2633 -0.2970
37073SOL    HW215777   0.833   2.704   0.353 -1.1799  0.3555  1.2135
37074SOL     OW15778   8.363   4.744   7.511 -0.0105  0.2123  0.1314
37074SOL    HW115779   8.421   4.703   7.447 -0.9167  0.8051 -1.1253
37074SOL    HW215780   8.417   4.811   7.553  0.2091  0.8276 -1.0905
37075SOL     OW15781   1.026   1.769   6.601 -0.6202  0.0989 -0.1101
37075SOL    HW115782   1.102   1.785   6.545 -1.3868  2.3201 -0.6266
37075SOL    HW215783   0.955   1.819   6.560 -2.1417 -1.1636  0.8668
37076SOL     OW15784   9.792   0.251   1.630  0.6224  0.4947  0.5737
37076SOL    HW115785   9.778   0.271   1.722 -0.6052  3.3218 -0.1307
37076SOL    HW215786   9.751   0.323   1.583  0.4438 -1.2814 -2.2428
37077SOL     OW15787   5.113   1.299   0.419 -0.3085 -0.4614 -0.2648
37077SOL    HW115788   5.093   1.304   0.326 -0.4874 -1.2143 -0.2704
37077SOL    HW215789   5.178   1.229   0.426 -0.8786 -0.9370  0.2746
37078SOL     OW15790   9.209   7.848   0.119  0.3688  0.7972 -0.3476
37078SOL    HW115791   9.249   7.811   0.040  0.1242  0.1356 -0.1746
37078SOL    HW215792   9.123   7.879   0.090  0.3569  0.7336 -0.3808
37079SOL     OW15793   3.098   0.815   1.726  0.2490 -0.4514  0.2501
37079SOL    HW115794   3.082   0.843   1.636 -0.1617 -1.2171  0.0759
37079SOL    HW215795   3.181   0.767   1.721  1.2479  1.1641  0.6505
37080SOL     OW15796   0.719   8.235   9.404 -0.5488  0.4838  0.0681
37080SOL    HW115797   0.631   8.200   9.394 -0.0955 -0.4004 -1.0193
37080SOL    HW215798   0.729   8.296   9.331 -0.7331  1.6438  0.9835
37081SOL     OW15799   5.708   3.088  11.036  0.0933 -0.6126  0.0561
37081SOL    HW115800   5.767   3.072  11.109  0.3289 -0.0365  0.0033
37081SOL    HW215801   5.763   3.074  10.958  1.2534  3.2886 -0.0419
37082SOL     OW15802   2.391  11.337   8.650 -0.1301 -0.2628  0.4715
37082SOL    HW115803   2.442  11.313   8.728 -1.5375 -0.0263  1.4876
37082SOL    HW215804   2.359  11.254   8.616 -0.3617 -0.2806  0.7351
37083SOL     OW15805   7.776  10.866  11.172  0.6665 -0.1823 -0.6160
37083SOL    HW115806   7.789  10.953  11.210 -0.3263 -0.0107 -0.6297
37083SOL    HW215807   7.734  10.882  11.088  0.1499 -0.6798 -0.4638
37084SOL     OW15808  10.900   7.830  10.034  0.6210  0.0792  0.0810
37084SOL    HW115809  10.900   7.749  10.085 -2.0739 -0.3539 -0.4417
37084SOL    HW215810  10.815   7.831   9.991  1.0482  2.6236 -0.8860
37085SOL     OW15811   5.097  10.731   9.519 -0.3276 -0.6849  0.4227
37085SOL    HW115812   5.154  10.674   9.571  0.9943  0.1580 -0.0571
37085SOL    HW215813   5.153  10.804   9.494 -1.6727  0.2563  0.0503
37086SOL     OW15814   8.734   4.648   3.466  0.1223  0.4348  0.4393
37086SOL    HW115815   8.661   4.705   3.444  0.2128  0.1606 -0.6141
37086SOL    HW215816   8.804   4.707   3.492  0.0331  0.7711 -0.0902
37087SOL     OW15817  12.122   4.698   6.954 -0.6156 -0.1390 -0.5966
37087SOL    HW115818  12.169   4.763   6.903  0.3562  0.9873  1.6032
37087SOL    HW215819  12.175   4.618   6.946  1.0514  0.7483  0.7274
37088SOL     OW15820   5.496  11.905   1.095  0.7773 -0.3627  0.4317
37088SOL    HW115821   5.551  11.972   1.055 -0.8292  0.7181 -0.0980
37088SOL    HW215822   5.492  11.835   1.030  0.8104 -0.0375  0.0740
37089SOL     OW15823   7.699   9.968   1.752  0.1921 -0.3882  0.2929
37089SOL    HW115824   7.672   9.955   1.843  0.0441  0.9650  0.4555
37089SOL    HW215825   7.679  10.060   1.734  0.2647 -0.6280 -1.0940
37090SOL     OW15826   5.890  10.013   4.967 -0.0082 -0.4800  0.1567
37090SOL    HW115827   5.943   9.939   4.937 -0.1928  0.3375 -2.4262
37090SOL    HW215828   5.804   9.997   4.928 -0.1939  0.7931  0.0104
37091SOL     OW15829   5.406   6.815   9.496 -0.6644 -0.2657  0.2753
37091SOL    HW115830   5.337   6.748   9.502  0.4421 -1.5619 -0.8306
37091SOL    HW215831   5.386   6.863   9.415 -0.8048 -0.0211  0.4559
37092SOL     OW15832   4.462   9.329   4.291  0.1229  0.0599 -0.1379
37092SOL    HW115833   4.373   9.295   4.295  0.2713 -0.2423  3.4983
37092SOL    HW215834   4.493   9.305   4.204 -3.3879  0.4715 -1.6758
37093SOL     OW15835  10.001  11.404  11.541  0.1358 -0.0144 -0.3685
37093SOL    HW115836   9.979  11.350  11.465 -0.0213 -0.5519  0.0544
37093SOL    HW215837  10.082  11.449  11.515  0.4733 -0.7349 -0.5948
37094SOL     OW15838   6.690   3.455   5.062 -0.3848  0.3507  0.0302
37094SOL    HW115839   6.660   3.364   5.069 -0.0895  0.3435  1.3187
37094SOL    HW215840   6.775   3.456   5.106 -1.4204  1.7296  2.1162
37095SOL     OW15841   1.102   8.628   2.624  0.6469  0.1235  0.5278
37095SOL    HW115842   1.178   8.583   2.588 -0.0174 -0.8241  0.2664
37095SOL    HW215843   1.138   8.698   2.678  1.7272 -0.9626  1.2553
37096SOL     OW15844   2.302   7.561   6.985 -0.1735  0.2659 -0.9996
37096SOL    HW115845   2.325   7.649   6.956  0.8069  0.3859  0.0326
37096SOL    HW215846   2.319   7.562   7.080 -0.2255 -1.0019 -0.9547
37097SOL     OW15847   2.460   4.346   2.685 -0.7561 -0.8227 -0.0059
37097SOL    HW115848   2.494   4.266   2.726 -1.8316 -0.8186  0.9352
37097SOL    HW215849   2.403   4.315   2.615 -2.3421 -0.9466  1.2951
37098SOL     OW15850  10.920   5.303  11.516  0.3867  0.4253  0.3612
37098SOL    HW115851  10.878   5.388  11.527 -1.2572 -0.2028 -0.5957
37098SOL    HW215852  11.002   5.310  11.564  0.1184  2.4123  0.6162
37099SOL     OW15853  11.966   5.614   0.073 -0.0416 -0.4048  0.1669
37099SOL    HW115854  11.985   5.530   0.031  1.7186 -1.6905  3.2048
37099SOL    HW215855  11.903   5.593   0.142 -1.4620  1.2927 -0.5255
37100SOL     OW15856   0.335  10.769  10.335 -0.2620 -0.0323  0.2419
37100SOL    HW115857   0.391  10.721  10.274 -0.4821  0.9860 -0.7947
37100SOL    HW215858   0.284  10.701  10.379  1.7180 -0.9897  1.1863
37101SOL     OW15859   2.036   2.103   9.705 -0.5028  0.1706 -0.1385
37101SOL    HW115860   2.104   2.147   9.654  0.1298  1.2471  1.5556
37101SOL    HW215861   1.955   2.145   9.676 -0.1373  0.9036 -0.1263
37102SOL     OW15862  10.018  11.004   1.021  0.4520 -0.3162 -0.7438
37102SOL    HW115863  10.057  11.012   0.934 -0.0645  1.0177 -0.8758
37102SOL    HW215864  10.000  11.094   1.048  1.6179 -0.5912  1.2148
37103SOL     OW15865   7.171   9.502   5.263  0.2635  0.0583 -0.0828
37103SOL    HW115866   7.122   9.550   5.196  1.5056 -0.2334 -1.2590
37103SOL    HW215867   7.131   9.528   5.346 -1.2010  0.5749 -0.9257
37104SOL     OW15868   3.703   3.480   2.611  0.3823  1.2260 -0.2400
37104SOL    HW115869   3.647   3.535   2.557 -0.2436  2.7542  1.8336
37104SOL    HW215870   3.642   3.421   2.656  1.0125 -1.0587 -2.1623
37105SOL     OW15871   6.226  10.826   0.359  0.1662  0.9389 -0.2764
37105SOL    HW115872   6.145  10.844   0.311  0.8274 -1.1031 -2.3313
37105SOL    HW215873   6.295  10.832   0.293  1.4527  0.4759  0.9676
37106SOL     OW15874   4.027  11.015   9.972 -0.2426 -0.3639 -0.0088
37106SOL    HW115875   4.105  10.969   9.941 -1.3651 -1.3816 -1.4366
37106SOL    HW215876   4.026  10.999  10.066  1.2743 -0.3085  0.0422
37107SOL     OW15877   5.440   1.403   1.229 -0.1850  0.0603 -0.0274
37107SOL    HW115878   5.525   1.359   1.217  0.2262  0.5201  1.0426
37107SOL    HW215879   5.463   1.494   1.248 -0.9706  0.4274 -0.7937
37108SOL     OW15880   5.472  11.934   2.740  0.4102  0.1359 -0.4133
37108SOL    HW115881   5.379  11.955   2.746  0.2730 -0.7289  1.1892
37108SOL    HW215882   5.475  11.845   2.705  0.7447  0.8552 -2.2805
37109SOL     OW15883  10.298   1.013   2.092 -0.8670 -0.4604  0.4764
37109SOL    HW115884  10.221   1.065   2.067 -0.4381 -0.8385 -1.9085
37109SOL    HW215885  10.366   1.041   2.031 -0.1823 -2.7180  0.1219
37110SOL     OW15886   3.968   2.465   5.668  0.3061 -0.2713  0.2662
37110SOL    HW115887   3.921   2.405   5.726 -0.6540  0.2022  0.0093
37110SOL    HW215888   3.906   2.483   5.597  0.9204  0.2964 -0.1412
37111SOL     OW15889   3.868   7.141   7.306  0.5346 -0.4143  0.3130
37111SOL    HW115890   3.788   7.092   7.290 -1.5679  2.6185  0.5394
37111SOL    HW215891   3.901   7.163   7.219 -0.9432  1.2162  0.0954
37112SOL     OW15892   9.670   3.772   5.978 -0.2928  0.7094 -0.2017
37112SOL    HW115893   9.630   3.687   5.995  1.4279 -0.8345 -2.9975
37112SOL    HW215894   9.610   3.815   5.917 -1.0547  1.4677  1.0443
37113SOL     OW15895   4.263   2.163   4.638 -0.8247 -0.1615  0.1432
37113SOL    HW115896   4.206   2.129   4.707  0.1767  0.7139  1.4389
37113SOL    HW215897   4.276   2.088   4.580 -0.3121 -1.4568  1.8342
37114SOL     OW15898   9.186   9.171   7.655  0.1969 -0.9880 -0.1947
37114SOL    HW115899   9.114   9.110   7.675  1.2635 -1.7782  1.4282
37114SOL    HW215900   9.252   9.153   7.721  1.8352 -0.1246 -1.5156
37115SOL     OW15901   2.491   1.619   7.189 -0.5268  0.0089 -0.7847
37115SOL    HW115902   2.577   1.660   7.199 -0.0739 -1.0164 -0.3444
37115SOL    HW215903   2.475   1.576   7.273 -1.1774 -0.3628 -1.0945
37116SOL     OW15904   4.678   8.774   0.615  0.6737 -0.1529  0.2864
37116SOL    HW115905   4.751   8.829   0.642  1.6244 -1.4754  0.4966
37116SOL    HW215906   4.656   8.724   0.694 -0.1613 -0.1033  0.0935
37117SOL     OW15907   4.919  11.001   0.054 -0.2667 -0.1823  0.4075
37117SOL    HW115908   4.919  11.069  -0.014 -0.0499  0.3990  0.9778
37117SOL    HW215909   5.012  10.984   0.071 -0.3132 -1.0801 -0.1715
37118SOL     OW15910   4.177   4.034   6.573 -0.4859  0.0923 -0.3995
37118SOL    HW115911   4.185   3.988   6.489  0.6028  1.4236 -1.0855
37118SOL    HW215912   4.268   4.053   6.598 -0.8366  0.4072  0.6757
37119SOL     OW15913   6.503   1.003  11.798  0.0079 -0.0961 -0.5595
37119SOL    HW115914   6.518   1.000  11.892  1.7603 -1.4758 -0.8203
37119SOL    HW215915   6.410   0.987  11.788 -0.4416  1.3058  0.9640
37120SOL     OW15916   0.858   8.524  10.862 -0.5126  0.0948 -0.2707
37120SOL    HW115917   0.863   8.463  10.936 -0.7482 -0.8283 -1.0054
37120SOL    HW215918   0.867   8.469  10.785  1.0222  1.1921 -0.9240
37121SOL     OW15919   8.556   0.762   6.871  0.4288  0.3527 -0.5952
37121SOL    HW115920   8.499   0.718   6.809 -1.2771  0.5573  0.7336
37121SOL    HW215921   8.497   0.789   6.942  2.4586 -1.1513  1.8174
37122SOL     OW15922   4.034   9.477   4.351  0.1787  0.1144 -0.4528
37122SOL    HW115923   4.067   9.507   4.436  1.0420 -1.7505 -0.0860
37122SOL    HW215924   4.076   9.393   4.337 -1.0707 -0.2905 -2.0769
37123SOL     OW15925   0.539   5.074   7.719 -0.0453  0.2819 -0.5594
37123SOL    HW115926   0.605   5.005   7.711  0.1461  0.0576  2.0540
37123SOL    HW215927   0.462   5.038   7.676  0.2104 -1.3902  0.3011
37124SOL     OW15928   1.891   1.921   4.321 -0.4523  0.5077  0.2159
37124SOL    HW115929   1.959   1.864   4.284 -0.5208  1.5155 -1.5842
37124SOL    HW215930   1.872   1.884   4.407  0.7201 -1.1602 -0.2064
37125SOL     OW15931   2.583   4.350   4.072  0.4066 -0.0682 -0.4733
37125SOL    HW115932   2.496   4.351   4.111  1.0543  0.1975  1.0127
37125SOL    HW215933   2.605   4.258   4.062 -0.1023 -0.1375 -1.0343
37126SOL     OW15934   6.715   6.922   0.596  0.3820  0.0310  0.0257
37126SOL    HW115935   6.667   6.916   0.514  1.1593 -1.7995 -0.3386
37126SOL    HW215936   6.647   6.931   0.663 -0.2456  1.9872 -0.7978
37127SOL     OW15937  10.385   6.030   6.137 -0.1120 -0.0710 -0.0064
37127SOL    HW115938  10.466   6.055   6.092 -0.8618  0.7242 -0.9740
37127SOL    HW215939  10.414   5.977   6.211  1.2346 -0.5357 -0.8294
37128SOL     OW15940   8.009   5.299   4.682  0.2162  0.5245  1.1258
37128SOL    HW115941   7.959   5.219   4.694  2.0906 -0.7676  0.8039
37128SOL    HW215942   7.962   5.346   4.612 -1.8277  0.5658  2.4371
37129SOL     OW15943   6.057  11.559   0.773 -0.2797  0.2382  0.4652
37129SOL    HW115944   6.070  11.466   0.755  1.2456  0.4637  0.2120
37129SOL    HW215945   5.963  11.573   0.765 -0.2428 -0.6936 -2.4199
37130SOL     OW15946   4.517   1.594   6.830 -0.4073 -0.3024 -0.1910
37130SOL    HW115947   4.423   1.593   6.848 -0.2549  1.2137  0.9633
37130SOL    HW215948   4.526   1.648   6.752 -0.5859 -1.6878 -1.1976
37131SOL     OW15949   7.970   4.678  11.552 -0.3098 -0.0120  0.4496
37131SOL    HW115950   7.876   4.658  11.556 -0.4122  0.4890  0.6366
37131SOL    HW215951   7.981   4.723  11.468 -0.2473 -0.0054  0.4619
37132SOL     OW15952   4.273   2.800   3.882  0.0760 -0.3078 -0.4972
37132SOL    HW115953   4.353   2.828   3.928 -2.2081  2.1525  2.4086
37132SOL    HW215954   4.258   2.870   3.818  0.3581 -0.9300 -1.2586
37133SOL     OW15955   2.078   9.500  11.638  0.7090  0.0096 -0.5092
37133SOL    HW115956   2.037   9.418  11.667 -0.2273  0.3632 -0.8133
37133SOL    HW215957   2.170   9.490  11.662  0.1057  0.0522  2.0872
37134SOL     OW15958   6.841   9.204  11.303 -0.1506 -0.2748 -0.3681
37134SOL    HW115959   6.904   9.268  11.271  1.0359 -0.3791  1.5608
37134SOL    HW215960   6.796   9.249  11.375 -2.4900 -0.1355 -1.8281
37135SOL     OW15961   1.952   1.525  10.630 -0.0885 -0.2200  0.1982
37135SOL    HW115962   1.954   1.429  10.630 -0.9419 -0.2635 -1.2969
37135SOL    HW215963   1.967   1.549  10.721 -0.5854 -1.8019  0.7324
37136SOL     OW15964   0.846   9.229   6.779 -0.7426 -0.0997  0.1360
37136SOL    HW115965   0.934   9.201   6.803 -0.9936  1.1225  2.7608
37136SOL    HW215966   0.841   9.214   6.684  2.2992 -0.1208 -0.1059
37137SOL     OW15967  12.120   7.066   1.502 -0.3506 -0.4710  0.1513
37137SOL    HW115968  12.203   7.038   1.541 -0.8338 -1.4913  0.4782
37137SOL    HW215969  12.132   7.160   1.486  0.5238 -0.4088  1.0598
37138SOL     OW15970   7.276   5.027   1.542  0.6748  0.5855 -0.3317
37138SOL    HW115971   7.195   5.030   1.593  0.7948  0.2485 -0.1184
37138SOL    HW215972   7.246   5.033   1.451  0.4679  1.2609 -0.2204
37139SOL     OW15973   1.378   3.926   0.099  0.0174  0.0430 -0.4028
37139SOL    HW115974   1.316   3.890   0.036 -1.0168 -0.6982  0.9998
37139SOL    HW215975   1.460   3.882   0.080 -0.6995 -1.4473 -0.1536
37140SOL     OW15976   1.652  12.107   7.546 -0.3932  0.5224  0.0911
37140SOL    HW115977   1.562  12.102   7.514  0.2468  0.2992 -1.8410
37140SOL    HW215978   1.647  12.165   7.622 -2.3377 -0.5380  0.8491
37141SOL     OW15979   1.197   3.536   1.635  0.3062  0.3502 -0.3639
37141SOL    HW115980   1.189   3.628   1.609  0.0225  0.1192 -1.0990
37141SOL    HW215981   1.244   3.495   1.563  4.9950  0.8571  2.0373
37142SOL     OW15982   7.068   0.617   1.681  0.1982  0.0753  0.3065
37142SOL    HW115983   7.024   0.599   1.763 -0.4073 -2.0393 -0.3993
37142SOL    HW215984   7.104   0.532   1.654 -2.0148 -0.0104 -2.9393
37143SOL     OW15985  11.950   7.791  10.294 -0.1671  0.3682  0.0147
37143SOL    HW115986  11.990   7.877  10.307 -3.0576  1.6802  1.2097
37143SOL    HW215987  11.900   7.800  10.213  0.7641 -0.7940 -0.7367
37144SOL     OW15988   1.597   4.725   4.768 -0.5553 -0.0311  0.3551
37144SOL    HW115989   1.514   4.691   4.798 -0.6744 -0.8089 -0.7839
37144SOL    HW215990   1.628   4.781   4.839 -0.8124 -1.7525  1.8798
37145SOL     OW15991   2.415   0.313   3.445  0.3235 -0.2609  0.3421
37145SOL    HW115992   2.435   0.370   3.371  1.1674 -1.1550 -0.1387
37145SOL    HW215993   2.445   0.362   3.522 -0.6887  0.7325  0.1254
37146SOL     OW15994   6.830   2.307   1.548 -0.6627 -0.5386 -0.1073
37146SOL    HW115995   6.734   2.304   1.543 -0.9750  0.6802  2.7573
37146SOL    HW215996   6.849   2.298   1.642  1.8063  2.0705 -0.1988
37147SOL     OW15997  11.809  10.349   6.725 -0.1025  0.0944  0.4257
37147SOL    HW115998  11.808  10.254   6.732  0.2724  0.1554  1.5772
37147SOL    HW215999  11.861  10.367   6.647  1.7817 -0.6173  1.4638
37148SOL     OW16000   3.606   1.047   2.021  0.2152  0.4144 -0.5433
37148SOL    HW116001   3.573   0.965   2.057 -1.9248  1.0532 -0.9411
37148SOL    HW216002   3.686   1.021   1.974  0.0584 -1.2930  0.0436
37149SOL     OW16003  10.569   7.742   5.760  0.0505 -0.3658 -0.0225
37149SOL    HW116004  10.540   7.652   5.749 -0.0085 -0.3312 -0.1471
37149SOL    HW216005  10.664   7.735   5.768 -0.0186 -0.5189  0.8080
37150SOL     OW16006   2.422   1.405   4.952 -0.0918  0.5777  1.0404
37150SOL    HW116007   2.420   1.309   4.948  1.4388  0.5512  0.1923
37150SOL    HW216008   2.386   1.426   5.038  0.7485 -0.8417  1.7828
37151SOL     OW16009   8.654  11.538   6.484  0.2345 -0.5558 -0.1569
37151SOL    HW116010   8.587  11.604   6.470 -0.9697 -1.4606  1.0407
37151SOL    HW216011   8.605  11.457   6.498  1.5922 -1.3257  0.3734
37152SOL     OW16012   9.035  10.663   1.987  0.0935  0.1858 -0.3175
37152SOL    HW116013   9.021  10.715   2.066  0.7535  0.9180 -0.6673
37152SOL    HW216014   8.980  10.704   1.921  0.9681  0.7598 -0.7166
37153SOL     OW16015   2.729   3.256   0.999 -0.6368 -0.1946  0.2805
37153SOL    HW116016   2.698   3.343   0.975 -1.2892 -0.3194  0.6422
37153SOL    HW216017   2.824   3.265   1.004 -0.6360  0.2924 -0.4784
37154SOL     OW16018   3.431   3.540   0.813  0.0829 -0.2575 -0.4035
37154SOL    HW116019   3.498   3.546   0.881  0.4327 -0.2170 -0.7527
37154SOL    HW216020   3.461   3.598   0.743 -0.9996  0.8347  0.0035
37155SOL     OW16021   6.359   4.812   5.464  0.2153 -0.6705 -0.4197
37155SOL    HW116022   6.374   4.724   5.429 -2.2377 -0.8857 -1.1423
37155SOL    HW216023   6.379   4.871   5.391  2.6713 -0.5005  0.3162
37156SOL     OW16024   8.079   8.194   0.996  0.0122  0.0240  0.0934
37156SOL    HW116025   8.054   8.122   1.053  0.6478  0.8624  1.4913
37156SOL    HW216026   8.157   8.164   0.950  0.0706 -0.3033  0.4086
37157SOL     OW16027   3.815   7.387   8.341  0.5685  0.1440 -0.7534
37157SOL    HW116028   3.829   7.481   8.331 -1.2481  0.4837 -0.4900
37157SOL    HW216029   3.890   7.357   8.392  0.3299  1.7762  0.6608
37158SOL     OW16030   8.596   6.484   5.669  0.7912 -0.1091  0.3970
37158SOL    HW116031   8.595   6.559   5.729  1.2104  0.1065  0.1325
37158SOL    HW216032   8.512   6.441   5.685 -0.0135  1.1293 -0.3561
37159SOL     OW16033   1.429  11.828  10.595  0.1704 -0.6424 -0.0379
37159SOL    HW116034   1.401  11.909  10.552  0.0515 -0.4625  0.3747
37159SOL    HW216035   1.358  11.808  10.655 -0.6042 -1.9711 -1.3240
37160SOL     OW16036   4.099   4.174   0.102 -0.0220  0.6776 -0.3235
37160SOL    HW116037   4.035   4.229   0.148 -1.3608 -0.9198 -0.1859
37160SOL    HW216038   4.127   4.111   0.168 -0.0987 -0.1054 -1.0301
37161SOL     OW16039   5.325   7.822   6.326  0.1194 -0.3477 -0.0535
37161SOL    HW116040   5.236   7.833   6.291  0.3615 -0.5036 -0.7327
37161SOL    HW216041   5.359   7.911   6.332  0.3353 -0.3581 -0.9272
37162SOL     OW16042   1.319   6.242   9.288 -0.1402  0.1225 -0.0122
37162SOL    HW116043   1.256   6.264   9.220 -0.2158  1.6911  0.5227
37162SOL    HW216044   1.391   6.305   9.276  0.1089  0.0518  0.9930
37163SOL     OW16045   0.098   0.305   7.680 -0.3720 -0.3599  0.2320
37163SOL    HW116046   0.007   0.275   7.682 -0.1100 -1.3525 -1.0813
37163SOL    HW216047   0.097   0.383   7.625 -0.5982  0.3061  1.1714
37164SOL     OW16048   0.215   2.711   7.099  0.1914  0.3766 -0.0082
37164SOL    HW116049   0.191   2.760   7.020  0.3267  2.1398  0.9792
37164SOL    HW216050   0.311   2.710   7.099  0.2429 -1.9325 -1.1599
37165SOL     OW16051  11.141   1.108   1.970  0.6658 -0.4776  0.3449
37165SOL    HW116052  11.194   1.133   2.047 -0.3054 -0.3442  0.9888
37165SOL    HW216053  11.140   1.013   1.973  1.9914 -0.5385 -0.4627
37166SOL     OW16054   7.216   7.872   6.955 -0.1945 -0.1219  0.5029
37166SOL    HW116055   7.287   7.917   7.001  1.2767 -1.3553 -0.4981
37166SOL    HW216056   7.223   7.781   6.984 -0.3966 -0.5546 -0.7750
37167SOL     OW16057   2.735  10.773   4.992 -0.1964 -0.0314 -0.2831
37167SOL    HW116058   2.804  10.779   4.926  1.4694 -0.3991  1.3645
37167SOL    HW216059   2.656  10.752   4.941  1.1537 -1.0835 -2.0784
37168SOL     OW16060   7.791   1.935   4.026 -0.0634 -0.0209 -0.7156
37168SOL    HW116061   7.728   1.965   3.961 -0.6959  1.2281  0.4260
37168SOL    HW216062   7.761   1.973   4.109  1.7850  0.0332 -0.0142
37169SOL     OW16063   6.527   6.257   4.482  0.4451  0.7270 -0.4724
37169SOL    HW116064   6.548   6.183   4.539 -1.9130  0.4777  0.1648
37169SOL    HW216065   6.564   6.333   4.528  0.9666  0.2166 -0.0243
37170SOL     OW16066   4.767  10.429   7.847 -0.1765 -0.0927  0.2750
37170SOL    HW116067   4.792  10.414   7.756 -0.9511  0.8255 -0.1094
37170SOL    HW216068   4.700  10.497   7.843 -1.0947 -0.8870  1.4513
37171SOL     OW16069   4.607  11.311  11.081  0.2474  0.5423 -0.0021
37171SOL    HW116070   4.657  11.330  11.161  0.0197 -0.1429  0.3186
37171SOL    HW216071   4.544  11.245  11.109 -0.6831  1.2312 -0.4606
37172SOL     OW16072   7.469   5.011   3.850 -0.8811  0.0144  0.0783
37172SOL    HW116073   7.471   5.042   3.759  0.6678  1.0843  0.4361
37172SOL    HW216074   7.512   4.925   3.846  0.1518  0.5176 -0.0745
37173SOL     OW16075   3.883  11.998   2.255 -0.2498  0.2376 -0.0880
37173SOL    HW116076   3.828  12.075   2.272 -1.5840 -0.6389 -0.2481
37173SOL    HW216077   3.865  11.939   2.328  0.3890 -0.1216 -0.2141
37174SOL     OW16078   4.990   8.996   1.667  0.5081 -0.1029  0.4609
37174SOL    HW116079   4.899   8.998   1.639  0.2669  0.2031  1.2484
37174SOL    HW216080   5.036   8.951   1.596 -0.2197 -0.0809 -0.0312
37175SOL     OW16081  12.094  10.694   9.838  0.3685 -0.0216  0.3950
37175SOL    HW116082  12.018  10.743   9.870 -0.2412  0.1297 -1.2124
37175SOL    HW216083  12.156  10.760   9.809  0.9655 -0.1572  1.3063
37176SOL     OW16084   9.154   9.096   1.612 -0.2220 -0.3197 -0.3221
37176SOL    HW116085   9.079   9.037   1.608 -0.7360  0.2067  1.0700
37176SOL    HW216086   9.205   9.074   1.534 -1.0744 -1.6844 -0.5407
37177SOL     OW16087   5.514   5.708   3.881  0.2549  0.6253  0.0414
37177SOL    HW116088   5.551   5.714   3.793 -0.0030  1.0573 -0.0393
37177SOL    HW216089   5.518   5.797   3.916  1.9159  0.1643  1.1295
37178SOL     OW16090   2.371  10.698  10.075  0.1171 -0.1941 -0.3926
37178SOL    HW116091   2.333  10.672   9.991 -2.4532 -0.7242  0.8588
37178SOL    HW216092   2.351  10.791  10.084  1.3220  0.1222 -0.8007
37179SOL     OW16093   8.136   0.997   4.909  0.0361  0.2431 -0.2694
37179SOL    HW116094   8.180   1.033   4.833 -0.7086 -0.2028 -0.9313
37179SOL    HW216095   8.048   1.036   4.906  0.7126  2.1339  1.7387
37180SOL     OW16096   0.689  11.296   0.263 -0.4619 -0.5275  0.6246
37180SOL    HW116097   0.744  11.320   0.337  0.7834 -0.0427 -0.4174
37180SOL    HW216098   0.602  11.282   0.300 -0.0492  0.5091  2.0378
37181SOL     OW16099  10.551   6.990  11.417  0.1835 -0.1538 -0.2701
37181SOL    HW116100  10.610   7.028  11.352 -1.6063  0.1813 -1.8031
37181SOL    HW216101  10.516   6.912  11.374 -1.6690  0.5364 -0.0873
37182SOL     OW16102   4.621  11.975  11.821  0.4247 -0.1616  0.2004
37182SOL    HW116103   4.609  12.044  11.886 -0.2022 -1.2594  1.3003
37182SOL    HW216104   4.701  11.930  11.847  1.2260  0.5420 -0.9238
37183SOL     OW16105  11.252  10.868   0.841 -0.2668 -0.8459  0.4237
37183SOL    HW116106  11.248  10.948   0.789 -0.9142 -0.8739  0.4297
37183SOL    HW216107  11.162  10.837   0.846 -0.0341 -1.5414  0.4797
37184SOL     OW16108   8.836  11.299   3.558 -0.1482 -0.0403  0.5166
37184SOL    HW116109   8.839  11.394   3.569  0.2335 -0.1472  1.4323
37184SOL    HW216110   8.752  11.273   3.596 -0.5639 -0.0054 -0.3544
37185SOL     OW16111   4.246   9.487  11.554 -0.2973  0.1612  0.4926
37185SOL    HW116112   4.241   9.395  11.580 -0.9656 -0.3639 -1.2864
37185SOL    HW216113   4.169   9.528  11.593 -1.4848 -0.6785 -0.8514
37186SOL     OW16114  10.156  10.849   2.146  0.1895  0.3267 -0.2709
37186SOL    HW116115  10.216  10.878   2.078 -0.1162  0.4551 -0.4869
37186SOL    HW216116  10.189  10.763   2.172  0.6117  0.5053 -0.2118
37187SOL     OW16117   1.547   2.714   3.115  0.1702  0.0487  0.1057
37187SOL    HW116118   1.461   2.754   3.102  0.2327  0.5306  1.1221
37187SOL    HW216119   1.534   2.622   3.091 -0.6887  0.0703  0.4437
37188SOL     OW16120   3.412   3.967   0.755  0.5100  0.4273  0.4384
37188SOL    HW116121   3.416   3.912   0.833 -0.6542  0.9862  0.9142
37188SOL    HW216122   3.352   4.039   0.779  2.8584  2.5792  0.2583
37189SOL     OW16123   6.804   4.090  12.043 -0.0817 -0.0584  0.1627
37189SOL    HW116124   6.775   4.055  11.959  4.2309  0.4414 -1.7798
37189SOL    HW216125   6.795   4.185  12.034 -0.1455 -0.0257  0.5467
37190SOL     OW16126   1.772  10.580  10.129 -0.1135  0.2273  0.2997
37190SOL    HW116127   1.789  10.489  10.150 -1.0773 -0.0028  0.1552
37190SOL    HW216128   1.757  10.580  10.034 -0.1991  0.5150  0.3122
37191SOL     OW16129   3.164   1.799   9.087  0.1481 -0.2644  0.1036
37191SOL    HW116130   3.229   1.866   9.110 -0.2914  0.9099 -1.8750
37191SOL    HW216131   3.081   1.847   9.082 -0.6643 -1.4753  1.1478
37192SOL     OW16132   8.558   8.266   5.436  0.2006 -0.1646 -0.0555
37192SOL    HW116133   8.528   8.178   5.414  1.9751 -0.5022 -1.3176
37192SOL    HW216134   8.653   8.262   5.425  0.7274  1.0493  2.9541
37193SOL     OW16135  12.050   0.784   1.581 -0.2572 -0.5479 -0.1359
37193SOL    HW116136  12.081   0.828   1.660 -1.6689 -1.3988  0.9327
37193SOL    HW216137  12.044   0.692   1.606 -1.9174 -0.6552 -0.8252
37194SOL     OW16138  10.958   0.451   2.269 -0.2038  0.1539 -0.0360
37194SOL    HW116139  10.882   0.420   2.219  0.9220 -1.2970 -0.9514
37194SOL    HW216140  11.020   0.482   2.202  0.0014  1.3593  0.6950
37195SOL     OW16141   1.702   2.774  12.119  0.0014  0.2941 -0.7341
37195SOL    HW116142   1.705   2.825  12.200  0.6977 -0.5699 -0.1962
37195SOL    HW216143   1.767   2.814  12.062 -0.8628  1.2384 -1.0874
37196SOL     OW16144  11.061   8.104  12.039  0.2648  0.8149  0.0254
37196SOL    HW116145  11.055   8.072  11.949  0.8493  0.0657  0.2420
37196SOL    HW216146  11.155   8.114  12.055  0.1855  0.6042  0.6585
37197SOL     OW16147   7.939   4.062   7.107  0.1380  0.0132 -0.1904
37197SOL    HW116148   7.856   4.100   7.135 -0.1590  0.2272 -1.2995
37197SOL    HW216149   7.981   4.131   7.056  1.2236  0.0691  0.7354
37198SOL     OW16150   2.908  10.892   7.670 -0.0986 -0.1687  0.0936
37198SOL    HW116151   2.841  10.948   7.709 -0.5511  0.2278 -1.2028
37198SOL    HW216152   2.936  10.938   7.591  1.8741 -0.2245  0.6986
37199SOL     OW16153   2.084   5.359   5.566  0.3786 -0.1217 -0.3451
37199SOL    HW116154   2.148   5.390   5.631 -0.4987  1.2427 -0.0697
37199SOL    HW216155   2.108   5.268   5.549  0.5749 -0.5751  1.9990
37200SOL     OW16156   4.785   3.445   6.396  0.0770 -0.3694  0.1732
37200SOL    HW116157   4.844   3.520   6.396  0.0889 -0.3772 -0.2191
37200SOL    HW216158   4.726   3.460   6.322 -2.9487  1.6236  2.7280
37201SOL     OW16159   0.594   3.908   2.539  0.3319  0.2608  0.0158
37201SOL    HW116160   0.622   3.942   2.454 -0.1724  0.7538  0.0391
37201SOL    HW216161   0.589   3.986   2.595  0.0762  0.0188  0.3306
37202SOL     OW16162   5.394   2.033   2.315 -0.0159  0.1185  0.0202
37202SOL    HW116163   5.310   2.074   2.334  0.2219 -0.0307  1.4661
37202SOL    HW216164   5.455   2.106   2.305 -0.3996  0.2534 -1.6129
37203SOL     OW16165   6.270   6.450   5.272 -0.3879  0.0104  0.5135
37203SOL    HW116166   6.187   6.492   5.297  0.4921  2.3987 -0.2657
37203SOL    HW216167   6.336   6.517   5.290  1.1588 -1.1379 -0.6820
37204SOL     OW16168   1.856  10.232   4.317 -0.0704  0.5124  0.4712
37204SOL    HW116169   1.903  10.286   4.381 -0.0320  0.9693  0.0584
37204SOL    HW216170   1.917  10.221   4.245 -0.8042  1.6483 -0.3531
37205SOL     OW16171   7.848   1.285   3.384 -0.1040 -0.7970  0.4284
37205SOL    HW116172   7.943   1.299   3.379 -0.1121 -0.2630  1.4935
37205SOL    HW216173   7.837   1.191   3.374  0.5462 -0.8675  0.3270
37206SOL     OW16174  11.042   3.209   5.880 -0.3570  0.2906 -0.3464
37206SOL    HW116175  11.001   3.275   5.825  1.1345  2.4397  0.9785
37206SOL    HW216176  10.987   3.205   5.958  0.1036  0.7609  0.0124
37207SOL     OW16177   2.310   7.342  11.039 -0.8324  0.2701  0.7712
37207SOL    HW116178   2.317   7.332  10.944 -0.3639 -0.2322  0.8539
37207SOL    HW216179   2.274   7.430  11.051 -1.0379  0.2818  0.1257
37208SOL     OW16180   2.651   9.231   0.599 -0.3337 -0.4765  0.3466
37208SOL    HW116181   2.589   9.171   0.557  1.2518 -1.6133 -0.4881
37208SOL    HW216182   2.638   9.314   0.554 -1.0831 -0.7643  0.0192
37209SOL     OW16183   2.107   8.395  10.710 -0.5956  0.0472  0.1772
37209SOL    HW116184   2.105   8.453  10.787  1.7903  0.4278  0.0295
37209SOL    HW216185   2.099   8.307  10.747 -1.5267  0.3213  0.6614
37210SOL     OW16186   4.050   1.604  11.990 -0.0969  0.1242  0.0029
37210SOL    HW116187   4.100   1.572  12.065 -0.0211 -0.8849 -0.4601
37210SOL    HW216188   3.995   1.673  12.026  0.7092  0.3938  0.7712
37211SOL     OW16189  11.541   5.621   9.639 -0.1480 -0.4805  0.2911
37211SOL    HW116190  11.556   5.706   9.681 -1.1678 -0.3844  0.4751
37211SOL    HW216191  11.626   5.598   9.601  0.0701  0.7702 -0.0346
37212SOL     OW16192  10.554   3.051   1.285  0.0936  0.2351  0.3482
37212SOL    HW116193  10.594   2.993   1.349 -0.8835 -1.0673 -0.1726
37212SOL    HW216194  10.588   3.138   1.306  2.6747 -0.6876  0.3070
37213SOL     OW16195   2.631   4.026   8.297 -0.1779 -0.7381  0.6609
37213SOL    HW116196   2.620   3.984   8.212  0.6939 -1.0500  0.6873
37213SOL    HW216197   2.679   3.962   8.349 -0.0449 -0.2504  1.1427
37214SOL     OW16198  10.640   3.884   5.643  0.9457 -0.3453  0.4743
37214SOL    HW116199  10.693   3.949   5.689  1.7577 -0.2430 -0.5549
37214SOL    HW216200  10.609   3.929   5.565  0.7765 -0.9244  0.2017
37215SOL     OW16201   5.103   1.687  10.218 -0.4518 -0.5882 -0.1783
37215SOL    HW116202   5.151   1.686  10.301 -1.1874 -0.3498  0.2585
37215SOL    HW216203   5.066   1.775  10.213 -1.2236 -0.9190 -0.2889
37216SOL     OW16204  11.390  10.491   8.659  0.4053  0.7778 -0.1632
37216SOL    HW116205  11.348  10.463   8.740 -0.0640  2.8768  0.3635
37216SOL    HW216206  11.478  10.515   8.685  1.1716 -1.0960 -0.8122
37217SOL     OW16207   3.351   4.172   8.203 -0.0028  0.3545  0.1274
37217SOL    HW116208   3.399   4.113   8.261 -0.6443 -0.5330 -0.2142
37217SOL    HW216209   3.418   4.220   8.156  0.5640 -0.8592 -0.3365
37218SOL     OW16210   2.062   7.424  11.298 -0.5726 -0.1339  0.3295
37218SOL    HW116211   1.996   7.481  11.257 -0.3396 -0.3037 -0.2963
37218SOL    HW216212   2.011   7.357  11.343 -0.8350 -1.0295 -1.2494
37219SOL     OW16213   5.354   1.828   4.837 -0.5015 -0.8230  0.4028
37219SOL    HW116214   5.295   1.877   4.780  1.3412 -1.2980 -2.1029
37219SOL    HW216215   5.344   1.737   4.809  3.4400 -0.6786 -2.4166
37220SOL     OW16216   1.037   3.686   4.102  0.3583 -0.0776 -0.1452
37220SOL    HW116217   1.107   3.700   4.166 -0.9456  0.9572  1.1103
37220SOL    HW216218   0.956   3.697   4.152 -0.7108  1.6005 -2.1137
37221SOL     OW16219   4.672   2.216   0.127 -0.0989  0.5336 -0.1490
37221SOL    HW116220   4.632   2.302   0.117 -0.3982  0.3384 -0.6507
37221SOL    HW216221   4.603   2.162   0.165 -0.2298  0.2731 -0.7410
37222SOL     OW16222  11.384   5.038  10.032 -0.6222  0.3673 -0.5983
37222SOL    HW116223  11.419   5.017  10.118 -2.6591 -0.3066  0.1369
37222SOL    HW216224  11.421   5.124  10.011 -3.0394  2.4760  2.7933
37223SOL     OW16225   5.147   8.801   0.441  0.5426 -0.7431 -0.2028
37223SOL    HW116226   5.109   8.721   0.478  1.3286 -0.1406  2.0670
37223SOL    HW216227   5.119   8.870   0.501 -0.4634  0.8064 -2.3339
37224SOL     OW16228  11.667   8.636  11.756  0.0785  0.7755  0.2356
37224SOL    HW116229  11.624   8.569  11.809  0.1207  0.7839  0.2806
37224SOL    HW216230  11.729   8.678  11.816  2.2839 -1.1542 -0.5460
37225SOL     OW16231   0.005  10.638   4.147  0.4539  0.0536  0.7823
37225SOL    HW116232  -0.075  10.603   4.108 -0.0604  1.8398  0.1209
37225SOL    HW216233   0.062  10.562   4.159  0.0262 -0.8188 -2.0435
37226SOL     OW16234   0.483   8.990   5.286  0.3606 -0.2449  0.3922
37226SOL    HW116235   0.506   8.941   5.365  0.0485  0.8549  1.1959
37226SOL    HW216236   0.529   8.945   5.215  1.6504 -0.5464  1.3807
37227SOL     OW16237  11.823   9.762   0.328  0.6577  0.2421  0.0271
37227SOL    HW116238  11.816   9.771   0.423 -1.8937 -0.7559  0.0120
37227SOL    HW216239  11.891   9.825   0.303 -1.0922  3.1918  2.1161
37228SOL     OW16240   4.157   5.409   5.402  0.6394  0.1265  0.2884
37228SOL    HW116241   4.082   5.366   5.361 -1.1462  2.2364  1.1542
37228SOL    HW216242   4.217   5.427   5.329  0.7705 -2.2952 -0.3055
37229SOL     OW16243   6.731   9.187   7.709  0.2644 -0.0626  0.4733
37229SOL    HW116244   6.639   9.166   7.694 -0.0650  2.0957 -1.0207
37229SOL    HW216245   6.733   9.283   7.710  2.5744 -0.0606 -0.0797
37230SOL     OW16246   7.037  11.599   2.889 -0.0262 -0.2637 -0.1470
37230SOL    HW116247   7.118  11.607   2.839  2.0098  0.3517  3.0175
37230SOL    HW216248   6.973  11.650   2.839  1.5147 -0.6090 -2.6463
37231SOL     OW16249   6.934   2.838   8.957  0.1843 -0.7080  0.5237
37231SOL    HW116250   6.855   2.871   8.916  0.1135 -1.4314  0.0757
37231SOL    HW216251   6.940   2.746   8.930  0.5744 -0.9735  1.4525
37232SOL     OW16252   7.990   7.441   7.955  0.1911  0.0728 -0.6090
37232SOL    HW116253   8.063   7.416   7.898 -0.7667  0.7794 -2.2179
37232SOL    HW216254   7.912   7.415   7.907 -0.7112 -2.8029  2.0696
37233SOL     OW16255   8.014   6.490   0.858  0.0962  0.8115  0.0965
37233SOL    HW116256   7.925   6.525   0.862  0.3680  1.5212 -0.0398
37233SOL    HW216257   8.002   6.398   0.836 -0.7094  0.4309  1.8851
37234SOL     OW16258   0.366   2.694   2.377 -0.0143  0.3168 -0.2380
37234SOL    HW116259   0.423   2.624   2.346 -0.1202  0.1698 -0.0953
37234SOL    HW216260   0.402   2.773   2.336  0.4470  0.2629  0.0475
37235SOL     OW16261   7.967   0.463   3.010 -0.5213  0.5780 -0.1686
37235SOL    HW116262   8.006   0.503   2.933 -2.4493 -0.6671 -1.9016
37235SOL    HW216263   7.899   0.525   3.038 -0.8565  0.3456 -0.4486
37236SOL     OW16264   1.508  11.483   8.573  0.0701  0.1487 -0.2230
37236SOL    HW116265   1.513  11.388   8.583 -1.2103  0.0356 -0.4783
37236SOL    HW216266   1.596  11.514   8.594  1.0106 -1.2303 -1.8723
37237SOL     OW16267   0.288   6.019   0.788 -0.0183 -0.2943  0.1498
37237SOL    HW116268   0.305   5.940   0.736  2.3784  0.1631  0.1214
37237SOL    HW216269   0.193   6.018   0.802 -0.0761 -3.2485  0.2816
37238SOL     OW16270   5.020  11.526   4.673  0.0934  0.2076  0.1974
37238SOL    HW116271   4.974  11.470   4.611  0.9518  0.6400 -0.8479
37238SOL    HW216272   5.112  11.523   4.646  0.1968  1.9848  0.1922
37239SOL     OW16273   1.064   9.339   9.766 -0.0766 -0.2722  0.6039
37239SOL    HW116274   1.106   9.422   9.744  1.9636 -1.2034  0.7572
37239SOL    HW216275   0.984   9.365   9.812  0.2823  1.5933  0.2899
37240SOL     OW16276   5.763   7.927   5.028 -0.8845  0.0911 -0.0958
37240SOL    HW116277   5.726   7.840   5.015 -2.4442  0.8801 -1.3263
37240SOL    HW216278   5.698   7.974   5.081 -0.9026  1.0003 -0.8848
37241SOL     OW16279   2.179   6.691   2.444 -0.4673  0.1997 -0.2309
37241SOL    HW116280   2.182   6.730   2.531 -0.6736  0.1323 -0.1946
37241SOL    HW216281   2.266   6.709   2.407 -1.0600  2.0661 -0.8304
37242SOL     OW16282   0.633   0.767   0.998  0.4116 -0.4463  0.1898
37242SOL    HW116283   0.657   0.849   0.955  0.4956 -1.1450 -1.1613
37242SOL    HW216284   0.693   0.760   1.071 -0.6361  1.4561  1.3011
37243SOL     OW16285   6.169   0.350   0.521 -0.7730  0.5813  0.3002
37243SOL    HW116286   6.259   0.378   0.533 -0.5013  1.4102 -2.9633
37243SOL    HW216287   6.175   0.256   0.506 -0.4990  0.6000  0.2863
37244SOL     OW16288   0.437   2.894  10.766  0.1832  0.2186 -0.0492
37244SOL    HW116289   0.399   2.838  10.835  2.3180 -1.1074  0.1607
37244SOL    HW216290   0.506   2.943  10.811  0.3806  0.7081 -0.8787
37245SOL     OW16291   9.204   5.283   3.374 -0.7056 -0.1783  0.1075
37245SOL    HW116292   9.278   5.340   3.395 -0.2070 -0.2202 -1.4195
37245SOL    HW216293   9.159   5.327   3.302 -2.6506  0.2249  1.4872
37246SOL     OW16294   1.146   0.666   0.954 -0.3900 -0.1393  0.2677
37246SOL    HW116295   1.230   0.642   0.915  0.1141 -0.2778  1.4005
37246SOL    HW216296   1.148   0.628   1.042 -1.2441  0.6661  0.6605
37247SOL     OW16297   8.683  10.929   9.627 -0.3211 -0.0290  0.0425
37247SOL    HW116298   8.664  10.839   9.599 -1.7870 -0.2331  1.5130
37247SOL    HW216299   8.597  10.966   9.647  0.3649  1.3211  0.5913
37248SOL     OW16300  11.796   4.968   2.207 -0.2691 -0.4733  0.2408
37248SOL    HW116301  11.848   5.048   2.209  0.4101 -0.6363 -3.6342
37248SOL    HW216302  11.854   4.901   2.242  0.8283  0.0027 -0.6000
37249SOL     OW16303   3.153  11.915   1.263 -0.4013  0.1032  0.3311
37249SOL    HW116304   3.106  11.886   1.341 -1.4362  1.3771  0.2101
37249SOL    HW216305   3.095  11.894   1.190 -0.2755  0.6149  0.0748
37250SOL     OW16306   6.770   1.570   3.425 -0.7150 -0.5990 -0.6661
37250SOL    HW116307   6.717   1.493   3.404 -0.0962 -0.7076 -1.9031
37250SOL    HW216308   6.730   1.642   3.376 -0.9408 -0.2378  0.0255
37251SOL     OW16309   0.406   6.026   9.559 -0.0003 -0.0793 -0.2326
37251SOL    HW116310   0.372   6.097   9.504  1.4144 -0.4125 -1.6284
37251SOL    HW216311   0.357   6.033   9.640 -1.7939  0.7927 -1.3304
37252SOL     OW16312   7.792   1.059   8.118 -0.0907  0.0850 -0.5656
37252SOL    HW116313   7.851   1.029   8.049 -1.1041 -0.7625 -1.0962
37252SOL    HW216314   7.804   1.154   8.120  2.3672 -0.1799  0.3721
37253SOL     OW16315   9.293   6.689   6.599 -0.1172  0.1747  0.3938
37253SOL    HW116316   9.284   6.642   6.683 -1.8979  0.2017  0.2549
37253SOL    HW216317   9.340   6.769   6.622 -0.4925  0.1361  1.3615
37254SOL     OW16318   7.002   3.025   5.624 -0.0478  0.4263  0.0659
37254SOL    HW116319   7.024   3.107   5.668  0.7537  0.1048  0.2739
37254SOL    HW216320   6.934   3.050   5.561 -1.4537  0.8376  1.6716
37255SOL     OW16321  11.151  10.077   5.297  0.3654  1.2557 -0.4115
37255SOL    HW116322  11.080  10.134   5.265 -0.5638  1.6244  2.1123
37255SOL    HW216323  11.116   9.988   5.286  0.3829  1.3254 -1.0902
37256SOL     OW16324   8.765   7.845   1.647 -0.1861  0.0164 -0.4273
37256SOL    HW116325   8.830   7.785   1.610  0.3853  1.1305 -1.3176
37256SOL    HW216326   8.816   7.922   1.674 -0.8248 -0.0671  1.1533
37257SOL     OW16327  10.074   0.538   9.319 -0.4277  0.3600 -0.3241
37257SOL    HW116328  10.159   0.524   9.360 -0.0494 -1.0428 -1.4991
37257SOL    HW216329  10.021   0.582   9.386  0.4477 -0.9661  1.2876
37258SOL     OW16330   5.985   7.089   0.653  0.5316 -0.8580 -0.4101
37258SOL    HW116331   6.000   6.997   0.629 -1.4703 -1.6827  1.1594
37258SOL    HW216332   5.923   7.084   0.726 -0.7270  1.8119 -1.1948
37259SOL     OW16333   4.200   9.832  11.276  0.4425 -0.2075 -0.3386
37259SOL    HW116334   4.278   9.804  11.324  0.1486 -1.7620 -0.7284
37259SOL    HW216335   4.137   9.762  11.290 -1.0159  1.1376  0.1963
37260SOL     OW16336   4.179   7.779   0.686 -0.2921  0.0794  0.0703
37260SOL    HW116337   4.230   7.702   0.710 -0.5161  0.1917  0.9422
37260SOL    HW216338   4.108   7.782   0.750 -0.7742  0.5306 -0.4761
37261SOL     OW16339   7.320   0.851   6.970  0.1374 -0.6157  0.8222
37261SOL    HW116340   7.253   0.833   7.036 -0.8076 -3.9342 -0.8329
37261SOL    HW216341   7.378   0.775   6.972  1.0694 -0.0278 -1.0142
37262SOL     OW16342   1.841   8.630   9.044  0.2006  0.8410 -0.3355
37262SOL    HW116343   1.772   8.563   9.034 -1.1994  2.0893  0.5427
37262SOL    HW216344   1.861   8.657   8.955  1.0400 -0.9448 -0.7371
37263SOL     OW16345   9.421   2.915   2.269  0.1563 -0.0410  0.0197
37263SOL    HW116346   9.380   2.971   2.204  0.1406  1.0463  0.9348
37263SOL    HW216347   9.464   2.846   2.218 -2.0433 -0.7371 -0.9940
37264SOL     OW16348   6.426   3.624   0.186  0.0523 -0.0706 -0.2565
37264SOL    HW116349   6.455   3.682   0.256 -2.5027 -0.2924  1.0936
37264SOL    HW216350   6.472   3.541   0.204 -1.3827 -0.4818  1.9271
37265SOL     OW16351  10.683   2.434   5.464  0.6608 -0.1954 -0.0382
37265SOL    HW116352  10.681   2.388   5.380 -2.3925  0.7349 -0.5866
37265SOL    HW216353  10.698   2.525   5.441  3.0835 -0.3141  0.7773
37266SOL     OW16354   8.519   1.382   0.245 -0.4290 -0.2739 -0.0428
37266SOL    HW116355   8.508   1.477   0.243 -0.9857 -0.3381 -0.2479
37266SOL    HW216356   8.471   1.354   0.323 -1.8022 -0.5664 -0.9666
37267SOL     OW16357   1.166   9.221   2.643 -0.9572 -0.2169  0.3241
37267SOL    HW116358   1.231   9.237   2.711 -1.0289 -2.0513  0.8876
37267SOL    HW216359   1.111   9.299   2.642  1.4409  1.5655 -0.4418
37268SOL     OW16360   8.612  11.251   3.683  0.3757  0.1204 -0.2021
37268SOL    HW116361   8.570  11.302   3.752  0.0034 -0.9356  0.3728
37268SOL    HW216362   8.557  11.173   3.674  0.8454 -0.1128 -1.1679
37269SOL     OW16363   4.401   6.029   8.881  0.3132  0.0711  0.4974
37269SOL    HW116364   4.373   6.021   8.790  0.7489 -0.6259  0.4178
37269SOL    HW216365   4.460   6.104   8.881  0.5680 -0.1227  0.1337
37270SOL     OW16366   7.670   4.550   4.062  0.1807 -0.2443  0.4719
37270SOL    HW116367   7.586   4.590   4.086 -0.5082 -0.8024 -0.8999
37270SOL    HW216368   7.733   4.622   4.069 -0.4597  0.2610  1.2194
37271SOL     OW16369   3.766   2.674   9.314 -0.0087  0.2398  0.3141
37271SOL    HW116370   3.759   2.765   9.288 -1.9373 -0.0762 -0.4482
37271SOL    HW216371   3.810   2.676   9.399  2.1334  1.6517 -0.7477
37272SOL     OW16372   3.517  10.024   0.487  0.0333  0.5067  0.3026
37272SOL    HW116373   3.596  10.060   0.527 -0.0840  0.3084  0.7176
37272SOL    HW216374   3.549   9.960   0.423  0.2647  1.7377 -0.8677
37273SOL     OW16375  11.557   0.596   2.633 -0.4201 -0.1978  0.4466
37273SOL    HW116376  11.574   0.661   2.564  0.1503  0.8788  1.5513
37273SOL    HW216377  11.492   0.537   2.595 -1.8642  1.6989 -0.2132
37274SOL     OW16378   0.303   6.027   5.320 -0.2267  0.1888  0.1153
37274SOL    HW116379   0.350   5.944   5.332 -1.7144 -0.9010 -1.1623
37274SOL    HW216380   0.369   6.095   5.335  1.1447 -1.2310  0.7229
37275SOL     OW16381   8.314   8.064   4.658 -0.1086 -0.9910  0.4026
37275SOL    HW116382   8.319   8.077   4.563 -0.2556 -2.1738  0.2162
37275SOL    HW216383   8.239   8.005   4.670  0.3489 -1.4276  1.1873
37276SOL     OW16384   2.241  11.381   3.268 -0.1019 -0.2459  0.4428
37276SOL    HW116385   2.311  11.344   3.322  1.4359  0.4306 -0.9738
37276SOL    HW216386   2.273  11.372   3.178 -1.3016  1.1547 -0.1733
37277SOL     OW16387   6.567   2.974  12.088 -0.0220  0.7249 -1.1198
37277SOL    HW116388   6.490   3.010  12.043 -1.1236  2.3101  1.7406
37277SOL    HW216389   6.533   2.941  12.171  2.1742 -0.1245 -0.4779
37278SOL     OW16390   8.131   8.703   6.859  0.2287  0.0733 -0.0372
37278SOL    HW116391   8.096   8.691   6.771 -0.2821  0.1015  0.1641
37278SOL    HW216392   8.172   8.790   6.857 -2.2585  1.3390  0.5633
37279SOL     OW16393   7.800   7.427   2.554 -0.4247  0.3973 -0.1024
37279SOL    HW116394   7.834   7.413   2.465 -1.5333  0.1604 -0.5162
37279SOL    HW216395   7.720   7.478   2.541  0.3528  1.9448  0.9330
37280SOL     OW16396   4.452   9.673   1.220  0.5458  0.6192 -0.1977
37280SOL    HW116397   4.450   9.700   1.128  1.1056  0.0475 -0.3807
37280SOL    HW216398   4.392   9.733   1.264 -0.7864  0.0350 -1.1687
37281SOL     OW16399   4.496   6.026   7.811 -0.2314  0.0293  0.0667
37281SOL    HW116400   4.454   6.076   7.881  0.0197  0.5193 -0.1364
37281SOL    HW216401   4.580   6.000   7.847 -0.8446 -1.3058  0.6290
37282SOL     OW16402   3.993  10.362   3.040  0.1758  0.4145 -0.1720
37282SOL    HW116403   3.950  10.422   2.978  2.0711 -0.9900 -3.0726
37282SOL    HW216404   3.925  10.297   3.061 -1.1167  2.0479  0.9655
37283SOL     OW16405   8.342   7.327  10.747  0.3610  0.2417 -0.0026
37283SOL    HW116406   8.393   7.271  10.688  0.3868 -0.7951  0.9643
37283SOL    HW216407   8.252   7.295  10.740  0.1020  1.0737 -0.5691
37284SOL     OW16408   6.687  11.299   7.512 -0.5680  0.5480 -0.5085
37284SOL    HW116409   6.727  11.356   7.445  0.4114 -2.3861 -2.6238
37284SOL    HW216410   6.741  11.312   7.590  0.2653  1.7151 -1.2398
37285SOL     OW16411   7.839   3.255   1.468  0.7598 -0.4410  0.4103
37285SOL    HW116412   7.836   3.169   1.427  0.1031 -0.5311  0.6462
37285SOL    HW216413   7.851   3.316   1.395  2.7657 -0.8190  0.3515
37286SOL     OW16414   8.345   4.731   9.699  0.2233  0.3886 -0.1460
37286SOL    HW116415   8.376   4.652   9.745  1.8688 -0.3984 -2.4182
37286SOL    HW216416   8.251   4.734   9.718 -0.1274 -2.7447 -0.7842
37287SOL     OW16417   0.542   8.322   5.601 -0.2102  0.3150 -0.1155
37287SOL    HW116418   0.634   8.333   5.580  0.2086 -0.6135  1.1173
37287SOL    HW216419   0.540   8.317   5.697 -1.5104  0.0792 -0.1395
37288SOL     OW16420   1.754   8.641   4.375  0.2681  1.0678 -0.2645
37288SOL    HW116421   1.677   8.671   4.424  0.0720 -2.6919  2.1976
37288SOL    HW216422   1.718   8.593   4.301  0.0665 -0.9768  1.0688
37289SOL     OW16423   3.536   8.895  10.922 -0.0578 -0.1484 -0.2757
37289SOL    HW116424   3.510   8.981  10.889 -0.7017 -0.5197 -0.7731
37289SOL    HW216425   3.463   8.869  10.978  0.6413  0.1053  0.7692
37290SOL     OW16426   5.418   8.564  11.151 -0.2663  0.3871  0.4433
37290SOL    HW116427   5.349   8.626  11.126 -0.6285  0.2591  1.0882
37290SOL    HW216428   5.370   8.487  11.182  0.1749  0.1599  0.5551
37291SOL     OW16429   9.942   3.350   8.555 -0.1394  0.3772  0.0346
37291SOL    HW116430   9.986   3.341   8.639 -1.9195  1.2523  1.1210
37291SOL    HW216431   9.980   3.428   8.516  1.4186 -0.5951 -0.4846
37292SOL     OW16432   0.579   8.689   2.831 -0.1917  0.4127 -0.6283
37292SOL    HW116433   0.566   8.760   2.767  1.6679  2.3121  0.9522
37292SOL    HW216434   0.670   8.662   2.818 -0.2365 -0.1858  0.2344
37293SOL     OW16435   3.186   3.997   6.208  0.1224 -0.3289 -0.6539
37293SOL    HW116436   3.147   4.034   6.287 -0.0909 -0.8969 -0.4861
37293SOL    HW216437   3.253   3.936   6.240 -2.0527 -2.9592 -0.7661
37294SOL     OW16438   6.794   9.363   0.243  0.2079  0.3891 -0.1820
37294SOL    HW116439   6.703   9.336   0.228  0.6511 -0.6790 -1.1114
37294SOL    HW216440   6.845   9.303   0.188  1.5001  0.6970  0.6684
37295SOL     OW16441   3.363   2.773  11.617 -0.1633  0.4187 -0.3314
37295SOL    HW116442   3.359   2.707  11.548  0.8572 -0.2190  0.1854
37295SOL    HW216443   3.315   2.733  11.690 -0.7598  0.8552 -0.4781
37296SOL     OW16444   6.900   1.235   3.563  0.5902 -0.1851 -0.7776
37296SOL    HW116445   6.943   1.200   3.485  0.8884 -0.1892 -0.6110
37296SOL    HW216446   6.808   1.212   3.552  0.6873 -0.4830 -0.9650
37297SOL     OW16447   8.551   6.722   9.331 -0.0077  0.6058  0.3890
37297SOL    HW116448   8.532   6.630   9.348  1.5330 -0.2050 -1.8771
37297SOL    HW216449   8.631   6.740   9.381  1.0522 -0.0245 -1.0134
37298SOL     OW16450   6.816  11.738   2.807 -0.5871  0.2870  0.0338
37298SOL    HW116451   6.833  11.802   2.738 -1.6525  0.4412 -0.0982
37298SOL    HW216452   6.777  11.789   2.878 -0.0313  0.0303  0.5427
37299SOL     OW16453   4.704  10.210   1.129 -1.0871  0.7053 -0.0470
37299SOL    HW116454   4.635  10.248   1.075 -0.4642  2.1059  0.1123
37299SOL    HW216455   4.747  10.285   1.170  2.5442  0.2093 -2.4786
37300SOL     OW16456   0.992   4.350   7.544  0.2737 -0.0117 -0.2469
37300SOL    HW116457   1.018   4.303   7.623 -1.1503 -1.6935 -0.7355
37300SOL    HW216458   1.040   4.433   7.550  3.0229 -1.5299  0.5407
37301SOL     OW16459   7.234   6.205   1.350 -0.4654 -0.1377  0.1276
37301SOL    HW116460   7.228   6.185   1.443 -2.2888  3.0112  0.8311
37301SOL    HW216461   7.320   6.246   1.339  0.1826 -1.4246  0.1339
37302SOL     OW16462  10.990   4.988   9.932 -0.0299  0.3910  0.2058
37302SOL    HW116463  11.025   5.043   9.863  0.3280  0.0385  0.1031
37302SOL    HW216464  11.007   4.899   9.904 -0.2569  0.2319  0.5518
37303SOL     OW16465   3.361   1.213   5.931  0.0208  0.4921 -0.1967
37303SOL    HW116466   3.412   1.197   6.010 -0.7342  0.9709  0.3948
37303SOL    HW216467   3.270   1.216   5.960 -0.1329  2.8422 -0.7119
37304SOL     OW16468   8.824   7.391   4.358 -0.2068 -0.2189 -0.0925
37304SOL    HW116469   8.745   7.438   4.385 -0.3106  0.1621 -1.0264
37304SOL    HW216470   8.892   7.458   4.357 -0.0026 -0.4202  0.0942
37305SOL     OW16471   0.875   1.484   8.290  0.5098  0.2249  0.1090
37305SOL    HW116472   0.873   1.542   8.214  0.5230 -1.4638 -1.2280
37305SOL    HW216473   0.967   1.474   8.311  0.5892 -0.2804 -0.4514
37306SOL     OW16474   5.378  10.912   1.128 -0.1969  0.5206  0.0045
37306SOL    HW116475   5.343  10.868   1.051  1.0824  1.3013 -1.0624
37306SOL    HW216476   5.413  10.995   1.095  2.9009 -0.2987  0.8903
37307SOL     OW16477   4.093  10.588   1.047 -0.8155 -0.1615 -0.2724
37307SOL    HW116478   4.094  10.634   0.962 -2.2055 -0.4133 -0.4449
37307SOL    HW216479   4.006  10.549   1.052 -0.3591 -1.0912  0.7863
37308SOL     OW16480   1.051   9.076   5.459 -0.2233 -0.8529 -0.8812
37308SOL    HW116481   1.023   9.004   5.515 -0.1143 -0.9296 -0.9258
37308SOL    HW216482   0.971   9.126   5.443  0.2291  1.0764  2.0246
37309SOL     OW16483   9.667   7.606  11.284  0.2480 -0.4266  0.2024
37309SOL    HW116484   9.690   7.516  11.259  1.0603 -0.6950  1.7830
37309SOL    HW216485   9.743   7.658  11.259  0.2201 -0.3538  0.2681
37310SOL     OW16486   4.116   4.483   0.768 -0.4117 -0.2772 -0.1919
37310SOL    HW116487   4.154   4.569   0.780 -1.0949  0.5754 -3.1814
37310SOL    HW216488   4.149   4.431   0.841  2.9092  1.5468 -0.2234
37311SOL     OW16489   1.789   3.343   6.467 -0.2154 -0.1129 -0.0227
37311SOL    HW116490   1.822   3.253   6.457  1.0749  0.2313  0.9368
37311SOL    HW216491   1.835   3.377   6.544 -0.2520  1.5668 -0.7026
37312SOL     OW16492   8.712   3.756   2.352 -0.2481  0.0570  0.0821
37312SOL    HW116493   8.699   3.669   2.390  0.5224 -0.2899 -0.4232
37312SOL    HW216494   8.645   3.763   2.284 -0.6872  0.1012  0.5114
37313SOL     OW16495   0.555   4.195   0.223  0.2087 -0.6681  0.2575
37313SOL    HW116496   0.555   4.233   0.311 -0.0430 -0.2880  0.0944
37313SOL    HW216497   0.636   4.228   0.183  0.6535 -1.3634  0.5661
37314SOL     OW16498   3.570   5.370   7.329  0.3711 -0.4307  0.0859
37314SOL    HW116499   3.613   5.312   7.267 -0.1537 -2.3927  1.4739
37314SOL    HW216500   3.486   5.391   7.288  0.8220 -0.1217 -0.7000
37315SOL     OW16501   6.608   0.721   2.469  0.0840 -0.5370 -0.1051
37315SOL    HW116502   6.593   0.627   2.479  0.0897 -0.7278 -1.6913
37315SOL    HW216503   6.548   0.747   2.399  1.0787  0.3606 -0.6434
37316SOL     OW16504  10.755  11.822   7.445 -0.1925 -0.2581 -0.1435
37316SOL    HW116505  10.769  11.913   7.471  0.3432 -0.7620  1.4282
37316SOL    HW216506  10.838  11.794   7.408 -0.7787  0.2831 -1.9414
37317SOL     OW16507  10.473   9.392   1.352  0.1112  0.2094  0.6662
37317SOL    HW116508  10.502   9.383   1.261 -1.2806 -1.7691  0.3291
37317SOL    HW216509  10.449   9.484   1.361  2.2804  0.9155 -0.2936
37318SOL     OW16510   0.624   9.559   2.763  0.1217  0.1581 -0.2628
37318SOL    HW116511   0.566   9.620   2.809  1.2738  1.1980 -0.1301
37318SOL    HW216512   0.655   9.499   2.831  0.8415  0.9213  0.1045
37319SOL     OW16513   4.853   6.017   9.057  0.3827  0.2216 -0.4553
37319SOL    HW116514   4.773   5.972   9.084  0.2207 -0.3787 -1.8552
37319SOL    HW216515   4.918   5.948   9.047  0.0375  0.1848 -2.9713
37320SOL     OW16516   2.062   9.772   4.435  0.1602 -0.6419  0.0983
37320SOL    HW116517   2.030   9.752   4.523  0.7223 -2.7571 -0.1208
37320SOL    HW216518   2.049   9.691   4.386 -1.3049  0.8214 -2.1774
37321SOL     OW16519  11.705  10.149   8.330 -0.3611  0.2470  0.8541
37321SOL    HW116520  11.689  10.224   8.388 -1.7326 -0.5728  1.5702
37321SOL    HW216521  11.734  10.079   8.388  0.3174  0.0268  0.2660
37322SOL     OW16522   7.432   7.218  10.317 -0.3671 -0.1460  0.8897
37322SOL    HW116523   7.467   7.208  10.405  0.6995  1.8352  0.7514
37322SOL    HW216524   7.495   7.173  10.261 -1.3584 -1.9348  1.1272
37323SOL     OW16525   2.237   2.583   3.457 -0.5613 -0.2327  0.3866
37323SOL    HW116526   2.289   2.640   3.513 -0.1178  0.7805 -1.0127
37323SOL    HW216527   2.158   2.634   3.438 -0.8704 -0.7112  0.3620
37324SOL     OW16528  12.085   9.012   7.698 -0.5010  0.0158  0.1884
37324SOL    HW116529  12.048   8.937   7.745  1.1754 -1.7914 -1.1750
37324SOL    HW216530  12.038   9.014   7.615 -1.9517  1.8249  1.0117
37325SOL     OW16531   4.076  11.985  11.465 -0.3773  0.4568 -0.1456
37325SOL    HW116532   3.996  11.987  11.517 -0.5621 -0.3813 -0.3878
37325SOL    HW216533   4.147  11.989  11.529 -0.6010 -0.6339  0.1951
37326SOL     OW16534   7.236   4.393   1.934 -0.0701  0.3023 -0.0561
37326SOL    HW116535   7.217   4.468   1.878 -1.3559  0.9110  1.1301
37326SOL    HW216536   7.152   4.348   1.943  0.5178 -0.8497 -0.1107
37327SOL     OW16537   5.843   6.732   5.517  0.3674  0.3008  0.6131
37327SOL    HW116538   5.811   6.710   5.604  0.7997 -0.9132  0.4818
37327SOL    HW216539   5.930   6.692   5.512  0.5188  0.7065 -0.2265
37328SOL     OW16540   0.358   2.599   5.119 -0.0004  0.0310 -0.0140
37328SOL    HW116541   0.364   2.503   5.118  0.8631  0.0713  0.3362
37328SOL    HW216542   0.267   2.618   5.095  0.1068 -0.8426 -1.1720
37329SOL     OW16543  10.556   3.250  11.245 -0.0155 -0.1947  0.5477
37329SOL    HW116544  10.461   3.255  11.252 -0.0799  1.7928 -0.9743
37329SOL    HW216545  10.576   3.157  11.258 -2.2945 -0.8910 -0.5064
37330SOL     OW16546   7.347   1.227   9.149 -0.0291 -0.0937  0.4263
37330SOL    HW116547   7.420   1.206   9.091 -1.1235 -0.9309 -0.7201
37330SOL    HW216548   7.342   1.323   9.149  1.3889  0.0055  0.9861
37331SOL     OW16549   1.269   7.560   5.132  0.2331  0.3734 -0.1857
37331SOL    HW116550   1.319   7.574   5.213  0.3464  1.0859 -0.3777
37331SOL    HW216551   1.307   7.621   5.070 -1.1020  1.1641 -0.2487
37332SOL     OW16552   6.656   3.832  11.796  0.0183 -0.3533 -0.0757
37332SOL    HW116553   6.568   3.820  11.833 -0.2191  0.5499 -0.3261
37332SOL    HW216554   6.683   3.744  11.771 -1.5731 -0.4527 -1.6928
37333SOL     OW16555   9.546   0.836   6.539 -0.0668 -0.3321  0.0052
37333SOL    HW116556   9.592   0.844   6.456 -1.3968  0.2864 -0.7057
37333SOL    HW216557   9.525   0.742   6.546  3.2854 -1.1347  1.5251
37334SOL     OW16558   1.535   6.640   6.741  0.4699  0.2846 -0.3638
37334SOL    HW116559   1.556   6.586   6.817 -1.2215 -0.1394 -0.1456
37334SOL    HW216560   1.593   6.716   6.748  0.7743 -0.0498  1.0018
37335SOL     OW16561  11.167   0.136   2.856 -0.0761 -0.5185 -0.4999
37335SOL    HW116562  11.239   0.073   2.859  1.0339  0.7032  1.6839
37335SOL    HW216563  11.175   0.179   2.771  2.4804  0.2711  0.0433
37336SOL     OW16564  11.131   5.371   8.835 -0.5726  0.3683  0.1934
37336SOL    HW116565  11.203   5.409   8.784  1.6987 -0.9325  2.1779
37336SOL    HW216566  11.059   5.363   8.773  0.3282  3.4625 -1.4434
37337SOL     OW16567   4.345   8.194  11.671 -0.8969  0.0352  0.4975
37337SOL    HW116568   4.408   8.237  11.728 -0.4737 -0.0049  0.0680
37337SOL    HW216569   4.398   8.157  11.600 -1.4302  0.2230 -0.0058
37338SOL     OW16570  12.026   9.097   5.981  0.8635 -0.5347 -0.2423
37338SOL    HW116571  12.060   9.149   6.054 -0.6503 -0.4093  0.4010
37338SOL    HW216572  11.936   9.076   6.006  1.0879 -2.5833 -0.9607
37339SOL     OW16573   6.398   2.274   6.694 -0.2443 -0.2016  0.2600
37339SOL    HW116574   6.396   2.305   6.603  1.3339 -2.9719 -0.8376
37339SOL    HW216575   6.341   2.198   6.694  1.4219 -1.5044  1.0160
37340SOL     OW16576   2.662   6.515   8.046 -0.1608 -0.4328 -0.6555
37340SOL    HW116577   2.676   6.557   7.961  1.4382  0.5820  0.0694
37340SOL    HW216578   2.575   6.475   8.038 -2.2501  3.5921 -1.1941
37341SOL     OW16579   1.335   7.810   9.966  0.0549 -0.6557  0.0523
37341SOL    HW116580   1.363   7.900   9.948 -0.8159 -0.5900 -1.1378
37341SOL    HW216581   1.323   7.806  10.060  1.8947 -0.0730  0.3512
37342SOL     OW16582   1.842   1.782   3.444 -0.4838 -0.2258  0.3741
37342SOL    HW116583   1.843   1.848   3.375 -2.1436 -0.5813 -0.0337
37342SOL    HW216584   1.792   1.821   3.515  2.2534  0.6221  1.9643
37343SOL     OW16585   1.922   9.278  11.711  0.0588 -0.7366  0.3532
37343SOL    HW116586   1.908   9.189  11.744 -0.4093 -0.7422  0.1585
37343SOL    HW216587   1.864   9.283  11.635  1.0130 -0.6831 -0.3852
37344SOL     OW16588   5.968   9.600  11.218 -0.3130  0.1467 -0.3188
37344SOL    HW116589   6.032   9.591  11.148  1.0900  1.8456  0.6681
37344SOL    HW216590   5.963   9.514  11.258  1.7157  0.0701 -0.1554
37345SOL     OW16591   8.495   4.932   3.451  0.0817  0.4108 -0.0459
37345SOL    HW116592   8.410   4.888   3.454 -0.5126  1.5295  0.1493
37345SOL    HW216593   8.543   4.888   3.382 -0.3047 -0.8594  0.4750
37346SOL     OW16594   7.759   8.648   8.896 -0.0372 -0.3608  0.2785
37346SOL    HW116595   7.808   8.649   8.814 -1.1307 -0.6207 -0.3944
37346SOL    HW216596   7.688   8.711   8.882  0.2719  0.2517  1.3543
37347SOL     OW16597   5.219   9.896   5.933 -0.6372 -0.0899  0.6586
37347SOL    HW116598   5.258   9.930   5.852 -2.7718  1.7175  0.2850
37347SOL    HW216599   5.269   9.938   6.003 -1.4298  1.7358  0.1956
37348SOL     OW16600   9.068   7.329   6.931 -0.3304  0.0748  0.4320
37348SOL    HW116601   9.100   7.397   6.990  0.9233 -0.1072 -0.0108
37348SOL    HW216602   9.070   7.369   6.844  0.7052 -0.5872  0.1247
37349SOL     OW16603   7.715  10.797   7.717 -0.2722 -0.1747  0.2518
37349SOL    HW116604   7.787  10.859   7.705 -0.0984 -0.6172 -1.2376
37349SOL    HW216605   7.680  10.783   7.629 -0.3725 -2.0880  0.5419
37350SOL     OW16606   5.160   9.326   8.644 -0.6129 -0.2239 -0.0679
37350SOL    HW116607   5.157   9.341   8.550  0.6728 -1.6846 -0.3935
37350SOL    HW216608   5.092   9.260   8.659 -1.2946  0.5143  0.1623
37351SOL     OW16609   9.015   8.618   5.969 -0.1753  0.1705  0.3418
37351SOL    HW116610   9.060   8.702   5.980 -1.5828  0.7446  2.2673
37351SOL    HW216611   8.926   8.642   5.940 -0.1356 -0.7562 -0.5935
37352SOL     OW16612   2.530   3.649   7.540 -0.2855 -0.1723 -0.8478
37352SOL    HW116613   2.501   3.619   7.627 -0.6541  1.6084 -0.3191
37352SOL    HW216614   2.562   3.738   7.555  0.3334 -0.0975 -2.4336
37353SOL     OW16615   0.395   0.167   3.222 -0.7905 -0.3761 -0.7538
37353SOL    HW116616   0.461   0.195   3.286 -0.3339 -2.0136 -0.4575
37353SOL    HW216617   0.408   0.226   3.148 -2.1871  2.4228  1.0674
37354SOL     OW16618   7.477   9.558  11.086  0.6003  0.0638  0.7632
37354SOL    HW116619   7.514   9.645  11.070  2.9152 -0.9820 -0.0490
37354SOL    HW216620   7.446   9.529  11.001 -2.9578  1.1709  1.5362
37355SOL     OW16621   7.324   3.546   8.184 -0.0078 -0.0641 -0.0997
37355SOL    HW116622   7.307   3.463   8.228  2.0916 -0.7921 -0.5311
37355SOL    HW216623   7.377   3.522   8.107 -0.5292  1.5344 -1.0090
37356SOL     OW16624  11.562   0.123   5.892 -0.9740  0.4546  0.5764
37356SOL    HW116625  11.508   0.073   5.954 -0.6186  1.7049  1.9778
37356SOL    HW216626  11.643   0.139   5.940 -0.0237  0.0740 -0.8613
37357SOL     OW16627   9.264   2.001   0.963  0.7035  0.2011  0.9211
37357SOL    HW116628   9.181   2.047   0.948 -0.5922 -2.2280 -0.0844
37357SOL    HW216629   9.278   2.007   1.057 -0.0923  1.4635  0.9925
37358SOL     OW16630   3.090   1.793   9.516  0.5150  0.0032  0.5059
37358SOL    HW116631   3.102   1.873   9.464  0.6683 -0.8550 -0.7992
37358SOL    HW216632   3.170   1.743   9.502 -0.0059 -0.8447  0.5129
37359SOL     OW16633   6.908   3.350   6.104  0.0937 -0.2452 -0.1534
37359SOL    HW116634   6.835   3.341   6.044  0.3048  1.0749 -0.6451
37359SOL    HW216635   6.978   3.388   6.051  0.7473 -0.3946  0.5869
37360SOL     OW16636   2.107   7.680  11.942  0.2843 -0.1180  0.0748
37360SOL    HW116637   2.017   7.688  11.910  0.8922  0.0722 -1.6972
37360SOL    HW216638   2.140   7.599  11.904  0.9817  0.0098  0.3794
37361SOL     OW16639   8.715   5.945   0.406 -0.3995  0.3048  0.1448
37361SOL    HW116640   8.792   5.998   0.385 -0.1675  0.0422  0.3232
37361SOL    HW216641   8.671   5.932   0.322  0.9929 -1.4955 -0.3700
37362SOL     OW16642  11.093  10.467   4.027  0.5763 -0.3844 -0.0029
37362SOL    HW116643  11.006  10.429   4.038 -0.2368  1.1719 -0.9324
37362SOL    HW216644  11.093  10.545   4.082  1.1920 -0.0781 -0.4220
37363SOL     OW16645   5.982  11.388   4.729  0.1784  0.2795 -0.2455
37363SOL    HW116646   6.027  11.342   4.800 -0.7174  2.0163  1.5505
37363SOL    HW216647   6.046  11.451   4.697  0.2425  0.2125 -0.2486
37364SOL     OW16648   8.272  11.812   8.934  0.1576  0.2521 -0.1650
37364SOL    HW116649   8.214  11.877   8.895 -1.1496 -0.4789  0.4876
37364SOL    HW216650   8.267  11.828   9.028  1.4417  0.5057 -0.1176
37365SOL     OW16651   5.630   4.091   1.093  0.0288 -0.9140 -0.0075
37365SOL    HW116652   5.712   4.118   1.052  0.3813 -2.0469 -0.0816
37365SOL    HW216653   5.647   4.003   1.127  0.0224  0.2403  3.3417
37366SOL     OW16654  10.998   0.742   8.690 -0.2675 -0.2975  0.0567
37366SOL    HW116655  10.912   0.785   8.687 -0.2334 -0.2271  0.1038
37366SOL    HW216656  10.983   0.661   8.739  0.0773  0.5661  1.6381
37367SOL     OW16657  10.636   0.371   6.607  0.1632  0.2008 -0.4410
37367SOL    HW116658  10.563   0.430   6.624 -2.0442 -2.2951 -0.6057
37367SOL    HW216659  10.650   0.327   6.691 -0.3667 -1.2071 -1.0548
37368SOL     OW16660   6.780   3.436   2.062  0.4002 -0.1576 -0.5161
37368SOL    HW116661   6.702   3.381   2.067  0.7947 -0.6702 -0.0023
37368SOL    HW216662   6.804   3.435   1.970 -1.6303  2.0090 -1.1790
37369SOL     OW16663   8.996   3.350   6.264  0.6484  0.8282  0.1049
37369SOL    HW116664   8.951   3.404   6.329  0.0603 -0.8880  1.1814
37369SOL    HW216665   8.958   3.263   6.274  1.4495  0.2247 -1.6864
37370SOL     OW16666   5.735   5.815   8.112 -0.4559  0.0715 -0.3089
37370SOL    HW116667   5.773   5.893   8.153 -0.5211 -1.2353  2.3932
37370SOL    HW216668   5.811   5.763   8.086 -0.4208  0.7679 -1.7406
37371SOL     OW16669  10.603  10.921   5.204  0.1394 -0.4249  0.1691
37371SOL    HW116670  10.675  10.983   5.194  0.5130 -0.8499  0.1965
37371SOL    HW216671  10.634  10.858   5.269 -0.0770 -0.8684 -0.1517
37372SOL     OW16672   2.748   6.611   4.755  0.4534 -0.6433 -0.0292
37372SOL    HW116673   2.721   6.537   4.701  0.5205 -0.6793 -0.0138
37372SOL    HW216674   2.811   6.574   4.817  2.6853 -0.0828 -1.8129
37373SOL     OW16675   3.914   6.880   3.562 -0.1565 -0.4182  0.2993
37373SOL    HW116676   3.971   6.870   3.486 -1.2137 -0.9623 -0.4447
37373SOL    HW216677   3.892   6.791   3.588  0.4518 -0.2520  1.4637
37374SOL     OW16678   8.424   4.792   2.590  0.2016  0.1427  0.1507
37374SOL    HW116679   8.353   4.855   2.580  0.8090  0.9351  0.8205
37374SOL    HW216680   8.391   4.728   2.652 -0.3844 -0.1773 -0.4740
37375SOL     OW16681   0.682  11.044   6.112  0.2608  0.1422  0.5326
37375SOL    HW116682   0.588  11.030   6.099  0.2554  0.1022  0.6158
37375SOL    HW216683   0.691  11.139   6.121  0.6159  0.5436 -2.7460
37376SOL     OW16684  11.054   7.309   1.944  0.6654 -0.0873 -0.3140
37376SOL    HW116685  11.043   7.299   1.849 -1.4539  0.0404 -0.1233
37376SOL    HW216686  10.974   7.273   1.981  1.1766  0.4673  1.4120
37377SOL     OW16687   4.118   2.573  10.323  0.1514 -0.3665 -0.0440
37377SOL    HW116688   4.031   2.549  10.292 -0.4513 -0.0991  1.3615
37377SOL    HW216689   4.146   2.498  10.376  1.1510 -0.8103 -1.1562
37378SOL     OW16690   0.178   6.280   7.128 -0.0321  0.3087  0.4814
37378SOL    HW116691   0.176   6.205   7.069 -0.3750 -0.1201  1.0350
37378SOL    HW216692   0.146   6.247   7.211  0.4090  0.9193  0.9072
37379SOL     OW16693   9.455   1.302   8.320 -0.3326  0.0588  0.4785
37379SOL    HW116694   9.401   1.230   8.289  0.9117 -0.7070  0.0285
37379SOL    HW216695   9.392   1.372   8.340 -1.7979 -1.7027  2.6647
37380SOL     OW16696   3.781   0.077   3.921  0.7233  0.0851  0.3775
37380SOL    HW116697   3.704   0.131   3.933 -0.8712 -1.8338 -0.6007
37380SOL    HW216698   3.777   0.013   3.992 -0.5700 -2.1267 -1.5382
37381SOL     OW16699   7.965  10.773   0.139  0.3053 -0.8856  0.0209
37381SOL    HW116700   8.058  10.765   0.159  0.8024  1.0678 -1.1728
37381SOL    HW216701   7.921  10.727   0.210  2.1762 -2.1014  0.4642
37382SOL     OW16702  11.710   5.107   7.735 -0.0775 -0.1865  0.4998
37382SOL    HW116703  11.789   5.064   7.766 -0.8398 -2.0232 -0.0063
37382SOL    HW216704  11.640   5.043   7.749 -1.2909  0.9462 -0.1421
37383SOL     OW16705   1.210   6.533   4.537 -0.6182  0.3466  0.3859
37383SOL    HW116706   1.269   6.499   4.605 -0.7728 -0.3509  0.1690
37383SOL    HW216707   1.224   6.477   4.462 -0.7520  0.8676 -0.0363
37384SOL     OW16708   7.392   0.947   3.671 -0.1866  0.1038 -0.4930
37384SOL    HW116709   7.375   1.040   3.656 -0.9921 -0.3521 -2.8000
37384SOL    HW216710   7.452   0.946   3.746 -1.1412  2.3906  0.4332
37385SOL     OW16711   8.007  10.718   3.844 -0.2697 -0.1613  0.3384
37385SOL    HW116712   8.045  10.722   3.932 -0.0829 -0.4724  0.2732
37385SOL    HW216713   7.928  10.665   3.855  0.1612 -0.8451  0.1770
37386SOL     OW16714   9.457   1.192  11.796 -0.5845  0.0942 -0.6113
37386SOL    HW116715   9.498   1.267  11.839  2.2912  0.3013 -3.3054
37386SOL    HW216716   9.468   1.210  11.702 -1.1436 -2.9949 -1.3774
37387SOL     OW16717   4.309   5.305   3.670  0.7508 -0.3224 -0.3210
37387SOL    HW116718   4.260   5.384   3.645 -0.6388 -1.0863 -0.1114
37387SOL    HW216719   4.347   5.326   3.755  0.3616  0.1092 -0.2486
37388SOL     OW16720   0.884   6.539   6.809 -0.2959 -0.4752  0.4274
37388SOL    HW116721   0.807   6.549   6.753  0.1430  0.1267 -0.0778
37388SOL    HW216722   0.942   6.481   6.760  1.1416  1.9306 -0.9281
37389SOL     OW16723   4.346   1.569   3.824 -0.4081 -0.8552  0.1957
37389SOL    HW116724   4.403   1.568   3.902 -0.9487 -2.9756  0.6331
37389SOL    HW216725   4.262   1.602   3.856 -0.1715 -0.1926  0.1393
37390SOL     OW16726   2.672   4.430   7.615 -0.2892  0.6876 -0.1655
37390SOL    HW116727   2.600   4.443   7.553 -1.0815 -0.3705  0.5083
37390SOL    HW216728   2.743   4.394   7.562  0.1610  2.6922 -1.0421
37391SOL     OW16729   7.893   1.094   1.192  0.0686 -0.4628 -0.3751
37391SOL    HW116730   7.813   1.088   1.244  2.2560  1.3333  3.6406
37391SOL    HW216731   7.889   1.181   1.152 -0.5429 -0.9231 -1.3575
37392SOL     OW16732   4.193  11.794   3.727 -0.3625 -0.0176  0.2216
37392SOL    HW116733   4.175  11.887   3.715  0.9729  0.1473 -0.7346
37392SOL    HW216734   4.113  11.751   3.697 -0.3682  0.7810 -1.0169
37393SOL     OW16735   9.602   5.164   5.984  0.0589 -0.6028 -0.1662
37393SOL    HW116736   9.575   5.076   6.011  0.0000 -0.7566 -0.7257
37393SOL    HW216737   9.661   5.149   5.911  0.1446 -0.1771 -0.1817
37394SOL     OW16738   1.045   7.364   1.491 -0.4083 -0.1195  0.4890
37394SOL    HW116739   0.959   7.404   1.507 -0.5794 -0.3036  0.0629
37394SOL    HW216740   1.025   7.272   1.473 -0.2699  0.1032 -0.9408
37395SOL     OW16741   8.724   5.585   1.123 -0.3443  0.2454 -0.1437
37395SOL    HW116742   8.711   5.499   1.164 -1.6265  0.3705 -0.2467
37395SOL    HW216743   8.748   5.642   1.196  4.1822 -0.8320 -0.5022
37396SOL     OW16744   6.855   2.265   7.881  1.0039  0.8283 -0.3205
37396SOL    HW116745   6.782   2.234   7.934  1.2193  0.6103 -0.1540
37396SOL    HW216746   6.894   2.336   7.932  1.6566  0.1458  0.1514
37397SOL     OW16747   3.105   6.414   3.911  0.9776  0.4140  0.4134
37397SOL    HW116748   3.113   6.335   3.964 -1.0204 -1.7237 -2.1589
37397SOL    HW216749   3.194   6.430   3.878  1.4827 -0.5236  1.2951
37398SOL     OW16750   5.116  10.985   1.176  0.4087 -0.4055 -0.2404
37398SOL    HW116751   5.065  10.975   1.096  0.1704  0.3259 -0.1887
37398SOL    HW216752   5.201  10.945   1.156  0.1121 -0.8452 -0.6208
37399SOL     OW16753   8.699   4.334   8.831  0.0534  0.0224  0.4568
37399SOL    HW116754   8.769   4.395   8.809  0.0366 -0.4210 -0.9207
37399SOL    HW216755   8.743   4.250   8.843 -0.1507 -0.1049  0.3249
37400SOL     OW16756  10.416   2.105   5.673  0.4043 -0.6950  0.1646
37400SOL    HW116757  10.424   2.197   5.650  0.4123 -0.3872  1.3096
37400SOL    HW216758  10.379   2.063   5.595  1.4423  0.0666 -0.7592
37401SOL     OW16759  10.801   3.618   6.309  0.3099  0.0550  0.5360
37401SOL    HW116760  10.776   3.579   6.225 -0.0785 -1.0630  1.1438
37401SOL    HW216761  10.725   3.670   6.334  0.8158  1.2211 -0.2638
37402SOL     OW16762   5.699   5.945   9.325  0.0247  0.1640 -0.1618
37402SOL    HW116763   5.742   5.878   9.272  0.7753  0.1611  0.4363
37402SOL    HW216764   5.606   5.929   9.312  0.1532 -1.8558  1.0372
37403SOL     OW16765   7.787   4.080  10.639  0.1194 -0.6293  0.0344
37403SOL    HW116766   7.707   4.031  10.621  0.0880 -0.7320  0.4433
37403SOL    HW216767   7.853   4.040  10.582 -0.1592 -0.4258 -0.4354
37404SOL     OW16768   9.738  11.608   7.595  0.2568 -0.4350 -0.0876
37404SOL    HW116769   9.816  11.565   7.630 -0.4369 -1.3400  0.3953
37404SOL    HW216770   9.755  11.616   7.501  1.3238  0.2612  0.1461
37405SOL     OW16771   5.206  11.244   1.307  0.1742  0.0185 -0.5815
37405SOL    HW116772   5.146  11.217   1.376  0.8885  1.4885  0.6574
37405SOL    HW216773   5.175  11.198   1.229 -2.2839  0.3958  0.1046
37406SOL     OW16774  10.840   9.264  11.260  0.3132 -0.0024  0.1991
37406SOL    HW116775  10.906   9.203  11.225  0.1391  1.0467 -2.0982
37406SOL    HW216776  10.814   9.225  11.343  2.5330 -1.3846  0.3398
37407SOL     OW16777   6.903  11.722   0.565  0.2768  0.5704  0.3955
37407SOL    HW116778   6.980  11.668   0.585 -0.7388 -1.9808 -1.9441
37407SOL    HW216779   6.856  11.726   0.648  0.7180 -1.7158  0.8319
37408SOL     OW16780  10.141  11.851   2.720 -0.5313  0.6232 -0.2519
37408SOL    HW116781  10.177  11.927   2.766  0.1545 -0.9280  1.9208
37408SOL    HW216782  10.047  11.868   2.716 -0.5990  0.8636  1.6730
37409SOL     OW16783   9.024   6.755   4.134 -0.3725  0.3287 -0.4365
37409SOL    HW116784   9.055   6.841   4.163 -2.4556  0.7783  0.6576
37409SOL    HW216785   8.954   6.774   4.072  0.2102 -0.6149 -1.4100
37410SOL     OW16786   3.130   9.027   2.534  0.4976  0.0909 -0.6360
37410SOL    HW116787   3.041   9.012   2.568 -0.3821  0.2553 -2.7466
37410SOL    HW216788   3.126   9.115   2.496  1.6451  0.1754 -0.5813
37411SOL     OW16789  10.508  11.339   9.408 -0.1438  0.2773  0.1167
37411SOL    HW116790  10.565  11.266   9.383  1.5766  1.8614 -0.7946
37411SOL    HW216791  10.512  11.340   9.504  0.2345 -0.4790  0.1193
37412SOL     OW16792   4.728   6.236   4.112  0.9515  0.6020  0.3803
37412SOL    HW116793   4.712   6.246   4.206 -1.3134 -0.0384  0.1361
37412SOL    HW216794   4.767   6.149   4.104  0.4957  0.3658  0.6819
37413SOL     OW16795   2.146   6.936   8.976 -0.1751 -0.1191  0.6324
37413SOL    HW116796   2.058   6.943   9.012 -0.5257  1.3942 -0.4081
37413SOL    HW216797   2.146   6.995   8.901  1.4838 -0.7260  0.1010
37414SOL     OW16798   7.412   8.427   4.086  0.1172  0.1244  0.2618
37414SOL    HW116799   7.463   8.364   4.138  1.0671  0.6809  0.0288
37414SOL    HW216800   7.323   8.420   4.121  0.2442 -1.1918  0.3812
37415SOL     OW16801   7.619   1.807  10.878 -0.1901 -0.2795 -0.0517
37415SOL    HW116802   7.573   1.755  10.943  0.1423 -1.0644 -0.4256
37415SOL    HW216803   7.550   1.858  10.834 -0.5063 -0.3358  0.3715
37416SOL     OW16804   9.782   1.350   0.432 -0.1679 -0.3007 -0.0144
37416SOL    HW116805   9.689   1.339   0.413  0.0750 -3.3521  0.1225
37416SOL    HW216806   9.792   1.317   0.522  0.3637  4.5311  2.0441
37417SOL     OW16807   0.041   5.277   6.616  0.0000  0.2569  0.2223
37417SOL    HW116808  -0.022   5.297   6.546  1.0117 -2.0064 -1.4666
37417SOL    HW216809   0.029   5.184   6.634  2.1625 -0.0107  0.5459
37418SOL     OW16810   1.424   0.577   0.137 -0.2556  0.3430 -0.1950
37418SOL    HW116811   1.511   0.575   0.096 -0.0655  1.5778  0.0978
37418SOL    HW216812   1.369   0.524   0.079  1.0617 -2.0226  0.5726
37419SOL     OW16813  12.004   9.225  10.795 -0.1435  0.0368 -0.1834
37419SOL    HW116814  12.056   9.294  10.754 -0.6115  1.1364  1.0196
37419SOL    HW216815  12.004   9.155  10.730  2.0637  0.3311 -0.6117
37420SOL     OW16816   8.439  10.399   5.027  0.0661  0.1255  0.8200
37420SOL    HW116817   8.478  10.481   5.058  1.8537 -1.1406  2.1474
37420SOL    HW216818   8.350  10.400   5.062 -0.3331  1.9557 -0.1170
37421SOL     OW16819   9.889   7.556   6.696  0.2004 -0.0868 -0.2939
37421SOL    HW116820   9.816   7.549   6.634 -1.4129 -0.6557  1.5589
37421SOL    HW216821   9.879   7.481   6.754  1.0226  0.9441  1.2623
37422SOL     OW16822   6.768   6.447   1.312  0.2616  0.1091  0.6202
37422SOL    HW116823   6.822   6.519   1.279 -0.2429 -0.1450 -0.7911
37422SOL    HW216824   6.681   6.463   1.276  0.2232 -1.3856  0.0012
37423SOL     OW16825   7.633  11.477  11.635  0.4118 -0.1050 -0.5017
37423SOL    HW116826   7.625  11.566  11.670  0.6669  0.5153 -1.9684
37423SOL    HW216827   7.727  11.462  11.630  0.3889 -0.0189 -1.2925
37424SOL     OW16828   7.335  10.473   6.869 -0.5637 -0.0941  0.3494
37424SOL    HW116829   7.393  10.500   6.798 -1.3828 -1.5665 -0.9549
37424SOL    HW216830   7.389  10.478   6.948  1.3033 -1.2639 -0.7772
37425SOL     OW16831   0.636   1.412   4.593  0.4043 -0.3483 -0.3675
37425SOL    HW116832   0.568   1.450   4.649  0.2895 -1.0833  0.0113
37425SOL    HW216833   0.713   1.467   4.609  0.6341 -1.0727  1.2307
37426SOL     OW16834   8.840   7.563  11.787 -0.6481 -0.0634  0.3401
37426SOL    HW116835   8.764   7.532  11.738 -0.5286  0.2349 -0.0376
37426SOL    HW216836   8.815   7.650  11.819 -0.1339  0.4369 -0.5716
37427SOL     OW16837  12.040   4.984   9.555  0.2200  0.4226  0.0958
37427SOL    HW116838  12.087   5.011   9.634  0.2952  1.8278 -0.3913
37427SOL    HW216839  12.105   4.991   9.485 -0.7533  2.8139 -0.6570
37428SOL     OW16840   1.833  11.812   5.421 -0.1389 -0.2833 -0.4871
37428SOL    HW116841   1.825  11.764   5.339 -0.4904  1.2102 -1.3724
37428SOL    HW216842   1.869  11.897   5.396  2.3197 -0.7058  1.2618
37429SOL     OW16843   9.207   6.506  11.769 -0.0699 -0.2341 -0.1456
37429SOL    HW116844   9.224   6.413  11.758  0.2356 -0.4377  1.8255
37429SOL    HW216845   9.136   6.511  11.833 -0.7163  0.8902 -0.8969
37430SOL     OW16846   2.698  10.456   2.832 -0.0192  0.3049  0.2922
37430SOL    HW116847   2.614  10.432   2.872 -0.3532 -0.4304 -0.7977
37430SOL    HW216848   2.682  10.451   2.738  1.2296  0.2441  0.0635
37431SOL     OW16849  10.968   5.897  11.524  0.8461  0.1934 -0.1589
37431SOL    HW116850  11.057   5.931  11.527  1.1698 -0.6524  0.0643
37431SOL    HW216851  10.913   5.975  11.516  1.6228  0.6924 -0.7607
37432SOL     OW16852   5.865   8.271  10.293 -0.7084 -0.5567  0.4616
37432SOL    HW116853   5.955   8.286  10.323 -1.2919 -0.9066  2.4693
37432SOL    HW216854   5.876   8.217  10.214  0.8508 -0.1444  0.3495
37433SOL     OW16855   6.470   9.714   4.266  0.5318 -0.2511 -0.2275
37433SOL    HW116856   6.400   9.730   4.329 -1.0328  1.3966 -2.2385
37433SOL    HW216857   6.547   9.757   4.304 -0.1801  0.0903  0.8717
37434SOL     OW16858   2.015  10.587   1.917  0.1742  0.2477 -0.4786
37434SOL    HW116859   2.017  10.599   1.822 -2.1308 -0.6351 -0.7011
37434SOL    HW216860   2.106  10.592   1.944  0.8802  0.5139 -2.7393
37435SOL     OW16861  11.076   8.091   1.564  0.3142  0.1732  0.0453
37435SOL    HW116862  11.090   8.171   1.614 -2.3593  1.6286 -1.3238
37435SOL    HW216863  10.998   8.051   1.604  0.0117 -0.2983 -0.9852
37436SOL     OW16864   6.043  11.775   2.563  0.3986  0.2290 -1.0411
37436SOL    HW116865   6.046  11.867   2.589 -1.2928  0.3496 -1.1246
37436SOL    HW216866   6.016  11.729   2.643 -1.0971  0.1310 -1.5710
37437SOL     OW16867   7.860   8.304   2.067  0.7164 -0.1732  0.8503
37437SOL    HW116868   7.836   8.397   2.068 -2.2609 -0.8074 -0.6769
37437SOL    HW216869   7.907   8.291   2.150 -1.4738  2.0804  2.6141
37438SOL     OW16870   9.819   4.658   7.431  0.0987  0.1795 -0.2121
37438SOL    HW116871   9.791   4.580   7.383 -1.4282  0.8248 -0.4518
37438SOL    HW216872   9.755   4.665   7.502  1.2615  0.2544  0.8455
37439SOL     OW16873   3.808  10.357   1.829  0.2291 -0.4525 -0.4225
37439SOL    HW116874   3.798  10.266   1.803 -1.2708 -0.8404  1.3005
37439SOL    HW216875   3.793  10.357   1.923 -2.1743  1.8614 -0.6670
37440SOL     OW16876   8.172  11.492   1.313 -0.0088 -0.5579  1.2669
37440SOL    HW116877   8.142  11.582   1.319 -0.1171 -0.5833  1.1306
37440SOL    HW216878   8.210  11.473   1.398 -0.3098 -0.4973  1.4157
37441SOL     OW16879  10.469   3.513   4.847  0.0411 -0.1421 -0.1210
37441SOL    HW116880  10.389   3.487   4.801  1.3107 -3.5809 -0.7290
37441SOL    HW216881  10.440   3.567   4.920 -2.8798 -1.6718 -0.0358
37442SOL     OW16882   7.237   2.331   0.985 -0.3177  0.0145  0.2942
37442SOL    HW116883   7.328   2.320   1.015  0.1784 -1.8213 -1.6293
37442SOL    HW216884   7.245   2.346   0.890 -2.0558 -1.3158 -0.0972
37443SOL     OW16885   7.054   2.219   9.636  0.0948 -0.1825 -0.0138
37443SOL    HW116886   6.996   2.144   9.652  0.3110 -0.7118 -1.6124
37443SOL    HW216887   6.995   2.294   9.635 -0.2733 -0.4561  0.5064
37444SOL     OW16888   2.806  10.571   8.226 -0.0674  0.2976 -0.2751
37444SOL    HW116889   2.809  10.663   8.251  0.0218  0.2324 -0.0379
37444SOL    HW216890   2.813  10.524   8.309  0.6181  0.0681 -0.4575
37445SOL     OW16891   2.151   5.919   8.147  0.3205  0.2997 -0.0987
37445SOL    HW116892   2.242   5.948   8.158 -0.1053  1.3239  0.9723
37445SOL    HW216893   2.134   5.928   8.053  1.1533  0.6194 -0.2258
37446SOL     OW16894   3.863   7.540  10.500 -0.3998 -0.2337 -0.1368
37446SOL    HW116895   3.814   7.488  10.564  0.0095  0.5139  0.8238
37446SOL    HW216896   3.835   7.630  10.516  1.5578  0.2751  0.7566
37447SOL     OW16897  11.574   2.997   2.068 -0.4685 -0.0282 -0.3572
37447SOL    HW116898  11.640   3.051   2.024 -1.1417  0.5045 -0.7422
37447SOL    HW216899  11.600   2.997   2.160  0.4982 -0.4689 -0.6183
37448SOL     OW16900   8.180   4.934   1.479 -0.0488 -0.0710 -0.0429
37448SOL    HW116901   8.208   4.951   1.569 -1.2365  2.2976 -0.0429
37448SOL    HW216902   8.220   5.005   1.428 -1.1509 -0.1042 -0.9880
37449SOL     OW16903   9.246  10.819   3.723  0.4983  0.1090  0.0465
37449SOL    HW116904   9.308  10.760   3.679  0.6453 -0.8063  1.3954
37449SOL    HW216905   9.218  10.880   3.655  0.9868 -1.0092 -1.2035
37450SOL     OW16906   6.163   5.510   2.119  0.9587 -0.8212  0.2193
37450SOL    HW116907   6.172   5.605   2.127  1.3258 -0.8671  0.3933
37450SOL    HW216908   6.069   5.494   2.125  0.7819 -0.3618 -1.0233
37451SOL     OW16909   9.716  11.835   4.748 -0.2648  0.2952 -0.0633
37451SOL    HW116910   9.735  11.796   4.663 -0.1658  1.3642 -0.5362
37451SOL    HW216911   9.646  11.898   4.731 -0.5843  0.1681  0.7342
37452SOL     OW16912   7.724   8.981   3.935  0.0874  0.6409 -0.0857
37452SOL    HW116913   7.736   8.934   4.018  0.8298  2.8544  1.1308
37452SOL    HW216914   7.633   8.964   3.911 -0.1724  0.0557  1.2405
37453SOL     OW16915   8.386   0.508   4.041  0.4165 -0.0561  0.0719
37453SOL    HW116916   8.325   0.544   3.977  1.9011  0.8780 -0.8840
37453SOL    HW216917   8.430   0.437   3.994 -1.3042 -2.1138  1.4049
37454SOL     OW16918   1.871   3.598   6.946  0.5779 -0.5284 -0.3765
37454SOL    HW116919   1.880   3.684   6.986  1.3617 -0.6727 -0.2223
37454SOL    HW216920   1.792   3.604   6.893 -0.3846 -0.2800  1.0336
37455SOL     OW16921   7.836   3.007   9.858 -0.3952 -0.2940  0.1424
37455SOL    HW116922   7.752   3.035   9.822  0.3650 -0.1593 -1.5946
37455SOL    HW216923   7.840   2.913   9.841  0.6170  0.0230 -1.5998
37456SOL     OW16924  10.500   2.255   0.652 -0.3801 -0.3616 -0.0764
37456SOL    HW116925  10.471   2.242   0.742  0.6826 -3.1285 -0.0125
37456SOL    HW216926  10.425   2.230   0.598  0.1774 -2.8072  0.1203
37457SOL     OW16927   4.509   9.644  12.076  0.0155  0.2141  0.1148
37457SOL    HW116928   4.593   9.603  12.054  0.3407  0.5087  0.7639
37457SOL    HW216929   4.502   9.717  12.015  0.5003  0.5108  0.3979
37458SOL     OW16930   7.883   9.208   9.763  0.6661 -0.1584 -0.0604
37458SOL    HW116931   7.946   9.211   9.835  1.6330  0.5641 -0.8909
37458SOL    HW216932   7.840   9.293   9.765  0.9750  0.0173 -0.5516
37459SOL     OW16933   1.682   2.077   1.934  0.2960  0.0320 -0.7766
37459SOL    HW116934   1.753   2.019   1.906  1.2014 -0.1864  1.7353
37459SOL    HW216935   1.725   2.161   1.948 -0.4775  0.5925 -1.6667
37460SOL     OW16936   4.826   1.279   7.410 -0.2767 -0.4362 -0.2122
37460SOL    HW116937   4.743   1.232   7.422 -0.5098  0.0477  0.1174
37460SOL    HW216938   4.801   1.371   7.415  0.1239 -0.2686 -1.1964
37461SOL     OW16939   9.799   8.503   2.706 -0.0032  0.2706  0.0618
37461SOL    HW116940   9.822   8.477   2.617  0.1377 -0.2911  0.2574
37461SOL    HW216941   9.839   8.590   2.717  2.1242 -0.6840  0.4017
37462SOL     OW16942   5.326   0.157  10.297  0.6887 -0.5479  0.2444
37462SOL    HW116943   5.257   0.210  10.336  1.0965  0.4619 -0.3622
37462SOL    HW216944   5.338   0.084  10.358 -1.2688 -1.0468  0.1043
37463SOL     OW16945   3.917   3.704  11.991  0.2066  0.2882  0.2436
37463SOL    HW116946   3.849   3.672  11.932  0.5218  0.6698 -0.3391
37463SOL    HW216947   3.877   3.779  12.035  0.7057  1.4139 -1.1546
37464SOL     OW16948   5.964   1.571   1.954  0.1705  0.2093  0.2091
37464SOL    HW116949   5.876   1.547   1.985 -0.7795  1.7471 -1.1359
37464SOL    HW216950   6.023   1.513   2.002 -1.4338  0.3413  2.4568
37465SOL     OW16951   6.047   4.504   2.135  0.1863 -1.0373 -0.0718
37465SOL    HW116952   6.041   4.443   2.061  0.4476 -1.1427 -0.0074
37465SOL    HW216953   6.071   4.449   2.209  2.3244 -0.6014 -0.3868
37466SOL     OW16954  10.117   3.074   8.842 -0.3237  0.3193 -0.2414
37466SOL    HW116955  10.182   3.100   8.776  0.9656 -0.4390  0.6757
37466SOL    HW216956  10.124   2.979   8.847 -1.0259  0.2920  0.3726
37467SOL     OW16957   8.509   5.196   5.978 -0.4824 -0.8537  0.3000
37467SOL    HW116958   8.426   5.227   5.942  1.3353  2.3270 -1.6269
37467SOL    HW216959   8.507   5.224   6.070 -1.4435 -0.5256  0.1884
37468SOL     OW16960   1.233   4.203   1.901  0.1235  0.2849  0.3572
37468SOL    HW116961   1.305   4.251   1.860  0.2203  1.5051  1.8669
37468SOL    HW216962   1.161   4.210   1.838  1.5777 -1.9949 -1.7467
37469SOL     OW16963   2.870   8.078   3.610  0.1500  0.3370 -0.6990
37469SOL    HW116964   2.811   8.080   3.685 -0.2524  0.1899 -1.0103
37469SOL    HW216965   2.849   8.156   3.560  0.7078  0.6566 -0.4456
37470SOL     OW16966  11.032   2.361   1.560  0.1397 -0.0009 -0.1159
37470SOL    HW116967  11.037   2.366   1.655 -3.0457 -0.6320  0.2204
37470SOL    HW216968  10.938   2.362   1.541  0.6518  1.4973 -3.3748
37471SOL     OW16969   8.630   6.592   0.750 -0.5716 -0.4520 -0.0962
37471SOL    HW116970   8.692   6.650   0.793  0.6552 -2.2493  0.6662
37471SOL    HW216971   8.566   6.651   0.710  0.1341  1.3775  1.3300
37472SOL     OW16972   5.209   3.279   0.951 -0.0088 -0.2235 -0.5849
37472SOL    HW116973   5.267   3.216   0.993 -0.0551  0.1421  0.0508
37472SOL    HW216974   5.244   3.365   0.975 -0.7496  0.0008 -0.2604
37473SOL     OW16975  11.278   4.122   0.146 -0.3535  0.8507  0.3404
37473SOL    HW116976  11.312   4.119   0.236  0.0772 -0.0270  0.1510
37473SOL    HW216977  11.318   4.047   0.102 -1.6466  0.4565 -0.2019
37474SOL     OW16978  11.842  10.922  11.564  0.3572  0.0248 -0.2751
37474SOL    HW116979  11.845  10.875  11.481  0.1793 -0.0602 -0.2346
37474SOL    HW216980  11.910  10.989  11.556  0.3196  0.0380 -0.5031
37475SOL     OW16981   6.406   5.718   9.008  0.0477  0.6988  0.3959
37475SOL    HW116982   6.447   5.634   8.984 -0.5189  0.6949 -0.6049
37475SOL    HW216983   6.425   5.728   9.102  0.0523 -0.5850  0.5471
37476SOL     OW16984   7.839  10.016   5.293 -0.1026 -0.3612 -0.0211
37476SOL    HW116985   7.902  10.065   5.240 -2.0504  1.7138 -0.5288
37476SOL    HW216986   7.815   9.941   5.238 -0.5678  0.6648 -1.2675
37477SOL     OW16987  11.227   4.182  11.096 -0.0768  0.0408 -0.2066
37477SOL    HW116988  11.240   4.250  11.163 -1.3351 -0.0875  0.1885
37477SOL    HW216989  11.298   4.197  11.033  1.2528  0.0494  1.2363
37478SOL     OW16990   0.678  11.286   2.020  0.2033 -0.2607  0.1285
37478SOL    HW116991   0.632  11.276   1.937  0.6479 -0.2856 -0.1186
37478SOL    HW216992   0.654  11.373   2.051 -0.2867 -0.4087  0.1785
37479SOL     OW16993   6.621  10.462   0.842  0.2875  0.5576 -0.0642
37479SOL    HW116994   6.715  10.471   0.827  0.3514 -1.6926 -1.4783
37479SOL    HW216995   6.585  10.439   0.757 -1.6574  1.7706  0.3614
37480SOL     OW16996  10.784   2.685   5.833 -0.2021 -0.2048  0.4997
37480SOL    HW116997  10.876   2.665   5.851  0.5266  2.0656 -0.3223
37480SOL    HW216998  10.787   2.756   5.769 -2.5367  0.3027  0.8670
37481SOL     OW16999   8.706   1.369  11.977 -0.3711 -0.1280 -0.5729
37481SOL    HW117000   8.762   1.341  11.906 -0.2506  0.1873 -0.6037
37481SOL    HW217001   8.617   1.362  11.942 -0.3015  0.2047 -0.8180
37482SOL     OW17002   4.178   1.933   2.098  0.8779  0.2767 -0.6343
37482SOL    HW117003   4.266   1.924   2.135  1.3800 -1.1256 -2.0601
37482SOL    HW217004   4.192   1.945   2.004 -0.4661 -1.9768 -1.1990
37483SOL     OW17005   3.142  10.397   2.193  0.3683  0.2422 -0.4115
37483SOL    HW117006   3.149  10.477   2.245 -0.4944  0.2215 -0.2408
37483SOL    HW217007   3.116  10.428   2.106  3.7073  0.4637 -1.4787
37484SOL     OW17008   9.325   2.984   4.017  0.1278  0.4068 -0.0840
37484SOL    HW117009   9.376   3.033   3.953  1.5768 -1.6764 -0.6316
37484SOL    HW217010   9.373   2.902   4.029 -1.9029 -0.7068  1.1175
37485SOL     OW17011   5.878  10.955   2.127  0.1367  0.5096 -0.6666
37485SOL    HW117012   5.848  10.894   2.060 -0.5251  0.8326 -0.6721
37485SOL    HW217013   5.823  10.937   2.203  0.5970  0.4363 -0.3419
37486SOL     OW17014   2.053  10.594  12.025  0.5564 -0.5823  0.2190
37486SOL    HW117015   2.090  10.665  12.078 -2.1237  0.0614  1.3789
37486SOL    HW217016   2.044  10.632  11.937 -0.9072  0.6277  0.8385
37487SOL     OW17017   3.278   5.293   6.706 -0.2064  0.3649  0.4566
37487SOL    HW117018   3.357   5.242   6.723 -0.6883  0.1459  2.1498
37487SOL    HW217019   3.302   5.383   6.728 -0.6244  0.1889  1.6758
37488SOL     OW17020   4.121   8.730  10.851  0.3018 -0.2420 -0.1443
37488SOL    HW117021   4.140   8.769  10.936 -1.1288 -0.5869  0.3713
37488SOL    HW217022   4.083   8.644  10.872 -2.8654  0.8405 -0.9585
37489SOL     OW17023   0.515   5.689   0.813  0.1077 -0.3882 -0.4526
37489SOL    HW117024   0.567   5.612   0.790  1.0602  0.0351  0.1832
37489SOL    HW217025   0.517   5.744   0.735 -0.7014 -1.0493 -0.9622
37490SOL     OW17026   1.313   8.003   7.649 -0.4292  0.0703 -1.3345
37490SOL    HW117027   1.319   7.958   7.565 -0.0644  0.9260 -1.7725
37490SOL    HW217028   1.336   7.936   7.714 -0.6047 -0.5631 -1.9133
37491SOL     OW17029  10.749  11.564   7.030 -0.3705 -0.4182  0.0858
37491SOL    HW117030  10.690  11.569   6.955 -0.6871  0.6260  0.3825
37491SOL    HW217031  10.691  11.562   7.106 -0.0412 -0.1582  0.3482
37492SOL     OW17032   6.916   7.573   2.095 -0.3240 -0.1295  0.2443
37492SOL    HW117033   6.897   7.663   2.069  2.0921 -0.0026 -1.4866
37492SOL    HW217034   6.923   7.576   2.190 -2.2964  1.0201  0.4055
37493SOL     OW17035  11.679   7.537   4.965  0.5992  0.4436 -0.2827
37493SOL    HW117036  11.744   7.493   5.021  0.6464 -0.7048 -1.1994
37493SOL    HW217037  11.598   7.537   5.017  0.8926  0.2975  0.1741
37494SOL     OW17038   8.567   4.425  11.899 -0.3875  0.2057 -0.1242
37494SOL    HW117039   8.539   4.515  11.919 -0.1387  0.0185  1.1225
37494SOL    HW217040   8.641   4.409  11.956  0.5688 -0.2760 -1.4493
37495SOL     OW17041   5.240   0.082   0.112 -0.4781  0.2747 -0.0808
37495SOL    HW117042   5.318   0.102   0.164 -1.1380 -0.6120  1.2968
37495SOL    HW217043   5.268   0.010   0.055  0.1995  1.1457 -0.8922
37496SOL     OW17044   8.586   4.766   3.268  0.1695 -0.6336  0.7932
37496SOL    HW117045   8.529   4.712   3.213  0.2006  0.4944 -0.3790
37496SOL    HW217046   8.674   4.735   3.249  0.1201 -0.8157  0.8568
37497SOL     OW17047   5.652   6.575   2.938 -0.1837 -0.1310 -0.0743
37497SOL    HW117048   5.648   6.484   2.966  1.1091 -0.5966 -1.2524
37497SOL    HW217049   5.733   6.580   2.888  0.3341  1.9450  0.8778
37498SOL     OW17050   8.973   8.090  10.667  0.1927  0.4237  0.1151
37498SOL    HW117051   8.999   8.109  10.576  1.1858  2.2127  0.7209
37498SOL    HW217052   9.049   8.048  10.706 -0.4496 -0.9102 -0.0034
37499SOL     OW17053   3.602   1.226   5.067  0.2268  0.7813  0.2070
37499SOL    HW117054   3.696   1.243   5.062 -0.2743  4.3296  0.0615
37499SOL    HW217055   3.575   1.217   4.976  0.4380 -0.5993  0.2649
37500SOL     OW17056   7.450  10.333   3.143 -0.4321  0.2707  0.2034
37500SOL    HW117057   7.475  10.397   3.209  0.6022  0.6112 -0.4730
37500SOL    HW217058   7.478  10.373   3.060  0.1411 -0.9863 -0.2428
37501SOL     OW17059   2.055   5.849   6.927 -0.0779  0.5482  0.7079
37501SOL    HW117060   2.094   5.914   6.985 -0.0059  1.4869 -0.3649
37501SOL    HW217061   2.067   5.766   6.973  2.0947  0.9629  0.9906
37502SOL     OW17062   8.745   5.113   3.560 -0.4423 -0.3097 -0.3635
37502SOL    HW117063   8.704   5.034   3.593 -0.0593 -0.6201 -0.6180
37502SOL    HW217064   8.675   5.178   3.558 -0.8052 -0.6972 -0.3440
37503SOL     OW17065   4.145   3.703   5.406 -0.6555 -0.6204  0.5879
37503SOL    HW117066   4.059   3.687   5.368 -0.7411  1.3936 -0.2038
37503SOL    HW217067   4.185   3.768   5.348  1.9290 -2.4116  0.2179
37504SOL     OW17068   3.305   9.119  10.204 -0.7686 -0.5831  0.0858
37504SOL    HW117069   3.285   9.211  10.189 -2.0919 -0.6142  1.4520
37504SOL    HW217070   3.224   9.073  10.180 -0.0051 -1.4476 -0.9295
37505SOL     OW17071  10.136  10.279   3.092 -0.4954  0.5382 -0.2217
37505SOL    HW117072  10.057  10.333   3.085 -2.4151 -1.8615  1.3093
37505SOL    HW217073  10.166  10.270   3.001 -2.7844  0.5008 -1.0549
37506SOL     OW17074   2.529   9.909   3.356 -0.1447 -0.1514 -0.1174
37506SOL    HW117075   2.593   9.906   3.285  1.8380 -0.7040  1.5832
37506SOL    HW217076   2.534   9.999   3.389  1.1650 -0.6569  1.1667
37507SOL     OW17077   0.369   5.438  12.105  0.4308 -0.5798 -0.0738
37507SOL    HW117078   0.315   5.384  12.163  0.3733 -0.7593 -0.2917
37507SOL    HW217079   0.320   5.519  12.095 -0.4457 -1.2233 -1.3007
37508SOL     OW17080   6.392   4.125   4.916  0.4019  0.3579 -0.0869
37508SOL    HW117081   6.307   4.160   4.888 -0.8833 -0.7242  2.1786
37508SOL    HW217082   6.447   4.202   4.930 -0.2434  1.0811 -1.4335
37509SOL     OW17083   6.491   6.556   1.283 -0.0978  0.0123 -0.0612
37509SOL    HW117084   6.422   6.566   1.349 -0.3171  1.4558 -0.4759
37509SOL    HW217085   6.450   6.585   1.201  1.2105  1.6348 -0.1808
37510SOL     OW17086   7.163   8.641   1.910 -0.7816  0.5773 -0.4687
37510SOL    HW117087   7.224   8.715   1.905  1.7956 -1.3060  0.5317
37510SOL    HW217088   7.169   8.600   1.823 -0.0060 -0.0092 -0.1527
37511SOL     OW17089   0.973   0.092   5.951  0.1922  0.3454 -0.0531
37511SOL    HW117090   0.921   0.163   5.989  0.0568  1.2404 -1.8489
37511SOL    HW217091   0.920   0.059   5.878  0.0467 -1.9438  0.9727
37512SOL     OW17092   6.464   2.768   9.368  0.2690 -0.1646 -0.4734
37512SOL    HW117093   6.456   2.675   9.388 -1.3248  0.4205  2.0528
37512SOL    HW217094   6.511   2.805   9.443  0.0424  1.1830 -0.9664
37513SOL     OW17095   4.403   4.313   2.815 -0.1723  0.0543 -0.4231
37513SOL    HW117096   4.391   4.236   2.759 -0.3681  0.0821 -0.4234
37513SOL    HW217097   4.417   4.278   2.902 -0.9965  0.0223 -0.2895
37514SOL     OW17098   4.951   4.088   9.384 -0.1621 -0.3270  0.5048
37514SOL    HW117099   4.891   4.015   9.372  1.5723 -1.7082 -0.2334
37514SOL    HW217100   4.936   4.144   9.307 -1.4897  0.1386  1.0690
37515SOL     OW17101   1.855   1.534   8.779  0.1449 -0.0037  0.2009
37515SOL    HW117102   1.884   1.531   8.870 -0.1471 -0.1154  0.2929
37515SOL    HW217103   1.761   1.553   8.785  0.3326  1.0453 -0.1156
37516SOL     OW17104   2.747   4.346  10.325 -0.5381  0.0230 -0.1932
37516SOL    HW117105   2.813   4.416  10.324  0.1398 -0.3263 -5.3055
37516SOL    HW217106   2.799   4.266  10.337 -0.4811 -0.0157 -0.6911
37517SOL     OW17107   6.677   9.268   7.426 -0.2787  0.4678  0.1877
37517SOL    HW117108   6.675   9.207   7.500  1.5018  1.9435  1.5513
37517SOL    HW217109   6.586   9.269   7.395 -0.7963 -1.2616  1.4408
37518SOL     OW17110   3.678   3.591   2.890 -0.7816  0.0413 -0.2564
37518SOL    HW117111   3.716   3.670   2.851 -1.0684 -0.2819 -1.2070
37518SOL    HW217112   3.692   3.522   2.825 -1.7973 -0.3750 -0.0570
37519SOL     OW17113   2.358  11.168   5.197  0.4911  0.1019  0.3086
37519SOL    HW117114   2.439  11.142   5.152  0.4410 -0.7771  0.6965
37519SOL    HW217115   2.289  11.131   5.142  0.3634  0.6042  0.1316
37520SOL     OW17116   8.000   7.522   3.408 -0.2301 -0.0646 -0.8082
37520SOL    HW117117   8.085   7.515   3.363 -0.2016 -2.5626 -0.4894
37520SOL    HW217118   8.013   7.592   3.472  1.0283  0.7600 -1.9059
37521SOL     OW17119   8.794   6.067  11.072  0.2086 -0.2060 -0.4549
37521SOL    HW117120   8.761   6.157  11.074  1.2701  0.2153  1.7838
37521SOL    HW217121   8.807   6.045  11.164  0.4526 -2.4984 -0.9772
37522SOL     OW17122   8.768   4.695  11.037 -0.1577 -0.1868  0.4488
37522SOL    HW117123   8.769   4.686  10.941 -0.1648  0.9307  0.3246
37522SOL    HW217124   8.676   4.683  11.060 -0.3753  0.7821  0.1578
37523SOL     OW17125   0.401   9.848  11.767 -1.0205 -0.7247 -0.6612
37523SOL    HW117126   0.395   9.754  11.749 -0.8822 -0.6246 -1.2768
37523SOL    HW217127   0.481   9.876  11.722 -1.4200 -0.1917 -1.0534
37524SOL     OW17128   4.154   3.463  10.536 -0.3948 -0.0721 -0.6023
37524SOL    HW117129   4.152   3.472  10.632 -0.4342  1.3174 -0.7153
37524SOL    HW217130   4.246   3.449  10.515 -0.7339 -4.1252 -0.1178
37525SOL     OW17131   6.351   3.981   7.839  0.1767  0.0446 -1.1325
37525SOL    HW117132   6.280   3.917   7.831  0.2316  0.1001 -2.2195
37525SOL    HW217133   6.424   3.942   7.791  0.7748  0.1509 -0.3253
37526SOL     OW17134   3.163   9.829  11.300 -0.2338  0.4217 -0.2455
37526SOL    HW117135   3.236   9.855  11.356 -0.2273  1.4920 -0.7247
37526SOL    HW217136   3.204   9.801  11.218 -0.2566 -0.9155  0.1805
37527SOL     OW17137   7.347   3.623   2.842 -0.0755 -0.4579  0.2457
37527SOL    HW117138   7.356   3.718   2.842  0.9870 -0.5380  1.2614
37527SOL    HW217139   7.370   3.597   2.931  2.1446 -1.8594 -0.6655
37528SOL     OW17140   8.773   5.254   1.534 -0.1300 -0.0440  0.5114
37528SOL    HW117141   8.720   5.203   1.473  1.6184 -1.1270 -0.1692
37528SOL    HW217142   8.841   5.193   1.564 -0.7923  0.4707  3.4486
37529SOL     OW17143   4.323   4.906   5.485  0.1425 -0.0416 -0.2338
37529SOL    HW117144   4.357   4.847   5.418 -0.6516  1.0378 -1.6567
37529SOL    HW217145   4.288   4.980   5.436 -0.1490  0.9715  1.4149
37530SOL     OW17146   0.141  10.806   6.865 -0.1021 -0.1664 -0.1685
37530SOL    HW117147   0.119  10.850   6.947 -0.2610  0.0732 -0.3373
37530SOL    HW217148   0.221  10.758   6.884 -0.2416 -0.2624  0.1797
37531SOL     OW17149  10.535   4.401   6.101 -0.5405  0.4778 -0.5241
37531SOL    HW117150  10.612   4.403   6.157  0.4023  1.6276 -1.7870
37531SOL    HW217151  10.494   4.486   6.114 -0.6014  0.5531 -1.1691
37532SOL     OW17152  11.528   2.450  11.073  0.2137 -0.4494 -0.6918
37532SOL    HW117153  11.594   2.507  11.034  0.5297 -0.5826 -0.3611
37532SOL    HW217154  11.463   2.437  11.004 -1.5902  2.9581  0.1369
37533SOL     OW17155   0.139   6.974   5.701 -0.3868  0.2394 -0.1876
37533SOL    HW117156   0.155   6.883   5.727  0.6825  0.3856 -0.2885
37533SOL    HW217157   0.221   7.019   5.720  0.5339  0.3811 -3.7808
37534SOL     OW17158   7.194   8.763   4.550  0.2567  0.1435  0.6121
37534SOL    HW117159   7.103   8.793   4.552  0.5302  1.0040  2.0862
37534SOL    HW217160   7.197   8.690   4.612  0.7542  0.7847  1.3680
37535SOL     OW17161   8.605   2.517  11.259 -0.1917  0.3268  0.5735
37535SOL    HW117162   8.620   2.550  11.171  2.5946  0.6319  1.0681
37535SOL    HW217163   8.645   2.583  11.317  2.2740 -1.9762  1.7556
37536SOL     OW17164   0.076   4.337   1.396  0.0268  0.5088  0.3176
37536SOL    HW117165   0.091   4.252   1.354  2.5457  0.0419  1.9156
37536SOL    HW217166  -0.017   4.354   1.382 -0.0263 -1.2517 -2.2709
37537SOL     OW17167  11.255   0.379   0.250 -0.5574  0.1203 -0.0080
37537SOL    HW117168  11.209   0.304   0.288 -0.7036  0.5924  0.7599
37537SOL    HW217169  11.318   0.405   0.317 -2.7966  2.8017  1.2506
37538SOL     OW17170  11.896   8.509   9.956 -0.3205  0.1224 -0.3751
37538SOL    HW117171  11.988   8.531   9.939 -0.3049  1.3727  1.1991
37538SOL    HW217172  11.847   8.564   9.895 -0.0738 -0.3809 -1.0568
37539SOL     OW17173   7.223   8.812   6.017  0.2396  0.0768 -0.7060
37539SOL    HW117174   7.170   8.810   5.937 -0.3462 -0.2517 -0.3216
37539SOL    HW217175   7.178   8.753   6.077  2.0392 -1.6697 -0.9712
37540SOL     OW17176   1.812  11.971   9.911 -0.3327 -0.0598 -0.2674
37540SOL    HW117177   1.770  11.946   9.993 -0.2857  0.0522 -0.2087
37540SOL    HW217178   1.858  12.052   9.931  0.1290 -0.3218 -0.2623
37541SOL     OW17179   2.695   4.873   4.384 -0.0257 -0.1914  0.0953
37541SOL    HW117180   2.788   4.849   4.381 -0.1652 -0.7676  0.2574
37541SOL    HW217181   2.661   4.829   4.462 -0.2524  0.7003  0.5124
37542SOL     OW17182   5.723   5.020   2.099  0.5182 -1.3451 -0.4882
37542SOL    HW117183   5.735   5.109   2.134 -0.1538  0.1795 -3.7232
37542SOL    HW217184   5.781   4.966   2.152  1.6945  1.2007  1.0344
37543SOL     OW17185   6.460   0.104  10.303 -0.1384 -0.1921  0.5394
37543SOL    HW117186   6.543   0.142  10.331  0.1275 -1.3588  1.3952
37543SOL    HW217187   6.485   0.037  10.239 -0.4243 -0.4463  0.6931
37544SOL     OW17188  10.779   2.295   5.246  0.9766 -0.1276 -0.4520
37544SOL    HW117189  10.837   2.335   5.181  2.5928 -0.7869  0.5377
37544SOL    HW217190  10.726   2.233   5.196  0.6383  0.9573 -1.4795
37545SOL     OW17191   2.176   1.314  10.965 -0.3190  0.7767  0.0580
37545SOL    HW117192   2.082   1.329  10.967 -0.0086  3.0336  0.7547
37545SOL    HW217193   2.211   1.371  11.034  1.5992  0.2691 -0.4272
37546SOL     OW17194  12.002   0.934   4.375  0.4661 -0.4022 -0.0680
37546SOL    HW117195  11.978   1.021   4.341 -0.6293 -0.1871  1.1743
37546SOL    HW217196  11.956   0.873   4.317 -2.6419 -0.0111  1.7524
37547SOL     OW17197   8.627   1.199  11.289 -0.0359  0.0323  0.2033
37547SOL    HW117198   8.705   1.186  11.236  0.3815  0.9737  0.5662
37547SOL    HW217199   8.601   1.111  11.316  0.2558 -0.3821 -0.8157
37548SOL     OW17200   4.538   7.932  10.828  0.2312  0.0164 -0.4997
37548SOL    HW117201   4.487   7.943  10.908  0.9553  0.0423 -0.0437
37548SOL    HW217202   4.609   7.995  10.835  0.9685 -0.7872 -0.6225
37549SOL     OW17203   8.913   5.097   4.056  0.1303  0.5963  0.1818
37549SOL    HW117204   8.948   5.135   3.975  2.2681 -0.6543  0.4399
37549SOL    HW217205   8.825   5.068   4.034  0.9317 -0.3990 -1.9491
37550SOL     OW17206   3.647   7.872   6.422 -0.1848  0.1699  0.0262
37550SOL    HW117207   3.597   7.811   6.367  2.8637 -0.7048 -2.0102
37550SOL    HW217208   3.675   7.819   6.497 -3.6541  1.1616  2.3063
37551SOL     OW17209   5.516  11.642   5.600 -0.4800 -0.0924  0.5479
37551SOL    HW117210   5.567  11.706   5.552 -0.9372  0.6105  0.9761
37551SOL    HW217211   5.476  11.587   5.533  2.0646 -1.6962  0.2036
37552SOL     OW17212  11.383   7.895  12.031 -0.5635  0.4393  0.4166
37552SOL    HW117213  11.372   7.988  12.015  0.3518  0.4119 -0.4546
37552SOL    HW217214  11.465   7.888  12.079 -1.3532  0.1851  1.7782
37553SOL     OW17215   8.052   5.696   4.137 -0.1471  0.1549 -0.1047
37553SOL    HW117216   8.105   5.618   4.151  0.2143  0.0551 -1.7881
37553SOL    HW217217   8.102   5.749   4.074 -1.3427  0.7499 -0.5981
37554SOL     OW17218   9.637  11.201  12.097  0.2971  0.5054  0.5268
37554SOL    HW117219   9.691  11.192  12.019 -0.1555 -1.0304  0.3554
37554SOL    HW217220   9.548  11.210  12.064  0.3596  3.0641  0.8053
37555SOL     OW17221   0.255   8.245   2.144 -0.1278  0.1420 -0.2510
37555SOL    HW117222   0.231   8.260   2.053 -0.6567  1.5321  0.1024
37555SOL    HW217223   0.344   8.209   2.140  0.9286  2.6842 -1.2259
37556SOL     OW17224   9.671   8.188   8.881 -0.5378  0.4831 -0.2193
37556SOL    HW117225   9.675   8.115   8.943 -0.4469  0.7889  0.1334
37556SOL    HW217226   9.638   8.262   8.932  2.1632  1.5011  0.2256
37557SOL     OW17227   9.232   3.345  10.962  0.6036 -0.0367 -0.3671
37557SOL    HW117228   9.139   3.351  10.942  0.2883 -1.9653  0.3116
37557SOL    HW217229   9.276   3.378  10.884 -0.6385 -1.3254 -1.6719
37558SOL     OW17230  11.270   0.736   7.528 -0.3215 -0.3191  0.4570
37558SOL    HW117231  11.360   0.709   7.512 -0.3641 -0.8731  1.1249
37558SOL    HW217232  11.246   0.785   7.449  0.9493  0.8529  0.7604
37559SOL     OW17233   2.521   2.038  11.212  0.3472  0.3709 -0.0041
37559SOL    HW117234   2.489   2.005  11.128  0.6981 -0.1742  0.0724
37559SOL    HW217235   2.521   2.134  11.201 -0.3785  0.3436 -0.3374
37560SOL     OW17236   4.363   5.075   7.041  0.1992  0.0947  0.1413
37560SOL    HW117237   4.430   5.030   6.991 -0.3999 -0.5146 -0.1283
37560SOL    HW217238   4.325   5.007   7.096  0.5600  0.6654  1.1242
37561SOL     OW17239   7.792   9.228  10.567 -0.2914  0.5787  0.5565
37561SOL    HW117240   7.809   9.179  10.486 -1.8963  0.4851  0.2523
37561SOL    HW217241   7.862   9.201  10.626 -1.1728 -2.2080  0.4475
37562SOL     OW17242   6.024   9.869   2.941  0.2391  0.1790 -0.0019
37562SOL    HW117243   6.089   9.881   3.011 -1.0348  0.4259  1.1947
37562SOL    HW217244   5.953   9.928   2.965 -1.7898 -2.2832  0.4957
37563SOL     OW17245   1.580   3.045  10.472 -0.2357 -0.0382  0.0684
37563SOL    HW117246   1.536   3.128  10.455 -0.8001 -0.6832 -1.8438
37563SOL    HW217247   1.641   3.034  10.399 -0.6114 -1.5797 -0.0667
37564SOL     OW17248   3.336   9.381   6.452 -0.0905  0.3365 -0.1056
37564SOL    HW117249   3.414   9.431   6.428 -0.2807  0.3758 -0.6686
37564SOL    HW217250   3.310   9.337   6.371 -0.4026 -0.0200  0.1828
37565SOL     OW17251  10.994   9.253   6.851 -0.1822 -0.3777 -0.0709
37565SOL    HW117252  11.088   9.259   6.833 -0.0246  0.5348  0.9112
37565SOL    HW217253  10.953   9.287   6.772  0.4156  1.5322  0.3689
37566SOL     OW17254   6.639   4.248  11.510 -0.1829  0.2560 -0.3343
37566SOL    HW117255   6.713   4.187  11.513  0.2831  0.7737 -0.9085
37566SOL    HW217256   6.604   4.249  11.599 -0.9758 -1.7789 -0.5816
37567SOL     OW17257   0.140   9.406   3.694 -0.6286  0.1111 -0.1695
37567SOL    HW117258   0.157   9.492   3.656 -0.0266 -0.5277 -1.4247
37567SOL    HW217259   0.045   9.403   3.708 -0.5436  1.3282  0.8280
37568SOL     OW17260   6.404   5.154   0.810 -0.1275 -0.1443 -0.1543
37568SOL    HW117261   6.315   5.172   0.780 -0.3033  0.6903  0.8193
37568SOL    HW217262   6.456   5.226   0.775  0.3809 -1.1797 -1.5937
37569SOL     OW17263   7.007   1.289   2.903  0.5119 -0.4024  0.3788
37569SOL    HW117264   6.965   1.308   2.987  0.0677  1.0644 -0.1416
37569SOL    HW217265   7.089   1.338   2.905  0.7870 -0.8489  0.1926
37570SOL     OW17266   4.693   0.862  11.852  0.0112 -0.5804 -0.1704
37570SOL    HW117267   4.744   0.893  11.928  1.5986  1.0902 -1.8028
37570SOL    HW217268   4.749   0.798  11.810 -0.5623 -0.9881 -0.3218
37571SOL     OW17269   5.423  11.196   4.854 -0.4761  0.0594 -0.1608
37571SOL    HW117270   5.347  11.157   4.811 -0.8988 -1.0065  1.4487
37571SOL    HW217271   5.441  11.138   4.928 -0.6901  2.5139  1.9637
37572SOL     OW17272   2.265  11.108   6.815  0.3431  0.2853  0.3527
37572SOL    HW117273   2.344  11.075   6.857  0.3049 -0.6267 -0.2450
37572SOL    HW217274   2.231  11.033   6.766 -1.2335  0.4894  1.0894
37573SOL     OW17275   8.246   4.401   9.311  0.1443  0.2501  0.4860
37573SOL    HW117276   8.305   4.369   9.378  0.0680 -2.1011 -0.4859
37573SOL    HW217277   8.246   4.333   9.243 -0.4816  2.0884 -1.4826
37574SOL     OW17278   0.205   0.060  10.032  0.7280 -0.4278 -0.1084
37574SOL    HW117279   0.231   0.057   9.940  2.0486 -0.0894  0.2217
37574SOL    HW217280   0.288   0.057  10.080  0.1832  1.2501  1.0299
37575SOL     OW17281   7.743   5.681  12.068 -0.3854 -0.4706  0.3145
37575SOL    HW117282   7.712   5.756  12.118 -1.9064 -0.6291 -0.3147
37575SOL    HW217283   7.776   5.620  12.133  1.4929  0.9532  0.8048
37576SOL     OW17284   3.694   0.838  11.650 -0.2806 -0.2671  0.1565
37576SOL    HW117285   3.734   0.753  11.629  0.0149 -0.0949  0.0079
37576SOL    HW217286   3.759   0.882  11.705  0.8640  1.0038 -2.0711
37577SOL     OW17287   7.806   5.388   9.349  0.7440 -0.1355 -0.0963
37577SOL    HW117288   7.802   5.469   9.400 -0.2568 -0.5909  0.5771
37577SOL    HW217289   7.868   5.407   9.279  2.1865  0.4982  1.2877
37578SOL     OW17290   7.184   6.878   7.400  0.0296 -0.0568  0.0542
37578SOL    HW117291   7.267   6.847   7.435  0.8487  1.3423 -0.5899
37578SOL    HW217292   7.199   6.889   7.306 -1.3487 -1.2273 -0.3334
37579SOL     OW17293   7.109   6.994   9.073 -0.6642  0.1669  0.1470
37579SOL    HW117294   7.021   7.021   9.101 -0.2274  1.2411  0.5349
37579SOL    HW217295   7.135   7.060   9.009 -0.1422 -0.1629  0.0132
37580SOL     OW17296   8.359   3.467   5.120 -0.4465 -0.0313 -0.0104
37580SOL    HW117297   8.419   3.530   5.082 -0.7773  0.5136  0.3552
37580SOL    HW217298   8.344   3.403   5.050  1.2211 -0.6752  0.1713
37581SOL     OW17299   0.575   9.256   2.253 -0.5373  0.5305 -0.2169
37581SOL    HW117300   0.545   9.347   2.248 -0.0671  0.7267  0.4027
37581SOL    HW217301   0.582   9.239   2.346  1.4892  0.5724 -0.3243
37582SOL     OW17302   9.103  10.375   6.867 -0.4208  0.5191  0.4938
37582SOL    HW117303   9.133  10.347   6.780 -1.3031  1.1382 -0.0266
37582SOL    HW217304   9.070  10.464   6.853  1.0055  1.2977  1.8198
37583SOL     OW17305   7.543   8.642   7.895 -0.0162 -0.3766  0.0591
37583SOL    HW117306   7.627   8.603   7.920  1.4816  2.5139 -0.0391
37583SOL    HW217307   7.531   8.714   7.957 -0.5769  1.5033 -2.1111
37584SOL     OW17308   6.804   5.303  12.053 -0.1141  0.3054  0.0760
37584SOL    HW117309   6.756   5.379  12.021 -0.9612  0.6173  1.9880
37584SOL    HW217310   6.763   5.228  12.009  0.8458  0.9091 -1.9512
37585SOL     OW17311   3.426   2.040   4.244  0.5015  0.3427 -0.1777
37585SOL    HW117312   3.358   1.974   4.230  0.1313  0.7406 -0.2545
37585SOL    HW217313   3.419   2.062   4.337  0.9603 -0.0896 -0.0346
37586SOL     OW17314   8.218   1.147   0.851  0.2126 -0.2401  0.0764
37586SOL    HW117315   8.134   1.112   0.819  1.1078 -0.2518 -2.5121
37586SOL    HW217316   8.204   1.241   0.857  0.3652 -0.0763 -1.7062
37587SOL     OW17317   3.402   5.607  10.388  0.2522  0.3226  0.9248
37587SOL    HW117318   3.476   5.663  10.407  1.1097 -0.9719  1.5347
37587SOL    HW217319   3.372   5.636  10.302  1.3054  1.0225  0.7735
37588SOL     OW17320  11.871   9.175  10.150 -0.3126 -0.4439  0.2780
37588SOL    HW117321  11.826   9.260  10.152  0.7146  0.1425 -0.3206
37588SOL    HW217322  11.872   9.151  10.057  1.4395  0.0395  0.1437
37589SOL     OW17323  11.421   2.246   0.053 -0.0319 -0.0636 -0.3976
37589SOL    HW117324  11.360   2.282  -0.011 -0.9276 -2.3053 -0.8752
37589SOL    HW217325  11.369   2.184   0.104  1.3904 -0.5556  0.5256
37590SOL     OW17326   9.603   7.963   1.724 -0.5999 -0.3954  0.4196
37590SOL    HW117327   9.520   8.004   1.750  0.4769  2.4944 -0.3134
37590SOL    HW217328   9.639   7.928   1.805 -1.6432  0.0325  1.0867
37591SOL     OW17329  10.230  10.281   2.529  0.1248  0.0359 -0.2434
37591SOL    HW117330  10.296  10.288   2.597 -0.8112 -0.3593  0.7231
37591SOL    HW217331  10.228  10.368   2.488  1.1560  0.0761 -0.2290
37592SOL     OW17332   4.986  11.512   2.939  0.4271  0.4367  0.6694
37592SOL    HW117333   4.927  11.588   2.942 -0.5695 -0.3051  0.2056
37592SOL    HW217334   4.945  11.448   2.997 -0.4062 -0.8947 -1.3144
37593SOL     OW17335   8.412   6.630   4.658  0.1528  0.0271  0.1749
37593SOL    HW117336   8.501   6.654   4.684  0.4409  0.8894 -1.4666
37593SOL    HW217337   8.385   6.700   4.600 -1.3479 -0.5994  0.0803
37594SOL     OW17338  10.591   6.721   0.758  0.4827 -0.4123  0.2723
37594SOL    HW117339  10.522   6.663   0.791  0.3444 -0.5293 -0.2217
37594SOL    HW217340  10.622   6.680   0.678  0.1841  0.3388 -0.2412
37595SOL     OW17341  10.310   6.097   8.514 -0.0738  0.1808  0.7171
37595SOL    HW117342  10.224   6.106   8.555 -0.4476 -0.2508  0.0489
37595SOL    HW217343  10.353   6.181   8.530 -0.8907  0.6611  0.4690
37596SOL     OW17344   0.644  10.769   1.182  0.4021 -0.0232  0.3397
37596SOL    HW117345   0.698  10.726   1.115 -0.3933 -0.2905 -0.1447
37596SOL    HW217346   0.677  10.734   1.265  0.2245 -1.0696 -0.0102
37597SOL     OW17347  10.487  11.114  10.810 -0.1750 -0.0051 -0.0598
37597SOL    HW117348  10.472  11.030  10.854  1.6769  0.0920  0.8433
37597SOL    HW217349  10.471  11.095  10.717  3.5407 -2.3733 -0.4120
37598SOL     OW17350   5.787   4.512   8.394  0.3578 -0.2101 -0.1863
37598SOL    HW117351   5.708   4.565   8.396 -0.1427 -0.9486 -0.2573
37598SOL    HW217352   5.772   4.448   8.324  0.6801 -0.8691  0.3305
37599SOL     OW17353   2.385   1.370   8.544  0.0961 -0.1588 -0.0481
37599SOL    HW117354   2.419   1.459   8.544 -0.7488  0.1753  0.6701
37599SOL    HW217355   2.298   1.378   8.505 -1.4218 -0.0672  3.0908
37600SOL     OW17356   2.571   2.323   0.801  0.0527 -0.0096 -0.1850
37600SOL    HW117357   2.600   2.233   0.816 -2.9168 -1.0493 -0.0070
37600SOL    HW217358   2.612   2.349   0.718  0.1729 -1.8998 -0.7534
37601SOL     OW17359   1.651   1.422   6.582  0.6770 -0.0984 -0.3806
37601SOL    HW117360   1.681   1.422   6.673 -1.5922  0.8469  0.4318
37601SOL    HW217361   1.699   1.350   6.541  1.5377 -0.7447  1.6210
37602SOL     OW17362   8.792   9.099   7.232  0.2215 -0.1228 -0.5413
37602SOL    HW117363   8.754   9.012   7.247  0.5320 -0.1620  0.0666
37602SOL    HW217364   8.743   9.156   7.292  0.3666  0.0292 -0.5694
37603SOL     OW17365   3.577   5.828  10.429 -1.1793 -0.3278 -0.2499
37603SOL    HW117366   3.607   5.826  10.520 -3.1948 -0.9133  0.4639
37603SOL    HW217367   3.592   5.918  10.401  1.0813 -0.5618  0.0430
37604SOL     OW17368   2.022  12.063   8.007  0.3246 -0.0509 -0.7992
37604SOL    HW117369   1.985  12.049   8.094  1.1539 -0.3705 -0.4940
37604SOL    HW217370   2.095  12.124   8.021  1.2908 -1.1133 -1.0659
37605SOL     OW17371  10.241  10.724   3.029 -0.3721 -0.1473  0.9652
37605SOL    HW117372  10.305  10.773   2.977 -0.0596 -0.1393  1.3484
37605SOL    HW217373  10.166  10.713   2.971 -0.5785  1.0756  0.9669
37606SOL     OW17374   5.130  10.806   3.646 -0.3660 -0.2264 -0.7456
37606SOL    HW117375   5.185  10.873   3.685  2.8469 -3.2412  0.3698
37606SOL    HW217376   5.148  10.812   3.552  1.6067 -0.8561 -0.4393
37607SOL     OW17377   0.546   2.036   9.122  0.2927  0.2108  0.3317
37607SOL    HW117378   0.455   2.048   9.093  0.8363  2.5752 -0.6550
37607SOL    HW217379   0.595   2.104   9.075  2.5006 -0.6601  1.2420
37608SOL     OW17380   4.779   8.658   4.091  0.2415 -0.0444 -0.2544
37608SOL    HW117381   4.864   8.618   4.070  0.6779  0.6879  0.0871
37608SOL    HW217382   4.720   8.584   4.100  0.8206 -0.5638 -0.6026
37609SOL     OW17383   0.679   2.079   8.514 -0.0271 -0.2312  0.7914
37609SOL    HW117384   0.729   2.005   8.547  1.6928 -0.5150 -2.1100
37609SOL    HW217385   0.632   2.044   8.439 -0.7279  1.1880  0.5386
37610SOL     OW17386  10.064   3.220   1.791  0.3216  0.5373 -0.1677
37610SOL    HW117387   9.997   3.157   1.816 -0.5606  1.7316  0.6315
37610SOL    HW217388  10.146   3.172   1.795 -0.2350 -0.3505  1.2319
37611SOL     OW17389   2.281   0.267  12.028  1.0407  0.2055 -0.0575
37611SOL    HW117390   2.211   0.239  11.968  0.5216  0.1601  0.5605
37611SOL    HW217391   2.255   0.232  12.113  0.9851  1.5268  0.5021
37612SOL     OW17392   7.360   3.602   3.103  0.3380 -0.1335  0.0237
37612SOL    HW117393   7.439   3.649   3.129  0.1871 -0.9573  2.2023
37612SOL    HW217394   7.289   3.649   3.146 -0.0638 -0.9173  0.2296
37613SOL     OW17395   5.059   3.916   0.412 -0.0412 -0.1850 -0.5064
37613SOL    HW117396   5.069   3.835   0.463  1.7272 -0.0053 -0.5129
37613SOL    HW217397   5.040   3.983   0.477 -0.4649 -0.4205 -0.3854
37614SOL     OW17398   7.541   4.750   3.844  0.1523  0.0438  0.3323
37614SOL    HW117399   7.587   4.675   3.882  0.6333 -0.0992 -0.5038
37614SOL    HW217400   7.448   4.727   3.853  0.2343  0.1959  1.7451
37615SOL     OW17401   1.072  10.937   0.444 -0.5183 -0.0029 -0.2619
37615SOL    HW117402   1.074  10.841   0.443 -0.3794  0.0015 -0.5844
37615SOL    HW217403   0.984  10.959   0.474 -0.1983 -0.2320  0.8821
37616SOL     OW17404   2.908   1.491   5.019 -0.6590  0.0017  0.0932
37616SOL    HW117405   2.949   1.505   5.104 -1.2869  0.5751  0.3113
37616SOL    HW217406   2.889   1.398   5.016  2.0982 -0.6285 -0.6901
37617SOL     OW17407   4.513  10.785   9.084  0.5686  0.0785 -0.2866
37617SOL    HW117408   4.463  10.808   9.006 -1.4781 -3.4855 -0.2138
37617SOL    HW217409   4.597  10.755   9.051 -0.6533 -2.4449 -1.3885
37618SOL     OW17410   7.284   7.054   8.294  0.4998  0.1945 -0.6452
37618SOL    HW117411   7.242   7.130   8.253 -0.7670  1.6935  2.9622
37618SOL    HW217412   7.371   7.086   8.320 -0.4821  0.9950  1.9830
37619SOL     OW17413  11.771   6.289   2.924  0.0771  0.0768 -1.3017
37619SOL    HW117414  11.784   6.270   3.017 -0.7166  2.9121 -0.4989
37619SOL    HW217415  11.683   6.255   2.905  0.8987 -2.0167 -1.5223
37620SOL     OW17416   9.012   8.667  10.536 -0.1950  0.0103 -0.0027
37620SOL    HW117417   9.043   8.706  10.455 -1.3105  0.2173 -0.3458
37620SOL    HW217418   8.917   8.656  10.523 -0.0609 -2.0455  0.3905
37621SOL     OW17419  11.195   9.247  11.217  0.1140  0.1395  0.9581
37621SOL    HW117420  11.204   9.326  11.165 -0.9907  1.1904  2.2859
37621SOL    HW217421  11.136   9.191  11.166  0.2042  0.5305  0.4161
37622SOL     OW17422   8.568   1.007   2.290 -0.0612  0.2167 -0.2088
37622SOL    HW117423   8.546   1.095   2.320 -1.7685 -0.8046  1.8384
37622SOL    HW217424   8.615   0.968   2.364 -1.0453 -1.2091 -0.2981
37623SOL     OW17425   7.296   1.444   9.600 -0.0607  0.1887 -0.1040
37623SOL    HW117426   7.343   1.518   9.561 -1.2733  1.4544  0.7630
37623SOL    HW217427   7.207   1.450   9.564 -0.6064  0.1021  1.1792
37624SOL     OW17428  11.051  10.703  11.630  0.5588  0.0981  0.6166
37624SOL    HW117429  11.081  10.750  11.552 -0.9274  0.1284  0.0451
37624SOL    HW217430  10.999  10.767  11.678  0.3675 -0.3163  0.9662
37625SOL     OW17431  10.375   4.525   0.878 -0.2481  0.7255 -0.3451
37625SOL    HW117432  10.290   4.541   0.920  1.2567  0.3113  3.1969
37625SOL    HW217433  10.358   4.454   0.816 -2.6459  1.3544 -0.5141
37626SOL     OW17434   7.812   4.604   1.047 -0.3611  0.0307 -0.4472
37626SOL    HW117435   7.863   4.536   1.003  3.2712  3.0538 -1.4104
37626SOL    HW217436   7.817   4.679   0.988 -0.6901  2.3420  2.2898
37627SOL     OW17437   6.931   1.663   8.451  0.2242  0.5763  1.2245
37627SOL    HW117438   6.844   1.626   8.467 -0.2507  1.7554  1.4774
37627SOL    HW217439   6.917   1.757   8.448  0.9287  0.7163 -2.1562
37628SOL     OW17440   5.344   3.396   8.562  0.3880 -0.3942 -0.6014
37628SOL    HW117441   5.317   3.388   8.471  1.7061 -1.5189 -0.9329
37628SOL    HW217442   5.433   3.432   8.558  0.9944 -1.7363  0.1432
37629SOL     OW17443  11.270   2.920   1.394 -0.3596 -0.3923  0.2870
37629SOL    HW117444  11.238   2.830   1.394 -0.5567 -0.3368  1.2731
37629SOL    HW217445  11.275   2.943   1.487 -0.4600  0.6604  0.0413
37630SOL     OW17446   2.529  11.998   6.013  0.8834 -0.6121  0.4017
37630SOL    HW117447   2.573  12.066   5.962 -0.7115 -0.2613 -0.5817
37630SOL    HW217448   2.593  11.928   6.022  1.9109  0.2238 -0.2229
37631SOL     OW17449   0.349   7.805   0.363 -0.2887 -0.1000  0.1336
37631SOL    HW117450   0.326   7.850   0.281 -0.7809 -0.0906  0.2729
37631SOL    HW217451   0.311   7.718   0.354  0.9875 -0.6304 -0.2910
37632SOL     OW17452   9.907  10.525   2.001  0.3466  0.0679 -0.0495
37632SOL    HW117453   9.878  10.473   1.926  1.6173 -1.4439  0.4524
37632SOL    HW217454   9.855  10.605   1.997 -1.8422 -1.3114 -0.7479
37633SOL     OW17455   6.601   9.605   7.545  0.3655  0.6129  0.3090
37633SOL    HW117456   6.580   9.607   7.452  0.6130  0.7474  0.2538
37633SOL    HW217457   6.537   9.545   7.583  1.1629 -0.5946 -0.1780
37634SOL     OW17458   9.434   9.377  10.863 -0.1041  0.1583  0.5950
37634SOL    HW117459   9.407   9.444  10.926  0.4459  0.6133  0.3524
37634SOL    HW217460   9.360   9.317  10.858 -1.4119  1.7947 -0.6336
37635SOL     OW17461   5.663   9.430   7.777 -0.1944 -0.0230  0.0348
37635SOL    HW117462   5.570   9.416   7.791 -0.1666 -1.1595 -0.7081
37635SOL    HW217463   5.695   9.345   7.745  0.6390  0.9453 -1.9187
37636SOL     OW17464   1.682   9.847   4.603  0.5860  0.7958 -0.5800
37636SOL    HW117465   1.730   9.902   4.541 -1.1160  1.2082 -1.5942
37636SOL    HW217466   1.609   9.902   4.631  1.6351  0.8705  2.3731
37637SOL     OW17467  11.359   9.051   8.351 -0.2945 -0.0467 -0.1831
37637SOL    HW117468  11.405   9.109   8.290 -0.5868  0.7024  0.2849
37637SOL    HW217469  11.351   9.103   8.431 -0.2018 -0.8953  0.3910
37638SOL     OW17470   4.815  11.141   1.069  0.2008 -0.7964  0.1538
37638SOL    HW117471   4.824  11.180   1.156  1.9128  1.2887 -0.8890
37638SOL    HW217472   4.904  11.123   1.041 -0.3862 -2.5454 -0.7467
37639SOL     OW17473  11.353   3.758   8.154 -0.4117  0.1780 -0.7004
37639SOL    HW117474  11.267   3.797   8.169  0.2683  1.5194 -0.1160
37639SOL    HW217475  11.394   3.754   8.240  0.1780 -0.3270 -0.9876
37640SOL     OW17476  10.907   6.788   0.472  0.1476 -0.0800 -0.9019
37640SOL    HW117477  10.920   6.703   0.430  0.3872  1.2933 -3.8647
37640SOL    HW217478  10.845   6.833   0.415  2.9983  3.1523 -1.7840
37641SOL     OW17479   4.511  10.816  10.410  0.5078 -0.2187  0.0834
37641SOL    HW117480   4.549  10.814  10.498  0.0272 -1.8286  0.3029
37641SOL    HW217481   4.421  10.787  10.423 -0.2874  1.7420 -0.6713
37642SOL     OW17482   0.991   2.508  10.266 -0.7343  0.2972  0.4664
37642SOL    HW117483   0.943   2.496  10.348 -2.8063  4.2458  0.1218
37642SOL    HW217484   1.042   2.588  10.279  1.1756 -0.5710 -1.1904
37643SOL     OW17485   8.469   8.525   4.823  0.3075 -0.0854  0.0668
37643SOL    HW117486   8.383   8.503   4.859  0.1642 -0.2860 -0.3904
37643SOL    HW217487   8.453   8.539   4.729  1.0772 -1.9259 -0.3847
37644SOL     OW17488   5.608   4.554   5.122 -0.3012 -0.1766  0.4047
37644SOL    HW117489   5.686   4.516   5.083 -0.9475 -0.8717 -0.2578
37644SOL    HW217490   5.581   4.622   5.061  1.4240  2.1644  2.0748
37645SOL     OW17491   6.309   4.114   8.063 -0.0868 -0.3940 -0.8184
37645SOL    HW117492   6.317   4.049   8.133 -0.6150 -1.8517 -2.0548
37645SOL    HW217493   6.326   4.064   7.983  2.4008  1.5989 -1.6733
37646SOL     OW17494  10.915   6.080   8.259  0.7554  0.2723 -0.1423
37646SOL    HW117495  10.867   6.055   8.338  1.3750 -1.1791 -0.1979
37646SOL    HW217496  10.876   6.163   8.233  0.2784  0.5873  1.4711
37647SOL     OW17497   0.540  10.063  11.939 -0.2599 -0.6432 -0.0705
37647SOL    HW117498   0.582  10.035  11.857  0.4051  0.4740 -0.1338
37647SOL    HW217499   0.499  10.147  11.918  2.6859  1.3771  1.4575
37648SOL     OW17500  10.669   6.636   6.039  0.0671 -0.3008  0.3382
37648SOL    HW117501  10.635   6.709   6.089  0.9073  0.3057  0.0518
37648SOL    HW217502  10.633   6.558   6.081 -1.8484  0.2973 -0.1154
37649SOL     OW17503   8.880   8.535   2.968 -0.0461 -0.2976  0.3852
37649SOL    HW117504   8.848   8.555   3.056  0.6258  1.0167  0.3603
37649SOL    HW217505   8.845   8.448   2.949 -1.4133 -0.0022  1.3671
37650SOL     OW17506   2.017   3.275  10.118  0.2206  0.5911  0.0266
37650SOL    HW117507   2.008   3.234  10.032 -0.3856  2.1200 -0.6798
37650SOL    HW217508   2.088   3.227  10.161 -0.9204 -1.6257 -0.4507
37651SOL     OW17509   7.160   5.467   9.820  0.4647  0.1413 -0.0934
37651SOL    HW117510   7.154   5.562   9.811  0.5366  0.1631  0.0913
37651SOL    HW217511   7.094   5.433   9.760 -1.3219  0.3544  1.6519
37652SOL     OW17512  11.169   8.582   0.689 -0.0057 -0.5696  0.1158
37652SOL    HW117513  11.233   8.643   0.727 -0.4551  0.1297 -0.2352
37652SOL    HW217514  11.199   8.496   0.718  1.1981 -0.2724 -0.1764
37653SOL     OW17515   5.475  10.962   9.134  0.6748  0.7004  0.2056
37653SOL    HW117516   5.489  11.026   9.064  3.4416  0.3369  0.3417
37653SOL    HW217517   5.413  11.005   9.194  0.5631  2.2173 -0.9468
37654SOL     OW17518   9.753   6.350  10.586  0.2927 -0.3464  0.4119
37654SOL    HW117519   9.750   6.321  10.495 -0.2709  0.2379  0.2349
37654SOL    HW217520   9.784   6.273  10.635 -2.4967 -1.7399  0.1589
37655SOL     OW17521   5.534   9.117   6.698 -0.0316  0.3914 -0.2137
37655SOL    HW117522   5.468   9.070   6.748  0.2529  0.2581  0.0380
37655SOL    HW217523   5.617   9.090   6.736  0.1944  0.2085 -0.8217
37656SOL     OW17524   1.659   7.843   2.021 -0.1871  0.6330 -0.5457
37656SOL    HW117525   1.638   7.750   2.033  2.9477  0.1027  2.7234
37656SOL    HW217526   1.728   7.844   1.955 -1.2238  0.8897 -1.6652
37657SOL     OW17527   3.671   3.832   7.673 -0.4406  0.2552 -0.1175
37657SOL    HW117528   3.650   3.857   7.583 -2.3753 -0.6966  0.0275
37657SOL    HW217529   3.666   3.914   7.722  2.3864  1.1260 -1.0854
37658SOL     OW17530  11.458   4.860   0.563  0.0204  0.3799 -0.2028
37658SOL    HW117531  11.525   4.875   0.630  1.1810 -0.7210 -1.0677
37658SOL    HW217532  11.430   4.948   0.537 -1.0291  0.8302  2.2224
37659SOL     OW17533   3.435   7.829   1.763 -0.2367  0.6731 -0.2998
37659SOL    HW117534   3.464   7.918   1.743 -1.1356  0.7906 -1.1290
37659SOL    HW217535   3.344   7.838   1.790 -0.4243 -0.0225 -0.6794
37660SOL     OW17536   6.459   0.903   9.602  0.0583 -0.2032 -0.4814
37660SOL    HW117537   6.417   0.834   9.550  0.7847 -0.5056 -0.6960
37660SOL    HW217538   6.425   0.892   9.690  0.6278 -1.2539 -0.3738
37661SOL     OW17539   0.465   8.843   9.683 -0.1421 -0.0341  0.3857
37661SOL    HW117540   0.373   8.839   9.654  0.5844  1.8871 -2.6951
37661SOL    HW217541   0.460   8.850   9.778 -3.1636 -0.1425  0.3413
37662SOL     OW17542  11.901  10.180   4.308  0.6508 -0.4938 -0.1886
37662SOL    HW117543  11.949  10.251   4.351  2.0340 -2.1688  1.1925
37662SOL    HW217544  11.847  10.143   4.378  0.1981 -1.0174 -0.8105
37663SOL     OW17545   9.064   6.270   2.332 -0.0365 -0.4339 -0.2282
37663SOL    HW117546   9.112   6.189   2.313 -0.5552 -0.4683 -1.4872
37663SOL    HW217547   8.983   6.240   2.374  0.2439 -0.4939  0.2713
37664SOL     OW17548   5.356   0.156   2.528  0.0127  0.0062 -0.2551
37664SOL    HW117549   5.276   0.105   2.546 -0.5489  0.3824 -1.5836
37664SOL    HW217550   5.409   0.099   2.472  0.6010 -0.1547  0.4463
37665SOL     OW17551  11.559   3.700  11.013  0.4414 -0.2506 -0.8378
37665SOL    HW117552  11.616   3.720  11.088 -0.8733 -0.5769  0.2906
37665SOL    HW217553  11.501   3.776  11.007  0.4837 -0.2642 -1.4970
37666SOL     OW17554   9.549  11.279   2.257 -0.0402 -0.3711  0.2763
37666SOL    HW117555   9.478  11.328   2.300 -0.2482 -0.9284  0.5759
37666SOL    HW217556   9.621  11.281   2.320 -0.5222 -1.6379  0.8899
37667SOL     OW17557   4.942   9.944   6.486  0.0165  0.8965 -0.0360
37667SOL    HW117558   4.891   9.888   6.428  0.4995  0.8556 -0.4311
37667SOL    HW217559   5.033   9.927   6.462  0.3936 -0.8051  2.2710
37668SOL     OW17560  10.200   6.464  10.878  0.5887 -0.0907 -0.1744
37668SOL    HW117561  10.255   6.538  10.903 -0.4332  0.2471  1.1561
37668SOL    HW217562  10.184   6.477  10.784  0.5605  1.2773 -0.0013
37669SOL     OW17563  10.217  11.874   8.535 -0.2204 -0.3739  0.0176
37669SOL    HW117564  10.198  11.968   8.536  0.7374 -0.1664 -0.2297
37669SOL    HW217565  10.161  11.837   8.603  1.1541  0.7403  1.8332
37670SOL     OW17566   5.975   5.510   9.247  0.1351  0.0984  0.4242
37670SOL    HW117567   5.990   5.561   9.168  0.9871 -0.4178  0.2352
37670SOL    HW217568   6.018   5.560   9.316  0.9346 -0.3212  0.2456
37671SOL     OW17569   5.709   1.459   4.005  0.0108 -0.5564  0.6502
37671SOL    HW117570   5.783   1.457   3.944 -0.7204 -1.5861 -0.2537
37671SOL    HW217571   5.699   1.551   4.028 -0.3709  0.0344 -1.6781
37672SOL     OW17572   6.601   0.882   7.215  0.1195  0.3993 -0.0232
37672SOL    HW117573   6.570   0.943   7.282  0.5866 -0.5815  1.1064
37672SOL    HW217574   6.693   0.867   7.237  0.4091  0.4154 -1.1622
37673SOL     OW17575   8.286   8.748   7.683  0.8705 -0.2101  0.3212
37673SOL    HW117576   8.380   8.729   7.689  0.9768  0.6419  2.1356
37673SOL    HW217577   8.281   8.843   7.673  0.2039 -0.3565 -0.8543
37674SOL     OW17578   9.885   4.434   2.480  0.0051  0.2428 -0.5168
37674SOL    HW117579   9.921   4.346   2.477 -2.2615 -0.7300 -1.2569
37674SOL    HW217580   9.928   4.476   2.555  1.1476 -1.4452 -0.1805
37675SOL     OW17581   2.955   4.711   4.495  0.3556 -0.3385 -0.1636
37675SOL    HW117582   2.895   4.639   4.476 -1.2433  1.0066 -0.4483
37675SOL    HW217583   2.990   4.736   4.410 -0.9880  0.7748 -0.4242
37676SOL     OW17584   1.027   4.231   4.999 -1.2661  0.6363  0.7314
37676SOL    HW117585   1.091   4.177   4.953 -1.3515  0.9013  0.2988
37676SOL    HW217586   1.050   4.221   5.092  0.8791  2.4948  0.5091
37677SOL     OW17587   9.556   5.188   6.886  0.0322 -0.7015  0.3741
37677SOL    HW117588   9.600   5.263   6.927 -0.3514 -0.8691  1.1115
37677SOL    HW217589   9.476   5.225   6.848  0.8479 -0.3679 -1.1065
37678SOL     OW17590   1.689  11.259  12.074 -0.0138  0.4472  0.3790
37678SOL    HW117591   1.757  11.266  12.007 -1.0086  1.2736 -0.5950
37678SOL    HW217592   1.689  11.167  12.099 -1.2810 -0.5089 -2.6380
37679SOL     OW17593   0.550   5.596   3.234 -0.3651 -1.1190 -0.1773
37679SOL    HW117594   0.517   5.679   3.265  0.9392 -0.2143 -1.0825
37679SOL    HW217595   0.483   5.563   3.174 -0.5465 -0.3270 -0.4137
37680SOL     OW17596   7.915  10.927   8.015  0.1139  0.1751 -0.0359
37680SOL    HW117597   7.826  10.930   8.051 -0.0604 -1.5596 -0.2481
37680SOL    HW217598   7.935  10.834   8.008  0.7063  0.4337 -3.0570
37681SOL     OW17599   3.862  12.105   0.394  0.0792 -0.1150  0.4513
37681SOL    HW117600   3.839  12.082   0.304  0.0665 -0.0317  0.4335
37681SOL    HW217601   3.831  12.195   0.405  1.8243  0.6025 -0.0917
37682SOL     OW17602   0.234   7.348   1.574  0.1123  0.0472  0.0617
37682SOL    HW117603   0.165   7.389   1.521  0.6651  2.1595  0.8714
37682SOL    HW217604   0.316   7.376   1.532  0.5108 -1.4739 -0.2089
37683SOL     OW17605   2.131   5.049   8.850  0.0467  0.2244 -0.4538
37683SOL    HW117606   2.124   5.145   8.845  0.8975  0.2282 -2.0073
37683SOL    HW217607   2.225   5.031   8.843 -0.1560 -0.7562 -0.7653
37684SOL     OW17608   1.573   3.923   4.487  0.7777 -0.2817  0.5261
37684SOL    HW117609   1.659   3.885   4.471  1.1774  0.9935 -0.4364
37684SOL    HW217610   1.574   4.007   4.442 -0.9157 -0.1638  0.6299
37685SOL     OW17611   2.686   8.161   7.013  0.7033  0.2245 -0.2081
37685SOL    HW117612   2.655   8.083   6.966 -1.7665  1.2672 -0.4812
37685SOL    HW217613   2.665   8.233   6.954 -2.3738  1.5815  2.2850
37686SOL     OW17614   7.432   1.695  11.662 -0.0582 -0.0951 -0.3862
37686SOL    HW117615   7.415   1.783  11.698  1.5336  1.3364 -2.8522
37686SOL    HW217616   7.527   1.691  11.655 -0.2030 -1.2165 -2.1592
37687SOL     OW17617   3.506   9.209   0.333  0.0852  0.3512 -0.1194
37687SOL    HW117618   3.440   9.151   0.370  0.0797  0.3959 -0.0591
37687SOL    HW217619   3.483   9.216   0.240 -1.1947  1.9701  0.2660
37688SOL     OW17620   8.322   0.342   4.556 -0.4303 -0.4172  0.1719
37688SOL    HW117621   8.366   0.303   4.632  0.7862 -0.9676 -0.7661
37688SOL    HW217622   8.229   0.341   4.578 -0.0681 -0.1314  1.8374
37689SOL     OW17623   1.195   0.610   8.086  0.2407  0.5238 -0.7081
37689SOL    HW117624   1.249   0.569   8.153 -0.9388 -0.2774 -0.2193
37689SOL    HW217625   1.234   0.583   8.003  0.9870  0.5325 -0.3692
37690SOL     OW17626   0.764  11.671   0.414 -0.6767 -0.0735 -0.4572
37690SOL    HW117627   0.790  11.643   0.326  0.7827 -2.2110  0.5584
37690SOL    HW217628   0.836  11.642   0.470 -2.5225 -0.6969  1.7330
37691SOL     OW17629   4.253   3.828   6.896 -0.2999  0.3988  0.0223
37691SOL    HW117630   4.226   3.771   6.968 -0.4115  0.8779  0.3589
37691SOL    HW217631   4.222   3.783   6.817 -0.0807 -0.1824  0.2603
37692SOL     OW17632   6.898   9.573   9.634  0.6189  0.2393 -0.2858
37692SOL    HW117633   6.965   9.638   9.617 -1.0712  1.9655 -0.7021
37692SOL    HW217634   6.893   9.566   9.729  0.2492  1.3772 -0.2120
37693SOL     OW17635   3.286   0.632  11.191  0.1304 -0.0192 -0.1374
37693SOL    HW117636   3.226   0.704  11.209 -0.0266 -0.2563  0.3025
37693SOL    HW217637   3.231   0.553  11.196 -0.0830 -0.0799 -2.3354
37694SOL     OW17638   7.675  10.803  10.122 -0.1786 -0.6770 -0.0050
37694SOL    HW117639   7.759  10.799  10.076 -0.5301  2.0710 -1.0621
37694SOL    HW217640   7.611  10.821  10.054 -1.5215 -1.6608  0.9413
37695SOL     OW17641   8.488   7.190   7.836 -0.4168 -0.1498 -0.7560
37695SOL    HW117642   8.517   7.273   7.874 -0.2616 -0.1908 -0.7822
37695SOL    HW217643   8.558   7.129   7.859 -1.2066 -0.6205  0.5529
37696SOL     OW17644   6.134   9.054   0.574  0.5117  0.6364  0.4354
37696SOL    HW117645   6.184   9.135   0.585  0.1672  0.7571  1.1767
37696SOL    HW217646   6.075   9.072   0.501  1.0874  0.7262 -0.0080
37697SOL     OW17647   1.342   8.279   7.278 -0.2452 -0.0795  0.3929
37697SOL    HW117648   1.262   8.262   7.227 -0.5480 -1.0577  1.1442
37697SOL    HW217649   1.402   8.209   7.253  0.8465  1.2790 -1.0035
37698SOL     OW17650   7.090   4.844   0.307 -0.3103 -0.6645  0.2171
37698SOL    HW117651   7.167   4.887   0.345 -0.8333  0.0476  0.5000
37698SOL    HW217652   7.052   4.910   0.250 -1.3334 -0.6045  0.9384
37699SOL     OW17653   8.168   1.383   8.833  0.2027 -0.1295 -0.0309
37699SOL    HW117654   8.236   1.317   8.823  0.1038 -0.3399  0.6379
37699SOL    HW217655   8.114   1.351   8.906 -0.4317  0.1841 -0.3526
37700SOL     OW17656  11.396   7.184   0.646 -0.0260 -0.1909 -0.4743
37700SOL    HW117657  11.378   7.099   0.606  1.6623 -0.3203 -1.0322
37700SOL    HW217658  11.480   7.173   0.689 -1.3082  0.2451  2.3509
37701SOL     OW17659   6.766   9.502   7.102 -0.0121 -0.1755 -0.1800
37701SOL    HW117660   6.838   9.472   7.047  1.0348  1.6594  0.0963
37701SOL    HW217661   6.795   9.484   7.192  0.0457  0.4356 -0.0738
37702SOL     OW17662   3.976   4.077   8.624 -0.0636  0.0950  0.1668
37702SOL    HW117663   4.013   3.989   8.619 -1.3759 -0.4155 -1.6677
37702SOL    HW217664   4.033   4.131   8.569  1.1316  0.5989  1.8195
37703SOL     OW17665   4.156   0.169   6.598 -0.4579 -0.1614 -0.1687
37703SOL    HW117666   4.169   0.090   6.545 -0.2160 -1.0461  1.1490
37703SOL    HW217667   4.093   0.143   6.665  0.6907  0.2896  1.1573
37704SOL     OW17668  10.069   1.823   5.486 -0.1494 -0.5954 -0.0460
37704SOL    HW117669  10.024   1.824   5.401 -1.2274  2.2343  0.4382
37704SOL    HW217670  10.012   1.771   5.542  0.2586 -1.9773 -0.8621
37705SOL     OW17671   0.190  10.975   2.398  0.1925 -0.0220  0.4182
37705SOL    HW117672   0.104  11.017   2.399  0.5368  0.8215 -1.2863
37705SOL    HW217673   0.205  10.948   2.488 -1.4119  0.7463  0.9446
37706SOL     OW17674   8.090   3.100   9.710  0.0970  0.4069  0.0624
37706SOL    HW117675   8.094   3.057   9.625  0.0606 -0.0713  0.2982
37706SOL    HW217676   8.020   3.054   9.757  0.5932  0.1870  0.6051
37707SOL     OW17677  10.901  12.005   7.580  0.3249  0.0952 -0.2064
37707SOL    HW117678  10.991  12.034   7.599 -0.0652  1.0110  0.3282
37707SOL    HW217679  10.854  12.018   7.663 -0.6190  0.9310 -0.8488
37708SOL     OW17680   8.106   7.809  11.673 -0.3897  0.0220  0.2716
37708SOL    HW117681   8.044   7.759  11.620 -0.9702 -0.0229  0.9729
37708SOL    HW217682   8.178   7.829  11.613 -2.2869  2.4962 -1.4253
37709SOL     OW17683   8.512   9.972   3.996 -0.1248  0.1843  0.0481
37709SOL    HW117684   8.552  10.057   3.979 -0.3381  0.3368  0.2884
37709SOL    HW217685   8.433   9.971   3.942  0.4280 -0.2969 -0.7681
37710SOL     OW17686   1.671  11.934  10.461 -0.5855  0.2792 -0.3823
37710SOL    HW117687   1.669  11.838  10.469 -1.5855  0.4252  1.6104
37710SOL    HW217688   1.579  11.959  10.461 -0.3098  1.3152  0.1458
37711SOL     OW17689   3.881   5.308   9.465  0.8686  0.7375 -0.3500
37711SOL    HW117690   3.904   5.222   9.429 -0.3350 -0.5206  1.7118
37711SOL    HW217691   3.803   5.334   9.417 -0.7474 -0.9443  1.1898
37712SOL     OW17692   0.195   4.287   6.255  0.6358 -0.2274  0.2107
37712SOL    HW117693   0.225   4.318   6.169  0.0588  1.7329  0.6626
37712SOL    HW217694   0.236   4.346   6.318 -0.6786 -0.2390  1.1244
37713SOL     OW17695  12.062   2.132   5.430  0.5197  0.1054 -0.1274
37713SOL    HW117696  12.115   2.092   5.499 -0.3411 -0.3693  0.2828
37713SOL    HW217697  12.124   2.181   5.377  1.1342  0.9309  1.3003
37714SOL     OW17698   9.642   5.556   1.792  0.3624  0.4009  0.4447
37714SOL    HW117699   9.568   5.506   1.829 -1.8286  1.7758 -1.7412
37714SOL    HW217700   9.693   5.491   1.744 -1.1845 -0.1469 -0.5245
37715SOL     OW17701   0.591   1.061   6.742 -0.4460 -0.8491  0.2491
37715SOL    HW117702   0.569   0.974   6.711  1.0027 -1.0538 -0.3018
37715SOL    HW217703   0.685   1.057   6.760 -0.7259  0.0527  2.1123
37716SOL     OW17704   9.535   8.343   3.421 -0.2096 -0.3288  0.0895
37716SOL    HW117705   9.613   8.382   3.381  0.1718 -1.8824 -0.7880
37716SOL    HW217706   9.487   8.306   3.347 -2.8644  2.2746  0.3287
37717SOL     OW17707   3.592  10.193   6.949 -0.0600 -0.4689 -0.8871
37717SOL    HW117708   3.621  10.241   6.872  0.7048 -0.1897 -0.4379
37717SOL    HW217709   3.622  10.245   7.023  0.4480 -1.4221 -0.3898
37718SOL     OW17710   8.224   6.289  11.586 -0.2968 -0.4758 -0.0907
37718SOL    HW117711   8.186   6.205  11.560  0.8113 -0.9584 -0.2158
37718SOL    HW217712   8.197   6.300  11.677 -0.8537 -0.7230 -0.2202
37719SOL     OW17713   4.136   1.611   1.024 -0.2823  0.2148  0.1988
37719SOL    HW117714   4.155   1.684   0.965  1.4604 -1.6287 -1.6614
37719SOL    HW217715   4.181   1.633   1.105  1.0965  0.7748 -0.6867
37720SOL     OW17716  10.464   7.468   2.967  0.2855  0.3305  0.0802
37720SOL    HW117717  10.495   7.557   2.983  0.5803  0.1896  0.2925
37720SOL    HW217718  10.450   7.430   3.054  2.1399 -0.5198  0.0589
37721SOL     OW17719   7.530   6.974  12.051  0.4685 -0.4866 -0.8346
37721SOL    HW117720   7.562   7.046  12.106 -0.2285 -0.7593 -0.0495
37721SOL    HW217721   7.607   6.920  12.035  0.9618  0.3334 -1.2808
37722SOL     OW17722   6.746   8.945   9.032 -0.2512  0.4665  0.0904
37722SOL    HW117723   6.735   8.884   9.105 -0.9288  0.8118  0.2826
37722SOL    HW217724   6.676   9.009   9.043  0.8868  1.7103  0.3104
37723SOL     OW17725  10.687   8.091   3.423  0.1813 -0.2383  0.7734
37723SOL    HW117726  10.759   8.119   3.366 -0.2886 -0.7033 -0.0577
37723SOL    HW217727  10.684   7.996   3.413 -0.6673 -0.2034  0.6603
37724SOL     OW17728   8.875   0.161  11.990 -0.0549  0.4134  0.2869
37724SOL    HW117729   8.845   0.116  11.911 -0.2201  1.1365 -0.0647
37724SOL    HW217730   8.946   0.106  12.023 -0.2914 -0.1355 -0.1070
37725SOL     OW17731   7.851   2.484   8.018  0.3417  0.4355  0.1197
37725SOL    HW117732   7.821   2.533   7.942  0.2208  1.7897  1.0122
37725SOL    HW217733   7.776   2.428   8.042  1.0902 -1.6395 -1.9852
37726SOL     OW17734  10.712   6.887   2.305  0.0525 -0.0930 -0.3058
37726SOL    HW117735  10.802   6.893   2.337  0.2696  0.3505 -0.9839
37726SOL    HW217736  10.659   6.917   2.379  0.4957  0.1553 -0.0829
37727SOL     OW17737   1.702   4.382   2.257  0.2633  0.5558 -0.9087
37727SOL    HW117738   1.771   4.332   2.213 -0.8410 -0.4448 -1.5650
37727SOL    HW217739   1.634   4.394   2.191  0.1896  2.3608 -0.5478
37728SOL     OW17740   6.296   1.769   4.670 -0.4611  0.6552 -0.2743
37728SOL    HW117741   6.264   1.794   4.757  0.6961  1.3007 -0.0105
37728SOL    HW217742   6.219   1.772   4.614 -1.4646 -0.8507  0.9365
37729SOL     OW17743   3.868   2.789   4.454  0.2636  0.6591 -0.1664
37729SOL    HW117744   3.858   2.840   4.534 -1.1104 -1.3382  1.0352
37729SOL    HW217745   3.960   2.760   4.455  0.4987  1.3960  0.1960
37730SOL     OW17746  11.833   1.296   0.689 -0.6796 -0.3395  0.5820
37730SOL    HW117747  11.854   1.203   0.683  2.3242  0.2870 -0.5989
37730SOL    HW217748  11.878   1.325   0.769 -1.4446  0.1366  0.8441
37731SOL     OW17749  11.235   6.600  10.533  0.6664 -0.0233 -0.4200
37731SOL    HW117750  11.219   6.506  10.537 -0.5097  0.1179 -1.2066
37731SOL    HW217751  11.268   6.623  10.620 -2.2866 -0.6110  0.9937
37732SOL     OW17752   6.037   6.388   5.930 -0.0989  0.1920  0.1845
37732SOL    HW117753   6.101   6.409   5.998  1.2443  1.8970 -1.4823
37732SOL    HW217754   6.008   6.300   5.951  1.0092  0.2816  2.3751
37733SOL     OW17755   7.906   6.652   2.437 -0.3750  0.0693 -0.5823
37733SOL    HW117756   7.947   6.722   2.386 -0.8636  1.5609  0.9755
37733SOL    HW217757   7.908   6.576   2.379  0.2349  1.3384 -2.3150
37734SOL     OW17758   9.265   1.414   4.953 -0.4743  0.0231  0.2498
37734SOL    HW117759   9.178   1.454   4.948 -1.4890 -1.9633  1.1501
37734SOL    HW217760   9.325   1.487   4.935 -2.2455  1.7491  0.9040
37735SOL     OW17761   4.930  11.979   9.220 -0.8385 -0.3164 -0.1857
37735SOL    HW117762   4.917  11.939   9.134  0.9171  0.4191 -0.8489
37735SOL    HW217763   4.907  12.071   9.208 -0.7453 -0.2442  0.1637
37736SOL     OW17764   5.955   8.930   3.541 -0.3443 -0.3617  0.7641
37736SOL    HW117765   5.869   8.927   3.500 -0.4908 -0.4733  1.0744
37736SOL    HW217766   5.990   8.842   3.531  0.1460 -0.0674 -0.2232
37737SOL     OW17767   5.116   0.167   7.011  0.0914 -0.1879 -0.0755
37737SOL    HW117768   5.185   0.157   6.945  0.6198  0.4898  0.3521
37737SOL    HW217769   5.082   0.255   6.997 -0.6679 -0.4998 -0.2498
37738SOL     OW17770  11.937   1.797  11.031  0.7748 -0.4007 -0.5321
37738SOL    HW117771  11.918   1.777  10.940  1.1705 -0.9581 -0.4944
37738SOL    HW217772  11.852   1.792  11.075  0.7346 -1.1531 -0.6872
37739SOL     OW17773   3.990   7.221   7.080  0.1219 -0.1542  0.0495
37739SOL    HW117774   3.970   7.303   7.034  0.8037 -0.3991 -0.7073
37739SOL    HW217775   4.009   7.159   7.010  0.1460 -0.8251  0.6399
37740SOL     OW17776   9.492   1.050   3.299 -0.5374  0.0958 -0.3082
37740SOL    HW117777   9.553   0.996   3.249 -0.8166 -0.1569 -0.3727
37740SOL    HW217778   9.542   1.077   3.376 -0.4894 -0.4810 -0.1392
37741SOL     OW17779   1.469   6.350  11.703 -0.3726  0.3846 -0.2844
37741SOL    HW117780   1.491   6.336  11.796 -1.3308  0.0472 -0.1012
37741SOL    HW217781   1.548   6.390  11.666  0.9843 -1.7071  0.1240
37742SOL     OW17782   4.049   1.787   8.429 -0.0765  0.3243 -0.0110
37742SOL    HW117783   4.130   1.766   8.381 -0.1905 -0.0772 -0.0318
37742SOL    HW217784   4.046   1.882   8.429  0.6706  0.3567  0.4431
37743SOL     OW17785   9.986   5.796   7.536  0.1156  0.0866 -0.0766
37743SOL    HW117786  10.081   5.808   7.542  0.2474 -0.8371 -0.1080
37743SOL    HW217787   9.976   5.709   7.497 -0.7445  0.6897 -1.2582
37744SOL     OW17788   6.687   4.378   8.493 -0.6285 -0.0381 -0.1956
37744SOL    HW117789   6.603   4.389   8.538 -1.4789 -1.6714 -1.3008
37744SOL    HW217790   6.713   4.287   8.511  1.5092  0.7289  1.0551
37745SOL     OW17791   7.018   0.993   1.489 -0.4663 -0.3657  0.3856
37745SOL    HW117792   7.085   0.964   1.551 -0.6135 -0.7597  0.3644
37745SOL    HW217793   6.964   1.054   1.540 -0.3059 -0.3230  0.5069
37746SOL     OW17794   1.029   1.706  11.383 -0.0771 -0.5362 -0.1540
37746SOL    HW117795   1.071   1.780  11.428 -0.2698 -0.7599  0.4088
37746SOL    HW217796   0.942   1.701  11.422 -0.4999 -0.3139 -1.0433
37747SOL     OW17797  12.070   2.949   7.598 -0.0151 -0.5290 -0.1965
37747SOL    HW117798  12.044   2.936   7.507 -0.8584  0.0235 -0.0530
37747SOL    HW217799  12.021   2.882   7.646 -0.2568 -0.2609 -0.0608
37748SOL     OW17800   3.071   2.316   6.887  0.5152 -0.0851  0.1438
37748SOL    HW117801   3.127   2.239   6.877 -1.5588 -2.1115  2.6805
37748SOL    HW217802   2.991   2.294   6.840 -0.4814  0.0372  1.7157
37749SOL     OW17803   8.736   9.337   6.357  1.1561  0.6435 -0.0467
37749SOL    HW117804   8.785   9.259   6.383  1.8061  1.1133  0.1321
37749SOL    HW217805   8.754   9.401   6.425  1.1431  1.1683 -0.5312
37750SOL     OW17806   0.421   3.912  10.305 -0.1227  0.3064  0.2489
37750SOL    HW117807   0.498   3.914  10.363  1.2945 -3.0029 -1.2356
37750SOL    HW217808   0.353   3.870  10.357 -0.9200  2.8765  1.4329
37751SOL     OW17809  11.612   3.874   5.756 -0.2205  0.1687  0.6119
37751SOL    HW117810  11.549   3.930   5.802 -1.5756  0.6016 -1.6003
37751SOL    HW217811  11.564   3.794   5.737  0.1496  0.1576 -0.3481
37752SOL     OW17812   6.835   4.523   7.376 -0.4617  0.1123 -0.3229
37752SOL    HW117813   6.787   4.548   7.455  1.1185  0.4038  0.5831
37752SOL    HW217814   6.770   4.527   7.306 -1.8484  0.0500  0.9198
37753SOL     OW17815   3.961  11.233   6.903  0.0343  0.0002  0.0557
37753SOL    HW117816   3.953  11.274   6.989 -0.0780 -0.2305  0.1568
37753SOL    HW217817   3.872  11.202   6.883 -0.0614  0.5623 -0.3984
37754SOL     OW17818   2.782  10.989   8.358  0.0763  0.1624 -0.3095
37754SOL    HW117819   2.691  10.995   8.386 -0.4238 -0.6030 -1.6912
37754SOL    HW217820   2.827  10.950   8.433 -0.6651  0.7941  0.4888
37755SOL     OW17821   9.072   7.410   1.823  0.2717 -0.1622  0.0928
37755SOL    HW117822   9.011   7.453   1.763  1.7171  0.9167 -0.6620
37755SOL    HW217823   9.052   7.448   1.908 -0.9372 -0.7693  0.1140
37756SOL     OW17824   9.873   7.515   1.089  0.0238 -0.0390 -0.2885
37756SOL    HW117825   9.917   7.599   1.094  0.1201 -0.1640  1.8207
37756SOL    HW217826   9.840   7.499   1.177 -0.9168 -1.7343 -0.8812
37757SOL     OW17827  10.904   7.473  11.205  0.0143  0.3524 -0.0309
37757SOL    HW117828  10.816   7.456  11.239 -0.9370 -0.1495 -2.5428
37757SOL    HW217829  10.892   7.481  11.111  2.5734  1.1035 -0.3664
37758SOL     OW17830  10.654   7.244   7.733  0.2580 -0.2536  0.2610
37758SOL    HW117831  10.640   7.311   7.800 -1.1499 -1.4661  1.2538
37758SOL    HW217832  10.568   7.204   7.721  0.2284  0.5247 -3.0238
37759SOL     OW17833   6.069   2.828   6.789 -0.4900  0.6058  0.0206
37759SOL    HW117834   6.056   2.794   6.877 -0.2050  0.6362  0.0725
37759SOL    HW217835   6.057   2.752   6.732 -0.0616  0.4608  0.1232
37760SOL     OW17836   6.021   7.070   2.281  0.2770  0.0064  0.7783
37760SOL    HW117837   5.976   7.154   2.293 -0.0356  0.1070 -0.8610
37760SOL    HW217838   5.962   7.020   2.224  0.3770 -1.4084  1.8744
37761SOL     OW17839   0.701  11.585   7.503 -0.5637  0.0451 -0.0470
37761SOL    HW117840   0.707  11.589   7.598 -1.2975 -0.6210  0.0388
37761SOL    HW217841   0.755  11.658   7.472  2.3778 -1.6117  0.7835
37762SOL     OW17842   2.423   9.038  10.371 -0.3354  0.4519  0.3899
37762SOL    HW117843   2.365   9.076  10.438 -2.4421 -1.0626 -0.4710
37762SOL    HW217844   2.414   9.096  10.296 -2.3740 -0.7861 -0.4085
37763SOL     OW17845   2.971   3.258  11.084  0.1138  0.1532  0.5881
37763SOL    HW117846   3.026   3.331  11.056 -1.2753  1.4078  1.0454
37763SOL    HW217847   2.899   3.257  11.022  0.0455 -0.7657  0.6663
37764SOL     OW17848   2.863   2.516   9.415 -0.1766 -0.0596 -0.0884
37764SOL    HW117849   2.930   2.556   9.472 -0.8135  1.2700 -0.2207
37764SOL    HW217850   2.877   2.557   9.330  0.5517 -1.7920 -0.8535
37765SOL     OW17851   4.763   5.195   7.886 -0.0898 -0.3737  0.3433
37765SOL    HW117852   4.719   5.111   7.879  1.7310 -1.2698 -4.1167
37765SOL    HW217853   4.711   5.254   7.832  0.9444  0.1322 -0.1352
37766SOL     OW17854  10.147   4.755   8.896 -0.3519 -0.0737 -0.3286
37766SOL    HW117855  10.074   4.699   8.924 -0.4833  0.3923  0.2804
37766SOL    HW217856  10.105   4.835   8.864 -0.1640 -0.3160 -1.1916
37767SOL     OW17857  11.208   6.193   8.891  0.0328  0.0496  0.3731
37767SOL    HW117858  11.253   6.112   8.866  1.5302  0.6852  0.8873
37767SOL    HW217859  11.228   6.203   8.984 -0.9039  0.5425  0.5253
37768SOL     OW17860   1.528   8.264   7.516  0.6050  0.2313 -0.3531
37768SOL    HW117861   1.471   8.287   7.442  0.9039  0.5553 -0.4848
37768SOL    HW217862   1.612   8.242   7.477  1.0883  1.4275 -0.0585
37769SOL     OW17863   0.619   3.527   9.099  0.1551 -0.3125 -0.5746
37769SOL    HW117864   0.602   3.548   9.191 -0.9384 -2.0043 -0.3384
37769SOL    HW217865   0.532   3.515   9.061  0.5762  0.8177 -1.9707
37770SOL     OW17866   0.417   5.497   8.430 -0.2687  0.2587  0.6563
37770SOL    HW117867   0.379   5.425   8.481  1.1486 -1.6745 -0.8778
37770SOL    HW217868   0.390   5.481   8.340  0.0714  1.6731  0.2662
37771SOL     OW17869   3.956   8.678   8.774  0.0084  0.5373 -0.2172
37771SOL    HW117870   3.975   8.733   8.851  2.1273  0.1286 -0.3847
37771SOL    HW217871   4.030   8.694   8.716 -0.5898 -0.6558 -1.3326
37772SOL     OW17872   6.968   3.901   1.380  0.0935  0.2451 -0.5352
37772SOL    HW117873   7.059   3.904   1.408  0.4850  1.9145 -1.8482
37772SOL    HW217874   6.971   3.864   1.291 -0.4836  0.4279 -0.6380
37773SOL     OW17875   3.082  12.026   7.390  0.2156  0.2518  0.5951
37773SOL    HW117876   3.077  11.993   7.301 -0.1695 -0.7066  0.9586
37773SOL    HW217877   3.160  12.081   7.391 -0.4320  1.2535 -0.6386
37774SOL     OW17878   1.754  11.065   6.413 -0.0172  0.4689  0.5017
37774SOL    HW117879   1.785  11.140   6.463 -2.1947 -0.0698  2.9013
37774SOL    HW217880   1.672  11.095   6.372  0.4982  0.1670 -0.8186
37775SOL     OW17881   5.420   4.379  11.754  0.3920 -0.1848  0.1190
37775SOL    HW117882   5.476   4.443  11.798  0.6241  0.3281 -0.8890
37775SOL    HW217883   5.397   4.421  11.671 -1.4415 -0.4092  0.4717
37776SOL     OW17884   0.671   6.972   9.780  0.5861  0.2614  0.0086
37776SOL    HW117885   0.582   6.978   9.815  0.6890  0.1182  0.2942
37776SOL    HW217886   0.668   6.899   9.718  0.8321 -0.6276  1.0130
37777SOL     OW17887   7.662   3.496   9.984 -0.4300  0.1292  0.1465
37777SOL    HW117888   7.572   3.464   9.979  0.0032 -1.0683 -0.4235
37777SOL    HW217889   7.676   3.514  10.077 -1.9540  2.5568 -0.0114
37778SOL     OW17890   9.126   2.617  10.010 -0.2005 -0.2126 -0.0813
37778SOL    HW117891   9.132   2.576   9.924  0.4510  0.3813 -0.3309
37778SOL    HW217892   9.191   2.572  10.064 -0.4826 -0.4632  0.0541
37779SOL     OW17893   2.628  11.683  11.337 -0.3057 -0.9732  0.9836
37779SOL    HW117894   2.669  11.766  11.313 -2.6788  0.3974  1.3814
37779SOL    HW217895   2.643  11.674  11.431  0.4867 -1.3426  0.8317
37780SOL     OW17896   5.044  11.630   0.577  0.2904 -0.2186 -0.5018
37780SOL    HW117897   4.978  11.664   0.638 -0.2655 -0.0008 -1.2194
37780SOL    HW217898   5.094  11.567   0.630  1.7790  2.1361  1.0759
37781SOL     OW17899   3.909   3.437   2.243  0.4995  0.0110  0.2782
37781SOL    HW117900   3.920   3.532   2.251  0.8572 -0.1139  1.3885
37781SOL    HW217901   3.965   3.413   2.169  1.3228  0.5139  0.7189
37782SOL     OW17902   2.751   9.809   3.677 -0.5828 -0.4155  0.1698
37782SOL    HW117903   2.665   9.788   3.640 -0.3289  0.5049 -0.9892
37782SOL    HW217904   2.806   9.735   3.652 -0.8954 -0.7476  0.4439
37783SOL     OW17905   8.123   6.469   9.356  0.1446  0.0068  0.8356
37783SOL    HW117906   8.155   6.538   9.414 -2.0260  1.3601  0.5119
37783SOL    HW217907   8.130   6.506   9.268  3.4712 -2.0461  0.0275
37784SOL     OW17908   9.220  10.618  10.246 -0.8850 -0.1624 -0.3685
37784SOL    HW117909   9.259  10.636  10.160  0.7112 -2.6296 -0.2347
37784SOL    HW217910   9.164  10.694  10.262 -0.8559  0.6334 -3.3527
37785SOL     OW17911  11.842   2.582   0.583 -0.5039  0.2647  0.4289
37785SOL    HW117912  11.874   2.498   0.615 -0.5332  0.9753  2.4918
37785SOL    HW217913  11.921   2.636   0.576 -0.6798  0.5515  0.6772
37786SOL     OW17914   9.141   6.972   6.576  0.2064 -0.5788 -0.0995
37786SOL    HW117915   9.158   6.978   6.670 -0.6853  1.4646 -0.0256
37786SOL    HW217916   9.216   7.014   6.535  0.3840 -1.0815 -0.3039
37787SOL     OW17917   8.492   9.891   8.758 -0.3193 -0.3011  0.7118
37787SOL    HW117918   8.410   9.841   8.757 -0.0488 -0.7477 -0.1388
37787SOL    HW217919   8.495   9.933   8.672 -0.3110  0.8063  1.2470
37788SOL     OW17920  11.029  11.299   5.422 -0.0272 -0.2543  0.2104
37788SOL    HW117921  11.030  11.330   5.331  0.1897  0.0280  0.3060
37788SOL    HW217922  10.977  11.364   5.469 -1.4726 -1.2163  0.0160
37789SOL     OW17923   1.972   0.312   0.700 -1.2240 -0.6954  0.0191
37789SOL    HW117924   2.018   0.239   0.658 -0.8830 -0.7658  0.5090
37789SOL    HW217925   1.913   0.345   0.632 -1.0512 -1.1343 -0.3519
37790SOL     OW17926   3.274   0.880   4.720  0.4754  0.5012  0.6569
37790SOL    HW117927   3.226   0.960   4.743  1.3290  1.4021 -0.5876
37790SOL    HW217928   3.327   0.905   4.645 -0.6895 -1.7742 -1.0333
37791SOL     OW17929   3.660   1.984   4.088 -0.6384 -0.8429 -0.1102
37791SOL    HW117930   3.630   1.919   4.024 -0.9757 -1.1720  0.3791
37791SOL    HW217931   3.583   2.040   4.102 -0.5659 -0.7742  0.0127
37792SOL     OW17932   5.585   9.572   0.840 -0.1273 -0.5860  0.2847
37792SOL    HW117933   5.536   9.601   0.917  1.7422 -0.1501  1.4058
37792SOL    HW217934   5.532   9.597   0.765 -1.7186 -0.4500  1.4156
37793SOL     OW17935   5.524   0.520   0.301  0.1984  0.3197  0.2711
37793SOL    HW117936   5.510   0.613   0.313  1.2446  0.2083  3.1947
37793SOL    HW217937   5.455   0.478   0.353  0.3799 -0.5214 -0.1384
37794SOL     OW17938   9.397  10.588   2.881  0.0170 -0.1411  0.2134
37794SOL    HW117939   9.431  10.672   2.914 -1.0539 -0.3882  2.0618
37794SOL    HW217940   9.361  10.609   2.795  0.8991  1.0224  0.1028
37795SOL     OW17941   7.109   2.925   4.605 -0.0333 -0.3612  0.3339
37795SOL    HW117942   7.094   2.979   4.683 -2.0939  0.5619 -0.6265
37795SOL    HW217943   7.139   2.986   4.538 -0.6856 -0.6990 -0.2802
37796SOL     OW17944   2.910  10.557   3.761 -0.2224 -0.3486 -0.2016
37796SOL    HW117945   2.922  10.598   3.675  1.0085 -2.2076 -0.9806
37796SOL    HW217946   2.960  10.613   3.821 -1.3881  1.1758 -0.5851
37797SOL     OW17947  11.915   1.636   2.091 -0.4335  0.1425  0.1702
37797SOL    HW117948  11.937   1.588   2.172  0.0101  1.8414  1.0993
37797SOL    HW217949  11.994   1.628   2.037 -0.5958 -0.6923  0.0405
37798SOL     OW17950   0.110   1.807   3.345  0.1071 -0.3174  0.3242
37798SOL    HW117951   0.193   1.807   3.392  0.0919  0.2366  0.3541
37798SOL    HW217952   0.046   1.839   3.410  0.0347  0.1614  0.0165
37799SOL     OW17953   5.212   9.413  11.436 -0.6550  0.1060 -0.1389
37799SOL    HW117954   5.227   9.473  11.362 -1.1040 -0.7747 -0.9735
37799SOL    HW217955   5.127   9.441  11.472 -0.8500 -0.0003 -0.5069
37800SOL     OW17956   7.393   6.009   9.773 -0.0838 -0.1959  0.6123
37800SOL    HW117957   7.424   6.072   9.838  1.6068 -0.6834  0.3135
37800SOL    HW217958   7.299   6.029   9.763  0.8400  4.4216 -1.7990
37801SOL     OW17959   5.157   5.557   9.736 -0.0718 -0.0912 -0.1087
37801SOL    HW117960   5.241   5.600   9.745 -0.3148  0.9369 -2.1214
37801SOL    HW217961   5.106   5.616   9.680 -1.3348 -1.7505 -0.7945
37802SOL     OW17962   4.721   2.911   5.773  0.4188 -0.1427 -0.3417
37802SOL    HW117963   4.644   2.956   5.740  1.0340 -0.0036 -1.6669
37802SOL    HW217964   4.717   2.922   5.868 -1.8090 -1.1543 -0.2472
37803SOL     OW17965   7.953   7.231   6.605 -0.0512  0.1202 -0.5201
37803SOL    HW117966   8.034   7.187   6.632 -0.6013 -0.1882  0.6444
37803SOL    HW217967   7.941   7.302   6.668  0.3152  1.3944 -1.8209
37804SOL     OW17968   3.370  11.127   5.856 -0.3379  0.1953  0.6045
37804SOL    HW117969   3.409  11.107   5.941  0.2820 -0.2510  0.2253
37804SOL    HW217970   3.443  11.158   5.803 -0.6073 -0.0849  0.0641
37805SOL     OW17971   7.506   5.014   9.420  0.1338 -0.1799 -0.1847
37805SOL    HW117972   7.548   4.991   9.338  0.8929 -0.8680  0.3838
37805SOL    HW217973   7.547   5.097   9.446  2.2678 -1.5445  1.0870
37806SOL     OW17974   2.715   3.598   9.771  0.2603 -0.2312  0.3670
37806SOL    HW117975   2.659   3.643   9.707 -0.8648 -1.7396  0.2382
37806SOL    HW217976   2.763   3.668   9.815 -0.4750  0.9812 -0.7070
37807SOL     OW17977   9.932   9.371  12.063 -0.0449  0.1356 -0.2550
37807SOL    HW117978   9.934   9.346  12.156 -1.4552  2.5224  0.4920
37807SOL    HW217979   9.861   9.319  12.026 -0.0107 -0.2374  0.1900
37808SOL     OW17980  10.253   8.466   4.440  0.0434  0.0386  0.6548
37808SOL    HW117981  10.281   8.434   4.355 -1.4116 -0.3872  0.3066
37808SOL    HW217982  10.334   8.473   4.491  0.8788 -0.1386 -0.6013
37809SOL     OW17983   0.149   0.689   5.351 -0.8748 -0.3584  0.0592
37809SOL    HW117984   0.080   0.623   5.354 -0.0305 -1.2719 -0.0073
37809SOL    HW217985   0.222   0.645   5.307  1.1279 -0.7837  3.4689
37810SOL     OW17986   7.062   0.034   1.103 -0.0550 -0.0831  0.3138
37810SOL    HW117987   7.093   0.076   1.023  3.8879  0.9394  2.1621
37810SOL    HW217988   7.076  -0.059   1.089  0.0987  0.0399 -0.3716
37811SOL     OW17989   3.405   0.027   9.628  0.5032 -0.0339 -0.0528
37811SOL    HW117990   3.440  -0.051   9.671 -2.0080 -0.2199  1.8519
37811SOL    HW217991   3.350  -0.007   9.558 -0.2077  0.0043  0.4735
37812SOL     OW17992   0.167   2.589   0.777  0.0780  0.0464 -0.4881
37812SOL    HW117993   0.230   2.561   0.844 -0.1615 -1.3083 -0.7903
37812SOL    HW217994   0.083   2.555   0.807 -0.5076  1.6571 -0.1978
37813SOL     OW17995  10.818   3.587   9.532 -0.3143  0.2448  0.2930
37813SOL    HW117996  10.893   3.552   9.581 -0.0082  0.9242  0.3170
37813SOL    HW217997  10.817   3.536   9.451  0.9918  1.0885 -0.2969
37814SOL     OW17998   0.537   1.250   4.832 -0.5675 -0.3753 -0.5845
37814SOL    HW117999   0.580   1.275   4.914  0.3074 -0.7961 -0.8976
37814SOL    HW218000   0.470   1.317   4.818 -1.2448 -0.7148  0.8547
37815SOL     OW18001   5.478   1.762  10.348 -0.4595 -0.6418  0.4291
37815SOL    HW118002   5.548   1.748  10.412  0.4943 -0.2523 -0.5034
37815SOL    HW218003   5.438   1.676  10.337  1.8897 -1.6053 -1.2967
37816SOL     OW18004   4.969   6.578   7.866  0.2674  0.8489 -0.1474
37816SOL    HW118005   4.945   6.648   7.926 -0.7769  1.3324 -1.0804
37816SOL    HW218006   5.023   6.518   7.918 -0.3484  1.3958  1.1654
37817SOL     OW18007   5.697   2.685   0.021  0.1139 -0.2899 -0.1100
37817SOL    HW118008   5.673   2.593   0.022 -0.0153 -0.3426 -2.5064
37817SOL    HW218009   5.620   2.729  -0.016  0.7823  0.5560 -0.5187
37818SOL     OW18010   2.592  11.942   5.038 -0.0158  0.5144  0.1944
37818SOL    HW118011   2.537  11.908   5.109  0.4477  1.0292  0.8032
37818SOL    HW218012   2.603  11.868   4.979 -0.9176  0.2517  0.3405
37819SOL     OW18013   0.924   9.056   8.252 -0.5000 -0.6598 -0.3858
37819SOL    HW118014   0.893   9.094   8.170  0.2251  0.5235 -0.1397
37819SOL    HW218015   0.982   8.985   8.226 -0.9464 -0.8534 -0.8731
37820SOL     OW18016  11.777   1.503   1.727  0.5579 -0.0619 -0.0160
37820SOL    HW118017  11.821   1.586   1.744  0.0733 -0.0157  1.0861
37820SOL    HW218018  11.818   1.442   1.790  1.2175 -0.7712 -1.1018
37821SOL     OW18019   2.431   1.239   7.717  0.3855 -0.7199 -0.8803
37821SOL    HW118020   2.476   1.245   7.801 -1.5075 -2.8292  0.3938
37821SOL    HW218021   2.495   1.270   7.653  1.8956  0.9737  1.2999
37822SOL     OW18022  11.349   1.318   9.162 -0.3395 -0.1625  0.1119
37822SOL    HW118023  11.368   1.311   9.068  0.5116  0.3678  0.2293
37822SOL    HW218024  11.413   1.260   9.203 -1.9100 -1.8561  0.2753
37823SOL     OW18025   8.312   6.999   7.929  0.5819  0.7122 -0.4454
37823SOL    HW118026   8.242   7.050   7.969  1.1096  1.6368 -0.6907
37823SOL    HW218027   8.381   7.062   7.909  1.2010 -0.0693 -0.8656
37824SOL     OW18028   5.761  10.768   9.505  0.2636 -0.4141  0.4370
37824SOL    HW118029   5.827  10.752   9.437  0.2387 -0.2588  0.3766
37824SOL    HW218030   5.799  10.838   9.558  0.1877 -0.3887  0.4567
37825SOL     OW18031  10.540   1.918  11.242  0.0330 -0.2289 -0.2236
37825SOL    HW118032  10.605   1.987  11.257 -0.4208  0.0277  0.6573
37825SOL    HW218033  10.508   1.934  11.153  1.0875 -0.2988 -0.6322
37826SOL     OW18034   7.610   6.481   7.758  0.6322 -0.4671 -0.2781
37826SOL    HW118035   7.685   6.478   7.700 -0.0711 -2.2822 -1.1481
37826SOL    HW218036   7.546   6.422   7.719 -0.8079  0.1207  1.0590
37827SOL     OW18037   7.145   7.106   4.983 -0.1716  0.6985 -0.3972
37827SOL    HW118038   7.136   7.200   4.968  0.2532  0.6443 -1.0291
37827SOL    HW218039   7.198   7.075   4.910  2.1097  0.4170  1.2657
37828SOL     OW18040   4.373   3.047   7.950  0.2685  0.1957 -0.0023
37828SOL    HW118041   4.459   3.083   7.972 -0.1870  1.5121 -0.3178
37828SOL    HW218042   4.312   3.092   8.008 -0.2967 -0.1916 -0.2839
37829SOL     OW18043   5.523   5.624   7.066  0.3616 -0.8526 -0.3122
37829SOL    HW118044   5.579   5.688   7.109  0.4555 -0.9899 -0.2281
37829SOL    HW218045   5.554   5.622   6.975  0.6441 -1.0907 -0.2144
37830SOL     OW18046   7.591  11.041   6.597  0.4115 -0.0655  0.0810
37830SOL    HW118047   7.683  11.023   6.578  0.3266 -0.2341 -0.1741
37830SOL    HW218048   7.543  10.992   6.530  0.1957  1.5114 -0.9789
37831SOL     OW18049   2.788  12.057  10.141 -0.4139 -0.5876  0.0615
37831SOL    HW118050   2.725  12.123  10.110 -0.7056  0.0969  2.0075
37831SOL    HW218051   2.852  12.050  10.070 -1.3770  0.4527 -0.9513
37832SOL     OW18052   2.655  11.094   4.223  0.5552 -0.6186  0.4503
37832SOL    HW118053   2.672  11.000   4.212  2.0936 -0.2444 -0.5418
37832SOL    HW218054   2.688  11.113   4.311  1.7189 -0.7019  0.0452
37833SOL     OW18055   9.743   0.140   4.216  0.6829  0.1782 -0.5490
37833SOL    HW118056   9.697   0.216   4.252  2.2064  1.6766 -1.6535
37833SOL    HW218057   9.686   0.109   4.145  0.7498  1.2065 -1.0598
37834SOL     OW18058   6.654   9.941   9.332  0.4651 -0.1944  0.2691
37834SOL    HW118059   6.715   9.872   9.307 -0.0415 -1.0434  1.2972
37834SOL    HW218060   6.659   9.944   9.428  2.4831  3.0310  0.2354
37835SOL     OW18061  10.019   5.463   9.046  0.1381  0.3209  0.2548
37835SOL    HW118062  10.114   5.450   9.056  0.4215  0.7799 -1.4297
37835SOL    HW218063   9.991   5.500   9.130  1.8440  2.1300  0.1302
37836SOL     OW18064   9.748  11.808   0.465  0.0806 -0.3130 -0.2120
37836SOL    HW118065   9.667  11.759   0.449  0.2516 -0.8991  0.6335
37836SOL    HW218066   9.816  11.755   0.423  0.1800 -0.4763  0.1485
37837SOL     OW18067   1.079   8.182   8.828 -0.0754  0.1844  0.4259
37837SOL    HW118068   1.045   8.123   8.897  0.6991 -0.0970  0.5725
37837SOL    HW218069   1.164   8.210   8.861 -0.8619  2.2571  0.8609
37838SOL     OW18070   7.401   9.342   5.696  0.4173 -0.2140  0.3672
37838SOL    HW118071   7.456   9.420   5.703  0.2547 -0.0968  0.3428
37838SOL    HW218072   7.372   9.324   5.786  0.2066 -0.0665  0.3296
37839SOL     OW18073  10.393   2.508   7.023 -0.0417  0.4335  0.2215
37839SOL    HW118074  10.413   2.573   6.956  0.0985  1.8204  1.5778
37839SOL    HW218075  10.353   2.436   6.974  0.3230  1.2700 -1.3884
37840SOL     OW18076   4.209   8.529   6.652  0.3133 -0.2411  0.0672
37840SOL    HW118077   4.293   8.484   6.646  0.5777  0.3828 -1.1730
37840SOL    HW218078   4.232   8.622   6.644 -0.3187  0.0727  1.6061
37841SOL     OW18079   4.364   3.738   6.575  0.3477 -0.8259  0.6162
37841SOL    HW118080   4.273   3.740   6.605  0.1264 -0.1674 -0.0727
37841SOL    HW218081   4.372   3.657   6.525  0.0673 -0.7457  0.4444
37842SOL     OW18082   4.854   3.937   4.694 -0.1491  0.4648  0.5560
37842SOL    HW118083   4.886   3.902   4.611 -1.1491  0.6466  0.0761
37842SOL    HW218084   4.853   3.862   4.754 -2.0486 -0.3362 -0.3951
37843SOL     OW18085   2.190  11.941   9.397 -1.0078  0.0229  0.3914
37843SOL    HW118086   2.146  11.984   9.471 -0.1428  1.4310  0.1386
37843SOL    HW218087   2.270  11.992   9.384 -1.2359 -0.0348 -1.6489
37844SOL     OW18088   1.597   5.618   1.750 -0.1435 -0.2540 -0.0137
37844SOL    HW118089   1.557   5.543   1.706 -0.3779  0.0435 -0.3245
37844SOL    HW218090   1.542   5.692   1.723  0.1226  0.0353  0.2372
37845SOL     OW18091  10.714   1.325   3.144  0.4816  0.0232  0.7614
37845SOL    HW118092  10.662   1.340   3.223  0.1126 -0.5785  0.6361
37845SOL    HW218093  10.684   1.241   3.110  1.5702 -0.3652  0.7104
37846SOL     OW18094   6.159   9.367   5.139  0.2600  0.6173 -0.4159
37846SOL    HW118095   6.220   9.418   5.085  1.1918 -0.0777 -0.0389
37846SOL    HW218096   6.122   9.303   5.079 -3.5546  3.7218 -1.8276
37847SOL     OW18097   2.824   7.715   8.846 -1.0686  0.5247 -0.1827
37847SOL    HW118098   2.803   7.785   8.907 -1.0287 -1.0868  1.8143
37847SOL    HW218099   2.790   7.636   8.888  1.3558 -1.0484 -0.9192
37848SOL     OW18100   6.818   9.162   6.681  0.3077  0.1834 -0.5358
37848SOL    HW118101   6.739   9.146   6.732 -0.6819  0.4747 -1.9024
37848SOL    HW218102   6.801   9.121   6.596  0.7619  1.9793 -1.5556
37849SOL     OW18103   2.087   0.585   2.418  0.1240 -0.1079 -1.0152
37849SOL    HW118104   2.079   0.550   2.329  0.1417 -0.8763 -0.7228
37849SOL    HW218105   2.046   0.519   2.474  0.7356  0.0402 -0.3750
37850SOL     OW18106   5.531  11.893   4.036 -0.1523  0.1590  0.0126
37850SOL    HW118107   5.498  11.936   4.115  0.1230  1.9102 -0.7886
37850SOL    HW218108   5.452  11.868   3.988 -0.3179 -0.2091  0.4711
37851SOL     OW18109   5.503   6.931   5.848 -0.4508  0.5438 -0.1623
37851SOL    HW118110   5.415   6.908   5.819 -0.2723  0.2679 -0.4883
37851SOL    HW218111   5.524   7.013   5.802 -0.3166  0.3084 -0.5224
37852SOL     OW18112   0.886  10.892  11.587 -0.2070  0.2801 -0.5438
37852SOL    HW118113   0.971  10.934  11.571 -1.2716  2.2505 -1.4919
37852SOL    HW218114   0.870  10.904  11.680  0.3023  0.4053 -0.4689
37853SOL     OW18115   6.696   1.457   1.433 -0.3026 -0.5173 -0.0791
37853SOL    HW118116   6.687   1.458   1.337 -0.8141  0.5487 -0.0439
37853SOL    HW218117   6.630   1.520   1.463 -0.1179 -0.8123  0.9778
37854SOL     OW18118   9.281   1.991   1.222 -0.3202 -0.1847 -0.3853
37854SOL    HW118119   9.195   2.031   1.237 -0.2012 -0.2058  0.3798
37854SOL    HW218120   9.292   1.929   1.294  0.4883  0.0731 -0.2771
37855SOL     OW18121   2.260   9.902   3.602  0.5273 -0.3235 -0.3872
37855SOL    HW118122   2.288   9.879   3.513  0.1585  1.0802 -0.8841
37855SOL    HW218123   2.204   9.830   3.629  1.6817 -1.4128 -0.7711
37856SOL     OW18124  10.938   4.399   2.283  0.1824  0.0202  0.2904
37856SOL    HW118125  10.908   4.460   2.215  0.1270  0.1099  0.3949
37856SOL    HW218126  10.935   4.313   2.241 -0.9223 -0.0665  0.5186
37857SOL     OW18127   6.201  10.754   3.492 -0.7314 -0.3053 -0.2107
37857SOL    HW118128   6.194  10.812   3.568 -1.0569  0.1819 -0.6015
37857SOL    HW218129   6.143  10.795   3.427  1.7603  0.9283 -1.7805
37858SOL     OW18130   7.242   4.744  10.053  0.4123 -0.1575 -0.2827
37858SOL    HW118131   7.265   4.755   9.961  0.6108 -1.5970 -0.4171
37858SOL    HW218132   7.327   4.735  10.098  0.3206 -3.9777 -0.5865
37859SOL     OW18133   3.239   2.454   0.371 -0.2710 -0.2878 -0.1816
37859SOL    HW118134   3.263   2.422   0.284  0.7507 -0.3859  0.1208
37859SOL    HW218135   3.274   2.388   0.431 -0.5144  0.0460  0.3309
37860SOL     OW18136   2.186   3.804   1.117 -0.0914 -0.3538  0.1196
37860SOL    HW118137   2.118   3.871   1.124 -0.6127 -0.8666  0.0819
37860SOL    HW218138   2.163   3.755   1.038 -0.8133 -1.7457  1.1424
37861SOL     OW18139  11.918   7.810   7.386  0.9038 -0.1204 -0.1449
37861SOL    HW118140  11.855   7.739   7.374  0.5784 -0.0756  1.1250
37861SOL    HW218141  11.867   7.890   7.369  0.1346  0.0092  2.3763
37862SOL     OW18142   0.656   0.360  10.278 -0.3263  0.4269  0.1634
37862SOL    HW118143   0.700   0.441  10.254 -1.2157  0.8632 -0.0049
37862SOL    HW218144   0.570   0.365  10.236  0.3450 -1.5451 -1.6538
37863SOL     OW18145   6.719   0.575  11.102 -0.0001 -0.4872 -0.6399
37863SOL    HW118146   6.723   0.614  11.190 -0.2487 -0.5809 -0.5860
37863SOL    HW218147   6.807   0.589  11.066 -0.2699  0.7274 -0.8795
37864SOL     OW18148   3.435   4.124   7.375 -0.2848 -0.4684 -0.4847
37864SOL    HW118149   3.458   4.200   7.321  0.3466  0.3015  0.8186
37864SOL    HW218150   3.365   4.081   7.326 -0.7328  1.0099 -1.2338
37865SOL     OW18151   6.211   9.002   7.254  0.0922 -0.5316  0.3182
37865SOL    HW118152   6.177   8.976   7.340  0.2731 -0.7079  0.3386
37865SOL    HW218153   6.146   8.970   7.192 -1.0801  1.3573  0.4891
37866SOL     OW18154  10.798   4.405   1.088  0.5320  0.1255  0.6115
37866SOL    HW118155  10.759   4.477   1.138 -1.3450  1.1044 -2.0227
37866SOL    HW218156  10.794   4.330   1.147 -1.2249  1.2785  2.0771
37867SOL     OW18157   2.059  12.000  11.284  0.3973 -0.2926  0.0125
37867SOL    HW118158   2.129  11.972  11.343 -0.2439 -0.1943  0.8422
37867SOL    HW218159   2.059  12.096  11.290  0.6862 -0.2527 -0.5754
37868SOL     OW18160   8.460   4.652  11.998  0.4693 -0.3009  0.1729
37868SOL    HW118161   8.478   4.734  12.044  0.1573 -0.0046 -0.2287
37868SOL    HW218162   8.369   4.661  11.969  0.7123 -0.4160 -0.6410
37869SOL     OW18163   1.440   3.290  12.097 -0.0277 -0.4435  0.9487
37869SOL    HW118164   1.483   3.353  12.040 -1.4108  0.7010  1.1053
37869SOL    HW218165   1.492   3.210  12.089  0.0574 -0.2096 -1.5881
37870SOL     OW18166   4.229  12.083   7.154 -0.0548  0.0648  0.2096
37870SOL    HW118167   4.146  12.125   7.177 -1.0228 -1.7781  0.3426
37870SOL    HW218168   4.251  12.030   7.231  1.7071  1.1422  0.4973
37871SOL     OW18169   7.674  10.022   4.205  0.3119  0.8475 -0.2528
37871SOL    HW118170   7.679   9.980   4.119  1.2654  0.7559 -0.1579
37871SOL    HW218171   7.759  10.006   4.245 -1.1512 -2.1462  2.1382
37872SOL     OW18172   6.961   3.017   2.129 -0.2786  0.0340 -0.3429
37872SOL    HW118173   7.023   3.082   2.161 -0.0526 -0.3084 -0.0726
37872SOL    HW218174   6.900   3.004   2.202 -0.7256  0.4363 -0.6399
37873SOL     OW18175  10.976   9.552  11.339 -0.8512  0.0264  0.5081
37873SOL    HW118176  10.950   9.463  11.317 -1.5253 -0.2279  2.2180
37873SOL    HW218177  11.032   9.543  11.416  1.1641  0.9145 -0.7343
37874SOL     OW18178   7.485   4.645  10.518  0.4296 -0.5627  0.4115
37874SOL    HW118179   7.452   4.718  10.571 -0.5512  0.0050 -0.9376
37874SOL    HW218180   7.549   4.602  10.575  0.6462  1.0219  1.4282
37875SOL     OW18181   1.256   1.358  10.161  0.3480 -0.2058  0.1776
37875SOL    HW118182   1.179   1.400  10.123 -0.0091 -0.9302  0.0751
37875SOL    HW218183   1.322   1.362  10.092  0.7505  1.3074  0.6116
37876SOL     OW18184   0.085  11.006  10.919 -0.4788  0.0172  0.1751
37876SOL    HW118185   0.006  11.049  10.888  0.3326  2.6150  1.4119
37876SOL    HW218186   0.064  10.913  10.916 -2.8730  0.5167 -1.3212
37877SOL     OW18187  10.725   4.818   5.685 -0.3484 -0.0247  0.1947
37877SOL    HW118188  10.759   4.743   5.637 -0.5590  0.6611 -1.0455
37877SOL    HW218189  10.801   4.873   5.702 -0.6995  1.2908 -2.1890
37878SOL     OW18190   8.554   7.195   8.173  0.0168  0.3224 -0.6781
37878SOL    HW118191   8.609   7.167   8.100 -1.2226  0.7394 -1.8085
37878SOL    HW218192   8.523   7.114   8.213  1.4855  0.0778  0.0411
37879SOL     OW18193   6.718   5.510   7.569  0.1950  0.3304  0.1310
37879SOL    HW118194   6.676   5.597   7.574  0.4440  0.4085  1.2477
37879SOL    HW218195   6.682   5.471   7.490  1.4075  2.1236 -1.4171
37880SOL     OW18196   8.153   7.814   9.328  0.0195 -0.4423  0.1354
37880SOL    HW118197   8.225   7.761   9.295  0.2915 -1.6123  2.4140
37880SOL    HW218198   8.193   7.871   9.394 -0.6608  1.0548 -0.6847
37881SOL     OW18199   0.182   3.147   1.522 -0.0679 -0.6085  0.0469
37881SOL    HW118200   0.238   3.225   1.524  0.3089 -0.8853  0.3463
37881SOL    HW218201   0.217   3.091   1.590 -0.4544 -0.9661 -0.0488
37882SOL     OW18202  10.035   2.381  10.654  0.4189  0.0240 -0.1346
37882SOL    HW118203  10.053   2.426  10.572 -3.0777  0.1466 -0.9828
37882SOL    HW218204   9.972   2.313  10.631  0.1974 -0.6775  2.2807
37883SOL     OW18205   5.251   4.287   8.484 -0.0321  0.4552 -0.0026
37883SOL    HW118206   5.203   4.370   8.483 -1.0416 -0.0782  1.2987
37883SOL    HW218207   5.216   4.239   8.409  0.2561  1.0225 -0.5130
37884SOL     OW18208   6.699   7.504   5.407 -0.2380 -0.2163 -0.4054
37884SOL    HW118209   6.789   7.495   5.374 -0.4190  2.1200 -1.7400
37884SOL    HW218210   6.692   7.595   5.435 -2.3555 -0.1558 -0.9282
37885SOL     OW18211  11.381  11.326   9.625  0.2848  0.1930 -0.2649
37885SOL    HW118212  11.410  11.372   9.704  1.2965  0.6954 -0.9151
37885SOL    HW218213  11.288  11.349   9.618  0.1825  0.1513  0.7654
37886SOL     OW18214  11.500   8.906   4.517  0.1242  0.0126 -0.8256
37886SOL    HW118215  11.594   8.921   4.533 -0.0163 -0.2859  0.3467
37886SOL    HW218216  11.467   8.870   4.599 -1.3508  1.6029 -0.6735
37887SOL     OW18217  10.966   0.013   8.947 -0.0964 -0.8884 -0.3876
37887SOL    HW118218  11.028  -0.059   8.962 -0.6994 -2.1397 -3.2737
37887SOL    HW218219  10.881  -0.024   8.969 -0.0766  0.5341  2.6323
37888SOL     OW18220  12.055   9.705   3.273  0.2760  0.3405 -0.2086
37888SOL    HW118221  12.048   9.650   3.350 -0.1873  1.9971  0.9881
37888SOL    HW218222  11.966   9.707   3.236  0.4786 -0.3796 -0.7601
37889SOL     OW18223   0.818   6.773   1.743 -0.3809 -0.0699  0.3555
37889SOL    HW118224   0.752   6.782   1.811 -1.2264 -1.2997 -0.2609
37889SOL    HW218225   0.869   6.855   1.747 -2.2674  1.1529  0.4953
37890SOL     OW18226   6.941   2.173   1.318 -0.2814 -0.3491 -0.0144
37890SOL    HW118227   7.015   2.226   1.346  0.3607 -1.7176  0.9252
37890SOL    HW218228   6.881   2.175   1.392 -0.6123 -0.3208 -0.2789
37891SOL     OW18229   5.159   5.975   9.863  0.3277 -0.4030 -0.5598
37891SOL    HW118230   5.165   6.070   9.858 -4.8309  0.1363 -1.9632
37891SOL    HW218231   5.159   5.945   9.772  2.6380 -1.9863 -0.1398
37892SOL     OW18232   6.919   8.551  10.235  0.1188  0.2236 -0.3133
37892SOL    HW118233   6.849   8.533  10.297  0.8341 -1.9874 -0.0494
37892SOL    HW218234   6.948   8.639  10.257 -0.5084 -0.0011  1.6521
37893SOL     OW18235   7.651   5.114   2.274  0.4340  0.0735 -0.1939
37893SOL    HW118236   7.607   5.144   2.353  1.4153 -1.5690  1.0428
37893SOL    HW218237   7.580   5.101   2.211 -0.6947 -0.9132  1.1977
37894SOL     OW18238   3.411   3.775  12.052  0.3669  0.4844  0.1439
37894SOL    HW118239   3.417   3.870  12.041 -0.6708  0.3531 -2.1043
37894SOL    HW218240   3.338   3.762  12.112  0.7512  1.0998  0.7563
37895SOL     OW18241  10.562   7.543   3.680  0.4551  0.1730 -0.3162
37895SOL    HW118242  10.498   7.612   3.662  0.9051  0.4925 -0.7262
37895SOL    HW218243  10.535   7.505   3.763  0.4191  1.0898  0.0934
37896SOL     OW18244   9.486   4.803   2.968 -0.4885  0.1697  0.4900
37896SOL    HW118245   9.425   4.847   3.027 -0.7474  0.5501 -0.0408
37896SOL    HW218246   9.561   4.862   2.961  0.1801 -0.5330  1.5379
37897SOL     OW18247   5.505  11.998   9.149 -0.3938  0.4646  0.0187
37897SOL    HW118248   5.524  12.090   9.166 -1.7712  0.8225 -0.2604
37897SOL    HW218249   5.502  11.958   9.235 -0.3770  0.8001  0.1766
37898SOL     OW18250   9.666   8.942   9.909 -0.2082  0.2806  0.3765
37898SOL    HW118251   9.592   8.899   9.865 -0.4898 -0.5032  1.5993
37898SOL    HW218252   9.694   9.009   9.846  0.3905 -1.7706 -1.6920
37899SOL     OW18253  10.289   7.838   9.399  0.4505  0.0974 -0.0413
37899SOL    HW118254  10.194   7.840   9.388  0.3450 -0.2670  0.7261
37899SOL    HW218255  10.318   7.927   9.378  0.2274 -0.3423 -2.5301
37900SOL     OW18256   6.548   9.385  10.925 -0.2788 -0.4336 -0.3677
37900SOL    HW118257   6.627   9.437  10.937  1.2426 -2.1768 -2.1418
37900SOL    HW218258   6.494   9.436  10.865 -0.6488  0.8441  0.9845
37901SOL     OW18259   0.751  11.261   3.143 -0.3781  0.2825  0.6802
37901SOL    HW118260   0.810  11.233   3.074  1.1067 -0.1514  2.0610
37901SOL    HW218261   0.760  11.356   3.145  0.5074  0.2090  1.0212
37902SOL     OW18262   2.102   1.834   6.740  0.1052 -0.1941 -0.0316
37902SOL    HW118263   2.193   1.811   6.722  1.0356 -0.1233  3.7212
37902SOL    HW218264   2.053   1.753   6.726  0.7875 -0.3983 -1.4651
37903SOL     OW18265   8.180   8.042  11.965  0.0556  0.0319 -0.2437
37903SOL    HW118266   8.177   8.043  12.061 -0.5963  0.1592 -0.2618
37903SOL    HW218267   8.266   8.005  11.945  0.0838 -0.2716  0.3888
37904SOL     OW18268  10.388  11.095   6.406 -0.2075 -0.1579  0.1180
37904SOL    HW118269  10.353  11.168   6.457 -0.6974  0.1923 -0.7049
37904SOL    HW218270  10.334  11.021   6.430 -1.1216  0.2389 -0.6592
37905SOL     OW18271   3.597   1.828   4.479 -0.0293 -0.0967  0.1304
37905SOL    HW118272   3.520   1.831   4.537 -1.5001 -1.2648 -1.6402
37905SOL    HW218273   3.602   1.915   4.441 -1.0767 -0.2731 -0.4403
37906SOL     OW18274   9.712   9.009   1.108  0.0365  0.0871  0.6398
37906SOL    HW118275   9.787   9.068   1.102 -0.8574  1.2589  0.6534
37906SOL    HW218276   9.637   9.066   1.123 -1.0978 -0.9297 -0.8843
37907SOL     OW18277   5.662   8.610  10.648  0.5115 -0.2650 -0.1759
37907SOL    HW118278   5.719   8.559  10.590  1.0405 -0.2125  0.2889
37907SOL    HW218279   5.703   8.696  10.653  0.8079 -0.4457  0.7425
37908SOL     OW18280   8.538   6.075   6.382 -0.0871  0.0663 -0.7759
37908SOL    HW118281   8.546   6.028   6.465 -1.1155  0.7281 -0.2732
37908SOL    HW218282   8.491   6.156   6.405  0.3308  0.6414 -1.8662
37909SOL     OW18283   1.245  11.146   7.436  0.2454 -0.7732 -0.7056
37909SOL    HW118284   1.193  11.088   7.379  1.4738 -1.4083 -1.2109
37909SOL    HW218285   1.271  11.218   7.379 -1.4323  0.4319 -0.0318
37910SOL     OW18286   9.692   3.517   1.346 -0.5074  0.8234  0.6999
37910SOL    HW118287   9.763   3.566   1.387  0.6831 -0.1208 -0.1614
37910SOL    HW218288   9.700   3.535   1.253 -0.4625 -0.4485  0.4346
37911SOL     OW18289   8.908   4.714   6.206  0.4269  0.0182  0.1571
37911SOL    HW118290   8.872   4.628   6.183 -1.3421  0.7370  0.0987
37911SOL    HW218291   8.860   4.740   6.284  1.1071  0.8741  0.3007
37912SOL     OW18292   1.825  10.367   8.341  0.5018  0.5110  0.3221
37912SOL    HW118293   1.806  10.433   8.408 -0.3869 -0.3229  0.9131
37912SOL    HW218294   1.840  10.417   8.261 -2.3239  1.3744  0.2312
37913SOL     OW18295   8.088   0.761   6.925 -0.4986 -0.2136  0.1885
37913SOL    HW118296   8.019   0.693   6.926 -1.0141  0.1774  3.6956
37913SOL    HW218297   8.041   0.842   6.908 -1.0224  0.0291  2.4136
37914SOL     OW18298   5.547   2.904  12.052 -0.2538  0.7683 -0.4896
37914SOL    HW118299   5.451   2.906  12.042 -0.2743  0.6820 -0.3120
37914SOL    HW218300   5.570   2.993  12.079 -0.3535  0.6211  0.0939
37915SOL     OW18301  11.668   2.903  10.118  0.0904 -0.0556 -0.7453
37915SOL    HW118302  11.753   2.911  10.163  0.3572 -0.3527 -1.1871
37915SOL    HW218303  11.690   2.903  10.025 -0.3572 -0.5767 -0.8560
37916SOL     OW18304   0.660   6.956   7.571 -0.4581  0.5664 -0.0959
37916SOL    HW118305   0.641   6.973   7.663  1.5283 -1.0382  0.6776
37916SOL    HW218306   0.614   7.026   7.524 -1.2502  1.6229  2.1103
37917SOL     OW18307  10.768   8.373   2.323 -0.5082 -0.2005 -0.0880
37917SOL    HW118308  10.679   8.369   2.358 -0.1236 -1.7221  0.7951
37917SOL    HW218309  10.818   8.419   2.390 -0.0655 -1.8607  0.7587
37918SOL     OW18310   3.017   7.993   8.645  0.3213  0.2969  0.5720
37918SOL    HW118311   2.936   7.943   8.654  0.2821  0.1597 -0.4465
37918SOL    HW218312   3.031   7.999   8.551  1.3013  0.6360  0.7291
37919SOL     OW18313   5.346   2.740  10.165 -0.0410  0.8617 -0.0880
37919SOL    HW118314   5.293   2.731  10.244 -1.5001 -1.2591 -1.2014
37919SOL    HW218315   5.429   2.776  10.196 -1.3568  2.3163  2.0398
37920SOL     OW18316   9.878   8.136  11.973 -0.3544  0.2517 -0.7409
37920SOL    HW118317   9.901   8.225  12.001 -0.2425 -0.0646  0.2045
37920SOL    HW218318   9.961   8.094  11.954 -0.3733  0.1890 -0.6855
37921SOL     OW18319   1.857  11.037   4.334  0.2215  0.1541  0.1934
37921SOL    HW118320   1.852  10.941   4.343 -0.4543  0.1822  0.1975
37921SOL    HW218321   1.767  11.066   4.346  0.0810  0.6316 -1.6730
37922SOL     OW18322   2.125   3.460   9.068 -0.2276 -0.0003  0.1338
37922SOL    HW118323   2.040   3.447   9.027 -0.5291  1.2061  0.3243
37922SOL    HW218324   2.105   3.477   9.160  0.0360  2.1434 -0.1495
37923SOL     OW18325  12.004  11.559   0.033 -0.2365 -0.3444 -0.1214
37923SOL    HW118326  12.047  11.523   0.110  1.1560  0.4455 -0.4924
37923SOL    HW218327  11.940  11.493   0.008  0.7595 -1.5688  0.4677
37924SOL     OW18328  10.322   0.305   6.621  0.3572 -0.3190 -0.4802
37924SOL    HW118329  10.325   0.395   6.591  1.6024 -0.3513 -0.5238
37924SOL    HW218330  10.377   0.304   6.700 -0.6174 -0.8012  0.2107
37925SOL     OW18331   0.913  11.920   9.993 -0.3226  0.5282  0.3842
37925SOL    HW118332   0.849  11.857   9.958  0.0638  0.6484 -0.5764
37925SOL    HW218333   0.997  11.876   9.985 -0.0740  1.0775 -0.0931
37926SOL     OW18334   3.147   4.158   1.500 -0.2795 -0.2580 -0.0866
37926SOL    HW118335   3.071   4.115   1.460 -0.4042  0.8694 -1.1113
37926SOL    HW218336   3.206   4.176   1.427  0.8293 -0.7930  0.6563
37927SOL     OW18337   0.302   4.034   2.818 -0.0290  0.2751  0.4631
37927SOL    HW118338   0.253   4.027   2.899 -1.7898 -1.9810 -0.6878
37927SOL    HW218339   0.377   3.976   2.830  0.5849  1.1577  1.0067
37928SOL     OW18340   8.036   0.269   9.531  0.3594 -0.4675 -0.2220
37928SOL    HW118341   8.033   0.309   9.444  0.9345  0.0972  0.0077
37928SOL    HW218342   7.947   0.237   9.547  0.0330  0.2222 -0.6512
37929SOL     OW18343   6.846   2.961   6.318  0.0594 -0.0753 -0.2517
37929SOL    HW118344   6.766   2.931   6.361 -0.3467 -0.6433 -1.3765
37929SOL    HW218345   6.888   3.018   6.383 -1.2236  0.1931  0.3716
37930SOL     OW18346   2.225   9.471  10.206 -0.1427 -0.0685 -0.8713
37930SOL    HW118347   2.163   9.423  10.151  0.3040 -1.9688  0.1936
37930SOL    HW218348   2.234   9.417  10.284 -0.8936  2.6066  1.1923
37931SOL     OW18349   6.164   4.743   9.799  0.1036  0.3370  0.0160
37931SOL    HW118350   6.092   4.727   9.738 -0.1405 -1.3943  0.7067
37931SOL    HW218351   6.202   4.825   9.769 -1.5177  0.7750 -0.9810
37932SOL     OW18352   5.101   1.491  11.126  0.0955  0.2490 -0.3438
37932SOL    HW118353   5.173   1.513  11.067  0.6052  1.2527  0.6106
37932SOL    HW218354   5.142   1.485  11.213 -1.1036  2.0312  0.4201
37933SOL     OW18355   6.029   4.990   6.637  0.1309  0.1333 -0.4515
37933SOL    HW118356   5.993   4.988   6.726 -1.6898  1.5190 -1.0975
37933SOL    HW218357   5.999   4.909   6.597 -1.6422  0.8783 -0.7062
37934SOL     OW18358   6.962   3.810  10.646 -0.0747  0.9874 -0.6040
37934SOL    HW118359   6.890   3.749  10.662 -0.7280  2.1913  1.3960
37934SOL    HW218360   6.925   3.874  10.585 -0.4672  1.2092 -0.1356
37935SOL     OW18361   5.016   3.347   1.551 -0.4219  0.1973 -0.2107
37935SOL    HW118362   5.107   3.351   1.579  0.5558 -1.7567 -2.7581
37935SOL    HW218363   5.008   3.418   1.487 -0.2414 -0.5494 -1.0742
37936SOL     OW18364   9.519   4.823   2.599  0.4951 -0.1123  0.3832
37936SOL    HW118365   9.579   4.823   2.525  0.6957  2.2408  0.5016
37936SOL    HW218366   9.575   4.815   2.676  0.4930  0.0477  0.4014
37937SOL     OW18367  12.054   4.452   4.105 -0.3695 -0.2148 -0.4202
37937SOL    HW118368  12.066   4.544   4.130 -0.2997  0.0919 -1.5629
37937SOL    HW218369  12.011   4.412   4.181  1.8157  0.1826  1.1171
37938SOL     OW18370  10.438   4.868   2.765  0.1984 -0.1774  0.3895
37938SOL    HW118371  10.416   4.917   2.844 -1.6837  0.9845 -0.7771
37938SOL    HW218372  10.533   4.859   2.768  0.2813  0.8451  2.1907
37939SOL     OW18373   6.851  11.751  11.498 -0.5059 -0.3389 -0.0205
37939SOL    HW118374   6.855  11.737  11.592 -2.2639 -0.4466  0.0607
37939SOL    HW218375   6.815  11.670  11.462 -1.3775  0.2878 -0.6025
37940SOL     OW18376   0.477   9.149   9.632 -0.0071 -0.1215  0.5090
37940SOL    HW118377   0.553   9.191   9.592 -0.2395 -1.1363 -1.0774
37940SOL    HW218378   0.503   9.058   9.643 -1.0676 -0.5615 -0.3777
37941SOL     OW18379   0.068   6.737   8.052  0.1904 -0.3039  0.8020
37941SOL    HW118380   0.060   6.659   8.108 -0.0749 -0.0865  1.0712
37941SOL    HW218381   0.038   6.708   7.966 -0.7752 -0.2638  1.1151
37942SOL     OW18382   3.475  11.621  11.334  0.1479 -0.5050  0.2586
37942SOL    HW118383   3.404  11.564  11.304  1.0573 -0.1573 -3.0176
37942SOL    HW218384   3.454  11.707  11.297  0.3512  0.6121  2.5514
37943SOL     OW18385   1.327   3.357   8.774  0.2239  0.3388 -0.7157
37943SOL    HW118386   1.338   3.432   8.831  0.3629 -0.1197 -0.1279
37943SOL    HW218387   1.283   3.291   8.829 -0.5731  0.2498 -1.4311
37944SOL     OW18388   1.159   4.222   2.992  0.4940  0.2031  0.1036
37944SOL    HW118389   1.104   4.172   2.933 -1.8513  2.2274  0.3851
37944SOL    HW218390   1.220   4.270   2.935 -1.2090  1.5233 -0.6896
37945SOL     OW18391   7.211  11.406  10.318  0.2080 -0.1921  0.4358
37945SOL    HW118392   7.137  11.432  10.373 -0.5499 -0.0422 -0.6197
37945SOL    HW218393   7.171  11.359  10.245  1.3780 -2.6754  1.2823
37946SOL     OW18394   2.769   0.999  11.983 -0.0379  0.0410  0.5430
37946SOL    HW118395   2.728   1.043  11.908 -2.5163  0.9016  2.2659
37946SOL    HW218396   2.801   1.071  12.037  1.0201 -0.5424  0.7008
37947SOL     OW18397   1.554   6.044   2.204 -0.1814 -0.5831  0.6371
37947SOL    HW118398   1.471   6.071   2.242 -1.1591 -1.1697 -0.9775
37947SOL    HW218399   1.613   6.117   2.220 -1.2694  0.2308  1.0013
37948SOL     OW18400   7.719  10.180   8.925  0.1142  0.3380 -0.1277
37948SOL    HW118401   7.775  10.107   8.950 -0.7348 -0.4049 -0.3576
37948SOL    HW218402   7.768  10.226   8.857  0.2874 -0.5252 -0.5943
37949SOL     OW18403   4.261  10.636   0.175  0.0223 -0.3769  0.3048
37949SOL    HW118404   4.253  10.722   0.134  0.3498 -0.1603  0.6918
37949SOL    HW218405   4.328  10.647   0.242  0.3655 -1.0424  0.0828
37950SOL     OW18406   1.134   6.367   3.771 -0.1638 -0.1328  0.5513
37950SOL    HW118407   1.169   6.433   3.711 -1.8234  1.5708  1.3657
37950SOL    HW218408   1.081   6.309   3.715  1.9526 -1.3622 -0.3005
37951SOL     OW18409   1.305   8.676   7.262 -0.0566  0.3009 -0.5480
37951SOL    HW118410   1.311   8.695   7.169  1.0639  0.9469 -0.3623
37951SOL    HW218411   1.228   8.724   7.292 -1.2270 -1.0034 -1.3827
37952SOL     OW18412  11.459  11.702  10.596  0.6811 -0.3265 -0.5363
37952SOL    HW118413  11.484  11.697  10.504 -0.4184  1.1552 -0.9609
37952SOL    HW218414  11.383  11.760  10.597 -0.5646 -1.8781  1.0845
37953SOL     OW18415  11.857   3.530  11.583  0.1206 -0.2262 -0.2499
37953SOL    HW118416  11.776   3.544  11.632  0.8490 -1.9150  1.5616
37953SOL    HW218417  11.836   3.461  11.521 -0.2616  0.5173 -0.9626
37954SOL     OW18418  11.514   2.241   3.237 -0.2925  0.1440 -0.8275
37954SOL    HW118419  11.522   2.330   3.273 -1.2266 -0.1479  0.1470
37954SOL    HW218420  11.544   2.249   3.146  0.1345  1.3389 -0.6034
37955SOL     OW18421  11.483   6.622   1.685 -0.7531 -0.0197 -0.1018
37955SOL    HW118422  11.475   6.649   1.776 -0.2966  1.4222 -0.4726
37955SOL    HW218423  11.575   6.596   1.675  0.8497  5.0926 -1.4222
37956SOL     OW18424   9.743  10.284   4.539 -0.2142  0.0604  0.1933
37956SOL    HW118425   9.701  10.207   4.577  1.6182 -1.0019  0.1824
37956SOL    HW218426   9.798  10.319   4.608  1.7905 -0.8478 -0.8752
37957SOL     OW18427   4.494   3.823   7.093 -0.0475  0.5299  0.1543
37957SOL    HW118428   4.440   3.811   7.015 -2.3621  1.1937  1.5472
37957SOL    HW218429   4.456   3.763   7.158  2.3651 -0.6609  0.6077
37958SOL     OW18430   3.261   0.360  10.503  1.2790 -0.5724 -0.1513
37958SOL    HW118431   3.268   0.265  10.508  0.8766 -0.5633  1.1088
37958SOL    HW218432   3.351   0.391  10.512  1.4806 -0.8376 -1.1582
37959SOL     OW18433  11.679   0.343   2.289 -1.1980  0.1949  0.1043
37959SOL    HW118434  11.714   0.290   2.361  0.5577 -0.4537 -1.1371
37959SOL    HW218435  11.613   0.287   2.249 -1.3350  0.0720  0.4911
37960SOL     OW18436   9.194  10.526   7.768 -0.7143  0.0486  0.5649
37960SOL    HW118437   9.265  10.571   7.723  0.2818  0.0552  2.0622
37960SOL    HW218438   9.146  10.596   7.812  0.6385 -0.2389  2.6226
37961SOL     OW18439   1.938   5.984   4.720  0.2617 -0.3508  0.1824
37961SOL    HW118440   1.941   5.900   4.673 -0.1199  0.1510 -0.7555
37961SOL    HW218441   1.979   5.965   4.805  0.1953 -1.4808 -0.0208
37962SOL     OW18442   0.213   8.308   6.466  0.1827  0.0083 -0.0932
37962SOL    HW118443   0.155   8.327   6.392  0.1291 -0.8205 -0.2739
37962SOL    HW218444   0.285   8.259   6.427  1.4643  1.7558 -0.0224
37963SOL     OW18445  11.610   0.918  10.845  0.1767  0.5345  0.0559
37963SOL    HW118446  11.556   0.972  10.787 -1.6740 -0.2643  0.9306
37963SOL    HW218447  11.679   0.883  10.790 -1.3386  0.0339 -1.6075
37964SOL     OW18448   9.416   2.985  11.194 -0.1360 -0.4824  0.0862
37964SOL    HW118449   9.367   3.001  11.113  0.7655  0.2580 -0.3336
37964SOL    HW218450   9.453   3.070  11.216 -0.1449 -0.7392  1.1421
37965SOL     OW18451  10.882  11.646   9.456 -0.0538 -0.2760  0.1526
37965SOL    HW118452  10.865  11.739   9.442 -0.1789 -0.1785  0.9054
37965SOL    HW218453  10.818  11.601   9.400  0.3880  0.0780 -0.6528
37966SOL     OW18454   1.620   9.636   5.688  0.3368  0.5480 -0.3398
37966SOL    HW118455   1.593   9.617   5.778  0.3232 -0.6274 -0.5816
37966SOL    HW218456   1.556   9.700   5.657 -0.2071  0.2660  0.1835
37967SOL     OW18457   9.883   1.554   8.582 -0.1145  0.4397  0.5291
37967SOL    HW118458   9.860   1.615   8.652 -0.8303  0.0263  0.6643
37967SOL    HW218459   9.882   1.468   8.624  0.1432  0.2585  0.1701
37968SOL     OW18460   7.845   1.249  10.263 -0.2811  0.2229 -0.4000
37968SOL    HW118461   7.930   1.207  10.274 -0.4494 -0.2149 -0.7540
37968SOL    HW218462   7.818   1.271  10.352  0.2052  0.3722 -0.2859
37969SOL     OW18463  10.015   3.088   5.087 -0.1021  0.4709  0.4196
37969SOL    HW118464  10.103   3.116   5.063 -0.1878 -0.2493 -0.7914
37969SOL    HW218465   9.979   3.161   5.138  0.7909  1.2281 -0.0266
37970SOL     OW18466   0.219   6.580  11.285  0.0048 -0.2346  0.1351
37970SOL    HW118467   0.249   6.638  11.215 -1.0164 -0.1281 -0.2289
37970SOL    HW218468   0.298   6.557  11.333  0.3088  2.3493  0.9975
37971SOL     OW18469   4.266  11.668   4.438  0.2744  0.2595 -0.4896
37971SOL    HW118470   4.353  11.688   4.472 -0.1596  1.3048  0.0318
37971SOL    HW218471   4.235  11.749   4.398 -0.0380 -0.3980 -1.6414
37972SOL     OW18472   1.923   4.135   3.382  0.1846  0.4822  0.4609
37972SOL    HW118473   2.002   4.162   3.336  1.8121  2.2451  3.8797
37972SOL    HW218474   1.945   4.049   3.419 -1.3390 -1.2244 -2.2550
37973SOL     OW18475   1.278   7.636   4.503  0.1579 -0.4214 -0.0648
37973SOL    HW118476   1.200   7.680   4.539 -0.6228 -0.7749 -1.2863
37973SOL    HW218477   1.325   7.605   4.581 -1.1508 -0.5974  0.6903
37974SOL     OW18478   2.477   1.528   7.453  0.0505  0.1638 -0.1021
37974SOL    HW118479   2.397   1.478   7.464  0.3998 -0.6054 -0.9467
37974SOL    HW218480   2.547   1.468   7.478  0.3905  0.7156  0.2917
37975SOL     OW18481   6.358  11.912   5.405 -0.5369  0.2283  0.1667
37975SOL    HW118482   6.430  11.975   5.398 -1.8885  1.8345  0.2057
37975SOL    HW218483   6.352  11.872   5.318  0.7926 -0.4090  0.3422
37976SOL     OW18484   5.508   1.341  10.137 -0.4637  0.0104  0.7542
37976SOL    HW118485   5.424   1.320  10.095  0.3930 -0.7696 -0.6461
37976SOL    HW218486   5.544   1.257  10.163  0.2787  0.2517  0.5434
37977SOL     OW18487  11.246  10.067   2.647 -0.0091  0.2371 -0.6005
37977SOL    HW118488  11.254  10.103   2.558  1.2763  0.6155 -0.3499
37977SOL    HW218489  11.210  10.139   2.699 -0.5358  0.0910 -0.7521
37978SOL     OW18490  11.911   2.738   7.659 -0.1071 -0.4557 -0.0244
37978SOL    HW118491  11.864   2.671   7.709  0.9251 -1.6292 -0.5742
37978SOL    HW218492  11.953   2.689   7.588  1.5208  0.6168  0.1594
37979SOL     OW18493  12.103  10.765   2.476  0.3523  0.8025 -0.3838
37979SOL    HW118494  12.105  10.778   2.381  1.7856  1.5325 -0.2805
37979SOL    HW218495  12.178  10.709   2.495  0.2980  0.9658  0.3519
37980SOL     OW18496   6.942   4.997   5.272 -0.6827 -0.1500  0.4429
37980SOL    HW118497   6.927   5.089   5.295 -1.0409 -0.5791  2.0543
37980SOL    HW218498   6.857   4.965   5.244 -0.2051  0.4344 -2.0041
37981SOL     OW18499   9.127   3.747   6.226 -0.6950  0.2063  0.1185
37981SOL    HW118500   9.208   3.707   6.193  0.5699  1.3578  1.7183
37981SOL    HW218501   9.063   3.732   6.155  1.0175 -0.2872 -1.4061
37982SOL     OW18502  10.408  11.459   4.121  0.3925 -0.3699 -0.1260
37982SOL    HW118503  10.372  11.372   4.140 -0.6451 -0.0365 -0.4786
37982SOL    HW218504  10.474  11.443   4.053  1.7815 -1.1461  1.3452
37983SOL     OW18505   6.275   1.396   7.567 -0.0798  0.1649  0.8028
37983SOL    HW118506   6.221   1.317   7.570  0.8593 -0.5265  0.1503
37983SOL    HW218507   6.328   1.392   7.647  0.8150 -0.5084  0.1949
37984SOL     OW18508   0.646   1.750  11.759  0.5475 -0.0537 -0.4245
37984SOL    HW118509   0.570   1.808  11.755 -0.3686 -1.2488 -0.7546
37984SOL    HW218510   0.662   1.738  11.853 -1.0447 -1.4988 -0.2949
37985SOL     OW18511   6.498   9.311   6.925  0.1846 -0.5525 -0.0682
37985SOL    HW118512   6.511   9.264   6.842  0.1283  0.6720 -0.8007
37985SOL    HW218513   6.583   9.305   6.969  0.9523  0.7369 -1.2839
37986SOL     OW18514   6.779   6.325   0.695  0.4483  0.3553 -0.0220
37986SOL    HW118515   6.841   6.357   0.760 -1.5812  0.7116  1.8496
37986SOL    HW218516   6.763   6.234   0.718  0.3144  0.2487 -0.5123
37987SOL     OW18517   3.468   7.960   0.041  0.0116 -0.6042  0.1010
37987SOL    HW118518   3.374   7.968   0.027  0.3793  4.6113 -1.4463
37987SOL    HW218519   3.485   8.008   0.122  1.4547  0.2858 -0.6735
37988SOL     OW18520   4.456   3.321   8.332 -0.7822  0.3807  0.3925
37988SOL    HW118521   4.363   3.312   8.350 -1.3827  1.5847 -1.7552
37988SOL    HW218522   4.491   3.232   8.338 -2.0672 -0.0958  1.1205
37989SOL     OW18523   3.363   0.005  11.214  0.7675  0.0084  0.3788
37989SOL    HW118524   3.300   0.074  11.194  0.2485  0.1244  2.1909
37989SOL    HW218525   3.444   0.034  11.172  0.5341  1.6947  0.9985
37990SOL     OW18526  11.392   7.950   2.756  0.2595 -0.7721  0.2653
37990SOL    HW118527  11.300   7.942   2.734  0.5591  1.4492 -2.3608
37990SOL    HW218528  11.433   7.871   2.722 -0.2832 -0.3801 -1.3514
37991SOL     OW18529   3.538   5.105   3.906  0.0254  0.0656 -0.5961
37991SOL    HW118530   3.587   5.140   3.981 -3.7391  0.9648  1.6889
37991SOL    HW218531   3.532   5.178   3.844  0.3674  0.3757 -0.2676
37992SOL     OW18532   9.323   5.024   5.099 -0.0615  0.7906  0.0532
37992SOL    HW118533   9.245   5.006   5.045 -1.6620  1.3813  2.0500
37992SOL    HW218534   9.378   4.946   5.088 -1.2919 -0.0007 -0.8015
37993SOL     OW18535   6.018   5.912   3.533  0.2109  0.8245 -0.2112
37993SOL    HW118536   5.939   5.933   3.581 -0.6713 -0.0154 -1.2438
37993SOL    HW218537   5.996   5.928   3.441  0.0968 -2.4618 -0.8891
37994SOL     OW18538   7.281   2.740   6.383 -0.0084  0.5306  0.6825
37994SOL    HW118539   7.357   2.688   6.410 -1.1706 -1.2502  0.6434
37994SOL    HW218540   7.254   2.703   6.300 -0.5025  1.6329  0.3302
37995SOL     OW18541   3.851  12.050   1.878  0.3146 -0.1074  0.7510
37995SOL    HW118542   3.854  12.054   1.782 -1.5836 -1.3821  0.5765
37995SOL    HW218543   3.937  12.018   1.904  0.6813 -0.2542 -0.5910
37996SOL     OW18544  11.486   7.836   1.077  0.3045  0.1360 -0.5872
37996SOL    HW118545  11.474   7.930   1.092 -0.8965  0.3131 -2.2536
37996SOL    HW218546  11.580   7.826   1.062  0.5369  0.9597  0.2329
37997SOL     OW18547   4.382   4.451   9.533  0.7628  0.8923 -0.3800
37997SOL    HW118548   4.474   4.457   9.558  0.5620  1.2445  0.3265
37997SOL    HW218549   4.347   4.539   9.549  0.2870  0.7419 -0.5592
37998SOL     OW18550   2.582   0.506   1.852  0.4220  0.3830  0.0463
37998SOL    HW118551   2.616   0.513   1.941 -0.7327  1.8996  0.4091
37998SOL    HW218552   2.601   0.591   1.813  2.1852 -0.7081 -1.6911
37999SOL     OW18553   2.209   3.763   5.538 -0.1887  0.0882  0.6070
37999SOL    HW118554   2.293   3.751   5.493 -0.1743  1.8265  0.1090
37999SOL    HW218555   2.175   3.674   5.548  1.0660 -0.5512 -0.4238
38000SOL     OW18556   5.449   0.822   1.161  0.5996  0.1616 -0.1598
38000SOL    HW118557   5.473   0.767   1.086 -0.1610 -0.8458  0.3168
38000SOL    HW218558   5.365   0.862   1.135 -0.8261 -1.9218  0.9795
38001SOL     OW18559   5.995   0.493   1.631 -0.6424 -0.4420  0.1813
38001SOL    HW118560   5.900   0.495   1.634 -0.7023  0.0846 -1.1104
38001SOL    HW218561   6.023   0.495   1.722 -1.8644 -1.1487  0.5859
38002SOL     OW18562   4.838  10.716   8.142 -0.6492  0.5351  0.1892
38002SOL    HW118563   4.869  10.628   8.166  0.1156  0.7567  0.0257
38002SOL    HW218564   4.883  10.774   8.203  0.4835  1.0044 -1.0587
38003SOL     OW18565   1.706   3.038   4.894 -0.1299 -0.2534  0.0809
38003SOL    HW118566   1.707   3.026   4.988 -1.1845 -0.7615  0.0412
38003SOL    HW218567   1.628   2.992   4.864 -0.2892  0.6127 -0.9370
38004SOL     OW18568  11.604   7.872   8.222  0.2932 -0.5133 -0.3179
38004SOL    HW118569  11.590   7.778   8.210  0.9925 -0.6318 -0.2610
38004SOL    HW218570  11.632   7.881   8.313 -0.5565 -0.1514 -0.0847
38005SOL     OW18571   8.756   5.377   7.095 -0.1886 -0.0796  0.5974
38005SOL    HW118572   8.711   5.462   7.099 -0.5785 -0.2949  0.7515
38005SOL    HW218573   8.767   5.362   7.001 -0.8917 -0.2620  0.5356
38006SOL     OW18574   2.213   4.408  10.094 -0.0132  0.0789  0.0825
38006SOL    HW118575   2.274   4.342  10.126 -1.0787 -0.5055  0.9919
38006SOL    HW218576   2.266   4.487  10.082  1.0405 -0.6040  0.1734
38007SOL     OW18577  10.878  11.509   0.367 -0.5804 -0.5523  0.7266
38007SOL    HW118578  10.930  11.532   0.290 -0.9676  0.2108  0.6853
38007SOL    HW218579  10.830  11.430   0.341 -0.5225 -0.4396  0.2643
38008SOL     OW18580   7.150  10.479   3.107  0.1279  0.0763  0.1055
38008SOL    HW118581   7.180  10.393   3.076 -2.9626 -1.3892  0.8388
38008SOL    HW218582   7.096  10.513   3.035 -0.3664  0.4414  0.6424
38009SOL     OW18583   3.089   6.003   3.121 -0.1654  0.3942 -0.3616
38009SOL    HW118584   3.009   5.966   3.084 -0.5022  0.2662  0.4625
38009SOL    HW218585   3.089   6.095   3.093 -1.3403  0.7715  0.7658
38010SOL     OW18586   9.683   0.617   9.338 -0.1305 -0.4660  0.1907
38010SOL    HW118587   9.645   0.546   9.390 -1.6713  0.0786 -0.1422
38010SOL    HW218588   9.710   0.574   9.256 -1.8240 -0.5612 -0.3493
38011SOL     OW18589   3.663   3.678   0.025  0.4479  0.9258  0.0350
38011SOL    HW118590   3.578   3.721   0.022  0.8396  1.6902 -0.5652
38011SOL    HW218591   3.717   3.735   0.080  0.4345  0.1686  0.8604
38012SOL     OW18592   3.168   1.592   4.069  0.5594 -0.2490  0.0074
38012SOL    HW118593   3.073   1.580   4.069  0.3549  0.5026 -2.7703
38012SOL    HW218594   3.202   1.519   4.120 -1.4984 -0.2301  1.5496
38013SOL     OW18595   4.653   3.061   2.865  0.1100 -0.0858  0.2788
38013SOL    HW118596   4.665   3.109   2.947 -0.1156 -0.7559  0.7116
38013SOL    HW218597   4.626   3.127   2.802  2.2666  0.8066  0.2179
38014SOL     OW18598   6.403   3.790   4.813  0.6473 -0.5640 -0.0856
38014SOL    HW118599   6.349   3.854   4.860  0.6734 -0.6128  0.0109
38014SOL    HW218600   6.488   3.794   4.856  0.3106 -1.5212  0.7118
38015SOL     OW18601   1.615   7.466   6.698  0.0612 -0.4393  0.2194
38015SOL    HW118602   1.658   7.409   6.762  0.6199  0.0520  0.2921
38015SOL    HW218603   1.522   7.451   6.711  0.1961 -1.2231  0.3365
38016SOL     OW18604   5.999   2.800   7.064 -0.1671  0.4055 -0.0440
38016SOL    HW118605   6.006   2.892   7.091 -0.1354  0.2696  0.4102
38016SOL    HW218606   5.937   2.761   7.125  1.2481 -0.3362  0.9749
38017SOL     OW18607  10.314   5.717   7.925  0.2611  0.0440 -0.1267
38017SOL    HW118608  10.292   5.688   8.013 -0.4523 -0.0891 -0.3414
38017SOL    HW218609  10.398   5.675   7.906 -0.4160 -1.3758 -0.1719
38018SOL     OW18610   2.771   1.283   2.173  0.3438 -0.3843  0.7524
38018SOL    HW118611   2.803   1.238   2.095  0.6437 -0.3203  0.8402
38018SOL    HW218612   2.841   1.274   2.237  0.9309  1.2396  0.3872
38019SOL     OW18613   4.646  11.242   2.528  0.5218  0.1440 -0.5239
38019SOL    HW118614   4.739  11.238   2.505  0.3061 -0.2994 -1.3938
38019SOL    HW218615   4.610  11.158   2.496 -0.0320 -0.0061  0.4666
38020SOL     OW18616  10.303   7.279   8.189 -0.4173  0.0662  0.3202
38020SOL    HW118617  10.345   7.268   8.275  0.2536 -0.2889 -0.0460
38020SOL    HW218618  10.349   7.217   8.132 -1.0762  0.0665 -0.2226
38021SOL     OW18619   5.560  12.010   8.053 -0.1520 -0.7578 -0.5771
38021SOL    HW118620   5.582  11.945   8.120  0.7709  0.6354  0.5407
38021SOL    HW218621   5.493  12.065   8.094 -0.4539 -0.5983 -1.2623
38022SOL     OW18622   7.355   6.196   2.492  0.3832 -0.2531  0.0861
38022SOL    HW118623   7.417   6.258   2.455  1.2845 -0.0419  1.8992
38022SOL    HW218624   7.371   6.197   2.586 -1.7115 -0.9248  0.5061
38023SOL     OW18625   2.292   2.848   3.267  0.1801 -0.2995  0.0465
38023SOL    HW118626   2.362   2.909   3.290 -1.5755  0.7817  3.1643
38023SOL    HW218627   2.335   2.779   3.216  3.0601  1.3582  0.0573
38024SOL     OW18628  11.708  10.596   6.623  0.0030 -0.7115  0.6827
38024SOL    HW118629  11.756  10.679   6.615  0.4496 -1.0673 -0.6806
38024SOL    HW218630  11.724  10.567   6.712 -1.0166  1.1640  1.5402
38025SOL     OW18631  11.931   8.734   5.209 -0.4413  0.9758  0.4038
38025SOL    HW118632  11.985   8.813   5.208 -0.7468  1.1866  0.1155
38025SOL    HW218633  11.916   8.714   5.116 -1.5371  1.3963  0.4779
38026SOL     OW18634  11.721   4.688   5.312 -0.6456 -0.0202 -0.2519
38026SOL    HW118635  11.670   4.635   5.251 -2.0207 -0.2439  1.0070
38026SOL    HW218636  11.799   4.637   5.330 -1.8352 -1.6060  0.7642
38027SOL     OW18637   1.762   2.439   7.476  0.1669  0.2585  0.3459
38027SOL    HW118638   1.688   2.394   7.518  0.7509 -0.1910  0.9067
38027SOL    HW218639   1.764   2.403   7.387  0.3555 -0.5004  0.6551
38028SOL     OW18640   3.546   7.077   5.602  0.3367  0.1341  0.6723
38028SOL    HW118641   3.509   7.133   5.534 -1.2413  0.6890  1.9266
38028SOL    HW218642   3.546   6.989   5.564 -0.3648  0.4622 -0.1029
38029SOL     OW18643   7.761   1.866   3.298 -0.2294  0.2427 -0.1551
38029SOL    HW118644   7.760   1.837   3.389 -0.2650 -0.7167 -0.4526
38029SOL    HW218645   7.677   1.910   3.286 -1.0035 -1.1935 -0.2064
38030SOL     OW18646   1.565   4.818   4.053 -0.1420  0.0293  0.3163
38030SOL    HW118647   1.536   4.734   4.018 -0.0561  0.3525 -0.5495
38030SOL    HW218648   1.488   4.853   4.098 -0.4847 -0.0529 -0.1987
38031SOL     OW18649   1.692  10.585   2.544 -0.1082  0.2484 -0.1889
38031SOL    HW118650   1.766  10.524   2.545  0.3658  0.8141  0.4442
38031SOL    HW218651   1.733  10.671   2.533 -0.7014  0.5463 -0.0997
38032SOL     OW18652   6.086  10.286   9.787 -0.1471  0.0096 -0.4173
38032SOL    HW118653   6.172  10.324   9.802  0.4162 -1.4793  0.3201
38032SOL    HW218654   6.050  10.337   9.714  0.7366  1.6009  0.2096
38033SOL     OW18655  10.103   9.266   3.152 -0.3339 -0.1770  0.6658
38033SOL    HW118656  10.147   9.329   3.209  1.8661 -2.4925  1.7285
38033SOL    HW218657  10.087   9.190   3.208 -4.0373 -0.2498 -0.2159
38034SOL     OW18658   4.655   3.204   7.713  0.8107  0.1948 -0.8916
38034SOL    HW118659   4.676   3.145   7.786 -1.9208  0.2294  0.0328
38034SOL    HW218660   4.668   3.292   7.750 -0.0924  0.2062 -0.5850
38035SOL     OW18661   1.280  11.408   7.346  0.5375  0.5072 -0.1896
38035SOL    HW118662   1.286  11.441   7.257 -0.0306 -0.1512 -0.4769
38035SOL    HW218663   1.204  11.452   7.384 -0.0192 -0.1915 -0.4658
38036SOL     OW18664   4.485   0.934   2.409  0.0143 -0.5815 -0.1779
38036SOL    HW118665   4.494   0.993   2.334 -0.0703 -1.9310 -1.2883
38036SOL    HW218666   4.412   0.971   2.459  0.7033  0.8988 -0.1913
38037SOL     OW18667   9.591   8.032   2.367 -0.0676 -0.0792 -0.0727
38037SOL    HW118668   9.667   8.090   2.364  0.7124 -1.0494  0.4743
38037SOL    HW218669   9.612   7.962   2.306 -0.7973 -0.0423 -0.3749
38038SOL     OW18670   7.366   5.451   4.669 -0.4483 -0.2096  0.0596
38038SOL    HW118671   7.400   5.512   4.736  1.2959  0.7351 -1.5753
38038SOL    HW218672   7.289   5.496   4.634 -1.8337 -1.0551  1.8700
38039SOL     OW18673   5.158   3.793   4.850 -0.5259 -0.0681 -0.5760
38039SOL    HW118674   5.189   3.833   4.931 -0.5346 -0.6482 -0.2879
38039SOL    HW218675   5.063   3.790   4.860 -0.7459  1.8851 -1.5356
38040SOL     OW18676  10.447  12.124   5.342  0.3778  0.2172 -0.5290
38040SOL    HW118677  10.444  12.029   5.353  1.1947  0.3111  0.6713
38040SOL    HW218678  10.519  12.137   5.279  0.3705  0.0557 -0.5730
38041SOL     OW18679   0.322   1.164   3.138  0.2917 -0.3525 -0.0521
38041SOL    HW118680   0.414   1.139   3.147  0.5469  0.6747  0.3732
38041SOL    HW218681   0.325   1.243   3.083 -0.0423  1.3726  2.2454
38042SOL     OW18682  11.753   8.201   9.661 -0.4647 -0.6448 -0.1441
38042SOL    HW118683  11.672   8.234   9.621 -0.1720  0.5108  0.1516
38042SOL    HW218684  11.811   8.184   9.587  1.2148  4.4161 -0.4255
38043SOL     OW18685   4.486   0.255  10.621 -0.1123  0.3276 -0.3123
38043SOL    HW118686   4.437   0.326  10.663  0.8706  0.3849  0.7854
38043SOL    HW218687   4.418   0.192  10.596 -0.8767  1.0462 -0.1363
38044SOL     OW18688   8.699   7.609   9.821 -0.4473  0.2065  0.0905
38044SOL    HW118689   8.731   7.686   9.869  1.3546 -0.7335  0.5144
38044SOL    HW218690   8.629   7.574   9.876 -1.0998  1.3572  0.0332
38045SOL     OW18691  11.257   8.838   8.822 -0.1964  0.1200 -0.4400
38045SOL    HW118692  11.334   8.822   8.768 -0.6126 -0.9689 -0.7587
38045SOL    HW218693  11.284   8.904   8.885  1.5959 -1.5801  0.6802
38046SOL     OW18694   5.826   3.654   4.593  0.3533  0.4980 -0.8859
38046SOL    HW118695   5.800   3.744   4.609  0.6325  0.2672  1.1446
38046SOL    HW218696   5.909   3.661   4.545  0.2190  1.3101 -1.0035
38047SOL     OW18697   8.065   8.390   1.395 -0.0619 -0.4107 -0.2194
38047SOL    HW118698   8.068   8.422   1.305  1.4031  0.7633  0.2106
38047SOL    HW218699   8.087   8.297   1.388 -1.9400 -0.8206 -1.2417
38048SOL     OW18700   9.419   8.948   8.340  0.1152  0.1432  0.2549
38048SOL    HW118701   9.430   8.938   8.435  1.3699  0.9713  0.2250
38048SOL    HW218702   9.491   9.006   8.314  0.2454 -0.6672 -1.3111
38049SOL     OW18703   1.241   6.861   3.225 -0.5598  0.3964  0.5654
38049SOL    HW118704   1.165   6.918   3.214 -0.6246  0.5502  1.7006
38049SOL    HW218705   1.314   6.911   3.190 -0.6189  1.1949  1.5316
38050SOL     OW18706   7.367  12.050  11.491 -0.2662  0.1825  0.2244
38050SOL    HW118707   7.348  11.995  11.568  0.9583 -0.8477 -0.1782
38050SOL    HW218708   7.318  12.009  11.420 -0.2980  0.3197  0.1672
38051SOL     OW18709   5.108   4.293   0.373 -0.2452  0.1800 -0.5433
38051SOL    HW118710   5.101   4.360   0.306 -1.8357  0.1152 -0.4803
38051SOL    HW218711   5.038   4.231   0.353 -1.7468  0.8900  1.9232
38052SOL     OW18712   7.339   8.529   6.824  0.3868 -0.1171  0.5549
38052SOL    HW118713   7.337   8.456   6.762  0.2214 -0.1025  0.5442
38052SOL    HW218714   7.258   8.576   6.809  0.2104 -0.2780  0.9776
38053SOL     OW18715   7.085   8.071   9.762 -0.4573  0.5026  0.0778
38053SOL    HW118716   7.156   8.115   9.808  1.0835 -2.5914  0.9083
38053SOL    HW218717   7.026   8.042   9.831  1.3080 -3.2061  0.2654
38054SOL     OW18718   5.537   3.968  11.231  0.5014 -0.3671 -0.3037
38054SOL    HW118719   5.462   3.979  11.173  1.2150  0.9091 -1.0491
38054SOL    HW218720   5.530   3.879  11.264  0.8128 -1.6645 -3.4395
38055SOL     OW18721  11.281  11.054  11.322 -0.5061  0.0150  0.9379
38055SOL    HW118722  11.318  11.134  11.360 -2.1885  0.5848  1.4542
38055SOL    HW218723  11.255  11.079  11.234  0.7772 -0.5338  0.3770
38056SOL     OW18724   7.067   9.167   2.753 -0.0392  0.2336  0.1261
38056SOL    HW118725   7.142   9.225   2.739 -1.2173  1.5487 -0.9150
38056SOL    HW218726   7.033   9.191   2.839 -0.8162  1.4416 -0.5092
38057SOL     OW18727  11.558  10.885   6.974  0.9453  0.0678  0.5064
38057SOL    HW118728  11.626  10.818   6.983  1.2652  0.4305  0.8197
38057SOL    HW218729  11.605  10.963   6.945  0.0868 -0.7890 -3.8261
38058SOL     OW18730   8.072   8.456   9.827  0.2969 -0.0895 -0.0259
38058SOL    HW118731   8.120   8.414   9.755  0.7054  1.7704 -0.8935
38058SOL    HW218732   7.984   8.417   9.823  0.2039  0.2179 -1.7948
38059SOL     OW18733  11.548   9.773   3.156  0.4067 -0.1160 -0.4325
38059SOL    HW118734  11.557   9.847   3.216 -0.1130  1.6545 -2.4381
38059SOL    HW218735  11.526   9.699   3.213 -0.7793  1.6115  1.4813
38060SOL     OW18736   0.043   5.099   0.351  0.2924  0.2218  0.0498
38060SOL    HW118737  -0.044   5.138   0.362  0.7781  1.3554 -0.0065
38060SOL    HW218738   0.027   5.018   0.302 -0.9451 -0.6253  1.7599
38061SOL     OW18739  12.096   2.101   6.636 -0.6950 -0.0484 -0.4026
38061SOL    HW118740  12.065   2.109   6.546 -2.2433  1.9222  0.2257
38061SOL    HW218741  12.140   2.184   6.654 -1.8744  0.2941  1.1348
38062SOL     OW18742   1.358  11.867   6.222  0.5251 -0.0688  0.4884
38062SOL    HW118743   1.328  11.933   6.159  0.1032  0.8461  1.6126
38062SOL    HW218744   1.284  11.807   6.230  1.0746 -0.9764 -0.8805
38063SOL     OW18745   3.138   1.086   5.278 -0.5851  0.3237 -0.5219
38063SOL    HW118746   3.230   1.109   5.284 -0.5930  0.3447 -0.4810
38063SOL    HW218747   3.137   0.994   5.254 -0.5528  0.5131 -1.2725
38064SOL     OW18748   0.433   2.514   0.910  0.5108 -0.0568 -0.1385
38064SOL    HW118749   0.447   2.430   0.952  0.2661  0.7768  1.6696
38064SOL    HW218750   0.481   2.577   0.964  3.1834  0.6561 -3.0254
38065SOL     OW18751   0.268  10.952   0.977 -0.0153 -0.6229  0.1351
38065SOL    HW118752   0.349  10.906   0.996  0.6366 -0.6785 -2.4106
38065SOL    HW218753   0.244  10.923   0.889 -0.0226  3.1959 -1.3034
38066SOL     OW18754  10.569   5.549   4.236  0.5827 -0.0202 -0.1705
38066SOL    HW118755  10.475   5.539   4.254  0.5351 -0.7562 -0.7810
38066SOL    HW218756  10.573   5.596   4.153  0.7705  0.5682  0.1649
38067SOL     OW18757   7.814   6.556  10.534 -0.2727  0.0762  0.0828
38067SOL    HW118758   7.823   6.647  10.560  0.2162  0.1079 -0.1987
38067SOL    HW218759   7.902   6.529  10.508 -0.9008  0.3740 -2.6037
38068SOL     OW18760   0.019  11.503   6.348  0.6476 -0.1288 -0.0334
38068SOL    HW118761   0.004  11.513   6.254 -1.6311  1.2102  0.3980
38068SOL    HW218762   0.094  11.560   6.366 -0.6190  1.8321 -0.6489
38069SOL     OW18763   8.439  10.067   4.300  0.0894 -0.5536 -0.4140
38069SOL    HW118764   8.353  10.035   4.274 -0.4195 -0.9972  1.6197
38069SOL    HW218765   8.498  10.038   4.231 -1.1514 -1.5288 -1.0993
38070SOL     OW18766   2.415   2.465   6.363 -0.2738  0.4711 -0.8231
38070SOL    HW118767   2.424   2.560   6.365  0.2999  0.4107 -0.5310
38070SOL    HW218768   2.462   2.438   6.285  1.9697  0.1859  0.5454
38071SOL     OW18769   1.894  10.354   7.421 -0.1661 -0.2459 -0.1092
38071SOL    HW118770   1.937  10.439   7.418  0.2407 -0.4671 -0.7380
38071SOL    HW218771   1.926  10.308   7.344  1.1101 -1.6897  1.2081
38072SOL     OW18772   5.663   6.227   8.325 -0.0817 -0.0779  0.0124
38072SOL    HW118773   5.581   6.197   8.366 -0.5635  0.2426 -0.6896
38072SOL    HW218774   5.634   6.269   8.244  0.9100 -1.7031 -1.2500
38073SOL     OW18775   5.300   6.802   3.475 -0.2246  0.0095 -0.3294
38073SOL    HW118776   5.374   6.748   3.445  0.3637  0.8834 -0.4750
38073SOL    HW218777   5.267   6.754   3.551  3.4509  1.8040  2.7713
38074SOL     OW18778   9.265   2.996   8.495  0.1078  0.0139 -0.6036
38074SOL    HW118779   9.226   3.013   8.581 -2.2863  0.0261 -1.6225
38074SOL    HW218780   9.285   3.083   8.460 -2.6158  0.3392 -1.6062
38075SOL     OW18781   5.885   1.236   6.170  0.2251 -0.3805  0.4328
38075SOL    HW118782   5.927   1.305   6.221  0.5974 -0.8354  0.7555
38075SOL    HW218783   5.931   1.156   6.196 -0.4581 -0.8057  0.3519
38076SOL     OW18784  11.698   3.202   9.592  0.0580  0.3989 -0.3756
38076SOL    HW118785  11.683   3.154   9.674  1.4848  2.0876  0.9683
38076SOL    HW218786  11.752   3.277   9.618  1.6181  0.3476 -3.0690
38077SOL     OW18787   1.620  10.739  11.078  0.4399  0.2345 -0.2620
38077SOL    HW118788   1.584  10.796  11.146  1.9082 -0.1927  0.9359
38077SOL    HW218789   1.646  10.798  11.008  0.7330  0.9088  0.4033
38078SOL     OW18790   2.372   4.070  10.590 -0.1578 -0.2508 -0.2007
38078SOL    HW118791   2.325   4.140  10.546 -1.4550 -1.9441 -1.6542
38078SOL    HW218792   2.313   3.994  10.584  0.7617 -1.2421  2.1526
38079SOL     OW18793  11.848   4.996   8.715 -1.0546 -0.1072  0.0050
38079SOL    HW118794  11.782   4.990   8.646 -2.0410 -0.5412  0.9573
38079SOL    HW218795  11.812   5.059   8.777 -0.8179 -0.7059  0.7702
38080SOL     OW18796   9.145   0.598  10.203 -0.0259 -0.1874 -0.2967
38080SOL    HW118797   9.165   0.548  10.281 -1.6833 -0.5713 -0.0820
38080SOL    HW218798   9.087   0.668  10.233 -0.0896  0.1011 -1.0621
38081SOL     OW18799   3.406   6.541   5.545 -0.3028 -0.4465 -0.0718
38081SOL    HW118800   3.391   6.477   5.476  1.1921 -0.8564 -0.0623
38081SOL    HW218801   3.477   6.503   5.598 -0.0611  0.7595  0.5160
38082SOL     OW18802   4.228   2.527   3.954 -0.3817 -0.7455 -0.1117
38082SOL    HW118803   4.246   2.527   4.048  0.5498 -0.7451 -0.2765
38082SOL    HW218804   4.259   2.612   3.923 -2.3736  0.0219 -0.1416
38083SOL     OW18805   2.087   0.876   6.499 -0.9096 -0.3048 -0.2883
38083SOL    HW118806   2.042   0.865   6.582  1.3006 -0.1747  1.0038
38083SOL    HW218807   2.090   0.789   6.460 -3.0616 -0.1561 -0.9037
38084SOL     OW18808   6.380   2.305   8.368  0.1000  0.0934  0.0090
38084SOL    HW118809   6.375   2.304   8.272 -0.5883  0.4619  0.0314
38084SOL    HW218810   6.443   2.373   8.389 -0.5314  0.7398 -0.1658
38085SOL     OW18811   7.698  10.490   9.810  0.4053  0.3116  0.6826
38085SOL    HW118812   7.635  10.462   9.877  0.4456 -1.6935 -0.0556
38085SOL    HW218813   7.744  10.410   9.786  1.5560  1.3085 -0.5448
38086SOL     OW18814   8.115   8.050   5.375  0.0658  0.1221 -0.0273
38086SOL    HW118815   8.128   8.144   5.362  0.5735  0.0497 -0.0693
38086SOL    HW218816   8.173   8.009   5.310 -0.5878 -0.2150 -0.4024
38087SOL     OW18817  10.935  10.138   6.103  0.0923  0.2390  0.4530
38087SOL    HW118818  11.011  10.172   6.151  0.7182  1.2739 -1.2091
38087SOL    HW218819  10.874  10.211   6.100 -1.4476 -0.8513  2.5726
38088SOL     OW18820   4.285   3.394   8.690  0.1320 -0.2043 -0.2776
38088SOL    HW118821   4.362   3.450   8.704 -1.4130  1.8467  0.3831
38088SOL    HW218822   4.312   3.308   8.722  1.8463  0.6803  0.7964
38089SOL     OW18823   7.550   6.114  10.648  0.4185  0.1094 -0.0070
38089SOL    HW118824   7.618   6.178  10.630  0.2351 -0.1045 -1.5662
38089SOL    HW218825   7.537   6.068  10.565 -3.3260  1.7837 -0.5572
38090SOL     OW18826   2.858   3.366   2.441  0.1577  0.2079  0.1055
38090SOL    HW118827   2.764   3.353   2.428  0.1717  0.6257 -0.4416
38090SOL    HW218828   2.877   3.449   2.398  1.1471 -0.8500 -1.6288
38091SOL     OW18829   0.665   0.116   2.964 -0.3395 -0.0313 -0.0677
38091SOL    HW118830   0.720   0.125   3.042 -1.2693 -0.1534  0.6141
38091SOL    HW218831   0.708   0.047   2.912  1.6270  1.7060 -0.8656
38092SOL     OW18832   7.592   5.226  12.126  0.0944  0.5488  0.1370
38092SOL    HW118833   7.643   5.282  12.067  1.9424  0.2805  1.3924
38092SOL    HW218834   7.576   5.280  12.203 -0.7188  0.3106  0.1442
38093SOL     OW18835   8.407   3.812   2.514  0.3739 -0.3517 -0.6329
38093SOL    HW118836   8.329   3.807   2.460 -1.1692  3.3677  0.9349
38093SOL    HW218837   8.383   3.769   2.596  1.2557 -2.2404 -1.3108
38094SOL     OW18838   9.994  10.950  10.412 -0.1445  0.0237 -0.0444
38094SOL    HW118839  10.079  10.959  10.369 -0.9294 -0.8295 -1.8843
38094SOL    HW218840   9.940  11.018  10.371 -0.3810  0.5592  1.1105
38095SOL     OW18841   1.542   8.440   9.451  0.5357 -0.0533 -0.1454
38095SOL    HW118842   1.562   8.517   9.398 -2.3042  1.8351  1.2652
38095SOL    HW218843   1.583   8.458   9.536  0.4089 -0.4111 -0.0079
38096SOL     OW18844   5.735   1.608  11.398  0.8588  0.5947 -0.3319
38096SOL    HW118845   5.653   1.610  11.349 -0.6914 -0.0233  2.0829
38096SOL    HW218846   5.802   1.593  11.331 -1.2285 -1.3844 -2.1530
38097SOL     OW18847   4.166   8.035   4.778 -0.2123  0.4850 -0.3178
38097SOL    HW118848   4.158   8.038   4.873  1.5633 -0.1726 -0.1137
38097SOL    HW218849   4.142   7.946   4.754  0.7469  0.2192 -0.3157
38098SOL     OW18850   8.768   7.827   9.977 -0.2221 -0.5238 -0.1968
38098SOL    HW118851   8.815   7.789  10.051  0.0307 -1.5737 -0.8755
38098SOL    HW218852   8.755   7.918  10.001  0.8782 -0.5727  0.6358
38099SOL     OW18853  10.782   6.482   8.750  0.3758 -0.9697 -0.1467
38099SOL    HW118854  10.864   6.486   8.799 -0.3145 -2.0495  1.1810
38099SOL    HW218855  10.772   6.569   8.712  2.2032 -0.8662 -0.4804
38100SOL     OW18856  12.008   4.170   4.245 -0.4244 -0.4615  0.1036
38100SOL    HW118857  12.094   4.130   4.258 -1.1851 -1.5378  2.1823
38100SOL    HW218858  11.946   4.100   4.265 -1.8041  0.4538 -0.8267
38101SOL     OW18859   3.197   9.383   8.085  0.2161 -0.8118 -0.3480
38101SOL    HW118860   3.277   9.423   8.051  0.3746 -1.6331 -0.9487
38101SOL    HW218861   3.128   9.411   8.024  0.2446 -1.0602 -0.4940
38102SOL     OW18862  10.263  11.936   5.550 -0.0734  0.2072  0.2021
38102SOL    HW118863  10.283  12.010   5.608 -1.2073  0.4902  0.2547
38102SOL    HW218864  10.306  11.861   5.591  0.1697  0.6333  0.7417
38103SOL     OW18865   5.884   0.280   2.680 -0.0311 -0.5569  0.0930
38103SOL    HW118866   5.812   0.294   2.619 -0.4722  1.5345  0.9873
38103SOL    HW218867   5.857   0.203   2.731 -1.7086  0.2019  0.4389
38104SOL     OW18868   8.144   2.167  10.693  0.5292  0.6401  0.0447
38104SOL    HW118869   8.053   2.147  10.672  0.5514  1.2144 -0.6602
38104SOL    HW218870   8.172   2.095  10.749  0.6958 -1.5248 -2.5854
38105SOL     OW18871  11.991   9.200   4.814  0.3488 -0.2319  0.3249
38105SOL    HW118872  12.054   9.140   4.775 -0.1101 -0.6558  0.2300
38105SOL    HW218873  11.984   9.272   4.751  0.2820 -0.4769  0.0512
38106SOL     OW18874   9.907   2.643   1.689 -0.4959  0.9250  0.0789
38106SOL    HW118875   9.856   2.577   1.643 -1.1527  2.3088 -1.2833
38106SOL    HW218876   9.884   2.631   1.781  0.5053 -1.6172  0.0803
38107SOL     OW18877   1.517  11.326   3.671 -0.0555 -0.1861 -0.6508
38107SOL    HW118878   1.422  11.318   3.661 -0.0551 -1.2572  0.1361
38107SOL    HW218879   1.544  11.377   3.594 -0.9855 -1.8267 -2.1395
38108SOL     OW18880   5.341   0.821   3.485 -0.8532 -0.2704  0.2289
38108SOL    HW118881   5.375   0.851   3.400 -1.9127 -0.0827 -0.1436
38108SOL    HW218882   5.326   0.728   3.473 -3.4371  0.1696 -0.6945
38109SOL     OW18883  10.394   9.669   1.309 -0.0354  0.3131  0.5023
38109SOL    HW118884  10.333   9.689   1.238 -1.0202 -1.2236  0.8565
38109SOL    HW218885  10.368   9.727   1.380 -1.5063 -0.6844  0.8382
38110SOL     OW18886   0.244  10.477   6.329 -0.5948 -0.5481  0.0246
38110SOL    HW118887   0.275  10.429   6.406 -0.5240  0.3031  0.5389
38110SOL    HW218888   0.316  10.535   6.306 -1.1232  0.1510  0.1246
38111SOL     OW18889   8.289   2.956   3.735  0.0402 -0.4348 -0.2789
38111SOL    HW118890   8.216   2.906   3.770  0.0897 -0.2155  0.1465
38111SOL    HW218891   8.352   2.890   3.707 -0.9730 -0.6747 -2.1292
38112SOL     OW18892   9.334   1.822   6.110 -0.0942 -0.6805  0.0852
38112SOL    HW118893   9.426   1.827   6.136  0.0756 -3.0650  0.1165
38112SOL    HW218894   9.335   1.829   6.015 -0.1990  2.1734  0.2169
38113SOL     OW18895   7.723  12.101   4.644  0.3634  0.0771 -0.1118
38113SOL    HW118896   7.808  12.058   4.635 -0.0410 -0.7673  0.0307
38113SOL    HW218897   7.740  12.174   4.704  0.8275 -0.5772  0.5759
38114SOL     OW18898   5.326  12.077  10.522 -0.2089 -0.3384  0.3250
38114SOL    HW118899   5.342  11.985  10.503  2.1518  0.0845  0.0166
38114SOL    HW218900   5.406  12.107  10.565 -0.9426  1.5627  0.4635
38115SOL     OW18901   1.947   5.419   2.610 -0.4625 -0.3342 -0.4625
38115SOL    HW118902   1.947   5.329   2.576  2.4978 -0.2309 -0.9779
38115SOL    HW218903   1.978   5.472   2.536 -0.8002  0.9425  0.2813
38116SOL     OW18904   3.167   0.704   2.618 -0.3235  0.2397 -0.0070
38116SOL    HW118905   3.151   0.798   2.604  1.4480  0.3586 -1.7318
38116SOL    HW218906   3.177   0.669   2.530 -1.2592 -1.6844  0.5967
38117SOL     OW18907   4.114   5.860  10.094 -0.1338 -0.7310  0.2602
38117SOL    HW118908   4.064   5.846  10.014 -1.0653  1.1807  0.4544
38117SOL    HW218909   4.205   5.841  10.069 -0.4635 -0.5682 -1.1445
38118SOL     OW18910   3.676   7.178   1.627  0.1720 -0.0149  0.3066
38118SOL    HW118911   3.656   7.088   1.601 -0.7725  0.6746 -1.4402
38118SOL    HW218912   3.760   7.171   1.674 -0.1371 -1.8528  0.6554
38119SOL     OW18913   0.919   2.949   6.707  0.1300 -0.7010 -0.4193
38119SOL    HW118914   0.951   2.860   6.719  0.0886 -0.8222 -1.1431
38119SOL    HW218915   0.998   3.001   6.690  0.0595 -0.8024 -1.0945
38120SOL     OW18916   1.135   1.896   4.216  0.5009 -0.3130  0.1251
38120SOL    HW118917   1.107   1.861   4.301 -0.3349 -0.8750 -0.3664
38120SOL    HW218918   1.108   1.987   4.217  3.1870  0.5987  1.6465
38121SOL     OW18919   3.826   0.379  11.412  0.4911  0.8824  0.2674
38121SOL    HW118920   3.789   0.404  11.496  0.8219  1.0610  0.3629
38121SOL    HW218921   3.832   0.283  11.416 -1.7104  0.6534 -0.4898
38122SOL     OW18922   1.468   3.288   5.879 -0.3656 -0.2693  0.1808
38122SOL    HW118923   1.421   3.208   5.857 -2.1268  0.9922 -0.9186
38122SOL    HW218924   1.464   3.341   5.800  1.0146  0.8183  0.7849
38123SOL     OW18925   2.432  10.623   5.111  0.4739  0.4081 -0.1451
38123SOL    HW118926   2.446  10.660   5.024 -0.7403  0.1246 -0.4880
38123SOL    HW218927   2.512  10.643   5.160  0.6995  1.5825 -0.9675
38124SOL     OW18928   7.548   5.637  10.984  0.3818 -0.0890 -0.1768
38124SOL    HW118929   7.627   5.614  10.935  0.6117  0.7348 -0.1957
38124SOL    HW218930   7.573   5.710  11.039 -0.3522  0.1568 -0.1510
38125SOL     OW18931   1.846   3.674  10.457 -0.1665  0.4251 -0.6266
38125SOL    HW118932   1.821   3.584  10.476  0.9358 -0.0071 -1.1073
38125SOL    HW218933   1.865   3.712  10.543 -1.0326  0.3283 -0.3892
38126SOL     OW18934   6.871   8.525   6.489 -0.1524  0.2316 -0.0922
38126SOL    HW118935   6.954   8.518   6.442  0.5123  0.0557  1.0674
38126SOL    HW218936   6.805   8.492   6.427  0.4971  1.1870 -1.3422
38127SOL     OW18937   5.103   1.493   5.651 -0.1078  0.4745  0.8655
38127SOL    HW118938   5.153   1.468   5.730  2.6446  1.8536 -0.2926
38127SOL    HW218939   5.027   1.539   5.685  0.5563  0.2737  2.7615
38128SOL     OW18940   5.525   4.401   1.317  0.0132 -0.1141 -0.6018
38128SOL    HW118941   5.504   4.494   1.317  0.0512 -0.0667  1.1581
38128SOL    HW218942   5.607   4.394   1.267  0.2678  0.8588 -0.3381
38129SOL     OW18943  11.091   0.893   6.851  0.4131 -0.1017  0.2508
38129SOL    HW118944  11.125   0.915   6.764 -0.1512  0.2402  0.1152
38129SOL    HW218945  11.168   0.860   6.898  0.6640 -0.5510 -0.4594
38130SOL     OW18946   5.961   8.426   4.252 -0.2683  0.4385 -0.4021
38130SOL    HW118947   6.026   8.428   4.182 -1.8248  0.8660 -1.9001
38130SOL    HW218948   6.008   8.457   4.329  1.4152  0.2604 -1.3120
38131SOL     OW18949  10.689   9.273   6.214 -0.4915  0.2931  0.4015
38131SOL    HW118950  10.720   9.188   6.245 -2.6522 -0.6274  0.2119
38131SOL    HW218951  10.671   9.323   6.293 -0.3245  0.1501  0.5296
38132SOL     OW18952   7.803  11.268   0.042  0.5111  0.5362  0.2445
38132SOL    HW118953   7.894  11.296   0.033  0.8772 -0.9063 -1.0003
38132SOL    HW218954   7.752  11.340   0.006  1.2438  0.8617 -0.1683
38133SOL     OW18955   2.011  10.453  11.683  0.2405 -0.1917 -0.3379
38133SOL    HW118956   1.957  10.399  11.740  0.2228 -0.7307 -0.8469
38133SOL    HW218957   2.019  10.537  11.728  0.6881 -0.7876  0.7121
38134SOL     OW18958  10.296   5.952   1.495 -0.0261  0.4912 -0.0834
38134SOL    HW118959  10.355   5.939   1.570  0.1295  0.3882 -0.2214
38134SOL    HW218960  10.312   6.042   1.467 -1.6421  1.2626  1.3282
38135SOL     OW18961   4.254   2.617   7.551 -0.6496 -0.4180 -0.4345
38135SOL    HW118962   4.218   2.700   7.521  0.9669 -0.1605 -1.8010
38135SOL    HW218963   4.270   2.630   7.645 -0.0665  0.9381 -0.7047
38136SOL     OW18964   5.840  11.329   4.494 -0.2316  0.0177 -0.1899
38136SOL    HW118965   5.877  11.410   4.458  0.6603 -0.9280 -1.4597
38136SOL    HW218966   5.873  11.326   4.584  0.1421  0.8000 -0.2936
38137SOL     OW18967  11.485   9.147   2.953 -0.6347 -0.6094 -0.8949
38137SOL    HW118968  11.455   9.228   2.995 -0.2517 -0.4822 -0.8582
38137SOL    HW218969  11.445   9.149   2.866 -1.7825 -1.0868 -0.4034
38138SOL     OW18970   0.492   6.911   4.575 -0.7600 -0.1145  0.0670
38138SOL    HW118971   0.503   6.988   4.630 -0.5078 -0.9729  1.2728
38138SOL    HW218972   0.538   6.932   4.494  0.3159  0.5634  0.8298
38139SOL     OW18973   8.997   1.928   2.939  0.0712 -0.1475  0.2471
38139SOL    HW118974   9.072   1.977   2.906  0.8484 -1.1861  0.4387
38139SOL    HW218975   8.933   1.933   2.868  0.9214 -0.5704 -0.5696
38140SOL     OW18976  11.767   9.072   5.230  0.4120 -0.0281 -1.3226
38140SOL    HW118977  11.697   9.006   5.231 -1.5511  1.9109  0.8888
38140SOL    HW218978  11.847   9.020   5.237 -0.9730 -2.2363 -0.4386
38141SOL     OW18979   6.837  10.616   0.730 -0.4971  0.5499 -0.3274
38141SOL    HW118980   6.910  10.670   0.759  1.9301 -2.4230 -0.3707
38141SOL    HW218981   6.875  10.557   0.665 -2.7455 -1.5484  0.1156
38142SOL     OW18982   7.935   7.194   9.398 -0.3504  0.4766 -0.4080
38142SOL    HW118983   7.918   7.288   9.401 -1.0848  0.3353  2.0572
38142SOL    HW218984   8.019   7.183   9.443 -0.4030 -0.0581 -0.4347
38143SOL     OW18985   9.960   8.283   6.448  0.2659 -0.2572 -0.5405
38143SOL    HW118986   9.997   8.361   6.406  0.6413 -0.9660 -1.5584
38143SOL    HW218987   9.873   8.311   6.477  0.3914  0.5408 -0.8942
38144SOL     OW18988  10.632   8.732   5.475 -0.0512 -0.1675 -0.0590
38144SOL    HW118989  10.665   8.761   5.560 -1.0317  1.1110 -0.0824
38144SOL    HW218990  10.614   8.812   5.427 -2.8137 -0.7340 -0.1607
38145SOL     OW18991  10.499   8.830   7.414  0.5287  0.0643 -0.2733
38145SOL    HW118992  10.582   8.853   7.372  0.5705  1.0232  0.2970
38145SOL    HW218993  10.499   8.881   7.495 -0.7489  0.2993 -0.4047
38146SOL     OW18994   0.621   2.882   4.645  0.0761 -0.2140 -0.4492
38146SOL    HW118995   0.690   2.932   4.600  1.1881 -1.3366 -0.0315
38146SOL    HW218996   0.627   2.794   4.608 -0.1621 -0.6998  0.6412
38147SOL     OW18997   5.365  11.045   1.795 -0.3134 -1.0199 -0.3775
38147SOL    HW118998   5.427  11.102   1.750 -1.9889 -0.0587 -1.6255
38147SOL    HW218999   5.414  11.007   1.867  1.2326  1.0187 -0.2635
38148SOL     OW19000   7.802   2.798   6.305 -0.4477 -0.2575 -0.5821
38148SOL    HW119001   7.870   2.832   6.363  2.3824 -2.8515 -2.0739
38148SOL    HW219002   7.786   2.708   6.336 -1.3829 -0.5299 -1.7559
38149SOL     OW19003   9.034  11.902   7.905 -0.4606 -0.2856  0.4467
38149SOL    HW119004   9.023  11.857   7.989  0.8291  0.6929  1.1721
38149SOL    HW219005   9.123  11.880   7.878  0.1508  1.6640  0.7531
38150SOL     OW19006   5.975   5.907   3.909  0.1491 -0.0471  0.1323
38150SOL    HW119007   5.900   5.918   3.850  0.6507  0.7390 -0.3827
38150SOL    HW219008   5.942   5.852   3.980 -0.8058 -0.0301 -0.2807
38151SOL     OW19009   3.933   8.771   4.467 -0.0652  0.3933 -0.2299
38151SOL    HW119010   3.942   8.719   4.547  1.2154  1.0421  0.0786
38151SOL    HW219011   3.839   8.774   4.451 -0.3414  0.1258  1.1734
38152SOL     OW19012   7.914   3.852  10.537 -0.0808 -0.4584  0.2100
38152SOL    HW119013   7.863   3.815  10.466  1.1087  1.0407 -1.5163
38152SOL    HW219014   7.999   3.872  10.498  1.0887 -0.8294  2.4129
38153SOL     OW19015   0.555   3.699   0.129 -0.4352 -0.4440  0.9880
38153SOL    HW119016   0.525   3.632   0.191 -2.9288 -0.7771 -0.4585
38153SOL    HW219017   0.543   3.781   0.176 -0.5842 -0.8024  1.5977
38154SOL     OW19018   6.230   6.825   7.676  0.0802  0.6680  0.2015
38154SOL    HW119019   6.283   6.766   7.730 -0.8420 -0.8708 -0.5254
38154SOL    HW219020   6.190   6.886   7.739  0.6404  0.2038  1.0242
38155SOL     OW19021  11.122   7.930   1.351 -0.6646 -0.1281  0.2901
38155SOL    HW119022  11.214   7.957   1.350 -0.2573 -1.2083  2.4232
38155SOL    HW219023  11.087   7.966   1.432 -2.1804  0.3626 -0.5551
38156SOL     OW19024   3.650   7.283   3.918  0.5875 -0.7890 -0.1295
38156SOL    HW119025   3.722   7.325   3.871  0.8564 -0.1110  0.8368
38156SOL    HW219026   3.571   7.318   3.877  0.7893 -1.6654 -1.3068
38157SOL     OW19027   1.307  11.391   6.553 -0.3893  0.0610  0.2026
38157SOL    HW119028   1.345  11.425   6.634  1.4570  1.3956 -1.1539
38157SOL    HW219029   1.305  11.296   6.566 -0.6869  0.2726  2.0095
38158SOL     OW19030   9.664   2.239   5.872  0.4082  0.2790  0.0468
38158SOL    HW119031   9.607   2.232   5.795  0.9987 -0.0433 -0.3642
38158SOL    HW219032   9.753   2.237   5.837  0.6821  0.3787  0.7190
38159SOL     OW19033   5.206   0.965   6.128  0.3637 -0.0416  0.6599
38159SOL    HW119034   5.149   1.040   6.108  0.7123  0.0079 -0.1722
38159SOL    HW219035   5.148   0.889   6.123  0.3053  0.0359  0.0873
38160SOL     OW19036   8.146   3.949   2.595 -0.2523 -0.3508 -0.2246
38160SOL    HW119037   8.062   3.995   2.601 -1.6192 -2.6096 -0.9023
38160SOL    HW219038   8.147   3.890   2.671  1.2714  0.4122  0.3998
38161SOL     OW19039   4.098   8.673   6.140 -0.1986  0.2685 -0.1221
38161SOL    HW119040   4.162   8.693   6.208  0.3445  4.1228 -1.5197
38161SOL    HW219041   4.150   8.652   6.062 -0.6021  1.6121 -0.7878
38162SOL     OW19042  10.414   3.630   8.319 -0.0400  0.2937  0.2628
38162SOL    HW119043  10.384   3.634   8.228  0.5189  0.6075  0.0890
38162SOL    HW219044  10.337   3.654   8.370 -0.0216  1.4276 -0.1948
38163SOL     OW19045   7.628   9.067   0.487  0.6603  0.2397  0.2395
38163SOL    HW119046   7.605   8.975   0.489  1.2157  0.1082  1.4046
38163SOL    HW219047   7.666   9.081   0.400  2.2538 -1.0617  0.6855
38164SOL     OW19048   3.407   1.717   6.137 -0.0963  0.8386  0.3799
38164SOL    HW119049   3.381   1.794   6.087  1.1242 -0.3639 -2.3241
38164SOL    HW219050   3.331   1.658   6.133  0.2961  0.3806 -0.9604
38165SOL     OW19051   3.583   2.868   1.651 -0.1350  0.7354 -0.3641
38165SOL    HW119052   3.678   2.867   1.668  0.3540  0.0887 -2.8027
38165SOL    HW219053   3.549   2.797   1.706  0.7154  1.2163  0.8299
38166SOL     OW19054   2.526   6.556   8.946  0.0599  0.3026 -0.4805
38166SOL    HW119055   2.459   6.493   8.973 -1.0388  1.5384 -0.2706
38166SOL    HW219056   2.547   6.531   8.856 -1.4653  0.5446 -0.9253
38167SOL     OW19057   0.808   0.037   7.836 -0.6858 -0.1073 -0.6340
38167SOL    HW119058   0.871   0.011   7.769  0.2683  0.9111 -0.1661
38167SOL    HW219059   0.735  -0.024   7.825  0.1098 -0.9317 -1.5895
38168SOL     OW19060   4.236   1.640   8.309 -0.2328  0.4623  0.1954
38168SOL    HW119061   4.240   1.683   8.224  0.5265  0.5263  0.2591
38168SOL    HW219062   4.327   1.627   8.334 -0.4404  0.7239  1.1424
38169SOL     OW19063   9.564   6.165   5.977 -0.6805  0.9507  0.0513
38169SOL    HW119064   9.611   6.117   5.909 -2.1380  0.0251 -0.3442
38169SOL    HW219065   9.536   6.097   6.039 -0.6312  1.6048  0.8003
38170SOL     OW19066   8.570   6.811   8.241 -0.2814  0.2342  0.1326
38170SOL    HW119067   8.581   6.768   8.155 -1.5432  1.2656 -0.5668
38170SOL    HW219068   8.479   6.794   8.265  0.4019 -1.2035  1.9585
38171SOL     OW19069   5.763   0.352   3.704 -0.4315 -0.0962  0.0726
38171SOL    HW119070   5.819   0.292   3.655  0.5845  0.6571  0.2987
38171SOL    HW219071   5.771   0.436   3.660 -2.1602 -0.1743 -0.4803
38172SOL     OW19072   9.164   2.462   6.124 -0.1750  0.1602 -0.1547
38172SOL    HW119073   9.251   2.464   6.085  0.3560 -1.6464  0.8328
38172SOL    HW219074   9.111   2.412   6.061  0.5400 -2.2467  1.0528
38173SOL     OW19075   1.057   3.603   5.023 -0.1409  0.0676 -0.1659
38173SOL    HW119076   1.081   3.662   4.951 -0.8871  0.9230  0.2704
38173SOL    HW219077   0.964   3.584   5.008 -0.7664  1.5835  1.4704
38174SOL     OW19078  10.918   1.729   2.351 -0.0455 -0.3953  0.3568
38174SOL    HW119079  10.870   1.702   2.272  0.6831  0.3191 -0.3562
38174SOL    HW219080  10.987   1.664   2.361  1.5909  0.9941 -1.2489
38175SOL     OW19081  11.058   0.467   8.476 -1.0400 -0.1982 -0.5299
38175SOL    HW119082  10.981   0.421   8.508 -0.4530 -0.8428 -0.0405
38175SOL    HW219083  11.086   0.522   8.549 -0.9495 -0.0639 -0.6634
38176SOL     OW19084   3.211   1.502   9.475  0.1392 -0.0176 -0.1118
38176SOL    HW119085   3.251   1.416   9.485  1.6523  0.6455 -0.1883
38176SOL    HW219086   3.218   1.521   9.381  1.7399  1.0387  0.1796
38177SOL     OW19087   5.600   1.964  11.790 -0.4389  0.4184  0.1583
38177SOL    HW119088   5.597   1.905  11.715  0.5476 -0.9050  1.0988
38177SOL    HW219089   5.511   1.962  11.825 -1.3258  2.2300 -1.7675
38178SOL     OW19090   8.519   7.299   4.692  0.3444 -0.6889  0.0343
38178SOL    HW119091   8.611   7.326   4.700  0.4611 -0.6630 -1.1905
38178SOL    HW219092   8.474   7.345   4.762  0.6734  2.0613 -1.4382
38179SOL     OW19093   9.148   7.613   8.588 -0.3970 -0.0612 -0.4617
38179SOL    HW119094   9.231   7.575   8.557  0.0389 -1.4633  2.1088
38179SOL    HW219095   9.160   7.707   8.580 -0.5372 -0.2164 -4.7349
38180SOL     OW19096   1.130   0.846   7.860 -0.7396  0.0366 -0.7185
38180SOL    HW119097   1.064   0.848   7.791 -1.8617 -0.2111  0.3115
38180SOL    HW219098   1.080   0.851   7.941  0.4528 -0.9088  0.1219
38181SOL     OW19099   4.666  10.524   5.443 -0.1346 -0.0546  0.3449
38181SOL    HW119100   4.752  10.562   5.463  0.3325 -0.1612 -1.3027
38181SOL    HW219101   4.679  10.430   5.451 -0.2315 -0.0555  0.5153
38182SOL     OW19102   5.924   3.411   0.295  0.2911  0.7794 -0.3565
38182SOL    HW119103   5.920   3.340   0.231  0.6222  0.1290  0.3212
38182SOL    HW219104   5.900   3.490   0.246  1.6083  0.4800 -1.5249
38183SOL     OW19105   5.993   8.421   3.345 -0.5141  0.0045 -0.4602
38183SOL    HW119106   6.068   8.443   3.289 -0.3598 -2.2972 -1.2309
38183SOL    HW219107   5.929   8.382   3.286 -1.8740  0.8376  0.4002
38184SOL     OW19108  10.559  10.403   9.359 -0.2664 -0.4088  0.0644
38184SOL    HW119109  10.584  10.366   9.444  2.0085 -1.0195 -0.7713
38184SOL    HW219110  10.569  10.497   9.370  0.4031 -0.5086  0.3765
38185SOL     OW19111   7.670   9.760   0.604 -0.2922 -0.3017  0.0197
38185SOL    HW119112   7.713   9.843   0.584 -0.5681 -0.0468  0.4571
38185SOL    HW219113   7.581   9.771   0.569 -0.2953 -0.4512 -0.0164
38186SOL     OW19114   6.302   5.267   0.194  0.7312  0.2455  0.0266
38186SOL    HW119115   6.265   5.232   0.275  1.7396  0.6295  0.6765
38186SOL    HW219116   6.253   5.347   0.177 -0.8549 -0.8536 -0.8801
38187SOL     OW19117   1.277   6.583  11.730  0.3025 -0.0384  0.1148
38187SOL    HW119118   1.332   6.509  11.705  0.6205 -0.1924  1.2067
38187SOL    HW219119   1.197   6.543  11.763  0.7926  0.0403  1.4774
38188SOL     OW19120   4.209   1.004   1.823  0.0397  0.2005 -0.0270
38188SOL    HW119121   4.120   1.028   1.795  0.5190  0.1973 -1.6386
38188SOL    HW219122   4.220   0.914   1.792  0.2062 -0.2160  1.1991
38189SOL     OW19123   6.254   0.310   0.238 -0.5461 -0.8895 -0.1878
38189SOL    HW119124   6.228   0.229   0.281 -0.7645  0.5429  2.5752
38189SOL    HW219125   6.199   0.377   0.277  0.7303  0.8355 -1.2250
38190SOL     OW19126   9.278   4.835   0.140  0.0547 -0.7640 -0.1572
38190SOL    HW119127   9.197   4.853   0.092  0.4471 -0.8369 -0.8592
38190SOL    HW219128   9.263   4.750   0.182 -0.1026 -0.9442 -0.5742
38191SOL     OW19129   1.619  11.710   8.307 -0.1062 -0.4116  0.3469
38191SOL    HW119130   1.612  11.657   8.228  2.6334  0.0103 -0.2756
38191SOL    HW219131   1.572  11.790   8.286 -2.6009 -1.7236  0.5821
38192SOL     OW19132   4.710   5.353   6.557 -0.5952  0.3019 -0.0959
38192SOL    HW119133   4.770   5.416   6.597  0.4228 -0.5206 -0.2719
38192SOL    HW219134   4.668   5.402   6.487 -0.0563  0.8829 -0.0295
38193SOL     OW19135   6.226   2.611   2.883 -0.0817  0.2939  0.3177
38193SOL    HW119136   6.142   2.613   2.928 -0.7518 -0.9264 -0.8106
38193SOL    HW219137   6.267   2.530   2.911 -0.1091 -0.0295 -0.5319
38194SOL     OW19138   5.020   5.980   7.656 -0.0607  0.1944  0.2472
38194SOL    HW119139   5.060   5.893   7.660 -2.6963 -1.0875  1.3911
38194SOL    HW219140   5.014   6.000   7.563  2.4674  0.1769  0.0038
38195SOL     OW19141  10.293   0.906   3.055  0.4403  0.5289 -0.0644
38195SOL    HW119142  10.376   0.947   3.032 -0.0905  0.8208 -1.4986
38195SOL    HW219143  10.307   0.813   3.035  1.3262  0.0655  2.3190
38196SOL     OW19144   4.892   8.494   3.746 -0.4165 -0.6898  0.3305
38196SOL    HW119145   4.908   8.523   3.835 -0.3259 -0.4828  0.2455
38196SOL    HW219146   4.910   8.400   3.748  0.8257 -0.4737  0.2364
38197SOL     OW19147   4.909   3.039   6.496 -0.3030 -0.2220  0.0508
38197SOL    HW119148   4.860   3.024   6.576 -1.3682  0.4954 -0.4436
38197SOL    HW219149   4.907   2.955   6.450  0.1579 -0.5839  0.6766
38198SOL     OW19150   4.530  11.781   6.550  0.3791 -0.0534 -0.3453
38198SOL    HW119151   4.441  11.786   6.514  0.0010  0.6310  0.6547
38198SOL    HW219152   4.555  11.872   6.566 -0.5763 -0.2889  3.6828
38199SOL     OW19153  11.267   5.202   0.262  0.0403 -0.0197 -0.3820
38199SOL    HW119154  11.185   5.243   0.235  0.1569  0.5269  0.0853
38199SOL    HW219155  11.276   5.127   0.202 -0.6025  0.1303 -0.6850
38200SOL     OW19156   3.545   0.936   2.383 -0.2376  0.2335 -0.0199
38200SOL    HW119157   3.630   0.950   2.424 -0.3959 -1.1571  0.8732
38200SOL    HW219158   3.552   0.849   2.343 -0.7711  0.7169 -1.2025
38201SOL     OW19159  10.999   2.341  10.256  0.6165  0.8747  0.2866
38201SOL    HW119160  10.984   2.247  10.247  1.6550  0.7696 -0.5356
38201SOL    HW219161  10.948   2.366  10.334  0.6558 -0.4378  0.7635
38202SOL     OW19162   1.525   5.864  10.351  0.2137  0.4554 -0.0984
38202SOL    HW119163   1.449   5.911  10.317  0.7496  0.7360 -0.9521
38202SOL    HW219164   1.595   5.930  10.353  0.6684 -0.0166 -0.1987
38203SOL     OW19165  11.474   9.940   2.680 -0.2617 -0.4513  0.0318
38203SOL    HW119166  11.475   9.904   2.769 -2.4184 -1.3586 -0.2518
38203SOL    HW219167  11.390   9.985   2.673  0.3858  0.6347 -1.1926
38204SOL     OW19168   8.988   8.301   5.772 -0.2214 -0.3436 -0.3976
38204SOL    HW119169   8.977   8.390   5.738  0.0416 -1.0662 -2.5078
38204SOL    HW219170   9.050   8.311   5.844 -0.8656  1.2873 -0.0169
38205SOL     OW19171  11.397   7.555   3.527 -0.0378 -0.5818 -0.2509
38205SOL    HW119172  11.351   7.595   3.454  1.2691 -0.4165 -1.0107
38205SOL    HW219173  11.329   7.506   3.574 -1.0951  0.1613 -0.9603
38206SOL     OW19174   1.511  10.227   9.060 -0.0628  0.3878 -0.2060
38206SOL    HW119175   1.520  10.321   9.045  0.0864  0.1879 -1.4315
38206SOL    HW219176   1.541  10.187   8.979 -0.2572 -0.7213  0.2567
38207SOL     OW19177   6.294   1.493   4.211 -0.4573 -0.3546 -0.1125
38207SOL    HW119178   6.209   1.522   4.245  1.1534  2.1284  2.2415
38207SOL    HW219179   6.310   1.410   4.256 -0.9722 -0.0379  0.6831
38208SOL     OW19180   0.341   8.060  11.627 -0.0137 -0.2583 -0.0918
38208SOL    HW119181   0.382   7.988  11.580 -0.9403 -0.7170 -0.2290
38208SOL    HW219182   0.273   8.091  11.567  1.6275  2.0519 -0.8999
38209SOL     OW19183   9.471   8.089   4.930 -0.5515 -0.5844 -0.2724
38209SOL    HW119184   9.439   8.174   4.959 -1.5930 -0.5168 -1.5219
38209SOL    HW219185   9.489   8.100   4.837  0.3195 -1.4519 -0.2210
38210SOL     OW19186  11.679   5.907   3.996 -0.3064  0.1280  0.2304
38210SOL    HW119187  11.605   5.926   3.938  0.1691 -0.6972 -0.6751
38210SOL    HW219188  11.682   5.811   4.001  1.7880  0.0395 -1.2587
38211SOL     OW19189   1.402  11.592   8.787 -0.2915 -0.4733  0.3289
38211SOL    HW119190   1.439  11.679   8.773 -0.2020 -0.4239  0.8386
38211SOL    HW219191   1.422  11.544   8.707  2.2816 -0.9313  1.1419
38212SOL     OW19192   4.066  10.078  10.849 -0.4936 -0.1090 -0.2227
38212SOL    HW119193   4.148  10.047  10.810 -0.1654  0.5220 -0.0621
38212SOL    HW219194   4.005  10.006  10.837 -0.7679  0.4666 -3.0103
38213SOL     OW19195   0.898   0.569  12.086 -0.0637 -1.0849 -0.1138
38213SOL    HW119196   0.878   0.571  12.179  0.6139 -0.4638  0.0247
38213SOL    HW219197   0.898   0.476  12.063 -3.0932 -1.1432 -0.1505
38214SOL     OW19198   2.835   5.538   8.275 -0.1490  0.2707  0.2003
38214SOL    HW119199   2.852   5.628   8.305 -1.9834  0.3486  1.1818
38214SOL    HW219200   2.756   5.512   8.322 -0.2696 -1.4884 -0.8792
38215SOL     OW19201   7.108   8.706   3.213 -0.4463  0.4534  0.3935
38215SOL    HW119202   7.013   8.700   3.217 -0.5713  0.4864 -1.6358
38215SOL    HW219203   7.138   8.664   3.293 -2.1584  0.4479  1.0704
38216SOL     OW19204   3.657   0.574   7.414 -0.4392 -0.1734 -0.2375
38216SOL    HW119205   3.711   0.614   7.346 -1.0724  1.6501  0.2870
38216SOL    HW219206   3.662   0.480   7.396  0.7327  0.1507 -1.7974
38217SOL     OW19207   1.440   5.852   2.546  0.4770 -0.5822  0.1461
38217SOL    HW119208   1.499   5.790   2.590  2.6688  1.6116  0.5214
38217SOL    HW219209   1.458   5.839   2.452  0.2736 -1.0808  0.1696
38218SOL     OW19210   5.954   3.681   3.204 -0.4654 -0.7617 -0.2594
38218SOL    HW119211   5.919   3.710   3.288 -2.4192 -1.8290 -0.6436
38218SOL    HW219212   5.923   3.745   3.141  2.4157  1.0084 -0.0408
38219SOL     OW19213   3.497   2.686  10.875 -0.2525  0.0004 -0.4469
38219SOL    HW119214   3.586   2.709  10.849 -0.6767  0.4141 -1.5960
38219SOL    HW219215   3.494   2.591  10.870 -0.1513  0.0400 -1.3755
38220SOL     OW19216   4.663   6.280   4.367 -0.0734  0.8421  0.5150
38220SOL    HW119217   4.676   6.375   4.370  0.0579  0.9687 -1.9531
38220SOL    HW219218   4.646   6.256   4.457 -0.0614  3.2124  1.2313
38221SOL     OW19219  11.238  10.750   8.698 -0.4328  0.1869 -0.3937
38221SOL    HW119220  11.286  10.693   8.639 -0.8869 -0.0015 -0.5843
38221SOL    HW219221  11.197  10.691   8.761 -0.4190  0.3469 -0.2304
38222SOL     OW19222   5.553   6.300   5.564  0.1104  0.6701  0.6080
38222SOL    HW119223   5.555   6.353   5.644 -1.1702 -0.9387  1.7680
38222SOL    HW219224   5.596   6.218   5.588  2.1720  1.1169 -1.1985
38223SOL     OW19225  11.251   8.846   3.028  0.0059 -0.4317 -0.6177
38223SOL    HW119226  11.315   8.858   3.098 -1.7846 -1.9476  1.3951
38223SOL    HW219227  11.302   8.812   2.955  1.6635 -0.6401  0.5756
38224SOL     OW19228   5.788   9.849   7.811 -0.0141 -0.3417 -0.6305
38224SOL    HW119229   5.878   9.873   7.787  1.6158 -4.3361  0.5820
38224SOL    HW219230   5.758   9.795   7.738 -0.5698 -0.8248 -0.0508
38225SOL     OW19231   9.744  11.866   7.967 -0.0134  0.4340 -0.3078
38225SOL    HW119232   9.798  11.825   8.035 -0.6009  2.6794  1.6795
38225SOL    HW219233   9.657  11.827   7.978 -0.4450  1.7010  1.2398
38226SOL     OW19234   1.647   0.441  11.581  0.5618 -0.0037 -0.3429
38226SOL    HW119235   1.689   0.454  11.496  0.5471  0.2165 -0.3174
38226SOL    HW219236   1.601   0.523  11.597  0.5163 -0.0681 -0.1491
38227SOL     OW19237   7.716   7.969  11.758  0.3055 -0.2766 -0.1251
38227SOL    HW119238   7.675   8.055  11.766  2.4466  0.7421  0.7172
38227SOL    HW219239   7.791   7.972  11.817  2.5817 -1.3767 -2.7197
38228SOL     OW19240   1.345   6.576  12.033  0.0380  0.1903 -0.1535
38228SOL    HW119241   1.293   6.656  12.031  0.3287  0.3703 -0.8309
38228SOL    HW219242   1.281   6.506  12.024 -0.1045  0.4046 -0.8282
38229SOL     OW19243   9.115   5.033   7.714 -0.4314  0.0628 -0.2189
38229SOL    HW119244   9.201   5.021   7.674 -0.0901 -0.5435  0.6640
38229SOL    HW219245   9.101   4.953   7.765 -1.8627 -0.1908 -0.9619
38230SOL     OW19246   8.974   5.022   9.105  0.1450  0.2794  0.0745
38230SOL    HW119247   8.894   5.010   9.054 -1.3688 -0.8790  2.5284
38230SOL    HW219248   8.973   4.949   9.167  2.8809  0.5321  0.5061
38231SOL     OW19249  10.367   8.036   2.533 -0.4290  0.1364  0.5445
38231SOL    HW119250  10.395   7.945   2.541 -0.9404 -0.0595  0.1878
38231SOL    HW219251  10.447   8.087   2.538 -0.0332 -0.3927 -0.2685
38232SOL     OW19252   8.027   6.666   0.624  0.1540  0.4640 -0.4579
38232SOL    HW119253   8.081   6.735   0.662  1.1899 -0.8228  0.4978
38232SOL    HW219254   8.049   6.588   0.674 -1.2836 -0.4898 -1.2443
38233SOL     OW19255   1.984  11.814   6.162 -0.5758 -0.0674 -0.1673
38233SOL    HW119256   2.021  11.761   6.091 -0.4896 -0.5350  0.2280
38233SOL    HW219257   1.894  11.831   6.134 -0.7321 -0.7714 -0.1001
38234SOL     OW19258   7.715   6.745   8.052 -0.5459 -0.3796 -0.6303
38234SOL    HW119259   7.672   6.680   8.108  1.7571 -0.6803  0.9544
38234SOL    HW219260   7.652   6.817   8.046 -0.8643 -0.1960  2.7171
38235SOL     OW19261   5.355  11.298   5.965  0.1698  0.1615 -0.4061
38235SOL    HW119262   5.431  11.296   5.907 -1.0459  2.6670 -2.2755
38235SOL    HW219263   5.294  11.234   5.928  0.6564 -0.5953  0.0761
38236SOL     OW19264   4.475   2.312   8.086 -0.1239 -0.4103  0.0233
38236SOL    HW119265   4.507   2.243   8.144  1.0487 -0.4342 -0.6120
38236SOL    HW219266   4.437   2.378   8.144  0.5038 -0.7010  0.7713
38237SOL     OW19267   0.272  11.153  10.783 -0.0476 -0.4440 -0.2117
38237SOL    HW119268   0.194  11.115  10.824 -0.3243  0.2276 -0.1072
38237SOL    HW219269   0.340  11.148  10.851  0.6026 -2.8481 -0.9241
38238SOL     OW19270   7.742  11.656   2.648  0.2075  0.4710 -0.1620
38238SOL    HW119271   7.830  11.620   2.653 -0.3161 -0.6558  1.7580
38238SOL    HW219272   7.729  11.699   2.733 -0.6695  1.7119 -0.8887
38239SOL     OW19273  10.054   0.879   8.669 -0.4501 -0.1219  0.0460
38239SOL    HW119274  10.078   0.942   8.737  1.7661  0.6649 -1.3454
38239SOL    HW219275  10.093   0.797   8.698 -0.8703 -0.1653  0.4878
38240SOL     OW19276   2.718   7.763   5.742  0.5435 -0.1686 -0.3527
38240SOL    HW119277   2.707   7.693   5.677  0.2876  0.2207 -0.7378
38240SOL    HW219278   2.809   7.755   5.769  0.3545 -1.0456  0.0737
38241SOL     OW19279   5.586   0.323   8.023 -0.1085  0.0628  0.0122
38241SOL    HW119280   5.637   0.286   7.951 -0.2954  0.0619 -0.1218
38241SOL    HW219281   5.598   0.417   8.016 -0.6591  0.1080 -0.4288
38242SOL     OW19282  10.469   3.528   1.623  0.6448  0.4729 -0.2137
38242SOL    HW119283  10.492   3.620   1.610  0.4626  0.6794  0.8200
38242SOL    HW219284  10.543   3.491   1.671  0.7858  0.0342 -0.7606
38243SOL     OW19285   5.677   3.492   9.284  0.2061  0.3834 -0.3529
38243SOL    HW119286   5.737   3.555   9.244 -0.1400  1.0987  0.2220
38243SOL    HW219287   5.730   3.414   9.300  0.7070  0.6247 -0.8439
38244SOL     OW19288   3.565   5.205  11.692 -0.2470 -0.8549  0.3734
38244SOL    HW119289   3.591   5.185  11.602  2.8395 -0.1057  0.9984
38244SOL    HW219290   3.500   5.274  11.683  1.4024  0.5846 -1.2768
38245SOL     OW19291   1.294   1.325  11.517 -0.1089 -0.3920 -0.3281
38245SOL    HW119292   1.233   1.262  11.479 -1.5513  0.9924 -0.4489
38245SOL    HW219293   1.292   1.399  11.456 -2.4488  1.8757  2.2186
38246SOL     OW19294   4.971  10.308   3.787 -0.3768  0.3504  0.5642
38246SOL    HW119295   4.918  10.273   3.858 -0.5503 -0.2109  0.1683
38246SOL    HW219296   5.062  10.293   3.815 -0.4460 -0.6443  0.3094
38247SOL     OW19297   5.899   3.971   0.204  0.2329  0.4908  0.1186
38247SOL    HW119298   5.861   3.999   0.121 -0.8099  0.3795  0.5286
38247SOL    HW219299   5.959   3.901   0.181 -2.4457 -1.8719 -0.3446
38248SOL     OW19300   8.976   5.425  11.564  0.0931  0.2479  0.0750
38248SOL    HW119301   8.884   5.445  11.552  0.1021  1.2507  1.4811
38248SOL    HW219302   9.008   5.404  11.476 -1.5182 -0.4010 -0.3895
38249SOL     OW19303   2.795   1.785   5.673  0.1370 -0.1110 -0.5498
38249SOL    HW119304   2.728   1.809   5.609 -0.8187 -0.8322  0.1516
38249SOL    HW219305   2.752   1.798   5.758  1.6471  1.6262  0.0061
38250SOL     OW19306   9.864  10.045   0.134  0.0416  0.0083  0.3764
38250SOL    HW119307   9.920  10.067   0.060 -1.2959 -1.1630 -1.0447
38250SOL    HW219308   9.864  10.124   0.188  0.5430  1.1434 -1.2053
38251SOL     OW19309   6.073   7.061   7.793  0.8634  0.3189 -0.2683
38251SOL    HW119310   6.151   7.103   7.830 -0.2472  0.9161  1.5058
38251SOL    HW219311   6.018   7.041   7.869 -0.7937  0.0434 -1.4885
38252SOL     OW19312   5.420   1.007   7.639  0.4245 -1.2753  0.0462
38252SOL    HW119313   5.345   0.981   7.586 -0.4097  1.6289 -0.3824
38252SOL    HW219314   5.488   1.028   7.575 -0.2222  1.1541  0.0258
38253SOL     OW19315  11.129   8.348   6.073 -0.2177 -0.2070  0.1349
38253SOL    HW119316  11.188   8.357   5.999  0.9362  0.1792  1.0747
38253SOL    HW219317  11.184   8.315   6.145 -0.8813  1.1561  1.3295
38254SOL     OW19318  11.341   4.804  11.013 -0.5879  0.0878 -0.3452
38254SOL    HW119319  11.351   4.876  10.951  1.2106 -0.3350 -0.6037
38254SOL    HW219320  11.250   4.810  11.043 -1.0356  1.2663 -1.8200
38255SOL     OW19321  11.559   4.868   7.682  0.1531 -0.0805  0.2922
38255SOL    HW119322  11.522   4.792   7.638  1.7477 -0.6245 -0.1702
38255SOL    HW219323  11.526   4.862   7.772 -0.9512 -0.4521 -0.1162
38256SOL     OW19324  10.953   5.364  12.100 -0.0356  0.3781 -0.1250
38256SOL    HW119325  10.972   5.337  12.190 -0.0684  3.4797  0.9201
38256SOL    HW219326  10.859   5.383  12.100 -1.0333 -3.4408 -2.0535
38257SOL     OW19327   8.631  11.739  11.201  0.2629 -0.0039 -0.3048
38257SOL    HW119328   8.559  11.746  11.139  1.1893 -0.7027 -1.4900
38257SOL    HW219329   8.708  11.723  11.147  0.9329 -1.7174  1.0853
38258SOL     OW19330   5.450   2.542   2.890  0.6249  0.1981  0.8095
38258SOL    HW119331   5.507   2.616   2.909  0.3554  0.1232  1.9786
38258SOL    HW219332   5.435   2.500   2.975 -1.7735  0.6609  0.6987
38259SOL     OW19333   0.761   6.272   7.487  0.6153 -0.2475 -0.6113
38259SOL    HW119334   0.749   6.337   7.417  0.4267 -0.2586 -0.5875
38259SOL    HW219335   0.815   6.317   7.552  0.9683 -0.3054 -0.8570
38260SOL     OW19336   0.673   0.888   1.370 -0.3126  0.2490  0.4709
38260SOL    HW119337   0.578   0.896   1.371 -0.2233  1.6498 -0.1020
38260SOL    HW219338   0.705   0.973   1.400  0.7714  0.3981 -0.9827
38261SOL     OW19339   2.849   0.251   4.568  0.2635  0.2608 -0.2079
38261SOL    HW119340   2.805   0.331   4.598  0.1674  0.3741 -0.6464
38261SOL    HW219341   2.910   0.229   4.639 -1.1231 -0.4061  0.8214
38262SOL     OW19342  10.651   9.490   7.907 -0.0759 -0.0921 -0.0311
38262SOL    HW119343  10.666   9.583   7.893 -0.9878  0.1691  0.6021
38262SOL    HW219344  10.614   9.485   7.995  1.8539 -1.2712  0.7700
38263SOL     OW19345   4.346   0.089   7.519 -0.0139 -0.3456 -0.0790
38263SOL    HW119346   4.317   0.172   7.482  2.1194  0.3833 -0.2196
38263SOL    HW219347   4.277   0.065   7.581  0.0830  2.3909  1.2349
38264SOL     OW19348   1.692   9.234   8.019  0.1767 -0.4584 -0.1242
38264SOL    HW119349   1.676   9.162   8.080  0.1620  0.1729  0.6375
38264SOL    HW219350   1.758   9.288   8.063  0.8523 -0.4757 -1.0863
38265SOL     OW19351   2.558   8.896   2.423 -0.7424 -0.0989 -0.3699
38265SOL    HW119352   2.474   8.850   2.420 -1.1054  0.5073  0.2515
38265SOL    HW219353   2.560   8.947   2.342 -1.3522  0.5119 -0.0140
38266SOL     OW19354   1.007   8.057   3.710 -0.4911  0.0166  0.0217
38266SOL    HW119355   1.011   8.153   3.706 -1.2632  0.0640  0.2530
38266SOL    HW219356   1.088   8.028   3.667 -1.3836  0.7298 -2.3456
38267SOL     OW19357   4.017  10.030  11.263 -0.0277 -0.3426 -0.3856
38267SOL    HW119358   4.081   9.961  11.250  0.3556  0.0044 -0.3518
38267SOL    HW219359   4.020  10.048  11.357  0.1793  0.0133 -0.4587
38268SOL     OW19360  10.018   8.469   5.226 -0.1918  0.0897 -0.3555
38268SOL    HW119361  10.016   8.534   5.296 -0.8618  0.2599 -0.5226
38268SOL    HW219362  10.096   8.490   5.176  0.2078  0.0638  0.2435
38269SOL     OW19363   4.904  10.420   1.580 -0.0691 -0.4655  0.1356
38269SOL    HW119364   4.941  10.353   1.639 -1.4938  1.1304  3.0735
38269SOL    HW219365   4.974  10.484   1.570  0.1258 -0.6492  0.3052
38270SOL     OW19366   3.829   1.268   6.467 -0.0964 -0.5663  0.1706
38270SOL    HW119367   3.785   1.303   6.389  1.8739  1.5523 -0.1030
38270SOL    HW219368   3.790   1.317   6.540 -0.3199 -0.8898  0.2695
38271SOL     OW19369   8.561   3.253   6.537 -0.1610  0.0378 -0.5311
38271SOL    HW119370   8.482   3.239   6.589  0.8103  0.3313  1.1201
38271SOL    HW219371   8.621   3.298   6.597  0.6460  1.4166 -2.2776
38272SOL     OW19372   3.069  10.046   5.083  0.6543  0.4438 -0.4185
38272SOL    HW119373   3.059   9.965   5.034 -1.4543  0.0534  0.5153
38272SOL    HW219374   3.084  10.018   5.174 -3.3814  0.8658  0.5734
38273SOL     OW19375  11.069  11.886  11.975  0.3087  0.3939  0.2777
38273SOL    HW119376  11.130  11.844  12.035 -0.2468 -0.7333  0.0694
38273SOL    HW219377  11.118  11.960  11.939  1.5964 -0.5519  0.0275
38274SOL     OW19378   0.368   5.591   4.374  0.0318 -0.1869  1.1557
38274SOL    HW119379   0.431   5.634   4.317  1.1869 -0.0165  2.5137
38274SOL    HW219380   0.289   5.645   4.366 -0.6282 -1.3833 -1.9135
38275SOL     OW19381   6.722  10.202   2.270 -0.0033  0.1726  0.3965
38275SOL    HW119382   6.769  10.121   2.290  2.1533  0.7698 -1.8422
38275SOL    HW219383   6.787  10.271   2.284 -0.6618  1.1754 -1.2756
38276SOL     OW19384   5.652  10.701   2.644 -0.4713 -0.5737  0.2650
38276SOL    HW119385   5.607  10.634   2.694  1.4986 -2.2115 -0.0543
38276SOL    HW219386   5.740  10.705   2.681  0.0478  0.4420 -0.9877
38277SOL     OW19387  11.204   3.477   0.875  0.5123  0.2606 -0.6883
38277SOL    HW119388  11.234   3.514   0.957 -1.9097 -0.0154  0.4100
38277SOL    HW219389  11.255   3.522   0.808  1.9809  1.0668  0.9118
38278SOL     OW19390   6.860   2.303   5.189  0.1136 -0.0831 -0.1099
38278SOL    HW119391   6.831   2.285   5.278 -1.4722 -0.1744 -0.6135
38278SOL    HW219392   6.952   2.277   5.188  0.4406  0.8455  1.7502
38279SOL     OW19393   2.292  11.386   6.524 -0.3159 -0.0732  0.4787
38279SOL    HW119394   2.290  11.402   6.430  0.4186 -0.5988  0.3685
38279SOL    HW219395   2.364  11.325   6.537 -1.7312 -1.7132  1.1187
38280SOL     OW19396  11.364   2.344   1.714  0.1335 -0.5341 -0.2521
38280SOL    HW119397  11.310   2.291   1.656 -2.7815  1.2623  0.6244
38280SOL    HW219398  11.379   2.288   1.791  0.3294 -1.3720 -0.8906
38281SOL     OW19399   1.603   8.527   4.179  0.3387 -0.2988 -0.7015
38281SOL    HW119400   1.600   8.618   4.150  1.5092 -0.4468 -1.3342
38281SOL    HW219401   1.534   8.521   4.245 -0.9392  0.5863 -1.9028
38282SOL     OW19402   4.003   0.084   7.161  0.1418 -0.3765 -0.0252
38282SOL    HW119403   3.972   0.174   7.162 -0.4604 -0.5843  0.7936
38282SOL    HW219404   3.930   0.034   7.124  0.1358 -0.6425  0.3419
38283SOL     OW19405  10.392   9.189  11.431 -0.3312  0.0017 -0.1214
38283SOL    HW119406  10.384   9.271  11.479 -1.2369 -0.9712  1.4735
38283SOL    HW219407  10.335   9.200  11.355 -1.5012  0.3746  0.7877
38284SOL     OW19408   9.518  11.261   7.367 -0.2322 -0.9382  0.0276
38284SOL    HW119409   9.513  11.243   7.273  0.6958 -0.8953 -0.0378
38284SOL    HW219410   9.605  11.297   7.381 -1.6386  2.7513  0.3111
38285SOL     OW19411  12.109   6.923   4.009 -0.1991 -0.6064 -0.0627
38285SOL    HW119412  12.056   6.952   3.935 -0.7532 -2.4184 -0.4392
38285SOL    HW219413  12.115   6.828   3.998  0.4416 -0.8169  1.7444
38286SOL     OW19414   6.581  10.172   5.321 -0.0653 -0.2350 -0.8853
38286SOL    HW119415   6.595  10.155   5.414 -0.6547 -1.4070 -0.9841
38286SOL    HW219416   6.654  10.227   5.294  0.3478 -0.2603  0.1751
38287SOL     OW19417   1.373   2.588   8.052 -0.4993  0.4743  0.5769
38287SOL    HW119418   1.379   2.522   7.982  0.6407  0.5216  0.6194
38287SOL    HW219419   1.423   2.551   8.125 -1.8214  0.3497  1.4481
38288SOL     OW19420   9.227   1.617   5.765  0.2726  0.4783 -0.9591
38288SOL    HW119421   9.293   1.617   5.835  1.1055 -0.5394 -1.6899
38288SOL    HW219422   9.223   1.708   5.735  0.6603  0.7290 -0.2694
38289SOL     OW19423   5.393   7.018   2.561  0.4038  0.4833 -0.1286
38289SOL    HW119424   5.359   6.997   2.474 -0.1085  0.1824  0.1367
38289SOL    HW219425   5.339   6.966   2.620  1.0961  0.2842  0.3350
38290SOL     OW19426   5.824  11.874   6.881 -0.4246 -0.3079 -0.0126
38290SOL    HW119427   5.834  11.968   6.866 -0.9088 -0.4137 -1.1375
38290SOL    HW219428   5.733  11.863   6.906 -0.2285 -0.4228  0.6608
38291SOL     OW19429  11.302   5.156   0.962  0.5086  0.4194  0.2889
38291SOL    HW119430  11.234   5.198   0.910  0.6348  0.8133  0.4343
38291SOL    HW219431  11.345   5.228   1.008 -1.0495 -0.0607  2.7107
38292SOL     OW19432   6.843   3.437   7.612 -0.2695  0.5902 -0.3540
38292SOL    HW119433   6.750   3.429   7.634 -0.3661 -0.7856 -1.2063
38292SOL    HW219434   6.881   3.480   7.689 -1.4248  0.2673  0.4361
38293SOL     OW19435   1.418   1.925  10.305  0.0876  0.2911  0.0171
38293SOL    HW119436   1.338   1.882  10.337 -0.5202 -0.4788 -2.3722
38293SOL    HW219437   1.478   1.852  10.286  0.0704  0.6524 -1.4724
38294SOL     OW19438   7.958   6.059  10.756  0.3653  0.2019 -0.1670
38294SOL    HW119439   7.913   6.070  10.672  0.8487 -0.4699 -0.5304
38294SOL    HW219440   7.895   6.088  10.822 -1.0788 -1.7988 -0.5513
38295SOL     OW19441   5.550   8.237   6.153  0.4908  0.6537  0.1465
38295SOL    HW119442   5.597   8.254   6.235  1.8312 -0.1315 -0.4227
38295SOL    HW219443   5.512   8.322   6.130 -0.4542  0.7480  1.8869
38296SOL     OW19444   7.474   8.461  10.308  0.2173  0.4855  0.2198
38296SOL    HW119445   7.467   8.375  10.349  0.2702  0.4451  0.1444
38296SOL    HW219446   7.385   8.496  10.312  0.4359  0.9544  1.3811
38297SOL     OW19447   7.169  10.036   3.849 -0.1797  0.1075  0.4071
38297SOL    HW119448   7.097  10.005   3.905 -0.8213  1.6554  0.4908
38297SOL    HW219449   7.219  10.095   3.906  0.5844 -0.1904  0.0493
38298SOL     OW19450   5.793   6.064   3.557  0.1394  0.2123 -0.1208
38298SOL    HW119451   5.726   6.061   3.489  1.6092 -1.2871 -1.5876
38298SOL    HW219452   5.842   6.144   3.538 -0.7634  0.9635  0.5639
38299SOL     OW19453  11.794  12.006   3.757 -0.0891  0.1449 -0.2747
38299SOL    HW119454  11.781  12.096   3.790 -0.6741 -0.3209  0.8347
38299SOL    HW219455  11.860  11.969   3.816  1.9706  0.5835 -2.2093
38300SOL     OW19456   6.089   6.120  10.554  0.0281  0.0529 -0.3171
38300SOL    HW119457   6.016   6.114  10.617  0.8025 -0.9967  0.5147
38300SOL    HW219458   6.065   6.060  10.484  0.2512 -0.5877  0.1437
38301SOL     OW19459   4.612   8.717   3.674 -0.3760 -0.3885  0.1136
38301SOL    HW119460   4.552   8.647   3.648  1.0928 -1.8840  0.5420
38301SOL    HW219461   4.676   8.721   3.603 -0.3951  0.4660  0.1400
38302SOL     OW19462   6.135  11.840  10.688 -0.1912  0.8045  0.1312
38302SOL    HW119463   6.224  11.851  10.654 -0.7093  2.3676 -0.8405
38302SOL    HW219464   6.080  11.839  10.610 -1.1397  1.1112  0.7827
38303SOL     OW19465  10.298   4.688   4.856  0.3728 -0.2100  0.1654
38303SOL    HW119466  10.353   4.709   4.931 -1.2624  0.3848  1.2614
38303SOL    HW219467  10.215   4.661   4.894 -0.3431 -0.3782 -1.4338
38304SOL     OW19468   6.537   2.666  11.276 -0.2463  0.2022  0.1985
38304SOL    HW119469   6.594   2.612  11.330  0.0425  1.0603  0.7617
38304SOL    HW219470   6.591   2.691  11.201  1.1906  3.3410  2.0408
38305SOL     OW19471  10.682   5.250   2.381  0.4174  0.0487 -0.3587
38305SOL    HW119472  10.740   5.228   2.307 -0.7395  0.3575 -1.3832
38305SOL    HW219473  10.610   5.187   2.375  0.3332  0.0457  0.5496
38306SOL     OW19474   8.572  11.312   0.636 -0.2370  0.4614 -0.1627
38306SOL    HW119475   8.632  11.289   0.707 -1.0992 -0.6982  0.2241
38306SOL    HW219476   8.503  11.246   0.641 -0.7857  0.9013 -1.5188
38307SOL     OW19477   8.071   8.997   3.888  0.5666  0.0148 -0.0717
38307SOL    HW119478   7.990   8.949   3.904  1.0551  0.1292  3.2948
38307SOL    HW219479   8.065   9.074   3.944  2.3121  0.9331 -1.0585
38308SOL     OW19480   2.236   7.954   2.644  0.0369  0.7388 -0.4851
38308SOL    HW119481   2.230   7.944   2.739 -1.2101  0.0443 -0.6206
38308SOL    HW219482   2.162   8.011   2.621  0.5537  1.2147 -1.0065
38309SOL     OW19483  10.663   6.352   3.692  0.2381 -0.1134 -0.0481
38309SOL    HW119484  10.654   6.257   3.684  1.1931 -0.4342  1.8971
38309SOL    HW219485  10.606   6.375   3.765 -0.5889  0.9538 -0.9996
38310SOL     OW19486   7.019  11.905   8.910 -0.5122  0.3867  0.7909
38310SOL    HW119487   6.942  11.950   8.946 -0.3870  0.1266  1.4012
38310SOL    HW219488   7.089  11.923   8.972 -0.3065 -0.1291  0.7142
38311SOL     OW19489   7.676  11.198   1.505  0.1259  0.2302  0.2232
38311SOL    HW119490   7.764  11.232   1.485 -0.5940  1.7596 -0.5250
38311SOL    HW219491   7.637  11.182   1.420 -0.9396  1.2734  0.4937
38312SOL     OW19492  10.064  11.168   2.174  0.1284 -0.0690  0.2782
38312SOL    HW119493  10.046  11.196   2.264 -1.5558  0.7063 -0.2546
38312SOL    HW219494  10.059  11.073   2.178  0.5964 -0.0729  1.1038
38313SOL     OW19495   2.020   6.034   2.212  0.0854 -0.3641 -0.1675
38313SOL    HW119496   2.096   6.053   2.157 -0.7378 -0.5761 -1.4220
38313SOL    HW219497   1.970   6.115   2.212  1.1325  0.3469  2.0963
38314SOL     OW19498  10.234   4.798   5.434 -0.1167  0.1014 -0.1512
38314SOL    HW119499  10.288   4.875   5.449  0.4606 -0.1742 -0.7597
38314SOL    HW219500  10.152   4.816   5.481  0.2040  0.8552  0.1310
38315SOL     OW19501   8.991   3.720   9.567 -0.8078 -0.1758 -0.1256
38315SOL    HW119502   8.899   3.693   9.562 -0.8536  0.0981 -0.8500
38315SOL    HW219503   8.987   3.810   9.599 -0.8070 -0.0931 -0.3549
38316SOL     OW19504   5.026   1.353   2.980 -0.0176  0.1164  0.1278
38316SOL    HW119505   4.998   1.437   2.943 -0.5732  0.7924  2.0054
38316SOL    HW219506   5.114   1.340   2.945 -0.5538  0.6412 -1.5139
38317SOL     OW19507  11.634   7.150   9.586  0.7768  0.0701 -0.3447
38317SOL    HW119508  11.660   7.191   9.503 -0.7002 -1.7764 -1.8086
38317SOL    HW219509  11.600   7.222   9.639 -0.1953  1.0012 -2.1635
38318SOL     OW19510   8.197   2.572   8.282  0.0747 -0.1490  0.4360
38318SOL    HW119511   8.184   2.478   8.266  4.2548 -0.5936 -1.5663
38318SOL    HW219512   8.163   2.614   8.203  1.3641 -0.3610 -0.2542
38319SOL     OW19513  10.385   4.721   6.000  0.1948 -0.0110 -0.0276
38319SOL    HW119514  10.461   4.717   6.058  0.7691  1.5151 -0.6309
38319SOL    HW219515  10.342   4.803   6.024 -1.1892 -0.7607  0.1781
38320SOL     OW19516   5.037   3.524   8.090  0.5831  0.1831 -0.1842
38320SOL    HW119517   4.947   3.532   8.123  1.2922  1.1768  1.6366
38320SOL    HW219518   5.055   3.609   8.051  0.7732  0.0258 -0.4344
38321SOL     OW19519   9.812   4.894   7.292 -0.0411 -0.0284 -0.2153
38321SOL    HW119520   9.787   4.962   7.354 -1.0919  0.1489 -0.8116
38321SOL    HW219521   9.851   4.826   7.346  0.1404  0.6334  0.4985
38322SOL     OW19522   3.560  10.576   0.314  0.0288  0.1647  0.0102
38322SOL    HW119523   3.654  10.558   0.307 -0.1138 -1.0006  0.8190
38322SOL    HW219524   3.539  10.556   0.405 -0.9836  0.5783 -0.1208
38323SOL     OW19525   0.877   9.488   6.121 -0.6455 -0.0964  0.0787
38323SOL    HW119526   0.863   9.403   6.078 -1.0958 -0.2236  0.4716
38323SOL    HW219527   0.905   9.546   6.050  0.8251 -0.8438 -0.0123
38324SOL     OW19528   9.742   6.614   8.494 -0.7372  0.1625 -0.0630
38324SOL    HW119529   9.699   6.697   8.510  0.1855  1.3848 -3.1206
38324SOL    HW219530   9.818   6.614   8.553 -0.8744  1.3804  0.1293
38325SOL     OW19531   2.017   7.878   6.851  0.0317  0.0727 -0.4715
38325SOL    HW119532   2.012   7.968   6.819 -1.2031 -0.0267 -0.5774
38325SOL    HW219533   1.997   7.885   6.944 -0.3460 -0.1281 -0.5383
38326SOL     OW19534   1.705   3.529   7.477  0.4383 -0.4898  0.0844
38326SOL    HW119535   1.749   3.547   7.394  0.3317 -0.5767  0.0101
38326SOL    HW219536   1.752   3.584   7.540 -0.5418  0.8573 -0.3188
38327SOL     OW19537   9.823   2.762  10.017 -0.7016 -0.0239 -0.4956
38327SOL    HW119538   9.853   2.755   9.927  4.2935 -0.9288  0.8906
38327SOL    HW219539   9.840   2.853  10.041 -4.0860  0.8374 -0.8758
38328SOL     OW19540   5.640   0.018   1.494 -0.6464  0.4956 -0.7592
38328SOL    HW119541   5.702   0.003   1.565  0.7761 -2.6292 -2.4443
38328SOL    HW219542   5.554   0.002   1.532  0.1582 -2.2620  0.0959
38329SOL     OW19543   2.924   3.215   1.327 -0.0985  0.0670  0.3078
38329SOL    HW119544   3.001   3.272   1.327 -0.4863  0.6212  1.5063
38329SOL    HW219545   2.952   3.136   1.282  1.0594  0.4070  0.4162
38330SOL     OW19546   9.425   4.451  10.043  0.3778 -0.0414  0.1259
38330SOL    HW119547   9.497   4.496  10.086 -0.3861  0.2639  1.1316
38330SOL    HW219548   9.374   4.413  10.115 -0.8429  0.3352 -0.5065
38331SOL     OW19549  10.828   1.342   0.225 -0.1511 -0.1156 -0.0092
38331SOL    HW119550  10.845   1.425   0.181  1.0759 -0.5401 -0.3798
38331SOL    HW219551  10.736   1.347   0.252 -0.3689  0.9533 -0.8897
38332SOL     OW19552  10.554   1.563  10.073  0.0377 -0.0031  0.3088
38332SOL    HW119553  10.549   1.616   9.994 -1.4802 -0.7714 -0.1516
38332SOL    HW219554  10.626   1.502  10.057  2.2573  2.2024  1.1036
38333SOL     OW19555   8.180   7.138   6.724 -0.3159  0.6039  0.1980
38333SOL    HW119556   8.263   7.177   6.694 -0.1736  1.1581  1.2576
38333SOL    HW219557   8.206   7.078   6.794 -0.8086  0.7549  0.5112
38334SOL     OW19558   2.121   9.107   0.445 -0.7168  0.1704  0.1698
38334SOL    HW119559   2.115   9.029   0.390  1.1311 -1.0946  1.6178
38334SOL    HW219560   2.213   9.111   0.471 -1.3562  1.1108  2.5487
38335SOL     OW19561   7.575   1.655   1.158  0.8703  0.0107  0.2890
38335SOL    HW119562   7.569   1.587   1.091  0.3410  1.1108 -0.8233
38335SOL    HW219563   7.491   1.651   1.204  0.1586  0.9639 -0.8634
38336SOL     OW19564  10.300   3.855   4.610  0.1208 -0.6967  0.2097
38336SOL    HW119565  10.363   3.815   4.551 -0.6885 -0.1711 -1.0645
38336SOL    HW219566  10.335   3.943   4.627  1.0348 -1.3065  1.6343
38337SOL     OW19567   7.622   3.523   7.654  0.0688  0.1172 -0.2493
38337SOL    HW119568   7.627   3.431   7.680  0.7260  0.5968  1.4069
38337SOL    HW219569   7.608   3.520   7.559 -3.0995 -1.7319  0.1293
38338SOL     OW19570  11.057   4.668   9.940  0.3639  0.8998  0.2204
38338SOL    HW119571  11.151   4.649   9.949 -0.1992 -2.7666 -0.0916
38338SOL    HW219572  11.025   4.672  10.030  0.3623 -1.1029  0.3536
38339SOL     OW19573   9.279   8.595  11.541  0.1829 -0.6337 -0.2588
38339SOL    HW119574   9.258   8.687  11.557  0.3565 -0.2524 -2.0390
38339SOL    HW219575   9.339   8.572  11.612  0.7226  0.8499 -0.1967
38340SOL     OW19576   7.834   3.073  11.119  0.2747  0.1625  0.0439
38340SOL    HW119577   7.808   3.071  11.028 -2.4054  1.6647  0.6869
38340SOL    HW219578   7.786   3.001  11.160 -0.1641  0.7631  0.6122
38341SOL     OW19579   2.748  11.009  11.197  0.5717 -0.6840  0.2528
38341SOL    HW119580   2.746  11.101  11.170 -0.2653 -0.3191  1.4774
38341SOL    HW219581   2.764  10.961  11.116  0.9282  0.5322 -0.4249
38342SOL     OW19582   5.941   5.379   5.007 -0.4632  0.0500 -0.7355
38342SOL    HW119583   6.037   5.378   5.016 -0.2998  0.3757 -2.1773
38342SOL    HW219584   5.917   5.286   5.012  0.1035 -0.1742 -1.7468
38343SOL     OW19585   0.212   8.070  10.054  0.0192 -0.6411 -0.2919
38343SOL    HW119586   0.122   8.054  10.023 -0.6653 -0.0300  1.2734
38343SOL    HW219587   0.219   8.016  10.133  0.9159 -0.3970 -0.1999
38344SOL     OW19588  11.387  10.263   4.772  0.1453  0.3656 -0.1210
38344SOL    HW119589  11.449  10.243   4.702 -0.1016  0.1279 -0.2695
38344SOL    HW219590  11.399  10.192   4.836  2.3019  1.9430  1.3940
38345SOL     OW19591   3.745   4.786   8.249  0.1054  0.1035  0.6555
38345SOL    HW119592   3.830   4.826   8.266  0.0982 -0.1231  1.2180
38345SOL    HW219593   3.697   4.853   8.200  0.7308  0.0984  0.0151
38346SOL     OW19594   0.439   3.988   2.150  0.0981  0.0837 -0.0459
38346SOL    HW119595   0.406   3.898   2.145 -0.2424  0.2458 -0.7723
38346SOL    HW219596   0.517   3.981   2.205 -0.6013 -0.4573  0.9232
38347SOL     OW19597   0.259   9.037   9.453 -0.1551  0.6092 -0.1052
38347SOL    HW119598   0.327   9.029   9.386 -1.3992  2.0630 -1.6235
38347SOL    HW219599   0.307   9.066   9.532  1.1884 -0.0441 -0.6527
38348SOL     OW19600  11.385   5.367   6.619  0.0690 -0.0142 -0.0679
38348SOL    HW119601  11.303   5.318   6.617  0.0062  0.0900 -0.0142
38348SOL    HW219602  11.385   5.411   6.704 -0.9189  1.8640 -0.9695
38349SOL     OW19603   9.104   3.334   7.090  0.3738  0.1402  0.3922
38349SOL    HW119604   9.095   3.339   6.995 -0.4178 -0.6103  0.4148
38349SOL    HW219605   9.073   3.419   7.121 -1.1709 -0.2759  0.0744
38350SOL     OW19606  10.550   2.192   9.733 -0.4389 -0.1975 -0.0105
38350SOL    HW119607  10.622   2.241   9.773 -1.2677 -0.3307  1.7224
38350SOL    HW219608  10.593   2.136   9.667  0.6220  2.1501 -1.4303
38351SOL     OW19609   2.710   5.763   8.814 -0.3246  0.3552 -1.0060
38351SOL    HW119610   2.663   5.846   8.810  0.4123  0.7465 -1.6285
38351SOL    HW219611   2.689   5.728   8.901  0.7176  2.0043 -0.0426
38352SOL     OW19612   2.990  10.015  11.221  0.4671  0.2337 -0.0181
38352SOL    HW119613   3.058   9.949  11.236 -0.7907 -1.7657 -2.2779
38352SOL    HW219614   3.021  10.064  11.144 -0.6738 -0.9154 -1.2826
38353SOL     OW19615  10.752   8.247   3.668  0.0059 -0.1622 -0.0765
38353SOL    HW119616  10.747   8.214   3.758  1.7091 -1.1390 -0.2937
38353SOL    HW219617  10.837   8.290   3.663  0.1332 -0.5411 -1.3451
38354SOL     OW19618   1.717   6.460  11.636  0.2818 -0.0019  0.1706
38354SOL    HW119619   1.753   6.513  11.565  0.5412  0.2205  0.4680
38354SOL    HW219620   1.793   6.432  11.686  0.1808 -0.9258 -0.1624
38355SOL     OW19621   2.073   4.940   3.880 -0.5781 -0.1420 -0.0169
38355SOL    HW119622   2.001   4.887   3.844  0.5729 -1.0712 -1.0645
38355SOL    HW219623   2.151   4.905   3.838  0.5755  0.4197  1.5756
38356SOL     OW19624   3.868   9.560   6.689  0.6290 -1.2766 -0.0386
38356SOL    HW119625   3.894   9.470   6.708 -0.0277 -1.3324  0.6538
38356SOL    HW219626   3.787   9.552   6.639  0.7883 -1.0714 -0.3342
38357SOL     OW19627   7.097   0.036   4.936  0.0952  0.1093 -0.0658
38357SOL    HW119628   7.160   0.072   4.998  1.1480  1.3681 -1.7946
38357SOL    HW219629   7.147  -0.027   4.885 -0.5422 -0.2841 -0.2166
38358SOL     OW19630  10.265   3.648   7.247 -0.2208 -0.0575  0.7923
38358SOL    HW119631  10.192   3.653   7.309  0.1814  0.7096  1.2138
38358SOL    HW219632  10.340   3.623   7.301 -0.3164 -1.7127  0.2287
38359SOL     OW19633   3.559  10.115   8.299 -0.1520  0.1876 -0.1362
38359SOL    HW119634   3.606  10.045   8.345 -0.1499  0.1080 -0.2575
38359SOL    HW219635   3.531  10.175   8.368  0.7646  0.6227 -0.1300
38360SOL     OW19636   0.209   2.926   7.501  0.5140  0.3960  0.4587
38360SOL    HW119637   0.212   2.832   7.520 -0.4534 -0.0608 -1.4023
38360SOL    HW219638   0.125   2.955   7.537  0.3836  0.3475  0.1914
38361SOL     OW19639   4.417   5.128   8.012  0.1319  0.4882 -0.2378
38361SOL    HW119640   4.461   5.050   7.978 -1.5532 -0.1017 -1.1352
38361SOL    HW219641   4.414   5.188   7.937 -1.8182 -0.0403 -0.6302
38362SOL     OW19642   0.478   7.144   0.083 -0.0234  0.5853 -0.4415
38362SOL    HW119643   0.498   7.232   0.114 -1.4854  1.4662 -1.8167
38362SOL    HW219644   0.392   7.152   0.041  0.5468 -1.1163 -2.1037
38363SOL     OW19645   5.316   1.844  10.925 -0.8365 -0.3630 -0.0311
38363SOL    HW119646   5.324   1.859  11.019 -0.5474 -1.0385  0.0584
38363SOL    HW219647   5.222   1.851  10.908 -0.8110  0.5808  0.1564
38364SOL     OW19648  10.818   0.774   6.310 -0.6400  0.1845  0.0280
38364SOL    HW119649  10.777   0.712   6.250  1.0636  0.6624 -1.7131
38364SOL    HW219650  10.799   0.860   6.273  0.5136  0.4833  0.0940
38365SOL     OW19651   5.941  10.504  10.523 -0.4466 -0.2901  0.7734
38365SOL    HW119652   5.874  10.435  10.526  0.5625 -1.2956  0.9893
38365SOL    HW219653   5.904  10.570  10.465 -0.9860 -1.5373 -0.3704
38366SOL     OW19654   5.925   4.309  10.872 -0.0434  0.0505  0.2870
38366SOL    HW119655   5.898   4.253  10.945 -1.8348  2.3722  1.5395
38366SOL    HW219656   5.938   4.249  10.799  0.2300 -2.1922  2.0627
38367SOL     OW19657   4.001   1.912   5.917 -0.4908  0.3161 -0.1083
38367SOL    HW119658   4.052   1.965   5.855 -1.7910  0.1536 -1.3631
38367SOL    HW219659   3.946   1.976   5.962  1.0276  0.5428  1.5266
38368SOL     OW19660   4.418   5.633   4.019 -0.4433 -0.7590  0.5118
38368SOL    HW119661   4.414   5.722   3.983 -0.4460 -1.2673 -0.7994
38368SOL    HW219662   4.393   5.643   4.111  1.0401  0.8233  0.8043
38369SOL     OW19663  11.166   7.895  10.699 -0.3024  0.4519  0.3837
38369SOL    HW119664  11.240   7.952  10.676  0.4713 -0.5793  0.2425
38369SOL    HW219665  11.144   7.850  10.617 -1.4342  1.1125  0.3039
38370SOL     OW19666   1.043   9.135   1.783 -0.0327 -0.4593 -0.1632
38370SOL    HW119667   1.053   9.218   1.829  3.2078 -0.6698 -0.2686
38370SOL    HW219668   1.045   9.158   1.690 -0.2273 -0.5593 -0.1927
38371SOL     OW19669   8.790   8.048   3.244  0.1719 -0.0122  0.1129
38371SOL    HW119670   8.880   8.075   3.229  0.5847 -0.1935  2.1060
38371SOL    HW219671   8.750   8.051   3.157  2.1250 -0.1103 -0.8456
38372SOL     OW19672   2.479   1.132   8.683  0.2789  0.5946  0.2082
38372SOL    HW119673   2.527   1.097   8.607 -2.3343 -0.3326 -1.1248
38372SOL    HW219674   2.431   1.207   8.649 -0.6952  0.3511  1.0048
38373SOL     OW19675  11.996   9.373   4.356  0.0799 -0.2563  0.3450
38373SOL    HW119676  12.018   9.421   4.276  1.7293 -0.6643  0.5049
38373SOL    HW219677  11.932   9.308   4.329 -1.1195  1.0806 -0.1618
38374SOL     OW19678   2.998   1.803   2.903 -0.0948  0.3936  0.3227
38374SOL    HW119679   2.909   1.786   2.870 -0.1274  2.1439 -0.5984
38374SOL    HW219680   3.055   1.762   2.838 -0.2124  1.8904 -0.7938
38375SOL     OW19681   7.528   2.000   8.002  0.2857 -0.1238  0.5188
38375SOL    HW119682   7.589   2.040   8.064 -0.5851  1.6989  0.2483
38375SOL    HW219683   7.497   2.072   7.947 -1.9338 -1.0056  0.4899
38376SOL     OW19684   6.415   4.071   8.884  0.4121 -0.0198  0.6329
38376SOL    HW119685   6.444   4.011   8.816 -0.8812 -0.5280  0.5057
38376SOL    HW219686   6.420   4.019   8.965  1.6183  0.4775  0.9012
38377SOL     OW19687   6.863   2.123   2.486 -0.2999  0.2738 -0.1895
38377SOL    HW119688   6.907   2.204   2.514 -2.0076  1.6388 -1.1887
38377SOL    HW219689   6.804   2.102   2.559 -0.7718  0.6840 -0.4437
38378SOL     OW19690  11.809   5.994   1.196 -0.3557 -0.1498  0.3306
38378SOL    HW119691  11.780   5.992   1.287 -1.0091  1.7066  0.1994
38378SOL    HW219692  11.779   6.078   1.163  0.9185 -0.2713 -1.2665
38379SOL     OW19693   5.266  11.272   7.011  0.3662  0.0790 -0.4116
38379SOL    HW119694   5.357  11.303   7.007  0.5906 -0.2490  1.3663
38379SOL    HW219695   5.273  11.182   7.043 -0.4805 -0.7498 -2.4127
38380SOL     OW19696  11.162  10.032   4.860 -0.1682 -0.2080 -0.4104
38380SOL    HW119697  11.086  10.019   4.804 -1.1905 -0.8984  1.0920
38380SOL    HW219698  11.161  10.125   4.880 -1.2243 -0.3836  0.4130
38381SOL     OW19699   3.828   0.699   3.732  0.3250 -0.4999  0.3712
38381SOL    HW119700   3.828   0.794   3.723 -3.3366 -0.3757  0.0875
38381SOL    HW219701   3.845   0.683   3.825  2.0423  0.3186  0.2204
38382SOL     OW19702  11.131  10.666   5.230 -0.0210 -0.0021 -0.4420
38382SOL    HW119703  11.106  10.677   5.322  0.1882 -0.9135 -0.2583
38382SOL    HW219704  11.197  10.733   5.214  0.4107 -0.2394  0.2729
38383SOL     OW19705   4.624   9.622  10.304 -0.3724  0.2728  0.3675
38383SOL    HW119706   4.635   9.584  10.391 -2.1905 -0.3943  0.3627
38383SOL    HW219707   4.695   9.686  10.296 -0.7087  1.0520  2.7285
38384SOL     OW19708  11.535   3.042   4.696 -0.3580 -0.0638  0.1845
38384SOL    HW119709  11.622   3.069   4.668 -0.4150  0.0538  0.1181
38384SOL    HW219710  11.488   3.022   4.615 -1.2490  2.4787 -0.0257
38385SOL     OW19711   4.648   2.471  11.198 -0.2186  0.7466  0.6226
38385SOL    HW119712   4.559   2.478  11.164  0.1426  1.4950 -0.2041
38385SOL    HW219713   4.644   2.397  11.258 -0.8339 -0.7514 -1.1667
38386SOL     OW19714   8.614   9.905  10.374 -0.1009 -0.1459 -0.2356
38386SOL    HW119715   8.660   9.824  10.352  0.2834  0.2809 -1.0519
38386SOL    HW219716   8.681   9.961  10.412  0.4362  0.9966 -2.7066
38387SOL     OW19717   7.405   5.976   0.028 -0.0542 -0.3643 -0.1332
38387SOL    HW119718   7.338   5.909   0.039 -1.7949  1.2168 -0.4721
38387SOL    HW219719   7.402   6.026   0.110 -0.3375  0.5840 -0.7044
38388SOL     OW19720   8.922   7.990   4.163 -0.4553  0.4410 -0.2649
38388SOL    HW119721   8.935   7.943   4.081 -0.1123  1.7128 -0.9780
38388SOL    HW219722   8.993   8.054   4.165  0.8398 -0.9178  2.0637
38389SOL     OW19723   8.401   6.354   2.213 -0.0701 -0.1865  0.1016
38389SOL    HW119724   8.462   6.425   2.193 -1.8605  1.5374  0.3919
38389SOL    HW219725   8.428   6.323   2.299  2.2390 -1.6009 -1.0604
38390SOL     OW19726   0.116   4.559   9.239  0.1917 -0.1495 -0.1226
38390SOL    HW119727   0.150   4.553   9.150  0.6572  1.3741 -0.0631
38390SOL    HW219728   0.155   4.484   9.285 -0.6422 -1.4055 -1.3520
38391SOL     OW19729   2.608   8.572  11.982  0.0223 -0.3485  0.0534
38391SOL    HW119730   2.512   8.570  11.994  0.1078 -1.3853  0.7852
38391SOL    HW219731   2.624   8.648  11.927 -1.3187 -0.6819 -0.8660
38392SOL     OW19732   0.560   6.830  10.516  0.7337 -0.0286 -0.5687
38392SOL    HW119733   0.598   6.762  10.459 -1.4703 -1.7413 -0.1668
38392SOL    HW219734   0.555   6.789  10.602  0.9238  1.3038  0.0994
38393SOL     OW19735   0.605   3.617  11.473 -0.0790  0.1274 -0.8352
38393SOL    HW119736   0.618   3.693  11.416 -0.3000  1.0404  0.2954
38393SOL    HW219737   0.576   3.547  11.415  3.8167 -0.2956 -2.6138
38394SOL     OW19738  12.072   1.073  10.520  0.5001  0.3922  0.8494
38394SOL    HW119739  12.069   1.016  10.596  1.0676 -1.9439 -0.7642
38394SOL    HW219740  11.980   1.092  10.501  0.3253  0.3505  1.6338
38395SOL     OW19741   4.536   3.807   1.297 -0.2924 -0.4797 -0.1561
38395SOL    HW119742   4.481   3.753   1.354 -0.7953  0.5017  0.3074
38395SOL    HW219743   4.589   3.859   1.358  0.7278 -0.9887 -0.5981
38396SOL     OW19744   3.463   3.033  11.913  0.3334 -0.6054  0.1918
38396SOL    HW119745   3.382   3.030  11.862  0.3358 -1.0535  0.2141
38396SOL    HW219746   3.517   2.963  11.877  0.6360 -0.4357  0.3092
38397SOL     OW19747   1.217   7.950   3.595 -0.2500 -0.0613  0.2652
38397SOL    HW119748   1.259   7.864   3.594 -1.4718 -0.6913  0.9087
38397SOL    HW219749   1.276   8.005   3.646  0.1680 -0.7159  0.4949
38398SOL     OW19750   4.826   3.480  11.983 -0.3057  0.1093 -0.5728
38398SOL    HW119751   4.798   3.401  12.029 -1.7770 -0.5693 -2.4976
38398SOL    HW219752   4.811   3.550  12.046 -1.5224 -0.8593  0.2641
38399SOL     OW19753   4.638  10.330  11.123 -0.5261 -0.0158 -0.0763
38399SOL    HW119754   4.677  10.249  11.089 -1.8211 -1.4389  1.6305
38399SOL    HW219755   4.544  10.318  11.112 -0.7470  1.2417  0.2724
38400SOL     OW19756   4.297   3.772   7.306 -0.5342  0.2419 -0.0060
38400SOL    HW119757   4.349   3.731   7.375 -0.4080 -0.2595 -0.3959
38400SOL    HW219758   4.207   3.743   7.324 -0.2634 -1.3835 -1.0954
38401SOL     OW19759   4.310   0.092  12.067  0.7586 -0.4945 -0.4047
38401SOL    HW119760   4.234   0.143  12.038  1.0766 -0.4002 -1.0783
38401SOL    HW219761   4.273   0.013  12.105  0.0644  1.2145  2.9243
38402SOL     OW19762   7.393   8.902   2.968 -0.1129  0.2527  0.1439
38402SOL    HW119763   7.402   8.807   2.976  0.9041  0.4660  2.3995
38402SOL    HW219764   7.397   8.918   2.874  0.2973 -1.8750 -0.2709
38403SOL     OW19765   2.121   8.877   2.566 -0.1135  0.2273 -0.7840
38403SOL    HW119766   2.086   8.856   2.652 -0.9480  1.2619 -0.8533
38403SOL    HW219767   2.143   8.792   2.527  0.0936 -0.2619  0.3575
38404SOL     OW19768   4.457   8.442   3.795 -0.4902 -0.6645  0.4285
38404SOL    HW119769   4.498   8.525   3.821  1.3600 -1.0037 -1.1711
38404SOL    HW219770   4.429   8.456   3.705  1.4842 -2.2411 -0.5323
38405SOL     OW19771   0.631  11.490   9.795  0.1354 -0.3503 -0.0798
38405SOL    HW119772   0.627  11.535   9.711 -0.2740  1.2905  0.7629
38405SOL    HW219773   0.559  11.427   9.792 -0.6762  0.5573 -0.5251
38406SOL     OW19774   4.151   5.855   2.480  0.2562  0.6063 -0.8089
38406SOL    HW119775   4.221   5.891   2.425 -0.3175  1.5804 -0.9261
38406SOL    HW219776   4.070   5.874   2.432 -0.1308 -0.0806 -0.4464
38407SOL     OW19777   7.705   7.343   9.906  0.3858 -0.2218 -0.4928
38407SOL    HW119778   7.693   7.403   9.833 -1.4452  1.0929  0.7945
38407SOL    HW219779   7.631   7.361   9.965  2.3662 -0.4199  2.2342
38408SOL     OW19780  10.915   0.101  10.030 -0.3112  0.0374 -0.3075
38408SOL    HW119781  10.839   0.078  10.084 -1.5309 -1.3736 -2.4965
38408SOL    HW219782  10.879   0.151   9.957  1.0846  0.4772 -0.7344
38409SOL     OW19783   8.096   9.981   9.308  0.5970  0.1331 -0.5589
38409SOL    HW119784   8.012   9.961   9.268  0.3351  0.6887 -0.2990
38409SOL    HW219785   8.109   9.913   9.374 -1.5513  2.1724  2.2116
38410SOL     OW19786   2.523   3.206   1.312  0.4984 -0.4602  0.0999
38410SOL    HW119787   2.599   3.151   1.327  1.8403  0.7722 -1.6978
38410SOL    HW219788   2.552   3.270   1.247 -2.1985 -0.2101 -1.0162
38411SOL     OW19789   4.965   7.203   2.205  0.6207  0.8369 -0.1596
38411SOL    HW119790   4.938   7.292   2.183 -0.1000  0.7208  0.2285
38411SOL    HW219791   4.890   7.166   2.252  1.3967  0.4426  0.7979
38412SOL     OW19792   7.292   1.687  11.419 -0.0762  0.0262 -0.0603
38412SOL    HW119793   7.361   1.689  11.486 -1.0195  1.7044  0.9249
38412SOL    HW219794   7.297   1.773  11.378  0.0717 -0.7616 -1.7705
38413SOL     OW19795  11.524   0.061   1.601 -0.3314  0.5336 -0.8700
38413SOL    HW119796  11.531   0.130   1.667  0.3347 -0.5046  0.1767
38413SOL    HW219797  11.438   0.075   1.561 -1.1649  0.6245  0.8712
38414SOL     OW19798   5.231   7.914   0.703 -0.5357 -0.2384  0.0793
38414SOL    HW119799   5.290   7.916   0.778  0.5374 -0.9755 -0.6918
38414SOL    HW219800   5.195   8.002   0.698  0.1646  0.1086  0.8501
38415SOL     OW19801   8.416   1.700   8.096 -0.1901  0.5456  0.1669
38415SOL    HW119802   8.511   1.696   8.093 -0.0722  2.1378  0.7031
38415SOL    HW219803   8.387   1.622   8.049  1.3677  0.0727 -0.0631
38416SOL     OW19804   6.739   0.359   0.759 -0.4137  0.3526  0.3404
38416SOL    HW119805   6.711   0.451   0.757 -1.2015  0.1212 -1.2953
38416SOL    HW219806   6.669   0.313   0.712  0.5277 -0.9220  0.1553
38417SOL     OW19807   5.861   9.965   5.753 -0.1887 -0.0532 -0.0476
38417SOL    HW119808   5.896   9.904   5.688 -0.5253  0.2489 -0.5232
38417SOL    HW219809   5.766   9.957   5.745 -0.2339 -0.0379  0.4347
38418SOL     OW19810   9.377   5.040   9.583 -0.0339 -0.6703  0.0960
38418SOL    HW119811   9.325   5.019   9.506 -0.1248  0.2796 -0.1029
38418SOL    HW219812   9.442   4.970   9.588  0.3348 -0.4342 -1.1686
38419SOL     OW19813   4.052   0.904  11.603 -0.0252  0.0457  0.6992
38419SOL    HW119814   4.090   0.821  11.633  0.1543  0.0841  0.5830
38419SOL    HW219815   3.976   0.918  11.660  0.3190  0.1244  1.1478
38420SOL     OW19816   0.407  10.187  11.364  0.1801  0.2082 -0.1542
38420SOL    HW119817   0.420  10.113  11.306 -0.0762 -0.1683  0.2626
38420SOL    HW219818   0.312  10.204  11.361  0.0091 -0.4591  0.9172
38421SOL     OW19819   9.578   4.925   4.579 -0.2472 -0.1093  0.4461
38421SOL    HW119820   9.566   4.924   4.484  0.7508 -0.4504  0.3178
38421SOL    HW219821   9.590   4.834   4.603  3.0435  0.2060  0.4020
38422SOL     OW19822  10.968   8.122   8.778 -0.5252 -0.0220  0.1982
38422SOL    HW119823  10.961   8.095   8.870 -1.4968  1.3470  0.5576
38422SOL    HW219824  10.999   8.212   8.782  1.2163 -0.5303 -0.9075
38423SOL     OW19825   5.784   7.147   8.524 -0.3465 -0.4298  0.0219
38423SOL    HW119826   5.841   7.143   8.600 -1.7059  0.4561  1.1279
38423SOL    HW219827   5.769   7.240   8.509  0.3418 -0.5490 -1.7173
38424SOL     OW19828   8.230   7.986   7.971  0.0996 -0.0880 -0.3262
38424SOL    HW119829   8.235   7.915   7.907 -0.3726  0.3689 -0.8965
38424SOL    HW219830   8.306   7.974   8.028 -0.5144 -1.6205  0.2050
38425SOL     OW19831  10.833   3.870   3.583  0.0627 -0.3437  0.2978
38425SOL    HW119832  10.890   3.883   3.507  0.6336 -0.5640  0.6775
38425SOL    HW219833  10.779   3.949   3.586  1.1694  0.4360  0.6108
38426SOL     OW19834   3.957  10.601   6.140  0.3771  0.5907  0.4919
38426SOL    HW119835   4.006  10.562   6.212 -0.5203  0.1439  0.8801
38426SOL    HW219836   3.887  10.651   6.183  1.3992  2.5285  0.0038
38427SOL     OW19837   2.404   7.726   5.553 -0.3806  0.3791  0.1342
38427SOL    HW119838   2.499   7.726   5.563 -0.2376  0.2395 -1.1006
38427SOL    HW219839   2.384   7.809   5.511 -0.6914 -0.0281 -0.5412
38428SOL     OW19840   0.237   6.193   2.752  0.1180 -0.4739  0.1766
38428SOL    HW119841   0.228   6.288   2.755  0.5388 -0.4614  1.9447
38428SOL    HW219842   0.331   6.178   2.738  0.0605 -0.6274 -0.0443
38429SOL     OW19843  10.068   3.798   4.749 -0.2277 -0.4149 -0.2862
38429SOL    HW119844  10.050   3.871   4.807  0.9425 -1.3041  1.2646
38429SOL    HW219845  10.135   3.830   4.689 -0.8590  0.2529 -0.6520
38430SOL     OW19846   7.243   6.577   3.781  0.2661 -0.2618  0.1280
38430SOL    HW119847   7.204   6.664   3.790  3.5857  1.3343  0.2964
38430SOL    HW219848   7.270   6.572   3.690  1.2450 -0.5775  0.4251
38431SOL     OW19849   4.682   1.045   2.622 -0.2843  0.3272 -0.5106
38431SOL    HW119850   4.628   1.020   2.547 -1.0031 -0.0998  0.1388
38431SOL    HW219851   4.639   1.122   2.658 -1.2770 -0.7948  0.8177
38432SOL     OW19852   3.201  10.374   0.329 -0.2830  0.7548  0.3885
38432SOL    HW119853   3.280  10.323   0.313 -1.1638 -0.8779  1.0052
38432SOL    HW219854   3.178  10.411   0.244  1.1260  1.2908  0.2067
38433SOL     OW19855   4.448   2.912   9.343  0.9103 -0.1553  0.1824
38433SOL    HW119856   4.460   2.983   9.406 -2.1092  0.4926  0.1491
38433SOL    HW219857   4.536   2.899   9.306  2.2760  1.1121  2.6925
38434SOL     OW19858   6.224  11.696   1.789  0.7977  0.5699 -0.1044
38434SOL    HW119859   6.173  11.643   1.851  1.1274  1.3101  0.8158
38434SOL    HW219860   6.271  11.632   1.735 -0.1340 -0.0974 -0.1494
38435SOL     OW19861   7.850  10.129   8.087 -0.0545  0.0262  0.2553
38435SOL    HW119862   7.866  10.163   7.999 -3.1870 -1.9016 -1.1986
38435SOL    HW219863   7.804  10.200   8.132  1.3344  0.9194  0.3503
38436SOL     OW19864   2.304   8.432   3.884 -0.1310  0.5498 -0.2416
38436SOL    HW119865   2.378   8.480   3.846  0.8867 -0.2941  0.5772
38436SOL    HW219866   2.342   8.347   3.909 -1.2967  0.2449  0.5490
38437SOL     OW19867   3.215   4.321   1.000  0.3557  0.2259  0.1411
38437SOL    HW119868   3.133   4.364   1.026  0.6859 -0.0470  1.7648
38437SOL    HW219869   3.194   4.228   0.998  1.0026 -0.0236  2.3355
38438SOL     OW19870  10.308  10.764   4.140  0.2104  0.5342 -0.5349
38438SOL    HW119871  10.348  10.773   4.054  1.8419  2.7405  0.3613
38438SOL    HW219872  10.243  10.835   4.143 -0.0229  0.3033 -0.0528
38439SOL     OW19873  10.473   9.993   0.641 -0.5991  0.7474 -0.4019
38439SOL    HW119874  10.402   9.932   0.661 -0.2653  0.5399  0.1762
38439SOL    HW219875  10.553   9.940   0.651 -0.3962  0.5516 -2.5072
38440SOL     OW19876   6.568   1.213   6.499  0.0599  0.6372 -0.4092
38440SOL    HW119877   6.622   1.283   6.464 -0.3948  1.1289 -0.1558
38440SOL    HW219878   6.620   1.133   6.488  0.4645  0.9733 -0.9610
38441SOL     OW19879   3.666   6.119  10.329 -0.2870 -0.2278  0.2498
38441SOL    HW119880   3.744   6.158  10.290 -1.1565 -0.3973 -1.7601
38441SOL    HW219881   3.630   6.188  10.384 -0.2463  0.8345 -1.0193
38442SOL     OW19882  11.266   0.338   6.884 -0.0351 -0.0352  0.0025
38442SOL    HW119883  11.206   0.376   6.819  0.6592  4.4249  1.5705
38442SOL    HW219884  11.208   0.305   6.953 -0.7825  1.2247  0.0180
38443SOL     OW19885   1.340   0.058  10.150 -0.4971  0.3120  0.2039
38443SOL    HW119886   1.306   0.142  10.180  2.3109  0.7601  2.5286
38443SOL    HW219887   1.397   0.080  10.076 -0.6379  0.3121  0.0953
38444SOL     OW19888   0.472   6.741   5.903  0.3024  0.1440 -0.2848
38444SOL    HW119889   0.560   6.738   5.941  0.0423 -0.9608  0.2753
38444SOL    HW219890   0.450   6.650   5.886 -0.7213  0.4073 -0.4535
38445SOL     OW19891   9.488   2.735   7.708 -0.5509  0.3857  0.2032
38445SOL    HW119892   9.463   2.801   7.773 -1.4296  0.5194 -0.2630
38445SOL    HW219893   9.475   2.652   7.752 -2.6018  0.4123 -0.2589
38446SOL     OW19894   1.300   9.213   1.321 -0.5870 -0.2604  0.4953
38446SOL    HW119895   1.369   9.238   1.260 -0.5574  0.4448  0.8050
38446SOL    HW219896   1.346   9.171   1.394 -0.4564  0.3686  0.7850
38447SOL     OW19897   5.065   0.105  11.544  0.7845 -0.3879 -0.1651
38447SOL    HW119898   5.023   0.101  11.629 -0.6603 -2.8576 -0.8967
38447SOL    HW219899   5.145   0.156  11.559 -0.8337  1.7423  1.9625
38448SOL     OW19900   6.018   8.368   0.739  0.6939 -0.0528 -0.6119
38448SOL    HW119901   6.016   8.458   0.773 -0.1528 -1.1927  2.6950
38448SOL    HW219902   6.111   8.351   0.722  0.9181  1.2660 -0.8498
38449SOL     OW19903  11.218   4.083   6.765 -0.3952  0.6087  0.6200
38449SOL    HW119904  11.159   4.025   6.716 -0.3573  0.2588  0.9785
38449SOL    HW219905  11.242   4.032   6.842  3.0231 -0.6458 -1.0787
38450SOL     OW19906  10.811   5.613   1.069  0.9180 -0.2177 -0.0095
38450SOL    HW119907  10.720   5.620   1.040  1.1702 -1.5272 -1.1966
38450SOL    HW219908  10.835   5.702   1.093 -0.5150  0.2384 -0.1794
38451SOL     OW19909   0.614   2.040   3.946 -0.0932 -0.3679  0.3052
38451SOL    HW119910   0.597   1.946   3.937  1.7583 -0.9766  2.3720
38451SOL    HW219911   0.578   2.062   4.032  1.0106  0.4119  0.5778
38452SOL     OW19912   5.091   4.133   5.801  0.1078  0.1815 -0.1881
38452SOL    HW119913   5.066   4.048   5.838 -0.9894  0.4608 -0.2645
38452SOL    HW219914   5.178   4.117   5.763 -0.2880 -1.0437 -0.6447
38453SOL     OW19915   4.983  10.427   6.574  0.0464 -0.8596  0.0961
38453SOL    HW119916   4.913  10.362   6.583  0.0514 -0.8775  0.0007
38453SOL    HW219917   5.063  10.375   6.561  0.0332 -0.8316 -0.0987
38454SOL     OW19918   8.291   5.632   7.863  0.4093  0.0259 -0.4874
38454SOL    HW119919   8.312   5.567   7.796  0.7767 -1.4610  1.0027
38454SOL    HW219920   8.372   5.641   7.913 -0.5502 -0.8563  1.3170
38455SOL     OW19921   7.510   3.265  10.427  0.3719 -0.2964  0.0080
38455SOL    HW119922   7.575   3.321  10.384  1.7502  0.1939  2.5401
38455SOL    HW219923   7.495   3.195  10.364  2.0299  0.5083 -1.4013
38456SOL     OW19924   6.438   6.169   3.436 -0.1413  0.2011 -0.1228
38456SOL    HW119925   6.402   6.243   3.486  2.0845  0.6854  0.9169
38456SOL    HW219926   6.484   6.210   3.363  0.5491 -0.1885  0.0857
38457SOL     OW19927   5.458   2.316  10.229 -0.0879  0.1458  0.4756
38457SOL    HW119928   5.489   2.253  10.294 -0.3417  0.8697  1.3118
38457SOL    HW219929   5.535   2.369  10.208 -0.3488  0.8974  1.3453
38458SOL     OW19930   7.469  11.765   0.133 -0.4023  0.0973 -0.0496
38458SOL    HW119931   7.406  11.836   0.115  1.4916  1.3352 -2.4430
38458SOL    HW219932   7.497  11.781   0.223 -1.2736  1.3463  0.0363
38459SOL     OW19933   5.433   0.425   7.220  0.2621 -0.3589 -0.0718
38459SOL    HW119934   5.509   0.479   7.197 -0.8253  1.6977  0.9045
38459SOL    HW219935   5.453   0.391   7.307  0.2374 -0.1438  0.0183
38460SOL     OW19936  10.227  11.810  11.253  0.1112  0.5747 -0.1892
38460SOL    HW119937  10.183  11.758  11.320  0.5079  0.5236  0.0333
38460SOL    HW219938  10.167  11.808  11.179 -0.2009  0.3926  0.0624
38461SOL     OW19939   8.082   1.408   1.162 -0.0366  0.0456 -0.3574
38461SOL    HW119940   8.123   1.491   1.185 -1.8040  0.9120 -0.1345
38461SOL    HW219941   7.990   1.430   1.150 -0.4725 -1.8209 -0.7224
38462SOL     OW19942  11.165   1.173   1.418 -0.3432 -0.2544 -0.3046
38462SOL    HW119943  11.254   1.182   1.451 -0.0017  1.6309 -1.6369
38462SOL    HW219944  11.171   1.108   1.348  0.0144  0.0536 -0.5548
38463SOL     OW19945   3.953   7.606   1.778 -0.0424 -0.3997 -0.1608
38463SOL    HW119946   3.904   7.662   1.719 -0.8333  0.4025  1.1883
38463SOL    HW219947   4.037   7.592   1.735 -0.4059  0.5737 -1.2170
38464SOL     OW19948  10.377   4.558   7.524 -0.2213 -0.0357 -0.0166
38464SOL    HW119949  10.457   4.607   7.546  1.1064 -1.0942 -2.1593
38464SOL    HW219950  10.335   4.611   7.457  0.8723 -1.3952 -1.8568
38465SOL     OW19951   5.343   5.692   9.831  0.5483  0.1332  0.0753
38465SOL    HW119952   5.424   5.717   9.876 -0.0326  1.8062  0.2764
38465SOL    HW219953   5.306   5.775   9.801  0.5841 -0.8317 -2.9819
38466SOL     OW19954   3.355   9.137   3.034  0.5610  0.2366  0.1086
38466SOL    HW119955   3.330   9.221   3.074 -1.5574  0.6786 -1.8970
38466SOL    HW219956   3.272   9.101   3.001  1.9363 -0.5844 -2.8087
38467SOL     OW19957   9.779   4.878  10.580 -0.3889 -0.6509 -0.0725
38467SOL    HW119958   9.813   4.879  10.669 -1.5626 -1.4237  0.4173
38467SOL    HW219959   9.838   4.935  10.531  1.6555 -2.0010  0.6682
38468SOL     OW19960   2.148   4.473  10.931  0.5840  0.3726  0.2329
38468SOL    HW119961   2.078   4.465  10.995  0.8210 -0.2772  0.4132
38468SOL    HW219962   2.185   4.560  10.947 -0.5994  1.0026 -0.3011
38469SOL     OW19963  11.660   5.974   4.552 -0.4455 -0.0619  0.1389
38469SOL    HW119964  11.671   5.948   4.643 -1.1447  1.1524  0.5852
38469SOL    HW219965  11.725   5.922   4.504 -0.7225 -1.4191  1.1885
38470SOL     OW19966   7.729   5.647   9.481 -0.6168 -0.2966 -0.4649
38470SOL    HW119967   7.684   5.711   9.426 -1.1921 -1.1247 -0.9846
38470SOL    HW219968   7.767   5.699   9.552  2.0826  1.2101 -2.7528
38471SOL     OW19969   7.591   1.874   1.977 -0.9625 -0.1296 -0.5272
38471SOL    HW119970   7.654   1.803   1.986  1.1794  1.5018 -1.8010
38471SOL    HW219971   7.506   1.830   1.977  0.0733 -2.3973  1.5598
38472SOL     OW19972   0.489   2.780   3.369 -0.3060 -0.2692 -0.4847
38472SOL    HW119973   0.447   2.704   3.330 -0.3606  0.2161 -1.4015
38472SOL    HW219974   0.527   2.827   3.295  0.0588  0.3956  0.1096
38473SOL     OW19975   5.555  11.017   8.729 -0.0569  0.1811  0.4690
38473SOL    HW119976   5.615  11.071   8.678 -0.8857  1.5224  0.8517
38473SOL    HW219977   5.595  10.931   8.729  0.4811  0.3633 -1.5825
38474SOL     OW19978   2.195  11.798  11.934 -0.2142 -0.8741  0.1093
38474SOL    HW119979   2.247  11.869  11.897  0.1474 -1.1276  0.1217
38474SOL    HW219980   2.243  11.772  12.013 -0.9391 -0.3915  0.7184
38475SOL     OW19981  10.097   5.356   3.985 -0.5293  0.0006  0.2023
38475SOL    HW119982  10.141   5.281   4.024 -1.2147 -0.5515 -0.0569
38475SOL    HW219983  10.088   5.332   3.892  1.3029  1.3897 -0.3921
38476SOL     OW19984  11.584  11.798   8.236  0.2677 -0.5379 -0.3352
38476SOL    HW119985  11.653  11.843   8.284 -0.4781 -0.4362  0.6784
38476SOL    HW219986  11.627  11.766   8.156  0.8502  1.8127 -1.0395
38477SOL     OW19987  10.766   0.479   7.130 -0.1519  0.2228 -0.7564
38477SOL    HW119988  10.751   0.393   7.089  0.3578 -0.7623  1.0144
38477SOL    HW219989  10.745   0.465   7.222 -1.9188  2.5285 -0.7080
38478SOL     OW19990   5.492   1.564  11.263  0.2378 -0.0517 -0.5981
38478SOL    HW119991   5.402   1.534  11.272  0.9311 -2.4339 -0.8619
38478SOL    HW219992   5.485   1.650  11.220 -1.8227 -1.6693 -3.9112
38479SOL     OW19993   0.553  10.357   4.284 -0.4365 -0.5337  0.4084
38479SOL    HW119994   0.575  10.366   4.377  1.0725  0.3498 -0.0079
38479SOL    HW219995   0.622  10.302   4.248  0.6078  1.3986 -0.7209
38480SOL     OW19996  10.078   1.307  10.470  0.2410 -0.9197 -0.3076
38480SOL    HW119997  10.100   1.215  10.482 -1.3140 -1.3733 -0.6780
38480SOL    HW219998  10.155   1.355  10.501  1.5782 -2.3606 -1.2419
38481SOL     OW19999  12.086   7.476   3.336 -0.0221  0.2076 -0.3229
38481SOL    HW120000  12.086   7.569   3.357 -1.3542  0.3874 -1.0351
38481SOL    HW220001  12.143   7.468   3.259  2.0027  0.0544  1.1198
38482SOL     OW20002   2.222   7.568   6.235  0.3061 -0.3699  0.8120
38482SOL    HW120003   2.137   7.552   6.277 -0.3833  1.8767  0.4149
38482SOL    HW220004   2.266   7.484   6.238 -1.2247 -1.1836  2.6409
38483SOL     OW20005  12.008   1.503   4.989 -0.4519  0.0148 -0.1788
38483SOL    HW120006  11.938   1.530   4.929  0.3486  1.0224 -0.6827
38483SOL    HW220007  12.075   1.571   4.980  0.1083 -0.3378  1.1353
38484SOL     OW20008   3.471   8.730   0.947  0.3006 -0.5754  0.1872
38484SOL    HW120009   3.435   8.775   1.024  1.1495 -0.5385  0.5673
38484SOL    HW220010   3.405   8.744   0.879  0.9653  2.1088 -0.0040
38485SOL     OW20011   2.976   2.936   2.729  0.1205 -0.1404 -0.3008
38485SOL    HW120012   3.064   2.945   2.765 -0.6157 -0.8944  1.8299
38485SOL    HW220013   2.967   2.843   2.709 -0.4123 -0.1836  0.1161
38486SOL     OW20014   8.092   3.286   5.403  0.4670 -0.4572  0.0817
38486SOL    HW120015   8.161   3.236   5.358  0.9237 -0.2785  0.5664
38486SOL    HW220016   8.137   3.365   5.434  0.3274 -0.8588  1.3796
38487SOL     OW20017   4.529  12.103   0.297  0.3665 -0.3594  0.2808
38487SOL    HW120018   4.482  12.130   0.376  1.6365  0.0158  0.9307
38487SOL    HW220019   4.588  12.034   0.326  0.8884 -0.1806 -0.3231
38488SOL     OW20020  11.916   1.532   6.979  0.0952 -0.4529 -0.0033
38488SOL    HW120021  11.925   1.446   7.021  0.2409  0.0651  1.0555
38488SOL    HW220022  12.000   1.545   6.934 -0.5488 -1.5896 -1.6035
38489SOL     OW20023   3.438   3.623   5.938  0.5204 -0.0707 -0.2971
38489SOL    HW120024   3.409   3.669   5.859  1.0321  1.3088  0.3005
38489SOL    HW220025   3.530   3.603   5.921 -0.1052 -2.4656 -1.2640
38490SOL     OW20026   5.686   3.980  11.955  0.2698  0.2845  0.3498
38490SOL    HW120027   5.758   4.043  11.968 -0.3319  1.1587 -0.4553
38490SOL    HW220028   5.609   4.034  11.943 -0.3635 -0.6357  0.2031
38491SOL     OW20029  11.361   1.111  10.420 -0.2486  0.4078  0.3191
38491SOL    HW120030  11.284   1.158  10.388 -0.8701 -0.1865  0.8854
38491SOL    HW220031  11.326   1.050  10.485  0.8767  1.1412  1.6709
38492SOL     OW20032   6.957   7.152   5.639  0.4304 -0.2062 -0.1455
38492SOL    HW120033   6.878   7.144   5.586  0.3156  1.8764 -0.3993
38492SOL    HW220034   6.927   7.196   5.719  0.8755 -1.9130  1.0215
38493SOL     OW20035   3.803   7.825   7.790  0.2382  0.2514 -0.3933
38493SOL    HW120036   3.786   7.876   7.710  0.2787  0.8996  0.0061
38493SOL    HW220037   3.894   7.845   7.812 -0.3173  1.5688  0.8598
38494SOL     OW20038   1.784   6.443   3.780  0.0807  0.3354  0.0383
38494SOL    HW120039   1.694   6.413   3.772  0.4736 -0.7390 -0.5895
38494SOL    HW220040   1.801   6.490   3.697 -0.0024  0.8526  0.3067
38495SOL     OW20041   5.381  11.117   9.404  0.1745 -0.0778 -0.4378
38495SOL    HW120042   5.348  11.056   9.470 -0.3998  0.2256 -0.4455
38495SOL    HW220043   5.340  11.201   9.425 -0.2065 -0.0324 -1.3199
38496SOL     OW20044  10.206   1.125   4.967  0.4231  0.0296  0.2235
38496SOL    HW120045  10.145   1.066   4.923  0.5172  0.5304 -0.6039
38496SOL    HW220046  10.150   1.194   5.002  0.0543 -1.5715  3.0305
38497SOL     OW20047  10.424   2.876   2.802  0.1219  0.2580  0.3926
38497SOL    HW120048  10.332   2.904   2.808 -0.5040 -1.7925  1.1969
38497SOL    HW220049  10.443   2.838   2.887  1.1939 -0.8569 -0.3113
38498SOL     OW20050   6.178   9.360  11.285 -0.4225 -0.0945 -0.2062
38498SOL    HW120051   6.224   9.442  11.301  1.0776 -1.0349  0.4556
38498SOL    HW220052   6.192   9.342  11.192 -0.1899  0.0540 -0.1985
38499SOL     OW20053   3.528   9.133   8.637  0.4854 -0.8184  0.4191
38499SOL    HW120054   3.534   9.089   8.552 -2.2237  0.1480 -0.3797
38499SOL    HW220055   3.576   9.215   8.626  0.4329 -0.8522 -0.0791
38500SOL     OW20056   5.904   7.287  10.973  0.2722 -0.1039 -0.2530
38500SOL    HW120057   5.917   7.269  11.066  0.6807 -0.5823 -0.3962
38500SOL    HW220058   5.977   7.345  10.950 -0.1310  0.4480 -0.1583
38501SOL     OW20059   1.834   9.226   7.545 -0.1602  0.4811 -0.6297
38501SOL    HW120060   1.821   9.288   7.474  0.2324 -0.4713 -1.5593
38501SOL    HW220061   1.850   9.281   7.622 -0.8774  1.5312 -1.2019
38502SOL     OW20062   5.710   9.424  11.235 -0.0516  0.7557  0.2492
38502SOL    HW120063   5.756   9.486  11.178 -0.3256  0.6799 -0.0570
38502SOL    HW220064   5.780   9.376  11.279  0.1637  0.9108  0.0802
38503SOL     OW20065   1.001  10.924   2.143  0.3596  0.1551 -0.0400
38503SOL    HW120066   0.941  10.857   2.178  0.1979  0.6956  0.7517
38503SOL    HW220067   0.960  10.952   2.061 -0.7074  0.8032  0.6843
38504SOL     OW20068  11.688   2.285   5.100 -0.1360 -0.5280  0.4132
38504SOL    HW120069  11.729   2.240   5.174 -2.5379  0.6346  2.6014
38504SOL    HW220070  11.702   2.378   5.117 -0.2389 -0.2402 -0.9325
38505SOL     OW20071   6.257   7.844   9.169  0.6352  0.0427 -0.3814
38505SOL    HW120072   6.176   7.794   9.182  0.7535  0.1426  0.8233
38505SOL    HW220073   6.303   7.797   9.099  0.3642 -1.0536  0.1545
38506SOL     OW20074   1.712   8.069   7.876 -0.1638  0.4024 -0.4562
38506SOL    HW120075   1.651   8.142   7.869 -1.4654 -0.5015  0.8074
38506SOL    HW220076   1.751   8.079   7.962 -1.4180 -1.1189  0.3446
38507SOL     OW20077   3.486  10.364  11.265 -0.2460 -0.3513  0.0893
38507SOL    HW120078   3.441  10.444  11.237 -1.8271 -0.8781  1.0051
38507SOL    HW220079   3.568  10.395  11.304  0.3984  0.6170 -1.8979
38508SOL     OW20080  10.506   4.993   8.667  0.0569 -0.0550  0.1292
38508SOL    HW120081  10.579   4.933   8.678 -0.2073 -0.5460 -0.7529
38508SOL    HW220082  10.468   5.001   8.755 -1.3677 -3.0561 -0.1115
38509SOL     OW20083   4.604  10.523   1.199  0.0201 -0.1559 -0.1723
38509SOL    HW120084   4.565  10.491   1.118 -3.1259 -1.8046  1.8090
38509SOL    HW220085   4.578  10.615   1.204  1.7571  0.4843 -1.7665
38510SOL     OW20086   2.930   4.128   5.992 -0.3328  0.0532  0.1131
38510SOL    HW120087   3.019   4.146   5.962 -0.3414  0.5234  0.3673
38510SOL    HW220088   2.940   4.104   6.084 -0.5152  0.5663  0.2711
38511SOL     OW20089   1.542   6.571   2.604 -0.4196 -0.0157  0.2820
38511SOL    HW120090   1.526   6.541   2.694 -1.8521  0.0718  0.0670
38511SOL    HW220091   1.461   6.553   2.557  0.2942 -0.0121 -0.9988
38512SOL     OW20092   1.749   5.585  10.300  0.4060 -0.4431 -0.5856
38512SOL    HW120093   1.758   5.671  10.342  0.1932 -0.3723 -0.6803
38512SOL    HW220094   1.765   5.522  10.370 -0.1969 -0.3267 -0.3354
38513SOL     OW20095  11.203   7.450   3.712  0.1160 -0.4654  0.0579
38513SOL    HW120096  11.226   7.516   3.777  0.4270 -1.6830  1.2482
38513SOL    HW220097  11.168   7.377   3.764  1.8644 -2.1395 -0.9727
38514SOL     OW20098   4.102   8.574  10.107  0.1304  0.2251 -0.1278
38514SOL    HW120099   4.008   8.583  10.099  0.1654 -1.0452 -3.1772
38514SOL    HW220100   4.115   8.482  10.133  0.5536  0.8393  2.0621
38515SOL     OW20101   8.840   3.267   8.177 -0.2417  0.4987 -0.0041
38515SOL    HW120102   8.801   3.184   8.150 -1.5817  1.2173 -0.3465
38515SOL    HW220103   8.932   3.246   8.195 -0.5183 -1.0084 -0.2660
38516SOL     OW20104   9.049   2.477   9.028 -0.4138  0.2239 -0.3593
38516SOL    HW120105   8.976   2.449   8.972 -2.1271  0.7517  1.4937
38516SOL    HW220106   9.127   2.446   8.982 -1.6627  0.8764 -3.1593
38517SOL     OW20107   6.666   0.346   6.287 -0.2389  0.5470  0.5862
38517SOL    HW120108   6.637   0.381   6.203 -1.3164  1.1374  1.1825
38517SOL    HW220109   6.681   0.253   6.271 -0.2139  0.6969 -0.3035
38518SOL     OW20110   0.452  11.695  10.456 -0.1893  0.0363  0.4594
38518SOL    HW120111   0.498  11.693  10.372 -0.1598 -1.2869  0.4919
38518SOL    HW220112   0.519  11.721  10.519  0.1035 -0.2229  0.2573
38519SOL     OW20113   9.364   7.090   6.032  0.1226  0.1538  0.0664
38519SOL    HW120114   9.375   7.122   6.122  1.0920 -0.8958  0.3416
38519SOL    HW220115   9.357   6.995   6.040 -1.0337  0.1388 -0.8818
38520SOL     OW20116   9.328   1.705   3.802 -0.7724 -0.5948 -0.1911
38520SOL    HW120117   9.392   1.671   3.740 -1.4689 -1.3390 -0.5136
38520SOL    HW220118   9.246   1.662   3.779 -1.0171 -1.0297  1.3626
38521SOL     OW20119   3.017   1.469   5.344  0.5071 -0.1277  0.3506
38521SOL    HW120120   3.054   1.541   5.294 -2.9368  0.1825 -2.0945
38521SOL    HW220121   3.048   1.390   5.300 -0.2960  0.0773 -0.6147
38522SOL     OW20122  11.742  11.072   6.881 -0.6512 -0.3514  0.0771
38522SOL    HW120123  11.719  11.141   6.818 -1.2448 -1.4135 -0.9007
38522SOL    HW220124  11.792  11.009   6.830  1.5225  0.2041  1.3774
38523SOL     OW20125   2.100   7.403   8.101 -0.1863  0.0896 -0.3741
38523SOL    HW120126   2.159   7.414   8.175 -1.3981 -1.0588  0.8112
38523SOL    HW220127   2.102   7.309   8.082 -2.6534 -0.2471  0.6332
38524SOL     OW20128   1.180   6.657   1.175 -0.1923  0.2329  0.5228
38524SOL    HW120129   1.166   6.744   1.137 -0.5574  0.1830  0.5385
38524SOL    HW220130   1.243   6.615   1.117 -0.7753  0.1427 -0.0566
38525SOL     OW20131   5.341   8.121  10.337 -0.5470 -0.3773 -0.0010
38525SOL    HW120132   5.316   8.183  10.269 -0.8364  0.3249  0.7329
38525SOL    HW220133   5.434   8.104  10.321 -0.3917  0.4700 -0.0388
38526SOL     OW20134  11.696   0.388   8.556  0.5039 -0.1391 -0.0534
38526SOL    HW120135  11.712   0.472   8.598  0.2582  0.3807 -0.9798
38526SOL    HW220136  11.709   0.323   8.626  3.8382  0.3883 -0.0456
38527SOL     OW20137  11.955   1.234   4.310  0.1719  0.0664  0.7327
38527SOL    HW120138  12.004   1.300   4.261  0.0718  0.3455  1.0074
38527SOL    HW220139  11.900   1.284   4.370 -0.2834 -0.2520  0.5864
38528SOL     OW20140   7.552   6.319   6.256  0.5752  0.0501  0.2552
38528SOL    HW120141   7.531   6.400   6.302 -0.5057 -1.0740  1.8075
38528SOL    HW220142   7.648   6.319   6.251  0.5747  2.0231 -0.9752
38529SOL     OW20143  11.072   3.534   4.330 -0.0317  0.3826  0.0139
38529SOL    HW120144  11.020   3.538   4.249  0.9755 -0.9068 -0.7421
38529SOL    HW220145  11.020   3.480   4.389 -1.1417  1.9665  0.5608
38530SOL     OW20146   3.740   1.077   5.718  0.0708 -0.4707  0.0905
38530SOL    HW120147   3.777   0.991   5.700 -1.3390 -0.9881 -0.5322
38530SOL    HW220148   3.779   1.134   5.652  1.7129 -0.4010  1.0807
38531SOL     OW20149   7.076   0.220   2.015  0.1123  0.1882 -0.1498
38531SOL    HW120150   7.010   0.151   2.005  0.7516 -0.3623 -0.6102
38531SOL    HW220151   7.025   0.297   2.042 -0.7937 -0.0733 -1.0561
38532SOL     OW20152   8.138   4.226  10.564 -0.1701  0.4477  0.3669
38532SOL    HW120153   8.216   4.226  10.509 -0.4808  0.1933 -0.0801
38532SOL    HW220154   8.172   4.237  10.653  0.4168 -0.1698  0.2288
38533SOL     OW20155   8.832  11.456   2.053 -0.3788  0.5270 -0.7208
38533SOL    HW120156   8.828  11.481   2.146  3.7978  0.3185 -0.2937
38533SOL    HW220157   8.875  11.530   2.010  0.1664 -0.4784 -1.9643
38534SOL     OW20158   5.641   9.772  11.307  0.0510 -0.3162  0.2674
38534SOL    HW120159   5.667   9.718  11.382  1.7379  1.6655  1.2497
38534SOL    HW220160   5.721   9.781  11.255  0.6111  3.0132  1.4058
38535SOL     OW20161   1.920   1.401  10.966  0.0511 -0.5871  0.1500
38535SOL    HW120162   1.966   1.481  10.941 -2.0002  0.3057 -1.0296
38535SOL    HW220163   1.827   1.422  10.955 -0.5644 -3.1801 -0.4024
38536SOL     OW20164   8.626   2.681   9.898  0.6298 -0.1153 -0.1265
38536SOL    HW120165   8.706   2.655   9.942  0.7938  0.8855  0.1845
38536SOL    HW220166   8.571   2.603   9.900  1.9861 -1.1422 -1.2755
38537SOL     OW20167   2.637   5.784   7.015  0.1897  0.2005  0.4064
38537SOL    HW120168   2.577   5.758   6.946  2.1307 -0.0600 -1.2866
38537SOL    HW220169   2.581   5.806   7.090 -2.0515  1.3085 -1.4848
38538SOL     OW20170   5.561   6.207   9.268  0.1038  0.4064  0.6138
38538SOL    HW120171   5.602   6.272   9.211 -1.5887  0.3915 -0.6939
38538SOL    HW220172   5.630   6.143   9.285  0.1949 -0.7446 -3.2249
38539SOL     OW20173   8.946   9.913   1.160  0.0844 -0.5392  0.3593
38539SOL    HW120174   8.976   9.914   1.250 -1.0945  0.6712  0.7662
38539SOL    HW220175   8.956  10.003   1.129 -0.2003 -0.7805 -0.4852
38540SOL     OW20176  10.979   1.532  10.231 -0.0508  0.2460  0.3913
38540SOL    HW120177  11.001   1.524  10.138 -1.4509 -0.8409  0.1100
38540SOL    HW220178  10.932   1.615  10.238 -1.6667 -0.5827 -0.2720
38541SOL     OW20179   3.416   4.258  10.203 -0.1900 -0.0709  0.1691
38541SOL    HW120180   3.471   4.180  10.207  2.0459  1.3004 -1.4479
38541SOL    HW220181   3.327   4.224  10.191  0.7955 -2.3730 -1.3780
38542SOL     OW20182   3.658   2.552   7.882 -0.3997  0.1931  0.3108
38542SOL    HW120183   3.736   2.519   7.926 -0.8943 -0.4277  0.7336
38542SOL    HW220184   3.634   2.482   7.821 -0.4331  0.5240 -0.0604
38543SOL     OW20185   8.772   2.525   0.320 -0.4753  0.0243  0.3136
38543SOL    HW120186   8.776   2.535   0.415  2.2275  1.7978  0.1390
38543SOL    HW220187   8.813   2.439   0.303 -0.1642  0.0903  0.7191
38544SOL     OW20188   2.700   8.333   9.612 -0.0148  0.3893 -0.1158
38544SOL    HW120189   2.736   8.385   9.540  0.0858  0.0166 -0.3424
38544SOL    HW220190   2.626   8.384   9.644 -0.3093  0.3722 -0.7516
38545SOL     OW20191   8.952   2.739   9.016  0.2959  0.4600 -0.1485
38545SOL    HW120192   9.031   2.684   9.012 -0.3215 -0.5200  0.7264
38545SOL    HW220193   8.882   2.679   9.041 -0.2904  1.7265  1.4635
38546SOL     OW20194   8.600   3.294   8.885 -0.0451 -0.7452 -0.2485
38546SOL    HW120195   8.582   3.365   8.823  1.1656 -1.0579 -0.9898
38546SOL    HW220196   8.532   3.303   8.952 -0.7463  0.2519 -1.0593
38547SOL     OW20197   6.529   5.312   5.311  0.1213  0.1825  0.3854
38547SOL    HW120198   6.441   5.343   5.336 -0.1932  0.5613 -1.0782
38547SOL    HW220199   6.528   5.315   5.215  1.3996 -0.7805  0.3282
38548SOL     OW20200  10.966   7.971   3.557  0.0013 -0.0363 -0.2772
38548SOL    HW120201  10.905   7.976   3.630  0.0776 -0.7909 -0.1542
38548SOL    HW220202  11.047   7.937   3.596  0.0272 -0.4910 -0.7207
38549SOL     OW20203  10.785   8.474  10.514  0.1171 -0.6507  0.1441
38549SOL    HW120204  10.744   8.465  10.600 -0.5340  0.9122  0.0354
38549SOL    HW220205  10.844   8.549  10.524 -0.0090 -0.4220 -0.7668
38550SOL     OW20206   1.107   9.229   6.862  0.0247 -0.2908 -0.3060
38550SOL    HW120207   1.202   9.223   6.848  0.4241  0.1557  1.8127
38550SOL    HW220208   1.088   9.157   6.923 -0.6615  0.6632  0.6394
38551SOL     OW20209   4.500  10.490   8.900 -0.3487 -0.2770  0.1960
38551SOL    HW120210   4.412  10.527   8.898 -0.1497  0.8353  3.7975
38551SOL    HW220211   4.538  10.524   8.981  2.0453 -3.6889  0.7320
38552SOL     OW20212   8.892   4.205   9.702  0.6155 -0.2184  0.3566
38552SOL    HW120213   8.841   4.210   9.621  1.3134  1.3812 -0.0261
38552SOL    HW220214   8.849   4.265   9.762  0.9664 -0.2719  0.6678
38553SOL     OW20215  12.064   2.749   0.617  0.4894 -0.4657  0.0105
38553SOL    HW120216  12.095   2.840   0.620  0.8601 -0.6166  1.0955
38553SOL    HW220217  12.110   2.706   0.688  0.3528 -1.5281 -0.5336
38554SOL     OW20218   0.610   6.543   9.727  0.2437 -0.1299 -0.3952
38554SOL    HW120219   0.593   6.502   9.642 -0.3489 -0.8406  0.0493
38554SOL    HW220220   0.607   6.470   9.789  0.8307  0.3592  0.2143
38555SOL     OW20221   0.649   9.308   9.371  0.1798  0.3559 -0.0038
38555SOL    HW120222   0.646   9.400   9.345  0.8535  0.7169  1.1071
38555SOL    HW220223   0.620   9.260   9.294  2.7382  1.3125 -1.7183
38556SOL     OW20224   4.939   1.605   8.804  0.3897  0.2198  0.3962
38556SOL    HW120225   4.972   1.531   8.854  0.4286 -1.0548 -1.4135
38556SOL    HW220226   5.017   1.639   8.758  0.1727  0.6953  0.3699
38557SOL     OW20227  11.784   3.869   1.617 -0.4536 -0.3530  0.1666
38557SOL    HW120228  11.820   3.893   1.703  1.5250  0.8714 -0.9068
38557SOL    HW220229  11.692   3.849   1.633 -0.5628  1.4971  2.3115
38558SOL     OW20230   6.352  10.882  10.534 -0.0837  0.2239  0.0894
38558SOL    HW120231   6.408  10.820  10.580  0.0785  0.1486 -0.2046
38558SOL    HW220232   6.306  10.829  10.469 -0.0169  0.3938 -0.0979
38559SOL     OW20233   3.356   7.629   3.016 -0.0578 -0.2597 -0.7242
38559SOL    HW120234   3.431   7.598   2.966  0.2156 -1.6355  0.4355
38559SOL    HW220235   3.280   7.597   2.968  0.1664 -0.5611 -0.8827
38560SOL     OW20236  10.598   1.586   5.320 -0.0786  0.5743 -0.4209
38560SOL    HW120237  10.657   1.616   5.389  0.0597 -0.4324 -0.0823
38560SOL    HW220238  10.549   1.514   5.360 -1.2242  1.0922 -0.8411
38561SOL     OW20239  10.964   5.261   1.683  0.6392  0.4157 -0.7172
38561SOL    HW120240  10.872   5.274   1.662  0.0470 -0.2064  1.2213
38561SOL    HW220241  10.964   5.240   1.777  2.6624 -0.6070 -0.8917
38562SOL     OW20242   8.865   9.971   4.652  0.3832 -0.3343 -0.0189
38562SOL    HW120243   8.949   9.932   4.672  0.9582  0.3184 -1.0594
38562SOL    HW220244   8.846  10.027   4.727  0.4484 -1.1378  0.6124
38563SOL     OW20245  11.922  11.182   2.961 -0.2258  0.4793  0.0085
38563SOL    HW120246  11.985  11.179   2.889 -1.2178  1.1475 -0.9129
38563SOL    HW220247  11.942  11.264   3.007  0.4624  0.0114  0.5747
38564SOL     OW20248   9.929   7.977   9.081  0.2716  0.2207 -0.4457
38564SOL    HW120249   9.920   7.918   9.006  0.6374 -2.5949  1.5433
38564SOL    HW220250   9.841   8.011   9.097 -0.4391 -1.5282 -0.4142
38565SOL     OW20251   9.835   9.835   4.125  0.4581  0.7656 -0.2795
38565SOL    HW120252   9.787   9.903   4.171  0.5854  0.0924  0.8706
38565SOL    HW220253   9.913   9.819   4.178  1.6743  1.3975 -1.7815
38566SOL     OW20254   0.530   1.145   4.574 -0.2940 -0.1225 -0.0465
38566SOL    HW120255   0.534   1.174   4.665  2.0167 -0.0432 -0.1144
38566SOL    HW220256   0.561   1.220   4.523 -0.3866 -0.5722 -0.7814
38567SOL     OW20257   2.842   4.939   3.367  0.4526  0.2476  0.9558
38567SOL    HW120258   2.882   5.025   3.352 -0.3229  0.4155 -0.2905
38567SOL    HW220259   2.907   4.876   3.334  0.0887  0.4774 -0.2454
38568SOL     OW20260  10.885  10.714   7.935 -0.7098 -0.1211 -0.3777
38568SOL    HW120261  10.911  10.659   7.861  0.9353 -0.0655  0.1213
38568SOL    HW220262  10.817  10.772   7.899  2.0557  1.9717 -2.7919
38569SOL     OW20263   8.361   7.894   9.023 -0.5449  0.4047 -0.4322
38569SOL    HW120264   8.385   7.985   9.037 -0.1832  0.5884 -1.9943
38569SOL    HW220265   8.289   7.877   9.084  0.4558  1.2328  1.0321
38570SOL     OW20266   8.107   7.714   8.832  0.0023 -0.1422  0.4400
38570SOL    HW120267   8.111   7.709   8.927 -3.4613  0.9535  0.7714
38570SOL    HW220268   8.022   7.676   8.809  0.3746  0.3793 -2.1161
38571SOL     OW20269   8.327   5.878   0.469  0.2163 -0.2046 -0.3828
38571SOL    HW120270   8.366   5.963   0.491 -1.4189  0.2356  0.9987
38571SOL    HW220271   8.290   5.890   0.382  0.7689  0.1997 -0.5700
38572SOL     OW20272  10.848   5.404   7.949 -0.0499  0.6234  0.6634
38572SOL    HW120273  10.802   5.453   7.881  1.1042  1.8216  0.7089
38572SOL    HW220274  10.780   5.381   8.012 -0.9263  0.5694 -0.2838
38573SOL     OW20275   8.096  11.748   1.331  0.1401  0.2305 -0.8032
38573SOL    HW120276   8.167  11.812   1.334 -0.6664  1.1299  0.6580
38573SOL    HW220277   8.022  11.796   1.294 -0.5271  0.2446  0.4701
38574SOL     OW20278   9.918   4.488   4.481  0.3233  0.2059 -0.6782
38574SOL    HW120279   9.908   4.393   4.495  1.1940  0.3507  1.3058
38574SOL    HW220280   9.848   4.527   4.534  0.7700  0.6931 -0.4379
38575SOL     OW20281  11.644   8.650   6.319  0.0249  0.0902 -0.0124
38575SOL    HW120282  11.586   8.575   6.333 -0.3090  0.5587  1.2556
38575SOL    HW220283  11.703   8.622   6.249 -0.5454 -1.0890 -0.0478
38576SOL     OW20284   7.037  10.913   4.203  0.8304  0.7711  0.2328
38576SOL    HW120285   7.079  10.851   4.142 -1.5041 -0.0879 -0.6356
38576SOL    HW220286   7.096  10.988   4.205  2.2173 -0.2003 -1.1529
38577SOL     OW20287  12.105  11.180   6.423  0.2244  0.2992  0.4580
38577SOL    HW120288  12.153  11.172   6.341 -0.6969  0.3818 -0.1076
38577SOL    HW220289  12.169  11.215   6.485  1.0969 -0.3290 -0.0618
38578SOL     OW20290   7.735  11.782   6.661 -0.6164 -0.2208 -0.4089
38578SOL    HW120291   7.752  11.695   6.699  0.0067  0.0720  0.0038
38578SOL    HW220292   7.646  11.802   6.688 -0.9065 -0.8893 -0.8272
38579SOL     OW20293   1.943  11.798  11.578 -0.8450 -0.1836 -0.0736
38579SOL    HW120294   1.897  11.820  11.497  0.5215  3.1090 -0.1068
38579SOL    HW220295   2.036  11.798  11.554 -0.4720 -0.1646  1.2820
38580SOL     OW20296   8.468   4.969   4.407 -0.6444  0.2523 -0.1246
38580SOL    HW120297   8.403   5.010   4.464  0.3057  1.1802  0.3313
38580SOL    HW220298   8.533   5.038   4.392  1.7168 -1.4211  1.7305
38581SOL     OW20299   3.943   4.243   0.852  0.3736 -0.1747  0.5528
38581SOL    HW120300   3.861   4.198   0.831  0.1097  0.3061  0.5270
38581SOL    HW220301   3.919   4.336   0.854  0.9389 -0.0228  0.4489
38582SOL     OW20302   8.773   3.921   5.214 -0.5584 -0.3933  0.0001
38582SOL    HW120303   8.798   3.830   5.198  1.9095  0.0212  0.9994
38582SOL    HW220304   8.709   3.941   5.145 -0.0254 -2.4192 -1.1734
38583SOL     OW20305   2.374   4.378   4.565  0.6685  0.0026  0.2430
38583SOL    HW120306   2.315   4.445   4.530  1.3988 -0.0350 -1.1175
38583SOL    HW220307   2.317   4.304   4.584  0.2705 -0.0557 -1.1103
38584SOL     OW20308   5.108   9.388   9.235 -0.0542  0.1784 -0.3703
38584SOL    HW120309   5.105   9.345   9.150 -0.9956 -0.0400 -0.2292
38584SOL    HW220310   5.199   9.379   9.263 -0.2580 -1.9107 -0.2382
38585SOL     OW20311   4.260   8.586   5.941  0.6542  0.3735  0.5253
38585SOL    HW120312   4.337   8.532   5.959  0.4588 -0.0720  0.0513
38585SOL    HW220313   4.290   8.651   5.878  0.4689 -0.2469 -0.2105
38586SOL     OW20314   0.551  11.862   0.752 -0.0364 -1.0532  0.1270
38586SOL    HW120315   0.646  11.864   0.762 -0.0915 -2.5844  1.3086
38586SOL    HW220316   0.517  11.864   0.841 -1.1792  0.4981 -0.2970
38587SOL     OW20317   0.107   4.946   2.120 -0.2240  0.1789 -0.2576
38587SOL    HW120318   0.179   5.004   2.096 -0.0054  0.0902  0.1692
38587SOL    HW220319   0.110   4.876   2.055  1.8331 -1.3084  1.3214
38588SOL     OW20320   7.771  11.476   9.925  0.0146 -0.0876  0.4890
38588SOL    HW120321   7.716  11.511   9.995  0.6969 -0.7993  1.4263
38588SOL    HW220322   7.718  11.482   9.846  0.0396  2.8672  0.6071
38589SOL     OW20323   5.362   0.104  11.619 -0.1737  0.2934  0.2756
38589SOL    HW120324   5.452   0.126  11.643 -0.4998  0.4940  1.3653
38589SOL    HW220325   5.359   0.113  11.524  1.3476 -1.1433  0.0441
38590SOL     OW20326   0.071   2.551  11.726 -0.0942 -0.1688  0.1871
38590SOL    HW120327   0.056   2.505  11.809  0.2955  0.4389  0.6107
38590SOL    HW220328   0.135   2.496  11.680  0.5968  0.0837  0.8173
38591SOL     OW20329   1.774   1.653   0.207 -0.5146  0.1282  0.2196
38591SOL    HW120330   1.838   1.698   0.263  0.2319 -0.0529 -0.4694
38591SOL    HW220331   1.741   1.722   0.149  0.3820 -0.1153 -0.6111
38592SOL     OW20332   3.929   1.945   7.427  0.2935 -0.4363  0.3799
38592SOL    HW120333   3.836   1.922   7.434  0.3283 -0.9179 -0.5821
38592SOL    HW220334   3.971   1.865   7.397  0.8661  0.0616 -0.1699
38593SOL     OW20335   7.986  10.571   3.078 -0.1447 -0.3782  0.1997
38593SOL    HW120336   8.029  10.655   3.064  0.1788 -0.2053  1.9636
38593SOL    HW220337   8.043  10.526   3.141 -1.3709 -1.0847  0.8300
38594SOL     OW20338   5.401   9.748   0.057  0.0950 -0.4053  0.3827
38594SOL    HW120339   5.389   9.824   0.001  1.0252  0.1472  0.9111
38594SOL    HW220340   5.489   9.715   0.036 -0.8193 -2.2125 -0.8716
38595SOL     OW20341   0.007  11.373   9.649  0.2323 -0.1490  0.0974
38595SOL    HW120342  -0.047  11.408   9.719 -0.2858  0.0212 -0.3825
38595SOL    HW220343   0.030  11.449   9.596 -2.4687 -0.6776 -2.0548
38596SOL     OW20344   4.188   3.766  11.024  0.0018 -0.0730  0.2671
38596SOL    HW120345   4.277   3.797  11.039  0.3865 -1.4755  1.0589
38596SOL    HW220346   4.162   3.724  11.106 -1.1021 -0.3680 -0.2021
38597SOL     OW20347  12.043   1.454   9.616  0.2194 -0.4572  0.4670
38597SOL    HW120348  11.984   1.467   9.691 -0.7643 -1.2615 -0.1389
38597SOL    HW220349  12.117   1.406   9.653 -0.0777 -0.5153  1.0114
38598SOL     OW20350   8.101   4.478  11.676 -0.1793 -0.3462  0.6159
38598SOL    HW120351   8.196   4.488  11.678 -0.2759  1.0666 -0.4144
38598SOL    HW220352   8.068   4.562  11.645 -1.9303 -0.0731  2.9272
38599SOL     OW20353   8.414   9.494   2.582  0.1588 -0.2808  0.3193
38599SOL    HW120354   8.386   9.569   2.634 -2.4481 -1.0079  0.0926
38599SOL    HW220355   8.474   9.531   2.517  0.1244  1.3300  1.1647
38600SOL     OW20356  10.971   2.457   1.817  0.3437  0.2499  0.2768
38600SOL    HW120357  10.997   2.403   1.892  1.5723  1.4477  0.7828
38600SOL    HW220358  11.009   2.543   1.837 -0.3028  0.8978 -1.1798
38601SOL     OW20359   7.171   6.257   1.092  0.0476  0.0487 -0.2842
38601SOL    HW120360   7.150   6.351   1.088 -1.1842 -0.2323 -0.6282
38601SOL    HW220361   7.211   6.246   1.178  0.1944  0.8833 -0.2301
38602SOL     OW20362   1.397   0.528   5.287 -0.1958  0.2818  0.4070
38602SOL    HW120363   1.355   0.443   5.280  0.6148 -0.0626 -0.4736
38602SOL    HW220364   1.340   0.587   5.237  0.3988 -0.2026 -0.8683
38603SOL     OW20365   8.938   7.653   9.414  0.1186  0.3135  0.3365
38603SOL    HW120366   8.876   7.726   9.420  0.6730  0.7549  0.8149
38603SOL    HW220367   8.947   7.637   9.320 -0.9686  0.0188  0.2719
38604SOL     OW20368   2.797   8.370   2.883 -0.2512 -0.9556 -0.3853
38604SOL    HW120369   2.711   8.355   2.921 -0.6516 -0.7260 -1.1811
38604SOL    HW220370   2.787   8.349   2.790 -0.3721  2.3021 -1.2273
38605SOL     OW20371   2.142   9.899   2.718 -0.0258  0.3381 -0.6932
38605SOL    HW120372   2.232   9.927   2.705  0.6818 -1.1361  0.7059
38605SOL    HW220373   2.137   9.813   2.676 -0.2985 -0.3113  0.6159
38606SOL     OW20374  10.503   4.452   3.091 -0.1904 -0.4369 -0.1363
38606SOL    HW120375  10.544   4.377   3.048  0.5668 -0.3521  0.4221
38606SOL    HW220376  10.557   4.527   3.064  0.1186 -0.3430  0.7194
38607SOL     OW20377   1.740   5.443  10.530 -0.5911 -0.0432 -0.1614
38607SOL    HW120378   1.785   5.449  10.614  1.8173 -2.1169 -1.1568
38607SOL    HW220379   1.706   5.353  10.528  2.1500 -1.1871 -2.5226
38608SOL     OW20380  10.470   3.423   6.833  0.1560 -0.0833 -0.5778
38608SOL    HW120381  10.453   3.511   6.866  0.5812 -0.5759  0.9948
38608SOL    HW220382  10.562   3.406   6.854  0.5715 -0.3078 -2.3465
38609SOL     OW20383   9.103   2.623   0.907 -0.6729  0.1908 -0.4119
38609SOL    HW120384   9.199   2.622   0.898 -0.5486  1.3135  0.5141
38609SOL    HW220385   9.073   2.548   0.855  0.7994 -0.9020  0.2362
38610SOL     OW20386  11.839   1.637   1.137  0.0278 -0.2265  0.3506
38610SOL    HW120387  11.792   1.720   1.145 -0.1078 -0.2419 -0.1949
38610SOL    HW220388  11.783   1.573   1.180  1.2774  0.3467  2.9918
38611SOL     OW20389   1.065   3.928   6.372  0.2161 -0.2703  0.5994
38611SOL    HW120390   1.117   3.849   6.384  1.2271  0.3327  0.2869
38611SOL    HW220391   1.104   3.992   6.432 -0.6717 -0.0421  0.9423
38612SOL     OW20392   8.023   7.288   0.192 -0.2779 -0.1871  0.3356
38612SOL    HW120393   7.987   7.220   0.249 -0.2745 -1.3749 -1.0281
38612SOL    HW220394   8.112   7.259   0.173 -1.0954 -1.2789 -2.3780
38613SOL     OW20395   7.087   4.311   5.815 -0.2121 -0.4716 -0.4139
38613SOL    HW120396   7.084   4.216   5.828 -0.1307 -0.1768  2.2566
38613SOL    HW220397   7.178   4.335   5.832 -0.4292  0.1714 -0.0996
38614SOL     OW20398   6.375   0.307   4.799 -0.2084 -0.0080 -0.9038
38614SOL    HW120399   6.351   0.219   4.771 -1.1312 -0.3273  0.7738
38614SOL    HW220400   6.448   0.294   4.859 -1.9440  0.0577  1.3640
38615SOL     OW20401   2.926   0.132   5.932  0.0130  0.0092 -0.3714
38615SOL    HW120402   2.924   0.117   6.027 -1.5352  0.0494 -0.3862
38615SOL    HW220403   2.989   0.204   5.922 -0.6091  0.7375  0.7403
38616SOL     OW20404   1.754   8.342   8.257 -0.0990 -0.3284 -0.0780
38616SOL    HW120405   1.712   8.424   8.282  0.0025 -0.3958  0.3207
38616SOL    HW220406   1.814   8.367   8.187 -0.1785 -0.0849 -0.0606
38617SOL     OW20407   9.272   1.798   0.272  0.3583  0.3088 -0.2408
38617SOL    HW120408   9.205   1.750   0.322  0.7218 -0.2806 -0.3174
38617SOL    HW220409   9.330   1.730   0.238 -1.6850  0.2901 -4.3107
38618SOL     OW20410   2.659   4.623   2.324 -0.2266  0.4939 -0.0087
38618SOL    HW120411   2.723   4.666   2.380 -0.3225 -0.9285  1.2478
38618SOL    HW220412   2.575   4.661   2.351 -0.0868  1.2991 -0.6504
38619SOL     OW20413   4.228   2.310   5.796 -0.2049  0.1869 -0.1324
38619SOL    HW120414   4.228   2.338   5.704 -1.0198  2.2985  0.4443
38619SOL    HW220415   4.156   2.247   5.802 -0.3175  0.2397 -0.8871
38620SOL     OW20416   4.906   2.740   3.475  0.7364 -0.5853  0.1737
38620SOL    HW120417   5.002   2.730   3.470  1.0255  1.4213  0.9005
38620SOL    HW220418   4.884   2.797   3.401  0.0457 -1.2223 -0.1265
38621SOL     OW20419   8.888   0.481  11.080  0.4497 -0.0565 -0.7693
38621SOL    HW120420   8.840   0.545  11.027 -1.0501  1.0049  1.7098
38621SOL    HW220421   8.971   0.524  11.100  1.1141 -0.5436 -2.3244
38622SOL     OW20422   3.995   9.236  10.437  0.0685  0.4609 -0.5218
38622SOL    HW120423   3.930   9.189  10.489  1.6903 -0.4085  0.8210
38622SOL    HW220424   4.024   9.173  10.372 -1.3340  1.2781 -2.0185
38623SOL     OW20425  10.369  10.503   1.122 -0.7691  0.1545  0.1642
38623SOL    HW120426  10.290  10.475   1.075 -2.1578  0.8808  1.9707
38623SOL    HW220427  10.407  10.571   1.066 -1.9991  0.5275 -0.2522
38624SOL     OW20428   9.256   6.133   5.079  0.4716  0.3188  0.3400
38624SOL    HW120429   9.259   6.096   5.167  0.1884 -0.8979 -0.1379
38624SOL    HW220430   9.171   6.177   5.075  0.7755  0.9582  0.8973
38625SOL     OW20431   8.110  10.522   8.205 -0.1955 -0.4274  0.7825
38625SOL    HW120432   8.173  10.569   8.259 -2.4529  2.0649  1.4498
38625SOL    HW220433   8.025  10.549   8.238 -1.6835 -0.8084 -2.3369
38626SOL     OW20434   3.493   7.250   2.769  0.4382 -0.6959  0.1882
38626SOL    HW120435   3.488   7.169   2.820 -0.8230  0.3354  1.7981
38626SOL    HW220436   3.432   7.236   2.697  0.7226 -1.4247  0.0841
38627SOL     OW20437  10.017  10.693   5.361 -0.1375  0.0064  0.3570
38627SOL    HW120438   9.968  10.765   5.401  2.9159  2.0185  0.8491
38627SOL    HW220439  10.011  10.622   5.425 -1.9372  0.3568  0.6188
38628SOL     OW20440   1.841   1.429   4.280 -0.0837 -0.1878 -0.5182
38628SOL    HW120441   1.795   1.481   4.346 -0.9467 -3.5110  1.7245
38628SOL    HW220442   1.783   1.431   4.204 -1.4617 -0.1575  0.4967
38629SOL     OW20443   2.386   0.788   9.468  0.4315 -0.0384 -0.3870
38629SOL    HW120444   2.331   0.764   9.543  1.4166 -1.2030 -0.0105
38629SOL    HW220445   2.463   0.732   9.476  0.8864  0.3432 -1.8753
38630SOL     OW20446   5.489   6.575   7.110  0.6615 -0.3130  0.3086
38630SOL    HW120447   5.583   6.562   7.105  1.3289  2.7293  2.1055
38630SOL    HW220448   5.471   6.647   7.049 -0.4965 -0.7181  0.1326
38631SOL     OW20449  10.201  10.654  10.365 -0.0809  0.4000 -0.1020
38631SOL    HW120450  10.267  10.657  10.435 -0.2969  1.1930  0.0851
38631SOL    HW220451  10.244  10.693  10.289 -0.6739  2.0052  0.3418
38632SOL     OW20452   4.209   1.403   7.190  0.3137 -0.5184  0.0671
38632SOL    HW120453   4.256   1.353   7.256  0.5432 -0.9943 -0.4476
38632SOL    HW220454   4.127   1.430   7.233  1.3868  1.0324  1.2509
38633SOL     OW20455   1.593   6.820   2.638  0.5727  0.2497 -0.0943
38633SOL    HW120456   1.500   6.837   2.653  0.7615  1.0500  0.1813
38633SOL    HW220457   1.597   6.725   2.622 -0.3055  0.2337 -0.2742
38634SOL     OW20458   4.138   1.887   1.828  0.2344  0.5219 -0.0597
38634SOL    HW120459   4.045   1.907   1.825 -0.2566 -1.6921 -1.8748
38634SOL    HW220460   4.144   1.792   1.822  2.6134  0.5781  0.1718
38635SOL     OW20461  11.285  10.735   2.906  0.2857  0.3118 -0.1872
38635SOL    HW120462  11.350  10.769   2.844  1.4449 -2.0079 -0.3535
38635SOL    HW220463  11.206  10.723   2.853 -0.2851  2.8416 -0.0565
38636SOL     OW20464   1.955  10.327   7.828  0.4051 -0.5269  0.1406
38636SOL    HW120465   1.986  10.388   7.761 -0.8708  1.0044  0.8511
38636SOL    HW220466   1.946  10.381   7.907 -3.7106 -0.7681  0.0817
38637SOL     OW20467   3.522   9.058   5.772  0.2465 -0.0627  0.4071
38637SOL    HW120468   3.478   9.007   5.840  0.3200 -0.5418  0.1045
38637SOL    HW220469   3.606   9.081   5.809  0.6874 -1.1593  0.1335
38638SOL     OW20470  11.991   1.001   7.394  0.1833  0.2119  0.5231
38638SOL    HW120471  11.930   1.044   7.333  0.0712  0.6424  0.9281
38638SOL    HW220472  11.956   0.912   7.404 -0.9149  0.7154  1.4451
38639SOL     OW20473  10.826   3.204   7.741  0.0131  0.7040  0.1558
38639SOL    HW120474  10.856   3.280   7.790  0.2392  2.2251 -2.1618
38639SOL    HW220475  10.906   3.152   7.727  0.3677  1.3694 -0.3835
38640SOL     OW20476   9.494  11.189   9.892  0.7926  0.0528  0.1129
38640SOL    HW120477   9.486  11.099   9.923  0.7681 -0.3117 -0.9042
38640SOL    HW220478   9.556  11.230   9.953  0.1743 -0.4053  1.0773
38641SOL     OW20479   5.776   2.724   9.270 -0.3301  0.4872 -0.2805
38641SOL    HW120480   5.768   2.816   9.295  0.2974  0.5192 -0.1831
38641SOL    HW220481   5.722   2.677   9.334 -0.3382  0.7477 -0.0936
38642SOL     OW20482   0.756   7.633   0.099  0.1136 -0.1270 -0.0956
38642SOL    HW120483   0.691   7.581   0.051  0.3717 -1.9457  1.3896
38642SOL    HW220484   0.826   7.648   0.036 -0.7241 -0.1259 -1.0544
38643SOL     OW20485   5.834   7.601   4.103  0.1345  0.5149 -0.0451
38643SOL    HW120486   5.900   7.634   4.164  0.1397  1.3554 -0.4933
38643SOL    HW220487   5.752   7.602   4.153  0.1006  1.3990 -0.1033
38644SOL     OW20488   1.699   9.460   1.805  0.1931 -0.4521  0.0564
38644SOL    HW120489   1.633   9.430   1.867  0.4297 -0.0096  0.5240
38644SOL    HW220490   1.736   9.539   1.844 -0.9191  0.8982 -1.4929
38645SOL     OW20491   4.452   9.789  11.412 -0.1988 -0.2013 -0.4405
38645SOL    HW120492   4.488   9.778  11.500 -2.6148  0.0072  0.6323
38645SOL    HW220493   4.528   9.780  11.354  1.5189  0.0908  1.6628
38646SOL     OW20494  10.950   5.656   2.913  0.0697 -0.4920  0.0066
38646SOL    HW120495  11.004   5.653   2.833  2.0250 -0.5455  1.2631
38646SOL    HW220496  10.932   5.564   2.933 -2.3975 -0.4492 -1.5494
38647SOL     OW20497   3.182   9.648   5.191 -0.2030 -0.2026  0.0022
38647SOL    HW120498   3.206   9.740   5.200 -0.3280 -0.1783  0.0909
38647SOL    HW220499   3.243   9.613   5.125  2.3127 -0.9780  2.5537
38648SOL     OW20500   5.412   2.932   9.987  0.2205  0.3030 -0.2120
38648SOL    HW120501   5.417   3.016  10.034 -0.2845 -0.2826  0.9344
38648SOL    HW220502   5.381   2.870  10.053  1.0350 -0.8860 -0.9169
38649SOL     OW20503   5.280   3.417   1.516 -0.0283  0.1018  0.1473
38649SOL    HW120504   5.320   3.457   1.594  3.1401 -0.5355 -1.0022
38649SOL    HW220505   5.274   3.489   1.453 -0.3865  0.0920  0.1641
38650SOL     OW20506  10.080   8.698   2.484  0.5991 -0.5770  0.3441
38650SOL    HW120507  10.097   8.606   2.461  0.2618 -0.9885  1.6617
38650SOL    HW220508  10.048   8.694   2.574  3.3713  1.0803  1.4988
38651SOL     OW20509   8.849  10.062   3.177 -0.0050  0.2571 -0.6040
38651SOL    HW120510   8.887  10.027   3.097  0.4656 -2.6910  0.7552
38651SOL    HW220511   8.918  10.118   3.213  0.6862 -0.2237 -1.1408
38652SOL     OW20512   5.443   7.044   2.852 -0.4899 -0.4271  0.3822
38652SOL    HW120513   5.521   7.098   2.864  0.3665 -1.4658 -0.3677
38652SOL    HW220514   5.415   7.062   2.762 -2.0690  1.1120  1.1051
38653SOL     OW20515   1.375   3.799   6.228 -0.1571  0.3033 -0.2213
38653SOL    HW120516   1.403   3.708   6.218 -0.4622  0.1699  0.0998
38653SOL    HW220517   1.356   3.808   6.321 -0.0669  0.7168 -0.2406
38654SOL     OW20518   3.940   0.527   4.418 -0.2710  0.3922 -0.1014
38654SOL    HW120519   3.930   0.456   4.354 -1.1567 -0.6212  1.0955
38654SOL    HW220520   4.024   0.566   4.398 -0.1120 -0.5013 -1.2954
38655SOL     OW20521   3.546  10.395   9.417  0.8926 -0.3184  0.5298
38655SOL    HW120522   3.578  10.472   9.371  0.5587 -0.0279  0.7768
38655SOL    HW220523   3.450  10.404   9.416  0.7456 -1.6825 -1.0768
38656SOL     OW20524  10.039   5.055  11.722  0.1260  0.1857 -0.5580
38656SOL    HW120525   9.963   5.013  11.682  0.4858  0.3532 -1.4408
38656SOL    HW220526  10.100   4.983  11.737 -0.6705 -0.1467  1.3088
38657SOL     OW20527   0.255   4.978   5.772  0.4201 -0.0383 -0.0879
38657SOL    HW120528   0.346   4.959   5.749 -0.0627 -1.5054 -0.9635
38657SOL    HW220529   0.210   4.981   5.687 -0.5197 -0.3925  0.3869
38658SOL     OW20530   1.666  10.678   9.178 -0.0985  0.1598  0.0851
38658SOL    HW120531   1.716  10.729   9.115 -0.3185  1.1971  0.7263
38658SOL    HW220532   1.659  10.591   9.139  0.5475  0.5333 -0.8885
38659SOL     OW20533   5.400   7.787  10.561 -0.2793  0.5456 -0.4645
38659SOL    HW120534   5.486   7.750  10.582 -0.4782 -0.1494 -0.8250
38659SOL    HW220535   5.395   7.781  10.465 -0.8890  0.2169 -0.4143
38660SOL     OW20536   1.428   8.597   6.357 -0.0955 -0.3255 -0.7102
38660SOL    HW120537   1.377   8.657   6.303 -1.7988 -0.3939  0.7201
38660SOL    HW220538   1.368   8.525   6.376  1.2013 -1.4005 -0.6008
38661SOL     OW20539   6.243   5.300   3.045 -0.6305  0.3040 -0.3895
38661SOL    HW120540   6.172   5.279   3.105  0.1037  0.1312  0.4297
38661SOL    HW220541   6.216   5.261   2.962 -2.2170  1.5624 -0.5143
38662SOL     OW20542  10.121   7.707   3.775 -0.1051 -0.1277 -0.6605
38662SOL    HW120543  10.168   7.702   3.858 -1.9585 -2.8249  0.3863
38662SOL    HW220544  10.189   7.703   3.708  1.3943  1.3689  0.6899
38663SOL     OW20545   0.328   5.310  10.623 -0.3476 -0.3706  0.2401
38663SOL    HW120546   0.293   5.221  10.610 -1.0791 -0.1898  0.8811
38663SOL    HW220547   0.255   5.359  10.660 -0.4334  0.9307 -1.5199
38664SOL     OW20548   1.518  11.325   7.499  0.2422  0.0451 -0.3744
38664SOL    HW120549   1.508  11.359   7.588  1.4882 -1.5166  0.4202
38664SOL    HW220550   1.434  11.341   7.457  0.2926  2.7060  0.3901
38665SOL     OW20551   1.590   7.210  11.101  0.3403 -0.1667  0.0083
38665SOL    HW120552   1.665   7.255  11.062  0.6544 -0.9761 -0.3436
38665SOL    HW220553   1.547   7.167  11.026 -0.1621 -0.1459  0.2828
38666SOL     OW20554   0.440  11.828   1.838  0.4130  0.0882  0.1614
38666SOL    HW120555   0.458  11.922   1.839  0.4462  0.0984 -0.7226
38666SOL    HW220556   0.350  11.820   1.869 -0.2881  0.5916 -1.6048
38667SOL     OW20557   2.173   7.666  11.379 -0.0568  0.0101 -0.0373
38667SOL    HW120558   2.141   7.598  11.319 -0.4871  0.6847 -0.5788
38667SOL    HW220559   2.203   7.617  11.456 -0.2461 -0.8051 -0.4682
38668SOL     OW20560   8.531  12.119   3.098  0.0325  0.1472  0.1128
38668SOL    HW120561   8.523  12.134   3.192  0.2171 -0.4945  0.2365
38668SOL    HW220562   8.443  12.136   3.064  0.1904  1.3003  0.2599
38669SOL     OW20563   3.718   8.842   4.152  0.3827  0.2591 -0.0983
38669SOL    HW120564   3.721   8.805   4.063  0.0873 -0.2655  0.0981
38669SOL    HW220565   3.743   8.933   4.142  1.1476  0.0039 -0.6076
38670SOL     OW20566  10.298   2.010   5.013  0.1950 -0.2873 -0.1588
38670SOL    HW120567  10.262   2.023   4.925 -1.0488 -0.6264  0.2802
38670SOL    HW220568  10.390   1.985   4.998  0.6134  1.6943 -1.2670
38671SOL     OW20569   7.656   8.709  10.303  0.5419 -0.4886 -0.4246
38671SOL    HW120570   7.601   8.787  10.292  1.1485 -0.1471 -1.0825
38671SOL    HW220571   7.595   8.641  10.333 -0.0436  0.1626 -0.0933
38672SOL     OW20572   8.213   4.065   1.718 -0.1585  0.7400  0.0514
38672SOL    HW120573   8.149   4.060   1.646 -0.1608 -0.4505  0.1122
38672SOL    HW220574   8.199   3.984   1.767  1.5439  0.3589 -0.0525
38673SOL     OW20575   9.000   2.679   1.148 -0.4108  0.2563  0.0265
38673SOL    HW120576   8.996   2.765   1.190  0.2204 -0.0167  0.6708
38673SOL    HW220577   9.060   2.691   1.075 -2.5320  1.0729 -1.6808
38674SOL     OW20578  10.992   3.285   7.261  0.3748 -0.4283 -0.2989
38674SOL    HW120579  11.037   3.209   7.296 -0.9057 -0.7238  0.7848
38674SOL    HW220580  10.910   3.250   7.226 -0.4154  0.4729  0.5806
38675SOL     OW20581   3.506   8.825   3.660 -0.6602  0.0658  0.2853
38675SOL    HW120582   3.468   8.756   3.606 -3.7688  0.9351  1.2090
38675SOL    HW220583   3.432   8.868   3.702  1.4250  1.0966  3.2938
38676SOL     OW20584  10.108  10.085   7.479 -0.3447  0.2959  0.1209
38676SOL    HW120585  10.083  10.075   7.387  0.5211  0.5772 -0.1572
38676SOL    HW220586  10.034  10.130   7.519 -0.7693  0.0965 -0.4193
38677SOL     OW20587   5.293   8.793   7.320 -1.1104 -0.0455  0.0570
38677SOL    HW120588   5.308   8.886   7.335 -0.8203  0.3436 -2.2961
38677SOL    HW220589   5.236   8.789   7.243 -1.3258 -1.8149  0.2529
38678SOL     OW20590  12.052   7.330   4.235 -0.0798  0.0469  0.0753
38678SOL    HW120591  12.039   7.375   4.318  0.0556 -0.1933  0.2275
38678SOL    HW220592  12.098   7.393   4.180 -1.8455  0.9271 -0.4767
38679SOL     OW20593   5.610   4.747   6.999  0.1484  0.0910  0.4364
38679SOL    HW120594   5.598   4.829   6.951 -0.2060  0.3435  0.9534
38679SOL    HW220595   5.610   4.772   7.091  1.9577 -0.2364  0.5714
38680SOL     OW20596   6.827  11.634  11.741 -0.5755 -0.1715 -0.1174
38680SOL    HW120597   6.769  11.579  11.792  1.1818 -1.9701  0.0719
38680SOL    HW220598   6.877  11.684  11.806 -1.5432  1.0408 -0.2658
38681SOL     OW20599  10.139   2.597   5.189  0.6596  0.2330 -0.2471
38681SOL    HW120600  10.215   2.544   5.212  0.0003 -1.7557 -2.1925
38681SOL    HW220601  10.167   2.648   5.113  0.3492  0.1794 -0.4007
38682SOL     OW20602   7.806   0.713   3.134 -0.5623  0.4163 -0.5131
38682SOL    HW120603   7.718   0.732   3.167 -1.3108 -1.0326 -1.5678
38682SOL    HW220604   7.815   0.769   3.057  0.0512  1.6603  0.4314
38683SOL     OW20605   4.933   1.940   9.906  0.6569 -0.5102 -0.1062
38683SOL    HW120606   5.015   1.976   9.873  0.2772  0.3693 -0.1465
38683SOL    HW220607   4.949   1.925   9.999  1.0256 -0.8464 -0.2215
38684SOL     OW20608   1.149  11.502  10.575 -0.5185  0.1923  0.2860
38684SOL    HW120609   1.221  11.538  10.523 -0.9991 -0.1041 -0.5903
38684SOL    HW220610   1.125  11.573  10.634  0.4654  0.3116  0.5678
38685SOL     OW20611   9.173   1.455   8.600  0.6491 -0.2625  0.4152
38685SOL    HW120612   9.157   1.413   8.515  0.1427  0.1983  0.2755
38685SOL    HW220613   9.190   1.547   8.578 -2.4428  0.5660  0.9797
38686SOL     OW20614   3.322   2.749   4.011 -0.8126 -0.0594  0.7117
38686SOL    HW120615   3.325   2.654   4.002 -0.1443  0.0055  0.1628
38686SOL    HW220616   3.251   2.765   4.073 -0.7254 -0.9325  1.0547
38687SOL     OW20617   1.323   5.844  11.052 -0.1080  0.4131  0.5943
38687SOL    HW120618   1.376   5.898  11.111  2.5607  0.1047 -1.3410
38687SOL    HW220619   1.315   5.760  11.097  1.3971  0.3645  0.8272
38688SOL     OW20620   6.377   0.940   0.808 -0.4009 -0.6302  0.3177
38688SOL    HW120621   6.427   0.915   0.885  0.7829 -0.9194 -0.5126
38688SOL    HW220622   6.324   1.015   0.836  1.1420  0.2464  1.0154
38689SOL     OW20623  10.945   7.045   7.183  0.2098  0.4802 -0.1559
38689SOL    HW120624  11.030   7.037   7.226  0.9282  1.6479 -1.2826
38689SOL    HW220625  10.894   7.104   7.239  0.5904  0.7657 -0.1079
38690SOL     OW20626   7.869  10.521   8.336  0.2422  0.2518  0.5201
38690SOL    HW120627   7.839  10.612   8.334  0.5861  0.4158  1.7269
38690SOL    HW220628   7.924  10.516   8.414  1.0299 -0.7518 -0.0760
38691SOL     OW20629  11.712   9.157  10.720 -0.2824  0.7623 -0.1668
38691SOL    HW120630  11.758   9.213  10.657 -1.1191  0.0799 -1.4394
38691SOL    HW220631  11.642   9.116  10.668 -1.6318  0.9239  1.4379
38692SOL     OW20632   9.996   8.864   3.645  0.1669 -0.1402  0.8185
38692SOL    HW120633  10.044   8.842   3.725 -0.2683  0.3183  1.2139
38692SOL    HW220634  10.060   8.856   3.575  1.1759  1.6842  1.4635
38693SOL     OW20635   8.469   3.816   2.221 -0.1563  0.5394 -0.2866
38693SOL    HW120636   8.470   3.775   2.135 -0.4044 -1.9209  0.8111
38693SOL    HW220637   8.376   3.818   2.246 -0.1472  1.7606 -0.2678
38694SOL     OW20638   0.292   0.161   5.406 -0.0694  0.1709 -0.0054
38694SOL    HW120639   0.342   0.242   5.402 -1.1826  0.8959  0.4107
38694SOL    HW220640   0.219   0.173   5.346 -0.5673 -0.2847  0.4840
38695SOL     OW20641   5.890   4.699   2.026 -0.4124  0.0863 -0.1307
38695SOL    HW120642   5.960   4.640   2.054  0.7278  1.7058  0.5230
38695SOL    HW220643   5.855   4.735   2.107 -0.3855  1.1157 -0.5632
38696SOL     OW20644   0.746   7.009   1.093  0.6418  0.0529 -1.0663
38696SOL    HW120645   0.833   7.024   1.057  0.9114 -0.0424 -0.4653
38696SOL    HW220646   0.751   6.921   1.132  1.1405  1.1199  1.4495
38697SOL     OW20647   7.370   3.305   6.401 -0.3851 -0.1150 -0.3145
38697SOL    HW120648   7.417   3.325   6.482 -0.0798 -1.1633 -0.2303
38697SOL    HW220649   7.423   3.238   6.358 -1.6406 -1.1085 -0.3589
38698SOL     OW20650   3.380   1.213  10.867  0.4569 -0.3734 -0.5090
38698SOL    HW120651   3.415   1.296  10.835 -0.8699  0.5373  0.2956
38698SOL    HW220652   3.390   1.153  10.793  1.2500  0.5574 -1.1796
38699SOL     OW20653  10.796   4.040   1.560 -0.0322 -0.3054 -0.2230
38699SOL    HW120654  10.863   4.085   1.609 -0.4528 -0.6214  0.6703
38699SOL    HW220655  10.718   4.095   1.568  0.2075  0.2651 -1.5910
38700SOL     OW20656   6.958   9.757   2.431  0.3585  0.5339  1.4110
38700SOL    HW120657   6.889   9.754   2.498  1.0271  0.6006  2.1247
38700SOL    HW220658   7.002   9.672   2.437 -1.4693 -0.7097 -1.0699
38701SOL     OW20659  10.322  10.555   7.399  0.6544 -0.3387  0.1330
38701SOL    HW120660  10.348  10.647   7.410 -0.3327 -0.0807  0.3467
38701SOL    HW220661  10.342  10.536   7.307  0.1724  0.3217 -0.1194
38702SOL     OW20662   7.681   5.233  10.215 -0.1430 -0.4733 -0.3843
38702SOL    HW120663   7.743   5.292  10.172 -1.7263  2.2848  0.8824
38702SOL    HW220664   7.608   5.226  10.154 -1.8609  2.4878  1.1466
38703SOL     OW20665   9.944   3.426   6.487 -0.1562  0.0793 -0.1885
38703SOL    HW120666   9.929   3.519   6.505  0.7766 -0.1461  2.0633
38703SOL    HW220667  10.033   3.424   6.450 -0.0475  0.0543  0.0743
38704SOL     OW20668   3.669  10.024   3.966  0.3358 -0.5672 -0.1359
38704SOL    HW120669   3.600   9.962   3.989 -0.4856  0.2350 -0.3677
38704SOL    HW220670   3.629  10.110   3.978  1.7630 -0.0473  1.1521
38705SOL     OW20671   5.637   4.228   4.834  0.1368  0.2498  0.2806
38705SOL    HW120672   5.567   4.186   4.783  1.3770 -2.8176  0.8394
38705SOL    HW220673   5.608   4.221   4.925  0.5092  0.2907  0.4034
38706SOL     OW20674   0.901   5.868   0.405 -0.0076  0.0924  0.5251
38706SOL    HW120675   0.860   5.848   0.489  0.3092  2.9169  1.4696
38706SOL    HW220676   0.994   5.853   0.420  0.3690  2.8425  1.5799
38707SOL     OW20677   3.789   0.282   8.005  0.4444  0.4223  0.5017
38707SOL    HW120678   3.760   0.221   8.074  0.7262  0.2074  0.4312
38707SOL    HW220679   3.743   0.253   7.927  0.3069  0.5183  0.5469
38708SOL     OW20680  11.895   7.800   5.071 -0.4222 -0.4506  0.3734
38708SOL    HW120681  11.852   7.771   5.152 -0.7856  1.0060  0.7218
38708SOL    HW220682  11.980   7.832   5.100 -0.9305  0.9863  0.3402
38709SOL     OW20683   5.049   6.720   3.613  0.2798  0.3734  0.2190
38709SOL    HW120684   5.024   6.810   3.589  0.6733  0.0191 -1.7050
38709SOL    HW220685   5.052   6.673   3.529 -0.8847 -1.7144  1.2762
38710SOL     OW20686  10.767   9.893   6.870  0.3186 -0.1718  0.0777
38710SOL    HW120687  10.709   9.841   6.926 -0.3000  2.3954  2.0304
38710SOL    HW220688  10.855   9.861   6.890 -0.1372 -1.6516 -0.1692
38711SOL     OW20689   9.205  11.184   0.361  0.1033  0.5974 -0.2016
38711SOL    HW120690   9.279  11.123   0.368  0.7072  1.4790  1.6288
38711SOL    HW220691   9.168  11.166   0.275  0.1778 -2.4486  0.2798
38712SOL     OW20692   4.059   0.278  11.973 -0.3428  0.7877 -0.0925
38712SOL    HW120693   4.128   0.337  12.003  1.8671 -1.7519  0.2054
38712SOL    HW220694   4.006   0.260  12.051  0.6699  0.2423  0.4886
38713SOL     OW20695   1.895  11.906   9.466 -0.5310 -0.1211 -0.4476
38713SOL    HW120696   1.913  11.990   9.507 -2.1075  1.7706 -3.3566
38713SOL    HW220697   1.978  11.880   9.426  0.0119 -0.1363  0.6374
38714SOL     OW20698   5.247   1.561  11.995 -0.0635  0.4356  0.1132
38714SOL    HW120699   5.222   1.644  11.954  2.8598  1.8745  1.0123
38714SOL    HW220700   5.340   1.552  11.976 -0.0455 -2.1108  1.0190
38715SOL     OW20701   1.565   3.048   3.675  0.0991 -1.1471  0.5372
38715SOL    HW120702   1.649   3.088   3.697 -0.6182 -0.6451  2.6796
38715SOL    HW220703   1.577   3.013   3.587  1.1897  2.7128 -1.0960
38716SOL     OW20704  10.227   3.291   3.435  0.0641 -0.0640 -0.1691
38716SOL    HW120705  10.214   3.213   3.489 -2.6052 -0.7130 -1.5526
38716SOL    HW220706  10.140   3.309   3.398  0.9739  2.5568 -1.2695
38717SOL     OW20707   1.496   9.825   5.280 -0.4040  0.1226 -0.8057
38717SOL    HW120708   1.553   9.796   5.208 -0.6844 -0.2484 -0.8796
38717SOL    HW220709   1.514   9.919   5.288 -0.2403  0.1328 -1.2436
38718SOL     OW20710   1.693   4.963   4.944  0.2155 -0.0611  0.0096
38718SOL    HW120711   1.672   4.971   5.037 -1.5702 -1.2772 -0.2448
38718SOL    HW220712   1.764   5.027   4.930  0.0800  0.6052  2.0408
38719SOL     OW20713  11.634   7.853   6.917 -0.0559  0.4352  0.0758
38719SOL    HW120714  11.719   7.812   6.899  0.8800  2.2618  0.1086
38719SOL    HW220715  11.654   7.924   6.978 -1.2493  2.2015 -1.4622
38720SOL     OW20716   5.518   1.082   4.402 -0.1973  0.2694 -0.0318
38720SOL    HW120717   5.501   0.989   4.417  0.6888  0.4936  2.7350
38720SOL    HW220718   5.466   1.103   4.324 -0.8667 -2.3838 -0.3862
38721SOL     OW20719   4.140   1.535  11.743 -0.4199  0.0593  0.4300
38721SOL    HW120720   4.167   1.445  11.724  0.6453  0.5879 -0.6913
38721SOL    HW220721   4.106   1.531  11.832 -1.9630 -1.7836 -0.1617
38722SOL     OW20722   9.571   3.321   5.772 -0.2926 -0.2927  0.1663
38722SOL    HW120723   9.484   3.360   5.767  0.2646  0.9998 -0.0267
38722SOL    HW220724   9.575   3.262   5.696 -0.0066  1.8678 -1.6193
38723SOL     OW20725   0.876   1.473  10.830 -0.1401  0.2550 -0.0089
38723SOL    HW120726   0.837   1.386  10.823  0.8270 -0.1463 -0.6471
38723SOL    HW220727   0.963   1.463  10.792  1.6492  0.4338  3.5558
38724SOL     OW20728   9.384   0.820   7.479  0.3554 -0.0074 -0.1169
38724SOL    HW120729   9.342   0.875   7.412  0.2281 -0.6655 -0.5861
38724SOL    HW220730   9.466   0.791   7.439 -0.1587 -1.1694 -0.3603
38725SOL     OW20731   5.328   9.582   5.188  0.1855 -0.1061 -0.0549
38725SOL    HW120732   5.252   9.559   5.135  0.4583 -0.8980 -0.1120
38725SOL    HW220733   5.292   9.611   5.272 -0.2424  1.0723 -0.6348
38726SOL     OW20734   4.296   2.446   3.021 -0.6945 -0.2398 -0.0018
38726SOL    HW120735   4.307   2.415   3.111  1.0294  0.4251  0.0528
38726SOL    HW220736   4.254   2.373   2.976  1.3442 -1.8792  0.6079
38727SOL     OW20737   3.556   3.660   8.329 -0.1616  0.0889  0.5449
38727SOL    HW120738   3.541   3.695   8.417  0.5394 -0.2143  0.7946
38727SOL    HW220739   3.651   3.646   8.324 -0.1744  0.2262 -0.3089
38728SOL     OW20740   9.691   8.312   7.285 -0.0499  0.5455  0.1347
38728SOL    HW120741   9.607   8.294   7.242  0.9663  0.3630 -1.8819
38728SOL    HW220742   9.691   8.406   7.300 -0.8221  0.4732  0.6346
38729SOL     OW20743   1.085   2.939   0.424  0.4870 -0.5027 -0.0823
38729SOL    HW120744   1.048   3.024   0.448 -2.6850 -1.6352 -0.4621
38729SOL    HW220745   1.132   2.955   0.342 -0.0980  0.8997 -0.1747
38730SOL     OW20746   7.277   6.040   6.865  0.0140 -0.2512  0.0279
38730SOL    HW120747   7.302   5.968   6.807 -2.2018 -0.2901 -0.9876
38730SOL    HW220748   7.301   6.119   6.817 -0.4258 -0.2957 -0.2675
38731SOL     OW20749   8.732   4.286   0.633 -0.6281  0.6850 -0.0055
38731SOL    HW120750   8.668   4.352   0.657 -0.4644  1.0224 -0.4889
38731SOL    HW220751   8.685   4.228   0.572  0.0826  2.0998 -1.9958
38732SOL     OW20752   4.302   6.624   7.492 -0.0476  0.1378  0.3822
38732SOL    HW120753   4.379   6.609   7.437  0.9278 -0.2819  1.8052
38732SOL    HW220754   4.282   6.538   7.528 -0.0298  0.5596  1.4570
38733SOL     OW20755   1.748   9.080   0.196 -0.0915 -0.1940 -0.0226
38733SOL    HW120756   1.654   9.083   0.178 -0.0896 -0.3932 -0.0769
38733SOL    HW220757   1.753   9.056   0.289 -0.1014  0.8232  0.2449
38734SOL     OW20758   6.530   9.541   1.759 -0.7062  0.2501  0.3071
38734SOL    HW120759   6.506   9.627   1.724  0.9056  0.9836  0.9077
38734SOL    HW220760   6.619   9.526   1.726 -0.6275 -0.7830  0.9574
38735SOL     OW20761   4.410   0.455   3.283 -0.1763  0.5091  0.8527
38735SOL    HW120762   4.337   0.393   3.279  0.8955 -0.9170  2.3032
38735SOL    HW220763   4.375   0.529   3.333 -1.0273  0.4814  0.3379
38736SOL     OW20764   5.371   9.338   4.545  0.0296  0.5268 -0.0006
38736SOL    HW120765   5.406   9.276   4.481 -1.3710 -0.2706 -0.0235
38736SOL    HW220766   5.313   9.286   4.600  1.2589  1.1599  2.0262
38737SOL     OW20767   6.003   3.744  11.848 -0.1022  0.0211  0.3405
38737SOL    HW120768   5.954   3.687  11.908 -0.5955  1.2927  1.1768
38737SOL    HW220769   6.060   3.684  11.800 -1.3062 -1.3099  0.4790
38738SOL     OW20770   1.723   7.162   9.128  0.1267  0.3071 -0.1827
38738SOL    HW120771   1.654   7.116   9.080 -0.8778  1.6072 -0.0391
38738SOL    HW220772   1.770   7.093   9.175 -0.3573 -0.7239 -1.1809
38739SOL     OW20773   8.505  11.204   9.966  0.3186 -0.3360  0.4325
38739SOL    HW120774   8.579  11.147   9.943 -0.3958 -1.3965  0.6798
38739SOL    HW220775   8.510  11.275   9.903  1.3579 -0.5584  0.2318
38740SOL     OW20776   1.074   7.977   4.483 -0.2011  0.0760  0.0346
38740SOL    HW120777   1.147   8.033   4.458  2.0167 -2.4725  0.3102
38740SOL    HW220778   1.020   7.971   4.404 -0.2689  2.1734 -0.1138
38741SOL     OW20779   8.843  12.087   8.390 -0.6420  0.3358 -0.4319
38741SOL    HW120780   8.874  12.068   8.478 -1.5903  0.8500  0.0377
38741SOL    HW220781   8.768  12.028   8.378  0.8734 -1.4006 -1.8145
38742SOL     OW20782   6.768   4.507   7.705  0.2330  0.1199 -0.0126
38742SOL    HW120783   6.720   4.590   7.703  0.0022 -0.0233 -0.8748
38742SOL    HW220784   6.803   4.501   7.794 -1.6614  0.0480  0.7686
38743SOL     OW20785   4.746   5.146   2.454 -0.1659 -0.3931 -0.3589
38743SOL    HW120786   4.668   5.201   2.441  0.8876  1.5910  1.1644
38743SOL    HW220787   4.741   5.118   2.545  0.1779 -1.4661 -0.6586
38744SOL     OW20788   8.933   3.252   1.307  0.0060  0.4132  0.3475
38744SOL    HW120789   9.016   3.292   1.282 -0.2446  1.2466  0.8107
38744SOL    HW220790   8.948   3.216   1.394  0.2770 -0.6601 -0.1325
38745SOL     OW20791   0.276   6.268  11.462  0.0022 -0.2578  0.0472
38745SOL    HW120792   0.348   6.331  11.466 -0.2104 -0.0410  0.5792
38745SOL    HW220793   0.298   6.211  11.389  0.8560 -0.3639  0.3825
38746SOL     OW20794  11.905  10.960   7.890 -0.5767 -0.2977  0.2819
38746SOL    HW120795  11.854  10.938   7.812  1.3472 -1.6660 -0.6621
38746SOL    HW220796  11.903  10.880   7.943  0.9464 -0.5401  0.0026
38747SOL     OW20797   8.622  10.745   0.801  0.3226  0.2836 -0.3123
38747SOL    HW120798   8.599  10.750   0.708 -0.1190  0.5064 -0.1944
38747SOL    HW220799   8.552  10.693   0.841  1.0898 -0.7443 -0.2880
38748SOL     OW20800   0.723   8.550  10.022 -0.6087  0.1205  0.3299
38748SOL    HW120801   0.739   8.483  10.090 -2.0231 -1.8133 -1.1197
38748SOL    HW220802   0.674   8.503   9.954  0.6514  2.0028 -2.0055
38749SOL     OW20803   6.848   2.423  10.547 -0.5344  0.3583  0.2486
38749SOL    HW120804   6.921   2.381  10.501 -2.5324 -1.9993 -1.0143
38749SOL    HW220805   6.865   2.404  10.639  0.0064 -0.9987 -0.0986
38750SOL     OW20806   6.150  11.072   0.476  0.0461  0.5627  0.3044
38750SOL    HW120807   6.105  11.071   0.391  0.4472  0.9116  0.0846
38750SOL    HW220808   6.220  11.008   0.466  0.5617  1.1520  0.1129
38751SOL     OW20809   1.406   1.239   2.906 -0.3950  0.4184  0.7252
38751SOL    HW120810   1.325   1.221   2.857  1.3121 -1.7359 -1.6363
38751SOL    HW220811   1.430   1.328   2.880  0.3764 -0.5824 -2.5590
38752SOL     OW20812  12.117   0.366   1.042  0.4766 -0.2102  0.4924
38752SOL    HW120813  12.022   0.364   1.050  0.3673  0.0291 -0.5386
38752SOL    HW220814  12.136   0.448   0.996  1.1914 -0.1971  0.7960
38753SOL     OW20815   9.456   7.387  10.776 -0.4438 -0.1835 -0.4509
38753SOL    HW120816   9.504   7.309  10.751  2.5263  1.2621  0.2869
38753SOL    HW220817   9.385   7.355  10.831  0.4694 -2.3689 -0.4425
38754SOL     OW20818   2.330  11.377   2.088  0.2081  0.1872  0.2061
38754SOL    HW120819   2.329  11.324   2.008  0.2305  0.9524 -0.3090
38754SOL    HW220820   2.407  11.345   2.137 -0.8876 -1.6120  0.8639
38755SOL     OW20821   4.460  10.128   6.359  0.0306 -0.1146 -0.0013
38755SOL    HW120822   4.448  10.091   6.272 -0.2139 -0.5631  0.2220
38755SOL    HW220823   4.510  10.061   6.407 -0.0172  0.0400  0.2654
38756SOL     OW20824   8.799   4.000   6.289 -0.1360  0.1806 -0.1257
38756SOL    HW120825   8.724   4.057   6.275  0.6796  0.9489 -1.5528
38756SOL    HW220826   8.761   3.913   6.300 -1.2023  0.3023 -2.3669
38757SOL     OW20827  11.407   9.781   5.658  0.0093  0.2622 -0.6406
38757SOL    HW120828  11.422   9.790   5.752 -0.1843 -1.7819 -0.3607
38757SOL    HW220829  11.382   9.868   5.628  0.3847  1.0112  1.1348
38758SOL     OW20830   0.052   0.986   2.398  0.3366 -0.4535  0.0834
38758SOL    HW120831  -0.016   0.980   2.465  1.1633  0.0899  0.9966
38758SOL    HW220832   0.084   0.897   2.387 -0.0090 -0.5922  0.1965
38759SOL     OW20833  12.002   8.021   3.594 -0.3427  0.1888  0.1530
38759SOL    HW120834  11.984   7.931   3.622 -2.4057  0.4285 -0.2507
38759SOL    HW220835  11.975   8.024   3.502 -0.3751  1.2427  0.1848
38760SOL     OW20836  10.120   5.809   7.012  0.0021 -0.3172  0.1073
38760SOL    HW120837  10.104   5.725   7.056 -0.1873 -1.1442 -1.4966
38760SOL    HW220838  10.119   5.873   7.083  0.1659 -1.6618  1.3745
38761SOL     OW20839   0.288   2.996   1.714 -0.0102  0.2032  0.2376
38761SOL    HW120840   0.211   2.962   1.759 -1.3689 -1.3826 -2.9004
38761SOL    HW220841   0.358   2.934   1.736 -0.2419  0.2956  1.2647
38762SOL     OW20842   2.954   6.820   5.174  0.2666 -0.2499 -0.7193
38762SOL    HW120843   2.897   6.885   5.133 -1.1326 -1.7108 -1.1616
38762SOL    HW220844   2.894   6.760   5.219  1.4124 -2.0052 -1.4420
38763SOL     OW20845   1.598   3.586   5.464  0.3439  0.1983 -0.4170
38763SOL    HW120846   1.664   3.517   5.459  0.2679  0.1064 -0.1538
38763SOL    HW220847   1.515   3.540   5.460  0.2810  0.1995  0.5624
38764SOL     OW20848  11.572  11.325   4.058 -0.4249 -0.4676 -0.1263
38764SOL    HW120849  11.665  11.323   4.037 -0.3239  1.5727 -0.0967
38764SOL    HW220850  11.552  11.418   4.068 -2.2177 -0.9238  0.9982
38765SOL     OW20851   6.688   4.105   9.744  0.0849  0.1142  0.0244
38765SOL    HW120852   6.658   4.086   9.833  1.0067  0.3446  0.3954
38765SOL    HW220853   6.654   4.192   9.725  0.4101  0.3321  0.4066
38766SOL     OW20854   8.178  12.071   7.086 -0.1975 -0.0593  0.5533
38766SOL    HW120855   8.245  12.084   7.020 -0.1265 -1.5120  0.3132
38766SOL    HW220856   8.177  12.153   7.136  0.6250  0.5722 -0.4339
38767SOL     OW20857   1.684   9.800  10.879  0.5728  0.5628 -0.1099
38767SOL    HW120858   1.606   9.801  10.824 -0.1302 -0.7037  0.8121
38767SOL    HW220859   1.661   9.744  10.953  1.8264  1.4216  0.9849
38768SOL     OW20860   1.625   8.971   9.943  0.7003 -0.4877  0.0773
38768SOL    HW120861   1.552   9.025   9.975  1.2279  1.9320 -2.4157
38768SOL    HW220862   1.587   8.917   9.874  1.1195  0.4780 -0.9427
38769SOL     OW20863   6.489  11.380   0.151 -0.7635  0.0718 -0.1795
38769SOL    HW120864   6.484  11.450   0.216  0.4907  1.2079 -1.2776
38769SOL    HW220865   6.397  11.359   0.132 -1.1486  1.0472  0.5241
38770SOL     OW20866   4.301   3.533   5.544  0.3592 -0.0496 -0.1533
38770SOL    HW120867   4.252   3.518   5.625 -0.9332  0.2910 -0.8279
38770SOL    HW220868   4.260   3.611   5.506  2.4289  1.1684 -0.0482
38771SOL     OW20869   9.509   4.262   1.741 -0.1740 -0.1071 -0.1934
38771SOL    HW120870   9.594   4.221   1.757 -0.2300 -0.1585 -0.0168
38771SOL    HW220871   9.481   4.230   1.656 -0.4898 -0.9006  0.1995
38772SOL     OW20872  10.078   5.570   3.372 -0.0202  0.6264 -0.2622
38772SOL    HW120873  10.039   5.612   3.295  0.2110  0.7419 -0.3157
38772SOL    HW220874  10.146   5.513   3.336 -0.8119 -0.3698 -0.2593
38773SOL     OW20875  10.987   0.285   9.036 -0.2324  0.3243 -0.0717
38773SOL    HW120876  11.057   0.270   9.100  1.4323  1.8133 -1.4295
38773SOL    HW220877  10.969   0.198   9.001  1.5161 -0.0213 -0.2170
38774SOL     OW20878   8.570   1.744   9.222  0.2967  0.2232 -0.5336
38774SOL    HW120879   8.649   1.711   9.265  1.3108  0.7822 -1.8954
38774SOL    HW220880   8.520   1.785   9.293 -0.0036 -2.2655  0.8231
38775SOL     OW20881   1.323  10.851   2.621 -0.7506  0.5766 -0.1373
38775SOL    HW120882   1.325  10.868   2.526  0.5083  0.5109 -0.1470
38775SOL    HW220883   1.350  10.760   2.629 -1.2281  0.4695  0.2691
38776SOL     OW20884  10.658   3.162   5.387 -0.2170  0.6565 -0.2422
38776SOL    HW120885  10.648   3.146   5.481 -1.9907 -0.5146 -0.5672
38776SOL    HW220886  10.721   3.233   5.381  0.3008  0.4326  1.8125
38777SOL     OW20887   3.467  10.068   1.273 -0.2573 -0.1893 -0.1214
38777SOL    HW120888   3.504  10.155   1.287 -0.8288  0.2500 -1.2427
38777SOL    HW220889   3.466  10.028   1.360  1.4106  0.3454  0.1922
38778SOL     OW20890   5.621   3.480   6.691  0.6176 -0.5967 -0.3914
38778SOL    HW120891   5.562   3.520   6.628  0.0962  0.5521  0.7847
38778SOL    HW220892   5.690   3.439   6.638 -0.7047 -1.1430 -1.7485
38779SOL     OW20893   9.487   5.352   2.377 -0.1360  0.4726 -0.3456
38779SOL    HW120894   9.562   5.411   2.387 -0.6842  1.4578 -1.7031
38779SOL    HW220895   9.515   5.288   2.311 -0.4482  0.8007 -0.8035
38780SOL     OW20896   7.170   2.770   3.671 -0.7574 -0.4709  0.3996
38780SOL    HW120897   7.221   2.806   3.599 -2.9989 -0.0734 -1.0957
38780SOL    HW220898   7.079   2.773   3.640 -1.5377 -2.9326  2.1366
38781SOL     OW20899  10.481   9.864   3.259 -0.0286  0.0210 -0.0807
38781SOL    HW120900  10.434   9.880   3.176  0.2685 -1.0516 -0.4734
38781SOL    HW220901  10.412   9.867   3.326 -0.6395 -1.2915 -0.6221
38782SOL     OW20902   2.441   2.131   2.861  0.3357 -0.4948  0.0007
38782SOL    HW120903   2.496   2.086   2.796 -1.9770 -2.7967 -0.5079
38782SOL    HW220904   2.384   2.188   2.809  0.2754 -0.3162  0.2598
38783SOL     OW20905   4.243   3.936   5.050  0.1757  0.1080 -0.0506
38783SOL    HW120906   4.219   3.843   5.058 -2.4145  0.7911  0.9874
38783SOL    HW220907   4.200   3.978   5.124  1.8452  2.0903 -0.1241
38784SOL     OW20908   8.129   2.936   4.039 -0.1111 -0.7086  0.2518
38784SOL    HW120909   8.080   3.013   4.009  1.9869  0.6452  0.0879
38784SOL    HW220910   8.068   2.863   4.029 -1.2946  0.5093 -2.1675
38785SOL     OW20911   2.457   7.764   9.882  0.0749  0.3582 -0.1980
38785SOL    HW120912   2.423   7.821   9.951 -1.0882  0.2309 -0.6441
38785SOL    HW220913   2.483   7.684   9.927 -0.6072  0.3030  0.0986
38786SOL     OW20914   3.194   2.581   7.105 -0.2014  0.3194 -0.5972
38786SOL    HW120915   3.166   2.639   7.034 -1.0490  0.1938 -0.3736
38786SOL    HW220916   3.271   2.536   7.070 -0.3107  0.6185 -1.2485
38787SOL     OW20917   9.962   2.093   2.088  0.3751 -0.2244  0.2534
38787SOL    HW120918  10.012   2.019   2.123 -0.8102 -0.5795  1.2724
38787SOL    HW220919   9.871   2.067   2.096 -0.0233  0.7363 -0.8208
38788SOL     OW20920   6.377   8.939   1.093 -0.1335  0.0302 -0.1642
38788SOL    HW120921   6.355   8.973   1.007 -0.8240  2.5961  0.9186
38788SOL    HW220922   6.294   8.907   1.128  0.3903 -2.2953 -0.9086
38789SOL     OW20923   4.492   6.114   6.572  0.2237  0.2732  0.1890
38789SOL    HW120924   4.486   6.023   6.541  0.3131 -0.0533  1.1052
38789SOL    HW220925   4.505   6.106   6.666 -1.5013  1.2601  0.5594
38790SOL     OW20926   3.765  11.377   3.870  0.3643  0.0487  0.3805
38790SOL    HW120927   3.735  11.468   3.873 -1.1617 -0.4411  1.6512
38790SOL    HW220928   3.799  11.360   3.958 -0.9590 -1.0806  0.7096
38791SOL     OW20929   7.480   6.044   6.239  0.3418 -0.2476 -0.6575
38791SOL    HW120930   7.528   6.044   6.157  0.7121 -1.2173 -0.4615
38791SOL    HW220931   7.471   6.136   6.262 -0.4880  0.0807 -2.1845
38792SOL     OW20932   8.087   1.562   6.378  0.2551 -0.2027 -0.3527
38792SOL    HW120933   7.992   1.549   6.378  0.1477  0.4025 -1.9119
38792SOL    HW220934   8.114   1.545   6.468 -1.3618 -0.1586  0.1560
38793SOL     OW20935   3.074   7.690   4.098  0.6041 -0.1780 -0.5682
38793SOL    HW120936   3.111   7.603   4.114  0.6246  0.0451  0.7222
38793SOL    HW220937   3.129   7.749   4.149 -0.9381  0.2655  0.6820
38794SOL     OW20938   2.679   8.961   4.785 -0.4944  0.7248  0.3416
38794SOL    HW120939   2.765   8.934   4.816 -0.3949  1.4941  0.7752
38794SOL    HW220940   2.623   8.885   4.799 -0.0836  0.5189  0.9115
38795SOL     OW20941   9.763   6.547   7.007  0.2810  0.6764 -0.9136
38795SOL    HW120942   9.796   6.487   7.073 -0.0731 -1.1100 -2.2802
38795SOL    HW220943   9.738   6.626   7.055 -2.4363 -1.4642  1.4870
38796SOL     OW20944   2.305   4.791   3.751 -0.1589 -0.4716 -0.1687
38796SOL    HW120945   2.280   4.699   3.753 -1.6860 -0.0768  0.4098
38796SOL    HW220946   2.373   4.797   3.684 -0.1076 -1.9930 -0.2689
38797SOL     OW20947   4.963   1.400   9.690  0.4803  0.1676  0.2356
38797SOL    HW120948   4.923   1.317   9.663  0.6561  0.5713 -1.3517
38797SOL    HW220949   4.929   1.464   9.628  0.1414  1.3687  1.5991
38798SOL     OW20950  11.533   0.438  11.575 -0.3448  0.1148 -0.0465
38798SOL    HW120951  11.448   0.413  11.610  0.0532 -1.9072 -0.4040
38798SOL    HW220952  11.535   0.401  11.487  0.5883  0.8279 -0.3361
38799SOL     OW20953  10.740   4.119   3.549  0.0036  0.0726 -0.4791
38799SOL    HW120954  10.816   4.172   3.524  1.3464 -1.0025  1.1095
38799SOL    HW220955  10.673   4.183   3.570  1.2561  1.1630  0.4093
38800SOL     OW20956   6.988   3.212   7.596  0.0460  0.3871  0.0957
38800SOL    HW120957   6.964   3.305   7.597  1.2541  0.8072 -2.2762
38800SOL    HW220958   6.934   3.173   7.664 -1.5801  2.5676  0.1782
38801SOL     OW20959   1.421   1.504   4.946 -0.0227 -0.2770 -0.1634
38801SOL    HW120960   1.326   1.505   4.959 -0.2890 -1.6792 -1.7202
38801SOL    HW220961   1.441   1.592   4.913 -0.2290  1.1645  3.0690
38802SOL     OW20962   9.630   5.503  11.497  0.3036  0.0735  0.3938
38802SOL    HW120963   9.545   5.474  11.464 -0.0446  1.4028  0.0736
38802SOL    HW220964   9.628   5.479  11.590  0.1824 -1.2123  0.0801
38803SOL     OW20965  11.046   6.770   7.368 -0.0176  0.2265 -0.2015
38803SOL    HW120966  11.099   6.846   7.342 -0.9092  0.4311 -1.5022
38803SOL    HW220967  10.966   6.808   7.403 -0.2441 -0.1024 -0.3599
38804SOL     OW20968   2.614   6.708   6.444 -0.3543  0.4838  0.0830
38804SOL    HW120969   2.539   6.709   6.503  0.0323 -1.9977  0.7174
38804SOL    HW220970   2.584   6.661   6.367  0.7059 -1.2844  0.6796
38805SOL     OW20971   1.277   0.927   8.439  0.4753 -0.0416 -0.1428
38805SOL    HW120972   1.233   0.885   8.366 -0.6400 -0.1864  0.5884
38805SOL    HW220973   1.234   1.013   8.447  2.3402  1.0459 -1.2676
38806SOL     OW20974  10.247   6.360   8.809  0.3425  0.3416  0.4239
38806SOL    HW120975  10.250   6.296   8.880  0.7897 -1.4134 -1.1042
38806SOL    HW220976  10.186   6.323   8.745 -0.7396  2.3048  0.2359
38807SOL     OW20977   1.816   9.194   8.400  0.3616  0.2411  0.1807
38807SOL    HW120978   1.773   9.280   8.399 -0.9895 -0.4057  0.6394
38807SOL    HW220979   1.909   9.214   8.388 -0.0560  1.6734 -0.8907
38808SOL     OW20980   0.142   9.303  11.904  0.8625  0.1672 -0.2369
38808SOL    HW120981   0.095   9.295  11.821 -1.5545  1.4252  0.9243
38808SOL    HW220982   0.234   9.302  11.879  0.3502 -2.8510 -2.5966
38809SOL     OW20983   2.470   9.402   0.095  0.6796 -0.1923 -0.3944
38809SOL    HW120984   2.444   9.494   0.099  0.8316 -0.1478 -0.4565
38809SOL    HW220985   2.559   9.400   0.130  0.2931 -0.4678  0.6136
38810SOL     OW20986   6.876   1.204   8.918 -0.4871 -0.3222 -0.0126
38810SOL    HW120987   6.887   1.296   8.895 -0.5819  0.0229  1.2752
38810SOL    HW220988   6.961   1.178   8.955  0.1657 -1.2909 -2.0561
38811SOL     OW20989   7.004   7.588  10.459 -0.1621  0.1368  0.1807
38811SOL    HW120990   7.032   7.675  10.429 -0.4412  0.5893  1.1937
38811SOL    HW220991   6.972   7.545  10.380 -1.6759  1.6056 -0.0668
38812SOL     OW20992   2.446   1.056   9.152  0.0942 -0.3483  0.2889
38812SOL    HW120993   2.366   1.071   9.101  0.8521  0.2514 -0.7732
38812SOL    HW220994   2.476   1.144   9.177  1.7416 -0.3180 -1.4869
38813SOL     OW20995  10.344  10.191  10.669 -0.2639 -0.0920  0.1642
38813SOL    HW120996  10.374  10.273  10.707 -1.8443 -0.8856  3.5330
38813SOL    HW220997  10.395  10.123  10.714 -0.1126 -1.0599 -1.3876
38814SOL     OW20998   3.969   9.199   0.135  0.3094  0.2212 -0.4334
38814SOL    HW120999   4.025   9.275   0.119 -0.4859  0.8630 -0.2663
38814SOL    HW221000   3.935   9.213   0.224  0.0532 -0.2663 -0.4518
38815SOL     OW21001   9.226  10.885   8.548 -0.2590  0.6117  0.3891
38815SOL    HW121002   9.133  10.879   8.570 -0.0192 -0.5165  1.1769
38815SOL    HW221003   9.260  10.797   8.563  1.2004  1.2997  1.3111
38816SOL     OW21004  11.343  11.075   8.877 -0.2408 -0.0202  0.0208
38816SOL    HW121005  11.430  11.117   8.873 -0.8197  1.1649 -2.4190
38816SOL    HW221006  11.287  11.139   8.920 -0.0512 -0.5308  1.0458
38817SOL     OW21007   3.210   1.470   6.466  0.6745 -0.3850 -0.1055
38817SOL    HW121008   3.245   1.416   6.537 -0.0521  0.1102  0.6418
38817SOL    HW221009   3.226   1.418   6.387 -0.4290 -1.9234  0.6295
38818SOL     OW21010   7.261   6.761  10.780  0.7138  0.8132  0.3640
38818SOL    HW121011   7.308   6.752  10.697  1.2854 -0.9122  0.8311
38818SOL    HW221012   7.222   6.674  10.795 -1.1342  1.6804  0.8847
38819SOL     OW21013   1.752   5.771   4.087 -0.0173  0.7101 -0.2261
38819SOL    HW121014   1.781   5.704   4.026 -1.4328 -0.1108 -0.0502
38819SOL    HW221015   1.824   5.833   4.092  0.1873  0.7396 -2.6284
38820SOL     OW21016   8.918   0.686   2.434 -0.8773 -0.0642  0.0254
38820SOL    HW121017   8.993   0.744   2.425 -0.6784 -0.1749  0.8871
38820SOL    HW221018   8.926   0.650   2.522 -1.8643 -0.1897  0.0717
38821SOL     OW21019   3.606   7.622   1.923 -0.2559  0.2678 -0.1876
38821SOL    HW121020   3.632   7.668   2.003 -1.1383 -0.6816  0.6623
38821SOL    HW221021   3.634   7.531   1.937 -1.3503 -0.1292 -0.5141
38822SOL     OW21022   9.180   2.889  10.054  0.1629  0.5218 -0.0698
38822SOL    HW121023   9.192   2.918  10.145 -0.2914 -0.3851  0.2942
38822SOL    HW221024   9.151   2.798  10.062  1.9669 -0.1925 -1.1820
38823SOL     OW21025   5.140   9.143   7.502  0.2765  0.2303 -0.1558
38823SOL    HW121026   5.136   9.050   7.481  0.1691 -0.0408  1.0212
38823SOL    HW221027   5.100   9.186   7.427 -1.6817 -0.8142  0.2223
38824SOL     OW21028   1.772   2.506   5.487 -0.8039 -0.0015 -0.2567
38824SOL    HW121029   1.805   2.452   5.560  0.9565  1.0995 -0.2057
38824SOL    HW221030   1.681   2.524   5.511 -0.1632  0.6471  1.8960
38825SOL     OW21031   3.972   6.716   4.233 -0.0464 -0.0572 -0.0288
38825SOL    HW121032   3.947   6.790   4.289 -0.4976 -0.1361 -0.1221
38825SOL    HW221033   3.895   6.659   4.233  0.0667 -0.2118 -0.4743
38826SOL     OW21034   9.089  10.964   9.183  0.0048 -0.4491 -0.1677
38826SOL    HW121035   9.112  10.929   9.097 -0.4194  0.9277 -0.8814
38826SOL    HW221036   9.108  11.058   9.176 -0.6659 -0.2041  1.0211
38827SOL     OW21037   8.630   7.257   8.710  0.6082 -0.0343 -0.1760
38827SOL    HW121038   8.634   7.170   8.749 -0.4669 -0.6062 -1.2984
38827SOL    HW221039   8.613   7.315   8.785  0.7359 -0.8502  0.5025
38828SOL     OW21040   9.587  11.393   4.475  0.3058  0.2395  0.8468
38828SOL    HW121041   9.661  11.449   4.500  0.3089  0.0997  1.1543
38828SOL    HW221042   9.515  11.423   4.531 -0.0017  0.6895  0.2228
38829SOL     OW21043   6.188   7.188   6.475  0.2674  0.6233 -0.2799
38829SOL    HW121044   6.129   7.190   6.550  1.3130  1.1337  0.5682
38829SOL    HW221045   6.156   7.117   6.419  0.4006 -0.8520  1.4388
38830SOL     OW21046   5.511   0.056   3.595 -0.1117 -0.0021 -0.1339
38830SOL    HW121047   5.507   0.135   3.649  2.0399  1.4804 -1.9726
38830SOL    HW221048   5.570  -0.002   3.642 -0.3194  0.2083  0.3889
38831SOL     OW21049   8.297   9.617  12.089  0.1286  0.4534 -0.3528
38831SOL    HW121050   8.309   9.596  11.996  0.4731  0.9879 -0.4328
38831SOL    HW221051   8.381   9.655  12.116  0.9269 -1.8747  0.7971
38832SOL     OW21052   5.280   8.067   5.560 -0.3292  0.4368 -0.0270
38832SOL    HW121053   5.366   8.075   5.602 -0.1991  0.5128 -0.3054
38832SOL    HW221054   5.253   7.978   5.579 -0.4241  0.5746  0.5086
38833SOL     OW21055   7.775   9.875   6.081  0.1363 -0.2488 -0.1332
38833SOL    HW121056   7.764   9.909   5.993 -0.6728 -0.4094 -0.1061
38833SOL    HW221057   7.688   9.842   6.105  0.1058  0.6322  1.0688
38834SOL     OW21058   6.972   4.131   2.154  0.0156  0.3626  0.3641
38834SOL    HW121059   7.013   4.190   2.217  0.7389  0.0835  0.1679
38834SOL    HW221060   6.882   4.121   2.185  0.0893  1.0048  0.7935
38835SOL     OW21061  11.209   5.889   4.682 -0.2223  0.0826  0.2675
38835SOL    HW121062  11.115   5.871   4.675  0.0039 -1.3513  0.6148
38835SOL    HW221063  11.223   5.910   4.774 -0.0578 -0.6966  0.4278
38836SOL     OW21064   7.591  10.940   6.842 -0.0995 -0.3742  0.4023
38836SOL    HW121065   7.663  10.879   6.825 -0.0922 -0.2623  0.0230
38836SOL    HW221066   7.578  10.986   6.759  0.0550  0.3163  0.7535
38837SOL     OW21067   4.622   7.252  10.974 -0.8125 -0.0966  0.3288
38837SOL    HW121068   4.635   7.187  10.906 -2.1902  1.1268 -1.1891
38837SOL    HW221069   4.595   7.202  11.051  0.3755 -1.4643 -0.1068
38838SOL     OW21070   7.362   3.764   0.631 -0.1462 -0.2499  0.4490
38838SOL    HW121071   7.349   3.767   0.536  2.5866 -1.3933 -0.0428
38838SOL    HW221072   7.274   3.750   0.667 -1.1253 -0.6894 -1.9466
38839SOL     OW21073   9.263   6.034   0.721  0.0464  0.7540 -0.0944
38839SOL    HW121074   9.292   6.125   0.733  2.1586  0.1914 -0.6041
38839SOL    HW221075   9.343   5.986   0.700 -1.3741 -0.7697 -2.5224
38840SOL     OW21076   3.086  10.022   3.688 -0.3331  0.6345 -0.5242
38840SOL    HW121077   3.127  10.041   3.603  0.5050 -0.5640 -0.4069
38840SOL    HW221078   2.993  10.020   3.669 -0.0787 -1.6115 -1.8810
38841SOL     OW21079   5.591  10.901   4.736  0.1575 -0.0826 -0.4927
38841SOL    HW121080   5.648  10.967   4.775 -1.1449  0.7713  0.0440
38841SOL    HW221081   5.566  10.844   4.809  0.3436 -0.4863 -0.7357
38842SOL     OW21082   4.007   1.142   5.289 -0.2220 -0.1402  0.2697
38842SOL    HW121083   4.087   1.179   5.251  0.0235 -0.8062  0.1252
38842SOL    HW221084   4.038   1.085   5.359 -0.6676  0.9682  1.4037
38843SOL     OW21085   9.030   8.835   7.985  0.2757  0.6165  0.1506
38843SOL    HW121086   8.998   8.752   8.019 -0.4259  0.7385 -0.1782
38843SOL    HW221087   9.094   8.865   8.050 -0.8464  0.7295  1.2537
38844SOL     OW21088   3.711  11.297   8.884 -0.2321 -0.1270 -0.3851
38844SOL    HW121089   3.691  11.215   8.928 -0.2047  0.1561  0.1610
38844SOL    HW221090   3.799  11.285   8.849 -0.4994 -0.5814 -0.9130
38845SOL     OW21091   6.276   8.801   0.208 -0.4026 -0.1886  0.6121
38845SOL    HW121092   6.180   8.807   0.203 -0.3708  1.2299  1.1594
38845SOL    HW221093   6.293   8.721   0.257 -1.2576 -1.2382 -0.7427
38846SOL     OW21094  10.876  10.983   7.401  0.2330  0.1686 -0.2081
38846SOL    HW121095  10.781  10.986   7.396  0.2723  1.8618 -0.5560
38846SOL    HW221096  10.895  10.954   7.491 -0.5552 -2.1172 -0.7016
38847SOL     OW21097   5.632   7.901   8.265  0.1383  0.0838  0.1526
38847SOL    HW121098   5.726   7.909   8.246 -0.0563 -0.6598 -1.2301
38847SOL    HW221099   5.625   7.821   8.317  0.4211  0.9454  1.5626
38848SOL     OW21100   8.809   1.939   1.166 -0.4802 -0.4533  0.2298
38848SOL    HW121101   8.800   1.887   1.246 -0.2806 -0.5138  0.2127
38848SOL    HW221102   8.720   1.970   1.148 -0.6168 -0.8636  0.1916
38849SOL     OW21103   2.106   9.385   5.874 -0.0225 -0.1256 -0.4317
38849SOL    HW121104   2.092   9.455   5.811 -0.4399  0.5197  0.3540
38849SOL    HW221105   2.018   9.360   5.903  0.1837  0.5738  0.9201
38850SOL     OW21106   9.935   0.023   0.269 -0.6387 -0.7076 -0.0520
38850SOL    HW121107  10.015   0.004   0.318 -1.5059 -0.9814  1.3344
38850SOL    HW221108   9.865  -0.017   0.322 -1.8262  0.6411 -0.5363
38851SOL     OW21109   2.827  12.127   8.034  0.5976  0.1487  0.0925
38851SOL    HW121110   2.737  12.152   8.012  0.6873  0.0787 -0.3769
38851SOL    HW221111   2.825  12.032   8.036  0.6503  0.1480  0.1159
38852SOL     OW21112  12.009   8.535   3.127  0.0940  0.0786 -0.8566
38852SOL    HW121113  12.076   8.551   3.193 -0.1835 -1.4088 -0.1781
38852SOL    HW221114  12.026   8.600   3.059  1.1899  0.7917  0.0677
38853SOL     OW21115   0.339   3.268   9.671  0.3612 -0.1744 -0.2114
38853SOL    HW121116   0.306   3.354   9.646  0.7245 -0.6309 -2.4848
38853SOL    HW221117   0.414   3.286   9.727 -1.4538  0.8953  2.0729
38854SOL     OW21118   9.471   1.247   7.114  0.5938 -0.2381 -0.0421
38854SOL    HW121119   9.537   1.314   7.103 -0.7917  1.5602  1.8003
38854SOL    HW221120   9.482   1.215   7.203 -1.3969  0.6208  0.5758
38855SOL     OW21121   3.707   2.293   5.691 -0.5452 -0.5954 -0.0311
38855SOL    HW121122   3.661   2.364   5.646  0.2553 -0.3094 -0.4110
38855SOL    HW221123   3.644   2.221   5.692 -1.2551  0.0165  0.0898
38856SOL     OW21124  10.936   7.899   3.292  0.1304  0.7683 -0.2174
38856SOL    HW121125  10.904   7.985   3.265 -0.3163  0.7777  0.2942
38856SOL    HW221126  10.955   7.910   3.386 -1.2222 -0.0277  0.1841
38857SOL     OW21127   9.508   7.579   9.472 -0.3697 -0.3200  0.2846
38857SOL    HW121128   9.508   7.674   9.475 -1.1514 -0.1543 -2.2172
38857SOL    HW221129   9.419   7.554   9.498 -0.5265 -0.2803 -0.2065
38858SOL     OW21130   2.128  11.234   5.771  0.0314 -0.5545  0.0979
38858SOL    HW121131   2.157  11.313   5.724 -1.4081  1.2840  2.1157
38858SOL    HW221132   2.202  11.210   5.826 -0.6622  1.6647  2.1739
38859SOL     OW21133   1.380   4.554  11.153  0.1655 -0.0554  0.5310
38859SOL    HW121134   1.456   4.502  11.177  1.1387  0.8868 -0.3980
38859SOL    HW221135   1.306   4.493  11.161  0.9300 -0.8762  1.8523
38860SOL     OW21136   4.618   0.668   6.772  0.2363 -0.5536  0.0810
38860SOL    HW121137   4.536   0.695   6.729  0.7534  0.2841 -0.3936
38860SOL    HW221138   4.596   0.666   6.865 -0.9431 -2.5501 -0.1754
38861SOL     OW21139   1.274   0.381   0.898  0.1755  0.1873  0.2578
38861SOL    HW121140   1.367   0.373   0.881  0.1725  1.3860 -0.4022
38861SOL    HW221141   1.262   0.341   0.985  1.1732 -0.5554  0.0722
38862SOL     OW21142   5.614   5.026  11.700 -0.0929  0.2207  0.6266
38862SOL    HW121143   5.528   4.983  11.697 -0.0907  0.0152  2.4022
38862SOL    HW221144   5.675   4.960  11.670 -0.4071 -0.0767  0.6371
38863SOL     OW21145   4.320   5.239   8.504 -0.4839 -0.2578 -0.0693
38863SOL    HW121146   4.273   5.292   8.439 -0.3029 -0.9824 -0.8142
38863SOL    HW221147   4.361   5.169   8.452  0.2735 -0.4307  0.7412
38864SOL     OW21148  11.046  10.475   7.861  0.3963  0.0013  0.3344
38864SOL    HW121149  11.082  10.483   7.949 -0.2512 -1.3447  0.7409
38864SOL    HW221150  11.114  10.511   7.804  0.8179  0.8907  1.3748
38865SOL     OW21151   8.819   1.519   0.804  0.3152 -0.3503 -0.1216
38865SOL    HW121152   8.824   1.548   0.895 -1.6511 -0.1729 -0.0211
38865SOL    HW221153   8.742   1.565   0.769  1.6094  0.3626 -2.1799
38866SOL     OW21154   0.604   2.544  11.950 -0.0473 -0.5827  0.1489
38866SOL    HW121155   0.604   2.605  11.875  1.3657 -1.4258 -0.5693
38866SOL    HW221156   0.688   2.558  11.992 -0.6684 -0.4116  1.3792
38867SOL     OW21157   3.350   5.633   8.614 -0.1306 -0.8589 -0.3885
38867SOL    HW121158   3.382   5.543   8.611 -0.0030 -0.8196 -0.2425
38867SOL    HW221159   3.255   5.624   8.625 -0.0680 -0.9774  0.0716
38868SOL     OW21160   0.803   9.181   2.124 -0.1995  0.0382  0.0079
38868SOL    HW121161   0.715   9.198   2.156 -0.0953 -1.0605  0.9649
38868SOL    HW221162   0.860   9.196   2.200  0.2112 -1.1914 -0.0312
38869SOL     OW21163   9.933   4.404  10.407  0.6691  0.2567  0.1185
38869SOL    HW121164   9.924   4.497  10.431  0.8574  0.3744 -0.2500
38869SOL    HW221165   9.843   4.372  10.401  0.6096  0.3476  0.5143
38870SOL     OW21166  11.836  11.024   6.481  0.5053 -0.6907 -0.6063
38870SOL    HW121167  11.744  11.043   6.496  0.3774  0.2488 -2.2827
38870SOL    HW221168  11.877  11.110   6.469  0.9197 -1.1687 -3.1900
38871SOL     OW21169   4.149   8.866   3.240 -0.0163  0.1980  0.4410
38871SOL    HW121170   4.102   8.794   3.198  3.5561 -0.1876 -3.4497
38871SOL    HW221171   4.092   8.942   3.227 -1.3578 -0.9024 -0.4111
38872SOL     OW21172   0.588  11.067   0.580  0.4277  0.0344  0.0104
38872SOL    HW121173   0.566  11.144   0.633 -0.9979 -0.7753  0.6624
38872SOL    HW221174   0.589  10.995   0.643 -2.9746 -1.2490 -1.2032
38873SOL     OW21175   1.622   1.190   3.884  0.7641  0.2034 -0.2246
38873SOL    HW121176   1.532   1.189   3.852  0.1506 -2.2071  1.3218
38873SOL    HW221177   1.675   1.163   3.809  0.0878  0.6565 -0.8706
38874SOL     OW21178   4.235   8.198   6.079 -0.1559  0.1702 -0.3519
38874SOL    HW121179   4.152   8.238   6.104 -0.2017  0.3075 -0.7248
38874SOL    HW221180   4.300   8.239   6.136 -0.5523 -1.1032  1.0840
38875SOL     OW21181   0.417   0.467   0.097 -0.1468 -0.0543  0.9811
38875SOL    HW121182   0.409   0.549   0.049 -0.3246  0.6137  2.1195
38875SOL    HW221183   0.383   0.486   0.184 -2.2039 -1.8900  0.6703
38876SOL     OW21184   6.893   3.987  10.459  0.2477  0.5292  0.1720
38876SOL    HW121185   6.874   4.081  10.461 -1.1877  0.2830 -0.4770
38876SOL    HW221186   6.915   3.969  10.368  0.6532  0.2542  0.3228
38877SOL     OW21187   9.947   0.559   8.549  0.4318  0.0757  0.2096
38877SOL    HW121188   9.934   0.483   8.605 -0.5285  0.8208  1.0346
38877SOL    HW221189  10.029   0.598   8.580 -0.4551  0.8980  1.6515
38878SOL     OW21190   4.017   8.830   9.017  0.0463 -0.3908 -0.2603
38878SOL    HW121191   3.945   8.786   9.062 -0.6371  1.4191  0.4932
38878SOL    HW221192   4.095   8.802   9.065 -0.6170  1.1219  1.8667
38879SOL     OW21193   9.413  11.067   9.215 -0.1669 -0.0496  0.2043
38879SOL    HW121194   9.325  11.090   9.183  1.1791  0.9017 -3.3724
38879SOL    HW221195   9.419  10.973   9.200 -0.6264 -0.1504  0.6241
38880SOL     OW21196   5.607   4.527   1.617 -0.4196 -0.6297 -0.1275
38880SOL    HW121197   5.589   4.454   1.558 -1.8386  0.4897 -1.1625
38880SOL    HW221198   5.527   4.580   1.615  1.0532  1.7151 -0.5460
38881SOL     OW21199   2.105   8.090   8.228  0.2019  0.0377 -0.2572
38881SOL    HW121200   2.100   8.155   8.158 -0.3520  1.5882  1.1486
38881SOL    HW221201   2.030   8.109   8.284  0.6418 -1.1315  0.7779
38882SOL     OW21202   1.768   0.043   8.464  0.0491  0.5598  0.1507
38882SOL    HW121203   1.702   0.101   8.426 -1.4870 -0.3536  1.3089
38882SOL    HW221204   1.718  -0.026   8.508  1.7848 -0.3159  0.8813
38883SOL     OW21205  11.649   2.295   0.998  0.3406  0.4836  0.2739
38883SOL    HW121206  11.695   2.213   0.983 -0.7539  0.0402 -0.8849
38883SOL    HW221207  11.572   2.290   0.941  0.3355  2.3902  0.0400
38884SOL     OW21208   8.556  10.460   2.568  0.0320  0.2182  0.4299
38884SOL    HW121209   8.607  10.538   2.545 -1.1970  1.4237  1.6115
38884SOL    HW221210   8.465  10.489   2.567 -0.4124 -1.0161  1.5270
38885SOL     OW21211   5.335   1.975  11.887 -0.4503 -0.3324  0.2454
38885SOL    HW121212   5.318   2.044  11.951 -1.6981 -0.3536 -0.0322
38885SOL    HW221213   5.275   1.904  11.912 -2.0860  0.2277 -1.7874
38886SOL     OW21214  10.574   7.111   4.196 -0.1438  0.0489  0.5649
38886SOL    HW121215  10.665   7.138   4.185 -0.2466  0.4316  0.6356
38886SOL    HW221216  10.579   7.019   4.222  0.1636 -0.3483 -0.8263
38887SOL     OW21217   9.250   4.392   0.751 -0.6963  0.0778 -0.0198
38887SOL    HW121218   9.210   4.477   0.768 -0.3219  0.3046 -0.2688
38887SOL    HW221219   9.244   4.346   0.835  0.0636  0.7507  0.4237
38888SOL     OW21220   1.765   4.494   9.025 -0.2262  0.3207  0.0530
38888SOL    HW121221   1.722   4.552   9.088  0.0815  0.8252 -0.1948
38888SOL    HW221222   1.737   4.406   9.050  1.4867  0.2932  2.1933
38889SOL     OW21223   7.170   6.044   9.114 -0.2010 -0.1685  0.2132
38889SOL    HW121224   7.153   5.962   9.161  0.6877  0.6786  2.1133
38889SOL    HW221225   7.258   6.070   9.140  0.3846  0.3477 -2.0367
38890SOL     OW21226   2.098  10.135   1.280 -0.0143 -0.0225  0.1806
38890SOL    HW121227   2.075  10.196   1.211 -1.8533 -0.9839 -0.1230
38890SOL    HW221228   2.082  10.183   1.361 -1.3811 -0.0565 -0.0550
38891SOL     OW21229   9.519   9.356   0.362 -0.5444 -0.3596 -0.2241
38891SOL    HW121230   9.604   9.378   0.323 -0.4090 -1.1012 -0.3670
38891SOL    HW221231   9.541   9.319   0.447 -0.6010 -2.1319 -0.9485
38892SOL     OW21232  10.720   7.375   4.340  0.2103 -0.1705 -0.9890
38892SOL    HW121233  10.683   7.459   4.367  4.4679  1.3311  1.2069
38892SOL    HW221234  10.705   7.372   4.245 -0.4007  2.9443 -1.0976
38893SOL     OW21235   9.357   9.890  11.718  0.2794 -0.0965  0.3346
38893SOL    HW121236   9.392   9.867  11.804  0.0605  0.1569  0.4928
38893SOL    HW221237   9.317   9.976  11.730 -0.8088 -0.5735  0.2788
38894SOL     OW21238   5.450  11.627   2.134  0.4891 -0.0546 -0.4209
38894SOL    HW121239   5.442  11.566   2.061  0.0246 -0.6282  0.1025
38894SOL    HW221240   5.364  11.668   2.141  0.6127  0.2001 -0.3651
38895SOL     OW21241   2.344   2.077   1.841  0.3467  0.1075 -0.4506
38895SOL    HW121242   2.408   2.014   1.876  0.2306  0.3281  0.1799
38895SOL    HW221243   2.302   2.114   1.919 -0.0342  0.5015 -0.8365
38896SOL     OW21244   4.881   2.412   7.698 -0.0622 -0.7875 -0.1847
38896SOL    HW121245   4.801   2.398   7.748  0.2051 -2.0384 -0.0589
38896SOL    HW221246   4.950   2.377   7.755  0.2591 -2.1141 -1.3391
38897SOL     OW21247  11.721   5.215   7.005  0.0082 -0.0025  0.0198
38897SOL    HW121248  11.667   5.282   7.045 -0.7158 -0.6833  0.2152
38897SOL    HW221249  11.810   5.251   7.006 -0.1318  0.3627  1.4079
38898SOL     OW21250   6.766   3.448   1.783  0.6444 -0.3567 -0.0980
38898SOL    HW121251   6.728   3.529   1.750  2.3548 -0.0274 -1.3829
38898SOL    HW221252   6.700   3.381   1.762 -2.0791  0.9007  3.3929
38899SOL     OW21253  11.605   2.147   8.785 -0.5235 -0.2241 -0.0005
38899SOL    HW121254  11.571   2.223   8.832 -2.8049 -0.4943 -1.0828
38899SOL    HW221255  11.543   2.133   8.713  0.8435 -2.0110 -0.9267
38900SOL     OW21256   5.237   1.909   3.756  0.3494  0.0481  0.0956
38900SOL    HW121257   5.191   1.990   3.777 -0.0995  0.0122 -0.6962
38900SOL    HW221258   5.186   1.871   3.684 -0.3919 -1.7540  1.5181
38901SOL     OW21259   2.438   7.706   2.194  0.5581 -0.0784  0.4421
38901SOL    HW121260   2.497   7.636   2.166 -0.2458 -0.3799 -0.5384
38901SOL    HW221261   2.357   7.690   2.147  0.4195  1.6256  0.0225
38902SOL     OW21262   8.185   1.038   1.819  0.2439  0.2281 -0.0119
38902SOL    HW121263   8.279   1.035   1.836  0.1412  0.9050  0.7290
38902SOL    HW221264   8.152   1.102   1.882 -1.1294 -1.9914  1.6971
38903SOL     OW21265   7.442   1.591  10.042 -0.6831 -0.6667 -0.4703
38903SOL    HW121266   7.417   1.517  10.097  0.1125 -1.2533 -0.8849
38903SOL    HW221267   7.425   1.561   9.953 -2.3237  0.4098 -0.5724
38904SOL     OW21268   5.230   0.846  10.348 -0.4401 -0.1133 -0.2865
38904SOL    HW121269   5.185   0.793  10.415 -1.0634  0.0703 -0.5501
38904SOL    HW221270   5.197   0.812  10.265  0.3796 -0.3801 -0.5075
38905SOL     OW21271   7.735   0.189   2.229 -0.0106  0.3918 -0.3718
38905SOL    HW121272   7.736   0.160   2.138 -0.5092  1.0088 -0.5790
38905SOL    HW221273   7.763   0.112   2.279 -0.0146 -0.0368 -1.0183
38906SOL     OW21274   3.880   7.398   3.349 -0.3604 -0.2313  0.5003
38906SOL    HW121275   3.973   7.375   3.346  0.5842  2.7270  2.2876
38906SOL    HW221276   3.853   7.397   3.257  1.7007 -0.2842 -0.1752
38907SOL     OW21277   6.956  11.058  11.232 -0.6121 -0.3762  0.0587
38907SOL    HW121278   6.990  11.123  11.294 -2.3113  0.9109 -0.2999
38907SOL    HW221279   6.967  11.098  11.146  1.1214 -1.8841 -0.4910
38908SOL     OW21280   7.645   5.051   7.689 -0.5637 -0.2539 -0.2767
38908SOL    HW121281   7.730   5.011   7.670 -0.5210 -0.3551  0.1183
38908SOL    HW221282   7.663   5.144   7.696 -0.4287 -0.3051  0.0961
38909SOL     OW21283   1.932   1.347   8.608 -0.1627  0.4567  0.2907
38909SOL    HW121284   1.887   1.266   8.632  1.1066  0.1385  1.7997
38909SOL    HW221285   1.896   1.413   8.668  0.7072  0.3916  0.9022
38910SOL     OW21286   3.397   7.441   3.908  0.5414 -0.5029 -0.6129
38910SOL    HW121287   3.452   7.499   3.961 -2.0757  2.2174 -0.6366
38910SOL    HW221288   3.419   7.462   3.818 -0.1954  0.2916 -0.6182
38911SOL     OW21289   3.834   5.023   5.923  0.9386  0.5240 -0.2059
38911SOL    HW121290   3.750   4.978   5.913  1.0895 -0.6599  2.7308
38911SOL    HW221291   3.812   5.116   5.918 -0.7429  0.2653  1.3040
38912SOL     OW21292   0.972   7.634   9.260  0.0298  0.2031  0.2109
38912SOL    HW121293   0.978   7.692   9.336 -0.5536  0.7942 -0.1840
38912SOL    HW221294   0.988   7.691   9.185  1.2147 -0.4926 -0.0919
38913SOL     OW21295   8.435   1.720   8.899  0.0076 -0.9421  0.2089
38913SOL    HW121296   8.388   1.650   8.854 -0.1614 -0.2130 -0.7918
38913SOL    HW221297   8.520   1.681   8.921  0.5839 -1.0011 -1.8634
38914SOL     OW21298  11.289   7.349  11.688  0.4658 -0.0560 -0.0726
38914SOL    HW121299  11.356   7.293  11.649 -0.2174  0.1420 -1.6165
38914SOL    HW221300  11.242   7.386  11.613 -2.5281 -1.5695  0.8906
38915SOL     OW21301   7.660   5.353   1.747  0.5357  0.4887  0.3148
38915SOL    HW121302   7.639   5.418   1.680  2.2768 -0.4367 -1.2188
38915SOL    HW221303   7.654   5.269   1.701 -0.7455 -0.4236  2.0083
38916SOL     OW21304   3.451   7.785   3.214  0.3890 -0.2928 -0.4050
38916SOL    HW121305   3.432   7.734   3.135 -0.2105 -1.7192  0.6106
38916SOL    HW221306   3.442   7.876   3.186 -1.0043 -0.7794 -1.7113
38917SOL     OW21307   6.284   1.429   5.976 -0.3519  0.0796 -0.1216
38917SOL    HW121308   6.213   1.453   5.918 -0.0971 -0.8623 -0.8624
38917SOL    HW221309   6.342   1.505   5.977  0.5338 -0.4524 -2.5250
38918SOL     OW21310  10.991  10.160   3.178 -0.6172  0.6495  0.2067
38918SOL    HW121311  11.024  10.250   3.184  0.9390  0.1561 -0.5005
38918SOL    HW221312  10.931  10.162   3.103  0.3141  0.8436 -0.5456
38919SOL     OW21313   9.350   1.672   7.271 -1.0381  0.3774  1.0010
38919SOL    HW121314   9.396   1.645   7.192 -1.7558 -0.0180  0.7113
38919SOL    HW221315   9.257   1.659   7.251 -1.2184  0.0050  1.9925
38920SOL     OW21316   1.348   5.009  11.037  0.1380  0.5189 -0.7639
38920SOL    HW121317   1.359   5.099  11.067 -0.2905  0.6504 -1.0002
38920SOL    HW221318   1.361   5.013  10.943  2.2492 -0.0199 -0.5474
38921SOL     OW21319  11.786   3.445   7.193  0.1676 -0.0271  0.4105
38921SOL    HW121320  11.721   3.382   7.161 -1.1241  1.4397  0.0537
38921SOL    HW221321  11.825   3.482   7.114  0.3862  0.1611  0.6055
38922SOL     OW21322   0.485   4.539  10.202  0.1102  0.0463  0.1781
38922SOL    HW121323   0.517   4.629  10.197  2.4043 -0.7390 -0.3354
38922SOL    HW221324   0.439   4.535  10.286  1.9258  1.1480  1.3011
38923SOL     OW21325   3.453   2.618   0.457  0.0724  0.4661 -0.3079
38923SOL    HW121326   3.522   2.559   0.489 -0.7815  0.2320  1.2277
38923SOL    HW221327   3.401   2.564   0.398 -1.5737 -0.9221  2.1841
38924SOL     OW21328  11.076   5.953   7.461 -0.0476  0.5485  0.6326
38924SOL    HW121329  11.070   5.901   7.381  0.0313 -1.1823  1.7108
38924SOL    HW221330  11.089   6.043   7.430 -0.5474  0.0032 -1.2909
38925SOL     OW21331  11.118   1.330  10.924  0.1661 -0.3655 -0.3136
38925SOL    HW121332  11.185   1.304  10.860 -1.0898 -3.7783 -0.4527
38925SOL    HW221333  11.051   1.374  10.872  0.5452 -0.3674 -0.8186
38926SOL     OW21334   7.106   9.895   2.905  0.2622 -0.5605 -0.0810
38926SOL    HW121335   7.122   9.986   2.883 -0.5991  0.1637  2.0068
38926SOL    HW221336   7.143   9.884   2.992 -0.4355 -1.9533  0.0793
38927SOL     OW21337   8.955   3.958   0.956  0.2901  0.3468 -0.3979
38927SOL    HW121338   8.906   4.034   0.926  1.3701  0.2119 -2.6880
38927SOL    HW221339   8.974   3.976   1.048 -0.1907  2.4435 -0.6690
38928SOL     OW21340   8.791   0.258   7.273  0.4612  0.3726 -0.2845
38928SOL    HW121341   8.864   0.246   7.334 -0.1140 -3.6981 -0.1079
38928SOL    HW221342   8.796   0.181   7.215 -2.5407  0.9687 -1.4976
38929SOL     OW21343   9.810  10.562   6.354  0.0703 -0.4021 -0.2419
38929SOL    HW121344   9.726  10.520   6.333 -0.1960  0.5329 -1.1256
38929SOL    HW221345   9.845  10.510   6.426 -2.1165  0.2477  1.4208
38930SOL     OW21346   9.503   6.568  10.766  0.3176  0.2921 -0.8450
38930SOL    HW121347   9.414   6.602  10.754  0.1688 -0.6996 -3.2488
38930SOL    HW221348   9.556   6.618  10.704  0.5527 -2.0049 -2.6476
38931SOL     OW21349   5.525   9.654   8.029  0.0652 -0.2782 -0.5512
38931SOL    HW121350   5.556   9.683   7.944  2.0839 -0.9852 -0.1106
38931SOL    HW221351   5.576   9.705   8.092  0.2914 -1.4248  0.2204
38932SOL     OW21352   1.887   1.950  10.857  0.3679  0.1832  0.1430
38932SOL    HW121353   1.878   1.894  10.780 -1.3302 -0.2721  0.6429
38932SOL    HW221354   1.879   2.039  10.824  1.5448  0.0910 -0.4419
38933SOL     OW21355  10.918   6.048   5.370  0.3608  0.0750 -0.2566
38933SOL    HW121356  10.888   6.138   5.371 -0.5424 -0.2161  0.0861
38933SOL    HW221357  10.933   6.027   5.462  0.9149 -0.0175 -0.3640
38934SOL     OW21358   2.466   7.607  10.625 -0.0045 -0.4285  0.1741
38934SOL    HW121359   2.519   7.686  10.638  0.7891 -0.4605 -2.2434
38934SOL    HW221360   2.376   7.639  10.618  0.4368  0.5212 -2.0704
38935SOL     OW21361   1.433   8.783  10.517  0.6586  0.1091 -0.1371
38935SOL    HW121362   1.512   8.835  10.503  0.8915  0.1324  1.1748
38935SOL    HW221363   1.433   8.721  10.444  0.9778  1.1937 -1.0923
38936SOL     OW21364   1.657  11.657  11.203  0.3289  0.1214 -0.4591
38936SOL    HW121365   1.691  11.583  11.151 -1.1597 -1.2062  0.3830
38936SOL    HW221366   1.667  11.629  11.294  0.0139  1.1071 -0.1096
38937SOL     OW21367   3.452   6.489   5.107 -0.0670  0.1825  0.2797
38937SOL    HW121368   3.437   6.467   5.015 -1.8182 -0.5229  0.6971
38937SOL    HW221369   3.515   6.424   5.137  1.9800  1.5173 -0.8257
38938SOL     OW21370   7.760   2.644   9.981 -0.6258  0.1563 -0.2923
38938SOL    HW121371   7.705   2.576   9.942  0.0902 -0.0929 -0.8826
38938SOL    HW221372   7.810   2.680   9.907 -1.4610  1.7933 -0.1202
38939SOL     OW21373   0.169   3.154  10.045  0.5337  0.0789  0.3051
38939SOL    HW121374   0.258   3.144  10.079  1.7238  2.7304 -1.7352
38939SOL    HW221375   0.165   3.090   9.973  0.0903 -1.3003  1.5000
38940SOL     OW21376  11.042   6.690   9.398 -0.1359  0.3913  0.6047
38940SOL    HW121377  11.063   6.598   9.380 -0.4130  0.3816  0.3265
38940SOL    HW221378  10.948   6.690   9.416 -0.3535  0.7830 -0.5002
38941SOL     OW21379   6.432   4.762  11.117  0.2791  0.5725  0.1732
38941SOL    HW121380   6.394   4.802  11.195  2.0696  1.9575  0.3963
38941SOL    HW221381   6.358   4.721  11.073 -1.0770  1.2958  1.6628
38942SOL     OW21382   6.281   4.760   1.338  0.2753 -0.3425  0.1026
38942SOL    HW121383   6.326   4.825   1.393 -2.1926  0.6141  1.1384
38942SOL    HW221384   6.314   4.777   1.250 -0.0497  2.1742  0.3854
38943SOL     OW21385   8.557   6.959   3.853  0.0386  0.3703  0.3321
38943SOL    HW121386   8.472   6.986   3.888  0.3977 -0.0067  1.5529
38943SOL    HW221387   8.605   6.928   3.929  1.1832  0.3276 -0.3897
38944SOL     OW21388   9.466   8.547   9.359 -0.1772  0.1064 -0.2577
38944SOL    HW121389   9.512   8.474   9.318  1.4385  1.1296 -0.3498
38944SOL    HW221390   9.502   8.551   9.448 -0.4001  0.6809 -0.1895
38945SOL     OW21391   1.709   1.386   6.229 -0.6890 -0.2337  0.1913
38945SOL    HW121392   1.731   1.394   6.137  0.0798 -0.0753  0.3795
38945SOL    HW221393   1.655   1.307   6.235 -0.0640 -0.7062 -0.2791
38946SOL     OW21394   1.689   7.286   1.967 -0.2546 -0.7756  0.0605
38946SOL    HW121395   1.660   7.216   1.909  0.8111 -1.5145  0.3977
38946SOL    HW221396   1.705   7.243   2.051  1.0650 -0.2734  0.0934
38947SOL     OW21397   8.399  10.758   3.321 -0.1151 -0.0007  0.0240
38947SOL    HW121398   8.332  10.821   3.297  1.1709  1.1144 -0.8021
38947SOL    HW221399   8.432  10.789   3.405  0.1275  0.0974 -0.1070
38948SOL     OW21400   1.208   9.834   8.737 -0.5594  0.7783  0.1617
38948SOL    HW121401   1.168   9.762   8.786  1.3983 -0.4466  0.0846
38948SOL    HW221402   1.252   9.886   8.803 -0.4276  0.8536  0.0137
38949SOL     OW21403   1.066   4.463   3.084  0.3911 -0.1907  0.5113
38949SOL    HW121404   1.102   4.378   3.059 -0.2420 -1.2586  2.9199
38949SOL    HW221405   0.972   4.449   3.088  0.2084  0.8619  0.1643
38950SOL     OW21406   2.373   0.854   6.542  0.3704  0.2568 -0.2100
38950SOL    HW121407   2.280   0.877   6.534  0.7287  1.3877 -1.4875
38950SOL    HW221408   2.394   0.812   6.458  1.2716  1.0082 -0.3668
38951SOL     OW21409   2.084   6.798   8.566 -0.0959 -0.1970  0.1352
38951SOL    HW121410   2.151   6.731   8.581 -0.3585 -0.1498  1.6423
38951SOL    HW221411   2.117   6.876   8.610 -0.4350  0.2796 -0.4340
38952SOL     OW21412   4.785  10.968  10.513  0.3856  0.0229  0.3708
38952SOL    HW121413   4.810  11.014  10.593  0.3814 -0.2187  0.5093
38952SOL    HW221414   4.718  10.906  10.540  0.9444 -0.6154  0.3199
38953SOL     OW21415  10.961   4.762   4.984  0.6061 -0.1428 -0.3752
38953SOL    HW121416  11.027   4.831   4.982 -0.4204  1.0660  2.2575
38953SOL    HW221417  10.941   4.751   5.077  0.0029 -3.3500 -0.7615
38954SOL     OW21418   9.590   9.335   4.134  0.0060 -0.4533  1.1422
38954SOL    HW121419   9.634   9.420   4.136  0.8363 -0.8201 -0.2026
38954SOL    HW221420   9.499   9.356   4.114  0.2759  0.1221  0.4508
38955SOL     OW21421  11.622  10.303  12.061 -0.4359  0.3507 -0.4014
38955SOL    HW121422  11.551  10.240  12.067 -0.2605  0.2882  2.4357
38955SOL    HW221423  11.623  10.330  11.969 -3.3556 -0.4891 -0.7780
38956SOL     OW21424   7.357   4.305   3.344 -0.0073 -0.1366 -0.3454
38956SOL    HW121425   7.381   4.274   3.432  1.2638  0.8060 -0.3245
38956SOL    HW221426   7.263   4.291   3.338 -0.2078  0.3094  1.3837
38957SOL     OW21427   2.083   5.543  10.405 -0.6737 -0.2704  0.0746
38957SOL    HW121428   2.161   5.500  10.370 -1.5348 -1.2018 -0.8064
38957SOL    HW221429   2.082   5.520  10.498 -1.9508 -3.6957 -0.6388
38958SOL     OW21430   3.938   4.912   7.150  0.4022  0.1717  0.1538
38958SOL    HW121431   3.990   4.952   7.080  0.8609 -2.2495 -0.9862
38958SOL    HW221432   3.990   4.928   7.229  0.2800  2.2329 -0.1191
38959SOL     OW21433  10.884  11.203   8.525  0.1247  0.4384  0.0465
38959SOL    HW121434  10.913  11.275   8.470  0.0611  1.0373  0.7881
38959SOL    HW221435  10.846  11.245   8.602  1.6121 -0.3826  1.2784
38960SOL     OW21436   8.309   8.171   6.840  0.3255  0.1361 -0.8292
38960SOL    HW121437   8.399   8.190   6.813 -0.0013  3.3233  0.0201
38960SOL    HW221438   8.257   8.186   6.761  0.3862 -0.7126 -1.0467
38961SOL     OW21439   4.863   8.920   5.201  0.0896 -0.3832  0.3514
38961SOL    HW121440   4.910   8.843   5.233  0.8135  0.4976  1.4873
38961SOL    HW221441   4.772   8.891   5.192  0.6178 -1.8420 -0.9261
38962SOL     OW21442   4.990   9.343   9.742  0.0466  0.4476 -0.1037
38962SOL    HW121443   5.066   9.287   9.724  0.8396  0.7856  1.8387
38962SOL    HW221444   4.914   9.288   9.723  0.7901 -1.4525  1.9034
38963SOL     OW21445   6.892   0.625   0.979  0.0984 -0.8155  0.2366
38963SOL    HW121446   6.944   0.689   1.028 -0.3265 -0.5934  0.4031
38963SOL    HW221447   6.823   0.677   0.939  1.4553 -0.6637 -2.1263
38964SOL     OW21448   1.018   2.185  12.085 -0.2526  0.0383  0.5400
38964SOL    HW121449   0.942   2.159  12.033  1.2075 -1.2171 -1.0898
38964SOL    HW221450   0.981   2.236  12.158 -2.5746 -0.0634 -0.4737
38965SOL     OW21451   7.210   0.624   5.262  0.3676 -0.0564  0.3355
38965SOL    HW121452   7.145   0.638   5.331  0.5580 -0.6431  0.6436
38965SOL    HW221453   7.159   0.601   5.185  0.1864 -0.0207  0.4434
38966SOL     OW21454   2.591   0.605   3.488  0.5824  1.2857 -0.4512
38966SOL    HW121455   2.543   0.629   3.409  0.4604 -0.6529 -1.0067
38966SOL    HW221456   2.535   0.541   3.532  0.8771  1.9633  0.9639
38967SOL     OW21457   2.987   6.835   8.955 -0.4914  0.5646  0.3557
38967SOL    HW121458   3.066   6.838   8.901 -0.1444  0.0899  0.8212
38967SOL    HW221459   2.917   6.813   8.893  0.2410 -2.2582  0.3793
38968SOL     OW21460   2.303   5.478   6.607  0.1916  0.5543 -0.1890
38968SOL    HW121461   2.212   5.469   6.578  0.0093  4.6569 -1.6421
38968SOL    HW221462   2.299   5.472   6.702 -1.4120 -0.4801 -0.2967
38969SOL     OW21463   7.200   4.199   9.562  0.2139  0.8151  0.4382
38969SOL    HW121464   7.243   4.255   9.497  0.7782 -1.8208 -1.6140
38969SOL    HW221465   7.107   4.212   9.547  0.3260 -0.2677 -1.4615
38970SOL     OW21466   5.598   3.957   4.371  0.5004  0.2675 -0.1167
38970SOL    HW121467   5.634   3.932   4.286 -1.5483 -0.4872 -0.8302
38970SOL    HW221468   5.544   4.034   4.352 -1.7620 -1.1971  0.0007
38971SOL     OW21469   4.453   0.345   4.768 -0.1496  0.3818 -0.0370
38971SOL    HW121470   4.443   0.416   4.705 -0.4169 -0.1639 -0.6190
38971SOL    HW221471   4.508   0.280   4.723  0.5261  0.4470  0.6813
38972SOL     OW21472   8.840   3.842   0.380 -0.0068 -0.0877  0.5443
38972SOL    HW121473   8.747   3.858   0.362  0.1508  0.1976 -0.0127
38972SOL    HW221474   8.854   3.884   0.465 -1.0313 -2.4776  1.9889
38973SOL     OW21475   3.087   4.403  10.107 -0.5065 -0.0089 -0.4245
38973SOL    HW121476   3.148   4.453  10.161  0.4271  1.5522 -2.7583
38973SOL    HW221477   3.092   4.314  10.142  0.7986  0.7098  1.3759
38974SOL     OW21478  11.983   3.379   1.831  0.0465  0.0480  0.0240
38974SOL    HW121479  11.977   3.469   1.800  0.5036  0.6993  1.7090
38974SOL    HW221480  11.987   3.326   1.751  0.5210  1.5567 -0.9980
38975SOL     OW21481   3.199   8.615   2.813  0.2103 -0.0740  0.5420
38975SOL    HW121482   3.130   8.632   2.878 -2.1919  0.9489 -2.0916
38975SOL    HW221483   3.218   8.701   2.775  1.6897 -0.6253 -0.0390
38976SOL     OW21484   4.377   3.076   2.649 -0.0424 -0.2674  0.1198
38976SOL    HW121485   4.425   3.158   2.659 -0.7229  0.6742 -2.9882
38976SOL    HW221486   4.330   3.065   2.732  1.3014  1.6352  1.2144
38977SOL     OW21487   5.973   4.283   6.451 -0.0122  0.4678  0.5509
38977SOL    HW121488   5.966   4.357   6.391  0.9088  0.2308  0.1466
38977SOL    HW221489   5.963   4.206   6.396  1.2977  0.2350  0.6181
38978SOL     OW21490   0.884   0.550   9.996 -0.3632  0.3382 -0.7360
38978SOL    HW121491   0.845   0.585  10.076  0.3001  1.2161 -0.7788
38978SOL    HW221492   0.854   0.610   9.927 -0.6539 -0.2155 -1.0911
38979SOL     OW21493   9.712   3.770   9.285 -0.0315  0.3303  0.2383
38979SOL    HW121494   9.790   3.737   9.240  0.7647  0.8424  1.2108
38979SOL    HW221495   9.666   3.691   9.314  1.4678  0.0016  1.8942
38980SOL     OW21496  10.747   0.581   0.150  0.1394 -0.3662  0.1808
38980SOL    HW121497  10.746   0.664   0.102  0.3463 -0.6080 -0.2468
38980SOL    HW221498  10.696   0.521   0.095 -0.8518 -0.2694  0.9609
38981SOL     OW21499   2.830   6.163   3.210 -0.2524  0.0052  0.6396
38981SOL    HW121500   2.814   6.072   3.187  0.4832  0.2176 -0.7858
38981SOL    HW221501   2.885   6.197   3.140 -0.6621  1.6039  1.0408
38982SOL     OW21502   5.110   4.412   9.928  0.0903 -0.1844  0.6268
38982SOL    HW121503   5.153   4.425   9.844  0.9443  0.1016  1.0901
38982SOL    HW221504   5.140   4.326   9.957  2.1302  0.8676  1.9214
38983SOL     OW21505   2.546   2.023   8.603 -0.3034 -0.1937  0.0948
38983SOL    HW121506   2.462   2.004   8.563  1.1974 -2.8528 -2.1412
38983SOL    HW221507   2.558   2.117   8.588 -2.1678 -0.0691 -0.9649
38984SOL     OW21508   0.593   1.454   6.487 -0.4256 -0.1543 -0.0324
38984SOL    HW121509   0.570   1.545   6.470 -0.1540 -0.1622 -0.4562
38984SOL    HW221510   0.598   1.448   6.582  0.3219  0.4645 -0.0236
38985SOL     OW21511   3.795  10.546   1.100  0.2169  0.1883 -0.3750
38985SOL    HW121512   3.835  10.504   1.177 -0.9507  1.6942  1.1295
38985SOL    HW221513   3.740  10.479   1.062  0.3181 -0.4053  0.4865
38986SOL     OW21514   0.829   2.580   8.478  0.2494 -0.3653 -0.4654
38986SOL    HW121515   0.848   2.674   8.481  0.8214 -0.4963  0.6770
38986SOL    HW221516   0.753   2.573   8.419  0.5714  0.7344 -1.0473
38987SOL     OW21517   1.764   5.712   7.987  0.5448 -0.2429  0.0297
38987SOL    HW121518   1.779   5.743   8.076  0.1339 -0.5314  0.2030
38987SOL    HW221519   1.733   5.789   7.939  1.2458  0.0344  0.0032
38988SOL     OW21520   0.492   1.859  10.313  0.3596  0.0442 -0.4896
38988SOL    HW121521   0.496   1.929  10.248 -0.2708  1.4788  0.9398
38988SOL    HW221522   0.486   1.905  10.397 -0.5908 -1.7280  0.4731
38989SOL     OW21523   2.523  11.114   7.605 -0.1776  0.5861  0.3553
38989SOL    HW121524   2.478  11.185   7.651  0.0612  0.7284  0.3698
38989SOL    HW221525   2.594  11.088   7.664  1.4017  2.1070 -0.7508
38990SOL     OW21526  11.978   3.245   2.612  0.0769 -0.5234 -0.0731
38990SOL    HW121527  12.015   3.332   2.597  0.7553 -0.9803 -1.2060
38990SOL    HW221528  11.981   3.234   2.707 -2.9356  1.8977  0.4620
38991SOL     OW21529   0.447   4.250  11.929  0.4480  0.1827  0.3306
38991SOL    HW121530   0.387   4.322  11.913 -1.4477 -1.2906  0.4496
38991SOL    HW221531   0.447   4.200  11.847  2.2474  0.6126  0.0185
38992SOL     OW21532   6.779  10.290   7.162 -0.0031 -0.5047  0.1674
38992SOL    HW121533   6.773  10.365   7.222  1.0118 -1.4791  1.5674
38992SOL    HW221534   6.793  10.329   7.076  0.0877  0.9283  0.7995
38993SOL     OW21535   9.590   1.032   8.991 -0.3861 -0.0253 -0.7440
38993SOL    HW121536   9.590   1.117   9.035 -1.2439 -0.4982  0.1960
38993SOL    HW221537   9.499   1.005   8.990 -0.4325  0.0057 -2.9419
38994SOL     OW21538   7.947   8.702  10.449 -0.4247 -0.0340 -0.1471
38994SOL    HW121539   7.913   8.758  10.379  1.2053 -0.2239 -1.1539
38994SOL    HW221540   7.934   8.613  10.416 -0.6506 -0.1667  0.2927
38995SOL     OW21541   9.769   4.886   8.989  0.1726 -0.2670  0.0557
38995SOL    HW121542   9.774   4.841   8.905 -0.0815 -2.3063  1.0619
38995SOL    HW221543   9.681   4.866   9.021 -0.0842  1.2847  0.4192
38996SOL     OW21544   3.099   2.946   5.162  0.1547  0.3618  0.1736
38996SOL    HW121545   3.147   2.868   5.135  1.9225  1.2552  0.5538
38996SOL    HW221546   3.082   2.994   5.081  3.7243  2.0781  0.2333
38997SOL     OW21547   0.266   9.408   1.526  0.6062  0.2313  0.0267
38997SOL    HW121548   0.259   9.474   1.457  2.2142  0.9796  0.5275
38997SOL    HW221549   0.352   9.368   1.513 -0.6625 -2.4310 -0.7850
38998SOL     OW21550   7.330   1.561  12.004 -0.2523 -0.3057 -0.0777
38998SOL    HW121551   7.313   1.575  12.097  0.7818 -0.2332  0.1133
38998SOL    HW221552   7.425   1.569  11.995 -0.3491 -0.1921 -1.1639
38999SOL     OW21553   5.351   8.215   8.030  0.3555 -0.3697 -0.2178
38999SOL    HW121554   5.373   8.184   8.117 -2.2786  1.7526  1.3734
38999SOL    HW221555   5.279   8.159   8.001 -1.6015  1.3937  0.8983
39000SOL     OW21556   8.392   1.374   6.183  0.1175 -0.6236  1.0272
39000SOL    HW121557   8.386   1.456   6.233  0.8354  1.0099 -1.4151
39000SOL    HW221558   8.457   1.323   6.231  3.6073  2.3756 -0.0351
39001SOL     OW21559   4.794   4.519   4.194  0.6429 -0.4815  0.4804
39001SOL    HW121560   4.804   4.594   4.252  0.1570  0.7052 -0.9205
39001SOL    HW221561   4.785   4.444   4.254 -0.6129  0.7782  1.9657
39002SOL     OW21562   6.991   0.684  10.641  0.5172  0.1987 -0.0509
39002SOL    HW121563   6.984   0.742  10.717  0.1239  1.1368 -0.7746
39002SOL    HW221564   6.915   0.705  10.588  0.2635 -1.1388 -0.2536
39003SOL     OW21565  12.113   3.793   9.461  0.8575 -0.0786  0.7261
39003SOL    HW121566  12.037   3.844   9.433  0.7381 -0.6930 -0.1289
39003SOL    HW221567  12.165   3.854   9.514  0.3952  0.7268  0.2753
39004SOL     OW21568  10.880   7.769   4.010 -0.4014  0.1760  0.4399
39004SOL    HW121569  10.916   7.707   4.074 -0.0895  1.7488  1.8837
39004SOL    HW221570  10.785   7.754   4.012 -0.3099 -0.3828  0.6190
39005SOL     OW21571   1.200   7.066  11.212  0.1269  0.0615  0.1449
39005SOL    HW121572   1.183   7.122  11.136  0.8188  0.3871  0.2124
39005SOL    HW221573   1.209   7.128  11.285  0.7065 -0.1422  0.2555
39006SOL     OW21574   5.431  11.018   8.392 -0.0634 -0.3811  0.2264
39006SOL    HW121575   5.526  11.002   8.393  0.0164 -0.4343 -2.0532
39006SOL    HW221576   5.392  10.931   8.384 -0.3030 -0.3303  0.7838
39007SOL     OW21577   8.263  11.092   1.434  0.9839 -0.0466 -0.0074
39007SOL    HW121578   8.288  11.056   1.349  0.2914 -0.6476  0.0314
39007SOL    HW221579   8.335  11.150   1.458  0.6381  1.0936 -1.5699
39008SOL     OW21580   3.440   0.345   1.785  0.2471  0.2306  0.5091
39008SOL    HW121581   3.441   0.418   1.724  0.7633 -0.1662  0.0340
39008SOL    HW221582   3.405   0.271   1.735  1.3012 -0.2650  0.4832
39009SOL     OW21583   6.572   9.665   2.091 -0.2031 -0.3032 -0.0359
39009SOL    HW121584   6.665   9.646   2.073 -0.1366 -0.5457  0.5296
39009SOL    HW221585   6.538   9.582   2.125 -0.5124 -0.0829  0.1929
39010SOL     OW21586   2.360   0.174   4.150  0.3938  0.4665 -0.5531
39010SOL    HW121587   2.341   0.140   4.062 -0.0272  0.2256 -0.3719
39010SOL    HW221588   2.412   0.106   4.191 -0.7016 -0.1135 -0.0853
39011SOL     OW21589   3.967   7.702   8.049  0.4020 -0.1550 -0.8525
39011SOL    HW121590   3.947   7.778   8.103  0.6429 -0.4299 -0.3764
39011SOL    HW221591   3.882   7.673   8.016  0.0341 -1.0630  0.8150
39012SOL     OW21592   0.410   6.031   3.511  0.0084  0.0080  0.0145
39012SOL    HW121593   0.336   6.020   3.571  1.5502 -2.6558  1.6086
39012SOL    HW221594   0.454   6.111   3.542 -2.3613  1.9423 -1.2900
39013SOL     OW21595  11.845  10.008   4.101 -0.2710  0.1581  0.1309
39013SOL    HW121596  11.901  10.069   4.149  1.1308 -1.1186  0.1872
39013SOL    HW221597  11.818   9.944   4.167 -0.2711 -0.2749 -0.2806
39014SOL     OW21598  11.641   7.655   0.250 -0.0558 -0.2153  0.7765
39014SOL    HW121599  11.710   7.710   0.212  0.2395 -0.9587  0.2040
39014SOL    HW221600  11.665   7.566   0.225 -2.1425 -0.3843 -1.0195
39015SOL     OW21601   2.965  11.880   6.357 -0.2511  0.2591 -0.3560
39015SOL    HW121602   2.950  11.837   6.273 -0.5855 -0.6811  0.1676
39015SOL    HW221603   2.976  11.808   6.419 -0.1241  0.9383  0.4239
39016SOL     OW21604   2.477   3.349  11.559  0.2366  0.0221 -0.3128
39016SOL    HW121605   2.428   3.268  11.571  3.3236 -2.2279 -1.5019
39016SOL    HW221606   2.521   3.363  11.642 -2.2184  2.0919  0.7852
39017SOL     OW21607   3.683   3.094  12.094 -0.7789 -0.0606  0.3819
39017SOL    HW121608   3.711   3.117  12.006 -0.4066 -0.8554  0.2816
39017SOL    HW221609   3.589   3.082  12.088 -0.8966  0.8842  0.3195
39018SOL     OW21610  11.094   8.645   0.292  0.5548  0.4472 -0.0338
39018SOL    HW121611  11.046   8.563   0.307  0.6735  0.0887 -1.5008
39018SOL    HW221612  11.163   8.645   0.358 -0.4011  0.1415  1.0046
39019SOL     OW21613   4.158  10.745  10.123  0.0184  0.3407 -0.4017
39019SOL    HW121614   4.199  10.663  10.149  1.5457  1.3557  0.6057
39019SOL    HW221615   4.203  10.770  10.042  2.3995  2.0233  1.2967
39020SOL     OW21616   4.125   9.028  11.235  0.2763  0.3843 -0.1313
39020SOL    HW121617   4.124   9.099  11.171  1.2412  0.9276  0.4334
39020SOL    HW221618   4.036   9.028  11.272 -0.1986  0.2623 -1.2259
39021SOL     OW21619   3.125   7.456   3.852 -0.5319 -0.2448 -0.3697
39021SOL    HW121620   3.080   7.425   3.930 -0.8604  0.1773 -0.3874
39021SOL    HW221621   3.211   7.486   3.884 -1.5708  2.2884  0.2771
39022SOL     OW21622   2.407   6.865   2.784  0.7430 -0.1475 -0.1541
39022SOL    HW121623   2.467   6.792   2.767  0.0899 -0.5659 -0.7578
39022SOL    HW221624   2.453   6.942   2.752 -0.0370 -0.7814 -3.1888
39023SOL     OW21625   8.591   4.224   5.932 -0.1145  0.0415  0.1961
39023SOL    HW121626   8.624   4.135   5.921  2.4115  1.0594 -1.2765
39023SOL    HW221627   8.594   4.240   6.027  0.5066 -1.0404  0.3702
39024SOL     OW21628  11.059   4.385   4.840 -0.1720 -0.2968 -0.6188
39024SOL    HW121629  11.020   4.314   4.891  0.5882 -0.0390  0.3586
39024SOL    HW221630  11.017   4.464   4.873  0.3102 -0.1315 -0.3894
39025SOL     OW21631   4.668   1.451   2.871  0.4319  0.0828 -0.1927
39025SOL    HW121632   4.576   1.467   2.854  0.7251  0.6315 -1.3657
39025SOL    HW221633   4.714   1.501   2.804  1.6122  0.5346  0.9036
39026SOL     OW21634  11.615  11.308   0.122 -0.0362 -0.4817  0.0942
39026SOL    HW121635  11.632  11.214   0.114 -2.5073 -1.0993  1.0388
39026SOL    HW221636  11.534  11.322   0.072  0.4022  1.2006 -0.2064
39027SOL     OW21637   5.167   9.170   5.713  0.0095  0.2221 -0.0203
39027SOL    HW121638   5.219   9.193   5.790  0.4817 -0.8969  0.0121
39027SOL    HW221639   5.196   9.231   5.645 -0.4515  1.2548  0.6914
39028SOL     OW21640   9.149   6.894   1.527 -0.6389 -0.4718 -0.3206
39028SOL    HW121641   9.117   6.814   1.486 -2.7372  0.0482  0.1495
39028SOL    HW221642   9.069   6.943   1.549  0.5333  1.0684  0.7541
39029SOL     OW21643   0.365   0.782  11.475 -0.3144 -0.4541 -0.0326
39029SOL    HW121644   0.368   0.710  11.537 -0.4529 -0.5733 -0.1626
39029SOL    HW221645   0.277   0.819  11.485 -0.0458  0.0662  0.4477
39030SOL     OW21646   4.296   1.364   1.983  0.1148 -0.2555 -0.2090
39030SOL    HW121647   4.269   1.312   1.907  0.1679 -1.5740  0.6467
39030SOL    HW221648   4.387   1.388   1.966 -0.0533 -0.0460 -0.8207
39031SOL     OW21649   4.165   2.658   6.463  0.1046 -0.0217 -0.4690
39031SOL    HW121650   4.227   2.656   6.536 -1.3351 -1.1016  0.8025
39031SOL    HW221651   4.115   2.738   6.477 -1.1375 -0.9492  0.6352
39032SOL     OW21652  11.972   9.635  12.097  0.1390 -0.3929  0.3229
39032SOL    HW121653  11.938   9.724  12.089 -0.4568 -0.5628  0.8939
39032SOL    HW221654  11.936   9.602  12.179  2.5727 -0.2141  1.5619
39033SOL     OW21655  12.070   9.570   1.627 -0.1778 -0.1224  0.2450
39033SOL    HW121656  11.989   9.521   1.643  0.7294 -1.5123  0.8488
39033SOL    HW221657  12.069   9.590   1.534 -0.9615 -0.6024  0.1459
39034SOL     OW21658   6.832  10.067   5.932 -0.1764  0.5477 -0.1471
39034SOL    HW121659   6.909  10.089   5.984  0.5319  1.6647 -1.5669
39034SOL    HW221660   6.778  10.146   5.935 -0.5820  0.2745 -0.2973
39035SOL     OW21661   9.652   8.789  10.760 -0.8178 -0.6334 -0.5678
39035SOL    HW121662   9.739   8.801  10.722 -0.6826  0.5432  0.0630
39035SOL    HW221663   9.643   8.694  10.770 -0.5014 -0.9383 -2.6288
39036SOL     OW21664   8.713   1.606   7.438  0.1294  0.2240  0.1989
39036SOL    HW121665   8.696   1.583   7.529 -0.1213  1.4618  0.4939
39036SOL    HW221666   8.780   1.675   7.443 -0.1190  0.5264 -0.5266
39037SOL     OW21667   3.072   2.692   0.654  0.9029 -0.4738 -0.4691
39037SOL    HW121668   2.984   2.670   0.623  0.2159 -0.6407  1.4970
39037SOL    HW221669   3.090   2.777   0.615 -0.9734  0.5084  0.6847
39038SOL     OW21670  11.803   3.890  11.412  0.3360 -0.3546  0.6073
39038SOL    HW121671  11.768   3.883  11.501 -3.8470  0.9630 -0.7350
39038SOL    HW221672  11.826   3.983  11.402 -1.6841  0.0892 -0.3958
39039SOL     OW21673   7.327   2.131   8.186  0.0907 -0.3056 -0.2651
39039SOL    HW121674   7.291   2.085   8.111 -0.4380 -0.4736  0.0850
39039SOL    HW221675   7.399   2.075   8.216 -0.5128 -0.9015  0.1277
39040SOL     OW21676  10.224   0.174   0.944  0.1331 -0.0536 -0.5107
39040SOL    HW121677  10.275   0.247   0.978 -0.7329  0.7276 -0.8456
39040SOL    HW221678  10.192   0.203   0.859 -0.1659 -0.8473 -0.6851
39041SOL     OW21679   8.827   2.856   4.218  0.3741  0.4222  0.0583
39041SOL    HW121680   8.802   2.788   4.280 -0.0897  1.6456  1.2717
39041SOL    HW221681   8.916   2.833   4.193  1.0041  0.4608  2.0500
39042SOL     OW21682   9.811   8.611   0.100  0.0090  0.0071 -0.3822
39042SOL    HW121683   9.878   8.609   0.168 -0.4843 -0.7522  0.0923
39042SOL    HW221684   9.860   8.622   0.019  0.6863 -0.1614 -0.0049
39043SOL     OW21685   1.709   9.146   4.575 -0.2987  0.3260 -0.3263
39043SOL    HW121686   1.781   9.206   4.595  1.0020 -1.7974  1.8981
39043SOL    HW221687   1.638   9.176   4.632  0.1592  0.0897  0.3787
39044SOL     OW21688   1.926   7.766   9.111  0.1393  0.2391  0.3596
39044SOL    HW121689   1.871   7.807   9.178 -0.4306 -2.3047  1.5582
39044SOL    HW221690   1.895   7.805   9.029 -3.1299 -0.6293  1.0308
39045SOL     OW21691   4.860   2.887   0.028 -0.7171 -0.1571  0.2182
39045SOL    HW121692   4.941   2.938   0.016 -1.0355  0.5034  0.7623
39045SOL    HW221693   4.884   2.798   0.003  0.1796  0.0303  0.3545
39046SOL     OW21694  11.192  11.447   7.154 -0.2906  0.5521  0.6091
39046SOL    HW121695  11.248  11.377   7.186 -0.2037  1.3913  2.4085
39046SOL    HW221696  11.103  11.414   7.164 -0.2129 -0.7918 -2.2702
39047SOL     OW21697   1.178   5.022   9.159 -0.3251  0.1801  0.1518
39047SOL    HW121698   1.166   5.013   9.065 -0.4579 -1.3632  0.2826
39047SOL    HW221699   1.089   5.025   9.195 -0.2884 -0.2917  0.2933
39048SOL     OW21700   2.515   0.130  11.943 -0.0449  0.3646 -0.4651
39048SOL    HW121701   2.609   0.146  11.948 -0.1382  0.6540  0.3295
39048SOL    HW221702   2.474   0.204  11.987 -0.5741 -0.6318  0.7834
39049SOL     OW21703   2.671   8.837   8.260 -0.0191  0.4275  0.1573
39049SOL    HW121704   2.705   8.910   8.312  4.5790  0.6444 -2.5835
39049SOL    HW221705   2.705   8.759   8.303 -1.9409  0.0356  1.0801
39050SOL     OW21706   3.923   2.149  12.079  0.3317 -0.1325 -0.2384
39050SOL    HW121707   3.926   2.093  12.002  0.0303  0.7534 -0.9080
39050SOL    HW221708   4.014   2.157  12.107  0.6132  0.6304 -1.3206
39051SOL     OW21709   9.847   5.715   4.803  0.6558  0.2682 -0.4216
39051SOL    HW121710   9.837   5.807   4.777  0.1399 -0.2872 -2.3145
39051SOL    HW221711   9.761   5.691   4.837 -0.5054 -0.5437 -3.5848
39052SOL     OW21712   7.165   3.192   0.587  0.3615  0.0616  0.0018
39052SOL    HW121713   7.081   3.222   0.621 -0.5939  2.7252 -3.9427
39052SOL    HW221714   7.157   3.097   0.582 -2.8427  0.2736 -0.9900
39053SOL     OW21715   5.163   8.097   1.750 -0.0142 -0.2503 -0.9191
39053SOL    HW121716   5.205   8.177   1.718  0.9867 -0.9286 -1.3586
39053SOL    HW221717   5.069   8.115   1.742  0.1649  1.2187 -0.1407
39054SOL     OW21718   3.797  10.943   3.584 -0.1271  0.1915 -0.4207
39054SOL    HW121719   3.839  10.971   3.665 -0.3322  1.1896 -0.6493
39054SOL    HW221720   3.746  10.866   3.609  1.6119 -0.9147 -0.0868
39055SOL     OW21721   6.968   4.281   9.904 -0.1496  0.6815  0.2714
39055SOL    HW121722   6.980   4.337   9.827  2.0452  1.9869  1.4736
39055SOL    HW221723   7.024   4.320   9.971  2.5018 -3.5633  0.8849
39056SOL     OW21724  10.775   5.103   4.690  0.0206 -0.0202 -0.3416
39056SOL    HW121725  10.781   5.180   4.747 -1.1087 -0.7882  0.8748
39056SOL    HW221726  10.771   5.139   4.602  0.4538  1.2701  0.1411
39057SOL     OW21727   8.584   2.808  12.120 -0.3711 -0.5389  0.0634
39057SOL    HW121728   8.614   2.720  12.145 -1.0858 -1.1763 -1.2059
39057SOL    HW221729   8.517   2.792  12.053 -0.0819  1.0021 -0.6298
39058SOL     OW21730   0.554   6.091   3.987 -0.3239  0.3894  0.1446
39058SOL    HW121731   0.461   6.068   3.981 -0.2379 -0.0098  0.2624
39058SOL    HW221732   0.598   6.007   4.001  0.4287  0.0542 -3.3875
39059SOL     OW21733   0.365   1.397   7.554  0.7231 -0.3978  0.2928
39059SOL    HW121734   0.428   1.391   7.626  0.1609  1.7108  1.0319
39059SOL    HW221735   0.414   1.436   7.482  0.7605 -0.6257  0.1923
39060SOL     OW21736   1.091  10.940   7.301 -0.3309  0.2622  0.2392
39060SOL    HW121737   1.025  10.874   7.322  0.8992 -0.7864  0.8674
39060SOL    HW221738   1.072  10.964   7.210 -0.2796 -1.5648 -0.2761
39061SOL     OW21739   6.154  10.989   2.138 -0.3660 -0.0367 -0.3454
39061SOL    HW121740   6.195  10.903   2.130  1.5175  0.6178  1.3776
39061SOL    HW221741   6.061  10.971   2.152 -0.0099 -1.7680 -0.0612
39062SOL     OW21742   8.388   8.235   3.391  0.1479  0.0744 -0.4634
39062SOL    HW121743   8.300   8.198   3.385 -0.5206  1.0478  2.2193
39062SOL    HW221744   8.379   8.325   3.361  0.3227  0.0660 -0.5452
39063SOL     OW21745   8.889   0.584   3.601  0.2320 -0.0733 -0.2525
39063SOL    HW121746   8.803   0.622   3.582  0.5946  1.3663  0.8610
39063SOL    HW221747   8.950   0.657   3.594  0.8860 -0.2497  2.5488
39064SOL     OW21748   3.183   2.936   8.917  0.3616  0.2298  0.0387
39064SOL    HW121749   3.197   2.934   8.823 -0.5928  1.3007 -0.1496
39064SOL    HW221750   3.228   3.015   8.947  0.7174 -0.1396  0.4976
39065SOL     OW21751   5.500  10.931   1.991  0.6425  0.0122  0.0082
39065SOL    HW121752   5.513  10.973   2.076  0.1020 -0.1151  0.1554
39065SOL    HW221753   5.584  10.888   1.972  0.2501 -1.3813  1.2738
39066SOL     OW21754   8.164  12.073   2.613 -0.2246  0.3041 -0.0635
39066SOL    HW121755   8.090  12.016   2.636 -0.1362 -0.1846 -0.9645
39066SOL    HW221756   8.237  12.041   2.666  0.2502 -1.4784 -1.7029
39067SOL     OW21757   5.272   1.238   7.757  0.2242 -0.2801  0.3503
39067SOL    HW121758   5.336   1.181   7.715 -0.0068 -1.5871  1.7115
39067SOL    HW221759   5.200   1.243   7.694  0.5478 -0.9260 -0.0796
39068SOL     OW21760   3.609   2.765   1.231 -0.9126  0.5521 -0.3068
39068SOL    HW121761   3.576   2.853   1.215 -0.8464  0.3783 -1.4981
39068SOL    HW221762   3.534   2.717   1.267 -1.2111  0.8382 -0.5498
39069SOL     OW21763   9.524   0.509   6.525 -0.4153 -0.6794  0.2635
39069SOL    HW121764   9.619   0.505   6.514 -0.2019  1.2609  0.9710
39069SOL    HW221765   9.500   0.422   6.557  1.0536 -1.3395 -0.3312
39070SOL     OW21766  11.183   5.763   7.288  0.4080 -0.2184  0.3094
39070SOL    HW121767  11.229   5.722   7.361  0.3821  1.1888  1.1679
39070SOL    HW221768  11.248   5.822   7.250  0.3352 -0.7375 -0.6358
39071SOL     OW21769   4.546  11.532  11.886 -0.5438  0.1607 -0.4595
39071SOL    HW121770   4.544  11.596  11.958  2.4252  0.2181 -0.3219
39071SOL    HW221771   4.571  11.584  11.810 -0.9983 -0.3761 -0.9797
39072SOL     OW21772   7.149   0.238   0.253 -0.1041  0.7904 -0.3579
39072SOL    HW121773   7.088   0.303   0.287 -0.6948  1.8166 -3.1156
39072SOL    HW221774   7.094   0.172   0.213  0.5218  1.2433 -2.0545
39073SOL     OW21775   6.806   0.095   8.832  0.0646  0.4393 -0.1790
39073SOL    HW121776   6.869   0.122   8.765  0.2237 -0.9860 -0.6457
39073SOL    HW221777   6.745   0.168   8.839  1.6445  1.7839  0.1542
39074SOL     OW21778   8.258   1.896   1.600 -0.1109  0.0872  0.1119
39074SOL    HW121779   8.194   1.952   1.644 -0.0421  0.7625 -0.6233
39074SOL    HW221780   8.281   1.829   1.665 -1.4189 -0.0560  0.4403
39075SOL     OW21781   1.326   7.099   9.942 -0.0581 -0.0842 -0.0407
39075SOL    HW121782   1.237   7.126   9.965 -0.4179 -1.0653 -0.2310
39075SOL    HW221783   1.382   7.147  10.003 -0.6613  0.9855 -0.2838
39076SOL     OW21784   5.801  10.397   2.708  0.7317 -0.3966  0.6896
39076SOL    HW121785   5.819  10.303   2.717 -0.2201 -0.5888  0.6034
39076SOL    HW221786   5.806  10.413   2.614  1.9707 -0.1280  0.7781
39077SOL     OW21787   0.726   1.445   8.502  0.2841  0.3308  0.1804
39077SOL    HW121788   0.762   1.462   8.415  0.5265  0.1059  0.2355
39077SOL    HW221789   0.676   1.523   8.523 -0.1651  0.1973 -0.3622
39078SOL     OW21790   2.496   6.685   4.828  0.5742 -0.1847 -0.4557
39078SOL    HW121791   2.579   6.681   4.780  1.7922  1.8585  1.2627
39078SOL    HW221792   2.461   6.597   4.823  2.2773 -0.8490 -2.2009
39079SOL     OW21793   3.771   7.952   5.990  0.4535 -0.1302 -0.5117
39079SOL    HW121794   3.758   7.994   6.075  1.3118 -0.4724 -0.1912
39079SOL    HW221795   3.866   7.958   5.975  0.7865 -2.7029 -0.0056
39080SOL     OW21796   0.210   3.255   0.260  0.0646 -0.0567  0.0517
39080SOL    HW121797   0.186   3.341   0.225  0.9247 -0.0147 -0.4523
39080SOL    HW221798   0.127   3.207   0.263 -0.0588 -0.0197 -1.9055
39081SOL     OW21799  10.120   3.597   5.514 -0.1075 -0.0636 -0.4471
39081SOL    HW121800  10.186   3.628   5.577  0.3752 -0.7466 -0.6072
39081SOL    HW221801  10.083   3.519   5.554  1.7610 -1.8232 -1.9228
39082SOL     OW21802   6.904   1.039  12.094  0.2434  0.0688 -0.0923
39082SOL    HW121803   6.830   1.008  12.145 -2.4524  1.3903 -2.8368
39082SOL    HW221804   6.923   1.126  12.129  0.7127 -0.3564  0.7516
39083SOL     OW21805  11.301   7.101   4.474 -0.1966 -0.2145  0.1748
39083SOL    HW121806  11.250   7.160   4.419 -0.0566  0.3453  0.6363
39083SOL    HW221807  11.386   7.094   4.430 -0.7067 -1.2940 -0.6924
39084SOL     OW21808   6.914   4.600   1.941  0.0932 -0.1996  0.1495
39084SOL    HW121809   6.846   4.540   1.911 -0.1560 -0.4853  1.2534
39084SOL    HW221810   6.882   4.687   1.918 -0.3056 -0.3795  0.0280
39085SOL     OW21811  10.642   4.274  10.798  0.1684  0.2242 -0.1553
39085SOL    HW121812  10.702   4.327  10.850  0.7989 -0.9656  0.3846
39085SOL    HW221813  10.606   4.211  10.860  1.9610 -2.1249 -1.3245
39086SOL     OW21814   9.271   6.561   9.632  0.5745 -0.4837 -0.0939
39086SOL    HW121815   9.214   6.580   9.706  0.0212 -1.4961 -0.2444
39086SOL    HW221816   9.339   6.505   9.668  0.3629 -0.8914 -0.3209
39087SOL     OW21817   7.335   6.827   8.450  0.8477 -0.0986  0.1562
39087SOL    HW121818   7.243   6.803   8.457  0.7682  0.6074  2.8871
39087SOL    HW221819   7.339   6.890   8.379 -0.5079 -1.1460 -0.9077
39088SOL     OW21820   1.805   1.850   4.562 -0.2656 -0.1102  0.1999
39088SOL    HW121821   1.800   1.755   4.569  0.7450 -0.2404 -0.5295
39088SOL    HW221822   1.775   1.883   4.646 -1.9343 -1.0150  0.0048
39089SOL     OW21823   7.665   2.473   1.741 -0.2956  0.1609 -0.0410
39089SOL    HW121824   7.703   2.390   1.711 -0.9666  0.2111 -1.0816
39089SOL    HW221825   7.681   2.474   1.835 -0.0416 -1.0344 -0.0559
39090SOL     OW21826  10.413   3.302   1.179  0.2796  0.3007 -0.6540
39090SOL    HW121827  10.463   3.244   1.122  1.0493 -1.3787  1.6148
39090SOL    HW221828  10.473   3.326   1.249 -1.7757 -1.2344  1.8230
39091SOL     OW21829   7.499   3.073   2.852 -0.2577 -0.5876  0.3404
39091SOL    HW121830   7.555   3.042   2.923 -0.0819  0.1693  0.5370
39091SOL    HW221831   7.477   2.994   2.803 -1.3244 -1.3207  1.8938
39092SOL     OW21832   6.558   7.281   4.094  0.6471  0.1578 -0.2977
39092SOL    HW121833   6.600   7.362   4.062  0.0260  0.3554 -0.6226
39092SOL    HW221834   6.466   7.290   4.069  0.4008 -0.2659  0.4309
39093SOL     OW21835   9.483   6.002  11.062  0.0539  0.0177  0.6449
39093SOL    HW121836   9.545   5.999  10.989 -0.7503 -2.5207 -0.0413
39093SOL    HW221837   9.534   5.974  11.138  0.4659  0.9425  0.7179
39094SOL     OW21838   9.705  10.372   2.165  0.2672  0.4487  0.1151
39094SOL    HW121839   9.688  10.465   2.147 -1.1411 -0.1343 -2.0082
39094SOL    HW221840   9.801  10.367   2.172  0.7399  1.5796 -3.4397
39095SOL     OW21841   7.092  10.346   5.792 -0.0405 -0.2387 -0.1633
39095SOL    HW121842   7.021  10.308   5.844  0.5478 -0.2164  0.6895
39095SOL    HW221843   7.080  10.440   5.800 -0.2839 -0.2392 -0.5387
39096SOL     OW21844   5.435   4.191   1.548 -0.4963 -0.2314 -0.3221
39096SOL    HW121845   5.418   4.224   1.636 -1.0955 -1.2320 -0.0407
39096SOL    HW221846   5.428   4.268   1.491  0.6016  0.5595  0.5669
39097SOL     OW21847  10.230   6.333   6.723  0.2725 -0.1070 -0.7481
39097SOL    HW121848  10.272   6.331   6.809  0.3265 -1.7670 -0.7728
39097SOL    HW221849  10.296   6.293   6.665 -1.1394 -2.5292 -0.8373
39098SOL     OW21850  10.594   4.565   3.656  0.0857  0.8511 -0.3953
39098SOL    HW121851  10.618   4.476   3.632  4.3706  1.4641  0.8328
39098SOL    HW221852  10.554   4.601   3.577 -1.4541 -1.9378 -1.0409
39099SOL     OW21853   3.887   2.014   5.126 -0.5410  0.0886  0.2533
39099SOL    HW121854   3.937   1.963   5.190 -1.0328 -1.0419 -0.2375
39099SOL    HW221855   3.828   1.950   5.085 -1.8682  1.2423  0.2955
39100SOL     OW21856   9.155   7.009   3.684 -0.1625  0.0987  0.2501
39100SOL    HW121857   9.181   7.038   3.597 -0.0283  0.2692  0.3454
39100SOL    HW221858   9.084   7.068   3.710  0.4640  0.6945  0.6593
39101SOL     OW21859   5.106   7.928   4.118 -0.5883 -0.0057 -0.4118
39101SOL    HW121860   5.182   7.879   4.086 -0.2494  0.2041  0.0627
39101SOL    HW221861   5.142   8.008   4.155 -0.9545 -0.2781  0.5657
39102SOL     OW21862   3.893   0.785   7.048 -0.7674 -0.1093  0.1506
39102SOL    HW121863   3.898   0.694   7.017 -2.0636  0.1907 -1.0435
39102SOL    HW221864   3.905   0.778   7.143  0.7311 -1.3429 -0.0923
39103SOL     OW21865   7.496   0.937   8.448  0.0622 -0.1663 -0.1203
39103SOL    HW121866   7.480   0.864   8.508  1.2502 -0.7900 -0.5075
39103SOL    HW221867   7.466   0.905   8.363  0.1660 -0.0344 -0.2073
39104SOL     OW21868   5.187   3.608   6.691 -0.1109  0.4165 -0.2056
39104SOL    HW121869   5.197   3.569   6.778  0.6381  1.0872  0.0271
39104SOL    HW221870   5.094   3.628   6.684 -0.3017 -0.3080  0.1421
39105SOL     OW21871   8.452   7.802   3.549  0.3843 -0.6973  0.3920
39105SOL    HW121872   8.473   7.887   3.512  1.0235 -0.5036  1.1646
39105SOL    HW221873   8.505   7.797   3.629 -0.9987 -1.0601  1.3194
39106SOL     OW21874   4.698   6.845  10.503 -0.4454  0.1236  0.4317
39106SOL    HW121875   4.655   6.763  10.529  0.0081 -0.1385  0.3683
39106SOL    HW221876   4.642   6.914  10.537 -0.8558 -0.2167  0.4471
39107SOL     OW21877   0.725   8.070   6.063  0.2192 -0.3814  0.2777
39107SOL    HW121878   0.724   8.011   5.988 -0.7870 -1.8053  1.3605
39107SOL    HW221879   0.780   8.143   6.035 -1.2112 -0.1865 -2.3284
39108SOL     OW21880   5.691   9.381   5.613 -0.4367 -0.2351 -0.6252
39108SOL    HW121881   5.708   9.354   5.704  1.3674  2.4970 -0.0316
39108SOL    HW221882   5.775   9.417   5.583 -1.1509 -0.5486 -3.2201
39109SOL     OW21883   0.253   8.242   8.773 -0.1088 -0.6031 -0.2147
39109SOL    HW121884   0.200   8.233   8.694  0.6002 -1.5052 -0.6055
39109SOL    HW221885   0.333   8.193   8.755  0.5381  0.0782  0.6585
39110SOL     OW21886   1.443   7.035  11.522  0.5500 -0.7008 -0.1652
39110SOL    HW121887   1.495   7.006  11.447 -2.0290 -1.7225 -1.6815
39110SOL    HW221888   1.416   7.124  11.499  1.5446 -0.1730  0.6193
39111SOL     OW21889  10.372   4.584  11.420 -0.3368 -0.2864  0.0669
39111SOL    HW121890  10.376   4.490  11.437 -2.3346 -0.2638  0.8844
39111SOL    HW221891  10.413   4.624  11.497 -0.7809 -0.4551  0.3930
39112SOL     OW21892  11.989   8.720   2.920  0.1969 -0.6705 -0.4900
39112SOL    HW121893  12.002   8.807   2.959 -0.2775 -1.2672  1.0812
39112SOL    HW221894  11.896   8.718   2.898 -0.0410 -1.1678  0.5139
39113SOL     OW21895   4.044   8.012   9.197  0.3082  0.5335  0.5348
39113SOL    HW121896   3.975   8.078   9.190  0.3753  0.4236 -2.4042
39113SOL    HW221897   4.025   7.966   9.278 -2.5979  1.0586  0.2591
39114SOL     OW21898   1.899   8.097   9.065  0.2486 -0.3374  0.8262
39114SOL    HW121899   1.927   8.188   9.075  1.0164 -0.7467  2.8687
39114SOL    HW221900   1.942   8.051   9.136 -0.0768 -2.3408 -0.2084
39115SOL     OW21901   8.280   5.028   2.492  0.0896 -0.2460  0.3541
39115SOL    HW121902   8.319   5.092   2.433 -0.9382  0.1914  0.1238
39115SOL    HW221903   8.315   5.051   2.578 -2.0625  2.2250  0.7117
39116SOL     OW21904   3.307   1.948   0.818 -0.4378  0.0132  0.5052
39116SOL    HW121905   3.230   2.004   0.823  0.7210  1.7769 -0.4357
39116SOL    HW221906   3.373   1.994   0.871  0.8596  0.1485 -1.1547
39117SOL     OW21907   1.616   3.692   7.796 -0.2916  0.1640  0.6660
39117SOL    HW121908   1.644   3.746   7.722 -0.5637 -0.4117  0.1304
39117SOL    HW221909   1.536   3.735   7.827 -1.9341 -1.2412 -1.3240
39118SOL     OW21910   4.615  11.237   0.771 -0.4128  0.1415  0.0905
39118SOL    HW121911   4.624  11.331   0.756  2.4909 -0.3269 -1.9876
39118SOL    HW221912   4.651  11.223   0.859 -0.8009  0.9182  0.3824
39119SOL     OW21913   0.905   4.400   0.526  0.4205  0.1230  0.1753
39119SOL    HW121914   0.870   4.328   0.578  0.8079 -0.2613 -0.0866
39119SOL    HW221915   0.856   4.477   0.555 -1.5691 -0.5990 -1.0974
39120SOL     OW21916   8.347   9.613  11.467  0.0601  0.3874 -0.6560
39120SOL    HW121917   8.265   9.606  11.517  0.0257 -0.0117 -0.7593
39120SOL    HW221918   8.408   9.654  11.528 -0.2125  0.6681 -0.5688
39121SOL     OW21919   0.702   0.182   0.153 -0.4258  0.2683  0.3566
39121SOL    HW121920   0.698   0.274   0.180  2.4512  0.7936 -0.6419
39121SOL    HW221921   0.751   0.139   0.223 -1.1671 -0.3927  0.4836
39122SOL     OW21922   6.174   8.306   3.034  0.6869  0.0869 -0.0256
39122SOL    HW121923   6.212   8.346   3.113 -0.7052  0.1996  0.6067
39122SOL    HW221924   6.199   8.366   2.963  1.9649 -0.0211  0.3067
39123SOL     OW21925   3.498  11.721   9.016 -0.6345  0.2001 -0.2060
39123SOL    HW121926   3.542  11.774   8.949 -0.8163 -1.7470 -1.9749
39123SOL    HW221927   3.563  11.655   9.040 -1.3538 -0.5054 -0.1649
39124SOL     OW21928   8.736   6.300   1.467  0.1501  0.0948  0.4115
39124SOL    HW121929   8.803   6.308   1.400  0.8852  0.4975  1.1716
39124SOL    HW221930   8.668   6.362   1.441 -0.5050 -1.1412 -0.9910
39125SOL     OW21931   3.386   6.941   7.883  0.5207 -0.1169 -0.3392
39125SOL    HW121932   3.461   6.961   7.827  0.5067 -0.6280 -0.5413
39125SOL    HW221933   3.400   6.994   7.961  0.4965  0.6669 -0.8592
39126SOL     OW21934   1.283   8.769   9.045 -0.2040  0.2136 -0.0346
39126SOL    HW121935   1.213   8.790   8.984  1.4142  2.8904 -1.1647
39126SOL    HW221936   1.359   8.752   8.990  1.0930  1.8109  1.1662
39127SOL     OW21937   9.911   6.174   7.409 -0.2679 -0.0519  0.5042
39127SOL    HW121938   9.947   6.128   7.484 -0.2399  2.6571  2.2977
39127SOL    HW221939   9.960   6.142   7.334  1.8272 -0.6622  2.0670
39128SOL     OW21940   1.088   7.422   5.599  0.4124 -0.6073  0.0418
39128SOL    HW121941   1.134   7.452   5.677 -0.2515 -1.7666  0.9062
39128SOL    HW221942   0.999   7.457   5.608  0.4849 -0.2598 -0.4997
39129SOL     OW21943  12.110   0.180   9.491  0.4868  0.1678 -0.2374
39129SOL    HW121944  12.183   0.239   9.472 -0.8466  1.9728 -0.0147
39129SOL    HW221945  12.037   0.215   9.440  0.0035 -2.2210 -1.2915
39130SOL     OW21946   7.458   5.478   9.813  0.3250  0.0589 -0.1363
39130SOL    HW121947   7.364   5.462   9.827  0.5350 -1.7023 -0.4354
39130SOL    HW221948   7.468   5.474   9.718  1.0780 -2.6059 -0.0226
39131SOL     OW21949   8.245   6.133   7.341  0.7656 -0.3420 -0.6014
39131SOL    HW121950   8.181   6.127   7.411  1.8979 -1.0133  0.3997
39131SOL    HW221951   8.313   6.190   7.375  0.3429  1.0734 -1.9822
39132SOL     OW21952   7.317   5.567   5.939 -0.1699 -0.0613 -0.4640
39132SOL    HW121953   7.247   5.502   5.944 -0.9039  0.3627 -3.1982
39132SOL    HW221954   7.278   5.648   5.971 -1.1133  0.2430 -2.2529
39133SOL     OW21955   9.223   7.921  11.232  0.2044 -0.1058 -0.3153
39133SOL    HW121956   9.275   7.943  11.308  2.0046 -0.9346 -1.2502
39133SOL    HW221957   9.132   7.938  11.259  0.8139 -0.0157  1.8439
39134SOL     OW21958   0.762   8.668   0.381  0.2167  0.1474  0.3035
39134SOL    HW121959   0.781   8.716   0.301  0.2267  0.5997  0.5729
39134SOL    HW221960   0.847   8.654   0.422  0.3502 -1.1351 -0.3403
39135SOL     OW21961  10.448   2.533  10.981 -0.0821  0.2201  0.4831
39135SOL    HW121962  10.420   2.488  10.901  0.1173  0.2765  0.3808
39135SOL    HW221963  10.376   2.520  11.042 -0.0604 -0.1789  0.4305
39136SOL     OW21964   1.074   1.984   6.859 -0.5287  0.3427 -0.0408
39136SOL    HW121965   1.038   1.897   6.843  1.5039 -0.5531 -0.0287
39136SOL    HW221966   1.098   1.983   6.951  0.4626  0.5232 -0.2884
39137SOL     OW21967   5.227   4.540   1.276 -0.0398  0.3897 -0.0632
39137SOL    HW121968   5.291   4.491   1.223 -1.0698 -0.3775 -0.6339
39137SOL    HW221969   5.180   4.593   1.213 -0.8122 -0.0074  0.1678
39138SOL     OW21970   8.900   6.852   0.815 -0.2598  0.0311 -0.0073
39138SOL    HW121971   8.821   6.894   0.781 -0.1797 -0.5620 -0.9772
39138SOL    HW221972   8.971   6.885   0.759  0.2944  0.9506  1.1637
39139SOL     OW21973   4.042  10.467   0.212  0.1165 -0.5287 -0.1096
39139SOL    HW121974   3.964  10.522   0.221 -0.3623 -1.1958 -0.0613
39139SOL    HW221975   4.115  10.529   0.207 -0.3653  0.0945  0.3611
39140SOL     OW21976   9.448   4.215   5.953  0.6260  0.0776 -0.1806
39140SOL    HW121977   9.367   4.168   5.975 -0.0996  1.0428 -0.6946
39140SOL    HW221978   9.497   4.216   6.035 -0.1550 -0.0104  0.3020
39141SOL     OW21979  12.055   8.065  10.816 -0.2648 -0.2089  0.3260
39141SOL    HW121980  12.124   8.125  10.789  0.5304 -0.6303  1.3238
39141SOL    HW221981  12.006   8.046  10.736 -0.4095  1.5769 -0.0545
39142SOL     OW21982   3.219   3.827   6.977  0.0182 -0.7945  0.4481
39142SOL    HW121983   3.249   3.910   6.940  0.5716 -1.6795 -1.2115
39142SOL    HW221984   3.125   3.839   6.990  0.5256  1.1203  3.2378
39143SOL     OW21985   4.342   6.557   3.295 -0.0468 -0.4767  0.5471
39143SOL    HW121986   4.375   6.470   3.273 -0.4750 -0.7950  1.1318
39143SOL    HW221987   4.421   6.608   3.312  0.1834 -1.4090  2.5739
39144SOL     OW21988   6.841   0.476   4.880  0.2787 -0.1092  0.0907
39144SOL    HW121989   6.892   0.426   4.817 -0.0149 -1.3913  0.8247
39144SOL    HW221990   6.822   0.559   4.836 -0.4484 -1.1875 -1.7614
39145SOL     OW21991   3.428   7.197   4.736  0.0118  0.8746  0.3138
39145SOL    HW121992   3.386   7.174   4.653  0.1622  0.3095  0.3938
39145SOL    HW221993   3.366   7.169   4.803  0.0456  1.0139  0.4043
39146SOL     OW21994   4.228   6.595  10.549 -0.7483 -0.0742 -0.0140
39146SOL    HW121995   4.222   6.691  10.544 -0.9323 -0.0923 -0.1539
39146SOL    HW221996   4.161   6.564  10.488  0.2640 -0.2862 -1.0600
39147SOL     OW21997   3.227   5.002   4.331 -0.0727 -0.7107  0.3129
39147SOL    HW121998   3.242   4.949   4.253 -2.5224 -1.8934  0.5674
39147SOL    HW221999   3.296   5.069   4.327  0.1225 -0.9297 -2.6476
39148SOL     OW22000   3.601  11.639  10.394  0.3111 -0.2202  0.2569
39148SOL    HW122001   3.513  11.675  10.406  0.0660  1.2117 -4.1983
39148SOL    HW222002   3.660  11.713  10.405  0.4379  0.0252 -1.7194
39149SOL     OW22003  11.036   7.210  10.167  0.4654 -0.6547 -0.8730
39149SOL    HW122004  10.996   7.126  10.188  0.8543 -0.6173  0.0934
39149SOL    HW222005  11.127   7.202  10.197  0.8172 -0.2748 -1.7957
39150SOL     OW22006   4.731   4.165  10.149  0.4022 -0.1301  0.9365
39150SOL    HW122007   4.671   4.129  10.084 -0.0902  0.0816  1.2713
39150SOL    HW222008   4.735   4.258  10.129 -0.9457  0.2144  2.1378
39151SOL     OW22009   2.387  10.248   6.113  0.3097  0.4605 -0.3440
39151SOL    HW122010   2.308  10.281   6.157 -0.1733  1.3718 -1.8154
39151SOL    HW222011   2.458  10.297   6.152 -0.2573  2.2858 -1.4703
39152SOL     OW22012   2.806   7.610   1.554 -0.0765  0.0095 -0.3445
39152SOL    HW122013   2.713   7.609   1.579 -0.1440  3.1535 -0.1343
39152SOL    HW222014   2.818   7.694   1.510  2.3057 -1.1390 -2.0923
39153SOL     OW22015   7.069   3.939   3.653  0.1201 -0.1340 -0.1923
39153SOL    HW122016   7.003   3.942   3.584  1.0747  0.6716 -1.1110
39153SOL    HW222017   7.070   4.029   3.688  1.3025  0.0902 -0.7685
39154SOL     OW22018   6.612   7.199  11.731  0.4913 -0.4274  0.4998
39154SOL    HW122019   6.530   7.248  11.733  0.2294 -0.8535  0.4681
39154SOL    HW222020   6.618   7.158  11.817  0.1177 -1.2653  0.1509
39155SOL     OW22021   5.991   1.970  10.928 -0.0345 -0.2534 -0.2921
39155SOL    HW122022   5.906   1.930  10.946 -0.9448  1.9931  0.8113
39155SOL    HW222023   6.033   1.976  11.014  0.6821 -0.1051 -0.6432
39156SOL     OW22024   2.679   9.179   7.525  0.3553 -0.4180 -0.5906
39156SOL    HW122025   2.720   9.266   7.526 -0.9448  0.2281  0.9306
39156SOL    HW222026   2.590   9.195   7.494 -0.9450 -0.6004  2.6213
39157SOL     OW22027   8.792   3.190   3.659 -0.1140  0.9853  0.4256
39157SOL    HW122028   8.748   3.176   3.576  0.8361  1.2658 -0.1452
39157SOL    HW222029   8.776   3.110   3.710  0.4881  0.1988 -0.5831
39158SOL     OW22030  10.368   4.202  10.653 -0.4750  0.8923  0.4185
39158SOL    HW122031  10.361   4.161  10.739  0.6985  1.5336  0.8441
39158SOL    HW222032  10.330   4.289  10.666 -0.1439  1.0492  0.3363
39159SOL     OW22033   3.424   0.064   2.137 -0.1393 -0.0728  0.2126
39159SOL    HW122034   3.458   0.058   2.048  0.1356 -0.2102  0.3266
39159SOL    HW222035   3.356  -0.003   2.142  1.7365 -2.0331  0.9464
39160SOL     OW22036  11.979   7.290   5.858 -0.1685  0.4823  0.4502
39160SOL    HW122037  12.066   7.319   5.886  0.5453  0.1341 -1.2815
39160SOL    HW222038  11.972   7.200   5.892 -0.6039  1.0828  2.0706
39161SOL     OW22039  12.119   3.202   4.151  0.0629 -0.2668  0.0820
39161SOL    HW122040  12.062   3.216   4.075  0.8070  0.8423 -0.3014
39161SOL    HW222041  12.061   3.208   4.227 -0.3267  1.0114 -0.2931
39162SOL     OW22042   5.642   5.671  11.949  0.1659 -0.0948  0.0233
39162SOL    HW122043   5.668   5.599  12.006  2.6270  0.5623 -0.1728
39162SOL    HW222044   5.550   5.653  11.929  0.0035 -1.8196  1.9456
39163SOL     OW22045   9.384   7.204   7.743 -0.0807 -0.5893 -0.9346
39163SOL    HW122046   9.365   7.274   7.680  0.7260 -1.1187 -1.7927
39163SOL    HW222047   9.478   7.213   7.761 -0.2233 -0.7062 -0.1181
39164SOL     OW22048   1.899   0.188   3.902 -0.1413  0.2681 -0.1268
39164SOL    HW122049   1.981   0.237   3.899  0.5554 -0.8281  0.1619
39164SOL    HW222050   1.907   0.133   3.980 -0.7919 -0.4579 -0.5533
39165SOL     OW22051   3.860   0.068   5.819  0.4352  0.4335  0.5120
39165SOL    HW122052   3.953   0.085   5.804  0.2964  0.5312 -0.2443
39165SOL    HW222053   3.830   0.026   5.739  0.2579 -1.4078  1.4837
39166SOL     OW22054   7.369   0.473   6.913  0.4389  0.0307  0.3421
39166SOL    HW122055   7.421   0.413   6.859  0.8791 -0.1561  0.9738
39166SOL    HW222056   7.305   0.510   6.852 -1.6174 -3.0357  0.4174
39167SOL     OW22057   1.592   0.483   7.581 -0.1001  0.2205  0.0771
39167SOL    HW122058   1.654   0.505   7.512  0.1182 -2.0562 -0.5335
39167SOL    HW222059   1.628   0.404   7.621 -2.4870 -1.0855 -0.1694
39168SOL     OW22060  11.270   4.368   4.378 -0.0854  0.4519 -0.2136
39168SOL    HW122061  11.206   4.348   4.446  0.8888 -0.7717  0.3948
39168SOL    HW222062  11.250   4.306   4.307  0.4037  0.0591 -0.0169
39169SOL     OW22063   0.431  10.959   8.168  0.2299  0.1639 -0.1985
39169SOL    HW122064   0.429  10.921   8.256  0.1421  0.7319  0.0470
39169SOL    HW222065   0.353  11.014   8.163 -1.5406 -2.2881 -1.7489
39170SOL     OW22066   3.032  11.653  11.519  0.8220 -0.5814  0.3568
39170SOL    HW122067   3.005  11.570  11.479 -0.4679  0.0625 -0.1555
39170SOL    HW222068   3.128  11.650  11.518  0.8078 -1.3625 -1.1775
39171SOL     OW22069   8.252   6.816   7.454 -0.1876  0.6231  0.2130
39171SOL    HW122070   8.249   6.888   7.518 -0.9324  1.5834 -0.8696
39171SOL    HW222071   8.284   6.857   7.373  1.1712 -0.6656  0.0518
39172SOL     OW22072   8.470   9.117   1.833 -0.2912  0.9722 -0.4363
39172SOL    HW122073   8.419   9.043   1.799 -0.4373  1.0838 -0.4609
39172SOL    HW222074   8.548   9.120   1.777 -0.2312  0.7662 -0.3633
39173SOL     OW22075   6.044   9.336  10.546 -0.8004  0.4828  0.3721
39173SOL    HW122076   6.112   9.272  10.569 -0.4206  0.5618 -0.4963
39173SOL    HW222077   6.082   9.385  10.473 -2.1435 -0.0482 -0.7245
39174SOL     OW22078   5.566  11.559   5.846 -0.1086  0.8114  0.7415
39174SOL    HW122079   5.539  11.603   5.765 -1.0161  0.0672  0.6075
39174SOL    HW222080   5.602  11.628   5.901 -1.8506  1.8148  0.7026
39175SOL     OW22081   5.974   2.548   6.778 -0.3302 -0.1724  0.0924
39175SOL    HW122082   5.989   2.541   6.872  0.2355 -1.8101 -0.0886
39175SOL    HW222083   5.880   2.535   6.767 -0.4200  0.1933  0.4443
39176SOL     OW22084   1.489   0.053   5.638  0.4256  0.3377 -0.7491
39176SOL    HW122085   1.500  -0.036   5.607 -0.1226 -0.7145  1.7831
39176SOL    HW222086   1.578   0.088   5.643  0.5856  0.2749 -2.5284
39177SOL     OW22087   6.319   7.378   4.703  0.5240 -0.4870  0.6744
39177SOL    HW122088   6.326   7.353   4.611 -0.7242  1.2780  0.0404
39177SOL    HW222089   6.406   7.409   4.726  0.6241 -0.0686 -0.2092
39178SOL     OW22090   7.561   6.548   8.172  0.6073 -0.1514  0.2101
39178SOL    HW122091   7.545   6.479   8.108  2.2394  1.6298 -2.3142
39178SOL    HW222092   7.596   6.502   8.249 -1.0004 -2.3320 -0.2565
39179SOL     OW22093   0.183   9.321   6.388  0.0193 -0.2275 -0.3329
39179SOL    HW122094   0.269   9.308   6.348  0.5383 -1.2401  1.0355
39179SOL    HW222095   0.197   9.391   6.452  0.2012 -1.3360  0.8764
39180SOL     OW22096   7.102   6.387   8.359  0.2018 -0.0465 -0.3734
39180SOL    HW122097   7.067   6.439   8.431  0.4618 -1.9760  1.2315
39180SOL    HW222098   7.174   6.440   8.324  0.7920  0.4645  1.5097
39181SOL     OW22099   2.517   2.729   8.993 -0.6753  0.2148 -0.4140
39181SOL    HW122100   2.569   2.696   9.066  0.8409 -0.2615 -1.6663
39181SOL    HW222101   2.556   2.813   8.970 -0.5459 -0.0592 -1.2547
39182SOL     OW22102   6.254   1.150   2.509 -0.0715 -0.0353  0.3193
39182SOL    HW122103   6.239   1.056   2.507  0.2163 -0.1297  1.5751
39182SOL    HW222104   6.255   1.172   2.602  2.6671  0.7505  0.1909
39183SOL     OW22105   6.847   5.170   9.411  0.0673  0.0693 -0.2855
39183SOL    HW122106   6.835   5.218   9.493 -1.4013 -0.9641  0.1549
39183SOL    HW222107   6.786   5.212   9.349 -1.4990 -1.3726  0.2061
39184SOL     OW22108   0.536   2.326   5.313  0.1530 -0.6283  0.3531
39184SOL    HW122109   0.616   2.361   5.353 -1.2828 -0.3441  3.2250
39184SOL    HW222110   0.540   2.232   5.330 -0.4266 -0.5169  1.1631
39185SOL     OW22111  11.488   0.649   8.339  0.1197  0.1298 -0.4453
39185SOL    HW122112  11.551   0.578   8.333  0.5384  0.4953 -0.4207
39185SOL    HW222113  11.493   0.679   8.429 -0.9316 -0.5898 -0.1205
39186SOL     OW22114   3.243   8.861   2.715  0.4576  0.1500 -0.3431
39186SOL    HW122115   3.337   8.875   2.732  0.5001  0.1669 -0.5881
39186SOL    HW222116   3.223   8.920   2.642 -0.2421  1.7879  1.1000
39187SOL     OW22117   7.777   9.940   5.782  0.0878 -0.6175 -0.1663
39187SOL    HW122118   7.818   9.860   5.750 -0.3178 -0.4229 -1.1973
39187SOL    HW222119   7.747   9.985   5.703  1.1070  1.0000  0.3366
39188SOL     OW22120  10.338   4.709   1.422  0.2952  0.1320 -0.0521
39188SOL    HW122121  10.419   4.758   1.403 -0.2467  0.4213 -1.7613
39188SOL    HW222122  10.280   4.731   1.349 -0.9101 -1.0038  0.5475
39189SOL     OW22123  11.227   4.830   7.500 -0.2198  0.2887 -0.1354
39189SOL    HW122124  11.310   4.787   7.520 -0.0426  1.5414  2.1622
39189SOL    HW222125  11.164   4.759   7.492  0.2733 -0.5176  2.4613
39190SOL     OW22126   7.029  11.205  10.972  0.5156  0.0300  0.1118
39190SOL    HW122127   6.992  11.291  10.989  1.6968  0.5758  0.0111
39190SOL    HW222128   6.994  11.179  10.887  0.3648  0.5280  0.0230
39191SOL     OW22129   9.997   5.373   5.276 -0.1028  0.7694  0.3153
39191SOL    HW122130   9.966   5.333   5.357 -0.2614  2.0920  0.9383
39191SOL    HW222131   9.948   5.328   5.207 -2.0963  1.5221  1.1493
39192SOL     OW22132   2.030   6.398   7.125 -0.0179  0.1615  0.5957
39192SOL    HW122133   2.003   6.363   7.040  1.5073 -2.4065  1.0578
39192SOL    HW222134   1.950   6.394   7.179 -0.7131  0.7208 -0.3760
39193SOL     OW22135  11.204   7.511   7.137 -0.1366  0.3011  0.1420
39193SOL    HW122136  11.110   7.526   7.145 -0.1777  0.1202  0.0106
39193SOL    HW222137  11.227   7.549   7.052  0.1307  1.4050  0.6950
39194SOL     OW22138   5.349   3.446   7.252 -0.0065  0.1779  0.7528
39194SOL    HW122139   5.302   3.391   7.188  1.3820  0.4180 -0.5232
39194SOL    HW222140   5.363   3.388   7.327  0.8658 -1.0743 -0.3203
39195SOL     OW22141   4.094   9.382   3.799 -0.0867 -0.1740 -0.0228
39195SOL    HW122142   4.080   9.436   3.876  1.0141 -0.8162  0.6546
39195SOL    HW222143   4.056   9.432   3.727  0.9956  1.5700  0.5486
39196SOL     OW22144  10.189   9.209  10.321 -0.0935  0.8646 -0.2348
39196SOL    HW122145  10.189   9.166  10.407 -0.2274 -0.1039 -0.7087
39196SOL    HW222146  10.267   9.174  10.277  0.1981  1.6632 -0.3621
39197SOL     OW22147   9.043  11.197   6.481  0.5245  0.0294 -0.4121
39197SOL    HW122148   9.132  11.169   6.501  1.0482  1.8582 -0.0620
39197SOL    HW222149   9.053  11.281   6.436 -0.9924 -0.2116 -1.2635
39198SOL     OW22150   2.711   8.115   3.817 -0.4106  0.0643 -0.3227
39198SOL    HW122151   2.620   8.088   3.806 -0.5667  0.5485 -0.2472
39198SOL    HW222152   2.707   8.211   3.824  0.1612  0.1369 -0.9055
39199SOL     OW22153   4.419  10.590   6.322 -0.3873 -0.6726 -0.1178
39199SOL    HW122154   4.339  10.641   6.317 -0.1646 -0.3943 -1.0747
39199SOL    HW222155   4.480  10.645   6.372 -0.1525  0.0170 -1.1327
39200SOL     OW22156   3.416   0.721   9.640  0.6886 -0.1296  0.3120
39200SOL    HW122157   3.441   0.798   9.590 -0.0589  0.5299  0.9451
39200SOL    HW222158   3.460   0.732   9.724  3.4821 -2.1341 -0.7285
39201SOL     OW22159   0.462  10.256   7.597  0.1417 -0.5138  0.1928
39201SOL    HW122160   0.447  10.162   7.587 -0.1816 -0.5486  0.9174
39201SOL    HW222161   0.536  10.276   7.540 -0.6608 -0.9500 -1.0223
39202SOL     OW22162   5.182   4.536   1.826  0.3439 -0.0174 -0.4136
39202SOL    HW122163   5.165   4.444   1.849 -0.5225 -0.1683 -1.5378
39202SOL    HW222164   5.167   4.540   1.731  2.0418  0.9371 -0.6790
39203SOL     OW22165   9.048   3.019   2.273 -0.1578 -0.6098  0.2652
39203SOL    HW122166   9.131   3.048   2.236 -0.6499 -0.1315 -0.5009
39203SOL    HW222167   9.023   3.090   2.333 -0.1111 -0.6583  0.3419
39204SOL     OW22168  11.837   7.014   8.783 -0.4903  0.2036  0.0148
39204SOL    HW122169  11.846   7.067   8.704 -0.1557  0.6852  0.3693
39204SOL    HW222170  11.920   6.967   8.791 -0.9272 -0.6844 -0.5074
39205SOL     OW22171   4.606   7.186   2.890  0.1611 -0.0580 -0.3082
39205SOL    HW122172   4.517   7.153   2.895 -0.4276  1.1191 -1.9089
39205SOL    HW222173   4.600   7.276   2.923  0.1266  0.9585 -2.8092
39206SOL     OW22174   6.512   0.901   1.148 -0.0208 -0.5920  0.3189
39206SOL    HW122175   6.437   0.958   1.129 -0.4220 -0.6049  1.7622
39206SOL    HW222176   6.564   0.950   1.212  0.6650 -1.0313  0.1104
39207SOL     OW22177   7.410   7.322   3.542 -0.6063 -0.0701 -0.3900
39207SOL    HW122178   7.476   7.254   3.554 -1.1005 -0.4258  0.4334
39207SOL    HW222179   7.448   7.400   3.583 -1.3473 -0.6997  1.6099
39208SOL     OW22180   9.940   3.111  11.480  0.5998 -0.0280 -0.3781
39208SOL    HW122181   9.956   3.189  11.533 -0.3501  0.1334 -0.3132
39208SOL    HW222182   9.846   3.097  11.485  0.6116 -0.5360 -1.3002
39209SOL     OW22183   4.895   1.238   0.948 -0.2478 -0.4322 -0.4348
39209SOL    HW122184   4.982   1.256   0.911 -0.8697 -0.1308 -1.7817
39209SOL    HW222185   4.835   1.247   0.875 -1.4489 -0.5094  0.5124
39210SOL     OW22186   0.924   7.838   8.389  0.0994  0.1641  0.0371
39210SOL    HW122187   0.941   7.932   8.387  0.1896  0.1500  0.1779
39210SOL    HW222188   0.839   7.830   8.432 -0.5118  0.2689 -1.1011
39211SOL     OW22189   8.358   1.829   6.458 -0.0236  0.0131  0.2183
39211SOL    HW122190   8.336   1.894   6.391  0.2916  1.3843  1.3892
39211SOL    HW222191   8.436   1.865   6.501 -0.9281 -0.1938  2.1267
39212SOL     OW22192   3.172  10.717   4.392  0.5728 -0.3570 -0.0622
39212SOL    HW122193   3.191  10.768   4.313 -0.3477 -0.1857 -0.1850
39212SOL    HW222194   3.079  10.696   4.385  1.0415 -2.5740 -0.3182
39213SOL     OW22195   8.243   7.907  10.789  0.7904 -0.2343  0.2182
39213SOL    HW122196   8.318   7.964  10.772  1.3620 -0.6051  1.3814
39213SOL    HW222197   8.236   7.853  10.710  1.1022  0.4958 -0.3248
39214SOL     OW22198   0.867   5.601   1.737 -0.2857  0.0307  0.1370
39214SOL    HW122199   0.814   5.521   1.728  1.7498 -1.2712 -1.1708
39214SOL    HW222200   0.894   5.621   1.647  1.0917  0.8915  0.7202
39215SOL     OW22201   2.028   3.451   6.258  0.3799 -0.0817  0.4289
39215SOL    HW122202   2.062   3.381   6.314 -1.0115 -1.2083 -0.0822
39215SOL    HW222203   2.038   3.417   6.169 -0.5469  0.2435  0.1905
39216SOL     OW22204   4.207   1.031   2.389 -0.4176 -0.8888 -0.3594
39216SOL    HW122205   4.190   1.018   2.295 -1.3236 -3.2778  0.0581
39216SOL    HW222206   4.226   0.943   2.422 -0.4734 -0.1547  1.7728
39217SOL     OW22207   6.741   9.339   2.726 -0.2807  0.0752 -0.1033
39217SOL    HW122208   6.785   9.394   2.661 -0.3052  1.0572  0.6808
39217SOL    HW222209   6.794   9.348   2.805 -1.6002  0.9247  0.7329
39218SOL     OW22210   0.436  11.813   8.751 -0.5170 -0.3154 -0.2522
39218SOL    HW122211   0.441  11.826   8.846  0.4029  2.4654 -0.5633
39218SOL    HW222212   0.524  11.836   8.720 -0.8334 -1.0991 -1.7797
39219SOL     OW22213   7.901   2.103   6.819 -0.7550  0.1246 -0.1467
39219SOL    HW122214   7.948   2.139   6.744  0.5360  1.6462  1.3170
39219SOL    HW222215   7.897   2.009   6.802  2.3299 -0.0193 -0.6453
39220SOL     OW22216  11.111   5.996   0.402  0.3151 -0.6765 -0.3945
39220SOL    HW122217  11.051   6.047   0.456 -0.1929 -0.8325 -0.8029
39220SOL    HW222218  11.157   5.939   0.464 -0.0779 -0.6736 -0.0950
39221SOL     OW22219   4.383  10.519  11.255  0.2533 -0.4282 -0.6048
39221SOL    HW122220   4.312  10.478  11.305 -0.5317  0.1703 -1.2067
39221SOL    HW222221   4.400  10.459  11.183  0.4584 -0.6431 -0.3766
39222SOL     OW22222   5.466   0.585   2.833  0.0743 -0.9079 -0.0847
39222SOL    HW122223   5.374   0.583   2.805  0.0354 -1.5081  0.0631
39222SOL    HW222224   5.470   0.521   2.905  0.6878 -1.1672 -0.3450
39223SOL     OW22225   1.930   2.394   0.633 -0.4225 -0.3076 -0.1427
39223SOL    HW122226   1.867   2.459   0.601 -2.3038 -0.9928  1.8865
39223SOL    HW222227   1.947   2.337   0.558 -2.0249  0.0920 -0.8419
39224SOL     OW22228   3.116  10.968   7.467  0.1957  0.3189  0.2488
39224SOL    HW122229   3.184  10.900   7.457 -0.2462 -0.0258 -0.5572
39224SOL    HW222230   3.160  11.038   7.514  1.2878  0.3237 -0.7000
39225SOL     OW22231   7.586   1.266  11.724  0.0510 -0.1499 -0.5314
39225SOL    HW122232   7.614   1.278  11.634  1.0644 -0.6087 -0.2954
39225SOL    HW222233   7.587   1.171  11.737 -1.1527 -0.1472 -0.3550
39226SOL     OW22234  10.576   6.564   7.228 -0.1540 -0.1017 -0.2124
39226SOL    HW122235  10.642   6.519   7.282 -2.1334 -1.9580  0.8383
39226SOL    HW222236  10.577   6.655   7.259 -0.6077 -0.9200  2.4641
39227SOL     OW22237   4.522   6.154   2.640  0.2534 -0.4925  0.3139
39227SOL    HW122238   4.539   6.143   2.733 -0.6653 -1.8986  0.3365
39227SOL    HW222239   4.539   6.247   2.624 -1.0950  0.1447  2.2076
39228SOL     OW22240   8.319   8.997   1.427 -0.3108  0.3226 -0.6421
39228SOL    HW122241   8.295   9.019   1.337 -0.5071 -0.1778 -0.7158
39228SOL    HW222242   8.235   8.978   1.470 -0.2672  1.0699 -0.2078
39229SOL     OW22243  11.325   9.429   9.714 -0.1419 -0.1603  0.5661
39229SOL    HW122244  11.331   9.424   9.809 -0.9204  1.2018  0.7088
39229SOL    HW222245  11.330   9.338   9.685 -2.0873 -0.8059  2.0522
39230SOL     OW22246   6.506   1.677   7.322  0.3607  0.2991 -0.5982
39230SOL    HW122247   6.467   1.730   7.392 -1.6454  0.7745 -2.0218
39230SOL    HW222248   6.485   1.587   7.346  2.0314  0.2052  0.7603
39231SOL     OW22249   4.668   1.633   7.330 -0.2283  0.0691  0.1706
39231SOL    HW122250   4.627   1.590   7.254 -1.0462 -1.6562  1.4986
39231SOL    HW222251   4.607   1.703   7.354 -0.5926 -0.1753 -0.0305
39232SOL     OW22252   3.712   8.409   4.626 -0.0373 -0.1314  0.2843
39232SOL    HW122253   3.670   8.489   4.596  2.3539  0.8168 -0.8276
39232SOL    HW222254   3.730   8.425   4.719 -1.1750 -0.1519  0.5198
39233SOL     OW22255   7.895   7.139   6.987 -0.2965  0.2300 -0.4828
39233SOL    HW122256   7.834   7.085   7.037  0.3326 -0.9350 -0.9302
39233SOL    HW222257   7.927   7.081   6.918  1.1981  0.8540 -0.3549
39234SOL     OW22258  11.974   0.887   4.016 -0.2791 -0.3627  1.1021
39234SOL    HW122259  12.013   0.858   3.934 -0.2460 -0.3106  1.0995
39234SOL    HW222260  11.883   0.909   3.993  0.2788  1.6535  0.6335
39235SOL     OW22261   9.753  10.781   0.967  0.1655  0.3100 -0.0900
39235SOL    HW122262   9.663  10.754   0.950 -0.1926  1.6442 -0.4203
39235SOL    HW222263   9.797  10.701   0.998 -1.0798 -0.3844 -0.0671
39236SOL     OW22264   2.038  12.033   6.331  0.1421  0.0693 -0.5258
39236SOL    HW122265   1.955  12.032   6.377  0.5474  1.0826  0.2797
39236SOL    HW222266   2.042  11.949   6.285 -0.9330 -0.3400  0.1008
39237SOL     OW22267   3.647  11.392   4.494 -0.1407  0.1414  0.1965
39237SOL    HW122268   3.636  11.421   4.404  0.8861 -0.1763 -0.0400
39237SOL    HW222269   3.718  11.328   4.491 -1.8972 -1.9892  0.7904
39238SOL     OW22270   3.107   7.828   3.334  0.0365 -0.0421  0.5108
39238SOL    HW122271   3.083   7.893   3.268 -0.0096 -1.4475 -0.9366
39238SOL    HW222272   3.191   7.858   3.369 -0.2584  1.0729  0.2832
39239SOL     OW22273   1.032   6.438  11.692 -0.1464  0.3134 -0.4560
39239SOL    HW122274   0.945   6.457  11.729  0.1576  0.0510  0.4120
39239SOL    HW222275   1.062   6.361  11.741  1.4015  1.5585  0.6252
39240SOL     OW22276   4.067   2.389   0.972 -0.2180  0.4725  0.1664
39240SOL    HW122277   4.126   2.357   0.904  1.1969  1.0524  1.0511
39240SOL    HW222278   3.995   2.430   0.925  0.5510  0.5523 -0.9775
39241SOL     OW22279  12.086  10.305  10.558  0.1319 -0.1722 -0.0333
39241SOL    HW122280  12.151  10.258  10.506  0.1829 -1.0796  0.8188
39241SOL    HW222281  12.054  10.374  10.500  0.4024 -0.9623 -1.1549
39242SOL     OW22282   8.463  12.098   7.990  0.0577  0.2041 -0.3629
39242SOL    HW122283   8.374  12.064   7.988  0.2803 -0.3804 -1.5731
39242SOL    HW222284   8.518  12.021   7.979  0.8042  0.3795  1.6809
39243SOL     OW22285  11.121   2.451   4.150  0.2260 -0.3788 -0.6532
39243SOL    HW122286  11.156   2.393   4.218 -0.9635 -0.4706 -0.0919
39243SOL    HW222287  11.133   2.402   4.068 -0.9128 -1.5205 -0.1716
39244SOL     OW22288   4.975  11.480   3.913 -0.3549 -0.1061  0.1846
39244SOL    HW122289   4.883  11.484   3.888 -0.2266 -2.0538 -0.8204
39244SOL    HW222290   4.976  11.427   3.993 -0.1635  0.6290  0.6810
39245SOL     OW22291   7.524   4.745   5.382  0.6094  0.1438 -0.2163
39245SOL    HW122292   7.590   4.813   5.398  1.3037 -0.5296 -0.1854
39245SOL    HW222293   7.567   4.682   5.325  0.1232 -0.5020  0.1132
39246SOL     OW22294  11.355   0.287   0.660 -0.1051 -0.0319 -0.4969
39246SOL    HW122295  11.316   0.373   0.677  0.6633  0.6391 -1.9790
39246SOL    HW222296  11.431   0.305   0.606  1.0220 -1.5298  0.5097
39247SOL     OW22297   8.839   1.059   8.559  0.4959 -0.7499 -0.4298
39247SOL    HW122298   8.747   1.059   8.586  0.8405  2.0479  1.0310
39247SOL    HW222299   8.836   1.075   8.465 -0.4868 -2.3824 -0.7313
39248SOL     OW22300   7.073   9.701   0.377  0.2802 -0.3231 -0.0946
39248SOL    HW122301   7.133   9.631   0.402  0.0723 -0.4705 -0.0069
39248SOL    HW222302   7.130   9.774   0.353  0.5549  0.6145  2.9390
39249SOL     OW22303   4.741  10.951   8.901 -0.4849 -0.4161 -0.0943
39249SOL    HW122304   4.690  11.015   8.851  2.4418  1.2428 -1.2198
39249SOL    HW222305   4.782  10.896   8.834  0.9033 -0.2853  0.6150
39250SOL     OW22306   1.829   9.544   2.260 -0.5356 -0.6050 -0.1508
39250SOL    HW122307   1.805   9.476   2.197 -1.3492 -0.5425  0.0784
39250SOL    HW222308   1.925   9.542   2.262 -0.5386 -2.6393  0.8333
39251SOL     OW22309   2.148   9.536   8.048 -0.3519 -0.4952  0.6209
39251SOL    HW122310   2.159   9.445   8.019  0.0497 -0.7808  1.6249
39251SOL    HW222311   2.144   9.530   8.144 -0.6045  0.5202  0.6827
39252SOL     OW22312   1.536  11.926   6.818 -0.0015 -0.3596  0.0044
39252SOL    HW122313   1.487  11.887   6.745 -0.3430 -1.0606  0.5945
39252SOL    HW222314   1.577  12.003   6.780 -0.3531 -0.5882 -0.8806
39253SOL     OW22315   1.719   0.242   4.871 -0.5964  0.0316 -0.7422
39253SOL    HW122316   1.691   0.182   4.803 -0.1421  0.0216 -0.9219
39253SOL    HW222317   1.803   0.277   4.840 -0.5070  0.2122 -0.3065
39254SOL     OW22318   1.051   2.175  11.703  0.2356  0.3242  0.2015
39254SOL    HW122319   1.096   2.097  11.734 -1.5228 -0.6560  0.4177
39254SOL    HW222320   1.056   2.236  11.777 -2.2978 -1.3104  1.9385
39255SOL     OW22321   4.454   2.630   2.685 -0.1512  0.1564 -0.4186
39255SOL    HW122322   4.403   2.601   2.609 -0.2072  1.8382 -1.0508
39255SOL    HW222323   4.538   2.657   2.648 -0.3499  1.4440  0.0406
39256SOL     OW22324   1.121   2.461   5.331 -0.5810 -0.4298  0.2547
39256SOL    HW122325   1.036   2.505   5.328 -0.6552 -0.6197 -0.7360
39256SOL    HW222326   1.104   2.378   5.376 -0.5940  0.2004  1.4468
39257SOL     OW22327   9.938   5.054   4.561 -0.2415 -0.1302  0.6210
39257SOL    HW122328   9.896   4.969   4.575  0.8905 -1.0469 -1.1164
39257SOL    HW222329   9.951   5.058   4.466 -0.0430  1.9011  0.7006
39258SOL     OW22330   1.565   2.875   3.444  0.5069 -0.1946 -0.3607
39258SOL    HW122331   1.507   2.866   3.368 -0.1967  0.1952  0.1194
39258SOL    HW222332   1.520   2.828   3.514  1.5188 -1.2062 -0.3679
39259SOL     OW22333   5.384   3.799   3.064  0.1429  0.8678 -0.7143
39259SOL    HW122334   5.294   3.780   3.089  0.1071  1.1392 -0.6397
39259SOL    HW222335   5.385   3.786   2.969 -0.0543  1.1915 -0.7590
39260SOL     OW22336   8.127   5.793   9.380 -0.6321 -0.4086 -0.1942
39260SOL    HW122337   8.110   5.786   9.474 -1.0128 -0.3093 -0.2569
39260SOL    HW222338   8.223   5.788   9.373 -0.5698  0.1069  0.2409
39261SOL     OW22339   1.449   0.356   0.537  0.1445  0.0924 -0.2724
39261SOL    HW122340   1.420   0.272   0.501 -2.6706  1.1765 -0.7711
39261SOL    HW222341   1.405   0.422   0.483  0.6066  1.8642  1.4089
39262SOL     OW22342   9.733   3.570   0.846  0.0588  0.1061  0.1740
39262SOL    HW122343   9.749   3.476   0.843 -0.8194 -0.1049  1.3147
39262SOL    HW222344   9.803   3.608   0.793 -0.0142 -1.2308 -0.9463
39263SOL     OW22345   0.654   1.531   1.642  0.2267 -0.3262  0.1317
39263SOL    HW122346   0.661   1.581   1.561 -0.4329  0.2678  0.4326
39263SOL    HW222347   0.706   1.581   1.705 -0.5042  0.0452  0.4553
39264SOL     OW22348  10.381   5.462   6.846 -0.2668  0.3300  0.0942
39264SOL    HW122349  10.304   5.493   6.799  1.3734  0.3340 -2.7641
39264SOL    HW222350  10.455   5.482   6.789  1.9853  0.8274  2.9549
39265SOL     OW22351   7.596   0.185   4.942 -0.4341  0.4269  0.1467
39265SOL    HW122352   7.669   0.209   4.885 -0.0136 -0.4421  0.2998
39265SOL    HW222353   7.638   0.145   5.018 -1.0812 -0.2610  0.1486
39266SOL     OW22354   0.769   8.884   6.968 -0.3117 -0.3531 -0.1397
39266SOL    HW122355   0.764   8.890   6.872  0.4878  1.2987 -0.1154
39266SOL    HW222356   0.678   8.880   6.996 -0.5541 -1.0871 -0.9714
39267SOL     OW22357   7.871   1.040  10.929  0.3176  0.2200 -0.3126
39267SOL    HW122358   7.796   0.981  10.931  1.5845 -1.4728 -0.6017
39267SOL    HW222359   7.847   1.112  10.987 -1.3263 -0.5053 -0.0442
39268SOL     OW22360   4.194   1.887   8.919 -0.3377 -0.2082  0.3745
39268SOL    HW122361   4.134   1.960   8.927 -0.9431 -0.4433 -1.4421
39268SOL    HW222362   4.179   1.854   8.830  2.4696 -0.2685 -0.1605
39269SOL     OW22363   8.900   2.011   3.945  0.4949 -0.3310  0.0245
39269SOL    HW122364   8.947   1.932   3.969  1.1667 -0.2274 -0.8896
39269SOL    HW222365   8.907   2.069   4.021  2.6263  0.0368 -0.3898
39270SOL     OW22366   9.322  12.065   9.865 -0.4362  0.4224  0.5099
39270SOL    HW122367   9.303  12.054   9.958  0.1340  2.2878  0.8954
39270SOL    HW222368   9.417  12.055   9.858 -0.4501  0.5036  0.1632
39271SOL     OW22369   3.553   5.630   6.174 -0.1356  0.2485  0.8234
39271SOL    HW122370   3.620   5.562   6.174 -1.2010 -0.9495 -1.8998
39271SOL    HW222371   3.477   5.588   6.215 -0.5756 -0.0084 -0.2202
39272SOL     OW22372   8.800  11.057   1.655  0.6584  0.1575 -0.2392
39272SOL    HW122373   8.880  11.106   1.668  0.9780 -0.6076  0.8098
39272SOL    HW222374   8.737  11.098   1.715  0.7394 -0.2656  0.1451
39273SOL     OW22375  10.801   2.810   3.277 -0.5802 -0.7580 -0.0027
39273SOL    HW122376  10.806   2.883   3.215  1.6031 -0.3964  0.5316
39273SOL    HW222377  10.864   2.832   3.345 -1.0710 -2.3764  1.0210
39274SOL     OW22378   3.808   5.331   5.150  0.3904  0.2564 -0.2415
39274SOL    HW122379   3.759   5.322   5.232  2.0584  0.4086  0.8352
39274SOL    HW222380   3.893   5.292   5.169  0.8525  0.4083 -1.8783
39275SOL     OW22381   6.412   3.247   1.394 -0.4748 -0.2483  0.7827
39275SOL    HW122382   6.495   3.230   1.350  0.8749  0.2969  2.9654
39275SOL    HW222383   6.360   3.168   1.378  0.7229 -0.9165 -0.0058
39276SOL     OW22384   7.679   4.831   1.556  0.4097 -0.0528  0.2944
39276SOL    HW122385   7.609   4.799   1.613  2.2122 -1.2297  1.9912
39276SOL    HW222386   7.635   4.858   1.476 -2.0281 -0.2092  1.4939
39277SOL     OW22387   6.169   6.070   3.687 -0.5423 -0.0957 -0.3906
39277SOL    HW122388   6.211   5.990   3.719 -2.4217 -1.3279 -0.7949
39277SOL    HW222389   6.113   6.040   3.615 -1.0069  1.6567 -0.8138
39278SOL     OW22390   7.240   5.021   7.637 -0.3768  0.0083 -0.0617
39278SOL    HW122391   7.202   4.974   7.711 -0.5462 -0.9245 -0.7214
39278SOL    HW222392   7.299   4.958   7.596 -0.5990  0.3676 -0.9670
39279SOL     OW22393   3.315   7.730   3.748  0.1133  0.5441 -0.1294
39279SOL    HW122394   3.407   7.703   3.745 -0.1989 -0.7585  0.8611
39279SOL    HW222395   3.273   7.680   3.678  0.2351  1.5735 -0.9661
39280SOL     OW22396  11.573   8.116   5.239 -0.5612 -0.1896  0.0641
39280SOL    HW122397  11.540   8.074   5.160  0.5635 -0.7350 -0.1395
39280SOL    HW222398  11.495   8.145   5.286 -1.3189 -1.5767 -0.3073
39281SOL     OW22399  11.154   8.874   4.522  0.2277 -0.2958 -0.3091
39281SOL    HW122400  11.225   8.814   4.498 -0.1476 -0.6921 -0.4518
39281SOL    HW222401  11.096   8.872   4.446  0.1567  0.1737 -0.2701
39282SOL     OW22402   9.248   4.535   9.847  0.5051  0.4736 -0.5258
39282SOL    HW122403   9.305   4.528   9.924 -0.0766 -0.0134 -0.1367
39282SOL    HW222404   9.276   4.464   9.789 -0.6023 -0.6381  0.2670
39283SOL     OW22405   1.411   9.233   7.778 -0.4848 -0.0955 -0.5896
39283SOL    HW122406   1.434   9.287   7.854 -0.8206  1.2892 -1.4180
39283SOL    HW222407   1.336   9.181   7.807  0.5729 -1.0207  0.5964
39284SOL     OW22408   0.553   4.887   4.472  0.2964  0.3176 -0.3951
39284SOL    HW122409   0.490   4.955   4.447  0.1919  0.3223 -0.1202
39284SOL    HW222410   0.520   4.808   4.430 -0.3390  0.1495  0.3924
39285SOL     OW22411   3.206   1.671   1.797  0.1938  0.2664 -0.3259
39285SOL    HW122412   3.148   1.615   1.746 -0.3930 -0.3621  0.9895
39285SOL    HW222413   3.152   1.702   1.869  1.2322  0.4541  0.3967
39286SOL     OW22414   4.840   3.062   9.142 -0.0874  0.1048 -0.0186
39286SOL    HW122415   4.803   3.135   9.191 -0.9789  0.4126 -1.1094
39286SOL    HW222416   4.805   2.984   9.184 -2.4087  0.3829 -1.2467
39287SOL     OW22417   6.022   8.013   2.638 -0.0390  0.1736  0.1680
39287SOL    HW122418   6.045   7.922   2.620  0.1772  0.1915  0.3451
39287SOL    HW222419   6.086   8.041   2.704 -0.7559  0.1308  0.9022
39288SOL     OW22420   4.414   3.425   1.899 -0.1469 -0.1896  0.1033
39288SOL    HW122421   4.358   3.349   1.886 -0.9759  0.7314 -2.0835
39288SOL    HW222422   4.489   3.409   1.841  0.7243 -0.2814  1.2121
39289SOL     OW22423   9.358  12.022   9.438  0.1318  0.0778  0.3388
39289SOL    HW122424   9.376  11.954   9.373 -2.5014 -1.8048  1.4329
39289SOL    HW222425   9.276  12.062   9.409  0.2587  0.9702  1.1574
39290SOL     OW22426   3.769   8.390   5.157  0.4181  0.2546  0.0323
39290SOL    HW122427   3.775   8.299   5.129 -1.0558  0.2744 -0.4142
39290SOL    HW222428   3.838   8.399   5.223  1.1081 -0.9519 -0.4841
39291SOL     OW22429  10.531   6.631  10.950  0.6371 -0.7554 -0.0891
39291SOL    HW122430  10.592   6.561  10.971  1.1759  0.4032  2.6074
39291SOL    HW222431  10.559   6.704  11.005 -2.2497  0.3069  0.1102
39292SOL     OW22432   9.561   5.296  11.689  0.0389 -0.1925 -0.6515
39292SOL    HW122433   9.485   5.273  11.743 -0.2616 -0.0625 -1.0171
39292SOL    HW222434   9.600   5.212  11.665  0.8506 -0.2466  0.7061
39293SOL     OW22435   1.250   5.094   2.385  0.4636  0.0474 -0.0458
39293SOL    HW122436   1.194   5.171   2.388 -0.5474 -0.6945  2.5879
39293SOL    HW222437   1.207   5.035   2.323 -0.8052  0.1424  0.7156
39294SOL     OW22438  10.118  10.890   3.410 -0.0088  0.2718 -0.0912
39294SOL    HW122439  10.088  10.836   3.484  0.2736  1.2206  0.7436
39294SOL    HW222440  10.160  10.828   3.351  1.5875 -0.2840  1.5129
39295SOL     OW22441   4.943   7.002   8.883  0.7781 -0.1541 -0.7910
39295SOL    HW122442   4.989   6.931   8.929 -0.5653 -1.0219 -0.7553
39295SOL    HW222443   4.944   6.975   8.791  1.2656  0.3578 -0.9420
39296SOL     OW22444   1.019   9.154   0.668  0.0811 -0.1858 -0.1454
39296SOL    HW122445   1.033   9.235   0.716  1.2006 -0.0877 -0.6116
39296SOL    HW222446   1.013   9.086   0.735  0.3906  0.1120  0.1814
39297SOL     OW22447   9.185   0.176   1.364 -0.3285  0.3205 -0.2638
39297SOL    HW122448   9.182   0.233   1.287 -0.0816 -0.5549 -0.9422
39297SOL    HW222449   9.237   0.101   1.336 -0.4520 -0.1366  0.6866
39298SOL     OW22450   9.182   5.240   1.923 -0.2275  0.1176 -0.1015
39298SOL    HW122451   9.207   5.322   1.881  1.1170  0.1480  0.6851
39298SOL    HW222452   9.194   5.256   2.017 -0.0218 -0.9412  0.0690
39299SOL     OW22453  11.018  10.924   5.760 -0.3848  0.2183 -0.0771
39299SOL    HW122454  11.015  10.944   5.667  0.5502  0.8188  0.0053
39299SOL    HW222455  10.944  10.973   5.797  0.5059  1.7499 -0.2179
39300SOL     OW22456   1.706   7.946   5.227 -0.0389 -0.8612 -0.4220
39300SOL    HW122457   1.688   7.852   5.229  2.2005 -1.3587 -1.1108
39300SOL    HW222458   1.710   7.968   5.134  1.4922 -0.5776 -0.3256
39301SOL     OW22459   0.691   0.607   7.768  0.4916  0.4505  0.0884
39301SOL    HW122460   0.618   0.640   7.715  0.4664 -0.2942 -0.3593
39301SOL    HW222461   0.662   0.617   7.858  0.0566  0.6536 -0.0712
39302SOL     OW22462   6.325   1.415  11.985  0.1374 -0.0376  0.2421
39302SOL    HW122463   6.260   1.354  12.019 -0.8344  1.3288  0.8916
39302SOL    HW222464   6.339   1.387  11.894  0.4392 -1.7952  0.7957
39303SOL     OW22465   1.321   7.197   3.531 -0.7152  0.1589 -0.0779
39303SOL    HW122466   1.372   7.203   3.450  0.4935  0.4916  0.6813
39303SOL    HW222467   1.251   7.261   3.520 -0.5391  0.2313 -0.8419
39304SOL     OW22468   8.475   1.321  11.057 -0.0056 -0.2040 -0.2791
39304SOL    HW122469   8.505   1.275  11.135 -0.7462  1.5217  1.0650
39304SOL    HW222470   8.472   1.253  10.989 -0.6919 -2.0508  1.5169
39305SOL     OW22471   8.608   7.450  11.671  0.1020  0.2575  0.2479
39305SOL    HW122472   8.533   7.392  11.683  2.1039 -2.1697  2.1343
39305SOL    HW222473   8.620   7.454  11.576 -1.3421 -0.7105 -0.0151
39306SOL     OW22474  11.372   1.081   6.867  0.6374  0.3936 -0.2749
39306SOL    HW122475  11.440   1.059   6.802  0.9014 -2.3215  0.7880
39306SOL    HW222476  11.355   0.999   6.912 -1.9621  1.4604  0.8757
39307SOL     OW22477  10.728   8.492   9.797  0.8106  0.1860 -0.1978
39307SOL    HW122478  10.717   8.400   9.775  0.6165  0.5231 -1.6738
39307SOL    HW222479  10.640   8.529   9.792  0.9579  0.5473 -0.1849
39308SOL     OW22480   8.391   4.114   2.592  0.2189 -0.6773 -0.0882
39308SOL    HW122481   8.413   4.118   2.499 -1.5580  0.0368 -0.5251
39308SOL    HW222482   8.356   4.025   2.604 -1.7877 -0.0272 -0.7057
39309SOL     OW22483   3.298   1.845   0.571  0.2071 -0.2994 -0.1060
39309SOL    HW122484   3.264   1.926   0.533 -0.8822 -0.2388  0.9367
39309SOL    HW222485   3.310   1.865   0.664  1.9703 -0.7148 -0.2042
39310SOL     OW22486   5.662   4.856  10.494 -0.6528 -0.0007  0.0113
39310SOL    HW122487   5.661   4.901  10.409  0.4420  0.5312  0.2656
39310SOL    HW222488   5.577   4.876  10.533 -0.7330  0.6570 -0.4894
39311SOL     OW22489   3.424   4.138  10.600 -0.0184 -0.3004 -0.6654
39311SOL    HW122490   3.363   4.089  10.543  2.5398 -2.4912 -1.7391
39311SOL    HW222491   3.467   4.071  10.652 -0.0705  1.4085  1.7315
39312SOL     OW22492   8.342   6.635   1.307 -0.2429  0.3442  0.5189
39312SOL    HW122493   8.337   6.666   1.217 -0.5055 -0.7501  0.1498
39312SOL    HW222494   8.366   6.713   1.358  1.3888  0.6792 -0.6701
39313SOL     OW22495   2.040   2.885   9.327  0.1147  1.1251  0.1538
39313SOL    HW122496   2.017   2.834   9.250  1.2909 -0.1139  0.5722
39313SOL    HW222497   2.133   2.865   9.342  0.3451  2.6199  0.9336
39314SOL     OW22498   1.566   5.198   8.049 -0.8205  0.5868 -0.3808
39314SOL    HW122499   1.587   5.290   8.061 -0.3702  0.5484 -0.8232
39314SOL    HW222500   1.651   5.154   8.046 -1.0283  0.1697 -0.2646
39315SOL     OW22501   5.260   2.257  11.945 -0.5752 -0.1756  0.3572
39315SOL    HW122502   5.336   2.300  11.985  0.1900 -0.9034 -0.2837
39315SOL    HW222503   5.212   2.328  11.902  1.3684 -0.0994 -1.8235
39316SOL     OW22504   8.980  11.908   2.904 -0.0640 -0.4223  0.4930
39316SOL    HW122505   8.896  11.881   2.867  0.2417 -0.3531 -0.2654
39316SOL    HW222506   9.011  11.978   2.847 -0.0292  0.3650  1.4441
39317SOL     OW22507   3.056   2.392   2.909  0.1335  0.1077 -0.1984
39317SOL    HW122508   3.132   2.433   2.952 -0.3717  0.8984 -0.0326
39317SOL    HW222509   3.057   2.302   2.940  2.8921 -0.8897 -2.6633
39318SOL     OW22510  10.564   6.448  11.691  0.0179 -0.1994  0.3686
39318SOL    HW122511  10.654   6.456  11.723 -0.5834  0.8456  1.8994
39318SOL    HW222512  10.513   6.420  11.767 -0.8070 -1.8537 -0.7478
39319SOL     OW22513   3.057   1.148   4.452  0.3123  0.0436  0.3733
39319SOL    HW122514   2.993   1.161   4.381  1.3194  0.1599 -0.5413
39319SOL    HW222515   3.004   1.131   4.530 -0.8229 -0.7201 -0.5309
39320SOL     OW22516   9.520  11.146  11.396 -0.1453 -0.0035  0.0807
39320SOL    HW122517   9.578  11.156  11.320 -1.3229  2.8888 -0.5693
39320SOL    HW222518   9.435  11.125  11.359 -0.6703  1.1524  0.5814
39321SOL     OW22519   5.966   0.205   1.220 -0.4356 -0.3290  0.3105
39321SOL    HW122520   5.975   0.200   1.315 -0.9661  2.2833  0.5647
39321SOL    HW222521   5.881   0.164   1.202 -0.5028 -0.4993  0.9948
39322SOL     OW22522   9.206   5.523   4.237 -0.5456 -0.1712  0.1607
39322SOL    HW122523   9.193   5.607   4.282 -1.4227  0.0625 -0.5202
39322SOL    HW222524   9.156   5.460   4.289 -2.5247  0.2994 -1.0800
39323SOL     OW22525  10.438   8.489   0.267 -0.2021  0.4374 -0.5613
39323SOL    HW122526  10.452   8.512   0.359  0.4541  2.1911 -1.0471
39323SOL    HW222527  10.391   8.406   0.269  1.2368 -0.3843  1.3229
39324SOL     OW22528  11.116   1.420   8.252  0.1512  0.0005 -0.2726
39324SOL    HW122529  11.093   1.390   8.164 -0.8569  0.3221 -0.1319
39324SOL    HW222530  11.075   1.506   8.259  1.5255  0.6628 -0.0303
39325SOL     OW22531   7.210   5.483   3.064 -0.9518 -0.1675  0.0716
39325SOL    HW122532   7.228   5.534   3.143  1.1410  0.1112 -0.5155
39325SOL    HW222533   7.212   5.392   3.094 -0.3516 -0.0572  0.3823
39326SOL     OW22534   5.603  11.191   0.297  0.4707 -0.4418  0.1352
39326SOL    HW122535   5.575  11.101   0.281  0.4406 -0.4305  0.1252
39326SOL    HW222536   5.544  11.223   0.365 -0.0791 -0.1466 -0.4705
39327SOL     OW22537   5.462   8.049   6.354  0.1164 -0.2168  0.0127
39327SOL    HW122538   5.524   8.030   6.425 -0.7180 -0.4732  0.6805
39327SOL    HW222539   5.513   8.102   6.292  0.3559  1.6432  1.6823
39328SOL     OW22540   3.942   0.467   8.878 -0.1912 -0.1000  0.4620
39328SOL    HW122541   3.903   0.553   8.863 -0.4221 -0.1015  1.0361
39328SOL    HW222542   4.011   0.460   8.811  1.0373  1.2654  1.5270
39329SOL     OW22543   9.614   1.859  11.754  0.8854  0.3922 -0.0127
39329SOL    HW122544   9.629   1.810  11.673 -0.3560  0.7489 -0.4861
39329SOL    HW222545   9.676   1.822  11.817  1.8399  0.0846 -1.1085
39330SOL     OW22546   1.946   7.068   3.325  0.1618  0.5427  0.3676
39330SOL    HW122547   1.962   7.073   3.230  0.0872 -0.3530  0.3019
39330SOL    HW222548   1.858   7.103   3.336 -1.5258 -3.0361 -0.4239
39331SOL     OW22549   4.235   7.254  10.943  0.5281  0.3879  0.0915
39331SOL    HW122550   4.170   7.315  10.978  0.8562 -0.4623  2.3772
39331SOL    HW222551   4.239   7.274  10.850 -2.7079  0.7595 -0.0956
39332SOL     OW22552   9.496   7.586   6.840  0.0239 -0.3458  0.2270
39332SOL    HW122553   9.568   7.523   6.850  0.0761 -0.3839 -0.3451
39332SOL    HW222554   9.534   7.656   6.787 -0.9824 -1.4190 -2.0519
39333SOL     OW22555   6.749   0.382   8.183 -0.1504 -0.1795  0.2953
39333SOL    HW122556   6.776   0.301   8.227 -0.1160  0.6534  1.8842
39333SOL    HW222557   6.667   0.360   8.140 -0.4077 -0.9281  1.1404
39334SOL     OW22558  10.654   6.249   9.123 -0.7839 -0.0451  0.6252
39334SOL    HW122559  10.742   6.212   9.111 -0.1234  1.2544  1.1986
39334SOL    HW222560  10.626   6.274   9.035 -1.0353 -1.4063  0.3012
39335SOL     OW22561   4.681   1.179   6.272  0.0913  0.0105 -0.4911
39335SOL    HW122562   4.707   1.098   6.316  0.1569  0.2330 -0.1154
39335SOL    HW222563   4.688   1.247   6.340 -0.2604  0.2806 -0.7204
39336SOL     OW22564   5.208  10.763   9.003  0.0142 -0.0837  0.5042
39336SOL    HW122565   5.225  10.856   9.017 -2.1450  0.8032 -2.0399
39336SOL    HW222566   5.189  10.729   9.091 -2.2187  2.5813  1.1863
39337SOL     OW22567   7.795   6.201   0.015 -0.7043 -0.2336 -0.3123
39337SOL    HW122568   7.834   6.221   0.100  0.5101  0.0421 -0.9218
39337SOL    HW222569   7.769   6.287  -0.020  0.4270 -0.1489 -0.9821
39338SOL     OW22570   6.255  11.096  11.304  0.9939  0.3044 -0.1252
39338SOL    HW122571   6.216  11.074  11.220  1.0911  0.0298 -0.0984
39338SOL    HW222572   6.182  11.131  11.355  1.2435  1.9774 -0.8493
39339SOL     OW22573   1.312   9.178   8.129 -0.5013 -0.4892  0.5726
39339SOL    HW122574   1.253   9.146   8.197 -0.4514 -0.5346  0.5950
39339SOL    HW222575   1.374   9.107   8.116  1.4291  0.6578  2.7129
39340SOL     OW22576   1.657   0.693   0.595 -0.3263 -0.2766 -0.5833
39340SOL    HW122577   1.655   0.787   0.578  2.4197  0.0216  0.2016
39340SOL    HW222578   1.661   0.653   0.508  2.2111  0.5940 -0.9442
39341SOL     OW22579  11.714   4.877   7.375 -0.3183  0.6832  0.1790
39341SOL    HW122580  11.665   4.955   7.402  0.8439  1.1347  1.0431
39341SOL    HW222581  11.712   4.881   7.279 -0.3358  1.7477  0.2062
39342SOL     OW22582   7.115  11.276   6.330 -0.1537  0.3573  0.0304
39342SOL    HW122583   7.148  11.261   6.419 -1.9410 -1.7328  0.4268
39342SOL    HW222584   7.041  11.335   6.341  0.3839  1.0846 -0.2333
39343SOL     OW22585   4.352   5.943   2.314 -0.0885 -0.3408 -0.0567
39343SOL    HW122586   4.406   6.009   2.270  0.2878 -0.4870  0.1752
39343SOL    HW222587   4.346   5.871   2.251  0.9087 -0.7785  0.3292
39344SOL     OW22588   2.360   5.292   7.715 -0.7242 -0.6022 -0.6457
39344SOL    HW122589   2.347   5.379   7.753 -1.9183 -1.8351  2.0545
39344SOL    HW222590   2.454   5.275   7.726 -0.1210  0.9579 -2.8223
39345SOL     OW22591   8.996   6.435   5.192  0.4104  0.0364  0.3357
39345SOL    HW122592   9.091   6.418   5.192  0.4489 -0.0288 -2.0399
39345SOL    HW222593   8.989   6.530   5.179  0.1388 -0.0384 -0.0501
39346SOL     OW22594   2.152   7.321   6.606 -0.3730 -0.1302  0.2496
39346SOL    HW122595   2.197   7.406   6.606 -1.1916  0.4229 -2.7850
39346SOL    HW222596   2.211   7.263   6.655  1.6533  1.4970 -0.1167
39347SOL     OW22597  10.765   4.239   7.769 -0.0676 -0.6957  0.4242
39347SOL    HW122598  10.826   4.242   7.842  0.8960  0.9139 -0.3869
39347SOL    HW222599  10.818   4.257   7.692 -1.3634 -0.4298 -0.4485
39348SOL     OW22600   9.966   3.960   4.952 -0.0367  0.1313 -0.3315
39348SOL    HW122601   9.878   3.981   4.922 -0.0319  0.5209 -0.0733
39348SOL    HW222602   9.976   4.008   5.034 -0.7468 -2.3622  1.3313
39349SOL     OW22603   3.929  10.135   6.211 -0.3328  0.9541 -0.2707
39349SOL    HW122604   3.873  10.164   6.139 -0.0012  0.5519 -0.6872
39349SOL    HW222605   3.947  10.216   6.260  0.5209  1.4640 -1.3837
39350SOL     OW22606   4.135  10.435   2.137  0.1376  0.4843 -0.1204
39350SOL    HW122607   4.212  10.397   2.179  1.0780  1.9493 -0.4639
39350SOL    HW222608   4.132  10.393   2.051  0.1113 -0.1217  0.1708
39351SOL     OW22609   6.980   0.800   4.482  0.4972  0.1328  0.4421
39351SOL    HW122610   7.075   0.806   4.476  0.4525 -0.1368 -1.1423
39351SOL    HW222611   6.953   0.771   4.395 -1.0473  0.3119  0.8327
39352SOL     OW22612   7.548   2.644   6.494 -0.0307  0.2832 -0.1443
39352SOL    HW122613   7.643   2.634   6.484  0.4845  0.7819  2.9568
39352SOL    HW222614   7.519   2.561   6.531 -1.0596 -0.2903 -2.1583
39353SOL     OW22615   6.353   1.737   9.678 -0.3186 -0.1976 -0.2533
39353SOL    HW122616   6.369   1.676   9.750 -0.6342 -0.5397 -0.4671
39353SOL    HW222617   6.259   1.755   9.684 -0.4594 -0.6959 -0.9485
39354SOL     OW22618   2.879  10.044   0.047 -0.0577  0.5357 -0.6241
39354SOL    HW122619   2.860  10.118  -0.011 -1.3934  0.4822 -0.3080
39354SOL    HW222620   2.973  10.047   0.061  0.0893  1.3935 -1.6601
39355SOL     OW22621   2.810   4.741   5.765  0.7552  0.3726  0.6820
39355SOL    HW122622   2.884   4.683   5.749 -0.5484 -1.9768  2.5064
39355SOL    HW222623   2.775   4.759   5.678  1.0413 -1.8846  0.0283
39356SOL     OW22624   3.837   1.874   3.636 -0.4923  0.1311 -0.0035
39356SOL    HW122625   3.790   1.955   3.654  0.3335  0.5827  0.1670
39356SOL    HW222626   3.928   1.892   3.661 -0.3198 -0.8917  0.1775
39357SOL     OW22627   3.390   5.026  10.266  0.5462  0.7225 -0.3291
39357SOL    HW122628   3.418   5.079  10.191  0.4031  1.8521  0.3787
39357SOL    HW222629   3.468   4.978  10.293  0.5927  0.3066 -1.2048
39358SOL     OW22630   0.144  10.450   7.503  0.4141  0.1522  0.1439
39358SOL    HW122631   0.076  10.463   7.568 -0.3835  1.1624 -0.8400
39358SOL    HW222632   0.154  10.536   7.461  1.8707 -0.1225 -0.1477
39359SOL     OW22633   6.656   6.122   1.612  0.0646 -0.0476  0.4433
39359SOL    HW122634   6.650   6.158   1.524 -0.8426  0.9870  0.9070
39359SOL    HW222635   6.750   6.109   1.626  0.1512 -1.5371 -1.1572
39360SOL     OW22636   1.974   1.020   1.971 -0.4915  0.0737  0.1061
39360SOL    HW122637   2.052   0.965   1.976 -2.0702 -2.3712 -0.3993
39360SOL    HW222638   1.950   1.035   2.062  1.0795  1.7936  0.3167
39361SOL     OW22639   7.634   7.361   4.831 -0.0518  0.5171 -0.6641
39361SOL    HW122640   7.695   7.369   4.758 -0.4374  0.3551 -1.0130
39361SOL    HW222641   7.681   7.396   4.906 -0.5028  3.0854 -1.4597
39362SOL     OW22642   8.030   5.877  11.787  0.1034 -0.1507  0.4053
39362SOL    HW122643   7.938   5.854  11.776 -0.0259 -0.0742  1.2834
39362SOL    HW222644   8.030   5.945  11.855  0.8943 -0.8566  1.1382
39363SOL     OW22645   2.065   9.807  11.879  0.4293 -0.1553 -0.1638
39363SOL    HW122646   2.053   9.716  11.907 -0.0551 -0.7349 -2.0909
39363SOL    HW222647   1.977   9.844  11.884  0.7179  0.4022  1.1503
39364SOL     OW22648   4.207   2.994   9.259 -0.0191 -0.8525 -0.0583
39364SOL    HW122649   4.300   2.970   9.256  0.0562 -0.7104  0.7081
39364SOL    HW222650   4.191   3.014   9.352 -0.8670 -1.0668 -0.1517
39365SOL     OW22651   1.106  11.822   6.680  0.1864 -0.1855  0.0592
39365SOL    HW122652   1.134  11.875   6.755 -0.2158 -0.2055  0.2234
39365SOL    HW222653   1.162  11.852   6.608  1.8639 -1.4384  0.7689
39366SOL     OW22654   7.370   7.316   7.227  0.2682  0.2806 -0.3120
39366SOL    HW122655   7.438   7.277   7.282  0.8379  2.8498  0.9114
39366SOL    HW222656   7.293   7.260   7.241  2.0817 -2.9339 -2.0353
39367SOL     OW22657   7.318   5.274  11.979  0.0099 -0.2591  0.1538
39367SOL    HW122658   7.385   5.219  12.021  1.6726  1.2026 -0.4371
39367SOL    HW222659   7.359   5.302  11.897 -1.9334 -0.4654 -0.9494
39368SOL     OW22660   2.953   6.925   6.835 -0.0799 -0.2976 -0.2306
39368SOL    HW122661   2.905   7.006   6.818  1.8320  0.6427 -1.4257
39368SOL    HW222662   2.952   6.878   6.751 -1.1115 -1.5222  0.4285
39369SOL     OW22663   6.024   7.225   8.637  0.1119 -0.1244 -0.2148
39369SOL    HW122664   6.055   7.311   8.667  1.0053  0.0590 -1.5375
39369SOL    HW222665   6.062   7.163   8.698 -0.1260  0.3852  0.4636
39370SOL     OW22666   1.407  10.028   6.427 -0.2894 -0.0314  1.0660
39370SOL    HW122667   1.445  10.021   6.515 -2.2196 -1.4574  1.8459
39370SOL    HW222668   1.371   9.942   6.409 -0.3960  0.3769 -0.9495
39371SOL     OW22669   9.289   2.824   4.384 -0.2798 -0.3306 -0.3669
39371SOL    HW122670   9.332   2.761   4.443  2.2369  0.9149 -0.7237
39371SOL    HW222671   9.295   2.783   4.298  0.2092 -0.1898 -0.4068
39372SOL     OW22672   8.409   3.756   1.325  0.0820 -0.4453  0.1853
39372SOL    HW122673   8.480   3.711   1.278 -0.9004 -1.1695 -0.6524
39372SOL    HW222674   8.363   3.805   1.257  1.2114  2.0365  1.0890
39373SOL     OW22675   5.629   6.527   9.868 -0.5477 -0.1567  0.0199
39373SOL    HW122676   5.590   6.554   9.951 -1.3211 -2.9618  0.6845
39373SOL    HW222677   5.561   6.545   9.803 -0.1518  1.5277  0.0258
39374SOL     OW22678   1.764   2.848  10.551 -0.5586  0.0055  0.2584
39374SOL    HW122679   1.853   2.880  10.539 -0.6324  0.4609  0.8753
39374SOL    HW222680   1.708   2.924  10.534 -0.9130 -0.5393 -1.2392
39375SOL     OW22681   6.941  11.352   3.736  0.3679 -0.1502 -0.3814
39375SOL    HW122682   6.900  11.273   3.772  0.7622  0.0751  0.6026
39375SOL    HW222683   6.956  11.331   3.644  0.4549 -1.2166 -0.1428
39376SOL     OW22684   9.157  10.957   2.023 -0.2782 -0.0836 -0.1677
39376SOL    HW122685   9.089  11.024   2.028  0.3843  0.5868  0.0523
39376SOL    HW222686   9.221  10.992   1.962  0.6196  0.0022  0.7901
39377SOL     OW22687   1.772   6.214   3.947 -0.9931 -0.6002 -0.0499
39377SOL    HW122688   1.778   6.307   3.924 -3.0369 -0.3737  0.1167
39377SOL    HW222689   1.787   6.167   3.865  2.8775 -0.3403  0.3259
39378SOL     OW22690  11.144   1.993  11.974  0.0483  0.1584 -0.7013
39378SOL    HW122691  11.140   1.938  12.052  1.5543 -0.9256 -1.3501
39378SOL    HW222692  11.067   2.050  11.981  1.8205  2.3811  3.2118
39379SOL     OW22693   1.385  11.932   3.937  0.4796 -0.3793 -0.1781
39379SOL    HW122694   1.363  11.909   4.027  1.3678 -1.4359 -0.2136
39379SOL    HW222695   1.455  11.997   3.945  0.3611 -0.2623 -0.1012
39380SOL     OW22696   0.623   3.607   8.327 -0.1461  0.2640 -0.6866
39380SOL    HW122697   0.717   3.592   8.315  0.3230  1.8606  0.6095
39380SOL    HW222698   0.587   3.601   8.238  1.0364 -1.1017 -1.1203
39381SOL     OW22699   5.725   1.187   6.453  0.2223 -0.2254 -0.0002
39381SOL    HW122700   5.709   1.231   6.370 -0.4281  0.1384  0.3056
39381SOL    HW222701   5.802   1.231   6.489  0.3223 -0.1788 -0.2691
39382SOL     OW22702  12.102   1.028   1.828 -0.2871 -0.4747  0.3579
39382SOL    HW122703  12.150   1.051   1.908  0.0232 -0.3736  0.1446
39382SOL    HW222704  12.153   1.068   1.758 -1.5542  1.0588  0.2461
39383SOL     OW22705   7.433   9.109   9.003  0.1541  0.2378  0.9162
39383SOL    HW122706   7.441   9.165   8.925 -1.4867 -1.4764 -0.5685
39383SOL    HW222707   7.523   9.102   9.036  0.7189  1.9847 -0.0741
39384SOL     OW22708  11.414   7.680   3.057 -0.0735  0.5354 -0.5527
39384SOL    HW122709  11.368   7.606   3.096  0.3822 -0.1913 -1.3730
39384SOL    HW222710  11.500   7.646   3.032 -0.2064  1.0484 -1.8281
39385SOL     OW22711   7.315   0.623   2.195  0.4647 -0.2644  0.7158
39385SOL    HW122712   7.322   0.630   2.290  1.8973  0.2745  0.5897
39385SOL    HW222713   7.347   0.535   2.175 -0.4938 -0.6375  0.7764
39386SOL     OW22714   5.787   2.762   8.365  0.3435 -0.5210  0.4023
39386SOL    HW122715   5.783   2.667   8.355  0.0049 -0.4510 -0.1823
39386SOL    HW222716   5.749   2.796   8.284  1.9876  0.1333 -0.1323
39387SOL     OW22717   9.320   7.740  10.040  0.2310 -0.2857 -0.2551
39387SOL    HW122718   9.363   7.824  10.025  0.1530 -0.1863  0.0740
39387SOL    HW222719   9.288   7.714   9.954 -0.4354  0.4079 -0.2273
39388SOL     OW22720   9.755  11.910   3.872  0.5004  0.1997 -0.1327
39388SOL    HW122721   9.756  11.888   3.779  0.3471  0.1007 -0.1120
39388SOL    HW222722   9.776  12.004   3.875  1.1174  0.0670 -0.2220
39389SOL     OW22723   4.454   1.440   3.193 -0.3497  0.3332  0.1422
39389SOL    HW122724   4.438   1.350   3.164 -1.3258  0.4183  0.3685
39389SOL    HW222725   4.377   1.488   3.162  0.6048  1.2890 -0.7911
39390SOL     OW22726   4.167   6.202   8.803 -0.0818  0.1904  0.2964
39390SOL    HW122727   4.218   6.272   8.764 -0.6772  0.3676 -0.1890
39390SOL    HW222728   4.177   6.128   8.743  0.4670 -0.1244  0.7565
39391SOL     OW22729   0.176   7.627   0.757 -0.3471  0.3041 -0.5621
39391SOL    HW122730   0.124   7.614   0.837 -0.5099  0.0272 -0.7107
39391SOL    HW222731   0.197   7.539   0.728 -0.2542  0.4070 -0.8059
39392SOL     OW22732   5.584   8.747   5.824  0.5509 -0.2091  0.1598
39392SOL    HW122733   5.577   8.772   5.732 -0.5186  0.0393  0.3029
39392SOL    HW222734   5.548   8.658   5.828  0.1322 -0.0292  0.4189
39393SOL     OW22735   0.717   4.773   2.395  0.1435  0.3436 -0.5560
39393SOL    HW122736   0.700   4.760   2.489 -0.2892  1.3216 -0.4914
39393SOL    HW222737   0.751   4.862   2.388 -0.8149  0.6624 -1.4429
39394SOL     OW22738   8.988   5.415   4.442  0.2865  0.6401 -0.0599
39394SOL    HW122739   9.006   5.391   4.533  3.2117  1.2998 -0.3771
39394SOL    HW222740   9.018   5.340   4.391 -0.6471  0.5832 -0.5471
39395SOL     OW22741   5.581   8.456   5.824 -0.0388 -0.3448 -0.3465
39395SOL    HW122742   5.652   8.432   5.764 -1.1945 -0.8722 -1.5633
39395SOL    HW222743   5.511   8.394   5.803 -0.8267  0.0926  0.9006
39396SOL     OW22744   1.808  11.758   3.126  0.1856 -0.1722  0.8670
39396SOL    HW122745   1.765  11.804   3.199  1.6801  0.5337  1.3300
39396SOL    HW222746   1.739  11.751   3.059 -1.2433 -0.8863  2.3399
39397SOL     OW22747  10.647  11.431   4.939  0.4705  0.4092 -0.2958
39397SOL    HW122748  10.595  11.357   4.970  0.2250  0.7317  0.0696
39397SOL    HW222749  10.632  11.434   4.845  0.6762 -0.1550 -0.3487
39398SOL     OW22750   5.027   9.375   3.621 -0.6723  0.1397 -0.1397
39398SOL    HW122751   4.966   9.313   3.582  1.5996 -2.1329 -0.3459
39398SOL    HW222752   5.079   9.323   3.682  0.0447  2.3057  1.2315
39399SOL     OW22753   4.951   5.899   5.198 -0.8014  0.1881  0.3086
39399SOL    HW122754   5.001   5.980   5.194 -1.0515  0.3032 -1.1532
39399SOL    HW222755   4.947   5.877   5.291  0.2583  1.2248  0.6186
39400SOL     OW22756   2.146   9.846  10.709 -0.0137  0.2622 -0.6194
39400SOL    HW122757   2.183   9.928  10.676 -1.4133  1.9213  1.6563
39400SOL    HW222758   2.200   9.824  10.785 -0.3693 -0.2780 -0.5167
39401SOL     OW22759   5.136   3.671   4.427 -0.2290 -0.0593  0.4693
39401SOL    HW122760   5.087   3.727   4.367 -0.8295 -1.2954 -0.2162
39401SOL    HW222761   5.187   3.613   4.371 -1.8931 -2.2185  1.0602
39402SOL     OW22762   9.065   8.508   8.741 -0.1146 -0.2216 -0.5364
39402SOL    HW122763   9.056   8.422   8.782  0.8637 -1.1094 -2.1161
39402SOL    HW222764   8.975   8.539   8.731 -0.5920 -1.7225 -1.2709
39403SOL     OW22765   8.903   3.830   8.980  0.4538  0.4812 -0.3862
39403SOL    HW122766   8.900   3.758   8.917 -0.0698  0.1480  0.0016
39403SOL    HW222767   8.983   3.815   9.030  0.3789  0.1899 -0.3466
39404SOL     OW22768   9.347   2.893   0.222 -0.0470  0.0330 -0.7000
39404SOL    HW122769   9.421   2.843   0.257 -0.7864 -1.3604 -1.0312
39404SOL    HW222770   9.270   2.853   0.263 -0.5933  2.4512  0.8508
39405SOL     OW22771  10.429   5.782   1.215  0.1490  0.7784  0.1481
39405SOL    HW122772  10.431   5.708   1.155  3.6452  1.3367 -0.6486
39405SOL    HW222773  10.344   5.823   1.200 -0.2107 -0.7229 -2.4187
39406SOL     OW22774  10.773  11.463   0.763  0.3373  0.5793  0.0494
39406SOL    HW122775  10.738  11.391   0.816  1.9207 -0.0321  0.3098
39406SOL    HW222776  10.732  11.453   0.678  0.2678 -0.4196  0.1915
39407SOL     OW22777   2.879   3.207   9.339  0.2111  0.5498 -0.1774
39407SOL    HW122778   2.840   3.207   9.252 -2.1245 -0.7390  0.7641
39407SOL    HW222779   2.808   3.236   9.397  1.2305 -0.0899  1.4786
39408SOL     OW22780   4.785   7.687   2.705  0.4994 -0.5619 -0.0728
39408SOL    HW122781   4.791   7.782   2.714 -0.6890 -0.4827  0.0267
39408SOL    HW222782   4.816   7.669   2.616 -2.9080  0.3663 -1.5999
39409SOL     OW22783   9.661  10.751   2.623  0.0026 -0.0022  0.0189
39409SOL    HW122784   9.714  10.789   2.693  1.0348  0.7322 -1.1311
39409SOL    HW222785   9.584  10.807   2.619 -2.0125 -2.2259  3.0514
39410SOL     OW22786   1.641   0.564  12.112 -0.7618  0.0315  0.2844
39410SOL    HW122787   1.668   0.606  12.030 -0.5088 -0.2610  0.2192
39410SOL    HW222788   1.721   0.526  12.147 -1.1247 -1.0407 -0.0272
39411SOL     OW22789   7.250   3.415   9.760  0.0944 -0.0793  0.4883
39411SOL    HW122790   7.162   3.396   9.729 -0.0388  0.0811  0.7645
39411SOL    HW222791   7.288   3.329   9.781 -0.4429 -0.0737  1.5700
39412SOL     OW22792   1.386   6.078   4.613  0.0237  0.0012 -0.0158
39412SOL    HW122793   1.471   6.078   4.657  0.2758  0.8213 -0.4929
39412SOL    HW222794   1.405   6.056   4.522 -0.3429 -0.3373 -0.0172
39413SOL     OW22795   0.231  11.915   4.879 -0.7657  0.4766 -0.0956
39413SOL    HW122796   0.234  11.836   4.933 -1.2957  0.8819  0.5494
39413SOL    HW222797   0.235  11.884   4.789 -0.2590 -0.2389  0.1666
39414SOL     OW22798   2.189   3.617   2.681 -0.3407  0.0177 -0.3769
39414SOL    HW122799   2.146   3.651   2.603  0.3357  2.5282  0.2715
39414SOL    HW222800   2.205   3.694   2.735  2.1689 -1.2045  0.7691
39415SOL     OW22801  11.647  10.020   6.000 -0.5070 -0.5565  0.6821
39415SOL    HW122802  11.701  10.096   6.022  0.9732 -1.4558  0.3057
39415SOL    HW222803  11.562  10.057   5.975  0.7644  1.1573 -1.4462
39416SOL     OW22804   3.863   0.591  11.619  0.2876  0.0665 -0.0270
39416SOL    HW122805   3.947   0.619  11.583 -0.1597 -0.4984 -1.6114
39416SOL    HW222806   3.883   0.562  11.707  1.7047  0.1866 -0.2789
39417SOL     OW22807   6.104   7.478  11.108  0.0962 -0.0773 -0.4109
39417SOL    HW122808   6.131   7.551  11.054  2.0892 -0.1663  0.3732
39417SOL    HW222809   6.099   7.514  11.197 -1.6739 -0.2636 -0.4105
39418SOL     OW22810   6.890  10.328  10.048  0.1674 -0.0728  0.6515
39418SOL    HW122811   6.942  10.408  10.053  0.5683 -0.3250  0.5639
39418SOL    HW222812   6.917  10.287   9.966 -0.5944  0.0816  0.3174
39419SOL     OW22813   8.344   7.200   7.423 -0.0087 -0.0456  0.1335
39419SOL    HW122814   8.260   7.246   7.423  0.9712  1.8660  0.8224
39419SOL    HW222815   8.391   7.236   7.348  0.8904  0.3349  0.8566
39420SOL     OW22816   9.983   7.540   2.485 -0.0890 -0.4888 -0.4281
39420SOL    HW122817  10.054   7.478   2.500 -0.2599 -0.9699 -1.5507
39420SOL    HW222818  10.008   7.588   2.407 -0.0462  0.7575  0.3284
39421SOL     OW22819   8.405   2.712   2.630 -0.1055  0.1090  0.0340
39421SOL    HW122820   8.493   2.693   2.662  0.5039  2.7408  0.2040
39421SOL    HW222821   8.420   2.755   2.545 -1.2058  0.4801  0.0121
39422SOL     OW22822   7.037   8.556   4.091  0.4492 -0.1978 -0.0193
39422SOL    HW122823   7.003   8.640   4.123  2.4852 -0.2402  2.5589
39422SOL    HW222824   6.976   8.530   4.022 -0.0616  3.5369 -1.1694
39423SOL     OW22825   0.671   6.421  10.312  0.4873 -0.4226 -0.2128
39423SOL    HW122826   0.676   6.344  10.255 -0.2760 -1.1340  0.6524
39423SOL    HW222827   0.578   6.447  10.309  0.5814 -0.0316  0.1474
39424SOL     OW22828   2.090   0.251  10.439 -0.1414 -0.2303 -0.0110
39424SOL    HW122829   2.085   0.260  10.343 -1.4630 -0.6253  0.0000
39424SOL    HW222830   1.998   0.246  10.467  0.2401 -0.3845  1.2570
39425SOL     OW22831   1.143  11.094   0.931  0.1955 -0.2032  0.8571
39425SOL    HW122832   1.214  11.158   0.933  0.1031 -0.0359 -0.4099
39425SOL    HW222833   1.172  11.024   0.990  1.0731  0.2102  0.9261
39426SOL     OW22834   9.208  10.540   9.084  0.0798  0.9854 -0.2933
39426SOL    HW122835   9.189  10.480   9.156 -2.3776  2.6309  0.5793
39426SOL    HW222836   9.187  10.490   9.005  1.2493 -0.3242  0.1913
39427SOL     OW22837   9.822  10.788   8.223 -0.1956  0.1044 -0.0088
39427SOL    HW122838   9.870  10.710   8.251 -0.4702 -0.6669 -1.6166
39427SOL    HW222839   9.848  10.802   8.132  0.1384  2.1288  0.3435
39428SOL     OW22840   8.284   5.509   9.440 -0.4186  0.0634 -0.0906
39428SOL    HW122841   8.365   5.490   9.487 -1.0819  0.1897  1.1558
39428SOL    HW222842   8.239   5.424   9.435 -0.4425  0.0886 -0.3246
39429SOL     OW22843   3.427   4.054  12.012  0.5738  0.0038 -0.5717
39429SOL    HW122844   3.334   4.075  11.997  0.4766 -0.4313 -0.5845
39429SOL    HW222845   3.466   4.054  11.925 -0.1036 -3.0731 -0.9820
39430SOL     OW22846   7.516   0.770   1.869 -0.2308  0.2417  0.0973
39430SOL    HW122847   7.579   0.786   1.940 -0.7940 -0.4558  0.7780
39430SOL    HW222848   7.527   0.844   1.810 -0.2875  1.2460  1.3149
39431SOL     OW22849   9.893   6.176   3.034 -0.7703 -0.7049  0.5613
39431SOL    HW122850   9.828   6.125   2.987 -1.5342 -2.6634  3.4569
39431SOL    HW222851   9.854   6.262   3.045 -0.9843 -0.5278 -1.3879
39432SOL     OW22852   8.681   1.962   0.053 -0.0613  0.0627  0.0061
39432SOL    HW122853   8.648   2.033   0.108 -0.0680 -0.0179  0.1067
39432SOL    HW222854   8.690   2.001  -0.034 -1.3229 -0.1641 -0.2438
39433SOL     OW22855  10.770   1.834   7.799 -0.0291 -0.1232  0.0153
39433SOL    HW122856  10.821   1.915   7.802  0.8705 -0.5050 -2.6058
39433SOL    HW222857  10.714   1.843   7.722 -0.0234 -1.9121 -0.2481
39434SOL     OW22858  11.602   6.857   1.266 -0.4132 -0.1233  0.1149
39434SOL    HW122859  11.603   6.889   1.356 -0.1896 -0.2592  0.1623
39434SOL    HW222860  11.613   6.762   1.274 -0.2866 -0.1239 -0.0597
39435SOL     OW22861   6.616   7.843  11.780 -0.0304 -0.3086  0.0029
39435SOL    HW122862   6.672   7.766  11.777  0.5727  0.1308 -0.1114
39435SOL    HW222863   6.557   7.827  11.853  1.0584 -0.2234  0.9212
39436SOL     OW22864   6.436   1.908   8.170  0.2774  0.4837  0.1915
39436SOL    HW122865   6.378   1.980   8.145  0.7920  0.5882 -0.7889
39436SOL    HW222866   6.516   1.951   8.199  1.2798  0.3595 -2.1222
39437SOL     OW22867   9.088   1.421   6.928 -0.1149 -0.9984 -0.4972
39437SOL    HW122868   9.110   1.373   7.008  0.3477 -0.0853 -0.0588
39437SOL    HW222869   9.165   1.475   6.910 -0.9833  0.3315 -0.4022
39438SOL     OW22870  11.330   0.644   4.259  0.4244  0.5292  0.0629
39438SOL    HW122871  11.374   0.620   4.177  1.9655 -0.2313  1.0585
39438SOL    HW222872  11.401   0.664   4.319 -0.6605  0.7094  1.3352
39439SOL     OW22873   0.325   2.356   8.210  0.4372 -0.8730 -0.0720
39439SOL    HW122874   0.420   2.367   8.219  0.5643  1.4087 -2.7019
39439SOL    HW222875   0.314   2.290   8.142  0.1521 -1.0181  0.1128
39440SOL     OW22876   3.593   9.000   7.068 -0.1564 -0.0138 -0.0530
39440SOL    HW122877   3.660   9.062   7.096  0.2398 -0.6418  0.4276
39440SOL    HW222878   3.627   8.915   7.094 -1.5789 -0.2659  1.1242
39441SOL     OW22879   4.916  11.999   4.623 -0.7451  0.2916  0.2211
39441SOL    HW122880   4.991  11.939   4.627  0.8403  2.1117 -0.3977
39441SOL    HW222881   4.902  12.026   4.713 -1.5040 -1.0092  0.5117
39442SOL     OW22882   8.601   5.588   1.703 -0.3302  0.0642  0.5386
39442SOL    HW122883   8.564   5.587   1.615  3.0491 -1.2400 -1.0184
39442SOL    HW222884   8.679   5.642   1.696  0.1296 -0.1900  2.7370
39443SOL     OW22885   5.956   5.318   3.493  0.7306 -0.1856  0.2336
39443SOL    HW122886   5.994   5.376   3.558 -0.2594  1.8595 -0.9201
39443SOL    HW222887   6.024   5.308   3.426  0.7496 -0.0189  0.2298
39444SOL     OW22888  10.062  10.142   4.337 -0.2512  0.0043 -0.0497
39444SOL    HW122889  10.006  10.212   4.303  0.7469  1.4701  1.1440
39444SOL    HW222890  10.122  10.122   4.265 -1.0649 -0.2151 -0.6797
39445SOL     OW22891   5.216   4.057   1.658  0.1206  0.1268 -0.9382
39445SOL    HW122892   5.297   4.108   1.657 -0.6401  1.4981  1.1457
39445SOL    HW222893   5.154   4.108   1.607 -0.6998  1.5115  1.3160
39446SOL     OW22894   5.132   2.399   5.019  0.4470 -0.3039  0.2981
39446SOL    HW122895   5.191   2.367   5.086  0.0468 -1.3096  0.1923
39446SOL    HW222896   5.080   2.467   5.062  1.4191  0.3293  0.4869
39447SOL     OW22897   0.502   8.487   5.139  0.0104  0.4243 -0.5732
39447SOL    HW122898   0.428   8.467   5.083  0.3440  2.1703 -1.7283
39447SOL    HW222899   0.579   8.471   5.083  0.4625 -0.3803  0.2660
39448SOL     OW22900   2.448   7.762   3.372  0.3916 -0.3013 -0.2467
39448SOL    HW122901   2.357   7.753   3.345 -1.4659  2.8703  3.8478
39448SOL    HW222902   2.467   7.681   3.420 -0.6419 -0.6093 -0.3401
39449SOL     OW22903   0.964  11.070   9.786 -0.2020 -0.1568  0.3686
39449SOL    HW122904   0.964  10.974   9.784 -0.2189 -0.1465 -0.5731
39449SOL    HW222905   0.879  11.093   9.822  0.4797 -0.4899  2.3542
39450SOL     OW22906   0.406   9.574   4.741  0.1215 -0.5292 -0.1697
39450SOL    HW122907   0.474   9.512   4.716  0.2157 -0.3654 -0.3250
39450SOL    HW222908   0.439   9.615   4.821  0.2569 -0.3678 -0.3093
39451SOL     OW22909   3.597   7.886   8.628  0.0455  0.0202 -0.2742
39451SOL    HW122910   3.597   7.940   8.549  0.8275  0.8748  0.3035
39451SOL    HW222911   3.678   7.908   8.674 -1.4784  1.3416  1.9843
39452SOL     OW22912   0.243   6.616   0.585  0.1371 -0.0002  0.4827
39452SOL    HW122913   0.305   6.687   0.573 -1.1203  1.1551  0.5928
39452SOL    HW222914   0.257   6.585   0.674  0.1524  0.6541  0.7082
39453SOL     OW22915   1.466   0.323   6.549  0.7416  0.0476 -0.0349
39453SOL    HW122916   1.487   0.387   6.617  1.0065 -0.1304  0.0525
39453SOL    HW222917   1.396   0.270   6.586  2.0313 -1.1341  0.7808
39454SOL     OW22918   0.734   6.707   0.873 -0.0953 -0.1554  0.8333
39454SOL    HW122919   0.753   6.651   0.797 -0.4798  1.1301 -0.2481
39454SOL    HW222920   0.793   6.675   0.941 -0.2893 -1.8595  0.2525
39455SOL     OW22921  11.393   3.254   7.471 -0.2290 -0.2429 -0.3611
39455SOL    HW122922  11.473   3.203   7.480 -0.2833 -0.2788 -0.0615
39455SOL    HW222923  11.417   3.327   7.415  0.1616  0.0539  0.1786
39456SOL     OW22924   4.068   1.114   5.898 -0.1953  0.2360  0.1077
39456SOL    HW122925   4.153   1.089   5.936 -0.8069 -1.3312  0.5320
39456SOL    HW222926   4.058   1.206   5.920  0.9432  0.1871  0.9209
39457SOL     OW22927   0.759   2.058   2.156  0.0526 -0.1270  0.1549
39457SOL    HW122928   0.757   1.999   2.232 -0.1708 -2.9676 -1.9252
39457SOL    HW222929   0.842   2.040   2.113 -0.2049  0.7930 -0.7807
39458SOL     OW22930   1.984   6.384   2.708 -0.0413 -0.1545  0.4076
39458SOL    HW122931   1.930   6.309   2.732 -0.4670  0.2363  0.6822
39458SOL    HW222932   2.001   6.429   2.791  1.7148 -0.9185  0.5247
39459SOL     OW22933   1.500   9.786  11.298 -0.5333  0.0669 -0.0537
39459SOL    HW122934   1.486   9.745  11.383  0.1284 -1.9731 -0.8451
39459SOL    HW222935   1.562   9.856  11.314 -0.5061 -0.2149  1.1612
39460SOL     OW22936   9.163   3.494   9.066  0.5345 -0.2245  0.1591
39460SOL    HW122937   9.134   3.417   9.116  0.1850 -0.2907 -0.1350
39460SOL    HW222938   9.110   3.491   8.986  0.2349  0.5417  0.3163
39461SOL     OW22939  10.273   8.573   5.113 -0.0973 -0.0224  0.0064
39461SOL    HW122940  10.300   8.511   5.046 -2.1778 -0.6819 -0.3052
39461SOL    HW222941  10.347   8.578   5.174  0.8995 -1.2148 -1.0749
39462SOL     OW22942   7.072   6.647   2.947 -0.2663  0.3679  0.1414
39462SOL    HW122943   7.092   6.708   2.876  0.4105  0.6978  0.5951
39462SOL    HW222944   7.082   6.700   3.027  0.8252 -0.4354  0.5679
39463SOL     OW22945   3.285  10.203  11.533 -0.6708  0.7658 -0.3464
39463SOL    HW122946   3.319  10.291  11.520  0.7010  0.2948 -0.1406
39463SOL    HW222947   3.361  10.146  11.522 -1.0060 -0.2272  1.8285
39464SOL     OW22948   8.030  11.583  10.834  0.0611  0.2663 -0.1716
39464SOL    HW122949   8.007  11.551  10.747 -2.0914  0.9748  0.0598
39464SOL    HW222950   7.984  11.523  10.894  1.4665 -0.1775  0.5007
39465SOL     OW22951   9.902   3.823   6.857 -0.3036  0.0381 -0.0337
39465SOL    HW122952   9.828   3.776   6.896 -0.5271 -0.6289 -1.2282
39465SOL    HW222953   9.979   3.785   6.899 -0.6161  1.3030  1.8307
39466SOL     OW22954   6.836   8.909   3.053 -0.0637  0.2943  0.8915
39466SOL    HW122955   6.894   8.851   3.003  0.7430  0.2007  1.9026
39466SOL    HW222956   6.759   8.920   2.997  1.3881  1.3428 -1.0533
39467SOL     OW22957   4.611   8.933   7.383  0.0504 -0.5453 -0.1730
39467SOL    HW122958   4.702   8.906   7.373  0.6455  0.8328  1.0994
39467SOL    HW222959   4.610   8.985   7.463 -1.7973 -0.2351 -0.3513
39468SOL     OW22960   6.634  11.897  10.848 -0.4089  0.1399 -0.2361
39468SOL    HW122961   6.590  11.928  10.769 -0.2883  0.7102 -0.0870
39468SOL    HW222962   6.667  11.810  10.825  1.5281  1.1269 -1.5592
39469SOL     OW22963   0.908   0.477   2.354 -0.3818  0.1668  0.3082
39469SOL    HW122964   0.850   0.492   2.279 -0.3627  3.3815  0.7655
39469SOL    HW222965   0.993   0.511   2.326  0.3606 -1.1255  0.8981
39470SOL     OW22966   5.825   1.945   7.928 -0.1747 -0.7288 -0.2400
39470SOL    HW122967   5.810   2.032   7.890 -2.2557 -0.0004  1.9581
39470SOL    HW222968   5.757   1.890   7.888 -0.8738 -0.5283  0.6344
39471SOL     OW22969   3.282   3.280   3.010  0.1181 -0.6768 -0.2608
39471SOL    HW122970   3.270   3.370   3.041  0.9804 -0.6793  0.0976
39471SOL    HW222971   3.374   3.261   3.025  0.0142 -1.5212 -0.6183
39472SOL     OW22972   8.893   7.700   2.841  0.0295  0.1872  0.4325
39472SOL    HW122973   8.857   7.735   2.760  2.8959  1.5142 -0.4035
39472SOL    HW222974   8.861   7.609   2.845 -1.9841  0.7816 -0.9578
39473SOL     OW22975   2.441   2.420   9.376 -0.5137 -0.5103  0.3051
39473SOL    HW122976   2.498   2.478   9.426 -0.9308 -0.2378  0.4731
39473SOL    HW222977   2.359   2.468   9.367  0.2193  0.4107 -2.5671
39474SOL     OW22978   9.242   3.975   5.336 -0.1433  0.2405 -0.0428
39474SOL    HW122979   9.198   3.909   5.283  0.6690  0.9522 -1.6807
39474SOL    HW222980   9.274   4.040   5.272  0.9704  1.0898  1.3095
39475SOL     OW22981   0.460   8.413   1.574  0.7872  0.1216 -0.4728
39475SOL    HW122982   0.478   8.319   1.571 -1.1679 -0.3276  0.3547
39475SOL    HW222983   0.380   8.424   1.523 -0.5807  0.8823  1.7320
39476SOL     OW22984   6.615   7.243   5.207 -0.4129  0.2037 -0.4053
39476SOL    HW122985   6.621   7.264   5.113  1.0409 -1.3245 -0.6985
39476SOL    HW222986   6.584   7.153   5.209  0.9576 -0.2746  0.5080
39477SOL     OW22987  11.720   1.215   3.845  0.3163  0.0365  0.4810
39477SOL    HW122988  11.743   1.293   3.793  1.4940 -0.1426  0.6897
39477SOL    HW222989  11.789   1.210   3.912  0.8097 -1.7273 -0.1149
39478SOL     OW22990   7.784   8.963  11.355 -0.0265  0.0302  0.1361
39478SOL    HW122991   7.847   8.914  11.303  1.0430  0.8037  0.6461
39478SOL    HW222992   7.825   8.969  11.442 -1.6982 -1.1266  1.0663
39479SOL     OW22993   8.398   3.364   1.457 -0.4617 -0.1274 -0.1550
39479SOL    HW122994   8.417   3.457   1.473  0.5493 -0.6967  2.5313
39479SOL    HW222995   8.389   3.357   1.362  1.5285  2.3499 -0.6361
39480SOL     OW22996   6.543   3.658   7.256 -0.0219  0.3214  0.4893
39480SOL    HW122997   6.492   3.624   7.329 -0.2580  2.0815  1.1919
39480SOL    HW222998   6.478   3.677   7.188  0.3017 -2.2894 -0.6439
39481SOL     OW22999   7.459   4.162   8.841  0.4345  0.3382 -0.2812
39481SOL    HW123000   7.514   4.219   8.787 -0.1347  1.5265  0.3384
39481SOL    HW223001   7.521   4.119   8.900  0.9042  0.1251 -0.9172
39482SOL     OW23002  11.514   1.558   3.657  0.3414  0.3592 -0.5864
39482SOL    HW123003  11.476   1.495   3.719  2.2241  1.5807  2.0281
39482SOL    HW223004  11.440   1.609   3.626 -1.0043 -1.9635 -1.4348
39483SOL     OW23005  12.036   0.078   1.542  0.2715  0.3044  0.1407
39483SOL    HW123006  11.940   0.080   1.535  0.2924 -0.9610 -0.9795
39483SOL    HW223007  12.059   0.163   1.579 -1.3178  0.4337  0.9117
39484SOL     OW23008  11.645   9.955   2.376  0.0183  0.1172 -0.2601
39484SOL    HW123009  11.711   9.924   2.437 -0.8756 -3.0120 -0.6903
39484SOL    HW223010  11.587  10.010   2.428  0.2397 -1.1056  1.3471
39485SOL     OW23011  10.492  11.675  10.394  1.4464 -0.6701  0.4655
39485SOL    HW123012  10.477  11.754  10.342 -3.3353 -2.1484 -0.9397
39485SOL    HW223013  10.473  11.703  10.484 -1.4491 -0.2992 -0.1620
39486SOL     OW23014   9.590   2.782   4.164  0.2215  0.0585  0.4481
39486SOL    HW123015   9.636   2.844   4.221  1.0318 -0.9196  0.8933
39486SOL    HW223016   9.637   2.787   4.081  0.3949 -0.0728  0.5367
39487SOL     OW23017   0.428  11.313   0.426 -0.1004  0.3294 -0.4724
39487SOL    HW123018   0.472  11.379   0.480  0.7175  0.0693 -0.8026
39487SOL    HW223019   0.355  11.359   0.386 -0.8248  0.4920  0.9789
39488SOL     OW23020   5.228   3.251   7.089  0.0454 -0.4326 -0.5005
39488SOL    HW123021   5.217   3.198   7.009  0.3940  0.1938 -0.9712
39488SOL    HW223022   5.189   3.197   7.158 -1.2213 -0.5495 -1.2565
39489SOL     OW23023   9.418  11.620   1.338 -0.4757 -0.4198  0.3428
39489SOL    HW123024   9.502  11.590   1.306  0.0108  1.5022 -0.3444
39489SOL    HW223025   9.353  11.569   1.289  0.2654 -1.4477  0.4017
39490SOL     OW23026   3.953   1.007   6.890 -0.2873  0.2990 -0.3471
39490SOL    HW123027   3.974   1.080   6.948 -0.0627  1.2000 -1.5232
39490SOL    HW223028   3.931   0.935   6.949  0.8365  0.9033  0.8673
39491SOL     OW23029   8.698   1.807  10.124 -0.0870 -0.3299 -0.5309
39491SOL    HW123030   8.609   1.775  10.138  0.1005 -0.2054  1.1814
39491SOL    HW223031   8.742   1.795  10.208  0.6336  2.4045 -0.4184
39492SOL     OW23032   1.422   5.041   6.783  0.1912 -0.7766  0.3459
39492SOL    HW123033   1.330   5.062   6.766  0.7199  3.2733  1.2794
39492SOL    HW223034   1.423   4.947   6.801 -3.5252 -1.2053 -0.8311
39493SOL     OW23035   0.950   0.134   4.178 -0.1344 -0.6230 -0.6546
39493SOL    HW123036   1.002   0.176   4.110  1.7300  0.0054  1.0496
39493SOL    HW223037   0.862   0.170   4.168  0.4359  0.4937 -1.8455
39494SOL     OW23038  11.026   5.653   1.994  0.1725  0.1520 -0.2220
39494SOL    HW123039  10.982   5.572   2.018  0.7803  0.2245  1.3011
39494SOL    HW223040  10.963   5.722   2.014  0.3360  0.1519  0.3201
39495SOL     OW23041   5.721   4.555   0.499 -0.3028  0.2861 -0.0642
39495SOL    HW123042   5.715   4.459   0.499  0.1555  0.2414 -0.9913
39495SOL    HW223043   5.634   4.585   0.525 -0.5974 -0.3824 -0.2633
39496SOL     OW23044   8.002   2.255  10.028 -0.4965 -0.2795  0.1022
39496SOL    HW123045   7.951   2.287   9.953  0.6818 -0.1286 -0.6570
39496SOL    HW223046   7.944   2.192  10.071 -1.1461 -0.4593 -1.0025
39497SOL     OW23047   8.067   5.342   8.162 -0.2914  0.4456 -0.2019
39497SOL    HW123048   8.063   5.428   8.203 -0.9835  0.3019  0.0419
39497SOL    HW223049   8.159   5.332   8.136 -0.2415  1.3218 -0.3882
39498SOL     OW23050  11.185   9.395   7.226  0.2473 -0.1537  0.2156
39498SOL    HW123051  11.105   9.351   7.199  0.8328 -1.0123 -0.1512
39498SOL    HW223052  11.209   9.354   7.308  0.8431 -0.5819 -0.1704
39499SOL     OW23053   5.113  11.282  11.203 -1.1055 -0.0687 -0.4687
39499SOL    HW123054   5.142  11.345  11.137  1.8835 -1.3621 -0.5473
39499SOL    HW223055   5.122  11.328  11.286  0.6275 -0.1774 -0.5603
39500SOL     OW23056   6.307   8.405   5.429  0.6915 -0.6767 -0.3014
39500SOL    HW123057   6.282   8.353   5.505  0.7923 -0.6345 -0.2380
39500SOL    HW223058   6.402   8.418   5.440  0.9878 -1.8798 -1.1688
39501SOL     OW23059   1.977  11.629  12.030  0.0192  0.0434 -0.2880
39501SOL    HW123060   2.054  11.685  12.019  0.4103 -0.1305  1.3981
39501SOL    HW223061   2.004  11.562  12.092 -1.0986 -0.7968 -0.6840
39502SOL     OW23062   2.671   1.406   7.596  0.4542  0.4052  0.2449
39502SOL    HW123063   2.679   1.458   7.676  1.1256  1.5849 -0.5603
39502SOL    HW223064   2.755   1.362   7.588  1.2441  2.0245 -0.9428
39503SOL     OW23065   2.231   9.662  10.508 -0.4685 -0.0005  0.7215
39503SOL    HW123066   2.178   9.683  10.585 -1.4082  0.0855  0.0726
39503SOL    HW223067   2.320   9.688  10.532 -0.1790 -2.4633  2.8068
39504SOL     OW23068   0.494   3.579  10.823 -0.1445  0.2634 -0.0023
39504SOL    HW123069   0.426   3.647  10.830 -0.9657 -0.3575 -1.6324
39504SOL    HW223070   0.448   3.497  10.842  0.1948 -0.1438 -0.9242
39505SOL     OW23071   6.137  11.326   1.801  0.0916 -0.4261  0.1065
39505SOL    HW123072   6.142  11.233   1.782  0.4724 -0.3238 -0.3084
39505SOL    HW223073   6.195  11.367   1.737 -0.6247  0.1587 -0.1918
39506SOL     OW23074   9.223   1.972   2.279 -0.4968  0.4347  0.4679
39506SOL    HW123075   9.265   1.892   2.249 -2.1316 -0.2522 -0.1193
39506SOL    HW223076   9.293   2.037   2.281  0.8821 -1.0038  1.0114
39507SOL     OW23077   5.934   6.217   4.213  0.3830 -0.2853 -0.1440
39507SOL    HW123078   5.948   6.208   4.307 -1.1494 -2.1748 -0.0430
39507SOL    HW223079   6.000   6.160   4.173  1.0056  0.4837 -0.2513
39508SOL     OW23080   2.054  10.577   7.724  0.1778  0.8796  0.0378
39508SOL    HW123081   2.118  10.559   7.792 -0.3066  0.9846  0.5306
39508SOL    HW223082   2.024  10.666   7.742 -1.0463  0.3722  0.5979
39509SOL     OW23083   8.979   3.228   5.903  0.4183 -0.2063 -0.2198
39509SOL    HW123084   8.921   3.273   5.842  1.0122 -1.2590 -1.6281
39509SOL    HW223085   9.050   3.290   5.918  0.2848  0.0600 -0.6498
39510SOL     OW23086   0.086   9.166   6.603  0.1965 -0.0056  0.1908
39510SOL    HW123087   0.103   9.221   6.527  2.9205 -0.6801  0.2008
39510SOL    HW223088   0.046   9.086   6.567  1.0058 -0.1163 -0.4793
39511SOL     OW23089   9.400   1.292   5.770  0.6650 -0.0108  0.1027
39511SOL    HW123090   9.441   1.375   5.748 -0.0387  0.8157  1.6733
39511SOL    HW223091   9.472   1.234   5.794  1.1236  0.3130 -0.4874
39512SOL     OW23092   3.672   7.938   4.537  0.1812 -0.2926 -0.1320
39512SOL    HW123093   3.657   7.871   4.470 -0.7859  0.1775 -0.4015
39512SOL    HW223094   3.661   8.021   4.491 -1.3349  0.0375  0.7705
39513SOL     OW23095  11.128   9.333   0.248 -0.0660 -0.1990  0.1831
39513SOL    HW123096  11.141   9.274   0.323  1.0082  0.1489  0.2889
39513SOL    HW223097  11.070   9.402   0.281  1.4324  0.6589  1.1100
39514SOL     OW23098   4.850  11.649  12.036 -0.1524 -0.2742  0.1657
39514SOL    HW123099   4.881  11.581  12.096  1.1954 -0.0549 -0.2638
39514SOL    HW223100   4.768  11.679  12.076 -1.2960 -2.7708 -0.1318
39515SOL     OW23101   7.337   6.715   4.999 -0.4150  0.3633 -0.6087
39515SOL    HW123102   7.384   6.777   5.054  0.5993  0.8492 -1.9821
39515SOL    HW223103   7.269   6.767   4.957 -0.6156  0.1849 -0.5093
39516SOL     OW23104   9.948  11.732  10.089  0.0471  0.1514 -0.2461
39516SOL    HW123105  10.029  11.684  10.104 -0.0673  0.0162 -0.0651
39516SOL    HW223106   9.950  11.754   9.995  0.1408 -0.1304 -0.3103
39517SOL     OW23107   4.428   3.932  11.353 -0.1025  0.0992 -0.3471
39517SOL    HW123108   4.470   3.990  11.417 -2.1739 -0.2640  1.4730
39517SOL    HW223109   4.343   3.974  11.335 -1.6288 -2.2043  0.9740
39518SOL     OW23110  10.162   6.857   5.414 -0.1258  0.3558 -0.0416
39518SOL    HW123111  10.245   6.851   5.366 -0.7020  0.6240 -1.1041
39518SOL    HW223112  10.187   6.851   5.506  1.1409  1.0480 -0.3190
39519SOL     OW23113  10.238   5.512   2.957 -0.0196 -0.3599  0.3212
39519SOL    HW123114  10.306   5.537   3.020 -0.8741 -0.1037  1.1552
39519SOL    HW223115  10.278   5.531   2.872  0.7488  0.3258  0.8081
39520SOL     OW23116   3.958  11.252   2.003 -0.1845 -0.3838  0.2327
39520SOL    HW123117   3.902  11.207   1.940 -1.7954  0.8493  0.6991
39520SOL    HW223118   3.954  11.198   2.082  0.7412 -1.2146 -0.2641
39521SOL     OW23119   3.078   3.180   4.020 -0.0383  1.0678 -0.3394
39521SOL    HW123120   3.148   3.151   4.078 -0.7367  0.1458  0.0833
39521SOL    HW223121   3.057   3.268   4.050 -0.5826  0.4978  1.0318
39522SOL     OW23122   0.155   3.997  10.881 -0.3275  0.9845  0.2151
39522SOL    HW123123   0.095   4.045  10.825  1.2258  1.6249 -0.9805
39522SOL    HW223124   0.228   4.057  10.896  1.0220 -0.4736 -0.1507
39523SOL     OW23125   4.938   3.003   7.649 -0.4420  0.4384 -0.3620
39523SOL    HW123126   4.887   2.993   7.569 -0.8822 -2.1793  0.1423
39523SOL    HW223127   4.904   2.934   7.707  1.9307  0.2755  0.9352
39524SOL     OW23128   3.979   2.886   6.571  0.2288  0.2129 -0.3748
39524SOL    HW123129   3.906   2.939   6.541 -0.1825 -0.3759 -0.4392
39524SOL    HW223130   4.056   2.942   6.561 -0.3077  1.1254  0.4458
39525SOL     OW23131   7.435  10.679   5.763  0.5135 -0.5609  0.1817
39525SOL    HW123132   7.394  10.601   5.728  1.8337 -0.3501 -2.0627
39525SOL    HW223133   7.372  10.749   5.746 -0.0757 -0.8897  0.9334
39526SOL     OW23134  11.385   9.042  10.894 -0.0335  0.0968 -0.3329
39526SOL    HW123135  11.402   8.952  10.919 -2.1066  0.2252  1.9329
39526SOL    HW223136  11.381   9.040  10.798 -0.0097 -2.1926 -0.3369
39527SOL     OW23137  11.258   7.711   5.394 -0.1334  0.1932 -0.7530
39527SOL    HW123138  11.291   7.758   5.470  1.0069  0.6700 -1.5037
39527SOL    HW223139  11.192   7.770   5.356 -0.3516  0.1693 -0.4082
39528SOL     OW23140  11.958   4.937   1.291 -0.1453 -0.2295 -0.4635
39528SOL    HW123141  11.866   4.964   1.282 -0.2999 -1.0436 -1.4976
39528SOL    HW223142  11.957   4.871   1.360 -0.0973  0.8299  0.5672
39529SOL     OW23143   6.325   5.264   1.878 -0.6264  0.4659  0.3344
39529SOL    HW123144   6.304   5.325   1.948 -0.9251 -0.0430  0.6980
39529SOL    HW223145   6.323   5.316   1.798  0.4449  1.2243  0.7695
39530SOL     OW23146   9.634   0.268   2.959  0.1562  0.2325 -0.0624
39530SOL    HW123147   9.588   0.336   3.008  0.3752  1.4169 -1.4211
39530SOL    HW223148   9.567   0.233   2.899 -0.5419 -2.2802  2.0096
39531SOL     OW23149   3.060   8.032   3.156  0.4627 -0.1481 -0.5816
39531SOL    HW123150   2.994   8.098   3.133  0.9696  0.5361 -0.0906
39531SOL    HW223151   3.143   8.070   3.130  1.0729  0.6290  2.1622
39532SOL     OW23152   9.835  12.055   1.812  0.7028  0.4343 -0.0329
39532SOL    HW123153   9.776  12.117   1.770  0.6948  0.4434 -0.0077
39532SOL    HW223154   9.876  12.008   1.739 -0.3037 -0.4830 -0.0348
39533SOL     OW23155   2.668   4.087   4.003 -0.5662  0.0144  0.0717
39533SOL    HW123156   2.620   4.005   4.012  1.2727 -0.9927  1.4564
39533SOL    HW223157   2.712   4.081   3.919  1.0229 -1.3006  0.9502
39534SOL     OW23158   1.934   5.645   7.323 -0.0085  0.5433 -0.0894
39534SOL    HW123159   1.890   5.574   7.369 -0.4472  1.5548  1.1182
39534SOL    HW223160   1.862   5.698   7.288  0.2925  0.8626 -0.2273
39535SOL     OW23161  11.500   4.958  11.777  0.3690 -0.1992 -0.2192
39535SOL    HW123162  11.449   4.881  11.750  1.2715 -1.0539  0.4363
39535SOL    HW223163  11.505   5.012  11.698  0.0185 -0.9825 -0.7891
39536SOL     OW23164   9.357   0.450  11.659 -0.6329  0.2310 -0.3954
39536SOL    HW123165   9.445   0.444  11.696  0.1147  0.4155 -2.0505
39536SOL    HW223166   9.339   0.544  11.655 -0.0150  0.3153 -1.9624
39537SOL     OW23167   4.210   1.916  12.024  0.1115 -0.0327 -0.3496
39537SOL    HW123168   4.238   1.841  11.972 -0.2863 -1.5758  1.5793
39537SOL    HW223169   4.241   1.898  12.113 -0.1744  1.9917  0.2228
39538SOL     OW23170   0.545   8.704  11.089 -0.3421  0.2094 -0.2476
39538SOL    HW123171   0.615   8.661  11.139  0.0711  0.7190 -0.3726
39538SOL    HW223172   0.464   8.674  11.131  0.0045  1.4870  1.4772
39539SOL     OW23173   8.472   8.253   9.410  0.6271  0.4781  0.5364
39539SOL    HW123174   8.435   8.280   9.494 -1.2832 -1.8882  0.5513
39539SOL    HW223175   8.397   8.228   9.357  1.9586 -0.5205 -0.9683
39540SOL     OW23176   2.097   7.482  10.787  0.0341 -0.5877 -0.2086
39540SOL    HW123177   2.010   7.487  10.746  0.0886  1.4123 -0.1676
39540SOL    HW223178   2.079   7.481  10.881  0.0298  0.2508 -0.1866
39541SOL     OW23179   8.185   6.769   0.397  0.1517  0.0749 -0.5749
39541SOL    HW123180   8.153   6.732   0.480 -0.4832  1.4086 -0.2076
39541SOL    HW223181   8.135   6.849   0.386  2.8158  1.8991 -0.3660
39542SOL     OW23182   8.180   6.743   3.717  0.6338  0.1711 -0.0564
39542SOL    HW123183   8.123   6.675   3.681  2.6052 -0.3501 -2.4786
39542SOL    HW223184   8.145   6.825   3.684  1.2043 -0.1442 -1.5066
39543SOL     OW23185   5.453  11.918   9.535 -0.4365 -0.1214  0.3723
39543SOL    HW123186   5.485  12.008   9.547 -0.1988 -0.1290 -0.1930
39543SOL    HW223187   5.358  11.926   9.541 -0.3719 -0.0547  1.7838
39544SOL     OW23188   1.946   1.689   6.076 -0.0628 -0.3611 -0.2303
39544SOL    HW123189   1.955   1.663   6.168  0.0635 -0.3555 -0.2403
39544SOL    HW223190   1.862   1.735   6.072  0.3687  0.4711  0.0791
39545SOL     OW23191   7.312   0.765  11.572  0.7084  0.4369 -0.5290
39545SOL    HW123192   7.250   0.692  11.570  0.0132  0.9560  0.6204
39545SOL    HW223193   7.283   0.818  11.647  1.9731  1.2058 -0.5624
39546SOL     OW23194   0.589   0.115   5.323  0.8074  0.3429 -0.0747
39546SOL    HW123195   0.621   0.026   5.335  1.0911  0.5503  0.7677
39546SOL    HW223196   0.580   0.150   5.412 -0.7292  0.6641 -0.3357
39547SOL     OW23197   5.240   2.789   0.599 -0.2839  0.1057 -0.3733
39547SOL    HW123198   5.169   2.735   0.566  0.7379 -0.8603 -1.0389
39547SOL    HW223199   5.318   2.759   0.553  0.8198  0.1928  1.3251
39548SOL     OW23200   3.221  11.703   0.664 -0.6141  0.5104  0.0661
39548SOL    HW123201   3.248  11.663   0.747  1.3008 -0.9298 -1.1454
39548SOL    HW223202   3.170  11.635   0.621 -1.5233  1.2223 -0.0025
39549SOL     OW23203   5.945   5.030   6.900  0.2563 -0.5159  0.3883
39549SOL    HW123204   5.970   4.972   6.971  0.2710 -2.1943 -0.9366
39549SOL    HW223205   5.979   5.116   6.927  2.6750 -1.6190  1.1747
39550SOL     OW23206   7.085   8.985   1.555  0.6261  0.2801 -0.1209
39550SOL    HW123207   7.129   9.031   1.627  1.1681  0.8309 -0.7820
39550SOL    HW223208   7.152   8.979   1.486  0.2043 -0.4747 -0.4837
39551SOL     OW23209   5.670  12.093   0.111  0.1411  0.4215  0.0700
39551SOL    HW123210   5.642  12.069   0.200 -1.3951 -0.1827 -0.5521
39551SOL    HW223211   5.716  12.177   0.123  1.1515 -0.2910  1.5981
39552SOL     OW23212   3.974  10.200   9.771  0.4270 -0.2336  0.0732
39552SOL    HW123213   4.019  10.135   9.717  0.2771 -0.9312  0.7679
39552SOL    HW223214   4.035  10.273   9.777  0.0597  0.2966 -1.8501
39553SOL     OW23215  10.578  11.943  11.628 -0.1204 -0.0936 -0.8882
39553SOL    HW123216  10.662  11.931  11.673 -0.1836  0.0006 -0.7450
39553SOL    HW223217  10.525  11.995  11.688 -0.1002  0.2943 -1.2039
39554SOL     OW23218   6.005   0.149  11.313  0.3349  0.0257 -0.0967
39554SOL    HW123219   6.003   0.235  11.354 -0.1535  0.5844 -1.2240
39554SOL    HW223220   5.915   0.134  11.284  0.3951 -0.9030  0.1472
39555SOL     OW23221   0.064   3.900   3.677  0.4262  0.0410 -0.0316
39555SOL    HW123222   0.043   3.927   3.766  0.9230 -1.4617  0.5774
39555SOL    HW223223  -0.004   3.837   3.655  1.6918 -1.5132  0.2841
39556SOL     OW23224  11.863   5.885   2.303  0.0809  0.1301  0.5431
39556SOL    HW123225  11.842   5.911   2.213  2.8387  0.5328 -0.0608
39556SOL    HW223226  11.861   5.967   2.353  0.4930  0.2035  0.4368
39557SOL     OW23227   2.743   8.368  10.285  0.4094  0.3229  1.0241
39557SOL    HW123228   2.829   8.382  10.246  0.2267 -1.5077 -0.1544
39557SOL    HW223229   2.757   8.301  10.352 -0.5446 -2.4989 -1.4129
39558SOL     OW23230   7.130   6.528   5.102  0.8859  0.0899 -0.2102
39558SOL    HW123231   7.213   6.553   5.142  0.1263  0.0268  1.5043
39558SOL    HW223232   7.083   6.483   5.172 -0.4448 -0.2028 -1.2616
39559SOL     OW23233   9.086   6.171   9.086  0.1271 -0.0989 -0.5018
39559SOL    HW123234   9.011   6.127   9.046  0.2958 -0.7173 -0.1463
39559SOL    HW223235   9.156   6.162   9.021 -0.2577  0.9886 -1.0866
39560SOL     OW23236   1.030   8.916   1.220 -0.1711 -0.6125  0.2212
39560SOL    HW123237   0.969   8.904   1.147  1.2007 -2.4831 -0.6913
39560SOL    HW223238   1.000   8.854   1.286 -0.1829 -0.3940  0.4228
39561SOL     OW23239   2.928   9.522   0.906 -0.1065 -0.8795  0.4762
39561SOL    HW123240   2.843   9.541   0.946  0.1499  2.6560 -0.3447
39561SOL    HW223241   2.907   9.504   0.814  0.0254  1.5441 -0.1005
39562SOL     OW23242   1.081   7.209   0.528  0.4444  0.2021 -0.1177
39562SOL    HW123243   1.011   7.241   0.585  0.6884 -1.4316  1.1891
39562SOL    HW223244   1.037   7.189   0.446 -0.0595  1.9061 -0.2890
39563SOL     OW23245   6.577   8.553   3.223  0.1502  0.2970  0.2294
39563SOL    HW123246   6.612   8.640   3.205  0.7775 -0.0187 -0.1089
39563SOL    HW223247   6.653   8.494   3.215  0.1448 -0.0697  2.2914
39564SOL     OW23248   6.300   3.559   6.033 -0.4207 -0.3867  0.3733
39564SOL    HW123249   6.383   3.602   6.052 -1.4872  2.0449 -0.0877
39564SOL    HW223250   6.315   3.467   6.054  2.4704 -0.0924 -0.0405
39565SOL     OW23251   3.008   3.318   1.647 -0.0273  0.1252 -0.6998
39565SOL    HW123252   2.943   3.334   1.578 -1.5443 -3.1173 -0.1878
39565SOL    HW223253   2.956   3.318   1.728  0.6472 -2.0223 -0.2272
39566SOL     OW23254   4.788   9.313   3.445 -0.6694 -0.1611 -0.5116
39566SOL    HW123255   4.712   9.335   3.498 -0.5609  1.4749 -0.9741
39566SOL    HW223256   4.752   9.300   3.357 -0.1442  4.1246 -1.5504
39567SOL     OW23257   3.919   4.283   0.305 -0.3107 -0.1825  0.6579
39567SOL    HW123258   3.954   4.282   0.395 -1.1810 -0.3710  1.0068
39567SOL    HW223259   3.847   4.346   0.309 -0.4846 -0.3530  0.1376
39568SOL     OW23260   2.398  10.705   0.017 -0.1886 -0.2667  0.2775
39568SOL    HW123261   2.479  10.684  -0.029  0.4690  2.3752  0.0169
39568SOL    HW223262   2.396  10.645   0.091  2.4535  0.0380  0.7215
39569SOL     OW23263   7.502   0.839  10.212 -0.1750  0.3558 -0.1905
39569SOL    HW123264   7.569   0.878  10.268  0.9335 -1.0773 -0.4709
39569SOL    HW223265   7.458   0.774  10.267  0.4727 -0.5858 -0.7472
39570SOL     OW23266   5.547  10.191   7.379 -0.1976 -0.2857 -0.2137
39570SOL    HW123267   5.479  10.175   7.444 -1.1257 -1.9601 -1.5032
39570SOL    HW223268   5.515  10.265   7.328 -0.1117  0.1576  0.3599
39571SOL     OW23269   9.800   1.748   5.680  0.2283 -0.7846 -0.3303
39571SOL    HW123270   9.807   1.731   5.774 -0.5267 -0.4027 -0.1962
39571SOL    HW223271   9.784   1.663   5.641 -0.3297 -0.8294 -0.0145
39572SOL     OW23272   7.309   3.088  10.193 -0.0435  0.6557 -0.2235
39572SOL    HW123273   7.341   3.057  10.109  1.2059  2.5122 -0.4804
39572SOL    HW223274   7.218   3.060  10.196  0.3037 -0.7281 -1.5188
39573SOL     OW23275   2.286   3.258   5.748 -0.3935  0.4200 -0.2240
39573SOL    HW123276   2.257   3.329   5.690  1.1034 -0.4105 -2.0838
39573SOL    HW223277   2.238   3.181   5.719  0.0793  0.0715 -0.0909
39574SOL     OW23278   1.721  10.639   1.874  0.4158  0.1126  0.3196
39574SOL    HW123279   1.767  10.627   1.791  0.1947  0.1412  0.1902
39574SOL    HW223280   1.652  10.703   1.854  1.6017  1.6627  1.0153
39575SOL     OW23281   1.189   2.328   9.070 -0.1816  0.8533  0.0857
39575SOL    HW123282   1.214   2.398   9.130 -1.3234  0.6997  0.7722
39575SOL    HW223283   1.267   2.312   9.017  0.3069  2.1704  0.3796
39576SOL     OW23284   2.951   1.406   9.251 -0.0032  0.1705 -0.1694
39576SOL    HW123285   3.027   1.457   9.225 -0.6362  1.2298 -0.0290
39576SOL    HW223286   2.968   1.318   9.219  0.2408  0.9073 -2.1828
39577SOL     OW23287  11.994  12.031   4.379 -0.1524 -0.1022  0.3192
39577SOL    HW123288  11.903  12.020   4.348  0.1749  1.2328 -1.2615
39577SOL    HW223289  11.985  12.044   4.474 -1.7157  0.8374  0.0975
39578SOL     OW23290   7.687   4.470   7.385 -0.4022  0.1467  0.0732
39578SOL    HW123291   7.602   4.482   7.427  0.3976 -0.7984  2.1332
39578SOL    HW223292   7.727   4.557   7.386 -1.3577  0.6350 -1.0682
39579SOL     OW23293   7.213   1.063   8.748  0.2359  0.1805  0.1435
39579SOL    HW123294   7.254   1.093   8.667  0.8148 -1.2014 -0.1016
39579SOL    HW223295   7.161   0.987   8.722  1.4395 -1.0721  1.2458
39580SOL     OW23296   4.189   8.960   2.685  0.4400 -0.1447 -0.0221
39580SOL    HW123297   4.237   8.957   2.768  1.4501 -1.9853 -0.6017
39580SOL    HW223298   4.101   8.930   2.707  0.5938 -0.2571  0.4598
39581SOL     OW23299   2.216   9.608   3.782 -0.5217 -0.8740 -0.4995
39581SOL    HW123300   2.180   9.588   3.696 -0.1806 -1.0288 -0.6064
39581SOL    HW223301   2.258   9.527   3.810  0.0508 -0.5948 -0.5314
39582SOL     OW23302  11.796  11.658   3.575 -0.6084  0.1651 -0.3150
39582SOL    HW123303  11.856  11.667   3.649 -2.6962  2.6131  1.2742
39582SOL    HW223304  11.779  11.564   3.569  0.1335 -0.1749  1.8891
39583SOL     OW23305   5.337  10.116   0.302  0.0928 -1.0119 -0.2659
39583SOL    HW123306   5.310  10.199   0.262  0.5812 -1.0049 -0.5884
39583SOL    HW223307   5.342  10.055   0.229 -0.0162 -1.2628 -0.0641
39584SOL     OW23308   5.175   0.245   1.934  0.4006 -0.2022 -0.2433
39584SOL    HW123309   5.222   0.286   1.862 -0.0439  1.0133  0.1281
39584SOL    HW223310   5.110   0.310   1.961 -0.7822 -1.4131 -0.0396
39585SOL     OW23311   7.117  11.041   5.396  0.3838  0.2504  0.8274
39585SOL    HW123312   7.184  11.102   5.367  0.5571 -0.4142 -0.2215
39585SOL    HW223313   7.166  10.962   5.421 -0.0500 -0.8301 -1.4473
39586SOL     OW23314   6.009   2.680   2.213 -0.7321 -0.3429 -0.6647
39586SOL    HW123315   6.047   2.740   2.149 -1.2207  0.5465 -0.1342
39586SOL    HW223316   6.078   2.616   2.230  0.0912  0.5449 -0.6152
39587SOL     OW23317   4.010   3.225   7.409 -0.2688  0.2496  0.3673
39587SOL    HW123318   3.948   3.170   7.457  0.3208 -1.1423 -0.4106
39587SOL    HW223319   4.094   3.211   7.453 -0.1196  0.5768  0.1944
39588SOL     OW23320   9.362  10.473   7.529  0.2213 -0.0279 -0.1961
39588SOL    HW123321   9.312  10.548   7.495  2.1044  1.2805 -0.2462
39588SOL    HW223322   9.441  10.512   7.565  0.6999 -1.9152  0.9181
39589SOL     OW23323   5.143   8.862   0.951 -0.2423  0.0252 -0.2764
39589SOL    HW123324   5.172   8.953   0.959 -1.4546  0.4984 -1.0118
39589SOL    HW223325   5.050   8.868   0.930 -1.0364 -1.4318  2.3040
39590SOL     OW23326   9.105   9.457  11.968 -0.2877 -0.4249  0.2157
39590SOL    HW123327   9.153   9.384  11.931 -0.6604 -0.9247  0.7074
39590SOL    HW223328   9.119   9.450  12.063  2.1468  1.8728  0.1518
39591SOL     OW23329   4.527   4.738   3.165 -0.5032  0.0680 -0.0138
39591SOL    HW123330   4.619   4.763   3.153 -0.2646 -0.5352  0.4953
39591SOL    HW223331   4.531   4.661   3.222 -1.3414  0.2196  0.2568
39592SOL     OW23332   1.004   2.091   5.171 -0.7876 -0.2326 -0.5567
39592SOL    HW123333   0.953   2.010   5.176 -0.1347 -0.7222 -1.6578
39592SOL    HW223334   0.951   2.150   5.116  0.0337 -0.9156 -2.1197
39593SOL     OW23335   4.915  12.122   9.562  0.0014 -0.4492 -0.7098
39593SOL    HW123336   4.826  12.100   9.588  0.0548 -0.0086 -0.1195
39593SOL    HW223337   4.906  12.164   9.477 -0.2743 -1.1119 -1.0132
39594SOL     OW23338   1.086  10.355  10.757  0.3916  0.6813 -0.4296
39594SOL    HW123339   1.011  10.297  10.753  0.1470  0.8354  1.2953
39594SOL    HW223340   1.072  10.418  10.687 -0.1942 -0.3116 -1.2239
39595SOL     OW23341   3.103   0.943   0.624 -0.1422  0.3915  0.8662
39595SOL    HW123342   3.194   0.953   0.650  0.1257 -0.2248  0.2009
39595SOL    HW223343   3.100   0.861   0.575 -1.3538 -0.3799  2.1626
39596SOL     OW23344   5.400   8.896   9.426 -0.2319 -0.0096 -0.3682
39596SOL    HW123345   5.384   8.840   9.502 -0.0033  0.5864  0.1274
39596SOL    HW223346   5.316   8.940   9.412  0.1812  1.1520  0.6081
39597SOL     OW23347   9.748   9.318   7.586 -0.0752  0.8359  0.5875
39597SOL    HW123348   9.674   9.260   7.606  0.3170  0.7031  1.7092
39597SOL    HW223349   9.825   9.268   7.613  0.3853  1.2398  0.0437
39598SOL     OW23350   7.393   1.196   7.943 -0.0436  0.3811  0.2874
39598SOL    HW123351   7.434   1.159   8.021  0.2361  1.8020  0.8579
39598SOL    HW223352   7.466   1.224   7.888 -0.2353 -0.6886 -0.5590
39599SOL     OW23353   7.995   4.391   6.111 -0.0812  0.2484 -0.0699
39599SOL    HW123354   8.068   4.393   6.049  0.2291  2.1280  0.3202
39599SOL    HW223355   7.922   4.356   6.060  0.1854  1.6999 -1.5202
39600SOL     OW23356   9.049   7.196   9.528  0.5202  0.2870  0.4352
39600SOL    HW123357   8.978   7.140   9.498 -0.6769  2.2948 -0.7472
39600SOL    HW223358   9.016   7.285   9.515  3.6517  1.3620 -1.3139
39601SOL     OW23359   6.072  11.012   8.556 -0.2807  0.1886  0.4414
39601SOL    HW123360   6.013  10.975   8.621 -0.6179  0.8358  0.5113
39601SOL    HW223361   6.138  11.061   8.606 -0.7787  1.0332  0.2979
39602SOL     OW23362   7.940   8.485  10.274 -0.2284  0.1333  0.3170
39602SOL    HW123363   7.960   8.398  10.238 -1.0540 -0.2462  0.7423
39602SOL    HW223364   7.961   8.546  10.203 -0.8729 -0.5159 -0.4547
39603SOL     OW23365  10.936   7.188   4.082  0.0028  0.1258  0.2084
39603SOL    HW123366  10.957   7.115   4.023 -4.2998 -0.2078 -1.2798
39603SOL    HW223367  10.968   7.266   4.036  0.6274 -0.4759 -0.4020
39604SOL     OW23368   0.835   6.589  10.729  0.2378  0.6663 -0.6178
39604SOL    HW123369   0.744   6.591  10.699  0.0670  0.6731 -0.1149
39604SOL    HW223370   0.887   6.612  10.652 -0.2019  0.8603 -0.8569
39605SOL     OW23371   7.441   5.104  10.098 -0.0223  0.5650 -0.5712
39605SOL    HW123372   7.355   5.113  10.056  0.0603  2.6964 -0.4217
39605SOL    HW223373   7.421   5.091  10.191 -0.2623  2.2713 -0.3331
39606SOL     OW23374   5.597   4.483  10.820 -0.6540  0.0524  0.0758
39606SOL    HW123375   5.587   4.397  10.780 -0.2439  0.4322 -0.8948
39606SOL    HW223376   5.656   4.470  10.894  3.8356  0.2537 -3.0819
39607SOL     OW23377   5.535   8.053   5.184 -0.1017 -0.0842 -0.1662
39607SOL    HW123378   5.449   8.092   5.198  0.6503  1.7717 -0.4928
39607SOL    HW223379   5.582   8.065   5.266  0.6442  1.1000 -0.7412
39608SOL     OW23380  10.914   8.910   5.968 -0.1245  0.4160 -0.2247
39608SOL    HW123381  10.965   8.830   5.956  0.0270  0.4017  0.4400
39608SOL    HW223382  10.978   8.974   5.999 -0.2349  0.8101 -0.8026
39609SOL     OW23383   3.462   7.608   2.275 -0.4015  0.1204 -0.1560
39609SOL    HW123384   3.391   7.606   2.210  1.2576  2.4081 -2.2091
39609SOL    HW223385   3.433   7.670   2.341 -0.2692  1.1790 -1.0751
39610SOL     OW23386   4.575   3.825   9.941 -0.3345 -0.1557  0.3522
39610SOL    HW123387   4.667   3.849   9.930  0.5367 -0.9672  4.2606
39610SOL    HW223388   4.532   3.907   9.964 -0.4789  0.0949 -0.7585
39611SOL     OW23389   8.128   3.761   0.314 -0.0892 -0.2425  0.3212
39611SOL    HW123390   8.203   3.740   0.259  0.2239  1.3945  0.0719
39611SOL    HW223391   8.089   3.676   0.335  2.9145 -1.3109  2.0547
39612SOL     OW23392   7.257   7.976   1.642 -0.2695 -0.1576  0.4224
39612SOL    HW123393   7.316   7.901   1.638 -0.2392 -0.2296  1.8844
39612SOL    HW223394   7.191   7.951   1.707 -0.1478  1.1510  1.0673
39613SOL     OW23395   3.313   8.541  10.742  0.1845  0.2950  0.5051
39613SOL    HW123396   3.350   8.626  10.718 -0.3501  0.6136  0.8114
39613SOL    HW223397   3.375   8.505  10.806  0.4964  0.3699  0.2526
39614SOL     OW23398   6.314   7.366   5.233 -0.3900 -0.2426  0.2372
39614SOL    HW123399   6.247   7.432   5.216  0.3846  0.1322 -1.4840
39614SOL    HW223400   6.267   7.283   5.224 -0.4181 -0.0143 -2.1215
39615SOL     OW23401   3.208   3.853  10.011 -0.4187  0.2579  0.2997
39615SOL    HW123402   3.187   3.927   9.954 -0.6297  0.6243  0.8477
39615SOL    HW223403   3.126   3.834  10.056 -0.2683 -0.0725  0.4328
39616SOL     OW23404   8.511   1.574   1.256  0.0596 -0.0329 -0.0481
39616SOL    HW123405   8.481   1.658   1.290 -1.6558 -0.4910 -0.3018
39616SOL    HW223406   8.465   1.564   1.172  0.6594 -0.9749 -0.2869
39617SOL     OW23407  10.724   4.710   3.363  0.0348 -0.2605 -0.0323
39617SOL    HW123408  10.682   4.728   3.279 -0.1942 -0.8126 -0.0386
39617SOL    HW223409  10.805   4.762   3.361  0.4562 -0.9178 -0.9545
39618SOL     OW23410   9.059   9.101   5.801  0.0315  0.2931 -0.2824
39618SOL    HW123411   8.986   9.160   5.781  0.2585  1.2287  1.4666
39618SOL    HW223412   9.129   9.159   5.830  0.0875 -0.8087  1.9740
39619SOL     OW23413   8.018   9.870   5.518 -0.1262  0.3404  0.8387
39619SOL    HW123414   8.000   9.789   5.470 -1.6756  0.0306  1.8597
39619SOL    HW223415   7.966   9.937   5.473  1.9835  1.0727 -0.6761
39620SOL     OW23416  11.623   5.767  10.196 -0.2584  0.1234 -0.0548
39620SOL    HW123417  11.662   5.799  10.278 -1.9077  2.4270 -0.0500
39620SOL    HW223418  11.610   5.846  10.144 -3.4580 -0.6671 -0.6399
39621SOL     OW23419   0.974   3.826   7.147  0.5624  0.0059  0.4204
39621SOL    HW123420   1.063   3.799   7.123  0.7944  0.0529  1.2043
39621SOL    HW223421   0.981   3.853   7.239 -0.4637 -0.9120  0.7794
39622SOL     OW23422   8.875   0.354   2.735 -0.1193  0.2920  0.2957
39622SOL    HW123423   8.922   0.428   2.697 -0.2646  0.8293  1.1449
39622SOL    HW223424   8.939   0.283   2.737  0.8385  1.1384  1.8519
39623SOL     OW23425   0.850   3.714   4.333  0.1894  0.0644 -0.3395
39623SOL    HW123426   0.799   3.642   4.370 -0.3944  0.0410 -1.1593
39623SOL    HW223427   0.848   3.782   4.401  0.1669 -0.4338  0.1607
39624SOL     OW23428  11.527   0.725   6.957  0.1702  0.0812 -0.1564
39624SOL    HW123429  11.497   0.634   6.951 -2.6640  0.9357 -0.7638
39624SOL    HW223430  11.571   0.742   6.874  0.1264 -0.5426 -0.3119
39625SOL     OW23431   4.969   5.908   3.902  0.5799  0.0450 -0.5121
39625SOL    HW123432   5.039   5.958   3.944  1.2524 -1.3832  0.1428
39625SOL    HW223433   4.992   5.817   3.918 -1.2951 -0.4739 -0.5257
39626SOL     OW23434   3.981   2.211   8.678  0.3276  0.1389  0.0650
39626SOL    HW123435   3.978   2.150   8.604 -0.7468  0.2640 -0.0172
39626SOL    HW223436   3.980   2.298   8.637  1.3846  0.2229  0.1934
39627SOL     OW23437   7.769  12.027   6.521  0.1612 -0.7270  0.8429
39627SOL    HW123438   7.768  11.943   6.565  0.9705 -0.1912  1.9388
39627SOL    HW223439   7.678  12.057   6.522 -0.6613 -2.7095 -1.9020
39628SOL     OW23440   0.387   7.961   5.669 -0.0939  0.6782  0.7006
39628SOL    HW123441   0.388   7.937   5.761  0.2387  1.7765  0.9987
39628SOL    HW223442   0.341   8.045   5.667  0.3540  0.9120 -0.0656
39629SOL     OW23443   5.445   2.326   8.348 -0.0081 -0.2605  0.1600
39629SOL    HW123444   5.510   2.290   8.408  0.5550  1.0494  0.3753
39629SOL    HW223445   5.463   2.283   8.264  1.5351  0.4744  0.0668
39630SOL     OW23446   6.501   1.953   4.487 -0.1102 -0.1997  0.0595
39630SOL    HW123447   6.585   1.909   4.473 -0.1128  0.4047 -2.3344
39630SOL    HW223448   6.489   1.951   4.582  1.6885 -1.9602  0.3408
39631SOL     OW23449   4.714   2.545   2.810  0.1623  0.3204 -0.4142
39631SOL    HW123450   4.654   2.502   2.871  0.5848  0.4761  0.1186
39631SOL    HW223451   4.691   2.510   2.724 -0.1443 -0.2323 -0.1073
39632SOL     OW23452   8.194  10.522   1.820 -0.4308 -0.6706  0.2149
39632SOL    HW123453   8.241  10.509   1.903 -0.1072 -0.9046  0.0003
39632SOL    HW223454   8.247  10.586   1.773 -1.4354  0.6505  0.8186
39633SOL     OW23455   3.381   8.908   1.803 -0.4324 -0.2301  0.2544
39633SOL    HW123456   3.467   8.938   1.834 -0.8547  0.0672  1.1562
39633SOL    HW223457   3.387   8.914   1.708 -0.0998  1.5883  0.3620
39634SOL     OW23458   2.887   9.091   2.656 -0.3353 -0.0412 -0.2623
39634SOL    HW123459   2.836   9.058   2.582  0.6757  1.1054 -1.5197
39634SOL    HW223460   2.843   9.171   2.683 -1.0272 -0.7419  0.7996
39635SOL     OW23461   4.311   1.795   4.893 -0.1825 -0.1095  0.5431
39635SOL    HW123462   4.270   1.799   4.806  0.1204  3.1538  0.4424
39635SOL    HW223463   4.402   1.773   4.875  0.4283  2.7040 -0.3094
39636SOL     OW23464   0.170   3.715   3.117 -0.0252 -0.3581 -0.2438
39636SOL    HW123465   0.200   3.760   3.196 -0.6817  1.1955 -0.8375
39636SOL    HW223466   0.122   3.639   3.150  0.6671 -0.3722  0.8034
39637SOL     OW23467   5.673   6.406   9.125 -0.5619 -0.4002  0.4013
39637SOL    HW123468   5.644   6.497   9.134 -2.7460 -0.6402 -2.6242
39637SOL    HW223469   5.769   6.411   9.134 -0.7070  1.9593  1.5496
39638SOL     OW23470   4.116   1.746  11.561  0.0070  0.2611  0.2634
39638SOL    HW123471   4.086   1.816  11.619 -0.6525 -0.7780  1.2110
39638SOL    HW223472   4.129   1.671  11.619 -1.6035 -1.0945 -1.0581
39639SOL     OW23473  10.489   4.873   9.695 -0.0874  0.1671 -0.0914
39639SOL    HW123474  10.567   4.922   9.723 -0.6335  1.4014 -0.6666
39639SOL    HW223475  10.436   4.866   9.774  0.1502  0.2030  0.0733
39640SOL     OW23476   3.508   0.156   2.701 -0.1489  0.0663  0.4401
39640SOL    HW123477   3.535   0.071   2.668 -0.2992 -0.0004  0.4891
39640SOL    HW223478   3.585   0.189   2.748 -0.1730 -0.1505  0.6337
39641SOL     OW23479   9.564   4.712  10.493 -0.1243 -0.4133 -0.6175
39641SOL    HW123480   9.650   4.740  10.526  0.0211 -0.3195 -1.0673
39641SOL    HW223481   9.583   4.636  10.438 -0.1859  0.3281 -1.6792
39642SOL     OW23482   1.358   7.456   6.465  0.3380  0.1194 -0.8363
39642SOL    HW123483   1.269   7.424   6.448 -0.3262  1.0889  0.6396
39642SOL    HW223484   1.366   7.534   6.411 -0.2543  0.8469  0.1000
39643SOL     OW23485   2.123   0.521   3.024  0.2692 -0.0534 -0.3306
39643SOL    HW123486   2.061   0.459   2.985 -0.5314  1.3457 -1.3978
39643SOL    HW223487   2.087   0.540   3.110 -0.0014 -0.3498 -0.3756
39644SOL     OW23488   9.588  11.350   8.487  0.3504  0.3147  0.3612
39644SOL    HW123489   9.537  11.285   8.534 -0.5990 -0.5983 -1.8077
39644SOL    HW223490   9.556  11.434   8.519 -1.7550 -0.2547 -0.1195
39645SOL     OW23491  11.334  11.225   2.358  0.4600  0.8437 -0.2509
39645SOL    HW123492  11.332  11.166   2.283  1.8688  2.7595 -1.8957
39645SOL    HW223493  11.394  11.184   2.420 -0.4989 -0.6242 -0.2376
39646SOL     OW23494   1.615   8.245   6.021 -0.2968 -0.5490 -0.1892
39646SOL    HW123495   1.568   8.208   6.097 -1.0260 -1.3193 -0.9924
39646SOL    HW223496   1.676   8.176   5.996  0.9499  0.2514  0.5309
39647SOL     OW23497   8.755   7.721   3.789 -0.0817 -0.2621 -0.2042
39647SOL    HW123498   8.665   7.740   3.812  0.1884  0.0985  0.5856
39647SOL    HW223499   8.749   7.655   3.720 -0.9085 -1.5123  1.0106
39648SOL     OW23500   7.871   3.476   8.489  0.2941 -0.3856  0.2620
39648SOL    HW123501   7.852   3.446   8.400  2.1798  1.5555 -0.8982
39648SOL    HW223502   7.890   3.569   8.479 -1.3271  0.3440  3.0406
39649SOL     OW23503  11.413   7.087   7.517 -0.2564  0.3217  0.1492
39649SOL    HW123504  11.386   7.074   7.608  1.2330  0.8067  0.6964
39649SOL    HW223505  11.473   7.162   7.521  1.0377 -0.6065 -0.9853
39650SOL     OW23506   1.657   0.562   7.125  0.0856  0.1437  0.2380
39650SOL    HW123507   1.691   0.557   7.036 -2.0378 -0.5398 -0.6058
39650SOL    HW223508   1.607   0.644   7.127 -1.6234 -0.8333  0.0691
39651SOL     OW23509   2.861   1.871   1.468 -0.0917 -0.0913 -0.4359
39651SOL    HW123510   2.778   1.830   1.442 -0.2491 -0.3528  0.4345
39651SOL    HW223511   2.865   1.859   1.563  0.2808  1.1394 -0.2724
39652SOL     OW23512   1.852  11.137   5.688 -0.3641  0.1489  0.6425
39652SOL    HW123513   1.921  11.190   5.727  0.1744  0.1195 -0.2405
39652SOL    HW223514   1.834  11.179   5.604  0.0447 -1.0184 -0.0606
39653SOL     OW23515   9.122   7.470   0.442 -0.0459  0.2364  0.3966
39653SOL    HW123516   9.178   7.533   0.487 -0.9734  1.7934 -0.5461
39653SOL    HW223517   9.182   7.416   0.391  0.7736  0.2246  1.3383
39654SOL     OW23518   2.391   2.724  12.075 -0.2879 -0.0508  0.1698
39654SOL    HW123519   2.332   2.653  12.098 -2.0977  1.5519  0.6945
39654SOL    HW223520   2.336   2.801  12.070  1.7917  1.5916  0.9224
39655SOL     OW23521   5.306   4.201  10.049 -0.2710  0.0766 -0.7538
39655SOL    HW123522   5.250   4.236  10.118  0.1973 -1.6804  0.5640
39655SOL    HW223523   5.378   4.157  10.095  0.3670 -0.6403 -2.3574
39656SOL     OW23524   0.227   6.453   0.895 -0.7887  0.2513 -0.0907
39656SOL    HW123525   0.322   6.439   0.894 -0.9376 -0.8880 -1.7207
39656SOL    HW223526   0.194   6.392   0.961 -0.4244  0.4954  0.3236
39657SOL     OW23527   4.180   3.826   9.931 -0.0932 -0.0343  0.7709
39657SOL    HW123528   4.198   3.861  10.019 -0.0799 -0.9233  1.1369
39657SOL    HW223529   4.105   3.876   9.900 -1.1205 -0.7633  1.9587
39658SOL     OW23530   3.403  11.690   3.966  1.0173 -0.4449  0.0155
39658SOL    HW123531   3.381  11.737   4.047 -2.1177 -0.1590 -0.8533
39658SOL    HW223532   3.412  11.599   3.993  1.0937 -0.2020  0.8446
39659SOL     OW23533   4.744   7.157   9.859  0.3499 -0.0773  0.1748
39659SOL    HW123534   4.681   7.221   9.826  1.8423  1.2332 -0.2807
39659SOL    HW223535   4.724   7.076   9.812 -0.0708  0.7024 -1.0211
39660SOL     OW23536   1.625   5.957   7.381  0.2520  0.2010  0.4859
39660SOL    HW123537   1.665   5.940   7.466 -0.3856 -2.1982  0.3775
39660SOL    HW223538   1.700   5.963   7.321  0.6425  0.5516  0.9998
39661SOL     OW23539   1.357   0.094   9.515 -0.4293 -0.5235  0.4186
39661SOL    HW123540   1.288   0.089   9.448 -0.3758 -1.1284  0.4022
39661SOL    HW223541   1.318   0.146   9.585 -0.8353 -0.6938  0.3275
39662SOL     OW23542   3.552   2.943   6.732 -0.4268 -0.4907 -0.2450
39662SOL    HW123543   3.482   3.008   6.725  1.2203  1.5881  1.3665
39662SOL    HW223544   3.583   2.932   6.642 -1.0789  0.5942 -0.6264
39663SOL     OW23545   5.751   4.596  10.538 -0.0451  0.0460  0.2955
39663SOL    HW123546   5.690   4.532  10.501  1.2551 -0.4739 -1.0840
39663SOL    HW223547   5.711   4.681  10.518  0.8989 -0.1574 -3.1855
39664SOL     OW23548  10.754   6.181   2.251  0.3507  0.2083  0.4004
39664SOL    HW123549  10.775   6.159   2.160  0.3216  1.1483  0.1627
39664SOL    HW223550  10.827   6.145   2.302 -0.1594 -1.2726  0.1303
39665SOL     OW23551  10.941  10.790  10.689  0.1153 -0.2277 -0.2180
39665SOL    HW123552  11.014  10.778  10.628  1.1057 -1.2696  1.0919
39665SOL    HW223553  10.955  10.878  10.725 -1.3785  1.0630 -2.5451
39666SOL     OW23554  11.512   8.795   6.070 -0.0131 -0.2495  0.5144
39666SOL    HW123555  11.504   8.878   6.117  0.6788 -1.1823  2.3395
39666SOL    HW223556  11.488   8.728   6.133  3.3644 -1.7458  0.4422
39667SOL     OW23557  10.866   9.190   4.161 -0.1514 -0.1175  0.1398
39667SOL    HW123558  10.905   9.262   4.211  0.1647  0.2034 -0.5580
39667SOL    HW223559  10.831   9.131   4.228  0.7692  0.0180  0.7665
39668SOL     OW23560  10.777  10.524   3.854  0.1578  0.3314 -0.0703
39668SOL    HW123561  10.825  10.450   3.890  0.1239  0.6871  0.7438
39668SOL    HW223562  10.702  10.486   3.809  1.8948 -0.3325 -2.5664
39669SOL     OW23563   8.285   9.262   2.022  0.4045 -0.6716  0.1869
39669SOL    HW123564   8.336   9.232   1.947  1.7747  0.7436  0.4965
39669SOL    HW223565   8.350   9.299   2.082 -0.7510 -0.9982  1.7048
39670SOL     OW23566   2.431   0.280   5.000 -0.2871 -0.8716 -0.1952
39670SOL    HW123567   2.492   0.212   5.027  0.5165 -0.7380 -1.5475
39670SOL    HW223568   2.398   0.251   4.915 -1.7885 -0.7167  0.3019
39671SOL     OW23569   1.593  10.562  11.285 -0.0064  0.2596 -0.3156
39671SOL    HW123570   1.633  10.593  11.204 -1.4492  1.4438 -0.5998
39671SOL    HW223571   1.601  10.636  11.346 -0.6764  0.0855 -0.0056
39672SOL     OW23572  10.458   8.227   6.769 -0.0865 -0.0887  0.2452
39672SOL    HW123573  10.482   8.135   6.757 -2.0476 -0.8144  1.4813
39672SOL    HW223574  10.419   8.253   6.685  1.8342  0.1430 -0.6431
39673SOL     OW23575   1.683   4.100   3.475 -0.6186 -0.3404  0.5313
39673SOL    HW123576   1.764   4.120   3.428  0.1237 -2.1208  0.9888
39673SOL    HW223577   1.620   4.080   3.406  0.0732 -1.5236  0.2050
39674SOL     OW23578   9.422   4.274   3.758  0.6384  0.2047 -0.3216
39674SOL    HW123579   9.510   4.236   3.756  0.1460 -1.3766  2.6135
39674SOL    HW223580   9.364   4.199   3.752 -0.4313  0.8669  1.1681
39675SOL     OW23581   0.661   8.511   7.743 -0.6693  0.0789 -0.2745
39675SOL    HW123582   0.712   8.431   7.731 -1.0949 -0.4992  1.5738
39675SOL    HW223583   0.708   8.576   7.690  0.5068 -1.0241 -0.6609
39676SOL     OW23584   7.015   8.042   8.950 -0.3453 -0.8295  0.2719
39676SOL    HW123585   6.936   7.997   8.919 -0.6646 -0.8708  1.1060
39676SOL    HW223586   7.057   7.979   9.009 -0.4077 -0.3104  0.8831
39677SOL     OW23587   5.939  11.855   0.764 -0.4546  0.8246  0.4684
39677SOL    HW123588   5.911  11.943   0.740 -2.8742 -0.3324 -1.3857
39677SOL    HW223589   5.865  11.799   0.742  1.1512 -1.7590  1.1647
39678SOL     OW23590   5.729   1.488   2.078  0.1075 -0.0955  0.3554
39678SOL    HW123591   5.726   1.542   2.156 -0.1964  0.3734  0.0226
39678SOL    HW223592   5.718   1.398   2.110 -0.5381  0.1356  0.7992
39679SOL     OW23593   7.117   8.458   5.921 -0.1629  0.9411 -0.4259
39679SOL    HW123594   7.031   8.450   5.961  0.0919  1.1835  0.1707
39679SOL    HW223595   7.106   8.420   5.833 -0.3672 -0.9550  0.3653
39680SOL     OW23596   0.824   1.474   7.171 -0.3009 -0.2955  0.1412
39680SOL    HW123597   0.757   1.410   7.195 -0.2130 -0.0903  0.9348
39680SOL    HW223598   0.879   1.483   7.248  1.0520 -0.9431 -0.7134
39681SOL     OW23599   2.111  11.156   2.096 -0.5167  0.2616  0.1984
39681SOL    HW123600   2.038  11.215   2.075  0.5041  1.0222 -1.3912
39681SOL    HW223601   2.187  11.213   2.100  0.1907 -0.6909  0.6300
39682SOL     OW23602   1.483   7.520   7.625  0.7326 -0.7329  0.2926
39682SOL    HW123603   1.529   7.458   7.569  1.3406  0.5966 -0.7406
39682SOL    HW223604   1.399   7.535   7.581  0.9115 -0.2402  0.1098
39683SOL     OW23605   3.481   9.713  10.389  0.3000 -0.1947 -0.6238
39683SOL    HW123606   3.440   9.791  10.352  0.6897  0.3629  0.0939
39683SOL    HW223607   3.411   9.647  10.390 -0.9375  1.0122  1.4854
39684SOL     OW23608  11.046  10.245   8.860  0.1257 -0.6002 -0.6721
39684SOL    HW123609  11.029  10.154   8.883 -1.5173 -0.1705 -0.0228
39684SOL    HW223610  11.076  10.241   8.769  0.6821 -1.8233 -0.4554
39685SOL     OW23611  11.408   2.267  10.061  0.3446  0.1965  0.2934
39685SOL    HW123612  11.446   2.348  10.027 -0.3729  0.6895  0.6531
39685SOL    HW223613  11.445   2.258  10.149  0.5436  0.0418  0.1968
39686SOL     OW23614   8.862   7.084   5.304 -0.0254  0.3902  0.2741
39686SOL    HW123615   8.925   7.152   5.328  0.2792 -0.5799  2.4502
39686SOL    HW223616   8.808   7.072   5.382  0.3470 -2.2912  0.2068
39687SOL     OW23617   6.853   3.191   1.083 -0.4539  0.1911 -0.1603
39687SOL    HW123618   6.931   3.140   1.065 -0.5456  0.5289 -1.6126
39687SOL    HW223619   6.885   3.273   1.121 -0.0918  0.4032 -0.9231
39688SOL     OW23620   2.835   9.205   9.954 -0.5887 -0.2616 -0.2915
39688SOL    HW123621   2.891   9.283   9.953 -0.9952  0.0492 -1.8736
39688SOL    HW223622   2.821   9.186  10.047  2.3820 -0.5501  0.1941
39689SOL     OW23623   9.952   5.287   4.788  0.4372 -0.3024 -0.1092
39689SOL    HW123624   9.866   5.305   4.749  0.5546 -0.3876 -0.4130
39689SOL    HW223625   9.997   5.371   4.787 -0.1710  0.0639  1.3986
39690SOL     OW23626  12.029   0.222   9.899  0.1437 -0.1633 -0.1603
39690SOL    HW123627  11.960   0.288   9.903  0.1604 -0.1472 -0.1357
39690SOL    HW223628  12.093   0.257   9.837  0.3981  0.0791  0.2370
39691SOL     OW23629  11.927  10.924   6.733  0.5524  0.0260 -0.6069
39691SOL    HW123630  11.999  10.986   6.748  0.2390  0.3894 -0.6064
39691SOL    HW223631  11.903  10.936   6.642 -1.0532  1.5834 -0.0418
39692SOL     OW23632  10.001   2.913   0.562 -0.2223 -0.2324 -0.0676
39692SOL    HW123633  10.087   2.888   0.526  0.2844 -0.1350  1.0491
39692SOL    HW223634   9.976   2.838   0.616 -0.0122  0.4793  1.0330
39693SOL     OW23635   9.314   4.144   5.152  0.0419  0.1798 -0.5820
39693SOL    HW123636   9.388   4.113   5.100  0.5146 -0.4029  0.4165
39693SOL    HW223637   9.338   4.232   5.179  0.0234  0.2828 -0.8915
39694SOL     OW23638   6.172   5.224   0.435  0.1624  0.1755  0.0484
39694SOL    HW123639   6.079   5.204   0.423 -0.0679  1.0553  0.2624
39694SOL    HW223640   6.182   5.233   0.530  0.9692 -2.1506  0.2329
39695SOL     OW23641   1.954   8.959   4.973 -0.1997  0.0580 -0.8302
39695SOL    HW123642   1.863   8.947   5.000  0.2499 -0.6044  0.4876
39695SOL    HW223643   1.949   8.976   4.879 -1.6175 -0.8593 -0.9549
39696SOL     OW23644  11.800   0.916   4.881 -0.5871  0.6203  0.5453
39696SOL    HW123645  11.847   0.964   4.813 -0.5692  1.0233  0.8384
39696SOL    HW223646  11.711   0.907   4.846 -1.2777  2.9732  1.4535
39697SOL     OW23647   9.370   1.093   0.331 -0.5641 -0.4753  0.0042
39697SOL    HW123648   9.282   1.127   0.347 -0.2376  0.5055 -0.2005
39697SOL    HW223649   9.356   1.008   0.291 -1.4354 -0.0097 -0.7125
39698SOL     OW23650   8.036   7.893   8.293 -0.4745 -0.1180  0.0241
39698SOL    HW123651   8.132   7.892   8.296 -0.2880  1.5954 -2.4458
39698SOL    HW223652   8.013   7.833   8.222 -1.4145 -1.8708  1.7084
39699SOL     OW23653   6.307   0.760  11.871  0.5415 -0.4669 -0.4558
39699SOL    HW123654   6.214   0.737  11.872  0.5699 -0.5989 -0.7869
39699SOL    HW223655   6.314   0.826  11.802  0.4116  0.7638  0.6602
39700SOL     OW23656  11.499   5.326   4.289 -0.4710 -0.1771  0.1930
39700SOL    HW123657  11.459   5.287   4.367 -0.6586 -0.8898 -0.2434
39700SOL    HW223658  11.448   5.405   4.272  0.6207  0.9246  1.7589
39701SOL     OW23659   6.031   0.584   7.659  0.1617 -0.2055 -0.8565
39701SOL    HW123660   6.091   0.656   7.678 -0.4114  0.0778 -0.0749
39701SOL    HW223661   6.032   0.576   7.564  1.0476  0.1258 -0.8864
39702SOL     OW23662   6.405   9.474   9.838  0.1588  0.4668 -0.6283
39702SOL    HW123663   6.388   9.470   9.744  0.1247  0.1216 -0.6096
39702SOL    HW223664   6.421   9.567   9.856 -1.1970  0.7376 -0.7274
39703SOL     OW23665   6.584   6.514   0.502  0.0303 -0.4503  0.1581
39703SOL    HW123666   6.638   6.560   0.567  0.6535 -1.7944  0.6433
39703SOL    HW223667   6.604   6.557   0.419  0.6805  0.0774  0.5754
39704SOL     OW23668  12.103   3.709   5.579  0.1979  0.0052 -0.2587
39704SOL    HW123669  12.055   3.639   5.535 -0.3414 -0.1298  0.5093
39704SOL    HW223670  12.095   3.687   5.672 -0.3445  1.3139  0.0235
39705SOL     OW23671   6.824   2.079  11.145 -0.7738 -0.0330  0.0597
39705SOL    HW123672   6.802   2.171  11.129 -0.4341  0.1726  0.7223
39705SOL    HW223673   6.905   2.064  11.097 -0.7792  0.0393  0.0282
39706SOL     OW23674   5.457   8.786   0.183  0.0165 -0.2278 -0.8767
39706SOL    HW123675   5.512   8.736   0.243  0.5414 -0.5864 -1.6470
39706SOL    HW223676   5.485   8.877   0.196 -0.9671 -0.0911  0.5537
39707SOL     OW23677  11.137   3.422   1.307  0.2986 -0.0802 -0.0816
39707SOL    HW123678  11.113   3.501   1.356  2.0605  1.7753 -2.0167
39707SOL    HW223679  11.141   3.354   1.373 -1.7042  1.3007  1.6244
39708SOL     OW23680   2.023   7.415   6.388  0.1214 -0.4416 -0.2572
39708SOL    HW123681   2.056   7.396   6.476 -1.5557 -0.7160  0.3617
39708SOL    HW223682   2.030   7.332   6.341  1.3427 -0.2078 -0.5054
39709SOL     OW23683   1.010   9.348   5.405 -0.5388  0.3599  0.0374
39709SOL    HW123684   1.049   9.280   5.459  0.6611  0.9857  0.0100
39709SOL    HW223685   0.972   9.410   5.468 -0.5193  0.2912  0.1163
39710SOL     OW23686   4.854   8.879   1.184  0.0769 -0.3633  0.0081
39710SOL    HW123687   4.850   8.916   1.096 -0.4349 -0.9777 -0.2387
39710SOL    HW223688   4.921   8.931   1.229 -0.2164  0.4806 -0.4937
39711SOL     OW23689   4.749   5.830   3.485 -0.0814  0.1255 -0.2700
39711SOL    HW123690   4.732   5.890   3.412 -0.9976 -0.6667 -0.7188
39711SOL    HW223691   4.687   5.858   3.553  1.6229  1.6915  0.7489
39712SOL     OW23692  11.762   4.125   2.157  0.1553 -0.0104  0.7549
39712SOL    HW123693  11.843   4.175   2.165  0.1520  0.0705  0.2836
39712SOL    HW223694  11.695   4.191   2.138 -0.0686 -0.0441  1.4045
39713SOL     OW23695   3.583   0.909   0.551  0.1646  0.1805  0.4857
39713SOL    HW123696   3.493   0.911   0.582  0.3721  1.9043  1.0709
39713SOL    HW223697   3.576   0.874   0.462 -1.0620  0.0886  0.5950
39714SOL     OW23698   9.580   3.487   4.557 -0.9234  0.3869 -0.5827
39714SOL    HW123699   9.563   3.499   4.464 -0.7834  0.5433 -0.5884
39714SOL    HW223700   9.633   3.408   4.562 -0.0480  0.9480 -0.7285
39715SOL     OW23701   8.055   0.407   3.264  0.1717 -0.3998  0.6143
39715SOL    HW123702   8.021   0.400   3.175  2.2093 -0.0208 -0.2618
39715SOL    HW223703   8.150   0.410   3.253  0.4686 -0.0427  2.7947
39716SOL     OW23704   9.604   3.795   3.304  0.0528 -0.3024  0.3946
39716SOL    HW123705   9.545   3.866   3.277 -1.1563 -0.2712  2.8252
39716SOL    HW223706   9.659   3.779   3.227 -0.5922  2.2786 -0.7204
39717SOL     OW23707   4.600   3.616   9.710  0.5733  0.6463 -0.6417
39717SOL    HW123708   4.692   3.623   9.686  1.6033 -0.5822  2.4653
39717SOL    HW223709   4.585   3.688   9.772  0.4357 -1.0775  1.4218
39718SOL     OW23710   1.171  11.081  11.601  0.1058 -0.2964 -0.6122
39718SOL    HW123711   1.225  11.128  11.537  0.0858  2.3550  1.1727
39718SOL    HW223712   1.212  11.100  11.685 -1.5313 -1.2731  0.4603
39719SOL     OW23713   6.390   7.246   6.631  0.3127  0.1742  0.3248
39719SOL    HW123714   6.411   7.155   6.651  0.2594  0.0400 -0.1950
39719SOL    HW223715   6.316   7.240   6.570 -0.2968  0.5957  1.0198
39720SOL     OW23716   7.656   6.288   7.105  0.0162  0.2872 -0.2427
39720SOL    HW123717   7.646   6.223   7.036  0.2077  1.1530 -1.1029
39720SOL    HW223718   7.576   6.279   7.157  0.0358 -0.6209 -0.3460
39721SOL     OW23719   7.817  11.822   0.256 -0.1366 -1.0461 -0.3798
39721SOL    HW123720   7.823  11.727   0.249  0.7779 -1.0416  0.1052
39721SOL    HW223721   7.907  11.850   0.271 -0.3535 -0.0740 -0.8117
39722SOL     OW23722   1.101   8.913   8.121  0.2269 -0.4307  0.7577
39722SOL    HW123723   1.079   8.836   8.174  0.0865  0.2267  1.6736
39722SOL    HW223724   1.188   8.894   8.086  0.2749 -0.9254  1.1393
39723SOL     OW23725  10.518   6.586  10.118 -0.3654  0.0298  0.5280
39723SOL    HW123726  10.612   6.589  10.136 -0.4704  0.0447  1.0665
39723SOL    HW223727  10.506   6.506  10.066  0.0736  0.5007 -0.3193
39724SOL     OW23728   9.136   5.845   7.799 -0.4496  0.1776  0.0489
39724SOL    HW123729   9.149   5.768   7.855 -1.4241 -0.0692 -0.0435
39724SOL    HW223730   9.066   5.894   7.841 -2.8632 -1.1954 -2.1011
39725SOL     OW23731   8.582   3.390   9.578  0.1899  0.0736 -0.1410
39725SOL    HW123732   8.638   3.370   9.653 -1.2089 -0.2886  0.8632
39725SOL    HW223733   8.568   3.306   9.535  0.5953  0.1990 -0.5181
39726SOL     OW23734   1.245   0.277  10.561  0.0755 -0.2001 -0.9623
39726SOL    HW123735   1.207   0.190  10.577  0.0816  0.0805  0.6700
39726SOL    HW223736   1.265   0.277  10.467 -0.5889 -1.6946 -1.1293
39727SOL     OW23737   4.075   2.838  11.442 -0.0048  0.1948  0.0792
39727SOL    HW123738   3.997   2.878  11.404  0.0725  1.8664  1.5776
39727SOL    HW223739   4.147   2.869  11.386  0.1688  3.0493  1.7062
39728SOL     OW23740   9.091   0.107   7.262 -0.5285 -0.7483 -0.0279
39728SOL    HW123741   9.064   0.102   7.354 -1.1148  0.3050 -0.1338
39728SOL    HW223742   9.102   0.015   7.236 -0.0348 -1.0504  1.1761
39729SOL     OW23743   4.926   2.176   6.235  0.3124 -0.8606  0.0175
39729SOL    HW123744   4.902   2.223   6.156 -3.9998 -1.2097  0.8454
39729SOL    HW223745   4.927   2.084   6.209  2.8595 -0.8141 -0.3326
39730SOL     OW23746   3.009   7.156   9.517 -0.2131  0.2616  0.1747
39730SOL    HW123747   3.094   7.197   9.508 -0.1776  0.7224  2.1830
39730SOL    HW223748   2.949   7.215   9.472  0.3573  0.5889 -0.1659
39731SOL     OW23749  11.312   3.081   1.175 -0.4788 -0.2421  0.0289
39731SOL    HW123750  11.408   3.080   1.165 -0.4909  0.7410 -0.3505
39731SOL    HW223751  11.297   3.043   1.261  0.3895  1.1039  0.8257
39732SOL     OW23752   2.887   1.620   1.338 -0.0120  0.0414 -0.0538
39732SOL    HW123753   2.931   1.704   1.354 -0.8922  0.6353 -0.6952
39732SOL    HW223754   2.907   1.568   1.416 -0.4520  1.2736  0.9175
39733SOL     OW23755   4.811   5.313   8.797 -0.1085  0.7191  0.8007
39733SOL    HW123756   4.731   5.316   8.744  0.3914  0.7550  0.0383
39733SOL    HW223757   4.796   5.378   8.866 -0.8583  0.5146  0.8484
39734SOL     OW23758   2.042  11.945   3.258  0.0652 -0.1251 -0.6547
39734SOL    HW123759   2.010  11.855   3.246 -1.0779  0.3166 -1.1040
39734SOL    HW223760   1.970  11.990   3.303  1.0746  0.2930  0.5995
39735SOL     OW23761   2.889  11.114   7.259 -0.0544  0.0909 -0.7370
39735SOL    HW123762   2.828  11.041   7.258  0.3049 -0.2115 -1.2077
39735SOL    HW223763   2.871  11.159   7.342 -0.7054 -0.1617 -0.7345
39736SOL     OW23764   0.993   8.111   2.290  0.8216 -0.1523 -0.0641
39736SOL    HW123765   0.985   8.205   2.301 -1.3644 -0.1648 -1.0032
39736SOL    HW223766   1.041   8.099   2.208 -0.5948  0.2166 -0.9842
39737SOL     OW23767  10.939   7.723   4.375 -0.1090  0.5731 -0.8003
39737SOL    HW123768  10.945   7.628   4.381 -1.2270  0.5010 -0.4556
39737SOL    HW223769  10.973   7.755   4.459 -1.4131  0.3622 -0.1611
39738SOL     OW23770  11.081   0.216  10.717  0.3121  0.3048 -0.7023
39738SOL    HW123771  11.146   0.200  10.649 -0.2172  1.3694 -1.4935
39738SOL    HW223772  11.065   0.311  10.713  0.2722  0.3995  0.9145
39739SOL     OW23773   8.276   1.340   7.595  0.1067 -0.2412 -0.5280
39739SOL    HW123774   8.231   1.257   7.575  0.9880 -0.3542 -2.2406
39739SOL    HW223775   8.368   1.321   7.579  0.5806  0.5420  1.0333
39740SOL     OW23776   5.619   8.212   7.950 -0.0986  0.2169 -0.2202
39740SOL    HW123777   5.701   8.201   7.998 -0.1540  1.8269  0.3095
39740SOL    HW223778   5.564   8.262   8.010 -0.1570  2.3685 -1.9730
39741SOL     OW23779   1.367   5.594   7.321  0.7047  0.2104  0.5060
39741SOL    HW123780   1.421   5.542   7.261 -1.3999  0.1265 -1.4239
39741SOL    HW223781   1.367   5.682   7.283  0.9406  0.6733  1.5272
39742SOL     OW23782   7.127   4.113   6.698  0.5387  0.5333 -0.0966
39742SOL    HW123783   7.083   4.141   6.778  0.8878  1.2923 -0.1622
39742SOL    HW223784   7.210   4.077   6.727 -0.3586 -1.5120  0.0865
39743SOL     OW23785   5.802   3.885   0.906  0.0701  0.4947  0.1970
39743SOL    HW123786   5.730   3.924   0.857  1.0395  0.5291 -1.2421
39743SOL    HW223787   5.881   3.908   0.857  0.8521 -1.7128  0.2934
39744SOL     OW23788   3.771   8.250   7.470 -0.0817  1.0287 -0.3250
39744SOL    HW123789   3.790   8.255   7.564  1.3092  0.1990 -0.5409
39744SOL    HW223790   3.841   8.300   7.429  0.6073 -0.4727 -1.0349
39745SOL     OW23791   5.229   8.858   9.034 -0.3690  0.0094 -0.4432
39745SOL    HW123792   5.286   8.798   9.084  0.1966 -1.5126 -2.7331
39745SOL    HW223793   5.288   8.900   8.972 -0.6777  3.4578  1.3989
39746SOL     OW23794   5.206   2.121  10.970 -0.5843  0.3070  0.4217
39746SOL    HW123795   5.146   2.047  10.981  0.8603 -0.7533  1.4405
39746SOL    HW223796   5.245   2.107  10.884  0.5779 -0.8388  1.0987
39747SOL     OW23797   3.307   6.708   6.421  0.0825 -0.4412  0.4626
39747SOL    HW123798   3.342   6.652   6.490  0.8569 -1.1021 -0.4354
39747SOL    HW223799   3.280   6.788   6.466  2.4325 -0.0225  1.2848
39748SOL     OW23800   2.292   8.049  10.925 -0.1800  0.4107 -0.0598
39748SOL    HW123801   2.247   8.062  10.841 -1.6390  0.1850  0.6495
39748SOL    HW223802   2.291   8.136  10.966  0.6152  0.5405 -0.3054
39749SOL     OW23803   1.598   1.588  11.549  0.0961  0.7172 -0.5198
39749SOL    HW123804   1.536   1.548  11.488  0.6858 -0.0696 -0.6197
39749SOL    HW223805   1.623   1.670  11.506  1.6637 -0.5192 -2.1172
39750SOL     OW23806   2.889   3.686  10.694 -0.1861  0.4008  0.2533
39750SOL    HW123807   2.934   3.608  10.728 -0.2264  0.0002 -0.5753
39750SOL    HW223808   2.870   3.739  10.771  0.2858 -0.1833  0.7782
39751SOL     OW23809   7.621  10.145   0.916  0.2706  0.1550 -0.1392
39751SOL    HW123810   7.693  10.143   0.853 -0.8055  1.0345 -1.4537
39751SOL    HW223811   7.599  10.238   0.925 -1.8602 -0.1925 -1.1710
39752SOL     OW23812   6.269   6.331   7.193  0.1656 -0.1249 -0.1738
39752SOL    HW123813   6.255   6.308   7.101 -1.4865 -1.3101  0.3460
39752SOL    HW223814   6.223   6.264   7.242  1.3761  0.2513  1.5635
39753SOL     OW23815   9.357  10.501   1.624 -0.2866  0.2377 -1.0678
39753SOL    HW123816   9.409  10.580   1.637 -1.5338  0.9891 -0.3989
39753SOL    HW223817   9.353  10.461   1.711 -1.9289  0.9374 -0.7731
39754SOL     OW23818   8.545   8.396   9.880 -0.9189 -0.4984  0.3029
39754SOL    HW123819   8.506   8.483   9.873 -0.6796 -0.3229  1.0555
39754SOL    HW223820   8.496   8.352   9.949 -1.9100 -1.4582 -0.9617
39755SOL     OW23821   6.744   2.323   2.741  0.0939 -0.7847 -0.4142
39755SOL    HW123822   6.667   2.288   2.697 -0.8891  0.6217  0.0926
39755SOL    HW223823   6.783   2.382   2.678 -2.0495  2.2458  0.8388
39756SOL     OW23824   7.911   3.475   7.774  0.0216 -0.5652 -0.7475
39756SOL    HW123825   7.894   3.568   7.786  2.1323  0.1177 -2.4171
39756SOL    HW223826   7.875   3.455   7.688 -0.8364 -1.4457 -0.2057
39757SOL     OW23827   0.375   1.081   0.809 -0.3748 -0.5008 -0.4688
39757SOL    HW123828   0.465   1.048   0.812 -0.7810 -1.5915  0.4246
39757SOL    HW223829   0.380   1.167   0.849  0.5109  0.1086 -1.7963
39758SOL     OW23830   4.703   7.917   6.121 -0.2945  0.4399 -0.1855
39758SOL    HW123831   4.760   7.840   6.119  0.1134  0.7322 -0.0512
39758SOL    HW223832   4.759   7.989   6.093 -0.1908  0.9818  1.2865
39759SOL     OW23833   7.873   8.770  10.769 -0.0858 -0.3948  0.3944
39759SOL    HW123834   7.824   8.810  10.697  0.2273 -1.1590 -0.2648
39759SOL    HW223835   7.843   8.679  10.772 -0.8834 -0.1128  1.9573
39760SOL     OW23836   1.853   1.168   4.289 -0.4954 -0.4033  0.1446
39760SOL    HW123837   1.897   1.153   4.205 -1.1025 -1.1123 -0.0578
39760SOL    HW223838   1.851   1.263   4.299 -1.9322 -0.2291 -1.4695
39761SOL     OW23839   8.396  10.410   4.550  0.1183  0.0754 -0.2580
39761SOL    HW123840   8.461  10.471   4.587 -1.2913  1.8494 -0.5965
39761SOL    HW223841   8.382  10.346   4.620  2.6677 -0.7893 -0.4052
39762SOL     OW23842   3.798   0.402  11.137 -0.0981 -0.2773  0.6335
39762SOL    HW123843   3.704   0.421  11.134 -0.5400 -2.3250 -0.2494
39762SOL    HW223844   3.819   0.401  11.230 -0.7348  1.0431  0.8163
39763SOL     OW23845   0.784   4.176   0.673 -0.6219  0.4281  0.2284
39763SOL    HW123846   0.690   4.161   0.666 -0.5289 -1.2202  1.7728
39763SOL    HW223847   0.807   4.142   0.760  1.3442  1.1585  0.0471
39764SOL     OW23848   8.379  10.612   1.275  0.3348 -0.3914  0.4702
39764SOL    HW123849   8.436  10.549   1.318 -0.0706 -1.1861 -0.1288
39764SOL    HW223850   8.436  10.686   1.253  1.5371 -1.8524 -1.6020
39765SOL     OW23851   9.592   0.661  10.032  0.0757  0.2108  0.5611
39765SOL    HW123852   9.558   0.668   9.942 -2.3449  0.2352  1.4105
39765SOL    HW223853   9.515   0.672  10.087  1.2808 -1.2624  2.6468
39766SOL     OW23854  11.396   9.603  10.397 -0.6367 -0.0997 -0.3033
39766SOL    HW123855  11.456   9.674  10.419 -0.9439  0.8390 -2.2661
39766SOL    HW223856  11.450   9.524  10.400  1.0297  0.8183 -2.9030
39767SOL     OW23857   8.130   3.411   8.898  0.5027 -0.3303  0.2620
39767SOL    HW123858   8.086   3.416   8.983  0.9155 -2.1623  0.6247
39767SOL    HW223859   8.061   3.434   8.835  0.5286  2.3651  1.1030
39768SOL     OW23860   3.857   2.307   7.431  0.4745 -0.0204 -0.2774
39768SOL    HW123861   3.924   2.374   7.443  0.1767  1.0361 -3.3919
39768SOL    HW223862   3.890   2.252   7.360  0.2746 -2.7091  1.5700
39769SOL     OW23863   8.121   7.957   5.698  0.5987 -0.2177 -0.2662
39769SOL    HW123864   8.032   7.988   5.682  0.3711  0.8136  2.4612
39769SOL    HW223865   8.124   7.870   5.659 -1.2777  0.1187 -1.2610
39770SOL     OW23866   0.012  10.631   7.266  0.6281 -0.7979  0.0471
39770SOL    HW123867   0.026  10.715   7.222  3.1639 -0.6651  0.9680
39770SOL    HW223868  -0.028  10.576   7.199  0.8150  0.5330 -1.2118
39771SOL     OW23869   3.003   9.015   1.206  0.0039 -0.1899 -0.1960
39771SOL    HW123870   3.064   8.990   1.136 -1.0637 -0.1143 -1.1915
39771SOL    HW223871   2.952   9.087   1.168  0.5046  0.9667  1.2747
39772SOL     OW23872   6.520   8.648   7.689 -0.7083 -0.5299 -0.2836
39772SOL    HW123873   6.611   8.618   7.683  0.5276  2.7766 -0.1976
39772SOL    HW223874   6.476   8.609   7.614  0.9121 -1.7683 -0.6317
39773SOL     OW23875  10.862   5.053  11.551  0.1935  0.4528 -0.5130
39773SOL    HW123876  10.898   5.136  11.520  1.8093  0.0607  0.2148
39773SOL    HW223877  10.858   5.063  11.646 -1.3150  0.3308 -0.5407
39774SOL     OW23878   4.376   1.247   4.479  0.4535 -0.0314  0.3497
39774SOL    HW123879   4.292   1.212   4.448 -0.2757  0.6859  1.4580
39774SOL    HW223880   4.420   1.172   4.519  0.5926 -0.5349 -0.7175
39775SOL     OW23881   7.855  11.262   8.588 -0.0605 -0.1577  0.4142
39775SOL    HW123882   7.839  11.354   8.565 -2.0412 -0.6612 -0.4291
39775SOL    HW223883   7.884  11.265   8.679  1.2448  1.3723  0.0122
39776SOL     OW23884   2.476   2.787   8.377 -0.1227 -0.0704 -0.0989
39776SOL    HW123885   2.392   2.826   8.403 -0.3926 -0.4384 -0.4224
39776SOL    HW223886   2.494   2.825   8.291 -0.2413 -0.4270 -0.2835
39777SOL     OW23887  10.137   2.134   3.469  0.0674  0.3556 -0.3284
39777SOL    HW123888  10.192   2.072   3.422 -0.0025 -0.3394  0.4694
39777SOL    HW223889  10.153   2.219   3.427  0.6172 -0.0985 -1.0480
39778SOL     OW23890   5.507   6.881   0.785 -0.0903  0.2649 -0.0658
39778SOL    HW123891   5.436   6.884   0.722  0.5002 -0.1795 -0.7704
39778SOL    HW223892   5.578   6.930   0.743  0.5205 -0.5728 -0.0368
39779SOL     OW23893   6.787   2.757   3.368 -0.2122 -0.1626  0.5145
39779SOL    HW123894   6.760   2.713   3.288 -0.8261  1.1075 -0.0072
39779SOL    HW223895   6.705   2.783   3.411  0.0804 -1.4424  1.9401
39780SOL     OW23896   2.815   5.684   8.572 -0.1202 -0.3852  0.1171
39780SOL    HW123897   2.811   5.711   8.663  2.3069  0.3868  0.0757
39780SOL    HW223898   2.764   5.749   8.525  0.4700  0.5275  0.7124
39781SOL     OW23899   7.206   5.056   6.635  0.3037  0.0769 -0.3486
39781SOL    HW123900   7.120   5.014   6.625 -0.5342  1.1719  1.6194
39781SOL    HW223901   7.215   5.112   6.558  0.1095 -1.4140 -1.5010
39782SOL     OW23902   0.337  10.074   9.650  0.1278  0.0471 -0.4340
39782SOL    HW123903   0.352  10.162   9.614  1.5337 -0.1267 -0.3072
39782SOL    HW223904   0.409  10.060   9.711 -0.6154 -0.8287  0.2751
39783SOL     OW23905   4.041   6.861  10.952  0.1950 -0.0072  0.5908
39783SOL    HW123906   4.092   6.941  10.936 -0.3574  0.3081  0.3707
39783SOL    HW223907   4.103   6.801  10.993  1.2612 -0.2950 -1.3224
39784SOL     OW23908   6.292  12.010   5.006 -0.7326  0.2967  0.0908
39784SOL    HW123909   6.385  12.005   4.983 -0.8089 -0.2586 -0.1003
39784SOL    HW223910   6.285  12.090   5.059  0.2415 -0.7390  1.8854
39785SOL     OW23911   3.157   4.358   9.169  0.1248  0.3581  0.6121
39785SOL    HW123912   3.124   4.277   9.208  1.5968  0.1851  1.5749
39785SOL    HW223913   3.217   4.329   9.101 -0.5041  0.6630 -0.0853
39786SOL     OW23914   4.523   7.917   5.849  0.0362 -0.3551  0.5501
39786SOL    HW123915   4.464   7.992   5.852 -0.0688 -0.4670  1.7199
39786SOL    HW223916   4.500   7.865   5.926  0.1881 -1.5378 -0.1701
39787SOL     OW23917   0.544  11.555   9.526 -0.1133  0.0051 -0.3516
39787SOL    HW123918   0.576  11.523   9.442  1.1960  0.7508 -0.1699
39787SOL    HW223919   0.550  11.651   9.519 -1.4248  0.1438  0.0597
39788SOL     OW23920  11.661   2.550   5.363  0.4590 -0.2476  0.1604
39788SOL    HW123921  11.590   2.530   5.301  0.6860 -0.7221  0.0494
39788SOL    HW223922  11.692   2.637   5.337  1.8160 -1.2059 -1.6004
39789SOL     OW23923  11.476   6.903   3.706 -0.0550 -0.2291 -0.3524
39789SOL    HW123924  11.417   6.878   3.636 -2.4089 -1.1735  1.8287
39789SOL    HW223925  11.514   6.821   3.737 -1.3383 -0.2457  1.3393
39790SOL     OW23926   5.079  12.010  11.192  0.3280 -0.0882 -0.3790
39790SOL    HW123927   5.111  12.018  11.102 -1.7048  1.0843 -1.0675
39790SOL    HW223928   4.989  11.977  11.183 -0.5859  1.7922  1.0409
39791SOL     OW23929   2.003   7.098   6.847  0.1116 -0.3185 -0.0633
39791SOL    HW123930   2.053   7.127   6.924 -0.1855  0.8394 -0.2917
39791SOL    HW223931   2.065   7.102   6.775  0.0279 -0.1083 -0.1232
39792SOL     OW23932   9.396   0.242   1.158 -0.0372  0.4163 -0.5287
39792SOL    HW123933   9.384   0.207   1.069 -1.7971  0.9056 -0.5114
39792SOL    HW223934   9.482   0.208   1.185 -1.2315 -3.2493 -0.8140
39793SOL     OW23935   7.215   6.189   0.010  0.6975  0.1258 -0.4974
39793SOL    HW123936   7.156   6.115  -0.003  1.0431  0.1813 -2.7652
39793SOL    HW223937   7.255   6.174   0.096 -0.4614 -1.4215 -0.2023
39794SOL     OW23938  11.376   1.618   6.090 -0.5769  0.0975 -0.3389
39794SOL    HW123939  11.381   1.687   6.156 -1.1229  0.0875 -0.2829
39794SOL    HW223940  11.345   1.541   6.138 -0.1880 -0.1251 -0.4452
39795SOL     OW23941   3.908   7.601   5.568 -0.6651  0.3300 -0.3524
39795SOL    HW123942   4.003   7.596   5.580 -0.7385 -0.9084 -0.1930
39795SOL    HW223943   3.885   7.519   5.526 -1.9701 -0.4298  1.7218
39796SOL     OW23944   3.031  11.866   0.500 -0.2431  0.0369  0.4411
39796SOL    HW123945   3.074  11.782   0.485 -1.8152 -0.8979  0.9867
39796SOL    HW223946   2.958  11.846   0.558 -0.6992  1.7774  0.5230
39797SOL     OW23947  10.856   2.915   4.924  0.2564 -0.5691  0.0388
39797SOL    HW123948  10.807   2.913   5.006 -0.6275 -0.5886 -0.4803
39797SOL    HW223949  10.932   2.858   4.939  0.5661  0.1065  1.1224
39798SOL     OW23950   7.316   7.558  11.663  0.2675  0.4181  0.0065
39798SOL    HW123951   7.347   7.496  11.729 -0.7935 -0.1377  0.0027
39798SOL    HW223952   7.388   7.621  11.654  1.1009 -0.4390  0.4709
39799SOL     OW23953   0.703   8.562   2.185  0.3292 -0.0161  0.1076
39799SOL    HW123954   0.765   8.633   2.199  1.5972 -0.7493 -1.3984
39799SOL    HW223955   0.707   8.510   2.266  1.7827 -0.0863  0.0179
39800SOL     OW23956   8.283   1.128   6.157  0.0342 -0.8999 -0.2427
39800SOL    HW123957   8.325   1.213   6.167  0.2805 -1.1733  1.3049
39800SOL    HW223958   8.212   1.129   6.221 -1.0327 -1.2349 -1.3837
39801SOL     OW23959   8.756   5.794  10.788 -0.2920 -0.2961  0.1384
39801SOL    HW123960   8.784   5.780  10.698 -2.1918 -2.3818 -0.2232
39801SOL    HW223961   8.770   5.710  10.831  0.6749  0.6873  1.8676
39802SOL     OW23962   6.201   0.852   2.487 -0.5542  0.0994  0.0985
39802SOL    HW123963   6.271   0.823   2.429  0.1969 -0.6954  1.3540
39802SOL    HW223964   6.161   0.771   2.519 -0.3197  0.4812  1.4186
39803SOL     OW23965   4.764  11.036   9.874 -0.2388  0.2142  0.3443
39803SOL    HW123966   4.779  11.129   9.860 -0.6567  0.6834  2.5512
39803SOL    HW223967   4.669  11.025   9.862 -0.2055  0.0982  0.1878
39804SOL     OW23968   9.263   6.548   5.268 -0.0933 -0.1473  0.5854
39804SOL    HW123969   9.341   6.493   5.259 -0.3803 -0.5859  0.7467
39804SOL    HW223970   9.294   6.628   5.310  0.3628 -0.1054  0.1810
39805SOL     OW23971   5.087  12.098   0.461  0.3868 -0.2372  0.8637
39805SOL    HW123972   5.143  12.037   0.509 -0.4756 -1.7062  0.0839
39805SOL    HW223973   5.062  12.050   0.382  0.2614  1.4209 -0.1428
39806SOL     OW23974   7.253   0.732   9.976 -1.0218 -0.3032  0.7086
39806SOL    HW123975   7.239   0.765   9.887 -0.1377 -0.8318  0.3630
39806SOL    HW223976   7.257   0.637   9.966 -1.1112 -0.3815  1.3525
39807SOL     OW23977   9.884   7.356   1.534 -0.4682 -0.3657  0.8738
39807SOL    HW123978   9.947   7.427   1.523  0.1967 -0.7789  1.8981
39807SOL    HW223979   9.934   7.286   1.577 -1.2828 -1.2024  0.4916
39808SOL     OW23980   5.439  11.807  10.077  0.1239  0.3421  0.1663
39808SOL    HW123981   5.405  11.881  10.026  0.0547 -0.4638 -0.9812
39808SOL    HW223982   5.433  11.732  10.018  0.6406 -0.4987  1.1511
39809SOL     OW23983  11.867  11.860   2.093  0.6235 -0.1160 -0.2169
39809SOL    HW123984  11.836  11.781   2.049 -0.6368 -1.0306  2.1490
39809SOL    HW223985  11.806  11.873   2.166  2.6367  1.2257  1.3574
39810SOL     OW23986   5.307  10.128  10.394  0.1848 -0.0778  0.3810
39810SOL    HW123987   5.314  10.040  10.429 -0.5683  0.0416  0.8438
39810SOL    HW223988   5.342  10.184  10.463  0.9642 -0.0310 -0.0405
39811SOL     OW23989   6.816   9.339   8.218  0.2753 -0.2596 -1.1388
39811SOL    HW123990   6.841   9.291   8.296  1.0597  1.0915 -0.5263
39811SOL    HW223991   6.796   9.427   8.249 -1.2924 -0.1866 -2.2017
39812SOL     OW23992  10.036   6.619   5.934 -0.2056 -0.0289  0.4882
39812SOL    HW123993  10.083   6.634   6.016  0.6703  0.0994 -0.0313
39812SOL    HW223994  10.016   6.707   5.902  0.4361 -0.0514  0.0099
39813SOL     OW23995   6.487  10.936   3.026 -0.8012  0.3022  0.1732
39813SOL    HW123996   6.509  11.024   3.056 -0.7113  0.0054  0.9872
39813SOL    HW223997   6.439  10.951   2.944 -1.8531  1.1663  0.9202
39814SOL     OW23998   4.322   2.574   1.512  0.2016  0.1293  0.5012
39814SOL    HW123999   4.332   2.577   1.416  2.1864 -0.2266  0.6554
39814SOL    HW224000   4.361   2.656   1.542 -0.6018  0.3334  1.0172
39815SOL     OW24001  11.823   1.940   4.581  0.4240  0.1476 -0.5374
39815SOL    HW124002  11.879   2.000   4.533  0.2195 -0.2780 -1.3206
39815SOL    HW224003  11.791   1.878   4.516  0.3371 -0.5967  0.1867
39816SOL     OW24004   9.730   9.650   6.522  0.1067  0.4724 -0.2085
39816SOL    HW124005   9.707   9.738   6.494  0.1148  0.2906 -0.7838
39816SOL    HW224006   9.661   9.626   6.584  0.4264  1.1058  0.4191
39817SOL     OW24007   1.095   1.144   8.534  0.1355 -0.3401  0.0155
39817SOL    HW124008   1.015   1.190   8.559  0.0301 -0.8838  0.7161
39817SOL    HW224009   1.151   1.149   8.611  0.2898 -1.0034 -0.0452
39818SOL     OW24010   8.206   5.140   4.531  0.7627  0.7782 -0.1272
39818SOL    HW124011   8.144   5.106   4.597  0.7352 -0.9250 -0.9683
39818SOL    HW224012   8.173   5.228   4.511 -1.1344  0.1129 -0.1865
39819SOL     OW24013  10.741   8.936   6.656 -0.3967  0.3705  0.1602
39819SOL    HW124014  10.769   8.867   6.716 -0.5592 -0.7735 -1.0223
39819SOL    HW224015  10.646   8.933   6.659 -0.4122 -0.1915 -0.6845
39820SOL     OW24016   1.820   1.052   3.669  0.5004 -0.0338 -0.2826
39820SOL    HW124017   1.858   1.134   3.700  0.9500 -0.4386  0.2704
39820SOL    HW224018   1.766   1.077   3.594 -0.1915  0.9006  0.5016
39821SOL     OW24019   4.170  12.002   4.590 -0.2895  0.6825  0.3317
39821SOL    HW124020   4.159  12.056   4.511  0.6344 -0.7505 -0.8211
39821SOL    HW224021   4.092  11.946   4.591 -0.0751  0.3753  0.1507
39822SOL     OW24022   8.743   3.001   4.502  0.4175  0.1473  0.6332
39822SOL    HW124023   8.720   2.979   4.411 -0.6990  1.0289  0.6895
39822SOL    HW224024   8.719   2.923   4.552 -1.1158  0.4958  0.4801
39823SOL     OW24025  10.367   4.386   5.745 -0.6673  0.1259 -0.7808
39823SOL    HW124026  10.343   4.339   5.825 -1.9952  1.2398 -0.4891
39823SOL    HW224027  10.407   4.467   5.776 -0.1822  0.0745 -1.2649
39824SOL     OW24028   9.671   1.764   4.341 -0.3143  0.4024 -0.1170
39824SOL    HW124029   9.617   1.829   4.384 -0.3034 -0.9407  2.0640
39824SOL    HW224030   9.613   1.690   4.325  0.6512 -0.8497  1.7689
39825SOL     OW24031   5.531   0.660  10.332 -0.4285  0.2649  0.4274
39825SOL    HW124032   5.579   0.717  10.393  0.5143 -0.8434  0.7576
39825SOL    HW224033   5.529   0.710  10.251  0.2996  0.8208  0.7321
39826SOL     OW24034   0.633  12.096   1.290  0.4129  0.0669  0.7309
39826SOL    HW124035   0.629  12.192   1.286  1.0987  0.1198  1.1005
39826SOL    HW224036   0.676  12.070   1.209  0.0997  0.0565  0.5650
39827SOL     OW24037   2.698   9.252   6.441  0.0693  0.4121 -0.2307
39827SOL    HW124038   2.694   9.199   6.521 -0.1066  0.5417 -0.1543
39827SOL    HW224039   2.789   9.244   6.412 -0.0024 -0.0921 -0.3242
39828SOL     OW24040  11.486   9.655   7.014  0.1410  0.1645  0.4128
39828SOL    HW124041  11.460   9.570   6.977 -0.7142  0.6987 -0.2812
39828SOL    HW224042  11.453   9.653   7.104 -0.5998  0.0641  0.1483
39829SOL     OW24043   4.650   1.174   8.786  0.1254  0.2965 -0.1123
39829SOL    HW124044   4.561   1.207   8.786  0.4676  1.2514 -0.4109
39829SOL    HW224045   4.701   1.242   8.742  0.8507 -0.6429 -0.7749
39830SOL     OW24046  11.188   3.514   5.581 -0.5113 -0.5482 -0.3773
39830SOL    HW124047  11.151   3.547   5.499 -0.9286 -0.6943 -0.2458
39830SOL    HW224048  11.150   3.427   5.592  0.3531 -0.9689 -0.5666
39831SOL     OW24049   8.441   6.330   4.735 -0.2128 -0.6176  0.3895
39831SOL    HW124050   8.411   6.288   4.654  0.4600  0.0460 -0.2193
39831SOL    HW224051   8.451   6.422   4.711 -1.0616 -0.1970  1.5300
39832SOL     OW24052   1.034   9.884   9.949  0.0857  0.4913  0.0446
39832SOL    HW124053   1.059   9.973   9.973  0.0219  0.5487 -0.1043
39832SOL    HW224054   1.072   9.871   9.862  1.6842 -0.2621  0.8094
39833SOL     OW24055   6.665   0.077   6.304  0.0656 -0.3375 -0.3890
39833SOL    HW124056   6.605   0.006   6.325 -1.2033  0.7377 -0.2327
39833SOL    HW224057   6.723   0.083   6.380 -1.1117  0.0728  0.5106
39834SOL     OW24058   7.409   3.354  10.047 -0.7384 -0.4532  0.1912
39834SOL    HW124059   7.361   3.384  10.124 -1.6967  0.4283 -0.7138
39834SOL    HW224060   7.431   3.263  10.067 -0.8386 -0.2023  1.5576
39835SOL     OW24061   5.295   3.523   1.038 -0.1397  0.2265  0.7492
39835SOL    HW124062   5.386   3.540   1.014 -0.3932  0.3454 -0.1454
39835SOL    HW224063   5.287   3.559   1.127 -0.1052  3.0186 -0.2853
39836SOL     OW24064   2.443  11.931   7.289  0.2573 -0.3772 -0.1148
39836SOL    HW124065   2.373  11.985   7.252  0.0653 -0.7392 -0.2773
39836SOL    HW224066   2.398  11.865   7.341  0.5547  1.1466  2.2205
39837SOL     OW24067   0.325   2.696   5.429 -0.7580 -0.8034  0.7324
39837SOL    HW124068   0.411   2.717   5.393  0.0722 -2.7806  1.4381
39837SOL    HW224069   0.306   2.607   5.397 -1.0065 -1.7346  3.2189
39838SOL     OW24070  11.168  11.573   8.147  0.2857  0.5302  0.1937
39838SOL    HW124071  11.231  11.506   8.174  0.6184  0.5100 -0.6068
39838SOL    HW224072  11.123  11.597   8.228 -0.3798 -1.2141  0.3886
39839SOL     OW24073   5.652   7.682   3.833  0.1735 -0.1462  0.4676
39839SOL    HW124074   5.641   7.587   3.824  0.9182 -0.1718 -0.3414
39839SOL    HW224075   5.590   7.707   3.902 -0.7037 -1.0726  0.0431
39840SOL     OW24076   6.210   7.737   8.002  0.2027 -0.1810  0.1530
39840SOL    HW124077   6.165   7.656   7.978 -1.8237  1.0941 -0.6515
39840SOL    HW224078   6.291   7.736   7.951 -0.2628 -1.2598 -0.5852
39841SOL     OW24079   6.450   9.676   0.653 -0.5465  0.1665 -0.1629
39841SOL    HW124080   6.406   9.717   0.728  1.5263  1.1780  0.5688
39841SOL    HW224081   6.453   9.583   0.675 -0.8839  0.3029  0.4966
39842SOL     OW24082   3.750  12.064   4.153 -0.2745 -0.5185 -0.6373
39842SOL    HW124083   3.787  12.100   4.234  1.9513 -0.1947 -1.7214
39842SOL    HW224084   3.742  11.970   4.169 -1.2228 -0.2755  0.4278
39843SOL     OW24085   2.013   6.929   6.451 -0.4614 -0.5814 -0.2064
39843SOL    HW124086   2.016   7.018   6.415 -0.1960 -1.1738 -1.6893
39843SOL    HW224087   1.922   6.918   6.478 -0.6587 -0.1089 -0.6569
39844SOL     OW24088   8.381   9.742   5.431 -0.3333  0.6799 -0.0383
39844SOL    HW124089   8.301   9.696   5.405 -0.1554  0.5061 -0.2811
39844SOL    HW224090   8.393   9.719   5.523 -0.7182  0.9338  0.0785
39845SOL     OW24091   9.631   8.237   3.101  0.1798  0.0659 -0.0249
39845SOL    HW124092   9.670   8.215   3.016 -0.8438  0.8687 -0.7333
39845SOL    HW224093   9.649   8.331   3.112  1.8968 -0.4089  1.5311
39846SOL     OW24094   8.053   3.942   6.230  0.4791 -0.1258 -0.3271
39846SOL    HW124095   8.096   4.025   6.209 -0.3777  0.6671  0.8979
39846SOL    HW224096   8.000   3.922   6.153 -0.9298  1.5834  0.1231
39847SOL     OW24097   3.383   9.504   4.214 -0.0304 -0.6701 -0.1003
39847SOL    HW124098   3.433   9.459   4.282  1.2696  0.3558 -0.3356
39847SOL    HW224099   3.394   9.450   4.136  0.5321 -0.5983 -0.0809
39848SOL     OW24100   4.241  10.092   4.450  0.2630 -0.4299  0.4684
39848SOL    HW124101   4.204  10.031   4.515 -0.8795 -0.7515 -0.4498
39848SOL    HW224102   4.165  10.121   4.399  1.0312  0.4599 -0.1925
39849SOL     OW24103  11.858   6.619   6.803  0.1279 -0.4103 -0.4703
39849SOL    HW124104  11.913   6.572   6.866  0.5154  1.1838  0.4443
39849SOL    HW224105  11.911   6.623   6.724  0.4973 -0.6654 -0.2429
39850SOL     OW24106   7.754  10.098   2.816  0.1272 -0.3246  0.2387
39850SOL    HW124107   7.705  10.041   2.756 -1.8233  1.3780  0.1074
39850SOL    HW224108   7.830  10.125   2.765  0.4672 -1.8211 -0.1126
39851SOL     OW24109   8.550  10.330   9.091 -0.0481  0.1783  0.3162
39851SOL    HW124110   8.496  10.407   9.109 -0.5161 -0.5330  2.1726
39851SOL    HW224111   8.490  10.256   9.099  0.2690 -0.4084 -1.9844
39852SOL     OW24112   3.728   6.666   1.406 -0.0310  0.1458  0.5612
39852SOL    HW124113   3.720   6.650   1.500 -0.1583 -1.7273  0.2779
39852SOL    HW224114   3.811   6.625   1.382  0.0964  0.7788 -0.1187
39853SOL     OW24115   3.421   2.467   4.982  0.2652  0.0070 -0.2278
39853SOL    HW124116   3.456   2.554   4.963  1.2664 -0.5809 -1.1813
39853SOL    HW224117   3.497   2.408   4.974 -0.6130 -1.0909 -0.7022
39854SOL     OW24118  11.591   4.437   8.627  0.1133 -0.3581  0.4867
39854SOL    HW124119  11.680   4.469   8.635 -0.7845  2.5492 -0.1130
39854SOL    HW224120  11.575   4.434   8.532 -0.3045 -1.2918  0.5726
39855SOL     OW24121   2.652   7.891   7.681  0.4401  0.3633 -0.3608
39855SOL    HW124122   2.589   7.916   7.749 -0.9685 -0.2290 -1.3811
39855SOL    HW224123   2.625   7.942   7.604  0.5553 -0.6511 -1.0982
39856SOL     OW24124   6.925   9.565   0.112 -0.9428 -0.2808  0.4410
39856SOL    HW124125   6.894   9.505   0.180 -1.4655 -0.4025  0.0993
39856SOL    HW224126   6.980   9.628   0.159  0.7190 -1.7926  0.6189
39857SOL     OW24127  11.798   2.454   7.304  0.4381  0.5408  0.3317
39857SOL    HW124128  11.824   2.455   7.213  1.0905  4.0082  0.4192
39857SOL    HW224129  11.728   2.519   7.310  0.3868  0.3812  2.2798
39858SOL     OW24130   5.339   1.613   6.071  0.2745 -0.1196 -0.7787
39858SOL    HW124131   5.416   1.648   6.026  1.0306  2.2223  2.0087
39858SOL    HW224132   5.375   1.556   6.139 -0.3415  1.3138  0.8124
39859SOL     OW24133   8.793   6.741   9.480  0.3003  0.6716 -0.3865
39859SOL    HW124134   8.762   6.832   9.479  0.1939  0.6443 -1.4934
39859SOL    HW224135   8.876   6.744   9.527  0.4003  1.3858 -0.6008
39860SOL     OW24136   7.640   9.310  11.640  0.8108  0.1283 -0.0847
39860SOL    HW124137   7.672   9.327  11.729  0.5012  0.5365 -0.0506
39860SOL    HW224138   7.576   9.379  11.624  1.0246  0.1873 -0.7085
39861SOL     OW24139   7.762   8.507   9.706 -0.4981 -0.0419 -0.4376
39861SOL    HW124140   7.800   8.530   9.621 -0.2397 -0.9491 -0.5852
39861SOL    HW224141   7.794   8.418   9.723 -1.2986 -0.2249  0.1776
39862SOL     OW24142  10.309   6.194   1.349 -0.4840 -0.0712 -0.2863
39862SOL    HW124143  10.222   6.186   1.310 -1.1926 -3.4373  1.5785
39862SOL    HW224144  10.297   6.256   1.421 -0.9542  0.6286 -0.9611
39863SOL     OW24145   7.182   2.338  11.256  0.1633 -0.5939  0.3944
39863SOL    HW124146   7.250   2.340  11.324  1.0481  2.8896 -0.3899
39863SOL    HW224147   7.100   2.330  11.304  0.8338  0.6284  1.8271
39864SOL     OW24148   2.657  12.015   2.973 -0.0029  0.0725  0.1540
39864SOL    HW124149   2.629  12.017   3.065 -0.5024  1.7849 -0.0121
39864SOL    HW224150   2.674  12.106   2.951  0.6673 -0.3760 -1.3084
39865SOL     OW24151   5.850   9.159   1.793  0.1422 -0.1394 -0.3289
39865SOL    HW124152   5.897   9.178   1.711 -0.5884 -0.2001 -0.7689
39865SOL    HW224153   5.764   9.128   1.765 -0.0084 -0.4585  0.4640
39866SOL     OW24154   1.725   2.352   9.223  0.3741 -0.7230  0.3030
39866SOL    HW124155   1.765   2.319   9.142  0.0194 -0.4385  0.0057
39866SOL    HW224156   1.674   2.428   9.194  0.4541 -0.4618  0.8348
39867SOL     OW24157   7.389   2.866   8.474 -0.2806 -0.1839 -0.0616
39867SOL    HW124158   7.337   2.815   8.536 -1.4580 -1.8491 -2.2838
39867SOL    HW224159   7.468   2.815   8.462  0.5373  0.7785  0.9351
39868SOL     OW24160   4.005   1.060   0.438  0.0628 -0.3472  0.2576
39868SOL    HW124161   3.955   1.028   0.513 -0.3256  0.1715  0.2242
39868SOL    HW224162   3.992   0.994   0.370 -2.0687  0.6518 -0.3644
39869SOL     OW24163   1.350   0.665   1.669 -0.3326 -0.3978 -0.2187
39869SOL    HW124164   1.388   0.748   1.699 -2.3048  1.0038 -1.3221
39869SOL    HW224165   1.266   0.659   1.716  0.3670 -2.5328  0.8975
39870SOL     OW24166  11.706   8.808   4.263 -0.0021 -0.8916 -0.2029
39870SOL    HW124167  11.736   8.824   4.174  0.5027 -0.9389 -0.0433
39870SOL    HW224168  11.735   8.718   4.282 -0.4183 -1.0090 -0.1174
39871SOL     OW24169   3.584   3.844  11.023 -0.1058 -0.0535 -0.3624
39871SOL    HW124170   3.537   3.826  11.104 -2.6972  2.0417 -1.2609
39871SOL    HW224171   3.670   3.877  11.051 -1.0610  0.9253  1.5730
39872SOL     OW24172  11.384   1.680   1.156  0.0544  0.3206 -0.5760
39872SOL    HW124173  11.439   1.696   1.232  1.7589  0.2305 -1.7235
39872SOL    HW224174  11.294   1.687   1.188  0.7259  1.7175  1.1146
39873SOL     OW24175   8.494   7.178   6.945  0.1752 -0.3639 -0.2105
39873SOL    HW124176   8.420   7.122   6.922  0.4275 -0.9986  0.4735
39873SOL    HW224177   8.493   7.179   7.041  1.2251 -0.6170 -0.1912
39874SOL     OW24178   4.599   5.592   5.286  0.2859  0.3050 -0.0428
39874SOL    HW124179   4.514   5.548   5.289 -0.0161  0.9338  1.0907
39874SOL    HW224180   4.591   5.655   5.214 -0.1225  0.2027 -0.0916
39875SOL     OW24181   4.208   7.735   3.783  0.1610 -0.1654 -0.4318
39875SOL    HW124182   4.287   7.715   3.733  0.2893 -0.5205 -0.0918
39875SOL    HW224183   4.169   7.809   3.737 -0.3266 -1.1807 -1.7265
39876SOL     OW24184  10.457  11.818   1.517  0.4869  0.4046 -0.0296
39876SOL    HW124185  10.398  11.742   1.521  0.1769  0.6768  1.1160
39876SOL    HW224186  10.466  11.837   1.424 -1.7965  0.7961 -0.2139
39877SOL     OW24187  11.849   0.520   6.389 -0.2181  0.6166 -0.3184
39877SOL    HW124188  11.925   0.564   6.350 -2.4228  4.9422 -0.3703
39877SOL    HW224189  11.794   0.497   6.314 -0.2356  0.1686 -0.1680
39878SOL     OW24190   0.558  11.640   1.242  0.0117  0.1198  0.3638
39878SOL    HW124191   0.566  11.544   1.247 -2.0268 -0.4395 -3.5318
39878SOL    HW224192   0.645  11.669   1.215  0.4817 -0.6711  0.9631
39879SOL     OW24193   1.264   5.805   4.588  0.4751  0.0145 -0.0393
39879SOL    HW124194   1.286   5.898   4.593  0.9642 -0.1105  0.2068
39879SOL    HW224195   1.226   5.794   4.502 -1.0469  0.7480  0.5078
39880SOL     OW24196   4.240   2.761   2.179 -0.0530  0.2116  0.0945
39880SOL    HW124197   4.161   2.781   2.129 -0.2914  2.0241  1.0895
39880SOL    HW224198   4.224   2.801   2.265  1.8951  0.5482  0.3514
39881SOL     OW24199   9.083   6.294   6.480  0.2675  0.3562  0.2694
39881SOL    HW124200   9.122   6.228   6.422  4.2244  1.2746  1.6249
39881SOL    HW224201   9.002   6.253   6.511  0.6241 -2.2438 -1.8641
39882SOL     OW24202   0.606  10.032  10.853 -0.3561 -0.1199  0.1888
39882SOL    HW124203   0.611  10.106  10.914  1.0320  0.8216 -1.0079
39882SOL    HW224204   0.521  10.043  10.810 -0.8147 -0.0960  1.0683
39883SOL     OW24205   9.940  11.050  10.038 -0.4307  0.7263  0.1548
39883SOL    HW124206   9.948  10.958  10.012  1.0423  0.6447  0.7889
39883SOL    HW224207   9.873  11.050  10.106 -0.9570  0.2420 -0.3520
39884SOL     OW24208   0.805  11.023   0.421  0.1894  0.0232 -0.1398
39884SOL    HW124209   0.792  10.928   0.413 -0.6572  0.2383 -1.5813
39884SOL    HW224210   0.736  11.052   0.481  1.4273 -0.4503  1.6066
39885SOL     OW24211  10.979  10.935   4.441 -0.3932 -0.1471 -0.2151
39885SOL    HW124212  11.049  10.976   4.491 -0.5161  0.5653 -0.6158
39885SOL    HW224213  10.990  10.969   4.352  0.8020 -2.5575 -1.1100
39886SOL     OW24214  11.023   2.523  11.989  0.3548  0.2246 -0.2725
39886SOL    HW124215  10.952   2.561  11.938  1.4636 -0.2438 -2.2548
39886SOL    HW224216  10.999   2.431  11.998  0.6794  0.0733 -0.9144
39887SOL     OW24217  12.022   2.942   5.279  0.1039  0.1110 -0.2223
39887SOL    HW124218  12.000   3.035   5.285 -0.6639 -0.1588  3.5304
39887SOL    HW224219  12.118   2.940   5.282  0.2505  0.7586 -2.4632
39888SOL     OW24220   0.161   7.833   6.891  0.1608  0.3895 -0.0361
39888SOL    HW124221   0.171   7.927   6.877 -1.6457  0.4591 -1.2307
39888SOL    HW224222   0.198   7.817   6.977  0.9692  2.1027 -0.0346
39889SOL     OW24223  11.953   2.161   1.140  0.0885  0.5185  0.2800
39889SOL    HW124224  11.887   2.092   1.142  1.0792 -0.6943 -2.6489
39889SOL    HW224225  12.021   2.131   1.202 -0.1202 -0.4676  0.0493
39890SOL     OW24226  10.253   3.420   3.901 -0.2821  0.4633  0.4591
39890SOL    HW124227  10.332   3.472   3.920 -0.8243  1.7056 -0.5392
39890SOL    HW224228  10.287   3.333   3.878  1.1095  1.6345 -2.5728
39891SOL     OW24229  11.112   6.706   7.005  0.4479 -0.2903 -0.0518
39891SOL    HW124230  11.168   6.693   6.928  0.9935 -1.2774  0.4971
39891SOL    HW224231  11.108   6.620   7.047 -0.6919 -0.0093  0.4641
39892SOL     OW24232   1.625   1.415   3.670 -0.1536 -0.1384  0.3328
39892SOL    HW124233   1.655   1.483   3.731 -0.7982 -0.3074  0.8516
39892SOL    HW224234   1.626   1.457   3.585 -1.0311  0.6905  0.7168
39893SOL     OW24235   3.079   0.912  11.964  0.0593 -0.0778  0.3048
39893SOL    HW124236   3.004   0.916  11.905  0.6666 -0.9462 -0.5535
39893SOL    HW224237   3.059   0.976  12.033 -1.8002 -0.8026  0.5014
39894SOL     OW24238   3.310   7.908   3.977 -0.1230 -0.1971  0.2741
39894SOL    HW124239   3.302   7.884   4.070 -0.9134 -0.6508  0.0937
39894SOL    HW224240   3.402   7.892   3.957  0.2526  0.6615  1.1819
39895SOL     OW24241   5.109   9.531   0.586  0.0381 -0.5396  0.2747
39895SOL    HW124242   5.183   9.475   0.562  2.9747  3.4520 -1.0604
39895SOL    HW224243   5.079   9.569   0.504 -0.0345  1.7229  1.2571
39896SOL     OW24244   1.832   3.795  11.441 -0.2171 -0.1921 -0.9423
39896SOL    HW124245   1.750   3.763  11.479 -0.1875  0.5544 -0.2281
39896SOL    HW224246   1.897   3.728  11.466 -0.4938 -0.4856 -1.0028
39897SOL     OW24247   2.069   8.382   1.544 -0.1367  0.0471 -0.1430
39897SOL    HW124248   2.089   8.306   1.489  1.1692 -0.4228  0.9278
39897SOL    HW224249   2.122   8.453   1.508  0.9332 -0.3311  0.6337
39898SOL     OW24250   7.337   5.410   2.062 -0.5384  0.5986 -0.1751
39898SOL    HW124251   7.293   5.384   2.143  0.2898  2.3995  0.9360
39898SOL    HW224252   7.419   5.361   2.063 -1.2326 -0.6109 -0.7891
39899SOL     OW24253   1.618   5.444   6.088 -0.2510 -0.6773 -0.1972
39899SOL    HW124254   1.597   5.428   6.180 -1.4798  0.8245 -0.1800
39899SOL    HW224255   1.545   5.496   6.055 -0.0820 -1.6007 -2.1762
39900SOL     OW24256   5.516   7.222  11.067 -0.1045 -0.1781  0.0232
39900SOL    HW124257   5.512   7.317  11.054 -0.9450 -0.3650 -1.1608
39900SOL    HW224258   5.426   7.196  11.088  0.1711 -0.6856  0.6146
39901SOL     OW24259   1.462  10.894   5.237 -0.4656 -0.1485 -0.0841
39901SOL    HW124260   1.417  10.867   5.316  0.5832 -2.6274 -0.2266
39901SOL    HW224261   1.528  10.956   5.267 -1.0983  0.1403  0.7403
39902SOL     OW24262   2.091   8.438   5.498  1.2679 -0.2881 -0.0505
39902SOL    HW124263   2.031   8.428   5.572  1.2847 -0.2418 -0.0304
39902SOL    HW224264   2.037   8.419   5.421  1.0620  0.3908 -0.0799
39903SOL     OW24265   3.368   0.649   5.449  0.2389 -0.0108 -0.5117
39903SOL    HW124266   3.310   0.686   5.515  0.1289 -0.2625 -0.4676
39903SOL    HW224267   3.440   0.610   5.500 -0.6950 -1.7305 -0.4287
39904SOL     OW24268  11.368   1.923   5.108  0.1383  0.5633 -0.2945
39904SOL    HW124269  11.402   2.007   5.076  1.4849 -0.4260 -1.6325
39904SOL    HW224270  11.396   1.918   5.199  1.2740  0.9835 -0.6042
39905SOL     OW24271   9.143   8.583   7.583  0.8724  0.0625  0.2470
39905SOL    HW124272   9.117   8.655   7.640  1.4140  0.5629 -0.1272
39905SOL    HW224273   9.131   8.616   7.494  0.0206 -0.7161  0.0557
39906SOL     OW24274  11.572   6.007   8.047 -0.3771 -0.0483  0.3000
39906SOL    HW124275  11.512   5.952   7.996 -0.9481 -0.3489  1.2701
39906SOL    HW224276  11.563   5.975   8.136  1.1146  0.0212  0.4989
39907SOL     OW24277   1.422  10.756   2.897 -0.1853  0.5283 -0.4441
39907SOL    HW124278   1.516  10.754   2.912 -0.3958  2.3142  1.7060
39907SOL    HW224279   1.408  10.699   2.821  2.4175 -1.0050  0.1030
39908SOL     OW24280   2.828  11.668   5.431 -0.4480 -0.1639  0.4959
39908SOL    HW124281   2.790  11.609   5.365 -0.6284 -0.0185  0.4656
39908SOL    HW224282   2.754  11.690   5.488 -0.8415  1.4982 -0.5702
39909SOL     OW24283   8.345   3.438   5.528  0.4701  0.2031 -0.1211
39909SOL    HW124284   8.336   3.344   5.544 -1.1193 -0.4089 -3.6007
39909SOL    HW224285   8.274   3.478   5.578 -0.7372 -0.8712 -0.8944
39910SOL     OW24286  10.549   1.883   4.956  0.2061 -0.1702 -0.6606
39910SOL    HW124287  10.640   1.852   4.961  0.1031 -0.6338 -1.3924
39910SOL    HW224288  10.510   1.830   4.886 -0.4637  0.4457 -0.7642
39911SOL     OW24289   9.290  10.277   4.614  0.1269  0.1842 -0.0821
39911SOL    HW124290   9.362  10.310   4.668 -0.4638  0.6676  0.4076
39911SOL    HW224291   9.301  10.181   4.618  0.7127  0.2469  0.0205
39912SOL     OW24292  11.577   6.018  10.670 -0.3196  0.7066  0.3552
39912SOL    HW124293  11.550   6.109  10.665 -0.4109  0.7136  0.8834
39912SOL    HW224294  11.495   5.969  10.680 -0.3203  0.5097 -0.4994
39913SOL     OW24295   4.974   4.423   2.173  0.5596  0.8288  0.0720
39913SOL    HW124296   4.903   4.418   2.237  0.0162  0.2776 -0.5641
39913SOL    HW224297   4.931   4.420   2.088  1.2798  1.5559 -0.3306
39914SOL     OW24298   2.575  10.986   8.562 -0.0532  0.5785 -0.3411
39914SOL    HW124299   2.484  11.015   8.575  0.9198  2.4588  3.5774
39914SOL    HW224300   2.628  11.064   8.581  2.4791 -0.6455 -1.8525
39915SOL     OW24301   0.555   4.064   8.901 -0.5139  0.2166 -0.0190
39915SOL    HW124302   0.557   4.127   8.973 -1.3070  0.7562 -0.4507
39915SOL    HW224303   0.475   4.013   8.916 -0.0924 -0.4380  0.0975
39916SOL     OW24304  10.430   9.787   4.104 -0.2088  0.1590 -0.7329
39916SOL    HW124305  10.431   9.705   4.152 -1.3637  0.0304 -0.9033
39916SOL    HW224306  10.445   9.762   4.013  0.2077  0.2214 -0.6836
39917SOL     OW24307   1.770   1.423   1.092  0.2420  0.3384 -0.1840
39917SOL    HW124308   1.751   1.370   1.169  0.8634  0.3298 -0.0268
39917SOL    HW224309   1.865   1.414   1.080  0.3518  1.3732 -0.1803
39918SOL     OW24310   8.051   9.408  12.087  0.1352  0.2239  0.1400
39918SOL    HW124311   8.028   9.494  12.124 -0.4087  0.0837  0.1388
39918SOL    HW224312   8.125   9.379  12.139  0.2216  0.6249  0.2471
39919SOL     OW24313   0.557   0.004   0.948 -0.0445  0.2713  0.0824
39919SOL    HW124314   0.477   0.017   0.896 -0.3075 -1.3701  0.0104
39919SOL    HW224315   0.558  -0.090   0.967  0.9919  0.5464  1.5458
39920SOL     OW24316   0.816   5.748   3.164  0.1524 -0.0242 -0.1061
39920SOL    HW124317   0.755   5.676   3.152  0.2646 -0.1837  0.2392
39920SOL    HW224318   0.784   5.794   3.242  0.9250 -0.5955  0.5709
39921SOL     OW24319  10.359   8.028   4.999 -0.0525  0.1521  0.5468
39921SOL    HW124320  10.316   7.989   5.075 -1.5342  1.4442  0.4232
39921SOL    HW224321  10.394   8.111   5.031 -0.4957  0.6065 -0.1136
39922SOL     OW24322   4.114  11.311   0.222  0.0840 -0.5270  0.1082
39922SOL    HW124323   4.052  11.283   0.155  0.3323  2.8769 -1.7535
39922SOL    HW224324   4.168  11.377   0.179 -0.2773  2.5761  3.8515
39923SOL     OW24325   9.177   3.566   4.784 -0.3396  0.5233  0.3150
39923SOL    HW124326   9.244   3.625   4.750 -1.8434  1.5040 -1.1213
39923SOL    HW224327   9.183   3.489   4.726 -0.5163  0.6568  0.1174
39924SOL     OW24328   6.217   3.623   1.403  0.1016 -0.2477 -0.4049
39924SOL    HW124329   6.295   3.589   1.360 -0.1586  0.5592 -1.5667
39924SOL    HW224330   6.202   3.708   1.362  0.3980  1.0410  2.0145
39925SOL     OW24331   2.585  11.180   1.018 -0.3708  0.7560  0.2225
39925SOL    HW124332   2.511  11.192   1.077 -1.0424 -0.7559 -0.2845
39925SOL    HW224333   2.551  11.204   0.932 -0.9744 -1.9694 -0.3798
39926SOL     OW24334   0.615  11.093  11.653 -0.1466 -0.0328 -0.1983
39926SOL    HW124335   0.639  11.070  11.564 -0.0082  2.0496 -0.7605
39926SOL    HW224336   0.526  11.129  11.645  0.1336  0.8169  0.3708
39927SOL     OW24337  10.452   6.959  10.141  0.2997 -0.2742  0.0833
39927SOL    HW124338  10.541   6.925  10.125 -0.1320 -2.0046  1.0848
39927SOL    HW224339  10.436   6.940  10.234 -1.0546  0.1572 -0.0501
39928SOL     OW24340   7.225   8.740   2.435  0.1120  0.2666  0.0164
39928SOL    HW124341   7.304   8.779   2.398  1.4178 -0.2247  2.1457
39928SOL    HW224342   7.179   8.812   2.477  0.6256  0.1551  0.7725
39929SOL     OW24343   0.552   7.617   2.061 -0.0703 -0.3427  0.0689
39929SOL    HW124344   0.589   7.529   2.067  0.7453 -0.2738 -2.6571
39929SOL    HW224345   0.565   7.643   1.970 -1.2446  2.2085  0.5240
39930SOL     OW24346   8.952   8.431  10.315 -0.3842 -0.0349  0.7782
39930SOL    HW124347   9.027   8.483  10.285 -0.8858 -0.2334 -0.9139
39930SOL    HW224348   8.887   8.496  10.342 -1.4078  0.3703 -2.2880
39931SOL     OW24349   2.568   8.123   4.859  0.9350 -0.0109 -0.6100
39931SOL    HW124350   2.518   8.072   4.796  0.6101 -1.5859  0.8634
39931SOL    HW224351   2.581   8.064   4.934  0.8032  1.9485  1.0530
39932SOL     OW24352   2.736   7.067   2.926 -0.4552 -0.0629  0.0196
39932SOL    HW124353   2.678   7.096   2.996 -1.5440 -0.6500 -0.6105
39932SOL    HW224354   2.813   7.032   2.971 -0.7029  0.4798  0.8834
39933SOL     OW24355  10.233  12.046   7.084  0.0431  0.4668 -0.5339
39933SOL    HW124356  10.278  11.976   7.039  0.3464  0.8020 -0.7586
39933SOL    HW224357  10.281  12.056   7.167 -0.9567 -0.6391  0.2042
39934SOL     OW24358   3.654  10.028   3.323 -0.1654 -0.1839 -0.2582
39934SOL    HW124359   3.690   9.939   3.324  2.4366  0.7193  1.9456
39934SOL    HW224360   3.708  10.075   3.260 -0.7568  0.1061 -0.5539
39935SOL     OW24361  11.391   6.876   2.867  0.5284 -0.4848  0.1963
39935SOL    HW124362  11.380   6.905   2.957 -1.1160  1.0598 -0.4335
39935SOL    HW224363  11.484   6.891   2.848  0.3918  1.4759  0.8961
39936SOL     OW24364   2.818   5.899  10.201  0.2066 -0.0976 -0.2584
39936SOL    HW124365   2.868   5.979  10.219  0.6437 -0.6624  1.1626
39936SOL    HW224366   2.765   5.886  10.280  2.2519 -2.7331  0.8232
39937SOL     OW24367   0.890   3.366  12.080 -0.2618  0.3500  0.4599
39937SOL    HW124368   0.970   3.382  12.029  0.1181  0.2766  1.0150
39937SOL    HW224369   0.821   3.354  12.015  0.7580 -3.0291 -0.1840
39938SOL     OW24370  10.586   6.403   6.226  0.1252  1.0680 -0.1143
39938SOL    HW124371  10.540   6.481   6.259  0.2749  0.8066  0.7350
39938SOL    HW224372  10.647   6.380   6.296 -0.9524 -0.6898  0.2833
39939SOL     OW24373   6.129  11.496   9.914  0.0173  0.1528  0.0104
39939SOL    HW124374   6.100  11.420   9.863 -0.3569  0.0876  0.3240
39939SOL    HW224375   6.103  11.477  10.004  3.2316 -1.1086  0.8328
39940SOL     OW24376   3.205  11.299   6.898  0.1685  0.4283 -0.4696
39940SOL    HW124377   3.239  11.369   6.953  2.3903 -0.5260 -0.5453
39940SOL    HW224378   3.192  11.225   6.957 -1.6166  0.6760 -0.4933
39941SOL     OW24379  11.134   4.728   8.384 -0.0288  0.0666 -0.3914
39941SOL    HW124380  11.058   4.693   8.338  0.2581 -0.4967 -0.4360
39941SOL    HW224381  11.131   4.687   8.470 -1.6874  2.5641  0.8770
39942SOL     OW24382  11.695  10.166   7.602 -0.0149 -0.2537  0.2503
39942SOL    HW124383  11.777  10.214   7.596 -0.3963  0.4263  0.3531
39942SOL    HW224384  11.713  10.082   7.559  0.1106  0.7316 -1.7642
39943SOL     OW24385   5.951   8.049   5.271 -0.1598 -0.2345 -0.3195
39943SOL    HW124386   5.873   8.062   5.325  0.3700 -0.3180  0.4854
39943SOL    HW224387   6.000   8.131   5.279  1.0151 -1.0261  1.1732
39944SOL     OW24388   2.550   3.330   4.110 -0.4931  0.8136 -0.3257
39944SOL    HW124389   2.481   3.280   4.067  1.1308 -1.3817 -0.5383
39944SOL    HW224390   2.566   3.404   4.052 -0.3392 -0.5185 -2.0464
39945SOL     OW24391   3.964   3.495  11.334  0.7058 -0.4781  0.4434
39945SOL    HW124392   4.017   3.501  11.413  2.1151  1.8954 -0.5751
39945SOL    HW224393   3.898   3.563  11.344 -0.5770 -1.7012  0.5537
39946SOL     OW24394   7.222   8.949   3.166 -0.2987  0.4090  0.0683
39946SOL    HW124395   7.204   8.856   3.180 -0.3668  0.5159  0.7395
39946SOL    HW224396   7.301   8.951   3.113 -0.9324 -0.0443 -0.9084
39947SOL     OW24397   7.284   4.570   5.294 -0.0783  0.1016 -0.2513
39947SOL    HW124398   7.212   4.628   5.272 -0.3648 -0.3637 -0.5670
39947SOL    HW224399   7.343   4.623   5.347  0.0813  0.9327 -1.2173
39948SOL     OW24400   3.216   3.402   5.814 -0.8135 -0.3845 -0.8754
39948SOL    HW124401   3.262   3.448   5.744  2.5521 -1.3108  0.5259
39948SOL    HW224402   3.202   3.313   5.780 -0.8388 -0.3315 -1.0045
39949SOL     OW24403   7.935  11.505  10.583  0.5844 -0.5171  0.2541
39949SOL    HW124404   7.887  11.501  10.501  0.2073  0.7881  0.3924
39949SOL    HW224405   7.883  11.452  10.644 -0.5214  0.5578  0.3008
39950SOL     OW24406   3.104  11.730   6.867 -0.5525 -0.4828 -0.1277
39950SOL    HW124407   3.124  11.766   6.781 -0.8436  2.6413  0.9794
39950SOL    HW224408   3.009  11.741   6.876 -0.4667 -0.3850  0.7122
39951SOL     OW24409   2.901  11.324  11.631 -0.2528 -0.0481  0.1203
39951SOL    HW124410   2.846  11.249  11.609  0.1223 -0.1784 -0.3977
39951SOL    HW224411   2.959  11.290  11.700 -0.3007 -0.1368  0.1176
39952SOL     OW24412  11.878   0.774   8.133 -0.1713 -0.3422 -0.0006
39952SOL    HW124413  11.838   0.855   8.165 -1.1138 -0.7354 -0.1228
39952SOL    HW224414  11.933   0.802   8.060 -0.4622  0.1970 -0.0235
39953SOL     OW24415  10.287   4.353   4.089  0.5190 -0.0657 -0.5128
39953SOL    HW124416  10.198   4.356   4.125  0.6270  1.1112 -0.3030
39953SOL    HW224417  10.341   4.324   4.163  0.3873 -0.2338 -0.4816
39954SOL     OW24418   7.375   5.899   2.858 -0.4551  0.1142 -0.1326
39954SOL    HW124419   7.355   5.854   2.940 -0.0094  0.3182  0.0897
39954SOL    HW224420   7.308   5.968   2.852  1.0894  1.8837  1.4524
39955SOL     OW24421   3.736   0.229   0.441  0.3449  0.1275 -0.4123
39955SOL    HW124422   3.645   0.221   0.411 -0.4154 -0.7130  1.8325
39955SOL    HW224423   3.746   0.321   0.465 -0.1204  0.1160 -0.1541
39956SOL     OW24424  11.435   0.385   0.050 -0.0657  0.1578 -0.0670
39956SOL    HW124425  11.373   0.399   0.121  0.4752 -1.2451  0.7270
39956SOL    HW224426  11.413   0.299   0.015  0.6429  0.1829 -0.5992
39957SOL     OW24427   9.706   4.497   9.862  0.0584 -0.2982  0.0978
39957SOL    HW124428   9.800   4.482   9.868  0.3157  1.1703  0.2636
39957SOL    HW224429   9.668   4.441   9.930  0.6319 -2.0262 -0.9350
39958SOL     OW24430   1.914   9.835   0.110  0.4713 -0.6163  0.5341
39958SOL    HW124431   1.903   9.782   0.188 -0.8332 -0.8200  0.2405
39958SOL    HW224432   2.004   9.819   0.081  0.6589 -1.2569  1.4508
39959SOL     OW24433   3.648  11.201   7.269 -0.4163  0.0347 -0.0719
39959SOL    HW124434   3.722  11.144   7.290 -0.7716 -0.2101  0.5562
39959SOL    HW224435   3.686  11.271   7.215 -0.2112 -1.4657 -1.9465
39960SOL     OW24436   0.397   1.831   0.120  0.3880 -0.5845 -0.5352
39960SOL    HW124437   0.307   1.838   0.153  0.9378 -0.4745  1.0193
39960SOL    HW224438   0.403   1.901   0.055 -0.8534 -1.0396 -1.1753
39961SOL     OW24439   7.676   1.463  10.138  0.5354  0.0079 -0.3641
39961SOL    HW124440   7.609   1.524  10.107  1.9788  1.4019 -0.8639
39961SOL    HW224441   7.699   1.495  10.225 -1.2986 -2.0750  0.9947
39962SOL     OW24442   2.541   2.739   5.518  0.0064  0.2640  0.0606
39962SOL    HW124443   2.476   2.677   5.487 -0.2232  0.7142 -0.3756
39962SOL    HW224444   2.591   2.763   5.440  0.4731  0.1788  0.3311
39963SOL     OW24445   7.635   5.247   9.121  0.3321  0.3029 -0.0637
39963SOL    HW124446   7.559   5.241   9.179  0.2717  0.8896 -0.0747
39963SOL    HW224447   7.685   5.322   9.155  0.9336 -0.1036 -0.0256
39964SOL     OW24448   1.734   3.215   9.567 -0.1138  0.1633  0.0324
39964SOL    HW124449   1.828   3.200   9.556  0.0165 -0.0833  1.2823
39964SOL    HW224450   1.693   3.132   9.540  0.1661 -0.3469  1.1179
39965SOL     OW24451  10.885   2.253   5.577  0.5727 -0.5894  1.0550
39965SOL    HW124452  10.814   2.312   5.551  0.5830 -0.2266  1.8073
39965SOL    HW224453  10.961   2.281   5.526  0.2522 -0.7931  0.4558
39966SOL     OW24454  10.261  11.133   5.816 -0.3278 -0.2948  0.2363
39966SOL    HW124455  10.255  11.068   5.886  0.5506  2.0719  2.6679
39966SOL    HW224456  10.355  11.143   5.800 -0.4685  0.0826 -0.4144
39967SOL     OW24457   8.237   7.438  11.952  0.0390  0.1775  0.2602
39967SOL    HW124458   8.206   7.524  11.925 -0.5721 -0.8148 -2.4765
39967SOL    HW224459   8.300   7.413  11.884  0.6421 -1.3153  1.3137
39968SOL     OW24460   2.705   5.727   5.597  0.5516  0.2759 -0.4786
39968SOL    HW124461   2.725   5.780   5.521  1.3739  0.6436 -0.0163
39968SOL    HW224462   2.621   5.761   5.629 -0.2126 -0.4254 -1.6744
39969SOL     OW24463  11.139   7.539   1.237  0.0291  0.1546 -0.0756
39969SOL    HW124464  11.230   7.565   1.248  0.0183 -0.1626  0.8534
39969SOL    HW224465  11.139   7.486   1.157  0.5010  0.8384 -0.5375
39970SOL     OW24466   5.222  10.569  11.235  0.1114 -0.0921  0.2845
39970SOL    HW124467   5.212  10.663  11.246  1.5343  0.0204  0.8810
39970SOL    HW224468   5.145  10.531  11.277 -0.7161  0.8031 -0.3749
39971SOL     OW24469   2.853   1.769   5.309 -0.5410 -0.6308 -0.0930
39971SOL    HW124470   2.848   1.825   5.386 -2.4136 -0.9094  0.0409
39971SOL    HW224471   2.767   1.728   5.304  0.5639 -3.0597 -0.5191
39972SOL     OW24472   2.942  11.099   9.054  0.2880  0.3642  0.5197
39972SOL    HW124473   2.982  11.062   9.134 -0.1032 -0.0614  0.5192
39972SOL    HW224474   2.983  11.050   8.983  1.8716  1.8679  0.3456
39973SOL     OW24475  10.613   7.269   2.386 -0.6910  0.1365  0.1041
39973SOL    HW124476  10.682   7.203   2.380  1.2170  2.1230 -1.6943
39973SOL    HW224477  10.545   7.238   2.327  0.2054 -0.2498 -0.7611
39974SOL     OW24478   2.919   1.601   3.236  0.0216 -0.1282  0.0340
39974SOL    HW124479   2.859   1.546   3.286  1.4068 -1.4899  0.2766
39974SOL    HW224480   2.955   1.543   3.169 -0.4020  1.1862 -1.3904
39975SOL     OW24481   2.221   3.137   8.871 -0.6385 -0.2846  0.3683
39975SOL    HW124482   2.284   3.158   8.940 -0.0338  0.0281 -0.2691
39975SOL    HW224483   2.147   3.097   8.918 -0.5256  0.5191  1.2677
39976SOL     OW24484   5.899   3.245   2.627  0.1793 -0.0218 -0.0574
39976SOL    HW124485   5.912   3.333   2.663  0.7863  0.2257 -0.8590
39976SOL    HW224486   5.839   3.203   2.688 -0.6852  1.1899 -0.0397
39977SOL     OW24487   3.311  10.123   5.255  0.2755 -0.3786  0.2390
39977SOL    HW124488   3.365  10.130   5.334  1.3805  1.1046 -0.5953
39977SOL    HW224489   3.345  10.045   5.210 -0.0913 -0.9957  1.0021
39978SOL     OW24490  10.921   6.497   9.009  0.3575  0.2823 -0.1275
39978SOL    HW124491  10.865   6.572   9.027  1.6556  1.4192 -0.6890
39978SOL    HW224492  10.924   6.449   9.093  0.0844  1.2220  0.4365
39979SOL     OW24493   8.252   4.290   9.913  0.7373 -0.1529 -0.0843
39979SOL    HW124494   8.280   4.214   9.965  0.1720  0.4065  1.0920
39979SOL    HW224495   8.181   4.257   9.858 -1.2279 -0.0181  2.1900
39980SOL     OW24496   9.394   6.896   9.313  0.2424 -0.5946 -0.5999
39980SOL    HW124497   9.300   6.891   9.331  0.3298 -3.1102 -0.5224
39980SOL    HW224498   9.407   6.986   9.281 -1.9964  0.1122  0.2629
39981SOL     OW24499   0.939   5.292   6.433  0.0211 -0.3447 -0.2530
39981SOL    HW124500   0.949   5.207   6.390  1.8082 -0.2747 -0.0447
39981SOL    HW224501   1.002   5.290   6.505 -0.5367  0.8290  0.2954
39982SOL     OW24502   5.536   0.095   2.734  0.2009  0.5108  0.4889
39982SOL    HW124503   5.509   0.003   2.738 -0.3815  0.6836  0.6303
39982SOL    HW224504   5.462   0.141   2.695  0.6192  0.8750  0.1078
39983SOL     OW24505   9.796  11.196   2.055 -0.0621 -0.0306 -0.0431
39983SOL    HW124506   9.886  11.188   2.088 -0.2238 -1.1251  0.1623
39983SOL    HW224507   9.748  11.126   2.099 -1.0000  0.4822 -0.2331
39984SOL     OW24508   2.882   7.641   2.979  0.3991 -0.0165  0.0640
39984SOL    HW124509   2.832   7.605   2.905  1.3119 -1.7894  0.2661
39984SOL    HW224510   2.829   7.620   3.056  1.6172 -2.4066  0.3374
39985SOL     OW24511   7.725   4.719   7.676  0.2447 -1.2101  0.2773
39985SOL    HW124512   7.778   4.645   7.646  1.6298 -0.3508  0.5139
39985SOL    HW224513   7.789   4.788   7.693 -1.0403  0.1167 -0.1390
39986SOL     OW24514   5.757   3.100   2.281 -0.5599 -0.0865 -0.2401
39986SOL    HW124515   5.781   3.008   2.269  1.1453  0.0904  1.3465
39986SOL    HW224516   5.797   3.145   2.207  0.4541 -0.3593  0.1290
39987SOL     OW24517   4.813   4.632  10.517 -0.1650  0.3422  0.7332
39987SOL    HW124518   4.799   4.579  10.596 -2.3969  1.2381  1.0050
39987SOL    HW224519   4.829   4.567  10.448 -1.8872 -0.6672  1.2357
39988SOL     OW24520  11.764   0.775   9.654  0.5965 -0.0008  0.3458
39988SOL    HW124521  11.684   0.766   9.706 -0.6647  1.2313 -1.2749
39988SOL    HW224522  11.791   0.685   9.635 -1.4775 -0.4697 -0.6238
39989SOL     OW24523   9.280  12.083   4.090  0.1666  0.3348  0.0863
39989SOL    HW124524   9.203  12.109   4.040  0.0511  0.0930  0.1378
39989SOL    HW224525   9.245  12.046   4.171  0.1630 -2.6214 -1.1282
39990SOL     OW24526   1.539   3.676   2.560 -0.0846  0.6552  0.1665
39990SOL    HW124527   1.619   3.627   2.542  0.2175  0.9742  0.6257
39990SOL    HW224528   1.568   3.765   2.579 -0.4208  0.5061  1.5336
39991SOL     OW24529   0.931   8.712   1.377 -0.0258  0.2661  0.0135
39991SOL    HW124530   0.845   8.669   1.379  1.2153 -2.5492  3.1452
39991SOL    HW224531   0.950   8.731   1.469  2.2405  1.9814 -0.7046
39992SOL     OW24532   1.614   0.954   0.095 -0.3818  0.0605 -0.4635
39992SOL    HW124533   1.532   0.911   0.119 -1.3124  1.7553 -0.4467
39992SOL    HW224534   1.590   1.012   0.023  1.1604 -0.5672 -1.5461
39993SOL     OW24535   9.068   7.775   3.457 -0.3883 -0.4230  0.2410
39993SOL    HW124536   9.083   7.717   3.382  1.0026  2.9265 -2.3642
39993SOL    HW224537   8.983   7.816   3.439  0.1882  0.7823  0.1198
39994SOL     OW24538   9.757   2.975   4.252 -0.5606  0.2698  0.1721
39994SOL    HW124539   9.805   2.993   4.333 -0.3557  0.7362 -0.0445
39994SOL    HW224540   9.822   2.989   4.183 -0.6549 -0.4106 -0.0599
39995SOL     OW24541   1.541   1.032   9.465 -0.5134 -0.0539  0.0961
39995SOL    HW124542   1.471   1.002   9.408  0.2221  0.0548 -0.8992
39995SOL    HW224543   1.598   0.955   9.474  0.9303  0.7134 -1.7767
39996SOL     OW24544   1.560   8.472   6.917 -0.4669  0.0332  0.5706
39996SOL    HW124545   1.631   8.446   6.859  0.4975  0.4914  1.5097
39996SOL    HW224546   1.532   8.558   6.884  0.2412  0.4034  0.9193
39997SOL     OW24547   8.831   9.659  11.953 -0.0678 -0.3143 -0.0947
39997SOL    HW124548   8.904   9.636  12.011  0.5166 -2.0693 -1.4552
39997SOL    HW224549   8.757   9.610  11.987 -0.3873  0.6987  0.6999
39998SOL     OW24550   3.840   4.980  10.207  0.0204  0.1498 -0.2561
39998SOL    HW124551   3.805   5.048  10.265 -0.4399  1.1122 -1.6149
39998SOL    HW224552   3.823   5.012  10.119 -0.1751 -1.7295 -0.9529
39999SOL     OW24553   1.499   0.708  10.949 -0.0269 -0.1350 -0.2194
39999SOL    HW124554   1.430   0.772  10.931  0.2661  0.1049 -0.4961
39999SOL    HW224555   1.452   0.629  10.976 -0.3749  0.3901  0.7610
40000SOL     OW24556   4.672   9.923  11.724 -0.3722 -0.1663 -0.1423
40000SOL    HW124557   4.767   9.918  11.724 -0.3283 -0.0636 -2.2193
40000SOL    HW224558   4.651   9.994  11.664 -1.7799 -0.5635 -0.1613
40001SOL     OW24559   9.747   1.111   4.269  0.4016 -0.1138 -0.2599
40001SOL    HW124560   9.837   1.107   4.236  0.6682  0.1952  0.4024
40001SOL    HW224561   9.723   1.203   4.259  0.3451 -0.0963  0.0234
40002SOL     OW24562  10.269  11.528   0.877  0.1316  0.5635 -0.6239
40002SOL    HW124563  10.309  11.461   0.933  0.4253  0.6859 -0.6826
40002SOL    HW224564  10.318  11.523   0.795  0.5194  1.2174 -0.4388
40003SOL     OW24565   1.236   2.954   4.346  0.2691 -0.0539  0.3283
40003SOL    HW124566   1.203   2.981   4.260  2.4136 -1.1804 -0.9169
40003SOL    HW224567   1.267   3.034   4.387 -1.8902  0.6982  0.6613
40004SOL     OW24568   4.235   3.317   3.180  0.1136  0.2658  0.1010
40004SOL    HW124569   4.251   3.383   3.113 -0.3710 -0.1246 -0.4191
40004SOL    HW224570   4.253   3.360   3.263  0.6337  0.7877 -0.2823
40005SOL     OW24571   8.612  11.354  10.816 -0.0454 -0.5197  0.2111
40005SOL    HW124572   8.598  11.288  10.748 -1.7750  0.5280 -0.5250
40005SOL    HW224573   8.592  11.437  10.772  0.9802  0.3888  1.4135
40006SOL     OW24574   2.699  12.001   4.522  0.0853  0.0168 -0.1765
40006SOL    HW124575   2.655  12.054   4.589 -0.8974  0.5192 -1.1970
40006SOL    HW224576   2.726  11.921   4.569 -0.8271  0.2363  0.7576
40007SOL     OW24577   2.660   3.151   6.731  0.5134  0.5269  0.3080
40007SOL    HW124578   2.614   3.205   6.666  0.5212  1.1744  0.8280
40007SOL    HW224579   2.638   3.061   6.707  1.5633  0.6747 -1.3751
40008SOL     OW24580  11.485   5.290   1.839  0.2679 -0.6005 -0.0789
40008SOL    HW124581  11.439   5.300   1.755  0.0004  0.0837  0.1399
40008SOL    HW224582  11.517   5.200   1.838 -1.1146 -1.1166 -0.2263
40009SOL     OW24583  11.666   8.184   2.083 -0.1208 -0.0507 -0.4616
40009SOL    HW124584  11.720   8.175   2.162 -1.0137  0.3138  0.1971
40009SOL    HW224585  11.580   8.150   2.109 -0.5737  0.5842 -1.1069
40010SOL     OW24586   5.379   2.128   5.984  0.5243  0.4663  0.4900
40010SOL    HW124587   5.453   2.092   6.031 -0.0084 -0.4318  0.6736
40010SOL    HW224588   5.407   2.130   5.892  0.6014 -0.3633  0.4861
40011SOL     OW24589   8.911   7.663  10.965  0.5078  0.3262  0.5681
40011SOL    HW124590   8.944   7.605  10.895  0.0325 -2.9237  2.7924
40011SOL    HW224591   8.867   7.734  10.919 -0.7942 -2.2304 -2.4893
40012SOL     OW24592   3.706  11.660   2.667  0.0173  0.0823 -0.2407
40012SOL    HW124593   3.719  11.565   2.668 -0.3141  0.0309 -0.8896
40012SOL    HW224594   3.628  11.674   2.615 -0.9566  0.6029  1.2835
40013SOL     OW24595   1.475  10.741   3.240 -0.1024  0.4644 -0.2635
40013SOL    HW124596   1.518  10.758   3.156 -0.9675  2.2683 -0.3747
40013SOL    HW224597   1.448  10.649   3.234  1.8460 -0.1195 -1.0076
40014SOL     OW24598   4.518   4.549   8.086 -0.1043  0.1017 -0.3000
40014SOL    HW124599   4.611   4.556   8.067  0.2596 -0.7257  0.9644
40014SOL    HW224600   4.503   4.455   8.097 -0.7001  0.3388  1.1961
40015SOL     OW24601  10.503   3.806   4.407 -0.4461 -0.3794  0.2132
40015SOL    HW124602  10.585   3.766   4.436 -0.0735  0.5527  0.4491
40015SOL    HW224603  10.528   3.891   4.372 -1.1584 -0.6017 -0.9030
40016SOL     OW24604   5.005   8.191   7.812 -0.2149 -0.6367 -0.5305
40016SOL    HW124605   5.042   8.275   7.838 -1.8338 -0.0121 -0.1019
40016SOL    HW224606   5.031   8.130   7.882  1.4134 -0.6468 -1.1155
40017SOL     OW24607   0.241   5.837   8.795 -0.0101 -0.5739 -0.2038
40017SOL    HW124608   0.239   5.846   8.699 -0.4375 -1.0644 -0.2521
40017SOL    HW224609   0.182   5.905   8.827  1.7739  0.9955 -0.1473
40018SOL     OW24610   5.676   8.535   3.106 -0.6795 -0.0364 -0.6405
40018SOL    HW124611   5.739   8.604   3.127  0.6929 -0.9854 -1.4612
40018SOL    HW224612   5.728   8.455   3.104 -2.3553 -1.2425  0.9838
40019SOL     OW24613  10.528   7.026   3.900  0.2312 -0.1111  0.3691
40019SOL    HW124614  10.517   7.049   3.992  0.5338  0.3507  0.2962
40019SOL    HW224615  10.559   6.936   3.900  0.7882  0.0737  0.7483
40020SOL     OW24616   6.008   3.329   6.946  0.0824  0.3640 -0.0915
40020SOL    HW124617   6.015   3.334   6.851  1.5445  0.1100 -0.0160
40020SOL    HW224618   5.960   3.247   6.962 -2.2517  1.5420 -0.6346
40021SOL     OW24619   0.379   9.015   8.622 -0.3065  0.4660  0.2867
40021SOL    HW124620   0.388   9.069   8.544 -0.9108  1.9949  1.2348
40021SOL    HW224621   0.293   9.038   8.658  0.0112 -0.0971  1.4839
40022SOL     OW24622   9.300   3.170   3.391 -0.3315  0.4351  0.0137
40022SOL    HW124623   9.239   3.107   3.428  0.4557 -0.3378  0.0199
40022SOL    HW224624   9.280   3.252   3.436 -0.7439 -0.0162  0.6687
40023SOL     OW24625   3.642   0.716   4.220  0.1222  0.0881 -0.3043
40023SOL    HW124626   3.672   0.776   4.289 -0.3252 -0.5881  0.4917
40023SOL    HW224627   3.675   0.631   4.246 -0.8295 -0.3334 -0.4335
40024SOL     OW24628   4.950   9.219   2.414  0.1182 -0.1633 -0.0627
40024SOL    HW124629   4.871   9.165   2.405  0.1596 -0.2688  0.1999
40024SOL    HW224630   4.981   9.232   2.324  0.2151 -0.7308 -0.1146
40025SOL     OW24631   3.146   0.405   6.213  0.8129  0.3851  0.3929
40025SOL    HW124632   3.143   0.479   6.273 -0.1103 -0.0296  0.8740
40025SOL    HW224633   3.055   0.384   6.196  1.0648 -0.4635  0.0327
40026SOL     OW24634   5.212   4.945   7.961  0.2236 -0.1266 -0.1102
40026SOL    HW124635   5.162   5.023   7.935  1.5371  0.2381 -1.7440
40026SOL    HW224636   5.170   4.873   7.915 -0.7236 -0.3437  1.0560
40027SOL     OW24637  11.710   5.376   9.031 -0.0979 -0.3209  0.5493
40027SOL    HW124638  11.662   5.418   8.960  2.2566  0.9975 -0.3591
40027SOL    HW224639  11.707   5.282   9.010 -1.1713 -0.1550 -0.1264
40028SOL     OW24640   1.600   8.435  10.636 -0.1301 -0.4872 -0.0855
40028SOL    HW124641   1.643   8.518  10.657  0.9031 -0.9982 -0.1502
40028SOL    HW224642   1.642   8.406  10.556 -1.2025 -0.5846 -0.6291
40029SOL     OW24643   5.698   7.014  10.021 -0.7141  0.1470 -0.4205
40029SOL    HW124644   5.741   6.979   9.943 -1.0019  0.1770 -0.5949
40029SOL    HW224645   5.606   6.989  10.010 -0.7585  0.1795 -0.1062
40030SOL     OW24646   9.810   5.672   6.036  0.3598  0.1359 -0.1310
40030SOL    HW124647   9.888   5.655   6.089 -0.1004  0.1586  0.5672
40030SOL    HW224648   9.823   5.760   6.002 -0.6640  1.3566  2.3822
40031SOL     OW24649   1.411  11.190   1.415  0.1208  0.4383 -0.4321
40031SOL    HW124650   1.402  11.187   1.510 -0.5543 -0.5178 -0.5154
40031SOL    HW224651   1.500  11.224   1.401  0.6696 -0.5071  0.5586
40032SOL     OW24652   4.212   9.130   6.931  0.1323 -0.0624 -0.3438
40032SOL    HW124653   4.202   9.075   7.009 -1.9337 -0.1948 -0.6475
40032SOL    HW224654   4.232   9.217   6.965 -0.1334 -0.2479  0.2931
40033SOL     OW24655   4.784   7.450   4.409  0.7278  0.0669  0.2317
40033SOL    HW124656   4.730   7.509   4.462  2.8367  1.1176  1.3054
40033SOL    HW224657   4.778   7.365   4.453 -2.2064 -0.6526 -1.2416
40034SOL     OW24658   4.216  10.994   4.143  0.0944 -0.2819 -0.0142
40034SOL    HW124659   4.252  11.082   4.153 -0.9377  0.3127 -1.2595
40034SOL    HW224660   4.289  10.942   4.109  1.3439 -0.4827  2.6960
40035SOL     OW24661   4.446   9.134   5.087 -0.4306  0.5004  0.0366
40035SOL    HW124662   4.358   9.153   5.057 -0.0029  2.7152  0.0634
40035SOL    HW224663   4.463   9.199   5.155  0.8659 -0.5247  0.7396
40036SOL     OW24664   6.938   2.381   5.874  0.0290 -0.3824  0.0688
40036SOL    HW124665   6.908   2.424   5.795 -1.0684 -1.1060  0.0769
40036SOL    HW224666   6.947   2.289   5.850 -1.6769 -0.8707  1.1149
40037SOL     OW24667   5.225   1.877   4.357 -0.4318 -0.0415  0.1484
40037SOL    HW124668   5.228   1.794   4.403 -1.0973  0.4700  1.1365
40037SOL    HW224669   5.142   1.875   4.309 -0.4187  0.0283  0.1223
40038SOL     OW24670   8.412   1.539   3.193 -0.0632  0.2502 -0.8744
40038SOL    HW124671   8.373   1.501   3.272  0.8875  1.0798  0.0257
40038SOL    HW224672   8.495   1.492   3.183  0.0025  0.4252 -1.1610
40039SOL     OW24673   2.350   7.904  10.086 -0.1548 -0.5106 -0.7186
40039SOL    HW124674   2.297   7.983  10.098 -0.7452 -1.0265  0.1436
40039SOL    HW224675   2.343   7.857  10.169 -0.8771 -2.1107 -1.6283
40040SOL     OW24676   7.836   4.885   1.942 -0.2113 -0.9764 -0.1183
40040SOL    HW124677   7.746   4.854   1.950 -0.3850 -0.4657 -0.0886
40040SOL    HW224678   7.829   4.980   1.938  0.3224 -0.9360 -0.1892
40041SOL     OW24679   0.684   0.253   5.100  0.8339  0.2537 -0.0991
40041SOL    HW124680   0.633   0.218   5.028 -0.4685 -0.4539  1.1259
40041SOL    HW224681   0.654   0.205   5.177  2.5604  0.6057  0.8538
40042SOL     OW24682  10.983   5.749   6.296 -0.1153  0.0903  0.0211
40042SOL    HW124683  10.974   5.836   6.257 -1.1657  0.3403  0.7817
40042SOL    HW224684  11.077   5.738   6.308 -0.0310  1.7537  1.2773
40043SOL     OW24685   6.543   8.077   5.859 -0.7485 -0.0093  0.2749
40043SOL    HW124686   6.514   8.082   5.950  1.7714  0.8375  1.1178
40043SOL    HW224687   6.549   8.168   5.830 -0.4935 -0.2267 -0.3845
40044SOL     OW24688   5.689   3.852   6.332 -0.2408  0.2312  0.0318
40044SOL    HW124689   5.615   3.844   6.272  0.3722  0.1740 -0.7280
40044SOL    HW224690   5.649   3.875   6.416 -1.2171 -0.9587 -0.0727
40045SOL     OW24691   5.730   3.003   9.373  0.3254 -0.1317 -0.3029
40045SOL    HW124692   5.661   3.046   9.423  0.3315 -2.0832  1.4982
40045SOL    HW224693   5.799   2.986   9.437  1.1110 -1.1195 -1.3688
40046SOL     OW24694   6.805   3.224   6.784  0.2193 -0.4678 -0.2562
40046SOL    HW124695   6.818   3.319   6.780  3.1477 -0.8172 -1.4207
40046SOL    HW224696   6.748   3.211   6.860 -0.2633  2.1965 -0.0570
40047SOL     OW24697  10.122   9.851  12.033 -0.0649 -0.3421  0.2914
40047SOL    HW124698  10.115   9.919  11.966  0.9484  0.9208  1.3958
40047SOL    HW224699  10.058   9.785  12.008  0.3791  0.0275 -1.9763
40048SOL     OW24700   0.068   2.441   7.601  0.2308  0.1485 -0.4008
40048SOL    HW124701   0.047   2.371   7.540 -0.6875  0.2327 -0.1930
40048SOL    HW224702   0.007   2.511   7.580  0.8351  0.7234 -0.3078
40049SOL     OW24703   3.344   4.406   6.261  0.2622 -0.3015  0.6825
40049SOL    HW124704   3.281   4.431   6.328 -0.8159  0.2752 -0.5162
40049SOL    HW224705   3.386   4.327   6.296  0.1718  0.3312  2.2885
40050SOL     OW24706  11.949  11.479   6.570 -0.1311 -0.9685  0.7217
40050SOL    HW124707  12.022  11.504   6.513 -1.1424  0.8654  0.1287
40050SOL    HW224708  11.901  11.412   6.521 -1.2774  0.9402 -0.9179
40051SOL     OW24709   8.978   6.224   4.054 -0.2230 -0.1518 -0.2810
40051SOL    HW124710   8.978   6.302   4.000 -2.1247 -0.2226 -0.4635
40051SOL    HW224711   8.940   6.156   3.998 -0.4264 -0.7018  0.5039
40052SOL     OW24712   7.738   0.651  11.109 -0.2886 -0.1650 -0.1196
40052SOL    HW124713   7.688   0.602  11.175  1.3063 -1.1608  0.3912
40052SOL    HW224714   7.759   0.734  11.152  1.9150 -1.3334  1.2382
40053SOL     OW24715   7.850  10.490  11.590 -0.6527 -0.0161  0.2193
40053SOL    HW124716   7.804  10.450  11.516 -1.5076  0.2922  0.5763
40053SOL    HW224717   7.830  10.583  11.584  0.7524  0.2987 -0.1908
40054SOL     OW24718  11.579  10.172   1.399 -0.0488  0.5030 -0.1951
40054SOL    HW124719  11.623  10.196   1.318 -0.9756 -0.6791 -1.0861
40054SOL    HW224720  11.492  10.143   1.371 -0.8657  1.3209  1.3579
40055SOL     OW24721   5.637   1.545   8.979  0.2550  0.3455  0.3206
40055SOL    HW124722   5.695   1.576   8.910 -0.0122  2.7337  1.0605
40055SOL    HW224723   5.652   1.606   9.052 -1.7928 -0.1235  1.2053
40056SOL     OW24724  10.540   5.603   1.028  0.1678  0.3879 -0.0840
40056SOL    HW124725  10.531   5.508   1.031  1.0300  0.3252  1.5128
40056SOL    HW224726  10.487   5.630   0.953 -1.8063 -1.1430  0.6871
40057SOL     OW24727   4.706   9.967  10.136 -0.2235  0.6021  0.6444
40057SOL    HW124728   4.771  10.036  10.124  1.8262 -1.5461 -2.1654
40057SOL    HW224729   4.756   9.885  10.129 -2.8927 -1.2044  0.9439
40058SOL     OW24730   6.811   3.873   0.343 -0.0390 -0.4280 -0.1267
40058SOL    HW124731   6.720   3.884   0.317  0.3152  3.5794 -0.2400
40058SOL    HW224732   6.816   3.911   0.431  1.5541 -0.4196 -0.1873
40059SOL     OW24733   2.878   2.830   3.501 -0.0953 -0.1727  0.2220
40059SOL    HW124734   2.950   2.841   3.438 -0.4377 -1.0715 -0.3371
40059SOL    HW224735   2.801   2.818   3.447 -0.6754  0.7201  0.8214
40060SOL     OW24736   3.124   6.956   7.216 -0.5031  0.0861  0.3731
40060SOL    HW124737   3.065   6.899   7.266 -1.0833 -1.2296 -1.7052
40060SOL    HW224738   3.129   6.915   7.130  2.4233  0.9043  0.0691
40061SOL     OW24739   2.404  10.540   6.460  0.6382 -0.3570 -0.2278
40061SOL    HW124740   2.464  10.488   6.407 -0.0583 -0.0963 -1.3220
40061SOL    HW224741   2.456  10.569   6.535  1.4801 -1.2595 -0.4520
40062SOL     OW24742  11.276   3.432  10.001  0.7557 -0.1761  0.4048
40062SOL    HW124743  11.308   3.522  10.011  0.4974 -0.0868  0.4309
40062SOL    HW224744  11.181   3.441   9.991  0.9452 -0.2521 -2.1047
40063SOL     OW24745   2.668  10.226   2.208  0.0526 -0.1808 -0.5310
40063SOL    HW124746   2.611  10.175   2.267  1.7970  0.6034  2.0107
40063SOL    HW224747   2.756  10.191   2.224  1.0237  2.1919 -0.2219
40064SOL     OW24748  11.558   1.034  11.905 -0.4679 -0.4518 -0.0851
40064SOL    HW124749  11.622   1.009  11.971 -1.8835  1.6792  2.3143
40064SOL    HW224750  11.476   0.994  11.935 -1.1476  0.5919 -0.4948
40065SOL     OW24751   8.133   0.177  10.079 -0.0071 -0.1648 -0.6920
40065SOL    HW124752   8.096   0.130  10.004  0.0588  0.6604 -1.2533
40065SOL    HW224753   8.224   0.195  10.055  0.1198 -0.2075 -0.2624
40066SOL     OW24754  11.581   9.232   7.293  0.0689  0.1719 -0.5743
40066SOL    HW124755  11.646   9.282   7.342 -0.7644  0.1388  0.6106
40066SOL    HW224756  11.577   9.148   7.339 -0.8969  0.2267 -0.5346
40067SOL     OW24757   1.944   6.809   3.424  0.0663 -0.6050 -0.3688
40067SOL    HW124758   1.931   6.892   3.379  2.8016 -0.4750 -1.0897
40067SOL    HW224759   1.865   6.797   3.476  0.0467  3.0477  0.7217
40068SOL     OW24760   2.593   4.067   9.122  0.1359 -0.0563 -0.3086
40068SOL    HW124761   2.544   4.110   9.192  0.3624 -0.6425  0.2152
40068SOL    HW224762   2.561   3.977   9.123  1.0464 -0.3839 -0.1287
40069SOL     OW24763  12.070   5.970   6.576  0.2376  0.1794 -0.3878
40069SOL    HW124764  12.163   5.967   6.553  0.2359 -0.2766 -0.3565
40069SOL    HW224765  12.026   5.928   6.502 -0.0248  1.1043 -0.7738
40070SOL     OW24766   9.098   6.145   0.460  0.1789  0.2321 -0.2464
40070SOL    HW124767   9.188   6.156   0.492 -0.4349 -1.2346  2.2880
40070SOL    HW224768   9.081   6.051   0.469 -1.4745  0.4140 -1.0996
40071SOL     OW24769   6.879   6.497   1.896 -0.0624  0.1058  0.5026
40071SOL    HW124770   6.815   6.515   1.965 -0.5865  0.7854 -0.1375
40071SOL    HW224771   6.920   6.582   1.879 -0.6179  0.1541 -0.6724
40072SOL     OW24772   2.330   3.733   6.197  0.7036 -0.3447 -0.6659
40072SOL    HW124773   2.303   3.820   6.225 -1.3285 -1.3414  0.7398
40072SOL    HW224774   2.423   3.741   6.179  0.4732  2.2129 -1.0642
40073SOL     OW24775  10.966   3.382  12.054 -0.0209 -0.1820  0.4207
40073SOL    HW124776  10.972   3.461  12.108 -2.4044  0.3906 -0.0544
40073SOL    HW224777  11.001   3.408  11.969  0.1555  0.0436  0.5594
40074SOL     OW24778   7.936  10.403   5.359  0.0129 -0.0770 -0.2316
40074SOL    HW124779   7.975  10.479   5.316 -2.1320  1.4441  0.3539
40074SOL    HW224780   7.850  10.393   5.318 -0.5780 -0.8688  1.1290
40075SOL     OW24781   3.766   1.328   5.299 -0.0061  0.2407 -0.0004
40075SOL    HW124782   3.695   1.353   5.358  0.4050  0.9970  0.1950
40075SOL    HW224783   3.834   1.294   5.356 -0.4947 -1.2087 -0.2534
40076SOL     OW24784   2.486   8.711   7.754  0.1232  0.5600 -0.7520
40076SOL    HW124785   2.579   8.713   7.774 -0.2003 -0.6369  1.1288
40076SOL    HW224786   2.457   8.624   7.781 -1.9824  1.7285  1.0349
40077SOL     OW24787   7.049   1.626   9.924 -0.0838 -0.0406 -0.2625
40077SOL    HW124788   7.000   1.625  10.006 -0.5718 -1.2019 -0.5360
40077SOL    HW224789   7.064   1.533   9.904 -1.8929  0.0489 -2.5886
40078SOL     OW24790   4.216   1.185  10.372  0.1177  0.0846  0.0638
40078SOL    HW124791   4.159   1.188  10.295 -1.3417  0.3656  1.0877
40078SOL    HW224792   4.237   1.277  10.389 -0.4656  0.1287  0.6014
40079SOL     OW24793   6.455   6.752   7.355  0.4014  0.1674  0.0992
40079SOL    HW124794   6.524   6.686   7.348 -0.5746 -0.8317 -0.6370
40079SOL    HW224795   6.375   6.704   7.331 -0.7777  0.8944  2.3022
40080SOL     OW24796  10.601   6.727  10.497 -0.3105 -0.4793 -0.1140
40080SOL    HW124797  10.615   6.810  10.543 -2.0328  1.3132 -2.5895
40080SOL    HW224798  10.685   6.708  10.455 -0.2796  0.7933 -0.6660
40081SOL     OW24799   3.196   1.428   8.357 -0.0086 -0.5820  0.3153
40081SOL    HW124800   3.178   1.520   8.379  0.2930 -0.2986 -0.5563
40081SOL    HW224801   3.292   1.424   8.351 -0.0236 -0.9520  0.3388
40082SOL     OW24802   8.606   5.270   4.097 -0.1406 -0.3608 -0.0882
40082SOL    HW124803   8.594   5.288   4.004  2.3165 -0.5409 -0.5113
40082SOL    HW224804   8.579   5.179   4.108 -0.6285 -0.2798 -0.5595
40083SOL     OW24805   4.698  10.059   7.614 -0.4040  0.1048 -0.2797
40083SOL    HW124806   4.699   9.986   7.676  1.9677  0.7217  0.5266
40083SOL    HW224807   4.607  10.087   7.611 -1.6043 -3.3392 -1.2564
40084SOL     OW24808   9.400  10.041   6.079  0.3843 -0.8620  0.1181
40084SOL    HW124809   9.326  10.014   6.133  0.1880  0.7280  0.7068
40084SOL    HW224810   9.457   9.964   6.076 -0.3753 -1.5013  1.2627
40085SOL     OW24811   3.369   1.104   1.227  0.1537  0.0736  0.2699
40085SOL    HW124812   3.320   1.055   1.161 -0.2679  1.8138 -0.7828
40085SOL    HW224813   3.450   1.054   1.238 -1.2821 -2.2523  1.2132
40086SOL     OW24814   0.105  10.860   1.943 -0.3223 -0.5763 -0.7816
40086SOL    HW124815   0.145  10.802   2.008 -0.6991  0.1697  0.1400
40086SOL    HW224816   0.112  10.947   1.981 -1.9659 -0.3096 -1.0073
40087SOL     OW24817   0.360  11.341   1.385  0.2233  0.0677  0.3979
40087SOL    HW124818   0.358  11.415   1.445  1.2973  0.6102 -0.1977
40087SOL    HW224819   0.449  11.342   1.348  0.0501 -1.1134 -0.1199
40088SOL     OW24820   7.993   1.400   5.016  0.1983  0.0619  0.2566
40088SOL    HW124821   7.988   1.307   5.037 -0.4784 -0.0695 -0.4328
40088SOL    HW224822   7.974   1.404   4.923 -2.6833  1.1152  0.7851
40089SOL     OW24823   2.192   8.141  11.387 -0.0410 -0.1826  0.6517
40089SOL    HW124824   2.153   8.196  11.319  1.7711  1.3636  0.8136
40089SOL    HW224825   2.205   8.056  11.344 -3.3116 -0.7968  0.5371
40090SOL     OW24826   1.565   9.003  10.911  0.2775 -0.1931 -0.5626
40090SOL    HW124827   1.605   8.916  10.917  0.2235 -0.4513 -2.9999
40090SOL    HW224828   1.478   8.986  10.875  0.4576  0.8937 -1.5634
40091SOL     OW24829   7.773   8.876  12.034 -0.2196  0.0549  0.2861
40091SOL    HW124830   7.692   8.925  12.021 -1.2396 -1.0200  2.0497
40091SOL    HW224831   7.743   8.786  12.049  1.3318 -0.4141  0.6995
40092SOL     OW24832   4.601   2.432   6.059 -0.6239  0.2589 -0.0873
40092SOL    HW124833   4.597   2.343   6.095  0.8480  0.6236  1.0547
40092SOL    HW224834   4.510   2.456   6.046 -1.0538 -1.4417 -0.4766
40093SOL     OW24835   4.335   2.475   5.971 -0.1318  0.5658 -0.3476
40093SOL    HW124836   4.285   2.418   5.913  0.7176  1.7895 -2.3867
40093SOL    HW224837   4.366   2.546   5.915  2.2294  0.9051  1.2069
40094SOL     OW24838   5.408   8.886   4.462  0.2171 -0.4556 -0.2953
40094SOL    HW124839   5.374   8.946   4.529 -0.6936 -1.0645 -0.1914
40094SOL    HW224840   5.330   8.847   4.423  0.7408 -3.4068  1.2984
40095SOL     OW24841  10.376   1.227  11.258  0.0064 -0.2695  0.3797
40095SOL    HW124842  10.463   1.267  11.257 -0.2206  0.2823  1.3869
40095SOL    HW224843  10.375   1.171  11.181  0.9317  0.4115 -0.1545
40096SOL     OW24844   6.202   7.184   0.812  0.1613 -0.1932 -0.0894
40096SOL    HW124845   6.136   7.157   0.747  0.6525 -0.9259 -0.3006
40096SOL    HW224846   6.219   7.104   0.862  1.6448 -0.2969 -0.7156
40097SOL     OW24847  10.144   9.159   8.013 -0.1971 -0.1379 -0.4007
40097SOL    HW124848  10.053   9.127   8.012  0.0674 -1.0462  0.9578
40097SOL    HW224849  10.155   9.193   8.102  0.7063  0.2380 -0.6501
40098SOL     OW24850   7.242   7.614   2.606 -0.1438 -0.1163  0.2284
40098SOL    HW124851   7.314   7.573   2.654 -0.8275 -1.1273  0.4139
40098SOL    HW224852   7.283   7.688   2.561  0.5035  0.9743  2.4574
40099SOL     OW24853  11.336   8.385   5.893  0.2494 -0.0491  0.0803
40099SOL    HW124854  11.362   8.294   5.876 -0.5803 -0.7642  2.2214
40099SOL    HW224855  11.401   8.438   5.847  1.9396 -1.7341  0.4148
40100SOL     OW24856   5.872  10.744   0.155  0.1546  0.4343  0.4066
40100SOL    HW124857   5.868  10.747   0.250 -1.1126  1.0432  0.3661
40100SOL    HW224858   5.951  10.694   0.135 -1.2655 -2.6229  1.8113
40101SOL     OW24859   2.763   0.578   6.389 -0.0769 -0.0015  0.2935
40101SOL    HW124860   2.717   0.495   6.403  0.7723 -0.5203  0.0595
40101SOL    HW224861   2.720   0.639   6.449  0.7416 -1.1523  2.1153
40102SOL     OW24862   4.359   2.027   8.524 -0.7034  0.2755 -0.0669
40102SOL    HW124863   4.393   2.108   8.563 -2.1146 -0.1015  2.1368
40102SOL    HW224864   4.423   1.960   8.547  0.1882  0.6249 -1.4221
40103SOL     OW24865   6.619   1.246   2.441  0.2113 -0.1768  0.2076
40103SOL    HW124866   6.713   1.251   2.426  0.0053  1.4099 -0.7383
40103SOL    HW224867   6.611   1.199   2.524  1.8221 -0.4073  0.2706
40104SOL     OW24868   8.557  11.366   2.025  0.7612  0.2038  0.1964
40104SOL    HW124869   8.517  11.444   1.987 -0.3002 -0.6998 -0.6099
40104SOL    HW224870   8.651  11.383   2.020  0.5682  1.1413 -0.6157
40105SOL     OW24871  10.068  10.722   2.824 -0.0789 -0.1963  0.4142
40105SOL    HW124872   9.986  10.672   2.819  0.0170 -0.2697 -0.9364
40105SOL    HW224873  10.135  10.660   2.795  0.5523 -0.2896  1.9851
40106SOL     OW24874   3.564   1.398   5.471 -0.0858 -0.1660 -0.4874
40106SOL    HW124875   3.519   1.330   5.521  3.6327 -3.3267 -0.9304
40106SOL    HW224876   3.578   1.469   5.533 -2.1308 -0.7289  0.6900
40107SOL     OW24877   7.509   7.645   9.776  0.1966  0.0389  0.2759
40107SOL    HW124878   7.565   7.567   9.777 -0.5914 -0.5614  1.7408
40107SOL    HW224879   7.569   7.717   9.795  0.7878 -0.3133 -0.1873
40108SOL     OW24880   5.163   1.335   8.240 -0.1843 -0.0442 -0.0901
40108SOL    HW124881   5.108   1.386   8.180  0.1051 -1.2613 -1.4581
40108SOL    HW224882   5.177   1.252   8.194  0.8172 -0.6742  1.2926
40109SOL     OW24883   5.651   5.051   3.714 -0.4286  0.5350 -0.0211
40109SOL    HW124884   5.579   5.081   3.770 -0.0906  0.8200  0.2647
40109SOL    HW224885   5.644   4.956   3.717 -0.7572  0.5583  0.0555
40110SOL     OW24886   6.108   4.091  10.128  0.1630  0.5054 -0.8193
40110SOL    HW124887   6.028   4.130  10.165  1.1026 -1.2823  3.7820
40110SOL    HW224888   6.173   4.099  10.198  1.9695 -4.2744 -1.5862
40111SOL     OW24889   7.073   5.287  11.822  0.0632  0.4808 -0.8112
40111SOL    HW124890   7.145   5.288  11.885  0.4096  0.4594 -1.2064
40111SOL    HW224891   7.100   5.348  11.753 -0.4368  0.7128 -0.8067
40112SOL     OW24892   0.743   3.360   5.962 -0.5331  0.5283  0.1538
40112SOL    HW124893   0.661   3.409   5.958 -0.9888 -0.0057  2.2452
40112SOL    HW224894   0.726   3.281   5.910 -1.1367  0.6896  0.0975
40113SOL     OW24895   2.829   6.029   8.370  0.5690  0.4211  0.5458
40113SOL    HW124896   2.761   6.095   8.356  0.3029  0.3030  1.2427
40113SOL    HW224897   2.908   6.080   8.391  0.2930  0.5297  1.3880
40114SOL     OW24898   0.080   2.394   4.738  0.1530  0.3941  0.5860
40114SOL    HW124899   0.167   2.431   4.729  0.4808 -0.6068 -0.7147
40114SOL    HW224900   0.093   2.313   4.788  0.1920 -0.4069 -0.6761
40115SOL     OW24901   8.727   9.153   8.379 -0.0107 -0.2408 -0.7880
40115SOL    HW124902   8.775   9.236   8.378  0.8654 -0.6303  1.6818
40115SOL    HW224903   8.791   9.087   8.351 -0.1828 -0.3181 -1.0032
40116SOL     OW24904   1.045  10.988   5.573  0.4954 -0.5003  0.8428
40116SOL    HW124905   1.021  10.962   5.485  1.2222 -1.9979  1.0667
40116SOL    HW224906   1.028  11.083   5.576 -1.0212 -0.7048 -0.3893
40117SOL     OW24907   9.960   1.023   1.510 -0.4361 -0.3534 -0.0420
40117SOL    HW124908  10.036   0.999   1.458 -0.3605 -0.2680  0.0274
40117SOL    HW224909   9.933   1.108   1.476 -1.7466 -1.2794 -1.4367
40118SOL     OW24910   7.966   7.484   8.279  0.1787  0.3635 -0.0880
40118SOL    HW124911   7.975   7.537   8.358  2.2883  1.1350 -0.7999
40118SOL    HW224912   7.967   7.546   8.207  0.7923 -0.5093 -0.8514
40119SOL     OW24913   9.625   0.755   8.505  0.7525  0.2819  0.1586
40119SOL    HW124914   9.681   0.760   8.427  0.1607  0.2532 -0.2773
40119SOL    HW224915   9.683   0.721   8.573  1.2371  0.1284 -0.3148
40120SOL     OW24916  11.136   7.437  11.008 -0.2420  0.0418  0.0259
40120SOL    HW124917  11.134   7.466  11.099 -3.3214  0.7470 -0.1455
40120SOL    HW224918  11.107   7.346  11.012  1.2796 -0.4651 -0.1398
40121SOL     OW24919   8.788   0.431   4.271  0.1865  0.0240  0.3029
40121SOL    HW124920   8.854   0.440   4.340  1.0818 -1.4054 -0.3434
40121SOL    HW224921   8.832   0.462   4.192 -0.2367 -0.0795  0.0259
40122SOL     OW24922   8.220   6.168   6.991 -0.3449  0.0340  0.3226
40122SOL    HW124923   8.168   6.242   6.961  1.1652  0.0830 -2.4128
40122SOL    HW224924   8.212   6.170   7.087 -2.7143  1.9087  0.1686
40123SOL     OW24925   2.802  10.182   0.294 -0.7947 -0.2323 -0.3469
40123SOL    HW124926   2.753  10.099   0.294  1.3753 -1.6469  1.5787
40123SOL    HW224927   2.892  10.157   0.276 -0.2388  1.9042 -0.8276
40124SOL     OW24928   5.720  10.118   0.728 -0.0370 -0.0678 -0.3604
40124SOL    HW124929   5.811  10.141   0.710 -0.1023  0.6014  0.1041
40124SOL    HW224930   5.677  10.120   0.643 -0.0090  1.4865 -0.3783
40125SOL     OW24931   9.923   1.841   1.444 -0.3097 -0.4873  0.0101
40125SOL    HW124932   9.991   1.908   1.441  0.3355 -1.1285  0.0969
40125SOL    HW224933   9.842   1.890   1.458 -0.1128  0.4446 -1.8536
40126SOL     OW24934   1.640  10.857   8.835  0.0137  0.3481 -0.0709
40126SOL    HW124935   1.559  10.842   8.787 -0.6532 -1.7824  1.5203
40126SOL    HW224936   1.615  10.910   8.910 -0.6465 -2.5679  1.9534
40127SOL     OW24937   8.522   9.712   3.602 -0.1211  0.1181  0.2680
40127SOL    HW124938   8.531   9.699   3.696  0.1877 -2.9415 -0.0869
40127SOL    HW224939   8.583   9.783   3.581  1.1822 -0.3796  2.1387
40128SOL     OW24940   2.032  11.243   4.418  0.0981  0.1720 -0.4303
40128SOL    HW124941   1.983  11.173   4.375 -0.6187  0.2262  0.2755
40128SOL    HW224942   2.095  11.199   4.474 -0.5483  0.0827  0.2339
40129SOL     OW24943  11.873   4.219   7.599  0.4142 -0.3168 -0.7768
40129SOL    HW124944  11.940   4.258   7.543  0.1346  0.7395 -0.4031
40129SOL    HW224945  11.835   4.293   7.647  2.3582 -1.3492  2.7247
40130SOL     OW24946   1.460  11.523   6.026  0.1729 -0.2655 -0.1220
40130SOL    HW124947   1.496  11.516   5.938  0.2728 -0.2255 -0.0844
40130SOL    HW224948   1.365  11.525   6.013  0.2028  0.3997 -0.2805
40131SOL     OW24949   0.281  10.215   4.336  0.8924  0.7493 -0.5315
40131SOL    HW124950   0.333  10.136   4.346  1.0200  0.8403 -0.4677
40131SOL    HW224951   0.346  10.286   4.336  0.6349  1.0900  2.1522
40132SOL     OW24952   1.404   2.997  11.647  0.0652 -0.2412  0.1934
40132SOL    HW124953   1.392   2.908  11.616  2.2028 -0.8140  0.9030
40132SOL    HW224954   1.334   3.009  11.711 -1.0666 -0.9035 -0.8708
40133SOL     OW24955  10.928   5.161   5.900 -0.7620 -0.1774  0.7337
40133SOL    HW124956  10.842   5.202   5.895 -1.3106 -1.4108 -1.0594
40133SOL    HW224957  10.975   5.212   5.967 -1.9595  2.2393 -0.1190
40134SOL     OW24958   0.566  10.017   4.038 -0.1002 -0.5784 -0.1197
40134SOL    HW124959   0.583  10.048   3.949  0.2754  0.1290  0.1822
40134SOL    HW224960   0.611  10.081   4.094 -0.1265 -1.1520  0.5671
40135SOL     OW24961   5.398   3.793   0.424 -0.0594 -0.0552 -0.1116
40135SOL    HW124962   5.411   3.707   0.463  1.7923  0.1516 -0.1918
40135SOL    HW224963   5.380   3.851   0.498  0.4404 -0.2152  0.1435
40136SOL     OW24964   8.357   6.335   5.677  0.4822  0.4540 -0.3493
40136SOL    HW124965   8.348   6.355   5.770  3.0647  1.1323 -0.1562
40136SOL    HW224966   8.331   6.244   5.669  0.6571  0.2506  1.1350
40137SOL     OW24967   3.947   7.445   1.096 -0.3288 -0.5036 -0.3628
40137SOL    HW124968   4.031   7.401   1.083  0.3456  0.7306 -0.3297
40137SOL    HW224969   3.958   7.494   1.177  0.0932  2.2129 -1.9256
40138SOL     OW24970  10.526   0.890   8.452  0.4971  0.5638  0.2234
40138SOL    HW124971  10.584   0.935   8.391  1.6722 -0.2329  0.7337
40138SOL    HW224972  10.486   0.961   8.503  0.8215  1.1375 -0.3066
40139SOL     OW24973  12.090   3.859   7.561 -1.0146  0.4969 -0.4711
40139SOL    HW124974  12.115   3.770   7.589  0.2319  1.2529  0.9444
40139SOL    HW224975  12.103   3.858   7.466 -1.6374 -1.0139 -0.5711
40140SOL     OW24976   8.023   3.895   0.534 -0.2129 -0.3934 -0.0596
40140SOL    HW124977   8.085   3.870   0.466  0.0381 -0.4621  0.1972
40140SOL    HW224978   8.038   3.989   0.547  1.1679 -0.7759  1.3539
40141SOL     OW24979   9.811   0.930   3.836  0.1496 -0.2147 -0.0195
40141SOL    HW124980   9.792   0.886   3.754 -0.8484  0.4012 -0.1383
40141SOL    HW224981   9.823   0.859   3.899  1.4899 -0.7113 -0.7843
40142SOL     OW24982   8.748   8.936   6.690 -0.2630  0.2745  0.6080
40142SOL    HW124983   8.788   8.993   6.624  2.0127 -1.9303 -0.0838
40142SOL    HW224984   8.780   8.970   6.774 -0.3995  1.0795  0.3389
40143SOL     OW24985   3.894  11.145   5.771  0.0064  0.0535  0.1399
40143SOL    HW124986   3.896  11.229   5.725 -0.5953  0.3747  0.6975
40143SOL    HW224987   3.975  11.101   5.744  0.2675  0.7598 -0.2407
40144SOL     OW24988   5.723   3.596  11.079  0.2880 -0.2685  0.2136
40144SOL    HW124989   5.733   3.621  10.987  0.1338  0.6543  0.4398
40144SOL    HW224990   5.684   3.509  11.076  1.8933 -1.0123 -0.6148
40145SOL     OW24991   2.676   2.999   1.085  0.1038 -0.4933 -0.0040
40145SOL    HW124992   2.693   3.085   1.048  3.6863 -1.0764 -0.0766
40145SOL    HW224993   2.690   3.011   1.179 -2.0383 -0.4930  0.3502
40146SOL     OW24994   2.484  10.568   9.507 -0.8079  0.0223  0.8376
40146SOL    HW124995   2.575  10.544   9.524 -0.7106 -0.1314  0.1223
40146SOL    HW224996   2.482  10.589   9.414 -1.6738 -0.7529  0.6687
40147SOL     OW24997  11.902   9.652   2.265  0.1891 -0.4133 -0.3914
40147SOL    HW124998  11.844   9.658   2.341  0.0311 -1.1688 -0.4475
40147SOL    HW224999  11.920   9.743   2.241  0.5873 -0.1603  0.8137
40148SOL     OW25000   3.304   4.637   4.824  0.0077 -0.2872  0.1491
40148SOL    HW125001   3.209   4.632   4.810 -0.1553  0.6719  0.7841
40148SOL    HW225002   3.318   4.589   4.905  0.2263 -1.3678 -0.5178
40149SOL     OW25003   4.352   0.031   3.490 -0.3412 -0.0971  0.3462
40149SOL    HW125004   4.280   0.074   3.444 -0.6601 -0.4375  0.5180
40149SOL    HW225005   4.362   0.081   3.571  0.4131  0.6794 -0.2209
40150SOL     OW25006   3.492   1.204   5.672 -0.4690  0.2976 -0.4156
40150SOL    HW125007   3.575   1.161   5.689  0.6262  1.9962 -1.1966
40150SOL    HW225008   3.449   1.207   5.758  1.0750  0.9796  0.3765
40151SOL     OW25009   3.046   0.091   5.217  0.1315 -0.0369  0.9325
40151SOL    HW125010   3.089   0.005   5.213 -0.5327 -0.3420 -1.5899
40151SOL    HW225011   3.022   0.101   5.309  1.9300 -1.6795  1.6601
40152SOL     OW25012   3.451   8.340   6.556  0.3433 -0.3532  0.1187
40152SOL    HW125013   3.479   8.252   6.582  0.3136 -0.2991  0.3344
40152SOL    HW225014   3.358   8.330   6.534  0.1930 -0.2661  0.6832
40153SOL     OW25015   8.992   5.857   5.405 -0.5963 -0.1294 -0.2494
40153SOL    HW125016   8.945   5.898   5.332 -0.3002 -0.7391 -0.7905
40153SOL    HW225017   8.967   5.764   5.401 -1.2674 -0.0325  0.9639
40154SOL     OW25018   1.889   9.887   7.549  0.4413 -0.3578  0.0932
40154SOL    HW125019   1.803   9.847   7.561  0.7152 -0.3912  2.1868
40154SOL    HW225020   1.871   9.966   7.497 -0.9990  0.1388  1.2901
40155SOL     OW25021   8.265   8.171   3.815 -0.7362  0.2345  0.0393
40155SOL    HW125022   8.347   8.121   3.817 -0.6518  0.3949  1.6720
40155SOL    HW225023   8.211   8.132   3.883 -0.1049  3.2238  2.4861
40156SOL     OW25024   9.791   1.694  10.053 -0.6145  0.1925 -0.0138
40156SOL    HW125025   9.721   1.756  10.029  1.1616  1.0802 -3.5797
40156SOL    HW225026   9.843   1.741  10.118 -0.8565  1.4115 -0.6495
40157SOL     OW25027   6.315   5.925   5.928 -0.2156 -0.4379 -0.2260
40157SOL    HW125028   6.295   6.009   5.888  1.5531  0.3666  0.4889
40157SOL    HW225029   6.235   5.901   5.975 -0.8559  0.6610 -0.7279
40158SOL     OW25030   1.974   4.841   2.601 -0.7777 -0.1187  0.5592
40158SOL    HW125031   1.968   4.828   2.696 -1.0812 -1.5215  0.3705
40158SOL    HW225032   1.952   4.755   2.564 -1.2899  0.5795 -0.7990
40159SOL     OW25033   2.513  10.172   4.244 -0.1803  0.0967 -0.2810
40159SOL    HW125034   2.479  10.153   4.157 -1.0436  0.8949 -0.1355
40159SOL    HW225035   2.438  10.208   4.291 -0.2154 -1.8729  1.3343
40160SOL     OW25036   7.789   3.084   6.178  0.4889 -0.1243 -0.3130
40160SOL    HW125037   7.772   2.993   6.153 -0.1389 -0.3929  1.0354
40160SOL    HW225038   7.791   3.131   6.095 -2.1108 -0.8882 -0.8934
40161SOL     OW25039   9.140   1.565   1.615 -0.0139  0.4767  0.1870
40161SOL    HW125040   9.109   1.474   1.618  0.1108  0.4491  0.7129
40161SOL    HW225041   9.089   1.605   1.545 -2.5185  0.8887  2.0711
40162SOL     OW25042   6.877   2.270   4.327  0.6929 -0.2172  0.6138
40162SOL    HW125043   6.962   2.283   4.285 -0.5710  0.0539 -2.0345
40162SOL    HW225044   6.849   2.357   4.353  0.1678  0.0692 -0.8101
40163SOL     OW25045   4.925  11.476   4.954 -0.0211  0.2159  0.3683
40163SOL    HW125046   4.908  11.389   4.918 -0.0539  0.3972 -0.0586
40163SOL    HW225047   4.982  11.518   4.890 -2.2741  1.5551 -0.9021
40164SOL     OW25048   1.296   4.176   4.478  0.5667 -0.5547  0.5416
40164SOL    HW125049   1.225   4.230   4.442  1.0279  0.3167  0.9204
40164SOL    HW225050   1.263   4.150   4.565  1.1621  0.8092  1.2030
40165SOL     OW25051   7.589   4.219   1.497  0.2556  0.0447 -0.3807
40165SOL    HW125052   7.640   4.212   1.417  1.7317 -1.3877  0.6233
40165SOL    HW225053   7.597   4.311   1.522  1.4667  0.0851 -0.8313
40166SOL     OW25054   8.828   8.758  10.888  0.1045 -0.3021  0.4029
40166SOL    HW125055   8.748   8.810  10.881 -0.3556 -1.0797 -0.4057
40166SOL    HW225056   8.858   8.748  10.797 -0.2116 -2.0138  0.4437
40167SOL     OW25057   0.173   4.185   3.720 -0.1614  0.3308 -0.1322
40167SOL    HW125058   0.206   4.225   3.801 -2.3525 -2.0678  2.1412
40167SOL    HW225059   0.230   4.110   3.705 -0.4796  0.0793 -0.1010
40168SOL     OW25060   8.846  10.454   4.062  0.4003  0.1647 -0.0479
40168SOL    HW125061   8.846  10.368   4.105 -0.2957  0.8758  1.4461
40168SOL    HW225062   8.845  10.517   4.134  0.7846  1.4371 -1.1156
40169SOL     OW25063   7.713   7.546  10.576  0.2684 -0.2214  0.1238
40169SOL    HW125064   7.660   7.565  10.499  0.4659 -3.3154 -0.9083
40169SOL    HW225065   7.650   7.544  10.648  0.0914  2.7446  0.1696
40170SOL     OW25066   6.448   2.681   8.516 -0.5319 -0.2476 -0.1946
40170SOL    HW125067   6.400   2.634   8.584  1.6775 -1.4475  0.6579
40170SOL    HW225068   6.383   2.698   8.448 -2.2839 -1.1198  1.1801
40171SOL     OW25069   3.673   8.131   0.642  0.4163 -0.3052  0.2517
40171SOL    HW125070   3.725   8.211   0.645 -0.4436  0.2261  1.8012
40171SOL    HW225071   3.583   8.160   0.657  0.1377 -1.5898  1.1947
40172SOL     OW25072   2.454   4.983   7.471  0.7406  0.7090 -0.5431
40172SOL    HW125073   2.361   4.957   7.475  0.7493  0.7235 -0.2019
40172SOL    HW225074   2.502   4.900   7.480  0.7597  0.6154 -1.4506
40173SOL     OW25075  10.378   4.772   9.310  0.3276 -0.1566  0.2102
40173SOL    HW125076  10.334   4.774   9.394  1.1581  0.3388  0.6433
40173SOL    HW225077  10.468   4.746   9.330  0.3135 -0.8814 -0.6221
40174SOL     OW25078  11.376   7.813   1.525 -0.5038  0.0034 -0.6544
40174SOL    HW125079  11.281   7.802   1.534 -0.3641 -0.5323  0.3117
40174SOL    HW225080  11.397   7.888   1.581 -0.2977 -0.1454 -0.5331
40175SOL     OW25081   8.656   8.809   6.217 -0.3578 -0.1087 -0.1782
40175SOL    HW125082   8.733   8.756   6.241  1.5944  1.7936 -1.8614
40175SOL    HW225083   8.625   8.843   6.301  2.4426  1.3536  0.3940
40176SOL     OW25084   3.141   3.596   6.003 -0.2315  0.1107 -0.0090
40176SOL    HW125085   3.192   3.535   5.951 -0.4989 -1.2380  1.2556
40176SOL    HW225086   3.052   3.561   6.002 -0.5954  0.9878 -0.0081
40177SOL     OW25087   2.909   1.827   6.199 -0.3470 -0.2580 -0.2375
40177SOL    HW125088   2.860   1.843   6.280 -1.1340 -0.4174 -0.6691
40177SOL    HW225089   3.001   1.841   6.223 -0.6633  0.8219  0.4014
40178SOL     OW25090   5.486   7.875  11.016 -0.0475  0.0448 -0.0509
40178SOL    HW125091   5.501   7.866  11.110  1.4963  1.2536 -0.1542
40178SOL    HW225092   5.424   7.947  11.008 -1.6674 -1.2716  0.0915
40179SOL     OW25093   1.114   7.060   2.997 -0.0578  0.7538 -0.0186
40179SOL    HW125094   1.070   7.108   2.927  0.4998  0.4685 -0.5659
40179SOL    HW225095   1.056   6.987   3.016 -0.9471  1.6646  0.8656
40180SOL     OW25096   7.769  11.075   1.915  0.6961  0.3784 -0.2110
40180SOL    HW125097   7.702  11.107   1.975 -0.5128  1.8784 -2.2433
40180SOL    HW225098   7.806  11.154   1.876  1.4538 -0.5423 -1.4157
40181SOL     OW25099   1.023   7.412   7.212 -0.0038  0.0997 -0.0711
40181SOL    HW125100   1.115   7.387   7.213 -0.3156 -1.1344  0.7799
40181SOL    HW225101   1.021   7.495   7.164  2.1510  2.4893  3.4989
40182SOL     OW25102  10.829   2.831   9.109 -0.4532 -0.9790 -0.6895
40182SOL    HW125103  10.851   2.762   9.046  1.5081 -1.5841  0.5379
40182SOL    HW225104  10.908   2.838   9.164 -1.0576  1.4400 -0.0441
40183SOL     OW25105   9.122   5.537   5.315  0.2261  0.3024  0.1581
40183SOL    HW125106   9.180   5.464   5.337  2.4093  2.3639  1.7286
40183SOL    HW225107   9.058   5.538   5.386 -0.2421 -0.4357 -0.2313
40184SOL     OW25108   5.973   2.878   6.107  0.0772 -0.2061  0.3114
40184SOL    HW125109   5.878   2.882   6.117  0.0050  0.1984 -0.4746
40184SOL    HW225110   5.992   2.930   6.029  0.5603 -3.1513 -1.7307
40185SOL     OW25111   7.301  11.795  10.051  0.0521 -0.0963  0.6678
40185SOL    HW125112   7.252  11.718  10.024  1.7760 -1.3366  0.9180
40185SOL    HW225113   7.278  11.808  10.143 -0.9509  0.2799  0.3799
40186SOL     OW25114   2.960  10.234   3.322  0.3122 -0.0559 -0.7303
40186SOL    HW125115   2.951  10.287   3.242 -0.0125  0.5325 -0.3105
40186SOL    HW225116   2.906  10.279   3.387  0.3506 -0.6887 -0.2519
40187SOL     OW25117   6.849   4.546   3.613  0.4257 -0.5940 -0.2264
40187SOL    HW125118   6.842   4.559   3.707 -0.1347  0.2180 -0.3692
40187SOL    HW225119   6.822   4.455   3.599 -0.9070 -0.2993  0.2591
40188SOL     OW25120   4.048   9.618   9.933  1.0674 -0.5042 -0.7152
40188SOL    HW125121   4.035   9.651  10.022  1.3285 -2.7445  0.2250
40188SOL    HW225122   4.143   9.617   9.921  1.0925 -1.5960 -0.4467
40189SOL     OW25123   9.616   9.704   5.810 -0.1247  0.9039 -0.0210
40189SOL    HW125124   9.711   9.697   5.822 -0.2859 -2.1479  0.3056
40189SOL    HW225125   9.589   9.768   5.875  1.5962  0.9968  0.6616
40190SOL     OW25126   9.893   6.969   7.170  0.3480  0.0375  0.6353
40190SOL    HW125127   9.869   7.021   7.093  4.1349  1.5927  0.3124
40190SOL    HW225128   9.863   6.881   7.149 -0.4417  0.7822 -1.7429
40191SOL     OW25129   4.629   6.844   2.610 -0.4224 -0.2987 -0.0357
40191SOL    HW125130   4.665   6.804   2.689  0.2707  1.1462  0.4241
40191SOL    HW225131   4.698   6.905   2.581 -1.7956  1.2858 -0.1024
40192SOL     OW25132  11.446   1.878   7.174 -0.1210  0.0209 -0.4221
40192SOL    HW125133  11.453   1.805   7.112  0.3238  1.4190 -2.0880
40192SOL    HW225134  11.535   1.891   7.206 -0.0770  0.2546 -0.6362
40193SOL     OW25135   3.473   0.251   6.138  0.4838  0.1275  0.4558
40193SOL    HW125136   3.506   0.290   6.057  2.1832 -0.0659  1.0065
40193SOL    HW225137   3.504   0.161   6.136 -2.6086 -1.0183 -0.3583
40194SOL     OW25138   8.939   4.338   3.955  0.4884  0.4722  0.5462
40194SOL    HW125139   8.873   4.347   4.023 -2.0805  1.3814 -1.8598
40194SOL    HW225140   8.981   4.254   3.973 -0.6987  0.2667  2.6911
40195SOL     OW25141   4.605   1.869   5.065 -0.0091  0.4404  0.1189
40195SOL    HW125142   4.584   1.960   5.046  1.9020  0.6497 -1.2856
40195SOL    HW225143   4.697   1.860   5.041  0.0271 -1.7049  0.8510
40196SOL     OW25144   7.406   4.229   2.090  0.6264 -0.6161  0.4449
40196SOL    HW125145   7.499   4.247   2.073  0.8508  0.1298  2.2170
40196SOL    HW225146   7.360   4.305   2.055  0.5615 -1.4561 -1.3544
40197SOL     OW25147  11.779   8.070   5.863  0.4701 -0.8931 -0.3539
40197SOL    HW125148  11.819   8.124   5.795  0.0414 -0.8697 -0.5967
40197SOL    HW225149  11.811   7.981   5.845  2.1560 -0.5491  0.7932
40198SOL     OW25150   5.328   8.247   7.509 -0.3469 -0.0693 -0.0717
40198SOL    HW125151   5.248   8.194   7.500 -0.7644  0.7085 -1.1806
40198SOL    HW225152   5.322   8.283   7.597 -1.9722  1.0870 -0.5866
40199SOL     OW25153   8.865   4.111  10.957  0.3876 -0.1912  0.3088
40199SOL    HW125154   8.807   4.037  10.974 -0.3159 -0.2363 -1.9917
40199SOL    HW225155   8.949   4.071  10.933 -0.4152 -0.4219 -2.5023
40200SOL     OW25156   7.842   7.367   0.411 -0.5972 -0.1463 -0.3332
40200SOL    HW125157   7.826   7.418   0.332 -0.6846 -1.7122 -1.3666
40200SOL    HW225158   7.761   7.318   0.424 -0.5934  0.1165  0.7566
40201SOL     OW25159   0.392   0.002   0.564 -0.0287  0.1848 -0.1762
40201SOL    HW125160   0.406  -0.018   0.657  1.6152  1.2160 -0.1589
40201SOL    HW225161   0.301  -0.023   0.548  0.0533 -1.3008  1.3517
40202SOL     OW25162  11.763   9.204   3.300  0.0727  0.0023 -0.3350
40202SOL    HW125163  11.674   9.171   3.310  0.5228 -1.4922 -0.8122
40202SOL    HW225164  11.756   9.298   3.310 -1.8421  0.1166 -2.1409
40203SOL     OW25165   3.448   1.036  10.666 -0.0262 -0.0289  0.2791
40203SOL    HW125166   3.526   1.059  10.715 -0.3511  1.8048  0.0456
40203SOL    HW225167   3.462   0.946  10.637  1.2408 -0.2932  1.6208
40204SOL     OW25168   4.764  12.043   5.523 -0.0131 -0.1768  0.7250
40204SOL    HW125169   4.757  11.948   5.512  0.0876 -0.1197  0.1190
40204SOL    HW225170   4.685  12.077   5.480  0.7432  0.1009 -0.4858
40205SOL     OW25171   7.089   1.458   8.544  0.1977  0.2537  0.0057
40205SOL    HW125172   7.178   1.484   8.570  0.4524 -0.2157 -0.3665
40205SOL    HW225173   7.051   1.537   8.506  0.7423  0.2506 -0.5544
40206SOL     OW25174   2.139   0.803  11.819  0.3277 -0.3601  0.0853
40206SOL    HW125175   2.233   0.781  11.820  0.8605  1.4494  2.7767
40206SOL    HW225176   2.096   0.726  11.855  0.9360 -0.7593 -0.0234
40207SOL     OW25177   1.859   7.416   7.442  0.1139 -0.2165  0.1446
40207SOL    HW125178   1.883   7.414   7.349  0.7576 -1.0824  0.3198
40207SOL    HW225179   1.765   7.398   7.443  0.5950 -3.0617 -0.1927
40208SOL     OW25180   1.209   0.312   4.848 -0.0900 -0.1396 -0.4776
40208SOL    HW125181   1.290   0.300   4.897 -0.7473  0.0344  0.6795
40208SOL    HW225182   1.142   0.268   4.900 -0.6041 -1.1241 -1.8971
40209SOL     OW25183   2.385   6.443   4.759  0.1758  0.0533 -0.2872
40209SOL    HW125184   2.333   6.437   4.679  0.4871  1.6827 -0.6543
40209SOL    HW225185   2.473   6.414   4.733  0.4047  1.0727 -0.6887
40210SOL     OW25186  10.840   6.359   8.322 -0.4821 -0.3511  0.3172
40210SOL    HW125187  10.762   6.380   8.374 -0.4891 -0.5154  0.3717
40210SOL    HW225188  10.822   6.398   8.237 -0.7752 -0.6899  0.2229
40211SOL     OW25189  10.619   0.368  12.113 -0.3253 -0.1003  0.3047
40211SOL    HW125190  10.693   0.322  12.073 -0.0066  1.0271 -0.4252
40211SOL    HW225191  10.578   0.415  12.041 -0.1846  1.3763  1.1459
40212SOL     OW25192   6.470  11.965   7.672 -0.4710 -0.5937  0.2800
40212SOL    HW125193   6.375  11.975   7.682 -0.1742  0.3745  2.6219
40212SOL    HW225194   6.502  12.054   7.659 -0.0779 -1.1219 -3.9804
40213SOL     OW25195  11.618   9.773   3.629  0.7591  0.2911 -0.5910
40213SOL    HW125196  11.645   9.726   3.550  0.9176 -1.7650  0.6378
40213SOL    HW225197  11.699   9.812   3.662  1.1720 -0.9572 -0.0980
40214SOL     OW25198   5.171   3.736   0.818  0.3472  0.2660  0.0419
40214SOL    HW125199   5.153   3.775   0.904  1.1971  1.6004 -0.3512
40214SOL    HW225200   5.226   3.660   0.838 -0.4898 -0.1723  0.7571
40215SOL     OW25201   8.683   9.655   6.537 -0.5687 -0.4282 -0.1240
40215SOL    HW125202   8.700   9.575   6.587 -0.5120 -0.7389 -0.6321
40215SOL    HW225203   8.762   9.707   6.549 -0.6232 -0.4305  0.2445
40216SOL     OW25204   5.912   3.150   4.452  0.6016  0.1149 -0.2036
40216SOL    HW125205   5.911   3.150   4.356 -3.8685  1.1739 -0.3828
40216SOL    HW225206   5.868   3.069   4.477 -0.6376  1.0432  0.7867
40217SOL     OW25207   6.141  10.278   1.456 -0.2031 -0.2742 -0.0362
40217SOL    HW125208   6.066  10.336   1.442  0.2340  0.9414  2.2391
40217SOL    HW225209   6.217  10.336   1.448  0.2061 -0.0550  3.7102
40218SOL     OW25210   3.326   6.575   8.435 -0.1390  0.3898 -0.5964
40218SOL    HW125211   3.350   6.542   8.348 -0.6004  1.1843 -1.0448
40218SOL    HW225212   3.409   6.603   8.474 -0.0146  0.7869 -1.1207
40219SOL     OW25213   6.084   9.352  10.922  0.2403  0.6676  0.5436
40219SOL    HW125214   6.112   9.331  10.833 -2.0728  1.0710 -0.3391
40219SOL    HW225215   6.100   9.271  10.972  2.8411  0.8554  0.1722
40220SOL     OW25216  10.863   4.281   6.010  0.4795  0.9138 -0.4870
40220SOL    HW125217  10.873   4.319   6.098  0.9275 -0.5222  0.1110
40220SOL    HW225218  10.815   4.348   5.961  0.0306  1.6680  0.9060
40221SOL     OW25219   4.531   0.577   1.573  0.4312 -0.1278  0.6464
40221SOL    HW125220   4.573   0.554   1.656  3.8307 -0.4157 -1.0035
40221SOL    HW225221   4.573   0.659   1.547 -0.1976 -0.3087 -1.0469
40222SOL     OW25222   4.884   0.243   3.017 -0.2423  0.0514 -0.6546
40222SOL    HW125223   4.860   0.211   3.103  0.7239 -1.0065 -0.7559
40222SOL    HW225224   4.875   0.338   3.023 -2.9529 -0.1656 -0.2783
40223SOL     OW25225   3.758   3.425   6.261  0.1295  0.6040  0.2789
40223SOL    HW125226   3.810   3.504   6.248  1.5753 -0.5518 -1.3810
40223SOL    HW225227   3.718   3.407   6.176 -0.2118 -0.4382  0.6407
40224SOL     OW25228   1.033  10.086   8.925 -0.0557  0.4429  0.3695
40224SOL    HW125229   0.952  10.075   8.875  0.7169 -1.3822 -0.6115
40224SOL    HW225230   1.098  10.115   8.861  0.0560  2.1882  1.2017
40225SOL     OW25231  11.968   4.767   3.027 -0.4880  0.0581 -0.1314
40225SOL    HW125232  11.897   4.828   3.007  1.0447  1.9319 -0.1373
40225SOL    HW225233  11.952   4.692   2.971 -3.6209 -0.5576  1.3863
40226SOL     OW25234   9.989   7.439   9.466  0.0083  0.3594 -0.3565
40226SOL    HW125235   9.943   7.378   9.409 -0.4731  0.8678 -0.5219
40226SOL    HW225236   9.921   7.475   9.523  0.4972 -0.2325  0.6341
40227SOL     OW25237   4.603   0.812   0.156  0.1574  0.3862 -0.1987
40227SOL    HW125238   4.666   0.853   0.215 -0.8613 -0.6009  1.6678
40227SOL    HW225239   4.647   0.732   0.127  0.3290  0.4306 -0.0633
40228SOL     OW25240   6.520  11.485   1.250 -0.1768  0.3486 -0.1322
40228SOL    HW125241   6.504  11.468   1.343 -0.3035 -0.0030 -0.2152
40228SOL    HW225242   6.434  11.473   1.209 -0.3126  1.3813 -0.1723
40229SOL     OW25243   0.435   6.513   7.732  0.6585  0.2394  0.0513
40229SOL    HW125244   0.399   6.532   7.645 -0.2646  0.7540  0.5314
40229SOL    HW225245   0.384   6.438   7.763 -0.3046  1.2336  0.9093
40230SOL     OW25246   8.648   4.517  10.560  0.5182  0.1808  0.4062
40230SOL    HW125247   8.691   4.431  10.559  0.9786  0.4045  0.6322
40230SOL    HW225248   8.658   4.551  10.472  0.3290  0.0027  0.3147
40231SOL     OW25249   5.550   4.072   0.461  0.0096 -0.2870  0.2890
40231SOL    HW125250   5.480   4.137   0.466  0.5665  0.3187  0.3245
40231SOL    HW225251   5.553   4.048   0.368  1.6153  1.7970 -0.2797
40232SOL     OW25252  10.500   8.119   9.132  0.6415 -0.2053 -0.1189
40232SOL    HW125253  10.514   8.029   9.102  2.6153  0.2978 -0.8237
40232SOL    HW225254  10.569   8.170   9.090 -0.8102  1.7890 -0.2460
40233SOL     OW25255   6.696   5.833   8.853 -0.5041  0.2001 -0.6267
40233SOL    HW125256   6.742   5.787   8.783  0.9223  0.2735  0.2186
40233SOL    HW225257   6.759   5.900   8.882 -0.4177 -0.8343  1.7480
40234SOL     OW25258   1.922  10.159   5.490  0.5179 -0.5338 -0.1290
40234SOL    HW125259   1.878  10.239   5.520  1.3690  0.0222 -0.3310
40234SOL    HW225260   1.870  10.129   5.416 -0.9798 -1.3167  1.1818
40235SOL     OW25261   8.777   6.372   9.146  0.7098 -0.0404 -0.0270
40235SOL    HW125262   8.687   6.405   9.159  0.0579 -1.9256  0.5323
40235SOL    HW225263   8.815   6.432   9.082 -1.1628  0.4456 -0.7657
40236SOL     OW25264   2.462   7.778   2.688  0.2742 -0.6551  0.3862
40236SOL    HW125265   2.461   7.874   2.691  1.8427 -0.5739 -0.3913
40236SOL    HW225266   2.546   7.753   2.728  0.8845 -1.5565 -1.3367
40237SOL     OW25267   7.230   2.912   5.538 -0.3928 -0.4123  0.1932
40237SOL    HW125268   7.150   2.952   5.572 -1.2411 -2.0043  0.1429
40237SOL    HW225269   7.299   2.976   5.559 -1.0842 -0.5381  3.4787
40238SOL     OW25270   7.433   9.212   7.656 -0.4215 -0.2608  0.4539
40238SOL    HW125271   7.407   9.274   7.588  0.2951 -1.4310 -0.9553
40238SOL    HW225272   7.404   9.127   7.623 -0.1377 -0.8516  1.6676
40239SOL     OW25273   5.690   4.898   9.643 -0.3804  0.0692  0.3221
40239SOL    HW125274   5.741   4.954   9.584 -1.0364  0.6855  0.3287
40239SOL    HW225275   5.599   4.911   9.616 -0.4230 -2.8118 -1.2584
40240SOL     OW25276   4.493  10.233  12.060 -0.5908 -0.1858  0.1716
40240SOL    HW125277   4.404  10.258  12.084 -0.8766 -2.5224  1.8636
40240SOL    HW225278   4.548  10.269  12.129 -0.5220 -0.7812  0.4316
40241SOL     OW25279  10.248   4.452   1.890 -0.4275  0.0404  0.4349
40241SOL    HW125280  10.248   4.536   1.938  0.3342  0.7386 -0.7499
40241SOL    HW225281  10.223   4.388   1.956  2.3419  0.6817  2.3237
40242SOL     OW25282   4.516   3.899   6.056  0.3709 -0.5883 -0.4017
40242SOL    HW125283   4.537   3.865   5.969 -1.3569  2.0580 -1.9731
40242SOL    HW225284   4.432   3.944   6.045  0.7637  1.0362  2.3090
40243SOL     OW25285   6.650  10.852   2.413 -0.0035 -0.2636  0.0481
40243SOL    HW125286   6.556  10.868   2.423  0.0234  0.0369 -0.1442
40243SOL    HW225287   6.669  10.880   2.323  0.2481 -0.4359  0.0479
40244SOL     OW25288   1.883   3.338   0.389 -0.2102  0.1682 -0.3176
40244SOL    HW125289   1.849   3.253   0.363 -1.2241 -0.8430  3.5790
40244SOL    HW225290   1.974   3.322   0.413  0.2044  0.6767 -1.5057
40245SOL     OW25291   3.229   7.418   1.536 -0.1928  0.1002 -0.7525
40245SOL    HW125292   3.301   7.381   1.485 -0.3970 -1.1955 -0.1479
40245SOL    HW225293   3.154   7.363   1.514 -0.3563 -0.2876  0.6825
40246SOL     OW25294   4.622   1.135   7.978  0.3169  0.7395  0.2241
40246SOL    HW125295   4.661   1.048   7.970 -1.3076 -0.2408  2.2582
40246SOL    HW225296   4.614   1.165   7.887  3.1808 -0.1101 -0.4368
40247SOL     OW25297  10.238   4.512   9.819 -0.5869 -0.0735 -0.2705
40247SOL    HW125298  10.203   4.597   9.846  1.2825  0.6413  0.0243
40247SOL    HW225299  10.332   4.517   9.837 -0.2147 -1.7262 -1.4608
40248SOL     OW25300   6.655   1.354  11.471 -0.1493 -0.1805 -0.1793
40248SOL    HW125301   6.576   1.355  11.417  0.1021  1.0796 -0.5591
40248SOL    HW225302   6.657   1.441  11.511  0.7454 -0.4012  0.2730
40249SOL     OW25303  10.991   3.598  10.627 -0.2043  0.1751  0.2289
40249SOL    HW125304  11.038   3.667  10.580  0.3893 -0.3105  0.1038
40249SOL    HW225305  10.955   3.642  10.704  0.1258  0.6424  0.1201
40250SOL     OW25306   5.030   7.062   9.951 -0.5514 -0.1048  0.2669
40250SOL    HW125307   4.954   7.010   9.978 -0.3439 -0.8735 -0.5982
40250SOL    HW225308   5.105   7.005   9.966 -0.3459 -0.1967 -0.9903
40251SOL     OW25309   1.220   2.787   9.889  0.5864 -0.5396 -0.5533
40251SOL    HW125310   1.287   2.718   9.878 -0.0518 -1.1017 -0.9878
40251SOL    HW225311   1.184   2.798   9.801 -1.1884 -1.5788  0.0023
40252SOL     OW25312   3.607   8.332   1.757  1.0227  0.5176  0.3978
40252SOL    HW125313   3.558   8.412   1.736  3.0459  1.7262  0.0159
40252SOL    HW225314   3.601   8.325   1.852 -1.5662 -0.5560  0.2413
40253SOL     OW25315   3.418   8.487   1.055 -0.4384 -0.1296  0.0916
40253SOL    HW125316   3.467   8.565   1.029 -0.0428 -0.4620 -0.1695
40253SOL    HW225317   3.367   8.464   0.977 -0.7551  0.0211  0.2546
40254SOL     OW25318  11.942   6.228   5.242  0.1747 -0.1633  0.3756
40254SOL    HW125319  11.956   6.271   5.158 -0.4799  0.4510  0.5736
40254SOL    HW225320  12.020   6.249   5.293 -0.7517  2.0913  0.9959
40255SOL     OW25321   4.430  10.108   8.246  0.5339 -0.5836 -0.0339
40255SOL    HW125322   4.369  10.160   8.194  1.0782 -0.5616 -0.6700
40255SOL    HW225323   4.490  10.171   8.284  0.8393 -0.6943 -0.3274
40256SOL     OW25324   9.459   6.700   9.479  0.8843 -0.7970 -0.0297
40256SOL    HW125325   9.444   6.762   9.408 -0.3264  0.6980  1.4348
40256SOL    HW225326   9.371   6.670   9.504  1.1039 -0.1187  1.7634
40257SOL     OW25327   0.404   2.666  11.578  0.3075 -0.6052  0.5218
40257SOL    HW125328   0.449   2.602  11.523 -0.2787 -2.1995  1.8436
40257SOL    HW225329   0.337   2.616  11.624 -0.5073  1.0626  1.2371
40258SOL     OW25330   6.750   1.139  10.298  0.2672  0.2838 -0.8624
40258SOL    HW125331   6.746   1.161  10.392 -2.6907 -0.4704 -0.7077
40258SOL    HW225332   6.793   1.054  10.295  0.2269  0.2319 -0.1756
40259SOL     OW25333   2.901   2.052   5.211 -0.2483 -0.2953  0.0957
40259SOL    HW125334   2.901   1.989   5.283 -0.1047 -0.0431  0.3176
40259SOL    HW225335   2.980   2.105   5.226 -0.8089  0.4820  0.3859
40260SOL     OW25336   5.912   4.555   9.867  0.2319 -0.3127  0.3465
40260SOL    HW125337   5.947   4.631   9.822  0.8619  0.0445  1.3930
40260SOL    HW225338   5.943   4.480   9.816 -0.6629  0.1153 -0.8743
40261SOL     OW25339   6.648   2.753   7.816 -0.3799  0.3386  0.4773
40261SOL    HW125340   6.716   2.786   7.875 -1.0940  3.6037 -0.2898
40261SOL    HW225341   6.686   2.676   7.774  1.4333 -0.0116  2.6151
40262SOL     OW25342   6.102   0.671   5.906  0.3491 -0.0912 -0.2112
40262SOL    HW125343   6.130   0.758   5.934  0.6037  0.1171 -1.0781
40262SOL    HW225344   6.008   0.681   5.888  0.3825  0.0115 -0.3318
40263SOL     OW25345   2.892   3.449   8.086 -0.3619  0.1089 -0.4823
40263SOL    HW125346   2.960   3.510   8.115  2.1461 -3.0713  1.0210
40263SOL    HW225347   2.851   3.418   8.167 -0.7028 -1.0855 -1.0925
40264SOL     OW25348   0.018   9.194   2.753 -0.5442 -0.0114  0.1871
40264SOL    HW125349  -0.042   9.233   2.817 -0.6518 -0.9647  0.7018
40264SOL    HW225350   0.059   9.121   2.801 -2.7511 -2.6391 -1.5880
40265SOL     OW25351   7.452   2.550   2.446 -0.1934  0.3963  0.6099
40265SOL    HW125352   7.455   2.498   2.365 -0.0063 -1.6301  1.8474
40265SOL    HW225353   7.368   2.596   2.442  0.0847  0.8482 -0.9938
40266SOL     OW25354  11.517   4.393   4.419 -0.3060  0.0548 -0.0261
40266SOL    HW125355  11.523   4.487   4.437 -2.2725  0.1082  0.5822
40266SOL    HW225356  11.424   4.378   4.403  0.0857 -1.6653 -0.9191
40267SOL     OW25357   3.037   3.737   6.283 -0.3836 -0.0537  0.5299
40267SOL    HW125358   3.070   3.766   6.368 -0.8018  0.1093  0.6385
40267SOL    HW225359   3.010   3.818   6.239  0.4564 -0.0625 -0.0340
40268SOL     OW25360   9.631   6.181  11.962  0.1100 -0.4123 -0.1981
40268SOL    HW125361   9.711   6.179  12.014  0.7948 -0.0724 -1.2184
40268SOL    HW225362   9.560   6.179  12.027  0.9133  2.5044  0.8843
40269SOL     OW25363   1.788   6.848   5.527  0.7394 -0.6712 -0.5195
40269SOL    HW125364   1.850   6.783   5.559  1.1372 -0.1536 -0.2276
40269SOL    HW225365   1.709   6.835   5.580  0.7584 -1.0251 -0.5795
40270SOL     OW25366   2.206  10.817  12.021 -0.1883  0.1622  0.6098
40270SOL    HW125367   2.265  10.849  11.952 -1.0250 -1.9878 -1.2141
40270SOL    HW225368   2.264  10.776  12.085  0.4059 -1.1125 -0.7039
40271SOL     OW25369   5.042   8.643   2.171 -0.1125 -0.0388  0.4243
40271SOL    HW125370   5.062   8.625   2.263 -0.9065 -0.4356  0.5220
40271SOL    HW225371   5.058   8.560   2.127  1.0753  0.3591  0.0469
40272SOL     OW25372   2.511   0.846  10.832  0.3170  0.4719 -0.3577
40272SOL    HW125373   2.532   0.822  10.923  0.1438  2.1543  0.1654
40272SOL    HW225374   2.427   0.803  10.815 -0.9910  2.2360  1.2330
40273SOL     OW25375   2.400   0.803   8.339  0.5554 -0.1948  0.2846
40273SOL    HW125376   2.456   0.754   8.278  0.5796 -0.6076  0.6339
40273SOL    HW225377   2.313   0.797   8.301  0.4738 -0.9225  0.5667
40274SOL     OW25378   3.534   4.947   2.939 -0.3059 -0.8219  0.4022
40274SOL    HW125379   3.554   4.976   2.851 -2.2919  0.5635  0.3339
40274SOL    HW225380   3.453   4.896   2.930 -0.1875 -1.1944  1.3247
40275SOL     OW25381   9.771  10.776   1.993  0.6187  0.3752 -0.2817
40275SOL    HW125382   9.817  10.834   2.054 -0.6544  2.0584 -0.8560
40275SOL    HW225383   9.750  10.831   1.918 -1.7159 -0.4724 -0.3339
40276SOL     OW25384   9.276   8.793   3.519 -0.0254 -0.3160 -0.1647
40276SOL    HW125385   9.290   8.835   3.434  0.6327  1.0924  0.6152
40276SOL    HW225386   9.301   8.701   3.504  0.6410  0.0333 -1.3343
40277SOL     OW25387   3.679   2.638   8.778 -0.3717  0.1063 -0.1380
40277SOL    HW125388   3.683   2.618   8.871  0.6662  0.4993 -0.0780
40277SOL    HW225389   3.590   2.668   8.763 -0.6496 -0.3129  0.6565
40278SOL     OW25390   4.691   0.839   5.182  0.4691 -0.0778 -0.0281
40278SOL    HW125391   4.731   0.789   5.111  2.0507  1.0242  0.0315
40278SOL    HW225392   4.752   0.911   5.198 -1.3234  1.4273  0.4227
40279SOL     OW25393   9.392   6.092   3.514  0.2119  0.1834  0.4238
40279SOL    HW125394   9.377   6.158   3.582 -0.3607  0.2560  0.2366
40279SOL    HW225395   9.426   6.141   3.439  1.7702 -0.0299  0.9661
40280SOL     OW25396   9.260   0.666  11.868  0.0957 -0.0340  0.5730
40280SOL    HW125397   9.202   0.740  11.884  0.6635  1.0569 -1.9287
40280SOL    HW225398   9.201   0.591  11.862 -0.9598  0.8257 -0.5325
40281SOL     OW25399   2.957   2.429   4.077  0.0082 -0.2828  0.3658
40281SOL    HW125400   2.877   2.468   4.114 -0.4684 -0.7380 -0.1701
40281SOL    HW225401   3.019   2.428   4.150  0.5995  2.9472  0.0452
40282SOL     OW25402   6.728   7.434   0.038  0.0043  0.1771 -0.0807
40282SOL    HW125403   6.741   7.373   0.111  0.8921  2.6129  1.9759
40282SOL    HW225404   6.637   7.421   0.012 -0.1766 -1.1800  1.0971
40283SOL     OW25405   8.935   3.022   7.716 -0.4245 -0.0415  0.0930
40283SOL    HW125406   8.989   3.002   7.792 -0.2443  0.8147  0.2014
40283SOL    HW225407   8.865   2.957   7.719  0.2932 -0.8143  0.2571
40284SOL     OW25408  11.834   2.627   6.262 -0.3880  0.2872  0.2899
40284SOL    HW125409  11.849   2.534   6.243 -0.0424  0.0679  1.5554
40284SOL    HW225410  11.908   2.672   6.220 -1.0810  0.1220 -1.1854
40285SOL     OW25411   9.723   1.062  10.027 -0.1094 -0.0416  0.0778
40285SOL    HW125412   9.757   1.126   9.965  0.3716  0.0540  0.4374
40285SOL    HW225413   9.629   1.082  10.033  0.1374  1.0065  0.6319
40286SOL     OW25414   8.292   3.660   6.216  0.0982  0.3355  0.0562
40286SOL    HW125415   8.228   3.593   6.191  0.7267 -0.8302  1.3948
40286SOL    HW225416   8.241   3.740   6.223 -0.7662 -0.0739 -1.1770
40287SOL     OW25417  10.494   6.920   5.975 -0.3927 -1.0139 -0.5549
40287SOL    HW125418  10.583   6.906   5.944 -0.2023 -2.1528  0.4457
40287SOL    HW225419  10.501   6.991   6.038 -0.2974 -0.6829 -0.9376
40288SOL     OW25420   8.454  11.147   5.496  0.3544  0.5673 -0.0660
40288SOL    HW125421   8.534  11.200   5.503  0.8854 -0.3161  5.2166
40288SOL    HW225422   8.386  11.204   5.530  0.0238 -0.5499  1.2323
40289SOL     OW25423   0.464   0.390   5.770  0.3197 -0.0723  0.5991
40289SOL    HW125424   0.399   0.325   5.797 -1.6810  2.1665  1.5807
40289SOL    HW225425   0.548   0.345   5.780 -0.9546 -2.6919  0.5358
40290SOL     OW25426   0.147   0.443   2.751  0.1236  0.5190 -0.2940
40290SOL    HW125427   0.241   0.446   2.731  0.2501  0.8392  0.3285
40290SOL    HW225428   0.143   0.448   2.846 -0.4356 -1.4565 -0.1726
40291SOL     OW25429   6.127   9.053  10.247  0.0968  0.1128  0.3420
40291SOL    HW125430   6.106   8.965  10.217 -2.1901  0.2901  1.1751
40291SOL    HW225431   6.219   9.049  10.272  0.3472 -1.7089 -0.6790
40292SOL     OW25432   1.041   0.470   0.209 -0.3960 -0.0328 -0.0644
40292SOL    HW125433   1.060   0.399   0.147 -0.7624 -0.2610  0.0843
40292SOL    HW225434   1.069   0.435   0.294  1.9856  1.0055 -0.3373
40293SOL     OW25435   1.124   2.170   5.395  0.3275 -0.0831  0.0571
40293SOL    HW125436   1.052   2.159   5.456 -1.4410  3.3047 -1.1728
40293SOL    HW225437   1.085   2.157   5.309  1.0923  1.8733 -0.6396
40294SOL     OW25438   0.501  10.888  10.582 -0.1620 -0.5089  0.1857
40294SOL    HW125439   0.490  10.983  10.586 -1.3823 -0.6479  0.6864
40294SOL    HW225440   0.451  10.861  10.505 -0.1319 -0.7827  0.2617
40295SOL     OW25441   8.713  11.801   3.373  0.2592 -0.4442  0.2209
40295SOL    HW125442   8.753  11.814   3.287  0.8206 -0.8410  0.4126
40295SOL    HW225443   8.760  11.726   3.410 -0.8763 -1.1250  0.3379
40296SOL     OW25444   9.734  11.185   6.513 -0.1844 -0.5602  0.1826
40296SOL    HW125445   9.772  11.253   6.570 -0.8235 -0.7709  0.8848
40296SOL    HW225446   9.652  11.223   6.482 -0.5246 -0.9813  0.5443
40297SOL     OW25447  10.558   3.047   0.019  0.1763  0.2000  0.5770
40297SOL    HW125448  10.489   3.113   0.023  0.4773  0.5129  0.6226
40297SOL    HW225449  10.518   2.968   0.055 -0.2300  0.3179  0.3936
40298SOL     OW25450   6.728   6.066   7.411 -0.0915 -0.0360 -0.6704
40298SOL    HW125451   6.750   5.991   7.356  1.7355  2.1702 -3.2147
40298SOL    HW225452   6.807   6.081   7.464 -1.0389 -0.8144  1.0279
40299SOL     OW25453   0.406  11.147   6.475 -0.2117  0.0191 -0.3332
40299SOL    HW125454   0.359  11.065   6.493  1.3890 -1.2512 -1.7354
40299SOL    HW225455   0.487  11.140   6.526 -1.2052  1.9934  1.6945
40300SOL     OW25456   7.683  10.445   7.307 -0.2046  0.4547  0.5304
40300SOL    HW125457   7.754  10.504   7.330 -0.1891 -0.1688  2.2148
40300SOL    HW225458   7.720  10.387   7.239  0.4642  0.9649  0.4522
40301SOL     OW25459   8.784   0.773   4.076 -0.5627 -0.3548  0.2499
40301SOL    HW125460   8.782   0.769   3.981 -1.0954 -1.2511  0.2766
40301SOL    HW225461   8.840   0.699   4.102  0.0740  0.2487  0.6173
40302SOL     OW25462   5.267   5.905   9.591 -0.2370 -0.0376 -0.1560
40302SOL    HW125463   5.325   5.977   9.567 -0.5487  0.8840  1.6738
40302SOL    HW225464   5.308   5.827   9.554  1.2164  0.8195 -0.4028
40303SOL     OW25465   1.956  11.922  11.830 -0.2236 -0.2936 -0.4519
40303SOL    HW125466   2.022  11.878  11.884  1.4431  0.9462 -1.3430
40303SOL    HW225467   1.968  11.885  11.742  0.6270  1.2349 -1.0238
40304SOL     OW25468   5.674   9.080   6.390 -0.0604 -0.1848 -0.0328
40304SOL    HW125469   5.695   9.079   6.483  0.1386  0.3692 -0.0691
40304SOL    HW225470   5.579   9.092   6.387  0.0112  0.4424  0.0944
40305SOL     OW25471   1.155  11.156   8.351  0.0505  0.1662  0.7547
40305SOL    HW125472   1.111  11.240   8.336 -2.4144 -1.1929 -0.2956
40305SOL    HW225473   1.108  11.118   8.426 -0.1269 -1.0423  0.0535
40306SOL     OW25474   6.011   6.563   5.745 -0.2279  0.1234 -0.2301
40306SOL    HW125475   6.103   6.589   5.735 -0.0209  0.1261  1.3501
40306SOL    HW225476   6.014   6.489   5.807 -1.3000  0.2124 -0.0545
40307SOL     OW25477   8.509   5.962   8.737  0.0129 -0.6219  0.6096
40307SOL    HW125478   8.509   5.868   8.755 -1.3826 -0.5985  0.7825
40307SOL    HW225479   8.526   5.968   8.643 -0.0664 -1.0550  0.5647
40308SOL     OW25480   4.594   0.024  11.588 -0.3588  0.0670 -0.5012
40308SOL    HW125481   4.628  -0.016  11.668  0.8628  0.9190 -0.5718
40308SOL    HW225482   4.668   0.025  11.528 -1.0715  0.1011 -1.4089
40309SOL     OW25483   0.530  11.532   9.241  0.7303  0.5721  0.1175
40309SOL    HW125484   0.520  11.459   9.181  1.1388  2.0951 -1.9104
40309SOL    HW225485   0.444  11.574   9.243  0.6082  0.2946  0.9366
40310SOL     OW25486   6.106   8.103   1.121 -0.2178  0.2099  0.5586
40310SOL    HW125487   6.042   8.136   1.184 -0.5794 -0.9901  0.8602
40310SOL    HW225488   6.067   8.120   1.036 -1.3719 -1.2269  0.7475
40311SOL     OW25489   5.475  11.314   1.300 -0.1293  0.1734 -0.1318
40311SOL    HW125490   5.385  11.283   1.308 -0.1078 -1.1244 -3.2608
40311SOL    HW225491   5.512  11.261   1.230  2.3334  2.3153 -0.6213
40312SOL     OW25492   0.410   5.329   0.503 -0.1320 -0.1301 -0.1118
40312SOL    HW125493   0.331   5.275   0.497 -0.3460  0.2299 -0.6340
40312SOL    HW225494   0.383   5.413   0.467  0.6596 -0.1990 -0.8955
40313SOL     OW25495   5.429   6.433   2.625 -0.5790  0.2988  0.3296
40313SOL    HW125496   5.426   6.359   2.687 -1.3157  0.0568  0.0132
40313SOL    HW225497   5.416   6.510   2.680 -1.9172  0.0402  0.4185
40314SOL     OW25498   2.934   8.573   8.764 -0.5322  0.2590  0.2188
40314SOL    HW125499   2.908   8.496   8.814  0.0224 -0.4266 -0.5206
40314SOL    HW225500   3.004   8.613   8.817 -1.3118  0.6822  0.9591
40315SOL     OW25501   6.963   9.287  10.635 -0.1058  0.0605  0.2123
40315SOL    HW125502   6.951   9.369  10.683  0.5566  0.0727  0.3709
40315SOL    HW225503   7.016   9.312  10.559 -1.3301  0.0868 -0.6729
40316SOL     OW25504   5.782   3.168   6.219 -0.4234 -0.5718 -0.0379
40316SOL    HW125505   5.727   3.090   6.230  1.2887 -1.7235  0.6704
40316SOL    HW225506   5.858   3.152   6.275  0.9844  0.6461 -1.5237
40317SOL     OW25507   3.629   1.960   6.070 -0.2037  0.1994 -0.0310
40317SOL    HW125508   3.536   1.941   6.081 -0.3281  0.8272 -0.0011
40317SOL    HW225509   3.656   1.900   6.000 -1.0420  1.2384 -1.2999
40318SOL     OW25510   3.498   9.158   7.347 -0.2401  0.2422 -0.3775
40318SOL    HW125511   3.509   9.096   7.419 -1.3728  0.4207 -0.0367
40318SOL    HW225512   3.425   9.122   7.295 -0.3590  0.8501 -0.6411
40319SOL     OW25513   6.890   2.033   8.446  0.0149 -0.6244  0.3485
40319SOL    HW125514   6.847   2.104   8.493  1.1810  1.5641 -1.6877
40319SOL    HW225515   6.979   2.032   8.481 -0.6633 -3.0577  2.3244
40320SOL     OW25516   1.372   6.069  10.175  0.3639 -0.5520  0.2181
40320SOL    HW125517   1.422   6.144  10.207  1.8181 -0.8411 -1.2230
40320SOL    HW225518   1.291   6.106  10.140  0.7681  0.2799  0.1472
40321SOL     OW25519   5.734   9.344   4.676 -0.3767  0.0152  0.1104
40321SOL    HW125520   5.720   9.258   4.637  0.8469 -0.7298  1.2386
40321SOL    HW225521   5.699   9.405   4.611 -2.4875 -1.3544 -0.1519
40322SOL     OW25522   1.870   3.633   7.668  0.6023 -0.0512 -0.2730
40322SOL    HW125523   1.837   3.561   7.722  0.5937 -0.1992 -0.4724
40322SOL    HW225524   1.916   3.690   7.729 -1.1769  0.8835  0.2408
40323SOL     OW25525   5.885   0.636   6.383  0.1848 -0.4372  0.6152
40323SOL    HW125526   5.839   0.719   6.375  0.7897 -0.1272  0.2455
40323SOL    HW225527   5.897   0.606   6.292  0.2504 -0.7676  0.7291
40324SOL     OW25528   3.338  10.111   5.843 -0.0380 -0.4083 -0.0079
40324SOL    HW125529   3.257  10.158   5.823 -0.1162 -0.7033 -0.4153
40324SOL    HW225530   3.318  10.020   5.821  0.5248 -0.4259 -0.4777
40325SOL     OW25531   7.624   6.617  10.809  0.3205  0.4530  0.0685
40325SOL    HW125532   7.702   6.562  10.800 -0.4598 -0.6380 -0.2206
40325SOL    HW225533   7.604   6.616  10.902 -0.3536 -0.6995 -0.0852
40326SOL     OW25534  10.726   6.181   7.796  0.3149 -0.7079  0.6646
40326SOL    HW125535  10.726   6.265   7.751 -1.2236 -0.1752  1.5602
40326SOL    HW225536  10.804   6.136   7.765  0.3744  0.4430 -0.9596
40327SOL     OW25537   3.293   3.764   1.506 -0.2028 -0.0192  0.0571
40327SOL    HW125538   3.202   3.759   1.476 -0.2723  2.8267 -0.3950
40327SOL    HW225539   3.289   3.733   1.597 -1.7376  0.5849  0.2223
40328SOL     OW25540   6.317  10.069   3.315 -0.0879  0.0963 -0.7931
40328SOL    HW125541   6.411  10.087   3.315  0.2649 -1.5238  0.5043
40328SOL    HW225542   6.277  10.156   3.316  1.4232  0.8371  0.5057
40329SOL     OW25543   7.743   7.531  11.752 -0.1565 -0.3277  0.1661
40329SOL    HW125544   7.814   7.579  11.795  1.1705 -3.3875  1.6911
40329SOL    HW225545   7.674   7.596  11.740  1.6535  2.0310  1.5890
40330SOL     OW25546   7.538   7.992   3.993  0.6131  0.0093 -0.1037
40330SOL    HW125547   7.463   8.034   3.953 -0.6100 -2.0810 -0.1168
40330SOL    HW225548   7.582   8.062   4.042 -2.1753  0.9990  1.1471
40331SOL     OW25549  10.556  10.478   0.565 -1.1694  0.2660  0.0944
40331SOL    HW125550  10.646  10.509   0.563 -0.9795 -0.2962 -0.9141
40331SOL    HW225551  10.521  10.500   0.479 -1.8624  0.0852  0.3208
40332SOL     OW25552   6.924   1.740   3.971  0.1961  0.2225 -0.1719
40332SOL    HW125553   6.892   1.822   3.934  0.0113 -0.2230 -1.0134
40332SOL    HW225554   6.992   1.711   3.910 -0.2488 -0.6202 -0.2726
40333SOL     OW25555   5.270   4.858   2.358  0.2324 -0.0696  0.4378
40333SOL    HW125556   5.339   4.866   2.292  0.3675 -1.6400  0.3563
40333SOL    HW225557   5.259   4.764   2.370 -0.0954  0.1739  2.3511
40334SOL     OW25558  10.704   5.507   1.363 -0.5614  0.7799  0.5305
40334SOL    HW125559  10.678   5.590   1.323 -2.1487 -1.3479 -3.3882
40334SOL    HW225560  10.636   5.446   1.337  2.0005 -2.4297  0.7673
40335SOL     OW25561   8.489  10.100   6.828  0.5376  0.3340  0.8846
40335SOL    HW125562   8.474  10.193   6.810  0.7141  0.5473  1.8061
40335SOL    HW225563   8.533  10.098   6.913  1.4492 -0.5407  0.4227
40336SOL     OW25564   2.742   7.897   9.036  0.3315 -0.1253  0.0389
40336SOL    HW125565   2.827   7.894   9.080  0.3105  1.3944  0.2498
40336SOL    HW225566   2.692   7.962   9.086 -0.1509  0.6951 -1.4431
40337SOL     OW25567   7.540   0.329   5.611  0.1755 -0.7984 -0.3689
40337SOL    HW125568   7.484   0.313   5.687  0.4676  0.7933  0.2147
40337SOL    HW225569   7.480   0.357   5.542  0.1200 -0.1501 -0.0653
40338SOL     OW25570   5.137   8.837   7.095  0.1500 -0.0874 -0.1558
40338SOL    HW125571   5.145   8.814   7.003 -0.7935 -0.7279 -0.0950
40338SOL    HW225572   5.110   8.928   7.095  0.5004  0.0206 -0.4968
40339SOL     OW25573   3.218   0.862   0.292  0.7649  0.1694 -0.2972
40339SOL    HW125574   3.197   0.821   0.208  1.2351  0.1299 -0.3993
40339SOL    HW225575   3.303   0.903   0.278  1.0884 -0.2759  0.3114
40340SOL     OW25576   5.112   4.510   4.977  0.0521  0.1426 -0.0274
40340SOL    HW125577   5.071   4.583   5.024 -0.1651 -1.4957  2.5431
40340SOL    HW225578   5.051   4.489   4.907 -0.7259  1.3235  0.2657
40341SOL     OW25579   8.416   6.899   5.564 -0.2034  0.1522  0.0232
40341SOL    HW125580   8.432   6.842   5.489  1.2657  0.2128  0.2597
40341SOL    HW225581   8.398   6.839   5.637 -2.2809  0.0993 -0.4496
40342SOL     OW25582   5.057   3.009   1.120  0.0719  0.2454 -0.4910
40342SOL    HW125583   5.008   2.988   1.041 -1.2412  0.5153  0.2294
40342SOL    HW225584   4.999   3.066   1.170  0.1453 -1.3145  1.4719
40343SOL     OW25585  10.370  10.657   9.892 -0.0233 -0.5228 -0.7319
40343SOL    HW125586  10.463  10.669   9.910  0.1853 -1.2956 -1.2761
40343SOL    HW225587  10.364  10.648   9.797 -0.6013 -0.9280 -0.6605
40344SOL     OW25588  10.386  10.708  10.550  0.2049  0.1887  0.2794
40344SOL    HW125589  10.368  10.661  10.632  1.2374 -1.4042 -0.3593
40344SOL    HW225590  10.481  10.705  10.541  0.0855  0.0821 -1.1072
40345SOL     OW25591   3.546   1.229   2.649 -0.2385 -0.2149  0.0905
40345SOL    HW125592   3.508   1.311   2.679  1.1901  0.3724  0.3684
40345SOL    HW225593   3.537   1.230   2.554  2.3076  1.6216 -0.2050
40346SOL     OW25594   9.621   3.851   9.999  0.5771 -0.0264 -0.6716
40346SOL    HW125595   9.675   3.791  10.051  1.4377  0.8493 -0.5217
40346SOL    HW225596   9.637   3.937  10.038 -1.2464  0.2091 -0.3838
40347SOL     OW25597   5.701   6.609   4.060 -0.0996  0.1147 -0.5315
40347SOL    HW125598   5.707   6.529   4.111 -1.1707  0.5577  0.3091
40347SOL    HW225599   5.607   6.626   4.052  0.1138  1.6464 -0.1028
40348SOL     OW25600   1.461   5.086   6.462 -0.2632  0.2024 -0.5448
40348SOL    HW125601   1.439   5.135   6.383 -0.5849  1.7527  0.4432
40348SOL    HW225602   1.410   5.129   6.531  0.1964 -0.9456  0.5504
40349SOL     OW25603   3.412   8.584   8.439 -0.1997  0.0823 -0.3858
40349SOL    HW125604   3.361   8.659   8.471  0.5164  0.2365  0.4435
40349SOL    HW225605   3.452   8.615   8.358 -1.1990  0.0472 -0.9038
40350SOL     OW25606   5.900   1.590   6.138  0.1477  0.2960  0.5084
40350SOL    HW125607   5.857   1.660   6.188  0.7359 -0.1064  1.6084
40350SOL    HW225608   5.969   1.558   6.196  0.8337 -0.2173 -0.5577
40351SOL     OW25609  10.070   5.315   3.070 -0.2251  0.2889 -0.8997
40351SOL    HW125610  10.123   5.241   3.098 -0.4232  0.1626 -0.8559
40351SOL    HW225611  10.133   5.380   3.039 -0.0783 -0.1019 -1.4253
40352SOL     OW25612   9.209   9.418   3.855  0.5078 -0.1520  0.2394
40352SOL    HW125613   9.139   9.354   3.869 -0.7031  1.2603  0.9475
40352SOL    HW225614   9.169   9.486   3.801  2.2129 -0.6575 -1.7958
40353SOL     OW25615   9.215   2.164   8.562  0.0720  0.1418  0.4072
40353SOL    HW125616   9.141   2.151   8.621 -0.7126  1.3839 -0.2656
40353SOL    HW225617   9.177   2.205   8.484  1.2059 -0.7244 -0.6476
40354SOL     OW25618   5.050  10.498   7.856 -0.7912 -0.4352  0.0094
40354SOL    HW125619   5.069  10.539   7.771  0.2814 -1.8006 -0.4419
40354SOL    HW225620   4.956  10.479   7.852 -0.8332 -0.1235 -0.7195
40355SOL     OW25621   3.089   0.570  10.016  0.3424  0.2220  0.1082
40355SOL    HW125622   3.180   0.540  10.009  0.6977  1.3955 -0.7623
40355SOL    HW225623   3.063   0.588   9.925 -1.2835 -1.5151  0.1842
40356SOL     OW25624  11.992   2.122   6.384 -0.1969 -0.0496  0.0127
40356SOL    HW125625  11.981   2.217   6.387 -0.1769 -0.0593  1.4849
40356SOL    HW225626  11.918   2.090   6.332 -2.1800  0.5619  2.2604
40357SOL     OW25627   7.299   5.584   7.152  0.2685 -0.0784 -0.2501
40357SOL    HW125628   7.307   5.678   7.133 -0.9012  0.0239 -0.2988
40357SOL    HW225629   7.381   5.547   7.121  0.9352  0.9876  0.1709
40358SOL     OW25630   7.607   6.810   4.737 -0.2037 -0.7315 -0.2009
40358SOL    HW125631   7.614   6.886   4.795  2.8309 -0.4284 -0.8026
40358SOL    HW225632   7.549   6.839   4.666 -1.1719  0.0826  0.8818
40359SOL     OW25633   0.728   3.379   2.339  0.1929  0.2245  0.4445
40359SOL    HW125634   0.773   3.303   2.374 -2.8431 -1.8286  0.2610
40359SOL    HW225635   0.758   3.385   2.248  2.5705  1.0822  1.2160
40360SOL     OW25636   4.914   3.790  10.175 -0.1651 -0.4339 -0.3202
40360SOL    HW125637   4.969   3.721  10.213 -0.5378 -0.6820 -0.2243
40360SOL    HW225638   4.830   3.747  10.161  0.1380 -0.5544 -2.0283
40361SOL     OW25639   5.737   1.149   2.528  0.3933 -0.2777  0.2663
40361SOL    HW125640   5.694   1.113   2.605  1.0652 -2.4722 -0.3101
40361SOL    HW225641   5.811   1.091   2.512  1.5017  1.3329 -0.8439
40362SOL     OW25642   3.626   4.015   6.761 -0.2193 -0.1687 -0.1951
40362SOL    HW125643   3.700   4.009   6.822 -0.9847  0.7603  0.8654
40362SOL    HW225644   3.667   4.013   6.674  1.0997  0.6840  0.3687
40363SOL     OW25645   9.089   6.218  11.447  0.2294  0.5968 -0.0101
40363SOL    HW125646   9.165   6.217  11.390 -0.6378  1.3270 -1.2158
40363SOL    HW225647   9.033   6.288  11.413 -1.5698 -0.7263  0.0265
40364SOL     OW25648  10.805   7.434   9.359 -0.6807 -0.6720  0.0583
40364SOL    HW125649  10.795   7.388   9.443 -0.9671 -0.8682 -0.0804
40364SOL    HW225650  10.812   7.363   9.295 -0.4815 -0.5213 -0.0845
40365SOL     OW25651   9.760   5.584  10.262  0.0715  0.1580 -0.3887
40365SOL    HW125652   9.749   5.521  10.190  3.4818  0.4111 -1.2869
40365SOL    HW225653   9.755   5.530  10.341 -1.3760 -0.4845 -0.8655
40366SOL     OW25654   1.467   4.235   8.209 -0.3319  0.3150 -0.5190
40366SOL    HW125655   1.407   4.258   8.279 -1.1454 -0.8910 -0.7870
40366SOL    HW225656   1.442   4.146   8.184  3.1697 -1.2800  1.0324
40367SOL     OW25657   7.582   6.200   1.327  0.1172 -0.4817 -0.2803
40367SOL    HW125658   7.606   6.201   1.419  0.5396  5.0464 -0.1599
40367SOL    HW225659   7.665   6.197   1.280  0.0194 -0.7815 -0.4404
40368SOL     OW25660   1.196   3.700  11.501  0.1582  0.7636 -0.1278
40368SOL    HW125661   1.139   3.646  11.446  2.7198 -0.7932 -1.5132
40368SOL    HW225662   1.225   3.770  11.443  0.5367  0.8625  0.1788
40369SOL     OW25663   4.838   8.870  11.580 -0.4335 -0.1508 -0.3154
40369SOL    HW125664   4.767   8.934  11.578 -2.0900 -1.9083 -0.2403
40369SOL    HW225665   4.879   8.882  11.665  0.4823  1.9739 -0.9735
40370SOL     OW25666   9.197   2.530  11.884 -0.2546 -0.1794  0.3009
40370SOL    HW125667   9.226   2.610  11.928 -0.4822 -0.1475  0.3916
40370SOL    HW225668   9.273   2.472  11.888  0.5497  0.6775 -1.3604
40371SOL     OW25669   2.021   7.315  11.018 -0.2195 -0.3263 -0.0764
40371SOL    HW125670   2.100   7.308  11.071 -1.1675 -0.7911  1.3529
40371SOL    HW225671   2.035   7.254  10.945  0.5923 -0.6356  0.3306
40372SOL     OW25672   1.731   3.936   5.433 -0.6515 -0.3026 -0.3739
40372SOL    HW125673   1.677   3.946   5.512  0.6193 -0.4390  0.5470
40372SOL    HW225674   1.780   3.855   5.448  1.3343  0.8669 -0.2106
40373SOL     OW25675  10.767   4.289   3.826  0.1084  0.0523 -0.2155
40373SOL    HW125676  10.735   4.361   3.880  0.5795  0.4364 -0.4387
40373SOL    HW225677  10.703   4.219   3.839 -0.7033  0.7268 -0.4777
40374SOL     OW25678   8.137  12.079   4.912 -0.3579 -0.1274 -0.0271
40374SOL    HW125679   8.107  11.995   4.945  0.1879 -1.1785 -2.0778
40374SOL    HW225680   8.182  12.119   4.987 -0.8100 -1.5383  1.0421
40375SOL     OW25681   6.392   4.702   5.144 -0.0106 -0.4678  0.7800
40375SOL    HW125682   6.428   4.615   5.160  1.2523  0.3311  2.5367
40375SOL    HW225683   6.301   4.695   5.171 -0.5908 -1.8125 -1.2567
40376SOL     OW25684   7.442   8.425   7.619 -0.4078 -0.2235  0.4692
40376SOL    HW125685   7.478   8.513   7.609  2.8533 -1.3417  1.1109
40376SOL    HW225686   7.385   8.430   7.695 -0.2396  1.3064  0.5079
40377SOL     OW25687   6.178   5.743   3.758 -0.2224 -0.5923  0.3058
40377SOL    HW125688   6.128   5.806   3.810  0.9860  0.8432 -0.1940
40377SOL    HW225689   6.224   5.688   3.822 -1.1317 -0.8610  0.7443
40378SOL     OW25690   6.005   0.836   7.851  0.0921 -0.3811  0.1729
40378SOL    HW125691   5.920   0.821   7.892 -0.0319  1.0783  0.4999
40378SOL    HW225692   6.068   0.792   7.909 -0.3443 -0.6027  0.4793
40379SOL     OW25693   4.034   6.369   4.526  0.0435 -0.2662 -0.3145
40379SOL    HW125694   3.958   6.422   4.549 -0.8923 -2.2493  1.4776
40379SOL    HW225695   4.033   6.364   4.430 -1.4314  0.6457 -0.3627
40380SOL     OW25696   5.165   7.719   0.529  0.0828 -0.0049  0.1567
40380SOL    HW125697   5.257   7.703   0.511  0.5837  1.6864  0.9769
40380SOL    HW225698   5.162   7.810   0.560 -1.7499 -0.2592  0.8650
40381SOL     OW25699   1.937   0.851   4.221  0.0939 -0.4488 -0.1652
40381SOL    HW125700   1.852   0.870   4.181  0.6037 -2.8770 -2.7118
40381SOL    HW225701   1.915   0.821   4.309 -1.5835  0.0450 -0.3667
40382SOL     OW25702   9.458   0.750   4.986  0.1891 -0.1079  0.1987
40382SOL    HW125703   9.435   0.834   5.026  2.1946  0.1471  0.9583
40382SOL    HW225704   9.469   0.690   5.060  0.7193 -0.5069 -0.1941
40383SOL     OW25705   4.020   1.502   5.870 -0.1347 -0.1607  0.5566
40383SOL    HW125706   4.056   1.546   5.793 -1.5517  0.4493  0.1907
40383SOL    HW225707   4.086   1.439   5.896  0.6912  0.1517 -0.7115
40384SOL     OW25708   3.865   4.501   7.714  0.6329 -0.0221 -0.6110
40384SOL    HW125709   3.917   4.446   7.772 -0.4096  1.0918  1.4991
40384SOL    HW225710   3.831   4.571   7.771 -3.7043 -1.0025 -1.6391
40385SOL     OW25711   9.458   9.967   8.580 -0.6036 -0.5735  1.2949
40385SOL    HW125712   9.536   9.915   8.558 -0.3162  0.3950 -0.0913
40385SOL    HW225713   9.492  10.054   8.598 -1.4233  0.1200 -0.3213
40386SOL     OW25714   7.335   8.360   9.026 -0.2672  0.0779  0.1743
40386SOL    HW125715   7.323   8.271   9.059 -0.1322 -0.2205 -0.5694
40386SOL    HW225716   7.427   8.380   9.041  0.5743 -1.1665 -2.6101
40387SOL     OW25717  10.433   4.987   8.926  0.2004  0.7112 -0.4501
40387SOL    HW125718  10.382   5.043   8.984  1.7716 -0.2704  2.0503
40387SOL    HW225719  10.413   4.898   8.954  0.5902  0.1601 -1.8225
40388SOL     OW25720  11.943   1.067   4.668  0.1410  0.0795  0.2210
40388SOL    HW125721  11.986   1.108   4.593  1.0810  1.0210  1.2393
40388SOL    HW225722  12.013   1.018   4.712 -0.0757  0.6015  1.1926
40389SOL     OW25723   9.673   5.594   5.190 -0.1809  0.2671  0.0164
40389SOL    HW125724   9.766   5.577   5.181  0.0270  1.1038  0.4740
40389SOL    HW225725   9.644   5.535   5.260  0.2917  0.9303  0.7940
40390SOL     OW25726   5.981   6.554  11.997  0.6323  1.3243 -0.5579
40390SOL    HW125727   6.022   6.622  12.051 -0.1688  0.9514  0.5638
40390SOL    HW225728   5.892   6.585  11.983  0.2600  0.5236 -0.0382
40391SOL     OW25729   6.570   2.333  10.457 -0.0632  0.0856 -0.2819
40391SOL    HW125730   6.655   2.336  10.502 -0.6268 -2.5395  1.1917
40391SOL    HW225731   6.526   2.413  10.486  1.7046  1.2837 -0.7291
40392SOL     OW25732   5.211  11.916   2.756 -0.1550 -0.3450 -0.0598
40392SOL    HW125733   5.190  11.822   2.753 -0.1590 -0.3213 -1.5117
40392SOL    HW225734   5.180  11.945   2.842 -1.7640 -1.3126 -0.2805
40393SOL     OW25735   3.833  10.999  11.366 -0.3321 -0.3990  0.2665
40393SOL    HW125736   3.742  11.026  11.360 -0.3525 -0.0309  1.8030
40393SOL    HW225737   3.883  11.072  11.330 -0.6303 -0.5746 -0.5152
40394SOL     OW25738  10.388   6.555   0.810 -0.0020 -0.0784 -0.4709
40394SOL    HW125739  10.389   6.468   0.851 -0.3599  0.3058  0.3724
40394SOL    HW225740  10.297   6.567   0.783 -0.1446  0.4082  0.2276
40395SOL     OW25741   5.701   2.681   3.364 -0.1233 -0.0234 -0.0962
40395SOL    HW125742   5.650   2.762   3.371 -0.5988 -0.2539 -0.7130
40395SOL    HW225743   5.740   2.669   3.450 -0.1952  0.7649  0.0575
40396SOL     OW25744   2.659   1.732   8.665 -0.9578  0.4784 -0.1834
40396SOL    HW125745   2.750   1.707   8.649 -0.5041  0.5379  2.0449
40396SOL    HW225746   2.660   1.828   8.663 -0.6708  0.5226  1.1338
40397SOL     OW25747   7.935   2.677   6.086 -0.1657  0.2356 -0.0183
40397SOL    HW125748   7.958   2.747   6.025 -1.0234  1.9570  1.5255
40397SOL    HW225749   7.917   2.722   6.169  1.9383 -2.0787  1.8659
40398SOL     OW25750   8.738   3.389   0.363  0.3036  0.3523 -0.2499
40398SOL    HW125751   8.802   3.456   0.338  0.9439  0.5205  1.7094
40398SOL    HW225752   8.723   3.403   0.456 -0.9225 -1.1124 -0.1869
40399SOL     OW25753   8.810   0.054   7.082  0.2471  0.3042 -0.5016
40399SOL    HW125754   8.860   0.045   7.002 -1.5728  0.9163 -1.7829
40399SOL    HW225755   8.818  -0.031   7.126  2.8206  0.5668 -0.3064
40400SOL     OW25756  11.997   7.787   1.733  0.3996  0.0064  0.2557
40400SOL    HW125757  12.063   7.746   1.788  0.5929 -0.3547 -0.2480
40400SOL    HW225758  12.020   7.880   1.734 -0.0265  0.1165  1.3737
40401SOL     OW25759   9.517  11.863   4.049 -0.3121 -0.6502  0.1055
40401SOL    HW125760   9.588  11.890   3.991 -0.5303  1.7849  0.8561
40401SOL    HW225761   9.438  11.875   3.996 -0.3364 -1.0011  0.0606
40402SOL     OW25762   1.251   0.154   9.757 -0.1142  0.0035  0.2495
40402SOL    HW125763   1.318   0.198   9.810 -1.1039  2.6668 -0.5320
40402SOL    HW225764   1.192   0.114   9.821  0.9453 -0.3836  1.0058
40403SOL     OW25765   5.409  11.275   7.427  0.1749 -0.0725  0.2484
40403SOL    HW125766   5.447  11.344   7.373 -0.1003  0.5391  0.8172
40403SOL    HW225767   5.484  11.235   7.473  0.5240 -1.1988 -1.2240
40404SOL     OW25768   3.281   8.455   6.982 -0.1367 -0.0646  0.4706
40404SOL    HW125769   3.325   8.443   7.067 -1.0779  3.2960  1.6179
40404SOL    HW225770   3.337   8.517   6.935 -0.6366 -0.3687 -0.5569
40405SOL     OW25771   1.974   5.985   6.717  0.1391  0.8414  0.2961
40405SOL    HW125772   1.910   6.041   6.760 -4.2077 -2.9912 -0.3678
40405SOL    HW225773   2.018   5.940   6.789 -2.8525 -1.2128  1.0381
40406SOL     OW25774   6.780  10.455   9.246 -0.0463 -0.1578 -0.1243
40406SOL    HW125775   6.768  10.368   9.210  0.1906  0.4694 -1.8013
40406SOL    HW225776   6.748  10.515   9.178  0.7598  1.0906  0.5452
40407SOL     OW25777  10.898   9.671   9.211 -0.7212 -0.1069 -0.5166
40407SOL    HW125778  10.844   9.621   9.149 -1.5623 -0.1111  0.2073
40407SOL    HW225779  10.917   9.609   9.281 -1.1734  0.3749  0.0388
40408SOL     OW25780   0.916   0.863   4.059  0.0971  0.3918 -0.1578
40408SOL    HW125781   0.969   0.918   4.117  0.6871 -1.0790  0.7637
40408SOL    HW225782   0.950   0.880   3.972  1.1250  0.5553  0.2573
40409SOL     OW25783   5.255   8.129   7.080  0.0239 -0.2776  0.2146
40409SOL    HW125784   5.289   8.170   7.001 -0.0823 -0.4007  0.1053
40409SOL    HW225785   5.201   8.057   7.049 -3.4615  2.0806  0.1493
40410SOL     OW25786   2.738   7.262   8.356  0.0896  0.4553 -0.1349
40410SOL    HW125787   2.656   7.213   8.359  0.5717 -0.3676  1.6714
40410SOL    HW225788   2.799   7.204   8.309 -0.2185  0.8576 -1.0499
40411SOL     OW25789   4.055  10.353   3.406 -0.0478 -0.2440  0.0221
40411SOL    HW125790   4.015  10.291   3.467 -2.2082 -0.8220 -1.8128
40411SOL    HW225791   4.025  10.439   3.436  0.5510 -0.3366  0.9033
40412SOL     OW25792   3.368   9.009   1.492 -0.4091 -0.3470  0.1201
40412SOL    HW125793   3.335   9.087   1.536 -0.3381 -0.6536  0.7307
40412SOL    HW225794   3.400   9.041   1.407 -2.0848 -0.0104 -0.4180
40413SOL     OW25795   6.651   7.165   8.024 -0.0740 -0.3151 -0.1344
40413SOL    HW125796   6.606   7.096   7.975 -0.8409 -0.5764  0.9143
40413SOL    HW225797   6.718   7.119   8.075  0.3938 -0.0969 -0.5341
40414SOL     OW25798  10.385   4.481  10.945  0.1850  0.6934 -0.6240
40414SOL    HW125799  10.427   4.510  10.865  0.7362  0.6945 -0.3346
40414SOL    HW225800  10.420   4.537  11.014  0.4501  0.0601 -0.2280
40415SOL     OW25801   9.055   8.589   0.970  0.3742 -0.0679 -0.1792
40415SOL    HW125802   9.141   8.548   0.976  0.1310 -0.4080  1.3925
40415SOL    HW225803   9.016   8.550   0.891  2.3449  1.5408 -2.0545
40416SOL     OW25804   4.520   3.557   8.822 -0.3435  0.1901  0.5323
40416SOL    HW125805   4.610   3.538   8.847 -0.5783  0.2323  1.4602
40416SOL    HW225806   4.513   3.653   8.828 -0.4219  0.1966  0.3518
40417SOL     OW25807   9.138  11.740  10.943  0.2019  0.3795  1.0572
40417SOL    HW125808   9.206  11.673  10.952 -0.2522 -0.0653  1.3073
40417SOL    HW225809   9.123  11.748  10.849 -1.2162 -1.4399  1.0594
40418SOL     OW25810   8.631  11.457   4.209  0.1189  0.3640  0.4426
40418SOL    HW125811   8.578  11.378   4.218 -0.3697  0.6405  0.0140
40418SOL    HW225812   8.712  11.437   4.256 -0.2257 -0.1850  0.8126
40419SOL     OW25813  11.809   9.229   7.499  0.2991  0.3852  0.1748
40419SOL    HW125814  11.874   9.293   7.528  0.0995 -0.3763  2.5437
40419SOL    HW225815  11.859   9.149   7.483  0.0881  0.0020  1.3055
40420SOL     OW25816  10.402   2.066  11.587 -0.9990  0.1076  0.1571
40420SOL    HW125817  10.411   1.976  11.554  0.3913  0.6332 -1.0678
40420SOL    HW225818  10.315   2.094  11.559 -0.5128 -0.0642 -1.6910
40421SOL     OW25819   7.168   4.338   8.387  0.9463  0.3791 -0.0388
40421SOL    HW125820   7.102   4.361   8.321  1.9812  0.7039 -0.9880
40421SOL    HW225821   7.192   4.422   8.427  2.3259  0.5706 -1.2028
40422SOL     OW25822   6.923   7.004   8.541 -0.2773  0.2931  0.0653
40422SOL    HW125823   6.879   6.982   8.458  0.9295 -2.0097 -0.0493
40422SOL    HW225824   6.919   6.923   8.592  1.0821  0.9580  1.2828
40423SOL     OW25825   4.677   2.144  10.535 -0.0009 -0.4289  0.6478
40423SOL    HW125826   4.582   2.147  10.522 -0.0832 -1.6005  0.8171
40423SOL    HW225827   4.701   2.233  10.561 -0.5889  0.7038 -2.2340
40424SOL     OW25828   0.750   8.370   1.637  0.1466  0.0207  0.3664
40424SOL    HW125829   0.844   8.386   1.646 -0.0531  0.4478  2.3540
40424SOL    HW225830   0.715   8.453   1.604  0.5145 -0.3235 -0.9234
40425SOL     OW25831  11.213  11.087   5.201 -0.4778 -0.4674 -0.0864
40425SOL    HW125832  11.219  11.092   5.297  1.0423  0.6955 -0.2040
40425SOL    HW225833  11.249  11.170   5.171 -2.8482  0.0889 -1.6535
40426SOL     OW25834   1.378   7.787  10.776  0.4307 -0.2129  0.0474
40426SOL    HW125835   1.357   7.761  10.866  2.2589  0.6293  0.7559
40426SOL    HW225836   1.429   7.714  10.741 -0.3162 -0.5596 -0.3529
40427SOL     OW25837  10.908   7.370   3.351  0.3711  0.3910  0.1046
40427SOL    HW125838  10.839   7.374   3.417  0.4890 -0.9327  0.3300
40427SOL    HW225839  10.932   7.278   3.347 -0.5226  0.2109 -2.7124
40428SOL     OW25840   6.914   7.385   0.622  0.1840 -0.4289 -0.3219
40428SOL    HW125841   6.945   7.297   0.643 -0.0002 -0.2103  0.9461
40428SOL    HW225842   6.873   7.415   0.702 -0.7606  0.3905 -1.0906
40429SOL     OW25843  10.466   7.893   8.410  0.0780 -0.5748 -0.0291
40429SOL    HW125844  10.396   7.901   8.345 -1.6876 -0.7146  1.7785
40429SOL    HW225845  10.461   7.974   8.461  1.7360 -0.2658 -0.3035
40430SOL     OW25846  11.818   6.310   9.204  0.5111 -0.2998  0.3667
40430SOL    HW125847  11.830   6.308   9.109  1.4330  1.2599  0.4039
40430SOL    HW225848  11.834   6.220   9.233  1.5251 -0.5308 -0.8283
40431SOL     OW25849   8.471   3.271  11.543  0.2519  0.5554 -0.1820
40431SOL    HW125850   8.396   3.287  11.486 -0.1423 -0.1343  0.1277
40431SOL    HW225851   8.532   3.221  11.488  0.3375  0.8188 -0.3275
40432SOL     OW25852  10.466   0.178   3.601  0.8461  0.3846  0.0874
40432SOL    HW125853  10.447   0.269   3.578 -1.4068  0.2137  0.9693
40432SOL    HW225854  10.422   0.165   3.686 -0.9888 -2.1349 -1.1096
40433SOL     OW25855   2.550   7.948  10.325 -0.3514  0.0392  0.2235
40433SOL    HW125856   2.578   7.885  10.259  1.3434  1.0097 -0.0536
40433SOL    HW225857   2.469   7.911  10.361  0.3609 -2.0804 -0.1882
40434SOL     OW25858  10.652   7.453   7.076 -0.3171  0.1748  0.2425
40434SOL    HW125859  10.681   7.516   7.009  1.0696  1.0998  1.6524
40434SOL    HW225860  10.561   7.434   7.053 -0.3681  1.7030 -0.9832
40435SOL     OW25861   8.875   2.371   4.931 -0.0040 -0.5069  0.5405
40435SOL    HW125862   8.869   2.340   5.021 -2.8839 -0.3722  0.5050
40435SOL    HW225863   8.797   2.336   4.888  0.3827  0.8405 -1.4238
40436SOL     OW25864  10.103   1.975   0.092 -0.5170  0.1040  0.0187
40436SOL    HW125865  10.017   1.938   0.073 -0.7535  0.2017  0.8695
40436SOL    HW225866  10.161   1.899   0.100  0.3689  0.0414 -4.2510
40437SOL     OW25867   1.082   2.537   9.933  0.0503 -0.6026 -0.3364
40437SOL    HW125868   1.155   2.475   9.932 -0.5788 -1.3741  0.1361
40437SOL    HW225869   1.111   2.608   9.991  0.2663 -1.1062  0.1846
40438SOL     OW25870   9.964   4.559   1.145  0.1866 -0.1089 -0.3865
40438SOL    HW125871   9.958   4.635   1.203 -1.0553  0.4802 -1.2456
40438SOL    HW225872   9.905   4.494   1.184  1.3940 -0.7430  0.4548
40439SOL     OW25873   4.564   7.474   2.389  0.0276 -0.3103  0.4547
40439SOL    HW125874   4.641   7.524   2.418  0.1056  0.0741 -0.3914
40439SOL    HW225875   4.570   7.391   2.437  2.0623 -1.1107 -1.0188
40440SOL     OW25876   8.053   5.584   1.147  0.2326  0.3393 -0.3743
40440SOL    HW125877   8.069   5.677   1.134  0.2112  0.4110  0.0991
40440SOL    HW225878   7.992   5.559   1.077 -2.3735  1.3924  1.3770
40441SOL     OW25879   1.861   5.824   3.778  0.0266  0.1136 -0.0634
40441SOL    HW125880   1.854   5.730   3.790 -0.1875 -0.0413 -1.2375
40441SOL    HW225881   1.931   5.835   3.714 -0.0103  0.7501 -0.0032
40442SOL     OW25882  10.096   6.462   1.675  0.4845  0.2248  0.5336
40442SOL    HW125883  10.191   6.468   1.666  0.5702 -1.1174  0.2866
40442SOL    HW225884  10.062   6.486   1.589  0.7095 -1.0635  0.0644
40443SOL     OW25885   1.686   2.269   2.315 -0.1845 -0.3716 -0.2615
40443SOL    HW125886   1.610   2.271   2.256  0.2629  0.5956 -0.8288
40443SOL    HW225887   1.659   2.212   2.386 -0.7828 -1.4914 -1.3418
40444SOL     OW25888   3.514   8.511  10.397 -0.3447 -0.2981  0.2830
40444SOL    HW125889   3.566   8.466  10.464 -1.7466 -1.5676  0.5713
40444SOL    HW225890   3.574   8.522  10.323  1.5553  2.0424  2.0207
40445SOL     OW25891   6.962   9.644   0.875 -0.0980 -0.0172  0.1606
40445SOL    HW125892   6.989   9.573   0.816  0.1217 -1.5491  1.9901
40445SOL    HW225893   6.872   9.664   0.849  0.1257 -0.3725 -0.9325
40446SOL     OW25894   9.963   5.065   0.966 -0.1819 -0.4130 -0.2699
40446SOL    HW125895   9.889   5.005   0.972 -1.2809  0.9126 -0.0243
40446SOL    HW225896  10.028   5.018   0.913 -2.0399 -0.8075 -2.3525
40447SOL     OW25897  11.291   1.854   5.419  0.5971  0.4241  0.0309
40447SOL    HW125898  11.268   1.783   5.479  0.0417  0.7992  0.2701
40447SOL    HW225899  11.386   1.848   5.410  0.5691 -0.2644  0.1549
40448SOL     OW25900  11.187   6.360  10.349  0.2648 -0.9147 -0.3532
40448SOL    HW125901  11.109   6.371  10.295  0.9212 -0.5095 -1.2422
40448SOL    HW225902  11.258   6.345  10.286  1.2657  0.8259  0.3080
40449SOL     OW25903  11.256   0.860   8.384  0.6343  0.1351  0.5847
40449SOL    HW125904  11.288   0.930   8.327  2.3741 -0.5647  0.6322
40449SOL    HW225905  11.304   0.782   8.355  0.0692 -0.6553  1.6987
40450SOL     OW25906   8.972  10.563   8.808  0.5236 -1.5315 -0.1626
40450SOL    HW125907   9.027  10.485   8.820  0.9710 -1.4975 -1.8292
40450SOL    HW225908   8.986  10.588   8.717 -0.3488 -0.0454  0.0939
40451SOL     OW25909   4.235   9.428   9.267  0.4257  0.0558  0.0669
40451SOL    HW125910   4.218   9.456   9.357  3.1624 -1.1939  1.0718
40451SOL    HW225911   4.198   9.498   9.213  1.2252  2.3412  2.2698
40452SOL     OW25912   6.303   7.386   8.595 -0.1149  0.6503  0.5721
40452SOL    HW125913   6.267   7.370   8.507 -0.5065 -0.5985  0.9345
40452SOL    HW225914   6.231   7.428   8.642 -0.7835 -0.8242  0.9591
40453SOL     OW25915   0.179   3.358   4.058 -0.2480  0.3354 -0.3761
40453SOL    HW125916   0.201   3.413   4.134 -1.6294  0.1049  0.2300
40453SOL    HW225917   0.115   3.295   4.092  0.8136 -1.2650 -1.2016
40454SOL     OW25918   0.496  10.473   3.571  0.1270 -0.5026  0.5381
40454SOL    HW125919   0.416  10.523   3.553  1.6588  2.1304  0.5215
40454SOL    HW225920   0.562  10.513   3.514  2.3853  0.1697  3.4381
40455SOL     OW25921  11.675   7.411  10.968  0.0185  0.0480  0.0801
40455SOL    HW125922  11.630   7.482  11.015  0.6495 -0.9299  2.2915
40455SOL    HW225923  11.609   7.376  10.908 -1.3035  0.4371  1.2485
40456SOL     OW25924   7.829   4.910   2.409 -0.0093 -0.6663 -0.3089
40456SOL    HW125925   7.793   4.825   2.382 -1.6678  0.1434 -0.7453
40456SOL    HW225926   7.753   4.968   2.412  1.2772  1.1378 -1.2902
40457SOL     OW25927   9.345   6.785   0.739 -0.6182  0.2290  0.2327
40457SOL    HW125928   9.290   6.845   0.689 -0.1690 -0.0696 -0.6474
40457SOL    HW225929   9.360   6.829   0.823  1.8447  2.6074 -1.2882
40458SOL     OW25930   4.030   9.296   8.869  0.0502 -0.6044  0.3658
40458SOL    HW125931   4.046   9.245   8.948  2.3841 -0.6055 -0.0340
40458SOL    HW225932   4.118   9.313   8.833 -0.9059 -0.5857 -2.1993
40459SOL     OW25933   2.352  10.835   5.820  0.3823 -0.5376  0.0265
40459SOL    HW125934   2.329  10.754   5.775  1.5020  0.4953 -2.5724
40459SOL    HW225935   2.268  10.873   5.845 -0.3260 -0.9756 -1.5678
40460SOL     OW25936  11.323   9.106   7.938  0.3388 -0.3043  0.0347
40460SOL    HW125937  11.301   9.013   7.942 -0.1784 -0.1581  0.9299
40460SOL    HW225938  11.377   9.121   8.016 -1.7596  0.6731  1.3741
40461SOL     OW25939   3.188   0.635   2.366 -0.4705 -0.7199  0.4148
40461SOL    HW125940   3.228   0.700   2.308  1.6007 -0.7888  1.6603
40461SOL    HW225941   3.151   0.569   2.306 -4.4278  2.3820 -0.9992
40462SOL     OW25942   9.157   4.826   7.416  0.3530  0.6306 -0.2847
40462SOL    HW125943   9.105   4.906   7.405 -0.1778  0.4299  0.6349
40462SOL    HW225944   9.215   4.844   7.490 -0.4203 -0.1331  0.5403
40463SOL     OW25945   1.064   8.011   7.910  0.2848  0.1301  0.8219
40463SOL    HW125946   1.123   7.949   7.953  0.2601  0.1620  0.9019
40463SOL    HW225947   1.052   7.975   7.822  0.8324  0.3968  0.6347
40464SOL     OW25948   9.417   5.207   1.325  0.2495  0.2631  0.3192
40464SOL    HW125949   9.498   5.170   1.288  0.2936 -0.5343  1.1782
40464SOL    HW225950   9.439   5.226   1.416 -0.7157 -0.6111  0.7602
40465SOL     OW25951   5.230   7.917   9.392 -0.2262 -0.7309  0.4792
40465SOL    HW125952   5.153   7.948   9.345 -1.3445 -2.2873  1.2231
40465SOL    HW225953   5.223   7.822   9.391  2.8704 -1.1166 -1.3878
40466SOL     OW25954   0.399  11.028   3.863  0.2027 -0.3050  0.1731
40466SOL    HW125955   0.449  10.976   3.926  1.1986 -0.6935 -0.8761
40466SOL    HW225956   0.457  11.033   3.786 -1.3168 -0.6410 -1.0479
40467SOL     OW25957   8.151   8.580   5.508  0.7684  0.6784  0.3246
40467SOL    HW125958   8.057   8.596   5.520 -0.3342 -2.4756 -2.5401
40467SOL    HW225959   8.172   8.512   5.572  0.7197  0.3464 -0.0098
40468SOL     OW25960   4.920   8.995   5.858  0.3287 -0.1440  0.3113
40468SOL    HW125961   4.986   8.950   5.910  0.5265  0.0333  0.2212
40468SOL    HW225962   4.842   8.998   5.914 -0.3972 -2.4771 -0.4660
40469SOL     OW25963   8.604   2.848   2.856 -0.1552  0.0654 -0.0992
40469SOL    HW125964   8.526   2.898   2.829  0.1637  0.3002 -0.6053
40469SOL    HW225965   8.571   2.784   2.919 -1.0804 -1.1097 -1.7270
40470SOL     OW25966   7.275  11.302   0.873  0.1210 -0.3445  0.5967
40470SOL    HW125967   7.334  11.239   0.914 -0.1416 -0.7645  0.3399
40470SOL    HW225968   7.216  11.330   0.943  1.6429  1.3387  1.2737
40471SOL     OW25969  10.533   1.561   5.024 -0.8961 -0.1938  0.1128
40471SOL    HW125970  10.626   1.540   5.017 -0.7519  0.7161 -0.9713
40471SOL    HW225971  10.523   1.598   5.112 -0.1434  0.1051  0.0794
40472SOL     OW25972  11.753   4.772   8.420 -0.1501  0.5076  0.2405
40472SOL    HW125973  11.734   4.865   8.429 -1.0097  0.5465 -1.5480
40472SOL    HW225974  11.678   4.728   8.462 -1.0102  0.6542 -1.0900
40473SOL     OW25975   5.597   2.816   5.072  0.1576  0.4044  0.1585
40473SOL    HW125976   5.544   2.794   5.149  0.3653  1.6442  0.6755
40473SOL    HW225977   5.558   2.896   5.038  1.7823  1.4551  0.6583
40474SOL     OW25978   9.535  10.717   1.620 -0.0586  0.0285  0.0787
40474SOL    HW125979   9.627  10.693   1.634 -0.2597 -0.3765  0.7826
40474SOL    HW225980   9.531  10.744   1.528  1.1755  1.9621  0.5380
40475SOL     OW25981   2.967   7.926   0.877 -0.0511 -0.4618  0.0472
40475SOL    HW125982   2.901   7.924   0.946  1.4709  1.5832  1.6866
40475SOL    HW225983   2.974   8.018   0.852 -0.4206 -1.0963 -2.8091
40476SOL     OW25984   8.763  10.514   4.332 -0.3145 -0.6799 -1.0931
40476SOL    HW125985   8.684  10.460   4.323 -1.9375  1.0861  1.5108
40476SOL    HW225986   8.789  10.504   4.423 -1.1962  3.4257 -0.2030
40477SOL     OW25987  12.011   4.057   5.413  0.5352 -0.7449 -0.5011
40477SOL    HW125988  12.003   3.986   5.350 -1.0415 -0.1469 -1.0238
40477SOL    HW225989  11.949   4.035   5.482  2.2036 -1.3618  0.8628
40478SOL     OW25990   8.715  10.372   8.779 -0.7876 -0.3912 -0.1128
40478SOL    HW125991   8.740  10.379   8.871 -0.0284  1.3584 -0.4008
40478SOL    HW225992   8.799  10.367   8.732 -1.1413 -0.4109 -0.7464
40479SOL     OW25993   9.873   8.396   2.478  0.0664  0.0576  0.0103
40479SOL    HW125994   9.876   8.304   2.452  1.0664 -0.0391  0.4154
40479SOL    HW225995   9.959   8.430   2.454 -0.4329  0.9898 -0.4943
40480SOL     OW25996   9.764   8.734   9.230  0.0988  0.0110  0.1654
40480SOL    HW125997   9.684   8.777   9.198  1.1404  1.8080 -0.1227
40480SOL    HW225998   9.781   8.775   9.315  1.5095  0.7145 -0.4355
40481SOL     OW25999   2.793  10.804   3.232  0.3769 -0.1244  0.4990
40481SOL    HW126000   2.725  10.777   3.294 -0.9941  0.3610 -0.7308
40481SOL    HW226001   2.783  10.899   3.226  1.0886 -0.0650  0.1960
40482SOL     OW26002   8.849  11.162   8.567 -0.4197  0.0958 -0.4380
40482SOL    HW126003   8.777  11.099   8.562 -0.4691  0.2012 -1.2220
40482SOL    HW226004   8.886  11.149   8.654 -0.5982 -0.8313 -0.4900
40483SOL     OW26005   3.202  11.662  11.147  0.4954 -0.8273  0.8793
40483SOL    HW126006   3.106  11.658  11.147  0.3075 -0.2617 -2.6914
40483SOL    HW226007   3.229  11.585  11.197 -1.8222 -1.4106  1.3866
40484SOL     OW26008   0.490   0.680  11.078  0.0075 -0.0248  0.0178
40484SOL    HW126009   0.538   0.633  11.009 -1.6389 -1.0220 -0.5217
40484SOL    HW226010   0.551   0.683  11.152  0.8899 -1.2862 -0.6099
40485SOL     OW26011   9.638   1.062   5.895  0.0457  0.0163  0.3565
40485SOL    HW126012   9.689   1.078   5.816  1.2312 -0.3558  1.0188
40485SOL    HW226013   9.599   0.976   5.881  3.1686 -1.7788  1.5698
40486SOL     OW26014   1.616   6.454  10.157  0.1894  0.5723 -0.3678
40486SOL    HW126015   1.567   6.534  10.134  2.1689  1.7324 -0.7256
40486SOL    HW226016   1.705   6.471  10.128  0.5187 -2.1151 -1.1271
40487SOL     OW26017   8.648   1.341   3.537 -0.4660 -0.2910  0.6045
40487SOL    HW126018   8.691   1.418   3.501 -0.6386  0.6002  2.2120
40487SOL    HW226019   8.580   1.319   3.473  1.0443 -0.5411 -0.9946
40488SOL     OW26020   3.174   8.223   3.820  0.4971 -0.2303  0.1476
40488SOL    HW126021   3.229   8.186   3.889  0.2327 -1.3592 -0.2253
40488SOL    HW226022   3.150   8.148   3.765  0.1948  0.5503 -0.8202
40489SOL     OW26023  11.819   3.740   7.356  0.0267  0.2152  0.1990
40489SOL    HW126024  11.744   3.687   7.329 -0.9945  1.0729  1.2495
40489SOL    HW226025  11.822   3.810   7.291  1.8084 -1.4042 -1.6079
40490SOL     OW26026   2.774   3.643   9.148  0.3754 -0.1911  0.6287
40490SOL    HW126027   2.738   3.557   9.169 -1.8348  0.0115 -1.7785
40490SOL    HW226028   2.844   3.625   9.085 -0.8007 -0.2778 -0.7255
40491SOL     OW26029   5.990   5.867   7.485  0.5881 -0.8075 -0.4723
40491SOL    HW126030   5.996   5.806   7.411  1.6917 -1.8322  0.4193
40491SOL    HW226031   5.898   5.864   7.511  0.4351 -1.3568 -1.0362
40492SOL     OW26032   9.725  10.524   4.127  0.5108  1.2529  0.7356
40492SOL    HW126033   9.653  10.511   4.066  2.3776 -1.5370 -1.1399
40492SOL    HW226034   9.690  10.498   4.212 -1.1847  1.7957  0.2427
40493SOL     OW26035  12.019  10.065   7.887  0.1796  0.1901 -0.4737
40493SOL    HW126036  12.034  10.080   7.794 -0.5351 -0.6743 -0.7352
40493SOL    HW226037  11.928  10.039   7.893  0.6665 -1.4914  0.2556
40494SOL     OW26038  11.800   9.068   1.099 -0.4494 -0.2241 -0.0221
40494SOL    HW126039  11.828   8.988   1.144  0.5185  0.5738  0.8428
40494SOL    HW226040  11.837   9.060   1.011  0.4126 -0.3172  0.3416
40495SOL     OW26041   1.396  10.590   2.403  0.2389 -0.4045  0.3899
40495SOL    HW126042   1.355  10.631   2.326 -1.6847 -3.2045 -0.2666
40495SOL    HW226043   1.480  10.558   2.371 -0.0590 -0.5670 -0.2554
40496SOL     OW26044   7.988   4.375   1.242 -0.4869 -0.4715 -0.0578
40496SOL    HW126045   8.051   4.371   1.170 -0.9542 -3.4501 -0.4254
40496SOL    HW226046   8.019   4.310   1.305 -1.0628  0.8261  1.6468
40497SOL     OW26047   9.395  11.104   7.551 -0.2748 -0.2789  0.5456
40497SOL    HW126048   9.434  11.172   7.497  0.9871 -1.1997  0.2596
40497SOL    HW226049   9.354  11.151   7.624  1.1863  0.7437  0.7399
40498SOL     OW26050   1.468   2.452   0.811  0.6798  0.2794 -0.5835
40498SOL    HW126051   1.523   2.385   0.770 -0.7076 -0.5042 -1.2516
40498SOL    HW226052   1.449   2.416   0.898  2.0306  1.0347  0.0504
40499SOL     OW26053   3.604   6.909   5.295 -0.3537 -0.1292  0.1014
40499SOL    HW126054   3.697   6.926   5.283 -0.3194  1.3769  2.0071
40499SOL    HW226055   3.598   6.872   5.383 -1.4862 -1.0050 -0.3212
40500SOL     OW26056   0.547  10.762  11.082  0.1753  0.1165  0.4252
40500SOL    HW126057   0.555  10.856  11.102 -1.4941  1.0075 -2.4876
40500SOL    HW226058   0.461  10.738  11.116 -1.3586  0.8954 -2.5255
40501SOL     OW26059   3.143   6.936   2.930  0.3078  0.1007  0.1145
40501SOL    HW126060   3.090   6.979   2.997  0.6628  0.4797  0.1551
40501SOL    HW226061   3.124   6.985   2.849 -1.8020 -1.6889 -0.5702
40502SOL     OW26062   2.273   2.308   2.705 -0.3375  0.1005  0.0131
40502SOL    HW126063   2.206   2.318   2.773  0.1224  1.0007  0.3507
40502SOL    HW226064   2.226   2.325   2.624 -0.5675  0.5579  0.2349
40503SOL     OW26065   6.662   0.741   2.772 -0.1813 -0.8227  0.0071
40503SOL    HW126066   6.631   0.801   2.703  0.0004 -1.1831 -0.3912
40503SOL    HW226067   6.596   0.749   2.841  0.4673  0.7751  0.5069
40504SOL     OW26068  10.061   7.471   2.182 -0.3385  0.0270  0.2253
40504SOL    HW126069  10.105   7.387   2.168  0.3715  0.2613  0.9583
40504SOL    HW226070   9.987   7.470   2.121  0.4094 -0.5777 -0.6917
40505SOL     OW26071   9.342   7.492  11.757 -0.3388  0.4107 -0.4294
40505SOL    HW126072   9.248   7.507  11.754 -1.0024 -2.5203  1.7086
40505SOL    HW226073   9.358   7.427  11.688  0.4605  2.0101 -1.8197
40506SOL     OW26074   8.345   4.091   3.196  0.5551  0.2412 -0.1476
40506SOL    HW126075   8.256   4.116   3.171  0.2237 -0.4775  0.2733
40506SOL    HW226076   8.384   4.059   3.115  0.0394 -0.5174 -0.1130
40507SOL     OW26077   4.889   3.734   6.908  0.2785 -0.1296 -1.0398
40507SOL    HW126078   4.811   3.681   6.892  0.8537 -0.9367 -1.2450
40507SOL    HW226079   4.878   3.811   6.853 -1.8015  1.2947  1.1504
40508SOL     OW26080   1.924   1.267   6.580  0.2554  0.5560 -0.1651
40508SOL    HW126081   2.009   1.236   6.550  0.0999  1.1860 -1.3459
40508SOL    HW226082   1.866   1.192   6.572  0.1448  0.7892 -1.8417
40509SOL     OW26083   1.647   1.990  11.929 -0.3028 -0.0836 -0.2011
40509SOL    HW126084   1.716   1.940  11.885 -0.3412  0.6124 -1.0746
40509SOL    HW226085   1.591   2.021  11.858 -0.0323  1.5746  0.2696
40510SOL     OW26086   9.996   0.166   4.261 -0.2762 -0.2347 -0.0355
40510SOL    HW126087  10.020   0.082   4.223  0.1825  0.3750 -1.1341
40510SOL    HW226088   9.900   0.169   4.257 -0.3843 -1.2256  1.1994
40511SOL     OW26089  11.485  10.586   1.882 -0.0811  0.4722 -0.4364
40511SOL    HW126090  11.480  10.670   1.837  0.0592  1.0117  0.5224
40511SOL    HW226091  11.415  10.533   1.843  0.3074  0.7715 -1.5590
40512SOL     OW26092   9.810   2.607   4.995  0.0338  0.0305 -0.0313
40512SOL    HW126093   9.726   2.587   5.037 -0.8082 -0.7317 -1.9844
40512SOL    HW226094   9.835   2.692   5.032 -0.3906 -0.7896  2.3299
40513SOL     OW26095   3.228   4.853  10.352  0.4880  0.2007 -0.0497
40513SOL    HW126096   3.279   4.933  10.337 -3.0352  2.9254  1.1609
40513SOL    HW226097   3.167   4.849  10.278  0.5222 -1.3303 -0.0167
40514SOL     OW26098   0.000   9.497   6.757 -0.0861 -0.3109  0.2590
40514SOL    HW126099   0.061   9.498   6.831  0.8651  0.6859 -0.5134
40514SOL    HW226100  -0.014   9.589   6.736 -2.0598 -0.5092  0.5548
40515SOL     OW26101  10.195   1.010  10.350  0.0663 -0.4969 -0.2734
40515SOL    HW126102  10.127   0.979  10.289 -1.3546  1.3667  0.2688
40515SOL    HW226103  10.153   1.010  10.435 -0.0855  2.8008 -0.2293
40516SOL     OW26104   5.948   8.067   6.318  0.2852  0.3042  0.6053
40516SOL    HW126105   6.037   8.083   6.287 -0.5262  0.7029 -1.7065
40516SOL    HW226106   5.898   8.143   6.288 -1.0828 -0.4952  0.7868
40517SOL     OW26107   4.528   8.442   1.421 -0.3167  0.4683  0.1882
40517SOL    HW126108   4.460   8.506   1.441  1.5446  1.8899  2.3676
40517SOL    HW226109   4.576   8.480   1.347 -1.6558 -0.4253 -1.1966
40518SOL     OW26110   3.546  11.071   0.396 -0.1938  0.2035  0.8388
40518SOL    HW126111   3.451  11.060   0.396 -0.1661 -0.2831  2.3665
40518SOL    HW226112   3.561  11.148   0.451  0.3158  0.0137  0.9708
40519SOL     OW26113   2.990   3.556   6.912 -0.1873 -0.1695  0.2077
40519SOL    HW126114   2.910   3.516   6.877  0.0016 -0.3101 -0.0643
40519SOL    HW226115   2.959   3.610   6.985 -0.7680  1.1921 -0.9764
40520SOL     OW26116   7.502   0.142   4.377 -0.3063 -0.5549  0.1783
40520SOL    HW126117   7.407   0.148   4.375 -0.2597  0.1528 -0.5257
40520SOL    HW226118   7.521   0.048   4.372 -0.9723 -0.7749  1.3983
40521SOL     OW26119   0.441  11.642   8.446  0.2415  0.9738 -0.0140
40521SOL    HW126120   0.506  11.574   8.430 -0.1878  0.6857 -0.6021
40521SOL    HW226121   0.491  11.723   8.449  0.5828  0.8166 -0.9928
40522SOL     OW26122   7.589   3.986   7.967 -0.1262 -0.1579 -0.0877
40522SOL    HW126123   7.617   3.988   7.876 -1.4858  1.8578 -0.5121
40522SOL    HW226124   7.603   4.075   7.999 -1.6685 -0.2777  1.0177
40523SOL     OW26125   0.803   3.614   6.978  0.1950  0.7667  0.0295
40523SOL    HW126126   0.888   3.658   6.989  0.1658  0.9449 -0.4181
40523SOL    HW226127   0.752   3.641   7.054  0.9206 -0.2589  0.9164
40524SOL     OW26128   4.924  10.592   3.879 -0.0942  0.1691 -0.3257
40524SOL    HW126129   4.930  10.508   3.833  1.5779  0.0981 -0.0179
40524SOL    HW226130   4.935  10.570   3.971 -0.9817  0.5989 -0.0994
40525SOL     OW26131   2.067   8.382   5.925 -0.6795  0.1790  0.2095
40525SOL    HW126132   2.025   8.449   5.871 -0.0335  0.1815 -0.2999
40525SOL    HW226133   2.075   8.306   5.867 -0.2902  0.0684  0.4067
40526SOL     OW26134   2.288  12.009   6.429 -0.1028  0.3501  0.1385
40526SOL    HW126135   2.195  12.004   6.408 -1.0013  0.0619  3.4958
40526SOL    HW226136   2.326  12.061   6.358 -2.7153  0.1489 -1.5483
40527SOL     OW26137   4.057  12.059   5.092 -0.0917 -0.1924  0.4492
40527SOL    HW126138   4.026  11.971   5.114  1.1686 -0.2429  2.2414
40527SOL    HW226139   4.121  12.045   5.022 -2.3983 -0.2826 -1.7850
40528SOL     OW26140   6.461  11.798   3.001  0.0536 -0.3832 -0.5109
40528SOL    HW126141   6.416  11.837   2.926  0.8267  0.9474 -0.2960
40528SOL    HW226142   6.399  11.732   3.033 -0.4194 -0.7734 -2.1196
40529SOL     OW26143   7.363  10.163   6.057  0.3492 -0.3229 -0.2568
40529SOL    HW126144   7.422  10.151   6.131  1.6649 -2.1873 -1.5225
40529SOL    HW226145   7.361  10.078   6.013 -1.5495  0.3135 -1.5521
40530SOL     OW26146   0.039   0.365  10.725 -0.6922 -0.0408  0.3937
40530SOL    HW126147  -0.049   0.327  10.724 -1.2333  1.1725 -0.5786
40530SOL    HW226148   0.061   0.378  10.633 -0.2584  1.3485  0.6635
40531SOL     OW26149  11.860   6.107  10.378  0.0463 -0.6173  0.3601
40531SOL    HW126150  11.901   6.177  10.326  0.5963  0.0775  1.6768
40531SOL    HW226151  11.916   6.031  10.364  0.4667 -0.3058  0.3142
40532SOL     OW26152   9.051   4.016   3.419 -0.3777  0.3726  0.2367
40532SOL    HW126153   9.111   3.942   3.418 -0.7625  0.0567  0.6993
40532SOL    HW226154   9.093   4.081   3.361 -1.2531 -1.1486 -2.2711
40533SOL     OW26155  11.504   3.230   4.262  0.2889 -0.3551  0.6288
40533SOL    HW126156  11.566   3.281   4.210  0.4325  0.0198  1.1559
40533SOL    HW226157  11.511   3.141   4.227  0.0112 -0.0124 -0.3161
40534SOL     OW26158  10.825   1.983   5.593  0.3014  0.0270  0.4376
40534SOL    HW126159  10.756   1.982   5.527  1.1703  0.8738 -0.5442
40534SOL    HW226160  10.863   2.071   5.586 -0.3644  0.5792  2.9310
40535SOL     OW26161   7.905   8.020   2.384  0.3966 -0.3238  0.4637
40535SOL    HW126162   7.835   8.077   2.417  0.7297  0.8817 -0.8341
40535SOL    HW226163   7.893   7.938   2.432  0.2932  1.0069  2.8800
40536SOL     OW26164   9.948   7.128   3.509  0.2296  0.3544  0.3585
40536SOL    HW126165   9.901   7.120   3.426  1.4487  1.5775 -0.4900
40536SOL    HW226166   9.965   7.221   3.518  0.8126  0.1453  1.6064
40537SOL     OW26167   5.486   9.968   4.222 -0.3670 -0.1103 -0.2436
40537SOL    HW126168   5.510   9.924   4.304  1.0222  2.8926  1.0991
40537SOL    HW226169   5.412  10.023   4.245  0.5346  1.3736 -0.7577
40538SOL     OW26170   9.855   9.574  11.045  0.0381  0.5536  0.8058
40538SOL    HW126171   9.821   9.655  11.009  0.4254  0.3535 -0.0405
40538SOL    HW226172   9.784   9.539  11.098 -1.0000  0.2709 -0.7180
40539SOL     OW26173   7.265   5.278   1.352 -0.2987  0.4084  0.4139
40539SOL    HW126174   7.180   5.289   1.309  0.1962  0.5213 -0.5745
40539SOL    HW226175   7.297   5.193   1.321  0.3291  0.7583  0.0863
40540SOL     OW26176   6.425  11.868   2.280  0.2098 -0.5740 -0.3178
40540SOL    HW126177   6.374  11.945   2.255  0.3080 -0.0858  0.9160
40540SOL    HW226178   6.415  11.862   2.375  2.9995 -0.0317  0.0975
40541SOL     OW26179   9.495   3.372   9.829  0.4088 -0.6435 -0.0053
40541SOL    HW126180   9.483   3.459   9.867 -0.9609 -1.1936  0.9131
40541SOL    HW226181   9.590   3.358   9.831  0.6055  0.5953  0.3498
40542SOL     OW26182   3.887   3.263   0.284 -0.2429  0.1298 -0.1847
40542SOL    HW126183   3.920   3.326   0.221  0.4120 -1.3603 -1.4112
40542SOL    HW226184   3.900   3.178   0.241  0.5278 -0.9777  2.0749
40543SOL     OW26185   8.641   8.094   2.370 -0.0421 -0.1190 -0.0596
40543SOL    HW126186   8.724   8.115   2.327  0.0414  1.2732  0.7519
40543SOL    HW226187   8.586   8.057   2.300  0.4445  1.1486 -1.1378
40544SOL     OW26188   1.895  10.374   2.806 -0.3322  0.2553 -0.2697
40544SOL    HW126189   1.946  10.450   2.833  0.4803 -0.4234  0.2060
40544SOL    HW226190   1.874  10.390   2.714 -0.0733  0.9974 -0.2065
40545SOL     OW26191   6.768  10.540   8.640  0.5561 -0.3160  0.1799
40545SOL    HW126192   6.737  10.457   8.605  0.5821 -0.0409 -0.5090
40545SOL    HW226193   6.712  10.557   8.716  1.4744 -1.6543  1.2015
40546SOL     OW26194   6.755   4.654   5.080 -0.0515  0.0463  0.0649
40546SOL    HW126195   6.735   4.661   4.987  1.7481  1.2150 -0.2849
40546SOL    HW226196   6.790   4.566   5.090 -2.3314 -0.9103  0.1177
40547SOL     OW26197  10.646   8.929   8.679 -0.2670  0.0736 -0.2451
40547SOL    HW126198  10.625   8.912   8.588 -1.2638  2.6739 -0.5662
40547SOL    HW226199  10.739   8.951   8.679 -0.6916  2.0390 -1.0068
40548SOL     OW26200   9.043  11.069   7.620  0.0192  0.0534 -0.1267
40548SOL    HW126201   8.957  11.084   7.659  0.0680  0.4688 -0.1805
40548SOL    HW226202   9.024  11.056   7.527 -0.0502 -0.5058 -0.0426
40549SOL     OW26203  10.178   1.571   0.290 -0.8809 -0.6055  0.3935
40549SOL    HW126204  10.270   1.577   0.265 -1.0157 -2.2596 -0.6598
40549SOL    HW226205  10.175   1.609   0.378  0.5372  0.7233 -0.0801
40550SOL     OW26206   6.151  10.541   1.288 -0.0147  0.4452 -0.6794
40550SOL    HW126207   6.133  10.596   1.211  1.4035 -1.4788 -2.4800
40550SOL    HW226208   6.074  10.483   1.294 -0.7839  1.5125  0.2776
40551SOL     OW26209   1.663   7.552  11.195  0.2192  0.2651  0.5632
40551SOL    HW126210   1.667   7.639  11.155  0.1614  0.0346  0.0466
40551SOL    HW226211   1.712   7.496  11.135 -1.3907 -0.4446 -0.1322
40552SOL     OW26212   7.685   3.699   0.293 -0.6023 -0.3491  0.0941
40552SOL    HW126213   7.629   3.621   0.291  0.9301 -1.5521  1.1603
40552SOL    HW226214   7.719   3.701   0.383 -0.4072  1.4199  0.0071
40553SOL     OW26215  10.165   3.196   8.289  0.3290 -0.1055  0.2474
40553SOL    HW126216  10.239   3.198   8.228  1.2618 -0.0712  1.3597
40553SOL    HW226217  10.203   3.217   8.374 -1.0637  0.5165  0.7530
40554SOL     OW26218   4.796   6.301   8.336 -0.3854 -0.8154 -0.4863
40554SOL    HW126219   4.887   6.297   8.366 -0.9905  0.0299  1.6904
40554SOL    HW226220   4.766   6.211   8.340 -0.0488 -0.9039  0.2409
40555SOL     OW26221   6.351   7.049   8.408 -0.5573  0.5129 -0.4296
40555SOL    HW126222   6.442   7.071   8.389 -0.5575 -0.5263 -1.8318
40555SOL    HW226223   6.356   6.968   8.459 -0.6897  0.0061 -1.2000
40556SOL     OW26224  11.013   3.785   7.443 -0.0063  0.0143 -0.1828
40556SOL    HW126225  10.960   3.705   7.435 -0.6057  0.1387  2.0211
40556SOL    HW226226  11.066   3.772   7.521 -1.0484  2.2560  0.9866
40557SOL     OW26227   5.467   6.455   9.668  0.4841  0.3522 -0.3686
40557SOL    HW126228   5.453   6.448   9.574  1.1552  1.4146 -0.5718
40557SOL    HW226229   5.554   6.419   9.683  0.7314  0.9737 -0.2861
40558SOL     OW26230   0.896   9.886   1.978 -0.7830 -0.3668  0.8878
40558SOL    HW126231   0.847   9.853   1.902  2.5067 -0.0268 -1.5968
40558SOL    HW226232   0.883   9.981   1.975 -0.2692 -0.3047  0.4095
40559SOL     OW26233  10.312  11.225  11.693 -0.4086 -0.0362 -0.1809
40559SOL    HW126234  10.371  11.274  11.750 -0.3567 -0.9081  0.5310
40559SOL    HW226235  10.224  11.251  11.721 -0.3772 -0.1762  0.0523
40560SOL     OW26236   3.323   4.248   1.310  0.5954 -0.1303 -0.3757
40560SOL    HW126237   3.402   4.194   1.321  0.2484 -0.7686 -0.9772
40560SOL    HW226238   3.298   4.235   1.219  0.5745  1.1498 -0.5586
40561SOL     OW26239  10.875  12.049   2.587 -0.0890 -0.3072 -0.3901
40561SOL    HW126240  10.826  12.126   2.557  1.0340  0.1152 -1.1958
40561SOL    HW226241  10.918  12.015   2.508  1.3662 -0.3331  0.3793
40562SOL     OW26242   8.381   2.203   9.208  0.3132  0.4966  0.0517
40562SOL    HW126243   8.288   2.180   9.205  0.5667 -0.6309  0.2782
40562SOL    HW226244   8.399   2.214   9.302  0.3078  1.1405 -0.0239
40563SOL     OW26245   2.062   1.328   1.716  0.3426  0.3846 -0.1796
40563SOL    HW126246   2.153   1.304   1.734  0.1775 -0.0085  0.1525
40563SOL    HW226247   2.038   1.273   1.640  0.0347 -0.3573  0.4405
40564SOL     OW26248  11.900  10.756   3.819 -0.0205  0.1725  0.2492
40564SOL    HW126249  11.959  10.721   3.752 -0.9081 -0.3268 -0.2998
40564SOL    HW226250  11.912  10.697   3.894  0.6837  0.4990  0.4040
40565SOL     OW26251   0.161   4.456   5.305  0.3146  0.3318 -0.1700
40565SOL    HW126252   0.105   4.506   5.247  0.2705 -0.9184 -1.2438
40565SOL    HW226253   0.101   4.401   5.355  0.1350  2.8869  2.7013
40566SOL     OW26254  11.478   4.743   8.511 -0.0697 -0.1617  0.0363
40566SOL    HW126255  11.469   4.833   8.483 -0.7422  0.3059  1.6411
40566SOL    HW226256  11.415   4.733   8.582  1.8990 -1.0613  1.7728
40567SOL     OW26257   6.189   8.381   9.716  0.0725 -0.1469 -0.0705
40567SOL    HW126258   6.160   8.294   9.688  2.1192 -0.5454 -1.1604
40567SOL    HW226259   6.282   8.370   9.732 -0.1808  1.1638  2.7987
40568SOL     OW26260   7.194   9.687   7.280  0.2356  0.7143 -0.2973
40568SOL    HW126261   7.168   9.596   7.268  0.5189  0.5123  0.5814
40568SOL    HW226262   7.142   9.735   7.216  1.1806 -0.2230 -1.8222
40569SOL     OW26263  10.763   5.055   3.331 -0.7540  0.7616  0.0085
40569SOL    HW126264  10.764   4.976   3.276 -2.4579  1.4156 -1.0153
40569SOL    HW226265  10.771   5.022   3.421  1.6755 -0.3565 -0.5159
40570SOL     OW26266   5.798   8.399   0.573 -0.2207 -0.0836 -0.1750
40570SOL    HW126267   5.794   8.321   0.517  0.8652 -0.0660 -0.2965
40570SOL    HW226268   5.878   8.388   0.623  1.0359  1.8636 -1.6047
40571SOL     OW26269   5.558   3.015   9.136 -0.2144 -0.0959  0.0528
40571SOL    HW126270   5.634   3.010   9.193 -0.5820  1.6746  0.7727
40571SOL    HW226271   5.592   3.049   9.053 -0.0176 -0.5822 -0.0658
40572SOL     OW26272   1.531  10.462   8.355  0.5117  0.2333 -0.4609
40572SOL    HW126273   1.484  10.501   8.429 -3.0053  0.6783 -2.6961
40572SOL    HW226274   1.576  10.536   8.314 -0.5360  0.7048 -0.8011
40573SOL     OW26275   5.600   6.989   9.736  0.2582 -0.6471 -0.0921
40573SOL    HW126276   5.512   6.954   9.746 -0.6080  1.8616  2.2008
40573SOL    HW226277   5.588   7.079   9.707  2.1133 -0.4594 -0.4323
40574SOL     OW26278   0.638   3.886   9.397  0.0883 -0.1934 -0.0931
40574SOL    HW126279   0.547   3.913   9.410  0.5069  1.1221  0.2383
40574SOL    HW226280   0.652   3.818   9.464 -0.4377  0.1167  0.3461
40575SOL     OW26281   6.916  10.903   2.946 -0.1934  0.1498 -0.1861
40575SOL    HW126282   6.911  10.981   2.889 -0.0420 -0.0065 -0.4157
40575SOL    HW226283   6.988  10.922   3.005 -0.0822  0.1369 -0.3162
40576SOL     OW26284   2.397   2.298   0.107 -0.0460  0.0333 -0.0201
40576SOL    HW126285   2.401   2.313   0.201 -0.4125  2.5270 -0.3243
40576SOL    HW226286   2.322   2.240   0.094 -1.1281  1.1187  1.1118
40577SOL     OW26287  10.603  12.089   0.510 -0.4475  0.0202  0.1427
40577SOL    HW126288  10.634  12.112   0.423  1.5816  1.3178  1.1411
40577SOL    HW226289  10.522  12.139   0.520 -0.8552 -0.3574 -1.0576
40578SOL     OW26290   0.658   1.181   8.559  0.1549  0.3848 -0.1254
40578SOL    HW126291   0.715   1.109   8.531  0.1611 -0.0071  0.8741
40578SOL    HW226292   0.701   1.260   8.524  1.5062  0.1320  0.8791
40579SOL     OW26293   7.811   4.947   1.235 -0.3502 -0.3864 -0.7854
40579SOL    HW126294   7.837   4.962   1.326  0.3322 -0.7480 -0.9099
40579SOL    HW226295   7.720   4.976   1.230 -0.3066 -0.1194 -0.0527
40580SOL     OW26296   1.080   6.463   9.900 -0.3263  0.3305  0.4679
40580SOL    HW126297   1.017   6.508   9.843 -0.5233  0.2411  0.6129
40580SOL    HW226298   1.037   6.461   9.986 -0.4313 -0.3510  0.4060
40581SOL     OW26299   8.958   9.059   4.708  0.1078 -0.2492  0.3444
40581SOL    HW126300   8.984   8.971   4.680 -0.3914 -0.3074  0.0514
40581SOL    HW226301   8.905   9.092   4.635  0.0619  0.1851  0.5763
40582SOL     OW26302   6.585   7.389   8.556  0.3906  0.5693  0.8432
40582SOL    HW126303   6.493   7.373   8.575  0.4484  0.5214  1.0869
40582SOL    HW226304   6.586   7.471   8.506 -0.0609 -0.9480 -1.8421
40583SOL     OW26305   4.703   9.784   9.180  0.0243 -0.0991 -0.4963
40583SOL    HW126306   4.636   9.720   9.157  0.0116 -0.4520  0.4943
40583SOL    HW226307   4.786   9.741   9.160  0.2974 -2.2171  4.0138
40584SOL     OW26308   4.884   1.874   4.980  0.3637  0.0872 -0.0495
40584SOL    HW126309   4.873   1.961   4.941  0.0861 -0.8395 -2.1475
40584SOL    HW226310   4.971   1.878   5.020  0.8669  0.9728 -1.1577
40585SOL     OW26311   2.990  10.888   4.576  0.5479  0.0323  0.2460
40585SOL    HW126312   2.999  10.801   4.537  0.6957  0.2603 -0.2354
40585SOL    HW226313   2.910  10.882   4.628 -0.8529  0.3221 -1.7393
40586SOL     OW26314  11.546   9.634   8.737 -0.1739  0.4299 -0.4811
40586SOL    HW126315  11.603   9.676   8.672 -0.2496  0.7521 -0.3410
40586SOL    HW226316  11.539   9.698   8.808 -2.0348  1.1130 -1.2049
40587SOL     OW26317   1.263   9.679   1.784  1.2212  0.5221 -0.0926
40587SOL    HW126318   1.200   9.672   1.855  1.2475 -0.7995 -0.1724
40587SOL    HW226319   1.234   9.756   1.734 -0.0051  0.2600  0.1740
40588SOL     OW26320  11.278   0.824   6.016 -0.5937  0.1510  0.0319
40588SOL    HW126321  11.357   0.863   5.978  1.9684 -2.9653  1.6317
40588SOL    HW226322  11.249   0.888   6.082  0.2181  1.6343 -0.9946
40589SOL     OW26323   2.979   0.462   9.178 -0.0072 -0.5535 -0.1313
40589SOL    HW126324   2.999   0.489   9.088 -0.8176 -1.5858 -0.6407
40589SOL    HW226325   2.918   0.390   9.168 -0.7517 -0.1495  1.2818
40590SOL     OW26326   6.415   6.774   8.940 -0.0774  0.1214 -0.0812
40590SOL    HW126327   6.397   6.696   8.889 -0.0299  1.4214 -2.2399
40590SOL    HW226328   6.333   6.823   8.939 -0.0803  0.1737  1.1571
40591SOL     OW26329   0.495  11.125   0.863 -0.5108 -0.3562  0.3277
40591SOL    HW126330   0.405  11.107   0.888 -0.6046 -0.8785 -0.3360
40591SOL    HW226331   0.548  11.085   0.932 -0.7679 -1.4080 -0.0637
40592SOL     OW26332  11.730   6.957  10.842  0.4189 -0.0303  0.8488
40592SOL    HW126333  11.751   6.882  10.899  0.4182 -0.8447 -0.1831
40592SOL    HW226334  11.635   6.952  10.830  0.1030  1.3585  2.3877
40593SOL     OW26335   2.894  11.199   1.726 -0.1010  0.1303  0.1115
40593SOL    HW126336   2.928  11.110   1.734  0.9639  0.5279  0.1647
40593SOL    HW226337   2.915  11.224   1.636 -0.8557  0.1457 -0.0621
40594SOL     OW26338   1.149   3.697  10.159 -0.3557 -0.6834 -0.0651
40594SOL    HW126339   1.208   3.670  10.229  0.4102  0.7627 -0.1111
40594SOL    HW226340   1.168   3.638  10.086  1.6274  0.2154 -0.3435
40595SOL     OW26341   8.595   2.276   8.081  0.6001  0.0418 -0.1134
40595SOL    HW126342   8.551   2.348   8.127  0.0550  0.7164 -1.6317
40595SOL    HW226343   8.617   2.214   8.150  1.0504  1.6335  1.2552
40596SOL     OW26344  11.294   4.369   3.088 -0.4776  0.2117  0.2605
40596SOL    HW126345  11.296   4.273   3.085  0.0358  0.2326 -2.5040
40596SOL    HW226346  11.216   4.389   3.140 -0.8261 -1.6971  0.5684
40597SOL     OW26347   3.960   9.790   2.206 -0.5522 -0.8895 -0.0243
40597SOL    HW126348   3.940   9.795   2.112  0.2409  1.1797 -0.1261
40597SOL    HW226349   4.017   9.865   2.222 -0.2830 -1.4901  2.0372
40598SOL     OW26350   9.297   2.131   4.976 -1.1168  0.0424 -0.0955
40598SOL    HW126351   9.274   2.217   5.010 -2.5673 -0.3009 -0.1385
40598SOL    HW226352   9.392   2.130   4.976 -1.0499  1.8830 -0.6823
40599SOL     OW26353   7.280  11.262   8.045  0.2145 -0.1975  0.5107
40599SOL    HW126354   7.329  11.253   8.128  0.6636  0.8439  0.3768
40599SOL    HW226355   7.348  11.264   7.978 -0.0509  0.5726  0.2600
40600SOL     OW26356   6.246   6.898   2.216 -0.6195  0.2244 -0.7310
40600SOL    HW126357   6.170   6.953   2.234 -0.1579  0.3478  0.9559
40600SOL    HW226358   6.304   6.953   2.163 -0.3857  1.2190  0.5176
40601SOL     OW26359   6.165   0.931   0.425 -0.2239  0.1429  0.7912
40601SOL    HW126360   6.127   0.958   0.341  0.1500  0.3048  0.6742
40601SOL    HW226361   6.150   1.006   0.482 -3.3624 -1.0980  1.8282
40602SOL     OW26362   0.585   9.723   7.739  0.5737 -0.2353 -0.3646
40602SOL    HW126363   0.516   9.721   7.672  0.9242 -0.5693 -0.7199
40602SOL    HW226364   0.613   9.814   7.742  1.2177 -0.3865 -1.3603
40603SOL     OW26365  10.454  12.114   6.032  0.6029 -0.6198  0.3484
40603SOL    HW126366  10.402  12.034   6.026  0.5415 -0.5005 -1.1483
40603SOL    HW226367  10.487  12.115   6.122 -0.1507 -1.8403  0.6615
40604SOL     OW26368   3.626   6.586   7.850  0.5654 -0.3402  0.2457
40604SOL    HW126369   3.538   6.592   7.887  0.4389  0.5693 -0.1770
40604SOL    HW226370   3.612   6.597   7.756  1.0647 -0.9328  0.0962
40605SOL     OW26371   6.630   5.381   1.381  0.0785  0.2379  0.1273
40605SOL    HW126372   6.705   5.351   1.432 -0.5524  0.2615  1.0848
40605SOL    HW226373   6.603   5.305   1.330  1.0070  0.3470 -0.5635
40606SOL     OW26374   5.498   1.659   1.317  0.5864 -0.5973  0.2046
40606SOL    HW126375   5.465   1.689   1.402  1.2160 -1.0284  0.6124
40606SOL    HW226376   5.583   1.704   1.308 -1.3494  3.0509 -2.2684
40607SOL     OW26377   1.127   5.228   2.063  0.7142  0.0617  0.2688
40607SOL    HW126378   1.119   5.235   2.158  0.7446  1.1289  0.2065
40607SOL    HW226379   1.191   5.295   2.040 -1.5744  2.0064 -0.8201
40608SOL     OW26380   9.505   2.904   6.583  1.0265  0.1274  0.2081
40608SOL    HW126381   9.420   2.877   6.547  1.2547  2.2073 -2.1553
40608SOL    HW226382   9.491   2.906   6.678 -1.7370  0.8996 -0.1339
40609SOL     OW26383   9.284   6.841   5.364  0.1625  0.3900 -0.3675
40609SOL    HW126384   9.367   6.888   5.373  0.3924  0.8853 -3.7718
40609SOL    HW226385   9.219   6.899   5.403  1.2260  0.5418  1.2502
40610SOL     OW26386   0.513  10.810   4.676 -0.3270 -0.1141 -0.0020
40610SOL    HW126387   0.510  10.811   4.772 -0.3515 -0.9218  0.0131
40610SOL    HW226388   0.422  10.797   4.649 -0.2300 -0.5787 -0.1152
40611SOL     OW26389   1.427   5.498  10.994 -0.2779 -0.1769 -0.1333
40611SOL    HW126390   1.473   5.519  10.913  0.2495 -1.1611 -0.0990
40611SOL    HW226391   1.496   5.480  11.057 -0.5866  3.0238  1.2758
40612SOL     OW26392   9.535   5.267   0.662  0.6535  0.2919  0.1664
40612SOL    HW126393   9.593   5.209   0.712  1.4299 -0.4545 -1.5374
40612SOL    HW226394   9.505   5.214   0.589 -2.7723  0.4254  1.3028
40613SOL     OW26395   5.929   5.256   8.644 -0.4702  0.8185 -0.5710
40613SOL    HW126396   5.986   5.312   8.591  1.9703  1.3943  2.4221
40613SOL    HW226397   5.970   5.170   8.640 -0.6904  0.6957 -0.1944
40614SOL     OW26398   4.718   7.585   1.063  0.4493  0.5615 -0.2470
40614SOL    HW126399   4.680   7.573   1.151  0.3130  0.3958 -0.3279
40614SOL    HW226400   4.655   7.641   1.018  1.0456  1.5455  0.1051
40615SOL     OW26401   3.755  11.362   4.978 -0.0328 -0.3678  0.2188
40615SOL    HW126402   3.763  11.269   4.956  1.8166 -0.2473  0.1718
40615SOL    HW226403   3.799  11.370   5.063 -0.3161  0.4352  0.2980
40616SOL     OW26404   0.220   0.715   7.005  0.0895 -0.0861  0.1533
40616SOL    HW126405   0.224   0.749   6.916 -0.9907  0.0819  0.1558
40616SOL    HW226406   0.233   0.792   7.060 -0.1831 -0.0338  0.1453
40617SOL     OW26407  10.130  10.109   0.345  0.5366 -0.2791 -0.1595
40617SOL    HW126408  10.175  10.190   0.370 -0.1530  0.0439  0.0692
40617SOL    HW226409  10.193  10.063   0.289  0.6919  0.7312 -0.8527
40618SOL     OW26410   9.746   0.114   8.879  0.0586 -0.3447  0.0861
40618SOL    HW126411   9.669   0.110   8.822  0.4446  4.3370 -1.1914
40618SOL    HW226412   9.713   0.148   8.962  0.1666 -2.9935  1.3047
40619SOL     OW26413   9.173  10.791   0.296 -0.1734  0.1016 -0.0230
40619SOL    HW126414   9.099  10.774   0.355 -0.1320  0.9724  0.2932
40619SOL    HW226415   9.249  10.764   0.347 -0.2030  0.0442 -0.0079
40620SOL     OW26416   7.262   0.930  11.358  0.4958  0.5937 -1.0345
40620SOL    HW126417   7.225   0.998  11.415 -2.0319 -0.3484 -1.4439
40620SOL    HW226418   7.254   0.849  11.408 -0.2484  0.0004 -2.0829
40621SOL     OW26419   3.699   8.225   0.249 -0.4454  0.7833 -0.1649
40621SOL    HW126420   3.620   8.173   0.263  0.4362 -0.4024  0.5719
40621SOL    HW226421   3.692   8.296   0.313  0.0083 -0.4455  1.3126
40622SOL     OW26422   0.767   8.474   9.165 -0.3366  0.1224  0.4430
40622SOL    HW126423   0.763   8.509   9.076  0.5578  0.2827  0.4559
40622SOL    HW226424   0.762   8.551   9.222 -0.6480  0.0406  0.5284
40623SOL     OW26425   5.107   3.584   6.974 -0.1029  0.3206  0.2606
40623SOL    HW126426   5.021   3.623   6.963 -0.3468 -0.6646 -1.9791
40623SOL    HW226427   5.092   3.506   7.028 -0.2318  1.2565  1.6052
40624SOL     OW26428  10.375   2.724   8.529  0.3787  0.0388  0.3031
40624SOL    HW126429  10.439   2.794   8.519  1.4221 -0.7699  1.0971
40624SOL    HW226430  10.423   2.652   8.570 -0.9155 -0.7795  0.4714
40625SOL     OW26431   8.490   1.435   5.166  0.1605  0.1411  0.0971
40625SOL    HW126432   8.478   1.389   5.083  2.7658 -1.0555  0.2709
40625SOL    HW226433   8.450   1.521   5.152  1.4000  0.3778 -2.7985
40626SOL     OW26434   7.761   4.726   2.731 -0.5123  0.4299 -0.3776
40626SOL    HW126435   7.732   4.671   2.803  1.7695 -0.1604  0.1752
40626SOL    HW226436   7.791   4.664   2.664  1.4247  0.9092 -0.0328
40627SOL     OW26437   1.610  10.735   0.646 -0.0034 -0.1987 -0.1217
40627SOL    HW126438   1.689  10.775   0.609 -0.4069  0.7630  0.0299
40627SOL    HW226439   1.631  10.642   0.650  1.9851  0.2535  1.9959
40628SOL     OW26440   0.939   8.073   9.051 -0.0318  0.0601 -0.8683
40628SOL    HW126441   0.957   8.140   9.117  0.6707 -3.2321  2.6290
40628SOL    HW226442   0.849   8.045   9.070  0.4566 -1.4766 -0.7485
40629SOL     OW26443  11.909  10.569   7.620  0.3418 -0.0046 -0.3900
40629SOL    HW126444  11.846  10.634   7.587  0.4972  0.0171 -0.6551
40629SOL    HW226445  11.918  10.589   7.713  0.0688  0.0857 -0.3811
40630SOL     OW26446   6.627  10.154   5.615  0.4964  0.0255  0.0762
40630SOL    HW126447   6.701  10.093   5.622 -0.7248 -1.3952  1.3454
40630SOL    HW226448   6.551  10.103   5.645 -0.6925  2.0059  0.5959
40631SOL     OW26449   1.724   7.880   9.841  0.2000 -0.6655  0.0133
40631SOL    HW126450   1.746   7.798   9.885  1.0537 -0.7495 -0.5529
40631SOL    HW226451   1.806   7.928   9.836 -0.3568  0.3912  0.6443
40632SOL     OW26452   8.138   0.500   0.935  0.3935 -0.0298 -0.0773
40632SOL    HW126453   8.198   0.428   0.955 -0.4250 -0.7618 -0.1874
40632SOL    HW226454   8.156   0.565   1.003  0.7458 -0.5803  0.3725
40633SOL     OW26455   4.584  10.980   9.593  0.1812  0.1153 -0.2350
40633SOL    HW126456   4.514  10.915   9.601  0.4825 -0.0986  0.8996
40633SOL    HW226457   4.661  10.936   9.628  0.6584  0.6780 -0.5742
40634SOL     OW26458   2.285   4.561   5.285 -0.6696  0.1855 -0.0703
40634SOL    HW126459   2.205   4.509   5.284 -1.1602  0.9416 -0.9647
40634SOL    HW226460   2.295   4.588   5.376 -0.9950 -0.5668  0.1963
40635SOL     OW26461   7.958   5.075   9.419 -0.4820 -0.2742  0.0507
40635SOL    HW126462   7.960   5.038   9.507 -1.0808  0.3081  0.3072
40635SOL    HW226463   7.866   5.091   9.401 -0.4225 -0.9445 -0.9187
40636SOL     OW26464   5.830   3.186   4.185 -0.6885  0.1168  0.1921
40636SOL    HW126465   5.761   3.207   4.121  0.5417 -1.5905 -1.8334
40636SOL    HW226466   5.888   3.261   4.183 -1.9091  1.1348  1.1759
40637SOL     OW26467   4.664   9.241   0.699  0.1981 -0.0596 -0.0757
40637SOL    HW126468   4.699   9.156   0.671 -0.1770 -0.0041 -0.7443
40637SOL    HW226469   4.625   9.224   0.785 -0.5347 -0.7561 -0.5252
40638SOL     OW26470   8.630   5.807   0.661 -0.0764 -0.0446 -0.0192
40638SOL    HW126471   8.705   5.764   0.701 -0.2422 -0.3223 -0.0060
40638SOL    HW226472   8.664   5.844   0.580  0.0953 -0.0942  0.0299
40639SOL     OW26473   9.506   1.740   0.042 -0.1885 -0.5751  0.0199
40639SOL    HW126474   9.518   1.719   0.135 -3.9427  2.2106  1.3853
40639SOL    HW226475   9.582   1.795   0.020 -1.4587  2.7880  3.0496
40640SOL     OW26476   9.401   2.081  11.420  0.5742  0.2229  0.3185
40640SOL    HW126477   9.335   2.131  11.372 -0.0639 -0.9754 -0.0732
40640SOL    HW226478   9.364   2.071  11.508 -0.2734 -1.3280 -0.1818
40641SOL     OW26479   1.306   3.339   4.014 -0.6489 -0.0802  0.7694
40641SOL    HW126480   1.293   3.270   3.949 -0.0957 -1.0748  1.6877
40641SOL    HW226481   1.224   3.389   4.013 -0.4510  0.2975 -1.0801
40642SOL     OW26482   5.533  11.548  10.758 -0.2216  0.0464  0.3329
40642SOL    HW126483   5.548  11.456  10.776  2.3378  0.2063 -0.5523
40642SOL    HW226484   5.550  11.592  10.842  0.7352 -0.1380  0.2534
40643SOL     OW26485   9.367   2.003   6.386  0.7732 -0.1934  0.2492
40643SOL    HW126486   9.427   1.997   6.312 -1.0143 -1.4003 -1.2194
40643SOL    HW226487   9.412   1.957   6.457  1.5696 -1.1695 -0.8299
40644SOL     OW26488   9.668   3.080   8.901  0.0546  0.8482  0.3996
40644SOL    HW126489   9.624   3.124   8.828 -0.1070 -0.1376 -0.1195
40644SOL    HW226490   9.736   3.028   8.860 -1.4422 -1.4978  0.6559
40645SOL     OW26491   1.188   3.802   0.267 -0.2267  0.3905 -0.2256
40645SOL    HW126492   1.108   3.752   0.248  1.1006 -2.2600  0.5557
40645SOL    HW226493   1.248   3.778   0.197  0.9852 -0.4961  1.0523
40646SOL     OW26494   9.192   8.980   5.031 -0.0261 -0.2503 -0.0463
40646SOL    HW126495   9.114   8.965   5.084 -0.4389  1.6556 -0.0507
40646SOL    HW226496   9.258   8.921   5.068 -1.0734 -0.9017  0.8308
40647SOL     OW26497  11.695   9.573  11.818  0.2631  0.4209 -0.6174
40647SOL    HW126498  11.682   9.512  11.746  1.7776 -0.8355  0.1328
40647SOL    HW226499  11.785   9.603  11.808  0.3233  0.6206  0.4744
40648SOL     OW26500   3.097   5.380  11.570 -0.0667 -0.3462 -0.2163
40648SOL    HW126501   3.062   5.427  11.494 -1.6441 -0.0341  0.6451
40648SOL    HW226502   3.023   5.326  11.600  1.3256 -2.4831 -0.4456
40649SOL     OW26503   8.105   4.276   6.995  0.3423  0.1349  0.2815
40649SOL    HW126504   8.057   4.354   6.967 -0.2462 -0.2237  0.2828
40649SOL    HW226505   8.185   4.310   7.034 -0.0893  0.7596  0.6461
40650SOL     OW26506   7.795   1.002   9.772 -0.9378  0.0017  0.4627
40650SOL    HW126507   7.785   1.094   9.748 -1.5377 -0.0585  0.4708
40650SOL    HW226508   7.752   0.954   9.702 -1.4673 -0.2329  0.9394
40651SOL     OW26509  10.426   2.622   2.161 -0.4049 -0.2935 -0.3063
40651SOL    HW126510  10.485   2.551   2.136 -0.0053  0.0875 -0.4422
40651SOL    HW226511  10.480   2.700   2.161 -0.9131  0.0647 -0.4565
40652SOL     OW26512   7.155   8.517   9.184  0.3125  0.0655 -0.4899
40652SOL    HW126513   7.095   8.555   9.121 -0.3527 -1.4500 -0.8087
40652SOL    HW226514   7.146   8.422   9.172 -0.4549 -0.3184  2.4011
40653SOL     OW26515  11.200   0.932   6.601  0.5223  0.1764  0.1311
40653SOL    HW126516  11.183   0.869   6.531  1.2231 -1.2720  1.2124
40653SOL    HW226517  11.274   0.983   6.569  2.4583 -2.0701  0.7070
40654SOL     OW26518   8.028   9.122   9.544  0.1926  0.2070  0.2709
40654SOL    HW126519   7.955   9.074   9.503 -0.0843 -0.4234  1.4487
40654SOL    HW226520   8.106   9.087   9.502 -0.1484  0.6029 -0.7262
40655SOL     OW26521   1.783   3.135   8.755  0.7065 -0.0030 -0.1988
40655SOL    HW126522   1.848   3.068   8.735  0.4854  0.3260 -2.1991
40655SOL    HW226523   1.782   3.192   8.679 -1.0171  0.7460  0.3238
40656SOL     OW26524   9.232   7.452   8.289  0.3094 -0.5843 -0.4050
40656SOL    HW126525   9.283   7.420   8.214  0.9055  0.6548 -0.5686
40656SOL    HW226526   9.296   7.499   8.343 -0.5887  0.8170 -0.5015
40657SOL     OW26527   0.858  11.904   8.452  0.0045  0.0487  0.0827
40657SOL    HW126528   0.809  11.961   8.392 -2.1148 -0.0183  1.6628
40657SOL    HW226529   0.930  11.959   8.484  0.3954  0.4943 -1.4761
40658SOL     OW26530   3.380   7.349   6.649  0.6211  0.1927 -0.7632
40658SOL    HW126531   3.395   7.378   6.739 -1.1744 -0.1320 -0.3329
40658SOL    HW226532   3.453   7.290   6.630  1.9915  1.6082 -0.1682
40659SOL     OW26533  10.042  10.111  10.999  0.4107  0.0147 -0.3053
40659SOL    HW126534  10.020  10.195  10.959 -0.4831  0.9104  1.9068
40659SOL    HW226535   9.963  10.057  10.987 -0.2374  0.6181  0.9890
40660SOL     OW26536  10.956   0.817  10.954 -1.0050 -0.8188 -0.4605
40660SOL    HW126537  10.879   0.776  10.993 -1.3311 -0.0302 -0.2528
40660SOL    HW226538  10.934   0.910  10.949  0.5963 -0.2724  1.3019
40661SOL     OW26539  12.021   9.922   0.243  0.0262 -0.5452  0.1724
40661SOL    HW126540  12.020   9.933   0.148 -0.3788 -0.4141  0.1920
40661SOL    HW226541  12.113   9.936   0.267  0.0775 -0.2789 -0.1655
40662SOL     OW26542   6.700   7.799   5.466 -0.3168 -0.0131 -0.1823
40662SOL    HW126543   6.776   7.854   5.484 -0.4746  0.0798  0.2034
40662SOL    HW226544   6.625   7.851   5.495 -0.9565  1.6380 -4.1451
40663SOL     OW26545   1.178   8.143   6.818 -0.7688  0.2510 -0.5677
40663SOL    HW126546   1.154   8.070   6.762  1.1401 -1.2982  0.4934
40663SOL    HW226547   1.271   8.158   6.799 -1.0322  2.2099 -0.5140
40664SOL     OW26548  11.488   0.744   9.758 -0.6908  0.5149  0.5207
40664SOL    HW126549  11.417   0.803   9.730 -0.0537  1.4321  0.7738
40664SOL    HW226550  11.495   0.759   9.852 -0.3602  0.2027  0.5457
40665SOL     OW26551  10.226   6.432   0.295 -0.4517 -0.2009 -0.6580
40665SOL    HW126552  10.224   6.399   0.384 -1.1186 -0.2035 -0.6669
40665SOL    HW226553  10.224   6.527   0.305  2.0644 -0.0924 -0.6156
40666SOL     OW26554   2.863   2.475   4.943  0.3295 -0.1953  0.1775
40666SOL    HW126555   2.790   2.515   4.896  0.4332  0.4074  0.5138
40666SOL    HW226556   2.909   2.423   4.877  1.3075  1.7678 -0.7853
40667SOL     OW26557   2.526  11.560   8.785  0.3130  0.1362 -0.1186
40667SOL    HW126558   2.445  11.528   8.745  0.5024 -0.4502 -0.0503
40667SOL    HW226559   2.554  11.489   8.843 -0.5716  1.4312  2.0008
40668SOL     OW26560   9.748   5.680   2.685 -0.1530  0.3309 -0.4232
40668SOL    HW126561   9.749   5.665   2.780 -0.4757  0.1390 -0.4490
40668SOL    HW226562   9.689   5.753   2.673 -2.2602 -1.3172 -0.6988
40669SOL     OW26563  12.018  12.045   6.297 -0.2231 -0.4522  0.2794
40669SOL    HW126564  11.937  11.995   6.284 -0.4472 -0.0929  0.2771
40669SOL    HW226565  12.060  12.004   6.372 -0.1163 -1.0144 -0.0810
40670SOL     OW26566   1.076   4.867   6.442  0.2928 -0.5445 -0.2592
40670SOL    HW126567   1.024   4.928   6.390 -1.3838  2.4146  4.3282
40670SOL    HW226568   1.024   4.787   6.445 -0.7053  0.0456 -1.1298
40671SOL     OW26569   4.737   7.092   2.326 -0.0816  0.3118 -0.3318
40671SOL    HW126570   4.661   7.136   2.364  0.0741 -0.1838  0.5787
40671SOL    HW226571   4.790   7.067   2.402  1.3174  1.2399 -0.9746
40672SOL     OW26572   4.738  11.625   4.849  0.5621 -0.3876  0.1359
40672SOL    HW126573   4.785  11.562   4.904 -0.8418 -1.1285  0.5095
40672SOL    HW226574   4.771  11.711   4.879  0.3040 -0.7989  1.7005
40673SOL     OW26575  10.108   8.487  10.679  0.2865  0.4116  0.2526
40673SOL    HW126576  10.048   8.557  10.654  1.0234  0.8097 -0.4718
40673SOL    HW226577  10.194   8.518  10.650  0.7107 -0.5306  0.4666
40674SOL     OW26578   7.739   2.220   3.954 -0.4832 -0.0809  0.2201
40674SOL    HW126579   7.674   2.149   3.956  0.0879 -0.6182 -0.1344
40674SOL    HW226580   7.704   2.283   3.891 -0.6510 -0.3777  0.0147
40675SOL     OW26581   2.271   9.546  12.040  0.6565  0.8147 -0.3685
40675SOL    HW126582   2.303   9.458  12.061 -0.1025  0.8887  1.2080
40675SOL    HW226583   2.176   9.539  12.046  0.3878  1.0968 -2.9802
40676SOL     OW26584   4.719   8.524  12.088 -0.2978  0.8779  0.6234
40676SOL    HW126585   4.809   8.537  12.117  0.2274  0.1874 -0.6367
40676SOL    HW226586   4.727   8.496  11.997 -1.7738  0.4567  0.6048
40677SOL     OW26587   9.948   7.123   1.393  0.4498  0.2096  0.0198
40677SOL    HW126588   9.942   7.215   1.364 -0.7645  0.3448  0.6486
40677SOL    HW226589   9.973   7.129   1.485 -0.1707 -0.0601  0.2124
40678SOL     OW26590   2.303  10.346   1.294  0.0738 -0.4452  0.4469
40678SOL    HW126591   2.221  10.321   1.335 -1.0126 -0.2465 -1.4756
40678SOL    HW226592   2.309  10.441   1.308 -1.2028 -0.0624 -1.2870
40679SOL     OW26593   2.315   3.065   6.824 -0.0060 -0.2041  0.0166
40679SOL    HW126594   2.311   3.092   6.732 -1.6383 -1.9080 -0.4675
40679SOL    HW226595   2.260   3.128   6.869 -0.7939 -0.5047 -0.5052
40680SOL     OW26596   1.418   8.469   9.054  0.0014 -0.0476  0.6666
40680SOL    HW126597   1.438   8.520   9.133 -0.6390  0.1250  0.7166
40680SOL    HW226598   1.504   8.444   9.020  0.2884 -0.6317  1.7521
40681SOL     OW26599   5.254   2.621   9.167 -0.0213  0.1979 -0.3907
40681SOL    HW126600   5.161   2.611   9.188  0.3702 -0.9236  0.9745
40681SOL    HW226601   5.267   2.715   9.158 -1.0845  0.4388  0.4393
40682SOL     OW26602   2.126   0.124   0.592  0.4420  0.2959  0.2086
40682SOL    HW126603   2.206   0.137   0.644  0.6186 -3.3435  1.1269
40682SOL    HW226604   2.158   0.093   0.507  0.0762 -0.7327  0.4296
40683SOL     OW26605   4.485   7.805   8.867  0.0753 -0.4946 -0.4608
40683SOL    HW126606   4.483   7.752   8.946  2.7688 -0.1375 -0.0628
40683SOL    HW226607   4.486   7.742   8.795  0.4671 -0.9222 -0.0848
40684SOL     OW26608  10.752   5.786   1.910  0.1092 -0.2767  0.2396
40684SOL    HW126609  10.837   5.828   1.899  1.5632 -2.9350  0.5733
40684SOL    HW226610  10.702   5.846   1.966  3.4102 -0.6656  3.9678
40685SOL     OW26611   7.613   2.200   5.253  0.4621 -0.0304  0.7358
40685SOL    HW126612   7.558   2.223   5.328  1.1429 -0.3129  1.3346
40685SOL    HW226613   7.560   2.222   5.176  0.5984  2.3748  1.2698
40686SOL     OW26614   9.126   0.974   0.182 -0.2573  0.0527 -0.3981
40686SOL    HW126615   9.060   1.041   0.201 -0.2353  0.3063 -1.1956
40686SOL    HW226616   9.163   1.000   0.099 -0.1702 -0.8965 -0.6662
40687SOL     OW26617   3.163   8.750   6.423  0.1880 -0.4188 -0.3218
40687SOL    HW126618   3.232   8.761   6.489  0.2230 -0.3130 -0.3751
40687SOL    HW226619   3.190   8.807   6.351  0.6181 -1.2222 -0.8108
40688SOL     OW26620   7.150   8.446  10.996  0.1067 -0.4239  0.1818
40688SOL    HW126621   7.142   8.540  11.009  0.4082 -0.5414  1.3008
40688SOL    HW226622   7.101   8.407  11.068 -1.0837 -1.1469 -0.9718
40689SOL     OW26623   8.489   5.032  11.600 -0.1539  0.1397 -0.1579
40689SOL    HW126624   8.445   4.959  11.644  1.4099 -1.3101 -0.8510
40689SOL    HW226625   8.452   5.034  11.512  1.2973 -1.3088 -0.8564
40690SOL     OW26626  10.433   2.529   0.606  0.4287 -0.5575 -0.8458
40690SOL    HW126627  10.377   2.482   0.545 -0.1005 -2.0603  0.7210
40690SOL    HW226628  10.465   2.462   0.666 -0.0267  0.9853  1.2560
40691SOL     OW26629  11.419   9.878  11.998  0.0538 -0.1354  0.0279
40691SOL    HW126630  11.457   9.814  12.059 -0.1450 -0.6065 -0.3356
40691SOL    HW226631  11.489   9.894  11.934  0.2017  0.2277  0.2792
40692SOL     OW26632   5.162  10.557   1.918  0.1407 -0.2637 -0.1834
40692SOL    HW126633   5.229  10.508   1.966  0.7373 -0.2401 -0.9782
40692SOL    HW226634   5.189  10.649   1.925  1.0321 -0.3772 -1.7530
40693SOL     OW26635   1.177   2.693   1.069  0.4177  0.5013  0.3153
40693SOL    HW126636   1.174   2.606   1.029 -1.0404  0.0681  1.2988
40693SOL    HW226637   1.118   2.746   1.015 -0.1607  0.3803  0.8206
40694SOL     OW26638   6.312   7.686   1.495 -0.0318 -0.2348 -0.0776
40694SOL    HW126639   6.318   7.591   1.481 -1.4066 -0.1264 -1.7682
40694SOL    HW226640   6.403   7.715   1.501  0.4874 -1.4130 -1.5469
40695SOL     OW26641   2.168   9.842   8.285 -0.4455  0.1149 -0.2050
40695SOL    HW126642   2.118   9.814   8.209 -1.4535 -0.9752  0.8069
40695SOL    HW226643   2.140   9.932   8.300 -0.2084  0.3500 -1.1419
40696SOL     OW26644   1.562   5.360   7.445  0.3468 -0.0437 -0.3074
40696SOL    HW126645   1.486   5.303   7.452 -0.5327  1.1937  0.6268
40696SOL    HW226646   1.585   5.359   7.352  0.0107 -1.4474 -0.3947
40697SOL     OW26647   8.583   7.391  11.976  0.1378  0.0243 -0.1116
40697SOL    HW126648   8.540   7.308  11.955 -1.2854  1.2348 -2.4428
40697SOL    HW226649   8.585   7.439  11.893  0.7438  2.3865  1.1661
40698SOL     OW26650  10.399   3.176   9.829 -0.3066  0.2755  0.3166
40698SOL    HW126651  10.367   3.243   9.769  0.8500  0.0672 -0.5639
40698SOL    HW226652  10.329   3.166   9.894 -1.5056  0.6486 -0.8786
40699SOL     OW26653   2.929   3.421   5.700  0.0146  0.4704 -0.6558
40699SOL    HW126654   2.891   3.501   5.664  2.9851  2.7615  0.8322
40699SOL    HW226655   2.958   3.446   5.788  2.6596 -1.7001 -0.7839
40700SOL     OW26656   5.664   2.679   7.795  0.2598 -0.0344 -0.0148
40700SOL    HW126657   5.729   2.655   7.861  1.0436 -0.2671 -0.8407
40700SOL    HW226658   5.582   2.640   7.827  0.6074 -0.0865  0.8425
40701SOL     OW26659   6.285   2.946   3.524 -0.3346  0.3446 -1.0330
40701SOL    HW126660   6.302   2.871   3.582 -0.6164  0.9065 -0.2097
40701SOL    HW226661   6.222   2.999   3.572  1.5287  2.2892 -0.5661
40702SOL     OW26662   7.975   4.328   2.059  0.1585 -0.0229  0.2083
40702SOL    HW126663   7.963   4.374   1.976 -0.2675  2.2084  1.4120
40702SOL    HW226664   8.042   4.380   2.104 -1.6702  0.5703  2.3913
40703SOL     OW26665   7.228  11.926   3.006  0.1319  0.3705 -0.0642
40703SOL    HW126666   7.301  11.988   3.002  1.0281 -0.6477  0.1501
40703SOL    HW226667   7.235  11.885   3.092 -1.3514  1.0129  0.3971
40704SOL     OW26668   8.660   7.425   6.422  0.4600  0.4321  0.3915
40704SOL    HW126669   8.566   7.420   6.406  0.4107 -3.1529  1.1220
40704SOL    HW226670   8.695   7.468   6.343 -1.6177  0.5592 -0.5302
40705SOL     OW26671   4.578   9.355   7.590  0.5678  0.2392  0.2838
40705SOL    HW126672   4.641   9.423   7.617  0.3066  0.8615 -0.6253
40705SOL    HW226673   4.568   9.369   7.496  1.0017 -1.4916 -0.0506
40706SOL     OW26674   8.390   8.900  11.749  0.1155  0.3842 -0.3215
40706SOL    HW126675   8.353   8.970  11.802 -1.0399 -0.9712  0.7165
40706SOL    HW226676   8.323   8.880  11.684  0.3292  0.0528 -0.4460
40707SOL     OW26677   7.726   4.778   4.491  0.3273  0.2506  0.3109
40707SOL    HW126678   7.702   4.856   4.542  0.9023  0.3226  0.4792
40707SOL    HW226679   7.681   4.790   4.408 -0.5651  0.1662  0.7734
40708SOL     OW26680   9.662   1.404  11.147  0.0497 -0.2199  0.6175
40708SOL    HW126681   9.743   1.447  11.118 -0.5403  0.4794 -0.0426
40708SOL    HW226682   9.602   1.477  11.167 -0.8618 -0.7247 -0.2184
40709SOL     OW26683  11.886   3.997   0.798 -0.1112 -0.0014  0.4114
40709SOL    HW126684  11.952   3.985   0.866  0.1623 -0.1271  0.1277
40709SOL    HW226685  11.815   3.938   0.822  0.1154 -0.2703  0.4246
40710SOL     OW26686   5.925   8.827   2.200  0.2926  0.5238  0.0822
40710SOL    HW126687   5.994   8.777   2.244  1.1637 -0.8941 -2.7080
40710SOL    HW226688   5.970   8.878   2.134 -1.2150  0.1904 -1.2708
40711SOL     OW26689   8.346   7.105   3.456 -0.4644  0.3676  0.5054
40711SOL    HW126690   8.369   7.165   3.385  2.4362  0.7631  1.6467
40711SOL    HW226691   8.352   7.159   3.536  1.5905 -1.1784  1.4926
40712SOL     OW26692   9.331  10.743   6.560  0.5355  0.3229  0.3451
40712SOL    HW126693   9.400  10.769   6.499 -0.0596 -0.5212 -0.7194
40712SOL    HW226694   9.298  10.660   6.526 -1.3966  0.9751  0.4875
40713SOL     OW26695  11.249   3.476   4.933  0.2592  0.5353  0.2807
40713SOL    HW126696  11.275   3.387   4.909 -0.4180 -0.0919  1.7314
40713SOL    HW226697  11.329   3.516   4.966  0.0732 -0.4701  2.1260
40714SOL     OW26698   7.674   4.270   2.046  0.2065 -0.0209 -0.3313
40714SOL    HW126699   7.741   4.325   2.088 -0.9637  0.4797  0.9444
40714SOL    HW226700   7.719   4.186   2.033  1.2395  0.4393  0.0715
40715SOL     OW26701   6.058   8.288  11.301 -0.5740  0.2300  0.4623
40715SOL    HW126702   6.112   8.317  11.374 -0.5045  0.6848  0.2326
40715SOL    HW226703   6.117   8.288  11.226 -0.9319  0.8959  0.1745
40716SOL     OW26704  11.316   3.300  11.404 -1.0033  0.6197 -0.1070
40716SOL    HW126705  11.389   3.346  11.362 -0.1584 -0.2528  0.3741
40716SOL    HW226706  11.302   3.222  11.350 -1.0224  0.3534  0.2766
40717SOL     OW26707   6.880   0.114   2.868 -0.4040  0.1471 -0.0384
40717SOL    HW126708   6.886   0.153   2.956  1.5604  0.9832 -0.4742
40717SOL    HW226709   6.920   0.028   2.877  0.8560  0.6704 -0.2872
40718SOL     OW26710   3.302  10.731   4.653  0.2457  0.0835 -0.3983
40718SOL    HW126711   3.262  10.759   4.571 -1.1391  0.8213  0.4807
40718SOL    HW226712   3.309  10.812   4.704 -0.8667 -0.6550  0.9877
40719SOL     OW26713   6.706   4.300   2.672  0.3705  0.2567 -0.5275
40719SOL    HW126714   6.765   4.346   2.614  1.7937 -1.4602 -0.5209
40719SOL    HW226715   6.756   4.288   2.753 -1.1226  1.4998  0.6453
40720SOL     OW26716   0.913   8.882  10.930  0.4083  0.2385  0.2465
40720SOL    HW126717   0.876   8.862  10.844  0.3821 -0.2695  0.3734
40720SOL    HW226718   0.984   8.944  10.911  0.0474  0.5560 -0.0815
40721SOL     OW26719  10.387   8.998   2.831  0.5859  0.0692  0.3906
40721SOL    HW126720  10.453   8.986   2.900  0.4845  1.2469  0.7203
40721SOL    HW226721  10.353   9.086   2.846 -0.0896 -0.0030 -0.6236
40722SOL     OW26722   9.679  11.208   5.674 -0.9408 -0.2481 -0.4090
40722SOL    HW126723   9.765  11.235   5.642 -0.5127 -1.7647 -0.6339
40722SOL    HW226724   9.620  11.279   5.648 -0.1592 -0.2463 -2.3116
40723SOL     OW26725  10.492   3.766   6.689  0.3618  0.1488  0.1762
40723SOL    HW126726  10.434   3.842   6.683  2.3030  1.8082  0.8931
40723SOL    HW226727  10.460   3.716   6.764 -1.3307 -0.1055 -0.6902
40724SOL     OW26728   6.869   5.238   9.895 -0.1946  0.1024  0.0802
40724SOL    HW126729   6.917   5.300   9.949 -1.3424  1.9670 -0.9355
40724SOL    HW226730   6.826   5.180   9.958  0.8395  0.3789  1.0679
40725SOL     OW26731   1.566   0.006   2.953 -0.6090  0.0087 -0.2414
40725SOL    HW126732   1.526  -0.053   3.017 -2.9536  1.3042 -0.4019
40725SOL    HW226733   1.498   0.020   2.887  0.3745  1.7654 -0.9662
40726SOL     OW26734   6.777   6.494  10.070 -0.0679  0.1659 -0.1780
40726SOL    HW126735   6.832   6.559  10.027  0.6580 -0.7457 -0.6610
40726SOL    HW226736   6.712   6.545  10.118  1.1942  1.2811  0.4101
40727SOL     OW26737   1.359   9.538   0.045 -0.6712 -0.1367 -0.3254
40727SOL    HW126738   1.449   9.546   0.013  0.1269  0.4312  1.9134
40727SOL    HW226739   1.305   9.555  -0.032  1.1190  0.1059 -1.5894
40728SOL     OW26740   0.554   5.453  10.135  0.2951 -0.2168 -0.5422
40728SOL    HW126741   0.541   5.442  10.229  3.0423  0.2229 -0.0230
40728SOL    HW226742   0.555   5.363  10.100  1.5796 -0.5515  0.2720
40729SOL     OW26743   8.861   1.416   8.418  0.6912 -0.0409 -0.0856
40729SOL    HW126744   8.909   1.398   8.499  0.4712 -0.8737 -0.1379
40729SOL    HW226745   8.776   1.375   8.431  0.7247 -0.3635 -0.8234
40730SOL     OW26746   0.605  11.095  10.797 -0.0826 -0.0033 -0.3987
40730SOL    HW126747   0.691  11.136  10.804 -0.2204  0.5159 -1.6001
40730SOL    HW226748   0.584  11.098  10.704 -1.0099 -0.9459 -0.2426
40731SOL     OW26749   3.831   3.249   4.195 -0.0406 -0.0466 -0.0809
40731SOL    HW126750   3.906   3.192   4.215 -0.1038 -0.9234 -2.0912
40731SOL    HW226751   3.870   3.336   4.182  0.3915 -0.1303  0.6181
40732SOL     OW26752   9.854   2.976   6.897 -0.2766  0.5776 -0.0006
40732SOL    HW126753   9.836   2.921   6.821  0.5348  0.5244 -0.1676
40732SOL    HW226754   9.918   3.040   6.865 -0.2531  0.8179  0.5221
40733SOL     OW26755   3.898   6.261  10.222 -0.1193 -0.1164  0.0466
40733SOL    HW126756   3.906   6.329  10.288  1.1064  0.8390 -1.0274
40733SOL    HW226757   3.988   6.234  10.204 -0.2846  0.6163 -2.1672
40734SOL     OW26758   5.813   8.438   6.039  0.7141 -0.3359 -0.5542
40734SOL    HW126759   5.813   8.371   5.971 -0.6998 -1.6491  0.6715
40734SOL    HW226760   5.879   8.408   6.102  1.7417  0.6754 -1.1032
40735SOL     OW26761   1.628   5.508   3.490  0.2655 -0.0409  0.0449
40735SOL    HW126762   1.602   5.519   3.581 -1.9769 -1.5439 -0.3421
40735SOL    HW226763   1.687   5.582   3.473 -1.4373  1.8680  1.9108
40736SOL     OW26764   5.920   9.932  10.162 -0.2956  0.3941 -0.8571
40736SOL    HW126765   5.844   9.986  10.182 -0.2807  0.2112 -0.2977
40736SOL    HW226766   5.988   9.963  10.222  0.3122  1.0692 -1.8514
40737SOL     OW26767   4.564  10.984  12.066 -0.1439  0.1237 -0.5011
40737SOL    HW126768   4.576  11.058  12.006  1.8375  1.2261  1.1459
40737SOL    HW226769   4.635  10.924  12.045  0.1558  0.1984  0.2972
40738SOL     OW26770  10.301   9.582  11.524 -0.0680  0.2041 -0.1085
40738SOL    HW126771  10.237   9.589  11.453  0.9344  1.0330 -0.9476
40738SOL    HW226772  10.380   9.622  11.490  1.5057 -2.3851  0.2665
40739SOL     OW26773   1.148   6.100   2.179 -0.4215  0.4495  0.3000
40739SOL    HW126774   1.220   6.093   2.242 -1.1597  0.1682  1.1217
40739SOL    HW226775   1.151   6.018   2.130 -0.9048 -0.0649  1.1198
40740SOL     OW26776   6.678   1.641  11.106 -0.1828  0.4945 -0.1512
40740SOL    HW126777   6.621   1.565  11.094 -0.0461  0.3968 -0.1871
40740SOL    HW226778   6.619   1.717  11.099 -0.2668  0.4049 -0.4462
40741SOL     OW26779  11.735   4.815   1.902  0.1987  0.1646  0.0758
40741SOL    HW126780  11.652   4.820   1.855 -0.0675  0.1685  0.5410
40741SOL    HW226781  11.733   4.889   1.963 -1.1963 -1.9617  2.8536
40742SOL     OW26782  10.529   4.007   7.457 -0.3214  0.2833  0.2728
40742SOL    HW126783  10.524   4.092   7.501 -1.6734  0.4617 -0.1884
40742SOL    HW226784  10.439   3.976   7.455 -0.0182 -0.5767 -0.6999
40743SOL     OW26785   1.058   4.737  11.601 -0.0837 -0.2095 -0.3752
40743SOL    HW126786   1.072   4.706  11.512 -0.3299  1.3448 -0.9816
40743SOL    HW226787   0.972   4.777  11.600 -0.4898 -0.9899  0.8242
40744SOL     OW26788   9.245   6.555  11.464 -0.3332  0.0638  0.8833
40744SOL    HW126789   9.235   6.521  11.553  0.3587  0.0442  0.9589
40744SOL    HW226790   9.275   6.645  11.476 -2.1638  0.7531  0.6875
40745SOL     OW26791   1.183  10.772   6.024  0.6756  0.1309 -0.1882
40745SOL    HW126792   1.127  10.769   5.946 -1.2034 -1.3500  1.1208
40745SOL    HW226793   1.262  10.725   5.998  1.6181  2.5733 -2.1987
40746SOL     OW26794   0.469   2.906   0.641 -0.1365 -0.0317 -0.2244
40746SOL    HW126795   0.478   2.921   0.735 -1.7780 -1.5332  0.2157
40746SOL    HW226796   0.528   2.834   0.622  0.3583  0.4141 -0.4073
40747SOL     OW26797   2.112   8.339   3.155  0.5423  0.3348  0.3001
40747SOL    HW126798   2.176   8.391   3.204  1.7500  0.2035 -1.0630
40747SOL    HW226799   2.161   8.262   3.126 -0.6790 -0.5705  0.5486
40748SOL     OW26800   8.030   3.357   9.642 -0.4703 -0.4828  0.1268
40748SOL    HW126801   8.030   3.269   9.679  1.8814  0.5975  3.1964
40748SOL    HW226802   7.976   3.408   9.703 -1.1458  0.3847 -1.1569
40749SOL     OW26803  11.511   0.731   0.687 -0.0433  0.3546 -0.6837
40749SOL    HW126804  11.436   0.769   0.641 -0.5159  0.7143  0.3600
40749SOL    HW226805  11.479   0.715   0.776  1.1569  0.6364 -0.1828
40750SOL     OW26806   3.713   2.938   6.925  0.1636 -0.1281 -0.5135
40750SOL    HW126807   3.659   2.946   6.846  2.8369  0.5048 -2.4050
40750SOL    HW226808   3.687   3.013   6.978 -2.3610 -1.0844 -0.2438
40751SOL     OW26809   1.154   1.140   3.443 -0.2146 -0.3313  0.3560
40751SOL    HW126810   1.166   1.128   3.349  2.4245 -0.9769  0.7038
40751SOL    HW226811   1.191   1.226   3.462 -0.5862 -0.2688  0.8562
40752SOL     OW26812   0.215   7.860   8.913  0.8079  0.3729  0.6526
40752SOL    HW126813   0.242   7.848   8.822 -0.0756  0.0870  0.4080
40752SOL    HW226814   0.266   7.796   8.962  1.1151  0.3628  0.3248
40753SOL     OW26815   4.991   4.439   4.722 -0.4743 -0.1834  0.3348
40753SOL    HW126816   4.929   4.395   4.779 -0.0751 -0.4227  0.5839
40753SOL    HW226817   5.040   4.369   4.680 -0.1652  0.0096  0.3672
40754SOL     OW26818   9.437   0.873   2.632 -0.4493  0.4511 -0.6181
40754SOL    HW126819   9.465   0.964   2.627 -2.0234  1.0594  0.6764
40754SOL    HW226820   9.388   0.868   2.714 -0.1742 -1.6330 -0.5322
40755SOL     OW26821  10.696   4.986   0.580  0.3062 -0.0548  0.1609
40755SOL    HW126822  10.776   4.972   0.529  1.1157  1.9174  0.7824
40755SOL    HW226823  10.629   5.001   0.514  1.1825  1.6737 -0.4056
40756SOL     OW26824   6.172   5.400  10.471  0.4356 -0.4108  0.2538
40756SOL    HW126825   6.206   5.372  10.386  2.0993  0.5254  0.5576
40756SOL    HW226826   6.159   5.319  10.520  4.1372 -0.8638  0.7658
40757SOL     OW26827   1.582   5.270   8.636 -0.1578 -0.5169 -1.0491
40757SOL    HW126828   1.495   5.266   8.675  0.0736 -0.9386 -0.5753
40757SOL    HW226829   1.571   5.230   8.549 -0.4894 -0.3172 -1.1039
40758SOL     OW26830  10.385   2.090   6.944  0.0578  0.4766  1.0537
40758SOL    HW126831  10.409   2.059   7.031 -1.4385 -1.6999  0.7802
40758SOL    HW226832  10.302   2.136   6.958 -0.0277  0.3898  0.8374
40759SOL     OW26833   7.888   3.607   1.014  0.4622 -0.1494 -0.3032
40759SOL    HW126834   7.980   3.580   1.019  0.4429 -0.4221 -1.1961
40759SOL    HW226835   7.848   3.546   0.952 -0.0837  0.6091 -0.7235
40760SOL     OW26836   7.131   4.809   3.569  0.2120 -0.2544 -0.4097
40760SOL    HW126837   7.227   4.813   3.568  0.1857  0.9286  0.4660
40760SOL    HW226838   7.110   4.765   3.651 -0.0307  1.8490  0.7091
40761SOL     OW26839   2.458   9.325   2.642  0.0203  0.3270  0.1916
40761SOL    HW126840   2.412   9.336   2.559  1.5950  0.5312 -0.6927
40761SOL    HW226841   2.510   9.245   2.630  1.1482  0.9884  0.5244
40762SOL     OW26842   8.719   5.945   4.853  0.2424  0.0537  0.3214
40762SOL    HW126843   8.772   6.006   4.905 -0.6460  0.6747  0.5206
40762SOL    HW226844   8.779   5.913   4.786  0.3545  2.4284 -0.8353
40763SOL     OW26845   3.250   9.121  11.932 -0.4183  0.3136  0.3090
40763SOL    HW126846   3.303   9.052  11.893  1.2799  1.3722  0.6590
40763SOL    HW226847   3.232   9.090  12.021 -1.8895 -0.8074 -0.3307
40764SOL     OW26848   3.342   8.262   6.054 -0.1748  0.2948 -0.2719
40764SOL    HW126849   3.400   8.271   5.978 -0.2923  0.5632 -0.3279
40764SOL    HW226850   3.254   8.262   6.017 -0.3920  3.0552  0.0632
40765SOL     OW26851   7.665   6.451  12.057 -0.2230  0.8978 -0.3836
40765SOL    HW126852   7.605   6.514  12.017  1.6580  2.1662 -1.3040
40765SOL    HW226853   7.676   6.483  12.147 -0.3143  1.0934 -0.4419
40766SOL     OW26854   3.177   9.023   7.708 -0.1315  0.1857  0.0785
40766SOL    HW126855   3.140   9.064   7.630 -2.5026 -0.2671  0.8841
40766SOL    HW226856   3.216   9.095   7.757 -1.1328  0.9234 -0.1826
40767SOL     OW26857  12.035   0.403   6.604 -0.4472 -0.5061  0.1618
40767SOL    HW126858  12.034   0.310   6.626 -0.3417 -0.4673  0.3272
40767SOL    HW226859  12.033   0.404   6.508  0.1982 -0.6891  0.1424
40768SOL     OW26860   4.748  10.575   0.100 -0.9192 -0.2980  0.6887
40768SOL    HW126861   4.760  10.495   0.153 -0.2779  0.0517  1.0770
40768SOL    HW226862   4.678  10.623   0.145 -1.8847 -1.0080 -0.0003
40769SOL     OW26863  11.548   5.068   2.228 -0.3467  0.7318  0.1046
40769SOL    HW126864  11.487   4.995   2.235 -1.1502  1.4278  0.5525
40769SOL    HW226865  11.635   5.027   2.224 -0.6509 -0.2046  2.0558
40770SOL     OW26866   1.794   2.548  11.235 -0.5346 -0.4901  0.2316
40770SOL    HW126867   1.721   2.598  11.197  1.2290  0.7229 -1.7645
40770SOL    HW226868   1.841   2.513  11.159  2.2427  0.6618  1.3069
40771SOL     OW26869   3.475  10.273   4.935 -0.1258  0.9741  0.3579
40771SOL    HW126870   3.381  10.287   4.948 -1.2176 -2.0878 -2.7608
40771SOL    HW226871   3.503  10.348   4.882 -1.1112  1.3546  0.3581
40772SOL     OW26872   6.036   1.361   5.517  0.4426  0.4477 -0.7621
40772SOL    HW126873   6.094   1.428   5.480  0.6031  1.2195  0.7945
40772SOL    HW226874   5.954   1.373   5.470 -0.2475  3.2897  0.9480
40773SOL     OW26875   4.788  11.362   9.873  0.1641  0.1946 -0.2402
40773SOL    HW126876   4.864  11.401   9.914 -0.6375  0.4755  1.0422
40773SOL    HW226877   4.714  11.413   9.905 -0.6330 -0.5258 -0.8639
40774SOL     OW26878   3.544   4.342  10.460  0.5787  0.5236  0.3865
40774SOL    HW126879   3.527   4.303  10.374  3.2781  1.0143 -0.4546
40774SOL    HW226880   3.515   4.275  10.522  0.2903 -0.6346 -0.9394
40775SOL     OW26881   9.669   6.177   6.279 -0.2625 -0.0746  0.5450
40775SOL    HW126882   9.659   6.225   6.362 -0.6272 -0.4662  0.7343
40775SOL    HW226883   9.584   6.135   6.266  0.7607 -2.6673  1.6317
40776SOL     OW26884   4.192   1.448  10.431  0.3440 -0.0163 -0.1856
40776SOL    HW126885   4.204   1.492  10.515  2.3991  2.9958 -1.8774
40776SOL    HW226886   4.110   1.484  10.397  0.5558  0.3326 -0.3317
40777SOL     OW26887   4.696   5.593  10.165  0.0002  0.2032 -0.1910
40777SOL    HW126888   4.729   5.644  10.239 -2.3138  1.1259  0.2923
40777SOL    HW226889   4.603   5.580  10.185 -0.1985 -1.4212 -1.9079
40778SOL     OW26890  12.076   5.375  11.881 -0.3835  0.1562 -0.0960
40778SOL    HW126891  12.134   5.389  11.955  0.2095 -1.2097 -0.2764
40778SOL    HW226892  12.020   5.303  11.908  0.8199 -1.3773 -1.4975
40779SOL     OW26893  10.736   9.579   1.613  0.1352 -0.6367 -0.2156
40779SOL    HW126894  10.649   9.545   1.634  0.4404 -1.2294  0.0873
40779SOL    HW226895  10.721   9.636   1.537 -0.8732  1.0750  1.2008
40780SOL     OW26896  11.184   9.850   3.124 -0.2750  0.0281 -0.0326
40780SOL    HW126897  11.217   9.938   3.142 -0.4953  0.0936  0.0508
40780SOL    HW226898  11.185   9.807   3.209 -1.2599  0.3169  0.1346
40781SOL     OW26899   2.806   3.093   8.495 -0.8831 -0.0412 -0.2710
40781SOL    HW126900   2.815   3.015   8.551  2.6848 -0.9839 -1.8625
40781SOL    HW226901   2.787   3.058   8.408 -0.0543  0.8990 -0.8498
40782SOL     OW26902   9.995   5.161   5.479 -0.2722  0.0969 -0.1326
40782SOL    HW126903   9.996   5.066   5.495 -1.8716  0.0410 -0.1667
40782SOL    HW226904  10.083   5.181   5.447  0.2386 -1.2929  0.3234
40783SOL     OW26905  10.301   2.923  12.014 -0.2905 -0.2219 -0.1079
40783SOL    HW126906  10.241   2.930  12.088 -1.0713  0.6787 -0.8030
40783SOL    HW226907  10.293   2.832  11.985 -0.4459 -0.4100  0.5052
40784SOL     OW26908   9.816   6.320   1.559 -0.4071  0.0859  0.5024
40784SOL    HW126909   9.808   6.242   1.613 -0.4089  0.7230  1.4488
40784SOL    HW226910   9.802   6.393   1.619  0.3854  0.8475 -0.1980
40785SOL     OW26911   6.290  12.113  10.481  0.2048  0.2213  0.3789
40785SOL    HW126912   6.367  12.167  10.460  0.2773  0.2143  0.6149
40785SOL    HW226913   6.268  12.070  10.399  1.0676 -0.5505  0.5303
40786SOL     OW26914   0.277  10.151  10.143 -0.0056 -0.1328  0.0807
40786SOL    HW126915   0.372  10.146  10.128  0.0933 -0.2374  0.6926
40786SOL    HW226916   0.241  10.180  10.059  0.7759  1.9622  0.4002
40787SOL     OW26917  11.960   2.621   2.265  0.2112 -0.2340 -0.1650
40787SOL    HW126918  11.916   2.689   2.213  0.9182  0.5108  0.1753
40787SOL    HW226919  12.053   2.644   2.260  0.5033 -1.3916 -0.3316
40788SOL     OW26920   1.540   7.469  11.423 -0.1316  0.0299 -0.6370
40788SOL    HW126921   1.582   7.488  11.340 -1.7306  0.4986 -1.3900
40788SOL    HW226922   1.550   7.549  11.475 -1.0099  0.5356 -1.2273
40789SOL     OW26923   0.721   5.263   7.478 -0.1380  0.0577 -0.6068
40789SOL    HW126924   0.657   5.194   7.463 -2.0883  1.7353 -0.3863
40789SOL    HW226925   0.669   5.340   7.502  1.9062  1.7261 -1.2233
40790SOL     OW26926   4.371   7.305   7.700 -0.1645 -0.3950 -0.1249
40790SOL    HW126927   4.426   7.340   7.770  0.9541 -0.7370 -0.8060
40790SOL    HW226928   4.311   7.244   7.745 -1.6975  1.7920  0.9799
40791SOL     OW26929   1.940   6.061   9.024 -0.8462 -0.5782  0.4005
40791SOL    HW126930   1.957   5.981   8.975  2.4066 -0.1964  0.7282
40791SOL    HW226931   1.948   6.132   8.960 -0.7104 -0.3311  0.6857
40792SOL     OW26932   1.225   6.679   5.451  0.3404 -0.6109 -0.0646
40792SOL    HW126933   1.186   6.760   5.484  1.5633  0.0741 -0.2425
40792SOL    HW226934   1.187   6.668   5.364  0.1495 -0.2285 -0.0331
40793SOL     OW26935   7.411   9.573   2.786 -0.3920  0.3544 -0.2315
40793SOL    HW126936   7.446   9.588   2.874 -1.9038  1.3261  0.2462
40793SOL    HW226937   7.488   9.560   2.731  0.5964  0.1147  1.1672
40794SOL     OW26938   7.370   7.336   6.163 -0.2439 -0.1169 -0.2319
40794SOL    HW126939   7.353   7.388   6.085 -0.1962  0.2716  0.0166
40794SOL    HW226940   7.288   7.339   6.212 -0.0403  0.2616  0.0933
40795SOL     OW26941   2.622   8.011   6.083  0.4891 -0.3504  0.6232
40795SOL    HW126942   2.707   8.049   6.058  0.2199 -0.2751 -0.2068
40795SOL    HW226943   2.644   7.924   6.116  0.7918 -0.7859 -0.6813
40796SOL     OW26944   3.731   2.889  10.379 -0.6176  0.3470 -0.8978
40796SOL    HW126945   3.760   2.938  10.302 -0.1529  0.2141 -0.8113
40796SOL    HW226946   3.722   2.955  10.447  0.2445  0.2892 -0.7149
40797SOL     OW26947   9.164   6.455   5.569  0.8399  0.3599  0.4059
40797SOL    HW126948   9.245   6.464   5.520  0.5902  1.1658  0.1297
40797SOL    HW226949   9.191   6.455   5.660  1.3317 -1.3653  0.2975
40798SOL     OW26950   6.723   1.870  11.413 -0.2902 -0.2482 -0.4140
40798SOL    HW126951   6.802   1.845  11.365  0.3532  2.8306 -1.1785
40798SOL    HW226952   6.754   1.932  11.479 -1.6248 -1.9128  1.8915
40799SOL     OW26953   5.035   1.738   3.229 -0.2194  0.2091  0.0374
40799SOL    HW126954   4.995   1.653   3.246  0.1907  0.0723  0.3009
40799SOL    HW226955   4.963   1.790   3.191 -0.3367 -0.4091 -0.6097
40800SOL     OW26956   0.777   7.772   7.903 -0.4419  0.3258 -0.1169
40800SOL    HW126957   0.807   7.850   7.951 -1.0144 -0.0571  0.8981
40800SOL    HW226958   0.849   7.709   7.914 -0.5074  0.2911  0.1374
40801SOL     OW26959   8.115   6.428   3.604  0.5150 -0.0493 -0.2793
40801SOL    HW126960   8.172   6.361   3.642 -0.1671 -1.2622 -1.3164
40801SOL    HW226961   8.147   6.439   3.515 -1.0756 -1.0436 -1.0116
40802SOL     OW26962   7.517   7.519   2.705 -0.2426 -0.3325  0.2820
40802SOL    HW126963   7.552   7.561   2.627 -0.6211 -1.2055 -0.3836
40802SOL    HW226964   7.573   7.549   2.776  0.6675 -0.2123 -0.4651
40803SOL     OW26965   1.854   7.719  11.855  0.0342  0.4256  0.2340
40803SOL    HW126966   1.815   7.797  11.892 -1.1155  0.8769 -1.7646
40803SOL    HW226967   1.863   7.739  11.761 -1.9777 -2.4193 -0.7133
40804SOL     OW26968   9.352   2.882   9.218  0.0996 -0.0691 -0.1250
40804SOL    HW126969   9.393   2.903   9.135  1.9379 -2.5144  0.0575
40804SOL    HW226970   9.347   2.965   9.265 -0.1412  1.1836 -2.2809
40805SOL     OW26971   7.834  11.973   8.101 -0.4778  0.3404 -0.4849
40805SOL    HW126972   7.896  12.045   8.114 -1.3567  0.7489  1.9012
40805SOL    HW226973   7.763  12.012   8.049 -0.2259  0.7562 -0.5191
40806SOL     OW26974   1.098   5.679   7.045 -0.7178 -0.6191 -0.0581
40806SOL    HW126975   1.098   5.621   7.121  2.4649 -0.0435  0.5387
40806SOL    HW226976   1.112   5.621   6.970 -0.1968 -0.8849  0.2373
40807SOL     OW26977   4.907   2.911   2.667 -0.1633  0.2689  0.0422
40807SOL    HW126978   4.825   2.930   2.712  0.2091  1.4897  0.2222
40807SOL    HW226979   4.898   2.952   2.581 -0.3294 -0.8961 -0.5254
40808SOL     OW26980   4.289   2.775   7.893  0.3303  0.0587 -0.3833
40808SOL    HW126981   4.361   2.729   7.849  0.5696 -0.4214  0.4859
40808SOL    HW226982   4.327   2.859   7.919  0.0583  0.5338 -1.4690
40809SOL     OW26983   0.073  11.797   7.193  0.0610  0.3432  0.0992
40809SOL    HW126984   0.009  11.726   7.188  0.3785 -0.0409  1.2522
40809SOL    HW226985   0.070  11.838   7.107 -1.5212  0.1442  0.0301
40810SOL     OW26986  11.341   5.363  11.437 -0.2352  0.4454 -0.0380
40810SOL    HW126987  11.391   5.338  11.359  0.8004  0.7273  0.5133
40810SOL    HW226988  11.310   5.451  11.419  0.3294  0.6594  0.0090
40811SOL     OW26989   8.326  12.031   9.510  0.2186  0.0330 -0.0606
40811SOL    HW126990   8.260  12.090   9.475 -0.6737  0.1445  1.6834
40811SOL    HW226991   8.284  11.990   9.586  1.4539 -1.4429 -0.1117
40812SOL     OW26992   3.059   5.574   4.234 -0.7486 -0.2933 -0.0686
40812SOL    HW126993   3.122   5.646   4.234 -0.5922 -0.4110  1.0105
40812SOL    HW226994   3.071   5.531   4.150  1.1813 -0.7967  0.4214
40813SOL     OW26995  10.212   4.947   4.412  0.3088 -0.3007 -0.3032
40813SOL    HW126996  10.128   4.959   4.367  0.8306 -0.1095 -1.2701
40813SOL    HW226997  10.218   5.021   4.472  0.5289  0.6251 -1.4418
40814SOL     OW26998   0.032   5.783   0.776  0.1659 -0.3540  0.3114
40814SOL    HW126999   0.049   5.692   0.753  0.8651  0.0792 -1.0267
40814SOL    HW227000   0.004   5.781   0.867  1.4250 -1.7891  0.6993
40815SOL     OW27001   3.108   2.507   9.082 -0.0879  0.2912  0.0768
40815SOL    HW127002   3.057   2.427   9.072 -0.8770  0.9093 -1.0437
40815SOL    HW227003   3.190   2.489   9.037  0.1123 -0.1984  0.6276
40816SOL     OW27004   6.448   1.626   1.469  0.7177 -0.4612 -0.3391
40816SOL    HW127005   6.463   1.662   1.557  3.7106 -0.5247 -0.7037
40816SOL    HW227006   6.429   1.703   1.415  1.2368 -0.1140 -0.0422
40817SOL     OW27007   5.854   6.767   4.678 -0.2116 -0.0223 -0.5634
40817SOL    HW127008   5.866   6.859   4.705  0.5868 -0.0486 -0.8203
40817SOL    HW227009   5.906   6.717   4.741 -1.2039 -0.3711  0.0121
40818SOL     OW27010   5.913  10.989  10.607 -0.5444 -0.2327  0.2563
40818SOL    HW127011   5.954  10.904  10.626  0.1641 -0.0110 -0.2217
40818SOL    HW227012   5.945  11.047  10.675  1.3602  0.3648 -1.0551
40819SOL     OW27013   3.503  10.579  11.737  0.8326 -0.1374  0.3205
40819SOL    HW127014   3.577  10.603  11.793  0.5258 -0.9369  1.1010
40819SOL    HW227015   3.426  10.606  11.787  0.5870  1.7480 -0.9918
40820SOL     OW27016   7.799  11.387  10.829 -0.2344  0.4920  0.3593
40820SOL    HW127017   7.751  11.387  10.912 -0.5811  0.3245  0.1612
40820SOL    HW227018   7.842  11.301  10.826  1.5307  1.2712  1.3544
40821SOL     OW27019   2.009   6.738   3.966  0.3142 -0.2862 -0.1218
40821SOL    HW127020   2.077   6.703   4.022  0.7072  1.3670  0.4980
40821SOL    HW227021   2.052   6.808   3.916 -0.5836 -0.1654 -0.7578
40822SOL     OW27022   8.430   5.296   6.868 -0.1164 -0.4219 -0.1693
40822SOL    HW127023   8.388   5.270   6.950 -0.8007 -0.3297 -0.4874
40822SOL    HW227024   8.365   5.350   6.823  0.3046 -0.3523 -0.7113
40823SOL     OW27025  11.281   6.981   7.054 -0.0519 -0.3994  0.2550
40823SOL    HW127026  11.253   6.970   7.145 -1.0739 -0.5813 -0.0725
40823SOL    HW227027  11.270   6.895   7.015  1.1102 -0.5054  0.1422
40824SOL     OW27028   5.040   7.440   3.198  0.1440 -0.1506 -1.1532
40824SOL    HW127029   5.058   7.436   3.292 -2.9497 -1.9176 -0.4807
40824SOL    HW227030   5.049   7.533   3.176 -1.5904  0.7762  1.5634
40825SOL     OW27031   8.413   5.966   5.422  0.1757  0.2068 -0.0264
40825SOL    HW127032   8.436   5.988   5.332 -2.5609  2.1559 -0.3717
40825SOL    HW227033   8.350   5.894   5.413  1.1634 -0.7635  0.5015
40826SOL     OW27034  10.639   4.400   5.187 -0.0087 -0.3665 -0.0707
40826SOL    HW127035  10.552   4.382   5.153  0.2503 -1.2384 -0.3052
40826SOL    HW227036  10.665   4.482   5.144  0.0333 -1.0816 -1.4626
40827SOL     OW27037  10.103   4.377   1.454  0.2476 -0.0026 -0.2410
40827SOL    HW127038  10.160   4.311   1.414 -0.4455 -1.5084  1.1651
40827SOL    HW227039  10.023   4.375   1.401  0.3603 -0.0302 -0.4118
40828SOL     OW27040  11.111   0.649   0.939 -0.5039 -0.5071 -0.5737
40828SOL    HW127041  11.051   0.668   1.011 -0.9792 -1.5183 -0.6886
40828SOL    HW227042  11.118   0.731   0.891 -2.2581 -0.5267 -0.8938
40829SOL     OW27043   4.398  10.636   6.931  0.1998  0.2794  0.2121
40829SOL    HW127044   4.433  10.589   6.855  1.0224  0.4926  0.4430
40829SOL    HW227045   4.395  10.728   6.902  0.7894  0.4049  0.5150
40830SOL     OW27046   6.260   1.854  10.908 -0.1747 -0.1284 -0.8595
40830SOL    HW127047   6.238   1.939  10.870 -0.3195  1.0105  1.5979
40830SOL    HW227048   6.179   1.803  10.904 -0.2225  0.0195 -1.8842
40831SOL     OW27049  10.491   5.254   3.687 -0.1270 -0.3808  0.0464
40831SOL    HW127050  10.492   5.300   3.603 -0.9090  1.9992  1.2419
40831SOL    HW227051  10.578   5.268   3.724 -0.4637  0.4700  0.5477
40832SOL     OW27052   6.891  12.016   0.738 -0.4337 -0.0850  0.9136
40832SOL    HW127053   6.871  12.040   0.648  0.9354 -0.3492  0.5195
40832SOL    HW227054   6.983  11.990   0.737 -0.7179 -1.2910  2.1444
40833SOL     OW27055  11.955   4.006   7.746 -0.4497  0.3679 -0.0483
40833SOL    HW127056  11.994   3.954   7.676 -1.7577  0.5657 -0.9458
40833SOL    HW227057  11.906   4.075   7.701 -2.4549 -0.2991  1.0036
40834SOL     OW27058  11.536  10.465   2.846  0.3924 -0.5412  0.2468
40834SOL    HW127059  11.555  10.556   2.823  0.9582 -0.1228  2.2310
40834SOL    HW227060  11.600  10.414   2.795  0.6289  0.2156 -0.2276
40835SOL     OW27061   5.657  10.317   3.374  0.1925 -0.2069 -0.1675
40835SOL    HW127062   5.626  10.332   3.285  1.7414  1.1057 -0.5361
40835SOL    HW227063   5.674  10.404   3.410  0.6118 -0.7460  1.0304
40836SOL     OW27064  11.440   9.147   2.472  0.3617 -0.2122 -0.1970
40836SOL    HW127065  11.467   9.128   2.382  0.1657  0.5582 -0.4274
40836SOL    HW227066  11.516   9.189   2.511  0.0451  0.5249 -0.3658
40837SOL     OW27067   1.942   1.950  10.169 -0.0343 -0.2098  0.6557
40837SOL    HW127068   1.975   2.016  10.108 -0.8597 -0.0417  0.3812
40837SOL    HW227069   1.867   1.911  10.125 -1.1950  0.5158  1.8865
40838SOL     OW27070   7.980   2.278   1.233  0.1739  0.8112 -0.5512
40838SOL    HW127071   8.027   2.230   1.301  0.1248  0.4694 -0.7562
40838SOL    HW227072   7.967   2.215   1.163 -1.8400  0.4567  0.0693
40839SOL     OW27073   6.408   2.812  11.926  0.1305  0.4341  0.5620
40839SOL    HW127074   6.323   2.770  11.911  1.0563 -1.6573  0.8312
40839SOL    HW227075   6.414   2.820  12.021  0.2227  0.6323  0.5399
40840SOL     OW27076   2.897  10.936  10.261 -0.1764 -0.0414 -0.5993
40840SOL    HW127077   2.904  11.025  10.295  1.3048 -0.3439 -0.0522
40840SOL    HW227078   2.836  10.892  10.321  0.3797  0.1486  0.1074
40841SOL     OW27079   4.726   3.968   5.680 -0.2538  0.2501  0.1809
40841SOL    HW127080   4.664   4.006   5.743 -0.2640  1.6943 -0.6482
40841SOL    HW227081   4.671   3.917   5.621 -0.7281  1.6439 -0.6376
40842SOL     OW27082   8.778   6.768   1.981 -0.0983  0.0890 -0.0964
40842SOL    HW127083   8.717   6.840   1.969 -0.0610  0.0536 -0.5372
40842SOL    HW227084   8.820   6.758   1.895  0.2774 -0.1098  0.1076
40843SOL     OW27085   6.626   7.004   2.639 -0.3617  0.3245 -0.0167
40843SOL    HW127086   6.584   7.086   2.666 -0.7883  0.2380 -0.3979
40843SOL    HW227087   6.659   6.966   2.721  0.7323  1.3533  0.0419
40844SOL     OW27088   5.703   2.375   9.044 -0.1696  0.5707  0.1688
40844SOL    HW127089   5.691   2.315   9.117  0.6851  0.5833  0.3351
40844SOL    HW227090   5.652   2.453   9.068  0.1129  0.5805  0.7677
40845SOL     OW27091   5.851   6.560   6.392 -0.2769  0.2753  0.4259
40845SOL    HW127092   5.867   6.548   6.485  0.0003  1.0319  0.4812
40845SOL    HW227093   5.875   6.651   6.375  2.1660 -0.5385 -0.8876
40846SOL     OW27094   3.950  10.472   7.129 -0.3408 -0.0593  0.0962
40846SOL    HW127095   3.916  10.386   7.101  0.6090 -0.7748  1.0622
40846SOL    HW227096   4.002  10.502   7.054 -0.1642 -0.6341 -0.0218
40847SOL     OW27097  11.537  10.949   4.234 -0.4240  0.4620 -0.3457
40847SOL    HW127098  11.599  11.017   4.259 -0.0051  0.4979 -1.4060
40847SOL    HW227099  11.451  10.989   4.244 -0.1975  1.0110 -0.5818
40848SOL     OW27100   5.579   1.329   1.698 -0.3251  0.0921 -0.1520
40848SOL    HW127101   5.528   1.313   1.778 -0.1479  0.5465  0.0552
40848SOL    HW227102   5.522   1.385   1.644 -0.9362 -1.1665 -0.8679
40849SOL     OW27103   1.343  10.091   1.676 -0.2560 -0.1673 -0.0786
40849SOL    HW127104   1.286  10.166   1.693 -0.1525  0.0049 -0.4824
40849SOL    HW227105   1.284  10.015   1.675 -0.4959  0.0244 -0.6151
40850SOL     OW27106   5.803   3.919   4.602  0.2457  0.1903 -0.3508
40850SOL    HW127107   5.781   3.957   4.686 -2.1426 -2.8388  0.6004
40850SOL    HW227108   5.746   3.963   4.539 -1.3667 -0.6335  0.4685
40851SOL     OW27109   5.941   9.696   8.128  0.2271 -0.3449 -0.6529
40851SOL    HW127110   5.864   9.717   8.180  0.8789  0.2903  0.0672
40851SOL    HW227111   5.906   9.648   8.052 -0.8954  0.1821 -0.4873
40852SOL     OW27112   8.170  10.376   2.238  0.5439 -0.8538  0.0455
40852SOL    HW127113   8.191  10.288   2.208 -0.0856 -0.2926 -2.1864
40852SOL    HW227114   8.075  10.382   2.233  0.7002  0.8779 -2.8279
40853SOL     OW27115   6.895   2.951  11.636 -0.0431 -0.9604  0.2864
40853SOL    HW127116   6.871   2.860  11.622  0.4717 -1.2266  1.0791
40853SOL    HW227117   6.911   2.986  11.548 -2.5402 -0.9629 -0.2461
40854SOL     OW27118   7.067   0.770  10.155 -0.4258  0.5551 -0.1629
40854SOL    HW127119   7.111   0.749  10.073 -0.1569 -0.0691  0.1252
40854SOL    HW227120   7.119   0.841  10.193  0.8593 -0.6923  0.5480
40855SOL     OW27121  11.210   6.156   0.213 -0.5056 -0.6400  0.3967
40855SOL    HW127122  11.199   6.077   0.265  0.2260 -0.7498  0.3922
40855SOL    HW227123  11.303   6.161   0.195 -0.3697  0.8011  1.2982
40856SOL     OW27124   6.116   8.417  11.974 -0.6278 -0.7628  0.1486
40856SOL    HW127125   6.065   8.487  12.015 -0.0136 -0.8694  1.1303
40856SOL    HW227126   6.073   8.336  12.005  0.0421 -0.8509  0.8774
40857SOL     OW27127   7.106   8.927   2.631  0.0069  0.3008  0.2827
40857SOL    HW127128   7.117   9.003   2.689  0.9215  0.3328  0.0934
40857SOL    HW227129   7.067   8.963   2.551 -1.2724  0.2551  0.8701
40858SOL     OW27130  11.662   3.311   4.049  0.0236  0.0510 -0.5196
40858SOL    HW127131  11.704   3.358   4.121  0.5447 -0.5374 -0.4295
40858SOL    HW227132  11.606   3.376   4.007 -0.4841  0.3527  0.5676
40859SOL     OW27133   6.926  11.813   4.463 -0.1981 -0.0690 -0.1142
40859SOL    HW127134   6.894  11.895   4.501  0.1147 -0.0875  0.1985
40859SOL    HW227135   6.852  11.779   4.414 -0.2151  0.5983 -0.5654
40860SOL     OW27136  10.300   8.396   9.373 -0.1995 -0.2808  0.6058
40860SOL    HW127137  10.239   8.384   9.299  3.2813 -0.8354 -2.4672
40860SOL    HW227138  10.334   8.484   9.363  1.2884 -0.8109  0.6883
40861SOL     OW27139   3.706   3.523  11.857 -0.1843 -0.3201  0.2335
40861SOL    HW127140   3.654   3.444  11.865  1.3599 -1.3832  0.0924
40861SOL    HW227141   3.642   3.594  11.859 -1.8330 -1.6344 -1.7834
40862SOL     OW27142   6.360   9.923   7.093 -0.2702  0.3668  0.1492
40862SOL    HW127143   6.370   9.841   7.045 -1.2295  0.9093 -1.0406
40862SOL    HW227144   6.365   9.898   7.185  0.0956 -0.9317 -0.2075
40863SOL     OW27145  10.899   7.529   4.913  0.0281  0.0337  0.5027
40863SOL    HW127146  10.887   7.623   4.899 -1.6096  0.0530  1.7894
40863SOL    HW227147  10.949   7.500   4.836  0.0798  1.8420 -0.1962
40864SOL     OW27148   3.497   9.737   0.760 -0.5545 -0.6639 -0.0422
40864SOL    HW127149   3.467   9.823   0.790 -0.7511 -0.1944 -1.5350
40864SOL    HW227150   3.421   9.697   0.720  0.0817 -0.6242 -1.3250
40865SOL     OW27151   0.952  11.590   0.906  0.0044 -0.4358  0.1643
40865SOL    HW127152   0.905  11.667   0.874  0.1255 -0.5621 -0.3276
40865SOL    HW227153   1.044  11.618   0.912  0.1405 -0.6932 -0.5465
40866SOL     OW27154  11.826   4.027   5.094 -0.5163 -0.0405 -0.0955
40866SOL    HW127155  11.781   3.942   5.085 -0.8422  0.0341  0.7734
40866SOL    HW227156  11.910   4.006   5.134 -0.6658  0.0645  0.2755
40867SOL     OW27157   8.763   5.528   4.337  0.3175  0.5076  0.4217
40867SOL    HW127158   8.740   5.593   4.404 -0.3038  0.5942  0.1336
40867SOL    HW227159   8.840   5.483   4.372 -0.7993 -0.3922  1.8329
40868SOL     OW27160   0.771   4.443   6.250 -0.0789  0.1947  0.1403
40868SOL    HW127161   0.736   4.356   6.269 -0.7159  0.5013  0.3967
40868SOL    HW227162   0.695   4.501   6.255  0.5049  0.9163  0.9476
40869SOL     OW27163   4.578   3.565   3.364 -0.6235 -0.0847  0.2609
40869SOL    HW127164   4.519   3.549   3.290  2.1304 -5.0924 -1.3544
40869SOL    HW227165   4.538   3.517   3.437  0.5567 -2.3845 -0.4912
40870SOL     OW27166  11.124   7.679   4.609  0.4351  0.8479  0.4583
40870SOL    HW127167  11.145   7.607   4.669  0.2362  1.1739  0.9190
40870SOL    HW227168  11.051   7.724   4.650 -0.0337  0.7802 -0.2722
40871SOL     OW27169   1.513   2.096   6.201  0.6346  0.1727  0.2036
40871SOL    HW127170   1.575   2.027   6.225  0.5958  0.0301 -0.0914
40871SOL    HW227171   1.481   2.070   6.114 -1.5603 -0.9798  1.2586
40872SOL     OW27172   4.086   2.410  11.845 -0.0723 -0.0876  0.4294
40872SOL    HW127173   4.007   2.361  11.820  0.1297 -0.3076  0.2232
40872SOL    HW227174   4.086   2.486  11.787 -1.2046  0.9801  1.7565
40873SOL     OW27175   5.707   5.945   6.334 -0.0019 -0.3207 -0.4488
40873SOL    HW127176   5.684   5.962   6.426  0.5589 -1.1920 -0.1297
40873SOL    HW227177   5.791   5.989   6.322 -0.5783  0.6925 -0.8656
40874SOL     OW27178   9.000  11.784   9.902  0.2802 -0.5337  0.0754
40874SOL    HW127179   9.092  11.774   9.926  0.0560  1.4563  2.1764
40874SOL    HW227180   8.952  11.759   9.981 -0.8307  0.9154 -0.0957
40875SOL     OW27181   3.621   1.734   0.100 -0.0358  0.2388 -0.4218
40875SOL    HW127182   3.526   1.744   0.106 -0.0608  1.1191 -1.9360
40875SOL    HW227183   3.649   1.801   0.038  1.8055  1.1463  1.2891
40876SOL     OW27184   1.727   2.474  11.717  0.1841  0.0225  0.5771
40876SOL    HW127185   1.700   2.563  11.742  0.4982 -0.4145  2.6931
40876SOL    HW227186   1.809   2.487  11.668  0.3274  0.8913  1.0218
40877SOL     OW27187   0.680  10.825  10.845  0.3558 -0.5762  0.5927
40877SOL    HW127188   0.610  10.796  10.905 -0.3732  1.0348  0.5622
40877SOL    HW227189   0.665  10.918  10.834  2.1313 -0.3178  0.0293
40878SOL     OW27190   4.602  11.600   0.241  0.0686 -0.4825 -0.0494
40878SOL    HW127191   4.533  11.636   0.297  1.3239  1.9963  0.0452
40878SOL    HW227192   4.618  11.513   0.277 -0.6779  0.1828  2.0812
40879SOL     OW27193   6.520   5.518  11.401 -0.4185  0.1590  0.6280
40879SOL    HW127194   6.591   5.577  11.374  0.5749 -0.8252  1.0402
40879SOL    HW227195   6.506   5.538  11.494 -1.4974  1.1512  0.2812
40880SOL     OW27196   9.342   1.676   6.569 -0.0200  0.0534  0.4727
40880SOL    HW127197   9.379   1.588   6.572  2.1919  0.8221 -1.4241
40880SOL    HW227198   9.417   1.734   6.583 -1.0626  1.6797 -0.4061
40881SOL     OW27199   8.669  11.882   8.360  0.3708 -0.2495 -0.1762
40881SOL    HW127200   8.657  11.873   8.265  0.2015 -0.7871 -0.1092
40881SOL    HW227201   8.584  11.856   8.396  0.1000  0.9451  0.0794
40882SOL     OW27202   2.991   0.466   7.808 -0.6947  0.8595  0.2612
40882SOL    HW127203   2.906   0.470   7.764  0.3064  1.0079 -1.7915
40882SOL    HW227204   2.988   0.384   7.858 -0.9048 -0.8405 -2.3601
40883SOL     OW27205   2.665   9.657   1.546  0.0358  0.3444  0.1513
40883SOL    HW127206   2.641   9.675   1.637  1.5221 -0.7567  0.7958
40883SOL    HW227207   2.592   9.606   1.512 -0.4666  0.6423  0.7578
40884SOL     OW27208  11.524   9.375  10.504  0.1228  0.1810 -0.0907
40884SOL    HW127209  11.458   9.359  10.571  1.6506 -4.9816  0.6250
40884SOL    HW227210  11.590   9.428  10.548 -0.8369  0.4658  1.0703
40885SOL     OW27211   9.786  10.145   4.237 -0.3144  0.0220 -0.0509
40885SOL    HW127212   9.809  10.238   4.243  1.5586 -0.2922 -1.3787
40885SOL    HW227213   9.799  10.112   4.325  1.5949  0.5212 -0.1028
40886SOL     OW27214   6.774   9.899   3.553  0.2745  0.3278 -0.1138
40886SOL    HW127215   6.810   9.834   3.613 -1.6319 -0.5701  0.1070
40886SOL    HW227216   6.831   9.894   3.476  0.7584 -0.8838  0.2934
40887SOL     OW27217   3.701   1.849   5.832  0.0606  0.1065 -0.0358
40887SOL    HW127218   3.697   1.789   5.757 -0.5096 -1.3780  1.1353
40887SOL    HW227219   3.792   1.879   5.833  0.4256 -0.9342 -0.5178
40888SOL     OW27220   6.178   6.830   8.795 -0.4921 -0.2636  0.0042
40888SOL    HW127221   6.157   6.920   8.821  0.6966  0.7356 -2.2332
40888SOL    HW227222   6.103   6.804   8.741 -0.1909 -0.0733 -0.5121
40889SOL     OW27223   3.167   3.646   1.227  0.7756 -0.2269 -0.3346
40889SOL    HW127224   3.208   3.596   1.157  2.1021  0.4639 -0.0816
40889SOL    HW227225   3.141   3.580   1.291 -0.3951 -0.8585 -1.4160
40890SOL     OW27226   7.675   4.546   9.803  0.3731  0.0988  0.0999
40890SOL    HW127227   7.698   4.576   9.891 -1.3822 -0.3087  0.7307
40890SOL    HW227228   7.617   4.471   9.817  1.5346 -1.1656 -1.4372
40891SOL     OW27229   0.782   3.198   3.257 -0.0629  0.8982  0.7812
40891SOL    HW127230   0.853   3.195   3.320 -0.4246  0.8421  1.1920
40891SOL    HW227231   0.718   3.257   3.295 -1.2099 -0.7113  1.4727
40892SOL     OW27232   2.662   0.137  10.992 -0.6335  0.1428  0.2344
40892SOL    HW127233   2.583   0.183  11.022 -1.8452  0.3870 -2.8619
40892SOL    HW227234   2.729   0.205  10.986 -1.2416  0.7092 -0.4005
40893SOL     OW27235   9.012   9.679   3.218 -0.1515  0.0262 -0.0152
40893SOL    HW127236   9.037   9.753   3.163  0.4001 -0.9738 -1.1663
40893SOL    HW227237   9.089   9.622   3.219 -0.3862 -0.3181  1.2557
40894SOL     OW27238   1.413   3.448   3.631  0.2676 -0.5241  0.7454
40894SOL    HW127239   1.334   3.478   3.677  0.7829 -0.5856  1.6837
40894SOL    HW227240   1.381   3.378   3.574 -0.1842 -1.3744  1.9901
40895SOL     OW27241   1.347   3.113   1.000  0.2714 -0.2166 -0.4699
40895SOL    HW127242   1.351   3.029   1.046  2.4174 -0.8899 -1.7337
40895SOL    HW227243   1.256   3.143   1.012 -0.8138 -3.1131 -0.6882
40896SOL     OW27244   7.970   6.110   5.079  0.2747  0.4341  0.3987
40896SOL    HW127245   8.012   6.043   5.025  1.5184  1.6186 -0.1466
40896SOL    HW227246   7.947   6.180   5.018 -1.4446  0.3443  0.8840
40897SOL     OW27247   6.410  10.734   7.003 -0.0329  0.1566  0.5116
40897SOL    HW127248   6.464  10.657   7.017 -0.0392  0.3059  1.4309
40897SOL    HW227249   6.352  10.711   6.931  2.7410  0.7695 -2.1486
40898SOL     OW27250   6.847   3.974   9.468  0.6700 -0.3582 -0.3735
40898SOL    HW127251   6.838   3.906   9.402  0.9277  1.0488 -1.9309
40898SOL    HW227252   6.762   3.977   9.512  0.6749 -1.6886 -0.2307
40899SOL     OW27253   1.648  11.325   1.743  0.4205  0.4511 -0.3977
40899SOL    HW127254   1.726  11.368   1.709  0.9049 -0.1331 -0.0475
40899SOL    HW227255   1.670  11.304   1.834 -0.6984  1.6330  0.1758
40900SOL     OW27256   1.455  11.788  11.126  0.8137 -0.0504  0.4855
40900SOL    HW127257   1.425  11.805  11.216  0.4525 -0.8857  0.5324
40900SOL    HW227258   1.540  11.745  11.137  0.3078 -1.0814  0.4691
40901SOL     OW27259   2.072   7.915  10.660 -0.5997  0.1686 -0.1825
40901SOL    HW127260   2.050   7.997  10.704  0.7683  0.2021  0.4785
40901SOL    HW227261   2.116   7.942  10.579 -2.0980  0.0876 -1.0716
40902SOL     OW27262   0.284  10.342   9.571 -0.0412 -0.3642 -0.3956
40902SOL    HW127263   0.352  10.403   9.543  0.4322 -0.6040  0.2151
40902SOL    HW227264   0.218  10.346   9.502  0.2067  0.4847 -0.5927
40903SOL     OW27265   9.419   9.758   1.309  0.3883  0.2529 -0.8691
40903SOL    HW127266   9.330   9.751   1.277 -0.7883  3.5902  1.1881
40903SOL    HW227267   9.432   9.679   1.362 -2.2809  0.8188  0.7721
40904SOL     OW27268  10.185   1.726   0.545  0.0894  0.4189 -0.0592
40904SOL    HW127269  10.260   1.780   0.568  0.9680  0.1053 -2.0213
40904SOL    HW227270  10.109   1.779   0.569  0.9265  2.0521 -0.8524
40905SOL     OW27271   8.093   1.776   4.920 -0.7798 -0.1098  0.1512
40905SOL    HW127272   8.004   1.752   4.945 -1.4052  2.5716  0.7998
40905SOL    HW227273   8.113   1.853   4.973  1.2174  0.4911 -1.3425
40906SOL     OW27274  11.858  11.203  11.166 -0.1325  0.8727  0.5956
40906SOL    HW127275  11.834  11.266  11.234 -0.3765  2.8115 -1.1904
40906SOL    HW227276  11.844  11.250  11.083 -0.9799 -1.7588 -0.8754
40907SOL     OW27277   1.755   9.495   9.789 -0.2691 -0.2977 -0.7199
40907SOL    HW127278   1.693   9.544   9.735  0.0963 -1.3034 -2.1375
40907SOL    HW227279   1.833   9.486   9.733  1.5586  1.6561  1.3078
40908SOL     OW27280  10.870   8.612   7.571  0.4570  0.0163 -0.1686
40908SOL    HW127281  10.914   8.533   7.540  0.5813  0.3421 -0.8374
40908SOL    HW227282  10.781   8.583   7.593  1.3135 -0.9213  2.4278
40909SOL     OW27283   8.017  11.592   0.951  0.0307 -0.0915 -0.5654
40909SOL    HW127284   8.013  11.594   0.856  0.5503 -0.2899 -0.5983
40909SOL    HW227285   8.103  11.628   0.972  0.5455 -1.4213 -0.2559
40910SOL     OW27286   2.898   0.280   6.245 -0.4471 -0.4270  0.3650
40910SOL    HW127287   2.894   0.311   6.335 -0.6957 -0.8017  0.4852
40910SOL    HW227288   2.939   0.193   6.250  0.0855 -0.1989  0.0508
40911SOL     OW27289   4.295   2.680   9.281  0.8080  0.4651  0.3372
40911SOL    HW127290   4.322   2.749   9.340  0.7086  0.6243  0.1982
40911SOL    HW227291   4.224   2.635   9.326 -0.8549  2.0198 -0.5904
40912SOL     OW27292   8.873   2.490   4.591 -0.0052 -0.2314 -0.6541
40912SOL    HW127293   8.860   2.454   4.503 -1.7079  0.2730 -0.6509
40912SOL    HW227294   8.784   2.509   4.623  0.6904  2.7121 -0.1317
40913SOL     OW27295   0.087   7.025   1.843  0.1340  0.0782  0.2898
40913SOL    HW127296  -0.008   7.028   1.850 -0.0031 -1.9793 -0.1525
40913SOL    HW227297   0.113   6.948   1.894  1.3302 -0.7135 -1.4093
40914SOL     OW27298   4.339  10.129   6.654 -0.7738 -0.3257  0.1793
40914SOL    HW127299   4.432  10.116   6.671 -0.9131 -0.9701  0.4888
40914SOL    HW227300   4.333  10.139   6.559 -0.2235  1.2611  0.2931
40915SOL     OW27301   4.419   2.837   9.061  0.3796 -0.2081  0.6470
40915SOL    HW127302   4.384   2.794   9.139  1.2121  0.0813  1.1910
40915SOL    HW227303   4.378   2.791   8.987 -1.2498  0.1985  1.2392
40916SOL     OW27304   5.021   3.805   7.263 -0.5656  0.1151  0.7943
40916SOL    HW127305   4.937   3.849   7.264 -0.6083  0.1012 -0.5267
40916SOL    HW227306   5.002   3.715   7.292 -0.5758  0.7371  2.8758
40917SOL     OW27307   6.940   6.574   7.995  0.1820  0.7896 -0.0340
40917SOL    HW127308   7.021   6.525   7.983 -0.7785 -0.5019 -1.5613
40917SOL    HW227309   6.943   6.644   7.930  0.2434  1.0206  0.2099
40918SOL     OW27310  11.846   1.731   6.239  0.5881 -0.5241  0.3298
40918SOL    HW127311  11.922   1.731   6.180  0.1262 -0.9464 -0.2764
40918SOL    HW227312  11.824   1.639   6.249 -1.8883 -0.3338 -2.2067
40919SOL     OW27313  10.929   1.736   8.880  0.0741  0.2151  0.7419
40919SOL    HW127314  10.939   1.811   8.939  1.2590  0.5721  0.1203
40919SOL    HW227315  10.852   1.758   8.827  1.1494  1.6373 -0.3052
40920SOL     OW27316   0.012   8.203   3.162  0.2027  0.0706 -0.8630
40920SOL    HW127317  -0.039   8.264   3.109 -1.0457 -0.6770 -0.5676
40920SOL    HW227318   0.006   8.120   3.115  0.9571 -0.0892 -0.6908
40921SOL     OW27319   0.497   7.110   3.705 -0.2884 -1.2094 -0.4789
40921SOL    HW127320   0.571   7.124   3.647 -0.6147 -0.0967 -0.6430
40921SOL    HW227321   0.514   7.167   3.780 -1.4122 -0.2362 -0.9398
40922SOL     OW27322   0.347   2.802  11.010  0.0561 -0.2949  0.1541
40922SOL    HW127323   0.405   2.828  11.082  0.2882 -0.3318 -0.0169
40922SOL    HW227324   0.288   2.876  10.999  0.4715  0.0119 -0.0762
40923SOL     OW27325   4.778   4.938   9.227 -0.5174  0.3905 -0.3729
40923SOL    HW127326   4.764   5.026   9.194  0.5874  0.6776 -0.1179
40923SOL    HW227327   4.802   4.950   9.319  0.7637 -0.0742 -0.6292
40924SOL     OW27328   9.586   8.080  10.161  0.0880  0.2945  0.0653
40924SOL    HW127329   9.668   8.069  10.211  0.2082 -0.0779 -0.2034
40924SOL    HW227330   9.539   8.149  10.207  0.0618 -0.2417  0.8864
40925SOL     OW27331   4.001  11.628   0.831  0.0160  0.1314  0.5283
40925SOL    HW127332   4.016  11.536   0.807  1.7519  0.5263 -0.0705
40925SOL    HW227333   3.992  11.627   0.926 -2.3226 -0.9082  0.3592
40926SOL     OW27334   4.311   4.127   9.379 -0.5669 -0.0277 -0.1702
40926SOL    HW127335   4.395   4.147   9.420 -0.4603  0.4994 -0.6384
40926SOL    HW227336   4.275   4.213   9.354 -2.5420  0.0480  2.5135
40927SOL     OW27337   1.396   8.182   4.591 -0.1289 -0.0449 -0.1552
40927SOL    HW127338   1.462   8.217   4.650 -0.1835 -0.3964  0.1163
40927SOL    HW227339   1.313   8.214   4.626 -0.2859 -1.4242  0.8112
40928SOL     OW27340   5.738   7.659  11.245 -0.7592 -0.5520 -0.7186
40928SOL    HW127341   5.799   7.657  11.319  0.2666 -1.1615 -1.5611
40928SOL    HW227342   5.653   7.678  11.285 -0.4361 -1.9718  0.7684
40929SOL     OW27343   0.922   0.562   8.174 -0.2051 -0.3076 -0.3920
40929SOL    HW127344   0.915   0.485   8.230  0.6426  0.5077  0.8842
40929SOL    HW227345   1.002   0.549   8.125 -0.2198 -0.3799 -0.3974
40930SOL     OW27346   1.894   6.605   8.290 -0.1505 -0.1711 -0.4289
40930SOL    HW127347   1.916   6.544   8.360  0.6611  1.9581  1.2909
40930SOL    HW227348   1.978   6.639   8.260 -0.4632 -1.1777 -2.6634
40931SOL     OW27349   3.011   1.921   1.943  0.4891  0.1686  0.0581
40931SOL    HW127350   2.960   1.977   2.002  1.7252  2.2903 -0.7610
40931SOL    HW227351   3.074   1.981   1.903 -0.1385 -1.2149 -3.2822
40932SOL     OW27352  10.362   5.780   0.939  0.1714  0.1849 -0.4426
40932SOL    HW127353  10.357   5.772   0.844 -2.6697  0.8753 -0.4630
40932SOL    HW227354  10.355   5.874   0.957 -1.4972 -0.0462  0.4151
40933SOL     OW27355   8.994   1.237   4.181 -0.3325 -1.2790  0.8121
40933SOL    HW127356   9.053   1.183   4.128 -0.3372 -0.2329 -0.3138
40933SOL    HW227357   8.923   1.261   4.121  1.0962  2.3393  0.2971
40934SOL     OW27358   4.920   3.451   9.775  0.3693  0.1554  0.2893
40934SOL    HW127359   4.874   3.508   9.714 -1.0121 -0.2929  0.8817
40934SOL    HW227360   5.010   3.450   9.743 -0.2098  0.3228 -1.4460
40935SOL     OW27361   3.687   7.185   2.192 -0.2284 -0.1762 -0.3869
40935SOL    HW127362   3.660   7.126   2.263 -1.4863  0.3720 -0.3762
40935SOL    HW227363   3.770   7.221   2.221 -1.1166  0.6734  1.2278
40936SOL     OW27364  11.972   9.220   8.928 -0.1851  0.1064 -0.5589
40936SOL    HW127365  12.061   9.244   8.955 -1.3334  1.7901  2.0766
40936SOL    HW227366  11.972   9.124   8.930  1.0833  0.0779  1.3465
40937SOL     OW27367   0.234   0.083   2.778  0.4859 -0.0006  0.5252
40937SOL    HW127368   0.322   0.047   2.765  0.6907  0.2804  1.0760
40937SOL    HW227369   0.216   0.131   2.697  0.2687 -1.1912 -0.1582
40938SOL     OW27370   2.361  10.992  10.734 -0.2501  0.0575 -0.0205
40938SOL    HW127371   2.306  10.994  10.655 -0.8094  2.9615  0.3271
40938SOL    HW227372   2.299  10.983  10.806  0.0220  0.1141  0.2210
40939SOL     OW27373   2.375   7.229   7.868 -0.0038  0.3437  0.4546
40939SOL    HW127374   2.296   7.177   7.878  0.1402  0.1790  0.7677
40939SOL    HW227375   2.348   7.318   7.890 -0.1582  0.3301  0.3199
40940SOL     OW27376   8.950   3.373  10.897  0.0405  0.2509 -0.5845
40940SOL    HW127377   8.879   3.413  10.946 -0.2391 -0.8325 -0.0834
40940SOL    HW227378   8.942   3.409  10.808 -0.6354  0.7274 -0.3347
40941SOL     OW27379   8.727   4.300   4.527  0.3920  0.3992 -0.8343
40941SOL    HW127380   8.658   4.267   4.585  0.7886 -0.2178 -0.6925
40941SOL    HW227381   8.709   4.259   4.443 -2.0606  3.7313 -2.1357
40942SOL     OW27382   8.898   7.519   5.919  0.0571 -0.5520 -0.1064
40942SOL    HW127383   8.927   7.594   5.868  3.1317 -1.2405  0.4279
40942SOL    HW227384   8.979   7.474   5.944 -1.2598 -0.9333  4.3650
40943SOL     OW27385   1.208   9.787   3.078  0.0034 -0.1986 -0.0301
40943SOL    HW127386   1.187   9.722   3.145  1.3116  0.0684  0.6798
40943SOL    HW227387   1.268   9.847   3.121 -0.7889  1.2176 -0.8277
40944SOL     OW27388   6.065   9.199   4.938  0.1504  0.2385  0.3992
40944SOL    HW127389   6.074   9.119   4.887  0.1878 -0.4616  1.4782
40944SOL    HW227390   6.015   9.258   4.881 -1.0356 -1.0138  0.0759
40945SOL     OW27391   3.340   4.269   2.784 -0.6837  0.6198 -0.3003
40945SOL    HW127392   3.309   4.271   2.875  1.1464  3.6324  0.3605
40945SOL    HW227393   3.264   4.295   2.732 -1.4131  0.0392  0.4499
40946SOL     OW27394   1.618   6.780   8.966  0.0391  0.1739  0.0287
40946SOL    HW127395   1.564   6.718   8.917 -2.0374  2.0078 -0.1585
40946SOL    HW227396   1.673   6.725   9.022 -0.7245 -1.8381 -1.0963
40947SOL     OW27397   4.052   2.748   1.963  0.4558 -0.5543  0.2232
40947SOL    HW127398   3.996   2.819   1.994  1.6477  1.0804 -1.1852
40947SOL    HW227399   4.002   2.708   1.891  0.5370  0.0875 -0.2012
40948SOL     OW27400   0.298  12.063   8.595  0.1413  0.6172 -0.2762
40948SOL    HW127401   0.341  12.058   8.681 -0.5286 -1.3247 -0.0171
40948SOL    HW227402   0.336  12.141   8.554  2.6104 -0.0164  0.6296
40949SOL     OW27403  11.838  10.038  11.821 -0.0892 -0.3560 -0.4687
40949SOL    HW127404  11.929  10.009  11.832 -0.0834 -0.3465 -0.4900
40949SOL    HW227405  11.806  10.050  11.910  0.7327  2.1963 -0.4397
40950SOL     OW27406   0.558   7.033   3.336 -0.0862  0.2122  0.9275
40950SOL    HW127407   0.647   6.998   3.333 -0.2317 -0.1611 -1.3667
40950SOL    HW227408   0.569   7.126   3.356  0.7310 -0.0422  1.6951
40951SOL     OW27409  12.087   1.287   7.519  0.0551  0.4155  0.4282
40951SOL    HW127410  12.091   1.200   7.560  1.6944 -0.2172 -0.9200
40951SOL    HW227411  12.010   1.283   7.462  0.3667 -0.3434  0.0392
40952SOL     OW27412   6.055   7.974   4.653 -0.4601 -0.7204 -0.1436
40952SOL    HW127413   5.992   8.008   4.717 -0.7764 -0.7497 -0.4398
40952SOL    HW227414   6.011   7.898   4.614  0.5345 -1.9873  1.0856
40953SOL     OW27415   4.489   8.122   1.037  0.4023  0.0908 -0.7942
40953SOL    HW127416   4.529   8.206   1.016 -1.3045  1.1379 -0.1352
40953SOL    HW227417   4.440   8.099   0.958  1.3603 -0.6147 -1.1952
40954SOL     OW27418   7.777   0.973   5.454  0.0765  0.5543  0.1558
40954SOL    HW127419   7.716   0.903   5.431 -0.7640  0.5859  2.0619
40954SOL    HW227420   7.840   0.931   5.512  0.3435  1.0901  0.2613
40955SOL     OW27421   5.512   5.694   7.438 -0.3245 -0.4403 -0.4139
40955SOL    HW127422   5.541   5.680   7.347 -0.5108 -0.6146 -0.4473
40955SOL    HW227423   5.425   5.731   7.430  0.0390  0.4528 -0.3169
40956SOL     OW27424   7.464   8.154   0.660  0.1839  1.1844  0.0140
40956SOL    HW127425   7.409   8.204   0.600 -0.1979  0.7197 -0.0356
40956SOL    HW227426   7.442   8.187   0.747 -3.1673 -1.5967  0.4532
40957SOL     OW27427   1.458   2.016   9.244  0.6579  0.6066 -0.7030
40957SOL    HW127428   1.368   2.040   9.224 -0.7431 -4.0028 -1.1726
40957SOL    HW227429   1.454   1.979   9.333  2.1968  0.6726 -0.5727
40958SOL     OW27430   7.088   2.158  10.726  0.1639  0.9185  0.2694
40958SOL    HW127431   7.025   2.118  10.667  0.7806  1.8796 -1.1017
40958SOL    HW227432   7.043   2.235  10.760  0.1151  0.8447  0.3726
40959SOL     OW27433   4.672   7.069  10.773  0.2062 -0.3007 -0.4181
40959SOL    HW127434   4.619   7.096  10.698 -1.7078  0.2402  1.0673
40959SOL    HW227435   4.762   7.074  10.741 -0.5322 -0.0273 -2.6445
40960SOL     OW27436   8.450   6.004   2.586 -0.5502  0.0233  1.0276
40960SOL    HW127437   8.401   6.049   2.654 -1.9070  1.0505 -0.5354
40960SOL    HW227438   8.404   5.921   2.573  0.3632 -0.6729  2.0728
40961SOL     OW27439   3.083   4.285   6.831 -0.3743 -0.5311  0.0904
40961SOL    HW127440   3.074   4.275   6.925 -1.6838  0.9297  0.1734
40961SOL    HW227441   3.034   4.365   6.811 -0.2011 -0.8558 -1.8376
40962SOL     OW27442   9.254   1.232   7.626  0.0944 -0.1590  0.5083
40962SOL    HW127443   9.334   1.281   7.645 -1.1167  2.2241 -0.1571
40962SOL    HW227444   9.233   1.186   7.707  1.6867 -0.1913  0.9253
40963SOL     OW27445   2.812   9.853   2.778  0.3859 -0.2089 -0.6064
40963SOL    HW127446   2.807   9.763   2.808 -3.1022  0.3186  0.9513
40963SOL    HW227447   2.831   9.904   2.857 -4.7861  0.8377  0.3647
40964SOL     OW27448  10.547   8.457   4.905  0.0894  0.0581  0.0876
40964SOL    HW127449  10.564   8.551   4.912 -1.6498  0.3990  0.1511
40964SOL    HW227450  10.620   8.416   4.951  1.2782  1.3307 -0.5948
40965SOL     OW27451   3.648  11.378   7.039  0.5564 -0.5353 -0.3920
40965SOL    HW127452   3.553  11.388   7.052  0.8120 -0.0900  1.2663
40965SOL    HW227453   3.664  11.420   6.954 -0.6982 -0.4524 -0.6169
40966SOL     OW27454   1.520   4.659   6.704 -0.0977 -0.3462 -0.2202
40966SOL    HW127455   1.507   4.567   6.681 -1.8780 -0.3362  0.5665
40966SOL    HW227456   1.539   4.702   6.620 -0.5887 -1.2148 -0.7939
40967SOL     OW27457   1.214   7.917   1.872 -0.1840 -0.3783  0.0344
40967SOL    HW127458   1.153   7.937   1.801 -0.1336  1.9611  0.5631
40967SOL    HW227459   1.259   7.837   1.844 -2.4016 -1.3217 -1.0478
40968SOL     OW27460   7.380   7.429   4.870  0.0399  0.4880 -0.5801
40968SOL    HW127461   7.373   7.474   4.954 -1.7432 -1.8755  0.6792
40968SOL    HW227462   7.470   7.398   4.866  0.3570  1.2938  0.0828
40969SOL     OW27463  11.698   8.652   6.999 -0.6067 -0.3287 -0.0513
40969SOL    HW127464  11.608   8.634   7.027 -0.2058 -1.1757  0.7833
40969SOL    HW227465  11.731   8.567   6.968 -0.2650  0.0897 -0.8715
40970SOL     OW27466   1.485   4.518   4.475  0.4165  0.2493  0.2466
40970SOL    HW127467   1.416   4.524   4.409  2.3179 -0.0555 -1.8594
40970SOL    HW227468   1.438   4.495   4.556 -2.0499  1.1269 -0.8305
40971SOL     OW27469   5.428   3.649   5.701 -0.0438  0.2558  0.3351
40971SOL    HW127470   5.496   3.696   5.750  1.0974 -0.0998 -0.8280
40971SOL    HW227471   5.365   3.717   5.676 -0.5039  0.4915  1.9853
40972SOL     OW27472   0.095   9.566   8.551 -0.2511  0.0602 -0.2104
40972SOL    HW127473   0.171   9.508   8.544  0.7256  1.3660 -0.8128
40972SOL    HW227474   0.029   9.526   8.495  0.2735 -0.6389 -0.3479
40973SOL     OW27475   3.017   2.374   9.907  0.6005 -0.6947  0.3451
40973SOL    HW127476   3.058   2.287   9.908 -1.0340 -1.5290 -0.3157
40973SOL    HW227477   2.963   2.373   9.828  0.1070  0.7184  0.6443
40974SOL     OW27478   2.773  12.035   6.975 -0.0386  0.6393 -0.0231
40974SOL    HW127479   2.788  12.076   7.060 -3.4859  2.0070  0.0665
40974SOL    HW227480   2.678  12.032   6.966  0.1843 -1.2953 -3.0004
40975SOL     OW27481  10.667   3.204   8.347  0.0724 -0.1808 -0.2589
40975SOL    HW127482  10.692   3.121   8.306 -0.7703 -0.0892 -0.9983
40975SOL    HW227483  10.584   3.227   8.305 -0.0488  0.6909  0.4351
40976SOL     OW27484   5.912  10.412  10.210  0.0729 -0.3513 -0.2073
40976SOL    HW127485   5.835  10.367  10.175  0.1409 -0.2120 -0.5396
40976SOL    HW227486   5.879  10.496  10.241  0.0754 -0.3313 -0.2599
40977SOL     OW27487   3.197   0.864   5.532 -0.6577  0.1738  0.3340
40977SOL    HW127488   3.284   0.894   5.506 -0.5576 -0.4632 -0.0980
40977SOL    HW227489   3.162   0.934   5.586 -1.2998  2.1290 -2.4008
40978SOL     OW27490   8.919   2.752   4.680 -0.0650 -0.7055  0.5628
40978SOL    HW127491   8.901   2.663   4.650  1.6178 -0.6629 -0.7449
40978SOL    HW227492   8.996   2.778   4.631  0.4385  0.9020  2.1106
40979SOL     OW27493   7.524   9.446   9.227 -0.3137 -0.1749 -0.3175
40979SOL    HW127494   7.497   9.378   9.288 -0.3752 -0.7237 -0.9478
40979SOL    HW227495   7.534   9.524   9.281 -1.1247 -0.4606  0.2667
40980SOL     OW27496   1.217   0.076   7.381 -0.4531 -0.7786 -0.6603
40980SOL    HW127497   1.283   0.091   7.313 -1.1394 -1.5052 -1.5091
40980SOL    HW227498   1.263   0.095   7.463  0.7306 -0.9867 -1.2474
40981SOL     OW27499   3.565   0.991   3.632 -0.3063  0.0083 -0.1693
40981SOL    HW127500   3.478   0.958   3.653 -0.7473  0.5848 -1.0169
40981SOL    HW227501   3.549   1.075   3.587  0.5542 -0.9072 -2.3627
40982SOL     OW27502   9.212   0.399  10.433  0.2779  0.2407  0.0405
40982SOL    HW127503   9.142   0.380  10.495 -1.2265  0.5306 -1.5185
40982SOL    HW227504   9.292   0.390  10.485 -0.9177  0.9782  2.1442
40983SOL     OW27505   9.156   3.012   3.569 -0.5195 -0.3088 -0.5078
40983SOL    HW127506   9.117   3.079   3.624  0.1225  1.6475 -2.3141
40983SOL    HW227507   9.170   2.937   3.627 -1.9601  0.8379  1.3890
40984SOL     OW27508   7.105   0.890   0.423  0.0950  0.0995  0.0388
40984SOL    HW127509   7.130   0.980   0.403  1.6349 -0.0220  1.1847
40984SOL    HW227510   7.170   0.837   0.377  0.7409 -0.3185  1.3918
40985SOL     OW27511   1.971   1.764   3.923  0.1407  0.2919 -0.1325
40985SOL    HW127512   2.023   1.843   3.915  0.8950 -0.2960 -1.2929
40985SOL    HW227513   2.009   1.718   3.998  1.1028  0.0359 -0.7520
40986SOL     OW27514   1.290   8.247   3.810 -0.3023 -0.3385  0.5265
40986SOL    HW127515   1.306   8.273   3.719 -1.5889 -0.7464  0.1646
40986SOL    HW227516   1.358   8.293   3.860  2.5046 -2.5509 -0.9472
40987SOL     OW27517   5.565   4.359   7.888 -0.4240  0.0794  0.3601
40987SOL    HW127518   5.505   4.362   7.813  0.9590  0.7365 -0.7662
40987SOL    HW227519   5.607   4.273   7.881  0.9616  0.8109 -0.6719
40988SOL     OW27520   6.609   5.619   4.950  0.1121 -0.6943  0.3289
40988SOL    HW127521   6.582   5.656   4.866 -1.0441 -1.3329  0.3965
40988SOL    HW227522   6.558   5.667   5.015  1.2627  0.0394  0.7154
40989SOL     OW27523   7.303   2.736   1.344 -0.6618 -0.0729 -0.0320
40989SOL    HW127524   7.237   2.677   1.307  0.8298 -2.3828  0.7036
40989SOL    HW227525   7.302   2.717   1.438 -0.1744  1.1566  0.2445
40990SOL     OW27526  10.037   6.020   7.180  0.4529  0.1544  0.7028
40990SOL    HW127527  10.021   6.084   7.110 -0.0706 -0.4800  0.2402
40990SOL    HW227528  10.130   6.030   7.201  0.7374 -0.0107 -0.4424
40991SOL     OW27529  12.059   8.801   4.569  0.1111 -0.7284  0.3004
40991SOL    HW127530  12.096   8.717   4.542 -1.2337 -1.8470  1.7466
40991SOL    HW227531  12.078   8.805   4.663 -0.6634  0.1559  0.4272
40992SOL     OW27532   6.265   5.627   3.165 -0.3611 -0.2354 -0.2280
40992SOL    HW127533   6.290   5.592   3.079  2.2626 -1.0611  0.7584
40992SOL    HW227534   6.317   5.706   3.174  0.4177 -0.8643  1.0988
40993SOL     OW27535   6.868  11.019   5.473 -0.2730 -0.3527  0.1434
40993SOL    HW127536   6.961  11.009   5.454  0.0238  2.7086 -0.5505
40993SOL    HW227537   6.865  11.056   5.561 -0.4163  3.4255 -1.2457
40994SOL     OW27538   4.067   9.062  10.209 -0.3399  0.2367 -0.2567
40994SOL    HW127539   4.121   9.000  10.160  0.3800  0.9564 -0.4033
40994SOL    HW227540   3.993   9.079  10.151 -0.7493 -0.7760 -0.0469
40995SOL     OW27541   5.900   9.391   3.990  0.2632 -0.7814  0.0462
40995SOL    HW127542   5.874   9.481   3.971  0.8891 -0.4990  0.4942
40995SOL    HW227543   5.821   9.339   3.972 -0.4509 -0.0116  0.8580
40996SOL     OW27544   7.955   7.641  11.875 -0.6017 -0.8746  0.2692
40996SOL    HW127545   7.935   7.574  11.941  0.7726 -0.6397  0.9699
40996SOL    HW227546   8.043   7.671  11.898 -0.8088  0.4897 -0.6234
40997SOL     OW27547   3.502   0.715   9.213  0.0167 -0.6348 -0.0910
40997SOL    HW127548   3.495   0.773   9.289 -0.4975  1.3806 -1.6003
40997SOL    HW227549   3.589   0.733   9.177 -0.4541 -0.1661 -1.0314
40998SOL     OW27550  10.529   4.391   6.684 -0.3837  0.9432  0.3427
40998SOL    HW127551  10.488   4.377   6.769 -0.0695 -2.2585  0.0817
40998SOL    HW227552  10.460   4.373   6.620  0.6650 -2.3668 -0.0595
40999SOL     OW27553   4.273   4.842   6.570 -0.6524  0.1706 -0.4407
40999SOL    HW127554   4.349   4.835   6.512 -0.1710 -0.7334  0.2706
40999SOL    HW227555   4.207   4.888   6.517  0.8348  2.3021 -0.5947
41000SOL     OW27556  10.479   0.862  11.228 -0.0607 -0.6092 -0.4341
41000SOL    HW127557  10.423   0.882  11.152 -0.2435  1.2963  0.1526
41000SOL    HW227558  10.477   0.766  11.234 -1.7430 -0.6955 -1.5682
41001SOL     OW27559   4.101   8.940   5.110 -0.1797  0.4520  0.5058
41001SOL    HW127560   4.059   8.856   5.091  0.8103  0.3064 -1.2549
41001SOL    HW227561   4.194   8.923   5.100  0.3729  0.9189  3.7793
41002SOL     OW27562   5.960   9.541   0.290  0.9628 -0.0895 -1.1752
41002SOL    HW127563   5.945   9.453   0.324  2.2821 -0.2846 -1.0531
41002SOL    HW227564   5.880   9.589   0.312  1.5989 -0.2768  1.9972
41003SOL     OW27565   0.699   9.903   6.267 -0.0426  0.2648 -0.8248
41003SOL    HW127566   0.609   9.896   6.234 -0.0426  0.1912 -0.8097
41003SOL    HW227567   0.717   9.818   6.307  0.0924  0.2221 -0.9754
41004SOL     OW27568   8.762   6.794   0.430  0.0943  0.1280 -0.0859
41004SOL    HW127569   8.691   6.836   0.478 -0.2653 -1.3835  0.7602
41004SOL    HW227570   8.720   6.757   0.352 -0.3131 -1.6974  0.9445
41005SOL     OW27571   5.929   0.763  10.231  0.3644 -0.5396 -0.0891
41005SOL    HW127572   5.902   0.835  10.173  1.8402 -0.6843 -0.9976
41005SOL    HW227573   5.918   0.684  10.178  0.0839 -0.8575  0.4311
41006SOL     OW27574  10.298   4.857   0.394  0.4304  0.3595 -0.7539
41006SOL    HW127575  10.264   4.944   0.415  1.5621  0.8149 -0.7329
41006SOL    HW227576  10.229   4.818   0.339 -1.3280  0.1809  1.4355
41007SOL     OW27577   1.720   9.360   9.209 -0.0850  0.2639  0.5325
41007SOL    HW127578   1.767   9.440   9.231 -0.4685  0.1246  1.9028
41007SOL    HW227579   1.635   9.390   9.176  0.0225  0.4405  0.4183
41008SOL     OW27580   2.059  11.516   8.939  0.3486 -0.5938 -0.3490
41008SOL    HW127581   2.058  11.574   9.015  1.3971 -1.6068  0.4829
41008SOL    HW227582   1.972  11.477   8.937  0.5834 -1.2289  0.8965
41009SOL     OW27583   8.911   7.954   1.957 -0.9886  0.2067  0.4199
41009SOL    HW127584   8.931   7.943   2.051 -1.5637  0.7274  0.6095
41009SOL    HW227585   8.988   7.918   1.912 -1.0379 -0.7394  1.0761
41010SOL     OW27586  11.159   1.072   1.136 -0.1968 -0.1060 -0.2401
41010SOL    HW127587  11.208   1.153   1.124  1.0370 -0.7297  0.3980
41010SOL    HW227588  11.072   1.101   1.164 -0.8053  1.0843 -3.0339
41011SOL     OW27589   9.661   1.101   5.255  0.2055 -0.0690  0.3941
41011SOL    HW127590   9.659   1.118   5.161  0.1607 -1.7545  0.0584
41011SOL    HW227591   9.729   1.159   5.289 -0.2341  1.0367 -0.5602
41012SOL     OW27592   8.376   0.284  12.013  0.7778 -0.0578  0.2557
41012SOL    HW127593   8.292   0.308  12.051  1.5323 -0.4582  2.2845
41012SOL    HW227594   8.440   0.340  12.057  1.6371  0.0028 -1.0068
41013SOL     OW27595   7.537   5.737   4.311  0.1833  0.3760  0.0266
41013SOL    HW127596   7.603   5.671   4.332  0.1117  0.6828  1.3024
41013SOL    HW227597   7.532   5.736   4.216  0.1315 -1.4915  0.0106
41014SOL     OW27598   0.802   2.026   4.827  0.2170  0.6719 -0.0700
41014SOL    HW127599   0.768   1.937   4.813  0.5075  0.3829  1.0004
41014SOL    HW227600   0.893   2.013   4.856 -0.2044  1.2322  1.6052
41015SOL     OW27601   7.239   8.828  10.280  0.1234 -0.5484 -0.1849
41015SOL    HW127602   7.228   8.748  10.331 -2.7063  0.3362  0.7772
41015SOL    HW227603   7.159   8.834  10.227  1.8003 -0.0658 -2.8727
41016SOL     OW27604   7.471   8.309  10.698 -0.0312 -0.0885  0.3312
41016SOL    HW127605   7.511   8.386  10.740  0.5022  0.7832 -1.6797
41016SOL    HW227606   7.395   8.290  10.752  0.0161  1.6473  1.0892
41017SOL     OW27607   7.297   7.185   8.873 -0.8062  0.1417 -0.1705
41017SOL    HW127608   7.278   7.106   8.823  0.5131 -0.4912  0.2907
41017SOL    HW227609   7.351   7.239   8.815 -0.5835  0.0968 -0.0109
41018SOL     OW27610   8.772   7.876   8.129  0.3371 -0.7456  0.2102
41018SOL    HW127611   8.760   7.800   8.186  2.4309 -0.1949  1.4815
41018SOL    HW227612   8.856   7.861   8.085  1.6037  1.4638  1.6701
41019SOL     OW27613   2.504   1.838   7.942  0.8995 -0.4945 -0.3603
41019SOL    HW127614   2.417   1.809   7.969  0.3764  0.6273 -0.7729
41019SOL    HW227615   2.563   1.770   7.975  0.4977  1.1616  4.5879
41020SOL     OW27616   4.666   1.474   7.551  0.7026 -0.0420  0.2906
41020SOL    HW127617   4.698   1.548   7.500  0.2484 -0.1271 -0.1197
41020SOL    HW227618   4.572   1.474   7.538  0.3588  0.8336  2.3434
41021SOL     OW27619  11.705   1.545   4.202  0.5034  0.0380 -0.2368
41021SOL    HW127620  11.717   1.455   4.232  0.5896  0.0301 -0.2922
41021SOL    HW227621  11.728   1.542   4.109  0.4322  0.1014 -0.2571
41022SOL     OW27622   8.684   6.755   5.225  0.6353 -0.3673  0.2900
41022SOL    HW127623   8.589   6.742   5.216  0.5844 -0.0654  0.3720
41022SOL    HW227624   8.705   6.721   5.311  0.4158  0.5506  0.7176
41023SOL     OW27625   0.876   2.025  11.405  0.0702  0.0265  0.1404
41023SOL    HW127626   0.964   1.999  11.429  0.1969 -0.0765 -0.4146
41023SOL    HW227627   0.829   2.033  11.488 -0.0631 -2.2785  0.3556
41024SOL     OW27628   7.302   7.641   5.571 -0.0860 -0.6364 -0.4494
41024SOL    HW127629   7.357   7.566   5.594  0.7664  0.1668  0.2831
41024SOL    HW227630   7.214   7.606   5.561 -0.1758 -1.4057  2.2357
41025SOL     OW27631   8.534  10.936   5.689 -0.3433 -0.4261 -0.0003
41025SOL    HW127632   8.497  10.958   5.603  0.4706 -1.8109 -0.7394
41025SOL    HW227633   8.476  10.868   5.723 -0.5297 -0.0447  0.4561
41026SOL     OW27634   6.072   8.105   7.050  0.5658  0.2512  0.2518
41026SOL    HW127635   6.075   8.111   6.954 -0.6327  0.9592  0.2399
41026SOL    HW227636   6.152   8.058   7.073  0.7431 -0.1851 -1.1184
41027SOL     OW27637   7.954  12.094   7.484 -0.2207  0.4089 -0.4363
41027SOL    HW127638   7.926  12.038   7.413  0.1916  0.4305 -0.6176
41027SOL    HW227639   8.049  12.082   7.489  0.1317  2.3652 -1.5903
41028SOL     OW27640   3.528  10.812   9.743 -0.1703 -0.2833  0.1193
41028SOL    HW127641   3.451  10.756   9.741  0.1785 -0.7648 -0.2819
41028SOL    HW227642   3.503  10.889   9.691 -0.9841  0.4102  1.4829
41029SOL     OW27643   8.479   2.785   0.317  0.3772  0.6457 -0.2110
41029SOL    HW127644   8.447   2.710   0.267  0.7176  0.4535 -0.1446
41029SOL    HW227645   8.502   2.749   0.402 -0.3572  1.0022  0.1495
41030SOL     OW27646   8.983   9.401   4.466 -0.3810 -0.2246  0.2843
41030SOL    HW127647   9.059   9.351   4.496 -0.7186 -1.9571 -1.5643
41030SOL    HW227648   9.007   9.432   4.379 -0.8910  1.3701  0.6743
41031SOL     OW27649   6.825   4.721  11.507  1.1472  0.2433 -0.0816
41031SOL    HW127650   6.920   4.712  11.511  1.1720  0.7591  0.7373
41031SOL    HW227651   6.798   4.739  11.597  0.2846  0.2616 -0.3271
41032SOL     OW27652  10.089   3.646   0.857 -0.4403 -0.4238 -0.2004
41032SOL    HW127653  10.066   3.725   0.908 -0.0513 -0.3440 -0.1490
41032SOL    HW227654  10.024   3.643   0.787  0.3618  0.7187 -1.0359
41033SOL     OW27655   8.285   0.015   5.134 -0.1120 -0.5393 -0.3128
41033SOL    HW127656   8.362   0.057   5.171 -0.0069  0.2841 -1.3962
41033SOL    HW227657   8.212   0.048   5.186  0.1744 -0.6236  0.1460
41034SOL     OW27658   9.336   0.625   4.768  0.2613  0.3392  0.6979
41034SOL    HW127659   9.374   0.690   4.826 -0.4190  1.1596  0.2439
41034SOL    HW227660   9.406   0.604   4.705  0.3535  0.9423  0.5953
41035SOL     OW27661  10.350  11.526   2.893  0.1228  0.1848  0.1002
41035SOL    HW127662  10.338  11.451   2.950  3.3104 -0.5615 -0.0137
41035SOL    HW227663  10.431  11.568   2.924  0.2776  1.5804 -1.9083
41036SOL     OW27664   0.940   7.092   0.884 -0.3125 -0.0239  0.1335
41036SOL    HW127665   0.867   7.153   0.871 -0.7864 -0.9863 -2.4360
41036SOL    HW227666   1.019   7.144   0.868 -0.6019  0.4343  0.2127
41037SOL     OW27667   0.444   4.862   3.824 -0.7026 -0.1326 -0.9970
41037SOL    HW127668   0.392   4.942   3.831 -0.4883  0.0474 -1.4013
41037SOL    HW227669   0.455   4.832   3.914  0.4484  1.0912 -0.6954
41038SOL     OW27670   9.557   2.703   2.150 -0.2277 -0.5639 -0.0592
41038SOL    HW127671   9.630   2.683   2.092  2.8927  0.9148  3.0271
41038SOL    HW227672   9.516   2.618   2.167  0.1730 -1.3286 -2.4362
41039SOL     OW27673  10.438   8.000   0.544  0.7611  0.0826 -0.3273
41039SOL    HW127674  10.518   7.949   0.530 -1.1902 -3.7835  1.0568
41039SOL    HW227675  10.390   7.991   0.461 -0.6477 -2.7673  0.6491
41040SOL     OW27676  10.230   8.319  11.718 -0.1416 -0.2101 -0.5042
41040SOL    HW127677  10.168   8.325  11.645 -1.3364  2.3862  0.5797
41040SOL    HW227678  10.303   8.375  11.692 -0.5808  0.7427  0.2564
41041SOL     OW27679   2.327  10.791   6.389 -0.3609 -0.5170  0.2525
41041SOL    HW127680   2.331  10.853   6.462 -1.1115 -0.8554  0.5891
41041SOL    HW227681   2.377  10.715   6.420  1.4307  0.2766 -0.5462
41042SOL     OW27682   8.929   8.238   7.954  0.5342 -0.1275  0.2002
41042SOL    HW127683   8.943   8.281   7.870  0.7340 -0.6616 -0.0447
41042SOL    HW227684   8.850   8.279   7.989 -0.1398 -0.6092 -0.7157
41043SOL     OW27685   5.985   9.560   8.516  0.3003 -0.0021  0.3452
41043SOL    HW127686   5.948   9.541   8.602 -0.1278 -0.0172  0.1567
41043SOL    HW227687   5.910   9.565   8.458  0.5505  0.5136  0.0614
41044SOL     OW27688   5.399   2.303   1.324 -0.0326  0.2056  0.1964
41044SOL    HW127689   5.393   2.248   1.246  0.7020  0.7138 -0.2401
41044SOL    HW227690   5.447   2.250   1.388  1.5220  0.6555 -0.5487
41045SOL     OW27691   1.016   5.421   3.197 -0.1254  0.2476  0.0273
41045SOL    HW127692   0.938   5.371   3.174  1.2514 -2.2094  0.3706
41045SOL    HW227693   0.996   5.458   3.283 -1.2138  0.4057 -0.2769
41046SOL     OW27694   1.001   1.605   2.398  0.6371 -0.2869  0.3651
41046SOL    HW127695   1.075   1.569   2.351  0.2563  0.5861 -0.9449
41046SOL    HW227696   1.034   1.685   2.438 -0.1435  1.5258 -2.3459
41047SOL     OW27697   3.218  10.602  10.188 -0.4066 -0.2661 -0.2452
41047SOL    HW127698   3.270  10.575  10.113 -0.2844 -1.0557  0.1134
41047SOL    HW227699   3.187  10.690  10.166  0.0427 -0.2914 -0.9946
41048SOL     OW27700   9.418   6.157   8.322  0.0682  0.0820  0.1235
41048SOL    HW127701   9.362   6.168   8.399  0.7703 -0.5491  0.7433
41048SOL    HW227702   9.477   6.232   8.325 -0.3503  0.4283 -0.1955
41049SOL     OW27703   6.701  10.468   2.658 -0.0817 -0.4242  0.6809
41049SOL    HW127704   6.793  10.494   2.646 -0.1911 -0.1172  0.4865
41049SOL    HW227705   6.668  10.458   2.568  0.3214 -2.5701  0.7272
41050SOL     OW27706   4.245  10.539   8.889 -0.0069 -0.3717 -0.4242
41050SOL    HW127707   4.210  10.603   8.951  0.7508  0.3018 -0.6695
41050SOL    HW227708   4.187  10.544   8.814  0.6307  0.8086 -0.8686
41051SOL     OW27709   3.002   7.603  10.545 -0.2459  0.0400 -0.0757
41051SOL    HW127710   2.949   7.681  10.563 -0.7226 -0.0723 -0.9721
41051SOL    HW227711   3.043   7.620  10.461 -0.8032 -0.9038 -0.5630
41052SOL     OW27712   4.055   3.218   5.189  0.5775 -0.1076  0.5366
41052SOL    HW127713   4.068   3.285   5.256  1.2631  0.9517 -0.6185
41052SOL    HW227714   4.073   3.262   5.106 -0.3941 -1.3467 -0.3750
41053SOL     OW27715   0.848  11.782   1.468 -0.1379  0.3338 -0.5743
41053SOL    HW127716   0.904  11.804   1.543 -0.7851  1.9424 -0.5223
41053SOL    HW227717   0.862  11.854   1.406 -0.0337 -0.6928 -1.7857
41054SOL     OW27718   9.744   5.043   3.595  0.1046 -0.0869 -0.2507
41054SOL    HW127719   9.688   5.121   3.587  2.1817  1.6029  0.5818
41054SOL    HW227720   9.746   5.006   3.507  0.2088  1.6887 -1.0462
41055SOL     OW27721   3.732   8.075   6.237  0.1120  0.1868 -0.5681
41055SOL    HW127722   3.668   8.146   6.238  1.3956  1.4141  1.1615
41055SOL    HW227723   3.710   8.021   6.313 -1.1734 -1.6585 -2.1600
41056SOL     OW27724   1.151   8.062   2.543  0.5227 -0.3576  0.3305
41056SOL    HW127725   1.231   8.084   2.496 -0.1228  1.0460 -0.1779
41056SOL    HW227726   1.084   8.054   2.474 -0.0185 -0.3054  0.8383
41057SOL     OW27727   8.821   4.274   5.413 -0.1939  0.1152 -0.1851
41057SOL    HW127728   8.848   4.266   5.505 -2.1169 -1.3188  0.3355
41057SOL    HW227729   8.898   4.245   5.363  0.2654 -0.9858  1.0787
41058SOL     OW27730   8.331   5.899  10.457 -0.4876 -0.2277 -0.0660
41058SOL    HW127731   8.251   5.863  10.495 -0.9020 -1.5313 -1.9991
41058SOL    HW227732   8.315   5.993  10.452 -1.0798 -0.2325  1.3707
41059SOL     OW27733  11.289   8.518   3.112 -0.0371 -0.0545  0.7761
41059SOL    HW127734  11.324   8.429   3.113  0.5033  0.1284 -0.2903
41059SOL    HW227735  11.340   8.563   3.044 -2.4029  0.1973 -0.9799
41060SOL     OW27736   3.837   9.888   7.086 -0.9270  0.2832  0.1447
41060SOL    HW127737   3.875   9.956   7.029  0.6982 -0.3070  0.4598
41060SOL    HW227738   3.795   9.827   7.026 -0.4628  0.4044 -0.3117
41061SOL     OW27739   1.187   4.917   9.525 -0.4595  0.3592 -0.1967
41061SOL    HW127740   1.119   4.888   9.585 -0.2798 -1.1212 -0.6637
41061SOL    HW227741   1.170   4.869   9.444  0.7561  0.4437 -0.5286
41062SOL     OW27742   2.509   2.686   6.951 -0.3846  0.3828  0.2387
41062SOL    HW127743   2.473   2.629   6.884  1.0492 -0.5674  0.2358
41062SOL    HW227744   2.482   2.645   7.034 -0.9163  0.7551  0.2614
41063SOL     OW27745   9.214   7.646   3.644 -0.0701  0.1303  0.4316
41063SOL    HW127746   9.163   7.698   3.583  0.9181  1.3276  0.5817
41063SOL    HW227747   9.150   7.611   3.706 -1.4412 -2.8449 -2.3308
41064SOL     OW27748   3.962   0.667   3.420  0.9711 -0.1970  0.6328
41064SOL    HW127749   3.910   0.702   3.493 -0.8500 -1.1854 -0.1154
41064SOL    HW227750   3.959   0.735   3.353  1.6390  0.2230  1.0205
41065SOL     OW27751   8.100   5.999   5.789  0.3341 -0.6760 -0.1174
41065SOL    HW127752   8.193   6.007   5.766  0.0412  1.1475 -0.8888
41065SOL    HW227753   8.065   5.939   5.723  0.6293  0.0645 -0.9715
41066SOL     OW27754   6.382   7.599   4.241 -0.2119  0.4426  0.6692
41066SOL    HW127755   6.369   7.588   4.147  1.4833 -1.0861  0.5415
41066SOL    HW227756   6.349   7.687   4.260 -1.1282  0.5613 -1.2238
41067SOL     OW27757   6.665   6.935   3.551  0.1122  0.1090 -0.3072
41067SOL    HW127758   6.739   6.976   3.505 -0.4711  1.0240 -0.4570
41067SOL    HW227759   6.705   6.866   3.604  1.0901  0.6415 -0.3239
41068SOL     OW27760   5.417  10.302  12.123  0.0991  0.1164 -0.3312
41068SOL    HW127761   5.493  10.319  12.179  0.1080 -0.9061 -0.0190
41068SOL    HW227762   5.342  10.318  12.180  0.1034 -0.4631 -0.1580
41069SOL     OW27763  10.652  11.851   1.176 -0.1254 -0.3325 -0.2908
41069SOL    HW127764  10.564  11.882   1.196 -0.1951 -1.1278  0.7083
41069SOL    HW227765  10.662  11.867   1.082 -1.4288 -0.4608 -0.4738
41070SOL     OW27766   2.702  11.678   9.564  0.1453 -0.0289 -0.4654
41070SOL    HW127767   2.787  11.719   9.549  0.0556  0.7833  1.0436
41070SOL    HW227768   2.684  11.629   9.484  1.4323  0.8468 -1.3227
41071SOL     OW27769   8.010   7.119   1.205  0.0132 -0.0590 -0.2599
41071SOL    HW127770   7.962   7.055   1.151  1.6731 -1.7938  0.2163
41071SOL    HW227771   7.976   7.105   1.293  0.0624  0.0223 -0.2289
41072SOL     OW27772   1.441   0.877   6.270 -0.6932 -0.3462  0.3914
41072SOL    HW127773   1.470   0.934   6.198  0.0271  0.7071  1.4745
41072SOL    HW227774   1.500   0.802   6.266 -2.1100 -1.4543 -1.5036
41073SOL     OW27775  10.375   2.929   5.504 -0.2812  0.5607  0.3675
41073SOL    HW127776  10.417   2.968   5.427  0.7020  0.7918  1.0039
41073SOL    HW227777  10.341   2.845   5.473 -2.1649  1.7177 -0.9554
41074SOL     OW27778  11.929   1.611   0.558 -0.0588 -0.2269 -0.6193
41074SOL    HW127779  11.873   1.665   0.502  0.2456 -1.6960 -2.4564
41074SOL    HW227780  11.867   1.562   0.613 -0.5567 -0.7964 -1.6469
41075SOL     OW27781   9.681   6.577   4.787 -0.0883  0.2278  0.1903
41075SOL    HW127782   9.652   6.584   4.878 -0.9615 -0.0989 -0.0576
41075SOL    HW227783   9.634   6.648   4.742  1.2650  1.1847  0.2042
41076SOL     OW27784   5.735   9.708   9.876  0.4278  0.2490 -0.8691
41076SOL    HW127785   5.695   9.629   9.913  0.6683  1.0088  1.1010
41076SOL    HW227786   5.662   9.756   9.837 -0.6889  1.4543  2.3810
41077SOL     OW27787   1.524   9.160   2.990  0.2128 -0.4811 -0.1711
41077SOL    HW127788   1.601   9.107   2.970  1.2360  0.2470  1.6289
41077SOL    HW227789   1.557   9.249   2.999 -1.0569  0.0584 -0.5923
41078SOL     OW27790   5.180   7.331   4.044 -0.0083  0.1797 -0.1281
41078SOL    HW127791   5.265   7.319   4.087 -0.9383  1.4235  2.2305
41078SOL    HW227792   5.137   7.246   4.053  0.7215 -0.2963 -0.8619
41079SOL     OW27793   3.010   4.444   7.772  0.6052  0.4793  0.5896
41079SOL    HW127794   2.956   4.396   7.709  0.5380 -1.1498  1.8283
41079SOL    HW227795   2.984   4.535   7.760  0.0156  0.1371 -1.1628
41080SOL     OW27796   3.746  11.440   6.730  0.3896 -0.8673  0.4824
41080SOL    HW127797   3.682  11.422   6.661 -1.2624  1.5429  1.2728
41080SOL    HW227798   3.830  11.438   6.685 -0.5483 -0.3054 -1.4141
41081SOL     OW27799   9.486  10.368  11.764 -0.1710  0.0849  0.2845
41081SOL    HW127800   9.480  10.273  11.777  1.4357 -0.0542  0.1849
41081SOL    HW227801   9.547  10.378  11.691  2.0855  1.2368  2.1944
41082SOL     OW27802   8.639   7.061   4.659  0.2886 -0.2864 -0.4057
41082SOL    HW127803   8.589   7.016   4.591 -1.7637  0.0618  0.7977
41082SOL    HW227804   8.581   7.129   4.691  1.9731  0.8700  0.3497
41083SOL     OW27805   5.439  11.649   7.170  0.3023 -0.0286 -0.2642
41083SOL    HW127806   5.426  11.740   7.146 -1.9595 -0.1989  0.0965
41083SOL    HW227807   5.459  11.605   7.087 -0.4279  0.5117 -0.7391
41084SOL     OW27808   1.239   4.404   2.551  0.2031 -0.1216 -0.6885
41084SOL    HW127809   1.144   4.410   2.562  0.5658  1.3505  3.4037
41084SOL    HW227810   1.268   4.495   2.547  1.5520 -0.5331 -0.7452
41085SOL     OW27811   8.474   5.984   8.011  0.0397  0.4660  0.0902
41085SOL    HW127812   8.489   6.079   8.016 -0.4945  0.5249  0.7229
41085SOL    HW227813   8.434   5.970   7.926 -0.3480  0.8800  0.2012
41086SOL     OW27814   8.014  11.617   6.351 -0.0120  0.3715  0.0307
41086SOL    HW127815   8.060  11.591   6.271 -1.4730 -1.2330 -0.3501
41086SOL    HW227816   8.081  11.660   6.404  1.9190 -1.7405 -0.5508
41087SOL     OW27817   9.066   5.853   8.900 -0.0539 -0.2059 -0.3830
41087SOL    HW127818   9.013   5.854   8.979  0.2903 -0.3552 -0.1512
41087SOL    HW227819   9.025   5.918   8.843  1.2427  1.8560  0.9055
41088SOL     OW27820   0.148   2.033   9.591 -0.1480  0.0196  0.0678
41088SOL    HW127821   0.118   1.960   9.645  1.0762 -0.5002  0.0869
41088SOL    HW227822   0.163   1.994   9.505 -0.0313  0.3724 -0.0725
41089SOL     OW27823   7.771   6.966   2.440  0.1911  0.3517 -0.0840
41089SOL    HW127824   7.688   6.927   2.412  0.8081 -1.0164 -0.0570
41089SOL    HW227825   7.786   6.931   2.527  1.6807 -0.8532 -0.7899
41090SOL     OW27826   3.030   9.487  11.350 -0.0081  0.1143 -0.2378
41090SOL    HW127827   3.031   9.517  11.259 -0.3622 -1.7911 -0.9194
41090SOL    HW227828   3.060   9.396  11.345  1.5511  0.4762  1.7743
41091SOL     OW27829   0.675  11.444  11.491  0.3040  0.0461 -0.2414
41091SOL    HW127830   0.715  11.440  11.404 -1.1729  0.3196 -0.9757
41091SOL    HW227831   0.748  11.453  11.552  1.3153  0.8688 -1.5336
41092SOL     OW27832   3.372   5.411  11.604 -0.2713 -0.0411 -0.3835
41092SOL    HW127833   3.279   5.390  11.595  0.1194 -2.7106  0.7704
41092SOL    HW227834   3.374   5.496  11.648 -2.2464 -0.9426  1.6451
41093SOL     OW27835  10.792  11.399   6.204 -0.3206  0.1119  0.2733
41093SOL    HW127836  10.746  11.334   6.257 -0.7624  1.7158  1.9829
41093SOL    HW227837  10.855  11.438   6.265 -0.9479  2.1360 -0.3046
41094SOL     OW27838  10.379   3.358   5.864  0.4324  0.4991 -0.2835
41094SOL    HW127839  10.310   3.424   5.867 -0.5717 -0.5644  1.3086
41094SOL    HW227840  10.445   3.389   5.926  0.6961  0.7674 -0.6925
41095SOL     OW27841   2.177   6.974   5.560 -0.8043 -0.3349  0.4911
41095SOL    HW127842   2.197   7.000   5.470  0.0032 -1.4657  0.3125
41095SOL    HW227843   2.258   6.990   5.609 -0.8390 -0.8721  0.7364
41096SOL     OW27844   3.524   3.324   8.976  0.5124 -0.0797 -0.0256
41096SOL    HW127845   3.546   3.376   8.898  0.3671 -0.5860 -0.4078
41096SOL    HW227846   3.540   3.383   9.050 -0.7618  0.9106 -0.5031
41097SOL     OW27847   2.313   0.032   9.769 -0.1918  0.6102 -0.1255
41097SOL    HW127848   2.309   0.054   9.862 -1.2213  3.0874 -0.6710
41097SOL    HW227849   2.396   0.070   9.739  1.8767 -3.0261  0.2809
41098SOL     OW27850   3.694   8.568  10.880  0.1264  0.0500 -0.3750
41098SOL    HW127851   3.709   8.621  10.958  2.9190 -0.8303 -0.1970
41098SOL    HW227852   3.660   8.630  10.815 -2.6540  0.7079  1.5568
41099SOL     OW27853   7.890  10.990   7.652  0.0280  0.2150  0.5816
41099SOL    HW127854   7.972  10.965   7.695 -0.7778 -1.0356  1.4580
41099SOL    HW227855   7.885  11.085   7.665  1.0161  0.2197  1.0798
41100SOL     OW27856  11.109   2.850   8.303 -0.5830  0.3763 -0.2526
41100SOL    HW127857  11.164   2.773   8.318  1.2049  1.6129 -0.2134
41100SOL    HW227858  11.046   2.822   8.236 -1.4142 -1.7572  1.3199
41101SOL     OW27859   8.538   5.290   3.821  0.4253  0.2844 -0.4802
41101SOL    HW127860   8.504   5.211   3.779 -0.5807 -0.3147  1.3295
41101SOL    HW227861   8.507   5.362   3.765 -1.6671 -0.4104 -0.3284
41102SOL     OW27862   8.575   5.538   3.351 -0.3801  0.9271 -0.5383
41102SOL    HW127863   8.558   5.538   3.257 -1.3257  0.3886 -0.3802
41102SOL    HW227864   8.580   5.631   3.374  1.0256  1.0720 -1.2996
41103SOL     OW27865  10.420  10.973   3.564  0.3938  0.2071  0.0272
41103SOL    HW127866  10.343  10.934   3.605  1.9468 -1.5690  1.4125
41103SOL    HW227867  10.491  10.912   3.583  2.4533  2.4572  0.0402
41104SOL     OW27868  10.419  11.327   3.122 -0.0066 -0.0823 -0.6154
41104SOL    HW127869  10.478  11.378   3.177  2.5988 -0.3584 -2.9147
41104SOL    HW227870  10.422  11.238   3.158  1.0436 -0.0874 -0.6848
41105SOL     OW27871   0.902  10.570  10.296  0.5249 -0.5718  0.2849
41105SOL    HW127872   0.822  10.623  10.300  1.2387  0.5908 -0.2564
41105SOL    HW227873   0.902  10.533  10.208  0.8868 -0.0705  0.0722
41106SOL     OW27874   3.360   2.368   0.133  0.5387 -0.4712 -0.0990
41106SOL    HW127875   3.312   2.285   0.132  0.2884 -0.4472 -3.4340
41106SOL    HW227876   3.368   2.391   0.040  0.7464  3.1831  0.6993
41107SOL     OW27877   6.077  10.089   3.658  0.4625  0.8862  0.2960
41107SOL    HW127878   6.096  10.059   3.747 -1.9256  0.9851  0.9161
41107SOL    HW227879   6.157  10.073   3.609  0.7689 -2.4479  1.6320
41108SOL     OW27880   5.255   7.650   2.614  0.1470 -0.3027 -0.1047
41108SOL    HW127881   5.333   7.703   2.599 -0.0779  0.1983  0.4771
41108SOL    HW227882   5.200   7.703   2.672 -0.0487 -1.1834  0.5438
41109SOL     OW27883  10.541  11.488   7.203  0.0745  0.0027  0.0191
41109SOL    HW127884  10.513  11.514   7.290  2.3616 -1.7269  1.3934
41109SOL    HW227885  10.515  11.396   7.196  0.3944 -0.0264 -0.9114
41110SOL     OW27886   7.474   4.162   5.866  0.6291  0.4286  0.0179
41110SOL    HW127887   7.445   4.071   5.873 -0.5590  0.7751 -0.1929
41110SOL    HW227888   7.527   4.164   5.787  3.8509 -0.8565  1.9617
41111SOL     OW27889   8.074   8.558   0.531  0.2394 -0.1029  0.0228
41111SOL    HW127890   7.999   8.501   0.547 -2.0100  2.0169 -2.1025
41111SOL    HW227891   8.105   8.532   0.444  0.8769  0.1843  0.1615
41112SOL     OW27892   0.703   7.258  11.380 -0.1786  0.1370 -0.1909
41112SOL    HW127893   0.735   7.168  11.374 -0.3483  0.0945 -0.4783
41112SOL    HW227894   0.688   7.284  11.290  0.3990  0.6510 -0.1485
41113SOL     OW27895   8.735   8.254   6.484 -0.6476  1.0690 -0.6115
41113SOL    HW127896   8.802   8.293   6.428  0.9125 -0.6832 -0.0438
41113SOL    HW227897   8.695   8.186   6.430  1.8756 -1.6594  0.6859
41114SOL     OW27898   4.185  11.649   3.316  0.4138 -0.1975 -0.2613
41114SOL    HW127899   4.132  11.705   3.259  2.3176  0.1913 -1.7519
41114SOL    HW227900   4.244  11.710   3.361 -0.1005 -0.6547  1.1038
41115SOL     OW27901   1.549  11.957   4.616  0.1693  0.2641 -0.2680
41115SOL    HW127902   1.576  11.865   4.611 -0.1159  0.0960  0.9610
41115SOL    HW227903   1.532  11.982   4.525 -1.4767 -1.4093 -0.4750
41116SOL     OW27904  10.052   1.722   3.318 -0.6298  0.6864  1.0073
41116SOL    HW127905  10.050   1.765   3.233 -0.0950  0.0264  0.6557
41116SOL    HW227906   9.971   1.750   3.361 -1.1064  0.6843  0.1178
41117SOL     OW27907   9.492   0.426   1.681 -0.1021 -0.0167  0.1333
41117SOL    HW127908   9.437   0.360   1.639 -0.9907  1.2079 -0.7162
41117SOL    HW227909   9.541   0.465   1.608 -0.1620  0.7665  0.5032
41118SOL     OW27910   1.141   6.030   6.931  0.2213 -0.0354  0.3405
41118SOL    HW127911   1.111   6.021   7.021 -3.3871 -1.6447 -0.8007
41118SOL    HW227912   1.165   5.940   6.905  2.0128  0.5348 -0.1394
41119SOL     OW27913  11.725   0.570   8.010 -0.2698 -0.5537 -0.0496
41119SOL    HW127914  11.792   0.513   7.973  0.6430 -0.0233  0.7400
41119SOL    HW227915  11.774   0.637   8.057 -1.3374  0.6504 -0.6181
41120SOL     OW27916   6.606  11.828   3.459  0.4506 -0.0870 -0.5047
41120SOL    HW127917   6.699  11.824   3.437  0.6474 -2.2572  0.4448
41120SOL    HW227918   6.579  11.736   3.467 -1.0549  0.4626  2.0280
41121SOL     OW27919   3.197   7.524  11.090  0.7536  0.5117 -0.3501
41121SOL    HW127920   3.146   7.515  11.170 -1.0009  1.6549 -1.2715
41121SOL    HW227921   3.135   7.560  11.026  1.7694 -1.3692 -2.5416
41122SOL     OW27922   5.088  11.153   6.835  0.3440 -0.1237 -0.2426
41122SOL    HW127923   4.993  11.167   6.844 -0.0468 -2.4097 -0.3211
41122SOL    HW227924   5.126  11.203   6.907 -1.0604 -0.5001  0.8000
41123SOL     OW27925   1.187   8.255   5.557  0.2064  0.4884 -0.2989
41123SOL    HW127926   1.282   8.268   5.553  0.0574  1.6140 -0.4811
41123SOL    HW227927   1.158   8.260   5.466  0.2102 -2.0546 -0.5019
41124SOL     OW27928   0.332   9.200   5.241  0.4075  0.0026 -0.5483
41124SOL    HW127929   0.293   9.199   5.329  0.2910  2.1546 -0.5104
41124SOL    HW227930   0.411   9.146   5.249  0.3412  0.0676  0.8570
41125SOL     OW27931   7.447   6.506  11.439  0.2067  0.1429  0.0555
41125SOL    HW127932   7.476   6.457  11.362  1.1014 -1.6131  1.4395
41125SOL    HW227933   7.515   6.573  11.450 -0.7593  1.4715 -1.5505
41126SOL     OW27934  11.041   2.259   4.858  0.2708  0.3479 -0.0562
41126SOL    HW127935  11.114   2.208   4.821  0.9756  0.7641  0.7370
41126SOL    HW227936  10.964   2.225   4.814  1.1484  1.5122 -2.7201
41127SOL     OW27937  11.218  11.708   0.825  0.4541  0.2503  0.3475
41127SOL    HW127938  11.147  11.744   0.772  0.7584  1.1680  0.5529
41127SOL    HW227939  11.297  11.751   0.794  0.8565 -0.3822  0.4730
41128SOL     OW27940   4.854   5.792   2.658  0.0731  0.0154  0.0012
41128SOL    HW127941   4.810   5.846   2.591 -0.2607 -1.7056 -1.2315
41128SOL    HW227942   4.935   5.764   2.616  0.6570  0.2490  0.9563
41129SOL     OW27943   8.780   6.995   1.235 -0.1176 -0.1629 -0.2212
41129SOL    HW127944   8.734   7.079   1.236  0.0672 -0.0503 -0.6979
41129SOL    HW227945   8.842   7.002   1.162  1.4433  0.1000  1.0760
41130SOL     OW27946   5.230   4.133   2.542  0.3333  0.0422 -0.0468
41130SOL    HW127947   5.278   4.153   2.462  0.3108 -2.2503 -0.6745
41130SOL    HW227948   5.252   4.205   2.601  1.4413  1.0615 -1.6236
41131SOL     OW27949   1.458  11.152   6.628 -0.1281  0.5699 -0.0970
41131SOL    HW127950   1.496  11.230   6.670  1.2744 -0.4896  0.6906
41131SOL    HW227951   1.437  11.094   6.701  1.4228 -0.9058 -0.7375
41132SOL     OW27952   7.628  10.497   6.179 -0.2830  0.5621 -0.2703
41132SOL    HW127953   7.695  10.429   6.183 -0.1654  0.6581 -0.5600
41132SOL    HW227954   7.675  10.575   6.149 -0.6461  0.4588 -1.1262
41133SOL     OW27955   5.615   8.849   9.977  0.6036  0.1653 -0.5572
41133SOL    HW127956   5.686   8.882  10.032  0.9642 -2.0140  0.3987
41133SOL    HW227957   5.536   8.886  10.016  0.7352 -2.1408  2.2811
41134SOL     OW27958  12.058   0.144   9.163  0.0623 -0.4943  0.6838
41134SOL    HW127959  11.983   0.188   9.202  0.0551 -0.9293  1.1914
41134SOL    HW227960  12.099   0.210   9.107 -1.4152 -0.6220 -0.6202
41135SOL     OW27961   1.402   1.759   4.609  0.9243 -0.0810 -0.2116
41135SOL    HW127962   1.427   1.818   4.538  0.9759  0.1642  0.0099
41135SOL    HW227963   1.377   1.678   4.565  1.4800 -0.1094 -0.4750
41136SOL     OW27964   2.902  10.494   7.119  0.1225  0.2004 -0.1594
41136SOL    HW127965   2.908  10.399   7.127 -0.0198  0.2976  1.7098
41136SOL    HW227966   2.991  10.526   7.136  0.1007  0.4192 -0.4420
41137SOL     OW27967  10.411   8.632   1.163  0.5622  0.3158 -0.0003
41137SOL    HW127968  10.317   8.616   1.173  0.5947  0.7645  1.2071
41137SOL    HW227969  10.435   8.586   1.083 -0.5941 -0.2015 -0.0699
41138SOL     OW27970   7.440   4.662   4.146  0.0699 -0.0696 -0.2373
41138SOL    HW127971   7.367   4.718   4.119  1.7050  2.3821  0.0628
41138SOL    HW227972   7.428   4.652   4.241  0.4620  0.9623 -0.0568
41139SOL     OW27973   6.593   4.941   4.313  0.2596  0.4516 -0.0264
41139SOL    HW127974   6.631   4.885   4.381  1.7038  2.2966  0.7913
41139SOL    HW227975   6.542   5.006   4.361 -0.9891  0.1620 -0.9163
41140SOL     OW27976   4.960  10.524   3.332 -0.6134 -0.0911  0.6030
41140SOL    HW127977   4.987  10.443   3.288 -2.3531 -1.4051  1.8177
41140SOL    HW227978   4.943  10.586   3.261  2.4855 -0.1234 -0.3035
41141SOL     OW27979   2.021  10.689   3.266  0.9632 -0.5184 -0.3151
41141SOL    HW127980   1.993  10.619   3.207  1.3036  0.8153 -2.1423
41141SOL    HW227981   1.954  10.756   3.256  2.5489  0.9758 -1.5604
41142SOL     OW27982   1.123   2.504   5.828 -0.4938  0.1221 -0.3718
41142SOL    HW127983   1.196   2.564   5.843  0.5917 -0.8051 -1.7145
41142SOL    HW227984   1.120   2.450   5.907 -0.2878  0.7180  0.0493
41143SOL     OW27985   0.160   1.287   9.613  0.4115 -0.0695  0.3586
41143SOL    HW127986   0.119   1.206   9.582  1.6924 -0.3977 -0.5401
41143SOL    HW227987   0.161   1.279   9.708 -1.3935 -0.1295  0.4156
41144SOL     OW27988   3.981   2.727   5.209  0.1158  0.2603 -0.0193
41144SOL    HW127989   4.050   2.690   5.154 -1.2668 -0.1973 -1.5260
41144SOL    HW227990   3.984   2.821   5.191  2.2934  0.7235  2.2643
41145SOL     OW27991   6.236   3.279   2.359 -0.2521 -0.0550 -0.0502
41145SOL    HW127992   6.150   3.261   2.396 -0.2321 -1.2393 -0.5308
41145SOL    HW227993   6.219   3.343   2.290 -1.1680 -2.0063 -1.7643
41146SOL     OW27994   3.971  10.825   2.388  0.4791  0.3235  0.0877
41146SOL    HW127995   4.000  10.882   2.459 -2.3452  1.9482  0.1001
41146SOL    HW227996   4.020  10.854   2.312  0.7796  1.1781  0.5992
41147SOL     OW27997   5.948   2.791   9.045  0.5305  0.5389  0.0914
41147SOL    HW127998   5.982   2.703   9.029  1.0344  0.8040 -0.3422
41147SOL    HW227999   5.869   2.778   9.098 -0.7870 -0.3364 -1.9896
41148SOL     OW28000   7.547   3.904   2.108  0.4575  0.0724 -0.1852
41148SOL    HW128001   7.562   3.817   2.072 -0.0643  0.1924 -0.7042
41148SOL    HW228002   7.572   3.897   2.200 -0.7833 -0.9626  0.0911
41149SOL     OW28003   8.545   3.639   7.138 -0.1447  0.2304 -0.0916
41149SOL    HW128004   8.458   3.614   7.108 -1.3781 -1.1513  3.9777
41149SOL    HW228005   8.541   3.733   7.150 -0.6412  0.3347 -0.9558
41150SOL     OW28006   8.816   3.016  10.545  0.2377  0.2582 -0.2603
41150SOL    HW128007   8.897   3.066  10.541 -0.7278  1.9791  0.4105
41150SOL    HW228008   8.803   2.998  10.639  0.8932 -1.8926 -0.5306
41151SOL     OW28009  11.187   8.822   7.357  0.6147 -0.1252 -0.1058
41151SOL    HW128010  11.203   8.874   7.278 -0.0909  3.4173  1.8808
41151SOL    HW228011  11.094   8.836   7.376  0.9707 -0.2070  1.8268
41152SOL     OW28012   3.539   1.786   4.809  0.4240 -0.1876  0.0055
41152SOL    HW128013   3.559   1.693   4.810  0.4703 -0.1894 -0.6647
41152SOL    HW228014   3.472   1.796   4.742  0.6069  0.2978 -0.1096
41153SOL     OW28015   5.133   4.881   5.479 -0.0578 -0.7084 -0.0260
41153SOL    HW128016   5.043   4.871   5.509  0.0997 -0.0693  0.7295
41153SOL    HW228017   5.138   4.972   5.448  0.4119 -0.6191  0.2939
41154SOL     OW28018   3.205   2.059   4.709 -0.0093 -0.0947  0.2575
41154SOL    HW128019   3.173   1.972   4.688  0.2450 -0.5018  1.5050
41154SOL    HW228020   3.165   2.080   4.794 -0.3269  1.1322 -0.1695
41155SOL     OW28021  10.358   2.443   0.887 -0.3998 -0.3361  0.1354
41155SOL    HW128022  10.401   2.516   0.929 -1.3198 -1.2894  2.9706
41155SOL    HW228023  10.411   2.367   0.909 -0.2528 -0.7717 -1.5352
41156SOL     OW28024   9.132   0.270   3.685  0.5234 -0.1330  0.7005
41156SOL    HW128025   9.176   0.188   3.708 -0.0099 -0.5503  0.2643
41156SOL    HW228026   9.063   0.244   3.624  1.8741  0.9257 -1.3909
41157SOL     OW28027   1.063   1.116  11.784 -0.1806  0.3339 -0.4872
41157SOL    HW128028   1.079   1.210  11.796 -0.9114  0.2900  1.1244
41157SOL    HW228029   1.113   1.074  11.855 -1.1745 -0.3464 -0.1713
41158SOL     OW28030   5.071   8.407   8.329  0.1198 -0.4317 -0.5924
41158SOL    HW128031   4.986   8.390   8.368  0.3196 -1.1764 -0.4683
41158SOL    HW228032   5.086   8.332   8.271  1.6217 -1.4368  0.9948
41159SOL     OW28033   1.038  12.059   8.181  0.3918  0.2943  0.1184
41159SOL    HW128034   1.015  11.966   8.175 -0.5268  0.4761  0.6587
41159SOL    HW228035   1.070  12.081   8.094  1.7437 -0.8067  0.2896
41160SOL     OW28036   8.804   5.930   1.954  0.2550 -0.1889  0.1680
41160SOL    HW128037   8.839   5.950   2.040 -0.0216  0.1680  0.2027
41160SOL    HW228038   8.765   5.843   1.963 -0.9257  0.3722  0.7710
41161SOL     OW28039   8.032   5.248   3.449 -0.0861  0.6533  0.0008
41161SOL    HW128040   8.107   5.221   3.395  0.0491  0.0337  0.4839
41161SOL    HW228041   8.057   5.334   3.483  0.4301  0.4339  0.1885
41162SOL     OW28042   8.331  10.741   1.683  0.4917  0.0802 -0.3367
41162SOL    HW128043   8.422  10.762   1.663  1.5192 -0.9814  2.6317
41162SOL    HW228044   8.305  10.803   1.750 -0.9681  0.2508 -1.0007
41163SOL     OW28045  11.886  10.959   1.164 -0.4477 -0.7252 -0.2785
41163SOL    HW128046  11.876  11.019   1.089  1.2595 -0.3876 -0.2802
41163SOL    HW228047  11.980  10.952   1.176 -0.6806 -1.4845  1.3037
41164SOL     OW28048   3.634  10.431   5.713 -0.4980  0.3597 -0.2629
41164SOL    HW128049   3.728  10.413   5.715 -0.5670 -0.1394 -1.1460
41164SOL    HW228050   3.625  10.507   5.656 -0.7188 -0.2066 -0.9874
41165SOL     OW28051   2.532   2.564  10.537 -0.2357 -0.0918  0.0232
41165SOL    HW128052   2.626   2.566  10.555  0.0656  2.1150 -1.4258
41165SOL    HW228053   2.526   2.554  10.442 -1.3023  2.7386 -0.3070
41166SOL     OW28054   5.786  11.888   9.983 -0.0872  0.2726 -0.8016
41166SOL    HW128055   5.737  11.939  10.048 -0.0770  0.6969 -1.1175
41166SOL    HW228056   5.726  11.880   9.908 -0.1650 -0.3659 -0.6738
41167SOL     OW28057   2.448   2.991   0.214  0.5576  1.0313 -0.2750
41167SOL    HW128058   2.508   2.928   0.254 -0.8820  0.2497  0.7525
41167SOL    HW228059   2.446   3.064   0.276 -0.4455  0.5279  0.3011
41168SOL     OW28060   4.005  10.255   7.478  0.5123 -0.8757  0.2157
41168SOL    HW128061   3.973  10.193   7.412  2.0224 -1.4087 -0.0472
41168SOL    HW228062   4.061  10.315   7.429 -0.9613  0.7977  0.4508
41169SOL     OW28063   5.084   9.846   4.924  0.5876  0.0773 -0.0514
41169SOL    HW128064   5.013   9.890   4.877  1.3341 -0.0172 -1.3109
41169SOL    HW228065   5.053   9.841   5.015 -0.9105  0.2367 -0.5269
41170SOL     OW28066   4.910   7.888   8.079 -0.4062 -0.5048 -0.1084
41170SOL    HW128067   4.907   7.792   8.075 -0.5508 -0.7902  3.5415
41170SOL    HW228068   4.831   7.913   8.127 -1.3473  1.6965 -2.5760
41171SOL     OW28069  11.976  11.789  10.382  1.0697 -0.1369 -0.3848
41171SOL    HW128070  12.057  11.820  10.421  0.0393  0.7027  1.1926
41171SOL    HW228071  11.941  11.865  10.335 -0.7069  0.8106  2.2354
41172SOL     OW28072   1.349   1.554   7.520  0.0461  0.3360  0.4668
41172SOL    HW128073   1.299   1.589   7.594  1.5883  0.6202  1.4243
41172SOL    HW228074   1.299   1.580   7.443 -1.2352  0.6527  1.3688
41173SOL     OW28075   6.486   2.108   1.935 -0.2573  0.3308  0.5492
41173SOL    HW128076   6.527   2.183   1.893 -0.5537  0.8553  1.1814
41173SOL    HW228077   6.535   2.032   1.903 -0.7047  0.6775 -1.0055
41174SOL     OW28078   3.566  10.674   5.566  0.6172 -0.2631  0.6690
41174SOL    HW128079   3.657  10.702   5.563  0.4165  0.3213 -0.0997
41174SOL    HW228080   3.521  10.742   5.616  0.5603 -0.4437  0.8662
41175SOL     OW28081   4.612   4.805   4.571  0.0776 -0.1162  0.5325
41175SOL    HW128082   4.560   4.886   4.565 -0.9042 -0.5747  2.1640
41175SOL    HW228083   4.682   4.826   4.633 -0.1350 -0.4778  0.9027
41176SOL     OW28084   8.949   2.693   8.224 -0.0489  0.2633 -0.0317
41176SOL    HW128085   8.966   2.735   8.309  0.8794 -0.2403  0.0411
41176SOL    HW228086   8.890   2.621   8.244 -0.9831  1.0017 -0.0365
41177SOL     OW28087  10.065   6.754   6.607 -0.2387  0.3126 -0.0378
41177SOL    HW128088  10.029   6.724   6.523 -0.7318  3.3244 -1.0313
41177SOL    HW228089   9.989   6.780   6.658  0.1953  0.8520  0.3458
41178SOL     OW28090   6.377   6.896   0.480 -0.5208  0.1497  0.3514
41178SOL    HW128091   6.381   6.923   0.572 -2.2259 -0.0220  0.5114
41178SOL    HW228092   6.406   6.972   0.431  0.7438  0.1316  1.0282
41179SOL     OW28093   4.789   4.696   4.392 -0.3374 -0.2257 -0.1405
41179SOL    HW128094   4.699   4.711   4.422 -0.3043 -1.5985  0.7327
41179SOL    HW228095   4.844   4.746   4.452 -0.4995  0.9488 -0.9203
41180SOL     OW28096   3.043   1.450   1.934 -0.5117  0.3542  0.4070
41180SOL    HW128097   3.003   1.363   1.938  3.0162 -1.4902 -0.2749
41180SOL    HW228098   2.975   1.506   1.896 -2.0955 -2.6917 -1.6741
41181SOL     OW28099   4.249   1.953   4.449  0.2921  0.1241  0.4644
41181SOL    HW128100   4.319   1.953   4.384  1.9676  2.0634  2.1228
41181SOL    HW228101   4.172   1.984   4.402  1.0664  0.0072 -0.9234
41182SOL     OW28102   3.537   7.621   8.587  0.9327 -0.0974 -0.2837
41182SOL    HW128103   3.457   7.598   8.633  1.5069 -0.7680  0.4083
41182SOL    HW228104   3.547   7.715   8.600  0.5658 -0.1137  0.1201
41183SOL     OW28105   6.305   3.695   9.885  0.5741  1.1678  0.1533
41183SOL    HW128106   6.219   3.726   9.913 -0.0969  0.5054 -1.0973
41183SOL    HW228107   6.323   3.620   9.942 -1.5177 -1.2158 -2.0640
41184SOL     OW28108  10.883   4.983   7.355 -0.2383 -0.5754  0.0860
41184SOL    HW128109  10.920   4.909   7.403 -1.0924  0.3179  2.2386
41184SOL    HW228110  10.806   5.009   7.405  0.5492  2.3692 -0.0126
41185SOL     OW28111   7.320   0.819  10.622 -0.2532 -0.1787 -0.1427
41185SOL    HW128112   7.367   0.773  10.691  0.3264 -0.6695 -0.8549
41185SOL    HW228113   7.228   0.814  10.648  0.1214  1.7375  1.8358
41186SOL     OW28114   2.882  11.103   0.795 -0.1420 -0.6850 -0.4184
41186SOL    HW128115   2.790  11.081   0.786 -0.7282  1.8378 -1.4022
41186SOL    HW228116   2.909  11.130   0.706  0.9921  0.4772  0.2394
41187SOL     OW28117   8.999  10.254   4.631 -0.0890 -0.3488 -0.0856
41187SOL    HW128118   9.093  10.241   4.645 -0.1642 -0.2692  0.5492
41187SOL    HW228119   8.958  10.202   4.700 -0.5401 -0.9969 -0.8288
41188SOL     OW28120   6.422   8.359   2.398  0.7035 -0.5075  0.0843
41188SOL    HW128121   6.485   8.302   2.441  0.7236 -0.3893  0.2102
41188SOL    HW228122   6.346   8.360   2.456  0.6254 -0.5672 -0.0165
41189SOL     OW28123  11.717   6.240   9.620  0.1333  0.3394  0.3973
41189SOL    HW128124  11.670   6.214   9.700  0.2898  0.7655  0.6337
41189SOL    HW228125  11.659   6.302   9.577 -0.2679 -0.4223 -0.1993
41190SOL     OW28126   4.239   4.157   2.425 -0.4498 -0.2061 -0.1435
41190SOL    HW128127   4.318   4.148   2.372  0.7497 -0.1286  1.5734
41190SOL    HW228128   4.172   4.109   2.376  0.8053 -0.8362 -1.3111
41191SOL     OW28129   9.658   2.009   7.868  0.1662 -0.2791  0.3919
41191SOL    HW128130   9.585   1.986   7.811 -0.5818 -0.0257  1.2278
41191SOL    HW228131   9.695   1.924   7.896  0.6824 -0.4034 -0.6236
41192SOL     OW28132  11.084   3.654   9.145  0.4349  0.3191 -0.4826
41192SOL    HW128133  11.031   3.576   9.162  0.2112  0.6319  0.2764
41192SOL    HW228134  11.174   3.623   9.152  0.3478  0.1571 -0.0360
41193SOL     OW28135   5.633   7.266   1.300 -0.2553  0.1619 -0.0056
41193SOL    HW128136   5.647   7.172   1.312 -2.1199 -0.1381  0.0523
41193SOL    HW228137   5.660   7.304   1.383  0.1488 -0.3610  0.1120
41194SOL     OW28138  10.508   7.252   6.735 -0.3519 -0.6382 -0.0096
41194SOL    HW128139  10.445   7.208   6.792  0.1695 -1.2190  0.1191
41194SOL    HW228140  10.592   7.212   6.755  0.4694  1.5635  1.3528
41195SOL     OW28141   4.418   1.584   8.724 -0.0505 -0.0179 -0.7006
41195SOL    HW128142   4.464   1.654   8.677  0.6413  1.0483  1.4591
41195SOL    HW228143   4.458   1.503   8.692 -0.0009  0.5961 -2.3194
41196SOL     OW28144  10.097  11.768   0.902  0.5786  0.3634 -0.5863
41196SOL    HW128145  10.129  11.858   0.898 -0.4608  0.7498 -0.5494
41196SOL    HW228146  10.174  11.714   0.885  1.4983  1.2053  0.7379
41197SOL     OW28147   4.171   4.718   3.834  0.1041 -0.3519 -0.1075
41197SOL    HW128148   4.186   4.627   3.811  0.8071 -0.2924  0.0984
41197SOL    HW228149   4.163   4.764   3.751  0.6308 -0.4599 -0.2184
41198SOL     OW28150   8.338   7.064   4.048  0.1632 -0.1598  0.2837
41198SOL    HW128151   8.250   7.063   4.009 -0.5370 -0.3926  1.8053
41198SOL    HW228152   8.344   7.148   4.093 -0.2645 -1.1007  2.2336
41199SOL     OW28153  11.392   3.932  10.994  0.3509 -0.8489 -0.3681
41199SOL    HW128154  11.442   4.007  11.026  0.5530 -0.7960 -0.8010
41199SOL    HW228155  11.333   3.910  11.067 -0.2191  0.1808 -0.4926
41200SOL     OW28156   1.877   2.443   8.338 -0.5265 -0.2311  0.2340
41200SOL    HW128157   1.808   2.502   8.308  0.6683  1.0988  0.0203
41200SOL    HW228158   1.949   2.501   8.364  0.5279 -1.5779  0.4320
41201SOL     OW28159  12.102  11.539  11.059  0.2292 -0.3192  0.0351
41201SOL    HW128160  12.098  11.556  11.153  0.3056  0.5701 -0.1118
41201SOL    HW228161  12.040  11.601  11.021 -1.6164 -2.2703 -0.3327
41202SOL     OW28162  11.053   1.807   5.230 -0.0246 -0.2851 -0.4168
41202SOL    HW128163  10.995   1.884   5.232 -0.4863 -0.6128 -0.8298
41202SOL    HW228164  11.138   1.840   5.259 -0.4948  0.1376  0.4963
41203SOL     OW28165   1.649   9.760   9.010  0.4454 -0.0216  0.3519
41203SOL    HW128166   1.721   9.699   8.996 -0.4920 -1.5421  1.7808
41203SOL    HW228167   1.574   9.720   8.965 -0.2518 -0.1053  1.5504
41204SOL     OW28168   4.691  12.061   4.190 -0.2158  0.2410  0.1298
41204SOL    HW128169   4.596  12.075   4.191 -0.1757  0.6465 -0.7844
41204SOL    HW228170   4.721  12.093   4.275 -0.9837 -0.5637  0.7254
41205SOL     OW28171   5.763   2.941   4.540  0.3057 -0.2985  0.8773
41205SOL    HW128172   5.724   3.006   4.599 -2.0067  1.0900 -1.9453
41205SOL    HW228173   5.689   2.885   4.513  1.3347 -1.1026 -0.4171
41206SOL     OW28174   4.234  11.455   1.601 -0.7048 -0.3746 -0.2738
41206SOL    HW128175   4.149  11.438   1.560 -0.8177 -0.1787 -0.1197
41206SOL    HW228176   4.235  11.400   1.679 -0.8936 -0.0109 -0.0099
41207SOL     OW28177   6.389  11.136   2.525  0.2547 -0.1408  0.5685
41207SOL    HW128178   6.452  11.098   2.587 -0.8514 -2.5173  0.3743
41207SOL    HW228179   6.409  11.094   2.442 -2.2763 -1.9849  0.7636
41208SOL     OW28180   9.469   4.061   1.507 -0.1435 -0.2172 -0.1225
41208SOL    HW128181   9.414   4.128   1.466  0.5035  0.4573  0.0732
41208SOL    HW228182   9.425   3.978   1.489 -1.3453  0.3308  0.2517
41209SOL     OW28183   8.213   4.423   1.045 -0.4493  0.2894 -0.0530
41209SOL    HW128184   8.296   4.470   1.039 -0.3076  0.1319  0.5910
41209SOL    HW228185   8.229   4.353   1.109 -0.8130 -0.3091 -0.6074
41210SOL     OW28186  11.866   8.500  11.056  0.5761 -0.3750 -0.0859
41210SOL    HW128187  11.771   8.503  11.042  0.1028  0.6520  2.6499
41210SOL    HW228188  11.894   8.591  11.043  1.1855 -0.6725 -0.8573
41211SOL     OW28189   8.621   5.725  11.253 -0.5253  0.0444  0.5834
41211SOL    HW128190   8.709   5.688  11.250 -1.0363 -1.1589  0.0394
41211SOL    HW228191   8.624   5.788  11.325  1.1917  1.1247 -0.3404
41212SOL     OW28192  11.427   5.498   9.124 -0.0102 -0.8391  0.0362
41212SOL    HW128193  11.402   5.405   9.126 -0.8468 -0.6160  1.4149
41212SOL    HW228194  11.513   5.501   9.166 -0.4765 -0.8853  1.0404
41213SOL     OW28195  11.250  11.089   2.859  0.3597  0.4867  0.0249
41213SOL    HW128196  11.207  11.170   2.885 -0.9665  0.4183 -1.7233
41213SOL    HW228197  11.205  11.020   2.908 -1.3970  0.4500 -1.5286
41214SOL     OW28198   0.991   4.622   5.036  0.7755  0.1865  0.7377
41214SOL    HW128199   1.046   4.697   5.056 -0.7914  1.2521  1.2855
41214SOL    HW228200   0.958   4.593   5.122  0.0642 -0.0663  0.3915
41215SOL     OW28201  11.184   2.829   7.608  0.3397 -0.3051  0.1883
41215SOL    HW128202  11.111   2.791   7.560  1.0446 -0.3712 -0.8876
41215SOL    HW228203  11.147   2.859   7.690 -0.6948 -1.1935  0.0589
41216SOL     OW28204   2.507   8.859   5.449 -0.6059  0.3727  0.2656
41216SOL    HW128205   2.599   8.877   5.470 -0.3231  3.5196 -2.7078
41216SOL    HW228206   2.459   8.932   5.489 -1.5293 -0.0265 -0.0914
41217SOL     OW28207   5.027   8.557   3.999 -0.4623  0.0114  1.1648
41217SOL    HW128208   5.061   8.474   4.033  0.5373 -0.3723 -0.6618
41217SOL    HW228209   5.094   8.621   4.024 -0.0697 -0.1470  0.5179
41218SOL     OW28210   9.165   2.737   9.421  0.4269  0.7337 -0.1580
41218SOL    HW128211   9.195   2.696   9.340  0.2194 -1.2305  0.7145
41218SOL    HW228212   9.235   2.797   9.445  1.7894 -0.7318 -0.3282
41219SOL     OW28213   3.943   4.387   9.393  0.1447  0.0660 -0.1459
41219SOL    HW128214   3.909   4.299   9.413 -0.9793  0.0634 -1.8400
41219SOL    HW228215   4.036   4.381   9.412  0.2235 -1.7212 -0.8983
41220SOL     OW28216   1.776   8.352   6.804  0.1157  0.1637  0.2511
41220SOL    HW128217   1.840   8.423   6.810 -1.1778  1.3601  0.5009
41220SOL    HW228218   1.764   8.339   6.710  2.1326 -1.4466  0.1530
41221SOL     OW28219   8.924   7.083   0.421 -0.1596 -0.1402  0.3790
41221SOL    HW128220   8.855   7.140   0.455 -1.3529  0.0953 -2.1995
41221SOL    HW228221   8.877   7.012   0.376  1.2785 -0.8756 -0.0308
41222SOL     OW28222   0.274   9.566   3.489  0.0659  0.0418  0.0073
41222SOL    HW128223   0.367   9.555   3.508  0.2004 -0.3794 -0.8652
41222SOL    HW228224   0.261   9.525   3.404 -1.6327 -3.2528  1.6447
41223SOL     OW28225   7.338   7.101   4.785  0.0639 -0.6906  0.8539
41223SOL    HW128226   7.404   7.164   4.756 -0.1903 -1.1956 -0.9701
41223SOL    HW228227   7.314   7.054   4.705 -2.6870 -0.3536  1.4034
41224SOL     OW28228  11.578   8.498   1.948 -0.0661 -0.1294  0.0882
41224SOL    HW128229  11.669   8.472   1.933 -0.1777 -0.7824  0.4814
41224SOL    HW228230  11.583   8.579   1.999  0.2974 -0.3391  0.3852
41225SOL     OW28231  10.862  11.262   9.680 -0.1114  0.4962 -0.2681
41225SOL    HW128232  10.941  11.313   9.660 -0.6915  1.3975 -0.3097
41225SOL    HW228233  10.862  11.191   9.616 -0.0655  1.2844 -1.1462
41226SOL     OW28234   6.695   9.456   4.578  0.1062  0.5619  0.5614
41226SOL    HW128235   6.712   9.518   4.648  0.7055 -0.1445  1.0655
41226SOL    HW228236   6.755   9.481   4.508  0.8376  0.1609  1.0248
41227SOL     OW28237   0.056   6.007   0.412 -0.2769 -0.1884  0.5290
41227SOL    HW128238   0.042   6.086   0.359 -0.7541  0.0908  1.0510
41227SOL    HW228239  -0.032   5.972   0.426 -0.1600 -0.2624  1.1215
41228SOL     OW28240   5.501   0.183   5.771  0.4681  0.0716 -0.1270
41228SOL    HW128241   5.417   0.213   5.806  1.0534  1.4437  0.1508
41228SOL    HW228242   5.525   0.248   5.705  0.8971 -0.7907 -0.8503
41229SOL     OW28243   3.063   9.738   4.098  0.4618  0.2674 -0.0514
41229SOL    HW128244   3.066   9.825   4.057 -1.7628  1.2389  1.6916
41229SOL    HW228245   3.130   9.742   4.167 -0.0621  0.8373  0.4327
41230SOL     OW28246   2.378   8.697   9.510  0.0380  0.2928  0.4808
41230SOL    HW128247   2.404   8.717   9.420 -3.4627  0.9819 -0.5230
41230SOL    HW228248   2.413   8.610   9.527  1.6274  0.5613 -1.1331
41231SOL     OW28249   0.019   6.136   9.790  0.3444  0.0119 -0.5442
41231SOL    HW128250  -0.048   6.203   9.796  0.7501  0.3765  0.0217
41231SOL    HW228251   0.048   6.139   9.698 -0.6995 -0.4577 -0.9116
41232SOL     OW28252   7.758   8.707   7.264 -0.7098 -0.0119  0.0863
41232SOL    HW128253   7.747   8.693   7.358 -1.1196 -1.8226 -0.1801
41232SOL    HW228254   7.686   8.659   7.224 -1.1613  1.5966 -1.1413
41233SOL     OW28255   9.047  11.024   3.317 -0.0785  0.7295 -0.1068
41233SOL    HW128256   9.065  10.940   3.275 -1.5840  1.0883 -1.6032
41233SOL    HW228257   8.952  11.033   3.313  0.0503  2.6120 -0.2349
41234SOL     OW28258  11.429   0.639   0.937 -0.2865 -0.7578  0.2204
41234SOL    HW128259  11.488   0.594   0.998  0.2292  0.0858  0.3631
41234SOL    HW228260  11.389   0.708   0.989  1.0392  0.7221 -0.6423
41235SOL     OW28261   8.523   3.423   0.593 -0.0212 -0.2629 -0.0302
41235SOL    HW128262   8.447   3.436   0.537 -0.5004 -1.8215  0.2176
41235SOL    HW228263   8.530   3.328   0.603  2.0763 -0.1859 -0.2183
41236SOL     OW28264   6.445   9.398   0.476  0.2725 -0.5710  0.1575
41236SOL    HW128265   6.440   9.485   0.438 -4.1182  0.4996  2.4490
41236SOL    HW228266   6.538   9.383   0.492  1.4630  2.3266 -3.0459
41237SOL     OW28267  11.744   2.751   2.072  0.5245 -0.2508 -0.0231
41237SOL    HW128268  11.665   2.783   2.117  1.6419  0.4576  1.5523
41237SOL    HW228269  11.711   2.705   1.995 -1.4408 -0.3346  0.8081
41238SOL     OW28270   9.828   3.425   7.936 -0.5041  0.0140 -0.4581
41238SOL    HW128271   9.746   3.428   7.986  0.2854  2.9669  0.8883
41238SOL    HW228272   9.897   3.435   8.002  0.7836  0.1558 -1.7785
41239SOL     OW28273   3.777   3.342  10.890  0.2072 -0.1654 -0.3082
41239SOL    HW128274   3.757   3.304  10.976 -0.7815  1.6762  0.3511
41239SOL    HW228275   3.817   3.427  10.911  0.1543  0.2134 -1.6645
41240SOL     OW28276   3.667   9.749   4.977 -0.2483  0.5893  0.5256
41240SOL    HW128277   3.638   9.819   5.035 -0.8096  0.8796 -0.0955
41240SOL    HW228278   3.586   9.710   4.944  0.0645  0.6469 -0.3266
41241SOL     OW28279   0.116   2.269  10.752  0.0050  0.3295 -0.6349
41241SOL    HW128280   0.158   2.259  10.838  0.6568 -2.0141 -1.1406
41241SOL    HW228281   0.119   2.363  10.734  1.9183  0.6211  0.9048
41242SOL     OW28282   4.491   5.043   4.017  0.4453  0.0715  0.3148
41242SOL    HW128283   4.561   5.059   3.953  1.2481 -1.2165  0.8137
41242SOL    HW228284   4.421   5.002   3.967  0.8082 -0.3251  0.1227
41243SOL     OW28285   5.527   8.639  12.101  0.5142 -0.3959 -0.3032
41243SOL    HW128286   5.513   8.699  12.027  2.3869  0.8119  0.2520
41243SOL    HW228287   5.502   8.690  12.178 -0.9354 -1.4795 -0.0153
41244SOL     OW28288  10.509   7.844   3.257 -0.3556  0.4316  0.3947
41244SOL    HW128289  10.430   7.860   3.309  0.1038  2.0939  0.6450
41244SOL    HW228290  10.574   7.814   3.322 -0.1889  1.1311  0.5609
41245SOL     OW28291   1.517   9.118   0.076  0.1955  0.3743 -0.2592
41245SOL    HW128292   1.484   9.153  -0.007  0.4560  2.8177  0.5848
41245SOL    HW228293   1.444   9.069   0.113 -0.6855  1.1901 -0.8943
41246SOL     OW28294  10.541   1.209   4.105 -0.0408 -0.0361 -0.5952
41246SOL    HW128295  10.549   1.119   4.136  1.7854 -0.1892 -1.4022
41246SOL    HW228296  10.447   1.227   4.109 -0.5777 -2.3224 -1.3794
41247SOL     OW28297   1.110   4.685  10.155  0.6096 -0.1199 -0.8643
41247SOL    HW128298   1.152   4.607  10.118 -1.7789 -1.6097 -0.6795
41247SOL    HW228299   1.111   4.749  10.084  3.4915  0.1290 -0.7164
41248SOL     OW28300   4.758   9.342   5.944  0.3172  0.3575 -0.5388
41248SOL    HW128301   4.755   9.324   6.038 -0.7434 -1.4442 -0.8813
41248SOL    HW228302   4.850   9.362   5.927  0.4261  1.2928  0.9599
41249SOL     OW28303   3.250   8.794   3.292 -0.2930  0.0956 -0.3235
41249SOL    HW128304   3.180   8.859   3.300  0.0847  0.6615 -1.2842
41249SOL    HW228305   3.307   8.830   3.224  1.2621 -0.0534  0.8499
41250SOL     OW28306   7.032  10.847   6.122 -0.3394  0.1611 -0.1855
41250SOL    HW128307   6.987  10.830   6.204  0.2290 -0.3953  0.0222
41250SOL    HW228308   7.029  10.942   6.112 -0.1038  0.2678  0.6609
41251SOL     OW28309   7.157  10.039   8.442 -0.5052 -0.1723 -0.4285
41251SOL    HW128310   7.237  10.004   8.404 -1.5043 -1.8649 -1.0339
41251SOL    HW228311   7.116  10.089   8.372 -0.4103 -0.0266 -0.3803
41252SOL     OW28312   0.547   1.620   4.244  0.4075 -0.1538 -0.2456
41252SOL    HW128313   0.472   1.597   4.298 -0.4595 -0.7252 -1.6358
41252SOL    HW228314   0.611   1.551   4.260  0.6790  0.3659  0.9878
41253SOL     OW28315   8.593   5.061   0.902 -0.3994  0.3977 -0.1852
41253SOL    HW128316   8.543   5.130   0.858 -3.0906  0.2995  2.3508
41253SOL    HW228317   8.584   4.985   0.844 -2.6012  0.6231 -0.2459
41254SOL     OW28318   6.884   7.068   2.525 -0.3002 -0.1820  0.3544
41254SOL    HW128319   6.804   7.046   2.573 -0.0120  0.1387  0.9936
41254SOL    HW228320   6.882   7.011   2.448 -1.3870  0.1762  0.1065
41255SOL     OW28321  11.302   7.988   4.805  0.2418 -0.1703 -0.0845
41255SOL    HW128322  11.278   7.958   4.892 -0.8622  1.2985  0.1649
41255SOL    HW228323  11.232   7.956   4.748 -0.8458  1.6367  0.1552
41256SOL     OW28324   3.790   2.229   4.546 -0.1529 -0.2306 -0.2908
41256SOL    HW128325   3.785   2.319   4.513 -1.0887 -0.2296 -0.1615
41256SOL    HW228326   3.801   2.240   4.641 -0.3422 -0.2572 -0.2668
41257SOL     OW28327  11.353  10.296   0.645 -0.4173  0.5297  0.5037
41257SOL    HW128328  11.339  10.245   0.565 -2.3572 -0.7031  1.5519
41257SOL    HW228329  11.429  10.350   0.626 -0.9470  0.4361 -2.2447
41258SOL     OW28330   4.144   0.089   8.481  0.0523  0.0508 -0.1769
41258SOL    HW128331   4.231   0.129   8.469 -0.1710  0.0764 -2.0091
41258SOL    HW228332   4.108   0.084   8.393 -0.5530 -2.8334  0.1552
41259SOL     OW28333   8.544   5.319   3.498 -0.3918 -0.4940 -0.1856
41259SOL    HW128334   8.557   5.402   3.451  0.5714 -1.5421 -1.8718
41259SOL    HW228335   8.484   5.270   3.442 -2.1593 -0.4178  1.5398
41260SOL     OW28336  11.251   0.276  11.038  0.3524 -0.4887  0.1043
41260SOL    HW128337  11.280   0.345  11.098 -1.7795  2.8130 -2.3393
41260SOL    HW228338  11.170   0.244  11.076 -0.2048  0.5301 -0.1778
41261SOL     OW28339   8.727   8.337   9.514 -0.2541  0.7769 -0.1985
41261SOL    HW128340   8.651   8.299   9.470 -0.1172 -0.5277  0.6498
41261SOL    HW228341   8.719   8.431   9.498 -2.2955  0.7323  0.2335
41262SOL     OW28342   6.750   7.626   5.025 -0.6968 -0.0442 -0.3008
41262SOL    HW128343   6.754   7.550   4.967 -0.8805  0.1365 -0.5520
41262SOL    HW228344   6.837   7.632   5.064 -0.2437  0.4652 -1.3610
41263SOL     OW28345   0.367   0.736   9.004 -0.1836 -0.0477  0.0614
41263SOL    HW128346   0.285   0.691   8.985  0.0639 -0.9105  0.9853
41263SOL    HW228347   0.360   0.764   9.095  0.9926 -1.1390  0.5091
41264SOL     OW28348   5.698   2.060   4.963 -0.3814  0.1558  0.7019
41264SOL    HW128349   5.695   2.034   4.871  0.0777 -0.1368  0.7617
41264SOL    HW228350   5.632   2.005   5.005 -0.0694 -0.2482  0.6687
41265SOL     OW28351  11.428   1.646   6.549  0.7679  0.0503  0.3138
41265SOL    HW128352  11.414   1.566   6.500  0.0838 -0.2172  0.9221
41265SOL    HW228353  11.523   1.651   6.561  0.8161 -0.6646  0.2618
41266SOL     OW28354  11.421   6.328   4.355  0.2396  0.6135  0.5942
41266SOL    HW128355  11.490   6.261   4.359 -1.1504 -0.8200  1.8070
41266SOL    HW228356  11.415   6.351   4.262  0.3385 -1.4303  0.0438
41267SOL     OW28357   4.806   8.399   3.202 -0.2745  0.2425 -0.1007
41267SOL    HW128358   4.875   8.465   3.204  0.3256 -0.3976  1.0729
41267SOL    HW228359   4.828   8.343   3.128 -0.7552  1.2863 -1.0713
41268SOL     OW28360  10.158   3.221   2.151  0.1542  0.5722 -0.5947
41268SOL    HW128361  10.181   3.131   2.129 -0.0228  0.4852 -0.4244
41268SOL    HW228362  10.065   3.228   2.130  0.1415  0.6811 -0.5006
41269SOL     OW28363  11.255   7.756   3.356  0.0084 -0.0202 -0.1390
41269SOL    HW128364  11.237   7.787   3.267 -0.8333  0.0689  0.0470
41269SOL    HW228365  11.199   7.679   3.366 -0.1577  0.1646  0.4185
41270SOL     OW28366   6.869   2.410   3.411 -0.1994 -0.2247  0.4208
41270SOL    HW128367   6.775   2.419   3.428 -0.4216 -0.8690 -0.3983
41270SOL    HW228368   6.907   2.385   3.495 -0.7277  0.2238  0.7972
41271SOL     OW28369   7.272   4.324   8.056  0.2062  0.0098 -0.2791
41271SOL    HW128370   7.238   4.362   7.975 -1.7572 -0.2855  0.3585
41271SOL    HW228371   7.252   4.231   8.049 -0.4428  0.0611  0.7449
41272SOL     OW28372   3.946  10.066   3.244 -0.2881 -0.0092  0.0188
41272SOL    HW128373   4.007  10.111   3.303 -0.0629 -0.4974  0.1567
41272SOL    HW228374   3.892  10.137   3.209 -0.9954  0.2033  1.4527
41273SOL     OW28375  12.082   9.097   5.409  0.4627 -0.2469  0.0328
41273SOL    HW128376  12.022   9.097   5.484 -0.5166 -0.3428 -0.7303
41273SOL    HW228377  12.156   9.150   5.438 -0.2898  0.4394  0.7739
41274SOL     OW28378  10.441  11.327   7.516  0.2720 -0.2922  0.3871
41274SOL    HW128379  10.392  11.408   7.501  1.3897  0.0213 -2.1004
41274SOL    HW228380  10.395  11.261   7.464  0.7047 -0.7262  0.5483
41275SOL     OW28381   1.949   2.573   3.347  0.1126  0.0632  0.4727
41275SOL    HW128382   1.911   2.527   3.272  0.7318  0.7423 -0.2773
41275SOL    HW228383   1.898   2.654   3.353  0.3902  0.2367  0.4733
41276SOL     OW28384  10.018   1.566   8.334  0.2308  0.1060  0.4133
41276SOL    HW128385   9.968   1.566   8.416  0.1358 -0.6196  0.3652
41276SOL    HW228386  10.011   1.476   8.302  0.1397  0.4160 -0.4717
41277SOL     OW28387  10.290   0.456   2.078  0.3196 -0.0560 -0.5992
41277SOL    HW128388  10.211   0.405   2.064  0.0789 -0.4805  1.8546
41277SOL    HW228389  10.260   0.547   2.082  0.1698 -0.0875 -0.9217
41278SOL     OW28390   0.465   1.514   4.800 -0.3161 -0.0947  0.1600
41278SOL    HW128391   0.434   1.521   4.891 -0.9815 -0.0262 -0.0620
41278SOL    HW228392   0.417   1.584   4.754 -1.1232 -1.0802 -0.5386
41279SOL     OW28393   7.205   8.802   4.031  0.1790  0.1789  0.1494
41279SOL    HW128394   7.225   8.888   4.069  0.4977  0.3620 -0.4066
41279SOL    HW228395   7.231   8.739   4.098 -0.9130  0.5305  0.9358
41280SOL     OW28396   1.062   8.852   6.718  0.4255 -0.2771  0.6974
41280SOL    HW128397   1.154   8.869   6.696  0.3504  0.0861  0.6594
41280SOL    HW228398   1.032   8.932   6.761  0.3740 -0.7265  1.5106
41281SOL     OW28399   7.058   0.869   0.867 -0.5249  0.3853  0.0045
41281SOL    HW128400   7.008   0.815   0.805  1.6355  0.1592 -1.6794
41281SOL    HW228401   7.088   0.943   0.814 -0.2064  1.2043  1.3034
41282SOL     OW28402   4.065   8.300  10.160 -0.1385 -0.5429 -0.0226
41282SOL    HW128403   4.097   8.212  10.142 -0.0155 -0.5270  0.1168
41282SOL    HW228404   3.970   8.290  10.167 -0.0659 -0.7943  0.7106
41283SOL     OW28405  11.419   3.836   9.278  0.3235 -0.4311 -0.0529
41283SOL    HW128406  11.481   3.819   9.207  1.3278  2.0508  0.1252
41283SOL    HW228407  11.340   3.867   9.234  1.3696  2.3663 -0.2034
41284SOL     OW28408   3.493  11.175  11.075 -0.6219  0.1237  0.5583
41284SOL    HW128409   3.439  11.250  11.048 -2.0735 -0.4869  1.6050
41284SOL    HW228410   3.471  11.107  11.012 -0.8182 -0.0219  0.7835
41285SOL     OW28411  10.885   3.947   8.358 -0.2873  0.3159 -0.4864
41285SOL    HW128412  10.888   4.039   8.383  2.3853 -0.0582  0.8876
41285SOL    HW228413  10.902   3.948   8.263  0.6493  1.2028 -0.3258
41286SOL     OW28414   0.410   8.587   0.587 -0.7778  0.0262 -0.1773
41286SOL    HW128415   0.372   8.522   0.528 -0.9485  0.2942 -0.3650
41286SOL    HW228416   0.454   8.535   0.654 -2.4944 -0.3225  0.7364
41287SOL     OW28417  11.399   6.242   5.100 -0.3560  0.2849 -0.4391
41287SOL    HW128418  11.405   6.163   5.154 -5.0406 -0.5872 -0.7848
41287SOL    HW228419  11.386   6.210   5.011 -0.7078  1.5068 -0.8461
41288SOL     OW28420   6.469   8.751   5.165 -0.0474 -0.8136 -0.0903
41288SOL    HW128421   6.523   8.720   5.238  0.8211 -0.4264 -0.5552
41288SOL    HW228422   6.381   8.721   5.186  0.6077 -2.9291 -0.1361
41289SOL     OW28423   5.952   2.317  10.470  0.0868 -0.3655 -0.4935
41289SOL    HW128424   5.890   2.323  10.543  0.2426 -1.7751 -0.2072
41289SOL    HW228425   6.025   2.266  10.506  0.4758 -0.4788 -1.4315
41290SOL     OW28426   2.003   1.076   8.742  0.1213 -0.0711  0.2697
41290SOL    HW128427   1.981   0.997   8.693 -2.1264  0.9473 -0.4875
41290SOL    HW228428   1.935   1.082   8.809  2.1487 -0.4867  2.4753
41291SOL     OW28429  10.360   9.602   8.069  0.0235 -0.5388  0.5945
41291SOL    HW128430  10.402   9.598   8.155 -0.4809  0.3510  0.8864
41291SOL    HW228431  10.274   9.640   8.085 -1.1934 -2.8926  0.0938
41292SOL     OW28432   0.531  10.188   4.642 -0.9171  0.3621 -0.0783
41292SOL    HW128433   0.530  10.277   4.607  1.2576 -0.3005 -2.0630
41292SOL    HW228434   0.600  10.189   4.708  1.3825 -0.5033 -2.3272
41293SOL     OW28435   6.917   2.715   6.110 -0.4739 -0.4965 -0.1087
41293SOL    HW128436   6.862   2.728   6.032  1.3056  0.0541 -1.3183
41293SOL    HW228437   6.924   2.802   6.148 -0.3952 -0.5619  0.0235
41294SOL     OW28438   5.283   6.289   6.702  0.5202 -0.0306  0.0475
41294SOL    HW128439   5.195   6.272   6.736  0.0200  0.2766 -1.0193
41294SOL    HW228440   5.326   6.203   6.705 -0.3968 -0.5626 -0.9481
41295SOL     OW28441   7.183   1.116  10.863  0.4030 -0.0077  0.0164
41295SOL    HW128442   7.224   1.031  10.882 -1.8672 -1.2336 -0.2112
41295SOL    HW228443   7.112   1.096  10.803 -1.1368  1.8269  1.0881
41296SOL     OW28444   8.478   0.927   8.335  0.7915 -0.2587  0.1869
41296SOL    HW128445   8.482   0.864   8.263  3.4567  0.1158 -0.1073
41296SOL    HW228446   8.512   0.879   8.411 -2.0520 -0.6707  1.3184
41297SOL     OW28447   2.908   8.554   3.185 -0.1460 -0.1565  0.1132
41297SOL    HW128448   2.930   8.498   3.260 -0.7379  0.0407  0.4330
41297SOL    HW228449   2.868   8.631   3.223  1.8389  1.1072 -0.2185
41298SOL     OW28450   3.925   7.357  10.068 -0.3975 -0.3774 -0.2753
41298SOL    HW128451   4.018   7.378  10.057 -0.5953  0.5735 -0.1946
41298SOL    HW228452   3.901   7.311   9.987 -0.1591  0.5068 -0.8703
41299SOL     OW28453  11.539  11.140   9.694 -0.2410  0.2376  0.2633
41299SOL    HW128454  11.483  11.216   9.680 -0.0083  0.2421 -0.6794
41299SOL    HW228455  11.555  11.104   9.607  1.5256  0.4573  0.4493
41300SOL     OW28456   5.716   0.546   4.937  0.1329  0.4469 -0.3082
41300SOL    HW128457   5.706   0.457   4.905  0.7779  0.2243  0.0952
41300SOL    HW228458   5.705   0.540   5.032 -1.3214  1.0343 -0.4189
41301SOL     OW28459   1.331   6.226   2.938 -0.0828  0.3477  0.0639
41301SOL    HW128460   1.282   6.198   3.015 -0.5404  0.5813 -0.1366
41301SOL    HW228461   1.350   6.144   2.891  0.6639  0.1557  0.6934
41302SOL     OW28462   0.335   8.230   8.440  0.0206 -0.0005 -0.4476
41302SOL    HW128463   0.406   8.292   8.453  0.1128 -0.1168 -0.3892
41302SOL    HW228464   0.379   8.146   8.423 -0.0953 -0.4606  1.3319
41303SOL     OW28465  11.438   9.098  12.098 -0.8105  0.5777  0.3540
41303SOL    HW128466  11.441   9.181  12.144  2.4393  0.9970 -0.4012
41303SOL    HW228467  11.345   9.084  12.079 -2.0057  1.7587  4.3631
41304SOL     OW28468  11.162   0.814   1.917  0.7096  0.3751  0.2458
41304SOL    HW128469  11.101   0.762   1.865  3.0656 -1.7787 -0.5722
41304SOL    HW228470  11.122   0.818   2.004 -1.2776  0.3635 -0.6231
41305SOL     OW28471   9.421   8.102   2.942  0.0770 -0.4776  0.2743
41305SOL    HW128472   9.327   8.108   2.959 -0.0600 -2.8306  0.6894
41305SOL    HW228473   9.436   8.164   2.871 -2.0980 -1.1348 -0.8642
41306SOL     OW28474   4.204   8.437   2.583  0.2448 -0.0084 -0.2947
41306SOL    HW128475   4.286   8.484   2.574  0.4761  0.0803  1.8076
41306SOL    HW228476   4.229   8.346   2.599 -0.0977 -0.1137 -0.3257
41307SOL     OW28477   8.622   1.227   1.505  0.3587 -0.4529 -0.2795
41307SOL    HW128478   8.594   1.290   1.571  1.4343  0.3597 -0.5686
41307SOL    HW228479   8.629   1.144   1.553  1.6387  0.2243  0.7865
41308SOL     OW28480   1.012   7.483   0.226  0.2310  0.1710  0.2100
41308SOL    HW128481   0.984   7.505   0.138  0.4238 -3.6350 -0.9858
41308SOL    HW228482   0.931   7.482   0.277 -0.1072  0.8027 -0.3031
41309SOL     OW28483   4.872   9.449   0.737 -0.3799 -0.1413 -0.4422
41309SOL    HW128484   4.915   9.386   0.795  0.3056  0.5673 -0.1695
41309SOL    HW228485   4.942   9.504   0.703 -0.9481  0.3936 -0.7871
41310SOL     OW28486   7.304   2.137  11.570 -0.0228 -0.2380 -0.0742
41310SOL    HW128487   7.335   2.056  11.611  0.7624 -1.6342 -3.1301
41310SOL    HW228488   7.247   2.108  11.500 -0.3739  1.9370 -0.7675
41311SOL     OW28489   2.193  11.275   0.079  0.7048 -0.5196 -0.0870
41311SOL    HW128490   2.217  11.255   0.170  2.2342  1.6175  0.0606
41311SOL    HW228491   2.277  11.285   0.034 -0.0284 -0.7774 -1.5884
41312SOL     OW28492   6.622   2.217   3.752 -0.7429 -0.1998  0.0452
41312SOL    HW128493   6.686   2.166   3.703 -0.2125  0.6644 -0.1869
41312SOL    HW228494   6.671   2.250   3.827 -0.8156  0.7270 -0.3004
41313SOL     OW28495   0.420   5.406   4.600  0.0579 -0.2789 -0.0546
41313SOL    HW128496   0.351   5.457   4.557  1.3157  1.0360 -0.5573
41313SOL    HW228497   0.393   5.401   4.692 -1.1071 -0.4973 -0.3886
41314SOL     OW28498   5.606   6.759   4.897  0.4448 -0.1541 -0.3415
41314SOL    HW128499   5.526   6.708   4.902 -0.4308  1.0978 -1.1056
41314SOL    HW228500   5.639   6.743   4.808  0.6387 -0.0666 -0.2857
41315SOL     OW28501   2.052   6.412  10.728 -0.2029 -0.3830 -0.5604
41315SOL    HW128502   2.146   6.426  10.732 -0.1018 -0.8866 -0.9702
41315SOL    HW228503   2.013   6.492  10.763  0.3727 -0.0918 -0.5876
41316SOL     OW28504   5.363   9.353   9.368  0.0758 -0.0491 -0.2113
41316SOL    HW128505   5.442   9.331   9.416  0.6253 -0.9288 -1.4515
41316SOL    HW228506   5.293   9.350   9.433  1.1351  1.5194  1.0844
41317SOL     OW28507  10.799   0.954   1.179  0.3017 -0.0320 -0.2585
41317SOL    HW128508  10.726   0.967   1.240 -0.0563  1.2791 -0.9294
41317SOL    HW228509  10.847   1.037   1.181 -0.0186  0.2571 -2.1015
41318SOL     OW28510   6.691   6.496   7.819 -0.1026  0.0141 -0.2163
41318SOL    HW128511   6.777   6.502   7.777  0.5524  1.7655  1.2682
41318SOL    HW228512   6.699   6.546   7.900 -2.9499  1.5622 -0.7378
41319SOL     OW28513  11.955   8.057   3.332 -0.5079 -0.0728 -0.3927
41319SOL    HW128514  11.864   8.085   3.322 -0.1125  1.0786 -1.0866
41319SOL    HW228515  12.004   8.116   3.274  0.7739 -0.1092  0.6056
41320SOL     OW28516   4.259  10.373   3.714 -0.4574 -0.0274  0.1376
41320SOL    HW128517   4.270  10.466   3.733 -0.1239 -0.3196  1.4578
41320SOL    HW228518   4.265  10.367   3.619 -2.0404  1.5014 -0.1135
41321SOL     OW28519   6.289  11.703   9.740 -0.5460  0.0097  1.0097
41321SOL    HW128520   6.282  11.780   9.795  0.0581 -1.5322  3.3958
41321SOL    HW228521   6.244  11.634   9.789 -1.1210 -1.1977 -1.0553
41322SOL     OW28522   6.120   9.382   1.601 -0.2144 -0.0116  0.1144
41322SOL    HW128523   6.066   9.304   1.611 -1.6587  1.1216  1.9050
41322SOL    HW228524   6.166   9.390   1.685  0.6648  0.5287 -0.4069
41323SOL     OW28525   7.386  11.693   7.682 -0.2246 -0.0269  0.3546
41323SOL    HW128526   7.295  11.720   7.669 -0.6812 -1.3980  0.5467
41323SOL    HW228527   7.397  11.615   7.628  0.7335 -0.0957  0.6213
41324SOL     OW28528  10.332   6.060   3.384 -0.4022 -0.4989 -0.3567
41324SOL    HW128529  10.374   6.014   3.457  0.1875  0.1802 -0.2471
41324SOL    HW228530  10.266   6.115   3.426  0.0270 -0.0081 -0.3051
41325SOL     OW28531   6.972   6.864   6.637 -0.5077 -0.1879  0.3500
41325SOL    HW128532   6.973   6.781   6.590  0.1456 -0.5358  0.9615
41325SOL    HW228533   7.034   6.919   6.590  0.3477 -0.6248  0.9455
41326SOL     OW28534   9.873   9.541  10.571  0.2084  0.5195  0.6694
41326SOL    HW128535   9.819   9.620  10.578  0.2898  0.6781 -0.2959
41326SOL    HW228536   9.914   9.531  10.657 -1.9946 -0.0816  1.7367
41327SOL     OW28537   5.494   8.063   5.723 -0.3841 -0.0564 -0.4025
41327SOL    HW128538   5.491   8.027   5.812 -1.3259 -0.7423 -0.6966
41327SOL    HW228539   5.569   8.020   5.682  0.4607  0.7558  0.2526
41328SOL     OW28540   4.568   4.774   9.852 -0.3196  0.0101 -0.2739
41328SOL    HW128541   4.597   4.779   9.760 -1.2005 -2.7919 -0.8088
41328SOL    HW228542   4.493   4.833   9.856 -0.9106 -0.5984 -1.6617
41329SOL     OW28543   7.788   7.094   5.208  0.9179 -0.4545 -0.5416
41329SOL    HW128544   7.799   7.186   5.230  3.2899 -0.1528 -2.5372
41329SOL    HW228545   7.694   7.078   5.216  0.7875  1.1604  3.1298
41330SOL     OW28546   8.122   1.584   4.231 -0.8092 -0.3982  0.4190
41330SOL    HW128547   8.057   1.518   4.204 -0.1055 -0.9458  0.0336
41330SOL    HW228548   8.187   1.584   4.161  2.8242 -4.1194  3.2873
41331SOL     OW28549   5.051  11.124   1.546 -0.2968  0.2173  0.0720
41331SOL    HW128550   5.021  11.095   1.460  0.3545  0.1235 -0.1308
41331SOL    HW228551   5.092  11.047   1.584  0.5263  0.5846 -0.0511
41332SOL     OW28552   1.036   1.532   9.381 -0.0145  0.1855 -0.6623
41332SOL    HW128553   0.971   1.479   9.427  0.5348  0.9339  1.0709
41332SOL    HW228554   1.075   1.473   9.316 -0.1892 -1.2035  0.4587
41333SOL     OW28555   0.292   5.370   6.122 -0.8632 -0.3642 -0.6503
41333SOL    HW128556   0.241   5.306   6.171 -1.0597  1.0132  1.0181
41333SOL    HW228557   0.294   5.335   6.032 -0.4634 -2.9740  0.2809
41334SOL     OW28558  11.754  12.037   6.663  0.4747  0.0899  0.2064
41334SOL    HW128559  11.696  12.032   6.738 -1.3543 -1.4206 -1.1934
41334SOL    HW228560  11.710  12.095   6.601  1.2814  0.2582 -0.2353
41335SOL     OW28561   5.510   3.043  11.244 -0.2265 -0.0566  0.3320
41335SOL    HW128562   5.556   3.016  11.165  0.2684  1.1431  0.1806
41335SOL    HW228563   5.546   2.987  11.313 -2.3296 -2.7592 -0.6032
41336SOL     OW28564   5.297  10.924   9.577  0.1665  0.8878 -0.1465
41336SOL    HW128565   5.311  10.924   9.672  0.8684 -1.7701 -0.1808
41336SOL    HW228566   5.378  10.887   9.541 -0.2224  1.5549 -1.7829
41337SOL     OW28567   6.761   7.955   0.980 -0.1831  0.8709 -0.2237
41337SOL    HW128568   6.735   7.916   0.897 -2.1903 -1.3422  1.3082
41337SOL    HW228569   6.686   8.008   1.007 -0.4157 -0.0894  1.1074
41338SOL     OW28570   7.371   5.446   7.478 -0.1163 -0.0729  0.3612
41338SOL    HW128571   7.322   5.525   7.455  0.7361  0.8028  1.3940
41338SOL    HW228572   7.306   5.386   7.513 -0.9024 -0.1547 -1.1464
41339SOL     OW28573   3.806   5.090   7.619 -0.0789 -0.1006 -0.2260
41339SOL    HW128574   3.888   5.133   7.596  1.1907 -1.6543  1.1478
41339SOL    HW228575   3.773   5.055   7.536  1.9047 -1.4748 -0.5095
41340SOL     OW28576   0.826  10.812   7.398 -0.3032 -0.0004  0.3238
41340SOL    HW128577   0.747  10.775   7.439 -0.4019 -1.5802 -1.1991
41340SOL    HW228578   0.810  10.906   7.397 -2.3238 -0.3072 -0.2112
41341SOL     OW28579   8.285  10.273   9.917  0.1512  0.0678  0.4015
41341SOL    HW128580   8.261  10.355   9.874 -0.0984  0.1682  0.7304
41341SOL    HW228581   8.372  10.290   9.954  0.2554  0.0654  0.1583
41342SOL     OW28582   9.493   4.139   3.446 -0.0093 -0.0149 -0.3333
41342SOL    HW128583   9.508   4.113   3.355  1.8974  0.4607 -0.2031
41342SOL    HW228584   9.408   4.182   3.445 -0.1434 -0.2564 -1.8414
41343SOL     OW28585   7.977   2.857   8.354 -0.1178 -0.3544  0.3769
41343SOL    HW128586   7.902   2.847   8.295 -2.1694  1.3139  2.5250
41343SOL    HW228587   7.942   2.834   8.440  1.6357  1.1630  1.5483
41344SOL     OW28588   5.657  11.150   1.133 -0.5721 -0.4020  0.8184
41344SOL    HW128589   5.705  11.078   1.093  1.5693  1.1179  0.4739
41344SOL    HW228590   5.599  11.182   1.064  1.5049  0.7976 -0.4743
41345SOL     OW28591   6.042   3.224  10.697  0.7732  0.4336 -0.2001
41345SOL    HW128592   5.964   3.256  10.742  0.6567  0.5467 -0.4852
41345SOL    HW228593   6.071   3.298  10.643  1.8631  0.8791  0.9242
41346SOL     OW28594   0.350  11.280   7.322  0.5207  0.7196  0.2089
41346SOL    HW128595   0.391  11.212   7.268  2.2839  0.1834  2.1047
41346SOL    HW228596   0.422  11.339   7.345 -0.4870  1.7784  0.7154
41347SOL     OW28597  10.701   7.798   1.386 -0.0580 -0.1113 -0.6341
41347SOL    HW128598  10.655   7.779   1.304 -1.6049  1.6874 -0.2504
41347SOL    HW228599  10.784   7.751   1.378 -0.3755 -0.4003 -2.9958
41348SOL     OW28600  11.068  11.346   8.381 -0.6743 -0.8112  0.0058
41348SOL    HW128601  11.095  11.363   8.291  0.6311 -1.0414  0.3350
41348SOL    HW228602  11.132  11.282   8.414 -2.0189 -1.9001  0.6291
41349SOL     OW28603   3.167  11.421   8.466 -0.3044 -0.1316  0.4967
41349SOL    HW128604   3.236  11.358   8.489  0.3499 -0.8209 -2.8940
41349SOL    HW228605   3.087  11.368   8.463 -0.3323 -0.1088  0.8012
41350SOL     OW28606   1.339  10.705   1.125  0.1097 -0.1464  0.4165
41350SOL    HW128607   1.369  10.777   1.180 -0.2808  1.7282 -1.6771
41350SOL    HW228608   1.409  10.692   1.061 -0.4976 -0.5380 -0.1824
41351SOL     OW28609   7.533   4.084   9.598  0.4364  0.2513 -0.2830
41351SOL    HW128610   7.575   4.110   9.516  0.2447  0.6712 -0.2492
41351SOL    HW228611   7.519   3.990   9.589 -2.5862  0.7324 -2.1568
41352SOL     OW28612   0.499   2.854  10.078  0.2285 -0.3705 -0.1787
41352SOL    HW128613   0.440   2.813  10.142 -0.7816  0.7744 -0.3381
41352SOL    HW228614   0.570   2.791  10.068 -0.7409 -1.6132  0.3604
41353SOL     OW28615   2.774   5.093   5.383  0.1519  0.6161 -0.1029
41353SOL    HW128616   2.684   5.067   5.363  0.1662  0.7782 -0.3853
41353SOL    HW228617   2.826   5.057   5.311  0.5980 -1.1404  1.0182
41354SOL     OW28618  10.646   3.111   4.276  0.2460 -0.4304 -0.3837
41354SOL    HW128619  10.687   3.032   4.239 -0.9765 -1.1702 -0.2326
41354SOL    HW228620  10.581   3.077   4.338  1.3723  0.7691  1.5135
41355SOL     OW28621   6.856   7.189   9.054 -0.8100 -0.3473 -0.1323
41355SOL    HW128622   6.938   7.228   9.024 -0.0314 -1.4011  0.5912
41355SOL    HW228623   6.802   7.265   9.078 -0.9362  0.4740 -2.7028
41356SOL     OW28624   6.087   4.198   3.292  0.1072 -0.3935 -0.0846
41356SOL    HW128625   6.127   4.216   3.377  1.2551  0.9379 -0.8698
41356SOL    HW228626   6.107   4.106   3.274  0.8627 -0.3561  0.5530
41357SOL     OW28627   7.235   8.622   7.178 -0.4005 -0.1467  0.0245
41357SOL    HW128628   7.259   8.632   7.270 -0.6452 -0.7778  0.1671
41357SOL    HW228629   7.307   8.572   7.140 -0.6040 -0.4551  0.0332
41358SOL     OW28630   6.768   8.817   2.110 -0.1800 -0.3147  0.1706
41358SOL    HW128631   6.821   8.876   2.056 -0.0260  0.1981  0.8594
41358SOL    HW228632   6.827   8.792   2.182 -0.1840 -1.4556 -0.2008
41359SOL     OW28633   8.073   0.983   9.668 -0.2070  0.6858  0.2072
41359SOL    HW128634   7.978   0.988   9.663 -0.2310 -0.4848 -1.1490
41359SOL    HW228635   8.090   0.911   9.729 -0.3338 -1.8775 -2.5312
41360SOL     OW28636   4.563   0.071  11.976 -0.2585 -0.1579 -0.7341
41360SOL    HW128637   4.601   0.132  12.039 -0.0104 -0.3161 -0.7312
41360SOL    HW228638   4.469   0.074  11.993 -0.2201  0.0250 -0.5575
41361SOL     OW28639   4.931   7.340   5.070 -0.1656 -0.5555 -0.3022
41361SOL    HW128640   5.022   7.317   5.088 -0.7677 -1.8299  1.2868
41361SOL    HW228641   4.906   7.398   5.142 -0.5444  0.0364 -0.8930
41362SOL     OW28642   4.192   4.075   8.082  0.3251 -0.1349 -0.1602
41362SOL    HW128643   4.138   4.153   8.076  1.5939  0.7354 -0.6979
41362SOL    HW228644   4.218   4.071   8.174 -0.0327 -0.1327 -0.0569
41363SOL     OW28645   2.240   3.962   8.963 -0.3122 -0.1014 -0.2834
41363SOL    HW128646   2.287   3.880   8.950  1.4379  1.1177 -2.0928
41363SOL    HW228647   2.288   4.027   8.912 -2.1511  1.9028  0.3540
41364SOL     OW28648  11.156   3.225   0.791  0.5786 -0.8292 -0.4617
41364SOL    HW128649  11.173   3.314   0.823 -0.1848 -0.8602  0.0611
41364SOL    HW228650  11.120   3.179   0.867 -0.8484 -1.0400 -1.2191
41365SOL     OW28651   9.080   2.002   2.524 -0.4982  0.0620  0.3707
41365SOL    HW128652   9.005   2.010   2.464  0.3261 -2.2193 -1.0756
41365SOL    HW228653   9.157   2.006   2.467  0.3673 -1.0161  1.4149
41366SOL     OW28654   6.827  10.090   8.989 -0.2390 -0.0210 -0.6198
41366SOL    HW128655   6.806   9.997   8.978 -1.0878  0.1922 -0.8462
41366SOL    HW228656   6.897  10.106   8.926 -0.7011 -0.3068 -1.2188
41367SOL     OW28657   6.637   8.106  11.719 -0.0559  0.1672  0.4427
41367SOL    HW128658   6.631   8.014  11.747  2.4504  0.2020  1.3308
41367SOL    HW228659   6.692   8.103  11.641  0.0199  0.9130  0.4650
41368SOL     OW28660  10.756   3.747  10.727 -0.3979  0.4408 -0.2618
41368SOL    HW128661  10.768   3.824  10.672 -1.3764 -0.2239 -1.4877
41368SOL    HW228662  10.710   3.779  10.804 -0.7568  1.1126 -0.7439
41369SOL     OW28663   0.714   9.538   7.567  0.1771  0.2718 -0.4419
41369SOL    HW128664   0.679   9.594   7.637  1.4212  1.4361 -0.7008
41369SOL    HW228665   0.662   9.458   7.572  1.0803 -0.2425  2.7061
41370SOL     OW28666   0.550   3.466   3.036 -0.5971  0.5396  0.2634
41370SOL    HW128667   0.528   3.410   3.111  0.9231 -1.4540 -0.6930
41370SOL    HW228668   0.467   3.508   3.012 -1.2815  0.6294  2.5308
41371SOL     OW28669   3.722   0.939   2.668  0.2234  0.6941 -0.1382
41371SOL    HW128670   3.679   0.957   2.752  0.4430 -0.1370  0.1671
41371SOL    HW228671   3.794   0.879   2.691  0.7869  1.0978 -0.8092
41372SOL     OW28672   1.364   2.090   2.502  0.4897 -0.0306 -0.2546
41372SOL    HW128673   1.418   2.083   2.581 -0.5937 -1.3775  0.4112
41372SOL    HW228674   1.282   2.046   2.525  0.2987 -0.8186 -2.2738
41373SOL     OW28675   1.063   8.342   1.889  0.2780  0.0286 -0.1201
41373SOL    HW128676   0.983   8.370   1.935  0.3934  1.0802 -0.5262
41373SOL    HW228677   1.050   8.370   1.799  0.3738 -1.3750 -0.5981
41374SOL     OW28678  10.485   7.208   5.997 -0.3060  0.1133  0.0449
41374SOL    HW128679  10.580   7.196   6.002 -0.4230 -0.7573  0.2566
41374SOL    HW228680  10.465   7.202   5.904 -0.2719 -0.6908  0.0827
41375SOL     OW28681   0.532   7.793   9.331 -0.7445 -0.2311 -0.4470
41375SOL    HW128682   0.620   7.782   9.294  0.4240  1.9523  1.4053
41375SOL    HW228683   0.541   7.767   9.422 -0.9749  3.3097  0.7434
41376SOL     OW28684   8.488  11.100  10.696 -0.3693 -0.8154 -0.1496
41376SOL    HW128685   8.414  11.040  10.686  0.0044 -1.2384 -0.4075
41376SOL    HW228686   8.559  11.045  10.727 -0.0073 -0.5054 -0.4294
41377SOL     OW28687   4.848   2.212   5.954  0.2815 -0.5419 -0.1871
41377SOL    HW128688   4.922   2.214   5.894  0.0805 -0.3043 -0.4301
41377SOL    HW228689   4.771   2.203   5.897 -0.2055  2.7771 -0.2426
41378SOL     OW28690   6.584   6.931   5.805  0.7006  0.1699  0.1766
41378SOL    HW128691   6.623   6.865   5.748  0.4263 -0.2565  0.4745
41378SOL    HW228692   6.503   6.956   5.762  0.4469 -0.2214  0.4225
41379SOL     OW28693  11.266   3.914   3.519  0.1297  0.1413 -0.0631
41379SOL    HW128694  11.345   3.967   3.508  2.2982 -2.3604  1.8943
41379SOL    HW228695  11.229   3.943   3.602 -0.0522  0.2186 -0.1725
41380SOL     OW28696   8.311   2.805  10.673 -0.2326  0.6979 -0.5150
41380SOL    HW128697   8.337   2.816  10.582  0.3702 -0.6114 -0.5307
41380SOL    HW228698   8.305   2.710  10.685 -0.4583  0.8508  0.7624
41381SOL     OW28699   5.239  11.114   2.934  0.6198  0.2136 -0.0095
41381SOL    HW128700   5.253  11.140   3.025 -1.3119  0.3760  0.2938
41381SOL    HW228701   5.182  11.182   2.898  1.2265  0.0673 -1.3068
41382SOL     OW28702   1.670   7.555   1.329  0.3006 -0.0055  0.0571
41382SOL    HW128703   1.654   7.560   1.235 -2.0293  2.1048  0.4796
41382SOL    HW228704   1.749   7.607   1.343  0.4855 -0.0743 -0.6909
41383SOL     OW28705  11.587   5.673  11.010 -0.2741  0.4385  0.2760
41383SOL    HW128706  11.564   5.663  11.102  0.5938 -1.8250  0.3167
41383SOL    HW228707  11.654   5.607  10.994 -0.0405  1.0971 -1.8692
41384SOL     OW28708   1.933   7.352   9.559  0.4347  0.1959 -0.1539
41384SOL    HW128709   1.985   7.278   9.527 -2.5932 -0.6498 -3.8464
41384SOL    HW228710   1.905   7.327   9.647 -0.1394 -2.9515 -1.1330
41385SOL     OW28711  10.219   7.986   6.610  0.3025  0.5090  0.1223
41385SOL    HW128712  10.160   8.044   6.658 -0.5499 -0.5826  0.4458
41385SOL    HW228713  10.162   7.916   6.577  1.1749  0.2432 -0.8877
41386SOL     OW28714   4.258  10.807   7.517  0.2070 -0.0289  0.0542
41386SOL    HW128715   4.293  10.812   7.606  1.4843  0.3635 -0.4394
41386SOL    HW228716   4.165  10.825   7.526  0.2058 -0.6159  1.3813
41387SOL     OW28717  11.572   7.251   6.080 -0.1501 -0.2241  0.5230
41387SOL    HW128718  11.563   7.291   6.166  0.2223 -2.0439  1.4677
41387SOL    HW228719  11.595   7.160   6.098  0.3408 -0.5638 -1.5154
41388SOL     OW28720   6.745   5.953   5.067  0.5861 -0.0456  0.2181
41388SOL    HW128721   6.828   5.906   5.059  1.0306  0.7987 -0.3328
41388SOL    HW228722   6.697   5.931   4.987  0.5718  0.0208  0.2086
41389SOL     OW28723  10.843   2.503   4.474  0.0299  0.4272  0.1294
41389SOL    HW128724  10.824   2.481   4.383 -0.0383 -0.3183  0.3165
41389SOL    HW228725  10.938   2.510   4.479  0.1257 -0.8218  0.2745
41390SOL     OW28726   6.873   2.156   5.784  0.2420  0.1292  0.1963
41390SOL    HW128727   6.795   2.159   5.728 -0.0705  0.5970  0.6474
41390SOL    HW228728   6.935   2.101   5.736 -0.4547 -0.4590 -0.0518
41391SOL     OW28729  10.380  10.594  11.310  0.7476  0.6974 -0.4185
41391SOL    HW128730  10.441  10.624  11.377 -0.6289 -0.6510  1.5251
41391SOL    HW228731  10.300  10.645  11.325 -0.2668 -1.0372  0.3783
41392SOL     OW28732   0.538   2.830   6.108 -0.4523 -0.1280  0.1263
41392SOL    HW128733   0.527   2.769   6.035 -0.2875  1.5219 -1.3561
41392SOL    HW228734   0.580   2.779   6.177 -0.9297 -1.8340 -0.8028
41393SOL     OW28735   6.281   9.556   1.015 -0.8089  0.4869  0.1910
41393SOL    HW128736   6.299   9.471   0.973  1.1525 -0.0214  1.9134
41393SOL    HW228737   6.193   9.546   1.052 -0.4276 -0.9734  0.7696
41394SOL     OW28738   6.624   6.877  10.112  0.0618 -0.0033  0.1341
41394SOL    HW128739   6.625   6.957  10.060 -2.3135 -0.2181 -0.3996
41394SOL    HW228740   6.564   6.896  10.184  1.0225 -0.6749  1.1379
41395SOL     OW28741   8.116   8.100   8.983 -0.6409 -0.1071 -0.0373
41395SOL    HW128742   8.136   8.096   8.890 -0.3119 -0.7173  0.0589
41395SOL    HW228743   8.068   8.019   9.001  0.6799 -0.7714  0.6461
41396SOL     OW28744   2.528   0.970   0.143  0.2927  0.0838 -0.7984
41396SOL    HW128745   2.447   0.999   0.184 -1.5164 -2.4423 -2.3256
41396SOL    HW228746   2.580   0.934   0.215 -0.2141  1.1164  0.1048
41397SOL     OW28747   1.414   0.051   3.412 -0.1393 -0.1360 -0.1905
41397SOL    HW128748   1.335   0.045   3.359  1.4673 -1.3218 -2.6191
41397SOL    HW228749   1.450   0.138   3.393 -0.2654 -0.0320  0.0403
41398SOL     OW28750   6.292   5.668   4.025  0.6603  0.3178  0.2333
41398SOL    HW128751   6.304   5.763   4.031  0.6864  0.4053 -0.9849
41398SOL    HW228752   6.296   5.638   4.115  1.2497  1.4063  0.5879
41399SOL     OW28753   8.706   1.836   5.852  0.0048  0.2092 -1.0539
41399SOL    HW128754   8.619   1.866   5.827 -0.5421 -0.6356 -0.2214
41399SOL    HW228755   8.742   1.908   5.903 -0.6591  0.1197 -0.4406
41400SOL     OW28756   5.040   7.738   9.916  0.5214  0.1289 -0.4653
41400SOL    HW128757   5.113   7.723   9.976  1.8774  0.0582 -2.0435
41400SOL    HW228758   5.016   7.650   9.885 -1.7645 -0.1142  1.6240
41401SOL     OW28759   2.854  11.381   1.918 -0.5581 -0.4026 -0.1286
41401SOL    HW128760   2.840  11.467   1.878 -0.6495  0.2498  1.2459
41401SOL    HW228761   2.855  11.320   1.844 -1.9341  0.5955 -1.0249
41402SOL     OW28762  11.282   2.648   6.134 -0.5621  0.1904  0.0123
41402SOL    HW128763  11.357   2.708   6.137  0.8085 -1.4695  0.1858
41402SOL    HW228764  11.305   2.583   6.068 -1.2272 -1.1378  1.0428
41403SOL     OW28765   3.169   4.095   9.022  0.0175 -0.4750 -0.5922
41403SOL    HW128766   3.103   4.083   9.090  1.5661 -1.6848  0.7838
41403SOL    HW228767   3.125   4.066   8.942 -1.0188 -1.6308  0.3446
41404SOL     OW28768  11.179   7.602   6.871  0.5574  0.7310 -0.3485
41404SOL    HW128769  11.128   7.534   6.827  2.3461  0.0641 -1.5342
41404SOL    HW228770  11.255   7.615   6.814  1.8854  1.4234  1.4828
41405SOL     OW28771  11.304   5.439   6.880  0.1059 -0.3134  0.0220
41405SOL    HW128772  11.370   5.409   6.943 -0.5764 -0.3687  0.7102
41405SOL    HW228773  11.226   5.388   6.899 -0.1525 -0.2503 -0.7963
41406SOL     OW28774   0.588   9.581   4.380 -0.6620  0.4062  0.5487
41406SOL    HW128775   0.563   9.645   4.313 -1.0585 -1.4905 -1.1922
41406SOL    HW228776   0.513   9.523   4.388  0.9300 -1.9352 -0.5188
41407SOL     OW28777   2.822   0.757   4.122 -0.1822  0.2198  0.0665
41407SOL    HW128778   2.812   0.837   4.071 -0.0116  1.5691  2.0570
41407SOL    HW228779   2.913   0.758   4.152 -0.7748  0.5480  2.0320
41408SOL     OW28780   4.483   4.704   7.255  0.3624 -0.0608 -0.0399
41408SOL    HW128781   4.464   4.614   7.280  0.2250 -0.0467 -0.0952
41408SOL    HW228782   4.560   4.727   7.307  2.2284 -1.1837 -2.0864
41409SOL     OW28783   3.241   5.432   2.729  0.6675  0.1728 -0.4792
41409SOL    HW128784   3.291   5.359   2.765 -1.1737 -0.3095  1.2559
41409SOL    HW228785   3.304   5.479   2.675  3.0540 -0.3483  1.6261
41410SOL     OW28786   6.983  10.831   0.395  0.1429  0.7439  0.4666
41410SOL    HW128787   6.900  10.857   0.436  0.6442  1.4601  1.0476
41410SOL    HW228788   7.047  10.839   0.465  0.8271  0.8939 -0.1745
41411SOL     OW28789   5.813   9.277   9.401 -0.1968  0.3956  0.0481
41411SOL    HW128790   5.851   9.335   9.466  1.4982 -1.0323  0.4003
41411SOL    HW228791   5.857   9.300   9.319  2.1264 -1.7100  0.5791
41412SOL     OW28792   2.323  11.227  10.494 -0.0863  0.3075 -0.4338
41412SOL    HW128793   2.258  11.158  10.501 -0.6256  0.7223 -1.2923
41412SOL    HW228794   2.313  11.278  10.574 -0.5279  0.1256 -0.3741
41413SOL     OW28795   7.485   2.326   1.531  0.5261 -0.1115  0.0429
41413SOL    HW128796   7.566   2.327   1.481 -0.1882 -1.0301 -1.1920
41413SOL    HW228797   7.479   2.238   1.566  0.4417  0.1868  0.7945
41414SOL     OW28798   3.546   3.193   6.587  0.0057  0.0673  0.2981
41414SOL    HW128799   3.560   3.287   6.581 -0.0543  0.0103 -1.2461
41414SOL    HW228800   3.463   3.183   6.634 -0.3937  0.8348 -0.2221
41415SOL     OW28801  10.187  10.970   5.245  0.0661  0.3605 -0.6191
41415SOL    HW128802  10.243  10.985   5.321  1.3611 -0.9135 -1.2705
41415SOL    HW228803  10.177  10.875   5.241  0.1290  0.3920 -2.0994
41416SOL     OW28804   0.021  10.265   5.519 -0.1296 -0.6244  0.1038
41416SOL    HW128805   0.052  10.179   5.492 -0.1983 -1.9271  3.6558
41416SOL    HW228806  -0.052  10.247   5.579 -2.5211  2.0921 -1.7337
41417SOL     OW28807   4.648   9.941   9.798  0.1847  0.0598  0.2826
41417SOL    HW128808   4.574   9.897   9.838 -0.6485  0.8262 -0.3815
41417SOL    HW228809   4.666  10.015   9.856  1.2879 -0.8369  1.1452
41418SOL     OW28810   0.169   6.498   8.720 -0.0124  0.3293 -0.4862
41418SOL    HW128811   0.228   6.573   8.715 -1.1519  1.2703 -0.4310
41418SOL    HW228812   0.092   6.532   8.766 -0.6967 -0.7837 -0.7724
41419SOL     OW28813   5.405   9.095  10.692 -0.0391  0.1398  0.2686
41419SOL    HW128814   5.397   9.036  10.617 -1.3301  0.5031  0.0910
41419SOL    HW228815   5.373   9.179  10.659 -0.4508  0.3512  1.1786
41420SOL     OW28816   7.188   8.423  10.117  0.2797 -0.5831  0.4127
41420SOL    HW128817   7.124   8.489  10.146 -0.3161 -0.0475 -1.8914
41420SOL    HW228818   7.135   8.348  10.092  0.5424 -0.2975 -1.0941
41421SOL     OW28819   3.542   3.412   7.899  0.4195  0.7831 -0.7006
41421SOL    HW128820   3.589   3.494   7.914  0.2488  0.7089  0.3114
41421SOL    HW228821   3.594   3.346   7.943 -0.0712  0.5371 -0.4747
41422SOL     OW28822   4.223   8.227  10.799  0.4531 -0.2527  0.1765
41422SOL    HW128823   4.284   8.295  10.769 -0.6423 -0.0343 -1.7283
41422SOL    HW228824   4.238   8.222  10.893  2.8063  0.3605 -0.0975
41423SOL     OW28825   7.976   9.627   6.642  0.1975 -0.1865  0.3400
41423SOL    HW128826   7.897   9.641   6.694  0.2063  0.6966  0.1263
41423SOL    HW228827   8.017   9.550   6.682  0.1591  0.4099  1.5983
41424SOL     OW28828   4.043   2.619   1.538 -0.3389  0.4896  0.5159
41424SOL    HW128829   4.129   2.612   1.497 -0.3958  1.2072  0.2685
41424SOL    HW228830   3.983   2.635   1.465 -0.7266 -0.2640  0.6564
41425SOL     OW28831   1.472   6.546   5.546  0.7216  0.3653 -0.0637
41425SOL    HW128832   1.459   6.570   5.637 -0.4224 -0.2343 -0.0532
41425SOL    HW228833   1.398   6.585   5.500  0.9002  0.0506 -0.6293
41426SOL     OW28834   1.604   2.844  10.147  0.1986 -0.7413  0.3259
41426SOL    HW128835   1.632   2.772  10.090  0.4845 -1.3404  1.2046
41426SOL    HW228836   1.548   2.803  10.212  0.4518 -0.1931  0.9028
41427SOL     OW28837   1.852   1.792  11.433  0.1026  0.3808  0.5618
41427SOL    HW128838   1.904   1.872  11.432  0.8989 -0.1214 -0.5320
41427SOL    HW228839   1.916   1.722  11.448 -0.1373 -0.2905 -1.2059
41428SOL     OW28840   1.622   8.658   1.144  0.4738  0.2605  0.9876
41428SOL    HW128841   1.669   8.603   1.207  1.2771  0.7913  0.8643
41428SOL    HW228842   1.530   8.650   1.170  0.4607 -1.7616  0.4920
41429SOL     OW28843   8.867   7.487   2.021 -0.1675  0.1022  0.3231
41429SOL    HW128844   8.898   7.549   2.087 -1.5369  0.7515  0.3815
41429SOL    HW228845   8.796   7.440   2.064 -0.4717 -0.0951 -0.3806
41430SOL     OW28846   3.169   6.959   2.265  0.4576 -0.0100  0.0662
41430SOL    HW128847   3.175   6.914   2.349 -2.9567  1.7763  1.4807
41430SOL    HW228848   3.229   7.033   2.273  0.5363 -0.1372  0.7072
41431SOL     OW28849   5.012   8.092  10.581  0.3372  0.1742 -0.1601
41431SOL    HW128850   5.012   8.060  10.490  0.6938  0.7417 -0.3588
41431SOL    HW228851   5.092   8.057  10.619  0.1086 -0.1972 -0.0094
41432SOL     OW28852   9.900   3.348   7.371 -0.3219 -0.3347 -0.1405
41432SOL    HW128853   9.990   3.333   7.399 -0.4992  0.7918  1.1271
41432SOL    HW228854   9.896   3.311   7.283  1.9224  1.2999 -1.0245
41433SOL     OW28855   9.405   6.326  10.618 -0.0872  0.2808  0.1060
41433SOL    HW128856   9.350   6.347  10.693  0.6512 -0.8011  0.9700
41433SOL    HW228857   9.494   6.337  10.649  0.2266  0.1807 -0.7270
41434SOL     OW28858   0.977   2.762   7.242  0.0117 -0.8028 -0.0932
41434SOL    HW128859   1.014   2.759   7.154  2.6115 -2.7327  0.9347
41434SOL    HW228860   1.007   2.846   7.277  2.0530 -1.5323  0.0736
41435SOL     OW28861   3.063  11.683   1.863  0.1575  0.3210  0.0231
41435SOL    HW128862   3.053  11.662   1.956 -1.0818 -0.0106 -0.1598
41435SOL    HW228863   3.099  11.772   1.862 -0.8025  0.7476  0.8406
41436SOL     OW28864   3.218   5.242   9.440 -0.0284  0.0761  0.0501
41436SOL    HW128865   3.273   5.280   9.508 -0.6141 -0.0374  0.6018
41436SOL    HW228866   3.231   5.297   9.363  1.4560 -0.4092 -0.0777
41437SOL     OW28867   4.704   4.011   8.345  0.3906  0.1588 -0.7323
41437SOL    HW128868   4.652   3.955   8.287 -1.2737  1.4190 -0.5427
41437SOL    HW228869   4.714   3.960   8.425 -1.3969  0.2016 -0.4339
41438SOL     OW28870   7.296   1.341   2.973 -0.0470  0.4906 -0.0349
41438SOL    HW128871   7.314   1.359   2.881  1.6739 -4.0710 -0.8246
41438SOL    HW228872   7.382   1.338   3.014 -0.3946 -1.7215  0.6752
41439SOL     OW28873  11.193   1.480   7.640 -0.1373 -0.5872 -0.0154
41439SOL    HW128874  11.174   1.552   7.699 -0.6843  0.0013 -0.8972
41439SOL    HW228875  11.286   1.490   7.619  0.0233 -0.7110  0.5981
41440SOL     OW28876  11.298   9.901  11.299 -0.1371 -0.3120  0.0803
41440SOL    HW128877  11.226   9.872  11.355 -0.9826 -1.0116 -1.3209
41440SOL    HW228878  11.355   9.952  11.357 -2.0171  0.7162  1.0980
41441SOL     OW28879  10.643   5.655  10.064 -0.1749 -0.3562 -0.6216
41441SOL    HW128880  10.575   5.689  10.007 -0.6170  0.2379  0.2432
41441SOL    HW228881  10.652   5.721  10.134  0.3575 -1.0535 -0.0106
41442SOL     OW28882   6.446  10.181   6.409 -0.6013 -0.0425 -0.0749
41442SOL    HW128883   6.367  10.136   6.439  0.1724 -1.4383 -0.0275
41442SOL    HW228884   6.417  10.233   6.334 -1.4045 -1.3027 -0.6757
41443SOL     OW28885   4.109  11.332   4.995  0.2734 -0.2620  0.2204
41443SOL    HW128886   4.048  11.366   5.061  0.3035  1.6525 -0.6810
41443SOL    HW228887   4.060  11.337   4.913  1.6259  1.4169 -0.5385
41444SOL     OW28888  11.121   9.393   8.185  0.0993 -0.2320 -0.3323
41444SOL    HW128889  11.104   9.396   8.279  1.1393  1.2825 -0.1541
41444SOL    HW228890  11.133   9.485   8.160  1.2273 -0.7034 -1.6741
41445SOL     OW28891   3.662   4.768   1.765  0.3560  0.7576  0.1003
41445SOL    HW128892   3.749   4.806   1.769  0.4124  0.5637  0.8339
41445SOL    HW228893   3.675   4.676   1.789 -0.0881  0.8010  0.5208
41446SOL     OW28894   7.942   4.273   4.272 -0.2340 -0.0137 -0.2949
41446SOL    HW128895   7.969   4.214   4.203  2.4788 -0.5322  1.0845
41446SOL    HW228896   7.915   4.216   4.344  1.7903  0.3424  0.8145
41447SOL     OW28897   5.247   2.822   8.033 -0.1197 -1.0195 -0.1540
41447SOL    HW128898   5.157   2.835   8.063 -0.5492 -0.8378 -1.4219
41447SOL    HW228899   5.301   2.866   8.099 -1.1158  1.0258 -0.5946
41448SOL     OW28900   3.345   0.191   9.058 -1.0407  0.7139  0.3499
41448SOL    HW128901   3.271   0.163   9.112 -0.9173  1.0749  0.7091
41448SOL    HW228902   3.328   0.151   8.973 -1.5688  0.6674  0.4710
41449SOL     OW28903   4.734   2.951   1.704  0.3878  0.4406 -0.3991
41449SOL    HW128904   4.823   2.980   1.684  0.2178  1.1554 -0.1364
41449SOL    HW228905   4.736   2.857   1.688  1.6270  0.1642  1.0519
41450SOL     OW28906   8.346   9.229  10.394 -0.3515 -0.4166  0.1397
41450SOL    HW128907   8.425   9.255  10.441  0.7098 -1.3572 -1.0514
41450SOL    HW228908   8.304   9.312  10.371  0.7662  0.1294 -0.0024
41451SOL     OW28909  10.192   3.791   6.728 -0.0450 -0.0865 -0.0007
41451SOL    HW128910  10.116   3.797   6.670  0.3475  2.6041 -0.3692
41451SOL    HW228911  10.165   3.732   6.798 -1.5930 -1.0538 -1.3392
41452SOL     OW28912  11.961   9.399   4.618 -0.2965 -1.0811  0.4743
41452SOL    HW128913  12.001   9.407   4.531  1.8270 -1.1482  1.4022
41452SOL    HW228914  11.886   9.341   4.603 -0.8878  0.1088 -1.5690
41453SOL     OW28915   8.444  11.171   0.970  0.4474 -0.5561  0.1276
41453SOL    HW128916   8.481  11.253   1.004 -0.8942  0.4578 -0.7171
41453SOL    HW228917   8.350  11.180   0.985  0.0431 -0.9992 -1.8403
41454SOL     OW28918   2.717   9.645   3.389  0.3853  0.2436 -0.0437
41454SOL    HW128919   2.739   9.720   3.334 -0.1398  0.9860  0.7261
41454SOL    HW228920   2.795   9.629   3.441  0.4160  0.4206 -0.0350
41455SOL     OW28921   4.435   3.964   1.089  0.1295 -0.0706 -0.1913
41455SOL    HW128922   4.483   3.923   1.161  1.1968  0.6344 -0.4868
41455SOL    HW228923   4.343   3.948   1.110  0.4700 -2.0370  0.0461
41456SOL     OW28924   5.345   7.510   9.110  0.1655 -0.3071  0.3229
41456SOL    HW128925   5.315   7.424   9.140  0.8292 -0.6603 -0.0137
41456SOL    HW228926   5.312   7.517   9.021  1.2059 -0.7656 -0.1060
41457SOL     OW28927  10.404   3.697   9.936 -0.3901 -0.2477 -0.2579
41457SOL    HW128928  10.430   3.683   9.846  0.1754 -2.3257  0.1741
41457SOL    HW228929  10.474   3.659   9.988 -0.0856  2.0072  1.1444
41458SOL     OW28930  11.000   5.992   5.635  0.2534  0.2465  0.0077
41458SOL    HW128931  11.059   6.066   5.620  0.5645  0.2275  1.0724
41458SOL    HW228932  11.052   5.930   5.686 -1.0655  0.8036  2.1677
41459SOL     OW28933   7.496   8.700   7.627  0.2607 -0.3788  0.2450
41459SOL    HW128934   7.506   8.691   7.722  2.2485 -2.9482 -0.0761
41459SOL    HW228935   7.585   8.689   7.593 -0.6821 -1.8283 -1.9990
41460SOL     OW28936   6.271   9.208   3.347 -0.6019 -0.4130  0.1189
41460SOL    HW128937   6.286   9.237   3.436 -1.9421  0.1842  0.1653
41460SOL    HW228938   6.281   9.287   3.294  0.0475 -0.7362 -0.2600
41461SOL     OW28939   7.498   9.173  11.152  0.5770 -0.5459  0.2279
41461SOL    HW128940   7.475   9.099  11.096 -0.7842  0.1779 -0.2098
41461SOL    HW228941   7.498   9.248  11.093 -0.1058  0.1078  1.0309
41462SOL     OW28942   4.806   3.733   8.801  0.1127  0.3094  0.2168
41462SOL    HW128943   4.778   3.649   8.838 -0.0141  0.2784  0.0536
41462SOL    HW228944   4.814   3.791   8.877 -0.0505  0.2197  0.3044
41463SOL     OW28945  10.095   4.251   3.046 -0.0268 -0.4292 -0.0828
41463SOL    HW128946  10.044   4.228   2.969  2.7405 -2.1301 -1.5890
41463SOL    HW228947  10.119   4.166   3.084  0.6278  0.3308  1.2621
41464SOL     OW28948   1.028   8.490   9.514  0.0254 -0.8839  0.1369
41464SOL    HW128949   1.019   8.512   9.421  0.5582 -0.5825  0.1521
41464SOL    HW228950   1.000   8.399   9.520  1.6114 -1.4537 -0.6119
41465SOL     OW28951   0.605   1.673   8.612  0.6069  0.1560 -0.0087
41465SOL    HW128952   0.664   1.741   8.643 -1.7368  1.9318  0.8783
41465SOL    HW228953   0.558   1.644   8.690 -1.4286  0.6303 -0.9899
41466SOL     OW28954   0.022   5.266   2.842 -0.4666 -0.5876 -0.4227
41466SOL    HW128955   0.017   5.361   2.829 -0.5986 -0.1287  2.3811
41466SOL    HW228956  -0.046   5.231   2.786 -0.8069  1.0363 -1.0824
41467SOL     OW28957   6.661   5.796   6.590  0.3390 -0.0269  0.4742
41467SOL    HW128958   6.713   5.829   6.662  0.4831 -0.8210  0.7402
41467SOL    HW228959   6.715   5.729   6.548  0.2962  0.4818 -0.4308
41468SOL     OW28960   4.088   1.584   0.149  0.0449  0.3135  0.2538
41468SOL    HW128961   4.132   1.645   0.209  1.8463 -2.4532  1.9903
41468SOL    HW228962   3.996   1.587   0.175  0.3707  1.0891  1.4059
41469SOL     OW28963   7.380   8.923   6.244  0.0287  0.4910 -0.2799
41469SOL    HW128964   7.314   8.992   6.242  1.2166  1.6768 -0.7362
41469SOL    HW228965   7.347   8.856   6.185 -0.7344  1.0809 -0.5397
41470SOL     OW28966   6.457   5.650   2.178 -0.1025 -0.6884  0.7303
41470SOL    HW128967   6.493   5.673   2.264 -0.7069  0.1066  0.7830
41470SOL    HW228968   6.382   5.708   2.167  0.9467  0.4072 -1.0597
41471SOL     OW28969  10.330  11.919   0.111 -0.2154 -0.0659  0.9575
41471SOL    HW128970  10.300  11.994   0.060 -2.1316 -0.3757  1.5458
41471SOL    HW228971  10.314  11.844   0.053  3.1611  0.0050 -0.2695
41472SOL     OW28972   6.648   9.329   1.043  0.6739  0.0785 -0.1157
41472SOL    HW128973   6.720   9.351   1.103  0.4324  1.8419 -0.4180
41472SOL    HW228974   6.575   9.305   1.100  0.2376  2.3903  0.3784
41473SOL     OW28975   2.874   6.781   5.668  0.4495  0.3001 -0.3205
41473SOL    HW128976   2.880   6.704   5.724  1.4429 -0.4959 -1.5039
41473SOL    HW228977   2.963   6.816   5.664  0.2798  0.6883 -0.9438
41474SOL     OW28978   6.100   6.322   7.776  0.0417  0.0385 -0.4643
41474SOL    HW128979   6.048   6.279   7.708 -0.7072  0.4603 -0.1743
41474SOL    HW228980   6.191   6.304   7.752 -0.2397 -1.3576 -0.5622
41475SOL     OW28981   1.349   4.992   9.765 -0.3130  0.4212  0.3891
41475SOL    HW128982   1.318   4.990   9.674  0.4611  0.1396  0.1228
41475SOL    HW228983   1.348   4.901   9.793  1.6242  0.2140 -0.1086
41476SOL     OW28984   9.554  11.940   2.087  0.3752  0.3130 -0.6243
41476SOL    HW128985   9.606  11.870   2.126 -0.3922 -0.0890 -0.2870
41476SOL    HW228986   9.525  11.904   2.003 -0.2612  0.0982 -0.3227
41477SOL     OW28987   7.689   3.246   1.171  0.7161  0.1564 -0.2053
41477SOL    HW128988   7.785   3.247   1.172  0.7129  0.2947  0.4787
41477SOL    HW228989   7.666   3.273   1.082  1.2972  1.6290  0.0667
41478SOL     OW28990   4.737   1.346   2.153 -0.5725 -0.3548 -0.2524
41478SOL    HW128991   4.751   1.432   2.192 -2.4990 -0.7520  1.4606
41478SOL    HW228992   4.783   1.285   2.211 -2.3800 -0.8214  0.7462
41479SOL     OW28993   4.691   7.792   5.673 -0.4711 -0.6789  0.4837
41479SOL    HW128994   4.647   7.707   5.671 -2.1155  0.1308  0.4682
41479SOL    HW228995   4.655   7.836   5.750 -0.7527  0.5487 -0.3203
41480SOL     OW28996   9.538   1.156   0.002  1.0493 -0.4815  0.0363
41480SOL    HW128997   9.569   1.096   0.069  0.3600 -0.8855  0.0009
41480SOL    HW228998   9.476   1.105  -0.050 -1.4851  0.8897  1.5247
41481SOL     OW28999   8.265   5.206   5.878 -0.1073  0.2924 -0.3317
41481SOL    HW129000   8.243   5.136   5.816 -0.0994  0.2387 -0.2736
41481SOL    HW229001   8.191   5.207   5.939  0.4427 -0.4692  0.3785
41482SOL     OW29002   4.772   2.513  11.605  0.2610 -0.1610  0.0814
41482SOL    HW129003   4.726   2.429  11.612 -0.2333  0.1384  0.4778
41482SOL    HW229004   4.704   2.579  11.617  0.9500  0.2880  1.8171
41483SOL     OW29005   5.792   9.464   0.985  0.1858 -0.6875  0.6452
41483SOL    HW129006   5.751   9.384   1.020 -0.1646 -0.0711  1.7053
41483SOL    HW229007   5.735   9.491   0.913 -0.4021 -0.7108  1.0933
41484SOL     OW29008   6.668   1.959   2.630 -0.2115  0.1139  0.2275
41484SOL    HW129009   6.609   2.034   2.627 -2.1950 -1.3736  0.4030
41484SOL    HW229010   6.669   1.933   2.722 -1.5903 -1.5874 -0.1909
41485SOL     OW29011   5.543  10.514   0.284 -0.2244  0.0982 -0.1206
41485SOL    HW129012   5.603  10.451   0.244  1.4074  1.8442 -0.5928
41485SOL    HW229013   5.551  10.592   0.229 -1.2133  1.1415  1.1612
41486SOL     OW29014   7.537  11.981   3.591  0.0542  0.4164  0.3615
41486SOL    HW129015   7.552  12.074   3.609 -0.4269  0.2978  1.3887
41486SOL    HW229016   7.443  11.974   3.575  0.5086  0.6795 -3.3326
41487SOL     OW29017  10.454   7.665   9.813 -0.1837 -0.3406  0.2092
41487SOL    HW129018  10.425   7.609   9.885 -0.8728 -2.1360 -1.3783
41487SOL    HW229019  10.374   7.705   9.780  0.3190  1.8108  1.4252
41488SOL     OW29020   7.688   0.913   9.331  1.0455  0.0729 -0.4137
41488SOL    HW129021   7.728   0.840   9.285  0.7627 -0.6107  0.4012
41488SOL    HW229022   7.602   0.924   9.288 -0.6588 -2.7030  1.9287
41489SOL     OW29023  11.405  11.257   4.973 -0.5959 -0.3315  0.7693
41489SOL    HW129024  11.452  11.220   4.898 -0.3537 -1.4386  1.4437
41489SOL    HW229025  11.471  11.306   5.021 -0.9287  1.0796 -0.1550
41490SOL     OW29026   7.218   7.172   3.010  0.3872 -0.5679  0.1674
41490SOL    HW129027   7.149   7.116   2.976  0.9633 -0.3899 -1.3448
41490SOL    HW229028   7.199   7.258   2.974 -0.5981  0.3514  2.6123
41491SOL     OW29029   5.936   4.760   6.545  0.1192 -0.2172 -0.8212
41491SOL    HW129030   5.970   4.787   6.460 -0.7869  2.3281 -0.4491
41491SOL    HW229031   5.842   4.748   6.532  0.2649 -1.8692 -0.6041
41492SOL     OW29032  10.490   9.461   1.631 -0.4316  1.0664 -0.2689
41492SOL    HW129033  10.515   9.415   1.550  0.1204  2.4199 -0.9003
41492SOL    HW229034  10.398   9.484   1.619 -0.7202  0.1131  0.0655
41493SOL     OW29035   7.211   2.528   1.198  0.0417 -0.3416  0.8857
41493SOL    HW129036   7.131   2.503   1.246 -0.1904 -0.3475  0.4984
41493SOL    HW229037   7.234   2.451   1.146 -1.8560  0.8185 -1.9217
41494SOL     OW29038   6.951   9.882  10.647 -0.2380  0.3743 -0.1022
41494SOL    HW129039   6.991   9.898  10.733  0.2113 -0.9091 -0.0384
41494SOL    HW229040   7.012   9.922  10.585 -0.1814  0.6619  0.1342
41495SOL     OW29041   5.110   0.437   6.534  0.1573 -0.7693 -0.4322
41495SOL    HW129042   5.056   0.358   6.536 -1.5918  0.3986  1.8858
41495SOL    HW229043   5.093   0.481   6.617  1.6173  1.7190 -1.3332
41496SOL     OW29044   4.939   6.787   9.350 -0.3990 -0.3894  0.1898
41496SOL    HW129045   4.892   6.846   9.409 -2.5068 -1.3922 -0.4005
41496SOL    HW229046   4.907   6.809   9.262  0.9133 -0.5187 -0.3515
41497SOL     OW29047   7.444   3.435  11.241  0.6136  0.0014 -0.4110
41497SOL    HW129048   7.464   3.487  11.163  0.7843 -1.4063 -1.3382
41497SOL    HW229049   7.506   3.362  11.238  1.6288  0.6923  1.8602
41498SOL     OW29050   7.940   1.847   6.072  0.3476 -0.3049 -0.3031
41498SOL    HW129051   7.971   1.933   6.046 -1.5000  0.5283  0.0915
41498SOL    HW229052   7.993   1.785   6.021  2.2554  1.0089  0.0106
41499SOL     OW29053   0.113  10.105   4.513  0.0790  0.7281 -0.4440
41499SOL    HW129054   0.107  10.011   4.496 -0.3665  0.7566 -0.4394
41499SOL    HW229055   0.164  10.139   4.439  0.7968  0.3910 -0.1125
41500SOL     OW29056   4.914   2.525   9.983  0.1866  0.2378  0.0972
41500SOL    HW129057   4.971   2.502   9.909 -0.7030 -0.8828 -0.2603
41500SOL    HW229058   4.929   2.456  10.048  1.2038  1.3810  1.1439
41501SOL     OW29059   7.341   2.322   7.782  0.3662 -0.2478  0.0299
41501SOL    HW129060   7.293   2.240   7.784 -0.0186 -0.1342 -2.0922
41501SOL    HW229061   7.290   2.382   7.836 -0.7210 -0.7431 -0.4325
41502SOL     OW29062   3.250   1.635   7.238 -0.5040  0.2864  0.2427
41502SOL    HW129063   3.269   1.556   7.188 -0.6586 -0.7576  1.7590
41502SOL    HW229064   3.335   1.666   7.267 -0.4235  0.8276 -0.5576
41503SOL     OW29065  11.946   4.557  12.107  0.0804 -0.0606 -0.1882
41503SOL    HW129066  11.853   4.568  12.126 -0.1234 -1.1652 -0.4519
41503SOL    HW229067  11.990   4.572  12.191 -0.4146 -0.3557  0.1272
41504SOL     OW29068   1.946   3.393   5.344  0.3464 -0.1228 -0.1803
41504SOL    HW129069   1.911   3.394   5.433  0.0352  0.0966 -0.3020
41504SOL    HW229070   1.965   3.301   5.326  1.2076 -0.0679  0.4175
41505SOL     OW29071   2.158   0.578   4.085 -0.1812  0.3152  0.1155
41505SOL    HW129072   2.147   0.503   4.027  1.1214 -0.8995  1.3521
41505SOL    HW229073   2.080   0.578   4.140 -0.0100 -0.3656  0.3609
41506SOL     OW29074   7.052   7.861   3.021 -0.0007 -0.0817  0.1857
41506SOL    HW129075   6.984   7.857   3.088 -1.4141 -2.0458 -1.2645
41506SOL    HW229076   7.114   7.793   3.045 -0.2580 -0.4680 -0.2424
41507SOL     OW29077   5.492   9.681   3.859  0.5941  0.4250  0.4699
41507SOL    HW129078   5.397   9.668   3.861  0.8347 -1.9548 -0.6183
41507SOL    HW229079   5.506   9.740   3.785  0.0897 -1.3155 -1.0969
41508SOL     OW29080  10.895   9.719   2.181  0.1805  0.2112  0.2742
41508SOL    HW129081  10.802   9.697   2.170  0.0849  0.5850  0.3299
41508SOL    HW229082  10.937   9.687   2.102 -0.4948  2.9654 -1.3200
41509SOL     OW29083   8.954   7.139   3.291 -0.4880 -0.4185  0.0585
41509SOL    HW129084   8.883   7.077   3.271 -1.8970  0.6470  1.4867
41509SOL    HW229085   8.920   7.192   3.363  1.1175  1.2814 -0.3533
41510SOL     OW29086  11.727   0.237   6.498  0.2691  0.2222 -0.5530
41510SOL    HW129087  11.707   0.223   6.590 -1.1499 -1.0033 -0.9964
41510SOL    HW229088  11.780   0.316   6.496  0.1820  0.3610  1.2877
41511SOL     OW29089   0.578   3.282   4.980  0.0226 -0.5123 -1.0967
41511SOL    HW129090   0.550   3.207   4.928 -0.7713 -1.3817  0.5088
41511SOL    HW229091   0.580   3.249   5.070  0.5837  1.1417 -0.4702
41512SOL     OW29092  10.004   2.384   5.086  0.7009  0.3014  0.2558
41512SOL    HW129093  10.024   2.464   5.135 -0.1080  1.1410 -0.7289
41512SOL    HW229094  10.089   2.341   5.074  1.1125  0.8804  1.0149
41513SOL     OW29095   6.486  11.993   6.309  0.1494 -0.0254 -0.6287
41513SOL    HW129096   6.463  11.937   6.383  0.9079  1.6428  0.9566
41513SOL    HW229097   6.425  11.967   6.239 -1.9871 -0.2930  1.2235
41514SOL     OW29098   9.053   0.795   3.592 -0.1122 -0.7718 -0.1059
41514SOL    HW129099   9.047   0.859   3.522  2.2420 -1.8630 -1.4301
41514SOL    HW229100   9.088   0.843   3.667 -0.9720  0.0201 -0.1921
41515SOL     OW29101   0.077   8.888  10.981 -0.6500 -0.0555 -0.9086
41515SOL    HW129102   0.107   8.887  11.072 -1.2527  1.6527 -0.6401
41515SOL    HW229103   0.035   8.973  10.972 -1.0459 -0.4113 -2.6580
41516SOL     OW29104   1.477   1.770   4.850 -0.4135  0.3103 -0.2854
41516SOL    HW129105   1.451   1.747   4.761  0.0273  3.0320 -1.2117
41516SOL    HW229106   1.415   1.838   4.877 -0.2399 -0.1203  1.3150
41517SOL     OW29107   9.493   5.827  11.296 -0.3453  0.5928  0.7555
41517SOL    HW129108   9.404   5.796  11.279  0.1995  0.4108 -2.6271
41517SOL    HW229109   9.545   5.747  11.304 -0.0859  0.6496 -0.2287
41518SOL     OW29110   0.283   5.589   1.172 -0.3788 -0.2261  0.0305
41518SOL    HW129111   0.294   5.652   1.243  0.9483  0.2493 -0.5425
41518SOL    HW229112   0.228   5.635   1.108  0.6636  0.4295 -0.4286
41519SOL     OW29113   9.218   1.060   1.181 -0.1888  0.3825 -0.8898
41519SOL    HW129114   9.131   1.022   1.169 -0.0392 -0.2201 -0.1288
41519SOL    HW229115   9.215   1.100   1.267  0.5897 -0.5110 -0.4308
41520SOL     OW29116   1.319   2.684   6.909  0.3209 -0.2134  0.5691
41520SOL    HW129117   1.343   2.722   6.994  0.8083 -0.4580  0.5487
41520SOL    HW229118   1.241   2.731   6.882  1.9837  2.1964 -0.3767
41521SOL     OW29119  10.484   4.294   1.290  0.3898  0.5559  0.2004
41521SOL    HW129120  10.499   4.350   1.366  1.2719  1.1870 -0.4178
41521SOL    HW229121  10.562   4.238   1.285  0.8038  1.1854 -0.7865
41522SOL     OW29122   8.507   0.214   0.574 -0.4781  0.1021 -0.5607
41522SOL    HW129123   8.421   0.235   0.609 -1.5104  0.5226 -3.1329
41522SOL    HW229124   8.513   0.265   0.493  1.5074 -1.1989 -1.3042
41523SOL     OW29125  11.119   8.163   7.041  0.1618 -1.0026  0.0316
41523SOL    HW129126  11.103   8.107   6.966  0.0357 -1.9597  0.7557
41523SOL    HW229127  11.211   8.150   7.062 -0.3464 -2.6305  1.4982
41524SOL     OW29128   9.117   1.280   7.396 -0.0385  0.2114 -0.1978
41524SOL    HW129129   9.042   1.222   7.406 -2.6921  3.6296  2.0983
41524SOL    HW229130   9.172   1.260   7.472 -0.0553 -0.4164 -0.3463
41525SOL     OW29131   6.329   6.797   2.754  0.1779 -0.5308  0.0413
41525SOL    HW129132   6.322   6.846   2.671  0.6705  0.1047  0.3647
41525SOL    HW229133   6.414   6.752   2.748 -0.2950 -1.3987 -0.2743
41526SOL     OW29134   2.180   4.268  11.409 -0.3616 -0.2217 -0.5512
41526SOL    HW129135   2.137   4.230  11.332 -1.8794  0.9091 -0.3057
41526SOL    HW229136   2.109   4.307  11.459  0.5389 -1.2133  1.6277
41527SOL     OW29137   1.645   9.509   1.246  0.5829  0.5031  0.0194
41527SOL    HW129138   1.702   9.544   1.178 -0.0244  0.4907 -0.4972
41527SOL    HW229139   1.681   9.545   1.328  1.0029  0.9325 -0.3470
41528SOL     OW29140   6.969   5.921   2.860  0.2337 -0.4710 -1.0999
41528SOL    HW129141   7.062   5.937   2.875 -0.3801  1.6365  1.1493
41528SOL    HW229142   6.933   6.007   2.839 -1.3044 -1.1703 -1.4703
41529SOL     OW29143   0.055   6.495   1.862 -0.3220 -0.1998 -0.2916
41529SOL    HW129144   0.011   6.444   1.930 -3.7558  2.5002 -0.2464
41529SOL    HW229145   0.021   6.460   1.779  0.0637 -0.2914 -0.4136
41530SOL     OW29146   8.864   3.672   6.075 -0.9207  0.7899 -0.8533
41530SOL    HW129147   8.786   3.619   6.056 -1.0444  0.9289 -0.7362
41530SOL    HW229148   8.852   3.700   6.166  0.0217 -0.4779 -0.3083
41531SOL     OW29149   2.510   7.174   6.625 -0.2932 -0.1072  0.3514
41531SOL    HW129150   2.514   7.220   6.709 -2.0326 -0.5600  0.7281
41531SOL    HW229151   2.587   7.117   6.625  0.2500  0.6055  1.2134
41532SOL     OW29152   7.419  10.607   8.918 -0.0606 -0.0622  0.0701
41532SOL    HW129153   7.507  10.589   8.887  0.6730  0.5081  1.6776
41532SOL    HW229154   7.395  10.530   8.969 -0.6732 -0.3890 -0.6919
41533SOL     OW29155   1.673   6.243   9.576  0.6054 -0.6478  0.0884
41533SOL    HW129156   1.665   6.187   9.653 -1.4394 -1.5748 -0.7000
41533SOL    HW229157   1.610   6.313   9.590  0.2770 -0.7759 -0.6732
41534SOL     OW29158   8.320   0.573   9.039  0.3143  0.5690  0.1690
41534SOL    HW129159   8.327   0.482   9.011  1.9169  0.4053  0.9837
41534SOL    HW229160   8.250   0.574   9.103  0.8246 -0.2527  0.7508
41535SOL     OW29161   4.106   0.537   7.478 -0.7980 -0.9689  0.0112
41535SOL    HW129162   4.072   0.472   7.538 -3.4793  0.4290  0.1338
41535SOL    HW229163   4.141   0.606   7.534 -0.5892 -1.0038 -0.0751
41536SOL     OW29164   8.743   5.887   2.871 -0.8599  0.4406 -0.4297
41536SOL    HW129165   8.745   5.965   2.815  0.3870  0.9066  0.2117
41536SOL    HW229166   8.650   5.867   2.881 -1.2435  2.1950 -0.1519
41537SOL     OW29167   8.934   0.835   5.933 -0.3775  0.6753 -0.2848
41537SOL    HW129168   9.007   0.897   5.922  2.0562 -1.1121  3.5641
41537SOL    HW229169   8.960   0.759   5.880  0.2620  0.3365  0.4850
41538SOL     OW29170   6.307   3.684  10.516  0.4092 -0.6428 -0.5509
41538SOL    HW129171   6.310   3.588  10.511 -1.8979 -0.7612 -1.1942
41538SOL    HW229172   6.264   3.702  10.600 -0.4853 -0.2658 -1.0680
41539SOL     OW29173   7.958   7.749  10.158 -0.0488 -0.3508 -0.2009
41539SOL    HW129174   7.933   7.729  10.248 -0.9330  1.0065 -0.1161
41539SOL    HW229175   8.021   7.821  10.166  0.6066 -0.8653 -0.6324
41540SOL     OW29176   2.999   9.530  10.219  0.0059  0.5400  0.0845
41540SOL    HW129177   3.038   9.471  10.284  0.5661  0.6223 -0.1679
41540SOL    HW229178   3.071   9.587  10.193 -0.4149  1.0194 -0.0331
41541SOL     OW29179   5.804   6.025   7.317 -0.4982  0.4669  0.5512
41541SOL    HW129180   5.746   6.095   7.347 -0.4123  0.3897  0.8994
41541SOL    HW229181   5.868   6.014   7.388 -0.0749  0.5323  0.1844
41542SOL     OW29182   0.723   8.977  11.827 -0.5816  0.0354 -0.0679
41542SOL    HW129183   0.724   9.064  11.867  1.3690  0.2016 -0.3968
41542SOL    HW229184   0.721   8.916  11.901 -1.2416  0.3500  0.1785
41543SOL     OW29185   5.068   4.420   7.343 -0.7603 -0.4520  0.2332
41543SOL    HW129186   5.096   4.450   7.257  0.2004  1.5704  1.1836
41543SOL    HW229187   4.996   4.477   7.367 -1.2548 -1.2262  0.6439
41544SOL     OW29188   1.692   6.565   4.783 -0.2304 -0.0491 -0.2910
41544SOL    HW129189   1.689   6.516   4.701  0.2850  0.8868 -0.8821
41544SOL    HW229190   1.770   6.533   4.828  0.2991  0.4501 -0.8324
41545SOL     OW29191   2.841   8.464   5.463 -0.2939  0.1659 -0.0968
41545SOL    HW129192   2.812   8.524   5.395  0.0258 -0.5835 -0.9018
41545SOL    HW229193   2.851   8.520   5.541  0.2560  1.1972 -0.8915
41546SOL     OW29194   7.313   2.391   4.833  0.5206  0.3160  0.0703
41546SOL    HW129195   7.306   2.324   4.765  0.0257 -2.4702  2.6612
41546SOL    HW229196   7.302   2.473   4.786  2.4234 -1.2471 -3.5172
41547SOL     OW29197  10.446   8.375   3.664 -0.0557 -0.1487 -0.1835
41547SOL    HW129198  10.488   8.454   3.697 -0.3012  0.7678 -1.9354
41547SOL    HW229199  10.358   8.403   3.638  0.6414 -0.3438 -3.1175
41548SOL     OW29200   0.824   8.065   7.415 -0.1351 -0.3948 -0.1013
41548SOL    HW129201   0.800   7.977   7.387 -0.6373 -0.2060 -0.2821
41548SOL    HW229202   0.904   8.053   7.465 -0.9469 -1.1474  1.0843
41549SOL     OW29203  12.100   3.478  11.763 -0.1955 -0.4465  0.6285
41549SOL    HW129204  12.025   3.514  11.716 -0.4044 -1.1896  0.3960
41549SOL    HW229205  12.069   3.397  11.801  0.4410 -0.6735  0.6846
41550SOL     OW29206   3.344   4.330   0.758  0.3360 -0.6092  0.0612
41550SOL    HW129207   3.303   4.300   0.839 -0.1025 -0.2294 -0.0109
41550SOL    HW229208   3.390   4.410   0.782  0.5154 -0.6976  0.0122
41551SOL     OW29209   7.752   8.768   2.439 -0.6376  0.5404 -0.4974
41551SOL    HW129210   7.757   8.783   2.345  0.1393  1.0811 -0.3810
41551SOL    HW229211   7.739   8.856   2.476  0.6147  0.5335 -0.0061
41552SOL     OW29212   9.244   0.745   0.160  0.3244 -0.2133 -0.0734
41552SOL    HW129213   9.198   0.829   0.166 -0.0382 -0.4147 -0.0130
41552SOL    HW229214   9.225   0.701   0.243  0.8213 -0.1981  0.0487
41553SOL     OW29215   9.168  10.904   9.662 -0.0871  0.1755 -0.0638
41553SOL    HW129216   9.207  10.978   9.615  0.3686 -0.4972 -0.7598
41553SOL    HW229217   9.118  10.857   9.596 -1.0821  0.3272  0.5631
41554SOL     OW29218   6.520  12.049  10.100  0.1173 -0.2320  0.1267
41554SOL    HW129219   6.596  11.994  10.119  0.0756  0.5900  3.1244
41554SOL    HW229220   6.454  11.988  10.068  1.0220 -1.4551  0.5309
41555SOL     OW29221   5.739   0.894   2.038  0.0928  0.5134  0.0452
41555SOL    HW129222   5.809   0.873   1.976 -0.4703  1.6808 -1.0516
41555SOL    HW229223   5.747   0.829   2.107 -0.0781 -1.7258 -1.9104
41556SOL     OW29224   9.839   0.317   8.649 -0.0736  0.0989  0.2150
41556SOL    HW129225   9.745   0.312   8.671 -0.4353 -0.7301 -1.3832
41556SOL    HW229226   9.871   0.228   8.664  0.1676  0.0681 -0.4702
41557SOL     OW29227   7.523   0.215   9.893  0.1891 -0.2106  0.4180
41557SOL    HW129228   7.484   0.128   9.893 -0.5493  0.1094  1.2075
41557SOL    HW229229   7.513   0.246   9.983  1.6315  0.1775  0.4759
41558SOL     OW29230   3.641   4.267   1.922  0.4431  0.6679  0.2106
41558SOL    HW129231   3.700   4.300   1.990 -0.2000  0.6664  0.7777
41558SOL    HW229232   3.693   4.270   1.842  2.3395 -2.3639  1.1723
41559SOL     OW29233   6.549   8.272   1.327 -0.3445 -0.0328  0.3886
41559SOL    HW129234   6.462   8.255   1.361 -1.1870  0.8390 -1.1915
41559SOL    HW229235   6.540   8.355   1.280  1.7790  1.0285  1.6814
41560SOL     OW29236   8.238  10.522  11.629  0.2702 -0.5138 -0.2098
41560SOL    HW129237   8.158  10.470  11.630 -0.7468  0.9759  1.6438
41560SOL    HW229238   8.220  10.594  11.568 -0.0011  0.0555  0.5235
41561SOL     OW29239   7.657   6.969   5.844  0.5064 -0.0705  0.2947
41561SOL    HW129240   7.582   6.959   5.903  0.0964  0.5568 -0.1001
41561SOL    HW229241   7.693   6.881   5.835  0.2095 -0.2693  1.0046
41562SOL     OW29242   7.340   5.525   5.679  0.1140 -0.2804  0.4332
41562SOL    HW129243   7.273   5.459   5.659 -0.8839  0.6037  0.7069
41562SOL    HW229244   7.332   5.538   5.773 -0.4192  0.9361  0.2434
41563SOL     OW29245   2.030   9.324   4.525  0.8222  0.0399  0.3733
41563SOL    HW129246   2.095   9.263   4.492  2.3247  1.1774  1.1159
41563SOL    HW229247   1.983   9.355   4.447  1.6903 -0.2067 -0.2552
41564SOL     OW29248  10.482   1.375   6.856  0.2816 -0.2712  0.6552
41564SOL    HW129249  10.529   1.293   6.865  0.4064 -0.3293 -0.4025
41564SOL    HW229250  10.494   1.401   6.764  0.0728  0.8190  0.9100
41565SOL     OW29251  11.217   4.292   1.759  0.4119  0.4954  0.2019
41565SOL    HW129252  11.209   4.368   1.816  1.3837  0.0226  0.9957
41565SOL    HW229253  11.309   4.290   1.734 -0.1115  1.1005 -2.0099
41566SOL     OW29254   8.930   5.233   9.497 -0.3515 -0.5629 -0.4992
41566SOL    HW129255   8.921   5.241   9.402 -2.3264 -0.8155 -0.3739
41566SOL    HW229256   9.024   5.221   9.511  0.1255  0.5578 -2.3242
41567SOL     OW29257   4.476   0.585   4.281 -0.3334 -0.1237  0.2558
41567SOL    HW129258   4.503   0.666   4.324  2.3693  0.8195 -2.8707
41567SOL    HW229259   4.531   0.517   4.320  0.8439  0.4167 -0.4220
41568SOL     OW29260   4.902  11.688   3.296  0.2533 -0.4994  0.1170
41568SOL    HW129261   4.835  11.751   3.320 -0.1332 -0.3750 -1.1900
41568SOL    HW229262   4.854  11.608   3.275  0.2049  0.2131 -3.0020
41569SOL     OW29263  10.232   1.833   9.962  0.0996  0.0354 -0.0487
41569SOL    HW129264  10.258   1.921   9.935 -1.0737  0.1818 -0.7810
41569SOL    HW229265  10.174   1.848  10.037  1.6429 -0.2581  1.2532
41570SOL     OW29266   0.380   3.882   8.153 -0.5706 -0.1152 -0.4780
41570SOL    HW129267   0.419   3.847   8.072  3.7640  1.3427  0.6961
41570SOL    HW229268   0.374   3.976   8.137 -1.9131 -0.0902  0.1127
41571SOL     OW29269   5.544   6.938   1.223 -0.0651  0.4065  0.2591
41571SOL    HW129270   5.472   6.961   1.164  1.5478 -1.0824 -2.4452
41571SOL    HW229271   5.535   6.844   1.236  0.4522  0.4832  1.2688
41572SOL     OW29272   9.691   7.475   4.183 -0.2031  0.7084 -0.1140
41572SOL    HW129273   9.709   7.416   4.109 -0.0295  0.5930  0.0197
41572SOL    HW229274   9.676   7.560   4.142  2.1392  1.1696 -0.1670
41573SOL     OW29275   6.496   7.581   5.714 -0.4206 -0.4597 -0.5259
41573SOL    HW129276   6.540   7.645   5.769 -2.0576  0.8016 -0.6092
41573SOL    HW229277   6.445   7.528   5.774 -0.8939 -0.1641 -0.6607
41574SOL     OW29278   3.409   4.736   9.325 -0.3095 -0.2927 -0.5372
41574SOL    HW129279   3.406   4.767   9.235  0.0447  1.5243  0.0249
41574SOL    HW229280   3.490   4.773   9.361  0.4378 -2.3975  0.0624
41575SOL     OW29281   2.952   0.288  11.658 -0.0690 -0.1354  0.0348
41575SOL    HW129282   3.016   0.247  11.717  1.6825 -2.5537 -3.2378
41575SOL    HW229283   2.879   0.226  11.655  1.2048 -1.6730 -2.5026
41576SOL     OW29284   0.778   1.500  11.245 -0.1914 -0.0623  0.0610
41576SOL    HW129285   0.785   1.471  11.336  1.9115  1.1358  0.3535
41576SOL    HW229286   0.702   1.558  11.244  0.2865  0.6325  1.3098
41577SOL     OW29287   1.800   6.886   1.905 -0.2204 -0.8227  0.0867
41577SOL    HW129288   1.827   6.914   1.993  0.4981 -1.6307  0.1330
41577SOL    HW229289   1.767   6.966   1.864 -0.2066 -0.3543  0.9571
41578SOL     OW29290   0.537   8.187  11.797 -0.1554 -0.1792 -0.0314
41578SOL    HW129291   0.622   8.148  11.774  0.8102  0.6631  1.8748
41578SOL    HW229292   0.475   8.149  11.735  1.6373 -0.7243 -1.5678
41579SOL     OW29293   8.748   3.059   8.977 -0.6696  0.2281  0.4666
41579SOL    HW129294   8.798   3.126   9.023  0.0810  0.0780 -0.1021
41579SOL    HW229295   8.663   3.100   8.960 -0.0149  1.2755 -0.4163
41580SOL     OW29296   7.591   7.137   0.868  0.2971  0.3620 -0.2471
41580SOL    HW129297   7.606   7.089   0.949  0.5859  1.7647  0.5622
41580SOL    HW229298   7.615   7.228   0.888  2.4761  0.4122 -2.5015
41581SOL     OW29299   2.158   2.362   6.626 -0.1454  0.4836 -0.2156
41581SOL    HW129300   2.102   2.341   6.701 -1.8224  1.1337 -1.2251
41581SOL    HW229301   2.116   2.438   6.586  1.3335  0.8197 -1.1917
41582SOL     OW29302   5.586   7.128  10.690 -0.2222 -0.0213  0.0489
41582SOL    HW129303   5.567   7.216  10.722  1.0569  0.6372 -0.8944
41582SOL    HW229304   5.605   7.077  10.769  1.2486  1.1420  0.4909
41583SOL     OW29305   6.227   1.016   3.156 -0.3957 -0.3774 -0.5897
41583SOL    HW129306   6.193   0.936   3.197 -0.6267  0.8269  1.7358
41583SOL    HW229307   6.179   1.087   3.199  1.6732  1.1441 -0.6656
41584SOL     OW29308  11.976  10.479   7.003 -0.5486 -0.1627  0.0024
41584SOL    HW129309  11.998  10.563   6.964 -0.9854 -0.0493 -0.0043
41584SOL    HW229310  11.948  10.424   6.930 -2.9091  0.5369  0.2765
41585SOL     OW29311   5.483  10.397  11.436  0.2633 -0.0390 -0.2311
41585SOL    HW129312   5.549  10.448  11.483 -0.7410  1.3751 -0.2886
41585SOL    HW229313   5.516  10.394  11.345 -0.6602  2.3987 -0.7175
41586SOL     OW29314  10.349   9.605   5.246  0.3940 -0.1618 -0.2273
41586SOL    HW129315  10.388   9.518   5.254 -0.3228 -0.5139 -0.4533
41586SOL    HW229316  10.260   9.594   5.278 -0.0151  0.2525 -1.1691
41587SOL     OW29317   1.664   1.505   5.092 -0.1455 -0.2318  0.2919
41587SOL    HW129318   1.709   1.426   5.122 -0.5347 -0.6483 -0.1897
41587SOL    HW229319   1.579   1.474   5.061 -0.3638  0.4000  0.2439
41588SOL     OW29320   9.751   4.117   7.988 -0.0970  0.2143 -0.1678
41588SOL    HW129321   9.785   4.151   8.070 -1.5254  2.0561 -0.2800
41588SOL    HW229322   9.663   4.086   8.009 -0.8425  1.5573 -1.1169
41589SOL     OW29323  10.430   0.892   6.368 -0.0739  0.5431  0.3147
41589SOL    HW129324  10.420   0.797   6.365 -1.2272  0.6598  0.1546
41589SOL    HW229325  10.341   0.926   6.375  0.2444  1.6396 -0.5361
41590SOL     OW29326   2.873   0.978   8.332  0.1576 -0.1275  0.2291
41590SOL    HW129327   2.880   0.999   8.425  1.6592  0.7205 -0.0398
41590SOL    HW229328   2.957   1.004   8.295 -1.1226  1.5640 -1.7335
41591SOL     OW29329   8.926   2.754   8.583 -0.1140 -0.5679  0.0939
41591SOL    HW129330   8.876   2.674   8.599 -2.0524  0.0724 -2.1933
41591SOL    HW229331   8.912   2.806   8.662 -1.9036 -1.0237  0.1287
41592SOL     OW29332   0.995   9.592   6.549  0.3380 -0.0632 -0.7638
41592SOL    HW129333   0.962   9.503   6.532  0.4426 -0.5893  1.4223
41592SOL    HW229334   1.016   9.591   6.642  0.1747  2.3411 -0.6624
41593SOL     OW29335   7.588   0.328  11.192 -0.7519  0.5146  0.1706
41593SOL    HW129336   7.542   0.250  11.225  2.8245 -0.9254  2.2529
41593SOL    HW229337   7.618   0.373  11.270  0.5364  1.8934 -1.0686
41594SOL     OW29338   8.524   8.574   8.934 -0.1224  0.2788  0.0470
41594SOL    HW129339   8.520   8.595   9.027 -0.7260  2.5932 -0.4274
41594SOL    HW229340   8.453   8.512   8.920 -0.2461  0.1823  1.0705
41595SOL     OW29341   3.312   3.642   6.481 -0.1594  0.2790  0.2377
41595SOL    HW129342   3.301   3.549   6.499 -1.7375 -0.1788 -2.5931
41595SOL    HW229343   3.339   3.647   6.390  2.4100  2.5602  0.9805
41596SOL     OW29344  10.245   0.864   7.051  0.0903 -0.0086  0.1082
41596SOL    HW129345  10.169   0.916   7.027  0.2326  0.1366 -0.0356
41596SOL    HW229346  10.276   0.903   7.133  0.2933  0.2420 -0.0849
41597SOL     OW29347   3.600   3.132   4.263  0.9235 -0.2840  0.0749
41597SOL    HW129348   3.690   3.163   4.259  2.1759 -3.6134 -0.6245
41597SOL    HW229349   3.588   3.105   4.354  1.5284 -2.0876 -0.3522
41598SOL     OW29350   2.877  11.127   6.530  0.1120  0.7847 -0.1238
41598SOL    HW129351   2.971  11.116   6.516  0.3289  1.6105  0.5197
41598SOL    HW229352   2.867  11.121   6.625 -0.8493 -1.6946 -0.3316
41599SOL     OW29353   1.766   8.195   7.398 -0.0554  0.1744  0.3155
41599SOL    HW129354   1.829   8.185   7.468  0.2726  0.5326  0.0693
41599SOL    HW229355   1.818   8.211   7.320 -0.4183 -0.1711 -0.0068
41600SOL     OW29356   3.403   7.935   6.213  0.0546  0.1005  0.6913
41600SOL    HW129357   3.360   7.979   6.286 -1.0661 -0.2482  0.2517
41600SOL    HW229358   3.474   7.995   6.188 -1.2234  1.5147  0.3302
41601SOL     OW29359   0.815   8.788  10.279 -0.2999 -0.1532  0.1568
41601SOL    HW129360   0.878   8.729  10.237 -0.9598  0.0488 -1.1815
41601SOL    HW229361   0.865   8.833  10.347  0.3829 -1.7416  0.7308
41602SOL     OW29362   4.855   2.196   4.514 -0.0078  0.3260 -0.3924
41602SOL    HW129363   4.786   2.226   4.456  0.1451 -0.7267 -1.1516
41602SOL    HW229364   4.809   2.168   4.593 -0.5156 -0.7495 -1.0435
41603SOL     OW29365   9.264   7.293   0.290 -0.1211 -0.3101  0.1781
41603SOL    HW129366   9.181   7.246   0.294 -0.7397  0.3883 -2.3699
41603SOL    HW229367   9.285   7.295   0.197  1.0478  2.4065  0.4188
41604SOL     OW29368   7.616   2.049   8.499  0.2130 -0.4990  0.2642
41604SOL    HW129369   7.610   2.124   8.558  1.2401 -1.2729  1.4024
41604SOL    HW229370   7.691   1.999   8.531 -0.2579 -1.8578 -0.6559
41605SOL     OW29371   6.414   6.335   8.505 -0.2041 -0.4482  0.3720
41605SOL    HW129372   6.493   6.348   8.453 -1.1913  1.3094 -0.7913
41605SOL    HW229373   6.380   6.250   8.476 -0.1978  0.0383 -1.1564
41606SOL     OW29374   2.021   7.322   7.683  0.2646 -0.5100 -0.8364
41606SOL    HW129375   2.074   7.269   7.742  0.2402 -0.9707 -1.2238
41606SOL    HW229376   2.063   7.408   7.683 -0.3784 -0.1609  0.7330
41607SOL     OW29377   9.103   5.618   3.752  0.2301  0.0262 -0.2065
41607SOL    HW129378   9.039   5.688   3.739 -1.1219 -0.8957  1.1718
41607SOL    HW229379   9.098   5.566   3.672 -1.1374 -0.3103  0.0777
41608SOL     OW29380   4.564   2.105   1.383  0.1868 -0.0991  0.0417
41608SOL    HW129381   4.639   2.045   1.381  0.7308  0.5889 -0.8253
41608SOL    HW229382   4.544   2.114   1.476  1.1024 -0.3925  0.2839
41609SOL     OW29383   4.327   9.964   9.736 -0.6643  0.4600  0.2305
41609SOL    HW129384   4.359   9.951   9.826  0.9280 -2.1587 -0.6100
41609SOL    HW229385   4.367  10.047   9.708  1.7029 -0.4084  0.8167
41610SOL     OW29386   7.543   4.177   0.264 -0.9509  0.0395 -0.1257
41610SOL    HW129387   7.472   4.137   0.314 -0.0278 -1.4331  0.0799
41610SOL    HW229388   7.615   4.186   0.327 -1.4817  3.3033  0.1871
41611SOL     OW29389   4.844   4.741   1.111 -0.3168 -0.2197  0.0258
41611SOL    HW129390   4.785   4.809   1.141 -1.6346 -1.2279 -0.1873
41611SOL    HW229391   4.803   4.659   1.138  1.6088 -0.9412  0.9732
41612SOL     OW29392   4.850   9.018  11.329  0.1245  0.5355 -0.4891
41612SOL    HW129393   4.909   8.982  11.394  1.2556  0.0366 -1.7490
41612SOL    HW229394   4.778   8.955  11.325  0.9480 -0.4059 -1.0076
41613SOL     OW29395   1.140   3.234   2.348 -0.2314  0.0793  0.1346
41613SOL    HW129396   1.150   3.325   2.320  0.5872 -0.0157  0.0952
41613SOL    HW229397   1.156   3.236   2.443 -1.2297  0.1274  0.3105
41614SOL     OW29398   7.492   5.010   5.218 -0.1101  0.2623 -0.6176
41614SOL    HW129399   7.569   4.974   5.175  0.8454  0.2188  1.0309
41614SOL    HW229400   7.527   5.058   5.293 -1.6979 -0.0138  0.3551
41615SOL     OW29401   5.505   1.514   0.513 -0.3321  0.4440 -0.6605
41615SOL    HW129402   5.574   1.565   0.556 -0.5373  0.4463 -0.3302
41615SOL    HW229403   5.552   1.447   0.464  0.0364  1.8072 -2.2755
41616SOL     OW29404   3.369   0.360   2.976 -0.4471 -0.3225 -0.5560
41616SOL    HW129405   3.379   0.307   3.055 -0.0251 -1.2541 -1.2093
41616SOL    HW229406   3.441   0.423   2.980 -0.8079  0.0578  0.1082
41617SOL     OW29407   0.868   3.085   8.834 -0.1226  0.5501  0.3620
41617SOL    HW129408   0.936   3.041   8.885 -1.0155  0.2087  1.2969
41617SOL    HW229409   0.786   3.059   8.876 -0.7355  2.3751  0.3824
41618SOL     OW29410   2.893   3.792   3.512 -0.3173  0.2567 -0.3317
41618SOL    HW129411   2.900   3.851   3.437 -1.0684 -0.1614 -0.7383
41618SOL    HW229412   2.938   3.712   3.484 -0.3925  0.1851 -0.2486
41619SOL     OW29413   0.317   2.462  11.150 -0.5707 -0.0613 -0.3812
41619SOL    HW129414   0.305   2.391  11.087  0.7007 -1.9066  1.3359
41619SOL    HW229415   0.393   2.511  11.118 -0.1813 -0.7361 -0.4981
41620SOL     OW29416   6.515   8.535   2.221 -0.3253  0.0728 -0.7475
41620SOL    HW129417   6.475   8.463   2.271  2.0056 -1.2142 -0.6199
41620SOL    HW229418   6.440   8.585   2.188 -2.0808  0.4673  3.1579
41621SOL     OW29419   9.370   5.640  12.102 -0.2408  0.4223 -0.1439
41621SOL    HW129420   9.324   5.564  12.065  0.6186  0.1314 -0.6395
41621SOL    HW229421   9.454   5.605  12.132  0.5702  1.3392 -1.2600
41622SOL     OW29422  11.386   2.619   1.647 -0.5974  0.4502  0.0585
41622SOL    HW129423  11.302   2.644   1.609 -1.1776 -2.0907 -0.5447
41622SOL    HW229424  11.373   2.528   1.673  2.1731 -0.2245 -0.6741
41623SOL     OW29425   1.794   6.990   2.752  0.0201  0.4873 -0.8382
41623SOL    HW129426   1.872   6.938   2.773  0.6130  2.1062  1.3290
41623SOL    HW229427   1.736   6.929   2.707  0.9345 -1.8946  0.9706
41624SOL     OW29428   5.779   0.426  10.286 -0.1702  0.1836  0.2835
41624SOL    HW129429   5.808   0.462  10.369  3.2964 -3.9708  1.2196
41624SOL    HW229430   5.696   0.383  10.306  0.0965  0.1438  1.3428
41625SOL     OW29431   9.199   3.485   2.741 -0.0578 -0.5731  0.0036
41625SOL    HW129432   9.180   3.575   2.714 -0.8224 -0.2338  1.5698
41625SOL    HW229433   9.181   3.484   2.834  0.9335 -2.1086  0.2140
41626SOL     OW29434  11.538   3.463   8.899  0.1523  0.2159  0.2091
41626SOL    HW129435  11.618   3.515   8.889  0.2572  0.1553  0.6912
41626SOL    HW229436  11.568   3.377   8.926 -0.0326 -0.0476 -0.4298
41627SOL     OW29437   3.701   5.560   8.048  0.0085  0.3993  0.6744
41627SOL    HW129438   3.698   5.639   7.994 -2.2299 -0.3512 -0.4148
41627SOL    HW229439   3.722   5.591   8.136 -0.0257  2.0895  0.1151
41628SOL     OW29440   5.972   2.588   3.016  0.7196  0.4054 -0.0473
41628SOL    HW129441   5.898   2.648   3.002 -0.7099 -1.1493  0.4818
41628SOL    HW229442   5.964   2.562   3.108  1.1416 -0.7621 -0.3273
41629SOL     OW29443   7.396   4.162   1.286  0.2682 -0.4610 -0.5234
41629SOL    HW129444   7.427   4.179   1.375  0.0430 -0.3733 -0.4587
41629SOL    HW229445   7.407   4.246   1.241  0.6825 -0.5923 -0.6711
41630SOL     OW29446  11.283   0.152   9.467  0.8152  0.2807 -0.3516
41630SOL    HW129447  11.253   0.122   9.552  3.1197  1.6171  1.0292
41630SOL    HW229448  11.371   0.116   9.458  0.9215  0.8149 -1.7974
41631SOL     OW29449   4.168   6.853  10.522 -0.7757  0.1194  0.2550
41631SOL    HW129450   4.081   6.844  10.484 -1.0672 -1.3721  1.1544
41631SOL    HW229451   4.161   6.927  10.582 -1.1659  0.5762 -0.3541
41632SOL     OW29452   8.844   6.541  10.805  0.0239 -0.3316  0.5685
41632SOL    HW129453   8.814   6.606  10.742 -0.2243 -1.1136 -0.1390
41632SOL    HW229454   8.906   6.588  10.861 -0.5311  0.6345  0.3969
41633SOL     OW29455   3.302   6.164   5.720 -0.1125  0.1691 -0.0027
41633SOL    HW129456   3.318   6.070   5.722  1.6954  0.3873 -1.3055
41633SOL    HW229457   3.276   6.182   5.629 -1.5373  0.8132  0.4943
41634SOL     OW29458  11.960   0.335  11.158  0.4031  0.0108  0.5453
41634SOL    HW129459  11.874   0.370  11.134 -0.7207 -2.5345  0.5449
41634SOL    HW229460  12.009   0.411  11.191 -1.3502  1.7739 -0.7131
41635SOL     OW29461   6.642   5.774   7.664 -0.1531  0.0022  0.4339
41635SOL    HW129462   6.572   5.837   7.648  2.2351  3.0586  1.1177
41635SOL    HW229463   6.649   5.770   7.760  0.8675  0.0630  0.3642
41636SOL     OW29464   8.518  10.059   1.512 -0.3025  0.1967  0.2512
41636SOL    HW129465   8.442  10.117   1.518  0.3658  1.1233  0.0225
41636SOL    HW229466   8.514  10.007   1.593  0.0166  1.7672  1.3236
41637SOL     OW29467   0.820  10.206   9.336 -0.5652  0.2879  0.0398
41637SOL    HW129468   0.775  10.273   9.387  0.7108 -0.4072  2.2168
41637SOL    HW229469   0.776  10.124   9.360 -1.5091  0.1719 -1.8820
41638SOL     OW29470  11.367   9.994   7.557  0.2440 -0.2581 -0.1623
41638SOL    HW129471  11.355   9.952   7.471 -1.1053  1.7790 -1.0336
41638SOL    HW229472  11.437  10.058   7.542 -0.8187  0.9421 -0.0792
41639SOL     OW29473   0.141   7.274   2.173  0.5220  0.0199  0.0002
41639SOL    HW129474   0.097   7.358   2.189 -0.4648 -0.7159  1.3968
41639SOL    HW229475   0.166   7.278   2.081 -1.6417  0.8907 -0.6262
41640SOL     OW29476  10.770   5.310   3.359 -0.1122  0.4701 -0.2777
41640SOL    HW129477  10.707   5.335   3.426  0.3439 -0.5459  0.5698
41640SOL    HW229478  10.762   5.215   3.352  0.4822  0.4612 -1.0129
41641SOL     OW29479   0.567   3.165  11.416  0.4570 -0.6029  0.0307
41641SOL    HW129480   0.493   3.147  11.358 -0.5676  0.3101  1.0367
41641SOL    HW229481   0.565   3.095  11.481  0.4789 -0.5637  0.0732
41642SOL     OW29482   5.118   0.290  10.405 -0.1700 -0.4428  0.1342
41642SOL    HW129483   5.033   0.247  10.411 -1.5223  1.9958 -0.1707
41642SOL    HW229484   5.139   0.314  10.496  0.1313 -0.8948  0.1880
41643SOL     OW29485   2.597  11.895  11.756  0.2881  0.2870 -0.5130
41643SOL    HW129486   2.658  11.948  11.808 -0.0007  2.7810 -2.4918
41643SOL    HW229487   2.510  11.927  11.782  0.0863  0.5534 -1.4853
41644SOL     OW29488   4.049   0.332   6.145 -0.3109 -0.0820  0.3286
41644SOL    HW129489   4.124   0.324   6.086 -0.1126 -0.9680  0.6797
41644SOL    HW229490   3.991   0.261   6.119 -0.0045 -0.7788  1.4957
41645SOL     OW29491   5.995   5.807   5.180  0.5181 -0.0289  0.1223
41645SOL    HW129492   5.950   5.745   5.122 -0.9113 -0.6188  1.7510
41645SOL    HW229493   6.003   5.887   5.128 -1.2476 -0.3440 -0.7288
41646SOL     OW29494   3.453   7.649   9.828 -0.5167  0.1267  0.1755
41646SOL    HW129495   3.396   7.672   9.902 -0.6535 -0.4927  0.2689
41646SOL    HW229496   3.508   7.726   9.815 -0.5408  0.2703  0.8827
41647SOL     OW29497   1.637   9.848   1.506 -0.2001  0.2177  0.4229
41647SOL    HW129498   1.553   9.862   1.551 -1.6878  1.1515 -2.4055
41647SOL    HW229499   1.670   9.936   1.489 -0.9000  0.0405 -2.2712
41648SOL     OW29500   1.434  12.086  11.819 -0.7495  0.2117  0.5116
41648SOL    HW129501   1.448  12.139  11.898  0.8323 -0.0277  0.4204
41648SOL    HW229502   1.514  12.034  11.811 -2.1561 -2.0902  0.5097
41649SOL     OW29503   6.826   8.771   3.275 -0.0079  0.0292  0.6876
41649SOL    HW129504   6.820   8.809   3.188 -0.6934 -2.1571 -0.2731
41649SOL    HW229505   6.771   8.828   3.329 -3.5298 -1.1829 -1.3319
41650SOL     OW29506   9.650   1.586   7.325 -0.4468  0.1543  0.4913
41650SOL    HW129507   9.593   1.627   7.391  0.4341  0.2878  1.1893
41650SOL    HW229508   9.686   1.659   7.275 -0.0856  0.1356  0.7231
41651SOL     OW29509  11.829   7.183  10.940 -0.4403  0.4241 -0.0613
41651SOL    HW129510  11.786   7.107  10.902  0.3393  0.6052 -1.3425
41651SOL    HW229511  11.757   7.240  10.968 -1.0208  0.0263 -0.7178
41652SOL     OW29512  11.639   1.635   5.240 -0.3504  0.4815 -0.3638
41652SOL    HW129513  11.596   1.550   5.231 -1.1534  0.7422  0.7370
41652SOL    HW229514  11.717   1.629   5.186 -0.0225 -1.2080  0.2546
41653SOL     OW29515  11.657   0.861  10.564 -0.3332 -0.5572  0.2500
41653SOL    HW129516  11.736   0.809  10.575 -0.5096 -0.6042  1.4630
41653SOL    HW229517  11.597   0.805  10.515 -0.2384 -1.1963  0.8550
41654SOL     OW29518  11.211  11.789  11.095 -0.3131 -0.0280 -0.3486
41654SOL    HW129519  11.163  11.814  11.016 -0.0302  1.0538 -0.1938
41654SOL    HW229520  11.185  11.854  11.160  1.3631  0.5937 -0.2657
41655SOL     OW29521   0.483   5.016   9.928 -0.2132 -0.3649  0.5705
41655SOL    HW129522   0.442   5.093   9.888 -1.5241  0.3390  3.1192
41655SOL    HW229523   0.533   5.051  10.002  2.8835 -1.5223 -0.7973
41656SOL     OW29524   4.300  11.833   4.790 -0.5393  0.3172 -0.2915
41656SOL    HW129525   4.295  11.874   4.703 -1.6064  0.0351 -0.3796
41656SOL    HW229526   4.252  11.751   4.780 -0.8720  0.3977  0.6349
41657SOL     OW29527   8.997   8.387   2.148  0.4344  0.0264 -0.1235
41657SOL    HW129528   8.952   8.386   2.063 -3.3870 -2.8168  1.6038
41657SOL    HW229529   9.012   8.294   2.167  2.6481  0.6751  1.7214
41658SOL     OW29530   5.275   5.002   8.370 -0.4832 -0.2806  0.4471
41658SOL    HW129531   5.248   5.073   8.311 -1.7152  0.0904  1.4083
41658SOL    HW229532   5.272   4.924   8.315  1.1387  0.3972 -0.6993
41659SOL     OW29533   1.844   0.382   0.982  0.5346 -0.1050 -0.0460
41659SOL    HW129534   1.854   0.427   0.898  1.1586 -1.3056 -0.6371
41659SOL    HW229535   1.841   0.453   1.046 -0.0262  0.8398 -1.0771
41660SOL     OW29536   5.900   1.100   0.556 -0.7413  0.1309  0.5722
41660SOL    HW129537   5.920   1.042   0.629 -1.8963  0.4880  1.2087
41660SOL    HW229538   5.842   1.167   0.594 -2.3961 -0.3774 -0.9111
41661SOL     OW29539   0.964   6.395   4.676 -0.0852  0.1427 -0.2500
41661SOL    HW129540   1.039   6.351   4.717  0.8751  0.3588 -1.7050
41661SOL    HW229541   1.001   6.476   4.641 -0.9712  0.1937 -1.0987
41662SOL     OW29542   9.378  12.036   2.891 -0.5206 -0.0476 -0.8494
41662SOL    HW129543   9.447  12.067   2.951  0.4996  0.5065 -2.2636
41662SOL    HW229544   9.354  11.950   2.925 -0.7931  0.7200  1.0278
41663SOL     OW29545  11.536   9.564   5.074 -0.2489  0.0715 -0.2929
41663SOL    HW129546  11.619   9.540   5.033  0.3673  1.4851  0.0536
41663SOL    HW229547  11.510   9.487   5.124  1.0794 -0.2389 -0.0531
41664SOL     OW29548   5.429   9.419   8.100 -0.2060 -0.5162 -0.5310
41664SOL    HW129549   5.466   9.500   8.066 -1.5755 -0.4671 -2.0148
41664SOL    HW229550   5.470   9.350   8.048 -1.7633 -0.4914 -1.8507
41665SOL     OW29551   7.255   0.367   5.011 -0.2256 -0.0466  0.7807
41665SOL    HW129552   7.333   0.385   5.064  0.6380 -1.2032 -0.0598
41665SOL    HW229553   7.197   0.317   5.070 -0.5841  1.2498  1.5686
41666SOL     OW29554   4.972  11.064   9.202  0.1533  0.1775 -0.3369
41666SOL    HW129555   4.903  11.005   9.232 -1.2591  2.4113  1.0531
41666SOL    HW229556   5.028  11.077   9.279  0.7856  0.2088 -0.7939
41667SOL     OW29557   5.626   2.524   3.611 -0.2842  0.0468 -0.0379
41667SOL    HW129558   5.594   2.468   3.682  0.1432  0.8311  0.8050
41667SOL    HW229559   5.587   2.610   3.629 -0.9368  0.0396 -1.3136
41668SOL     OW29560   7.135   7.402   1.176 -0.1680 -0.0869  0.6309
41668SOL    HW129561   7.212   7.384   1.229  1.4679  0.8535 -1.3154
41668SOL    HW229562   7.119   7.496   1.187 -0.7561 -0.1802  0.6402
41669SOL     OW29563   0.228   9.215   8.340 -0.4075  0.0496  0.7251
41669SOL    HW129564   0.149   9.164   8.357  0.8827 -1.9876  0.9374
41669SOL    HW229565   0.288   9.153   8.300  1.5451  1.1777  1.7507
41670SOL     OW29566   5.831   8.061   7.800  0.1827  0.0544 -0.4088
41670SOL    HW129567   5.759   8.109   7.839 -0.7907 -1.3714 -0.3590
41670SOL    HW229568   5.833   8.090   7.709  0.4689  1.1152 -0.0829
41671SOL     OW29569   2.996  10.701   2.730 -0.0183  0.2584  0.3646
41671SOL    HW129570   2.990  10.772   2.794 -0.3443  2.2964 -1.8164
41671SOL    HW229571   2.904  10.680   2.709  0.0576 -1.1577  1.2765
41672SOL     OW29572   2.799   1.530   1.108 -0.5185 -0.0046  0.0595
41672SOL    HW129573   2.826   1.564   1.023 -1.6129  0.8313  0.0312
41672SOL    HW229574   2.843   1.585   1.171  0.8481 -1.0583  0.0714
41673SOL     OW29575   0.464   7.352   8.942 -0.1936 -0.2239  0.0749
41673SOL    HW129576   0.407   7.406   8.887  0.9892 -0.7057 -1.6808
41673SOL    HW229577   0.491   7.280   8.886  3.1366  0.6144  0.3887
41674SOL     OW29578   9.483   8.545  11.711 -0.4696 -0.3785 -0.0744
41674SOL    HW129579   9.466   8.506  11.797  1.1652 -1.0345 -0.0171
41674SOL    HW229580   9.505   8.636  11.730 -0.7509 -0.3579  0.1485
41675SOL     OW29581  10.529   4.214   7.655  0.0837  0.1003 -0.7785
41675SOL    HW129582  10.490   4.140   7.701 -1.7122  0.8358 -1.0242
41675SOL    HW229583  10.620   4.215   7.685  0.0300 -1.8765 -0.3897
41676SOL     OW29584   3.674   5.020   9.039  0.3272  0.2933  0.6286
41676SOL    HW129585   3.700   5.039   8.948  2.8649  2.9969  1.7440
41676SOL    HW229586   3.609   5.087   9.060  1.1868  0.9563  1.3037
41677SOL     OW29587   1.443   2.685   2.311 -0.8244  0.2197  0.3719
41677SOL    HW129588   1.437   2.718   2.400  2.8380  1.0818  0.4590
41677SOL    HW229589   1.529   2.643   2.306 -0.8769  0.2022 -2.7256
41678SOL     OW29590   3.805  11.069   0.749 -0.1282  0.1178  0.2584
41678SOL    HW129591   3.788  10.981   0.782 -0.9676 -0.2193 -0.9974
41678SOL    HW229592   3.873  11.104   0.806  0.2722 -1.3758  0.7263
41679SOL     OW29593   0.234   1.586  10.620  0.0568 -0.2231 -0.3457
41679SOL    HW129594   0.161   1.555  10.674 -0.0396 -1.1120 -0.9606
41679SOL    HW229595   0.236   1.681  10.635 -2.2297  0.0753 -1.4779
41680SOL     OW29596   5.118   6.474   5.141  0.3226 -0.1431  0.1349
41680SOL    HW129597   5.121   6.457   5.046  0.0568  1.4092 -0.1798
41680SOL    HW229598   5.168   6.555   5.152 -0.4907  0.2393  1.1790
41681SOL     OW29599   1.233  10.329   2.484  0.2866  0.6423  0.1683
41681SOL    HW129600   1.284  10.402   2.449  0.9304 -0.4267 -1.2173
41681SOL    HW229601   1.218  10.272   2.409  0.5576 -1.0915  1.3632
41682SOL     OW29602   1.624   5.870   8.795  0.5145  0.5912  0.1245
41682SOL    HW129603   1.581   5.802   8.745 -0.2705 -0.9633  2.7266
41682SOL    HW229604   1.565   5.945   8.790  1.1488  1.0062 -2.3522
41683SOL     OW29605  10.640   7.807   0.467  0.4392  0.3938 -0.0152
41683SOL    HW129606  10.730   7.775   0.459  0.0883 -0.2781 -2.0515
41683SOL    HW229607  10.612   7.781   0.554  1.0153 -2.8122 -0.6763
41684SOL     OW29608   5.224   6.020   3.995 -0.0497  0.1735  0.0607
41684SOL    HW129609   5.221   5.986   4.085  0.2322 -0.0595 -0.0172
41684SOL    HW229610   5.317   6.023   3.973 -0.1605 -0.6897 -0.5691
41685SOL     OW29611   0.503   3.008   9.851  0.6528  0.0362 -0.1022
41685SOL    HW129612   0.561   3.080   9.874 -1.9715  1.7834  1.6442
41685SOL    HW229613   0.502   2.952   9.928  0.6991 -0.4722 -0.4668
41686SOL     OW29614   0.916   5.825   1.868  0.1042 -0.8329  0.2494
41686SOL    HW129615   0.898   5.741   1.826 -2.1138 -1.0168  1.4466
41686SOL    HW229616   0.914   5.806   1.962 -3.8091  1.0302  0.7224
41687SOL     OW29617  11.811   9.028   9.152  0.6980 -0.5658 -0.1402
41687SOL    HW129618  11.879   9.096   9.157  2.0143 -1.8488  0.0749
41687SOL    HW229619  11.827   8.985   9.068 -1.9220  1.1499 -1.6427
41688SOL     OW29620   5.946  12.012   4.413  0.5730 -0.0035 -0.3557
41688SOL    HW129621   5.917  12.017   4.322 -0.9111 -0.2720  0.0677
41688SOL    HW229622   6.039  12.035   4.410  0.9347 -1.4580 -2.1149
41689SOL     OW29623   8.316   2.544  10.689 -0.2993  0.1483 -0.0248
41689SOL    HW129624   8.274   2.499  10.763 -0.0886  0.2953  0.1862
41689SOL    HW229625   8.398   2.498  10.677  0.5736  1.3199  1.0964
41690SOL     OW29626   3.856   1.386   1.696 -0.8670 -0.2149 -0.1502
41690SOL    HW129627   3.764   1.402   1.719 -0.5652  0.2392  0.7811
41690SOL    HW229628   3.879   1.458   1.638 -0.7614  0.3524  0.5832
41691SOL     OW29629   5.060   2.314   4.394 -0.0296  0.4685 -0.1424
41691SOL    HW129630   4.992   2.275   4.449  1.6392 -1.7246  0.4819
41691SOL    HW229631   5.130   2.338   4.454  0.5149  0.9831 -0.9619
41692SOL     OW29632   1.663   9.241   9.731 -0.1994  0.2984 -0.5854
41692SOL    HW129633   1.583   9.264   9.683  0.3217 -0.3853 -1.8439
41692SOL    HW229634   1.702   9.326   9.753 -1.0503  0.6355 -0.3256
41693SOL     OW29635   5.393   3.003   7.876  0.0187 -0.0800 -0.2904
41693SOL    HW129636   5.378   3.091   7.912  1.4172 -0.1260  0.4447
41693SOL    HW229637   5.318   2.952   7.907 -0.4573  0.6755 -0.1511
41694SOL     OW29638  11.068   4.621   7.743 -0.0744 -0.1086  0.0374
41694SOL    HW129639  11.000   4.557   7.721  0.1167  0.1554 -1.4793
41694SOL    HW229640  11.150   4.573   7.734  0.0413  0.1825 -0.5319
41695SOL     OW29641  11.108  12.108   3.945  0.4749 -0.0891 -0.2711
41695SOL    HW129642  11.092  12.194   3.906  0.1389 -0.4148 -0.8705
41695SOL    HW229643  11.030  12.057   3.923 -0.1232 -0.0340  1.5755
41696SOL     OW29644   6.797   3.827   5.550  0.3852  0.3887 -0.6387
41696SOL    HW129645   6.819   3.763   5.482  0.9403  0.5851 -0.6528
41696SOL    HW229646   6.704   3.845   5.538  0.4615  0.3589 -1.3013
41697SOL     OW29647   0.598   1.660   9.539  0.8274 -0.3611 -0.5744
41697SOL    HW129648   0.691   1.681   9.547  0.3459  1.5190  0.6890
41697SOL    HW229649   0.568   1.709   9.463  0.8623 -0.9772 -0.9892
41698SOL     OW29650   2.784  11.339   7.695  0.1587  0.2894  0.0670
41698SOL    HW129651   2.828  11.400   7.754 -0.1045  1.8051 -1.2368
41698SOL    HW229652   2.707  11.388   7.664 -0.3396 -0.9052 -0.6412
41699SOL     OW29653   5.273   7.245   2.269  0.0732 -0.6774 -0.1441
41699SOL    HW129654   5.303   7.330   2.301 -0.6924 -0.6082  0.4245
41699SOL    HW229655   5.191   7.264   2.224 -0.8736 -1.2886  1.2561
41700SOL     OW29656   2.312   2.898   9.354 -0.1473  0.1963  0.4844
41700SOL    HW129657   2.308   2.975   9.297 -0.2082  0.2744  0.5928
41700SOL    HW229658   2.369   2.924   9.426 -0.8182  0.4314  0.9472
41701SOL     OW29659  10.435   5.939   1.750  0.3188 -0.6145  0.1143
41701SOL    HW129660  10.489   5.867   1.717  0.8055 -0.5954  0.8606
41701SOL    HW229661  10.494   5.992   1.803 -0.2344 -0.1216  0.2504
41702SOL     OW29662   4.226  11.689   1.941  0.0329 -0.0499  0.1500
41702SOL    HW129663   4.154  11.628   1.957 -1.9355  1.5304 -2.0038
41702SOL    HW229664   4.287  11.674   2.014 -0.9153 -3.6356  0.4028
41703SOL     OW29665   9.084   9.601   3.703  0.0417 -0.0003 -0.3121
41703SOL    HW129666   8.993   9.581   3.678  0.2790  1.3396 -2.4679
41703SOL    HW229667   9.080   9.690   3.737  0.3188 -0.5825  1.3689
41704SOL     OW29668  11.068   7.403   3.107 -0.4169  0.1680 -0.0716
41704SOL    HW129669  11.003   7.365   3.166  0.5857  0.6394  1.3892
41704SOL    HW229670  11.052   7.498   3.112 -0.3720  0.2096 -0.6357
41705SOL     OW29671   3.222  11.246  10.962 -0.3899  0.1018  0.0167
41705SOL    HW129672   3.241  11.168  10.910  0.5625  0.3200  0.0268
41705SOL    HW229673   3.198  11.313  10.897 -0.2288  0.0820 -0.0634
41706SOL     OW29674   5.696  10.979  11.483 -0.4433 -0.2505  0.1890
41706SOL    HW129675   5.718  11.065  11.446 -1.9967 -0.1269 -0.5185
41706SOL    HW229676   5.626  10.998  11.546  1.1272 -0.6560  2.1525
41707SOL     OW29677   6.162   3.649   9.577  0.4308  0.4603  0.7379
41707SOL    HW129678   6.174   3.674   9.669  1.4926  0.0194  0.7303
41707SOL    HW229679   6.187   3.726   9.527  1.7211  0.0848  0.7750
41708SOL     OW29680  10.512   9.009   6.836 -0.1043 -1.1527 -0.4027
41708SOL    HW129681  10.547   9.095   6.816  0.1928 -1.3455 -0.7208
41708SOL    HW229682  10.427   9.026   6.878 -0.2612 -0.7207 -0.8917
41709SOL     OW29683   2.621   6.673   5.703  0.5482 -0.0361  0.0854
41709SOL    HW129684   2.694   6.734   5.689  2.0340 -2.2077 -2.5759
41709SOL    HW229685   2.660   6.599   5.749 -0.4137 -0.4749  0.2197
41710SOL     OW29686  11.105   2.714  10.369 -0.4338 -0.2144 -0.0804
41710SOL    HW129687  11.014   2.723  10.398  0.1428  0.0468  1.7893
41710SOL    HW229688  11.107   2.759  10.285 -2.4012 -1.7016 -1.0076
41711SOL     OW29689  11.210  10.353   9.841 -0.0813  0.3641 -0.2869
41711SOL    HW129690  11.229  10.358   9.934  0.6833 -0.7298 -0.3642
41711SOL    HW229691  11.229  10.262   9.817 -2.8910 -0.1397 -0.9579
41712SOL     OW29692   6.013   3.564   6.087  0.5454 -0.4740  0.2471
41712SOL    HW129693   6.102   3.553   6.054  0.0905 -0.7379 -0.9372
41712SOL    HW229694   5.968   3.483   6.064 -0.2506  0.0246 -0.0147
41713SOL     OW29695   2.535   4.304   8.155 -0.5068  0.0462  0.0578
41713SOL    HW129696   2.543   4.370   8.085 -3.1281 -0.3181 -0.6884
41713SOL    HW229697   2.621   4.302   8.196  0.1514  2.7065 -0.9979
41714SOL     OW29698   6.988  11.633   4.861 -0.7420  0.1025  0.7899
41714SOL    HW129699   6.975  11.604   4.771  2.2322 -0.5391  0.4584
41714SOL    HW229700   7.013  11.725   4.853 -0.0244 -0.0780  0.9013
41715SOL     OW29701   0.200   8.322   9.005  0.4570  0.2853 -0.1735
41715SOL    HW129702   0.260   8.395   9.021 -0.5251  1.2067 -0.5488
41715SOL    HW229703   0.218   8.294   8.916 -0.4021  1.3084 -0.6948
41716SOL     OW29704   4.012   7.616   9.276  0.0497 -0.4149  0.5983
41716SOL    HW129705   3.982   7.598   9.365  0.8343 -2.3422  0.5336
41716SOL    HW229706   4.108   7.621   9.283  0.1101 -0.3991 -0.1002
41717SOL     OW29707   7.044   8.204  11.759  0.0564 -0.1962  0.0518
41717SOL    HW129708   7.056   8.110  11.748  0.1644 -0.1301 -0.4222
41717SOL    HW229709   7.010   8.214  11.848  0.5701 -0.6322  0.2965
41718SOL     OW29710   9.452  10.162   7.486  0.2857  0.2184  0.1325
41718SOL    HW129711   9.449  10.238   7.544  0.7740  0.3415  0.0010
41718SOL    HW229712   9.397  10.185   7.412  1.9147  1.2256 -0.8298
41719SOL     OW29713   7.847   9.797   3.445 -0.2336 -0.0912  0.3994
41719SOL    HW129714   7.861   9.724   3.385  1.0653  0.0349  0.5173
41719SOL    HW229715   7.788   9.856   3.398  2.4602  1.0974 -1.7814
41720SOL     OW29716   7.506   6.783   3.744  0.2200  0.4705 -0.6131
41720SOL    HW129717   7.462   6.767   3.660  0.7559 -0.3088 -0.7494
41720SOL    HW229718   7.435   6.807   3.804 -0.1346  1.3833 -1.3621
41721SOL     OW29719   7.302   8.220   4.899  0.3228 -0.3751  0.8383
41721SOL    HW129720   7.389   8.258   4.902 -0.9245  2.7899  0.7457
41721SOL    HW229721   7.247   8.280   4.950 -2.1490 -1.2035 -0.6436
41722SOL     OW29722   0.539   9.362   1.173 -0.3378  0.0731  0.0561
41722SOL    HW129723   0.517   9.455   1.167 -0.2393  0.0787 -0.2482
41722SOL    HW229724   0.540   9.343   1.267  2.5410  1.0962  0.3428
41723SOL     OW29725   7.409   4.770  10.299 -0.2694  0.1086 -0.1158
41723SOL    HW129726   7.381   4.689  10.257  0.7966  0.6493 -2.0065
41723SOL    HW229727   7.437   4.743  10.386 -1.1117 -1.3309 -0.2470
41724SOL     OW29728   4.151   8.140   3.650 -0.0132 -0.2666  0.5903
41724SOL    HW129729   4.231   8.090   3.637  0.0606  0.2107 -0.9039
41724SOL    HW229730   4.142   8.193   3.571 -2.6280 -1.4656 -0.0518
41725SOL     OW29731  10.593  10.078   7.527  0.0118  0.0905 -0.1678
41725SOL    HW129732  10.504  10.060   7.559  0.2539 -0.8504  0.0176
41725SOL    HW229733  10.622   9.994   7.491  0.1654  0.8396 -1.8603
41726SOL     OW29734   5.511  11.148   3.967 -0.4348 -0.0741  0.0894
41726SOL    HW129735   5.581  11.145   3.902 -0.4434 -0.7162  0.1055
41726SOL    HW229736   5.540  11.213   4.031  0.5725 -0.9860  0.5773
41727SOL     OW29737   1.173   1.780   2.237  0.2650  0.1515  0.6347
41727SOL    HW129738   1.259   1.823   2.235 -0.3482  1.4056  0.0103
41727SOL    HW229739   1.133   1.810   2.319  0.3523 -0.3071  0.8487
41728SOL     OW29740   9.713   7.208  11.354  0.2905 -0.3885 -0.3532
41728SOL    HW129741   9.742   7.261  11.428  0.4149 -0.1447 -0.5779
41728SOL    HW229742   9.628   7.245  11.331 -0.7868 -1.8298  1.0484
41729SOL     OW29743   5.407   2.117   5.082 -0.1558  0.3956 -0.2315
41729SOL    HW129744   5.408   2.144   5.173 -1.7779 -0.4943  0.0948
41729SOL    HW229745   5.447   2.030   5.082 -2.0398 -0.5228  0.0187
41730SOL     OW29746  11.085   1.229   5.281  0.7139  0.8399  0.2791
41730SOL    HW129747  11.142   1.258   5.209  0.8350 -0.0065  0.0264
41730SOL    HW229748  11.098   1.135   5.285 -0.7426  0.6217  0.1671
41731SOL     OW29749   5.500   4.616   3.543 -0.1649  0.2815  0.0456
41731SOL    HW129750   5.426   4.674   3.525 -0.4185 -0.2187 -0.5972
41731SOL    HW229751   5.571   4.650   3.490  0.2202  1.0424  1.0242
41732SOL     OW29752   3.411  10.512   4.542  0.4119 -0.0924 -0.2756
41732SOL    HW129753   3.377  10.594   4.579  0.7994 -0.1012  0.1026
41732SOL    HW229754   3.333  10.468   4.508  0.0564 -0.0515  0.4647
41733SOL     OW29755   7.569   1.719   8.086  0.2406 -0.6437  0.4366
41733SOL    HW129756   7.570   1.815   8.091  0.4624 -0.6292  0.1417
41733SOL    HW229757   7.650   1.697   8.041  1.1363 -1.0692  2.1734
41734SOL     OW29758   5.748   3.293  11.380  0.3385 -0.2008 -0.2404
41734SOL    HW129759   5.657   3.317  11.365  0.1692 -0.7199 -0.0297
41734SOL    HW229760   5.786   3.370  11.424 -0.7600 -1.1055  2.4794
41735SOL     OW29761   7.294   4.742  11.809 -0.3873  0.4746 -0.0418
41735SOL    HW129762   7.315   4.666  11.864 -1.3081 -1.3139 -2.0047
41735SOL    HW229763   7.198   4.745  11.809 -0.3801  2.5524  1.0847
41736SOL     OW29764   3.343   9.472   9.413 -0.8821  0.2045 -0.0866
41736SOL    HW129765   3.335   9.500   9.322  0.0073  1.2554  0.1344
41736SOL    HW229766   3.403   9.397   9.410 -1.0182  0.1080 -0.3862
41737SOL     OW29767   3.483   4.092   0.159  0.0589 -0.1801 -0.7648
41737SOL    HW129768   3.405   4.136   0.192  0.7467  2.0526 -1.8950
41737SOL    HW229769   3.463   4.074   0.067  1.6731  2.7662 -1.8265
41738SOL     OW29770   4.664   7.658   6.293  0.1584  0.3944  0.0514
41738SOL    HW129771   4.598   7.592   6.273 -1.3059  1.6568  0.5533
41738SOL    HW229772   4.669   7.660   6.388  0.4294  0.7736  0.0328
41739SOL     OW29773   8.086   9.679  10.466  0.7599 -0.2803  0.3539
41739SOL    HW129774   8.006   9.626  10.467 -0.0643  0.9004  1.7979
41739SOL    HW229775   8.156   9.616  10.451 -0.5072 -1.1179 -2.9599
41740SOL     OW29776   6.373   4.184   6.309  0.1782  0.9502  0.5621
41740SOL    HW129777   6.437   4.113   6.308  1.8668  2.3973  0.8057
41740SOL    HW229778   6.345   4.190   6.400  1.8901  2.1380  1.0494
41741SOL     OW29779   4.947   6.896  11.010 -0.1477 -0.4708 -0.1491
41741SOL    HW129780   4.998   6.927  11.084 -0.5199  1.0478 -0.4788
41741SOL    HW229781   4.876   6.960  11.001  1.6963  1.4043 -3.7784
41742SOL     OW29782  10.699   5.133   6.181  0.0506 -0.2612 -0.1323
41742SOL    HW129783  10.791   5.118   6.203  0.0404 -0.1764 -0.0321
41742SOL    HW229784  10.695   5.122   6.086  0.3826  0.8032 -0.2895
41743SOL     OW29785  11.257  10.144   0.825  0.2926 -0.1939 -0.3450
41743SOL    HW129786  11.301  10.063   0.800 -0.7497 -0.0178 -3.0568
41743SOL    HW229787  11.290  10.209   0.763 -0.9417  0.8227  0.0226
41744SOL     OW29788  11.202   4.510   6.198 -0.7636  0.0594 -0.3209
41744SOL    HW129789  11.167   4.427   6.165  1.8382 -1.7136  1.0368
41744SOL    HW229790  11.179   4.510   6.291  1.3516 -0.4306  0.2518
41745SOL     OW29791   2.841   7.883   3.394 -0.1871 -0.2906  0.4175
41745SOL    HW129792   2.831   7.939   3.471 -1.0570 -0.5957  0.5321
41745SOL    HW229793   2.935   7.862   3.392  0.0242  0.5438  0.8022
41746SOL     OW29794   0.663   5.237   2.328  0.1947  0.5865  0.2662
41746SOL    HW129795   0.662   5.260   2.421  2.1181 -2.5422  1.2090
41746SOL    HW229796   0.589   5.177   2.317  0.8309 -0.1895  0.1519
41747SOL     OW29797   8.980   5.112  11.248  0.6826 -0.3727 -1.0983
41747SOL    HW129798   8.911   5.112  11.314  1.3054 -0.1340 -0.4327
41747SOL    HW229799   9.033   5.035  11.269  1.8455  0.6108 -0.2698
41748SOL     OW29800   8.682   8.184   7.608 -0.0683 -0.3904  0.0417
41748SOL    HW129801   8.712   8.134   7.685  0.1829  0.4318  0.4879
41748SOL    HW229802   8.590   8.201   7.625  0.2941  0.9094  0.7938
41749SOL     OW29803   6.403   7.757   0.275  0.1598 -0.4458  0.5081
41749SOL    HW129804   6.311   7.736   0.261 -0.5268  0.7198  2.8200
41749SOL    HW229805   6.422   7.823   0.208 -0.3090 -1.4941 -0.7147
41750SOL     OW29806  10.495   0.781   2.659 -0.3321  0.0974 -0.5545
41750SOL    HW129807  10.558   0.727   2.706  1.4555  1.8438 -0.7959
41750SOL    HW229808  10.548   0.836   2.602 -2.1551  1.0082 -1.4867
41751SOL     OW29809   6.323   4.122   2.872  0.6436 -0.2499  0.2952
41751SOL    HW129810   6.286   4.087   2.953 -1.4415  0.9663 -0.0694
41751SOL    HW229811   6.392   4.182   2.902  0.9208 -0.9325  1.0780
41752SOL     OW29812   6.257   9.223   0.279  0.6041 -0.1294  0.4926
41752SOL    HW129813   6.327   9.288   0.287  1.8527 -1.3040 -0.4188
41752SOL    HW229814   6.260   9.195   0.188  2.0514 -3.4652  1.3958
41753SOL     OW29815   3.494   3.316  11.898  0.0708  0.3964  0.0932
41753SOL    HW129816   3.505   3.224  11.923  0.1622 -0.2856 -2.1580
41753SOL    HW229817   3.480   3.313  11.803 -1.1937  2.6277  0.1248
41754SOL     OW29818   2.642   0.182   6.937  0.7250  0.5371  0.0597
41754SOL    HW129819   2.635   0.169   7.031  0.3450  0.5354  0.0331
41754SOL    HW229820   2.630   0.094   6.900 -0.8614  0.7634 -0.0703
41755SOL     OW29821   7.690   2.187   0.369 -0.5283 -0.3646  0.4575
41755SOL    HW129822   7.708   2.130   0.294  1.0024  1.2174 -0.4334
41755SOL    HW229823   7.598   2.169   0.390 -1.5513  0.2591 -2.8354
41756SOL     OW29824  10.597   2.368   6.132  0.4804 -1.1530 -0.0267
41756SOL    HW129825  10.683   2.389   6.169  0.1821  0.3868 -0.1239
41756SOL    HW229826  10.607   2.383   6.038 -0.1829  0.1953  0.0940
41757SOL     OW29827   2.695   8.625   2.790 -0.7138  0.1004  0.2219
41757SOL    HW129828   2.750   8.690   2.746 -1.1093  0.3176  0.0429
41757SOL    HW229829   2.738   8.542   2.772 -0.6418  0.2311 -0.2340
41758SOL     OW29830   0.307  12.026  10.311 -0.4705 -0.2362 -0.3329
41758SOL    HW129831   0.379  12.036  10.374 -0.1485 -1.1367 -0.5432
41758SOL    HW229832   0.228  12.028  10.365 -0.4916  2.8045 -0.2743
41759SOL     OW29833   1.114   2.415   1.011  0.0516 -0.0569  0.6500
41759SOL    HW129834   1.070   2.381   1.088  0.5792 -0.2629  0.8627
41759SOL    HW229835   1.202   2.378   1.015 -0.6751 -2.2436 -1.4633
41760SOL     OW29836   1.035   2.887   0.919 -0.0123 -0.2115  0.0420
41760SOL    HW129837   1.064   2.976   0.940  0.9333 -1.0387  2.5792
41760SOL    HW229838   1.086   2.863   0.842  0.4578  1.0811 -0.0761
41761SOL     OW29839   9.021   1.798   0.094 -0.9757  0.1085 -0.2260
41761SOL    HW129840   9.023   1.852   0.173  0.7549  0.7586 -0.6617
41761SOL    HW229841   9.022   1.708   0.126  1.4478  0.3460  0.5535
41762SOL     OW29842   2.831   1.662   3.584  0.4666 -0.0341  0.1742
41762SOL    HW129843   2.740   1.644   3.559  0.1158 -2.6072  2.7833
41762SOL    HW229844   2.824   1.723   3.657  0.9966  1.0604 -0.6550
41763SOL     OW29845  11.137   7.876   5.019 -0.1849 -0.1604  0.0831
41763SOL    HW129846  11.158   7.782   5.021  1.4352  0.1673 -0.0629
41763SOL    HW229847  11.043   7.880   5.036  0.0149 -1.7071  1.9364
41764SOL     OW29848   3.897   8.019   3.398 -0.5137  0.0487 -0.0542
41764SOL    HW129849   3.850   7.961   3.338 -0.0031 -0.1940 -0.2278
41764SOL    HW229850   3.980   8.037   3.353  0.1293 -0.6143  0.8398
41765SOL     OW29851  11.009   6.414   5.254  0.2154  0.2861 -0.1133
41765SOL    HW129852  11.092   6.370   5.272  0.8054  1.5537  0.3861
41765SOL    HW229853  11.032   6.507   5.248 -0.9723  0.5281 -1.2485
41766SOL     OW29854   1.712   6.459   5.376 -0.5276 -0.2043 -0.2606
41766SOL    HW129855   1.730   6.536   5.323 -1.5805  0.1711 -0.0914
41766SOL    HW229856   1.648   6.488   5.440  0.5644 -0.7046  1.1064
41767SOL     OW29857   6.846   7.743   8.039  0.3452 -1.0103 -0.4622
41767SOL    HW129858   6.754   7.720   8.050 -0.1779  1.3178  0.7343
41767SOL    HW229859   6.857   7.755   7.945 -1.3016  1.1511 -0.4505
41768SOL     OW29860   1.622   0.168   9.597  0.0842 -0.2636  0.1634
41768SOL    HW129861   1.652   0.102   9.659  0.1594 -0.7250 -0.3563
41768SOL    HW229862   1.533   0.141   9.575 -1.0708  1.4937  2.2522
41769SOL     OW29863   6.537   9.861   0.155  0.7768 -0.0620  0.1850
41769SOL    HW129864   6.562   9.891   0.243  0.8362 -0.1418  0.1952
41769SOL    HW229865   6.621   9.845   0.111  0.7420 -0.4808  0.2699
41770SOL     OW29866   0.498  10.589   7.891  0.3859 -0.2610  0.3807
41770SOL    HW129867   0.567  10.622   7.834 -0.1928  0.0690 -0.1392
41770SOL    HW229868   0.445  10.532   7.835  0.1093 -0.3388  0.7144
41771SOL     OW29869  11.305   6.437   6.704 -0.2948 -0.7238 -0.7504
41771SOL    HW129870  11.373   6.403   6.762 -1.1694  0.4330  1.0816
41771SOL    HW229871  11.346   6.443   6.618  2.1351  0.4740  0.4016
41772SOL     OW29872   1.109   1.181  11.050 -0.3403  0.0455  0.1483
41772SOL    HW129873   1.117   1.146  10.961  1.7063 -1.6162  0.8921
41772SOL    HW229874   1.021   1.218  11.054 -0.4332  0.3252 -2.5948
41773SOL     OW29875  11.733   1.892   2.587 -0.0311 -0.4257 -0.3128
41773SOL    HW129876  11.821   1.902   2.550  0.2453  0.5680  0.5456
41773SOL    HW229877  11.712   1.799   2.574  0.6296 -0.4141 -1.6172
41774SOL     OW29878   9.738   2.782   7.055 -0.6542  0.6515  0.3548
41774SOL    HW129879   9.787   2.862   7.037 -0.6155  0.7438  0.8618
41774SOL    HW229880   9.716   2.787   7.148  0.6367 -0.6258  0.7608
41775SOL     OW29881  12.047   7.096  10.811  0.1445  0.0370  0.1493
41775SOL    HW129882  11.984   7.093  10.883  1.3469 -0.2557  1.2291
41775SOL    HW229883  12.079   7.186  10.810  0.0433  0.0701 -0.0926
41776SOL     OW29884   3.063   9.391   9.209 -0.0274  0.3175  0.1777
41776SOL    HW129885   3.082   9.327   9.141 -0.2764  0.3767  0.0486
41776SOL    HW229886   3.071   9.476   9.166 -1.7269  0.3208 -0.2083
41777SOL     OW29887   3.698   7.889   4.885 -0.1035 -0.3525 -0.3027
41777SOL    HW129888   3.620   7.939   4.863 -0.7993  0.2260  2.8800
41777SOL    HW229889   3.766   7.921   4.827 -1.1670  2.4545 -0.1329
41778SOL     OW29890  10.627   6.800   2.897 -0.3244  0.2107 -0.2294
41778SOL    HW129891  10.559   6.770   2.837  0.5207 -0.5073 -0.8645
41778SOL    HW229892  10.706   6.754   2.869  0.5656  1.4694  0.1077
41779SOL     OW29893   3.381   8.608  11.306 -0.7924  0.0421  0.3712
41779SOL    HW129894   3.340   8.666  11.370 -0.3756 -1.0253  1.6643
41779SOL    HW229895   3.308   8.575  11.253 -1.2820  0.2012  0.9371
41780SOL     OW29896   3.977  10.794   3.836  0.1778  0.2761 -0.0320
41780SOL    HW129897   4.059  10.761   3.800  0.0618  0.4107 -0.4260
41780SOL    HW229898   3.932  10.716   3.869  0.0272  0.0634 -0.7102
41781SOL     OW29899   6.599   7.086   9.114  0.2115  0.3947 -0.2566
41781SOL    HW129900   6.667   7.154   9.115  1.5860 -0.9031 -0.7840
41781SOL    HW229901   6.521   7.130   9.082  0.6115  2.0934  0.9627
41782SOL     OW29902  10.074   9.885   3.354  0.0826 -0.3542 -0.2549
41782SOL    HW129903  10.138   9.854   3.289  1.2458 -1.5846  1.3909
41782SOL    HW229904  10.112   9.966   3.388  1.0072 -1.2787  0.9881
41783SOL     OW29905   0.565   7.130   1.627 -0.1188 -0.4141  0.2933
41783SOL    HW129906   0.658   7.116   1.643 -0.6036 -0.9348  3.1082
41783SOL    HW229907   0.558   7.224   1.609  0.8450 -0.1559  1.1532
41784SOL     OW29908   8.233   1.205   3.788 -0.5919  0.0501  0.3659
41784SOL    HW129909   8.153   1.183   3.837  0.3123 -1.1045  1.3995
41784SOL    HW229910   8.264   1.121   3.756  1.6960  0.0118  2.3777
41785SOL     OW29911   5.991   9.488   5.308 -0.6024 -0.7299  0.1155
41785SOL    HW129912   6.057   9.443   5.256 -0.5569 -0.2163 -0.2853
41785SOL    HW229913   5.908   9.454   5.275 -0.5800 -0.2859 -0.4280
41786SOL     OW29914  11.088   2.966   7.836 -0.1721  0.4392  0.8743
41786SOL    HW129915  11.024   2.982   7.905  0.5111 -1.3406  1.9945
41786SOL    HW229916  11.172   2.971   7.880  0.2261 -2.7506  0.7492
41787SOL     OW29917   7.026   0.258   2.381 -0.0104  0.3094 -0.1762
41787SOL    HW129918   7.025   0.181   2.323  0.0434  0.0850  0.1143
41787SOL    HW229919   6.999   0.330   2.326  0.7918  0.2417 -0.6828
41788SOL     OW29920   5.126   0.291   7.518 -0.1533 -0.5098  0.5687
41788SOL    HW129921   5.053   0.282   7.578 -0.5449  0.0838  0.1892
41788SOL    HW229922   5.203   0.301   7.574 -0.7112  1.7856  1.0269
41789SOL     OW29923   4.594  10.466   9.590  0.3036 -0.2781 -0.3064
41789SOL    HW129924   4.628  10.414   9.517  0.5534  0.7368 -0.9310
41789SOL    HW229925   4.512  10.501   9.558  0.2447 -0.1092  0.0297
41790SOL     OW29926   7.729   4.418   9.445 -0.1025 -0.4278 -0.3174
41790SOL    HW129927   7.681   4.337   9.430 -1.3893  0.3496 -0.5522
41790SOL    HW229928   7.743   4.455   9.357 -1.3086  0.5856 -0.1000
41791SOL     OW29929   7.273   8.436   4.443  0.2156 -0.3244 -0.2059
41791SOL    HW129930   7.279   8.519   4.395 -0.8628 -0.3427 -0.3845
41791SOL    HW229931   7.364   8.410   4.457  0.6473  1.8838  1.5994
41792SOL     OW29932   2.301   9.419   3.104 -0.0874 -0.1639 -0.2066
41792SOL    HW129933   2.266   9.386   3.187  1.3851 -2.6093 -0.4655
41792SOL    HW229934   2.225   9.432   3.048 -0.9702 -0.0406  0.9929
41793SOL     OW29935   5.435   0.980  10.464 -0.3675  0.4065  0.1872
41793SOL    HW129936   5.357   0.934  10.431 -0.9763 -0.1860  2.2803
41793SOL    HW229937   5.492   0.910  10.495  0.5666  0.8992 -0.3984
41794SOL     OW29938   3.067  11.874   8.381 -0.0612  0.9420 -0.3876
41794SOL    HW129939   3.069  11.789   8.337  0.1005  0.0115  1.3486
41794SOL    HW229940   2.976  11.887   8.404 -0.1115  1.3328 -0.7919
41795SOL     OW29941   6.322   7.627  11.590  0.2275 -0.0845  0.0549
41795SOL    HW129942   6.403   7.668  11.618 -0.4030  0.2413  1.4964
41795SOL    HW229943   6.321   7.542  11.634 -1.3578  0.9374  2.1631
41796SOL     OW29944   3.586   2.264   4.194  0.7065 -0.0044  0.0996
41796SOL    HW129945   3.563   2.176   4.226  0.6095 -0.7683 -1.8995
41796SOL    HW229946   3.562   2.323   4.265  0.7086 -1.5978  1.4671
41797SOL     OW29947   1.594   6.676   5.007  0.3829  0.3084  0.0019
41797SOL    HW129948   1.625   6.621   4.936 -0.3487  0.6160 -0.5706
41797SOL    HW229949   1.656   6.662   5.078  0.5159 -0.8244 -0.3308
41798SOL     OW29950   0.321   0.498   5.221  0.0662 -0.0718  0.0240
41798SOL    HW129951   0.251   0.434   5.207 -1.1789  0.7831  1.8112
41798SOL    HW229952   0.386   0.451   5.274 -0.0053 -0.3473 -0.1293
41799SOL     OW29953  11.447   4.723   5.069 -0.7221 -0.1428 -0.1079
41799SOL    HW129954  11.432   4.816   5.090 -1.3898 -0.0396 -1.0169
41799SOL    HW229955  11.420   4.714   4.978 -1.5802 -1.4408  0.2514
41800SOL     OW29956   2.442   3.788   3.426 -0.2360 -0.2017  0.0502
41800SOL    HW129957   2.382   3.715   3.442 -0.8978  0.0751 -1.0385
41800SOL    HW229958   2.484   3.804   3.510 -1.8814 -0.2320  0.9043
41801SOL     OW29959  10.523   4.589   9.841  0.1304  0.7497  0.6180
41801SOL    HW129960  10.593   4.612   9.780 -0.4196  0.6767 -0.0541
41801SOL    HW229961  10.476   4.671   9.855  0.7501  0.9557  1.6152
41802SOL     OW29962   6.948   8.015   3.686 -0.2949 -0.7780  0.2506
41802SOL    HW129963   6.981   8.017   3.775  1.1527  1.8060 -0.2478
41802SOL    HW229964   6.999   8.081   3.640 -2.1569 -0.8355 -2.0966
41803SOL     OW29965   9.915   3.960   7.607 -0.0940  0.7896 -0.3100
41803SOL    HW129966   9.872   4.022   7.666  2.2386  2.8744 -0.6630
41803SOL    HW229967   9.926   4.008   7.525  1.1011 -0.3601 -0.8614
41804SOL     OW29968  10.274   8.092   0.780 -0.0621 -0.0361 -0.1623
41804SOL    HW129969  10.312   8.016   0.824  0.8429 -0.1175 -1.0321
41804SOL    HW229970  10.309   8.087   0.691 -1.3195  0.4769 -0.7031
41805SOL     OW29971   0.614   3.235  10.897  1.0495 -0.1746 -0.2359
41805SOL    HW129972   0.622   3.291  10.975  4.7101 -0.9800  0.1453
41805SOL    HW229973   0.670   3.277  10.832  1.7372 -1.9483 -0.8426
41806SOL     OW29974  11.041   5.027   4.943 -0.0684 -0.3831 -0.8454
41806SOL    HW129975  11.019   5.022   4.850 -0.2229 -2.4686 -0.7325
41806SOL    HW229976  11.054   5.121   4.959 -0.6354  0.0828 -2.8138
41807SOL     OW29977   6.955   3.133   4.334 -0.0328 -0.1338 -0.2068
41807SOL    HW129978   7.041   3.105   4.304  0.1627 -0.3834  0.5860
41807SOL    HW229979   6.970   3.169   4.421 -0.5787  0.7248 -0.4474
41808SOL     OW29980   6.598  10.547   8.838 -0.5749  0.2876  0.5019
41808SOL    HW129981   6.513  10.561   8.796 -0.7559  0.0461  0.7782
41808SOL    HW229982   6.576  10.512   8.924 -0.2041  0.6569  0.7508
41809SOL     OW29983   9.983   9.016  11.032 -0.3002 -0.0068 -0.1294
41809SOL    HW129984   9.926   8.939  11.033  2.5757 -2.3467  1.5344
41809SOL    HW229985   9.944   9.074  10.967 -2.6821 -2.8333 -1.4535
41810SOL     OW29986  11.674   7.298  11.853  0.3446  0.0230  0.4996
41810SOL    HW129987  11.620   7.248  11.914  2.2523 -1.4362  1.1069
41810SOL    HW229988  11.683   7.384  11.894 -3.3951  1.2408 -0.7980
41811SOL     OW29989   1.230  10.486   4.235  0.0362  0.3162  0.5058
41811SOL    HW129990   1.267  10.471   4.149 -1.6111 -0.7302 -0.0774
41811SOL    HW229991   1.300  10.464   4.296  0.7242 -0.5026 -0.5487
41812SOL     OW29992   7.304  11.887   8.009 -0.2052  0.0859 -0.1401
41812SOL    HW129993   7.284  11.836   7.930  0.5148 -0.0906 -0.2186
41812SOL    HW229994   7.331  11.821   8.073  1.3221  0.3784 -0.4232
41813SOL     OW29995   9.410   4.287  10.537 -0.3917 -0.4526 -0.7644
41813SOL    HW129996   9.484   4.244  10.494  0.4559 -0.5520  0.7438
41813SOL    HW229997   9.367   4.217  10.587 -1.8119 -0.4971 -1.9473
41814SOL     OW29998   7.936   3.073   2.900  0.1108  0.1353 -0.0344
41814SOL    HW129999   7.944   3.056   2.806  1.5418  3.4874 -0.6484
41814SOL    HW230000   8.026   3.086   2.930 -0.3736 -0.3236  1.7085
41815SOL     OW30001  10.815   0.648   0.415 -0.2806  0.7672 -0.4481
41815SOL    HW130002  10.801   0.592   0.339 -0.0545  0.4743 -0.2754
41815SOL    HW230003  10.910   0.658   0.421 -0.2035 -0.3482  0.6013
41816SOL     OW30004   7.034   4.299   6.180  0.2759 -0.5196  0.0104
41816SOL    HW130005   6.969   4.300   6.250 -0.2377 -1.7834 -0.4062
41816SOL    HW230006   7.032   4.209   6.147  1.2899 -0.2359 -0.8996
41817SOL     OW30007   8.307   0.874   5.382  0.2858 -0.2688  0.1731
41817SOL    HW130008   8.370   0.930   5.425 -0.6338 -0.3381  1.6839
41817SOL    HW230009   8.360   0.814   5.329  1.4859 -0.3351  1.4011
41818SOL     OW30010   1.554  11.474   4.805 -0.2000 -0.4949 -0.0646
41818SOL    HW130011   1.639  11.515   4.817 -1.5887  2.8309 -0.4331
41818SOL    HW230012   1.521  11.460   4.894 -0.9091  2.2541  0.2166
41819SOL     OW30013   6.511   7.905  10.775  0.4376 -0.7160 -0.2902
41819SOL    HW130014   6.420   7.880  10.787  0.6063 -0.8295  0.8160
41819SOL    HW230015   6.559   7.822  10.771  0.7249 -0.6514  1.1709
41820SOL     OW30016   4.479   3.326   5.162  0.1548  0.6015  0.0611
41820SOL    HW130017   4.522   3.248   5.126 -1.4256 -0.6939  0.8473
41820SOL    HW230018   4.459   3.302   5.253 -1.9484  1.2368 -0.1928
41821SOL     OW30019   1.108  10.519  11.902 -0.0919  0.3421 -0.1081
41821SOL    HW130020   1.068  10.532  11.987  0.0463  2.6649 -0.3392
41821SOL    HW230021   1.132  10.426  11.900 -1.1040 -0.0006  1.9047
41822SOL     OW30022  10.216   6.556   2.553 -0.5150 -0.4778 -0.0946
41822SOL    HW130023  10.148   6.490   2.569  0.0191 -0.6892  1.4740
41822SOL    HW230024  10.286   6.533   2.614 -0.0157  1.1143 -0.0333
41823SOL     OW30025   8.600  12.058   3.414  0.0430 -0.1907  0.0285
41823SOL    HW130026   8.615  11.967   3.388 -1.9100 -0.6208  0.2972
41823SOL    HW230027   8.688  12.093   3.430  0.9112 -1.6524 -1.2640
41824SOL     OW30028   2.868  11.927   2.690 -0.0991  0.2347 -0.1116
41824SOL    HW130029   2.891  12.020   2.682  0.8389  0.1325  1.1225
41824SOL    HW230030   2.772  11.927   2.693 -0.1106  1.1627 -0.1419
41825SOL     OW30031   5.826   8.836   6.509 -0.0053  0.1976 -0.0534
41825SOL    HW130032   5.881   8.877   6.442  0.9068 -0.9578 -0.0496
41825SOL    HW230033   5.858   8.872   6.592 -0.4930  0.9075 -0.1680
41826SOL     OW30034   6.961   9.922   8.157  0.2475 -0.9750  0.4976
41826SOL    HW130035   7.056   9.929   8.157  0.2870 -1.4842  0.1676
41826SOL    HW230036   6.943   9.828   8.154 -0.2399 -0.8779 -2.1291
41827SOL     OW30037  10.337   9.068   6.258  0.0616  0.2991  0.0837
41827SOL    HW130038  10.363   9.134   6.323  1.0181 -0.3348  0.3551
41827SOL    HW230039  10.266   9.110   6.210 -1.7059  0.2747  2.4790
41828SOL     OW30040   3.997   1.688   6.082  0.4691  0.2858  0.0452
41828SOL    HW130041   4.003   1.767   6.029  0.5631  0.3264  0.1134
41828SOL    HW230042   4.010   1.616   6.021 -0.5538  0.2776 -0.1703
41829SOL     OW30043  10.599   6.950   3.571  0.2471 -0.1019 -0.0689
41829SOL    HW130044  10.645   6.934   3.653  0.2307  0.2879  0.0198
41829SOL    HW230045  10.635   6.885   3.510 -0.8706 -1.4502  0.6613
41830SOL     OW30046   9.193   5.994   8.652  0.1347 -0.3965 -0.2651
41830SOL    HW130047   9.262   5.932   8.629  0.5153 -0.5220  1.1245
41830SOL    HW230048   9.201   6.004   8.747 -0.6401  0.9327 -0.3212
41831SOL     OW30049   5.838   8.886   0.387 -0.1643  0.2365  0.0937
41831SOL    HW130050   5.899   8.959   0.393 -0.4922  0.4572  0.8353
41831SOL    HW230051   5.879   8.816   0.436 -0.1282  0.1140 -0.1100
41832SOL     OW30052   9.846   6.938   0.257  0.0404  0.6781 -0.5273
41832SOL    HW130053   9.784   6.879   0.301  0.7726 -0.5036 -1.0345
41832SOL    HW230054   9.847   6.908   0.166  3.1450 -0.9691 -0.0764
41833SOL     OW30055   3.835  11.345   8.203 -0.0733  0.6547  0.3155
41833SOL    HW130056   3.913  11.396   8.181  0.4182 -0.4458 -0.6060
41833SOL    HW230057   3.763  11.392   8.161 -0.0664  2.1751  1.9191
41834SOL     OW30058   5.067   5.661   6.986 -0.7000 -0.0331  0.2197
41834SOL    HW130059   5.105   5.580   6.954 -0.8768  0.1738 -0.5412
41834SOL    HW230060   5.136   5.726   6.976 -0.6625 -0.0208  0.5356
41835SOL     OW30061   1.245   0.171   2.022 -0.4914  0.2212 -0.1383
41835SOL    HW130062   1.277   0.096   1.972 -0.3456  0.5652 -0.5682
41835SOL    HW230063   1.290   0.246   1.983 -0.5341  0.5176  0.3756
41836SOL     OW30064   4.226   2.208   9.559 -0.2290 -0.0407  0.6835
41836SOL    HW130065   4.199   2.157   9.636  0.4120  0.3965  1.2135
41836SOL    HW230066   4.304   2.256   9.588  0.9307 -1.0093 -0.7122
41837SOL     OW30067   9.040   7.949   6.048 -0.7853  0.0644  0.4707
41837SOL    HW130068   9.032   7.857   6.023  0.0136  0.3318 -0.8628
41837SOL    HW230069   8.968   7.992   6.003  1.0932  0.6688 -2.2026
41838SOL     OW30070   2.683   2.483   0.163 -0.3335  0.0887  0.1577
41838SOL    HW130071   2.617   2.467   0.229 -0.1431  2.0825  0.9109
41838SOL    HW230072   2.653   2.563   0.119  0.2401 -0.4480 -1.2618
41839SOL     OW30073  10.447   3.619   6.032 -0.2871 -0.5595 -0.0529
41839SOL    HW130074  10.379   3.576   6.084 -0.3426  0.6079  0.8824
41839SOL    HW230075  10.529   3.592   6.073 -0.1642 -1.7654 -1.0268
41840SOL     OW30076   7.573   2.239   2.815  0.4857 -0.0157 -0.0834
41840SOL    HW130077   7.561   2.328   2.780  0.5509 -0.4513 -1.2581
41840SOL    HW230078   7.667   2.227   2.818  0.4745 -0.5358 -1.2671
41841SOL     OW30079   3.710   0.466   3.890  0.0583 -0.3174  0.0057
41841SOL    HW130080   3.769   0.493   3.960  0.0948 -0.4002  0.0068
41841SOL    HW230081   3.671   0.548   3.859  0.6168 -0.1908 -0.3919
41842SOL     OW30082   7.288  11.527   3.602  0.0198  0.1093  0.1127
41842SOL    HW130083   7.376  11.500   3.576  0.0344  0.0173  0.2537
41842SOL    HW230084   7.232  11.455   3.573  0.0354  0.0083  0.3283
41843SOL     OW30085   1.703   1.545   3.136 -0.2509  0.2562 -0.2146
41843SOL    HW130086   1.636   1.594   3.089 -0.3970  0.2180 -0.0462
41843SOL    HW230087   1.769   1.525   3.069  1.7291  3.9050  0.3789
41844SOL     OW30088   4.864   0.134  10.406  0.0493  0.1000  0.1360
41844SOL    HW130089   4.837   0.042  10.398  0.2029  0.0102  0.6240
41844SOL    HW230090   4.783   0.181  10.422  0.2321 -0.2761  2.4750
41845SOL     OW30091   8.344   1.813   8.540  0.1320 -0.1818 -0.0842
41845SOL    HW130092   8.285   1.792   8.613  1.4047 -1.1838  0.6937
41845SOL    HW230093   8.351   1.909   8.543 -0.4850 -0.1448  0.5928
41846SOL     OW30094   7.645   7.174   0.102 -0.0641 -0.5441 -0.4847
41846SOL    HW130095   7.581   7.244   0.115 -1.0648 -1.2037 -1.5496
41846SOL    HW230096   7.674   7.150   0.190 -0.7033  0.3010 -0.0294
41847SOL     OW30097   9.030   2.972  11.822 -0.1193  0.0292 -0.1567
41847SOL    HW130098   8.973   2.917  11.876  1.0400 -0.4556  0.6174
41847SOL    HW230099   9.004   2.952  11.732 -0.1324 -1.3777  0.1313
41848SOL     OW30100  10.961   8.831   7.717 -0.1407  0.6407 -0.5725
41848SOL    HW130101  10.897   8.771   7.677 -0.1462  1.0538 -1.1825
41848SOL    HW230102  10.975   8.899   7.652  0.1502  1.1129 -0.0273
41849SOL     OW30103  12.084  11.693  10.759  0.0840  0.2607 -0.2752
41849SOL    HW130104  12.099  11.769  10.815 -0.6218 -0.4549  0.9609
41849SOL    HW230105  12.153  11.631  10.783 -0.0305  0.0699 -0.4256
41850SOL     OW30106   3.938   2.774   7.510  0.4055 -0.0648 -0.4367
41850SOL    HW130107   3.947   2.777   7.605  0.2108 -1.6505 -0.3324
41850SOL    HW230108   4.027   2.788   7.477  0.1370  2.8886 -0.1662
41851SOL     OW30109   2.128   2.687   2.680 -0.1270  0.1930  0.4622
41851SOL    HW130110   2.072   2.740   2.736  1.2200  0.1569  1.9242
41851SOL    HW230111   2.215   2.724   2.692  0.6877 -1.6709  0.7205
41852SOL     OW30112  11.768  10.040   1.568  0.4813 -0.2000  0.5705
41852SOL    HW130113  11.808   9.997   1.492  1.7147 -0.2187  1.2114
41852SOL    HW230114  11.686  10.077   1.534  0.2642 -1.5026 -0.4098
41853SOL     OW30115   6.100   6.704   7.946 -0.5328 -0.0667 -0.1224
41853SOL    HW130116   6.114   6.778   8.006  0.7388  0.5867 -1.1854
41853SOL    HW230117   6.180   6.653   7.953 -0.6069 -0.2856 -0.8612
41854SOL     OW30118   2.797   7.983   1.964  0.4889  0.5621 -0.3862
41854SOL    HW130119   2.793   8.065   1.915 -0.1860  0.6731 -0.1486
41854SOL    HW230120   2.774   8.007   2.054 -1.5596 -0.1630 -0.6653
41855SOL     OW30121   7.112   5.086  10.108  0.0159 -0.2345  0.2739
41855SOL    HW130122   7.071   5.013  10.155  0.5198  0.3324  1.6233
41855SOL    HW230123   7.042   5.121  10.053 -0.4965 -1.1087  0.3413
41856SOL     OW30124  10.382   6.349   8.042  0.2786 -0.0682  0.1768
41856SOL    HW130125  10.422   6.420   8.092 -1.8874  0.5361  1.1838
41856SOL    HW230126  10.296   6.382   8.018  0.2029 -1.4074 -1.6164
41857SOL     OW30127   4.348   5.383   6.673 -0.1107 -0.3586  0.5813
41857SOL    HW130128   4.389   5.348   6.752  1.1045 -0.0594  0.0935
41857SOL    HW230129   4.269   5.427   6.705  1.4726  1.6734  1.9394
41858SOL     OW30130   5.159   8.093   6.624  0.5657 -0.1344  0.0378
41858SOL    HW130131   5.245   8.132   6.609  0.1058  0.9841  0.2148
41858SOL    HW230132   5.113   8.103   6.541  0.3706 -0.1048  0.1487
41859SOL     OW30133   1.879   1.570   4.902 -1.0020  0.4195  0.4690
41859SOL    HW130134   1.806   1.518   4.936 -3.4690  2.0222 -2.0344
41859SOL    HW230135   1.899   1.530   4.818 -0.1318  1.0833  0.3506
41860SOL     OW30136   1.198  11.796   2.294 -0.1143  0.4008  0.1744
41860SOL    HW130137   1.153  11.866   2.247  1.0137  0.1077 -1.4240
41860SOL    HW230138   1.279  11.837   2.326  0.3351 -0.0259 -0.3841
41861SOL     OW30139   1.205   1.354  11.770  0.1030  0.2814 -0.6202
41861SOL    HW130140   1.208   1.359  11.674  2.0193 -1.0624 -0.6676
41861SOL    HW230141   1.178   1.442  11.797  0.6716  1.0342 -2.3521
41862SOL     OW30142  12.104   8.145  10.394 -0.1832  0.2802  0.1735
41862SOL    HW130143  12.073   8.181  10.477 -0.6777 -0.6831  0.4247
41862SOL    HW230144  12.040   8.174  10.330  0.4502  1.4214  0.0204
41863SOL     OW30145   3.442   9.131  10.849  0.1691  0.2018  0.0080
41863SOL    HW130146   3.362   9.115  10.800  0.6902 -0.7742 -0.5488
41863SOL    HW230147   3.488   9.198  10.799 -0.0816  0.4379  0.0890
41864SOL     OW30148   9.443   3.494   5.071  0.1188 -0.0466 -0.0093
41864SOL    HW130149   9.503   3.466   5.139 -0.7159 -3.2613 -0.4256
41864SOL    HW230150   9.499   3.513   4.996  0.9218  2.0927  1.0523
41865SOL     OW30151   2.709   3.035   1.351 -0.1322 -0.1135 -0.1608
41865SOL    HW130152   2.655   2.961   1.379  0.6136 -0.8662 -0.6598
41865SOL    HW230153   2.790   3.025   1.402  1.3478 -1.6359 -2.5953
41866SOL     OW30154   7.064   4.729   5.258 -0.0421  0.1182 -0.3024
41866SOL    HW130155   7.025   4.684   5.333 -2.3853 -1.5661 -2.3492
41866SOL    HW230156   7.027   4.817   5.261  1.3491  0.6987  1.4644
41867SOL     OW30157   9.672   0.265   4.842  0.2232 -0.5955  0.0839
41867SOL    HW130158   9.670   0.321   4.920  2.1626  0.7354 -0.7536
41867SOL    HW230159   9.757   0.221   4.846  0.8668  0.3689 -1.8084
41868SOL     OW30160   8.696   5.358  11.308 -0.9718  0.0103  0.9928
41868SOL    HW130161   8.671   5.449  11.321 -0.4183  0.3297 -0.0434
41868SOL    HW230162   8.779   5.362  11.259 -2.5675 -0.9966 -2.0703
41869SOL     OW30163   7.159   8.266   4.167 -0.8402  0.4690 -0.3820
41869SOL    HW130164   7.119   8.352   4.181 -1.5344  0.0405  0.3855
41869SOL    HW230165   7.088   8.204   4.187 -0.0988 -0.2920 -0.0717
41870SOL     OW30166   0.611  11.988  10.210  0.0428  0.1544  0.1985
41870SOL    HW130167   0.615  11.894  10.223 -1.4164  0.1510  0.7579
41870SOL    HW230168   0.603  12.024  10.299 -1.3231  0.6681 -0.1092
41871SOL     OW30169   3.305   5.244   7.246 -0.2454 -0.1787 -0.1539
41871SOL    HW130170   3.263   5.282   7.323  0.4710  0.5544 -0.1035
41871SOL    HW230171   3.241   5.257   7.176 -0.9704 -1.0020  0.3371
41872SOL     OW30172  10.481   3.332   3.401 -0.0754  0.0754 -0.1558
41872SOL    HW130173  10.387   3.317   3.416  0.2357 -1.4527  0.5601
41872SOL    HW230174  10.512   3.371   3.483  0.2541 -1.3294  0.4279
41873SOL     OW30175  10.793  10.057   0.925  0.3689  0.5353 -0.0107
41873SOL    HW130176  10.711  10.050   0.875 -0.0521  2.3142  0.3361
41873SOL    HW230177  10.848  10.114   0.871  0.3117  1.5951  1.0001
41874SOL     OW30178   8.157   5.484  11.875  0.0843  0.6651  0.3984
41874SOL    HW130179   8.202   5.426  11.814 -2.3561 -0.7211 -0.2282
41874SOL    HW230180   8.112   5.548  11.819 -0.9263  0.3240  0.7938
41875SOL     OW30181   0.748  11.061   7.103  0.2023 -0.0822  0.1398
41875SOL    HW130182   0.824  11.014   7.070 -0.3301 -0.9027  0.0729
41875SOL    HW230183   0.775  11.153   7.102  0.9121 -0.2866 -0.6210
41876SOL     OW30184   6.806   0.320   7.363  0.4359  0.0024 -0.2103
41876SOL    HW130185   6.768   0.262   7.297 -1.6077  0.3342  0.5922
41876SOL    HW230186   6.893   0.341   7.330  0.2306 -1.4519 -1.7796
41877SOL     OW30187  10.507   8.771   7.885  0.1360  0.3060  0.8340
41877SOL    HW130188  10.437   8.822   7.926 -0.2665  0.8034 -0.4179
41877SOL    HW230189  10.483   8.680   7.901 -0.4093  0.4848  1.0524
41878SOL     OW30190   8.488   7.666   5.857 -0.0679  0.0221  0.2917
41878SOL    HW130191   8.510   7.574   5.864  0.8281  0.0077 -1.8950
41878SOL    HW230192   8.400   7.673   5.893 -0.2532 -1.7252  0.2376
41879SOL     OW30193   1.101   0.860   3.427 -0.2279 -0.0157 -0.0532
41879SOL    HW130194   1.092   0.828   3.517  0.0727 -4.0242 -1.2678
41879SOL    HW230195   1.111   0.955   3.437  0.8162 -0.3524  4.1838
41880SOL     OW30196   8.080   6.370   6.857 -0.3766  0.2970 -0.3331
41880SOL    HW130197   8.169   6.403   6.841  0.0346 -1.3787 -1.9788
41880SOL    HW230198   8.023   6.444   6.835  0.5867  1.5879  1.3105
41881SOL     OW30199  11.356  11.868  11.381  0.2887  0.0833 -0.2580
41881SOL    HW130200  11.450  11.884  11.385  0.0150  1.8243  0.1650
41881SOL    HW230201  11.321  11.910  11.461 -0.9128  0.1147 -0.7729
41882SOL     OW30202   0.431   8.906  11.281 -0.1315  0.2770 -0.3109
41882SOL    HW130203   0.450   8.818  11.248  1.9742 -0.3460  2.2814
41882SOL    HW230204   0.482   8.964  11.224  1.2585 -0.5170  0.0829
41883SOL     OW30205   4.382   2.594   6.633 -0.3857 -0.0647  0.0507
41883SOL    HW130206   4.434   2.550   6.565 -1.0544 -0.0806 -0.4609
41883SOL    HW230207   4.438   2.666   6.662  0.4588 -0.8574  0.4458
41884SOL     OW30208   4.038   0.936   3.955 -0.0185 -0.6365 -0.3111
41884SOL    HW130209   4.109   0.944   3.892  0.2159  0.8766  0.1058
41884SOL    HW230210   3.959   0.931   3.901  0.1297  1.1768 -0.7673
41885SOL     OW30211  11.066  10.622   7.167  0.2760  0.2997 -0.2194
41885SOL    HW130212  11.070  10.611   7.262 -0.0166  0.4899 -0.1823
41885SOL    HW230213  11.020  10.543   7.136  0.4838  0.1764 -0.2162
41886SOL     OW30214   1.165  11.153   0.299 -0.2154  0.5924  0.0326
41886SOL    HW130215   1.258  11.135   0.311 -0.4195 -1.2882 -0.8020
41886SOL    HW230216   1.121  11.076   0.337 -1.4815  1.7928  1.1083
41887SOL     OW30217   2.076   8.141   1.370 -0.3594  0.3452 -0.3690
41887SOL    HW130218   2.129   8.085   1.428  1.8872  1.2843 -1.3735
41887SOL    HW230219   2.017   8.081   1.326 -0.0424 -0.8073  0.7031
41888SOL     OW30220  11.124  11.760   5.485 -0.4441  0.2720  0.0613
41888SOL    HW130221  11.117  11.832   5.547 -0.0143  0.8932 -0.6035
41888SOL    HW230222  11.051  11.773   5.424 -1.3880 -0.8208  0.9101
41889SOL     OW30223   4.339   1.303   1.078  0.2337  0.3312  0.1659
41889SOL    HW130224   4.327   1.215   1.044 -0.3702 -0.2492  1.8060
41889SOL    HW230225   4.255   1.346   1.064  0.4659  0.5996 -0.4506
41890SOL     OW30226   0.711   7.461   0.886 -0.2916  0.0862  0.3777
41890SOL    HW130227   0.789   7.470   0.832 -1.3347  0.1246 -1.1741
41890SOL    HW230228   0.641   7.442   0.825 -2.1112  3.0760  1.3079
41891SOL     OW30229   2.745   1.399   3.928 -0.2471  0.2378  0.0489
41891SOL    HW130230   2.729   1.406   4.022 -2.3181 -0.1983 -0.2105
41891SOL    HW230231   2.778   1.485   3.903 -1.9102  1.1555  0.8365
41892SOL     OW30232   0.969  11.718  10.679  0.2689  0.0870 -0.7053
41892SOL    HW130233   0.949  11.810  10.697  4.0444  1.2300 -1.6444
41892SOL    HW230234   0.920  11.670  10.746 -1.2963  2.7672  0.2279
41893SOL     OW30235   2.636   6.994   2.675  0.8382  0.0220 -0.2208
41893SOL    HW130236   2.682   7.007   2.757 -1.6767  0.2167  1.2581
41893SOL    HW230237   2.603   7.080   2.652 -0.3905 -0.4271 -0.2025
41894SOL     OW30238   7.372   1.251  12.030  0.4929 -0.1503  0.2652
41894SOL    HW130239   7.322   1.330  12.051  0.6431 -0.0075  0.0841
41894SOL    HW230240   7.400   1.263  11.939  1.7471  0.2509  0.6887
41895SOL     OW30241   0.125   5.062   9.738  0.1082  0.3834  0.1689
41895SOL    HW130242   0.114   5.025   9.826  1.6256  1.1152  0.6967
41895SOL    HW230243   0.186   5.003   9.694 -2.6713 -1.5552 -1.4365
41896SOL     OW30244   7.968   0.233  10.278 -0.3149  0.5669  0.2334
41896SOL    HW130245   7.999   0.192  10.197 -1.5776 -1.0753  0.5256
41896SOL    HW230246   8.042   0.227  10.338 -0.0432 -0.1568 -0.1537
41897SOL     OW30247  11.449   2.713   1.187  0.2020 -0.6706 -0.7616
41897SOL    HW130248  11.481   2.624   1.173  1.0790 -0.5619  0.4274
41897SOL    HW230249  11.362   2.713   1.148  0.7378 -1.6347 -2.0574
41898SOL     OW30250   2.333  11.290  11.861  0.2502  0.0346 -0.4291
41898SOL    HW130251   2.347  11.384  11.850 -0.3419  0.2517  0.4865
41898SOL    HW230252   2.364  11.272  11.950 -2.4179 -0.0045  0.6008
41899SOL     OW30253   9.477  11.441   7.569 -0.0033 -0.2279 -0.0170
41899SOL    HW130254   9.500  11.410   7.482 -0.2623  0.8197 -0.4794
41899SOL    HW230255   9.550  11.414   7.625 -0.6420 -2.4420 -0.1768
41900SOL     OW30256   0.709   3.108   7.406 -0.4554  0.5829  0.2402
41900SOL    HW130257   0.634   3.135   7.458 -0.6163 -1.4522  1.1560
41900SOL    HW230258   0.780   3.098   7.469 -0.7958 -2.4737  0.2798
41901SOL     OW30259  11.604   9.748   7.801  0.2768  0.6708 -0.3682
41901SOL    HW130260  11.574   9.672   7.752 -0.0956  0.5426  0.0559
41901SOL    HW230261  11.524   9.795   7.824  0.4187  0.5845  0.3449
41902SOL     OW30262   5.241  10.159   3.956 -0.6804 -0.0447  0.1632
41902SOL    HW130263   5.232  10.144   4.050  2.0465 -1.6354  0.2579
41902SOL    HW230264   5.210  10.077   3.916 -0.5435  0.1066 -0.2527
41903SOL     OW30265   3.806   1.659   4.395  0.4081 -0.2623  0.2383
41903SOL    HW130266   3.814   1.594   4.464 -0.1381 -0.3576  0.2177
41903SOL    HW230267   3.736   1.718   4.424  0.4328 -0.0839 -0.0517
41904SOL     OW30268   8.731   2.301   7.842  0.1889 -0.1301  0.5696
41904SOL    HW130269   8.665   2.296   7.911 -0.6700 -0.2163 -0.2552
41904SOL    HW230270   8.780   2.381   7.862 -1.6412  1.1999 -0.1209
41905SOL     OW30271  10.186   4.540   5.600 -0.1240 -0.0937  0.0491
41905SOL    HW130272  10.213   4.621   5.557 -1.4224  0.8391  0.9241
41905SOL    HW230273  10.264   4.510   5.645  0.3430  0.7545 -0.1685
41906SOL     OW30274   8.419   1.380   0.864 -0.6314  0.0596 -0.0132
41906SOL    HW130275   8.443   1.292   0.893  0.2011 -0.5538 -2.3390
41906SOL    HW230276   8.452   1.386   0.774  0.8327  3.3375  0.5802
41907SOL     OW30277   3.354   4.814   9.051 -0.2023  0.8332 -0.0013
41907SOL    HW130278   3.306   4.896   9.046 -0.4370  0.6316 -2.5581
41907SOL    HW230279   3.286   4.746   9.052 -0.0371  0.6299 -0.9370
41908SOL     OW30280   7.667  12.017   2.271 -0.5189 -0.9134  0.2358
41908SOL    HW130281   7.594  12.003   2.211 -0.4169 -3.2170  0.5833
41908SOL    HW230282   7.638  11.978   2.354  0.7163 -0.9977  0.6556
41909SOL     OW30283   4.729   6.346   7.104  0.5513 -0.0496  0.4295
41909SOL    HW130284   4.695   6.407   7.039  0.4532 -1.1598 -0.5942
41909SOL    HW230285   4.650   6.308   7.144  0.6014  1.0903  1.6893
41910SOL     OW30286  10.302   0.575   0.561 -0.3054  0.2945  0.0080
41910SOL    HW130287  10.235   0.594   0.495 -0.0415  1.4660  0.0549
41910SOL    HW230288  10.290   0.644   0.627 -0.9872 -1.2199  1.5328
41911SOL     OW30289   4.862  10.134   0.818  0.1896 -0.6511  0.5065
41911SOL    HW130290   4.956  10.151   0.815  0.0064  0.3617 -0.4241
41911SOL    HW230291   4.844  10.086   0.737 -0.4688  1.4905 -0.6882
41912SOL     OW30292   2.536   9.954  11.185 -0.3641  0.5054 -0.1035
41912SOL    HW130293   2.549   9.865  11.150 -1.8404  0.3832 -0.3884
41912SOL    HW230294   2.442   9.961  11.197 -0.2606  2.0504 -0.0870
41913SOL     OW30295   1.188   6.120   1.088 -0.0230  0.0566 -0.5738
41913SOL    HW130296   1.101   6.120   1.128 -0.7912 -1.8268 -2.0988
41913SOL    HW230297   1.248   6.126   1.163 -1.4224 -1.4420  0.7492
41914SOL     OW30298   0.808   3.473  10.872  0.2194 -0.0009  0.0802
41914SOL    HW130299   0.751   3.543  10.841  0.9249  0.9385  0.8557
41914SOL    HW230300   0.886   3.479  10.817  0.8050  0.6500  0.9566
41915SOL     OW30301   3.040   0.543  11.727  0.1549 -0.2797 -0.6411
41915SOL    HW130302   3.025   0.582  11.641  0.9932 -1.7922 -1.5032
41915SOL    HW230303   3.025   0.450  11.715 -1.6167 -0.3409  1.3312
41916SOL     OW30304  11.301   2.350   5.834 -0.3007  0.6750  0.1287
41916SOL    HW130305  11.216   2.322   5.802 -2.0407  2.1632  3.0356
41916SOL    HW230306  11.313   2.304   5.917  0.4817  2.3689  1.0341
41917SOL     OW30307   0.668   9.445   4.095 -0.4351 -0.3850 -0.0668
41917SOL    HW130308   0.585   9.482   4.066  0.0296 -0.6152 -1.7587
41917SOL    HW230309   0.647   9.356   4.123 -1.0213  0.1043  1.1641
41918SOL     OW30310   9.104   7.595  11.698 -0.0064  0.5483 -0.0124
41918SOL    HW130311   9.111   7.680  11.655 -1.0087  0.2404 -0.8438
41918SOL    HW230312   9.017   7.595  11.737  0.3620  0.2705  0.8184
41919SOL     OW30313   1.975   8.353   0.580 -0.4005  0.3632 -0.0175
41919SOL    HW130314   2.039   8.384   0.516  0.2528  1.7532  1.2364
41919SOL    HW230315   2.026   8.304   0.643 -0.6723  0.8370  0.5813
41920SOL     OW30316   5.100   3.126   2.701 -0.7458  0.0619  0.5547
41920SOL    HW130317   5.070   3.161   2.785 -0.1500  1.6856  0.1306
41920SOL    HW230318   5.062   3.038   2.696 -1.2282  0.1445  2.2724
41921SOL     OW30319   6.685   8.172   6.483 -0.8461 -0.4510  0.3884
41921SOL    HW130320   6.779   8.165   6.464 -0.3891  0.8327  1.8853
41921SOL    HW230321   6.660   8.258   6.451 -1.4444 -0.6593  0.2839
41922SOL     OW30322   9.711   7.961   2.696 -0.2627  0.2223  0.2700
41922SOL    HW130323   9.713   7.956   2.600 -0.3021  1.5940  0.1748
41922SOL    HW230324   9.768   8.035   2.717  1.1282 -1.1168  1.4231
41923SOL     OW30325  11.551   8.075   9.001 -0.3308  0.1285  0.0409
41923SOL    HW130326  11.455   8.073   9.000 -0.3889  1.4076  0.8783
41923SOL    HW230327  11.576   8.054   8.911 -1.3659 -0.7846 -0.0681
41924SOL     OW30328   0.601  11.087   5.366 -0.2185  0.1215 -0.1341
41924SOL    HW130329   0.525  11.123   5.320  0.3168 -0.1885 -1.2932
41924SOL    HW230330   0.598  11.128   5.452 -0.7592  1.3894 -0.7267
41925SOL     OW30331   8.684   2.709   4.416 -0.7221 -0.4847 -0.2306
41925SOL    HW130332   8.677   2.677   4.506 -2.9310 -0.5325 -0.3455
41925SOL    HW230333   8.595   2.738   4.395  0.0839  0.9450 -1.8903
41926SOL     OW30334  10.971   0.927   5.457  0.1017 -0.5043  0.3435
41926SOL    HW130335  10.953   0.936   5.550 -1.7868  0.1085 -0.0487
41926SOL    HW230336  10.887   0.904   5.418  0.9817 -1.3616 -1.1529
41927SOL     OW30337   1.806   0.758   6.226  0.8541  0.6573  0.3893
41927SOL    HW130338   1.787   0.842   6.267  0.3743  0.3780  0.7496
41927SOL    HW230339   1.831   0.701   6.298  0.6120  0.3340  0.2205
41928SOL     OW30340  11.413   0.775   0.216  0.1786 -0.2358  0.9979
41928SOL    HW130341  11.501   0.787   0.181 -0.3108 -0.8481 -0.5529
41928SOL    HW230342  11.374   0.863   0.213 -0.1293 -0.3932 -0.9014
41929SOL     OW30343   5.045   7.551   4.760 -0.5288  0.2072 -0.2600
41929SOL    HW130344   4.995   7.626   4.728 -1.1121 -0.1852 -0.2939
41929SOL    HW230345   4.985   7.477   4.751 -0.1502 -0.1741  0.2624
41930SOL     OW30346   4.896   4.220   3.818 -0.6364 -0.2261 -0.3840
41930SOL    HW130347   4.863   4.200   3.730  0.6697  0.6070 -1.0960
41930SOL    HW230348   4.969   4.280   3.803 -2.4591  2.6969  1.4216
41931SOL     OW30349   1.542   4.848   2.959 -0.0655  0.2217 -0.1653
41931SOL    HW130350   1.499   4.899   2.890 -0.6205 -0.8132 -0.6022
41931SOL    HW230351   1.473   4.791   2.993  0.7664 -0.9069 -0.3428
41932SOL     OW30352   6.978  11.393   1.128 -0.1971 -0.5017 -0.2006
41932SOL    HW130353   6.937  11.389   1.214  0.2451 -0.2054  0.0332
41932SOL    HW230354   7.057  11.340   1.136 -0.4771 -0.9836 -0.6131
41933SOL     OW30355  10.604   3.219   4.879  0.2783  0.6055 -0.8054
41933SOL    HW130356  10.573   3.303   4.913 -0.8455 -0.3015  0.5728
41933SOL    HW230357  10.621   3.166   4.958 -2.1046 -1.5004 -1.5568
41934SOL     OW30358   0.977   7.997   6.233  0.1123 -0.3408 -0.0126
41934SOL    HW130359   1.051   7.946   6.266  0.3362 -0.3999 -0.5915
41934SOL    HW230360   1.012   8.042   6.156 -0.5195 -0.5594 -0.4354
41935SOL     OW30361  11.740   5.535  10.147 -0.0536  0.4835 -0.8323
41935SOL    HW130362  11.812   5.526  10.210  0.5340  1.4058 -1.3479
41935SOL    HW230363  11.695   5.615  10.173 -0.9737 -0.1489 -0.4471
41936SOL     OW30364   5.595   0.520   3.414  0.3570  0.4408 -0.0278
41936SOL    HW130365   5.500   0.506   3.415  0.5400 -0.8892  0.3926
41936SOL    HW230366   5.607   0.598   3.359 -0.7284 -1.3232 -2.9790
41937SOL     OW30367   5.116   7.843   3.800 -0.0339 -0.0662  0.1818
41937SOL    HW130368   5.157   7.830   3.885 -0.5531  0.3638  0.5067
41937SOL    HW230369   5.023   7.823   3.815  0.0406 -0.9835 -0.5269
41938SOL     OW30370   9.924   6.879   0.972 -0.0051  0.2414 -0.1953
41938SOL    HW130371   9.944   6.967   1.004  0.9059  0.2572 -0.7907
41938SOL    HW230372  10.004   6.850   0.927 -0.2571 -0.9196  0.0574
41939SOL     OW30373   0.302   2.041   5.114 -0.3140  0.4914 -0.5048
41939SOL    HW130374   0.324   1.962   5.162 -0.2632 -0.4009 -1.9337
41939SOL    HW230375   0.208   2.053   5.127 -0.4547 -0.2123 -0.8625
41940SOL     OW30376   5.149   4.010   2.816  0.0315  0.3788 -0.3245
41940SOL    HW130377   5.080   4.072   2.796  0.3269  1.2287  1.1256
41940SOL    HW230378   5.119   3.927   2.779 -0.4189  1.3215 -2.2064
41941SOL     OW30379  10.066   4.496   8.195 -0.1417  0.4451 -0.4135
41941SOL    HW130380  10.143   4.554   8.195 -0.3142  0.6822  0.0620
41941SOL    HW230381  10.103   4.409   8.214 -0.0948  0.7275  0.8712
41942SOL     OW30382   6.499  10.295   4.403  0.3946  0.2142 -0.5321
41942SOL    HW130383   6.466  10.377   4.367  0.5396  0.6327  0.2622
41942SOL    HW230384   6.545  10.254   4.331  1.2670  1.3483 -0.6438
41943SOL     OW30385  10.754   3.107   3.919 -1.0183 -0.4577  0.5110
41943SOL    HW130386  10.756   3.141   3.830 -2.0962 -0.1039  0.6023
41943SOL    HW230387  10.812   3.031   3.918  0.5608  0.6898  0.0169
41944SOL     OW30388   4.959   0.058   2.804 -0.1063  0.5345  0.0540
41944SOL    HW130389   4.910   0.117   2.861  1.1722  0.2114  1.5707
41944SOL    HW230390   5.007   0.001   2.865 -0.1744 -1.1113 -1.3543
41945SOL     OW30391   6.031   5.466   8.453  0.8133  0.1889  0.1624
41945SOL    HW130392   6.003   5.534   8.514  1.4045  0.4303  0.1678
41945SOL    HW230393   6.119   5.491   8.426  1.2823 -0.8783  0.6232
41946SOL     OW30394   1.908  10.791   8.356  0.3873  0.1219  0.6438
41946SOL    HW130395   1.901  10.881   8.388  0.2388  0.8163 -1.1920
41946SOL    HW230396   1.956  10.799   8.273 -2.6948 -0.9460 -1.4397
41947SOL     OW30397   1.057   3.919   1.104  0.7011 -0.2931  0.0134
41947SOL    HW130398   1.128   3.917   1.040 -0.3250 -1.6185 -1.1456
41947SOL    HW230399   0.988   3.971   1.063  0.7306  0.4682  0.8739
41948SOL     OW30400   7.826  10.113   2.148  0.8315  0.0920  0.4653
41948SOL    HW130401   7.806  10.194   2.101  0.3399  0.7903  1.8313
41948SOL    HW230402   7.881  10.140   2.221  3.3277 -1.2510 -0.7791
41949SOL     OW30403  11.850  11.809   6.529  0.0106  0.1398 -0.1643
41949SOL    HW130404  11.799  11.855   6.595  1.9888  0.6526  1.1184
41949SOL    HW230405  11.839  11.716   6.551  0.8482  0.3144  1.0981
41950SOL     OW30406  11.765   4.848  11.822  0.3245 -0.2325 -0.3122
41950SOL    HW130407  11.690   4.891  11.781  1.0505  1.0063 -0.3970
41950SOL    HW230408  11.741   4.841  11.914 -1.0449 -2.4418 -0.7776
41951SOL     OW30409   0.711   6.343  10.577 -0.5210 -0.4773 -0.0602
41951SOL    HW130410   0.721   6.361  10.483 -1.4668 -1.1518 -0.3147
41951SOL    HW230411   0.768   6.268  10.593  3.5020  2.4781  1.0247
41952SOL     OW30412   8.664   1.911   7.941  0.3298 -0.4435 -0.0656
41952SOL    HW130413   8.681   1.947   8.028 -0.4080  0.2267 -0.1825
41952SOL    HW230414   8.685   1.818   7.949  3.7719  0.2188 -0.1595
41953SOL     OW30415   5.056   2.472  11.864 -0.1389  0.6415  0.3180
41953SOL    HW130416   4.981   2.459  11.923 -0.7014  1.9339 -0.0643
41953SOL    HW230417   5.020   2.454  11.777  0.7179 -1.3764  0.3171
41954SOL     OW30418   7.093   4.599   7.358 -0.0144 -0.0422 -0.0885
41954SOL    HW130419   6.999   4.588   7.375  0.0812  0.2436  0.6463
41954SOL    HW230420   7.119   4.670   7.416  0.7139 -0.2884 -0.1111
41955SOL     OW30421   0.143  11.097  10.035  1.2480 -0.2308 -0.1604
41955SOL    HW130422   0.101  11.177  10.068  1.7318 -0.4685  1.0740
41955SOL    HW230423   0.096  11.078   9.953 -0.0552  0.3324  0.4150
41956SOL     OW30424   6.318   3.038   8.046 -0.0364  0.5142  0.1540
41956SOL    HW130425   6.402   2.999   8.072  0.4312  1.1238 -0.4082
41956SOL    HW230426   6.255   3.000   8.107  0.8356  0.9587  1.3887
41957SOL     OW30427   0.749   7.160  11.030 -0.5178  0.4214 -0.1475
41957SOL    HW130428   0.801   7.083  11.009  0.2218  1.1979 -1.3087
41957SOL    HW230429   0.789   7.196  11.109 -0.2948  0.1115 -0.1194
41958SOL     OW30430   3.445   3.412  10.024  0.1565 -0.4943  0.7573
41958SOL    HW130431   3.380   3.428   9.957  1.0617 -0.4700 -0.1347
41958SOL    HW230432   3.517   3.369   9.979  0.5327 -1.0393  1.8306
41959SOL     OW30433  11.407   7.771  11.796  0.5663  0.0618  0.3501
41959SOL    HW130434  11.401   7.804  11.886 -0.7004 -0.9664  0.6859
41959SOL    HW230435  11.394   7.677  11.804  1.0648 -0.1342 -0.8663
41960SOL     OW30436   0.161   9.848   2.415 -0.0358 -0.3257 -0.2458
41960SOL    HW130437   0.075   9.878   2.384 -0.1903 -1.6427 -1.1531
41960SOL    HW230438   0.223   9.894   2.359 -0.2226 -0.6167 -0.7031
41961SOL     OW30439   0.169   0.891   3.044  0.2120 -0.0753 -0.6099
41961SOL    HW130440   0.124   0.921   3.124  0.2935  1.4614 -1.0945
41961SOL    HW230441   0.259   0.874   3.072 -0.2453 -1.5424  0.0255
41962SOL     OW30442   1.184  10.590   8.015 -0.3796  0.0160 -0.2526
41962SOL    HW130443   1.266  10.569   7.972 -0.0956 -0.6399  0.5858
41962SOL    HW230444   1.204  10.667   8.069 -0.6394  0.6095 -0.9896
41963SOL     OW30445   7.953   2.685   0.827 -0.3142  0.1838 -0.6416
41963SOL    HW130446   7.954   2.597   0.865 -1.8528 -0.1313 -1.2586
41963SOL    HW230447   7.900   2.736   0.887 -1.3292  0.1057 -1.4440
41964SOL     OW30448   2.828   6.608   8.560 -0.0502  0.2750  0.7454
41964SOL    HW130449   2.885   6.540   8.525 -0.8624  0.0904 -0.2496
41964SOL    HW230450   2.772   6.633   8.487 -1.2454  0.4593  1.6831
41965SOL     OW30451   7.967   0.678   8.250  0.2809 -0.0741  0.2534
41965SOL    HW130452   8.000   0.768   8.243  1.1209 -0.4203 -0.3407
41965SOL    HW230453   8.029   0.625   8.200 -1.1239 -0.7628 -0.8685
41966SOL     OW30454  11.481   9.727   9.854  0.1377 -0.1676  0.1485
41966SOL    HW130455  11.425   9.787   9.904  1.2239  0.5523  0.5359
41966SOL    HW230456  11.479   9.645   9.904 -1.2368 -0.4484 -0.3047
41967SOL     OW30457  10.493   7.401   9.586 -0.4806  0.2096 -0.0671
41967SOL    HW130458  10.415   7.402   9.643  0.0731  0.0748  0.7066
41967SOL    HW230459  10.458   7.414   9.498 -1.4215 -0.2332  0.2257
41968SOL     OW30460  10.052   4.176   2.756 -0.5673 -0.0362 -0.0124
41968SOL    HW130461  10.105   4.240   2.708 -1.6971  0.4383 -0.6478
41968SOL    HW230462  10.110   4.099   2.763  0.0792  0.3307 -1.0193
41969SOL     OW30463   9.015   7.212   0.071 -0.1849 -0.1447  0.2540
41969SOL    HW130464   9.083   7.151   0.041  0.2921 -0.0359  1.0853
41969SOL    HW230465   9.057   7.298   0.066  0.2643 -0.2078  2.1270
41970SOL     OW30466   8.230   5.365   2.695 -0.0044 -0.5307 -0.2324
41970SOL    HW130467   8.261   5.397   2.610 -3.9298  0.7375 -1.4102
41970SOL    HW230468   8.235   5.270   2.688 -0.4900 -0.4622 -2.0424
41971SOL     OW30469   1.980   5.510   2.142  0.0851 -0.1210 -0.1623
41971SOL    HW130470   2.032   5.563   2.203  1.1705 -1.8571  0.4815
41971SOL    HW230471   1.929   5.452   2.198 -0.9476  0.0809 -0.8667
41972SOL     OW30472   5.925   2.449   9.283 -0.2911 -0.2155 -0.3274
41972SOL    HW130473   5.966   2.407   9.207  0.7434  0.1348  0.0189
41972SOL    HW230474   5.980   2.525   9.301 -0.2567 -0.5408  1.0507
41973SOL     OW30475   4.306   8.739   9.926  0.5683  0.4567  0.6161
41973SOL    HW130476   4.235   8.696   9.878  0.6247 -1.4044  2.0889
41973SOL    HW230477   4.385   8.691   9.901  0.6958 -0.1030  2.0336
41974SOL     OW30478   1.875   2.893   5.556  0.1063  0.0930 -0.9238
41974SOL    HW130479   1.939   2.823   5.542 -0.4209 -0.4983 -0.4481
41974SOL    HW230480   1.886   2.917   5.648 -0.5446 -0.2077 -0.7648
41975SOL     OW30481   7.418   0.650   9.052 -0.7132  0.4024 -0.5897
41975SOL    HW130482   7.346   0.599   9.013  0.6945 -0.7807 -1.7913
41975SOL    HW230483   7.425   0.727   8.996 -0.3869 -0.0026 -1.1180
41976SOL     OW30484   4.265   6.176   6.322  0.0914 -0.0606 -0.1878
41976SOL    HW130485   4.202   6.111   6.352  0.2271 -0.3590 -0.5496
41976SOL    HW230486   4.325   6.187   6.396  1.6895 -2.3484 -1.0118
41977SOL     OW30487  10.111   1.210   8.470 -0.4491 -0.2955  0.4674
41977SOL    HW130488  10.052   1.234   8.399  0.0113 -0.0431  0.1662
41977SOL    HW230489  10.053   1.191   8.544 -0.9441 -0.8148 -0.0426
41978SOL     OW30490   5.461   8.730   6.707 -0.0033  0.3061 -0.5633
41978SOL    HW130491   5.441   8.725   6.614 -0.2346  1.5034 -0.5877
41978SOL    HW230492   5.384   8.691   6.749 -0.2452  0.4850 -0.8377
41979SOL     OW30493   7.263   4.637   7.625 -0.0852  0.1191 -0.0895
41979SOL    HW130494   7.328   4.707   7.617  0.0310 -0.0398 -0.5844
41979SOL    HW230495   7.275   4.603   7.714 -0.4492  1.0240  0.3158
41980SOL     OW30496   5.786   1.765   1.395  0.4134  0.2951 -0.7139
41980SOL    HW130497   5.876   1.796   1.389  0.3150  0.4425 -1.4935
41980SOL    HW230498   5.761   1.780   1.486  1.1527  0.3106 -0.5116
41981SOL     OW30499   8.482   7.408   5.551  0.3954  0.3126 -0.1713
41981SOL    HW130500   8.403   7.383   5.599 -0.0450  1.2577 -0.3863
41981SOL    HW230501   8.547   7.343   5.577 -0.4617 -0.5134 -0.0339
41982SOL     OW30502   0.055  11.578   6.855  0.5495 -0.3454  0.3648
41982SOL    HW130503   0.126  11.533   6.902  0.1604 -1.2542  0.0911
41982SOL    HW230504   0.011  11.630   6.923  0.6268 -0.8444  0.8016
41983SOL     OW30505   1.096  10.653   2.507  0.6871  0.1327  0.7348
41983SOL    HW130506   1.188  10.653   2.481  0.6242  0.1110  0.5156
41983SOL    HW230507   1.097  10.687   2.597  0.7928  1.1995  0.3436
41984SOL     OW30508   1.629   9.913   1.217  0.2786  0.0110 -0.6635
41984SOL    HW130509   1.583   9.997   1.218 -1.7671 -1.0140  1.6368
41984SOL    HW230510   1.628   9.884   1.308  2.2389 -1.8557 -1.1609
41985SOL     OW30511   1.490   9.985   7.756  0.5908 -0.4280 -0.6949
41985SOL    HW130512   1.569   9.932   7.763  0.3025 -0.9523 -1.3526
41985SOL    HW230513   1.517  10.063   7.707  0.5810 -0.8557 -1.3881
41986SOL     OW30514   9.986   2.582  11.220 -0.4915  0.3435  0.4378
41986SOL    HW130515   9.996   2.502  11.170  0.2478  0.1920  0.8136
41986SOL    HW230516  10.028   2.563  11.304 -0.2938  1.1291  0.5243
41987SOL     OW30517  10.817   1.815   4.980 -0.1123 -0.0463 -0.3603
41987SOL    HW130518  10.893   1.871   4.995 -0.7242  0.1583  2.4211
41987SOL    HW230519  10.852   1.726   4.987 -0.1039  0.0471  0.9195
41988SOL     OW30520   5.878   9.960   1.928  0.1517  0.2609 -0.3035
41988SOL    HW130521   5.941   9.899   1.890 -2.7315 -2.8680 -0.5651
41988SOL    HW230522   5.866  10.026   1.860  1.7487 -0.0896 -0.9911
41989SOL     OW30523  10.101   4.491   6.435  0.1437 -0.3080 -0.7325
41989SOL    HW130524  10.065   4.515   6.520  0.1943 -0.0486 -0.7856
41989SOL    HW230525  10.030   4.505   6.373  0.7435  1.5802 -1.0556
41990SOL     OW30526   7.996   8.666   3.856  0.6706 -0.2794 -0.7243
41990SOL    HW130527   7.957   8.697   3.774  0.0063 -0.8111 -0.6208
41990SOL    HW230528   8.060   8.600   3.829  0.7604 -0.1420 -0.8428
41991SOL     OW30529   8.864   2.278   1.649  0.4934  0.0812  0.8443
41991SOL    HW130530   8.937   2.221   1.670 -0.7527 -1.6435  0.7068
41991SOL    HW230531   8.800   2.262   1.719 -0.2091  0.6895  0.3540
41992SOL     OW30532  10.759  10.222  10.083  0.2641  0.0423 -0.0251
41992SOL    HW130533  10.822  10.235  10.012 -0.3642 -1.7010 -0.9689
41992SOL    HW230534  10.676  10.203  10.039 -0.0886 -1.3343  1.1477
41993SOL     OW30535   9.733  11.557   9.877 -0.3635  0.4724 -0.3702
41993SOL    HW130536   9.771  11.556   9.965 -0.5847  1.2478 -0.2554
41993SOL    HW230537   9.767  11.478   9.835  2.2323  1.6268 -0.6279
41994SOL     OW30538   3.809   9.984   0.535  0.4482  0.6332  0.5521
41994SOL    HW130539   3.760   9.901   0.533 -1.2883  1.5854  1.2249
41994SOL    HW230540   3.834   9.999   0.444  0.1229 -0.2501  0.2992
41995SOL     OW30541   3.723   4.099   0.758  0.1359 -0.0745 -0.9436
41995SOL    HW130542   3.771   4.091   0.676 -0.1473 -1.3369 -1.0141
41995SOL    HW230543   3.633   4.118   0.731  0.1952  0.2765 -0.8942
41996SOL     OW30544   4.768   7.954  11.632 -0.1143 -0.2427 -0.2733
41996SOL    HW130545   4.853   7.982  11.600 -0.5645 -0.0905 -1.3859
41996SOL    HW230546   4.715   7.943  11.553 -1.9028  2.2137  0.4503
41997SOL     OW30547  11.813   4.231   8.647  0.2157  0.3628 -0.4480
41997SOL    HW130548  11.784   4.297   8.584  1.6058  1.0403 -0.4157
41997SOL    HW230549  11.880   4.181   8.601 -0.9227 -1.1908 -0.5259
41998SOL     OW30550   0.807   5.195   5.527 -0.2574 -0.1504  0.0815
41998SOL    HW130551   0.718   5.208   5.494 -0.2067 -1.7503 -0.7366
41998SOL    HW230552   0.818   5.265   5.592 -1.7383  0.6866 -0.5149
41999SOL     OW30553   1.239   4.843   8.238 -0.6123 -0.2006  0.3324
41999SOL    HW130554   1.324   4.813   8.268 -0.9237 -1.6233 -0.1248
41999SOL    HW230555   1.259   4.911   8.174  0.1516 -0.0261  0.7431
42000SOL     OW30556   9.620  10.917   8.938  0.1212 -0.1034 -0.1494
42000SOL    HW130557   9.642  10.830   8.903 -3.0922 -0.8536 -0.6221
42000SOL    HW230558   9.569  10.958   8.868 -0.1703  1.3424  0.8899
42001SOL     OW30559   0.575   3.426   9.628  0.2815 -0.2978  0.0978
42001SOL    HW130560   0.630   3.468   9.695 -0.2223  1.0095 -0.2737
42001SOL    HW230561   0.521   3.497   9.594  0.3650 -0.9796 -1.5389
42002SOL     OW30562  10.169  10.582   7.621  0.6185  0.2355  0.0944
42002SOL    HW130563  10.196  10.526   7.549  0.7980 -0.1546  0.4585
42002SOL    HW230564  10.244  10.639   7.637  0.5395  0.3930 -0.0953
42003SOL     OW30565  10.989   5.885   3.341 -0.6458  0.4351  0.0587
42003SOL    HW130566  10.930   5.857   3.271 -0.7218  0.4565  0.1139
42003SOL    HW230567  10.970   5.825   3.414 -0.4150  0.2768 -0.0117
42004SOL     OW30568  10.016   5.079   2.546 -0.0064 -0.1690 -0.4324
42004SOL    HW130569  10.044   5.141   2.613 -0.8471 -0.9105  0.6277
42004SOL    HW230570  10.076   5.005   2.555  0.2444 -0.0329 -0.9078
42005SOL     OW30571   9.785   9.197   6.773 -0.0615 -0.1518  0.1984
42005SOL    HW130572   9.799   9.135   6.845  0.3342  1.5635  1.6952
42005SOL    HW230573   9.864   9.191   6.720  0.6768  0.1705  1.2311
42006SOL     OW30574   5.015   2.900  10.506  0.5537  0.1591  0.0546
42006SOL    HW130575   5.095   2.888  10.557 -0.5502 -0.2839  1.8051
42006SOL    HW230576   4.976   2.813  10.502 -0.0897  0.4552 -0.3221
42007SOL     OW30577   9.986   0.393   5.931  0.3622 -0.2933 -0.4151
42007SOL    HW130578  10.034   0.317   5.900  0.0526 -0.1614 -1.2551
42007SOL    HW230579   9.914   0.403   5.868  0.6327  0.9257 -0.5567
42008SOL     OW30580   8.498   9.438   1.631 -0.0873 -0.4435  0.5009
42008SOL    HW130581   8.506   9.527   1.666 -1.5795  0.9766 -2.3866
42008SOL    HW230582   8.582   9.396   1.650  0.5416  1.4654  2.2102
42009SOL     OW30583   4.279  11.487  10.758 -0.2545 -0.1431  0.4592
42009SOL    HW130584   4.327  11.492  10.842  0.3394  1.6499  0.0554
42009SOL    HW230585   4.259  11.578  10.737 -0.6236 -0.5965 -1.2371
42010SOL     OW30586   5.798   0.378   8.264  0.8113  0.0315 -0.2045
42010SOL    HW130587   5.832   0.297   8.225 -0.6457 -1.3292  1.1869
42010SOL    HW230588   5.874   0.418   8.305  1.5717 -0.6006 -0.9413
42011SOL     OW30589   7.451   7.462  10.009 -0.4640  0.6702  0.0870
42011SOL    HW130590   7.393   7.386  10.014  1.3619 -0.7285  1.0314
42011SOL    HW230591   7.392   7.536   9.999 -2.2939 -0.8868 -1.4016
42012SOL     OW30592   5.028   1.131   8.107 -0.0438 -0.5181  0.5594
42012SOL    HW130593   4.940   1.107   8.078 -0.3197 -0.0189  0.9936
42012SOL    HW230594   5.068   1.171   8.029 -0.7369  0.6874  0.8064
42013SOL     OW30595   9.797   4.620   6.465 -0.1884  0.4492  0.3112
42013SOL    HW130596   9.832   4.666   6.388 -2.5621  1.4397 -0.2759
42013SOL    HW230597   9.855   4.647   6.536  1.5801  0.1703 -0.9526
42014SOL     OW30598   0.104   5.429   6.828 -0.2211  0.4029 -0.1220
42014SOL    HW130599   0.076   5.357   6.771  1.2907 -0.5239  0.2472
42014SOL    HW230600   0.172   5.474   6.777  2.8570 -1.8381  1.6843
42015SOL     OW30601   6.165   2.153   0.638  0.0525 -0.4821  0.3074
42015SOL    HW130602   6.253   2.191   0.641 -0.6220  1.1075  2.2807
42015SOL    HW230603   6.170   2.074   0.692  0.6995 -1.5266 -1.2162
42016SOL     OW30604  11.115   6.253  12.027 -0.3427 -0.5025 -0.2861
42016SOL    HW130605  11.177   6.294  11.968 -1.0727  2.1136  0.6298
42016SOL    HW230606  11.170   6.210  12.094  0.4481 -0.5219 -0.9374
42017SOL     OW30607   0.766  11.967  11.082 -0.1711 -0.3837 -0.2396
42017SOL    HW130608   0.737  12.032  11.018  0.8539 -0.6485 -1.0084
42017SOL    HW230609   0.712  11.890  11.064 -0.3827 -0.2175 -0.3112
42018SOL     OW30610   2.493   2.253  10.656  0.6341  0.2266  0.1536
42018SOL    HW130611   2.463   2.254  10.747 -0.6047 -1.6710 -0.1771
42018SOL    HW230612   2.424   2.298  10.607 -1.9340 -4.0373 -0.5914
42019SOL     OW30613   1.552   5.097   3.373  0.1849 -0.3553  0.0735
42019SOL    HW130614   1.506   5.015   3.354 -1.4705  0.4415  0.4667
42019SOL    HW230615   1.517   5.160   3.311 -0.5723  0.7040  1.5143
42020SOL     OW30616   6.250   0.778   0.026  0.1975  0.3362 -0.5952
42020SOL    HW130617   6.227   0.870   0.036  0.9095  0.6866 -1.8961
42020SOL    HW230618   6.255   0.764  -0.068 -0.4903 -1.2053 -0.4413
42021SOL     OW30619   1.354   1.574   2.062 -0.5185 -0.3439  0.1027
42021SOL    HW130620   1.283   1.557   1.999 -0.1918 -0.7300 -0.1656
42021SOL    HW230621   1.431   1.534   2.022 -0.1702 -0.0236  0.4492
42022SOL     OW30622   8.245  10.231   9.002  0.3502 -0.1945 -0.0892
42022SOL    HW130623   8.228  10.260   9.092  0.9555  1.7009 -0.5413
42022SOL    HW230624   8.312  10.162   9.012 -0.2413 -0.6418  0.9535
42023SOL     OW30625  10.215   8.680  11.909 -0.7667 -0.1094 -0.6245
42023SOL    HW130626  10.245   8.737  11.979 -0.5820 -0.0005 -0.7911
42023SOL    HW230627  10.285   8.683  11.844 -0.9139 -0.2513 -0.7895
42024SOL     OW30628   8.693   5.526  11.573  0.0240 -0.5043  0.3815
42024SOL    HW130629   8.719   5.598  11.630 -0.3110 -0.3260  0.3123
42024SOL    HW230630   8.619   5.485  11.618  0.2340 -0.8246  0.4344
42025SOL     OW30631   4.944  11.367   0.922 -0.0801  0.1902  0.8540
42025SOL    HW130632   4.858  11.343   0.956 -0.5820  0.7963  0.0385
42025SOL    HW230633   4.948  11.462   0.933  0.4410  0.1779  0.7766
42026SOL     OW30634   7.840   4.324   3.203 -0.0743  0.1563  0.3921
42026SOL    HW130635   7.779   4.386   3.163 -0.6053 -0.5814  0.0382
42026SOL    HW230636   7.843   4.251   3.142  3.5438  1.4248 -1.1738
42027SOL     OW30637   3.274   0.063   7.400  0.5521 -0.1482  0.5006
42027SOL    HW130638   3.264   0.150   7.361 -0.6651  0.0973  1.3321
42027SOL    HW230639   3.368   0.052   7.409  0.7204  1.1921  0.6136
42028SOL     OW30640   3.542  11.027  11.628 -0.1277 -0.7860 -0.5434
42028SOL    HW130641   3.465  10.970  11.636  1.2550 -2.6088  0.7866
42028SOL    HW230642   3.616  10.967  11.628  1.4395  1.0127  0.8897
42029SOL     OW30643  10.491   4.681  10.180  0.1710  0.3516 -0.2612
42029SOL    HW130644  10.548   4.709  10.252 -0.3586 -2.1032  1.2223
42029SOL    HW230645  10.411   4.653  10.223 -0.8278  0.4036 -2.0055
42030SOL     OW30646   1.127   0.794   1.282  0.2471  0.3439  0.2012
42030SOL    HW130647   1.199   0.759   1.333  1.2132  0.6599 -0.9041
42030SOL    HW230648   1.168   0.851   1.217 -0.7610 -1.0845 -1.8115
42031SOL     OW30649   4.731   7.074   6.029 -0.3767  0.2280  0.0970
42031SOL    HW130650   4.778   7.128   5.965  0.2171 -0.5129 -0.1003
42031SOL    HW230651   4.725   6.988   5.988  0.4383 -0.3877  1.2283
42032SOL     OW30652   9.458   5.353   9.413  0.2262  0.3881  0.7191
42032SOL    HW130653   9.448   5.358   9.508  0.4118  1.4717  0.6897
42032SOL    HW230654   9.387   5.408   9.378 -0.3526 -0.6473  0.1894
42033SOL     OW30655   7.997   9.404   0.436 -0.1426  0.1236  0.0912
42033SOL    HW130656   7.913   9.448   0.427  0.1115  0.4849 -0.5663
42033SOL    HW230657   7.975   9.311   0.439 -0.5143  0.1762 -0.8169
42034SOL     OW30658   6.895   6.103   4.125  0.7255 -0.0945 -0.8376
42034SOL    HW130659   6.845   6.179   4.154  1.0351 -0.6032  1.1264
42034SOL    HW230660   6.876   6.096   4.031 -0.6427  1.3702 -0.7010
42035SOL     OW30661  11.734   2.955   6.209  0.4244 -0.6152  0.1739
42035SOL    HW130662  11.732   2.982   6.301  0.7458 -0.4574  0.1375
42035SOL    HW230663  11.817   2.908   6.200  1.1052  0.6607 -0.3834
42036SOL     OW30664  11.664   1.083   2.413  0.1928  0.2220  0.0778
42036SOL    HW130665  11.729   1.047   2.353 -1.1188 -1.4863 -0.3621
42036SOL    HW230666  11.618   1.150   2.362  0.4372  0.2112 -0.1574
42037SOL     OW30667   2.596   7.396   4.229  0.2142  0.2160  0.4779
42037SOL    HW130668   2.516   7.441   4.204  0.1648 -0.1601 -0.0439
42037SOL    HW230669   2.665   7.443   4.182  0.3797  0.9344  1.4106
42038SOL     OW30670   9.303  10.013   4.708 -0.3288  0.3486  0.0699
42038SOL    HW130671   9.342  10.019   4.796  1.9375 -1.3071 -0.7124
42038SOL    HW230672   9.225   9.960   4.721 -0.6277  1.0358  1.2456
42039SOL     OW30673  11.328   6.583   3.280  0.6500  0.4877  0.0115
42039SOL    HW130674  11.268   6.638   3.231  0.3075 -0.3551 -0.5457
42039SOL    HW230675  11.304   6.493   3.256  1.8014  0.1141  0.1668
42040SOL     OW30676   2.741  10.310   9.007  0.2545 -0.2505  0.2941
42040SOL    HW130677   2.703  10.319   8.920  0.3766  0.1855  0.2852
42040SOL    HW230678   2.729  10.395   9.048 -2.9657 -1.3895  2.0310
42041SOL     OW30679   0.515   9.273   1.474 -0.1377 -0.0853 -0.1301
42041SOL    HW130680   0.512   9.272   1.570  0.9713 -0.4481 -0.0946
42041SOL    HW230681   0.607   9.283   1.453 -0.3419 -0.3436 -1.1745
42042SOL     OW30682   8.806   5.240  10.677  0.2512 -0.2338 -0.0507
42042SOL    HW130683   8.768   5.176  10.617  1.1746 -1.9808  1.1499
42042SOL    HW230684   8.777   5.212  10.764  1.2308  0.5833  0.5642
42043SOL     OW30685   4.291   1.972   2.589 -0.1475  0.2734  0.0686
42043SOL    HW130686   4.326   2.060   2.601 -0.3511  0.5591 -1.2680
42043SOL    HW230687   4.197   1.985   2.577  0.0123  0.0730 -1.7352
42044SOL     OW30688   0.018   2.019   5.137 -0.1943 -0.7866  0.1864
42044SOL    HW130689  -0.054   1.974   5.180 -1.0162 -1.3947 -1.7048
42044SOL    HW230690  -0.024   2.071   5.067  1.0301  0.3801  0.2622
42045SOL     OW30691   8.838   5.757   1.600  0.2263 -0.2135  0.1815
42045SOL    HW130692   8.885   5.693   1.547 -0.0455 -0.9733  0.8276
42045SOL    HW230693   8.894   5.771   1.677 -0.3197 -0.6878  0.6791
42046SOL     OW30694   7.150   2.241   8.985 -0.4566  0.0984 -0.1449
42046SOL    HW130695   7.199   2.306   8.936 -0.3095  0.4926  0.5194
42046SOL    HW230696   7.129   2.284   9.068  0.2549 -0.9431  0.5882
42047SOL     OW30697   8.941   5.216   8.277  0.2099  0.5234 -0.1123
42047SOL    HW130698   8.928   5.243   8.368  0.5879  1.5034 -0.3439
42047SOL    HW230699   8.889   5.279   8.226  0.9597  0.7157 -0.6485
42048SOL     OW30700   1.883   4.227   3.646  0.7281 -0.1861 -0.2330
42048SOL    HW130701   1.905   4.200   3.557  0.7675  0.5018 -0.4369
42048SOL    HW230702   1.856   4.318   3.637  0.4184 -0.2101  0.4156
42049SOL     OW30703   7.922  10.430   4.574  0.0022  0.1939 -0.3941
42049SOL    HW130704   7.960  10.354   4.617  0.3340  0.5983  0.0397
42049SOL    HW230705   7.997  10.487   4.555 -0.4855  1.9094  2.2545
42050SOL     OW30706   0.926   6.445   9.213  0.7490  0.6873  0.0684
42050SOL    HW130707   0.948   6.485   9.297  2.3645  0.7712 -0.3629
42050SOL    HW230708   1.009   6.443   9.165  0.0445 -0.2263 -1.1606
42051SOL     OW30709  12.068  11.802   3.388  0.5632 -0.3049  0.4600
42051SOL    HW130710  12.088  11.773   3.299 -0.2391  0.9068 -0.1370
42051SOL    HW230711  11.991  11.857   3.379 -0.4928 -1.4058  2.1339
42052SOL     OW30712   4.688  11.082   6.620 -0.0506  0.4563 -0.1809
42052SOL    HW130713   4.739  11.021   6.567 -0.2446 -0.1195  0.2844
42052SOL    HW230714   4.714  11.169   6.589  1.2526  0.1827  0.0725
42053SOL     OW30715   0.511   6.439   0.873 -0.1396  0.3023  0.1508
42053SOL    HW130716   0.510   6.348   0.843 -1.9665 -0.2822  1.7724
42053SOL    HW230717   0.524   6.491   0.793 -0.1263 -1.3168 -0.9424
42054SOL     OW30718   7.888   3.991   8.851  0.2302 -0.2379  0.4792
42054SOL    HW130719   7.978   3.988   8.883  0.9260 -1.0163 -1.3963
42054SOL    HW230720   7.894   4.031   8.765 -0.8998 -2.1432 -0.5593
42055SOL     OW30721   1.293   9.012   0.211 -0.1477  0.2359 -0.0237
42055SOL    HW130722   1.282   8.919   0.231 -0.3498 -0.0711 -1.4547
42055SOL    HW230723   1.239   9.057   0.276 -0.0268 -0.6452  0.7026
42056SOL     OW30724   7.696  10.984   5.715  0.2838 -0.2809 -0.2617
42056SOL    HW130725   7.655  11.067   5.740  0.1908  0.5509 -2.8417
42056SOL    HW230726   7.780  10.984   5.760  0.3016  1.2458 -0.2525
42057SOL     OW30727   6.894   6.608   6.482  0.3192  0.1569 -0.3031
42057SOL    HW130728   6.847   6.607   6.398 -1.2307  1.4339  0.5051
42057SOL    HW230729   6.892   6.516   6.511 -2.4384  0.2481  0.0559
42058SOL     OW30730  11.330   5.011   5.100  0.7121 -0.0757 -0.9341
42058SOL    HW130731  11.312   5.068   5.025  0.0358  0.5124 -0.3462
42058SOL    HW230732  11.425   5.012   5.109  0.6993  1.2931 -0.7109
42059SOL     OW30733   8.745  11.401   1.352 -0.5497 -0.2887 -0.0256
42059SOL    HW130734   8.825  11.360   1.384  0.9220  1.1333 -1.6549
42059SOL    HW230735   8.702  11.435   1.430  0.9627 -0.2029  0.7915
42060SOL     OW30736   4.543   9.374   5.251  0.1322 -0.7658  0.3290
42060SOL    HW130737   4.467   9.431   5.259  0.7073  0.2617 -1.0476
42060SOL    HW230738   4.598   9.394   5.327 -1.9026 -3.1385  2.6228
42061SOL     OW30739   3.987  11.513  11.535  0.1264 -0.3849  0.4659
42061SOL    HW130740   4.079  11.507  11.559  0.1364  0.6259  0.6898
42061SOL    HW230741   3.984  11.571  11.459 -0.4568  0.7113  1.3032
42062SOL     OW30742   8.839   6.717   4.525  0.3315 -0.6584  0.6193
42062SOL    HW130743   8.874   6.696   4.612 -0.8296  1.5602  1.7160
42062SOL    HW230744   8.825   6.812   4.528 -0.7558 -0.6973 -1.6241
42063SOL     OW30745   8.781  10.794   7.012  0.1601  0.2902 -0.0210
42063SOL    HW130746   8.734  10.860   7.064 -0.1317  0.7274 -0.8307
42063SOL    HW230747   8.867  10.834   6.997  0.5586 -0.2141  0.8681
42064SOL     OW30748   7.269   8.434   3.303 -0.2337  0.6047  0.0652
42064SOL    HW130749   7.219   8.382   3.240  0.1604  1.5003 -1.0165
42064SOL    HW230750   7.341   8.377   3.330 -0.2036  0.3330 -0.5732
42065SOL     OW30751  10.402  10.793   7.602 -0.0857 -0.1965  0.1414
42065SOL    HW130752  10.333  10.855   7.580  1.0217  1.1080  0.2354
42065SOL    HW230753  10.419  10.807   7.695  0.6809 -0.1198 -0.0071
42066SOL     OW30754   4.901   7.861   8.753  0.1157  0.1254  0.0853
42066SOL    HW130755   4.817   7.901   8.775 -0.9894 -1.6573 -0.6649
42066SOL    HW230756   4.966   7.930   8.770 -1.3980  1.2895  1.4317
42067SOL     OW30757   4.574   3.598  10.649 -0.1013 -0.2362  0.1871
42067SOL    HW130758   4.549   3.508  10.673  2.0795 -1.0922 -0.5143
42067SOL    HW230759   4.600   3.638  10.732 -0.2300 -0.5521  0.3856
42068SOL     OW30760   3.242   6.396   6.479 -0.7091  0.2234 -0.2791
42068SOL    HW130761   3.320   6.404   6.424 -0.3603  0.0126  0.1693
42068SOL    HW230762   3.169   6.417   6.421 -0.3700 -0.1937 -0.8696
42069SOL     OW30763   8.652   0.301   3.304 -0.3307 -0.3122  0.3123
42069SOL    HW130764   8.657   0.395   3.287  1.8282 -0.4556 -0.0923
42069SOL    HW230765   8.671   0.260   3.219  2.2600 -1.0586  1.1678
42070SOL     OW30766   2.445  11.999   4.345 -0.0076 -0.4454 -0.3780
42070SOL    HW130767   2.432  11.946   4.267 -1.7096 -0.4188 -0.1426
42070SOL    HW230768   2.538  11.988   4.367  0.0796 -1.8558 -1.3735
42071SOL     OW30769   0.555   5.080  11.625 -0.1277 -0.2069  1.5339
42071SOL    HW130770   0.551   4.988  11.598 -0.0178  0.0213  0.6940
42071SOL    HW230771   0.470   5.096  11.667 -0.6766 -0.3571  0.5167
42072SOL     OW30772   1.199   9.680   3.324  0.3571  0.0572  0.1488
42072SOL    HW130773   1.160   9.758   3.363  0.7107 -0.2399  1.1497
42072SOL    HW230774   1.248   9.639   3.396  0.9524 -0.5823 -0.5918
42073SOL     OW30775   4.083  11.748   2.499 -0.3083  0.1284  0.3249
42073SOL    HW130776   4.089  11.702   2.416  0.2888 -1.5640  1.2698
42073SOL    HW230777   4.167  11.792   2.510 -0.1006 -0.2844  0.3880
42074SOL     OW30778   9.090   3.466   7.510 -0.0160  0.6379  0.2882
42074SOL    HW130779   9.029   3.394   7.493  0.3425  0.1301  1.0919
42074SOL    HW230780   9.176   3.429   7.492  0.1606  0.8925  0.5980
42075SOL     OW30781   3.492   5.312   5.824 -0.1357  0.0458  0.1600
42075SOL    HW130782   3.453   5.333   5.909  0.5865  0.5332  0.3741
42075SOL    HW230783   3.437   5.358   5.760 -0.1444  0.4181  0.4337
42076SOL     OW30784   5.203   0.488   4.026 -0.4645 -0.0462 -0.5324
42076SOL    HW130785   5.154   0.519   3.949 -2.1612 -0.5679  0.2925
42076SOL    HW230786   5.263   0.422   3.991 -1.8541 -0.9366 -1.3002
42077SOL     OW30787   5.950   6.675  11.371 -0.1887 -1.0926 -0.6923
42077SOL    HW130788   5.920   6.764  11.351 -1.1808 -0.8783  1.5117
42077SOL    HW230789   6.004   6.651  11.296  1.3362  1.9305 -0.7008
42078SOL     OW30790   2.971   3.627   0.926 -0.2123  0.1922 -0.4694
42078SOL    HW130791   2.966   3.718   0.957  1.0484  0.2589 -0.4196
42078SOL    HW230792   3.051   3.593   0.966 -1.6107 -1.5410  1.0094
42079SOL     OW30793   6.111   1.249   4.487  0.1418  0.8412 -0.2611
42079SOL    HW130794   6.097   1.156   4.472  1.8099  0.5409 -0.2068
42079SOL    HW230795   6.037   1.292   4.444 -0.3317 -0.4671 -0.8170
42080SOL     OW30796   0.576   9.078   4.911 -0.5859  0.4564 -0.2184
42080SOL    HW130797   0.517   9.147   4.940 -1.3387  0.7528 -2.3068
42080SOL    HW230798   0.519   9.015   4.866  0.5397  0.2873 -1.4746
42081SOL     OW30799   1.171   0.503   1.215  0.2835 -0.1749 -0.0017
42081SOL    HW130800   1.193   0.412   1.199 -0.1367 -0.6856  2.0547
42081SOL    HW230801   1.240   0.535   1.272 -0.1531  0.4577  0.1883
42082SOL     OW30802   4.367   0.179   0.599 -0.6540 -0.5042 -0.6465
42082SOL    HW130803   4.274   0.169   0.621 -0.9089 -0.2078 -1.5481
42082SOL    HW230804   4.412   0.126   0.664 -1.3200  0.7914  0.9351
42083SOL     OW30805   6.462   6.547   2.293  0.4763 -0.4034  0.2609
42083SOL    HW130806   6.436   6.467   2.339 -1.4428  0.0688  0.0646
42083SOL    HW230807   6.411   6.546   2.212 -0.9117  1.8092  0.9965
42084SOL     OW30808  11.021   7.771  10.475  0.0459  0.2711  0.3699
42084SOL    HW130809  10.934   7.748  10.508 -0.7856  2.7854  0.1536
42084SOL    HW230810  11.055   7.689  10.438 -2.6626 -0.5712 -0.5171
42085SOL     OW30811   3.092   0.978   2.495 -0.0932 -0.4217 -0.6730
42085SOL    HW130812   3.150   0.942   2.428 -0.0560 -0.3114 -0.6990
42085SOL    HW230813   3.144   1.044   2.540  0.9625 -2.5999  1.5175
42086SOL     OW30814  12.061   8.975   9.733  0.0765 -0.1097  0.5596
42086SOL    HW130815  12.043   8.934   9.818  3.1786  0.5600  1.6978
42086SOL    HW230816  12.091   8.903   9.677  0.6603 -0.1768  0.9460
42087SOL     OW30817   8.570   5.036  10.146  0.5425  0.3026 -0.0402
42087SOL    HW130818   8.581   4.990  10.229  2.2485 -0.4177 -0.6105
42087SOL    HW230819   8.476   5.048  10.137  0.3289  0.6858  2.1328
42088SOL     OW30820   6.532  11.702   7.326  0.5289 -0.3368 -0.1785
42088SOL    HW130821   6.623  11.693   7.357  0.4668  0.4820  0.2889
42088SOL    HW230822   6.488  11.751   7.396 -0.0158  0.1783 -0.8612
42089SOL     OW30823   1.180   8.400   4.875  0.6387 -0.2070 -0.7874
42089SOL    HW130824   1.114   8.364   4.934  1.4164 -1.4621 -0.6345
42089SOL    HW230825   1.156   8.367   4.789  1.6089 -1.5587 -0.5818
42090SOL     OW30826   2.300   1.117   1.916  0.0927  0.4029  0.0845
42090SOL    HW130827   2.310   1.118   2.011  0.2519  0.3538  0.0668
42090SOL    HW230828   2.307   1.209   1.890  0.3601  0.3811  0.0845
42091SOL     OW30829  10.850   0.016   1.927  0.0450  0.3822 -0.1247
42091SOL    HW130830  10.814   0.103   1.910  1.2029  1.0619  0.7334
42091SOL    HW230831  10.882  -0.014   1.842  0.1247  1.0290 -0.3263
42092SOL     OW30832   9.597   0.111   0.808  1.0639  0.4051 -0.2530
42092SOL    HW130833   9.633   0.193   0.774  0.7953 -0.0082 -1.5767
42092SOL    HW230834   9.597   0.052   0.733 -0.9460 -0.0861  0.0861
42093SOL     OW30835  11.534  12.043   4.129 -0.3535 -0.8306  0.4179
42093SOL    HW130836  11.483  11.978   4.178 -1.0656 -0.1888  0.5459
42093SOL    HW230837  11.519  12.020   4.037 -0.5352 -0.9060  0.4643
42094SOL     OW30838   3.166   0.361   3.265 -1.1890 -0.4651 -0.2663
42094SOL    HW130839   3.096   0.391   3.207  0.6023  1.4417 -1.6160
42094SOL    HW230840   3.170   0.425   3.335 -1.1817 -0.8995  0.1357
42095SOL     OW30841   9.102   3.245   8.553 -0.4397 -0.3051 -0.3363
42095SOL    HW130842   9.154   3.317   8.516  1.1756 -1.5623 -0.6401
42095SOL    HW230843   9.086   3.187   8.480 -1.0938 -0.6211  0.0560
42096SOL     OW30844   4.970  10.687   8.900  0.2385  0.4003 -0.6550
42096SOL    HW130845   5.048  10.704   8.953 -1.0599  1.3677  1.0388
42096SOL    HW230846   4.987  10.731   8.817  1.6719  0.1871 -0.5054
42097SOL     OW30847   9.758   9.680   6.875  0.4821 -0.0612  0.4196
42097SOL    HW130848   9.671   9.665   6.837 -0.2980  1.7660  1.3560
42097SOL    HW230849   9.809   9.603   6.849 -1.6327 -1.5872  0.5144
42098SOL     OW30850   9.207   8.442   5.918 -0.2040  0.3306  0.6449
42098SOL    HW130851   9.239   8.395   5.995  1.5148  2.6553  1.4741
42098SOL    HW230852   9.161   8.517   5.953  1.5649  2.0519 -0.5049
42099SOL     OW30853   6.376   7.215   7.065 -0.9915 -0.1961 -0.0979
42099SOL    HW130854   6.392   7.127   7.101  0.2103 -0.6557 -1.6688
42099SOL    HW230855   6.378   7.272   7.141  1.0926 -1.1822  0.6586
42100SOL     OW30856   6.896  10.771   0.968 -0.1454  0.0180  0.2820
42100SOL    HW130857   6.988  10.746   0.978  0.8983  3.0371 -0.7749
42100SOL    HW230858   6.863  10.771   1.058  0.7018 -1.5256  0.6491
42101SOL     OW30859   4.649   8.418   4.069  0.3537  0.1860  0.1723
42101SOL    HW130860   4.672   8.339   4.118 -0.0757  0.0797  0.2032
42101SOL    HW230861   4.604   8.386   3.991  2.1209  0.2787 -0.9340
42102SOL     OW30862   2.110   9.864   5.856  0.2032 -0.3136  0.0460
42102SOL    HW130863   2.065   9.948   5.846 -0.0965 -0.3217  1.1275
42102SOL    HW230864   2.159   9.853   5.775 -1.6528 -0.2523 -1.1523
42103SOL     OW30865   5.709  11.722   3.337 -0.8275 -0.3498  0.6219
42103SOL    HW130866   5.712  11.629   3.316 -1.9630  0.1347 -2.2026
42103SOL    HW230867   5.618  11.747   3.325 -1.2688  0.6143  4.4985
42104SOL     OW30868  10.558   8.028   9.597  0.1624 -0.4056  0.0801
42104SOL    HW130869  10.502   7.984   9.661 -1.6779  1.7239  0.0689
42104SOL    HW230870  10.499   8.048   9.524  1.4625  0.0615 -0.8610
42105SOL     OW30871   8.146   2.387   0.644  0.3578 -0.5534 -0.5661
42105SOL    HW130872   8.125   2.352   0.558  0.0642 -0.3096 -0.5955
42105SOL    HW230873   8.066   2.374   0.696  0.7321 -1.2470 -0.1510
42106SOL     OW30874  10.203   0.385   8.859 -0.0928 -0.0238 -0.2328
42106SOL    HW130875  10.183   0.445   8.930  0.6919 -0.1893  0.1371
42106SOL    HW230876  10.165   0.301   8.887  2.2191 -0.7025  1.1315
42107SOL     OW30877   2.835   1.261   1.532  0.4628  0.5797 -0.2775
42107SOL    HW130878   2.865   1.246   1.443  1.3963 -1.2188  0.2904
42107SOL    HW230879   2.740   1.249   1.528  0.7838 -2.7422 -0.5117
42108SOL     OW30880  11.454  10.110   8.931 -0.0145  0.3826 -0.2306
42108SOL    HW130881  11.411  10.196   8.932  1.1064  0.9845  1.6392
42108SOL    HW230882  11.385  10.049   8.956 -0.7061  0.7916 -1.0810
42109SOL     OW30883  11.408   2.596   5.758 -0.6817  0.6429  0.3153
42109SOL    HW130884  11.388   2.515   5.806  0.8991  0.2445  0.3713
42109SOL    HW230885  11.342   2.599   5.688 -1.8926  0.2800  1.4094
42110SOL     OW30886   4.821  10.022   8.028 -0.4667 -0.1258  0.3566
42110SOL    HW130887   4.746   9.963   8.035 -0.4385 -0.5388 -2.0023
42110SOL    HW230888   4.896   9.963   8.019  0.0035  0.2944  1.3475
42111SOL     OW30889   0.003   1.061   6.997 -0.0086 -0.5826 -0.5057
42111SOL    HW130890   0.071   1.102   6.944 -0.1459  0.4282  0.0737
42111SOL    HW230891  -0.012   1.122   7.069  1.9156 -3.0041  2.1444
42112SOL     OW30892   0.950   5.645  11.636 -0.9403  0.2134 -0.0521
42112SOL    HW130893   1.008   5.575  11.666 -0.9893  0.0868 -0.2482
42112SOL    HW230894   0.874   5.640  11.693 -0.1392  1.3229  1.1793
42113SOL     OW30895   7.724   4.922   4.979 -0.1676  0.8506  0.3400
42113SOL    HW130896   7.691   5.011   4.987  1.0101  1.5956 -2.3096
42113SOL    HW230897   7.819   4.931   4.975 -0.0751 -0.3977 -1.1063
42114SOL     OW30898  10.753   8.987   6.209 -0.3182  0.1078  0.2874
42114SOL    HW130899  10.746   8.896   6.179 -1.3790  0.6524 -1.1916
42114SOL    HW230900  10.821   9.025   6.153 -0.9118  0.6058 -0.1048
42115SOL     OW30901   8.722  10.370   0.820  0.0676 -0.2663 -0.1703
42115SOL    HW130902   8.748  10.421   0.897  0.9756 -1.2404  0.2025
42115SOL    HW230903   8.700  10.284   0.856  1.3159 -0.9948 -1.0704
42116SOL     OW30904   5.937   7.284  10.256  0.9393 -0.1689  0.6928
42116SOL    HW130905   6.023   7.325  10.249  0.1122  1.6004  0.4011
42116SOL    HW230906   5.885   7.345  10.307  0.2707 -1.9724  2.2800
42117SOL     OW30907  10.121   5.197  10.430 -0.1778  0.1038 -0.3593
42117SOL    HW130908  10.200   5.247  10.408  1.2457 -1.6272  0.4907
42117SOL    HW230909  10.129   5.180  10.524 -1.1075 -0.8427 -0.4283
42118SOL     OW30910   6.965   0.251   4.762  0.1075 -0.2055  0.5752
42118SOL    HW130911   6.978   0.210   4.676 -1.7783  0.7232 -0.2047
42118SOL    HW230912   6.987   0.182   4.825  1.4904 -0.9138 -0.6222
42119SOL     OW30913  11.298   1.847   0.804 -0.6499 -0.0913 -0.4981
42119SOL    HW130914  11.231   1.914   0.818 -0.0513  0.0158  2.8672
42119SOL    HW230915  11.249   1.768   0.783 -1.7234  0.3510  0.2384
42120SOL     OW30916   6.235   8.228   7.669 -0.2098  0.5094  0.2451
42120SOL    HW130917   6.280   8.282   7.734 -1.1978 -1.0314  2.3259
42120SOL    HW230918   6.148   8.267   7.662  0.0747  1.0171 -0.6440
42121SOL     OW30919  10.232   8.816   3.521 -0.1288  0.1192 -0.1540
42121SOL    HW130920  10.265   8.872   3.591 -1.3569  1.3985 -0.5692
42121SOL    HW230921  10.277   8.847   3.443 -0.8605  0.5615 -0.3961
42122SOL     OW30922   7.477   9.607   5.261  0.7380 -0.5379 -0.0295
42122SOL    HW130923   7.396   9.604   5.311  0.7702 -0.0611  0.0617
42122SOL    HW230924   7.498   9.516   5.242  0.6509 -0.7216  0.7164
42123SOL     OW30925   0.771   1.419   2.757  0.2085 -0.2224 -0.2664
42123SOL    HW130926   0.792   1.411   2.664  1.7154 -1.9576  0.1583
42123SOL    HW230927   0.848   1.462   2.795  0.3835 -1.1148  0.4258
42124SOL     OW30928   2.871  10.307  10.040  0.4902  0.5818  0.4280
42124SOL    HW130929   2.795  10.330  10.093  0.7909  0.6934  0.8231
42124SOL    HW230930   2.945  10.313  10.101  0.4270 -3.4494  1.1655
42125SOL     OW30931   3.804   1.005   6.578 -0.1494 -0.3580 -0.5036
42125SOL    HW130932   3.820   1.095   6.550 -0.9689 -0.4359 -1.2915
42125SOL    HW230933   3.890   0.965   6.581  0.2002  0.3902 -0.3646
42126SOL     OW30934   5.046   6.946   5.226  1.3182  0.4929 -0.2376
42126SOL    HW130935   4.999   6.894   5.161  1.8531  0.5088 -0.6504
42126SOL    HW230936   5.117   6.987   5.177  0.1107  2.7432 -0.2285
42127SOL     OW30937   0.462  11.511  11.840 -0.2869  0.0018 -0.2009
42127SOL    HW130938   0.534  11.566  11.807 -0.7098 -0.4603 -2.0204
42127SOL    HW230939   0.394  11.519  11.774 -0.4749 -2.4698 -0.3869
42128SOL     OW30940   6.044   5.932  10.350  0.3490  0.2769 -0.4766
42128SOL    HW130941   6.083   5.847  10.367 -0.7244  0.0325  0.8732
42128SOL    HW230942   5.965   5.913  10.299 -1.3504  0.1571  2.0508
42129SOL     OW30943   5.750   2.619   1.911  0.1870  0.0516  0.5253
42129SOL    HW130944   5.681   2.684   1.907  0.2882  0.1911  0.9501
42129SOL    HW230945   5.772   2.600   1.820  1.5750  2.1256  0.3556
42130SOL     OW30946   1.347   2.996   9.973 -0.1811 -0.1885 -0.2734
42130SOL    HW130947   1.402   2.942  10.030  0.1591  0.2213 -0.2030
42130SOL    HW230948   1.287   2.935   9.932  0.5304 -0.6968 -0.5825
42131SOL     OW30949   7.590   1.912  10.129  0.1902 -0.0099 -0.5030
42131SOL    HW130950   7.504   1.950  10.145 -0.7786 -1.6633 -1.5007
42131SOL    HW230951   7.574   1.842  10.065  2.6326  1.2408 -2.6712
42132SOL     OW30952   2.929   4.996   8.201  0.5634  0.1899  0.0784
42132SOL    HW130953   2.868   5.039   8.260 -1.1714 -1.0216 -0.7457
42132SOL    HW230954   2.970   4.928   8.254 -0.0598 -0.0808  0.2208
42133SOL     OW30955   5.954   6.278   3.574 -0.5388 -0.4853 -0.2369
42133SOL    HW130956   5.939   6.281   3.668 -1.8150 -1.1805 -0.3997
42133SOL    HW230957   5.953   6.370   3.547  0.7480 -0.2210  0.5367
42134SOL     OW30958   3.281  10.502   8.423  0.2501 -0.1339 -0.1498
42134SOL    HW130959   3.338  10.459   8.359 -0.3625  0.2926 -1.0070
42134SOL    HW230960   3.340  10.541   8.486  0.9171  0.4577 -1.1204
42135SOL     OW30961   1.538  10.845   4.755  0.0716  0.6472 -0.6038
42135SOL    HW130962   1.634  10.849   4.760  0.0521  1.5603 -0.7331
42135SOL    HW230963   1.509  10.928   4.792 -0.6465  0.7263 -1.3217
42136SOL     OW30964   7.563   6.087   8.787 -0.6786 -0.4044 -0.4639
42136SOL    HW130965   7.541   6.039   8.707 -2.2185 -1.6647  0.6505
42136SOL    HW230966   7.548   6.024   8.858 -0.6778  1.0862  0.9239
42137SOL     OW30967  10.301   4.093   1.192 -0.2151  0.1322 -0.2576
42137SOL    HW130968  10.211   4.125   1.183 -0.4330 -0.7230 -1.4441
42137SOL    HW230969  10.356   4.170   1.174 -0.6721  0.9154  1.5115
42138SOL     OW30970   7.027   8.985   5.143  0.9359 -0.4837  0.1044
42138SOL    HW130971   7.074   8.928   5.204 -0.2940 -3.3925 -1.4464
42138SOL    HW230972   7.084   8.990   5.067  0.4187 -0.8266 -0.3079
42139SOL     OW30973   4.374   3.760   3.959  0.4753  0.4357 -0.1025
42139SOL    HW130974   4.326   3.831   3.917 -0.4850  1.3754  2.3830
42139SOL    HW230975   4.370   3.780   4.052  0.4437 -2.7368  0.7041
42140SOL     OW30976  10.089  10.199   8.719  0.3967 -0.3336 -0.1311
42140SOL    HW130977  10.175  10.190   8.678  1.2730 -1.7978  1.8531
42140SOL    HW230978  10.107  10.219   8.810 -1.4898  3.9720 -0.4697
42141SOL     OW30979   9.896   4.189   0.070 -0.3138 -0.3264  0.6171
42141SOL    HW130980   9.816   4.173   0.120  0.1003 -0.5395  1.2303
42141SOL    HW230981   9.922   4.104   0.037 -0.5782 -0.1872  0.0448
42142SOL     OW30982  11.358   0.232   2.279  0.6536  0.2352  0.1064
42142SOL    HW130983  11.404   0.153   2.306 -2.1640 -1.3996  0.5405
42142SOL    HW230984  11.334   0.275   2.361 -0.6100 -0.2413  0.0146
42143SOL     OW30985   6.142   8.794   8.922 -0.6756 -0.4759 -0.0229
42143SOL    HW130986   6.212   8.824   8.980 -1.1536  0.8890 -0.1034
42143SOL    HW230987   6.187   8.751   8.849  0.0768  0.2838 -0.0225
42144SOL     OW30988  10.240   5.783   8.233  0.4957 -0.4041 -0.2022
42144SOL    HW130989  10.226   5.867   8.189  0.9507 -0.3227 -0.1973
42144SOL    HW230990  10.232   5.803   8.326  0.0837 -0.4674 -0.2243
42145SOL     OW30991   8.453   5.545   1.436 -0.4685 -0.5559 -0.2451
42145SOL    HW130992   8.386   5.479   1.456 -0.9266 -0.7021 -2.1321
42145SOL    HW230993   8.416   5.596   1.364  0.9133  0.2112 -0.4324
42146SOL     OW30994   8.777   7.338  10.490 -0.0172 -0.3170 -0.3424
42146SOL    HW130995   8.866   7.306  10.476  0.7333  0.4647  2.1529
42146SOL    HW230996   8.728   7.260  10.518  0.2431 -0.4852 -0.3470
42147SOL     OW30997   4.036   3.703   2.184 -0.0196  0.3642 -0.1364
42147SOL    HW130998   4.089   3.644   2.130 -0.1320  1.8294 -1.9678
42147SOL    HW230999   4.099   3.760   2.227 -0.0173  0.9192 -0.8606
42148SOL     OW31000   2.272  10.578   5.738 -0.0991 -0.0733  0.2719
42148SOL    HW131001   2.306  10.563   5.826 -0.1059 -0.5989  0.1851
42148SOL    HW231002   2.323  10.521   5.681 -1.0281 -0.7947  0.1271
42149SOL     OW31003   9.350  11.027   0.560  0.3770 -0.0329  0.0264
42149SOL    HW131004   9.259  11.049   0.581 -0.0794 -1.3945 -0.4374
42149SOL    HW231005   9.402  11.086   0.615 -0.7632  1.3951 -0.3627
42150SOL     OW31006   4.339   5.805   2.914  0.6814  0.1706 -0.3249
42150SOL    HW131007   4.352   5.795   3.008 -0.0081 -0.7828 -0.3221
42150SOL    HW231008   4.364   5.720   2.877 -3.8213 -1.3683 -0.4662
42151SOL     OW31009   7.756   6.852   3.038  0.3025  0.3029 -0.2289
42151SOL    HW131010   7.758   6.768   3.082 -0.0736  0.4257  0.0232
42151SOL    HW231011   7.740   6.916   3.107  0.4254  0.5682 -0.4401
42152SOL     OW31012   6.669  11.135   1.839 -0.2922  0.1933  0.1169
42152SOL    HW131013   6.698  11.226   1.836  1.2991 -0.3077 -0.2833
42152SOL    HW231014   6.644  11.120   1.930  1.1647  0.5134  0.5812
42153SOL     OW31015   4.153   7.660   5.008  0.1958  0.6110  0.2637
42153SOL    HW131016   4.229   7.650   5.066  0.4168 -0.2993 -0.1693
42153SOL    HW231017   4.096   7.721   5.055  1.4078  1.7345  0.3640
42154SOL     OW31018   7.520   5.646  11.688  0.0165 -0.4261  0.0590
42154SOL    HW131019   7.534   5.595  11.608  0.0637 -2.0515  1.0637
42154SOL    HW231020   7.609   5.668  11.717 -0.0014  0.1848 -0.3180
42155SOL     OW31021  10.830  11.551   1.247  0.0467 -0.0792 -0.2465
42155SOL    HW131022  10.872  11.590   1.171  0.2742 -2.9653 -1.7500
42155SOL    HW231023  10.899  11.544   1.313  0.2171  1.0657 -0.2775
42156SOL     OW31024   2.283   2.974  12.087 -0.3187  0.2000  0.3742
42156SOL    HW131025   2.322   3.055  12.053 -1.0516  0.7172  0.7457
42156SOL    HW231026   2.323   2.963  12.173 -0.9470  0.7175  0.7448
42157SOL     OW31027  11.668   5.270   1.282  0.4386 -0.1233  0.3464
42157SOL    HW131028  11.700   5.274   1.372  0.4086 -2.3497  0.5017
42157SOL    HW231029  11.643   5.179   1.269  0.7664  0.0645 -2.0312
42158SOL     OW31030   2.379  10.487   3.392 -0.0364 -0.2252 -0.7464
42158SOL    HW131031   2.315  10.558   3.391  0.7407  0.5412  0.6543
42158SOL    HW231032   2.459  10.527   3.359  0.1757 -0.6937 -0.8076
42159SOL     OW31033   0.008   6.270   5.436 -0.4835 -0.6579  0.5856
42159SOL    HW131034   0.087   6.318   5.410 -1.2022  0.5653  0.5510
42159SOL    HW231035   0.038   6.207   5.502  0.6978 -1.0208 -0.2706
42160SOL     OW31036   2.105   0.582   6.598 -0.0270 -0.2764  0.0386
42160SOL    HW131037   2.134   0.512   6.539 -1.3517  0.5636 -1.6967
42160SOL    HW231038   2.086   0.537   6.681  0.5235 -1.7255 -0.5874
42161SOL     OW31039   0.189   3.613   9.518 -0.4213 -0.8123  0.4467
42161SOL    HW131040   0.168   3.561   9.440 -1.3168 -1.2413  0.9616
42161SOL    HW231041   0.133   3.690   9.512  0.8753  0.1172 -0.2924
42162SOL     OW31042   0.668   3.613   3.478 -0.1674 -0.3330  0.3868
42162SOL    HW131043   0.621   3.688   3.443 -0.2344 -0.6639 -0.2458
42162SOL    HW231044   0.606   3.571   3.537 -0.8953 -1.0752 -0.8474
42163SOL     OW31045  11.113   2.494  11.623 -0.6239  0.1715 -0.4473
42163SOL    HW131046  11.104   2.488  11.528  1.6267  0.5401 -0.7437
42163SOL    HW231047  11.093   2.406  11.655 -1.7268  0.1279 -1.2078
42164SOL     OW31048   4.353   0.312  10.045  0.1341  0.3646  0.0380
42164SOL    HW131049   4.377   0.285   9.957  0.8217 -0.4742  0.4713
42164SOL    HW231050   4.396   0.249  10.103 -1.6350 -0.0958  0.9208
42165SOL     OW31051   4.769   8.235   5.825 -0.3554 -0.3114 -0.2485
42165SOL    HW131052   4.744   8.196   5.742 -0.8429 -0.5583  0.0116
42165SOL    HW231053   4.812   8.318   5.801 -0.5564 -0.3458 -0.7347
42166SOL     OW31054   8.030  11.226   5.023  0.3200  0.0747 -0.0827
42166SOL    HW131055   8.044  11.267   4.938  2.7638  1.1203  0.7289
42166SOL    HW231056   7.992  11.295   5.077  0.9336  0.1387  0.2759
42167SOL     OW31057   9.907  11.435  10.110 -0.1957 -0.0016  0.3787
42167SOL    HW131058   9.988  11.423  10.059 -1.0164 -2.1691 -0.5413
42167SOL    HW231059   9.937  11.473  10.193  1.6367  0.2043 -0.3206
42168SOL     OW31060  11.673   8.234   8.767  0.2274 -0.7950  0.0442
42168SOL    HW131061  11.715   8.262   8.686  1.0166 -2.6095 -0.2091
42168SOL    HW231062  11.612   8.165   8.740 -1.0927  0.0378  0.7535
42169SOL     OW31063   2.022   1.914   5.452  0.0997  0.0615  0.1186
42169SOL    HW131064   2.055   1.989   5.403  0.1103  0.2596  0.4221
42169SOL    HW231065   2.001   1.849   5.386  2.3733 -0.6042 -0.0118
42170SOL     OW31066   9.207   2.292   6.408 -0.0634 -0.3306  0.1632
42170SOL    HW131067   9.156   2.357   6.359  2.0982 -0.2741 -2.2437
42170SOL    HW231068   9.193   2.211   6.360 -0.4000 -1.0155  1.3955
42171SOL     OW31069   2.139   8.011   3.127 -0.7251  0.0102  0.0120
42171SOL    HW131070   2.207   7.979   3.067  0.4007  2.4354 -0.1118
42171SOL    HW231071   2.061   8.021   3.072 -0.9955 -1.9206 -0.0402
42172SOL     OW31072  12.037  12.002   1.946 -0.2422 -0.4605  0.5537
42172SOL    HW131073  11.968  11.959   1.996 -0.8669 -0.5706 -0.3762
42172SOL    HW231074  12.089  12.048   2.011 -0.3398 -1.5489  1.4285
42173SOL     OW31075   3.199  11.990   2.869 -0.1631  0.0788 -0.4170
42173SOL    HW131076   3.262  12.055   2.900  1.2912 -0.8171 -1.3448
42173SOL    HW231077   3.239  11.954   2.790 -1.4741 -1.1170 -0.5802
42174SOL     OW31078   3.038   1.313   5.575  0.1133  0.1571  0.1189
42174SOL    HW131079   3.024   1.407   5.584  1.0561  0.1417  2.7895
42174SOL    HW231080   2.966   1.283   5.520  0.3265  2.5356 -1.6049
42175SOL     OW31081   0.198  11.277   6.577 -0.2515  0.6896  0.6437
42175SOL    HW131082   0.276  11.236   6.540 -0.8935  0.3845 -0.4025
42175SOL    HW231083   0.233  11.347   6.634  0.7962  2.7243 -2.2596
42176SOL     OW31084   4.888   9.328   8.169  0.0807  0.0265 -0.6933
42176SOL    HW131085   4.850   9.245   8.197 -0.8219 -0.6894 -3.6559
42176SOL    HW231086   4.901   9.318   8.075  2.6591  2.2430 -0.6891
42177SOL     OW31087   1.139   2.949   2.695 -0.2961  0.4962 -0.1913
42177SOL    HW131088   1.194   2.997   2.633  0.3473  1.3403  1.0055
42177SOL    HW231089   1.129   3.008   2.770 -0.0490 -0.9572  1.0429
42178SOL     OW31090   8.342   6.069   5.686  0.1965 -0.5285  0.1251
42178SOL    HW131091   8.419   6.047   5.739 -0.1334 -0.4712  0.6279
42178SOL    HW231092   8.353   6.018   5.606  0.2497 -1.2996  0.6158
42179SOL     OW31093  10.624   8.242   7.493 -0.5026 -0.2100  0.5275
42179SOL    HW131094  10.590   8.256   7.582  1.6833  0.1425  1.3613
42179SOL    HW231095  10.551   8.200   7.447 -2.9970  2.7506  1.4150
42180SOL     OW31096   3.267   1.806   2.231  0.6830  0.2655  0.2161
42180SOL    HW131097   3.250   1.731   2.174 -0.2712  1.3214 -0.9494
42180SOL    HW231098   3.361   1.821   2.224  0.6678  0.0131 -0.6348
42181SOL     OW31099   2.159   7.696   8.442  0.3454 -0.7010 -0.8748
42181SOL    HW131100   2.220   7.622   8.440  0.0057 -1.0290  0.2976
42181SOL    HW231101   2.178   7.744   8.361  0.1838 -2.3630 -1.9521
42182SOL     OW31102   3.948   8.798   1.866 -0.8366 -0.3558 -0.2562
42182SOL    HW131103   3.956   8.781   1.960  1.0473  0.9365 -0.1226
42182SOL    HW231104   3.926   8.891   1.860  1.5401  0.2252 -1.0754
42183SOL     OW31105   7.492   2.765   4.171  0.0395  0.0331 -0.8687
42183SOL    HW131106   7.430   2.836   4.154  0.7875  0.9740  0.1755
42183SOL    HW231107   7.573   2.810   4.196  0.8172 -1.1851 -1.1163
42184SOL     OW31108   5.466   2.845   0.914 -0.3879 -1.1467  0.6062
42184SOL    HW131109   5.375   2.859   0.887  0.3793  1.0352 -1.1915
42184SOL    HW231110   5.496   2.772   0.861 -0.5740 -0.6167 -0.2567
42185SOL     OW31111   5.237   2.559   6.490  0.3361  0.6585 -0.1419
42185SOL    HW131112   5.195   2.482   6.452 -2.1377  2.0028 -0.3203
42185SOL    HW231113   5.237   2.624   6.419  1.1524  1.2722  0.3983
42186SOL     OW31114   7.833  10.310   6.210  0.3961 -0.0548 -0.1480
42186SOL    HW131115   7.862  10.315   6.302  1.4625  1.5740 -0.5425
42186SOL    HW231116   7.897  10.363   6.162 -0.2216 -0.7900 -1.8296
42187SOL     OW31117   3.763   7.261   6.328 -0.0644 -0.3203 -0.7700
42187SOL    HW131118   3.692   7.282   6.267 -0.4628 -1.2072 -0.6317
42187SOL    HW231119   3.735   7.180   6.370  0.6748 -0.2608 -0.1355
42188SOL     OW31120   3.791   8.037  11.701 -0.1383  0.6219 -0.0364
42188SOL    HW131121   3.775   8.127  11.731 -1.0328 -0.0018  1.4941
42188SOL    HW231122   3.819   7.991  11.780 -0.5537 -0.6355 -0.6054
42189SOL     OW31123   9.185   5.233   9.539  0.3307  0.3423 -0.0969
42189SOL    HW131124   9.200   5.322   9.573  0.7705  0.3378 -0.2725
42189SOL    HW231125   9.264   5.185   9.563  0.0273 -0.0476  0.1382
42190SOL     OW31126   7.478   2.619   8.182 -0.3134  0.5829  0.5799
42190SOL    HW131127   7.559   2.569   8.194  0.3490  1.3423 -0.6446
42190SOL    HW231128   7.478   2.682   8.255 -0.6896 -0.5336  1.5846
42191SOL     OW31129   0.727   3.975  10.123 -0.1184  0.0388 -0.1097
42191SOL    HW131130   0.781   3.945  10.050 -1.4983  0.7660 -1.4863
42191SOL    HW231131   0.712   3.896  10.176  1.0389 -0.4670 -0.5098
42192SOL     OW31132   1.508  11.247  10.159 -0.5819 -0.3411 -0.0093
42192SOL    HW131133   1.594  11.210  10.140  0.1581  1.3095 -0.0412
42192SOL    HW231134   1.502  11.245  10.255 -0.3610 -0.1529  0.0091
42193SOL     OW31135   6.668   9.740   2.997  0.3480  0.0116  0.1000
42193SOL    HW131136   6.741   9.722   2.939 -1.7916 -1.9780 -2.2491
42193SOL    HW231137   6.694   9.703   3.081  1.7350 -1.3900 -0.8939
42194SOL     OW31138   2.632   8.837   5.977 -0.1260 -0.4007  0.2482
42194SOL    HW131139   2.564   8.826   6.044 -1.2758  2.2879 -0.3283
42194SOL    HW231140   2.601   8.786   5.902 -1.1694  0.2068  0.2516
42195SOL     OW31141   3.802   5.935   7.480  0.0797 -0.2056 -0.1971
42195SOL    HW131142   3.802   5.858   7.537  0.0178 -0.7588 -0.9265
42195SOL    HW231143   3.797   6.010   7.540 -2.7934 -0.8290  0.4782
42196SOL     OW31144   2.188   4.742   4.151  0.3568 -0.2536  0.1592
42196SOL    HW131145   2.155   4.767   4.064 -0.5011 -0.1009  0.5164
42196SOL    HW231146   2.137   4.663   4.173  2.0076 -1.5132 -0.3359
42197SOL     OW31147   0.410   8.006   9.888  0.1085  0.3370  0.3194
42197SOL    HW131148   0.337   8.031   9.945  0.9204 -0.9437  1.9836
42197SOL    HW231149   0.382   7.923   9.849 -0.3791  1.1301 -1.1008
42198SOL     OW31150   9.813   3.317   4.894 -0.1111 -0.0976  0.3877
42198SOL    HW131151   9.744   3.381   4.876  0.9837  1.1951  0.6437
42198SOL    HW231152   9.772   3.255   4.955 -0.8868  0.9361  0.9526
42199SOL     OW31153   6.540   7.349   7.774  0.4308  0.2877 -0.3719
42199SOL    HW131154   6.529   7.435   7.814  1.5989  1.1065 -1.6946
42199SOL    HW231155   6.582   7.367   7.690  1.4334 -1.6482 -0.3506
42200SOL     OW31156   6.641  11.345   3.889 -0.6707  0.1889 -0.2088
42200SOL    HW131157   6.644  11.315   3.980 -0.3271  1.2706  0.1420
42200SOL    HW231158   6.675  11.270   3.839 -0.1616 -0.1458  0.6144
42201SOL     OW31159  11.292   2.020   0.162  0.2318 -0.1257  0.6436
42201SOL    HW131160  11.369   1.962   0.167 -0.6860 -1.3288  1.2689
42201SOL    HW231161  11.219   1.961   0.145 -0.7039  0.8912  1.0269
42202SOL     OW31162   0.913   0.102   5.438 -0.0496  0.5402  0.0601
42202SOL    HW131163   0.861   0.045   5.494  1.3556 -0.1920  0.6476
42202SOL    HW231164   0.976   0.143   5.496  1.4332 -0.2249 -0.9547
42203SOL     OW31165  10.088  11.838   9.344 -0.1901 -0.7253 -0.6587
42203SOL    HW131166   9.993  11.829   9.343 -0.1378 -1.3074 -0.3986
42203SOL    HW231167  10.121  11.753   9.315  0.3070 -1.3091  1.4980
42204SOL     OW31168   9.412   6.589   7.131  0.2134  0.3709 -0.0605
42204SOL    HW131169   9.457   6.580   7.047 -0.6966 -2.6510 -0.3567
42204SOL    HW231170   9.319   6.593   7.108 -0.0664 -0.7829  0.7733
42205SOL     OW31171   9.138  10.205   1.436  0.1068  0.0435 -0.7323
42205SOL    HW131172   9.070  10.140   1.452 -0.5616  1.2673  2.0111
42205SOL    HW231173   9.189  10.208   1.517  1.4076  1.4546 -1.5375
42206SOL     OW31174  10.387   9.173   5.884  0.5211 -0.0451  0.3919
42206SOL    HW131175  10.391   9.212   5.797  1.3478  0.8926  0.8365
42206SOL    HW231176  10.438   9.232   5.939 -0.9548  0.0276  1.7587
42207SOL     OW31177   7.765   4.202   7.751  0.1249 -0.0299 -0.5203
42207SOL    HW131178   7.852   4.161   7.749  0.4757  0.6638 -2.4596
42207SOL    HW231179   7.739   4.206   7.659 -1.1506  1.4615 -0.1339
42208SOL     OW31180   1.425   5.115   5.469  0.0826  0.0961  0.3591
42208SOL    HW131181   1.388   5.152   5.549 -1.6838 -1.7032  0.4463
42208SOL    HW231182   1.513   5.153   5.464 -0.0888  0.9822  2.6359
42209SOL     OW31183   2.086   3.688   0.903 -0.4499  0.0003 -0.7981
42209SOL    HW131184   2.110   3.626   0.834 -0.8669  1.2540 -2.1214
42209SOL    HW231185   1.992   3.700   0.892 -0.3767  0.8471 -0.5327
42210SOL     OW31186   5.518   2.705  10.875 -0.1855  0.1232  0.2952
42210SOL    HW131187   5.468   2.695  10.795  0.1226 -0.0832  0.1265
42210SOL    HW231188   5.462   2.669  10.944 -0.4499  0.3021  0.1758
42211SOL     OW31189   9.740   5.093   7.476 -0.7132  0.1338  0.0646
42211SOL    HW131190   9.673   5.134   7.530 -1.3569 -0.9798  0.1376
42211SOL    HW231191   9.779   5.165   7.427 -0.5505  1.0848  1.5260
42212SOL     OW31192   9.628   1.937   5.627  0.4630 -0.0642  0.2458
42212SOL    HW131193   9.711   1.889   5.624  0.6377  0.2434 -3.0724
42212SOL    HW231194   9.644   2.016   5.577 -2.6677 -1.6502 -3.8282
42213SOL     OW31195   9.130  11.409   5.244  0.5260  0.6839  0.4814
42213SOL    HW131196   9.044  11.451   5.241  0.6677  1.0084  0.8678
42213SOL    HW231197   9.151  11.405   5.338 -0.3006 -1.8711  0.6578
42214SOL     OW31198  11.722   6.719   5.116 -0.0712  0.4409 -0.0110
42214SOL    HW131199  11.755   6.673   5.194  1.2901 -0.6502 -1.1881
42214SOL    HW231200  11.686   6.651   5.061 -1.5777  1.2823 -0.1277
42215SOL     OW31201  10.982  11.005   6.871 -0.1412 -0.2605  0.0935
42215SOL    HW131202  11.033  10.975   6.947 -0.6358 -0.6783  0.2686
42215SOL    HW231203  10.898  10.961   6.881 -0.0509 -0.6972 -0.9621
42216SOL     OW31204   9.286   8.700   9.494 -0.9912  0.3177 -0.1089
42216SOL    HW131205   9.306   8.625   9.439  0.3796  0.9157 -0.4835
42216SOL    HW231206   9.213   8.671   9.549 -0.1161 -1.5001  0.1844
42217SOL     OW31207   8.524   8.759   3.539 -0.3437  0.1189 -0.1277
42217SOL    HW131208   8.567   8.674   3.531  0.1451  0.5029 -2.1044
42217SOL    HW231209   8.495   8.763   3.631  0.7898 -1.5959  0.3523
42218SOL     OW31210   2.016  11.633  11.229  0.0231  0.0870  0.3286
42218SOL    HW131211   1.946  11.691  11.198 -2.6472 -1.5585  2.7969
42218SOL    HW231212   2.063  11.686  11.294  0.6188  0.9268 -0.7459
42219SOL     OW31213   0.822   0.152   7.251  0.3859 -0.6828  0.2533
42219SOL    HW131214   0.812   0.241   7.217 -0.2581 -0.8030  0.1269
42219SOL    HW231215   0.852   0.164   7.341 -2.4039 -0.2422  1.2232
42220SOL     OW31216   9.801  11.423   5.210  0.0442 -0.2887  0.3019
42220SOL    HW131217   9.786  11.399   5.301  0.8413  0.1349  0.5524
42220SOL    HW231218   9.839  11.510   5.214  2.7695 -1.3423 -0.2434
42221SOL     OW31219   5.495   9.993   3.397  0.4907  0.1255  0.0514
42221SOL    HW131220   5.496   9.910   3.443  0.0848 -0.1958 -0.5094
42221SOL    HW231221   5.525  10.057   3.462 -0.1962 -0.2906  0.7930
42222SOL     OW31222   4.460   6.959   6.007  0.2707 -0.8744  0.0284
42222SOL    HW131223   4.545   6.918   5.994  0.4374 -2.1200  3.6953
42222SOL    HW231224   4.399   6.885   6.014 -0.9660 -0.0516 -1.4963
42223SOL     OW31225   7.780   7.073  11.826  0.0583 -0.2504 -0.0274
42223SOL    HW131226   7.797   6.981  11.844  0.1805 -0.2645 -0.2114
42223SOL    HW231227   7.722   7.073  11.750 -0.7943 -0.2031  0.6033
42224SOL     OW31228  10.209   2.976   0.170  0.0746  0.0674 -0.0697
42224SOL    HW131229  10.167   2.894   0.144  0.4859  0.0216 -0.5983
42224SOL    HW231230  10.240   2.960   0.259  1.0309 -0.6982 -0.5193
42225SOL     OW31231   4.771  11.580   6.228 -0.1350  0.4777 -0.0635
42225SOL    HW131232   4.750  11.650   6.165  0.6634 -0.2699 -1.2010
42225SOL    HW231233   4.801  11.626   6.306  0.0725  1.4148 -0.6801
42226SOL     OW31234   0.306  11.537   0.903 -0.3796  0.0630  0.6955
42226SOL    HW131235   0.256  11.459   0.929 -1.8509  0.8636  0.3246
42226SOL    HW231236   0.298  11.596   0.978 -0.5723  0.4679  0.3560
42227SOL     OW31237  11.385   0.612   6.253 -0.1668 -0.1259  0.2399
42227SOL    HW131238  11.370   0.559   6.175 -0.2291  1.7498 -1.0918
42227SOL    HW231239  11.454   0.674   6.227 -0.7669  1.0744  1.3757
42228SOL     OW31240   1.669   8.251   4.408  0.1714 -0.5209  0.4161
42228SOL    HW131241   1.630   8.283   4.489 -2.6537 -1.7153 -0.3681
42228SOL    HW231242   1.598   8.208   4.361  1.8107 -0.3901 -2.4864
42229SOL     OW31243   6.146   3.669   8.166  0.2378 -0.0558 -0.1341
42229SOL    HW131244   6.124   3.750   8.119  3.2197  0.0963 -1.4914
42229SOL    HW231245   6.106   3.599   8.114  1.1080  0.3196 -1.3641
42230SOL     OW31246   2.972   6.190  10.177 -0.2058 -0.1044 -0.3840
42230SOL    HW131247   3.051   6.223  10.219  0.5669 -2.8857  0.5826
42230SOL    HW231248   2.934   6.266  10.134  2.3864  1.5721  0.0601
42231SOL     OW31249   4.855   7.334   8.078 -0.4974 -0.2096  0.1159
42231SOL    HW131250   4.876   7.310   7.988  0.3032 -0.0666  0.2545
42231SOL    HW231251   4.905   7.273   8.132  0.0232  0.4978  0.4598
42232SOL     OW31252   8.640   5.723   4.506  0.0533 -0.0482  0.3056
42232SOL    HW131253   8.582   5.744   4.579  0.7956  0.6535  0.7034
42232SOL    HW231254   8.630   5.797   4.446  0.6116  0.1246  0.4237
42233SOL     OW31255   0.304   5.031   1.960 -0.0212  0.6147 -0.0659
42233SOL    HW131256   0.379   5.012   1.903  0.4218  0.9923  0.3740
42233SOL    HW231257   0.302   5.127   1.965  0.2431  0.5851  0.9167
42234SOL     OW31258  10.981   2.648  11.369  0.6097  0.2156 -0.2297
42234SOL    HW131259  10.960   2.580  11.305  2.1874  0.4088 -0.9817
42234SOL    HW231260  10.910   2.642  11.433  0.4842 -1.8855 -0.4753
42235SOL     OW31261   2.650   1.852   1.002  0.0033  0.2958 -0.5738
42235SOL    HW131262   2.580   1.791   0.979  0.3829 -0.9831  1.3755
42235SOL    HW231263   2.731   1.803   0.985  0.3081 -0.0852  1.6584
42236SOL     OW31264  11.291   4.064  11.891  0.0944  0.1545 -0.0519
42236SOL    HW131265  11.330   3.998  11.833  0.7398 -0.0683  0.6125
42236SOL    HW231266  11.218   4.100  11.841 -1.1383 -2.0120  0.0508
42237SOL     OW31267  10.502   2.568  11.320  1.4657  0.0578 -0.1901
42237SOL    HW131268  10.506   2.473  11.327  1.3525  0.0385 -0.3700
42237SOL    HW231269  10.426   2.593  11.373 -0.1400 -0.1959 -2.2295
42238SOL     OW31270   8.591  11.299   4.858  0.1135 -0.2051  0.2335
42238SOL    HW131271   8.602  11.218   4.809  1.7002  1.0813 -1.7336
42238SOL    HW231272   8.676  11.313   4.900  0.1418  0.8057 -0.1237
42239SOL     OW31273   8.755   8.721   0.772 -0.4702 -0.1426 -0.7674
42239SOL    HW131274   8.759   8.809   0.734 -1.5687  0.0961 -0.3709
42239SOL    HW231275   8.839   8.682   0.750 -0.4985  0.5164 -2.1517
42240SOL     OW31276   8.472   2.350   4.263 -0.1397 -0.6276 -0.1992
42240SOL    HW131277   8.473   2.262   4.226 -1.5713 -0.4834 -0.6578
42240SOL    HW231278   8.391   2.355   4.313 -0.2466  0.5297 -0.4518
42241SOL     OW31279   5.816  11.154  11.092  0.2090 -0.9726 -0.2692
42241SOL    HW131280   5.729  11.120  11.073 -0.2475 -0.3051  0.5748
42241SOL    HW231281   5.818  11.241  11.052  1.0135 -1.5558 -1.5460
42242SOL     OW31282   5.168   3.049   4.591  0.5980  0.0790 -0.3845
42242SOL    HW131283   5.174   3.109   4.517  0.5793  1.0354  0.3674
42242SOL    HW231284   5.222   2.974   4.565 -0.5971 -0.2878 -1.9761
42243SOL     OW31285   2.249   2.165   1.582 -0.2148 -0.6646  0.2634
42243SOL    HW131286   2.288   2.128   1.661  3.0274  0.9995 -0.4097
42243SOL    HW231287   2.317   2.159   1.516 -1.3031  1.8832 -1.2341
42244SOL     OW31288   5.574   1.509   3.698 -0.0274  0.8672  0.2990
42244SOL    HW131289   5.634   1.443   3.732 -1.0130 -1.0192 -1.3825
42244SOL    HW231290   5.620   1.547   3.623 -0.8636 -0.5905 -1.0002
42245SOL     OW31291   8.621   6.206   7.347 -0.2041  0.3806 -0.1165
42245SOL    HW131292   8.683   6.184   7.417 -0.8043 -0.2082  0.2425
42245SOL    HW231293   8.551   6.253   7.392 -1.9458 -2.3532  0.1913
42246SOL     OW31294   8.394   2.741  11.343  0.2535  0.3601  0.0087
42246SOL    HW131295   8.415   2.685  11.269 -0.5742  1.0217 -0.7485
42246SOL    HW231296   8.301   2.725  11.360  0.5998 -0.3584  1.4251
42247SOL     OW31297   0.479   5.821  10.405 -0.1522 -0.0563 -0.6342
42247SOL    HW131298   0.469   5.839  10.311  1.2029  0.1651 -0.7536
42247SOL    HW231299   0.563   5.859  10.428 -1.2465  1.4457  1.0919
42248SOL     OW31300   0.465   5.462   7.901  0.0657  0.8447  0.2023
42248SOL    HW131301   0.496   5.382   7.943  1.8035  2.2712  1.8335
42248SOL    HW231302   0.495   5.456   7.811  3.7687  1.3304  1.2464
42249SOL     OW31303   6.404   3.367   7.123  0.0713  0.5603  0.2237
42249SOL    HW131304   6.401   3.424   7.046 -0.8762  1.3940  0.8606
42249SOL    HW231305   6.490   3.382   7.160  0.0942  1.0619 -0.0148
42250SOL     OW31306   1.739   0.485  10.630  0.6287  0.6760  0.0268
42250SOL    HW131307   1.667   0.549  10.623 -2.2115 -2.0187  1.8860
42250SOL    HW231308   1.764   0.489  10.723  0.7062 -0.5680  0.0662
42251SOL     OW31309   1.862   8.122   3.556  0.2254 -0.3189 -0.3445
42251SOL    HW131310   1.769   8.145   3.559  0.1759 -0.6018  0.5291
42251SOL    HW231311   1.908   8.206   3.549 -0.0263 -0.0313  1.0916
42252SOL     OW31312   2.601   3.239   5.324 -0.2173 -0.5929  0.4613
42252SOL    HW131313   2.584   3.187   5.402 -0.6547 -2.8586 -1.0588
42252SOL    HW231314   2.673   3.194   5.280  0.3769  0.9339 -0.2108
42253SOL     OW31315   3.634   9.262   5.632 -0.0282  0.4702  0.0406
42253SOL    HW131316   3.591   9.194   5.684  1.2308 -1.2543 -1.0307
42253SOL    HW231317   3.624   9.231   5.541 -1.1436  2.7714 -0.7040
42254SOL     OW31318  11.893   6.795  12.035  0.1546  0.1120 -0.1111
42254SOL    HW131319  11.900   6.887  12.010 -0.1432  0.0027 -0.6174
42254SOL    HW231320  11.806   6.787  12.074 -0.1533 -0.1253 -0.8298
42255SOL     OW31321   7.034   1.925   1.271 -0.2416  0.3982  0.0412
42255SOL    HW131322   7.072   1.904   1.356  0.0265  1.2228  0.1293
42255SOL    HW231323   6.993   2.011   1.283 -1.5958 -0.1811 -0.2275
42256SOL     OW31324  10.421   3.725   5.034 -0.1629 -0.2541  0.4600
42256SOL    HW131325  10.379   3.806   5.004 -0.2523 -0.4545  0.0385
42256SOL    HW231326  10.502   3.754   5.074 -0.3831  0.0810  0.6660
42257SOL     OW31327   6.868   7.450   4.446  0.3931  0.5772  0.6798
42257SOL    HW131328   6.779   7.474   4.471 -1.1016 -1.7909 -1.8416
42257SOL    HW231329   6.882   7.493   4.362  0.5450 -1.1499 -0.2203
42258SOL     OW31330   7.202   6.546   6.674  0.5834  0.3729 -0.4557
42258SOL    HW131331   7.280   6.591   6.704  0.9025 -0.5784  0.1684
42258SOL    HW231332   7.132   6.578   6.730  1.2532 -1.7531  1.7646
42259SOL     OW31333   2.991   6.625   7.340  0.1158  0.4101  0.2212
42259SOL    HW131334   2.897   6.642   7.342 -0.2627 -1.5415  1.2678
42259SOL    HW231335   2.999   6.532   7.319  1.7297  0.1024  1.9259
42260SOL     OW31336   6.576   0.054   1.050  0.0586  0.0612 -0.6423
42260SOL    HW131337   6.562   0.066   1.144  0.3084  0.7231 -0.6862
42260SOL    HW231338   6.572   0.143   1.014 -0.4370 -0.2267 -1.3136
42261SOL     OW31339   2.421   2.102   2.415  0.2994  0.9182  0.0138
42261SOL    HW131340   2.500   2.086   2.467  0.8159  2.5531 -0.2035
42261SOL    HW231341   2.412   2.198   2.414 -2.0747  0.7812  0.6004
42262SOL     OW31342  10.080  10.775   0.102 -0.1853  0.4580 -0.4327
42262SOL    HW131343   9.996  10.744   0.137 -1.0249  2.8971 -0.0990
42262SOL    HW231344  10.089  10.730   0.018 -2.8767  1.5791 -1.4430
42263SOL     OW31345   6.545   8.030   6.682 -0.1791  0.1467 -0.1331
42263SOL    HW131346   6.598   8.081   6.620 -0.0229  0.0693 -0.0625
42263SOL    HW231347   6.479   8.093   6.713  0.1785  0.3804  0.1567
42264SOL     OW31348  11.318   2.671   4.133 -0.4487  0.0768  0.3972
42264SOL    HW131349  11.314   2.575   4.125  0.9259  0.1529 -1.8977
42264SOL    HW231350  11.248   2.703   4.077  0.2701  0.4361 -0.3056
42265SOL     OW31351   1.399  11.244   1.689 -0.5632 -0.2888  0.0011
42265SOL    HW131352   1.487  11.272   1.714 -0.3091 -1.5152  0.5848
42265SOL    HW231353   1.340  11.306   1.732  0.0133  0.5270 -0.3820
42266SOL     OW31354   6.599   0.124   2.524  0.1185 -0.2739  0.1444
42266SOL    HW131355   6.680   0.170   2.549 -0.9607  1.5996  0.3998
42266SOL    HW231356   6.577   0.159   2.438  0.1019 -1.5557 -0.3967
42267SOL     OW31357   3.233   1.586   9.755 -0.8369  0.4558  0.1865
42267SOL    HW131358   3.239   1.561   9.663 -0.6184 -2.6279  0.9308
42267SOL    HW231359   3.145   1.621   9.765 -1.4092 -0.5908 -0.9227
42268SOL     OW31360   6.381   2.948   7.334  0.0866  0.1441  1.1845
42268SOL    HW131361   6.343   2.961   7.247  2.3330 -1.1074 -0.0592
42268SOL    HW231362   6.311   2.975   7.394 -1.5115  1.1347 -0.9667
42269SOL     OW31363   7.004   8.165   0.141 -0.5759 -0.6653 -0.2566
42269SOL    HW131364   7.081   8.119   0.175 -0.8780  1.2640  3.5396
42269SOL    HW231365   6.946   8.095   0.112  2.1351 -2.2192 -2.5610
42270SOL     OW31366  10.297   4.059   3.459  0.5348 -0.2016 -0.2043
42270SOL    HW131367  10.350   4.015   3.525  1.4521 -1.6088 -1.8006
42270SOL    HW231368  10.357   4.122   3.419  0.3608 -0.2394 -0.5268
42271SOL     OW31369   9.364   1.847   1.872 -0.0107  0.2881  0.0300
42271SOL    HW131370   9.332   1.923   1.922  1.2902 -0.2534  1.7801
42271SOL    HW231371   9.303   1.777   1.892 -0.0253  0.3214  0.1014
42272SOL     OW31372   1.460   5.413   7.713 -0.1748 -0.7585  0.1366
42272SOL    HW131373   1.490   5.387   7.626 -1.1484 -2.5386  0.2908
42272SOL    HW231374   1.532   5.387   7.771  0.1443 -0.2941 -0.0502
42273SOL     OW31375   4.168   7.012   3.995  0.1504  0.0484  0.0423
42273SOL    HW131376   4.145   7.028   4.086  1.1071  1.7792  0.0224
42273SOL    HW231377   4.119   6.933   3.971 -2.6633  1.3376  1.1084
42274SOL     OW31378   3.491  11.300   1.216  0.0616 -0.5579  0.2844
42274SOL    HW131379   3.586  11.289   1.213  0.0681 -0.4571  0.1097
42274SOL    HW231380   3.478  11.380   1.267  0.0444 -0.9397  0.8846
42275SOL     OW31381   2.855  11.342   6.059  0.2735 -0.1435  0.0093
42275SOL    HW131382   2.844  11.247   6.053  0.7655 -0.2099  0.1294
42275SOL    HW231383   2.910  11.355   6.136  1.4815  0.1320 -0.8756
42276SOL     OW31384  10.749   5.915   2.723  0.2714 -0.3629  0.2437
42276SOL    HW131385  10.731   5.825   2.697  0.4626 -0.4638  0.4503
42276SOL    HW231386  10.664   5.959   2.718  0.2038 -0.5211  0.0104
42277SOL     OW31387  10.640   5.839   3.780 -0.2176 -0.4166  0.4279
42277SOL    HW131388  10.660   5.747   3.796 -0.6309 -0.5540  0.1913
42277SOL    HW231389  10.580   5.863   3.850 -1.2998 -0.7601 -0.3472
42278SOL     OW31390   7.062   1.849   0.635 -0.2692 -0.0851  0.2819
42278SOL    HW131391   7.089   1.936   0.664 -2.5939  0.3287  1.4375
42278SOL    HW231392   7.125   1.790   0.676 -0.2027  0.8910  1.6934
42279SOL     OW31393   1.832   4.514   4.877  0.1014  0.3039  0.4058
42279SOL    HW131394   1.792   4.492   4.793  1.4928 -2.2162  0.3136
42279SOL    HW231395   1.757   4.526   4.936 -0.8624  0.8466 -0.8740
42280SOL     OW31396  10.248   9.268   6.423  0.2820  0.3195  0.3815
42280SOL    HW131397  10.288   9.348   6.459  2.1802 -0.9455  1.2239
42280SOL    HW231398  10.270   9.200   6.486 -1.0499 -0.9466 -0.4783
42281SOL     OW31399   7.507   6.411   2.639 -0.3582  0.0079  0.0238
42281SOL    HW131400   7.511   6.407   2.543  1.3020 -1.3926  0.0959
42281SOL    HW231401   7.574   6.474   2.664 -0.9052  0.4983  0.2606
42282SOL     OW31402   2.420  10.419   2.765  0.4640  0.2219 -0.1103
42282SOL    HW131403   2.385  10.459   2.686  2.3311  0.7311 -0.7235
42282SOL    HW231404   2.357  10.444   2.834 -0.6505  0.6164 -1.2297
42283SOL     OW31405  11.120  11.901   8.995  0.4788  0.4128  0.2037
42283SOL    HW131406  11.141  11.837   8.927  0.1829 -0.8406  1.2462
42283SOL    HW231407  11.197  11.901   9.053  0.9485  1.8479 -0.3823
42284SOL     OW31408  10.419  11.212   0.257  0.1595  0.1632 -0.9857
42284SOL    HW131409  10.411  11.119   0.275 -0.1133  0.1557 -1.1417
42284SOL    HW231410  10.513  11.225   0.241 -0.0507 -0.4798 -3.0163
42285SOL     OW31411   4.676  10.684   5.932 -0.0438 -1.0264  0.2411
42285SOL    HW131412   4.714  10.648   6.012 -0.7369 -1.0123  0.5865
42285SOL    HW231413   4.605  10.740   5.962 -0.4023 -1.1260 -0.3908
42286SOL     OW31414  11.169   2.019  10.145  0.2909  0.1196  0.1084
42286SOL    HW131415  11.094   2.060  10.187 -0.0272  0.6238 -0.9252
42286SOL    HW231416  11.160   2.041  10.053  0.8749 -1.1112 -0.2643
42287SOL     OW31417   8.555   8.644   7.719  0.2941  0.2005  0.1455
42287SOL    HW131418   8.623   8.603   7.772  0.0044 -0.6079 -0.0990
42287SOL    HW231419   8.537   8.582   7.649 -0.8444  0.3006  0.3235
42288SOL     OW31420   3.004   3.167   4.988 -0.0986  0.4438  0.3622
42288SOL    HW131421   2.912   3.162   4.961 -0.4562  0.1613  1.5636
42288SOL    HW231422   3.008   3.243   5.046  0.0918 -0.3622  1.4461
42289SOL     OW31423   4.542  10.267   3.811 -0.6972  0.3851  0.0830
42289SOL    HW131424   4.510  10.189   3.766 -1.6899 -1.0021  2.9573
42289SOL    HW231425   4.468  10.327   3.811 -1.7199 -0.7701  2.2291
42290SOL     OW31426   8.684   3.878   1.173  0.0733 -0.1027  0.3528
42290SOL    HW131427   8.628   3.956   1.169 -1.7277 -1.3321  0.0145
42290SOL    HW231428   8.726   3.874   1.087  1.5978  1.4303  0.9797
42291SOL     OW31429  10.122   8.893   3.885  0.2374  0.2531  0.0219
42291SOL    HW131430  10.039   8.914   3.928 -0.3622  0.2356 -1.0625
42291SOL    HW231431  10.156   8.978   3.856  0.3256  0.2070 -0.0123
42292SOL     OW31432   0.597   2.124   5.034  0.3331 -0.3995  0.1555
42292SOL    HW131433   0.520   2.099   5.085  1.2269  1.2777  2.4859
42292SOL    HW231434   0.617   2.046   4.982 -0.3685 -2.4541  2.7355
42293SOL     OW31435   7.614  11.976   6.129 -0.4887  0.5112 -0.3092
42293SOL    HW131436   7.592  11.910   6.195  3.0082  0.2443  0.7548
42293SOL    HW231437   7.535  11.982   6.075 -2.1373 -2.0644  1.5666
42294SOL     OW31438   8.085   9.246   6.954  0.2167  0.2853 -0.5668
42294SOL    HW131439   8.121   9.219   6.870 -0.4485 -2.5481 -0.0439
42294SOL    HW231440   8.159   9.239   7.015  0.5437  1.7535 -0.7437
42295SOL     OW31441   2.948   6.226   4.621  0.3895 -0.0353  0.2873
42295SOL    HW131442   2.959   6.189   4.709 -0.3251  0.0579  0.4208
42295SOL    HW231443   2.864   6.272   4.625  0.8225  0.8046 -0.1603
42296SOL     OW31444  12.062   1.804  11.634 -0.1716  0.2865  0.1362
42296SOL    HW131445  11.971   1.822  11.608  0.4919 -0.1494 -2.8511
42296SOL    HW231446  12.105   1.889  11.632 -0.1547  0.2750  0.0527
42297SOL     OW31447   7.257   6.374   5.444  0.5432  0.0202  0.3007
42297SOL    HW131448   7.273   6.468   5.446 -1.1021  0.3142  2.1078
42297SOL    HW231449   7.335   6.335   5.482  1.1627  0.6555 -0.3047
42298SOL     OW31450   5.330   5.548   2.261  0.2878 -0.4569  0.6815
42298SOL    HW131451   5.242   5.525   2.292 -0.9422 -1.2574 -2.8417
42298SOL    HW231452   5.315   5.621   2.201  1.9288 -0.9019 -0.3234
42299SOL     OW31453   0.535   8.646  11.990  0.3295 -0.4190  0.2539
42299SOL    HW131454   0.597   8.608  11.927 -0.5518 -0.6150 -0.5092
42299SOL    HW231455   0.456   8.663  11.939 -0.8793 -1.7864  1.5985
42300SOL     OW31456   2.427   6.075   4.615  0.1149 -0.4884 -0.1509
42300SOL    HW131457   2.482   6.143   4.652 -1.8881  0.6006  0.9527
42300SOL    HW231458   2.465   5.993   4.648  0.5486  0.2658  1.3098
42301SOL     OW31459   9.773   4.446  12.041  0.1271 -0.6839  0.0453
42301SOL    HW131460   9.691   4.491  12.020  0.9656  0.2910 -1.3241
42301SOL    HW231461   9.762   4.416  12.131 -1.9314 -1.0612 -0.2943
42302SOL     OW31462   6.262  11.325   2.923 -0.2236  0.0415  0.1279
42302SOL    HW131463   6.260  11.387   2.851 -0.3741 -1.4314 -1.1942
42302SOL    HW231464   6.271  11.379   3.002  1.6530  1.6168 -1.0865
42303SOL     OW31465  11.795  11.348   7.504 -0.3354  0.6417  0.2812
42303SOL    HW131466  11.859  11.409   7.541 -1.5113  1.6691  0.7002
42303SOL    HW231467  11.750  11.312   7.580  0.1367 -0.5345  0.0186
42304SOL     OW31468   8.232   5.724  11.720 -0.0189 -0.2976 -0.0138
42304SOL    HW131469   8.158   5.784  11.724  0.4880  0.2820  1.3369
42304SOL    HW231470   8.229   5.688  11.631 -0.8883  1.0158 -0.5520
42305SOL     OW31471  10.243   7.601  10.869 -0.5081 -0.1989 -0.0111
42305SOL    HW131472  10.165   7.624  10.918  0.6448 -0.5813  2.1051
42305SOL    HW231473  10.260   7.510  10.890  0.3829 -0.1934 -0.6203
42306SOL     OW31474   8.167   9.950   1.884  0.3469 -0.8986 -0.3741
42306SOL    HW131475   8.154   9.935   1.977 -0.2316  0.3278 -0.2312
42306SOL    HW231476   8.091   9.909   1.842 -0.2154 -0.1061 -0.1585
42307SOL     OW31477   9.524  11.724   9.944  0.1130 -0.2882  0.0559
42307SOL    HW131478   9.551  11.701  10.034  0.1126 -0.2409  0.0677
42307SOL    HW231479   9.574  11.663   9.889  0.0299 -0.3926  0.0938
42308SOL     OW31480   4.900  11.334   7.162 -0.1414  0.4124 -0.1802
42308SOL    HW131481   4.988  11.371   7.168  0.9883 -1.8646 -1.1876
42308SOL    HW231482   4.909  11.247   7.201 -1.5831 -0.3601 -1.4672
42309SOL     OW31483   8.145   1.119   6.951  0.1416  0.2612 -0.4734
42309SOL    HW131484   8.071   1.066   6.924  0.9132 -0.5896 -1.0039
42309SOL    HW231485   8.211   1.105   6.882  1.4064 -0.3152  0.8010
42310SOL     OW31486   8.507   3.240   1.712 -0.1378  0.1490 -0.1006
42310SOL    HW131487   8.434   3.254   1.773 -0.5464  2.4121 -1.0137
42310SOL    HW231488   8.506   3.316   1.655  0.4322 -1.6878 -2.7834
42311SOL     OW31489   6.640  11.100   5.330  0.1024 -0.3954  0.2281
42311SOL    HW131490   6.609  11.014   5.301  0.2789 -0.7109  0.9588
42311SOL    HW231491   6.725  11.083   5.369  0.4931  0.2353 -0.3130
42312SOL     OW31492  11.346   4.949   2.573 -0.1834 -0.1944 -0.1458
42312SOL    HW131493  11.343   4.955   2.668  2.7189  0.7548 -0.0191
42312SOL    HW231494  11.401   4.873   2.555 -1.2406 -0.7622 -1.1236
42313SOL     OW31495   9.715   2.143   5.471 -0.4849  0.2693  0.4641
42313SOL    HW131496   9.809   2.164   5.473 -0.3897 -0.1981  1.8547
42313SOL    HW231497   9.682   2.190   5.395  0.9883 -0.0042 -0.3975
42314SOL     OW31498   6.716   0.806  11.693  0.8815 -0.1323  0.1028
42314SOL    HW131499   6.793   0.863  11.699  0.0257  1.1315 -0.5271
42314SOL    HW231500   6.647   0.854  11.739  0.1645 -0.7065 -0.3555
42315SOL     OW31501   4.899  10.278   6.858 -0.4792  0.1930 -0.4428
42315SOL    HW131502   4.843  10.284   6.937  0.8835 -0.7237  0.6349
42315SOL    HW231503   4.923  10.185   6.853  0.5871  0.4937 -1.1341
42316SOL     OW31504  10.467   7.997   5.825 -0.0531  0.1497 -0.9269
42316SOL    HW131505  10.491   7.908   5.799 -1.1219  0.0696 -1.7021
42316SOL    HW231506  10.384   8.014   5.779 -1.4295  0.4434  1.4940
42317SOL     OW31507   4.600   6.919   8.212 -0.0857 -0.3907 -0.0793
42317SOL    HW131508   4.639   6.860   8.149 -1.3655 -1.4419  0.0746
42317SOL    HW231509   4.623   7.007   8.180  0.9910 -0.9319 -0.8533
42318SOL     OW31510   3.325   5.396   5.615  0.1742  0.1011 -0.1095
42318SOL    HW131511   3.230   5.409   5.619 -0.1180 -1.6274 -0.7636
42318SOL    HW231512   3.351   5.436   5.532  0.3052  2.0058  0.8019
42319SOL     OW31513   2.169   0.592   2.748 -0.2493  0.6748 -0.3040
42319SOL    HW131514   2.106   0.663   2.733  1.0759  1.6810 -1.3144
42319SOL    HW231515   2.175   0.585   2.844 -1.3425  1.0556 -0.1986
42320SOL     OW31516   3.181   6.798  10.407  0.1961 -0.3232  0.4919
42320SOL    HW131517   3.201   6.841  10.490 -1.0250  0.3468  0.4569
42320SOL    HW231518   3.164   6.870  10.346  1.6936 -0.7842 -0.5303
42321SOL     OW31519   0.158  11.546   2.977  0.0100  0.4857  0.0628
42321SOL    HW131520   0.240  11.564   3.023 -0.5434 -0.9283  1.7017
42321SOL    HW231521   0.182  11.484   2.909  0.2179 -0.4667  0.9812
42322SOL     OW31522  10.079   6.182   8.653 -0.3295 -0.2000  0.5715
42322SOL    HW131523   9.991   6.221   8.656  0.2436  1.0921  3.0888
42322SOL    HW231524  10.070   6.099   8.700  0.0419  0.5730  2.0503
42323SOL     OW31525   7.708   2.267  10.328 -0.3119  0.4667  0.4486
42323SOL    HW131526   7.706   2.188  10.274  1.5271 -1.5504  3.0472
42323SOL    HW231527   7.621   2.306  10.317 -1.1410 -1.6796 -1.2916
42324SOL     OW31528   1.403   7.107   6.676 -0.0139 -0.1970  0.1324
42324SOL    HW131529   1.414   7.168   6.603  1.3042 -0.8229 -0.2346
42324SOL    HW231530   1.426   7.158   6.754  1.2037 -0.2267 -0.1848
42325SOL     OW31531   7.960  11.137   0.253 -0.2391 -0.1120 -0.2326
42325SOL    HW131532   7.912  11.218   0.269 -0.8951 -0.3724 -0.8156
42325SOL    HW231533   8.007  11.120   0.335 -1.6978 -0.2267  0.6101
42326SOL     OW31534   3.940   6.319   8.088 -0.0632  0.3589 -0.9276
42326SOL    HW131535   3.882   6.262   8.140 -1.8436  2.2542 -0.6971
42326SOL    HW231536   4.010   6.343   8.147 -0.0681 -0.4451 -0.5839
42327SOL     OW31537  10.407   4.838   4.205  0.4433 -0.0704 -0.2863
42327SOL    HW131538  10.334   4.777   4.214  0.6554 -0.2435  0.2704
42327SOL    HW231539  10.406   4.890   4.285  0.6050  0.2828 -0.5111
42328SOL     OW31540   6.211   4.242   1.164 -0.1756  0.0077 -0.3302
42328SOL    HW131541   6.135   4.195   1.199 -0.2506 -1.5500 -2.3868
42328SOL    HW231542   6.180   4.332   1.154 -1.0838 -0.1558  0.7320
42329SOL     OW31543   9.194  12.087   8.592  0.3767  0.5867  0.0734
42329SOL    HW131544   9.213  12.093   8.686  2.7484  0.1527 -0.3113
42329SOL    HW231545   9.200  12.178   8.561 -1.8876  0.9508  0.5225
42330SOL     OW31546   8.324   1.256   2.089 -0.2812  0.0112 -0.2963
42330SOL    HW131547   8.372   1.264   2.172  0.8865  0.9106 -1.0424
42330SOL    HW231548   8.297   1.164   2.087 -0.1535 -0.0778  0.9845
42331SOL     OW31549   6.156   2.008   1.125 -0.0129 -0.3148  0.1003
42331SOL    HW131550   6.236   1.962   1.098  0.3028 -0.3674  1.0555
42331SOL    HW231551   6.127   2.056   1.048  0.6524 -0.7180 -0.4045
42332SOL     OW31552  10.840   8.895  11.293  0.1925 -0.4676 -0.2067
42332SOL    HW131553  10.860   8.836  11.221  1.5632  0.4533 -0.6328
42332SOL    HW231554  10.874   8.850  11.371 -0.8797 -1.2566 -0.1750
42333SOL     OW31555  11.474   5.609  11.249  0.6193  0.2010  0.0019
42333SOL    HW131556  11.523   5.638  11.326  0.6122 -4.2039  2.0021
42333SOL    HW231557  11.382   5.625  11.273  0.6972  2.0410 -0.7371
42334SOL     OW31558   3.725   3.792   1.629 -0.0247 -0.3713 -0.0760
42334SOL    HW131559   3.669   3.847   1.685 -0.2840  2.5363 -2.9063
42334SOL    HW231560   3.669   3.767   1.556  1.3514 -0.6031 -1.0856
42335SOL     OW31561   2.355   1.140   6.638  0.4640  0.1595  0.3861
42335SOL    HW131562   2.388   1.050   6.639  1.2159  0.4301  0.5415
42335SOL    HW231563   2.428   1.193   6.669 -0.5697  0.6517  2.1064
42336SOL     OW31564  10.029   9.405   7.912  0.5965 -0.3732 -0.0083
42336SOL    HW131565  10.083   9.410   7.833  0.2221  1.0121 -0.1966
42336SOL    HW231566  10.067   9.332   7.962  2.8487  0.7165  0.0050
42337SOL     OW31567   9.132   5.234   0.077 -0.2985 -0.1431  0.9793
42337SOL    HW131568   9.066   5.294   0.111 -0.1722  0.5387  0.0417
42337SOL    HW231569   9.201   5.234   0.144  0.8176  2.6380 -0.0433
42338SOL     OW31570  11.293  10.549   2.108  0.1839  0.5196 -0.5111
42338SOL    HW131571  11.389  10.557   2.110  0.1445  1.3880 -1.4898
42338SOL    HW231572  11.275  10.467   2.155  1.3982  0.3910 -0.2357
42339SOL     OW31573   6.066   8.831   7.108  0.1417  0.5508 -0.0354
42339SOL    HW131574   6.106   8.778   7.177 -0.0999  1.0434  0.4904
42339SOL    HW231575   5.999   8.775   7.070 -0.5999  0.7126  0.9895
42340SOL     OW31576  11.634   6.867   8.890 -0.4572 -0.0482 -0.0496
42340SOL    HW131577  11.596   6.819   8.816 -0.1206  0.0865 -0.3121
42340SOL    HW231578  11.717   6.901   8.856 -0.2287 -0.1143  0.4382
42341SOL     OW31579   5.798  11.659   2.279  0.3657 -0.3743 -0.0196
42341SOL    HW131580   5.758  11.661   2.366 -1.1336 -0.9815 -0.6612
42341SOL    HW231581   5.761  11.736   2.235  0.9622 -0.1854 -0.1944
42342SOL     OW31582   6.916   5.571  11.064  0.1596 -0.0320  0.1754
42342SOL    HW131583   6.950   5.508  11.128 -0.6520 -1.0969 -0.3914
42342SOL    HW231584   6.882   5.516  10.993  0.4008  1.1007 -0.8501
42343SOL     OW31585   7.237  11.759  10.356  0.2222 -0.0663 -0.5513
42343SOL    HW131586   7.143  11.741  10.349 -0.1415  1.9652 -1.5005
42343SOL    HW231587   7.269  11.693  10.418 -1.6797 -1.2496 -0.7408
42344SOL     OW31588   1.554   6.734   6.416 -0.1054  0.4181  0.0967
42344SOL    HW131589   1.554   6.766   6.326  1.4115  0.7320  0.1764
42344SOL    HW231590   1.560   6.639   6.407 -0.7132  0.3968 -0.1289
42345SOL     OW31591   3.759   6.515  10.407 -0.2291 -0.6471  0.0762
42345SOL    HW131592   3.745   6.566  10.487  0.8151 -0.5341  0.2060
42345SOL    HW231593   3.854   6.515  10.396 -0.2405 -2.2464 -0.1400
42346SOL     OW31594   4.703   7.998   1.160 -0.1077  0.5772  0.0096
42346SOL    HW131595   4.625   8.030   1.114  0.2504  2.2124  0.4844
42346SOL    HW231596   4.776   8.035   1.111  0.4593 -1.5699 -0.8974
42347SOL     OW31597   4.318  11.774   0.226  0.5229  0.3923 -0.2610
42347SOL    HW131598   4.366  11.758   0.308  1.1463  0.2879 -0.6403
42347SOL    HW231599   4.232  11.805   0.254  0.6633  0.1628  0.4384
42348SOL     OW31600   6.856   0.859  10.866 -0.5700  0.2940  0.2518
42348SOL    HW131601   6.908   0.831  10.942 -1.3478 -1.1869  0.2725
42348SOL    HW231602   6.772   0.887  10.903 -0.3706  1.1506  0.0734
42349SOL     OW31603   2.747   0.127   2.194  0.3033 -0.0782  0.7891
42349SOL    HW131604   2.685   0.056   2.182  0.6256 -0.1125 -1.0028
42349SOL    HW231605   2.779   0.118   2.284 -0.6855 -1.3380  1.0249
42350SOL     OW31606   0.353   7.992   0.108 -0.2083  0.8629 -0.1310
42350SOL    HW131607   0.337   8.074   0.060  1.5684 -0.1509 -2.6969
42350SOL    HW231608   0.437   8.006   0.152  0.3628  0.2880 -1.0071
42351SOL     OW31609   5.397   1.742   1.557  0.7198 -0.4429  0.0529
42351SOL    HW131610   5.434   1.675   1.614 -0.0742 -1.9338 -1.1228
42351SOL    HW231611   5.345   1.797   1.616  1.7085 -0.6091  1.0976
42352SOL     OW31612   9.087   5.385   3.613  0.2866 -0.0273 -0.3003
42352SOL    HW131613   9.081   5.362   3.521  0.5709  0.5398 -0.4593
42352SOL    HW231614   8.997   5.409   3.638 -0.0260 -1.2974 -0.1242
42353SOL     OW31615   2.822   8.649   5.193  0.3732 -0.3681 -0.0587
42353SOL    HW131616   2.844   8.653   5.100  0.6612 -1.8781 -0.0748
42353SOL    HW231617   2.757   8.718   5.205 -1.2445 -1.5012 -1.8153
42354SOL     OW31618   7.195   9.228   9.614 -0.2640 -0.2117 -0.1263
42354SOL    HW131619   7.105   9.258   9.604 -0.4086 -0.6352 -0.1049
42354SOL    HW231620   7.188   9.139   9.649  0.1123 -0.8325 -1.5335
42355SOL     OW31621   5.839   7.421   8.397 -0.4289 -0.7403 -0.3967
42355SOL    HW131622   5.935   7.422   8.391 -0.3301  0.7407  0.7573
42355SOL    HW231623   5.810   7.478   8.327 -0.2497  1.3628  1.1373
42356SOL     OW31624   9.851   0.614  11.536 -0.3647  0.0384 -0.3617
42356SOL    HW131625   9.871   0.548  11.470  0.9565  1.2879 -1.2581
42356SOL    HW231626   9.762   0.644  11.514 -1.2812 -1.9081  0.5043
42357SOL     OW31627   5.126   5.400   6.489  0.0865 -0.3925  0.2379
42357SOL    HW131628   5.097   5.373   6.402 -1.6194 -0.3084  0.7446
42357SOL    HW231629   5.172   5.483   6.474 -1.0287  0.1226 -0.4932
42358SOL     OW31630   2.460  11.042   2.135  0.9253 -0.3418 -0.0992
42358SOL    HW131631   2.457  10.947   2.124  1.0458 -0.3652  0.0574
42358SOL    HW231632   2.533  11.056   2.196  1.5991 -0.0720 -0.9546
42359SOL     OW31633   3.028   7.260   1.744 -0.4002  0.2099 -0.6786
42359SOL    HW131634   3.020   7.308   1.661  0.3135 -0.5786 -1.2229
42359SOL    HW231635   3.081   7.318   1.799  1.4037 -0.3691 -1.7035
42360SOL     OW31636   0.266   1.053   4.528 -0.6243 -0.4116 -0.4361
42360SOL    HW131637   0.354   1.090   4.520 -1.2149  0.9305 -1.2710
42360SOL    HW231638   0.273   0.987   4.596  0.8764  0.1623  0.0081
42361SOL     OW31639   7.764   4.617  10.052  0.0424  0.2307 -0.6404
42361SOL    HW131640   7.857   4.594  10.058  0.0523  0.5682  0.7394
42361SOL    HW231641   7.752   4.685  10.118 -1.0824  0.5674 -1.1748
42362SOL     OW31642   5.019  10.872   6.892  0.2944 -0.0255 -0.3737
42362SOL    HW131643   4.952  10.835   6.834  2.0507 -2.6100 -0.9479
42362SOL    HW231644   5.060  10.942   6.840  1.3278 -1.7893 -2.0844
42363SOL     OW31645  10.783   7.734  11.318  0.2051  0.1886  0.2353
42363SOL    HW131646  10.857   7.706  11.265  0.1329 -0.1152  0.2885
42363SOL    HW231647  10.787   7.678  11.396 -0.8632 -0.7876 -0.3761
42364SOL     OW31648   4.247   4.862   4.298  0.3694 -0.2903 -0.0886
42364SOL    HW131649   4.222   4.952   4.279  0.9024 -0.0418  0.3671
42364SOL    HW231650   4.206   4.841   4.381 -1.1589 -1.0575 -0.9837
42365SOL     OW31651   8.191   3.236  11.767  0.2197 -0.7747  0.3781
42365SOL    HW131652   8.209   3.232  11.861 -0.7036 -0.5295  0.5731
42365SOL    HW231653   8.277   3.228  11.725  0.6464 -0.7497  1.2442
42366SOL     OW31654   5.966   8.611   6.727 -0.4080 -0.2929 -0.5987
42366SOL    HW131655   5.990   8.606   6.820 -0.0809 -1.0738 -0.7148
42366SOL    HW231656   5.870   8.622   6.728 -0.4063 -0.2831 -0.1717
42367SOL     OW31657   7.684   7.280   2.804 -0.1339  0.0196  0.3906
42367SOL    HW131658   7.686   7.346   2.735  0.1480  0.1035  0.4752
42367SOL    HW231659   7.679   7.196   2.758 -0.9137  0.1187  0.2924
42368SOL     OW31660   0.338   4.942   4.685  0.5388 -0.3696  0.3355
42368SOL    HW131661   0.301   4.905   4.604 -0.6340 -0.0128  0.6831
42368SOL    HW231662   0.411   4.885   4.707 -0.2473 -1.5318 -0.0038
42369SOL     OW31663  12.037  10.692   2.833 -0.1318 -0.3636  0.3289
42369SOL    HW131664  11.946  10.676   2.809 -0.2547  1.6910 -0.7064
42369SOL    HW231665  12.076  10.734   2.757  1.6607 -0.9902  0.8346
42370SOL     OW31666   2.995   1.646   6.885  0.3081 -0.3765 -0.0674
42370SOL    HW131667   2.998   1.679   6.796 -0.0144 -0.8898 -0.2732
42370SOL    HW231668   2.919   1.689   6.924 -0.3894 -1.2019 -0.4774
42371SOL     OW31669   5.801   9.682   0.686  0.0873 -0.2136 -0.2289
42371SOL    HW131670   5.739   9.689   0.613  0.7857  2.3686 -0.6504
42371SOL    HW231671   5.745   9.681   0.764 -0.5416  0.4043 -0.6610
42372SOL     OW31672  11.352   6.521   5.077 -0.4351  0.1663 -0.5523
42372SOL    HW131673  11.435   6.546   5.037  0.9631 -1.1796  1.3235
42372SOL    HW231674  11.363   6.428   5.099 -2.4052 -0.0167 -0.1510
42373SOL     OW31675   3.289  10.251   8.863 -0.1584 -0.1833 -0.0796
42373SOL    HW131676   3.358  10.200   8.821  0.4461  0.3939  0.1888
42373SOL    HW231677   3.308  10.246   8.956 -2.1195 -2.3744  0.3101
42374SOL     OW31678   4.282   1.627   1.871  0.3165 -0.2920 -0.2825
42374SOL    HW131679   4.286   1.540   1.911 -1.7263 -0.5595 -0.5683
42374SOL    HW231680   4.254   1.610   1.781  1.4059  0.5761 -0.8090
42375SOL     OW31681   0.336   9.912   7.136 -0.2170  0.2812 -0.2020
42375SOL    HW131682   0.357   9.821   7.114  0.0170  0.4411 -0.6700
42375SOL    HW231683   0.404   9.963   7.091 -0.4482  0.6977 -0.0836
42376SOL     OW31684  11.175   7.263   2.812 -0.3471  0.8167 -0.2986
42376SOL    HW131685  11.196   7.253   2.719  0.3363 -1.2968  0.0295
42376SOL    HW231686  11.081   7.281   2.813 -1.0687 -2.3264 -1.3375
42377SOL     OW31687  10.515  11.725   2.656  0.1587  0.5136  0.5189
42377SOL    HW131688  10.487  11.811   2.687 -0.1677  0.4868  0.3036
42377SOL    HW231689  10.609  11.734   2.641  0.4364  0.3537  2.0773
42378SOL     OW31690  10.068   3.929  10.273  0.4371  0.6381  0.2616
42378SOL    HW131691   9.989   3.875  10.279 -0.1534  1.3435 -0.8470
42378SOL    HW231692  10.128   3.877  10.220  0.9883 -0.1882  1.6570
42379SOL     OW31693   5.355  11.321   7.852  0.3686  0.2556 -0.2373
42379SOL    HW131694   5.329  11.371   7.930  2.3204  1.4789 -0.2815
42379SOL    HW231695   5.437  11.362   7.824  1.8363 -2.6330 -0.6223
42380SOL     OW31696   0.776   1.946   2.407  0.4475 -0.1018 -0.1260
42380SOL    HW131697   0.865   1.912   2.419  1.8309  3.0255 -0.5792
42380SOL    HW231698   0.722   1.868   2.398  3.0230 -2.1526  0.8440
42381SOL     OW31699   6.283   4.854  11.573 -0.0084  0.4903 -0.4130
42381SOL    HW131700   6.258   4.770  11.611 -2.1579  1.0539 -0.4195
42381SOL    HW231701   6.261   4.918  11.641  1.7890  1.0842 -0.3251
42382SOL     OW31702  10.843   2.901   5.688  0.3423  0.2728 -0.1715
42382SOL    HW131703  10.793   2.981   5.674  1.0848  0.8052  0.1512
42382SOL    HW231704  10.921   2.930   5.734  0.9085 -0.5609 -0.5924
42383SOL     OW31705   0.072   1.594   0.636 -0.1529  0.7764 -0.3712
42383SOL    HW131706  -0.020   1.622   0.634 -0.5405 -0.1548  1.6881
42383SOL    HW231707   0.069   1.507   0.676  1.5727  0.3900 -1.0285
42384SOL     OW31708   1.625   9.068   8.233 -0.4461 -0.2610 -0.3239
42384SOL    HW131709   1.685   9.105   8.297  1.0035  0.3931 -1.9739
42384SOL    HW231710   1.572   9.006   8.283  1.5832 -0.8551  1.2340
42385SOL     OW31711   9.504  11.402   0.228 -0.1263 -0.2591 -0.4706
42385SOL    HW131712   9.545  11.320   0.200  0.1141 -0.5113  0.5865
42385SOL    HW231713   9.476  11.385   0.318 -1.0219  0.4803 -0.6040
42386SOL     OW31714   9.632   2.500   4.215 -0.2404  0.1681  0.2461
42386SOL    HW131715   9.662   2.478   4.126  2.3419 -0.3596  1.1618
42386SOL    HW231716   9.608   2.592   4.209  1.1941  0.5277 -0.7436
42387SOL     OW31717   2.641   3.555   8.608  0.3098  0.4743  0.2814
42387SOL    HW131718   2.597   3.566   8.524 -2.4812  0.8202  1.6462
42387SOL    HW231719   2.574   3.516   8.665  2.0952  0.2101  2.3270
42388SOL     OW31720  11.822   2.140   5.920 -0.1830  0.0675 -0.0947
42388SOL    HW131721  11.817   2.049   5.949  3.4477 -0.3061 -0.1904
42388SOL    HW231722  11.840   2.134   5.826 -0.5404  0.9154 -0.2302
42389SOL     OW31723   6.292   0.463  11.971  0.0438 -0.3919  0.0815
42389SOL    HW131724   6.288   0.465  11.875  0.2361 -0.1208  0.0751
42389SOL    HW231725   6.254   0.546  11.998  1.8662  0.4850  0.1503
42390SOL     OW31726   4.281   3.183   7.453 -0.3110 -0.1134 -0.4181
42390SOL    HW131727   4.368   3.222   7.466 -1.0259  1.4165 -0.0760
42390SOL    HW231728   4.273   3.119   7.524  0.1294  0.5041  0.2127
42391SOL     OW31729   6.495   0.500   1.072  0.1602 -0.0616  0.2794
42391SOL    HW131730   6.536   0.463   1.149 -3.4449 -1.5871  1.6918
42391SOL    HW231731   6.500   0.431   1.006 -2.2216 -1.3323  1.3110
42392SOL     OW31732  10.937  11.336   2.745 -0.1752  0.0682 -0.0213
42392SOL    HW131733  10.947  11.423   2.706 -1.7125 -0.0874 -0.8249
42392SOL    HW231734  10.987  11.278   2.688 -1.4894  0.0146 -1.1669
42393SOL     OW31735   9.551   4.350   4.475  0.1943 -0.5928  0.1848
42393SOL    HW131736   9.576   4.433   4.515  0.3137 -0.9704  0.9184
42393SOL    HW231737   9.469   4.326   4.519  1.4755 -2.1181  1.9025
42394SOL     OW31738   7.856   1.285   2.824  0.4667 -0.4545  0.7420
42394SOL    HW131739   7.895   1.211   2.777 -0.3375 -1.4595  1.5955
42394SOL    HW231740   7.794   1.323   2.761 -0.5295 -1.7257  0.8961
42395SOL     OW31741   7.000   1.790  11.264 -0.0647 -0.5136  0.2879
42395SOL    HW131742   7.073   1.797  11.202  0.3965 -0.6659  0.8026
42395SOL    HW231743   6.983   1.696  11.270 -1.3261 -0.4067 -0.9791
42396SOL     OW31744   5.461   6.411   9.406 -0.2895 -0.4289 -0.0067
42396SOL    HW131745   5.479   6.327   9.365 -0.4811  0.2858 -1.6812
42396SOL    HW231746   5.379   6.440   9.366  0.0435  0.7772  0.1218
42397SOL     OW31747   1.271  11.004  10.900  0.2885  0.1927  0.0145
42397SOL    HW131748   1.226  10.979  10.820  1.0368 -2.6967  0.3845
42397SOL    HW231749   1.330  11.075  10.873 -0.0701 -0.1442 -1.7894
42398SOL     OW31750   8.528   0.165   7.143  0.0988 -0.8517  0.3861
42398SOL    HW131751   8.538   0.072   7.166 -0.6526 -0.5168  2.2075
42398SOL    HW231752   8.582   0.212   7.207  1.0172 -0.0323 -0.9373
42399SOL     OW31753   2.797   1.086   4.321 -0.0523  0.5290  0.7979
42399SOL    HW131754   2.768   1.093   4.230  1.7951  0.6628  0.1817
42399SOL    HW231755   2.780   0.995   4.345 -0.1163  0.3638  0.1509
42400SOL     OW31756   0.438   3.856   0.592 -0.0657  0.4369  0.8044
42400SOL    HW131757   0.412   3.929   0.536 -0.3786  0.8936  1.5419
42400SOL    HW231758   0.391   3.781   0.555  3.8949 -0.5453 -3.0467
42401SOL     OW31759   2.984   8.358   4.184 -0.2083 -0.5618 -0.2464
42401SOL    HW131760   2.965   8.394   4.098  1.2718 -1.5029 -1.0104
42401SOL    HW231761   2.899   8.332   4.219 -0.8424 -0.0318 -1.3585
42402SOL     OW31762   3.026   7.710   3.802 -0.1713 -0.1508  0.5223
42402SOL    HW131763   3.034   7.620   3.770 -1.6763  0.0117 -0.4151
42402SOL    HW231764   2.947   7.708   3.857 -0.4043  0.6741  0.2249
42403SOL     OW31765   1.715   8.784  10.927 -0.5928  0.4161 -0.1755
42403SOL    HW131766   1.739   8.745  10.843  0.1903  0.6397 -0.0687
42403SOL    HW231767   1.795   8.827  10.957 -1.7689  3.4086 -0.9909
42404SOL     OW31768   7.425   2.834   2.465  0.2612 -0.1655 -0.5518
42404SOL    HW131769   7.418   2.834   2.369  0.0494  0.6598 -0.5377
42404SOL    HW231770   7.335   2.835   2.496  0.2890 -1.6749 -0.3174
42405SOL     OW31771   2.173   2.016   3.791  0.3477  0.4528  0.0783
42405SOL    HW131772   2.267   2.005   3.775 -0.2035 -1.5226 -2.3208
42405SOL    HW231773   2.144   2.074   3.721 -0.6086 -1.0434 -0.8176
42406SOL     OW31774   7.931   4.928   7.706  0.1298 -0.2242  0.1097
42406SOL    HW131775   7.974   4.931   7.791  0.5554  0.6870 -0.1302
42406SOL    HW231776   7.926   5.019   7.678 -0.5731 -0.4564 -0.5623
42407SOL     OW31777   0.037   4.460   7.757  0.1331 -0.7001 -0.4932
42407SOL    HW131778   0.109   4.404   7.728 -0.5557 -1.5513 -0.5727
42407SOL    HW231779  -0.013   4.478   7.678 -1.0878 -2.0736 -0.0655
42408SOL     OW31780   0.521   7.687   7.547 -0.2896 -0.0807 -0.0905
42408SOL    HW131781   0.443   7.674   7.494 -0.6418  0.8298  0.1779
42408SOL    HW231782   0.492   7.669   7.637  0.4298 -2.1365 -0.2121
42409SOL     OW31783  11.615   1.267   1.939 -0.3742 -0.1255 -0.1649
42409SOL    HW131784  11.537   1.301   1.895  0.3209  0.7623 -0.7284
42409SOL    HW231785  11.598   1.173   1.946 -0.5419 -0.3076 -2.2843
42410SOL     OW31786   2.603   2.642   9.475 -0.4983  0.6455 -0.5264
42410SOL    HW131787   2.673   2.702   9.498  1.3972 -1.3504 -0.8166
42410SOL    HW231788   2.553   2.631   9.556 -0.0316  1.4752 -0.1138
42411SOL     OW31789   6.225   0.455   7.248  0.4022  0.3337  0.0566
42411SOL    HW131790   6.195   0.398   7.177 -1.3257  2.9569 -1.4656
42411SOL    HW231791   6.319   0.437   7.254  0.5448 -0.2642 -2.6564
42412SOL     OW31792  11.772  10.136  11.247 -0.3138 -0.6321  0.1390
42412SOL    HW131793  11.826  10.059  11.229  1.1447 -0.0555  1.7644
42412SOL    HW231794  11.775  10.145  11.342 -1.6168  0.6277  0.0881
42413SOL     OW31795   8.348   4.950   3.056  0.1267 -0.0659 -0.4922
42413SOL    HW131796   8.347   4.904   2.972  2.2941 -0.8185 -0.1696
42413SOL    HW231797   8.296   4.894   3.114 -2.4881  1.0982 -1.5507
42414SOL     OW31798   7.333   4.075   0.484 -0.0168 -0.1604 -0.2183
42414SOL    HW131799   7.415   4.083   0.532  0.6564  0.8521 -1.4893
42414SOL    HW231800   7.346   4.000   0.425  0.6296  0.9640 -1.5591
42415SOL     OW31801   6.128   7.911   0.439 -0.2780  0.2576  0.6340
42415SOL    HW131802   6.167   7.844   0.382 -1.3806 -2.3640  2.7500
42415SOL    HW231803   6.188   7.917   0.513  0.9743  3.3915 -0.4636
42416SOL     OW31804   0.992   7.691   2.150  0.3210  0.1891 -0.6127
42416SOL    HW131805   0.955   7.773   2.117  1.1035  1.5374  1.5783
42416SOL    HW231806   1.032   7.650   2.073 -0.7768  1.4564 -1.9214
42417SOL     OW31807   8.249   7.321   9.867 -0.0548 -0.0045  0.7231
42417SOL    HW131808   8.161   7.354   9.853 -0.2442 -1.3737 -1.8871
42417SOL    HW231809   8.248   7.233   9.831  2.2509 -0.2529  1.1106
42418SOL     OW31810   1.106   6.511   2.626  0.1054  0.0832 -0.1526
42418SOL    HW131811   1.044   6.584   2.624 -0.2761 -0.2121  0.6058
42418SOL    HW231812   1.102   6.478   2.715  1.2275 -0.0661 -0.1415
42419SOL     OW31813   2.944  11.324   3.877  0.3523 -0.1902 -0.2045
42419SOL    HW131814   3.017  11.362   3.925  0.5132  0.5906 -1.0492
42419SOL    HW231815   2.883  11.396   3.863  0.6235 -0.2191 -1.7598
42420SOL     OW31816   5.186  12.051   1.077 -0.1944  0.1165  0.2976
42420SOL    HW131817   5.226  12.049   1.164 -0.4434 -0.6273  0.4013
42420SOL    HW231818   5.250  12.095   1.022  0.3809 -0.2719  0.6510
42421SOL     OW31819  11.335  11.243   7.259  0.0240  0.1142 -0.0347
42421SOL    HW131820  11.418  11.259   7.214  0.8185  0.3784  1.4483
42421SOL    HW231821  11.359  11.234   7.351 -1.7032  1.0486  0.5539
42422SOL     OW31822   7.345   2.595   3.853  0.4754  0.1696 -0.5607
42422SOL    HW131823   7.272   2.634   3.804  0.3834  3.0355  1.6144
42422SOL    HW231824   7.303   2.534   3.913 -0.3440  2.2854  1.1433
42423SOL     OW31825   7.724   8.865   0.902  0.5145  0.0959 -0.2081
42423SOL    HW131826   7.728   8.872   0.806  1.5905 -0.5910 -0.2259
42423SOL    HW231827   7.815   8.854   0.929  0.2131  0.2596  0.8968
42424SOL     OW31828   7.596   3.043   1.628  1.2269  0.7669 -0.0701
42424SOL    HW131829   7.533   3.101   1.585 -1.4154 -0.4448  1.9197
42424SOL    HW231830   7.605   2.968   1.569  0.4734  0.7746 -0.1992
42425SOL     OW31831  11.360   6.688   9.439  0.2002  0.1798  0.3038
42425SOL    HW131832  11.408   6.757   9.484 -0.3541 -0.5543  2.1254
42425SOL    HW231833  11.270   6.698   9.468 -0.1843 -0.3512 -0.6428
42426SOL     OW31834   4.271   9.842   8.804 -0.2843 -0.1457 -0.0151
42426SOL    HW131835   4.340   9.812   8.746 -1.1717 -1.2495 -0.5381
42426SOL    HW231836   4.296   9.809   8.890  0.7660  1.0499  0.1665
42427SOL     OW31837   3.701   4.100   3.679  0.5732 -0.2060 -0.1688
42427SOL    HW131838   3.793   4.118   3.660  1.0940 -3.0268 -0.8525
42427SOL    HW231839   3.657   4.184   3.668  2.9613  1.1140 -0.3804
42428SOL     OW31840   7.681   0.086   7.475 -0.5671 -0.1874  0.7135
42428SOL    HW131841   7.775   0.073   7.481 -0.5720 -0.5960 -0.0893
42428SOL    HW231842   7.668   0.139   7.397 -0.7781  2.3958  2.3800
42429SOL     OW31843  10.510   5.867   4.022 -0.0270 -0.3519 -0.4233
42429SOL    HW131844  10.478   5.831   4.105  2.0194 -0.9339  0.1871
42429SOL    HW231845  10.573   5.935   4.049 -2.0896  2.1645 -1.5397
42430SOL     OW31846   6.385   7.738   0.787  0.5960 -0.4685 -0.0694
42430SOL    HW131847   6.369   7.649   0.755  2.0855 -0.7628 -0.1106
42430SOL    HW231848   6.353   7.737   0.877  0.4464 -1.0032 -0.1235
42431SOL     OW31849   2.129  10.161   5.274  0.4162  0.0464  0.3363
42431SOL    HW131850   2.073  10.178   5.349 -0.7046  0.2422 -0.5254
42431SOL    HW231851   2.194  10.099   5.307 -0.7274 -0.7539  1.1749
42432SOL     OW31852   7.913   1.476  11.671 -0.2870 -0.5808 -0.2065
42432SOL    HW131853   7.925   1.430  11.587  0.6913  0.6945 -0.8059
42432SOL    HW231854   7.976   1.548  11.668 -1.4016  0.4993  0.9183
42433SOL     OW31855   3.760   1.856   4.951 -0.0683  0.3548 -0.4177
42433SOL    HW131856   3.696   1.837   4.883  0.2351 -0.5795 -0.4517
42433SOL    HW231857   3.839   1.809   4.924 -0.5221 -1.7046  1.5449
42434SOL     OW31858   9.402   0.725   1.845 -0.4387 -0.8711 -0.1588
42434SOL    HW131859   9.470   0.731   1.779 -0.7788 -1.4400 -0.5680
42434SOL    HW231860   9.443   0.756   1.926 -0.1295  0.1972 -0.7077
42435SOL     OW31861   6.350   4.973   7.940 -0.4677 -0.0203  0.7449
42435SOL    HW131862   6.408   5.002   7.869  1.5072 -0.6201  2.0362
42435SOL    HW231863   6.263   5.005   7.914  0.1306 -0.3441 -2.0063
42436SOL     OW31864   5.200   3.276   5.652 -0.3187  0.2444 -0.0084
42436SOL    HW131865   5.124   3.307   5.701 -0.3332  0.2583 -0.0396
42436SOL    HW231866   5.223   3.193   5.694  1.3599  1.5465  1.8027
42437SOL     OW31867   3.859   2.036   3.400 -0.5199 -0.3454  0.4374
42437SOL    HW131868   3.827   1.946   3.401 -0.4957 -0.3668 -0.3915
42437SOL    HW231869   3.953   2.027   3.419 -0.5894 -0.4611  0.7334
42438SOL     OW31870   5.125   8.049   1.366 -0.0539 -0.2606 -0.2353
42438SOL    HW131871   5.033   8.030   1.384 -0.0433 -0.8887 -0.7975
42438SOL    HW231872   5.122   8.109   1.292 -0.0270  0.2718  0.1926
42439SOL     OW31873   1.010  11.693   6.373 -0.3900 -0.1459 -0.2151
42439SOL    HW131874   1.051  11.779   6.383  2.5999 -1.4103 -0.4966
42439SOL    HW231875   1.021  11.651   6.458  2.3541 -1.7956 -1.2432
42440SOL     OW31876  11.897   6.574  11.823  0.5064  0.0448 -0.0514
42440SOL    HW131877  11.931   6.632  11.756 -2.8473  1.6972 -0.5362
42440SOL    HW231878  11.892   6.628  11.902  0.8013 -0.7429  0.5264
42441SOL     OW31879   9.360  11.635   9.099  0.5365  0.1147 -0.0507
42441SOL    HW131880   9.343  11.590   9.181  0.9822  1.3565  0.7494
42441SOL    HW231881   9.453  11.659   9.103  1.2850 -2.0450 -2.0702
42442SOL     OW31882  10.125   1.089   6.583 -0.0900  0.6283 -0.2247
42442SOL    HW131883  10.081   1.074   6.499  1.0009  0.0480 -0.7066
42442SOL    HW231884  10.215   1.110   6.560  0.8281 -1.7639  0.8460
42443SOL     OW31885   1.421   9.160   9.955 -0.2204  0.3362 -0.1129
42443SOL    HW131886   1.383   9.179   9.869 -1.0093 -0.4248  0.0519
42443SOL    HW231887   1.346   9.146  10.012  0.2480 -2.0128  0.0436
42444SOL     OW31888   1.818   5.556   6.931  0.4289 -0.2997  0.1053
42444SOL    HW131889   1.736   5.506   6.924  0.4407 -0.3149  0.0789
42444SOL    HW231890   1.790   5.644   6.958  0.4869 -0.5929  1.1542
42445SOL     OW31891   0.706   6.763   1.207  0.2665 -0.5415 -0.4995
42445SOL    HW131892   0.790   6.718   1.215  0.4545 -0.0475  0.4349
42445SOL    HW231893   0.651   6.702   1.158  0.4594 -1.8933  0.8782
42446SOL     OW31894   8.588   2.181   0.469 -0.8010 -0.1942  0.0498
42446SOL    HW131895   8.670   2.203   0.514 -0.2679 -0.7972 -0.6067
42446SOL    HW231896   8.541   2.126   0.532  0.7896 -2.6732 -0.7658
42447SOL     OW31897   8.763   4.421   1.063  0.0967  0.0998 -0.0403
42447SOL    HW131898   8.823   4.373   1.120 -0.6253 -0.6254  0.1277
42447SOL    HW231899   8.767   4.511   1.094  0.8717  0.0104  0.1525
42448SOL     OW31900   3.074   2.578  11.685 -0.0424 -0.3132 -0.3688
42448SOL    HW131901   3.091   2.611  11.773 -0.3708  0.0170 -0.4237
42448SOL    HW231902   3.023   2.498  11.699 -1.2168  0.4313 -0.2814
42449SOL     OW31903  10.257   8.975   8.215 -0.0278 -0.0416  0.1997
42449SOL    HW131904  10.342   8.993   8.256  0.6916 -0.5649 -1.0043
42449SOL    HW231905  10.272   8.988   8.121 -1.5326  0.7677  0.0269
42450SOL     OW31906   3.271   1.338   3.672  0.0138  0.1674  0.3024
42450SOL    HW131907   3.301   1.367   3.758 -0.1105  0.6824  0.1753
42450SOL    HW231908   3.235   1.417   3.631 -0.6385 -0.2398  0.0835
42451SOL     OW31909   7.042   3.333   2.170 -0.1475 -0.1303 -0.1036
42451SOL    HW131910   7.043   3.413   2.222 -0.1603 -0.3068  0.1724
42451SOL    HW231911   6.955   3.332   2.129 -0.0807  0.0869 -0.2513
42452SOL     OW31912  10.511   3.770   1.528 -0.4590  0.0391 -0.6409
42452SOL    HW131913  10.465   3.853   1.516  0.7206  0.6780 -1.0063
42452SOL    HW231914  10.556   3.755   1.445  2.6103  1.1726  0.6589
42453SOL     OW31915   9.923   9.381  10.343 -0.5443  0.3351 -0.0093
42453SOL    HW131916   9.924   9.432  10.424  2.9880 -1.7047  1.4842
42453SOL    HW231917  10.015   9.354  10.331 -1.3476 -1.4656 -3.4102
42454SOL     OW31918   4.299  10.514   7.629  0.3931  0.3186 -0.0923
42454SOL    HW131919   4.326  10.575   7.698  0.6259 -0.4682  0.5276
42454SOL    HW231920   4.271  10.570   7.557  0.9770  1.1546  0.3160
42455SOL     OW31921   6.194   6.871   8.169  0.1646  0.1447 -0.1820
42455SOL    HW131922   6.228   6.906   8.251  1.2238  1.9171 -1.3120
42455SOL    HW231923   6.127   6.934   8.142  0.5571  0.1463 -1.1938
42456SOL     OW31924   7.858   1.611   0.908 -0.0360  0.3387 -0.1489
42456SOL    HW131925   7.870   1.616   1.003  1.4503 -0.5001 -0.2595
42456SOL    HW231926   7.845   1.518   0.890  0.4237  0.4009 -0.8320
42457SOL     OW31927   4.983   8.927   8.471  0.0536  0.1240  0.2611
42457SOL    HW131928   5.071   8.916   8.437 -0.1551  1.2190 -0.7093
42457SOL    HW231929   4.954   8.839   8.493  1.7921 -0.1513  1.6986
42458SOL     OW31930   9.078   3.388   1.012  0.1678  0.0857 -0.7086
42458SOL    HW131931   9.094   3.462   1.071  0.7623 -0.3009 -0.3681
42458SOL    HW231932   9.154   3.332   1.024 -0.6963 -1.0300 -0.2649
42459SOL     OW31933   7.089   9.066   0.102  0.1515 -0.3277  0.0213
42459SOL    HW131934   7.011   9.091   0.052 -0.0392  0.6246  0.7761
42459SOL    HW231935   7.073   9.098   0.191 -0.2730 -3.4510  1.2019
42460SOL     OW31936   4.395   2.350   0.057  0.0407  0.3497  0.1964
42460SOL    HW131937   4.377   2.384   0.144 -1.5787 -1.3882  0.6121
42460SOL    HW231938   4.408   2.427   0.002  3.0291  1.5111  2.2732
42461SOL     OW31939   3.478   2.062   2.914 -0.1870  0.0851  0.4883
42461SOL    HW131940   3.549   1.998   2.909 -0.7512 -0.4874 -0.5758
42461SOL    HW231941   3.522   2.146   2.926  0.8351  0.0222 -2.1626
42462SOL     OW31942   0.998   6.398   5.351  0.3771 -0.6795 -0.2243
42462SOL    HW131943   0.924   6.371   5.297  1.2449 -0.9842 -1.3161
42462SOL    HW231944   1.075   6.363   5.305  1.2090 -0.1793  0.7472
42463SOL     OW31945  10.410   9.564   4.244 -0.4678  0.2447 -0.4806
42463SOL    HW131946  10.363   9.509   4.308  0.4252  0.8338  0.7178
42463SOL    HW231947  10.493   9.519   4.230 -0.7802 -0.0452 -1.5089
42464SOL     OW31948   5.697   4.979   5.945  0.6620 -0.3004 -0.3491
42464SOL    HW131949   5.692   5.032   6.024  0.1918 -1.5058  0.4501
42464SOL    HW231950   5.776   5.011   5.900  0.7194  0.6543  0.4089
42465SOL     OW31951   2.971   9.403   6.245  0.7362 -0.0534 -0.3929
42465SOL    HW131952   3.012   9.488   6.231  1.3334 -0.3078 -0.2464
42465SOL    HW231953   2.972   9.391   6.340  0.8099 -0.2944 -0.4231
42466SOL     OW31954   3.255   0.438   1.168 -0.3761  0.2654 -0.0339
42466SOL    HW131955   3.230   0.436   1.260  2.1304 -0.9617  0.7269
42466SOL    HW231956   3.341   0.395   1.166 -0.1786  0.6029 -2.8966
42467SOL     OW31957   7.889   3.422   9.858 -0.1554  0.0329 -0.1293
42467SOL    HW131958   7.928   3.350   9.907  0.7172  1.3595  1.1891
42467SOL    HW231959   7.824   3.460   9.917  1.1851  1.9039  0.2393
42468SOL     OW31960   9.306   4.397  10.289 -0.1260 -0.2861  0.4800
42468SOL    HW131961   9.336   4.351  10.367 -1.6298 -0.3833  1.0249
42468SOL    HW231962   9.211   4.400  10.297 -0.1367  2.7566  0.3592
42469SOL     OW31963   7.717   5.506   4.313 -0.1310 -0.6256  0.4814
42469SOL    HW131964   7.791   5.477   4.366  0.1968 -2.0926 -0.7060
42469SOL    HW231965   7.660   5.429   4.307 -0.1113 -0.5600 -1.3221
42470SOL     OW31966   4.483   1.196   3.710  0.6572  0.4881 -0.0024
42470SOL    HW131967   4.539   1.127   3.675  0.5234  0.8735 -1.0015
42470SOL    HW231968   4.521   1.216   3.796  0.1765 -1.4398  0.7340
42471SOL     OW31969  10.283   1.301   4.064 -0.2620 -0.0613 -0.0987
42471SOL    HW131970  10.317   1.386   4.092 -0.9880  0.0104  0.5892
42471SOL    HW231971  10.222   1.323   3.993  0.5007 -0.1242 -0.7882
42472SOL     OW31972   2.407  10.534   9.786  0.0004  0.1062  0.0486
42472SOL    HW131973   2.437  10.525   9.695  1.2362 -1.5084  0.5627
42472SOL    HW231974   2.487  10.552   9.836 -0.5795  0.4164  0.8874
42473SOL     OW31975   6.320   3.957   5.980  0.2514  0.3913  0.7551
42473SOL    HW131976   6.312   3.935   6.073 -0.0127  2.8316  1.3704
42473SOL    HW231977   6.241   4.008   5.961  1.8908  2.8336  0.1180
42474SOL     OW31978   2.707   2.052  10.949  0.3900  0.5409 -0.4972
42474SOL    HW131979   2.740   2.045  10.860 -0.4686  3.6490 -1.1751
42474SOL    HW231980   2.612   2.060  10.939  0.2306  0.3764  0.7373
42475SOL     OW31981  11.006   2.880   9.931  0.6121 -0.1644 -0.3130
42475SOL    HW131982  11.014   2.970   9.900 -0.8287  0.1004  0.0151
42475SOL    HW231983  10.933   2.844   9.881 -1.4217  0.0965  2.2779
42476SOL     OW31984  10.312   3.049   2.564  0.0360 -0.0468 -0.3561
42476SOL    HW131985  10.360   3.059   2.646  2.6695 -0.6029 -1.7111
42476SOL    HW231986  10.302   2.954   2.554 -0.6453  0.0342 -0.5028
42477SOL     OW31987   8.062  11.394   0.498 -0.0833  0.2718  0.2562
42477SOL    HW131988   8.130  11.365   0.438  0.5409  1.3960  0.3885
42477SOL    HW231989   8.104  11.462   0.550 -0.8293 -0.1771  1.4761
42478SOL     OW31990  11.722  10.150   7.897  0.1023  0.7524 -0.1910
42478SOL    HW131991  11.673  10.132   7.816 -1.0185 -0.2174  0.6815
42478SOL    HW231992  11.695  10.082   7.958  0.0757  2.1218  1.3851
42479SOL     OW31993   2.619   8.895   0.719 -0.3273 -0.5788  0.0241
42479SOL    HW131994   2.587   8.964   0.660  1.0747 -1.3224 -1.6928
42479SOL    HW231995   2.547   8.833   0.725 -1.0381  0.2472  0.3502
42480SOL     OW31996   9.785   3.497   3.203  0.3212 -0.4756  0.7025
42480SOL    HW131997   9.812   3.588   3.190 -0.5825 -0.1847  0.7740
42480SOL    HW231998   9.780   3.461   3.115 -0.9773  0.0500  0.5463
42481SOL     OW31999   8.122   5.444   4.887 -0.1526  0.4742  0.3222
42481SOL    HW132000   8.075   5.407   4.812 -0.7440 -1.0322  1.3769
42481SOL    HW232001   8.196   5.491   4.849 -1.5737  1.5014 -1.3069
42482SOL     OW32002   7.357   5.437   3.921 -0.3417 -0.2175  0.6424
42482SOL    HW132003   7.377   5.359   3.972  3.5907 -1.3065 -2.0463
42482SOL    HW232004   7.292   5.408   3.857  1.0559 -1.3957 -0.3058
42483SOL     OW32005   4.816   9.985   3.597  0.1140  0.2197  0.1454
42483SOL    HW132006   4.771   9.947   3.672  0.7518 -0.5385  0.1538
42483SOL    HW232007   4.800  10.079   3.605  0.4177  0.1812  1.3937
42484SOL     OW32008   2.037   2.898   0.363 -0.2841 -0.2517 -0.1918
42484SOL    HW132009   2.037   2.819   0.416  0.6759  0.1776  0.4906
42484SOL    HW232010   2.125   2.935   0.375 -1.2371  1.8359  0.9155
42485SOL     OW32011   6.471  11.406   0.433  0.0015 -0.4826 -0.1198
42485SOL    HW132012   6.481  11.324   0.384 -0.1255 -0.6606  0.1494
42485SOL    HW232013   6.560  11.426   0.463 -0.2309 -1.4879  1.3467
42486SOL     OW32014   6.819  12.105   3.412 -0.0628 -0.0708 -0.2517
42486SOL    HW132015   6.833  12.010   3.405  0.1441 -0.0275 -0.4487
42486SOL    HW232016   6.768  12.127   3.334 -0.5361 -0.0963  0.0457
42487SOL     OW32017   4.513   3.862   9.446  0.3012 -0.0303  0.2611
42487SOL    HW132018   4.494   3.890   9.535 -0.6677  1.4550 -0.3640
42487SOL    HW232019   4.428   3.835   9.410  0.6444 -0.4402 -0.2574
42488SOL     OW32020   7.527   2.809   2.716 -0.2219 -0.2549  0.4701
42488SOL    HW132021   7.617   2.780   2.702  0.4189  1.6082  0.5764
42488SOL    HW232022   7.492   2.821   2.627 -0.1740 -0.3424  0.4384
42489SOL     OW32023   3.270   7.521   7.247  0.2587 -0.2477 -0.2425
42489SOL    HW132024   3.363   7.508   7.266 -0.1646 -1.6812  1.1470
42489SOL    HW232025   3.226   7.498   7.330 -1.2022  2.9730  0.0036
42490SOL     OW32026   8.233   1.391   5.970 -0.0589 -0.8104  0.8514
42490SOL    HW132027   8.267   1.429   5.889 -2.1258  2.7700  1.4802
42490SOL    HW232028   8.309   1.388   6.029  0.6165  0.4681  0.0830
42491SOL     OW32029   7.489   8.526   9.751 -0.5040  0.3881  0.0716
42491SOL    HW132030   7.574   8.558   9.780  0.5010 -0.4541 -1.7861
42491SOL    HW232031   7.458   8.470   9.823  1.1586 -0.4070  0.1977
42492SOL     OW32032  10.443   0.889   0.715  0.6871 -0.2119 -0.3870
42492SOL    HW132033  10.482   0.924   0.795  1.9451  0.6810 -1.3518
42492SOL    HW232034  10.505   0.913   0.646  0.0740 -1.7291 -1.5169
42493SOL     OW32035   3.301  10.630   9.746  0.0359 -0.4828 -0.4211
42493SOL    HW132036   3.295  10.558   9.809 -0.0972 -0.8391 -0.8330
42493SOL    HW232037   3.248  10.601   9.672  1.4974 -0.7898 -1.3929
42494SOL     OW32038   4.447   1.493   5.330  0.0990 -0.6972  0.3453
42494SOL    HW132039   4.447   1.400   5.306  2.0253 -0.7920  0.5884
42494SOL    HW232040   4.516   1.531   5.276 -0.0460  0.4241  0.9303
42495SOL     OW32041   3.675   6.001   5.034 -0.1584  0.8968  0.1200
42495SOL    HW132042   3.666   6.087   5.076 -0.7316  1.7946 -1.7351
42495SOL    HW232043   3.693   6.022   4.942 -0.0446 -0.9912 -0.3161
42496SOL     OW32044   0.097   3.286   5.040  0.4332 -0.2712 -0.6317
42496SOL    HW132045   0.115   3.197   5.007  0.2932 -0.2586 -0.7448
42496SOL    HW232046   0.133   3.286   5.129  1.3806 -0.1105 -1.0043
42497SOL     OW32047   1.346   8.851   2.398  0.2831  0.3093 -0.8259
42497SOL    HW132048   1.412   8.805   2.451 -1.1923 -0.9579  0.0035
42497SOL    HW232049   1.355   8.812   2.310  0.7066  0.2277 -0.7505
42498SOL     OW32050   4.951  10.886   8.705 -0.2174  0.4175 -0.4476
42498SOL    HW132051   5.013  10.830   8.659 -1.3357 -0.3936 -1.0159
42498SOL    HW232052   5.005  10.952   8.749  0.9334  0.6284 -2.1257
42499SOL     OW32053   7.042   6.699   1.858 -0.2660  0.5531  0.2372
42499SOL    HW132054   7.060   6.738   1.943  0.1269 -0.9049  0.8522
42499SOL    HW232055   7.034   6.774   1.798  1.3190  1.5272  1.1851
42500SOL     OW32056   9.617   9.675  11.870 -0.2322 -0.0572 -0.0931
42500SOL    HW132057   9.587   9.590  11.837  0.4109  0.0047 -0.8605
42500SOL    HW232058   9.679   9.706  11.804 -0.4556  1.0094  0.1790
42501SOL     OW32059   5.232   1.570   9.839 -0.0846 -0.2040 -0.2416
42501SOL    HW132060   5.152   1.528   9.871  0.0590  0.3231  0.8482
42501SOL    HW232061   5.303   1.518   9.876  0.1673 -2.2448 -3.2563
42502SOL     OW32062   4.042  10.819  11.309 -0.6253  0.4736 -0.1250
42502SOL    HW132063   4.109  10.843  11.245 -0.8024 -0.7409 -0.7937
42502SOL    HW232064   3.967  10.875  11.289 -1.0562 -0.6104 -1.6857
42503SOL     OW32065   3.417  10.394   5.239  0.0401 -0.0885 -0.3705
42503SOL    HW132066   3.444  10.386   5.331  1.5509  0.6169 -0.7156
42503SOL    HW232067   3.430  10.307   5.202 -1.6566 -0.6653  0.3359
42504SOL     OW32068   3.372   5.410   7.791  0.1473  0.3196 -0.7409
42504SOL    HW132069   3.441   5.362   7.744 -0.3037  0.1663 -1.2527
42504SOL    HW232070   3.351   5.354   7.866  1.9138  1.2504  0.5149
42505SOL     OW32071   2.968   9.391   3.860  0.3587 -0.2931  0.2407
42505SOL    HW132072   3.006   9.340   3.931 -3.6694 -1.8201  1.5647
42505SOL    HW232073   2.960   9.480   3.896 -1.2851 -0.9676  1.6193
42506SOL     OW32074   9.691  11.821  11.394 -0.1798 -0.0592  0.3806
42506SOL    HW132075   9.747  11.745  11.410  1.1397  1.0895  1.5072
42506SOL    HW232076   9.650  11.804  11.309  0.9659 -1.4811  0.0815
42507SOL     OW32077   7.914   7.783   7.466 -0.9034  0.3604  0.1407
42507SOL    HW132078   7.842   7.722   7.449 -1.6724  0.3096  3.0328
42507SOL    HW232079   7.910   7.845   7.393 -3.3882 -0.1142 -0.2272
42508SOL     OW32080   7.345  11.859   3.993  0.1759  0.6618  0.4019
42508SOL    HW132081   7.305  11.806   3.925 -0.6183 -0.9310  2.0293
42508SOL    HW232082   7.314  11.948   3.976 -0.3906  0.2278 -0.9988
42509SOL     OW32083   5.872  10.431   0.266 -0.7528  0.1730 -0.3904
42509SOL    HW132084   5.926  10.479   0.203 -1.0742 -0.9285 -1.5424
42509SOL    HW232085   5.882  10.480   0.348  2.2012 -0.1447 -0.4630
42510SOL     OW32086   7.849  10.663   2.578 -0.1597 -0.2601  0.1304
42510SOL    HW132087   7.802  10.606   2.518 -2.3832 -0.9072  2.3456
42510SOL    HW232088   7.786  10.685   2.646  1.7006  1.9115  1.3145
42511SOL     OW32089   3.066  11.906   4.616 -0.3760  0.1019  0.0599
42511SOL    HW132090   3.109  11.821   4.618 -0.1837  0.1919 -0.1647
42511SOL    HW232091   3.020  11.912   4.700  1.3334  0.6483  1.0286
42512SOL     OW32092   4.695   9.235   9.872  0.0372 -0.2459 -0.4544
42512SOL    HW132093   4.717   9.155   9.920 -2.2331 -0.7012 -0.0473
42512SOL    HW232094   4.703   9.211   9.780 -3.0894 -1.8618 -0.4398
42513SOL     OW32095   1.362  10.139  10.182  0.0596  0.7780  0.0782
42513SOL    HW132096   1.452  10.116  10.159 -0.2541  1.1646 -1.6945
42513SOL    HW232097   1.363  10.147  10.278  1.5715 -0.5383  0.2156
42514SOL     OW32098   0.311   7.098  10.626 -0.5241  0.1565 -0.6456
42514SOL    HW132099   0.236   7.048  10.595 -0.9511  0.4043 -0.0325
42514SOL    HW232100   0.334   7.057  10.709 -0.2721  0.3723 -0.6076
42515SOL     OW32101   3.775   8.300   3.886 -0.0411  0.1581 -0.1660
42515SOL    HW132102   3.687   8.266   3.873  0.2299 -0.1265 -1.3440
42515SOL    HW232103   3.828   8.223   3.904  0.3198  0.0764 -1.4679
42516SOL     OW32104   4.198   5.737   5.220 -0.4528  0.1456  0.6616
42516SOL    HW132105   4.196   5.824   5.180 -0.2062 -0.5414 -0.9396
42516SOL    HW232106   4.112   5.728   5.262 -0.5113  1.1163  0.7655
42517SOL     OW32107   8.219  10.208   9.310  0.6522  0.0355 -0.3460
42517SOL    HW132108   8.183  10.119   9.313  2.0760 -0.6112 -1.1133
42517SOL    HW232109   8.311  10.196   9.334  0.6876  1.4347  0.3112
42518SOL     OW32110   2.014  10.646  10.256  0.1974  0.3776 -0.4014
42518SOL    HW132111   2.022  10.691  10.172  1.1064 -1.1329 -1.1592
42518SOL    HW232112   1.950  10.577  10.240  0.7197 -0.2116  0.0160
42519SOL     OW32113  10.402   9.590  10.024  0.1034 -0.0496  0.3036
42519SOL    HW132114  10.440   9.634   9.948 -0.9712  2.0474  0.9320
42519SOL    HW232115  10.388   9.500   9.995  0.0188  0.6223 -1.8768
42520SOL     OW32116   3.709   9.127   3.601 -0.2542  0.5070 -0.3248
42520SOL    HW132117   3.724   9.215   3.567 -0.8566  1.2175  1.1707
42520SOL    HW232118   3.618   9.108   3.578 -0.1944  0.3620 -0.4451
42521SOL     OW32119   7.720   4.888   3.591 -0.1748  0.8637  0.3171
42521SOL    HW132120   7.714   4.982   3.609  1.6047  1.6418 -2.4748
42521SOL    HW232121   7.739   4.883   3.497  0.9449 -2.2565  0.5905
42522SOL     OW32122   1.110   6.765   4.396 -0.2607 -0.2502 -0.4018
42522SOL    HW132123   1.084   6.674   4.408  0.4969 -0.5918 -1.2631
42522SOL    HW232124   1.053   6.798   4.326 -0.7826  0.0624  0.1532
42523SOL     OW32125   4.827   8.244   2.963  0.4484  0.0319 -0.2964
42523SOL    HW132126   4.775   8.168   2.939 -0.6200  0.0074  1.8610
42523SOL    HW232127   4.917   8.220   2.941  0.1816 -2.0011  0.6187
42524SOL     OW32128   0.261   1.631   8.110 -1.1843  0.3281 -0.0060
42524SOL    HW132129   0.266   1.717   8.152  0.4478  0.1170  0.3040
42524SOL    HW232130   0.310   1.641   8.029  0.7586 -0.7707  0.9559
42525SOL     OW32131   6.147  11.588   9.525  0.9662  0.3131  0.0444
42525SOL    HW132132   6.201  11.602   9.603 -1.0167 -0.6240  1.6656
42525SOL    HW232133   6.175  11.503   9.492 -0.1348 -0.6406  1.4702
42526SOL     OW32134  11.821   4.810   4.035 -0.0234 -0.0584  0.2300
42526SOL    HW132135  11.777   4.865   3.971 -0.6159 -0.2603  0.4523
42526SOL    HW232136  11.767   4.817   4.114 -0.1071 -0.9387  0.2671
42527SOL     OW32137   4.447   2.370   9.632  0.0963 -0.2442 -0.0412
42527SOL    HW132138   4.477   2.445   9.581 -1.5586  0.1969 -0.4094
42527SOL    HW232139   4.429   2.406   9.718  0.6917 -0.5343  0.2131
42528SOL     OW32140   5.294  11.599   0.011  0.0994 -0.2372  0.4225
42528SOL    HW132141   5.334  11.655   0.078 -0.7499  0.9963 -0.0583
42528SOL    HW232142   5.271  11.660  -0.059 -0.6244 -1.2507 -0.2318
42529SOL     OW32143   0.560   4.038   3.608  0.0248 -0.1941 -0.0453
42529SOL    HW132144   0.634   3.977   3.614 -0.9039 -1.2805  0.7684
42529SOL    HW232145   0.489   3.986   3.570 -0.6111  0.5578  0.0974
42530SOL     OW32146   5.848   9.400   9.809  0.3299  0.2134  0.5171
42530SOL    HW132147   5.798   9.406   9.891 -0.5974  1.6780 -0.1267
42530SOL    HW232148   5.897   9.318   9.818 -1.6787 -0.9880  1.4572
42531SOL     OW32149   0.977   3.463   3.926 -0.1945 -0.0273  0.3566
42531SOL    HW132150   1.005   3.550   3.955 -1.3273 -0.1158  1.8454
42531SOL    HW232151   0.951   3.419   4.007 -0.7374 -1.3434 -0.5122
42532SOL     OW32152   6.603   6.487   3.890  0.4432  0.8640 -0.1308
42532SOL    HW132153   6.689   6.497   3.931  0.3882  0.1501  0.1604
42532SOL    HW232154   6.599   6.560   3.828  0.6195  1.8441  0.9580
42533SOL     OW32155  12.049   2.979   5.862 -0.1570 -0.0386 -0.8248
42533SOL    HW132156  12.070   3.071   5.880 -0.6067 -0.3456  1.6346
42533SOL    HW232157  11.956   2.980   5.839 -0.5940 -0.0006  0.8113
42534SOL     OW32158   2.769  11.092  11.838 -0.1083  0.0532  0.3329
42534SOL    HW132159   2.795  11.000  11.848 -0.1419  0.1524  1.3659
42534SOL    HW232160   2.729  11.095  11.751  1.7510 -0.4656 -0.6104
42535SOL     OW32161   4.061   2.789   4.109  0.6004 -0.4712 -0.1626
42535SOL    HW132162   4.135   2.774   4.050 -0.4175  1.4892 -2.0493
42535SOL    HW232163   3.988   2.811   4.051 -1.8956 -3.4407  1.5211
42536SOL     OW32164   7.688   1.995   4.286 -0.0232 -0.0553 -0.1273
42536SOL    HW132165   7.623   2.064   4.268  0.8111  0.8120  0.1123
42536SOL    HW232166   7.637   1.925   4.326 -0.8379  0.5651 -0.0431
42537SOL     OW32167   7.220   0.278   7.512 -0.2231  0.5344 -0.0935
42537SOL    HW132168   7.278   0.230   7.571 -1.1910  1.3962  1.6464
42537SOL    HW232169   7.133   0.242   7.530 -0.5364  0.8282 -0.9929
42538SOL     OW32170   2.601   3.047   2.400  0.1515  0.0388 -0.0762
42538SOL    HW132171   2.627   2.958   2.376  0.6737  0.3289 -0.6388
42538SOL    HW232172   2.670   3.077   2.460  1.2662  0.8500 -1.6593
42539SOL     OW32173   5.114   0.527   3.070 -0.1988 -0.5053 -0.2067
42539SOL    HW132174   5.024   0.530   3.038  0.0346  1.5814 -0.8141
42539SOL    HW232175   5.165   0.496   2.995 -0.1385  0.6900 -0.6884
42540SOL     OW32176   4.811   0.542   4.222  0.1150 -0.8565  0.0696
42540SOL    HW132177   4.768   0.627   4.230 -0.0987 -1.0414  1.1410
42540SOL    HW232178   4.902   0.559   4.246  0.7416 -0.4222 -2.4176
42541SOL     OW32179   5.958   0.314   2.267  1.0470  0.2270  0.5473
42541SOL    HW132180   5.924   0.377   2.203 -0.0363  0.9833  1.8171
42541SOL    HW232181   5.923   0.344   2.351  0.5974 -1.9846  1.2210
42542SOL     OW32182   9.749   6.653   3.663 -0.4256  0.0157 -0.1736
42542SOL    HW132183   9.734   6.650   3.569  2.7539  0.4109 -0.7920
42542SOL    HW232184   9.708   6.736   3.691 -2.9567 -0.9293 -0.7673
42543SOL     OW32185   9.330   2.784   1.825  0.4126 -0.3976 -0.4272
42543SOL    HW132186   9.370   2.870   1.836 -1.8277  0.7943 -1.0441
42543SOL    HW232187   9.388   2.739   1.764  2.4254  0.0789  1.0535
42544SOL     OW32188   9.010  11.190   4.474  0.8370 -0.0480  0.0400
42544SOL    HW132189   8.979  11.135   4.402 -1.0165 -0.0672  0.8178
42544SOL    HW232190   9.039  11.127   4.541  1.6856 -0.0347 -0.3050
42545SOL     OW32191   6.623   5.838   4.027 -0.2716  0.4230 -0.2907
42545SOL    HW132192   6.718   5.838   4.038 -0.4153 -0.4165  1.3656
42545SOL    HW232193   6.603   5.925   3.991  1.2570 -0.0570 -2.4971
42546SOL     OW32194   8.410   6.680   3.545  0.1149 -0.3362  0.3620
42546SOL    HW132195   8.333   6.708   3.593 -0.4029  0.9462 -1.1127
42546SOL    HW232196   8.403   6.724   3.460  0.4232 -3.2787 -1.3287
42547SOL     OW32197   1.871   1.380   2.410  0.2634  0.4834 -0.1209
42547SOL    HW132198   1.795   1.329   2.439  0.0874  0.4118 -0.6859
42547SOL    HW232199   1.850   1.403   2.320  1.5302 -0.7368 -0.7660
42548SOL     OW32200  10.991   5.190  11.019 -0.2894 -0.6024 -0.2298
42548SOL    HW132201  11.076   5.218  10.984  0.9256 -2.1877  1.2548
42548SOL    HW232202  10.977   5.245  11.095  1.0057 -2.3646  1.3687
42549SOL     OW32203   4.117   5.342   8.357  0.5515  0.2741  0.3220
42549SOL    HW132204   4.083   5.264   8.313  1.6787 -1.3659  2.2380
42549SOL    HW232205   4.151   5.396   8.286  0.2515 -1.2219 -1.0179
42550SOL     OW32206   4.610   2.953   2.542  0.8911  0.4315 -0.0027
42550SOL    HW132207   4.572   2.962   2.454  0.2609  0.7830  0.2967
42550SOL    HW232208   4.538   2.973   2.601  1.3288  0.2569  0.5997
42551SOL     OW32209  11.311   3.155   6.206 -0.2654  0.2882  0.2654
42551SOL    HW132210  11.402   3.173   6.185 -0.2997  0.1626  0.0135
42551SOL    HW232211  11.262   3.227   6.165 -0.4640 -0.6792 -1.2711
42552SOL     OW32212   4.052  10.226   3.836  0.7624  0.1849  0.1853
42552SOL    HW132213   4.122  10.275   3.793 -0.0331  0.8717 -0.3782
42552SOL    HW232214   3.991  10.204   3.765 -0.9137  1.9125  0.9955
42553SOL     OW32215   8.533   2.269   5.503 -0.1941  0.0128 -0.1376
42553SOL    HW132216   8.493   2.356   5.509  0.0718  0.1267  0.0454
42553SOL    HW232217   8.514   2.228   5.587 -1.0672 -0.4435 -0.5436
42554SOL     OW32218  11.139   3.247  10.745 -0.3097  0.4521 -0.5566
42554SOL    HW132219  11.086   3.175  10.779  0.5374 -0.7721 -1.6956
42554SOL    HW232220  11.225   3.208  10.730  0.1759  1.7123 -1.2103
42555SOL     OW32221  11.251  12.084   1.895  0.1450  0.0140  0.3773
42555SOL    HW132222  11.225  12.109   1.983 -0.5587  0.9185 -0.0643
42555SOL    HW232223  11.168  12.069   1.849  0.4799  0.2899 -0.3348
42556SOL     OW32224   9.992   5.616   5.388 -0.0914 -0.3169  0.3024
42556SOL    HW132225   9.899   5.633   5.404 -0.2663  0.0381 -0.9667
42556SOL    HW232226   9.993   5.534   5.338  0.1010  0.6668 -1.3927
42557SOL     OW32227   5.881   0.041   3.657 -0.7628  0.2862 -0.3592
42557SOL    HW132228   5.802  -0.012   3.667 -0.8332  0.3033 -0.7968
42557SOL    HW232229   5.952  -0.023   3.652 -0.6712  0.2944  0.7140
42558SOL     OW32230   4.074  11.915   5.695  0.1768  0.1313  0.0881
42558SOL    HW132231   4.127  11.991   5.672  1.1437 -0.9379 -1.3776
42558SOL    HW232232   3.987  11.936   5.662  0.8442 -0.0810 -1.9714
42559SOL     OW32233   2.681  11.511   5.919 -0.4517 -0.7855 -0.1588
42559SOL    HW132234   2.742  11.475   5.984 -1.1246 -2.3733 -0.3634
42559SOL    HW232235   2.623  11.568   5.970  0.8590  0.3751  0.1118
42560SOL     OW32236   8.974   0.790   6.886  0.4512  0.2364 -1.1047
42560SOL    HW132237   8.933   0.874   6.907  0.1630  0.2126 -1.5508
42560SOL    HW232238   9.049   0.784   6.945 -1.7853 -1.0360  1.9246
42561SOL     OW32239   0.394  10.467   1.815 -0.6339  0.0915 -0.2831
42561SOL    HW132240   0.345  10.546   1.839 -1.7339 -0.7488  0.3580
42561SOL    HW232241   0.330  10.412   1.769 -0.0194 -0.6169 -0.3135
42562SOL     OW32242   3.226   6.610   8.921  0.6455  0.2683 -0.4955
42562SOL    HW132243   3.265   6.524   8.904  0.5630  0.0134  0.5114
42562SOL    HW232244   3.144   6.591   8.965  1.3408  0.8529  1.1583
42563SOL     OW32245   9.921   1.150  10.786 -0.1284 -0.2822  0.4883
42563SOL    HW132246   9.966   1.196  10.856 -1.6256 -1.7896  2.5396
42563SOL    HW232247   9.860   1.213  10.750 -0.7359 -0.0499  1.8948
42564SOL     OW32248  11.288   6.887  10.110  0.0810  0.0390 -0.2911
42564SOL    HW132249  11.279   6.983  10.114  0.5955  0.1267 -1.1474
42564SOL    HW232250  11.365   6.868  10.164  0.9527  0.2705 -1.4258
42565SOL     OW32251   0.345   7.015  11.116  0.6629 -0.2060 -0.0855
42565SOL    HW132252   0.362   7.053  11.030  0.3185  0.2300  0.0327
42565SOL    HW232253   0.250   7.023  11.127  0.5086 -1.5494 -0.2542
42566SOL     OW32254   6.584   7.196  10.846 -0.1972  0.0675 -0.4224
42566SOL    HW132255   6.524   7.257  10.888 -0.0629 -0.3028  0.3259
42566SOL    HW232256   6.533   7.157  10.775 -1.6595 -1.9366  1.5767
42567SOL     OW32257   5.391   6.155   8.737 -0.3324  0.3346  0.3655
42567SOL    HW132258   5.473   6.137   8.782 -0.2649 -1.1913 -0.2861
42567SOL    HW232259   5.352   6.228   8.785  0.5502 -0.0961  1.7983
42568SOL     OW32260   1.755   6.984  11.215 -0.3748  1.0201  0.0738
42568SOL    HW132261   1.761   6.927  11.292 -1.4823 -1.2305 -1.3827
42568SOL    HW232262   1.664   7.014  11.215 -0.9437 -0.5175 -1.2707
42569SOL     OW32263   0.135  10.398   4.219 -0.1144  0.0631 -0.3305
42569SOL    HW132264   0.184  10.403   4.137  0.9846 -2.1550  0.1414
42569SOL    HW232265   0.179  10.331   4.270  0.4288  2.6506  2.9268
42570SOL     OW32266   8.397   8.080  11.082 -0.0203  0.3300  0.2401
42570SOL    HW132267   8.442   8.076  11.166  1.9260  3.6454 -0.4388
42570SOL    HW232268   8.450   8.026  11.023 -0.8312 -1.2029  0.8881
42571SOL     OW32269   3.828  10.633   0.226 -0.4707 -0.5560 -0.3951
42571SOL    HW132270   3.847  10.696   0.295 -2.8450 -2.5246  2.2689
42571SOL    HW232271   3.762  10.676   0.171 -0.9904 -0.1829  0.5129
42572SOL     OW32272   0.255   4.560   8.225  0.2482 -0.0790  0.5445
42572SOL    HW132273   0.220   4.487   8.276  1.3031  0.0844  1.5564
42572SOL    HW232274   0.310   4.520   8.159 -0.0715 -0.2378  0.3719
42573SOL     OW32275   5.128   4.255   1.898  0.0666  0.3723 -0.1405
42573SOL    HW132276   5.153   4.174   1.941  0.6623  1.2429  1.2328
42573SOL    HW232277   5.037   4.269   1.922  0.2616  0.6166  0.4630
42574SOL     OW32278   1.177   7.433   3.781  0.4761 -0.0340  0.1356
42574SOL    HW132279   1.156   7.489   3.856 -0.8581  1.4268 -1.2501
42574SOL    HW232280   1.164   7.489   3.705 -0.4695 -2.0915 -1.3145
42575SOL     OW32281   5.320   3.697   2.782 -0.3260 -0.2970  0.0360
42575SOL    HW132282   5.347   3.634   2.716  2.8648  1.2045 -0.2938
42575SOL    HW232283   5.237   3.664   2.815 -1.5600 -1.6708 -3.9277
42576SOL     OW32284   5.108   6.228  10.163  0.0709  0.2856 -0.2696
42576SOL    HW132285   5.153   6.186  10.090  1.0925  0.1747  0.4019
42576SOL    HW232286   5.027   6.178  10.174  0.8714 -0.9839 -0.0267
42577SOL     OW32287   3.874   2.637   6.478  0.2288  0.4707 -0.1303
42577SOL    HW132288   3.880   2.725   6.517 -0.6500  0.3942  0.2030
42577SOL    HW232289   3.962   2.600   6.489  0.3977  1.0118  0.4502
42578SOL     OW32290   4.791   0.563   5.279  0.3590 -0.8830  0.2442
42578SOL    HW132291   4.698   0.561   5.260  0.7839 -0.9000 -2.1012
42578SOL    HW232292   4.799   0.524   5.366 -1.7752 -1.1388  0.3587
42579SOL     OW32293  10.118  10.303   7.696  0.2028 -0.0348  0.0468
42579SOL    HW132294  10.071  10.271   7.773 -1.1938 -0.9451 -1.1071
42579SOL    HW232295  10.151  10.389   7.721 -1.3497  0.2534  1.2373
42580SOL     OW32296   5.709   7.368   1.045  0.3779 -0.2308 -0.0224
42580SOL    HW132297   5.699   7.359   1.140  0.2586  0.7577  0.0598
42580SOL    HW232298   5.794   7.327   1.026 -0.1136 -1.4558  0.3447
42581SOL     OW32299  11.186   7.727  12.086  0.0590  0.2241  0.1400
42581SOL    HW132300  11.204   7.653  12.027 -0.6965  0.3344 -0.2382
42581SOL    HW232301  11.258   7.789  12.069  1.3921 -0.9254  1.3431
42582SOL     OW32302   8.247   9.299   8.736 -0.1659 -0.5751  0.1757
42582SOL    HW132303   8.329   9.346   8.717 -0.6901  0.4684  0.4426
42582SOL    HW232304   8.197   9.306   8.655 -1.3318  1.6377  1.0309
42583SOL     OW32305  11.138   0.387   9.464  0.5767  0.2457  0.3766
42583SOL    HW132306  11.212   0.329   9.443 -0.1343 -0.9229  0.9821
42583SOL    HW232307  11.115   0.428   9.381 -0.8061 -2.6463 -0.8227
42584SOL     OW32308   6.631  10.660   4.001  0.2337  0.3891  0.0383
42584SOL    HW132309   6.666  10.666   4.089  0.9900  1.3256 -0.3036
42584SOL    HW232310   6.685  10.594   3.957  0.3321  0.4511  0.0669
42585SOL     OW32311   7.389   6.462   6.975 -0.1390 -0.0236 -0.3906
42585SOL    HW132312   7.459   6.495   6.919 -0.5830  0.5605 -0.6072
42585SOL    HW232313   7.360   6.382   6.932  0.1789 -0.0965 -0.4715
42586SOL     OW32314   7.772  10.365   6.713 -0.2493 -0.1120 -0.4496
42586SOL    HW132315   7.791  10.271   6.722 -0.2577 -0.0834 -0.1357
42586SOL    HW232316   7.849  10.408   6.749  0.3751  0.0092 -1.8510
42587SOL     OW32317   8.796   1.627   8.735 -0.6912  0.2310 -0.1563
42587SOL    HW132318   8.764   1.702   8.785 -1.7916  0.4432 -1.1296
42587SOL    HW232319   8.732   1.616   8.665 -1.5653 -2.7137  0.9685
42588SOL     OW32320   0.536   3.120   2.699 -0.5545 -0.6197 -0.4480
42588SOL    HW132321   0.631   3.127   2.710 -0.5337  0.1982 -1.1310
42588SOL    HW232322   0.525   3.060   2.626 -0.5018  0.9003 -1.7453
42589SOL     OW32323   4.497   9.496  11.185 -0.3085 -0.1358 -0.5974
42589SOL    HW132324   4.436   9.499  11.112 -1.5300  0.0049  0.3907
42589SOL    HW232325   4.581   9.522  11.148 -1.2263  1.5227 -1.6238
42590SOL     OW32326   0.982   2.810  10.052 -0.0511 -0.0727  0.3056
42590SOL    HW132327   1.020   2.764  10.127  0.1536  0.6843  0.6797
42590SOL    HW232328   1.058   2.834   9.999 -0.0271  1.0235  0.8103
42591SOL     OW32329   6.370  10.627   5.799  0.2341  0.2351  0.7649
42591SOL    HW132330   6.415  10.618   5.715 -1.4320  1.9041 -0.3847
42591SOL    HW232331   6.345  10.537   5.822 -1.3535 -0.0831 -1.7894
42592SOL     OW32332   5.113   1.912   7.747 -0.2739 -0.0250 -0.0864
42592SOL    HW132333   5.136   1.984   7.806  1.2289 -1.6993  1.4790
42592SOL    HW232334   5.017   1.914   7.745 -0.2779  2.0133 -0.1209
42593SOL     OW32335   7.016  11.337   0.063  0.1289 -0.0250  0.1173
42593SOL    HW132336   6.927  11.302   0.069 -0.1723  0.6910  0.0017
42593SOL    HW232337   7.024  11.393   0.141  0.6502 -0.4626  0.3804
42594SOL     OW32338  11.908  12.010  10.245  0.3107  0.0134  0.8904
42594SOL    HW132339  11.966  12.086  10.250  0.2842  0.2930 -1.6711
42594SOL    HW232340  11.910  11.985  10.153 -3.6967  0.0678  0.6549
42595SOL     OW32341   1.383   2.042   5.130  0.8008  0.5289 -0.5504
42595SOL    HW132342   1.339   1.997   5.058  2.5290  0.0003 -1.3343
42595SOL    HW232343   1.360   1.991   5.207  0.8308 -0.3232 -1.0864
42596SOL     OW32344   6.509   8.135   8.311  0.0925  0.1544  0.4193
42596SOL    HW132345   6.515   8.202   8.243 -1.1853 -0.9046 -0.8059
42596SOL    HW232346   6.591   8.086   8.303 -0.7606 -1.0903 -1.6763
42597SOL     OW32347   8.881  11.595   3.487 -0.1952  0.1213  0.5409
42597SOL    HW132348   8.923  11.580   3.402 -1.9037  0.3749 -0.4029
42597SOL    HW232349   8.950  11.580   3.551  1.1946  0.1023 -0.8992
42598SOL     OW32350   9.209   7.004   2.946 -0.2166  0.0292  0.2078
42598SOL    HW132351   9.291   7.051   2.927 -0.3126  0.0372 -0.2049
42598SOL    HW232352   9.215   6.924   2.894 -0.8772  0.4668 -0.5723
42599SOL     OW32353  10.424   3.026   4.442 -0.1261 -0.1816 -0.1586
42599SOL    HW132354  10.432   3.055   4.533 -0.2649  0.0397 -0.2177
42599SOL    HW232355  10.397   2.934   4.448  0.1462 -0.2531  0.0248
42600SOL     OW32356   5.536   5.357   8.937 -0.8549  0.2696  0.4115
42600SOL    HW132357   5.606   5.347   8.873 -0.4332 -0.6953  0.9969
42600SOL    HW232358   5.469   5.409   8.892 -0.5332 -0.3120 -0.7733
42601SOL     OW32359   8.511   0.975   7.507  0.1091  0.1190 -0.2311
42601SOL    HW132360   8.554   1.008   7.428  1.1163 -3.1327 -1.1799
42601SOL    HW232361   8.426   0.943   7.476 -0.1361  0.2386  0.3116
42602SOL     OW32362   1.198  10.683   3.680 -0.1560 -0.4397  0.2102
42602SOL    HW132363   1.195  10.644   3.592 -0.7236 -1.3146  0.6021
42602SOL    HW232364   1.130  10.636   3.729 -1.3860  1.5397  0.5123
42603SOL     OW32365   6.716   6.770   1.375  0.9512 -0.0103  0.7333
42603SOL    HW132366   6.766   6.764   1.293 -0.7565  3.0304 -0.6962
42603SOL    HW232367   6.652   6.700   1.370  1.6742 -0.6404  0.0758
42604SOL     OW32368   3.530   9.550   7.626 -0.4505 -0.1996  0.1972
42604SOL    HW132369   3.506   9.511   7.542 -1.3040  0.5326  0.0893
42604SOL    HW232370   3.448   9.579   7.664  0.1783  1.9106  0.0612
42605SOL     OW32371   0.335   8.135   1.576  0.1890  0.3535 -0.4960
42605SOL    HW132372   0.260   8.095   1.531  0.0955 -0.0032 -0.0291
42605SOL    HW232373   0.393   8.163   1.505  0.5286 -1.1272 -0.8342
42606SOL     OW32374   1.823   5.889   8.220  0.4519 -0.2388  0.4219
42606SOL    HW132375   1.834   5.971   8.172 -0.9644 -0.5980 -0.5953
42606SOL    HW232376   1.765   5.912   8.293 -1.6066 -0.6516 -0.9838
42607SOL     OW32377   0.319   5.116  11.727  0.1274  0.4027  0.4446
42607SOL    HW132378   0.235   5.099  11.686 -0.5582 -1.6747  2.4972
42607SOL    HW232379   0.315   5.208  11.754 -1.4325  0.3687  0.3753
42608SOL     OW32380   4.235  10.857   7.992  0.4188  0.4500 -0.2234
42608SOL    HW132381   4.247  10.813   8.076  0.9051 -1.9176 -1.4386
42608SOL    HW232382   4.148  10.831   7.963  1.7206 -2.2550 -2.2201
42609SOL     OW32383  11.772   8.249   9.912 -0.7885 -0.4300 -0.2933
42609SOL    HW132384  11.767   8.344   9.902 -1.7813 -0.3991  0.3015
42609SOL    HW232385  11.783   8.216   9.823  0.4533  0.2769 -0.4166
42610SOL     OW32386   5.937   1.877   5.108  0.3940  0.3246  0.0607
42610SOL    HW132387   5.932   1.971   5.122  1.1095  0.6787 -1.7959
42610SOL    HW232388   5.901   1.863   5.020  1.9238 -0.8889 -0.4199
42611SOL     OW32389  11.117   7.922   2.012 -0.1184 -0.1036  0.2341
42611SOL    HW132390  11.066   7.905   2.090 -0.3031  0.0070  0.1373
42611SOL    HW232391  11.122   7.838   1.967  0.0115 -0.1740  0.3759
42612SOL     OW32392   2.512   6.406   3.323  0.5755  0.1380  0.5268
42612SOL    HW132393   2.558   6.396   3.240 -0.6872 -0.9793 -0.0801
42612SOL    HW232394   2.519   6.500   3.343  0.1065  0.6240 -1.3398
42613SOL     OW32395   9.488   2.941   7.416 -0.0240 -0.3813 -0.5873
42613SOL    HW132396   9.439   2.886   7.354  0.8617 -0.9294 -0.8227
42613SOL    HW232397   9.529   2.879   7.476 -2.8149  0.1781  2.1738
42614SOL     OW32398   4.725   2.951   1.346 -0.0148 -0.6594 -0.7285
42614SOL    HW132399   4.788   3.024   1.346  0.4682 -1.0726 -0.6824
42614SOL    HW232400   4.696   2.945   1.255 -0.1968 -0.2902 -0.6970
42615SOL     OW32401   6.447   4.681  10.541  0.2722 -0.6046 -0.4569
42615SOL    HW132402   6.458   4.717  10.453  1.3091  0.3586  0.0521
42615SOL    HW232403   6.520   4.619  10.550 -0.1323 -1.0871 -0.4531
42616SOL     OW32404  10.852   8.665   2.880  0.0240  0.4182  0.0413
42616SOL    HW132405  10.821   8.711   2.958  0.2715  1.1434 -0.2876
42616SOL    HW232406  10.915   8.601   2.914 -0.8790 -0.2092  0.5772
42617SOL     OW32407   7.132  10.524   9.054  0.3490  0.7612  0.2366
42617SOL    HW132408   7.169  10.443   9.022 -0.9088  0.0569  0.4790
42617SOL    HW232409   7.082  10.559   8.980  0.1873  0.8657  0.3928
42618SOL     OW32410   6.011   4.245   1.495  0.1906  0.4063  0.6591
42618SOL    HW132411   5.976   4.175   1.439  1.4982  0.8124 -0.7251
42618SOL    HW232412   6.094   4.209   1.529  0.7591  1.1774  0.1180
42619SOL     OW32413   7.376   8.447   1.946 -0.7376  0.1340  0.3035
42619SOL    HW132414   7.329   8.375   1.903 -1.7394  1.7907 -1.5350
42619SOL    HW232415   7.308   8.509   1.971  0.2319  1.3150  0.1250
42620SOL     OW32416   6.250   4.186  10.341 -0.3631  0.1818 -0.4264
42620SOL    HW132417   6.238   4.281  10.336 -2.1435  0.1139  1.2780
42620SOL    HW232418   6.335   4.175  10.384 -0.5945  1.0250  0.2743
42621SOL     OW32419   5.111   8.061   3.629 -0.5067 -0.6395  0.5060
42621SOL    HW132420   5.099   7.975   3.670  0.2125 -1.9224 -1.7565
42621SOL    HW232421   5.092   8.046   3.537 -1.0751  1.8530  0.1521
42622SOL     OW32422   7.761   3.514   2.132  0.6086 -0.0130  1.4227
42622SOL    HW132423   7.718   3.429   2.123  2.7637 -1.2307  1.9278
42622SOL    HW232424   7.733   3.563   2.054 -1.0695 -0.9752  1.3772
42623SOL     OW32425   4.138   8.558   0.843  0.0743 -0.7139  0.0115
42623SOL    HW132426   4.230   8.554   0.869  0.0379 -0.3502  0.2052
42623SOL    HW232427   4.139   8.555   0.748  0.3022 -0.4868  0.0072
42624SOL     OW32428  10.491   4.137  11.710 -0.1136 -0.0088  0.1107
42624SOL    HW132429  10.407   4.093  11.694  0.8004 -1.7409 -0.1800
42624SOL    HW232430  10.487   4.216  11.655 -0.7491 -1.1192 -1.5280
42625SOL     OW32431   7.422  12.085   9.407 -0.7280  0.2965 -0.3445
42625SOL    HW132432   7.364  12.111   9.478 -0.8284  0.6899 -0.5678
42625SOL    HW232433   7.370  12.095   9.328 -0.6262 -0.1728 -0.4709
42626SOL     OW32434  10.496   2.302   8.571 -0.3005 -0.0712 -0.6834
42626SOL    HW132435  10.512   2.340   8.658  1.5651  0.2509 -1.1383
42626SOL    HW232436  10.416   2.250   8.583  0.0912 -0.3085  1.3113
42627SOL     OW32437   8.254  11.876   9.197 -0.3871 -0.3785 -0.0617
42627SOL    HW132438   8.174  11.825   9.185 -0.0746 -1.4430  1.9830
42627SOL    HW232439   8.260  11.889   9.291  0.8333  1.4079 -0.3343
42628SOL     OW32440  10.135   8.028   2.684 -0.2708  0.5696  0.5966
42628SOL    HW132441  10.215   8.059   2.641 -0.4345  1.5822  1.0039
42628SOL    HW232442  10.163   7.951   2.734  0.2189  0.2681 -0.1237
42629SOL     OW32443  10.498  12.054   4.109 -0.5717 -0.1298  0.4101
42629SOL    HW132444  10.434  12.020   4.171 -0.0906 -0.8500  0.5296
42629SOL    HW232445  10.488  12.000   4.031  0.4488 -0.8345  0.7328
42630SOL     OW32446   7.695   3.288   5.115  0.2375  0.4737  0.7139
42630SOL    HW132447   7.716   3.210   5.167 -1.7255 -0.0567  0.7860
42630SOL    HW232448   7.779   3.333   5.105  1.6264 -2.0875 -0.1128
42631SOL     OW32449   2.986   7.326   6.207  0.3741  0.5127  0.3137
42631SOL    HW132450   3.078   7.330   6.179  0.6019  0.2129  1.0050
42631SOL    HW232451   2.951   7.249   6.162  0.4751  0.5935  0.0921
42632SOL     OW32452   7.992   1.022   1.576 -0.5269 -0.1860  0.3551
42632SOL    HW132453   8.074   1.023   1.624 -0.5374  1.9255  0.4319
42632SOL    HW232454   7.977   0.930   1.555  1.1359 -0.7661  1.5327
42633SOL     OW32455   5.991  11.869   5.902  0.0208 -0.2525  1.0836
42633SOL    HW132456   5.970  11.963   5.904 -1.6715 -0.5659 -0.0591
42633SOL    HW232457   6.041  11.858   5.822  3.4216  0.1904  2.9464
42634SOL     OW32458   1.389   6.868   0.433  0.0576  0.1673 -0.6882
42634SOL    HW132459   1.374   6.960   0.411 -0.3441  0.3527  0.3058
42634SOL    HW232460   1.475   6.848   0.395  0.5445  1.2026 -0.1814
42635SOL     OW32461   0.810   7.333   4.681  0.2245 -0.6546 -0.1006
42635SOL    HW132462   0.874   7.313   4.613  0.4811 -0.8993  0.2077
42635SOL    HW232463   0.844   7.411   4.725  1.4901 -2.0341  1.4983
42636SOL     OW32464   1.475   0.747   8.117 -0.0323  0.2613 -0.1388
42636SOL    HW132465   1.423   0.793   8.051 -0.3020 -0.0624 -0.1581
42636SOL    HW232466   1.508   0.816   8.175 -0.8807  0.4378  0.1539
42637SOL     OW32467   3.691   9.636   1.392  0.2888 -0.1454  0.4707
42637SOL    HW132468   3.596   9.641   1.388  0.2566 -0.1863  1.0764
42637SOL    HW232469   3.718   9.712   1.443  0.8509  1.7986 -2.4910
42638SOL     OW32470   9.728   3.016   5.825  0.3439  0.0253  0.1101
42638SOL    HW132471   9.688   2.993   5.742  1.2688 -1.5048  0.0484
42638SOL    HW232472   9.654   3.039   5.882 -0.2079  2.6026 -1.5043
42639SOL     OW32473   9.805   8.828  10.319 -0.3434  0.3713 -0.2963
42639SOL    HW132474   9.877   8.785  10.273  1.2851  2.1261  0.4907
42639SOL    HW232475   9.803   8.917  10.284  1.3367  1.9697  3.1918
42640SOL     OW32476   9.018   4.032   5.121 -0.1729 -0.7971  0.7557
42640SOL    HW132477   8.973   4.054   5.040  0.6888  0.7306  0.6550
42640SOL    HW232478   8.951   3.991   5.175 -0.7892 -1.7142 -0.6655
42641SOL     OW32479   1.646   4.776  10.168 -0.1941  0.0497 -0.1869
42641SOL    HW132480   1.656   4.750  10.077  0.1748 -1.5774  0.2804
42641SOL    HW232481   1.734   4.771  10.205 -0.4509 -0.0634  0.4351
42642SOL     OW32482   5.728  11.349   8.858  0.3302  0.1908  0.1836
42642SOL    HW132483   5.748  11.318   8.770 -1.5812 -0.5803 -0.0420
42642SOL    HW232484   5.778  11.291   8.916 -0.5304 -1.1352 -0.3490
42643SOL     OW32485   8.561   6.130   2.050  0.3925 -0.7110  0.1280
42643SOL    HW132486   8.606   6.116   2.134  0.7939 -1.2314 -0.1730
42643SOL    HW232487   8.480   6.175   2.074  0.3665 -1.1171  0.8290
42644SOL     OW32488   9.503   9.571   4.340 -0.3781 -0.0154  0.2822
42644SOL    HW132489   9.483   9.648   4.286  0.5020 -0.5804 -0.9112
42644SOL    HW232490   9.465   9.591   4.425 -1.7298  0.9833 -0.4973
42645SOL     OW32491  10.264   1.642   2.514 -0.4058 -0.1711  0.4765
42645SOL    HW132492  10.189   1.689   2.477 -0.2618  0.7660  1.3557
42645SOL    HW232493  10.337   1.702   2.506 -0.2054 -0.2494  1.5528
42646SOL     OW32494  10.822   1.288   4.095  0.3620  0.5053 -0.1225
42646SOL    HW132495  10.802   1.197   4.115 -1.2550  1.1779  1.5824
42646SOL    HW232496  10.798   1.298   4.003 -2.7960  0.0185  0.5375
42647SOL     OW32497   3.234   8.520   3.216  0.2868 -0.3382 -0.1080
42647SOL    HW132498   3.232   8.615   3.213 -0.5143 -0.3609 -0.6035
42647SOL    HW232499   3.169   8.496   3.283  1.0727 -0.5204  0.6039
42648SOL     OW32500   6.601   1.392   3.721  0.2763 -0.1159  0.0912
42648SOL    HW132501   6.602   1.347   3.805  0.1773 -0.0945  0.1044
42648SOL    HW232502   6.650   1.473   3.737 -0.4510  0.2763  0.3500
42649SOL     OW32503   5.128  10.203  10.186  0.1365 -0.2368 -0.7009
42649SOL    HW132504   5.078  10.122  10.193  0.3880 -0.5252 -1.9387
42649SOL    HW232505   5.209  10.186  10.234  0.5620 -1.0401 -1.6829
42650SOL     OW32506   7.053   5.685  10.798 -0.0735 -0.6475 -0.1630
42650SOL    HW132507   7.022   5.596  10.784  0.2519 -0.6133 -1.2247
42650SOL    HW232508   6.978   5.732  10.833 -0.2945 -1.2911  0.2419
42651SOL     OW32509   6.468   0.911   4.973  0.0370 -0.3845 -0.0138
42651SOL    HW132510   6.427   0.966   4.907 -2.7417 -0.7284  1.2839
42651SOL    HW232511   6.552   0.953   4.991 -2.0039  3.6799  1.0867
42652SOL     OW32512   0.320   1.719   1.270  0.3177  0.1906  0.2392
42652SOL    HW132513   0.252   1.670   1.317  0.7800 -0.9084 -0.2114
42652SOL    HW232514   0.273   1.762   1.198 -0.0152  0.0142  0.3484
42653SOL     OW32515   9.047   0.491   3.812  0.0672 -0.0888  0.3936
42653SOL    HW132516   8.991   0.523   3.741 -0.8309 -1.2991  0.5198
42653SOL    HW232517   9.090   0.413   3.775  2.3957  1.2955  0.0014
42654SOL     OW32518  11.454   2.093   7.483 -0.2440  0.2916 -0.4039
42654SOL    HW132519  11.501   2.010   7.487  0.3728  0.6582  0.3774
42654SOL    HW232520  11.518   2.155   7.447 -0.6448  0.4632 -0.8238
42655SOL     OW32521  12.090   8.668   7.211 -0.1398 -0.8966  0.3173
42655SOL    HW132522  12.032   8.743   7.224  0.5739 -0.2065 -0.4159
42655SOL    HW232523  12.085   8.651   7.117  2.7848  0.8087 -0.2545
42656SOL     OW32524   7.340   1.997   2.152  0.3269 -0.3352 -0.3080
42656SOL    HW132525   7.427   1.961   2.139  1.3478  1.2704  1.5860
42656SOL    HW232526   7.354   2.078   2.201 -2.1256  0.7141 -1.1397
42657SOL     OW32527   7.915   9.579   5.468 -0.4332 -0.6457  0.1122
42657SOL    HW132528   7.940   9.536   5.550 -0.9816  0.7026  1.0445
42657SOL    HW232529   7.823   9.604   5.482  0.4905  3.0853  0.7820
42658SOL     OW32530   5.508   0.797   0.327 -0.9325  0.0817 -0.5264
42658SOL    HW132531   5.601   0.790   0.345 -1.2465 -2.2515  0.5000
42658SOL    HW232532   5.477   0.863   0.389 -0.4682 -1.5004  1.4931
42659SOL     OW32533   5.273   2.410   0.120  0.1994  0.3951 -0.0293
42659SOL    HW132534   5.199   2.457   0.160  1.1324  0.2592  1.9579
42659SOL    HW232535   5.280   2.329   0.171  0.8899 -0.2307 -1.0822
42660SOL     OW32536   0.523   3.052   6.258 -0.1476  0.5530 -0.3947
42660SOL    HW132537   0.523   2.971   6.206  2.4142  0.5043 -0.4192
42660SOL    HW232538   0.526   3.022   6.348 -0.4361  0.6273 -0.3605
42661SOL     OW32539   0.278   1.856   1.511  0.1784  0.5462 -0.4694
42661SOL    HW132540   0.290   1.874   1.417  2.1062  0.1790 -0.3420
42661SOL    HW232541   0.298   1.940   1.554  0.7600  0.3320 -0.3178
42662SOL     OW32542  10.706  10.663   7.543  0.8436  0.6068  0.0625
42662SOL    HW132543  10.633  10.703   7.591  1.7224  1.9186  0.3533
42662SOL    HW232544  10.690  10.688   7.452 -0.6812 -1.6634 -0.3541
42663SOL     OW32545   0.040   4.883   7.913  0.2041 -0.3240 -0.0303
42663SOL    HW132546   0.092   4.935   7.975  0.7887 -1.4908  0.4857
42663SOL    HW232547   0.015   4.805   7.962 -0.5172 -0.6264 -0.8477
42664SOL     OW32548   7.127   8.183   4.656 -0.0007 -0.5602 -0.3944
42664SOL    HW132549   7.173   8.124   4.596 -0.1951 -2.1232  0.9371
42664SOL    HW232550   7.184   8.189   4.733  0.1285  1.2235 -0.5827
42665SOL     OW32551   6.574   3.034   3.732 -0.4186 -0.1265 -0.7956
42665SOL    HW132552   6.666   3.033   3.761 -0.1157  2.6125 -1.3670
42665SOL    HW232553   6.564   2.953   3.683  1.3086 -1.1158  0.3758
42666SOL     OW32554   9.859   4.467   7.771 -0.1368 -0.2815 -0.1888
42666SOL    HW132555   9.869   4.553   7.728  1.8082  0.3297  1.3306
42666SOL    HW232556   9.948   4.438   7.788 -0.7938 -1.6751  1.1460
42667SOL     OW32557   2.382   4.020  11.887  0.5699 -0.0086 -0.0238
42667SOL    HW132558   2.459   4.068  11.917 -0.6644  0.9259  1.7994
42667SOL    HW232559   2.396   4.009  11.793  2.5668  0.7678  0.1349
42668SOL     OW32560   8.857  10.284   7.175  0.0997 -0.1579 -0.0912
42668SOL    HW132561   8.924  10.215   7.171 -0.2066 -0.5394  0.9754
42668SOL    HW232562   8.792  10.250   7.236 -0.7584  0.4874 -0.6255
42669SOL     OW32563  11.199   5.435   1.769 -0.5555  0.2961 -0.2275
42669SOL    HW132564  11.168   5.435   1.679 -1.9409  0.7519  0.2224
42669SOL    HW232565  11.131   5.482   1.818  2.0488  3.8646  0.4264
42670SOL     OW32566   3.917   0.720   7.314  0.7322 -0.5385 -0.2953
42670SOL    HW132567   3.906   0.733   7.408  1.0875 -0.6700 -0.2326
42670SOL    HW232568   3.990   0.659   7.307  0.9684 -0.2141 -0.6705
42671SOL     OW32569   2.383  11.628  10.924 -0.5422  0.6983  0.3709
42671SOL    HW132570   2.397  11.693  10.993 -1.2402  0.8119  0.4126
42671SOL    HW232571   2.430  11.550  10.954  0.6017  1.2894  0.1485
42672SOL     OW32572   6.722   6.908   2.867  0.3172 -0.2298 -0.1174
42672SOL    HW132573   6.807   6.944   2.890 -0.0406 -0.0823  1.0697
42672SOL    HW232574   6.668   6.921   2.945 -0.9681  0.2058 -1.0331
42673SOL     OW32575  10.350   5.525  10.273 -0.0852  0.0434  0.1646
42673SOL    HW132576  10.266   5.570  10.267 -0.5765 -0.8143  0.3670
42673SOL    HW232577  10.360   5.481  10.189  0.5960  0.8525 -0.1946
42674SOL     OW32578  10.850   5.728   0.459 -0.0088 -0.7064  0.1167
42674SOL    HW132579  10.881   5.747   0.370 -1.5990  1.8865  0.0007
42674SOL    HW232580  10.928   5.737   0.513  0.4361  0.8417 -0.6997
42675SOL     OW32581   5.359   3.134   2.599  0.4514  0.3093 -0.0746
42675SOL    HW132582   5.264   3.144   2.604  0.6916  3.8253 -0.6536
42675SOL    HW232583   5.383   3.165   2.512  2.2124  0.0715  0.2742
42676SOL     OW32584   4.395   3.789   0.270  0.4700  0.6653 -0.1671
42676SOL    HW132585   4.464   3.725   0.249 -0.1997  0.1019 -0.6945
42676SOL    HW232586   4.438   3.852   0.328  0.9919 -0.6327  0.9218
42677SOL     OW32587   3.706  11.453   0.967  0.7132 -0.1196 -0.3425
42677SOL    HW132588   3.727  11.405   1.047  2.3700 -0.4615 -0.9354
42677SOL    HW232589   3.649  11.394   0.918  1.1301 -0.6650 -0.1849
42678SOL     OW32590   9.602  10.575   0.600  0.5992 -0.2726 -0.4427
42678SOL    HW132591   9.564  10.494   0.635  0.2173 -0.4633 -1.2956
42678SOL    HW232592   9.557  10.590   0.518 -0.2792  1.5504  0.3257
42679SOL     OW32593   2.538   7.582   5.953 -0.0975  0.1674 -0.2632
42679SOL    HW132594   2.463   7.638   5.935  0.7072  1.8516  1.2928
42679SOL    HW232595   2.589   7.583   5.872 -0.9239  0.3295 -0.7962
42680SOL     OW32596   7.227  11.145  11.850 -0.6782  0.2088  0.5338
42680SOL    HW132597   7.208  11.114  11.939  1.6308  1.4036  1.5069
42680SOL    HW232598   7.233  11.065  11.797 -0.5372 -0.6184  1.7723
42681SOL     OW32599  11.805   5.798   6.643 -0.1422 -0.0078  0.4585
42681SOL    HW132600  11.815   5.892   6.656 -1.4349  0.1983  0.1562
42681SOL    HW232601  11.892   5.762   6.658  0.5170  1.3059 -0.0650
42682SOL     OW32602   8.838  10.996   6.691  0.2790  0.3082 -0.1586
42682SOL    HW132603   8.824  11.083   6.727  1.1789  0.5590 -0.3907
42682SOL    HW232604   8.927  10.999   6.654 -0.0571 -0.3983 -1.0549
42683SOL     OW32605  11.836   4.007   7.293  0.1694 -0.0157  0.3036
42683SOL    HW132606  11.883   4.074   7.243  0.6531 -0.5404  0.0573
42683SOL    HW232607  11.760   4.054   7.329 -0.5330  0.2263 -1.4059
42684SOL     OW32608  10.903   5.079   2.993 -0.2899  0.4204 -0.0427
42684SOL    HW132609  10.926   5.093   2.901  1.8111 -1.8106  0.0474
42684SOL    HW232610  10.980   5.105   3.042 -0.0275 -1.6486  0.7600
42685SOL     OW32611   5.205   6.837   2.703 -0.3705 -0.1014 -0.5993
42685SOL    HW132612   5.256   6.772   2.751 -1.1475 -0.6483 -0.5006
42685SOL    HW232613   5.140   6.787   2.654 -1.3477  0.6149 -0.0889
42686SOL     OW32614   4.129   5.924   8.183 -0.7954  0.2164 -0.4683
42686SOL    HW132615   4.142   5.993   8.248 -0.7914 -0.0452 -0.1913
42686SOL    HW232616   4.045   5.884   8.206 -0.8334  0.1750 -0.6710
42687SOL     OW32617  12.123   2.329   3.642 -0.0207  0.4435 -0.0112
42687SOL    HW132618  12.114   2.284   3.727  1.1039 -1.1447 -0.6795
42687SOL    HW232619  12.109   2.260   3.577  2.0727  0.9380 -1.0851
42688SOL     OW32620   9.649   1.530   1.703 -0.2816  0.1719  0.9681
42688SOL    HW132621   9.695   1.560   1.625  2.8679 -0.1483  2.5402
42688SOL    HW232622   9.556   1.539   1.681  0.4140  3.5090 -1.4980
42689SOL     OW32623   9.665   7.334   5.803  0.1033 -0.2899  0.3642
42689SOL    HW132624   9.721   7.409   5.823  1.4414 -1.3108  0.5911
42689SOL    HW232625   9.609   7.324   5.881  2.6570 -1.8993  2.1487
42690SOL     OW32626   9.160   9.566   0.521 -0.4311  0.1727  0.1097
42690SOL    HW132627   9.079   9.611   0.547  0.4649  2.8393 -1.2730
42690SOL    HW232628   9.230   9.621   0.556  0.7350  0.3579 -2.3191
42691SOL     OW32629  11.155   0.017   2.508  0.7938 -0.2554 -0.5315
42691SOL    HW132630  11.249   0.015   2.491  0.9844  0.1781  0.4086
42691SOL    HW232631  11.118   0.067   2.435  1.2064 -0.9841 -1.2466
42692SOL     OW32632   6.164   7.132   4.878  0.1533  0.0355 -1.0617
42692SOL    HW132633   6.069   7.117   4.879  0.0195  0.8336 -0.7097
42692SOL    HW232634   6.173   7.227   4.869  0.9002  0.1352  0.3955
42693SOL     OW32635   9.301   9.586   8.927  0.1476 -0.3201 -0.0045
42693SOL    HW132636   9.289   9.671   8.970  1.0349  0.0803 -0.5165
42693SOL    HW232637   9.242   9.589   8.851  0.4805  0.0186 -0.2569
42694SOL     OW32638   0.852   6.522   1.602  0.0053 -0.2881 -0.5883
42694SOL    HW132639   0.935   6.545   1.560  0.1613 -1.3136 -0.8678
42694SOL    HW232640   0.848   6.578   1.680  1.4108 -0.8767 -0.0583
42695SOL     OW32641   5.153  11.686   3.378  0.3723  0.8880  0.1291
42695SOL    HW132642   5.129  11.641   3.459 -0.5519  0.5555 -0.3134
42695SOL    HW232643   5.071  11.694   3.329  0.7480  1.9156 -0.3729
42696SOL     OW32644   9.464   7.481   2.035  0.1234  0.0238  0.2189
42696SOL    HW132645   9.528   7.445   2.097 -0.0220 -3.0113 -1.2037
42696SOL    HW232646   9.396   7.519   2.091  2.3529  1.9700  1.7788
42697SOL     OW32647   4.691   5.786   5.436  0.2006 -0.2284 -0.3248
42697SOL    HW132648   4.667   5.712   5.381  1.0432 -0.4529 -0.4116
42697SOL    HW232649   4.728   5.745   5.515 -2.9963  0.0117  1.4679
42698SOL     OW32650   3.282   8.350   3.574  0.1865 -0.2261 -0.3863
42698SOL    HW132651   3.236   8.339   3.657  0.9574  1.7594  0.3581
42698SOL    HW232652   3.375   8.350   3.598  0.4092  0.7622 -1.1993
42699SOL     OW32653  10.843   6.139   1.138  0.5841  0.5344 -0.2195
42699SOL    HW132654  10.828   6.215   1.082  0.2502  2.0999  1.8912
42699SOL    HW232655  10.887   6.174   1.215  2.2669 -1.7664 -0.0239
42700SOL     OW32656  11.356   0.639   7.206  0.0761  0.1592  0.2070
42700SOL    HW132657  11.374   0.552   7.241 -0.4589  1.0677  2.9719
42700SOL    HW232658  11.260   0.643   7.202  0.0722  0.8694  0.8671
42701SOL     OW32659   3.806   9.557   7.607 -0.4913  0.4240 -0.1010
42701SOL    HW132660   3.853   9.563   7.524  0.5145  0.3616  0.4509
42701SOL    HW232661   3.715   9.577   7.584 -0.2290  0.4402 -1.2071
42702SOL     OW32662   6.525   6.982  10.607 -0.1523  0.2184  0.0448
42702SOL    HW132663   6.432   6.959  10.615  0.1445 -1.0425 -0.0222
42702SOL    HW232664   6.569   6.927  10.672  0.8097 -0.8432 -1.4634
42703SOL     OW32665   0.431   3.113  10.158  0.2779 -0.0117 -0.1704
42703SOL    HW132666   0.439   3.020  10.136  1.6256 -0.2714  1.2996
42703SOL    HW232667   0.516   3.150  10.134  0.3304  0.4965  0.7714
42704SOL     OW32668   5.873  10.395   2.419 -0.5773 -0.4636 -0.2781
42704SOL    HW132669   5.965  10.367   2.422 -0.9816 -1.8121  1.7651
42704SOL    HW232670   5.825  10.315   2.397 -1.3972 -0.2578  0.6954
42705SOL     OW32671   1.189   5.700  10.319 -0.1624 -0.1491  0.8953
42705SOL    HW132672   1.180   5.605  10.325  1.7910 -0.3736  1.1232
42705SOL    HW232673   1.206   5.728  10.409  0.3043  0.2649  0.6843
42706SOL     OW32674   2.852   4.201  11.501  0.0914  0.2333  0.5237
42706SOL    HW132675   2.874   4.190  11.408  0.3466 -0.0545  0.6163
42706SOL    HW232676   2.904   4.276  11.529  0.1213  0.2326  0.4707
42707SOL     OW32677   3.662   7.854   9.810 -0.3230 -0.0863 -0.1904
42707SOL    HW132678   3.716   7.881   9.736 -1.4654 -1.1637 -1.4638
42707SOL    HW232679   3.709   7.781   9.848 -0.3128 -0.2954 -0.5976
42708SOL     OW32680   0.635   2.323   4.460  0.3830  0.2711  0.3184
42708SOL    HW132681   0.718   2.277   4.480  0.3179 -0.1665 -0.3870
42708SOL    HW232682   0.596   2.272   4.389 -1.2931 -0.4950  1.7059
42709SOL     OW32683   3.828   6.841   9.536  0.1254  0.3730  0.1320
42709SOL    HW132684   3.733   6.844   9.523  0.0368 -0.0910  0.6210
42709SOL    HW232685   3.854   6.753   9.509  0.4891  0.6399 -0.4122
42710SOL     OW32686   4.089  11.060   2.506 -0.0430  0.0621  0.2349
42710SOL    HW132687   4.031  11.134   2.526 -3.1919 -2.0720 -0.3021
42710SOL    HW232688   4.106  11.019   2.591  0.9267  0.8102  0.4184
42711SOL     OW32689   7.463   8.209   3.288 -0.2012 -0.1774 -0.0151
42711SOL    HW132690   7.523   8.199   3.363 -0.3854 -1.1680  0.0203
42711SOL    HW232691   7.418   8.125   3.283 -2.6372  0.9768  0.8283
42712SOL     OW32692   9.850   7.008  11.016 -0.1617  0.0600  0.3083
42712SOL    HW132693   9.907   6.982  11.088  0.7255  0.3121 -0.2968
42712SOL    HW232694   9.772   7.042  11.060  0.2613 -0.0088  1.1469
42713SOL     OW32695  10.658   0.073   0.269  0.0802 -0.2846 -0.0306
42713SOL    HW132696  10.751   0.053   0.262  0.2555 -0.4026  2.0970
42713SOL    HW232697  10.653   0.168   0.271  0.6995 -0.1380  4.2098
42714SOL     OW32698  10.940  11.671   1.035 -0.1054  0.0764  0.1024
42714SOL    HW132699  10.996  11.614   0.982  0.8829 -0.2011  1.3976
42714SOL    HW232700  10.878  11.709   0.972  1.2045 -0.0186 -1.3006
42715SOL     OW32701   7.460   3.088   1.180  0.2822 -0.3472 -0.5915
42715SOL    HW132702   7.525   3.150   1.147 -0.7547  1.1582  0.0891
42715SOL    HW232703   7.399   3.076   1.107 -1.4846  2.2570  0.2805
42716SOL     OW32704   6.421   2.614   1.500  0.4642  0.3815 -0.0091
42716SOL    HW132705   6.328   2.590   1.501  1.1187 -2.4765 -0.0843
42716SOL    HW232706   6.435   2.650   1.412 -0.4892  0.5756 -0.0941
42717SOL     OW32707   7.763   9.555  10.913  0.3522 -0.2797  0.7532
42717SOL    HW132708   7.706   9.629  10.934 -0.0269 -0.0369 -0.9624
42717SOL    HW232709   7.802   9.529  10.996  0.5145  1.8740  1.3865
42718SOL     OW32710   2.755  10.671   1.477 -0.1000 -0.0665 -0.2464
42718SOL    HW132711   2.763  10.661   1.382  0.0336 -1.1557 -0.1367
42718SOL    HW232712   2.807  10.748   1.498  0.4778 -0.2461 -0.9788
42719SOL     OW32713   7.807   2.556   6.428  0.3043 -0.0050  0.8100
42719SOL    HW132714   7.898   2.571   6.452  1.0381 -0.6472 -1.3414
42719SOL    HW232715   7.803   2.462   6.409  0.1943  0.5659 -2.6677
42720SOL     OW32716  11.332   8.885   3.488 -0.2818 -0.4053  0.5284
42720SOL    HW132717  11.271   8.951   3.519 -2.9461 -2.3613 -0.2028
42720SOL    HW232718  11.296   8.801   3.518  0.1315 -1.9341 -2.7157
42721SOL     OW32719   6.572   1.437   4.316 -0.1158  0.2895 -0.2604
42721SOL    HW132720   6.548   1.359   4.266  1.3783 -1.8328  2.0981
42721SOL    HW232721   6.488   1.468   4.351 -0.4753 -3.4955  3.0162
42722SOL     OW32722   5.006   1.165   9.348 -0.0471 -0.1608  0.3698
42722SOL    HW132723   5.038   1.115   9.423  0.2171 -0.3117  0.1557
42722SOL    HW232724   4.921   1.198   9.377 -0.0167 -0.3456  0.6804
42723SOL     OW32725   6.062   2.620   8.668 -0.4056 -0.1716  0.0640
42723SOL    HW132726   6.067   2.707   8.709  1.7686 -0.7390  1.1639
42723SOL    HW232727   6.006   2.569   8.727  0.5203 -0.2281  0.9297
42724SOL     OW32728   1.132  10.621   5.459 -0.2265 -0.7338 -0.2906
42724SOL    HW132729   1.210  10.590   5.411 -0.3758  0.1150 -1.1149
42724SOL    HW232730   1.061  10.565   5.428 -0.0953 -0.9836 -0.1433
42725SOL     OW32731   8.870   3.386   5.091 -0.3204 -0.1892  0.2571
42725SOL    HW132732   8.938   3.326   5.061 -0.1479  0.4555 -0.6666
42725SOL    HW232733   8.845   3.352   5.177  1.0314 -0.5384  0.5383
42726SOL     OW32734   8.587  10.787   1.160 -0.0355 -0.2007 -0.3946
42726SOL    HW132735   8.674  10.820   1.178  0.2272 -1.5070  1.0377
42726SOL    HW232736   8.553  10.842   1.090  1.4085  1.2000 -0.0427
42727SOL     OW32737   6.281  11.662  11.511  0.6583  0.3317  0.2718
42727SOL    HW132738   6.283  11.757  11.520 -0.8362  0.4948 -0.9115
42727SOL    HW232739   6.273  11.646  11.417 -0.6526 -0.9110  0.5546
42728SOL     OW32740   4.090   7.078   9.325  0.3401 -0.7961  0.3143
42728SOL    HW132741   4.128   7.030   9.398  0.5535 -0.6186  0.3174
42728SOL    HW232742   4.097   7.017   9.251  1.7720 -0.3105  0.0199
42729SOL     OW32743   0.531  10.664   3.295 -0.4011  0.1655 -0.1149
42729SOL    HW132744   0.606  10.609   3.315 -0.7676  0.1295  1.3509
42729SOL    HW232745   0.463  10.603   3.266 -0.2331  0.0575 -0.2779
42730SOL     OW32746   8.552   1.582   4.433 -0.0319  0.0775  0.0527
42730SOL    HW132747   8.480   1.564   4.493 -0.1247  0.4986  0.0686
42730SOL    HW232748   8.523   1.657   4.381  0.1838 -0.0727 -0.2899
42731SOL     OW32749   1.406  10.700   0.465  0.2391 -0.5711 -0.1365
42731SOL    HW132750   1.474  10.736   0.521  1.6133 -0.5631 -1.7406
42731SOL    HW232751   1.452  10.666   0.389 -1.5650 -0.3609 -1.4017
42732SOL     OW32752  11.187   5.906  10.118  0.3786  0.1798 -0.2359
42732SOL    HW132753  11.111   5.947  10.076 -0.0134 -1.2241 -0.9430
42732SOL    HW232754  11.208   5.832  10.062  1.2296 -0.4392  0.8771
42733SOL     OW32755   6.452   5.396   5.032 -0.2611 -0.3298  0.1232
42733SOL    HW132756   6.515   5.468   5.036  0.2681 -0.7329 -0.5550
42733SOL    HW232757   6.496   5.330   4.978 -0.2073 -1.6886  1.7577
42734SOL     OW32758   0.457  10.176   8.647  0.3861  0.2182 -0.0362
42734SOL    HW132759   0.484  10.084   8.654 -1.2443 -0.2946 -0.0493
42734SOL    HW232760   0.432  10.187   8.555 -2.5362 -0.3087  0.5932
42735SOL     OW32761   2.331   1.267   5.871 -0.2594 -0.3352  0.4939
42735SOL    HW132762   2.292   1.198   5.817 -0.7878  0.5509 -0.3025
42735SOL    HW232763   2.425   1.258   5.857 -0.1799 -2.0542  1.8751
42736SOL     OW32764  11.008   6.413   9.247  0.0838 -0.1840  0.1071
42736SOL    HW132765  10.966   6.375   9.325  0.8509 -0.9359  0.1614
42736SOL    HW232766  11.101   6.412   9.266  0.2286  0.3549 -0.5141
42737SOL     OW32767  10.972   6.720   0.720  0.6311 -0.0985  0.0246
42737SOL    HW132768  10.941   6.749   0.634  0.9151  0.3497  0.0679
42737SOL    HW232769  10.999   6.629   0.706 -0.6725 -0.5027 -0.0187
42738SOL     OW32770   0.438   0.110   0.191  0.1896  0.0370 -0.0638
42738SOL    HW132771   0.431   0.024   0.232  0.1037  0.8694  1.8110
42738SOL    HW232772   0.532   0.124   0.179  0.3352  0.2923  1.1487
42739SOL     OW32773  11.526   3.306   3.773  0.0047  0.2616  1.3423
42739SOL    HW132774  11.603   3.261   3.806 -0.4374 -0.3322  1.5940
42739SOL    HW232775  11.544   3.321   3.680 -0.1731 -1.2167  1.0431
42740SOL     OW32776   0.821  10.375   3.054  0.2375  0.2744 -0.0156
42740SOL    HW132777   0.820  10.449   2.994 -0.4640  0.9974  0.8779
42740SOL    HW232778   0.894  10.321   3.023  0.4543  1.0798 -0.9634
42741SOL     OW32779  11.251   1.288   9.878 -0.2511 -0.3634  0.0126
42741SOL    HW132780  11.231   1.286   9.784 -0.8102 -0.9126  0.1405
42741SOL    HW232781  11.328   1.233   9.887  0.3226  0.3785 -0.2385
42742SOL     OW32782   9.956   9.228   3.559 -0.0840  0.7315 -0.3153
42742SOL    HW132783   9.909   9.177   3.493  1.3179 -1.7449  0.4862
42742SOL    HW232784   9.896   9.230   3.634 -0.8546  1.8405 -0.9258
42743SOL     OW32785   3.888   1.801   8.662 -0.3696  0.3525  0.3649
42743SOL    HW132786   3.893   1.814   8.757  1.5960  0.2466  0.3179
42743SOL    HW232787   3.970   1.757   8.640 -0.6098  0.7614 -1.4480
42744SOL     OW32788   4.418   4.988   9.956 -0.2432 -0.1627 -0.0297
42744SOL    HW132789   4.441   5.059   9.896  0.9334 -1.1528 -0.7952
42744SOL    HW232790   4.477   4.998  10.030 -1.2563  0.6656  0.7046
42745SOL     OW32791   8.354   1.335  10.616 -0.5586  0.5320 -0.1992
42745SOL    HW132792   8.286   1.317  10.680 -0.9145  0.3212 -0.6320
42745SOL    HW232793   8.371   1.250  10.575 -0.5354  0.7196 -0.5801
42746SOL     OW32794   2.296   0.391   2.665 -0.5536  0.4239  0.0016
42746SOL    HW132795   2.258   0.472   2.700 -0.7340 -0.2908  1.5699
42746SOL    HW232796   2.222   0.342   2.632 -0.4150  0.9848 -1.1827
42747SOL     OW32797   1.372   2.107   3.312  0.2941  0.1548  0.2087
42747SOL    HW132798   1.423   2.029   3.334  2.2158  1.4596  0.7015
42747SOL    HW232799   1.354   2.148   3.397  0.3618  0.8658 -0.1128
42748SOL     OW32800   3.410   7.895   4.980  0.0543  0.3581 -0.0743
42748SOL    HW132801   3.383   7.970   5.032  0.2867  1.3843 -1.3644
42748SOL    HW232802   3.382   7.819   5.030 -1.4286  1.3293  0.6254
42749SOL     OW32803   1.984   2.177   1.657 -0.1294  0.1126 -0.5095
42749SOL    HW132804   1.923   2.193   1.585 -0.4793 -0.3002 -0.3109
42749SOL    HW232805   2.070   2.178   1.615 -0.3003  0.2869 -0.8645
42750SOL     OW32806  12.085  11.204  10.729  0.7832 -0.1744 -0.1428
42750SOL    HW132807  12.122  11.199  10.641 -0.0470 -0.7558 -0.4740
42750SOL    HW232808  12.031  11.284  10.728  1.8461  0.5725  0.2828
42751SOL     OW32809  10.907  11.031   8.252 -0.4052 -0.5879  0.1765
42751SOL    HW132810  10.937  10.942   8.274  0.6930 -0.8648 -2.1900
42751SOL    HW232811  10.926  11.082   8.331  0.6620 -2.0754  0.9448
42752SOL     OW32812   9.637   4.474   5.364 -0.4085 -0.2123 -0.2776
42752SOL    HW132813   9.658   4.380   5.359 -0.3031 -0.2070  0.0984
42752SOL    HW232814   9.618   4.498   5.273  1.8423 -0.0667 -0.7773
42753SOL     OW32815   7.586   7.344   3.220  0.1616  0.5294 -0.3867
42753SOL    HW132816   7.576   7.437   3.240 -1.1429  0.3025  0.1726
42753SOL    HW232817   7.550   7.334   3.132  0.7859  0.6401 -0.6534
42754SOL     OW32818   2.216  11.308   1.340 -0.0065  0.1990 -0.8503
42754SOL    HW132819   2.226  11.312   1.435  0.5469  0.5501 -0.9229
42754SOL    HW232820   2.130  11.267   1.328 -1.0131  1.9705 -0.1701
42755SOL     OW32821  10.051   5.859   1.587 -0.1816  0.1857  0.2041
42755SOL    HW132822  10.034   5.921   1.657 -0.4939 -0.0838  0.3698
42755SOL    HW232823  10.143   5.874   1.563  0.2024 -0.3389  1.2840
42756SOL     OW32824   0.725  10.499   6.193 -0.6940  0.2844 -0.0922
42756SOL    HW132825   0.723  10.592   6.218  0.8085  0.1850  0.5067
42756SOL    HW232826   0.664  10.457   6.254 -0.5904  0.7304  0.3306
42757SOL     OW32827   7.012   5.828   9.261  0.3598 -0.4970 -0.1196
42757SOL    HW132828   6.932   5.881   9.256  0.7612  0.1133 -0.1846
42757SOL    HW232829   7.031   5.823   9.354  1.0829  0.6535 -0.1861
42758SOL     OW32830   8.213   6.392  10.700 -0.5843  0.1560 -0.4080
42758SOL    HW132831   8.263   6.312  10.685  0.0368  0.2695  0.9095
42758SOL    HW232832   8.174   6.380  10.787 -0.3822  1.3347 -0.1388
42759SOL     OW32833   5.362   8.462   2.548 -0.4080  0.0425 -0.0953
42759SOL    HW132834   5.456   8.441   2.553 -0.8152 -1.7412  0.8869
42759SOL    HW232835   5.346   8.516   2.626 -0.1595  0.6383 -0.4439
42760SOL     OW32836   7.929   1.678   2.713 -0.6958  0.2370  0.2789
42760SOL    HW132837   7.988   1.719   2.776 -1.8075  1.5437  0.5172
42760SOL    HW232838   7.987   1.627   2.656  0.5304  0.5569  1.1893
42761SOL     OW32839   5.528   2.443   6.253 -0.2559 -0.4409  0.4613
42761SOL    HW132840   5.570   2.380   6.195 -1.4952 -1.6460  0.8107
42761SOL    HW232841   5.515   2.395   6.335 -1.4054  0.1837  0.6693
42762SOL     OW32842   6.587   5.100   3.848 -0.0108  0.4221 -0.5925
42762SOL    HW132843   6.667   5.090   3.899  0.8121 -0.4325 -1.9855
42762SOL    HW232844   6.601   5.179   3.796  0.8750 -0.8411 -2.3834
42763SOL     OW32845   6.544  12.082   5.438 -0.0338  0.5472  0.4974
42763SOL    HW132846   6.532  12.108   5.529  0.2775  0.3033  0.6084
42763SOL    HW232847   6.547  12.165   5.389 -2.7751  0.6657  0.3663
42764SOL     OW32848  10.872   0.246  12.052  0.2981 -0.3588 -0.4502
42764SOL    HW132849  10.889   0.326  12.103  0.8416  0.1160 -1.3441
42764SOL    HW232850  10.895   0.175  12.112  0.0801  0.1560  0.2664
42765SOL     OW32851  10.071   9.083   8.393 -0.0961 -0.1512 -0.5326
42765SOL    HW132852  10.146   9.036   8.357  0.7999  0.8922 -0.0787
42765SOL    HW232853  10.028   9.121   8.317  1.1297  1.0918 -0.6358
42766SOL     OW32854   7.270   1.763   4.697  0.3604 -0.2663 -0.2098
42766SOL    HW132855   7.298   1.706   4.769 -0.7256 -0.8266 -0.2122
42766SOL    HW232856   7.183   1.794   4.723 -0.5320 -1.3589 -1.7678
42767SOL     OW32857  11.906   2.099   0.609  0.3482 -0.1071  0.1769
42767SOL    HW132858  11.909   2.151   0.689 -0.0160  2.6669 -1.4783
42767SOL    HW232859  11.853   2.023   0.631 -0.9464  1.2975  2.1791
42768SOL     OW32860   0.271   0.796   0.364 -0.1880 -0.2183  0.2229
42768SOL    HW132861   0.358   0.785   0.326 -1.0523  0.7982 -2.2489
42768SOL    HW232862   0.287   0.836   0.449  1.7247  0.9673 -0.6353
42769SOL     OW32863   8.436   3.516   2.230  0.1465  0.1693 -0.2696
42769SOL    HW132864   8.492   3.515   2.308  0.7880 -1.3190 -0.7231
42769SOL    HW232865   8.497   3.505   2.157 -0.7015 -1.4627 -0.7850
42770SOL     OW32866   2.636   2.422   7.395 -0.2166  0.0058 -0.4820
42770SOL    HW132867   2.697   2.389   7.328  0.3406  0.1848 -0.0706
42770SOL    HW232868   2.692   2.442   7.470 -0.7353  0.5428 -0.2357
42771SOL     OW32869   1.364   0.762  11.874  0.5108  0.3671 -0.2276
42771SOL    HW132870   1.329   0.680  11.838  1.6389 -0.8998  1.4330
42771SOL    HW232871   1.418   0.799  11.804  0.1568 -0.4020 -0.9164
42772SOL     OW32872   9.490   7.150   9.795  0.0924 -0.1393  0.3609
42772SOL    HW132873   9.480   7.102   9.878  1.4555  0.8363  1.1399
42772SOL    HW232874   9.406   7.194   9.782  0.0776  0.2286  1.5933
42773SOL     OW32875  10.035   8.347   9.802 -0.4724 -0.4555  0.2841
42773SOL    HW132876   9.942   8.363   9.819 -0.0679  0.2368  2.0000
42773SOL    HW232877  10.065   8.428   9.760 -0.8012 -1.0036 -1.0625
42774SOL     OW32878   7.426  10.872   4.199 -0.1754  0.0038 -0.6963
42774SOL    HW132879   7.355  10.819   4.162 -0.9238  1.8557 -2.0469
42774SOL    HW232880   7.437  10.944   4.137  1.4071  0.9524  0.6121
42775SOL     OW32881   6.234   3.737  10.781 -0.1205  0.9247  0.0827
42775SOL    HW132882   6.140   3.722  10.793  0.1812 -1.5996 -0.1444
42775SOL    HW232883   6.253   3.817  10.830 -2.3695  1.4847  0.1211
42776SOL     OW32884   1.734   5.345   3.761  0.0869  0.0585  0.6294
42776SOL    HW132885   1.737   5.265   3.814  1.4429 -0.5802 -0.3469
42776SOL    HW232886   1.735   5.314   3.671 -4.0600  1.0564  0.0707
42777SOL     OW32887  11.984   3.025  11.614  0.6002  0.1782  0.0343
42777SOL    HW132888  11.904   3.051  11.568  0.4320 -1.5048 -0.7062
42777SOL    HW232889  12.047   3.008  11.544  0.8473 -0.8491  0.4917
42778SOL     OW32890   4.188  10.898  11.104 -0.2432 -0.9606 -0.4504
42778SOL    HW132891   4.252  10.832  11.130  0.1922 -0.1773  0.5352
42778SOL    HW232892   4.168  10.878  11.012  0.8716 -1.6545 -0.5543
42779SOL     OW32893   9.729   0.851   7.791 -0.0628  0.7464  0.2593
42779SOL    HW132894   9.758   0.917   7.854  2.7193  0.1931 -0.2957
42779SOL    HW232895   9.791   0.858   7.719 -1.7370 -0.2448 -1.3567
42780SOL     OW32896   8.422   1.511  10.429 -0.0913  0.4934 -0.2342
42780SOL    HW132897   8.393   1.457  10.502  0.3306  1.7445  0.8839
42780SOL    HW232898   8.504   1.471  10.400  0.5186  0.8186  0.9562
42781SOL     OW32899  10.692   6.397  10.505  0.1736  0.0843 -0.1065
42781SOL    HW132900  10.719   6.466  10.445  0.9409 -1.6267 -1.8332
42781SOL    HW232901  10.702   6.316  10.455 -0.0702 -1.3568  2.0330
42782SOL     OW32902   0.497   9.201   8.005 -0.1058  0.1837 -0.0078
42782SOL    HW132903   0.517   9.274   8.064  1.0065 -0.9110  1.0175
42782SOL    HW232904   0.446   9.140   8.058  1.2812 -1.0192 -0.0019
42783SOL     OW32905  10.897  10.298  11.967  0.0434 -0.2902 -0.1438
42783SOL    HW132906  10.811  10.279  11.929 -0.2230 -2.3846  1.3535
42783SOL    HW232907  10.877  10.348  12.046  0.2944  0.1022 -0.3239
42784SOL     OW32908   6.863  11.688   7.246 -0.2784  0.1756 -0.2583
42784SOL    HW132909   6.938  11.659   7.194  0.9782  0.9710  1.0561
42784SOL    HW232910   6.830  11.765   7.198 -0.9455 -0.7827 -1.4015
42785SOL     OW32911  11.750   8.266   8.463 -0.3753  0.3214 -0.5432
42785SOL    HW132912  11.821   8.324   8.492 -1.8832  1.9029  0.1531
42785SOL    HW232913  11.789   8.178   8.465  1.3031  1.0342  0.6338
42786SOL     OW32914   4.274   0.483  10.782  0.3364 -0.2628  0.3760
42786SOL    HW132915   4.302   0.574  10.769 -0.8144  0.0476 -0.0221
42786SOL    HW232916   4.308   0.460  10.868  3.3212 -0.5046 -0.7279
42787SOL     OW32917  11.045   4.759  10.508 -0.4852 -0.5579  0.1834
42787SOL    HW132918  11.111   4.691  10.495  0.1466 -0.2796  1.7027
42787SOL    HW232919  10.967   4.711  10.538 -0.1050 -0.6406  1.0560
42788SOL     OW32920   0.793   6.825   6.397  0.1351  0.5065  0.2056
42788SOL    HW132921   0.802   6.911   6.357 -0.3744  0.2009 -0.6011
42788SOL    HW232922   0.879   6.783   6.384  0.5129  1.0317  0.9630
42789SOL     OW32923   9.701   5.993   8.105  0.1100 -0.1537 -0.7359
42789SOL    HW132924   9.621   6.042   8.085 -0.2900 -0.1437  0.7299
42789SOL    HW232925   9.679   5.945   8.186  1.9540  0.8011  0.3939
42790SOL     OW32926   6.389   6.965   7.145  0.0020  0.4144 -0.7993
42790SOL    HW132927   6.479   6.935   7.151 -0.6212 -1.4301  0.0677
42790SOL    HW232928   6.341   6.890   7.109 -1.4178  0.8104  0.1796
42791SOL     OW32929  11.516   4.265   8.841  0.7890  0.0966  0.1185
42791SOL    HW132930  11.514   4.335   8.906  0.9079  1.1277 -0.9640
42791SOL    HW232931  11.556   4.304   8.764 -0.4474 -0.7313 -1.0044
42792SOL     OW32932  11.121   4.116  11.707 -0.0074 -0.0924  0.2554
42792SOL    HW132933  11.029   4.102  11.686  0.4415 -1.0823 -1.1365
42792SOL    HW232934  11.161   4.147  11.626  0.8201  0.7426  0.9516
42793SOL     OW32935   4.568   7.560   7.219  0.0697 -0.6848 -0.1748
42793SOL    HW132936   4.593   7.652   7.220 -1.2924 -0.2758 -0.4382
42793SOL    HW232937   4.573   7.532   7.311  2.0621 -0.8339 -0.3000
42794SOL     OW32938   5.717   3.620   1.238  0.0516  0.6982 -0.2449
42794SOL    HW132939   5.691   3.533   1.268 -1.7190  1.4541  0.5136
42794SOL    HW232940   5.812   3.622   1.250  0.1427 -1.1471 -0.3775
42795SOL     OW32941   4.069   8.331   2.343  0.2521  0.1765  0.1299
42795SOL    HW132942   4.073   8.387   2.420  1.7940 -0.7125  0.7543
42795SOL    HW232943   4.118   8.378   2.275 -1.1777  0.9965 -0.3535
42796SOL     OW32944   0.384   2.537   4.401  0.1990 -0.0219  0.3189
42796SOL    HW132945   0.383   2.453   4.355 -1.4800  0.0483  0.1441
42796SOL    HW232946   0.401   2.602   4.334 -0.7762 -0.0440  0.0400
42797SOL     OW32947   7.245   6.451  11.277  0.8480 -0.0227  0.0344
42797SOL    HW132948   7.291   6.475  11.357  1.2584  0.1703 -0.2553
42797SOL    HW232949   7.282   6.508  11.209 -0.1506  0.4706 -0.1179
42798SOL     OW32950  10.919   0.649  10.027 -0.3489  0.0892 -0.0317
42798SOL    HW132951  10.952   0.695   9.951  1.2789 -0.3541  0.3759
42798SOL    HW232952  10.989   0.589  10.052 -1.7365 -1.3996  0.4638
42799SOL     OW32953   7.362   3.808  11.873 -0.1232  0.4320 -0.0832
42799SOL    HW132954   7.333   3.722  11.902  3.1908 -0.3040  1.4292
42799SOL    HW232955   7.329   3.868  11.940 -0.8926  0.1366 -0.1836
42800SOL     OW32956  11.573  10.955   4.557  0.5756  0.0305  0.3453
42800SOL    HW132957  11.502  11.001   4.512 -0.1991  0.3688  1.8305
42800SOL    HW232958  11.598  10.885   4.497  0.0013  0.7970 -0.8460
42801SOL     OW32959   9.537   2.414   0.272  0.3976 -0.0934 -0.0195
42801SOL    HW132960   9.527   2.320   0.261 -1.7247 -0.0914  1.3321
42801SOL    HW232961   9.513   2.431   0.363  0.0212  1.8313 -0.4259
42802SOL     OW32962   4.783   2.192   3.670 -0.1826  0.2170 -0.1007
42802SOL    HW132963   4.773   2.185   3.575  1.1360 -0.4560 -0.2008
42802SOL    HW232964   4.818   2.280   3.683  2.1899 -0.5873 -0.5032
42803SOL     OW32965   4.915   2.264   0.257  0.9328  0.0737  0.2911
42803SOL    HW132966   4.959   2.187   0.222 -0.9120 -0.9591  0.1505
42803SOL    HW232967   4.840   2.277   0.199  0.3729  1.0960  1.2082
42804SOL     OW32968   8.283   5.360  11.503 -0.0211  0.8210  0.1151
42804SOL    HW132969   8.248   5.275  11.531 -0.0366  1.0829  0.9187
42804SOL    HW232970   8.205   5.411  11.480  0.0049  0.5221 -0.6871
42805SOL     OW32971   5.124   3.807   4.166  0.1828 -0.4484  0.1133
42805SOL    HW132972   5.029   3.799   4.153 -0.0970 -0.0303  1.7608
42805SOL    HW232973   5.159   3.807   4.077 -1.3989 -0.1622 -0.5594
42806SOL     OW32974   0.303   2.360   1.770  0.2986  0.0058  0.1357
42806SOL    HW132975   0.355   2.376   1.849 -0.5857  0.9096  0.5585
42806SOL    HW232976   0.213   2.353   1.803 -0.0156 -0.1479 -0.7420
42807SOL     OW32977   5.265   2.584   1.026 -0.2918  0.1634 -0.0573
42807SOL    HW132978   5.261   2.674   0.993  0.1513 -0.0107 -0.6130
42807SOL    HW232979   5.174   2.559   1.039 -0.3843  0.9845  0.9331
42808SOL     OW32980   6.866   1.518   7.055  0.3146 -0.0724 -0.2796
42808SOL    HW132981   6.850   1.563   7.138 -1.1346  1.5193 -1.3626
42808SOL    HW232982   6.879   1.426   7.080  1.2504  0.5570  1.8043
42809SOL     OW32983   7.024  10.294   9.805  0.1089  0.0342 -0.2528
42809SOL    HW132984   7.042  10.350   9.729  0.1616 -1.2052 -1.1794
42809SOL    HW232985   7.108  10.286   9.849  0.2396  0.1590 -0.4773
42810SOL     OW32986   0.887   2.313   9.484  0.0403  0.3276 -0.5728
42810SOL    HW132987   0.909   2.406   9.475  0.5785  0.2094 -0.5512
42810SOL    HW232988   0.955   2.268   9.434  2.1015 -0.2597  2.4884
42811SOL     OW32989   5.645  10.643   5.614  0.2096 -0.6274  0.3920
42811SOL    HW132990   5.701  10.688   5.550 -1.1827  0.2950 -0.2402
42811SOL    HW232991   5.703  10.581   5.658  2.0839  1.4187  0.9230
42812SOL     OW32992   4.330   9.174   1.878 -0.1146  0.0337  0.5193
42812SOL    HW132993   4.400   9.183   1.814 -0.9381  0.7357 -0.3247
42812SOL    HW232994   4.279   9.099   1.847  1.0768 -1.4508  1.9744
42813SOL     OW32995   0.481   9.151   2.008 -0.4478  0.1154  0.2032
42813SOL    HW132996   0.516   9.189   2.089 -0.2666  2.3231 -0.8341
42813SOL    HW232997   0.390   9.131   2.027 -0.1707 -0.2068  1.2078
42814SOL     OW32998   3.957   3.330   8.383  0.2066  0.2992  0.0776
42814SOL    HW132999   4.048   3.359   8.397  0.2687  0.7460 -1.1252
42814SOL    HW233000   3.924   3.311   8.471  1.3725  0.4146  0.5598
42815SOL     OW33001   8.569   0.965   5.132 -0.8388 -0.4752 -0.7475
42815SOL    HW133002   8.648   0.920   5.103  0.6080  0.7932  1.0004
42815SOL    HW233003   8.558   0.937   5.223 -0.7832  1.4278 -0.1053
42816SOL     OW33004   3.620   8.221   9.953 -0.0551 -0.2416 -0.8853
42816SOL    HW133005   3.551   8.194   9.891  1.4546  0.1839 -2.8466
42816SOL    HW233006   3.679   8.275   9.901  1.7720 -0.5681  0.7493
42817SOL     OW33007   1.541   3.728   7.244 -0.1244  0.9049 -0.3065
42817SOL    HW133008   1.636   3.738   7.254 -0.2314  1.1428  0.5094
42817SOL    HW233009   1.507   3.818   7.246 -0.2592  0.9229 -1.9079
42818SOL     OW33010   9.409   7.570   6.147  0.1447 -0.0256 -0.6236
42818SOL    HW133011   9.445   7.651   6.112  0.5502  0.8192  1.6346
42818SOL    HW233012   9.450   7.501   6.094  0.4396  1.1869 -2.0189
42819SOL     OW33013  12.081   6.485   0.549 -0.2215 -0.3912 -0.0854
42819SOL    HW133014  12.145   6.451   0.487 -0.9418 -1.8719 -0.0698
42819SOL    HW233015  12.090   6.430   0.626 -1.4257 -0.5773 -0.0478
42820SOL     OW33016  10.818   0.690   6.782 -0.1655  0.7449  0.2222
42820SOL    HW133017  10.764   0.640   6.844 -1.2899  0.0285 -1.2756
42820SOL    HW233018  10.887   0.729   6.836 -1.3552  0.5065  1.9719
42821SOL     OW33019  10.301   3.574   0.489 -0.2154  0.2289 -0.1934
42821SOL    HW133020  10.349   3.564   0.407 -0.9169 -0.4612 -0.5353
42821SOL    HW233021  10.210   3.586   0.461 -0.5484 -0.6241  0.5073
42822SOL     OW33022  10.060   9.126  10.668 -0.0819  0.1929  0.0254
42822SOL    HW133023   9.987   9.078  10.628 -0.0398  0.0669  0.0962
42822SOL    HW233024  10.033   9.139  10.759 -0.8004  1.7378 -0.3875
42823SOL     OW33025   3.453   5.132   6.882 -0.0036 -0.3494 -0.0201
42823SOL    HW133026   3.540   5.092   6.875 -0.1338 -0.7228  0.4429
42823SOL    HW233027   3.401   5.068   6.930 -0.5946 -0.2123 -0.4693
42824SOL     OW33028   9.532   6.439   5.951 -0.0623  0.2242 -0.2016
42824SOL    HW133029   9.524   6.433   6.046  0.0631 -1.5638 -0.2634
42824SOL    HW233030   9.549   6.349   5.923  1.6511  0.9818 -1.7723
42825SOL     OW33031  10.692   6.085  10.526  0.4699  0.0225 -0.2640
42825SOL    HW133032  10.697   5.994  10.495 -0.7243 -0.2052  0.1555
42825SOL    HW233033  10.614   6.120  10.483  0.6185  0.6810 -0.0034
42826SOL     OW33034   9.331   4.917  11.925  0.5496 -0.5342  0.2376
42826SOL    HW133035   9.245   4.919  11.967 -0.3774  0.8427 -1.5711
42826SOL    HW233036   9.389   4.876  11.990 -0.9848  0.5027  2.3803
42827SOL     OW33037   1.339   8.282  11.251  0.3358 -0.3543  1.0865
42827SOL    HW133038   1.281   8.349  11.216  0.2103  0.2282  2.3513
42827SOL    HW233039   1.427   8.312  11.229  0.5580  2.2032  4.6624
42828SOL     OW33040   5.582   0.979   8.567  0.3980  0.2382  0.0898
42828SOL    HW133041   5.577   1.052   8.628 -1.3513  1.2486 -1.1878
42828SOL    HW233042   5.494   0.971   8.531  0.7312 -2.0437 -0.3684
42829SOL     OW33043   2.142   3.309  10.437 -0.1276  0.2861  0.4059
42829SOL    HW133044   2.127   3.349  10.351  1.5769  0.2431  0.0580
42829SOL    HW233045   2.202   3.237  10.420  0.1301  0.1875  1.6298
42830SOL     OW33046   6.995   1.195   4.738  0.2355  0.1277  0.3947
42830SOL    HW133047   6.912   1.243   4.735  0.6524  0.8515 -0.3138
42830SOL    HW233048   7.020   1.187   4.646  0.6536 -0.6122  0.5723
42831SOL     OW33049   3.221  10.305   5.015  0.2334 -0.5557  0.2869
42831SOL    HW133050   3.169  10.324   4.936 -4.4137  1.4980  3.3550
42831SOL    HW233051   3.195  10.216   5.040  2.0680 -1.3917 -0.6083
42832SOL     OW33052   8.449   6.334  10.419 -0.5573  0.0223  0.3615
42832SOL    HW133053   8.367   6.288  10.403 -0.0927 -0.2540 -1.5555
42832SOL    HW233054   8.504   6.271  10.465  0.4024 -1.8836 -3.0237
42833SOL     OW33055  10.878   6.344   6.912  0.2412  0.1530 -0.2429
42833SOL    HW133056  10.824   6.293   6.851 -2.5661  0.3354  1.9034
42833SOL    HW233057  10.862   6.435   6.887  0.4270  0.1780 -0.2729
42834SOL     OW33058   9.924   8.493  11.556  0.0983  0.2556  0.4984
42834SOL    HW133059   9.989   8.426  11.534 -0.4064  0.3941 -1.6226
42834SOL    HW233060   9.971   8.576  11.547  0.6793  0.2543  2.9714
42835SOL     OW33061   9.174   5.721   6.617 -0.5186  0.1417  0.3092
42835SOL    HW133062   9.096   5.680   6.654  0.9659 -1.2672  2.0665
42835SOL    HW233063   9.207   5.778   6.687 -0.7448  1.9171 -0.9486
42836SOL     OW33064  10.979   2.535   2.872  0.4804  0.1029 -0.2342
42836SOL    HW133065  10.942   2.494   2.793 -1.2410  0.6299  0.2509
42836SOL    HW233066  10.930   2.617   2.881  0.0017 -0.3541  1.8638
42837SOL     OW33067   2.866   6.264   6.886 -0.3106  0.2430 -0.9126
42837SOL    HW133068   2.961   6.273   6.894 -0.3999  0.8841 -0.4763
42837SOL    HW233069   2.849   6.171   6.902  0.0444  0.4989  1.1675
42838SOL     OW33070  10.318  12.086   0.690 -0.3007  0.3910 -0.1809
42838SOL    HW133071  10.268  12.024   0.637  1.4526 -0.5051 -0.8901
42838SOL    HW233072  10.349  12.034   0.765 -0.4865  0.9330  0.2738
42839SOL     OW33073   0.510   7.133   7.384  0.0883  0.1976 -0.1958
42839SOL    HW133074   0.441   7.072   7.358  0.3797 -0.0130 -0.4748
42839SOL    HW233075   0.570   7.135   7.309  1.6994 -1.4919  0.9671
42840SOL     OW33076   6.417   9.472   0.176 -0.0363 -0.1335 -0.2863
42840SOL    HW133077   6.398   9.533   0.248 -0.8317  0.7911 -1.2502
42840SOL    HW233078   6.486   9.515   0.125  2.2170 -1.8294  1.1408
42841SOL     OW33079   9.593   2.436   1.318  0.0180 -0.2338  0.0601
42841SOL    HW133080   9.569   2.349   1.285 -0.0765 -0.7071  1.3313
42841SOL    HW233081   9.558   2.497   1.252 -2.9866 -0.9887  0.7950
42842SOL     OW33082   5.645   6.172   6.880 -0.4523  0.9346 -0.0795
42842SOL    HW133083   5.703   6.191   6.954  0.5272  0.9611 -0.8324
42842SOL    HW233084   5.616   6.258   6.850  1.6917  1.1899 -1.6821
42843SOL     OW33085   5.297   2.090   0.028 -0.2893  0.8426  0.0583
42843SOL    HW133086   5.244   2.012   0.011  1.5828 -0.1711 -1.6122
42843SOL    HW233087   5.271   2.152  -0.040 -1.1750  1.3676  0.8640
42844SOL     OW33088  11.470   3.057   8.749  0.1140  0.5503  0.2656
42844SOL    HW133089  11.546   3.054   8.808  0.2731  1.6239  0.1451
42844SOL    HW233090  11.478   3.142   8.705 -1.9017  1.3100  1.2443
42845SOL     OW33091  11.795   6.216   2.134 -0.4573 -0.8301  0.0908
42845SOL    HW133092  11.797   6.263   2.051  0.8356  0.7559  0.9686
42845SOL    HW233093  11.745   6.136   2.115 -1.8879  0.3960 -1.7094
42846SOL     OW33094   3.995  11.101   0.939  0.0507 -0.6316  0.1065
42846SOL    HW133095   4.087  11.087   0.916  0.8001 -0.2489  2.5039
42846SOL    HW233096   3.981  11.042   1.014 -1.2783  0.2100  0.5493
42847SOL     OW33097  12.013   4.258   2.041  0.1760 -0.2610  0.0737
42847SOL    HW133098  12.008   4.351   2.063 -1.1993 -0.5144  0.8864
42847SOL    HW233099  12.013   4.256   1.945 -0.1463  0.5492  0.0532
42848SOL     OW33100   3.862   5.466   2.785 -0.5189 -0.4549 -0.8066
42848SOL    HW133101   3.924   5.466   2.712 -0.6721  1.1482 -0.9648
42848SOL    HW233102   3.873   5.552   2.826 -2.6358 -0.1115 -0.8449
42849SOL     OW33103   1.123   5.273   6.124 -0.2971  0.0319  0.4890
42849SOL    HW133104   1.108   5.274   6.029 -0.7434 -2.2833  0.4663
42849SOL    HW233105   1.102   5.361   6.153  2.2141  1.5553 -1.8751
42850SOL     OW33106   2.570   0.583   4.792 -0.2864 -0.0092 -0.5324
42850SOL    HW133107   2.540   0.553   4.878 -1.4608  1.5663 -0.3319
42850SOL    HW233108   2.662   0.606   4.805 -0.3471 -0.1421  0.1940
42851SOL     OW33109   8.275  10.155   0.794  0.3271 -0.0175 -0.3296
42851SOL    HW133110   8.254  10.165   0.887 -0.3625 -0.0915 -0.4706
42851SOL    HW233111   8.355  10.206   0.782  0.7912 -0.5447  0.4382
42852SOL     OW33112   8.794  10.359   9.996 -0.4087  0.3630  0.2011
42852SOL    HW133113   8.789  10.411   9.916  0.8945 -1.7701 -1.3822
42852SOL    HW233114   8.880  10.381  10.034 -0.5037  0.4646  0.3589
42853SOL     OW33115   8.144   2.427  10.879 -0.3800  0.8151 -0.2888
42853SOL    HW133116   8.160   2.449  10.971  1.3035 -1.4790  0.0622
42853SOL    HW233117   8.095   2.345  10.882 -1.2471  1.2609 -1.4821
42854SOL     OW33118  11.479   2.413   8.521 -0.6576  0.0598  0.4905
42854SOL    HW133119  11.574   2.419   8.506 -0.9008  1.0018 -0.8064
42854SOL    HW233120  11.456   2.324   8.494 -0.1773 -0.1312  0.6823
42855SOL     OW33121  11.888   7.443   7.811  0.0754 -0.2073 -0.6929
42855SOL    HW133122  11.887   7.530   7.851 -1.8807  0.5191 -2.1425
42855SOL    HW233123  11.885   7.460   7.717 -0.3516 -1.8388 -0.9993
42856SOL     OW33124  10.867   2.898   5.322  0.7741  0.2652 -0.1032
42856SOL    HW133125  10.779   2.917   5.355  0.9170 -1.1945  1.2731
42856SOL    HW233126  10.892   2.975   5.271 -0.6984  1.3360  0.7371
42857SOL     OW33127   4.695   2.465   4.601 -0.6408  0.7535 -0.2807
42857SOL    HW133128   4.715   2.559   4.600 -0.1031  0.6373 -1.2898
42857SOL    HW233129   4.710   2.436   4.511 -1.6021 -0.1408 -0.1728
42858SOL     OW33130   1.277   3.255   3.497  0.4568 -0.4798 -0.1822
42858SOL    HW133131   1.312   3.195   3.431 -1.6683 -0.8448 -1.0516
42858SOL    HW233132   1.191   3.281   3.462  0.5526  1.6772  1.0233
42859SOL     OW33133   3.925   9.898   8.158 -0.5831 -0.0047  0.0333
42859SOL    HW133134   3.899   9.873   8.247  1.4479 -0.9901  0.3972
42859SOL    HW233135   3.940   9.993   8.163  1.8587 -0.3975  1.4201
42860SOL     OW33136   0.462   8.136   4.917 -0.2561 -0.4461 -0.2308
42860SOL    HW133137   0.408   8.187   4.977 -1.0061 -1.2019 -0.2362
42860SOL    HW233138   0.521   8.087   4.974  0.6341  0.5980 -0.2384
42861SOL     OW33139   2.135   5.781   5.955 -0.5084 -0.5685  0.6322
42861SOL    HW133140   2.103   5.756   5.868  2.1065  0.0881 -0.6075
42861SOL    HW233141   2.216   5.733   5.966  1.3110  2.3366  0.9254
42862SOL     OW33142   5.655   2.794   9.001  0.0838  0.1535  0.1933
42862SOL    HW133143   5.619   2.706   9.003 -1.0235  0.5662 -0.4540
42862SOL    HW233144   5.587   2.848   9.041  0.3803  0.8279 -0.1970
42863SOL     OW33145  11.286   6.457   7.465 -0.5400 -0.2630  0.2024
42863SOL    HW133146  11.337   6.526   7.422 -0.5624 -1.9266 -2.7726
42863SOL    HW233147  11.351   6.399   7.505 -0.2715 -0.4946 -0.5519
42864SOL     OW33148  11.881   2.971  10.294 -0.2697 -0.2261  0.2656
42864SOL    HW133149  11.955   3.029  10.305 -1.5415  1.4096  0.5865
42864SOL    HW233150  11.916   2.883  10.312  1.6263  0.4347  0.0262
42865SOL     OW33151   4.381   1.773   1.467 -0.1266 -0.4306 -0.0402
42865SOL    HW133152   4.467   1.799   1.433 -0.6105  0.5962 -0.5248
42865SOL    HW233153   4.357   1.843   1.527 -0.0948 -1.3327  1.0464
42866SOL     OW33154   2.098   8.780   5.135  0.2024 -0.5568  0.1465
42866SOL    HW133155   2.132   8.719   5.069  2.2506  1.9018 -1.2460
42866SOL    HW233156   2.055   8.849   5.084 -0.4384  0.1291  1.5536
42867SOL     OW33157   6.386   4.026  10.828  0.0984  0.9341 -0.0783
42867SOL    HW133158   6.455   3.996  10.887 -0.0450 -1.9687 -1.1971
42867SOL    HW233159   6.433   4.050  10.748 -0.1141 -1.7632 -1.1083
42868SOL     OW33160   8.678   5.037   5.158 -0.3497  0.2840  0.1536
42868SOL    HW133161   8.747   4.974   5.177 -0.6568 -0.7273 -1.8045
42868SOL    HW233162   8.681   5.049   5.063 -3.3691 -0.4783 -0.1682
42869SOL     OW33163   9.436   8.684   5.371 -0.1756  0.1038 -0.4479
42869SOL    HW133164   9.401   8.740   5.441 -2.4560 -1.5951 -0.1135
42869SOL    HW233165   9.463   8.604   5.416 -0.7347 -0.6221 -1.3645
42870SOL     OW33166   8.639   0.647   6.178  0.6562  0.0849 -0.1321
42870SOL    HW133167   8.654   0.677   6.267  0.3293  2.9112 -0.9434
42870SOL    HW233168   8.547   0.623   6.175  1.1894 -2.4741  0.8447
42871SOL     OW33169   0.924   3.006   7.562  0.0432  0.6091  0.3159
42871SOL    HW133170   0.929   2.916   7.594  0.6248  1.1753  1.9245
42871SOL    HW233171   0.998   3.015   7.502 -1.5842 -0.7426 -2.0496
42872SOL     OW33172   8.891   9.569   1.920 -0.3496 -0.0772 -0.0613
42872SOL    HW133173   8.910   9.495   1.978  0.5380 -0.1502 -0.4398
42872SOL    HW233174   8.944   9.641   1.955  0.6871 -0.2893 -1.1334
42873SOL     OW33175   9.045   6.734   5.228  0.1790 -0.1646 -0.3426
42873SOL    HW133176   9.028   6.801   5.162  1.5761 -1.3724 -2.0242
42873SOL    HW233177   9.141   6.733   5.238  0.1708 -1.7012 -0.1571
42874SOL     OW33178   7.283   8.036   4.184  0.2408  0.2145 -0.0593
42874SOL    HW133179   7.326   8.040   4.269  1.4944 -1.0622 -0.6167
42874SOL    HW233180   7.229   8.116   4.182  0.4427  0.4517  1.7649
42875SOL     OW33181   4.066  11.349   0.739 -0.3304  0.0962 -0.5537
42875SOL    HW133182   4.029  11.391   0.661 -0.9113 -0.5834 -0.6560
42875SOL    HW233183   4.052  11.256   0.725  0.0044 -0.0681  0.1454
42876SOL     OW33184   2.096   3.296   1.895 -0.1286 -0.6845  0.0369
42876SOL    HW133185   2.074   3.382   1.859 -2.9233 -0.6978  1.4996
42876SOL    HW233186   2.161   3.316   1.964 -1.4756  0.4425  1.0488
42877SOL     OW33187   7.948   6.102   4.296  0.4328  0.1365 -0.4659
42877SOL    HW133188   7.886   6.044   4.340  1.1954 -1.2564 -1.1659
42877SOL    HW233189   7.896   6.177   4.269 -1.4524 -1.8807 -2.8229
42878SOL     OW33190   6.736   6.666  11.458  0.2069  0.0126 -0.2471
42878SOL    HW133191   6.799   6.693  11.524  0.0426  0.0971 -0.1217
42878SOL    HW233192   6.780   6.679  11.375  1.0134 -1.6029 -0.1146
42879SOL     OW33193   3.164   2.011  11.040 -0.0213  0.2609  0.3264
42879SOL    HW133194   3.118   2.086  11.001  0.6220  0.2739 -0.4185
42879SOL    HW233195   3.253   2.015  11.004 -0.4705 -1.9447 -1.2374
42880SOL     OW33196   9.101  10.495   0.660  0.1086 -0.3883 -0.0947
42880SOL    HW133197   9.162  10.515   0.589 -0.3292  0.1046 -0.3343
42880SOL    HW233198   9.017  10.480   0.616  0.0941 -1.2577  0.2157
42881SOL     OW33199   9.948  11.720  11.303  0.1239 -0.0125 -1.1574
42881SOL    HW133200   9.990  11.722  11.217  0.1584 -0.1380 -1.1437
42881SOL    HW233201   9.865  11.675  11.288  0.8727 -1.5891 -0.8064
42882SOL     OW33202   8.940   9.255   7.834 -0.0028  0.0766 -0.1034
42882SOL    HW133203   8.929   9.349   7.817 -0.3923  0.3835  1.5990
42882SOL    HW233204   9.034   9.244   7.846 -0.0114  0.3872  0.2960
42883SOL     OW33205   9.873   5.856  10.282 -0.7719 -0.6239  0.1268
42883SOL    HW133206   9.794   5.878  10.232 -0.6272  1.0410  0.5771
42883SOL    HW233207   9.856   5.768  10.315 -1.9215 -0.7807 -0.7927
42884SOL     OW33208  10.998   0.283   5.276 -0.0439  0.2843  0.2593
42884SOL    HW133209  11.058   0.296   5.202 -1.0276  2.6407 -0.1987
42884SOL    HW233210  10.913   0.310   5.243 -0.2220  3.2100  2.7064
42885SOL     OW33211   3.504   8.604   1.782 -0.9236  0.2893 -0.3597
42885SOL    HW133212   3.573   8.613   1.715  2.6444 -1.4405  2.7255
42885SOL    HW233213   3.510   8.684   1.833  0.7155 -0.8916  1.4181
42886SOL     OW33214   4.460   0.546  10.410 -0.3498  0.2438  0.1622
42886SOL    HW133215   4.545   0.576  10.444  0.1605 -0.0501 -0.8339
42886SOL    HW233216   4.397   0.608  10.447  0.2307  0.1891  1.3036
42887SOL     OW33217  11.232   6.153   5.918  0.5176  0.1613  0.0505
42887SOL    HW133218  11.323   6.129   5.902  1.2398  3.3555 -1.5688
42887SOL    HW233219  11.193   6.155   5.830 -1.3322 -1.6713  0.7613
42888SOL     OW33220  11.207  10.659   5.688  0.3956  0.1761  0.1002
42888SOL    HW133221  11.227  10.666   5.781  0.8144  0.4037 -0.0039
42888SOL    HW233222  11.263  10.724   5.646  0.7444 -0.4141 -0.3792
42889SOL     OW33223   0.895  11.168   2.925 -0.5696 -0.2861  0.0954
42889SOL    HW133224   0.978  11.149   2.881 -0.5088  4.8384 -2.8997
42889SOL    HW233225   0.829  11.118   2.876  0.3441 -0.9944 -0.4353
42890SOL     OW33226  11.138   3.295   8.017 -0.1525  0.4369 -0.4897
42890SOL    HW133227  11.196   3.274   7.943  0.2601  1.1274 -0.3652
42890SOL    HW233228  11.149   3.222   8.077  0.8559  0.7267 -0.3084
42891SOL     OW33229  11.846   3.061   6.443  0.3158  0.2704  0.3300
42891SOL    HW133230  11.834   3.006   6.520 -0.2283 -1.0917 -0.6821
42891SOL    HW233231  11.939   3.084   6.444  0.1495  1.0078  1.8348
42892SOL     OW33232   4.914  10.775   0.236  0.5838  0.2394 -0.1045
42892SOL    HW133233   4.898  10.848   0.177 -1.8345  1.4002  1.7797
42892SOL    HW233234   4.861  10.703   0.201 -0.8782  0.9361  0.5938
42893SOL     OW33235  10.978   1.640   9.291 -0.2570  0.0414  0.5767
42893SOL    HW133236  10.922   1.586   9.235 -0.4142  0.2679  0.5146
42893SOL    HW233237  10.935   1.725   9.293  0.4473  0.4285 -0.0370
42894SOL     OW33238  10.294   4.776   7.360 -0.2152  0.0632  0.1845
42894SOL    HW133239  10.386   4.792   7.338 -0.0913 -1.1147 -0.2179
42894SOL    HW233240  10.262   4.720   7.289 -1.4929  1.1701 -0.1335
42895SOL     OW33241   9.045   1.726   3.095  0.1805  0.7334 -0.2766
42895SOL    HW133242   9.039   1.665   3.022  0.8630  0.4139 -0.0692
42895SOL    HW233243   9.049   1.812   3.054 -0.3981  0.6216 -0.5814
42896SOL     OW33244   7.619   8.420  12.126 -0.4964 -0.2372  0.2061
42896SOL    HW133245   7.552   8.359  12.157  1.4169 -1.4753  2.1409
42896SOL    HW233246   7.654   8.379  12.047 -1.5499  0.1378 -0.4867
42897SOL     OW33247   9.842  10.402   7.230 -0.1435  0.4946 -0.2594
42897SOL    HW133248   9.887  10.365   7.154 -0.7670  0.5481 -0.6632
42897SOL    HW233249   9.912  10.433   7.287  0.4035 -1.4396  0.1673
42898SOL     OW33250   8.681  10.135   0.957 -0.1744 -0.1318 -0.7510
42898SOL    HW133251   8.657  10.175   1.040  1.2620  1.4175 -1.0265
42898SOL    HW233252   8.622  10.061   0.948  0.4247 -1.1031  2.2300
42899SOL     OW33253   7.204   6.441   0.779 -0.5329  0.0799 -0.2171
42899SOL    HW133254   7.243   6.354   0.789 -2.5863 -0.8003  0.6697
42899SOL    HW233255   7.216   6.462   0.686 -0.6267 -1.4791 -0.6102
42900SOL     OW33256   0.936   3.474   1.344 -0.4656 -0.0229  0.0607
42900SOL    HW133257   1.029   3.481   1.325 -0.4586  0.5267  0.2755
42900SOL    HW233258   0.929   3.401   1.406 -0.2959 -0.6935 -0.7076
42901SOL     OW33259   8.721   4.166   2.489 -0.7769  0.0040  0.1370
42901SOL    HW133260   8.658   4.096   2.503 -0.7559  0.0367  0.4031
42901SOL    HW233261   8.797   4.141   2.542 -0.7602  0.2151  0.2130
42902SOL     OW33262   5.231   7.144   8.929  0.2122  0.3726  0.2179
42902SOL    HW133263   5.245   7.171   9.020  0.4143  0.3852  0.1833
42902SOL    HW233264   5.203   7.053   8.934 -0.9387  0.7116  0.3692
42903SOL     OW33265   9.388  11.888  11.176 -0.2433  0.8089  0.6718
42903SOL    HW133266   9.477  11.872  11.144  0.0758  1.1271  1.3814
42903SOL    HW233267   9.401  11.926  11.263 -1.0852  0.1522  1.0948
42904SOL     OW33268   9.143   4.695   4.715 -0.7131  0.7250 -0.2192
42904SOL    HW133269   9.054   4.661   4.705  0.5380 -3.0282 -0.0456
42904SOL    HW233270   9.188   4.671   4.634  0.4079  1.7703  0.0574
42905SOL     OW33271  11.975   9.830   7.655  0.3045  0.2559  0.6116
42905SOL    HW133272  12.005   9.920   7.644  2.7971 -0.5601  0.2937
42905SOL    HW233273  11.973   9.794   7.566  3.4652 -1.1835  1.0178
42906SOL     OW33274  11.625  11.314  10.453  0.3865  0.0683 -0.0175
42906SOL    HW133275  11.553  11.353  10.503 -0.3363 -1.1119 -0.1055
42906SOL    HW233276  11.596  11.319  10.362  0.0812 -1.0479  0.0043
42907SOL     OW33277   6.186   5.567   2.730 -0.3496 -0.0333  0.8052
42907SOL    HW133278   6.123   5.505   2.767 -0.6948 -0.1165  0.0890
42907SOL    HW233279   6.265   5.515   2.717 -0.8848 -0.5568 -0.5581
42908SOL     OW33280   6.246   0.747   7.381  0.1139  0.2503 -0.5494
42908SOL    HW133281   6.291   0.682   7.435 -1.1533 -0.9651 -0.8935
42908SOL    HW233282   6.209   0.809   7.444  2.2570  1.3339 -0.2614
42909SOL     OW33283   3.732   6.228   7.923  1.0239 -0.0270  0.1624
42909SOL    HW133284   3.812   6.274   7.948  0.3954  0.7852  0.7237
42909SOL    HW233285   3.710   6.174   7.998  0.7372  0.1894  0.2376
42910SOL     OW33286   2.408   6.941   4.471  0.0706  0.4996  0.0088
42910SOL    HW133287   2.367   6.883   4.407  0.8812 -1.2204  0.9757
42910SOL    HW233288   2.465   6.998   4.419 -0.9908  0.6743 -0.9973
42911SOL     OW33289   8.377   9.090   5.887  0.1697 -0.2479  0.0690
42911SOL    HW133290   8.344   9.105   5.975  0.5515  0.7505  0.0608
42911SOL    HW233291   8.300   9.068   5.835  0.3720 -5.5138  1.4810
42912SOL     OW33292  11.658  11.001   1.677 -0.1710 -0.0126  0.4723
42912SOL    HW133293  11.575  10.958   1.656  0.4838 -0.2667 -1.8853
42912SOL    HW233294  11.703  10.940   1.735 -2.1094  0.7244  2.9287
42913SOL     OW33295   2.560  11.079  10.409  0.3877  0.1319  0.2871
42913SOL    HW133296   2.472  11.116  10.406  0.1572 -0.1442  2.4255
42913SOL    HW233297   2.615  11.149  10.444  0.3960 -0.6843  1.9994
42914SOL     OW33298   6.085   2.648   9.739 -0.2464 -0.1816  0.3829
42914SOL    HW133299   6.003   2.664   9.691 -1.1255  0.1075  1.9126
42914SOL    HW233300   6.099   2.727   9.791 -0.8082 -1.4644  2.6317
42915SOL     OW33301   5.151   6.769   9.970 -0.4415  0.3202 -0.0124
42915SOL    HW133302   5.194   6.691  10.005  2.4357  2.1631  0.8202
42915SOL    HW233303   5.067   6.736   9.936  1.1437 -3.3383 -0.8696
42916SOL     OW33304   7.693   5.331   7.801 -0.8119  0.0817  0.8807
42916SOL    HW133305   7.664   5.373   7.721 -0.6303  0.8049  1.1881
42916SOL    HW233306   7.767   5.384   7.831  1.2489 -1.9904 -0.1828
42917SOL     OW33307   2.580  11.308   1.426 -0.0279 -0.1113 -0.0364
42917SOL    HW133308   2.574  11.229   1.479 -1.2667  0.4422  0.7007
42917SOL    HW233309   2.509  11.364   1.458  1.2573  1.5978 -0.0666
42918SOL     OW33310   4.684   4.420   4.804 -0.2960  0.4194 -0.3054
42918SOL    HW133311   4.693   4.366   4.726 -0.0466  0.4399 -0.2923
42918SOL    HW233312   4.738   4.377   4.870  1.1936  1.5432 -0.7468
42919SOL     OW33313  10.496   0.121   7.580  0.2622 -0.3118  0.0973
42919SOL    HW133314  10.407   0.094   7.601  0.4394 -1.2698 -0.3247
42919SOL    HW233315  10.524   0.174   7.655 -0.2843 -0.8915  0.7163
42920SOL     OW33316   5.180  11.547   6.938 -0.2954  0.2262  0.3755
42920SOL    HW133317   5.197  11.453   6.931  1.1515  0.5523 -1.8660
42920SOL    HW233318   5.194  11.568   7.030 -1.6541 -1.8923  1.1156
42921SOL     OW33319   5.089   6.098   8.168 -0.1908 -0.0801  0.5403
42921SOL    HW133320   5.021   6.128   8.108  1.6811  0.2315 -1.5808
42921SOL    HW233321   5.118   6.015   8.131  2.1570  0.9208 -0.0753
42922SOL     OW33322   2.643   4.602  10.087  0.4203 -0.4457 -0.2486
42922SOL    HW133323   2.682   4.614  10.000  1.1468  0.1642  0.1464
42922SOL    HW233324   2.709   4.555  10.137  1.1937  1.6178  0.7748
42923SOL     OW33325   6.349   9.065   0.066 -0.4145  0.1785 -0.4604
42923SOL    HW133326   6.374   9.060  -0.026  1.0261 -0.5299 -0.0553
42923SOL    HW233327   6.318   8.977   0.088 -0.0346  0.1349 -0.0787
42924SOL     OW33328   2.972   7.403   6.989  0.7179 -0.1746 -0.3850
42924SOL    HW133329   2.962   7.320   7.035  1.3653 -0.8156 -1.3831
42924SOL    HW233330   2.934   7.388   6.903  0.0056  0.8536 -0.2814
42925SOL     OW33331   6.410   1.055   8.930 -0.2515 -0.1531  0.3883
42925SOL    HW133332   6.328   1.013   8.906 -1.0671  0.4019  2.0655
42925SOL    HW233333   6.459   0.988   8.977  0.8028 -0.8458 -1.5905
42926SOL     OW33334   5.077   7.714   3.160 -0.3158 -0.1497 -0.2436
42926SOL    HW133335   5.150   7.765   3.124 -0.6423  0.6164  0.1583
42926SOL    HW233336   5.013   7.709   3.089  1.0371 -2.8003 -1.4197
42927SOL     OW33337   7.077   7.688  11.805  0.2548  0.1288  0.1471
42927SOL    HW133338   7.015   7.633  11.853 -0.7647  0.2213 -1.0074
42927SOL    HW233339   7.125   7.627  11.750  1.1056  0.0781  0.9254
42928SOL     OW33340   4.479   7.111   6.254  0.1947  0.0646 -0.4830
42928SOL    HW133341   4.419   7.186   6.253  0.3638  0.1950 -1.1377
42928SOL    HW233342   4.482   7.081   6.163  0.3086 -0.5975 -0.2654
42929SOL     OW33343   7.134   2.342  11.637  0.5224 -0.0978 -0.1097
42929SOL    HW133344   7.186   2.402  11.584  0.3521 -0.6644 -0.9258
42929SOL    HW233345   7.192   2.268  11.655  0.0246 -0.7194 -1.0039
42930SOL     OW33346  12.123   8.588   9.827  0.3699 -0.0511 -0.0723
42930SOL    HW133347  12.106   8.647   9.754 -1.5910  1.2958  1.3762
42930SOL    HW233348  12.170   8.641   9.891 -0.7713 -0.2537  0.9554
42931SOL     OW33349   7.733   2.888   8.869 -0.4827 -0.3552  0.3439
42931SOL    HW133350   7.788   2.916   8.942  1.3065  1.8408 -1.6941
42931SOL    HW233351   7.680   2.965   8.847 -2.2733 -1.5123  0.3332
42932SOL     OW33352  11.600   8.535  11.076 -0.1019 -0.2082 -0.6274
42932SOL    HW133353  11.588   8.606  11.013 -0.9431 -3.1440 -4.0675
42932SOL    HW233354  11.529   8.547  11.139 -0.8081  1.4429 -1.6757
42933SOL     OW33355   9.288   6.828   5.929 -0.0293  0.1504  0.2338
42933SOL    HW133356   9.301   6.807   5.836  0.2130  0.2176  0.2515
42933SOL    HW233357   9.263   6.744   5.969 -1.3243  0.3604 -0.1064
42934SOL     OW33358   6.032   8.920   7.498  0.3231  0.2863 -0.1096
42934SOL    HW133359   5.985   8.936   7.580 -2.0292 -3.3707 -0.4804
42934SOL    HW233360   6.098   8.855   7.521  0.4309  0.1148 -0.8674
42935SOL     OW33361   0.335   0.016   6.775 -0.2256 -0.0706  0.6771
42935SOL    HW133362   0.295  -0.067   6.751  1.6103 -0.0532 -3.3516
42935SOL    HW233363   0.400  -0.006   6.841  0.2053 -1.8816 -0.2944
42936SOL     OW33364   0.614   9.487   5.308  0.2784  0.5292 -0.3107
42936SOL    HW133365   0.689   9.544   5.291 -1.1007  1.9603 -2.0055
42936SOL    HW233366   0.633   9.407   5.259  0.9129  0.6852 -0.3297
42937SOL     OW33367   6.408  10.912   2.349  0.3563 -0.4707 -0.4491
42937SOL    HW133368   6.379  10.860   2.274 -0.2018  2.3358 -2.2913
42937SOL    HW233369   6.334  10.911   2.409  0.1722 -1.3620 -0.6777
42938SOL     OW33370   1.456   0.227   1.422  0.3237 -0.3263 -0.1417
42938SOL    HW133371   1.497   0.306   1.458 -0.0757  0.9228 -2.2063
42938SOL    HW233372   1.450   0.245   1.328 -1.1053 -2.2463 -0.4729
42939SOL     OW33373   5.719   5.281   2.428  0.4700 -0.1483 -0.1051
42939SOL    HW133374   5.742   5.192   2.456 -1.3805 -0.5497  0.2638
42939SOL    HW233375   5.650   5.309   2.488 -2.0201 -0.1551 -2.7030
42940SOL     OW33376   6.005   6.040  11.054 -0.3419 -0.1746  0.0057
42940SOL    HW133377   6.036   6.041  11.145  0.8706 -1.3947 -0.3555
42940SOL    HW233378   5.942   6.112  11.049  0.7433  0.9382  1.3999
42941SOL     OW33379   9.263   7.077  10.664  0.0818  0.1480 -0.0892
42941SOL    HW133380   9.183   7.035  10.697 -0.5060  0.8541 -0.5744
42941SOL    HW233381   9.308   7.108  10.743 -1.2099  1.6459  0.1161
42942SOL     OW33382   2.847   8.602  10.006 -0.1162 -0.4411 -0.4055
42942SOL    HW133383   2.909   8.577  10.074  1.5172  0.8828 -1.3487
42942SOL    HW233384   2.826   8.693  10.023 -0.6047 -0.4289 -1.0008
42943SOL     OW33385   0.113   0.256   0.245 -0.2210 -0.6942  0.2669
42943SOL    HW133386   0.025   0.241   0.209  0.5711 -1.7812 -1.3917
42943SOL    HW233387   0.159   0.173   0.228  2.0629  0.8900 -1.8685
42944SOL     OW33388   6.265   5.449   6.316 -0.4445 -0.2948  0.1341
42944SOL    HW133389   6.314   5.517   6.361 -0.1826 -1.4056  1.5972
42944SOL    HW233390   6.329   5.404   6.261 -0.4010 -0.0469 -0.0198
42945SOL     OW33391   6.179   7.510   4.002 -0.0628 -0.5515  0.1495
42945SOL    HW133392   6.099   7.531   4.050 -0.2399 -0.5351 -0.1568
42945SOL    HW233393   6.224   7.594   3.992  1.1117 -0.8224  2.3077
42946SOL     OW33394  10.058   9.833   3.882 -0.4632 -0.2108  0.4540
42946SOL    HW133395  10.047   9.909   3.941  2.0465  0.7596 -0.1914
42946SOL    HW233396  10.054   9.870   3.794  0.2775 -0.9050  0.1170
42947SOL     OW33397  11.635   3.525   9.238  0.0333  0.0598 -0.1423
42947SOL    HW133398  11.685   3.540   9.319 -2.1008  1.9449  0.9383
42947SOL    HW233399  11.684   3.574   9.172  0.3804  0.7428  0.5928
42948SOL     OW33400   0.092  10.770   1.339  0.2983 -0.0291  0.0020
42948SOL    HW133401   0.070  10.860   1.364  0.7106  0.9654 -2.8464
42948SOL    HW233402   0.180  10.757   1.375  0.1063  0.5700  0.7179
42949SOL     OW33403   5.313   9.359   2.426 -0.1450 -0.1899  0.0867
42949SOL    HW133404   5.298   9.439   2.376 -1.3490 -0.4097  0.0557
42949SOL    HW233405   5.293   9.288   2.365 -0.4746 -0.4808  0.5170
42950SOL     OW33406   1.052   7.404   5.170 -0.3659  0.2993  0.6099
42950SOL    HW133407   1.032   7.381   5.079 -2.4152  1.0222  0.8162
42950SOL    HW233408   1.136   7.450   5.166 -1.0259  1.4272 -1.1126
42951SOL     OW33409   5.661   9.677   0.046 -0.2199 -0.3610  0.1682
42951SOL    HW133410   5.699   9.631   0.121 -0.6656  0.8863  1.1954
42951SOL    HW233411   5.737   9.707  -0.005  0.0772 -1.4842 -0.0662
42952SOL     OW33412   6.524   0.934  10.557  0.1858 -0.1902  0.7702
42952SOL    HW133413   6.563   1.013  10.594  0.0101 -0.4452  1.5348
42952SOL    HW233414   6.519   0.873  10.631 -1.0572 -0.3896  0.5522
42953SOL     OW33415   1.403  11.456   5.041 -0.4013  0.3881  0.4715
42953SOL    HW133416   1.453  11.498   5.111 -1.0541  0.5680  0.8437
42953SOL    HW233417   1.372  11.374   5.080  0.3137 -0.1329 -0.0370
42954SOL     OW33418   0.839   6.579   0.641 -0.0019 -0.1305 -0.2998
42954SOL    HW133419   0.855   6.564   0.548  0.0854 -1.2897 -0.1127
42954SOL    HW233420   0.925   6.600   0.677  0.0359 -0.0933 -0.4116
42955SOL     OW33421   2.733  10.982   9.419  0.0873  0.2446 -0.8497
42955SOL    HW133422   2.702  10.895   9.446 -1.6880  0.2041 -2.7386
42955SOL    HW233423   2.828  10.978   9.431 -0.0798 -1.4410  0.4338
42956SOL     OW33424   6.271   4.849  10.092 -0.1028 -0.0614  0.2600
42956SOL    HW133425   6.231   4.798  10.162 -1.3037 -0.4736 -0.6950
42956SOL    HW233426   6.240   4.808  10.012 -0.6839  1.8417 -0.5414
42957SOL     OW33427   6.676   7.710   0.113  0.7057  0.2771  0.0912
42957SOL    HW133428   6.715   7.638   0.065  1.3192  0.7778 -0.1810
42957SOL    HW233429   6.627   7.669   0.183 -1.1452 -0.5490 -1.5885
42958SOL     OW33430   0.757   7.458   3.950  0.0107 -0.2387 -0.5620
42958SOL    HW133431   0.816   7.401   3.900  1.0748 -0.4649  0.8980
42958SOL    HW233432   0.814   7.501   4.013 -1.2580  0.2354  0.2832
42959SOL     OW33433   8.265   6.495   8.117 -0.3578  0.1295 -0.3767
42959SOL    HW133434   8.180   6.535   8.131 -0.9571 -1.0892 -0.3788
42959SOL    HW233435   8.262   6.414   8.169  1.6463  1.1460  1.4778
42960SOL     OW33436   8.382   3.914   7.470  0.2123  0.1822 -0.2637
42960SOL    HW133437   8.417   3.916   7.560 -0.8830 -0.9850  0.2218
42960SOL    HW233438   8.359   4.005   7.451  0.9201  0.5262  0.4369
42961SOL     OW33439   3.982   4.144   3.107 -0.2145  0.2339  0.0793
42961SOL    HW133440   3.925   4.219   3.123  0.2506  1.8745 -4.5206
42961SOL    HW233441   3.923   4.069   3.101 -1.3765  1.1623 -0.4505
42962SOL     OW33442   9.529   3.039   0.543 -0.6500  0.2302  0.1015
42962SOL    HW133443   9.455   3.087   0.580  1.0701  2.2822  1.0221
42962SOL    HW233444   9.585   3.020   0.617  0.7544  0.5424 -0.8487
42963SOL     OW33445   7.932   9.499   6.188  0.7568  0.3680 -0.0487
42963SOL    HW133446   7.986   9.494   6.108  0.6417 -0.3365 -0.0939
42963SOL    HW233447   7.960   9.423   6.239 -1.7016 -1.3575 -1.0556
42964SOL     OW33448   0.864   5.950   8.416 -0.7074  0.1717 -0.0310
42964SOL    HW133449   0.797   5.927   8.480 -1.2444 -1.3856 -1.0996
42964SOL    HW233450   0.900   5.866   8.388  0.2684  0.8822 -0.9616
42965SOL     OW33451   9.264   6.035   9.278  0.1488  0.4749 -0.6239
42965SOL    HW133452   9.228   6.030   9.367 -0.5406  0.0649 -0.9148
42965SOL    HW233453   9.201   6.090   9.230  0.6320  0.8715 -0.8072
42966SOL     OW33454   1.498   2.134   8.645 -0.5028  0.1357 -0.1099
42966SOL    HW133455   1.518   2.226   8.624 -0.1708 -0.0621 -0.6964
42966SOL    HW233456   1.550   2.116   8.723 -0.1470  0.2943 -0.3059
42967SOL     OW33457   5.724   2.188   7.165 -0.0633 -0.5338 -0.5056
42967SOL    HW133458   5.679   2.176   7.248 -0.7068 -2.1223 -1.0405
42967SOL    HW233459   5.816   2.169   7.184  0.1181  1.0067  0.2286
42968SOL     OW33460   6.460   4.404   7.132 -0.1718  0.2701  0.2548
42968SOL    HW133461   6.383   4.383   7.080  1.3334 -1.0342 -1.6214
42968SOL    HW233462   6.474   4.327   7.187  0.9745 -0.4829 -1.0182
42969SOL     OW33463   9.037   3.914   0.149 -0.8754 -0.3931 -0.3861
42969SOL    HW133464   8.998   3.865   0.221 -1.5890 -0.4433 -0.7967
42969SOL    HW233465   9.077   3.847   0.094  1.6404 -0.2089  1.0703
42970SOL     OW33466   5.492  12.003   7.304  0.1839 -0.3738  0.2833
42970SOL    HW133467   5.398  11.998   7.322  0.0482 -1.0293 -0.5520
42970SOL    HW233468   5.500  11.983   7.211  0.8337  3.0462 -0.5460
42971SOL     OW33469   5.603  10.916   0.300  0.3782  0.1204 -0.4169
42971SOL    HW133470   5.661  10.876   0.365 -1.9354 -3.1877 -0.1192
42971SOL    HW233471   5.614  10.861   0.222 -1.2678  0.2777 -0.7937
42972SOL     OW33472   0.700   3.680   2.246  0.1335 -0.2175 -0.5392
42972SOL    HW133473   0.788   3.647   2.229  0.1636 -0.1058 -0.6004
42972SOL    HW233474   0.678   3.733   2.170 -0.6692 -1.6290 -1.3422
42973SOL     OW33475   9.434   4.281   9.155 -0.0972  0.7766 -0.4027
42973SOL    HW133476   9.371   4.331   9.103 -1.1346 -1.7811 -1.7748
42973SOL    HW233477   9.385   4.254   9.233 -0.6349 -0.8794 -1.2816
42974SOL     OW33478  11.576   3.199   5.395 -0.5037  0.6462 -0.4918
42974SOL    HW133479  11.565   3.112   5.432 -0.5370  0.6854 -0.4097
42974SOL    HW233480  11.541   3.258   5.461 -0.3903  0.7288 -0.5049
42975SOL     OW33481   3.982   0.250  10.873  0.0947 -0.0712  0.2322
42975SOL    HW133482   3.909   0.272  10.930  0.1095  0.5955 -0.0010
42975SOL    HW233483   4.060   0.272  10.924  0.1242  2.7756 -0.8330
42976SOL     OW33484  10.134  10.522   2.171  0.0987  0.0073  0.3307
42976SOL    HW133485  10.058  10.521   2.113  1.4047  2.2573 -1.5859
42976SOL    HW233486  10.192  10.454   2.136 -0.2764 -0.5423  0.7535
42977SOL     OW33487   2.023   0.263   7.022 -0.1056  0.2374  0.1910
42977SOL    HW133488   1.949   0.264   7.083  0.1274 -0.6214  0.5016
42977SOL    HW233489   2.079   0.335   7.052  0.4794 -0.7518  1.6211
42978SOL     OW33490   0.720   4.619   8.848 -0.0673 -0.5267 -0.0321
42978SOL    HW133491   0.747   4.546   8.904  0.7040  0.1638  0.5241
42978SOL    HW233492   0.801   4.648   8.806 -0.0851  0.9871  0.9343
42979SOL     OW33493   6.239  10.516   3.166  0.2314  0.0509 -0.1558
42979SOL    HW133494   6.229  10.530   3.072 -0.8643  2.0235  0.1864
42979SOL    HW233495   6.149  10.512   3.199  0.6006 -0.3144  0.8430
42980SOL     OW33496  10.228   2.250   8.361  0.0186 -0.2126 -0.0313
42980SOL    HW133497  10.143   2.294   8.355  0.5530  0.7540 -0.9741
42980SOL    HW233498  10.230   2.194   8.283  0.3483 -0.0402 -0.1450
42981SOL     OW33499   8.507   9.747   5.685  0.1158 -0.1712 -0.5804
42981SOL    HW133500   8.507   9.683   5.755  0.7253  0.8259  0.3572
42981SOL    HW233501   8.528   9.830   5.727 -2.5347  1.0415 -1.4282
42982SOL     OW33502  11.661   4.825   1.311 -0.0319 -0.1807 -0.5487
42982SOL    HW133503  11.650   4.777   1.393  0.4928  0.3234 -0.1776
42982SOL    HW233504  11.713   4.767   1.255 -2.2776 -1.5245 -1.4034
42983SOL     OW33505  11.767  11.857   7.173 -0.3043 -0.2175 -0.5642
42983SOL    HW133506  11.712  11.786   7.140 -0.0660 -0.6986  0.0567
42983SOL    HW233507  11.820  11.816   7.241  1.4846  0.0204 -1.7603
42984SOL     OW33508   4.956   1.796   1.995  0.1516 -0.2441  0.5632
42984SOL    HW133509   4.947   1.702   2.010 -0.3897  0.0908  2.5666
42984SOL    HW233510   5.051   1.810   1.995  0.3219 -1.0047 -1.5767
42985SOL     OW33511   3.951   4.803   2.982 -0.5307 -0.0556 -0.3423
42985SOL    HW133512   3.986   4.755   3.057  0.9508  0.7425 -0.4812
42985SOL    HW233513   3.970   4.895   3.003 -1.3887  0.2917 -1.0516
42986SOL     OW33514   9.288   3.274  10.338  0.0627  0.4600 -0.5484
42986SOL    HW133515   9.292   3.327  10.259  0.4620 -0.9679 -1.5446
42986SOL    HW233516   9.209   3.303  10.383 -0.4185  1.0083 -1.7064
42987SOL     OW33517   4.424   2.695   5.255 -0.5498 -0.0850 -0.0972
42987SOL    HW133518   4.450   2.633   5.324  2.6314 -0.8152 -1.7629
42987SOL    HW233519   4.452   2.780   5.287 -1.3539 -0.0392  0.5218
42988SOL     OW33520   7.204   7.384   9.774  0.0739 -0.1840  0.4125
42988SOL    HW133521   7.149   7.387   9.695  1.3721 -0.4785 -0.5283
42988SOL    HW233522   7.273   7.449   9.758  0.4305 -0.3410  1.2576
42989SOL     OW33523   2.592   9.121  12.054 -0.2242 -0.0246 -0.5203
42989SOL    HW133524   2.635   9.036  12.065  0.3951  0.5116  1.7937
42989SOL    HW233525   2.656   9.174  12.007 -0.8463 -0.9603 -2.4983
42990SOL     OW33526   9.803   8.125   1.599  0.1155  0.1008  0.6543
42990SOL    HW133527   9.833   8.035   1.591  0.7672  0.1200  2.3972
42990SOL    HW233528   9.712   8.118   1.630  0.2999  0.0170  1.1980
42991SOL     OW33529   7.871   2.779   9.299 -0.3101  0.2814 -0.6095
42991SOL    HW133530   7.958   2.742   9.315 -1.1494 -1.0863  1.0385
42991SOL    HW233531   7.840   2.733   9.221 -0.2733 -0.5954 -0.1225
42992SOL     OW33532   8.199  11.568   4.788  0.0996  0.7144 -0.1246
42992SOL    HW133533   8.235  11.491   4.744  0.1614  0.5022  0.2857
42992SOL    HW233534   8.274  11.608   4.831 -0.4593 -1.2399  3.0104
42993SOL     OW33535   7.247  10.884  10.543 -0.0598  0.0195  0.5252
42993SOL    HW133536   7.311  10.814  10.533  1.8040  1.6873  0.0893
42993SOL    HW233537   7.268  10.924  10.627 -0.5610  0.5727  0.3998
42994SOL     OW33538  10.249  12.077   2.825 -0.6953 -0.2872  0.1027
42994SOL    HW133539  10.206  12.082   2.911  1.9621  0.7101  1.4930
42994SOL    HW233540  10.227  12.160   2.783 -2.6295 -1.0924 -0.5620
42995SOL     OW33541   3.446   5.468   9.178  0.6137  0.5653 -0.2114
42995SOL    HW133542   3.381   5.537   9.169  0.5822  0.4927 -0.5413
42995SOL    HW233543   3.487   5.462   9.092  1.3985  0.9497  0.1299
42996SOL     OW33544   6.860  10.585  10.742 -0.4037 -0.4352  0.1695
42996SOL    HW133545   6.830  10.646  10.810 -0.3171  1.2059 -1.1871
42996SOL    HW233546   6.871  10.640  10.664  4.1201 -1.2488 -0.0113
42997SOL     OW33547   2.280   0.450   4.836  0.1092 -0.5003 -0.2943
42997SOL    HW133548   2.314   0.465   4.924  1.4403 -1.4388 -0.6099
42997SOL    HW233549   2.197   0.404   4.849  0.7517 -1.4977  0.4825
42998SOL     OW33550  10.324   8.318   4.957 -0.3022  0.4612  0.3059
42998SOL    HW133551  10.279   8.328   4.874 -1.6269 -0.1002  0.9264
42998SOL    HW233552  10.413   8.349   4.940  0.4704 -2.5930 -2.2153
42999SOL     OW33553   7.639   4.782  12.019 -0.8230 -0.5753  0.3346
42999SOL    HW133554   7.631   4.836  12.098  2.2858  0.5626 -0.0071
42999SOL    HW233555   7.607   4.838  11.948 -1.5087 -0.7840  0.4632
43000SOL     OW33556   6.852   5.452  10.332 -0.0833 -0.2857  0.2711
43000SOL    HW133557   6.900   5.412  10.405  0.1230 -1.6065 -0.5679
43000SOL    HW233558   6.896   5.536  10.318  0.0820 -0.1599  1.4368
43001SOL     OW33559   7.827   6.670   9.752 -0.0527  0.2447 -0.5173
43001SOL    HW133560   7.786   6.595   9.796  2.6033 -1.5861 -0.9067
43001SOL    HW233561   7.800   6.661   9.660 -0.0348 -0.0514 -0.4965
43002SOL     OW33562   8.462   1.331   3.793  0.4470  0.0786  0.0362
43002SOL    HW133563   8.368   1.315   3.796  0.4208  0.0813 -0.5940
43002SOL    HW233564   8.487   1.312   3.702  1.0777 -0.0558  0.2328
43003SOL     OW33565  10.070   4.227   0.953 -0.2836 -0.6443 -0.2919
43003SOL    HW133566  10.021   4.276   0.888  1.1890 -1.0270 -1.7588
43003SOL    HW233567  10.128   4.292   0.993 -2.9067  0.1670  2.5767
43004SOL     OW33568   2.485   7.007   5.596  0.0070 -0.2431 -0.3596
43004SOL    HW133569   2.561   7.053   5.560 -0.7544  0.6628 -0.8213
43004SOL    HW233570   2.479   6.927   5.544  1.3192 -0.9054  0.4338
43005SOL     OW33571   8.113   7.003   5.780 -0.4575 -0.3044 -0.4122
43005SOL    HW133572   8.055   7.054   5.723 -0.9700  1.8848  1.8735
43005SOL    HW233573   8.058   6.978   5.854 -0.0046 -3.7161 -1.0927
43006SOL     OW33574   5.256   0.975   9.111 -0.0054  0.4192  0.4444
43006SOL    HW133575   5.322   1.044   9.115  0.9942 -0.4078 -0.7781
43006SOL    HW233576   5.243   0.949   9.202  1.8338  0.2056  0.7015
43007SOL     OW33577   0.098   5.035  11.993 -0.0479  0.4558 -0.5038
43007SOL    HW133578   0.048   4.959  11.961 -0.9189  0.5456  0.5940
43007SOL    HW233579   0.165   4.997  12.050  1.1113  0.3437 -1.8948
43008SOL     OW33580   1.315   9.774   7.752 -0.1118  0.0503  0.2141
43008SOL    HW133581   1.363   9.854   7.773  0.6508  0.1155 -1.6713
43008SOL    HW233582   1.372   9.703   7.783  1.5578  0.1036 -2.4407
43009SOL     OW33583   4.295  12.118   9.420  0.0367  0.1814  0.2445
43009SOL    HW133584   4.374  12.106   9.368  1.0755 -1.1589  2.0236
43009SOL    HW233585   4.235  12.051   9.387 -0.8118  1.8272 -1.7769
43010SOL     OW33586   6.530   4.940   5.632  0.4887  0.1930  1.1076
43010SOL    HW133587   6.462   4.993   5.673  0.9300  1.8129 -0.1710
43010SOL    HW233588   6.483   4.878   5.576  0.0347  1.7272 -0.2738
43011SOL     OW33589  11.556   2.831   1.400  0.4512 -0.4151 -0.5443
43011SOL    HW133590  11.496   2.770   1.357 -0.3990  0.6144 -0.8625
43011SOL    HW233591  11.536   2.916   1.360  1.1034  0.1986  0.4085
43012SOL     OW33592   6.622   0.438   2.467  0.2563 -0.4403  0.3860
43012SOL    HW133593   6.589   0.410   2.381  1.1919 -0.8300  0.1417
43012SOL    HW233594   6.544   0.442   2.522 -0.4954  0.5999 -0.6762
43013SOL     OW33595   0.330   3.734   2.098 -0.2761 -0.1383 -0.1727
43013SOL    HW133596   0.343   3.692   2.013 -1.5331 -0.4596 -0.2338
43013SOL    HW233597   0.253   3.690   2.134  0.2755 -0.0457  1.1685
43014SOL     OW33598   0.649   2.261   7.753  0.0200  0.4653  0.0586
43014SOL    HW133599   0.681   2.229   7.669  0.4488  0.9479  0.0355
43014SOL    HW233600   0.554   2.247   7.750  0.2108 -1.0919  0.1752
43015SOL     OW33601   0.259   5.706   8.337  0.1471  0.1234 -1.3254
43015SOL    HW133602   0.249   5.682   8.245 -0.4480 -0.1702 -1.1878
43015SOL    HW233603   0.300   5.630   8.378 -1.9918 -0.8559 -0.8319
43016SOL     OW33604   4.578  10.120   6.993  0.0369 -0.1449 -0.6884
43016SOL    HW133605   4.504  10.173   7.024 -0.0831  0.5280 -2.0321
43016SOL    HW233606   4.566  10.035   7.035 -1.4604 -0.0207 -0.8019
43017SOL     OW33607   9.298   9.294  11.849 -0.0226  0.1299  0.1017
43017SOL    HW133608   9.383   9.306  11.892 -0.4480  1.8031  0.5650
43017SOL    HW233609   9.312   9.326  11.760 -0.5732  2.1350  0.6825
43018SOL     OW33610  10.030   9.133   5.007  0.3701 -0.1742  0.3063
43018SOL    HW133611  10.059   9.059   4.951  1.7137 -0.0247  0.7549
43018SOL    HW233612  10.018   9.205   4.946 -0.7601 -0.6921 -0.1137
43019SOL     OW33613   8.513   1.368   2.847 -0.1274  0.7225 -0.2959
43019SOL    HW133614   8.476   1.314   2.777 -0.6643  0.7678 -0.0517
43019SOL    HW233615   8.535   1.451   2.805 -1.6705  1.2381 -0.1630
43020SOL     OW33616   7.554  10.405   0.171  0.0722 -0.2352  0.1276
43020SOL    HW133617   7.478  10.452   0.206 -0.6578  1.1734 -3.0344
43020SOL    HW233618   7.517  10.345   0.106  1.5192 -1.0992  0.0661
43021SOL     OW33619   5.598   9.009   9.580 -0.0656 -0.3975  0.6953
43021SOL    HW133620   5.585   9.103   9.567  1.3458 -0.3208 -0.4253
43021SOL    HW233621   5.540   8.968   9.516 -0.4513 -0.2903  0.9714
43022SOL     OW33622   2.563   4.717   7.485  0.4820  0.2289 -0.5517
43022SOL    HW133623   2.654   4.691   7.501  0.3119 -1.0329 -1.5335
43022SOL    HW233624   2.528   4.649   7.428 -1.4872 -0.0144  0.8445
43023SOL     OW33625   8.382   9.208   0.825 -0.5149  0.2623 -0.7108
43023SOL    HW133626   8.442   9.138   0.801 -1.8531 -1.5725  1.0051
43023SOL    HW233627   8.299   9.164   0.845 -1.6958  2.4294 -0.4289
43024SOL     OW33628  11.574   8.876   2.386 -0.0416  0.5745  0.3019
43024SOL    HW133629  11.610   8.825   2.458 -0.2385 -1.4926 -0.9640
43024SOL    HW233630  11.641   8.941   2.366  0.8570 -0.1035  1.0625
43025SOL     OW33631   6.198  10.085   6.544  0.2574  0.0152 -0.1077
43025SOL    HW133632   6.228  10.029   6.615 -0.4762 -0.7434 -0.3821
43025SOL    HW233633   6.120  10.129   6.579  0.7082  0.7087  0.0360
43026SOL     OW33634  10.513   6.176  10.324  0.6410  0.0717 -0.7660
43026SOL    HW133635  10.488   6.087  10.348  2.0510 -0.7180 -2.0712
43026SOL    HW233636  10.431   6.226  10.328 -0.3874 -1.5218 -1.1063
43027SOL     OW33637   4.551  10.427   7.520  0.2370  0.3877  0.7733
43027SOL    HW133638   4.597  10.510   7.510 -0.1625  0.6336  0.9537
43027SOL    HW233639   4.465  10.451   7.553  0.1750 -0.1129  0.9853
43028SOL     OW33640   2.196   4.525   6.734 -0.4076 -0.2096  0.1458
43028SOL    HW133641   2.150   4.592   6.684  0.9401  0.0354 -0.8286
43028SOL    HW233642   2.247   4.575   6.798  0.8262 -0.2527 -0.7736
43029SOL     OW33643   2.414   7.887   4.979 -0.5677  0.0933 -0.0685
43029SOL    HW133644   2.408   7.921   4.890 -1.9471  0.6498  0.2049
43029SOL    HW233645   2.473   7.813   4.973  0.6486  1.1108 -1.1371
43030SOL     OW33646   0.201   2.318   3.101 -0.0898 -0.6351 -0.5037
43030SOL    HW133647   0.200   2.400   3.052 -1.9925 -1.3265 -1.7385
43030SOL    HW233648   0.119   2.274   3.076 -0.0222 -2.0803  1.5340
43031SOL     OW33649   8.104   7.821   0.876 -0.1021 -0.2862  0.2150
43031SOL    HW133650   8.176   7.775   0.919 -0.2388 -0.8939 -0.1926
43031SOL    HW233651   8.142   7.903   0.845  0.2352 -0.2832  0.6412
43032SOL     OW33652   4.083  11.324   1.083 -0.0719  0.4364 -0.2189
43032SOL    HW133653   4.038  11.261   1.027 -2.8260 -0.0065  2.2752
43032SOL    HW233654   4.156  11.274   1.120 -0.4993 -0.4158 -0.4911
43033SOL     OW33655   8.611   4.598   9.333 -0.1654  0.4392 -0.4802
43033SOL    HW133656   8.696   4.579   9.293 -0.2172  1.2058 -0.9752
43033SOL    HW233657   8.621   4.572   9.424  0.3147 -0.3018 -0.7352
43034SOL     OW33658   2.221   2.856   4.244 -0.1027  0.0920  0.1577
43034SOL    HW133659   2.230   2.809   4.161 -0.9462  1.2046 -0.5994
43034SOL    HW233660   2.162   2.929   4.223  0.1290  0.7153  1.6056
43035SOL     OW33661   2.777   8.020  11.479 -0.0450 -0.1551  0.4618
43035SOL    HW133662   2.732   7.980  11.553  2.4661 -1.4184  1.4323
43035SOL    HW233663   2.829   8.091  11.518  0.0821  0.2155 -0.3577
43036SOL     OW33664  10.850   0.992   5.761 -0.3892  0.7140  0.2200
43036SOL    HW133665  10.781   1.058   5.759 -0.8014  0.2915  0.4807
43036SOL    HW233666  10.909   1.022   5.831 -1.1987  0.1868  1.1448
43037SOL     OW33667  11.580  11.670   7.085 -0.1762 -0.1067 -0.1062
43037SOL    HW133668  11.489  11.679   7.110 -0.1902 -1.6364  0.5246
43037SOL    HW233669  11.583  11.589   7.034  1.0056 -0.7220  0.8965
43038SOL     OW33670   7.674   5.213   9.516  0.1070 -0.4546 -0.6856
43038SOL    HW133671   7.698   5.235   9.606 -0.4190 -0.4934 -0.5283
43038SOL    HW233672   7.705   5.287   9.463 -0.9748  0.3194 -0.2642
43039SOL     OW33673  11.171   2.799  11.186  0.9363 -0.0663 -0.0975
43039SOL    HW133674  11.145   2.734  11.251 -1.9635  0.3744 -0.6707
43039SOL    HW233675  11.255   2.768  11.153  0.4911 -2.5664  0.8837
43040SOL     OW33676   6.723   8.924  11.380  0.5259  0.2006 -0.0147
43040SOL    HW133677   6.749   8.984  11.310  1.4462 -0.0786  0.0777
43040SOL    HW233678   6.750   8.968  11.461 -1.1620  0.8419  0.2341
43041SOL     OW33679   6.193   7.227   6.848 -0.0003 -0.4161  0.0891
43041SOL    HW133680   6.274   7.237   6.798  0.3152 -2.1213  0.1841
43041SOL    HW233681   6.222   7.222   6.939 -0.3719  0.4715  0.2696
43042SOL     OW33682   2.646   6.700   2.699  0.2715 -0.2567  0.2127
43042SOL    HW133683   2.666   6.791   2.675  0.9783 -0.9177 -1.9474
43042SOL    HW233684   2.689   6.688   2.784  2.2927  0.7536 -0.5860
43043SOL     OW33685   1.967   0.075   9.805  0.5954 -0.3864  0.0465
43043SOL    HW133686   1.999   0.060   9.894 -0.7292 -0.7138  0.4833
43043SOL    HW233687   1.997  -0.001   9.755  0.8326 -0.4897  0.3456
43044SOL     OW33688   8.237  10.315   5.411  0.6078 -0.1613 -0.1403
43044SOL    HW133689   8.242  10.227   5.447  0.7355 -1.0836 -2.2484
43044SOL    HW233690   8.144  10.328   5.393  0.5990  0.1098  0.0957
43045SOL     OW33691  11.327   7.145   1.314 -0.2271 -0.4634 -1.1366
43045SOL    HW133692  11.239   7.113   1.332 -0.1672  0.3948  0.9221
43045SOL    HW233693  11.313   7.233   1.277 -0.2889  0.7503  1.5162
43046SOL     OW33694  10.156   3.096   4.130  0.8583 -0.1441 -0.1334
43046SOL    HW133695  10.194   3.009   4.117  0.2797 -0.1951 -1.7135
43046SOL    HW233696  10.217   3.140   4.189  2.1529 -1.0106 -0.7709
43047SOL     OW33697   0.478   0.310  11.559  0.2292  0.3992 -0.6054
43047SOL    HW133698   0.424   0.293  11.636 -1.6267 -1.1450 -2.1460
43047SOL    HW233699   0.500   0.403  11.564  2.1558 -0.0752  2.9564
43048SOL     OW33700   8.158  12.048   3.428 -0.6486 -0.4316 -0.5105
43048SOL    HW133701   8.245  12.086   3.439 -0.9684  0.0652  0.4169
43048SOL    HW233702   8.170  11.977   3.365  0.1516  0.5757 -1.5288
43049SOL     OW33703   2.953  10.822   5.704 -0.4909 -0.4937  0.4955
43049SOL    HW133704   2.948  10.912   5.737 -1.1096 -0.9034  1.5479
43049SOL    HW233705   2.908  10.770   5.770  1.0460 -1.7729  0.5661
43050SOL     OW33706   1.965  11.722   1.889 -0.5415  0.6039  0.3671
43050SOL    HW133707   2.000  11.639   1.859  1.2697  1.4925 -0.1132
43050SOL    HW233708   1.870  11.713   1.880 -0.3860 -1.3793  0.3158
43051SOL     OW33709   7.817   1.829   4.682  0.5518  0.5896 -0.2493
43051SOL    HW133710   7.813   1.895   4.612  0.7053 -0.1816 -0.9988
43051SOL    HW233711   7.840   1.748   4.637 -0.3197 -0.1245  0.5563
43052SOL     OW33712   5.709   0.117   0.478 -0.1893  0.0859 -0.3838
43052SOL    HW133713   5.776   0.103   0.411  0.8312  1.2238  0.3628
43052SOL    HW233714   5.697   0.211   0.480 -1.7214 -0.0815 -0.3724
43053SOL     OW33715   4.074   5.447   2.622  0.1624 -0.1128 -0.4789
43053SOL    HW133716   4.138   5.377   2.635  0.3071  0.3492  1.7433
43053SOL    HW233717   4.097   5.486   2.538  0.1241 -2.6519 -1.7377
43054SOL     OW33718   1.322   3.447   0.941 -0.2496  0.1186  0.3893
43054SOL    HW133719   1.379   3.401   1.004 -1.0171  1.4470  2.1457
43054SOL    HW233720   1.371   3.526   0.918 -0.3168  0.0279 -0.0639
43055SOL     OW33721  10.344  10.804  11.050  0.1305 -0.4022 -0.4720
43055SOL    HW133722  10.262  10.841  11.083  0.7372 -1.0522  1.9914
43055SOL    HW233723  10.344  10.713  11.082  0.6052 -1.2673 -2.7525
43056SOL     OW33724   8.898   9.774   1.711 -0.5322  0.0229 -0.3104
43056SOL    HW133725   8.809   9.808   1.717  0.3862  2.4132  1.2026
43056SOL    HW233726   8.898   9.697   1.768 -1.2238  1.0454  1.1351
43057SOL     OW33727   9.882   6.288   6.165 -0.4435  0.5561  0.1423
43057SOL    HW133728   9.799   6.253   6.198  0.8011  0.0802  3.0986
43057SOL    HW233729   9.873   6.383   6.175 -0.9644  0.5905 -0.5283
43058SOL     OW33730   7.331   0.204   7.012  0.2028  0.1133  0.5522
43058SOL    HW133731   7.344   0.299   7.011 -1.3619  0.3606  0.8559
43058SOL    HW233732   7.251   0.191   7.063  0.2926 -1.3660  0.3719
43059SOL     OW33733   7.016  10.663   5.208 -0.1224  0.3878 -0.1134
43059SOL    HW133734   7.036  10.745   5.164  0.8852  0.8131  1.0887
43059SOL    HW233735   7.051  10.595   5.151  0.6502  0.8979 -0.2525
43060SOL     OW33736   2.154   5.204   7.138 -0.5139 -0.6658  0.5909
43060SOL    HW133737   2.133   5.247   7.055 -1.1922 -0.6816  0.7566
43060SOL    HW233738   2.218   5.261   7.179 -0.2687 -0.5920  0.1159
43061SOL     OW33739  10.561   6.734   9.133  0.5398  0.3423  0.8246
43061SOL    HW133740  10.582   6.803   9.196  1.3254  0.5076  0.3911
43061SOL    HW233741  10.641   6.722   9.083  0.1557 -0.3220  0.3561
43062SOL     OW33742   9.149   4.842   8.991  0.0925  0.4393 -0.0840
43062SOL    HW133743   9.090   4.862   8.918 -1.0351  0.0650  0.6895
43062SOL    HW233744   9.168   4.926   9.030  1.4876  0.7607 -1.3538
43063SOL     OW33745   8.035   8.458   6.086  0.2143  0.2786  0.0938
43063SOL    HW133746   8.130   8.466   6.092  0.1614 -0.1448  2.2140
43063SOL    HW233747   8.014   8.380   6.138 -1.1921 -0.5390 -1.5766
43064SOL     OW33748   1.514   6.263   8.337 -0.3317  0.5078  0.2506
43064SOL    HW133749   1.462   6.335   8.303  1.1683  1.5571  0.0956
43064SOL    HW233750   1.481   6.186   8.290 -1.8655  1.0719  0.3270
43065SOL     OW33751   9.603  11.202   5.334  0.0388 -0.3682 -0.1185
43065SOL    HW133752   9.677  11.147   5.306 -0.2280 -0.8408  0.0803
43065SOL    HW233753   9.547  11.142   5.384 -0.4328  0.0067 -0.1913
43066SOL     OW33754   4.897   3.866   4.394 -0.2876 -0.0693  0.0967
43066SOL    HW133755   4.896   3.847   4.300 -1.0792 -0.2085  0.1244
43066SOL    HW233756   4.834   3.937   4.405 -2.4854 -2.0051  0.8784
43067SOL     OW33757   0.655   6.946   0.468 -0.3875 -0.0000 -0.2694
43067SOL    HW133758   0.685   6.943   0.559 -0.0200  0.9109 -0.3477
43067SOL    HW233759   0.589   6.878   0.462 -0.6651  0.1600  0.7744
43068SOL     OW33760   5.065   0.175   2.196 -0.1277 -0.1286  0.0840
43068SOL    HW133761   5.001   0.104   2.204 -0.5454  0.3940  1.8273
43068SOL    HW233762   5.056   0.206   2.106  0.3843 -2.5436 -0.8618
43069SOL     OW33763   8.345   4.666  10.994  0.4320 -0.4269  0.0555
43069SOL    HW133764   8.283   4.630  10.930  0.8445  0.9340 -1.1823
43069SOL    HW233765   8.383   4.742  10.949  1.6191 -0.1323  1.4976
43070SOL     OW33766   0.909   5.853   2.849  0.1744 -0.7230  0.4506
43070SOL    HW133767   0.884   5.839   2.940  0.8501 -3.3933  0.2883
43070SOL    HW233768   0.981   5.915   2.854 -1.0620  0.7248  1.5218
43071SOL     OW33769   4.124   0.352   7.719 -0.3660  0.5462  0.1881
43071SOL    HW133770   4.038   0.360   7.761 -0.3451 -0.2696  0.4034
43071SOL    HW233771   4.148   0.260   7.731  0.3505  0.6705 -0.2403
43072SOL     OW33772   2.619   1.620   8.254  0.2673  0.4012 -0.0349
43072SOL    HW133773   2.698   1.643   8.203  0.7443  1.0357  0.9602
43072SOL    HW233774   2.558   1.586   8.188  1.4670 -0.3856 -0.7920
43073SOL     OW33775   0.267   0.712  10.040  0.7027 -0.0028 -0.1962
43073SOL    HW133776   0.297   0.708  10.131  2.8896  1.3334 -0.8017
43073SOL    HW233777   0.184   0.759  10.045 -0.3011 -1.7842  1.2926
43074SOL     OW33778   1.095   3.775   3.715 -0.1863 -0.2930 -0.4009
43074SOL    HW133779   1.147   3.853   3.696 -1.4479  1.0907  1.4522
43074SOL    HW233780   1.080   3.735   3.630  2.4789  0.1366 -1.1628
43075SOL     OW33781   5.758   5.523   9.965 -0.1019  0.2593  1.0754
43075SOL    HW133782   5.821   5.480   9.907 -0.6654 -0.4210  0.9539
43075SOL    HW233783   5.790   5.613   9.973 -0.3073  0.5371 -0.7442
43076SOL     OW33784   2.090   9.394   3.295  0.3568  0.3795  0.1595
43076SOL    HW133785   2.120   9.358   3.379  0.6767  1.0311  0.3293
43076SOL    HW233786   2.015   9.449   3.317 -0.1864 -0.2450 -0.1104
43077SOL     OW33787   1.726   0.113  11.494 -0.3344  0.3326  0.1259
43077SOL    HW133788   1.662   0.120  11.565 -1.2243  1.2293 -0.7423
43077SOL    HW233789   1.811   0.110  11.539 -0.7412  2.6949  1.2206
43078SOL     OW33790   9.778   0.147  10.296  0.3856 -0.4825  0.1607
43078SOL    HW133791   9.696   0.127  10.251  0.7698 -1.4049 -0.1432
43078SOL    HW233792   9.752   0.208  10.366 -0.4274 -0.1465 -0.4128
43079SOL     OW33793   8.053   3.359  11.574 -0.4175  0.3320 -0.1111
43079SOL    HW133794   8.095   3.324  11.652 -0.3976  0.9582  0.1620
43079SOL    HW233795   8.121   3.357  11.507 -0.5330 -0.5328 -0.2183
43080SOL     OW33796   1.354   6.739   4.699  0.1290 -0.4308  0.1056
43080SOL    HW133797   1.294   6.732   4.773  0.2260 -0.4195  0.1857
43080SOL    HW233798   1.400   6.655   4.698  0.5506 -0.2059  0.4246
43081SOL     OW33799   3.482   0.282   8.085  0.3865  0.4198 -0.2068
43081SOL    HW133800   3.446   0.283   8.174 -3.0169  3.5082 -1.3370
43081SOL    HW233801   3.478   0.190   8.059 -3.4200 -0.0513  1.2648
43082SOL     OW33802   9.200   8.879   5.344  0.5374 -0.1118 -0.2529
43082SOL    HW133803   9.201   8.959   5.395  1.9806 -1.3580  1.8560
43082SOL    HW233804   9.287   8.875   5.304 -0.1484  0.2193 -1.8704
43083SOL     OW33805   2.416   6.888  10.041  0.3278 -0.4922  0.2029
43083SOL    HW133806   2.375   6.869   9.957  1.6766  0.2210 -0.6580
43083SOL    HW233807   2.450   6.804  10.071  1.2817 -0.4992 -0.8085
43084SOL     OW33808   1.977   4.443   7.344 -0.3058  0.3384  0.1761
43084SOL    HW133809   1.992   4.369   7.403 -0.3693  2.5562  3.2154
43084SOL    HW233810   2.030   4.514   7.381 -0.1317  1.8519 -2.6764
43085SOL     OW33811   7.238   1.185   8.481 -0.1503  0.2061  0.0878
43085SOL    HW133812   7.290   1.258   8.515  0.0779  0.2426 -0.3294
43085SOL    HW233813   7.280   1.163   8.397 -0.5480 -0.0466 -0.0459
43086SOL     OW33814   6.215  10.062   2.622  0.0405 -0.2855  0.2654
43086SOL    HW133815   6.224  10.107   2.707  0.9419  1.7959 -0.8626
43086SOL    HW233816   6.269   9.984   2.631  0.7145  0.2690  1.4012
43087SOL     OW33817   3.252  10.470   9.339  0.2003  0.5048 -0.3547
43087SOL    HW133818   3.211  10.387   9.365  0.2673  0.1005 -1.5019
43087SOL    HW233819   3.226  10.531   9.408 -0.7968 -0.1893 -0.0846
43088SOL     OW33820   0.673   4.478   4.976 -0.3207 -0.3544  0.1096
43088SOL    HW133821   0.715   4.545   5.030  0.2100 -0.4706 -0.1586
43088SOL    HW233822   0.619   4.528   4.915  2.7790  0.1020 -2.4828
43089SOL     OW33823   1.221   6.271   5.231 -0.2315  0.6575 -0.4335
43089SOL    HW133824   1.255   6.185   5.252 -0.9744  0.5663  0.4480
43089SOL    HW233825   1.174   6.259   5.149 -2.5206 -0.3848  0.9532
43090SOL     OW33826   4.320   2.568   2.462  0.2769 -1.0358 -0.0423
43090SOL    HW133827   4.225   2.576   2.475  0.3844  1.1236 -0.2816
43090SOL    HW233828   4.330   2.555   2.367  0.2689  0.5791 -0.2899
43091SOL     OW33829   1.060  11.550   7.486  0.6388 -0.2136  0.4252
43091SOL    HW133830   1.011  11.470   7.506 -2.6288  0.4730 -3.4816
43091SOL    HW233831   1.057  11.601   7.567 -2.9234 -1.4571  1.2769
43092SOL     OW33832   6.956  10.638   2.622  0.0264  0.0656  0.2001
43092SOL    HW133833   6.982  10.574   2.555  1.2321  0.5617  0.1766
43092SOL    HW233834   6.964  10.723   2.578  1.3570  0.4449  1.0938
43093SOL     OW33835   7.550   5.010   1.267  0.3282  0.7460 -0.4101
43093SOL    HW133836   7.508   4.940   1.317  0.2915  0.7316 -0.4623
43093SOL    HW233837   7.520   5.091   1.309  3.0212  0.7127  1.8921
43094SOL     OW33838   6.653   0.343  11.619  0.4281 -0.6817 -0.0264
43094SOL    HW133839   6.635   0.378  11.707 -0.1990 -0.2163 -0.3320
43094SOL    HW233840   6.577   0.370  11.567  0.3195 -1.7989 -0.4735
43095SOL     OW33841   6.317  11.889   2.766  0.2350 -0.1568  0.4944
43095SOL    HW133842   6.399  11.932   2.743 -0.2347  0.2945 -0.3814
43095SOL    HW233843   6.281  11.858   2.683 -0.4639 -0.3693  0.8647
43096SOL     OW33844   5.543   2.122   1.036 -0.4389 -0.0379  0.6236
43096SOL    HW133845   5.497   2.039   1.024  1.5159 -0.8011 -2.5762
43096SOL    HW233846   5.597   2.108   1.114 -2.6109 -0.4627  2.1481
43097SOL     OW33847   3.789  10.884  10.948 -0.2851 -0.3191 -0.4602
43097SOL    HW133848   3.777  10.977  10.966  0.2437 -0.2731 -0.3375
43097SOL    HW233849   3.764  10.840  11.029  0.9390 -0.1863 -0.0043
43098SOL     OW33850   3.559   2.279   8.922 -0.4521 -0.0215  0.3781
43098SOL    HW133851   3.561   2.186   8.941 -2.9511 -0.4786 -1.1257
43098SOL    HW233852   3.611   2.288   8.841 -2.5080 -0.6412 -1.0760
43099SOL     OW33853   5.653   7.823   0.531  0.1326 -0.0799  0.2523
43099SOL    HW133854   5.602   7.854   0.606  0.5944 -0.4117  0.7110
43099SOL    HW233855   5.738   7.865   0.542  1.3689 -2.6919  1.8228
43100SOL     OW33856   8.087   7.618   4.379  0.4830  0.2177  0.5231
43100SOL    HW133857   8.175   7.627   4.417  1.6714 -2.7199 -1.2117
43100SOL    HW233858   8.102   7.619   4.285 -1.5021  0.4405  0.1710
43101SOL     OW33859   8.271   7.985   2.726  0.5871  1.0377  0.5681
43101SOL    HW133860   8.255   7.906   2.674 -1.3892  2.3742 -0.9886
43101SOL    HW233861   8.358   7.970   2.765 -0.5534 -2.7813  2.1108
43102SOL     OW33862   2.083  11.374   5.313 -0.5679 -0.1613  0.4945
43102SOL    HW133863   2.007  11.431   5.328  1.3593  2.2527  1.7499
43102SOL    HW233864   2.117  11.357   5.401 -0.4239 -2.4175  0.0483
43103SOL     OW33865   5.608  10.622   4.039 -0.1544  0.0741  0.3088
43103SOL    HW133866   5.572  10.642   3.953 -0.1283  2.5806  0.7999
43103SOL    HW233867   5.703  10.618   4.025 -0.2006 -0.2154  0.0923
43104SOL     OW33868   9.248   3.989   1.117  0.4644  0.2542 -0.1393
43104SOL    HW133869   9.325   4.024   1.162  0.5216  0.1525 -0.1587
43104SOL    HW233870   9.242   3.898   1.147  1.3301 -0.2442 -1.4214
43105SOL     OW33871  10.147   2.660   1.903  0.0567  0.1511 -0.1602
43105SOL    HW133872  10.059   2.646   1.940  1.1677  0.3633  2.8605
43105SOL    HW233873  10.189   2.575   1.910  0.6291  0.4456  0.0264
43106SOL     OW33874   8.244   8.352  11.779 -0.3117  0.0110 -0.5281
43106SOL    HW133875   8.175   8.380  11.840  0.6608  0.3775  0.4393
43106SOL    HW233876   8.226   8.401  11.699 -2.0691 -1.0595 -0.8442
43107SOL     OW33877  11.673   9.531   7.431  0.4019 -0.2319 -0.6290
43107SOL    HW133878  11.715   9.510   7.514  1.4247 -0.0659 -1.0930
43107SOL    HW233879  11.582   9.550   7.454  0.7012 -0.0719  0.4636
43108SOL     OW33880   3.240   3.927  11.150  0.4185 -0.2673  0.0852
43108SOL    HW133881   3.154   3.886  11.159  0.3858 -0.3964 -0.6736
43108SOL    HW233882   3.281   3.878  11.079  0.2581  1.1924 -1.0614
43109SOL     OW33883   1.025   8.685   4.714  0.0689  0.1553  0.6025
43109SOL    HW133884   1.057   8.705   4.802 -1.7992  0.5611  1.2304
43109SOL    HW233885   1.008   8.591   4.715 -1.5662  0.4343  1.2643
43110SOL     OW33886  10.630   1.133   6.854  0.2954  0.3313  0.0531
43110SOL    HW133887  10.657   1.052   6.897 -0.9332 -0.8092 -1.2224
43110SOL    HW233888  10.709   1.188   6.854  1.7202 -1.6016 -0.7072
43111SOL     OW33889   1.696   2.963   8.397 -0.0080 -0.2297 -0.4773
43111SOL    HW133890   1.743   3.030   8.346  1.3192  0.1323  1.1360
43111SOL    HW233891   1.699   2.885   8.342  2.5907 -0.2302 -0.4514
43112SOL     OW33892   4.859  10.224   8.856  0.6142  0.2261  0.0036
43112SOL    HW133893   4.876  10.167   8.931  2.4379  1.2457  0.4024
43112SOL    HW233894   4.851  10.163   8.782 -0.5418 -0.7404  0.8874
43113SOL     OW33895   2.266  11.312   4.624  0.4264 -0.0893 -0.0517
43113SOL    HW133896   2.232  11.357   4.702  2.1390  0.8309  0.2321
43113SOL    HW233897   2.253  11.219   4.642  0.9743  0.0890  1.4639
43114SOL     OW33898  10.095   3.703   3.164 -0.7862 -0.4586  0.1290
43114SOL    HW133899  10.073   3.612   3.144 -1.3967 -0.5157  0.9783
43114SOL    HW233900  10.106   3.704   3.259 -0.6102  0.3173  0.1064
43115SOL     OW33901   1.774   3.827   8.646 -0.4630  0.0858 -0.0783
43115SOL    HW133902   1.844   3.840   8.582 -3.5586  2.0117 -3.4765
43115SOL    HW233903   1.795   3.889   8.717  0.2330  2.2444 -2.0482
43116SOL     OW33904   5.207  11.708   9.024  0.0883 -0.6372  0.2750
43116SOL    HW133905   5.137  11.649   9.053  0.7125 -0.4125  2.4373
43116SOL    HW233906   5.245  11.741   9.105 -0.3003  2.8575 -0.7925
43117SOL     OW33907   0.127   8.407   0.854 -0.3259  0.7623  0.3825
43117SOL    HW133908   0.165   8.443   0.934 -1.8088  0.6070  1.2049
43117SOL    HW233909   0.160   8.463   0.784 -0.8515  2.3959  1.3823
43118SOL     OW33910  10.035   5.024   3.326  0.1017  0.0904  0.4591
43118SOL    HW133911   9.974   5.082   3.371 -1.9337 -0.8309 -0.9414
43118SOL    HW233912  10.056   4.956   3.390 -2.1731 -0.8157  0.3338
43119SOL     OW33913  11.059  11.816   0.643 -0.2346  0.1363  0.5489
43119SOL    HW133914  10.966  11.798   0.638 -0.0948 -0.7770  1.0126
43119SOL    HW233915  11.088  11.820   0.552 -0.7516  0.5813  0.4034
43120SOL     OW33916   8.034   7.772   5.113 -0.1596  0.1076 -0.1067
43120SOL    HW133917   8.072   7.781   5.026 -0.1406  0.4805 -0.0622
43120SOL    HW233918   8.044   7.680   5.134 -0.9520 -0.1568 -0.8520
43121SOL     OW33919   2.638   5.099   6.484 -0.1486  0.0014  0.4792
43121SOL    HW133920   2.644   5.069   6.393  2.0965  0.4342  0.4202
43121SOL    HW233921   2.564   5.160   6.484  0.0773  0.3314 -1.1848
43122SOL     OW33922   4.562   6.645   7.326 -0.3756 -0.8473  0.2624
43122SOL    HW133923   4.587   6.702   7.253  0.1184 -1.1053  0.2316
43122SOL    HW233924   4.537   6.562   7.284  0.7781 -1.2986  0.4456
43123SOL     OW33925  11.920   8.018  10.569 -0.2833  0.3493  0.3240
43123SOL    HW133926  11.889   7.998  10.481 -1.5196 -1.2733  1.0742
43123SOL    HW233927  11.847   8.062  10.611 -0.2541 -0.1911  0.9679
43124SOL     OW33928   5.364   6.561   8.745  0.1004  0.0066 -0.4432
43124SOL    HW133929   5.457   6.559   8.722  0.4110 -1.1467  0.7870
43124SOL    HW233930   5.321   6.508   8.677  0.5828 -0.8500 -0.0930
43125SOL     OW33931   8.276   7.109   0.568  0.4581  0.3358  0.1223
43125SOL    HW133932   8.242   7.157   0.644 -0.1711  0.2102 -0.0722
43125SOL    HW233933   8.198   7.077   0.523  0.7980  1.0778 -1.0254
43126SOL     OW33934   3.370   4.389   3.685  0.1353 -0.9298  0.1568
43126SOL    HW133935   3.373   4.316   3.746  0.2687 -2.0151 -1.0963
43126SOL    HW233936   3.278   4.415   3.683 -0.1957 -2.0716 -0.4995
43127SOL     OW33937  12.060   2.208   9.583 -0.1251  0.0913  0.2077
43127SOL    HW133938  12.041   2.221   9.676 -1.2680 -2.0225  0.3325
43127SOL    HW233939  12.144   2.162   9.582  0.1791  0.6380  0.1446
43128SOL     OW33940   4.524   0.413   8.039  0.5165  0.0705 -0.6522
43128SOL    HW133941   4.544   0.464   8.118  0.7555  1.6230 -1.6603
43128SOL    HW233942   4.443   0.367   8.060 -0.3806  1.8078 -0.0751
43129SOL     OW33943  12.027   5.707   8.147 -0.5077  0.0484 -0.2931
43129SOL    HW133944  11.964   5.746   8.208 -1.4668  0.9708 -1.7974
43129SOL    HW233945  11.974   5.656   8.086  0.4076 -0.7400 -0.4590
43130SOL     OW33946   9.506   4.017   8.069 -0.0915 -0.0787  0.2284
43130SOL    HW133947   9.431   4.070   8.098  0.8860  1.1845  0.5337
43130SOL    HW233948   9.470   3.929   8.057 -1.7396  0.6100 -0.1501
43131SOL     OW33949   0.691   8.955   0.876 -0.0264 -0.1475 -0.2010
43131SOL    HW133950   0.763   8.897   0.899  0.0192  0.4958  1.4272
43131SOL    HW233951   0.724   9.044   0.893 -0.5596  0.2823 -1.2896
43132SOL     OW33952   1.351  10.589   9.388  0.6740 -0.0585 -0.1074
43132SOL    HW133953   1.368  10.668   9.337  0.6834  0.2027  0.2967
43132SOL    HW233954   1.361  10.517   9.325 -0.6431  0.3296 -0.8048
43133SOL     OW33955   3.427   1.476   7.848  0.4844  0.1345  0.5635
43133SOL    HW133956   3.465   1.404   7.899  1.9526 -0.1874 -0.8962
43133SOL    HW233957   3.437   1.553   7.904 -0.6307 -0.6548  1.9343
43134SOL     OW33958   4.834   3.625   0.327 -0.2581 -0.1755 -0.5442
43134SOL    HW133959   4.896   3.554   0.344  0.2963  0.5785  0.7948
43134SOL    HW233960   4.803   3.651   0.414 -1.0398  0.7063 -1.0660
43135SOL     OW33961   9.914  10.248   5.557  0.6636  0.2922  0.5734
43135SOL    HW133962   9.917  10.226   5.464 -1.3750 -0.2245  0.5707
43135SOL    HW233963   9.958  10.175   5.600  1.0004  0.1900  0.0669
43136SOL     OW33964   6.391   4.066   8.427  0.1421  0.0083  0.2706
43136SOL    HW133965   6.389   4.108   8.513  0.4333 -0.7326  0.6543
43136SOL    HW233966   6.312   4.097   8.383 -0.5872 -0.4313  1.2218
43137SOL     OW33967   7.952   7.495   5.623  0.0382 -0.6265 -0.2859
43137SOL    HW133968   7.900   7.575   5.622 -0.0981 -0.7135 -0.0804
43137SOL    HW233969   8.030   7.517   5.572 -0.9376 -0.9923 -2.0413
43138SOL     OW33970   2.659   2.089   9.125  0.0110  0.0511 -0.0509
43138SOL    HW133971   2.673   2.104   9.032  0.8989  0.9051  0.1953
43138SOL    HW233972   2.601   2.014   9.129  2.2146 -1.8631 -1.2800
43139SOL     OW33973  10.198   2.690  11.864  0.4466 -0.0978 -0.2511
43139SOL    HW133974  10.172   2.608  11.823 -1.2075 -1.2270  2.7566
43139SOL    HW233975  10.122   2.747  11.855  1.2144  0.7702 -1.4263
43140SOL     OW33976   8.263   3.260   9.967 -0.0747 -0.3048  0.4097
43140SOL    HW133977   8.195   3.252  10.034  0.2063  1.2530  0.9076
43140SOL    HW233978   8.216   3.255   9.884 -0.4089 -2.4496  0.6523
43141SOL     OW33979   2.750   6.193   2.159 -0.0254  0.3746  0.1538
43141SOL    HW133980   2.674   6.251   2.148 -0.7268 -0.7198 -1.0237
43141SOL    HW233981   2.802   6.206   2.080  1.5079  1.7404  1.3148
43142SOL     OW33982  10.771   8.013   7.315  0.4440 -0.0759  0.0822
43142SOL    HW133983  10.809   8.100   7.300 -0.3343  0.4580  1.1203
43142SOL    HW233984  10.677   8.024   7.299  0.4556 -0.9735 -0.7470
43143SOL     OW33985   4.262   6.677   4.094  0.7699  0.3518  0.0411
43143SOL    HW133986   4.181   6.729   4.090  1.3191  1.1941 -0.6688
43143SOL    HW233987   4.312   6.706   4.017  0.6407 -2.0315 -1.0185
43144SOL     OW33988   5.358  10.727   7.039  0.5571  0.6913  0.0491
43144SOL    HW133989   5.398  10.680   6.966 -0.6094  0.7949 -0.6813
43144SOL    HW233990   5.427  10.731   7.106  1.7227  0.7926 -1.1165
43145SOL     OW33991   3.202   6.473   3.003 -0.4453  0.0905 -0.0157
43145SOL    HW133992   3.259   6.406   2.965 -0.8463 -0.8347  0.9684
43145SOL    HW233993   3.219   6.468   3.097  0.9701  2.7285 -0.0296
43146SOL     OW33994   1.054  11.203   3.477 -0.0643 -0.4770 -0.0782
43146SOL    HW133995   1.091  11.119   3.502 -1.6896 -0.7356  1.6605
43146SOL    HW233996   0.978  11.181   3.423 -1.0684 -0.2033  1.1805
43147SOL     OW33997   3.314  11.301   4.306 -0.5696 -0.1621  0.0740
43147SOL    HW133998   3.379  11.232   4.323 -0.4513 -0.4685 -1.5191
43147SOL    HW233999   3.286  11.329   4.394  0.1937 -1.4541  0.7610
43148SOL     OW34000   3.529   3.305   9.760  0.0380  0.2749 -0.1043
43148SOL    HW134001   3.531   3.332   9.668 -2.4865  0.2038 -0.2510
43148SOL    HW234002   3.504   3.212   9.757  0.6638  0.0789  0.6376
43149SOL     OW34003   1.552   0.390   8.927  0.1828 -0.1151 -0.2417
43149SOL    HW134004   1.515   0.305   8.951 -1.1806  0.7676  0.9748
43149SOL    HW234005   1.614   0.409   8.997 -0.1702  0.2725 -0.0297
43150SOL     OW34006   7.070   2.787  10.149 -0.0621 -0.0198  0.1080
43150SOL    HW134007   7.056   2.841  10.071  1.5909 -0.1036 -0.2712
43150SOL    HW234008   7.065   2.849  10.221  1.1426  0.5673 -0.2789
43151SOL     OW34009   2.660   8.452   0.639 -1.1478  0.1771 -0.2664
43151SOL    HW134010   2.686   8.508   0.713  0.4296 -1.5047  0.5225
43151SOL    HW234011   2.697   8.495   0.563  0.9901 -0.2692  0.4535
43152SOL     OW34012   4.773  11.739   9.334 -0.1770  0.8314 -1.1663
43152SOL    HW134013   4.763  11.745   9.429 -0.9607  0.3953 -1.2160
43152SOL    HW234014   4.816  11.821   9.309 -1.1918  1.5521 -0.5958
43153SOL     OW34015   8.454   3.353   9.119  0.5886 -0.2808  0.0638
43153SOL    HW134016   8.376   3.395   9.154  0.1636 -0.9015 -0.1287
43153SOL    HW234017   8.524   3.417   9.133  0.1172  0.1307  0.5669
43154SOL     OW34018   7.917   6.989   9.773  0.0680 -0.2716 -0.6514
43154SOL    HW134019   7.882   6.909   9.734 -1.6090  0.0814  0.0605
43154SOL    HW234020   8.011   6.984   9.756 -0.1303 -1.8882 -1.5116
43155SOL     OW34021   8.976   3.839   7.748 -0.2559 -0.4083 -0.0216
43155SOL    HW134022   8.937   3.755   7.771 -1.8466  0.1054 -0.6485
43155SOL    HW234023   9.033   3.820   7.673 -0.9430 -0.8762 -0.4392
43156SOL     OW34024   8.687   7.901   6.719  0.1472 -0.5734 -0.1936
43156SOL    HW134025   8.601   7.927   6.686  0.5295 -0.6532 -1.2853
43156SOL    HW234026   8.723   7.844   6.651  0.2546 -2.1756  1.1589
43157SOL     OW34027  11.719  10.556   0.055 -0.8071 -0.2780  0.1755
43157SOL    HW134028  11.776  10.526   0.125  0.7116  0.7865 -0.5334
43157SOL    HW234029  11.674  10.477   0.024  2.3755 -1.7819 -1.0691
43158SOL     OW34030   6.631  11.341   6.095 -0.0728  0.0241  0.0014
43158SOL    HW134031   6.618  11.425   6.139  0.9013 -0.1308  0.6202
43158SOL    HW234032   6.681  11.363   6.016 -0.7149  0.1451 -0.3779
43159SOL     OW34033   7.700   7.786   8.964 -0.2221  0.4778  0.2644
43159SOL    HW134034   7.697   7.780   8.869  0.6013 -0.7823  0.2937
43159SOL    HW234035   7.622   7.835   8.988 -2.1284 -1.8345 -0.8704
43160SOL     OW34036  11.384   2.930   5.957  0.3629  0.6246 -0.0668
43160SOL    HW134037  11.370   2.940   6.051 -0.1519  1.8615 -0.2613
43160SOL    HW234038  11.454   2.864   5.950  1.0738  1.2114  1.1958
43161SOL     OW34039   7.507   1.471   5.724 -0.1912  0.0253 -0.0270
43161SOL    HW134040   7.470   1.559   5.733 -0.6636 -0.2076  0.3545
43161SOL    HW234041   7.432   1.413   5.735  0.1568 -0.4318 -0.0623
43162SOL     OW34042   1.012  10.613  11.141  0.0357 -0.3170 -0.3945
43162SOL    HW134043   1.106  10.629  11.131  0.0831  1.2797  1.7593
43162SOL    HW234044   1.001  10.598  11.234 -2.0798  1.6492 -0.2470
43163SOL     OW34045   3.200   2.754   6.351  0.5544 -0.1830  0.0182
43163SOL    HW134046   3.142   2.829   6.338  0.7675 -0.1220 -0.6141
43163SOL    HW234047   3.211   2.717   6.263 -0.4929 -1.6589  0.4540
43164SOL     OW34048   5.876   2.754  11.300 -0.1229  0.2278 -1.0442
43164SOL    HW134049   5.860   2.690  11.369  2.4480  0.4013 -0.1728
43164SOL    HW234050   5.875   2.703  11.219  0.8880 -0.7767 -0.4591
43165SOL     OW34051   2.471   8.108   6.665 -0.0470 -0.1992 -1.0984
43165SOL    HW134052   2.480   8.203   6.652  0.3809 -0.4172 -2.6321
43165SOL    HW234053   2.396   8.083   6.612 -1.0484 -0.5318  0.4355
43166SOL     OW34054  10.428   5.612   0.559 -0.3147  0.7079 -0.5136
43166SOL    HW134055  10.353   5.555   0.574 -0.0308  0.7643  1.4324
43166SOL    HW234056  10.502   5.552   0.548 -0.3114  0.6707 -0.2973
43167SOL     OW34057   2.502  10.085   2.342 -0.5300 -0.3193 -0.0916
43167SOL    HW134058   2.430  10.131   2.385 -0.0623 -0.9539  1.4601
43167SOL    HW234059   2.483   9.992   2.357  1.1054 -0.4760  1.2381
43168SOL     OW34060   7.330   0.985   5.449  0.1563 -0.0164 -0.4526
43168SOL    HW134061   7.243   0.965   5.484  0.6343 -3.5409 -0.9566
43168SOL    HW234062   7.391   0.943   5.508  1.6350  2.4320 -0.0937
43169SOL     OW34063   9.662   7.843   2.204 -0.7778  0.0367  0.4257
43169SOL    HW134064   9.707   7.771   2.160 -1.2054  0.7765 -1.3024
43169SOL    HW234065   9.601   7.800   2.264  0.5672 -0.9892  1.0930
43170SOL     OW34066   1.442  10.065   5.503  0.1750 -0.2089  0.1710
43170SOL    HW134067   1.500  10.128   5.545 -1.1260  0.7844  0.5298
43170SOL    HW234068   1.467   9.981   5.541  2.0958  0.0106 -0.4922
43171SOL     OW34069   9.969   7.692   5.478 -0.6962  0.1849 -0.1109
43171SOL    HW134070   9.877   7.689   5.505 -0.5774 -0.5657  0.2274
43171SOL    HW234071  10.014   7.632   5.537  0.1101  0.9262  0.0627
43172SOL     OW34072   5.966  11.074  10.114  0.4390  0.0096  0.0424
43172SOL    HW134073   5.971  11.150  10.172  0.8341 -0.1615  0.2360
43172SOL    HW234074   5.874  11.049  10.116  0.2466  0.6816 -0.2829
43173SOL     OW34075  10.097   6.371   5.788  0.9990 -0.2792 -0.4684
43173SOL    HW134076  10.102   6.442   5.852  1.5180 -1.4929  0.9067
43173SOL    HW234077  10.049   6.302   5.834 -1.5770 -0.0257 -2.5813
43174SOL     OW34078  10.330   9.372   9.758 -0.2105  0.3253 -0.2284
43174SOL    HW134079  10.351   9.306   9.691 -0.9870 -0.4824  0.3042
43174SOL    HW234080  10.387   9.446   9.737  2.4812 -1.3828  0.5755
43175SOL     OW34081   9.689   4.839   8.068  0.4186 -0.3343  0.3212
43175SOL    HW134082   9.732   4.893   8.001 -0.7806 -0.2297 -0.3965
43175SOL    HW234083   9.710   4.882   8.150  0.2616  0.7003 -0.1620
43176SOL     OW34084   5.842   7.965  10.676 -0.2187 -0.0999 -0.2372
43176SOL    HW134085   5.914   8.016  10.712 -0.7341  1.0613 -0.7633
43176SOL    HW234086   5.867   7.949  10.585 -0.7346  0.5848 -0.5142
43177SOL     OW34087   8.981   2.993   5.589  0.3210 -0.1171 -0.0310
43177SOL    HW134088   8.993   3.088   5.588  1.6728 -0.2682 -1.2861
43177SOL    HW234089   9.032   2.961   5.514  0.0278 -1.8563  0.4563
43178SOL     OW34090   7.991   3.823   1.603  0.3440  0.1136 -0.0618
43178SOL    HW134091   8.071   3.783   1.567  1.0417  1.1670  0.2573
43178SOL    HW234092   7.975   3.899   1.547  1.4671  1.8003  1.7877
43179SOL     OW34093   2.110   9.420   2.691 -0.4256  0.2088 -0.2304
43179SOL    HW134094   2.146   9.485   2.630 -0.9297 -0.0495 -0.8200
43179SOL    HW234095   2.134   9.336   2.654  1.1267  0.0209  1.0872
43180SOL     OW34096   1.744   2.089   2.935  0.3472  0.0731 -0.0028
43180SOL    HW134097   1.662   2.078   2.983  0.2095  0.0714 -0.2366
43180SOL    HW234098   1.723   2.153   2.867  0.7036  0.5443  0.3230
43181SOL     OW34099   6.102   3.279   1.651 -0.1650 -0.6358 -0.1432
43181SOL    HW134100   6.195   3.301   1.662  0.1551 -0.4330 -2.6083
43181SOL    HW234101   6.076   3.243   1.736  1.9579 -0.0220  0.8578
43182SOL     OW34102   9.877   7.661   4.571  0.0851 -0.0038 -0.4257
43182SOL    HW134103   9.857   7.616   4.653  0.8536  1.1254  0.4129
43182SOL    HW234104   9.870   7.594   4.504 -0.4923 -0.9672  0.5721
43183SOL     OW34105  11.584   5.731  10.744  0.0149 -0.4146  0.2681
43183SOL    HW134106  11.672   5.755  10.715  0.0314  1.9855  2.0199
43183SOL    HW234107  11.592   5.717  10.839 -1.6563  0.9275  0.6623
43184SOL     OW34108   5.849  11.830   4.606  0.2088 -0.3057  0.3354
43184SOL    HW134109   5.932  11.786   4.624  0.5953  0.5543  0.7170
43184SOL    HW234110   5.872  11.897   4.542 -0.8187 -2.1676 -2.1214
43185SOL     OW34111   6.157   4.988   2.503 -0.5290 -0.3650 -0.3688
43185SOL    HW134112   6.238   4.977   2.452 -1.3986  0.7805 -2.0691
43185SOL    HW234113   6.108   5.056   2.457 -2.3186 -0.7691  0.8368
43186SOL     OW34114   9.658   2.835   3.880  0.3441  0.4839  0.7645
43186SOL    HW134115   9.701   2.776   3.817  0.7088  1.4388  0.1029
43186SOL    HW234116   9.702   2.919   3.868 -1.8611  1.5958 -0.1222
43187SOL     OW34117   6.168   4.460   8.937 -0.2019  0.1554  0.0183
43187SOL    HW134118   6.079   4.442   8.967  0.2131  0.1684  1.3157
43187SOL    HW234119   6.205   4.374   8.918  0.4623 -0.1554  2.3716
43188SOL     OW34120   4.874   5.690   7.456 -0.3747  0.6390 -0.0864
43188SOL    HW134121   4.862   5.674   7.363 -0.0053  1.2387 -0.2494
43188SOL    HW234122   4.810   5.758   7.477 -1.4411 -0.5070  0.4273
43189SOL     OW34123   9.494   4.520   1.807 -0.1285  0.1991  0.2286
43189SOL    HW134124   9.494   4.432   1.769  0.7289 -0.2997  1.3378
43189SOL    HW234125   9.587   4.542   1.816 -0.3330  1.2148  0.0033
43190SOL     OW34126   6.996  11.299   5.456  0.4758  0.6520 -0.2872
43190SOL    HW134127   6.916  11.338   5.420  1.7272  1.4778 -2.3206
43190SOL    HW234128   6.990  11.206   5.431 -0.5424  0.3612  0.9332
43191SOL     OW34129   8.865   7.996   9.547 -0.3304  0.1937 -0.1180
43191SOL    HW134130   8.786   8.038   9.579  0.1039  1.1939 -0.3163
43191SOL    HW234131   8.892   7.938   9.619 -1.2367 -0.1730 -0.0606
43192SOL     OW34132   0.088  11.589   9.522 -0.5270  0.0473  0.3317
43192SOL    HW134133   0.102  11.683   9.532  3.4941 -0.3277 -0.2885
43192SOL    HW234134   0.031  11.582   9.445  0.2867  1.9491 -0.4977
43193SOL     OW34135   4.157   5.818   3.704  0.4249  0.6457 -0.7102
43193SOL    HW134136   4.075   5.830   3.752  0.6612  0.2749 -0.2097
43193SOL    HW234137   4.166   5.723   3.696  0.2113  0.7013 -1.7998
43194SOL     OW34138   8.668   1.326   1.264  0.0016 -0.4130 -0.4472
43194SOL    HW134139   8.604   1.397   1.269  1.2393  0.6872  0.2060
43194SOL    HW234140   8.668   1.288   1.352  0.6337 -0.0610 -0.2958
43195SOL     OW34141  10.195   0.508  11.034 -0.0741  0.0592 -0.7259
43195SOL    HW134142  10.197   0.582  11.095 -1.2846 -0.5132  0.0450
43195SOL    HW234143  10.180   0.548  10.948 -3.5596  0.6348 -0.0062
43196SOL     OW34144   3.277  12.069   8.297  0.0832 -0.3880 -0.1608
43196SOL    HW134145   3.190  12.035   8.319 -0.2211  0.9845  0.8867
43196SOL    HW234146   3.325  12.067   8.379  1.1060 -1.2143 -0.7473
43197SOL     OW34147   3.659  10.217   3.527 -0.1417  0.1563 -0.0285
43197SOL    HW134148   3.658  10.165   3.447 -0.1486 -1.2954  0.8801
43197SOL    HW234149   3.571  10.256   3.531  0.1394  0.9607 -1.1478
43198SOL     OW34150   3.109   7.495   5.561  0.0393  0.0438 -0.9357
43198SOL    HW134151   3.057   7.500   5.481  0.7474  0.0082 -1.4031
43198SOL    HW234152   3.145   7.583   5.572 -1.9437  0.7405  0.6547
43199SOL     OW34153   6.363   7.191   7.953  0.4964  0.3344 -0.2156
43199SOL    HW134154   6.424   7.223   7.887  0.1284  1.7899  0.1210
43199SOL    HW234155   6.400   7.107   7.981  1.9452  0.8430 -0.5266
43200SOL     OW34156   3.007   4.683   4.746  0.3373  0.4892 -0.2141
43200SOL    HW134157   2.916   4.708   4.762 -0.1642 -1.3100 -0.0093
43200SOL    HW234158   3.012   4.665   4.652  0.6304  1.1104 -0.3215
43201SOL     OW34159   3.014   7.714   5.100 -0.5643  0.3181 -0.3254
43201SOL    HW134160   2.972   7.661   5.168  0.4157 -1.2334 -0.8688
43201SOL    HW234161   3.089   7.754   5.143  0.5011 -1.2710 -0.6099
43202SOL     OW34162   8.924   4.558   1.747  0.0496 -0.6041  0.5166
43202SOL    HW134163   8.948   4.569   1.838  2.7547  0.9936 -0.2861
43202SOL    HW234164   8.856   4.624   1.731 -2.7103 -2.8482  1.9606
43203SOL     OW34165   4.759   6.088   3.817 -0.5568  0.3183  0.4913
43203SOL    HW134166   4.717   6.048   3.741 -0.6588 -0.2641  0.8448
43203SOL    HW234167   4.825   6.023   3.844 -0.6826  0.4141  1.0375
43204SOL     OW34168   7.196   0.535   6.063 -0.1164  0.1934 -0.4166
43204SOL    HW134169   7.181   0.508   5.973 -0.1740 -1.2688  0.0108
43204SOL    HW234170   7.262   0.474   6.096 -0.4853  0.3762  0.6932
43205SOL     OW34171   2.666   7.392  10.542  0.0057 -0.2178 -0.2685
43205SOL    HW134172   2.675   7.302  10.574 -0.3771 -0.0330  0.3610
43205SOL    HW234173   2.614   7.437  10.608  3.0565  1.4040  1.2359
43206SOL     OW34174   9.721  10.302   1.229 -0.1701 -0.1479 -0.3312
43206SOL    HW134175   9.654  10.321   1.163  0.1591 -1.8229 -1.1869
43206SOL    HW234176   9.735  10.386   1.273 -0.2024  1.0990 -2.5723
43207SOL     OW34177   1.092   8.942   2.741  0.5725  0.3252 -0.1142
43207SOL    HW134178   1.002   8.945   2.709  1.4833 -0.7776 -3.0854
43207SOL    HW234179   1.133   9.020   2.702  0.9827  0.7261  1.0881
43208SOL     OW34180   8.246   8.745   8.934  0.5433  0.0417 -0.1177
43208SOL    HW134181   8.236   8.800   8.856 -0.3239  0.3988  0.2269
43208SOL    HW234182   8.158   8.709   8.949  1.0533 -1.2832 -0.2133
43209SOL     OW34183   1.438   8.175   6.572 -0.8462  0.5407  0.1387
43209SOL    HW134184   1.411   8.083   6.564  0.7342  0.0806 -0.2578
43209SOL    HW234185   1.378   8.222   6.514 -1.0438 -0.3817 -0.4373
43210SOL     OW34186   2.450   4.929   2.664 -0.3681  0.2321 -0.1797
43210SOL    HW134187   2.427   4.969   2.748  0.2768  0.0782  0.0747
43210SOL    HW234188   2.541   4.904   2.674 -1.1762 -2.8566  0.2971
43211SOL     OW34189   8.094   1.867   2.235 -0.1135 -0.1848 -0.3318
43211SOL    HW134190   8.026   1.887   2.300 -0.0111 -0.1499 -0.2348
43211SOL    HW234191   8.048   1.818   2.167 -0.0226 -1.0555  0.2284
43212SOL     OW34192   8.682   3.320   1.912  0.1929 -0.9270 -0.1054
43212SOL    HW134193   8.700   3.234   1.951  0.2103 -1.4371 -1.2021
43212SOL    HW234194   8.650   3.300   1.824  2.3766  0.2279 -1.2539
43213SOL     OW34195   0.348   6.198   1.052  0.1113 -0.0352 -0.0810
43213SOL    HW134196   0.389   6.160   1.130  0.3935  1.8801  0.7655
43213SOL    HW234197   0.379   6.144   0.980  2.4486  0.0329  0.7794
43214SOL     OW34198  11.684   6.745   0.060  0.0118  0.2325 -0.1927
43214SOL    HW134199  11.734   6.664   0.071  0.1759 -0.1333 -2.9699
43214SOL    HW234200  11.596   6.722   0.089  0.8047  0.1903  2.4773
43215SOL     OW34201   6.300  11.466   5.694  0.2899 -0.2385  0.1822
43215SOL    HW134202   6.295  11.373   5.676  1.3385 -0.3989  0.6272
43215SOL    HW234203   6.346  11.472   5.778  0.3112  0.6820  0.1215
43216SOL     OW34204   3.755  10.993  12.016 -0.1424 -0.0483  0.5580
43216SOL    HW134205   3.814  11.057  11.975 -0.3341  1.7179  2.7826
43216SOL    HW234206   3.811  10.917  12.035  1.1536  1.0529  1.3966
43217SOL     OW34207  10.973   0.142   3.613  0.1889 -0.1065 -0.1680
43217SOL    HW134208  10.972   0.209   3.545 -2.7968  1.5772  1.3108
43217SOL    HW234209  10.993   0.190   3.694 -0.6224 -1.2292  0.7379
43218SOL     OW34210   6.773  10.822  12.048 -0.3908 -0.3187  0.0887
43218SOL    HW134211   6.796  10.823  12.141  0.3225  0.7584 -0.0859
43218SOL    HW234212   6.678  10.809  12.047 -0.4634  0.0905  0.9840
43219SOL     OW34213   3.200   5.683   3.483  0.5371  0.4918 -0.2824
43219SOL    HW134214   3.118   5.676   3.435 -0.5988 -1.0771  1.7332
43219SOL    HW234215   3.247   5.602   3.461  0.4195  0.2082  0.4885
43220SOL     OW34216   2.199   5.209   7.519  0.3209  0.3829  0.1071
43220SOL    HW134217   2.225   5.121   7.492 -1.4962  0.0492 -0.7399
43220SOL    HW234218   2.265   5.236   7.583  1.7112 -1.0071 -0.6900
43221SOL     OW34219   1.204   1.399   3.499 -0.5185 -0.0337  0.2183
43221SOL    HW134220   1.271   1.433   3.558 -2.0785 -2.1218  3.5168
43221SOL    HW234221   1.133   1.463   3.505 -1.3259 -1.0123  2.1177
43222SOL     OW34222   0.762   5.828   0.638  0.4400  0.2904  0.3015
43222SOL    HW134223   0.677   5.813   0.597 -0.0763 -0.6163  1.6587
43222SOL    HW234224   0.749   5.908   0.690  1.1285  1.5078 -1.2927
43223SOL     OW34225  11.180   2.228   3.989 -0.3956  0.0668 -0.3783
43223SOL    HW134226  11.161   2.232   3.895 -0.8883  0.1827 -0.2763
43223SOL    HW234227  11.098   2.199   4.029  0.2978 -1.6543 -0.1442
43224SOL     OW34228   4.411   5.342   6.931 -0.0776  0.1711  0.4074
43224SOL    HW134229   4.385   5.409   6.995 -1.3717 -0.7452  0.8943
43224SOL    HW234230   4.383   5.260   6.970  1.4008 -0.6634 -0.2276
43225SOL     OW34231   2.886   2.665   3.725  0.0886  0.2714  0.0292
43225SOL    HW134232   2.960   2.693   3.780 -1.2273  0.8226  1.6118
43225SOL    HW234233   2.896   2.714   3.644  0.7459  1.3368  0.7299
43226SOL     OW34234   6.994   7.925   4.713 -0.3137 -0.3753  0.1085
43226SOL    HW134235   6.980   7.916   4.619  2.1775 -2.2545 -0.2003
43226SOL    HW234236   7.026   8.014   4.725 -1.1964  0.0698 -0.6928
43227SOL     OW34237   6.349   8.151   4.499  0.5678 -0.0649  0.1626
43227SOL    HW134238   6.425   8.181   4.450  0.9052 -0.3046  0.5251
43227SOL    HW234239   6.366   8.180   4.589  0.3124 -0.2634  0.2755
43228SOL     OW34240   0.157   1.215   2.493 -0.0912  0.3616  0.2035
43228SOL    HW134241   0.133   1.132   2.454  0.3104  0.3154  0.0514
43228SOL    HW234242   0.141   1.280   2.424 -0.0831  0.3687  0.2082
43229SOL     OW34243   7.685   0.021   9.462  0.2709 -0.6549  0.0553
43229SOL    HW134244   7.593   0.002   9.445  0.2562  0.3068 -1.0278
43229SOL    HW234245   7.733  -0.050   9.420  0.0254 -1.4224  1.0348
43230SOL     OW34246   6.524   7.418   1.722 -0.3970 -0.1645  0.3576
43230SOL    HW134247   6.505   7.477   1.795 -1.1241 -0.1632  0.1807
43230SOL    HW234248   6.528   7.476   1.646 -0.1767 -0.2274  0.3231
43231SOL     OW34249   4.243   2.916   8.605  0.1395  0.4978 -0.0769
43231SOL    HW134250   4.174   2.864   8.564 -0.8635  1.8597 -0.2090
43231SOL    HW234251   4.205   2.944   8.689  0.3591  1.6100 -0.3363
43232SOL     OW34252   7.199   0.270  11.822 -0.0552  0.4899 -0.0469
43232SOL    HW134253   7.169   0.354  11.855 -0.6640 -0.6614  2.5559
43232SOL    HW234254   7.166   0.267  11.732 -0.2847  2.8576 -0.1194
43233SOL     OW34255   3.635   0.444   4.246  0.0960  0.4480 -1.0374
43233SOL    HW134256   3.644   0.418   4.337  0.1265 -0.2062 -1.2212
43233SOL    HW234257   3.545   0.423   4.223  0.6675 -1.4292 -1.7592
43234SOL     OW34258  12.039   9.574  11.425 -0.0409 -0.1421  0.4705
43234SOL    HW134259  12.110   9.629  11.389  0.1969  0.3103  1.5845
43234SOL    HW234260  12.084   9.495  11.456 -0.0495  0.0188  0.9078
43235SOL     OW34261  11.234   8.886  11.956  0.1211 -0.0156 -0.2940
43235SOL    HW134262  11.178   8.955  11.992  0.3189  0.9912 -1.8488
43235SOL    HW234263  11.264   8.837  12.033 -1.5716  0.4143  0.6964
43236SOL     OW34264  10.863   1.618   8.522  0.5480 -0.1698  0.1778
43236SOL    HW134265  10.774   1.633   8.552 -0.5338  0.3357 -2.9613
43236SOL    HW234266  10.869   1.523   8.511  0.3973 -0.1978  0.3423
43237SOL     OW34267   5.466  10.086   1.268  0.4114 -0.7294 -0.7443
43237SOL    HW134268   5.399  10.020   1.285  1.0370 -1.1652  0.1235
43237SOL    HW234269   5.423  10.151   1.213 -1.0905 -0.3636  0.7887
43238SOL     OW34270   8.414   5.785   6.001 -0.0036 -0.2517  0.5181
43238SOL    HW134271   8.441   5.814   6.088  1.5249 -0.1026  0.0120
43238SOL    HW234272   8.408   5.865   5.949  0.4115 -0.4636  0.1373
43239SOL     OW34273   4.976   9.742   7.184  0.1565  0.1999  0.4526
43239SOL    HW134274   4.923   9.704   7.253 -1.2937  0.5102 -0.4479
43239SOL    HW234275   4.942   9.831   7.173  1.3072  0.6434  0.2875
43240SOL     OW34276   0.996   7.747   4.600  1.3905 -0.8209 -0.7420
43240SOL    HW134277   0.926   7.723   4.539  0.3505  0.6078 -0.1567
43240SOL    HW234278   1.023   7.834   4.572 -0.1465  0.5222  1.6870
43241SOL     OW34279   7.018   5.821   9.527 -0.1118 -0.0216  0.7683
43241SOL    HW134280   7.099   5.771   9.538  0.0586  0.1816  0.4631
43241SOL    HW234281   7.044   5.912   9.542 -0.4690 -0.0441  1.5590
43242SOL     OW34282  11.825  11.153   5.413 -0.4529 -0.0939 -0.4334
43242SOL    HW134283  11.837  11.133   5.506  1.3936  1.0635 -0.3742
43242SOL    HW234284  11.743  11.202   5.410 -0.2037  0.4367  0.7156
43243SOL     OW34285   7.231   1.923   6.432 -0.4059 -0.1060  0.4581
43243SOL    HW134286   7.160   1.863   6.410 -0.0927 -0.8776  1.5086
43243SOL    HW234287   7.306   1.866   6.450 -0.0334  0.6071  1.2086
43244SOL     OW34288   6.842  11.477   8.648  0.3769 -0.3680  0.5817
43244SOL    HW134289   6.839  11.556   8.703 -2.4405 -0.2705  0.4001
43244SOL    HW234290   6.935  11.467   8.627  1.0826  1.7088  2.3026
43245SOL     OW34291   7.368   0.821   0.360  0.4368  0.1664  0.3992
43245SOL    HW134292   7.371   0.818   0.455  1.4446  1.4045  0.4298
43245SOL    HW234293   7.372   0.729   0.333 -0.5855 -0.2357  1.5436
43246SOL     OW34294   0.921   1.669  10.268 -0.2796  0.3338  0.0473
43246SOL    HW134295   0.954   1.650  10.356 -0.3589  0.2837  0.0657
43246SOL    HW234296   0.847   1.727  10.282 -2.2753 -2.0865  0.2369
43247SOL     OW34297  10.987  11.622   0.140  0.3209  0.3436 -0.3057
43247SOL    HW134298  11.064  11.674   0.116 -0.1489  0.5264 -1.5009
43247SOL    HW234299  10.941  11.608   0.057 -1.0186  0.3721  0.4080
43248SOL     OW34300   0.946   1.348   0.902  0.2380  0.3106  0.0509
43248SOL    HW134301   0.985   1.261   0.892 -0.8209 -0.2055  0.2427
43248SOL    HW234302   0.881   1.337   0.972 -1.4325  0.6892 -1.3750
43249SOL     OW34303   9.504   8.931  11.469 -0.2587 -0.4130 -0.5617
43249SOL    HW134304   9.427   8.889  11.431  0.5588 -3.7877  1.1439
43249SOL    HW234305   9.569   8.931  11.398 -0.9396 -0.0389 -1.2003
43250SOL     OW34306   7.740   1.547   5.470 -0.4194  0.3867 -0.0020
43250SOL    HW134307   7.695   1.498   5.540 -1.1611 -0.1411 -0.8335
43250SOL    HW234308   7.810   1.489   5.442 -0.3982  0.4093  0.0042
43251SOL     OW34309   9.187   2.116   2.868  0.2184 -0.1358  0.0798
43251SOL    HW134310   9.245   2.139   2.795 -0.9934  0.3238 -0.7668
43251SOL    HW234311   9.200   2.187   2.931  1.4470 -0.6570  0.4478
43252SOL     OW34312   7.348   7.734   2.933 -0.1286  0.1764  0.2140
43252SOL    HW134313   7.276   7.676   2.907  0.7490 -0.5691 -0.6376
43252SOL    HW234314   7.366   7.787   2.855  0.7731 -0.2247  0.1309
43253SOL     OW34315   8.554  11.643   5.983  0.1716 -0.1204 -0.0811
43253SOL    HW134316   8.514  11.605   5.905  0.2864  1.1293 -0.7850
43253SOL    HW234317   8.494  11.621   6.054 -1.2525  0.7927 -0.9477
43254SOL     OW34318   8.757   1.648   8.307  0.1617  0.5424 -0.4327
43254SOL    HW134319   8.716   1.702   8.375 -2.4847 -1.3508 -0.3335
43254SOL    HW234320   8.815   1.589   8.356  0.2418  0.8860 -0.1083
43255SOL     OW34321   9.371  11.025  12.067  0.1751  0.2689 -0.1479
43255SOL    HW134322   9.401  11.002  12.155 -0.7273 -0.1706  0.0547
43255SOL    HW234323   9.276  11.010  12.069  0.1879 -0.0670 -1.2992
43256SOL     OW34324   2.062   0.177  11.847  0.2313 -0.2685 -0.3846
43256SOL    HW134325   2.041   0.099  11.898 -2.8942  1.0958  0.7400
43256SOL    HW234326   1.983   0.193  11.795  0.6717  2.1902 -0.4197
43257SOL     OW34327   1.236   2.273   8.762 -0.5763  0.1533 -0.2034
43257SOL    HW134328   1.150   2.231   8.753 -0.2868 -0.7372  0.9278
43257SOL    HW234329   1.298   2.205   8.736 -0.1698  0.4894 -0.1042
43258SOL     OW34330   9.682   1.038  11.792 -0.2875  0.6964 -0.1690
43258SOL    HW134331   9.748   1.089  11.746 -0.7333  1.2568 -0.1950
43258SOL    HW234332   9.614   1.101  11.815 -0.7173  0.1664  0.0458
43259SOL     OW34333   3.391   9.938   1.528  0.1919  0.2259 -0.3091
43259SOL    HW134334   3.300   9.938   1.498 -0.1375 -1.2398  0.5878
43259SOL    HW234335   3.426   9.854   1.499  1.4353  0.9499 -1.0401
43260SOL     OW34336   9.917   2.686   3.275  0.5907  0.7964 -0.5295
43260SOL    HW134337   9.865   2.607   3.262 -1.8639  2.2407 -0.1049
43260SOL    HW234338   9.962   2.671   3.359 -0.8413  0.3106  0.1917
43261SOL     OW34339  10.001  10.680   7.059 -0.8011  0.1147 -0.0755
43261SOL    HW134340  10.052  10.657   6.981  0.0012  1.2661  0.0839
43261SOL    HW234341   9.915  10.706   7.025 -0.7546 -0.2629 -0.4907
43262SOL     OW34342   5.397   4.220   6.005  0.4317 -0.1045  0.2074
43262SOL    HW134343   5.452   4.211   6.082 -0.2513  1.8386  1.0005
43262SOL    HW234344   5.308   4.229   6.040  0.0401  0.1954 -0.8218
43263SOL     OW34345   8.353  11.835   8.142 -0.9139 -0.1260  0.3766
43263SOL    HW134346   8.443  11.839   8.107  0.4459 -0.3772  3.5569
43263SOL    HW234347   8.339  11.742   8.162 -0.6337  0.2717  2.6944
43264SOL     OW34348   7.723   6.836   5.447  0.8515  0.1109 -0.3828
43264SOL    HW134349   7.769   6.892   5.385  1.0846  0.4724  0.1055
43264SOL    HW234350   7.737   6.747   5.415  1.7068  0.2310 -0.3696
43265SOL     OW34351   8.572  11.713  11.454  0.2860 -0.3978  0.1114
43265SOL    HW134352   8.652  11.671  11.486  0.7769  0.8049  0.5044
43265SOL    HW234353   8.584  11.720  11.360 -0.3395 -2.2179 -0.1535
43266SOL     OW34354   2.267   3.462  11.377 -0.3500  0.2339  0.7946
43266SOL    HW134355   2.345   3.439  11.427 -0.6271 -1.9650  0.3001
43266SOL    HW234356   2.197   3.412  11.419 -1.2347  1.0329  0.3023
43267SOL     OW34357   2.288   5.052   7.821 -0.2188  0.0538  0.3417
43267SOL    HW134358   2.314   5.131   7.775  1.5349 -0.5400  0.2626
43267SOL    HW234359   2.296   4.982   7.756 -0.8556 -0.3396  0.6648
43268SOL     OW34360   4.749   1.244   0.055 -0.0165 -0.1109 -0.7583
43268SOL    HW134361   4.840   1.272   0.065  0.1828 -1.0425  0.2207
43268SOL    HW234362   4.709   1.258   0.140 -0.3231 -1.2810 -0.6874
43269SOL     OW34363   6.562  10.355   1.340 -0.3263 -0.5083  0.2876
43269SOL    HW134364   6.647  10.394   1.321  0.3391 -1.6208  0.8318
43269SOL    HW234365   6.500  10.429   1.341  0.5045  0.2240 -0.7909
43270SOL     OW34366   4.152   5.555   3.035  0.4918  0.2816  0.1511
43270SOL    HW134367   4.142   5.460   3.025 -0.4884  0.4775 -0.9003
43270SOL    HW234368   4.122   5.591   2.952  0.5061  1.5415  0.6761
43271SOL     OW34369   5.859   9.037   3.794  0.4082 -0.0246  0.1171
43271SOL    HW134370   5.890   9.002   3.710  0.0613  0.1810 -0.0978
43271SOL    HW234371   5.890   8.974   3.859 -1.4026 -1.4902 -0.3786
43272SOL     OW34372   6.902   4.055   0.936  0.3161 -0.2576 -0.2129
43272SOL    HW134373   6.909   3.978   0.880 -0.8944 -0.3901 -0.2140
43272SOL    HW234374   6.829   4.036   0.995  0.2921  0.6936  0.0944
43273SOL     OW34375   8.867   1.044   1.347 -0.1518 -0.4900 -0.0706
43273SOL    HW134376   8.796   1.058   1.410  1.1029  0.9474  1.1441
43273SOL    HW234377   8.879   0.949   1.344 -2.5737 -0.8414 -0.9116
43274SOL     OW34378   3.826  11.628  11.769 -0.1176 -0.2735 -0.1250
43274SOL    HW134379   3.905  11.628  11.824 -0.1280  0.2430 -0.1024
43274SOL    HW234380   3.855  11.589  11.686  0.2751  0.3184 -0.2684
43275SOL     OW34381   6.076   5.162   2.171  0.0010  0.4056 -0.3378
43275SOL    HW134382   6.028   5.186   2.250 -0.5343 -1.2656 -0.1129
43275SOL    HW234383   6.168   5.169   2.195 -0.1029  2.2520 -0.3355
43276SOL     OW34384   6.454   6.502   6.107  0.0634  0.4807 -0.0758
43276SOL    HW134385   6.461   6.449   6.028  1.9203 -0.1676  0.4663
43276SOL    HW234386   6.418   6.586   6.078 -0.8319 -0.3015 -1.3085
43277SOL     OW34387   5.047   4.337   7.742  0.5033  0.1697 -0.2604
43277SOL    HW134388   5.095   4.387   7.675  2.1395 -1.8011 -0.6743
43277SOL    HW234389   5.054   4.390   7.821  1.6531  0.8891 -0.8116
43278SOL     OW34390  11.975   5.110   2.682  0.3900  0.2334  0.5937
43278SOL    HW134391  11.905   5.048   2.662 -0.2571  1.4608 -1.1466
43278SOL    HW234392  12.036   5.103   2.609  1.9020 -0.4709  1.8503
43279SOL     OW34393   0.201   3.373   8.585 -0.2017 -0.2571 -0.4676
43279SOL    HW134394   0.276   3.433   8.578  0.2872 -0.9616 -1.3511
43279SOL    HW234395   0.139   3.405   8.520  0.8078 -1.7315 -2.2564
43280SOL     OW34396   8.853   3.069   4.004 -0.1324  0.2951 -0.3670
43280SOL    HW134397   8.813   2.994   3.959 -0.9292 -0.5963  1.7145
43280SOL    HW234398   8.897   3.031   4.080  0.3797  1.8404  0.1442
43281SOL     OW34399   1.976   0.779   3.594  0.2690 -0.1713 -0.0198
43281SOL    HW134400   1.958   0.852   3.652 -0.0344 -0.2668  0.0052
43281SOL    HW234401   1.950   0.810   3.507 -0.1107 -0.3443  0.0317
43282SOL     OW34402  11.485   8.997   8.808  0.0271  0.0060  1.0131
43282SOL    HW134403  11.536   8.916   8.805  1.4004  0.8717 -1.3801
43282SOL    HW234404  11.532   9.053   8.869  0.4478 -0.1518  0.8391
43283SOL     OW34405   9.796   7.032   9.658  0.1874 -0.2741  0.8112
43283SOL    HW134406   9.732   7.004   9.723 -1.2258 -1.0822 -0.8687
43283SOL    HW234407   9.745   7.049   9.579  2.0526 -1.2896 -0.6990
43284SOL     OW34408   4.362  11.366   7.305 -0.0261  0.9426  0.0455
43284SOL    HW134409   4.361  11.345   7.211  1.1773  0.8753  0.0249
43284SOL    HW234410   4.451  11.398   7.320 -0.8579  3.0883  0.7185
43285SOL     OW34411   2.568   8.724   3.500 -0.3449 -0.3398  0.4591
43285SOL    HW134412   2.519   8.701   3.421  0.1055 -0.7205  0.2872
43285SOL    HW234413   2.522   8.800   3.536 -0.6862 -0.3074 -0.0453
43286SOL     OW34414   8.164   4.780   3.178  0.3270  0.3399  0.5382
43286SOL    HW134415   8.203   4.693   3.173 -0.2363  0.1338 -0.6885
43286SOL    HW234416   8.088   4.775   3.121 -0.1596  1.4206  1.0609
43287SOL     OW34417   8.613   4.553   5.494 -0.4625 -0.1056 -0.1438
43287SOL    HW134418   8.688   4.495   5.504 -0.4504 -0.1447 -0.4531
43287SOL    HW234419   8.608   4.601   5.577 -1.6628 -1.9511  0.9132
43288SOL     OW34420   3.996   6.074   4.503 -0.7592  0.2412  0.7209
43288SOL    HW134421   4.006   6.068   4.598  0.5531  0.7494  0.6321
43288SOL    HW234422   4.032   6.160   4.480 -1.7144  0.4369 -0.1725
43289SOL     OW34423   6.570   3.634   1.957  0.0010  0.2354 -0.5373
43289SOL    HW134424   6.502   3.674   2.011 -0.0008  0.3987 -0.6621
43289SOL    HW234425   6.636   3.605   2.020 -0.4192 -0.3942 -0.3663
43290SOL     OW34426   6.525  10.370   9.079 -0.1295  0.3309  0.4207
43290SOL    HW134427   6.586  10.323   9.136  1.0511  1.6690  0.3225
43290SOL    HW234428   6.520  10.316   9.000  0.4051 -0.1442  0.7003
43291SOL     OW34429   8.867   9.115   9.990  0.7165 -0.1307 -0.0659
43291SOL    HW134430   8.866   9.206  10.018 -0.0349 -0.1495  0.0058
43291SOL    HW234431   8.889   9.066  10.070 -1.0772 -0.1587  0.4614
43292SOL     OW34432   3.863  10.965   7.043 -0.1162  0.2265  0.3597
43292SOL    HW134433   3.891  10.892   6.987 -0.7928 -1.0336  1.6006
43292SOL    HW234434   3.824  11.028   6.982  1.5426  0.1307 -0.8849
43293SOL     OW34435   7.771   9.543   0.423 -0.0464  0.1362 -0.3883
43293SOL    HW134436   7.698   9.515   0.366 -1.9468  1.7729  1.1042
43293SOL    HW234437   7.732   9.606   0.482  2.8433  1.7990 -0.0890
43294SOL     OW34438   1.038   3.583   0.278  0.8646 -0.4871  0.0081
43294SOL    HW134439   1.130   3.601   0.300  0.4391  0.2623  1.2830
43294SOL    HW234440   1.038   3.491   0.254  1.8018 -0.7762  0.9832
43295SOL     OW34441   3.619   2.844   4.047  0.1717 -0.2531  0.0589
43295SOL    HW134442   3.620   2.835   4.143  0.5026 -1.6045 -0.0491
43295SOL    HW234443   3.544   2.791   4.020  0.6089 -0.5897 -0.4913
43296SOL     OW34444  10.027   7.135   8.686 -0.5645  0.6053  0.2213
43296SOL    HW134445   9.956   7.195   8.706  1.0789  2.6618  0.2589
43296SOL    HW234446  10.097   7.158   8.748  1.0831  0.5353 -1.5066
43297SOL     OW34447   8.240   3.365   4.378 -0.1016 -0.1500  0.1000
43297SOL    HW134448   8.227   3.297   4.312  0.4530 -0.7195  0.5690
43297SOL    HW234449   8.231   3.447   4.330 -0.8839 -0.5449 -0.4550
43298SOL     OW34450   2.774   8.530   3.519 -0.0697 -0.0924  0.2252
43298SOL    HW134451   2.711   8.598   3.495 -0.2628  0.1074  1.2236
43298SOL    HW234452   2.851   8.579   3.550 -0.7214 -0.2785  2.2667
43299SOL     OW34453   5.156   4.022   2.049  0.1835 -0.2766 -0.0520
43299SOL    HW134454   5.236   4.064   2.083  1.5779 -1.8600 -1.2171
43299SOL    HW234455   5.091   4.037   2.118  1.4937  0.9730  0.9988
43300SOL     OW34456   1.495   8.721  11.712 -0.2779 -0.3846 -0.2887
43300SOL    HW134457   1.454   8.678  11.787 -1.1705  0.1107 -0.4699
43300SOL    HW234458   1.470   8.667  11.637 -0.0386 -0.4486 -0.3233
43301SOL     OW34459   9.337   4.988   4.746  0.3287  0.1171  0.3560
43301SOL    HW134460   9.399   4.960   4.678 -0.6196  0.3776 -0.6343
43301SOL    HW234461   9.271   4.918   4.748  0.2809  0.1747  0.9318
43302SOL     OW34462   9.384   0.643  10.621 -0.1442 -0.1774  0.4170
43302SOL    HW134463   9.337   0.681  10.547  0.9267 -1.1940 -0.8540
43302SOL    HW234464   9.365   0.700  10.695 -1.9401  0.3985 -0.4406
43303SOL     OW34465   1.948  11.150   1.573 -0.2314  0.1166  1.2863
43303SOL    HW134466   1.887  11.094   1.621  1.8223 -3.6288 -0.0328
43303SOL    HW234467   2.034  11.120   1.600  1.0361  1.9722 -0.3820
43304SOL     OW34468   5.505   9.391   9.136  0.0797  0.3529  0.2965
43304SOL    HW134469   5.573   9.332   9.169 -0.3617  0.1215  0.7904
43304SOL    HW234470   5.439   9.394   9.205  0.6309  2.3618  0.8163
43305SOL     OW34471   7.942  12.029  11.295  0.3537 -0.0004  0.3313
43305SOL    HW134472   7.998  12.077  11.234  0.6322  0.6111  1.0598
43305SOL    HW234473   7.872  12.089  11.317 -0.9566 -0.9589 -1.0193
43306SOL     OW34474   2.916  10.448   6.656  0.3395 -0.2757 -0.3113
43306SOL    HW134475   2.830  10.409   6.668 -0.1127 -1.4608 -5.2836
43306SOL    HW234476   2.977  10.380   6.684 -0.3727 -0.9335 -0.3292
43307SOL     OW34477   0.728   6.408   1.346 -0.3899  0.9386 -0.1274
43307SOL    HW134478   0.772   6.488   1.375  0.2239  0.0857  1.3841
43307SOL    HW234479   0.735   6.348   1.420 -1.7065 -0.1920 -0.8602
43308SOL     OW34480   2.217   3.849  11.603 -0.0838 -0.1467 -0.3684
43308SOL    HW134481   2.195   3.867  11.512  0.6352  0.2690 -0.4686
43308SOL    HW234482   2.288   3.785  11.598 -0.7046 -0.8803 -0.0717
43309SOL     OW34483   6.430   3.151  11.264 -0.0517  0.1187 -0.3618
43309SOL    HW134484   6.367   3.220  11.286  0.2984  0.0123  1.0874
43309SOL    HW234485   6.505   3.168  11.321  0.7474 -0.4591 -1.2159
43310SOL     OW34486   3.142  11.829   3.285 -0.5057  0.1056  0.9793
43310SOL    HW134487   3.100  11.858   3.204 -0.2684 -1.4347  0.2817
43310SOL    HW234488   3.217  11.888   3.296 -1.5338  1.4504  1.0524
43311SOL     OW34489  10.096   6.087   4.809 -0.3806  0.2932  0.0452
43311SOL    HW134490  10.163   6.029   4.774 -1.6174 -0.2085 -1.6523
43311SOL    HW234491  10.129   6.113   4.895  0.9738 -1.6193  0.1756
43312SOL     OW34492   3.173   8.841   2.043  0.4909 -0.0308  0.2241
43312SOL    HW134493   3.225   8.854   1.964  1.8235  0.3181  1.1194
43312SOL    HW234494   3.188   8.920   2.095 -0.4905 -0.1825  0.7578
43313SOL     OW34495   9.281   0.981  10.004 -0.2664  0.3695 -0.8923
43313SOL    HW134496   9.236   0.932   9.935  1.5521 -0.6142 -1.4510
43313SOL    HW234497   9.331   0.915  10.052 -0.9596  1.1410  0.9727
43314SOL     OW34498   9.143   2.700   4.954  0.4603 -0.5104 -0.1969
43314SOL    HW134499   9.105   2.703   5.041  0.6096  0.2955 -0.1558
43314SOL    HW234500   9.073   2.728   4.896  0.4616 -0.7309 -0.3082
43315SOL     OW34501   6.017  10.745   1.833 -0.1955 -0.1084 -0.2918
43315SOL    HW134502   5.976  10.694   1.903  1.3607 -0.6797  0.2407
43315SOL    HW234503   6.003  10.692   1.754  0.8256 -1.0517  0.1450
43316SOL     OW34504  10.110   7.592   0.566 -0.3967  0.4223  0.0539
43316SOL    HW134505  10.091   7.589   0.472 -1.0938  0.6707  0.1879
43316SOL    HW234506  10.042   7.647   0.603 -0.4069 -0.0720  0.7848
43317SOL     OW34507   6.095  11.344   7.389 -0.4750 -0.3073 -0.5253
43317SOL    HW134508   6.112  11.438   7.383  0.9733 -0.5515 -0.5868
43317SOL    HW234509   6.156  11.304   7.327  0.5218 -1.4416  1.1078
43318SOL     OW34510   2.174  11.347   6.785 -0.6168 -0.4916 -0.3543
43318SOL    HW134511   2.178  11.368   6.691 -0.7367  0.3404 -0.1837
43318SOL    HW234512   2.194  11.254   6.789  1.7459 -0.0806 -1.0183
43319SOL     OW34513   6.333  10.581   7.755 -0.3173  0.3729 -0.1262
43319SOL    HW134514   6.392  10.614   7.687 -0.9441 -0.8241 -1.2976
43319SOL    HW234515   6.359  10.627   7.834  2.6328 -0.5463 -0.4354
43320SOL     OW34516   9.302   8.027   6.018 -0.0782 -0.1895  0.1302
43320SOL    HW134517   9.308   8.108   6.069  0.4272 -0.0048 -0.2246
43320SOL    HW234518   9.222   7.985   6.051 -0.9960  1.0115 -0.4999
43321SOL     OW34519   2.373  10.146   7.906 -0.1341 -0.1897 -0.1905
43321SOL    HW134520   2.444  10.194   7.864 -0.9119  0.2755 -0.9966
43321SOL    HW234521   2.353  10.075   7.845 -0.6210 -0.0912 -0.1410
43322SOL     OW34522  10.045   3.290  10.252  0.1838 -0.2900 -0.0694
43322SOL    HW134523  10.099   3.369  10.263 -1.4837  0.8542  0.1906
43322SOL    HW234524  10.043   3.250  10.339 -0.3046  0.2838  0.1877
43323SOL     OW34525   3.763   9.337  10.287 -0.1536 -0.7449  0.3846
43323SOL    HW134526   3.850   9.306  10.262  0.3206  0.2456  0.7590
43323SOL    HW234527   3.703   9.274  10.247  0.7042 -1.0815 -0.4113
43324SOL     OW34528   5.771   3.401   6.493 -0.0000  0.4076  0.4302
43324SOL    HW134529   5.858   3.361   6.502 -0.6358 -1.1490  0.0105
43324SOL    HW234530   5.785   3.478   6.439  1.4249  1.3209  1.9911
43325SOL     OW34531   3.294   1.413   3.137 -0.6627 -0.0501  0.6523
43325SOL    HW134532   3.351   1.366   3.198 -1.9174 -0.0636  1.8565
43325SOL    HW234533   3.277   1.497   3.179 -1.9582 -0.2585  0.5957
43326SOL     OW34534   5.610  11.444   7.806  0.2475 -0.6230 -0.2962
43326SOL    HW134535   5.608  11.533   7.773  0.0352 -0.5296 -0.0367
43326SOL    HW234536   5.637  11.391   7.731  0.5903 -0.3177 -0.3928
43327SOL     OW34537   4.097   2.063   4.828  0.4359  0.0281  0.1213
43327SOL    HW134538   4.048   2.145   4.821  2.0017  1.0064  0.2070
43327SOL    HW234539   4.071   2.027   4.913 -1.0440 -0.1418 -0.3569
43328SOL     OW34540   7.837  10.717  10.523  0.7612  0.7554 -0.4867
43328SOL    HW134541   7.893  10.795  10.517  0.5160  1.0044  0.3479
43328SOL    HW234542   7.795  10.724  10.609 -0.0488  0.2307 -0.8271
43329SOL     OW34543   6.864   1.551  11.798  0.1573 -0.2314  0.5039
43329SOL    HW134544   6.812   1.526  11.875  1.0099 -0.7030  0.9336
43329SOL    HW234545   6.800   1.554  11.727 -1.0766  2.2710  1.5827
43330SOL     OW34546   3.846   0.681  10.331  0.4523  0.0337 -0.0167
43330SOL    HW134547   3.818   0.770  10.351  0.7444 -0.1306  1.2581
43330SOL    HW234548   3.929   0.690  10.285  0.8980  0.4155  0.8405
43331SOL     OW34549   6.749   0.833   1.932  0.5954 -0.0788 -0.4429
43331SOL    HW134550   6.753   0.799   1.843 -0.8904 -0.3875 -0.4319
43331SOL    HW234551   6.677   0.784   1.972  1.4004 -0.1215  1.0048
43332SOL     OW34552   9.914   3.094   2.189 -0.0304 -0.4216  0.0817
43332SOL    HW134553   9.918   3.133   2.276 -1.0596  0.8542 -0.4086
43332SOL    HW234554   9.946   3.004   2.201 -0.5934 -0.4128  1.8509
43333SOL     OW34555   5.054   1.006   2.400  0.6196 -0.1673  0.0213
43333SOL    HW134556   5.002   1.031   2.476 -1.2108 -0.6877 -0.9943
43333SOL    HW234557   5.086   0.918   2.420  2.1401  0.5830  1.1211
43334SOL     OW34558   8.111   4.506   5.024  1.0823  0.3053 -0.4869
43334SOL    HW134559   8.034   4.505   4.968  1.1011 -1.3473 -0.5177
43334SOL    HW234560   8.179   4.463   4.973  1.6944  0.6684  0.0017
43335SOL     OW34561   2.078   0.613   6.210  0.4420  0.3025  0.2629
43335SOL    HW134562   2.004   0.604   6.271 -0.9219  0.1826 -1.3564
43335SOL    HW234563   2.081   0.707   6.191  0.4144  0.2446 -0.0247
43336SOL     OW34564   3.832   3.939   3.056  0.4273 -0.5966 -0.2292
43336SOL    HW134565   3.763   3.895   3.105 -0.3805  1.3800  0.5385
43336SOL    HW234566   3.811   3.923   2.964 -0.1032 -1.3883  0.0280
43337SOL     OW34567   8.846   4.495   5.938 -0.0229 -0.0087  0.3293
43337SOL    HW134568   8.840   4.476   6.031 -0.5890  0.4661  0.3948
43337SOL    HW234569   8.756   4.487   5.906 -0.0067  0.8648  0.0354
43338SOL     OW34570   0.310   8.164   7.924  0.3068 -0.0221 -0.6192
43338SOL    HW134571   0.286   8.227   7.857  1.2444  0.5650 -0.4284
43338SOL    HW234572   0.366   8.214   7.985 -1.3138 -0.2504  1.1557
43339SOL     OW34573   1.615   4.083   5.116  0.2875 -0.4640 -0.2556
43339SOL    HW134574   1.551   4.110   5.050  0.9057  0.8357 -0.3717
43339SOL    HW234575   1.571   4.017   5.168 -0.8689 -0.1566 -0.8212
43340SOL     OW34576  10.606   3.778   1.263 -0.6407 -0.1090  0.1760
43340SOL    HW134577  10.693   3.814   1.246 -0.3111 -1.6536 -1.7829
43340SOL    HW234578  10.550   3.817   1.195 -1.0628 -0.5612  0.2605
43341SOL     OW34579   5.546   4.717   8.608 -0.1998  0.4515 -0.2115
43341SOL    HW134580   5.566   4.777   8.536  1.9148 -2.1576 -1.9855
43341SOL    HW234581   5.521   4.635   8.565 -1.3805 -0.5073  2.0873
43342SOL     OW34582   3.787  11.938   0.624  0.0671  0.6403 -0.3875
43342SOL    HW134583   3.716  11.874   0.624  0.0187  0.6936 -0.3087
43342SOL    HW234584   3.799  11.961   0.532 -0.2399  0.8770 -0.3700
43343SOL     OW34585   9.627   9.963   6.546 -0.3735  0.6214  0.6756
43343SOL    HW134586   9.645  10.025   6.617 -0.7715 -0.7512  2.0121
43343SOL    HW234587   9.699   9.977   6.484  1.0067  0.6137  2.2146
43344SOL     OW34588   0.578   7.653   9.618 -0.0893 -0.1468  0.1489
43344SOL    HW134589   0.635   7.577   9.611  0.0645 -0.0366  0.1924
43344SOL    HW234590   0.612   7.702   9.693  0.4667  0.5070 -0.5051
43345SOL     OW34591   5.501   6.978   3.999 -0.6262  0.5936  0.0743
43345SOL    HW134592   5.424   6.951   4.050 -0.3710  1.6114  1.0403
43345SOL    HW234593   5.574   6.928   4.037 -0.5477  0.8386  0.2467
43346SOL     OW34594   7.091   6.745   8.400  0.3056 -0.2747 -0.1127
43346SOL    HW134595   7.056   6.662   8.434 -1.3287  0.7596  0.8615
43346SOL    HW234596   7.017   6.785   8.355  0.4807  1.5332  1.1275
43347SOL     OW34597   2.872   8.665  11.302  0.4452  0.0147 -0.4935
43347SOL    HW134598   2.795   8.716  11.278  0.6838 -0.3447 -2.1440
43347SOL    HW234599   2.943   8.729  11.303  0.5548 -0.0775 -1.4889
43348SOL     OW34600  10.141   3.702   2.697 -0.5203 -0.1429  0.1401
43348SOL    HW134601  10.182   3.769   2.751 -0.7308  0.2479 -0.1773
43348SOL    HW234602  10.163   3.620   2.740 -0.7949  0.1706  0.8897
43349SOL     OW34603   6.042   6.939   3.313 -0.1732  0.2630 -0.4233
43349SOL    HW134604   6.030   6.882   3.389 -0.3051  1.4511  0.4689
43349SOL    HW234605   5.983   6.903   3.246 -0.9448 -0.0929  0.4349
43350SOL     OW34606   2.123   0.163   6.242  0.0435  0.3773  0.1799
43350SOL    HW134607   2.077   0.082   6.262 -1.0868  0.9501 -0.0414
43350SOL    HW234608   2.173   0.143   6.163 -1.4501  0.3289 -0.7894
43351SOL     OW34609   9.251   4.645   2.936 -0.2988  0.6075  0.0036
43351SOL    HW134610   9.193   4.716   2.965 -0.1468  0.5136  0.5478
43351SOL    HW234611   9.339   4.682   2.944 -0.1973  0.2303  0.6573
43352SOL     OW34612   6.352  10.036   1.225  0.0357 -0.0484 -0.2225
43352SOL    HW134613   6.401   9.972   1.173 -0.2161  0.5423 -1.2185
43352SOL    HW234614   6.413  10.109   1.237 -0.3622  0.4080 -0.8986
43353SOL     OW34615   0.290   4.169   8.473 -0.1192  0.0708 -0.2917
43353SOL    HW134616   0.241   4.247   8.449  0.4490  0.1366 -1.3336
43353SOL    HW234617   0.261   4.148   8.562 -1.9443  0.1707 -0.8098
43354SOL     OW34618   3.316   4.409   2.469  0.8809 -0.4829 -0.0248
43354SOL    HW134619   3.325   4.491   2.420  2.1278 -0.1216  0.7582
43354SOL    HW234620   3.398   4.362   2.452 -0.3129 -2.1991 -1.4961
43355SOL     OW34621   5.231  11.894   4.466 -0.4062 -0.2002  0.3315
43355SOL    HW134622   5.184  11.835   4.525 -1.0106 -0.2442 -0.1852
43355SOL    HW234623   5.237  11.977   4.513 -3.3455  0.6516 -0.5584
43356SOL     OW34624  11.762   6.061   6.508  0.2129  0.3568 -0.6996
43356SOL    HW134625  11.683   6.115   6.520  0.5865  0.6912  0.4164
43356SOL    HW234626  11.737   5.997   6.441 -1.2878 -0.0622  0.1967
43357SOL     OW34627   8.707   8.923   4.028  0.2955  0.7002 -0.5118
43357SOL    HW134628   8.789   8.875   4.043  0.1777  0.4907 -0.5443
43357SOL    HW234629   8.734   9.015   4.024  0.5398  0.6239 -0.6006
43358SOL     OW34630   2.784   1.582   6.229  0.8630  0.8657  0.2473
43358SOL    HW134631   2.822   1.664   6.199  0.7054  1.2159  0.9800
43358SOL    HW234632   2.694   1.583   6.198  0.8251  1.0305  0.3614
43359SOL     OW34633   4.912   7.621  10.682  0.3652  0.7631  0.0949
43359SOL    HW134634   4.882   7.655  10.598  0.3677 -1.1729 -0.7596
43359SOL    HW234635   5.006   7.640  10.683  0.5174  0.1133 -0.7228
43360SOL     OW34636  10.651   1.628   4.391 -0.2502  0.0433 -0.1468
43360SOL    HW134637  10.649   1.639   4.296  1.1227  0.5466 -0.1556
43360SOL    HW234638  10.702   1.704   4.422 -0.3907 -0.2961  0.9462
43361SOL     OW34639   8.205   6.567   3.268 -0.7222 -0.8379  0.2098
43361SOL    HW134640   8.251   6.543   3.188  1.4023 -0.2460  1.1807
43361SOL    HW234641   8.229   6.499   3.331 -2.0831 -1.1031  0.4831
43362SOL     OW34642   1.229   1.887   1.307  0.1592 -0.0997  0.5086
43362SOL    HW134643   1.245   1.826   1.378  2.3109  0.6705  0.7777
43362SOL    HW234644   1.317   1.914   1.278 -0.6373  2.9546  0.5249
43363SOL     OW34645   9.998   1.503   4.221  0.0069  0.2960 -0.6918
43363SOL    HW134646  10.018   1.536   4.134  0.6090  1.4360 -0.1442
43363SOL    HW234647   9.963   1.579   4.268  1.4862  0.1997  0.6386
43364SOL     OW34648   5.572   8.160   7.021 -0.4063 -0.7357 -0.2397
43364SOL    HW134649   5.485   8.151   7.061  0.2008 -1.6546  0.9473
43364SOL    HW234650   5.589   8.254   7.021 -0.8920 -0.6300  0.7047
43365SOL     OW34651   7.619   8.838   9.335 -0.0561 -0.2356 -0.2494
43365SOL    HW134652   7.588   8.834   9.245 -1.4000 -2.3764  0.2421
43365SOL    HW234653   7.546   8.805   9.388 -0.6460  4.0241  2.0688
43366SOL     OW34654  11.465   4.862   6.117  0.0907 -0.2524  0.1203
43366SOL    HW134655  11.476   4.937   6.057  0.7553  0.7171  1.4046
43366SOL    HW234656  11.536   4.872   6.180 -0.6421 -1.2054  1.1139
43367SOL     OW34657  10.145  11.071  12.106 -0.1097  0.1183 -0.2998
43367SOL    HW134658  10.065  11.039  12.147 -0.7689  0.5506 -1.1939
43367SOL    HW234659  10.191  10.992  12.078  0.5204 -0.1956  1.5339
43368SOL     OW34660   9.373  10.730   0.454  0.4045  0.1367  0.0786
43368SOL    HW134661   9.436  10.732   0.382 -0.4054  1.9523 -0.6564
43368SOL    HW234662   9.373  10.819   0.488 -0.2346 -0.3595  1.4475
43369SOL     OW34663   2.963   6.014   9.206 -0.4656 -0.4168  0.3093
43369SOL    HW134664   2.937   6.106   9.218  0.6000 -0.2221  1.3840
43369SOL    HW234665   3.019   5.996   9.281  1.7113 -1.0733 -1.3616
43370SOL     OW34666   2.651   1.405   0.815  0.1548  0.0543 -0.2678
43370SOL    HW134667   2.664   1.500   0.825  1.2347  0.2910 -2.9187
43370SOL    HW234668   2.725   1.366   0.861 -0.0368  0.5157  0.4417
43371SOL     OW34669  11.708   4.580   3.097 -0.0421  0.1653  0.4145
43371SOL    HW134670  11.730   4.518   3.028  2.6658 -0.3912  1.6564
43371SOL    HW234671  11.700   4.664   3.052 -0.5552 -0.5381 -0.8506
43372SOL     OW34672   8.931   4.685   0.074 -0.0337  0.7058 -0.1763
43372SOL    HW134673   9.004   4.674   0.135  1.0545 -0.9306 -1.6921
43372SOL    HW234674   8.853   4.676   0.129  0.8526  2.1463  1.4256
43373SOL     OW34675   2.350   6.261  10.555 -0.6178 -0.0324  0.6259
43373SOL    HW134676   2.407   6.228  10.485  0.9870  1.7841  0.9775
43373SOL    HW234677   2.363   6.199  10.627  1.6090  0.7303  0.9715
43374SOL     OW34678   5.331   4.716   4.156  0.2969  0.3113 -0.2344
43374SOL    HW134679   5.352   4.775   4.228  2.8310 -2.0751  1.1597
43374SOL    HW234680   5.238   4.700   4.165  0.1028  1.8509  1.0581
43375SOL     OW34681   3.322   2.906   5.725  0.6849 -0.0459 -0.1635
43375SOL    HW134682   3.328   2.812   5.746 -0.1738 -0.1452 -0.3223
43375SOL    HW234683   3.331   2.949   5.810 -1.1999 -0.3876  0.2596
43376SOL     OW34684   3.738   3.323   6.843  0.1736 -0.4925  0.5428
43376SOL    HW134685   3.727   3.273   6.924  2.5106  1.0234  1.9074
43376SOL    HW234686   3.648   3.345   6.817 -0.6625 -0.7457  2.9285
43377SOL     OW34687   1.805   1.352   1.827  0.0681 -0.2830 -0.2586
43377SOL    HW134688   1.782   1.285   1.762 -2.0068  1.6977 -1.7301
43377SOL    HW234689   1.897   1.371   1.811  0.2992 -1.7300 -0.7829
43378SOL     OW34690   9.625  11.580   4.847 -0.3141 -0.3571  0.2603
43378SOL    HW134691   9.701  11.528   4.820  0.1561  0.6478 -0.4006
43378SOL    HW234692   9.647  11.669   4.822 -1.2716  0.1146  1.0369
43379SOL     OW34693  11.859   3.344   0.324 -0.1239  0.5122  0.0312
43379SOL    HW134694  11.793   3.280   0.349  0.2615 -0.4561 -1.3263
43379SOL    HW234695  11.834   3.424   0.371 -0.7444 -0.5457  1.5649
43380SOL     OW34696  10.451   1.776   8.929  0.2542 -0.2375  0.4174
43380SOL    HW134697  10.494   1.691   8.933  1.6629  0.4657  1.0317
43380SOL    HW234698  10.483   1.816   8.848  1.1840  0.4690  1.1002
43381SOL     OW34699   5.351   2.842   2.344 -0.1832 -0.5592 -0.2013
43381SOL    HW134700   5.349   2.849   2.249 -0.1824  1.0522 -0.1141
43381SOL    HW234701   5.441   2.862   2.368 -0.8963  2.5258  0.2922
43382SOL     OW34702   1.853   9.926   4.041 -0.5679  0.1161 -0.8888
43382SOL    HW134703   1.858  10.005   4.096  0.2770  0.3847 -1.3261
43382SOL    HW234704   1.760   9.915   4.023 -0.8308  0.2317  0.2972
43383SOL     OW34705   6.292   2.347   0.310  0.6368  0.7676  0.2944
43383SOL    HW134706   6.363   2.304   0.358 -0.1773  0.5446  1.3365
43383SOL    HW234707   6.242   2.393   0.377 -0.0119  1.2034 -0.4670
43384SOL     OW34708   7.764  10.258   1.653  0.4567 -0.5833  0.0218
43384SOL    HW134709   7.828  10.203   1.608  0.8060  1.4047 -2.0797
43384SOL    HW234710   7.695  10.272   1.588 -1.2305 -1.1125  1.6045
43385SOL     OW34711  10.775   3.511   6.042  0.7975  0.1145  0.2341
43385SOL    HW134712  10.789   3.501   5.948 -1.2856  0.2073 -0.1215
43385SOL    HW234713  10.726   3.433   6.068 -0.9047  1.2958  0.7095
43386SOL     OW34714  10.966   2.068  10.817  0.1378 -0.3819 -0.0944
43386SOL    HW134715  11.052   2.093  10.783  0.2578  0.1396  0.5769
43386SOL    HW234716  10.976   1.975  10.839  0.6434 -0.2314  0.3299
43387SOL     OW34717  10.353   9.410   4.489  0.1251 -0.3390  0.1025
43387SOL    HW134718  10.272   9.396   4.538  0.1513 -0.6124  0.0686
43387SOL    HW234719  10.401   9.474   4.541 -0.2289  0.0202 -0.0148
43388SOL     OW34720  10.520   5.526   9.692 -0.8413  0.1191 -0.2962
43388SOL    HW134721  10.427   5.542   9.677 -0.5756  1.9206 -0.3542
43388SOL    HW234722  10.563   5.606   9.660  0.6812 -0.4829  0.1501
43389SOL     OW34723   0.747   6.004   0.236  0.0766  0.3050  0.4709
43389SOL    HW134724   0.743   5.934   0.171  3.4663  1.7879 -1.6715
43389SOL    HW234725   0.791   5.964   0.311 -1.0777 -0.6655  0.6541
43390SOL     OW34726   0.265   2.399  11.575  0.0070  0.0648  0.0542
43390SOL    HW134727   0.316   2.397  11.494 -1.5028 -0.9944 -0.9105
43390SOL    HW234728   0.280   2.314  11.616 -0.5717 -0.0460  0.0374
43391SOL     OW34729  11.969   1.927   2.484 -0.1615 -0.1562 -0.4837
43391SOL    HW134730  11.986   1.923   2.390  1.1307  1.8227 -0.3947
43391SOL    HW234731  12.054   1.947   2.523 -1.0287  1.0506  0.9116
43392SOL     OW34732  10.236   3.401  11.083 -0.0767 -0.4395  0.2938
43392SOL    HW134733  10.271   3.426  11.168  0.6351 -1.1505  0.2202
43392SOL    HW234734  10.142   3.396  11.096 -0.0300  0.1052  0.8650
43393SOL     OW34735  11.849  11.118   1.922 -0.3333 -0.3865 -0.3071
43393SOL    HW134736  11.835  11.045   1.862  0.2026  0.7235 -1.8422
43393SOL    HW234737  11.847  11.079   2.009 -0.2837 -2.1782 -1.0843
43394SOL     OW34738   9.504   1.542   5.172 -0.0410  0.3976 -0.0449
43394SOL    HW134739   9.449   1.618   5.152 -1.3282 -0.8611 -1.5836
43394SOL    HW234740   9.563   1.535   5.097  0.0825 -0.1140  0.1017
43395SOL     OW34741  10.319   9.592  10.738  0.3514 -1.1445 -0.0533
43395SOL    HW134742  10.323   9.593  10.833  0.3652 -1.5118 -0.0489
43395SOL    HW234743  10.278   9.508  10.717 -1.0007 -0.4576 -0.3154
43396SOL     OW34744   9.202   8.510   6.789  0.1677 -0.5264  0.0711
43396SOL    HW134745   9.128   8.471   6.741 -0.6041  1.4567 -0.4487
43396SOL    HW234746   9.258   8.547   6.721 -0.8514  2.1702  0.5604
43397SOL     OW34747  11.331   2.302   7.621  0.2125 -0.3111  0.3692
43397SOL    HW134748  11.360   2.231   7.564 -0.0764 -1.2590  1.3753
43397SOL    HW234749  11.370   2.380   7.583  0.5219 -0.9947 -0.7790
43398SOL     OW34750   1.424   6.500   7.552 -0.1474  0.3935 -0.1090
43398SOL    HW134751   1.368   6.423   7.547  0.5074 -0.3060  2.0716
43398SOL    HW234752   1.370   6.565   7.597  0.1571  0.3372  0.3420
43399SOL     OW34753   0.886   5.999   3.864  0.3047 -0.1538 -0.3790
43399SOL    HW134754   0.878   5.907   3.889  2.0711 -0.0066  0.8718
43399SOL    HW234755   0.872   6.047   3.946  0.8030  0.6304 -0.7464
43400SOL     OW34756   4.970   2.264   4.012 -0.2844  0.0211 -0.2257
43400SOL    HW134757   5.026   2.330   4.052  1.1480 -1.4449  0.3297
43400SOL    HW234758   4.882   2.286   4.041  0.1728  1.5888  0.0392
43401SOL     OW34759   7.570  11.423   2.662  0.1686  0.2904 -0.3440
43401SOL    HW134760   7.592  11.373   2.584  0.7699 -0.2001  0.1354
43401SOL    HW234761   7.613  11.507   2.650 -0.8328  0.7130 -1.1430
43402SOL     OW34762  11.707   3.760   5.138  0.2016 -0.5275  0.0449
43402SOL    HW134763  11.649   3.788   5.068  0.3617 -0.1559  0.0564
43402SOL    HW234764  11.732   3.670   5.115 -0.5807 -0.7889  0.1825
43403SOL     OW34765   4.077  11.020   4.362  0.3519 -0.7086 -0.1268
43403SOL    HW134766   4.146  11.023   4.295 -0.8260 -0.3262 -1.3544
43403SOL    HW234767   4.030  10.939   4.345 -1.7887  0.7565 -1.7173
43404SOL     OW34768   2.789   9.449   7.506 -0.0748 -0.1071 -0.4469
43404SOL    HW134769   2.735   9.418   7.433 -2.1871 -0.4341  1.1609
43404SOL    HW234770   2.746   9.529   7.535  0.9715  0.2398  0.2033
43405SOL     OW34771   1.062   9.161   4.516 -0.3704  0.0501  0.5215
43405SOL    HW134772   1.065   9.249   4.555  0.2264 -0.0798  0.7639
43405SOL    HW234773   1.135   9.160   4.455 -1.1833  0.1876 -0.4848
43406SOL     OW34774   9.244  10.841  11.178  0.2610 -0.0473 -0.4188
43406SOL    HW134775   9.312  10.884  11.230 -0.5001 -0.1547  0.6963
43406SOL    HW234776   9.245  10.888  11.094  0.2569  1.3628  0.3472
43407SOL     OW34777   6.012   8.319   1.281  0.0773 -0.1973  0.3601
43407SOL    HW134778   5.924   8.293   1.310 -0.0065  1.5734  1.9181
43407SOL    HW234779   6.009   8.415   1.280  2.1925 -0.0694  1.1654
43408SOL     OW34780   5.565  10.750  11.315 -0.0698  0.0172 -0.5957
43408SOL    HW134781   5.596  10.808  11.384  0.6896 -1.7442  0.6208
43408SOL    HW234782   5.627  10.763  11.243 -0.8639  1.8594 -1.0050
43409SOL     OW34783   9.181   0.364   9.182  0.1704 -0.1636 -0.0627
43409SOL    HW134784   9.266   0.323   9.194  0.0772 -0.0573  1.1176
43409SOL    HW234785   9.123   0.315   9.241 -0.6523 -0.4229 -1.0642
43410SOL     OW34786   4.575   3.663   2.337 -0.0748 -0.2627  0.1700
43410SOL    HW134787   4.524   3.650   2.417  2.0678  0.2560  1.7174
43410SOL    HW234788   4.562   3.583   2.286  1.6503 -2.4669  2.9282
43411SOL     OW34789   1.003   7.651  10.915  0.1129  0.6091  0.3702
43411SOL    HW134790   1.001   7.604  10.831  0.2473 -0.2745  0.8528
43411SOL    HW234791   1.061   7.598  10.970  0.3500  1.4065  0.8929
43412SOL     OW34792   7.167   4.991   1.299  0.2159  0.3631  0.0158
43412SOL    HW134793   7.191   4.924   1.235 -0.3810 -0.6174  0.7929
43412SOL    HW234794   7.099   5.042   1.255  0.4472  0.2614 -0.4645
43413SOL     OW34795   0.204   0.533   2.173 -0.2657  0.2007  0.1890
43413SOL    HW134796   0.173   0.503   2.088 -0.3746 -0.2690  0.3897
43413SOL    HW234797   0.290   0.492   2.183  0.7034  1.9220 -0.5990
43414SOL     OW34798   3.978  10.308  12.123 -0.0564  0.5071  0.4612
43414SOL    HW134799   3.884  10.296  12.113  0.0283 -1.8535  1.8103
43414SOL    HW234800   3.987  10.370  12.195 -0.5970 -0.0872  1.0512
43415SOL     OW34801  10.846   1.798  12.051  0.3045  0.1483 -0.5149
43415SOL    HW134802  10.891   1.804  11.967  1.8898 -1.2010  0.1754
43415SOL    HW234803  10.773   1.861  12.045 -0.7662 -1.2184 -3.5546
43416SOL     OW34804  11.771   8.889   4.605  0.1953  0.0445 -0.0275
43416SOL    HW134805  11.831   8.844   4.545  0.4691  1.1879 -0.6394
43416SOL    HW234806  11.815   8.887   4.690  0.1963 -0.8429 -0.0428
43417SOL     OW34807   0.442   4.393   6.933 -0.4995  0.0452  0.4363
43417SOL    HW134808   0.452   4.334   6.858  0.1949  1.8200 -0.9253
43417SOL    HW234809   0.530   4.398   6.971 -0.5090  0.3808  0.4131
43418SOL     OW34810   3.933   1.313   1.071 -0.3918  0.6892 -0.2873
43418SOL    HW134811   3.905   1.403   1.089  0.9127  0.5683  3.0936
43418SOL    HW234812   3.853   1.268   1.042 -1.1546  2.7711 -1.6291
43419SOL     OW34813   0.193   8.222   2.711 -0.0754  0.5017 -0.0618
43419SOL    HW134814   0.285   8.239   2.692  0.4465 -1.5094  0.4578
43419SOL    HW234815   0.178   8.133   2.680 -1.0447 -0.3131  2.4832
43420SOL     OW34816  11.320   9.746   7.731  0.2005  1.4874 -0.5760
43420SOL    HW134817  11.306   9.828   7.683 -1.7789  1.9795  0.7542
43420SOL    HW234818  11.248   9.742   7.794 -0.6054 -1.9485 -1.4932
43421SOL     OW34819   7.291  10.183   9.550 -0.6230 -0.7638  0.3247
43421SOL    HW134820   7.357  10.203   9.616 -3.0838 -0.7202  2.9847
43421SOL    HW234821   7.311  10.242   9.477  2.2184 -0.8137  0.9644
43422SOL     OW34822   1.266   6.682   7.678 -0.5191  0.1374  0.1618
43422SOL    HW134823   1.267   6.750   7.610 -0.9755  0.6096  0.6168
43422SOL    HW234824   1.175   6.652   7.680 -0.0198 -1.6520 -1.1500
43423SOL     OW34825  11.707   4.616   1.498  0.0607  0.2418  0.7268
43423SOL    HW134826  11.622   4.641   1.536 -0.3695 -0.6384  0.3836
43423SOL    HW234827  11.707   4.521   1.501  0.5595  0.1941 -0.3058
43424SOL     OW34828  10.953   3.769  11.867  0.1897 -0.0524  0.3476
43424SOL    HW134829  10.879   3.779  11.928  0.4761  2.1241  0.4254
43424SOL    HW234830  10.916   3.785  11.781 -0.0145 -2.1510 -0.0051
43425SOL     OW34831   7.502   4.018   5.027 -0.3505 -0.1532  0.0738
43425SOL    HW134832   7.574   4.012   4.965 -0.2593 -0.8547  0.2340
43425SOL    HW234833   7.544   4.020   5.113 -0.5161 -3.1180  0.3350
43426SOL     OW34834   0.041   7.638   6.739 -0.4886 -0.0392 -0.7358
43426SOL    HW134835   0.110   7.612   6.678 -0.3190  0.3841 -0.7326
43426SOL    HW234836   0.069   7.724   6.771 -1.7582  0.8645 -1.8968
43427SOL     OW34837  11.202  11.431   0.854 -0.1966 -0.4020  0.3653
43427SOL    HW134838  11.230  11.522   0.848  0.5260 -0.6427 -0.0013
43427SOL    HW234839  11.153  11.415   0.773  0.7319 -0.6887 -0.1470
43428SOL     OW34840   6.398  10.024   1.740 -0.3798  0.1248 -0.6023
43428SOL    HW134841   6.379   9.933   1.718  3.0050 -0.8305 -0.1459
43428SOL    HW234842   6.467  10.050   1.679 -0.7039  2.1179 -0.1864
43429SOL     OW34843  12.084   6.699   3.861 -0.7641  0.2377  0.0688
43429SOL    HW134844  12.118   6.669   3.777 -1.0047  0.4101 -0.0930
43429SOL    HW234845  12.005   6.749   3.839 -0.6486  0.5618  0.3709
43430SOL     OW34846   8.897   8.956   0.755  0.1479 -0.2148  0.6863
43430SOL    HW134847   8.866   9.046   0.767 -0.0071 -0.1647 -0.0635
43430SOL    HW234848   8.982   8.965   0.711 -0.3812 -0.4599 -0.4195
43431SOL     OW34849  10.560  11.092   4.621 -0.2381  0.3932  0.0073
43431SOL    HW134850  10.576  11.170   4.568 -1.6033  1.0712  0.5308
43431SOL    HW234851  10.473  11.106   4.658 -0.2759 -1.1354  0.5659
43432SOL     OW34852   5.307  11.557   8.795 -0.4217 -0.3089  0.0651
43432SOL    HW134853   5.278  11.611   8.869  0.0184  0.3225 -0.2040
43432SOL    HW234854   5.397  11.533   8.818  0.7212  2.1351 -1.4172
43433SOL     OW34855   7.193   2.793   4.333 -0.4328  0.0105 -0.6652
43433SOL    HW134856   7.231   2.877   4.308  1.8002 -0.5122  0.6499
43433SOL    HW234857   7.118   2.816   4.388  0.7009  1.2017  0.4536
43434SOL     OW34858   6.333   5.219   6.505 -0.2463  0.2320 -0.1068
43434SOL    HW134859   6.264   5.246   6.565 -1.1091 -0.1809 -0.8989
43434SOL    HW234860   6.348   5.296   6.449  1.6740  1.1947  1.5803
43435SOL     OW34861   5.847   4.567   5.901 -0.3589  0.3216  0.5379
43435SOL    HW134862   5.932   4.527   5.884 -0.8988  0.2128 -2.2437
43435SOL    HW234863   5.791   4.494   5.928 -0.1324  0.0147  0.1838
43436SOL     OW34864   4.026   1.574   3.630  0.3775  0.6905  0.0203
43436SOL    HW134865   4.076   1.502   3.670 -0.3090  0.0704 -0.2199
43436SOL    HW234866   4.027   1.554   3.536 -0.3074  0.6788  0.0126
43437SOL     OW34867   4.871   0.302   5.190  0.0467  0.1363 -0.1899
43437SOL    HW134868   4.798   0.251   5.223 -0.0541 -0.5748 -1.4655
43437SOL    HW234869   4.836   0.391   5.180  0.0475  0.3597  1.4190
43438SOL     OW34870   1.044   5.418   8.278 -0.2703  0.1992 -0.3340
43438SOL    HW134871   1.115   5.451   8.223  0.2885  0.3518  0.4469
43438SOL    HW234872   1.030   5.328   8.247  1.3872 -0.4084  0.5105
43439SOL     OW34873  11.739  10.743   5.229 -0.0758  0.3294  0.2482
43439SOL    HW134874  11.788  10.813   5.186  2.0544 -0.5959  1.0562
43439SOL    HW234875  11.681  10.709   5.161  0.1257  1.6947 -0.6436
43440SOL     OW34876   7.496   7.415   2.969  0.3135  0.1776 -0.1007
43440SOL    HW134877   7.515   7.354   2.899 -0.2063  1.5772 -1.5254
43440SOL    HW234878   7.542   7.496   2.945 -0.6236  0.9783  0.6758
43441SOL     OW34879   3.851   8.904   6.282 -0.1803  0.3639  0.4381
43441SOL    HW134880   3.927   8.921   6.337  0.7206 -0.2682 -0.5728
43441SOL    HW234881   3.867   8.954   6.202  0.3804 -1.6351 -0.7680
43442SOL     OW34882   7.982   0.293  10.849 -0.5486 -0.2748 -0.1949
43442SOL    HW134883   7.958   0.289  10.756  0.1127  1.6874 -0.4887
43442SOL    HW234884   7.898   0.292  10.895 -1.1483  2.4442 -1.0283
43443SOL     OW34885   9.991   0.382  11.184 -0.5079 -0.4386  0.2281
43443SOL    HW134886  10.067   0.439  11.167  1.0978 -2.3150  0.7653
43443SOL    HW234887   9.974   0.339  11.100  0.2704 -1.4112  0.5467
43444SOL     OW34888   0.148   0.179   1.160  0.1385 -0.2625  0.3448
43444SOL    HW134889   0.084   0.109   1.145 -0.4213  0.2391  0.3794
43444SOL    HW234890   0.106   0.258   1.128  0.7665  0.0657  0.3192
43445SOL     OW34891   1.997   1.763   8.690  0.4919  0.0943 -0.2278
43445SOL    HW134892   2.088   1.783   8.667  0.5148  1.7676  1.1111
43445SOL    HW234893   2.003   1.683   8.743  0.9733 -0.7350 -1.4765
43446SOL     OW34894   2.836  11.741   9.214  0.3995  0.6489 -0.0582
43446SOL    HW134895   2.754  11.707   9.248 -0.0003 -0.2121 -1.7760
43446SOL    HW234896   2.892  11.664   9.206  1.0332  1.0791  0.1397
43447SOL     OW34897   0.965   6.795   9.455 -0.5242 -0.2213  0.0653
43447SOL    HW134898   1.023   6.865   9.484  2.4859 -2.2420 -0.6909
43447SOL    HW234899   0.967   6.800   9.359 -0.5086 -1.1454  0.0121
43448SOL     OW34900   0.353   8.567  11.219  0.5686  0.2321 -0.3981
43448SOL    HW134901   0.411   8.531  11.286 -0.2876  2.3185  1.5924
43448SOL    HW234902   0.274   8.593  11.266 -0.2426  1.4300 -2.2766
43449SOL     OW34903  10.127   9.968   1.697  0.0291 -0.0536 -0.2749
43449SOL    HW134904  10.200   9.936   1.751 -0.7062 -0.8532  0.2769
43449SOL    HW234905  10.162   9.967   1.608  1.3845  1.6278  0.1858
43450SOL     OW34906   2.719   0.793  11.810 -0.6057 -0.0227  0.3416
43450SOL    HW134907   2.737   0.854  11.881  0.0997  0.8165 -0.5251
43450SOL    HW234908   2.693   0.712  11.854  0.0584  0.3888  1.5589
43451SOL     OW34909   0.684   2.928   1.358  0.1876 -0.5616 -0.4656
43451SOL    HW134910   0.729   2.856   1.314  2.8847 -0.5504  1.9698
43451SOL    HW234911   0.730   3.007   1.329  1.7324 -0.5203  1.8364
43452SOL     OW34912   4.994   1.967   1.432  0.0993 -0.3142 -0.2472
43452SOL    HW134913   5.018   2.028   1.501  0.4265 -1.2918  0.5345
43452SOL    HW234914   5.072   1.960   1.377 -0.5802  1.4718 -1.5337
43453SOL     OW34915   9.304   7.970  11.830 -0.3986 -0.3550 -0.2855
43453SOL    HW134916   9.308   8.030  11.755  0.8288 -1.2752 -1.0038
43453SOL    HW234917   9.280   8.025  11.904 -2.2612  0.4940 -1.4449
43454SOL     OW34918   3.555   5.454   8.914  0.3640 -0.2964  0.3954
43454SOL    HW134919   3.551   5.544   8.881  0.7796 -0.4219 -0.0187
43454SOL    HW234920   3.648   5.432   8.912  0.1724 -1.1211 -0.6004
43455SOL     OW34921  11.670   0.726   6.723  0.0722  0.3026 -0.0703
43455SOL    HW134922  11.641   0.668   6.652 -0.7670 -0.7730  1.1058
43455SOL    HW234923  11.753   0.689   6.752  0.7769  1.1601 -0.9285
43456SOL     OW34924   4.325   2.036   9.817  0.2517  0.5071  0.2886
43456SOL    HW134925   4.401   2.078   9.778  1.2077 -2.2467 -1.0722
43456SOL    HW234926   4.361   1.969   9.875 -1.1962  0.8853  1.7278
43457SOL     OW34927  10.462   6.637   4.246 -0.5875 -0.9070 -0.2443
43457SOL    HW134928  10.404   6.694   4.196  0.1619 -0.6710 -0.8524
43457SOL    HW234929  10.426   6.549   4.234 -0.5401 -0.8236 -1.0055
43458SOL     OW34930   8.392   7.897  11.831 -0.3924  0.2055  0.3030
43458SOL    HW134931   8.369   7.815  11.788  1.5492 -0.4142  0.3697
43458SOL    HW234932   8.428   7.951  11.760 -0.7385  0.6305  0.4482
43459SOL     OW34933   6.736   9.098  11.053  0.1639  0.1067  0.4699
43459SOL    HW134934   6.652   9.053  11.069  0.0489  0.3441  0.5374
43459SOL    HW234935   6.748   9.153  11.130 -0.1392  0.8674 -0.0166
43460SOL     OW34936   2.542   8.354  10.858  0.0094 -0.3192  0.0194
43460SOL    HW134937   2.554   8.409  10.780 -0.2928 -2.1667 -1.3831
43460SOL    HW234938   2.457   8.382  10.893 -0.2584 -0.0402 -0.8109
43461SOL     OW34939   4.896   0.022   7.472  0.1375 -0.0848 -0.0869
43461SOL    HW134940   4.870   0.002   7.382  0.7816  0.6215 -0.4425
43461SOL    HW234941   4.852   0.105   7.492  0.5016  0.0881  0.0111
43462SOL     OW34942   2.717   3.042   8.256 -0.3299 -0.0253  0.1167
43462SOL    HW134943   2.698   2.965   8.202  1.7556 -0.1930 -0.4550
43462SOL    HW234944   2.711   3.116   8.196 -0.3984  0.0587  0.2268
43463SOL     OW34945   8.461   8.938  10.576 -0.3745  0.0121  0.4803
43463SOL    HW134946   8.461   8.893  10.661  1.8425  0.7286  0.9361
43463SOL    HW234947   8.387   8.999  10.582 -2.8156 -2.6811  0.2300
43464SOL     OW34948   0.862   5.609   2.472 -0.4739 -0.1756 -0.2374
43464SOL    HW134949   0.807   5.662   2.530  0.7235  2.3135 -1.2191
43464SOL    HW234950   0.809   5.597   2.393 -0.2372  0.9006 -0.5836
43465SOL     OW34951   0.761   3.390   8.492 -0.1796 -0.2166  0.0728
43465SOL    HW134952   0.773   3.388   8.397  1.3279 -2.6569  0.2170
43465SOL    HW234953   0.691   3.327   8.509  0.3025 -0.6003  0.6567
43466SOL     OW34954   0.004   0.702   3.299 -0.3565 -0.5195  0.5353
43466SOL    HW134955  -0.068   0.762   3.279 -0.0019 -0.4786 -0.7052
43466SOL    HW234956   0.058   0.749   3.362 -0.2425  0.3559 -0.2030
43467SOL     OW34957   1.117   7.278   9.346  0.2647  0.0489 -0.8984
43467SOL    HW134958   1.136   7.371   9.361  2.0763 -0.1706 -1.5319
43467SOL    HW234959   1.186   7.232   9.393 -1.2841 -1.0639  0.4001
43468SOL     OW34960  10.485   9.369   9.470  0.0130  0.5886  0.0869
43468SOL    HW134961  10.414   9.331   9.521 -0.0138  0.1485 -0.2688
43468SOL    HW234962  10.447   9.382   9.383  0.8807 -1.3961 -0.6532
43469SOL     OW34963   0.815  10.390  11.020 -0.2664 -0.6658 -0.6952
43469SOL    HW134964   0.788  10.433  10.939  1.5486 -0.3786 -1.1799
43469SOL    HW234965   0.863  10.457  11.068 -1.0412 -0.9294  0.5037
43470SOL     OW34966   0.206   3.597  11.636  0.0104  0.3510  0.3507
43470SOL    HW134967   0.197   3.587  11.541 -1.0785 -0.8805  0.5580
43470SOL    HW234968   0.122   3.567  11.671  0.7929 -0.2505  1.7688
43471SOL     OW34969  10.084   7.989   8.664  0.0834 -0.2570  0.3999
43471SOL    HW134970  10.044   8.058   8.718 -0.1926  0.0038 -0.1305
43471SOL    HW234971  10.147   7.947   8.722  1.1464  1.2344  0.3837
43472SOL     OW34972   3.374   9.338   5.489  1.1685  0.1256 -0.8214
43472SOL    HW134973   3.361   9.269   5.553  0.4722  0.3652 -0.7035
43472SOL    HW234974   3.354   9.298   5.405  0.4230  0.2776 -0.7183
43473SOL     OW34975   1.999   6.352   3.224 -0.1617 -0.1420 -0.0048
43473SOL    HW134976   2.086   6.346   3.265 -0.8363 -0.6207  1.4275
43473SOL    HW234977   2.002   6.287   3.153  1.0696  0.7829 -0.8469
43474SOL     OW34978  10.394   9.354  11.662 -0.1257  0.4637  0.0334
43474SOL    HW134979  10.368   9.435  11.620 -2.0262 -0.3120 -0.3898
43474SOL    HW234980  10.370   9.365  11.754 -0.7696  0.2373 -0.1043
43475SOL     OW34981   8.158   9.902   8.543  0.1270 -0.7736  0.6192
43475SOL    HW134982   8.182   9.958   8.617  0.8027 -0.0618 -0.1087
43475SOL    HW234983   8.071   9.869   8.564  0.6478 -1.2640  2.1136
43476SOL     OW34984   0.983   0.811   4.580  0.0532  0.9746 -0.1927
43476SOL    HW134985   1.034   0.878   4.534 -0.8245  0.9370 -1.2731
43476SOL    HW234986   0.892   0.833   4.560 -0.2345 -0.9392 -1.1617
43477SOL     OW34987   8.892   5.097   5.572 -0.0327  0.1793 -0.6063
43477SOL    HW134988   8.836   5.162   5.615  0.6956  0.9718 -0.8352
43477SOL    HW234989   8.867   5.013   5.613 -1.6541  0.4469 -0.9844
43478SOL     OW34990   2.106   8.954   0.192 -0.1582 -0.5454 -0.2156
43478SOL    HW134991   2.046   8.923   0.259 -0.0856  0.6783  0.4344
43478SOL    HW234992   2.174   8.886   0.187  1.0375  0.3292  2.5223
43479SOL     OW34993   0.692  11.036   2.813  0.2846 -0.4343  0.1709
43479SOL    HW134994   0.731  10.975   2.750 -0.7317 -2.0570  1.0385
43479SOL    HW234995   0.618  11.073   2.766  0.8671  0.1063 -0.3423
43480SOL     OW34996   8.334   2.187   4.873  0.0288  0.4018 -0.4057
43480SOL    HW134997   8.348   2.098   4.842  1.6365 -0.0112  1.3524
43480SOL    HW234998   8.296   2.233   4.797  1.0120 -1.2662 -1.9886
43481SOL     OW34999   5.267   5.881   8.411 -0.0938 -0.3523  0.3741
43481SOL    HW135000   5.315   5.844   8.337  3.0611 -0.0920  2.1177
43481SOL    HW235001   5.308   5.967   8.426 -1.9186  0.4149  1.3016
43482SOL     OW35002   5.921   9.497   9.576 -0.3191 -0.1901  0.8992
43482SOL    HW135003   5.986   9.558   9.611  0.2042 -0.3163  0.1822
43482SOL    HW235004   5.892   9.446   9.651  1.5119 -1.1370  1.0224
43483SOL     OW35005   2.122   2.222  11.247 -0.0227  0.1551  0.0975
43483SOL    HW135006   2.105   2.203  11.339  2.3213  1.4779  0.9066
43483SOL    HW235007   2.168   2.306  11.248  0.2998  0.0765 -2.2559
43484SOL     OW35008  11.612   6.948  11.851  0.1749 -0.0489  0.2372
43484SOL    HW135009  11.608   6.854  11.866  2.8015  0.0172  2.0055
43484SOL    HW235010  11.663   6.958  11.771  0.5894 -0.1063  0.4968
43485SOL     OW35011   9.733   4.352   6.429  0.3656 -0.5599 -0.2064
43485SOL    HW135012   9.760   4.293   6.500  0.1702 -1.6328 -1.0004
43485SOL    HW235013   9.752   4.439   6.462 -0.2241 -0.9953  1.4003
43486SOL     OW35014   2.283   3.463   5.235  0.1508  0.0593 -0.0378
43486SOL    HW135015   2.226   3.451   5.160 -0.7889 -2.2682  0.9592
43486SOL    HW235016   2.344   3.389   5.231  1.7833  1.3353  0.1001
43487SOL     OW35017   9.481   8.604   4.115  0.1153 -0.3405 -0.0777
43487SOL    HW135018   9.527   8.545   4.055  1.7917  0.4602  0.3505
43487SOL    HW235019   9.434   8.664   4.057  1.5774  0.3225 -0.6352
43488SOL     OW35020  11.913   4.764   7.672 -0.0592 -0.5055 -0.0576
43488SOL    HW135021  11.850   4.833   7.653 -0.4479  0.0478  2.7609
43488SOL    HW235022  11.872   4.714   7.743  1.6630 -1.5982  0.2216
43489SOL     OW35023   9.360   9.606   7.908 -0.3919  0.1175  0.3094
43489SOL    HW135024   9.453   9.594   7.889 -0.4496  0.4489 -0.2206
43489SOL    HW235025   9.323   9.636   7.825 -0.7170  1.3439  0.8677
43490SOL     OW35026   7.625   1.266   5.287 -0.3317 -0.0774 -0.4213
43490SOL    HW135027   7.709   1.248   5.244  0.9877  1.2104  1.4611
43490SOL    HW235028   7.606   1.357   5.263  1.1169  1.1460  2.5878
43491SOL     OW35029   7.061  10.592   7.810 -0.4734 -0.3492  0.4785
43491SOL    HW135030   6.998  10.578   7.881 -1.3589  0.9425 -0.0070
43491SOL    HW235031   7.079  10.686   7.813  1.7117 -0.7230  0.7944
43492SOL     OW35032   7.601   6.562   9.586  0.3045 -0.0821  0.3929
43492SOL    HW135033   7.588   6.612   9.505 -3.1530 -0.5980  0.4788
43492SOL    HW235034   7.537   6.599   9.647  0.3771 -2.0152  1.7276
43493SOL     OW35035   1.213   5.906  10.550  0.1831  0.0643 -0.0863
43493SOL    HW135036   1.260   5.907  10.633 -1.0154  1.6107  0.6447
43493SOL    HW235037   1.249   5.980  10.501 -1.1594  1.0782  0.3588
43494SOL     OW35038   2.846   9.039   4.328  0.5911 -0.6159 -0.2310
43494SOL    HW135039   2.814   9.014   4.242 -2.5851 -1.2212  0.9985
43494SOL    HW235040   2.804   8.978   4.388  0.4091  1.5170  1.9850
43495SOL     OW35041   7.480   9.578   6.773 -0.1691 -0.5847 -0.0919
43495SOL    HW135042   7.523   9.584   6.688  1.1725 -0.1216  0.5834
43495SOL    HW235043   7.466   9.668   6.800  0.5018 -0.7023  0.6901
43496SOL     OW35044  11.337   8.299   6.837 -0.5047  0.3182 -0.3691
43496SOL    HW135045  11.421   8.263   6.866 -0.2927  0.6362 -0.5765
43496SOL    HW235046  11.296   8.228   6.787 -0.7482 -0.1355  0.4628
43497SOL     OW35047   2.157   3.623   7.580 -0.2314 -0.0279  0.4069
43497SOL    HW135048   2.073   3.652   7.613  0.3859  1.4054  0.7881
43497SOL    HW235049   2.190   3.697   7.529  2.5754  1.1851  3.5677
43498SOL     OW35050  10.940   8.295   0.841 -0.1827 -0.9076  0.3383
43498SOL    HW135051  10.876   8.357   0.807  2.0275 -0.0618 -2.7183
43498SOL    HW235052  10.934   8.220   0.782  1.0115 -1.2164  0.5910
43499SOL     OW35053   7.706   9.160   3.203 -0.0484 -0.1766  0.3682
43499SOL    HW135054   7.644   9.233   3.208  1.3720  1.0702  0.6275
43499SOL    HW235055   7.697   9.128   3.113  0.4775  1.4527 -0.3110
43500SOL     OW35056   0.084   8.772   9.986  0.4778  0.3492 -0.2884
43500SOL    HW135057   0.101   8.864   9.966  1.2944  0.5093  1.0708
43500SOL    HW235058   0.143   8.752  10.058  0.5637 -1.3483 -0.7995
43501SOL     OW35059   7.230   0.745   3.320 -0.0564  0.6585  0.2990
43501SOL    HW135060   7.211   0.723   3.229  2.0721  0.9940 -0.2801
43501SOL    HW235061   7.256   0.837   3.318 -0.2870  0.7633  1.3034
43502SOL     OW35062  10.226  11.546  10.609 -0.4572  0.7823  0.3400
43502SOL    HW135063  10.267  11.632  10.603 -0.1297  0.7125  1.3439
43502SOL    HW235064  10.281  11.489  10.554  2.1018  0.2485  3.1921
43503SOL     OW35065   7.161   7.272   5.460 -0.0328  0.2043  0.3181
43503SOL    HW135066   7.193   7.216   5.390 -1.5657 -0.6893  0.2834
43503SOL    HW235067   7.078   7.233   5.486 -0.9565  2.2028  0.5930
43504SOL     OW35068   1.373   0.982   7.863 -0.1738  0.1065 -0.2986
43504SOL    HW135069   1.292   0.937   7.886  0.1468 -1.1132 -1.4397
43504SOL    HW235070   1.415   0.925   7.799  1.1208  1.1923 -0.4646
43505SOL     OW35071   6.649   5.405   7.811 -0.0150  0.1404 -0.6724
43505SOL    HW135072   6.739   5.385   7.835  0.3660  2.0571 -0.3830
43505SOL    HW235073   6.655   5.445   7.724 -0.8439 -1.6632 -1.6208
43506SOL     OW35074   2.426   6.369   8.095 -0.2856 -0.0421 -0.4509
43506SOL    HW135075   2.352   6.343   8.041 -0.9984 -0.7950  0.8553
43506SOL    HW235076   2.387   6.403   8.176  0.7602  0.7213 -0.2431
43507SOL     OW35077   4.668   6.671   4.080 -0.2450 -0.1309 -0.4965
43507SOL    HW135078   4.728   6.744   4.088  0.0484 -0.3608 -0.6039
43507SOL    HW235079   4.701   6.619   4.007  0.3486 -1.1029  0.4205
43508SOL     OW35080   3.688   9.885  10.507  0.1099  0.0460  0.0968
43508SOL    HW135081   3.725   9.860  10.592  2.6230 -1.4750 -1.3514
43508SOL    HW235082   3.646   9.805  10.475 -1.2361  0.7386  0.0347
43509SOL     OW35083   9.734   4.211   4.321  0.1884  0.4628 -0.3828
43509SOL    HW135084   9.680   4.199   4.243 -0.0270  0.7945 -0.2890
43509SOL    HW235085   9.677   4.258   4.382 -0.0040 -0.7131  0.3720
43510SOL     OW35086   0.385  11.396   7.928 -0.0448 -0.4261  0.3408
43510SOL    HW135087   0.316  11.338   7.894  1.0157 -1.2590 -0.4972
43510SOL    HW235088   0.459  11.380   7.869  0.6523  0.9334  0.8275
43511SOL     OW35089  10.362   5.670   8.922  0.1141 -0.0834  0.7460
43511SOL    HW135090  10.316   5.747   8.955 -0.3310 -0.6122  1.3824
43511SOL    HW235091  10.302   5.632   8.858  0.7347  0.6179 -0.2761
43512SOL     OW35092   5.289   8.148   9.142  0.6771 -0.5193  0.2934
43512SOL    HW135093   5.281   8.062   9.183 -4.0842  0.4688  2.0562
43512SOL    HW235094   5.249   8.137   9.056 -2.3055  0.2304  1.4472
43513SOL     OW35095   4.392   1.492   2.769  0.4619 -0.5197  0.2355
43513SOL    HW135096   4.310   1.514   2.813  0.5806  1.7741 -0.5762
43513SOL    HW235097   4.425   1.575   2.736  2.8875 -1.4540  0.1004
43514SOL     OW35098   8.204   1.905   5.192  0.0324  0.5258  0.3874
43514SOL    HW135099   8.293   1.908   5.225  0.8239 -0.1587 -1.5189
43514SOL    HW235100   8.190   1.990   5.152  0.3047  0.2166 -0.3898
43515SOL     OW35101  11.854   0.189  10.938  0.3791  0.5769  0.2828
43515SOL    HW135102  11.767   0.162  10.965  0.4119 -0.5870 -0.6661
43515SOL    HW235103  11.896   0.219  11.018  0.0843 -1.6184  1.3390
43516SOL     OW35104  11.383   9.003  10.605  0.8158 -0.7817  0.4694
43516SOL    HW135105  11.310   8.981  10.547  0.0780 -0.9495  1.4365
43516SOL    HW235106  11.461   8.992  10.551  0.2230 -1.9983 -0.1787
43517SOL     OW35107  11.815   2.459   2.463 -0.1266  0.0713  0.2237
43517SOL    HW135108  11.871   2.384   2.482 -0.9789 -0.6083  0.1335
43517SOL    HW235109  11.861   2.508   2.395  0.1806 -0.6674 -0.1059
43518SOL     OW35110   5.260   2.811   0.223  0.2221  0.2563 -0.3177
43518SOL    HW135111   5.191   2.873   0.246  0.5610  0.7158 -0.5265
43518SOL    HW235112   5.226   2.763   0.148  0.5971  1.2900 -1.1646
43519SOL     OW35113   8.378   0.219   2.260 -0.0813  0.2304 -0.3609
43519SOL    HW135114   8.337   0.166   2.192  0.4624 -2.2165  1.1017
43519SOL    HW235115   8.320   0.209   2.336  0.8559  0.4619  0.4003
43520SOL     OW35116   1.119   9.766  11.461 -0.1469  0.2919  0.0559
43520SOL    HW135117   1.157   9.706  11.397  0.1442  0.5565 -0.0262
43520SOL    HW235118   1.077   9.834  11.407 -0.2616  0.2924  0.1462
43521SOL     OW35119  10.924   3.061   9.439  0.1085 -0.1499  0.0455
43521SOL    HW135120  10.986   3.131   9.461  0.4427 -0.1959 -0.7300
43521SOL    HW235121  10.840   3.093   9.473  0.7603 -0.7264  2.4232
43522SOL     OW35122   2.143  10.886   1.599 -0.0794 -0.0302 -0.8301
43522SOL    HW135123   2.172  10.853   1.684 -1.7018 -0.4411 -0.4097
43522SOL    HW235124   2.222  10.925   1.561  0.6947  0.1183  0.8315
43523SOL     OW35125   9.193  11.211   9.140  0.0340  0.0416  0.6713
43523SOL    HW135126   9.228  11.290   9.098 -0.0392  0.0228  0.5751
43523SOL    HW235127   9.132  11.243   9.206 -1.0668  0.0363 -0.3137
43524SOL     OW35128   1.276   8.618   9.569 -0.3980  0.0044 -0.5035
43524SOL    HW135129   1.229   8.699   9.551  1.0244  0.3468 -3.2470
43524SOL    HW235130   1.216   8.549   9.541 -1.1071  0.1431  0.6216
43525SOL     OW35131  11.010   7.154  10.975  0.3526  0.4830 -0.1215
43525SOL    HW135132  10.954   7.080  10.948  0.8651 -0.6387  1.7414
43525SOL    HW235133  11.099   7.125  10.954  0.4630  1.1857 -0.6670
43526SOL     OW35134   7.554   3.374   7.088 -0.0501 -0.0706  0.4231
43526SOL    HW135135   7.494   3.316   7.040 -0.2330 -1.0432  1.7608
43526SOL    HW235136   7.501   3.409   7.160  0.7554 -0.2905  1.1372
43527SOL     OW35137   8.301   3.709   2.742 -0.5590 -0.4766 -0.1369
43527SOL    HW135138   8.232   3.643   2.734  0.7469 -2.1078  1.2322
43527SOL    HW235139   8.276   3.760   2.820 -0.1562 -1.2047  0.4874
43528SOL     OW35140   7.141  12.088   8.019  0.0014 -0.0026 -0.1442
43528SOL    HW135141   7.124  12.111   7.928 -1.9785  0.9504  0.4067
43528SOL    HW235142   7.207  12.019   8.015 -0.8925 -0.8089 -2.3609
43529SOL     OW35143   2.231  11.705   4.411 -0.7204  0.1116 -0.3542
43529SOL    HW135144   2.319  11.690   4.376 -1.3779  0.7243 -2.3847
43529SOL    HW235145   2.175  11.643   4.365 -1.5523  0.5496  0.0424
43530SOL     OW35146   4.864  11.327   9.232  0.1794 -0.6974 -0.5476
43530SOL    HW135147   4.821  11.288   9.308  1.2603 -1.4383 -0.2954
43530SOL    HW235148   4.871  11.255   9.169  0.5990 -0.4608 -0.7749
43531SOL     OW35149   4.092  10.849   3.483 -0.0417 -0.2220  0.2472
43531SOL    HW135150   4.019  10.842   3.544  0.3206 -0.5980  0.6432
43531SOL    HW235151   4.057  10.899   3.409 -0.6288 -0.2027  0.5345
43532SOL     OW35152   6.516   2.015   8.639 -0.0596 -0.6921 -0.1164
43532SOL    HW135153   6.487   1.951   8.573 -2.3051 -0.7710  0.8886
43532SOL    HW235154   6.471   2.096   8.615  2.4205  0.5028 -1.1103
43533SOL     OW35155   1.620   2.804   6.926 -0.2611  0.8768 -0.4446
43533SOL    HW135156   1.680   2.819   6.999 -0.3663  2.2906 -0.6288
43533SOL    HW235157   1.537   2.779   6.968 -0.0297  0.6383 -0.1269
43534SOL     OW35158   2.029  12.005   4.260  0.4038 -0.7997  0.3145
43534SOL    HW135159   2.013  11.933   4.321 -0.8010  1.4114  2.8217
43534SOL    HW235160   1.943  12.024   4.223  0.6631 -0.4931 -0.1334
43535SOL     OW35161   3.341   3.964  10.424  0.0186 -0.1932  0.6649
43535SOL    HW135162   3.426   3.923  10.410 -0.5628 -0.9374 -1.0041
43535SOL    HW235163   3.280   3.891  10.433 -1.1640  0.0873 -3.1124
43536SOL     OW35164   7.651   3.031   2.515  0.6936 -0.6360  0.6060
43536SOL    HW135165   7.611   2.948   2.543 -0.2029 -0.6796 -0.6931
43536SOL    HW235166   7.701   3.007   2.436  1.7065 -0.2109  1.1062
43537SOL     OW35167   1.578   8.008   6.144 -0.2024  0.2166  0.2881
43537SOL    HW135168   1.505   8.009   6.083  0.8022  1.4513 -0.9784
43537SOL    HW235169   1.615   7.920   6.136  0.3893  0.5782 -1.5572
43538SOL     OW35170   7.025   0.769  11.064  0.3916 -0.6252  0.0837
43538SOL    HW135171   6.993   0.807  11.145  3.6811 -0.1694  1.3228
43538SOL    HW235172   7.028   0.675  11.081 -2.1932 -0.9627 -0.8737
43539SOL     OW35173   3.012   1.770  11.079  0.3386 -0.2234  0.4431
43539SOL    HW135174   2.945   1.805  11.021  0.4325 -1.9218 -0.7751
43539SOL    HW235175   3.070   1.844  11.097  0.9557  0.1622 -2.5747
43540SOL     OW35176   9.002   4.808   9.303  0.5117  0.2543 -0.0713
43540SOL    HW135177   9.019   4.788   9.395  0.5729  0.4245 -0.0457
43540SOL    HW235178   8.943   4.738   9.274  0.5065  0.1907  0.0922
43541SOL     OW35179   2.097   9.272  11.918  0.0839 -0.2939 -0.1654
43541SOL    HW135180   2.072   9.194  11.967  0.8904 -0.7725 -0.4907
43541SOL    HW235181   2.026   9.285  11.856 -1.3748  0.8167  1.6378
43542SOL     OW35182   1.849   2.030   5.632 -0.5422  0.2265  1.1514
43542SOL    HW135183   1.841   1.981   5.713 -2.1482 -3.1184 -0.8179
43542SOL    HW235184   1.919   1.986   5.584 -1.7293  0.0510 -0.5179
43543SOL     OW35185   9.261  11.280  10.296  0.5076  0.0001 -0.1947
43543SOL    HW135186   9.262  11.367  10.256 -0.0308 -0.8189 -2.0849
43543SOL    HW235187   9.214  11.293  10.378  0.2678  1.4627 -0.5241
43544SOL     OW35188   7.186   5.864  10.658  0.0924 -0.0868 -0.0196
43544SOL    HW135189   7.270   5.867  10.704 -0.1213  0.6545  0.3302
43544SOL    HW235190   7.137   5.795  10.702  0.7261 -0.9285 -0.5995
43545SOL     OW35191  11.414   6.103   0.743 -0.1725  0.7239 -0.1999
43545SOL    HW135192  11.507   6.106   0.762 -0.3135  2.1620  0.4032
43545SOL    HW235193  11.401   6.022   0.694  1.5579  1.0163 -1.2125
43546SOL     OW35194   6.393   4.350   4.668 -0.2542 -0.3937  0.2478
43546SOL    HW135195   6.412   4.263   4.632 -0.9401 -0.2288 -0.5522
43546SOL    HW235196   6.478   4.384   4.694  0.0539 -1.2127  0.3471
43547SOL     OW35197   6.258   3.975   3.299  0.5127  0.0204  0.2521
43547SOL    HW135198   6.226   3.917   3.369 -1.5113  0.6718 -0.0517
43547SOL    HW235199   6.303   4.046   3.345 -0.2301  0.1078  0.8668
43548SOL     OW35200  10.501   3.739   3.013  0.6534  0.8764 -0.0602
43548SOL    HW135201  10.417   3.784   3.024 -0.3094 -0.8196 -0.1192
43548SOL    HW235202  10.530   3.721   3.103  1.4497  2.2825 -0.0121
43549SOL     OW35203   6.966   0.262   5.422  0.2533 -0.1505  0.0496
43549SOL    HW135204   6.913   0.288   5.347 -1.0407 -1.3830  0.4814
43549SOL    HW235205   6.966   0.166   5.419  0.6927 -0.2032  1.2670
43550SOL     OW35206   7.185  10.304  10.163 -0.2332 -0.5639 -0.0836
43550SOL    HW135207   7.201  10.213  10.190 -1.8392 -1.2427 -1.2538
43550SOL    HW235208   7.162  10.349  10.245 -0.8288 -1.5679  0.3303
43551SOL     OW35209   6.265   2.147   6.938  0.0088  0.0973  0.4657
43551SOL    HW135210   6.257   2.180   7.028  0.3012  1.2138  0.1011
43551SOL    HW235211   6.208   2.203   6.886  0.4646 -0.0106 -0.1692
43552SOL     OW35212   1.186   4.399   0.121 -0.2201 -0.9930 -0.0587
43552SOL    HW135213   1.192   4.307   0.149 -1.5651 -0.2678  3.0719
43552SOL    HW235214   1.154   4.445   0.199 -1.3120  1.8782 -2.0582
43553SOL     OW35215   8.510   6.414   7.152 -1.2849  0.6439 -0.4219
43553SOL    HW135216   8.591   6.458   7.177  0.2452 -0.8080 -2.4881
43553SOL    HW235217   8.524   6.322   7.178 -1.3962 -0.0211 -2.5233
43554SOL     OW35218   6.585   9.947   5.177  0.0757  0.0610  0.2413
43554SOL    HW135219   6.579  10.019   5.240 -0.5063  0.5251 -0.3349
43554SOL    HW235220   6.675   9.953   5.143 -0.3971  1.4531 -0.8747
43555SOL     OW35221   3.328   5.112   5.602  0.3669 -0.1575 -0.0739
43555SOL    HW135222   3.376   5.075   5.676  1.6617  0.5511 -0.5170
43555SOL    HW235223   3.339   5.207   5.611 -1.5320  0.0886  0.1489
43556SOL     OW35224   5.594   3.370  10.609  0.4140 -0.2111 -0.0457
43556SOL    HW135225   5.520   3.417  10.648 -1.1424 -1.7948 -0.9664
43556SOL    HW235226   5.618   3.424  10.533  1.2744  1.1181  1.1131
43557SOL     OW35227   0.275   4.963   6.729 -0.3594 -0.2542 -0.3786
43557SOL    HW135228   0.302   4.903   6.799 -0.2615  0.8308  0.5410
43557SOL    HW235229   0.355   4.976   6.678  0.0064  0.2216  0.2891
43558SOL     OW35230   6.621  10.374   3.100  0.3795 -0.0847  0.2009
43558SOL    HW135231   6.630  10.464   3.130  2.7918 -0.3891  0.6362
43558SOL    HW235232   6.566  10.380   3.022  0.5758  1.7818  0.1505
43559SOL     OW35233  10.670   1.137  12.013 -0.1155 -0.5067  0.4722
43559SOL    HW135234  10.751   1.114  11.969 -0.9585 -0.6203 -1.0932
43559SOL    HW235235  10.675   1.092  12.097  0.6970 -1.9116 -0.2905
43560SOL     OW35236   9.863   4.122   9.532 -0.7344  0.0247 -0.6277
43560SOL    HW135237   9.951   4.136   9.497 -0.8180 -1.6365 -1.6430
43560SOL    HW235238   9.820   4.207   9.525  0.5289  0.6502 -0.9199
43561SOL     OW35239   5.979   7.534   7.274 -0.2881 -0.1701 -0.2543
43561SOL    HW135240   5.933   7.485   7.342 -1.7950 -0.5391 -1.5180
43561SOL    HW235241   5.973   7.625   7.303 -1.1334 -0.2956 -0.0110
43562SOL     OW35242   0.618   2.977  10.959  0.2618 -0.2328 -0.6892
43562SOL    HW135243   0.580   2.973  11.047  3.6999  0.2763  0.9816
43562SOL    HW235244   0.617   3.070  10.937  1.9504  0.0071  0.1166
43563SOL     OW35245   7.758   7.419   9.205 -0.5443 -0.2291  0.3326
43563SOL    HW135246   7.752   7.471   9.124  0.4719  1.1454  1.0870
43563SOL    HW235247   7.757   7.328   9.175 -2.5128  0.1863 -1.0356
43564SOL     OW35248   9.698  10.247   6.670  0.2910  0.3881 -0.7748
43564SOL    HW135249   9.793  10.243   6.664  0.2525 -0.9986 -0.7073
43564SOL    HW235250   9.680  10.260   6.763  0.3904 -0.8069 -0.5803
43565SOL     OW35251   0.710   2.453   8.815  0.0088  0.1886 -0.2422
43565SOL    HW135252   0.671   2.412   8.737  0.7736  0.1833 -0.6294
43565SOL    HW235253   0.804   2.457   8.796  0.5036 -1.6683  1.5302
43566SOL     OW35254   0.369   7.277   4.807  0.4814  0.3203  0.0922
43566SOL    HW135255   0.327   7.275   4.893  0.6455  0.3683  0.1734
43566SOL    HW235256   0.372   7.370   4.784  1.5393  0.4183  0.5754
43567SOL     OW35257   8.877   6.543   8.979 -0.5807 -0.1549  0.5027
43567SOL    HW135258   8.840   6.620   8.935  1.6501  0.5004 -0.3344
43567SOL    HW235259   8.964   6.571   9.006  0.5857 -2.6178 -0.4981
43568SOL     OW35260   8.084   9.032   4.915 -0.0052  0.3462  0.2749
43568SOL    HW135261   8.142   8.970   4.959  0.1004 -1.0106 -1.6298
43568SOL    HW235262   8.143   9.093   4.871 -0.0448  0.2398  0.0703
43569SOL     OW35263   5.263   5.111   7.652  0.5592 -0.0601  0.2652
43569SOL    HW135264   5.223   5.083   7.734  0.5730 -1.6396 -0.2405
43569SOL    HW235265   5.190   5.126   7.592  0.5610 -4.0424 -1.0136
43570SOL     OW35266   3.403   3.680   8.913  0.5315  0.2113  0.3178
43570SOL    HW135267   3.450   3.728   8.981 -0.8477 -0.1519  1.5929
43570SOL    HW235268   3.344   3.622   8.961 -0.3985 -0.1668 -1.1983
43571SOL     OW35269   6.129   0.363   2.563  0.1108 -0.4059  0.3297
43571SOL    HW135270   6.049   0.314   2.583  0.5122 -0.8439  0.8762
43571SOL    HW235271   6.108   0.454   2.584 -0.1340 -0.5702  0.7865
43572SOL     OW35272   4.211   7.039   6.670  0.2996  0.1018 -0.4869
43572SOL    HW135273   4.221   7.070   6.760 -0.0614 -2.1030  0.3777
43572SOL    HW235274   4.287   6.982   6.656 -1.5507 -2.6012 -0.1695
43573SOL     OW35275   6.392   6.178   1.673  0.2532  0.0679  0.3779
43573SOL    HW135276   6.487   6.165   1.669  0.3673  1.0347 -0.5403
43573SOL    HW235277   6.382   6.271   1.695 -0.5065 -0.6013  3.3614
43574SOL     OW35278  10.004   0.015  10.279 -0.0021 -0.2453  0.6019
43574SOL    HW135279   9.988  -0.049  10.348 -0.8040  0.4309  1.0680
43574SOL    HW235280   9.932   0.077  10.287  0.6832  0.6408  0.0679
43575SOL     OW35281   0.914  10.746   1.616 -0.2888 -0.1993  0.3058
43575SOL    HW135282   0.858  10.814   1.655 -0.5949 -0.1195 -0.2529
43575SOL    HW235283   1.003  10.780   1.625 -0.3833 -0.0377  0.6437
43576SOL     OW35284   1.057   9.165  12.110  0.2056  0.1890  0.0091
43576SOL    HW135285   1.023   9.234  12.052 -0.5256  0.3420  0.6026
43576SOL    HW235286   1.004   9.088  12.089 -0.3624  0.3600  0.7604
43577SOL     OW35287   6.948   4.289   7.836  0.1224 -0.3782 -0.8054
43577SOL    HW135288   6.983   4.206   7.803  0.0225 -0.8581  0.2422
43577SOL    HW235289   6.862   4.266   7.872  1.4268 -0.6049  2.6101
43578SOL     OW35290   8.592   6.395  11.214  0.2166 -0.1044  0.1742
43578SOL    HW135291   8.524   6.461  11.213  1.0184  0.7350  0.0404
43578SOL    HW235292   8.615   6.381  11.122 -0.5381 -1.2071  0.1359
43579SOL     OW35293   6.001   1.848   4.303  0.0939 -0.3536 -0.0079
43579SOL    HW135294   6.018   1.902   4.226 -0.2132 -2.3184 -1.5171
43579SOL    HW235295   5.917   1.880   4.337  1.7041  2.6887  1.5515
43580SOL     OW35296   6.831   1.306  10.083  0.8226  0.0606 -0.2019
43580SOL    HW135297   6.924   1.307  10.106  0.5021  0.0394  1.1624
43580SOL    HW235298   6.795   1.234  10.134  0.0091  0.1743 -0.6041
43581SOL     OW35299   0.520   2.383  10.008  0.0325 -0.5815 -0.0466
43581SOL    HW135300   0.599   2.391   9.955 -0.5044  0.2150 -0.7550
43581SOL    HW235301   0.532   2.303  10.058  0.5599 -1.3474 -1.3669
43582SOL     OW35302   5.231   3.842   3.927  0.8974  0.2991 -0.1494
43582SOL    HW135303   5.224   3.936   3.907  3.2122  0.6662  0.4900
43582SOL    HW235304   5.306   3.812   3.876  0.2613 -1.1975 -0.2331
43583SOL     OW35305   1.711  11.473   6.371 -0.4404  0.2492 -0.1870
43583SOL    HW135306   1.791  11.460   6.421  0.3069 -0.0666 -1.4224
43583SOL    HW235307   1.689  11.565   6.383 -1.7613 -0.3523  2.8193
43584SOL     OW35308   1.451   0.557   8.700 -0.5046 -0.9393  0.2149
43584SOL    HW135309   1.482   0.532   8.787  1.1292  1.1615  0.3191
43584SOL    HW235310   1.456   0.652   8.699 -1.1454 -0.8750 -1.9476
43585SOL     OW35311  10.397   9.139  10.128  0.3479  0.2414  0.4386
43585SOL    HW135312  10.453   9.140  10.051  0.6681 -0.9135  0.6448
43585SOL    HW235313  10.432   9.069  10.183 -1.1571 -0.3792  0.6628
43586SOL     OW35314   7.402   0.800   5.233  0.5280  0.2599 -0.4792
43586SOL    HW135315   7.334   0.733   5.245  1.2699 -0.4536 -0.1402
43586SOL    HW235316   7.379   0.869   5.295 -0.5977  0.6285 -1.2744
43587SOL     OW35317   8.977   0.023   5.818 -0.2631  0.0227  0.9892
43587SOL    HW135318   9.051  -0.035   5.797  0.9455  1.5840  0.7094
43587SOL    HW235319   8.899  -0.031   5.804  0.7735 -1.2732 -0.0886
43588SOL     OW35320   4.841   9.826   9.422 -0.3074 -0.2895 -0.2936
43588SOL    HW135321   4.876   9.853   9.338 -0.8747  0.5076 -0.2846
43588SOL    HW235322   4.804   9.739   9.405 -1.0146  0.1338 -1.0533
43589SOL     OW35323   9.212   7.920   4.185  0.0550  0.0400  0.2581
43589SOL    HW135324   9.201   8.014   4.194  0.3956  0.2343 -1.1675
43589SOL    HW235325   9.124   7.888   4.162  0.2825  0.2421 -0.9335
43590SOL     OW35326   1.427   4.617   2.616 -0.0892  0.8562  0.0700
43590SOL    HW135327   1.483   4.571   2.554 -0.3437  0.6024  0.0268
43590SOL    HW235328   1.479   4.624   2.696 -0.2985 -0.1014  0.2931
43591SOL     OW35329   7.828  11.849   6.015  0.7906 -0.4153  0.2280
43591SOL    HW135330   7.890  11.870   6.085  0.7109  0.2799  0.0958
43591SOL    HW235331   7.747  11.894   6.040  0.6029 -0.6017 -0.0443
43592SOL     OW35332   9.278   7.083  11.189 -0.3394  0.7624  0.4402
43592SOL    HW135333   9.219   7.015  11.221 -2.4100  0.7325 -2.9888
43592SOL    HW235334   9.241   7.164  11.224 -0.9610  0.5301  0.3356
43593SOL     OW35335   9.993   1.923   8.633 -0.6144  0.7124  0.7016
43593SOL    HW135336  10.034   1.857   8.577  1.4503  1.0736  1.6747
43593SOL    HW235337   9.965   1.874   8.710 -0.9275  0.6663  0.5618
43594SOL     OW35338   1.867   2.639   3.841  0.1581 -0.4380  0.0921
43594SOL    HW135339   1.901   2.601   3.921 -0.5185  0.1840  0.6909
43594SOL    HW235340   1.800   2.577   3.812 -0.6290  0.0511  0.8227
43595SOL     OW35341   6.166  11.630   6.582  0.3544  0.0109  0.1042
43595SOL    HW135342   6.173  11.629   6.677  0.4382 -0.7908  0.1011
43595SOL    HW235343   6.135  11.718   6.560  1.5430  0.6134  0.7777
43596SOL     OW35344  11.813   4.635  10.184  0.0337 -0.2962 -0.0322
43596SOL    HW135345  11.832   4.613  10.275 -1.1167 -1.1758  0.0163
43596SOL    HW235346  11.718   4.631  10.178  0.0840 -0.0214 -1.2310
43597SOL     OW35347   0.945  10.810   5.109 -0.5391 -0.9501  0.0612
43597SOL    HW135348   1.040  10.802   5.099 -0.5606 -0.5241 -0.5129
43597SOL    HW235349   0.930  10.805   5.204  0.0401 -1.1639  0.1446
43598SOL     OW35350   3.818   2.713   2.580  0.1096 -0.2129 -0.3182
43598SOL    HW135351   3.875   2.736   2.507  0.7277 -0.1547  0.1764
43598SOL    HW235352   3.878   2.699   2.654 -0.4485 -0.9094  0.0165
43599SOL     OW35353   0.544   3.534   7.166 -0.0752 -0.3490 -0.0986
43599SOL    HW135354   0.563   3.490   7.249  3.1367 -1.2157 -1.1384
43599SOL    HW235355   0.578   3.622   7.177  0.2421 -0.4268 -0.4385
43600SOL     OW35356   1.538  10.045   8.215  0.7872  0.4798  0.1020
43600SOL    HW135357   1.514   9.965   8.170  0.9851  0.1274  0.6162
43600SOL    HW235358   1.503  10.035   8.304 -0.1896  1.4452 -0.1429
43601SOL     OW35359  11.226   4.525   7.472  0.0125  0.0227 -0.1508
43601SOL    HW135360  11.147   4.470   7.469 -1.0473  1.4949 -2.2398
43601SOL    HW235361  11.257   4.527   7.381  2.3497 -0.2997  0.5849
43602SOL     OW35362   7.518  10.474   7.097  0.4220  0.6876  0.1508
43602SOL    HW135363   7.575  10.468   7.174  0.8947 -1.7311 -0.3200
43602SOL    HW235364   7.432  10.494   7.132  0.7067  0.0061  1.2830
43603SOL     OW35365  12.029   3.590   7.368 -0.7400  0.5637  0.2334
43603SOL    HW135366  11.967   3.663   7.367 -0.6850  0.6151 -1.0979
43603SOL    HW235367  11.975   3.514   7.390 -1.1991  0.6954 -0.3770
43604SOL     OW35368   2.300   7.451   1.573 -0.6559 -0.1373  0.1235
43604SOL    HW135369   2.263   7.440   1.661  0.7829  0.2266  0.7906
43604SOL    HW235370   2.355   7.374   1.560 -1.9065 -0.8828 -1.0363
43605SOL     OW35371   2.501   6.653   8.470  0.0733 -0.6201 -0.4997
43605SOL    HW135372   2.576   6.647   8.411 -1.0443 -2.0688 -1.8456
43605SOL    HW235373   2.442   6.714   8.426 -0.5724 -1.3583 -0.6678
43606SOL     OW35374  10.988   6.340   2.069  0.4834 -0.2169 -0.1571
43606SOL    HW135375  11.032   6.335   2.154  0.1278 -0.0807  0.0364
43606SOL    HW235376  11.058   6.328   2.005  0.6133 -1.3495  0.1733
43607SOL     OW35377   5.512   9.439   3.517 -0.4697  0.3727 -0.5760
43607SOL    HW135378   5.488   9.365   3.573  1.1777  1.5174  1.8070
43607SOL    HW235379   5.471   9.419   3.433 -2.7439 -1.6484  0.8748
43608SOL     OW35380   0.856   6.960   2.742 -0.1040  0.2927  0.1456
43608SOL    HW135381   0.901   7.044   2.736  1.4467 -0.6017 -2.3699
43608SOL    HW235382   0.869   6.932   2.833  2.7143  1.0783  0.0985
43609SOL     OW35383   5.964   4.484   1.344 -0.8611  0.3093  0.0309
43609SOL    HW135384   5.955   4.561   1.400  0.5214  0.6999 -0.2491
43609SOL    HW235385   5.987   4.413   1.405 -0.1787  0.5578  0.0759
43610SOL     OW35386  10.120   5.026   8.738  0.4501 -0.4567  0.2140
43610SOL    HW135387  10.196   5.080   8.717 -0.5682  1.1941  0.5604
43610SOL    HW235388  10.047   5.088   8.741 -0.6835 -1.7726  1.2603
43611SOL     OW35389   3.585   8.518   6.391 -0.0168  0.2617 -0.2517
43611SOL    HW135390   3.512   8.513   6.329 -0.1358  0.9611 -0.1835
43611SOL    HW235391   3.547   8.495   6.475  0.1106 -0.5430 -0.4131
43612SOL     OW35392   1.648   4.199  10.347 -0.5479  0.3532  0.2420
43612SOL    HW135393   1.588   4.192  10.422 -3.2139  0.8380 -1.6845
43612SOL    HW235394   1.641   4.290  10.319  0.0914  0.0921 -0.8251
43613SOL     OW35395   9.907   5.196   1.475 -0.1740 -0.4162  0.6362
43613SOL    HW135396   9.872   5.180   1.387 -0.0199 -0.0833  0.5095
43613SOL    HW235397   9.968   5.124   1.490 -1.8920 -1.7798  1.4140
43614SOL     OW35398   8.222   3.698   4.864  0.1749 -0.0423  0.3260
43614SOL    HW135399   8.128   3.714   4.863  0.5001  2.1004  0.4888
43614SOL    HW235400   8.261   3.783   4.885  2.2866 -0.1645 -2.5015
43615SOL     OW35401   7.122  11.137   7.530 -0.0689  0.5986  0.3437
43615SOL    HW135402   7.050  11.143   7.466  0.5877  0.3109 -0.4429
43615SOL    HW235403   7.174  11.062   7.501  1.7459  2.0438 -0.3778
43616SOL     OW35404   6.120   7.546   8.732  0.4573  0.0411 -0.5946
43616SOL    HW135405   6.132   7.623   8.675  1.5068  2.5104  2.6762
43616SOL    HW235406   6.028   7.549   8.757  0.6314  0.6024 -0.0104
43617SOL     OW35407   6.461   1.466   0.466  0.6211  0.0978 -0.3841
43617SOL    HW135408   6.498   1.379   0.478  1.5923  0.3338 -1.4723
43617SOL    HW235409   6.430   1.491   0.552  1.4802 -0.8136  0.2111
43618SOL     OW35410   0.159   8.619   0.627 -0.3491  0.3243 -0.1561
43618SOL    HW135411   0.246   8.642   0.597 -0.7630  1.2608 -0.6520
43618SOL    HW235412   0.148   8.666   0.709 -0.6634  0.7854 -0.4614
43619SOL     OW35413   9.559   0.386   2.520 -0.4670 -0.0176  0.1235
43619SOL    HW135414   9.485   0.411   2.464 -0.3280 -0.3264 -0.1930
43619SOL    HW235415   9.637   0.415   2.472 -0.3378 -0.4677  0.0574
43620SOL     OW35416  10.880   9.131   7.785 -0.0338 -0.1804  0.2809
43620SOL    HW135417  10.864   9.149   7.878 -0.9958  0.3740  0.0226
43620SOL    HW235418  10.873   9.035   7.779  1.1116 -0.3246  0.9540
43621SOL     OW35419   4.950   1.333   0.651  0.0602  0.0497 -0.0728
43621SOL    HW135420   4.998   1.299   0.576  0.5853 -1.4299  0.8790
43621SOL    HW235421   4.875   1.379   0.613  0.5165 -0.3204 -1.4926
43622SOL     OW35422   1.825   8.299   0.813  0.2932 -0.4393  0.4287
43622SOL    HW135423   1.820   8.379   0.760 -0.6228 -1.1833 -0.6583
43622SOL    HW235424   1.851   8.329   0.900 -1.9592  1.3317  0.5984
43623SOL     OW35425   6.806  12.097  10.935  0.2927  0.4189 -0.1364
43623SOL    HW135426   6.779  12.084  11.026  0.3661  0.2276 -0.1412
43623SOL    HW235427   6.767  12.023  10.888  1.6619 -0.4366  0.0274
43624SOL     OW35428   4.519   9.863   0.122 -0.4584 -0.7038 -0.1074
43624SOL    HW135429   4.566   9.926   0.067 -0.8472 -0.4026 -0.0938
43624SOL    HW235430   4.487   9.798   0.060 -1.9015  0.2497 -0.4050
43625SOL     OW35431   2.916   2.943  10.888 -0.8020 -0.2525  0.2297
43625SOL    HW135432   2.940   3.008  10.822 -1.2147 -0.5196 -0.1854
43625SOL    HW235433   2.835   2.977  10.927 -0.2706  0.1774  0.9795
43626SOL     OW35434  11.633  10.665   8.392  0.4184 -0.0478  0.1971
43626SOL    HW135435  11.621  10.647   8.485  0.7301 -1.0002  0.0663
43626SOL    HW235436  11.728  10.672   8.381  0.3739  0.2403 -0.0196
43627SOL     OW35437   1.913   0.910   1.692 -0.1103  0.0777  0.1626
43627SOL    HW135438   2.003   0.936   1.671 -0.3702  0.0120 -1.1315
43627SOL    HW235439   1.900   0.940   1.782  1.0884  0.4060  0.2471
43628SOL     OW35440   5.996   8.597   3.999  0.2028 -0.0118 -0.7569
43628SOL    HW135441   5.919   8.603   4.055 -0.1900 -1.2068 -1.1291
43628SOL    HW235442   6.066   8.636   4.050 -0.7806  1.7659 -0.7052
43629SOL     OW35443   5.444   2.950   3.036 -0.2855 -0.1967 -0.4431
43629SOL    HW135444   5.477   2.875   2.987  1.6756  0.8250 -0.7865
43629SOL    HW235445   5.431   3.019   2.971 -0.6659  0.2200  0.0573
43630SOL     OW35446   7.873   3.983   5.790 -0.1755  0.2228  0.5998
43630SOL    HW135447   7.840   3.893   5.794 -2.2015  0.8322 -0.9805
43630SOL    HW235448   7.914   3.989   5.704 -0.0855  0.8161  0.6849
43631SOL     OW35449   7.985   0.627  12.127  0.1677  0.3882 -0.5509
43631SOL    HW135450   8.021   0.556  12.073 -0.3777  0.3293 -0.8416
43631SOL    HW235451   8.057   0.689  12.136  1.0104 -0.7261  0.6412
43632SOL     OW35452  10.574   3.202   3.001  0.0974 -0.1800 -0.4016
43632SOL    HW135453  10.510   3.273   3.005 -1.5495 -1.6626  0.7878
43632SOL    HW235454  10.546   3.148   2.927  1.2724  0.2785 -1.2236
43633SOL     OW35455   3.021   9.044   0.583 -0.7668 -0.3571 -0.4876
43633SOL    HW135456   3.109   9.049   0.545  0.0527  0.8848  1.4175
43633SOL    HW235457   2.998   8.951   0.579  0.1086 -0.5370 -2.0846
43634SOL     OW35458   3.202   3.028   7.971 -0.4322  0.0103  0.0494
43634SOL    HW135459   3.122   3.048   7.924 -0.7199 -0.7216  0.2118
43634SOL    HW235460   3.245   3.113   7.984  1.0096  0.1170 -3.8848
43635SOL     OW35461   3.104  11.229   5.519  0.2418  0.1774  0.0296
43635SOL    HW135462   3.160  11.304   5.501 -0.3666  0.5289 -0.4363
43635SOL    HW235463   3.061  11.210   5.436 -0.6426  0.1780  0.4712
43636SOL     OW35464   0.050  11.171  10.471  0.1697 -0.0014 -0.1543
43636SOL    HW135465   0.082  11.096  10.421 -1.9737 -0.2201 -1.3148
43636SOL    HW235466  -0.024  11.204  10.420 -1.5192  0.3787  2.3670
43637SOL     OW35467   2.890  11.481   3.502 -0.5552 -0.4531  0.1864
43637SOL    HW135468   2.809  11.527   3.482 -1.0927 -0.5622  1.9514
43637SOL    HW235469   2.956  11.550   3.510 -1.4596  0.2138  3.3264
43638SOL     OW35470   5.365   5.319   5.668  0.1286  0.3368  0.8668
43638SOL    HW135471   5.437   5.349   5.612 -1.2262 -1.0088 -1.7474
43638SOL    HW235472   5.393   5.232   5.697  0.2975  0.5462  1.3561
43639SOL     OW35473   6.105  11.998   3.581  0.2392  0.7252 -0.0195
43639SOL    HW135474   6.177  12.011   3.519  1.0161 -0.0339  0.7088
43639SOL    HW235475   6.035  11.958   3.528  1.7879 -2.3309  0.0497
43640SOL     OW35476   0.400   6.478   4.334 -0.1429  0.0205 -0.3586
43640SOL    HW135477   0.426   6.386   4.342 -1.3564 -0.3292 -0.1288
43640SOL    HW235478   0.482   6.525   4.319  0.8900 -0.7354  2.2523
43641SOL     OW35479  10.868   2.466   7.827  0.2986 -0.6158 -0.0065
43641SOL    HW135480  10.780   2.486   7.795 -0.0223  1.4698  1.8851
43641SOL    HW235481  10.855   2.393   7.888 -0.5948  1.0823  1.9647
43642SOL     OW35482  10.850   9.537   4.087 -0.1973  0.6979 -0.9916
43642SOL    HW135483  10.906   9.464   4.061 -0.3159  0.4379 -0.5149
43642SOL    HW235484  10.900   9.585   4.152 -0.2119  0.9128 -1.1380
43643SOL     OW35485   0.629   4.097   2.771 -0.0911 -0.4714  0.5582
43643SOL    HW135486   0.678   4.073   2.849 -1.0377 -0.7008  1.0995
43643SOL    HW235487   0.685   4.160   2.726  0.5225 -0.4296  1.3563
43644SOL     OW35488   9.785   6.490  11.763  0.0008 -0.0269 -0.6598
43644SOL    HW135489   9.833   6.483  11.681  0.3335  0.8957 -0.5565
43644SOL    HW235490   9.693   6.491  11.738  0.1030  0.2829 -1.0222
43645SOL     OW35491  11.156   2.408   2.315 -0.1414  0.3105 -0.1077
43645SOL    HW135492  11.148   2.453   2.399  1.9234  0.4254  0.0960
43645SOL    HW235493  11.209   2.468   2.261 -3.7226  1.5765 -2.5761
43646SOL     OW35494   0.386   0.708   1.324  0.0704  0.3670  0.0811
43646SOL    HW135495   0.365   0.678   1.235  0.6766  1.9524 -0.6283
43646SOL    HW235496   0.302   0.740   1.358 -0.4036 -1.2502  0.5339
43647SOL     OW35497  10.710   1.665   5.961  0.1339  0.2651 -0.3036
43647SOL    HW135498  10.627   1.618   5.952 -0.3427  1.3465 -2.0888
43647SOL    HW235499  10.736   1.650   6.052 -1.5975 -0.7637  0.0764
43648SOL     OW35500   1.612   7.065   1.814  0.9736  0.2934  0.3332
43648SOL    HW135501   1.527   7.022   1.806  0.2214  1.8622 -0.4679
43648SOL    HW235502   1.619   7.121   1.736  1.6146  2.1011  1.6153
43649SOL     OW35503   1.202   1.683   2.922 -0.0786  0.1222  0.0321
43649SOL    HW135504   1.254   1.603   2.928  1.2317  0.8390 -1.1626
43649SOL    HW235505   1.173   1.700   3.011  1.2038 -0.6691  0.6280
43650SOL     OW35506  10.899   2.080   7.833 -0.9840  0.3974  0.8012
43650SOL    HW135507  10.987   2.108   7.860 -1.8371  1.4101  2.6773
43650SOL    HW235508  10.840   2.126   7.893 -2.8137 -0.1941 -0.4860
43651SOL     OW35509  10.605  11.727   8.452 -0.1093 -0.0471  0.3161
43651SOL    HW135510  10.659  11.806   8.447 -0.4978  0.1469 -2.1314
43651SOL    HW235511  10.667  11.657   8.474  1.2044  0.2041 -2.1743
43652SOL     OW35512   1.712   5.104   9.228 -0.0506  0.2524  0.0730
43652SOL    HW135513   1.713   5.124   9.134  0.8319  2.7155  0.5290
43652SOL    HW235514   1.804   5.091   9.251  0.0465  2.3141  1.0468
43653SOL     OW35515   8.113   9.848  10.693  0.1006  0.2557  0.2135
43653SOL    HW135516   8.094   9.778  10.630 -0.1916 -0.1520  0.7510
43653SOL    HW235517   8.092   9.928  10.646 -1.1758 -0.0993  0.1526
43654SOL     OW35518   1.585   8.146   9.577 -0.1103  0.6694 -0.0562
43654SOL    HW135519   1.527   8.158   9.502 -1.1095 -1.6126  0.2667
43654SOL    HW235520   1.541   8.192   9.649  0.0116  1.4631 -0.4846
43655SOL     OW35521   2.443   7.638   3.108 -0.0704 -0.3401 -0.5631
43655SOL    HW135522   2.348   7.653   3.108 -0.0273 -0.0275 -1.7955
43655SOL    HW235523   2.469   7.655   3.199 -1.1026  0.1717 -0.3444
43656SOL     OW35524   5.609   3.106  10.235 -0.8317 -0.1063  0.0186
43656SOL    HW135525   5.701   3.080  10.245 -0.4221  1.7746  1.9575
43656SOL    HW235526   5.606   3.153  10.151 -0.0380 -0.2494 -0.0983
43657SOL     OW35527   7.550   9.031  12.019 -0.6006  0.4839  0.3571
43657SOL    HW135528   7.489   9.009  11.948  1.1174  0.6103 -1.2493
43657SOL    HW235529   7.576   9.121  12.000  0.7096  0.1505  0.4999
43658SOL     OW35530   7.362   7.598   7.968  0.3983 -0.1603  0.0758
43658SOL    HW135531   7.375   7.552   7.885 -1.4362 -1.5894  0.4991
43658SOL    HW235532   7.296   7.665   7.947  0.7506  0.2101  0.1472
43659SOL     OW35533   8.966   7.097   9.115 -0.3524  0.5679 -0.0690
43659SOL    HW135534   8.896   7.160   9.099 -1.4826 -0.6041  0.0957
43659SOL    HW235535   8.926   7.029   9.169  0.9488 -0.0821  0.1253
43660SOL     OW35536   9.849   0.829   6.624  0.3224 -0.2958 -0.1454
43660SOL    HW135537   9.786   0.862   6.688 -1.1120 -2.6196 -0.2531
43660SOL    HW235538   9.796   0.803   6.549  1.7500  0.2721 -1.4169
43661SOL     OW35539   7.445   0.077   8.899  0.0237 -0.1863 -0.2270
43661SOL    HW135540   7.428   0.034   8.983 -0.1154 -0.0148 -0.1662
43661SOL    HW235541   7.384   0.151   8.897  1.2226  0.8425  0.2895
43662SOL     OW35542   2.711   4.148   8.604 -0.1033  0.1378  0.6306
43662SOL    HW135543   2.675   4.059   8.597 -1.9132  0.9197 -1.2874
43662SOL    HW235544   2.701   4.170   8.697 -1.3791 -0.9972  0.8072
43663SOL     OW35545   3.613   6.760  12.120  0.5526 -0.3664  0.3736
43663SOL    HW135546   3.690   6.716  12.156 -0.0274 -2.2465 -0.5286
43663SOL    HW235547   3.602   6.720  12.033 -1.9713 -0.8590  0.8584
43664SOL     OW35548   9.654   8.567  11.483 -0.3334 -0.2071 -0.2608
43664SOL    HW135549   9.747   8.551  11.498 -0.1515  1.9918  1.6001
43664SOL    HW235550   9.615   8.560  11.570 -1.6922  0.1503 -0.8174
43665SOL     OW35551   3.534  10.539   6.613 -0.2620 -0.1074  0.3172
43665SOL    HW135552   3.444  10.511   6.632 -0.6511  0.8942  0.0170
43665SOL    HW235553   3.584  10.513   6.690 -0.6892 -1.2036  0.2414
43666SOL     OW35554   0.317   5.267   5.415 -0.0697  0.7549 -0.1609
43666SOL    HW135555   0.258   5.328   5.371 -2.2871 -0.4939  0.9714
43666SOL    HW235556   0.311   5.290   5.508 -1.9816 -1.9097  0.4738
43667SOL     OW35557   5.689   5.505   5.226 -0.3669  0.1729 -0.1452
43667SOL    HW135558   5.619   5.570   5.217 -1.4813 -0.9353  0.2581
43667SOL    HW235559   5.744   5.518   5.149 -1.1864  0.8735 -0.6332
43668SOL     OW35560   4.847  10.213  10.169  0.2114 -0.8878  0.4230
43668SOL    HW135561   4.807  10.300  10.174 -1.4086 -1.4670 -1.2665
43668SOL    HW235562   4.941  10.229  10.176 -0.0837  0.9396  0.6242
43669SOL     OW35563   9.464   0.801   8.113  0.2455  0.7282 -0.1016
43669SOL    HW135564   9.393   0.842   8.063  0.1782  0.3414 -0.3292
43669SOL    HW235565   9.435   0.806   8.204  0.5379  1.7720 -0.0498
43670SOL     OW35566   8.353   7.779   8.765  0.0397  0.5174 -0.7060
43670SOL    HW135567   8.356   7.836   8.842  0.6579 -2.3312  1.5566
43670SOL    HW235568   8.262   7.752   8.758  0.3705 -1.0629  0.5724
43671SOL     OW35569   9.876   2.094   9.131  0.0680  0.3247  0.1766
43671SOL    HW135570   9.934   2.092   9.054 -1.2180 -1.8390 -0.8277
43671SOL    HW235571   9.936   2.102   9.205  1.6068 -0.7763 -0.8777
43672SOL     OW35572   0.516   1.517   0.524 -0.0669 -0.3094  0.3812
43672SOL    HW135573   0.425   1.540   0.504 -0.3114 -1.7715 -0.3148
43672SOL    HW235574   0.562   1.529   0.441 -0.2928 -2.5873 -0.1449
43673SOL     OW35575  11.367   7.749   0.845  0.1899 -0.2060  0.1088
43673SOL    HW135576  11.406   7.664   0.822 -0.8953 -0.7363  0.1875
43673SOL    HW235577  11.397   7.765   0.934  2.8318  0.9369 -0.8774
43674SOL     OW35578   8.717  11.050   1.341 -0.0046 -0.1305  0.0295
43674SOL    HW135579   8.750  11.033   1.429 -1.1441 -1.6731  0.2091
43674SOL    HW235580   8.752  10.979   1.287  0.1459  0.4239 -0.6119
43675SOL     OW35581   5.746   0.124   5.661  0.3361  0.3790 -0.3756
43675SOL    HW135582   5.694   0.107   5.582  0.1918 -1.0848  0.0052
43675SOL    HW235583   5.684   0.116   5.733  0.6864  0.6330 -0.0419
43676SOL     OW35584   2.805   4.834   2.264 -0.3991 -0.3658 -0.2552
43676SOL    HW135585   2.793   4.880   2.181 -0.7694  0.0799  0.0395
43676SOL    HW235586   2.744   4.760   2.258  0.3095 -0.9274 -0.7930
43677SOL     OW35587   9.804   6.165   8.424  0.1630 -0.6247  0.0094
43677SOL    HW135588   9.733   6.224   8.399 -0.7002 -0.0542  3.2915
43677SOL    HW235589   9.853   6.213   8.490  1.3526 -2.4142  0.5122
43678SOL     OW35590   5.384   0.710   3.888 -0.1463 -0.3339  0.0946
43678SOL    HW135591   5.396   0.617   3.907 -1.1771 -0.3003  1.0153
43678SOL    HW235592   5.299   0.715   3.844  0.5673  0.0246 -1.2969
43679SOL     OW35593  10.916   3.351   2.385  0.3372 -1.2517  0.7192
43679SOL    HW135594  10.959   3.433   2.362 -3.2340  1.1019  1.6269
43679SOL    HW235595  10.898   3.309   2.301 -0.8434  0.7055 -0.0890
43680SOL     OW35596  11.829  10.824   1.809  0.3668  0.6209  0.1902
43680SOL    HW135597  11.901  10.777   1.768 -0.9090 -0.4393 -0.9216
43680SOL    HW235598  11.790  10.760   1.869 -0.9052  0.4751 -0.7620
43681SOL     OW35599   0.518   7.952   2.424 -0.1052  0.3347  0.3008
43681SOL    HW135600   0.456   7.918   2.359  0.9743 -0.1213 -0.5110
43681SOL    HW235601   0.603   7.946   2.381  0.4485  1.4736  1.1906
43682SOL     OW35602   9.935   7.879   2.559 -0.2799 -0.2692  0.0606
43682SOL    HW135603   9.989   7.935   2.614 -0.6604 -0.5844  0.7641
43682SOL    HW235604   9.903   7.811   2.618  1.6357 -2.3173 -1.1142
43683SOL     OW35605  10.573   1.615  11.730 -0.0025 -0.2674 -0.0578
43683SOL    HW135606  10.523   1.603  11.649  1.6473 -2.8827 -0.8142
43683SOL    HW235607  10.658   1.649  11.700  0.3455 -0.4866  0.6717
43684SOL     OW35608   9.752   2.979   7.246  1.0425 -0.6991  0.1556
43684SOL    HW135609   9.697   2.944   7.316  0.6335  0.0595  0.2222
43684SOL    HW235610   9.699   3.049   7.207  1.1212 -1.3281 -1.1305
43685SOL     OW35611   1.227  10.043   4.626  0.6331 -0.3525 -1.0354
43685SOL    HW135612   1.148   9.998   4.655  1.2733 -0.2877  0.9475
43685SOL    HW235613   1.198  10.131   4.602  0.0643 -0.4301 -0.6288
43686SOL     OW35614   8.121  11.442   6.141  0.5410 -0.3414 -0.0497
43686SOL    HW135615   8.092  11.352   6.160 -0.2857  0.2610  1.7675
43686SOL    HW235616   8.101  11.454   6.048  0.2263 -1.8662 -0.2196
43687SOL     OW35617   1.584   1.542   0.398  0.1991 -0.3413 -0.3802
43687SOL    HW135618   1.639   1.590   0.337  0.7773 -1.5814 -0.8578
43687SOL    HW235619   1.513   1.506   0.344 -0.2143 -0.0553 -0.0351
43688SOL     OW35620   3.145   9.537   4.774  0.4203  0.2066  0.1108
43688SOL    HW135621   3.239   9.535   4.793  0.5563  0.3693 -0.5201
43688SOL    HW235622   3.130   9.459   4.721  0.4428  0.8613 -0.8692
43689SOL     OW35623   4.413   7.149   3.074  0.3662  0.1208  0.1287
43689SOL    HW135624   4.323   7.118   3.086  0.5606 -1.0259 -1.1962
43689SOL    HW235625   4.405   7.245   3.072 -0.9841  0.0234 -1.0315
43690SOL     OW35626  11.276   2.411   6.728 -0.0192 -0.3792  0.2412
43690SOL    HW135627  11.308   2.456   6.650 -0.1688 -1.6161 -0.5533
43690SOL    HW235628  11.356   2.389   6.777  0.1855 -1.0749 -0.3979
43691SOL     OW35629   6.120   1.902   3.148 -0.4539 -0.0287  0.3507
43691SOL    HW135630   6.199   1.888   3.098  0.1813  0.0900  1.2877
43691SOL    HW235631   6.122   1.995   3.171 -0.9025 -0.0074  0.3245
43692SOL     OW35632   8.608   8.654   3.967 -0.7486  0.3227  0.4345
43692SOL    HW135633   8.688   8.631   3.919 -0.1693  0.5313  1.2800
43692SOL    HW235634   8.618   8.747   3.987 -2.7305  1.2291 -2.3090
43693SOL     OW35635  11.218   2.547   8.518 -0.2184  0.0225 -0.2311
43693SOL    HW135636  11.301   2.502   8.537 -0.2007  0.0408 -0.2669
43693SOL    HW235637  11.226   2.574   8.427 -0.1186  0.3380 -0.1315
43694SOL     OW35638   3.004  11.369   8.151 -0.1110 -0.4661 -0.4047
43694SOL    HW135639   2.959  11.315   8.216  0.1898 -0.3864 -0.1312
43694SOL    HW235640   3.094  11.338   8.152  0.0272 -0.0682 -0.3642
43695SOL     OW35641   5.304   6.136   6.109 -0.0620  0.8789 -0.1042
43695SOL    HW135642   5.219   6.102   6.137 -1.5896  3.6688 -0.9534
43695SOL    HW235643   5.368   6.077   6.149 -2.3189 -0.2760  2.0666
43696SOL     OW35644   8.997  10.733  11.593 -0.4638  0.0949 -0.4767
43696SOL    HW135645   8.993  10.826  11.616 -0.2420  0.0593 -0.2952
43696SOL    HW235646   8.983  10.732  11.498 -1.5747  0.2202 -0.3226
43697SOL     OW35647  12.012   7.052   4.267  0.2758 -0.3635  0.2354
43697SOL    HW135648  12.031   7.054   4.361  1.3254 -2.3579  0.0999
43697SOL    HW235649  11.984   7.142   4.248 -1.6957 -0.3105  2.7712
43698SOL     OW35650   1.070   9.101  10.897  0.4033 -0.0615  0.4446
43698SOL    HW135651   1.096   9.139  10.813 -1.3303  0.5502  0.1475
43698SOL    HW235652   1.128   9.142  10.961  1.0754  0.2156 -0.3313
43699SOL     OW35653   4.773  10.200   9.821 -0.2552 -0.1140  0.5712
43699SOL    HW135654   4.858  10.243   9.826  0.7789 -1.9747 -0.1372
43699SOL    HW235655   4.744  10.215   9.731  0.4956 -1.5220  0.0668
43700SOL     OW35656   6.366   8.748  10.820 -0.0510 -0.0728 -0.5261
43700SOL    HW135657   6.288   8.801  10.835  0.1425 -0.2961  1.5136
43700SOL    HW235658   6.335   8.657  10.822  0.4717 -0.2652  2.3142
43701SOL     OW35659   2.495   7.900   1.476  0.8090  0.0036 -0.7750
43701SOL    HW135660   2.584   7.877   1.504  0.5591  0.8344  0.8038
43701SOL    HW235661   2.460   7.819   1.438  1.1194 -1.3093  1.5833
43702SOL     OW35662   6.756   6.226  10.003 -0.5265  0.2924 -0.0794
43702SOL    HW135663   6.762   6.322  10.006  1.9511  0.1756  2.3873
43702SOL    HW235664   6.836   6.199   9.958 -1.2801 -0.6749 -0.8842
43703SOL     OW35665   5.997  10.989   7.151 -0.2075  0.4920 -0.5086
43703SOL    HW135666   5.971  11.072   7.111  0.4719  1.2257  0.5066
43703SOL    HW235667   6.086  10.973   7.120 -1.1389 -1.1006 -2.5643
43704SOL     OW35668   5.115   5.965   4.241 -0.2063  0.2349 -0.5996
43704SOL    HW135669   5.099   6.040   4.299 -0.8657  0.6992 -1.3584
43704SOL    HW235670   5.171   5.907   4.292 -0.7269  0.6544  0.4880
43705SOL     OW35671   0.992   1.482   3.180  0.3444 -0.0198  0.7666
43705SOL    HW135672   0.900   1.508   3.190  0.6250  0.6347  1.7389
43705SOL    HW235673   1.042   1.552   3.222  1.4224  0.6391 -1.4967
43706SOL     OW35674  11.566   0.358   0.481 -1.2514  0.2512 -0.0904
43706SOL    HW135675  11.580   0.279   0.428 -0.2197  0.4794 -0.1693
43706SOL    HW235676  11.574   0.430   0.419  4.0171  0.8342  0.8327
43707SOL     OW35677   8.059   6.230   1.844 -0.2657  0.0888  0.1693
43707SOL    HW135678   8.153   6.215   1.830 -0.5287 -0.2160 -1.4962
43707SOL    HW235679   8.016   6.160   1.795 -1.3737  0.8724 -0.0219
43708SOL     OW35680  10.806   7.103   1.003  0.0342  0.5676  0.3850
43708SOL    HW135681  10.831   7.092   1.095 -0.8396 -3.0193  0.3109
43708SOL    HW235682  10.875   7.059   0.954 -1.5165 -1.1427 -0.3659
43709SOL     OW35683   7.949   2.586   7.353 -0.2421 -0.2110 -0.1301
43709SOL    HW135684   7.920   2.510   7.404 -1.0513  1.7033  2.5068
43709SOL    HW235685   8.043   2.592   7.369  0.4428 -2.2522 -2.7776
43710SOL     OW35686   0.792   4.806  11.772  0.5080 -0.1298  0.3089
43710SOL    HW135687   0.703   4.837  11.754  0.7327  0.9868  0.9997
43710SOL    HW235688   0.784   4.711  11.777 -0.7616 -0.0174  0.9399
43711SOL     OW35689   6.793   1.669   9.465  0.3016 -0.3855  0.3342
43711SOL    HW135690   6.819   1.606   9.532  1.0392  0.8523  1.2623
43711SOL    HW235691   6.785   1.617   9.385  2.9309 -1.3574  0.5927
43712SOL     OW35692   5.597   8.284  11.142 -0.0494 -0.3413  0.5950
43712SOL    HW135693   5.532   8.217  11.164 -0.0148 -0.3688  0.6143
43712SOL    HW235694   5.681   8.243  11.160 -0.0276 -0.2950  0.5993
43713SOL     OW35695   7.637   5.869   9.369 -0.4889  0.2485  0.0257
43713SOL    HW135696   7.661   5.959   9.389 -1.2566  0.6269 -0.7204
43713SOL    HW235697   7.679   5.851   9.284  1.6802 -0.9186  1.2468
43714SOL     OW35698  10.148   1.777   8.446 -0.2927 -0.0449  0.4743
43714SOL    HW135699  10.084   1.724   8.399 -1.0321  2.2848 -1.3398
43714SOL    HW235700  10.204   1.814   8.377 -0.4472  2.2940  1.5171
43715SOL     OW35701   7.565   4.207   2.342 -0.3603 -0.5305 -0.3239
43715SOL    HW135702   7.608   4.142   2.397  1.0843 -1.1966 -2.1309
43715SOL    HW235703   7.513   4.156   2.280  0.8668 -0.0297 -1.8327
43716SOL     OW35704  10.733   9.235  10.979 -0.0477  0.1739 -0.0556
43716SOL    HW135705  10.816   9.204  10.945 -0.5471  0.5233 -1.6701
43716SOL    HW235706  10.756   9.279  11.062  1.4896  1.0121 -0.8791
43717SOL     OW35707   5.298   3.924   9.949  0.3196  0.1097  0.5073
43717SOL    HW135708   5.283   4.017   9.964 -2.0608 -0.3210  1.1747
43717SOL    HW235709   5.336   3.893  10.032 -0.9901  0.0947  1.1219
43718SOL     OW35710   6.140   1.428   9.487  0.1097  0.3322 -0.0345
43718SOL    HW135711   6.062   1.473   9.453 -0.2460 -0.9135 -0.9565
43718SOL    HW235712   6.208   1.445   9.422  0.2337  0.3304  0.0944
43719SOL     OW35713   5.848   1.540  10.577  0.6115  0.0166  0.2401
43719SOL    HW135714   5.825   1.502  10.662  0.7942  0.6042  0.5550
43719SOL    HW235715   5.940   1.566  10.586  0.8825 -0.6608 -0.4130
43720SOL     OW35716   5.140   8.213   1.162  0.8085 -0.0307  0.1122
43720SOL    HW135717   5.056   8.260   1.158  0.7184 -0.2786 -1.6914
43720SOL    HW235718   5.206   8.282   1.157  0.6793  0.0125 -1.3817
43721SOL     OW35719   0.624   5.688   7.990 -0.1048 -0.2975 -0.2986
43721SOL    HW135720   0.547   5.663   7.938 -0.1042 -0.8111 -0.0611
43721SOL    HW235721   0.587   5.731   8.067 -0.1009  0.5651 -0.7704
43722SOL     OW35722  10.524   8.702   2.531  0.1790 -0.2529  0.6011
43722SOL    HW135723  10.613   8.732   2.549 -0.0248  0.1750  0.9433
43722SOL    HW235724  10.472   8.739   2.603 -0.1541 -1.0918  0.7960
43723SOL     OW35725  11.299  10.182   8.176  0.6489 -0.4021 -0.3670
43723SOL    HW135726  11.390  10.155   8.164  1.1685  0.5686  1.1342
43723SOL    HW235727  11.279  10.234   8.098  2.4396  2.0174  0.6886
43724SOL     OW35728   0.465   9.807   9.474  0.0613  0.4253 -0.3669
43724SOL    HW135729   0.493   9.795   9.565 -0.8208 -0.7124 -0.2196
43724SOL    HW235730   0.390   9.866   9.480 -0.2371  0.0450 -0.3054
43725SOL     OW35731   3.400   7.661   0.813 -0.2223  0.2207  0.4012
43725SOL    HW135732   3.305   7.676   0.810 -0.3071 -0.3587 -0.0384
43725SOL    HW235733   3.436   7.743   0.847 -0.6464  1.4535 -1.9017
43726SOL     OW35734   5.345   8.988   2.441  0.1209  0.3368  0.0524
43726SOL    HW135735   5.368   8.910   2.390  1.6391  0.3610  0.6366
43726SOL    HW235736   5.318   9.053   2.376  0.5753 -0.1114 -0.5945
43727SOL     OW35737  10.152   0.816   4.939 -0.2462  0.0024  0.0535
43727SOL    HW135738  10.078   0.837   4.996  0.2022  1.8423  0.0253
43727SOL    HW235739  10.129   0.732   4.899 -1.0437 -0.8303  2.1298
43728SOL     OW35740   1.317   6.314   0.585 -0.0660  0.0888  0.2186
43728SOL    HW135741   1.360   6.328   0.500  0.4244  0.3955  0.5170
43728SOL    HW235742   1.293   6.221   0.584  1.5863 -0.3712  0.4886
43729SOL     OW35743   9.088   0.701   2.873  0.2157  0.3437  0.3063
43729SOL    HW135744   9.160   0.751   2.912  0.3164  1.6227 -1.4202
43729SOL    HW235745   9.010   0.752   2.895 -0.0387 -0.3452  1.0501
43730SOL     OW35746   8.022   6.778   1.215 -0.1535  0.1846  0.1969
43730SOL    HW135747   8.105   6.786   1.261  0.0441 -2.3778  0.4495
43730SOL    HW235748   8.037   6.821   1.131  0.7307  1.5568  1.0161
43731SOL     OW35749  10.008   0.989   9.634 -0.1188  0.4611  0.2783
43731SOL    HW135750  10.041   0.965   9.548 -0.0180 -0.6763  0.6260
43731SOL    HW235751   9.916   1.009   9.620 -0.2198 -0.1988 -0.0105
43732SOL     OW35752   5.338  10.465   9.321  0.1788  0.3655 -0.1297
43732SOL    HW135753   5.398  10.465   9.396  1.8760 -1.8762 -1.3583
43732SOL    HW235754   5.367  10.540   9.269 -0.1832  1.1789  0.8034
43733SOL     OW35755   6.840   3.267  10.649 -0.4973  0.5017 -0.5237
43733SOL    HW135756   6.910   3.201  10.645 -0.7022  0.3385 -1.7553
43733SOL    HW235757   6.772   3.227  10.703 -0.5585 -0.2456 -1.1425
43734SOL     OW35758   6.888   0.477   9.521  0.5022  0.2698 -0.5993
43734SOL    HW135759   6.887   0.422   9.442  1.4456 -0.6504  0.0005
43734SOL    HW235760   6.856   0.420   9.590  0.6777  0.7438 -0.1201
43735SOL     OW35761   4.940   9.770   3.251  0.0231 -0.6407 -0.0728
43735SOL    HW135762   5.033   9.792   3.259  0.8781 -2.7657 -2.6899
43735SOL    HW235763   4.931   9.683   3.290 -0.1633 -1.7035 -2.3069
43736SOL     OW35764   6.999  11.299   3.237  0.5145  0.1498  0.2061
43736SOL    HW135765   7.021  11.334   3.150 -2.9851  0.6440 -0.6387
43736SOL    HW235766   6.983  11.206   3.221  0.7259  0.0582  0.5260
43737SOL     OW35767   9.205   7.151   3.447  0.1601  0.1000  0.0400
43737SOL    HW135768   9.220   7.246   3.443  1.0248 -0.0644 -1.4107
43737SOL    HW235769   9.124   7.138   3.398  1.3863 -0.1335 -2.0162
43738SOL     OW35770  12.014   9.992  10.384  0.2244 -0.2033  0.1833
43738SOL    HW135771  11.931  10.031  10.408  0.1228  0.8833 -1.7284
43738SOL    HW235772  12.057   9.972  10.467 -1.6763 -0.2450  1.1881
43739SOL     OW35773   6.360   5.235   7.469  0.2260  0.1205 -0.3900
43739SOL    HW135774   6.267   5.257   7.463 -0.6765 -3.2202 -0.7606
43739SOL    HW235775   6.381   5.245   7.562 -0.9704 -0.6055 -0.0196
43740SOL     OW35776  11.731   5.938   2.778 -0.2131 -0.6578  0.5203
43740SOL    HW135777  11.693   5.985   2.852  3.2442  0.1627  1.9360
43740SOL    HW235778  11.720   5.846   2.800 -0.1331 -0.4294  1.5756
43741SOL     OW35779   9.606   6.336   2.345 -0.1526  0.3944  0.8955
43741SOL    HW135780   9.694   6.350   2.309 -0.3734  1.3586  0.7258
43741SOL    HW235781   9.547   6.372   2.279 -0.6834 -0.2291  1.0200
43742SOL     OW35782   4.192  12.038   6.890 -0.0679 -0.0612 -0.1032
43742SOL    HW135783   4.189  11.943   6.885  1.4235 -0.1533  0.2852
43742SOL    HW235784   4.229  12.057   6.977 -1.2247  0.8974  0.2046
43743SOL     OW35785   9.963   0.349   9.173 -0.7986 -0.0255  0.5188
43743SOL    HW135786   9.979   0.413   9.243  0.1065 -0.1882  0.4706
43743SOL    HW235787  10.002   0.268   9.206 -2.5491 -0.7755  0.8910
43744SOL     OW35788   2.772   3.190   3.699  0.4024  0.6450 -0.4959
43744SOL    HW135789   2.738   3.193   3.610  0.8548 -0.1824 -0.7043
43744SOL    HW235790   2.829   3.113   3.701  1.7558  1.6255  0.0281
43745SOL     OW35791   8.552   7.062  11.154 -0.7853  0.0228 -0.0621
43745SOL    HW135792   8.561   6.981  11.204  0.4697  0.1831  0.0169
43745SOL    HW235793   8.632   7.067  11.101 -1.2490  0.7694 -0.7258
43746SOL     OW35794  10.680   3.647   4.798 -0.5489  0.2329  0.0815
43746SOL    HW135795  10.675   3.740   4.820 -0.2497 -0.0506  1.4535
43746SOL    HW235796  10.596   3.611   4.828 -0.8174  0.1204 -0.7876
43747SOL     OW35797   8.578   4.858   0.710 -0.9598 -0.0010  0.2164
43747SOL    HW135798   8.554   4.766   0.697  0.2624 -0.2969 -0.0413
43747SOL    HW235799   8.636   4.879   0.637 -2.6296  1.5271 -0.7332
43748SOL     OW35800   7.002   7.694   3.611  0.6592  0.5096  0.2162
43748SOL    HW135801   6.937   7.667   3.676  0.3047 -1.2459 -0.7937
43748SOL    HW235802   7.008   7.619   3.551  1.4439  1.8017 -1.3958
43749SOL     OW35803   6.279   4.284   5.909 -0.7044  0.5217  0.2205
43749SOL    HW135804   6.209   4.230   5.946 -1.5081  0.2487 -1.5830
43749SOL    HW235805   6.246   4.310   5.823  1.6745 -0.2350 -1.0213
43750SOL     OW35806   0.118  10.003   8.844 -0.0837  0.0022 -0.1935
43750SOL    HW135807   0.057   9.933   8.821  0.9705 -0.3944 -1.9885
43750SOL    HW235808   0.180   9.962   8.903 -0.9282  0.1345  0.8130
43751SOL     OW35809   3.876   1.368   8.502 -0.0346  0.3717 -0.3510
43751SOL    HW135810   3.873   1.299   8.436  1.9451 -1.0150  0.8642
43751SOL    HW235811   3.874   1.449   8.453 -1.1875 -0.5519 -1.9166
43752SOL     OW35812  10.632   5.719   8.817  0.0628 -0.3140 -0.4663
43752SOL    HW135813  10.656   5.811   8.828  0.7901 -0.5517 -0.0395
43752SOL    HW235814  10.536   5.720   8.815  0.0421  0.3790  0.2198
43753SOL     OW35815   0.542   4.096  10.599 -0.2758  0.4412  0.1378
43753SOL    HW135816   0.453   4.110  10.567  0.0061  1.3246 -0.3070
43753SOL    HW235817   0.581   4.183  10.599  0.5679  0.0739  0.4006
43754SOL     OW35818   3.104   2.095   4.963  0.0819  0.1681 -0.6795
43754SOL    HW135819   3.013   2.074   4.983 -0.3555  0.8963 -1.8800
43754SOL    HW235820   3.154   2.048   5.030 -1.1125 -1.0280 -0.5928
43755SOL     OW35821   9.393   9.016   2.373 -0.3751  0.2950 -0.5264
43755SOL    HW135822   9.308   8.986   2.406  0.7191 -1.4395  0.9247
43755SOL    HW235823   9.379   9.026   2.279 -1.3735 -3.4317 -0.9596
43756SOL     OW35824   9.565   5.881   3.338  0.2285 -0.5251  0.3266
43756SOL    HW135825   9.509   5.944   3.383 -1.6515 -1.4389 -0.6346
43756SOL    HW235826   9.604   5.828   3.408 -0.8413 -0.4550  0.9855
43757SOL     OW35827   1.099   5.132   9.931 -0.2328  0.5560  0.6414
43757SOL    HW135828   1.020   5.178   9.902 -0.1234 -1.0062 -2.5880
43757SOL    HW235829   1.169   5.167   9.875  0.4561 -1.1310  0.3880
43758SOL     OW35830   3.466   4.556   4.631  0.0830 -0.3519 -0.0947
43758SOL    HW135831   3.425   4.573   4.715  1.5640  0.3332  0.5170
43758SOL    HW235832   3.458   4.638   4.583  0.6100 -0.2534 -0.0194
43759SOL     OW35833   2.063   0.781   1.183 -0.8707 -0.0555  0.2956
43759SOL    HW135834   2.131   0.729   1.226 -1.3399 -0.9558 -0.0275
43759SOL    HW235835   2.005   0.808   1.254  1.0339  2.7516  0.9742
43760SOL     OW35836  11.720   5.831  12.045  0.3976 -0.2097  0.0728
43760SOL    HW135837  11.761   5.861  12.126  1.0518  1.7798 -0.9229
43760SOL    HW235838  11.781   5.858  11.976 -0.7466 -0.6962 -1.1848
43761SOL     OW35839   8.939   1.438   8.163 -0.2150 -0.2174 -0.5594
43761SOL    HW135840   8.962   1.411   8.252 -2.5668 -0.2759  0.0723
43761SOL    HW235841   8.984   1.523   8.152  0.8089 -0.6120  0.3229
43762SOL     OW35842   2.596  10.323   7.567  0.4727  0.1977  0.1259
43762SOL    HW135843   2.616  10.383   7.495 -0.7794  0.9597  0.3918
43762SOL    HW235844   2.511  10.286   7.545  1.0496 -1.2196  0.1643
43763SOL     OW35845   1.454   6.660  10.085  0.4237  0.0139 -0.5015
43763SOL    HW135846   1.423   6.711  10.010  0.8049  2.0126  0.6503
43763SOL    HW235847   1.425   6.709  10.161  1.3876 -1.1559  0.6621
43764SOL     OW35848  10.876   4.374   1.350 -0.1530 -0.2891 -0.5558
43764SOL    HW135849  10.849   4.465   1.333 -0.7079 -0.7688 -2.4476
43764SOL    HW235850  10.944   4.382   1.417 -2.2619  1.2509  1.5940
43765SOL     OW35851   8.735   0.157  10.109 -0.0530  0.5039  0.2116
43765SOL    HW135852   8.723   0.096  10.037 -0.5309 -1.1465  1.6048
43765SOL    HW235853   8.675   0.126  10.177  1.1120  1.3604  1.7066
43766SOL     OW35854   7.060   7.626   6.561  0.1954 -1.0940 -0.0921
43766SOL    HW135855   7.109   7.686   6.617 -2.1341  0.1129  0.8153
43766SOL    HW235856   7.122   7.557   6.539  2.3331  0.4642  0.7101
43767SOL     OW35857   7.401   1.027   9.926  0.2735  0.0622  0.1634
43767SOL    HW135858   7.309   1.036   9.902  0.3171  0.5152  0.1542
43767SOL    HW235859   7.409   0.937   9.958 -0.5591  0.5349  1.8297
43768SOL     OW35860   5.445   2.634   4.705  0.3652 -0.2210 -0.2316
43768SOL    HW135861   5.365   2.602   4.747  0.1769 -1.4383 -1.4587
43768SOL    HW235862   5.433   2.729   4.700 -1.5231 -0.4752 -1.3641
43769SOL     OW35863   1.313   5.512   9.455 -0.1525  0.0814  0.2520
43769SOL    HW135864   1.349   5.485   9.370 -0.2156 -0.6605  0.4493
43769SOL    HW235865   1.257   5.439   9.482  0.3794  0.0091  1.2297
43770SOL     OW35866   0.844   4.532  10.588 -0.4018 -0.3756 -0.6855
43770SOL    HW135867   0.925   4.513  10.635  0.2947 -0.1925 -1.7737
43770SOL    HW235868   0.869   4.532  10.496 -1.0672  2.2358 -0.9520
43771SOL     OW35869   5.585   7.474   5.527 -0.0284  0.2013 -0.0692
43771SOL    HW135870   5.587   7.465   5.622  0.5270  0.3115 -0.0637
43771SOL    HW235871   5.543   7.559   5.512  0.8720  0.6936  0.1234
43772SOL     OW35872   8.322   0.900  11.835  0.0102  0.2467  0.1362
43772SOL    HW135873   8.385   0.968  11.859 -1.3102  1.3000  0.7399
43772SOL    HW235874   8.280   0.934  11.755 -0.2920 -0.0970  0.1454
43773SOL     OW35875   0.609  10.371   1.960  0.1348 -0.2168  0.0241
43773SOL    HW135876   0.536  10.414   1.915  0.5020 -1.4807 -1.8887
43773SOL    HW235877   0.687  10.415   1.927  0.3301  0.0832  0.8704
43774SOL     OW35878   8.194   9.372   7.385  0.0165 -0.1239 -0.3446
43774SOL    HW135879   8.175   9.465   7.396  0.1704 -0.1014 -0.2672
43774SOL    HW235880   8.144   9.346   7.307  0.3108  0.1212 -0.6162
43775SOL     OW35881   1.076   1.543   0.750  0.6628 -0.2441  0.4448
43775SOL    HW135882   1.013   1.477   0.779  0.7255 -0.2050  0.6736
43775SOL    HW235883   1.125   1.566   0.829  0.1453  0.6297  0.5284
43776SOL     OW35884   3.940   0.099   4.659 -0.6537  0.0552 -0.9639
43776SOL    HW135885   4.028   0.135   4.665 -0.4969 -0.1580 -1.8493
43776SOL    HW235886   3.944   0.018   4.709 -0.0813 -0.4256 -1.7649
43777SOL     OW35887   2.275   8.839  11.762  0.9744  0.2359  0.5621
43777SOL    HW135888   2.254   8.902  11.693 -1.1799  1.1470  1.9495
43777SOL    HW235889   2.223   8.762  11.740  1.9219 -0.2822  0.0631
43778SOL     OW35890  10.664  11.628   6.113 -0.1130  0.3876  0.3488
43778SOL    HW135891  10.693  11.537   6.099 -0.8049  0.1586  0.3573
43778SOL    HW235892  10.737  11.681   6.081 -0.0530 -0.1611 -0.4738
43779SOL     OW35893   1.898   4.468   0.655 -0.5033 -0.8457  0.6979
43779SOL    HW135894   1.860   4.493   0.571  0.3301  0.1245  0.5934
43779SOL    HW235895   1.991   4.484   0.645 -0.4525 -0.1888  1.9840
43780SOL     OW35896   9.478   9.216   5.265  0.3206  0.6726 -0.1352
43780SOL    HW135897   9.546   9.174   5.317  1.3231  2.2124 -0.1228
43780SOL    HW235898   9.480   9.171   5.181 -1.4490 -1.9831  1.1164
43781SOL     OW35899   0.890   8.937   9.347 -0.7829 -0.1302 -0.0254
43781SOL    HW135900   0.901   8.924   9.442  1.1212  0.4116 -0.1402
43781SOL    HW235901   0.955   9.004   9.324 -2.5769  1.2704 -1.3867
43782SOL     OW35902   4.376  11.883   0.699 -0.0354 -0.5012  0.1938
43782SOL    HW135903   4.312  11.938   0.654 -0.8668 -0.3215  1.5457
43782SOL    HW235904   4.461  11.916   0.670 -0.5380  0.5291 -0.1500
43783SOL     OW35905  11.394   8.274  11.670  0.4046  0.2964 -0.0111
43783SOL    HW135906  11.395   8.203  11.605  3.2386 -0.8214  1.0857
43783SOL    HW235907  11.308   8.267  11.712 -0.6018 -0.4096 -2.0565
43784SOL     OW35908   3.736   8.675   8.434 -0.3068 -0.1059  0.5732
43784SOL    HW135909   3.735   8.733   8.510  2.3849 -0.1045  0.7036
43784SOL    HW235910   3.829   8.664   8.414 -0.8478 -2.3546 -1.0138
43785SOL     OW35911   4.690  10.594   3.378  0.0059  0.5796  0.1755
43785SOL    HW135912   4.624  10.577   3.310 -0.0175 -0.7546  0.5143
43785SOL    HW235913   4.772  10.561   3.341  0.2664  1.1314  0.2491
43786SOL     OW35914  10.684   3.052   7.919 -0.2549  0.2088 -0.0144
43786SOL    HW135915  10.699   3.112   7.846  0.2390  0.7501  0.5207
43786SOL    HW235916  10.665   2.968   7.877 -0.6439  0.6589 -0.7689
43787SOL     OW35917   6.497   0.720  10.755  0.1977 -0.3799 -0.2222
43787SOL    HW135918   6.485   0.643  10.698  2.3998 -0.2911 -0.8708
43787SOL    HW235919   6.504   0.683  10.843 -2.7596 -0.5517  0.0518
43788SOL     OW35920   5.718   0.883  10.075 -0.0337  0.2683  0.6387
43788SOL    HW135921   5.674   0.961  10.110  1.3835  0.9172  1.0552
43788SOL    HW235922   5.769   0.916  10.001  1.5127 -0.0109  1.5367
43789SOL     OW35923   9.886   3.928   2.515  0.2636  0.0148 -0.6657
43789SOL    HW135924   9.817   3.910   2.579 -0.3269  2.8572 -0.3351
43789SOL    HW235925   9.919   3.842   2.489 -2.9391 -1.4624 -0.3197
43790SOL     OW35926   1.883   3.069   6.461  0.3679  0.0367 -0.3785
43790SOL    HW135927   1.889   2.983   6.419 -0.1661 -0.6026  0.7925
43790SOL    HW235928   1.906   3.052   6.552 -3.2611  0.3696  0.7566
43791SOL     OW35929   4.805   0.160   1.067  0.0602 -0.2433  0.2411
43791SOL    HW135930   4.876   0.150   1.004  0.3285  1.6796  0.1880
43791SOL    HW235931   4.808   0.080   1.119  1.0110 -1.0488 -0.9948
43792SOL     OW35932   3.173  10.456   7.210 -0.0825  0.2650  0.1925
43792SOL    HW135933   3.196  10.516   7.139  0.6453  1.1131  1.1240
43792SOL    HW235934   3.238  10.385   7.203 -0.7111 -0.2444 -0.6721
43793SOL     OW35935   0.292   8.781   7.812  0.1506 -0.0421  0.0832
43793SOL    HW135936   0.223   8.764   7.748 -0.4365 -2.2771  1.1919
43793SOL    HW235937   0.357   8.713   7.795  2.4385  2.2866 -1.2515
43794SOL     OW35938   8.721  11.804  10.854  0.8558  0.3905  0.5444
43794SOL    HW135939   8.640  11.851  10.874  0.0102 -0.8832  0.2452
43794SOL    HW235940   8.785  11.873  10.836  0.3207  1.4691  2.5409
43795SOL     OW35941   4.128  10.400   9.785  0.3756 -0.0013  0.3211
43795SOL    HW135942   4.065  10.458   9.826 -0.8602 -0.4541 -0.8644
43795SOL    HW235943   4.211  10.447   9.790 -0.9233  2.9569 -2.5714
43796SOL     OW35944   2.689  11.974   1.563 -0.2216  0.2205  0.4161
43796SOL    HW135945   2.767  11.964   1.617 -0.5971  0.3268  0.9875
43796SOL    HW235946   2.681  12.069   1.551  0.7440  0.1398 -1.1541
43797SOL     OW35947   1.793   2.481   6.448 -0.0931  0.3543 -0.1094
43797SOL    HW135948   1.699   2.463   6.445 -0.2188  1.0092 -0.3047
43797SOL    HW235949   1.830   2.427   6.379 -0.4344  0.6731 -0.5503
43798SOL     OW35950   2.190   3.098   0.919  0.5565 -0.2882 -0.1546
43798SOL    HW135951   2.268   3.075   0.868  0.5920 -1.1686  0.2789
43798SOL    HW235952   2.117   3.080   0.860  0.6692  3.7329 -1.8661
43799SOL     OW35953   9.645   7.428   7.194 -0.4704  0.7583 -0.0319
43799SOL    HW135954   9.556   7.461   7.201 -2.2957 -3.3911 -1.0740
43799SOL    HW235955   9.665   7.393   7.281 -1.0400 -0.7670 -0.4776
43800SOL     OW35956   5.846   9.821   6.750  0.2123 -0.0435  0.3296
43800SOL    HW135957   5.843   9.730   6.782  0.4496 -0.3130 -0.3864
43800SOL    HW235958   5.926   9.857   6.788  0.8688 -0.5798 -0.5018
43801SOL     OW35959  10.486   3.429   4.401 -0.1244  0.3561 -0.1327
43801SOL    HW135960  10.468   3.415   4.494 -1.4785 -1.4351 -0.5992
43801SOL    HW235961  10.427   3.499   4.375  0.7458  1.3466  0.4636
43802SOL     OW35962   3.836   5.182   3.394  0.4028  0.5806 -0.0121
43802SOL    HW135963   3.797   5.160   3.310  0.1227 -0.4696  0.3765
43802SOL    HW235964   3.773   5.152   3.459  1.7168 -0.9782  0.6318
43803SOL     OW35965   1.138   6.262   9.696  0.0171  0.2341  0.0331
43803SOL    HW135966   1.113   6.339   9.747 -0.2675  0.2191 -0.0804
43803SOL    HW235967   1.233   6.268   9.688  0.0271  0.4162  0.2760
43804SOL     OW35968   3.688  11.145   5.226 -0.1792  0.2250 -0.4135
43804SOL    HW135969   3.600  11.147   5.189 -0.4202 -0.2424  0.1129
43804SOL    HW235970   3.706  11.236   5.250 -0.7499  0.2324  0.0023
43805SOL     OW35971   4.353   1.857  11.195  0.5113  0.9169  0.6378
43805SOL    HW135972   4.419   1.919  11.226  1.6559  0.1975 -0.2612
43805SOL    HW235973   4.366   1.779  11.249  2.1521 -0.1443 -1.1541
43806SOL     OW35974   0.378   0.298   1.030  0.3370 -0.0216 -0.2997
43806SOL    HW135975   0.348   0.375   0.982  0.5844  1.0728  1.2278
43806SOL    HW235976   0.300   0.243   1.038 -0.3661  1.0237  0.3292
43807SOL     OW35977   0.937   0.507   3.700 -0.1239 -0.5308 -0.1733
43807SOL    HW135978   0.883   0.540   3.772  1.4651  2.8747 -0.3200
43807SOL    HW235979   0.874   0.486   3.630 -1.4533  2.9575 -0.2377
43808SOL     OW35980   7.331   9.358   8.165  0.1385 -0.2064 -0.2803
43808SOL    HW135981   7.359   9.387   8.078 -0.6573  1.9399  0.1266
43808SOL    HW235982   7.411   9.357   8.217  0.3395  0.3065 -0.5752
43809SOL     OW35983   4.691   9.834   7.773 -0.0951  0.0329  0.4129
43809SOL    HW135984   4.654   9.836   7.862 -1.2583  0.6548 -0.0547
43809SOL    HW235985   4.779   9.799   7.784 -0.5429 -0.7496  1.6971
43810SOL     OW35986   2.637   7.865   9.409  0.0475  0.1613 -0.1464
43810SOL    HW135987   2.702   7.825   9.467  0.4699 -0.2108 -0.8652
43810SOL    HW235988   2.558   7.873   9.463 -0.1643 -1.9422 -0.0601
43811SOL     OW35989   6.263   6.081   7.860 -0.1809  0.0120  0.0513
43811SOL    HW135990   6.316   6.099   7.938  1.7518 -0.5154 -1.0577
43811SOL    HW235991   6.174   6.072   7.893  0.6423 -0.6947  2.2691
43812SOL     OW35992   7.113   0.346   6.277 -0.6716 -0.4806 -0.3831
43812SOL    HW135993   7.194   0.329   6.325 -1.0231 -2.7961 -0.4912
43812SOL    HW235994   7.142   0.378   6.191  0.0967 -0.5766 -0.1645
43813SOL     OW35995   1.902   5.440   2.905  0.3610 -0.2405 -0.4734
43813SOL    HW135996   1.943   5.468   2.823  1.3875  0.3354  0.2136
43813SOL    HW235997   1.976   5.424   2.964 -0.3766  1.5655  1.0469
43814SOL     OW35998   5.507   7.916   2.914 -0.2460 -0.0947  0.0166
43814SOL    HW135999   5.574   7.874   2.860 -2.0427 -2.0826 -0.8020
43814SOL    HW236000   5.477   7.847   2.973 -1.1304  0.9352  0.8122
43815SOL     OW36001   2.461   2.954   7.049  0.5374 -0.0754 -0.0500
43815SOL    HW136002   2.430   3.000   6.972 -2.7022 -0.9819  0.5711
43815SOL    HW236003   2.475   2.864   7.018  0.3266 -0.1870  0.1821
43816SOL     OW36004   4.950   1.215   1.655  0.2907  0.0886  0.2453
43816SOL    HW136005   4.873   1.198   1.708  0.1606 -0.6796 -0.1606
43816SOL    HW236006   5.020   1.167   1.699  0.2761 -0.1871 -0.0255
43817SOL     OW36007   4.186   0.792  11.341  0.4643  0.3995  0.1395
43817SOL    HW136008   4.223   0.767  11.426 -1.1947 -0.9178  0.5153
43817SOL    HW236009   4.167   0.709  11.298  0.4008  1.0558 -1.1419
43818SOL     OW36010   4.557  11.296   2.782  0.5174 -0.0173  0.4501
43818SOL    HW136011   4.593  11.262   2.700  0.3758 -0.7370  0.6818
43818SOL    HW236012   4.462  11.294   2.769  0.3921 -1.8280  1.2569
43819SOL     OW36013   5.696   6.845   3.144  0.4302 -0.4316  0.1750
43819SOL    HW136014   5.662   6.896   3.217  0.8313  0.4892 -0.2775
43819SOL    HW236015   5.624   6.785   3.123  0.5713 -1.2198  1.7731
43820SOL     OW36016   3.691   9.032   6.015 -0.7941 -0.6287  0.3193
43820SOL    HW136017   3.667   9.068   6.100 -1.5375 -1.7293  0.5997
43820SOL    HW236018   3.741   8.953   6.036 -0.3610 -0.5167 -0.2724
43821SOL     OW36019   0.055   5.547   2.866 -0.2514  0.0641  0.0948
43821SOL    HW136020   0.004   5.600   2.804  1.1957  1.2231 -0.1462
43821SOL    HW236021   0.065   5.603   2.943  1.3358  0.1875 -0.1807
43822SOL     OW36022   7.047   5.161   7.068 -0.0624  0.0551 -0.8544
43822SOL    HW136023   7.091   5.092   7.018 -0.2176 -1.4202  0.9212
43822SOL    HW236024   6.965   5.120   7.097  0.7367  0.2333  1.9107
43823SOL     OW36025   1.789   3.813   5.811 -0.1201 -0.1086 -0.3865
43823SOL    HW136026   1.794   3.907   5.794 -0.7556  0.6124  2.7848
43823SOL    HW236027   1.707   3.785   5.769  0.0861  0.6889 -1.3654
43824SOL     OW36028  11.784   2.564   8.950  0.0538  0.5812  0.6107
43824SOL    HW136029  11.874   2.541   8.974 -0.2905  0.6722  2.0979
43824SOL    HW236030  11.730   2.502   9.000 -0.7525  1.5800  1.0004
43825SOL     OW36031   4.152  10.867   1.698 -0.7059  0.3954  0.2246
43825SOL    HW136032   4.155  10.779   1.659 -0.4659  1.1811 -1.6452
43825SOL    HW236033   4.067  10.872   1.740 -1.3438 -0.2389 -0.9441
43826SOL     OW36034  11.837  11.947   8.548 -0.0024  0.4063 -0.3357
43826SOL    HW136035  11.783  12.026   8.542  0.5851  1.2778  3.5321
43826SOL    HW236036  11.926  11.980   8.563  0.2179 -0.9164  1.6328
43827SOL     OW36037   5.562   8.497   7.788 -0.6428 -0.7824 -0.5693
43827SOL    HW136038   5.494   8.504   7.855 -0.2168 -2.2119  0.0557
43827SOL    HW236039   5.520   8.450   7.716 -0.6384 -0.6832 -0.6361
43828SOL     OW36040  10.999   9.788   7.757  0.9670  0.1230  0.4043
43828SOL    HW136041  11.044   9.827   7.832 -0.9660  1.3821  0.9994
43828SOL    HW236042  11.028   9.840   7.682  4.0361 -2.0472 -0.1012
43829SOL     OW36043  10.502   3.847  10.476 -0.2304  0.2264 -0.5125
43829SOL    HW136044  10.499   3.942  10.485  0.0217  0.1386  0.6363
43829SOL    HW236045  10.410   3.820  10.482 -0.4360  0.4711 -2.0724
43830SOL     OW36046   5.487   0.309   3.694 -0.6798  0.1770  0.2571
43830SOL    HW136047   5.579   0.332   3.707  0.3426 -2.6143 -1.2145
43830SOL    HW236048   5.443   0.342   3.772  1.5041  1.7268  0.9479
43831SOL     OW36049   6.220   7.751   6.509  0.5861 -0.0437 -0.1496
43831SOL    HW136050   6.130   7.731   6.536  1.1875 -1.5385  0.8565
43831SOL    HW236051   6.210   7.812   6.435 -1.1827  1.6213  1.3533
43832SOL     OW36052   6.064   6.174   7.504  1.3069  0.5353 -0.1690
43832SOL    HW136053   6.097   6.128   7.427  1.0910 -1.0333  0.6318
43832SOL    HW236054   6.023   6.253   7.468  0.7345 -0.4055 -1.7289
43833SOL     OW36055   2.966   1.577   5.614 -0.0048  0.1959  0.2344
43833SOL    HW136056   2.969   1.582   5.519 -0.9509 -0.1830  0.1684
43833SOL    HW236057   2.919   1.656   5.641 -0.0855  0.1084  0.3526
43834SOL     OW36058   1.394   2.943   9.158  0.1263 -0.2417 -0.5902
43834SOL    HW136059   1.450   2.867   9.147  1.0927  0.7328 -3.0428
43834SOL    HW236060   1.402   2.992   9.076 -0.8208  2.2664  0.6840
43835SOL     OW36061   4.644   8.149   2.729  0.2687  0.3823 -0.0244
43835SOL    HW136062   4.566   8.198   2.756 -0.5958  0.4200 -2.3327
43835SOL    HW236063   4.609   8.074   2.681  1.6411  0.2340 -0.8377
43836SOL     OW36064   4.638   8.929   3.843  0.2011 -0.1881  0.0080
43836SOL    HW136065   4.642   8.852   3.786 -1.6242 -1.8305  1.9031
43836SOL    HW236066   4.547   8.957   3.839  0.7144  1.6054 -0.1967
43837SOL     OW36067   2.371   8.901  12.114 -0.2718 -0.0366  0.7518
43837SOL    HW136068   2.438   8.894  12.182 -0.1598 -2.8474  0.4501
43837SOL    HW236069   2.420   8.916  12.033 -0.0541 -1.1763  0.6645
43838SOL     OW36070   6.341   4.718   0.274 -0.1258  0.6028  0.3239
43838SOL    HW136071   6.273   4.658   0.242 -1.7685  2.8335 -0.6264
43838SOL    HW236072   6.391   4.740   0.195  0.4808  0.4644  0.6706
43839SOL     OW36073   4.535  11.374   2.317 -0.0572 -0.2904  0.1932
43839SOL    HW136074   4.576  11.340   2.396 -0.7875  0.8589  1.0930
43839SOL    HW236075   4.563  11.314   2.248  2.4891 -0.0211  0.8712
43840SOL     OW36076   1.279  10.769  12.016  0.2768 -0.6888 -0.2990
43840SOL    HW136077   1.291  10.678  11.988 -1.3247 -1.2165  0.6145
43840SOL    HW236078   1.230  10.810  11.946 -2.5516 -1.6567  0.9661
43841SOL     OW36079   7.127   5.702  11.160 -0.2335 -0.5762 -0.3496
43841SOL    HW136080   7.200   5.651  11.126 -0.0239  0.1458 -1.0201
43841SOL    HW236081   7.050   5.669  11.114 -0.0006  0.1531 -1.3065
43842SOL     OW36082   9.928   6.607   1.885  0.5189 -0.1765  0.3127
43842SOL    HW136083   9.990   6.577   1.818  1.5630 -0.6340  1.4405
43842SOL    HW236084   9.843   6.605   1.842  1.3173  0.8870 -1.4427
43843SOL     OW36085   6.125   1.702   8.091 -0.4603  0.4864  0.0406
43843SOL    HW136086   6.101   1.682   8.001  0.8301  0.6894 -0.3704
43843SOL    HW236087   6.154   1.619   8.128  0.4880  0.6690 -0.2397
43844SOL     OW36088   5.517   4.768   0.446  0.0858 -0.7261 -0.2846
43844SOL    HW136089   5.479   4.852   0.422 -0.8138 -0.9092  0.4645
43844SOL    HW236090   5.514   4.766   0.542 -0.2591 -1.7703 -0.3048
43845SOL     OW36091   8.586   4.556   7.391 -0.4141  0.0484  0.0180
43845SOL    HW136092   8.663   4.566   7.334  0.1972  2.8364  1.1743
43845SOL    HW236093   8.615   4.588   7.476 -2.4394 -0.3474  0.9156
43846SOL     OW36094   0.295  10.043   3.660 -0.3496  0.0426 -0.2823
43846SOL    HW136095   0.249   9.991   3.725 -0.1903 -0.7057 -0.7580
43846SOL    HW236096   0.228  10.099   3.620 -0.1632  1.9031  1.7889
43847SOL     OW36097   4.459   3.418   6.358 -0.4761 -0.0631 -0.4115
43847SOL    HW136098   4.400   3.487   6.325 -0.3263  0.2071 -0.1220
43847SOL    HW236099   4.473   3.442   6.450  0.5656  0.2105 -0.6345
43848SOL     OW36100   9.460   3.878   1.758 -0.5213  0.0100 -0.2183
43848SOL    HW136101   9.450   3.862   1.664  0.6519 -1.5466 -0.1200
43848SOL    HW236102   9.392   3.943   1.779 -0.4726  0.7725 -2.2151
43849SOL     OW36103   3.817   0.342   5.594 -0.2851  0.3171  0.4351
43849SOL    HW136104   3.846   0.389   5.672  2.1635  0.3794 -0.4603
43849SOL    HW236105   3.804   0.410   5.528 -0.5560  0.0828  0.2437
43850SOL     OW36106   4.259   5.976   4.854  0.5798 -0.3194  0.1908
43850SOL    HW136107   4.210   5.995   4.934 -0.4967 -2.7792  0.2181
43850SOL    HW236108   4.351   5.984   4.879  0.2879 -2.0187  2.0064
43851SOL     OW36109   7.745   5.902   1.627 -0.0593  0.0913  0.4079
43851SOL    HW136110   7.711   5.870   1.544 -2.7533  1.5084  0.8457
43851SOL    HW236111   7.682   5.872   1.692  0.7454  0.9368  1.6367
43852SOL     OW36112   9.132   3.161  11.200  0.6866 -0.3219 -0.0694
43852SOL    HW136113   9.178   3.226  11.254 -0.4271 -0.3598  0.9713
43852SOL    HW236114   9.157   3.183  11.110  3.1754 -0.6990  0.4511
43853SOL     OW36115   6.583   6.381   9.650 -0.6572  0.9222  0.1882
43853SOL    HW136116   6.496   6.409   9.681 -0.2856  2.8757 -0.3598
43853SOL    HW236117   6.596   6.431   9.569  1.1955  1.0975  0.5537
43854SOL     OW36118   9.265   3.948   2.394  0.0191  0.2064 -0.0796
43854SOL    HW136119   9.328   3.958   2.466  1.5712  3.1432 -1.6566
43854SOL    HW236120   9.316   3.913   2.321 -1.1785 -1.2618 -0.2694
43855SOL     OW36121   9.588   6.206   2.996  0.5121  0.2086  0.4472
43855SOL    HW136122   9.640   6.251   2.929  1.1678 -0.2840  0.6166
43855SOL    HW236123   9.517   6.267   3.015  0.9671  0.8519  0.1350
43856SOL     OW36124   1.289   3.418   9.725  0.3381  0.1045 -0.2071
43856SOL    HW136125   1.253   3.350   9.669  0.2334 -0.5682  0.6630
43856SOL    HW236126   1.298   3.494   9.667  0.3207 -0.5915 -1.1524
43857SOL     OW36127   9.703   1.071  10.499 -0.6499  0.4408 -0.5302
43857SOL    HW136128   9.680   1.022  10.578 -0.6268 -0.4810 -1.0675
43857SOL    HW236129   9.731   1.156  10.530  1.0692 -0.4848  0.5963
43858SOL     OW36130   0.549   2.510   0.099 -1.1952 -0.1930 -0.8528
43858SOL    HW136131   0.548   2.419   0.128  1.8594  0.4940  1.9193
43858SOL    HW236132   0.560   2.504   0.004 -0.8182 -2.6987 -0.7300
43859SOL     OW36133   7.005  11.637   8.126 -0.0975 -0.5712 -0.1982
43859SOL    HW136134   7.038  11.703   8.186 -1.4118  0.2365 -0.3110
43859SOL    HW236135   7.027  11.553   8.167  1.0317 -0.0717  0.2586
43860SOL     OW36136   5.378   2.330  10.551  0.5547 -0.5422 -0.9230
43860SOL    HW136137   5.352   2.264  10.615  1.9167  1.7900  2.3570
43860SOL    HW236138   5.459   2.296  10.513  1.7514 -0.5019  1.3908
43861SOL     OW36139   4.811   6.931   4.319  0.5860 -0.1641 -0.8665
43861SOL    HW136140   4.756   6.884   4.382  0.9766  0.9491  0.3458
43861SOL    HW236141   4.752   6.953   4.247 -0.0926 -0.6317 -0.4686
43862SOL     OW36142   8.857   8.293  10.965  0.3004  0.0858 -0.2710
43862SOL    HW136143   8.834   8.269  10.875 -0.4596  0.7038 -0.2509
43862SOL    HW236144   8.792   8.359  10.990  2.3661  2.3157 -0.3982
43863SOL     OW36145   5.970   3.364   4.625  0.2441  0.0929  0.3410
43863SOL    HW136146   5.923   3.344   4.705 -1.8043  2.9791  0.0091
43863SOL    HW236147   5.927   3.310   4.558 -0.2689  0.1511  0.6222
43864SOL     OW36148   8.275   9.693   6.305  0.2963  0.6827 -0.1071
43864SOL    HW136149   8.184   9.722   6.319 -0.0081 -0.3012  0.0037
43864SOL    HW236150   8.287   9.698   6.211 -0.7049 -1.5162 -0.4145
43865SOL     OW36151   8.753   6.335   6.427 -0.4169  0.3238  0.2351
43865SOL    HW136152   8.724   6.259   6.478  0.9482  0.0898  0.6900
43865SOL    HW236153   8.684   6.400   6.442 -0.5172 -0.0620  1.6585
43866SOL     OW36154   8.667   6.802   3.633  0.7209 -0.5726  0.6792
43866SOL    HW136155   8.589   6.776   3.584  1.2831 -1.8891  0.4496
43866SOL    HW236156   8.633   6.843   3.712 -0.2259 -1.6956  0.8841
43867SOL     OW36157   1.166   7.020   4.893  0.9000 -0.8800 -0.3441
43867SOL    HW136158   1.229   7.084   4.927  0.3201 -0.7817  0.5795
43867SOL    HW236159   1.133   6.975   4.971 -1.1628 -0.0177 -0.6761
43868SOL     OW36160   9.660   2.614   8.359  0.0878  0.0670 -0.7202
43868SOL    HW136161   9.649   2.583   8.449  0.1296 -1.2601 -1.1537
43868SOL    HW236162   9.711   2.694   8.368 -1.5156  1.0224  0.5805
43869SOL     OW36163   3.533   0.738   0.342 -0.1926 -0.1056 -0.1527
43869SOL    HW136164   3.575   0.729   0.257 -0.0246  0.4131 -0.1322
43869SOL    HW236165   3.456   0.682   0.338 -1.2761  1.3785 -1.3629
43870SOL     OW36166   9.334   1.113  10.950 -0.0013 -0.0069  0.0173
43870SOL    HW136167   9.302   1.190  10.996 -0.4232 -0.6276  0.7905
43870SOL    HW236168   9.355   1.051  11.020  1.5135 -0.1475 -0.5310
43871SOL     OW36169   7.893   6.322   9.992 -0.2178  0.2375  0.1207
43871SOL    HW136170   7.898   6.408  10.034 -0.9193  0.0246  0.6495
43871SOL    HW236171   7.830   6.273  10.044 -0.4720 -0.3174 -0.6886
43872SOL     OW36172   8.274  11.039   0.269 -0.2352  0.3035  0.2495
43872SOL    HW136173   8.331  11.022   0.344  2.6566  0.8236 -1.6610
43872SOL    HW236174   8.250  10.952   0.236 -0.2238  0.0703  0.8560
43873SOL     OW36175   7.000   7.456   4.726 -0.2517 -0.0626  0.4324
43873SOL    HW136176   7.047   7.429   4.805  1.7962  0.9755 -0.3747
43873SOL    HW236177   6.930   7.391   4.716 -0.2426 -0.5109  2.7864
43874SOL     OW36178  11.426   9.604   7.511 -0.4049  0.8478  0.2814
43874SOL    HW136179  11.415   9.521   7.557 -0.5012 -0.5540 -2.1115
43874SOL    HW236180  11.370   9.665   7.559 -1.0687 -0.7002  1.5661
43875SOL     OW36181   3.322   1.126  11.301 -0.2294  0.6517  0.1427
43875SOL    HW136182   3.395   1.064  11.307 -1.4330 -0.8330  0.0409
43875SOL    HW236183   3.364   1.211  11.288  1.4675 -0.4098 -2.0593
43876SOL     OW36184   2.805   7.924   4.190  0.2087 -0.9118 -0.2253
43876SOL    HW136185   2.722   7.932   4.238  0.7188 -0.9760  0.6976
43876SOL    HW236186   2.782   7.939   4.099 -0.4451  1.4248  0.2585
43877SOL     OW36187   9.879   3.883   3.849 -0.0473  0.2283 -0.3066
43877SOL    HW136188   9.904   3.908   3.760 -1.1512  4.4079  0.3515
43877SOL    HW236189   9.806   3.822   3.837 -0.6693  1.2888 -2.2860
43878SOL     OW36190  11.705   9.262   3.976 -0.4137 -0.7031  0.0962
43878SOL    HW136191  11.649   9.195   3.938 -0.0589 -0.3496 -1.0884
43878SOL    HW236192  11.754   9.298   3.902  1.0999 -0.7346  1.0256
43879SOL     OW36193   1.014  11.353   1.060  0.1316 -0.2083 -0.4855
43879SOL    HW136194   0.994  11.436   1.016 -1.5816 -0.7610 -0.8523
43879SOL    HW236195   1.100  11.328   1.026 -0.3828  0.2420 -2.2497
43880SOL     OW36196   1.744   8.296   9.242 -0.5166 -0.2669 -0.1929
43880SOL    HW136197   1.707   8.365   9.297 -0.4455 -1.3575  1.2807
43880SOL    HW236198   1.839   8.304   9.252 -0.4824 -0.1435 -0.5855
43881SOL     OW36199   5.888   9.843   6.274  0.3124  0.0663 -0.0136
43881SOL    HW136200   5.952   9.914   6.266  1.1634 -0.8274 -1.6806
43881SOL    HW236201   5.913   9.797   6.354  0.8982  0.5454  0.0862
43882SOL     OW36202   2.240   5.022   3.499  0.4360 -0.5715 -0.4712
43882SOL    HW136203   2.153   4.994   3.528 -0.7637  2.4056 -0.8242
43882SOL    HW236204   2.297   4.948   3.521 -2.2799 -3.1028 -1.1744
43883SOL     OW36205   5.294   7.344   5.633  0.6319 -0.4267 -0.0699
43883SOL    HW136206   5.218   7.377   5.680  1.9468  0.1137  1.8188
43883SOL    HW236207   5.302   7.401   5.556  0.2787  0.8141  0.7804
43884SOL     OW36208   5.333  11.210   3.164 -0.6837  0.1389 -0.4598
43884SOL    HW136209   5.336  11.167   3.249  0.5610 -1.3473 -1.2129
43884SOL    HW236210   5.288  11.293   3.181 -0.3495 -0.0593  1.6603
43885SOL     OW36211  11.762   6.611   4.756  0.5133  0.2077 -0.0554
43885SOL    HW136212  11.688   6.667   4.731  0.7316  0.5577  0.0811
43885SOL    HW236213  11.783   6.563   4.676 -1.2609 -1.5165  0.4437
43886SOL     OW36214   0.410   0.579  10.700 -0.1402 -0.2011 -0.3387
43886SOL    HW136215   0.407   0.644  10.630 -0.7714 -0.5424 -0.6398
43886SOL    HW236216   0.327   0.590  10.747  1.2484  1.6553  1.8920
43887SOL     OW36217   1.764   7.310   5.372 -0.2792  0.4635 -0.3790
43887SOL    HW136218   1.829   7.293   5.440 -0.8757  1.1559  0.3860
43887SOL    HW236219   1.712   7.229   5.368  0.0342  0.2577 -0.3259
43888SOL     OW36220  10.137   6.278   1.884 -0.1168  0.6247  0.2318
43888SOL    HW136221  10.114   6.315   1.798 -0.7084 -0.6549 -0.1997
43888SOL    HW236222  10.136   6.353   1.943  2.5094  1.9548 -1.2244
43889SOL     OW36223  10.014   3.994   8.702  0.0323 -0.3291  0.4845
43889SOL    HW136224   9.977   3.919   8.654 -1.3494  0.5873  0.0378
43889SOL    HW236225  10.007   4.067   8.640  2.9224 -0.1066  0.2787
43890SOL     OW36226   9.513   2.468   5.427  0.6748  0.1969 -0.1879
43890SOL    HW136227   9.517   2.561   5.403  0.8084  0.0923 -0.5878
43890SOL    HW236228   9.540   2.422   5.347  2.3111 -0.1381  0.5264
43891SOL     OW36229   2.722  10.113   5.782  0.4035 -0.0789 -0.4641
43891SOL    HW136230   2.784  10.046   5.752 -1.7203 -0.9961 -3.2020
43891SOL    HW236231   2.674  10.071   5.853  1.6267 -0.0097  0.4411
43892SOL     OW36232   4.278   8.685   6.340 -0.8943  0.4081 -0.3453
43892SOL    HW136233   4.355   8.660   6.289 -0.9164  2.4757 -1.4864
43892SOL    HW236234   4.313   8.719   6.422 -0.6312  0.6680 -0.5636
43893SOL     OW36235   0.651  11.714  10.231 -0.0664  0.4903 -0.2467
43893SOL    HW136236   0.638  11.624  10.199 -1.1061  0.9126 -1.0605
43893SOL    HW236237   0.746  11.721  10.244  0.0537 -0.6511 -0.3622
43894SOL     OW36238   1.328   4.173   4.841  0.1263 -0.3451 -0.2242
43894SOL    HW136239   1.251   4.139   4.795 -0.0366 -0.0435 -0.1778
43894SOL    HW236240   1.398   4.112   4.819  0.2288  0.1832 -1.4486
43895SOL     OW36241   1.938   2.303   1.355 -0.3008  0.1147  0.2856
43895SOL    HW136242   1.867   2.251   1.317  0.3977 -0.8679  0.2824
43895SOL    HW236243   1.970   2.356   1.282  0.6907 -1.3823 -0.4009
43896SOL     OW36244   9.440   4.366   8.029  0.2083  0.3759  0.4807
43896SOL    HW136245   9.396   4.295   8.077 -0.2040  0.4193  0.1717
43896SOL    HW236246   9.474   4.423   8.097  1.4451 -0.6539  0.7612
43897SOL     OW36247   6.058  11.912   5.103 -0.2955 -0.0938  0.0994
43897SOL    HW136248   6.134  11.940   5.052  0.3421 -2.9803 -0.7023
43897SOL    HW236249   6.003  11.866   5.041 -0.5721 -1.7892  1.5299
43898SOL     OW36250  11.709   8.071   0.894 -0.1479  0.0580  0.1010
43898SOL    HW136251  11.727   8.105   0.806  0.7790 -0.9312 -0.1145
43898SOL    HW236252  11.706   7.976   0.882 -1.4496 -0.0159  0.8983
43899SOL     OW36253  10.569   0.317   2.593 -0.2986  0.3528  0.0467
43899SOL    HW136254  10.563   0.405   2.556 -1.0224  0.5294  0.5585
43899SOL    HW236255  10.488   0.306   2.642 -0.0353 -0.4506  0.3227
43900SOL     OW36256   5.187  11.822   1.453 -0.1670 -0.0805 -0.1894
43900SOL    HW136257   5.167  11.899   1.507  0.5520  0.1150 -0.1919
43900SOL    HW236258   5.194  11.750   1.515  1.9632  0.3730  0.1886
43901SOL     OW36259   4.959   4.904   7.662 -0.3319 -0.3199 -0.1516
43901SOL    HW136260   4.994   4.819   7.692  0.1176 -0.8534 -2.0575
43901SOL    HW236261   4.873   4.882   7.625  0.0847 -0.0625 -1.2788
43902SOL     OW36262   7.859   4.282   9.056  0.2119  0.0489  0.0713
43902SOL    HW136263   7.831   4.317   8.972 -0.9067  1.7326  1.0803
43902SOL    HW236264   7.792   4.217   9.079  0.4640 -0.3371 -0.2594
43903SOL     OW36265   2.295  10.271   4.375  0.1187 -0.2771  0.0958
43903SOL    HW136266   2.251  10.201   4.423 -0.9907  0.3514  0.0339
43903SOL    HW236267   2.281  10.350   4.428  0.0392  0.1740 -0.5768
43904SOL     OW36268  10.992   4.617   8.831 -0.0073 -0.1060 -0.1656
43904SOL    HW136269  11.082   4.639   8.856 -0.6856  0.0479  2.4198
43904SOL    HW236270  10.939   4.685   8.873 -1.2793  1.0540 -3.3498
43905SOL     OW36271   8.557   4.510  11.112  0.3932  0.1179 -0.0881
43905SOL    HW136272   8.503   4.459  11.172  2.3425 -0.0231  1.6211
43905SOL    HW236273   8.495   4.539  11.044 -1.2451 -2.4766  0.1376
43906SOL     OW36274   8.768   3.814   3.261  0.3468  0.5774 -0.6670
43906SOL    HW136275   8.788   3.884   3.323  0.9180 -1.6390  1.8518
43906SOL    HW236276   8.681   3.835   3.228 -0.8924  0.9543  2.4665
43907SOL     OW36277  10.480   6.233   3.239 -0.1009 -0.3412  0.0041
43907SOL    HW136278  10.413   6.179   3.280  0.3132 -1.0094 -0.1740
43907SOL    HW236279  10.562   6.203   3.278  0.0521  0.9046  0.7036
43908SOL     OW36280   1.269   8.498   1.731 -0.3942  0.0142  0.0607
43908SOL    HW136281   1.329   8.515   1.804 -2.6104 -2.1386  2.5982
43908SOL    HW236282   1.308   8.425   1.684 -0.4781 -0.7014  1.0727
43909SOL     OW36283   2.986   1.037   6.810  0.0644  0.1018  0.2358
43909SOL    HW136284   2.990   1.094   6.733  1.3805  1.1232  1.0283
43909SOL    HW236285   3.018   0.952   6.779  1.7253  0.8219 -0.0866
43910SOL     OW36286  11.268   2.107   1.358 -0.2671 -0.0041  0.1915
43910SOL    HW136287  11.189   2.054   1.345  0.4637 -0.8962 -0.8150
43910SOL    HW236288  11.260   2.176   1.292 -1.2464  1.2464  1.5384
43911SOL     OW36289  11.419   3.077   9.546 -0.4248 -0.0974  0.1154
43911SOL    HW136290  11.348   3.073   9.609 -1.3992 -0.9509 -0.9713
43911SOL    HW236291  11.478   3.145   9.579 -0.7707 -0.6732  2.0290
43912SOL     OW36292   4.373   9.821   8.257  1.1432 -0.4698 -0.0419
43912SOL    HW136293   4.458   9.777   8.255  1.3492 -0.2136  1.8035
43912SOL    HW236294   4.394   9.913   8.244  1.1219 -0.4238  0.2659
43913SOL     OW36295   3.441   0.036  11.651 -0.9001 -0.0988 -0.8300
43913SOL    HW136296   3.480   0.116  11.686 -1.8636 -0.3649  0.9782
43913SOL    HW236297   3.366   0.067  11.600  0.2066  0.2627 -2.3146
43914SOL     OW36298   1.646   5.985   1.686  0.3381  0.3110 -0.5189
43914SOL    HW136299   1.579   5.994   1.618 -0.1897 -1.0771 -0.2101
43914SOL    HW236300   1.599   5.948   1.760  1.6018 -1.4888 -0.5657
43915SOL     OW36301  10.035   5.469  10.785 -0.4761 -0.5525 -0.2196
43915SOL    HW136302   9.981   5.524  10.843 -0.4387 -0.3427 -0.3812
43915SOL    HW236303  10.125   5.489  10.810 -0.4332  0.1903 -0.9311
43916SOL     OW36304  11.338   8.272   5.469 -0.0349 -0.0517 -0.1002
43916SOL    HW136305  11.280   8.284   5.545 -0.5365  0.8765 -0.6064
43916SOL    HW236306  11.423   8.252   5.507 -0.3146  0.2509  0.7159
43917SOL     OW36307   5.197   9.410   5.506 -0.2582 -0.4404  0.5072
43917SOL    HW136308   5.126   9.455   5.461 -0.2794 -2.2281 -1.4032
43917SOL    HW236309   5.276   9.459   5.481 -0.6923  1.3979  2.4389
43918SOL     OW36310   2.149   3.762   1.801 -0.0561 -0.0573  0.2074
43918SOL    HW136311   2.237   3.736   1.827 -0.3685  1.2433  2.8514
43918SOL    HW236312   2.159   3.854   1.773  0.1843 -1.2287 -4.3047
43919SOL     OW36313   8.017   4.231   9.756  0.0315 -0.2474  0.7255
43919SOL    HW136314   8.057   4.143   9.758 -0.2860 -0.3765  1.6441
43919SOL    HW236315   7.924   4.215   9.740  0.2567  0.0393 -1.0963
43920SOL     OW36316  10.694  11.994   7.802  0.1184  0.3298 -0.2195
43920SOL    HW136317  10.716  12.086   7.810  2.0293 -0.0757 -0.3395
43920SOL    HW236318  10.605  11.993   7.768 -0.0138  2.1215  0.0242
43921SOL     OW36319   8.737   8.958   5.980 -0.5873 -0.1141  0.7801
43921SOL    HW136320   8.653   8.947   5.935  0.5388 -1.2847 -1.1660
43921SOL    HW236321   8.730   8.903   6.058 -1.4661 -0.5277  0.4216
43922SOL     OW36322   3.831   8.360   2.175  0.3976  0.0753  0.3625
43922SOL    HW136323   3.782   8.358   2.257  0.2931  0.2808  0.3034
43922SOL    HW236324   3.921   8.381   2.202 -0.3349  4.3748  0.0962
43923SOL     OW36325   3.578   7.536   5.499  0.1183 -0.1144 -0.5042
43923SOL    HW136326   3.558   7.629   5.509 -1.3382 -0.4917  0.4168
43923SOL    HW236327   3.666   7.526   5.536  0.2331  0.8784 -0.5030
43924SOL     OW36328   8.107   9.965   6.341  0.2980 -0.0781  0.5342
43924SOL    HW136329   8.091  10.021   6.418 -1.2933 -1.5717  1.3362
43924SOL    HW236330   8.202   9.969   6.330  0.4809  0.9056  2.0105
43925SOL     OW36331   1.534   7.588   2.076 -0.2700  0.4365 -0.0535
43925SOL    HW136332   1.592   7.545   2.137  0.1456 -0.4131 -1.0217
43925SOL    HW236333   1.446   7.568   2.107 -0.0783 -0.8289 -0.2807
43926SOL     OW36334   7.667   6.777   6.459 -0.0135  0.8655 -0.0372
43926SOL    HW136335   7.672   6.871   6.477 -1.3780  1.1635 -1.0639
43926SOL    HW236336   7.758   6.749   6.455  0.4117  2.0071  0.9242
43927SOL     OW36337   0.530   8.327   2.435  0.0676 -0.2784  0.4019
43927SOL    HW136338   0.508   8.249   2.485  1.9053  1.2135  3.8626
43927SOL    HW236339   0.447   8.374   2.425 -0.4810 -1.0365  1.2636
43928SOL     OW36340   8.896  11.527   6.969  0.2851 -0.5762 -0.4475
43928SOL    HW136341   8.907  11.471   6.892 -0.9876 -1.1418 -0.2450
43928SOL    HW236342   8.949  11.485   7.037  1.5751  0.0367 -1.0436
43929SOL     OW36343   0.246  11.085   6.928  0.5027  0.9005 -0.1918
43929SOL    HW136344   0.190  11.160   6.949 -1.0856 -0.3497  0.2260
43929SOL    HW236345   0.199  11.038   6.860  0.5948 -0.6514  0.7736
43930SOL     OW36346   4.416   4.796   2.472 -0.0993 -0.2256  0.4752
43930SOL    HW136347   4.389   4.732   2.406 -1.1474 -0.0858  0.7457
43930SOL    HW236348   4.381   4.879   2.440  1.9937  0.4249 -0.3292
43931SOL     OW36349   5.325   0.857   9.698  0.1530  0.2159 -0.5024
43931SOL    HW136350   5.263   0.897   9.760  0.9942  0.2406  0.3462
43931SOL    HW236351   5.284   0.774   9.673  0.1949 -0.2146  0.7820
43932SOL     OW36352   8.181   4.874   7.310 -0.0632  0.4168  0.4241
43932SOL    HW136353   8.239   4.833   7.374  0.9505 -0.3198 -0.9096
43932SOL    HW236354   8.125   4.802   7.280  0.8016  0.2689 -0.9256
43933SOL     OW36355   5.705   0.766   8.301 -0.7290 -0.5712 -0.1347
43933SOL    HW136356   5.713   0.831   8.371  0.2832 -1.8891  1.0505
43933SOL    HW236357   5.786   0.775   8.250 -1.3862  0.2675 -1.0664
43934SOL     OW36358  11.460   8.734   3.881 -0.3829 -0.5248 -0.4517
43934SOL    HW136359  11.507   8.678   3.943  0.0479 -0.2373 -0.5098
43934SOL    HW236360  11.506   8.720   3.798 -0.5084 -0.3652 -0.5477
43935SOL     OW36361   4.263   7.924   2.629  0.0782 -0.0183  0.1851
43935SOL    HW136362   4.262   8.016   2.601  1.5338  0.2409  0.8959
43935SOL    HW236363   4.204   7.880   2.568  2.1832  0.7295 -2.5543
43936SOL     OW36364   5.243   2.681  10.400  0.0936 -0.4056 -0.3746
43936SOL    HW136365   5.197   2.599  10.418 -0.1878  0.2189  2.1440
43936SOL    HW236366   5.239   2.729  10.483  0.4687  2.0632 -1.7125
43937SOL     OW36367  10.945   6.303   0.797 -0.1566  0.1188  0.1623
43937SOL    HW136368  10.870   6.317   0.855 -0.2949 -0.8871  0.2444
43937SOL    HW236369  10.950   6.383   0.744 -1.4171  0.1263  0.0211
43938SOL     OW36370   0.236   0.717   1.897 -0.2812 -0.1973  0.0151
43938SOL    HW136371   0.199   0.637   1.935 -2.4878  0.6459 -0.2034
43938SOL    HW236372   0.307   0.686   1.841 -1.6013 -2.1339 -0.7190
43939SOL     OW36373   3.409   8.812   9.599  0.2408 -0.5445 -0.1194
43939SOL    HW136374   3.480   8.876   9.606 -0.0792 -0.1164 -0.7210
43939SOL    HW236375   3.451   8.733   9.567  0.4619 -0.3210 -0.3802
43940SOL     OW36376   7.067   6.329   2.319 -0.5958  0.2777  0.0452
43940SOL    HW136377   6.975   6.301   2.309 -1.1096  1.5860  0.8427
43940SOL    HW236378   7.065   6.423   2.301  0.1179  0.8295  2.5383
43941SOL     OW36379   2.306   0.214   3.715 -0.7478  0.2934  0.0939
43941SOL    HW136380   2.307   0.177   3.626  0.2504 -0.4924  0.4025
43941SOL    HW236381   2.382   0.272   3.717  2.2816 -3.2801  1.7782
43942SOL     OW36382  11.343   2.550  10.314  0.5007  0.4313 -0.0514
43942SOL    HW136383  11.355   2.505  10.231 -0.2790 -2.8896  1.4584
43942SOL    HW236384  11.248   2.553  10.326  0.4146  3.9332 -0.6950
43943SOL     OW36385   7.381   3.081   0.318  0.5698 -0.6641  0.1681
43943SOL    HW136386   7.452   3.131   0.277 -0.6746  0.4720 -0.6875
43943SOL    HW236387   7.341   3.033   0.245  0.2453 -1.0190  0.5772
43944SOL     OW36388   9.790   4.071   1.221  0.5806  0.1815  0.3129
43944SOL    HW136389   9.730   4.145   1.215  2.4605  1.7835  0.2235
43944SOL    HW236390   9.792   4.035   1.133 -0.8451 -0.4530  0.5032
43945SOL     OW36391   6.205   4.382   6.206 -0.2308 -0.6288 -0.1509
43945SOL    HW136392   6.137   4.338   6.155 -0.5259  0.0519 -0.3609
43945SOL    HW236393   6.271   4.315   6.221 -0.5468 -1.0689 -0.6913
43946SOL     OW36394   4.174   9.718  10.998 -0.3086 -0.4503  0.8807
43946SOL    HW136395   4.213   9.775  11.064  0.5972  0.6837 -0.5771
43946SOL    HW236396   4.090   9.760  10.976  1.5722  2.1594 -2.2706
43947SOL     OW36397   8.259   3.706   0.959  0.0770 -0.2861  0.8312
43947SOL    HW136398   8.251   3.611   0.964  1.8683 -0.4955  0.2556
43947SOL    HW236399   8.255   3.725   0.865 -0.1317  0.2000  0.9370
43948SOL     OW36400   3.070   1.368   3.871  0.5040 -0.3405  0.2311
43948SOL    HW136401   3.093   1.409   3.788  0.9636  1.3430  1.1299
43948SOL    HW236402   3.046   1.441   3.928  0.5828 -1.4022  1.6966
43949SOL     OW36403   9.178   7.834  11.558 -0.2892  0.2152  0.6600
43949SOL    HW136404   9.270   7.854  11.539  0.1882 -1.4010  1.0956
43949SOL    HW236405   9.133   7.918  11.554  1.2021  1.0228  0.3760
43950SOL     OW36406   4.995   8.891   9.484  0.2103  0.0852  0.3557
43950SOL    HW136407   5.061   8.823   9.465 -0.7014 -0.4499 -1.0615
43950SOL    HW236408   4.928   8.878   9.417 -0.6891  1.4872  0.9513
43951SOL     OW36409   8.543   9.212   5.689  0.0100  0.0663  0.2523
43951SOL    HW136410   8.502   9.187   5.772 -1.4989 -0.1846 -0.5310
43951SOL    HW236411   8.470   9.217   5.627  1.3591 -2.5647 -1.7680
43952SOL     OW36412   5.900  11.254   0.530  0.9520  0.1776 -0.4518
43952SOL    HW136413   5.917  11.161   0.545  1.9499 -0.0813 -2.8027
43952SOL    HW236414   5.809  11.267   0.556  0.6039 -1.5991 -0.6894
43953SOL     OW36415   0.941   3.720   0.636  0.3943 -0.3736 -0.4182
43953SOL    HW136416   0.997   3.647   0.662 -0.2070 -1.2030 -1.3661
43953SOL    HW236417   0.888   3.739   0.714 -0.2589 -1.7483 -0.4959
43954SOL     OW36418  10.146   4.989   0.033  0.0401 -0.2385  0.2111
43954SOL    HW136419  10.183   5.078   0.030 -0.1080 -0.2029 -2.1682
43954SOL    HW236420  10.220   4.931   0.015 -0.0716 -0.5282  0.6749
43955SOL     OW36421   1.811  11.855  11.343 -0.3699 -0.2173  0.5189
43955SOL    HW136422   1.743  11.852  11.275  1.0978 -0.9463 -0.9889
43955SOL    HW236423   1.875  11.918  11.310  1.0139 -1.5423  0.5331
43956SOL     OW36424   2.183   0.402   8.070  0.0593  0.0328  0.3491
43956SOL    HW136425   2.148   0.489   8.053  0.2392  0.0222 -0.0751
43956SOL    HW236426   2.193   0.399   8.166 -1.8669 -0.2572  0.5868
43957SOL     OW36427   9.168   9.507  11.289  0.0013  0.1373  0.2532
43957SOL    HW136428   9.181   9.601  11.281 -0.3411  0.2981  1.4609
43957SOL    HW236429   9.073   9.496  11.287  0.0497 -0.2274 -0.2796
43958SOL     OW36430  11.725   5.685   6.384  0.1247  0.3104 -0.5915
43958SOL    HW136431  11.740   5.713   6.474  0.7704 -0.4458 -0.4558
43958SOL    HW236432  11.660   5.614   6.392  1.9174 -1.4104 -0.4479
43959SOL     OW36433   7.499   6.185   9.987 -0.2658 -0.0470  0.3269
43959SOL    HW136434   7.413   6.152  10.016 -0.4981 -0.3891 -0.7082
43959SOL    HW236435   7.487   6.279   9.979 -0.6470 -0.1322 -0.1329
43960SOL     OW36436   6.437  10.251   5.002 -0.2514 -0.1703  0.8023
43960SOL    HW136437   6.514  10.292   4.962 -1.7804  1.0661 -1.0549
43960SOL    HW236438   6.450  10.263   5.096  0.7024  2.2140  0.4490
43961SOL     OW36439   8.102   1.252  10.692  0.0697 -0.4389 -0.0991
43961SOL    HW136440   8.084   1.301  10.773  1.0445 -0.3997  0.1049
43961SOL    HW236441   8.074   1.163  10.712 -0.5447 -0.2424 -0.0429
43962SOL     OW36442   6.948   3.840   0.784 -0.1182 -0.1631  0.5255
43962SOL    HW136443   7.018   3.891   0.744  0.3973 -0.7874  0.6112
43962SOL    HW236444   6.875   3.847   0.723 -0.0756  0.7135  0.5616
43963SOL     OW36445  12.092   7.408   5.451 -0.1310 -0.3346  0.2223
43963SOL    HW136446  12.032   7.479   5.472 -0.7259 -0.6877 -0.2794
43963SOL    HW236447  12.069   7.381   5.363  2.2972  1.0753 -0.9420
43964SOL     OW36448   6.531   4.509   2.596 -0.0287 -0.4484 -0.0264
43964SOL    HW136449   6.592   4.437   2.613  1.3617  0.2003 -1.8727
43964SOL    HW236450   6.477   4.478   2.523  0.4623  0.2913 -0.7151
43965SOL     OW36451  11.381   3.619   3.541  0.6340  0.4711  0.0038
43965SOL    HW136452  11.390   3.663   3.456 -0.6793 -0.7191 -0.7958
43965SOL    HW236453  11.366   3.527   3.519 -0.6479  0.2831  1.4811
43966SOL     OW36454  11.274   5.247   5.783 -0.3325  0.6283  0.1644
43966SOL    HW136455  11.252   5.181   5.849  0.1961  0.7411  0.4571
43966SOL    HW236456  11.195   5.301   5.775 -1.2178 -0.7398 -0.9379
43967SOL     OW36457   2.885  10.939  10.555  0.2751 -0.7347 -0.0830
43967SOL    HW136458   2.869  11.032  10.571 -0.4683 -0.6298 -1.3022
43967SOL    HW236459   2.806  10.909  10.510  0.7334 -1.8274 -0.1855
43968SOL     OW36460   7.339   7.458   5.900  0.1995 -0.6649  0.3347
43968SOL    HW136461   7.383   7.541   5.883  0.2004 -0.5133  1.0339
43968SOL    HW236462   7.247   7.474   5.881  0.2127 -0.5270  0.3855
43969SOL     OW36463   1.463   2.211   2.085  0.0136  0.3181  0.0563
43969SOL    HW136464   1.439   2.299   2.056  0.7699  0.5234  0.0422
43969SOL    HW236465   1.550   2.197   2.049  0.6866  0.3015  1.6210
43970SOL     OW36466   4.105   8.542   2.137 -0.3593  0.3537 -0.4305
43970SOL    HW136467   4.185   8.573   2.181 -0.9030 -1.2966  1.9374
43970SOL    HW236468   4.051   8.620   2.127  0.4048  1.0285  0.5113
43971SOL     OW36469   5.918  11.598   3.848 -0.6534 -0.0397  0.3363
43971SOL    HW136470   5.990  11.549   3.886  0.2344  0.5086 -0.5916
43971SOL    HW236471   5.957  11.647   3.776 -2.2360 -0.9837 -1.2520
43972SOL     OW36472   6.034   9.111   9.035 -0.5653 -0.4149 -0.4206
43972SOL    HW136473   6.083   9.031   9.018 -0.8767 -0.6692 -0.1270
43972SOL    HW236474   5.953   9.101   8.985 -0.6042 -0.2810 -0.3855
43973SOL     OW36475   1.092   8.633   3.470 -0.3738  0.1031 -0.7816
43973SOL    HW136476   1.120   8.633   3.562 -0.6266  0.3528 -0.7023
43973SOL    HW236477   0.996   8.638   3.475 -0.3306  1.9929 -1.0744
43974SOL     OW36478   5.693   0.001  10.250  0.3766 -0.1306  0.2369
43974SOL    HW136479   5.741   0.048  10.182 -0.5082  0.7537  0.1963
43974SOL    HW236480   5.741   0.021  10.331 -1.0630  2.5322  0.5326
43975SOL     OW36481   3.558   0.757   3.224 -0.2587 -0.4495 -0.1358
43975SOL    HW136482   3.597   0.763   3.311 -1.9636 -0.1671  0.6454
43975SOL    HW236483   3.463   0.754   3.240 -0.6078 -0.4233 -1.9813
43976SOL     OW36484   0.694   4.449   8.518  0.6220 -0.2764 -0.1846
43976SOL    HW136485   0.639   4.407   8.452 -0.1841  1.1527 -0.4472
43976SOL    HW236486   0.738   4.376   8.561 -1.4295 -1.4738  0.0163
43977SOL     OW36487   9.685   0.457   1.491  0.4556 -0.1628 -0.3210
43977SOL    HW136488   9.646   0.535   1.450 -0.1633  0.2484  1.0065
43977SOL    HW236489   9.706   0.400   1.417  2.3687  1.8683 -1.4945
43978SOL     OW36490   9.177   8.572  11.000 -0.3187 -0.2630  0.0283
43978SOL    HW136491   9.259   8.621  11.005 -0.7753  0.5384 -0.2640
43978SOL    HW236492   9.143   8.574  11.090 -0.3249 -0.0608  0.0221
43979SOL     OW36493   5.248  10.021   7.342  0.2462 -0.3380 -0.6999
43979SOL    HW136494   5.279  10.048   7.428 -2.7933  3.0650 -0.4089
43979SOL    HW236495   5.257   9.925   7.342  3.1061 -0.2318  2.1426
43980SOL     OW36496  10.168   1.220  12.111 -0.1956  0.5341 -0.2230
43980SOL    HW136497  10.104   1.222  12.182  0.8900  1.0542  0.7892
43980SOL    HW236498  10.222   1.144  12.129 -0.6962 -0.0865 -1.2505
43981SOL     OW36499   9.717   5.865   2.235  0.5976  0.4433 -0.0051
43981SOL    HW136500   9.680   5.790   2.189  0.9332  0.8970 -1.0507
43981SOL    HW236501   9.746   5.831   2.319  2.2090 -0.9570 -1.0714
43982SOL     OW36502   9.319   9.832   5.685  0.4545 -0.2504 -0.2217
43982SOL    HW136503   9.312   9.835   5.781  2.2447  0.3604 -0.0708
43982SOL    HW236504   9.294   9.742   5.662  1.5550 -0.9160  1.0058
43983SOL     OW36505  12.055   0.541   7.582  0.0787 -0.1777 -0.5979
43983SOL    HW136506  12.030   0.596   7.508 -0.9877  0.0268 -0.0926
43983SOL    HW236507  11.973   0.522   7.628  0.3296 -2.6430 -1.0533
43984SOL     OW36508  10.995   8.636   8.368 -0.4475 -0.2043  0.1251
43984SOL    HW136509  10.976   8.602   8.455 -0.8587 -0.8377 -0.2028
43984SOL    HW236510  11.003   8.730   8.380  3.6828 -0.5418  1.6350
43985SOL     OW36511   0.748   7.507   6.379  0.3038 -0.5800  0.1145
43985SOL    HW136512   0.748   7.428   6.433 -0.0076  0.5422  1.8689
43985SOL    HW236513   0.674   7.496   6.319  0.7140 -1.9138 -0.1818
43986SOL     OW36514   7.581   0.432   0.549  0.2654 -0.7931 -0.0155
43986SOL    HW136515   7.600   0.339   0.556 -2.1979 -1.3485  0.0524
43986SOL    HW236516   7.492   0.436   0.514 -0.8195  1.4455  2.6634
43987SOL     OW36517   0.447   9.702   8.872  0.5909 -0.0993 -0.3262
43987SOL    HW136518   0.378   9.635   8.877  0.0010  0.5335  0.1757
43987SOL    HW236519   0.439   9.750   8.954  0.7506  0.8494 -0.8615
43988SOL     OW36520  10.442  10.755   2.853  0.2836 -0.0158 -0.3211
43988SOL    HW136521  10.484  10.819   2.795 -0.4954 -0.7838 -1.7828
43988SOL    HW236522  10.490  10.674   2.839  0.4195 -0.0972  0.5320
43989SOL     OW36523  10.916   2.336   2.226 -0.3627 -0.2023 -0.0200
43989SOL    HW136524  11.007   2.354   2.248  0.0972 -0.5437 -1.5486
43989SOL    HW236525  10.879   2.422   2.206  0.1316 -0.2509 -1.1876
43990SOL     OW36526   1.873   5.289   6.328  0.0837 -0.2451 -0.1892
43990SOL    HW136527   1.875   5.383   6.308 -0.3443  0.0497  1.0325
43990SOL    HW236528   1.781   5.269   6.341  0.3696  0.1370  3.5431
43991SOL     OW36529   7.797  11.852   5.430  0.3295 -0.1088 -0.6669
43991SOL    HW136530   7.750  11.822   5.508 -0.6691  2.8282 -0.0227
43991SOL    HW236531   7.879  11.888   5.464  0.1343  0.6810 -1.0161
43992SOL     OW36532  10.690   1.045   9.133 -0.5267 -0.3205 -0.2658
43992SOL    HW136533  10.703   1.028   9.040  0.3529 -1.8956  0.1092
43992SOL    HW236534  10.596   1.053   9.144 -0.5738  1.1585 -1.4691
43993SOL     OW36535   9.940   2.731   0.316  0.0848  0.3411 -0.6487
43993SOL    HW136536   9.940   2.641   0.350 -0.3934 -0.0476 -1.6437
43993SOL    HW236537  10.004   2.777   0.371 -1.6586  0.1384  1.7223
43994SOL     OW36538   8.007   8.585   1.180 -0.2482 -0.2410  0.1532
43994SOL    HW136539   8.001   8.582   1.275 -0.9326 -0.1269  0.1136
43994SOL    HW236540   7.920   8.561   1.149  0.3230 -1.5911 -0.4691
43995SOL     OW36541  10.747   4.117   5.731  0.6824  0.3402 -0.4103
43995SOL    HW136542  10.819   4.163   5.772  0.5000  0.5013 -0.2688
43995SOL    HW236543  10.669   4.164   5.759  0.4504 -0.3563  0.1625
43996SOL     OW36544   6.172   1.720   3.814 -0.2976 -0.1851  0.0017
43996SOL    HW136545   6.230   1.658   3.770  1.0135  2.1429 -1.8245
43996SOL    HW236546   6.197   1.715   3.906  0.1457 -1.8891 -0.1701
43997SOL     OW36547   1.156   2.303   2.136 -0.1739 -0.4476  0.5553
43997SOL    HW136548   1.082   2.297   2.076 -1.1579  0.3830  1.6480
43997SOL    HW236549   1.227   2.256   2.091 -1.2298 -0.9165 -0.6854
43998SOL     OW36550   5.298   9.370   5.839 -0.1993  0.3403  0.1386
43998SOL    HW136551   5.310   9.461   5.811 -2.0771  0.9708  1.1479
43998SOL    HW236552   5.382   9.345   5.877  0.3324  1.6848 -0.0808
43999SOL     OW36553   1.008   1.086   0.904 -0.0806 -0.6812  0.4170
43999SOL    HW136554   1.082   1.092   0.843  2.1823  0.5097  3.0481
43999SOL    HW236555   0.984   0.993   0.904  1.5567 -1.1428 -0.3649
44000SOL     OW36556   4.748   4.452   9.025 -0.1904  0.8468  0.2152
44000SOL    HW136557   4.741   4.536   9.069 -0.9968  1.2315 -0.6010
44000SOL    HW236558   4.673   4.402   9.055 -0.7533  1.1157 -0.6946
44001SOL     OW36559   8.874   5.580   3.271  0.0852  0.3085  0.6722
44001SOL    HW136560   8.834   5.512   3.325  0.2699 -0.4568 -0.1440
44001SOL    HW236561   8.950   5.609   3.321 -1.2550  1.5583  2.1023
44002SOL     OW36562   2.944   0.895   2.822 -0.0004 -0.3741  0.5029
44002SOL    HW136563   3.026   0.915   2.868 -1.4991  0.8485  2.8393
44002SOL    HW236564   2.935   0.800   2.829  1.4104 -0.6058 -0.2573
44003SOL     OW36565  10.181   8.245   7.837  0.5233  0.0136 -0.1646
44003SOL    HW136566  10.123   8.319   7.853 -1.0654 -0.9188 -1.2531
44003SOL    HW236567  10.198   8.247   7.743  2.9745  0.7071  0.2212
44004SOL     OW36568   8.702   4.844   9.520  0.1089  0.1014 -0.9696
44004SOL    HW136569   8.731   4.756   9.499  1.2168  0.1898  0.0280
44004SOL    HW236570   8.776   4.882   9.568 -1.5223  0.4913  1.3788
44005SOL     OW36571   5.320   1.601   6.509 -0.0122  0.0395 -0.0632
44005SOL    HW136572   5.278   1.646   6.436  0.2186  0.4673  0.0628
44005SOL    HW236573   5.311   1.508   6.488  0.1189  0.1578 -0.6748
44006SOL     OW36574   4.622   1.075   4.320  0.0150  0.0242 -0.2622
44006SOL    HW136575   4.562   1.078   4.246  1.2523  1.7116 -1.2830
44006SOL    HW236576   4.569   1.101   4.395 -0.9886 -0.5149 -0.7711
44007SOL     OW36577   8.381  11.833   3.667  0.2373  0.5259  0.4503
44007SOL    HW136578   8.458  11.777   3.682 -0.5932 -0.6095  0.6182
44007SOL    HW236579   8.317  11.803   3.731 -1.0994  0.0047 -1.0755
44008SOL     OW36580  10.887   3.194   6.143  0.0510 -0.2234 -0.2939
44008SOL    HW136581  10.799   3.158   6.126 -0.1141 -0.7303  1.3828
44008SOL    HW236582  10.945   3.118   6.136  0.0593 -0.3152  0.6037
44009SOL     OW36583   8.952   5.328   0.600 -0.1518  0.1534  0.2005
44009SOL    HW136584   8.900   5.317   0.520  1.9476 -0.4597 -1.1587
44009SOL    HW236585   8.895   5.295   0.670 -1.3111 -1.1689 -1.2841
44010SOL     OW36586   4.305   9.628   9.892  0.0176  0.1301  0.3326
44010SOL    HW136587   4.347   9.543   9.882 -1.0632 -0.4384  0.4239
44010SOL    HW236588   4.354   9.686   9.834  0.1630 -0.7879 -0.4940
44011SOL     OW36589   7.230  12.057   1.720  0.4136  0.8335  0.6737
44011SOL    HW136590   7.248  12.104   1.801  1.1473 -0.7178  1.4735
44011SOL    HW236591   7.292  11.983   1.721 -0.3936  0.0836 -0.6983
44012SOL     OW36592   8.734   6.477  11.872  0.4390  0.4314  1.1251
44012SOL    HW136593   8.763   6.423  11.799 -0.8197  1.1831  0.0190
44012SOL    HW236594   8.691   6.415  11.932 -0.7078  0.1158  0.0287
44013SOL     OW36595   3.196   2.246   5.941 -0.6459 -0.1053  0.4857
44013SOL    HW136596   3.117   2.252   5.888 -0.1768 -0.0379 -0.2256
44013SOL    HW236597   3.184   2.309   6.011  0.2443  2.5451 -1.5924
44014SOL     OW36598   1.906   9.766   6.852 -0.4417  0.1358  0.5597
44014SOL    HW136599   1.951   9.837   6.807  0.1462 -1.7014 -1.9770
44014SOL    HW236600   1.844   9.732   6.788 -2.4853 -0.1325  2.5483
44015SOL     OW36601   8.645   9.791   4.417  0.0994 -0.0410  0.1242
44015SOL    HW136602   8.623   9.721   4.355  1.5022 -0.0480 -0.4031
44015SOL    HW236603   8.726   9.761   4.458 -0.8159 -0.0537  2.0304
44016SOL     OW36604   6.669  11.099   6.245 -0.4245  0.2695 -0.0297
44016SOL    HW136605   6.675  11.177   6.189 -0.7728 -1.1210 -2.1308
44016SOL    HW236606   6.585  11.109   6.290  0.2534  1.8380  0.9605
44017SOL     OW36607   9.920   6.141   3.972 -0.0235  0.7277 -0.4362
44017SOL    HW136608   9.969   6.219   3.998 -1.7269  1.5241  0.5930
44017SOL    HW236609   9.938   6.130   3.879  1.7036  1.2478 -0.1816
44018SOL     OW36610   0.606   0.236   3.387  0.3627 -0.1756  0.2851
44018SOL    HW136611   0.661   0.164   3.356  0.7799 -0.2099  1.0688
44018SOL    HW236612   0.653   0.315   3.363  0.9972 -0.2096  1.3323
44019SOL     OW36613   9.982   8.228  11.286  0.1517 -0.4957  0.8936
44019SOL    HW136614   9.955   8.142  11.317 -0.0300 -0.3464  1.1615
44019SOL    HW236615  10.052   8.211  11.223 -0.2677 -0.8627  0.5256
44020SOL     OW36616   5.672   1.310   7.230 -0.4561  0.2697 -0.4964
44020SOL    HW136617   5.703   1.332   7.318 -2.2286 -0.6933  0.4198
44020SOL    HW236618   5.745   1.334   7.172  1.7703 -1.4355  1.4422
44021SOL     OW36619   3.225   0.800   5.201 -0.0564  0.3085 -0.6651
44021SOL    HW136620   3.150   0.764   5.250  0.8502  0.3262  0.7978
44021SOL    HW236621   3.301   0.776   5.254  1.0101  0.0702 -2.2600
44022SOL     OW36622   4.682   6.233   6.383 -0.8018 -0.0797  0.1755
44022SOL    HW136623   4.636   6.311   6.352  0.1454  0.8472  1.0455
44022SOL    HW236624   4.614   6.166   6.389 -1.8716  1.0081  0.5922
44023SOL     OW36625   4.101   2.256  11.028  0.0388 -0.5550  0.1470
44023SOL    HW136626   4.105   2.177  11.081  2.5203 -1.7603 -1.6322
44023SOL    HW236627   4.134   2.325  11.086  3.4911 -1.9843  0.0882
44024SOL     OW36628   4.127   5.764   8.732 -0.1354  0.5632 -0.2150
44024SOL    HW136629   4.115   5.681   8.685 -0.2735 -0.0740  0.9025
44024SOL    HW236630   4.179   5.740   8.809  0.0990  1.5825 -0.0441
44025SOL     OW36631   7.417   6.414   1.297  0.2173  0.1916  0.2237
44025SOL    HW136632   7.497   6.362   1.303  0.4967  0.5343 -0.4381
44025SOL    HW236633   7.424   6.478   1.368  1.7726  1.8853 -1.3657
44026SOL     OW36634   9.647   1.366  10.424 -0.0832 -0.3094 -0.5047
44026SOL    HW136635   9.562   1.398  10.455 -0.3651 -1.4966 -0.0051
44026SOL    HW236636   9.640   1.370  10.329 -0.0349  1.2612 -0.4692
44027SOL     OW36637   0.666   7.030   4.364 -0.3558  0.3515 -0.1426
44027SOL    HW136638   0.728   7.045   4.435  0.6180 -0.8656 -0.7020
44027SOL    HW236639   0.695   7.088   4.294 -1.2180  1.4283  0.3452
44028SOL     OW36640  11.754   3.723   6.114 -0.2065  0.0021  0.1564
44028SOL    HW136641  11.676   3.701   6.063 -0.9128  1.3821  0.5942
44028SOL    HW236642  11.754   3.819   6.119  1.1279  0.0002  0.7758
44029SOL     OW36643   0.901  11.382  10.255 -0.0008 -0.7012  0.2310
44029SOL    HW136644   0.867  11.293  10.261 -2.6654  0.2056 -0.0873
44029SOL    HW236645   0.940  11.386  10.167 -1.9504 -0.9662 -0.7154
44030SOL     OW36646   8.170   0.136   3.705 -0.2169 -0.3708 -0.2230
44030SOL    HW136647   8.230   0.123   3.779  0.6046 -1.2233 -1.0228
44030SOL    HW236648   8.199   0.074   3.639 -2.5935 -1.5314 -0.2880
44031SOL     OW36649   0.411   8.580   3.652 -0.6048  0.4488  0.0851
44031SOL    HW136650   0.460   8.571   3.734 -0.3683  1.6456  0.0976
44031SOL    HW236651   0.463   8.641   3.600 -1.3656  0.6248 -0.4782
44032SOL     OW36652   8.742   3.892   7.396  0.2043  0.1839 -0.0466
44032SOL    HW136653   8.835   3.879   7.412  0.1683  0.4074  0.3362
44032SOL    HW236654   8.726   3.983   7.418 -0.0425  0.2348 -0.4190
44033SOL     OW36655   2.920  11.213   7.489 -0.3373 -0.1615  0.6028
44033SOL    HW136656   3.014  11.228   7.501 -0.4086  0.2868  0.5991
44033SOL    HW236657   2.880  11.248   7.569 -0.6276  0.9087 -0.0032
44034SOL     OW36658  10.678   8.492   7.322 -0.4334 -0.0009 -0.2461
44034SOL    HW136659  10.634   8.408   7.311  0.8519 -0.6093 -0.9807
44034SOL    HW236660  10.770   8.470   7.337 -0.4929  1.1886  2.5067
44035SOL     OW36661   0.042   5.432   7.094 -0.6441 -0.3703 -0.2347
44035SOL    HW136662   0.080   5.448   7.007 -0.1058 -0.8634 -0.0996
44035SOL    HW236663   0.115   5.398   7.145 -1.0043 -0.2507  0.3657
44036SOL     OW36664   4.291   7.482   5.723 -0.5965 -0.0487 -0.8308
44036SOL    HW136665   4.276   7.573   5.697 -2.1204 -0.1157 -0.3067
44036SOL    HW236666   4.204   7.442   5.721  0.1410 -1.7061 -1.7721
44037SOL     OW36667  10.257   5.447  11.786  0.6496 -0.6850  0.0436
44037SOL    HW136668  10.321   5.380  11.811 -0.1740 -0.8521  1.8730
44037SOL    HW236669  10.176   5.418  11.827 -0.1664  0.4875 -0.6951
44038SOL     OW36670  10.201   6.442  10.246 -0.9422 -0.1017  0.3435
44038SOL    HW136671  10.112   6.460  10.275 -0.3185 -0.7116  2.8869
44038SOL    HW236672  10.248   6.524  10.261 -1.2232  0.5620 -1.9860
44039SOL     OW36673   1.007  10.237   9.145 -0.1405  0.5851 -0.1017
44039SOL    HW136674   1.023  10.161   9.088  3.4114  0.3338  0.9523
44039SOL    HW236675   0.968  10.200   9.224  0.4338  0.0044 -0.0800
44040SOL     OW36676  10.572  11.288   9.686 -0.7835 -0.4822  0.2107
44040SOL    HW136677  10.577  11.244   9.771 -0.6303 -0.1792  0.3582
44040SOL    HW236678  10.661  11.282   9.651 -0.3607  1.0671  0.9178
44041SOL     OW36679  11.857   8.502   2.456  0.0362 -0.6370 -0.5274
44041SOL    HW136680  11.771   8.499   2.414  0.4795  0.3229 -1.5568
44041SOL    HW236681  11.837   8.519   2.548 -0.8907 -0.9726 -0.6494
44042SOL     OW36682   8.046  10.881   6.355  0.4882 -0.0513  0.7308
44042SOL    HW136683   8.107  10.896   6.283  0.1783 -0.7061  0.3320
44042SOL    HW236684   8.102  10.870   6.432  0.8225  0.5472  0.5802
44043SOL     OW36685   3.625   0.092  11.128  0.7397 -0.2383 -0.6196
44043SOL    HW136686   3.712   0.057  11.143  0.9474  0.4491 -0.1945
44043SOL    HW236687   3.633   0.145  11.049  0.3959 -1.2047 -1.3357
44044SOL     OW36688   4.707   4.948   9.999 -0.4607 -0.1600  0.4057
44044SOL    HW136689   4.783   4.909  10.043  1.1628  0.8403 -1.3098
44044SOL    HW236690   4.670   4.877   9.946  1.8751  0.1907 -1.9398
44045SOL     OW36691   5.341  11.651   0.966  0.0863  0.3592 -0.6696
44045SOL    HW136692   5.258  11.618   0.999  1.1919 -3.5072 -1.2537
44045SOL    HW236693   5.404  11.635   1.036  0.8212  0.6801 -1.2272
44046SOL     OW36694   8.812   4.365  11.128  0.0264  0.0580  0.1657
44046SOL    HW136695   8.731   4.417  11.127  1.1270  1.8510 -1.3714
44046SOL    HW236696   8.810   4.315  11.046  0.5109  0.1592  0.0913
44047SOL     OW36697   6.896   4.901   6.091  0.8211  0.7514 -0.1047
44047SOL    HW136698   6.864   4.899   6.001 -0.0399 -1.3476  0.1794
44047SOL    HW236699   6.820   4.876   6.144  2.1350 -1.5940  0.8476
44048SOL     OW36700   9.592  10.511   1.050  0.1486  0.3289  0.0867
44048SOL    HW136701   9.524  10.533   1.114 -0.9321 -0.2886 -0.8090
44048SOL    HW236702   9.562  10.550   0.969 -0.1470 -1.5487 -0.7761
44049SOL     OW36703  11.568   1.439  10.165  0.3082  0.4936  0.0493
44049SOL    HW136704  11.485   1.459  10.123 -0.7599 -1.4599  1.0787
44049SOL    HW236705  11.571   1.343  10.168  1.5226  0.5367  2.0807
44050SOL     OW36706   3.231   2.699  10.992 -0.2786 -0.3250  0.0079
44050SOL    HW136707   3.323   2.681  10.970 -0.3161  0.6528 -1.0381
44050SOL    HW236708   3.236   2.760  11.066 -0.0468  0.5885 -0.7403
44051SOL     OW36709  11.602   6.502   4.974  0.0144 -0.4776  0.0589
44051SOL    HW136710  11.590   6.407   4.977  0.5829 -0.6707 -2.2116
44051SOL    HW236711  11.652   6.518   4.894 -1.8281  1.9114 -0.7273
44052SOL     OW36712   7.630   6.138   2.641 -0.2818  0.5497  0.1634
44052SOL    HW136713   7.604   6.119   2.731 -0.1692 -0.2735  0.0237
44052SOL    HW236714   7.601   6.229   2.627 -3.5322 -0.4011 -0.1393
44053SOL     OW36715   5.573   1.442   3.386 -0.2007  0.1222  0.0782
44053SOL    HW136716   5.491   1.404   3.355 -2.1180  1.7811  2.6763
44053SOL    HW236717   5.640   1.378   3.360 -2.1028 -0.8656 -2.9632
44054SOL     OW36718  11.966   0.613   3.000  0.1421 -0.2029 -0.2016
44054SOL    HW136719  11.953   0.705   2.977  1.6644  0.0294 -0.2519
44054SOL    HW236720  12.060   0.599   2.991 -0.2738 -2.3075 -2.1718
44055SOL     OW36721   2.161  10.147   7.297 -0.0340 -0.0733  0.0786
44055SOL    HW136722   2.159  10.077   7.363  2.8805  0.0943  0.4977
44055SOL    HW236723   2.200  10.105   7.220  0.0881  0.6521 -0.2563
44056SOL     OW36724   5.217  11.608   5.037 -0.3877 -0.3552  0.0223
44056SOL    HW136725   5.277  11.538   5.012 -1.8422 -1.6036 -0.1208
44056SOL    HW236726   5.223  11.612   5.132  0.4601  0.0508 -0.0398
44057SOL     OW36727   7.973   0.163   6.151 -0.3777 -0.1662  0.2090
44057SOL    HW136728   8.057   0.147   6.194 -0.4275 -0.2969  0.2565
44057SOL    HW236729   7.920   0.086   6.170 -1.1198  0.6495  1.6354
44058SOL     OW36730   5.640  11.235   9.402  0.0259 -0.4852 -0.1039
44058SOL    HW136731   5.658  11.210   9.311 -0.4062 -0.5777 -0.1626
44058SOL    HW236732   5.562  11.185   9.426  0.2763 -0.6381  0.3961
44059SOL     OW36733   3.634   0.765   8.812  0.3453  0.0413 -0.0843
44059SOL    HW136734   3.544   0.739   8.835 -0.1901  0.7231 -1.3457
44059SOL    HW236735   3.624   0.824   8.738  1.7611  1.2804  0.6654
44060SOL     OW36736   9.155   5.652   3.382 -0.7106 -0.0749 -0.1031
44060SOL    HW136737   9.240   5.612   3.401 -1.1577 -0.7050  0.6268
44060SOL    HW236738   9.172   5.746   3.385  0.0096 -0.1970 -0.1978
44061SOL     OW36739   4.131   8.234   5.244  0.6855  0.2877  0.3732
44061SOL    HW136740   4.197   8.240   5.312  0.9198  0.4729  0.1291
44061SOL    HW236741   4.112   8.325   5.219  1.0079  0.2047 -0.1988
44062SOL     OW36742   0.080   9.274   7.773 -0.1966  0.4585  0.3674
44062SOL    HW136743   0.175   9.284   7.782 -0.0063 -0.1866 -0.7717
44062SOL    HW236744   0.068   9.185   7.742 -1.1304  0.7857 -0.2548
44063SOL     OW36745   6.370   7.600   1.907  0.4210 -0.2469  0.0022
44063SOL    HW136746   6.325   7.685   1.908  2.3740  0.8549  1.8140
44063SOL    HW236747   6.350   7.562   1.993  1.8352 -0.3264  0.3146
44064SOL     OW36748   2.582   8.789   2.108 -0.3839  0.3737 -0.2560
44064SOL    HW136749   2.598   8.882   2.125  0.0096  0.1905  0.3995
44064SOL    HW236750   2.654   8.744   2.152 -0.6639 -0.2552 -0.4332
44065SOL     OW36751   2.694  11.929   3.918 -0.3992  0.0623  0.1154
44065SOL    HW136752   2.788  11.936   3.938  0.0394 -0.5842 -1.4610
44065SOL    HW236753   2.653  11.905   4.001  0.5582  2.1160  1.2552
44066SOL     OW36754   4.746  11.715   1.213 -0.1611 -0.1598 -0.0459
44066SOL    HW136755   4.837  11.696   1.236 -0.5900 -1.0479  1.0106
44066SOL    HW236756   4.695  11.656   1.268 -1.3227 -1.9823 -2.7962
44067SOL     OW36757   6.915   5.940   6.365  0.3490  0.7199  0.3371
44067SOL    HW136758   6.983   6.003   6.343 -0.2248  0.6875 -1.6832
44067SOL    HW236759   6.833   5.985   6.344 -0.0657 -0.7079 -1.2907
44068SOL     OW36760   3.541   2.123   4.496 -0.1110 -0.7453 -0.3682
44068SOL    HW136761   3.505   2.141   4.583  1.1953 -0.0294  0.0677
44068SOL    HW236762   3.633   2.150   4.503 -0.0220 -0.5140 -2.0239
44069SOL     OW36763   8.713   2.774   3.967 -0.2993 -0.3336  0.0766
44069SOL    HW136764   8.724   2.825   4.047 -1.9876 -0.7969  0.6326
44069SOL    HW236765   8.657   2.701   3.991 -1.4645 -0.0873 -1.6800
44070SOL     OW36766  11.785   7.707   5.286 -0.0642  0.0476  0.0899
44070SOL    HW136767  11.698   7.747   5.294  0.5353  1.2043  1.2124
44070SOL    HW236768  11.826   7.722   5.372  1.4114 -0.0640 -0.5725
44071SOL     OW36769   5.428   0.396   5.268 -0.3059  0.3420  0.2977
44071SOL    HW136770   5.406   0.311   5.230 -1.6911 -0.0602  1.8973
44071SOL    HW236771   5.372   0.458   5.222  2.4794  0.9096 -2.7058
44072SOL     OW36772  10.520   0.502   0.832  0.3512  0.1912  0.6185
44072SOL    HW136773  10.572   0.557   0.774  0.3401  0.4317  0.8351
44072SOL    HW236774  10.540   0.412   0.804  1.4896  0.2400  1.1844
44073SOL     OW36775   7.147   4.053   8.399 -0.1759  0.9471  0.1551
44073SOL    HW136776   7.181   4.140   8.420 -0.0326  1.1523 -0.8887
44073SOL    HW236777   7.204   4.020   8.330 -1.7320  1.0930 -1.2802
44074SOL     OW36778   2.283  10.385   3.630 -0.0834  0.4350 -0.2235
44074SOL    HW136779   2.316  10.439   3.557  0.2422  0.9672  0.3063
44074SOL    HW236780   2.332  10.303   3.623  2.4077  1.6539  1.3063
44075SOL     OW36781   2.929   7.132   3.428  0.4945 -0.7998  0.1906
44075SOL    HW136782   3.019   7.116   3.456  0.8071  1.4516  0.6517
44075SOL    HW236783   2.908   7.219   3.462 -1.8590 -1.2386  0.0704
44076SOL     OW36784   5.655   0.934   6.592 -0.4543  0.2300  0.2718
44076SOL    HW136785   5.587   0.981   6.640 -0.7756  0.3624 -0.2971
44076SOL    HW236786   5.715   1.003   6.562 -0.3851  0.1746  0.2831
44077SOL     OW36787   5.471   0.072   4.454 -0.1847 -0.8390 -0.4555
44077SOL    HW136788   5.415   0.149   4.445  1.0894  0.1267 -0.4029
44077SOL    HW236789   5.514   0.063   4.370  1.3857 -0.1058  0.2430
44078SOL     OW36790   4.093   7.726   8.856 -0.0230 -0.2748 -0.2740
44078SOL    HW136791   4.154   7.725   8.783  2.3460 -1.0985  1.5993
44078SOL    HW236792   4.074   7.819   8.870 -0.0265 -0.0779 -1.5329
44079SOL     OW36793   2.628   7.406   7.137  0.1828 -0.6307 -0.1287
44079SOL    HW136794   2.709   7.426   7.184  0.0989 -0.3661 -0.0942
44079SOL    HW236795   2.558   7.433   7.196  0.0726 -0.6223 -0.2624
44080SOL     OW36796   7.004   5.953  11.085 -0.1637 -0.5669  0.1869
44080SOL    HW136797   6.965   5.960  11.172 -0.7701  0.5852 -0.1527
44080SOL    HW236798   7.047   5.867  11.084 -1.6315 -1.3534  1.0137
44081SOL     OW36799   0.731   5.668   2.751  0.1247  0.1540  0.0443
44081SOL    HW136800   0.796   5.599   2.762  2.2023  1.7918 -1.1069
44081SOL    HW236801   0.776   5.748   2.780 -1.7537  1.2112  0.1621
44082SOL     OW36802   8.876   7.463   4.042 -0.2969  0.1418 -0.5985
44082SOL    HW136803   8.943   7.395   4.048  0.5741  0.9638 -0.6971
44082SOL    HW236804   8.795   7.419   4.064  0.0548 -1.2263 -1.8438
44083SOL     OW36805   8.047   1.371  10.946  0.6058 -0.2171 -0.3632
44083SOL    HW136806   8.079   1.421  11.022 -0.2594 -1.0099  0.5434
44083SOL    HW236807   7.974   1.423  10.913  1.5542  0.6091 -1.2654
44084SOL     OW36808   3.938   1.813  12.095 -0.0206 -0.3414 -0.2650
44084SOL    HW136809   4.009   1.876  12.087  0.3159 -0.8750 -1.9250
44084SOL    HW236810   3.865   1.852  12.048  0.2578 -1.2331 -1.4969
44085SOL     OW36811   9.215   0.606   3.290 -0.6216  0.4583 -0.1084
44085SOL    HW136812   9.215   0.700   3.277 -0.6160  0.2429 -1.8795
44085SOL    HW236813   9.303   0.578   3.262 -0.5767 -0.0690  0.5219
44086SOL     OW36814   9.082  10.495   5.782 -0.4348  0.3407  0.1434
44086SOL    HW136815   9.160  10.551   5.782 -0.2615  0.1512  1.8843
44086SOL    HW236816   9.023  10.535   5.846 -0.7585 -0.8190  0.6148
44087SOL     OW36817   3.356   9.934   8.561 -0.2405  0.6644 -0.3049
44087SOL    HW136818   3.401   9.940   8.476 -0.4453  0.6581 -0.4145
44087SOL    HW236819   3.314   9.848   8.560 -0.4909  0.7868 -0.3220
44088SOL     OW36820  11.201   1.539   7.063 -0.7150  0.5342  0.3957
44088SOL    HW136821  11.175   1.469   7.003 -1.5087  1.9600 -0.9879
44088SOL    HW236822  11.170   1.510   7.149  1.7366 -2.2475  0.5029
44089SOL     OW36823   0.199   2.822  11.814  0.4784 -0.1608  0.6985
44089SOL    HW136824   0.147   2.898  11.839  2.0724  0.8808  0.9672
44089SOL    HW236825   0.136   2.749  11.814 -0.8349  0.9247  1.5985
44090SOL     OW36826   9.314   9.995   5.227 -0.5727 -0.0206  0.3016
44090SOL    HW136827   9.392  10.050   5.238 -0.6583  0.0428  0.5863
44090SOL    HW236828   9.309   9.944   5.307 -0.4311 -0.5302 -0.0096
44091SOL     OW36829   4.222   8.707   2.889 -0.5347 -0.1304  0.2302
44091SOL    HW136830   4.312   8.692   2.861 -0.3443  0.3084  0.6117
44091SOL    HW236831   4.216   8.802   2.903 -1.1557 -0.1071 -0.1461
44092SOL     OW36832  11.866   5.382  10.637  0.1377 -0.6722 -0.2053
44092SOL    HW136833  11.923   5.368  10.713  1.1658 -1.4590 -1.1035
44092SOL    HW236834  11.892   5.315  10.574 -1.3204 -0.6054 -0.9155
44093SOL     OW36835   9.319  11.597  11.809  0.0570 -0.2973  0.2848
44093SOL    HW136836   9.384  11.662  11.783 -0.1651  0.0033  0.4761
44093SOL    HW236837   9.285  11.563  11.726  0.2968 -0.2974  0.1839
44094SOL     OW36838   2.738   0.124   1.817 -0.2022 -0.8019  0.3175
44094SOL    HW136839   2.798   0.195   1.839 -2.0456  1.5472 -1.6903
44094SOL    HW236840   2.776   0.084   1.738 -0.5505 -0.2363 -0.1399
44095SOL     OW36841   2.206   8.851   5.956 -0.4625 -0.7221 -0.2031
44095SOL    HW136842   2.117   8.883   5.971 -0.5041 -0.5667 -0.7558
44095SOL    HW236843   2.194   8.765   5.917 -0.4578  0.3763 -2.8554
44096SOL     OW36844   2.397   2.750   6.016  0.5871 -0.1011 -0.1914
44096SOL    HW136845   2.417   2.686   5.947  0.0711 -2.2142  1.5315
44096SOL    HW236846   2.309   2.780   5.996  0.6519 -0.2641 -0.7497
44097SOL     OW36847   7.849   0.460   0.416  0.5348  0.0046  0.5606
44097SOL    HW136848   7.761   0.456   0.454 -0.6043  0.5965 -1.8721
44097SOL    HW236849   7.846   0.534   0.355  2.7844  0.1316  0.5089
44098SOL     OW36850   9.628  11.375   6.837  0.3444 -0.4331  0.5914
44098SOL    HW136851   9.618  11.470   6.829  0.2721 -0.5943 -2.8496
44098SOL    HW236852   9.722  11.359   6.828  0.2565 -0.7053  0.0777
44099SOL     OW36853   0.280   5.663   8.999  0.0609 -0.6129 -0.0431
44099SOL    HW136854   0.219   5.719   8.950  0.6314 -0.0506 -0.1239
44099SOL    HW236855   0.227   5.628   9.071 -0.0260  0.9533  0.6970
44100SOL     OW36856   4.316  10.026  10.536  0.2265  0.7039  0.2713
44100SOL    HW136857   4.383  10.093  10.552  1.1310 -0.3117  0.9129
44100SOL    HW236858   4.294   9.993  10.624  0.5484 -0.5279 -0.0929
44101SOL     OW36859   1.223  10.671   1.671 -0.7120 -0.0765  0.4359
44101SOL    HW136860   1.315  10.652   1.655 -0.0914  1.3432  2.0417
44101SOL    HW236861   1.183  10.585   1.686  0.4181 -0.6764  0.0859
44102SOL     OW36862   9.453   2.938   7.898  0.6289  0.2603 -0.5073
44102SOL    HW136863   9.490   3.025   7.882 -0.6534  0.8468 -0.3500
44102SOL    HW236864   9.503   2.905   7.972  0.5788  1.2129 -0.0315
44103SOL     OW36865   7.542  10.933   2.744 -0.7072 -0.2692 -0.2953
44103SOL    HW136866   7.594  11.012   2.752  0.0962 -0.9469  1.7597
44103SOL    HW236867   7.451  10.963   2.749 -0.4413  0.5914 -0.4978
44104SOL     OW36868  10.269   2.323   4.975  0.1677  0.4806 -0.0845
44104SOL    HW136869  10.316   2.283   5.048 -1.6652 -0.8680  0.4132
44104SOL    HW236870  10.318   2.295   4.897  0.0960 -1.0696  0.3919
44105SOL     OW36871   9.291   7.329   7.484 -0.5507  0.2028  0.6626
44105SOL    HW136872   9.241   7.251   7.458 -1.4399  0.8446  0.3907
44105SOL    HW236873   9.318   7.368   7.401  0.2489 -0.0341  0.8071
44106SOL     OW36874   7.856   3.456  11.732  0.1841 -0.0555 -0.5653
44106SOL    HW136875   7.911   3.410  11.669 -0.7354  1.6362 -2.7277
44106SOL    HW236876   7.778   3.480  11.682 -0.5764  1.4024  1.2095
44107SOL     OW36877  10.870   0.437   4.237  0.3462  0.3591  0.3177
44107SOL    HW136878  10.847   0.416   4.328  1.1925 -0.4042  0.3737
44107SOL    HW236879  10.885   0.351   4.196 -2.3357  0.4937 -1.2120
44108SOL     OW36880  11.337   7.465   9.827  0.2502  0.2864  0.2458
44108SOL    HW136881  11.312   7.380   9.864  2.5506 -0.4256  0.2893
44108SOL    HW236882  11.296   7.529   9.886 -2.3403 -0.7074 -0.3419
44109SOL     OW36883  11.343   0.376   9.164  0.1751  0.1503 -0.6149
44109SOL    HW136884  11.298   0.295   9.190  0.4934 -0.1297 -0.9245
44109SOL    HW236885  11.296   0.405   9.086 -1.1224  1.2792  0.5377
44110SOL     OW36886   1.270   9.489   5.160 -0.1378 -0.2898  0.2164
44110SOL    HW136887   1.339   9.482   5.095 -1.8274 -1.7174 -1.5509
44110SOL    HW236888   1.269   9.403   5.203 -0.2993 -0.0085  0.7929
44111SOL     OW36889   9.651  11.811  11.123 -0.4765  0.4614  0.0985
44111SOL    HW136890   9.692  11.891  11.088 -0.5320  1.0110  1.2282
44111SOL    HW236891   9.720  11.745  11.117 -0.3167  0.6772 -0.5386
44112SOL     OW36892   6.233   4.369   8.572  0.9927 -0.1361 -0.4534
44112SOL    HW136893   6.254   4.366   8.479  0.4826  1.3577 -0.6473
44112SOL    HW236894   6.146   4.409   8.576  0.2595 -1.7413  0.5901
44113SOL     OW36895   7.126   1.902   9.261  0.2858 -0.1024 -0.0989
44113SOL    HW136896   7.126   1.814   9.225 -1.1584  0.2406 -1.0566
44113SOL    HW236897   7.169   1.894   9.346  1.4778 -1.4346 -0.7872
44114SOL     OW36898   9.428   3.455   7.023  0.2987 -0.0375 -0.0525
44114SOL    HW136899   9.484   3.473   7.098 -0.2763  0.5360  0.2488
44114SOL    HW236900   9.341   3.439   7.061  0.4198 -1.8429 -0.4332
44115SOL     OW36901   2.152  11.140   3.812  0.4132  0.0497 -0.2272
44115SOL    HW136902   2.072  11.114   3.767  0.4449  0.1690 -0.3558
44115SOL    HW236903   2.167  11.072   3.878  1.0123 -0.7677 -1.1813
44116SOL     OW36904   2.701  11.957   9.791 -0.2172  0.4759 -0.1193
44116SOL    HW136905   2.647  11.937   9.715  2.2079 -0.2521 -1.7410
44116SOL    HW236906   2.651  12.024   9.838 -2.2952  0.1579 -1.7150
44117SOL     OW36907   2.172   8.334   0.776 -0.4493  0.5447 -0.1997
44117SOL    HW136908   2.264   8.311   0.768 -0.4500  0.5188 -0.1362
44117SOL    HW236909   2.139   8.278   0.847 -1.6551 -2.9135 -3.1724
44118SOL     OW36910   9.073   5.841   6.959 -0.0515 -0.3878 -0.2078
44118SOL    HW136911   8.986   5.881   6.959  0.2782  0.3454 -0.4519
44118SOL    HW236912   9.056   5.747   6.957 -0.8788 -0.3632  2.0428
44119SOL     OW36913   9.837   9.840   3.674  0.0610  0.2468  0.0342
44119SOL    HW136914   9.807   9.879   3.592 -1.0306 -0.7414 -0.0582
44119SOL    HW236915   9.893   9.767   3.646  2.6055  2.0338  0.2040
44120SOL     OW36916   9.511   0.209   5.965  0.0111 -0.9423 -0.0511
44120SOL    HW136917   9.486   0.198   6.057  0.5462  0.6525  0.3319
44120SOL    HW236918   9.568   0.135   5.946  0.4600 -0.9219  1.1307
44121SOL     OW36919   5.313   6.350   8.329  0.0501  0.5145  0.0991
44121SOL    HW136920   5.256   6.407   8.381 -0.5310  1.2261 -1.2735
44121SOL    HW236921   5.400   6.391   8.337  0.1380  0.1671  1.1235
44122SOL     OW36922   9.377   3.451  10.753 -0.0954  0.4972 -0.8045
44122SOL    HW136923   9.373   3.407  10.668  1.2217 -0.5165 -0.3749
44122SOL    HW236924   9.458   3.502  10.751  0.0238  0.3519 -0.1031
44123SOL     OW36925  10.345   5.168  10.910  0.7697 -0.1764  0.1357
44123SOL    HW136926  10.435   5.143  10.930  0.6968  0.4804  1.4613
44123SOL    HW236927  10.338   5.257  10.944 -0.7914 -0.7438  1.4169
44124SOL     OW36928  10.467   6.603   7.681  0.0769  0.0943 -0.3957
44124SOL    HW136929  10.479   6.695   7.706  0.6462 -0.2678  0.7445
44124SOL    HW236930  10.379   6.600   7.643  0.4540  1.2930 -1.4301
44125SOL     OW36931   6.107   9.132   7.724  0.0141 -0.4585  0.5785
44125SOL    HW136932   6.024   9.085   7.731  0.7852 -2.1144 -0.7299
44125SOL    HW236933   6.165   9.089   7.786  0.0862  0.3007  1.0509
44126SOL     OW36934   3.015   5.906   2.104 -0.0642 -0.8834  0.4016
44126SOL    HW136935   3.066   5.972   2.058 -0.6016  0.6346  1.8590
44126SOL    HW236936   3.079   5.858   2.157  0.4001 -1.9215 -1.0535
44127SOL     OW36937   9.543   7.618   8.151  0.0297  0.5150 -0.0914
44127SOL    HW136938   9.500   7.646   8.071 -1.2890 -0.2760  0.3118
44127SOL    HW236939   9.491   7.658   8.221 -1.3375 -2.0169  0.4676
44128SOL     OW36940   0.778   2.242   1.765  0.1978 -0.1593 -0.4468
44128SOL    HW136941   0.703   2.239   1.825  1.7883  0.9796  1.7582
44128SOL    HW236942   0.751   2.302   1.696 -1.5152 -1.0728 -0.6159
44129SOL     OW36943   4.624   2.325   5.513  0.0481 -0.4357  0.1104
44129SOL    HW136944   4.717   2.327   5.534  0.0349 -0.2209  0.1570
44129SOL    HW236945   4.620   2.313   5.419  0.1159 -1.0015  0.1791
44130SOL     OW36946   6.939   7.461  10.961  0.3231  0.1251  0.2562
44130SOL    HW136947   6.933   7.525  10.890  1.5814 -0.9838 -0.9298
44130SOL    HW236948   7.025   7.477  11.001  0.1925 -0.1115  0.6347
44131SOL     OW36949   9.725  10.049   3.196 -0.1850  0.2965 -0.2879
44131SOL    HW136950   9.642  10.085   3.225 -0.1352  0.1379  0.0628
44131SOL    HW236951   9.752  10.105   3.124 -0.5172  0.4452 -0.2982
44132SOL     OW36952   0.879   5.473   7.369 -0.0864  0.8470 -0.1897
44132SOL    HW136953   0.828   5.414   7.424 -0.6504  2.1090  0.6804
44132SOL    HW236954   0.970   5.447   7.382 -0.4357 -2.2251 -2.6685
44133SOL     OW36955   4.822   2.228   2.913  0.1882 -0.5013  0.1064
44133SOL    HW136956   4.880   2.297   2.882 -0.3978  0.1967  0.5113
44133SOL    HW236957   4.736   2.271   2.921 -0.2067 -1.3010  0.2700
44134SOL     OW36958   9.431   0.216   4.734  0.6934  0.8293  0.3835
44134SOL    HW136959   9.441   0.272   4.657  0.4629  1.8947  1.1091
44134SOL    HW236960   9.507   0.235   4.788  0.7957  0.1705  0.4871
44135SOL     OW36961   7.174   6.793  11.041 -0.0426  0.9340 -0.8507
44135SOL    HW136962   7.124   6.875  11.045 -1.6523  0.0621 -1.7561
44135SOL    HW236963   7.202   6.787  10.950 -2.3382 -0.7848 -1.5388
44136SOL     OW36964   7.642   1.868   6.700  0.4095 -0.5280  0.0738
44136SOL    HW136965   7.733   1.852   6.724  1.1469  1.9587 -0.7450
44136SOL    HW236966   7.647   1.927   6.625 -1.8805 -0.1983  0.1090
44137SOL     OW36967   1.391   0.947   5.923 -0.0458 -0.1620  0.3039
44137SOL    HW136968   1.403   1.024   5.978  0.8913 -1.7597  2.5027
44137SOL    HW236969   1.323   0.896   5.966 -1.6855  0.0228 -1.8936
44138SOL     OW36970   8.065   2.915   5.092  0.3724  0.2466  0.5645
44138SOL    HW136971   8.062   3.010   5.077 -0.5361  0.1853  0.2596
44138SOL    HW236972   8.037   2.877   5.009  1.1667 -0.3068  0.5469
44139SOL     OW36973   4.821   6.497   4.669  0.5408 -0.3678 -0.3820
44139SOL    HW136974   4.784   6.553   4.600  2.6453  0.8408 -0.6203
44139SOL    HW236975   4.870   6.557   4.725 -0.1203 -1.5152  1.5228
44140SOL     OW36976   5.467   4.291   9.210 -0.5893  0.1156 -0.1854
44140SOL    HW136977   5.445   4.199   9.193 -1.5715  0.3135 -0.0849
44140SOL    HW236978   5.561   4.291   9.228 -0.1241 -0.5822 -2.2804
44141SOL     OW36979   2.943  11.468   7.869 -0.2395 -0.2603  0.3775
44141SOL    HW136980   2.910  11.555   7.889 -1.7482 -0.6176 -0.3972
44141SOL    HW236981   3.030  11.465   7.909  0.8298  2.3874 -1.5217
44142SOL     OW36982   2.301   7.231  11.573  0.0148  0.0124  0.1221
44142SOL    HW136983   2.308   7.202  11.482 -0.7523 -1.2250  0.4317
44142SOL    HW236984   2.244   7.166  11.615  0.1285  0.7114  1.4230
44143SOL     OW36985   8.570  11.287   8.476 -0.2580 -0.2271  0.0628
44143SOL    HW136986   8.637  11.354   8.458  0.0156 -0.5379 -0.0860
44143SOL    HW236987   8.491  11.337   8.497  0.0279  0.1452  0.2731
44144SOL     OW36988   4.000   9.252   4.885  0.1217  0.5409  0.4793
44144SOL    HW136989   4.019   9.168   4.842 -0.3798  1.4744 -1.6990
44144SOL    HW236990   3.908   9.270   4.863 -0.7800  0.2684  3.5045
44145SOL     OW36991   7.248   3.633   6.526  0.4132 -0.1227 -0.2882
44145SOL    HW136992   7.179   3.579   6.488  0.6642 -0.3197 -0.4715
44145SOL    HW236993   7.302   3.571   6.575 -0.0475  0.1694  0.5967
44146SOL     OW36994   6.536   1.872   6.327  0.6364  0.2997  0.3249
44146SOL    HW136995   6.484   1.951   6.338 -0.4372 -0.1153 -1.2865
44146SOL    HW236996   6.513   1.818   6.402  0.1710  0.9038  0.6266
44147SOL     OW36997   4.830  11.758   0.345  0.5602 -0.0578 -0.4313
44147SOL    HW136998   4.794  11.814   0.414  2.1566  0.6606 -0.1365
44147SOL    HW236999   4.755  11.739   0.288 -0.4261  0.7478  0.5561
44148SOL     OW37000   7.673  12.018   8.367 -0.0495  0.5544  0.8256
44148SOL    HW137001   7.658  12.111   8.353  0.3508  0.4143 -0.7653
44148SOL    HW237002   7.688  11.982   8.279  2.3513 -0.5581  1.5974
44149SOL     OW37003   7.786  10.998   4.788 -0.3188 -0.4709  0.1266
44149SOL    HW137004   7.701  10.973   4.822 -0.9631 -1.0486 -1.7914
44149SOL    HW237005   7.769  11.077   4.735  0.2941 -0.6712 -0.3925
44150SOL     OW37006   0.221   2.666   4.588  0.3900  0.2696 -0.5686
44150SOL    HW137007   0.266   2.592   4.549 -0.4717 -0.7966  0.3978
44150SOL    HW237008   0.249   2.666   4.679 -0.3796  0.5180 -0.3241
44151SOL     OW37009   9.026   8.179  10.393 -0.0317  0.3835  0.6392
44151SOL    HW137010   8.989   8.259  10.357  0.7765 -0.4899 -2.3928
44151SOL    HW237011   9.032   8.119  10.319  1.2895 -1.8010  2.3656
44152SOL     OW37012   3.207   3.711   4.352  0.5031 -0.4465  1.1838
44152SOL    HW137013   3.212   3.616   4.362 -0.1746 -0.4134  1.9302
44152SOL    HW237014   3.237   3.727   4.263 -0.1234 -1.4266  0.7833
44153SOL     OW37015  10.123   4.029   3.231  0.5777  0.2971 -0.4008
44153SOL    HW137016  10.091   3.938   3.236  1.4775 -0.0489 -0.7803
44153SOL    HW237017  10.164   4.044   3.316 -0.7534  0.8255  0.1818
44154SOL     OW37018   4.891   2.924   4.932 -0.0338 -0.2784  0.9421
44154SOL    HW137019   4.819   2.881   4.978 -0.0204 -0.3156  0.9282
44154SOL    HW237020   4.849   2.993   4.881 -0.5112 -2.2848 -1.6214
44155SOL     OW37021   6.524   2.775   1.268 -0.1854  0.0193  0.2979
44155SOL    HW137022   6.613   2.744   1.285  0.0448  1.1344  1.2379
44155SOL    HW237023   6.509   2.755   1.175  0.9846 -0.3144  0.1695
44156SOL     OW37024   1.603   5.941   5.310 -0.7325  0.2598  0.0591
44156SOL    HW137025   1.588   5.941   5.215  1.7163  1.7760 -0.4142
44156SOL    HW237026   1.619   6.032   5.332 -2.0630  0.0533  2.1297
44157SOL     OW37027   4.698   8.787   4.858  0.2989 -0.3489 -0.3603
44157SOL    HW137028   4.780   8.755   4.896  0.3042  1.4557  1.3342
44157SOL    HW237029   4.710   8.781   4.764  1.5620 -2.0442 -0.1209
44158SOL     OW37030   5.230  10.163   2.097 -0.0626 -0.6415  0.0576
44158SOL    HW137031   5.252  10.256   2.097  0.5319 -0.7616  1.3407
44158SOL    HW237032   5.259  10.131   2.012 -0.9156  0.4750 -0.6885
44159SOL     OW37033  10.037   6.484   2.875  0.5004  0.4607 -0.0053
44159SOL    HW137034  10.034   6.457   2.784 -1.2946  1.8612 -0.4129
44159SOL    HW237035  10.118   6.446   2.909  1.8741  0.9598 -2.4983
44160SOL     OW37036   1.706   4.055   4.240  0.3675 -0.3692 -0.4496
44160SOL    HW137037   1.687   4.118   4.309  0.9040 -1.3892  0.6790
44160SOL    HW237038   1.682   4.099   4.159 -2.1039  0.1920  0.5008
44161SOL     OW37039   5.548   2.600   5.724  0.1757 -0.6303 -0.6062
44161SOL    HW137040   5.516   2.533   5.785 -1.1629  0.0353 -0.5482
44161SOL    HW237041   5.544   2.682   5.773  2.5560 -0.5700 -0.4141
44162SOL     OW37042   7.593   8.375   2.879  0.1948  0.1508 -0.2462
44162SOL    HW137043   7.518   8.373   2.821 -0.5529  0.8189  0.6583
44162SOL    HW237044   7.587   8.294   2.931 -0.0389  0.3165 -0.0132
44163SOL     OW37045   6.044   9.871   9.083 -0.3538 -0.4275 -0.0110
44163SOL    HW137046   6.043   9.776   9.085 -0.6714 -0.4250  1.6094
44163SOL    HW237047   5.953   9.897   9.094 -0.3419  0.0753 -0.9809
44164SOL     OW37048   3.921  11.688   9.464  0.4778 -0.1711 -0.0056
44164SOL    HW137049   3.878  11.666   9.547 -0.0242 -1.7707 -0.6507
44164SOL    HW237050   3.849  11.700   9.402  0.8443  1.1611 -0.2104
44165SOL     OW37051   5.067   3.667   0.576  1.3710  0.1877 -0.8834
44165SOL    HW137052   5.097   3.688   0.664 -0.5054  1.2523 -0.4505
44165SOL    HW237053   5.083   3.573   0.566  0.3975 -0.2199  1.0960
44166SOL     OW37054   3.584   6.878   9.842  0.3512  0.7547 -0.1984
44166SOL    HW137055   3.606   6.815   9.911 -2.1360 -0.1615 -0.1345
44166SOL    HW237056   3.567   6.824   9.765 -3.7799  0.9603  0.3400
44167SOL     OW37057   9.607   0.929  10.738  0.2570 -0.1602 -0.1535
44167SOL    HW137058   9.605   0.834  10.754  0.4334 -0.5442 -2.1598
44167SOL    HW237059   9.643   0.966  10.818  0.6217 -1.8359  0.4958
44168SOL     OW37060   7.951   5.434   0.141 -0.2712 -0.1677  0.3925
44168SOL    HW137061   7.968   5.393   0.057  0.7416  0.1139  0.4495
44168SOL    HW237062   7.917   5.363   0.196 -0.4216 -0.4728 -0.0883
44169SOL     OW37063  11.360  11.429   7.794  0.5529 -0.1223  0.0704
44169SOL    HW137064  11.444  11.417   7.836  0.0559 -2.7104  0.4874
44169SOL    HW237065  11.296  11.398   7.858 -0.3628 -2.2169 -1.7399
44170SOL     OW37066   2.706   2.465  10.043 -0.0693  1.0275 -0.0588
44170SOL    HW137067   2.761   2.483   9.967 -1.6792  2.7154 -0.9222
44170SOL    HW237068   2.652   2.390  10.017  0.1247  0.9311 -0.1795
44171SOL     OW37069   5.123   4.503   8.438  0.8929 -0.4977 -0.2144
44171SOL    HW137070   5.181   4.532   8.368  0.8271 -1.6383 -0.7611
44171SOL    HW237071   5.111   4.581   8.492  0.0808  0.7206 -2.0391
44172SOL     OW37072   5.696   8.134   5.446 -0.1391  0.2717  0.1683
44172SOL    HW137073   5.706   8.080   5.524  1.1985  1.5318  0.9227
44172SOL    HW237074   5.611   8.176   5.455 -0.7031 -0.8434  0.1205
44173SOL     OW37075   1.297   5.936   1.753  0.1551 -0.2161  0.0871
44173SOL    HW137076   1.217   5.958   1.705 -0.6189 -1.0361  0.9718
44173SOL    HW237077   1.329   5.856   1.711  1.4728  0.9966 -1.3560
44174SOL     OW37078  11.447   9.493  11.297  0.4211  0.5205 -0.2796
44174SOL    HW137079  11.526   9.546  11.299 -1.2841  3.2977  0.1358
44174SOL    HW237080  11.412   9.498  11.386 -0.4535 -0.2328 -0.5573
44175SOL     OW37081   5.122   0.792   7.200 -0.3112 -0.3274  0.3260
44175SOL    HW137082   5.145   0.699   7.188  1.6638  0.2412 -0.7323
44175SOL    HW237083   5.156   0.835   7.121 -1.5520  1.2619  0.6100
44176SOL     OW37084  11.678   7.530   6.404 -0.0670 -0.1634  0.3122
44176SOL    HW137085  11.654   7.618   6.373 -0.4383 -0.7170 -1.0702
44176SOL    HW237086  11.773   7.534   6.414 -0.1674  0.6286  1.0612
44177SOL     OW37087   7.760   1.259  11.081 -0.0205 -0.0650  0.2828
44177SOL    HW137088   7.798   1.313  11.151  0.4996  0.4494 -0.3884
44177SOL    HW237089   7.680   1.224  11.119  0.1001  0.4551  1.0376
44178SOL     OW37090   7.434   2.582   9.127 -0.0444 -0.1281 -0.2319
44178SOL    HW137091   7.413   2.502   9.174 -0.9319 -0.1591 -0.6505
44178SOL    HW237092   7.480   2.637   9.190 -2.6902  0.5346  1.2514
44179SOL     OW37093  10.672   6.381   1.700 -0.0652 -0.4187  0.0719
44179SOL    HW137094  10.582   6.384   1.730 -0.2509 -2.3359 -0.1658
44179SOL    HW237095  10.698   6.289   1.711  2.0437  0.1992  0.6875
44180SOL     OW37096   9.186   4.246   0.505 -0.4788  0.6303  0.0020
44180SOL    HW137097   9.234   4.290   0.575  0.7171 -1.7133  0.7813
44180SOL    HW237098   9.116   4.199   0.550 -0.6134  0.3066 -0.5339
44181SOL     OW37099   5.272   4.547   8.834  0.0010  0.1932 -0.3691
44181SOL    HW137100   5.203   4.564   8.769  0.5395  1.3127 -0.6655
44181SOL    HW237101   5.307   4.633   8.855  1.0612 -0.3284  0.0630
44182SOL     OW37102   7.719  10.824   2.147 -0.4255  0.0836  0.0689
44182SOL    HW137103   7.683  10.823   2.058 -0.4414  0.9399  0.0613
44182SOL    HW237104   7.737  10.916   2.165  2.3843 -0.3352 -0.1610
44183SOL     OW37105   4.512   7.822   2.967 -0.4330 -0.0936  0.3642
44183SOL    HW137106   4.528   7.854   2.878 -1.0016 -1.2116 -0.1554
44183SOL    HW237107   4.448   7.883   3.003 -1.6541 -0.7130 -0.6764
44184SOL     OW37108   0.522   8.313   6.273 -0.6642 -0.3951 -0.0753
44184SOL    HW137109   0.551   8.231   6.313 -1.2813 -0.4941  0.1880
44184SOL    HW237110   0.474   8.286   6.195  1.3811 -0.1658 -1.4968
44185SOL     OW37111   3.775   6.781   3.320  0.2561 -0.1168  0.2948
44185SOL    HW137112   3.767   6.752   3.411 -1.2951 -0.3337  0.1158
44185SOL    HW237113   3.686   6.777   3.286  0.4661  1.9289 -0.6548
44186SOL     OW37114   1.779   2.711  11.441  0.0135 -0.0135 -0.1725
44186SOL    HW137115   1.781   2.648  11.369  0.7915  0.3115 -0.4412
44186SOL    HW237116   1.853   2.768  11.425 -0.9810  1.3091 -0.2098
44187SOL     OW37117  10.913   4.669   9.455 -0.6891 -0.1999  0.8880
44187SOL    HW137118  10.969   4.594   9.438  2.5237  2.5279 -2.1500
44187SOL    HW237119  10.953   4.713   9.530  0.2019  0.7741 -0.1310
44188SOL     OW37120   6.289   0.551   6.080  0.0529 -0.1366  0.1956
44188SOL    HW137121   6.268   0.466   6.117  1.4389 -1.1631 -1.2397
44188SOL    HW237122   6.213   0.574   6.026  0.2240 -1.1383 -0.4981
44189SOL     OW37123   0.772   7.481   7.090 -0.3616  0.4399  0.5098
44189SOL    HW137124   0.853   7.437   7.117  0.9926  2.6047  0.1947
44189SOL    HW237125   0.731   7.506   7.173 -0.3728 -0.0549  0.6601
44190SOL     OW37126   7.857  11.768   4.243 -0.2285 -0.7875  0.0693
44190SOL    HW137127   7.947  11.778   4.212 -0.0572  1.1747  1.0197
44190SOL    HW237128   7.840  11.848   4.292 -2.4152 -1.2426  0.1496
44191SOL     OW37129   2.046   1.274  11.575  0.7388 -0.3937  0.0819
44191SOL    HW137130   2.047   1.202  11.639 -0.0995  0.9329  1.6542
44191SOL    HW237131   1.954   1.282  11.551  0.4398  1.5549  1.6457
44192SOL     OW37132   8.503   1.817   2.882  0.3379  0.0322  0.0765
44192SOL    HW137133   8.527   1.870   2.958  2.2870 -2.6608  1.4780
44192SOL    HW237134   8.428   1.766   2.911  0.9690 -0.8655  0.1639
44193SOL     OW37135   6.469   0.318   6.858  0.2828 -0.2990  0.6838
44193SOL    HW137136   6.438   0.233   6.827  1.2357  0.0960 -1.5129
44193SOL    HW237137   6.564   0.311   6.858  0.3536  0.4043  1.6250
44194SOL     OW37138   6.100   1.033   1.428 -0.2600 -0.4445 -1.1955
44194SOL    HW137139   6.039   1.106   1.425  0.9038  0.6972  0.8762
44194SOL    HW237140   6.045   0.955   1.430 -1.5762  0.4566 -1.2583
44195SOL     OW37141   4.532   0.282   7.598  0.1775  0.1871  0.2277
44195SOL    HW137142   4.509   0.190   7.596  2.1470 -0.3641  0.1814
44195SOL    HW237143   4.461   0.326   7.552 -1.0818 -1.2233  0.7639
44196SOL     OW37144   1.463  11.853  10.084  0.8093 -0.0463 -0.0686
44196SOL    HW137145   1.477  11.893   9.999  0.2326  0.7090  0.1834
44196SOL    HW237146   1.370  11.865  10.101  0.6293 -1.4266  0.0532
44197SOL     OW37147   9.512  11.545  11.181  0.3330  0.6274  0.6769
44197SOL    HW137148   9.486  11.453  11.175 -1.2980  0.8575  2.8380
44197SOL    HW237149   9.514  11.575  11.091  0.9828 -1.5237 -0.0983
44198SOL     OW37150   9.985   2.768   3.852 -0.1674 -0.2183  0.3376
44198SOL    HW137151  10.051   2.767   3.921 -0.6354 -0.7174  0.7974
44198SOL    HW237152   9.906   2.800   3.896 -0.2745  0.2137 -0.1648
44199SOL     OW37153   1.567   8.938   3.743 -0.2842  0.5179  0.3226
44199SOL    HW137154   1.506   8.884   3.694  1.5406 -1.4018  0.0146
44199SOL    HW237155   1.549   8.918   3.835  1.2600 -1.8341  0.2049
44200SOL     OW37156   6.870   0.712   6.651  0.0270 -0.1589  0.0521
44200SOL    HW137157   6.798   0.650   6.664  0.8433 -1.0568  0.3540
44200SOL    HW237158   6.928   0.669   6.587 -1.2486  1.9101 -2.7303
44201SOL     OW37159   3.409   9.875  11.417 -0.2956  0.1113  0.0228
44201SOL    HW137160   3.462   9.795  11.421 -1.2935 -0.5321  1.0240
44201SOL    HW237161   3.438   9.927  11.491 -0.2122  0.3156 -0.1518
44202SOL     OW37162   6.229   3.083   3.978  0.3040  0.2344  0.0446
44202SOL    HW137163   6.264   3.136   4.049  1.0493 -0.7107  0.4134
44202SOL    HW237164   6.141   3.118   3.962 -0.0680  0.1775  1.7586
44203SOL     OW37165  10.217   9.556   0.112  0.3350 -0.3490 -0.1519
44203SOL    HW137166  10.246   9.640   0.077 -0.5145  0.3166  0.7032
44203SOL    HW237167  10.128   9.571   0.142  0.0551 -1.6397 -0.2490
44204SOL     OW37168   5.614   8.408   7.160 -0.2632  0.0854 -0.9847
44204SOL    HW137169   5.525   8.391   7.189 -0.4567  0.6512 -1.2511
44204SOL    HW237170   5.618   8.502   7.147  0.5633  0.1522 -0.3500
44205SOL     OW37171   5.034  10.472  10.744  0.2675  0.4701  0.5900
44205SOL    HW137172   5.066  10.388  10.777 -1.1825  0.4775  2.1688
44205SOL    HW237173   4.943  10.477  10.775 -0.4983  1.5276 -1.5916
44206SOL     OW37174   7.360   5.624   2.208 -0.0651  0.0154  0.7535
44206SOL    HW137175   7.441   5.591   2.247  0.0601  1.2253  1.5782
44206SOL    HW237176   7.346   5.568   2.132  1.9646  0.2437  0.1422
44207SOL     OW37177   1.025   2.128  11.177  0.2279 -0.1652  0.1866
44207SOL    HW137178   1.013   2.222  11.193 -1.9629 -0.0665 -1.4594
44207SOL    HW237179   0.952   2.086  11.223  0.0098 -0.8346 -0.7390
44208SOL     OW37180   6.761   1.560   6.813 -0.5687 -0.2458  0.0817
44208SOL    HW137181   6.821   1.526   6.746 -0.3587 -1.1276  0.6951
44208SOL    HW237182   6.805   1.542   6.896 -0.2981  1.8877  0.4362
44209SOL     OW37183   8.797   5.607   9.492 -0.6728  0.1775  0.3511
44209SOL    HW137184   8.837   5.539   9.546 -0.6321  0.2209  0.3760
44209SOL    HW237185   8.867   5.671   9.478 -0.6246  0.0671  0.0761
44210SOL     OW37186   6.783   8.114   4.028 -0.3098 -0.0219  0.2364
44210SOL    HW137187   6.827   8.120   4.112  0.6165 -1.5317 -0.0995
44210SOL    HW237188   6.691   8.100   4.050 -0.2553  0.7479  0.9817
44211SOL     OW37189   7.060  11.434   1.891  0.6507 -0.0408  0.0656
44211SOL    HW137190   7.037  11.470   1.977  0.0542 -1.1867  0.4031
44211SOL    HW237191   7.046  11.340   1.900 -0.0433 -0.1055 -1.5004
44212SOL     OW37192   9.927   3.072   2.467  0.1777 -0.1450  0.0340
44212SOL    HW137193   9.915   2.985   2.430  1.4654 -0.0344 -0.7116
44212SOL    HW237194  10.014   3.069   2.508 -0.3759  0.3527  1.3069
44213SOL     OW37195   2.123   0.263  10.720 -0.6332 -0.6350  0.3976
44213SOL    HW137196   2.111   0.247  10.626  0.5629 -2.4515  0.4940
44213SOL    HW237197   2.103   0.179  10.761  2.1945 -0.9161  1.4106
44214SOL     OW37198   2.096  11.715   7.971  0.0081  0.2597 -0.4711
44214SOL    HW137199   2.087  11.810   7.985  0.9183  0.0756  1.6939
44214SOL    HW237200   2.021  11.677   8.018 -1.0042 -0.1050 -2.2597
44215SOL     OW37201   9.634   4.218   8.378 -0.6832 -0.0370  0.5208
44215SOL    HW137202   9.597   4.292   8.427 -1.5280  0.5956 -1.0083
44215SOL    HW237203   9.565   4.194   8.316  0.4866 -0.5850 -0.5895
44216SOL     OW37204  11.191  11.355   2.936 -0.2773 -0.4494 -0.2393
44216SOL    HW137205  11.228  11.379   3.022  1.3030 -0.0537 -0.9934
44216SOL    HW237206  11.147  11.434   2.906  0.5183 -0.0830 -0.4652
44217SOL     OW37207   2.972   1.724   6.625 -0.5180  0.0208  0.4008
44217SOL    HW137208   2.913   1.757   6.557  0.1531 -2.0494 -1.2654
44217SOL    HW237209   3.059   1.730   6.586 -0.0959 -1.0340  1.1465
44218SOL     OW37210   5.097   2.679   7.359 -0.1428 -0.6395  0.6534
44218SOL    HW137211   5.038   2.604   7.368 -1.1320  0.0338 -0.0065
44218SOL    HW237212   5.052   2.737   7.298  1.8584 -0.7416 -1.0068
44219SOL     OW37213   0.862   1.038   9.633  0.1304 -0.0458  0.5258
44219SOL    HW137214   0.926   1.036   9.562  1.0136 -0.7293  1.3041
44219SOL    HW237215   0.777   1.041   9.589  0.6908  2.3277 -0.5411
44220SOL     OW37216   8.852   3.644   3.680  0.0454 -0.0532  0.0257
44220SOL    HW137217   8.769   3.600   3.696 -0.1527  0.2844 -0.0511
44220SOL    HW237218   8.833   3.707   3.610  0.6361 -0.7387 -0.7637
44221SOL     OW37219   9.637   3.637  10.554 -0.2417 -0.3152  0.0720
44221SOL    HW137220   9.710   3.616  10.612  0.8827 -2.9997 -2.0668
44221SOL    HW237221   9.657   3.724  10.521  1.2331 -0.4061  0.6620
44222SOL     OW37222   0.837   5.952  11.650  0.3707  0.2835  0.3749
44222SOL    HW137223   0.909   5.890  11.637  0.8310  0.9379 -0.2554
44222SOL    HW237224   0.759   5.906  11.619  0.7528  0.1223 -0.3704
44223SOL     OW37225   6.475   6.607  10.373 -0.2572 -0.0297  0.3737
44223SOL    HW137226   6.386   6.613  10.339 -0.6929 -2.8711  0.7872
44223SOL    HW237227   6.465   6.610  10.468  0.3024  1.2839  0.4175
44224SOL     OW37228   3.737   1.615  11.625 -0.6042  0.0161  0.1201
44224SOL    HW137229   3.775   1.547  11.569 -1.0284 -0.6350  0.5970
44224SOL    HW237230   3.706   1.567  11.702 -0.8655  0.7670  0.4913
44225SOL     OW37231   1.975  11.398   3.297 -0.0788 -0.4414 -0.1773
44225SOL    HW137232   2.070  11.385   3.303  0.0841  0.4411 -0.5991
44225SOL    HW237233   1.950  11.431   3.384  0.2647  0.7323 -0.4943
44226SOL     OW37234   9.631   4.069   8.603 -0.4178 -0.0762 -0.3609
44226SOL    HW137235   9.551   4.017   8.595 -1.0362  0.7943  0.0302
44226SOL    HW237236   9.635   4.121   8.523  0.3112 -0.8500 -0.8473
44227SOL     OW37237   4.884   7.237   5.825 -0.2849  0.0687  0.6695
44227SOL    HW137238   4.849   7.237   5.736  1.1576 -0.8253  0.0645
44227SOL    HW237239   4.848   7.316   5.865 -2.4797 -0.4849 -0.0711
44228SOL     OW37240   1.780   7.900  10.335 -0.3603  0.2424  0.2446
44228SOL    HW137241   1.789   7.806  10.351  2.5550  0.2729 -0.6437
44228SOL    HW237242   1.725   7.906  10.257 -0.9710 -0.6818  0.5897
44229SOL     OW37243   1.071   0.630   2.724  0.3093 -0.1102  0.0503
44229SOL    HW137244   0.990   0.623   2.674  0.7221  1.2237 -0.8208
44229SOL    HW237245   1.058   0.569   2.798 -0.6464 -1.4487 -1.1626
44230SOL     OW37246  12.078   8.171   3.801  0.0551  0.1337  0.4358
44230SOL    HW137247  12.097   8.258   3.766  3.2898 -1.0619 -1.1915
44230SOL    HW237248  12.050   8.120   3.726 -1.6679 -0.3321  1.3472
44231SOL     OW37249   5.581   9.032   2.561 -0.9240  0.3640 -0.0668
44231SOL    HW137250   5.486   9.022   2.566 -0.9041  0.7701  1.5123
44231SOL    HW237251   5.615   8.943   2.570 -1.1179  0.3845  0.9308
44232SOL     OW37252   9.698   0.684  10.649 -0.3451 -0.4625  0.0380
44232SOL    HW137253   9.624   0.637  10.688 -1.7327  0.8900 -0.8994
44232SOL    HW237254   9.667   0.712  10.563 -0.5682  4.2728  1.3862
44233SOL     OW37255   7.011   2.986   3.377 -0.2531  0.1522  0.3100
44233SOL    HW137256   6.930   2.986   3.429 -0.2547  0.8261  0.3166
44233SOL    HW237257   7.072   3.039   3.428 -0.3256  1.0140 -0.4746
44234SOL     OW37258   6.409   3.092  11.895  0.2136  0.1340  0.3481
44234SOL    HW137259   6.457   3.020  11.853  1.7546  2.1761 -1.5912
44234SOL    HW237260   6.322   3.055  11.911  1.5335 -2.8550  1.5465
44235SOL     OW37261   4.569   9.801   2.001  0.0092  0.3003 -0.1302
44235SOL    HW137262   4.587   9.720   1.952  0.8052  0.7826 -0.6528
44235SOL    HW237263   4.638   9.804   2.067  1.4074  1.6782 -1.5454
44236SOL     OW37264   3.967   6.903   7.580  0.2316  0.3587  0.3330
44236SOL    HW137265   3.936   6.868   7.497 -0.5823 -0.7100  1.0456
44236SOL    HW237266   4.062   6.900   7.574  0.1979 -1.3925  0.0876
44237SOL     OW37267   1.124   1.473  10.705 -0.1415 -0.1792 -0.2408
44237SOL    HW137268   1.107   1.380  10.691 -0.9182 -0.4068  1.8951
44237SOL    HW237269   1.214   1.476  10.736  1.4670  0.2966 -4.3036
44238SOL     OW37270   2.330  11.903   6.686 -0.0910  0.1377 -0.1797
44238SOL    HW137271   2.330  11.966   6.758 -1.9684 -1.3953  1.2739
44238SOL    HW237272   2.311  11.956   6.609  1.2589  1.7247  0.5163
44239SOL     OW37273   3.636  10.275   0.386  0.0559  0.1980 -0.1674
44239SOL    HW137274   3.629  10.326   0.467  1.1554  0.4960 -0.2464
44239SOL    HW237275   3.730  10.267   0.371 -0.1209 -0.8038 -0.8257
44240SOL     OW37276   2.558   9.231   0.870  0.1089  0.4402  0.1941
44240SOL    HW137277   2.578   9.180   0.792 -2.0656  0.8542 -0.6872
44240SOL    HW237278   2.631   9.293   0.877  0.3146  0.4460 -1.5602
44241SOL     OW37279   6.190   3.917   8.739  0.1094 -0.1189  0.0669
44241SOL    HW137280   6.157   3.867   8.664 -1.0230 -1.3527  1.3274
44241SOL    HW237281   6.285   3.900   8.739  0.2159  0.3410 -1.3721
44242SOL     OW37282   1.348   2.551   3.396 -0.5059  0.1782  0.8310
44242SOL    HW137283   1.254   2.532   3.390 -0.2919 -1.7403  2.6576
44242SOL    HW237284   1.355   2.613   3.469 -0.4614  1.8694 -0.5197
44243SOL     OW37285   7.141   1.715  11.899 -0.2369  0.2550  0.8399
44243SOL    HW137286   7.057   1.669  11.899  0.3356 -0.8372  1.2104
44243SOL    HW237287   7.202   1.652  11.939  0.6285  1.2590  1.1258
44244SOL     OW37288   9.469   8.508  10.886  0.8745 -0.2880  0.3077
44244SOL    HW137289   9.468   8.416  10.913  0.3224 -0.2784  0.3316
44244SOL    HW237290   9.453   8.557  10.967  1.6663 -0.1394  0.3866
44245SOL     OW37291   4.889   2.261   5.517  0.1121  0.5716  0.2398
44245SOL    HW137292   4.889   2.170   5.488 -2.1402 -0.1695  2.2183
44245SOL    HW237293   4.952   2.263   5.590 -1.5538 -0.0783  1.7781
44246SOL     OW37294   6.238  11.688  12.020 -0.0014 -0.4416 -0.0139
44246SOL    HW137295   6.333  11.684  12.030  0.1121  2.7720  1.2101
44246SOL    HW237296   6.223  11.667  11.928  1.8562 -1.1294 -0.2109
44247SOL     OW37297   9.634   2.412   1.835 -0.7454  0.3338 -0.0742
44247SOL    HW137298   9.713   2.453   1.871  0.1445 -1.2101 -0.1495
44247SOL    HW237299   9.644   2.418   1.740 -0.8862  0.4520 -0.0812
44248SOL     OW37300   9.880  10.725   9.934  0.5073  1.1510  0.0743
44248SOL    HW137301   9.970  10.756   9.942  0.6411  0.7370  0.1778
44248SOL    HW237302   9.869  10.666  10.009  0.0279  1.5024  0.2867
44249SOL     OW37303  10.549  11.747   4.650 -0.6362 -0.0218 -0.1356
44249SOL    HW137304  10.473  11.749   4.591 -0.6392 -1.0853 -0.1867
44249SOL    HW237305  10.580  11.838   4.652 -1.3363  0.2480 -0.8527
44250SOL     OW37306   8.869   5.005   1.266  0.2836  0.0627  0.2480
44250SOL    HW137307   8.790   4.971   1.309  0.6775 -1.5999 -0.2676
44250SOL    HW237308   8.942   4.963   1.312  0.8293  0.7330  0.0096
44251SOL     OW37309  10.600   9.833   3.659  0.5183  0.5411 -0.4208
44251SOL    HW137310  10.670   9.796   3.714 -0.2919  1.3173  1.2258
44251SOL    HW237311  10.572   9.911   3.707 -0.0929  1.4015 -2.1022
44252SOL     OW37312   4.493   5.807   3.201  0.3781  0.2581 -0.0232
44252SOL    HW137313   4.508   5.883   3.258 -0.4510 -0.2790  0.9476
44252SOL    HW237314   4.399   5.810   3.183  0.4083 -0.3397 -0.2664
44253SOL     OW37315   0.559   8.489   0.300  0.0078 -0.2657 -0.6531
44253SOL    HW137316   0.620   8.545   0.347  0.1831  0.5491 -1.8050
44253SOL    HW237317   0.560   8.406   0.349  1.0647  0.1516  0.0767
44254SOL     OW37318   8.528   1.410   8.351  0.2002  0.1301 -0.0285
44254SOL    HW137319   8.443   1.442   8.321 -1.2407 -2.1453  1.3320
44254SOL    HW237320   8.554   1.471   8.420 -0.5050  0.6437 -0.2108
44255SOL     OW37321  10.324   6.058   8.224  0.0911  0.3297  0.1337
44255SOL    HW137322  10.418   6.059   8.203  0.5096 -1.0834  1.7190
44255SOL    HW237323  10.319   6.083   8.316 -1.1902  1.2444 -0.1611
44256SOL     OW37324   6.536   9.495   3.007  1.1491  0.3372  0.3755
44256SOL    HW137325   6.549   9.590   3.004 -4.0303  1.4385  1.9108
44256SOL    HW237326   6.518   9.477   3.099 -0.0535 -1.6800 -0.2035
44257SOL     OW37327  10.948   4.112   0.838  0.0227  0.3695 -0.4125
44257SOL    HW137328  10.994   4.085   0.917  1.2129 -0.0936 -1.2275
44257SOL    HW237329  10.862   4.141   0.868  0.2676 -0.2868  0.9772
44258SOL     OW37330   7.918  10.987   8.893 -0.4388 -0.3032 -0.4302
44258SOL    HW137331   7.915  11.082   8.880 -0.5682 -0.4541 -1.6581
44258SOL    HW237332   7.838  10.966   8.941  0.6054  0.4450  1.7579
44259SOL     OW37333   2.385   8.140   3.564  0.1251 -0.4722  0.1867
44259SOL    HW137334   2.305   8.179   3.599  0.8616  0.9527  0.3362
44259SOL    HW237335   2.364   8.121   3.472 -0.3140  0.1198  0.1584
44260SOL     OW37336   3.426   5.254   3.292  0.1688  0.2613  0.7638
44260SOL    HW137337   3.468   5.169   3.305  0.1518  0.0657 -0.3768
44260SOL    HW237338   3.489   5.304   3.241 -0.2484  0.5886  0.5693
44261SOL     OW37339   2.825   3.834   8.443  0.3738 -0.4994 -0.4375
44261SOL    HW137340   2.810   3.757   8.499  2.6140 -0.7775 -0.1170
44261SOL    HW237341   2.841   3.798   8.356  2.5583 -0.5810 -0.0732
44262SOL     OW37342   6.835   8.460   3.163 -0.4456  0.1608  0.0523
44262SOL    HW137343   6.839   8.406   3.241 -0.0823  0.8411  0.5177
44262SOL    HW237344   6.877   8.542   3.189 -2.1637  1.1732 -0.2332
44263SOL     OW37345  10.276   3.427   1.428 -0.0988  0.5694  0.1668
44263SOL    HW137346  10.211   3.396   1.491  2.8671 -0.9943  2.6841
44263SOL    HW237347  10.345   3.467   1.481  0.4891  3.5146 -2.4711
44264SOL     OW37348   8.372   8.636   5.809 -0.1319  0.5590  0.5811
44264SOL    HW137349   8.428   8.713   5.813  0.0305  0.3908  1.8012
44264SOL    HW237350   8.344   8.632   5.717  0.5054  1.5928  0.3229
44265SOL     OW37351   4.389   1.965   4.202  0.7166  0.8466  0.9444
44265SOL    HW137352   4.464   1.932   4.152  0.7011 -0.7931  1.9394
44265SOL    HW237353   4.314   1.951   4.144  0.9512  0.7935  0.6494
44266SOL     OW37354  10.297   6.414   6.038 -0.4357  0.3002  0.2220
44266SOL    HW137355  10.324   6.366   5.960 -1.8203  0.1788 -0.2120
44266SOL    HW237356  10.277   6.347   6.103  1.2053  0.4086  0.8955
44267SOL     OW37357   9.399   7.228   6.844 -0.1614  0.2207 -1.2182
44267SOL    HW137358   9.474   7.211   6.786  1.4468  0.8579  0.5718
44267SOL    HW237359   9.380   7.321   6.830  0.4407  0.4578 -0.5295
44268SOL     OW37360   8.847   7.905  10.861 -0.0504 -0.3752  0.3326
44268SOL    HW137361   8.763   7.945  10.839 -0.4438 -0.2951  1.8677
44268SOL    HW237362   8.912   7.971  10.835 -0.4794 -0.2845 -0.5219
44269SOL     OW37363   0.431  10.436   2.131 -0.5369  0.2852  0.1491
44269SOL    HW137364   0.449  10.371   2.199 -2.6994 -0.4403  0.1047
44269SOL    HW237365   0.487  10.411   2.058  1.1966  0.5736  1.3118
44270SOL     OW37366  10.805  10.552   2.892 -0.0203 -0.5159 -0.5312
44270SOL    HW137367  10.779  10.552   2.984 -0.1486 -1.7264 -0.5590
44270SOL    HW237368  10.763  10.475   2.855  0.4680 -0.3374 -1.4830
44271SOL     OW37369   7.802   6.304  11.872 -0.1912 -0.0504 -0.0337
44271SOL    HW137370   7.780   6.214  11.893  0.0612 -0.2835 -0.7518
44271SOL    HW237371   7.735   6.356  11.917  2.2252 -0.2428  4.3486
44272SOL     OW37372   8.457   2.079   2.268  0.3395 -0.4946  0.5519
44272SOL    HW137373   8.478   2.106   2.358 -0.9705  0.2428  0.6567
44272SOL    HW237374   8.508   2.139   2.213 -2.8549  2.7067  0.7715
44273SOL     OW37375   5.589   3.031   1.388 -0.4466  0.2033  0.3870
44273SOL    HW137376   5.635   3.081   1.321 -0.0783 -0.4893  0.1133
44273SOL    HW237377   5.545   2.961   1.340  0.9385 -1.1247  0.9926
44274SOL     OW37378   4.568   1.472   3.548  0.3046  0.1853  0.2861
44274SOL    HW137379   4.575   1.516   3.463  1.2296 -2.1321 -0.9229
44274SOL    HW237380   4.481   1.431   3.547  0.7740 -0.8447 -0.1073
44275SOL     OW37381   2.644   6.721   7.377  0.2466 -0.0458  0.0904
44275SOL    HW137382   2.590   6.646   7.354 -3.7381  2.8142 -1.0017
44275SOL    HW237383   2.628   6.735   7.470  0.4197 -0.1173  0.1316
44276SOL     OW37384   1.352   9.151   2.412  0.3511  0.6451 -0.0799
44276SOL    HW137385   1.288   9.144   2.483  0.4052 -0.1272 -0.1022
44276SOL    HW237386   1.371   9.061   2.388  1.2080  0.8754 -0.2929
44277SOL     OW37387   3.259   3.372   4.742  0.0090 -0.3413 -0.0727
44277SOL    HW137388   3.268   3.320   4.822  0.9854 -0.0736  0.0127
44277SOL    HW237389   3.166   3.391   4.736 -0.1719 -0.9426  0.6327
44278SOL     OW37390   3.085  10.672   3.978 -0.3928 -0.2541  0.4476
44278SOL    HW137391   3.134  10.729   4.037  0.6084 -0.5241 -0.0875
44278SOL    HW237392   3.144  10.659   3.903 -0.6082 -1.9452  0.5270
44279SOL     OW37393  10.659   2.979   8.206 -0.2187  0.0901  0.1262
44279SOL    HW137394  10.651   3.000   8.112 -0.0537  1.6420  0.4327
44279SOL    HW237395  10.581   2.927   8.225 -0.6346  0.3750 -0.7249
44280SOL     OW37396  11.448   1.188   1.614  0.5049 -0.3684  0.6612
44280SOL    HW137397  11.453   1.278   1.646 -0.3353  0.8847 -2.4178
44280SOL    HW237398  11.358   1.161   1.634 -0.1030  0.5069 -0.7216
44281SOL     OW37399  11.445   9.701  11.706  0.0829 -0.3698  0.1016
44281SOL    HW137400  11.509   9.654  11.760 -0.2052 -0.2012  0.5989
44281SOL    HW237401  11.446   9.790  11.740 -0.5305 -0.4042  0.2242
44282SOL     OW37402  11.767   9.132   6.088  0.3901  0.4086  0.2074
44282SOL    HW137403  11.688   9.178   6.061  0.9795  2.1156  1.2383
44282SOL    HW237404  11.737   9.070   6.155 -0.4912 -1.1878 -1.5719
44283SOL     OW37405   3.904  10.249  10.678 -0.3588 -0.2481 -0.1041
44283SOL    HW137406   3.943  10.177  10.728 -0.5317 -0.7244 -0.6496
44283SOL    HW237407   3.979  10.305  10.655 -0.1166 -0.6898 -0.3887
44284SOL     OW37408   5.485   3.351   2.156 -0.0379  0.3761  0.1426
44284SOL    HW137409   5.511   3.424   2.100  0.1470  0.7071  0.6559
44284SOL    HW237410   5.390   3.345   2.145  0.2358 -1.1457 -2.1249
44285SOL     OW37411   3.546   1.166  12.025 -0.5889 -0.0261  0.0909
44285SOL    HW137412   3.522   1.073  12.026 -1.4162  0.1883  0.8585
44285SOL    HW237413   3.636   1.166  11.990 -0.1450 -1.2243  1.1197
44286SOL     OW37414   9.654   3.373  10.980 -0.4429  0.2464 -0.1146
44286SOL    HW137415   9.594   3.330  11.041  0.0023 -0.0509  0.1253
44286SOL    HW237416   9.619   3.461  10.970 -0.8625  0.1079  0.0998
44287SOL     OW37417   8.835  11.742   9.580 -0.5498 -0.0535 -0.6359
44287SOL    HW137418   8.899  11.687   9.536  0.6424  1.2914 -0.6587
44287SOL    HW237419   8.869  11.831   9.570 -2.7364  0.7758 -1.1652
44288SOL     OW37420   1.503   3.139   7.030  0.3099  0.3598  0.0301
44288SOL    HW137421   1.548   3.223   7.022 -0.4013  0.8647  1.0832
44288SOL    HW237422   1.506   3.101   6.942 -0.5738  2.1161 -0.8070
44289SOL     OW37423   9.903   4.208   3.582 -0.3619  0.1091  0.1468
44289SOL    HW137424   9.976   4.268   3.597 -1.0318  0.4841  2.2098
44289SOL    HW237425   9.843   4.258   3.525  0.3528  0.3165 -0.4331
44290SOL     OW37426   7.012   1.097   1.236 -0.0369  0.2762 -0.6818
44290SOL    HW137427   7.017   1.056   1.322 -1.7881  0.7750 -0.3092
44290SOL    HW237428   7.102   1.096   1.204  0.2548 -2.4841 -0.0517
44291SOL     OW37429   6.588   5.401  10.283  0.3262  0.5033  1.1131
44291SOL    HW137430   6.588   5.312  10.250 -1.1645  0.7128  0.4682
44291SOL    HW237431   6.681   5.426  10.285  0.6747 -0.6327  0.1682
44292SOL     OW37432   6.398   2.223   5.871  0.3828  0.1753  0.1658
44292SOL    HW137433   6.473   2.277   5.897  0.1232  0.4000  0.4484
44292SOL    HW237434   6.394   2.154   5.937 -0.1603  0.6368  0.6167
44293SOL     OW37435   8.650   6.598   4.794  0.5383 -0.0255 -0.2107
44293SOL    HW137436   8.659   6.503   4.788 -0.6159 -0.1564 -0.2100
44293SOL    HW237437   8.739   6.632   4.789  0.9732 -1.1192 -0.0378
44294SOL     OW37438   0.719   4.757   6.869  0.0614  0.0599  0.6920
44294SOL    HW137439   0.779   4.687   6.894  0.4422  0.4221  0.8143
44294SOL    HW237440   0.770   4.837   6.881  0.1949  0.2726 -1.0670
44295SOL     OW37441   6.214  11.156   5.186 -0.0336 -0.0120 -0.1249
44295SOL    HW137442   6.276  11.197   5.247 -0.7656  0.0034  0.6217
44295SOL    HW237443   6.266  11.139   5.107  0.6631  0.9551  0.1037
44296SOL     OW37444   1.655   0.962   9.153 -0.0802 -0.1202  0.7604
44296SOL    HW137445   1.584   0.900   9.130  0.5471 -0.7906  0.5903
44296SOL    HW237446   1.617   1.048   9.136 -0.2952 -0.5169 -1.0164
44297SOL     OW37447   5.267   1.276   1.066 -0.0118 -0.1288 -0.1031
44297SOL    HW137448   5.302   1.363   1.084 -0.6975  0.0588  0.3739
44297SOL    HW237449   5.298   1.255   0.978 -1.8207  1.6435 -1.2338
44298SOL     OW37450   2.700   4.745   3.862  0.0467 -0.3916 -0.0597
44298SOL    HW137451   2.654   4.666   3.832 -0.7994  0.3613 -0.8052
44298SOL    HW237452   2.635   4.815   3.854  0.6854  0.3376  0.8965
44299SOL     OW37453   2.404   0.808   8.764 -0.1016 -0.8227 -0.0976
44299SOL    HW137454   2.444   0.778   8.846 -1.8871 -0.4154  0.9542
44299SOL    HW237455   2.353   0.885   8.788  0.0343 -0.1513 -1.7795
44300SOL     OW37456  11.532   5.376   7.146 -0.3908  0.1798 -0.5892
44300SOL    HW137457  11.469   5.305   7.160  1.4539 -1.5581 -0.6841
44300SOL    HW237458  11.510   5.441   7.213 -0.3537 -1.7869  1.4343
44301SOL     OW37459  11.916  10.298   7.517  0.4712  0.2842 -0.6912
44301SOL    HW137460  11.897  10.383   7.558  1.0770 -0.0575  0.3421
44301SOL    HW237461  11.927  10.319   7.425 -0.2068  1.2029 -0.5861
44302SOL     OW37462   6.966   6.634   5.720 -0.2136  0.4537  0.6420
44302SOL    HW137463   7.048   6.684   5.715  0.4740 -0.7243 -0.3404
44302SOL    HW237464   6.988   6.558   5.774 -0.2234 -0.6099 -0.7864
44303SOL     OW37465  10.181   8.110   3.685 -0.2753  0.5231  0.2063
44303SOL    HW137466  10.131   8.148   3.613  0.9698  2.7619  0.4210
44303SOL    HW237467  10.129   8.128   3.764 -0.9213 -0.6022  0.0601
44304SOL     OW37468   5.061   8.322  10.752  0.2063 -0.8965 -0.3972
44304SOL    HW137469   4.982   8.376  10.751  0.0556 -1.0349  1.2465
44304SOL    HW237470   5.036   8.241  10.707 -0.9551 -1.3759  1.0163
44305SOL     OW37471   1.565   8.651   2.484 -0.2200  0.6988 -0.2924
44305SOL    HW137472   1.627   8.605   2.428  0.5221  2.5730 -1.1286
44305SOL    HW237473   1.620   8.701   2.544 -0.9793  0.5602  0.5295
44306SOL     OW37474   9.118  10.535  10.541  0.1267 -0.4536  0.2728
44306SOL    HW137475   9.177  10.553  10.468  0.7380 -1.7714  0.4109
44306SOL    HW237476   9.031  10.534  10.502  0.1903  1.2714  0.0228
44307SOL     OW37477   3.911   0.925   9.869 -0.3200 -0.1366  0.2139
44307SOL    HW137478   3.919   1.018   9.848  0.7883 -0.3525 -0.4140
44307SOL    HW237479   3.898   0.922   9.964  0.5665  0.6254  0.3659
44308SOL     OW37480  12.109   3.120  10.226  0.4458 -0.3224  0.5481
44308SOL    HW137481  12.163   3.117  10.148 -0.0146  0.3896  0.1879
44308SOL    HW237482  12.166   3.156  10.294  0.1134  1.5585 -0.1176
44309SOL     OW37483   6.589   3.494  10.617 -0.3049  0.1911  0.3154
44309SOL    HW137484   6.539   3.500  10.699  1.7466 -1.5917  1.7990
44309SOL    HW237485   6.628   3.581  10.607  0.3084  0.1227  1.8685
44310SOL     OW37486  11.876   6.558   2.892  0.6883 -0.0088 -0.1210
44310SOL    HW137487  11.810   6.613   2.848  0.6634 -0.2971 -0.4446
44310SOL    HW237488  11.833   6.474   2.905  0.6589  0.1030  0.5605
44311SOL     OW37489   8.543   6.262   7.974  0.5852 -0.0697  0.1672
44311SOL    HW137490   8.591   6.296   8.049 -1.6283  0.4458  1.4218
44311SOL    HW237491   8.509   6.340   7.930  0.1182 -0.4565 -0.1636
44312SOL     OW37492   8.960   3.184  10.019 -0.4270  0.1442 -0.3475
44312SOL    HW137493   8.988   3.185   9.927 -2.0404 -0.2882 -0.8759
44312SOL    HW237494   8.972   3.094  10.047  0.1224  0.2902 -0.1208
44313SOL     OW37495   7.474   2.656   7.452 -0.1726  0.0437  0.1329
44313SOL    HW137496   7.434   2.570   7.440  0.8637 -0.5686  0.9768
44313SOL    HW237497   7.568   2.641   7.441  0.1174  0.8599  1.3337
44314SOL     OW37498   6.818  11.357   6.366  0.5401  0.0427 -0.2748
44314SOL    HW137499   6.785  11.321   6.448  0.3454  1.9949  0.5376
44314SOL    HW237500   6.741  11.358   6.308 -0.3293  2.2733  0.8206
44315SOL     OW37501   0.220   1.873   1.822 -0.1286  0.3582 -0.4442
44315SOL    HW137502   0.170   1.805   1.777  0.6576 -1.7947  1.6983
44315SOL    HW237503   0.306   1.835   1.837  0.0480  1.4141  1.6846
44316SOL     OW37504  11.203   6.576   4.812 -0.4198 -0.0128  0.4235
44316SOL    HW137505  11.227   6.534   4.730  2.1342 -1.4018  1.7601
44316SOL    HW237506  11.236   6.517   4.880 -2.5615  0.9890  2.5010
44317SOL     OW37507   1.412   4.350   4.088  0.0017 -0.1207 -0.1336
44317SOL    HW137508   1.345   4.356   4.157 -1.6156 -0.9201 -1.5744
44317SOL    HW237509   1.394   4.267   4.044  1.9049 -0.3051 -0.6546
44318SOL     OW37510   3.132   6.288   6.977 -0.1113 -0.4883 -0.3040
44318SOL    HW137511   3.219   6.328   6.977 -0.7010  0.9449  1.6679
44318SOL    HW237512   3.149   6.195   6.963  1.8244 -0.3697  0.8510
44319SOL     OW37513   6.252   6.031   4.602  0.6077  0.1188 -0.0264
44319SOL    HW137514   6.292   6.015   4.687 -0.5386 -0.5138  0.4256
44319SOL    HW237515   6.296   5.970   4.543 -0.1118 -1.0556  0.6026
44320SOL     OW37516   5.982  12.027  11.917 -0.3702  0.0721 -0.0442
44320SOL    HW137517   5.892  12.013  11.947 -0.6893  0.7309 -0.6400
44320SOL    HW237518   6.037  11.997  11.989 -1.0538 -0.8115  0.1306
44321SOL     OW37519   2.720   4.366   1.543  0.3612  0.2500 -0.0014
44321SOL    HW137520   2.688   4.447   1.584  0.4207  0.1739  0.1980
44321SOL    HW237521   2.816   4.375   1.544  0.4009 -0.1872  0.7805
44322SOL     OW37522  11.605   0.330  10.340  0.3430 -0.0820 -0.1796
44322SOL    HW137523  11.566   0.261  10.286 -1.7440  0.9927 -0.1533
44322SOL    HW237524  11.588   0.410  10.291 -0.6461  0.8138  1.5473
44323SOL     OW37525   7.175  11.028   4.739 -0.0296  0.5220 -0.5817
44323SOL    HW137526   7.209  10.939   4.735 -0.7488  0.0003  2.5111
44323SOL    HW237527   7.228  11.071   4.806  0.4520  2.5637 -2.1620
44324SOL     OW37528  10.375   0.313   6.237 -0.1327 -0.3037 -0.1173
44324SOL    HW137529  10.422   0.231   6.251 -1.0910 -0.8030  0.2334
44324SOL    HW237530  10.298   0.288   6.186 -1.0366  0.1689  0.9612
44325SOL     OW37531  10.030   1.122   8.064 -0.6598 -0.5330 -0.4337
44325SOL    HW137532  10.023   1.026   8.061 -1.0037 -0.4911 -1.4346
44325SOL    HW237533  10.103   1.142   8.005 -1.3717 -0.1262 -1.2109
44326SOL     OW37534   5.233   0.832   2.739  0.5100 -0.2687  0.5705
44326SOL    HW137535   5.315   0.881   2.728  0.6191 -0.2605  1.3647
44326SOL    HW237536   5.261   0.741   2.744  0.2727 -0.4860 -1.3275
44327SOL     OW37537   8.805   7.390   4.734  0.0438  0.9153 -0.4105
44327SOL    HW137538   8.825   7.458   4.670 -1.3616  0.1172 -1.7598
44327SOL    HW237539   8.732   7.427   4.785 -0.8591  0.3681 -1.2800
44328SOL     OW37540   1.928   6.301   2.253  0.4399  0.4562  0.1634
44328SOL    HW137541   1.983   6.330   2.325 -0.4503 -1.2596  1.6032
44328SOL    HW237542   1.838   6.320   2.281  0.1122  0.3826 -0.7858
44329SOL     OW37543   2.575   4.433   3.348  0.2085  0.2321  0.3711
44329SOL    HW137544   2.642   4.501   3.354 -0.2440  0.7869 -0.5529
44329SOL    HW237545   2.500   4.477   3.308 -0.1802 -0.7462 -0.0041
44330SOL     OW37546   6.054   8.390   6.578 -0.3336 -0.0903 -0.1942
44330SOL    HW137547   6.014   8.419   6.496 -0.4776  0.0818 -0.0639
44330SOL    HW237548   6.020   8.450   6.644 -1.7752 -1.4040  0.3299
44331SOL     OW37549   5.083   4.318   5.164  0.3715 -0.3353  0.0895
44331SOL    HW137550   5.083   4.226   5.141 -0.0507  0.0028 -1.3722
44331SOL    HW237551   5.099   4.364   5.082  0.7301  0.8918  0.8156
44332SOL     OW37552   7.291   7.748   5.309  0.7182  0.4072 -0.1732
44332SOL    HW137553   7.258   7.681   5.368 -0.9039  0.8810 -0.4744
44332SOL    HW237554   7.312   7.822   5.365 -0.9345  0.8994 -0.1554
44333SOL     OW37555  11.463   4.807   0.055 -0.3418  0.1052 -0.0232
44333SOL    HW137556  11.475   4.902   0.055  2.8713 -0.1814 -0.1513
44333SOL    HW237557  11.449   4.786   0.147 -0.4820  0.6491  0.0867
44334SOL     OW37558   2.046  10.807   8.775  0.0420 -0.3429  0.3361
44334SOL    HW137559   1.954  10.793   8.755  0.4546 -0.3778 -1.7813
44334SOL    HW237560   2.047  10.880   8.837 -1.3574  0.3129 -0.3675
44335SOL     OW37561   8.855   1.845  11.636  0.1121 -0.2514 -0.3603
44335SOL    HW137562   8.882   1.916  11.694  1.1621 -1.8910  1.2725
44335SOL    HW237563   8.929   1.833  11.576  0.0806 -0.1860 -0.4125
44336SOL     OW37564   4.645   0.528   0.067  0.2004  0.0066 -0.0609
44336SOL    HW137565   4.675   0.545  -0.023 -0.0661  1.4213  0.1064
44336SOL    HW237566   4.551   0.544   0.064  0.3849  1.3944  0.7667
44337SOL     OW37567  10.261   3.184  11.877  0.7508 -0.4178 -0.5910
44337SOL    HW137568  10.286   3.102  11.921 -1.7873 -1.4992 -0.9764
44337SOL    HW237569  10.232   3.242  11.947  1.3826 -0.2933 -0.4276
44338SOL     OW37570   4.334   7.099   1.599 -0.7748  0.1028  0.1845
44338SOL    HW137571   4.256   7.052   1.567 -0.5990  0.6927 -1.1895
44338SOL    HW237572   4.405   7.035   1.591 -0.9579 -0.1479  0.5655
44339SOL     OW37573   1.427   6.684   9.698  0.6968 -0.3365  0.4319
44339SOL    HW137574   1.468   6.736   9.629  0.3753 -1.4658 -0.6491
44339SOL    HW237575   1.390   6.748   9.759  0.3145  0.6897 -0.8505
44340SOL     OW37576   6.147   4.951   3.415  0.1814  0.1612 -0.5787
44340SOL    HW137577   6.142   4.887   3.343  3.2386 -1.0893  0.1500
44340SOL    HW237578   6.132   4.899   3.494  0.6239  0.7582 -0.0941
44341SOL     OW37579   3.818   3.000  10.777 -0.4488 -0.1309 -0.7284
44341SOL    HW137580   3.892   2.941  10.763 -0.2381 -0.6078  1.8078
44341SOL    HW237581   3.857   3.081  10.808 -0.9363 -0.0955 -0.1810
44342SOL     OW37582   0.141   6.942   9.144 -0.0080 -1.1634 -0.0758
44342SOL    HW137583   0.193   7.023   9.138  2.4781 -2.3124  2.9264
44342SOL    HW237584   0.175   6.887   9.073  0.4558 -0.6642 -0.2501
44343SOL     OW37585   9.608   4.672   7.651  0.0100 -0.2405 -0.6627
44343SOL    HW137586   9.544   4.737   7.625  1.2232  1.3287  0.0884
44343SOL    HW237587   9.582   4.646   7.740 -0.4644 -0.7864 -0.9564
44344SOL     OW37588  10.373  11.275  11.418 -0.4866  0.2362  0.4219
44344SOL    HW137589  10.363  11.267  11.513  0.6701 -0.6952  0.4860
44344SOL    HW237590  10.310  11.213  11.381 -0.6931  0.3492  0.5835
44345SOL     OW37591   1.373   0.930   4.204 -0.1386  0.3108 -0.1504
44345SOL    HW137592   1.431   0.869   4.158  1.2906  1.5329 -0.0259
44345SOL    HW237593   1.328   0.978   4.135 -0.6426 -0.2829 -0.2461
44346SOL     OW37594  11.498  10.458  10.844 -0.0027 -0.1671 -0.1899
44346SOL    HW137595  11.538  10.521  10.785  0.2494  1.2780  1.4452
44346SOL    HW237596  11.493  10.377  10.793  1.3306  0.6720 -1.7418
44347SOL     OW37597   7.878   1.690  11.960 -0.2887  0.2510 -0.0434
44347SOL    HW137598   7.959   1.649  11.928 -0.6229 -1.9418  1.6313
44347SOL    HW237599   7.900   1.782  11.970  1.6638 -0.0865 -0.7069
44348SOL     OW37600   2.163   0.348   4.443  0.1874  0.0338 -0.0303
44348SOL    HW137601   2.156   0.364   4.537 -0.4578  0.0093 -0.0656
44348SOL    HW237602   2.198   0.260   4.435  1.1106  0.3757  0.1809
44349SOL     OW37603   7.457   9.861   1.584 -0.4299  0.0814 -0.0037
44349SOL    HW137604   7.417   9.782   1.548 -0.0251 -0.0403 -0.1890
44349SOL    HW237605   7.468   9.842   1.677 -0.4445 -0.0294 -0.0248
44350SOL     OW37606  11.780   1.675   2.931 -0.1586 -0.2083  0.2317
44350SOL    HW137607  11.716   1.679   3.002 -1.5059 -0.3967 -0.9362
44350SOL    HW237608  11.773   1.586   2.897  0.9675 -0.3375  0.2770
44351SOL     OW37609   1.378  10.702   2.134  0.3742 -0.5268 -0.2362
44351SOL    HW137610   1.365  10.777   2.077  0.8700  0.5434  1.0002
44351SOL    HW237611   1.360  10.626   2.079 -0.0512  0.4872 -1.5431
44352SOL     OW37612   9.141   0.175   3.273 -0.1031 -0.3033  0.8801
44352SOL    HW137613   9.172   0.253   3.228 -0.1089  0.4947  2.2079
44352SOL    HW237614   9.121   0.113   3.203 -0.5571  1.0422 -0.2122
44353SOL     OW37615   5.108   9.742   5.659 -0.4888  0.2739  0.1469
44353SOL    HW137616   5.129   9.673   5.721 -0.4208  0.9073  0.8347
44353SOL    HW237617   5.018   9.723   5.632  0.3210 -1.4747 -1.5364
44354SOL     OW37618  11.390   7.154  10.477  0.4792  0.2718  0.6153
44354SOL    HW137619  11.485   7.162  10.485  0.5544  0.4417 -0.4000
44354SOL    HW237620  11.373   7.059  10.480  0.6147  0.2626  1.3721
44355SOL     OW37621   3.614   7.353   8.666  0.8387 -0.3333  0.0263
44355SOL    HW137622   3.636   7.290   8.596  3.8453  0.6632 -0.0554
44355SOL    HW237623   3.633   7.439   8.628  1.4162  0.3027  1.6677
44356SOL     OW37624   2.982   2.571   7.331 -0.1921 -0.2081  0.0928
44356SOL    HW137625   3.027   2.587   7.249  1.2979  0.2924  0.9644
44356SOL    HW237626   2.927   2.495   7.314 -0.2733  0.1720 -1.4832
44357SOL     OW37627   5.685   4.299   7.485  0.2998  0.1777  0.0448
44357SOL    HW137628   5.754   4.253   7.532  0.1340 -0.2952 -0.1701
44357SOL    HW237629   5.701   4.281   7.393  0.1009  0.3672 -0.0299
44358SOL     OW37630  10.015   7.351   2.930 -0.0246 -0.2653 -0.1471
44358SOL    HW137631  10.106   7.359   2.902 -0.8635  1.2753 -2.7394
44358SOL    HW237632  10.017   7.280   2.994  3.1236  0.3722  0.6732
44359SOL     OW37633   7.336   2.876   6.872  0.2888  0.5304 -0.4087
44359SOL    HW137634   7.314   2.837   6.788  0.0903  1.2005 -0.6672
44359SOL    HW237635   7.432   2.873   6.875  0.2897  0.3754 -0.5968
44360SOL     OW37636   6.002   3.300  10.073 -0.7028 -0.0555 -0.9415
44360SOL    HW137637   5.963   3.354  10.142 -1.0082  2.0872 -2.6850
44360SOL    HW237638   6.021   3.216  10.116  0.7275  1.6911  2.2154
44361SOL     OW37639   8.160   2.029   2.577 -0.1653 -0.0431 -0.2242
44361SOL    HW137640   8.227   1.968   2.608 -0.2132 -0.4016 -0.8016
44361SOL    HW237641   8.111   1.979   2.511  0.0414  0.7415 -0.9876
44362SOL     OW37642   5.495   6.244   2.823 -0.5740 -0.3984  0.0147
44362SOL    HW137643   5.557   6.273   2.890  0.0812  1.3123 -1.2650
44362SOL    HW237644   5.483   6.150   2.841  2.5999 -0.8902  0.1669
44363SOL     OW37645   8.948   5.558   2.365  0.1020 -0.1308 -0.1181
44363SOL    HW137646   8.943   5.582   2.273 -0.2853 -2.0550 -0.6405
44363SOL    HW237647   9.037   5.526   2.377 -0.2452 -1.1485 -0.1800
44364SOL     OW37648   5.611   3.468  10.345  0.9024 -0.8670 -0.0124
44364SOL    HW137649   5.576   3.431  10.265  2.7931 -2.1373 -0.3328
44364SOL    HW237650   5.549   3.536  10.370  0.6950  0.1616 -2.9962
44365SOL     OW37651  12.096   7.446   0.109 -0.3699  0.4217 -0.0903
44365SOL    HW137652  12.046   7.527   0.110  0.3216  0.8508 -0.0764
44365SOL    HW237653  12.031   7.378   0.130 -1.0425  0.9072 -0.5544
44366SOL     OW37654   0.562   7.383   0.151 -0.6771  0.3101  0.3575
44366SOL    HW137655   0.494   7.407   0.215 -0.8825 -2.6009  1.3802
44366SOL    HW237656   0.635   7.441   0.171 -1.5005  0.9146  1.7845
44367SOL     OW37657  11.952   5.027   4.609  0.4655  0.1575 -0.3310
44367SOL    HW137658  11.862   5.047   4.634  0.2525 -0.6572 -0.4386
44367SOL    HW237659  11.969   5.082   4.532 -0.1577 -0.1880 -0.7159
44368SOL     OW37660   1.262   0.932   2.977 -0.7980 -0.1439  0.2217
44368SOL    HW137661   1.262   0.991   2.901  1.7196  0.4204  0.5808
44368SOL    HW237662   1.270   0.845   2.940 -0.8562  0.0253 -0.1983
44369SOL     OW37663   7.235   9.908   2.469 -0.0623 -0.2514 -0.1248
44369SOL    HW137664   7.225   9.868   2.383  1.6891 -2.4540  0.6104
44369SOL    HW237665   7.216   9.838   2.531  2.1515  0.2624  1.2410
44370SOL     OW37666   3.808   1.539  10.032 -0.2268 -0.1542  0.3102
44370SOL    HW137667   3.787   1.569   9.943 -0.2059 -0.6552  0.1371
44370SOL    HW237668   3.774   1.609  10.088 -0.8065 -0.1283 -0.0581
44371SOL     OW37669  11.786   8.455   3.244 -0.5558 -0.4379  0.3558
44371SOL    HW137670  11.874   8.482   3.219 -0.1699 -0.9468  1.1576
44371SOL    HW237671  11.797   8.369   3.283 -1.0347  0.5910  2.9258
44372SOL     OW37672   0.748   8.739   6.396  0.1769 -0.4781 -0.0750
44372SOL    HW137673   0.674   8.685   6.370 -1.6507  1.3976  0.8837
44372SOL    HW237674   0.730   8.825   6.357  2.2345 -0.1534 -0.4015
44373SOL     OW37675   3.777   8.226   5.492  0.2333 -0.0612 -0.1090
44373SOL    HW137676   3.833   8.181   5.429  0.7571 -1.3323  1.1864
44373SOL    HW237677   3.820   8.210   5.577 -3.5785 -3.9312  1.4896
44374SOL     OW37678  11.724   9.711   1.612 -0.4752 -0.3891 -0.0315
44374SOL    HW137679  11.692   9.639   1.558 -0.3619  0.8165 -1.8238
44374SOL    HW237680  11.646   9.764   1.630 -0.0597  1.0455 -2.0270
44375SOL     OW37681   6.991   1.102   8.523  0.0447 -0.3966  0.6202
44375SOL    HW137682   6.965   1.101   8.431  0.8245 -1.4431  0.3912
44375SOL    HW237683   7.072   1.153   8.524 -1.1378  1.5748  1.1021
44376SOL     OW37684   5.360   2.972   8.786 -0.0231  0.1354  0.9256
44376SOL    HW137685   5.332   2.881   8.797 -0.4429  0.1829  0.3088
44376SOL    HW237686   5.447   2.966   8.746 -0.1500  0.0025  0.6657
44377SOL     OW37687   0.733   5.356  10.544 -0.2873  0.0411 -0.2622
44377SOL    HW137688   0.714   5.449  10.558  1.9229  0.7564 -1.5052
44377SOL    HW237689   0.828   5.349  10.555 -0.6292 -2.5859  2.1621
44378SOL     OW37690   7.804  11.954  11.635  0.8364  0.4222  0.3473
44378SOL    HW137691   7.878  11.908  11.675  1.1195  0.9687  0.4605
44378SOL    HW237692   7.774  12.016  11.702  0.5038  0.4553  0.1725
44379SOL     OW37693   4.797   9.987   6.211 -0.0585 -0.4328  0.1781
44379SOL    HW137694   4.732  10.050   6.244 -0.3580 -1.0959  0.8957
44379SOL    HW237695   4.745   9.917   6.172  0.2440 -0.6834  0.2195
44380SOL     OW37696  10.334   7.549   0.185  0.2886  0.3579 -0.6967
44380SOL    HW137697  10.356   7.486   0.252  2.1038  3.0914  1.5266
44380SOL    HW237698  10.238   7.557   0.188  0.1302 -1.4255 -0.3156
44381SOL     OW37699   7.389   4.800   1.347  0.8788  0.1758 -0.8830
44381SOL    HW137700   7.343   4.778   1.266 -2.8021  0.4459  0.9240
44381SOL    HW237701   7.345   4.747   1.414  3.3892  0.3924  1.0813
44382SOL     OW37702   2.479  10.180   9.318  0.2872  0.4449 -0.3313
44382SOL    HW137703   2.414  10.238   9.279  1.6484  0.3172 -3.0279
44382SOL    HW237704   2.534  10.153   9.244  1.6890 -1.6785  1.3772
44383SOL     OW37705   1.978   0.212   3.168  0.2388 -0.1642  0.3251
44383SOL    HW137706   1.953   0.124   3.193 -1.3632  0.1539 -0.0613
44383SOL    HW237707   1.900   0.249   3.128  0.7148  1.6087  0.9298
44384SOL     OW37708   2.602   1.765   5.853 -0.0638 -0.1620  0.2043
44384SOL    HW137709   2.586   1.783   5.946 -0.1746 -2.0294  0.5845
44384SOL    HW237710   2.524   1.799   5.808 -0.5704 -0.3486  0.9307
44385SOL     OW37711   2.363   3.642   7.280 -0.3165  0.4089  0.1121
44385SOL    HW137712   2.326   3.567   7.233  1.3544  0.8672 -2.1027
44385SOL    HW237713   2.422   3.603   7.345  0.1202 -0.2476 -0.6499
44386SOL     OW37714   9.157   7.851   8.894  0.3495  0.0517 -0.3265
44386SOL    HW137715   9.159   7.863   8.799 -2.0431 -0.7897 -0.5502
44386SOL    HW237716   9.187   7.762   8.908  0.0677 -0.0459 -0.3462
44387SOL     OW37717  10.387   9.427  10.417  0.0487 -0.0522 -0.0937
44387SOL    HW137718  10.327   9.382  10.357  1.3485 -3.0396  0.7004
44387SOL    HW237719  10.355   9.405  10.505  0.8723  0.4289  0.3425
44388SOL     OW37720   7.193   9.755  11.775 -0.2243  0.2534 -0.0654
44388SOL    HW137721   7.210   9.670  11.735  0.9597  0.5273 -0.1890
44388SOL    HW237722   7.100   9.771  11.760 -0.1522 -0.3839 -1.2876
44389SOL     OW37723   6.795   3.523  11.083 -0.6319  0.0997  0.8689
44389SOL    HW137724   6.826   3.606  11.046 -1.4576  0.2123  0.4135
44389SOL    HW237725   6.871   3.465  11.079  0.1242  0.9945  1.7139
44390SOL     OW37726   7.178  11.246  10.639 -0.3829  0.2298 -0.5189
44390SOL    HW137727   7.134  11.164  10.665  0.7164 -0.1795  0.1688
44390SOL    HW237728   7.209  11.230  10.550 -2.0622  0.7292 -1.2268
44391SOL     OW37729   6.253   7.651   2.174 -0.0650  0.2677 -0.4551
44391SOL    HW137730   6.234   7.601   2.254 -1.1342 -1.1150 -1.5279
44391SOL    HW237731   6.344   7.678   2.184 -0.8448  2.3104  2.3548
44392SOL     OW37732   7.423   1.119  10.487  0.2085  0.2025  0.1244
44392SOL    HW137733   7.410   1.036  10.532  0.5813 -0.4048 -0.8654
44392SOL    HW237734   7.467   1.175  10.551  0.7959 -0.6683  0.4971
44393SOL     OW37735   1.008   6.394   7.310  0.0660  0.8422  0.3622
44393SOL    HW137736   1.068   6.397   7.235  0.6207 -2.5042  0.5117
44393SOL    HW237737   0.923   6.371   7.272  0.4100 -1.1605  0.6774
44394SOL     OW37738   5.095   2.289  10.508  0.0001  0.6369 -0.0310
44394SOL    HW137739   5.075   2.231  10.434 -2.9081 -0.3456  1.3706
44394SOL    HW237740   5.185   2.317  10.493  0.6086 -2.0673 -2.2390
44395SOL     OW37741   0.140  10.235   1.656  0.3010 -0.0417 -0.2393
44395SOL    HW137742   0.056  10.205   1.622  0.3128 -0.3179 -0.0314
44395SOL    HW237743   0.141  10.205   1.747 -0.5992  2.4253  0.6397
44396SOL     OW37744   7.192   6.801  11.771 -0.1751 -0.1662  0.4560
44396SOL    HW137745   7.228   6.776  11.686  0.2660 -1.6852  1.0497
44396SOL    HW237746   7.257   6.860  11.809  0.7201 -1.2470  0.6506
44397SOL     OW37747   4.696   8.103   7.593 -0.6814 -0.2174  0.0973
44397SOL    HW137748   4.739   8.186   7.571 -0.6278 -0.6500 -1.5839
44397SOL    HW237749   4.606   8.114   7.562 -0.8627 -0.5316  0.5110
44398SOL     OW37750   6.855   1.219  10.574 -0.2726  0.1647 -0.0617
44398SOL    HW137751   6.839   1.300  10.526  2.1334  0.3458 -0.6739
44398SOL    HW237752   6.787   1.218  10.641 -0.0148  3.0030  0.3722
44399SOL     OW37753   3.938   3.659   5.227 -0.2554  0.0687 -0.5981
44399SOL    HW137754   3.871   3.632   5.289  0.8572 -2.0293 -0.2216
44399SOL    HW237755   3.891   3.673   5.145 -1.2441 -0.7900 -0.1985
44400SOL     OW37756   5.277   7.366  11.669 -0.2542 -0.1098 -0.0490
44400SOL    HW137757   5.246   7.442  11.718  0.5329 -1.4765  2.7959
44400SOL    HW237758   5.360   7.343  11.710 -1.4074 -3.6767  0.7325
44401SOL     OW37759  11.617   0.216   6.741  0.1322 -0.7476 -0.2944
44401SOL    HW137760  11.688   0.218   6.805 -0.3405  2.4646  0.3026
44401SOL    HW237761  11.552   0.157   6.780  1.0541 -1.1057  0.7615
44402SOL     OW37762   2.667   9.650   8.078 -0.4375  0.0117 -0.2237
44402SOL    HW137763   2.699   9.709   8.010 -2.0218  1.0591 -0.1238
44402SOL    HW237764   2.721   9.572   8.071 -0.6397  0.0349 -2.7797
44403SOL     OW37765   6.699   4.210   1.702  0.2987 -0.3347  0.1012
44403SOL    HW137766   6.758   4.146   1.663  0.6475 -0.1562  0.3345
44403SOL    HW237767   6.626   4.216   1.640  0.3377 -0.8367 -0.0016
44404SOL     OW37768   6.177   1.481  11.500  0.1848  0.0206  0.4851
44404SOL    HW137769   6.113   1.536  11.545  1.5125  0.0699  2.4264
44404SOL    HW237770   6.159   1.392  11.531 -0.7458 -0.4269 -1.1994
44405SOL     OW37771   6.376   8.306  11.927  0.1326 -0.0447  0.1558
44405SOL    HW137772   6.297   8.359  11.924  0.8078  1.0012  0.2245
44405SOL    HW237773   6.441   8.361  11.971  1.2301 -0.4061 -0.9431
44406SOL     OW37774   2.818   2.670   1.367 -0.3490 -0.2717  0.0509
44406SOL    HW137775   2.731   2.706   1.385 -1.7212 -2.2170 -2.1538
44406SOL    HW237776   2.832   2.686   1.274  0.9302 -1.4638  0.0055
44407SOL     OW37777   3.314   3.985   2.665 -0.3522  0.2847  0.9925
44407SOL    HW137778   3.322   4.072   2.702  0.1874 -0.2854  2.2797
44407SOL    HW237779   3.257   3.938   2.726  1.0353 -0.8503  1.4899
44408SOL     OW37780   5.452   4.325   9.525 -0.3255 -0.0908 -0.3414
44408SOL    HW137781   5.478   4.243   9.567  0.7887 -0.2819 -1.3236
44408SOL    HW237782   5.498   4.324   9.441 -2.4657  0.2576 -1.5992
44409SOL     OW37783   1.372   7.485   4.317 -0.0242 -0.3771  0.3349
44409SOL    HW137784   1.321   7.549   4.367 -0.5999 -0.2793 -0.3690
44409SOL    HW237785   1.343   7.496   4.227  2.6892  1.1260 -0.4966
44410SOL     OW37786  11.865   1.161   9.341  0.0540  0.0698 -0.0599
44410SOL    HW137787  11.870   1.255   9.328  3.0015  0.1843  1.0824
44410SOL    HW237788  11.910   1.124   9.265  0.0995 -0.3469  0.1691
44411SOL     OW37789   7.640   4.697  11.520  0.1154 -0.2718 -0.0274
44411SOL    HW137790   7.556   4.674  11.561  0.2126  0.7609  0.7737
44411SOL    HW237791   7.634   4.791  11.504  1.2323 -0.1277  0.3094
44412SOL     OW37792   3.539   3.717  11.746 -0.6682 -0.3950  0.2241
44412SOL    HW137793   3.520   3.806  11.773 -1.8764 -0.4039 -0.5287
44412SOL    HW237794   3.602   3.726  11.674  1.9040 -0.3406  2.3325
44413SOL     OW37795  10.721   0.807   4.568  0.0404 -0.0676 -0.0047
44413SOL    HW137796  10.766   0.725   4.552  3.0846  1.5342 -0.2671
44413SOL    HW237797  10.716   0.813   4.664 -1.4233 -1.0914  0.0248
44414SOL     OW37798  10.624   9.355   1.862  0.1058  0.0035  0.5693
44414SOL    HW137799  10.648   9.263   1.846 -0.0148 -0.1114  1.0531
44414SOL    HW237800  10.543   9.367   1.813  0.5491  0.0842 -0.1639
44415SOL     OW37801   4.627   4.091   8.870  0.1241 -0.3606 -0.4295
44415SOL    HW137802   4.593   4.155   8.933 -0.6203 -0.1264 -1.0491
44415SOL    HW237803   4.704   4.133   8.832 -0.0964 -0.0224 -0.5048
44416SOL     OW37804   6.853   9.444   7.342 -0.5328 -0.1042  0.1835
44416SOL    HW137805   6.815   9.370   7.389  1.2836 -1.3601 -0.2189
44416SOL    HW237806   6.892   9.499   7.411  1.3980 -1.5160  0.2998
44417SOL     OW37807   6.631   6.008   5.308 -0.2916 -0.4985  0.6824
44417SOL    HW137808   6.584   5.940   5.356  1.2757 -1.6487  0.6911
44417SOL    HW237809   6.656   5.966   5.225  0.4482  0.1394  0.5677
44418SOL     OW37810   8.940   0.540   4.065 -0.5307 -0.5874 -0.3579
44418SOL    HW137811   8.990   0.530   3.983  0.4657 -0.5449  0.2280
44418SOL    HW237812   9.001   0.584   4.124 -1.1246 -0.9272  0.5190
44419SOL     OW37813   6.690  12.118   3.794  0.4424  0.1069 -0.4680
44419SOL    HW137814   6.743  12.040   3.814  1.4307  0.9828  0.4780
44419SOL    HW237815   6.699  12.173   3.872  0.1406  1.3658 -1.3020
44420SOL     OW37816   3.115   3.267   2.785 -0.1371 -0.7392  0.6015
44420SOL    HW137817   3.134   3.180   2.749 -1.3813 -1.3738  1.4179
44420SOL    HW237818   3.171   3.273   2.862 -0.8244 -1.2591  1.1477
44421SOL     OW37819  10.053  10.217  12.078 -0.0330  0.1704 -0.1112
44421SOL    HW137820   9.975  10.268  12.057  1.3919  2.7652  0.5545
44421SOL    HW237821  10.065  10.159  12.003  0.5871  3.7282 -3.0324
44422SOL     OW37822   2.027   5.577   8.565  0.4246 -0.1276 -0.0731
44422SOL    HW137823   2.054   5.641   8.499  0.4032 -0.8141 -0.7627
44422SOL    HW237824   2.024   5.494   8.517  1.6479 -0.8705  1.0580
44423SOL     OW37825   9.124   3.552   4.357  0.0057 -0.3339  0.0614
44423SOL    HW137826   9.092   3.564   4.268 -1.7289 -0.5083  0.6207
44423SOL    HW237827   9.179   3.628   4.373  1.0553 -0.7472 -1.4438
44424SOL     OW37828   9.480   2.221   3.035 -0.4485  0.1711 -0.1447
44424SOL    HW137829   9.528   2.299   3.007 -0.3578  0.8129  1.6350
44424SOL    HW237830   9.388   2.248   3.034 -0.4828  0.0480 -0.2788
44425SOL     OW37831   9.447   5.159   7.166 -0.1189  0.0928 -0.2870
44425SOL    HW137832   9.534   5.158   7.126  0.9494 -0.8034  1.8925
44425SOL    HW237833   9.404   5.081   7.130 -0.6476  1.3349 -2.5208
44426SOL     OW37834   5.365  11.892   7.080  0.2245 -0.2857  0.1663
44426SOL    HW137835   5.374  11.975   7.033 -0.5149  1.5502  3.0317
44426SOL    HW237836   5.270  11.876   7.082  0.3570 -1.1369 -0.2535
44427SOL     OW37837   8.778   6.219   7.555 -0.4122 -0.5591 -0.2738
44427SOL    HW137838   8.868   6.210   7.586 -0.8657 -0.4282  1.1466
44427SOL    HW237839   8.756   6.311   7.570 -1.1528 -0.8452  0.4707
44428SOL     OW37840  11.592   0.314   3.237  0.0004 -0.1872  0.2302
44428SOL    HW137841  11.642   0.375   3.183  0.1999 -1.0050 -0.5264
44428SOL    HW237842  11.577   0.238   3.181  1.7325 -1.8234  1.8115
44429SOL     OW37843   0.696   0.276   0.942  0.4580 -0.2845  0.2540
44429SOL    HW137844   0.658   0.194   0.908  0.8225 -1.5184  2.6168
44429SOL    HW237845   0.633   0.305   1.008  0.5387  1.1721 -0.2771
44430SOL     OW37846   8.055   8.424  11.144 -0.3241  0.0162 -0.4582
44430SOL    HW137847   8.029   8.356  11.081  0.1057  0.3686 -1.0319
44430SOL    HW237848   8.142   8.396  11.174 -1.0660 -0.8341  0.9812
44431SOL     OW37849   1.930   0.049   4.978  0.1331  0.1714 -0.0883
44431SOL    HW137850   1.980   0.108   4.922 -1.2285  1.7461  0.3002
44431SOL    HW237851   1.870   0.106   5.027 -1.1197 -1.5101  0.4351
44432SOL     OW37852   3.267  10.653   1.808 -0.2321  0.6637 -0.4567
44432SOL    HW137853   3.342  10.623   1.860 -0.1396  0.1256 -0.8938
44432SOL    HW237854   3.274  10.606   1.725 -0.8532  0.8822 -0.6425
44433SOL     OW37855   1.858   0.709   5.947 -0.0584 -0.3636  0.0989
44433SOL    HW137856   1.817   0.723   6.032 -0.4810 -0.1389 -0.1370
44433SOL    HW237857   1.788   0.673   5.892 -0.0157  0.2659 -0.3797
44434SOL     OW37858   1.245   0.074   8.337  0.0319  0.4745 -0.2441
44434SOL    HW137859   1.206   0.001   8.290 -1.2566  0.0018  1.4376
44434SOL    HW237860   1.170   0.129   8.362  0.9900  2.6946 -1.8889
44435SOL     OW37861   3.078  11.942  10.107 -0.0787  0.6974  0.2325
44435SOL    HW137862   3.031  11.963  10.027 -1.0687  0.9747  0.8715
44435SOL    HW237863   3.170  11.957  10.086 -0.4005  1.5473 -0.6010
44436SOL     OW37864  10.712   0.735   5.884  0.0296 -0.3426  0.9227
44436SOL    HW137865  10.622   0.711   5.864  0.0122  0.1918  0.3528
44436SOL    HW237866  10.729   0.813   5.832  1.2250 -1.1466  0.0289
44437SOL     OW37867   2.954   0.233   8.047 -0.9936 -0.1805 -0.0603
44437SOL    HW137868   2.955   0.255   8.140  0.6682 -0.5012  0.0150
44437SOL    HW237869   2.895   0.158   8.041 -0.1965 -0.9004  0.9186
44438SOL     OW37870   2.502   7.027   7.974  0.8288  0.1030 -0.0505
44438SOL    HW137871   2.472   7.102   7.923  1.0666  0.4957  0.3786
44438SOL    HW237872   2.497   7.056   8.065  1.8786 -0.0424  0.0691
44439SOL     OW37873   2.082   3.915   7.621  0.3464 -0.0832 -0.2018
44439SOL    HW137874   2.002   3.893   7.572 -0.1652 -1.4269  1.1442
44439SOL    HW237875   2.153   3.899   7.559 -0.3854  0.4205 -1.1940
44440SOL     OW37876  10.106   4.019   9.968 -0.1876  0.1875  0.0224
44440SOL    HW137877  10.040   4.062   9.914 -1.2369  1.2378  1.9999
44440SOL    HW237878  10.163   4.090   9.998 -0.0815 -0.2275  0.8586
44441SOL     OW37879   2.689   1.792   2.173 -0.4127  0.3217 -0.2013
44441SOL    HW137880   2.750   1.720   2.164 -2.0992 -1.1295 -0.6583
44441SOL    HW237881   2.722   1.843   2.247  0.3930 -1.3633  0.6458
44442SOL     OW37882   5.542   2.181   6.734  0.6397  0.4805  0.0211
44442SOL    HW137883   5.491   2.223   6.803  0.9972  1.6900 -0.4357
44442SOL    HW237884   5.498   2.097   6.720 -0.5910  1.0462  0.3681
44443SOL     OW37885   7.524   5.914   7.208 -0.5157  0.0723  0.3019
44443SOL    HW137886   7.499   5.947   7.294  0.3944  2.4176 -0.2428
44443SOL    HW237887   7.441   5.892   7.166 -0.9246 -2.5591  2.2038
44444SOL     OW37888  10.028   2.978   6.474 -0.0689  0.2185  0.8589
44444SOL    HW137889   9.966   3.050   6.482  0.7987  0.8453  2.3656
44444SOL    HW237890   9.981   2.911   6.425 -1.2850  1.3609  0.3936
44445SOL     OW37891   4.084   5.066   6.970  0.1363 -0.6011 -0.3262
44445SOL    HW137892   4.175   5.054   6.998  0.1833 -1.4131 -0.8090
44445SOL    HW237893   4.091   5.099   6.881 -0.0253  1.5551  0.3981
44446SOL     OW37894   0.825   8.665   5.604 -0.3039 -0.2952 -0.1664
44446SOL    HW137895   0.813   8.578   5.643 -0.5985 -0.4213 -0.5282
44446SOL    HW237896   0.763   8.721   5.651  0.4280 -0.1040  0.5980
44447SOL     OW37897  10.703   3.527   1.301  0.0885 -0.3038  0.6055
44447SOL    HW137898  10.760   3.535   1.224 -0.7976 -1.6150 -0.2189
44447SOL    HW237899  10.649   3.605   1.299  2.4449  1.5121  1.9771
44448SOL     OW37900   8.788   6.967   5.778  0.0145  0.6663  0.3585
44448SOL    HW137901   8.747   6.944   5.695 -0.0082 -0.0555  0.5669
44448SOL    HW237902   8.881   6.947   5.766  0.1908  1.5640  0.1518
44449SOL     OW37903   2.484   4.380   5.266 -0.3368  0.7322 -0.3644
44449SOL    HW137904   2.443   4.319   5.328 -0.3220  2.5659  1.5551
44449SOL    HW237905   2.434   4.461   5.276  2.9213  2.7248  1.2717
44450SOL     OW37906   7.540   2.932   1.374  0.0608 -0.8175 -0.9611
44450SOL    HW137907   7.516   2.962   1.286 -2.1863  1.0791  0.1898
44450SOL    HW237908   7.480   2.860   1.392 -0.1889 -0.5246 -0.6103
44451SOL     OW37909   3.569   8.122   8.452 -0.2819  0.6986  0.1830
44451SOL    HW137910   3.605   8.209   8.470  0.9453  0.4665 -0.9978
44451SOL    HW237911   3.601   8.100   8.364 -0.8556 -0.8011  0.3142
44452SOL     OW37912   4.242   9.132   5.361 -0.0454  0.0749 -0.5004
44452SOL    HW137913   4.325   9.175   5.384  0.1862 -0.7802  0.2837
44452SOL    HW237914   4.234   9.147   5.267  0.5090  1.0048 -0.4195
44453SOL     OW37915   7.585   0.493  12.025 -0.1015 -0.4518 -0.0618
44453SOL    HW137916   7.579   0.500  12.120  2.9702  0.8781  0.1632
44453SOL    HW237917   7.499   0.519  11.993 -1.0038 -0.2767  2.3333
44454SOL     OW37918   8.699   8.186   9.186  0.7382 -0.5215  0.2471
44454SOL    HW137919   8.682   8.201   9.279  0.7230  1.9653 -0.0874
44454SOL    HW237920   8.623   8.223   9.142  1.2865 -0.6172 -0.7916
44455SOL     OW37921   4.896   8.425  11.903  0.7353  0.1409 -0.3014
44455SOL    HW137922   4.845   8.361  11.952  0.7424  2.5022  3.1762
44455SOL    HW237923   4.987   8.403  11.922  0.7350  1.1780  1.0237
44456SOL     OW37924   4.125   9.630   6.226 -0.0272 -0.3177  0.0842
44456SOL    HW137925   4.039   9.663   6.254  0.9755  0.5349  2.4066
44456SOL    HW237926   4.176   9.709   6.208  0.5643 -0.7827 -0.3110
44457SOL     OW37927   0.945   7.434   5.918 -0.7099  0.2192 -0.2825
44457SOL    HW137928   0.928   7.482   5.837 -2.5544  1.3610  0.7092
44457SOL    HW237929   0.971   7.501   5.981 -0.4129 -0.4955  0.3677
44458SOL     OW37930   2.202   2.892  11.210 -0.5164  0.0294 -0.7216
44458SOL    HW137931   2.195   2.966  11.270 -0.0115 -0.6165  0.1514
44458SOL    HW237932   2.292   2.861  11.221 -1.6511 -2.9030  1.5855
44459SOL     OW37933   2.949   5.289   9.366 -0.4985  0.4774 -0.1773
44459SOL    HW137934   2.896   5.254   9.295 -0.9333  0.5164  0.1273
44459SOL    HW237935   2.999   5.360   9.325 -1.0587  0.7752 -0.3520
44460SOL     OW37936   6.697   1.861  11.822 -0.3666 -0.1993 -0.3060
44460SOL    HW137937   6.703   1.897  11.911 -0.1318  0.2101 -0.4873
44460SOL    HW237938   6.645   1.781  11.833 -1.6568  0.6391 -0.0235
44461SOL     OW37939  10.650   8.702  10.182 -0.2686 -0.4922 -0.1929
44461SOL    HW137940  10.696   8.769  10.233 -1.3667  0.0083  0.1636
44461SOL    HW237941  10.614   8.642  10.247  0.5827 -1.3711 -0.5060
44462SOL     OW37942  10.662   1.989   9.511  0.3224 -0.1318  0.0789
44462SOL    HW137943  10.651   2.066   9.456 -1.6569 -0.4020  0.0471
44462SOL    HW237944  10.706   1.925   9.455  1.0283  0.6051 -0.2190
44463SOL     OW37945   9.768   9.284   7.168 -0.2337  0.1447 -0.0561
44463SOL    HW137946   9.816   9.365   7.156  0.1614 -0.2037 -0.8631
44463SOL    HW237947   9.706   9.303   7.238  0.7182  0.7518  0.6402
44464SOL     OW37948   5.711   7.214   6.657  0.0594 -0.4866 -0.0781
44464SOL    HW137949   5.670   7.240   6.575  0.1781 -1.5631 -0.4829
44464SOL    HW237950   5.722   7.297   6.705 -0.8720  0.0378 -0.7360
44465SOL     OW37951   4.981   5.647   6.100  0.1653  0.1780 -0.5221
44465SOL    HW137952   4.889   5.663   6.120  0.5030  0.3543  1.0024
44465SOL    HW237953   5.003   5.570   6.152  0.9654  0.3389 -0.6190
44466SOL     OW37954  11.337   6.044   4.074  0.3947 -0.4418 -0.2477
44466SOL    HW137955  11.360   6.016   3.985 -0.6422 -0.7144 -0.4514
44466SOL    HW237956  11.327   6.139   4.067  1.1748 -0.3494 -0.2092
44467SOL     OW37957   5.750   5.895   5.364  0.3602  0.3790 -0.7773
44467SOL    HW137958   5.834   5.849   5.360  1.4364  2.1258  0.2292
44467SOL    HW237959   5.705   5.872   5.283  1.3356 -1.4575 -0.8357
44468SOL     OW37960   7.448   3.377   5.010 -0.2910 -0.2976 -0.2120
44468SOL    HW137961   7.391   3.448   5.041  2.2750  2.5736 -1.4972
44468SOL    HW237962   7.517   3.372   5.076  0.2720 -0.6470 -0.8259
44469SOL     OW37963   6.270   4.935   6.173 -0.4254  0.7222 -0.0389
44469SOL    HW137964   6.331   4.970   6.108  0.5334 -1.2771 -0.2894
44469SOL    HW237965   6.319   4.940   6.256 -0.0153 -0.5727 -0.1853
44470SOL     OW37966   7.746   7.800   2.694 -0.0994 -0.6144  0.8213
44470SOL    HW137967   7.829   7.760   2.670 -1.3158 -2.7347 -0.1270
44470SOL    HW237968   7.763   7.894   2.691  1.5561 -0.8994 -2.0223
44471SOL     OW37969   3.894  11.209   9.372 -0.4063  0.4402  0.4985
44471SOL    HW137970   3.813  11.162   9.349  0.3575  0.6797 -3.4675
44471SOL    HW237971   3.962  11.143   9.365  0.0498  0.8699  0.8621
44472SOL     OW37972   6.469   6.654  11.519 -0.2535 -0.1868  0.2957
44472SOL    HW137973   6.561   6.666  11.495  0.0165 -1.4830  0.6516
44472SOL    HW237974   6.434   6.598  11.451 -0.5311 -0.5006  0.6980
44473SOL     OW37975   8.900   4.562   2.012 -0.2106  0.6042  0.2251
44473SOL    HW137976   8.913   4.468   2.020 -0.1437  0.6516  0.6833
44473SOL    HW237977   8.853   4.587   2.091 -1.7232  0.6910 -0.6709
44474SOL     OW37978   4.109   7.419  10.575  0.0823  0.4189 -0.4458
44474SOL    HW137979   4.030   7.459  10.539  0.5055  1.6880 -0.0148
44474SOL    HW237980   4.136   7.479  10.645 -0.2190 -1.5133  1.4264
44475SOL     OW37981   7.109   7.346   7.489  0.1758  0.4840  0.2116
44475SOL    HW137982   7.087   7.288   7.562  1.9538  0.9387  1.1729
44475SOL    HW237983   7.052   7.422   7.501 -0.2405  0.1233  0.5451
44476SOL     OW37984   2.006  10.586   5.634 -0.1131  0.5429 -0.8334
44476SOL    HW137985   2.096  10.580   5.666  0.1063  0.7174 -1.4011
44476SOL    HW237986   2.015  10.597   5.540 -0.7533 -0.2840 -1.0042
44477SOL     OW37987   4.071   6.548   1.994  0.2659 -0.5881  0.1549
44477SOL    HW137988   4.071   6.553   1.898 -0.1654  0.2476  0.1916
44477SOL    HW237989   4.105   6.633   2.022 -0.6062 -0.4348  0.7616
44478SOL     OW37990  10.033   6.506   1.415 -0.0606 -0.3084  0.1550
44478SOL    HW137991   9.981   6.573   1.371 -0.8624  0.3229  1.9844
44478SOL    HW237992   9.972   6.434   1.430  0.0612 -0.2992  0.7006
44479SOL     OW37993  12.007  11.170   3.830  0.0681  0.7013  0.4260
44479SOL    HW137994  12.007  11.226   3.753  0.2700 -0.8499 -0.7634
44479SOL    HW237995  12.099  11.167   3.858  0.2740 -0.0179 -0.2875
44480SOL     OW37996   0.773   9.048   3.097 -0.2424  0.4049 -0.1173
44480SOL    HW137997   0.810   9.084   3.177 -0.4665  1.4446 -0.4645
44480SOL    HW237998   0.827   8.972   3.077  0.4818  0.7647  0.4406
44481SOL     OW37999   8.389   9.568   3.414 -0.0912 -0.0804 -0.3199
44481SOL    HW138000   8.424   9.597   3.498 -0.5426 -0.8306  0.1377
44481SOL    HW238001   8.299   9.603   3.413  0.1559  0.5656 -0.8293
44482SOL     OW38002  10.429   0.556   2.504 -0.5231 -0.1157  0.2985
44482SOL    HW138003  10.368   0.501   2.554 -2.4166  0.5938 -1.1207
44482SOL    HW238004  10.419   0.644   2.541  0.7313 -0.2263  0.9782
44483SOL     OW38005   0.423   1.440   1.783 -0.2756 -0.1449 -0.5311
44483SOL    HW138006   0.495   1.468   1.726 -0.2168 -1.4855 -1.1707
44483SOL    HW238007   0.352   1.419   1.722 -0.6596 -0.3420 -0.0157
44484SOL     OW38008   6.930   7.630  10.733 -0.3264  0.2858 -0.1203
44484SOL    HW138009   6.961   7.578  10.659 -0.7703 -0.1472 -0.0054
44484SOL    HW238010   6.972   7.716  10.721  0.2182 -0.0227 -0.4361
44485SOL     OW38011   3.570   2.605  11.158  0.2541  0.6711  0.0355
44485SOL    HW138012   3.507   2.641  11.220 -0.1596  0.1978 -0.0957
44485SOL    HW238013   3.534   2.519  11.136  0.8125  0.5058 -0.2463
44486SOL     OW38014   2.002   3.376   9.819  0.4687  0.4365  0.4532
44486SOL    HW138015   1.975   3.439   9.885  1.8746  1.2064  0.3291
44486SOL    HW238016   1.982   3.417   9.736 -0.7327 -0.2752  0.3680
44487SOL     OW38017   6.635   3.958   3.044 -0.0322 -0.2056 -0.1329
44487SOL    HW138018   6.608   3.981   3.133  0.6731  2.0521 -0.4355
44487SOL    HW238019   6.587   3.878   3.024 -3.9860  1.7468  0.5320
44488SOL     OW38020  10.205  11.877   7.352 -0.4815 -0.4825  0.3877
44488SOL    HW138021  10.180  11.828   7.274 -2.2442 -1.6128  1.5768
44488SOL    HW238022  10.301  11.882   7.349 -0.4916 -0.9385 -1.5505
44489SOL     OW38023   7.429   6.078   9.162 -0.5358 -0.1696  0.1006
44489SOL    HW138024   7.515   6.091   9.122 -0.3945  0.3210  0.5616
44489SOL    HW238025   7.425   5.983   9.178  1.1370  0.0943  2.7326
44490SOL     OW38026   4.729  11.894   4.992 -0.8332 -0.7664 -0.0588
44490SOL    HW138027   4.712  11.978   4.949  0.8642 -1.3081 -1.9318
44490SOL    HW238028   4.645  11.848   4.989 -1.2489  0.0104 -0.9913
44491SOL     OW38029   2.613   9.066   9.616 -0.3693  0.3831  0.3732
44491SOL    HW138030   2.590   9.159   9.605 -0.9821  0.5009  2.2228
44491SOL    HW238031   2.709   9.066   9.620 -0.1707  0.5391 -2.3191
44492SOL     OW38032   8.798  11.173   9.502 -0.4120 -0.3409  0.3155
44492SOL    HW138033   8.794  11.221   9.585 -0.5051 -1.4534  0.9694
44492SOL    HW238034   8.766  11.086   9.523 -0.3791 -0.6588 -0.8880
44493SOL     OW38035   6.134  11.740   7.124  0.4315 -0.5488  0.3349
44493SOL    HW138036   6.116  11.831   7.099  2.2143 -0.4618 -0.8606
44493SOL    HW238037   6.230  11.735   7.127  0.4969 -3.0185 -2.1746
44494SOL     OW38038   7.015   2.242   4.735 -0.1510 -0.0139 -0.0528
44494SOL    HW138039   7.023   2.337   4.744  1.3931  0.0336 -1.4239
44494SOL    HW238040   7.021   2.208   4.824 -1.4887  1.1845  0.5305
44495SOL     OW38041   9.268   2.115   6.654  0.2314  0.3050  0.4379
44495SOL    HW138042   9.344   2.151   6.700  0.8934  2.6125 -2.1554
44495SOL    HW238043   9.301   2.094   6.566 -1.8494  0.2230 -0.3912
44496SOL     OW38044   3.700  10.288   2.821  0.4812 -0.0813 -0.6155
44496SOL    HW138045   3.711  10.193   2.819  0.7850 -0.0434 -0.7103
44496SOL    HW238046   3.655  10.308   2.738 -0.2391 -0.2230 -0.2658
44497SOL     OW38047   8.383   0.367   1.865 -0.0161 -0.2298  0.4951
44497SOL    HW138048   8.295   0.383   1.901  0.3727 -2.9057  3.0067
44497SOL    HW238049   8.368   0.308   1.791 -0.4877  1.9824 -1.2915
44498SOL     OW38050   8.362   5.871   1.570 -0.3258 -0.2767 -0.1034
44498SOL    HW138051   8.457   5.877   1.582 -0.3675 -1.4488  1.0763
44498SOL    HW238052   8.326   5.892   1.656 -1.3019  2.5349 -1.1074
44499SOL     OW38053   4.644   8.585   0.863  0.3761 -0.2885  0.2635
44499SOL    HW138054   4.711   8.643   0.899 -0.2546 -0.7202  2.2774
44499SOL    HW238055   4.563   8.611   0.907 -0.7656 -0.0206 -1.8352
44500SOL     OW38056   7.984   8.072   9.284  0.0369 -0.1186  0.2179
44500SOL    HW138057   7.900   8.115   9.271  0.4293  0.8175  0.6872
44500SOL    HW238058   7.985   8.000   9.220  0.3143  1.9369 -2.2461
44501SOL     OW38059  10.848  11.068   9.479 -0.0999  0.1304  0.2668
44501SOL    HW138060  10.757  11.057   9.454 -0.4442  2.9203 -0.0488
44501SOL    HW238061  10.898  11.046   9.401 -0.7896  2.1667 -0.8248
44502SOL     OW38062   4.832   5.831   9.389 -0.0842 -0.2894  0.0269
44502SOL    HW138063   4.832   5.778   9.310  2.1856  0.9580 -0.8856
44502SOL    HW238064   4.794   5.915   9.362 -0.1877 -0.1771  0.5059
44503SOL     OW38065  11.147   0.183   9.243  0.0906 -0.3829  0.2785
44503SOL    HW138066  11.193   0.149   9.320  2.2990  0.7552 -0.4604
44503SOL    HW238067  11.066   0.131   9.238 -0.3420 -0.1943  3.5679
44504SOL     OW38068  10.484   8.600   9.735 -0.0166  0.0341 -0.4852
44504SOL    HW138069  10.461   8.536   9.668 -0.2740  1.1839 -1.5301
44504SOL    HW238070  10.421   8.585   9.805  0.1823 -1.1096 -0.5338
44505SOL     OW38071   6.525   1.551   9.545 -0.3089 -0.6641 -0.2366
44505SOL    HW138072   6.455   1.613   9.568 -0.3261 -0.6531 -0.3181
44505SOL    HW238073   6.595   1.607   9.512  0.9119 -0.3466  2.5458
44506SOL     OW38074  10.842   4.379  10.354 -0.3284 -0.4606 -0.2821
44506SOL    HW138075  10.766   4.427  10.321  0.0487 -1.2233 -2.3661
44506SOL    HW238076  10.807   4.294  10.381 -0.1865 -0.9610 -1.6183
44507SOL     OW38077   6.373   4.122   2.228  0.7960 -0.2557  0.2583
44507SOL    HW138078   6.307   4.134   2.160  1.2799  2.8771  0.1732
44507SOL    HW238079   6.454   4.153   2.188  1.0796  1.7738  2.1994
44508SOL     OW38080  11.904   2.292   2.741  0.1963 -0.4464  0.0692
44508SOL    HW138081  11.942   2.212   2.779  1.6490  1.5727  3.3184
44508SOL    HW238082  11.964   2.316   2.671  0.6195 -1.3354  0.1082
44509SOL     OW38083   0.118   0.303   1.685 -0.4225  0.1722 -0.1680
44509SOL    HW138084   0.082   0.227   1.731 -0.2618 -0.7261 -1.4835
44509SOL    HW238085   0.207   0.312   1.721 -0.2293 -0.6327 -0.4170
44510SOL     OW38086  11.852  11.069   0.918  0.4016  0.2025  0.4399
44510SOL    HW138087  11.760  11.096   0.916  0.0782 -0.8613 -1.4126
44510SOL    HW238088  11.902  11.149   0.901 -0.2190  0.6355  0.6277
44511SOL     OW38089   0.142   5.428   0.408 -0.0015  0.0598 -0.9734
44511SOL    HW138090   0.096   5.355   0.366 -1.1722 -1.4845  2.5497
44511SOL    HW238091   0.094   5.506   0.382 -1.8002 -1.0192 -1.0072
44512SOL     OW38092   2.463   0.460   9.680  1.0304 -0.0785 -0.3652
44512SOL    HW138093   2.455   0.365   9.679 -0.7493 -0.1083  3.0658
44512SOL    HW238094   2.553   0.477   9.710  1.1886 -0.6847 -0.4948
44513SOL     OW38095   7.384  10.584   1.895 -0.1235 -0.0368 -0.2980
44513SOL    HW138096   7.412  10.664   1.851  1.5327 -2.0303 -3.2061
44513SOL    HW238097   7.290  10.596   1.909  0.3824  3.1384  1.2370
44514SOL     OW38098   1.854   6.653  11.167 -0.1555  0.7203 -0.2978
44514SOL    HW138099   1.942   6.617  11.161 -0.0006  1.1145 -0.3864
44514SOL    HW238100   1.851   6.722  11.101 -0.2193  1.3498  0.3497
44515SOL     OW38101   5.539   3.914   4.794 -0.5917  0.1907 -0.7149
44515SOL    HW138102   5.512   3.842   4.851  1.3509  0.1679  0.2713
44515SOL    HW238103   5.606   3.960   4.845  0.4602  0.8050 -2.5650
44516SOL     OW38104   1.738   2.238   3.820 -0.1337  0.2760 -0.4852
44516SOL    HW138105   1.740   2.309   3.756  0.7785  1.1601  0.4919
44516SOL    HW238106   1.805   2.176   3.790 -0.6856 -0.0253 -1.1388
44517SOL     OW38107   0.487  10.656   9.151  0.4727  0.3007 -0.3417
44517SOL    HW138108   0.464  10.728   9.092 -0.4221 -0.7101 -1.2730
44517SOL    HW238109   0.459  10.577   9.105 -0.4801 -0.5283  1.5305
44518SOL     OW38110   1.771  11.474   7.513  0.8360 -0.2853 -0.5789
44518SOL    HW138111   1.696  11.423   7.482 -1.0340  2.9693 -1.9418
44518SOL    HW238112   1.834  11.471   7.441  0.5298 -0.2615 -0.8464
44519SOL     OW38113   2.141   7.363   5.205 -0.0640  0.4947 -0.1404
44519SOL    HW138114   2.055   7.350   5.163  0.6526 -0.9690 -1.2590
44519SOL    HW238115   2.180   7.437   5.158  0.2766 -0.4284 -1.3596
44520SOL     OW38116  10.883   8.189   2.173 -0.1217 -0.2869 -0.1638
44520SOL    HW138117  10.831   8.109   2.170 -2.6661  1.2884 -0.8794
44520SOL    HW238118  10.830   8.251   2.223  1.9413  0.8990  0.7187
44521SOL     OW38119   5.998  11.625   8.111  0.2390  0.3846 -0.4918
44521SOL    HW138120   5.909  11.661   8.105  0.1558  0.2927  0.1547
44521SOL    HW238121   5.991  11.536   8.077  0.5191  1.0679 -2.4610
44522SOL     OW38122   5.926   6.317   6.263  0.0002 -0.2412  0.1118
44522SOL    HW138123   5.932   6.403   6.305 -0.9594  0.2230 -0.6613
44522SOL    HW238124   6.004   6.312   6.208  1.4575 -0.9986  2.1107
44523SOL     OW38125   1.382   7.083   8.090 -0.4372  0.8417  0.5104
44523SOL    HW138126   1.378   7.007   8.032 -2.4664  0.8579  0.5663
44523SOL    HW238127   1.431   7.053   8.166 -0.3754 -0.1103  0.1060
44524SOL     OW38128   6.485   4.856   4.611 -0.3789  0.0257 -0.0285
44524SOL    HW138129   6.443   4.793   4.669 -0.3413  0.7264  0.7660
44524SOL    HW238130   6.570   4.873   4.651 -0.5501  0.8885 -0.0170
44525SOL     OW38131   8.496   9.063   7.699 -0.1728 -0.7027  0.5712
44525SOL    HW138132   8.474   9.118   7.624 -1.2543 -1.1719  0.5242
44525SOL    HW238133   8.586   9.087   7.722 -0.2847  0.3541 -0.0723
44526SOL     OW38134   0.172   7.651   7.148  0.0410 -0.9291 -0.1958
44526SOL    HW138135   0.114   7.684   7.217  0.8591 -1.8513  0.9606
44526SOL    HW238136   0.115   7.598   7.092 -0.2045 -2.0891  1.1021
44527SOL     OW38137   5.289   5.055   4.608  0.1650  0.2660 -0.3937
44527SOL    HW138138   5.330   5.141   4.613  1.4908 -0.1596 -2.4633
44527SOL    HW238139   5.220   5.057   4.674 -0.2053  3.0940 -0.7464
44528SOL     OW38140   1.738   8.154  11.309  0.1385 -0.2884  0.0735
44528SOL    HW138141   1.735   8.059  11.322  0.7548 -0.3373 -0.1140
44528SOL    HW238142   1.807   8.184  11.367 -2.1105  0.4936  2.5779
44529SOL     OW38143   1.519   0.061   7.953 -0.7664  0.4669  0.5465
44529SOL    HW138144   1.515   0.124   8.026 -0.8802  1.5226 -0.3488
44529SOL    HW238145   1.581  -0.006   7.983 -1.0259  0.7310  1.7289
44530SOL     OW38146  10.868   4.462   5.776  0.0880  0.3849  0.2804
44530SOL    HW138147  10.860   4.531   5.710  1.6142  0.1518 -0.1757
44530SOL    HW238148  10.955   4.475   5.814 -0.4622  0.0291  1.7068
44531SOL     OW38149   0.809   5.549   8.931 -0.0600 -0.1875  0.1132
44531SOL    HW138150   0.879   5.490   8.903  0.4366  0.1812  0.5514
44531SOL    HW238151   0.824   5.629   8.880 -0.9281 -0.5425 -0.7248
44532SOL     OW38152   2.201   2.247   9.511 -0.2395  0.4917  0.2410
44532SOL    HW138153   2.130   2.252   9.448  0.9890  1.6928 -1.1336
44532SOL    HW238154   2.263   2.186   9.473 -0.1466  0.0879  1.0202
44533SOL     OW38155   5.252   4.646   6.481 -0.3459 -0.3311 -0.5476
44533SOL    HW138156   5.278   4.656   6.572  0.4142 -0.4268 -0.7475
44533SOL    HW238157   5.332   4.621   6.435 -0.1008  2.2767 -1.7060
44534SOL     OW38158  10.677   9.093   1.841  0.6890  0.1195 -0.0228
44534SOL    HW138159  10.585   9.069   1.828  0.2765  1.0687  1.0137
44534SOL    HW238160  10.726   9.015   1.812 -0.4307 -0.4645 -0.4312
44535SOL     OW38161   9.130   6.366   7.597 -0.3618 -0.3612 -0.0698
44535SOL    HW138162   9.218   6.361   7.635 -0.9294 -0.7627  1.2629
44535SOL    HW238163   9.111   6.277   7.568 -0.1528 -0.1752 -0.7814
44536SOL     OW38164   8.006  10.451   6.817  0.0154  0.0486  0.7674
44536SOL    HW138165   8.072  10.394   6.857 -1.2683 -0.1992  2.7132
44536SOL    HW238166   8.009  10.532   6.870 -0.7895  0.2662  0.4967
44537SOL     OW38167  10.520   4.654   4.006 -0.0014 -0.2528  0.0583
44537SOL    HW138168  10.473   4.659   3.923 -1.5869 -0.3077  0.9263
44537SOL    HW238169  10.459   4.690   4.071  0.5137 -1.8221  1.4896
44538SOL     OW38170   3.192   5.955   8.413 -0.1619  0.2961  0.2218
44538SOL    HW138171   3.170   6.015   8.484  1.4845 -1.2025  2.1426
44538SOL    HW238172   3.285   5.934   8.427 -0.0835 -0.9239 -1.7168
44539SOL     OW38173   2.976   7.036   5.449  0.2252 -0.4558 -0.3708
44539SOL    HW138174   3.055   7.015   5.398  0.7028  1.5951 -0.5424
44539SOL    HW238175   3.008   7.051   5.538 -0.3500 -2.0845  0.1505
44540SOL     OW38176   6.169   6.892   4.606 -0.5802  0.1609  0.0326
44540SOL    HW138177   6.198   6.883   4.697  0.7842  0.8046 -0.3126
44540SOL    HW238178   6.199   6.812   4.563  1.4071  1.1191 -0.4780
44541SOL     OW38179   7.200   1.481  11.682  0.3246  0.1933  0.0892
44541SOL    HW138180   7.154   1.488  11.598  0.9319  0.5345 -0.2240
44541SOL    HW238181   7.249   1.563  11.689 -0.6231  0.6992  1.3277
44542SOL     OW38182   5.604   3.010   8.648 -0.2615 -0.2070  0.0398
44542SOL    HW138183   5.568   2.989   8.562  3.1520 -2.8805 -0.9552
44542SOL    HW238184   5.659   3.087   8.633 -0.3231 -0.1638  0.0354
44543SOL     OW38185  11.032   2.210   5.836 -0.5384  0.7452  0.2110
44543SOL    HW138186  10.985   2.236   5.756 -1.2793 -1.3180 -0.0955
44543SOL    HW238187  11.001   2.121   5.853 -0.8028  1.3092  3.1345
44544SOL     OW38188   8.179   8.374  10.443 -0.1467  0.3190 -0.1991
44544SOL    HW138189   8.087   8.384  10.468 -0.1427 -0.3443  0.0952
44544SOL    HW238190   8.178   8.315  10.368 -0.0712  1.5261 -1.1863
44545SOL     OW38191   5.904   0.933   8.819 -0.3920  0.0513 -0.0227
44545SOL    HW138192   5.829   0.879   8.843 -1.1370  1.8951  2.0889
44545SOL    HW238193   5.895   0.946   8.725 -1.7031 -1.1985 -0.1092
44546SOL     OW38194   1.703   1.972   2.251 -0.0528  0.0674  0.5182
44546SOL    HW138195   1.749   1.935   2.326  0.9448  0.0259 -0.0908
44546SOL    HW238196   1.709   2.067   2.264  0.8013  0.0779  0.1109
44547SOL     OW38197   8.211   9.591   4.498  0.1322 -0.1765  0.1981
44547SOL    HW138198   8.205   9.495   4.502  2.0342 -0.3977 -0.7970
44547SOL    HW238199   8.294   9.611   4.541 -0.0792  0.9837  0.0800
44548SOL     OW38200   7.007   7.035  11.754  0.1002 -0.4744 -0.3342
44548SOL    HW138201   7.067   6.961  11.767 -1.2701 -1.8299 -1.3983
44548SOL    HW238202   7.058   7.098  11.702  0.9297 -1.1639 -0.3864
44549SOL     OW38203   4.672   1.904   2.603 -0.2485  0.3389 -0.2766
44549SOL    HW138204   4.752   1.938   2.643  0.4227  1.0330 -2.0905
44549SOL    HW238205   4.601   1.944   2.654  0.5567  1.4520  0.0068
44550SOL     OW38206   4.090   9.400   6.571 -0.1994  0.5143 -0.8875
44550SOL    HW138207   4.111   9.488   6.538  0.0460  1.7773  2.3182
44550SOL    HW238208   4.170   9.372   6.615 -0.4141 -1.2119 -1.5118
44551SOL     OW38209   3.937   1.622  10.808  0.1635  0.3040  0.0763
44551SOL    HW138210   3.880   1.598  10.882 -0.5247 -0.7669 -0.7744
44551SOL    HW238211   3.958   1.538  10.766 -2.5726  1.0632 -3.2022
44552SOL     OW38212   5.800   9.590   3.582  0.1178  0.0648 -0.0292
44552SOL    HW138213   5.846   9.649   3.522 -1.2162  1.1971 -0.0213
44552SOL    HW238214   5.796   9.639   3.664 -0.9785 -0.0195 -0.0101
44553SOL     OW38215   3.065  11.331   9.718  0.0605 -0.2567 -0.0910
44553SOL    HW138216   3.066  11.307   9.811  1.8884 -0.7123 -0.1825
44553SOL    HW238217   3.004  11.405   9.713  0.0387 -0.1281  1.4984
44554SOL     OW38218   3.755   3.900   0.942  0.4861  0.0372  0.7385
44554SOL    HW138219   3.744   3.975   0.885 -0.5880  0.0197  0.9022
44554SOL    HW238220   3.745   3.824   0.885  0.0835  0.0247  0.8171
44555SOL     OW38221   3.490   6.644   3.996  0.3640 -0.2185 -0.3219
44555SOL    HW138222   3.564   6.624   3.938  0.0323 -0.5217 -0.6508
44555SOL    HW238223   3.440   6.562   3.999  0.5976 -0.3305  0.7299
44556SOL     OW38224   5.905   1.781   7.166 -0.3884 -0.2899  0.1084
44556SOL    HW138225   5.816   1.777   7.132 -1.2320  0.5202  2.0885
44556SOL    HW238226   5.901   1.738   7.251  0.7163  1.2109  0.9614
44557SOL     OW38227   4.634   0.591   3.190  0.1844 -0.2563 -0.4663
44557SOL    HW138228   4.693   0.516   3.187  1.2870  0.5925 -0.7758
44557SOL    HW238229   4.551   0.555   3.220  1.0180 -1.3944  0.6225
44558SOL     OW38230   6.289   2.776   6.448 -0.5051  0.1834 -0.3344
44558SOL    HW138231   6.200   2.741   6.445 -0.5335  0.2119  0.1175
44558SOL    HW238232   6.345   2.698   6.456 -0.5852  0.2517  0.9537
44559SOL     OW38233   4.262   3.571  10.208  0.3881  0.0229  0.1005
44559SOL    HW138234   4.269   3.531  10.294 -2.6189 -0.9526  0.0065
44559SOL    HW238235   4.304   3.509  10.149 -1.9046 -1.8563  0.3099
44560SOL     OW38236  11.949   5.373   3.771 -0.0593  0.2510  0.8513
44560SOL    HW138237  12.041   5.377   3.742  0.1260 -0.5131  1.3142
44560SOL    HW238238  11.942   5.289   3.817 -0.8614  0.5490  1.2818
44561SOL     OW38239   3.300   2.736   4.349 -0.1843  0.1270  0.1765
44561SOL    HW138240   3.383   2.780   4.335  0.4487 -1.1146 -0.1332
44561SOL    HW238241   3.252   2.793   4.409  1.6895 -0.0474  1.9692
44562SOL     OW38242   7.977   8.023   5.126 -0.1411 -0.2797 -0.5213
44562SOL    HW138243   7.988   7.928   5.121 -1.2813 -0.4647  0.2127
44562SOL    HW238244   7.989   8.044   5.219 -0.7010  0.1908 -0.5512
44563SOL     OW38245   4.547  10.085   2.474  0.4933 -0.1377 -0.4365
44563SOL    HW138246   4.586  10.019   2.533 -1.0825  0.0628  0.8979
44563SOL    HW238247   4.611  10.156   2.473  0.7888 -0.3629  0.6530
44564SOL     OW38248  11.470  11.208   2.750 -0.0193  0.0345 -0.0684
44564SOL    HW138249  11.471  11.159   2.668 -2.3266  0.8229 -0.6310
44564SOL    HW238250  11.391  11.179   2.795  0.7541  0.2486  1.5270
44565SOL     OW38251   2.051   1.094   1.150 -0.0189 -0.4365 -0.3991
44565SOL    HW138252   2.137   1.054   1.137 -0.2061 -0.8876 -0.2429
44565SOL    HW238253   1.996   1.024   1.184 -0.5751 -0.2704 -0.9336
44566SOL     OW38254   8.887   8.686  10.155 -0.0337  0.1646  0.1945
44566SOL    HW138255   8.869   8.768  10.108  0.1931  0.9620  1.4338
44566SOL    HW238256   8.821   8.684  10.225 -0.5497 -1.1313 -0.3129
44567SOL     OW38257   2.672   0.610   0.853 -0.2678  0.3602 -0.1775
44567SOL    HW138258   2.678   0.584   0.945 -0.5239 -0.2796 -0.3357
44567SOL    HW238259   2.747   0.567   0.811 -0.9359 -0.5147 -0.5223
44568SOL     OW38260   2.422  11.371   0.557 -0.3125  0.1982 -0.2373
44568SOL    HW138261   2.430  11.315   0.635 -1.4836  1.4906  0.8728
44568SOL    HW238262   2.353  11.433   0.580  1.7115  2.8831 -0.9338
44569SOL     OW38263   6.114   8.968  10.634 -0.1008  0.0485 -0.1257
44569SOL    HW138264   6.159   9.053  10.630 -0.3577  0.1515 -1.0226
44569SOL    HW238265   6.136   8.933  10.721 -0.6792  1.4157  0.6181
44570SOL     OW38266  11.003   9.158  10.811 -0.1087 -0.3966  0.1860
44570SOL    HW138267  11.096   9.168  10.826 -0.4198 -0.9356  2.8584
44570SOL    HW238268  10.973   9.247  10.790  1.1312 -0.4232 -1.9995
44571SOL     OW38269   5.632   5.443   9.184 -0.3166 -0.2244  0.0964
44571SOL    HW138270   5.600   5.399   9.105  1.2451 -2.2815  0.5240
44571SOL    HW238271   5.628   5.376   9.252  3.3879 -0.2285  0.4857
44572SOL     OW38272   3.130  11.295   7.219 -0.2660  0.3063  0.0392
44572SOL    HW138273   3.113  11.206   7.251  2.7678 -1.1619 -1.9296
44572SOL    HW238274   3.131  11.349   7.297  0.3552 -1.8936  1.6470
44573SOL     OW38275   1.608   9.037   4.047  0.0176 -0.4346  0.4721
44573SOL    HW138276   1.592   9.088   4.127  1.8517 -0.2569  0.7676
44573SOL    HW238277   1.672   9.089   3.998 -0.1855 -1.1280 -0.5513
44574SOL     OW38278   6.812   4.441  10.850  0.2897 -0.5230 -0.3925
44574SOL    HW138279   6.868   4.519  10.857 -0.0620 -0.3055 -0.0027
44574SOL    HW238280   6.733   4.463  10.898 -0.6635 -0.3790 -1.9503
44575SOL     OW38281   8.710   6.589  11.412 -0.3755 -0.1778  0.4028
44575SOL    HW138282   8.686   6.656  11.476  1.2989  0.1665  0.7249
44575SOL    HW238283   8.631   6.536  11.402 -2.0229  2.2667 -0.4570
44576SOL     OW38284   0.488   7.192  11.608 -0.0701 -1.0842  0.1520
44576SOL    HW138285   0.462   7.158  11.523 -1.1665  0.2966 -0.0947
44576SOL    HW238286   0.576   7.226  11.595 -0.0515 -1.3035 -0.3072
44577SOL     OW38287   9.225   7.362   3.878 -0.1196 -0.4284  0.4372
44577SOL    HW138288   9.255   7.311   3.803 -0.4983  0.4478 -0.3416
44577SOL    HW238289   9.168   7.429   3.840  2.0686  1.9820  1.0838
44578SOL     OW38290   8.607   3.468   3.121 -0.5002 -0.3336  0.0496
44578SOL    HW138291   8.698   3.445   3.107 -0.5568  0.1173 -1.1748
44578SOL    HW238292   8.601   3.487   3.215  1.4290  2.7341 -0.2970
44579SOL     OW38293   6.623   7.528   4.485  0.0122  0.1090 -0.1220
44579SOL    HW138294   6.593   7.595   4.547  0.8094 -0.4765  0.9372
44579SOL    HW238295   6.546   7.507   4.432 -0.4812  1.1935  0.1499
44580SOL     OW38296   8.968   6.776   7.618  0.1649 -0.0473 -0.4155
44580SOL    HW138297   8.990   6.801   7.529 -0.0871 -1.6792 -0.9848
44580SOL    HW238298   8.927   6.689   7.608 -4.0492  1.5506  0.7752
44581SOL     OW38299   8.012   1.720   5.849  0.0370 -0.1168 -0.5772
44581SOL    HW138300   8.035   1.644   5.797 -0.0357  0.0536 -0.8610
44581SOL    HW238301   7.917   1.728   5.840  0.0934  0.2548 -0.8965
44582SOL     OW38302   7.689   6.096   6.041  0.2742 -0.0088  0.0195
44582SOL    HW138303   7.782   6.117   6.051  0.2895  0.6314 -1.2324
44582SOL    HW238304   7.684   6.048   5.958 -0.2552 -1.8960  1.0994
44583SOL     OW38305   2.409   7.707   4.498  0.1355  0.3082  0.7958
44583SOL    HW138306   2.327   7.756   4.505  0.8287  1.7203 -0.5150
44583SOL    HW238307   2.387   7.633   4.440 -0.2169  0.7027  0.4178
44584SOL     OW38308   1.911   7.106   2.520  0.6114  0.2601 -0.7130
44584SOL    HW138309   1.824   7.097   2.480  0.4135  1.4027 -0.5702
44584SOL    HW238310   1.923   7.026   2.570 -0.6069  0.3191 -0.2892
44585SOL     OW38311   3.351   6.491   3.768  0.4501 -0.1484  0.3160
44585SOL    HW138312   3.445   6.507   3.753  1.1731 -2.1612  2.1051
44585SOL    HW238313   3.309   6.575   3.751  2.2825  0.3042 -2.5762
44586SOL     OW38314   8.952  10.188   2.536  0.3106 -0.0787 -0.5945
44586SOL    HW138315   8.947  10.252   2.607 -0.0947 -0.2036 -0.5093
44586SOL    HW238316   9.039  10.148   2.545  0.2703 -0.0757 -0.1847
44587SOL     OW38317   3.970  10.453   9.277 -0.1266  0.0401  0.2189
44587SOL    HW138318   3.985  10.428   9.186 -0.0188  0.0195  0.2428
44587SOL    HW238319   3.976  10.371   9.326  0.3614  0.1344  0.3137
44588SOL     OW38320   5.732   4.080   2.013 -0.5941 -0.4249 -0.2675
44588SOL    HW138321   5.741   4.116   1.925 -1.6021 -2.0537 -1.0889
44588SOL    HW238322   5.819   4.050   2.036 -0.2570  0.3017 -0.5554
44589SOL     OW38323   7.296   4.466   8.804  0.5284 -0.4994  0.1946
44589SOL    HW138324   7.245   4.390   8.774 -0.1178 -0.2771  0.7113
44589SOL    HW238325   7.384   4.450   8.770  0.3815 -1.4399  0.2131
44590SOL     OW38326   0.224  11.559   9.201 -0.4764 -0.1859  0.5113
44590SOL    HW138327   0.163  11.488   9.223  1.1197 -2.1267 -0.9764
44590SOL    HW238328   0.193  11.633   9.252 -3.0355 -1.5622  1.1334
44591SOL     OW38329  10.963   5.473   5.623 -0.7772  0.2618 -0.1796
44591SOL    HW138330  10.947   5.558   5.580 -0.5932 -1.1967 -3.4126
44591SOL    HW238331  10.876   5.435   5.634 -0.7838  0.3795  0.1789
44592SOL     OW38332   0.637  10.252   5.383  0.1805 -0.6747  0.0405
44592SOL    HW138333   0.620  10.190   5.312 -0.5254 -0.7012  0.2249
44592SOL    HW238334   0.630  10.338   5.342  1.1855 -0.7108 -0.2213
44593SOL     OW38335   6.417   6.962   7.550 -0.2073 -0.2783  0.0951
44593SOL    HW138336   6.341   6.919   7.588 -1.4213  0.3807 -1.4409
44593SOL    HW238337   6.432   6.915   7.468  0.9150 -0.2618  0.2839
44594SOL     OW38338   8.418   2.044   7.258 -0.0125  0.2052 -0.4320
44594SOL    HW138339   8.415   1.956   7.221  0.9382 -0.4356  0.9289
44594SOL    HW238340   8.326   2.068   7.271 -0.4273  0.5896 -3.3640
44595SOL     OW38341   7.311  10.161  11.309  0.2148 -0.1474  0.6697
44595SOL    HW138342   7.335  10.130  11.222 -1.4517 -0.3612  0.2564
44595SOL    HW238343   7.379  10.125  11.367  1.4544  0.1550 -0.5346
44596SOL     OW38344   2.785   1.867   4.224  0.2835  0.3154 -0.2706
44596SOL    HW138345   2.816   1.952   4.192  0.9699  0.6697  1.2245
44596SOL    HW238346   2.693   1.864   4.200  0.4586  1.0929 -1.1118
44597SOL     OW38347   7.292   0.786   6.116  0.6537 -0.1600  0.1248
44597SOL    HW138348   7.304   0.693   6.099 -0.2456 -0.5634  1.5545
44597SOL    HW238349   7.241   0.790   6.196 -0.8959  1.5482 -0.8623
44598SOL     OW38350   8.064  11.822   4.989  0.2984  0.1876  0.3264
44598SOL    HW138351   8.002  11.797   5.058 -1.0746 -0.4112 -1.0646
44598SOL    HW238352   8.147  11.783   5.017 -0.4312 -0.8060  1.2116
44599SOL     OW38353   6.814   9.848   0.309  0.1251  0.2047 -0.3448
44599SOL    HW138354   6.773   9.871   0.393 -0.3336  0.5953 -0.6746
44599SOL    HW238355   6.898   9.809   0.334  0.7092  1.7618  0.2595
44600SOL     OW38356   3.383   8.331   8.275  0.2471  0.0278 -0.6783
44600SOL    HW138357   3.417   8.401   8.331 -0.6372 -0.7583  0.9209
44600SOL    HW238358   3.290   8.326   8.295 -0.1800 -0.0782 -2.5080
44601SOL     OW38359   6.587   9.277   9.568 -0.7957  0.7493 -0.8454
44601SOL    HW138360   6.624   9.202   9.615 -2.1961  0.6330  0.1343
44601SOL    HW238361   6.556   9.240   9.485 -0.5611  0.4368 -0.7974
44602SOL     OW38362   8.922   4.264   7.247 -0.6647  0.2907 -0.0867
44602SOL    HW138363   8.877   4.223   7.321  0.7438 -2.1056 -0.4522
44602SOL    HW238364   8.917   4.199   7.177  1.7618  0.6545 -0.6826
44603SOL     OW38365   8.767   3.963   0.626 -0.0335  0.5095 -0.1609
44603SOL    HW138366   8.819   4.040   0.650  1.1511 -0.2752 -0.1071
44603SOL    HW238367   8.755   3.915   0.708 -0.3488  0.3938 -0.2735
44604SOL     OW38368   2.609   5.931   8.545 -0.6274 -0.2705 -0.4482
44604SOL    HW138369   2.686   5.961   8.498 -0.0831 -0.1449  0.4946
44604SOL    HW238370   2.536   5.946   8.484  0.1239 -0.7526 -1.4944
44605SOL     OW38371   9.506   0.816   0.093  0.1254 -0.1994  0.2049
44605SOL    HW138372   9.536   0.807   0.003 -0.0447  0.0194  0.1250
44605SOL    HW238373   9.413   0.793   0.090  0.4632 -1.7914  0.6107
44606SOL     OW38374   9.928   0.976   1.195  0.2191  0.2946 -0.4486
44606SOL    HW138375   9.961   1.004   1.110  1.3751 -1.2582 -0.5542
44606SOL    HW238376   9.838   0.947   1.178 -0.1314  1.4961 -0.7912
44607SOL     OW38377   8.005   3.697   3.980 -0.2750  0.0300 -0.1085
44607SOL    HW138378   8.065   3.745   4.038 -1.1271  1.4497 -0.3557
44607SOL    HW238379   8.038   3.607   3.981  0.6177  0.3351  1.3899
44608SOL     OW38380  11.668   5.921  10.413 -0.0681 -0.2190  0.1529
44608SOL    HW138381  11.726   5.996  10.401 -0.3858 -0.2812 -2.1044
44608SOL    HW238382  11.615   5.944  10.490 -0.5288  2.1561 -0.7850
44609SOL     OW38383   7.051   1.545   3.366 -0.5997 -0.3478  0.3979
44609SOL    HW138384   6.984   1.501   3.315 -0.8621 -0.0916  0.5161
44609SOL    HW238385   7.009   1.625   3.398 -0.8014 -1.0206  1.9271
44610SOL     OW38386  11.105  10.112   5.846 -0.2968  0.2205 -0.0166
44610SOL    HW138387  11.031  10.172   5.846  0.5350  1.2906  0.6811
44610SOL    HW238388  11.070  10.031   5.885 -1.3863  0.2817 -0.8205
44611SOL     OW38389  10.772   8.458   2.664 -0.5418 -0.4230 -0.3754
44611SOL    HW138390  10.731   8.512   2.597 -0.2883 -0.0347 -0.2165
44611SOL    HW238391  10.808   8.520   2.727 -1.0046 -0.7840  0.2571
44612SOL     OW38392   7.510   1.174   5.817 -0.1072 -0.1115 -0.4792
44612SOL    HW138393   7.517   1.079   5.816 -0.6214 -0.2511  2.1300
44612SOL    HW238394   7.522   1.200   5.725  0.5759 -2.6138 -1.1787
44613SOL     OW38395   8.859   1.446   3.751 -0.1957 -0.0884  0.3122
44613SOL    HW138396   8.801   1.404   3.688 -1.6466  1.3853  0.6034
44613SOL    HW238397   8.873   1.534   3.717  0.5826  0.0973  1.0730
44614SOL     OW38398  10.996   2.561   9.224  0.0366 -0.4280 -0.5237
44614SOL    HW138399  11.055   2.578   9.150 -1.5501 -0.4934 -1.8610
44614SOL    HW238400  11.054   2.534   9.295  1.8323  1.5701 -1.0971
44615SOL     OW38401  11.622   6.748   3.188  0.1027  0.4160 -0.2956
44615SOL    HW138402  11.609   6.834   3.229  0.4570  0.0578  0.6045
44615SOL    HW238403  11.712   6.751   3.155  0.5039  0.0337  0.6958
44616SOL     OW38404  11.671  11.602  11.434  0.6408 -0.1058  0.0883
44616SOL    HW138405  11.715  11.565  11.358 -0.7238 -0.9757 -0.3192
44616SOL    HW238406  11.719  11.567  11.509  2.2083  1.0309 -0.3467
44617SOL     OW38407  10.605   4.260   9.512  0.1898 -0.0057 -0.3111
44617SOL    HW138408  10.575   4.347   9.484 -2.1340 -1.0483 -1.3067
44617SOL    HW238409  10.594   4.260   9.607  0.3260  0.8000 -0.2878
44618SOL     OW38410   6.258   7.150   1.644  0.2021  0.2396  0.2988
44618SOL    HW138411   6.352   7.158   1.626  0.3337  0.4916  1.0351
44618SOL    HW238412   6.225   7.240   1.642 -0.2537  0.0556 -1.0665
44619SOL     OW38413   5.426  10.715   1.597 -0.3251  0.2931  0.2339
44619SOL    HW138414   5.388  10.802   1.585 -2.0454 -0.2924  1.1119
44619SOL    HW238415   5.478  10.722   1.677 -0.0098  0.6457 -0.0003
44620SOL     OW38416  10.123   7.100   6.334 -0.7701 -0.1688  0.2555
44620SOL    HW138417  10.218   7.113   6.333 -0.2356 -3.1285  1.5668
44620SOL    HW238418  10.087   7.189   6.340  1.8994  1.0256  0.1049
44621SOL     OW38419   5.010   4.449   5.845  0.2124  0.8052  0.1307
44621SOL    HW138420   5.079   4.387   5.822 -0.4376  0.3195 -0.5796
44621SOL    HW238421   4.955   4.402   5.908  0.3612  1.0875  0.4767
44622SOL     OW38422  11.141   1.721   7.777  0.1789  0.5673  0.4134
44622SOL    HW138423  11.166   1.790   7.716  1.4755 -0.8355 -0.6878
44622SOL    HW238424  11.158   1.759   7.864 -0.2162  2.0131 -0.1139
44623SOL     OW38425   9.096   1.434   6.269 -0.6990 -0.8475 -0.3586
44623SOL    HW138426   9.016   1.470   6.307  0.2810  1.4978 -0.3687
44623SOL    HW238427   9.147   1.403   6.345 -0.4488  0.1894 -0.0920
44624SOL     OW38428   6.516   6.951   3.036 -0.1515  0.6076  0.8513
44624SOL    HW138429   6.426   6.975   3.017 -0.5421 -1.0282  0.5483
44624SOL    HW238430   6.521   6.950   3.131 -0.7640 -0.3369  0.8866
44625SOL     OW38431  11.459   2.208   4.295 -0.1294  0.2694 -0.1942
44625SOL    HW138432  11.373   2.246   4.312 -1.2061 -1.8843 -0.5579
44625SOL    HW238433  11.511   2.230   4.373 -1.6228 -0.0807  0.9474
44626SOL     OW38434  10.693   4.639   5.416  0.5590 -0.4379  0.2133
44626SOL    HW138435  10.722   4.548   5.409 -0.3104 -0.8312  1.4253
44626SOL    HW238436  10.597   4.634   5.412  0.3541  0.1188  2.8183
44627SOL     OW38437   9.709   1.374   4.316 -0.1661 -0.1549 -0.7464
44627SOL    HW138438   9.791   1.417   4.290  0.2110 -0.9150 -0.8360
44627SOL    HW238439   9.679   1.424   4.392  1.1280 -0.7453  0.1769
44628SOL     OW38440   7.289   3.250   7.857  0.0241 -0.5243  0.3885
44628SOL    HW138441   7.293   3.294   7.772  1.3950 -1.4494 -0.0685
44628SOL    HW238442   7.346   3.302   7.914  1.8423 -1.7763 -0.2182
44629SOL     OW38443   7.056   6.634   4.608  0.6825  0.0127 -0.0822
44629SOL    HW138444   7.147   6.653   4.629  0.7637 -0.3937 -0.0549
44629SOL    HW238445   7.031   6.700   4.543  1.3797 -0.6433 -1.0450
44630SOL     OW38446   5.909   6.747   3.839  0.3420 -0.3666 -0.0578
44630SOL    HW138447   5.991   6.703   3.862  0.2861  0.9133  3.0832
44630SOL    HW238448   5.841   6.692   3.878 -0.1131 -0.0953 -0.4632
44631SOL     OW38449   5.726   6.133   5.084 -0.0687  0.0982 -0.3313
44631SOL    HW138450   5.684   6.079   5.017  1.3019 -1.1346 -0.2432
44631SOL    HW238451   5.675   6.116   5.163 -0.5802  0.1343 -0.6483
44632SOL     OW38452   2.540   8.064   2.700  0.6956  0.1854 -0.1788
44632SOL    HW138453   2.589   8.089   2.622  0.5958  3.0016  0.5378
44632SOL    HW238454   2.460   8.116   2.696  0.3541 -0.1535  1.4323
44633SOL     OW38455   6.958  11.974   2.910 -0.1198 -0.4951 -0.0110
44633SOL    HW138456   6.905  11.916   2.965  0.5716  0.0367  1.2425
44633SOL    HW238457   7.048  11.949   2.928  0.1391  0.0415 -0.5258
44634SOL     OW38458   7.077  12.104   7.756  0.0740  0.1760  0.2616
44634SOL    HW138459   7.054  12.195   7.776  0.4813  0.5953 -1.1102
44634SOL    HW238460   7.009  12.075   7.695  1.0101  0.1764 -0.7924
44635SOL     OW38461   3.511   0.778  10.569  0.3295 -0.4839  0.2641
44635SOL    HW138462   3.579   0.810  10.510  0.4040 -0.6244  0.2728
44635SOL    HW238463   3.553   0.777  10.655  0.3109 -0.5517  0.2721
44636SOL     OW38464   7.846   6.582   4.608  0.2237 -0.4708  0.2909
44636SOL    HW138465   7.935   6.585   4.642  1.2059 -1.4745 -1.9792
44636SOL    HW238466   7.791   6.609   4.682  2.4488  1.2095  1.4421
44637SOL     OW38467  10.474   4.363   6.944  0.1182 -0.1776  0.0294
44637SOL    HW138468  10.528   4.416   7.002  1.1358 -0.1564 -0.8915
44637SOL    HW238469  10.525   4.284   6.929 -0.0299 -0.1076 -0.9589
44638SOL     OW38470   2.477   4.169   7.162 -0.3596 -0.0698 -0.1072
44638SOL    HW138471   2.534   4.168   7.085 -0.7792  0.7340 -0.4374
44638SOL    HW238472   2.436   4.255   7.160 -1.6723 -0.6699  0.0595
44639SOL     OW38473   1.183   5.588   4.252  0.0746  0.7613  0.0930
44639SOL    HW138474   1.195   5.526   4.324 -0.1092  1.1809  0.4935
44639SOL    HW238475   1.114   5.647   4.283  1.0841  1.9187  0.2536
44640SOL     OW38476   5.085   9.814   9.799  0.2179 -0.3723 -0.2449
44640SOL    HW138477   5.033   9.740   9.768  0.3817 -0.5814 -0.0176
44640SOL    HW238478   5.167   9.776   9.830 -0.3453 -0.3205  1.4521
44641SOL     OW38479   3.066   8.494   2.329  0.0178  0.4281  0.1356
44641SOL    HW138480   3.079   8.503   2.424  0.6415 -2.1624  0.3670
44641SOL    HW238481   3.120   8.564   2.291  3.9128 -1.4510  1.5915
44642SOL     OW38482   2.773   1.824   7.844 -0.0117 -0.5937 -0.0177
44642SOL    HW138483   2.854   1.873   7.829  1.1117 -1.8605  1.4687
44642SOL    HW238484   2.705   1.891   7.851  0.9929  0.5401 -0.8163
44643SOL     OW38485   9.561   2.616   3.428  0.1050 -0.4557  0.3107
44643SOL    HW138486   9.525   2.689   3.480  0.8780 -0.4105  0.7995
44643SOL    HW238487   9.484   2.567   3.400 -0.4144  0.3771  0.2312
44644SOL     OW38488   0.322   4.596   2.114 -0.0004  0.1947 -0.3747
44644SOL    HW138489   0.258   4.634   2.054 -0.7643 -0.1374  0.2182
44644SOL    HW238490   0.271   4.543   2.174  0.9443 -0.9290 -0.5290
44645SOL     OW38491   7.068   6.522   0.991 -0.0340 -0.5423 -0.0519
44645SOL    HW138492   7.147   6.536   0.938 -0.0192  0.3327  0.1838
44645SOL    HW238493   7.015   6.462   0.940  0.2602 -0.1959 -0.7766
44646SOL     OW38494   2.595   4.009  11.356  0.0586  0.3467 -0.6906
44646SOL    HW138495   2.538   3.944  11.395 -0.2332  0.7149 -0.5030
44646SOL    HW238496   2.584   3.997  11.261 -1.0171  1.0071 -0.6630
44647SOL     OW38497   4.198   9.573   2.529  0.2580  0.6756 -0.1246
44647SOL    HW138498   4.176   9.503   2.467  0.9762 -0.9925  1.4158
44647SOL    HW238499   4.266   9.534   2.585 -0.5690  2.0193  1.8974
44648SOL     OW38500   5.345  11.675   4.752  0.4151 -0.0866 -0.0429
44648SOL    HW138501   5.437  11.678   4.726  0.5878  0.6050  0.6068
44648SOL    HW238502   5.340  11.732   4.829 -0.3498 -0.9383  0.5606
44649SOL     OW38503   5.501   9.664   9.357  0.3813  0.1028  0.1006
44649SOL    HW138504   5.421   9.646   9.306  0.6619  3.0449 -1.5836
44649SOL    HW238505   5.572   9.634   9.301  0.5933  1.0300 -0.1368
44650SOL     OW38506   9.606   8.399   4.488 -0.0772 -0.3101  0.4310
44650SOL    HW138507   9.621   8.306   4.504 -1.2489 -0.5217  0.4105
44650SOL    HW238508   9.544   8.425   4.557 -1.5325 -0.1088 -0.8995
44651SOL     OW38509   5.435   8.690   3.116  0.1579  0.1256  0.5224
44651SOL    HW138510   5.456   8.772   3.071  1.7686  0.4893  1.8338
44651SOL    HW238511   5.520   8.645   3.124 -0.7367 -1.8840 -0.5290
44652SOL     OW38512   5.839  11.252   4.937 -0.3529  0.8572  0.2099
44652SOL    HW138513   5.875  11.290   4.857 -1.1549  0.2188 -0.4754
44652SOL    HW238514   5.859  11.158   4.930  0.8316  0.9888  1.4585
44653SOL     OW38515   8.913   8.091   4.925  0.9020  0.1694  0.7070
44653SOL    HW138516   8.877   8.110   5.012 -0.2430  1.1144  0.0454
44653SOL    HW238517   8.930   7.996   4.927 -0.6338 -0.1249  1.4263
44654SOL     OW38518   8.610   7.729   4.688  0.2378 -0.2190 -0.6619
44654SOL    HW138519   8.564   7.808   4.718  0.0646  0.5958 -2.8751
44654SOL    HW238520   8.702   7.755   4.686  0.4074 -0.6999  0.3682
44655SOL     OW38521   7.689   5.550   8.262  0.3461  0.7356 -0.1532
44655SOL    HW138522   7.632   5.554   8.185  0.9327  2.2680 -0.5376
44655SOL    HW238523   7.702   5.641   8.286  0.5307  0.2926  1.5187
44656SOL     OW38524   8.709   6.466   7.577 -0.3487 -0.3773 -0.5259
44656SOL    HW138525   8.662   6.527   7.635  2.9698  2.5322 -0.5179
44656SOL    HW238526   8.698   6.503   7.490  1.9712  0.5500 -0.4836
44657SOL     OW38527   0.083   6.166   5.940 -0.4011  0.3037  0.1466
44657SOL    HW138528   0.063   6.075   5.964  0.4997 -0.0296 -0.3157
44657SOL    HW238529   0.101   6.209   6.024 -2.5049  0.5192  0.5489
44658SOL     OW38530   0.104   9.574  12.024  0.0189  0.5624 -0.4803
44658SOL    HW138531   0.015   9.590  12.056  0.6076  2.8516  0.1862
44658SOL    HW238532   0.111   9.479  12.019 -1.0733  0.1165  3.5462
44659SOL     OW38533   6.564   0.991   5.582 -0.6117  0.3741  0.4077
44659SOL    HW138534   6.503   0.924   5.550  0.6403 -0.4465 -0.3469
44659SOL    HW238535   6.556   1.062   5.518  0.8693 -0.6945 -1.0728
44660SOL     OW38536  10.397   0.673  11.752 -0.7004 -0.0158 -0.4408
44660SOL    HW138537  10.465   0.694  11.688 -1.2549 -0.8690 -1.3537
44660SOL    HW238538  10.326   0.733  11.732  0.0572  1.4765  1.0774
44661SOL     OW38539   8.399   0.363   3.575  0.5550  0.0012 -0.5175
44661SOL    HW138540   8.368   0.450   3.552  0.9967  0.6044  1.0610
44661SOL    HW238541   8.347   0.304   3.521  0.1157  1.2206 -1.4671
44662SOL     OW38542   8.780   1.009   1.080 -0.3519 -0.2728  0.1796
44662SOL    HW138543   8.831   1.039   1.156  1.5102  0.6198 -1.3152
44662SOL    HW238544   8.758   1.090   1.033  1.0565 -0.9186 -1.7076
44663SOL     OW38545   0.995   6.972   3.849  0.4065 -0.3441 -0.2215
44663SOL    HW138546   0.929   6.916   3.808  0.2439 -0.9962  0.8711
44663SOL    HW238547   1.042   6.913   3.908  0.1096  0.7085  1.1073
44664SOL     OW38548   9.125   2.795   3.767 -0.2241 -0.6088  0.2447
44664SOL    HW138549   9.110   2.717   3.713 -0.2062 -1.0774  0.9147
44664SOL    HW238550   9.216   2.787   3.796  0.2884  0.4762 -0.9815
44665SOL     OW38551   4.818   7.920   0.146 -0.0484  0.1176 -0.1934
44665SOL    HW138552   4.870   7.848   0.181 -0.2855 -0.2935 -0.6687
44665SOL    HW238553   4.806   7.898   0.053  0.1852  0.9530 -0.4301
44666SOL     OW38554   6.534   3.304   2.079 -0.1164 -0.3417 -0.2234
44666SOL    HW138555   6.491   3.288   1.994  0.7746  0.4715 -0.8475
44666SOL    HW238556   6.537   3.218   2.120  1.0770 -1.1212 -1.8181
44667SOL     OW38557  11.162   7.969   7.820  0.3759 -0.1795  0.3109
44667SOL    HW138558  11.194   7.949   7.908  1.8740  0.9075  0.0556
44667SOL    HW238559  11.160   8.065   7.817 -3.0181 -0.1176  0.2822
44668SOL     OW38560   6.162   7.085   8.879 -0.1147  0.0256  0.4908
44668SOL    HW138561   6.238   7.123   8.923 -0.3777  0.0225  0.9539
44668SOL    HW238562   6.087   7.123   8.924 -0.4039  1.0588 -0.8388
44669SOL     OW38563   1.281   0.149   7.029 -0.4390  0.3715 -0.0968
44669SOL    HW138564   1.343   0.143   7.101 -1.1987 -1.1267  0.4738
44669SOL    HW238565   1.203   0.104   7.061 -1.2261  0.7519 -1.4135
44670SOL     OW38566   8.348   2.124   6.756 -0.2129  0.3246  0.3009
44670SOL    HW138567   8.420   2.134   6.819  0.2699 -1.5589  0.1200
44670SOL    HW238568   8.392   2.100   6.674 -0.9815  0.4580 -0.1610
44671SOL     OW38569   4.934   4.644   2.645  0.5154  0.1286  0.1810
44671SOL    HW138570   4.863   4.668   2.704  0.4913  2.5626 -0.7204
44671SOL    HW238571   5.011   4.689   2.681  1.3041 -1.2628  0.3033
44672SOL     OW38572   9.627   0.684   6.784 -0.5481 -0.1252 -0.0067
44672SOL    HW138573   9.541   0.643   6.788 -0.5922 -0.0242  0.0847
44672SOL    HW238574   9.671   0.642   6.710 -1.7168  1.8198 -1.9479
44673SOL     OW38575   7.455   4.186  11.027  0.1283 -0.4538 -0.2230
44673SOL    HW138576   7.374   4.218  11.067 -0.7997 -1.0547 -1.5089
44673SOL    HW238577   7.522   4.249  11.053 -1.1758  1.2537 -0.8014
44674SOL     OW38578   3.824   0.146   2.044 -0.2203  0.0143 -0.3120
44674SOL    HW138579   3.798   0.187   1.961 -3.3795 -0.3992  0.3520
44674SOL    HW238580   3.854   0.059   2.018 -0.3879  0.1782 -1.0987
44675SOL     OW38581  10.830   0.085   6.613 -0.1057  0.0575 -0.1019
44675SOL    HW138582  10.754   0.041   6.651 -2.2226  3.6888  0.2929
44675SOL    HW238583  10.809   0.095   6.521 -0.5403  1.6999  0.1382
44676SOL     OW38584   1.039   6.310   8.387  0.0828  0.3968 -0.1674
44676SOL    HW138585   1.009   6.375   8.451 -0.9351  1.8045 -1.9661
44676SOL    HW238586   0.973   6.312   8.318  0.1641 -2.3988 -0.4552
44677SOL     OW38587  10.872   1.004   4.137  0.8411 -0.4275  0.9796
44677SOL    HW138588  10.862   0.943   4.064  2.0162 -0.7873  1.0949
44677SOL    HW238589  10.943   0.966   4.189  1.3774  0.8803  1.2238
44678SOL     OW38590   7.725  10.630   4.157 -0.6331 -0.4765  0.9703
44678SOL    HW138591   7.740  10.605   4.065  0.2433 -0.8998  1.2162
44678SOL    HW238592   7.643  10.679   4.155 -0.9574 -1.0161  0.0493
44679SOL     OW38593   6.490  12.067   2.088 -0.6240 -0.7440 -0.0864
44679SOL    HW138594   6.516  11.995   2.145  0.4945 -0.6103 -0.3988
44679SOL    HW238595   6.449  12.025   2.012  2.6409 -1.3355 -1.6878
44680SOL     OW38596   9.001   6.226   5.515 -0.2252  0.1295 -0.2502
44680SOL    HW138597   9.053   6.306   5.521  2.2389 -1.4696  1.6500
44680SOL    HW238598   8.910   6.256   5.525  0.7368  2.5258  2.8099
44681SOL     OW38599  11.373  11.541   8.842  0.5714 -0.0740 -1.0892
44681SOL    HW138600  11.432  11.609   8.810  0.8154  0.9033  1.2447
44681SOL    HW238601  11.385  11.468   8.781  1.8591  1.2150 -2.4527
44682SOL     OW38602  11.612   8.569   1.312  0.0351  0.2323  0.0411
44682SOL    HW138603  11.590   8.657   1.283  1.3905  0.0893 -1.5574
44682SOL    HW238604  11.606   8.572   1.408 -3.2206  1.1191 -0.0874
44683SOL     OW38605   6.085   8.059  10.182  0.6039  0.1896 -0.4701
44683SOL    HW138606   6.159   8.005  10.155  0.4516  0.2040 -0.9321
44683SOL    HW238607   6.031   8.066  10.103 -0.9313 -1.4900  0.3720
44684SOL     OW38608  10.392   4.850   3.232 -0.7151 -0.5940 -0.2372
44684SOL    HW138609  10.419   4.852   3.324  3.5025 -0.3218 -1.2459
44684SOL    HW238610  10.334   4.774   3.226 -1.7880 -0.1393  2.7328
44685SOL     OW38611  10.358   0.895   5.136  0.0949 -0.1725 -0.6647
44685SOL    HW138612  10.449   0.920   5.120  0.5976 -1.5083 -0.0451
44685SOL    HW238613  10.308   0.940   5.067  1.0423  1.6051 -0.2299
44686SOL     OW38614   4.860   2.591   3.183  0.4783  0.6068  0.2264
44686SOL    HW138615   4.849   2.684   3.202  0.1742  0.5195  0.4918
44686SOL    HW238616   4.809   2.576   3.104  1.8550  1.0008 -0.7693
44687SOL     OW38617   7.009   6.164   9.895  0.3937  0.1755  0.6288
44687SOL    HW138618   7.072   6.227   9.858 -1.2202  1.7856  0.4945
44687SOL    HW238619   7.053   6.128   9.972  1.8267  0.5599  0.0237
44688SOL     OW38620   2.019   4.032   9.070 -0.2338 -0.6752  0.0080
44688SOL    HW138621   2.050   4.047   9.160 -0.2617  0.1596 -0.1141
44688SOL    HW238622   2.098   4.007   9.022 -0.1150 -0.5580  0.1405
44689SOL     OW38623   8.867  12.012  10.830 -0.1767 -0.3386  0.1821
44689SOL    HW138624   8.883  12.081  10.895 -1.8594 -0.2476  0.5524
44689SOL    HW238625   8.936  12.024  10.765 -0.5512  1.8819  0.1029
44690SOL     OW38626   9.803   2.554   2.832  0.0724 -0.1198  0.3315
44690SOL    HW138627   9.822   2.560   2.738 -1.3495 -2.5549 -0.2175
44690SOL    HW238628   9.888   2.540   2.873  0.4353 -2.3985 -1.0268
44691SOL     OW38629  11.912   7.952   6.495 -0.4983  0.2860 -0.0702
44691SOL    HW138630  11.940   8.009   6.567  0.0895  0.7034 -0.6074
44691SOL    HW238631  11.853   7.889   6.535  1.6782 -1.0116  1.2465
44692SOL     OW38632   5.327   9.797   8.144  0.1332  0.4189 -0.0379
44692SOL    HW138633   5.302   9.732   8.210  2.7821  1.1446  1.8212
44692SOL    HW238634   5.377   9.747   8.079  0.1260  0.2097  0.1153
44693SOL     OW38635   7.679   4.125   7.118 -0.8472  0.0617  0.3769
44693SOL    HW138636   7.598   4.135   7.169  0.3024  0.5736  2.1727
44693SOL    HW238637   7.668   4.184   7.044 -1.9968  0.3776  0.7772
44694SOL     OW38638   5.785   0.723   9.706 -0.2958 -0.1146 -0.0351
44694SOL    HW138639   5.715   0.700   9.644 -0.7025 -1.2997  0.8277
44694SOL    HW238640   5.777   0.658   9.776  2.5506 -1.1622 -0.5769
44695SOL     OW38641   7.381  10.026   9.276 -0.3067 -0.4038 -0.3895
44695SOL    HW138642   7.412  10.116   9.272  0.4727 -0.6241  0.2068
44695SOL    HW238643   7.415   9.993   9.360 -0.0644 -1.4249 -0.8708
44696SOL     OW38644   4.247   2.202  11.619  0.1060 -0.0076  0.3753
44696SOL    HW138645   4.288   2.288  11.629 -0.6034  0.7305 -2.2091
44696SOL    HW238646   4.181   2.215  11.551  0.7233 -2.8474 -0.9161
44697SOL     OW38647   3.092   4.408   4.766  0.4938  0.1293 -0.3760
44697SOL    HW138648   3.062   4.490   4.729  0.5436 -0.2650 -1.3153
44697SOL    HW238649   3.027   4.343   4.738  0.9792 -0.3206 -0.4854
44698SOL     OW38650  11.502   9.109   5.814  0.7864 -0.5753  0.4912
44698SOL    HW138651  11.502   9.201   5.840  3.5762 -0.0741 -0.8269
44698SOL    HW238652  11.428   9.100   5.754  0.2399  0.6894  0.9518
44699SOL     OW38653   9.681  10.671   3.083 -0.3410 -0.3148  0.1279
44699SOL    HW138654   9.612  10.725   3.045 -0.3267  0.2254  0.8300
44699SOL    HW238655   9.761  10.720   3.065 -0.0357 -1.2854 -1.2996
44700SOL     OW38656   8.082   4.436   7.428 -0.1792  0.1436  0.1985
44700SOL    HW138657   8.157   4.455   7.484  0.5586 -0.2385 -0.6298
44700SOL    HW238658   8.072   4.341   7.432  0.3975  0.0173 -0.9386
44701SOL     OW38659   9.390   5.881   6.717 -0.5158  0.0361 -0.5054
44701SOL    HW138660   9.433   5.925   6.644  1.2373  0.1351  0.5290
44701SOL    HW238661   9.421   5.927   6.795  0.2524 -2.0727  0.5213
44702SOL     OW38662   6.463   5.828  10.928 -0.1340  0.1987 -0.7328
44702SOL    HW138663   6.376   5.868  10.926  0.5773  2.0163  0.8428
44702SOL    HW238664   6.521   5.895  10.890  0.7501 -0.4221 -0.5038
44703SOL     OW38665   3.615   4.356   2.901 -0.3012 -0.3251 -0.0414
44703SOL    HW138666   3.613   4.297   2.977  0.0084  0.0880  0.2976
44703SOL    HW238667   3.538   4.412   2.913  0.1571  0.2295  0.3778
44704SOL     OW38668   8.413   7.718   6.884  0.5180 -0.2531  0.4070
44704SOL    HW138669   8.400   7.627   6.910  0.2106 -0.2436  0.2851
44704SOL    HW238670   8.466   7.713   6.805 -1.5612 -0.4475 -1.0410
44705SOL     OW38671   7.521   3.114  10.670 -0.2017  0.0572  0.2399
44705SOL    HW138672   7.546   3.174  10.600  1.1934  0.5811  1.1434
44705SOL    HW238673   7.577   3.038  10.658 -1.0034 -0.4938 -0.0793
44706SOL     OW38674   8.166  10.724   4.093  0.2197 -0.2805 -0.2152
44706SOL    HW138675   8.242  10.696   4.042 -0.5110 -1.7557 -0.5612
44706SOL    HW238676   8.137  10.644   4.138 -2.5373 -0.3821 -1.9626
44707SOL     OW38677   9.880   3.618   4.833  0.3961  0.0908  1.1760
44707SOL    HW138678   9.941   3.548   4.853  0.9848  0.1430 -0.2606
44707SOL    HW238679   9.935   3.696   4.821  0.2093 -0.0561 -1.0598
44708SOL     OW38680  10.496   7.748  11.358 -0.0157 -0.1367 -0.0485
44708SOL    HW138681  10.440   7.801  11.302  1.3938  0.7431 -0.7000
44708SOL    HW238682  10.574   7.732  11.304  1.0011 -0.0283  1.3340
44709SOL     OW38683  10.165   6.385   4.347  0.2439  0.0874 -0.3718
44709SOL    HW138684  10.105   6.311   4.348  0.8215 -0.3799  0.2479
44709SOL    HW238685  10.236   6.360   4.406  1.7923  0.0214 -2.1671
44710SOL     OW38686   0.885   0.890   0.627  0.1425 -0.2354 -0.3038
44710SOL    HW138687   0.897   0.798   0.603  1.1954  0.3262 -2.1162
44710SOL    HW238688   0.912   0.895   0.719 -3.0419 -2.2927  0.9247
44711SOL     OW38689  10.361   5.702   5.500  0.1845  0.2194 -0.1060
44711SOL    HW138690  10.403   5.732   5.581  0.3003  0.8134 -0.3847
44711SOL    HW238691  10.425   5.720   5.432 -0.1110  0.1733 -0.3984
44712SOL     OW38692   1.241   5.457   9.129  0.3485  0.7135 -0.1025
44712SOL    HW138693   1.294   5.532   9.100 -1.0817  1.9536  0.3282
44712SOL    HW238694   1.301   5.382   9.124  1.8143  1.8533 -0.6361
44713SOL     OW38695   0.626  11.232   9.281  0.5214  0.2860 -0.5814
44713SOL    HW138696   0.700  11.255   9.336 -0.4774 -0.6553  1.2669
44713SOL    HW238697   0.654  11.153   9.234  0.7969  0.1226 -0.1432
44714SOL     OW38698   4.136   3.425   6.781 -0.1915  0.5151  0.4930
44714SOL    HW138699   4.058   3.446   6.832 -0.5260 -0.5736  0.4536
44714SOL    HW238700   4.121   3.336   6.749  0.9633  0.3749  0.2805
44715SOL     OW38701   3.806   4.298   6.626  0.4932 -0.6278  0.7528
44715SOL    HW138702   3.874   4.293   6.558  0.6789 -0.8973  0.9580
44715SOL    HW238703   3.738   4.238   6.595  1.7757 -2.9599  2.1392
44716SOL     OW38704   1.484   4.677   5.533  0.3369  0.2703 -0.3371
44716SOL    HW138705   1.567   4.669   5.485  0.2406 -0.4699 -0.3824
44716SOL    HW238706   1.494   4.618   5.608 -0.0295  0.4257 -0.1638
44717SOL     OW38707   1.495   5.593  10.471 -0.8737 -0.0716  0.0037
44717SOL    HW138708   1.588   5.572  10.482 -1.1461 -1.4272 -0.0869
44717SOL    HW238709   1.495   5.671  10.416  0.2100 -0.0518 -0.0046
44718SOL     OW38710   8.220   1.120  11.112 -0.3355 -0.0846  0.0785
44718SOL    HW138711   8.194   1.070  11.034 -2.1595 -2.4654  2.0511
44718SOL    HW238712   8.182   1.207  11.099  1.2426  0.3105 -2.5834
44719SOL     OW38713   1.884   0.582   6.412  0.2445  0.2628 -0.1088
44719SOL    HW138714   1.925   0.585   6.498 -1.7331  1.3577  0.8648
44719SOL    HW238715   1.797   0.545   6.427  0.3645 -0.8799 -1.8906
44720SOL     OW38716   4.433  11.522   4.038 -0.0782  0.0932 -1.1059
44720SOL    HW138717   4.382  11.523   3.957 -1.8705 -0.8269 -0.0354
44720SOL    HW238718   4.413  11.604   4.081 -0.3272 -0.0831 -0.8827
44721SOL     OW38719   8.978   5.142   7.055 -0.4838  0.2371  0.7077
44721SOL    HW138720   9.054   5.088   7.033 -0.5984 -0.5478  2.1593
44721SOL    HW238721   8.943   5.169   6.970 -0.8340 -2.5527 -0.1477
44722SOL     OW38722   7.455   0.223   5.267  0.2670  0.0551 -0.0143
44722SOL    HW138723   7.447   0.311   5.303  0.7070  0.2903 -0.4674
44722SOL    HW238724   7.500   0.236   5.183  0.9564 -0.6673  0.2348
44723SOL     OW38725   8.051  11.178   9.622 -0.2480  0.6421 -0.1029
44723SOL    HW138726   8.113  11.179   9.695 -0.4967 -1.9814  0.2443
44723SOL    HW238727   7.975  11.131   9.656 -0.1886 -1.0854 -2.1506
44724SOL     OW38728  12.001   2.944  10.016  0.8067 -0.0476 -0.5100
44724SOL    HW138729  12.094   2.925  10.023  0.4904 -1.5473  0.0338
44724SOL    HW238730  11.980   2.993  10.096  1.1809  0.5796 -0.7915
44725SOL     OW38731  11.241   3.202   6.679  0.1390 -0.3421  0.1694
44725SOL    HW138732  11.185   3.278   6.664  0.1464 -0.2324  0.6666
44725SOL    HW238733  11.211   3.167   6.763 -0.2429 -1.2305 -0.3239
44726SOL     OW38734   5.781   2.303   4.955  0.5095 -0.2079  0.4042
44726SOL    HW138735   5.699   2.341   4.985 -0.0215 -1.2982  0.3506
44726SOL    HW238736   5.762   2.210   4.941  1.2297 -0.1331 -1.4459
44727SOL     OW38737   2.994   0.067   8.390 -0.8572 -0.6998  0.0104
44727SOL    HW138738   2.931  -0.005   8.387 -0.4770 -1.0863  0.9433
44727SOL    HW238739   3.033   0.061   8.477 -1.1542  0.9298  0.2831
44728SOL     OW38740   6.161   9.993   1.532 -0.7096  0.4282 -0.1733
44728SOL    HW138741   6.159   9.919   1.592 -2.3391  0.5373 -0.0525
44728SOL    HW238742   6.179  10.069   1.588 -0.7985  0.3526 -0.0429
44729SOL     OW38743   9.828   1.404   6.913 -0.7174 -0.4914  0.2828
44729SOL    HW138744   9.758   1.423   6.976 -1.0761  1.0892 -0.5498
44729SOL    HW238745   9.885   1.480   6.916 -1.1629 -0.0034 -1.8297
44730SOL     OW38746   0.729   0.551   5.093 -0.4798  0.2281  0.2865
44730SOL    HW138747   0.707   0.461   5.067  0.2860  0.1367 -0.0851
44730SOL    HW238748   0.809   0.542   5.144 -0.3554  0.7066  0.1781
44731SOL     OW38749   0.511   5.234   8.075  0.0077  0.3697  0.5894
44731SOL    HW138750   0.563   5.229   8.155 -0.5228  0.1664  0.9326
44731SOL    HW238751   0.425   5.199   8.100  0.4509 -1.7695 -0.5880
44732SOL     OW38752   1.965  11.757   6.704 -0.2187 -0.7726 -0.2345
44732SOL    HW138753   1.974  11.759   6.799  0.8627  0.1179 -0.3427
44732SOL    HW238754   2.049  11.725   6.672  1.0709  2.8898 -1.0341
44733SOL     OW38755   9.433   8.313   8.746 -0.3511 -0.2493  0.1107
44733SOL    HW138756   9.501   8.327   8.680  0.1120 -1.6927  0.2610
44733SOL    HW238757   9.470   8.352   8.826 -0.9299  1.5388 -0.4358
44734SOL     OW38758   5.525   9.067   3.835 -0.0243 -0.7736  0.0668
44734SOL    HW138759   5.605   9.110   3.804 -0.3045 -0.8416 -0.7840
44734SOL    HW238760   5.544   8.974   3.829 -1.0602 -0.9014 -2.7871
44735SOL     OW38761   4.733   5.937   8.280 -0.6256 -0.3178 -0.2765
44735SOL    HW138762   4.808   5.923   8.338  0.0201 -1.4308 -1.3374
44735SOL    HW238763   4.679   6.002   8.325  1.1270  0.7387  0.3735
44736SOL     OW38764   7.826   2.500   5.681  0.0847  0.3747  0.0856
44736SOL    HW138765   7.799   2.517   5.771  1.8267 -0.1230  0.7567
44736SOL    HW238766   7.769   2.428   5.652 -0.2611  0.3031  0.9167
44737SOL     OW38767   8.085  10.782   7.173 -0.5042  0.1984  0.0153
44737SOL    HW138768   8.085  10.864   7.125  0.0357  0.3246  0.2291
44737SOL    HW238769   8.046  10.804   7.258 -0.8831  0.1092 -0.1335
44738SOL     OW38770  10.187   3.772  10.091  0.4638 -0.4078 -0.5240
44738SOL    HW138771  10.155   3.843  10.035 -0.7491 -1.7384 -1.5812
44738SOL    HW238772  10.257   3.732  10.040 -0.6301 -1.6114 -1.1351
44739SOL     OW38773  10.013  10.305   9.297 -0.1080  0.3959 -0.2683
44739SOL    HW138774  10.073  10.319   9.371 -0.0625 -1.2087  0.0460
44739SOL    HW238775  10.040  10.221   9.261 -0.7046  0.7491 -1.5847
44740SOL     OW38776  11.984   4.324   3.130 -0.5814 -0.0988 -0.2324
44740SOL    HW138777  12.045   4.337   3.057  1.1383  0.0100  1.1525
44740SOL    HW238778  12.034   4.350   3.207 -2.3855 -0.1071  0.9847
44741SOL     OW38779   4.046  10.727   1.354  0.4488  0.1619 -0.0988
44741SOL    HW138780   4.130  10.726   1.308 -0.8976 -2.5517 -2.8415
44741SOL    HW238781   4.064  10.686   1.439  1.7056 -1.7824 -1.2332
44742SOL     OW38782   6.983   3.284   3.430  0.0770  0.1558 -0.4302
44742SOL    HW138783   7.022   3.261   3.514 -0.9316 -2.3955 -0.5709
44742SOL    HW238784   7.034   3.235   3.365 -0.2989  0.6483 -1.1163
44743SOL     OW38785   9.683   7.772   6.735  0.0610  0.2122  0.2156
44743SOL    HW138786   9.674   7.834   6.663 -0.0739 -0.6927 -0.5720
44743SOL    HW238787   9.777   7.756   6.742  0.4158  2.4899  2.2044
44744SOL     OW38788   7.546   1.393   1.033 -0.4907  0.3730  0.5134
44744SOL    HW138789   7.549   1.345   0.951  0.8074 -0.6419  1.1235
44744SOL    HW238790   7.453   1.413   1.045 -0.5262  2.6302 -2.3084
44745SOL     OW38791  10.597  11.233   3.570  0.5810 -0.0698  0.0004
44745SOL    HW138792  10.673  11.257   3.622  1.2867  0.3263 -1.1856
44745SOL    HW238793  10.560  11.157   3.616 -0.4335  1.8435  2.6207
44746SOL     OW38794   0.468   2.228   5.842  0.4430 -0.3055 -0.1293
44746SOL    HW138795   0.482   2.274   5.924  0.5032 -1.3578  0.4637
44746SOL    HW238796   0.378   2.250   5.817 -0.2485 -1.4881  1.2071
44747SOL     OW38797   1.431  10.387   3.856  0.2184 -0.3543 -0.4287
44747SOL    HW138798   1.438  10.342   3.940 -0.9229 -0.4920 -0.3962
44747SOL    HW238799   1.338  10.408   3.847  0.5305  0.8723 -1.0274
44748SOL     OW38800   3.535   7.820   5.445 -0.0718  0.1007 -0.2641
44748SOL    HW138801   3.544   7.910   5.412 -0.1901 -0.5603 -2.2720
44748SOL    HW238802   3.442   7.801   5.433  0.1620 -0.6566 -0.9245
44749SOL     OW38803   0.140  11.756   1.114 -0.2897 -0.5579 -0.0162
44749SOL    HW138804   0.160  11.668   1.145  2.7093  0.0726  0.0926
44749SOL    HW238805   0.160  11.814   1.188  0.1514  0.3930 -0.8490
44750SOL     OW38806   6.917   2.736   4.464  0.5391 -0.4890 -0.1649
44750SOL    HW138807   6.896   2.705   4.553  1.6750  0.6493  0.5325
44750SOL    HW238808   6.862   2.814   4.453  1.0677 -0.1023 -0.0960
44751SOL     OW38809   2.765   4.442   4.954 -0.0798  0.4194 -0.5984
44751SOL    HW138810   2.821   4.377   4.998 -0.2269  0.4763 -0.3247
44751SOL    HW238811   2.685   4.394   4.932 -0.9948  0.9661  1.3403
44752SOL     OW38812   1.778   2.418   3.641  0.1420 -0.5827 -0.3829
44752SOL    HW138813   1.721   2.450   3.571  0.2812 -0.0203 -0.2447
44752SOL    HW238814   1.866   2.420   3.603  0.5346  1.8721  0.4893
44753SOL     OW38815   6.948   9.088  10.886 -0.0181 -0.1411 -1.0814
44753SOL    HW138816   6.945   9.162  10.826 -0.2832  0.3478 -0.4728
44753SOL    HW238817   6.874   9.102  10.945 -0.4059 -1.1834 -1.2916
44754SOL     OW38818   5.492   4.365   3.539 -0.3488  0.3407 -0.4109
44754SOL    HW138819   5.485   4.461   3.542 -2.0287  0.2366  0.0289
44754SOL    HW238820   5.403   4.334   3.556  0.5515 -1.3431  1.8116
44755SOL     OW38821   0.540   7.295   3.905 -0.0258  0.8554  0.0268
44755SOL    HW138822   0.617   7.317   3.957 -0.7768  0.4447  1.3306
44755SOL    HW238823   0.533   7.367   3.842  2.1572  0.2675 -1.0055
44756SOL     OW38824   5.149   5.466   7.813  0.5260  0.3389  0.1292
44756SOL    HW138825   5.067   5.427   7.784  1.2178  0.6502 -2.5863
44756SOL    HW238826   5.213   5.437   7.747  2.3428  1.1016  1.4724
44757SOL     OW38827   4.781   5.164   6.291 -0.0376 -0.2258 -0.1499
44757SOL    HW138828   4.693   5.150   6.258 -0.3635  0.4352  0.4046
44757SOL    HW238829   4.776   5.247   6.339  1.0739  0.2401 -0.7917
44758SOL     OW38830   5.869   7.251   2.530  0.3247  0.1893  0.1868
44758SOL    HW138831   5.879   7.276   2.438  0.4369 -0.6822 -0.0453
44758SOL    HW238832   5.797   7.188   2.530  1.1818 -0.8285  0.4918
44759SOL     OW38833   1.534   8.068   7.254  0.7619  0.6183  0.6565
44759SOL    HW138834   1.609   8.084   7.197  1.1072 -1.9749  0.2862
44759SOL    HW238835   1.571   8.065   7.342  1.0157 -0.0701  0.5308
44760SOL     OW38836   4.995   1.837  11.388  0.0077  0.2580  0.3810
44760SOL    HW138837   4.970   1.899  11.456 -0.9718  0.0271  0.2412
44760SOL    HW238838   5.078   1.801  11.418 -0.5308 -0.0314  1.5931
44761SOL     OW38839   3.812   0.805   8.372  0.2576 -0.0492  0.0510
44761SOL    HW138840   3.882   0.740   8.373 -0.2855 -0.6479 -0.1775
44761SOL    HW238841   3.840   0.868   8.306 -0.1541 -1.1300 -1.1936
44762SOL     OW38842   0.188   0.632   4.473 -0.0080  0.2787 -0.2262
44762SOL    HW138843   0.136   0.591   4.541  0.4234 -0.1830 -0.1704
44762SOL    HW238844   0.129   0.695   4.432 -0.0010  1.2738  1.1993
44763SOL     OW38845   6.170   7.499   2.377 -0.1130  0.3016  0.4106
44763SOL    HW138846   6.093   7.496   2.433  1.4164  0.3040  2.6612
44763SOL    HW238847   6.227   7.430   2.412  0.7969  0.0959 -1.3774
44764SOL     OW38848   0.229  11.676  10.601  0.3442 -0.2763 -0.0358
44764SOL    HW138849   0.178  11.755  10.579  0.9266  0.4165  1.0051
44764SOL    HW238850   0.308  11.683  10.547  0.4886 -0.0275  0.2012
44765SOL     OW38851   6.395   6.649  10.620  0.0918  0.6131 -0.6664
44765SOL    HW138852   6.453   6.700  10.677  0.9949 -1.1559  0.0751
44765SOL    HW238853   6.349   6.589  10.679  0.1773 -0.4683 -1.6591
44766SOL     OW38854   5.370   8.956   1.525 -0.3229  0.2532  0.6348
44766SOL    HW138855   5.443   9.007   1.489 -0.0717 -0.6281 -0.1364
44766SOL    HW238856   5.401   8.928   1.612  0.4214 -0.4276  0.1634
44767SOL     OW38857   4.023  10.092   5.833 -0.2199  0.3154  0.2067
44767SOL    HW138858   3.956  10.158   5.845  0.0193  0.7542 -0.7432
44767SOL    HW238859   4.002  10.051   5.749  2.7074  2.9919 -2.0979
44768SOL     OW38860   1.784   8.750   3.654 -0.0343  1.0848 -0.0172
44768SOL    HW138861   1.816   8.696   3.727 -1.1837  0.1987 -0.1260
44768SOL    HW238862   1.713   8.801   3.693 -0.3393  0.9544 -0.3913
44769SOL     OW38863   8.624  10.506   4.649 -0.4921 -0.4865 -0.3275
44769SOL    HW138864   8.591  10.583   4.696  0.1712  0.2827 -1.0655
44769SOL    HW238865   8.719  10.519   4.647 -0.2742 -1.8026  0.3230
44770SOL     OW38866   9.939  10.084  10.138 -0.1269  0.3918  0.7341
44770SOL    HW138867   9.896  10.156  10.092 -0.0079 -0.0635 -0.1125
44770SOL    HW238868   9.867  10.026  10.164 -0.0326 -0.8196 -1.4545
44771SOL     OW38869   0.236   8.134  11.378  0.3193  0.0138 -0.5809
44771SOL    HW138870   0.159   8.123  11.322  0.6615 -1.4473 -0.8130
44771SOL    HW238871   0.309   8.144  11.317  0.5446 -0.4830 -0.4032
44772SOL     OW38872   8.370   0.204  11.605 -0.3307  0.0371  0.5445
44772SOL    HW138873   8.337   0.119  11.577  0.6576 -0.3496  0.4964
44772SOL    HW238874   8.415   0.239  11.529 -2.1007  1.3693  0.0337
44773SOL     OW38875   1.718   9.822   0.985  0.1148 -0.2724  0.0753
44773SOL    HW138876   1.794   9.772   1.014  0.4532  0.5996  0.7347
44773SOL    HW238877   1.674   9.849   1.066 -0.9778 -0.8783 -0.2977
44774SOL     OW38878   4.568  10.981   7.619 -0.2970 -0.4627  0.0301
44774SOL    HW138879   4.495  10.921   7.600 -0.7595  0.4944 -1.3879
44774SOL    HW238880   4.553  11.056   7.561  1.6146 -0.0593 -0.0092
44775SOL     OW38881   4.080   9.397   1.354 -0.1316 -0.1926 -0.0212
44775SOL    HW138882   3.993   9.358   1.359  0.2739 -0.9162  2.5878
44775SOL    HW238883   4.065   9.491   1.359 -0.8180 -0.2252 -1.1361
44776SOL     OW38884   9.057   0.798  11.658  0.4614  0.1617  0.6914
44776SOL    HW138885   8.981   0.811  11.602 -0.0451  0.2754  1.3796
44776SOL    HW238886   9.132   0.797  11.599 -0.0777  0.0445  0.0011
44777SOL     OW38887  11.955  11.025   6.032 -0.0894 -0.8786 -0.3115
44777SOL    HW138888  11.977  10.968   6.106 -1.5726 -0.2189  0.6925
44777SOL    HW238889  11.898  10.970   5.977  1.9407 -1.7664 -1.6428
44778SOL     OW38890   6.415   1.491   5.234 -0.3102  0.5867  0.1736
44778SOL    HW138891   6.481   1.499   5.303 -1.8332  2.6224  1.5102
44778SOL    HW238892   6.408   1.397   5.219  1.8485  0.2242  0.9726
44779SOL     OW38893   5.037   0.117  10.649  0.3869 -0.7646 -0.1768
44779SOL    HW138894   5.128   0.103  10.622  0.8021  0.9675  0.2410
44779SOL    HW238895   4.985   0.090  10.573  1.4287  1.7494 -1.9141
44780SOL     OW38896   9.462   2.275   4.132  0.1964  0.1756 -0.4739
44780SOL    HW138897   9.375   2.297   4.165  0.2634  2.3022 -1.5325
44780SOL    HW238898   9.523   2.320   4.190  0.6300 -1.3457  0.2960
44781SOL     OW38899   0.849   7.836   6.981 -0.4803 -0.3981  0.0813
44781SOL    HW138900   0.778   7.785   6.943 -0.2341 -0.0710 -0.8469
44781SOL    HW238901   0.885   7.886   6.907  1.6135 -1.5852  0.2340
44782SOL     OW38902   6.363   6.730   5.969  0.1143 -0.1748 -0.3958
44782SOL    HW138903   6.302   6.716   5.897 -0.1178  1.0021 -0.4387
44782SOL    HW238904   6.356   6.823   5.989  1.5475 -0.1103 -0.0957
44783SOL     OW38905   0.854   7.511   5.628 -0.0226 -0.1630 -0.3461
44783SOL    HW138906   0.832   7.463   5.548  0.6826 -0.1277 -0.5656
44783SOL    HW238907   0.791   7.583   5.631  2.1186  1.9692 -2.7817
44784SOL     OW38908   3.973   4.758   4.926 -0.3062  0.3517 -0.3140
44784SOL    HW138909   3.905   4.760   4.994 -1.3320  0.6793 -1.3143
44784SOL    HW238910   3.971   4.668   4.893  0.3302  0.1383  0.2029
44785SOL     OW38911   3.582   9.123   2.780 -0.2676  0.0670  0.0503
44785SOL    HW138912   3.668   9.143   2.816 -0.3200 -1.7407  1.2962
44785SOL    HW238913   3.561   9.037   2.814 -3.4116  1.2097  1.3647
44786SOL     OW38914   7.210  11.525   3.272 -0.1584 -0.2487 -0.3873
44786SOL    HW138915   7.297  11.529   3.231 -0.3777  0.7971 -0.7832
44786SOL    HW238916   7.215  11.450   3.331  1.4638  0.6081  0.6300
44787SOL     OW38917   0.395   7.242   8.010 -0.6426  0.2872 -0.0931
44787SOL    HW138918   0.316   7.228   7.957  0.2105 -0.9254 -1.0852
44787SOL    HW238919   0.417   7.156   8.043  0.8595  0.4286 -0.6784
44788SOL     OW38920   5.326   6.669   6.022  0.2777  0.0308  0.4712
44788SOL    HW138921   5.342   6.687   5.929 -1.0697 -2.1881 -0.2610
44788SOL    HW238922   5.234   6.692   6.035  0.2707 -0.3319  1.0756
44789SOL     OW38923   9.213   7.547   9.539 -0.0695 -0.0885 -0.0087
44789SOL    HW138924   9.144   7.605   9.505 -0.4220 -1.2512 -1.4030
44789SOL    HW238925   9.179   7.514   9.621 -0.2473  0.9740  0.3580
44790SOL     OW38926   9.749   1.769   7.947 -0.0506 -0.3910 -0.0401
44790SOL    HW138927   9.835   1.734   7.925  0.1158  0.0945 -0.1876
44790SOL    HW238928   9.688   1.700   7.923  0.2880 -0.6743 -0.0895
44791SOL     OW38929   9.862   5.655   1.207  0.2580  0.0506  0.0154
44791SOL    HW138930   9.941   5.652   1.261  0.2195  3.1364  0.4092
44791SOL    HW238931   9.857   5.746   1.176 -3.2202  0.0609  0.1928
44792SOL     OW38932   8.520   7.082   2.417  0.5111 -0.1039 -0.3179
44792SOL    HW138933   8.549   7.036   2.495  1.2067  0.7561 -0.0416
44792SOL    HW238934   8.515   7.174   2.444 -1.2654 -0.0584 -0.7312
44793SOL     OW38935   4.488   7.205   3.578  0.2934 -0.5265  0.0262
44793SOL    HW138936   4.544   7.128   3.591  1.0015  0.1087  0.8071
44793SOL    HW238937   4.463   7.232   3.666 -1.8665 -1.2033 -0.3130
44794SOL     OW38938   8.053  10.339   3.265 -0.4688  0.6851  0.0933
44794SOL    HW138939   7.971  10.328   3.312 -0.7925  1.0608 -0.3671
44794SOL    HW238940   8.027  10.349   3.173  0.2234 -1.5929 -0.4240
44795SOL     OW38941  10.456   7.105   9.370 -0.3690  0.1524 -0.1178
44795SOL    HW138942  10.366   7.087   9.399 -0.2927 -0.1610 -0.0716
44795SOL    HW238943  10.446   7.178   9.308 -0.5240  0.8756  0.7320
44796SOL     OW38944  12.022  11.987   6.720 -0.0737  0.4031  0.0706
44796SOL    HW138945  12.049  11.956   6.634  0.8140  1.1825  0.0582
44796SOL    HW238946  11.926  11.984   6.718 -0.0678  0.7978 -1.0804
44797SOL     OW38947   7.722   3.336   3.527 -0.4449  0.0809 -0.1309
44797SOL    HW138948   7.817   3.328   3.530 -0.3670  1.1339  0.3875
44797SOL    HW238949   7.698   3.308   3.439  0.0897 -2.5873  0.4744
44798SOL     OW38950   0.308   7.858   8.675 -0.3188  0.3609  0.7034
44798SOL    HW138951   0.280   7.813   8.596  0.3646 -0.1538  0.7485
44798SOL    HW238952   0.372   7.923   8.645  1.5227 -1.2058  1.0106
44799SOL     OW38953   9.435   3.294   2.339 -0.5937 -0.2051 -0.2062
44799SOL    HW138954   9.520   3.252   2.356  0.3602  1.8148  0.2240
44799SOL    HW238955   9.436   3.312   2.245 -0.8894 -0.8224 -0.3390
44800SOL     OW38956   9.828   7.147   7.695 -0.2277  0.5311  0.2002
44800SOL    HW138957   9.759   7.209   7.721 -1.2883 -0.8012  0.6740
44800SOL    HW238958   9.830   7.153   7.599 -2.7609 -1.1406 -0.0616
44801SOL     OW38959   5.872   0.613   4.257  0.1214 -0.0681  0.0758
44801SOL    HW138960   5.935   0.647   4.320  0.9269 -1.7508  0.2344
44801SOL    HW238961   5.919   0.543   4.211 -1.0224 -0.0722 -1.1432
44802SOL     OW38962   2.819   3.887   8.891  0.1082  0.9102  0.1038
44802SOL    HW138963   2.803   3.848   8.805  2.1902 -1.4140  0.6621
44802SOL    HW238964   2.739   3.866   8.941  0.5380 -1.5227 -0.0748
44803SOL     OW38965   9.885   8.818   8.674  0.3627  0.1841 -0.2164
44803SOL    HW138966   9.842   8.891   8.629 -2.0342 -0.7294  0.4195
44803SOL    HW238967   9.824   8.744   8.663  1.1593 -0.8649  1.8739
44804SOL     OW38968   5.948   9.726   2.715 -0.0378  0.0267  0.3238
44804SOL    HW138969   5.965   9.772   2.797 -1.0049 -0.5015  0.8288
44804SOL    HW238970   5.964   9.634   2.735  0.1501 -0.0604 -0.2020
44805SOL     OW38971  12.015  11.084   2.496 -0.2930 -0.3887  0.1525
44805SOL    HW138972  12.030  11.166   2.448  2.6779 -1.0036 -0.1428
44805SOL    HW238973  12.051  11.101   2.583 -0.5018 -1.0772  0.3784
44806SOL     OW38974   8.005  10.522   8.586 -0.2712  0.3709 -0.4265
44806SOL    HW138975   7.972  10.604   8.623 -0.2912 -0.4547  1.5029
44806SOL    HW238976   8.081  10.500   8.640  1.3039  0.3847 -2.5222
44807SOL     OW38977   9.424   5.197  11.930 -0.0274 -0.8174 -0.1692
44807SOL    HW138978   9.414   5.102  11.941 -0.0328 -0.8035 -0.0500
44807SOL    HW238979   9.511   5.216  11.966 -0.5475 -0.5901  1.0034
44808SOL     OW38980  10.666  10.570   1.799 -0.2490 -0.3501 -0.1994
44808SOL    HW138981  10.683  10.483   1.836 -0.7537 -0.3102  0.1503
44808SOL    HW238982  10.579  10.562   1.760 -0.1485 -0.0986 -0.4718
44809SOL     OW38983   3.328   7.295  11.185 -0.3858 -0.8381 -0.6180
44809SOL    HW138984   3.256   7.351  11.155 -0.0983 -0.1834 -0.0982
44809SOL    HW238985   3.399   7.356  11.206 -0.0701 -1.4007 -0.0360
44810SOL     OW38986  10.713   2.157  11.286 -0.1126  0.3616  0.6804
44810SOL    HW138987  10.808   2.164  11.290 -0.2713  4.1710  0.8930
44810SOL    HW238988  10.688   2.199  11.204 -1.6495 -0.6329  0.5822
44811SOL     OW38989   4.880   3.865   1.643  1.5004  0.1963  0.4471
44811SOL    HW138990   4.892   3.940   1.700 -1.0959  0.2862  0.9521
44811SOL    HW238991   4.854   3.793   1.701 -0.8108  0.1945 -0.4785
44812SOL     OW38992   8.040   1.078   5.652 -0.0810  0.5807 -0.6104
44812SOL    HW138993   8.007   1.125   5.728 -1.2281 -0.1946 -0.6032
44812SOL    HW238994   8.008   0.988   5.663  1.8960 -0.2037 -0.7122
44813SOL     OW38995   0.549   4.937  12.034  0.1108 -0.2054  0.0200
44813SOL    HW138996   0.505   4.876  11.975 -0.7991 -0.6378  1.1180
44813SOL    HW238997   0.569   5.013  11.979 -1.6180 -0.1693 -0.6229
44814SOL     OW38998  10.318  10.910   1.183 -0.1409 -0.1307  0.1112
44814SOL    HW138999  10.311  10.878   1.093 -1.0555  1.8255 -0.5690
44814SOL    HW239000  10.259  10.854   1.233 -0.0913 -0.8543 -0.6078
44815SOL     OW39001   2.276   7.819   0.742  0.1734  0.2000  0.2066
44815SOL    HW139002   2.306   7.879   0.809  0.6779  2.0536 -1.5795
44815SOL    HW239003   2.185   7.844   0.726  1.1665  2.6385 -2.5554
44816SOL     OW39004   8.671   1.091   2.015  0.4026 -0.3384  0.0493
44816SOL    HW139005   8.668   1.102   2.110  2.9798  0.8323  0.0878
44816SOL    HW239006   8.675   0.996   2.002  1.9028 -0.4869  1.2598
44817SOL     OW39007   8.004   4.557   3.634  0.3960 -0.3978  0.1534
44817SOL    HW139008   8.015   4.575   3.541  0.3783 -0.2539  0.1799
44817SOL    HW239009   8.079   4.502   3.657  0.3016 -0.5860  0.0123
44818SOL     OW39010   8.541   6.727   6.631 -0.2427  0.1183  0.0484
44818SOL    HW139011   8.602   6.700   6.562  0.6708  0.6859  0.6044
44818SOL    HW239012   8.596   6.775   6.693 -0.7470 -1.5152  1.8731
44819SOL     OW39013   2.294   3.200  11.755  0.9064  0.0659  0.4698
44819SOL    HW139014   2.329   3.231  11.839 -1.4909  0.6165  1.3509
44819SOL    HW239015   2.341   3.118  11.738  2.6801  0.8171  1.4266
44820SOL     OW39016   5.782  11.193   8.633 -0.2428  0.1854 -0.0106
44820SOL    HW139017   5.837  11.264   8.599  0.4972  0.1481  1.0677
44820SOL    HW239018   5.733  11.162   8.557  0.8113  0.6010 -0.8777
44821SOL     OW39019   8.547  10.910  10.288  0.6315 -0.0017 -0.3571
44821SOL    HW139020   8.569  10.818  10.277 -1.1449 -0.2516 -2.5186
44821SOL    HW239021   8.451  10.911  10.295  0.7170  1.5762  1.1818
44822SOL     OW39022   1.344   7.607   5.395  0.3965 -0.4718  0.5078
44822SOL    HW139023   1.292   7.661   5.454 -0.9572 -1.5113  0.3340
44822SOL    HW239024   1.411   7.568   5.451 -1.1115 -1.7658  1.4978
44823SOL     OW39025   0.933   8.028   5.486  0.1116 -0.1434 -0.3529
44823SOL    HW139026   0.916   8.113   5.446 -0.8229 -0.2545 -0.2192
44823SOL    HW239027   0.865   8.019   5.553  0.9736 -0.4439  0.5125
44824SOL     OW39028   3.106   3.997   7.545 -0.4796  0.0320  0.3599
44824SOL    HW139029   3.034   4.007   7.608  0.4509  0.0306  1.4486
44824SOL    HW239030   3.171   3.945   7.591 -0.0267 -0.4915 -0.8392
44825SOL     OW39031   3.121   5.808   7.169  0.0605  0.1753 -0.5291
44825SOL    HW139032   3.152   5.808   7.260  1.9433  0.2705 -1.1386
44825SOL    HW239033   3.035   5.765   7.174 -0.1190  0.6399  1.3576
44826SOL     OW39034   0.604   2.628   4.523 -0.0035  0.5464  0.1770
44826SOL    HW139035   0.657   2.549   4.516 -0.1548  0.5436 -1.1938
44826SOL    HW239036   0.517   2.601   4.492 -0.0840  1.2147 -0.2026
44827SOL     OW39037   8.583   1.567   2.319 -0.5293  0.5115  0.2772
44827SOL    HW139038   8.497   1.527   2.329 -0.7734  1.0312  0.3159
44827SOL    HW239039   8.564   1.658   2.294 -0.0144  0.9022  1.2621
44828SOL     OW39040  11.669   5.113   4.543  0.1526 -0.1179 -0.1581
44828SOL    HW139041  11.615   5.189   4.564  0.1937 -0.5030  1.4926
44828SOL    HW239042  11.713   5.136   4.462 -3.3431 -0.2609 -2.2942
44829SOL     OW39043  11.314   1.994   3.042 -0.4345  0.7637  0.1992
44829SOL    HW139044  11.396   1.947   3.058 -0.0395  1.5194  0.4517
44829SOL    HW239045  11.270   1.944   2.973 -0.8148 -0.9287  1.6155
44830SOL     OW39046  10.805   6.368   2.482 -1.0011  0.8692  0.7763
44830SOL    HW139047  10.763   6.318   2.552 -1.4718 -0.2294 -0.2400
44830SOL    HW239048  10.741   6.367   2.410  0.8126 -1.1574 -0.9573
44831SOL     OW39049   6.637  10.495   6.838  0.1067  0.4220 -0.1168
44831SOL    HW139050   6.604  10.478   6.926 -0.4850  2.2697  0.0730
44831SOL    HW239051   6.560  10.522   6.788  0.9983  3.6827  0.0284
44832SOL     OW39052   9.935   8.459   4.593 -0.5264 -0.4165  0.1635
44832SOL    HW139053   9.934   8.526   4.661  0.3159 -0.0823 -0.1360
44832SOL    HW239054   9.856   8.408   4.608 -1.4772  0.9637  0.0807
44833SOL     OW39055   6.757   1.986   3.567  0.6130  0.8251  0.1948
44833SOL    HW139056   6.695   1.914   3.576  2.8337 -1.1326  0.6573
44833SOL    HW239057   6.830   1.949   3.517  1.2354  3.1779 -0.7592
44834SOL     OW39058   5.688   9.484   4.248 -0.1195  0.7172 -0.2348
44834SOL    HW139059   5.630   9.423   4.204 -0.5183  0.4498  0.6378
44834SOL    HW239060   5.764   9.432   4.275  0.1034  0.8703 -0.5537
44835SOL     OW39061   0.892   4.617   6.497  0.0132 -0.3307 -0.3327
44835SOL    HW139062   0.916   4.565   6.421 -1.2151 -0.0589 -0.9394
44835SOL    HW239063   0.807   4.582   6.524  0.3840 -0.3514  0.8548
44836SOL     OW39064   7.156   2.505   3.012 -0.3307  0.5821  0.0916
44836SOL    HW139065   7.131   2.525   3.102  0.9744 -0.4397  0.7211
44836SOL    HW239066   7.240   2.549   2.999 -1.3422  2.2439 -1.2854
44837SOL     OW39067   2.347   4.310   8.421  0.2206  0.0617 -0.1689
44837SOL    HW139068   2.302   4.282   8.501  0.4318  0.5136  0.1123
44837SOL    HW239069   2.433   4.339   8.450  0.6791 -0.7186 -0.6935
44838SOL     OW39070   8.805   6.341   2.287  0.4197 -0.4265 -0.6796
44838SOL    HW139071   8.810   6.275   2.357  0.6908 -0.3280 -0.6048
44838SOL    HW239072   8.786   6.423   2.333  0.9527 -0.2981 -0.6856
44839SOL     OW39073   2.675   2.191  11.785  0.7380 -0.7816  0.2647
44839SOL    HW139074   2.668   2.204  11.879 -3.4495  0.9647 -0.0679
44839SOL    HW239075   2.586   2.168  11.757  1.1494  1.4075 -3.5364
44840SOL     OW39076  10.154   7.397  11.411  0.0611 -0.2122 -0.1449
44840SOL    HW139077  10.091   7.384  11.340  0.4984  0.3124 -0.6440
44840SOL    HW239078  10.145   7.489  11.434  0.4431 -0.2035 -0.0271
44841SOL     OW39079   2.045   0.476   7.353 -0.1551 -0.5979 -0.0180
44841SOL    HW139080   2.078   0.478   7.442 -2.1166  1.4850  0.7697
44841SOL    HW239081   2.114   0.516   7.301 -0.6533  2.2166  1.3215
44842SOL     OW39082   2.129   9.802   5.552 -0.0860 -0.0914 -0.3117
44842SOL    HW139083   2.119   9.796   5.456  0.1141 -0.0350 -0.3350
44842SOL    HW239084   2.199   9.865   5.565 -1.5058  1.5215 -0.0724
44843SOL     OW39085   7.745   9.597  10.634 -0.2391  0.0768  0.1486
44843SOL    HW139086   7.749   9.565  10.724  2.0098 -0.9978 -0.2631
44843SOL    HW239087   7.800   9.536  10.584  0.2994  1.8696 -1.5642
44844SOL     OW39088   9.075   5.820  11.773 -0.9785 -0.4940  0.9755
44844SOL    HW139089   9.042   5.893  11.719  0.2990 -1.5633 -1.4366
44844SOL    HW239090   9.144   5.859  11.827 -0.6402  0.2055  0.0723
44845SOL     OW39091   0.398   0.003   8.854 -0.6874 -0.3142 -0.6646
44845SOL    HW139092   0.474   0.057   8.873 -0.7688 -0.3539 -0.2272
44845SOL    HW239093   0.402  -0.069   8.917 -1.1772 -0.2255 -0.5278
44846SOL     OW39094   7.472   6.095   4.649  0.5822 -0.0251 -0.7495
44846SOL    HW139095   7.480   6.000   4.657 -0.5062 -0.1132 -0.5703
44846SOL    HW239096   7.431   6.122   4.731  1.7735  0.7274 -0.3815
44847SOL     OW39097   1.666   1.496  10.907  0.1174  0.2975 -0.2209
44847SOL    HW139098   1.677   1.580  10.953 -0.7281  0.1872  0.1915
44847SOL    HW239099   1.650   1.521  10.816 -1.5013  0.6679  0.1296
44848SOL     OW39100   0.249   2.262   6.464 -0.0408  0.4366 -0.2679
44848SOL    HW139101   0.279   2.171   6.455 -0.9029  0.1361 -0.2412
44848SOL    HW239102   0.205   2.280   6.381 -1.0739  0.3544  0.2460
44849SOL     OW39103   1.166   7.243   5.413 -0.3402  0.2933  0.7223
44849SOL    HW139104   1.150   7.305   5.484  1.3243  2.5306 -0.6784
44849SOL    HW239105   1.201   7.298   5.342 -0.5821 -2.0191 -1.3151
44850SOL     OW39106   6.362   8.194   8.593  0.5442  0.3683  0.4724
44850SOL    HW139107   6.375   8.132   8.665  0.9156  1.5430  1.4449
44850SOL    HW239108   6.402   8.152   8.517 -1.1074 -1.5355  0.5860
44851SOL     OW39109   4.229   3.256  11.986 -0.2893 -0.3099 -0.1091
44851SOL    HW139110   4.229   3.351  11.996 -1.3461 -0.3457  0.3813
44851SOL    HW239111   4.136   3.232  11.985 -0.0296 -1.3953  0.3926
44852SOL     OW39112   6.660   7.246   1.893 -0.2857  0.8614 -0.0021
44852SOL    HW139113   6.659   7.289   1.978 -0.1197 -0.9876  0.9789
44852SOL    HW239114   6.645   7.317   1.830  1.1300  2.5147  1.4193
44853SOL     OW39115   7.498  12.059   0.927 -0.0888 -0.0073  1.0312
44853SOL    HW139116   7.411  12.053   0.888  0.2931 -2.0084  0.3865
44853SOL    HW239117   7.539  11.975   0.907  2.7362  1.5789 -0.4318
44854SOL     OW39118   1.661   6.314   3.014 -0.2696 -0.0542 -0.3715
44854SOL    HW139119   1.625   6.254   3.079  1.3593 -0.2388  0.4175
44854SOL    HW239120   1.597   6.384   3.008 -0.2203  0.2759  1.9171
44855SOL     OW39121   6.255   8.243   4.109 -0.3364  0.0126 -0.1391
44855SOL    HW139122   6.239   8.238   4.015 -0.5190 -2.1397 -0.0365
44855SOL    HW239123   6.329   8.184   4.124 -0.0235  0.6592  1.0303
44856SOL     OW39124   4.484   4.234   8.082  0.3094  0.0407 -0.1848
44856SOL    HW139125   4.559   4.228   8.022  0.6288 -0.1237  0.2245
44856SOL    HW239126   4.412   4.193   8.034  0.2969  0.8265 -0.8610
44857SOL     OW39127  10.825   9.057   5.617  0.2324 -0.2985  0.2209
44857SOL    HW139128  10.751   9.117   5.612  0.0731 -0.1855  2.6090
44857SOL    HW239129  10.786   8.970   5.611 -0.0916 -0.2324  1.2132
44858SOL     OW39130   4.652   4.544   9.549  0.1394  0.0098  0.1196
44858SOL    HW139131   4.669   4.635   9.575 -0.5951  0.4670 -0.9127
44858SOL    HW239132   4.710   4.529   9.474 -0.7368  0.1117 -0.6032
44859SOL     OW39133   7.398   4.379   2.475 -0.1856 -0.2826  0.4316
44859SOL    HW139134   7.451   4.314   2.429  1.8035  0.9466  0.8895
44859SOL    HW239135   7.369   4.333   2.554 -1.7354 -1.6708 -0.8599
44860SOL     OW39136   5.669   6.919   9.483 -0.3276  0.6588 -0.4796
44860SOL    HW139137   5.606   6.849   9.471 -0.5099  0.7148  0.1406
44860SOL    HW239138   5.680   6.926   9.577 -1.0020  2.0694 -0.4812
44861SOL     OW39139  11.043   3.280   8.541  0.4020  0.9601  0.2703
44861SOL    HW139140  11.082   3.193   8.546 -0.6112 -0.0039 -4.3471
44861SOL    HW239141  11.078   3.317   8.459 -2.1418  3.3117  0.1132
44862SOL     OW39142   0.890   7.156  11.984  0.6535 -0.4256 -0.4263
44862SOL    HW139143   0.943   7.143  11.905  0.8484 -0.2022 -0.3342
44862SOL    HW239144   0.837   7.077  11.991  0.0076 -0.0864 -1.2619
44863SOL     OW39145   2.910   2.379   0.847 -0.1833 -0.2858 -0.3930
44863SOL    HW139146   2.892   2.374   0.753 -0.5839  2.5043 -0.5327
44863SOL    HW239147   3.002   2.406   0.852 -0.2274 -0.2114  0.0075
44864SOL     OW39148   6.032   1.499   1.686 -0.0201 -0.5542 -0.0882
44864SOL    HW139149   5.969   1.430   1.666  0.3729 -1.3992  1.4898
44864SOL    HW239150   5.981   1.567   1.730 -0.4054  0.2005 -1.6329
44865SOL     OW39151   3.262   7.269   7.026 -0.0458  0.0361  0.4975
44865SOL    HW139152   3.232   7.210   6.956  1.4906 -0.6037  0.3309
44865SOL    HW239153   3.249   7.357   6.990 -2.6155 -0.1305  0.8484
44866SOL     OW39154   1.102   7.750   2.737  0.1643  0.2889  0.3626
44866SOL    HW139155   1.039   7.756   2.665 -0.3723 -1.0821  0.6931
44866SOL    HW239156   1.106   7.656   2.758  0.8156  0.5882  1.6800
44867SOL     OW39157   1.974   4.149  10.807 -0.4871 -0.2300  0.9868
44867SOL    HW139158   1.960   4.147  10.712  0.3283  0.4459  0.8425
44867SOL    HW239159   1.934   4.232  10.835 -0.0704 -0.0665  1.1130
44868SOL     OW39160   6.890   2.834   5.041  0.1644  0.0961 -0.0895
44868SOL    HW139161   6.971   2.786   5.027 -0.7952 -2.1503  1.4263
44868SOL    HW239162   6.840   2.779   5.102 -1.3415  2.7063  1.2173
44869SOL     OW39163  11.605   9.869   1.103 -0.0852  0.0417 -0.5913
44869SOL    HW139164  11.539   9.856   1.171 -0.1321  1.5427 -0.3198
44869SOL    HW239165  11.587   9.957   1.069  1.5262  0.3259 -0.7746
44870SOL     OW39166   0.349  10.201   4.864 -0.2437  0.5988 -0.1914
44870SOL    HW139167   0.313  10.112   4.855 -2.6417  1.6785 -2.3434
44870SOL    HW239168   0.394  10.217   4.781  0.6878  1.2293  0.4147
44871SOL     OW39169   3.432   4.076   8.743 -0.2604 -0.3429 -0.2478
44871SOL    HW139170   3.341   4.060   8.768  0.2747 -3.7614 -0.0863
44871SOL    HW239171   3.484   4.036   8.813  1.3009 -1.8374 -2.1269
44872SOL     OW39172   7.225   6.059   8.188  0.5516 -0.4470  0.0896
44872SOL    HW139173   7.318   6.053   8.207  0.8497 -0.0273 -1.1375
44872SOL    HW239174   7.221   6.091   8.097 -0.7554 -1.9710 -0.4397
44873SOL     OW39175   8.544   5.907   3.270  0.3843 -0.0896  0.0429
44873SOL    HW139176   8.623   5.873   3.228  0.9537  0.1600  0.8769
44873SOL    HW239177   8.477   5.842   3.251  0.7243 -0.1880 -0.8773
44874SOL     OW39178   2.960   7.059   3.109  0.2590 -0.8760 -0.0443
44874SOL    HW139179   2.961   7.153   3.090 -0.0566 -0.9973 -0.6872
44874SOL    HW239180   2.958   7.054   3.204 -0.9162 -0.2060 -0.0135
44875SOL     OW39181   6.951   2.885   7.565 -0.4527  0.6984 -0.0809
44875SOL    HW139182   6.976   2.799   7.531 -0.8068  1.0270 -1.2370
44875SOL    HW239183   7.024   2.912   7.620  0.2731  0.2408 -0.8055
44876SOL     OW39184   0.049   5.608   9.451  0.1256  0.2838 -0.2562
44876SOL    HW139185   0.107   5.683   9.463  0.2392  0.3488 -1.1610
44876SOL    HW239186   0.090   5.537   9.502 -0.0754  0.8648  0.7455
44877SOL     OW39187   1.748   6.049  10.300 -0.2480  0.1902  0.4311
44877SOL    HW139188   1.677   6.110  10.278  0.6923  1.4034  0.6719
44877SOL    HW239189   1.824   6.081  10.251  0.0680 -1.3250 -0.1386
44878SOL     OW39190   6.514   1.224   8.708  0.2666 -0.3678  0.0536
44878SOL    HW139191   6.473   1.165   8.770 -0.1890 -1.5665 -1.3347
44878SOL    HW239192   6.600   1.185   8.690  0.7741  0.4640  0.6083
44879SOL     OW39193   2.738  12.058   3.620 -0.8528 -0.3506 -0.2471
44879SOL    HW139194   2.794  12.001   3.567  0.3423  0.5995 -0.0608
44879SOL    HW239195   2.718  12.132   3.562 -1.5490 -0.4564 -0.1539
44880SOL     OW39196   3.089   7.651   8.689  0.5633  0.0258  0.4244
44880SOL    HW139197   3.008   7.687   8.723 -1.0969 -0.5153 -2.6062
44880SOL    HW239198   3.158   7.706   8.727 -1.2825  1.3025  2.0879
44881SOL     OW39199   6.834   0.256   2.627  0.4363 -0.1234  0.3142
44881SOL    HW139200   6.911   0.260   2.571  0.6936 -0.3933  0.6461
44881SOL    HW239201   6.864   0.213   2.707 -0.2652 -1.0221  0.1057
44882SOL     OW39202   5.379   7.466   8.762 -0.6020  0.1864 -0.3757
44882SOL    HW139203   5.375   7.393   8.700  0.9023  0.4389 -0.8134
44882SOL    HW239204   5.289   7.498   8.768 -1.1382 -1.1939 -0.7914
44883SOL     OW39205  10.270   3.151   0.803 -0.1991 -0.4086  0.1111
44883SOL    HW139206  10.237   3.240   0.794 -0.6720 -0.5127  0.6907
44883SOL    HW239207  10.364   3.158   0.792 -0.2001  0.2132  0.4777
44884SOL     OW39208   1.060   3.935   3.943  0.2557  0.2230  0.2785
44884SOL    HW139209   1.089   3.885   3.866 -4.5281 -1.2147 -0.9392
44884SOL    HW239210   1.039   3.869   4.008  0.3380  1.1989  1.3195
44885SOL     OW39211   8.708   5.547   9.981  0.1833 -0.0732 -0.0324
44885SOL    HW139212   8.615   5.552  10.004  0.7588 -0.2627  2.7408
44885SOL    HW239213   8.714   5.473   9.921 -1.2300 -1.3928  1.3577
44886SOL     OW39214   8.603   1.551  11.188  0.2298  0.4739 -0.1421
44886SOL    HW139215   8.555   1.477  11.152 -0.9947  0.6866  0.9952
44886SOL    HW239216   8.655   1.584  11.114 -1.2221  0.1127 -1.3692
44887SOL     OW39217   7.336  10.028  10.693 -0.3007  0.0631  0.0297
44887SOL    HW139218   7.373  10.034  10.605 -0.9886  0.4733 -0.2447
44887SOL    HW239219   7.321   9.934  10.706  1.7180 -0.2282  0.5502
44888SOL     OW39220  10.452   5.426   4.795 -0.5925 -0.4565  0.5780
44888SOL    HW139221  10.443   5.331   4.805  1.4496 -0.6057  1.4024
44888SOL    HW239222  10.458   5.440   4.701 -0.0137 -1.2515  0.4878
44889SOL     OW39223   1.717  10.332   0.923  0.4209  0.0680  0.3843
44889SOL    HW139224   1.754  10.302   1.005  1.3759  1.1264  0.3672
44889SOL    HW239225   1.678  10.254   0.884  2.0743 -0.9714  0.7060
44890SOL     OW39226   0.971   9.485  10.263 -0.7268 -0.5234  0.2762
44890SOL    HW139227   0.900   9.427  10.235 -0.2857 -0.2231 -1.5471
44890SOL    HW239228   1.044   9.464  10.205  1.2274 -1.8033  2.9782
44891SOL     OW39229   1.129   5.568   2.886 -0.8209 -0.0547 -0.0404
44891SOL    HW139230   1.138   5.654   2.928 -0.1631  1.0083 -2.1938
44891SOL    HW239231   1.176   5.508   2.944 -0.6638  1.1684  1.1483
44892SOL     OW39232   7.220   8.909   0.546 -0.3467  0.3591 -0.4945
44892SOL    HW139233   7.209   8.814   0.555  1.1632  0.2402  0.5063
44892SOL    HW239234   7.300   8.919   0.494 -0.2814  1.0735 -0.2640
44893SOL     OW39235   3.458   2.354   1.139 -0.2246  0.8143 -0.0159
44893SOL    HW139236   3.530   2.345   1.201 -0.1628  4.3711  0.6438
44893SOL    HW239237   3.387   2.393   1.190 -1.9979 -0.8101 -1.0972
44894SOL     OW39238   9.010  10.577   9.440  0.4548 -0.2357  0.2369
44894SOL    HW139239   8.998  10.605   9.349  2.0977 -1.1589 -0.3168
44894SOL    HW239240   9.024  10.482   9.433  2.7776 -0.0058  1.1909
44895SOL     OW39241   5.722   3.952  11.015  0.2496  0.0297  0.0073
44895SOL    HW139242   5.657   3.921  11.079 -0.6001 -1.7617 -1.6399
44895SOL    HW239243   5.794   3.985  11.069 -0.9440 -0.2590  1.8859
44896SOL     OW39244   8.036   9.666   0.027 -0.2046 -0.2358 -0.0160
44896SOL    HW139245   8.128   9.682   0.009 -0.0724 -1.9226 -1.0943
44896SOL    HW239246   8.012   9.732   0.093  0.8788  2.4509 -2.0844
44897SOL     OW39247   7.899   6.936   6.007 -0.3391  0.2254 -0.0762
44897SOL    HW139248   7.866   6.859   5.960  1.9036 -1.2456  0.6258
44897SOL    HW239249   7.848   7.009   5.971 -1.4992 -1.3595 -1.8628
44898SOL     OW39250   0.640   1.857  12.037  0.1518 -0.4433 -0.3310
44898SOL    HW139251   0.649   1.936  11.985  1.0288 -0.1283  0.2908
44898SOL    HW239252   0.709   1.862  12.103 -0.5923 -1.0910  0.5365
44899SOL     OW39253   4.625   5.471   3.573  0.0405 -0.0234  0.3253
44899SOL    HW139254   4.562   5.465   3.501 -0.4933 -0.9051  0.8473
44899SOL    HW239255   4.582   5.529   3.637 -0.5499 -1.1350  0.9636
44900SOL     OW39256  11.254  10.733   6.462 -0.1226 -0.0026 -0.3501
44900SOL    HW139257  11.188  10.798   6.485 -2.3815 -1.9482 -1.0026
44900SOL    HW239258  11.301  10.716   6.544 -1.1101  0.6594  0.3760
44901SOL     OW39259   2.991   7.991   2.460  0.1786  0.2678  0.1152
44901SOL    HW139260   2.932   7.956   2.527 -0.0653  1.3451  0.4857
44901SOL    HW239261   3.011   7.916   2.404 -0.9854 -0.2731  0.3955
44902SOL     OW39262   4.584  11.031   4.671 -0.0747 -0.3815  0.1499
44902SOL    HW139263   4.627  10.946   4.663 -1.6843 -1.2693  0.4913
44902SOL    HW239264   4.639  11.081   4.732  1.6456 -0.6281 -1.1269
44903SOL     OW39265  11.079   9.899  11.631  0.1225 -0.5836 -1.0112
44903SOL    HW139266  10.996   9.871  11.593 -0.0887 -0.6442 -0.5086
44903SOL    HW239267  11.056   9.974  11.686  0.4043 -0.5929 -0.8801
44904SOL     OW39268   9.695   3.979   6.736 -0.1922  0.0147  0.2662
44904SOL    HW139269   9.774   3.933   6.763 -0.6786 -0.9085  0.1698
44904SOL    HW239270   9.706   4.068   6.771  1.5783  0.3814 -1.0684
44905SOL     OW39271   9.562   2.405   2.095 -0.1466 -0.2582  0.1430
44905SOL    HW139272   9.654   2.412   2.123 -0.0565  0.8326 -0.3547
44905SOL    HW239273   9.567   2.397   2.000 -0.5411 -1.2486  0.2000
44906SOL     OW39274   0.204   5.882   6.500  0.0575  0.1283 -0.0447
44906SOL    HW139275   0.208   5.787   6.488 -0.1248  0.1542 -0.3125
44906SOL    HW239276   0.204   5.917   6.411 -1.6565  0.3055 -0.0003
44907SOL     OW39277   2.558   8.355   3.051  0.2850 -0.2963 -0.5472
44907SOL    HW139278   2.572   8.349   3.145 -0.9663  1.3431 -0.2108
44907SOL    HW239279   2.536   8.265   3.024 -0.1445 -0.6378  0.8592
44908SOL     OW39280   7.792   6.354  11.590  0.3264 -0.7073 -0.3564
44908SOL    HW139281   7.806   6.306  11.672  2.8417 -1.2668 -1.0315
44908SOL    HW239282   7.704   6.391  11.599  0.1303 -1.5718  2.1527
44909SOL     OW39283   3.124   2.269   7.200 -0.1456 -0.1161 -0.3629
44909SOL    HW139284   3.154   2.293   7.113  0.0571  0.6805 -0.0743
44909SOL    HW239285   3.194   2.296   7.259  0.0865 -1.3919 -0.0143
44910SOL     OW39286   4.913  10.810   1.797  0.0808  0.0958 -0.3090
44910SOL    HW139287   4.917  10.778   1.887 -2.8010 -1.8204 -0.7193
44910SOL    HW239288   4.967  10.749   1.747 -0.0439 -0.1484 -0.1482
44911SOL     OW39289   0.019   6.682   4.755  0.7511  0.0717  0.7646
44911SOL    HW139290   0.103   6.723   4.734  0.6370  0.3740  0.8987
44911SOL    HW239291  -0.046   6.741   4.718  0.6168 -0.7105 -0.3171
44912SOL     OW39292   9.571   8.408   2.520  0.7606 -0.0773 -0.1646
44912SOL    HW139293   9.503   8.355   2.560 -0.1707 -0.5540 -2.2161
44912SOL    HW239294   9.643   8.409   2.583  0.1666 -2.4081  0.6130
44913SOL     OW39295   4.622   2.289   5.215  0.5518 -0.4386 -0.0260
44913SOL    HW139296   4.714   2.271   5.195  1.1552  2.8985 -0.9662
44913SOL    HW239297   4.608   2.378   5.183 -3.4073 -1.2585 -1.0798
44914SOL     OW39298   5.309  10.327   8.963  0.2307  0.3118  0.5673
44914SOL    HW139299   5.220  10.359   8.977  0.3783  0.4633  1.2187
44914SOL    HW239300   5.300  10.256   8.899 -0.3218  0.4903  0.4430
44915SOL     OW39301  11.383   8.947   0.245  0.1845 -0.3598  0.0662
44915SOL    HW139302  11.308   8.995   0.209 -1.0705  1.0741  4.0424
44915SOL    HW239303  11.456   9.009   0.239  0.1219 -0.3322 -0.4354
44916SOL     OW39304   7.428   7.642   9.328 -0.4566  0.1688  0.1833
44916SOL    HW139305   7.364   7.584   9.288 -0.8520  0.8622 -0.2037
44916SOL    HW239306   7.384   7.677   9.406 -0.1613 -0.1655  0.5068
44917SOL     OW39307   3.146   8.983   0.948  0.2674 -0.0162  0.6658
44917SOL    HW139308   3.208   8.925   0.992  0.2789 -1.0092 -0.5985
44917SOL    HW239309   3.140   8.948   0.859 -2.1044  0.0321  0.7345
44918SOL     OW39310   6.706   7.996   7.857 -0.2134 -0.2138 -0.6196
44918SOL    HW139311   6.767   8.052   7.807  1.1961  0.0528  1.2689
44918SOL    HW239312   6.729   7.907   7.832  0.1506 -0.0664 -0.8162
44919SOL     OW39313   4.580   9.776   4.312  0.1355 -0.1775  0.2048
44919SOL    HW139314   4.549   9.857   4.352  1.5639  0.4130  0.1779
44919SOL    HW239315   4.505   9.744   4.261 -0.3225  1.3355 -0.1260
44920SOL     OW39316   8.616  10.406   2.846 -0.0605  0.0527  0.2211
44920SOL    HW139317   8.591  10.397   2.753  1.1204 -0.1923 -0.0884
44920SOL    HW239318   8.544  10.364   2.893 -0.0042 -1.1163 -0.6662
44921SOL     OW39319   8.111   3.168   9.228 -0.5088  0.5676 -0.6798
44921SOL    HW139320   8.058   3.242   9.198 -1.3363 -0.9268 -3.1817
44921SOL    HW239321   8.201   3.199   9.221 -0.8786  2.6191  2.1505
44922SOL     OW39322   5.404   3.469   0.277 -0.1133 -0.2965  0.3041
44922SOL    HW139323   5.364   3.487   0.192 -1.3602 -1.9358  0.5075
44922SOL    HW239324   5.338   3.419   0.325  0.6908  0.3024  2.1310
44923SOL     OW39325  10.268   7.903   8.234 -0.0501 -0.3351  0.0952
44923SOL    HW139326  10.255   7.966   8.162 -2.1869 -2.0764 -1.2030
44923SOL    HW239327  10.210   7.934   8.303  2.2107  1.4972  1.3008
44924SOL     OW39328   4.916   4.262   9.152  0.6493 -0.1753 -0.5288
44924SOL    HW139329   4.844   4.314   9.117  0.2439 -1.9392 -2.4678
44924SOL    HW239330   4.989   4.324   9.158 -0.3277  1.0546 -0.9004
44925SOL     OW39331   6.350  10.610   9.994 -0.1471  0.1865 -0.3189
44925SOL    HW139332   6.416  10.624  10.062  0.5156 -0.3803 -0.8235
44925SOL    HW239333   6.291  10.685  10.002  1.0030  1.1335 -0.3447
44926SOL     OW39334   1.235   7.503   9.454 -0.7734 -0.0431 -0.0298
44926SOL    HW139335   1.292   7.479   9.527  0.8241 -0.7611 -1.4241
44926SOL    HW239336   1.208   7.593   9.473  0.2265  0.0453  1.0820
44927SOL     OW39337   6.719   4.035   7.102 -0.3699 -0.3362 -0.3352
44927SOL    HW139338   6.748   4.056   7.014 -1.6363  0.2053 -0.6452
44927SOL    HW239339   6.666   3.956   7.092 -0.6939 -0.1515 -0.0912
44928SOL     OW39340  10.900   3.702  11.305  0.4113  0.2474 -0.0675
44928SOL    HW139341  10.805   3.697  11.291  0.4452 -2.9915  0.0934
44928SOL    HW239342  10.937   3.643  11.239  2.2286  0.6170  0.5670
44929SOL     OW39343   2.153   6.946   4.564 -0.0316 -0.4291  0.1783
44929SOL    HW139344   2.128   6.874   4.622  1.9520  0.1776  1.9133
44929SOL    HW239345   2.247   6.934   4.549 -0.0886  0.6242 -1.2429
44930SOL     OW39346   4.363   3.347   9.367 -0.3490 -0.2023  0.2841
44930SOL    HW139347   4.287   3.404   9.373 -0.7927 -0.6959 -0.4730
44930SOL    HW239348   4.434   3.395   9.411 -1.5098 -0.4914  2.6559
44931SOL     OW39349   2.441   2.176   2.155  0.2105 -0.1122  0.2001
44931SOL    HW139350   2.517   2.186   2.212 -0.1988 -0.7298  0.8727
44931SOL    HW239351   2.472   2.122   2.083  0.6924  0.5549 -0.1011
44932SOL     OW39352   9.923  11.153   0.184 -0.3249  0.1786 -0.4635
44932SOL    HW139353   9.983  11.104   0.241  0.5622  0.0339 -1.4915
44932SOL    HW239354   9.854  11.090   0.162 -0.0456 -0.1157 -0.4976
44933SOL     OW39355   5.974   1.250   3.033  0.3502  0.0463  0.4198
44933SOL    HW139356   5.980   1.156   3.021 -0.7483 -0.0846  0.7619
44933SOL    HW239357   5.993   1.264   3.126  0.4558  0.1568  0.3823
44934SOL     OW39358   0.849   1.513   1.251  0.4114 -0.5885  0.2360
44934SOL    HW139359   0.777   1.524   1.313  0.8940  0.3848  0.6597
44934SOL    HW239360   0.835   1.427   1.212 -1.8516  0.1945 -0.8504
44935SOL     OW39361   5.103   1.058  11.640  0.4173 -0.4450 -0.2032
44935SOL    HW139362   5.022   1.015  11.611 -0.6000  0.8075  0.6418
44935SOL    HW239363   5.117   1.025  11.729  0.6762 -0.4248 -0.2354
44936SOL     OW39364   8.075  11.866   2.950  0.3607 -0.3603 -0.3800
44936SOL    HW139365   8.070  11.962   2.945 -0.6957 -0.3737  0.0146
44936SOL    HW239366   8.067  11.836   2.860  1.3425 -0.0687 -0.5768
44937SOL     OW39367   7.951   1.827   7.683 -0.7879 -0.7723  0.0294
44937SOL    HW139368   7.932   1.918   7.707  1.3187  0.8142 -3.5225
44937SOL    HW239369   8.031   1.805   7.731 -0.6309 -0.2867 -0.0089
44938SOL     OW39370   4.575  10.347   8.330  0.4525 -0.7474 -0.0153
44938SOL    HW139371   4.650  10.317   8.278  1.1217  0.7966 -0.0074
44938SOL    HW239372   4.614  10.400   8.399 -0.5791 -1.0082  0.7872
44939SOL     OW39373   8.729   4.430   8.042 -0.3754 -0.3148  0.0847
44939SOL    HW139374   8.660   4.365   8.056 -1.7165  0.7174 -1.3600
44939SOL    HW239375   8.808   4.378   8.026 -0.2417 -1.5426  3.8333
44940SOL     OW39376  11.930   9.779  10.812 -0.0680 -0.5454 -0.2962
44940SOL    HW139377  11.913   9.771  10.719  1.6898 -1.3278 -0.5917
44940SOL    HW239378  11.871   9.715  10.853 -0.4881 -0.5590 -0.9166
44941SOL     OW39379   5.180   5.515   5.628  0.4379  0.0566  0.0365
44941SOL    HW139380   5.218   5.433   5.661 -1.8086 -1.5111 -1.0419
44941SOL    HW239381   5.256   5.569   5.605  2.0288 -2.2474 -0.4735
44942SOL     OW39382   4.715   5.074   2.711  0.0418  0.0808 -0.4627
44942SOL    HW139383   4.687   4.983   2.721 -0.1337  0.1958  0.1488
44942SOL    HW239384   4.642   5.126   2.744  0.2904  0.4283 -0.4515
44943SOL     OW39385   5.911   9.866  11.222  0.1663  0.1439  0.9534
44943SOL    HW139386   5.985   9.909  11.180  0.4525 -0.3894  0.9069
44943SOL    HW239387   5.936   9.774  11.228 -0.0209  0.1408  1.9506
44944SOL     OW39388   2.573  10.236   1.566 -0.5730  0.6217 -0.4160
44944SOL    HW139389   2.657  10.267   1.599  0.4206 -0.3833 -1.8756
44944SOL    HW239390   2.544  10.305   1.507 -2.3028  2.3730  2.2540
44945SOL     OW39391   3.745   7.995   1.224 -0.2809  0.4758 -0.4027
44945SOL    HW139392   3.694   8.053   1.279 -0.7249 -0.3287  0.0525
44945SOL    HW239393   3.680   7.941   1.179  0.1545 -0.8540  0.5094
44946SOL     OW39394  11.358  11.191   7.519 -0.9678  0.3622  0.3083
44946SOL    HW139395  11.286  11.159   7.573 -0.0521  0.0566  1.3771
44946SOL    HW239396  11.430  11.130   7.536  0.1991  1.8297  0.8704
44947SOL     OW39397   5.871   9.854   7.449  0.1450 -0.1427 -0.3566
44947SOL    HW139398   5.944   9.817   7.399  1.1829  0.5783  0.5874
44947SOL    HW239399   5.829   9.779   7.490 -0.2309 -0.6605 -1.6418
44948SOL     OW39400   3.191   7.258   9.308 -0.0341  0.1792 -0.5918
44948SOL    HW139401   3.206   7.295   9.221 -0.7308  0.8821 -0.4293
44948SOL    HW239402   3.263   7.196   9.321  0.2118  0.2494 -1.5635
44949SOL     OW39403   0.595   7.974   1.715  0.8913  0.0674  0.0525
44949SOL    HW139404   0.574   8.063   1.744 -0.3068 -0.5506  1.2038
44949SOL    HW239405   0.567   7.971   1.623  0.5083  0.7463  0.1439
44950SOL     OW39406   4.243   6.599   4.645  0.2062 -0.1227 -0.9625
44950SOL    HW139407   4.186   6.568   4.574 -0.5117  1.0880 -0.9406
44950SOL    HW239408   4.183   6.628   4.713  0.7471  2.6331 -1.5575
44951SOL     OW39409   4.762   4.219   7.063 -0.0577 -0.1755 -0.1452
44951SOL    HW139410   4.734   4.309   7.046  0.0126 -0.2023 -0.4134
44951SOL    HW239411   4.692   4.164   7.028  0.3076 -0.2414 -0.8057
44952SOL     OW39412   0.830   9.463   2.517 -0.1835  0.1112  0.0703
44952SOL    HW139413   0.765   9.461   2.587  0.1245  0.6742  0.3756
44952SOL    HW239414   0.802   9.535   2.460  0.4672  0.7040  0.4925
44953SOL     OW39415   7.679   8.974   2.603 -0.0251 -0.2812 -0.2176
44953SOL    HW139416   7.757   8.986   2.657 -0.8880  1.0480  0.8155
44953SOL    HW239417   7.673   9.055   2.552  0.4032 -1.2409 -1.8639
44954SOL     OW39418   7.340  10.772   4.758 -0.1194  0.4118 -0.7313
44954SOL    HW139419   7.370  10.734   4.676 -0.7912  0.0518 -0.8159
44954SOL    HW239420   7.261  10.724   4.780 -0.8788  1.6127 -0.7306
44955SOL     OW39421   4.055   4.538   6.411 -0.3938  0.1057  0.0375
44955SOL    HW139422   4.090   4.574   6.493  1.9421 -0.4852 -0.6209
44955SOL    HW239423   3.993   4.470   6.439 -1.3134  1.3908  1.2708
44956SOL     OW39424   9.884   9.629   8.031 -0.4389  0.7305 -0.1016
44956SOL    HW139425   9.945   9.563   7.996  0.5713  1.6675 -0.1801
44956SOL    HW239426   9.910   9.710   7.987 -1.4421  1.2495  0.2448
44957SOL     OW39427   8.614  10.449  10.522 -0.4916 -0.7033  0.0831
44957SOL    HW139428   8.531  10.403  10.532 -0.8607 -0.1492 -0.3546
44957SOL    HW239429   8.663  10.429  10.602 -0.1704 -2.7841 -0.5732
44958SOL     OW39430   5.791   7.681  11.891  0.6819 -0.0655 -0.1738
44958SOL    HW139431   5.841   7.735  11.952 -0.7144  3.2196 -1.6587
44958SOL    HW239432   5.853   7.660  11.821  1.0809  0.2926  0.0682
44959SOL     OW39433   7.315   8.332   0.544 -0.2305 -0.0155  0.5037
44959SOL    HW139434   7.224   8.351   0.566 -0.4374 -0.4334  0.0309
44959SOL    HW239435   7.318   8.332   0.448  0.4161  0.6603  0.5145
44960SOL     OW39436   7.868   7.147  10.241 -0.3865 -0.2088 -0.1557
44960SOL    HW139437   7.893   7.158  10.332 -2.4625 -0.6454  0.5284
44960SOL    HW239438   7.890   7.230  10.199  0.3763  0.0756  0.7749
44961SOL     OW39439   1.086   8.701   8.850  0.1534 -0.2960 -0.1254
44961SOL    HW139440   1.147   8.704   8.776 -0.0544 -0.1570 -0.2920
44961SOL    HW239441   1.015   8.760   8.825 -0.4871 -1.1418 -0.3122
44962SOL     OW39442   6.475   5.259   4.127 -0.4919 -0.2200 -0.1562
44962SOL    HW139443   6.394   5.211   4.142 -0.9512  0.8821  1.0695
44962SOL    HW239444   6.457   5.313   4.050 -0.5148 -0.8173 -0.5765
44963SOL     OW39445   6.084   6.277   1.924  0.2761  0.0852  0.2221
44963SOL    HW139446   6.015   6.270   1.857  0.9537 -1.7420 -0.3435
44963SOL    HW239447   6.128   6.360   1.904 -1.8332  1.4103  0.7258
44964SOL     OW39448   8.173   1.430  11.216 -0.1069 -0.5402  0.1511
44964SOL    HW139449   8.109   1.399  11.281 -0.3526 -1.0986 -0.3447
44964SOL    HW239450   8.250   1.452  11.268 -0.6307 -0.0367  0.7406
44965SOL     OW39451   4.554   3.939   4.126 -0.2226 -0.4707 -0.1215
44965SOL    HW139452   4.602   3.944   4.043 -0.4798 -0.1782 -0.2519
44965SOL    HW239453   4.467   3.972   4.106 -0.0900  0.2385  0.4225
44966SOL     OW39454   7.686   9.791   8.034  0.2949 -0.0571 -0.3876
44966SOL    HW139455   7.714   9.854   8.099  0.3712  0.4934 -0.9478
44966SOL    HW239456   7.602   9.825   8.001  0.2528 -0.3310 -0.5783
44967SOL     OW39457   6.138   4.905   7.413  0.4086 -0.5474 -0.0240
44967SOL    HW139458   6.084   4.896   7.492  0.4725 -1.4002 -0.0712
44967SOL    HW239459   6.140   4.999   7.397 -0.5573 -0.4495  0.3318
44968SOL     OW39460   8.402   4.685   1.030  0.3579  0.1604  0.0603
44968SOL    HW139461   8.339   4.752   1.005 -1.2857 -0.7465  1.5893
44968SOL    HW239462   8.419   4.637   0.948 -0.1730  1.0090 -0.5642
44969SOL     OW39463   3.187  11.477  10.453 -0.0605  0.0102  0.0296
44969SOL    HW139464   3.239  11.435  10.385  1.0440  1.6908 -0.2307
44969SOL    HW239465   3.240  11.553  10.480 -0.5704 -0.4553  2.5839
44970SOL     OW39466   6.685   9.735   0.888 -0.1056  0.8642 -0.0991
44970SOL    HW139467   6.662   9.761   0.977 -1.6443  2.1771 -0.7992
44970SOL    HW239468   6.611   9.682   0.859  1.8058 -2.2914  0.3863
44971SOL     OW39469   1.933   8.044  11.029  0.4628 -0.1517 -0.2057
44971SOL    HW139470   1.955   8.094  11.108  0.9039 -0.0098 -0.4143
44971SOL    HW239471   1.884   7.968  11.061  0.0006  0.2870  0.1336
44972SOL     OW39472  10.696   0.297   6.934 -0.3320 -0.3326  0.0761
44972SOL    HW139473  10.740   0.215   6.958  0.3288  0.1040  0.3899
44972SOL    HW239474  10.604   0.272   6.924  0.0218 -1.3324 -0.9183
44973SOL     OW39475   3.048   1.591   8.096 -0.0384 -0.4094 -0.2464
44973SOL    HW139476   3.102   1.665   8.068  1.2105 -0.1439  2.5668
44973SOL    HW239477   3.099   1.514   8.070  0.5512 -0.2021  0.2767
44974SOL     OW39478   0.850   2.769   3.013 -0.0807  0.0888  0.0504
44974SOL    HW139479   0.852   2.678   2.984  0.6536  0.2051 -0.2806
44974SOL    HW239480   0.757   2.789   3.025 -0.2469 -0.6909  0.0959
44975SOL     OW39481   1.371  11.682   4.791 -0.1099 -0.1986 -0.3953
44975SOL    HW139482   1.288  11.646   4.759 -0.9758  2.0043 -0.7679
44975SOL    HW239483   1.431  11.608   4.787 -2.2799 -2.1978  0.9615
44976SOL     OW39484  10.919  11.896   6.795 -0.2356 -0.0405  0.0541
44976SOL    HW139485  10.837  11.911   6.748 -1.9334  0.3061  2.8822
44976SOL    HW239486  10.926  11.801   6.801  0.4759 -0.1260 -1.5390
44977SOL     OW39487   7.063   1.388   5.183  0.5312 -0.3450 -0.8272
44977SOL    HW139488   7.131   1.428   5.237  1.2063 -1.1535 -1.0519
44977SOL    HW239489   7.112   1.336   5.118 -0.2591 -3.1938  0.6936
44978SOL     OW39490   6.824   5.803   8.584 -0.9308  0.6625 -0.0490
44978SOL    HW139491   6.892   5.867   8.606  0.2785 -0.7396  0.4637
44978SOL    HW239492   6.754   5.855   8.544  0.0225  2.2838  0.3005
44979SOL     OW39493   5.995   6.129   5.721 -0.0073 -0.2678  0.3474
44979SOL    HW139494   6.085   6.146   5.748 -0.5475  0.3644  1.8099
44979SOL    HW239495   5.943   6.137   5.800 -1.3820 -0.5807 -0.4757
44980SOL     OW39496   7.847   5.562   9.826  0.2297  0.6700  0.0461
44980SOL    HW139497   7.842   5.652   9.858 -0.0229  0.5423  0.3806
44980SOL    HW239498   7.929   5.558   9.777  1.0342  0.6591  1.3400
44981SOL     OW39499   7.576  11.637   1.617  0.4080 -0.1103  0.0721
44981SOL    HW139500   7.641  11.708   1.616 -1.0094  1.2686  0.8867
44981SOL    HW239501   7.531  11.645   1.533 -0.1936  0.4057  0.4365
44982SOL     OW39502   7.337   0.122   2.719  0.5869 -0.3136 -0.6894
44982SOL    HW139503   7.298   0.184   2.656 -1.2421  0.5354  1.1379
44982SOL    HW239504   7.324   0.036   2.679  0.4160  0.2659 -1.9346
44983SOL     OW39505   8.815   5.008   7.921 -0.1532  0.5484  0.1147
44983SOL    HW139506   8.841   4.929   7.969  1.2362  1.0005  0.1673
44983SOL    HW239507   8.757   5.055   7.981 -0.2500  0.0115  0.4455
44984SOL     OW39508  11.876   7.236   1.654  0.0399 -0.0862 -0.3720
44984SOL    HW139509  11.841   7.192   1.577 -0.0763  0.4867 -0.6438
44984SOL    HW239510  11.962   7.268   1.627  0.2845 -0.4685 -0.0590
44985SOL     OW39511   5.159  12.107   2.563  0.2053  0.2622  0.0449
44985SOL    HW139512   5.067  12.111   2.589 -0.1102 -1.6937 -0.5614
44985SOL    HW239513   5.192  12.027   2.606  0.8857 -0.5198 -1.8263
44986SOL     OW39514   0.160   9.986   8.369 -0.6524 -0.0238 -0.5059
44986SOL    HW139515   0.108   9.911   8.340  0.8024 -1.9416  1.5175
44986SOL    HW239516   0.121  10.011   8.453 -0.5208  0.8673 -0.7024
44987SOL     OW39517   1.510   6.813   9.458  0.3986 -0.0975  0.2597
44987SOL    HW139518   1.430   6.794   9.408  0.0893  1.3464  0.1575
44987SOL    HW239519   1.568   6.740   9.439 -0.5604 -0.7214 -0.3922
44988SOL     OW39520  11.032   0.017   6.776 -0.5842 -0.2784  0.2625
44988SOL    HW139521  10.952   0.045   6.732 -1.5651 -0.2815  1.9586
44988SOL    HW239522  11.019  -0.077   6.791  0.2395 -0.5132 -0.4509
44989SOL     OW39523   3.030  10.628  10.872  0.4147  0.2126 -0.9075
44989SOL    HW139524   2.976  10.705  10.858 -0.2985  0.2258  1.3885
44989SOL    HW239525   2.967  10.556  10.879  0.6392  0.1645  1.4000
44990SOL     OW39526   4.450   2.690   4.461 -0.1429  0.2196 -0.0604
44990SOL    HW139527   4.430   2.605   4.498  1.8764  0.3913  1.5474
44990SOL    HW239528   4.399   2.752   4.514  0.3550  0.2018  0.4504
44991SOL     OW39529   4.823   2.074   0.615  0.0635  0.5386  0.0814
44991SOL    HW139530   4.901   2.019   0.625  0.3431  1.0105  0.5625
44991SOL    HW239531   4.765   2.047   0.685  0.0288  0.5736  0.0662
44992SOL     OW39532   3.064   5.754   3.899 -0.2025 -0.3299  0.1047
44992SOL    HW139533   2.999   5.796   3.956  0.0346  0.3817 -0.1375
44992SOL    HW239534   3.147   5.795   3.924 -0.1029  0.0140 -0.7669
44993SOL     OW39535   3.515  10.739   1.981 -0.4832  0.0080  0.4971
44993SOL    HW139536   3.557  10.751   1.896 -2.7907  1.2131 -0.5717
44993SOL    HW239537   3.494  10.827   2.011 -1.2883 -0.4772  1.4594
44994SOL     OW39538   0.880   3.113   1.294 -0.4243  0.4278  0.2886
44994SOL    HW139539   0.855   3.150   1.210 -0.1446  1.7190  0.7563
44994SOL    HW239540   0.972   3.090   1.285 -0.2732  0.9853  0.3734
44995SOL     OW39541  11.975   0.109   8.718 -0.3876  0.1390  0.2293
44995SOL    HW139542  12.057   0.155   8.702 -1.0710  2.1365  1.9103
44995SOL    HW239543  11.907   0.172   8.694 -1.3814 -0.2812  1.7502
44996SOL     OW39544   7.612   2.261   7.793  0.3728  0.4485  0.0074
44996SOL    HW139545   7.637   2.180   7.748  1.2301  0.7550 -0.0775
44996SOL    HW239546   7.519   2.272   7.771  0.0935 -0.7928  0.4602
44997SOL     OW39547   1.649   7.514   8.584 -0.0222 -0.6764 -0.1833
44997SOL    HW139548   1.738   7.513   8.548 -0.7552  1.2572 -2.2858
44997SOL    HW239549   1.627   7.421   8.597  2.0429 -1.2177 -0.2312
44998SOL     OW39550   8.281   7.278   8.836 -0.3407  0.2996 -0.1875
44998SOL    HW139551   8.264   7.205   8.777 -1.1957  1.4486 -1.4351
44998SOL    HW239552   8.230   7.257   8.914 -2.3521  0.5173 -1.3522
44999SOL     OW39553  11.582   0.527  10.131  0.3210  0.3224  0.1485
44999SOL    HW139554  11.543   0.596  10.078  0.9468 -0.3769 -1.2772
44999SOL    HW239555  11.568   0.446  10.080  1.0607 -0.3523  0.9826
45000SOL     OW39556   1.409   4.815   2.107  0.2136 -0.2352  0.1954
45000SOL    HW139557   1.320   4.813   2.142  0.1320 -0.6668 -0.0223
45000SOL    HW239558   1.457   4.876   2.164 -0.1394 -0.2459  0.5048
45001SOL     OW39559   9.949   4.932   1.664  0.2813 -0.3126  0.2249
45001SOL    HW139560   9.992   4.846   1.660 -1.2775 -1.2949  2.2236
45001SOL    HW239561  10.018   4.992   1.691  0.9549 -1.4003  1.0428
45002SOL     OW39562   2.358   0.395   1.249  0.2371 -0.2949 -0.7191
45002SOL    HW139563   2.423   0.417   1.183  1.3142 -0.9191  0.0925
45002SOL    HW239564   2.408   0.393   1.331 -0.9802  0.0566  0.0499
45003SOL     OW39565   4.725   5.416   9.336  0.1673  0.0741 -0.0157
45003SOL    HW139566   4.710   5.466   9.416  1.1981  0.0863  0.1750
45003SOL    HW239567   4.687   5.471   9.267  1.0292  1.0024  0.2253
45004SOL     OW39568   8.963  10.879   6.288  0.3385 -0.5926 -0.3282
45004SOL    HW139569   9.033  10.945   6.285 -2.2298  2.3803  0.2494
45004SOL    HW239570   8.944  10.861   6.196  0.5613  0.0429 -0.5032
45005SOL     OW39571   7.902   9.243   1.963  0.1685 -0.4280  0.2626
45005SOL    HW139572   7.806   9.246   1.962  0.0464  1.4918  3.6005
45005SOL    HW239573   7.928   9.332   1.988  3.0235 -0.1801 -2.8967
45006SOL     OW39574   3.816   8.144   5.102  0.1525 -0.0787 -0.6278
45006SOL    HW139575   3.875   8.117   5.172  0.4880 -0.4455 -1.0462
45006SOL    HW239576   3.846   8.096   5.025 -0.7387 -0.3339 -0.8373
45007SOL     OW39577   7.247   0.854   9.729  0.4482 -0.2237 -0.0763
45007SOL    HW139578   7.199   0.786   9.681  2.1400 -1.7333  0.2626
45007SOL    HW239579   7.188   0.929   9.729 -1.9147 -1.9628  0.3453
45008SOL     OW39580   6.330   7.906   4.583  0.2257 -0.0903  0.1026
45008SOL    HW139581   6.353   7.998   4.576 -1.0137  0.4967  2.5212
45008SOL    HW239582   6.235   7.906   4.598  0.0103 -1.8448 -0.9776
45009SOL     OW39583   5.758  11.703   0.297  0.3821 -0.1297  0.5573
45009SOL    HW139584   5.716  11.701   0.211 -0.8389 -0.6557  1.1446
45009SOL    HW239585   5.836  11.649   0.287  0.3497 -0.0300 -0.2750
45010SOL     OW39586   0.025   4.632   5.166 -0.0438 -0.2225  0.5307
45010SOL    HW139587   0.087   4.622   5.093  1.4229  1.6137  1.4189
45010SOL    HW239588   0.033   4.724   5.191 -3.4193  0.1877  0.5284
45011SOL     OW39589   8.026   4.579   9.327  0.1146 -0.3551  0.1156
45011SOL    HW139590   8.085   4.504   9.319  0.9862  0.2864  0.3925
45011SOL    HW239591   8.065   4.632   9.396 -1.7773 -0.8155  1.6149
45012SOL     OW39592   6.827   4.443   2.459  0.5641 -0.3912  0.1881
45012SOL    HW139593   6.915   4.435   2.424  1.3715  2.1906  1.4059
45012SOL    HW239594   6.776   4.485   2.390  0.4306 -1.2805 -0.2665
45013SOL     OW39595   8.606   5.607   7.035  0.1379 -0.0327  0.4655
45013SOL    HW139596   8.543   5.649   6.976  0.4017 -2.3664 -1.6373
45013SOL    HW239597   8.557   5.596   7.117 -1.9153 -0.8730 -0.7827
45014SOL     OW39598   3.175   6.540   2.356 -0.4158 -0.3007 -0.0971
45014SOL    HW139599   3.083   6.525   2.378 -0.1064 -1.9360  0.2540
45014SOL    HW239600   3.223   6.491   2.423  0.7608  1.3919  0.3599
45015SOL     OW39601   3.685   1.065   9.611  0.3169  0.3026 -0.1895
45015SOL    HW139602   3.637   1.068   9.694 -0.2481 -2.3849 -0.3380
45015SOL    HW239603   3.617   1.076   9.544  0.0707 -1.7776 -0.3493
45016SOL     OW39604  11.000   7.677   0.988  0.7124  0.2304 -0.0474
45016SOL    HW139605  11.035   7.751   1.038  1.4601 -0.3608  0.3161
45016SOL    HW239606  11.031   7.599   1.034  1.7257 -0.3520 -1.6258
45017SOL     OW39607   6.337   3.058   6.544 -0.2494 -0.1405 -0.0624
45017SOL    HW139608   6.403   3.106   6.496  0.1726 -0.8360 -0.1943
45017SOL    HW239609   6.336   2.971   6.504 -0.8941 -0.2901  0.2560
45018SOL     OW39610  10.900   8.223   7.186 -0.6358  0.3173  0.1075
45018SOL    HW139611  10.849   8.262   7.115  0.4038  0.7613 -0.4331
45018SOL    HW239612  10.983   8.199   7.144 -0.3315 -0.2014  0.9971
45019SOL     OW39613   8.974   7.641   4.444 -0.8975  0.5512  0.3927
45019SOL    HW139614   8.978   7.674   4.354 -1.1596  1.7654  0.8048
45019SOL    HW239615   8.936   7.713   4.494  0.0043  0.1963  1.6293
45020SOL     OW39616   8.347  10.017  10.195  0.2965  0.2167 -0.0792
45020SOL    HW139617   8.293  10.059  10.128 -0.1169 -2.2017 -1.3576
45020SOL    HW239618   8.414  10.082  10.216 -0.9826  1.9366 -1.0629
45021SOL     OW39619   7.565   7.841   2.220 -0.1159  0.1714 -0.0052
45021SOL    HW139620   7.633   7.782   2.189 -1.0761 -1.1927  0.3738
45021SOL    HW239621   7.610   7.924   2.234  1.2447 -0.4053 -0.7237
45022SOL     OW39622   1.860  11.284   3.967 -0.1963 -0.3451  0.2050
45022SOL    HW139623   1.904  11.214   4.015  0.0741 -0.3575 -0.0600
45022SOL    HW239624   1.848  11.250   3.879  1.1839  0.4292 -0.3217
45023SOL     OW39625   7.581   7.321   6.365 -0.0955  0.4259  0.2317
45023SOL    HW139626   7.643   7.255   6.333 -0.6641 -0.1074  0.2064
45023SOL    HW239627   7.537   7.352   6.286 -2.8935 -2.2887  0.5179
45024SOL     OW39628  10.562   9.579   2.810  0.2779 -0.4037 -0.1561
45024SOL    HW139629  10.558   9.483   2.807 -0.2542 -0.3800 -2.5894
45024SOL    HW239630  10.655   9.599   2.804  0.2778 -0.8108 -2.2559
45025SOL     OW39631   0.043   4.672   8.118 -0.3769 -0.6283 -0.4230
45025SOL    HW139632   0.001   4.705   8.197  0.4557 -0.3067 -0.1067
45025SOL    HW239633   0.128   4.639   8.148  1.6843  2.9993 -1.6931
45026SOL     OW39634  11.110   3.746   2.560  0.4568  0.3300 -0.0913
45026SOL    HW139635  11.080   3.837   2.565  2.8185  1.3786 -2.4349
45026SOL    HW239636  11.141   3.726   2.648 -0.7015  1.5512  0.6240
45027SOL     OW39637  11.438   5.200   1.566  0.3359  0.2130 -0.2080
45027SOL    HW139638  11.344   5.184   1.559  0.5856 -1.6714  0.0357
45027SOL    HW239639  11.457   5.266   1.498 -0.8776 -0.7659 -1.5618
45028SOL     OW39640   8.826   2.020   3.680  0.0847 -0.1083 -0.0454
45028SOL    HW139641   8.906   1.984   3.642  0.2371  1.6619 -1.5076
45028SOL    HW239642   8.832   1.998   3.773  2.0708 -0.3496 -0.1880
45029SOL     OW39643   5.043  10.027   9.219  0.9482  0.0112  0.3218
45029SOL    HW139644   5.125  10.076   9.210  0.4761  0.7516 -0.0142
45029SOL    HW239645   5.016  10.043   9.309  1.2575 -0.3732  0.4841
45030SOL     OW39646   4.639   0.115   2.100 -0.0085 -0.6945 -0.2709
45030SOL    HW139647   4.580   0.126   2.025 -2.0244 -1.9696  1.0316
45030SOL    HW239648   4.726   0.114   2.061 -0.8972 -0.2235 -2.4682
45031SOL     OW39649   5.575   7.525   0.159 -0.4847  0.7057  0.5165
45031SOL    HW139650   5.581   7.619   0.139 -0.1033  0.3874 -0.9375
45031SOL    HW239651   5.658   7.488   0.129 -1.4653 -0.4320 -0.9263
45032SOL     OW39652   3.062   7.979   4.593  0.0679  0.2328  0.4172
45032SOL    HW139653   3.034   7.906   4.539 -0.9624  1.3136 -0.5825
45032SOL    HW239654   3.147   8.005   4.557  0.6022 -0.6654  0.9995
45033SOL     OW39655   5.331   8.483   5.513 -0.0774  0.2315  0.1637
45033SOL    HW139656   5.316   8.503   5.606  1.2329  1.0197  0.2277
45033SOL    HW239657   5.335   8.569   5.470  0.5882 -0.0661 -0.3971
45034SOL     OW39658   6.099  10.105   0.999  0.3194 -0.2283 -0.1452
45034SOL    HW139659   6.134  10.090   1.086  0.7805  0.7095 -0.1573
45034SOL    HW239660   6.004  10.093   1.009  0.3804 -0.2404  0.4522
45035SOL     OW39661   9.195   1.694   8.442 -1.0131 -0.5132  0.3921
45035SOL    HW139662   9.282   1.734   8.439 -0.2122 -2.0830  1.5505
45035SOL    HW239663   9.136   1.764   8.414  0.5872  0.6504 -0.2183
45036SOL     OW39664  10.432   8.374   2.632  0.3721 -0.7569  0.1761
45036SOL    HW139665  10.480   8.319   2.570 -1.0546 -0.9810 -0.7781
45036SOL    HW239666  10.450   8.464   2.604 -1.7164 -0.8667 -1.8006
45037SOL     OW39667   5.132   2.004   5.020  0.3334 -0.5039  0.0444
45037SOL    HW139668   5.082   2.031   4.943 -1.1283 -0.3450  1.0063
45037SOL    HW239669   5.203   2.068   5.026  0.9327 -0.9553 -1.5687
45038SOL     OW39670  11.982   5.183   3.481  0.2027  0.0701  0.1431
45038SOL    HW139671  12.031   5.105   3.505 -1.1129 -0.7245  0.3865
45038SOL    HW239672  11.891   5.153   3.474 -0.0765  1.1961 -1.6224
45039SOL     OW39673   6.650   7.930  10.100  0.2888 -0.0394 -0.1954
45039SOL    HW139674   6.613   7.845  10.075 -0.4663  0.1958  0.0882
45039SOL    HW239675   6.703   7.911  10.177 -0.5366 -0.1334  0.3646
45040SOL     OW39676   2.172   5.600   7.458 -0.5571  0.0611 -0.7647
45040SOL    HW139677   2.202   5.516   7.424 -1.1252 -0.2350 -0.5448
45040SOL    HW239678   2.093   5.621   7.407 -1.3772 -0.3560  0.2994
45041SOL     OW39679   6.158  12.100   0.150 -0.6359  0.4027  0.3580
45041SOL    HW139680   6.198  12.122   0.066  1.2706 -2.5110  0.3608
45041SOL    HW239681   6.085  12.042   0.127 -0.7305  0.3967  0.6695
45042SOL     OW39682   3.715   1.724  10.201 -0.1226  0.1080  0.8974
45042SOL    HW139683   3.740   1.770  10.282 -0.8356 -0.6399  1.5576
45042SOL    HW239684   3.620   1.731  10.198 -0.1092 -0.0026  0.1971
45043SOL     OW39685  10.593   7.599   5.221  0.4453 -0.0611  0.0748
45043SOL    HW139686  10.615   7.644   5.303  1.6900 -3.0989  1.5727
45043SOL    HW239687  10.529   7.533   5.247 -1.5195  0.8784 -2.0713
45044SOL     OW39688   7.587   6.081   3.518  0.5459  0.9381 -0.5874
45044SOL    HW139689   7.648   6.044   3.582 -0.8579  0.9592  0.8352
45044SOL    HW239690   7.624   6.166   3.496  1.1605  0.8467  0.0623
45045SOL     OW39691   4.626  12.047   6.534  0.0265  0.3681 -0.1714
45045SOL    HW139692   4.639  12.132   6.492  2.1728  0.1634 -0.0061
45045SOL    HW239693   4.534  12.049   6.563 -0.3658  2.0665 -1.3530
45046SOL     OW39694   9.192   7.878   3.849 -0.0285  0.6738 -0.0611
45046SOL    HW139695   9.169   7.796   3.892  0.1717 -0.0682 -1.2880
45046SOL    HW239696   9.277   7.901   3.886  0.4190 -0.2632 -0.4663
45047SOL     OW39697   2.678   0.244   9.442  0.4694  0.3403 -0.4731
45047SOL    HW139698   2.670   0.149   9.430 -1.4579  0.2420  1.0923
45047SOL    HW239699   2.758   0.254   9.494 -0.2896 -0.6356  0.9639
45048SOL     OW39700   9.955   9.143   7.691 -0.0031  0.4763 -0.1807
45048SOL    HW139701  10.038   9.169   7.731  1.0805 -0.7460 -1.5239
45048SOL    HW239702   9.903   9.106   7.762 -0.5583  3.6765  1.2654
45049SOL     OW39703   1.986   9.044   3.827  0.0049  0.0144  0.2325
45049SOL    HW139704   1.990   8.950   3.808  0.4254  0.4160 -1.9547
45049SOL    HW239705   1.918   9.077   3.769  0.9620  1.2922 -0.2024
45050SOL     OW39706   1.904   8.198  12.041 -0.2089  0.4485 -0.1001
45050SOL    HW139707   1.930   8.286  12.068 -0.6436  0.6568 -0.3622
45050SOL    HW239708   1.958   8.181  11.963  0.5106  0.1334  0.4530
45051SOL     OW39709  10.413   1.607   4.504  0.1838  0.0132  0.2554
45051SOL    HW139710  10.406   1.512   4.517  0.7621 -0.2183 -0.9840
45051SOL    HW239711  10.500   1.620   4.467 -0.1261  0.9651 -0.1662
45052SOL     OW39712   2.259   9.199   9.104 -0.1026  0.2162  0.1628
45052SOL    HW139713   2.221   9.220   9.189  1.1944 -0.0537  0.8345
45052SOL    HW239714   2.342   9.155   9.125  0.7876  1.1393 -1.2298
45053SOL     OW39715   5.106   8.822   0.184  0.1005  0.0449 -0.4773
45053SOL    HW139716   5.131   8.803   0.275  0.4524 -0.0980 -0.6023
45053SOL    HW239717   5.034   8.885   0.192 -0.7650 -0.9670 -0.0650
45054SOL     OW39718   4.943   5.392   3.939  0.0421  0.1489 -0.0044
45054SOL    HW139719   5.010   5.323   3.932  0.7784  0.8383  0.1460
45054SOL    HW239720   4.896   5.371   4.020 -0.2795 -0.6411 -0.3849
45055SOL     OW39721   7.640   6.883   4.062 -0.2821  0.5887 -0.2986
45055SOL    HW139722   7.702   6.829   4.112 -0.4828  0.9433  0.3516
45055SOL    HW239723   7.584   6.820   4.017 -0.2407  0.2609  0.1008
45056SOL     OW39724   2.118  12.124   1.059 -0.2495 -0.1240  0.0617
45056SOL    HW139725   2.081  12.186   0.996 -1.0534  0.3932  1.0194
45056SOL    HW239726   2.120  12.172   1.142 -0.9467 -1.3954  0.8423
45057SOL     OW39727   1.052   9.112   4.096 -0.3637  0.4052 -0.5453
45057SOL    HW139728   1.113   9.049   4.135 -0.2005  2.1069  2.2403
45057SOL    HW239729   0.976   9.111   4.154 -0.8072  1.9731 -1.0511
45058SOL     OW39730   0.825   7.386   6.841  0.1224 -0.4916  0.2481
45058SOL    HW139731   0.919   7.365   6.841  0.0257 -1.1763 -1.6926
45058SOL    HW239732   0.799   7.381   6.933  1.7709 -1.3322  0.7136
45059SOL     OW39733   0.970   9.014   2.013 -0.6745  0.6659  0.7089
45059SOL    HW139734   0.984   9.041   1.922 -1.1130  0.0329  0.4515
45059SOL    HW239735   0.904   9.075   2.047 -0.7737  0.6727  0.5015
45060SOL     OW39736   1.742  11.681   3.825  0.2362 -0.3424  0.1756
45060SOL    HW139737   1.673  11.648   3.882 -0.0424 -3.1737 -1.5750
45060SOL    HW239738   1.823  11.660   3.871  0.0809 -3.9185 -0.8645
45061SOL     OW39739  10.393   2.220   8.101 -0.3228 -0.3969 -0.2814
45061SOL    HW139740  10.463   2.156   8.107 -0.1047 -0.2140 -0.8349
45061SOL    HW239741  10.312   2.169   8.112 -0.1097 -0.6206  0.2435
45062SOL     OW39742  11.190  10.739   7.988 -0.5187  0.6417 -0.0433
45062SOL    HW139743  11.182  10.683   8.066 -0.5160  1.3455  0.4672
45062SOL    HW239744  11.146  10.820   8.012 -1.1517  0.6169 -1.0354
45063SOL     OW39745   1.601   9.705   0.236  0.1839 -0.0450 -0.3183
45063SOL    HW139746   1.615   9.633   0.175  0.4797  0.3580 -0.7302
45063SOL    HW239747   1.529   9.755   0.198 -0.0846 -0.1677  0.0157
45064SOL     OW39748   2.889   5.395   8.883  0.0789 -0.1529 -0.3596
45064SOL    HW139749   2.929   5.474   8.919  0.1465  0.2567 -1.3083
45064SOL    HW239750   2.796   5.402   8.904 -0.0053  0.4506 -0.9014
45065SOL     OW39751   8.940   5.615   2.072 -0.1059  0.1304  0.6191
45065SOL    HW139752   8.960   5.521   2.069  2.6412  0.6364  0.4151
45065SOL    HW239753   8.873   5.628   2.005 -0.3237 -1.6385  0.4516
45066SOL     OW39754   5.522   2.099   8.199  0.4393  0.3954  0.3393
45066SOL    HW139755   5.613   2.100   8.171  1.5760 -0.4888  3.5600
45066SOL    HW239756   5.477   2.047   8.133  1.7144  2.6241 -2.5167
45067SOL     OW39757   6.816  11.306  10.774  0.2626 -0.6735 -0.1174
45067SOL    HW139758   6.733  11.302  10.725  1.2040 -2.2425 -1.7268
45067SOL    HW239759   6.850  11.216  10.770  2.2588  0.0276  0.0974
45068SOL     OW39760   7.819  10.928   3.048  0.2311 -0.5669 -0.2176
45068SOL    HW139761   7.899  10.938   2.997  0.0350 -0.3838 -0.4916
45068SOL    HW239762   7.792  10.837   3.033 -0.7344 -0.0552 -1.7978
45069SOL     OW39763   4.608   6.096   8.470  0.3621  0.3729 -0.2033
45069SOL    HW139764   4.623   6.020   8.527 -0.2362 -0.9705 -1.7444
45069SOL    HW239765   4.619   6.172   8.528  1.5460 -0.8494  1.2781
45070SOL     OW39766   6.635   0.346  10.991  0.0984  0.4822  0.0023
45070SOL    HW139767   6.671   0.432  11.012  2.0532 -0.5161  1.1318
45070SOL    HW239768   6.563   0.363  10.931 -0.1585  2.9484  0.8945
45071SOL     OW39769   0.041   6.124  10.504  0.2157 -0.4285  0.1305
45071SOL    HW139770   0.072   6.051  10.451 -0.6746  1.3770 -3.1349
45071SOL    HW239771  -0.054   6.111  10.509  0.0203  0.6317 -0.7136
45072SOL     OW39772   1.510   0.707   4.025  0.0905  0.1873  0.2046
45072SOL    HW139773   1.555   0.773   3.972 -0.9576  0.8630  0.1272
45072SOL    HW239774   1.581   0.652   4.059  0.9114  0.7650 -0.5096
45073SOL     OW39775   7.331  10.551   0.268 -0.5409  0.1505 -0.2568
45073SOL    HW139776   7.371  10.567   0.353  0.5969  0.8834 -0.9011
45073SOL    HW239777   7.239  10.573   0.280 -0.7362 -1.2594  1.1746
45074SOL     OW39778   4.951  10.862  11.804 -0.1195  0.2346 -0.1911
45074SOL    HW139779   5.034  10.829  11.839 -0.2315  0.5165  0.3525
45074SOL    HW239780   4.892  10.865  11.880  0.2428  2.8325  0.0874
45075SOL     OW39781   1.501   1.049   4.946 -0.0188  0.3126 -0.6565
45075SOL    HW139782   1.563   1.001   4.891  0.9288  1.1077 -0.3072
45075SOL    HW239783   1.421   1.052   4.895 -0.1293 -1.6942 -0.6671
45076SOL     OW39784   5.034   4.163   2.289 -0.4364  0.0570  0.0314
45076SOL    HW139785   5.120   4.168   2.331 -0.1091 -0.9257 -0.5085
45076SOL    HW239786   5.017   4.253   2.259  1.0523 -0.0191 -1.1327
45077SOL     OW39787   5.094   9.994   5.399 -0.7487  0.0947 -0.3525
45077SOL    HW139788   5.081  10.064   5.336 -0.4616  0.6414  0.1892
45077SOL    HW239789   5.062  10.029   5.482  2.9293  1.1316  0.8414
45078SOL     OW39790   4.292   5.199   4.722 -0.3687 -0.5701  0.3642
45078SOL    HW139791   4.294   5.191   4.818 -1.7083 -1.0025  0.3758
45078SOL    HW239792   4.205   5.235   4.703 -0.6509 -1.7835 -0.7686
45079SOL     OW39793   1.722   7.096   5.108  0.3310  0.9850  0.1663
45079SOL    HW139794   1.663   7.088   5.033  1.2946  1.4823 -0.6560
45079SOL    HW239795   1.676   7.050   5.179 -0.8816  1.0584 -0.5440
45080SOL     OW39796   6.985   8.211   9.196  0.1264 -0.7345 -0.6509
45080SOL    HW139797   7.014   8.143   9.135  0.2278  0.2395 -1.6997
45080SOL    HW239798   6.953   8.282   9.141  1.4158  0.7071  0.3584
45081SOL     OW39799   1.652   0.643  10.159 -0.0580  0.0596 -0.4294
45081SOL    HW139800   1.690   0.665  10.074  0.6042 -0.3959 -0.2599
45081SOL    HW239801   1.728   0.623  10.214 -0.4827  0.4081  0.2810
45082SOL     OW39802   1.823  12.086   3.120  0.2034  0.1713  0.2368
45082SOL    HW139803   1.875  12.006   3.106 -1.2695 -0.7883  0.0638
45082SOL    HW239804   1.753  12.080   3.056 -0.5726  1.0461  0.9879
45083SOL     OW39805   9.125   5.578   1.643 -0.7362 -0.4525 -0.0914
45083SOL    HW139806   9.062   5.514   1.676 -1.4458  1.0495  1.6482
45083SOL    HW239807   9.210   5.546   1.671 -0.9541 -1.3182 -0.4145
45084SOL     OW39808   3.088   7.161   3.960 -0.1020 -0.5891  0.6064
45084SOL    HW139809   3.162   7.189   3.906 -0.7576 -1.9788 -1.1104
45084SOL    HW239810   3.072   7.070   3.933 -1.8685 -0.6130  1.5990
45085SOL     OW39811   2.410   1.368   4.149 -0.1575  0.1348 -0.0342
45085SOL    HW139812   2.345   1.346   4.216 -0.4538  0.6671 -0.1374
45085SOL    HW239813   2.362   1.422   4.086  0.5401  1.0864  0.2218
45086SOL     OW39814   7.833  12.009   2.032 -0.0410 -0.8400  0.2231
45086SOL    HW139815   7.740  11.989   2.038  0.0236 -1.5892 -0.8334
45086SOL    HW239816   7.837  12.097   1.994 -0.3488 -1.5061 -1.4582
45087SOL     OW39817   7.704  10.831   4.528  0.0026  0.3694 -0.2785
45087SOL    HW139818   7.775  10.832   4.463  0.7409  0.3025  0.5089
45087SOL    HW239819   7.712  10.746   4.571 -0.3834  0.4784  0.0132
45088SOL     OW39820   2.715   7.838   3.752  0.1186  0.2278 -0.4782
45088SOL    HW139821   2.631   7.879   3.729 -0.0662  0.7477  0.9910
45088SOL    HW239822   2.774   7.912   3.767  1.1520 -0.1380 -2.4307
45089SOL     OW39823  11.225   5.910  10.793 -0.1605 -1.1169 -0.4121
45089SOL    HW139824  11.221   5.850  10.719  2.0801 -2.1085  0.1874
45089SOL    HW239825  11.285   5.868  10.855 -0.3278  0.6624  1.0448
45090SOL     OW39826   9.327  10.453   6.403 -0.1460  0.4154 -0.6293
45090SOL    HW139827   9.410  10.459   6.355 -1.1664 -1.3939 -2.8284
45090SOL    HW239828   9.261  10.479   6.339 -1.4191 -0.0538  0.4645
45091SOL     OW39829   8.168   0.541  10.478  0.1230  0.5480 -0.1403
45091SOL    HW139830   8.251   0.517  10.438  0.7120  2.5089 -0.2185
45091SOL    HW239831   8.170   0.637  10.481 -2.2759  0.6771 -0.4573
45092SOL     OW39832   0.603   8.296   4.751  0.4569  0.2519 -0.2893
45092SOL    HW139833   0.557   8.239   4.812 -0.3511 -0.1016 -1.1984
45092SOL    HW239834   0.682   8.247   4.727  1.6707  1.1068  1.7219
45093SOL     OW39835  11.854   0.754   6.235  0.0641  0.7394 -0.0996
45093SOL    HW139836  11.926   0.690   6.229 -0.3938 -0.0590  2.1640
45093SOL    HW239837  11.892   0.828   6.282 -0.3229  0.7135  0.2576
45094SOL     OW39838   3.748   3.125   3.712  0.5498  0.2406  0.2011
45094SOL    HW139839   3.796   3.140   3.793 -0.5122  1.0042  0.7117
45094SOL    HW239840   3.674   3.186   3.715  0.1213 -0.1692 -1.0374
45095SOL     OW39841  10.218  10.040   7.905 -0.3038  0.4330 -0.4543
45095SOL    HW139842  10.182  10.086   7.829 -1.8599 -0.6141 -0.4027
45095SOL    HW239843  10.278   9.975   7.868 -2.4712 -1.3805 -1.0405
45096SOL     OW39844   7.227   6.154  10.291 -0.5663 -0.2765  0.1931
45096SOL    HW139845   7.159   6.143  10.357 -1.0199  1.0826 -0.0217
45096SOL    HW239846   7.205   6.236  10.247  1.2750  0.2515  0.1913
45097SOL     OW39847   5.006   3.360   4.382 -0.1153 -0.7522  0.0447
45097SOL    HW139848   5.048   3.423   4.323 -1.4632 -0.2826 -0.4604
45097SOL    HW239849   4.912   3.369   4.363 -0.4632 -1.6258  1.2537
45098SOL     OW39850   2.867  11.780  10.579  0.0021  0.3236  0.0260
45098SOL    HW139851   2.887  11.691  10.551  0.0180  0.3845 -0.1593
45098SOL    HW239852   2.811  11.816  10.510  0.1180  0.5053  0.0223
45099SOL     OW39853   3.943   3.080   9.273  0.5417 -0.1241 -0.6756
45099SOL    HW139854   4.026   3.059   9.230 -1.3949 -1.4334 -4.2320
45099SOL    HW239855   3.949   3.173   9.293  2.2881  0.2017 -2.3968
45100SOL     OW39856   6.285   1.135   5.698 -0.2236  0.5425  0.1456
45100SOL    HW139857   6.261   1.055   5.650  0.9271  0.7747 -0.8726
45100SOL    HW239858   6.330   1.103   5.776 -1.6228  0.1715  0.8439
45101SOL     OW39859   8.514   5.565   7.306  0.1487 -0.0608 -0.1829
45101SOL    HW139860   8.442   5.579   7.245 -0.8467 -0.7640  0.7883
45101SOL    HW239861   8.476   5.582   7.392  0.6994 -1.9420  0.4783
45102SOL     OW39862   2.839   9.563   0.644 -0.4679  0.0808  0.2043
45102SOL    HW139863   2.906   9.530   0.584 -1.4188  1.2559 -1.6198
45102SOL    HW239864   2.756   9.543   0.600 -1.1582  2.2017  0.4153
45103SOL     OW39865   9.379   8.761   1.145 -0.1906 -0.5053 -0.2848
45103SOL    HW139866   9.343   8.705   1.075 -1.1106  0.4423 -0.5930
45103SOL    HW239867   9.334   8.844   1.135 -0.9272 -0.5656  1.9165
45104SOL     OW39868   6.328   5.825  10.201  0.3235  1.0047 -0.6289
45104SOL    HW139869   6.351   5.772  10.277  0.9625  1.0230 -0.8069
45104SOL    HW239870   6.322   5.915  10.234  1.1517  1.0919 -0.7070
45105SOL     OW39871   6.107   5.324   5.489  0.1766  0.8804  0.3818
45105SOL    HW139872   6.071   5.238   5.511  1.0858  0.5203  0.5174
45105SOL    HW239873   6.033   5.384   5.494 -0.5575  0.0369 -0.1205
45106SOL     OW39874   9.441   0.168   7.354  0.2268 -0.2305 -0.0070
45106SOL    HW139875   9.439   0.126   7.440 -0.4021  2.4859  1.4131
45106SOL    HW239876   9.398   0.252   7.367  1.6646  1.0348 -2.5746
45107SOL     OW39877  12.024   6.011   1.466  0.1683 -0.4214  0.2983
45107SOL    HW139878  12.015   6.094   1.419 -0.6899 -0.3134  0.6388
45107SOL    HW239879  12.113   5.982   1.445  1.6975  2.0538  2.5795
45108SOL     OW39880   0.067   0.355   4.126  0.0292 -0.4439 -0.1100
45108SOL    HW139881   0.041   0.434   4.078  0.8696  0.7779  1.3418
45108SOL    HW239882  -0.007   0.339   4.186  0.5074  0.2110  0.6875
45109SOL     OW39883   7.740   5.265   8.877  0.7153  0.2835  0.3012
45109SOL    HW139884   7.830   5.291   8.901  1.1640 -0.8013 -0.1700
45109SOL    HW239885   7.701   5.237   8.960  0.4279  1.8052  0.7103
45110SOL     OW39886   9.809   6.155  10.783  0.3082  0.1702 -0.5244
45110SOL    HW139887   9.763   6.197  10.855 -0.6987  1.0894 -1.6699
45110SOL    HW239888   9.780   6.064  10.786 -0.2540  0.3563 -0.1887
45111SOL     OW39889   0.344   9.358   7.752 -0.1661 -1.0144  0.3575
45111SOL    HW139890   0.382   9.438   7.787  0.1085 -0.3963 -1.3057
45111SOL    HW239891   0.390   9.342   7.670 -1.9932 -1.4424 -0.6480
45112SOL     OW39892  10.163  11.623  10.194 -0.0611  0.1832 -0.2984
45112SOL    HW139893  10.122  11.596  10.276 -0.8976 -0.4267 -0.8985
45112SOL    HW239894  10.246  11.576  10.191  0.2375  0.6411  0.4501
45113SOL     OW39895   7.393  11.202   7.049  0.4293  0.5989  0.0916
45113SOL    HW139896   7.396  11.106   7.049  0.3659  0.5583  1.8757
45113SOL    HW239897   7.334  11.224   7.121 -1.5047  1.9880 -1.7788
45114SOL     OW39898   0.947   4.490   4.605  0.4909 -0.5289 -0.4595
45114SOL    HW139899   0.894   4.542   4.665  1.3382 -0.5180  0.3175
45114SOL    HW239900   0.932   4.399   4.632 -0.3264 -0.6377 -1.2563
45115SOL     OW39901  10.426  11.058   3.915  0.4704  0.4036  0.0716
45115SOL    HW139902  10.466  11.091   3.996  0.9655  1.2768 -0.5108
45115SOL    HW239903  10.352  11.116   3.899 -1.6081 -1.6801  1.5624
45116SOL     OW39904   8.089   1.243  11.799 -0.2051 -0.1845  0.2985
45116SOL    HW139905   8.166   1.298  11.790 -1.2328  0.9833 -2.4022
45116SOL    HW239906   8.019   1.303  11.822 -1.0043 -0.5756 -0.9901
45117SOL     OW39907   7.354   0.435   5.406  0.2955  0.5617  0.1923
45117SOL    HW139908   7.337   0.511   5.349 -0.5678 -0.8467 -1.5206
45117SOL    HW239909   7.268   0.414   5.443 -0.7420 -2.6352 -3.4237
45118SOL     OW39910   3.255  10.553   6.960  0.0113  0.3415  1.3184
45118SOL    HW139911   3.342  10.545   6.997  0.0390  0.9064  1.3828
45118SOL    HW239912   3.238  10.468   6.918  0.7427  0.3580  0.9790
45119SOL     OW39913   3.166   9.290   6.978  0.3231 -0.2938 -0.3464
45119SOL    HW139914   3.232   9.328   6.920  0.3968  0.4973  0.2321
45119SOL    HW239915   3.149   9.359   7.043 -0.4201 -0.8181  0.0333
45120SOL     OW39916   9.541   8.692   0.185  0.4986 -0.0046 -0.0240
45120SOL    HW139917   9.459   8.684   0.136  0.4660 -0.6422  0.1198
45120SOL    HW239918   9.600   8.631   0.142  1.0335  0.7606 -0.3888
45121SOL     OW39919   1.692   9.018   7.848  0.1734  0.4015  0.6810
45121SOL    HW139920   1.660   9.010   7.758  2.1269  0.7534 -0.0821
45121SOL    HW239921   1.677   9.110   7.871  1.4422  0.8117 -0.0295
45122SOL     OW39922  11.388   3.063   3.842  0.5523  0.2477  0.3622
45122SOL    HW139923  11.355   3.151   3.861  0.6984  0.0963  1.3940
45122SOL    HW239924  11.349   3.040   3.758  1.2429  1.6639 -0.3816
45123SOL     OW39925   8.587   5.176  11.806 -0.2273  0.1136  0.3875
45123SOL    HW139926   8.571   5.110  11.874 -1.2060  1.0913  1.1475
45123SOL    HW239927   8.544   5.140  11.728  2.0320 -1.6400 -0.1549
45124SOL     OW39928   9.076   2.827   4.138  0.4910 -0.4612 -0.2858
45124SOL    HW139929   9.138   2.884   4.093  1.1636  0.3035  1.5179
45124SOL    HW239930   9.119   2.741   4.139  1.6375  0.0890  1.0510
45125SOL     OW39931   7.329   9.500  10.301  0.1691 -0.0891  0.1443
45125SOL    HW139932   7.395   9.563  10.328 -0.5070 -0.0062  1.6490
45125SOL    HW239933   7.346   9.423  10.354 -0.0679 -0.5806 -0.4795
45126SOL     OW39934   0.397   4.462  10.696  0.1403  0.0419 -0.5547
45126SOL    HW139935   0.448   4.541  10.678 -0.4362  0.7710  0.8602
45126SOL    HW239936   0.437   4.425  10.774 -0.6481 -0.1368 -0.2291
45127SOL     OW39937   3.949   4.951   8.056  0.2843 -0.1723 -0.1751
45127SOL    HW139938   3.939   5.046   8.055 -1.3171 -0.3155  0.1623
45127SOL    HW239939   4.000   4.932   7.977 -0.6012  0.8549 -1.0239
45128SOL     OW39940  11.550   4.835   3.255  0.0113 -0.0269  0.0155
45128SOL    HW139941  11.642   4.841   3.281 -0.1416  0.5232  0.4758
45128SOL    HW239942  11.513   4.771   3.316  0.0396 -0.0670 -0.0095
45129SOL     OW39943   1.691   0.765   8.796  0.2596  0.5086 -0.4285
45129SOL    HW139944   1.618   0.812   8.755 -0.2481  0.4395  0.3734
45129SOL    HW239945   1.656   0.735   8.880  1.5032  1.3178  0.4124
45130SOL     OW39946   3.225   2.587   3.733 -0.0321  0.2136 -0.0666
45130SOL    HW139947   3.254   2.552   3.817 -1.7795  0.9703  0.9157
45130SOL    HW239948   3.274   2.537   3.668  0.6402 -1.0903  1.3699
45131SOL     OW39949   4.697   9.063   4.927  0.4970  0.5680  0.1338
45131SOL    HW139950   4.612   9.107   4.936  0.8493  1.1505  0.6227
45131SOL    HW239951   4.674   8.973   4.903 -0.2493  0.8021 -0.0773
45132SOL     OW39952  11.391  10.787  11.268 -0.3598  0.7430 -0.5505
45132SOL    HW139953  11.305  10.747  11.268 -0.3431  0.6971 -0.0737
45132SOL    HW239954  11.373  10.881  11.266 -0.4466  0.7582  0.5021
45133SOL     OW39955   7.368   9.903   5.724  0.0577  0.3465  0.4529
45133SOL    HW139956   7.410   9.988   5.721  0.6863  0.1734  2.4173
45133SOL    HW239957   7.308   9.909   5.799  0.7385 -1.1609  1.1661
45134SOL     OW39958   7.196   9.748   9.097 -0.2493 -0.3922 -0.1014
45134SOL    HW139959   7.192   9.669   9.043  0.2665 -1.2394  1.0381
45134SOL    HW239960   7.289   9.756   9.120 -0.2152  0.8300 -0.5712
45135SOL     OW39961   7.876   6.543   5.674  0.6790 -0.0108 -0.6945
45135SOL    HW139962   7.874   6.530   5.579  1.9382  0.8768 -0.8731
45135SOL    HW239963   7.822   6.473   5.710 -1.2424  0.6494 -2.1558
45136SOL     OW39964  10.878   6.189  11.937 -0.2907 -0.2744 -0.4088
45136SOL    HW139965  10.871   6.093  11.933 -1.0434 -0.5764  3.7453
45136SOL    HW239966  10.968   6.205  11.966 -0.4431  0.1872 -0.1751
45137SOL     OW39967   4.833   4.506   9.331  0.0309 -0.3769  0.5862
45137SOL    HW139968   4.908   4.491   9.388 -0.4631 -1.4991  0.9589
45137SOL    HW239969   4.858   4.582   9.278  1.5525 -0.9357  0.4744
45138SOL     OW39970  11.734   0.217   4.557 -0.1086  0.5717 -0.7942
45138SOL    HW139971  11.719   0.176   4.643  0.7582  0.4051 -0.7164
45138SOL    HW239972  11.729   0.144   4.495  1.0802  0.3896 -0.6917
45139SOL     OW39973   4.452   0.620   5.509  0.1621  0.0429 -0.0623
45139SOL    HW139974   4.457   0.556   5.438 -1.0630  0.9075 -0.9638
45139SOL    HW239975   4.394   0.580   5.574 -1.6802  0.7484 -1.2219
45140SOL     OW39976  10.983   7.917   9.606 -0.0872 -0.3520  0.1566
45140SOL    HW139977  10.957   7.830   9.638 -0.4298 -1.0718 -1.8928
45140SOL    HW239978  10.937   7.978   9.664  0.5052 -1.4827  1.9231
45141SOL     OW39979   3.224   0.474   4.842  0.2143 -0.0704  0.3682
45141SOL    HW139980   3.236   0.558   4.887 -2.1167 -0.1856  1.3496
45141SOL    HW239981   3.176   0.420   4.905 -0.7633 -1.1926 -1.2502
45142SOL     OW39982   9.612  10.092  11.888  0.3768 -0.1103 -0.0887
45142SOL    HW139983   9.551  10.020  11.873  1.1330 -1.0531  1.2479
45142SOL    HW239984   9.691  10.051  11.923  0.1526  1.5150  2.5904
45143SOL     OW39985   1.871   1.740   6.876  0.3827  0.0930 -0.1456
45143SOL    HW139986   1.940   1.675   6.865 -0.4610 -0.9105  0.2772
45143SOL    HW239987   1.916   1.819   6.905  1.3251 -0.5976  0.3002
45144SOL     OW39988   7.244   2.374   8.728 -0.0258  0.3950 -0.8565
45144SOL    HW139989   7.305   2.371   8.655  0.6297 -0.6668 -0.2785
45144SOL    HW239990   7.159   2.393   8.687  0.2125 -0.8332 -1.9781
45145SOL     OW39991   4.871   0.513   1.043 -0.2511  0.1790  0.0153
45145SOL    HW139992   4.906   0.424   1.052 -0.1934  0.2492  0.4979
45145SOL    HW239993   4.860   0.525   0.949  1.9692  0.5240 -0.2497
45146SOL     OW39994   9.064   3.945  10.867  0.2411  0.5841 -0.3668
45146SOL    HW139995   9.086   3.938  10.774  1.8029 -1.1486  0.0885
45146SOL    HW239996   9.087   3.860  10.904 -3.8019 -0.1643  0.9594
45147SOL     OW39997   7.398   9.508   3.196  0.1309 -0.1065 -0.2568
45147SOL    HW139998   7.337   9.447   3.236  0.8940 -0.1791  0.8163
45147SOL    HW239999   7.475   9.508   3.253  0.0325  2.0798 -0.0346
45148SOL     OW40000   4.980   0.405   6.965 -0.3143  0.1427 -0.2241
45148SOL    HW140001   4.958   0.486   6.919 -2.8111 -0.4907 -0.2974
45148SOL    HW240002   4.981   0.429   7.057 -0.3801  0.4000 -0.2890
45149SOL     OW40003   3.685   5.832   6.319  0.0714 -0.1539  0.1569
45149SOL    HW140004   3.639   5.812   6.400  1.2517  0.8713  1.1220
45149SOL    HW240005   3.666   5.758   6.261  1.1107 -2.1231  2.1862
45150SOL     OW40006   3.139   2.956   5.511 -0.1599 -0.0250 -0.1890
45150SOL    HW140007   3.105   2.867   5.510  1.6819 -0.7529 -1.6634
45150SOL    HW240008   3.220   2.951   5.562 -1.1813  1.3165  1.7115
45151SOL     OW40009   8.773   5.786   1.299  0.2743 -0.3682  0.5326
45151SOL    HW140010   8.765   5.744   1.384  0.6419 -1.8190 -0.1275
45151SOL    HW240011   8.866   5.779   1.276 -0.4176 -4.1698 -1.9636
45152SOL     OW40012   9.671   7.904   0.183 -0.0531  0.3683 -0.1620
45152SOL    HW140013   9.758   7.870   0.163  0.6344  2.0633 -0.1825
45152SOL    HW240014   9.611   7.835   0.153  1.2343 -0.4733 -0.9029
45153SOL     OW40015   9.404  11.625   6.999  0.2113  0.1286 -0.1225
45153SOL    HW140016   9.483  11.652   6.953 -0.1436 -1.7286 -1.9542
45153SOL    HW240017   9.436  11.580   7.077  0.9970 -1.0336 -1.0968
45154SOL     OW40018  11.029   1.765   6.481  0.2088 -0.3352 -0.6788
45154SOL    HW140019  11.039   1.685   6.429  1.0978 -0.9780  0.4105
45154SOL    HW240020  11.093   1.755   6.552 -0.7013  0.6514  0.3320
45155SOL     OW40021   5.458   3.228   5.991 -0.1970  0.4747  0.2799
45155SOL    HW140022   5.491   3.277   5.915  0.8732  0.8700  0.9731
45155SOL    HW240023   5.476   3.136   5.970  0.2796  0.5997  0.1389
45156SOL     OW40024  11.094   0.741   6.414 -0.5725  0.2113  0.6425
45156SOL    HW140025  11.004   0.724   6.386  0.3101  0.1932 -2.5050
45156SOL    HW240026  11.131   0.655   6.431 -0.5309  0.0730 -0.1583
45157SOL     OW40027   7.708   9.913  10.745  0.4930 -0.0357 -0.5497
45157SOL    HW140028   7.712  10.000  10.786  0.0197 -0.8102  1.2267
45157SOL    HW240029   7.786   9.868  10.777 -0.3025 -0.9284  0.1830
45158SOL     OW40030   3.790   3.704   6.636  0.2597  0.5228 -0.8408
45158SOL    HW140031   3.855   3.667   6.577 -0.0678 -0.4387 -0.6262
45158SOL    HW240032   3.835   3.775   6.681  0.8062  0.6108 -1.5188
45159SOL     OW40033   0.051  10.686   0.039  0.0515 -0.0277  0.1025
45159SOL    HW140034  -0.013  10.669  -0.030 -1.0797 -0.3201  1.2001
45159SOL    HW240035   0.083  10.774   0.021  0.5011 -0.4643 -1.3551
45160SOL     OW40036  12.068   4.533  10.848  0.2728 -0.3470  0.0415
45160SOL    HW140037  12.154   4.548  10.809 -0.1280  0.6616 -0.4943
45160SOL    HW240038  12.028   4.620  10.853 -0.1159 -0.5812  1.7459
45161SOL     OW40039   6.605   8.748   1.331 -0.0801  0.0143  0.3244
45161SOL    HW140040   6.699   8.732   1.330  0.0644  0.8751  0.0142
45161SOL    HW240041   6.566   8.661   1.318  0.6649 -0.3287  0.3496
45162SOL     OW40042   1.004   8.970   4.704  0.3092 -0.3576 -0.1882
45162SOL    HW140043   0.942   9.005   4.768 -0.6725 -1.9019 -0.2359
45162SOL    HW240044   1.013   9.039   4.639 -0.5772  0.3046  0.3710
45163SOL     OW40045   9.262   8.406   8.542  0.1010  0.4629 -0.0852
45163SOL    HW140046   9.281   8.364   8.626  0.1631 -1.8787 -1.1986
45163SOL    HW240047   9.211   8.484   8.565  0.4743  0.1176  2.1329
45164SOL     OW40048   5.791   6.201  11.048  0.0848  0.1627 -0.1878
45164SOL    HW140049   5.754   6.124  11.091  0.2995  0.0781 -0.1553
45164SOL    HW240050   5.731   6.218  10.975 -1.1082  1.1898  0.9928
45165SOL     OW40051   8.935   4.028   2.186 -0.1493  0.2803  0.8091
45165SOL    HW140052   8.917   4.111   2.231 -2.0233 -0.0693  0.7862
45165SOL    HW240053   8.857   4.013   2.132  0.9671 -0.5799 -0.6117
45166SOL     OW40054  10.212  10.141  11.223  0.3911  0.3606 -0.4472
45166SOL    HW140055  10.240  10.227  11.191  1.3480 -0.2465 -1.2800
45166SOL    HW240056  10.142  10.115  11.163  1.0176 -0.0255 -1.0177
45167SOL     OW40057   1.961   5.991   9.992 -0.1183  0.1292 -0.5448
45167SOL    HW140058   1.979   6.043  10.070  1.3145 -1.3315  0.1454
45167SOL    HW240059   1.897   5.926  10.021 -0.6148  0.4157 -0.9669
45168SOL     OW40060   0.601  11.092   2.229  0.1191  0.0985  0.4606
45168SOL    HW140061   0.633  11.153   2.163  2.9825 -1.9774 -0.2049
45168SOL    HW240062   0.651  11.114   2.308  0.2476 -0.5596  0.5654
45169SOL     OW40063  10.846   7.316   8.444 -0.1086  0.2974  0.6717
45169SOL    HW140064  10.788   7.387   8.418  0.8333  1.4622  1.5667
45169SOL    HW240065  10.800   7.272   8.516  0.0350  1.1373  1.2987
45170SOL     OW40066  10.047   0.370   4.658 -0.2904  0.0782  0.1107
45170SOL    HW140067   9.967   0.369   4.606 -0.8932  2.0491  0.9209
45170SOL    HW240068  10.103   0.304   4.617 -1.7253 -0.2484 -1.4184
45171SOL     OW40069   2.807  11.629   1.125  0.1625  0.0748  0.1060
45171SOL    HW140070   2.759  11.546   1.129  2.0370 -1.0998 -0.3199
45171SOL    HW240071   2.819  11.646   1.031  0.6112  0.2994  0.1977
45172SOL     OW40072   0.032   6.373   3.558  0.3228 -0.8121 -0.5749
45172SOL    HW140073  -0.037   6.315   3.590 -0.2582  0.2378  0.1579
45172SOL    HW240074   0.106   6.355   3.616 -0.1002 -0.3088  0.1431
45173SOL     OW40075   8.252   4.555   4.376 -0.6783 -0.5222  0.7122
45173SOL    HW140076   8.237   4.600   4.292 -2.1756  0.1422  1.3085
45173SOL    HW240077   8.292   4.472   4.351 -0.8445 -0.2264 -0.6488
45174SOL     OW40078   7.696   3.059   0.129  0.1130 -0.1122  0.0275
45174SOL    HW140079   7.758   3.118   0.088  0.7778 -0.1244  0.9983
45174SOL    HW240080   7.685   2.988   0.065  2.1451 -0.8126  0.3926
45175SOL     OW40081   2.501   1.689   3.475 -0.0047  0.5140  0.6109
45175SOL    HW140082   2.513   1.599   3.443  0.0562 -0.1078  2.2539
45175SOL    HW240083   2.560   1.741   3.421 -0.2832 -0.3616 -0.6049
45176SOL     OW40084  10.633   6.867   4.301 -0.6111 -0.1484 -0.5470
45176SOL    HW140085  10.635   6.852   4.395  0.5066  1.0550 -0.3597
45176SOL    HW240086  10.568   6.803   4.268 -0.8113 -0.7705  0.9738
45177SOL     OW40087  10.343   2.959   9.675  0.2428 -0.0544 -0.3338
45177SOL    HW140088  10.388   3.029   9.722  0.6931 -0.9965  0.6634
45177SOL    HW240089  10.340   2.989   9.584  0.3969  1.2684  0.0839
45178SOL     OW40090   0.876   2.003  10.368  0.4843 -0.2202  0.4466
45178SOL    HW140091   0.841   2.055  10.296 -0.6094  0.2028  1.2479
45178SOL    HW240092   0.957   2.047  10.393 -0.1350  0.8044  0.7432
45179SOL     OW40093   4.123  10.198  11.931 -0.0763 -0.1298  0.4984
45179SOL    HW140094   4.081  10.251  11.999 -0.3778 -0.0417  0.2459
45179SOL    HW240095   4.050  10.152  11.888  0.2578 -1.6240  1.4413
45180SOL     OW40096   0.538   1.364   9.207  0.3139 -0.9440  0.8179
45180SOL    HW140097   0.450   1.399   9.192  0.2618 -0.8397  1.3486
45180SOL    HW240098   0.562   1.396   9.294  0.3388 -2.0867  1.2441
45181SOL     OW40099   1.997   8.488   8.742  0.5224  0.0252 -0.0271
45181SOL    HW140100   1.960   8.435   8.813 -1.8933 -0.4211 -1.4985
45181SOL    HW240101   2.058   8.429   8.697 -0.9241 -1.0608 -0.6592
45182SOL     OW40102   0.741  11.599   7.759 -0.5659  0.0655 -0.0086
45182SOL    HW140103   0.833  11.600   7.782 -0.5717  0.7229  0.0003
45182SOL    HW240104   0.695  11.578   7.840 -0.5706  2.0952  0.5800
45183SOL     OW40105   2.494   9.581   2.755 -0.2917 -0.7140 -0.7463
45183SOL    HW140106   2.423   9.593   2.818 -1.9921  1.7097 -2.8917
45183SOL    HW240107   2.452   9.537   2.680  1.0683 -1.3255 -1.1789
45184SOL     OW40108   1.174   5.287   6.603  0.1355 -0.3977 -0.2733
45184SOL    HW140109   1.131   5.256   6.683 -2.1754 -3.4206 -2.4121
45184SOL    HW240110   1.148   5.378   6.595 -0.1631 -0.2195  1.9962
45185SOL     OW40111   3.714   8.778   3.483  0.0014 -0.2490  0.0988
45185SOL    HW140112   3.654   8.825   3.542 -0.2661 -0.5636  0.0821
45185SOL    HW240113   3.709   8.687   3.512  1.3275 -0.1172  0.8100
45186SOL     OW40114  10.666   1.012   2.588  0.9817 -0.3351  0.1297
45186SOL    HW140115  10.678   1.037   2.497  1.6247 -0.8625  0.0696
45186SOL    HW240116  10.754   0.995   2.621  0.5863 -2.7416  0.1032
45187SOL     OW40117   4.856  11.441   7.464  0.3673  0.0197  0.6668
45187SOL    HW140118   4.910  11.384   7.410 -1.2650 -0.9799  0.0211
45187SOL    HW240119   4.899  11.440   7.550  1.8684  0.0179 -0.0570
45188SOL     OW40120   2.428   9.272   4.530  0.2627 -0.3475  0.4589
45188SOL    HW140121   2.507   9.270   4.584  0.3827  2.1582  0.5147
45188SOL    HW240122   2.461   9.271   4.440  0.2521 -0.8653  0.4561
45189SOL     OW40123   4.186   3.385  11.119  0.0169 -0.6520  0.3535
45189SOL    HW140124   4.136   3.450  11.169 -2.1440 -0.4164 -1.8874
45189SOL    HW240125   4.267   3.430  11.095  1.2170 -0.8229  3.5620
45190SOL     OW40126   7.814  11.514  12.032  0.0731 -0.0289 -0.8168
45190SOL    HW140127   7.813  11.582  12.099 -1.0880  0.7765 -1.6038
45190SOL    HW240128   7.891  11.533  11.979 -0.1204  0.5540 -0.8970
45191SOL     OW40129   7.549   4.361   0.637  0.3068  0.3206 -0.3783
45191SOL    HW140130   7.582   4.305   0.707  1.3533  0.3040 -0.8668
45191SOL    HW240131   7.613   4.351   0.566 -0.7342  0.3320 -1.3422
45192SOL     OW40132   9.310   2.234   2.228  0.6343  0.0890 -0.2786
45192SOL    HW140133   9.376   2.252   2.161  1.0074  1.6055  0.4648
45192SOL    HW240134   9.264   2.317   2.239  0.2205 -0.2943  0.9631
45193SOL     OW40135   0.854   9.450   4.665  0.0351 -0.0692 -0.0355
45193SOL    HW140136   0.866   9.545   4.669 -1.5696  0.1250  3.5023
45193SOL    HW240137   0.891   9.417   4.747  4.4264 -3.2483 -2.7892
45194SOL     OW40138   5.233  11.494   2.328 -0.0154  0.3321  0.0770
45194SOL    HW140139   5.184  11.576   2.321  0.4234  0.6888  0.9976
45194SOL    HW240140   5.309  11.516   2.382  1.5233 -0.0433 -1.8155
45195SOL     OW40141   7.177   9.967   1.107  0.1595  0.2785 -0.1075
45195SOL    HW140142   7.101   9.917   1.138 -0.8961  2.4460  1.0200
45195SOL    HW240143   7.142  10.025   1.040  1.1717  0.1942 -0.7322
45196SOL     OW40144   4.679   2.746   5.017 -1.0417 -0.3674 -0.0260
45196SOL    HW140145   4.624   2.804   4.965 -0.1818  0.7989  0.3082
45196SOL    HW240146   4.687   2.790   5.102  0.9993 -0.0747 -0.3062
45197SOL     OW40147   4.112   3.047   2.780 -0.0624  0.7064 -0.6147
45197SOL    HW140148   4.098   2.990   2.856  0.2461  0.9108 -0.4025
45197SOL    HW240149   4.105   3.136   2.815 -0.0204  0.8024 -0.8474
45198SOL     OW40150   5.411  10.899   3.185 -0.0864 -0.2453  0.0576
45198SOL    HW140151   5.342  10.839   3.156 -1.7805  1.2063  0.8792
45198SOL    HW240152   5.462  10.916   3.106 -1.1493 -0.7659 -0.7759
45199SOL     OW40153   2.232   8.423  11.248  0.0055 -0.3498  0.5157
45199SOL    HW140154   2.171   8.496  11.263 -2.0047 -1.5137 -1.4526
45199SOL    HW240155   2.264   8.401  11.335 -3.4366 -0.5228  1.8996
45200SOL     OW40156   8.002   9.151   6.052 -0.0043  0.2717  0.2382
45200SOL    HW140157   7.926   9.111   6.011  0.8377  1.2873 -2.5169
45200SOL    HW240158   8.052   9.077   6.086 -0.1526 -0.8049 -1.7297
45201SOL     OW40159   9.307  11.665   5.373  0.3267 -0.0399 -0.3057
45201SOL    HW140160   9.391  11.706   5.350  0.5850 -0.6300 -0.4535
45201SOL    HW240161   9.310  11.579   5.329 -0.3136 -0.1053 -0.2306
45202SOL     OW40162   1.703   8.608   7.413  0.1612 -0.1498  0.3580
45202SOL    HW140163   1.775   8.545   7.423  0.1256 -0.4537 -1.1523
45202SOL    HW240164   1.747   8.693   7.417  0.7290 -0.3367 -1.1168
45203SOL     OW40165   7.001   9.543   5.509 -0.3705 -0.0882  0.2855
45203SOL    HW140166   6.940   9.488   5.558 -1.1458  0.0418 -0.5241
45203SOL    HW240167   6.949   9.618   5.482  0.3171  0.3432  0.1334
45204SOL     OW40168   3.143   4.080   4.617 -0.0448  0.3474  0.0267
45204SOL    HW140169   3.103   4.003   4.576 -0.7333  0.3052  0.7508
45204SOL    HW240170   3.116   4.153   4.562 -1.3931  0.3542  0.6540
45205SOL     OW40171   1.883   2.842   4.762 -0.5529  0.0802  0.1382
45205SOL    HW140172   1.805   2.891   4.789  0.7356  1.9250  0.7301
45205SOL    HW240173   1.908   2.883   4.679  0.6042  0.5329  0.6971
45206SOL     OW40174   6.508   6.655   9.805 -0.2657  0.2879 -0.0527
45206SOL    HW140175   6.598   6.621   9.806 -1.2848 -2.6917 -1.0982
45206SOL    HW240176   6.478   6.645   9.895 -0.6673 -2.1128 -0.4065
45207SOL     OW40177   0.857   8.480   3.894 -0.0920 -0.2263  0.3795
45207SOL    HW140178   0.930   8.470   3.956  0.0438 -1.3289  0.0669
45207SOL    HW240179   0.850   8.574   3.881 -0.3485  0.0681  2.3312
45208SOL     OW40180   6.315   7.072  10.176 -0.1190  0.3065 -0.4061
45208SOL    HW140181   6.374   7.020  10.230 -1.4954 -0.3927  0.4954
45208SOL    HW240182   6.328   7.162  10.205  0.9506  0.2442 -0.6745
45209SOL     OW40183  10.901   5.007   2.411 -0.2873  0.0216 -0.2950
45209SOL    HW140184  10.965   4.938   2.397 -0.3968  0.4123 -3.3222
45209SOL    HW240185  10.828   4.964   2.456  0.9148 -1.0537  0.6959
45210SOL     OW40186   0.503   2.948   6.531 -0.5854 -0.6195  0.1157
45210SOL    HW140187   0.473   3.007   6.600 -0.8479  0.6453 -1.0607
45210SOL    HW240188   0.569   2.893   6.574 -0.1581  0.6783  1.1719
45211SOL     OW40189   8.418   5.391   4.974 -0.2812  0.2872  0.5192
45211SOL    HW140190   8.386   5.464   4.922 -1.3393 -0.7676 -0.3356
45211SOL    HW240191   8.341   5.337   4.992  0.3664 -0.3027  1.6742
45212SOL     OW40192   4.034  11.596   3.936 -0.5116  0.4502 -0.0396
45212SOL    HW140193   4.057  11.505   3.953 -1.0523  0.2254 -0.4774
45212SOL    HW240194   4.016  11.599   3.842 -1.4532  0.7819  0.1383
45213SOL     OW40195  10.489   0.279   9.017  0.1064 -0.1299  0.3497
45213SOL    HW140196  10.539   0.210   8.974 -0.6985  0.3159 -1.3810
45213SOL    HW240197  10.399   0.265   8.987 -0.0149  1.8697 -0.3457
45214SOL     OW40198   9.547  11.806   2.809  0.2031 -0.0401  0.1612
45214SOL    HW140199   9.562  11.893   2.774  0.9430 -0.2893 -0.1578
45214SOL    HW240200   9.453  11.790   2.797  0.1700  0.4913 -0.2711
45215SOL     OW40201   8.468   2.405   2.667  0.2572  0.1957 -0.7063
45215SOL    HW140202   8.384   2.434   2.702  0.2437  0.5322 -0.9990
45215SOL    HW240203   8.521   2.485   2.666  1.0354 -0.2772  0.7432
45216SOL     OW40204   5.216   0.548   2.742 -0.5135 -0.2915  0.1028
45216SOL    HW140205   5.264   0.515   2.666  0.1647 -0.6915  0.6903
45216SOL    HW240206   5.169   0.471   2.775 -0.2878 -0.2740  0.4678
45217SOL     OW40207   9.020   7.294   5.432  0.3431  0.2725  0.4102
45217SOL    HW140208   8.996   7.375   5.477 -0.7585  0.8946 -1.2028
45217SOL    HW240209   9.098   7.317   5.381  0.4272  0.1353  0.4773
45218SOL     OW40210   3.396   0.251  10.929  0.1371 -0.4433  0.0284
45218SOL    HW140211   3.397   0.319  10.861  1.5152 -1.7667 -1.3579
45218SOL    HW240212   3.312   0.264  10.974 -0.5216  0.9224 -1.4796
45219SOL     OW40213   4.737  11.107   1.575  0.2043 -0.1135 -0.5532
45219SOL    HW140214   4.784  11.129   1.655  0.9061 -0.2990 -0.9048
45219SOL    HW240215   4.695  11.023   1.593  0.1582 -0.0356 -0.2996
45220SOL     OW40216   7.160   5.979   5.274 -0.3148 -0.0012 -0.1813
45220SOL    HW140217   7.250   5.947   5.277 -0.9863 -1.9209  0.7497
45220SOL    HW240218   7.150   6.031   5.354 -0.1328 -0.0197 -0.1470
45221SOL     OW40219   5.873   1.779   4.836 -0.5271 -0.3576  0.1309
45221SOL    HW140220   5.928   1.702   4.827 -0.8966 -0.4874 -1.1191
45221SOL    HW240221   5.784   1.748   4.820 -0.6078  0.4472 -1.0984
45222SOL     OW40222   6.221   7.478   3.191  0.6360  0.2327 -0.9136
45222SOL    HW140223   6.298   7.455   3.139  0.6940  0.1859 -0.8062
45222SOL    HW240224   6.171   7.397   3.198  0.9711  0.0780 -0.3139
45223SOL     OW40225   8.515   5.926  10.678 -0.0947 -0.3920 -0.1911
45223SOL    HW140226   8.472   5.879  10.606 -2.3389  0.0502  0.7904
45223SOL    HW240227   8.546   5.856  10.736 -2.0749 -0.7801  0.4974
45224SOL     OW40228   8.631   3.990   4.228  0.0925  0.2707 -0.5314
45224SOL    HW140229   8.554   3.938   4.204 -0.5224  1.6441 -1.6885
45224SOL    HW240230   8.703   3.950   4.178 -0.1960 -0.0163 -0.7228
45225SOL     OW40231   1.731   1.448   7.251  0.0684  0.2759  0.1704
45225SOL    HW140232   1.813   1.498   7.245  0.1753  0.1714  0.7564
45225SOL    HW240233   1.704   1.457   7.342  1.5642 -2.9966  1.0910
45226SOL     OW40234   0.448   0.664   7.597  0.2749 -0.0007 -0.1146
45226SOL    HW140235   0.504   0.711   7.534  0.8786 -0.0172  0.3980
45226SOL    HW240236   0.373   0.635   7.545  0.5695  0.3274 -0.7422
45227SOL     OW40237   0.814   4.137   8.842 -0.3514  0.5414  0.1838
45227SOL    HW140238   0.730   4.106   8.807  0.3026  1.4009 -2.4390
45227SOL    HW240239   0.826   4.089   8.923 -1.9604 -1.9036 -0.8998
45228SOL     OW40240   7.241   6.784   3.092 -0.0237  0.1354 -0.0715
45228SOL    HW140241   7.252   6.732   3.172  0.5335  1.5219  0.7970
45228SOL    HW240242   7.250   6.875   3.121  2.4164  0.6412 -2.0277
45229SOL     OW40243   0.332  10.290   6.502  0.0710 -0.1519 -0.2662
45229SOL    HW140244   0.352  10.329   6.587  3.0698  0.2373 -1.0658
45229SOL    HW240245   0.370  10.202   6.506 -0.2736 -0.3459 -1.0055
45230SOL     OW40246   4.986   8.638   4.671  0.1746  0.2384 -0.1456
45230SOL    HW140247   4.898   8.602   4.669  0.2067  0.1695 -2.0174
45230SOL    HW240248   5.031   8.588   4.739 -1.3213  0.5767  1.1413
45231SOL     OW40249   3.854   7.681   5.832 -0.3381  0.5147 -0.7922
45231SOL    HW140250   3.882   7.666   5.742 -1.6674  1.7803 -1.4690
45231SOL    HW240251   3.926   7.730   5.871  0.0254  0.4159 -1.3129
45232SOL     OW40252  10.012   7.964   3.407 -0.6082 -0.0860  0.7279
45232SOL    HW140253   9.932   8.007   3.378 -1.1319 -1.3632  0.1941
45232SOL    HW240254  10.006   7.965   3.503 -1.0840  0.1386  0.6974
45233SOL     OW40255   9.641   7.445   8.485  0.2318 -0.1062 -0.3603
45233SOL    HW140256   9.698   7.467   8.411 -0.9187  1.4083 -0.8596
45233SOL    HW240257   9.644   7.350   8.490  0.7754 -0.2123 -2.0287
45234SOL     OW40258   9.079   4.674   1.572  0.2685  0.3091 -0.2113
45234SOL    HW140259   9.155   4.648   1.624  0.4044 -0.1204 -0.6184
45234SOL    HW240260   9.005   4.634   1.617  0.2819  0.6894  0.1596
45235SOL     OW40261   9.633   7.185   0.512  0.3460 -0.6525 -0.0758
45235SOL    HW140262   9.593   7.257   0.463  2.2547  1.6416  1.5203
45235SOL    HW240263   9.565   7.157   0.573 -0.1248  0.4866 -0.0532
45236SOL     OW40264   0.949   7.821   3.253  0.0536  0.5583  0.3011
45236SOL    HW140265   0.924   7.859   3.169 -2.9015 -1.4535  0.1109
45236SOL    HW240266   0.941   7.727   3.240 -0.6700  0.1893  2.8657
45237SOL     OW40267   7.003   6.188   5.986 -0.9630  0.1660 -0.1659
45237SOL    HW140268   7.030   6.114   6.041 -0.9650  0.5368  0.3464
45237SOL    HW240269   6.946   6.150   5.920  1.2508 -0.7761 -1.6805
45238SOL     OW40270   5.424  10.155   9.651  0.3237 -0.6287 -0.5127
45238SOL    HW140271   5.355  10.093   9.676 -1.1076  1.1401  0.1177
45238SOL    HW240272   5.454  10.122   9.566  0.8525 -3.1439  0.5456
45239SOL     OW40273   4.722   3.544  11.432  0.1141 -0.3516 -0.5618
45239SOL    HW140274   4.814   3.552  11.407  0.9551 -0.4582  2.1317
45239SOL    HW240275   4.721   3.563  11.526 -2.6377 -0.3290 -0.5019
45240SOL     OW40276   9.606   7.137   2.041  0.3766  0.3679 -0.0026
45240SOL    HW140277   9.568   7.215   2.081  1.0766 -0.4447  2.5043
45240SOL    HW240278   9.662   7.169   1.971 -0.0452  2.0443  0.4016
45241SOL     OW40279   7.841   9.754   7.267  0.4013  0.0859 -0.0630
45241SOL    HW140280   7.783   9.777   7.195 -0.5211 -1.0528  0.2779
45241SOL    HW240281   7.918   9.810   7.255 -0.5561  1.3086 -0.7948
45242SOL     OW40282   7.751  11.097   3.891 -0.0893  0.8393 -0.2721
45242SOL    HW140283   7.695  11.027   3.856 -0.0692  1.4828 -1.6525
45242SOL    HW240284   7.839  11.059   3.893 -0.2386  0.4995 -0.0475
45243SOL     OW40285  11.883   3.926   5.878 -0.1389  0.2929  0.2480
45243SOL    HW140286  11.929   3.844   5.861 -0.2884 -0.0253  1.3239
45243SOL    HW240287  11.796   3.912   5.842 -0.2256 -0.0985  0.6043
45244SOL     OW40288   1.017   3.509   4.568 -0.2251 -0.0376  0.2702
45244SOL    HW140289   0.978   3.444   4.626 -4.2534 -1.0257 -3.1032
45244SOL    HW240290   0.950   3.577   4.560  1.4545  1.5899 -0.9460
45245SOL     OW40291   6.637   8.711   2.545  0.0264  0.3859 -0.2869
45245SOL    HW140292   6.566   8.767   2.575  0.0633  0.5236 -0.4590
45245SOL    HW240293   6.670   8.669   2.625  0.7500  1.4685 -0.0033
45246SOL     OW40294   3.784   6.628   9.245  0.2746 -0.1170 -0.7679
45246SOL    HW140295   3.872   6.632   9.283  0.1554 -0.4922 -0.4417
45246SOL    HW240296   3.743   6.554   9.289  0.0118 -0.3380 -1.3826
45247SOL     OW40297   8.947  11.770   6.491  0.4805  0.1053  0.2433
45247SOL    HW140298   8.928  11.688   6.445 -0.2035  0.9097 -0.9694
45247SOL    HW240299   8.935  11.838   6.425  0.1741  1.2580  1.4356
45248SOL     OW40300   3.709   0.113   4.962  0.3476 -0.5664 -0.2837
45248SOL    HW140301   3.730   0.020   4.969 -0.4486 -0.7770 -0.6153
45248SOL    HW240302   3.614   0.115   4.950  0.3458  0.2974 -0.1560
45249SOL     OW40303   9.664   4.588  11.217 -0.1582 -0.1303 -0.9291
45249SOL    HW140304   9.629   4.510  11.261 -0.5813 -0.0421 -1.1033
45249SOL    HW240305   9.740   4.556  11.168  0.3543 -0.2242 -0.1026
45250SOL     OW40306   7.185   5.809   0.126 -0.5528  0.0909 -0.0590
45250SOL    HW140307   7.120   5.877   0.146 -1.5100 -0.4597 -1.1568
45250SOL    HW240308   7.195   5.761   0.208 -1.8794 -0.0700  0.0405
45251SOL     OW40309   0.942   7.531   7.717  0.9250  0.1221 -0.0541
45251SOL    HW140310   0.929   7.508   7.625 -0.5994 -1.0394  0.4023
45251SOL    HW240311   1.032   7.507   7.736  1.1038 -0.0972 -1.1171
45252SOL     OW40312  10.683  11.302   5.636  1.1656 -0.4667  0.1208
45252SOL    HW140313  10.746  11.374   5.638  2.1345 -1.2471 -1.2452
45252SOL    HW240314  10.651  11.299   5.546  0.8977 -1.5454  0.2352
45253SOL     OW40315   1.248   0.454   9.644 -0.1904 -0.7226  0.2307
45253SOL    HW140316   1.310   0.494   9.705  0.7196 -1.4632 -0.1957
45253SOL    HW240317   1.228   0.524   9.582  1.0709 -0.7831 -0.2644
45254SOL     OW40318   0.236   2.360   9.160  0.7044 -0.2576 -0.0477
45254SOL    HW140319   0.169   2.299   9.191 -0.6078  0.4384 -1.3963
45254SOL    HW240320   0.233   2.433   9.223  0.0585 -0.1559 -0.1872
45255SOL     OW40321   1.440  12.044   4.884 -0.0205 -0.5844  0.9300
45255SOL    HW140322   1.460  11.957   4.919 -1.7117 -0.8004  1.4440
45255SOL    HW240323   1.469  12.040   4.792  1.2644 -1.1767  1.3398
45256SOL     OW40324   0.804   0.975   8.396  0.1073  0.3757 -0.1676
45256SOL    HW140325   0.788   0.900   8.340  0.1893  0.3148 -0.1096
45256SOL    HW240326   0.821   1.047   8.336 -2.7853  1.0285 -0.3374
45257SOL     OW40327   4.320  11.345   5.209  0.1245  0.1696 -0.2055
45257SOL    HW140328   4.280  11.319   5.292  1.2469 -1.4040 -0.1142
45257SOL    HW240329   4.249  11.336   5.145 -0.5708  0.7429  0.4634
45258SOL     OW40330   7.450   9.720   3.485 -0.0142 -0.0941  0.0614
45258SOL    HW140331   7.478   9.765   3.564 -1.1524 -1.4764  1.3127
45258SOL    HW240332   7.364   9.756   3.466 -1.6473 -2.6359  1.9757
45259SOL     OW40333   7.716   5.279  10.781  0.2564 -0.3155  0.3495
45259SOL    HW140334   7.781   5.342  10.812  1.2755 -0.8001 -0.7430
45259SOL    HW240335   7.642   5.333  10.753  0.6689  0.3172  0.4555
45260SOL     OW40336  10.566   4.512   0.427  0.2246  0.1235  0.2768
45260SOL    HW140337  10.610   4.439   0.384 -1.6823 -1.4355  0.8262
45260SOL    HW240338  10.637   4.570   0.456  1.6940 -0.5395 -1.8272
45261SOL     OW40339   1.748   7.221   6.842  0.2273  0.1928 -0.7572
45261SOL    HW140340   1.823   7.163   6.834  0.6530  0.8550 -1.8170
45261SOL    HW240341   1.673   7.165   6.821  0.4957 -0.2921 -0.4383
45262SOL     OW40342   0.080   9.698  10.921  0.4374  0.3688  0.5341
45262SOL    HW140343   0.012   9.723  10.859  1.1993  3.1269  0.6551
45262SOL    HW240344   0.036   9.703  11.007 -0.5758 -3.2998  0.3888
45263SOL     OW40345   9.405   0.940   7.213  0.2830 -0.4767  0.1477
45263SOL    HW140346   9.418   1.011   7.275 -0.3017 -0.3417  0.1176
45263SOL    HW240347   9.479   0.948   7.152  0.9869 -0.7532  0.9465
45264SOL     OW40348   9.898   9.974  11.754  0.6193 -0.0582 -0.0055
45264SOL    HW140349   9.856   9.973  11.840 -0.5229 -0.2248 -0.5417
45264SOL    HW240350   9.970  10.036  11.763 -0.4449  1.1194  0.6259
45265SOL     OW40351   8.734   0.865   0.856 -0.0712  0.2041 -0.4493
45265SOL    HW140352   8.734   0.907   0.942 -1.0992  0.1725 -0.4218
45265SOL    HW240353   8.725   0.937   0.793 -1.4949  0.0671 -0.4184
45266SOL     OW40354   6.296   3.496   5.504  0.0267  0.2554  0.7073
45266SOL    HW140355   6.358   3.541   5.560 -0.3373  1.2399  0.3491
45266SOL    HW240356   6.334   3.502   5.416 -0.4996  0.7545  0.5067
45267SOL     OW40357  10.837   5.424   5.225  0.1121 -0.0086  0.1219
45267SOL    HW140358  10.770   5.387   5.167 -0.3803 -1.4731  1.5531
45267SOL    HW240359  10.811   5.395   5.312  1.1478  1.6663  1.0209
45268SOL     OW40360   3.010   7.994   3.953 -0.0620  0.4294 -0.5789
45268SOL    HW140361   3.018   7.999   4.048 -1.2878  0.4932 -0.4686
45268SOL    HW240362   2.994   8.084   3.925  1.1996  0.5598 -0.9570
45269SOL     OW40363   0.374  10.365   2.425  0.0901  0.1207  0.0335
45269SOL    HW140364   0.338  10.303   2.488  1.7425  0.2423  1.1555
45269SOL    HW240365   0.469  10.354   2.432  0.3548 -0.4533 -3.0420
45270SOL     OW40366   8.789   0.305  11.273 -0.3396  0.0636 -0.2938
45270SOL    HW140367   8.881   0.288  11.293 -0.0798  0.6511 -0.9411
45270SOL    HW240368   8.791   0.365  11.198 -1.2468  0.2523 -0.1837
45271SOL     OW40369   4.198   1.595   5.671  0.1730 -0.4699  0.0736
45271SOL    HW140370   4.168   1.641   5.592 -0.5738 -0.9421  0.0725
45271SOL    HW240371   4.215   1.506   5.642  2.0012 -0.1256 -0.0091
45272SOL     OW40372   7.209   7.945  12.008 -0.2380 -0.1935  0.1642
45272SOL    HW140373   7.132   7.943  11.951  0.6353 -2.2737 -1.0649
45272SOL    HW240374   7.274   7.995  11.958 -0.8432  1.9045  1.3699
45273SOL     OW40375   7.071   3.074   7.378 -0.5471  0.0200 -0.3840
45273SOL    HW140376   7.108   3.004   7.433  1.3422  0.4944 -0.9712
45273SOL    HW240377   7.006   3.116   7.434  0.5688 -0.1905  1.1422
45274SOL     OW40378   2.111  11.679   9.451 -0.0759 -0.6241  0.5428
45274SOL    HW140379   2.163  11.626   9.511  1.6578 -0.1793 -0.5176
45274SOL    HW240380   2.148  11.767   9.457 -0.9370 -0.2088  0.0164
45275SOL     OW40381  11.302  11.687   0.059 -0.0689 -0.4040  0.1624
45275SOL    HW140382  11.384  11.683   0.009  1.2246 -0.6393  2.1997
45275SOL    HW240383  11.288  11.597   0.088 -1.2460 -0.4225 -0.4018
45276SOL     OW40384   6.332   4.049   2.484 -0.2779  0.5320  0.0303
45276SOL    HW140385   6.413   3.997   2.486  0.8242  2.1143 -0.9896
45276SOL    HW240386   6.330   4.087   2.396 -1.6486  1.2956  0.3619
45277SOL     OW40387   0.545   5.591  10.708 -1.0602  0.1260 -0.0776
45277SOL    HW140388   0.598   5.665  10.678 -1.1273 -0.1014 -0.7780
45277SOL    HW240389   0.460   5.605  10.668 -1.8605  1.0254  1.8481
45278SOL     OW40390   8.082   6.884   7.778  0.5473  0.0732 -0.1384
45278SOL    HW140391   8.029   6.906   7.854  1.4098 -0.3175  0.6020
45278SOL    HW240392   8.169   6.865   7.814  1.4424  1.5584 -1.3844
45279SOL     OW40393   5.514   3.738   6.184 -0.3568  0.2450  0.3793
45279SOL    HW140394   5.434   3.687   6.200  0.8055 -2.0042 -0.5514
45279SOL    HW240395   5.500   3.778   6.098  0.2098 -1.7215 -0.6891
45280SOL     OW40396   1.802   9.322   0.288  0.5228  0.4263  0.3613
45280SOL    HW140397   1.792   9.231   0.260  2.2671  0.2565  0.1469
45280SOL    HW240398   1.834   9.316   0.378  1.3678  0.7923  0.0956
45281SOL     OW40399   7.336   9.247   0.315  0.1014  0.0928  0.3489
45281SOL    HW140400   7.249   9.208   0.324  0.1538  0.0059  0.4852
45281SOL    HW240401   7.393   9.174   0.290  0.1421  0.1426  0.2934
45282SOL     OW40402   9.443   7.064  10.047 -0.0449  0.2357 -0.4001
45282SOL    HW140403   9.433   7.017  10.129 -2.9981 -1.4993 -1.5675
45282SOL    HW240404   9.419   7.154  10.067 -0.2274 -0.0581  0.7330
45283SOL     OW40405   4.599   8.996  10.212  1.1497  0.0991  0.0602
45283SOL    HW140406   4.640   9.002  10.126 -0.5388 -0.7359 -0.8607
45283SOL    HW240407   4.505   9.003  10.194  0.7454 -0.3468  1.8123
45284SOL     OW40408   9.529  11.470   8.916 -0.1712  0.2256 -0.3175
45284SOL    HW140409   9.533  11.376   8.904  0.0682  0.2467 -0.4164
45284SOL    HW240410   9.473  11.502   8.846 -0.5396  0.1190 -0.0720
45285SOL     OW40411   9.122  10.450   3.634  0.0945  0.3519 -0.1896
45285SOL    HW140412   9.142  10.474   3.725 -2.0452 -1.8475  0.9866
45285SOL    HW240413   9.108  10.533   3.590  1.2378  1.4914  1.4643
45286SOL     OW40414   4.289  11.748   6.398 -0.2803  0.0169  0.1109
45286SOL    HW140415   4.279  11.744   6.303 -0.4993  0.9151  0.0874
45286SOL    HW240416   4.235  11.676   6.430  1.0778 -1.3263 -0.5135
45287SOL     OW40417   2.895   7.601   4.596 -0.2980 -0.0711 -0.4499
45287SOL    HW140418   2.937   7.618   4.680  1.1146 -1.3730 -0.8476
45287SOL    HW240419   2.935   7.664   4.536 -0.3034 -0.0504 -0.4320
45288SOL     OW40420   7.534   0.411   8.470 -0.4493  0.1452 -0.1297
45288SOL    HW140421   7.574   0.481   8.419 -0.5987  0.1719 -0.2089
45288SOL    HW240422   7.445   0.403   8.435 -0.3635 -0.2279 -0.2671
45289SOL     OW40423   7.453   1.647   9.526 -0.0741 -0.2700 -0.1941
45289SOL    HW140424   7.412   1.682   9.447 -0.0088 -0.3637 -0.2693
45289SOL    HW240425   7.457   1.722   9.586  0.4585 -0.0421 -0.5118
45290SOL     OW40426   3.620  10.675   9.023 -0.1773  0.3037 -0.2126
45290SOL    HW140427   3.539  10.677   9.073 -0.0484 -0.3430  0.0341
45290SOL    HW240428   3.687  10.647   9.086  0.3020  1.1551 -0.3273
45291SOL     OW40429   0.055   6.477   9.835 -0.3208  0.3452 -0.3335
45291SOL    HW140430   0.077   6.519   9.752  0.6083 -0.2056 -0.3752
45291SOL    HW240431  -0.020   6.420   9.815 -0.2113  0.3494 -0.7478
45292SOL     OW40432   8.975   7.336   7.428 -0.2215 -0.2438  0.6646
45292SOL    HW140433   8.998   7.244   7.413 -0.1812  0.0863 -1.7210
45292SOL    HW240434   9.017   7.358   7.511  3.4589 -1.2315 -0.7334
45293SOL     OW40435   3.844   1.763   7.657 -0.1344  0.1748  0.1373
45293SOL    HW140436   3.849   1.787   7.750  0.8735 -1.7629  0.6384
45293SOL    HW240437   3.792   1.832   7.617  1.3176  2.2969  1.7069
45294SOL     OW40438   5.963   5.327  10.157  0.7965  0.6263  0.3366
45294SOL    HW140439   6.039   5.270  10.148  0.6217  0.5619 -0.8952
45294SOL    HW240440   5.911   5.287  10.226 -0.8900 -2.5824 -2.4843
45295SOL     OW40441   9.763  11.364   0.473 -0.2605 -0.0327  0.2512
45295SOL    HW140442   9.750  11.379   0.566 -1.8442  2.4315 -0.2633
45295SOL    HW240443   9.839  11.418   0.451 -0.0985 -0.3411  0.0466
45296SOL     OW40444  11.432   5.734   8.936 -0.3326  0.0912  0.1864
45296SOL    HW140445  11.502   5.719   8.999  0.2352  1.3115 -0.1121
45296SOL    HW240446  11.378   5.656   8.941  0.8867 -0.7605  0.6369
45297SOL     OW40447   0.297   0.274   6.870  0.0029 -0.3107  0.1504
45297SOL    HW140448   0.267   0.341   6.808  0.1051  0.9340  1.3992
45297SOL    HW240449   0.300   0.194   6.818  2.0189  1.0220 -2.0114
45298SOL     OW40450  10.512   8.065   6.275  0.4382 -0.4831 -0.4627
45298SOL    HW140451  10.492   8.068   6.181 -0.9844 -1.2511 -0.2090
45298SOL    HW240452  10.426   8.065   6.318  1.0114 -1.9930  0.7697
45299SOL     OW40453  11.109   7.974   0.470  0.5703 -0.4746 -0.2537
45299SOL    HW140454  11.057   7.949   0.394 -0.3109 -0.4537  0.3222
45299SOL    HW240455  11.083   8.064   0.488  0.7152 -0.5023  0.1129
45300SOL     OW40456   2.512   0.579   1.084  0.7929  0.2704 -0.3821
45300SOL    HW140457   2.587   0.599   1.139  0.4785  1.8771 -0.4992
45300SOL    HW240458   2.509   0.650   1.020 -1.1798  0.5837 -0.0118
45301SOL     OW40459   8.389  12.088   4.726 -0.2924 -0.0571 -0.2789
45301SOL    HW140460   8.304  12.120   4.755  0.1917  0.7365  0.3167
45301SOL    HW240461   8.412  12.020   4.789 -0.5822 -0.4336 -0.5754
45302SOL     OW40462   5.286   2.435   2.701  0.4786  0.9874  0.2008
45302SOL    HW140463   5.286   2.520   2.657 -2.0356  1.6338  1.2797
45302SOL    HW240464   5.328   2.453   2.785  0.0439  1.1598  0.3858
45303SOL     OW40465   3.413   4.943   4.092  0.3499  0.5950 -0.3377
45303SOL    HW140466   3.470   5.017   4.070  0.6754  0.1051 -1.2006
45303SOL    HW240467   3.473   4.870   4.106  0.1202  0.7244  1.6853
45304SOL     OW40468   3.999   8.780   2.439  0.2004 -0.2768  0.0982
45304SOL    HW140469   3.939   8.855   2.447  1.8475  1.0146  1.1795
45304SOL    HW240470   3.944   8.704   2.455 -0.9226  0.9427  2.6290
45305SOL     OW40471   3.360   6.138   4.258 -0.6712  0.4095  0.4504
45305SOL    HW140472   3.277   6.183   4.277 -0.6419  0.7037 -0.0892
45305SOL    HW240473   3.400   6.190   4.189  0.1799  0.5129  1.0117
45306SOL     OW40474   2.978   5.793   8.304 -0.3567 -0.2837 -0.1569
45306SOL    HW140475   3.066   5.826   8.321 -0.4284  0.5852 -1.3691
45306SOL    HW240476   2.920   5.865   8.330 -0.6113 -0.1508 -1.0686
45307SOL     OW40477  12.037   9.437  11.192  0.0539  0.1358  0.8908
45307SOL    HW140478  11.941   9.444  11.186 -0.0469 -1.8006 -0.9575
45307SOL    HW240479  12.069   9.527  11.186 -1.6290  0.7857  1.1318
45308SOL     OW40480   8.140   3.643   9.811 -0.0842  0.2866  0.1234
45308SOL    HW140481   8.108   3.581   9.876  0.8020  2.0387  2.3580
45308SOL    HW240482   8.235   3.629   9.809 -0.1796 -0.3830 -1.5534
45309SOL     OW40483   8.106   0.372   1.244  0.3061  0.1224 -0.1264
45309SOL    HW140484   8.071   0.341   1.161 -0.6227 -0.8300  0.6014
45309SOL    HW240485   8.120   0.293   1.296 -2.4151  0.8327  1.9119
45310SOL     OW40486  10.753   0.345  10.511 -0.0182 -0.0724 -0.6045
45310SOL    HW140487  10.756   0.436  10.480 -0.8260  0.2980  0.3355
45310SOL    HW240488  10.666   0.314  10.486  0.7446 -1.0804 -2.1688
45311SOL     OW40489   6.320  11.229   3.904  0.2049  0.1620  0.4267
45311SOL    HW140490   6.323  11.285   3.826  2.5310  0.6762  0.8269
45311SOL    HW240491   6.299  11.142   3.869  0.0726  0.5934 -0.6254
45312SOL     OW40492   3.016   4.938   5.675 -0.6237  0.2162 -0.6480
45312SOL    HW140493   3.002   5.013   5.732 -0.7214  0.0435 -0.4428
45312SOL    HW240494   2.976   4.864   5.722 -0.6778  0.0674 -0.9246
45313SOL     OW40495   9.551   2.664   3.121 -0.2185 -0.0686  0.2245
45313SOL    HW140496   9.457   2.646   3.111 -0.0497 -0.7099 -0.2933
45313SOL    HW240497   9.568   2.656   3.215 -0.1218 -2.9225  0.0495
45314SOL     OW40498   8.487  10.191   9.410 -0.1071  0.2473 -0.4721
45314SOL    HW140499   8.570  10.146   9.390  0.2772  1.2357 -1.1670
45314SOL    HW240500   8.493  10.210   9.504  0.4699  0.3330 -0.5184
45315SOL     OW40501  10.791   3.810   6.751  0.3061  0.1837  0.1126
45315SOL    HW140502  10.730   3.785   6.682  0.4426 -0.7761  0.3122
45315SOL    HW240503  10.736   3.822   6.828  0.1340  1.4213 -0.1896
45316SOL     OW40504   6.639   3.229  10.225 -0.4305 -0.1126 -0.1327
45316SOL    HW140505   6.594   3.278  10.157  0.2531  0.6245 -0.0753
45316SOL    HW240506   6.727   3.215  10.191  0.2797  1.2507  1.0270
45317SOL     OW40507   9.546   8.541   2.842 -0.1098 -0.3883  0.4923
45317SOL    HW140508   9.633   8.548   2.803 -0.9068 -0.4448 -1.4269
45317SOL    HW240509   9.546   8.603   2.914  1.2337  0.2600 -0.0410
45318SOL     OW40510  10.295   7.112   5.476 -0.0629  0.1774 -0.0252
45318SOL    HW140511  10.347   7.137   5.400  1.5917 -1.1512  0.6114
45318SOL    HW240512  10.254   7.029   5.450 -1.2592  0.8036 -0.2208
45319SOL     OW40513  10.512   0.473   2.247 -0.0674  0.0377  0.4446
45319SOL    HW140514  10.423   0.451   2.218 -0.7885  1.8344  1.1209
45319SOL    HW240515  10.499   0.518   2.331  1.6148 -0.9279  1.2869
45320SOL     OW40516   9.789   8.841   5.859  0.0590 -0.3633 -0.5821
45320SOL    HW140517   9.756   8.880   5.939 -1.2786 -1.4145 -0.5853
45320SOL    HW240518   9.858   8.901   5.829 -1.5412  1.7141 -0.3264
45321SOL     OW40519   8.245   7.855   7.350 -0.0691  0.5159 -0.4678
45321SOL    HW140520   8.220   7.862   7.443  0.4688 -1.8106 -0.0924
45321SOL    HW240521   8.299   7.932   7.334  0.0420  0.8346  1.2327
45322SOL     OW40522   8.407   6.969   0.924  0.1585 -0.4551  0.1148
45322SOL    HW140523   8.413   6.879   0.958 -1.0279 -0.3111  0.7459
45322SOL    HW240524   8.359   7.017   0.991 -0.7396  0.2486 -0.9871
45323SOL     OW40525   0.635   3.451   2.637 -0.5207  0.8155  0.4745
45323SOL    HW140526   0.676   3.481   2.719  2.5821 -1.7630  0.0971
45323SOL    HW240527   0.685   3.493   2.568 -0.4937 -0.0260 -0.0404
45324SOL     OW40528  10.490  11.051   7.948 -0.7350 -0.5553 -0.1157
45324SOL    HW140529  10.504  11.069   8.041 -0.2095  0.5743 -0.3994
45324SOL    HW240530  10.495  11.136   7.906 -1.8486 -0.9416 -1.0863
45325SOL     OW40531   9.472   9.150   1.114 -0.0601  0.8294 -0.9457
45325SOL    HW140532   9.438   9.222   1.167  0.1343  0.5012 -0.3613
45325SOL    HW240533   9.414   9.147   1.037  0.2671  1.9575 -1.2569
45326SOL     OW40534  10.739   3.553   0.574  0.1956 -0.0274 -0.1110
45326SOL    HW140535  10.747   3.480   0.636 -0.8709 -1.6699 -1.7757
45326SOL    HW240536  10.805   3.535   0.508 -1.1013 -0.4031 -1.3609
45327SOL     OW40537  11.250   8.541   2.114  0.1521 -0.3381 -0.0711
45327SOL    HW140538  11.288   8.629   2.119 -1.4506  0.3181  2.5284
45327SOL    HW240539  11.180   8.549   2.049  2.4516 -0.8312 -2.7955
45328SOL     OW40540   5.353   8.797   1.770 -0.1678 -0.1780 -0.3666
45328SOL    HW140541   5.370   8.872   1.827 -0.7822 -0.5980  0.3905
45328SOL    HW240542   5.431   8.743   1.779 -1.4567 -1.7915  2.6070
45329SOL     OW40543   3.170   6.829  11.322 -0.0879 -0.9865 -0.3278
45329SOL    HW140544   3.254   6.809  11.363 -0.8324 -1.9770  0.7870
45329SOL    HW240545   3.184   6.913  11.278  1.2744 -0.7943  0.4177
45330SOL     OW40546   1.947   7.221   5.548 -0.1974  0.3159  0.1514
45330SOL    HW140547   2.023   7.278   5.539 -0.2540  0.2972 -0.5582
45330SOL    HW240548   1.982   7.132   5.542 -0.2751  0.3080 -0.2444
45331SOL     OW40549   9.094   7.757   1.313 -0.5026 -0.0546  0.1273
45331SOL    HW140550   9.004   7.754   1.347 -1.0968  1.4933 -1.2131
45331SOL    HW240551   9.100   7.680   1.256 -0.6011 -0.7580  1.0351
45332SOL     OW40552  11.093  11.706   6.455 -0.0720  0.0849  0.2501
45332SOL    HW140553  11.160  11.672   6.397 -1.9844 -0.6894 -1.6302
45332SOL    HW240554  11.118  11.797   6.470  0.7840  0.1308 -1.3269
45333SOL     OW40555   0.971   0.297  11.456 -0.0727  0.7836 -0.6315
45333SOL    HW140556   0.885   0.268  11.486  0.0074 -2.4204 -2.9301
45333SOL    HW240557   1.033   0.237  11.499  0.6922  1.0816 -1.2778
45334SOL     OW40558   5.001   9.897  10.741  0.0947  0.2706  0.4656
45334SOL    HW140559   5.050   9.932  10.815 -0.0040  2.2750 -0.3713
45334SOL    HW240560   4.909   9.906  10.767  0.0712 -1.7793  1.2705
45335SOL     OW40561   1.277   8.972   1.140  0.4060 -0.4803  0.0873
45335SOL    HW140562   1.302   9.058   1.174 -0.3064  0.0278 -0.6156
45335SOL    HW240563   1.188   8.959   1.171  0.3739 -0.7935 -0.1338
45336SOL     OW40564   4.987   7.320   6.811  0.5997 -0.2353  0.1049
45336SOL    HW140565   4.935   7.400   6.822  1.3330  0.0468  1.7506
45336SOL    HW240566   5.047   7.340   6.739 -1.6480 -0.6656 -2.0513
45337SOL     OW40567   2.472   5.601   8.098  0.7604 -0.5304 -0.2392
45337SOL    HW140568   2.385   5.597   8.137  0.2718 -0.2702 -1.2677
45337SOL    HW240569   2.532   5.592   8.172 -0.0892  1.7492  0.8098
45338SOL     OW40570  10.146   6.251   2.258  0.0934  0.3519 -0.1098
45338SOL    HW140571  10.152   6.314   2.186  0.3301 -0.7241 -1.0592
45338SOL    HW240572  10.176   6.168   2.220  0.9663 -0.0799  1.4434
45339SOL     OW40573   3.045   4.899   3.077 -0.3986  0.5268 -0.0637
45339SOL    HW140574   3.027   4.976   3.132 -0.9638  2.3702 -2.6025
45339SOL    HW240575   3.104   4.932   3.010 -0.4074 -1.3799 -1.0591
45340SOL     OW40576   6.777   7.545   3.742  0.0139 -0.4766  0.4019
45340SOL    HW140577   6.758   7.639   3.733 -1.9303 -0.8729  0.0303
45340SOL    HW240578   6.724   7.516   3.816 -0.6840 -1.5958 -0.5037
45341SOL     OW40579   3.640   0.503   8.519  0.4026 -0.5961 -0.4437
45341SOL    HW140580   3.661   0.414   8.490  1.3400 -0.4671 -0.2076
45341SOL    HW240581   3.714   0.527   8.575 -0.3510 -0.0575  0.3448
45342SOL     OW40582   2.315  11.771   9.713 -0.3064 -0.8391  0.0982
45342SOL    HW140583   2.389  11.768   9.773 -1.8056  0.0956  2.1254
45342SOL    HW240584   2.292  11.680   9.699  1.2684 -1.1547 -0.6980
45343SOL     OW40585  11.593   0.352   1.848 -0.4665 -0.5166  0.2073
45343SOL    HW140586  11.544   0.308   1.917  1.1237 -0.2968  1.5452
45343SOL    HW240587  11.535   0.423   1.819 -0.4221  0.7187  2.8154
45344SOL     OW40588   2.827   0.697   3.172  0.1237  0.6943  0.1584
45344SOL    HW140589   2.740   0.737   3.171 -0.0864  0.2336 -0.2596
45344SOL    HW240590   2.857   0.709   3.263 -0.5925  0.3899  0.4418
45345SOL     OW40591   2.770   5.794   2.023 -0.1131  0.4062 -0.6201
45345SOL    HW140592   2.788   5.707   1.987  0.1489  1.2185 -2.5679
45345SOL    HW240593   2.856   5.826   2.050 -0.1999  0.0968  0.0351
45346SOL     OW40594   1.854  11.056   9.119 -0.4790 -0.7723 -0.2041
45346SOL    HW140595   1.869  10.981   9.177 -1.1631 -0.7865 -0.0430
45346SOL    HW240596   1.800  11.116   9.170 -0.3025 -0.3641 -0.4913
45347SOL     OW40597  10.374   6.753   1.128  0.1137  0.0030 -0.5918
45347SOL    HW140598  10.361   6.732   1.035 -0.4108 -1.2722 -0.2517
45347SOL    HW240599  10.464   6.784   1.133 -0.3273  1.5755 -1.7648
45348SOL     OW40600   8.214   8.466   4.944  0.2892  0.0398 -0.0053
45348SOL    HW140601   8.267   8.464   5.024  0.4515 -0.0335 -0.1158
45348SOL    HW240602   8.167   8.383   4.945  2.6216 -1.4201 -1.5736
45349SOL     OW40603  10.240   6.751   5.112 -0.1592 -0.4361  0.0227
45349SOL    HW140604  10.292   6.826   5.139 -1.7940  0.2185  1.6200
45349SOL    HW240605  10.284   6.675   5.150 -0.0448  0.0351  0.8395
45350SOL     OW40606   4.978   7.988   5.387 -0.8897 -0.3993  0.3043
45350SOL    HW140607   4.979   7.919   5.454  1.5420 -0.1941  0.5738
45350SOL    HW240608   4.953   8.067   5.434 -2.2016 -0.7973  0.3068
45351SOL     OW40609   5.471  10.434   5.866  0.2534  0.0733 -0.5375
45351SOL    HW140610   5.424  10.352   5.885 -0.0739  0.4451  0.2939
45351SOL    HW240611   5.563  10.410   5.871  0.1828 -0.0175  0.8592
45352SOL     OW40612   5.362   1.241   4.191 -0.0448 -0.9307  0.1234
45352SOL    HW140613   5.437   1.216   4.138  0.8859 -0.9440  1.3878
45352SOL    HW240614   5.346   1.333   4.170  0.4217 -0.8906 -0.0477
45353SOL     OW40615   7.336   9.567   0.750  0.0248  0.0820  0.8701
45353SOL    HW140616   7.251   9.529   0.773  0.4667  0.6801  3.9231
45353SOL    HW240617   7.381   9.499   0.701 -1.3733 -1.0948  1.1601
45354SOL     OW40618   6.905  10.655   9.516  0.2805 -0.2938 -0.1452
45354SOL    HW140619   6.954  10.589   9.565 -0.8141 -2.3592 -1.6793
45354SOL    HW240620   6.946  10.655   9.429 -1.0697 -0.5460 -0.8018
45355SOL     OW40621  11.176   1.671   5.586 -0.0966 -0.1582  0.3058
45355SOL    HW140622  11.156   1.709   5.672 -0.6188 -2.2755  1.1897
45355SOL    HW240623  11.094   1.631   5.558  0.6794 -1.5421 -0.0592
45356SOL     OW40624   8.774   3.959  10.672 -0.1071  0.0266 -0.1379
45356SOL    HW140625   8.694   3.922  10.635  1.8021 -1.6636 -3.0319
45356SOL    HW240626   8.787   3.911  10.754  0.1745 -3.0708 -1.8349
45357SOL     OW40627   9.332  11.848   9.676 -0.3567  0.2397 -0.1039
45357SOL    HW140628   9.289  11.887   9.752 -1.2292  0.0695 -0.5039
45357SOL    HW240629   9.343  11.919   9.614  2.2319  0.8734  0.9283
45358SOL     OW40630   7.223   3.714  11.385 -0.3273  0.2487  0.0980
45358SOL    HW140631   7.129   3.699  11.396 -0.3478 -0.3750 -0.7754
45358SOL    HW240632   7.229   3.795  11.335 -0.3761  0.6154  0.6811
45359SOL     OW40633  11.368   9.853   1.982 -0.0978  0.4039  0.0584
45359SOL    HW140634  11.277   9.876   1.965 -0.4818 -0.7319  0.5123
45359SOL    HW240635  11.403   9.929   2.029 -1.0391  0.4968  0.6258
45360SOL     OW40636   1.758   7.488   3.975 -0.2236  0.6486  0.2670
45360SOL    HW140637   1.664   7.481   3.960  0.2264  1.0922 -3.8602
45360SOL    HW240638   1.779   7.579   3.952  1.3924  0.2148 -0.0649
45361SOL     OW40639   7.524   8.280  11.482  0.5294 -0.2693 -0.3959
45361SOL    HW140640   7.544   8.187  11.490 -1.5568 -0.8585 -1.2402
45361SOL    HW240641   7.471   8.300  11.559 -0.8512 -0.3798 -1.2713
45362SOL     OW40642  12.070   2.527   9.880  0.2665  0.1410 -0.2626
45362SOL    HW140643  12.007   2.557   9.815 -0.5118  0.1865  0.5026
45362SOL    HW240644  12.148   2.505   9.829 -0.2737  0.3249 -1.1890
45363SOL     OW40645   9.001  10.052   5.386 -0.4195 -0.3222 -0.0302
45363SOL    HW140646   8.963   9.972   5.424  3.1689 -1.8316  0.7794
45363SOL    HW240647   9.081  10.067   5.437  0.6090  2.0504 -2.1516
45364SOL     OW40648   1.846  11.969   9.112  0.5613 -0.1759  0.4402
45364SOL    HW140649   1.927  11.950   9.160  0.4667  1.0159  1.1117
45364SOL    HW240650   1.868  11.950   9.021  1.9450  1.0998  0.4630
45365SOL     OW40651   3.539   6.278   7.701  0.1333 -0.4776 -0.2838
45365SOL    HW140652   3.480   6.337   7.748  1.4397  0.1852  0.5846
45365SOL    HW240653   3.586   6.231   7.770 -0.6064 -2.3027 -0.9575
45366SOL     OW40654  11.947   5.123  10.555  0.1877  0.2576  0.3570
45366SOL    HW140655  11.951   5.047  10.496  0.0607  0.2084  0.4118
45366SOL    HW240656  11.871   5.106  10.611 -1.0730  1.3649 -0.9206
45367SOL     OW40657   0.183   9.965   4.869  0.5204  0.3285 -0.0589
45367SOL    HW140658   0.152   9.875   4.882  1.5283 -0.1882 -1.0209
45367SOL    HW240659   0.103  10.017   4.861 -0.1065 -0.6942 -0.7844
45368SOL     OW40660   1.879   2.871   8.615  0.4622 -0.2285 -0.3495
45368SOL    HW140661   1.802   2.919   8.586 -0.3916 -1.5526 -0.3744
45368SOL    HW240662   1.937   2.869   8.539 -0.5914 -1.3697 -1.1624
45369SOL     OW40663   4.440  10.495   2.521 -0.2754 -0.2764 -0.3652
45369SOL    HW140664   4.530  10.485   2.551 -0.0368  1.4775 -0.3756
45369SOL    HW240665   4.403  10.407   2.526  0.9466 -0.7508  1.2024
45370SOL     OW40666   1.279   2.615   4.142 -0.3019  0.7956  0.4194
45370SOL    HW140667   1.306   2.525   4.158  2.1095  1.2468 -0.6411
45370SOL    HW240668   1.318   2.666   4.213 -1.3972  1.0809  0.8472
45371SOL     OW40669   5.891   3.923   3.022  0.1280  0.0384 -0.2611
45371SOL    HW140670   5.922   3.916   2.932 -1.7658 -1.6287 -0.8856
45371SOL    HW240671   5.796   3.906   3.016 -0.2672  1.0706  1.9109
45372SOL     OW40672   2.144   2.482   1.228  0.0626 -0.0662  0.3613
45372SOL    HW140673   2.155   2.391   1.198  0.2965  0.0502  0.0860
45372SOL    HW240674   2.162   2.535   1.150 -2.0711  0.1746 -0.0097
45373SOL     OW40675   9.117  12.108   9.666 -0.7610 -0.1624  0.4016
45373SOL    HW140676   9.086  12.081   9.580  0.9411 -1.2015  0.0801
45373SOL    HW240677   9.050  12.075   9.727 -1.2229 -0.7282 -0.4024
45374SOL     OW40678   6.327   5.215   9.910 -0.2620 -0.2992 -0.1714
45374SOL    HW140679   6.395   5.228   9.976 -1.8294  1.6302  1.1596
45374SOL    HW240680   6.369   5.239   9.827  1.2487 -1.1888  0.2983
45375SOL     OW40681   2.299   2.106   6.632  0.0826 -0.1680  0.2655
45375SOL    HW140682   2.239   2.180   6.639  0.8081  0.6758 -1.6430
45375SOL    HW240683   2.256   2.035   6.679  0.2209  1.9173  3.8968
45376SOL     OW40684  10.362   1.105   8.529 -0.4537  0.1382  0.7702
45376SOL    HW140685  10.425   1.176   8.537  0.3157 -0.5366  0.8505
45376SOL    HW240686  10.286   1.144   8.486  0.2784  0.8018  0.0704
45377SOL     OW40687   9.145   3.113   8.999 -0.4620  0.2597 -0.2866
45377SOL    HW140688   9.227   3.136   9.043  0.1412  1.3685 -1.9016
45377SOL    HW240689   9.081   3.106   9.070  1.0971 -1.0894  1.0502
45378SOL     OW40690   5.940  10.815  11.179  0.3429 -0.2338 -0.6712
45378SOL    HW140691   5.863  10.813  11.122 -0.0776  0.5785 -0.1634
45378SOL    HW240692   5.934  10.734  11.230 -1.0330  0.4908  0.4086
45379SOL     OW40693  11.716   1.566   3.857 -0.3710 -0.2707  0.3664
45379SOL    HW140694  11.656   1.493   3.839  0.7261 -0.9373 -0.6924
45379SOL    HW240695  11.679   1.640   3.809  0.0065 -0.8612 -0.8798
45380SOL     OW40696   5.481   2.416   9.538  0.1593 -0.0639  0.4593
45380SOL    HW140697   5.423   2.384   9.469  0.7093 -2.8702  1.1562
45380SOL    HW240698   5.569   2.409   9.500  0.5851 -2.7825  1.6850
45381SOL     OW40699   3.287   8.671  10.095  0.1966  0.0509  0.1511
45381SOL    HW140700   3.288   8.611  10.021  2.4030  0.7813 -0.4953
45381SOL    HW240701   3.250   8.752  10.060 -1.8098 -0.5480  0.7556
45382SOL     OW40702   7.205   5.781   2.661  0.0320  0.1116 -0.1094
45382SOL    HW140703   7.237   5.828   2.585  0.7782 -0.3188 -0.0738
45382SOL    HW240704   7.252   5.820   2.735  1.2833 -1.1931 -0.1662
45383SOL     OW40705   1.633   9.739   8.499  0.2325 -0.0217  0.2309
45383SOL    HW140706   1.538   9.744   8.488  0.2968  0.1991 -0.2745
45383SOL    HW240707   1.650   9.649   8.526  0.0561 -0.6786 -1.7001
45384SOL     OW40708   8.822  11.215   0.755 -0.2388  0.0547 -0.0287
45384SOL    HW140709   8.896  11.271   0.732 -1.1098  2.6841  2.8441
45384SOL    HW240710   8.848  11.173   0.838 -1.9393  1.1821  1.1355
45385SOL     OW40711  11.540   2.964  10.550 -0.2233  0.2279  0.2954
45385SOL    HW140712  11.475   2.948  10.482 -1.6932  2.0146  1.1807
45385SOL    HW240713  11.598   2.888  10.547 -1.5662 -0.7915 -1.4219
45386SOL     OW40714   4.310   8.612   2.287 -0.3136  0.7339  0.4084
45386SOL    HW140715   4.397   8.573   2.286 -0.0844  1.2267  0.6749
45386SOL    HW240716   4.301   8.647   2.376 -2.2376 -2.5279  1.6900
45387SOL     OW40717   8.797   5.979   2.238  0.1121 -0.4047  0.2389
45387SOL    HW140718   8.846   5.956   2.317  1.0809 -0.9202 -0.4817
45387SOL    HW240719   8.709   6.001   2.269  0.4199 -0.8001  1.4315
45388SOL     OW40720   6.082   0.562   3.569 -0.5044 -0.1649  0.7511
45388SOL    HW140721   6.053   0.551   3.659 -0.5728 -1.2275  0.6055
45388SOL    HW240722   6.001   0.565   3.518 -0.4934  1.0646  0.7749
45389SOL     OW40723   2.792   7.181  10.355 -0.2860 -0.1135 -0.4348
45389SOL    HW140724   2.719   7.216  10.406 -0.4144 -1.6274  0.4571
45389SOL    HW240725   2.842   7.128  10.416  1.8321  1.1759 -0.9242
45390SOL     OW40726  12.053   0.611   8.615  0.7044  0.1125  0.3958
45390SOL    HW140727  12.041   0.644   8.526  3.1203  0.5589  0.1814
45390SOL    HW240728  12.040   0.517   8.608  4.2541 -0.4162 -1.2568
45391SOL     OW40729   6.301   8.624   8.777  0.5679  0.2989  0.4380
45391SOL    HW140730   6.396   8.612   8.778  0.9254  2.5273  2.6466
45391SOL    HW240731   6.267   8.545   8.820  1.4355 -0.2318  0.1806
45392SOL     OW40732   6.691   7.774   4.096 -0.0925 -0.4185 -0.4802
45392SOL    HW140733   6.748   7.840   4.058  0.4323 -0.7866 -0.3402
45392SOL    HW240734   6.626   7.824   4.145  1.2824 -0.0154  1.0175
45393SOL     OW40735   2.958  11.131   5.282  0.1561  0.9474 -0.0219
45393SOL    HW140736   2.943  11.042   5.313 -1.6807  0.7619 -1.3089
45393SOL    HW240737   2.997  11.119   5.195  1.1865  1.4297  0.3594
45394SOL     OW40738   4.230   1.317   5.047  0.4925  0.2317 -0.1155
45394SOL    HW140739   4.181   1.399   5.042  1.0755  0.6431  0.7850
45394SOL    HW240740   4.302   1.329   4.984  0.1159  0.0804 -0.5840
45395SOL     OW40741   7.569   7.083   9.227  0.0994 -0.1461 -0.3784
45395SOL    HW140742   7.527   7.163   9.193  0.6921 -0.0741 -0.9605
45395SOL    HW240743   7.503   7.015   9.214  0.0391  0.0208 -1.0162
45396SOL     OW40744   6.025   1.602  11.246 -0.2573 -0.0394 -0.3468
45396SOL    HW140745   6.092   1.649  11.295 -0.3838 -0.4440  0.2244
45396SOL    HW240746   6.024   1.645  11.160  1.8714 -1.0459 -0.9520
45397SOL     OW40747  10.024   8.562   1.812  0.4969  0.0371  0.1931
45397SOL    HW140748  10.041   8.580   1.720  2.3148 -0.0416  0.4757
45397SOL    HW240749  10.026   8.648   1.855 -0.1718  0.0569  0.1963
45398SOL     OW40750   9.691   8.083   3.588 -0.4445 -0.1699 -0.3531
45398SOL    HW140751   9.608   8.121   3.619  0.1660  0.4276  0.5873
45398SOL    HW240752   9.677   7.989   3.591 -0.5526 -0.1224  1.3843
45399SOL     OW40753   7.981   0.606   2.708  0.5268  0.2804  0.2301
45399SOL    HW140754   7.987   0.617   2.613  1.9028  0.5336  0.3155
45399SOL    HW240755   7.942   0.688   2.740 -1.5801 -0.4933 -0.2359
45400SOL     OW40756   4.079   6.270   4.274 -0.1158 -0.5620  0.5629
45400SOL    HW140757   4.044   6.331   4.210 -1.5525 -0.9342  0.9680
45400SOL    HW240758   4.173   6.289   4.277 -0.2413  0.3267 -0.6914
45401SOL     OW40759  11.934   3.823   7.977  0.2760  0.7651 -1.1298
45401SOL    HW140760  11.939   3.872   7.896  1.0335 -0.8751 -2.1207
45401SOL    HW240761  12.024   3.813   8.006 -0.0755  2.9816  1.0092
45402SOL     OW40762   7.193   2.227   2.937  0.0254 -0.4558  0.6955
45402SOL    HW140763   7.195   2.318   2.968 -2.8331 -0.3666  0.9190
45402SOL    HW240764   7.272   2.187   2.973  1.3788  1.9289  0.5487
45403SOL     OW40765   0.073   6.861   1.289  0.5398 -0.4379 -0.1242
45403SOL    HW140766   0.016   6.926   1.330 -0.0611 -0.4024 -0.9974
45403SOL    HW240767   0.081   6.890   1.198  2.7513  0.1066  0.1779
45404SOL     OW40768  11.983   8.667   1.496  0.2310  0.1101 -0.1322
45404SOL    HW140769  12.077   8.683   1.505  0.8500 -2.5119 -1.1548
45404SOL    HW240770  11.964   8.604   1.565 -0.1820 -1.3858 -1.5736
45405SOL     OW40771   0.386   6.771   4.206 -0.1899 -0.0534 -0.6377
45405SOL    HW140772   0.342   6.754   4.123 -0.6021 -2.4792 -0.0075
45405SOL    HW240773   0.462   6.712   4.205  0.1251  0.3076  0.4601
45406SOL     OW40774   4.143   7.090   3.099  0.0904 -0.1591  0.6185
45406SOL    HW140775   4.062   7.054   3.133 -1.1628  1.5051 -0.4591
45406SOL    HW240776   4.122   7.180   3.076  1.0721 -0.7691 -3.4943
45407SOL     OW40777   3.908   8.700   8.165 -0.4953  0.8017 -0.3102
45407SOL    HW140778   3.918   8.637   8.094  0.1098 -0.4055  0.7935
45407SOL    HW240779   3.967   8.772   8.142  1.5909 -0.6824  0.1132
45408SOL     OW40780   7.915   2.454   4.330 -0.5814 -0.1481  0.1305
45408SOL    HW140781   7.823   2.476   4.316 -0.5145  0.9393  1.2309
45408SOL    HW240782   7.935   2.390   4.262 -1.9081  0.2584 -0.6806
45409SOL     OW40783   9.000   6.811   0.206 -0.1012 -0.2886  0.5689
45409SOL    HW140784   9.017   6.776   0.294  1.0356 -1.1542  0.0369
45409SOL    HW240785   9.020   6.738   0.147  1.3611  0.9287 -0.5336
45410SOL     OW40786   9.744   7.962   9.751 -0.5876 -0.4508 -0.4164
45410SOL    HW140787   9.739   8.037   9.810  0.7719 -0.6548 -0.0043
45410SOL    HW240788   9.830   7.923   9.770 -1.2481 -2.0710 -0.6615
45411SOL     OW40789   8.416   8.723   9.449  0.2197 -0.1604 -0.2833
45411SOL    HW140790   8.347   8.753   9.390 -0.3223 -1.5635 -0.4047
45411SOL    HW240791   8.370   8.675   9.517  0.8677  1.2328  1.1937
45412SOL     OW40792   0.106   3.969   2.015  0.0337 -0.0042  0.0738
45412SOL    HW140793   0.126   3.876   2.010  2.4416  0.4818 -1.5330
45412SOL    HW240794   0.124   3.993   2.106 -1.5941 -1.2363  0.7616
45413SOL     OW40795   3.941  10.579   4.635  0.3176  0.8323 -0.0359
45413SOL    HW140796   3.898  10.513   4.691 -1.0682 -0.1243 -2.0872
45413SOL    HW240797   4.014  10.532   4.595 -1.4432 -0.0028 -2.5209
45414SOL     OW40798   0.498  10.792   4.209  0.7571  0.2336 -0.0341
45414SOL    HW140799   0.537  10.844   4.280  0.6690 -1.1126  1.0295
45414SOL    HW240800   0.469  10.712   4.251 -0.2703 -0.1521 -1.4192
45415SOL     OW40801   9.560   6.287   9.236 -0.5181  0.7276  0.2897
45415SOL    HW140802   9.506   6.343   9.181 -0.1565  0.0836 -0.7568
45415SOL    HW240803   9.632   6.258   9.179 -0.2304 -0.1062  1.0360
45416SOL     OW40804   3.427   4.109   7.049 -0.9383  0.4740  0.6476
45416SOL    HW140805   3.333   4.104   7.029 -0.6516  1.7559 -1.2443
45416SOL    HW240806   3.470   4.068   6.974  0.0699  1.5552  0.6006
45417SOL     OW40807   3.415   5.675  11.663  0.0551  0.0124 -0.0043
45417SOL    HW140808   3.405   5.681  11.568 -0.1030  2.3419  0.1011
45417SOL    HW240809   3.366   5.749  11.697 -0.2896 -1.0499  1.9628
45418SOL     OW40810   0.537   1.183  11.192 -0.1439 -0.0433  0.2221
45418SOL    HW140811   0.570   1.116  11.253  1.7212  0.5645 -0.0777
45418SOL    HW240812   0.508   1.133  11.116 -0.0472 -0.6150  0.5486
45419SOL     OW40813  11.937   7.042  11.966  0.3407  0.2746  0.2625
45419SOL    HW140814  11.878   7.117  11.957  0.7752  0.7938  1.5508
45419SOL    HW240815  12.013   7.066  11.914  0.6932  0.9748  1.0740
45420SOL     OW40816   7.669   1.479   1.604  0.8300 -0.4751 -0.6865
45420SOL    HW140817   7.665   1.533   1.683 -0.7829 -1.9624  0.3239
45420SOL    HW240818   7.759   1.446   1.602  1.0119 -0.0757  0.2782
45421SOL     OW40819   0.206   4.205  11.191  0.9248  0.1653 -0.3577
45421SOL    HW140820   0.132   4.172  11.139  1.4673  0.3618 -1.2632
45421SOL    HW240821   0.224   4.291  11.155  0.7631  0.6687  0.7321
45422SOL     OW40822   1.154  10.928  10.241  0.1556 -0.3859 -0.9350
45422SOL    HW140823   1.134  10.959  10.330 -0.6986  1.2336 -1.6549
45422SOL    HW240824   1.164  10.833  10.251  2.4858 -0.0075  1.2884
45423SOL     OW40825  11.860   9.533   0.193  0.3503 -0.2477  0.5040
45423SOL    HW140826  11.831   9.603   0.252  1.3785 -1.5552  2.7135
45423SOL    HW240827  11.800   9.460   0.211  1.0318 -0.8581  0.3702
45424SOL     OW40828   1.200   5.600   5.593  0.4633  0.5011  0.2713
45424SOL    HW140829   1.166   5.636   5.511 -1.5576  1.6648  1.5187
45424SOL    HW240830   1.286   5.641   5.604  0.8200  0.2205 -1.2902
45425SOL     OW40831   6.514   3.076   4.487  0.3878 -0.4757 -0.2410
45425SOL    HW140832   6.505   3.133   4.563 -0.0766  0.1815 -0.7795
45425SOL    HW240833   6.429   3.033   4.479  0.3776 -0.4119 -0.4887
45426SOL     OW40834  10.505  11.776   0.915 -0.0900  0.2692 -0.1963
45426SOL    HW140835  10.474  11.693   0.951 -2.1163  0.8443 -0.5114
45426SOL    HW240836  10.483  11.772   0.822 -3.0854  2.2887  0.2650
45427SOL     OW40837   0.708   3.612  10.634 -0.0026  0.5148 -0.2147
45427SOL    HW140838   0.699   3.532  10.582 -0.9120  1.0684 -0.9347
45427SOL    HW240839   0.627   3.618  10.684  0.8505 -0.0034  1.3189
45428SOL     OW40840   7.279   0.482   8.697  0.7507 -0.2176 -0.0544
45428SOL    HW140841   7.241   0.478   8.785 -0.1400  1.5427 -0.3156
45428SOL    HW240842   7.309   0.392   8.680 -1.7948 -1.3391  0.8356
45429SOL     OW40843   6.055  11.196  11.462 -0.2587 -0.2584 -0.0124
45429SOL    HW140844   6.068  11.283  11.501 -0.5920 -0.4933  0.6278
45429SOL    HW240845   5.974  11.205  11.412  0.8689  0.4389 -1.8270
45430SOL     OW40846   2.212   6.625   7.434  0.4536  0.6220 -0.4341
45430SOL    HW140847   2.186   6.697   7.491 -1.3338  0.3755 -0.8551
45430SOL    HW240848   2.195   6.657   7.345  0.0660 -0.1298 -0.6486
45431SOL     OW40849   2.735   1.309  11.998 -0.2611  0.5461  0.5091
45431SOL    HW140850   2.759   1.348  11.914  0.6298 -1.8466 -0.4223
45431SOL    HW240851   2.774   1.368  12.063 -1.6198  2.8628 -0.6616
45432SOL     OW40852  11.857   7.653   3.163 -0.2888 -0.3598  0.0118
45432SOL    HW140853  11.935   7.685   3.118  0.6410 -1.6008  0.6891
45432SOL    HW240854  11.890   7.594   3.230 -1.7599 -0.0732  1.0411
45433SOL     OW40855   4.654  10.442   1.746 -0.0839  0.1023 -0.2828
45433SOL    HW140856   4.660  10.452   1.651 -1.0697 -0.0409 -0.3743
45433SOL    HW240857   4.654  10.347   1.760  0.5069  0.1241 -0.0965
45434SOL     OW40858   1.086   8.664  10.816 -0.3109 -0.4923 -0.3488
45434SOL    HW140859   1.144   8.682  10.890 -1.3405 -0.0118  0.3729
45434SOL    HW240860   1.009   8.625  10.856 -0.7358 -0.5567 -1.2180
45435SOL     OW40861   3.544   7.096   8.849 -0.0733  0.4318 -0.6357
45435SOL    HW140862   3.637   7.107   8.831 -0.2926  0.6134 -1.6675
45435SOL    HW240863   3.499   7.134   8.774 -1.0706  3.0089  1.1282
45436SOL     OW40864   3.689   5.414   9.319 -0.1039  0.0720 -0.3115
45436SOL    HW140865   3.599   5.417   9.287 -0.2164 -0.0848 -0.0176
45436SOL    HW240866   3.720   5.504   9.313  0.2909 -0.1333 -1.9870
45437SOL     OW40867   5.098   0.774   8.723  0.1337  0.3279  0.6708
45437SOL    HW140868   5.087   0.846   8.785  1.1459 -0.1184  1.3886
45437SOL    HW240869   5.191   0.753   8.725 -0.2361 -1.4571  0.9971
45438SOL     OW40870   9.261   4.794   6.500 -0.1959 -0.4596  0.1423
45438SOL    HW140871   9.354   4.800   6.477 -0.5182 -1.7146 -1.6737
45438SOL    HW240872   9.259   4.744   6.581  0.9123  3.1694  2.6942
45439SOL     OW40873   8.248   4.607   7.871  0.0676 -0.1919  0.2195
45439SOL    HW140874   8.340   4.613   7.847  0.4005  0.2401  1.5231
45439SOL    HW240875   8.240   4.661   7.950 -0.7132 -2.3140  1.6905
45440SOL     OW40876   5.228   1.440  10.212 -0.7444  0.4054  0.1047
45440SOL    HW140877   5.191   1.472  10.295  0.1058  1.3936  0.1183
45440SOL    HW240878   5.227   1.516  10.154  0.3405  0.2056 -0.2061
45441SOL     OW40879  10.764   6.284   4.283  0.0957 -0.0335  0.3187
45441SOL    HW140880  10.774   6.375   4.309 -0.5090  0.2078 -0.2648
45441SOL    HW240881  10.853   6.252   4.271  0.2929  0.8828 -0.8166
45442SOL     OW40882   6.623   0.778  10.032 -0.5810 -0.3912  0.2508
45442SOL    HW140883   6.630   0.778   9.936 -0.3347  0.3976  0.2628
45442SOL    HW240884   6.587   0.692  10.053  1.7577 -1.6168 -0.3828
45443SOL     OW40885   0.146   8.752   0.878 -0.3349 -0.3443 -0.1656
45443SOL    HW140886   0.183   8.700   0.949  0.7130 -0.0590 -0.4829
45443SOL    HW240887   0.087   8.813   0.922  1.2796  0.7096  0.6541
45444SOL     OW40888   7.001   5.383  10.572  0.5165  0.6852  0.3201
45444SOL    HW140889   6.997   5.375  10.667  0.6423 -4.1867  0.1680
45444SOL    HW240890   7.094   5.391  10.552  0.9658 -2.4534  0.6501
45445SOL     OW40891   8.379  10.005  10.531 -0.3344 -0.0144  0.2510
45445SOL    HW140892   8.374   9.962  10.616  1.2885  0.4253  0.5928
45445SOL    HW240893   8.456   9.968  10.489  0.1915  1.3798 -0.0858
45446SOL     OW40894  10.825   0.304   0.245  0.1567 -0.2840 -0.2173
45446SOL    HW140895  10.752   0.364   0.234  0.5328  0.0669 -0.8728
45446SOL    HW240896  10.903   0.357   0.228  0.5039 -0.9283 -0.7196
45447SOL     OW40897   2.439  10.927   6.900 -0.5334 -0.0800  0.0298
45447SOL    HW140898   2.447  10.868   6.975 -0.2170 -0.6030 -0.4013
45447SOL    HW240899   2.527  10.931   6.863 -0.3954  1.2245  0.4500
45448SOL     OW40900   5.654   9.266   7.042  0.1154  0.0967  0.1042
45448SOL    HW140901   5.648   9.276   7.137 -2.4151 -3.3953  0.4923
45448SOL    HW240902   5.725   9.204   7.028  0.7612  0.9143 -0.3917
45449SOL     OW40903   2.088   7.248   2.670  0.0232 -0.3561  0.6742
45449SOL    HW140904   2.046   7.191   2.605 -0.7591  0.1329  0.7355
45449SOL    HW240905   2.145   7.305   2.620 -0.0863 -0.4145  0.4815
45450SOL     OW40906   5.496   5.108   5.790  0.2303  0.3791  0.1097
45450SOL    HW140907   5.546   5.053   5.851 -1.1484  1.0969  1.9617
45450SOL    HW240908   5.429   5.049   5.754  1.4780 -0.2292 -1.3367
45451SOL     OW40909  10.689   6.039   4.173 -0.3472  0.2408 -0.0104
45451SOL    HW140910  10.774   6.010   4.140 -1.0015 -0.1644 -1.4379
45451SOL    HW240911  10.697   6.133   4.184  0.2579  0.2151 -0.2306
45452SOL     OW40912  11.660   8.846   3.095 -0.2266 -0.0426 -0.0154
45452SOL    HW140913  11.669   8.781   3.165  0.1150  1.0954  1.0304
45452SOL    HW240914  11.573   8.884   3.109 -0.1927  0.1274 -0.2658
45453SOL     OW40915   8.022  10.238   7.797 -0.1218  0.2310 -0.2867
45453SOL    HW140916   8.079  10.186   7.853 -1.2236 -0.8415 -0.1055
45453SOL    HW240917   7.994  10.176   7.729 -1.4174  0.5934 -0.0982
45454SOL     OW40918   9.453   0.299   5.505 -0.4707  0.1632 -0.3173
45454SOL    HW140919   9.423   0.303   5.596  0.2979 -0.0900 -0.0418
45454SOL    HW240920   9.391   0.353   5.457 -2.4673 -1.8010 -0.0909
45455SOL     OW40921   6.317   5.615   4.279 -0.7000  0.2165 -0.1999
45455SOL    HW140922   6.259   5.630   4.354 -1.3394 -0.9569 -0.4330
45455SOL    HW240923   6.396   5.578   4.317 -1.2681 -0.9835 -0.1388
45456SOL     OW40924   2.051   6.423   3.857  0.0015 -0.1716 -0.2440
45456SOL    HW140925   2.026   6.402   3.947 -1.4992  2.0077 -0.0423
45456SOL    HW240926   1.970   6.413   3.807 -0.1111  2.0454 -0.6159
45457SOL     OW40927   6.967   3.008   2.662  0.2221  0.4141 -0.2223
45457SOL    HW140928   6.960   2.988   2.755 -1.7368  0.9232 -0.2202
45457SOL    HW240929   6.953   3.103   2.657  3.3125  0.9269 -0.7956
45458SOL     OW40930   1.277  10.893   9.409 -0.3383  0.5519  0.3304
45458SOL    HW140931   1.326  10.867   9.332 -1.3102 -0.9519  0.1852
45458SOL    HW240932   1.185  10.880   9.385 -0.6446 -0.3608  1.8452
45459SOL     OW40933   5.165   3.062   0.296 -0.5227  0.0631 -0.5127
45459SOL    HW140934   5.101   3.090   0.360  0.5490 -1.4790  1.3641
45459SOL    HW240935   5.246   3.105   0.322 -0.3651  0.5860 -1.7702
45460SOL     OW40936  10.181   3.231   9.982  0.0709 -0.2759  0.0445
45460SOL    HW140937  10.124   3.284   9.926 -0.4070 -0.7491  0.0726
45460SOL    HW240938  10.185   3.280  10.065 -0.9133 -0.5987  0.3010
45461SOL     OW40939   0.340  11.444   6.768 -0.3443 -0.5830  0.1880
45461SOL    HW140940   0.352  11.533   6.802 -0.5512 -1.0555  1.5339
45461SOL    HW240941   0.428  11.406   6.769 -0.2874 -0.4709 -0.2040
45462SOL     OW40942   3.299   5.958   3.968  0.6962  0.5756 -0.2127
45462SOL    HW140943   3.254   6.020   4.025  0.3980  0.0639  0.1200
45462SOL    HW240944   3.373   5.927   4.019  0.5243  0.2417 -0.1613
45463SOL     OW40945   8.661   8.034  11.397 -0.0908  0.2077  0.5340
45463SOL    HW140946   8.691   7.957  11.446 -0.0260  0.2365  0.5388
45463SOL    HW240947   8.654   8.003  11.306  2.3629  0.8615  0.0769
45464SOL     OW40948  10.338  11.555   7.800  0.0963 -0.1635  0.4579
45464SOL    HW140949  10.402  11.607   7.751  2.2317 -1.5792  1.5940
45464SOL    HW240950  10.391  11.506   7.863 -2.2634 -0.4552  2.3402
45465SOL     OW40951  10.635   9.910   0.147 -0.0947  0.0747 -0.1088
45465SOL    HW140952  10.639   9.815   0.161 -2.4719 -0.1137 -0.2686
45465SOL    HW240953  10.671   9.923   0.060  1.0135 -0.5708  0.2371
45466SOL     OW40954  10.505   5.369   0.767 -0.2918 -0.4454 -0.1949
45466SOL    HW140955  10.422   5.322   0.760  0.9760 -2.8858  0.0602
45466SOL    HW240956  10.543   5.365   0.679  0.2965 -0.8279  0.0705
45467SOL     OW40957  11.050   8.296   1.749  0.0243  0.0982 -0.0148
45467SOL    HW140958  11.057   8.330   1.838  1.3558 -0.9818  0.3406
45467SOL    HW240959  11.011   8.367   1.699 -2.3123  0.1599  1.7278
45468SOL     OW40960   7.226  10.374   1.380 -0.4041  0.7420  0.2672
45468SOL    HW140961   7.205  10.467   1.381 -2.3144  0.3380  0.9107
45468SOL    HW240962   7.247  10.355   1.288 -1.1635  1.5579 -0.0856
45469SOL     OW40963  10.040   2.133   2.473  0.1953  0.2991 -0.1917
45469SOL    HW140964  10.099   2.079   2.525 -2.0955 -0.7774  1.4499
45469SOL    HW240965  10.032   2.214   2.522  0.1816  0.3866 -0.3385
45470SOL     OW40966   8.015  10.995   3.978 -0.3881  0.1671  0.2500
45470SOL    HW140967   7.991  10.915   3.932  0.2116 -0.5427  1.1247
45470SOL    HW240968   8.012  10.971   4.071  0.6727  0.9010  0.4915
45471SOL     OW40969   4.557   2.506   2.066  0.0888  0.4670  0.4900
45471SOL    HW140970   4.574   2.545   1.980  1.7040  0.1738  0.6448
45471SOL    HW240971   4.583   2.415   2.056 -1.7615 -0.1274  0.7074
45472SOL     OW40972   9.256   9.944   6.270  0.4188  0.1445  0.3932
45472SOL    HW140973   9.171   9.974   6.303 -0.8255 -0.1214 -2.2735
45472SOL    HW240974   9.281   9.873   6.329 -0.2826  1.4221  2.3180
45473SOL     OW40975   5.562   0.575   8.166  0.1522 -0.3135 -0.4417
45473SOL    HW140976   5.614   0.636   8.219 -1.6260 -2.0356  3.6412
45473SOL    HW240977   5.489   0.628   8.134 -1.3164 -0.0614  2.9443
45474SOL     OW40978   4.982  10.542   3.595  0.3641  0.2759 -0.3769
45474SOL    HW140979   4.994  10.448   3.606  0.3864  0.3399  0.2161
45474SOL    HW240980   4.988  10.557   3.501 -1.1826 -0.5341 -0.6378
45475SOL     OW40981   7.128   4.443  10.057  0.1509 -0.2860  0.0121
45475SOL    HW140982   7.192   4.467  10.124 -0.3671  0.3667  0.2907
45475SOL    HW240983   7.153   4.495   9.981  0.3331 -0.5123 -0.0820
45476SOL     OW40984   9.031   2.120   2.181 -0.0533  0.3161  0.0340
45476SOL    HW140985   9.097   2.073   2.231  0.4662  0.1462 -0.7947
45476SOL    HW240986   9.061   2.114   2.090 -1.4228 -0.1469 -0.4159
45477SOL     OW40987   4.722   4.086   6.066 -0.2486  0.0468  0.6861
45477SOL    HW140988   4.638   4.053   6.033  0.4890 -1.5094  0.2669
45477SOL    HW240989   4.723   4.060   6.158  0.6943 -1.9616  0.1523
45478SOL     OW40990   2.881   5.638   9.583 -0.1131  0.1798 -0.1946
45478SOL    HW140991   2.787   5.645   9.598  0.0217  0.7961  0.3983
45478SOL    HW240992   2.901   5.545   9.595 -0.3130  0.3553  1.7133
45479SOL     OW40993   3.559   1.140  10.023  0.1858  0.0157  0.0647
45479SOL    HW140994   3.597   1.228  10.031 -1.1070  0.5408  0.7685
45479SOL    HW240995   3.552   1.109  10.113 -0.4874 -0.3063 -0.0942
45480SOL     OW40996   9.539  10.885  11.237  0.7807 -0.2610  0.4800
45480SOL    HW140997   9.589  10.815  11.278  1.3569  1.3145  2.6239
45480SOL    HW240998   9.601  10.956  11.226 -0.8093  1.7789  3.2776
45481SOL     OW40999  11.084   4.047   7.498  0.2372 -0.0271  0.4856
45481SOL    HW141000  11.058   3.969   7.449  0.0904  0.7838 -0.7662
45481SOL    HW241001  11.149   4.090   7.442  1.1973  0.1626  1.6878
45482SOL     OW41002   1.244   1.448   0.552 -0.3676 -0.2782  0.1335
45482SOL    HW141003   1.248   1.530   0.502 -0.4384 -0.0407  0.5122
45482SOL    HW241004   1.211   1.474   0.638 -0.9750 -0.8005  0.0647
45483SOL     OW41005   2.431  12.014   5.694  0.3836 -0.1580  0.0380
45483SOL    HW141006   2.488  12.063   5.634  1.4787 -0.5455  0.7322
45483SOL    HW241007   2.485  11.940   5.722 -0.0847  0.0456  1.5466
45484SOL     OW41008   7.102   7.769   7.946  0.1761 -0.1914  0.8473
45484SOL    HW141009   7.099   7.864   7.961 -0.6343  0.0242 -0.5567
45484SOL    HW241010   7.030   7.734   7.998 -1.8953  0.4218 -1.4073
45485SOL     OW41011   1.982   9.846   1.335 -0.2065  0.6361 -0.6432
45485SOL    HW141012   1.952   9.922   1.285 -0.3329  1.2395  0.3212
45485SOL    HW241013   2.004   9.881   1.421 -0.2729 -0.4239 -0.1761
45486SOL     OW41014   6.215  11.147   3.121  0.0199 -0.1118  0.1911
45486SOL    HW141015   6.247  11.197   3.045  2.7386 -1.5777  0.2554
45486SOL    HW241016   6.158  11.080   3.083  2.0901 -1.4255 -0.7662
45487SOL     OW41017   0.226   3.133   3.695  0.0071  0.3468  0.3759
45487SOL    HW141018   0.312   3.095   3.678  0.1009  0.2915  0.9589
45487SOL    HW241019   0.170   3.058   3.716 -0.6265  0.1780 -1.6638
45488SOL     OW41020   8.336   1.908   4.712  0.3441  0.0404 -0.2952
45488SOL    HW141021   8.412   1.858   4.683  0.4364 -0.8918  1.4300
45488SOL    HW241022   8.273   1.842   4.741 -0.2040  0.8605  0.4418
45489SOL     OW41023   9.838   6.282   8.694 -0.0572  0.0499  0.2595
45489SOL    HW141024   9.773   6.213   8.678  0.6945 -0.5261 -0.4123
45489SOL    HW241025   9.786   6.361   8.707 -0.8964 -0.3865 -0.3044
45490SOL     OW41026   9.842   3.773   3.153 -0.0339  0.3841  0.1637
45490SOL    HW141027   9.937   3.770   3.150 -0.0579 -0.8462  0.0836
45490SOL    HW241028   9.820   3.865   3.139  1.1236  0.6348 -0.0936
45491SOL     OW41029   8.098  11.196  10.351  0.2659 -1.1569  0.1735
45491SOL    HW141030   8.154  11.259  10.305  1.1598 -0.5806  1.9905
45491SOL    HW241031   8.009  11.229  10.336  0.6730  0.1449  0.4682
45492SOL     OW41032  10.735   4.405  11.197  0.4741  0.9723  0.1804
45492SOL    HW141033  10.701   4.487  11.232  0.4475  1.0887 -0.1229
45492SOL    HW241034  10.755   4.352  11.275  1.8177  1.7970  0.4251
45493SOL     OW41035  11.596   6.927  11.393  0.3432 -0.1346 -0.0335
45493SOL    HW141036  11.657   6.937  11.467 -0.4403 -1.3550  0.8059
45493SOL    HW241037  11.511   6.950  11.430 -0.2006 -1.6875 -0.2916
45494SOL     OW41038   9.266  10.001   0.004 -0.0071  0.6515 -0.1109
45494SOL    HW141039   9.339   9.956  -0.039  3.1304  3.5077  1.7513
45494SOL    HW241040   9.236  10.065  -0.061 -0.9953 -0.5602 -0.8996
45495SOL     OW41041   2.093   2.391  11.777  0.4895  0.0270  1.1632
45495SOL    HW141042   2.187   2.406  11.790  0.6931 -0.4056  0.2510
45495SOL    HW241043   2.061   2.365  11.864  1.5739 -1.6680  1.1042
45496SOL     OW41044   4.771   0.860   9.059 -0.3978  0.2647  0.0522
45496SOL    HW141045   4.836   0.845   8.991  0.5141  0.5219  0.8499
45496SOL    HW241046   4.738   0.772   9.080  1.0125 -0.0895  0.9050
45497SOL     OW41047   8.339   2.873   3.001 -0.1092  0.1834  0.0012
45497SOL    HW141048   8.262   2.846   2.952  0.0166 -0.5305  0.1932
45497SOL    HW241049   8.392   2.794   3.008 -0.1681  0.2438  1.3549
45498SOL     OW41050   0.343   7.772   9.755 -0.5655  0.1392 -0.2554
45498SOL    HW141051   0.405   7.721   9.702  0.5663  2.4393 -1.2525
45498SOL    HW241052   0.297   7.826   9.692 -1.1439  0.9583  0.8473
45499SOL     OW41053   6.921  10.092  10.217  0.5379  0.3407  0.1528
45499SOL    HW141054   6.902  10.113  10.309 -2.7495  0.6720 -0.4847
45499SOL    HW241055   6.923  10.177  10.173  1.9496  0.1716 -0.1645
45500SOL     OW41056   5.219   9.869   0.468  0.9439 -0.4788 -0.6097
45500SOL    HW141057   5.248   9.866   0.559  2.6108  0.6648 -1.0441
45500SOL    HW241058   5.300   9.881   0.418 -0.1223  1.2023 -2.0582
45501SOL     OW41059   3.955   6.712   5.139  0.2207 -0.6850  0.0289
45501SOL    HW141060   3.959   6.616   5.146 -0.5766 -0.6933  0.4539
45501SOL    HW241061   3.975   6.743   5.227 -0.3680 -0.4868  0.0949
45502SOL     OW41062   6.023   0.485   3.815 -0.2946  0.4297  0.3986
45502SOL    HW141063   6.027   0.398   3.777 -2.7583  0.1015  0.6771
45502SOL    HW241064   6.108   0.499   3.855  0.5072 -1.3935 -0.5913
45503SOL     OW41065   4.622  11.365   6.561 -0.3677  0.8316  0.4286
45503SOL    HW141066   4.572  11.351   6.481  0.6936  2.0903 -0.5044
45503SOL    HW241067   4.713  11.363   6.533  0.4346 -3.8637  2.4603
45504SOL     OW41068   0.271  11.535  12.080 -0.5477 -0.1774  0.3593
45504SOL    HW141069   0.355  11.533  12.033 -0.5207  2.1127  0.1717
45504SOL    HW241070   0.292  11.578  12.163 -1.2639 -0.9969  0.9790
45505SOL     OW41071   1.618   1.051   4.396 -0.0094 -0.3184  0.2667
45505SOL    HW141072   1.550   1.114   4.372  0.3203  0.4379  1.2248
45505SOL    HW241073   1.675   1.047   4.319  0.3970  1.1747  0.4440
45506SOL     OW41074   7.000   1.526   9.639 -0.1254  0.4340 -0.1625
45506SOL    HW141075   6.990   1.580   9.718 -2.3291  0.4975 -0.4138
45506SOL    HW241076   7.021   1.439   9.673 -0.1225  0.6672  0.4455
45507SOL     OW41077  11.895   7.065   5.512 -0.3233 -1.0693 -0.0582
45507SOL    HW141078  11.985   7.083   5.539 -0.8696 -1.4539  2.2097
45507SOL    HW241079  11.874   6.981   5.553 -1.6090 -1.1400 -0.8132
45508SOL     OW41080   9.289   5.560   3.961  0.0374 -0.8751 -0.0760
45508SOL    HW141081   9.247   5.532   4.043  0.0387 -0.3608  0.1030
45508SOL    HW241082   9.219   5.603   3.912  0.9159  2.5532  1.4241
45509SOL     OW41083   7.149   6.836   4.829  0.4711  0.0202 -0.0705
45509SOL    HW141084   7.185   6.885   4.755 -0.8325 -1.8170 -2.0447
45509SOL    HW241085   7.056   6.857   4.829 -0.0691 -2.1129 -0.7862
45510SOL     OW41086   0.943   2.610   4.157  0.4043 -0.4115 -0.6440
45510SOL    HW141087   0.914   2.693   4.120 -0.0887  0.7946  2.1625
45510SOL    HW241088   0.862   2.561   4.170  0.3988 -0.2105  0.1311
45511SOL     OW41089  10.040   1.500   7.194 -0.0119 -0.1631 -0.3840
45511SOL    HW141090   9.986   1.510   7.272  1.7079  0.8242  0.7429
45511SOL    HW241091  10.077   1.412   7.200  0.2303 -0.0367  0.0040
45512SOL     OW41092  10.781   4.131   7.277 -0.1942 -0.0373  0.1369
45512SOL    HW141093  10.704   4.108   7.329 -0.5205 -0.4465 -0.5037
45512SOL    HW241094  10.808   4.048   7.237  1.2577 -0.1158  1.2057
45513SOL     OW41095   9.447  11.363   3.344  0.0847 -0.5127  0.4733
45513SOL    HW141096   9.457  11.452   3.310 -1.8650  0.9018  3.2492
45513SOL    HW241097   9.481  11.307   3.274 -0.1260  2.2915 -2.0751
45514SOL     OW41098   0.330   7.524   8.743  0.3024  0.5637 -0.1793
45514SOL    HW141099   0.329   7.619   8.748 -0.6253  0.5304  0.5677
45514SOL    HW241100   0.256   7.501   8.687 -0.4056  0.2364  0.8705
45515SOL     OW41101  10.644   4.731  10.396 -0.5843 -0.1938 -0.0256
45515SOL    HW141102  10.684   4.676  10.464 -1.3113 -0.7459 -0.0341
45515SOL    HW241103  10.718   4.772  10.352 -0.0560 -0.6859  0.3909
45516SOL     OW41104   6.353   1.224   4.294 -0.5443 -0.3103  0.1104
45516SOL    HW141105   6.348   1.198   4.202 -1.3314  0.7013 -0.1591
45516SOL    HW241106   6.335   1.144   4.343 -1.8715 -0.5123 -0.6580
45517SOL     OW41107   0.800   0.598   3.904  0.0089 -0.0830 -0.1870
45517SOL    HW141108   0.749   0.655   3.961 -0.6947  0.2270 -1.1033
45517SOL    HW241109   0.883   0.586   3.950 -0.1001  1.0962  0.3554
45518SOL     OW41110   7.262   3.667   0.084 -0.1791 -0.1108 -0.3545
45518SOL    HW141111   7.226   3.581   0.105  0.0038  0.4532  2.7309
45518SOL    HW241112   7.186   3.720   0.060 -0.7282 -0.3287  0.8549
45519SOL     OW41113   7.272   6.917   4.585  0.5200 -0.6077 -0.2408
45519SOL    HW141114   7.231   6.956   4.508  0.0063 -1.5830 -0.4757
45519SOL    HW241115   7.366   6.926   4.570  0.4274  1.2273  0.0820
45520SOL     OW41116   9.121   6.749   2.492  0.0756 -0.7938  0.4431
45520SOL    HW141117   9.169   6.677   2.450  1.7279  1.3741 -1.6645
45520SOL    HW241118   9.085   6.710   2.572  2.6707 -3.4108  0.5269
45521SOL     OW41119   4.614   8.805   8.403  0.8892 -0.3772 -0.3626
45521SOL    HW141120   4.562   8.786   8.325 -0.6518 -2.8809  1.1251
45521SOL    HW241121   4.554   8.853   8.461  0.8302 -1.5937  0.6148
45522SOL     OW41122   8.422   4.588  10.681  1.1539 -0.2764  0.4994
45522SOL    HW141123   8.504   4.570  10.635  0.7018 -1.5261  0.1318
45522SOL    HW241124   8.383   4.502  10.695  0.0343  0.2759  0.9268
45523SOL     OW41125   6.322   6.329   9.490  0.4873  0.3023  0.6069
45523SOL    HW141126   6.309   6.388   9.416 -3.0703 -1.8503 -0.7435
45523SOL    HW241127   6.235   6.319   9.529  0.8739 -3.6590  0.9035
45524SOL     OW41128   6.854   9.518   1.421 -0.0727 -0.1318 -0.5087
45524SOL    HW141129   6.915   9.566   1.478 -0.5124 -0.2458  0.0740
45524SOL    HW241130   6.799   9.469   1.482 -0.1205 -0.7903 -1.0712
45525SOL     OW41131   1.696   3.363  11.941  0.1606  0.5192  0.2041
45525SOL    HW141132   1.714   3.408  12.024  1.0307  1.4229 -0.4465
45525SOL    HW241133   1.620   3.409  11.906 -1.0558 -0.7320  1.0980
45526SOL     OW41134   1.576  10.549   1.292 -0.3989  0.3029  0.9611
45526SOL    HW141135   1.586  10.638   1.327 -0.6659  0.7260 -0.0072
45526SOL    HW241136   1.509  10.558   1.223 -1.0480 -0.8115  1.4273
45527SOL     OW41137   8.391   7.103  12.081 -0.2029  0.3661  0.3833
45527SOL    HW141138   8.391   7.086  12.175  1.4233 -1.3743  0.1191
45527SOL    HW241139   8.298   7.111  12.059 -0.8453 -2.3776  1.6511
45528SOL     OW41140   0.384   4.955   1.640  0.5338  0.7043 -0.4508
45528SOL    HW141141   0.330   4.887   1.600  2.0715 -1.3641  0.8077
45528SOL    HW241142   0.349   5.037   1.604 -2.9288 -0.5161 -0.2619
45529SOL     OW41143  11.317   0.863   7.030 -0.0848 -0.6056 -0.3301
45529SOL    HW141144  11.284   0.835   7.115  0.3323 -1.4465 -0.4421
45529SOL    HW241145  11.378   0.794   7.003  0.6553  0.2042 -0.7938
45530SOL     OW41146   0.876   6.226   4.924  0.0549 -0.3152  0.0074
45530SOL    HW141147   0.825   6.285   4.869 -3.2942 -0.4413  2.6651
45530SOL    HW241148   0.852   6.138   4.894  0.3669 -0.3642 -0.1004
45531SOL     OW41149   8.790  11.773   7.380  0.4220 -0.0167  0.1944
45531SOL    HW141150   8.814  11.827   7.305  0.5479 -0.4116 -0.0506
45531SOL    HW241151   8.739  11.832   7.436  1.2282  0.5826  0.3157
45532SOL     OW41152   2.709   2.078   0.848 -0.1994  0.6823  0.2911
45532SOL    HW141153   2.803   2.080   0.862 -0.2323  0.0958  0.6350
45532SOL    HW241154   2.675   2.022   0.918 -0.6819 -0.0642 -0.5149
45533SOL     OW41155   9.703   3.968  11.240 -0.0364  0.0568  0.1986
45533SOL    HW141156   9.695   4.018  11.321 -1.0289 -0.7659  0.6327
45533SOL    HW241157   9.759   3.894  11.263 -1.0779 -0.6872  0.4063
45534SOL     OW41158   4.148   3.631   7.048 -0.0946  0.8277  0.5303
45534SOL    HW141159   4.173   3.603   7.136 -0.4484 -0.3585  0.2709
45534SOL    HW241160   4.068   3.582   7.029 -0.1790  1.2902 -0.3395
45535SOL     OW41161  10.861   7.272   2.892 -0.6368  0.4527  0.4474
45535SOL    HW141162  10.815   7.190   2.912 -2.0691  0.9715 -0.5228
45535SOL    HW241163  10.871   7.271   2.797  2.3508 -0.0946  0.6520
45536SOL     OW41164   3.214   6.177   3.650  0.1118  0.6287 -0.1395
45536SOL    HW141165   3.287   6.239   3.645  0.2126  0.5138 -0.0972
45536SOL    HW241166   3.256   6.092   3.661 -0.0461  0.6735  0.9819
45537SOL     OW41167   7.016   6.444   7.096  0.8160 -0.2933  0.2767
45537SOL    HW141168   6.979   6.399   7.171  3.1346 -1.0901  1.0326
45537SOL    HW241169   7.019   6.379   7.027 -0.9680  0.3369 -0.4602
45538SOL     OW41170   3.194   6.339  10.242 -0.2799 -0.0676  0.4906
45538SOL    HW141171   3.227   6.411  10.296  1.3545  1.3273 -2.1391
45538SOL    HW241172   3.252   6.266  10.262  0.7112  0.6227  0.2372
45539SOL     OW41173   4.831   1.783   4.240  0.3457  0.2124 -0.1598
45539SOL    HW141174   4.823   1.797   4.145 -0.6546 -0.3172 -0.1744
45539SOL    HW241175   4.851   1.869   4.275  0.2385  0.5142 -0.8132
45540SOL     OW41176   8.128  11.397  11.148  0.3369 -0.1028  0.4342
45540SOL    HW141177   8.204  11.445  11.181  0.2542  1.9148 -1.9613
45540SOL    HW241178   8.155  11.365  11.062  0.2430 -4.2873  1.7364
45541SOL     OW41179  10.241   3.842   1.115 -0.3988 -0.0390  0.4283
45541SOL    HW141180  10.179   3.872   1.048 -1.1621 -0.0977  1.1000
45541SOL    HW241181  10.271   3.922   1.157  1.1366  0.1215 -0.8576
45542SOL     OW41182   9.605   4.977   6.716  0.2664 -0.4207  0.2455
45542SOL    HW141183   9.693   4.997   6.685 -0.1958  1.9070  0.2341
45542SOL    HW241184   9.599   5.021   6.801 -2.0833  3.0310 -1.4485
45543SOL     OW41185  11.410   5.928   2.197  0.6992 -0.2423 -0.2708
45543SOL    HW141186  11.363   5.951   2.118  0.9310  2.2724  0.2292
45543SOL    HW241187  11.355   5.960   2.268  0.9010 -1.6667  0.5525
45544SOL     OW41188  10.105   2.533   2.402 -0.2586 -0.2613 -0.2068
45544SOL    HW141189  10.016   2.506   2.381 -0.8409  2.1268 -1.0686
45544SOL    HW241190  10.139   2.570   2.321  0.9612  0.3232  0.5409
45545SOL     OW41191   7.632   5.754  10.712 -0.4555  0.1131  0.0600
45545SOL    HW141192   7.651   5.811  10.638  1.9877 -0.2975  0.2554
45545SOL    HW241193   7.576   5.806  10.770 -0.4373  1.3264 -0.9737
45546SOL     OW41194   0.320  10.097   2.766 -0.0167 -0.6791  0.0849
45546SOL    HW141195   0.387  10.147   2.720 -0.1324  0.2953  0.9360
45546SOL    HW241196   0.300  10.150   2.843  0.8878 -2.7245  1.8109
45547SOL     OW41197   1.100   8.141   9.371  0.6810 -0.3570  0.5786
45547SOL    HW141198   1.185   8.120   9.331  0.6564 -0.1886  0.4370
45547SOL    HW241199   1.056   8.196   9.306  1.1050  0.8769  1.2940
45548SOL     OW41200   2.915  12.115  11.616 -0.3580  0.2057 -0.0768
45548SOL    HW141201   2.877  12.093  11.702  2.3145  0.8260  1.3849
45548SOL    HW241202   2.841  12.145  11.564 -2.1124 -0.3165  1.9627
45549SOL     OW41203   8.719   9.849   1.470 -0.1065  0.1882 -0.5595
45549SOL    HW141204   8.655   9.920   1.463  0.0651  0.4200  0.1726
45549SOL    HW241205   8.802   9.892   1.491  0.3286 -0.1024 -1.5993
45550SOL     OW41206   6.735   6.418   5.925 -0.3070  0.1781 -0.3388
45550SOL    HW141207   6.780   6.402   6.008 -0.0532  0.4922 -0.4131
45550SOL    HW241208   6.718   6.512   5.925 -2.0289 -0.1089  0.2156
45551SOL     OW41209  10.630   2.558   7.183  0.3740 -0.3163  0.5981
45551SOL    HW141210  10.679   2.480   7.157 -1.3901 -0.5853 -2.3807
45551SOL    HW241211  10.539   2.538   7.160 -0.4678  1.8120  1.8179
45552SOL     OW41212  10.308  10.917  11.946  0.4321  0.4393  0.7596
45552SOL    HW141213  10.369  10.945  11.877 -1.8027  1.3187 -1.0080
45552SOL    HW241214  10.341  10.833  11.975  0.3831 -1.0664 -2.9772
45553SOL     OW41215   5.720   2.179   8.401 -0.8296  0.0849 -0.5624
45553SOL    HW141216   5.787   2.136   8.454 -1.0168 -0.7913 -1.0277
45553SOL    HW241217   5.728   2.140   8.314 -0.9257  1.0803 -1.0353
45554SOL     OW41218   8.729   4.405   1.493 -0.1084 -0.0727 -0.0489
45554SOL    HW141219   8.730   4.499   1.475  0.2203 -0.2710 -1.1103
45554SOL    HW241220   8.717   4.400   1.588  2.1838  1.1043  0.3935
45555SOL     OW41221   3.785   8.806   9.612  0.1844 -0.3128 -0.1096
45555SOL    HW141222   3.846   8.778   9.681  0.1977  0.8425  0.3546
45555SOL    HW241223   3.808   8.897   9.594 -0.2315 -0.4055 -1.2191
45556SOL     OW41224   5.406   2.543   2.342  0.5457 -0.3383  0.1976
45556SOL    HW141225   5.322   2.567   2.380  0.5590 -3.1129  2.3395
45556SOL    HW241226   5.419   2.605   2.271 -2.7412  0.9094  0.5029
45557SOL     OW41227  10.078   7.359   6.412 -0.6415  0.4745  0.3335
45557SOL    HW141228  10.047   7.350   6.502 -2.7403 -0.1947 -0.3985
45557SOL    HW241229  10.001   7.386   6.362  0.3439  0.3322 -1.3656
45558SOL     OW41230   6.294   0.261   2.909  0.1987 -0.0101 -0.1357
45558SOL    HW141231   6.322   0.344   2.949  0.6476 -0.1990 -0.0440
45558SOL    HW241232   6.309   0.196   2.978  0.7589 -0.3070 -0.5307
45559SOL     OW41233   8.314   1.013   2.204 -0.0193  0.3406 -0.1578
45559SOL    HW141234   8.399   0.980   2.236 -0.8861 -0.7273  1.1766
45559SOL    HW241235   8.250   0.969   2.260 -1.4340  1.5068 -0.8271
45560SOL     OW41236   4.686   7.154   6.836 -0.3956  0.2074  0.0013
45560SOL    HW141237   4.644   7.128   6.754  0.7201 -2.7142  0.2287
45560SOL    HW241238   4.771   7.111   6.834 -1.4397 -2.6012  3.9109
45561SOL     OW41239   7.380   6.556   1.058  0.0196 -0.2700 -0.0379
45561SOL    HW141240   7.426   6.514   0.985 -0.0664 -1.4797  0.5669
45561SOL    HW241241   7.396   6.498   1.133 -2.5753 -0.8580  0.1768
45562SOL     OW41242  11.353   5.217   4.838  0.5040  0.1749  0.0717
45562SOL    HW141243  11.362   5.291   4.778 -1.1777 -0.4256 -1.0035
45562SOL    HW241244  11.339   5.141   4.781  1.9217 -0.9702  1.1560
45563SOL     OW41245  10.527  10.985  10.050 -0.1313 -0.1451 -0.7915
45563SOL    HW141246  10.519  11.080  10.038 -0.7886 -0.0294  0.4002
45563SOL    HW241247  10.530  10.973  10.145  2.3720 -1.1535 -0.9373
45564SOL     OW41248   9.126   4.107   1.577 -0.4409 -0.5262 -0.4057
45564SOL    HW141249   9.052   4.156   1.611  0.7618  1.0847  0.0204
45564SOL    HW241250   9.176   4.080   1.654 -0.8033 -2.0437 -0.6571
45565SOL     OW41251   2.852   3.390   0.364 -0.3145  0.2819  0.0347
45565SOL    HW141252   2.875   3.303   0.398 -0.5109  0.2614  0.1201
45565SOL    HW241253   2.826   3.374   0.273  3.1225  0.7387 -1.1518
45566SOL     OW41254   1.265   9.280   6.525  0.5628  0.2141  0.2199
45566SOL    HW141255   1.328   9.275   6.453  1.4171  0.2650  0.9487
45566SOL    HW241256   1.315   9.257   6.603 -0.2906  0.3896  0.8415
45567SOL     OW41257   0.300   4.832   5.508  0.8196  0.2305  0.5375
45567SOL    HW141258   0.272   4.741   5.508  0.1435  0.4388  0.0063
45567SOL    HW241259   0.370   4.835   5.574  1.8597 -0.9708 -0.4718
45568SOL     OW41260   4.786  10.896   0.773 -0.1634  0.2732 -0.3975
45568SOL    HW141261   4.762  10.924   0.685  1.4215 -0.6652 -1.1864
45568SOL    HW241262   4.853  10.829   0.759  0.4998  0.4623  1.5400
45569SOL     OW41263  11.177   4.994   0.635  0.2308  0.2173 -0.0017
45569SOL    HW141264  11.180   4.899   0.632  0.8467  0.2265  0.2655
45569SOL    HW241265  11.111   5.014   0.702 -0.8990 -0.0061 -1.0169
45570SOL     OW41266   7.799   1.817   5.477 -0.1979 -0.4368 -0.3003
45570SOL    HW141267   7.784   1.723   5.468 -0.6786 -0.2716 -1.3390
45570SOL    HW241268   7.752   1.857   5.403  0.4560  0.5775 -0.1944
45571SOL     OW41269   3.188   4.514   2.702 -0.0617  0.0104  0.0698
45571SOL    HW141270   3.216   4.485   2.615 -0.5365  1.1843 -0.4963
45571SOL    HW241271   3.094   4.497   2.703  0.1908 -1.4744  0.9713
45572SOL     OW41272   4.503   6.564  10.237  0.6164 -0.1613 -0.0429
45572SOL    HW141273   4.561   6.539  10.165  0.4577 -1.8983  0.3865
45572SOL    HW241274   4.475   6.653  10.215  1.0032 -0.4369 -1.8356
45573SOL     OW41275   0.651   7.770   4.793  0.8603  0.5709 -0.5684
45573SOL    HW141276   0.743   7.744   4.799  0.8914  0.7305 -0.3601
45573SOL    HW241277   0.616   7.755   4.880  0.9509  1.5061 -0.3608
45574SOL     OW41278   0.663  11.921   3.332  0.2236  0.1022  0.6363
45574SOL    HW141279   0.667  11.833   3.369  0.0283  0.0908  0.6304
45574SOL    HW241280   0.570  11.944   3.334  0.2747  0.3098  0.6408
45575SOL     OW41281   7.027   9.665   5.119 -0.4628  0.1363 -0.1515
45575SOL    HW141282   7.061   9.742   5.164 -1.0861 -1.4095  3.2580
45575SOL    HW241283   7.068   9.667   5.032  1.6440  2.7900  0.7941
45576SOL     OW41284   7.185   8.986  10.768  0.3526 -0.0927 -0.0453
45576SOL    HW141285   7.104   9.008  10.814  0.4188 -2.9505  1.6204
45576SOL    HW241286   7.164   8.906  10.719  1.7199  0.0871 -0.9896
45577SOL     OW41287   7.265   0.679   1.924  0.2837 -0.1167 -0.3875
45577SOL    HW141288   7.258   0.695   2.018 -0.0470 -0.2010 -0.3969
45577SOL    HW241289   7.346   0.722   1.898 -0.0093  0.5532 -0.2034
45578SOL     OW41290   1.710   0.536   4.576  0.1100 -0.2452 -0.5988
45578SOL    HW141291   1.620   0.555   4.603  0.0381  0.5154 -1.3263
45578SOL    HW241292   1.702   0.468   4.509  0.2077 -1.3380  0.4745
45579SOL     OW41293   4.430   2.105  12.021  0.2356 -0.1721 -0.2945
45579SOL    HW141294   4.454   2.184  12.069  0.9142 -0.0684 -0.7920
45579SOL    HW241295   4.344   2.081  12.056 -0.2855  1.1581 -0.5996
45580SOL     OW41296   4.069  10.533   5.120 -0.1722  0.1591 -0.0389
45580SOL    HW141297   4.043  10.596   5.053 -0.7438  1.2664  1.1765
45580SOL    HW241298   4.072  10.584   5.201  0.3651 -1.1665  0.8140
45581SOL     OW41299   9.861   6.883   4.461 -0.2823 -0.1274  0.1977
45581SOL    HW141300   9.789   6.830   4.426 -0.5050  0.5678 -0.4144
45581SOL    HW241301   9.933   6.822   4.471 -1.3084 -1.1326  2.0223
45582SOL     OW41302   7.344   4.488  11.909  0.3551  0.0475  0.1641
45582SOL    HW141303   7.280   4.453  11.972  1.2761 -0.6350  0.7605
45582SOL    HW241304   7.428   4.479  11.954  1.0091 -0.1963 -1.0597
45583SOL     OW41305   0.643   6.288   4.167 -0.1632 -0.2917 -0.4337
45583SOL    HW141306   0.582   6.271   4.239 -0.3808 -0.4694 -0.6569
45583SOL    HW241307   0.641   6.207   4.115  0.4343 -0.3867 -0.3160
45584SOL     OW41308   8.692   8.086  10.045  0.1016  0.4966 -0.2644
45584SOL    HW141309   8.622   8.145  10.017 -0.1024  0.4815  0.2116
45584SOL    HW241310   8.687   8.087  10.140  0.6164  0.3327 -0.2371
45585SOL     OW41311   4.479  11.042  10.858  0.0408  0.0048 -0.2519
45585SOL    HW141312   4.387  11.033  10.833 -1.1565  1.6184  2.8554
45585SOL    HW241313   4.502  11.131  10.831  0.2349  0.0653  0.1001
45586SOL     OW41314   5.201  10.583   5.499  0.2361  0.1963 -0.1976
45586SOL    HW141315   5.244  10.501   5.524  0.4137 -0.2250 -1.7832
45586SOL    HW241316   5.253  10.615   5.425 -1.1827  0.5419 -1.0847
45587SOL     OW41317   6.808   2.676  10.170 -0.5019 -0.0622  0.3387
45587SOL    HW141318   6.790   2.673  10.264  0.6963 -0.0482  0.5791
45587SOL    HW241319   6.897   2.711  10.164 -0.8768  0.7216 -0.8391
45588SOL     OW41320  11.173   9.691   4.540  0.3348 -0.1348 -0.2012
45588SOL    HW141321  11.223   9.614   4.513  1.7923  0.7069  0.0248
45588SOL    HW241322  11.128   9.664   4.620  0.1315 -1.0144 -0.5990
45589SOL     OW41323  11.598   6.150   9.883 -0.2213  0.4779  0.0360
45589SOL    HW141324  11.591   6.055   9.877  0.8827  0.1641  2.4429
45589SOL    HW241325  11.526   6.176   9.939  1.0605  0.6617  1.6741
45590SOL     OW41326   3.572   5.489   4.915 -0.0511  0.1476  0.8075
45590SOL    HW141327   3.503   5.470   4.978  0.9131 -0.2802  1.7597
45590SOL    HW241328   3.535   5.557   4.859 -1.2165 -0.0265  1.3355
45591SOL     OW41329  10.994   5.090   9.694  0.0838 -0.3549 -0.2165
45591SOL    HW141330  11.072   5.136   9.661 -0.0731 -0.3130 -0.5314
45591SOL    HW241331  10.921   5.137   9.655 -0.1307  0.0750  0.6641
45592SOL     OW41332   9.138   7.733   2.967  0.4999  0.1673 -0.5919
45592SOL    HW141333   9.061   7.705   2.918 -0.9150 -1.4927  2.2813
45592SOL    HW241334   9.203   7.665   2.951  0.1811 -0.1725 -0.4660
45593SOL     OW41335   3.785   2.817   5.587 -0.2475 -0.3368 -0.3392
45593SOL    HW141336   3.694   2.840   5.566 -1.0202 -2.1115  0.8137
45593SOL    HW241337   3.811   2.879   5.655 -0.9967 -0.5267  0.1278
45594SOL     OW41338   2.344   6.674   5.819 -0.7219  0.5791  0.3362
45594SOL    HW141339   2.344   6.751   5.876 -0.7562  0.0245  1.0983
45594SOL    HW241340   2.431   6.675   5.778 -0.5081  0.7084  0.7839
45595SOL     OW41341   7.193   7.899   3.604 -0.1256 -0.2415  0.1083
45595SOL    HW141342   7.106   7.860   3.595 -0.1247 -0.0888 -0.6165
45595SOL    HW241343   7.248   7.827   3.634 -0.6615 -0.1433  1.3619
45596SOL     OW41344  12.010   8.842   5.890  0.0987 -1.0122  0.1117
45596SOL    HW141345  12.020   8.842   5.795 -0.7476 -1.3562  0.0110
45596SOL    HW241346  12.001   8.935   5.914 -1.8595 -1.0116 -0.4207
45597SOL     OW41347   7.142   7.747   2.275  0.0545  0.6055  1.0660
45597SOL    HW141348   7.153   7.709   2.188 -0.1105 -0.4469  1.4921
45597SOL    HW241349   7.060   7.710   2.307 -0.0158  1.1827  1.5810
45598SOL     OW41350   7.258   5.951   8.794  0.6880  0.1803  0.1075
45598SOL    HW141351   7.274   6.032   8.746 -3.3084  1.1852  0.1723
45598SOL    HW241352   7.259   5.977   8.886  0.1964 -0.0022  0.1666
45599SOL     OW41353   5.639   0.608   7.224 -0.1488 -0.2931  0.1067
45599SOL    HW141354   5.730   0.596   7.197 -0.5343 -2.1947 -0.5568
45599SOL    HW241355   5.601   0.664   7.156  0.3780  0.0199  0.0662
45600SOL     OW41356   4.778  10.134  10.994 -0.3154 -0.2141  0.3825
45600SOL    HW141357   4.855  10.130  11.051  0.1725  1.2494 -0.1185
45600SOL    HW241358   4.748  10.043  10.988  0.4697 -0.6113  1.7882
45601SOL     OW41359   7.173   5.260   9.542 -0.0099 -0.4651  0.1316
45601SOL    HW141360   7.247   5.206   9.570 -0.3128 -0.8173  0.2647
45601SOL    HW241361   7.135   5.292   9.624  0.5917  0.5384  0.0352
45602SOL     OW41362   4.987   0.761   2.862 -0.0993  0.3468  0.0074
45602SOL    HW141363   4.950   0.848   2.851  0.1857  0.4383 -0.2330
45602SOL    HW241364   5.051   0.752   2.791  2.2986  1.2219  1.9060
45603SOL     OW41365   8.028   9.241   2.908  0.4189  0.0144 -0.4208
45603SOL    HW141366   7.949   9.269   2.954  1.4107 -0.1543  1.4943
45603SOL    HW241367   8.078   9.321   2.894  0.6594 -0.0772 -0.1049
45604SOL     OW41368   6.465   6.009   2.879 -0.2482  0.0042  0.9453
45604SOL    HW141369   6.408   5.933   2.888  0.1002 -0.3502  0.2136
45604SOL    HW241370   6.441   6.065   2.953 -0.9736 -0.5063  1.1139
45605SOL     OW41371   5.205   9.836   1.901  0.2127  0.3494  0.5939
45605SOL    HW141372   5.230   9.923   1.871  0.4618 -0.6185 -2.3714
45605SOL    HW241373   5.196   9.785   1.820  1.2555 -2.6910  2.2524
45606SOL     OW41374  10.757   2.662   9.359  0.4020 -0.4859  0.0629
45606SOL    HW141375  10.825   2.688   9.297  0.7155 -0.3658  0.4516
45606SOL    HW241376  10.784   2.575   9.389 -1.4045 -2.0021 -2.3371
45607SOL     OW41377   6.888   9.553   9.940  0.5232 -0.2091 -0.2208
45607SOL    HW141378   6.820   9.489   9.961  0.3885 -0.0316 -0.1093
45607SOL    HW241379   6.958   9.536  10.003  0.1819  0.2288  0.2893
45608SOL     OW41380   6.923   8.815  10.287  0.5250 -0.1776 -0.1604
45608SOL    HW141381   6.828   8.812  10.301  0.7123  0.0358  1.3324
45608SOL    HW241382   6.934   8.865  10.206 -0.6426 -0.4800 -0.5237
45609SOL     OW41383  11.461   7.381   4.523  0.4269 -0.5127 -0.4500
45609SOL    HW141384  11.484   7.290   4.544  0.8467 -0.5676 -1.0945
45609SOL    HW241385  11.522   7.434   4.574 -2.0321 -0.4425  2.6630
45610SOL     OW41386   2.243   7.806   3.686  0.1627 -0.0423  0.1029
45610SOL    HW141387   2.229   7.713   3.665 -0.1070  0.2917 -1.2520
45610SOL    HW241388   2.167   7.850   3.649  0.1812  0.7062  0.9394
45611SOL     OW41389   0.164  10.401   8.245  0.2343 -0.5466  0.2149
45611SOL    HW141390   0.071  10.424   8.255 -0.6672 -2.0905 -3.2425
45611SOL    HW241391   0.167  10.306   8.258  1.0833 -0.6944 -0.9056
45612SOL     OW41392   6.167   4.262   2.691 -0.6656 -0.8035  0.1960
45612SOL    HW141393   6.205   4.221   2.613 -1.3130  1.4641 -1.4016
45612SOL    HW241394   6.216   4.224   2.764  1.5894 -1.2690 -1.4607
45613SOL     OW41395   1.125  10.114   8.488  0.5265 -0.2609 -0.2500
45613SOL    HW141396   1.078  10.181   8.439  1.1227  1.9955  1.9980
45613SOL    HW241397   1.065  10.089   8.559  0.2144 -2.3839 -1.1896
45614SOL     OW41398   7.009   0.489   8.221 -0.1248  0.1532  0.9540
45614SOL    HW141399   7.012   0.579   8.190 -0.2509  0.4644  1.8238
45614SOL    HW241400   6.927   0.454   8.186  0.6072 -0.1003 -0.6174
45615SOL     OW41401   7.580   2.611   7.123  0.2660 -0.4374  0.1374
45615SOL    HW141402   7.502   2.583   7.170 -1.1268  1.8111 -0.6813
45615SOL    HW241403   7.555   2.607   7.031  1.0657  0.4365 -0.1301
45616SOL     OW41404   5.069   3.279   2.369  0.0497 -0.2716  0.1568
45616SOL    HW141405   5.122   3.201   2.355 -0.1901 -0.5681  0.8558
45616SOL    HW241406   5.129   3.343   2.406  0.0887 -0.3458  0.2202
45617SOL     OW41407   2.618   3.692   9.514 -0.3573 -0.2899  0.1272
45617SOL    HW141408   2.525   3.711   9.513 -0.2502  0.2371 -0.6644
45617SOL    HW241409   2.660   3.778   9.509  0.1899 -0.4521  1.4042
45618SOL     OW41410  10.618  10.134   8.651 -0.0372  0.3131 -0.3022
45618SOL    HW141411  10.674  10.102   8.581  0.4445  0.9101 -0.2040
45618SOL    HW241412  10.668  10.206   8.690 -1.4810  1.8693 -1.1680
45619SOL     OW41413  10.574   5.788   9.543 -0.7805  0.1588 -0.1404
45619SOL    HW141414  10.544   5.877   9.561 -0.0733  0.4882 -0.5632
45619SOL    HW241415  10.669   5.793   9.550 -0.7405 -0.5758 -0.1270
45620SOL     OW41416   2.789   1.961  11.223 -0.8034 -0.2064  0.6385
45620SOL    HW141417   2.791   1.995  11.133  0.0607 -0.7531  0.4399
45620SOL    HW241418   2.705   1.990  11.258 -1.2662 -0.2210 -0.4358
45621SOL     OW41419   8.898   8.829   5.749  0.3866  0.2377 -0.6182
45621SOL    HW141420   8.835   8.900   5.750 -0.3973 -0.4402  1.0247
45621SOL    HW241421   8.980   8.869   5.778  0.4012  0.8250 -1.4303
45622SOL     OW41422   7.322   1.883   7.234  0.7530 -0.3296  0.6434
45622SOL    HW141423   7.295   1.795   7.260  1.7403 -0.4011  1.4860
45622SOL    HW241424   7.391   1.906   7.296  2.3922 -0.0322 -1.1624
45623SOL     OW41425   6.426   1.273   6.726 -0.0759  0.2875  0.1481
45623SOL    HW141426   6.480   1.276   6.647 -0.9146  0.0610 -0.4450
45623SOL    HW241427   6.463   1.202   6.778  0.4088  0.3620 -0.0921
45624SOL     OW41428   2.228   5.041   9.767  0.9072  0.0968  0.3008
45624SOL    HW141429   2.140   5.045   9.728  1.3395 -0.6027 -0.8127
45624SOL    HW241430   2.285   5.078   9.699  1.6677 -0.9861  0.3365
45625SOL     OW41431   9.505   7.868   8.531 -0.5660 -0.3592  0.2695
45625SOL    HW141432   9.461   7.879   8.615  0.4516 -0.9927  0.9121
45625SOL    HW241433   9.592   7.906   8.546 -0.1722 -1.0275 -0.3075
45626SOL     OW41434   5.718  11.819  10.415  0.4536 -0.3554  0.1371
45626SOL    HW141435   5.680  11.905  10.433  2.1734  0.6269 -0.7392
45626SOL    HW241436   5.645  11.769  10.377 -0.3390  1.0314 -0.2614
45627SOL     OW41437   5.384   3.512   3.173  0.0797 -0.3709 -0.1213
45627SOL    HW141438   5.366   3.605   3.162 -0.4986 -0.3046  1.1729
45627SOL    HW241439   5.438   3.507   3.252 -0.4581 -1.1673  0.2136
45628SOL     OW41440  11.495   0.616  11.792  0.8857 -0.0848  0.0427
45628SOL    HW141441  11.505   0.556  11.718 -1.6424  0.3261 -0.7487
45628SOL    HW241442  11.551   0.691  11.770  2.5317 -1.2451  0.0935
45629SOL     OW41443   8.104   9.883   5.782  0.3000 -0.0318 -0.2087
45629SOL    HW141444   8.189   9.927   5.774  0.5692 -0.5502 -0.2556
45629SOL    HW241445   8.079   9.864   5.692  0.6669 -0.8715 -0.1412
45630SOL     OW41446   6.678   4.304   4.649 -0.1168  0.1310  0.1079
45630SOL    HW141447   6.640   4.216   4.653 -0.0517  0.1592  1.9607
45630SOL    HW241448   6.764   4.292   4.611 -0.2295 -0.5643  0.0691
45631SOL     OW41449   4.926   7.192   9.385 -0.6835 -0.2477 -0.3918
45631SOL    HW141450   4.834   7.217   9.378 -0.9118 -0.8585  0.2763
45631SOL    HW241451   4.974   7.259   9.337 -1.5218 -0.2072 -1.1769
45632SOL     OW41452   3.031   8.006   6.755  0.0137 -0.4563 -0.3868
45632SOL    HW141453   2.983   7.939   6.705 -2.7740  1.2297 -0.1769
45632SOL    HW241454   3.006   7.990   6.846 -0.5532  0.7523 -0.3218
45633SOL     OW41455   5.740   2.335   8.791 -0.1014  0.1941  0.7410
45633SOL    HW141456   5.736   2.349   8.886 -0.4448  0.4675  0.6873
45633SOL    HW241457   5.770   2.245   8.781  4.4740  1.3821  1.1318
45634SOL     OW41458   7.210  10.187   7.853  0.1002  0.3078 -0.1512
45634SOL    HW141459   7.159  10.267   7.866 -1.1143 -0.0366 -2.2919
45634SOL    HW241460   7.145  10.121   7.828  1.3381 -0.7116 -0.8055
45635SOL     OW41461   3.486  12.107   6.067  0.3905  0.3822 -0.4623
45635SOL    HW141462   3.423  12.038   6.046 -0.6821  1.3576 -0.6133
45635SOL    HW241463   3.553  12.063   6.119 -1.2469 -0.4313  1.0956
45636SOL     OW41464   7.116   2.081   0.749 -0.5087 -0.1379  0.0060
45636SOL    HW141465   7.134   2.166   0.708  0.0421  0.1353  0.7855
45636SOL    HW241466   7.130   2.096   0.842  1.5661 -1.5720 -0.0067
45637SOL     OW41467   6.379  10.928   3.790  0.3522  0.0341 -0.2582
45637SOL    HW141468   6.423  10.936   3.706  2.0991 -0.1249  0.5994
45637SOL    HW241469   6.299  10.880   3.771  0.0674  1.1399 -2.0222
45638SOL     OW41470   1.971   7.640  11.143  0.1811 -0.5334 -0.8750
45638SOL    HW141471   1.920   7.675  11.070 -0.2336 -0.5070 -0.5716
45638SOL    HW241472   1.961   7.705  11.213  0.6817 -0.4930 -0.8318
45639SOL     OW41473   8.864   5.412   1.846 -0.0184  0.3670  0.9925
45639SOL    HW141474   8.770   5.431   1.844 -0.5428 -1.8533  1.5978
45639SOL    HW241475   8.871   5.330   1.896  1.9099 -1.2088 -1.5955
45640SOL     OW41476   3.025   4.012   8.382  0.1944 -0.1752 -0.0062
45640SOL    HW141477   2.954   3.952   8.400 -0.8573  0.4173 -1.8407
45640SOL    HW241478   3.099   3.956   8.357  0.1949 -0.7675  1.2516
45641SOL     OW41479   0.643   1.176   7.943  0.1512 -0.3005  0.3146
45641SOL    HW141480   0.604   1.190   7.857 -0.3418 -0.3408  0.5256
45641SOL    HW241481   0.716   1.116   7.928  0.1210 -0.2333 -0.0876
45642SOL     OW41482   0.977   6.088   0.708 -0.1113  0.0951 -0.1299
45642SOL    HW141483   0.882   6.088   0.718 -0.1957 -1.5620 -0.5286
45642SOL    HW241484   1.009   6.141   0.781 -1.2813 -0.6902  1.0139
45643SOL     OW41485   9.861  11.089  10.936  0.0464  0.7175  0.6009
45643SOL    HW141486   9.847  11.183  10.927 -2.1640  0.4392  0.5824
45643SOL    HW241487   9.864  11.056  10.846 -1.1646  0.5535  0.6026
45644SOL     OW41488  11.013   6.000   2.205  0.8561 -0.2215 -1.2043
45644SOL    HW141489  11.099   6.030   2.233 -0.6475  1.7993  1.8829
45644SOL    HW241490  10.988   5.934   2.269 -0.3736  0.1674 -1.2540
45645SOL     OW41491  11.927  11.416   0.880  0.5591  0.0830  0.3806
45645SOL    HW141492  11.995  11.426   0.814  0.4411 -1.0185  0.0641
45645SOL    HW241493  11.848  11.449   0.837  1.1248  2.8844  1.3066
45646SOL     OW41494   9.983  11.958   5.515 -0.0221 -0.1453 -0.4975
45646SOL    HW141495   9.984  12.012   5.436  1.6399 -0.3722 -0.6595
45646SOL    HW241496  10.064  11.981   5.561 -0.3689 -0.9100  0.5342
45647SOL     OW41497   1.712   2.719   8.303  0.1152  0.0462  0.7383
45647SOL    HW141498   1.703   2.659   8.229  0.6038  1.6871 -0.6983
45647SOL    HW241499   1.640   2.695   8.362 -0.2531 -1.3197 -0.2140
45648SOL     OW41500   9.544   3.397   3.415  0.4599  0.3143 -0.0853
45648SOL    HW141501   9.602   3.470   3.437  1.6823 -1.0030  1.3823
45648SOL    HW241502   9.598   3.341   3.358 -0.0078 -0.0310 -0.1913
45649SOL     OW41503   0.696   9.786   4.628  0.6590 -0.4219 -0.2427
45649SOL    HW141504   0.665   9.834   4.704  2.1614 -1.0319  0.7930
45649SOL    HW241505   0.627   9.721   4.611  0.6339 -0.7592  1.0474
45650SOL     OW41506   5.621  11.792  11.291 -0.4864 -0.3046  0.0004
45650SOL    HW141507   5.693  11.755  11.239 -0.5171 -1.3064  0.6401
45650SOL    HW241508   5.602  11.876  11.250  0.1506 -0.6357 -0.9977
45651SOL     OW41509   5.785   9.641   3.901 -0.5156 -0.2039 -0.4191
45651SOL    HW141510   5.693   9.665   3.892 -0.2367  0.7428 -0.8535
45651SOL    HW241511   5.832   9.725   3.901  0.5835 -0.7233 -2.9008
45652SOL     OW41512   1.061   3.311   8.599  0.1395  0.6352 -0.1839
45652SOL    HW141513   1.100   3.383   8.649 -0.5054  1.4210 -0.7957
45652SOL    HW241514   0.968   3.333   8.593 -0.7115 -1.7384  2.1868
45653SOL     OW41515   4.864   3.313   1.121 -0.0939  0.2341 -0.3112
45653SOL    HW141516   4.775   3.310   1.088  0.2815 -0.0283 -1.3541
45653SOL    HW241517   4.890   3.405   1.112  0.2227  0.0596 -1.4185
45654SOL     OW41518   5.522   5.163   9.827  0.0533  0.0606  0.2216
45654SOL    HW141519   5.614   5.154   9.800  0.3330  1.2475  0.7130
45654SOL    HW241520   5.503   5.256   9.815 -1.6961 -0.4817 -1.7072
45655SOL     OW41521   4.527   9.331   7.860  0.2106  0.0078 -0.1050
45655SOL    HW141522   4.470   9.407   7.852  1.1500  0.8926  1.1802
45655SOL    HW241523   4.525   9.290   7.774 -1.0413  0.9544 -0.5534
45656SOL     OW41524   1.082  11.440   8.376  0.3424 -0.1584  0.0022
45656SOL    HW141525   1.148  11.508   8.385 -0.7901  0.9801 -0.0242
45656SOL    HW241526   0.999  11.484   8.392 -0.6265 -1.0370 -2.1831
45657SOL     OW41527   3.750   8.387   8.458  0.2127 -0.6777 -0.1372
45657SOL    HW141528   3.831   8.414   8.415  0.4523 -0.9933  0.1124
45657SOL    HW241529   3.693   8.464   8.453 -0.1184 -0.9890 -1.8581
45658SOL     OW41530   7.179   0.373   5.806  0.6229  0.1821 -0.3932
45658SOL    HW141531   7.164   0.410   5.719 -0.4704  0.1183 -0.2458
45658SOL    HW241532   7.240   0.301   5.791 -0.4255 -0.5541 -1.2896
45659SOL     OW41533   5.989  10.128   8.135  0.2149 -0.4203  0.2961
45659SOL    HW141534   5.942  10.068   8.193  0.9180 -0.8271  0.4580
45659SOL    HW241535   5.988  10.212   8.181  1.9508 -1.0430  1.5976
45660SOL     OW41536   7.750   2.790   0.969  0.3874  0.1267  0.2046
45660SOL    HW141537   7.686   2.810   1.038 -0.0939  3.1491 -0.9468
45660SOL    HW241538   7.730   2.853   0.899  2.1966 -1.4092 -1.8394
45661SOL     OW41539   0.599   9.697   0.129 -0.2085 -0.3137  0.4084
45661SOL    HW141540   0.653   9.774   0.147  1.0002 -1.0170 -0.0700
45661SOL    HW241541   0.582   9.701   0.035 -1.5913  0.2580  0.6621
45662SOL     OW41542   2.113  11.623   4.986 -0.5214 -0.1284  0.5757
45662SOL    HW141543   2.201  11.588   5.002  0.0523  1.4733  1.1758
45662SOL    HW241544   2.054  11.550   5.003  0.6936 -1.3625 -0.2332
45663SOL     OW41545   0.048   6.417  11.409 -0.3524 -0.7762 -0.4842
45663SOL    HW141546   0.094   6.466  11.341 -2.3604  1.7285 -0.1994
45663SOL    HW241547   0.116   6.362  11.449  1.1890 -1.2603 -3.4840
45664SOL     OW41548   9.904   9.385   9.480  0.1360 -0.4582 -0.1782
45664SOL    HW141549   9.871   9.463   9.435  2.3973  0.0633 -1.0807
45664SOL    HW241550   9.913   9.319   9.411  0.1073 -0.8695  0.2050
45665SOL     OW41551  10.467   8.596   6.848  0.2962  0.2088 -0.3977
45665SOL    HW141552  10.546   8.617   6.898 -0.5503  0.3197  0.9324
45665SOL    HW241553  10.449   8.504   6.869 -1.2381  0.8205  1.2384
45666SOL     OW41554   7.291   9.769   3.089 -0.5093 -0.0569 -0.1289
45666SOL    HW141555   7.323   9.679   3.091  0.2270  0.2020 -0.3000
45666SOL    HW241556   7.360   9.820   3.048 -0.5029  0.7533  0.8190
45667SOL     OW41557   1.639   0.793   6.742 -0.3090 -0.3356 -0.5133
45667SOL    HW141558   1.605   0.740   6.670  0.1908 -0.4327 -0.6782
45667SOL    HW241559   1.703   0.737   6.785 -0.6811 -0.3165  0.0787
45668SOL     OW41560   4.175   0.478   4.814 -0.1911  0.1399  0.2988
45668SOL    HW141561   4.091   0.495   4.772  0.0931  0.5046 -0.1297
45668SOL    HW241562   4.240   0.492   4.745  0.1624 -1.1743  0.3328
45669SOL     OW41563   7.579   8.659  11.866  0.6887 -0.0049  0.2570
45669SOL    HW141564   7.513   8.599  11.900  1.2604 -1.2737 -0.8114
45669SOL    HW241565   7.536   8.702  11.792  1.0346 -0.8369 -0.4437
45670SOL     OW41566  11.453   6.995   0.312 -0.6012 -0.0834  0.2094
45670SOL    HW141567  11.399   6.986   0.390 -2.0250  2.4413 -0.4066
45670SOL    HW241568  11.469   7.089   0.303  2.0306 -0.5381 -0.9295
45671SOL     OW41569   6.159   5.133   7.260  0.6874  0.7372 -0.5249
45671SOL    HW141570   6.252   5.124   7.238  0.7368 -0.2066  0.0171
45671SOL    HW241571   6.127   5.201   7.201  1.8389  1.4472 -0.3603
45672SOL     OW41572  11.906   9.988   6.249  0.5474 -0.6128 -0.0863
45672SOL    HW141573  11.964  10.052   6.207  1.2766 -0.0732  1.6392
45672SOL    HW241574  11.899   9.916   6.186  0.8745  0.5298 -1.4632
45673SOL     OW41575   3.938   2.331   2.570  0.3018 -0.3615 -0.0100
45673SOL    HW141576   3.961   2.423   2.582  2.3534 -0.4754 -2.2326
45673SOL    HW241577   3.911   2.325   2.478  1.0305 -2.1005 -0.1448
45674SOL     OW41578  11.822   9.676   3.121 -0.2123  0.4288  0.1707
45674SOL    HW141579  11.850   9.635   3.039 -0.4662 -0.6341  0.6016
45674SOL    HW241580  11.731   9.701   3.105 -1.5060 -3.0476  1.2443
45675SOL     OW41581   6.441   1.562   6.223  0.1090  0.4448 -0.1170
45675SOL    HW141582   6.449   1.577   6.129 -0.4203 -2.2417 -0.6954
45675SOL    HW241583   6.531   1.547   6.252  0.1501 -0.1462 -0.5227
45676SOL     OW41584   6.381   9.212   6.282 -0.2378  0.2458 -0.4665
45676SOL    HW141585   6.366   9.295   6.328 -2.5351  0.0306 -0.7139
45676SOL    HW241586   6.436   9.161   6.342  0.8537  1.7577 -0.1202
45677SOL     OW41587   2.041   3.819   5.902  0.2641 -0.0966 -0.5756
45677SOL    HW141588   2.068   3.733   5.934  0.2985  0.2360  0.3249
45677SOL    HW241589   1.948   3.809   5.881  0.1415 -0.2266  0.0094
45678SOL     OW41590   1.952  11.811   4.844 -0.1434  0.4058 -0.0221
45678SOL    HW141591   2.018  11.748   4.872  0.9756  1.3944 -0.3828
45678SOL    HW241592   1.932  11.862   4.923 -0.0603  0.4796 -0.0488
45679SOL     OW41593   7.470   3.696   1.425 -0.9049 -0.3429  0.2756
45679SOL    HW141594   7.562   3.717   1.442 -1.2852 -0.6635  3.2666
45679SOL    HW241595   7.472   3.629   1.357  1.1276 -0.7233  0.6659
45680SOL     OW41596   9.902   7.687   3.568  0.2500 -0.1024  0.1717
45680SOL    HW141597   9.980   7.723   3.610 -0.2103  1.3148 -0.1545
45680SOL    HW241598   9.829   7.715   3.623 -0.0291 -1.8747  0.7813
45681SOL     OW41599   6.658   6.192   3.739  0.3922 -0.4896  0.2921
45681SOL    HW141600   6.658   6.283   3.708  0.1874 -0.3171  0.7711
45681SOL    HW241601   6.746   6.178   3.773  1.3346 -1.3875 -2.2877
45682SOL     OW41602   4.314   6.414   8.690 -0.1452  0.4391  0.4138
45682SOL    HW141603   4.360   6.459   8.761  1.0328 -0.8056  0.4757
45682SOL    HW241604   4.254   6.480   8.655 -0.2930  1.2795  2.1257
45683SOL     OW41605   2.735   0.118   6.607 -0.4563  0.0966  0.5647
45683SOL    HW141606   2.668   0.049   6.610 -0.9678  0.5868  3.4022
45683SOL    HW241607   2.817   0.071   6.592 -0.9002 -1.0566  1.5776
45684SOL     OW41608   5.951   8.640   1.105 -0.1005 -0.5033  0.2809
45684SOL    HW141609   5.990   8.645   1.192  0.0339  1.4033  0.1535
45684SOL    HW241610   5.866   8.682   1.115  0.3235  0.6452 -0.6880
45685SOL     OW41611  12.125  11.516   5.812  0.1665  0.6183 -0.0920
45685SOL    HW141612  12.085  11.442   5.766  0.8607  0.3742 -0.3122
45685SOL    HW241613  12.217  11.515   5.784  0.5969  0.4945  1.2685
45686SOL     OW41614   2.131   0.675   5.851  0.1377 -0.3634 -0.0165
45686SOL    HW141615   2.169   0.737   5.913  2.8316 -1.6367 -0.2614
45686SOL    HW241616   2.040   0.665   5.881  0.2747  1.8753  1.4063
45687SOL     OW41617   7.397   4.939   0.031  0.2532  0.1572  0.2457
45687SOL    HW141618   7.458   4.956  -0.040  0.7773 -1.0811  0.3779
45687SOL    HW241619   7.378   4.845   0.025 -0.5500  0.2464  1.0632
45688SOL     OW41620   7.044  11.498   5.657  0.4303 -0.7225  0.1083
45688SOL    HW141621   6.966  11.545   5.628  1.0594  0.9859  1.0345
45688SOL    HW241622   7.071  11.446   5.581 -2.1471 -2.1647  0.0820
45689SOL     OW41623   1.591   1.368   4.555  0.2605  0.6500 -0.1542
45689SOL    HW141624   1.563   1.336   4.469 -0.5708 -0.3282  0.4498
45689SOL    HW241625   1.509   1.381   4.603  0.6920  1.7627  0.3078
45690SOL     OW41626  10.200   0.074   1.801 -0.2084 -0.6248  0.2756
45690SOL    HW141627  10.111   0.049   1.776 -0.6646  1.8505 -0.9684
45690SOL    HW241628  10.256   0.006   1.764 -1.3128  0.0161 -2.9688
45691SOL     OW41629   7.236   2.201   5.931 -0.4389 -0.3720 -0.0698
45691SOL    HW141630   7.191   2.253   5.997 -1.3422 -2.0387  0.6961
45691SOL    HW241631   7.319   2.247   5.916 -0.8535  0.8228  1.1463
45692SOL     OW41632   6.358   2.435  10.198 -0.3876  0.2940  0.4270
45692SOL    HW141633   6.360   2.343  10.225 -0.4999  0.3716  0.6989
45692SOL    HW241634   6.380   2.433  10.105 -1.6097 -0.1293  0.1365
45693SOL     OW41635   1.633   0.631   8.476 -0.2169  0.4033  0.0691
45693SOL    HW141636   1.639   0.726   8.469 -1.0029  0.3812 -1.4196
45693SOL    HW241637   1.558   0.616   8.534  0.1704  0.6843  0.6469
45694SOL     OW41638   0.305   0.797   8.307 -0.2744  0.7290 -0.5939
45694SOL    HW141639   0.254   0.812   8.228 -1.3892  1.8478  0.3015
45694SOL    HW241640   0.244   0.758   8.369  0.4784  0.2214 -0.1560
45695SOL     OW41641   6.096  10.879  11.989  0.6170  0.1734 -0.2623
45695SOL    HW141642   6.097  10.961  11.939  2.7013  0.4485  0.1185
45695SOL    HW241643   6.147  10.819  11.935 -1.7517 -1.2824 -1.0451
45696SOL     OW41644   2.878  11.175   1.459  0.7314 -0.0745  0.1657
45696SOL    HW141645   2.826  11.233   1.402  0.0539 -0.7147  0.1135
45696SOL    HW241646   2.957  11.157   1.409  0.6985  0.3665 -0.0510
45697SOL     OW41647   3.760  10.079   1.422  0.4653 -0.0445 -0.0398
45697SOL    HW141648   3.849  10.108   1.401  0.7491 -0.1511  0.9534
45697SOL    HW241649   3.773   9.993   1.462 -0.1552 -0.4119 -0.6236
45698SOL     OW41650   9.290   1.724  12.007  0.3399  0.4871  0.3200
45698SOL    HW141651   9.380   1.734  12.038  0.6934  0.4169 -0.6781
45698SOL    HW241652   9.239   1.712  12.088  1.3574 -0.5531  0.8431
45699SOL     OW41653   9.878  10.233   0.321 -0.4030 -0.4260  0.4005
45699SOL    HW141654   9.841  10.227   0.409 -0.1644  0.5408  0.5779
45699SOL    HW241655   9.973  10.233   0.335 -0.3679  0.2867  0.1946
45700SOL     OW41656   0.345   8.285   3.074 -0.1331  0.2354 -0.1082
45700SOL    HW141657   0.438   8.306   3.085 -0.3310  0.7622  0.6234
45700SOL    HW241658   0.315   8.345   3.007 -0.0355  0.3430 -0.0562
45701SOL     OW41659   3.088   6.845   3.561 -0.2770  0.4754  0.4675
45701SOL    HW141660   3.076   6.925   3.613 -2.5405 -0.1890  1.0584
45701SOL    HW241661   3.064   6.774   3.620 -2.3955 -0.3532 -1.2439
45702SOL     OW41662  12.004   2.120  12.108  0.0367 -0.1859  0.0614
45702SOL    HW141663  12.099   2.122  12.123  0.4236 -0.0153 -2.0862
45702SOL    HW241664  11.974   2.208  12.131  0.4276 -0.1562  0.4848
45703SOL     OW41665  10.641   3.337   2.062 -0.0736 -0.3055  0.1609
45703SOL    HW141666  10.590   3.369   2.137  1.0260  0.9077  0.4233
45703SOL    HW241667  10.576   3.325   1.993 -0.6671  2.0202  0.2247
45704SOL     OW41668   9.807   9.569   9.027  0.3061 -0.8395  0.1695
45704SOL    HW141669   9.864   9.494   9.012  0.6044 -0.6019  0.1081
45704SOL    HW241670   9.720   9.531   9.041  0.6518 -1.2599  1.2675
45705SOL     OW41671   6.640   3.267   6.258 -0.2951 -0.0264  0.0193
45705SOL    HW141672   6.729   3.245   6.285 -0.9416 -1.9388  0.8131
45705SOL    HW241673   6.596   3.291   6.339 -0.8671 -0.5107 -0.1436
45706SOL     OW41674   3.358  11.940   2.634 -0.0080  0.2089  0.7786
45706SOL    HW141675   3.382  11.865   2.578 -1.2967 -0.6174  1.2719
45706SOL    HW241676   3.441  11.980   2.658  0.6629 -0.5083 -0.2626
45707SOL     OW41677  11.642   1.576   4.633 -0.6387  0.4774 -0.6008
45707SOL    HW141678  11.633   1.561   4.727  1.6551 -0.3935 -0.4589
45707SOL    HW241679  11.576   1.520   4.593  1.1888 -2.6090  0.3760
45708SOL     OW41680   8.341   6.962   6.885 -0.6055  0.2379 -0.2151
45708SOL    HW141681   8.332   6.916   6.802 -3.1494  0.1799  0.0013
45708SOL    HW241682   8.368   6.894   6.947 -0.0112 -0.0055 -0.7399
45709SOL     OW41683   7.018   0.340   1.636 -0.9766 -0.0061  0.0938
45709SOL    HW141684   7.012   0.254   1.678  0.2396  0.9742  2.4483
45709SOL    HW241685   7.101   0.337   1.590  0.2056  0.6037  2.0629
45710SOL     OW41686   6.756   3.063  11.321 -0.6804 -0.0263  0.0516
45710SOL    HW141687   6.821   3.038  11.255  0.7767  0.4010  1.2702
45710SOL    HW241688   6.749   3.158  11.314 -0.3815  0.0439  0.6101
45711SOL     OW41689   5.842   9.515   8.747  0.0087 -0.2775  0.0235
45711SOL    HW141690   5.774   9.480   8.805  2.0266 -2.7186  1.1555
45711SOL    HW241691   5.882   9.586   8.798 -0.7230  0.1950 -0.0461
45712SOL     OW41692  10.715   4.133  10.338 -0.5563  0.2661 -0.0169
45712SOL    HW141693  10.717   4.134  10.243 -0.4823 -1.3282 -0.0585
45712SOL    HW241694  10.628   4.168  10.360 -2.5612 -3.6225 -0.8951
45713SOL     OW41695   3.763   7.437   3.692  0.0880 -0.0228  0.5722
45713SOL    HW141696   3.778   7.374   3.622 -0.0872 -1.5824  1.8910
45713SOL    HW241697   3.834   7.501   3.682  1.4445 -1.5087  0.3851
45714SOL     OW41698   0.049   2.294   8.239  0.2642  0.1359 -0.2344
45714SOL    HW141699   0.118   2.358   8.224 -0.8364  1.6253  0.7184
45714SOL    HW241700  -0.022   2.320   8.180  0.0404 -0.6458 -0.3341
45715SOL     OW41701   0.319   4.272   0.929 -0.1748  0.5450  0.4640
45715SOL    HW141702   0.292   4.350   0.978 -0.7529  0.3301  0.5064
45715SOL    HW241703   0.343   4.208   0.997 -0.4024  0.4473  0.4550
45716SOL     OW41704   4.489   9.119   3.057  0.0413 -1.0681  0.0954
45716SOL    HW141705   4.492   9.052   3.125 -1.0835 -0.2073  1.0498
45716SOL    HW241706   4.531   9.079   2.981 -0.1659 -2.6605  0.7823
45717SOL     OW41707   9.844  11.344   5.988 -0.2538 -0.2682  0.1044
45717SOL    HW141708   9.904  11.340   6.062 -0.0149  0.9061 -0.0049
45717SOL    HW241709   9.761  11.375   6.025  0.1235  1.2555 -0.2210
45718SOL     OW41710   8.187  11.378   3.539 -0.5477 -0.2170  0.5802
45718SOL    HW141711   8.098  11.385   3.574 -0.0563  0.1756  1.8012
45718SOL    HW241712   8.240  11.434   3.595  0.6019 -1.0006  0.3230
45719SOL     OW41713   5.776   2.775  10.825 -0.0090  0.3938 -0.1730
45719SOL    HW141714   5.683   2.759  10.840 -0.7142  1.6734 -2.5939
45719SOL    HW241715   5.781   2.867  10.798  2.2027  0.8423  1.4215
45720SOL     OW41716   0.621   4.198   9.453 -0.4415  0.3680 -0.1514
45720SOL    HW141717   0.630   4.104   9.471  0.7555 -0.0573 -2.5545
45720SOL    HW241718   0.571   4.232   9.527  1.9812 -1.5086  2.6198
45721SOL     OW41719  11.162  11.165  12.051  0.2965 -0.0200 -0.4599
45721SOL    HW141720  11.197  11.237  11.998  1.6730  0.4355  0.9994
45721SOL    HW241721  11.216  11.164  12.130  1.5781 -3.8504 -1.1650
45722SOL     OW41722   6.044   5.287   6.981  0.2394 -0.6486 -0.3148
45722SOL    HW141723   6.077   5.348   6.915 -0.3475  0.6213  0.5209
45722SOL    HW241724   5.987   5.340   7.037 -0.4696 -2.0228  0.3229
45723SOL     OW41725   3.388   9.898   0.142  0.1296  0.5354 -0.0266
45723SOL    HW141726   3.309   9.910   0.090  0.0661  0.0267 -0.0537
45723SOL    HW241727   3.358   9.854   0.222  0.2315  1.2793  0.4298
45724SOL     OW41728   2.923   7.155   7.135  0.7820  0.4132 -0.0907
45724SOL    HW141729   2.885   7.117   7.215  0.3087 -0.9713 -0.9379
45724SOL    HW241730   3.015   7.132   7.140  0.2699 -2.3819 -1.3229
45725SOL     OW41731   6.307  10.426   0.592 -0.3210  0.0466 -0.4342
45725SOL    HW141732   6.321  10.521   0.588 -0.8863  0.1327 -0.3693
45725SOL    HW241733   6.254  10.407   0.515 -0.5877 -0.1539 -0.1994
45726SOL     OW41734   3.263   9.103   5.664  0.0705 -0.7295 -0.0704
45726SOL    HW141735   3.249   9.167   5.734 -0.1402 -0.7426 -0.0996
45726SOL    HW241736   3.353   9.073   5.676  0.2543 -0.2414 -0.2068
45727SOL     OW41737   8.981   6.555   0.087 -0.2965 -0.3674 -0.3066
45727SOL    HW141738   8.889   6.546   0.111 -0.6501  1.3272 -0.9005
45727SOL    HW241739   9.021   6.472   0.115 -1.9930 -1.1646 -0.0986
45728SOL     OW41740   0.579   7.348  10.633  0.1523  0.1165  0.3601
45728SOL    HW141741   0.604   7.269  10.586  1.0346  0.4897  0.1877
45728SOL    HW241742   0.561   7.412  10.564 -0.9003 -0.0206  0.4886
45729SOL     OW41743   1.601   0.975   7.548 -0.5526  0.2775  0.0181
45729SOL    HW141744   1.569   0.901   7.600  0.2954 -0.7577 -0.8909
45729SOL    HW241745   1.654   0.935   7.479 -1.2362  1.6412 -1.3568
45730SOL     OW41746   4.010   8.997   7.713  0.4163 -0.2655 -0.3337
45730SOL    HW141747   3.982   8.920   7.663  1.1097  0.4891 -1.9762
45730SOL    HW241748   3.930   9.046   7.730  0.1835 -0.4257 -0.9309
45731SOL     OW41749  10.542  11.723   7.675  0.2487  0.3228  1.0879
45731SOL    HW141750  10.545  11.658   7.604 -0.4515 -0.1738  1.4965
45731SOL    HW241751  10.631  11.757   7.680  0.9100 -1.3581  1.5331
45732SOL     OW41752   2.258   1.789   4.033 -0.4242 -0.3304  0.6136
45732SOL    HW141753   2.278   1.705   3.992  1.6036  1.0831 -1.5355
45732SOL    HW241754   2.326   1.801   4.099 -1.0964 -0.6097  1.3844
45733SOL     OW41755   6.588   2.929   5.467  0.1599 -0.1826 -0.1737
45733SOL    HW141756   6.572   2.919   5.373 -1.6730 -0.2287  0.1077
45733SOL    HW241757   6.555   2.849   5.506  0.6180 -0.0304  0.5481
45734SOL     OW41758   3.867   9.048   1.998  0.2093 -0.2036  0.5477
45734SOL    HW141759   3.800   9.046   2.067  1.1358 -3.2929  1.5192
45734SOL    HW241760   3.940   9.095   2.038 -0.6148  1.4409  0.1964
45735SOL     OW41761  12.104   9.391   8.377 -0.4191  0.0998 -0.0543
45735SOL    HW141762  12.157   9.323   8.417 -1.5798 -0.9445 -0.2432
45735SOL    HW241763  12.030   9.345   8.338 -2.5893  1.6097  1.9199
45736SOL     OW41764   1.886  11.120   7.194  0.0510 -0.4147 -0.4543
45736SOL    HW141765   1.916  11.190   7.136  0.1214 -1.5264 -1.8179
45736SOL    HW241766   1.900  11.040   7.144  0.8505 -1.5134  1.4176
45737SOL     OW41767   4.058   0.582  11.204  0.2978 -0.1294 -0.0357
45737SOL    HW141768   4.069   0.650  11.138 -0.0238  0.8065  0.8505
45737SOL    HW241769   4.012   0.511  11.159  0.2190  0.4355 -0.8483
45738SOL     OW41770   5.086  11.952  10.578 -0.4770  0.2684  0.0066
45738SOL    HW141771   5.078  11.934  10.484 -0.1272  1.2838 -0.2214
45738SOL    HW241772   5.176  11.981  10.590 -0.9550  1.6440  0.3960
45739SOL     OW41773  11.235   7.416   8.799 -0.0787 -0.0033  0.0244
45739SOL    HW141774  11.317   7.413   8.848  0.1069 -2.0803 -0.3138
45739SOL    HW241775  11.176   7.357   8.847 -0.1784 -1.3620 -1.6795
45740SOL     OW41776   3.405  11.240   9.101 -0.3749 -0.1531 -0.5161
45740SOL    HW141777   3.326  11.221   9.050  0.0146  3.2893 -2.7229
45740SOL    HW241778   3.476  11.203   9.049 -0.0866  2.3588 -2.0892
45741SOL     OW41779   3.798   5.654   9.322  0.4775 -0.4677  0.0005
45741SOL    HW141780   3.754   5.738   9.308 -1.5544 -1.6278 -1.2110
45741SOL    HW241781   3.867   5.652   9.257  0.6255  0.3188  0.1268
45742SOL     OW41782  10.417   1.060   9.069 -0.1204  0.6812 -0.0490
45742SOL    HW141783  10.353   1.016   9.013  0.4755  0.3173 -0.4580
45742SOL    HW241784  10.393   1.032   9.158  1.5821 -2.4216 -0.4036
45743SOL     OW41785   1.911   7.904   7.109  0.2860  0.5550  0.3903
45743SOL    HW141786   1.953   7.840   7.166 -0.4617  0.0080  0.3366
45743SOL    HW241787   1.848   7.949   7.165 -0.5330 -0.0635  0.0047
45744SOL     OW41788   0.678   3.251   0.513  0.1584  0.6042  0.0546
45744SOL    HW141789   0.643   3.311   0.447 -1.1745 -0.1273  0.0751
45744SOL    HW241790   0.611   3.248   0.581  0.0225 -1.1639 -0.1088
45745SOL     OW41791   7.584   8.692   4.722  0.5092  0.3855  0.1823
45745SOL    HW141792   7.502   8.740   4.711 -0.7750 -1.8900 -1.0638
45745SOL    HW241793   7.616   8.681   4.632  0.1560 -1.9218  0.2761
45746SOL     OW41794   9.721  10.862   9.191 -0.4060 -0.7048 -0.1708
45746SOL    HW141795   9.801  10.912   9.179  0.0511 -1.6452 -1.2105
45746SOL    HW241796   9.669  10.881   9.112 -0.1586 -1.9619 -0.6554
45747SOL     OW41797   9.696   9.934  10.218  0.1607 -0.2154  0.1465
45747SOL    HW141798   9.621   9.968  10.266 -0.0861 -0.8463  0.2069
45747SOL    HW241799   9.669   9.940  10.126 -0.5134 -1.6794  0.2137
45748SOL     OW41800  10.152   6.260  11.574  0.0255 -0.1221 -0.4115
45748SOL    HW141801  10.209   6.192  11.609  0.0819 -0.6179 -1.4314
45748SOL    HW241802  10.210   6.335  11.560 -0.1241  0.3194  1.1494
45749SOL     OW41803   7.222   3.432   9.441  0.0779  0.0920 -0.0895
45749SOL    HW141804   7.232   3.475   9.356  2.1379  0.4803  0.3084
45749SOL    HW241805   7.241   3.501   9.505 -2.5128  0.1049  0.7876
45750SOL     OW41806   7.420   6.737   6.986  0.0730 -0.8021 -0.0546
45750SOL    HW141807   7.379   6.651   6.998 -0.5927 -0.6931 -1.3739
45750SOL    HW241808   7.416   6.752   6.892  1.8103 -0.1082 -0.0557
45751SOL     OW41809   5.514   5.489   6.599  0.0150 -0.3706  0.2878
45751SOL    HW141810   5.487   5.556   6.535  0.5918  0.9053  1.3463
45751SOL    HW241811   5.455   5.415   6.582 -0.7774  0.4727 -0.7797
45752SOL     OW41812   7.540   8.127   2.276  0.2769 -0.7412  0.0993
45752SOL    HW141813   7.460   8.177   2.295 -0.2843 -2.0897  1.5364
45752SOL    HW241814   7.610   8.178   2.316  0.2890  0.7938 -1.7425
45753SOL     OW41815   0.095   5.629   7.974 -0.3884  0.5687 -0.2165
45753SOL    HW141816   0.034   5.683   8.024 -2.2052 -1.2792 -0.3179
45753SOL    HW241817   0.182   5.661   8.000 -1.3216  3.9970 -0.8536
45754SOL     OW41818   9.860   3.034  10.062  0.1365 -0.2461  0.1492
45754SOL    HW141819   9.931   3.068  10.117 -0.2125  0.0354  0.4320
45754SOL    HW241820   9.781   3.054  10.111 -0.0845 -1.3858  0.2737
45755SOL     OW41821   1.884  12.025   8.246  0.4532  0.1095 -0.0942
45755SOL    HW141822   1.845  12.076   8.317  0.1360  1.0774 -0.9271
45755SOL    HW241823   1.926  11.951   8.289 -1.2145 -0.2700  0.9378
45756SOL     OW41824   6.375   1.825   2.584  0.4894 -0.1712  0.3871
45756SOL    HW141825   6.443   1.870   2.534  0.1199 -0.9222 -0.8381
45756SOL    HW241826   6.418   1.803   2.667  0.5748  2.6876  1.2096
45757SOL     OW41827   1.842   1.613  10.397  0.5800 -0.5222 -0.0371
45757SOL    HW141828   1.866   1.573  10.481  2.1726 -3.3607 -1.7010
45757SOL    HW241829   1.923   1.651  10.364  0.4476 -1.1320 -1.1109
45758SOL     OW41830  10.190   1.953   2.590  0.7449  0.6540 -0.6156
45758SOL    HW141831  10.187   1.894   2.515 -0.0055  0.4610 -0.4401
45758SOL    HW241832  10.283   1.973   2.601  1.1478 -1.2492 -0.0905
45759SOL     OW41833   1.105   4.534   3.917 -0.2132  0.2449  0.1472
45759SOL    HW141834   1.084   4.441   3.905 -0.4767 -0.0644  2.4511
45759SOL    HW241835   1.029   4.570   3.962  0.5766  1.1551  0.7911
45760SOL     OW41836   1.653   3.609   6.015 -0.3532 -0.3946 -0.4977
45760SOL    HW141837   1.681   3.530   5.969  0.9752  1.2248 -2.6413
45760SOL    HW241838   1.704   3.680   5.976 -1.3997  1.5530  1.4165
45761SOL     OW41839   7.555   3.976   7.689  0.1374  0.2889  0.0861
45761SOL    HW141840   7.508   4.043   7.640 -1.2176  1.1790  2.4218
45761SOL    HW241841   7.488   3.912   7.714  1.2579 -1.5455 -1.3697
45762SOL     OW41842   8.485   9.904   7.125  0.5204 -0.0938 -0.0551
45762SOL    HW141843   8.514   9.822   7.085  0.3366 -1.1171  1.8059
45762SOL    HW241844   8.391   9.908   7.107  0.7141  0.2976 -1.0815
45763SOL     OW41845   1.125  11.647   9.687 -0.4846  0.3775  0.0006
45763SOL    HW141846   1.173  11.584   9.741 -1.8077 -0.3829  0.3163
45763SOL    HW241847   1.184  11.666   9.614  0.3239 -0.4821  0.4151
45764SOL     OW41848  11.387   8.768   2.674 -0.2063 -0.1131  0.2419
45764SOL    HW141849  11.478   8.773   2.644 -0.5131 -1.7399 -1.1064
45764SOL    HW241850  11.348   8.699   2.620 -1.8420 -0.5304  1.8778
45765SOL     OW41851  10.499   3.095   7.515  0.3987  0.4952  0.6871
45765SOL    HW141852  10.581   3.049   7.535 -0.2877 -0.5908  1.1188
45765SOL    HW241853  10.437   3.061   7.580 -1.0664 -0.6823 -1.2202
45766SOL     OW41854   8.060   4.679   6.781  0.0473  0.5544 -0.1974
45766SOL    HW141855   8.016   4.650   6.700  0.5472 -2.0628  0.3526
45766SOL    HW241856   7.995   4.732   6.826 -0.3363  1.8719 -2.1513
45767SOL     OW41857   7.321   0.604   4.508 -0.3195  0.3296  0.2959
45767SOL    HW141858   7.259   0.553   4.560 -1.1316 -0.2478 -1.1910
45767SOL    HW241859   7.360   0.541   4.448 -0.7268  1.2756 -1.0024
45768SOL     OW41860   6.617  10.654   1.607 -0.4101  0.3045 -0.3282
45768SOL    HW141861   6.602  10.635   1.515 -2.2021  0.1107 -0.0239
45768SOL    HW241862   6.700  10.611   1.627 -0.3091 -0.1781 -1.6913
45769SOL     OW41863   8.061   2.050   1.404  0.1166 -0.2505 -0.9334
45769SOL    HW141864   8.085   1.980   1.343  0.3138  0.3980 -1.5997
45769SOL    HW241865   8.143   2.074   1.446  0.0813 -0.2845 -0.8446
45770SOL     OW41866   1.894   4.281   6.844 -0.2061 -0.4362  0.0177
45770SOL    HW141867   1.891   4.186   6.854 -1.0328 -0.3820  0.3952
45770SOL    HW241868   1.918   4.313   6.931 -0.2124 -0.2898 -0.0348
45771SOL     OW41869   6.556   3.068   6.807 -0.1811 -0.2325 -0.2441
45771SOL    HW141870   6.587   3.104   6.891 -0.9923  0.1470 -0.0954
45771SOL    HW241871   6.469   3.033   6.827 -0.5556  0.2361 -1.0229
45772SOL     OW41872   3.992   9.651   1.276  0.0585 -0.2892  0.2001
45772SOL    HW141873   4.009   9.730   1.326  3.1453 -0.6020 -0.1942
45772SOL    HW241874   3.896   9.647   1.269 -0.2431  2.5105  1.5732
45773SOL     OW41875   5.720  12.047   6.227 -0.4137  0.0157 -0.2799
45773SOL    HW141876   5.770  11.966   6.240  1.9568  1.4050 -0.0771
45773SOL    HW241877   5.631  12.018   6.209  0.4546 -2.6388 -0.7001
45774SOL     OW41878   3.341  10.759   3.312  0.1200  0.2300  0.1440
45774SOL    HW141879   3.388  10.830   3.268 -0.2957  0.7821  0.5800
45774SOL    HW241880   3.272  10.803   3.361 -0.0192 -0.4628  0.5763
45775SOL     OW41881   0.835   0.276  11.868  0.2712  0.1297  0.1339
45775SOL    HW141882   0.778   0.270  11.791 -1.0370  1.5655  0.9381
45775SOL    HW241883   0.787   0.230  11.937  0.9074 -0.1459  0.4051
45776SOL     OW41884   3.189   8.132   0.359 -0.4982  0.1961 -0.7359
45776SOL    HW141885   3.149   8.076   0.426  1.4403 -1.0073 -0.5147
45776SOL    HW241886   3.114   8.173   0.315 -1.9229 -1.0768  0.3650
45777SOL     OW41887   9.363   5.382  11.428  0.2036  0.5753  0.2764
45777SOL    HW141888   9.282   5.367  11.379  0.0344  1.1292  0.3828
45777SOL    HW241889   9.407   5.297  11.428  0.2967  0.6046 -1.0113
45778SOL     OW41890   8.842  10.364   6.119 -0.0885  0.3587 -0.1650
45778SOL    HW141891   8.779  10.294   6.138 -0.2048  0.6635  0.6092
45778SOL    HW241892   8.833  10.425   6.191 -0.8972  1.8463 -1.4723
45779SOL     OW41893  10.287   0.856   7.961  0.0733 -0.3454 -0.0907
45779SOL    HW141894  10.366   0.803   7.968  0.5644  0.5116  1.6396
45779SOL    HW241895  10.242   0.843   8.045 -1.5296 -0.6374 -0.9454
45780SOL     OW41896   8.495   1.620  10.147 -0.0601 -0.1003 -0.1677
45780SOL    HW141897   8.461   1.610  10.236 -0.0148 -0.5034 -0.1960
45780SOL    HW241898   8.570   1.561  10.143  0.7267  0.8644 -0.0717
45781SOL     OW41899   4.290   9.766   3.556  0.0131 -0.0283  0.3769
45781SOL    HW141900   4.259   9.691   3.606 -0.1851 -0.5894 -0.5600
45781SOL    HW241901   4.265   9.842   3.608  1.4602 -0.6344  2.0378
45782SOL     OW41902   9.483   1.211   1.575 -0.4366  0.0286 -0.1467
45782SOL    HW141903   9.488   1.163   1.657  0.5728 -1.1756 -0.8796
45782SOL    HW241904   9.457   1.299   1.600  0.4981 -0.1387  1.5399
45783SOL     OW41905   4.799  11.598  11.389 -0.2153 -0.1593  0.1337
45783SOL    HW141906   4.835  11.682  11.417 -0.9247  0.0756  0.3655
45783SOL    HW241907   4.802  11.544  11.468 -0.5700 -0.0667  0.2130
45784SOL     OW41908   3.705   4.172   5.479 -0.1187 -0.0064 -0.3611
45784SOL    HW141909   3.618   4.210   5.470 -0.4845 -0.8529 -0.3968
45784SOL    HW241910   3.763   4.248   5.486 -0.8880  0.5566 -0.0055
45785SOL     OW41911   4.448   6.982   1.916  0.2518 -0.2647  0.7391
45785SOL    HW141912   4.477   7.038   1.844 -2.5798  1.0104  0.4502
45785SOL    HW241913   4.465   7.033   1.995  0.8577 -0.4954  0.7586
45786SOL     OW41914   1.889   9.226   6.120 -0.3703  0.8924 -0.1251
45786SOL    HW141915   1.839   9.300   6.155 -1.3258  1.3602 -2.2453
45786SOL    HW241916   1.825   9.177   6.068  0.7599 -0.1490 -0.5829
45787SOL     OW41917   7.121   6.422   7.856  0.0932 -0.0692  0.0711
45787SOL    HW141918   7.121   6.483   7.782  1.5919 -0.5283 -0.3421
45787SOL    HW241919   7.036   6.378   7.850 -0.1887  0.5443 -0.8202
45788SOL     OW41920  10.060   5.935   6.301  0.0153 -0.0516  0.4577
45788SOL    HW141921  10.079   5.931   6.207 -0.0401  0.3680  0.4257
45788SOL    HW241922  10.061   5.844   6.330  1.1291 -0.1076  0.2671
45789SOL     OW41923   3.863   0.758   0.876 -0.3169  0.0936  0.2214
45789SOL    HW141924   3.890   0.669   0.854 -2.3937 -0.4483 -0.3386
45789SOL    HW241925   3.920   0.783   0.949  0.9562 -1.2991 -0.2323
45790SOL     OW41926   7.723   1.665  11.582 -0.5155 -0.0898  0.2071
45790SOL    HW141927   7.774   1.606  11.638 -0.0404 -1.3840 -1.4922
45790SOL    HW241928   7.768   1.661  11.497 -0.1810  3.1142  0.1114
45791SOL     OW41929   9.049   0.787   7.323 -0.2123 -0.1530  0.2115
45791SOL    HW141930   9.060   0.749   7.409 -0.3569  0.8307  0.6812
45791SOL    HW241931   8.986   0.730   7.278  0.4883 -1.1335  0.4490
45792SOL     OW41932   6.823  11.808   6.419  0.7763 -0.2780 -0.2075
45792SOL    HW141933   6.896  11.748   6.407 -0.0360 -1.4380  0.5149
45792SOL    HW241934   6.781  11.780   6.501  0.1832  1.0677 -0.0186
45793SOL     OW41935   7.343  11.378  11.475  0.0755 -0.0011 -0.2231
45793SOL    HW141936   7.359  11.284  11.466  2.3935  0.0289  2.2264
45793SOL    HW241937   7.259  11.383  11.521  0.3222 -0.9489  0.3773
45794SOL     OW41938  11.183   4.908   0.092 -0.1432 -0.4696 -0.4242
45794SOL    HW141939  11.256   4.885   0.035 -0.2030 -0.6314 -0.4363
45794SOL    HW241940  11.202   4.864   0.175  1.2093  1.7028  0.5392
45795SOL     OW41941  11.223   4.743  11.491 -0.1056  0.3605 -0.0101
45795SOL    HW141942  11.144   4.695  11.516  0.0171  0.5734  0.8147
45795SOL    HW241943  11.191   4.820  11.444 -0.2992 -0.6317 -1.5814
45796SOL     OW41944  10.960   8.291   8.186  0.2705  0.0369  0.4656
45796SOL    HW141945  11.031   8.280   8.249  0.0621  1.1810  0.9265
45796SOL    HW241946  10.994   8.356   8.124 -0.4069  0.7147  0.7832
45797SOL     OW41947   4.641   5.177   7.153  0.4788  0.5887  0.5429
45797SOL    HW141948   4.549   5.187   7.128 -0.1248 -0.5645  2.1536
45797SOL    HW241949   4.687   5.162   7.070 -0.8551  0.6848 -0.2394
45798SOL     OW41950   7.557   1.284   1.760  0.0700  0.4028 -0.1818
45798SOL    HW141951   7.599   1.345   1.699 -0.3344  0.7529 -0.1147
45798SOL    HW241952   7.595   1.306   1.846 -0.0106  0.5032 -0.1714
45799SOL     OW41953  10.363   2.420   1.486 -0.0078 -0.2101 -0.2673
45799SOL    HW141954  10.297   2.470   1.533 -0.2072 -1.0121  0.3148
45799SOL    HW241955  10.313   2.363   1.428  0.1463 -1.1336  0.4918
45800SOL     OW41956   0.411   7.980   1.038  0.0681  0.2005 -0.0086
45800SOL    HW141957   0.357   7.901   1.046 -0.4489  0.4492 -0.9811
45800SOL    HW241958   0.484   7.964   1.098 -1.8036  0.5050  2.5116
45801SOL     OW41959  10.714   6.649   3.630  0.4612 -0.2720  0.1165
45801SOL    HW141960  10.707   6.556   3.611  0.3296 -0.0298 -1.1077
45801SOL    HW241961  10.657   6.691   3.566 -0.4262  0.5911  1.4009
45802SOL     OW41962   4.051   3.682   9.571  0.1733  0.0532 -0.2011
45802SOL    HW141963   4.072   3.775   9.575 -0.6871  0.2232  0.5987
45802SOL    HW241964   4.101   3.643   9.642 -0.4035  0.0969  0.2316
45803SOL     OW41965   9.609   4.481   6.038 -0.0808 -0.3382  0.5660
45803SOL    HW141966   9.613   4.393   6.076 -1.8982 -1.0217 -0.6569
45803SOL    HW241967   9.546   4.528   6.092  1.2722  0.4303  1.5340
45804SOL     OW41968  11.612  11.761  11.051  0.0393  0.2269  0.1692
45804SOL    HW141969  11.641  11.838  11.099  0.5234 -1.4626  2.8150
45804SOL    HW241970  11.530  11.736  11.093 -0.2515 -0.5416 -0.8292
45805SOL     OW41971   7.599  10.177   6.254  0.4338  0.5463 -0.6010
45805SOL    HW141972   7.634  10.094   6.286  2.3545  1.9294  1.1610
45805SOL    HW241973   7.674  10.222   6.215 -0.8788  0.9211 -2.9223
45806SOL     OW41974   2.095  11.843   8.342  0.7126  0.1056 -0.1063
45806SOL    HW141975   2.165  11.782   8.321  0.6419  0.1633 -0.5238
45806SOL    HW241976   2.140  11.926   8.360  1.0085 -0.5738  2.7281
45807SOL     OW41977   6.809   8.096   9.371  0.7910 -0.1595  0.0944
45807SOL    HW141978   6.789   8.153   9.445  0.8952  2.3302 -1.6356
45807SOL    HW241979   6.873   8.146   9.320 -0.8954 -0.6973 -2.7626
45808SOL     OW41980   5.241  11.974   7.435 -0.3063 -0.2667  0.4291
45808SOL    HW141981   5.257  12.059   7.393 -0.1229 -0.3903  0.2483
45808SOL    HW241982   5.153  11.949   7.405  1.3306 -2.3435 -3.3870
45809SOL     OW41983   7.264   3.784   4.441 -0.2261 -0.2205  0.1913
45809SOL    HW141984   7.299   3.763   4.528 -0.4460  0.3854  0.4313
45809SOL    HW241985   7.179   3.740   4.438 -2.2796  3.2614  2.0185
45810SOL     OW41986   6.275  11.293   6.828  0.4685 -0.1375 -0.3802
45810SOL    HW141987   6.259  11.199   6.814  0.3155 -0.6478  2.4632
45810SOL    HW241988   6.193  11.326   6.865  0.7333  0.9750 -0.7676
45811SOL     OW41989   9.028   4.121   0.696  0.0010  0.0423  0.7577
45811SOL    HW141990   8.968   4.146   0.767  1.1389  0.1026  1.7255
45811SOL    HW241991   9.104   4.085   0.741  0.3105 -0.9041 -0.4858
45812SOL     OW41992   2.660   5.334   6.788  0.0283  0.0303  0.1187
45812SOL    HW141993   2.709   5.416   6.784 -0.7712  0.5257  0.1664
45812SOL    HW241994   2.615   5.330   6.703 -0.1120 -0.2445  0.2068
45813SOL     OW41995   9.718   7.171   9.935  0.0028 -0.0119  0.6023
45813SOL    HW141996   9.656   7.176   9.862  3.2400  0.7164 -2.3532
45813SOL    HW241997   9.745   7.079   9.936  2.3561  0.5557 -1.4779
45814SOL     OW41998   9.869   4.994   4.844 -0.2943  0.0709 -0.1522
45814SOL    HW141999   9.780   5.029   4.836 -0.8519 -1.1189  0.5381
45814SOL    HW242000   9.858   4.899   4.837  0.9943 -0.0599 -0.5848
45815SOL     OW42001   5.586   6.533  10.295  0.1510  0.4579 -0.1259
45815SOL    HW142002   5.544   6.508  10.378 -0.8016  0.2587 -0.6561
45815SOL    HW242003   5.677   6.551  10.319 -0.1744  0.6768  1.0132
45816SOL     OW42004   0.798   6.077   4.395 -0.0323 -0.5195  0.1215
45816SOL    HW142005   0.787   6.065   4.489  1.2673 -0.8880  0.2485
45816SOL    HW242006   0.837   6.165   4.387 -0.2552 -0.4381 -0.0859
45817SOL     OW42007   5.640   0.072   5.974 -0.0536 -0.5621  0.1147
45817SOL    HW142008   5.572   0.114   5.921  0.6805 -1.5518 -1.7175
45817SOL    HW242009   5.593   0.005   6.024 -0.6154 -0.3418 -0.1113
45818SOL     OW42010   4.417  10.054  10.988 -0.0666  0.0337  0.3160
45818SOL    HW142011   4.381  10.136  11.023  0.6891  0.2258  0.6707
45818SOL    HW242012   4.485  10.030  11.051  1.7623  0.7093 -1.3145
45819SOL     OW42013   1.346   8.970   3.063  0.3994  0.1307 -0.0645
45819SOL    HW142014   1.361   8.984   3.157 -0.7221 -0.3508  0.2038
45819SOL    HW242015   1.407   9.030   3.020 -0.9405  2.3957  0.9974
45820SOL     OW42016   1.744  11.890   5.873 -0.1531 -0.4098  0.2790
45820SOL    HW142017   1.710  11.941   5.800  0.8287 -1.5882 -1.0645
45820SOL    HW242018   1.758  11.954   5.943 -2.0476  0.5931 -0.1806
45821SOL     OW42019   2.890   1.259  10.124  0.4664 -0.1715  0.1890
45821SOL    HW142020   2.822   1.257  10.190  0.3210  0.8958  0.1012
45821SOL    HW242021   2.850   1.304  10.049  1.6659  1.8715  0.6732
45822SOL     OW42022   0.676   0.823   7.523 -0.5336 -0.8901 -0.4560
45822SOL    HW142023   0.724   0.896   7.563  0.0008 -1.5087  0.0385
45822SOL    HW242024   0.736   0.787   7.458 -0.9505 -0.6434 -0.9850
45823SOL     OW42025   7.919   7.042   1.528 -0.3470  0.3202 -0.0253
45823SOL    HW142026   7.960   6.960   1.558 -0.3753  1.0926  2.2929
45823SOL    HW242027   7.988   7.107   1.533 -0.5430  0.6448 -1.1004
45824SOL     OW42028   2.425   9.908   2.738  0.0545 -0.0628  0.1717
45824SOL    HW142029   2.456   9.987   2.781  0.0803  0.7427 -1.2557
45824SOL    HW242030   2.466   9.836   2.786  1.2421  0.8398  0.5453
45825SOL     OW42031  11.718  11.993  10.459 -0.6361 -0.1849  0.4919
45825SOL    HW142032  11.788  11.997  10.394 -1.4981  1.5812 -0.3770
45825SOL    HW242033  11.758  11.946  10.533  1.5377  0.9267  0.1108
45826SOL     OW42034   4.761   3.924   6.315  0.1974 -0.3843  0.4196
45826SOL    HW142035   4.849   3.937   6.350  1.2575 -2.6403 -1.1395
45826SOL    HW242036   4.765   3.839   6.272 -2.4515 -0.0405 -0.6988
45827SOL     OW42037   2.507   1.584  11.911 -0.0988  0.2958  0.2558
45827SOL    HW142038   2.546   1.497  11.919 -0.8497 -0.0507  0.2688
45827SOL    HW242039   2.542   1.620  11.830  0.5318  0.1488  0.4582
45828SOL     OW42040   2.047   6.220  10.453  0.1572 -0.2098 -0.4009
45828SOL    HW142041   2.134   6.232  10.415 -0.1494 -0.0707 -1.0605
45828SOL    HW242042   2.045   6.281  10.527  0.3643  0.2795 -0.8003
45829SOL     OW42043   2.852  10.429   8.459 -0.0793 -0.0614  0.5845
45829SOL    HW142044   2.852  10.333   8.461 -1.2102 -0.1006 -0.0526
45829SOL    HW242045   2.805  10.455   8.538  1.2942  0.0246  1.4003
45830SOL     OW42046   6.744   4.926   9.960  0.3455  0.2906 -0.0788
45830SOL    HW142047   6.670   4.905  10.017 -1.3150  1.7982 -1.5361
45830SOL    HW242048   6.821   4.913  10.015 -1.1424  1.8289  2.5847
45831SOL     OW42049   6.526   3.387   4.400  0.7042 -0.3116  0.2612
45831SOL    HW142050   6.537   3.331   4.323 -1.3299  1.6405 -1.5850
45831SOL    HW242051   6.456   3.346   4.451  0.0428 -0.0984 -0.4659
45832SOL     OW42052  10.814   0.110   1.388  0.1871 -0.1890  0.0687
45832SOL    HW142053  10.847   0.140   1.303 -0.8261 -2.4212 -1.2107
45832SOL    HW242054  10.796   0.017   1.375 -0.1765 -0.5693  2.7119
45833SOL     OW42055   0.926   4.065   2.183  0.2020  0.5640  0.4263
45833SOL    HW142056   0.918   4.159   2.165  0.7857  0.5023 -0.1996
45833SOL    HW242057   1.000   4.037   2.130 -1.7118 -0.8331 -1.6973
45834SOL     OW42058   6.946   2.937   2.934  0.3543 -0.3696 -0.5485
45834SOL    HW142059   6.871   2.877   2.935  1.9000 -2.4585 -1.5589
45834SOL    HW242060   7.005   2.903   3.001  1.1730  0.1499 -0.9842
45835SOL     OW42061   1.190   6.261   4.737 -0.1183  0.0387 -0.5020
45835SOL    HW142062   1.219   6.195   4.674 -1.0557 -1.6939  0.8300
45835SOL    HW242063   1.243   6.338   4.716  1.7510 -1.4243 -1.4320
45836SOL     OW42064   7.388   4.649   2.473 -0.4662  0.3583  0.1071
45836SOL    HW142065   7.406   4.558   2.498 -1.0048  0.5623  1.3330
45836SOL    HW242066   7.428   4.701   2.543  0.2331  1.0918 -0.8215
45837SOL     OW42067   3.540   1.604  11.973  0.6800  0.6872 -0.2840
45837SOL    HW142068   3.477   1.602  11.901  1.4110  1.0096 -0.9421
45837SOL    HW242069   3.576   1.692  11.972  1.4789  0.3756 -0.2241
45838SOL     OW42070   2.167   4.578   7.094  0.1539 -0.1742 -0.5883
45838SOL    HW142071   2.224   4.595   7.019  1.1520  3.0722  0.7136
45838SOL    HW242072   2.092   4.635   7.081 -0.0554 -0.1798  0.4716
45839SOL     OW42073   1.726  10.432   7.076  0.0237  0.1946 -0.3714
45839SOL    HW142074   1.651  10.439   7.135  0.9526  0.6259  0.8004
45839SOL    HW242075   1.788  10.375   7.121 -0.2046 -1.4566 -2.0261
45840SOL     OW42076   3.218   0.026   6.933 -0.1205 -0.5102  0.7605
45840SOL    HW142077   3.134   0.019   6.889  0.7832 -0.9118 -1.0074
45840SOL    HW242078   3.246   0.116   6.918  0.3988 -0.7756  0.0750
45841SOL     OW42079   9.998   8.111   6.699 -0.2758  0.0169 -0.3583
45841SOL    HW142080   9.908   8.085   6.680 -0.7014  2.0293 -1.3215
45841SOL    HW242081  10.004   8.201   6.669  2.3881 -0.3953 -1.3502
45842SOL     OW42082   6.181   8.692   7.299  0.0018 -0.3386  0.1198
45842SOL    HW142083   6.259   8.746   7.303 -0.1074 -0.1164 -0.5119
45842SOL    HW242084   6.204   8.622   7.237 -0.1443 -0.5227  0.2742
45843SOL     OW42085   9.790   2.454   3.391  0.0593 -0.4639 -0.0422
45843SOL    HW142086   9.711   2.500   3.419  1.8271  3.4147 -0.6935
45843SOL    HW242087   9.850   2.463   3.464  1.2973  0.6461 -1.1287
45844SOL     OW42088   0.680   4.275   1.096  0.1203 -0.4941  0.5921
45844SOL    HW142089   0.585   4.278   1.103  0.1176 -2.3758  3.0192
45844SOL    HW242090   0.705   4.362   1.065 -2.2724  0.8400  2.0548
45845SOL     OW42091   4.022   2.757   8.852 -0.0927  0.6661  0.5857
45845SOL    HW142092   3.960   2.707   8.799 -0.1143  1.3285 -0.0297
45845SOL    HW242093   3.991   2.747   8.942  0.5630 -1.3735  0.6273
45846SOL     OW42094   0.855   8.795   5.329 -0.1782  0.3239 -0.1836
45846SOL    HW142095   0.935   8.751   5.301 -1.1741 -1.3156 -0.6116
45846SOL    HW242096   0.836   8.757   5.415  0.2729  1.7893  0.5864
45847SOL     OW42097  10.613   5.560   2.868 -0.5468  0.1626 -0.4114
45847SOL    HW142098  10.674   5.503   2.914  0.4150  0.3321 -1.4130
45847SOL    HW242099  10.577   5.617   2.936 -2.9093 -2.6763  0.9701
45848SOL     OW42100   7.483   2.638   4.978  0.1048 -0.1182 -0.0285
45848SOL    HW142101   7.428   2.614   4.903  1.5770  0.2755 -1.2720
45848SOL    HW242102   7.572   2.640   4.943  1.5571 -4.3807  2.6620
45849SOL     OW42103   9.966   6.352   6.646 -0.4207  0.3177 -0.1403
45849SOL    HW142104   9.970   6.303   6.564 -1.0948  0.3715 -0.2070
45849SOL    HW242105  10.058   6.365   6.670 -0.2169  0.2714 -0.8646
45850SOL     OW42106   2.360   7.715  10.329 -0.3881  0.3905 -0.1536
45850SOL    HW142107   2.305   7.662  10.271  0.1875  1.4681 -1.7688
45850SOL    HW242108   2.311   7.720  10.411  0.3358 -4.1106  0.7853
45851SOL     OW42109  10.808   7.233   2.113  0.0039  0.3438  0.1198
45851SOL    HW142110  10.809   7.210   2.206 -1.0771  2.1318  0.6131
45851SOL    HW242111  10.817   7.328   2.112  1.5353  0.2287 -1.6981
45852SOL     OW42112   5.322   8.587   7.099  0.2008  0.1612 -0.4233
45852SOL    HW142113   5.342   8.668   7.145 -0.1525  0.6085 -1.0371
45852SOL    HW242114   5.321   8.520   7.167 -0.8500  0.8932  0.3124
45853SOL     OW42115   6.197   3.130   6.236 -0.0585  0.2788  0.0881
45853SOL    HW142116   6.223   3.040   6.216 -2.6426 -0.0773 -2.3977
45853SOL    HW242117   6.125   3.119   6.299  0.4566  0.6925  0.7484
45854SOL     OW42118  10.116   4.432   3.315  0.1699 -0.3872 -0.6110
45854SOL    HW142119  10.072   4.390   3.241  0.7011 -1.8903 -0.0999
45854SOL    HW242120  10.207   4.401   3.310 -0.1014 -1.6852  1.4691
45855SOL     OW42121   2.930   3.981   4.329  0.5923  0.4334  0.0207
45855SOL    HW142122   2.862   4.049   4.338  1.5874  1.6000 -0.9311
45855SOL    HW242123   2.954   3.960   4.419 -0.8738  0.1328  0.3725
45856SOL     OW42124  11.447   3.291   0.772 -0.0883 -0.0931 -0.1388
45856SOL    HW142125  11.400   3.219   0.729 -0.3084 -0.9988  1.5453
45856SOL    HW242126  11.402   3.370   0.742  0.8105 -0.4791 -2.8681
45857SOL     OW42127   8.929   9.414   2.409 -0.2937 -0.1941  0.1131
45857SOL    HW142128   8.867   9.364   2.463 -0.5678 -0.1918 -0.1965
45857SOL    HW242129   9.015   9.380   2.433 -0.4477 -0.5229  0.2076
45858SOL     OW42130   5.554   6.007  10.199 -0.3554  0.4026  0.0108
45858SOL    HW142131   5.567   6.093  10.241 -0.5724 -0.9435  3.0992
45858SOL    HW242132   5.473   5.974  10.238 -1.0100 -0.7116 -2.1442
45859SOL     OW42133   7.759   3.908   6.678  0.6467  0.3449 -0.3090
45859SOL    HW142134   7.806   3.854   6.742  1.1205 -1.5315 -2.0931
45859SOL    HW242135   7.793   3.996   6.691  0.4500  0.1080  2.2170
45860SOL     OW42136   8.253   8.314   8.230 -0.5004  0.1573  0.4371
45860SOL    HW142137   8.167   8.272   8.238 -0.3492 -0.0462  1.0466
45860SOL    HW242138   8.246   8.393   8.284 -1.2679  1.7477 -1.8423
45861SOL     OW42139  10.641   6.766   7.951 -0.2256 -0.5866  0.2178
45861SOL    HW142140  10.574   6.813   7.901 -0.5991 -1.0916  0.2361
45861SOL    HW242141  10.709   6.832   7.967 -0.0274 -0.4491 -1.0806
45862SOL     OW42142  11.976   7.575   7.568 -0.2945 -0.4603  0.5377
45862SOL    HW142143  11.998   7.504   7.508  1.3936  2.3685 -2.5114
45862SOL    HW242144  11.951   7.648   7.512  1.6660  2.5434  3.1850
45863SOL     OW42145   5.931   9.092   7.284 -0.3572  0.8633  0.0730
45863SOL    HW142146   5.890   9.047   7.210  2.2175 -0.0891 -0.9280
45863SOL    HW242147   5.966   9.021   7.338  0.0945  1.5914  0.7612
45864SOL     OW42148   1.583   3.166   4.414  0.3157  0.2330 -0.2524
45864SOL    HW142149   1.611   3.171   4.506  0.8559  0.3940 -0.4185
45864SOL    HW242150   1.488   3.162   4.418  0.3745 -2.6105  0.4384
45865SOL     OW42151   1.996   6.988  10.036  0.3727 -0.2917 -0.2643
45865SOL    HW142152   2.025   6.942   9.957  1.2281  0.8711 -0.6609
45865SOL    HW242153   2.074   7.036  10.066 -0.6212  1.3620 -0.2123
45866SOL     OW42154   6.335   4.677   8.458 -0.0682 -0.2604  0.5785
45866SOL    HW142155   6.430   4.663   8.464 -0.1881 -1.3906 -0.0022
45866SOL    HW242156   6.301   4.649   8.543  0.0078 -0.9036  0.4023
45867SOL     OW42157   6.052   0.744   5.321  0.0174  0.9196 -1.0853
45867SOL    HW142158   5.991   0.813   5.293  0.2628  1.9359  0.7322
45867SOL    HW242159   6.008   0.703   5.395  0.4922  0.0357 -1.2859
45868SOL     OW42160   4.018   0.926   6.125  0.1793  0.4371  0.1573
45868SOL    HW142161   3.990   1.010   6.088 -0.2295 -0.0318 -0.6289
45868SOL    HW242162   4.113   0.925   6.114  0.5431  1.9265  2.5899
45869SOL     OW42163   0.850   8.300  12.053 -0.3513  0.0448 -0.4058
45869SOL    HW142164   0.754   8.301  12.056 -0.3642  1.7975  0.1953
45869SOL    HW242165   0.874   8.390  12.029  1.1535 -0.1295  0.3181
45870SOL     OW42166   2.825   9.440   8.103 -0.1910  0.2710 -0.6658
45870SOL    HW142167   2.811   9.346   8.110  1.1318  0.0351 -0.9383
45870SOL    HW242168   2.914   9.449   8.069  0.4096  1.6326  1.1156
45871SOL     OW42169  11.762   4.256   6.581 -0.5101  0.7028 -0.4728
45871SOL    HW142170  11.824   4.202   6.533 -0.0598  0.6494  0.1529
45871SOL    HW242171  11.795   4.256   6.671 -1.4399  0.6226 -0.1125
45872SOL     OW42172   3.712   2.582   2.265  0.5259  0.2121  0.4018
45872SOL    HW142173   3.676   2.554   2.182 -0.2166  1.3890  0.3023
45872SOL    HW242174   3.752   2.503   2.302  0.9397 -0.3093 -1.0862
45873SOL     OW42175   5.318   2.229   3.396 -0.0907 -0.3818  0.1559
45873SOL    HW142176   5.375   2.301   3.420  1.4251 -0.2776 -3.0930
45873SOL    HW242177   5.230   2.258   3.417  0.7077  1.2960  1.3164
45874SOL     OW42178   2.550   4.009   1.309 -0.5976  0.0778  0.4640
45874SOL    HW142179   2.576   4.035   1.397  1.5428 -1.6793  0.4284
45874SOL    HW242180   2.589   4.076   1.252  0.1842 -0.1526  0.7100
45875SOL     OW42181   0.781   7.692   4.460 -0.4418 -0.3339 -0.1035
45875SOL    HW142182   0.704   7.749   4.447  0.7080  1.0445 -1.2510
45875SOL    HW242183   0.746   7.603   4.451 -1.9930  0.2362 -0.1240
45876SOL     OW42184   9.224  11.029  10.975  0.0271 -0.0415 -0.4639
45876SOL    HW142185   9.275  11.035  10.894 -0.6239  1.2379 -0.7937
45876SOL    HW242186   9.133  11.026  10.945 -0.2711  1.4279  0.2460
45877SOL     OW42187   0.060  10.459  11.495 -0.4753  0.1096  0.3601
45877SOL    HW142188   0.091  10.524  11.559 -0.9351 -0.8856  1.6476
45877SOL    HW242189  -0.026  10.492  11.469 -1.1069 -0.4134  1.7006
45878SOL     OW42190   0.970  10.769   9.969 -0.3156  0.1440  0.1068
45878SOL    HW142191   0.915  10.838  10.006  1.6082  1.9165 -0.1653
45878SOL    HW242192   1.047  10.815   9.936  2.6138 -2.4416  2.7692
45879SOL     OW42193   8.109  10.408   5.756  0.0392  0.3246 -0.1788
45879SOL    HW142194   8.029  10.359   5.736 -0.1035  0.9396 -1.1700
45879SOL    HW242195   8.144  10.365   5.834 -0.4667 -0.8764 -0.5891
45880SOL     OW42196   0.123   1.110   6.551  0.1297  0.1837  0.1984
45880SOL    HW142197   0.118   1.177   6.619 -0.2714 -1.6011  2.0599
45880SOL    HW242198   0.038   1.066   6.555  0.7272 -1.0494 -0.2633
45881SOL     OW42199   0.120  11.676   6.618  0.4668 -0.3096 -0.0722
45881SOL    HW142200   0.162  11.611   6.562  0.3873 -0.6330  0.2379
45881SOL    HW242201   0.093  11.626   6.696  0.2566  0.0605  0.0929
45882SOL     OW42202  11.273   0.066   3.385 -0.0300  0.1516  0.2877
45882SOL    HW142203  11.194   0.037   3.340  0.3350  1.0326 -0.9731
45882SOL    HW242204  11.253   0.154   3.416 -0.0059 -0.1522  1.1845
45883SOL     OW42205   7.575  10.869   3.873  0.6711  0.5435  0.1312
45883SOL    HW142206   7.552  10.782   3.906  1.5132  0.1855 -0.2150
45883SOL    HW242207   7.525  10.929   3.928  0.3957 -0.1391  0.6367
45884SOL     OW42208   8.839   1.676   1.643 -1.0167 -0.3668  0.2065
45884SOL    HW142209   8.896   1.740   1.685 -2.4379  1.0312  0.1065
45884SOL    HW242210   8.852   1.596   1.694 -1.4254  0.8060  2.3012
45885SOL     OW42211  10.946   1.167   3.269  0.1987 -0.2724 -0.2888
45885SOL    HW142212  10.923   1.235   3.205  2.7373  2.3715  1.3286
45885SOL    HW242213  10.926   1.207   3.354  2.2476 -1.2883  0.7444
45886SOL     OW42214   4.428   3.417   9.663  0.0525  0.7442 -0.2412
45886SOL    HW142215   4.492   3.474   9.705  0.0486 -0.1438  1.0281
45886SOL    HW242216   4.343   3.450   9.692 -0.0134  1.0073 -0.7228
45887SOL     OW42217   9.266   1.629   9.757  0.1121 -0.2292  0.4967
45887SOL    HW142218   9.299   1.719   9.766  1.5171 -0.7276  0.6717
45887SOL    HW242219   9.205   1.633   9.684  0.0073  0.9050  0.6213
45888SOL     OW42220   2.683  11.332   0.695  0.2249  0.3848 -0.4555
45888SOL    HW142221   2.681  11.238   0.677  1.4698  0.2697 -0.0802
45888SOL    HW242222   2.593  11.355   0.714 -0.2257 -0.5783 -1.3280
45889SOL     OW42223   8.639   3.191   9.234  0.1630  0.2056  0.0734
45889SOL    HW142224   8.564   3.249   9.221  0.0241 -0.1251 -0.6263
45889SOL    HW242225   8.712   3.251   9.254 -0.4857  0.4706  1.8019
45890SOL     OW42226   1.129  10.961   3.577 -0.3046 -0.4896 -0.0921
45890SOL    HW142227   1.147  10.898   3.647 -0.3048  0.4892  0.8080
45890SOL    HW242228   1.183  10.931   3.504  0.7018 -0.7935  0.7510
45891SOL     OW42229   7.835   3.323  10.218  0.3067  0.8147 -0.4754
45891SOL    HW142230   7.762   3.268  10.188  0.3365  0.8026 -0.5249
45891SOL    HW242231   7.815   3.339  10.310  0.5785  0.2732 -0.3193
45892SOL     OW42232   2.928   4.904  10.700 -0.2135  0.4968  0.3012
45892SOL    HW142233   2.924   4.917  10.795 -0.3502  1.6192  0.1556
45892SOL    HW242234   2.888   4.819  10.686 -0.8762  0.6509  1.1868
45893SOL     OW42235   0.987   6.087   5.392  0.0833  0.7560  0.6990
45893SOL    HW142236   1.078   6.060   5.378  0.7446  2.1205  2.1398
45893SOL    HW242237   0.993   6.179   5.417 -1.7665  1.0517  0.1673
45894SOL     OW42238   5.733   5.802  10.958  0.0282  0.2837 -0.5402
45894SOL    HW142239   5.685   5.725  10.988 -0.0024  0.3484 -0.4261
45894SOL    HW242240   5.672   5.846  10.899 -0.3213  0.7635  0.1823
45895SOL     OW42241   7.975   1.674   9.610 -0.1219  0.0288 -0.7536
45895SOL    HW142242   7.948   1.697   9.699 -0.3580  0.3978 -0.9188
45895SOL    HW242243   8.061   1.634   9.621  0.2560  0.9062 -0.4509
45896SOL     OW42244  11.377   5.930   7.222  0.1181  0.3072  0.4063
45896SOL    HW142245  11.430   5.883   7.158 -0.6106 -2.8224  1.9034
45896SOL    HW242246  11.429   6.006   7.246  2.3226 -0.7748 -0.6853
45897SOL     OW42247   6.887  11.798   1.226 -0.2056 -0.1894  0.1050
45897SOL    HW142248   6.873  11.882   1.269  1.2488  0.3468 -0.4153
45897SOL    HW242249   6.815  11.743   1.256 -0.3459  0.7857  1.6328
45898SOL     OW42250   6.842   3.917   5.809 -0.2582 -0.0005 -0.4222
45898SOL    HW142251   6.816   3.848   5.870 -1.6611  1.4315  0.7001
45898SOL    HW242252   6.826   3.880   5.722  0.6983 -1.6883  0.0904
45899SOL     OW42253   6.466   1.459   2.360 -0.1631  0.1363  0.1874
45899SOL    HW142254   6.504   1.383   2.404  1.2382  1.7168  1.8560
45899SOL    HW242255   6.384   1.475   2.405 -0.5671 -0.4876 -0.3100
45900SOL     OW42256   0.855   7.881   3.571 -0.2253 -0.4297  0.4721
45900SOL    HW142257   0.893   7.865   3.484  0.0089  0.8682  0.3205
45900SOL    HW242258   0.912   7.946   3.611  0.5503 -2.1039  2.2284
45901SOL     OW42259  10.753   7.126   6.817 -0.6531  0.2059 -0.2929
45901SOL    HW142260  10.813   7.169   6.878 -1.6792  0.7093  0.3905
45901SOL    HW242261  10.810   7.074   6.760  0.6017  2.1521 -0.8935
45902SOL     OW42262  10.863  10.167   1.516  0.0578 -0.2380 -0.0127
45902SOL    HW142263  10.816  10.243   1.483  2.0171  1.2775  0.4891
45902SOL    HW242264  10.952  10.177   1.481  0.8227 -1.3692  1.4886
45903SOL     OW42265  11.543   0.417  10.807 -0.5390 -0.5807  0.1520
45903SOL    HW142266  11.497   0.479  10.864 -0.4825 -0.9974  0.6617
45903SOL    HW242267  11.525   0.332  10.846  1.3805 -0.6942  0.8727
45904SOL     OW42268   8.064   9.790   6.053  0.4988 -0.0635 -0.1587
45904SOL    HW142269   8.042   9.814   5.963 -0.5295 -1.2298 -0.2446
45904SOL    HW242270   8.151   9.751   6.047  1.3088  1.6996 -0.3139
45905SOL     OW42271  10.951   1.048   5.993  0.3178  0.2485  0.1417
45905SOL    HW142272  10.903   1.116   6.041  1.0424  1.5707 -0.9333
45905SOL    HW242273  11.017   1.018   6.055 -1.1398 -0.8237  1.2604
45906SOL     OW42274   9.828   5.983   4.773  0.5146 -0.1014  1.1204
45906SOL    HW142275   9.922   5.996   4.779  0.6552 -0.4403 -0.0378
45906SOL    HW242276   9.790   6.055   4.822  1.3673  0.9042  0.3503
45907SOL     OW42277   2.567   5.632   2.149  0.0463 -0.3432  0.1509
45907SOL    HW142278   2.650   5.652   2.105  0.0192  0.5018  0.4820
45907SOL    HW242279   2.590   5.567   2.215  0.1533 -1.3476 -0.8426
45908SOL     OW42280  11.452   5.882   7.618 -0.2553  0.7317  0.2950
45908SOL    HW142281  11.469   5.884   7.712 -0.9283 -0.5161  0.4631
45908SOL    HW242282  11.393   5.956   7.602 -0.6230  0.5881  0.9631
45909SOL     OW42283   7.468   7.314   0.439  0.1300 -0.1819  0.5228
45909SOL    HW142284   7.466   7.244   0.374  0.6543  0.2496  0.0397
45909SOL    HW242285   7.414   7.280   0.511 -1.6334 -0.0923 -0.6823
45910SOL     OW42286   2.089  11.757   7.545 -0.1032  0.3981 -0.1469
45910SOL    HW142287   2.152  11.738   7.475 -1.0997  1.0483 -1.2464
45910SOL    HW242288   2.003  11.749   7.504 -0.6893  4.0806  0.0660
45911SOL     OW42289   8.249   6.214   0.025 -0.3453 -0.4257 -0.0321
45911SOL    HW142290   8.328   6.208   0.078  1.1080  0.1503 -1.9930
45911SOL    HW242291   8.177   6.218   0.088  1.0999 -1.8015  1.8142
45912SOL     OW42292   4.485   0.444   5.984 -0.0881 -0.2187  0.2047
45912SOL    HW142293   4.410   0.387   5.966  0.0001 -0.3600  0.2845
45912SOL    HW242294   4.461   0.528   5.945 -1.2457  0.4097  2.0879
45913SOL     OW42295  11.833   6.697  11.291 -0.0965 -0.1519  0.1718
45913SOL    HW142296  11.746   6.727  11.318 -0.5784 -0.1819 -1.2697
45913SOL    HW242297  11.847   6.616  11.339 -1.3057 -0.6693 -0.3134
45914SOL     OW42298  11.261  10.210   9.370  0.0383  0.2816 -0.0448
45914SOL    HW142299  11.323  10.283   9.370 -0.7307  0.9543  0.4760
45914SOL    HW242300  11.226  10.208   9.281 -1.3139  1.7852  0.3974
45915SOL     OW42301   9.457   8.951  12.028 -0.0018  0.5225  0.2075
45915SOL    HW142302   9.488   8.991  12.109 -1.4950  3.1092 -0.3702
45915SOL    HW242303   9.488   9.009  11.959  1.6163 -1.8695 -1.1988
45916SOL     OW42304  10.401   2.803  11.002 -0.2925 -0.0382 -0.1544
45916SOL    HW142305  10.345   2.846  11.068  0.5696 -0.1753  0.6866
45916SOL    HW242306  10.411   2.714  11.034  0.7669  0.1051 -0.0499
45917SOL     OW42307   7.822   2.497   2.246  0.3763  0.5015 -0.1359
45917SOL    HW142308   7.774   2.501   2.163 -2.0535  0.0424  1.1616
45917SOL    HW242309   7.791   2.572   2.296  0.7866  0.0204  0.8721
45918SOL     OW42310   9.867   4.654   3.813  0.0706 -0.3648  0.0586
45918SOL    HW142311   9.889   4.640   3.720 -0.6116 -0.6988 -0.0592
45918SOL    HW242312   9.868   4.566   3.851  2.3229 -0.0569  0.8444
45919SOL     OW42313   0.338   6.466   1.518 -0.0611  0.4191  0.0648
45919SOL    HW142314   0.426   6.500   1.530 -0.0407  0.5011 -0.2990
45919SOL    HW242315   0.288   6.502   1.591 -0.0195  1.1671 -0.2612
45920SOL     OW42316   1.558   0.731   7.715  0.2650 -0.1088 -0.4110
45920SOL    HW142317   1.612   0.720   7.793 -1.3709 -0.4260  0.7527
45920SOL    HW242318   1.540   0.642   7.685 -2.2647 -0.2847  1.2365
45921SOL     OW42319   8.739   5.591   8.648 -0.2919  0.3836 -0.4310
45921SOL    HW142320   8.829   5.589   8.681 -0.4799  1.7556  0.2382
45921SOL    HW242321   8.718   5.499   8.632  0.4918 -0.1966  1.4985
45922SOL     OW42322   9.626   6.733   4.384 -0.4464 -0.2400 -0.3844
45922SOL    HW142323   9.590   6.649   4.412  2.3458 -1.3033  0.3711
45922SOL    HW242324   9.652   6.720   4.293 -1.0687  0.2202 -0.6378
45923SOL     OW42325   7.945   8.694   2.644  0.2810  0.5082  0.4307
45923SOL    HW142326   7.893   8.630   2.692  1.6947 -0.3303  0.8983
45923SOL    HW242327   7.898   8.706   2.561  0.4802 -1.9099 -0.1084
45924SOL     OW42328   9.474   0.943   3.001 -0.0650  0.4178  0.5187
45924SOL    HW142329   9.545   0.975   2.945 -1.3816 -0.8832 -2.0469
45924SOL    HW242330   9.513   0.870   3.050  0.4946 -0.0831 -0.6274
45925SOL     OW42331   8.093   4.390   3.962 -0.4179  0.6977  0.3182
45925SOL    HW142332   8.011   4.409   3.918 -0.7258  0.2010  0.6736
45925SOL    HW242333   8.150   4.355   3.893 -0.6880  0.5218  0.1851
45926SOL     OW42334   6.513   9.421   0.817 -0.1899 -0.5341 -0.2135
45926SOL    HW142335   6.430   9.385   0.847  0.0484 -2.3450 -1.5870
45926SOL    HW242336   6.577   9.389   0.880 -0.2221 -1.0895 -0.4584
45927SOL     OW42337   5.392   3.881   6.871  0.0250  0.1937 -0.3511
45927SOL    HW142338   5.368   3.854   6.959  2.4020  0.8126  0.5638
45927SOL    HW242339   5.483   3.851   6.861  0.7513  2.5472 -1.5200
45928SOL     OW42340   1.485   9.474   2.790  0.3969 -0.6139 -0.0460
45928SOL    HW142341   1.540   9.547   2.821  1.1913 -0.8477 -0.8606
45928SOL    HW242342   1.547   9.409   2.759 -0.3143 -0.1311 -2.7403
45929SOL     OW42343   6.106   1.773   9.749  0.1305 -0.5971  0.3337
45929SOL    HW142344   6.026   1.744   9.707 -0.2059 -1.3792  1.4647
45929SOL    HW242345   6.084   1.859   9.786  0.4901  0.1937 -1.1902
45930SOL     OW42346  11.220  10.042  10.263  0.0829 -0.1212 -0.4030
45930SOL    HW142347  11.126  10.024  10.272  0.1618 -0.1068  0.5781
45930SOL    HW242348  11.238  10.107  10.330  0.9674 -0.7468 -0.0163
45931SOL     OW42349  11.364   6.869  10.487 -0.0534  0.1546  0.4621
45931SOL    HW142350  11.415   6.867  10.407 -0.0436  0.3449  0.4630
45931SOL    HW242351  11.388   6.788  10.533 -0.5616 -0.2822 -0.0327
45932SOL     OW42352   0.302   8.451   9.530 -0.1506  0.0842 -0.1062
45932SOL    HW142353   0.345   8.407   9.604 -0.4539 -0.9563 -0.5312
45932SOL    HW242354   0.209   8.448   9.552 -0.0796  1.8107  0.5362
45933SOL     OW42355   4.612   2.253   1.989 -0.6572 -1.1116  0.6762
45933SOL    HW142356   4.524   2.231   2.020 -0.4700  0.1183  2.1802
45933SOL    HW242357   4.666   2.179   2.015 -0.2530  0.3208  4.6211
45934SOL     OW42358   7.284  11.756   4.253  0.1712  0.4523  0.4613
45934SOL    HW142359   7.338  11.787   4.180  1.9092 -2.2221  0.4560
45934SOL    HW242360   7.199  11.737   4.214  0.2222  1.6640 -0.2683
45935SOL     OW42361  10.813  11.691   0.603 -0.1048 -0.6828  0.4793
45935SOL    HW142362  10.823  11.617   0.662 -0.7545  0.4305  2.0508
45935SOL    HW242363  10.819  11.653   0.515  2.5675 -2.1792  1.1854
45936SOL     OW42364   6.555  11.142  10.439  0.5914 -0.1901 -0.4117
45936SOL    HW142365   6.524  11.199  10.369  0.5539  0.6730  0.2980
45936SOL    HW242366   6.478  11.092  10.465  0.7814 -1.1157 -1.5175
45937SOL     OW42367   9.568  10.614   2.126  0.0959  0.6251  0.0619
45937SOL    HW142368   9.624  10.676   2.080 -2.5350  2.8289 -0.4514
45937SOL    HW242369   9.480  10.632   2.093 -1.2639 -1.1597  2.3501
45938SOL     OW42370   1.050   8.615   0.792 -0.3236  0.5461  0.3871
45938SOL    HW142371   1.112   8.685   0.811 -1.0096  0.9532  1.1494
45938SOL    HW242372   1.102   8.535   0.798  0.2635  0.9246  0.3953
45939SOL     OW42373   0.816   8.184   4.591  0.2744  0.3986 -0.1441
45939SOL    HW142374   0.824   8.114   4.656 -0.2589 -0.8879 -1.4149
45939SOL    HW242375   0.790   8.139   4.510  0.8027  1.9574 -1.2299
45940SOL     OW42376   8.283   3.163   6.650  0.0825 -0.5209  0.3457
45940SOL    HW142377   8.270   3.118   6.734 -1.5203 -1.1942 -0.2092
45940SOL    HW242378   8.293   3.092   6.587  0.9255 -0.0231 -0.0914
45941SOL     OW42379   6.372  10.620   4.056  0.2594 -0.2043 -0.0837
45941SOL    HW142380   6.368  10.529   4.025 -1.1076 -0.2137  0.0597
45941SOL    HW242381   6.462  10.648   4.038 -0.0269 -0.7207 -2.5904
45942SOL     OW42382   5.396   2.381   9.789 -0.2120  0.0427  0.3304
45942SOL    HW142383   5.390   2.374   9.694 -2.5286  0.9042  0.3479
45942SOL    HW242384   5.468   2.323   9.813  0.5672 -0.0181 -1.9587
45943SOL     OW42385   6.826   6.030  11.826  0.8556 -0.1212  0.5613
45943SOL    HW142386   6.783   5.967  11.884 -1.3118 -1.7544 -2.5117
45943SOL    HW242387   6.896   5.980  11.785 -0.7969 -0.6826 -1.8057
45944SOL     OW42388   6.519  11.298   4.864 -0.1146  0.1546 -0.3337
45944SOL    HW142389   6.462  11.336   4.930 -0.8894  1.0758 -1.4826
45944SOL    HW242390   6.465  11.230   4.822  0.9213 -1.6050  1.0356
45945SOL     OW42391   3.386   3.840   9.384  0.7680  0.0141  0.2454
45945SOL    HW142392   3.438   3.821   9.306 -1.1330  1.4717 -1.4614
45945SOL    HW242393   3.299   3.806   9.365  0.5808 -0.7971  2.3106
45946SOL     OW42394   8.380   8.060  11.409  0.5903  0.1931  0.5020
45946SOL    HW142395   8.470   8.047  11.437  0.4302  1.4622  1.6968
45946SOL    HW242396   8.328   8.046  11.488 -0.0529  1.7857  0.3826
45947SOL     OW42397   6.239  11.001   6.436  0.4407  0.0850 -0.7056
45947SOL    HW142398   6.217  10.992   6.528 -0.6089  1.3005 -0.8226
45947SOL    HW242399   6.316  11.058   6.434  0.1157  0.5282 -0.6100
45948SOL     OW42400   4.413   5.312   8.223  0.2005 -0.0148 -0.3186
45948SOL    HW142401   4.407   5.248   8.152  1.6906 -0.0057 -0.4917
45948SOL    HW242402   4.359   5.385   8.194  1.1341  0.1644 -1.6588
45949SOL     OW42403   4.345   6.000   7.051 -0.3057 -0.3876  0.3938
45949SOL    HW142404   4.373   5.959   7.132 -1.3975  0.6303  1.3218
45949SOL    HW242405   4.257   6.032   7.069  0.0950  1.4357 -0.5926
45950SOL     OW42406   9.137   3.945   0.524 -0.0330 -0.9616 -0.6081
45950SOL    HW142407   9.188   4.023   0.499 -1.3593 -0.3162 -1.3953
45950SOL    HW242408   9.087   3.973   0.601 -1.5465 -0.5496 -1.6927
45951SOL     OW42409   0.510   7.558   8.429 -0.0389  0.2702  0.4790
45951SOL    HW142410   0.557   7.538   8.349 -1.8626  1.0325 -0.8550
45951SOL    HW242411   0.521   7.480   8.484  1.2227 -0.2710 -0.4893
45952SOL     OW42412   3.878  11.721   7.160 -0.0711  0.1086 -0.2567
45952SOL    HW142413   3.910  11.733   7.071  1.8881  0.1126  0.3939
45952SOL    HW242414   3.888  11.807   7.201  1.1285 -0.3954  0.5612
45953SOL     OW42415   4.171  10.684  11.805  0.1763  0.0137  0.3001
45953SOL    HW142416   4.180  10.655  11.714 -1.5364 -0.7475  0.3257
45953SOL    HW242417   4.238  10.751  11.816  1.3732 -0.8952 -1.0843
45954SOL     OW42418   9.720   2.147   1.684 -0.3896 -0.0659  0.5796
45954SOL    HW142419   9.690   2.077   1.741  1.5190 -2.4773 -1.1673
45954SOL    HW242420   9.753   2.102   1.606  2.3181  2.6630 -0.0385
45955SOL     OW42421   3.816   9.009  12.121 -0.3567  0.3210 -0.1315
45955SOL    HW142422   3.874   9.072  12.163 -0.8152 -0.3872  1.6881
45955SOL    HW242423   3.861   8.925  12.130  1.7384  0.5405 -5.2459
45956SOL     OW42424  12.127  11.021   7.525 -0.3938  0.5761  0.0555
45956SOL    HW142425  12.206  10.979   7.560 -0.4315  0.6865  0.2759
45956SOL    HW242426  12.159  11.075   7.453 -0.3602  0.0778 -0.3089
45957SOL     OW42427   0.387   8.278   0.058  0.1623  0.1475 -0.6147
45957SOL    HW142428   0.439   8.307  -0.016 -0.1213  0.3765 -0.7234
45957SOL    HW242429   0.417   8.332   0.132  2.1238 -1.6628  0.0047
45958SOL     OW42430   0.669   2.994   0.407 -0.5531  0.0614 -0.6836
45958SOL    HW142431   0.700   3.069   0.457 -0.9521  0.4606 -1.0223
45958SOL    HW242432   0.617   2.943   0.469 -0.6107  0.2751 -0.5557
45959SOL     OW42433   4.695   2.961   9.535 -0.4218  0.2003 -0.3038
45959SOL    HW142434   4.739   2.918   9.608 -1.0891 -0.4182 -0.2690
45959SOL    HW242435   4.651   3.037   9.575 -0.2191  0.2554 -0.1809
45960SOL     OW42436   1.838   8.366   2.832  0.1825  0.5082 -0.6922
45960SOL    HW142437   1.781   8.304   2.878  0.0452  1.3255  0.2908
45960SOL    HW242438   1.916   8.316   2.810  1.3444  0.6141  2.6193
45961SOL     OW42439   2.765  10.006   5.198  0.4252  0.5313  0.0429
45961SOL    HW142440   2.783   9.913   5.181 -1.4933  0.2446 -0.7499
45961SOL    HW242441   2.839  10.036   5.250 -0.0747 -2.0948  2.5176
45962SOL     OW42442   6.582   8.601   5.363 -0.5570  0.4809  0.5947
45962SOL    HW142443   6.643   8.654   5.414 -0.3158  1.4401 -0.6341
45962SOL    HW242444   6.588   8.514   5.402  2.2143  0.3168  0.0425
45963SOL     OW42445  11.370   7.386   0.447  0.5098  0.3545  0.4777
45963SOL    HW142446  11.317   7.315   0.484 -0.2795  1.1724  0.9503
45963SOL    HW242447  11.421   7.419   0.520 -0.0761  1.1027  0.5653
45964SOL     OW42448   2.528   7.056   8.625 -0.1097 -0.3961  0.4881
45964SOL    HW142449   2.518   7.055   8.529  0.1912 -0.6421  0.4571
45964SOL    HW242450   2.622   7.039   8.639  0.2221  1.4238  0.7707
45965SOL     OW42451   0.912   4.901   1.751 -0.4558  0.2479 -0.4107
45965SOL    HW142452   0.818   4.882   1.746 -0.1372 -1.1751 -1.7980
45965SOL    HW242453   0.954   4.824   1.713  1.2561  1.1023 -0.3445
45966SOL     OW42454  11.638   7.908   9.455 -0.0702 -0.3104 -0.1327
45966SOL    HW142455  11.636   7.864   9.370 -1.0073 -0.3396 -0.1034
45966SOL    HW242456  11.688   7.850   9.512 -1.2099 -1.3077 -0.1191
45967SOL     OW42457  11.885  11.535   0.400  0.2361  0.2975 -0.0900
45967SOL    HW142458  11.828  11.458   0.401 -0.0155  0.4884  0.5997
45967SOL    HW242459  11.929  11.531   0.315  0.6985 -0.9435  0.1846
45968SOL     OW42460   1.613   8.081   3.072  0.0960  0.2270  0.0109
45968SOL    HW142461   1.623   8.100   2.979  2.1976 -3.3582 -0.6596
45968SOL    HW242462   1.532   8.029   3.077  0.2117  0.0522  0.0934
45969SOL     OW42463   3.636  11.711   1.059  0.0794  0.1680 -0.2289
45969SOL    HW142464   3.650  11.667   0.976  0.8167  0.8770 -0.5008
45969SOL    HW242465   3.718  11.697   1.107 -0.0529  0.4077  0.0696
45970SOL     OW42466   0.135   8.623   5.764  0.2178 -0.1142  0.2544
45970SOL    HW142467   0.164   8.699   5.815  0.0713 -0.4099  0.7972
45970SOL    HW242468   0.116   8.557   5.831 -0.9628 -0.1755 -0.1233
45971SOL     OW42469   4.251   6.948   7.547 -0.3759  0.0908  0.0295
45971SOL    HW142470   4.338   6.936   7.586 -0.4425  0.7306  0.3893
45971SOL    HW242471   4.261   6.920   7.457  0.4814  1.1111 -0.2110
45972SOL     OW42472   1.871   8.176   9.990  0.1030  0.0238  0.0395
45972SOL    HW142473   1.875   8.268   9.966 -1.9202 -0.0361 -0.7080
45972SOL    HW242474   1.873   8.129   9.907 -1.0278 -0.4760  0.2719
45973SOL     OW42475   2.975   7.695   5.397  0.2583  0.4313  0.5905
45973SOL    HW142476   2.973   7.790   5.394 -1.1944  0.3884 -0.7593
45973SOL    HW242477   2.883   7.668   5.398  0.4530 -1.0009 -3.3715
45974SOL     OW42478   8.545   7.810   8.525  0.5809 -0.0260  0.3291
45974SOL    HW142479   8.602   7.757   8.581 -1.0660 -1.3224  0.8601
45974SOL    HW242480   8.466   7.823   8.577 -0.7531 -0.7248 -1.4573
45975SOL     OW42481   8.925   6.509   2.569 -0.1870  0.0078 -0.1246
45975SOL    HW142482   8.936   6.518   2.474  2.9134 -1.8732 -0.0589
45975SOL    HW242483   8.914   6.599   2.600  1.5720  0.9493 -2.0059
45976SOL     OW42484   7.071   4.330   6.523  0.4093 -0.4947  0.1116
45976SOL    HW142485   7.147   4.303   6.470  0.9645  1.7614 -0.3526
45976SOL    HW242486   7.079   4.279   6.604  2.2939 -0.5268 -0.0421
45977SOL     OW42487   0.263   6.488   2.791 -0.2633  0.5458 -0.2990
45977SOL    HW142488   0.325   6.525   2.728  1.3336 -1.0712  0.2421
45977SOL    HW242489   0.190   6.549   2.791  0.4663  1.5166 -2.4050
45978SOL     OW42490   6.924   1.539  11.237  0.8897 -0.3225  0.1090
45978SOL    HW142491   6.958   1.497  11.158  3.2951  0.6749  0.5078
45978SOL    HW242492   6.835   1.564  11.215  0.8659 -1.7286 -1.6117
45979SOL     OW42493   0.479   5.790   5.920  0.0397 -0.2156 -0.0504
45979SOL    HW142494   0.436   5.873   5.939  0.1662 -0.8516  3.6886
45979SOL    HW242495   0.408   5.726   5.919  0.1163 -0.3158 -1.4956
45980SOL     OW42496   4.874  10.514   4.374 -0.2314 -0.4665 -0.5201
45980SOL    HW142497   4.795  10.523   4.321 -1.2177  0.5831  1.0371
45980SOL    HW242498   4.923  10.595   4.359 -0.0426 -0.5862 -0.5605
45981SOL     OW42499  11.073   4.293   0.014 -0.2270  0.2066 -0.4165
45981SOL    HW142500  11.005   4.233  -0.018 -1.6666  0.9680  1.0661
45981SOL    HW242501  11.140   4.234   0.051 -1.0304 -0.5428 -0.1000
45982SOL     OW42502   6.427   5.951   6.520  0.0030  0.0186 -0.5917
45982SOL    HW142503   6.509   5.926   6.563  0.5876  1.6006 -0.7285
45982SOL    HW242504   6.442   5.931   6.428  0.2575  0.3181 -0.6194
45983SOL     OW42505   9.433   4.296   7.757  0.1676 -0.5535 -0.1269
45983SOL    HW142506   9.526   4.275   7.753  0.6192  1.3168 -0.5278
45983SOL    HW242507   9.415   4.305   7.851  0.0213 -2.2474  0.0431
45984SOL     OW42508   6.914   8.712   5.411 -0.0586  0.1690  0.0228
45984SOL    HW142509   6.855   8.775   5.452 -0.5977 -0.5519  0.3764
45984SOL    HW242510   6.991   8.763   5.388 -1.1279  1.3248 -1.1968
45985SOL     OW42511   6.954  10.734   3.259 -0.0496  0.2716 -0.2899
45985SOL    HW142512   7.025  10.683   3.299 -1.4496 -1.7207 -0.1805
45985SOL    HW242513   6.876  10.708   3.307 -1.4858 -0.7188 -2.9692
45986SOL     OW42514   4.101   6.327   5.384 -0.3059  0.3390 -0.0572
45986SOL    HW142515   4.082   6.332   5.291  0.4035  0.0291 -0.2213
45986SOL    HW242516   4.147   6.408   5.405  0.8078 -0.2107 -0.2869
45987SOL     OW42517   9.194  11.524   8.907  0.1403  1.0209 -0.7087
45987SOL    HW142518   9.245  11.551   8.983  1.0610 -2.6037  0.1755
45987SOL    HW242519   9.248  11.549   8.832  0.9481  1.4784  0.0088
45988SOL     OW42520   2.079   2.484   2.034  0.2258  0.0188  0.0509
45988SOL    HW142521   2.134   2.460   1.959  0.8289  0.6600  0.2698
45988SOL    HW242522   2.135   2.541   2.087 -0.8050  1.0501  0.0663
45989SOL     OW42523   1.082   0.295   5.590  0.1302 -0.2765  0.0177
45989SOL    HW142524   1.019   0.336   5.649  0.2588 -0.9287  0.6263
45989SOL    HW242525   1.163   0.343   5.605  0.9807 -2.2511  2.6218
45990SOL     OW42526   9.707   9.588   4.053  0.3038  0.3087  1.0744
45990SOL    HW142527   9.796   9.623   4.060  0.4671  0.0734  0.2747
45990SOL    HW242528   9.650   9.664   4.065  0.6444  0.7406  0.0919
45991SOL     OW42529   3.716   7.233   4.787 -0.5603  0.2650  1.0355
45991SOL    HW142530   3.733   7.207   4.696  0.3588 -1.0408  1.5551
45991SOL    HW242531   3.646   7.174   4.815 -1.0108  0.8305  1.1103
45992SOL     OW42532   0.322  10.256   5.489 -0.0554  0.0514  0.1699
45992SOL    HW142533   0.377  10.291   5.420 -3.0122 -2.4820 -3.9380
45992SOL    HW242534   0.257  10.325   5.506 -1.3397 -0.4164 -2.3120
45993SOL     OW42535   3.446   7.844  11.822  0.6400  0.1740 -0.2862
45993SOL    HW142536   3.454   7.927  11.867 -0.3250  0.5331 -0.7493
45993SOL    HW242537   3.478   7.779  11.885 -0.5317  0.6724  0.8700
45994SOL     OW42538  10.466   4.409   8.594  0.4227  0.1117  0.1532
45994SOL    HW142539  10.500   4.371   8.675  0.9726  0.0882 -0.0795
45994SOL    HW242540  10.376   4.378   8.589  0.9482 -1.4809 -0.2047
45995SOL     OW42541  11.161   3.112  10.459  0.2143 -0.6744  0.2092
45995SOL    HW142542  11.100   3.079  10.525 -0.6704 -1.4881 -0.9711
45995SOL    HW242543  11.169   3.205  10.478  1.4891 -1.2050  2.6303
45996SOL     OW42544   0.445  11.267   9.800  0.5227 -0.1769 -0.3122
45996SOL    HW142545   0.396  11.304   9.873  0.0321 -0.3895 -0.5289
45996SOL    HW242546   0.378  11.242   9.736  1.0147  1.4653 -1.5339
45997SOL     OW42547   8.636   1.542   7.714 -0.2377 -0.3137  0.4231
45997SOL    HW142548   8.706   1.592   7.756  0.7873 -0.9045 -0.5335
45997SOL    HW242549   8.643   1.455   7.753 -1.0669 -0.1295  1.0086
45998SOL     OW42550   7.226   1.763   3.501  0.3488 -0.2491  0.2220
45998SOL    HW142551   7.321   1.774   3.500  0.3957 -0.1826 -2.7418
45998SOL    HW242552   7.211   1.674   3.471 -0.5505 -0.3348  0.8608
45999SOL     OW42553   8.583   1.811  11.011 -0.2946  0.3981 -0.7106
45999SOL    HW142554   8.571   1.836  10.919 -0.1688  1.4143 -0.4624
45999SOL    HW242555   8.547   1.723  11.016  0.1680  0.1132 -1.8504
46000SOL     OW42556  11.188   2.907   0.855 -0.0283 -0.9233 -0.5373
46000SOL    HW142557  11.254   2.972   0.877  1.1205 -2.0433 -0.5784
46000SOL    HW242558  11.190   2.902   0.759  0.5897 -1.7055 -0.4932
46001SOL     OW42559  10.552   4.493  11.875  0.1182 -0.0945  0.1407
46001SOL    HW142560  10.475   4.446  11.906  0.3951 -0.7421 -0.1522
46001SOL    HW242561  10.619   4.426  11.865  0.1579  0.1644 -1.4766
46002SOL     OW42562   3.461   7.324   1.382 -0.9772  0.3801 -0.3726
46002SOL    HW142563   3.489   7.246   1.334 -0.4026 -0.9151  1.8989
46002SOL    HW242564   3.540   7.353   1.428 -1.8449  0.4948  1.1203
46003SOL     OW42565   4.587   9.464  11.450  0.0643 -0.1271 -0.3885
46003SOL    HW142566   4.549   9.525  11.387 -1.0582 -0.4171 -0.0144
46003SOL    HW242567   4.554   9.378  11.423  1.0933 -0.4990 -0.5132
46004SOL     OW42568   0.933   3.849   2.686 -0.1877 -0.1793 -0.3902
46004SOL    HW142569   0.957   3.882   2.599  2.2448 -1.3198 -0.2166
46004SOL    HW242570   0.866   3.782   2.668  1.3306 -1.4605 -1.5830
46005SOL     OW42571   9.060   2.741   5.234 -0.4824  0.2235  0.0584
46005SOL    HW142572   9.023   2.821   5.197  0.1059  1.1181  1.3368
46005SOL    HW242573   8.984   2.684   5.249 -1.5575  2.1917  3.0699
46006SOL     OW42574  10.559   2.313   6.544  0.2179 -0.3120 -0.0473
46006SOL    HW142575  10.637   2.361   6.517  0.3180 -0.0767  0.6283
46006SOL    HW242576  10.540   2.254   6.471  2.0195 -1.5852  0.4452
46007SOL     OW42577   1.288   5.288  11.083 -0.2049  0.3408  0.1968
46007SOL    HW142578   1.340   5.364  11.057  0.1590  0.2179  0.5646
46007SOL    HW242579   1.233   5.321  11.154 -1.6498  0.8454 -1.0934
46008SOL     OW42580   2.547   9.265   1.575 -0.1276 -0.2091 -0.2956
46008SOL    HW142581   2.603   9.260   1.498  0.5319  0.5358  0.1222
46008SOL    HW242582   2.458   9.261   1.540  0.1694 -1.2009 -0.9818
46009SOL     OW42583   1.424   1.842  10.791 -0.0797  0.0838 -0.5603
46009SOL    HW142584   1.425   1.832  10.887 -1.8203  0.2898 -0.4775
46009SOL    HW242585   1.346   1.896  10.774 -0.7848 -1.3599 -2.2031
46010SOL     OW42586   0.043  10.742   5.370 -0.1890  0.1153 -0.1787
46010SOL    HW142587  -0.015  10.812   5.400 -0.7009 -0.4980  0.2774
46010SOL    HW242588   0.010  10.663   5.412  1.2771 -0.1774  0.4707
46011SOL     OW42589   7.829   3.882   9.616 -0.0358  0.0780 -0.0603
46011SOL    HW142590   7.755   3.860   9.672 -1.5766  1.6320 -1.3656
46011SOL    HW242591   7.872   3.955   9.660  0.7411 -0.8069  0.6848
46012SOL     OW42592   4.788  11.684   6.474  0.3968 -0.2870  0.4294
46012SOL    HW142593   4.715  11.689   6.536 -0.0025  0.4345 -0.0846
46012SOL    HW242594   4.814  11.775   6.460  1.2638 -0.5216  0.4416
46013SOL     OW42595  10.925   8.531   4.762 -0.6022  0.5307 -0.0067
46013SOL    HW142596  10.942   8.452   4.813  0.0986  0.6708 -0.0174
46013SOL    HW242597  10.890   8.498   4.679 -0.6669  0.2502  0.1298
46014SOL     OW42598   6.488   7.913  11.534 -0.1885  0.0137  0.4776
46014SOL    HW142599   6.554   7.963  11.486 -1.2758  1.1154  0.0656
46014SOL    HW242600   6.520   7.911  11.624  0.5815  0.1881  0.2194
46015SOL     OW42601  10.512  10.170   6.198 -0.5688 -0.2706 -0.8181
46015SOL    HW142602  10.558  10.215   6.127 -1.9084  0.2968 -1.3397
46015SOL    HW242603  10.518  10.231   6.272 -1.5730  0.3783 -1.2564
46016SOL     OW42604  10.715   4.682   7.245  0.1848 -0.0406 -0.5395
46016SOL    HW142605  10.694   4.590   7.230  0.5045 -0.1729 -0.2009
46016SOL    HW242606  10.681   4.700   7.333  0.9412 -0.0991 -0.2245
46017SOL     OW42607   1.635  11.060   3.897 -0.1181  0.0762  0.0187
46017SOL    HW142608   1.596  11.015   3.972 -0.8591 -0.6978 -0.8035
46017SOL    HW242609   1.610  11.152   3.908 -0.9899 -0.1805  0.2606
46018SOL     OW42610   0.659   1.031   9.979 -0.3843  0.2409  0.2738
46018SOL    HW142611   0.587   1.068  10.031 -1.1460 -0.9042  0.0674
46018SOL    HW242612   0.727   1.098   9.983  0.5250 -0.5909  4.6402
46019SOL     OW42613   0.064   4.493  11.479 -0.4817  0.1035 -0.2995
46019SOL    HW142614   0.058   4.402  11.450 -1.0234  0.7102 -2.2125
46019SOL    HW242615   0.152   4.521  11.453 -0.3246  0.1449  0.2643
46020SOL     OW42616   2.355   3.015   1.343  0.2917  0.5369  0.2102
46020SOL    HW142617   2.288   2.991   1.279  0.8841  0.4094 -0.3692
46020SOL    HW242618   2.413   3.075   1.297  2.1534 -1.4396 -0.2095
46021SOL     OW42619   9.166   8.859   9.160  0.1940  0.6684 -0.0442
46021SOL    HW142620   9.198   8.769   9.151 -1.3901  0.3045 -3.5232
46021SOL    HW242621   9.112   8.857   9.239  2.6700 -0.5297  1.7701
46022SOL     OW42622   6.768   3.782   2.150  0.0727 -0.2879 -0.4740
46022SOL    HW142623   6.770   3.797   2.244  0.7281 -1.6750 -0.2358
46022SOL    HW242624   6.682   3.815   2.122  0.2963  1.0924  0.4113
46023SOL     OW42625  10.372   1.903   0.115  0.5705 -0.2532 -0.1887
46023SOL    HW142626  10.446   1.855   0.077  0.9237 -0.2235  0.4539
46023SOL    HW242627  10.400   1.923   0.204 -0.4094 -0.6753  0.2277
46024SOL     OW42628   0.431   6.538   6.693  0.2984 -0.7075 -0.2157
46024SOL    HW142629   0.525   6.525   6.683  0.2353 -2.5183  1.0681
46024SOL    HW242630   0.393   6.453   6.671 -0.9475 -0.3174  0.3605
46025SOL     OW42631   3.709   7.802   3.519 -0.6473  0.6575  0.1776
46025SOL    HW142632   3.691   7.896   3.527 -0.1288  0.6896  1.1594
46025SOL    HW242633   3.745   7.778   3.604 -0.1901 -0.3096 -0.2793
46026SOL     OW42634   4.481   6.423   5.452  1.1002  0.1842 -1.1467
46026SOL    HW142635   4.545   6.454   5.516 -0.6771  1.3295  0.1636
46026SOL    HW242636   4.405   6.479   5.465 -1.2365 -2.8246 -0.7126
46027SOL     OW42637  11.092   6.702   1.459  0.2064  0.0231  0.1068
46027SOL    HW142638  11.059   6.661   1.380  0.6277  0.1145 -0.1167
46027SOL    HW242639  11.187   6.701   1.449  0.2353  0.7227  0.2642
46028SOL     OW42640   5.377   0.449   0.522  0.0763 -0.1868  0.5318
46028SOL    HW142641   5.287   0.421   0.502 -0.0158  0.7898 -0.5363
46028SOL    HW242642   5.400   0.401   0.601 -1.3229 -0.5976  0.7186
46029SOL     OW42643  11.651   6.776   9.271 -0.0427 -0.4800 -0.2769
46029SOL    HW142644  11.598   6.834   9.325 -0.9619 -1.0077 -0.5943
46029SOL    HW242645  11.588   6.719   9.227  0.8529 -2.2267  0.6122
46030SOL     OW42646   0.211   9.389   2.264 -0.7235 -0.2250  0.5582
46030SOL    HW142647   0.218   9.375   2.170  0.5033  1.2053  0.4017
46030SOL    HW242648   0.289   9.439   2.287 -1.2697 -0.0839  2.2513
46031SOL     OW42649  10.022  10.286   7.965 -0.1228 -0.2776  0.5366
46031SOL    HW142650  10.023  10.380   7.985 -1.7478 -0.2276  0.5063
46031SOL    HW242651  10.054  10.244   8.045  2.3732  0.3427 -0.0466
46032SOL     OW42652  10.628   2.872   9.614  0.1969 -0.2897  0.5873
46032SOL    HW142653  10.596   2.961   9.627  1.0240 -0.1102  1.4650
46032SOL    HW242654  10.571   2.836   9.546 -0.1671  0.8886  0.2484
46033SOL     OW42655   1.012   8.149  10.269 -0.2830 -0.2571  0.1834
46033SOL    HW142656   1.033   8.182  10.356 -2.1326  2.1789 -0.1802
46033SOL    HW242657   1.069   8.198  10.210 -1.0354  0.2288 -0.1585
46034SOL     OW42658   9.539   3.176   7.821  0.5387  0.2894 -0.2456
46034SOL    HW142659   9.481   3.253   7.829 -0.6569 -0.4375 -1.5080
46034SOL    HW242660   9.612   3.206   7.767  1.1761  1.0945  1.0037
46035SOL     OW42661   7.313  11.600   3.859  0.2832  0.8236  0.5591
46035SOL    HW142662   7.314  11.581   3.766 -0.8169 -0.9458  0.8710
46035SOL    HW242663   7.388  11.658   3.873  0.3416  1.2758 -1.4344
46036SOL     OW42664   4.265   2.636   4.809  0.0538 -0.1182 -0.4512
46036SOL    HW142665   4.299   2.580   4.739 -0.4480 -0.5349 -0.3684
46036SOL    HW242666   4.170   2.622   4.807  0.1156 -0.9878  1.0096
46037SOL     OW42667   3.575   1.633   9.839  0.4267 -0.2945 -0.1995
46037SOL    HW142668   3.579   1.728   9.851 -0.3326 -0.0870 -1.4639
46037SOL    HW242669   3.504   1.604   9.897 -0.5608  0.1729 -1.1361
46038SOL     OW42670   4.712   7.468   6.989  0.3950  0.2008  0.2767
46038SOL    HW142671   4.651   7.506   7.052 -0.3948  0.0369 -0.3724
46038SOL    HW242672   4.794   7.460   7.037 -0.0639  0.5188  1.1376
46039SOL     OW42673   2.362   7.776  11.837 -0.4748 -0.1280  0.3747
46039SOL    HW142674   2.311   7.848  11.800 -0.9728  0.4419  2.0832
46039SOL    HW242675   2.302   7.733  11.898  0.4665 -0.6906  0.9296
46040SOL     OW42676   0.914   6.108  11.266  0.1330 -0.2734  0.3156
46040SOL    HW142677   0.827   6.128  11.300 -0.0960  1.0659 -0.9151
46040SOL    HW242678   0.973   6.164  11.317 -0.0748  0.8519 -0.6256
46041SOL     OW42679   2.138  10.225   3.014  0.4393  0.1017  0.0035
46041SOL    HW142680   2.056  10.175   3.008  0.4074 -0.0354  1.3430
46041SOL    HW242681   2.204  10.160   3.040  0.4002  0.7250  1.7660
46042SOL     OW42682  11.214   4.123   9.932  0.2367  0.1829  0.1420
46042SOL    HW142683  11.294   4.145   9.978  0.8278 -0.4421 -0.5603
46042SOL    HW242684  11.151   4.101  10.001  0.0550  2.4853  0.8168
46043SOL     OW42685  10.796  10.642   2.100 -0.6133 -0.4779  0.4855
46043SOL    HW142686  10.826  10.717   2.151 -2.2812  0.6938 -0.1797
46043SOL    HW242687  10.877  10.602   2.066  0.2749  1.6077  0.0075
46044SOL     OW42688   7.592   9.436   4.120  0.2237 -0.8054 -0.2551
46044SOL    HW142689   7.649   9.361   4.107 -0.0877 -0.7841 -2.0140
46044SOL    HW242690   7.646   9.512   4.097  0.0060 -0.6376 -0.2206
46045SOL     OW42691   1.510   5.673   6.732 -0.0426  0.3189 -0.3445
46045SOL    HW142692   1.598   5.704   6.712 -0.0721  0.0639 -0.8925
46045SOL    HW242693   1.510   5.660   6.827  0.5923  0.0578 -0.3784
46046SOL     OW42694   0.424   4.400  11.574  0.1921 -0.1073  0.0999
46046SOL    HW142695   0.367   4.343  11.522  0.6369 -0.6015  0.1480
46046SOL    HW242696   0.389   4.394  11.663  1.7584 -2.3989  0.6685
46047SOL     OW42697   6.027   2.016   8.941 -0.1869  0.1747 -0.4511
46047SOL    HW142698   6.113   1.984   8.912  0.4257  1.3042  0.0584
46047SOL    HW242699   6.010   1.969   9.022  0.4944  0.7849  0.0550
46048SOL     OW42700   3.750   3.533   9.822  0.2137 -0.3288 -0.4090
46048SOL    HW142701   3.668   3.484   9.817 -0.8423  1.3481 -0.5024
46048SOL    HW242702   3.768   3.560   9.732  3.1577 -4.0176 -1.2109
46049SOL     OW42703  11.925   0.590   1.908 -0.1015  0.0010 -0.0697
46049SOL    HW142704  11.847   0.638   1.880  0.5031  0.9741 -0.1309
46049SOL    HW242705  11.955   0.636   1.986  0.3424 -0.4549  0.0337
46050SOL     OW42706   2.333   9.447   3.510 -0.2794  0.2936 -0.0584
46050SOL    HW142707   2.249   9.402   3.523  0.7567 -1.8454 -0.2228
46050SOL    HW242708   2.369   9.406   3.431 -0.0544  2.8046 -1.3562
46051SOL     OW42709  10.538   5.126  12.105  0.6288  0.1031  0.3595
46051SOL    HW142710  10.590   5.174  12.040  1.6801  1.6382  2.2242
46051SOL    HW242711  10.603   5.079  12.157 -0.3223 -2.5787 -0.7377
46052SOL     OW42712   5.764   1.964   3.956 -0.2551  0.3337  0.1089
46052SOL    HW142713   5.715   1.958   3.874  0.6008  0.9254 -0.4605
46052SOL    HW242714   5.744   2.052   3.989 -0.3233  0.2231  0.3660
46053SOL     OW42715  11.804   1.886   1.494  0.3819 -0.2413 -0.3726
46053SOL    HW142716  11.722   1.839   1.511  1.1502 -0.9723  1.7003
46053SOL    HW242717  11.780   1.978   1.498 -0.3023 -0.4434  0.5244
46054SOL     OW42718   3.167   8.925  11.438 -0.2271  0.2260 -0.2521
46054SOL    HW142719   3.192   8.842  11.479  1.8524  0.1527 -1.5400
46054SOL    HW242720   3.232   8.988  11.470  0.3452  0.5603 -1.9808
46055SOL     OW42721   3.924   3.474   6.962 -0.0616  0.7633 -0.0539
46055SOL    HW142722   3.877   3.538   7.015 -0.6890 -0.3802  0.8096
46055SOL    HW242723   3.856   3.419   6.925  0.5423 -0.8726  1.1464
46056SOL     OW42724   2.453   7.604   3.743  0.0553 -0.2645  0.1627
46056SOL    HW142725   2.442   7.699   3.735  0.4713 -0.1785  0.5697
46056SOL    HW242726   2.366   7.569   3.725 -0.0906  0.1886 -0.0487
46057SOL     OW42727  11.799   0.773  11.999 -0.0960 -0.0545  0.1040
46057SOL    HW142728  11.875   0.803  12.048 -0.0097 -0.3496  0.1550
46057SOL    HW242729  11.824   0.686  11.968 -0.0785  0.1995 -0.6149
46058SOL     OW42730   3.813   4.729   7.864  0.2975  0.3666 -0.6130
46058SOL    HW142731   3.847   4.818   7.874 -0.0521  0.7001 -2.1098
46058SOL    HW242732   3.718   4.740   7.865  0.2426  0.1821 -1.9358
46059SOL     OW42733   3.111  10.511   1.218 -0.4276 -0.0377 -0.3574
46059SOL    HW142734   3.021  10.543   1.209 -0.7726 -0.9951 -0.4384
46059SOL    HW242735   3.164  10.590   1.232 -1.1459  0.6252 -1.2989
46060SOL     OW42736   7.406   9.939  11.768 -0.3612 -0.1252 -0.2864
46060SOL    HW142737   7.404   9.853  11.725  1.0584  0.3357 -1.3537
46060SOL    HW242738   7.314   9.964  11.777 -0.7469 -1.0538 -1.4090
46061SOL     OW42739   5.707   0.282   0.877  0.0146 -0.4820 -0.0799
46061SOL    HW142740   5.766   0.210   0.897 -2.9808 -2.7899  1.2755
46061SOL    HW242741   5.698   0.330   0.960 -1.6668 -1.5873  0.4467
46062SOL     OW42742   4.108  10.222  11.098 -0.3871  0.3973  0.1972
46062SOL    HW142743   4.103  10.176  11.014 -2.0186 -0.0708  0.5195
46062SOL    HW242744   4.069  10.162  11.161 -1.8171  1.8313  0.7762
46063SOL     OW42745   5.250   6.480  10.099 -0.2580  0.8260 -0.6024
46063SOL    HW142746   5.244   6.436  10.184  0.9164  0.5740 -0.6224
46063SOL    HW242747   5.256   6.408  10.035  1.5894  0.9542 -0.6420
46064SOL     OW42748   9.071   7.846   6.624 -0.3859  0.3743 -0.5946
46064SOL    HW142749   9.003   7.883   6.568  0.7729  1.4555 -1.3479
46064SOL    HW242750   9.151   7.852   6.571  0.5426  0.4203  0.7700
46065SOL     OW42751   5.709   9.783   4.999  0.3281  0.2600  0.3722
46065SOL    HW142752   5.778   9.747   4.943  0.2223  0.5132  0.0749
46065SOL    HW242753   5.645   9.712   5.008  1.5807 -0.7009  2.3216
46066SOL     OW42754   6.009  11.088   9.829  0.1532  0.0613 -0.1375
46066SOL    HW142755   6.027  11.090   9.923  1.2384 -0.3400 -0.3225
46066SOL    HW242756   6.002  11.180   9.804 -1.5918  0.1566  0.5777
46067SOL     OW42757   8.692   4.147   2.223  0.4132 -0.0768  0.2347
46067SOL    HW142758   8.721   4.185   2.306  0.5096  1.4212 -0.4385
46067SOL    HW242759   8.601   4.123   2.238  0.4655  0.0803  0.8175
46068SOL     OW42760   1.109   2.333   3.024 -0.4050 -0.1267  0.2904
46068SOL    HW142761   1.203   2.339   3.006 -0.5916  0.1579 -0.6165
46068SOL    HW242762   1.097   2.388   3.102  0.3992 -1.3388  1.3142
46069SOL     OW42763   3.883   5.075   2.770  0.1345 -0.7536  0.7177
46069SOL    HW142764   3.927   5.071   2.854 -0.3632 -1.6359  0.9515
46069SOL    HW242765   3.925   5.147   2.723 -0.2889  0.4398  2.1115
46070SOL     OW42766  10.555   2.371   5.872 -0.2448  0.3946 -0.5143
46070SOL    HW142767  10.602   2.288   5.888 -2.2077 -0.6031  0.3478
46070SOL    HW242768  10.509   2.356   5.789 -1.2785  0.2985  0.0734
46071SOL     OW42769   1.235  11.830  11.417 -0.5119 -0.4220 -0.0269
46071SOL    HW142770   1.142  11.842  11.394 -0.3539 -1.4341 -1.3600
46071SOL    HW242771   1.276  11.913  11.392 -1.1969  0.4695  1.6279
46072SOL     OW42772   7.981   4.539   3.345 -0.2430 -0.0206 -0.5416
46072SOL    HW142773   8.076   4.524   3.335 -0.1847  0.0724 -0.1355
46072SOL    HW242774   7.941   4.479   3.282  0.0347 -1.1226  0.3031
46073SOL     OW42775   6.350   5.682  10.455 -0.0567 -0.4267  0.4068
46073SOL    HW142776   6.321   5.708  10.543 -2.7324  1.2256 -0.8380
46073SOL    HW242777   6.274   5.639  10.417  0.4674  0.3607 -1.6500
46074SOL     OW42778  10.352   7.798   1.145 -0.6423 -0.2427 -0.0096
46074SOL    HW142779  10.410   7.873   1.129 -0.3626 -0.3482  0.4999
46074SOL    HW242780  10.402   7.742   1.205 -0.9109 -0.7671 -0.2757
46075SOL     OW42781   4.967   3.822  11.557  0.0612 -0.1544 -0.2573
46075SOL    HW142782   4.896   3.843  11.617 -0.6674  2.6951 -1.8858
46075SOL    HW242783   5.043   3.807  11.613 -0.6905  1.8386  1.4443
46076SOL     OW42784   1.823   2.276  10.163  0.4605 -0.3387  0.5540
46076SOL    HW142785   1.741   2.245  10.125  1.2953 -2.3089  0.2141
46076SOL    HW242786   1.887   2.266  10.093  1.2677 -0.2451  1.2612
46077SOL     OW42787   2.885   2.391   4.478  0.0362  0.9073  0.2994
46077SOL    HW142788   2.833   2.326   4.430 -1.7897  1.3193  1.6280
46077SOL    HW242789   2.837   2.473   4.467  0.3278  1.2846  1.6467
46078SOL     OW42790   9.442   1.045   4.033  0.1566 -0.4669 -0.0560
46078SOL    HW142791   9.458   1.018   3.943  0.4355 -1.3864  0.2578
46078SOL    HW242792   9.454   0.965   4.085  0.0115  0.0480  0.7962
46079SOL     OW42793  10.521   8.270   1.188  0.2271  0.2086 -0.1309
46079SOL    HW142794  10.567   8.208   1.245 -0.9044 -0.4349  0.0974
46079SOL    HW242795  10.591   8.328   1.156  0.9163  0.5591  1.8539
46080SOL     OW42796   0.512   0.889   8.168 -0.2615  0.3342 -0.4865
46080SOL    HW142797   0.582   0.851   8.222 -1.1828 -1.3091 -0.3674
46080SOL    HW242798   0.431   0.859   8.209 -1.0446  1.6552 -0.9985
46081SOL     OW42799   6.326  10.948  10.833 -0.2864  0.1628  0.4797
46081SOL    HW142800   6.350  11.036  10.862  0.2196  0.7562 -1.5797
46081SOL    HW242801   6.363  10.940  10.745 -1.2944 -1.6964  0.1620
46082SOL     OW42802  11.965   6.943   0.822 -0.5450 -0.4863 -0.1176
46082SOL    HW142803  11.949   7.028   0.780 -1.2819 -0.2884  0.5213
46082SOL    HW242804  11.880   6.919   0.860  0.4426  0.2733  2.9009
46083SOL     OW42805   4.799   7.608   2.382 -0.4471  0.6822  0.3232
46083SOL    HW142806   4.886   7.567   2.376  0.0649  1.9363 -1.5357
46083SOL    HW242807   4.783   7.644   2.295 -2.0094  2.1443  1.1654
46084SOL     OW42808   6.984   3.407   9.611  0.0812 -0.0659 -0.4272
46084SOL    HW142809   6.909   3.466   9.620  0.0893 -0.2672  1.2062
46084SOL    HW242810   7.044   3.454   9.553 -0.4731  0.9544 -0.2034
46085SOL     OW42811   0.279   3.492   5.068  0.4814  0.1263 -0.1030
46085SOL    HW142812   0.366   3.503   5.029 -0.5295  0.9910 -2.3105
46085SOL    HW242813   0.242   3.418   5.021  0.3161 -0.8215  1.4651
46086SOL     OW42814   2.237  10.002   0.451  0.5097  0.2794  0.3129
46086SOL    HW142815   2.153   9.955   0.455  0.5882  0.1880  0.8892
46086SOL    HW242816   2.303   9.935   0.472  0.5846  0.7355  1.6294
46087SOL     OW42817   5.062   7.010  10.329 -0.1266  0.4264  0.3863
46087SOL    HW142818   5.143   7.004  10.278 -0.5881  1.6621 -0.5523
46087SOL    HW242819   5.072   6.946  10.399  0.1854 -2.0081 -1.7497
46088SOL     OW42820   3.075   5.564   3.731 -0.2735  0.4250  0.2361
46088SOL    HW142821   3.075   5.593   3.640 -0.9626  2.2933  0.7839
46088SOL    HW242822   3.087   5.644   3.781  2.5317 -0.8181  1.7646
46089SOL     OW42823   9.665   5.628  11.260  0.3127 -0.0871  0.3791
46089SOL    HW142824   9.654   5.591  11.348  1.0152 -0.9802  0.1123
46089SOL    HW242825   9.740   5.581  11.224 -0.0403  0.1873 -0.7519
46090SOL     OW42826   2.326   8.770   0.963  0.6789  0.2640  0.3857
46090SOL    HW142827   2.295   8.844   1.017 -0.4511  0.4965 -0.5315
46090SOL    HW242828   2.339   8.808   0.876  0.0336 -0.6097 -0.1132
46091SOL     OW42829   1.957   3.732   6.672 -0.7886  0.0691 -0.1376
46091SOL    HW142830   2.036   3.769   6.632 -0.2174  2.3248  2.7250
46091SOL    HW242831   1.889   3.797   6.657 -0.7707  0.5503  1.6954
46092SOL     OW42832  10.038   3.378   6.197 -0.5688  0.2280  0.3448
46092SOL    HW142833   9.999   3.439   6.135  0.5473  0.4765 -0.1451
46092SOL    HW242834  10.018   3.291   6.162 -0.7161  0.3505  0.1241
46093SOL     OW42835   0.006   6.956   2.437  0.8805 -0.2949 -0.1425
46093SOL    HW142836   0.102   6.961   2.428  0.7234 -0.9833 -4.7368
46093SOL    HW242837  -0.015   6.865   2.416 -0.8520 -0.1292  0.6905
46094SOL     OW42838   9.692   3.135   5.018  0.2020 -0.0421  0.1786
46094SOL    HW142839   9.727   3.046   5.025 -1.8010 -0.8377  0.9296
46094SOL    HW242840   9.632   3.143   5.092 -1.0764  1.2608 -0.9351
46095SOL     OW42841   6.519   8.450   1.677  0.2119  0.3798 -0.1913
46095SOL    HW142842   6.601   8.416   1.715  0.3925  1.7954  0.7561
46095SOL    HW242843   6.542   8.538   1.646 -0.9966  0.8694  0.2643
46096SOL     OW42844  11.669   6.284   7.996  0.2162 -0.1240  0.0912
46096SOL    HW142845  11.639   6.193   8.007  2.0418 -0.7552  0.2918
46096SOL    HW242846  11.764   6.278   8.003  0.3726  1.8306  0.1038
46097SOL     OW42847   0.828   3.844   8.227 -0.1564  0.1666  0.1005
46097SOL    HW142848   0.870   3.759   8.240 -1.2207 -0.0920  2.0685
46097SOL    HW242849   0.765   3.852   8.298  2.1054  3.9856  2.0022
46098SOL     OW42850   4.101   1.234  11.127 -0.0950  0.3457  0.9285
46098SOL    HW142851   4.019   1.253  11.172 -0.4117 -0.1633  0.5782
46098SOL    HW242852   4.158   1.199  11.195 -0.8095 -1.1104  0.8239
46099SOL     OW42853   1.661  11.158   7.028  0.1776  0.3907 -0.2539
46099SOL    HW142854   1.634  11.081   7.077  0.3694  0.8056  0.5221
46099SOL    HW242855   1.704  11.214   7.093 -0.1389  1.2415 -0.7563
46100SOL     OW42856   2.487   9.172   3.120  0.0778 -0.5718 -0.2740
46100SOL    HW142857   2.434   9.151   3.043  0.1368 -1.0059 -0.1999
46100SOL    HW242858   2.504   9.087   3.161  1.5338 -0.5426 -0.7563
46101SOL     OW42859   0.749   0.778  11.558 -0.1377 -0.0722  0.7419
46101SOL    HW142860   0.782   0.860  11.594 -1.8484  0.2960  1.5856
46101SOL    HW242861   0.827   0.725  11.542  1.0247  1.8671 -0.2400
46102SOL     OW42862   9.534   6.308   8.617 -0.2015 -0.0122 -0.3165
46102SOL    HW142863   9.445   6.312   8.652 -0.0357  0.4721  0.0642
46102SOL    HW242864   9.579   6.381   8.658 -0.1872  1.0246 -2.0888
46103SOL     OW42865  10.045  10.514   9.104  0.2180 -0.3302  0.6484
46103SOL    HW142866  10.013  10.461   9.177 -0.1398 -0.8463  0.1298
46103SOL    HW242867   9.966  10.543   9.059  0.3224  1.8483  1.7116
46104SOL     OW42868  10.874  10.193   2.000  0.7666  0.1581 -0.3828
46104SOL    HW142869  10.901  10.158   1.915 -1.1015 -0.4033 -0.7985
46104SOL    HW242870  10.785  10.224   1.986 -0.2240 -1.4448  1.7621
46105SOL     OW42871   3.004   6.479   6.336 -0.7583 -0.3943 -0.3477
46105SOL    HW142872   2.920   6.441   6.309 -0.3779 -2.0000  0.6238
46105SOL    HW242873   2.979   6.557   6.386 -1.5783  0.3035 -1.7807
46106SOL     OW42874  10.127   4.896   0.841  0.3270  0.5749 -0.0718
46106SOL    HW142875  10.119   4.805   0.868  0.5861 -0.4938 -3.2264
46106SOL    HW242876  10.219   4.917   0.855  0.0898  0.7336  1.5184
46107SOL     OW42877   0.465   3.326   1.838 -0.0030 -0.1501 -0.2038
46107SOL    HW142878   0.559   3.344   1.844 -0.1253  0.1202  1.1742
46107SOL    HW242879   0.459   3.252   1.778  1.2214 -1.1044  0.7848
46108SOL     OW42880  11.054   7.059   3.829  0.3184  0.1037  0.1283
46108SOL    HW142881  11.143   7.078   3.799  0.9365 -2.2433  0.3109
46108SOL    HW242882  10.998   7.091   3.758  1.5282 -1.5652 -1.6905
46109SOL     OW42883   2.625   2.961   9.902  0.5514 -0.2733 -0.1500
46109SOL    HW142884   2.572   2.882   9.913  0.2820 -0.2780 -1.3586
46109SOL    HW242885   2.589   3.022   9.967 -1.4189 -0.0381 -1.3727
46110SOL     OW42886   3.434   0.655   0.067 -0.0095  0.4527 -0.0706
46110SOL    HW142887   3.346   0.691   0.072 -0.4929 -0.8005  1.2127
46110SOL    HW242888   3.431   0.596  -0.008  0.3072  1.7948 -1.1671
46111SOL     OW42889   3.678   9.722   2.155 -0.0983  0.0440  0.3909
46111SOL    HW142890   3.640   9.801   2.116 -0.6229 -0.5841 -0.4065
46111SOL    HW242891   3.764   9.714   2.112 -0.5282 -0.4503 -0.4032
46112SOL     OW42892   0.242   8.638   7.231 -0.4989 -0.2955 -0.4050
46112SOL    HW142893   0.319   8.650   7.286 -1.2181  0.8651  0.4005
46112SOL    HW242894   0.176   8.601   7.289 -0.5548 -1.2985 -1.0911
46113SOL     OW42895   7.526   5.639   6.257  0.5765 -0.4746  0.0273
46113SOL    HW142896   7.443   5.681   6.236  0.8546  0.4631  0.7301
46113SOL    HW242897   7.588   5.673   6.193  0.7452  0.0051  0.4385
46114SOL     OW42898  11.681   8.687   1.601  0.0832  0.0092 -0.0732
46114SOL    HW142899  11.746   8.662   1.667 -0.3763 -0.6808  0.1203
46114SOL    HW242900  11.733   8.733   1.534  0.5817  0.5491  0.6577
46115SOL     OW42901   9.034   0.232   1.725  0.0974 -0.4829 -0.0020
46115SOL    HW142902   9.100   0.210   1.791  0.3872  0.7375  0.1316
46115SOL    HW242903   9.028   0.327   1.728 -2.1429 -0.5871  0.4471
46116SOL     OW42904  10.514   7.700  10.525  0.2658  0.2717 -0.3192
46116SOL    HW142905  10.482   7.766  10.463  1.1748 -0.1592 -1.2645
46116SOL    HW242906  10.446   7.633  10.524 -1.3004  1.6973  1.5959
46117SOL     OW42907   5.500   5.439   9.854  0.0831  0.0294 -0.0866
46117SOL    HW142908   5.572   5.434   9.917 -0.0472 -3.3731  0.0089
46117SOL    HW242909   5.449   5.515   9.881  1.3097  0.0509  2.4817
46118SOL     OW42910  10.271  10.245   4.126 -0.1102  0.2654  0.0858
46118SOL    HW142911  10.327  10.275   4.197  0.3883 -1.6121  0.5416
46118SOL    HW242912  10.277  10.314   4.060  0.9362  1.1549  1.0741
46119SOL     OW42913   4.169   9.821   4.404  0.2107  0.5585  0.1973
46119SOL    HW142914   4.191   9.900   4.354 -0.0294 -0.2756 -1.2788
46119SOL    HW242915   4.074   9.825   4.415  0.0473 -0.0316 -0.8320
46120SOL     OW42916   1.041   3.850   5.261 -0.2204 -0.2146 -0.1715
46120SOL    HW142917   1.102   3.777   5.257  0.3514  0.0270  2.5631
46120SOL    HW242918   1.067   3.906   5.188  1.3665 -1.2140 -0.4290
46121SOL     OW42919  10.827   2.495   6.123 -0.2086  0.4612 -0.0271
46121SOL    HW142920  10.814   2.550   6.200  1.0484 -1.2762  1.5259
46121SOL    HW242921  10.898   2.538   6.075  2.4683 -0.9073  2.4289
46122SOL     OW42922   9.194  10.125   1.162 -0.0758  0.2715  0.1441
46122SOL    HW142923   9.214  10.121   1.256  0.2072 -1.8308  0.0346
46122SOL    HW242924   9.195  10.219   1.142 -1.0272  0.8401  2.4041
46123SOL     OW42925   6.992   8.348   4.405  0.2392  0.0110  0.5462
46123SOL    HW142926   6.989   8.440   4.378  0.0565 -0.4748 -1.2378
46123SOL    HW242927   7.076   8.339   4.451  0.6022  0.9018  0.0799
46124SOL     OW42928  10.513   0.838   1.878  0.2099  0.3450  0.1036
46124SOL    HW142929  10.491   0.860   1.787  0.5538  1.5957  0.3046
46124SOL    HW242930  10.609   0.843   1.881  0.2517 -0.4897  0.3479
46125SOL     OW42931   0.165  10.229   0.806 -0.1189 -0.0835  0.2645
46125SOL    HW142932   0.241  10.269   0.763 -1.0576  1.0339 -0.4305
46125SOL    HW242933   0.166  10.265   0.895 -0.7674  1.2936 -0.2552
46126SOL     OW42934  10.032   3.566   8.425  0.1708  0.1526 -0.0503
46126SOL    HW142935   9.956   3.615   8.457  1.0025  0.3956  1.6752
46126SOL    HW242936  10.069   3.622   8.357 -0.4446  0.6522  0.0139
46127SOL     OW42937   8.603   0.634   9.117 -0.4718 -0.2439 -0.2604
46127SOL    HW142938   8.664   0.576   9.073 -0.0610 -0.3925  0.4895
46127SOL    HW242939   8.516   0.601   9.093 -0.2431 -0.9796 -0.0871
46128SOL     OW42940  11.709  10.348   2.621 -0.1807  0.0870  0.1744
46128SOL    HW142941  11.756  10.400   2.556  0.2996 -1.2267 -0.5580
46128SOL    HW242942  11.776  10.295   2.663 -0.8855 -1.4396 -0.5338
46129SOL     OW42943   6.509  11.910   3.722  0.3691  0.4103  0.3653
46129SOL    HW142944   6.551  11.995   3.733 -2.8946  2.2262  0.0973
46129SOL    HW242945   6.538  11.879   3.636  0.7240  1.7946 -0.0337
46130SOL     OW42946   7.872   3.131   4.465  0.2939 -0.3924  0.1770
46130SOL    HW142947   7.847   3.218   4.436 -0.9760 -1.0820 -0.9048
46130SOL    HW242948   7.931   3.099   4.396  2.7583  0.4668  1.7454
46131SOL     OW42949   2.966   6.374   8.464  0.1003  0.8735  0.4575
46131SOL    HW142950   3.012   6.371   8.380  0.4185  2.2973  0.5546
46131SOL    HW242951   3.036   6.382   8.529 -0.1951  1.1748  0.7420
46132SOL     OW42952   7.745   0.182  11.577 -0.0604 -0.0886  0.6086
46132SOL    HW142953   7.752   0.277  11.582  2.7138 -0.0410 -1.7812
46132SOL    HW242954   7.813   0.150  11.636  1.2243 -0.4547 -1.0163
46133SOL     OW42955   0.558   4.191   1.373  0.0865 -0.1140  0.3223
46133SOL    HW142956   0.612   4.242   1.433 -1.2338  1.8924 -0.1052
46133SOL    HW242957   0.606   4.192   1.290  0.1919  0.2018  0.3895
46134SOL     OW42958   7.529   5.248   1.408  0.2525  0.2147 -0.4687
46134SOL    HW142959   7.572   5.316   1.356 -0.4284  1.8601  1.0366
46134SOL    HW242960   7.438   5.276   1.415  0.2125 -0.2007  1.1565
46135SOL     OW42961   6.920   5.300   1.013 -0.1016  0.0395 -0.0075
46135SOL    HW142962   6.884   5.388   1.006 -2.2216 -0.6485  1.1241
46135SOL    HW242963   6.854   5.244   0.972  1.0331 -1.0768 -0.3908
46136SOL     OW42964   8.243   9.689   2.117  0.2153 -0.2099  0.0101
46136SOL    HW142965   8.168   9.740   2.148  0.5783  0.6396 -0.4648
46136SOL    HW242966   8.236   9.691   2.022  2.2378  2.1650 -0.2140
46137SOL     OW42967   9.652   8.446   0.836  0.4249 -0.5450  0.4650
46137SOL    HW142968   9.678   8.406   0.753  3.2996 -0.4915  1.2420
46137SOL    HW242969   9.616   8.531   0.811  1.8888 -0.2302 -0.7206
46138SOL     OW42970   0.928  11.085  10.758 -0.8233  0.4075 -0.3771
46138SOL    HW142971   0.938  11.175  10.790 -0.2101  0.2260 -0.0599
46138SOL    HW242972   0.920  11.094  10.663 -0.1335  0.7518 -0.4054
46139SOL     OW42973   6.517   9.357  10.043 -0.7366 -0.1389 -0.3495
46139SOL    HW142974   6.481   9.403   9.967 -0.7066  1.1035  0.3708
46139SOL    HW242975   6.527   9.425  10.110  0.5857 -0.9411  0.2963
46140SOL     OW42976   6.611   9.166   2.209  0.4019 -0.1733  0.2144
46140SOL    HW142977   6.589   9.100   2.274 -0.0446  0.7386  1.0213
46140SOL    HW242978   6.667   9.121   2.146  0.9230 -1.0622  1.2796
46141SOL     OW42979   2.284   3.449   4.480  0.8266 -0.8057  0.2503
46141SOL    HW142980   2.338   3.527   4.493  0.1334 -0.5991  2.2825
46141SOL    HW242981   2.199   3.483   4.453  0.5620 -0.8410  1.0099
46142SOL     OW42982   1.792   1.872   5.274 -0.2052 -0.0982  0.3425
46142SOL    HW142983   1.721   1.836   5.220  0.4192  0.4609 -0.8821
46142SOL    HW242984   1.747   1.905   5.352 -1.1259 -0.9494  0.2019
46143SOL     OW42985   2.280   2.992   3.847 -0.1752 -0.1150  0.1426
46143SOL    HW142986   2.356   2.952   3.888 -0.7126 -0.1187  1.1507
46143SOL    HW242987   2.274   2.950   3.761  1.4414  0.4722 -0.2941
46144SOL     OW42988   5.734   5.720   9.175 -0.7039 -0.1781 -0.1099
46144SOL    HW142989   5.660   5.755   9.126 -0.7973  1.3053  1.0246
46144SOL    HW242990   5.706   5.631   9.200 -1.5111 -0.1546 -0.8814
46145SOL     OW42991  10.449   6.536   0.543 -0.1957  0.0814 -0.4460
46145SOL    HW142992  10.431   6.615   0.492 -1.6217 -0.9313 -1.5755
46145SOL    HW242993  10.383   6.537   0.613  1.2993  1.0852  1.0505
46146SOL     OW42994   0.263  10.987   2.681 -0.2004 -0.5827  0.0388
46146SOL    HW142995   0.298  10.907   2.721  0.7869  0.0454  0.4670
46146SOL    HW242996   0.340  11.031   2.645 -0.4214  1.1061  1.4768
46147SOL     OW42997   6.652   1.122   9.837 -0.2189  0.0306  0.1242
46147SOL    HW142998   6.561   1.148   9.821 -0.2962 -0.3775 -0.1069
46147SOL    HW242999   6.703   1.202   9.826 -0.5834  0.3236  0.5334
46148SOL     OW43000   4.642   6.541   4.419  0.0396  0.2206 -0.8229
46148SOL    HW143001   4.590   6.544   4.500 -0.2012  0.1671 -0.9733
46148SOL    HW243002   4.598   6.604   4.361  1.1229  1.4474 -0.3789
46149SOL     OW43003   9.507   2.171   0.176  0.3055  0.1873  0.2547
46149SOL    HW143004   9.466   2.103   0.122 -0.7221 -0.7232  2.1053
46149SOL    HW243005   9.569   2.214   0.116  0.7969 -2.1593 -1.0659
46150SOL     OW43006  10.639  10.693  11.683  0.3504 -0.8796  0.0339
46150SOL    HW143007  10.633  10.755  11.756 -1.4113  0.4690 -1.1415
46150SOL    HW243008  10.713  10.637  11.704 -0.7273 -1.2365  3.3538
46151SOL     OW43009   0.640   2.910   3.707  0.4696 -0.2328 -0.0919
46151SOL    HW143010   0.556   2.945   3.676  0.5558  0.1132  0.0581
46151SOL    HW243011   0.685   2.884   3.627 -0.4071 -1.9073 -0.0955
46152SOL     OW43012  10.947   4.759   7.157  0.2300  0.3096 -0.0781
46152SOL    HW143013  10.869   4.732   7.206 -0.5885  0.2093 -1.3779
46152SOL    HW243014  11.010   4.786   7.224 -0.6236 -0.3889  1.0351
46153SOL     OW43015   0.886   2.045   9.004  0.0320 -0.2159  0.6179
46153SOL    HW143016   0.839   2.124   9.030  0.2500  0.6172 -1.3467
46153SOL    HW243017   0.877   1.986   9.078 -2.7916  0.4793  0.9275
46154SOL     OW43018   3.151   0.359  10.921 -0.2411  0.1935 -0.2997
46154SOL    HW143019   3.156   0.454  10.931 -1.0800  0.1667  0.4424
46154SOL    HW243020   3.059   0.337  10.936 -0.3692 -0.5766 -1.9796
46155SOL     OW43021   4.412   1.524   9.624 -0.0038 -0.1668  0.2171
46155SOL    HW143022   4.389   1.604   9.575  1.6208  0.0186 -0.2794
46155SOL    HW243023   4.327   1.484   9.644 -0.7707  0.2404 -1.9293
46156SOL     OW43024   0.895  11.637   8.389  0.3965 -0.4016 -0.0147
46156SOL    HW143025   0.840  11.697   8.337 -1.0419 -1.5890  0.0645
46156SOL    HW243026   0.883  11.667   8.479 -0.0243 -0.5724 -0.0114
46157SOL     OW43027   1.081   6.082   8.533 -0.0949  0.5096  0.3038
46157SOL    HW143028   1.009   6.027   8.501 -0.8734  1.2881  0.6736
46157SOL    HW243029   1.073   6.163   8.484  0.0615  0.8862  0.8913
46158SOL     OW43030   9.452   4.399   6.593  0.2167 -0.0246 -0.4256
46158SOL    HW143031   9.392   4.385   6.520  0.5950 -0.5073 -0.6499
46158SOL    HW243032   9.508   4.472   6.565  1.8219 -1.6276 -1.5860
46159SOL     OW43033   4.525   2.339   4.842  0.2425  0.3056 -0.1581
46159SOL    HW143034   4.616   2.337   4.812  0.7598 -0.4909  1.3752
46159SOL    HW243035   4.525   2.398   4.917  0.0237 -1.5598  1.3780
46160SOL     OW43036   7.697   0.535   3.551 -0.2127 -0.2225  0.3251
46160SOL    HW143037   7.751   0.573   3.482  0.3860 -1.1291  0.2837
46160SOL    HW243038   7.668   0.451   3.517  0.8166 -1.0929  1.4833
46161SOL     OW43039   2.428   9.788   6.709 -0.0190 -0.2206 -0.2289
46161SOL    HW143040   2.398   9.876   6.688  1.6707  0.1205 -1.4676
46161SOL    HW243041   2.520   9.799   6.733  0.0253 -1.5685  0.3589
46162SOL     OW43042   9.395   2.808   5.010 -0.6970  0.2538  0.1735
46162SOL    HW143043   9.425   2.801   4.919 -0.1221  0.9550  0.2982
46162SOL    HW243044   9.307   2.770   5.009 -0.3291 -0.6303 -0.4755
46163SOL     OW43045   9.281   9.468   2.438  0.0395  0.3863 -0.1840
46163SOL    HW143046   9.347   9.427   2.493 -0.3860 -1.7355 -1.1490
46163SOL    HW243047   9.199   9.426   2.464 -0.3577  0.3060 -1.5134
46164SOL     OW43048  11.276   6.404   2.604  0.0038 -0.5298  0.2727
46164SOL    HW143049  11.314   6.477   2.652 -1.2928  0.6132 -0.3658
46164SOL    HW243050  11.191   6.389   2.647  0.2089 -1.5997  0.3340
46165SOL     OW43051   3.350  10.587  11.267  0.7524 -0.3338  0.1014
46165SOL    HW143052   3.316  10.674  11.245  1.3793 -0.5280 -1.8111
46165SOL    HW243053   3.423  10.605  11.326  1.5733  0.5358 -1.1387
46166SOL     OW43054  10.839   7.360   0.877 -0.3205 -0.3708 -0.1859
46166SOL    HW143055  10.821   7.335   0.786  0.0537 -0.8794 -0.1231
46166SOL    HW243056  10.840   7.277   0.925 -0.3720 -0.1179  0.2617
46167SOL     OW43057   0.315   8.878   4.497 -0.2566  0.7358 -0.2563
46167SOL    HW143058   0.244   8.821   4.467 -0.8901  0.8362  0.9610
46167SOL    HW243059   0.384   8.819   4.525  0.1377  0.6341 -1.3812
46168SOL     OW43060   7.532   7.767  11.747  0.4144 -0.2147  0.6985
46168SOL    HW143061   7.592   7.842  11.749  1.2529 -0.8659  0.1744
46168SOL    HW243062   7.502   7.759  11.838 -1.2604  1.9870  0.4144
46169SOL     OW43063   1.910   3.315   8.971 -0.4039 -0.1243  0.3411
46169SOL    HW143064   1.859   3.277   8.900 -0.8846  0.2634  0.4693
46169SOL    HW243065   1.916   3.246   9.037 -0.4824 -0.2824  0.1825
46170SOL     OW43066   7.938   8.780   5.908  0.2998  0.0541  0.4296
46170SOL    HW143067   8.026   8.789   5.942  0.8725 -2.3993 -0.1865
46170SOL    HW243068   7.945   8.803   5.815  0.6325 -1.4918  0.0531
46171SOL     OW43069   3.353  11.420   7.101 -0.7187 -0.2205  0.2773
46171SOL    HW143070   3.384  11.477   7.171  1.4422 -1.4759  0.4404
46171SOL    HW243071   3.272  11.381   7.136 -0.1758 -0.1265  1.7012
46172SOL     OW43072  11.337   4.878   3.900  0.1078 -0.1944  0.2112
46172SOL    HW143073  11.347   4.973   3.888 -1.7526 -0.1001 -1.0047
46172SOL    HW243074  11.411   4.841   3.852 -0.6740  0.5962 -1.7110
46173SOL     OW43075   9.724   8.460  10.873 -0.1186 -0.0486  0.2696
46173SOL    HW143076   9.629   8.459  10.881 -0.2917  0.2837 -1.3483
46173SOL    HW243077   9.755   8.412  10.950 -1.5309  0.6204  1.3087
46174SOL     OW43078   1.700   6.963  10.555 -0.1974  0.5832 -0.0620
46174SOL    HW143079   1.680   6.884  10.505 -0.7248  0.9323 -0.4177
46174SOL    HW243080   1.784   6.993  10.522  0.1771 -0.0187  0.3221
46175SOL     OW43081   6.387   3.386   4.036 -0.1015  0.2530  0.1035
46175SOL    HW143082   6.440   3.308   4.053 -2.1169 -1.3553 -0.4673
46175SOL    HW243083   6.316   3.380   4.100 -1.4767  0.4079 -1.3450
46176SOL     OW43084   9.541   8.133   0.002 -0.1562 -0.7955 -0.2735
46176SOL    HW143085   9.582   8.219   0.001 -1.5061 -0.1159 -1.9279
46176SOL    HW243086   9.611   8.073  -0.025  0.2644  0.0601 -1.1354
46177SOL     OW43087   8.957   7.942  12.076  0.5571 -0.6745 -0.1733
46177SOL    HW143088   8.966   7.895  11.992  0.1946 -1.6343  0.3080
46177SOL    HW243089   8.874   7.988  12.068  1.1007  0.2343 -0.8036
46178SOL     OW43090   5.094  10.521  10.196 -0.0957 -0.3011  0.0281
46178SOL    HW143091   5.120  10.491  10.283  2.9770  1.7404 -0.0304
46178SOL    HW243092   5.022  10.582  10.212 -0.2123 -0.6853  1.0243
46179SOL     OW43093   6.128   5.876   9.093  0.8066  0.1903 -0.1730
46179SOL    HW143094   6.221   5.897   9.104  0.6432  0.7556  0.2103
46179SOL    HW243095   6.095   5.945   9.035  0.3582  0.7650  0.7330
46180SOL     OW43096  11.485   4.559   1.667  0.2320 -0.1606 -0.2912
46180SOL    HW143097  11.436   4.603   1.598  3.8596  3.1685 -1.1445
46180SOL    HW243098  11.446   4.591   1.748  0.4776  1.9124 -0.9296
46181SOL     OW43099   6.748   3.498   4.497  0.1957 -0.3109 -0.6350
46181SOL    HW143100   6.661   3.472   4.467  0.9955  0.0607 -3.5235
46181SOL    HW243101   6.789   3.417   4.526 -1.3048 -0.3833  1.5636
46182SOL     OW43102   0.566   4.792   6.434  0.1489  0.0165 -0.8788
46182SOL    HW143103   0.604   4.737   6.502 -0.0905  0.5596 -0.3034
46182SOL    HW243104   0.635   4.799   6.368  1.4172  1.6963  0.5375
46183SOL     OW43105   4.746   7.696   9.742  0.1133  0.6229  0.0928
46183SOL    HW143106   4.831   7.740   9.734  0.1356  0.5016 -0.3553
46183SOL    HW243107   4.760   7.609   9.704 -0.6406  1.1779 -1.5720
46184SOL     OW43108   4.198   9.314   7.974  0.0562 -0.0439  0.0960
46184SOL    HW143109   4.246   9.392   8.002  0.1308  0.4419 -1.2936
46184SOL    HW243110   4.106   9.341   7.973  0.2173  0.6710 -2.1490
46185SOL     OW43111  11.060   7.728  11.344 -0.3452  0.1075 -0.2240
46185SOL    HW143112  11.091   7.799  11.288 -0.5101 -0.2410 -0.7607
46185SOL    HW243113  11.098   7.747  11.430  1.0209 -0.0877 -0.7617
46186SOL     OW43114   1.288   8.425   0.729  0.2632 -0.8907  0.4842
46186SOL    HW143115   1.268   8.400   0.638  3.0172 -0.2257 -0.3911
46186SOL    HW243116   1.335   8.508   0.721 -0.5082 -0.1648  2.6659
46187SOL     OW43117   5.622   3.198   6.811  0.6826 -0.0728 -0.3495
46187SOL    HW143118   5.630   3.111   6.851  0.8266  0.1750  0.1730
46187SOL    HW243119   5.590   3.181   6.722  3.1466 -0.8434 -1.1702
46188SOL     OW43120   4.193   9.261  10.025 -0.5686  0.3752 -0.5429
46188SOL    HW143121   4.272   9.305   9.994  1.1372 -0.5353  2.1163
46188SOL    HW243122   4.195   9.175   9.983  0.0801  0.2437 -0.2675
46189SOL     OW43123   5.450   9.642   3.139 -0.0868  0.3938 -0.2170
46189SOL    HW143124   5.482   9.656   3.050 -1.4363 -0.7336 -0.9220
46189SOL    HW243125   5.430   9.729   3.172  1.3735  0.9084 -0.6307
46190SOL     OW43126   0.576   0.790   8.683  0.1213 -0.0565 -0.0649
46190SOL    HW143127   0.524   0.859   8.641 -0.0435  0.6386  1.2351
46190SOL    HW243128   0.558   0.711   8.632 -2.0048  0.2165  0.2059
46191SOL     OW43129   4.998   6.849   8.309  0.0410 -0.2752  0.1069
46191SOL    HW143130   5.074   6.874   8.361 -0.2861  1.8453 -0.3118
46191SOL    HW243131   4.969   6.766   8.345  0.8416  0.2935  2.1678
46192SOL     OW43132  10.929   5.403   2.020 -0.2377 -0.1873  0.0531
46192SOL    HW143133  10.975   5.391   2.103  0.5950 -0.0169 -0.3702
46192SOL    HW243134  10.839   5.376   2.038 -0.0412 -0.2494  0.9790
46193SOL     OW43135   5.888   5.079   9.978  0.0638  0.1483 -0.1158
46193SOL    HW143136   5.977   5.089  10.013  1.0529 -3.5408 -1.0891
46193SOL    HW243137   5.831   5.116  10.045  2.2431  1.7849  0.9691
46194SOL     OW43138   4.640  12.033   9.049  0.3002 -0.0564 -0.1379
46194SOL    HW143139   4.682  12.099   8.994  0.0377 -0.1775 -0.4832
46194SOL    HW243140   4.693  11.954   9.036  1.2530  0.3383  1.0825
46195SOL     OW43141   6.537   3.129   9.107  0.3128  0.1459 -0.1551
46195SOL    HW143142   6.500   3.045   9.080  0.0510 -0.0124  0.6591
46195SOL    HW243143   6.617   3.106   9.153  1.3725  0.4768 -1.7357
46196SOL     OW43144   0.732   8.177   1.390 -0.0958  0.2461  0.1486
46196SOL    HW143145   0.779   8.227   1.457  0.2258 -1.4612  1.2471
46196SOL    HW243146   0.784   8.098   1.378 -1.3414 -0.5008 -0.4967
46197SOL     OW43147  11.804   9.686   6.332 -0.2613  0.1904  0.3820
46197SOL    HW143148  11.764   9.773   6.332 -0.2231  0.2080  0.3224
46197SOL    HW243149  11.829   9.671   6.241  1.6035  0.9627  0.7283
46198SOL     OW43150   6.541   6.166   6.129 -0.3051  0.1716  0.2679
46198SOL    HW143151   6.507   6.080   6.154  2.2672 -1.7058 -2.0953
46198SOL    HW243152   6.600   6.190   6.201  0.5865 -1.1235  0.0133
46199SOL     OW43153   2.145   2.109   5.809  0.2645 -0.4333  0.0143
46199SOL    HW143154   2.140   2.014   5.805 -2.8119 -0.3167 -1.6377
46199SOL    HW243155   2.181   2.134   5.724 -2.2509 -0.0866 -1.0237
46200SOL     OW43156   4.169   6.157   5.986 -0.5677 -0.2326  0.3161
46200SOL    HW143157   4.133   6.219   5.922  0.2328  1.3975  1.3848
46200SOL    HW243158   4.208   6.212   6.054  0.6140 -1.9251  1.0759
46201SOL     OW43159   6.579   8.711  10.102  0.1160 -0.9392  0.3502
46201SOL    HW143160   6.560   8.729  10.194  1.7203 -0.2027  0.5723
46201SOL    HW243161   6.498   8.730  10.056 -0.4542 -0.4954  1.5167
46202SOL     OW43162   8.817  10.385  11.006 -0.5220 -0.3485  0.4756
46202SOL    HW143163   8.837  10.297  11.036 -3.1142 -0.4685  2.1381
46202SOL    HW243164   8.894  10.437  11.030  0.5199 -1.8863  0.5910
46203SOL     OW43165   7.411   9.362   1.176  0.4634  0.5797  0.1283
46203SOL    HW143166   7.432   9.366   1.269 -0.5042  0.3754  0.3697
46203SOL    HW243167   7.494   9.342   1.133  1.0394  1.2802  0.8853
46204SOL     OW43168   0.417   4.066   1.084  0.4158 -0.1963 -0.6799
46204SOL    HW143169   0.404   3.981   1.042 -0.2107 -0.8837  0.8542
46204SOL    HW243170   0.431   4.046   1.176 -1.1742  1.4423 -0.0253
46205SOL     OW43171   0.031   6.251   0.253 -0.0883  0.1525  0.1922
46205SOL    HW143172   0.059   6.257   0.162  1.2308 -2.6086  0.3240
46205SOL    HW243173   0.100   6.295   0.303  0.1890 -0.0605 -0.0027
46206SOL     OW43174   1.494   0.449   9.824  0.0583  0.5863 -0.7138
46206SOL    HW143175   1.435   0.438   9.898  0.9993 -0.3157 -0.0707
46206SOL    HW243176   1.569   0.394   9.845  0.4509  0.5007 -2.2306
46207SOL     OW43177   3.941   9.063   8.240  0.4955  0.2327 -0.1391
46207SOL    HW143178   3.862   9.075   8.187  0.1004  1.0546  0.6019
46207SOL    HW243179   3.915   9.093   8.327  2.2219  2.5901 -0.3389
46208SOL     OW43180  11.751  11.702   8.624 -0.4593 -0.2415 -0.3138
46208SOL    HW143181  11.791  11.781   8.589 -0.1692  0.0256  0.6014
46208SOL    HW243182  11.820  11.636   8.619 -0.0575  0.0735  0.7319
46209SOL     OW43183   1.494   9.828   0.809 -0.1430 -0.0003 -0.0402
46209SOL    HW143184   1.513   9.829   0.715 -1.0999 -1.4537 -0.2864
46209SOL    HW243185   1.580   9.830   0.850  0.3144  0.0785 -0.9605
46210SOL     OW43186   8.138   5.031   8.247 -0.0783  0.3931 -0.3347
46210SOL    HW143187   8.186   5.086   8.308  0.2827 -1.5484  1.2266
46210SOL    HW243188   8.055   5.077   8.233 -0.0098  1.0829  1.3286
46211SOL     OW43189   7.479   5.540   8.097 -0.6629 -0.0783 -0.0194
46211SOL    HW143190   7.460   5.613   8.038  0.7652 -0.1158 -0.5630
46211SOL    HW243191   7.424   5.468   8.065 -0.3005  0.0601 -0.9712
46212SOL     OW43192   4.359   6.286   8.142 -0.8818  0.0915 -0.3381
46212SOL    HW143193   4.365   6.299   8.237  0.4357 -1.2745 -0.1941
46212SOL    HW243194   4.364   6.375   8.106  1.5571  0.5109  0.7824
46213SOL     OW43195   2.950   4.041  10.047  0.3631  0.2353  0.0268
46213SOL    HW143196   3.022   4.085  10.001 -0.7754  1.1931 -0.8993
46213SOL    HW243197   2.958   4.070  10.138  0.6683  0.9690 -0.2277
46214SOL     OW43198   1.191   8.719  11.061  0.8282 -0.0645  0.2098
46214SOL    HW143199   1.163   8.644  11.114  1.9574  0.8959  2.2970
46214SOL    HW243200   1.181   8.794  11.119 -0.6996  1.5344 -1.9753
46215SOL     OW43201   8.707   4.532   7.641  0.2473 -0.5803 -0.1076
46215SOL    HW143202   8.799   4.551   7.660  0.4627  0.3825 -1.9062
46215SOL    HW243203   8.704   4.437   7.628  0.9266 -0.6453  0.1736
46216SOL     OW43204   8.095   2.908  10.854 -0.0025  0.0389 -0.0423
46216SOL    HW143205   8.111   2.918  10.760  1.6077  1.0420  0.3021
46216SOL    HW243206   8.161   2.845  10.883 -0.2719 -0.0173  0.4640
46217SOL     OW43207   9.785   7.645  10.662  0.1209 -0.1081 -0.1189
46217SOL    HW143208   9.694   7.666  10.683  0.3830  0.1920  0.7717
46217SOL    HW243209   9.818   7.601  10.740  0.5104 -0.9600 -0.7458
46218SOL     OW43210   9.966   9.813   5.362 -0.2421 -0.1970  0.1425
46218SOL    HW143211   9.946   9.771   5.278 -0.2949 -1.8297  0.9243
46218SOL    HW243212   9.892   9.789   5.418 -0.4360  1.2551  0.5545
46219SOL     OW43213   0.008   7.410   9.148  0.3896 -0.2756  0.2973
46219SOL    HW143214   0.068   7.373   9.213  2.0512 -0.8985 -1.5011
46219SOL    HW243215  -0.030   7.333   9.105  0.5209  0.1017 -0.5064
46220SOL     OW43216  11.499  11.056   8.083  0.6958  0.4967  0.1657
46220SOL    HW143217  11.422  11.019   8.040  0.7641  0.5350  0.0102
46220SOL    HW243218  11.497  11.149   8.060 -0.8007  1.1323  2.4664
46221SOL     OW43219   7.985   9.134   4.579  0.3376 -0.1008 -0.2380
46221SOL    HW143220   7.928   9.109   4.652  3.3818 -2.1884  1.7209
46221SOL    HW243221   8.035   9.208   4.613  2.5961 -1.8115  0.4222
46222SOL     OW43222   0.473   3.442   5.983 -0.0565  0.2006  0.5293
46222SOL    HW143223   0.493   3.418   6.074 -0.7698 -0.4039  0.5410
46222SOL    HW243224   0.379   3.462   5.984 -0.1609 -0.2351 -0.1533
46223SOL     OW43225   3.701   2.174  11.097  0.2843  0.6221  0.3344
46223SOL    HW143226   3.765   2.133  11.039 -0.3835  0.0027  0.0182
46223SOL    HW243227   3.751   2.199  11.174  0.9379  0.2946  0.0245
46224SOL     OW43228   8.255   6.844   1.727 -0.9391 -0.1696 -0.1011
46224SOL    HW143229   8.300   6.836   1.643  0.8488 -0.5025  0.8360
46224SOL    HW243230   8.237   6.937   1.737  0.1393  0.0633 -0.2277
46225SOL     OW43231   3.127   5.095   7.493  0.0948  0.1344  0.4565
46225SOL    HW143232   3.180   5.173   7.507  0.5129 -0.0517 -0.0643
46225SOL    HW243233   3.061   5.097   7.564  0.1142  0.9376  0.4551
46226SOL     OW43234   2.006  11.717   3.522 -0.4756 -0.1197 -0.2032
46226SOL    HW143235   2.094  11.703   3.486 -0.5348  0.6586 -0.6510
46226SOL    HW243236   2.015  11.792   3.580 -0.0990 -2.0651  2.4482
46227SOL     OW43237  11.743   3.614   3.290 -0.2836 -0.0654 -0.1672
46227SOL    HW143238  11.785   3.642   3.208  0.7174 -0.9552  0.0173
46227SOL    HW243239  11.811   3.563   3.334 -0.7969  0.4569  1.2545
46228SOL     OW43240   0.020   9.965   7.038  0.5082 -0.2712  0.3361
46228SOL    HW143241  -0.069   9.935   7.019  0.7254 -0.6993 -0.0195
46228SOL    HW243242   0.076   9.909   6.984  0.8525  1.5259 -1.3021
46229SOL     OW43243   2.884   2.765  11.099 -0.2547  0.6065  0.7855
46229SOL    HW143244   2.791   2.784  11.085 -0.4376 -1.9723 -3.1529
46229SOL    HW243245   2.928   2.804  11.024  1.6586  0.4714  1.7823
46230SOL     OW43246  10.424   5.365   7.772 -0.0567 -0.5364  0.5037
46230SOL    HW143247  10.388   5.348   7.859 -1.5572 -0.9769 -0.1764
46230SOL    HW243248  10.406   5.286   7.722  1.3744 -0.5414 -0.0457
46231SOL     OW43249   0.994   1.484   7.910 -0.0217  0.0226 -0.2819
46231SOL    HW143250   0.898   1.488   7.915 -0.0317  0.5701 -0.7883
46231SOL    HW243251   1.013   1.396   7.877 -0.3582 -0.0329 -0.3289
46232SOL     OW43252   8.122   5.734   7.308  0.2295  0.8529 -0.4457
46232SOL    HW143253   8.074   5.653   7.323 -1.3790  1.5032 -1.7217
46232SOL    HW243254   8.062   5.804   7.334  1.6781  1.6798  0.8886
46233SOL     OW43255   5.104  10.451  10.459 -0.3085  0.1944  0.1334
46233SOL    HW143256   5.051  10.372  10.450  0.9993 -0.5920 -1.0323
46233SOL    HW243257   5.098  10.473  10.552 -1.8544 -0.4157  0.2166
46234SOL     OW43258   0.583   8.465  10.785  0.4098  0.7213  0.7003
46234SOL    HW143259   0.648   8.516  10.833  0.0090  1.4363  0.4998
46234SOL    HW243260   0.505   8.520  10.785  0.7808  1.4044 -1.9450
46235SOL     OW43261   6.463   5.142   9.598  0.0769 -0.3072 -0.7038
46235SOL    HW143262   6.474   5.140   9.503 -0.3106  1.6215 -0.8318
46235SOL    HW243263   6.544   5.182   9.630 -0.5502  0.7719 -0.4141
46236SOL     OW43264   1.456   9.229  11.271  0.6897 -0.5637  0.3270
46236SOL    HW143265   1.429   9.223  11.362  1.5116 -1.8400  0.5235
46236SOL    HW243266   1.408   9.158  11.227  0.3786 -0.0273 -0.2245
46237SOL     OW43267   1.446   5.855   9.999 -0.2446  0.3045 -0.2099
46237SOL    HW143268   1.449   5.908  10.078 -2.3384 -1.6540  1.3399
46237SOL    HW243269   1.361   5.875   9.960  0.5966  0.9442 -1.7817
46238SOL     OW43270  11.058   6.868   2.707 -0.2078  0.1644  0.1294
46238SOL    HW143271  11.097   6.942   2.753  0.3464  1.0838 -1.7188
46238SOL    HW243272  11.121   6.797   2.719  0.7636  0.8723 -0.5751
46239SOL     OW43273  11.648   3.646   9.859 -0.8149 -0.0038  0.0616
46239SOL    HW143274  11.588   3.581   9.896  1.1780 -2.1779 -0.3111
46239SOL    HW243275  11.652   3.715   9.925 -1.6429 -1.1050  1.3082
46240SOL     OW43276   9.843  11.381   8.525  0.1083  0.6891  0.6988
46240SOL    HW143277   9.758  11.369   8.484  0.2218  2.5842 -0.2086
46240SOL    HW243278   9.893  11.432   8.461  2.6321 -1.9639  0.3275
46241SOL     OW43279   2.675   1.473   9.399  0.4700  0.3542  0.0409
46241SOL    HW143280   2.670   1.422   9.318  1.6551  0.7945 -0.3362
46241SOL    HW243281   2.608   1.540   9.389 -0.7573 -0.7966  0.3186
46242SOL     OW43282   8.704   9.199   1.119 -0.1450  0.1284 -0.0685
46242SOL    HW143283   8.756   9.187   1.199 -1.2996  1.9092  1.0112
46242SOL    HW243284   8.761   9.248   1.060  0.6135 -0.9494 -0.2526
46243SOL     OW43285   3.553   4.256   2.611  0.1523  0.2347  0.0147
46243SOL    HW143286   3.482   4.243   2.675  0.9700 -1.3733  0.6618
46243SOL    HW243287   3.600   4.333   2.643 -1.1293  1.1774 -0.2850
46244SOL     OW43288  10.904   8.438   5.294 -0.1508  0.3153 -0.4169
46244SOL    HW143289  10.950   8.521   5.291 -1.1596  0.8940 -0.4701
46244SOL    HW243290  10.846   8.445   5.370  0.4929 -0.7515  0.1960
46245SOL     OW43291   0.894  11.317   4.215  0.3303  0.2005  0.1631
46245SOL    HW143292   0.909  11.229   4.181 -0.2938  0.1412  0.0259
46245SOL    HW243293   0.800  11.332   4.203  0.6099  1.3137 -0.8386
46246SOL     OW43294   9.657   4.130  11.473 -0.5577 -0.4265  0.3420
46246SOL    HW143295   9.638   4.224  11.470 -0.4867 -0.3436  1.7139
46246SOL    HW243296   9.658   4.109  11.566 -0.9797 -1.8864  0.0439
46247SOL     OW43297  10.379   8.724   0.004 -0.2640  0.2057 -0.4897
46247SOL    HW143298  10.358   8.661   0.073  0.9028 -1.3239 -1.4753
46247SOL    HW243299  10.411   8.801   0.051  0.8913 -0.9421  0.6724
46248SOL     OW43300  11.251   9.488   6.729 -0.3992  0.5902  0.7626
46248SOL    HW143301  11.181   9.547   6.756  0.0713  1.2918  0.4693
46248SOL    HW243302  11.234   9.472   6.636 -0.8061 -0.1418  0.9524
46249SOL     OW43303  10.885   1.776  10.583 -0.0658  0.3503  0.1549
46249SOL    HW143304  10.958   1.730  10.542 -0.5469  0.0215 -0.3471
46249SOL    HW243305  10.907   1.778  10.677  0.4885  0.0833  0.0319
46250SOL     OW43306   3.337   3.835   7.921  0.0652 -0.7786 -0.0530
46250SOL    HW143307   3.263   3.888   7.952 -0.1024 -0.8692 -0.3014
46250SOL    HW243308   3.414   3.875   7.964  0.1505  0.7087 -1.4999
46251SOL     OW43309   3.647   5.334   4.061 -0.0341  0.5617 -0.3971
46251SOL    HW143310   3.606   5.347   4.147 -1.2615 -1.4116 -0.6237
46251SOL    HW243311   3.728   5.289   4.080 -0.4738 -0.1923 -0.2778
46252SOL     OW43312  11.824   6.438  10.407  0.3454 -0.5789 -0.2888
46252SOL    HW143313  11.729   6.437  10.394  0.5537  1.7756 -3.0381
46252SOL    HW243314  11.841   6.521  10.452  1.2133  0.4020 -2.2920
46253SOL     OW43315   4.889   3.768   2.815  0.0509 -0.2463  0.1797
46253SOL    HW143316   4.854   3.693   2.863 -0.8629 -0.2998 -0.5479
46253SOL    HW243317   4.961   3.733   2.764 -1.8660 -1.1985 -2.0307
46254SOL     OW43318   7.527   8.460   0.651 -0.8216  0.3954  0.1173
46254SOL    HW143319   7.455   8.418   0.604 -0.5745  1.6568 -1.4632
46254SOL    HW243320   7.587   8.490   0.583  0.9552 -0.1005  1.3537
46255SOL     OW43321   3.545   7.322   9.106  0.0632  0.0961  0.0643
46255SOL    HW143322   3.526   7.323   9.012 -0.0475  1.3554  0.0817
46255SOL    HW243323   3.639   7.340   9.112 -0.1356  1.1440  0.2196
46256SOL     OW43324   1.644   2.673   6.095 -0.0702  0.0370 -0.0752
46256SOL    HW143325   1.561   2.641   6.131  0.4152 -0.6986  0.4242
46256SOL    HW243326   1.636   2.768   6.098  0.0975  0.0498  2.3925
46257SOL     OW43327   7.426   8.565   0.336 -0.5243  0.1557  0.0716
46257SOL    HW143328   7.418   8.543   0.244 -0.4850  0.3905  0.0126
46257SOL    HW243329   7.511   8.529   0.362 -1.2285 -1.3375  0.4223
46258SOL     OW43330   7.058   8.991   9.675 -0.6309 -0.5840  0.1042
46258SOL    HW143331   7.106   8.945   9.606  1.2987  0.3347  0.7483
46258SOL    HW243332   6.988   9.037   9.629  1.3767  1.0466 -1.5206
46259SOL     OW43333  11.303   6.064   9.751  0.4761  0.0342 -0.2938
46259SOL    HW143334  11.343   5.978   9.763 -0.8377 -0.5121  0.4483
46259SOL    HW243335  11.217   6.046   9.715  0.0856  1.0137  0.0976
46260SOL     OW43336   8.515   7.535   0.726 -0.2561  0.0670 -0.1649
46260SOL    HW143337   8.607   7.527   0.749 -0.4397  0.3886  0.7393
46260SOL    HW243338   8.492   7.625   0.751 -1.5031 -0.8479  2.2841
46261SOL     OW43339   7.059   6.412  10.203  0.3184  0.0759  0.5374
46261SOL    HW143340   6.987   6.448  10.151  1.4312 -0.6765 -1.6369
46261SOL    HW243341   7.139   6.442  10.159  1.3024 -2.3245  0.4878
46262SOL     OW43342  12.007   6.698   2.167  0.1254 -0.7521  0.3433
46262SOL    HW143343  12.026   6.708   2.260  0.9000 -0.3482  0.1440
46262SOL    HW243344  11.932   6.756   2.152 -0.2799 -1.1511  0.7998
46263SOL     OW43345   0.122  11.446   3.259 -0.3754  0.1736 -0.1661
46263SOL    HW143346   0.168  11.410   3.335 -1.4363 -0.7257  0.0803
46263SOL    HW243347   0.151  11.392   3.186  0.8425  1.2011 -0.4841
46264SOL     OW43348  12.116   3.726   1.214  0.7155 -0.1126  0.0768
46264SOL    HW143349  12.092   3.716   1.306 -0.4184 -0.6818 -0.2608
46264SOL    HW243350  12.032   3.730   1.167  1.2341  1.7233 -0.8035
46265SOL     OW43351   9.305   6.778   3.768 -0.3454  0.1971 -0.2456
46265SOL    HW143352   9.261   6.852   3.727  1.8117  1.2892 -0.7220
46265SOL    HW243353   9.358   6.816   3.837  0.7160 -0.8853 -0.4177
46266SOL     OW43354   4.158   3.624   7.930 -0.2052  0.0137 -0.2622
46266SOL    HW143355   4.076   3.674   7.923 -0.2262 -0.0508 -0.4707
46266SOL    HW243356   4.223   3.688   7.959 -0.2017  0.1900 -0.6629
46267SOL     OW43357  10.212   6.013   4.236  0.0002  0.1060  0.2071
46267SOL    HW143358  10.154   6.081   4.271 -1.6365 -0.7339 -0.7642
46267SOL    HW243359  10.252   5.974   4.314 -1.0264  0.4658  0.9429
46268SOL     OW43360   9.297   2.059  11.035 -0.2471  0.3457  0.3944
46268SOL    HW143361   9.319   2.114  10.960 -2.2386  1.0660  0.2618
46268SOL    HW243362   9.306   2.117  11.111  1.0005 -0.1601  0.6550
46269SOL     OW43363   7.396   9.254  10.062 -0.0689 -0.2153  0.4183
46269SOL    HW143364   7.365   9.273  10.150 -1.5374 -0.0371 -0.0974
46269SOL    HW243365   7.417   9.161  10.062  0.0365 -0.1920  0.9745
46270SOL     OW43366   2.703   0.608   9.192 -0.2162 -0.6383 -0.0692
46270SOL    HW143367   2.769   0.544   9.166  0.7600  0.5246 -0.5706
46270SOL    HW243368   2.732   0.690   9.152 -2.1217 -0.1401 -0.5619
46271SOL     OW43369   4.409   9.684   4.010  0.4250 -0.2363 -0.2359
46271SOL    HW143370   4.392   9.646   4.096 -1.6170 -3.0093 -1.7286
46271SOL    HW243371   4.500   9.662   3.991  0.3533 -1.1904  0.4772
46272SOL     OW43372  11.065   7.372   0.011 -0.2524  0.5826  0.5275
46272SOL    HW143373  11.098   7.334  -0.071 -1.3279  0.5931  0.0681
46272SOL    HW243374  10.974   7.393  -0.008 -0.0829  2.0630  1.2417
46273SOL     OW43375   6.805   1.532  10.505 -0.5359 -0.3307  0.1937
46273SOL    HW143376   6.733   1.584  10.468 -0.1759 -0.6025 -0.9208
46273SOL    HW243377   6.818   1.569  10.593 -1.7429  0.0065  0.2546
46274SOL     OW43378   4.916   1.655   5.783 -0.5217  0.0811  0.2652
46274SOL    HW143379   4.954   1.740   5.803 -2.3254  0.6710  1.4318
46274SOL    HW243380   4.851   1.641   5.852 -1.5533 -1.4052 -0.9485
46275SOL     OW43381   9.434   0.521  11.197  0.2768 -0.0862  0.2291
46275SOL    HW143382   9.511   0.500  11.251 -0.3321  0.4023  1.3241
46275SOL    HW243383   9.427   0.448  11.136  0.6376 -0.9702  1.2177
46276SOL     OW43384   1.996   0.107  11.566  0.3745 -0.1349  0.4085
46276SOL    HW143385   2.076   0.069  11.601  0.8359  1.0827  0.7421
46276SOL    HW243386   2.026   0.179  11.511 -0.4723 -0.0707  0.0093
46277SOL     OW43387   4.181   3.556  11.770  0.0177  0.5975  0.3755
46277SOL    HW143388   4.129   3.634  11.755  0.7119  1.2090  1.0859
46277SOL    HW243389   4.117   3.489  11.796 -0.3338  1.7399  2.7710
46278SOL     OW43390   2.023   1.009   0.030  0.4685  0.0469 -0.2394
46278SOL    HW143391   2.105   1.014  -0.021  1.4014  1.4331  1.2982
46278SOL    HW243392   1.972   1.084  -0.001  0.7439  0.4794  0.3205
46279SOL     OW43393   8.586  12.092   5.596  0.2437 -0.7667  0.1647
46279SOL    HW143394   8.526  12.156   5.633  0.5247 -0.0702 -0.5723
46279SOL    HW243395   8.640  12.064   5.670  3.0611  3.0399 -0.1289
46280SOL     OW43396   9.647  11.219   1.771 -0.2024  0.8971 -0.7130
46280SOL    HW143397   9.652  11.314   1.758  0.1450  0.8115 -1.2609
46280SOL    HW243398   9.648  11.207   1.865  1.2861  1.3736 -0.6440
46281SOL     OW43399   4.085   9.642  10.693 -0.1155 -0.1841  0.0857
46281SOL    HW143400   4.055   9.706  10.628  0.2224  0.5191  0.6060
46281SOL    HW243401   4.005   9.613  10.736 -0.1073  1.7939  1.5675
46282SOL     OW43402   2.684  12.085   8.623 -0.4568 -0.4554 -0.7638
46282SOL    HW143403   2.592  12.101   8.602 -0.4562 -1.7346 -1.8909
46282SOL    HW243404   2.712  12.163   8.672 -2.2274 -0.2216 -0.0601
46283SOL     OW43405  11.189   9.320   3.474 -0.6455  0.0457  0.0017
46283SOL    HW143406  11.147   9.272   3.403 -1.3040 -0.8004  0.9412
46283SOL    HW243407  11.162   9.411   3.460 -0.3692 -0.0240 -1.0955
46284SOL     OW43408   1.456   5.456   4.871  0.7826 -0.5495 -0.0386
46284SOL    HW143409   1.418   5.369   4.883  0.8053 -0.7858 -1.4383
46284SOL    HW243410   1.537   5.440   4.822  1.4483  0.1565  0.8122
46285SOL     OW43411   2.075   1.237   2.161 -0.4619  0.1563  0.3330
46285SOL    HW143412   1.988   1.273   2.178 -0.5942 -0.0717  0.1500
46285SOL    HW243413   2.068   1.197   2.075  0.1455  1.1388 -0.1986
46286SOL     OW43414   6.870   9.212   1.808  0.1308 -0.1534  0.2019
46286SOL    HW143415   6.814   9.256   1.872 -0.0523  1.3339 -0.9367
46286SOL    HW243416   6.958   9.220   1.844  0.1530  1.5242 -0.1373
46287SOL     OW43417   1.977   0.827   3.023  0.1023 -0.0322  0.1510
46287SOL    HW143418   1.969   0.735   3.048  1.7786 -0.9103 -2.1733
46287SOL    HW243419   1.940   0.830   2.935 -0.2070  1.6160  0.3162
46288SOL     OW43420   4.467   8.468   0.661  0.1107 -0.0736  0.2305
46288SOL    HW143421   4.520   8.516   0.726 -1.3580  1.7182  0.1910
46288SOL    HW243422   4.390   8.439   0.710 -0.1356 -0.3108 -0.2919
46289SOL     OW43423   7.572  11.714   3.648  0.3088 -0.6927  0.2169
46289SOL    HW143424   7.621  11.698   3.728 -1.4928 -0.8343  1.3431
46289SOL    HW243425   7.549  11.807   3.652 -1.0309 -1.0344  0.6011
46290SOL     OW43426   1.155   6.697   8.525 -0.0522  0.1768 -0.1708
46290SOL    HW143427   1.108   6.767   8.481  0.3812  0.3464 -0.3708
46290SOL    HW243428   1.243   6.732   8.540 -0.2410  0.1819  0.9892
46291SOL     OW43429  11.385   2.114   7.014 -0.2438 -0.6881  0.3604
46291SOL    HW143430  11.407   2.093   6.924  0.2304  0.3050  0.2354
46291SOL    HW243431  11.406   2.034   7.063  0.1106 -1.0096 -0.3105
46292SOL     OW43432   9.160   0.476   6.264  0.0777 -0.0100  0.1475
46292SOL    HW143433   9.102   0.439   6.331 -0.9266 -0.5958 -1.0047
46292SOL    HW243434   9.102   0.527   6.207  0.8196  0.0424 -0.5826
46293SOL     OW43435   3.554   0.066   0.912 -0.2797 -0.4497  0.3754
46293SOL    HW143436   3.530   0.090   0.823  1.0774 -0.8105 -0.1061
46293SOL    HW243437   3.552  -0.030   0.913 -1.1124 -0.4433  0.9874
46294SOL     OW43438   2.195   4.505   7.516 -0.2283 -0.5850 -0.2727
46294SOL    HW143439   2.217   4.429   7.569 -2.2503 -1.2144 -0.2290
46294SOL    HW243440   2.223   4.580   7.568 -0.8226 -1.2384  1.0310
46295SOL     OW43441  11.021   9.748   0.591 -0.2337  0.3440  0.2288
46295SOL    HW143442  11.076   9.672   0.572  1.0593  1.1360  0.6976
46295SOL    HW243443  11.036   9.767   0.684  1.4062  2.6242 -0.4006
46296SOL     OW43444   5.072   1.283   7.556  0.4153  0.3220 -0.1528
46296SOL    HW143445   4.991   1.281   7.505  0.0785  1.3067  0.3191
46296SOL    HW243446   5.132   1.337   7.505  1.0301 -0.9377 -0.8263
46297SOL     OW43447   3.548   1.516   9.442  0.5220 -0.0765 -0.5283
46297SOL    HW143448   3.626   1.507   9.497  2.1618  0.1752 -2.6678
46297SOL    HW243449   3.490   1.445   9.469  2.3626 -1.5061 -0.2018
46298SOL     OW43450   1.230   4.105   5.189  0.0013  0.4475 -0.3110
46298SOL    HW143451   1.315   4.132   5.224  0.4659  1.1122 -1.8642
46298SOL    HW243452   1.250   4.027   5.136 -0.4627  0.2069 -0.1343
46299SOL     OW43453   3.293   3.538   7.903  0.3548  0.6443  1.0468
46299SOL    HW143454   3.379   3.498   7.891  0.3017  0.5905  0.8429
46299SOL    HW243455   3.312   3.625   7.938  0.5593  1.1464 -0.2474
46300SOL     OW43456   6.730   8.039   3.504  0.6299  0.3228 -0.2180
46300SOL    HW143457   6.638   8.034   3.531  0.7483  0.4222  0.2173
46300SOL    HW243458   6.779   8.036   3.586  1.0391 -0.3083 -0.4751
46301SOL     OW43459   8.236  11.443   1.567 -0.3200  0.0148  0.3947
46301SOL    HW143460   8.285  11.386   1.625 -1.5903 -1.9951 -0.4186
46301SOL    HW243461   8.148  11.447   1.606 -0.8417 -0.3686 -0.6964
46302SOL     OW43462   4.826   3.979   3.940  0.1335 -0.1323  0.4895
46302SOL    HW143463   4.853   4.068   3.918  1.9631 -0.6178  0.5845
46302SOL    HW243464   4.825   3.933   3.856 -1.4177  0.0989  0.3562
46303SOL     OW43465   5.952   7.761   9.185 -0.3422  0.4593 -0.0173
46303SOL    HW143466   5.914   7.722   9.264 -0.7401  0.0693 -0.3952
46303SOL    HW243467   5.958   7.689   9.123  0.4732  0.6531 -0.1656
46304SOL     OW43468   1.114   0.092  11.888 -0.1207  0.4025  0.2252
46304SOL    HW143469   1.082   0.077  11.799 -1.7030 -0.1802  0.8626
46304SOL    HW243470   1.204   0.058  11.887 -0.3524 -0.2211 -0.9684
46305SOL     OW43471   6.690  11.297   2.541 -0.4217 -0.2044 -0.8598
46305SOL    HW143472   6.721  11.353   2.612 -1.0128 -0.3208 -0.5022
46305SOL    HW243473   6.709  11.208   2.570 -1.9054 -0.3381 -0.2064
46306SOL     OW43474  10.531   0.339   0.248 -0.3852 -0.1391 -0.1473
46306SOL    HW143475  10.450   0.291   0.267 -0.4295 -0.3936 -0.9336
46306SOL    HW243476  10.547   0.322   0.155  0.0543  0.6975 -0.2314
46307SOL     OW43477   7.668   9.948  11.846  0.0153 -0.6272 -0.2494
46307SOL    HW143478   7.580   9.941  11.809  0.7681 -0.3438 -2.2260
46307SOL    HW243479   7.709  10.018  11.795  1.3963 -0.7922  0.6015
46308SOL     OW43480   5.090   4.683   8.621 -0.4111 -0.0289 -0.5851
46308SOL    HW143481   5.001   4.698   8.653 -0.0720 -2.1952  1.6582
46308SOL    HW243482   5.136   4.765   8.640 -2.0796  1.5038 -2.7144
46309SOL     OW43483   3.577  11.730   0.138 -0.1044 -0.2806 -0.5153
46309SOL    HW143484   3.609  11.646   0.172 -0.9018 -0.2929  0.2411
46309SOL    HW243485   3.523  11.765   0.209  1.4087  1.5868 -0.1848
46310SOL     OW43486   4.973   0.743   6.248  0.4552 -0.0982 -0.0392
46310SOL    HW143487   5.062   0.716   6.270  0.6441  0.6365  0.1216
46310SOL    HW243488   4.923   0.662   6.244  1.1466 -0.5223 -0.1905
46311SOL     OW43489   3.398   3.638   2.982 -0.5547  0.5337  0.1948
46311SOL    HW143490   3.357   3.701   2.924  0.3813 -0.0568 -1.1571
46311SOL    HW243491   3.487   3.626   2.947 -0.5642 -1.2003  0.6508
46312SOL     OW43492   4.158   6.048   9.801  0.0194  0.3833 -0.1014
46312SOL    HW143493   4.075   6.033   9.846  0.6731  1.5651  1.6226
46312SOL    HW243494   4.168   6.144   9.802  1.1854  0.2829 -0.6700
46313SOL     OW43495   1.797   0.953   6.982 -0.1040  0.6365  0.1212
46313SOL    HW143496   1.751   0.921   6.905 -0.6408 -0.6165  0.9251
46313SOL    HW243497   1.756   1.037   7.001 -1.1084  0.1901 -0.0008
46314SOL     OW43498   9.932  11.440   9.419 -0.3847 -0.1470  0.4207
46314SOL    HW143499   9.883  11.362   9.445 -2.4343  0.5914 -0.9517
46314SOL    HW243500   9.870  11.512   9.431  0.9098  1.0622  0.1071
46315SOL     OW43501   9.455   4.852   3.342  0.6968 -0.1444 -0.5156
46315SOL    HW143502   9.529   4.913   3.340  0.8340 -0.1841  1.3618
46315SOL    HW243503   9.389   4.897   3.395 -0.8401  0.0726 -2.4929
46316SOL     OW43504   4.564   6.466   8.436 -0.1897  0.0645  0.3020
46316SOL    HW143505   4.532   6.542   8.386 -1.0382  0.0378  0.7812
46316SOL    HW243506   4.621   6.420   8.375  0.4936  1.1912  0.0611
46317SOL     OW43507   6.566   0.433   2.194  0.4080  0.1040 -0.2885
46317SOL    HW143508   6.628   0.506   2.195  0.3494  0.2415 -2.4874
46317SOL    HW243509   6.550   0.416   2.101 -0.7023 -1.7680  0.1878
46318SOL     OW43510   8.647   8.538  11.201 -0.1152  0.3970  0.5823
46318SOL    HW143511   8.732   8.559  11.162 -1.3935  0.0540 -2.7464
46318SOL    HW243512   8.656   8.448  11.232  0.6338  0.2416 -0.0517
46319SOL     OW43513   9.380  11.812   0.885 -0.3337  0.3835 -0.2395
46319SOL    HW143514   9.470  11.805   0.918 -0.4632  1.6924  0.4661
46319SOL    HW243515   9.385  11.778   0.796  0.4110 -1.5110  0.4755
46320SOL     OW43516   1.896   1.151   9.928 -0.1445 -0.2811  0.3798
46320SOL    HW143517   1.937   1.075   9.888  0.7337  0.3602  0.0182
46320SOL    HW243518   1.839   1.115   9.996 -1.4969 -1.3707 -1.2607
46321SOL     OW43519   9.433   3.924  12.094 -0.1209  0.6625  0.0918
46321SOL    HW143520   9.484   4.005  12.088  1.8846 -0.5584 -0.2084
46321SOL    HW243521   9.483   3.860  12.043 -0.3131 -1.4205  2.3264
46322SOL     OW43522  11.446   7.745  10.696 -0.0262  0.3331 -0.3342
46322SOL    HW143523  11.453   7.669  10.639  1.7665  0.7610 -0.7750
46322SOL    HW243524  11.356   7.745  10.727 -0.2419 -1.5680 -0.8582
46323SOL     OW43525   4.493   9.481   5.878 -1.0428 -0.6732  0.0254
46323SOL    HW143526   4.463   9.429   5.804 -0.8043 -0.0162 -0.5423
46323SOL    HW243527   4.507   9.417   5.948  0.2038 -1.5131 -0.9415
46324SOL     OW43528   1.183   7.253   7.607  0.0625 -0.2209 -0.6255
46324SOL    HW143529   1.261   7.198   7.615  0.2282 -0.1984 -1.8060
46324SOL    HW243530   1.170   7.290   7.694  1.3185 -0.3104 -0.3796
46325SOL     OW43531   5.662  11.005   3.315  0.1345  0.0469 -0.0467
46325SOL    HW143532   5.617  11.032   3.395  0.6535 -0.5664  0.4632
46325SOL    HW243533   5.597  10.950   3.270 -0.0033  0.0319  0.1663
46326SOL     OW43534  10.256   5.691   2.427 -0.4563  0.2087 -0.0424
46326SOL    HW143535  10.188   5.624   2.432 -0.7771  0.5420  0.1374
46326SOL    HW243536  10.311   5.664   2.354 -1.9795  1.0319 -1.5733
46327SOL     OW43537  10.547   7.687   1.586  0.0591 -1.2929  0.0458
46327SOL    HW143538  10.614   7.728   1.531  0.0233  0.2725  1.0974
46327SOL    HW243539  10.583   7.601   1.608  0.3406 -1.7078 -1.8928
46328SOL     OW43540  10.942   4.585   8.198  0.0892 -0.1515 -0.3991
46328SOL    HW143541  10.882   4.533   8.252 -0.6391  0.0876 -0.9731
46328SOL    HW243542  10.886   4.637   8.141  0.8188 -1.3803 -2.3494
46329SOL     OW43543   2.045   6.475   5.262 -0.1875 -0.2668 -0.0330
46329SOL    HW143544   2.101   6.413   5.214 -1.3406 -0.3139 -1.3822
46329SOL    HW243545   2.078   6.561   5.235 -0.2816 -0.2972 -0.2512
46330SOL     OW43546   4.023  11.346   4.061 -0.5065 -0.3529 -0.3149
46330SOL    HW143547   3.977  11.278   4.111 -2.0479  0.4331 -0.6150
46330SOL    HW243548   4.034  11.418   4.123 -0.7525 -0.0829 -0.5834
46331SOL     OW43549   0.764  11.313   7.479 -0.0589  0.1271 -0.0940
46331SOL    HW143550   0.731  11.402   7.495  0.0669 -0.1326  1.8462
46331SOL    HW243551   0.846  11.309   7.528 -1.2061 -1.7587  1.8467
46332SOL     OW43552   0.220   7.366   1.209  0.1007 -0.2051  0.0297
46332SOL    HW143553   0.228   7.277   1.243  0.3412  0.0025  0.5441
46332SOL    HW243554   0.131   7.371   1.173 -0.5417 -0.1610  1.5208
46333SOL     OW43555  10.560   8.361   8.764 -0.9123  0.2127  0.1235
46333SOL    HW143556  10.490   8.333   8.705 -1.0885  1.3518 -0.2380
46333SOL    HW243557  10.607   8.429   8.715  0.4725 -0.5551  0.3480
46334SOL     OW43558   8.808   2.830   0.217  0.1458  0.0231  0.2834
46334SOL    HW143559   8.895   2.834   0.177 -0.8815 -0.6257 -2.1939
46334SOL    HW243560   8.806   2.745   0.261 -0.1402 -1.2767 -2.0786
46335SOL     OW43561   5.184   3.876   4.597 -0.8111  0.0532  0.0912
46335SOL    HW143562   5.191   3.798   4.542 -2.3302 -0.7362  0.9745
46335SOL    HW243563   5.184   3.843   4.687 -0.8664  1.1233  0.5008
46336SOL     OW43564   1.188   0.182   7.725  0.1038 -0.2837 -0.3368
46336SOL    HW143565   1.134   0.110   7.759  1.1549 -1.1107 -0.3647
46336SOL    HW243566   1.235   0.215   7.802 -0.0029  0.0450 -0.4123
46337SOL     OW43567   6.305   5.784   2.835  0.2820  0.0212 -0.3982
46337SOL    HW143568   6.396   5.779   2.807  0.5741  2.0364  0.0121
46337SOL    HW243569   6.268   5.699   2.813  1.5049  0.1118 -3.2418
46338SOL     OW43570   6.431   6.359   8.770 -0.4619  0.5296  0.1369
46338SOL    HW143571   6.423   6.349   8.675  1.3428  1.0561 -0.1127
46338SOL    HW243572   6.445   6.270   8.802 -0.9831  0.3617 -0.0882
46339SOL     OW43573   5.371   2.521   8.539  0.2997 -0.3198 -0.3811
46339SOL    HW143574   5.460   2.514   8.573  1.7123  1.2237 -3.3354
46339SOL    HW243575   5.380   2.503   8.445 -2.6217 -0.6143 -0.6945
46340SOL     OW43576   7.918  11.530   9.439  0.5493 -0.3630 -0.1838
46340SOL    HW143577   7.987  11.479   9.397  1.1598  1.0784 -0.9966
46340SOL    HW243578   7.942  11.531   9.532  0.2064 -2.0004 -0.0460
46341SOL     OW43579   6.275   4.889  11.299  0.1840  0.3413  0.0447
46341SOL    HW143580   6.270   4.852  11.387  0.9874 -1.1371 -0.5062
46341SOL    HW243581   6.328   4.968  11.310  1.0356 -0.3073  0.7509
46342SOL     OW43582   7.302   9.228  12.018 -0.2618  0.6777 -0.5491
46342SOL    HW143583   7.315   9.317  12.051  0.7706 -0.4381  2.4047
46342SOL    HW243584   7.301   9.173  12.097 -0.3398 -2.0042 -2.2833
46343SOL     OW43585   8.476   2.164  12.007 -0.3308 -0.1313  0.3746
46343SOL    HW143586   8.489   2.100  12.078  1.3130 -1.9953 -1.4522
46343SOL    HW243587   8.459   2.110  11.930 -1.4773  1.7979 -0.7877
46344SOL     OW43588  10.872   5.384   0.872 -0.0637  0.0160 -0.0359
46344SOL    HW143589  10.870   5.460   0.930  0.8303  0.2555 -0.3124
46344SOL    HW243590  10.853   5.309   0.929  2.0766  0.0839  0.8600
46345SOL     OW43591   9.908   2.228   5.756 -0.4397  0.0482 -0.3852
46345SOL    HW143592   9.909   2.264   5.668 -1.3750  1.2988  0.0720
46345SOL    HW243593   9.949   2.142   5.748  0.1910  0.4545 -1.8800
46346SOL     OW43594   5.308   6.314   6.425  0.2393 -0.1251  0.7112
46346SOL    HW143595   5.284   6.230   6.388  0.9307  0.3769 -0.9905
46346SOL    HW243596   5.294   6.304   6.519  0.7450 -2.2690  0.6055
46347SOL     OW43597   3.431   6.397   7.021  0.4112 -0.0643  0.4832
46347SOL    HW143598   3.401   6.411   6.931 -0.5925 -3.1861  0.2200
46347SOL    HW243599   3.501   6.332   7.013 -0.6794 -1.5017  2.0291
46348SOL     OW43600   2.794   9.555  12.102 -0.5809  0.2682  0.2496
46348SOL    HW143601   2.811   9.490  12.170  1.3693  0.1906 -0.2467
46348SOL    HW243602   2.844   9.632  12.129 -1.6960  1.0766  0.0862
46349SOL     OW43603   6.865   4.393   4.401 -0.0386  0.4737  0.9253
46349SOL    HW143604   6.851   4.369   4.310  1.7998  1.0067  0.4522
46349SOL    HW243605   6.784   4.436   4.428 -0.5606  0.4123 -0.4955
46350SOL     OW43606  10.923   5.860   4.724  0.1773 -0.2572  0.4834
46350SOL    HW143607  10.911   5.897   4.812 -2.3624 -0.7802  0.4444
46350SOL    HW243608  10.934   5.937   4.667  0.5725  0.1491  1.0983
46351SOL     OW43609  11.869   1.622   2.573  0.4454  0.2241 -0.0444
46351SOL    HW143610  11.919   1.636   2.653  0.8920 -0.7682 -0.1362
46351SOL    HW243611  11.934   1.628   2.503  0.4168 -0.8640 -0.1794
46352SOL     OW43612   8.860   0.009   1.772  0.1001 -0.3608 -0.3537
46352SOL    HW143613   8.788  -0.012   1.832  1.1717 -0.0919  1.0692
46352SOL    HW243614   8.891   0.095   1.803  1.4376 -0.7693 -0.5429
46353SOL     OW43615   0.028   5.379   3.596  0.2415 -0.2790  0.6441
46353SOL    HW143616   0.092   5.414   3.534  0.7089  1.1476  1.8751
46353SOL    HW243617  -0.017   5.310   3.547  1.5455 -0.1662 -0.8083
46354SOL     OW43618   4.517  11.232  10.358  0.4947  0.1677 -0.2762
46354SOL    HW143619   4.597  11.239  10.304 -0.8372  0.0313 -2.3866
46354SOL    HW243620   4.467  11.162  10.316 -1.5930  1.5440 -0.2012
46355SOL     OW43621   2.253   1.770   4.430  0.0842  0.0559 -0.1690
46355SOL    HW143622   2.269   1.693   4.485  0.8824 -0.1467 -0.6611
46355SOL    HW243623   2.336   1.816   4.429 -0.4745  1.1100  0.3678
46356SOL     OW43624   8.332  10.300   4.787  0.0938  0.2563 -0.3827
46356SOL    HW143625   8.263  10.360   4.760  0.0528  0.5931  0.4646
46356SOL    HW243626   8.362  10.332   4.872 -0.0448 -1.0106  0.1722
46357SOL     OW43627   5.656   9.981   8.008 -0.3012  0.1464  0.4467
46357SOL    HW143628   5.717   9.948   7.941 -1.1961 -0.0516 -0.2897
46357SOL    HW243629   5.652   9.911   8.073  0.1945  0.1309  0.4685
46358SOL     OW43630   8.984   7.518   5.562 -0.0766 -0.0440 -0.1726
46358SOL    HW143631   9.015   7.588   5.504 -1.3765 -0.1929 -1.1027
46358SOL    HW243632   8.997   7.552   5.650 -1.1015  1.5981 -0.6078
46359SOL     OW43633   1.482   3.790  11.850  0.4324 -0.0929  0.2606
46359SOL    HW143634   1.557   3.834  11.810 -0.0998  0.6531  0.0401
46359SOL    HW243635   1.410   3.853  11.841 -0.5896 -1.3435 -0.8383
46360SOL     OW43636   8.186   2.086   6.482  0.0710 -0.3067 -0.0023
46360SOL    HW143637   8.168   2.003   6.436  0.0905  0.8499 -2.2394
46360SOL    HW243638   8.274   2.109   6.454  0.2374  0.2728  0.9678
46361SOL     OW43639   1.396   9.717   4.657 -0.4832 -0.1358 -0.1598
46361SOL    HW143640   1.337   9.705   4.731 -1.7794  1.6380 -0.8276
46361SOL    HW243641   1.464   9.651   4.669 -2.4017 -2.0547  0.8431
46362SOL     OW43642   7.526   7.986   9.041  0.6691 -0.5525  0.8683
46362SOL    HW143643   7.438   8.010   9.070  0.4629 -0.5613  0.2426
46362SOL    HW243644   7.547   8.050   8.973  1.5268  0.0444  1.6613
46363SOL     OW43645   0.693   7.927   9.027 -0.2077 -0.1415  0.6033
46363SOL    HW143646   0.681   7.982   8.950 -0.4305  0.3899  1.0079
46363SOL    HW243647   0.690   7.837   8.994 -0.4273  0.0802  0.0159
46364SOL     OW43648  12.014   7.425   8.790  0.7740  0.3832  0.1210
46364SOL    HW143649  12.050   7.422   8.701  1.3717 -0.1509  0.3721
46364SOL    HW243650  11.973   7.511   8.796 -0.8902 -0.2445 -1.2831
46365SOL     OW43651   6.203   3.979   0.108 -0.5754 -0.1116 -0.4360
46365SOL    HW143652   6.130   3.952   0.052  0.1854 -2.1997 -0.5067
46365SOL    HW243653   6.276   3.992   0.047 -0.2281 -0.5960 -0.1376
46366SOL     OW43654   7.049   4.339  10.457  0.1223  0.1832  0.0128
46366SOL    HW143655   7.081   4.412  10.511  1.7773  1.9709 -3.0859
46366SOL    HW243656   7.105   4.265  10.481  0.3431  0.7091  1.1980
46367SOL     OW43657   4.732   4.198   4.622  0.1797 -0.0866 -0.5449
46367SOL    HW143658   4.638   4.177   4.620  0.3738 -0.9591 -0.7328
46367SOL    HW243659   4.775   4.114   4.638  1.0121  0.0304 -1.9748
46368SOL     OW43660  11.109   4.440   1.968 -0.0934  0.0294  0.4597
46368SOL    HW143661  11.034   4.444   1.908  0.2117  1.4023  0.1464
46368SOL    HW243662  11.093   4.361   2.020 -3.0141  1.4991  2.0584
46369SOL     OW43663  10.325   3.130  10.968  0.4524 -0.4303  0.1137
46369SOL    HW143664  10.420   3.120  10.965  0.7736  1.5214  1.7163
46369SOL    HW243665  10.303   3.129  11.061 -0.9158  0.4466 -0.1629
46370SOL     OW43666  10.939   9.409  10.734  0.1161  0.4443 -0.5746
46370SOL    HW143667  10.942   9.462  10.814  2.5799 -1.4607  0.7444
46370SOL    HW243668  11.009   9.443  10.679 -1.3019  1.4718 -1.8425
46371SOL     OW43669   6.708   4.049   1.164  0.2337  0.7206  0.2323
46371SOL    HW143670   6.745   4.108   1.230  0.9973  1.9565 -1.2121
46371SOL    HW243671   6.666   3.980   1.214  2.3179  0.6212  2.0050
46372SOL     OW43672  11.715   1.148   2.674 -0.5430  0.2424  0.0632
46372SOL    HW143673  11.650   1.218   2.682 -1.0643 -0.2690  0.4392
46372SOL    HW243674  11.704   1.115   2.585 -0.5784  0.3664  0.0216
46373SOL     OW43675   2.999   7.359  10.377  0.0608 -0.0768 -0.1505
46373SOL    HW143676   2.976   7.435  10.431 -0.0707 -0.0657 -0.2239
46373SOL    HW243677   2.916   7.323  10.348  0.1469  0.9116 -1.7511
46374SOL     OW43678  10.119   9.532   1.575 -0.0608  0.4666  0.0390
46374SOL    HW143679  10.098   9.446   1.610  2.4510 -0.1914  0.1423
46374SOL    HW243680  10.168   9.575   1.645 -0.7204  1.7418 -0.2542
46375SOL     OW43681   4.877   8.939   9.719  0.1824  0.2657  0.1930
46375SOL    HW143682   4.928   8.903   9.646 -0.4434  1.2690 -0.7784
46375SOL    HW243683   4.848   9.025   9.688  0.1788  0.8677  1.7686
46376SOL     OW43684   7.136  11.737   6.029 -0.1065  0.2071  0.1033
46376SOL    HW143685   7.074  11.805   6.055 -1.4967 -1.1889  0.6326
46376SOL    HW243686   7.144  11.746   5.935 -1.8761 -0.1413 -0.1153
46377SOL     OW43687  10.708  12.064   9.066  0.0692 -0.4508 -0.1870
46377SOL    HW143688  10.628  12.032   9.107 -0.0119  2.6933  2.4937
46377SOL    HW243689  10.678  12.111   8.988 -0.8899  1.1551  1.0740
46378SOL     OW43690   3.368   8.495   6.237 -0.4984  0.0181  0.1425
46378SOL    HW143691   3.352   8.414   6.189  0.4498 -1.1333  1.6721
46378SOL    HW243692   3.284   8.515   6.279 -1.3304  1.0263 -1.8672
46379SOL     OW43693   6.197   7.387   4.954  0.0957 -0.2244  0.0861
46379SOL    HW143694   6.210   7.443   4.878  1.0140 -2.6564 -1.6789
46379SOL    HW243695   6.281   7.389   5.001 -0.3407  0.9602  0.8399
46380SOL     OW43696   0.573   6.901   1.431 -0.2463 -0.0094 -0.0115
46380SOL    HW143697   0.642   6.904   1.365 -0.6627  1.0765 -0.4200
46380SOL    HW243698   0.589   6.977   1.487 -1.5704  0.7517 -0.6132
46381SOL     OW43699   4.159   8.989   8.475  0.0657  0.0890  0.3083
46381SOL    HW143700   4.162   8.965   8.382 -0.7933  2.2636 -0.3540
46381SOL    HW243701   4.247   9.019   8.495 -0.1280  1.1500 -0.3104
46382SOL     OW43702   3.326   9.730   8.367 -0.7093 -0.5012 -0.0097
46382SOL    HW143703   3.234   9.710   8.350 -0.4467 -0.3969 -1.6702
46382SOL    HW243704   3.352   9.788   8.295  0.8100 -0.9673  0.1320
46383SOL     OW43705   2.384   5.692   5.537  0.0523  0.1698 -0.4413
46383SOL    HW143706   2.407   5.696   5.444  1.6280 -3.1790 -0.3133
46383SOL    HW243707   2.393   5.600   5.561 -1.0255  0.7782  2.9081
46384SOL     OW43708  11.726   1.145   1.039  0.2335  0.0346 -0.2281
46384SOL    HW143709  11.783   1.069   1.030 -0.2723 -0.3533 -0.1805
46384SOL    HW243710  11.787   1.219   1.047  0.7869 -0.5678  1.7464
46385SOL     OW43711   0.226   5.087  11.053 -0.0447 -0.3322  0.1019
46385SOL    HW143712   0.280   5.071  11.130  0.7094  0.9443 -0.1162
46385SOL    HW243713   0.208   5.000  11.017 -0.5753 -0.9592  1.7998
46386SOL     OW43714   7.729   4.613   3.605  0.8552  0.3155 -0.4144
46386SOL    HW143715   7.712   4.702   3.636  1.1112  0.4225 -0.5777
46386SOL    HW243716   7.824   4.602   3.613  0.8385  0.0965 -0.5025
46387SOL     OW43717  10.713   9.620   3.870 -0.0213 -0.2978 -0.1613
46387SOL    HW143718  10.684   9.535   3.837 -0.6092 -0.4943  0.8293
46387SOL    HW243719  10.761   9.600   3.950 -0.7446  0.3411  0.4462
46388SOL     OW43720   1.119   2.986   1.267 -0.1793  0.1669 -0.5881
46388SOL    HW143721   1.162   2.912   1.223 -0.6864 -0.6007  0.1830
46388SOL    HW243722   1.175   3.004   1.343  0.2337  0.9367 -1.0640
46389SOL     OW43723   6.163   2.963   5.553 -0.7850  0.5624 -0.3287
46389SOL    HW143724   6.102   2.951   5.480 -2.5572  1.3978  0.9498
46389SOL    HW243725   6.229   3.023   5.519 -0.6799 -0.2952 -1.7205
46390SOL     OW43726   5.673   5.295   2.129 -0.1026  0.2166  0.3475
46390SOL    HW143727   5.580   5.293   2.153 -0.0639 -0.5891  0.4569
46390SOL    HW243728   5.719   5.304   2.212 -0.0548 -0.3200  0.3845
46391SOL     OW43729   4.156  10.943   7.166 -0.2200  0.6936  0.0610
46391SOL    HW143730   4.155  10.851   7.192 -1.4249  0.8265  0.5263
46391SOL    HW243731   4.067  10.961   7.136  0.3362  1.3736 -1.2642
46392SOL     OW43732   0.796   9.968   7.382  0.2757  0.1418  0.3119
46392SOL    HW143733   0.884  10.005   7.393 -0.6731  2.2470  1.2038
46392SOL    HW243734   0.768   9.947   7.471 -1.0118  1.6729  0.2904
46393SOL     OW43735   1.203   4.552   7.709  0.4226 -0.5021 -0.0092
46393SOL    HW143736   1.287   4.507   7.705  0.6627 -0.1432  0.8518
46393SOL    HW243737   1.185   4.562   7.802  0.1804  0.8121 -0.1748
46394SOL     OW43738   5.856   3.268   9.086 -0.6614 -0.6995 -0.8922
46394SOL    HW143739   5.937   3.220   9.104 -1.0264 -0.8660  0.4519
46394SOL    HW243740   5.796   3.203   9.049 -0.8373 -1.0761  0.0276
46395SOL     OW43741   7.046  10.575   0.327 -0.4375 -0.4879  0.1313
46395SOL    HW143742   7.044  10.671   0.336 -1.6634 -0.3488 -1.3137
46395SOL    HW243743   6.959  10.547   0.357 -0.7737 -0.9511 -1.2296
46396SOL     OW43744   7.975   3.330   1.054  0.3948  0.5497  0.0854
46396SOL    HW143745   7.991   3.345   0.960  0.4853 -0.8363 -0.1442
46396SOL    HW243746   8.002   3.239   1.068 -2.8915 -0.4749  0.6819
46397SOL     OW43747  12.075   0.009   1.081  0.5121  0.2520 -0.0648
46397SOL    HW143748  11.983  -0.016   1.083  0.1833  1.4323  0.5279
46397SOL    HW243749  12.115  -0.050   1.017 -0.1792 -1.7629  1.2803
46398SOL     OW43750   2.225   6.667   5.130 -0.3277 -0.1206  0.4831
46398SOL    HW143751   2.307   6.616   5.131  0.7291  1.5085  0.2543
46398SOL    HW243752   2.234   6.729   5.203 -2.1576 -1.0461  1.5772
46399SOL     OW43753   4.695   9.031   3.404 -0.0537 -0.2712 -0.3419
46399SOL    HW143754   4.737   9.069   3.326 -0.4232  0.9351  0.0177
46399SOL    HW243755   4.693   9.103   3.467 -1.4676 -0.6775  0.1094
46400SOL     OW43756  10.647   1.015  10.155 -0.1834 -0.4429 -0.3107
46400SOL    HW143757  10.573   1.074  10.169 -0.3924 -0.7013 -0.3113
46400SOL    HW243758  10.675   1.033  10.065  0.7232  0.7266  0.1797
46401SOL     OW43759  10.621   0.815   0.057  0.2300  0.4587  0.0843
46401SOL    HW143760  10.639   0.909   0.063 -0.2161  0.5961 -0.5987
46401SOL    HW243761  10.564   0.796   0.131  1.0688  0.5266  0.7719
46402SOL     OW43762   1.997   0.082   5.451  0.2247  0.2145  0.5085
46402SOL    HW143763   1.970   0.163   5.494  1.7246  0.5261  0.9198
46402SOL    HW243764   2.027   0.026   5.523  1.6012  0.2808  0.0133
46403SOL     OW43765   9.698   2.037   9.547  0.5839 -0.1976  0.3562
46403SOL    HW143766   9.676   1.945   9.563  3.6331 -0.9971  0.6586
46403SOL    HW243767   9.674   2.051   9.455 -0.0780 -1.2381  0.3495
46404SOL     OW43768   8.404   1.970   9.860 -0.0578 -0.0360  0.1226
46404SOL    HW143769   8.406   1.905   9.789 -1.8695 -0.9309  0.8226
46404SOL    HW243770   8.312   1.996   9.866 -0.1356 -0.6396  2.6877
46405SOL     OW43771   7.145   0.952   7.938 -0.3135  0.2805  0.4461
46405SOL    HW143772   7.059   0.924   7.906 -0.0380  0.8707 -0.8911
46405SOL    HW243773   7.165   1.031   7.888  0.0195  1.4695  2.3545
46406SOL     OW43774   3.375   5.745   4.484 -0.3992 -0.2047  0.1259
46406SOL    HW143775   3.442   5.679   4.501 -0.5258  0.1330  2.1221
46406SOL    HW243776   3.292   5.699   4.497 -0.5279 -0.1347 -0.4259
46407SOL     OW43777   0.416   4.949   2.804  0.2781  0.2369  0.5531
46407SOL    HW143778   0.408   4.870   2.752  1.5344  0.2066  0.3594
46407SOL    HW243779   0.357   5.012   2.764  0.2077 -0.2172 -0.0572
46408SOL     OW43780   9.001   8.883   8.698 -0.2388 -0.0790  1.0881
46408SOL    HW143781   9.010   8.903   8.792 -0.6620 -1.7367  1.5147
46408SOL    HW243782   9.090   8.890   8.664 -0.0596  0.4391  1.6385
46409SOL     OW43783   6.121  10.597   5.524  0.3316  0.4178 -0.4673
46409SOL    HW143784   6.166  10.513   5.523  0.9331  0.6093  2.2291
46409SOL    HW243785   6.186  10.659   5.491  0.8033  0.1833  0.0095
46410SOL     OW43786   4.301   3.004   3.698  0.7503 -0.4147 -0.3121
46410SOL    HW143787   4.288   3.020   3.604  1.2091  0.1544 -0.2807
46410SOL    HW243788   4.362   3.072   3.726 -0.0802 -0.0197  0.5936
46411SOL     OW43789   4.830   2.535   4.333 -0.2529 -0.7158  1.0658
46411SOL    HW143790   4.922   2.507   4.329 -0.4183 -1.2338 -1.8209
46411SOL    HW243791   4.828   2.604   4.399  2.6062  0.6160 -0.0713
46412SOL     OW43792   1.511   3.962   6.966  0.0582  0.1104  0.7294
46412SOL    HW143793   1.481   3.978   7.056 -1.4261  0.0736  0.2579
46412SOL    HW243794   1.567   4.037   6.947  0.6346 -0.0295  1.7809
46413SOL     OW43795   4.251   4.496   3.018  0.3957 -0.0638  0.3688
46413SOL    HW143796   4.219   4.535   2.936 -1.7900 -0.4041  0.9886
46413SOL    HW243797   4.318   4.434   2.990 -0.3040 -0.1813 -1.1825
46414SOL     OW43798   4.302   4.871   9.121 -0.8248 -0.3585  0.2614
46414SOL    HW143799   4.383   4.827   9.096 -0.9136 -1.1575  1.2843
46414SOL    HW243800   4.327   4.961   9.139 -1.1889  1.2844 -5.3830
46415SOL     OW43801   1.562   8.513   0.866  0.5388  0.1034 -0.0813
46415SOL    HW143802   1.567   8.420   0.841  1.0628  0.4125 -1.1785
46415SOL    HW243803   1.511   8.513   0.947  1.0598 -1.1982  0.2680
46416SOL     OW43804  11.695  11.951   9.609 -0.3227 -0.5119 -0.2168
46416SOL    HW143805  11.604  11.940   9.637 -0.3198 -3.9770 -1.1124
46416SOL    HW243806  11.690  11.968   9.516 -0.0761  0.0018 -0.1359
46417SOL     OW43807   0.415   8.654  10.776  0.1884  0.4858 -0.4224
46417SOL    HW143808   0.330   8.671  10.735  0.0189 -0.1979 -0.3685
46417SOL    HW243809   0.449   8.741  10.797 -1.0379  0.7346  0.6435
46418SOL     OW43810   9.585   3.620  11.732 -0.2478 -0.1260  0.4433
46418SOL    HW143811   9.641   3.553  11.773 -1.5480 -0.9638  0.8970
46418SOL    HW243812   9.537   3.573  11.664 -0.2145  0.6463 -0.1321
46419SOL     OW43813   0.044   6.666   3.583 -0.1361 -0.2983 -0.0281
46419SOL    HW143814   0.027   6.582   3.539  1.5448 -0.1311 -1.0801
46419SOL    HW243815  -0.022   6.725   3.546  0.2041 -0.5744 -1.1202
46420SOL     OW43816   7.363  12.069   6.024  0.4576 -0.4618 -0.2310
46420SOL    HW143817   7.277  12.094   6.058  0.4119 -0.8173 -0.0787
46420SOL    HW243818   7.423  12.136   6.057  0.4891 -1.0578  0.9420
46421SOL     OW43819   4.666   6.043   2.893  0.2797  0.3917 -0.1748
46421SOL    HW143820   4.718   5.984   2.947 -0.8172 -0.3215  0.1298
46421SOL    HW243821   4.682   6.014   2.803 -0.6628 -0.7419  0.0008
46422SOL     OW43822   4.041   9.249   0.715  0.5882  0.2644  0.2758
46422SOL    HW143823   3.961   9.198   0.721  1.7208 -1.7409 -0.5448
46422SOL    HW243824   4.053   9.286   0.803 -1.9383  1.8686  0.0428
46423SOL     OW43825   3.387   3.116   7.001 -0.6772  0.4646 -0.3083
46423SOL    HW143826   3.415   3.185   7.061  0.2589 -1.2051  1.2785
46423SOL    HW243827   3.346   3.163   6.928 -1.5643  2.6044  1.4568
46424SOL     OW43828   5.624   1.484   0.889 -0.0719  0.1018 -0.0475
46424SOL    HW143829   5.534   1.485   0.857 -0.4507  2.3559  0.8623
46424SOL    HW243830   5.620   1.430   0.968 -1.0384  1.4911  0.9070
46425SOL     OW43831   3.427   0.516   3.201 -0.6053  0.0530 -0.3114
46425SOL    HW143832   3.396   0.566   3.277 -2.2261 -3.3112  1.4883
46425SOL    HW243833   3.521   0.511   3.213 -0.7964 -0.2194  1.4766
46426SOL     OW43834   5.611   0.644   4.267 -0.1235  0.3718  0.4162
46426SOL    HW143835   5.706   0.634   4.276 -0.1022 -1.0313 -0.9666
46426SOL    HW243836   5.576   0.558   4.288 -0.8823  0.2222 -1.2801
46427SOL     OW43837  10.905   1.087  11.909 -0.3784  0.9670 -0.0141
46427SOL    HW143838  10.978   1.037  11.945 -0.9134  0.9340  1.0433
46427SOL    HW243839  10.922   1.088  11.814 -0.0001 -0.6499 -0.0011
46428SOL     OW43840   8.462  10.281   7.256  0.3299  0.0234  0.2215
46428SOL    HW143841   8.374  10.293   7.220  1.0147  1.7597 -0.9982
46428SOL    HW243842   8.513  10.248   7.182  1.3774  2.0246 -0.0094
46429SOL     OW43843   5.320   9.195   1.299  0.0788  1.0621 -0.6076
46429SOL    HW143844   5.347   9.283   1.271 -2.7441  1.4926 -2.3360
46429SOL    HW243845   5.233   9.207   1.336 -0.0631 -0.9297 -0.1831
46430SOL     OW43846  11.967  12.022   7.558  0.4160  0.0030 -0.1408
46430SOL    HW143847  11.886  12.021   7.609  0.8411 -0.3182  0.5467
46430SOL    HW243848  11.976  11.932   7.527  1.4290 -0.4133  1.2930
46431SOL     OW43849   1.099   4.250   7.308  0.2250 -0.1930 -0.1436
46431SOL    HW143850   1.191   4.274   7.319  0.3790 -0.0910 -1.4842
46431SOL    HW243851   1.051   4.308   7.367  0.9877 -0.0270  0.3250
46432SOL     OW43852   0.943   3.114  10.854  0.2911  0.0906 -0.2701
46432SOL    HW143853   0.869   3.166  10.886  0.6808  1.2670 -1.2205
46432SOL    HW243854   0.904   3.032  10.825 -0.4833  0.2482  0.3042
46433SOL     OW43855   7.970   6.051   8.899 -0.0683  0.4520  0.3233
46433SOL    HW143856   8.066   6.056   8.901 -0.0659  0.3536  1.4783
46433SOL    HW243857   7.949   5.989   8.969 -1.0069  1.0142  0.5468
46434SOL     OW43858   6.553  11.039   6.752  0.0046  0.0010  0.5613
46434SOL    HW143859   6.462  11.024   6.725  0.6303 -0.2409 -1.6403
46434SOL    HW243860   6.602  10.965   6.716  1.1984  0.5668  0.9485
46435SOL     OW43861   3.823   9.798   9.817 -0.4191  0.3465  0.1513
46435SOL    HW143862   3.901   9.743   9.810  1.0216  2.3940 -0.4722
46435SOL    HW243863   3.819   9.824   9.909  0.1709  0.9788  0.0012
46436SOL     OW43864   3.211   4.221   0.192 -0.1008 -0.1185 -0.0458
46436SOL    HW143865   3.209   4.251   0.101 -0.9573 -1.1689 -0.3979
46436SOL    HW243866   3.189   4.298   0.243 -1.4992  0.0739 -0.8734
46437SOL     OW43867   4.410   8.605   0.988  0.5823  0.4355  0.0101
46437SOL    HW143868   4.343   8.562   1.040 -1.2967  1.2268 -1.6092
46437SOL    HW243869   4.409   8.696   1.018  0.5345  0.5662 -0.3797
46438SOL     OW43870  11.834   6.031   0.138  0.1574  0.3959 -0.6370
46438SOL    HW143871  11.811   6.115   0.179 -0.9457 -0.7436  1.1870
46438SOL    HW243872  11.766   5.971   0.166  1.6755 -1.4674 -0.7653
46439SOL     OW43873   2.571   5.051   8.546 -0.0793  0.1672 -0.2449
46439SOL    HW143874   2.641   5.088   8.492 -1.0661  0.5845 -1.2729
46439SOL    HW243875   2.578   4.956   8.531  0.5782  0.1617  0.0608
46440SOL     OW43876   4.614  11.529   9.980 -0.3771 -0.0818  0.7977
46440SOL    HW143877   4.564  11.495  10.055 -0.0947  0.9597  1.4909
46440SOL    HW243878   4.604  11.624   9.987 -0.0984  0.0346 -0.3319
46441SOL     OW43879  11.533   0.992  11.352 -0.7198 -0.0043 -0.6421
46441SOL    HW143880  11.502   0.914  11.397  0.9494  0.4691  1.4706
46441SOL    HW243881  11.517   0.974  11.259 -3.6905 -1.2800  0.0285
46442SOL     OW43882   4.231  10.199   0.152  0.0267  0.1916 -0.3140
46442SOL    HW143883   4.177  10.236   0.082  1.0296  0.7361 -0.8076
46442SOL    HW243884   4.229  10.105   0.135 -0.9185  0.1753 -0.2059
46443SOL     OW43885   6.862   6.702   3.173  0.3471 -0.2557  0.0552
46443SOL    HW143886   6.771   6.675   3.171  0.0355  0.7588 -0.0887
46443SOL    HW243887   6.897   6.663   3.253  0.0354 -1.3841 -0.3473
46444SOL     OW43888   7.765   1.855   7.062  0.3063 -0.2052 -0.0277
46444SOL    HW143889   7.716   1.936   7.047  2.0904  0.4403 -3.1925
46444SOL    HW243890   7.857   1.881   7.059  0.9405 -2.3486 -1.6383
46445SOL     OW43891  11.114   2.487   0.620  0.5666  0.4905  0.4528
46445SOL    HW143892  11.087   2.451   0.535 -1.7194  1.9282  0.4856
46445SOL    HW243893  11.203   2.518   0.605  0.6061 -0.2547 -1.1039
46446SOL     OW43894   8.261   0.933   3.573  0.1800  0.0532 -0.2049
46446SOL    HW143895   8.218   0.905   3.654  0.9520  3.2700  1.4893
46446SOL    HW243896   8.189   0.950   3.512 -0.8846  2.2769  1.5222
46447SOL     OW43897   2.299   7.528  11.601  0.2793 -0.6298  0.6323
46447SOL    HW143898   2.335   7.439  11.605  1.6506 -0.0451  2.4808
46447SOL    HW243899   2.281   7.550  11.692  0.4454  1.1987  0.2467
46448SOL     OW43900   6.102   6.540   0.957  0.1006 -0.0418 -0.3273
46448SOL    HW143901   6.098   6.564   1.050 -1.3465 -1.9365  0.1709
46448SOL    HW243902   6.032   6.592   0.916  0.1786  0.1584 -0.2112
46449SOL     OW43903  11.105   8.268   6.450 -0.2579 -0.1442  0.0629
46449SOL    HW143904  11.087   8.182   6.412 -1.0303  0.2957 -0.5999
46449SOL    HW243905  11.069   8.330   6.387  0.8465  0.6931  0.2307
46450SOL     OW43906   2.080   1.866   7.031 -0.7069  0.1617  0.0239
46450SOL    HW143907   2.030   1.840   7.108 -0.0617 -1.2721  0.0004
46450SOL    HW243908   2.135   1.790   7.012 -1.8110 -0.0710 -2.6600
46451SOL     OW43909   3.872   4.633   9.282 -0.0547 -0.2527 -0.3446
46451SOL    HW143910   3.959   4.671   9.277 -0.0493 -0.0447  0.9444
46451SOL    HW243911   3.885   4.546   9.320 -0.2550 -0.8391 -1.5868
46452SOL     OW43912   7.858  11.100   9.266 -0.5113  0.4066 -0.0736
46452SOL    HW143913   7.832  11.015   9.230  0.3404  0.2849 -0.4092
46452SOL    HW243914   7.780  11.154   9.257 -1.4846 -0.6786  1.2891
46453SOL     OW43915   1.856   6.774   7.399 -0.5949  0.0307 -0.0162
46453SOL    HW143916   1.790   6.706   7.386 -0.6203  0.3018 -1.4656
46453SOL    HW243917   1.900   6.782   7.314  1.4741 -0.2971  0.9525
46454SOL     OW43918   3.396  11.073   4.069  0.1220 -0.3181 -0.3916
46454SOL    HW143919   3.485  11.089   4.039  0.7500  0.2561  1.6490
46454SOL    HW243920   3.340  11.108   3.999  1.4652 -0.3868 -1.5415
46455SOL     OW43921   3.516   7.476  11.244 -0.4261  0.4677 -0.0863
46455SOL    HW143922   3.582   7.474  11.313  0.0423 -1.5264 -0.5405
46455SOL    HW243923   3.539   7.553  11.192  1.3474  0.0167 -0.0361
46456SOL     OW43924  10.747   4.784   0.080 -0.3032 -0.0807  0.3100
46456SOL    HW143925  10.818   4.725   0.105 -0.1041 -0.3863 -0.8769
46456SOL    HW243926  10.778   4.871   0.105  0.9104 -0.1009 -0.9525
46457SOL     OW43927   1.752   7.887   5.471 -0.3173  0.3768  0.3590
46457SOL    HW143928   1.709   7.923   5.393 -0.6940 -1.5461 -0.3627
46457SOL    HW243929   1.845   7.897   5.453 -0.3201 -1.7297 -1.2626
46458SOL     OW43930   4.141   5.826   4.448  0.5589 -0.1208  0.2048
46458SOL    HW143931   4.077   5.896   4.458 -0.4710 -0.5382 -2.5528
46458SOL    HW243932   4.224   5.871   4.431  0.3391  0.4270  0.5721
46459SOL     OW43933   8.502   4.127   1.178  0.9095 -0.0613  0.1815
46459SOL    HW143934   8.425   4.072   1.188  1.8839 -1.5636 -0.2943
46459SOL    HW243935   8.480   4.185   1.105 -0.2085  0.3662  0.8232
46460SOL     OW43936   0.512   3.257   0.097  0.6121  0.2513  0.7935
46460SOL    HW143937   0.447   3.326   0.082  1.3747  0.5336 -1.6741
46460SOL    HW243938   0.466   3.191   0.149 -1.6045  0.5481 -0.6768
46461SOL     OW43939   4.740   7.265   7.797  0.3852  0.6942  0.5687
46461SOL    HW143940   4.769   7.315   7.721 -0.3821 -1.7099 -1.4526
46461SOL    HW243941   4.685   7.195   7.761 -0.1992 -0.4538  3.3678
46462SOL     OW43942  10.154   0.755   2.734 -0.0001  0.6559  0.1282
46462SOL    HW143943  10.217   0.759   2.806 -0.4594  1.3152  0.4989
46462SOL    HW243944  10.169   0.836   2.685 -0.6370  0.8734  0.2878
46463SOL     OW43945   5.436   5.150   8.663  0.0082 -0.1947  0.0172
46463SOL    HW143946   5.531   5.137   8.667  0.1016  0.5961  0.5925
46463SOL    HW243947   5.422   5.238   8.698 -1.1393 -1.0859  1.9335
46464SOL     OW43948   0.924   8.108   8.385  0.3483  0.2584  0.6929
46464SOL    HW143949   0.957   8.147   8.304 -2.0537  0.4469 -0.2873
46464SOL    HW243950   0.980   8.145   8.453  1.2699  1.5632 -0.6790
46465SOL     OW43951   5.768  12.087   5.017 -0.3812  0.4866 -0.2450
46465SOL    HW143952   5.848  12.129   5.048 -1.4140  0.4129  2.8558
46465SOL    HW243953   5.709  12.160   4.997 -0.6094  0.5473  0.6225
46466SOL     OW43954   8.195  12.080   8.946  0.2398 -0.3959  0.1641
46466SOL    HW143955   8.185  12.124   8.862  1.8407 -2.1930 -1.0399
46466SOL    HW243956   8.262  12.131   8.992 -0.4184  0.4045  0.2744
46467SOL     OW43957   4.224   6.302   9.853 -0.1866 -0.0723 -0.7788
46467SOL    HW143958   4.281   6.328   9.780 -2.0090  2.4799 -1.4222
46467SOL    HW243959   4.232   6.374   9.916 -2.0284 -0.0680 -0.5119
46468SOL     OW43960   4.647   3.474   9.206  0.0105  0.0656  0.3571
46468SOL    HW143961   4.732   3.429   9.204  0.7970  1.5174  0.1353
46468SOL    HW243962   4.646   3.518   9.291  0.0789  1.1655 -0.2084
46469SOL     OW43963   5.319   6.935  10.247 -0.0462 -0.3498  0.0177
46469SOL    HW143964   5.370   6.905  10.172  2.1479 -0.8020  1.5958
46469SOL    HW243965   5.371   7.006  10.284 -1.1590 -0.0448  1.0661
46470SOL     OW43966   9.901   3.992  11.485  0.3185  0.5023 -0.6667
46470SOL    HW143967   9.830   4.056  11.481  1.2570  1.5726 -0.7576
46470SOL    HW243968   9.865   3.919  11.534 -1.3186  0.3915 -1.9383
46471SOL     OW43969   5.887  10.841   7.482 -0.5617 -0.2321  0.3223
46471SOL    HW143970   5.944  10.917   7.490  0.0493 -0.6639  0.2208
46471SOL    HW243971   5.904  10.790   7.561  0.6039 -1.2735 -0.5269
46472SOL     OW43972   0.167   9.213   8.710  0.0907 -0.3060 -0.4187
46472SOL    HW143973   0.162   9.257   8.794 -1.5900 -0.3412 -0.4690
46472SOL    HW243974   0.126   9.128   8.724 -1.0904  0.0554 -1.4796
46473SOL     OW43975   8.266   3.668   7.388  0.0603  0.2282 -0.6026
46473SOL    HW143976   8.307   3.628   7.465  1.0881 -1.0341 -1.7530
46473SOL    HW243977   8.301   3.757   7.385  1.9500 -0.4899 -0.9497
46474SOL     OW43978   2.232   8.219   9.725 -0.4462 -0.5143  0.2707
46474SOL    HW143979   2.200   8.132   9.704  1.2109 -1.0706 -0.1570
46474SOL    HW243980   2.321   8.205   9.758  0.1529  1.0444 -0.5463
46475SOL     OW43981   8.504   8.415   6.394  0.8414 -0.1625  0.5297
46475SOL    HW143982   8.501   8.322   6.417  0.1050 -0.0952  0.7306
46475SOL    HW243983   8.478   8.460   6.474  1.0932  0.2177  0.4017
46476SOL     OW43984   4.107   3.765   8.385  0.2667  0.0966 -0.2501
46476SOL    HW143985   4.148   3.679   8.391 -3.3022 -1.7345  0.8007
46476SOL    HW243986   4.152   3.819   8.449  0.8319 -1.8289  1.0333
46477SOL     OW43987   1.807   1.279   9.693  0.2171 -0.5182  0.2162
46477SOL    HW143988   1.715   1.253   9.704 -0.3305  1.2860  0.3805
46477SOL    HW243989   1.847   1.263   9.778  0.0175 -1.1705  0.1929
46478SOL     OW43990   7.886   5.767  10.055 -0.1152 -0.5132 -0.4357
46478SOL    HW143991   7.894   5.732  10.144  2.4386  0.8931 -0.0040
46478SOL    HW243992   7.792   5.783  10.043 -0.8279 -3.1221  0.9929
46479SOL     OW43993   0.146   4.598   1.324  0.1985 -0.1233  0.2089
46479SOL    HW143994   0.159   4.509   1.356  0.7768 -0.4137 -0.7751
46479SOL    HW243995   0.079   4.591   1.257 -0.4063  0.3367  0.7551
46480SOL     OW43996   8.134   5.392   2.179  0.3998  0.0852 -0.0622
46480SOL    HW143997   8.127   5.297   2.187 -1.1553  0.2751  1.5531
46480SOL    HW243998   8.163   5.407   2.089  0.1344 -1.8918 -0.5160
46481SOL     OW43999   7.739   1.009   6.050  0.4545 -0.6231  0.0293
46481SOL    HW144000   7.835   1.013   6.048  0.4385  0.2610  0.3803
46481SOL    HW244001   7.711   1.097   6.022 -0.2512 -0.7961  0.1730
46482SOL     OW44002   9.121  12.085   9.234 -0.5330  0.1164 -0.3734
46482SOL    HW144003   9.034  12.105   9.200 -1.3970 -1.7576  0.6395
46482SOL    HW244004   9.161  12.029   9.168 -0.2634  0.5723 -0.6050
46483SOL     OW44005   1.669   1.800   8.338  0.2269 -0.3309  0.0505
46483SOL    HW144006   1.617   1.778   8.416 -0.4126 -0.8009 -0.5004
46483SOL    HW244007   1.635   1.884   8.309  1.1207  0.3288  0.8195
46484SOL     OW44008   4.950   5.393   9.836  0.6821 -0.2488 -0.0464
46484SOL    HW144009   5.019   5.437   9.785 -0.3598  1.2502 -0.2352
46484SOL    HW244010   4.882   5.373   9.771  0.0284  0.2344  0.4843
46485SOL     OW44011   3.273   9.350  10.032 -0.5902  0.0767 -0.6484
46485SOL    HW144012   3.351   9.387   9.992 -1.5730  2.2948 -0.6320
46485SOL    HW244013   3.263   9.264   9.990  1.3819  0.0718 -1.2023
46486SOL     OW44014  11.564  11.009   7.478  0.3179 -0.0536  0.0067
46486SOL    HW144015  11.651  10.998   7.440  0.9910  1.1312  1.1555
46486SOL    HW244016  11.506  10.962   7.418  1.9955 -2.9278  0.4251
46487SOL     OW44017   7.851   1.615   1.179 -0.3481 -0.2201 -0.2174
46487SOL    HW144018   7.760   1.638   1.160 -0.5095 -1.7240 -1.5007
46487SOL    HW244019   7.845   1.534   1.228  0.3031 -0.2650 -0.2097
46488SOL     OW44020   2.019  11.352   9.364 -0.1708  0.1990  0.0467
46488SOL    HW144021   1.967  11.417   9.316 -1.7309 -0.1617  1.1728
46488SOL    HW244022   2.110  11.372   9.341 -0.6337  2.4480 -0.0487
46489SOL     OW44023   4.571   5.684   7.935  0.5068  0.7421 -0.7159
46489SOL    HW144024   4.584   5.769   7.894  1.0098  1.3170  0.5778
46489SOL    HW244025   4.539   5.704   8.023  0.0124 -0.4303 -0.6110
46490SOL     OW44026   7.944   0.365  10.586  0.1425  0.4326  0.0508
46490SOL    HW144027   7.910   0.366  10.496 -0.3097  0.4861  0.2229
46490SOL    HW244028   8.038   0.348  10.575 -0.0953 -0.7014 -0.3643
46491SOL     OW44029   6.118   3.357   5.255  0.0696  0.0202 -0.8515
46491SOL    HW144030   6.116   3.453   5.261 -0.5463  0.0734 -1.7811
46491SOL    HW244031   6.027   3.330   5.270  0.2396 -0.4241 -0.5982
46492SOL     OW44032   6.453   5.033   2.461  0.1496 -0.2432  0.4297
46492SOL    HW144033   6.465   4.942   2.487  0.1966  0.6960  4.1648
46492SOL    HW244034   6.541   5.070   2.459 -0.0562  0.3711  1.8208
46493SOL     OW44035   0.038   1.703  11.138  0.0633 -1.0464  0.1226
46493SOL    HW144036   0.029   1.684  11.232  2.6675  1.5052  1.0578
46493SOL    HW244037  -0.043   1.749  11.116  0.5512  0.9225  1.9955
46494SOL     OW44038   8.132   8.543   2.153 -0.1531  0.6328  0.2784
46494SOL    HW144039   8.185   8.587   2.087  0.2464  1.5140  1.1487
46494SOL    HW244040   8.061   8.604   2.171 -0.7910 -0.0145 -0.0092
46495SOL     OW44041   3.826   9.095  10.072 -0.2932 -0.5874  0.0349
46495SOL    HW144042   3.811   9.002  10.052 -0.0737 -0.7249  0.5032
46495SOL    HW244043   3.740   9.135  10.062  0.0690 -0.2720 -3.0313
46496SOL     OW44044   0.401  11.525   3.100  0.1672  0.0921  0.3599
46496SOL    HW144045   0.434  11.450   3.050  1.8760  0.9718  0.0922
46496SOL    HW244046   0.435  11.511   3.189 -1.0647 -0.3653  0.7815
46497SOL     OW44047   9.580  11.868   5.919 -0.1377  0.1492  0.3714
46497SOL    HW144048   9.558  11.780   5.888 -3.2354  1.3410 -1.2669
46497SOL    HW244049   9.550  11.869   6.010  0.4875 -0.6701  0.5919
46498SOL     OW44050  11.153   8.286  11.807  0.2399 -0.0128 -0.5203
46498SOL    HW144051  11.188   8.331  11.885  2.6527  0.0874 -1.5599
46498SOL    HW244052  11.072   8.245  11.837  0.7150  0.6273  1.8469
46499SOL     OW44053   2.347   6.100   3.164  0.0963  0.4989  0.1061
46499SOL    HW144054   2.417   6.163   3.181 -0.0118  0.7014 -0.1841
46499SOL    HW244055   2.271   6.135   3.210  0.7174 -0.8628  2.3048
46500SOL     OW44056  10.172   6.110   0.744 -0.2645 -0.4600 -0.3199
46500SOL    HW144057  10.079   6.086   0.742 -0.2912 -0.5070  0.6842
46500SOL    HW244058  10.218   6.026   0.742 -0.3041 -0.5379  0.9070
46501SOL     OW44059   5.907   2.163   0.230  0.0452 -0.0182  0.1161
46501SOL    HW144060   5.891   2.163   0.136  0.5451 -1.4369  0.0183
46501SOL    HW244061   5.902   2.255   0.255 -0.2409  0.3584 -1.2674
46502SOL     OW44062   6.834   6.624   3.927  0.5464  0.0896 -0.3550
46502SOL    HW144063   6.929   6.620   3.940  0.5422 -5.0826  0.3198
46502SOL    HW244064   6.798   6.633   4.015  0.3083  1.4869 -0.5642
46503SOL     OW44065  10.710  11.436   6.496  0.2584  0.1909 -0.2730
46503SOL    HW144066  10.791  11.440   6.446  0.1462 -0.5543 -0.5238
46503SOL    HW244067  10.642  11.422   6.429 -0.0880  0.9156 -0.0769
46504SOL     OW44068   8.223   7.012  11.040  0.1700  0.0095 -0.0945
46504SOL    HW144069   8.153   6.964  11.085 -0.4698  1.5635  0.6666
46504SOL    HW244070   8.215   6.986  10.949 -0.0165 -1.4463  0.2988
46505SOL     OW44071   6.975   5.918   6.067 -0.1353  0.2111  0.5026
46505SOL    HW144072   7.041   5.878   6.011  2.5322  2.6108  1.7072
46505SOL    HW244073   7.002   5.897   6.156 -1.9562 -0.0653  1.0450
46506SOL     OW44074   2.170   1.074   9.308 -0.3804  0.4814 -0.0436
46506SOL    HW144075   2.111   1.020   9.256 -0.8060 -0.7058  1.5896
46506SOL    HW244076   2.241   1.095   9.249 -0.2489 -1.8004 -0.8005
46507SOL     OW44077   2.669   0.715   1.279 -0.6743 -0.1010 -1.0370
46507SOL    HW144078   2.691   0.795   1.327 -1.2982 -0.2801 -0.4330
46507SOL    HW244079   2.751   0.688   1.239 -0.2808  0.4152 -0.5973
46508SOL     OW44080  10.406  11.408   1.841 -0.3427  0.2284 -0.2935
46508SOL    HW144081  10.474  11.455   1.890 -0.2069  0.8611 -1.0669
46508SOL    HW244082  10.344  11.379   1.908  0.3336  0.2442  0.3488
46509SOL     OW44083   6.908   1.915   5.123 -0.4991  0.1763  0.0476
46509SOL    HW144084   6.818   1.883   5.115 -0.6331  0.7545 -0.8463
46509SOL    HW244085   6.955   1.843   5.166 -1.4165 -0.0649  0.6843
46510SOL     OW44086   8.414   1.885  11.255 -0.1278 -0.2502  0.2120
46510SOL    HW144087   8.446   1.925  11.174  1.1782  0.6612  1.1434
46510SOL    HW244088   8.488   1.834  11.288  0.7312  2.3713  2.7139
46511SOL     OW44089   8.952   9.548   4.822 -0.2696  0.2453 -0.1250
46511SOL    HW144090   8.954   9.600   4.902  0.9794  1.5880 -0.9831
46511SOL    HW244091   9.043   9.524   4.807 -0.4979 -0.0208 -1.1365
46512SOL     OW44092   7.085   0.597   0.138  0.1742  0.4338  0.5938
46512SOL    HW144093   6.989   0.602   0.139  0.0927 -0.6850  1.2334
46512SOL    HW244094   7.104   0.506   0.114  1.0740  0.6165  0.5658
46513SOL     OW44095  10.046   1.888  11.506  0.7968  0.3309  0.0185
46513SOL    HW144096  10.119   1.826  11.510 -0.0262 -0.6065  0.6737
46513SOL    HW244097  10.037   1.907  11.412 -0.1015 -1.9525 -0.4082
46514SOL     OW44098   8.722   4.665   0.229  0.9066  0.2950  0.1510
46514SOL    HW144099   8.638   4.698   0.197  0.2597 -1.2279  0.1874
46514SOL    HW244100   8.702   4.631   0.316  1.4841 -0.3666  0.0314
46515SOL     OW44101  10.129   9.621   4.590  0.1173 -0.1339  0.1714
46515SOL    HW144102  10.127   9.716   4.579 -3.1416 -0.1098  0.0041
46515SOL    HW244103  10.053   9.601   4.644  0.3281 -2.7238 -0.3295
46516SOL     OW44104   3.374   0.311   2.522  0.2813  0.4519 -0.3307
46516SOL    HW144105   3.414   0.276   2.602 -1.4421  1.9149  1.2655
46516SOL    HW244106   3.289   0.267   2.517  0.0810  0.9051 -0.9642
46517SOL     OW44107   7.145   9.873   8.702  0.1729 -0.8087 -0.5977
46517SOL    HW144108   7.126   9.887   8.610 -1.0796  0.5575 -0.1747
46517SOL    HW244109   7.104   9.947   8.747 -1.4138 -2.6757  1.2851
46518SOL     OW44110   7.537   4.229   3.146 -0.1749 -0.2945 -0.5463
46518SOL    HW144111   7.472   4.258   3.210  1.0273 -0.2169  0.6935
46518SOL    HW244112   7.554   4.138   3.169 -0.7184 -0.6934 -1.6460
46519SOL     OW44113   2.674   4.871   8.189  0.2529  0.1035 -0.0339
46519SOL    HW144114   2.597   4.920   8.161  0.4354  0.7137  0.5327
46519SOL    HW244115   2.748   4.922   8.158  0.4406 -0.0661  0.1328
46520SOL     OW44116   5.934   2.846   7.974 -0.4007  0.3634  0.0696
46520SOL    HW144117   6.013   2.792   7.969 -0.5253  0.2339 -0.6677
46520SOL    HW244118   5.926   2.884   7.886 -0.4957  1.3289  0.4816
46521SOL     OW44119   9.108   2.390   7.770 -0.2013  0.5366 -0.2129
46521SOL    HW144120   9.104   2.422   7.860  0.3312 -1.3253  0.5128
46521SOL    HW244121   9.141   2.464   7.719  1.1782  1.0856  1.4105
46522SOL     OW44122   2.270   7.242   3.618  0.4059 -0.2493 -0.4480
46522SOL    HW144123   2.224   7.167   3.580  0.5644 -0.4092 -0.3285
46522SOL    HW244124   2.357   7.208   3.641  0.3707 -0.1096 -0.0982
46523SOL     OW44125   0.292   5.346   4.833  0.5816 -0.3857 -0.2817
46523SOL    HW144126   0.230   5.334   4.761 -2.1172 -0.1409  1.8428
46523SOL    HW244127   0.302   5.258   4.869  1.1389 -0.3455 -0.3371
46524SOL     OW44128   1.600   3.247   0.536 -0.7347  0.6092  0.2720
46524SOL    HW144129   1.575   3.270   0.447 -1.5321  1.9380  0.8060
46524SOL    HW244130   1.542   3.299   0.591 -0.0493  0.0432  1.5700
46525SOL     OW44131   2.242   7.604  11.057 -0.0123  0.4797 -0.2664
46525SOL    HW144132   2.153   7.637  11.070 -0.6091 -0.8462 -0.7545
46525SOL    HW244133   2.291   7.679  11.023 -1.6177  0.5955 -2.5823
46526SOL     OW44134   0.759   6.372   8.524 -0.3587  0.0831 -0.2135
46526SOL    HW144135   0.834   6.428   8.542  0.4767 -1.6030  1.9679
46526SOL    HW244136   0.694   6.397   8.589 -0.9600  0.1836 -0.8367
46527SOL     OW44137   8.731   1.353   0.592 -0.4642 -0.5487  0.4147
46527SOL    HW144138   8.777   1.411   0.652  1.4412 -0.0019 -1.4478
46527SOL    HW244139   8.654   1.403   0.564 -1.8816 -1.1401  2.9043
46528SOL     OW44140   8.247   6.715   1.955  0.0513  0.7130 -0.2914
46528SOL    HW144141   8.184   6.644   1.954  0.3028  0.3562  2.3557
46528SOL    HW244142   8.252   6.744   1.864 -3.8385  0.7302 -0.6768
46529SOL     OW44143  10.500  11.325   8.290  0.1864  0.2079  0.6350
46529SOL    HW144144  10.442  11.389   8.247 -0.1450 -0.8549 -0.5622
46529SOL    HW244145  10.451  11.298   8.368 -0.4051  0.1986  0.2703
46530SOL     OW44146   9.482   1.165   4.780  0.2411 -0.7268  0.0830
46530SOL    HW144147   9.483   1.117   4.697 -2.1527  0.5064 -0.7477
46530SOL    HW244148   9.485   1.257   4.755  1.9611 -0.3391  1.5246
46531SOL     OW44149   3.824   5.916   0.140  0.1808  0.3814 -0.3317
46531SOL    HW144150   3.735   5.886   0.152  0.2191  0.2576 -0.3559
46531SOL    HW244151   3.867   5.846   0.090  1.1338 -1.0207  2.2390
46532SOL     OW44152   5.990  12.079   3.257  0.4062 -0.7181  0.0445
46532SOL    HW144153   5.897  12.095   3.242  0.5773  1.7695  1.1721
46532SOL    HW244154   5.992  11.993   3.301 -1.1337 -1.7325 -1.7050
46533SOL     OW44155   8.233   4.599   4.113  0.4527  0.1089  0.1312
46533SOL    HW144156   8.172   4.533   4.080  1.0627 -0.9447  1.0505
46533SOL    HW244157   8.215   4.676   4.060 -2.0526  0.0123  0.6939
46534SOL     OW44158  11.630  11.452   1.044  0.0129 -0.0980  0.0407
46534SOL    HW144159  11.535  11.462   1.040  0.0389 -0.1216 -0.7613
46534SOL    HW244160  11.661  11.491   0.963  0.6840 -0.1908  0.2495
46535SOL     OW44161   1.048   5.450   8.801  0.8884  0.3377 -0.0717
46535SOL    HW144162   1.091   5.438   8.716 -0.6183 -1.3642 -0.6506
46535SOL    HW244163   1.101   5.399   8.863  0.8338 -0.1022 -0.3864
46536SOL     OW44164   0.048   1.185   8.314  0.2697 -0.8552  0.0711
46536SOL    HW144165  -0.013   1.201   8.243  1.2430 -1.9109 -1.0486
46536SOL    HW244166   0.075   1.273   8.343 -0.7361 -0.4070 -0.2973
46537SOL     OW44167   5.232   3.831   5.622 -0.1898  0.2376  1.0836
46537SOL    HW144168   5.145   3.815   5.658 -0.4830 -1.1903 -0.1375
46537SOL    HW244169   5.279   3.878   5.691 -1.1487 -1.1305  2.7369
46538SOL     OW44170   4.754   2.810   5.276 -0.2535  0.0474 -0.3280
46538SOL    HW144171   4.805   2.891   5.273  0.9243 -0.6819 -0.8807
46538SOL    HW244172   4.793   2.759   5.348 -0.5228 -0.3240 -0.4392
46539SOL     OW44173   9.900   9.870   2.341  0.0787  0.1821 -0.4966
46539SOL    HW144174   9.920   9.961   2.365  3.4394 -0.5330 -0.1062
46539SOL    HW244175   9.857   9.877   2.255 -0.9408  2.1564  0.1034
46540SOL     OW44176   6.205   4.601   4.273 -0.5688 -0.5811  0.4303
46540SOL    HW144177   6.111   4.613   4.287 -0.7621 -2.0168  0.5051
46540SOL    HW244178   6.246   4.666   4.331 -1.4942 -0.8697  1.4307
46541SOL     OW44179   8.008   5.452   7.353 -0.0454  0.2107  0.0900
46541SOL    HW144180   7.988   5.441   7.260 -0.4772 -1.1891  0.3164
46541SOL    HW244181   7.934   5.412   7.398  0.7384 -0.2359  1.0219
46542SOL     OW44182   7.051  12.069  12.007 -0.3241  0.3636 -0.1946
46542SOL    HW144183   7.124  12.042  12.063  0.3992 -0.0239 -1.2978
46542SOL    HW244184   7.090  12.084  11.921 -1.6114 -0.3101 -0.9367
46543SOL     OW44185   4.734   9.888  10.874  0.0028 -0.1825 -0.0405
46543SOL    HW144186   4.657   9.847  10.914  0.8780 -1.8514  0.0405
46543SOL    HW244187   4.712   9.895  10.781 -0.6105  0.2728  0.1303
46544SOL     OW44188   1.313   8.006  11.321 -0.4832  0.1736  0.3839
46544SOL    HW144189   1.319   8.095  11.287 -0.7498  0.1943  0.3908
46544SOL    HW244190   1.270   8.015  11.406  1.8187  0.3454  1.6248
46545SOL     OW44191   2.156   5.169   6.619 -0.2241 -0.1249 -0.4384
46545SOL    HW144192   2.099   5.246   6.617 -1.1648 -0.8023 -0.2439
46545SOL    HW244193   2.155   5.136   6.529  1.4556  0.9746 -0.9087
46546SOL     OW44194   0.189   1.410   1.654 -0.1498 -0.0734 -0.0454
46546SOL    HW144195   0.173   1.504   1.649 -1.6184 -0.3176 -0.6736
46546SOL    HW244196   0.149   1.384   1.738 -0.5098 -0.2544 -0.2702
46547SOL     OW44197   1.741   5.845  10.095 -0.0682  1.2134  0.9075
46547SOL    HW144198   1.725   5.775  10.031  2.0568  2.0301 -0.6391
46547SOL    HW244199   1.678   5.828  10.165 -0.7591 -1.2518 -0.1887
46548SOL     OW44200  10.644  11.148  12.081 -0.0455  0.1337 -0.0941
46548SOL    HW144201  10.724  11.136  12.030 -0.9924 -1.9345 -1.1916
46548SOL    HW244202  10.672  11.201  12.156  2.4748 -0.9098 -0.1859
46549SOL     OW44203  10.386   6.856   8.879 -0.3191 -1.0159 -0.5320
46549SOL    HW144204  10.443   6.809   8.940 -0.0057  3.0489  2.7348
46549SOL    HW244205  10.298   6.829   8.903 -0.1473 -0.0968  1.3135
46550SOL     OW44206   6.128   2.469   7.366  0.1792  0.1520  0.5352
46550SOL    HW144207   6.113   2.379   7.395 -1.2628  0.6471  1.4553
46550SOL    HW244208   6.163   2.460   7.277  1.1460 -1.3289  1.0194
46551SOL     OW44209   3.622  10.633   4.384  0.3850  0.5711  0.1964
46551SOL    HW144210   3.702  10.584   4.366 -0.8734 -1.8319  0.7848
46551SOL    HW244211   3.575  10.580   4.448 -1.0934  2.5925  0.8903
46552SOL     OW44212   7.927   9.030   7.040 -0.3790  0.0390  0.0377
46552SOL    HW144213   7.883   9.061   7.119 -0.4525  0.4542 -0.1637
46552SOL    HW244214   8.002   9.090   7.030 -0.3971  0.0174 -0.2319
46553SOL     OW44215   5.340  12.022   1.303 -0.2514 -0.0817 -0.3298
46553SOL    HW144216   5.305  11.955   1.362  1.6880 -0.7367  0.1278
46553SOL    HW244217   5.399  11.974   1.245  2.9151  1.4143  1.3870
46554SOL     OW44218  11.625   3.545  10.704 -0.4657 -0.1544 -0.3285
46554SOL    HW144219  11.591   3.589  10.782  0.1432 -1.5335  0.7641
46554SOL    HW244220  11.550   3.539  10.645 -0.7359  1.6482 -0.2231
46555SOL     OW44221   9.355  11.540   8.671  0.0829 -0.4558  0.0839
46555SOL    HW144222   9.362  11.630   8.638  0.6375  0.4789  2.5702
46555SOL    HW244223   9.274  11.507   8.631 -0.3282  1.2555 -0.6048
46556SOL     OW44224   4.518   7.876   2.692  0.2535  0.4716  0.1786
46556SOL    HW144225   4.565   7.858   2.610 -1.0917  0.1319 -0.5544
46556SOL    HW244226   4.427   7.886   2.665 -0.2564  0.0817  1.6824
46557SOL     OW44227   5.349   5.195   9.225  0.1200  0.2230  0.5766
46557SOL    HW144228   5.442   5.173   9.231  0.6283  1.3333 -1.8815
46557SOL    HW244229   5.308   5.148   9.297  1.6816 -5.1080 -1.5231
46558SOL     OW44230   9.969   7.759   2.314 -0.5198 -0.5635 -0.0976
46558SOL    HW144231   9.950   7.827   2.250 -0.3305  0.8643  1.3105
46558SOL    HW244232   9.952   7.800   2.399 -0.7913 -2.4031  0.7880
46559SOL     OW44233   7.677   1.659  10.359  0.7199 -0.0692 -0.1513
46559SOL    HW144234   7.761   1.682  10.318  1.2121  0.8287  1.2609
46559SOL    HW244235   7.701   1.635  10.448 -0.5168  0.0073  0.2106
46560SOL     OW44236   9.363   7.492   5.574 -0.2678 -0.0352  0.1033
46560SOL    HW144237   9.395   7.529   5.492  0.2712  0.2023  0.4176
46560SOL    HW244238   9.330   7.406   5.550 -1.1978  0.4869 -0.5709
46561SOL     OW44239   1.138   8.407   8.333  0.0569 -0.6154  0.5105
46561SOL    HW144240   1.050   8.401   8.371 -0.3513  0.2224 -0.2644
46561SOL    HW244241   1.141   8.337   8.268 -1.5622  1.7785 -2.3731
46562SOL     OW44242   0.341  10.123   1.148  0.0112 -0.2755 -0.2968
46562SOL    HW144243   0.330  10.144   1.241  1.4644  1.0071 -0.3680
46562SOL    HW244244   0.252  10.108   1.116 -1.0635  3.3593  0.4238
46563SOL     OW44245   5.192   9.609   8.720 -0.1965 -0.4107 -0.0747
46563SOL    HW144246   5.175   9.523   8.757 -1.4730 -0.2701 -0.2679
46563SOL    HW244247   5.191   9.596   8.625 -1.9496  0.0369 -0.1571
46564SOL     OW44248   4.903   9.163   8.642 -0.1614 -0.1443 -0.2352
46564SOL    HW144249   4.822   9.130   8.682  0.1408 -1.8403 -0.9290
46564SOL    HW244250   4.950   9.084   8.614  1.8094  0.7790  0.2560
46565SOL     OW44251   1.789   8.366   1.561 -0.5538  0.0131 -0.4461
46565SOL    HW144252   1.762   8.287   1.514 -0.8425 -0.2715  0.1955
46565SOL    HW244253   1.884   8.365   1.557 -0.5823  0.3011 -1.5311
46566SOL     OW44254   5.283   0.347   8.889  0.1013 -0.0530  0.4190
46566SOL    HW144255   5.239   0.428   8.863 -2.2588 -0.4928  2.6269
46566SOL    HW244256   5.268   0.286   8.817 -1.5473  0.3196  0.4157
46567SOL     OW44257  11.449  10.813   1.659 -0.3244  0.8275  0.0802
46567SOL    HW144258  11.384  10.791   1.592 -0.9761  0.7533  0.7313
46567SOL    HW244259  11.531  10.779   1.624 -1.0545 -1.4939  0.4261
46568SOL     OW44260   9.971   6.501  11.226  0.4306 -0.1303 -0.7753
46568SOL    HW144261   9.904   6.570  11.228 -1.6952 -2.0895  0.2496
46568SOL    HW244262   9.959   6.458  11.141  1.1634  0.1957 -1.0509
46569SOL     OW44263   6.875   8.929   1.836  0.2614  0.3532  0.4274
46569SOL    HW144264   6.961   8.899   1.806 -0.6529 -0.9554 -1.0282
46569SOL    HW244265   6.874   9.022   1.814  1.6922  0.6573  1.4747
46570SOL     OW44266   7.993   3.172   3.960  0.0876  0.0349  0.3317
46570SOL    HW144267   7.902   3.144   3.969 -0.5013  1.6747 -0.0859
46570SOL    HW244268   7.992   3.230   3.883  1.4238  0.2861  0.4832
46571SOL     OW44269   0.572   8.912  12.108 -0.1125  0.1695 -0.3127
46571SOL    HW144270   0.558   8.824  12.072  0.6182  0.2400 -0.7804
46571SOL    HW244271   0.524   8.911  12.191  0.2711 -0.8285 -0.0843
46572SOL     OW44272   2.646   8.100   0.258  0.0673 -0.3205  0.2584
46572SOL    HW144273   2.641   8.022   0.313  1.4120 -0.0494  0.8147
46572SOL    HW244274   2.575   8.156   0.287  0.9840 -0.0129  2.0151
46573SOL     OW44275   7.639   9.326  11.961  0.2806 -0.1584 -0.0509
46573SOL    HW144276   7.631   9.404  12.017  2.1804 -0.3912  0.6192
46573SOL    HW244277   7.731   9.324  11.935 -0.0123 -1.4933 -1.1030
46574SOL     OW44278   0.473   3.329   2.429 -0.4711  0.3226 -0.1066
46574SOL    HW144279   0.546   3.327   2.366 -0.2856 -1.5349  0.1147
46574SOL    HW244280   0.516   3.318   2.514 -0.8888  0.7289  0.1538
46575SOL     OW44281   8.684   6.635   0.208  0.1368 -0.5811  0.4957
46575SOL    HW144282   8.702   6.691   0.132  1.2416  0.3037  1.3669
46575SOL    HW244283   8.589   6.640   0.218  0.3171  3.6169  2.2493
46576SOL     OW44284   8.822   7.712   1.340 -0.1024  0.3035 -0.5898
46576SOL    HW144285   8.853   7.654   1.409  1.2421 -0.6483 -1.9390
46576SOL    HW244286   8.733   7.735   1.367 -0.2284 -1.3881  0.5980
46577SOL     OW44287   4.070  11.042   3.062 -0.8005  0.0128  0.5560
46577SOL    HW144288   3.989  11.046   3.011 -0.6650  0.4847  0.3680
46577SOL    HW244289   4.126  11.109   3.023 -0.8271  0.6479  1.5574
46578SOL     OW44290   3.261   5.991   4.593  0.0866  0.5888 -0.3875
46578SOL    HW144291   3.241   5.972   4.685  2.2651  2.3864  0.5293
46578SOL    HW244292   3.294   5.908   4.559 -0.4715 -0.0288  0.5152
46579SOL     OW44293  11.070  10.355   8.238 -0.0582 -0.1011  0.0624
46579SOL    HW144294  10.985  10.326   8.271  0.8443 -2.3890  0.5322
46579SOL    HW244295  11.125  10.277   8.241  2.0378  1.2847 -0.3508
46580SOL     OW44296   0.074   8.089   1.211  0.2042  0.8228 -0.0845
46580SOL    HW144297   0.100   8.028   1.141 -0.8581 -1.2359  1.2335
46580SOL    HW244298   0.102   8.046   1.292 -1.7000  1.4748  0.9791
46581SOL     OW44299   5.541   5.970   6.117  0.2125 -0.5145  0.0312
46581SOL    HW144300   5.580   6.043   6.069  1.8062 -0.9010  0.6741
46581SOL    HW244301   5.600   5.956   6.191 -2.1430  0.0738  2.1682
46582SOL     OW44302   3.896   9.327   6.379  0.9014 -0.1637  0.0130
46582SOL    HW144303   3.931   9.271   6.310  0.4460 -0.4943  0.0435
46582SOL    HW244304   3.972   9.349   6.433  0.8190 -2.6233  1.3237
46583SOL     OW44305   1.780   5.375   2.335  0.1140  0.1398  0.1390
46583SOL    HW144306   1.754   5.450   2.388 -1.2948 -0.0681 -0.2122
46583SOL    HW244307   1.738   5.300   2.376  2.2487 -0.6503  1.0245
46584SOL     OW44308   6.304   3.181   5.041  0.0661  0.3911  0.0714
46584SOL    HW144309   6.310   3.158   5.133  1.0188  1.0585  0.1886
46584SOL    HW244310   6.350   3.111   4.995 -1.9602 -0.9182 -0.0900
46585SOL     OW44311   4.921   3.155   1.336 -0.0696  0.0943  0.2705
46585SOL    HW144312   4.962   3.216   1.397  1.7718 -1.3942  0.5921
46585SOL    HW244313   4.902   3.208   1.258  0.1820  1.3604  1.0386
46586SOL     OW44314   2.958   6.823   2.051  0.2849  0.5888  0.1967
46586SOL    HW144315   2.930   6.851   1.964 -0.2935 -2.5942 -0.7762
46586SOL    HW244316   3.048   6.854   2.058  0.0569  1.6535 -1.1366
46587SOL     OW44317   9.831  10.277   3.439  0.5152  0.1629 -0.2319
46587SOL    HW144318   9.832  10.182   3.449 -2.0212  0.2482  1.7031
46587SOL    HW244319   9.803  10.291   3.348  0.6969 -0.9227 -0.4723
46588SOL     OW44320   0.165   2.465   2.133 -0.3437  0.0467  0.2086
46588SOL    HW144321   0.190   2.389   2.186  0.3108  0.2979  0.2751
46588SOL    HW244322   0.169   2.539   2.194  1.1759  0.4590 -0.3373
46589SOL     OW44323   5.935  11.232   2.055 -0.7919 -0.2817  0.0856
46589SOL    HW144324   5.964  11.297   2.119 -1.3202  0.2437 -0.1972
46589SOL    HW244325   5.905  11.158   2.108 -0.2400 -0.2768  0.4131
46590SOL     OW44326   3.927   8.379   7.121 -0.3986 -0.1030  0.3897
46590SOL    HW144327   3.860   8.445   7.137 -1.3623 -0.8301 -0.4686
46590SOL    HW244328   3.905   8.344   7.034  2.7340  1.5443 -1.2463
46591SOL     OW44329   4.200   1.894   4.028 -0.0171 -0.2402  0.0000
46591SOL    HW144330   4.227   1.844   3.951 -0.7513 -0.8915  0.1596
46591SOL    HW244331   4.107   1.914   4.012 -0.4525 -1.2404  1.1709
46592SOL     OW44332   9.797   1.787  11.991  0.3716  0.6390  0.7708
46592SOL    HW144333   9.861   1.823  11.929 -1.0924  0.4699 -0.9079
46592SOL    HW244334   9.834   1.703  12.017 -0.2043 -0.5931 -2.0372
46593SOL     OW44335   7.021  10.736  10.517 -0.0217 -0.2253  0.1413
46593SOL    HW144336   7.102  10.787  10.522 -0.1386  0.1365 -1.1254
46593SOL    HW244337   6.956  10.798  10.481 -0.6959 -0.6849  0.5418
46594SOL     OW44338   2.076   0.558   1.908  0.1844  0.7839 -0.6355
46594SOL    HW144339   1.997   0.608   1.888 -0.5496 -0.1354 -0.1614
46594SOL    HW244340   2.136   0.578   1.837 -0.6063  1.2361 -1.1973
46595SOL     OW44341   7.755   2.773   9.546 -0.6130 -0.0457  0.4901
46595SOL    HW144342   7.780   2.779   9.454 -0.1528  0.8866  0.6665
46595SOL    HW244343   7.712   2.856   9.565  0.4527  0.3035  1.4597
46596SOL     OW44344  10.645   3.981   5.117 -0.2449 -0.4593 -0.0182
46596SOL    HW144345  10.728   4.015   5.150  1.3050 -0.5490 -3.3965
46596SOL    HW244346  10.642   3.890   5.146  0.2004 -0.1108  1.1529
46597SOL     OW44347  10.277  11.231   4.231 -0.0795  0.2278  0.0731
46597SOL    HW144348  10.223  11.162   4.269 -1.2311  0.5482 -0.9058
46597SOL    HW244349  10.242  11.312   4.267 -1.7589  0.6039 -2.1984
46598SOL     OW44350   7.805  10.142   9.282 -0.2074 -0.1057  0.0023
46598SOL    HW144351   7.732  10.177   9.232 -0.4576 -1.6635 -0.7903
46598SOL    HW244352   7.848  10.219   9.320  0.8632  1.3337 -3.7284
46599SOL     OW44353   8.405   1.771   0.043  0.1220 -0.2672 -0.0180
46599SOL    HW144354   8.477   1.766  -0.020  0.3067 -0.3355  0.1986
46599SOL    HW244355   8.445   1.747   0.126 -0.0672  0.0774  0.1702
46600SOL     OW44356   9.977   1.941   4.202  0.7279 -0.0136  0.2439
46600SOL    HW144357   9.961   1.860   4.250 -3.0303  0.1215 -0.4547
46600SOL    HW244358   9.907   2.000   4.232 -0.7066  0.7038 -3.8991
46601SOL     OW44359   2.409   7.032   3.992  0.7452 -0.0246 -0.0665
46601SOL    HW144360   2.469   7.103   3.971  1.0488 -0.0899  0.5541
46601SOL    HW244361   2.449   6.988   4.068 -0.7769  0.8182  1.2934
46602SOL     OW44362   3.438   0.514   2.191 -0.3028  0.9221  0.0040
46602SOL    HW144363   3.374   0.510   2.262 -0.2094 -1.8963  0.0218
46602SOL    HW244364   3.409   0.448   2.128  0.6423  2.0776 -1.7246
46603SOL     OW44365   5.009  10.977   0.915  0.1888  0.6216  0.6839
46603SOL    HW144366   4.923  10.941   0.893  0.6479 -1.1456  1.6782
46603SOL    HW244367   5.023  11.046   0.850 -2.6295  2.0264  1.4013
46604SOL     OW44368   3.945   0.355  10.247 -0.7133  0.1974 -0.7470
46604SOL    HW144369   4.037   0.350  10.272 -1.1805 -1.0529  0.8786
46604SOL    HW244370   3.899   0.372  10.328 -2.0121 -0.4043 -1.3310
46605SOL     OW44371   3.031   4.228   4.987  0.1811  0.5679 -0.1358
46605SOL    HW144372   3.122   4.244   4.961  0.0463 -0.0042 -1.0273
46605SOL    HW244373   3.037   4.203   5.079  0.6835  2.6792  0.4495
46606SOL     OW44374   8.361   0.431   9.360  0.5253 -0.3620 -0.2005
46606SOL    HW144375   8.406   0.513   9.378  2.6506 -1.0117 -2.0502
46606SOL    HW244376   8.275   0.456   9.327  0.4895  1.0146  0.8547
46607SOL     OW44377   5.529   2.115   0.415  0.1391  0.6277 -0.1368
46607SOL    HW144378   5.505   2.176   0.484 -1.3075 -0.6422  0.5621
46607SOL    HW244379   5.449   2.106   0.362 -0.0194 -1.3534  0.3630
46608SOL     OW44380  11.622   5.167   5.553 -0.2356 -0.1833  0.1206
46608SOL    HW144381  11.669   5.110   5.493  0.8349  1.3437 -0.5526
46608SOL    HW244382  11.530   5.153   5.532  0.0076 -1.4597 -0.1822
46609SOL     OW44383   4.138   8.159   0.908  0.1240  0.2315  0.5273
46609SOL    HW144384   4.125   8.172   0.814 -0.1576  2.9147  0.8537
46609SOL    HW244385   4.050   8.138   0.941  0.1483 -0.3109  0.2527
46610SOL     OW44386   5.520   8.943   7.064 -0.1431  0.1162 -0.1381
46610SOL    HW144387   5.469   8.940   6.982 -2.0622 -0.8770  1.0220
46610SOL    HW244388   5.454   8.951   7.133  1.5085  3.4056  1.2689
46611SOL     OW44389   2.247   5.565   8.242  0.3307 -0.2894  0.3817
46611SOL    HW144390   2.273   5.522   8.324  0.3054  1.5524  1.3971
46611SOL    HW244391   2.161   5.603   8.262  0.0282 -0.3768 -0.7230
46612SOL     OW44392  11.586   7.230   1.374  0.3641 -0.2377  0.5959
46612SOL    HW144393  11.560   7.178   1.450 -2.2441  0.4133  0.2301
46612SOL    HW244394  11.504   7.263   1.339  1.7322  1.7020 -0.9348
46613SOL     OW44395  10.988   6.323   6.368 -0.3978 -0.1808 -0.2715
46613SOL    HW144396  10.933   6.317   6.290 -0.0619  0.1360 -0.5368
46613SOL    HW244397  11.000   6.232   6.396 -2.4901 -0.1812  0.8287
46614SOL     OW44398   2.894   5.393   7.707 -0.3068 -0.5913  0.9240
46614SOL    HW144399   2.949   5.394   7.786  0.3151  1.1242  0.5139
46614SOL    HW244400   2.904   5.481   7.670 -0.4179 -1.4107 -1.1835
46615SOL     OW44401   2.039  11.729  10.337 -0.3900  0.2487  0.3358
46615SOL    HW144402   2.025  11.653  10.394 -0.5360 -0.9346 -1.2192
46615SOL    HW244403   1.992  11.708  10.256  1.8030  0.7636 -1.1789
46616SOL     OW44404   7.532  10.584   5.322  0.0075 -0.5725  0.4464
46616SOL    HW144405   7.538  10.653   5.388 -0.6549 -0.0580 -0.0214
46616SOL    HW244406   7.493  10.509   5.369  1.3894 -0.8908  1.1381
46617SOL     OW44407   4.304   2.233  10.701 -0.0322  0.4414 -0.2575
46617SOL    HW144408   4.319   2.312  10.752  1.0011  0.2390 -0.2279
46617SOL    HW244409   4.271   2.169  10.764  1.4719  0.1162  0.2230
46618SOL     OW44410  11.490   7.548  10.512 -0.3546 -0.0615  0.1199
46618SOL    HW144411  11.541   7.585  10.441 -0.6778  0.5692  0.2111
46618SOL    HW244412  11.404   7.530  10.474 -0.5939  0.4730  0.3952
46619SOL     OW44413   5.824   0.421  10.598 -0.4122 -0.7827  0.2412
46619SOL    HW144414   5.912   0.443  10.629 -0.1728 -0.7441 -0.4398
46619SOL    HW244415   5.765   0.469  10.656  0.0513 -0.0330  0.1083
46620SOL     OW44416   6.984   7.006   0.561  0.1524  0.3792  0.4564
46620SOL    HW144417   6.897   6.976   0.588  0.6073 -0.2312  1.3142
46620SOL    HW244418   7.005   6.953   0.484  0.3496 -0.5359  1.1143
46621SOL     OW44419   1.799   4.086   2.710  0.0264 -0.0491 -0.2046
46621SOL    HW144420   1.879   4.139   2.712 -0.2147  0.2838  1.3474
46621SOL    HW244421   1.821   4.007   2.758 -1.1052  0.8757  1.9626
46622SOL     OW44422  11.499   1.472   6.366  0.1812 -0.1889  0.0051
46622SOL    HW144423  11.507   1.394   6.421 -1.7217 -1.1876 -1.0407
46622SOL    HW244424  11.539   1.446   6.283 -2.4169 -0.9020 -1.0994
46623SOL     OW44425   8.995   1.112   6.666 -0.3873 -0.0717  0.1141
46623SOL    HW144426   9.034   1.106   6.754  0.4022 -0.3771 -0.2414
46623SOL    HW244427   8.913   1.159   6.679  0.7165  1.7750  0.7017
46624SOL     OW44428   3.550  10.596   0.824  0.1570  0.3128  0.3584
46624SOL    HW144429   3.488  10.667   0.839 -2.0731 -1.3002 -0.7387
46624SOL    HW244430   3.548  10.545   0.905  0.1683  0.3484  0.3811
46625SOL     OW44431   3.841  10.940   5.119 -0.1376 -0.3814 -0.1513
46625SOL    HW144432   3.916  10.998   5.109 -0.2600 -0.1437  0.3132
46625SOL    HW244433   3.781  10.987   5.176  0.5061 -1.6663  1.6577
46626SOL     OW44434  10.943   1.200   9.454 -0.1082 -0.4656  0.1567
46626SOL    HW144435  10.950   1.141   9.379 -1.0481  0.3194 -0.5816
46626SOL    HW244436  10.849   1.213   9.466  0.0621  1.1441  0.0519
46627SOL     OW44437   9.388   4.557   6.199 -0.0514 -0.2767 -0.1414
46627SOL    HW144438   9.391   4.632   6.258 -0.5522  0.4563 -1.0086
46627SOL    HW244439   9.338   4.491   6.246  1.6351 -0.6192  1.2252
46628SOL     OW44440  12.122  10.946   5.097 -0.3609  1.0456  0.6041
46628SOL    HW144441  12.041  10.978   5.059  0.9730  2.8295 -0.9576
46628SOL    HW244442  12.127  10.988   5.182 -0.4710  2.0175  0.1476
46629SOL     OW44443   8.007   0.916   1.984  0.2753  0.0225 -0.4723
46629SOL    HW144444   8.058   0.932   1.904 -0.1653  0.8248 -0.6042
46629SOL    HW244445   7.992   1.003   2.020 -0.2652 -0.2735  0.0292
46630SOL     OW44446   1.561   9.160   5.685 -0.2088 -0.3008  0.0281
46630SOL    HW144447   1.481   9.118   5.656  0.2662 -0.4292 -1.1501
46630SOL    HW244448   1.543   9.254   5.678 -0.8452 -0.2815  1.4860
46631SOL     OW44449   7.597   2.949   6.554  0.2064 -0.0682 -0.1582
46631SOL    HW144450   7.507   2.973   6.528  0.2271 -0.2952 -0.4373
46631SOL    HW244451   7.592   2.856   6.576  0.8984 -0.7744 -2.6617
46632SOL     OW44452   9.100   6.448  10.316 -0.6480 -0.1101 -0.4169
46632SOL    HW144453   9.131   6.371  10.365 -1.5961 -0.6733 -0.6787
46632SOL    HW244454   9.060   6.411  10.237  4.2795  0.8218 -3.8694
46633SOL     OW44455   4.904  11.345  10.213 -0.0047 -0.8900  0.0501
46633SOL    HW144456   4.833  11.292  10.175 -0.5925 -1.4735  1.8768
46633SOL    HW244457   4.866  11.383  10.292  0.7305  1.5140 -0.6839
46634SOL     OW44458  10.341   0.594  10.630 -0.8392  0.4518  0.8268
46634SOL    HW144459  10.350   0.689  10.622  0.2051  0.2786 -0.3922
46634SOL    HW244460  10.425   0.564  10.664 -0.9471 -0.0948  0.6253
46635SOL     OW44461   5.362   4.298   0.120  0.0067 -0.1816 -0.2703
46635SOL    HW144462   5.319   4.313   0.036 -0.5929  1.0750  0.2294
46635SOL    HW244463   5.407   4.381   0.139 -0.0884 -0.3496  0.7733
46636SOL     OW44464   5.592   3.882   7.760 -0.2250 -0.1389 -0.0656
46636SOL    HW144465   5.557   3.796   7.785 -1.1082  0.2233 -0.0375
46636SOL    HW244466   5.570   3.891   7.668  2.8095 -1.3615 -1.0480
46637SOL     OW44467   0.429   9.206   3.177  0.0888 -0.0013  0.4016
46637SOL    HW144468   0.433   9.213   3.272  0.2627  1.9687  0.2799
46637SOL    HW244469   0.347   9.160   3.159  0.3036 -0.8403  1.5054
46638SOL     OW44470   6.818  10.079  12.033 -0.7620  0.2856  0.0182
46638SOL    HW144471   6.909  10.098  12.012 -1.6636  2.3381 -2.5194
46638SOL    HW244472   6.821   9.994  12.078  2.4911  1.0062  1.4876
46639SOL     OW44473   5.209   4.197   7.384 -0.4593  0.0044 -0.1333
46639SOL    HW144474   5.153   4.273   7.371 -0.1901  0.0659 -1.0060
46639SOL    HW244475   5.297   4.234   7.395 -0.5072 -0.1174  0.7596
46640SOL     OW44476   7.300   4.238   6.392 -0.1525 -0.2149  0.1628
46640SOL    HW144477   7.306   4.268   6.302 -0.3465  4.9113  1.5383
46640SOL    HW244478   7.388   4.254   6.428 -0.4189 -0.9816  1.2059
46641SOL     OW44479   7.013   6.440   2.774 -0.5172  0.3921 -0.3779
46641SOL    HW144480   7.046   6.501   2.840 -0.8931 -0.6967  0.8569
46641SOL    HW244481   7.051   6.471   2.692 -0.5474  2.1611  0.2310
46642SOL     OW44482  11.553   0.995   6.669 -0.5903  0.5596 -0.3421
46642SOL    HW144483  11.585   0.906   6.675 -1.3983  0.3651  1.5908
46642SOL    HW244484  11.628   1.050   6.693 -1.0058  0.2010  2.0157
46643SOL     OW44485   6.399   3.707  11.830  0.1438  0.0133 -0.5496
46643SOL    HW144486   6.420   3.666  11.914  1.2469 -1.2443 -1.4030
46643SOL    HW244487   6.318   3.664  11.802 -0.9657  1.3747  0.4534
46644SOL     OW44488   6.838  10.261   5.424  0.0290 -0.1066 -0.1986
46644SOL    HW144489   6.933  10.265   5.434  0.2173 -0.4045 -1.7056
46644SOL    HW244490   6.813  10.178   5.464 -0.0426  1.3212  3.0559
46645SOL     OW44491   0.394   0.381   8.586  0.3519 -0.2147  0.1596
46645SOL    HW144492   0.428   0.442   8.520  0.7312 -0.2280  0.3368
46645SOL    HW244493   0.392   0.432   8.667 -1.0450  0.0939 -0.0533
46646SOL     OW44494   1.537   2.200   3.627  0.2420  0.1820 -0.0972
46646SOL    HW144495   1.588   2.206   3.708 -0.5510  0.3329  0.3960
46646SOL    HW244496   1.455   2.245   3.647 -0.6138 -1.1653 -0.4701
46647SOL     OW44497   9.666   8.580   5.112 -0.0738 -0.0377  0.0534
46647SOL    HW144498   9.688   8.608   5.201 -0.9229  0.8738  0.0006
46647SOL    HW244499   9.723   8.506   5.095  0.8269  0.4175  0.9830
46648SOL     OW44500  11.424   9.202   5.079 -0.0735  0.7461 -0.0002
46648SOL    HW144501  11.487   9.204   5.006 -1.2501  0.3521 -1.0659
46648SOL    HW244502  11.353   9.260   5.051 -1.7893 -1.4035 -0.3834
46649SOL     OW44503   4.081   3.267   1.670 -0.4199 -0.4961 -0.3494
46649SOL    HW144504   4.176   3.253   1.670 -0.7351 -3.4470  1.1824
46649SOL    HW244505   4.045   3.181   1.647 -2.7513  0.6083 -1.0924
46650SOL     OW44506   6.302   5.664  11.252 -0.4036  0.0741 -0.1912
46650SOL    HW144507   6.378   5.615  11.283  0.3002  0.4344 -1.2933
46650SOL    HW244508   6.335   5.753  11.239 -1.3174  0.5236  0.4417
46651SOL     OW44509   1.711   4.393   4.170  0.0111  0.1128 -0.4109
46651SOL    HW144510   1.615   4.389   4.165  0.0486 -1.1435 -0.4502
46651SOL    HW244511   1.729   4.446   4.248 -0.6959  1.0073 -0.8319
46652SOL     OW44512  12.124   7.375  10.813  1.0569  0.1151  0.0538
46652SOL    HW144513  12.187   7.337  10.752  0.2939 -0.5836 -0.3123
46652SOL    HW244514  12.097   7.457  10.772  1.1573  0.0484 -0.1486
46653SOL     OW44515   3.995   5.284   7.097  0.6902 -0.4837 -0.6749
46653SOL    HW144516   4.007   5.208   7.040  1.2106 -0.8458 -0.1016
46653SOL    HW244517   4.032   5.256   7.181 -0.4590 -0.1281 -0.0320
46654SOL     OW44518   5.174  10.221  11.831 -0.3971 -0.5679  0.2352
46654SOL    HW144519   5.204  10.288  11.769 -1.1103  1.1282  1.6138
46654SOL    HW244520   5.096  10.184  11.790 -0.0019 -0.5469 -0.5553
46655SOL     OW44521   0.094   4.077   1.780 -0.0839  0.1987 -0.0796
46655SOL    HW144522   0.126   4.167   1.783  1.1599 -0.1248 -1.8631
46655SOL    HW244523   0.107   4.044   1.869  1.0351  1.2690  0.1866
46656SOL     OW44524   7.007   2.234   3.935  0.2590  0.1382  0.1480
46656SOL    HW144525   6.982   2.228   3.842  0.0403 -3.1377  0.2981
46656SOL    HW244526   6.929   2.271   3.978  0.3381  1.6317 -0.9027
46657SOL     OW44527   3.749   4.731   6.272 -0.5293  0.5332 -0.3362
46657SOL    HW144528   3.750   4.825   6.290 -1.6620  0.7440 -1.2368
46657SOL    HW244529   3.662   4.715   6.235 -0.4131 -0.9061 -0.0236
46658SOL     OW44530   6.297   4.250  12.062 -0.5717  0.3747 -0.1261
46658SOL    HW144531   6.346   4.244  12.144  0.9616  1.2862 -0.9378
46658SOL    HW244532   6.284   4.159  12.035 -1.4283  0.0518  1.2861
46659SOL     OW44533   3.937   0.828   0.315  0.0900  0.0082  0.2013
46659SOL    HW144534   3.975   0.746   0.348  2.0973  1.2302  1.0943
46659SOL    HW244535   3.855   0.801   0.274  0.7655 -2.4763  0.3035
46660SOL     OW44536   3.507   1.236   6.169 -0.1581  0.1602 -0.4599
46660SOL    HW144537   3.552   1.319   6.186  2.1859 -0.6753 -1.9972
46660SOL    HW244538   3.550   1.173   6.228 -0.6812 -0.2932 -0.5527
46661SOL     OW44539   2.063   9.688   2.564  0.2741 -0.1947 -0.1913
46661SOL    HW144540   2.080   9.639   2.483 -0.1593 -0.1204 -0.3331
46661SOL    HW244541   1.968   9.678   2.577  0.4867 -1.0586  0.8545
46662SOL     OW44542  11.919   1.211  11.086  0.2798  0.0973  0.3973
46662SOL    HW144543  11.901   1.117  11.086  1.8524 -0.2445 -0.5717
46662SOL    HW244544  11.994   1.220  11.145 -0.8260  0.9880  1.7126
46663SOL     OW44545  11.124   7.255  11.919 -0.0860  0.0369  0.0332
46663SOL    HW144546  11.095   7.287  11.834 -0.4110 -1.0051 -0.2652
46663SOL    HW244547  11.066   7.181  11.938  2.8052 -2.7007 -0.9775
46664SOL     OW44548   3.698  10.818   1.762  0.0281  0.5394  0.4319
46664SOL    HW144549   3.636  10.870   1.711  1.7561  0.9631 -1.4015
46664SOL    HW244550   3.729  10.751   1.701  0.6198 -0.2960  1.6032
46665SOL     OW44551   6.499   8.401   9.447  0.1066  0.4200 -0.1827
46665SOL    HW144552   6.437   8.471   9.465  0.8489  1.0762 -0.1406
46665SOL    HW244553   6.585   8.442   9.455  0.5337 -0.1639 -1.4437
46666SOL     OW44554   0.321   6.258  11.756 -0.2105 -0.9800 -0.1519
46666SOL    HW144555   0.290   6.173  11.787 -1.4454 -0.3234  0.4945
46666SOL    HW244556   0.300   6.259  11.663  0.4821 -1.6569 -0.3264
46667SOL     OW44557   8.263   8.113   9.187 -0.3388 -0.0136 -0.3799
46667SOL    HW144558   8.250   8.139   9.096 -0.0354  0.8113 -0.1941
46667SOL    HW244559   8.174   8.098   9.220 -0.6904  2.3453 -0.0655
46668SOL     OW44560   8.176   9.622   2.975 -0.2411 -0.6817  0.0171
46668SOL    HW144561   8.199   9.712   2.955  0.1819 -0.8185 -0.1364
46668SOL    HW244562   8.087   9.611   2.942 -0.6667 -0.0413  0.9261
46669SOL     OW44563  12.063   7.326   1.467  0.3528  0.2925 -0.1558
46669SOL    HW144564  12.069   7.309   1.373  0.8492 -0.4682  0.0104
46669SOL    HW244565  12.072   7.421   1.474  0.2494  0.3669 -0.8776
46670SOL     OW44566   1.306   7.113   0.726  0.5873 -0.1569  0.2031
46670SOL    HW144567   1.231   7.154   0.683  0.5716  1.3586  1.6133
46670SOL    HW244568   1.382   7.163   0.695  0.8271 -0.5146  0.2023
46671SOL     OW44569   3.616   7.654   8.934  0.6462  0.0128  0.4946
46671SOL    HW144570   3.692   7.630   8.987  1.5614  0.8336 -0.4188
46671SOL    HW244571   3.652   7.689   8.853 -0.6340  2.2509  0.7977
46672SOL     OW44572   5.592  10.193   7.763 -0.2230 -0.0494  0.1218
46672SOL    HW144573   5.523  10.254   7.789  0.1130  0.2927  0.2385
46672SOL    HW244574   5.553  10.106   7.769 -0.9076  0.1969 -0.6601
46673SOL     OW44575   0.441   4.107  10.121 -0.3775  0.1619 -0.0937
46673SOL    HW144576   0.532   4.100  10.151 -0.0946 -1.3042 -1.1655
46673SOL    HW244577   0.398   4.030  10.159 -1.2671  1.0047  0.6530
46674SOL     OW44578   8.349   9.998   5.768  0.1552  0.7698  0.3128
46674SOL    HW144579   8.405  10.073   5.746  3.0104 -1.5620 -1.0604
46674SOL    HW244580   8.367   9.982   5.861  1.0270  0.6668  0.1346
46675SOL     OW44581   1.940  11.157   1.301 -0.0681  0.2872 -0.5601
46675SOL    HW144582   1.988  11.076   1.284 -0.2364 -0.0722  0.5868
46675SOL    HW244583   1.934  11.161   1.396 -1.0826  1.0490 -0.6451
46676SOL     OW44584  10.260  11.724  12.076  0.3012  0.2099  0.2432
46676SOL    HW144585  10.166  11.705  12.069  0.4730 -0.0025 -2.0199
46676SOL    HW244586  10.303  11.647  12.040  1.3160  0.8085  0.1398
46677SOL     OW44587   3.067  10.553   1.952 -0.7179  0.2750  0.4264
46677SOL    HW144588   2.987  10.577   1.904 -0.3568  1.5616  0.4181
46677SOL    HW244589   3.138  10.593   1.902  0.1441 -2.2386 -0.4904
46678SOL     OW44590   8.853   5.124   8.732  0.0856 -0.3468  0.5935
46678SOL    HW144591   8.922   5.061   8.752  1.5829  0.3858 -1.7935
46678SOL    HW244592   8.772   5.076   8.745  1.1412 -2.3772  0.1273
46679SOL     OW44593   0.188   3.416   6.051  0.3348 -0.1411  0.0443
46679SOL    HW144594   0.123   3.442   6.117  1.5682 -1.0628  1.7080
46679SOL    HW244595   0.214   3.328   6.077 -0.1174 -1.1260 -2.5306
46680SOL     OW44596   5.967   2.299   3.442  0.5425 -0.0221 -0.5981
46680SOL    HW144597   5.937   2.246   3.516  1.4502 -0.9712 -0.9043
46680SOL    HW244598   6.061   2.306   3.453  0.6650 -0.0189 -1.5790
46681SOL     OW44599  10.733   9.816   4.468  0.2164 -0.2950 -0.4044
46681SOL    HW144600  10.684   9.896   4.453 -0.7714 -0.3987  1.9519
46681SOL    HW244601  10.821   9.834   4.433 -0.4638  1.1570 -1.4453
46682SOL     OW44602   8.763   5.588   2.922  0.4456 -0.0216  0.7629
46682SOL    HW144603   8.751   5.683   2.924  0.1537 -0.0630  2.3094
46682SOL    HW244604   8.853   5.575   2.892  0.3185  0.7259  0.0467
46683SOL     OW44605   2.898   0.848   5.203 -0.2170  0.3461  0.1604
46683SOL    HW144606   2.881   0.890   5.287  0.4264 -0.5533  0.7573
46683SOL    HW244607   2.945   0.768   5.225 -0.0901  0.0632 -1.0567
46684SOL     OW44608  10.194   0.870   5.551  0.1155  0.2617 -0.8277
46684SOL    HW144609  10.189   0.778   5.577 -0.1382  0.4130 -0.3289
46684SOL    HW244610  10.196   0.919   5.634 -0.7951  0.7568 -1.0784
46685SOL     OW44611   2.624  11.114   1.631 -0.5300 -0.1458  0.4302
46685SOL    HW144612   2.649  11.156   1.713  0.3365  0.7521 -0.2645
46685SOL    HW244613   2.706  11.079   1.596 -0.7401  0.1999 -0.4435
46686SOL     OW44614   0.063   4.380  10.560 -0.5281 -0.5351 -0.0193
46686SOL    HW144615   0.069   4.370  10.465 -3.4545  0.4781 -0.4012
46686SOL    HW244616   0.083   4.472  10.575 -0.6799 -0.5490  0.2729
46687SOL     OW44617   1.987   1.619   9.364 -0.0365  1.1052  0.1719
46687SOL    HW144618   2.000   1.694   9.422  0.9638 -0.2259  1.7776
46687SOL    HW244619   1.937   1.556   9.417  1.0203 -0.2028 -0.3208
46688SOL     OW44620   1.141   6.137  12.039 -0.0885  0.4196  0.2900
46688SOL    HW144621   1.139   6.213  12.097 -0.2640  0.6956 -0.0712
46688SOL    HW244622   1.180   6.067  12.091  1.0034  1.0229  0.3132
46689SOL     OW44623   8.449  11.189   7.676  0.3911  0.0286 -0.1339
46689SOL    HW144624   8.448  11.278   7.710 -0.3563 -0.2065  0.5064
46689SOL    HW244625   8.357  11.168   7.660  0.6375 -0.3148 -1.1270
46690SOL     OW44626   7.718   4.978   5.707 -0.0794 -0.3416 -0.2282
46690SOL    HW144627   7.692   4.997   5.797  0.2087 -0.8252 -0.0375
46690SOL    HW244628   7.644   4.930   5.670 -0.4579  0.3945 -0.4507
46691SOL     OW44629   1.516  11.658   1.377  0.0942 -0.1076 -0.4501
46691SOL    HW144630   1.471  11.575   1.396  2.8697 -1.7793 -0.6850
46691SOL    HW244631   1.533  11.696   1.463 -1.0552  0.1759 -0.3329
46692SOL     OW44632   1.984   1.212   4.838  0.1206  0.3703 -0.4883
46692SOL    HW144633   1.938   1.187   4.758 -2.3185 -0.3894  1.0462
46692SOL    HW244634   1.952   1.150   4.904  2.6661  0.4398  0.9307
46693SOL     OW44635   4.553   0.674  11.740 -0.1701 -0.2090 -0.1001
46693SOL    HW144636   4.560   0.756  11.788 -0.0210 -0.4342  0.2704
46693SOL    HW244637   4.479   0.629  11.779  0.7937 -1.0062  0.8882
46694SOL     OW44638   3.798   6.129   7.655  0.4167 -0.3792 -0.1101
46694SOL    HW144639   3.780   6.161   7.743  0.3175 -1.4618  0.2835
46694SOL    HW244640   3.793   6.206   7.599 -1.0178  0.0857  0.6154
46695SOL     OW44641  12.024  10.708   6.889 -0.8674  0.5127  0.8707
46695SOL    HW144642  12.112  10.730   6.858 -1.2601 -1.4067 -1.9735
46695SOL    HW244643  11.966  10.768   6.843 -1.2538 -0.3596  0.1933
46696SOL     OW44644  10.786   7.846   3.757 -0.0224  0.4809  0.9292
46696SOL    HW144645  10.703   7.807   3.784 -1.2738  1.6144 -1.0531
46696SOL    HW244646  10.827   7.874   3.839 -0.2231 -2.5597  2.2168
46697SOL     OW44647  10.920   3.765   8.950  0.4277 -0.1541 -1.0113
46697SOL    HW144648  10.827   3.758   8.967  0.3272  0.4145 -1.3114
46697SOL    HW244649  10.961   3.714   9.020 -0.0160  1.3050  0.3621
46698SOL     OW44650   2.753   1.547  10.407 -0.0901  0.0721 -0.3492
46698SOL    HW144651   2.731   1.457  10.433 -2.5007  0.7286  0.1919
46698SOL    HW244652   2.839   1.540  10.366  0.1934 -2.3316  0.4793
46699SOL     OW44653   6.960  11.469  10.111  0.6759 -0.1895  0.4061
46699SOL    HW144654   6.947  11.393  10.054 -0.9439  0.8127 -0.6487
46699SOL    HW244655   6.879  11.476  10.161  0.5309  1.2215  0.0076
46700SOL     OW44656   3.577   7.817   1.096  0.1322  0.3576  0.2790
46700SOL    HW144657   3.607   7.763   1.169  0.5638  0.6697  0.3347
46700SOL    HW244658   3.598   7.765   1.018 -0.1131  0.1291  0.3621
46701SOL     OW44659   5.951   5.860   1.148 -0.3066 -0.1170 -0.3558
46701SOL    HW144660   6.014   5.907   1.203 -0.1938  0.3630 -0.8875
46701SOL    HW244661   6.001   5.835   1.070 -0.8916  0.7423 -1.0322
46702SOL     OW44662  11.336   0.053   8.955 -0.4297 -0.4343  0.3143
46702SOL    HW144663  11.358  -0.029   9.000 -0.9826 -1.2162 -0.8156
46702SOL    HW244664  11.251   0.078   8.991 -0.2820 -0.3673  0.6240
46703SOL     OW44665   5.367   9.040   4.680  0.2864  0.0049 -0.0741
46703SOL    HW144666   5.457   9.026   4.712 -0.5651  0.0066  2.6047
46703SOL    HW244667   5.312   8.997   4.745 -1.7287  1.4467 -0.7210
46704SOL     OW44668  11.844   6.009  10.801  0.2392  1.4643 -0.3384
46704SOL    HW144669  11.759   6.009  10.757  0.0744  0.0895 -0.0446
46704SOL    HW244670  11.893   6.079  10.757 -0.8587  1.9374 -0.8482
46705SOL     OW44671  11.489   6.136   5.935 -0.5182 -0.7186  0.4915
46705SOL    HW144672  11.582   6.126   5.958 -0.5120 -2.1765 -0.0315
46705SOL    HW244673  11.480   6.229   5.914  1.3106 -0.8747 -1.3617
46706SOL     OW44674   2.869   2.690   6.229  0.2838 -0.5575  0.8137
46706SOL    HW144675   2.950   2.671   6.180  0.5734 -0.8504  1.3964
46706SOL    HW244676   2.805   2.711   6.161  0.7802 -0.5813  0.3259
46707SOL     OW44677  10.114   2.544   6.252 -0.2048 -0.4827  0.1360
46707SOL    HW144678  10.180   2.476   6.263 -0.8387 -1.2011 -0.4177
46707SOL    HW244679  10.138   2.588   6.170  1.0946  1.0006  1.2545
46708SOL     OW44680   0.930   0.519   5.269  0.8156  0.2230 -0.0388
46708SOL    HW144681   0.962   0.607   5.291  1.1072  1.6238 -4.9277
46708SOL    HW244682   1.008   0.470   5.245  0.3247  0.0436 -1.3517
46709SOL     OW44683   2.804   6.111   7.967  0.3595 -0.0597 -0.0803
46709SOL    HW144684   2.845   6.026   7.950 -1.9393 -1.0912 -0.8189
46709SOL    HW244685   2.836   6.167   7.897  1.4059 -0.4697  0.0441
46710SOL     OW44686  10.894   2.430   2.654 -0.0849  0.2353  0.3439
46710SOL    HW144687  10.800   2.414   2.646 -0.0121  0.3776 -0.9436
46710SOL    HW244688  10.934   2.344   2.640  0.0028  0.2927  0.2444
46711SOL     OW44689   5.095  10.656   1.582 -0.1839  0.1709 -0.0937
46711SOL    HW144690   5.114  10.747   1.559 -1.9499  0.5817 -0.0740
46711SOL    HW244691   5.178  10.611   1.572  0.6432  1.7132 -0.4794
46712SOL     OW44692   1.578   2.213   9.396 -0.2504 -0.0150  0.3566
46712SOL    HW144693   1.634   2.263   9.337  0.3479 -0.6373  0.3776
46712SOL    HW244694   1.524   2.159   9.339  1.5922 -1.9783  0.3422
46713SOL     OW44695   6.484   0.477   3.868  0.3740  0.2484  0.4344
46713SOL    HW144696   6.429   0.400   3.875  0.8566 -0.0715  0.8008
46713SOL    HW244697   6.452   0.523   3.791  0.5320 -0.6912 -0.2109
46714SOL     OW44698   7.528   8.820   5.841  0.2810  0.2707 -0.0055
46714SOL    HW144699   7.553   8.850   5.753 -0.5174  0.6925 -0.0955
46714SOL    HW244700   7.444   8.777   5.829  0.0952  0.4630  0.5806
46715SOL     OW44701   9.368   1.647   4.815 -0.1985  0.8756 -0.0555
46715SOL    HW144702   9.410   1.584   4.755  1.1390  0.7078  0.9934
46715SOL    HW244703   9.423   1.725   4.809 -0.1826  0.9339  0.7563
46716SOL     OW44704   9.082   4.775   2.120  0.4629 -0.3445  0.6220
46716SOL    HW144705   9.029   4.702   2.088  2.0247 -1.6445  0.8844
46716SOL    HW244706   9.049   4.790   2.209 -2.2429  1.6798 -0.5840
46717SOL     OW44707   2.972   1.851   3.171 -0.2439 -0.0384  0.1019
46717SOL    HW144708   2.970   1.762   3.207  1.8724 -0.3365 -0.4020
46717SOL    HW244709   2.965   1.838   3.076 -1.0486  0.4204  0.0922
46718SOL     OW44710   9.092   6.307   0.136 -0.1778 -0.0466 -0.2050
46718SOL    HW144711   9.039   6.232   0.163  0.1990 -1.2377 -2.5879
46718SOL    HW244712   9.177   6.293   0.178 -0.4928 -0.2628  0.3741
46719SOL     OW44713  11.481  10.537   0.549  0.7193  0.6505 -0.2767
46719SOL    HW144714  11.473  10.557   0.643 -0.4789 -0.8401 -0.0273
46719SOL    HW244715  11.421  10.598   0.506  0.8609  0.9712 -0.0208
46720SOL     OW44716   6.732  10.498   0.094  0.2188  0.3673 -0.2518
46720SOL    HW144717   6.746  10.578   0.144  0.7462 -0.2343  0.5974
46720SOL    HW244718   6.638  10.496   0.077  0.0526  0.6637  0.5842
46721SOL     OW44719   2.656   6.630   5.440 -0.0675 -0.0365 -0.1567
46721SOL    HW144720   2.648   6.640   5.535  0.6857  1.0114 -0.1830
46721SOL    HW244721   2.697   6.711   5.411  0.6161 -0.7516 -1.2676
46722SOL     OW44722   7.470   2.706   1.107  0.1979  0.1705  0.2005
46722SOL    HW144723   7.418   2.729   1.184  0.0577 -0.7499  0.3850
46722SOL    HW244724   7.535   2.644   1.139 -0.7264 -1.3086 -0.6553
46723SOL     OW44725   0.681   8.320   8.099 -0.2920 -0.1671 -0.3171
46723SOL    HW144726   0.608   8.380   8.113  0.1045  0.4884 -0.9446
46723SOL    HW244727   0.679   8.260   8.173 -1.0930  0.2267 -0.0192
46724SOL     OW44728   9.206   9.260  10.887  0.2218  0.1780 -0.0410
46724SOL    HW144729   9.117   9.290  10.869  0.4031 -0.3115 -1.9584
46724SOL    HW244730   9.195   9.171  10.920  0.0473 -0.9764 -2.9400
46725SOL     OW44731   3.076   6.262   5.812  0.4989  0.3540  0.1029
46725SOL    HW144732   3.130   6.331   5.851  0.2619 -0.5589  2.1918
46725SOL    HW244733   3.134   6.219   5.750  1.2890  1.1646  0.2471
46726SOL     OW44734   8.223   7.989   3.548  0.2478 -0.0283 -0.1930
46726SOL    HW144735   8.167   7.968   3.473 -0.3442  0.2759  0.1578
46726SOL    HW244736   8.298   7.929   3.539 -1.3952 -2.3782  0.8100
46727SOL     OW44737   5.140  10.133   7.107  0.2586  0.1002  0.0861
46727SOL    HW144738   5.182  10.218   7.095  1.7229 -0.2030  2.4021
46727SOL    HW244739   5.191  10.091   7.176 -2.5308 -1.2590  1.4752
46728SOL     OW44740   1.689   1.295   8.960  0.1949  0.2029 -0.3586
46728SOL    HW144741   1.743   1.370   8.986  0.3409  0.4247 -1.2810
46728SOL    HW244742   1.743   1.219   8.982 -0.1973  0.3295  1.1412
46729SOL     OW44743   8.008  11.198   1.703 -0.4002 -0.4236  0.4975
46729SOL    HW144744   8.031  11.129   1.641  2.1994  0.8739 -0.1160
46729SOL    HW244745   7.986  11.274   1.648  0.4604  0.3141  1.1459
46730SOL     OW44746   2.627   8.308  11.180  0.5650  0.2769 -0.0177
46730SOL    HW144747   2.592   8.229  11.221 -0.1775  0.1429 -0.8898
46730SOL    HW244748   2.555   8.341  11.126  0.4400  2.2253  1.2567
46731SOL     OW44749   8.491  10.882   4.261  0.2774  0.1902  0.2151
46731SOL    HW144750   8.523  10.838   4.340 -2.6958 -1.1446  0.8267
46731SOL    HW244751   8.524  10.830   4.188  0.4097 -0.4517  0.7270
46732SOL     OW44752   3.243   2.392   4.547  0.5421  0.4009 -0.5726
46732SOL    HW144753   3.202   2.389   4.633 -1.4046  0.1992 -1.4350
46732SOL    HW244754   3.242   2.301   4.517  0.9805  0.4988 -0.8891
46733SOL     OW44755   8.013   3.386   4.796 -0.3096 -0.3832 -0.2417
46733SOL    HW144756   8.076   3.458   4.806 -0.7103  0.4283 -2.8300
46733SOL    HW244757   8.062   3.319   4.749 -0.7086 -0.7130 -0.1845
46734SOL     OW44758   9.672   6.568   9.586 -0.9565 -0.1635  0.2092
46734SOL    HW144759   9.757   6.559   9.542 -1.3468 -2.5665 -0.2012
46734SOL    HW244760   9.614   6.604   9.520 -0.5813  0.2022  0.0716
46735SOL     OW44761   6.358   2.662  10.926  0.1537 -0.5148  0.1641
46735SOL    HW144762   6.438   2.696  10.884 -1.3101  0.8134 -1.7281
46735SOL    HW244763   6.326   2.595  10.866 -0.7714 -0.2124  0.3015
46736SOL     OW44764   0.709   5.295   6.112  0.3478 -0.5079 -0.3016
46736SOL    HW144765   0.742   5.205   6.115  0.5172 -0.5051 -1.3831
46736SOL    HW244766   0.748   5.332   6.032 -0.4813  0.2157 -0.3907
46737SOL     OW44767  11.146   8.473   9.755 -0.1988 -0.3553  0.0507
46737SOL    HW144768  11.063   8.494   9.799 -2.3553  0.1573 -3.8213
46737SOL    HW244769  11.152   8.378   9.762  0.5715 -0.1794  2.9189
46738SOL     OW44770   4.735   7.851  11.127 -0.2853  0.1682 -0.0228
46738SOL    HW144771   4.755   7.871  11.035 -1.5721 -0.3779 -0.4423
46738SOL    HW244772   4.672   7.779  11.123  1.0408 -1.1598  1.3408
46739SOL     OW44773   2.318   5.449   8.476  0.3599  0.0531  0.5412
46739SOL    HW144774   2.354   5.500   8.548 -1.2231  1.0928  0.6532
46739SOL    HW244775   2.352   5.360   8.489  1.0097  0.4828  1.8980
46740SOL     OW44776   0.971   0.803   7.628 -0.0094 -0.1296 -0.8149
46740SOL    HW144777   0.903   0.737   7.642  0.7383 -0.6023  0.8134
46740SOL    HW244778   1.033   0.762   7.568 -0.2514 -0.3654 -0.9080
46741SOL     OW44779   6.347   5.911   4.359  0.0725 -0.2249 -0.1736
46741SOL    HW144780   6.332   5.863   4.277 -0.4898  0.8695 -0.7352
46741SOL    HW244781   6.359   6.002   4.331 -0.9746  0.3052  1.0320
46742SOL     OW44782   4.045   5.772   9.686  0.4253  0.6305 -0.2982
46742SOL    HW144783   4.086   5.715   9.751  0.2526  1.0248  0.1680
46742SOL    HW244784   4.111   5.838   9.666  0.4822  0.5035 -0.5361
46743SOL     OW44785   6.769   6.561   2.922  0.2169  0.0751  0.2999
46743SOL    HW144786   6.835   6.629   2.939  0.6305 -0.5162  1.0896
46743SOL    HW244787   6.819   6.488   2.886 -0.4412  0.7755 -2.3100
46744SOL     OW44788   4.914  10.725  10.184 -0.2976 -0.1053 -0.3184
46744SOL    HW144789   4.950  10.800  10.230  0.8261 -0.9915  0.2856
46744SOL    HW244790   4.889  10.759  10.098  1.2103  0.7237 -0.4549
46745SOL     OW44791   2.447   2.029  11.974  0.6252 -0.2239  0.2334
46745SOL    HW144792   2.511   2.077  12.028 -1.1029  0.8068  1.4549
46745SOL    HW244793   2.369   2.024  12.028 -0.7772 -0.3245 -1.7029
46746SOL     OW44794   1.094   4.815   5.280  0.2911 -0.3111 -0.2688
46746SOL    HW144795   1.044   4.884   5.237 -0.1970 -1.7129 -2.0649
46746SOL    HW244796   1.165   4.861   5.326 -0.9158  1.4684 -0.1041
46747SOL     OW44797   7.061  10.985   3.671 -0.3800 -0.0271 -0.0896
46747SOL    HW144798   7.124  11.049   3.705  0.0434  0.1979 -1.2564
46747SOL    HW244799   7.000  11.037   3.618 -0.1943 -0.5434 -0.8234
46748SOL     OW44800   6.487  11.739   4.696 -0.0486 -0.2340  0.6377
46748SOL    HW144801   6.523  11.802   4.634  0.4332 -0.3368  0.8100
46748SOL    HW244802   6.397  11.770   4.711  0.6089  1.2476  1.7952
46749SOL     OW44803   6.143  11.872   1.561 -0.2401  0.1312  0.0631
46749SOL    HW144804   6.139  11.804   1.628  1.7617 -0.0806  0.0468
46749SOL    HW244805   6.108  11.950   1.603 -1.7215 -0.6802  0.3754
46750SOL     OW44806   6.065   9.235   6.446 -0.3191  0.3081 -0.1239
46750SOL    HW144807   6.147   9.279   6.469  0.7594 -1.0507 -1.1582
46750SOL    HW244808   6.093   9.150   6.410 -2.1934 -0.2306 -0.4150
46751SOL     OW44809  11.455   6.550   7.084 -0.1406 -0.6930  0.4085
46751SOL    HW144810  11.535   6.498   7.076  1.2410  1.4643 -0.7049
46751SOL    HW244811  11.477   6.634   7.044 -2.0286  1.0290  2.7369
46752SOL     OW44812   7.601   7.023  11.608  0.1556  0.5529 -0.0629
46752SOL    HW144813   7.662   6.967  11.560  0.5990  1.4006 -0.5033
46752SOL    HW244814   7.546   7.062  11.540  0.1990  1.0684  0.1916
46753SOL     OW44815   2.839   0.420   5.029  0.0530  0.2727 -0.4421
46753SOL    HW144816   2.798   0.383   4.951  2.1956  0.8474 -1.9392
46753SOL    HW244817   2.771   0.416   5.096 -0.8259 -3.4074 -1.3517
46754SOL     OW44818   6.568   5.455   9.419 -0.6590  0.0792 -0.9652
46754SOL    HW144819   6.593   5.393   9.350 -1.3007 -0.5405 -0.6637
46754SOL    HW244820   6.606   5.538   9.392 -0.3705 -0.2956 -1.7463
46755SOL     OW44821   5.610   1.128   2.807 -0.9031 -0.1924 -0.3358
46755SOL    HW144822   5.524   1.169   2.796 -0.7046  0.3047 -0.0833
46755SOL    HW244823   5.594   1.035   2.796 -1.5821 -0.1619  0.2939
46756SOL     OW44824   9.104  10.480   3.287 -0.0019  0.0978  0.0168
46756SOL    HW144825   9.071  10.533   3.359 -1.5839  0.8213 -1.1754
46756SOL    HW244826   9.101  10.538   3.211  0.0313 -1.1222 -0.9553
46757SOL     OW44827   5.159  11.638   2.772 -0.0236  0.1095 -0.5595
46757SOL    HW144828   5.098  11.616   2.702 -1.9411  0.0966  1.0209
46757SOL    HW244829   5.129  11.587   2.847  1.2824  0.9269  0.5678
46758SOL     OW44830   3.824   1.073   8.989 -0.0553 -0.0472 -0.7266
46758SOL    HW144831   3.837   1.082   8.894 -1.6422 -0.1105 -0.9747
46758SOL    HW244832   3.833   0.979   9.005  0.6991  0.0190 -0.7230
46759SOL     OW44833  11.862   9.564   4.040  0.2614  0.5991  0.3485
46759SOL    HW144834  11.885   9.635   4.099 -1.3071  1.7989 -0.4036
46759SOL    HW244835  11.767   9.556   4.048  0.2397 -0.4514 -0.6477
46760SOL     OW44836   5.120   4.759   2.840  0.3315 -0.7462 -0.1645
46760SOL    HW144837   5.065   4.715   2.905  1.7770 -0.3851  1.3714
46760SOL    HW244838   5.120   4.851   2.866  0.9137 -0.5881 -0.6911
46761SOL     OW44839   3.011   1.415   3.075  0.0921  0.6085  0.9825
46761SOL    HW144840   3.008   1.325   3.108 -2.8905  0.3814  0.3590
46761SOL    HW244841   3.104   1.433   3.063  0.8659 -1.8357  2.5690
46762SOL     OW44842  10.463   1.295   9.868  0.7889  0.2707  0.1779
46762SOL    HW144843  10.385   1.249   9.836  1.0006 -0.5167  0.7738
46762SOL    HW244844  10.510   1.321   9.788  1.7534 -2.4275 -0.2292
46763SOL     OW44845   6.371  11.078   4.756 -0.0911  0.3895 -0.3349
46763SOL    HW144846   6.292  11.036   4.790 -0.6770  1.2906 -0.5503
46763SOL    HW244847   6.356  11.086   4.662  1.0035 -0.9739 -0.6658
46764SOL     OW44848   0.760   3.458   3.770  0.5823  0.2409 -0.2808
46764SOL    HW144849   0.806   3.446   3.687  0.2667 -1.2372 -0.2763
46764SOL    HW244850   0.828   3.456   3.836  0.6121 -1.2710 -0.3236
46765SOL     OW44851   4.689   6.624   2.030 -0.0153  0.3203 -0.3508
46765SOL    HW144852   4.760   6.688   2.038 -0.9347  1.1776  1.7038
46765SOL    HW244853   4.734   6.540   2.019  1.3429  0.8617  0.7396
46766SOL     OW44854   0.158   2.375   9.800  0.2652  0.0274 -0.0215
46766SOL    HW144855   0.179   2.381   9.707 -0.9630 -0.8206 -0.3816
46766SOL    HW244856   0.152   2.281   9.817  1.6811  0.1375  1.2205
46767SOL     OW44857   4.099   2.823  10.205 -0.0168  0.2255 -0.1817
46767SOL    HW144858   4.107   2.740  10.251 -2.2702  0.1305  0.1484
46767SOL    HW244859   4.082   2.888  10.273 -0.5161  0.5584 -0.6063
46768SOL     OW44860   5.901   8.692  10.862  0.1528  0.0487  0.1653
46768SOL    HW144861   5.806   8.690  10.866  0.2228 -0.8044  2.7622
46768SOL    HW244862   5.924   8.621  10.802 -0.8321 -0.9477  0.9204
46769SOL     OW44863   6.281  11.600   3.106 -0.0950 -0.5281 -0.1321
46769SOL    HW144864   6.270  11.591   3.200 -0.7126  0.6482 -0.0663
46769SOL    HW244865   6.194  11.624   3.074  0.1696 -0.6426 -0.9598
46770SOL     OW44866   3.465  12.076   7.719 -0.5610 -0.4343 -0.6706
46770SOL    HW144867   3.480  12.119   7.635 -0.0334 -1.7534 -1.2747
46770SOL    HW244868   3.553  12.068   7.757 -0.8456  0.6563  0.2949
46771SOL     OW44869   9.956   7.605  10.221  0.4865  0.6201 -0.1739
46771SOL    HW144870   9.892   7.592  10.151 -1.1268  2.6976  0.8148
46771SOL    HW244871   9.908   7.583  10.301  1.4118  1.0099  0.4981
46772SOL     OW44872   0.608   4.633   9.246  0.3896 -0.0489  0.1092
46772SOL    HW144873   0.568   4.669   9.166  0.3885 -2.2609 -0.9705
46772SOL    HW244874   0.607   4.538   9.232  1.1022 -0.4568  2.4363
46773SOL     OW44875  11.644  11.356   5.121  0.0313  0.4455  0.2582
46773SOL    HW144876  11.645  11.395   5.208 -2.3070  0.0749  0.4953
46773SOL    HW244877  11.640  11.262   5.137  0.8755  0.3025 -0.2832
46774SOL     OW44878  10.499  10.056   4.141  0.4186  0.2160  0.2541
46774SOL    HW144879  10.478   9.963   4.131 -1.1146  0.3172  1.9680
46774SOL    HW244880  10.463  10.097   4.062  1.6171 -0.6886 -0.7912
46775SOL     OW44881   2.519   6.135   9.219  0.1359 -0.0709  0.0049
46775SOL    HW144882   2.597   6.093   9.184  0.5069  0.2879  0.3888
46775SOL    HW244883   2.455   6.064   9.227 -0.1648 -0.0616 -1.9250
46776SOL     OW44884   2.842   3.081  10.575  0.4270  0.3371 -0.7449
46776SOL    HW144885   2.933   3.065  10.599  0.5412  0.9019 -0.7854
46776SOL    HW244886   2.805   3.126  10.651  0.0935 -0.1697 -0.6014
46777SOL     OW44887  10.603   5.200   8.530 -0.0353 -0.0349 -0.2844
46777SOL    HW144888  10.569   5.124   8.577  0.0545 -1.0606 -1.7998
46777SOL    HW244889  10.618   5.266   8.598  1.0716 -1.7916  1.2664
46778SOL     OW44890   4.130  10.752   9.032  0.1330  0.0585  0.5007
46778SOL    HW144891   4.196  10.811   8.995  0.3394 -0.1579  0.5274
46778SOL    HW244892   4.085  10.806   9.097 -3.2508  1.9766 -2.9696
46779SOL     OW44893   8.095   8.271   7.241  0.6914  0.4536  0.0077
46779SOL    HW144894   8.074   8.233   7.156  0.5341 -1.3086  0.7874
46779SOL    HW244895   8.027   8.337   7.256  0.9638  1.0930 -1.3877
46780SOL     OW44896   8.419   9.668  10.048  0.2537 -0.0488 -0.5373
46780SOL    HW144897   8.353   9.674   9.979  0.6761  0.8415 -0.8767
46780SOL    HW244898   8.503   9.678  10.002  0.6211 -0.8921 -0.0806
46781SOL     OW44899   7.964  10.627   5.187  0.0535 -0.0213  0.0524
46781SOL    HW144900   7.879  10.628   5.142  0.8216 -0.7734 -1.5203
46781SOL    HW244901   7.959  10.700   5.248 -2.1559 -0.7675  0.8815
46782SOL     OW44902   9.929   4.771   4.501 -0.2300  0.3180  0.0024
46782SOL    HW144903   9.837   4.746   4.504 -0.1504 -0.3656 -1.6974
46782SOL    HW244904   9.974   4.694   4.464  1.0617  0.5551  0.9965
46783SOL     OW44905  10.122   0.463   6.413 -0.4338  0.0646  0.2776
46783SOL    HW144906  10.132   0.557   6.427  2.7339  0.1493 -1.5728
46783SOL    HW244907  10.206   0.435   6.376 -0.8466 -3.7269  1.7405
46784SOL     OW44908   7.410  11.129   9.203  0.6270 -0.3853 -0.4060
46784SOL    HW144909   7.338  11.125   9.140 -0.8139 -1.4559  1.2284
46784SOL    HW244910   7.442  11.039   9.209  1.8723  0.0068 -0.7978
46785SOL     OW44911   1.007   9.391   8.657 -0.1638  0.3820 -0.4596
46785SOL    HW144912   0.972   9.392   8.568 -1.1072  0.7524 -0.0962
46785SOL    HW244913   1.083   9.448   8.654 -1.3712  2.0555 -0.5863
46786SOL     OW44914   9.688   9.994   6.850  0.5020 -0.0886  0.0605
46786SOL    HW144915   9.718   9.920   6.903 -0.7042 -0.4122  0.3061
46786SOL    HW244916   9.689  10.068   6.909  1.2054 -0.0079 -0.0444
46787SOL     OW44917   3.627   7.721   6.006 -0.3548 -0.4726  0.0113
46787SOL    HW144918   3.666   7.808   5.996  1.3297 -1.2666 -0.7648
46787SOL    HW244919   3.676   7.666   5.946 -2.4023 -1.6800 -0.6585
46788SOL     OW44920   1.288  11.553  11.379  0.3668  0.1229 -0.1330
46788SOL    HW144921   1.269  11.646  11.395 -2.0256 -0.1927 -0.8607
46788SOL    HW244922   1.249  11.507  11.453  1.7873 -0.3333  0.3717
46789SOL     OW44923   3.775   3.263   2.915 -0.3554  0.2894  0.2623
46789SOL    HW144924   3.685   3.260   2.885  0.1106 -1.2128 -1.0731
46789SOL    HW244925   3.792   3.177   2.954  0.6842  0.3250 -0.0696
46790SOL     OW44926   1.089   9.109   8.645 -0.2415  0.8170  0.1350
46790SOL    HW144927   1.050   9.197   8.648  1.1279  1.4564  0.1203
46790SOL    HW244928   1.135   9.100   8.728  0.3119  0.4534 -0.2008
46791SOL     OW44929   7.494  10.112   6.898  0.4715 -0.0536  0.3670
46791SOL    HW144930   7.445  10.182   6.853  1.5501  0.9253  0.6803
46791SOL    HW244931   7.464  10.117   6.989 -1.4545 -1.8114 -0.0951
46792SOL     OW44932   5.863   4.158   4.094  0.1905  0.1966  0.3177
46792SOL    HW144933   5.769   4.173   4.106  0.0911  0.3066 -0.5415
46792SOL    HW244934   5.897   4.146   4.183 -0.8352 -1.0652  0.5675
46793SOL     OW44935   3.232  10.299   4.436  0.6351 -0.2789 -0.7154
46793SOL    HW144936   3.174  10.246   4.381  0.4478 -0.5555 -0.2643
46793SOL    HW244937   3.183  10.308   4.518  1.3504 -0.7595 -0.2267
46794SOL     OW44938   7.461   7.280   5.258 -0.3896  0.1079 -0.3758
46794SOL    HW144939   7.482   7.362   5.214 -0.6655 -0.5644 -1.8377
46794SOL    HW244940   7.464   7.214   5.188  2.0434 -1.5342  1.1346
46795SOL     OW44941   9.683   8.518  10.458  0.2020 -0.4453 -0.5433
46795SOL    HW144942   9.601   8.519  10.507 -0.1511 -1.9591 -1.0372
46795SOL    HW244943   9.748   8.484  10.521  0.0853 -0.8415 -0.6306
46796SOL     OW44944   7.063   5.543   2.594 -0.0782 -0.0817 -0.1426
46796SOL    HW144945   7.028   5.570   2.509 -1.9498 -0.8675  0.3387
46796SOL    HW244946   7.122   5.614   2.619  0.0601  0.4333 -1.8177
46797SOL     OW44947   8.508   5.804   2.833  0.4603 -0.1740 -0.2570
46797SOL    HW144948   8.529   5.754   2.754  1.9614 -1.8336  1.1081
46797SOL    HW244949   8.435   5.756   2.872  2.3656 -1.9348  1.4367
46798SOL     OW44950   8.378   4.786   1.838 -0.4424  0.3782 -0.4954
46798SOL    HW144951   8.378   4.694   1.812 -0.0783  0.3038 -0.2431
46798SOL    HW244952   8.298   4.822   1.799 -0.9617 -0.2095  0.0011
46799SOL     OW44953  12.016  11.388   3.670  0.2422 -0.4823  0.4171
46799SOL    HW144954  12.046  11.442   3.597 -2.8863 -1.1396 -1.5606
46799SOL    HW244955  12.015  11.447   3.745  2.3277  0.5768 -0.3022
46800SOL     OW44956   7.547   0.307   9.089  0.0920  0.1400  0.1528
46800SOL    HW144957   7.529   0.226   9.041  0.3661 -0.1711  0.5658
46800SOL    HW244958   7.465   0.327   9.133 -0.5457  1.1159 -1.4305
46801SOL     OW44959   5.429   7.904   1.263  0.0000 -0.1333 -0.4605
46801SOL    HW144960   5.339   7.901   1.229 -0.5264 -0.0116  0.8440
46801SOL    HW244961   5.442   7.817   1.301  0.4896 -0.1900 -0.7503
46802SOL     OW44962  10.045   5.239   7.175 -0.1777  0.1748 -0.0497
46802SOL    HW144963  10.027   5.327   7.140 -1.8126  0.4210  1.3349
46802SOL    HW244964   9.972   5.186   7.144  0.4617 -0.5622 -0.3130
46803SOL     OW44965   0.967   5.725   1.486  0.5110  0.1179 -0.7640
46803SOL    HW144966   0.960   5.796   1.423  0.2517 -0.1458 -1.0321
46803SOL    HW244967   0.994   5.649   1.434 -1.1151 -0.4608 -0.8199
46804SOL     OW44968   3.306   3.657   4.768 -0.5605 -0.1187  0.2424
46804SOL    HW144969   3.300   3.627   4.858  2.2549 -0.7524  0.2860
46804SOL    HW244970   3.290   3.578   4.716  0.7979 -0.4399  0.2737
46805SOL     OW44971   7.513  11.740   6.262  0.1789  0.0266 -0.0494
46805SOL    HW144972   7.581  11.676   6.285  0.5655  1.1640  2.2917
46805SOL    HW244973   7.432  11.703   6.297  0.0742 -0.0322 -0.3515
46806SOL     OW44974  10.494   7.109   8.824  0.2024  0.1050  0.0148
46806SOL    HW144975  10.438   7.031   8.829  0.4470 -0.0347  0.7935
46806SOL    HW244976  10.466   7.162   8.899  0.5970  0.3809 -0.0334
46807SOL     OW44977   5.074   7.369   3.735  0.1377 -0.2893  0.1264
46807SOL    HW144978   4.983   7.339   3.731 -0.5373  1.7350 -0.9535
46807SOL    HW244979   5.073   7.439   3.800  1.1271 -0.7992  0.7104
46808SOL     OW44980   6.120   8.148   8.245 -0.0822 -0.0672 -0.1887
46808SOL    HW144981   6.151   8.234   8.272 -0.1781  0.0322 -0.3922
46808SOL    HW244982   6.146   8.140   8.154 -0.7080  0.0433 -0.3801
46809SOL     OW44983   7.619   5.026   4.616 -0.0007  0.2562  0.3249
46809SOL    HW144984   7.555   4.965   4.653 -0.1387  0.3687  0.2716
46809SOL    HW244985   7.586   5.112   4.638  1.2803  0.3222  2.2683
46810SOL     OW44986   2.235   3.977   7.984  0.0350 -0.0918  0.4836
46810SOL    HW144987   2.324   4.013   7.985 -0.4329  1.1141  0.1203
46810SOL    HW244988   2.237   3.911   7.914  1.2058 -1.6524  1.8995
46811SOL     OW44989  11.375   0.318   2.549  0.3261 -0.8976 -0.5878
46811SOL    HW144990  11.408   0.254   2.612  2.4280 -0.0503 -0.7566
46811SOL    HW244991  11.296   0.354   2.590  1.6980 -0.2809  1.6427
46812SOL     OW44992  10.911   2.019   7.201  0.0567 -0.5988  0.3409
46812SOL    HW144993  10.954   1.993   7.119  0.0250  2.0803 -0.6406
46812SOL    HW244994  10.957   2.098   7.228 -2.3906  0.7773  0.7670
46813SOL     OW44995   0.020   2.100   9.006  0.1348  0.0203 -0.1128
46813SOL    HW144996  -0.061   2.135   9.043  0.3070 -0.3597  0.6560
46813SOL    HW244997   0.030   2.144   8.922  0.4086  1.8951  0.8477
46814SOL     OW44998   9.776   3.024   7.573 -0.1322 -0.1223  0.4348
46814SOL    HW144999   9.778   3.089   7.643 -3.7424  0.4200  0.2376
46814SOL    HW245000   9.707   3.055   7.514  0.0588 -2.6233 -1.2515
46815SOL     OW45001  11.884  11.674   7.320 -0.3592  0.3671  0.3958
46815SOL    HW145002  11.900  11.708   7.408  1.1967 -0.8653  0.6417
46815SOL    HW245003  11.812  11.612   7.331 -0.3966  0.4676  0.7327
46816SOL     OW45004   9.741   7.504   9.597  0.2367  0.3746  0.2564
46816SOL    HW145005   9.653   7.510   9.559  0.2793  0.2302  0.1350
46816SOL    HW245006   9.727   7.510   9.692  0.2540  2.3201  0.1706
46817SOL     OW45007  11.183   9.619   7.028 -0.7299  0.6504  0.3838
46817SOL    HW145008  11.250   9.559   7.062 -1.7678 -0.1726  1.0286
46817SOL    HW245009  11.100   9.576   7.046 -1.4090  0.2141 -3.1106
46818SOL     OW45010   4.255   6.109   5.280 -0.6328 -0.2826  0.3860
46818SOL    HW145011   4.228   6.069   5.363  0.3717 -1.2091  0.2781
46818SOL    HW245012   4.247   6.203   5.296 -1.5566 -0.4699  1.1465
46819SOL     OW45013   4.249   2.647  10.718 -0.3176 -0.2429 -0.1394
46819SOL    HW145014   4.243   2.577  10.783 -2.0656 -0.2471 -0.2521
46819SOL    HW245015   4.308   2.612  10.651  1.2963 -0.3475  1.2533
46820SOL     OW45016   6.920   3.451   1.161 -0.1430  0.0211  0.2084
46820SOL    HW145017   6.962   3.460   1.247  0.4909  0.5568 -0.1523
46820SOL    HW245018   6.866   3.529   1.152 -2.2422 -1.2301  1.1951
46821SOL     OW45019   3.306   6.396   7.836  0.1970 -0.0240 -0.0466
46821SOL    HW145020   3.331   6.480   7.874  2.1247  0.1361 -1.5215
46821SOL    HW245021   3.285   6.341   7.912  2.5582  0.7065  1.2447
46822SOL     OW45022   5.767   0.166   3.107 -0.3207 -0.3128 -0.5254
46822SOL    HW145023   5.744   0.186   3.198  0.5678 -0.5812 -0.2226
46822SOL    HW245024   5.803   0.247   3.073  0.4381 -0.5264 -0.2579
46823SOL     OW45025   9.180  11.462   4.174 -0.2127 -0.6658 -0.0911
46823SOL    HW145026   9.214  11.386   4.127  0.0074 -0.6658  0.0652
46823SOL    HW245027   9.228  11.537   4.138  1.2793 -0.8571  1.3666
46824SOL     OW45028   1.243  10.360   8.967  0.4102  0.0801  0.4667
46824SOL    HW145029   1.262  10.295   9.035 -0.6255 -0.6282  0.1081
46824SOL    HW245030   1.229  10.307   8.888  1.1134  0.8598 -0.1990
46825SOL     OW45031  10.072   6.921   1.249 -0.2188 -0.5215  0.2511
46825SOL    HW145032  10.149   6.915   1.306 -0.4860  0.2991  0.7218
46825SOL    HW245033  10.015   6.984   1.293 -1.3004 -1.3306  0.0666
46826SOL     OW45034   8.377   8.166  10.390 -0.1897  0.2856 -0.1728
46826SOL    HW145035   8.365   8.234  10.456  1.1524 -2.2031  2.9442
46826SOL    HW245036   8.466   8.180  10.357 -0.4694  0.9024 -0.6775
46827SOL     OW45037   9.273   6.810   4.930  0.3464 -0.6451 -0.3790
46827SOL    HW145038   9.304   6.887   4.882 -0.7836 -1.6925 -2.9517
46827SOL    HW245039   9.234   6.846   5.010  0.2798  1.4297 -1.2715
46828SOL     OW45040   4.253  11.481   3.087 -0.0164  0.5436  0.0723
46828SOL    HW145041   4.246  11.555   3.148  1.5718 -0.3533  1.4372
46828SOL    HW245042   4.296  11.517   3.010 -0.3798  1.3010  0.2151
46829SOL     OW45043   9.708   5.421   9.330 -0.1192 -0.0352  0.5201
46829SOL    HW145044   9.617   5.406   9.356 -1.4198  0.8667 -2.8579
46829SOL    HW245045   9.709   5.400   9.236  3.4758 -1.0787  0.6617
46830SOL     OW45046   4.582   1.259   6.627 -0.2967 -0.1577 -0.4019
46830SOL    HW145047   4.526   1.269   6.704  1.7578 -2.3237  1.5133
46830SOL    HW245048   4.588   1.348   6.591 -0.5961  1.1488  2.4905
46831SOL     OW45049   9.322   7.726   5.250  0.0095  0.4434 -0.7034
46831SOL    HW145050   9.360   7.806   5.214 -0.2050  1.1163  0.5094
46831SOL    HW245051   9.392   7.689   5.305  0.1354 -0.2600 -1.3164
46832SOL     OW45052   6.471   4.582   7.529  0.0573 -0.1920  0.0054
46832SOL    HW145053   6.517   4.653   7.573  0.2414  0.2418 -0.8677
46832SOL    HW245054   6.523   4.564   7.451 -1.3721  0.4721 -1.1332
46833SOL     OW45055   5.382   9.423   3.298  0.1798  0.3042  0.9498
46833SOL    HW145056   5.319   9.362   3.257 -1.1651  0.6291  2.4205
46833SOL    HW245057   5.386   9.497   3.238 -0.0962 -0.1566  0.3485
46834SOL     OW45058   8.029   4.957   5.987 -0.1623 -0.1669  0.8272
46834SOL    HW145059   8.113   4.960   6.033 -0.5628 -1.9322  1.7668
46834SOL    HW245060   8.008   5.049   5.969  2.5398  0.2747 -0.5535
46835SOL     OW45061   2.966   0.656   1.881  0.0924  0.2295  0.1736
46835SOL    HW145062   3.029   0.656   1.952  0.1319  0.8947  0.1417
46835SOL    HW245063   3.011   0.698   1.808  0.2151 -0.8486 -0.4029
46836SOL     OW45064  10.332   4.025   5.284 -0.2958 -0.4125 -0.1547
46836SOL    HW145065  10.348   3.963   5.213 -0.2379  1.0290 -1.4484
46836SOL    HW245066  10.416   4.034   5.327  0.1103  0.0074 -1.0111
46837SOL     OW45067   9.342   6.295  11.316 -0.3220 -0.1056  0.1808
46837SOL    HW145068   9.305   6.374  11.355 -0.2062  0.3002 -0.5110
46837SOL    HW245069   9.429   6.287  11.355  0.4049  1.1533 -1.0766
46838SOL     OW45070   4.794   5.631   9.902  0.2234  0.3852  0.1049
46838SOL    HW145071   4.750   5.590   9.976  1.2370 -3.0580 -0.9824
46838SOL    HW245072   4.847   5.560   9.864  1.8572  2.6973 -2.2846
46839SOL     OW45073   2.451   1.110   4.527  0.1766 -0.3694 -0.4487
46839SOL    HW145074   2.377   1.103   4.467 -1.1855 -0.6881  1.1822
46839SOL    HW245075   2.484   1.020   4.535 -1.0481 -0.7539  0.8862
46840SOL     OW45076   8.310  12.124   5.466 -0.7355  0.7150 -0.3297
46840SOL    HW145077   8.336  12.173   5.544 -0.9663 -0.4272  0.4913
46840SOL    HW245078   8.388  12.124   5.411  0.0279 -0.0133  0.7186
46841SOL     OW45079   4.990   3.563   4.642  0.1219 -0.6778 -0.5544
46841SOL    HW145080   5.060   3.552   4.706 -1.4288  0.1887  1.3991
46841SOL    HW245081   5.035   3.570   4.558  2.2382 -1.8536  0.4184
46842SOL     OW45082   7.636   4.973   5.970 -0.0453 -0.4039  0.4498
46842SOL    HW145083   7.659   5.044   6.030 -2.1718  0.5626  0.2533
46842SOL    HW245084   7.563   4.928   6.012  0.5103 -1.7627  0.0201
46843SOL     OW45085   7.094   7.395   4.985 -0.0413  0.3667  0.3509
46843SOL    HW145086   7.082   7.482   5.022  1.3969  0.9330 -0.4484
46843SOL    HW245087   7.186   7.374   5.002 -0.2054 -0.7285 -0.0251
46844SOL     OW45088   5.757   1.399  11.565 -0.1033 -0.0130  0.2217
46844SOL    HW145089   5.729   1.462  11.498  0.5675 -0.7005 -0.7422
46844SOL    HW245090   5.677   1.351  11.588 -0.2487 -0.1200 -0.4841
46845SOL     OW45091   8.846   5.255   3.827 -0.1417 -1.2100 -0.1424
46845SOL    HW145092   8.807   5.335   3.791  1.0202 -0.4919  0.1112
46845SOL    HW245093   8.830   5.188   3.760  1.8517  0.0551 -2.0454
46846SOL     OW45094   4.271  12.107   1.296 -0.4378  0.4548  0.0585
46846SOL    HW145095   4.227  12.134   1.376  0.2743 -2.0313  1.4083
46846SOL    HW245096   4.204  12.064   1.244 -0.6609  1.0954 -0.1894
46847SOL     OW45097   9.976   2.038   2.883 -0.3625 -0.4116 -0.0085
46847SOL    HW145098   9.886   2.069   2.892 -0.3576  0.1539 -1.5989
46847SOL    HW245099   9.991   2.036   2.789  1.3829 -0.2145  0.2382
46848SOL     OW45100   5.377  11.136   3.464  0.5603 -0.3767 -0.5122
46848SOL    HW145101   5.448  11.102   3.518  0.0141 -1.3004 -0.3519
46848SOL    HW245102   5.318  11.178   3.527  0.3456 -0.7042 -0.4969
46849SOL     OW45103  11.838   8.121  10.289 -0.0241 -0.4615  0.0690
46849SOL    HW145104  11.843   8.214  10.266 -0.8500  0.0988  1.9716
46849SOL    HW245105  11.780   8.083  10.224  2.0961 -0.1730 -2.1226
46850SOL     OW45106   8.617   9.868   6.347 -0.1610 -0.0170  0.2834
46850SOL    HW145107   8.622   9.931   6.419  1.3354  1.2666 -0.8634
46850SOL    HW245108   8.645   9.786   6.386 -0.8568  0.2958  1.5126
46851SOL     OW45109   5.317   1.107   0.095  0.0624 -0.7398 -0.2573
46851SOL    HW145110   5.270   1.024   0.089  1.2766 -1.4108 -1.0474
46851SOL    HW245111   5.409   1.083   0.078  0.6350  0.5607  0.8779
46852SOL     OW45112   8.738   7.975   0.333 -0.2881 -0.1136 -0.3085
46852SOL    HW145113   8.703   8.008   0.250 -1.0510  0.0164  0.0497
46852SOL    HW245114   8.700   7.888   0.342  1.7534 -1.1675 -1.2656
46853SOL     OW45115   4.135   2.692   4.464  0.4474  0.7773  0.0045
46853SOL    HW145116   4.194   2.751   4.417  0.5994  0.0740 -0.7114
46853SOL    HW245117   4.150   2.606   4.424  0.7395  0.1040  1.4864
46854SOL     OW45118   7.786   6.201  11.364 -0.1849  0.3224 -0.1289
46854SOL    HW145119   7.824   6.121  11.327  0.2798  0.5986 -0.2678
46854SOL    HW245120   7.830   6.212  11.448  1.1236  1.4118 -0.9162
46855SOL     OW45121   2.785   9.680  10.246 -0.3182 -0.3745 -0.2107
46855SOL    HW145122   2.761   9.664  10.338 -1.1386 -2.8599 -0.7736
46855SOL    HW245123   2.870   9.636  10.236  0.0221  0.3451 -0.5395
46856SOL     OW45124   7.029   7.946   9.528  0.0311  0.1400 -0.3581
46856SOL    HW145125   6.976   8.003   9.472 -1.2367 -0.7140 -0.0532
46856SOL    HW245126   7.042   7.996   9.608  0.0363  0.5133 -0.5890
46857SOL     OW45127   0.581   4.711   8.504 -0.3643 -0.0681  0.2801
46857SOL    HW145128   0.620   4.627   8.528 -0.6692  0.1566  1.5994
46857SOL    HW245129   0.608   4.724   8.413 -0.9960 -1.9719 -0.2252
46858SOL     OW45130   3.566   9.993   2.472 -0.0713  0.3298  0.1466
46858SOL    HW145131   3.600   9.906   2.493  0.1901  0.1079 -1.1066
46858SOL    HW245132   3.599  10.049   2.542  0.7632 -0.3604  0.3283
46859SOL     OW45133   7.650   1.636   7.261 -0.4906 -0.2018  0.2226
46859SOL    HW145134   7.653   1.655   7.355 -1.5229  1.8131 -0.0932
46859SOL    HW245135   7.684   1.716   7.219 -0.5178 -0.8723 -1.1361
46860SOL     OW45136   9.242   1.862   4.353  0.0227 -0.2468  0.1495
46860SOL    HW145137   9.242   1.838   4.445  0.5473 -1.6165 -0.1838
46860SOL    HW245138   9.316   1.813   4.316  0.6095  1.2652 -0.7519
46861SOL     OW45139  11.009   3.404   1.051  0.0128  0.2945  0.2763
46861SOL    HW145140  11.052   3.405   1.137 -1.8902  1.2045  1.2831
46861SOL    HW245141  11.073   3.444   0.992  1.6461 -0.9951  1.0896
46862SOL     OW45142   9.611   4.236   2.067  0.3037  0.2426 -0.6747
46862SOL    HW145143   9.635   4.246   1.975  0.4476 -0.4556 -0.7211
46862SOL    HW245144   9.529   4.284   2.075 -0.9146 -1.5356 -1.7203
46863SOL     OW45145   2.743   0.669   5.444 -0.2596 -0.7756 -0.5560
46863SOL    HW145146   2.663   0.683   5.392 -2.1057  1.1510  2.4904
46863SOL    HW245147   2.782   0.756   5.452  0.8657 -1.3086 -0.0792
46864SOL     OW45148   8.871   2.359  11.236  0.1005 -0.1689  0.4169
46864SOL    HW145149   8.933   2.412  11.285  1.3342  0.9369 -2.1688
46864SOL    HW245150   8.787   2.405  11.245  0.0594 -0.4992  2.1407
46865SOL     OW45151   7.861   9.678   9.988  0.2834  0.4159  0.2756
46865SOL    HW145152   7.792   9.688   9.922  0.6844  0.7745 -0.0941
46865SOL    HW245153   7.814   9.679  10.071 -0.3736 -1.2451 -0.0286
46866SOL     OW45154  12.058   3.187   7.363 -0.4774  0.5886 -0.6553
46866SOL    HW145155  12.029   3.212   7.451 -0.8780 -0.5898 -0.4278
46866SOL    HW245156  11.979   3.152   7.321 -0.1086  0.3880 -1.1954
46867SOL     OW45157   8.020   0.610   5.084  0.5219  0.2040  0.3856
46867SOL    HW145158   7.947   0.670   5.099  0.6201  0.2929  0.5025
46867SOL    HW245159   8.085   0.634   5.149  0.8196  0.3849  0.0256
46868SOL     OW45160   5.722   9.379   0.174  0.1175  0.2574  0.5680
46868SOL    HW145161   5.808   9.384   0.133 -0.7181 -2.8510 -1.8962
46868SOL    HW245162   5.738   9.337   0.259  1.1348  1.0495  0.7884
46869SOL     OW45163   9.080   7.802   4.782  0.3027 -0.5606  0.1993
46869SOL    HW145164   9.016   7.742   4.822 -0.2803  0.4391  0.7991
46869SOL    HW245165   9.151   7.806   4.846  1.3331 -2.2127 -0.7738
46870SOL     OW45166  10.151  11.225   0.684  0.1899  0.2684 -0.5893
46870SOL    HW145167  10.229  11.208   0.736  1.2229 -1.2512 -2.4988
46870SOL    HW245168  10.141  11.147   0.629 -2.8450  0.2916 -0.2361
46871SOL     OW45169   3.794   0.297   7.161 -0.4979 -0.1095 -0.1107
46871SOL    HW145170   3.715   0.307   7.215 -0.2701  0.1082  0.1891
46871SOL    HW245171   3.767   0.320   7.073 -0.5573  0.8425  0.1493
46872SOL     OW45172   7.802   8.226   1.806 -0.0488 -0.0903  0.3117
46872SOL    HW145173   7.846   8.281   1.741  0.1187 -1.4902 -0.8098
46872SOL    HW245174   7.807   8.276   1.888 -2.3159  2.8196 -1.1382
46873SOL     OW45175   3.974  10.867  11.925  0.0762 -0.2889 -0.6944
46873SOL    HW145176   4.010  10.912  11.849  2.6964  0.2509  0.7342
46873SOL    HW245177   4.034  10.793  11.939  0.0206 -0.0308  1.1701
46874SOL     OW45178   5.612   0.985   5.429 -0.0824  0.5514  0.1630
46874SOL    HW145179   5.574   1.007   5.514  0.2795  1.7697  0.0407
46874SOL    HW245180   5.537   0.965   5.373 -0.5377  2.3084  0.0882
46875SOL     OW45181   2.580   2.556   4.895  0.2144  0.5645 -0.1767
46875SOL    HW145182   2.490   2.586   4.908  1.0607  2.8291  0.8315
46875SOL    HW245183   2.572   2.461   4.889 -2.2324  0.6932 -0.0708
46876SOL     OW45184   8.743   5.511   4.063 -0.9063  0.1752 -0.0455
46876SOL    HW145185   8.736   5.416   4.065  0.8380  0.0245  0.5077
46876SOL    HW245186   8.775   5.535   4.149 -1.4352  1.3014 -0.1328
46877SOL     OW45187   1.749   5.146   8.929 -0.1398  0.3727  0.6788
46877SOL    HW145188   1.752   5.160   8.835 -0.8387  0.3414  0.6470
46877SOL    HW245189   1.841   5.133   8.954 -0.1382 -2.3115 -0.4074
46878SOL     OW45190   9.282   7.614   8.912 -0.2540 -0.5071  0.2471
46878SOL    HW145191   9.236   7.532   8.927 -0.3694 -0.8692 -1.7832
46878SOL    HW245192   9.374   7.589   8.901 -0.0428 -0.1641  1.1662
46879SOL     OW45193   1.906   8.167   8.387 -0.7205 -0.2581 -0.8143
46879SOL    HW145194   1.828   8.219   8.366 -1.0779 -0.4084  0.0821
46879SOL    HW245195   1.879   8.112   8.460 -0.2824 -1.5645 -1.5959
46880SOL     OW45196   3.578   0.551   6.670 -0.0064  0.0285 -0.5004
46880SOL    HW145197   3.558   0.491   6.742  0.2380  0.7155  0.1571
46880SOL    HW245198   3.656   0.515   6.629 -0.3175 -0.5297 -0.6123
46881SOL     OW45199   1.383   8.440   6.037  0.1713  0.2658 -0.6848
46881SOL    HW145200   1.386   8.344   6.036  0.7019  0.2180  1.0396
46881SOL    HW245201   1.460   8.467   5.987  0.1758 -0.2261 -0.9474
46882SOL     OW45202   5.706   3.093   5.473 -0.3396 -0.1708  0.0533
46882SOL    HW145203   5.726   3.141   5.553  0.9205  1.6822 -1.3063
46882SOL    HW245204   5.768   3.126   5.408 -1.9855 -0.8331 -1.9854
46883SOL     OW45205  10.670   1.862  11.527 -0.1233 -0.0275  0.3598
46883SOL    HW145206  10.612   1.863  11.451  0.0731 -0.1005  0.2054
46883SOL    HW245207  10.732   1.934  11.511  0.1458 -0.2774  0.2665
46884SOL     OW45208   7.979   5.186   7.731 -0.2701  0.1896 -0.1800
46884SOL    HW145209   7.945   5.257   7.786 -0.8431 -1.5800  1.9450
46884SOL    HW245210   8.060   5.220   7.694 -0.0385  1.6324  1.5145
46885SOL     OW45211   7.944   3.424   9.142  0.1476  0.0083  0.5506
46885SOL    HW145212   7.985   3.477   9.210 -0.3988  0.0051  0.8907
46885SOL    HW245213   7.854   3.457   9.137  0.0141 -0.3889  0.2518
46886SOL     OW45214   6.428   3.769   3.465  0.0113  0.1893 -0.2052
46886SOL    HW145215   6.457   3.747   3.553  0.1515  0.0536 -0.2857
46886SOL    HW245216   6.351   3.824   3.478 -1.1158 -1.3554  0.0036
46887SOL     OW45217  10.388   9.952   5.924 -0.1855  0.1940  0.5423
46887SOL    HW145218  10.433   9.939   6.007 -0.4686 -0.3612  0.6137
46887SOL    HW245219  10.422  10.035   5.891 -0.1708  0.4892  1.2728
46888SOL     OW45220   4.633  11.131   8.723 -0.1591 -0.1538 -0.2274
46888SOL    HW145221   4.574  11.181   8.780  0.0065 -1.6152  1.3159
46888SOL    HW245222   4.658  11.192   8.654 -1.9591  1.0793  0.1531
46889SOL     OW45223   1.956  10.476   0.110  0.5882  0.2275 -0.0562
46889SOL    HW145224   1.971  10.498   0.018 -1.1288  0.6056 -0.2855
46889SOL    HW245225   1.972  10.557   0.158  0.2160  0.3776 -0.1830
46890SOL     OW45226   1.630   9.491   0.062 -0.0574 -0.4582  0.2947
46890SOL    HW145227   1.655   9.419   0.118 -1.5331 -1.5586 -0.3689
46890SOL    HW245228   1.643   9.458  -0.027 -0.3172  0.2447 -0.0160
46891SOL     OW45229   8.428   9.907   1.724 -0.9499  0.2699 -0.2257
46891SOL    HW145230   8.407   9.925   1.815 -2.3331 -1.5290 -0.1403
46891SOL    HW245231   8.349   9.930   1.675 -1.7166 -2.4806 -0.4361
46892SOL     OW45232  11.116   1.635   5.007  0.4042 -0.3211  0.0670
46892SOL    HW145233  11.094   1.674   5.091  1.4816  0.2223  0.1095
46892SOL    HW245234  11.212   1.629   5.007  0.4193 -0.3478 -1.0987
46893SOL     OW45235   3.932   8.919   5.942  0.9180 -0.5987  0.1038
46893SOL    HW145236   3.884   8.966   5.875  2.1371  1.7879  0.7813
46893SOL    HW245237   4.005   8.877   5.895 -0.2907 -2.0801 -0.5331
46894SOL     OW45238   4.209  10.369   3.190 -0.1554  0.6192  0.1507
46894SOL    HW145239   4.126  10.366   3.144 -0.2345  0.1336  0.3182
46894SOL    HW245240   4.188  10.346   3.281  0.0006  1.5429  0.4303
46895SOL     OW45241  11.316   6.029   5.614 -0.0602 -0.4344 -0.0515
46895SOL    HW145242  11.322   6.124   5.608 -1.2013 -0.4177 -2.1120
46895SOL    HW245243  11.379   6.005   5.682  1.8202  1.5996 -0.9350
46896SOL     OW45244   1.001   0.540   4.087  0.3314  0.5560 -0.3276
46896SOL    HW145245   1.081   0.586   4.059  0.9389 -0.7409 -0.8056
46896SOL    HW245246   0.981   0.578   4.172  2.2193  0.0292  0.4131
46897SOL     OW45247   3.223   3.294   8.693 -0.5498  0.1819 -0.5620
46897SOL    HW145248   3.221   3.304   8.598 -1.6312 -0.3905 -0.6065
46897SOL    HW245249   3.155   3.353   8.725 -0.0341  0.5477 -0.1131
46898SOL     OW45250   7.798   1.017   6.578  0.2201  0.1673 -0.1333
46898SOL    HW145251   7.887   0.984   6.569  0.0405  0.1971 -2.6978
46898SOL    HW245252   7.751   0.982   6.503 -1.5680  1.3132  0.3761
46899SOL     OW45253   4.108   8.791   7.928  0.0102  0.1196  0.3094
46899SOL    HW145254   4.026   8.795   7.879  0.9424  0.5112 -1.2594
46899SOL    HW245255   4.144   8.879   7.923  1.8451 -0.6633 -1.3749
46900SOL     OW45256   3.832  10.774   4.885  0.1615  0.4482  0.0804
46900SOL    HW145257   3.902  10.764   4.820  0.9184  0.3119  0.8975
46900SOL    HW245258   3.870  10.831   4.952 -0.7986  1.0214  0.1469
46901SOL     OW45259   5.309   3.528   8.795  0.1064 -0.1683  0.0974
46901SOL    HW145260   5.244   3.597   8.782  1.3023  0.9035 -0.3765
46901SOL    HW245261   5.295   3.468   8.722  0.8640  1.0511 -1.0832
46902SOL     OW45262   1.465  11.894   5.261 -0.6764 -0.3526  0.6172
46902SOL    HW145263   1.455  11.904   5.166 -0.3675  0.3304  0.6475
46902SOL    HW245264   1.492  11.803   5.273 -1.6716 -0.7297  0.1334
46903SOL     OW45265   2.276   6.819  11.133  0.0390 -0.1336 -0.0530
46903SOL    HW145266   2.308   6.879  11.201 -0.2294  0.1207 -0.1485
46903SOL    HW245267   2.352   6.804  11.078  0.0007  0.4826 -0.2891
46904SOL     OW45268  11.190   6.630  10.105  0.5738 -0.1978 -0.0792
46904SOL    HW145269  11.130   6.605  10.176 -0.6909  0.1054 -1.0008
46904SOL    HW245270  11.214   6.720  10.124  0.3810 -0.1738  0.0503
46905SOL     OW45271   5.534   3.083   4.944 -0.1180  0.1706 -0.3416
46905SOL    HW145272   5.628   3.095   4.957  0.0410 -1.2710  0.0409
46905SOL    HW245273   5.494   3.140   5.010  0.5753 -1.1172  1.2953
46906SOL     OW45274   3.619   8.851  10.436 -0.7469  0.1876  0.6555
46906SOL    HW145275   3.529   8.881  10.420 -0.4185  0.9457  0.1979
46906SOL    HW245276   3.644   8.808  10.353 -0.8240 -0.3909  0.9245
46907SOL     OW45277   4.747   2.673   0.670  0.0715 -0.0992 -0.9729
46907SOL    HW145278   4.688   2.618   0.721  0.4037  0.8713  0.4965
46907SOL    HW245279   4.835   2.645   0.697  0.2557  2.0508  0.8577
46908SOL     OW45280   7.771   6.086   0.725 -0.1168  0.2077  0.5141
46908SOL    HW145281   7.848   6.037   0.697 -0.8806 -0.5716 -0.2555
46908SOL    HW245282   7.712   6.084   0.650 -0.0237  2.7047  0.2700
46909SOL     OW45283  10.338   0.161   0.286  0.2370  0.1410  0.3597
46909SOL    HW145284  10.362   0.144   0.378  0.9051  1.2170  0.4091
46909SOL    HW245285  10.335   0.074   0.246 -0.0619 -0.3491  1.3963
46910SOL     OW45286   5.082   1.781  11.809  0.4749  0.0873 -0.1077
46910SOL    HW145287   5.069   1.687  11.798  2.4015 -0.1451 -0.8329
46910SOL    HW245288   5.025   1.821  11.743  0.5426 -0.6406 -0.6213
46911SOL     OW45289  12.086   8.003   7.845  0.4481  0.0032  0.4324
46911SOL    HW145290  12.149   7.994   7.916  0.7815 -0.1544  0.1215
46911SOL    HW245291  12.140   8.003   7.765  0.3737  2.8307  0.2715
46912SOL     OW45292   1.390  11.178   1.990 -0.1760  0.0625 -0.1655
46912SOL    HW145293   1.434  11.094   2.000 -0.3459  0.0421  0.4628
46912SOL    HW245294   1.457  11.237   1.954  0.1591 -0.1466  0.1189
46913SOL     OW45295  11.681   2.641  11.567  0.7212  0.1025 -0.0423
46913SOL    HW145296  11.771   2.620  11.591  0.4178 -2.1080 -0.6176
46913SOL    HW245297  11.632   2.633  11.649  0.7802 -0.5426 -0.0621
46914SOL     OW45298  10.641   9.316   3.946 -0.0116  0.1743  0.6039
46914SOL    HW145299  10.707   9.275   3.889  0.6996  1.2566  0.6259
46914SOL    HW245300  10.662   9.282   4.034 -1.0862 -1.4649  0.2696
46915SOL     OW45301   3.632  12.078   2.568 -0.5273  0.1285 -0.4076
46915SOL    HW145302   3.683  12.011   2.523 -1.5301 -1.3908  0.6003
46915SOL    HW245303   3.591  12.129   2.498  0.9501  0.2880 -1.1988
46916SOL     OW45304   1.326   8.489   2.518 -0.1068  0.2370 -0.6118
46916SOL    HW145305   1.320   8.446   2.433  2.2667 -2.1098  0.2713
46916SOL    HW245306   1.412   8.531   2.518  0.3143 -0.5390  0.8834
46917SOL     OW45307   0.057   3.917   6.109  0.3022  0.6092  0.4122
46917SOL    HW145308   0.038   3.825   6.124  0.4880  0.6607  0.9766
46917SOL    HW245309   0.008   3.939   6.030  0.5598 -0.0663  0.0649
46918SOL     OW45310   0.652   0.538   4.376  0.1756 -0.0534  0.0777
46918SOL    HW145311   0.569   0.586   4.373  0.1272 -0.1754 -0.8065
46918SOL    HW245312   0.717   0.600   4.342  0.2172 -0.4076 -0.4915
46919SOL     OW45313   3.903   0.902  11.299  0.3588 -0.4090  0.3979
46919SOL    HW145314   3.919   0.900  11.205 -0.0562  0.4990  0.2951
46919SOL    HW245315   3.981   0.864  11.338  2.1152  2.3425 -0.1568
46920SOL     OW45316   8.390   5.011   4.147 -0.5877 -0.8348 -0.2343
46920SOL    HW145317   8.431   4.980   4.228  0.3367  0.0029 -0.3605
46920SOL    HW245318   8.403   4.939   4.085 -1.0691 -1.3743  0.2785
46921SOL     OW45319   3.650  10.688   6.993 -0.5686 -0.1174 -0.2083
46921SOL    HW145320   3.614  10.770   6.958  1.8378  0.3225 -1.8939
46921SOL    HW245321   3.740  10.685   6.960 -0.6381 -3.5846 -0.4394
46922SOL     OW45322   3.375   3.752  10.674 -0.0466 -0.3733  0.5821
46922SOL    HW145323   3.279   3.757  10.671 -0.1792 -1.1272  2.3611
46922SOL    HW245324   3.401   3.828  10.727  0.5869  1.3081 -1.9640
46923SOL     OW45325  10.012   8.713   2.203  0.0860  0.2015  0.0317
46923SOL    HW145326  10.056   8.757   2.275 -0.3165 -0.6184  0.8003
46923SOL    HW245327   9.918   8.721   2.224 -0.1196  1.2416 -1.1702
46924SOL     OW45328   6.496   6.936  11.575  0.5021 -1.0954  0.4042
46924SOL    HW145329   6.441   6.860  11.555  0.0536 -0.6735  0.0193
46924SOL    HW245330   6.434   7.005  11.597  0.9216 -0.9281  1.0667
46925SOL     OW45331  10.074   8.739   9.393  0.0985  0.4921  0.1541
46925SOL    HW145332  10.028   8.659   9.368  1.4887  0.1325 -1.4432
46925SOL    HW245333  10.034   8.807   9.340  0.2791  0.4811  0.0026
46926SOL     OW45334   4.243  12.085   4.892  0.1307  0.0916 -0.4772
46926SOL    HW145335   4.266  12.001   4.854  0.8022  0.2454 -0.4172
46926SOL    HW245336   4.230  12.143   4.817  0.5544  0.1606 -0.5009
46927SOL     OW45337   4.517   3.269   3.003  0.0593  0.1882  0.4243
46927SOL    HW145338   4.430   3.235   2.983  0.4581  0.0741 -1.3614
46927SOL    HW245339   4.528   3.343   2.944  0.9967  0.4818  0.9481
46928SOL     OW45340   4.488   6.502  10.512 -0.1079  0.1568  0.2199
46928SOL    HW145341   4.517   6.509  10.420  0.8286  0.3895  0.5193
46928SOL    HW245342   4.406   6.550  10.515 -0.5977 -0.5850 -0.6809
46929SOL     OW45343   6.888   1.817   7.726 -0.1938 -0.2636 -0.0457
46929SOL    HW145344   6.919   1.881   7.790 -0.9929 -0.3016  0.3899
46929SOL    HW245345   6.803   1.789   7.759 -0.3709 -0.6960 -0.8403
46930SOL     OW45346   8.668   8.160   9.717  0.1215 -0.7404  0.2436
46930SOL    HW145347   8.694   8.227   9.653 -3.0864 -0.9909 -1.5352
46930SOL    HW245348   8.637   8.210   9.793 -2.1571 -0.0787 -1.0297
46931SOL     OW45349   0.240   7.571   3.825  0.6522 -0.7020  0.1522
46931SOL    HW145350   0.222   7.478   3.814  1.4039 -0.7800 -0.5106
46931SOL    HW245351   0.326   7.584   3.783 -0.4465  0.7186 -1.8299
46932SOL     OW45352  10.422   0.603   6.297  0.1956  0.9112 -0.2273
46932SOL    HW145353  10.479   0.606   6.220  0.9325  1.7358  0.3334
46932SOL    HW245354  10.378   0.519   6.291  3.2265 -0.8630  0.5938
46933SOL     OW45355  11.820   0.167   2.497 -0.1661 -0.2541 -0.8693
46933SOL    HW145356  11.781   0.191   2.581  0.2767  1.9329 -1.2405
46933SOL    HW245357  11.914   0.175   2.511  0.0184 -1.5941 -1.1256
46934SOL     OW45358  11.174   9.072   9.305 -0.2238  0.2330  0.7484
46934SOL    HW145359  11.082   9.085   9.328 -0.2578 -0.5148  1.0681
46934SOL    HW245360  11.190   8.979   9.323  0.2433  0.0479 -0.5317
46935SOL     OW45361   6.891   1.395   1.617 -0.1406  0.2506 -0.1112
46935SOL    HW145362   6.828   1.413   1.548  1.4604 -1.5000 -2.1851
46935SOL    HW245363   6.891   1.473   1.672 -0.6047  2.2830 -2.8295
46936SOL     OW45364   2.233   2.092   0.054  0.3214 -0.2565 -0.1236
46936SOL    HW145365   2.242   2.022   0.118 -0.6161 -0.6098 -0.3725
46936SOL    HW245366   2.151   2.074   0.009 -0.7554  1.8487  0.8486
46937SOL     OW45367  10.981  12.040   7.926 -0.0083  0.0183 -0.0206
46937SOL    HW145368  10.974  12.132   7.953 -0.6354  0.5774 -1.9642
46937SOL    HW245369  11.050  12.040   7.860  0.4039 -1.0376  0.3954
46938SOL     OW45370   9.838   5.295   1.880 -0.5398 -0.7250  0.0320
46938SOL    HW145371   9.822   5.235   1.953 -0.0155  0.6654  1.3592
46938SOL    HW245372   9.921   5.338   1.902 -1.6680  1.6543  0.0200
46939SOL     OW45373  11.940   1.754   3.680 -0.5641  0.4815 -0.1979
46939SOL    HW145374  11.992   1.762   3.600 -1.5021 -0.6338 -0.9423
46939SOL    HW245375  11.878   1.828   3.675  0.0435  1.0120  0.0171
46940SOL     OW45376   7.971   3.894   2.066  0.0302 -0.1798 -0.2186
46940SOL    HW145377   7.924   3.959   2.012 -0.9649  0.5415  1.4446
46940SOL    HW245378   8.053   3.879   2.018  0.9361  3.2965 -0.0891
46941SOL     OW45379   7.313   7.184   9.914 -0.1861  0.5732 -0.1624
46941SOL    HW145380   7.289   7.245   9.845  1.8297  0.9259 -0.6229
46941SOL    HW245381   7.310   7.098   9.873 -0.0813  0.6744 -0.3840
46942SOL     OW45382   0.839   0.571   8.462 -0.5351  0.0356 -0.6421
46942SOL    HW145383   0.786   0.491   8.465 -0.8822  0.2320 -1.2917
46942SOL    HW245384   0.844   0.600   8.553  0.8655 -1.5362 -0.1618
46943SOL     OW45385   9.043  11.562   3.256  0.1718 -0.2503 -0.3041
46943SOL    HW145386   9.026  11.595   3.167  1.7662 -1.9402 -1.3181
46943SOL    HW245387   8.969  11.504   3.275 -0.6185  0.7847 -0.1431
46944SOL     OW45388   4.444   3.991   3.269 -0.1853  0.2072  0.6942
46944SOL    HW145389   4.484   4.078   3.267 -0.3204  0.2653 -1.3580
46944SOL    HW245390   4.350   4.007   3.260 -0.2425 -0.1526  0.6311
46945SOL     OW45391   5.858  11.688   7.193  0.4880  0.0190  0.3517
46945SOL    HW145392   5.946  11.695   7.156  0.1505  1.4344 -0.2489
46945SOL    HW245393   5.810  11.634   7.130  1.0001 -1.0668  0.8673
46946SOL     OW45394   0.311   5.233   1.578 -0.1697 -0.1623  0.3147
46946SOL    HW145395   0.224   5.252   1.611  0.2136  0.3136  1.0732
46946SOL    HW245396   0.368   5.296   1.621  0.8388 -1.6956  1.3343
46947SOL     OW45397   0.886   2.551   0.902  0.0561  0.4378 -0.1826
46947SOL    HW145398   0.962   2.494   0.910  0.1390  0.4393 -0.9145
46947SOL    HW245399   0.812   2.497   0.928 -0.0039 -0.3624 -1.8850
46948SOL     OW45400  10.388   0.590   4.926  0.5233  0.0952  0.0335
46948SOL    HW145401  10.314   0.648   4.939  0.7537  0.3918  0.0399
46948SOL    HW245402  10.429   0.583   5.012  0.5470 -0.0044  0.0140
46949SOL     OW45403   0.440   9.616  11.471  0.1747  0.4351 -0.2102
46949SOL    HW145404   0.425   9.586  11.560  0.1903 -1.6074 -0.8411
46949SOL    HW245405   0.500   9.690  11.479  0.7998 -0.2245  1.3996
46950SOL     OW45406   9.066  10.227  10.737  0.3117 -0.0755 -0.6291
46950SOL    HW145407   9.151  10.251  10.701 -0.1735  1.2514 -0.9168
46950SOL    HW245408   9.023  10.178  10.667  0.6809 -0.4280 -0.6153
46951SOL     OW45409   9.542   6.323   4.348 -0.1595 -0.3141 -0.0889
46951SOL    HW145410   9.456   6.332   4.307 -0.7910  1.0629  1.4161
46951SOL    HW245411   9.523   6.282   4.433  0.6253  0.2014  0.3483
46952SOL     OW45412   8.510   5.791   4.749  0.0079 -0.0993  0.1630
46952SOL    HW145413   8.436   5.852   4.740  0.9495  0.9422 -0.9837
46952SOL    HW245414   8.575   5.840   4.799  0.3932 -0.5336  0.0902
46953SOL     OW45415   0.062   2.686   3.646 -0.0552 -0.7207  0.2359
46953SOL    HW145416   0.123   2.747   3.603 -0.4470  0.0236  0.7338
46953SOL    HW245417   0.014   2.646   3.573 -0.5130  0.3172 -0.0455
46954SOL     OW45418   6.569  11.190   3.052  0.1764  0.3286 -0.1350
46954SOL    HW145419   6.656  11.224   3.031  0.1544 -0.0311 -0.8078
46954SOL    HW245420   6.527  11.261   3.101  0.1881  1.2413 -1.3911
46955SOL     OW45421   6.716   0.776   5.651  0.3521  0.0116  0.3526
46955SOL    HW145422   6.669   0.764   5.734 -0.5904 -1.6587 -0.3806
46955SOL    HW245423   6.679   0.856   5.614 -1.5321 -0.9045  0.1131
46956SOL     OW45424   0.744   6.540   7.672  0.2889 -0.5682  0.2827
46956SOL    HW145425   0.654   6.530   7.703  0.3311  0.0944  0.6464
46956SOL    HW245426   0.735   6.575   7.583  0.1661  2.0458  1.2393
46957SOL     OW45427   8.438   2.476   6.475  0.0635 -0.3052  0.3357
46957SOL    HW145428   8.524   2.495   6.514 -0.2325  0.3532  0.6883
46957SOL    HW245429   8.457   2.414   6.405  0.9212  0.3483 -0.0329
46958SOL     OW45430   2.615   9.924   6.964 -0.1104 -0.0063 -0.1741
46958SOL    HW145431   2.578   9.839   6.985 -0.2875 -0.1551 -1.0417
46958SOL    HW245432   2.541   9.984   6.962 -0.1165 -0.0232 -0.5136
46959SOL     OW45433   2.480   3.341   6.609  0.0470  0.3502 -0.5643
46959SOL    HW145434   2.497   3.351   6.515 -1.2071  0.3841 -0.8066
46959SOL    HW245435   2.404   3.397   6.625  0.1075  0.1579  0.4339
46960SOL     OW45436   2.266   3.987   3.990 -0.0564  0.4428 -0.4161
46960SOL    HW145437   2.338   4.011   4.048 -0.0039  0.8959 -0.6663
46960SOL    HW245438   2.297   4.008   3.902 -0.1896 -0.1132 -0.5980
46961SOL     OW45439   5.149   7.432   8.236  0.7639 -0.0548 -0.0736
46961SOL    HW145440   5.067   7.480   8.226  0.9469  0.3660  0.4206
46961SOL    HW245441   5.185   7.427   8.147  0.3353 -0.0189 -0.2513
46962SOL     OW45442  10.083   3.442   1.631 -0.0736 -0.4985  0.4344
46962SOL    HW145443  10.002   3.461   1.583  0.0881  1.2148  0.7705
46962SOL    HW245444  10.056   3.382   1.700 -0.9229 -0.5313  0.0919
46963SOL     OW45445   7.622   7.376   5.861  0.2416 -1.0941 -0.1658
46963SOL    HW145446   7.656   7.335   5.782  1.0724 -1.5532  0.4090
46963SOL    HW245447   7.527   7.370   5.853  0.2599  0.1785 -1.7941
46964SOL     OW45448   4.183   9.030   0.204 -0.5146  0.4995  0.8266
46964SOL    HW145449   4.166   8.943   0.240 -0.4090 -0.8633 -2.1596
46964SOL    HW245450   4.101   9.078   0.219 -1.0081 -0.4932  1.4363
46965SOL     OW45451   5.532   0.437  10.480 -0.0754 -0.1496  0.2353
46965SOL    HW145452   5.529   0.524  10.440  2.9458  0.4842  1.0629
46965SOL    HW245453   5.607   0.441  10.540  0.1930 -3.3461  0.3044
46966SOL     OW45454  11.420   2.594  10.833  0.2516 -0.4620  0.1412
46966SOL    HW145455  11.464   2.633  10.757  0.6505  2.1730  1.6396
46966SOL    HW245456  11.345   2.548  10.796  1.8426 -1.4806 -2.0725
46967SOL     OW45457   6.600   5.291   7.064 -0.2493  0.2601 -0.3976
46967SOL    HW145458   6.639   5.306   6.978  2.6700 -3.0707  0.0983
46967SOL    HW245459   6.531   5.227   7.048 -1.4598  1.5632 -0.5173
46968SOL     OW45460   9.005   1.538   4.067  0.4277 -0.5381  0.0843
46968SOL    HW145461   9.088   1.507   4.103  0.3027 -1.6082 -0.5231
46968SOL    HW245462   8.943   1.468   4.085 -0.1174 -0.1750 -0.3521
46969SOL     OW45463   8.498   0.553   8.748  0.0917  0.4056 -0.2142
46969SOL    HW145464   8.481   0.472   8.700  2.4136  0.9610 -2.2125
46969SOL    HW245465   8.438   0.550   8.823 -0.8190 -2.4987 -0.9194
46970SOL     OW45466   3.234   8.050  11.175  0.5096  0.1084 -0.7427
46970SOL    HW145467   3.244   8.071  11.082  1.6995 -0.5664 -0.7767
46970SOL    HW245468   3.252   7.956  11.180 -0.6209 -0.0863  0.0215
46971SOL     OW45469   2.682   5.006   4.797 -0.1091  0.1995 -0.0008
46971SOL    HW145470   2.616   4.989   4.864 -0.0811 -1.4816 -0.3667
46971SOL    HW245471   2.739   4.929   4.799 -0.3561 -0.1080 -2.2325
46972SOL     OW45472  10.477   3.507   0.749 -0.8563  0.1604  0.3304
46972SOL    HW145473  10.418   3.515   0.675  0.3997 -2.0344 -1.0184
46972SOL    HW245474  10.547   3.570   0.731 -1.1689  0.5038  0.3004
46973SOL     OW45475   6.433   4.342   8.073  0.3446 -0.1931 -0.1139
46973SOL    HW145476   6.410   4.249   8.069 -0.1696 -0.1185  0.8677
46973SOL    HW245477   6.372   4.385   8.012 -0.2580 -0.3463  0.3769
46974SOL     OW45478   5.180   4.646   4.707 -0.1629 -0.0787 -0.4766
46974SOL    HW145479   5.219   4.606   4.629 -0.1318  0.5797 -0.8058
46974SOL    HW245480   5.106   4.589   4.728 -0.3719 -0.0839 -1.1882
46975SOL     OW45481  10.663   0.953  11.669  0.7282 -0.1782 -0.1010
46975SOL    HW145482  10.607   0.958  11.746 -0.0442  0.3595 -0.6730
46975SOL    HW245483  10.605   0.976  11.596  1.6107  0.0239 -0.7582
46976SOL     OW45484   2.955   9.083   4.703 -0.1525  0.3505 -0.5024
46976SOL    HW145485   2.996   9.002   4.734  0.4961  0.5710 -0.7760
46976SOL    HW245486   2.867   9.055   4.675 -0.9271  0.2098  1.8357
46977SOL     OW45487   4.052   0.741   7.857  0.8680 -0.1304  0.1626
46977SOL    HW145488   4.069   0.804   7.927  1.7289  0.5983 -0.6770
46977SOL    HW245489   4.028   0.660   7.903 -0.6404  0.8883  1.2564
46978SOL     OW45490   7.904  12.031  10.296  0.6384 -0.1860 -0.1245
46978SOL    HW145491   7.841  12.100  10.274 -0.0023  1.2276  4.9037
46978SOL    HW245492   7.988  12.064  10.263  0.1406  2.5352  1.0479
46979SOL     OW45493   5.423  11.555   3.964 -0.3476 -0.1979 -0.3259
46979SOL    HW145494   5.378  11.492   4.019 -0.0105 -1.4693 -1.4269
46979SOL    HW245495   5.364  11.630   3.959 -0.4088 -0.0575  1.6648
46980SOL     OW45496  11.622   6.852   7.375 -0.0508  0.5174  0.0304
46980SOL    HW145497  11.587   6.920   7.432  0.3000  1.0936 -0.4343
46980SOL    HW245498  11.576   6.864   7.291  1.3094  1.3493 -0.6197
46981SOL     OW45499   3.769  11.793   1.744  0.6181 -0.3186  0.0012
46981SOL    HW145500   3.740  11.873   1.700  1.3903  1.0323  1.8418
46981SOL    HW245501   3.706  11.779   1.813  1.5857 -0.1275  0.9529
46982SOL     OW45502   4.429   1.769   2.714  0.2025 -0.2858  0.7237
46982SOL    HW145503   4.352   1.798   2.666 -0.1720 -1.5584  0.5098
46982SOL    HW245504   4.474   1.849   2.740 -0.6297  0.4458 -0.0670
46983SOL     OW45505  10.683   7.280   5.607  0.1385  0.3073  0.4756
46983SOL    HW145506  10.740   7.334   5.551  0.1525  0.1873  0.3720
46983SOL    HW245507  10.647   7.214   5.547  0.3796  0.0012  0.6689
46984SOL     OW45508   5.081  11.786   4.673  0.1480 -0.5010 -0.0287
46984SOL    HW145509   5.156  11.754   4.723  0.0401  0.4676  0.7757
46984SOL    HW245510   5.028  11.707   4.658  0.7433 -0.9958  0.4036
46985SOL     OW45511   4.637   7.370   5.426 -0.6373 -0.0473  0.6465
46985SOL    HW145512   4.634   7.402   5.336 -2.6553 -0.7332  0.4213
46985SOL    HW245513   4.731   7.359   5.444 -0.1772  0.2975 -1.2881
46986SOL     OW45514  11.695   7.532   7.033  0.1252  0.8379  0.6514
46986SOL    HW145515  11.782   7.572   7.037  1.0178 -0.8487 -0.3555
46986SOL    HW245516  11.659   7.561   6.950  0.4029  0.2934  0.3338
46987SOL     OW45517  11.460   4.316  10.856 -0.3003 -0.0679 -0.1229
46987SOL    HW145518  11.540   4.302  10.805  0.1322 -0.5879  0.6765
46987SOL    HW245519  11.475   4.398  10.903 -0.4140  0.0552 -0.3012
46988SOL     OW45520   4.014   6.076   4.994 -0.9322 -0.3910  0.0900
46988SOL    HW145521   4.014   6.156   5.046  1.1062 -0.5951  0.5030
46988SOL    HW245522   3.972   6.100   4.912  1.4206  1.7242 -0.6116
46989SOL     OW45523   8.854   7.966   2.906  0.0804  0.1406 -0.6260
46989SOL    HW145524   8.848   7.871   2.911 -1.1238  0.1716 -1.2971
46989SOL    HW245525   8.948   7.983   2.894  0.3194 -0.9461 -0.4067
46990SOL     OW45526   4.859   6.618   5.407 -0.4409 -0.2143 -0.1868
46990SOL    HW145527   4.860   6.710   5.380  0.8134  0.3630  1.6604
46990SOL    HW245528   4.859   6.569   5.324 -4.4583  1.3132 -1.3173
46991SOL     OW45529   5.817   2.221   6.857  0.9386  0.5191  0.6039
46991SOL    HW145530   5.743   2.281   6.848  0.0027 -0.7921 -1.0512
46991SOL    HW245531   5.807   2.182   6.943 -0.1375  0.5964  0.5265
46992SOL     OW45532   7.075   3.521   5.945 -0.7849 -0.0108 -0.1550
46992SOL    HW145533   6.989   3.562   5.957 -0.5408  0.0122  1.7486
46992SOL    HW245534   7.138   3.590   5.964 -0.3697 -0.9027  2.0001
46993SOL     OW45535   9.429  11.544   6.218 -0.1808  0.2883  0.0132
46993SOL    HW145536   9.363  11.481   6.190  1.4004 -1.7151  0.5609
46993SOL    HW245537   9.479  11.563   6.139 -1.4540  1.9810 -0.4527
46994SOL     OW45538   1.340   9.266   5.339 -0.0666 -0.2917 -0.0787
46994SOL    HW145539   1.376   9.281   5.427  1.5539  0.7629 -0.8765
46994SOL    HW245540   1.372   9.180   5.315  0.3066 -0.1764 -0.0075
46995SOL     OW45541   2.887   8.399   3.931  0.4786  0.1756  0.2993
46995SOL    HW145542   2.793   8.397   3.913  0.4119  1.0402  0.5165
46995SOL    HW245543   2.921   8.468   3.875  0.7488  0.8438  1.2596
46996SOL     OW45544  11.640   7.072   3.019 -0.1886 -0.7961  0.4409
46996SOL    HW145545  11.734   7.087   3.031 -0.1644 -1.3729  0.9695
46996SOL    HW245546  11.634   7.028   2.934 -0.0951  0.3294 -0.1811
46997SOL     OW45547   2.631   9.649   1.799 -0.5019  0.8211  0.2396
46997SOL    HW145548   2.693   9.628   1.869  0.3556 -1.0044 -0.9764
46997SOL    HW245549   2.546   9.652   1.843 -0.0899 -1.1048  1.2970
46998SOL     OW45550   5.331   9.417   0.290 -0.1780 -1.3467 -0.2934
46998SOL    HW145551   5.372   9.390   0.208 -0.6327 -3.4360  0.0843
46998SOL    HW245552   5.260   9.475   0.264  0.3356 -1.1450 -1.2931
46999SOL     OW45553   3.501   5.672   2.932  0.1704 -0.1420  0.9217
46999SOL    HW145554   3.497   5.626   2.849 -0.0434 -0.1754  0.9502
46999SOL    HW245555   3.579   5.727   2.926  0.0490 -0.0009  0.6231
47000SOL     OW45556   8.693   1.354   8.101  0.0614 -1.0341  0.4592
47000SOL    HW145557   8.613   1.359   8.155 -0.4391 -0.4601 -0.3034
47000SOL    HW245558   8.757   1.405   8.150 -0.9410  1.1720 -0.3362
47001SOL     OW45559   7.096   6.740   6.292 -0.1193 -0.1869  0.2344
47001SOL    HW145560   7.162   6.680   6.327 -0.3019 -1.1664 -1.0089
47001SOL    HW245561   7.013   6.693   6.304 -0.1529 -0.7028 -1.7200
47002SOL     OW45562  10.292  11.877   6.067  0.1479 -0.2565 -0.4938
47002SOL    HW145563  10.223  11.904   6.007 -0.1617  0.8170  0.3188
47002SOL    HW245564  10.255  11.889   6.154  0.7368 -1.3798 -0.0668
47003SOL     OW45565   6.154   5.897   8.698 -0.5994  0.7126  0.2733
47003SOL    HW145566   6.136   5.973   8.753 -0.0791  0.3070  1.0313
47003SOL    HW245567   6.244   5.873   8.720 -0.0917  1.0046 -1.3420
47004SOL     OW45568   8.614   3.330  11.188 -0.1007 -0.1911  0.2286
47004SOL    HW145569   8.706   3.313  11.205  0.4314 -0.2509 -2.3006
47004SOL    HW245570   8.598   3.291  11.102 -1.9634  1.4987 -0.2734
47005SOL     OW45571  11.945   9.883   4.694  0.4253  0.1584  0.4848
47005SOL    HW145572  12.017   9.861   4.635  0.2692  1.9394 -0.4500
47005SOL    HW245573  11.984   9.886   4.781  0.8533 -1.6143  0.3933
47006SOL     OW45574   0.018   2.445   5.055 -0.0260  0.2822 -0.0039
47006SOL    HW145575  -0.059   2.485   5.095 -0.9187  1.9204 -3.0502
47006SOL    HW245576   0.070   2.518   5.022  0.2077 -0.8994 -2.4780
47007SOL     OW45577   2.126  10.265  11.916 -0.3342  0.1635  0.3259
47007SOL    HW145578   2.044  10.305  11.888  0.4278  0.7850 -1.1014
47007SOL    HW245579   2.102  10.174  11.937 -1.1426 -0.0802 -1.4905
47008SOL     OW45580   8.256   5.753   9.653  0.3551  0.2540  0.8417
47008SOL    HW145581   8.342   5.743   9.611 -0.4489  2.0523 -1.5011
47008SOL    HW245582   8.263   5.836   9.700 -0.2619  0.7460  0.0886
47009SOL     OW45583   7.509   3.007  10.972  0.1223  0.4699 -0.7407
47009SOL    HW145584   7.504   3.025  10.878  0.6423  1.2921 -0.6200
47009SOL    HW245585   7.479   2.916  10.980 -0.9126  0.7175 -1.5730
47010SOL     OW45586  10.656   9.519  10.932  0.2246  0.0674  0.0535
47010SOL    HW145587  10.740   9.475  10.942 -0.2065 -0.9219 -0.4963
47010SOL    HW245588  10.639   9.516  10.837 -0.3882  0.3162  0.1488
47011SOL     OW45589  11.740   1.342  11.270  0.1081  0.2208  0.2401
47011SOL    HW145590  11.652   1.363  11.239  0.5904  0.9880 -0.6356
47011SOL    HW245591  11.777   1.287  11.201  0.1535 -0.4897  0.8259
47012SOL     OW45592   0.362   1.192   9.436 -0.1587 -0.1689 -0.1485
47012SOL    HW145593   0.414   1.272   9.437 -2.4238  1.3899 -0.1404
47012SOL    HW245594   0.295   1.207   9.502 -1.1217 -1.7504 -0.7302
47013SOL     OW45595   1.420  10.371  11.394 -0.0486  0.0671 -0.1390
47013SOL    HW145596   1.436  10.387  11.487 -0.5000  1.3305 -0.2699
47013SOL    HW245597   1.480  10.431  11.349  1.8645 -2.1194 -0.7345
47014SOL     OW45598   4.510   3.652  11.247 -0.3093 -0.9828 -0.0351
47014SOL    HW145599   4.528   3.743  11.270 -0.5728 -0.4246 -1.8496
47014SOL    HW245600   4.582   3.603  11.285  1.9584  0.4647 -2.1381
47015SOL     OW45601   8.752   6.532   7.260  0.2951 -0.0385  0.3762
47015SOL    HW145602   8.827   6.476   7.241  0.0160 -1.2014  2.4481
47015SOL    HW245603   8.786   6.621   7.257  1.3350 -0.4454 -0.4436
47016SOL     OW45604   9.298  10.478   0.479  0.0560  0.0938 -0.4499
47016SOL    HW145605   9.295  10.571   0.457 -0.0337  0.0406 -0.6654
47016SOL    HW245606   9.355  10.440   0.412  1.6247  0.2967  0.7041
47017SOL     OW45607   5.905   7.033   2.713 -0.7051  0.1271  1.0214
47017SOL    HW145608   5.842   6.992   2.772 -1.0750  0.4078  0.8272
47017SOL    HW245609   5.950   7.099   2.766  0.5904 -1.1661  1.6117
47018SOL     OW45610   9.331   6.685   5.698  0.1975  0.1956  0.3722
47018SOL    HW145611   9.371   6.711   5.615  1.2280 -0.4482  0.6515
47018SOL    HW245612   9.348   6.591   5.705 -3.6437 -0.7455 -0.7408
47019SOL     OW45613   5.494   8.950   1.239 -0.1082 -0.4322  0.2650
47019SOL    HW145614   5.437   8.873   1.241 -0.0155 -0.5007  2.1825
47019SOL    HW245615   5.436   9.024   1.259  0.0553 -0.1836 -0.1699
47020SOL     OW45616  10.108   6.400   8.352 -0.0162 -0.1215 -0.1675
47020SOL    HW145617  10.200   6.400   8.376 -0.0065 -1.6997 -0.0449
47020SOL    HW245618  10.070   6.475   8.398  1.0208 -0.0234  0.5599
47021SOL     OW45619   6.820  11.975   7.725 -0.2470  0.0009  0.2409
47021SOL    HW145620   6.802  11.952   7.634  0.0297  0.9995 -0.0770
47021SOL    HW245621   6.837  11.891   7.768 -3.0280 -0.8008  0.0128
47022SOL     OW45622  10.688  10.006   4.844 -0.4195  0.5733 -0.3332
47022SOL    HW145623  10.667  10.033   4.933 -0.5015  0.9824 -0.4742
47022SOL    HW245624  10.604   9.999   4.800 -0.3388  1.0808 -0.5767
47023SOL     OW45625   1.477   5.403  10.256 -0.2086 -0.4521 -0.1211
47023SOL    HW145626   1.525   5.390  10.174 -1.4992  1.1165 -1.1930
47023SOL    HW245627   1.512   5.485  10.291 -1.1034 -0.0376 -0.1839
47024SOL     OW45628  10.836   5.715   3.551 -0.0103 -0.2342  0.2135
47024SOL    HW145629  10.862   5.726   3.642 -0.2364 -0.4052  0.2981
47024SOL    HW245630  10.764   5.777   3.538  0.9240  0.8071 -0.2343
47025SOL     OW45631   1.542   7.971   3.713  0.6129  0.0243 -0.6124
47025SOL    HW145632   1.523   8.029   3.639 -0.8131  1.2728  0.6820
47025SOL    HW245633   1.598   8.022   3.770 -0.3668  0.0332  0.3732
47026SOL     OW45634   0.840   3.455   6.309  0.0313 -0.0812  0.7342
47026SOL    HW145635   0.851   3.514   6.234  1.4983 -2.0365 -0.6721
47026SOL    HW245636   0.761   3.405   6.288  0.7260 -0.9849  0.1871
47027SOL     OW45637   2.828   3.119   5.691 -0.1321 -0.0544 -0.6002
47027SOL    HW145638   2.733   3.123   5.679 -0.1363  0.4564 -0.4134
47027SOL    HW245639   2.863   3.103   5.603 -0.3814 -0.1003 -0.6919
47028SOL     OW45640  10.614   3.615  11.363 -0.3816 -0.9913  0.2268
47028SOL    HW145641  10.601   3.552  11.292  0.3996 -1.7977  0.7735
47028SOL    HW245642  10.573   3.574  11.439 -0.4215 -0.5546  0.4411
47029SOL     OW45643   0.537   1.162   3.556 -0.4128  0.2523  0.2024
47029SOL    HW145644   0.520   1.249   3.520 -0.5392 -0.3102 -1.1888
47029SOL    HW245645   0.632   1.155   3.557 -0.4077  0.1891 -0.2819
47030SOL     OW45646  10.297  11.461  12.068 -0.2670 -0.5620 -0.1919
47030SOL    HW145647  10.205  11.438  12.066 -0.1740 -0.9053 -0.8814
47030SOL    HW245648  10.343  11.377  12.072  0.0089 -0.3778  1.0596
47031SOL     OW45649   3.797   8.201   1.512 -0.4744  0.4505 -0.0288
47031SOL    HW145650   3.863   8.188   1.443 -1.2057  1.4784 -0.9737
47031SOL    HW245651   3.715   8.172   1.472 -0.8564  0.7787  0.5106
47032SOL     OW45652  10.325   7.924  11.234 -0.8821  0.6112 -0.1115
47032SOL    HW145653  10.293   7.886  11.152  0.0613  1.3905 -0.8761
47032SOL    HW245654  10.377   8.000  11.206 -0.3974  0.7876  1.2043
47033SOL     OW45655   5.545  11.026   4.247 -0.6887  0.1188  0.6258
47033SOL    HW145656   5.569  11.080   4.171 -0.0986 -0.6495  0.2474
47033SOL    HW245657   5.527  11.089   4.317 -0.6992  0.8202  0.0002
47034SOL     OW45658   1.003   2.125   4.147  0.2659  0.5079 -0.3240
47034SOL    HW145659   0.919   2.102   4.188 -0.1504  1.8999 -0.3448
47034SOL    HW245660   0.983   2.128   4.053  0.6290 -0.2954 -0.4310
47035SOL     OW45661   2.703   0.384   5.305  0.0857  0.2330  0.6513
47035SOL    HW145662   2.764   0.425   5.366  0.1680 -0.4625  1.0345
47035SOL    HW245663   2.619   0.427   5.322  0.0035 -0.2801  1.5794
47036SOL     OW45664   9.360   9.957   6.566  0.4202  0.1140  0.0536
47036SOL    HW145665   9.373   9.865   6.547  1.3560 -0.3637  2.5615
47036SOL    HW245666   9.448   9.996   6.561  0.1378  0.7246 -0.3215
47037SOL     OW45667  10.576   3.554   3.624 -0.0965 -0.2029  0.3165
47037SOL    HW145668  10.643   3.623   3.621 -0.7088  0.3717 -0.6099
47037SOL    HW245669  10.573   3.528   3.716  0.1724  0.9829  0.6823
47038SOL     OW45670   5.704  10.167  11.402  0.0550 -0.4251  0.2882
47038SOL    HW145671   5.713  10.095  11.464  0.8678 -0.5014  0.0897
47038SOL    HW245672   5.644  10.228  11.445 -1.1531 -1.5020  0.1897
47039SOL     OW45673   9.650   7.484   3.636 -0.2145 -0.1853  0.2346
47039SOL    HW145674   9.651   7.538   3.556  0.7128 -0.0023  0.3505
47039SOL    HW245675   9.707   7.531   3.697 -0.5050 -0.5925  0.8309
47040SOL     OW45676  12.083   9.020   3.328  0.3076 -0.6053 -0.0820
47040SOL    HW145677  12.024   8.945   3.339  2.0889 -1.8031  1.9410
47040SOL    HW245678  12.108   9.045   3.416  1.7268  0.7852 -0.8260
47041SOL     OW45679   5.776  11.368   8.010  0.2856  0.6724 -0.2440
47041SOL    HW145680   5.714  11.385   8.081  0.7378  1.0226  0.0777
47041SOL    HW245681   5.728  11.390   7.930 -0.1520  0.4969 -0.0331
47042SOL     OW45682   8.441   9.477   8.659  0.2252 -0.0839 -0.3064
47042SOL    HW145683   8.418   9.497   8.750 -1.4101 -1.7255 -0.2997
47042SOL    HW245684   8.412   9.553   8.609  2.1682  1.3566  0.5937
47043SOL     OW45685   9.931   2.632  10.834 -0.2663  0.2038  0.1535
47043SOL    HW145686   9.945   2.708  10.777 -0.6332  0.6902  0.7017
47043SOL    HW245687   9.958   2.557  10.781  0.2889  0.7328 -0.3251
47044SOL     OW45688   4.474   5.216   9.770  0.5283  0.0399 -0.0327
47044SOL    HW145689   4.405   5.280   9.787 -1.0049 -1.3332 -0.8207
47044SOL    HW245690   4.489   5.221   9.676  1.7723  0.5580  0.1776
47045SOL     OW45691   5.359   1.527   8.889 -0.1575  0.0614  0.0030
47045SOL    HW145692   5.454   1.514   8.890 -0.2542 -0.8027 -0.8975
47045SOL    HW245693   5.338   1.536   8.796 -1.0263 -0.2772  0.1658
47046SOL     OW45694  11.584   8.366  10.330 -0.1448  0.1385 -0.2118
47046SOL    HW145695  11.677   8.383  10.319 -0.2888  0.1495 -1.5081
47046SOL    HW245696  11.546   8.450  10.355 -0.0337  0.5078 -1.2462
47047SOL     OW45697   0.172   3.995   3.041 -0.1407 -0.6583  0.4321
47047SOL    HW145698   0.161   3.906   3.074  0.9380 -1.3838 -1.0778
47047SOL    HW245699   0.153   4.051   3.116 -2.2062 -2.0988  1.0407
47048SOL     OW45700   4.569  11.384   8.003  0.6496 -0.2775 -0.0476
47048SOL    HW145701   4.497  11.446   8.013  2.3059  1.7287  0.2534
47048SOL    HW245702   4.529  11.306   7.966 -1.7172  0.6173  0.4483
47049SOL     OW45703   1.621   3.218   8.325 -0.5365  0.1146 -0.0286
47049SOL    HW145704   1.608   3.277   8.399  1.8275  0.4570  0.1808
47049SOL    HW245705   1.607   3.274   8.248 -3.0552 -0.2562  0.0518
47050SOL     OW45706   1.635   9.565   9.530  0.0562 -0.1564 -0.3858
47050SOL    HW145707   1.572   9.539   9.463  1.1808  1.3835 -2.1267
47050SOL    HW245708   1.717   9.575   9.483  0.9001  0.9655  1.2415
47051SOL     OW45709   6.835  10.350   5.901  0.2386 -0.1547  0.0464
47051SOL    HW145710   6.796  10.351   5.813  0.4825  1.3203 -0.0739
47051SOL    HW245711   6.833  10.442   5.929  3.1920 -0.0283  0.2009
47052SOL     OW45712   7.711   5.978   4.373 -0.5751  1.2237  0.1884
47052SOL    HW145713   7.765   5.946   4.445  2.8186 -0.4860 -2.8103
47052SOL    HW245714   7.663   5.900   4.343  1.4293  0.6961 -1.9812
47053SOL     OW45715   5.717  10.540   2.257  0.0841 -0.5592 -0.1883
47053SOL    HW145716   5.637  10.542   2.310  0.9809  2.6352  1.3112
47053SOL    HW245717   5.783  10.502   2.315  0.6784  1.3779  0.5015
47054SOL     OW45718   3.503  10.770   1.128  0.2010  0.4957  0.4373
47054SOL    HW145719   3.596  10.780   1.113  0.1065  2.1179  0.7743
47054SOL    HW245720   3.463  10.782   1.042  0.1827  1.9683  0.6255
47055SOL     OW45721   9.412   7.919   4.492  0.1787 -0.2745 -0.5252
47055SOL    HW145722   9.355   7.919   4.415 -0.1051 -0.5353 -0.3183
47055SOL    HW245723   9.477   7.851   4.474  2.0853  1.7516 -1.9514
47056SOL     OW45724   9.066  11.778   4.928  0.0594  0.1062 -0.0258
47056SOL    HW145725   9.021  11.696   4.908  0.1068  0.3509 -1.2287
47056SOL    HW245726   9.129  11.755   4.997  0.0935 -0.8685 -0.3669
47057SOL     OW45727  12.061   7.549  10.070 -0.3091  0.5081  0.7593
47057SOL    HW145728  12.064   7.453  10.066  1.4233  0.5655 -1.3322
47057SOL    HW245729  12.082   7.570  10.161  0.3979 -1.0987  1.0056
47058SOL     OW45730  10.839  10.974   1.099  0.0784 -0.1331 -0.0246
47058SOL    HW145731  10.927  11.002   1.070 -0.1530 -0.0336 -0.6589
47058SOL    HW245732  10.822  10.895   1.048 -0.0439 -0.3734  0.3885
47059SOL     OW45733  10.757  10.295   8.862  0.3425 -0.4926 -0.3838
47059SOL    HW145734  10.850  10.270   8.868 -0.0499 -1.8790  0.3526
47059SOL    HW245735  10.735  10.326   8.949  0.1365 -0.0547 -0.5892
47060SOL     OW45736   8.641   8.512   3.553 -0.4359 -0.4310  0.4695
47060SOL    HW145737   8.615   8.452   3.623 -0.7430 -1.1456 -0.2517
47060SOL    HW245738   8.692   8.458   3.493 -3.0640 -0.7310 -1.6692
47061SOL     OW45739   0.588   1.486   7.400  0.0983  0.1033  0.0988
47061SOL    HW145740   0.619   1.463   7.488  1.7139 -0.6940 -0.6568
47061SOL    HW245741   0.654   1.546   7.366  1.4783 -2.4153 -1.9350
47062SOL     OW45742   1.654  10.156  10.583  0.0867 -0.1077  0.0206
47062SOL    HW145743   1.635  10.187  10.672  3.8663  1.2936  0.5646
47062SOL    HW245744   1.679  10.064  10.595 -0.6859 -0.2985  0.1894
47063SOL     OW45745   2.519   1.191   0.630 -0.0765 -0.0545 -0.3521
47063SOL    HW145746   2.572   1.252   0.681  1.8279 -0.7011 -1.4434
47063SOL    HW245747   2.536   1.214   0.539 -2.4093  0.2597 -0.7596
47064SOL     OW45748   7.125  11.829   7.735  0.3713 -1.0683 -0.4272
47064SOL    HW145749   7.065  11.801   7.804  0.4791 -0.4557 -0.0749
47064SOL    HW245750   7.139  11.922   7.752  2.6333 -1.5076  0.4245
47065SOL     OW45751   4.249   1.042   1.344 -0.0714 -0.2483  0.8572
47065SOL    HW145752   4.341   1.018   1.357  0.1790  1.0702  1.7921
47065SOL    HW245753   4.202   0.959   1.339  1.2673 -0.9672 -0.5649
47066SOL     OW45754  10.907   9.425   3.061  0.2258  0.0700  0.3143
47066SOL    HW145755  10.818   9.458   3.076  0.3311  0.0424  1.0667
47066SOL    HW245756  10.963   9.482   3.113  0.4541 -0.9763  1.2779
47067SOL     OW45757   6.319   6.211   0.448  0.0222 -0.4113 -0.0037
47067SOL    HW145758   6.265   6.154   0.503  0.9535 -2.2127 -0.8616
47067SOL    HW245759   6.354   6.152   0.381  0.3573  1.3709 -1.4449
47068SOL     OW45760  11.034   6.036   6.164  0.2881 -0.4526 -0.3270
47068SOL    HW145761  11.112   6.075   6.204 -0.3695 -1.1218  1.7396
47068SOL    HW245762  10.981   6.112   6.136  0.0201  0.1383  1.6506
47069SOL     OW45763   2.258  11.432   7.026  0.4728  0.5857  0.2440
47069SOL    HW145764   2.348  11.457   7.004  0.1217  2.1826  0.4799
47069SOL    HW245765   2.218  11.410   6.942  1.2531 -0.8125  0.2105
47070SOL     OW45766   4.304   2.529   4.219  0.2613  0.3799  0.2219
47070SOL    HW145767   4.368   2.600   4.218 -0.1630  0.7805 -2.0223
47070SOL    HW245768   4.322   2.483   4.301  2.3643  1.4175  0.4157
47071SOL     OW45769   9.426   9.253   3.408  0.0402 -0.1005 -0.6545
47071SOL    HW145770   9.391   9.232   3.494 -0.2678 -3.4654 -1.4673
47071SOL    HW245771   9.505   9.305   3.427 -0.4364 -0.0799  1.5868
47072SOL     OW45772   2.259  10.659  10.400  0.0534 -0.5583 -0.1888
47072SOL    HW145773   2.231  10.571  10.425  0.4749 -1.2309 -1.9159
47072SOL    HW245774   2.198  10.684  10.330  0.4091  0.2078 -0.2395
47073SOL     OW45775   6.740   2.439  11.515 -0.5849 -0.4217 -0.3324
47073SOL    HW145776   6.655   2.461  11.554  0.1370 -0.5597  1.3939
47073SOL    HW245777   6.804   2.463  11.582  0.7448 -0.4855 -1.5328
47074SOL     OW45778  10.223   5.313   1.868 -0.2470 -0.3215 -0.1834
47074SOL    HW145779  10.186   5.350   1.948 -1.3695 -0.5385 -0.5837
47074SOL    HW245780  10.273   5.384   1.828  2.1295 -0.7850  1.7514
47075SOL     OW45781   8.154   7.541   2.190  0.6989  0.5717 -0.9805
47075SOL    HW145782   8.130   7.451   2.168 -0.1555  0.4285  0.3938
47075SOL    HW245783   8.195   7.535   2.277 -1.7372  1.7233  0.3782
47076SOL     OW45784   9.173   4.424   4.858 -0.3095  0.3629 -0.1192
47076SOL    HW145785   9.102   4.448   4.799 -0.2231  1.3237  0.1506
47076SOL    HW245786   9.143   4.453   4.945  0.5733  1.1712 -0.0669
47077SOL     OW45787   5.460   0.697   2.327  0.3132  0.6684 -0.0542
47077SOL    HW145788   5.555   0.686   2.328  0.3343  0.7389 -0.9313
47077SOL    HW245789   5.436   0.695   2.235 -0.6585 -0.3429  0.2037
47078SOL     OW45790   0.036   6.658  10.434  0.2090  0.4827  0.6282
47078SOL    HW145791   0.093   6.621  10.502 -1.3234 -2.1777  0.6125
47078SOL    HW245792  -0.053   6.644  10.468 -0.5257  1.0063 -1.0110
47079SOL     OW45793   0.485   5.977   6.948 -0.5081 -0.7242  0.3521
47079SOL    HW145794   0.438   6.046   6.995  2.4944  0.9805  1.1385
47079SOL    HW245795   0.523   5.923   7.018 -0.0135 -1.1203 -0.2187
47080SOL     OW45796  11.047   1.320  11.749 -0.2428  0.1517  0.5070
47080SOL    HW145797  10.993   1.272  11.687 -0.9533  2.2482 -0.6026
47080SOL    HW245798  10.985   1.374  11.799  0.6452  1.5044  0.2161
47081SOL     OW45799   9.043   7.961   1.496 -0.1239 -0.1841 -0.6576
47081SOL    HW145800   9.052   7.926   1.407 -0.6485 -0.5646 -0.5704
47081SOL    HW245801   9.071   7.889   1.553 -1.2271 -0.4961 -0.4769
47082SOL     OW45802   7.452   9.295   3.667  0.3467 -0.0794 -0.0847
47082SOL    HW145803   7.490   9.207   3.661 -1.9567 -1.5148  3.2734
47082SOL    HW245804   7.499   9.336   3.739  0.2558  0.8540 -0.5439
47083SOL     OW45805  11.898   3.685   9.728  0.1413 -0.5540  0.4833
47083SOL    HW145806  11.961   3.749   9.695 -1.3282 -0.4744 -2.4436
47083SOL    HW245807  11.901   3.696   9.823  2.6649  1.1889  0.2937
47084SOL     OW45808   7.537   4.496   1.840 -0.0137 -0.3032  0.6821
47084SOL    HW145809   7.555   4.539   1.924 -1.7395 -0.4612  1.1595
47084SOL    HW245810   7.464   4.438   1.858 -1.6342  0.9774 -1.3146
47085SOL     OW45811   6.053   8.054  10.848  0.7044 -0.0216  0.4057
47085SOL    HW145812   6.046   8.150  10.846  2.2398  0.1093  0.5713
47085SOL    HW245813   6.091   8.035  10.934  1.0078 -0.7344  0.1173
47086SOL     OW45814   2.197   1.589   7.120  0.2870 -0.5909  0.0418
47086SOL    HW145815   2.275   1.595   7.176  0.5725  0.2676 -0.4185
47086SOL    HW245816   2.226   1.539   7.044 -0.1749 -1.9901  0.7549
47087SOL     OW45817   1.791   2.133   4.853 -0.1360  0.0754  0.2002
47087SOL    HW145818   1.777   2.038   4.853  0.2868  0.0103  0.4706
47087SOL    HW245819   1.768   2.160   4.942 -1.9987  0.5030 -0.3682
47088SOL     OW45820  11.285   4.394   8.995  0.0114 -0.1333  0.2136
47088SOL    HW145821  11.284   4.387   8.899  0.7464  1.1423  0.0798
47088SOL    HW245822  11.277   4.304   9.026  2.0950 -0.8348 -1.0858
47089SOL     OW45823   7.224   3.071   4.386  0.5515  0.0145  0.2897
47089SOL    HW145824   7.244   3.154   4.343  1.8490 -0.5892 -0.3291
47089SOL    HW245825   7.300   3.054   4.442  1.0330 -1.4781 -0.7562
47090SOL     OW45826   3.972   6.951   4.642 -0.2343  0.4807 -0.2360
47090SOL    HW145827   3.943   6.943   4.733 -2.1798  2.1806 -0.6266
47090SOL    HW245828   4.067   6.938   4.645 -0.2872  0.2979  1.9918
47091SOL     OW45829   7.281   0.093   6.445 -1.0742  0.4571 -0.9113
47091SOL    HW145830   7.374   0.093   6.466 -1.2156  1.2677 -0.2402
47091SOL    HW245831   7.249   0.010   6.481 -0.5995  0.1404 -1.2134
47092SOL     OW45832   4.295   8.999   7.561  0.3584 -0.3313 -0.3060
47092SOL    HW145833   4.246   8.941   7.620  1.3780 -1.4750 -0.5557
47092SOL    HW245834   4.383   8.962   7.559  0.6321  0.3621 -1.6626
47093SOL     OW45835   5.025   8.531   5.484  0.1788 -0.3081 -0.3756
47093SOL    HW145836   4.990   8.473   5.417 -0.8870 -0.0714 -0.0431
47093SOL    HW245837   5.077   8.474   5.540  0.3191 -0.6741 -0.8728
47094SOL     OW45838  11.908   7.712   7.855 -0.3585  0.1533 -0.3981
47094SOL    HW145839  11.980   7.772   7.836 -0.3318  0.4916  0.6925
47094SOL    HW245840  11.846   7.725   7.783  0.4652  0.1777 -1.1112
47095SOL     OW45841   7.079  10.311  11.106 -0.3333  0.0210 -0.5381
47095SOL    HW145842   7.087  10.239  11.043 -1.3822  1.0015 -1.8322
47095SOL    HW245843   7.157  10.365  11.091 -0.5141  0.1813 -0.9006
47096SOL     OW45844  10.673   3.170   9.906  0.7199 -0.5460 -0.0148
47096SOL    HW145845  10.659   3.140   9.996 -3.1359 -0.5770 -0.4282
47096SOL    HW245846  10.584   3.183   9.872  2.0427 -0.1302 -3.7099
47097SOL     OW45847   1.562   5.585   8.157 -0.5950  0.1704  0.3464
47097SOL    HW145848   1.558   5.570   8.252  0.6710 -0.1078  0.3775
47097SOL    HW245849   1.647   5.550   8.131 -1.0222  0.0329 -0.9422
47098SOL     OW45850  10.405   1.749   3.555 -0.0029 -0.4269  0.1601
47098SOL    HW145851  10.431   1.760   3.646  0.1658  0.3577  0.0258
47098SOL    HW245852  10.351   1.670   3.555 -1.6470  0.6058  1.2957
47099SOL     OW45853   4.877   5.223   4.165 -0.2483  0.5717 -0.0277
47099SOL    HW145854   4.907   5.145   4.211 -1.5075  0.3653  0.4757
47099SOL    HW245855   4.875   5.292   4.232  2.4347  1.5415 -0.7822
47100SOL     OW45856   0.248   8.462   6.935  0.2393  0.6759 -0.1274
47100SOL    HW145857   0.230   8.466   6.841  0.8421 -0.2467 -0.2869
47100SOL    HW245858   0.286   8.548   6.955 -1.2707  1.4532 -0.4090
47101SOL     OW45859   0.424   5.459   6.349  0.1834 -0.2423  0.2834
47101SOL    HW145860   0.437   5.367   6.371 -2.8322 -0.6266  0.8746
47101SOL    HW245861   0.398   5.458   6.257  0.0737  0.0146  0.3121
47102SOL     OW45862   1.483   2.574   1.212 -0.1402  0.0084 -0.0284
47102SOL    HW145863   1.525   2.504   1.262 -0.9634  0.3426  1.1870
47102SOL    HW245864   1.407   2.600   1.266  0.9530  2.8253  0.3461
47103SOL     OW45865  11.926   0.207  10.683 -0.4583  0.0504  0.2761
47103SOL    HW145866  11.833   0.209  10.659 -0.9932  1.9192  2.1379
47103SOL    HW245867  11.926   0.193  10.777  0.9897  2.1412  0.6697
47104SOL     OW45868   0.965   2.486   9.229  0.5724 -0.3619 -0.2579
47104SOL    HW145869   0.921   2.540   9.295  0.8746 -1.7660  1.1522
47104SOL    HW245870   0.902   2.481   9.156 -0.5337 -0.2248  0.6557
47105SOL     OW45871   0.812   0.514   6.795  0.6144 -0.3909 -0.2315
47105SOL    HW145872   0.717   0.519   6.779  0.7325  0.4263 -0.7339
47105SOL    HW245873   0.821   0.531   6.889  0.3807  1.5035 -0.4983
47106SOL     OW45874   8.506   8.512   8.603  0.0858 -0.3011 -0.4577
47106SOL    HW145875   8.469   8.579   8.660  0.7021 -1.5916  1.5589
47106SOL    HW245876   8.600   8.518   8.617  0.2574 -0.5692 -1.4486
47107SOL     OW45877   1.809  11.428   7.791  0.5188 -0.0683 -0.2510
47107SOL    HW145878   1.750  11.356   7.810  0.7045 -0.0062  0.5809
47107SOL    HW245879   1.819  11.426   7.696  0.9479 -1.4916 -0.2062
47108SOL     OW45880   7.636   2.523   0.882  0.4245  0.2283 -0.0310
47108SOL    HW145881   7.646   2.467   0.959 -1.4190 -0.1254  0.0085
47108SOL    HW245882   7.665   2.609   0.911  1.2219 -0.2377  0.5830
47109SOL     OW45883   9.301   1.877   4.022 -0.2253  0.1520  0.8941
47109SOL    HW145884   9.294   1.813   3.951 -2.1324  2.1766 -0.9202
47109SOL    HW245885   9.210   1.900   4.042  0.3587  2.7753  0.9417
47110SOL     OW45886   4.116   0.141   1.022  0.6484 -0.4652  1.0718
47110SOL    HW145887   4.023   0.127   1.041  0.5057 -1.7936 -0.3622
47110SOL    HW245888   4.162   0.096   1.092  0.1759 -1.7607  0.5810
47111SOL     OW45889   5.675   0.593   9.272 -0.6941 -0.3612  0.7037
47111SOL    HW145890   5.679   0.591   9.368  0.7134 -1.3041  0.6646
47111SOL    HW245891   5.601   0.649   9.252 -0.1958  0.9657  2.3468
47112SOL     OW45892   9.828   1.309   5.393 -0.3709  0.5074 -0.2891
47112SOL    HW145893   9.893   1.243   5.367  0.2508  1.2299 -0.6002
47112SOL    HW245894   9.862   1.345   5.474 -1.2223 -0.2361  0.4219
47113SOL     OW45895  10.376  11.342   0.539 -0.0233 -0.7067  0.4808
47113SOL    HW145896  10.354  11.341   0.446  0.0859 -1.4981  0.4608
47113SOL    HW245897  10.308  11.290   0.581 -0.3672  0.0758  0.9186
47114SOL     OW45898   9.532   8.189   6.209  0.0460  0.0214 -0.6800
47114SOL    HW145899   9.523   8.275   6.250 -0.1675 -0.1400 -0.3853
47114SOL    HW245900   9.499   8.202   6.121  2.1584  0.8292 -1.4335
47115SOL     OW45901   3.086   1.827  12.105 -0.8143  0.0118  0.0059
47115SOL    HW145902   3.088   1.875  12.022  0.2499 -2.0125 -1.2077
47115SOL    HW245903   3.123   1.741  12.084 -0.2422 -0.4718  2.6497
47116SOL     OW45904   7.017   5.812   5.116  0.1351  0.0392 -0.6322
47116SOL    HW145905   7.055   5.864   5.186  0.8901 -0.4661 -0.6504
47116SOL    HW245906   7.092   5.783   5.064 -0.2797 -0.8998 -0.7325
47117SOL     OW45907   0.926   3.050   8.080  0.0017  0.0733 -0.3807
47117SOL    HW145908   0.919   3.053   7.985  1.6575 -0.5284 -0.5566
47117SOL    HW245909   1.017   3.024   8.096 -0.5641 -0.9736  1.3471
47118SOL     OW45910   3.425   1.479   4.827 -0.1227  0.0008 -0.2999
47118SOL    HW145911   3.519   1.492   4.821  0.0404 -0.2468  1.3056
47118SOL    HW245912   3.403   1.424   4.752  1.0015  0.1019 -0.7166
47119SOL     OW45913   8.362   5.452  10.824 -0.3756 -0.2452 -0.0002
47119SOL    HW145914   8.322   5.387  10.766 -1.3774 -1.1044  1.5749
47119SOL    HW245915   8.311   5.532  10.809  0.5598  0.0907 -1.5998
47120SOL     OW45916   6.108   4.264   0.761 -0.5520  0.7114 -0.1271
47120SOL    HW145917   6.122   4.245   0.669 -1.8197 -0.2093 -0.1567
47120SOL    HW245918   6.186   4.230   0.805  0.0672  1.1785 -0.8402
47121SOL     OW45919   6.970   0.469   6.937 -0.2709  0.3135  0.1282
47121SOL    HW145920   7.059   0.487   6.907  0.1964  0.6472  1.6386
47121SOL    HW245921   6.919   0.546   6.911 -0.2513 -0.0654 -1.1251
47122SOL     OW45922   7.851  10.153  10.554 -0.3959 -0.5771  0.0936
47122SOL    HW145923   7.918  10.085  10.549  0.6457  0.2432  1.9020
47122SOL    HW245924   7.900  10.234  10.570 -1.6989  0.3911 -0.5829
47123SOL     OW45925   4.169   5.259   6.450  0.4045 -0.0028 -0.2391
47123SOL    HW145926   4.084   5.302   6.451 -0.3490 -1.4103 -0.5811
47123SOL    HW245927   4.217   5.298   6.523 -1.0076 -0.0693  0.7582
47124SOL     OW45928   3.494  11.678  11.768 -0.0561 -0.0477 -0.4068
47124SOL    HW145929   3.550  11.706  11.695  1.4627 -0.5882  0.5052
47124SOL    HW245930   3.548  11.617  11.818 -0.8975  0.6363  1.4288
47125SOL     OW45931   0.213   6.341   4.164  0.3921  0.3226 -0.5011
47125SOL    HW145932   0.208   6.265   4.222 -1.4469  0.8788  0.1620
47125SOL    HW245933   0.263   6.406   4.213  1.9674 -0.4119 -1.0691
47126SOL     OW45934   8.642   0.974   3.634 -0.2735 -0.4428 -0.3789
47126SOL    HW145935   8.687   1.033   3.573 -2.5189  1.7501 -0.0819
47126SOL    HW245936   8.569   0.939   3.583  0.9666 -3.0228 -0.5152
47127SOL     OW45937   6.473  10.015   3.859  0.9888  0.4013 -0.1870
47127SOL    HW145938   6.541  10.045   3.798  1.1587  1.2307  0.3951
47127SOL    HW245939   6.399  10.073   3.844  0.6820 -0.0109 -0.2785
47128SOL     OW45940   8.642   2.077   5.956 -0.4125 -0.5419 -0.2063
47128SOL    HW145941   8.602   2.032   6.030 -1.6775 -1.2265 -1.2537
47128SOL    HW245942   8.598   2.161   5.952  1.6005  0.6690  1.4469
47129SOL     OW45943   8.034   9.918   2.118 -0.5165 -0.0851 -0.1148
47129SOL    HW145944   7.995   9.915   2.205  0.5967  0.5128  0.4323
47129SOL    HW245945   7.981   9.981   2.070 -1.1588 -0.4467  0.1106
47130SOL     OW45946   9.412  11.916  10.834 -0.2474 -0.2718  0.0721
47130SOL    HW145947   9.449  11.835  10.870 -0.2622  0.5854  2.1342
47130SOL    HW245948   9.322  11.894  10.813 -0.2018 -0.8291  0.4435
47131SOL     OW45949   7.373   6.489  11.710  0.2655  0.0793 -0.1972
47131SOL    HW145950   7.418   6.494  11.625 -1.1011  1.2996 -0.8791
47131SOL    HW245951   7.305   6.423  11.698 -1.7023  2.1454 -0.9722
47132SOL     OW45952   7.496   6.095   8.102  0.3834  0.1932 -0.6568
47132SOL    HW145953   7.451   6.173   8.069 -0.4821 -0.0559 -0.1026
47132SOL    HW245954   7.533   6.054   8.024  1.4958  1.5316 -0.8745
47133SOL     OW45955   8.654   1.472   6.412  0.7006 -0.0945 -0.0557
47133SOL    HW145956   8.559   1.482   6.422  0.4915 -0.7103 -1.2493
47133SOL    HW245957   8.680   1.417   6.485  0.2965  0.8336  0.8112
47134SOL     OW45958   2.605  10.722  11.964  0.3172 -0.2415 -0.1664
47134SOL    HW145959   2.645  10.648  11.920 -1.9027 -2.5931  1.4886
47134SOL    HW245960   2.542  10.757  11.901  1.3516  0.2906 -0.9395
47135SOL     OW45961   0.109   1.523   0.169 -0.2884 -0.1354  0.2959
47135SOL    HW145962   0.198   1.548   0.146 -0.1819  0.1089  0.9522
47135SOL    HW245963   0.054   1.593   0.132 -0.2938 -0.7024 -0.8170
47136SOL     OW45964   2.085   1.357   5.052 -0.3197  0.2529  0.3361
47136SOL    HW145965   2.043   1.317   4.976 -0.2353  1.8802 -0.6138
47136SOL    HW245966   2.073   1.451   5.039  1.4620  0.6547  1.2980
47137SOL     OW45967   3.964   8.749   0.298 -0.3217 -0.1984  0.0804
47137SOL    HW145968   3.918   8.716   0.375  0.6866  2.1137  1.8088
47137SOL    HW245969   4.053   8.765   0.328  0.0767  0.9179 -1.5413
47138SOL     OW45970   6.903   9.529   4.789  0.9701  0.1501 -0.0260
47138SOL    HW145971   6.871   9.441   4.770 -2.4116  1.5373 -1.6178
47138SOL    HW245972   6.876   9.545   4.879  1.7865 -0.4442  0.3437
47139SOL     OW45973   9.490   7.026   3.850  0.3587  0.3907 -0.3558
47139SOL    HW145974   9.482   7.113   3.810  0.4024  0.1442 -0.9027
47139SOL    HW245975   9.486   7.043   3.944 -1.4867  0.8096 -0.4645
47140SOL     OW45976   5.119   0.419   8.612 -0.3334 -0.2639  0.0790
47140SOL    HW145977   5.205   0.460   8.615 -0.5201  0.0703  1.8189
47140SOL    HW245978   5.065   0.479   8.560  0.1937  0.0780 -0.0767
47141SOL     OW45979   6.847   5.602   6.508  0.6694  0.5380 -0.0654
47141SOL    HW145980   6.890   5.651   6.578  1.9830 -1.1456  0.3581
47141SOL    HW245981   6.882   5.513   6.515 -1.2141 -0.3507 -1.1594
47142SOL     OW45982   1.823   5.469   7.495  0.0639 -0.3970 -0.0663
47142SOL    HW145983   1.878   5.412   7.442  0.7079 -0.5325  0.7087
47142SOL    HW245984   1.734   5.441   7.477  0.2320 -0.1658 -1.3658
47143SOL     OW45985  10.018   8.784   0.477  0.2670  0.0024  0.5232
47143SOL    HW145986  10.062   8.699   0.484  0.5783  0.0996 -0.0732
47143SOL    HW245987   9.930   8.764   0.447  0.6898 -0.0626 -0.7549
47144SOL     OW45988   5.218   9.165   2.242 -0.0899  0.0041  0.2014
47144SOL    HW145989   5.222   9.208   2.157 -0.9481 -1.1327 -0.4542
47144SOL    HW245990   5.220   9.072   2.222  1.4021 -0.3040  1.5517
47145SOL     OW45991   0.495  11.481   5.454 -0.0441  0.2533  0.2205
47145SOL    HW145992   0.521  11.562   5.410 -0.0880 -0.2464 -0.7412
47145SOL    HW245993   0.569  11.460   5.511  0.5781  0.2196 -0.5795
47146SOL     OW45994   2.748   3.138   4.172 -0.3158  0.0347 -0.2837
47146SOL    HW145995   2.755   3.066   4.108  0.0861 -0.3472  0.1779
47146SOL    HW245996   2.687   3.200   4.132  1.8058  1.0512 -2.2393
47147SOL     OW45997   3.359   4.733   7.708  0.0501 -0.4715  0.0501
47147SOL    HW145998   3.421   4.806   7.710  0.5978 -0.9427  1.7759
47147SOL    HW245999   3.273   4.776   7.715  0.1090  0.1820 -2.3851
47148SOL     OW46000   0.320   2.841   7.978  0.3720 -0.5329  0.2870
47148SOL    HW146001   0.232   2.846   8.015  0.7963 -1.0894  1.4079
47148SOL    HW246002   0.349   2.751   7.996  0.8102 -0.6605 -0.9285
47149SOL     OW46003   4.818  11.143   6.840 -0.2693 -0.4241  0.0031
47149SOL    HW146004   4.768  11.096   6.773  0.2798 -2.6066  1.0169
47149SOL    HW246005   4.783  11.109   6.923 -0.1561  1.3667  0.8155
47150SOL     OW46006   0.598   9.605   8.501  0.4015 -0.0519  0.0222
47150SOL    HW146007   0.657   9.680   8.513 -0.0965  0.5903 -1.3362
47150SOL    HW246008   0.515   9.644   8.475 -0.2587 -1.0248  0.6099
47151SOL     OW46009   6.609   1.454  10.059  0.1006  0.1676  0.2466
47151SOL    HW146010   6.684   1.397  10.076 -0.6808 -1.0091 -0.0757
47151SOL    HW246011   6.569   1.468  10.144  0.6991  0.8389  0.4269
47152SOL     OW46012   8.394   5.361   5.371 -0.5302  0.2386  0.5511
47152SOL    HW146013   8.345   5.377   5.452  0.3651  1.7923  0.8331
47152SOL    HW246014   8.474   5.412   5.382  0.2745 -0.7123 -0.7135
47153SOL     OW46015   9.734   7.317   3.950  0.0870 -0.0054  0.1447
47153SOL    HW146016   9.698   7.236   3.984  0.0469  0.4172  1.1434
47153SOL    HW246017   9.661   7.359   3.905 -0.1769 -0.0186  0.5599
47154SOL     OW46018   4.113  10.838   0.465  0.1858 -0.1418 -0.4092
47154SOL    HW146019   4.140  10.906   0.527 -3.1446 -0.1144  1.2099
47154SOL    HW246020   4.152  10.758   0.499  0.9891  0.3433 -0.1428
47155SOL     OW46021   6.890  11.498   8.974  0.4975 -0.4427 -0.1502
47155SOL    HW146022   6.869  11.530   8.886 -2.1181 -0.9136  0.2286
47155SOL    HW246023   6.914  11.576   9.023 -2.3249  0.5304 -0.1709
47156SOL     OW46024   6.893   7.036  10.025 -0.4665  0.0485  0.0781
47156SOL    HW146025   6.840   7.104  10.066 -2.1078 -1.8221  1.2566
47156SOL    HW246026   6.837   7.000   9.956  0.5206  0.1330 -0.7835
47157SOL     OW46027   8.591  11.705   9.896  0.6863  0.5838 -0.6956
47157SOL    HW146028   8.576  11.778   9.836 -3.0312  0.0939 -0.5952
47157SOL    HW246029   8.584  11.626   9.842  0.0901  0.2105 -0.0994
47158SOL     OW46030   9.748   3.658  10.152 -0.1420 -0.5787 -0.4313
47158SOL    HW146031   9.670   3.625  10.196 -0.1118 -0.2442 -0.1163
47158SOL    HW246032   9.801   3.581  10.135 -0.6434 -0.8379 -0.8542
47159SOL     OW46033   6.161  10.842   9.991 -1.0041 -0.0867 -0.0378
47159SOL    HW146034   6.074  10.804   9.997 -2.0650  2.1720 -0.1162
47159SOL    HW246035   6.148  10.935  10.008  1.6654  0.0707  1.8919
47160SOL     OW46036   8.072   8.555   3.539  0.2816  0.1381  0.1978
47160SOL    HW146037   8.104   8.628   3.485 -1.3719  0.4041 -0.4818
47160SOL    HW246038   8.137   8.486   3.526 -0.3500 -0.0457 -2.7442
47161SOL     OW46039  11.037   0.676   5.309  0.2418 -0.5069 -0.5898
47161SOL    HW146040  11.072   0.682   5.398  0.5012 -3.0361 -0.4571
47161SOL    HW246041  10.949   0.712   5.316  0.6774  0.4415  0.3938
47162SOL     OW46042  10.713   3.817   1.719 -0.1392 -0.7640  0.1059
47162SOL    HW146043  10.762   3.897   1.698 -2.5626  1.2147  1.4657
47162SOL    HW246044  10.639   3.817   1.658 -1.6642 -0.4315  1.8884
47163SOL     OW46045   1.723   1.861   4.815 -0.0135 -0.3685  0.2716
47163SOL    HW146046   1.631   1.833   4.817  0.2528 -1.2422  1.1073
47163SOL    HW246047   1.773   1.780   4.824  0.8997 -0.0998 -1.8850
47164SOL     OW46048   8.441   6.703   0.574 -0.3023 -0.2919  0.4414
47164SOL    HW146049   8.396   6.618   0.568 -1.0380  0.1021  0.3200
47164SOL    HW246050   8.426   6.744   0.488  1.1555 -0.5752  0.0264
47165SOL     OW46051   6.901   2.041   9.904  0.3375  0.0942 -0.2726
47165SOL    HW146052   6.919   2.133   9.925  1.2760 -0.0814 -0.2408
47165SOL    HW246053   6.830   2.045   9.840 -2.1878  0.6573  2.3756
47166SOL     OW46054   3.657   0.437   6.303 -0.0396 -0.1203  0.0970
47166SOL    HW146055   3.583   0.408   6.358  0.4880 -0.0624  0.8601
47166SOL    HW246056   3.629   0.420   6.214 -0.8738 -0.3518  0.3943
47167SOL     OW46057   9.650   2.257   8.794 -0.7577  0.0543  0.0590
47167SOL    HW146058   9.740   2.285   8.811 -1.2382  0.8812  1.3476
47167SOL    HW246059   9.659   2.190   8.726  0.8915 -0.3559  0.6228
47168SOL     OW46060  11.040  11.549   8.568  0.1534 -0.5323  0.0690
47168SOL    HW146061  11.051  11.461   8.531 -3.0653 -1.6210  1.2733
47168SOL    HW246062  11.026  11.606   8.493  1.6821 -1.1207 -0.7009
47169SOL     OW46063   1.031   3.030  10.394  0.0485  0.3158 -0.9184
47169SOL    HW146064   1.076   3.036  10.309  1.7258 -0.1394 -0.1125
47169SOL    HW246065   1.016   2.936  10.406  0.1944  0.3408 -0.5237
47170SOL     OW46066   0.832  11.580  10.919 -0.4318  0.3827 -0.8097
47170SOL    HW146067   0.760  11.643  10.929 -0.7125 -0.1724  1.0723
47170SOL    HW246068   0.851  11.551  11.009  1.1759 -0.5671 -1.4174
47171SOL     OW46069  11.599   3.077   1.184 -0.8978 -0.3600  0.0337
47171SOL    HW146070  11.624   3.132   1.110 -1.8373  1.1187  0.7725
47171SOL    HW246071  11.681   3.034   1.211 -0.2066  0.4402 -0.7435
47172SOL     OW46072   8.550   4.489   3.589 -0.2830  0.4130  0.2701
47172SOL    HW146073   8.622   4.534   3.545 -0.3880  0.2667 -0.0561
47172SOL    HW246074   8.501   4.447   3.518 -0.6324  0.4286  0.4980
47173SOL     OW46075   5.361   3.534   1.758 -0.2509  0.3576  0.3896
47173SOL    HW146076   5.405   3.534   1.843 -1.1306  1.0517  0.8719
47173SOL    HW246077   5.316   3.619   1.755 -1.1268 -0.1150 -0.2945
47174SOL     OW46078   9.539   8.282   1.732 -0.6956  0.5561 -0.0987
47174SOL    HW146079   9.469   8.218   1.752 -1.7068  1.7088  0.1787
47174SOL    HW246080   9.576   8.304   1.818  0.1197 -0.1441 -0.2562
47175SOL     OW46081   9.183   3.195   2.753  0.1906 -0.1505 -0.0384
47175SOL    HW146082   9.197   3.289   2.739  0.1419 -0.3748 -1.7419
47175SOL    HW246083   9.261   3.167   2.801  0.7221  0.5623 -0.4602
47176SOL     OW46084  11.865   0.668  10.506  0.8644  0.0830  0.1205
47176SOL    HW146085  11.950   0.655  10.464  0.6668  0.0657 -0.2776
47176SOL    HW246086  11.855   0.594  10.566  1.4610  0.4785  0.7262
47177SOL     OW46087   8.449   4.583   4.796 -0.4975  0.5149  0.2759
47177SOL    HW146088   8.404   4.634   4.728 -0.8009 -0.2743 -0.1269
47177SOL    HW246089   8.533   4.628   4.808  0.7952 -0.8624 -2.6249
47178SOL     OW46090   8.463   5.931   0.871  0.0388  0.2731  0.7157
47178SOL    HW146091   8.508   5.892   0.796  1.5456 -0.1093  1.7841
47178SOL    HW246092   8.532   5.947   0.935 -1.1632  0.9309  1.8929
47179SOL     OW46093   8.762   6.353   6.787  0.0964  0.5458 -0.1553
47179SOL    HW146094   8.751   6.331   6.695  0.4404  1.7052 -0.4970
47179SOL    HW246095   8.829   6.293   6.819  0.3877  0.5070 -0.8209
47180SOL     OW46096  11.827   7.818   5.808 -0.1451 -0.2419 -0.1985
47180SOL    HW146097  11.762   7.782   5.747  0.6976 -0.4714 -0.9771
47180SOL    HW246098  11.900   7.755   5.805 -0.0965 -0.2640  1.0649
47181SOL     OW46099   1.653   1.331   5.441  0.1367 -0.1765 -0.2043
47181SOL    HW146100   1.685   1.355   5.354 -0.2709 -0.9775 -0.5857
47181SOL    HW246101   1.561   1.308   5.428 -0.2272  0.7124  0.6338
47182SOL     OW46102  11.992   4.259   2.504 -0.2648  0.2707 -0.1206
47182SOL    HW146103  11.930   4.224   2.568  0.8433 -0.6152  0.4941
47182SOL    HW246104  11.995   4.194   2.434 -0.8597  0.8527 -0.7078
47183SOL     OW46105   5.452   3.495   6.963  0.1041  0.2902  0.0316
47183SOL    HW146106   5.431   3.556   7.034  0.8418  0.0781  0.4426
47183SOL    HW246107   5.375   3.438   6.956 -0.2030  0.6664  0.2747
47184SOL     OW46108   4.276   7.727   4.044 -0.2876 -0.1845  0.1165
47184SOL    HW146109   4.232   7.690   3.967  1.2757 -0.0931 -0.8731
47184SOL    HW246110   4.270   7.658   4.110  0.8107 -1.4328 -1.0316
47185SOL     OW46111   3.501   3.572   2.084 -0.3353  0.0642 -0.1307
47185SOL    HW146112   3.429   3.627   2.116  0.0542  0.6144 -0.1850
47185SOL    HW246113   3.463   3.485   2.078 -0.1597 -0.3601  2.9582
47186SOL     OW46114   2.500  10.547   7.763  0.2090 -0.2979  0.4321
47186SOL    HW146115   2.575  10.488   7.777  1.5930  1.3787  0.4330
47186SOL    HW246116   2.531  10.632   7.796 -1.8051  0.3855  0.6578
47187SOL     OW46117  10.840   0.819   0.753 -0.8570 -0.1006 -0.1703
47187SOL    HW146118  10.922   0.848   0.792 -1.4824  3.7492 -1.3025
47187SOL    HW246119  10.777   0.819   0.825 -0.4162 -0.5797  0.2175
47188SOL     OW46120   5.119   9.564   0.855  0.7050  0.0678 -0.1568
47188SOL    HW146121   5.112   9.596   0.765  1.0370 -0.2548 -0.3000
47188SOL    HW246122   5.211   9.540   0.865  0.9621  1.3235  0.6982
47189SOL     OW46123   3.055   7.754   2.344 -0.2586 -0.3366 -0.7177
47189SOL    HW146124   3.116   7.690   2.378  0.2313  0.9995  1.0348
47189SOL    HW246125   3.038   7.725   2.254 -0.2188 -2.9911  0.0483
47190SOL     OW46126   1.957   8.807   4.408 -0.2257  0.6385 -0.2605
47190SOL    HW146127   1.971   8.811   4.314  0.2502 -1.4151 -0.3355
47190SOL    HW246128   1.879   8.752   4.418 -0.0311  0.4959  0.5488
47191SOL     OW46129  10.833   3.492   2.668 -0.2275  0.0559  0.2776
47191SOL    HW146130  10.805   3.480   2.577  0.3887  1.0285 -0.0514
47191SOL    HW246131  10.766   3.550   2.705  0.1976  0.6792  0.0820
47192SOL     OW46132  11.286   2.178   0.379 -0.1325 -0.1476 -0.0979
47192SOL    HW146133  11.216   2.243   0.380 -1.5916 -1.6518  0.9160
47192SOL    HW246134  11.278   2.135   0.294 -0.2776 -0.1707 -0.0718
47193SOL     OW46135  11.445   6.903   0.595  0.3753 -0.7105  0.4133
47193SOL    HW146136  11.521   6.861   0.553  1.7429  1.1783  0.8942
47193SOL    HW246137  11.463   6.896   0.689 -0.6294 -1.2535  0.5737
47194SOL     OW46138  11.075   1.833   0.056  0.2873 -0.1302 -0.4580
47194SOL    HW146139  11.118   1.751   0.078  1.0014  0.3128 -0.1619
47194SOL    HW246140  10.993   1.807   0.015  0.5327 -0.9868 -0.4209
47195SOL     OW46141   1.979   2.745   4.470  0.1321  0.3842 -0.2511
47195SOL    HW146142   1.966   2.778   4.381  0.3580  0.1491 -0.3731
47195SOL    HW246143   2.052   2.796   4.504  0.5240 -0.0302 -0.4630
47196SOL     OW46144   7.003   5.609   7.979 -0.1879  0.8893 -0.6049
47196SOL    HW146145   7.042   5.667   7.914  0.3232  0.8241 -0.3637
47196SOL    HW246146   7.036   5.522   7.957 -0.8402  0.7083 -0.8801
47197SOL     OW46147   1.113  10.812   1.016 -0.0737  0.1160 -0.5027
47197SOL    HW146148   1.037  10.804   1.074  1.0641  3.5164  1.7920
47197SOL    HW246149   1.180  10.758   1.057  0.1642  1.0512  0.4010
47198SOL     OW46150   9.778   9.083   3.373 -0.1809 -0.8004  0.5766
47198SOL    HW146151   9.831   9.024   3.319  0.6137  0.8267 -0.4914
47198SOL    HW246152   9.709   9.027   3.408 -0.1627 -2.1388 -1.3464
47199SOL     OW46153   1.851   4.736   8.299 -0.4363  0.1692  0.3626
47199SOL    HW146154   1.759   4.737   8.272 -0.7922  1.0445  1.5486
47199SOL    HW246155   1.884   4.652   8.268 -1.5467 -0.0165 -0.3645
47200SOL     OW46156   2.725   4.082   9.440  0.5451  0.3263  0.2242
47200SOL    HW146157   2.639   4.108   9.407 -0.1425 -1.4404  0.5309
47200SOL    HW246158   2.753   4.012   9.381  2.1883  1.4261 -0.3834
47201SOL     OW46159   8.671   9.257   7.428  0.6037 -0.9063  0.0975
47201SOL    HW146160   8.581   9.276   7.455  0.8568 -0.4094  0.6140
47201SOL    HW246161   8.713   9.224   7.507  0.4273 -2.8394 -0.5563
47202SOL     OW46162   4.059   1.501   8.923  0.2202 -0.2721 -0.0477
47202SOL    HW146163   4.051   1.586   8.880  1.3467 -0.6981 -1.1773
47202SOL    HW246164   4.093   1.521   9.010 -1.9533  0.5970  0.6785
47203SOL     OW46165   2.455  11.603   6.116 -0.0114 -0.5270 -0.0506
47203SOL    HW146166   2.500  11.669   6.169 -0.1941  0.0904 -0.6567
47203SOL    HW246167   2.407  11.550   6.180 -1.2765  0.9962  0.3219
47204SOL     OW46168   7.826   5.289   5.823  0.3497  0.3370 -0.3192
47204SOL    HW146169   7.756   5.239   5.782 -0.1613 -0.5157  1.4747
47204SOL    HW246170   7.788   5.374   5.844 -0.2993 -0.2357  0.9429
47205SOL     OW46171   5.829   6.178   9.505 -0.0856 -0.7060  0.1935
47205SOL    HW146172   5.881   6.257   9.518 -1.1366  0.2138 -0.9963
47205SOL    HW246173   5.892   6.113   9.475  0.6615 -0.1106  0.4483
47206SOL     OW46174   3.009  11.881  10.791 -0.0070 -0.0776  0.1641
47206SOL    HW146175   3.083  11.821  10.789 -0.0227 -0.0943  0.0351
47206SOL    HW246176   2.950  11.848  10.722  0.5731  0.8250 -0.7959
47207SOL     OW46177  11.601   8.452   5.569  0.5921  0.9458  0.0616
47207SOL    HW146178  11.627   8.534   5.611  0.2208  1.0023  0.1829
47207SOL    HW246179  11.523   8.475   5.518 -1.9634 -0.1258  3.1747
47208SOL     OW46180   9.972   9.815   7.662 -0.5925 -0.5341 -0.2529
47208SOL    HW146181  10.058   9.804   7.622 -1.1447  1.0664 -2.0184
47208SOL    HW246182   9.939   9.725   7.672  0.4839 -1.0839 -1.3859
47209SOL     OW46183  10.373   6.250   0.863  0.0144  0.6799 -0.4941
47209SOL    HW146184  10.452   6.198   0.853  0.3624  1.1947 -0.4885
47209SOL    HW246185  10.308   6.207   0.807 -0.5230 -1.3253  1.5579
47210SOL     OW46186   1.094   2.252   0.780 -0.2974  0.4751  0.9014
47210SOL    HW146187   1.106   2.304   0.859  0.2280  1.0625  0.4406
47210SOL    HW246188   1.090   2.161   0.811 -0.7569  0.7460  1.6610
47211SOL     OW46189   0.560   2.379   2.552  0.1701  0.4074 -0.1689
47211SOL    HW146190   0.530   2.431   2.627 -1.8538 -0.8475 -0.0360
47211SOL    HW246191   0.624   2.318   2.589  0.0706  0.5826  0.2967
47212SOL     OW46192   7.148   8.463   8.852 -0.8266  0.7783  0.0181
47212SOL    HW146193   7.072   8.469   8.909 -0.9285 -0.5649  0.0405
47212SOL    HW246194   7.219   8.434   8.909 -1.1386 -1.4949 -0.6526
47213SOL     OW46195   7.233  10.936  11.652  0.5038 -0.1690 -0.2574
47213SOL    HW146196   7.158  10.882  11.626 -0.9615  1.2154  0.8501
47213SOL    HW246197   7.294  10.928  11.579 -1.0003 -0.8693 -1.5146
47214SOL     OW46198   9.026   5.016   4.798  0.0665  0.1470 -0.0493
47214SOL    HW146199   9.022   5.008   4.703  0.3588 -0.2500 -0.0296
47214SOL    HW246200   8.963   5.085   4.819  1.4758  1.6885 -0.7096
47215SOL     OW46201   2.001   2.209  10.731  0.2191 -0.0122 -0.5894
47215SOL    HW146202   1.966   2.296  10.750  1.8757  0.9638 -1.7251
47215SOL    HW246203   1.990   2.199  10.637  0.8633 -0.6303 -0.6067
47216SOL     OW46204   6.088   1.752   4.526  0.5518 -0.1685  0.3007
47216SOL    HW146205   6.085   1.763   4.431  0.4199 -1.4613  0.1300
47216SOL    HW246206   6.024   1.683   4.544  0.2581  0.3582  1.3851
47217SOL     OW46207   9.920  10.866   4.127 -0.0685 -0.3027 -0.1054
47217SOL    HW146208   9.919  10.851   4.221  3.8264  0.5109  0.2220
47217SOL    HW246209   9.884  10.955   4.117  0.3148 -0.0430  0.7346
47218SOL     OW46210   8.260   8.965   2.305  0.0068  0.0882 -0.0218
47218SOL    HW146211   8.239   9.034   2.368 -1.5062 -0.1872 -0.1955
47218SOL    HW246212   8.201   8.980   2.231  1.7601  0.4229 -1.4463
47219SOL     OW46213   9.802   7.490   4.786 -0.6871  0.5728  0.2759
47219SOL    HW146214   9.723   7.492   4.839 -0.8622 -3.5497  0.5222
47219SOL    HW246215   9.864   7.437   4.837  0.4013 -0.5567 -2.0229
47220SOL     OW46216   8.051  10.948  11.584  0.1603  0.2289 -0.5102
47220SOL    HW146217   8.069  11.041  11.577 -1.0488  0.4344 -1.0786
47220SOL    HW246218   8.127  10.912  11.631  0.5955  1.4964 -0.2167
47221SOL     OW46219   7.353  10.380   7.618  0.0899 -0.0136  0.1207
47221SOL    HW146220   7.330  10.328   7.695 -1.9128  0.5864 -0.0162
47221SOL    HW246221   7.286  10.358   7.553  0.4982  1.0858 -0.7050
47222SOL     OW46222   3.201   1.986  11.300  0.0655  0.5472 -0.2048
47222SOL    HW146223   3.289   1.948  11.301  0.1974  0.8535  0.2367
47222SOL    HW246224   3.182   1.998  11.207  0.4622  0.4107 -0.3083
47223SOL     OW46225   6.178   3.929   3.038 -0.2034 -0.0556  0.5659
47223SOL    HW146226   6.086   3.932   3.063 -0.5176  1.1813 -0.6330
47223SOL    HW246227   6.226   3.927   3.122 -1.3009 -1.9843  1.2050
47224SOL     OW46228   3.627   2.164   6.241 -0.0496 -0.0729  0.0835
47224SOL    HW146229   3.603   2.124   6.325 -1.6671 -1.4338 -0.9612
47224SOL    HW246230   3.646   2.090   6.184 -0.1951  0.7789 -1.0871
47225SOL     OW46231   1.255   2.553   7.224 -0.0285  0.8241  0.4069
47225SOL    HW146232   1.275   2.468   7.184  0.4746  1.2113 -0.1948
47225SOL    HW246233   1.161   2.565   7.208 -0.3060 -0.0169  1.3025
47226SOL     OW46234  11.221   5.176   2.564  0.3082 -0.5195 -0.9133
47226SOL    HW146235  11.279   5.099   2.564  0.7913 -0.1586 -1.5546
47226SOL    HW246236  11.238   5.219   2.481  0.6859  0.7660 -0.1959
47227SOL     OW46237   7.475  12.022   4.734  0.0828  0.3101 -0.3429
47227SOL    HW146238   7.428  12.100   4.707  0.4415  0.1956 -1.3383
47227SOL    HW246239   7.560  12.029   4.690  0.5604 -0.0600  0.4963
47228SOL     OW46240   5.385   3.851   2.557  0.3866 -0.0397  0.0187
47228SOL    HW146241   5.374   3.791   2.631 -0.2568 -0.3287 -0.3084
47228SOL    HW246242   5.338   3.931   2.584 -1.0123 -0.6170 -0.6117
47229SOL     OW46243  10.302   3.198   8.700 -0.5369 -0.4440  0.8100
47229SOL    HW146244  10.334   3.260   8.635 -0.0799 -0.8870  0.5986
47229SOL    HW246245  10.377   3.184   8.759  0.3173 -2.8110 -0.6733
47230SOL     OW46246  12.115   9.318   3.363  0.3275 -0.1231  0.1370
47230SOL    HW146247  12.149   9.275   3.441 -0.8067  0.7558  1.1608
47230SOL    HW246248  12.056   9.253   3.323  0.1638 -0.2382  0.5635
47231SOL     OW46249   5.397   2.874   4.159  0.1911  0.1777  0.3400
47231SOL    HW146250   5.489   2.898   4.155  0.1002  0.3690 -1.9001
47231SOL    HW246251   5.355   2.925   4.089 -1.2751 -1.1790  0.1462
47232SOL     OW46252   4.676   7.491   6.733  0.7511  0.3632 -0.3234
47232SOL    HW146253   4.738   7.425   6.704  0.4418  0.0992 -0.3958
47232SOL    HW246254   4.669   7.478   6.828 -1.4953 -1.6712 -0.6681
47233SOL     OW46255   1.331   3.691   2.256  0.5153 -0.1268 -0.5656
47233SOL    HW146256   1.379   3.648   2.327  0.2230  1.5397  0.7217
47233SOL    HW246257   1.353   3.784   2.265 -2.6410  0.7074 -0.0420
47234SOL     OW46258   9.946   7.356   5.091  0.0949 -0.5469  0.6999
47234SOL    HW146259  10.019   7.311   5.135 -0.3167 -2.1896 -0.2287
47234SOL    HW246260   9.914   7.293   5.028  0.1409  1.4557 -1.4508
47235SOL     OW46261  11.168   0.512  10.611  0.2482  0.0764  0.5596
47235SOL    HW146262  11.194   0.502  10.519  0.7922 -1.3715  0.8404
47235SOL    HW246263  11.120   0.594  10.614  0.3552  0.2195 -0.9946
47236SOL     OW46264  10.390   0.534   6.999  0.1623 -0.4456  0.4301
47236SOL    HW146265  10.332   0.606   7.023 -1.0828 -1.4140  0.3671
47236SOL    HW246266  10.477   0.575   6.992 -0.9924  1.8058 -3.0506
47237SOL     OW46267   0.011   1.618   6.812  0.1593  0.2312  0.5891
47237SOL    HW146268  -0.002   1.692   6.754  0.1002  0.1253  0.4662
47237SOL    HW246269   0.069   1.650   6.881  2.2669 -0.3374 -0.8572
47238SOL     OW46270   5.810   8.398   5.712  0.2719 -0.3786 -0.6075
47238SOL    HW146271   5.822   8.408   5.618 -1.2554 -2.0160 -1.0180
47238SOL    HW246272   5.831   8.306   5.730 -1.2874 -0.5981  0.2955
47239SOL     OW46273  11.428   9.266   4.644 -0.2807  0.0049  0.5289
47239SOL    HW146274  11.402   9.350   4.682  0.4299  1.1571 -1.4321
47239SOL    HW246275  11.355   9.207   4.665 -1.1415  1.2861  1.2853
47240SOL     OW46276  11.852   6.804   9.096  0.4919  0.7559 -0.2427
47240SOL    HW146277  11.797   6.829   9.170  0.1075  1.8489 -0.8625
47240SOL    HW246278  11.790   6.788   9.025  0.8853  0.3938 -0.5062
47241SOL     OW46279   0.789   7.853   2.030 -0.6729  0.0021  0.2853
47241SOL    HW146280   0.757   7.937   1.995 -0.9722 -0.4565 -0.5754
47241SOL    HW246281   0.780   7.792   1.957 -1.5238 -1.0566  1.2371
47242SOL     OW46282  10.923  10.683   8.493  0.4754  0.1107  0.4116
47242SOL    HW146283  11.001  10.736   8.514 -0.1011  0.8696  0.6693
47242SOL    HW246284  10.901  10.709   8.403  0.5629 -0.1699  0.3072
47243SOL     OW46285   2.658   6.031   6.247 -0.6333  0.6418 -0.3319
47243SOL    HW146286   2.675   5.938   6.263 -0.0271  0.5482 -1.4072
47243SOL    HW246287   2.737   6.063   6.203 -0.9100  1.6297 -0.1398
47244SOL     OW46288  11.906   5.015   7.521  0.0550  0.1373 -0.1475
47244SOL    HW146289  11.955   5.042   7.443  0.1758 -0.1278 -0.1632
47244SOL    HW246290  11.837   4.958   7.488  0.3697 -0.3248 -0.0206
47245SOL     OW46291   4.937   3.229   3.687  0.3876 -0.3037  0.1947
47245SOL    HW146292   4.903   3.142   3.670 -0.0150  0.0712 -0.9683
47245SOL    HW246293   4.957   3.229   3.781  0.3793 -1.6273  0.2104
47246SOL     OW46294   0.790   4.433   3.654  0.2072  0.5395 -0.2731
47246SOL    HW146295   0.816   4.342   3.663 -1.1499  0.1096 -0.4071
47246SOL    HW246296   0.852   4.470   3.590  1.2029 -0.0820  0.3157
47247SOL     OW46297   6.873   3.132   8.046 -0.1440 -0.0079  0.0730
47247SOL    HW146298   6.881   3.148   8.140 -1.8006  2.1206 -0.0560
47247SOL    HW246299   6.916   3.208   8.006  0.1438 -0.6717 -0.8946
47248SOL     OW46300   1.608   6.205   9.848  0.4900 -0.5554 -0.1457
47248SOL    HW146301   1.560   6.281   9.882 -1.1884 -1.3949 -0.5118
47248SOL    HW246302   1.682   6.194   9.907 -0.1755  0.3832  0.8902
47249SOL     OW46303   7.269   1.825   5.080  0.3613 -0.0446 -0.1641
47249SOL    HW146304   7.303   1.906   5.042 -0.1753 -0.3960 -1.4556
47249SOL    HW246305   7.295   1.757   5.017 -0.4620 -0.6629  0.1484
47250SOL     OW46306  10.514   0.158   2.924  0.0983 -0.1840 -0.1991
47250SOL    HW146307  10.498   0.091   2.857 -0.9327 -1.1012  0.9063
47250SOL    HW246308  10.603   0.140   2.955  0.2024 -0.3928 -0.6122
47251SOL     OW46309   5.654   1.649   6.971  0.1538  0.6106 -0.1056
47251SOL    HW146310   5.626   1.729   7.015  0.0505  0.6669 -0.2744
47251SOL    HW246311   5.695   1.679   6.890 -0.5690  0.4593 -0.5413
47252SOL     OW46312   2.753   9.600  10.514  0.1962  0.0928  0.1734
47252SOL    HW146313   2.814   9.653  10.565 -0.2985  1.1542 -0.3059
47252SOL    HW246314   2.745   9.518  10.563  0.9484  0.4713  0.9475
47253SOL     OW46315   2.511   6.927   4.713  0.2599  0.3400  0.3121
47253SOL    HW146316   2.465   6.913   4.630  0.4886  0.3355  0.1846
47253SOL    HW246317   2.481   6.855   4.769  0.8012 -0.1945 -0.0696
47254SOL     OW46318   8.925   6.355   8.521 -0.4885  0.0486  0.0489
47254SOL    HW146319   8.870   6.375   8.446  1.1549  0.2697 -1.1672
47254SOL    HW246320   8.865   6.324   8.588 -2.0221 -0.0861 -1.3324
47255SOL     OW46321   2.483   9.805   3.026  0.2314  0.1392  0.2496
47255SOL    HW146322   2.495   9.710   3.025  2.0685  0.3378 -0.5111
47255SOL    HW246323   2.561   9.839   3.070 -0.4226  1.3036  0.5599
47256SOL     OW46324   7.846  10.298   4.286 -0.2678  0.2396  0.1126
47256SOL    HW146325   7.846  10.380   4.335  0.8563  0.6500 -0.5481
47256SOL    HW246326   7.890  10.236   4.344 -1.8636 -0.1544  0.9696
47257SOL     OW46327  10.089   0.340   0.073  0.4531  0.4107  0.0541
47257SOL    HW146328  10.153   0.273   0.097  0.3452  0.2998  0.0343
47257SOL    HW246329  10.137   0.399   0.014 -0.0140 -0.7759 -1.5880
47258SOL     OW46330   6.301   2.526   9.130 -0.0421  0.3533 -0.0321
47258SOL    HW146331   6.389   2.511   9.094  0.0550  0.2537  0.2425
47258SOL    HW246332   6.282   2.447   9.180  0.3220  0.9664  1.1275
47259SOL     OW46333   4.358  11.847   8.728  0.1002 -0.0388 -0.2532
47259SOL    HW146334   4.408  11.770   8.757 -1.5958 -1.5157 -1.0203
47259SOL    HW246335   4.410  11.885   8.658  1.3863  0.0519  0.7147
47260SOL     OW46336   2.356  10.257   3.977 -0.0134 -0.2436  0.2944
47260SOL    HW146337   2.426  10.193   3.960  1.2504  0.9349  0.9030
47260SOL    HW246338   2.282  10.226   3.924  1.9100  0.1523 -2.8965
47261SOL     OW46339   0.462   7.505  11.454 -0.1091  0.7501 -0.6893
47261SOL    HW146340   0.501   7.484  11.370  2.1896  1.2241  0.1940
47261SOL    HW246341   0.419   7.424  11.482  1.0479 -0.0875 -1.2884
47262SOL     OW46342   7.945   4.790   3.001  0.0312 -0.5175 -0.1665
47262SOL    HW146343   7.916   4.828   2.918  0.5914 -1.3653 -0.7656
47262SOL    HW246344   7.869   4.742   3.033 -0.6863  1.0585  0.5989
47263SOL     OW46345   4.328  11.862   3.437  0.4760  0.2885  0.1425
47263SOL    HW146346   4.323  11.955   3.412 -0.1668  0.7024  1.7068
47263SOL    HW246347   4.411  11.854   3.484  0.8023 -0.0765 -0.4768
47264SOL     OW46348  10.026   8.521   1.487  0.2883  0.4115 -0.2662
47264SOL    HW146349  10.078   8.551   1.412  0.6245 -0.4739 -0.3968
47264SOL    HW246350   9.938   8.555   1.470  0.1850 -0.3529 -1.4390
47265SOL     OW46351   3.141   5.176   6.255  0.6838  0.0154  0.2675
47265SOL    HW146352   3.050   5.200   6.272  0.6898 -0.2267  0.6655
47265SOL    HW246353   3.189   5.258   6.261  0.4930  0.1408  0.0757
47266SOL     OW46354   8.768   0.934   8.874 -0.0360  0.0245  0.7607
47266SOL    HW146355   8.830   0.884   8.819  0.5629  0.8843  0.6336
47266SOL    HW246356   8.723   0.992   8.813  0.0944  0.4543  1.0684
47267SOL     OW46357  10.125   2.553   9.100  0.2834  0.1717 -0.3521
47267SOL    HW146358  10.196   2.510   9.148 -0.1753 -2.1562 -1.5927
47267SOL    HW246359  10.149   2.542   9.008 -1.2997 -0.0087 -0.7626
47268SOL     OW46360  10.679   9.530   3.207  0.3589 -0.1521  0.6612
47268SOL    HW146361  10.609   9.563   3.150  0.7849 -1.1386 -0.4663
47268SOL    HW246362  10.669   9.580   3.288 -1.1133  0.3296  0.2149
47269SOL     OW46363   2.258   2.383   8.797 -0.0862 -0.4394  0.3428
47269SOL    HW146364   2.268   2.360   8.890  1.0726  0.5099  0.4690
47269SOL    HW246365   2.164   2.391   8.784 -0.3300 -1.7345  1.1481
47270SOL     OW46366   4.406   7.905  11.336 -0.0719 -0.8910  0.3615
47270SOL    HW146367   4.491   7.937  11.366 -1.0161  1.2280  0.9340
47270SOL    HW246368   4.387   7.830  11.392  1.2343 -1.1805  0.4551
47271SOL     OW46369   2.111   5.783   4.632  0.8836  0.0194 -1.1805
47271SOL    HW146370   2.069   5.721   4.573  1.3760 -0.0120 -1.5045
47271SOL    HW246371   2.175   5.829   4.578  0.9810  0.3513 -0.7920
47272SOL     OW46372   8.959   1.298   1.283 -0.7817 -0.6754  0.7647
47272SOL    HW146373   8.970   1.206   1.308 -0.7992 -0.4489  1.6512
47272SOL    HW246374   8.867   1.305   1.257 -0.4670 -1.1801 -0.5373
47273SOL     OW46375   8.328   9.370   7.909 -0.2409  0.0154  0.7274
47273SOL    HW146376   8.418   9.338   7.907 -0.2797 -0.1211  1.0946
47273SOL    HW246377   8.333   9.455   7.952 -0.5034 -0.7275  2.2761
47274SOL     OW46378   9.177   0.653   0.731  0.1862  0.5052 -0.0792
47274SOL    HW146379   9.088   0.629   0.707 -0.0459  0.0692  1.1345
47274SOL    HW246380   9.232   0.597   0.676 -0.3131 -0.2136  0.1367
47275SOL     OW46381   0.658  10.397  10.562 -0.3601  0.2886 -0.2064
47275SOL    HW146382   0.675  10.385  10.655  0.8265  2.2317 -0.1245
47275SOL    HW246383   0.596  10.469  10.558 -0.1601  0.4301 -0.9256
47276SOL     OW46384   9.550   8.195   9.839  0.0904 -0.5271 -0.1873
47276SOL    HW146385   9.553   8.108   9.880  1.8305  0.1447  1.2176
47276SOL    HW246386   9.501   8.249   9.901 -0.0718 -0.2477 -0.5556
47277SOL     OW46387   2.825   4.259   3.137  0.1231  0.3432 -0.3432
47277SOL    HW146388   2.748   4.202   3.143  1.4292 -1.4654  0.0131
47277SOL    HW246389   2.789   4.347   3.142 -1.7276 -0.4434  2.7000
47278SOL     OW46390   8.311   9.215   4.921 -0.1471  0.5243 -0.3149
47278SOL    HW146391   8.345   9.154   4.855 -0.2386  1.0683 -0.8731
47278SOL    HW246392   8.363   9.295   4.909 -0.9463  1.0217 -0.5074
47279SOL     OW46393  10.086   0.013   2.127  0.6905  0.2906 -0.4866
47279SOL    HW146394  10.168   0.034   2.083  2.0020 -1.1637  1.1505
47279SOL    HW246395  10.088  -0.081   2.141 -1.7886  0.0274 -1.3489
47280SOL     OW46396   0.425  10.672   8.756  0.0894 -0.3250  0.5430
47280SOL    HW146397   0.435  10.577   8.768  1.9969 -0.3337 -0.6612
47280SOL    HW246398   0.436  10.685   8.662  2.2571  1.2981  0.9584
47281SOL     OW46399  11.699   8.486  12.014 -0.1180  0.2416 -0.2509
47281SOL    HW146400  11.740   8.572  12.007 -0.5072  0.2905 -3.2305
47281SOL    HW246401  11.614   8.503  12.056 -0.2842  1.3586 -1.0149
47282SOL     OW46402  11.109   5.505   5.848 -0.4337  0.0964 -0.4279
47282SOL    HW146403  11.189   5.521   5.799  0.2204 -0.9340  0.2533
47282SOL    HW246404  11.041   5.495   5.781  0.3586 -0.8482 -1.1177
47283SOL     OW46405   1.995   1.489   3.233  0.0603 -0.1998  0.1169
47283SOL    HW146406   1.917   1.528   3.193  0.0070  0.6151  0.9694
47283SOL    HW246407   2.028   1.428   3.167 -0.2705  0.7740 -0.9854
47284SOL     OW46408   9.045   5.880   7.438 -0.2184 -0.9557 -0.3590
47284SOL    HW146409   8.989   5.824   7.384 -0.3582 -0.0715 -1.1566
47284SOL    HW246410   9.133   5.845   7.426 -0.4649 -1.7691  0.1479
47285SOL     OW46411   9.788   3.287   0.790  0.5795  0.1982 -0.0286
47285SOL    HW146412   9.797   3.303   0.696 -2.6426  2.0129 -0.1844
47285SOL    HW246413   9.860   3.227   0.811  1.6706  0.0249 -3.5323
47286SOL     OW46414   8.502  11.685   9.306 -0.0511 -0.2931 -0.2876
47286SOL    HW146415   8.568  11.672   9.238 -1.1744  1.2663 -1.7639
47286SOL    HW246416   8.420  11.693   9.258 -1.3067 -1.8310  1.4768
47287SOL     OW46417   0.398  11.822   5.646 -0.1620  0.1143  0.4858
47287SOL    HW146418   0.448  11.811   5.727 -0.2780  4.2689  1.3237
47287SOL    HW246419   0.317  11.864   5.673 -1.8952 -1.7601 -1.4687
47288SOL     OW46420   3.832   7.924  10.463  0.1301  0.1929  0.1714
47288SOL    HW146421   3.903   7.910  10.525 -0.7500  0.5127  1.2858
47288SOL    HW246422   3.874   7.925  10.377  1.1936 -1.7806  0.6100
47289SOL     OW46423   2.530   5.499   3.243  0.1351  0.0024  0.2052
47289SOL    HW146424   2.495   5.544   3.320 -0.7165 -0.3875  0.0575
47289SOL    HW246425   2.571   5.420   3.279 -1.8775 -1.1358  0.1316
47290SOL     OW46426  10.842   2.309  11.748  0.5276 -0.0443  0.1256
47290SOL    HW146427  10.819   2.330  11.658  1.5518 -1.3992 -0.5068
47290SOL    HW246428  10.778   2.243  11.775 -0.3411  1.0249  0.7370
47291SOL     OW46429   4.643   7.979  10.502  0.2046 -0.2896 -0.6764
47291SOL    HW146430   4.696   7.990  10.581  1.5066 -3.8775 -0.8773
47291SOL    HW246431   4.567   7.929  10.531 -0.9178  1.0437 -1.2015
47292SOL     OW46432   5.025   1.586   4.063  0.4278  0.2288  0.9529
47292SOL    HW146433   4.999   1.565   4.153 -0.1222 -1.6695  0.3996
47292SOL    HW246434   4.949   1.632   4.026  0.8289  1.4228  1.5621
47293SOL     OW46435  11.687   4.970   3.866  0.3847  0.0680 -0.6428
47293SOL    HW146436  11.637   4.962   3.784 -0.8604 -2.2364  0.2170
47293SOL    HW246437  11.625   5.008   3.928  0.3228 -0.9385 -0.0648
47294SOL     OW46438  11.832   2.988   2.268  0.2744  0.4033 -0.2157
47294SOL    HW146439  11.747   2.961   2.305 -0.4227  0.2405 -1.8721
47294SOL    HW246440  11.847   3.075   2.306 -1.6346  1.3137 -1.4149
47295SOL     OW46441  10.105  11.146  11.337  0.1650  0.0228  0.2393
47295SOL    HW146442  10.092  11.076  11.401 -1.3028 -1.4758 -1.5887
47295SOL    HW246443  10.024  11.196  11.340  0.4707  0.5225  0.2205
47296SOL     OW46444   9.702   1.462   8.891 -0.3687  0.0695  0.1124
47296SOL    HW146445   9.739   1.374   8.893  1.2575  0.5407 -3.1977
47296SOL    HW246446   9.610   1.448   8.870 -0.3901 -0.8472  0.7221
47297SOL     OW46447  10.687   8.448   8.497  0.5452 -0.0496 -0.2796
47297SOL    HW146448  10.594   8.426   8.484 -0.2415  2.1987  0.9338
47297SOL    HW246449  10.723   8.453   8.408 -0.3326 -1.4567 -0.7521
47298SOL     OW46450   9.303  11.979   4.891 -0.3400 -0.2370  0.4428
47298SOL    HW146451   9.285  11.963   4.983 -1.6241  0.2076  0.2871
47298SOL    HW246452   9.222  12.016   4.856 -0.1749 -1.1742 -1.0586
47299SOL     OW46453   7.549   6.692   4.431  0.7847 -0.3265  0.0328
47299SOL    HW146454   7.613   6.762   4.429  0.8575 -0.3843  0.3247
47299SOL    HW246455   7.477   6.724   4.376  0.7597  0.0302  0.2727
47300SOL     OW46456   0.518   3.150   4.435 -0.3615  0.4355 -0.3254
47300SOL    HW146457   0.468   3.164   4.355  1.0580  1.0242 -1.1363
47300SOL    HW246458   0.524   3.055   4.443  0.1419  0.3667 -1.3638
47301SOL     OW46459   1.059   8.966   6.183  0.4785  0.2357 -0.0600
47301SOL    HW146460   1.074   9.056   6.154 -2.3835  0.8916  0.1599
47301SOL    HW246461   1.122   8.953   6.254  0.4402  2.3566  0.4227
47302SOL     OW46462   7.333  10.882   8.924 -0.3826  0.5123  0.2802
47302SOL    HW146463   7.339  10.790   8.901 -0.0816  0.2170  1.4609
47302SOL    HW246464   7.321  10.927   8.841 -0.3693 -0.5739 -0.3268
47303SOL     OW46465   9.248   2.214   0.319 -0.4841  0.1012  0.2589
47303SOL    HW146466   9.212   2.235   0.233  0.0714  3.3530  0.7030
47303SOL    HW246467   9.338   2.186   0.301 -0.6284 -0.0430 -0.2566
47304SOL     OW46468   7.916   5.186   2.298  0.4238  0.1869  1.2257
47304SOL    HW146469   7.954   5.133   2.369 -1.1626  1.6177  3.2817
47304SOL    HW246470   7.829   5.149   2.284  1.0724 -0.7040 -0.7720
47305SOL     OW46471   7.172   2.527   7.872  0.0017  0.5387 -0.4062
47305SOL    HW146472   7.102   2.487   7.820  1.5892 -1.9284 -0.8055
47305SOL    HW246473   7.208   2.596   7.815 -1.4455  1.1975 -0.5626
47306SOL     OW46474   2.189   7.743   3.296  0.4428 -0.1513  0.2769
47306SOL    HW146475   2.111   7.768   3.346  0.5785  1.2770 -0.2014
47306SOL    HW246476   2.156   7.733   3.206  0.1223 -3.0462  0.6170
47307SOL     OW46477   4.311   6.055   4.210  0.0550 -0.2227  0.3020
47307SOL    HW146478   4.325   6.053   4.304  1.6140 -0.2541  0.0944
47307SOL    HW246479   4.323   6.146   4.185  0.0798 -0.2885  0.0638
47308SOL     OW46480   6.776  10.163   4.886 -0.0919 -0.4393 -0.1474
47308SOL    HW146481   6.818  10.232   4.938 -0.2736 -0.7517  0.4222
47308SOL    HW246482   6.849  10.109   4.856 -0.0513 -0.7977  0.5754
47309SOL     OW46483   2.088   0.440   2.157 -0.3184 -0.0215  0.7170
47309SOL    HW146484   2.074   0.475   2.069  1.1068 -0.0245  0.4774
47309SOL    HW246485   2.183   0.434   2.167 -0.3996  0.8379  2.5933
47310SOL     OW46486   1.294   9.527   9.715 -1.1125 -0.5113  0.6951
47310SOL    HW146487   1.368   9.514   9.655 -1.8849 -2.1144  0.0066
47310SOL    HW246488   1.285   9.622   9.722 -0.9317 -0.2393 -1.6974
47311SOL     OW46489   1.420   8.073   4.962  0.0089 -0.4304 -0.3435
47311SOL    HW146490   1.356   8.042   4.897 -2.0342  2.7092 -0.0356
47311SOL    HW246491   1.381   8.049   5.046 -0.3602  0.7257 -0.1741
47312SOL     OW46492   4.302   7.160   8.953 -0.2345 -0.2478  0.0437
47312SOL    HW146493   4.207   7.175   8.948  0.1249  1.9408 -1.5155
47312SOL    HW246494   4.313   7.068   8.929 -1.7972  0.1492 -2.4913
47313SOL     OW46495  11.788  10.319   6.343  0.6040  0.3815  0.0665
47313SOL    HW146496  11.856  10.380   6.373  2.6008 -1.3720 -0.6288
47313SOL    HW246497  11.799  10.242   6.399  0.6233 -0.7421 -1.4277
47314SOL     OW46498   1.268   7.586   0.330 -0.2539  0.3402 -0.4344
47314SOL    HW146499   1.185   7.565   0.289 -0.1603  1.3051 -1.1511
47314SOL    HW246500   1.319   7.630   0.262  0.2141  1.2471  0.4667
47315SOL     OW46501  11.478   7.494   5.754  0.1768 -0.6933 -0.2141
47315SOL    HW146502  11.516   7.535   5.676 -1.9378 -1.0963 -1.5471
47315SOL    HW246503  11.464   7.403   5.729 -1.3177 -0.6369  0.3031
47316SOL     OW46504  10.720   5.596   2.146 -0.0518  0.5817 -0.1261
47316SOL    HW146505  10.631   5.561   2.159  0.0975  0.9039  2.1704
47316SOL    HW246506  10.739   5.578   2.054 -2.5339  0.5954 -0.7218
47317SOL     OW46507   2.182   6.403   3.573 -0.0605 -0.6805  0.1681
47317SOL    HW146508   2.220   6.410   3.661  0.0519 -0.7703  0.1269
47317SOL    HW246509   2.107   6.463   3.575 -0.0783 -0.7069  0.3356
47318SOL     OW46510   8.377   8.180   9.953 -0.2075  0.1246 -0.2381
47318SOL    HW146511   8.354   8.209   9.864 -1.1255  2.3002  0.6315
47318SOL    HW246512   8.318   8.230  10.010  1.2524 -0.2305  1.6703
47319SOL     OW46513  11.228   5.928   8.250  0.6339  0.0815 -0.5268
47319SOL    HW146514  11.218   5.838   8.218  0.8018 -0.8232  1.7654
47319SOL    HW246515  11.193   5.983   8.180  0.2750 -1.7907 -1.8712
47320SOL     OW46516   0.642  10.846   9.635  0.0941  0.2508  0.3525
47320SOL    HW146517   0.638  10.891   9.720  0.4407  1.3482 -0.1862
47320SOL    HW246518   0.566  10.880   9.587  0.6220  0.6231 -0.2299
47321SOL     OW46519   5.792  10.141   4.589  0.0867  0.3953 -0.0694
47321SOL    HW146520   5.733  10.109   4.657  2.4687  0.1756  2.0477
47321SOL    HW246521   5.807  10.065   4.532  2.0932 -1.0967  2.2574
47322SOL     OW46522   8.168   2.767   2.796  0.1101 -0.0720 -0.4000
47322SOL    HW146523   8.113   2.723   2.731 -0.4902 -0.9851  0.6830
47322SOL    HW246524   8.254   2.775   2.754 -0.6861  0.8579 -1.9016
47323SOL     OW46525   2.007   5.323   7.358  0.4682 -0.0578  0.0175
47323SOL    HW146526   2.070   5.289   7.422  0.4777 -0.5136 -0.2275
47323SOL    HW246527   2.016   5.264   7.283  0.1188  0.1884 -0.2174
47324SOL     OW46528   8.268   1.351   7.049 -0.5158  0.8143 -0.0614
47324SOL    HW146529   8.356   1.314   7.040 -0.4140  1.1893 -0.6504
47324SOL    HW246530   8.209   1.282   7.017 -0.4558  0.4623  0.5873
47325SOL     OW46531   8.295  10.116   3.863 -0.0105  0.5520 -0.5161
47325SOL    HW146532   8.201  10.125   3.846  0.1108  0.8167 -1.0679
47325SOL    HW246533   8.337  10.168   3.795  0.5980 -1.2789 -1.6072
47326SOL     OW46534  11.071   0.312   3.427  0.2180  0.4151  0.0899
47326SOL    HW146535  11.137   0.329   3.494  0.2359 -0.1673  0.2197
47326SOL    HW246536  11.033   0.398   3.409  1.7763  0.9661 -0.7907
47327SOL     OW46537   4.040  11.893  10.500 -0.1728  0.1040  0.1834
47327SOL    HW146538   3.965  11.884  10.441  0.4628  0.7270 -0.7620
47327SOL    HW246539   4.055  11.988  10.505  0.2026  0.0196  0.8198
47328SOL     OW46540   7.203  10.698   1.630  0.1416 -0.0843 -0.1269
47328SOL    HW146541   7.181  10.663   1.544  0.3416 -1.3757  0.3280
47328SOL    HW246542   7.173  10.631   1.692  1.6437 -0.0321  0.7107
47329SOL     OW46543   6.680   6.396  11.534 -0.2579 -0.3839  0.1298
47329SOL    HW146544   6.695   6.478  11.488 -0.2704 -0.8791 -0.7946
47329SOL    HW246545   6.708   6.413  11.624  1.5404  0.0874 -0.4692
47330SOL     OW46546   0.803   5.993   7.290  0.0734  0.0359  0.3783
47330SOL    HW146547   0.801   6.056   7.361  0.5897 -1.6276  1.9244
47330SOL    HW246548   0.801   5.908   7.333 -0.0397 -1.0256 -1.6167
47331SOL     OW46549   6.774   0.862   9.413 -0.7170  0.2646 -0.0805
47331SOL    HW146550   6.717   0.789   9.389  0.3193  0.1823 -2.7308
47331SOL    HW246551   6.719   0.939   9.405 -0.7556  0.1049 -1.6038
47332SOL     OW46552   2.811   7.452   6.716  0.1265 -0.4177  0.7366
47332SOL    HW146553   2.761   7.518   6.765  0.1751 -0.8782  1.4264
47332SOL    HW246554   2.789   7.468   6.625  1.1916  1.4388  0.7636
47333SOL     OW46555   6.686   3.356   4.725 -0.0172 -0.1399 -0.2430
47333SOL    HW146556   6.775   3.384   4.745 -0.1809  0.0099  0.2699
47333SOL    HW246557   6.630   3.427   4.756 -0.3156 -0.2000 -0.6288
47334SOL     OW46558   6.067  11.994   7.422 -0.2475 -0.5685  0.0575
47334SOL    HW146559   6.063  12.051   7.346  0.6159  0.6426  0.8763
47334SOL    HW246560   5.998  12.026   7.480  1.0461  0.5191  1.0617
47335SOL     OW46561  10.047   8.246   0.746 -0.4946 -0.2188 -0.0178
47335SOL    HW146562  10.012   8.270   0.832 -1.6546  0.9803 -0.7906
47335SOL    HW246563  10.141   8.234   0.761 -0.9764 -2.3460  1.8750
47336SOL     OW46564   8.269   6.602   5.559 -0.1972 -0.4573  0.0835
47336SOL    HW146565   8.322   6.524   5.568  0.2042 -0.1661  0.2688
47336SOL    HW246566   8.196   6.589   5.619 -0.3061 -0.8308 -0.1285
47337SOL     OW46567   5.900   2.428   6.195  0.0827 -0.3162  0.0379
47337SOL    HW146568   5.893   2.474   6.279 -1.3359 -1.2865  0.5043
47337SOL    HW246569   5.971   2.366   6.208  0.9579  0.6375 -0.0605
47338SOL     OW46570   9.301   1.755  11.062 -0.1242  0.3452 -0.0394
47338SOL    HW146571   9.221   1.742  11.011  0.0316  1.0225 -0.4589
47338SOL    HW246572   9.320   1.848  11.055 -0.1931  0.4852  1.4078
47339SOL     OW46573   6.335   9.750   8.478 -0.1029 -0.3845 -0.2426
47339SOL    HW146574   6.357   9.798   8.399 -0.4274 -0.7775 -0.5756
47339SOL    HW246575   6.419   9.722   8.514  0.0299 -0.4021 -0.5710
47340SOL     OW46576   2.269   1.133   2.550 -0.2388 -0.8023  0.0255
47340SOL    HW146577   2.182   1.173   2.553 -0.0469 -0.1118 -2.2886
47340SOL    HW246578   2.252   1.039   2.544 -0.8087 -0.6948 -0.0647
47341SOL     OW46579   0.620   2.232   5.591  0.0731  0.6714 -0.2482
47341SOL    HW146580   0.713   2.208   5.592 -0.2584 -0.6996 -0.7833
47341SOL    HW246581   0.579   2.169   5.651 -0.4664  1.5004  0.2632
47342SOL     OW46582   5.665   4.284   3.760  0.1507  0.1476  0.4763
47342SOL    HW146583   5.639   4.212   3.816  0.1513  0.2475  0.6047
47342SOL    HW246584   5.629   4.261   3.674 -0.7961  0.5193  0.7619
47343SOL     OW46585   6.727   4.635   3.358  0.2720 -0.0660  0.2100
47343SOL    HW146586   6.735   4.618   3.452 -0.9724 -2.5572 -0.0521
47343SOL    HW246587   6.779   4.565   3.316 -0.8246 -0.2137 -0.9635
47344SOL     OW46588  10.639   1.375   9.324  0.3492 -0.0528  0.4684
47344SOL    HW146589  10.730   1.404   9.315  1.1401 -1.0748  3.7001
47344SOL    HW246590  10.639   1.284   9.292  0.3168  0.1436 -0.0907
47345SOL     OW46591   5.747   8.676   7.611  0.0706  0.5497 -0.0626
47345SOL    HW146592   5.698   8.692   7.531 -0.9163  0.8422  0.5832
47345SOL    HW246593   5.689   8.622   7.665  1.3680 -1.0263 -0.1830
47346SOL     OW46594   5.298  10.115   8.803 -0.3885  0.0098  0.7630
47346SOL    HW146595   5.354  10.039   8.815 -0.6964 -0.4766 -0.6333
47346SOL    HW246596   5.213  10.088   8.835 -0.4203 -0.1373  0.5601
47347SOL     OW46597   6.947   4.025   6.180  0.2010  0.2316  0.1657
47347SOL    HW146598   6.940   3.947   6.235  0.3439  0.1464  0.0609
47347SOL    HW246599   7.002   3.999   6.107 -0.7661  0.0617 -0.5204
47348SOL     OW46600   9.937   4.420   5.109  0.2437  0.1440  0.3106
47348SOL    HW146601   9.995   4.431   5.034  2.1652 -1.6765  1.4143
47348SOL    HW246602   9.882   4.345   5.086  1.3242 -0.8822  0.9224
47349SOL     OW46603   5.748  10.462   0.764  0.3334  0.4255  0.1950
47349SOL    HW146604   5.666  10.510   0.751 -0.4590 -1.3089 -1.7380
47349SOL    HW246605   5.720  10.376   0.796  1.6332  0.7310  2.2967
47350SOL     OW46606   5.035   6.043   2.162  0.1612 -0.4385  0.1132
47350SOL    HW146607   5.054   6.129   2.125 -1.3277 -0.1398 -0.0591
47350SOL    HW246608   5.112   6.021   2.214 -0.2116  1.9739  1.8883
47351SOL     OW46609  11.273   4.144   0.440  0.0606 -0.5319  0.1900
47351SOL    HW146610  11.267   4.153   0.535  0.1469  1.2934  0.0577
47351SOL    HW246611  11.361   4.111   0.424  0.8416  1.1763  0.6795
47352SOL     OW46612   6.421  10.597   1.379  0.2155 -0.2075 -0.3478
47352SOL    HW146613   6.329  10.574   1.364  0.7846 -2.2305 -1.1653
47352SOL    HW246614   6.436  10.676   1.328 -1.2425  0.6166  0.4370
47353SOL     OW46615   7.588  10.753   5.538  0.0835  0.0748  0.1406
47353SOL    HW146616   7.677  10.788   5.534 -0.1082  0.4407 -1.6879
47353SOL    HW246617   7.569  10.749   5.632  1.7644  0.6234  0.5514
47354SOL     OW46618   9.446   0.385  10.621  0.3834 -0.3070 -0.4857
47354SOL    HW146619   9.448   0.348  10.709 -1.0270 -0.1853 -0.3743
47354SOL    HW246620   9.450   0.480  10.636  2.8878 -0.3289 -0.7137
47355SOL     OW46621   3.556   9.903   6.840 -0.3088 -0.4270 -1.0906
47355SOL    HW146622   3.548   9.979   6.897  1.3785 -0.9223 -0.1248
47355SOL    HW246623   3.511   9.929   6.759 -1.5968  0.7803 -0.0359
47356SOL     OW46624   1.144   5.977   2.878 -0.0072 -0.6491 -0.0097
47356SOL    HW146625   1.189   5.943   2.956  1.6250 -0.8794 -1.0102
47356SOL    HW246626   1.181   5.927   2.806 -2.0664 -1.0000 -0.8919
47357SOL     OW46627   7.982   8.691   4.598  0.1063  0.5130 -0.8308
47357SOL    HW146628   7.923   8.616   4.603  0.2374  0.4690  0.4678
47357SOL    HW246629   8.019   8.698   4.686  0.2236  2.0029 -0.9670
47358SOL     OW46630   8.518   7.495   8.187  0.0126  0.2219  0.1626
47358SOL    HW146631   8.591   7.554   8.208 -0.3562  1.4274 -1.7042
47358SOL    HW246632   8.551   7.441   8.116  0.2756 -1.8105  1.7221
47359SOL     OW46633   8.503   8.842   2.215 -0.2653 -0.0789  0.3900
47359SOL    HW146634   8.410   8.853   2.237 -0.8314  0.7266 -2.0838
47359SOL    HW246635   8.522   8.915   2.156  1.1122 -1.8627 -1.5174
47360SOL     OW46636   3.047   7.382   7.332  0.1349 -0.4113  0.4846
47360SOL    HW146637   3.044   7.334   7.249 -0.3547  1.1513 -0.4448
47360SOL    HW246638   2.976   7.446   7.325  0.8442  0.5370  1.6081
47361SOL     OW46639   5.847   4.860   2.275  0.1853  0.3073 -0.8387
47361SOL    HW146640   5.913   4.811   2.324  0.9390  1.2480 -0.8971
47361SOL    HW246641   5.781   4.883   2.340  0.4587  0.3123 -0.5628
47362SOL     OW46642   8.474   5.415   2.846 -0.0573  0.2135  0.1974
47362SOL    HW146643   8.394   5.369   2.819 -1.4844  1.9488  1.1897
47362SOL    HW246644   8.481   5.489   2.784 -0.5285  1.3337  1.4276
47363SOL     OW46645   4.981   9.711   8.877  0.1679  0.1579 -0.2417
47363SOL    HW146646   4.932   9.629   8.877  2.5466 -1.3621  0.0249
47363SOL    HW246647   5.032   9.708   8.796 -1.8048  2.8225 -1.7449
47364SOL     OW46648   7.394   8.134   6.753  0.2003 -0.2330 -0.5660
47364SOL    HW146649   7.380   8.170   6.841  1.5989  0.9950 -0.8165
47364SOL    HW246650   7.488   8.120   6.746  0.0303 -1.0213 -1.6165
47365SOL     OW46651  10.839  11.403   1.657 -0.3037 -0.4239  0.4285
47365SOL    HW146652  10.819  11.471   1.593  3.0132 -0.8201 -1.2442
47365SOL    HW246653  10.835  11.321   1.608  2.4213 -0.7194  0.5119
47366SOL     OW46654   6.881   0.867   7.952 -0.4605  0.2733 -0.2178
47366SOL    HW146655   6.862   0.911   7.869  1.8674  3.1164  0.5464
47366SOL    HW246656   6.797   0.863   7.997 -1.4325  0.4450 -1.9498
47367SOL     OW46657   6.615   8.992   2.848  0.1565 -0.3212  0.1556
47367SOL    HW146658   6.681   9.008   2.780  0.8779  1.1131  1.1382
47367SOL    HW246659   6.543   9.051   2.825 -0.4675 -1.2902 -0.4538
47368SOL     OW46660   8.296   5.647   8.329 -0.7948  0.1682 -0.2718
47368SOL    HW146661   8.362   5.670   8.263 -1.3249 -0.0418 -0.8898
47368SOL    HW246662   8.346   5.636   8.410 -0.2835  1.7128 -0.3389
47369SOL     OW46663   4.426   6.029   9.798  0.0718  0.7956  0.2454
47369SOL    HW146664   4.333   6.049   9.807  0.2588  1.7002  0.2600
47369SOL    HW246665   4.465   6.057   9.881  0.6097  1.9806 -0.3887
47370SOL     OW46666   2.319   0.994   7.782 -0.5930 -0.0327 -0.1883
47370SOL    HW146667   2.307   0.940   7.704 -0.9187 -1.0484  0.5563
47370SOL    HW246668   2.354   1.077   7.748 -0.5759 -0.5149 -1.3925
47371SOL     OW46669   3.954   9.918   5.559  0.5052  0.3068 -0.0731
47371SOL    HW146670   3.933   9.848   5.498 -2.5267  2.0635 -1.2680
47371SOL    HW246671   3.938   9.999   5.510  0.5877  1.8245  2.2266
47372SOL     OW46672   8.613   5.429   6.235  0.0382  0.2219 -0.0058
47372SOL    HW146673   8.547   5.360   6.235  0.2405  0.0009 -1.6925
47372SOL    HW246674   8.568   5.506   6.203  0.2056  0.4989  0.4081
47373SOL     OW46675   8.373   2.781   2.313 -0.4652  0.4017  0.8954
47373SOL    HW146676   8.406   2.692   2.299 -0.0316  0.6139  0.5554
47373SOL    HW246677   8.282   2.777   2.285 -0.1668  0.3175 -0.1039
47374SOL     OW46678   8.377   0.902   0.450 -0.8525  0.1042 -0.4678
47374SOL    HW146679   8.326   0.844   0.393  0.2187  0.0466 -1.4069
47374SOL    HW246680   8.314   0.969   0.478 -1.3551  0.3191 -1.9931
47375SOL     OW46681  11.142   1.473   7.312  0.0044  0.7128  0.4119
47375SOL    HW146682  11.135   1.527   7.391 -0.2515  2.8711 -0.9848
47375SOL    HW246683  11.122   1.384   7.341 -1.8398  1.6980  2.4618
47376SOL     OW46684   3.146  10.703   2.344  0.3059 -0.0970  0.0678
47376SOL    HW146685   3.135  10.735   2.433  0.1092  1.4328 -0.4654
47376SOL    HW246686   3.237  10.725   2.322 -0.1452  1.1601 -0.6755
47377SOL     OW46687   4.450  11.981  11.425 -0.2140 -0.0619  0.1195
47377SOL    HW146688   4.525  11.959  11.369  0.6477 -0.1516  1.2837
47377SOL    HW246689   4.480  12.057  11.476 -1.0159  0.0662  0.4144
47378SOL     OW46690   7.538   9.802  10.950  0.2792 -0.9458  0.0796
47378SOL    HW146691   7.584   9.847  10.879  0.8100 -1.5930  0.0046
47378SOL    HW246692   7.446   9.799  10.921  0.0089  1.0371  0.5735
47379SOL     OW46693  11.583   2.472   1.189  0.3141 -0.6119 -0.0496
47379SOL    HW146694  11.604   2.403   1.127 -1.2959 -2.8084  1.6955
47379SOL    HW246695  11.601   2.434   1.275  1.6462  2.0179  0.9513
47380SOL     OW46696   0.533   8.978   7.108  0.5216  0.3580 -0.3267
47380SOL    HW146697   0.446   9.018   7.108  0.3576  0.2938 -3.8118
47380SOL    HW246698   0.589   9.043   7.066  2.2112  0.3128  1.6932
47381SOL     OW46699  10.652   5.435   7.017 -0.1352  0.1876 -0.3731
47381SOL    HW146700  10.574   5.428   6.962  1.4524 -0.4301 -2.6768
47381SOL    HW246701  10.648   5.357   7.073 -1.1771  0.1792 -0.4372
47382SOL     OW46702   3.543   1.182   7.814  0.1307 -0.1587  0.3582
47382SOL    HW146703   3.488   1.161   7.738 -0.7860  2.0291  0.3455
47382SOL    HW246704   3.483   1.179   7.888  0.9479 -1.9240  1.0136
47383SOL     OW46705   7.415  10.887   1.851  0.4853 -0.3936  0.2965
47383SOL    HW146706   7.340  10.913   1.798  0.8643  3.1013  1.2296
47383SOL    HW246707   7.489  10.937   1.814  1.9981 -2.3241  0.5439
47384SOL     OW46708  12.105   0.275   5.796 -0.9744 -0.2227  0.0892
47384SOL    HW146709  12.170   0.339   5.765 -0.2879 -1.5466 -1.3756
47384SOL    HW246710  12.114   0.276   5.891  0.4924  0.3708 -0.0243
47385SOL     OW46711   6.898   1.344   3.953 -0.1756  0.4594  0.1543
47385SOL    HW146712   6.821   1.305   3.912 -0.3257  3.7569 -3.2912
47385SOL    HW246713   6.962   1.350   3.883  2.9502 -1.1132  2.6345
47386SOL     OW46714   0.148   9.803   6.850  0.4286 -0.4535  0.4160
47386SOL    HW146715   0.112   9.817   6.762 -0.4753 -1.8967  0.5365
47386SOL    HW246716   0.240   9.827   6.841  0.6652 -1.7797 -1.2750
47387SOL     OW46717  11.933   8.770   2.520  0.0242  0.0700  0.0161
47387SOL    HW146718  12.017   8.813   2.537 -0.2855  0.9148 -0.4965
47387SOL    HW246719  11.956   8.691   2.472  0.4762  0.9329 -1.2577
47388SOL     OW46720  10.366  10.824   0.899 -0.0831  0.3601  0.1375
47388SOL    HW146721  10.281  10.799   0.865 -0.7243  0.2717  1.6954
47388SOL    HW246722  10.427  10.759   0.864 -0.3892  1.1946 -2.0658
47389SOL     OW46723   4.334   8.123   8.548 -0.1161 -0.2300  0.5450
47389SOL    HW146724   4.267   8.086   8.490  0.2684 -0.8589  0.4860
47389SOL    HW246725   4.416   8.086   8.515  0.5875  2.4220 -0.9529
47390SOL     OW46726   6.218  10.497   6.995 -0.5244  0.1472 -0.1843
47390SOL    HW146727   6.195  10.575   6.946 -1.9643 -0.0193  0.1789
47390SOL    HW246728   6.136  10.467   7.033  0.1216 -1.1354  0.2817
47391SOL     OW46729   4.084  11.250   7.901 -0.3479 -0.1856  0.7087
47391SOL    HW146730   4.163  11.235   7.851 -1.3617  0.3174 -1.1397
47391SOL    HW246731   4.115  11.284   7.985  1.4247 -1.5667  0.6653
47392SOL     OW46732   2.336   7.249   1.907 -0.2976  0.1071  0.1150
47392SOL    HW146733   2.299   7.327   1.866 -0.3816 -0.3134 -0.6270
47392SOL    HW246734   2.263   7.208   1.953 -0.9845 -1.1277 -1.9686
47393SOL     OW46735  11.930   9.887   1.065 -0.4162 -0.0280  0.2647
47393SOL    HW146736  11.841   9.864   1.091 -0.5350 -0.3568 -0.3988
47393SOL    HW246737  11.981   9.808   1.084  0.0779  0.7252  2.2116
47394SOL     OW46738   7.210   2.345   0.682  0.2853  0.6622 -0.0932
47394SOL    HW146739   7.126   2.352   0.638  0.6387  1.1350 -0.6946
47394SOL    HW246740   7.260   2.420   0.653  1.0739  0.1642 -0.0685
47395SOL     OW46741   4.759   3.220   4.892 -0.5223 -0.0101 -0.5339
47395SOL    HW146742   4.808   3.229   4.811 -1.9981  1.8473 -1.3037
47395SOL    HW246743   4.786   3.295   4.945  1.4108 -1.8858  1.3403
47396SOL     OW46744   1.281  11.596   8.346 -0.6419  0.4446  0.2006
47396SOL    HW146745   1.296  11.672   8.289  0.3811 -0.0282 -0.1880
47396SOL    HW246746   1.369  11.564   8.367 -0.9941  0.3841  1.7683
47397SOL     OW46747   3.031   3.130   4.703  0.3676 -0.3945 -0.0914
47397SOL    HW146748   2.996   3.102   4.787  0.5327 -1.6079 -0.4089
47397SOL    HW246749   3.087   3.058   4.674  0.7011  0.2073 -1.0119
47398SOL     OW46750   6.786   8.968   6.444 -0.1214  0.1579 -0.5126
47398SOL    HW146751   6.873   8.991   6.409 -0.1492  0.7446 -0.2168
47398SOL    HW246752   6.799   8.884   6.486 -0.1592 -0.7337 -2.1819
47399SOL     OW46753  10.574   0.052   5.788 -0.2498 -0.4545 -0.3301
47399SOL    HW146754  10.533   0.037   5.873  1.2915 -0.7448  0.3981
47399SOL    HW246755  10.562   0.145   5.771 -0.8319 -0.4547  0.0450
47400SOL     OW46756   9.419   6.688   8.357 -0.3333 -0.3697 -0.3351
47400SOL    HW146757   9.437   6.701   8.450 -1.5899  2.7164 -0.3989
47400SOL    HW246758   9.331   6.651   8.354 -0.1068 -0.9153 -0.2938
47401SOL     OW46759   5.692   9.207   1.079  0.0906 -0.1918  0.5082
47401SOL    HW146760   5.766   9.147   1.080  0.8105  0.6147 -1.0867
47401SOL    HW246761   5.668   9.216   1.171  1.0212 -1.6141  0.9240
47402SOL     OW46762   7.804   0.873   6.317 -0.2836 -0.2944  0.0686
47402SOL    HW146763   7.796   0.956   6.270  0.3053  0.1586  0.7517
47402SOL    HW246764   7.820   0.808   6.248 -1.4975  0.0149 -0.5525
47403SOL     OW46765   0.126   7.907   0.980  0.1164 -0.4498  0.0536
47403SOL    HW146766   0.114   7.815   1.004 -0.4876 -0.4516 -0.2405
47403SOL    HW246767   0.100   7.912   0.889 -0.9105  0.2281  0.3690
47404SOL     OW46768   4.417   4.448   5.670  0.3097 -0.0851  0.2500
47404SOL    HW146769   4.455   4.431   5.584  1.4687  0.9859  0.5237
47404SOL    HW246770   4.476   4.511   5.710  1.4047 -2.6118  2.9607
47405SOL     OW46771   0.802  10.158   9.647 -0.0998 -0.4393  0.2134
47405SOL    HW146772   0.815  10.077   9.598  0.9662 -0.7479  0.9905
47405SOL    HW246773   0.730  10.201   9.601 -0.2406 -1.5018 -0.6157
47406SOL     OW46774   8.826   6.676   3.829  0.1916 -0.1550 -0.0385
47406SOL    HW146775   8.784   6.721   3.755 -0.7174 -0.5296  0.2394
47406SOL    HW246776   8.756   6.626   3.870  0.8901 -0.6970  0.5221
47407SOL     OW46777   4.947   3.659   6.542  0.8476  0.6393 -0.3955
47407SOL    HW146778   4.983   3.732   6.493  0.6359  0.2046 -1.2170
47407SOL    HW246779   4.858   3.686   6.563 -0.1436 -0.3585 -2.9287
47408SOL     OW46780   7.702  12.081   0.279 -0.3568  0.4102  0.2142
47408SOL    HW146781   7.796  12.099   0.279 -0.4872  1.1206 -0.0881
47408SOL    HW246782   7.696  11.986   0.288  0.3768  0.4129  0.8018
47409SOL     OW46783   2.494  10.155   5.470 -0.3908 -0.0638 -0.4984
47409SOL    HW146784   2.564  10.090   5.474  0.0607  0.4437  2.2244
47409SOL    HW246785   2.415  10.104   5.454  0.2918 -0.9526 -1.1213
47410SOL     OW46786   0.568   7.726   5.657  0.0180 -0.4030  0.4888
47410SOL    HW146787   0.575   7.729   5.561  1.4073 -0.5490  0.5665
47410SOL    HW246788   0.500   7.790   5.677  1.4364  1.5417 -0.4736
47411SOL     OW46789   4.913   9.680   2.732  0.9130 -0.0148  0.1677
47411SOL    HW146790   4.938   9.606   2.787  2.4702 -0.3752 -0.9422
47411SOL    HW246791   4.982   9.745   2.747  0.2900  0.6590  0.1182
47412SOL     OW46792   8.025  11.937   0.634 -0.0278  0.3411 -0.0505
47412SOL    HW146793   7.939  11.900   0.616 -1.0776  2.0973  1.0502
47412SOL    HW246794   8.046  11.907   0.722 -0.4151  1.4321  0.4352
47413SOL     OW46795   4.282   8.688   7.350  0.0863  0.0378  0.0532
47413SOL    HW146796   4.368   8.664   7.315  0.5822  2.0389 -0.2003
47413SOL    HW246797   4.297   8.703   7.443 -0.2839 -0.8787  0.2695
47414SOL     OW46798   3.340   7.292   1.020  0.3098  0.0804  0.3621
47414SOL    HW146799   3.290   7.334   1.090 -1.3184  0.2672 -0.8464
47414SOL    HW246800   3.410   7.354   1.001 -1.4077  1.8553 -0.6351
47415SOL     OW46801   3.444   0.889   5.955  0.3438  0.9246 -0.3439
47415SOL    HW146802   3.426   0.801   5.987 -0.1530  0.2667 -2.3360
47415SOL    HW246803   3.522   0.916   6.004  0.0356 -0.2725  0.8832
47416SOL     OW46804   1.863   9.900   5.626  0.1302 -0.2479  0.3992
47416SOL    HW146805   1.941   9.845   5.635 -0.3474 -0.9098  0.5212
47416SOL    HW246806   1.897   9.984   5.595  1.2907  0.5278  3.4253
47417SOL     OW46807   4.525   7.675  10.742 -0.5512 -0.3038  0.4157
47417SOL    HW146808   4.535   7.660  10.648  2.2036 -0.8474  0.7155
47417SOL    HW246809   4.557   7.764  10.756 -1.4263 -0.0357  0.8018
47418SOL     OW46810   8.941   8.706   9.290  0.5587  0.2410 -0.5216
47418SOL    HW146811   8.985   8.651   9.354 -1.1998 -1.0755 -0.3638
47418SOL    HW246812   8.920   8.647   9.217 -1.3127  0.6752 -0.3860
47419SOL     OW46813  11.355   9.922   3.957  0.8320  0.2873  0.2003
47419SOL    HW146814  11.265   9.955   3.962  0.6457  0.0804 -1.2811
47419SOL    HW246815  11.402   9.969   4.025 -0.3317  0.6439  0.7739
47420SOL     OW46816   1.527  11.462  10.645 -0.2539  0.0132 -0.3372
47420SOL    HW146817   1.489  11.384  10.685  1.8279 -1.5655 -1.2326
47420SOL    HW246818   1.485  11.468  10.559  0.6170 -1.0503 -0.8651
47421SOL     OW46819   0.737   5.854  10.201 -0.2578  0.3188  0.1595
47421SOL    HW146820   0.804   5.881  10.138 -1.3329  0.3263 -1.0304
47421SOL    HW246821   0.740   5.922  10.269  0.6177  0.5700 -0.1139
47422SOL     OW46822   6.738   8.671   4.356 -0.6524  0.0308 -0.1745
47422SOL    HW146823   6.657   8.620   4.351  0.0869 -1.3329  1.1404
47422SOL    HW246824   6.738   8.708   4.444  0.0977  0.1273 -0.2125
47423SOL     OW46825  10.319   3.830   5.608 -0.2576 -0.3398 -0.0094
47423SOL    HW146826  10.389   3.798   5.665  1.2656 -0.9668 -2.0759
47423SOL    HW246827  10.268   3.889   5.663 -0.1677 -2.4729  2.5346
47424SOL     OW46828   8.312   6.737   8.268  0.5480 -0.1432  0.2204
47424SOL    HW146829   8.312   6.651   8.311  2.1545 -0.3011 -0.0380
47424SOL    HW246830   8.235   6.736   8.212 -0.6347 -0.5918  1.7700
47425SOL     OW46831   9.051   4.600  11.032 -0.7696  0.0803  0.3446
47425SOL    HW146832   8.970   4.576  11.078 -1.6684  1.6383 -0.3572
47425SOL    HW246833   9.022   4.641  10.951  0.6836  1.3942  0.4259
47426SOL     OW46834   9.554   7.853  11.885  0.2685 -0.0040 -0.2858
47426SOL    HW146835   9.569   7.781  11.824  1.2171  0.6357 -0.8239
47426SOL    HW246836   9.467   7.885  11.863 -0.2138 -1.0217  0.0251
47427SOL     OW46837   7.945   2.605  11.288 -0.1444  0.3852  0.1103
47427SOL    HW146838   7.980   2.554  11.361 -2.0336 -0.1471  0.7153
47427SOL    HW246839   7.913   2.539  11.226 -0.8062  0.8145 -0.0207
47428SOL     OW46840   3.847   7.146   8.716 -0.1060 -0.1416  0.3035
47428SOL    HW146841   3.793   7.207   8.666 -0.8089 -0.1758  1.0075
47428SOL    HW246842   3.823   7.060   8.682 -0.0784 -0.1170  0.2207
47429SOL     OW46843   6.636   1.588   7.594 -0.2201  0.1553  0.1160
47429SOL    HW146844   6.663   1.558   7.680  0.5037 -0.5019 -0.3222
47429SOL    HW246845   6.582   1.517   7.560 -0.1605  0.2251 -0.1280
47430SOL     OW46846   0.478   0.723   3.791 -0.2144 -0.0460 -0.3485
47430SOL    HW146847   0.531   0.775   3.852 -0.4060  1.8698 -1.7174
47430SOL    HW246848   0.451   0.647   3.842  2.9210 -0.5923  0.7679
47431SOL     OW46849   9.054  10.053   6.029  0.6658 -0.1183  0.1501
47431SOL    HW146850   9.052  10.066   6.123  0.3716 -0.7660  0.2374
47431SOL    HW246851   9.111  10.123   5.996  0.5103  0.3079  0.7673
47432SOL     OW46852   7.018  10.246   4.221  0.0025  0.1869 -0.4479
47432SOL    HW146853   6.975  10.295   4.291  0.9380  2.0622 -1.1006
47432SOL    HW246854   7.099  10.215   4.260 -0.0980  0.0814 -0.3244
47433SOL     OW46855   7.866   7.014   6.444  0.0142 -0.2842  0.5141
47433SOL    HW146856   7.872   7.057   6.530 -2.9314  1.2670  0.0898
47433SOL    HW246857   7.815   7.075   6.391 -1.7617 -2.9638 -1.0974
47434SOL     OW46858   4.188   0.592   1.898  0.1097  0.2148  0.0109
47434SOL    HW146859   4.118   0.527   1.887  1.5901 -1.2700 -1.0724
47434SOL    HW246860   4.216   0.582   1.989  1.1832 -1.6643 -0.4707
47435SOL     OW46861   0.427   9.613   3.228  0.3142  0.3902 -0.2676
47435SOL    HW146862   0.359   9.551   3.205  0.6918 -0.1480  0.0402
47435SOL    HW246863   0.475   9.571   3.300  0.6907  0.9494 -0.1840
47436SOL     OW46864   6.518   6.492   0.029 -0.1663 -0.4860 -0.1447
47436SOL    HW146865   6.538   6.401   0.009 -1.6523 -0.5761 -1.4485
47436SOL    HW246866   6.460   6.487   0.106 -1.6271 -0.8133 -1.2155
47437SOL     OW46867   1.031  10.481   1.306 -0.1952 -0.1890 -0.2383
47437SOL    HW146868   0.947  10.454   1.344 -0.7757  0.7893 -0.7883
47437SOL    HW246869   1.096  10.453   1.370 -0.9878 -0.4107  0.4923
47438SOL     OW46870   1.010   3.129  11.823 -0.2915 -0.3954 -0.0549
47438SOL    HW146871   1.060   3.194  11.871  0.3416 -0.6704 -0.3342
47438SOL    HW246872   0.921   3.165  11.819 -0.3765 -0.4068  1.3677
47439SOL     OW46873   2.762   7.909   3.103 -0.3882  0.4376 -0.3918
47439SOL    HW146874   2.858   7.913   3.100 -0.3424 -0.0603  0.1108
47439SOL    HW246875   2.740   7.925   3.195 -0.7660  0.2029 -0.4385
47440SOL     OW46876   7.813   0.676   9.270 -0.8634  0.3139 -0.4642
47440SOL    HW146877   7.785   0.596   9.226  2.0393 -0.8872 -0.3794
47440SOL    HW246878   7.816   0.653   9.363  0.7049  0.2212 -0.5110
47441SOL     OW46879   1.502  10.927   4.176  0.3493 -0.3852 -0.1336
47441SOL    HW146880   1.453  10.913   4.095  0.7900  0.7987 -0.6300
47441SOL    HW246881   1.573  10.863   4.173 -0.2901 -1.1163 -0.1136
47442SOL     OW46882   7.109   5.058  10.455 -0.3192 -0.2046 -0.5652
47442SOL    HW146883   7.123   5.049  10.549 -1.6869 -1.0798 -0.4181
47442SOL    HW246884   7.039   4.996  10.435 -3.1718  2.9466 -1.3857
47443SOL     OW46885   3.354   1.759   4.591  0.0694  0.2742  0.8525
47443SOL    HW146886   3.367   1.699   4.518  0.3861  0.4651  0.7506
47443SOL    HW246887   3.259   1.770   4.597 -0.3431 -3.1590  3.2249
47444SOL     OW46888   9.703   4.275   9.157 -0.1650 -0.3102  0.3746
47444SOL    HW146889   9.715   4.350   9.215  0.6049 -1.0944  1.2754
47444SOL    HW246890   9.614   4.284   9.123  0.3386  1.6612 -0.5280
47445SOL     OW46891   7.488   1.863   3.524  0.0226 -0.0753  0.4884
47445SOL    HW146892   7.574   1.825   3.541 -0.1620 -1.1444 -0.7574
47445SOL    HW246893   7.505   1.957   3.511  1.1565 -0.4139 -0.6761
47446SOL     OW46894  10.562   1.385  11.968  0.0751 -0.7418 -0.4491
47446SOL    HW146895  10.634   1.435  11.929  0.4166  0.7044  1.7888
47446SOL    HW246896  10.594   1.295  11.971  1.4587 -0.2762 -0.3225
47447SOL     OW46897  10.184   5.451   0.546 -0.1752 -0.0988 -0.0400
47447SOL    HW146898  10.122   5.467   0.475  0.2060  0.8485 -0.1838
47447SOL    HW246899  10.144   5.382   0.599  0.6856 -2.7996 -2.6110
47448SOL     OW46900   3.156  12.041   1.658 -0.0071  0.1622  0.0573
47448SOL    HW146901   3.150  11.957   1.612  0.1712 -0.4282  1.0714
47448SOL    HW246902   3.249  12.048   1.683 -0.2313  0.1385  0.9166
47449SOL     OW46903   7.009   6.204   8.761 -0.0235 -0.0388 -0.5278
47449SOL    HW146904   7.050   6.249   8.688 -2.4114  1.3423 -1.1373
47449SOL    HW246905   7.003   6.113   8.733 -0.2531  0.3381 -1.7797
47450SOL     OW46906   8.901   1.595  12.052 -0.2320  0.0398 -0.2257
47450SOL    HW146907   8.838   1.547  12.106 -0.9472  0.4061 -0.7023
47450SOL    HW246908   8.899   1.684  12.086  0.4927 -0.0890  0.1495
47451SOL     OW46909   3.308   3.238   6.742  0.1716 -0.3987  0.1047
47451SOL    HW146910   3.215   3.256   6.734  0.2282 -0.8221 -2.6975
47451SOL    HW246911   3.348   3.325   6.749 -0.2981  0.0276 -1.7902
47452SOL     OW46912   4.007   7.681  10.837  0.1600 -0.2121 -0.1455
47452SOL    HW146913   4.081   7.621  10.842 -0.3039 -0.9070 -1.1869
47452SOL    HW246914   3.952   7.660  10.912 -0.4582 -1.7570 -0.9936
47453SOL     OW46915   8.615   3.545   3.396 -0.0125  0.0487 -0.2069
47453SOL    HW146916   8.526   3.567   3.423 -0.2409 -0.5474 -0.4473
47453SOL    HW246917   8.667   3.622   3.418 -0.4392  0.0979  0.6748
47454SOL     OW46918  11.453  10.779   6.225  0.1801  0.2435  0.0479
47454SOL    HW146919  11.419  10.726   6.298 -1.7825  0.6311 -0.5222
47454SOL    HW246920  11.435  10.869   6.250  1.7898  0.5690  0.1598
47455SOL     OW46921   4.476   5.088   9.149 -0.2405 -0.6927  0.5464
47455SOL    HW146922   4.564   5.119   9.127 -0.7812  0.0304 -0.7320
47455SOL    HW246923   4.439   5.159   9.202 -0.2592 -0.7386  0.5954
47456SOL     OW46924   6.743   1.673   9.950  0.0029  0.1636  0.7461
47456SOL    HW146925   6.813   1.702  10.007  0.9791 -0.2049 -0.2249
47456SOL    HW246926   6.688   1.618  10.005  1.1313 -0.4929  1.2433
47457SOL     OW46927   4.229   9.330   0.513 -0.5984 -0.8152  0.8999
47457SOL    HW146928   4.154   9.353   0.459 -0.9387 -2.5015  0.6020
47457SOL    HW246929   4.193   9.273   0.582  0.0948 -0.0422  1.9453
47458SOL     OW46930  11.767   5.828   9.638 -0.3151  0.7390 -0.0570
47458SOL    HW146931  11.824   5.766   9.593  0.8678  0.6640  1.4521
47458SOL    HW246932  11.770   5.801   9.730 -2.2007  1.2069  0.1906
47459SOL     OW46933   9.496   9.947   2.269 -0.4275 -0.3333  0.0957
47459SOL    HW146934   9.554   9.902   2.208 -0.1658  0.7155 -0.4549
47459SOL    HW246935   9.472   9.880   2.334 -0.8630 -1.5167 -1.2426
47460SOL     OW46936   6.767   2.299   3.175  0.2527  0.3678  0.2720
47460SOL    HW146937   6.822   2.356   3.229  1.4877  0.0958 -0.6506
47460SOL    HW246938   6.823   2.273   3.102 -0.2426 -2.0648  0.6521
47461SOL     OW46939   9.547  10.349   1.490  0.2750  0.2280 -0.0886
47461SOL    HW146940   9.609  10.408   1.447  0.1026 -0.4790 -1.3478
47461SOL    HW246941   9.481  10.407   1.528  2.1038  1.0610  2.0408
47462SOL     OW46942   1.407  11.799   5.527  0.3647  0.2584  0.2166
47462SOL    HW146943   1.329  11.855   5.527 -1.3017 -1.9231  0.3791
47462SOL    HW246944   1.433  11.794   5.435  1.5215  2.4570  0.3467
47463SOL     OW46945  11.460  11.927   1.854  0.9957  0.0934  0.2968
47463SOL    HW146946  11.378  11.976   1.862 -0.4778 -1.7308 -2.2857
47463SOL    HW246947  11.518  11.985   1.804 -0.1399 -0.0655 -1.2760
47464SOL     OW46948   7.800   3.646   2.902  0.2847 -0.1914  0.2628
47464SOL    HW146949   7.738   3.666   2.832  0.0730 -0.2619  0.4301
47464SOL    HW246950   7.752   3.588   2.961  0.1079  0.7090  1.0198
47465SOL     OW46951   9.725   6.031   5.802  0.0878  0.0909  0.5011
47465SOL    HW146952   9.635   5.999   5.795  0.0697  0.4652 -1.6657
47465SOL    HW246953   9.778   5.963   5.759  0.4929  1.1100 -0.6822
47466SOL     OW46954   3.068   4.111   9.592 -0.0701 -0.0009  0.4033
47466SOL    HW146955   3.114   4.029   9.608 -0.6729 -0.4266  0.0141
47466SOL    HW246956   2.987   4.103   9.642 -0.9872 -0.4447 -1.0857
47467SOL     OW46957   0.762   3.812   5.193  0.0325 -0.2355  0.0449
47467SOL    HW146958   0.750   3.907   5.200  0.3334 -0.1611 -0.3995
47467SOL    HW246959   0.848   3.796   5.230 -0.7103 -0.5649  1.7166
47468SOL     OW46960   2.222   0.574   5.632  0.1190  0.4941  0.0797
47468SOL    HW146961   2.236   0.480   5.643 -0.3906  0.0478 -2.4082
47468SOL    HW246962   2.197   0.606   5.719  2.0514 -1.3145  1.3683
47469SOL     OW46963   9.850   8.482   1.162 -0.0885 -0.3902  0.3301
47469SOL    HW146964   9.834   8.407   1.219 -2.7714  1.2768  2.0079
47469SOL    HW246965   9.829   8.558   1.216  0.1274  1.4709 -2.0198
47470SOL     OW46966   9.063   1.658   8.026  0.1300 -0.2185 -0.1985
47470SOL    HW146967   9.041   1.747   8.055  1.0110 -0.3736  1.0552
47470SOL    HW246968   9.005   1.641   7.952  0.5448  1.7226 -1.0159
47471SOL     OW46969   0.085   9.173   5.766 -0.5295 -0.0313 -0.0390
47471SOL    HW146970   0.012   9.212   5.719  0.0775  2.1865  0.7210
47471SOL    HW246971   0.048   9.147   5.850 -0.2836  2.2589  0.8563
47472SOL     OW46972   2.922   0.229   3.363 -0.4110 -0.4603  0.2034
47472SOL    HW146973   2.979   0.264   3.295 -0.3453 -0.7011  0.1317
47472SOL    HW246974   2.981   0.204   3.434 -0.3335 -1.4535 -0.1894
47473SOL     OW46975   2.535   1.953   1.959  0.3705 -0.0528 -0.4022
47473SOL    HW146976   2.551   1.878   2.017 -0.3960  0.3750  0.3850
47473SOL    HW246977   2.620   1.995   1.949  0.7542 -0.8665 -0.6264
47474SOL     OW46978   2.733   7.651   9.261 -0.5854 -0.1332  0.3886
47474SOL    HW146979   2.683   7.723   9.299 -0.7223 -0.1522  0.2439
47474SOL    HW246980   2.812   7.646   9.315 -0.6151  0.0696  0.4521
47475SOL     OW46981   6.895   3.154  11.841 -0.1614 -0.3607  0.2173
47475SOL    HW146982   6.818   3.147  11.898 -0.8499  0.0507 -0.6484
47475SOL    HW246983   6.890   3.075  11.786  0.9934 -1.2249  1.2868
47476SOL     OW46984  11.383  10.115   5.141 -0.5413 -0.2819  0.3147
47476SOL    HW146985  11.319  10.090   5.208 -0.8047 -0.3578  0.0376
47476SOL    HW246986  11.398  10.035   5.091  0.6377 -0.5586  1.0770
47477SOL     OW46987   5.178   2.880   3.515 -0.3673  0.3155 -0.6214
47477SOL    HW146988   5.126   2.955   3.489 -0.8931 -0.2859 -1.3539
47477SOL    HW246989   5.224   2.852   3.435  0.3423  0.2553 -0.2077
47478SOL     OW46990   7.723  10.678   3.072  0.0739  0.3276  0.5056
47478SOL    HW146991   7.712  10.683   3.167 -1.4273  0.5000  0.3470
47478SOL    HW246992   7.810  10.640   3.060  0.7809  1.4034  1.9302
47479SOL     OW46993   4.192   3.764   2.415  0.0194  0.3414 -0.0158
47479SOL    HW146994   4.273   3.783   2.462 -0.2498  0.2117  0.5141
47479SOL    HW246995   4.123   3.800   2.471 -0.2520  0.9558 -0.7354
47480SOL     OW46996   4.178   1.094  10.662  0.0817  0.4662  0.2926
47480SOL    HW146997   4.188   1.130  10.574  0.5839  0.6465  0.4175
47480SOL    HW246998   4.266   1.099  10.699 -0.2893  1.1772  1.1113
47481SOL     OW46999   1.882   4.894   4.644  0.1831 -0.1889 -0.4014
47481SOL    HW147000   1.935   4.972   4.626  1.0296 -0.7646 -0.4382
47481SOL    HW247001   1.793   4.928   4.658  0.3345  0.6897 -1.4460
47482SOL     OW47002   3.929   5.227   4.854 -0.2988  0.7247 -0.0081
47482SOL    HW147003   3.937   5.141   4.812 -0.7359  0.1247  1.0987
47482SOL    HW247004   3.987   5.284   4.803  1.5657 -0.6706  0.4283
47483SOL     OW47005   5.088   9.520  12.016 -0.5606  0.6076 -0.4494
47483SOL    HW147006   5.060   9.431  12.038  0.6801  0.3978  0.3764
47483SOL    HW247007   5.134   9.511  11.933 -1.0320  0.6109 -0.7190
47484SOL     OW47008  10.599  11.985   2.497 -0.4517 -0.0227 -0.0152
47484SOL    HW147009  10.637  12.043   2.563  1.4335 -0.6831 -0.4718
47484SOL    HW247010  10.520  11.950   2.539 -0.3066  0.9918  1.1712
47485SOL     OW47011   3.878   9.608   9.216  0.0005  0.3870  0.5878
47485SOL    HW147012   3.819   9.644   9.282 -0.8478  1.3220 -0.6344
47485SOL    HW247013   3.820   9.566   9.153  0.7137  0.4756 -0.1324
47486SOL     OW47014   5.825   8.234   6.610  0.5426  0.3437  0.3467
47486SOL    HW147015   5.920   8.229   6.599  0.4309  0.5265 -0.8133
47486SOL    HW247016   5.809   8.193   6.695  1.5227 -0.9954 -0.0772
47487SOL     OW47017   3.340  11.952   9.182 -0.0729  0.1735  0.2277
47487SOL    HW147018   3.354  11.866   9.143  0.8158  0.2742  0.2869
47487SOL    HW247019   3.427  11.977   9.214 -0.8582 -0.2758  3.0123
47488SOL     OW47020  11.201   3.997   5.196  0.2031 -0.0244 -0.0950
47488SOL    HW147021  11.206   3.948   5.278  1.6604  0.5091  0.1621
47488SOL    HW247022  11.241   3.939   5.131  0.4210  0.1479 -0.1170
47489SOL     OW47023   9.923   6.208   3.410  0.6669  0.8710 -0.4902
47489SOL    HW147024   9.831   6.232   3.405  0.8541  1.7027 -0.1844
47489SOL    HW247025   9.967   6.289   3.438  1.2630  0.0261  1.1361
47490SOL     OW47026   0.924   9.303   8.414  0.0830  1.0344 -0.9323
47490SOL    HW147027   0.943   9.223   8.366  0.2049 -0.3749  1.3235
47490SOL    HW247028   0.828   9.311   8.410 -0.0168  0.2163 -0.3404
47491SOL     OW47029   1.173  10.271  11.364 -0.4392  0.1216  0.1478
47491SOL    HW147030   1.187  10.241  11.275 -1.6273  0.4749 -0.1782
47491SOL    HW247031   1.261  10.285  11.399  0.0871 -1.6785 -0.3755
47492SOL     OW47032  11.958   4.654   1.957  0.3019  0.0757  0.6241
47492SOL    HW147033  11.906   4.732   1.938  0.4929  0.5429  1.9206
47492SOL    HW247034  11.946   4.598   1.880  0.3704  1.4739 -0.4357
47493SOL     OW47035  10.945   4.445   7.385 -0.0039 -0.5367 -0.5037
47493SOL    HW147036  10.940   4.538   7.406 -0.0250 -0.5597 -0.4020
47493SOL    HW247037  10.860   4.424   7.346 -0.7181 -0.9107  1.1574
47494SOL     OW47038   0.360   1.276   6.690 -0.0956 -0.1972  0.0595
47494SOL    HW147039   0.424   1.223   6.643 -0.7230 -1.4067  0.5364
47494SOL    HW247040   0.409   1.354   6.717  0.9309 -0.6787 -0.3527
47495SOL     OW47041   2.487   5.853   5.729 -0.3072  0.2221  0.3484
47495SOL    HW147042   2.441   5.788   5.676  0.6572  0.5254 -0.9217
47495SOL    HW247043   2.419   5.913   5.760 -1.2553 -1.4731  1.7343
47496SOL     OW47044   3.163   6.057   7.417  0.0189 -0.1161 -0.1843
47496SOL    HW147045   3.250   6.020   7.427  0.2290  0.4880  0.3109
47496SOL    HW247046   3.175   6.151   7.429 -0.4974  0.1297 -1.4400
47497SOL     OW47047   1.333   2.435   7.653  0.0607 -0.6119  0.2447
47497SOL    HW147048   1.246   2.404   7.680  0.3468 -0.7490  1.0285
47497SOL    HW247049   1.326   2.530   7.655  0.0710 -0.6173  0.8166
47498SOL     OW47050   8.647   2.675   6.789  0.2404 -0.3731 -0.0911
47498SOL    HW147051   8.730   2.724   6.787 -0.3389  0.6958  0.9706
47498SOL    HW247052   8.599   2.707   6.713 -0.2965  1.0718  0.8081
47499SOL     OW47053   7.025  11.020   8.340  0.4584  0.1425  0.0172
47499SOL    HW147054   6.958  11.056   8.281 -0.4450 -0.5323  0.5980
47499SOL    HW247055   7.052  11.094   8.394 -0.7179  0.1809  0.5908
47500SOL     OW47056   9.574  10.886   7.511 -0.3202  0.6520 -0.3501
47500SOL    HW147057   9.506  10.936   7.555 -0.4934 -0.2855  0.5092
47500SOL    HW247058   9.531  10.848   7.435 -0.0010  2.3550 -1.4135
47501SOL     OW47059   9.453  10.159   9.799  0.1368 -0.5873 -0.1340
47501SOL    HW147060   9.453  10.250   9.770  1.2995 -0.3215  0.6202
47501SOL    HW247061   9.362  10.132   9.794 -0.5943  1.3232  1.7541
47502SOL     OW47062  10.029   2.874   1.147 -0.0002 -0.5810  0.3282
47502SOL    HW147063   9.967   2.931   1.102  0.7085  0.3516  0.4900
47502SOL    HW247064  10.103   2.932   1.169  1.0378 -1.7050 -0.0777
47503SOL     OW47065   9.263   5.417   8.770  0.3729  0.1800 -0.9060
47503SOL    HW147066   9.281   5.442   8.679  0.6048  0.2081 -0.8532
47503SOL    HW247067   9.230   5.497   8.811 -0.7612 -0.0992 -1.2333
47504SOL     OW47068   3.107   0.008   2.224 -0.2467 -0.3791 -0.3480
47504SOL    HW147069   3.148  -0.056   2.167  0.2280  0.4825 -0.9939
47504SOL    HW247070   3.117  -0.028   2.312  0.2994 -1.0327 -0.6734
47505SOL     OW47071  10.927   1.990   7.534  0.0064  0.2512  0.1624
47505SOL    HW147072  10.932   2.019   7.625 -1.6498  1.8745 -0.1970
47505SOL    HW247073  10.837   1.962   7.522 -0.0453  0.9110 -1.1996
47506SOL     OW47074  11.011  10.453   3.262 -0.3721  0.1344  0.8563
47506SOL    HW147075  11.058  10.535   3.249  1.1046 -0.8457 -0.2608
47506SOL    HW247076  10.989  10.452   3.355  3.4088 -0.1454  1.8852
47507SOL     OW47077   4.979  10.230   7.316 -0.4726  0.1476  0.0465
47507SOL    HW147078   5.014  10.174   7.248  1.8443  1.2154  0.2769
47507SOL    HW247079   5.004  10.187   7.398  1.4878  1.4929  0.2293
47508SOL     OW47080   4.195   8.623   0.010  0.3553 -0.3132  0.1241
47508SOL    HW147081   4.216   8.612   0.103  0.6837 -1.6006 -0.0933
47508SOL    HW247082   4.114   8.675   0.011 -0.6749 -1.8516  1.2062
47509SOL     OW47083   0.690   1.401   0.841  0.4200  0.4387 -0.0925
47509SOL    HW147084   0.769   1.350   0.856  2.1929  3.0796  0.4030
47509SOL    HW247085   0.713   1.489   0.871 -2.6409  1.3978 -0.2211
47510SOL     OW47086  10.942   3.833   3.344  0.1264 -0.2009  0.5207
47510SOL    HW147087  11.002   3.779   3.293 -0.4847  1.0577 -1.6655
47510SOL    HW247088  10.950   3.920   3.306 -0.1891  0.9102  2.8028
47511SOL     OW47089   8.053   7.581   7.624  0.0743  0.4100 -0.3116
47511SOL    HW147090   8.035   7.624   7.540  0.5259  1.5567  0.1645
47511SOL    HW247091   8.008   7.635   7.689  0.7439  0.2333  0.3101
47512SOL     OW47092   8.641   2.865   8.256 -0.1079  0.0474  0.0770
47512SOL    HW147093   8.693   2.932   8.212 -0.8458  1.4900  1.3222
47512SOL    HW247094   8.553   2.902   8.260 -0.4092 -0.7633  1.2954
47513SOL     OW47095   7.241   9.672   9.859  0.0092 -0.6563 -0.3966
47513SOL    HW147096   7.287   9.588   9.857  0.1531 -0.5867 -0.1205
47513SOL    HW247097   7.201   9.680   9.772  0.1685 -0.9130 -0.4945
47514SOL     OW47098   0.628   0.823   7.217  0.2555  0.3002  0.1141
47514SOL    HW147099   0.551   0.876   7.239  0.0420  0.5035 -1.0559
47514SOL    HW247100   0.615   0.741   7.265 -0.6778  0.3456 -0.0485
47515SOL     OW47101   8.031   0.189  11.381 -0.0779  0.1496 -0.6875
47515SOL    HW147102   8.105   0.132  11.406 -0.6800 -1.6704 -2.7343
47515SOL    HW247103   7.973   0.186  11.457 -0.4479 -2.7019 -0.9670
47516SOL     OW47104   0.014  10.225   8.066 -0.7551  0.4337 -0.7502
47516SOL    HW147105  -0.018  10.157   8.007  0.6143 -0.5959 -0.3642
47516SOL    HW247106   0.017  10.304   8.013  0.6671 -0.5066 -2.1508
47517SOL     OW47107   4.716   2.194   8.795  0.2746  0.0107  0.3758
47517SOL    HW147108   4.810   2.196   8.778  0.5931  1.4644  2.0072
47517SOL    HW247109   4.709   2.158   8.884 -0.7135 -0.0030  0.3011
47518SOL     OW47110   1.500   0.679   9.689  0.6147  0.1690 -0.2544
47518SOL    HW147111   1.515   0.591   9.722  0.0623 -0.0645 -0.6153
47518SOL    HW247112   1.451   0.722   9.760 -1.0106 -0.4864 -0.9279
47519SOL     OW47113   6.451   8.362   9.782 -0.5372 -0.1301  0.3647
47519SOL    HW147114   6.545   8.342   9.788 -0.2995  0.9327  0.3828
47519SOL    HW247115   6.448   8.457   9.769 -1.6336 -0.0795  0.9206
47520SOL     OW47116   8.587  11.596  10.712 -0.0026  0.6273 -0.3759
47520SOL    HW147117   8.626  11.678  10.742 -0.8156 -0.0575  3.0784
47520SOL    HW247118   8.493  11.614  10.706 -0.1859 -0.0032  0.3933
47521SOL     OW47119   5.598   1.401   7.889  0.2522  0.2420 -0.6796
47521SOL    HW147120   5.545   1.446   7.823  0.3760  1.5447  0.0846
47521SOL    HW247121   5.594   1.457   7.966  1.8000 -0.2127 -0.2284
47522SOL     OW47122   7.849   4.415   7.131 -0.3022 -1.0679  0.3643
47522SOL    HW147123   7.784   4.372   7.076  1.1346 -0.9066 -1.5882
47522SOL    HW247124   7.803   4.435   7.212 -2.4971 -1.4844 -0.7031
47523SOL     OW47125   1.444   4.803  10.343  0.2038  0.6546 -0.1617
47523SOL    HW147126   1.475   4.754  10.419 -0.3883  0.9766  0.2958
47523SOL    HW247127   1.507   4.783  10.274 -1.0701 -2.4599 -0.6385
47524SOL     OW47128   4.668   1.919   0.788  0.5507  0.2050 -0.2477
47524SOL    HW147129   4.718   1.948   0.865  0.2596 -1.4222  0.6032
47524SOL    HW247130   4.590   1.878   0.825  0.5304 -0.8433 -1.4014
47525SOL     OW47131   9.766   0.312   4.558 -0.6235  0.2940 -0.3518
47525SOL    HW147132   9.716   0.324   4.639  0.0536  1.1645 -0.0415
47525SOL    HW247133   9.744   0.223   4.529 -0.0856 -0.4475  1.3539
47526SOL     OW47134   6.317   1.601   0.072  0.2180 -0.1789  0.2895
47526SOL    HW147135   6.315   1.541  -0.002 -3.3638  0.5033 -0.3363
47526SOL    HW247136   6.372   1.673   0.043  0.3347 -0.7603 -0.9975
47527SOL     OW47137   3.543  10.549   1.525 -0.0946 -0.2580 -0.2901
47527SOL    HW147138   3.556  10.554   1.619  3.3850  1.6736 -0.7027
47527SOL    HW247139   3.500  10.632   1.502 -0.4239 -0.4811 -0.5030
47528SOL     OW47140   6.682  11.556   0.529  0.0734 -0.4978  0.5728
47528SOL    HW147141   6.757  11.613   0.511  0.2395 -0.3057  1.7943
47528SOL    HW247142   6.605  11.612   0.513  0.1374 -0.9762 -1.6208
47529SOL     OW47143   2.905   9.165   8.195  0.1567 -0.5822 -0.0174
47529SOL    HW147144   2.960   9.238   8.222 -0.0738  0.1459 -1.4233
47529SOL    HW247145   2.961   9.112   8.138  0.2730 -1.4478  0.8640
47530SOL     OW47146  11.360   0.635  12.030  0.1177 -0.1028  0.6680
47530SOL    HW147147  11.357   0.551  12.076  1.0298 -0.4667  0.0981
47530SOL    HW247148  11.400   0.614  11.946 -1.6010  0.5356 -0.3531
47531SOL     OW47149   5.911  11.213   2.839 -0.5210  0.1000 -0.0454
47531SOL    HW147150   5.988  11.166   2.806 -0.6052 -0.2034  0.1896
47531SOL    HW247151   5.947  11.289   2.884 -0.4263  1.0540 -1.6331
47532SOL     OW47152   5.051  10.523  11.618  0.1189  0.1537  0.0649
47532SOL    HW147153   4.966  10.524  11.575  1.2375  0.2790 -2.2546
47532SOL    HW247154   5.030  10.523  11.712 -2.4789 -3.0029 -0.3277
47533SOL     OW47155   9.657   8.557   3.791 -0.0403 -0.3680  0.5861
47533SOL    HW147156   9.628   8.466   3.784  1.6604 -0.9176  0.2764
47533SOL    HW247157   9.700   8.563   3.876  1.4559 -0.3597 -0.1444
47534SOL     OW47158   3.669   3.254   1.870  0.2238  0.2911 -0.1786
47534SOL    HW147159   3.637   3.340   1.844  0.4470  0.0452 -1.3291
47534SOL    HW247160   3.596   3.214   1.917 -0.6233  0.3458 -1.3916
47535SOL     OW47161   7.118   4.049   7.706 -0.0435 -0.1520 -0.1588
47535SOL    HW147162   7.128   4.117   7.640  1.1161 -0.2475 -0.1112
47535SOL    HW247163   7.060   3.984   7.667  1.3524 -0.6632 -1.4802
47536SOL     OW47164  10.250   3.179   5.054  0.1316  0.0413 -0.5530
47536SOL    HW147165  10.293   3.262   5.076  0.4990  0.2058 -1.8380
47536SOL    HW247166  10.283   3.157   4.967 -0.9362 -0.8044 -0.7624
47537SOL     OW47167   4.619   4.522   5.944  0.2089  0.0778 -0.0451
47537SOL    HW147168   4.703   4.494   5.979  0.3597  0.2787 -0.2488
47537SOL    HW247169   4.640   4.584   5.875 -0.0954 -0.1257 -0.3271
47538SOL     OW47170   2.846  11.665   7.167 -0.4658  1.0862 -0.3478
47538SOL    HW147171   2.829  11.592   7.226  0.7295  0.9052 -0.2212
47538SOL    HW247172   2.777  11.729   7.189  1.1574  1.9644  2.7877
47539SOL     OW47173   8.328   6.671   3.964  0.2752 -0.0300  0.1623
47539SOL    HW147174   8.261   6.687   3.898  1.4093  0.9655 -0.7982
47539SOL    HW247175   8.322   6.578   3.983 -0.9734 -0.0648 -0.3317
47540SOL     OW47176  10.350   6.471   3.157 -0.3313 -0.1002 -0.7405
47540SOL    HW147177  10.275   6.443   3.105  1.1269  1.4772 -3.9252
47540SOL    HW247178  10.394   6.390   3.181 -0.5500 -0.9090 -2.8682
47541SOL     OW47179  10.572   7.429   6.521  0.0444  0.6740 -0.1667
47541SOL    HW147180  10.553   7.365   6.589  1.2987  0.5235  0.0648
47541SOL    HW247181  10.488   7.443   6.477 -0.9943  1.3848  1.8932
47542SOL     OW47182   6.121   3.328   3.643  0.4782  0.2088 -0.6476
47542SOL    HW147183   6.197   3.297   3.693 -0.4081 -1.8060 -0.4646
47542SOL    HW247184   6.046   3.287   3.685 -0.4271 -0.5311 -2.8431
47543SOL     OW47185   0.580   7.150   4.712 -0.0953  0.2108 -0.3095
47543SOL    HW147186   0.500   7.190   4.746 -0.4589 -0.8100  0.0596
47543SOL    HW247187   0.644   7.221   4.714 -0.6771  0.7369  0.5031
47544SOL     OW47188   6.557   7.269   2.709 -0.1792  0.3852 -0.5436
47544SOL    HW147189   6.587   7.242   2.796 -0.8732  0.5890 -0.2314
47544SOL    HW247190   6.484   7.329   2.726 -2.0250 -1.5093 -1.2672
47545SOL     OW47191   2.279   9.914   7.754 -0.8646 -0.1225 -0.2985
47545SOL    HW147192   2.197   9.938   7.796 -0.5670 -0.7117  0.6340
47545SOL    HW247193   2.303   9.830   7.792  1.1834  0.9374  0.9423
47546SOL     OW47194  11.991   9.545   3.463 -0.0009  0.0777  0.4842
47546SOL    HW147195  12.013   9.454   3.443 -0.6816  0.2819 -1.4226
47546SOL    HW247196  11.940   9.541   3.544 -0.4677 -1.2930  0.1418
47547SOL     OW47197   1.032   0.454   3.247 -0.3260 -0.1000 -0.3625
47547SOL    HW147198   1.085   0.380   3.277 -0.5515  0.3132  1.1461
47547SOL    HW247199   1.045   0.456   3.152  0.9243 -1.1071 -0.2405
47548SOL     OW47200  10.300  10.768  10.150  0.2716  0.0075  0.2319
47548SOL    HW147201  10.382  10.804  10.116  0.2141 -0.0273  0.0525
47548SOL    HW247202  10.250  10.744  10.071  0.6537 -1.2360  0.3485
47549SOL     OW47203   3.967  11.753   6.902 -0.0183  0.2598 -0.0489
47549SOL    HW147204   3.874  11.763   6.879 -0.3036  0.0551  0.9449
47549SOL    HW247205   4.014  11.777   6.823 -0.9172  0.7022 -0.4672
47550SOL     OW47206   3.407   2.287  11.739 -0.3433 -0.0234  0.3356
47550SOL    HW147207   3.418   2.262  11.647 -2.3913  1.5311 -0.4112
47550SOL    HW247208   3.417   2.206  11.787  1.7859 -0.7212 -1.1341
47551SOL     OW47209   7.607   6.562   6.877  0.3540  0.2634  0.0292
47551SOL    HW147210   7.663   6.495   6.917  1.1290  0.3332 -0.8879
47551SOL    HW247211   7.658   6.592   6.801 -0.6607  0.7845 -0.4546
47552SOL     OW47212   1.589   1.909   0.793  0.3471  0.4459  0.5259
47552SOL    HW147213   1.641   1.964   0.734  0.4967  0.5463  0.7486
47552SOL    HW247214   1.649   1.838   0.819  0.6629  1.0245  1.4535
47553SOL     OW47215   4.808   8.634   0.406 -0.1008  0.7421 -0.0205
47553SOL    HW147216   4.765   8.714   0.438 -2.9382 -0.7598  0.2825
47553SOL    HW247217   4.782   8.566   0.468  1.5451 -0.5888 -0.7224
47554SOL     OW47218   5.672   4.091   9.828 -0.3639  0.3094 -0.2210
47554SOL    HW147219   5.633   4.177   9.846 -0.9209 -0.0175  0.1673
47554SOL    HW247220   5.613   4.050   9.765  1.5316  1.4094 -2.9142
47555SOL     OW47221  10.287   6.448   4.105 -0.7347 -0.1200  0.1070
47555SOL    HW147222  10.218   6.422   4.044 -1.4254 -1.1793  1.2840
47555SOL    HW247223  10.246   6.443   4.191  0.2337  1.2839  0.6909
47556SOL     OW47224   3.794   0.231   8.986 -0.6692  0.5881 -0.4329
47556SOL    HW147225   3.871   0.176   9.001 -2.2099 -1.4900  0.4312
47556SOL    HW247226   3.830   0.315   8.958  1.9445  0.0188  0.8098
47557SOL     OW47227   2.250   6.227   5.994 -0.4267 -0.3112  0.4773
47557SOL    HW147228   2.279   6.318   6.002 -1.1254 -0.1423  1.1784
47557SOL    HW247229   2.282   6.185   6.073  0.7116 -0.9218 -0.2777
47558SOL     OW47230   1.765   0.861   8.330 -0.0522 -0.4136 -0.1350
47558SOL    HW147231   1.716   0.917   8.270  1.7877  0.9114 -0.4974
47558SOL    HW247232   1.791   0.786   8.276 -1.5049 -1.0598  0.0303
47559SOL     OW47233  12.059   2.826   1.598  0.2163  0.3095  0.1045
47559SOL    HW147234  12.003   2.795   1.527 -0.3068  0.3303  0.4947
47559SOL    HW247235  12.008   2.897   1.639  0.3713  0.0919  0.6875
47560SOL     OW47236   3.920   9.847   4.528 -0.6358  0.4415  0.2930
47560SOL    HW147237   3.867   9.775   4.495  1.3848 -1.7268  1.4504
47560SOL    HW247238   3.892   9.858   4.619 -1.7418  1.9803 -0.2038
47561SOL     OW47239  10.476   3.814   3.317  0.0980  0.0039  0.2705
47561SOL    HW147240  10.416   3.740   3.323  0.7712 -0.6212 -0.5032
47561SOL    HW247241  10.472   3.855   3.403 -0.1347 -1.0518  0.7807
47562SOL     OW47242   5.709   9.201   2.737 -0.4261  0.3115  0.5350
47562SOL    HW147243   5.658   9.155   2.670 -1.0280 -0.3499  1.4173
47562SOL    HW247244   5.732   9.133   2.800  0.4319  0.8585  0.8205
47563SOL     OW47245   1.415  10.765   9.203  0.2353 -0.6764  0.3160
47563SOL    HW147246   1.504  10.733   9.189  0.2358 -0.7190  0.4145
47563SOL    HW247247   1.373  10.757   9.117  0.6831  0.4802 -0.0297
47564SOL     OW47248   2.947   2.995   0.055  0.1996  0.0690  0.1551
47564SOL    HW147249   2.982   2.935  -0.011 -0.8136 -0.4414  0.0548
47564SOL    HW247250   2.953   2.946   0.137  2.3489  1.0494  0.6707
47565SOL     OW47251  12.029   1.100   7.768  0.1286  0.1074  0.3775
47565SOL    HW147252  12.055   1.174   7.824  0.4902  0.4416 -0.2205
47565SOL    HW247253  11.944   1.125   7.733 -0.5450 -0.5167  1.4952
47566SOL     OW47254  11.602  12.096   0.090  0.0818  0.0415 -0.1513
47566SOL    HW147255  11.647  12.012   0.086  0.1975  0.0110  1.3132
47566SOL    HW247256  11.522  12.083   0.039  0.1802 -0.9008 -0.0818
47567SOL     OW47257   9.774   8.392   9.834  0.0839 -0.0505  0.2593
47567SOL    HW147258   9.728   8.319   9.875  1.1304  0.4021  2.3909
47567SOL    HW247259   9.735   8.471   9.873  0.6812  0.4324 -0.0861
47568SOL     OW47260   9.012   9.299   9.564  0.0811  0.2475 -0.0307
47568SOL    HW147261   8.927   9.279   9.603 -0.5237  0.8356 -1.0147
47568SOL    HW247262   8.999   9.382   9.519  0.3944 -0.9285 -2.4873
47569SOL     OW47263   0.935   7.370   3.613 -0.2472  0.4298  0.0352
47569SOL    HW147264   1.000   7.370   3.542  2.4457  0.1273  2.3239
47569SOL    HW247265   0.938   7.459   3.649  0.7682 -0.2444  1.7005
47570SOL     OW47266   8.438   3.662   9.428 -0.7602 -0.4359 -0.4790
47570SOL    HW147267   8.357   3.712   9.435 -0.2826  0.4262 -1.0180
47570SOL    HW247268   8.424   3.606   9.351 -1.1115 -0.8136 -0.1498
47571SOL     OW47269  10.125   9.222   0.228  0.0472 -0.2036  0.3799
47571SOL    HW147270  10.055   9.279   0.260 -0.4159 -0.3190 -0.3980
47571SOL    HW247271  10.134   9.155   0.295 -0.5182 -0.1226  0.5454
47572SOL     OW47272   0.077   7.113   7.259  0.6231 -0.4703 -0.4349
47572SOL    HW147273   0.064   7.163   7.178 -1.2670 -1.0423 -0.5327
47572SOL    HW247274   0.063   7.176   7.329 -0.2925 -0.5178 -0.5619
47573SOL     OW47275   8.490   9.879   8.321 -0.0123 -0.2662  0.4181
47573SOL    HW147276   8.559   9.852   8.382  0.7613  2.0122  0.6252
47573SOL    HW247277   8.432   9.934   8.373  0.0598  0.8383 -0.6295
47574SOL     OW47278   6.318  11.186   7.564  0.1344 -0.1911 -0.3532
47574SOL    HW147279   6.277  11.271   7.581 -2.7653 -0.9418 -2.6886
47574SOL    HW247280   6.389  11.206   7.503  0.6077  0.7267  0.4742
47575SOL     OW47281  11.325   6.975  11.846  0.1927 -0.2087 -0.5253
47575SOL    HW147282  11.413   6.938  11.855  0.2887  0.2315  0.6512
47575SOL    HW247283  11.274   6.930  11.913 -0.8690 -1.4804 -2.1335
47576SOL     OW47284   3.387   0.458   9.319 -0.3260 -0.2823 -0.1200
47576SOL    HW147285   3.421   0.546   9.300 -1.3250 -0.3446 -2.5874
47576SOL    HW247286   3.450   0.420   9.380 -0.3234  2.4238  1.7758
47577SOL     OW47287   7.982   7.456   9.543 -0.1045  0.1610  0.4308
47577SOL    HW147288   8.053   7.467   9.607  1.8445 -0.2063 -1.5535
47577SOL    HW247289   7.976   7.541   9.500 -2.5554  0.9312  2.1094
47578SOL     OW47290   1.921   6.088   9.518  0.2250  0.7883  0.7329
47578SOL    HW147291   1.858   6.156   9.492  0.7470  0.8154 -0.5627
47578SOL    HW247292   1.940   6.107   9.610  0.0105  2.1353  0.5275
47579SOL     OW47293   0.110   6.912   0.806  0.7401 -0.4016  0.1134
47579SOL    HW147294   0.134   6.873   0.890 -0.7450  0.6281  1.0742
47579SOL    HW247295   0.014   6.916   0.808  0.6901  0.0202 -1.4710
47580SOL     OW47296  10.931   9.959   4.732  0.2992 -0.1261 -0.3162
47580SOL    HW147297  10.853  10.002   4.768  0.9048 -0.7427  1.8735
47580SOL    HW247298  10.904   9.868   4.719  0.5409 -0.2500  0.0550
47581SOL     OW47299   5.483   5.574   8.110  0.0037  0.1820 -0.4436
47581SOL    HW147300   5.511   5.661   8.139  1.1191 -0.1316 -0.5400
47581SOL    HW247301   5.552   5.515   8.141 -1.2802 -0.8476  0.6162
47582SOL     OW47302  11.157   6.781   4.297 -0.4482 -0.1145 -0.3162
47582SOL    HW147303  11.101   6.858   4.298 -3.1054 -1.8596 -1.6900
47582SOL    HW247304  11.204   6.788   4.214  0.2363  0.5824  0.1165
47583SOL     OW47305   3.278  11.648   9.933  0.4631  0.2356  0.0399
47583SOL    HW147306   3.231  11.705   9.872  1.6681  0.9962 -0.2231
47583SOL    HW247307   3.296  11.703  10.009 -0.1494 -0.4179  0.6741
47584SOL     OW47308   5.214   1.416   5.900 -0.1655 -0.3374 -0.6994
47584SOL    HW147309   5.286   1.354   5.901 -0.7868 -1.0850  1.3793
47584SOL    HW247310   5.239   1.484   5.962 -1.1465 -0.4938 -0.1183
47585SOL     OW47311   9.474   7.684   7.880  0.1124 -0.0274 -0.1471
47585SOL    HW147312   9.563   7.666   7.849  0.0196  0.4081 -0.6830
47585SOL    HW247313   9.432   7.730   7.807 -0.4000  0.2080  0.2889
47586SOL     OW47314   0.952  10.394   4.302  0.5550  0.5003 -0.1080
47586SOL    HW147315   1.047  10.392   4.296  0.7071  0.8882  1.6430
47586SOL    HW247316   0.930  10.487   4.301  0.1958  0.4129 -0.4590
47587SOL     OW47317   7.472   1.103   0.552  0.2794  0.1096 -0.4754
47587SOL    HW147318   7.536   1.033   0.558  0.1405  0.0421  0.2811
47587SOL    HW247319   7.404   1.080   0.615 -0.3447  0.3367 -1.0457
47588SOL     OW47320   8.082   9.311   2.209  0.4268  0.0267  0.2118
47588SOL    HW147321   8.140   9.292   2.136 -1.1460 -1.2179 -0.7753
47588SOL    HW247322   8.055   9.401   2.196  0.0208 -0.2385 -0.8758
47589SOL     OW47323   6.729  10.706   7.771  0.0582 -0.2818  0.4789
47589SOL    HW147324   6.671  10.673   7.839 -1.3680 -1.6364 -1.2856
47589SOL    HW247325   6.705  10.799   7.762 -2.5957 -1.0010 -0.8179
47590SOL     OW47326  11.139   7.628   0.771  0.2254  0.3188 -0.0481
47590SOL    HW147327  11.074   7.661   0.833  1.7987  1.4568  1.0631
47590SOL    HW247328  11.214   7.685   0.782  1.0091 -0.1979 -2.1760
47591SOL     OW47329   0.563   9.559   5.583  0.0545  0.1570 -0.3578
47591SOL    HW147330   0.566   9.547   5.489 -0.2532  0.0854 -0.3608
47591SOL    HW247331   0.529   9.648   5.595 -2.5989 -0.7476 -0.3182
47592SOL     OW47332   3.575   7.701   2.705 -0.0896 -0.3245  0.5127
47592SOL    HW147333   3.591   7.637   2.636 -1.8465 -0.2077 -0.0458
47592SOL    HW247334   3.480   7.706   2.713 -0.0190  1.9504  0.7820
47593SOL     OW47335   1.077   1.557   6.133 -0.6333 -0.1498  0.8099
47593SOL    HW147336   1.027   1.481   6.160 -1.0081  0.1788  1.0543
47593SOL    HW247337   1.116   1.590   6.214 -0.3073 -0.1979  0.6743
47594SOL     OW47338   0.291   9.949   6.501  0.1595  0.2412  0.0488
47594SOL    HW147339   0.255   9.864   6.527  0.0530  0.1793 -0.2968
47594SOL    HW247340   0.214  10.000   6.474  0.1211  0.7430  1.0620
47595SOL     OW47341  11.756   5.502   3.618 -0.2255  0.2134  0.1921
47595SOL    HW147342  11.824   5.454   3.663  0.8342 -0.2820 -1.8307
47595SOL    HW247343  11.711   5.437   3.565 -0.5731  0.9739 -0.4760
47596SOL     OW47344   3.002   3.457  10.749  0.1195  0.4175 -0.1601
47596SOL    HW147345   3.057   3.395  10.700  0.9889  0.8042  0.3118
47596SOL    HW247346   2.928   3.404  10.779  0.6961 -0.3280 -0.0214
47597SOL     OW47347   5.850   4.723   1.065 -0.2502 -0.1484 -0.1111
47597SOL    HW147348   5.903   4.747   1.142  0.0478  1.2982 -0.7311
47597SOL    HW247349   5.910   4.671   1.011 -0.1426 -0.3300  0.1791
47598SOL     OW47350   1.963   8.376   9.046 -0.6276 -0.0106 -0.5030
47598SOL    HW147351   2.049   8.413   9.023  0.9875 -3.4390 -0.5684
47598SOL    HW247352   1.944   8.414   9.132  1.9968 -0.6124  0.4427
47599SOL     OW47353   5.158   6.995   7.289  0.1058 -0.1958  0.5884
47599SOL    HW147354   5.166   7.022   7.380  0.9621 -0.1833  0.5183
47599SOL    HW247355   5.076   6.946   7.285  0.6275 -1.2035  1.6198
47600SOL     OW47356   6.217   9.860   6.180 -0.6250  0.3057 -0.1971
47600SOL    HW147357   6.141   9.912   6.207 -1.2125  0.6226 -2.2769
47600SOL    HW247358   6.220   9.869   6.084  1.3121 -0.7091 -0.2912
47601SOL     OW47359   8.106   5.665   6.243  0.2554  0.0358 -0.0370
47601SOL    HW147360   8.030   5.613   6.269  0.3370  0.4565  1.0688
47601SOL    HW247361   8.109   5.656   6.147 -1.5127  0.4755 -0.1673
47602SOL     OW47362   6.941   2.364  10.815  0.5800 -0.3416  0.7368
47602SOL    HW147363   6.878   2.363  10.888 -0.9048  0.1973 -0.4936
47602SOL    HW247364   6.989   2.447  10.825 -2.0262  1.4899 -0.7986
47603SOL     OW47365   7.214   3.891   4.110  0.2284  0.3670 -0.2256
47603SOL    HW147366   7.295   3.869   4.065  0.0020  0.3885 -0.6513
47603SOL    HW247367   7.205   3.825   4.178  0.0533 -0.2835 -0.8697
47604SOL     OW47368  10.524  11.402   7.950  0.1917  0.1833 -0.1476
47604SOL    HW147369  10.555  11.370   7.865 -0.4828  3.2161 -1.6842
47604SOL    HW247370  10.604  11.428   7.996  0.4931  0.0147 -0.5615
47605SOL     OW47371   1.480   2.600  10.774  0.1574  0.3926 -0.7005
47605SOL    HW147372   1.442   2.514  10.760 -0.4225  0.6705 -0.8587
47605SOL    HW247373   1.408   2.654  10.806  0.6769  0.6446  0.0805
47606SOL     OW47374   2.345   6.757   9.301  0.4697 -0.3095 -0.0462
47606SOL    HW147375   2.315   6.678   9.255  0.4898  0.0883 -0.7577
47606SOL    HW247376   2.414   6.727   9.359  0.8767 -0.7305 -0.7386
47607SOL     OW47377   6.227  10.310   3.407 -0.4205 -0.1467  0.8862
47607SOL    HW147378   6.236  10.380   3.342 -0.0716  1.0745  2.2061
47607SOL    HW247379   6.138  10.319   3.440 -0.8974 -1.3341 -0.0313
47608SOL     OW47380   0.421   5.312   8.641  0.2995 -0.2100 -0.3673
47608SOL    HW147381   0.333   5.275   8.642  0.0655  0.2787  1.3313
47608SOL    HW247382   0.444   5.320   8.734  1.1698  1.8879 -0.7131
47609SOL     OW47383   9.640   7.177   8.031 -0.1366  0.2604 -0.9864
47609SOL    HW147384   9.699   7.162   8.105 -1.6337  1.2071  0.4689
47609SOL    HW247385   9.603   7.091   8.011 -0.6400  0.1825  0.2111
47610SOL     OW47386   1.663   6.482   6.955 -0.4128 -0.0377 -0.1572
47610SOL    HW147387   1.678   6.446   7.042 -0.9382  0.9787  0.3698
47610SOL    HW247388   1.737   6.452   6.903 -1.1784 -2.4580  0.0538
47611SOL     OW47389   9.938   8.368   2.906  0.1817 -0.1584  0.2647
47611SOL    HW147390   9.944   8.446   2.852 -1.6785 -1.8488 -2.6548
47611SOL    HW247391   9.859   8.382   2.960  0.3568  0.3183  0.4021
47612SOL     OW47392   7.611   3.673   6.613  0.2099 -0.1864  0.6349
47612SOL    HW147393   7.638   3.765   6.613  1.4678 -0.5119  2.1028
47612SOL    HW247394   7.619   3.645   6.521 -2.1108  1.6384 -0.2192
47613SOL     OW47395  10.598   5.088   5.858  0.1739 -0.2464  0.3121
47613SOL    HW147396  10.648   5.013   5.890  0.8596  0.4166  0.8120
47613SOL    HW247397  10.569   5.061   5.771 -1.1205 -1.8052  1.1540
47614SOL     OW47398   0.741   2.093  10.870  0.2135  0.0155  0.4835
47614SOL    HW147399   0.701   2.157  10.812  0.1344 -1.1085 -0.7571
47614SOL    HW247400   0.822   2.068  10.826 -0.0314 -1.1263  0.6451
47615SOL     OW47401   5.731   1.983  11.084 -0.1078 -0.0856  0.0008
47615SOL    HW147402   5.678   2.037  11.026  0.0870 -0.1893 -0.2757
47615SOL    HW247403   5.712   2.015  11.172 -0.2591  0.1982 -0.1366
47616SOL     OW47404   0.677   8.918   4.632 -0.5598 -0.1564 -0.1326
47616SOL    HW147405   0.715   8.932   4.719 -0.4010  0.0976 -0.2384
47616SOL    HW247406   0.623   8.995   4.618  0.3644  0.4070 -0.7510
47617SOL     OW47407   3.863   9.865   3.870  0.0850 -0.3157  0.0034
47617SOL    HW147408   3.850   9.856   3.776 -1.5812 -0.8805  0.2586
47617SOL    HW247409   3.811   9.941   3.895  0.2449 -0.3738  0.5285
47618SOL     OW47410  10.617  10.877   0.124  0.5268 -0.2100  0.1788
47618SOL    HW147411  10.668  10.910   0.198 -0.0800 -0.9728  0.9513
47618SOL    HW247412  10.630  10.942   0.055 -0.4373  1.5239  1.5577
47619SOL     OW47413   8.803   1.258   4.452 -0.6255  0.1415 -0.0905
47619SOL    HW147414   8.877   1.207   4.420  0.0855  0.2769  1.2408
47619SOL    HW247415   8.726   1.210   4.422  0.0041 -0.5186 -0.7011
47620SOL     OW47416   7.679   5.963  10.054 -0.0060 -0.1095  0.1597
47620SOL    HW147417   7.621   5.898  10.095  0.0488  0.6904  1.5560
47620SOL    HW247418   7.627   6.043  10.051  0.3295  0.0925 -0.4872
47621SOL     OW47419   6.185   6.895  11.629 -0.2052 -0.0113  0.8048
47621SOL    HW147420   6.247   6.850  11.686  0.3261  0.6473  0.7577
47621SOL    HW247421   6.219   6.984  11.621 -0.3546 -0.0443 -0.4206
47622SOL     OW47422  10.400   5.696   2.196 -0.1200  0.0270  0.5322
47622SOL    HW147423  10.410   5.609   2.157  1.5160  0.6862 -0.6367
47622SOL    HW247424  10.349   5.745   2.132  2.4470  1.0692 -0.8756
47623SOL     OW47425   2.352   6.433   2.326 -0.5030  0.8734  0.5244
47623SOL    HW147426   2.286   6.385   2.375 -0.1602 -0.5356 -0.3329
47623SOL    HW247427   2.303   6.499   2.277 -1.0306  1.1597  1.4189
47624SOL     OW47428   1.495   0.936   4.646 -0.3505 -0.0586  1.1613
47624SOL    HW147429   1.557   0.978   4.586 -3.0575  0.7006 -1.3109
47624SOL    HW247430   1.550   0.880   4.701  2.3666 -1.5579 -2.6104
47625SOL     OW47431   7.395   0.237   8.624  0.1811 -0.7738 -0.2616
47625SOL    HW147432   7.486   0.268   8.614  0.1914 -0.3679  0.9216
47625SOL    HW247433   7.383   0.174   8.553  0.9830  0.1022 -1.2079
47626SOL     OW47434   7.428   3.945   2.644 -0.0493  0.2263  0.3159
47626SOL    HW147435   7.415   3.915   2.734  0.0015  2.8243  1.2631
47626SOL    HW247436   7.350   3.915   2.597 -2.1080  2.2247  2.2292
47627SOL     OW47437   8.531   2.577   5.637 -0.3214  0.3157 -0.0359
47627SOL    HW147438   8.491   2.640   5.578  0.7084  1.1074  0.0821
47627SOL    HW247439   8.605   2.624   5.676 -0.2575 -0.5721  0.9773
47628SOL     OW47440   2.204   3.891   6.567  0.6461  0.2649 -0.2900
47628SOL    HW147441   2.165   3.867   6.483  1.2249 -1.5079 -0.0965
47628SOL    HW247442   2.249   3.973   6.550  0.1631  0.2991 -1.5191
47629SOL     OW47443   1.017  11.225   9.096 -0.1031 -0.4705  0.4396
47629SOL    HW147444   1.075  11.237   9.172  0.3581 -1.5178  0.2721
47629SOL    HW247445   1.059  11.276   9.026 -0.6487  0.6771  0.9328
47630SOL     OW47446   4.103   2.871   1.009  0.6248  0.6456 -0.4779
47630SOL    HW147447   4.047   2.860   0.932 -0.7150  0.3884  0.5052
47630SOL    HW247448   4.160   2.793   1.009 -1.5726 -1.0518  0.5526
47631SOL     OW47449   7.313   3.196   5.297 -0.1164  0.3495 -0.3075
47631SOL    HW147450   7.262   3.118   5.317 -0.9644  0.3952 -2.1216
47631SOL    HW247451   7.266   3.267   5.341 -0.6942  0.1615 -0.6198
47632SOL     OW47452  11.775  10.963   0.565  0.1487  0.5744 -0.1812
47632SOL    HW147453  11.820  10.935   0.645 -3.5015 -1.2337  1.4695
47632SOL    HW247454  11.728  11.043   0.591 -0.6167  0.2858 -0.6399
47633SOL     OW47455   8.599   8.991   1.287  0.4146 -0.4069 -0.1208
47633SOL    HW147456   8.611   9.081   1.255 -0.2342 -0.0132  0.7156
47633SOL    HW247457   8.516   8.993   1.334  1.3806 -0.9362  1.7002
47634SOL     OW47458   8.387   9.406   6.117 -0.1370  0.2085 -0.3698
47634SOL    HW147459   8.314   9.374   6.064  0.3759 -1.7305  0.0126
47634SOL    HW247460   8.350   9.418   6.204 -0.6088  1.9143 -0.7593
47635SOL     OW47461   2.595   5.212   7.458 -0.1224 -0.4401 -0.2014
47635SOL    HW147462   2.544   5.132   7.466  0.9156 -1.0534  0.5402
47635SOL    HW247463   2.575   5.244   7.370 -0.3571 -1.6523 -0.6160
47636SOL     OW47464   8.803   0.684  12.098 -0.3649 -0.0314  0.5658
47636SOL    HW147465   8.787   0.722  12.012 -0.0041  1.4302  1.1062
47636SOL    HW247466   8.896   0.659  12.097 -0.4971 -0.5051  0.3465
47637SOL     OW47467   3.015   1.150   0.016  0.0767 -0.0743  0.6560
47637SOL    HW147468   3.000   1.089   0.089 -0.2896 -0.6685  0.1006
47637SOL    HW247469   3.005   1.237   0.054 -1.5289 -0.3877  1.0400
47638SOL     OW47470   5.860   4.347   0.754 -0.0617 -0.2409  0.0343
47638SOL    HW147471   5.835   4.357   0.663 -0.3511  2.3823  0.3402
47638SOL    HW247472   5.953   4.323   0.751 -0.3317 -1.2056 -0.9402
47639SOL     OW47473   8.902   1.154  11.548 -0.4563 -0.7127  0.1758
47639SOL    HW147474   8.874   1.065  11.525  1.7971 -1.8755  1.6596
47639SOL    HW247475   8.990   1.162  11.512 -0.1951  0.5250  1.0357
47640SOL     OW47476   7.161   9.735   4.605  0.1079  0.4388  0.0119
47640SOL    HW147477   7.108   9.797   4.556  0.5304  1.1329  0.4118
47640SOL    HW247478   7.217   9.693   4.539 -0.0125  0.6541 -0.2272
47641SOL     OW47479   8.191   1.527   6.854 -0.3611 -0.0703 -0.2413
47641SOL    HW147480   8.246   1.469   6.907  0.4533 -1.6858 -2.6953
47641SOL    HW247481   8.102   1.501   6.873 -0.0132 -2.2021 -1.2564
47642SOL     OW47482   2.135   9.251  10.053 -0.7018 -0.0398  0.6137
47642SOL    HW147483   2.049   9.213  10.068 -1.5197  0.9664 -1.2443
47642SOL    HW247484   2.196   9.177  10.059 -2.0322 -1.3204 -1.0500
47643SOL     OW47485  10.183   3.151   6.298  0.6090  0.5883 -0.2599
47643SOL    HW147486  10.129   3.084   6.340  1.1747  0.8528  0.9236
47643SOL    HW247487  10.126   3.228   6.292  0.2963  0.3299 -0.6605
47644SOL     OW47488  11.870   7.257   3.215 -0.0934 -0.2796 -0.0213
47644SOL    HW147489  11.898   7.298   3.298 -0.7186  1.5106 -0.6454
47644SOL    HW247490  11.784   7.294   3.199  0.2556 -0.1657 -1.7648
47645SOL     OW47491   4.764   8.395   7.689 -0.2354 -0.1420  0.2332
47645SOL    HW147492   4.719   8.406   7.773 -0.6708  0.2653 -0.0469
47645SOL    HW247493   4.809   8.311   7.697  1.5279  0.8584  1.6906
47646SOL     OW47494   7.248  10.296  12.125 -0.2276  0.1540  0.4509
47646SOL    HW147495   7.208  10.381  12.145 -0.6273  0.0826 -0.0274
47646SOL    HW247496   7.270  10.260  12.210 -0.6219  0.4700  0.6924
47647SOL     OW47497  11.737   5.540  11.436 -0.2914 -0.2623 -0.1210
47647SOL    HW147498  11.789   5.486  11.376 -0.5434  0.2827 -0.8336
47647SOL    HW247499  11.726   5.623  11.391 -0.3226  0.2274  0.7644
47648SOL     OW47500   1.889   5.282   7.888  0.2008 -0.0479 -0.6577
47648SOL    HW147501   1.956   5.315   7.947  0.4940 -1.3611 -0.2112
47648SOL    HW247502   1.865   5.197   7.924 -1.8678  0.4604 -0.6969
47649SOL     OW47503   5.455   2.505   1.913 -0.0173  0.3377 -0.0280
47649SOL    HW147504   5.496   2.423   1.885  2.7549  1.2228  1.0763
47649SOL    HW247505   5.471   2.566   1.840  0.9475  0.7382  0.4856
47650SOL     OW47506   0.721   5.601   8.362  0.2565  0.2034  0.2534
47650SOL    HW147507   0.810   5.635   8.353  0.8385 -1.1491  0.6792
47650SOL    HW247508   0.701   5.610   8.455  0.2524 -0.2326  0.2941
47651SOL     OW47509   3.623   0.203   9.206 -0.6531  0.1483  0.0188
47651SOL    HW147510   3.538   0.179   9.168 -1.7160  2.8934  0.4526
47651SOL    HW247511   3.682   0.209   9.131 -1.4837  0.5950 -0.6177
47652SOL     OW47512   8.206   9.232   3.934 -0.1496 -0.4940 -0.1268
47652SOL    HW147513   8.261   9.155   3.918 -2.4469 -2.1812 -0.3803
47652SOL    HW247514   8.205   9.242   4.029  1.7554  0.5368 -0.1567
47653SOL     OW47515  11.007   3.672  11.047  0.0970  0.9143 -0.4963
47653SOL    HW147516  11.014   3.715  10.961  0.3161  0.1652 -0.8653
47653SOL    HW247517  11.091   3.688  11.088 -0.2921  1.9688 -0.0753
47654SOL     OW47518   6.780   6.972  11.589  0.0665  0.4436 -0.2545
47654SOL    HW147519   6.810   7.049  11.637 -0.0005 -0.5224  1.4304
47654SOL    HW247520   6.685   6.983  11.585 -0.0074  0.1751  0.5323
47655SOL     OW47521  10.890   7.353  10.411  0.0323 -0.6295 -0.0072
47655SOL    HW147522  10.978   7.381  10.384  0.4352 -0.3704  1.5204
47655SOL    HW247523  10.905   7.281  10.472 -0.8253 -0.5431  0.3186
47656SOL     OW47524   3.988   1.361   7.714 -0.1538 -0.1254  0.1865
47656SOL    HW147525   3.912   1.418   7.703 -1.4475 -1.0777  3.0672
47656SOL    HW247526   4.018   1.378   7.804  1.8232 -1.2044 -0.2097
47657SOL     OW47527   4.947   2.604   1.975  0.8514  0.1992 -0.2775
47657SOL    HW147528   4.906   2.652   1.903  1.7746  3.6347  1.2694
47657SOL    HW247529   5.039   2.594   1.947  0.6260 -0.9517 -0.6697
47658SOL     OW47530   8.434   8.737   3.170 -0.2815  0.3737  0.2131
47658SOL    HW147531   8.354   8.790   3.172 -0.9481 -0.4479 -1.8667
47658SOL    HW247532   8.499   8.794   3.129 -0.2745  0.4453  0.3217
47659SOL     OW47533   7.255  10.206   5.192  0.0576 -0.5371  0.3004
47659SOL    HW147534   7.340  10.208   5.149 -0.1077 -0.8959 -0.0506
47659SOL    HW247535   7.274  10.220   5.285  0.2951  2.1429 -0.0557
47660SOL     OW47536   9.477   2.287  11.146 -0.3749  0.2075  0.1087
47660SOL    HW147537   9.540   2.345  11.190  0.2540 -0.1954 -0.2385
47660SOL    HW247538   9.402   2.283  11.206 -0.7641  1.9739 -0.2030
47661SOL     OW47539   3.787   7.512   9.655 -0.5921  0.2445  0.2794
47661SOL    HW147540   3.720   7.449   9.628 -0.6407  0.3264  0.2109
47661SOL    HW247541   3.774   7.588   9.598  0.1725 -0.1046 -0.3775
47662SOL     OW47542   3.434   0.970   0.181  0.6787 -0.3548  0.6449
47662SOL    HW147543   3.423   0.895   0.122  1.2141 -0.0525  0.1441
47662SOL    HW247544   3.528   0.971   0.201  0.6740  0.1755  0.6559
47663SOL     OW47545   5.376   0.622   2.064  0.1383 -0.1508  0.6839
47663SOL    HW147546   5.296   0.674   2.056 -0.2007 -0.8385 -0.7135
47663SOL    HW247547   5.344   0.532   2.073  0.7157 -0.6305 -1.4405
47664SOL     OW47548   6.137   3.219  10.426 -0.2174 -0.2774 -0.0622
47664SOL    HW147549   6.076   3.194  10.495 -0.6008  0.5748 -0.0731
47664SOL    HW247550   6.164   3.137  10.386  1.1748 -0.9380  2.0582
47665SOL     OW47551   6.351   5.441   5.652  0.3651 -0.3080  0.1257
47665SOL    HW147552   6.290   5.440   5.578  1.0750 -2.4085 -0.4951
47665SOL    HW247553   6.381   5.532   5.656  0.3703 -0.1217 -2.2826
47666SOL     OW47554   1.839   7.861   2.576  0.3019  0.1515  0.0743
47666SOL    HW147555   1.818   7.841   2.485  1.3441  2.3253 -0.7286
47666SOL    HW247556   1.778   7.931   2.600 -0.2120 -0.6571  1.1904
47667SOL     OW47557  10.365   5.539   1.448 -0.2180 -0.1063 -0.1568
47667SOL    HW147558  10.397   5.470   1.390  1.3089 -0.7212  1.3420
47667SOL    HW247559  10.427   5.611   1.437 -0.8157  0.3781 -0.4279
47668SOL     OW47560  10.525   8.605  11.950 -0.3514 -0.6594 -0.7701
47668SOL    HW147561  10.534   8.517  11.988 -0.2409  0.0185  0.8573
47668SOL    HW247562  10.475   8.654  12.015 -0.7470  0.3944 -1.8358
47669SOL     OW47563   3.117   5.066   5.453  0.1973 -0.2831  0.2339
47669SOL    HW147564   3.075   5.028   5.530  0.4391 -0.8905  0.0722
47669SOL    HW247565   3.203   5.095   5.484  0.5814 -1.1877  0.0357
47670SOL     OW47566   4.124   1.612   2.812 -0.1402 -0.2927 -0.4377
47670SOL    HW147567   4.040   1.571   2.828 -0.3371  0.0479 -0.5827
47670SOL    HW247568   4.103   1.704   2.794  0.4492  0.5193  2.4225
47671SOL     OW47569   7.016   5.841   6.618 -0.1384  0.0939  0.0960
47671SOL    HW147570   6.991   5.894   6.694 -0.6936 -1.3485  0.9694
47671SOL    HW247571   6.981   5.889   6.543 -1.1825  0.6512  0.9057
47672SOL     OW47572   3.164   7.087   3.539 -0.2834  0.2564 -0.8548
47672SOL    HW147573   3.238   7.148   3.542 -0.3533  0.2952  0.3208
47672SOL    HW247574   3.198   7.011   3.491  0.2928  0.5654 -0.9473
47673SOL     OW47575  12.050  10.748   8.690  0.1037  0.1082 -0.3364
47673SOL    HW147576  12.043  10.811   8.617 -0.6750 -1.5402 -1.7490
47673SOL    HW247577  12.119  10.688   8.663 -1.6720 -1.8165 -0.8005
47674SOL     OW47578   8.383  11.965   2.794  0.6919  0.1449 -0.1208
47674SOL    HW147579   8.441  11.910   2.847 -1.1139 -1.4395  0.3276
47674SOL    HW247580   8.316  11.994   2.856  1.1496  2.2637 -0.5400
47675SOL     OW47581   7.402   2.663   5.237 -0.6360 -0.9107  0.3393
47675SOL    HW147582   7.427   2.669   5.145  0.0721 -2.5105  0.3975
47675SOL    HW247583   7.475   2.702   5.284 -0.4439 -1.1930  0.2764
47676SOL     OW47584   5.475   2.325   2.568  0.0422  0.1836 -0.0311
47676SOL    HW147585   5.496   2.235   2.591  0.3844  0.3259  0.2296
47676SOL    HW247586   5.409   2.352   2.633  0.6616  0.4323  0.5136
47677SOL     OW47587   2.995   1.780   1.073  0.0475  0.2256  0.4784
47677SOL    HW147588   2.999   1.868   1.035  0.0750  0.1484  0.3029
47677SOL    HW247589   3.086   1.751   1.074 -0.0673 -0.1991 -0.3956
47678SOL     OW47590  10.778   4.450   8.818 -0.1699  0.2061  0.3229
47678SOL    HW147591  10.844   4.520   8.823  0.0691  0.0012  0.0763
47678SOL    HW247592  10.824   4.371   8.846  0.0058 -0.1454 -0.8803
47679SOL     OW47593   8.951   4.565   9.844  0.1912  0.3713  0.1720
47679SOL    HW147594   8.937   4.631   9.912  0.4282  1.0810 -0.4490
47679SOL    HW247595   9.044   4.542   9.852 -0.0124 -0.2864  0.7304
47680SOL     OW47596   5.363  10.467   4.069  0.1191  0.2521 -0.3931
47680SOL    HW147597   5.374  10.452   3.975 -0.4138  2.3254 -0.8295
47680SOL    HW247598   5.450  10.487   4.101  0.4785 -1.4384 -0.2007
47681SOL     OW47599   5.704  10.899   6.300  0.3716 -0.4202  0.4606
47681SOL    HW147600   5.661  10.840   6.238  1.0913  0.4810 -0.9461
47681SOL    HW247601   5.632  10.939   6.348 -0.2814 -0.3052 -0.5766
47682SOL     OW47602   6.700  10.440  11.169  0.4298  0.3091 -0.1258
47682SOL    HW147603   6.771  10.500  11.194  0.0350  0.3978  0.8029
47682SOL    HW247604   6.631  10.497  11.137  1.1956  0.1629 -2.1814
47683SOL     OW47605   8.280   8.412   8.985 -0.0086 -0.6106 -0.5168
47683SOL    HW147606   8.230   8.491   8.963  0.9177  0.1248 -0.0191
47683SOL    HW247607   8.276   8.407   9.080  1.8021  0.1072 -0.3698
47684SOL     OW47608   5.923   9.215   3.033 -0.1665  0.1522 -0.5718
47684SOL    HW147609   5.947   9.180   3.119 -1.4184 -1.0921 -0.6821
47684SOL    HW247610   5.946   9.145   2.972  0.0129  0.7204 -1.1668
47685SOL     OW47611   7.276   2.499  12.110 -0.0239  0.2081  0.5892
47685SOL    HW147612   7.205   2.517  12.048 -0.0572  1.5094  0.9684
47685SOL    HW247613   7.355   2.502  12.056  0.1838  3.5757  0.8423
47686SOL     OW47614   7.268   4.890   5.104 -0.0695 -0.6285  0.1046
47686SOL    HW147615   7.344   4.922   5.154  0.7026  0.0850 -1.4645
47686SOL    HW247616   7.224   4.830   5.164  0.7070  0.3314  1.7105
47687SOL     OW47617   3.121  11.318   5.916  0.5343 -0.0810  0.4868
47687SOL    HW147618   3.154  11.228   5.915 -0.9799 -0.6715  0.9478
47687SOL    HW247619   3.129  11.345   6.007  1.9584  0.6529  0.1663
47688SOL     OW47620   7.395   2.070  10.494  0.0187  0.1004 -0.3843
47688SOL    HW147621   7.306   2.039  10.477 -0.2853  0.1285  1.0745
47688SOL    HW247622   7.388   2.123  10.573  1.0390  1.5811 -1.2332
47689SOL     OW47623  12.115   4.241  11.390  0.2751 -0.8517  0.2215
47689SOL    HW147624  12.055   4.262  11.318  1.9453 -0.6591 -1.1747
47689SOL    HW247625  12.194   4.208  11.347  1.6064 -0.0568  1.9295
47690SOL     OW47626   7.705   1.724  10.634 -0.4640 -0.1593  0.1119
47690SOL    HW147627   7.695   1.794  10.569 -1.3725  0.2371  0.6674
47690SOL    HW247628   7.659   1.756  10.712  1.0642 -0.3779  1.1592
47691SOL     OW47629   8.333   9.968  11.258 -0.6095  0.0547 -0.2425
47691SOL    HW147630   8.375  10.014  11.331 -1.3029  0.8108 -0.3022
47691SOL    HW247631   8.350  10.023  11.182  0.2551 -0.8196 -0.7008
47692SOL     OW47632   1.481   4.990   2.736  0.1939  0.0495 -0.2818
47692SOL    HW147633   1.476   4.951   2.649  0.8381 -1.3158  0.2617
47692SOL    HW247634   1.391   4.995   2.765  0.1381 -3.2920  0.5351
47693SOL     OW47635  10.784   9.221   0.594 -0.7506  0.5557 -0.7270
47693SOL    HW147636  10.692   9.211   0.569 -0.3770 -1.1129 -1.5518
47693SOL    HW247637  10.790   9.179   0.680 -0.7619  0.6120 -0.6992
47694SOL     OW47638   2.234   6.276   5.553  0.1616  0.2880  0.5468
47694SOL    HW147639   2.240   6.220   5.630  1.3151  0.1738  0.3851
47694SOL    HW247640   2.154   6.327   5.566  0.2248  0.1047  1.6962
47695SOL     OW47641   0.771   7.081   5.822  0.0592  0.0515 -0.6890
47695SOL    HW147642   0.837   7.117   5.763  0.3550 -0.8809 -0.9462
47695SOL    HW247643   0.711   7.034   5.765 -0.5397  0.4567 -0.3998
47696SOL     OW47644   1.874   7.253   2.860  0.7692 -0.3829 -0.1748
47696SOL    HW147645   1.843   7.166   2.834  0.3199  0.0361 -1.0828
47696SOL    HW247646   1.947   7.271   2.800  0.3071  0.2169 -0.5696
47697SOL     OW47647   0.358  11.349   6.300 -0.1909  0.1238 -0.4222
47697SOL    HW147648   0.324  11.412   6.363 -0.1497 -0.4661  0.1955
47697SOL    HW247649   0.383  11.273   6.352 -0.1585 -0.3758 -1.1434
47698SOL     OW47650   9.670   0.043  11.324  0.1097 -0.0124  0.1028
47698SOL    HW147651   9.625  -0.002  11.394 -0.2074 -1.5388 -1.0210
47698SOL    HW247652   9.761   0.014  11.331  0.0513 -0.2712 -0.1945
47699SOL     OW47653  11.035   7.406   0.299  0.0174  0.3638 -0.1337
47699SOL    HW147654  11.047   7.399   0.204 -0.0985 -1.6220 -0.0363
47699SOL    HW247655  11.036   7.500   0.316 -1.1506  0.8284 -2.2488
47700SOL     OW47656   4.669   2.710   1.497  0.4110  0.0907  0.3798
47700SOL    HW147657   4.581   2.735   1.525  0.0927  0.2414 -0.6954
47700SOL    HW247658   4.698   2.782   1.441 -0.2054 -1.4783 -2.1450
47701SOL     OW47659   9.724   5.373   8.794  0.4009  0.5850  0.2262
47701SOL    HW147660   9.653   5.329   8.843 -0.1384  0.7503 -0.3921
47701SOL    HW247661   9.696   5.369   8.703  1.0805  0.8738  0.0012
47702SOL     OW47662   8.835   2.633   3.003  0.2103 -0.2162  0.3540
47702SOL    HW147663   8.913   2.676   2.967 -0.0637  0.1337  0.1728
47702SOL    HW247664   8.806   2.574   2.933 -0.4409  0.6148 -0.0938
47703SOL     OW47665  10.665   0.140   3.923 -0.4591 -0.0229 -0.1356
47703SOL    HW147666  10.615   0.062   3.947 -1.1688 -0.5815 -3.1275
47703SOL    HW247667  10.725   0.111   3.855  2.3669  1.1742  1.6445
47704SOL     OW47668   0.725   7.853   7.648  0.4488  0.0773 -0.0902
47704SOL    HW147669   0.744   7.812   7.733 -2.1679  0.2010  0.6628
47704SOL    HW247670   0.658   7.796   7.609 -1.7264  2.3769  0.0224
47705SOL     OW47671   4.907   9.496   4.345  0.5022  0.2490 -0.1777
47705SOL    HW147672   4.916   9.524   4.254  1.7890  1.8967  0.4195
47705SOL    HW247673   4.815   9.513   4.366  0.0260 -0.7081 -1.2940
47706SOL     OW47674  10.517   1.841   3.200 -0.1824 -0.2061 -0.1768
47706SOL    HW147675  10.597   1.862   3.152  0.2047 -1.6007 -0.1904
47706SOL    HW247676  10.479   1.766   3.153 -0.7354 -0.4680  0.6564
47707SOL     OW47677   5.750   3.570   6.934  0.5138  0.1112  0.0642
47707SOL    HW147678   5.718   3.644   6.986  0.5414 -0.2549  0.5958
47707SOL    HW247679   5.835   3.600   6.901  1.3119 -0.3085  1.6573
47708SOL     OW47680   7.696  10.136  10.992  0.2808  0.6900  0.4473
47708SOL    HW147681   7.711  10.196  10.920 -0.5967  0.0508 -0.2806
47708SOL    HW247682   7.601  10.126  10.997  0.3805 -0.1433  0.9500
47709SOL     OW47683   0.944  10.821   3.008  0.1847 -0.2874 -0.5135
47709SOL    HW147684   0.965  10.914   3.002 -1.8070  0.3737  1.2815
47709SOL    HW247685   0.869  10.817   3.069 -1.2335 -2.8391 -2.2169
47710SOL     OW47686   0.328   3.174   3.318  0.1676 -0.3604 -0.1033
47710SOL    HW147687   0.300   3.176   3.227 -1.1561 -0.5672  0.2805
47710SOL    HW247688   0.251   3.201   3.368  0.9139 -0.1007  0.9502
47711SOL     OW47689   8.200   6.165   6.372  0.2367 -1.0526  0.2950
47711SOL    HW147690   8.242   6.185   6.455 -0.9069  0.6104  0.5111
47711SOL    HW247691   8.160   6.079   6.386  0.3746 -0.9569  1.3338
47712SOL     OW47692   6.455   6.304   5.897  0.1051 -0.1809  0.0146
47712SOL    HW147693   6.475   6.253   5.975  1.3288  0.1917 -0.0385
47712SOL    HW247694   6.540   6.334   5.865 -0.1993 -1.6538 -2.4163
47713SOL     OW47695   6.067  10.574   0.116  0.2023 -0.0287  0.3852
47713SOL    HW147696   6.150  10.618   0.097 -0.3636  0.6606 -0.5683
47713SOL    HW247697   6.057  10.510   0.045 -0.4574  0.4357  0.0529
47714SOL     OW47698   5.369   6.922   1.006 -0.0023  0.2292 -0.6260
47714SOL    HW147699   5.422   6.880   0.939  0.6006  0.1702 -0.1247
47714SOL    HW247700   5.372   7.015   0.985  1.0021  0.3228 -0.1291
47715SOL     OW47701   1.582   1.726   2.682  0.8818 -0.4111  0.0784
47715SOL    HW147702   1.642   1.735   2.756 -0.1026 -1.4998  1.0559
47715SOL    HW247703   1.567   1.815   2.651  1.4916  0.0382  1.0436
47716SOL     OW47704   7.092   4.202   1.705 -0.2530 -0.1003  0.1815
47716SOL    HW147705   7.185   4.187   1.694 -0.3946 -0.4369 -0.6814
47716SOL    HW247706   7.061   4.126   1.754  0.1050  0.5653  1.4676
47717SOL     OW47707   8.276   6.424  11.974  0.3832  0.3745  0.0377
47717SOL    HW147708   8.306   6.352  12.029 -0.3300 -0.3973 -0.5594
47717SOL    HW247709   8.210   6.385  11.917 -1.6652  1.9708  1.1767
47718SOL     OW47710  11.983   4.421   3.833  0.0836  0.2591  0.0152
47718SOL    HW147711  12.038   4.427   3.911  1.3439 -0.2350 -0.8060
47718SOL    HW247712  11.916   4.356   3.857 -0.1000  0.7755  0.9839
47719SOL     OW47713  10.891   7.186  10.617 -0.0873  0.4180 -0.1905
47719SOL    HW147714  10.834   7.110  10.625 -0.8540  0.9055 -0.8596
47719SOL    HW247715  10.974   7.158  10.655 -0.9485 -0.1017  1.4095
47720SOL     OW47716   4.389   3.809   2.602 -0.0650 -0.0699 -0.3351
47720SOL    HW147717   4.477   3.786   2.632 -0.8882 -2.1270  0.7016
47720SOL    HW247718   4.336   3.810   2.682 -1.0182  1.0217 -0.9595
47721SOL     OW47719   9.883   7.850  10.079 -0.7504  0.5337 -0.2435
47721SOL    HW147720   9.791   7.833  10.058 -0.4106 -0.2003 -1.1789
47721SOL    HW247721   9.933   7.795  10.019  0.3007 -0.7096  1.6534
47722SOL     OW47722   1.932   2.191   7.804 -0.2284 -0.2243 -0.0944
47722SOL    HW147723   1.945   2.214   7.712 -0.8708 -2.8474 -0.9358
47722SOL    HW247724   2.018   2.205   7.845  0.3750 -0.0932 -1.3615
47723SOL     OW47725   7.683   8.047   7.334  0.6263  0.3342 -0.1684
47723SOL    HW147726   7.680   8.135   7.371 -1.1774  1.3571 -2.4624
47723SOL    HW247727   7.768   8.042   7.291  0.8385  0.8800  0.1744
47724SOL     OW47728   8.843   9.852   5.533 -0.0197  0.1743 -0.1839
47724SOL    HW147729   8.905   9.808   5.591  0.3219 -0.2577 -0.8572
47724SOL    HW247730   8.777   9.786   5.514  0.2390  0.0960 -0.8262
47725SOL     OW47731   6.196   0.767   8.722 -0.1797  0.1336  0.9999
47725SOL    HW147732   6.170   0.843   8.775 -2.6265 -0.6088  1.0160
47725SOL    HW247733   6.262   0.722   8.775  0.2796  1.4902  1.6245
47726SOL     OW47734  11.875   3.892  10.946  0.2099  0.2432  0.7612
47726SOL    HW147735  11.834   3.840  11.016  1.3904 -1.0509  0.5327
47726SOL    HW247736  11.882   3.831  10.873  0.4988  1.1115  0.0541
47727SOL     OW47737   8.949   7.466   6.673  0.2538 -0.4797 -0.2050
47727SOL    HW147738   8.898   7.419   6.607 -2.0190  0.6582  0.6300
47727SOL    HW247739   9.007   7.524   6.623 -2.0119  0.9940 -1.2865
47728SOL     OW47740   7.005  10.293   2.607  0.4172  0.0907 -0.4617
47728SOL    HW147741   7.017  10.236   2.531 -1.2588 -1.1003  0.1162
47728SOL    HW247742   6.938  10.250   2.660 -0.2792  2.1572  0.4572
47729SOL     OW47743  11.992  11.759  11.407  0.2448 -0.3372 -0.0702
47729SOL    HW147744  12.029  11.761  11.495 -1.3924  0.1807  0.6381
47729SOL    HW247745  11.983  11.851  11.382 -2.0091 -0.3536  0.4553
47730SOL     OW47746   1.196   3.544   3.751 -0.1203  0.5471  0.6020
47730SOL    HW147747   1.111   3.502   3.764 -0.7176  1.6397  0.3498
47730SOL    HW247748   1.175   3.636   3.734  1.0463  0.6305 -0.5561
47731SOL     OW47749   4.353   2.249   2.489 -0.2442 -0.5203 -0.5315
47731SOL    HW147750   4.364   2.334   2.447  0.5398  0.1434  0.9370
47731SOL    HW247751   4.272   2.213   2.452 -2.3016  2.1925  0.9855
47732SOL     OW47752   3.735   8.504   4.876 -0.3515 -0.0434 -0.1969
47732SOL    HW147753   3.750   8.503   4.970  0.0115 -0.4446 -0.2549
47732SOL    HW247754   3.815   8.542   4.839 -0.8100  0.8530 -0.2925
47733SOL     OW47755   0.349   1.363   2.930  0.0533  0.4766 -0.0595
47733SOL    HW147756   0.419   1.404   2.880  0.3663 -0.1593 -0.1570
47733SOL    HW247757   0.268   1.404   2.897  0.0306 -1.3839 -2.6590
47734SOL     OW47758  10.617   8.248   6.033 -0.0421  0.2395  0.2487
47734SOL    HW147759  10.621   8.285   5.945  2.9776 -1.5776 -0.5121
47734SOL    HW247760  10.637   8.156   6.021 -0.9978 -0.3715  2.7458
47735SOL     OW47761   3.958   4.790   5.473 -0.8216 -0.0260  0.8711
47735SOL    HW147762   4.009   4.727   5.523  1.6499  1.9789  1.0708
47735SOL    HW247763   4.009   4.805   5.393 -1.8724  0.9754  0.3574
47736SOL     OW47764   0.794  10.923   1.764 -0.0795 -0.0766 -0.3047
47736SOL    HW147765   0.852  10.972   1.822  0.8956 -1.6550  0.1215
47736SOL    HW247766   0.754  10.857   1.820  1.0838 -1.8053 -1.3915
47737SOL     OW47767   0.141   5.774   0.278  0.1950 -0.4801  0.1976
47737SOL    HW147768   0.135   5.866   0.304 -1.1661 -0.8884  1.4176
47737SOL    HW247769   0.087   5.727   0.341  0.2890 -2.0482 -0.8345
47738SOL     OW47770   8.747   2.686   3.602  0.4007  0.5671  0.6595
47738SOL    HW147771   8.751   2.591   3.612 -1.1159  0.2002 -1.6056
47738SOL    HW247772   8.657   2.709   3.621 -0.5365  0.8181 -3.2157
47739SOL     OW47773  10.201   3.913  11.775  0.0503 -0.1136 -0.3210
47739SOL    HW147774  10.116   3.870  11.774  0.6482 -1.4382  0.8007
47739SOL    HW247775  10.212   3.949  11.687 -1.8673  0.5510 -0.3330
47740SOL     OW47776   9.546   8.143   9.296  0.7095 -0.6959  0.3365
47740SOL    HW147777   9.538   8.202   9.371 -0.6301 -2.4732  1.6764
47740SOL    HW247778   9.470   8.163   9.242 -0.5636 -2.0425  1.5128
47741SOL     OW47779   1.172  12.049   3.317 -0.1396 -0.2439 -0.0797
47741SOL    HW147780   1.097  11.998   3.286 -0.0382 -0.1626 -0.4719
47741SOL    HW247781   1.231  11.985   3.354 -0.2635 -0.3454 -0.0572
47742SOL     OW47782   8.559   2.122   3.707 -0.2191  0.4002  0.5704
47742SOL    HW147783   8.653   2.104   3.715 -0.1395  1.2029  1.6042
47742SOL    HW247784   8.536   2.090   3.620  1.0621  0.4148  0.2088
47743SOL     OW47785   0.618  10.451   3.824  0.0042 -0.3573 -0.1844
47743SOL    HW147786   0.567  10.448   3.743  0.8224 -1.8322 -0.6860
47743SOL    HW247787   0.558  10.486   3.889 -0.4501  1.6186 -1.5540
47744SOL     OW47788   2.362   5.361   2.555 -0.0179 -0.1717  0.5920
47744SOL    HW147789   2.449   5.400   2.557  0.0077 -0.1727 -0.2193
47744SOL    HW247790   2.347   5.332   2.645  0.1880  1.1997  1.0918
47745SOL     OW47791  10.912   7.213   9.542  0.4497 -0.2467  0.6579
47745SOL    HW147792  10.823   7.178   9.550  1.2194 -2.0272  2.0819
47745SOL    HW247793  10.953   7.159   9.475  0.0130  1.6774 -1.2568
47746SOL     OW47794  11.675   6.505   6.567  0.5436  0.3806 -0.1441
47746SOL    HW147795  11.757   6.544   6.599  1.2186 -2.3162  1.7967
47746SOL    HW247796  11.646   6.563   6.497  2.3423  3.2768  1.3333
47747SOL     OW47797  11.805  12.077   1.085  0.8933  0.7380  0.3893
47747SOL    HW147798  11.820  11.983   1.088 -0.5536  0.4481 -0.5199
47747SOL    HW247799  11.713  12.086   1.059  1.7166  2.4163 -2.3047
47748SOL     OW47800   5.844   4.251   8.688 -0.1181  0.1483 -0.1947
47748SOL    HW147801   5.885   4.335   8.666  0.2432  0.1966  0.6666
47748SOL    HW247802   5.835   4.207   8.603  2.2910 -0.1389 -0.3645
47749SOL     OW47803   2.855   3.499   2.163 -0.5052  0.1516  0.1331
47749SOL    HW147804   2.903   3.581   2.176 -0.5048 -0.0408  1.5444
47749SOL    HW247805   2.769   3.526   2.131 -0.6270  0.7525  0.9103
47750SOL     OW47806  11.876  10.195   9.854 -0.1585  0.7310 -0.3573
47750SOL    HW147807  11.952  10.204   9.796  1.3304  0.1490  1.4306
47750SOL    HW247808  11.900  10.244   9.933 -1.6376  0.4853  0.2697
47751SOL     OW47809   2.105   8.673   1.110 -0.5022 -0.0791 -0.2992
47751SOL    HW147810   2.093   8.579   1.125 -1.5600 -0.0272 -0.7436
47751SOL    HW247811   2.141   8.679   1.021  0.4768 -0.0918  0.0743
47752SOL     OW47812   2.731   1.705   2.761 -0.1362 -0.1253 -0.1401
47752SOL    HW147813   2.724   1.798   2.739 -2.1827 -0.5759 -1.7948
47752SOL    HW247814   2.660   1.664   2.712  2.1403 -2.9306 -1.3422
47753SOL     OW47815  11.506   3.611   6.004  0.2202 -0.3737  0.1952
47753SOL    HW147816  11.451   3.629   5.928  1.7098 -0.8713 -1.0515
47753SOL    HW247817  11.539   3.522   5.989  1.9131  0.1630  0.5264
47754SOL     OW47818   1.417   1.245  10.343 -0.2480  0.1176  0.1527
47754SOL    HW147819   1.337   1.274  10.300  0.3118  2.1707  0.4051
47754SOL    HW247820   1.484   1.251  10.275  0.2246  1.2782  0.6931
47755SOL     OW47821   4.122   8.516   7.902 -0.2819  0.1516 -0.0574
47755SOL    HW147822   4.146   8.489   7.991 -0.6088  0.2504  0.0647
47755SOL    HW247823   4.101   8.610   7.911  1.4705  0.6185 -0.6021
47756SOL     OW47824   1.374   6.394   7.913 -0.3982 -0.5052 -0.5536
47756SOL    HW147825   1.335   6.474   7.948 -0.5469 -0.6475 -0.3842
47756SOL    HW247826   1.426   6.360   7.986 -0.9050 -0.9326 -0.3800
47757SOL     OW47827   4.045  11.070   3.323 -0.0682 -0.1748  0.0414
47757SOL    HW147828   4.123  11.124   3.334  0.1561 -0.4456 -0.2054
47757SOL    HW247829   4.057  11.027   3.239  0.3256 -1.5252  0.7537
47758SOL     OW47830   9.425   2.324   6.839 -0.4489 -0.2337 -0.2097
47758SOL    HW147831   9.343   2.321   6.888 -0.7229 -1.9463 -0.7051
47758SOL    HW247832   9.428   2.412   6.802 -1.2589  0.3885  1.1288
47759SOL     OW47833  12.016   9.939   9.197 -0.2159 -0.6797  0.0489
47759SOL    HW147834  12.033   9.870   9.261  1.6619  0.1371  0.5065
47759SOL    HW247835  11.959   9.898   9.132 -0.7597 -2.0505  1.3197
47760SOL     OW47836   3.606   8.088  11.437 -0.3704  0.3334  0.4828
47760SOL    HW147837   3.686   8.055  11.478 -0.3004 -2.6408 -1.7228
47760SOL    HW247838   3.541   8.019  11.454 -1.1164  0.4256 -1.7246
47761SOL     OW47839   6.671   8.617   4.889  0.1583 -0.5917  0.0273
47761SOL    HW147840   6.654   8.523   4.878  0.9964 -0.7147 -0.3110
47761SOL    HW247841   6.739   8.622   4.956  0.4598 -0.2599 -0.2945
47762SOL     OW47842   5.160  11.881   8.616 -0.4153  0.1136  0.3850
47762SOL    HW147843   5.254  11.888   8.599 -0.6013  0.7941 -0.4424
47762SOL    HW247844   5.118  11.909   8.535 -1.3443  0.8750  1.0940
47763SOL     OW47845   7.458   8.854   0.351  0.3265  0.1871  0.4141
47763SOL    HW147846   7.416   8.873   0.267 -0.9728  0.7350  1.1531
47763SOL    HW247847   7.467   8.759   0.353 -0.7285  0.0653  0.1380
47764SOL     OW47848   2.927   5.149   8.597  0.1738 -0.0884 -0.0591
47764SOL    HW147849   2.913   5.128   8.689  1.1226  1.4645  0.4758
47764SOL    HW247850   2.874   5.227   8.581  1.6166  0.9151 -0.2146
47765SOL     OW47851   5.130   1.899  12.073 -0.0755 -0.3929 -0.3499
47765SOL    HW147852   5.098   1.867  11.988 -3.2346 -0.1855  0.6151
47765SOL    HW247853   5.094   1.837  12.136 -0.0523  0.9477  1.0245
47766SOL     OW47854   7.080   7.886   7.324 -0.0214  0.2722  0.2527
47766SOL    HW147855   7.061   7.857   7.235 -0.2862  0.7575  0.1457
47766SOL    HW247856   7.033   7.825   7.381  0.0896  0.0066  0.0567
47767SOL     OW47857   9.177   1.884   0.744  0.8236  0.1104 -0.2879
47767SOL    HW147858   9.192   1.791   0.758 -0.9316 -0.0329  1.0051
47767SOL    HW247859   9.199   1.925   0.828  1.2280  0.8379 -0.7316
47768SOL     OW47860   0.719   0.202  11.519 -0.4178  0.1328  0.5393
47768SOL    HW147861   0.721   0.142  11.444 -1.1728  0.3698  0.3230
47768SOL    HW247862   0.628   0.231  11.524 -0.3121  0.3439  1.3750
47769SOL     OW47863   1.543  10.442   7.272  0.0524  0.3780  0.3440
47769SOL    HW147864   1.479  10.371   7.268 -0.9102  1.1316  1.3270
47769SOL    HW247865   1.570  10.444   7.364  2.1264 -0.4293 -0.2091
47770SOL     OW47866   0.836   2.990   4.562  0.2540 -0.0371  0.4671
47770SOL    HW147867   0.828   3.068   4.507  1.3357  1.0052  1.7254
47770SOL    HW247868   0.873   2.924   4.504 -0.3189  0.4903 -0.5254
47771SOL     OW47869   0.403   8.482  10.176  0.0993 -0.8227 -0.0460
47771SOL    HW147870   0.482   8.532  10.196 -0.8030  0.2307  1.0448
47771SOL    HW247871   0.400   8.414  10.243 -1.0314  0.5050  1.3459
47772SOL     OW47872   2.916  11.886   3.469 -0.1914  0.2754 -0.3421
47772SOL    HW147873   3.002  11.907   3.431  0.2963 -2.0340 -0.7049
47772SOL    HW247874   2.867  11.848   3.396 -0.7838 -0.2674  0.3274
47773SOL     OW47875  11.238   0.065   0.196 -0.0238 -0.0910  0.0122
47773SOL    HW147876  11.180   0.106   0.259  1.7916 -0.9669  2.4261
47773SOL    HW247877  11.231  -0.029   0.213  2.4212 -0.2100  0.7982
47774SOL     OW47878   6.304   8.627   1.756  0.4240 -0.1578  0.1836
47774SOL    HW147879   6.286   8.552   1.812  1.1192 -1.1205 -0.8331
47774SOL    HW247880   6.400   8.631   1.750  0.3714 -0.1003 -0.9375
47775SOL     OW47881   0.622   6.333   3.826 -0.4908 -0.0415  0.6554
47775SOL    HW147882   0.607   6.250   3.871  0.9451  0.1377  1.5154
47775SOL    HW247883   0.557   6.392   3.865 -1.1635 -0.6020  0.4190
47776SOL     OW47884   4.481   0.976  11.695  0.2026  0.3507  0.2141
47776SOL    HW147885   4.413   1.028  11.738 -0.2046  1.3045 -1.4845
47776SOL    HW247886   4.550   0.967  11.760  0.1668  2.8063  0.6948
47777SOL     OW47887   0.444   4.786  11.822  0.3538  0.1552  0.2709
47777SOL    HW147888   0.425   4.814  11.732  1.3158  0.3752  0.1174
47777SOL    HW247889   0.363   4.747  11.853  0.1423 -0.3591 -0.8643
47778SOL     OW47890  11.149   6.196   1.318  0.0398 -0.4364 -0.1802
47778SOL    HW147891  11.184   6.279   1.285  0.3107 -0.8401 -0.9435
47778SOL    HW247892  11.058   6.215   1.338  0.4628  0.4067  1.0176
47779SOL     OW47893   8.346  11.825  11.124 -0.5670 -0.1404  0.0778
47779SOL    HW147894   8.340  11.915  11.155 -0.6268 -0.2769  0.4614
47779SOL    HW247895   8.277  11.817  11.059 -0.2625  0.2286 -0.3019
47780SOL     OW47896   9.964   3.457   3.900 -0.2988  0.2234  0.4710
47780SOL    HW147897  10.060   3.462   3.900 -0.2726 -0.1141 -0.2613
47780SOL    HW247898   9.945   3.364   3.917 -0.4016 -0.3974 -2.4447
47781SOL     OW47899   5.986   8.326   7.640  0.4797 -0.0856  0.0888
47781SOL    HW147900   5.912   8.359   7.692 -0.3389 -0.1525 -0.9891
47781SOL    HW247901   6.030   8.405   7.608 -1.1494  0.0625 -2.0264
47782SOL     OW47902   9.601   7.987   6.942  0.5246 -0.5199 -0.2113
47782SOL    HW147903   9.689   8.011   6.971  0.4196  0.6789 -0.8137
47782SOL    HW247904   9.614   7.911   6.886  1.1896 -0.3120 -0.3483
47783SOL     OW47905   9.862   8.259   7.960  0.3933 -0.5241  0.0820
47783SOL    HW147906   9.920   8.333   7.940  1.5171 -1.2022  0.6923
47783SOL    HW247907   9.842   8.221   7.875  0.3257  0.1093 -0.1883
47784SOL     OW47908   5.205   6.853   8.508  0.4913  0.1734  0.4844
47784SOL    HW147909   5.169   6.806   8.583 -0.3268  1.3066  0.8130
47784SOL    HW247910   5.281   6.900   8.542  1.5586 -1.1774  0.0688
47785SOL     OW47911   2.585   2.421   3.845 -0.3173  0.9797  0.4064
47785SOL    HW147912   2.645   2.447   3.915  0.5837 -1.3562  0.5692
47785SOL    HW247913   2.579   2.499   3.789  1.0120  2.0304  1.6399
47786SOL     OW47914   8.062  11.807  10.128  0.0160  0.2805  0.2578
47786SOL    HW147915   8.143  11.758  10.145  0.0682 -0.2122 -1.2987
47786SOL    HW247916   8.079  11.894  10.165  1.5305  0.4019 -0.6359
47787SOL     OW47917   0.307   1.650  11.713 -0.1309  0.1619  0.1285
47787SOL    HW147918   0.346   1.669  11.799  0.3777 -1.1149  0.1992
47787SOL    HW247919   0.219   1.685  11.719  0.1840  0.8581  0.8720
47788SOL     OW47920   2.287   4.384   7.250  0.3954  0.1154  0.0686
47788SOL    HW147921   2.251   4.409   7.335 -1.4773 -3.4421  0.4998
47788SOL    HW247922   2.225   4.420   7.186  0.2046  0.3058  0.3557
47789SOL     OW47923   5.242   9.696   9.269  0.3196 -0.1419 -0.6633
47789SOL    HW147924   5.248   9.738   9.355  0.3560  2.8960 -2.0389
47789SOL    HW247925   5.154   9.718   9.238  0.2391 -1.3684 -1.3499
47790SOL     OW47926   2.488   1.341  11.016  0.5183 -0.2779  0.2614
47790SOL    HW147927   2.425   1.270  11.032  0.3650 -0.1869  0.0594
47790SOL    HW247928   2.527   1.319  10.931 -0.9676  0.9287 -0.7872
47791SOL     OW47929   3.586   7.226   9.814 -0.7006 -0.5476 -0.2300
47791SOL    HW147930   3.680   7.247   9.810 -0.7922 -0.1459 -0.3638
47791SOL    HW247931   3.572   7.163   9.743 -0.1268 -2.2830  1.1215
47792SOL     OW47932   5.139   6.048   2.548 -0.2332 -0.0270  0.2284
47792SOL    HW147933   5.077   6.095   2.493 -0.6151 -0.6798  0.0859
47792SOL    HW247934   5.197   6.116   2.582  0.4388  0.3195 -1.5076
47793SOL     OW47935   0.723   3.105   5.887 -0.4849 -0.7642  0.0394
47793SOL    HW147936   0.644   3.083   5.935 -0.9999 -0.7138 -0.7634
47793SOL    HW247937   0.737   3.030   5.828 -0.2088 -0.5597 -0.1585
47794SOL     OW47938  11.025  10.463   5.703 -0.4010  0.7808  0.7791
47794SOL    HW147939  11.005  10.469   5.610  0.1376 -0.7463  0.5313
47794SOL    HW247940  11.092  10.530   5.718  0.2451  0.3636 -0.1619
47795SOL     OW47941   5.453   3.008   0.295 -0.3426 -0.1206 -0.3720
47795SOL    HW147942   5.538   2.984   0.258 -0.0639 -0.8131  0.6885
47795SOL    HW247943   5.397   2.932   0.278 -1.0449  0.6906 -1.8901
47796SOL     OW47944   0.896   0.576   1.439  0.2198  0.9693  0.2752
47796SOL    HW147945   0.864   0.496   1.397  1.1560  0.3118  0.7647
47796SOL    HW247946   0.951   0.618   1.373 -0.1392  1.1283  0.0745
47797SOL     OW47947   5.783  11.879   3.947 -0.0016 -0.2114  0.3841
47797SOL    HW147948   5.789  11.784   3.943  0.9119 -0.1372 -0.3816
47797SOL    HW247949   5.697  11.896   3.987 -1.1683 -1.3522 -1.4659
47798SOL     OW47950   4.866  10.810   9.946  0.2181 -0.7219  0.1966
47798SOL    HW147951   4.830  10.891   9.909  1.6487 -0.7672 -1.4382
47798SOL    HW247952   4.831  10.741   9.889 -1.6090 -1.4195  2.0240
47799SOL     OW47953   4.941   5.478   8.578 -0.1199 -0.0337  0.2719
47799SOL    HW147954   4.881   5.547   8.607 -1.0499 -1.2061  1.2202
47799SOL    HW247955   4.934   5.479   8.482 -1.4502  0.0198  0.3576
47800SOL     OW47956   7.042   3.919   4.729  0.0112  0.0035 -0.6196
47800SOL    HW147957   7.105   3.959   4.788 -0.5277  1.6930 -1.1398
47800SOL    HW247958   7.063   3.954   4.643  0.0407 -1.5074 -1.2659
47801SOL     OW47959   6.897   0.907   1.070 -0.0608  0.3247 -0.4580
47801SOL    HW147960   6.960   0.920   0.999  0.4420 -0.5753 -0.1907
47801SOL    HW247961   6.923   0.970   1.138 -0.5079  1.1479 -1.0270
47802SOL     OW47962   3.041   7.612   9.840  0.2822  0.3740 -0.3357
47802SOL    HW147963   3.005   7.537   9.888  0.9650  1.1024  1.3949
47802SOL    HW247964   3.086   7.573   9.765 -0.3299 -0.8591 -0.0827
47803SOL     OW47965   3.544  11.029   6.037 -0.1625  0.5949 -0.3026
47803SOL    HW147966   3.601  10.989   5.971 -1.5055 -0.4918 -0.8558
47803SOL    HW247967   3.540  10.965   6.108 -0.3050  0.8818 -0.0478
47804SOL     OW47968   1.009   0.358   6.725 -0.1749 -0.0297  0.4006
47804SOL    HW147969   0.933   0.411   6.749 -1.0928 -0.5138 -1.2404
47804SOL    HW247970   0.984   0.268   6.745 -0.0922 -0.2014 -0.2342
47805SOL     OW47971  11.925  10.765   5.894 -0.0073  0.0494 -0.0884
47805SOL    HW147972  11.913  10.686   5.946 -1.1879  0.7700  0.8144
47805SOL    HW247973  11.862  10.757   5.822 -0.4750  0.3515  0.2734
47806SOL     OW47974   3.220   3.391   8.415  0.2754 -0.7820  0.0489
47806SOL    HW147975   3.233   3.472   8.365  1.5604 -0.5705  0.7155
47806SOL    HW247976   3.305   3.349   8.416 -0.0452 -1.4397  0.9477
47807SOL     OW47977   0.150  11.248   3.051 -0.3767  0.4533 -0.2333
47807SOL    HW147978   0.234  11.215   3.082  0.1337  0.1099 -1.8793
47807SOL    HW247979   0.165  11.268   2.958 -1.5175  2.4680 -0.0216
47808SOL     OW47980  11.193   8.361   7.403  0.2965  0.3550 -0.0822
47808SOL    HW147981  11.211   8.281   7.453 -1.5881  0.1508  0.3672
47808SOL    HW247982  11.098   8.372   7.409  0.1805  1.1542 -2.4253
47809SOL     OW47983   6.628   4.126   3.792 -0.7160  0.1696  0.5195
47809SOL    HW147984   6.689   4.185   3.748  0.4166 -0.0671  1.7129
47809SOL    HW247985   6.620   4.051   3.733  1.0554 -0.3149  0.8293
47810SOL     OW47986   5.209   2.522   3.323 -0.2062 -0.6677  0.2225
47810SOL    HW147987   5.303   2.504   3.320 -0.0914  0.0086 -0.8300
47810SOL    HW247988   5.201   2.610   3.287 -1.4045 -1.3834 -1.3573
47811SOL     OW47989   4.856   9.136   9.261 -0.0905  0.4501 -0.6032
47811SOL    HW147990   4.939   9.117   9.304 -1.0688  0.8702  1.5788
47811SOL    HW247991   4.801   9.060   9.279 -0.2496  0.1989 -1.9889
47812SOL     OW47992  12.049   4.213   5.156  1.0180  0.0060 -0.0387
47812SOL    HW147993  11.981   4.221   5.223  1.1180  1.5104 -0.0735
47812SOL    HW247994  12.124   4.175   5.202  0.5644 -0.4728  0.3103
47813SOL     OW47995   0.732   2.419   2.325  0.7446  0.0305 -0.1224
47813SOL    HW147996   0.683   2.421   2.407 -1.9654 -1.7596 -1.5709
47813SOL    HW247997   0.814   2.374   2.348  0.0731 -0.3967  1.6054
47814SOL     OW47998   3.682   4.873   3.882 -0.2642  0.1695 -0.3963
47814SOL    HW147999   3.607   4.932   3.889 -0.7232 -0.5626  1.3003
47814SOL    HW248000   3.739   4.897   3.956  0.0571 -0.7771 -0.3136
47815SOL     OW48001   9.619   2.336   4.409  0.3854  0.2860  0.0452
47815SOL    HW148002   9.644   2.403   4.344  1.1248  0.9282  0.9706
47815SOL    HW248003   9.679   2.263   4.392 -0.2458 -0.0532 -0.7927
47816SOL     OW48004   4.714   3.345   7.047  0.2773  0.1772  0.0059
47816SOL    HW148005   4.784   3.409   7.054  0.7283 -0.4509  1.9374
47816SOL    HW248006   4.635   3.393   7.074  0.7318 -0.1775  2.2051
47817SOL     OW48007   8.239  11.113   9.838  0.2468  0.1380  0.5008
47817SOL    HW148008   8.311  11.057   9.808 -2.6452 -2.7249 -1.8872
47817SOL    HW248009   8.222  11.085   9.928  0.6537 -0.8426  0.2826
47818SOL     OW48010  10.363   5.312   9.367  0.1154 -0.5689 -0.1337
47818SOL    HW148011  10.282   5.358   9.391  1.6497  1.2812  1.8324
47818SOL    HW248012  10.346   5.221   9.391 -1.3339 -0.1971  0.3890
47819SOL     OW48013   6.809   8.021   5.234  0.8157 -0.4286 -0.8605
47819SOL    HW148014   6.761   7.939   5.244 -0.6151  0.1590 -2.4919
47819SOL    HW248015   6.790   8.071   5.314 -3.0089  0.5883 -2.2285
47820SOL     OW48016   5.222   0.913   7.415 -0.6177 -0.4598 -0.0357
47820SOL    HW148017   5.310   0.941   7.389 -1.0515  1.4295  0.3426
47820SOL    HW248018   5.194   0.853   7.346  1.4030 -2.0771  0.4504
47821SOL     OW48019   7.151   8.137   2.782  0.4712 -0.0272  0.2535
47821SOL    HW148020   7.090   8.142   2.855 -1.9590  1.7789 -1.6870
47821SOL    HW248021   7.119   8.064   2.729  0.3282  0.5561 -0.4855
47822SOL     OW48022   8.285   4.338   4.884 -0.3358  0.0685 -0.1786
47822SOL    HW148023   8.354   4.398   4.854 -0.5593 -0.0662 -1.0031
47822SOL    HW248024   8.295   4.262   4.827  0.2491 -0.8896  1.1745
47823SOL     OW48025   9.097   5.312   7.680  0.0423  0.7348 -0.3991
47823SOL    HW148026   9.120   5.220   7.687  0.2910  0.8846  1.1426
47823SOL    HW248027   9.016   5.313   7.629  0.7509 -0.2011 -1.6098
47824SOL     OW48028   7.658  11.013   7.301  0.8935 -0.4618 -0.5906
47824SOL    HW148029   7.669  11.001   7.206  0.1602 -2.0021 -0.5159
47824SOL    HW248030   7.566  10.993   7.316  1.0233 -0.2845  0.4714
47825SOL     OW48031   7.789  11.830   0.530 -0.2313  0.1691 -0.5147
47825SOL    HW148032   7.711  11.875   0.564 -0.6074 -1.5774  1.1038
47825SOL    HW248033   7.781  11.838   0.435 -1.9224  0.7973 -0.3561
47826SOL     OW48034   1.635   0.244   1.986 -0.4995 -0.2708 -0.0069
47826SOL    HW148035   1.678   0.161   1.970 -1.0673 -0.8842  1.4541
47826SOL    HW248036   1.687   0.285   2.056  0.0155  0.8099 -0.9833
47827SOL     OW48037   3.245   1.917  10.081  0.1381 -0.1058  0.4103
47827SOL    HW148038   3.172   1.868  10.120 -0.4612 -0.2874 -0.8718
47827SOL    HW248039   3.206   1.999  10.051  0.0740 -0.7811 -1.5642
47828SOL     OW48040   6.666   5.276   9.692 -0.1619  0.3940 -0.2331
47828SOL    HW148041   6.682   5.358   9.645  1.4820  0.4518  0.3536
47828SOL    HW248042   6.743   5.265   9.747 -1.1419 -0.6815  0.9865
47829SOL     OW48043   9.405   7.591   8.449 -0.3372 -0.0812 -0.3004
47829SOL    HW148044   9.492   7.555   8.463 -0.2712 -0.6729 -1.9805
47829SOL    HW248045   9.420   7.684   8.431  0.0250 -0.2915 -1.1470
47830SOL     OW48046   1.485  11.442   9.958  0.2541 -0.0700 -0.0922
47830SOL    HW148047   1.560  11.451   9.900  0.2202 -0.1265 -0.1456
47830SOL    HW248048   1.504  11.364  10.010 -0.3851 -0.8833 -1.0439
47831SOL     OW48049   9.653   6.825   6.115 -0.4984 -0.2822  0.4172
47831SOL    HW148050   9.618   6.802   6.029 -1.1294  0.4370  0.4785
47831SOL    HW248051   9.732   6.876   6.096 -0.6566 -0.0937  0.2648
47832SOL     OW48052   3.625   8.415   6.937 -0.0439 -0.1967 -0.2379
47832SOL    HW148053   3.567   8.400   6.862 -1.1597 -0.2888  0.6105
47832SOL    HW248054   3.709   8.379   6.910 -1.0515 -2.4809 -0.5431
47833SOL     OW48055   8.231   2.390   9.535  0.1143  0.1369  0.3427
47833SOL    HW148056   8.248   2.296   9.532 -0.6595  0.0003 -0.3219
47833SOL    HW248057   8.173   2.405   9.460  1.7186  1.4586 -0.6789
47834SOL     OW48058  10.137   8.529   0.522 -0.0249  0.1384  0.0491
47834SOL    HW148059  10.125   8.436   0.503  0.7665 -0.0313  0.3420
47834SOL    HW248060  10.133   8.534   0.618 -0.9598  0.5446 -0.0014
47835SOL     OW48061   3.309   7.662   2.703  0.4222  0.3488  0.7436
47835SOL    HW148062   3.234   7.633   2.755  0.4326  0.0513  0.5911
47835SOL    HW248063   3.285   7.750   2.675  0.8018  0.8818  2.0122
47836SOL     OW48064   4.121   9.560   8.608 -0.0729 -0.4652  0.3120
47836SOL    HW148065   4.079   9.502   8.545  1.1498 -1.0314 -0.0072
47836SOL    HW248066   4.187   9.607   8.558 -0.2584  0.3766  0.8195
47837SOL     OW48067   7.166  11.882   8.688  0.2488  0.2987 -0.6834
47837SOL    HW148068   7.119  11.933   8.622 -0.6102  1.2788  0.6330
47837SOL    HW248069   7.107  11.879   8.763  2.0340  1.1292  0.8507
47838SOL     OW48070   7.222   0.265  11.272 -0.4308  0.1532  0.0327
47838SOL    HW148071   7.183   0.352  11.278  1.8724  1.2607  0.3797
47838SOL    HW248072   7.192   0.231  11.188 -0.3798  1.8431 -0.7212
47839SOL     OW48073  11.131   2.112   9.887 -0.3333 -0.3567  0.2187
47839SOL    HW148074  11.211   2.122   9.836  2.2289 -0.4986  3.8024
47839SOL    HW248075  11.080   2.191   9.869  0.1026 -0.6533 -2.7903
47840SOL     OW48076   3.495   1.442  10.774 -0.2594 -0.0352  0.0154
47840SOL    HW148077   3.427   1.509  10.776 -0.8436 -0.6318  0.2610
47840SOL    HW248078   3.497   1.412  10.683  2.0808  2.3870 -0.8714
47841SOL     OW48079   9.881  10.844   7.964 -0.1053 -1.0273  0.1484
47841SOL    HW148080   9.965  10.890   7.967 -0.3399 -0.6050  0.1994
47841SOL    HW248081   9.838  10.877   7.885  0.1669 -1.9325 -0.4069
47842SOL     OW48082  10.918   0.183   4.128 -0.2372  0.0464 -1.0190
47842SOL    HW148083  10.849   0.130   4.087  0.9900 -3.7717  1.2721
47842SOL    HW248084  10.943   0.132   4.205  1.3312  4.0405  1.3995
47843SOL     OW48085   1.133   1.329   9.843  0.1332  0.7103 -0.0541
47843SOL    HW148086   1.120   1.358   9.933  0.7633 -2.2245  1.0995
47843SOL    HW248087   1.052   1.351   9.798 -1.7585 -1.0289  2.2481
47844SOL     OW48088   6.709  11.724   4.350  0.0521  0.6465  0.2198
47844SOL    HW148089   6.726  11.755   4.261 -0.0405  1.0470  0.3428
47844SOL    HW248090   6.622  11.683   4.344  0.3410  0.0496 -0.0301
47845SOL     OW48091   5.783   0.877   5.604  0.4849  0.3753  0.6219
47845SOL    HW148092   5.711   0.905   5.548 -0.1887  0.0337  1.2983
47845SOL    HW248093   5.852   0.942   5.589 -0.0314  0.8119  0.1112
47846SOL     OW48094   5.800   1.299  12.114  0.1871  0.3634 -0.1473
47846SOL    HW148095   5.797   1.265  12.025  1.3739  2.3731 -1.0282
47846SOL    HW248096   5.730   1.364  12.117  1.1043  1.3697 -0.1224
47847SOL     OW48097  11.609   2.713   5.618 -0.1322  0.0947 -0.0776
47847SOL    HW148098  11.623   2.634   5.566  2.1093 -0.4052  1.1777
47847SOL    HW248099  11.554   2.683   5.691  0.0155 -0.1169 -0.0506
47848SOL     OW48100   1.111   1.957   7.121  0.4396 -0.2244  0.3216
47848SOL    HW148101   1.196   1.997   7.138 -0.3679  2.3067 -1.1902
47848SOL    HW248102   1.101   1.892   7.191  2.2662  1.5525  2.3708
47849SOL     OW48103   2.122   6.765   6.009 -0.0617 -0.0446  0.2290
47849SOL    HW148104   2.189   6.833   6.002  1.2213 -1.1560  1.1662
47849SOL    HW248105   2.122   6.741   6.101 -1.0143 -0.7915  0.0433
47850SOL     OW48106   5.537   9.347   6.044 -0.3216  0.0624  0.0155
47850SOL    HW148107   5.587   9.344   6.126 -0.0024  1.4026 -0.1109
47850SOL    HW248108   5.602   9.330   5.976 -0.5278 -0.7245  0.0033
47851SOL     OW48109   6.621   6.472   3.516 -0.5787 -0.0936  0.6482
47851SOL    HW148110   6.701   6.486   3.567 -1.2718 -0.4364  1.8734
47851SOL    HW248111   6.651   6.431   3.435  0.6443  1.2263  0.4002
47852SOL     OW48112   4.852   4.592   3.527 -0.4546  0.0336 -0.3084
47852SOL    HW148113   4.776   4.537   3.547 -0.2695  0.1413  0.7149
47852SOL    HW248114   4.837   4.673   3.575  0.2443  0.1031 -0.1939
47853SOL     OW48115  11.683   0.675   8.932 -0.2657 -0.6068  0.5763
47853SOL    HW148116  11.712   0.728   9.007 -0.2654  0.2842 -0.0424
47853SOL    HW248117  11.717   0.587   8.950 -1.5434 -0.7905  2.3785
47854SOL     OW48118  10.625   5.849   3.345  0.5319  0.4033 -0.6545
47854SOL    HW148119  10.555   5.798   3.385  0.4919  0.5594 -0.5230
47854SOL    HW248120  10.667   5.789   3.284  2.1438 -0.6175  1.3396
47855SOL     OW48121   4.507  10.215  10.611 -0.1795  0.1327 -0.0993
47855SOL    HW148122   4.589  10.229  10.659 -0.3529 -4.2426  1.9420
47855SOL    HW248123   4.530  10.227  10.519  2.8863 -1.1815  0.3881
47856SOL     OW48124   7.053   4.954   9.537 -0.2103 -0.4157 -0.0355
47856SOL    HW148125   7.062   5.046   9.559 -0.2489  0.0510 -1.8207
47856SOL    HW248126   6.959   4.941   9.525 -0.1819 -0.6124 -0.0595
47857SOL     OW48127   3.985  11.891   6.262 -0.1254 -0.4668 -0.4505
47857SOL    HW148128   3.933  11.884   6.182 -0.0389 -2.8632 -0.3719
47857SOL    HW248129   3.977  11.805   6.303  2.3883 -0.3131  0.5166
47858SOL     OW48130   5.022   3.430   7.761  0.2967 -0.3113 -0.0994
47858SOL    HW148131   5.041   3.339   7.786 -0.6653 -0.0781  1.6072
47858SOL    HW248132   5.008   3.475   7.844  1.0975  1.5013 -0.8952
47859SOL     OW48133   6.564   1.698   4.680  0.2933 -0.2366  0.5140
47859SOL    HW148134   6.549   1.669   4.590  0.6703  0.4545  0.2221
47859SOL    HW248135   6.482   1.739   4.707  0.1274 -0.5842  0.5462
47860SOL     OW48136  11.886   7.891   0.707 -0.2027  0.0415  0.0608
47860SOL    HW148137  11.800   7.881   0.668 -0.6993 -2.2051  1.4878
47860SOL    HW248138  11.902   7.807   0.751  0.9084  1.7878  3.3652
47861SOL     OW48139   9.576   1.664   2.546  0.3971 -0.3462  0.3631
47861SOL    HW148140   9.564   1.590   2.486 -0.3568  0.2541 -0.2504
47861SOL    HW248141   9.486   1.691   2.569  0.6409  0.8085  0.0321
47862SOL     OW48142   1.573  11.367   6.734 -0.3341  0.0362 -0.2268
47862SOL    HW148143   1.662  11.335   6.743 -0.1739  0.9274  1.7004
47862SOL    HW248144   1.582  11.460   6.715 -0.8603 -0.2590 -2.1745
47863SOL     OW48145   3.594  11.852   5.340 -0.2953 -0.4702  0.1646
47863SOL    HW148146   3.677  11.901   5.337  0.5655 -1.8219  0.6967
47863SOL    HW248147   3.606  11.782   5.275 -0.8726 -0.8893  0.5016
47864SOL     OW48148   9.612   3.656   0.280 -0.0968  0.1681  0.3769
47864SOL    HW148149   9.554   3.680   0.207 -1.8151 -0.0638  1.5954
47864SOL    HW248150   9.564   3.587   0.326  0.9407  0.3301  1.7499
47865SOL     OW48151   3.924  10.134  10.039 -0.7769  0.0073  0.3786
47865SOL    HW148152   4.017  10.124  10.018 -0.2781  3.9852 -0.1440
47865SOL    HW248153   3.880  10.135   9.953 -0.7322  1.7329  0.3385
47866SOL     OW48154  11.101   2.024   0.596 -0.3042  0.0818 -0.4172
47866SOL    HW148155  11.131   2.052   0.683 -1.1984 -1.1450  0.3044
47866SOL    HW248156  11.181   2.022   0.543  0.6886 -1.5685  1.0411
47867SOL     OW48157   8.378   2.971   8.960  0.5170 -0.0400  0.3554
47867SOL    HW148158   8.283   2.973   8.971  0.2947  0.7548 -1.4225
47867SOL    HW248159   8.406   2.892   9.007 -1.0053 -0.2547  0.9431
47868SOL     OW48160   3.406   6.329   4.054 -0.2635  0.2313  0.0874
47868SOL    HW148161   3.413   6.320   3.959 -0.2336  1.4139 -0.0326
47868SOL    HW248162   3.496   6.319   4.086 -0.2564 -0.0440 -0.0135
47869SOL     OW48163  11.791   5.563   7.201 -0.3910  0.0635 -0.0386
47869SOL    HW148164  11.723   5.604   7.254  1.3367  0.6055  1.8658
47869SOL    HW248165  11.786   5.470   7.225  1.2500  0.4765  2.2649
47870SOL     OW48166  10.433   5.701   9.887  0.2048 -0.1931 -0.4226
47870SOL    HW148167  10.443   5.703   9.792 -0.8859 -1.0858 -0.5654
47870SOL    HW248168  10.382   5.780   9.907 -0.0873 -0.3284 -0.6379
47871SOL     OW48169   5.078   1.170   5.775 -0.1415 -0.2647  0.3808
47871SOL    HW148170   5.027   1.224   5.714  0.4189  1.6346  1.5051
47871SOL    HW248171   5.136   1.232   5.818  3.0764 -2.2728 -0.7210
47872SOL     OW48172  10.649   7.339  11.757  0.0134 -0.4192  0.0814
47872SOL    HW148173  10.683   7.292  11.681 -1.6793 -0.8082 -0.4699
47872SOL    HW248174  10.560   7.307  11.767 -0.9034  1.9893  0.2705
47873SOL     OW48175  10.370   2.674   3.710  0.6310 -0.0478  0.1452
47873SOL    HW148176  10.372   2.621   3.789 -1.0214  0.6407  0.6734
47873SOL    HW248177  10.303   2.634   3.655  1.0759  0.0719 -0.5070
47874SOL     OW48178  11.589   2.424   2.261  0.0998 -0.0190  0.1921
47874SOL    HW148179  11.672   2.427   2.308 -1.1026  0.9742  2.4468
47874SOL    HW248180  11.544   2.347   2.297 -1.0033  0.9721  1.0188
47875SOL     OW48181   0.243   6.746   6.627  0.5546  0.7180  0.8361
47875SOL    HW148182   0.309   6.678   6.644  3.1795  2.3674 -1.6418
47875SOL    HW248183   0.205   6.765   6.712  4.1088  0.3333  2.7097
47876SOL     OW48184   1.348   7.353   6.087 -0.2857 -0.5119 -0.1123
47876SOL    HW148185   1.274   7.334   6.030 -1.2734 -2.2506  1.6197
47876SOL    HW248186   1.340   7.290   6.159  0.6878  1.7293  2.1302
47877SOL     OW48187   1.884   2.931   6.104  0.2330  0.0118 -0.1718
47877SOL    HW148188   1.847   3.007   6.150 -0.5764 -0.4930  0.0286
47877SOL    HW248189   1.884   2.862   6.169  0.3130 -0.3501 -0.5546
47878SOL     OW48190   5.487  10.691   6.508  0.4078  0.5108  0.3050
47878SOL    HW148191   5.537  10.669   6.429  0.7824 -0.3784  0.7762
47878SOL    HW248192   5.398  10.703   6.477  0.8136  1.7199 -0.4856
47879SOL     OW48193   6.795   5.004   9.708 -0.3229  0.1819 -0.3918
47879SOL    HW148194   6.779   4.970   9.796 -1.4469  0.9227 -0.2909
47879SOL    HW248195   6.849   5.082   9.722 -1.1730  0.7631 -0.2742
47880SOL     OW48196  10.486   7.537   6.022 -0.1652 -0.5859  0.0786
47880SOL    HW148197  10.504   7.462   6.078 -2.6833 -1.5034 -0.2434
47880SOL    HW248198  10.464   7.499   5.937  0.2441  0.6179 -0.5889
47881SOL     OW48199   5.853   1.624   0.829 -0.2095 -0.1821  0.1475
47881SOL    HW148200   5.778   1.586   0.874 -0.3608 -0.3765 -0.2571
47881SOL    HW248201   5.926   1.565   0.850 -0.3637 -0.4984 -0.1746
47882SOL     OW48202   2.789   8.080   1.325  0.3355  0.2386 -0.3846
47882SOL    HW148203   2.877   8.115   1.315  0.3446  0.5023  0.5101
47882SOL    HW248204   2.731   8.156   1.320  0.3647  0.4762  1.7055
47883SOL     OW48205   7.182   7.531   0.693 -0.1160  0.0227  0.3838
47883SOL    HW148206   7.087   7.542   0.686 -0.2247 -0.2054  1.3301
47883SOL    HW248207   7.192   7.449   0.742  0.5905 -0.7050 -0.9178
47884SOL     OW48208   5.232   7.917   4.835  0.3065  0.0686  0.3282
47884SOL    HW148209   5.170   7.889   4.902  0.1311 -0.0992  0.0955
47884SOL    HW248210   5.316   7.920   4.880  0.4411 -1.4204  0.2156
47885SOL     OW48211  10.266   0.651   3.821  0.1369 -0.5918  0.1262
47885SOL    HW148212  10.343   0.640   3.766 -0.6696 -1.3103 -0.8953
47885SOL    HW248213  10.212   0.574   3.803 -0.4062 -0.5667  1.5173
47886SOL     OW48214   4.616   3.100   5.106 -0.2067  0.1115 -0.0966
47886SOL    HW148215   4.660   3.117   5.023  0.0570  0.9656  0.2125
47886SOL    HW248216   4.683   3.061   5.162 -0.5284 -1.0005 -0.4479
47887SOL     OW48217   3.919   4.588   9.849 -0.4114 -0.4243  0.1352
47887SOL    HW148218   3.963   4.673   9.847  0.2900 -0.7630  0.8700
47887SOL    HW248219   3.855   4.593   9.778  1.3185 -0.1847 -1.4975
47888SOL     OW48220  11.375   1.496   5.476 -0.1445  0.6036  0.5366
47888SOL    HW148221  11.393   1.451   5.559 -1.5783 -2.6303 -0.7400
47888SOL    HW248222  11.296   1.548   5.494 -0.6880 -0.3947  1.1455
47889SOL     OW48223   6.917   9.638   3.961  0.3635 -0.0042 -0.2673
47889SOL    HW148224   6.831   9.664   3.992  0.7554  0.2414  0.6582
47889SOL    HW248225   6.978   9.692   4.012  1.0727 -0.3544 -0.7256
47890SOL     OW48226   1.530   3.836   9.585 -0.0878 -0.5151  0.4296
47890SOL    HW148227   1.504   3.928   9.586  1.0202 -0.2014  0.8226
47890SOL    HW248228   1.622   3.836   9.560 -0.3143 -1.5936 -0.5132
47891SOL     OW48229  10.861  11.951  11.389 -0.3495  0.6345 -0.1170
47891SOL    HW148230  10.885  11.991  11.472 -1.3491  1.2672 -0.1201
47891SOL    HW248231  10.896  11.862  11.394 -0.1520  0.7591  0.8600
47892SOL     OW48232   4.085   7.898   3.183  0.5785 -0.1544  0.6832
47892SOL    HW148233   4.051   7.820   3.228 -2.1147  0.6907  0.2544
47892SOL    HW248234   4.074   7.879   3.090  2.6022 -0.3427  0.4198
47893SOL     OW48235   7.289   2.059   7.003  0.0518 -0.2147  0.4007
47893SOL    HW148236   7.300   2.005   6.926  2.8547 -1.8737  1.8043
47893SOL    HW248237   7.272   1.998   7.074 -0.4594  1.0777  1.4462
47894SOL     OW48238   1.019   9.767   8.523 -0.0614 -0.3255 -0.2495
47894SOL    HW148239   1.063   9.806   8.599 -0.6880 -1.8526  0.9288
47894SOL    HW248240   0.925   9.775   8.543 -0.2632 -4.1613  1.0550
47895SOL     OW48241   9.001  11.545  11.754  0.1958 -0.0494 -0.2911
47895SOL    HW148242   9.083  11.564  11.710  1.6402  0.0601  2.2676
47895SOL    HW248243   9.025  11.485  11.825 -2.0156 -0.3561  0.2837
47896SOL     OW48244   7.863   1.979   3.082 -0.2088 -0.0395 -0.2969
47896SOL    HW148245   7.791   2.041   3.073 -1.3218 -0.9776  1.5165
47896SOL    HW248246   7.843   1.930   3.162  2.0483 -0.8765 -0.1625
47897SOL     OW48247   5.460   6.900   9.998  0.2602  0.1191 -0.3926
47897SOL    HW148248   5.393   6.917   9.932  0.0637 -0.3737 -0.3274
47897SOL    HW248249   5.474   6.805   9.994  1.3310  0.2719 -0.7721
47898SOL     OW48250   3.564   2.342   6.797 -0.0562 -0.1795  0.0316
47898SOL    HW148251   3.582   2.266   6.742 -0.5098  0.5663 -1.1785
47898SOL    HW248252   3.649   2.365   6.835  0.7119  0.5215 -1.9813
47899SOL     OW48253   8.859   2.037   6.746 -0.1306 -0.6614 -0.2912
47899SOL    HW148254   8.794   2.066   6.682  1.0358  0.5942 -0.9515
47899SOL    HW248255   8.824   2.065   6.831  1.1960  3.4799 -0.9111
47900SOL     OW48256   9.180  11.450  11.036  0.2656 -0.0854 -0.2586
47900SOL    HW148257   9.180  11.372  10.980 -2.5880  1.0861 -2.0848
47900SOL    HW248258   9.255  11.501  11.006  1.8939 -1.8202  0.6506
47901SOL     OW48259   2.871   8.421   2.151  0.7682  0.0451  0.0312
47901SOL    HW148260   2.895   8.499   2.101  1.0936 -0.4300 -0.5631
47901SOL    HW248261   2.922   8.427   2.232 -0.1257  1.0690  0.5515
47902SOL     OW48262   5.679   3.053   7.840  0.2159 -0.6175  0.2250
47902SOL    HW148263   5.738   2.988   7.802 -0.7833 -1.6689  0.4237
47902SOL    HW248264   5.611   3.001   7.883  0.8003  0.5244  2.6848
47903SOL     OW48265   4.214   3.473  11.508  0.1335 -0.0720  0.4649
47903SOL    HW148266   4.230   3.543  11.572  1.7996  0.2430 -0.2437
47903SOL    HW248267   4.170   3.404  11.558  1.3416  0.1848  1.9623
47904SOL     OW48268   7.853   2.721   6.884 -0.4014  0.0030  0.4044
47904SOL    HW148269   7.855   2.677   6.968 -0.6385 -0.6301  0.0881
47904SOL    HW248270   7.879   2.654   6.820 -3.1058 -0.4393 -0.3693
47905SOL     OW48271   8.526   0.657   2.142  0.2970 -0.3900  0.5113
47905SOL    HW148272   8.448   0.602   2.152 -0.8260  0.9945 -0.3293
47905SOL    HW248273   8.567   0.657   2.229 -0.2599 -1.6712  0.7938
47906SOL     OW48274   3.681  11.851   4.281 -0.4780  0.2786 -0.3640
47906SOL    HW148275   3.615  11.853   4.351  1.0401  1.5431  1.1140
47906SOL    HW248276   3.741  11.781   4.308 -1.9459 -1.9764 -2.5179
47907SOL     OW48277   4.335  11.100   7.871 -0.1494  0.0774 -0.1558
47907SOL    HW148278   4.292  11.030   7.919  1.1328 -0.7787 -0.2285
47907SOL    HW248279   4.425  11.101   7.903  0.4549  0.1950 -1.7531
47908SOL     OW48280   7.274   7.412   4.622 -0.1673 -0.5403 -0.8301
47908SOL    HW148281   7.184   7.443   4.635 -0.7215 -2.2790 -0.3260
47908SOL    HW248282   7.311   7.409   4.710  0.7511  1.1125 -1.1212
47909SOL     OW48283   0.122   3.469   0.657  0.1352  0.2209 -0.0085
47909SOL    HW148284   0.132   3.445   0.749 -0.2185 -1.1437 -0.3097
47909SOL    HW248285   0.205   3.446   0.616  0.3141  0.8806 -0.0260
47910SOL     OW48286   7.458   2.396   6.640  0.0574 -1.0482  0.5916
47910SOL    HW148287   7.367   2.422   6.655 -0.4065 -2.6278  0.7042
47910SOL    HW248288   7.476   2.331   6.708  1.7251  0.2105  1.3963
47911SOL     OW48289   3.751  10.396   3.710 -0.2238  0.2580 -0.0775
47911SOL    HW148290   3.705  10.344   3.644  1.2851 -0.1148 -0.8954
47911SOL    HW248291   3.767  10.336   3.782 -1.8927  0.6702  0.6724
47912SOL     OW48292   0.361   5.581   7.232  0.2222  0.0939 -0.3099
47912SOL    HW148293   0.432   5.529   7.196  0.1262  0.2600 -0.7382
47912SOL    HW248294   0.353   5.550   7.323 -0.0337 -0.8522 -0.6378
47913SOL     OW48295  11.095   6.562   2.896  0.3712 -0.1810  0.0582
47913SOL    HW148296  11.061   6.585   2.983 -4.3011  1.6574 -1.9060
47913SOL    HW248297  11.079   6.468   2.888  1.1705 -0.4408  1.2440
47914SOL     OW48298   0.499   4.477  11.287  0.2381 -0.1293  0.3399
47914SOL    HW148299   0.489   4.476  11.383 -0.1657 -0.5850  0.2988
47914SOL    HW248300   0.590   4.452  11.273  1.0135  2.2385  0.6625
47915SOL     OW48301   9.495   1.302   9.520  0.2638 -0.1375  0.0570
47915SOL    HW148302   9.497   1.331   9.429  1.1842 -0.0701  0.0858
47915SOL    HW248303   9.535   1.215   9.518 -0.6795 -0.5877  0.2539
47916SOL     OW48304   4.368   3.571   3.135 -0.0303 -0.7680  0.2419
47916SOL    HW148305   4.301   3.639   3.128 -1.1698 -1.2857  3.9476
47916SOL    HW248306   4.404   3.564   3.047 -2.7501  1.6507 -1.2422
47917SOL     OW48307   0.190   9.470   0.671  0.2604 -0.2223 -0.2702
47917SOL    HW148308   0.265   9.474   0.731 -0.6107 -0.6586  0.8826
47917SOL    HW248309   0.143   9.391   0.697 -0.3223 -0.2409 -1.3373
47918SOL     OW48310  11.044  10.990   9.323  0.3062 -0.2587 -0.2825
47918SOL    HW148311  11.089  10.925   9.268  1.6855  0.1229  0.3570
47918SOL    HW248312  11.076  11.074   9.290 -0.9019  0.0806 -0.6176
47919SOL     OW48313   7.279  11.495   8.317 -0.0217 -0.1257  0.0673
47919SOL    HW148314   7.189  11.466   8.330 -0.1881  0.4189  0.1207
47919SOL    HW248315   7.327  11.414   8.297 -0.3319 -0.5526  0.9904
47920SOL     OW48316   2.127  10.610   8.453 -0.1008  0.5978  0.3956
47920SOL    HW148317   2.068  10.685   8.464 -1.2722 -0.4859  2.0799
47920SOL    HW248318   2.107  10.577   8.365 -0.0328  1.8509 -0.1097
47921SOL     OW48319   9.238  10.874   4.318 -0.0194 -0.0098  0.0842
47921SOL    HW148320   9.318  10.868   4.266  0.2797 -2.1906  0.7032
47921SOL    HW248321   9.269  10.885   4.408 -0.3477 -1.5534  0.4159
47922SOL     OW48322   9.564   8.455   5.675  0.1634  0.2449  0.6178
47922SOL    HW148323   9.598   8.478   5.588  1.2496 -2.0820  0.3438
47922SOL    HW248324   9.471   8.477   5.671  0.8545  3.6175  0.1970
47923SOL     OW48325   9.333   8.081   1.752  0.4148  0.4446  0.3225
47923SOL    HW148326   9.308   8.087   1.660 -0.3313 -1.1192  0.3899
47923SOL    HW248327   9.271   8.019   1.790  1.0534  0.6397  1.7632
47924SOL     OW48328   5.883   0.569  10.067 -0.1044  0.3282 -0.1578
47924SOL    HW148329   5.807   0.525  10.106  1.4358 -1.2453  1.2337
47924SOL    HW248330   5.899   0.521   9.986  0.9165 -1.1102  0.8305
47925SOL     OW48331   7.749   0.099   2.880  0.2568  0.3262 -1.0567
47925SOL    HW148332   7.817   0.072   2.941  0.0874 -0.8318 -1.3527
47925SOL    HW248333   7.672   0.115   2.934  0.3636  0.2023 -0.8679
47926SOL     OW48334   0.765   1.886   3.622 -0.3942 -0.1818  0.4846
47926SOL    HW148335   0.753   1.980   3.605 -1.6082 -0.1701  1.2988
47926SOL    HW248336   0.839   1.861   3.566 -0.6936  1.0318 -0.5004
47927SOL     OW48337  10.969   2.912  11.546 -0.2301  0.1203 -0.3323
47927SOL    HW148338  10.929   2.890  11.630 -0.2372 -1.2299 -0.6639
47927SOL    HW248339  11.056   2.872  11.550 -1.1180 -2.2017 -1.8893
47928SOL     OW48340   3.182   6.143   5.476  0.0809 -0.5884  0.2155
47928SOL    HW148341   3.190   6.102   5.390 -0.2024  0.8498 -0.5271
47928SOL    HW248342   3.126   6.083   5.526 -0.9897 -0.7169 -1.0909
47929SOL     OW48343   1.588  11.343   5.362  0.3563 -0.3785 -0.3248
47929SOL    HW148344   1.670  11.330   5.409 -0.2236 -0.7409  0.6117
47929SOL    HW248345   1.556  11.255   5.344 -1.0049 -0.3047  1.4495
47930SOL     OW48346   4.172   8.984   4.168  0.0620  0.2341 -0.1166
47930SOL    HW148347   4.158   8.940   4.252  0.5076 -0.7358 -0.5329
47930SOL    HW248348   4.085   9.015   4.143 -0.2024 -0.0930  0.3686
47931SOL     OW48349   0.676   5.339   8.499  0.0387 -0.6569 -0.5460
47931SOL    HW148350   0.599   5.313   8.551  0.9874  0.0914  1.3005
47931SOL    HW248351   0.648   5.418   8.453  0.2689  0.8086  1.6958
47932SOL     OW48352   3.484   0.466   3.657  0.3996 -0.1870 -0.4036
47932SOL    HW148353   3.434   0.412   3.597 -0.4154  0.5508 -0.4117
47932SOL    HW248354   3.446   0.448   3.743 -0.6770  1.2302 -0.5585
47933SOL     OW48355   7.633   9.496   2.620  0.1992  0.0523 -0.3307
47933SOL    HW148356   7.609   9.502   2.528  0.4452 -0.7442 -0.4555
47933SOL    HW248357   7.708   9.436   2.622  0.3657  0.2708  0.3575
47934SOL     OW48358   5.020   7.499   1.732  0.4049 -0.1297 -0.6822
47934SOL    HW148359   5.020   7.420   1.677 -0.2675  1.0053 -2.4089
47934SOL    HW248360   5.067   7.564   1.680  1.5151  0.4585  0.9910
47935SOL     OW48361   8.849   2.494   1.465 -0.0316 -0.1521  0.6010
47935SOL    HW148362   8.816   2.429   1.528  2.1271 -1.6379  0.3085
47935SOL    HW248363   8.837   2.453   1.380 -2.2933  1.5686 -0.0047
47936SOL     OW48364   0.478   2.282   4.668 -0.2749  0.0819 -0.2091
47936SOL    HW148365   0.528   2.306   4.590 -0.6586  1.8639  0.0507
47936SOL    HW248366   0.488   2.187   4.674  1.2008  0.1135 -1.4264
47937SOL     OW48367   7.200   5.992   3.826 -0.6208 -1.0387 -0.0987
47937SOL    HW148368   7.295   5.992   3.822 -0.5681  0.2780  0.7403
47937SOL    HW248369   7.173   6.077   3.792 -1.4903 -1.2830 -0.0629
47938SOL     OW48370   2.440   4.565   1.974  0.0198  0.6012  0.2295
47938SOL    HW148371   2.400   4.489   1.933 -0.0674  0.8269 -0.1106
47938SOL    HW248372   2.372   4.632   1.973  0.3199  0.9080 -0.1227
47939SOL     OW48373   2.722  11.499   8.574  0.4378  0.2012 -0.3588
47939SOL    HW148374   2.811  11.527   8.597  1.2719 -0.9813 -1.9529
47939SOL    HW248375   2.669  11.526   8.649  2.2303  0.4431  0.9008
47940SOL     OW48376   9.560   7.502  10.145 -0.0287 -0.1032  0.8545
47940SOL    HW148377   9.577   7.530  10.235  0.8854 -0.8974  0.9339
47940SOL    HW248378   9.476   7.543  10.124 -0.2772  0.0677  2.0762
47941SOL     OW48379  10.717   1.920   8.334 -0.2376  0.3446  0.7407
47941SOL    HW148380  10.718   1.997   8.391 -1.3889 -0.5995  2.1204
47941SOL    HW248381  10.624   1.902   8.319 -0.1591 -2.3091  2.7098
47942SOL     OW48382  11.747   1.545   6.589 -0.3290  0.2201 -0.4528
47942SOL    HW148383  11.719   1.508   6.672  1.1179 -2.0160 -0.8495
47942SOL    HW248384  11.758   1.469   6.532 -0.1172  1.5786 -2.3211
47943SOL     OW48385   5.409   7.670   0.979 -0.5385 -0.4340  0.1869
47943SOL    HW148386   5.450   7.753   1.003  0.6050 -0.8879 -0.1155
47943SOL    HW248387   5.479   7.620   0.936 -1.2226 -1.5204  0.2856
47944SOL     OW48388   3.493  11.623   9.571 -0.4633 -0.0779  0.3138
47944SOL    HW148389   3.421  11.608   9.510  0.9363  0.0955 -1.4726
47944SOL    HW248390   3.571  11.590   9.524  0.7472  0.5588  1.7977
47945SOL     OW48391   3.474   4.773   1.555 -0.0235  0.1903 -0.1992
47945SOL    HW148392   3.483   4.692   1.506 -0.8952  0.8483 -1.5142
47945SOL    HW248393   3.525   4.759   1.635 -0.7281 -1.8920 -0.0486
47946SOL     OW48394   2.953  10.198   7.147 -0.0730  0.2911  0.4250
47946SOL    HW148395   3.039  10.204   7.189 -1.0739  0.3439  2.6385
47946SOL    HW248396   2.964  10.131   7.080  2.0333  1.2956 -0.3242
47947SOL     OW48397   0.839   3.878   6.626 -0.4177 -0.1232 -0.1977
47947SOL    HW148398   0.920   3.828   6.625 -0.6052 -0.4480  0.3620
47947SOL    HW248399   0.863   3.962   6.665 -0.4453 -0.3927  0.4064
47948SOL     OW48400   1.548   5.828   6.166 -0.1483 -0.1333 -0.3508
47948SOL    HW148401   1.637   5.791   6.162  0.4026  1.2139 -1.1869
47948SOL    HW248402   1.513   5.812   6.078 -0.2859  0.4011 -0.3933
47949SOL     OW48403   6.326   4.486   2.087 -0.1860  0.1795  0.3355
47949SOL    HW148404   6.243   4.489   2.040 -0.1018  1.9483  0.2567
47949SOL    HW248405   6.301   4.487   2.179 -0.2649  0.1311  0.3149
47950SOL     OW48406   4.470   5.355   3.866  0.1530 -0.3570 -0.2581
47950SOL    HW148407   4.427   5.414   3.929 -0.1429 -0.1186 -0.6772
47950SOL    HW248408   4.454   5.268   3.901 -0.0957 -0.2329 -0.0533
47951SOL     OW48409   4.165   0.958   3.266 -0.4554 -0.0037 -1.1219
47951SOL    HW148410   4.241   1.000   3.306 -0.0277 -1.8935  0.1941
47951SOL    HW248411   4.096   0.965   3.333 -0.3872 -1.3019 -0.8951
47952SOL     OW48412  11.117  10.216   9.602 -0.3009  0.1038  0.4015
47952SOL    HW148413  11.153  10.304   9.602 -0.0681  0.0356 -1.0471
47952SOL    HW248414  11.137  10.182   9.515 -1.8449 -0.7758  0.3495
47953SOL     OW48415   7.505  11.841   6.851  0.1089  0.1092  0.3598
47953SOL    HW148416   7.491  11.849   6.945  2.1003  1.5976  0.5927
47953SOL    HW248417   7.432  11.890   6.812 -0.1487  0.3723  1.1554
47954SOL     OW48418   6.427   6.466   4.306  0.3692 -0.5135 -0.1876
47954SOL    HW148419   6.448   6.411   4.382  1.8871 -2.2509 -1.7529
47954SOL    HW248420   6.339   6.499   4.324  1.8536  1.9682  3.8691
47955SOL     OW48421   1.103   6.320   0.899 -0.0345 -0.6874  0.4617
47955SOL    HW148422   1.130   6.411   0.884  1.6620 -1.0494  1.1304
47955SOL    HW248423   1.185   6.273   0.913 -0.7140 -2.6928 -1.7061
47956SOL     OW48424   1.336   7.898   6.541 -0.7929 -0.4888 -0.1174
47956SOL    HW148425   1.408   7.845   6.576 -1.4678 -0.9312  0.6427
47956SOL    HW248426   1.269   7.895   6.610 -1.5401 -0.1046 -0.8183
47957SOL     OW48427   7.906   4.127   6.658  0.6906 -0.2426 -0.1849
47957SOL    HW148428   7.941   4.158   6.575 -1.2669 -1.3258 -1.4792
47957SOL    HW248429   7.847   4.197   6.687  0.8294 -0.1745 -0.0657
47958SOL     OW48430   6.604   2.075   9.839 -0.4632  0.3912  0.1447
47958SOL    HW148431   6.511   2.098   9.830 -0.1125  1.6072 -0.5054
47958SOL    HW248432   6.611   1.989   9.797 -1.2973  0.2944  0.1877
47959SOL     OW48433   5.981   8.478   2.012 -0.4244 -0.0366 -0.3445
47959SOL    HW148434   5.925   8.546   1.974  0.0377 -0.9638 -2.8606
47959SOL    HW248435   5.920   8.410   2.042 -0.7557  0.1452 -0.6082
47960SOL     OW48436   9.803   8.038   4.271 -0.3533 -0.3000 -0.5103
47960SOL    HW148437   9.811   8.106   4.204  2.8938  1.0026  0.9846
47960SOL    HW248438   9.876   7.979   4.253  0.9643  0.3958  2.0850
47961SOL     OW48439   7.641   0.956  11.719  0.0127  0.3518  0.0670
47961SOL    HW148440   7.569   0.918  11.769  0.9116 -0.3565  0.8503
47961SOL    HW248441   7.719   0.931  11.767  0.7524  1.7319 -0.3584
47962SOL     OW48442   4.563   4.142   9.522 -0.1493  0.3443 -0.2900
47962SOL    HW148443   4.538   4.109   9.608  1.5732  2.5918  1.2030
47962SOL    HW248444   4.612   4.070   9.482  0.5948 -0.1403  1.4076
47963SOL     OW48445   8.100  12.103   4.040  0.1483  0.3805  0.5501
47963SOL    HW148446   8.171  12.152   4.000 -0.2535  0.9935  0.5884
47963SOL    HW248447   8.020  12.137   4.000 -0.1691  0.1241  0.9460
47964SOL     OW48448   5.901  10.740  10.088 -0.2935  0.1172 -0.4245
47964SOL    HW148449   5.882  10.697  10.172  0.3152  2.9822  1.2956
47964SOL    HW248450   5.832  10.805  10.077  1.2600  1.8333 -0.5674
47965SOL     OW48451  11.329   9.308   0.943  0.0289 -0.4342 -0.0963
47965SOL    HW148452  11.271   9.238   0.913  1.7437 -2.1049  0.2521
47965SOL    HW248453  11.397   9.312   0.875  0.4267  0.2777  0.3352
47966SOL     OW48454   5.171   2.314   2.188  0.3039  0.3000 -0.3923
47966SOL    HW148455   5.076   2.309   2.192  0.3241 -0.2825  3.8358
47966SOL    HW248456   5.197   2.353   2.271  3.8692 -1.8498 -0.2857
47967SOL     OW48457  11.505   0.011  10.546  0.2123 -0.6054  0.0193
47967SOL    HW148458  11.565  -0.039  10.491  0.5253  0.4845 -0.6499
47967SOL    HW248459  11.561   0.074  10.591 -0.1572 -0.9515  0.9872
47968SOL     OW48460   4.763   1.741   4.756 -0.5783  0.2140 -0.6340
47968SOL    HW148461   4.789   1.752   4.848 -1.9804  1.5016 -0.3510
47968SOL    HW248462   4.809   1.810   4.709 -0.8255  0.3449 -0.6859
47969SOL     OW48463   8.162   8.115   1.365  0.1271 -0.3027 -0.0170
47969SOL    HW148464   8.237   8.171   1.343  0.4589  0.3980  2.5021
47969SOL    HW248465   8.168   8.041   1.305  1.1668  1.1183 -1.7586
47970SOL     OW48466   9.202   2.298   3.054 -0.5250  0.5271 -0.1099
47970SOL    HW148467   9.135   2.366   3.048 -0.7557  0.3963  0.8576
47970SOL    HW248468   9.164   2.232   3.112 -0.0470 -0.1367 -0.5385
47971SOL     OW48469   7.363   4.141   1.659 -0.4033  0.3246 -0.2934
47971SOL    HW148470   7.382   4.072   1.722 -1.7196 -0.2662 -0.5186
47971SOL    HW248471   7.447   4.160   1.618  0.0179 -0.9941 -0.0814
47972SOL     OW48472   7.382  11.669  11.546  0.1887 -0.0733  0.1993
47972SOL    HW148473   7.425  11.705  11.624  0.3289 -1.2120  0.6593
47972SOL    HW248474   7.291  11.657  11.573  0.2474 -0.5126  0.2096
47973SOL     OW48475   3.660   7.291   5.796 -0.4457  0.0152  0.2390
47973SOL    HW148476   3.617   7.241   5.727 -1.2512  0.4523  0.4127
47973SOL    HW248477   3.722   7.229   5.836 -1.3180 -0.8050  0.3623
47974SOL     OW48478   1.926   6.063   7.543  0.6109 -0.1604 -0.3602
47974SOL    HW148479   1.911   6.033   7.453 -0.3654 -1.4744  0.2201
47974SOL    HW248480   2.018   6.043   7.559  0.5578 -0.7575 -0.7644
47975SOL     OW48481  10.817   9.210   0.120 -0.0508  0.5902 -0.3588
47975SOL    HW148482  10.833   9.273   0.191  1.5969 -0.0033 -0.1423
47975SOL    HW248483  10.792   9.263   0.045 -0.4935  1.3467  0.3164
47976SOL     OW48484  11.715   4.534   2.023 -0.2902 -0.1052 -0.3829
47976SOL    HW148485  11.740   4.610   1.970 -0.7485 -0.0252 -0.4896
47976SOL    HW248486  11.767   4.543   2.103 -0.4605  0.4205 -0.3224
47977SOL     OW48487   9.978   5.952   8.084 -0.1375  0.2360  0.4527
47977SOL    HW148488  10.001   6.022   8.145 -1.3444  1.4826 -0.4458
47977SOL    HW248489   9.885   5.965   8.067 -0.1378 -0.9253 -0.5725
47978SOL     OW48490   0.638   7.709   8.845  0.2846  0.1202 -0.2955
47978SOL    HW148491   0.696   7.648   8.799 -0.8867  0.2502 -2.0269
47978SOL    HW248492   0.588   7.752   8.776  1.0400  3.0843  0.8058
47979SOL     OW48493   0.375  11.334   8.186  0.2146  0.0513  0.1025
47979SOL    HW148494   0.375  11.358   8.093  0.7362  1.3244  0.4149
47979SOL    HW248495   0.467  11.320   8.208  0.1909  0.7544  0.6680
47980SOL     OW48496   4.466  10.765   0.985 -0.4853  0.0888 -0.0556
47980SOL    HW148497   4.398  10.733   0.925 -1.1465  1.3432 -0.0030
47980SOL    HW248498   4.472  10.858   0.966  1.4301 -0.0441 -0.2397
47981SOL     OW48499  10.050   6.653   8.468  0.3258 -0.3115  0.0778
47981SOL    HW148500  10.117   6.653   8.537 -0.2155  1.7179  0.6643
47981SOL    HW248501  10.076   6.724   8.410 -0.6912 -0.2773 -0.3449
47982SOL     OW48502   2.936   1.360   0.195  0.0266  0.1884 -0.3221
47982SOL    HW148503   2.875   1.426   0.160  0.4060  0.2423 -0.9003
47982SOL    HW248504   2.995   1.410   0.251 -0.3801  0.1540  0.1496
47983SOL     OW48505   2.727   8.619   9.358  0.1509 -0.4505  0.0895
47983SOL    HW148506   2.722   8.676   9.434  1.1150 -0.8839  0.4943
47983SOL    HW248507   2.821   8.608   9.342 -0.0154 -1.4639 -0.3191
47984SOL     OW48508   9.746   8.150   4.786  0.2342 -0.2052  0.1142
47984SOL    HW148509   9.830   8.104   4.788 -0.7498 -2.0698  1.2405
47984SOL    HW248510   9.732   8.170   4.693  0.4898 -2.7473 -0.5574
47985SOL     OW48511   1.492   5.179   9.902 -0.9306 -0.0833 -0.0561
47985SOL    HW148512   1.454   5.257   9.943 -2.0995 -0.1549 -0.9557
47985SOL    HW248513   1.419   5.137   9.857  0.3923  0.4396 -2.9320
47986SOL     OW48514   7.008   3.179   1.768 -0.3075  0.0126 -0.2717
47986SOL    HW148515   7.062   3.163   1.691  0.8806 -1.9391  0.8728
47986SOL    HW248516   7.044   3.258   1.808  1.0014 -0.6386 -0.1337
47987SOL     OW48517   3.789   8.648   1.097 -0.8741 -0.0791 -0.2628
47987SOL    HW148518   3.858   8.659   1.162 -0.3841 -1.3572 -0.5217
47987SOL    HW248519   3.711   8.687   1.137 -0.6974 -1.2074  1.2886
47988SOL     OW48520   4.710   3.437   0.777  0.6936 -0.2647  0.0333
47988SOL    HW148521   4.802   3.414   0.792  0.4333 -1.9692 -0.7454
47988SOL    HW248522   4.662   3.392   0.846  0.4088  0.4276  0.2944
47989SOL     OW48523   5.005  11.056   7.568  1.0838 -0.3874  0.9048
47989SOL    HW148524   4.934  11.094   7.619 -1.4602  1.5531 -3.4305
47989SOL    HW248525   5.076  11.120   7.574 -0.0572  1.0111  0.2763
47990SOL     OW48526   8.458   7.989   6.615 -0.3517 -0.0088  0.3456
47990SOL    HW148527   8.386   7.928   6.599 -0.0809  0.2350 -2.1511
47990SOL    HW248528   8.441   8.062   6.555  1.2249  0.7012  0.7266
47991SOL     OW48529  10.504   9.188   5.338 -0.1356 -0.1256  0.3514
47991SOL    HW148530  10.534   9.271   5.375 -0.3282 -0.0551  0.3510
47991SOL    HW248531  10.414   9.179   5.367 -0.5041  0.2525 -0.6206
47992SOL     OW48532  11.961  10.939  11.135  0.3981 -0.5508 -0.0566
47992SOL    HW148533  11.945  11.027  11.170  0.3614 -0.6491  0.1693
47992SOL    HW248534  11.965  10.953  11.040  3.5034  0.2356  0.0828
47993SOL     OW48535   9.883   8.974   7.931 -0.6415  0.1162 -0.5223
47993SOL    HW148536   9.878   8.939   8.019  1.5716 -0.5732 -0.6330
47993SOL    HW248537   9.838   8.909   7.877 -0.0585 -0.5582 -0.1988
47994SOL     OW48538   4.004   3.717   0.392  0.3738 -0.8598  0.0845
47994SOL    HW148539   3.978   3.764   0.471  0.0728 -0.3912 -0.2873
47994SOL    HW248540   3.924   3.676   0.360 -0.0479  0.8717 -1.2534
47995SOL     OW48541   2.461   4.701   4.940 -0.0873 -0.5763 -0.0452
47995SOL    HW148542   2.373   4.670   4.957 -1.1834  2.0192 -0.4834
47995SOL    HW248543   2.461   4.792   4.971  2.2404 -0.3125 -0.6050
47996SOL     OW48544   0.058   4.941   3.865 -0.2850  0.2225  0.0653
47996SOL    HW148545   0.057   4.848   3.887 -2.0622 -0.5438 -2.7625
47996SOL    HW248546  -0.019   4.977   3.909  1.3462  0.8665  2.6149
47997SOL     OW48547  11.116   7.824   2.707 -0.0840  0.1123 -0.3183
47997SOL    HW148548  11.113   7.801   2.615 -1.6207 -2.0980  0.2021
47997SOL    HW248549  11.024   7.837   2.732  0.3046  0.7879  0.8927
47998SOL     OW48550   0.612   1.097   2.888  0.0039  0.5736 -0.1274
47998SOL    HW148551   0.533   1.149   2.871 -1.1429 -0.9097  0.4967
47998SOL    HW248552   0.585   1.007   2.873  1.6574  0.0387 -0.0857
47999SOL     OW48553   4.218  10.702   3.778  0.1163  0.3596 -0.0027
47999SOL    HW148554   4.251  10.771   3.836 -0.2281 -0.4704  1.2212
47999SOL    HW248555   4.278  10.703   3.703  0.7630  1.2541  0.5056
48000SOL     OW48556   9.472   1.238   1.180  0.5677  0.3570  0.8993
48000SOL    HW148557   9.471   1.156   1.131  2.7001 -0.7045  2.4765
48000SOL    HW248558   9.394   1.235   1.235  1.2741 -1.2946  1.8953
48001SOL     OW48559   6.388   3.421   8.663 -0.0227 -0.5220  0.1860
48001SOL    HW148560   6.353   3.507   8.639 -0.6355 -0.4932  1.1657
48001SOL    HW248561   6.403   3.377   8.579  0.1382  0.4736 -0.3147
48002SOL     OW48562  12.001  10.679   1.668 -0.3463  0.3615 -0.1338
48002SOL    HW148563  12.076  10.622   1.686 -0.8654 -0.3156 -0.0778
48002SOL    HW248564  11.998  10.684   1.572 -0.4989  0.0172 -0.1490
48003SOL     OW48565   2.500   6.554   4.375  0.9604 -0.6254  0.1609
48003SOL    HW148566   2.522   6.642   4.347  0.5415 -0.8097 -0.7633
48003SOL    HW248567   2.405   6.549   4.366  0.8195 -0.7354  1.4979
48004SOL     OW48568  11.946   7.931   6.814 -0.3266 -0.1273  0.2693
48004SOL    HW148569  11.957   7.904   6.905 -0.2992 -0.4038  0.1853
48004SOL    HW248570  12.008   8.003   6.803  0.5932 -0.9022  0.1302
48005SOL     OW48571   2.776   9.647   6.217 -0.1819  0.7043  0.1580
48005SOL    HW148572   2.797   9.724   6.270 -1.6821  0.9497  0.4360
48005SOL    HW248573   2.695   9.613   6.255  0.4025 -0.9775 -0.0174
48006SOL     OW48574   5.769   4.773  10.771 -0.2824  0.3007  0.1882
48006SOL    HW148575   5.689   4.823  10.787 -1.0567 -0.7203 -0.3909
48006SOL    HW248576   5.739   4.691  10.733  1.0940  0.1909 -0.7488
48007SOL     OW48577   6.383   3.620   8.012  0.2980 -0.3395 -0.6130
48007SOL    HW148578   6.361   3.582   7.927 -0.7587 -0.9919 -0.0679
48007SOL    HW248579   6.299   3.626   8.058  1.1055 -2.0564  1.2060
48008SOL     OW48580   4.773   2.333   0.482  0.1205  0.8962  0.3695
48008SOL    HW148581   4.831   2.306   0.410  1.1549 -0.8145  1.7787
48008SOL    HW248582   4.770   2.257   0.540 -2.0477  1.6452  1.3129
48009SOL     OW48583   1.445   4.004   8.673  0.3445 -0.3061  0.6375
48009SOL    HW148584   1.497   3.990   8.593 -2.4514 -2.0055 -1.0731
48009SOL    HW248585   1.377   3.936   8.669 -1.1449  0.8548  3.4533
48010SOL     OW48586   3.998   8.527   8.354 -0.3352  0.1651  0.0818
48010SOL    HW148587   4.058   8.472   8.305 -0.9231 -0.8245  0.4390
48010SOL    HW248588   3.975   8.598   8.293 -0.4910 -0.6388 -0.8248
48011SOL     OW48589   0.239   3.372  10.322  0.1527 -0.3668 -0.2463
48011SOL    HW148590   0.208   3.453  10.282  1.3018  0.9506  1.4150
48011SOL    HW248591   0.323   3.354  10.280 -0.4616 -1.1529 -1.1674
48012SOL     OW48592   3.055  11.601   8.317  0.0573  0.3608  0.4025
48012SOL    HW148593   3.097  11.546   8.383 -1.4924  0.8527  1.8743
48012SOL    HW248594   2.980  11.549   8.287  0.8977  0.0304 -1.2143
48013SOL     OW48595  10.572   2.047  10.519  0.2249  0.8145  0.2938
48013SOL    HW148596  10.664   2.073  10.517  0.7090 -0.7776  0.5178
48013SOL    HW248597  10.556   2.009  10.432  0.7200 -1.7884  1.2424
48014SOL     OW48598  10.469  10.565   5.795  0.0521  0.1759  0.2631
48014SOL    HW148599  10.547  10.615   5.821  1.1524 -2.0640  1.5187
48014SOL    HW248600  10.502  10.497   5.737 -0.4304 -2.4970  2.9304
48015SOL     OW48601   4.165   9.669   9.460  0.1695  0.4407  0.2945
48015SOL    HW148602   4.184   9.706   9.374  2.4049  0.5939  0.8081
48015SOL    HW248603   4.086   9.715   9.489  0.3454  1.5790 -0.9637
48016SOL     OW48604   7.492   7.913   0.533 -0.2678 -0.3539 -0.1925
48016SOL    HW148605   7.510   7.993   0.582  1.2766 -0.7188 -0.1305
48016SOL    HW248606   7.437   7.860   0.592 -1.1225  0.5414 -0.1547
48017SOL     OW48607  11.556   8.165   4.228 -0.2499 -0.0935 -0.5210
48017SOL    HW148608  11.614   8.197   4.297 -1.8800  0.1039  0.8166
48017SOL    HW248609  11.598   8.084   4.197  0.8886  0.2068  0.1669
48018SOL     OW48610   2.034   1.953   9.353  0.4267  0.1904 -0.3700
48018SOL    HW148611   2.039   2.020   9.285  0.7608  0.7737  0.2127
48018SOL    HW248612   2.120   1.911   9.351  0.4529  0.2399 -0.2767
48019SOL     OW48613   1.471   1.908   5.707  0.7400  0.7764 -0.5836
48019SOL    HW148614   1.384   1.874   5.728  0.6481  0.6881 -1.0941
48019SOL    HW248615   1.530   1.859   5.764  0.2890  2.1668  1.1362
48020SOL     OW48616   0.402   7.835   2.191 -0.2614 -0.7924 -0.3746
48020SOL    HW148617   0.462   7.772   2.151 -0.8575 -1.3659 -0.3633
48020SOL    HW248618   0.365   7.883   2.117 -0.0385 -0.6548 -0.3996
48021SOL     OW48619   2.824   5.726   7.201 -0.5242 -0.0309  0.4873
48021SOL    HW148620   2.798   5.635   7.215 -0.6609 -0.0570  0.0857
48021SOL    HW248621   2.779   5.751   7.120  3.7692 -1.3106 -2.6512
48022SOL     OW48622   1.551   3.066   5.321  0.1170  0.1220 -0.2782
48022SOL    HW148623   1.535   3.000   5.389  3.6797 -0.0260  0.5918
48022SOL    HW248624   1.524   3.148   5.362  0.3700 -0.2030  0.5620
48023SOL     OW48625   1.122   8.253  10.600 -0.7264  0.2894  0.7230
48023SOL    HW148626   1.167   8.330  10.635 -2.0448  0.6340  1.7385
48023SOL    HW248627   1.175   8.179  10.629  0.9072  0.8052 -0.7931
48024SOL     OW48628  10.980   8.018   2.447 -0.3668  0.0255 -0.1864
48024SOL    HW148629  10.950   8.013   2.538  2.0650 -1.1154  0.6250
48024SOL    HW248630  11.028   8.100   2.442 -0.3691  0.0132 -0.3874
48025SOL     OW48631  10.868   4.188   4.382 -0.0620  0.4600  0.4278
48025SOL    HW148632  10.895   4.239   4.306 -0.1119  0.5609  0.4764
48025SOL    HW248633  10.921   4.223   4.454  0.9248 -0.5022  0.2034
48026SOL     OW48634   7.532   8.829   8.863 -0.2334  0.0459 -0.2727
48026SOL    HW148635   7.540   8.914   8.907  1.4710 -0.0515 -0.3269
48026SOL    HW248636   7.560   8.845   8.773  0.8006 -0.6941 -0.1029
48027SOL     OW48637  10.174   0.474   0.977  0.1009  0.1722 -0.3653
48027SOL    HW148638  10.081   0.476   0.955  0.1759 -0.7936 -0.8103
48027SOL    HW248639  10.212   0.549   0.931 -0.8184  2.0126  1.6865
48028SOL     OW48640   6.383   3.687   3.207  0.4341  0.2569  0.1446
48028SOL    HW148641   6.403   3.699   3.299  1.5644  0.1878 -0.0841
48028SOL    HW248642   6.318   3.616   3.206  0.0449  0.5887  0.9015
48029SOL     OW48643   9.985   3.863  10.954  0.3336  0.0202  0.3630
48029SOL    HW148644   9.893   3.878  10.932 -0.9423 -2.5837  3.1532
48029SOL    HW248645  10.008   3.938  11.009 -0.4493  0.2041  0.4537
48030SOL     OW48646   9.342   9.374   4.925 -0.0274 -0.7732  0.1891
48030SOL    HW148647   9.253   9.348   4.950 -1.2704  1.9784 -0.9912
48030SOL    HW248648   9.398   9.332   4.990 -2.1872 -2.2214  1.2635
48031SOL     OW48649   4.303   0.945   5.752  0.9869 -0.0471 -0.1996
48031SOL    HW148650   4.256   0.892   5.688  0.1044 -0.7919  1.0181
48031SOL    HW248651   4.278   1.035   5.732 -1.1528 -0.4346  0.5263
48032SOL     OW48652  10.862   6.797   7.055 -0.8485  0.6896  0.1153
48032SOL    HW148653  10.951   6.763   7.047 -0.8663  0.4136  0.9858
48032SOL    HW248654  10.864   6.853   7.133 -1.4654  0.5499  0.2413
48033SOL     OW48655   6.357   7.011  11.134 -0.1682  0.4101 -0.3981
48033SOL    HW148656   6.438   7.021  11.185  0.2680  1.9509 -1.3247
48033SOL    HW248657   6.298   6.964  11.193  1.9274 -2.3710 -0.3029
48034SOL     OW48658   1.162  11.000   2.938  0.9297  0.1798 -0.1520
48034SOL    HW148659   1.175  11.061   3.010 -0.6525  0.1155  0.2188
48034SOL    HW248660   1.187  11.049   2.860  1.0442  0.8049  0.2756
48035SOL     OW48661   1.126   8.418   6.437 -0.6093 -0.0703 -0.7609
48035SOL    HW148662   1.094   8.505   6.460  0.1777 -0.3885  1.7944
48035SOL    HW248663   1.050   8.375   6.397 -1.0128  1.7262 -2.0686
48036SOL     OW48664   8.760   8.435   4.551  0.6688  0.1046 -0.2093
48036SOL    HW148665   8.749   8.385   4.632 -0.3038  1.5081  0.5725
48036SOL    HW248666   8.724   8.378   4.483  0.3072 -0.5770  0.5344
48037SOL     OW48667   8.887   0.466   4.735 -0.1067  0.1320 -0.3520
48037SOL    HW148668   8.956   0.471   4.801  0.8926  1.1371 -1.4329
48037SOL    HW248669   8.873   0.373   4.722 -0.6270 -0.1096  1.5541
48038SOL     OW48670   3.458  10.531   2.686  0.0668 -0.1845  0.5527
48038SOL    HW148671   3.460  10.435   2.691 -0.2751 -0.3681 -1.8364
48038SOL    HW248672   3.367  10.554   2.704 -0.7233 -0.6630 -2.2947
48039SOL     OW48673   6.131   4.279   4.806 -0.1225  0.5907 -0.5143
48039SOL    HW148674   6.202   4.338   4.780 -1.3639  2.4533  0.0839
48039SOL    HW248675   6.051   4.324   4.778 -1.1496 -0.6535  0.3021
48040SOL     OW48676  10.776  11.806   2.703 -0.0531 -0.6187  0.2864
48040SOL    HW148677  10.809  11.882   2.655  1.2563 -1.9760 -1.0636
48040SOL    HW248678  10.760  11.840   2.792 -0.8922  1.5408 -0.6087
48041SOL     OW48679   7.261  10.388   9.916  0.0582 -0.3791  0.3235
48041SOL    HW148680   7.236  10.357  10.004 -2.3193 -3.1640 -1.1620
48041SOL    HW248681   7.345  10.346   9.899 -0.7825 -2.1229  0.2767
48042SOL     OW48682   4.494   3.463   7.178  0.0177  0.2433  0.1644
48042SOL    HW148683   4.423   3.410   7.213 -0.6103  1.5356  0.9485
48042SOL    HW248684   4.531   3.507   7.255  1.9509 -0.6921 -0.1651
48043SOL     OW48685   6.263   2.622  11.275 -0.3508 -0.0470 -0.2675
48043SOL    HW148686   6.353   2.627  11.244  0.1657  0.1229  1.1903
48043SOL    HW248687   6.212   2.664  11.205  0.7999  0.6786 -0.7064
48044SOL     OW48688   1.381   3.505   5.728 -0.8143  0.5294 -0.4968
48044SOL    HW148689   1.459   3.558   5.746 -0.0599 -0.2794 -1.2601
48044SOL    HW248690   1.318   3.531   5.795 -0.0542  1.5438 -0.1540
48045SOL     OW48691   1.915   3.792   0.247  0.1343 -0.0192  0.0925
48045SOL    HW148692   2.009   3.806   0.234  0.2046  0.4661  1.0355
48045SOL    HW248693   1.879   3.786   0.159  0.8520  1.1643 -0.3004
48046SOL     OW48694   8.782   9.160  10.596  0.1670  0.5527 -0.3117
48046SOL    HW148695   8.750   9.098  10.531  0.1616  0.2750 -0.0479
48046SOL    HW248696   8.866   9.124  10.624  0.6926  1.2490 -0.9640
48047SOL     OW48697   5.476   9.085   9.805  0.1470 -0.1637  0.4094
48047SOL    HW148698   5.537   9.064   9.733  0.2838 -0.8215  0.7147
48047SOL    HW248699   5.413   9.145   9.765  0.9394  0.4711  0.0626
48048SOL     OW48700   8.924   4.454   8.289  0.0595 -0.0069  0.0873
48048SOL    HW148701   8.861   4.497   8.231  0.6340  0.7382 -0.0046
48048SOL    HW248702   8.970   4.392   8.233  0.9144  1.0235 -0.3745
48049SOL     OW48703   6.598   6.219   0.443  0.2774 -0.3155  0.7176
48049SOL    HW148704   6.504   6.233   0.455  0.2885  2.4932 -1.3179
48049SOL    HW248705   6.638   6.294   0.488  1.3006  0.1898 -0.9657
48050SOL     OW48706   0.467   6.489   2.596  0.0378 -0.1403 -0.5646
48050SOL    HW148707   0.558   6.518   2.606  0.1615 -0.6357 -0.2401
48050SOL    HW248708   0.471   6.420   2.530 -0.0261 -0.5495 -0.1395
48051SOL     OW48709   3.999   2.030   9.633  0.0474  0.2626  0.4336
48051SOL    HW148710   3.974   2.033   9.541  0.9268 -1.4201  0.0840
48051SOL    HW248711   3.961   2.108   9.672 -0.7164  0.7703 -1.2647
48052SOL     OW48712   5.340   7.132  10.831  0.2419  0.2196 -0.0446
48052SOL    HW148713   5.268   7.156  10.772 -0.1018  0.6528  0.5380
48052SOL    HW248714   5.393   7.212  10.837 -0.8952  0.8787  1.8987
48053SOL     OW48715   9.517   8.289   3.684 -0.0480  0.2937  0.0822
48053SOL    HW148716   9.428   8.318   3.704  0.3496  1.1461  0.6791
48053SOL    HW248717   9.530   8.314   3.593  0.0529  1.4521  0.3922
48054SOL     OW48718   6.620   2.059   5.697 -0.3006 -0.5278 -0.5040
48054SOL    HW148719   6.529   2.045   5.723 -1.4009  0.7033 -3.3163
48054SOL    HW248720   6.646   1.978   5.653 -1.3185  0.2770 -2.7690
48055SOL     OW48721   7.133   9.846   5.275  0.0577 -0.6345 -0.2773
48055SOL    HW148722   7.148   9.796   5.355 -0.6664 -1.3185 -0.5547
48055SOL    HW248723   7.167   9.933   5.294 -1.5445 -0.3291  1.3466
48056SOL     OW48724  10.211   5.099   4.881  0.5636  0.7860  0.3003
48056SOL    HW148725  10.243   5.056   4.960  1.2816 -1.8913 -1.3346
48056SOL    HW248726  10.289   5.130   4.836  0.1536  2.4270  0.6584
48057SOL     OW48727   7.728   8.725   9.871  0.1779  0.7748 -0.2961
48057SOL    HW148728   7.729   8.665   9.946  0.3630 -2.0213 -2.3503
48057SOL    HW248729   7.739   8.667   9.795  2.2379  3.6393 -2.3750
48058SOL     OW48730  10.386   5.578   7.121  0.4774 -0.7369  0.1328
48058SOL    HW148731  10.387   5.574   7.025 -1.5644  2.0502 -0.1384
48058SOL    HW248732  10.384   5.486   7.149  1.4017 -1.6390 -2.4534
48059SOL     OW48733   2.682   8.100   9.937 -0.5811  0.4150  0.5370
48059SOL    HW148734   2.689   8.048  10.018  1.0987 -0.4938 -0.1451
48059SOL    HW248735   2.714   8.187   9.962  0.5483 -0.0389  0.7098
48060SOL     OW48736   3.702   3.443   0.692  0.0863 -0.2195 -0.0188
48060SOL    HW148737   3.636   3.460   0.625  1.2508 -0.0249 -1.1619
48060SOL    HW248738   3.756   3.373   0.656  1.0767  0.2800  0.4505
48061SOL     OW48739   2.143  10.102   3.828  0.2276 -0.1484  0.2310
48061SOL    HW148740   2.147  10.087   3.733  1.9164  0.3049  0.1932
48061SOL    HW248741   2.123  10.016   3.865  0.1043 -0.4472 -0.5029
48062SOL     OW48742  10.615   8.430   9.399  0.3877  0.4378  0.7597
48062SOL    HW148743  10.643   8.381   9.476 -1.2339  0.0122  1.0985
48062SOL    HW248744  10.541   8.380   9.364  1.7640 -0.0181 -1.7463
48063SOL     OW48745   3.430  11.271   2.404 -0.2689  0.1504 -0.1480
48063SOL    HW148746   3.357  11.304   2.352 -2.5280 -3.2554  0.5697
48063SOL    HW248747   3.488  11.228   2.341 -0.2584  0.5707 -0.4237
48064SOL     OW48748   7.538   6.472   4.586  1.1402  0.0392 -0.1966
48064SOL    HW148749   7.558   6.551   4.535  0.4145 -0.8456 -1.9014
48064SOL    HW248750   7.494   6.505   4.664  0.4555  1.3156 -1.0805
48065SOL     OW48751   9.279   4.222   1.377 -0.0786 -0.4425  0.5128
48065SOL    HW148752   9.226   4.181   1.445 -2.9140  0.6882 -0.8497
48065SOL    HW248753   9.257   4.315   1.383 -0.2447 -0.2826 -1.7306
48066SOL     OW48754   2.734   4.909   2.664  0.2720 -0.1977  0.3665
48066SOL    HW148755   2.768   4.827   2.628 -0.2873 -0.0058 -0.6090
48066SOL    HW248756   2.809   4.969   2.662  0.0302  0.0835 -1.3321
48067SOL     OW48757   3.261  11.409   3.758 -0.5477  0.1285 -0.7643
48067SOL    HW148758   3.335  11.370   3.711  0.4595  2.0121 -0.8490
48067SOL    HW248759   3.219  11.335   3.802  1.9626 -0.9180  0.0782
48068SOL     OW48760   2.038   8.552   2.937 -0.7368  0.0256 -0.1812
48068SOL    HW148761   2.132   8.536   2.949 -0.5650 -0.4859 -1.9612
48068SOL    HW248762   2.000   8.466   2.922 -1.0977  0.4163 -1.7371
48069SOL     OW48763  10.206   8.718   5.931  0.4493  0.2366 -0.0242
48069SOL    HW148764  10.269   8.783   5.965  0.1369  2.0610 -2.6079
48069SOL    HW248765  10.184   8.750   5.843 -1.8580 -1.9512 -0.3576
48070SOL     OW48766   5.665   9.824   8.240  0.0750 -1.0277 -0.2915
48070SOL    HW148767   5.732   9.884   8.273 -1.2854  0.6985 -0.5405
48070SOL    HW248768   5.600   9.819   8.310 -0.5780 -1.0009 -0.8867
48071SOL     OW48769   8.490   1.957   5.262 -0.3746  0.8873 -0.0955
48071SOL    HW148770   8.554   1.930   5.328 -1.2745 -0.4786  0.2491
48071SOL    HW248771   8.523   2.041   5.230  0.8493  0.8758  1.0535
48072SOL     OW48772   9.484   9.673  10.571  0.4728  0.8107  0.2126
48072SOL    HW148773   9.463   9.692  10.480 -0.4686 -0.5612  0.1098
48072SOL    HW248774   9.578   9.691  10.578  1.5237 -2.7226 -2.1144
48073SOL     OW48775   2.978  12.098  11.299 -0.2330  0.7626  0.3673
48073SOL    HW148776   2.918  12.023  11.291 -0.9112  1.4038 -0.7688
48073SOL    HW248777   3.008  12.114  11.210 -1.3828  2.8617  0.2880
48074SOL     OW48778   1.836   3.765  10.704  0.1267  0.2504 -0.0434
48074SOL    HW148779   1.928   3.744  10.721 -0.2566 -1.1802  0.4117
48074SOL    HW248780   1.793   3.755  10.789 -0.5423  0.4004 -0.3574
48075SOL     OW48781   8.579   4.203   8.055  0.1359 -0.0781  0.0416
48075SOL    HW148782   8.485   4.214   8.067 -0.0764 -2.0246  0.3922
48075SOL    HW248783   8.588   4.150   7.976  0.9438  0.1338 -0.0204
48076SOL     OW48784   5.880   1.136  11.565  0.3126 -0.1833 -0.2127
48076SOL    HW148785   5.846   1.226  11.564  0.7666 -0.0127 -1.3140
48076SOL    HW248786   5.863   1.103  11.477  0.3956 -1.0864  0.1051
48077SOL     OW48787   0.333   2.021   1.274  0.2299 -0.1746  0.5327
48077SOL    HW148788   0.311   1.963   1.201  2.1195 -2.0860  1.3437
48077SOL    HW248789   0.283   2.100   1.259 -1.3447 -1.4648 -1.4749
48078SOL     OW48790   6.063   7.876   7.267  0.6026  0.1747  0.6896
48078SOL    HW148791   6.035   7.840   7.351 -0.4906  0.7621  0.6008
48078SOL    HW248792   6.152   7.843   7.255  0.6905 -0.1078  1.9607
48079SOL     OW48793   1.842   3.009   4.538 -0.1485  0.3416 -0.4065
48079SOL    HW148794   1.755   3.043   4.559 -0.3990 -0.3445 -0.3139
48079SOL    HW248795   1.887   3.084   4.499 -1.2697  0.3108 -1.8490
48080SOL     OW48796   4.043   5.969   9.382  0.2597 -0.4246  0.5157
48080SOL    HW148797   4.050   5.883   9.341 -0.2043  0.0857 -0.6684
48080SOL    HW248798   4.128   5.982   9.425  0.4006 -1.3808  0.5505
48081SOL     OW48799   5.368  11.957   4.250 -0.0477  0.3489 -0.3081
48081SOL    HW148800   5.307  12.004   4.194 -0.3713  0.6749  0.3019
48081SOL    HW248801   5.319  11.943   4.332  0.4600  0.0165 -0.0550
48082SOL     OW48802  11.575   2.381   3.610  0.6302 -0.1460  0.5727
48082SOL    HW148803  11.512   2.452   3.598  0.3552 -0.2248  1.4805
48082SOL    HW248804  11.659   2.426   3.619  0.2867  0.1941  2.5538
48083SOL     OW48805   2.467   7.968   7.901 -0.0195 -0.0505  0.4776
48083SOL    HW148806   2.382   8.008   7.923  0.2876  0.1597  1.2911
48083SOL    HW248807   2.488   7.913   7.976 -0.8986 -2.5860 -1.0131
48084SOL     OW48808  10.847  11.957  11.783  0.1047  0.0068  0.1790
48084SOL    HW148809  10.878  11.939  11.872  1.0654  2.0435  0.3176
48084SOL    HW248810  10.892  11.892  11.729 -0.4197 -1.1972  1.1528
48085SOL     OW48811   6.882   3.153   6.526 -0.3258 -0.3737 -0.0308
48085SOL    HW148812   6.972   3.172   6.500  0.6935 -3.2979  0.9227
48085SOL    HW248813   6.885   3.152   6.622 -0.9308 -2.1234 -0.0039
48086SOL     OW48814   7.077  12.045   2.406 -0.0193 -0.0404 -0.0265
48086SOL    HW148815   7.043  12.028   2.318 -1.0745 -0.2959  0.4094
48086SOL    HW248816   7.162  12.001   2.408  0.1519  0.2195 -1.0065
48087SOL     OW48817  10.241   7.479   4.134 -0.0761 -0.2351 -0.2681
48087SOL    HW148818  10.217   7.423   4.060  0.7638 -0.5396 -0.3236
48087SOL    HW248819  10.221   7.568   4.104 -1.5863 -0.5000 -0.1131
48088SOL     OW48820   8.901   6.797   1.743 -0.1452  0.2726  0.1283
48088SOL    HW148821   8.909   6.878   1.693  0.4066  0.1902  0.0724
48088SOL    HW248822   8.982   6.792   1.794 -0.1796 -0.2350  0.1416
48089SOL     OW48823   4.673   8.003   4.663  0.0656  0.5529 -0.0069
48089SOL    HW148824   4.679   7.916   4.703  0.1749  0.6930  0.2840
48089SOL    HW248825   4.579   8.020   4.657  0.0167  0.0277 -0.9130
48090SOL     OW48826   8.035   6.930  10.483  0.5678 -0.0469  0.4438
48090SOL    HW148827   7.981   6.902  10.409 -0.4566 -0.0511  1.1770
48090SOL    HW248828   8.121   6.892  10.464 -0.0827 -1.4159  0.0486
48091SOL     OW48829  10.638  10.095   8.316  0.2853  0.0348  0.3157
48091SOL    HW148830  10.687  10.040   8.255  0.5512 -0.6173  1.1048
48091SOL    HW248831  10.548  10.093   8.282  0.8057  1.4953 -1.3274
48092SOL     OW48832   3.878   9.180   3.827 -0.0748 -0.2850 -0.2184
48092SOL    HW148833   3.935   9.252   3.804 -0.4334  0.3965  0.9418
48092SOL    HW248834   3.817   9.173   3.753 -0.6393  1.2451  0.0572
48093SOL     OW48835   0.800   3.080   2.703  0.0757 -0.2907  0.3596
48093SOL    HW148836   0.871   3.096   2.765  0.8809 -0.1649 -0.5660
48093SOL    HW248837   0.809   2.988   2.678 -0.4263 -0.4205  0.6465
48094SOL     OW48838   6.599   0.954  10.957  0.2456 -0.4913  0.3470
48094SOL    HW148839   6.600   1.002  10.874 -0.2767 -0.8753  0.1139
48094SOL    HW248840   6.583   1.022  11.023 -0.1658 -0.2956  0.0522
48095SOL     OW48841   6.954  10.825   4.564 -0.8254  0.1451 -0.0588
48095SOL    HW148842   7.028  10.764   4.558 -0.4283  0.4263  1.6956
48095SOL    HW248843   6.986  10.906   4.526  0.8096  1.1568  3.1862
48096SOL     OW48844   6.299   7.200   7.501 -0.4562 -0.0602  0.0525
48096SOL    HW148845   6.357   7.257   7.450  0.1219  1.0790  1.8847
48096SOL    HW248846   6.348   7.118   7.510  1.1707  1.0004  1.8839
48097SOL     OW48847  10.151   3.236   2.908  0.3761 -0.4760 -0.4025
48097SOL    HW148848  10.147   3.280   2.823  0.7985 -1.1611 -0.7938
48097SOL    HW248849  10.172   3.145   2.886 -1.2502 -1.0581  0.3283
48098SOL     OW48850   6.550   1.447  10.326  0.2724  0.3473  0.0858
48098SOL    HW148851   6.631   1.430  10.373  0.3414 -0.0630 -0.1699
48098SOL    HW248852   6.497   1.499  10.386 -0.0339 -0.9852  1.0176
48099SOL     OW48853   1.345   7.747   0.073  0.1602  0.0618  0.3251
48099SOL    HW148854   1.400   7.679   0.033 -0.1048  0.6864 -1.1848
48099SOL    HW248855   1.264   7.746   0.021  0.4654  2.0667 -0.2926
48100SOL     OW48856   6.059   4.044  10.711 -0.5339 -0.1179 -0.1542
48100SOL    HW148857   6.058   4.039  10.615 -0.4425 -1.8503 -0.0947
48100SOL    HW248858   6.149   4.069  10.733 -0.2117 -0.9439 -0.4922
48101SOL     OW48859   3.296   7.056   0.898 -0.4133 -0.3408  0.2867
48101SOL    HW148860   3.389   7.042   0.915 -0.6954 -0.4122  1.9531
48101SOL    HW248861   3.281   7.148   0.920 -0.3587  0.2879 -2.0218
48102SOL     OW48862   2.395   7.590   7.983 -0.2279  0.1613  0.0649
48102SOL    HW148863   2.490   7.594   7.972 -0.1581  1.6410  0.8847
48102SOL    HW248864   2.382   7.563   8.074 -0.6464 -2.0307 -0.5997
48103SOL     OW48865   2.007   9.515   6.538 -0.3601  0.5358 -0.3751
48103SOL    HW148866   2.011   9.541   6.630  1.4595  1.3004 -0.6445
48103SOL    HW248867   2.056   9.433   6.535 -1.6894 -0.2991 -0.4474
48104SOL     OW48868   4.717   3.571   5.908 -0.2466  0.3541  0.1602
48104SOL    HW148869   4.669   3.632   5.852  0.3293 -0.0069 -0.7478
48104SOL    HW248870   4.662   3.493   5.913 -0.2992  0.3867  0.0934
48105SOL     OW48871   8.536   7.432   1.883  0.2996 -0.1650 -0.6581
48105SOL    HW148872   8.598   7.376   1.835  1.0751  0.8604 -0.8964
48105SOL    HW248873   8.538   7.516   1.836  0.3489  0.5602  0.5919
48106SOL     OW48874  10.166   1.570  10.163  0.1912  0.0955  0.7492
48106SOL    HW148875  10.076   1.553  10.189 -0.2067  0.5997 -0.2482
48106SOL    HW248876  10.210   1.485  10.170 -0.2329 -0.0520  1.6937
48107SOL     OW48877   9.523   7.645  10.748 -0.4434 -0.1227 -0.8493
48107SOL    HW148878   9.486   7.664  10.661  0.6103 -1.6099 -1.6851
48107SOL    HW248879   9.494   7.555  10.766 -0.3985  0.0700  0.2109
48108SOL     OW48880   0.604   4.003   7.279 -0.4628  0.1180  0.0896
48108SOL    HW148881   0.613   4.018   7.185  0.6650 -2.2963 -0.2534
48108SOL    HW248882   0.512   4.020   7.298 -0.6003  1.1071 -1.3205
48109SOL     OW48883   7.427   2.309   3.858  0.4774 -0.1380  0.3006
48109SOL    HW148884   7.361   2.345   3.916 -0.5188  0.4015 -1.1093
48109SOL    HW248885   7.390   2.227   3.826  1.2646 -0.7263  0.8414
48110SOL     OW48886  11.050   5.536   1.179  0.2516  1.1054 -0.5179
48110SOL    HW148887  10.964   5.547   1.139  0.3734  1.1350 -0.7790
48110SOL    HW248888  11.103   5.607   1.141  0.2705  1.3676 -0.0150
48111SOL     OW48889   3.876   8.279   1.877  0.4549  0.0235  0.3107
48111SOL    HW148890   3.908   8.193   1.903 -0.8331 -0.3976  0.5464
48111SOL    HW248891   3.834   8.314   1.955  0.3960  0.6002  0.0302
48112SOL     OW48892   7.268   1.599   4.915  0.1730 -0.1666 -0.2279
48112SOL    HW148893   7.173   1.602   4.930  0.3714  1.8803  1.0568
48112SOL    HW248894   7.291   1.507   4.927 -1.4247 -0.4403  1.1919
48113SOL     OW48895   3.456   5.795   8.909  0.0954 -0.5657  0.5188
48113SOL    HW148896   3.393   5.806   8.838  0.3337  1.3331  0.5269
48113SOL    HW248897   3.532   5.754   8.868  0.2197  0.4916 -0.3669
48114SOL     OW48898   6.269  11.722  11.233  0.3451  0.5042  0.3174
48114SOL    HW148899   6.182  11.761  11.225  0.4960  0.5503 -1.6341
48114SOL    HW248900   6.311  11.740  11.149  0.7324 -3.0225 -0.4200
48115SOL     OW48901  11.023   8.224   4.364 -0.9083 -0.2125  0.0253
48115SOL    HW148902  11.100   8.270   4.331 -1.5002 -0.0080 -1.1017
48115SOL    HW248903  11.057   8.169   4.435  0.1516  0.3980  0.0191
48116SOL     OW48904   8.356  12.021   4.431  0.3442  0.1197  0.4406
48116SOL    HW148905   8.371  11.933   4.396 -1.1973  0.1887 -0.5033
48116SOL    HW248906   8.400  12.021   4.515  0.1304 -1.6718  0.6037
48117SOL     OW48907   7.235   1.696   0.755  0.3006  0.0234 -0.3632
48117SOL    HW148908   7.286   1.645   0.691  0.2373 -0.9338  0.3328
48117SOL    HW248909   7.295   1.766   0.781  1.3218 -1.1136  0.4769
48118SOL     OW48910   2.167  11.649   8.740  0.4572  0.0737 -0.5137
48118SOL    HW148911   2.164  11.593   8.663  1.1763 -1.9275  0.8525
48118SOL    HW248912   2.126  11.598   8.809  0.3467  1.5926  0.6032
48119SOL     OW48913   3.314  11.768   7.494  0.1679  0.0165 -0.0389
48119SOL    HW148914   3.253  11.748   7.422  0.0243 -2.8533  0.7850
48119SOL    HW248915   3.280  11.850   7.531 -1.4767  0.0257 -1.4044
48120SOL     OW48916   4.076   1.055   5.535  0.2359 -0.6097  0.0133
48120SOL    HW148917   4.142   0.992   5.507 -0.5471 -2.0169  1.1861
48120SOL    HW248918   4.019   1.006   5.595 -3.7754 -0.4006 -3.1908
48121SOL     OW48919   2.560  10.005   1.082  0.2896 -0.5647 -0.5661
48121SOL    HW148920   2.642   9.974   1.121  1.8047  2.1815 -1.3107
48121SOL    HW248921   2.524  10.065   1.147 -0.9937 -1.5045 -0.3888
48122SOL     OW48922   6.034   1.799  11.499 -0.3664  0.1162 -0.2300
48122SOL    HW148923   6.080   1.837  11.573 -0.2594 -1.1335  0.3642
48122SOL    HW248924   6.004   1.714  11.530  0.2569 -0.7329 -1.8183
48123SOL     OW48925   9.447   1.315   4.157  0.4477 -0.4520  0.0500
48123SOL    HW148926   9.448   1.223   4.131 -0.1451 -0.8671  1.4386
48123SOL    HW248927   9.520   1.324   4.218  0.4684 -0.0073 -0.0343
48124SOL     OW48928   2.854   8.201   8.358  0.6602  0.1276  0.0996
48124SOL    HW148929   2.785   8.143   8.392  0.1559 -0.5415 -1.9005
48124SOL    HW248930   2.807   8.279   8.329  1.0735  0.6771  0.8876
48125SOL     OW48931  11.358  11.373   3.146 -0.0549 -0.3476 -0.7277
48125SOL    HW148932  11.437  11.383   3.093  0.4599  2.0296  0.3379
48125SOL    HW248933  11.365  11.285   3.182  2.3555 -0.0865 -0.3379
48126SOL     OW48934  11.758   9.092   5.726 -0.3909 -0.1223 -0.6827
48126SOL    HW148935  11.712   9.036   5.664 -1.1667  0.6170 -0.7803
48126SOL    HW248936  11.696   9.106   5.797 -0.1082  0.3767 -0.5255
48127SOL     OW48937   2.611   2.890   6.685  0.2928 -0.3854 -0.4932
48127SOL    HW148938   2.619   2.796   6.672 -0.3146 -0.2920 -1.6373
48127SOL    HW248939   2.518   2.903   6.706  0.6145 -0.1625  0.8882
48128SOL     OW48940   1.880   2.663   5.262 -0.5356 -0.4093 -0.3047
48128SOL    HW148941   1.803   2.663   5.206 -0.5606  0.0286 -0.2775
48128SOL    HW248942   1.848   2.633   5.347 -0.9011  0.7288 -0.0140
48129SOL     OW48943   3.277   2.948   3.089 -0.0963  0.2276 -0.1293
48129SOL    HW148944   3.253   3.017   3.151  1.6863  0.7531  0.0227
48129SOL    HW248945   3.293   2.871   3.143  0.3971  0.3972 -0.0250
48130SOL     OW48946   7.545  11.830  11.165  0.0163  0.3406 -0.0566
48130SOL    HW148947   7.606  11.808  11.236 -0.9893 -1.0768  0.4258
48130SOL    HW248948   7.484  11.893  11.204  1.2330  1.9285 -0.6028
48131SOL     OW48949   6.205  10.270   8.740  0.0350 -0.4191  0.2008
48131SOL    HW148950   6.181  10.286   8.648 -1.6532 -2.2847  0.2329
48131SOL    HW248951   6.260  10.191   8.736  0.5544 -0.0864  0.7429
48132SOL     OW48952   8.626   0.684   7.642 -0.5322  0.0440 -0.0831
48132SOL    HW148953   8.650   0.682   7.550  1.3098  0.2269  0.3579
48132SOL    HW248954   8.558   0.751   7.648 -0.8037 -0.0970 -1.3138
48133SOL     OW48955   4.542   3.876   8.165 -0.2533 -0.1157 -0.6830
48133SOL    HW148956   4.481   3.828   8.221  2.4218 -0.7598  1.9658
48133SOL    HW248957   4.608   3.810   8.141  0.5572  1.0055 -1.6180
48134SOL     OW48958  11.471   5.612  11.582  0.4424 -0.1779  0.0995
48134SOL    HW148959  11.558   5.583  11.555  1.0946 -0.2434  2.1068
48134SOL    HW248960  11.454   5.565  11.663 -2.7578 -2.4457 -1.6517
48135SOL     OW48961   6.021   3.883   8.030  0.1529  0.4870  0.2606
48135SOL    HW148962   5.995   3.971   8.058 -1.1072  1.4499 -3.4316
48135SOL    HW248963   5.944   3.847   7.987  0.2681 -3.0206  2.5152
48136SOL     OW48964   5.047   9.917   2.755  0.2179 -0.2227  0.0763
48136SOL    HW148965   5.031   9.993   2.698 -0.6733 -0.4551 -0.0035
48136SOL    HW248966   4.999   9.936   2.835 -3.4743 -2.3921 -1.3827
48137SOL     OW48967  10.291  10.008   3.757  0.3438 -0.4595  0.0541
48137SOL    HW148968  10.332   9.922   3.767  0.5229 -0.4975 -0.8469
48137SOL    HW248969  10.230  10.014   3.830  1.8964 -0.4217  1.4206
48138SOL     OW48970   4.431   7.339   3.336  0.1303  0.4422  0.2799
48138SOL    HW148971   4.442   7.281   3.411 -0.7975 -0.0604  0.0399
48138SOL    HW248972   4.518   7.345   3.297  0.2407 -0.8017  0.3032
48139SOL     OW48973   6.070   3.443   7.548  0.0377 -0.2028  0.0268
48139SOL    HW148974   6.017   3.413   7.474  0.9405  1.0145 -1.1698
48139SOL    HW248975   6.028   3.405   7.625 -1.5863 -0.6184 -1.0155
48140SOL     OW48976   9.427   8.698  11.085  0.3452  0.5937  0.3244
48140SOL    HW148977   9.429   8.696  11.180  0.0118  1.3609  0.3467
48140SOL    HW248978   9.517   8.718  11.059  0.7986 -1.1152  0.4182
48141SOL     OW48979   0.341   5.979  11.862  0.3903 -0.1394  0.2174
48141SOL    HW148980   0.283   5.932  11.922  0.4432  0.7014  0.9448
48141SOL    HW248981   0.346   5.923  11.785 -2.1995  0.2009 -0.2960
48142SOL     OW48982   1.623   7.329  11.634 -0.1120 -0.0355  0.5880
48142SOL    HW148983   1.615   7.343  11.540  0.7791 -1.3817  0.2920
48142SOL    HW248984   1.533   7.329  11.666 -0.3664  1.6114 -0.0650
48143SOL     OW48985   8.422   5.848   9.341 -0.5671 -0.5167 -0.5439
48143SOL    HW148986   8.379   5.925   9.378 -0.8709 -0.1833 -1.5602
48143SOL    HW248987   8.494   5.829   9.402 -0.5731  0.4897 -0.2110
48144SOL     OW48988   3.001   4.385   4.105  0.3404 -0.3375  0.6658
48144SOL    HW148989   3.050   4.467   4.096  0.5303 -0.2278  2.3489
48144SOL    HW248990   2.958   4.392   4.190 -0.4672 -1.5663  0.3798
48145SOL     OW48991   7.641   8.086   6.683  0.1938  0.1925 -0.7130
48145SOL    HW148992   7.733   8.088   6.707 -0.6355 -0.2919  3.0443
48145SOL    HW248993   7.630   8.001   6.639  1.0144 -1.1906  1.5939
48146SOL     OW48994  11.127   7.406   1.005  0.0788 -0.4748 -0.6177
48146SOL    HW148995  11.138   7.315   1.035  1.1492 -0.4255 -0.8133
48146SOL    HW248996  11.039   7.409   0.970 -0.2449 -1.2443  0.0783
48147SOL     OW48997   4.995   0.300   9.949 -0.0153  0.2419  0.0986
48147SOL    HW148998   4.927   0.247   9.990  0.1623  0.1350  0.2534
48147SOL    HW248999   5.057   0.318  10.019  0.4001 -0.1297 -0.1717
48148SOL     OW49000   1.508   3.865   5.999  0.5442  0.0415  0.3588
48148SOL    HW149001   1.456   3.857   6.079 -1.5332 -2.1241 -1.0798
48148SOL    HW249002   1.526   3.774   5.974  2.8051  0.6948 -0.6810
48149SOL     OW49003   1.961   0.098   2.861 -1.2356 -0.1034 -0.0795
48149SOL    HW149004   1.913   0.017   2.844  0.0813 -0.5410 -2.0526
48149SOL    HW249005   1.962   0.105   2.956 -2.1507 -1.9286  0.1225
48150SOL     OW49006   0.318   2.062  10.152  0.2226  0.5133  0.2479
48150SOL    HW149007   0.271   2.075  10.070  2.8492  0.8060 -1.3431
48150SOL    HW249008   0.252   2.030  10.213 -1.4588 -1.7350 -2.5196
48151SOL     OW49009  10.740   0.350   9.185 -0.0284  0.2145  0.1476
48151SOL    HW149010  10.666   0.291   9.168 -0.1567  0.3753  0.1410
48151SOL    HW249011  10.805   0.326   9.120 -0.1727  0.2366 -0.0069
48152SOL     OW49012   1.700   4.878   3.497 -0.8679  0.5860 -0.0538
48152SOL    HW149013   1.666   4.968   3.496 -1.1064  0.4971 -0.1832
48152SOL    HW249014   1.654   4.836   3.569 -1.5994  0.2552 -0.6998
48153SOL     OW49015   4.731  10.004   5.675 -0.0473 -0.2062  0.0617
48153SOL    HW149016   4.809   9.951   5.659  1.2735  1.5833  0.2086
48153SOL    HW249017   4.682   9.999   5.594 -0.4459 -2.3226  0.3606
48154SOL     OW49018   7.030   2.156   1.012  0.0135  0.0072 -0.5061
48154SOL    HW149019   7.094   2.226   1.002 -1.2270  1.4841  1.2806
48154SOL    HW249020   7.019   2.147   1.107  0.7817 -3.2799 -0.6143
48155SOL     OW49021   8.467   7.797   0.750  0.4093 -0.2911  0.3330
48155SOL    HW149022   8.487   7.883   0.713 -0.0092  1.0189  2.8708
48155SOL    HW249023   8.381   7.774   0.714 -0.1511  1.0798  0.7426
48156SOL     OW49024   2.098   3.134   5.262  0.1123  0.0719  0.0641
48156SOL    HW149025   2.179   3.158   5.218  0.0359  1.8051  0.7781
48156SOL    HW249026   2.081   3.044   5.234  2.1217 -0.2473 -0.3120
48157SOL     OW49027  10.072  10.911  11.019 -0.2538  0.3508 -0.2311
48157SOL    HW149028   9.986  10.945  11.044  1.3958  3.2548  2.2340
48157SOL    HW249029  10.108  10.977  10.959  0.2242 -0.9256 -1.3948
48158SOL     OW49030   3.067   7.022   1.878  0.2899  1.1251 -0.5954
48158SOL    HW149031   2.975   6.996   1.868  0.3929  1.0788 -1.5063
48158SOL    HW249032   3.070   7.112   1.847  0.0370  2.1407  2.0742
48159SOL     OW49033   6.597  11.985   9.158  0.3634 -0.1043  0.3489
48159SOL    HW149034   6.553  11.917   9.107 -2.8516  1.4092  0.8039
48159SOL    HW249035   6.658  12.026   9.096 -1.6954  0.1346 -1.6491
48160SOL     OW49036   9.487   8.016   0.367  0.3704 -0.1469  0.1125
48160SOL    HW149037   9.398   8.033   0.336  0.8185  0.1533 -1.0601
48160SOL    HW249038   9.532   7.980   0.290  0.8401 -1.7934  1.1184
48161SOL     OW49039   5.182  10.820  11.341  0.2015 -0.1247 -0.2893
48161SOL    HW149040   5.105  10.856  11.385 -0.2427 -0.7881 -0.5191
48161SOL    HW249041   5.249  10.889  11.351 -0.3768  0.4075  0.0087
48162SOL     OW49042   8.472   6.108   4.552  0.1630  0.2067  0.2477
48162SOL    HW149043   8.498   6.053   4.478 -1.1442  0.0101 -0.0851
48162SOL    HW249044   8.424   6.049   4.610  0.5943  0.5165  0.9287
48163SOL     OW49045   7.736   0.402   9.236  0.4068  0.7310  0.6249
48163SOL    HW149046   7.670   0.359   9.182 -0.0216  1.7687  0.2971
48163SOL    HW249047   7.718   0.373   9.325  1.2362 -1.1571  0.2316
48164SOL     OW49048   9.301   7.802   1.457 -0.5667 -0.1803 -0.0129
48164SOL    HW149049   9.240   7.781   1.386  0.2900 -0.7524 -0.5933
48164SOL    HW249050   9.265   7.758   1.534  0.1559 -2.2286 -0.7849
48165SOL     OW49051  12.100  11.859   3.793 -0.4285 -0.6026  0.3855
48165SOL    HW149052  12.191  11.884   3.809 -0.3978  0.5480 -1.2770
48165SOL    HW249053  12.072  11.918   3.722 -2.1545 -1.6024  0.1998
48166SOL     OW49054   2.842   8.440   8.991  0.5412  0.0782 -0.5072
48166SOL    HW149055   2.820   8.355   8.953  0.8869  0.0972 -0.7555
48166SOL    HW249056   2.918   8.422   9.047  1.3747  0.4384 -1.5041
48167SOL     OW49057   2.604   7.611   4.651 -0.2916  0.2542 -0.1570
48167SOL    HW149058   2.546   7.666   4.598 -0.0262  0.8133  0.1249
48167SOL    HW249059   2.688   7.616   4.606 -0.5933 -1.0758 -0.9332
48168SOL     OW49060  10.578   4.699   6.191  0.3422  0.3679  0.6020
48168SOL    HW149061  10.664   4.737   6.173  0.7240 -0.0164  1.5734
48168SOL    HW249062  10.583   4.667   6.281 -0.6895 -0.0213  0.5432
48169SOL     OW49063   6.162   2.626   6.142  0.1496  0.1977 -0.0986
48169SOL    HW149064   6.118   2.673   6.213 -1.7638 -0.2663 -0.8944
48169SOL    HW249065   6.104   2.638   6.066  1.0865 -1.0153 -1.0529
48170SOL     OW49066   8.405   5.639   5.498  0.1465  0.1453 -0.1350
48170SOL    HW149067   8.440   5.562   5.542 -0.4070  0.6507  1.2606
48170SOL    HW249068   8.452   5.644   5.415 -0.5680 -2.3047 -0.7731
48171SOL     OW49069   8.280  11.006   6.215  0.0748  0.1666 -0.1991
48171SOL    HW149070   8.303  11.097   6.236 -1.5216  0.5189  0.1001
48171SOL    HW249071   8.341  10.954   6.268  1.8257  1.0174 -1.2752
48172SOL     OW49072  10.775   9.839  10.081 -0.1211 -0.3931  0.0646
48172SOL    HW149073  10.703   9.875  10.133 -0.3027 -1.4231  0.5661
48172SOL    HW249074  10.788   9.902  10.011  0.0025  0.9412  1.2518
48173SOL     OW49075   6.459   8.537   1.231  0.3267  0.3629 -0.4205
48173SOL    HW149076   6.455   8.518   1.137  1.0800  5.5187 -1.8521
48173SOL    HW249077   6.368   8.544   1.258  0.0786  0.5428 -1.2637
48174SOL     OW49078   7.287  10.107   1.576 -0.7695  0.3074 -0.2609
48174SOL    HW149079   7.290  10.136   1.484 -2.6842 -1.5524 -0.9863
48174SOL    HW249080   7.350  10.035   1.580 -1.0587  0.0542 -0.2526
48175SOL     OW49081   6.755   5.476   6.270 -0.2150  0.1242 -0.1316
48175SOL    HW149082   6.775   5.502   6.360  0.9922  0.6821 -0.5405
48175SOL    HW249083   6.817   5.525   6.216 -0.2051 -0.9871 -1.1898
48176SOL     OW49084   4.549  10.013   1.807  0.4078  0.3301  0.2711
48176SOL    HW149085   4.560   9.930   1.853  0.8962  0.9790  1.3707
48176SOL    HW249086   4.489  10.063   1.863  0.2573  0.7872 -0.2894
48177SOL     OW49087  10.768  10.037   4.095 -0.0932  0.5920 -0.1142
48177SOL    HW149088  10.780  10.042   4.000  1.2987 -2.7893 -0.2621
48177SOL    HW249089  10.675  10.055   4.108  0.0485  3.2193 -1.7832
48178SOL     OW49090  10.814   6.234   7.439  0.1493  0.0985  0.5350
48178SOL    HW149091  10.889   6.286   7.410 -1.0366  1.7115  0.2462
48178SOL    HW249092  10.800   6.260   7.529  0.0114 -0.3066  0.6341
48179SOL     OW49093   1.316   1.348   8.966 -0.1003  0.3296 -0.0724
48179SOL    HW149094   1.242   1.369   9.022  0.7137  0.0847  1.1304
48179SOL    HW249095   1.368   1.428   8.963 -0.3919  0.4923 -0.8842
48180SOL     OW49096   6.892  11.436   7.357  1.1645  0.4839 -0.1686
48180SOL    HW149097   6.940  11.459   7.437 -1.0953  0.4993  1.2607
48180SOL    HW249098   6.862  11.520   7.322  0.4691  0.3367  0.0727
48181SOL     OW49099   4.995   0.356   5.855 -0.3419  0.7201 -0.0963
48181SOL    HW149100   5.002   0.437   5.804 -0.1914  0.1193 -1.0521
48181SOL    HW249101   4.910   0.362   5.898 -0.0014  1.7392  0.4742
48182SOL     OW49102   7.856  11.026   6.489 -0.3178  0.1246 -0.1848
48182SOL    HW149103   7.914  11.089   6.446  0.5085 -1.0609 -0.8441
48182SOL    HW249104   7.878  10.942   6.450  0.3312 -1.0034  2.4477
48183SOL     OW49105   9.673   2.310  10.431 -0.1395 -0.4363 -0.1538
48183SOL    HW149106   9.680   2.313  10.527  0.7415  1.1115 -0.2420
48183SOL    HW249107   9.761   2.330  10.400 -0.4651 -0.7324 -1.3043
48184SOL     OW49108   9.318   8.754   4.721  0.0805  0.3521 -0.7128
48184SOL    HW149109   9.261   8.701   4.666 -1.5778  1.2773  0.0116
48184SOL    HW249110   9.401   8.706   4.724 -0.6219 -1.0171 -1.8718
48185SOL     OW49111   8.268   2.962   6.447  0.0785 -0.2894 -0.4105
48185SOL    HW149112   8.291   2.869   6.444 -0.4902 -0.4174 -1.0074
48185SOL    HW249113   8.173   2.963   6.437 -0.0073  0.3227  0.3530
48186SOL     OW49114   7.631   8.996  10.857 -0.4130  0.4446  0.4555
48186SOL    HW149115   7.636   8.947  10.776 -0.0680  0.5669  0.4034
48186SOL    HW249116   7.653   8.932  10.925 -0.0555  0.5017  0.3952
48187SOL     OW49117   9.839   5.011   6.575  0.5832 -0.0651 -0.0518
48187SOL    HW149118   9.876   5.097   6.555  0.2462  0.5164  1.6979
48187SOL    HW249119   9.803   4.980   6.491  0.5032  1.5801 -0.6525
48188SOL     OW49120   0.088   8.335   9.711 -0.4372  0.1743  0.1012
48188SOL    HW149121   0.146   8.338   9.788 -1.2621 -1.9092  0.8730
48188SOL    HW249122   0.031   8.411   9.721 -0.9006 -0.3610  1.8980
48189SOL     OW49123  11.648  11.212  11.571 -0.2449 -0.1136 -0.3529
48189SOL    HW149124  11.583  11.200  11.501 -0.1721  1.1244 -0.6637
48189SOL    HW249125  11.721  11.255  11.528  0.4778 -0.7998  0.1682
48190SOL     OW49126  10.354   6.142  11.270 -0.0952 -0.2722 -0.5984
48190SOL    HW149127  10.419   6.211  11.253  0.5534 -0.6092  0.4080
48190SOL    HW249128  10.270   6.182  11.247  0.1004  1.3603  1.2817
48191SOL     OW49129   6.562   6.656   2.716 -0.1543  0.1252 -0.1473
48191SOL    HW149130   6.612   6.682   2.793 -0.9541  0.7566  0.1785
48191SOL    HW249131   6.600   6.707   2.644 -0.6198  0.9593  0.1849
48192SOL     OW49132   1.486   3.057   9.736 -0.2297  0.6663  0.1067
48192SOL    HW149133   1.417   3.032   9.798 -1.3188 -3.7522 -2.4596
48192SOL    HW249134   1.441   3.111   9.671 -0.4946  0.5099  0.1549
48193SOL     OW49135   2.654   0.031  10.730  0.2732 -0.3577  0.0522
48193SOL    HW149136   2.676   0.066  10.816  0.3925 -1.6475  0.5646
48193SOL    HW249137   2.575   0.078  10.704 -0.1750 -0.4714  1.1778
48194SOL     OW49138   5.588   8.396   0.064  0.0302 -0.0381  0.0866
48194SOL    HW149139   5.563   8.474   0.014  2.5681 -0.3921 -1.9532
48194SOL    HW249140   5.599   8.427   0.154 -1.8386  1.2613 -0.0766
48195SOL     OW49141   6.173   9.778   3.989  0.5111  0.0325 -0.0874
48195SOL    HW149142   6.144   9.865   3.961 -1.5949 -0.4729  0.3616
48195SOL    HW249143   6.144   9.720   3.919  1.0513 -0.4340  0.0711
48196SOL     OW49144  11.644   3.239   0.969 -0.0263 -0.2792  0.5346
48196SOL    HW149145  11.571   3.265   0.912 -0.0744 -0.2729  0.5986
48196SOL    HW249146  11.672   3.321   1.010 -0.1836 -0.3275  0.7420
48197SOL     OW49147  10.535   7.637   1.229  0.2970  0.4344  0.0475
48197SOL    HW149148  10.541   7.619   1.135 -1.7389 -1.3489  0.1891
48197SOL    HW249149  10.584   7.566   1.270 -0.5355  0.0593  0.3920
48198SOL     OW49150   2.425  12.049   9.253  0.1863 -0.2176  0.7219
48198SOL    HW149151   2.505  12.059   9.305 -0.3001  0.6578  1.3185
48198SOL    HW249152   2.451  12.074   9.164  0.5458  0.1590  0.9314
48199SOL     OW49153  10.727   4.870   2.771 -0.3721 -0.1389  0.5615
48199SOL    HW149154  10.820   4.880   2.793 -0.8597  2.8973  1.7861
48199SOL    HW249155  10.727   4.844   2.679  1.6697 -1.3076  0.8313
48200SOL     OW49156   1.905   0.240   8.718 -0.3422 -0.3797 -0.0423
48200SOL    HW149157   1.893   0.309   8.652  0.0036  0.4196  0.6972
48200SOL    HW249158   1.945   0.286   8.793 -1.6524 -1.0424  1.1100
48201SOL     OW49159   6.441  11.891   6.683  0.2744 -0.7113  0.1308
48201SOL    HW149160   6.360  11.910   6.731 -0.3938 -0.7241 -0.9668
48201SOL    HW249161   6.412  11.843   6.605  1.4912 -2.1435  0.5085
48202SOL     OW49162   8.013   9.060   1.206 -0.4483 -0.1378 -0.1650
48202SOL    HW149163   7.978   9.146   1.232 -0.5081  0.1493 -1.1485
48202SOL    HW249164   8.100   9.080   1.171 -0.6609 -0.4157 -0.8593
48203SOL     OW49165   0.811  11.204   1.172 -0.0427 -0.2758 -0.3251
48203SOL    HW149166   0.857  11.161   1.245  1.3165  0.0933 -0.9240
48203SOL    HW249167   0.879  11.256   1.129 -1.3434  1.3708 -0.4730
48204SOL     OW49168   6.989   4.114   2.921  0.0235  0.0037 -0.5451
48204SOL    HW149169   7.014   4.133   2.831 -0.1215  0.4157 -0.4997
48204SOL    HW249170   6.929   4.040   2.915 -2.9005  2.2327 -1.1433
48205SOL     OW49171   4.432   7.341   1.498  0.4873  0.6757  0.2001
48205SOL    HW149172   4.351   7.389   1.480  0.7070  2.0009  2.4299
48205SOL    HW249173   4.404   7.267   1.552  0.6280  0.4714 -0.0051
48206SOL     OW49174   9.548   8.554   9.658  0.1126  0.3456  0.2554
48206SOL    HW149175   9.568   8.463   9.638 -1.1329 -0.3123  1.7147
48206SOL    HW249176   9.458   8.551   9.693  0.1550  2.0802  0.6049
48207SOL     OW49177   1.261   9.964   0.917  0.4044 -0.5386 -0.1100
48207SOL    HW149178   1.254  10.057   0.895 -0.3921  0.0724  2.4108
48207SOL    HW249179   1.321   9.929   0.851  0.8117  1.7625 -1.0860
48208SOL     OW49180   7.925   7.207   8.102  0.1211 -0.6038 -0.4829
48208SOL    HW149181   7.973   7.266   8.044 -0.3886  0.9980  0.6495
48208SOL    HW249182   7.978   7.204   8.182 -1.0406  0.2405  0.3405
48209SOL     OW49183   5.824  10.873   1.064  0.0192 -0.5127  0.0196
48209SOL    HW149184   5.905  10.841   1.023 -0.2103 -0.3555 -0.5725
48209SOL    HW249185   5.792  10.798   1.115  0.3691 -0.6790  0.0024
48210SOL     OW49186   7.573   4.622   6.881 -0.4695  0.2883 -0.0375
48210SOL    HW149187   7.515   4.660   6.816  0.2514 -0.8159 -1.3747
48210SOL    HW249188   7.580   4.689   6.949 -0.6225  1.8053 -1.4541
48211SOL     OW49189   1.171   1.593   6.390  0.0229  0.2002  0.3889
48211SOL    HW149190   1.108   1.604   6.462  0.5465  0.4889  0.8046
48211SOL    HW249191   1.241   1.540   6.427 -0.4362 -0.9613 -0.3699
48212SOL     OW49192   0.902  10.814  11.005  0.3314  0.6991  0.3908
48212SOL    HW149193   0.819  10.798  10.960  0.9873 -1.2608 -0.2105
48212SOL    HW249194   0.925  10.730  11.044  0.9991  1.7394  2.3798
48213SOL     OW49195  10.747   4.833  11.161  0.0131 -0.0697  0.4047
48213SOL    HW149196  10.728   4.922  11.188  2.7529  0.3150  1.3153
48213SOL    HW249197  10.802   4.843  11.083 -0.2392 -1.0026  0.0910
48214SOL     OW49198   2.682   8.387   3.772  0.0838 -0.5204  0.0346
48214SOL    HW149199   2.600   8.435   3.786  0.2900 -0.4001  0.9243
48214SOL    HW249200   2.710   8.412   3.684 -0.8376 -0.5734 -0.2832
48215SOL     OW49201   7.765   7.144   9.585  0.2443 -0.2445 -0.1531
48215SOL    HW149202   7.816   7.076   9.628 -0.5040 -1.9959 -1.9181
48215SOL    HW249203   7.818   7.170   9.510 -0.1818  0.0085 -0.3713
48216SOL     OW49204   4.568   3.249   6.135 -0.7523  0.2203 -0.2764
48216SOL    HW149205   4.575   3.165   6.180 -2.2318  0.4009  0.3757
48216SOL    HW249206   4.504   3.298   6.187 -0.7123  1.3561 -1.2505
48217SOL     OW49207   9.011  11.430   0.701  0.2697  0.9199  0.2412
48217SOL    HW149208   8.954  11.505   0.716  0.7040  1.3879 -0.4021
48217SOL    HW249209   9.099  11.468   0.692  0.7310  0.1910  1.4354
48218SOL     OW49210   0.702  11.545   3.190  0.0308 -0.1635  0.4370
48218SOL    HW149211   0.713  11.629   3.234  0.3936  0.5792 -1.0083
48218SOL    HW249212   0.657  11.490   3.254  1.5297  0.4925  2.1570
48219SOL     OW49213   8.170   8.620  10.643  0.1108  0.1758 -0.1042
48219SOL    HW149214   8.114   8.655  10.573 -2.2850  0.0234  1.6311
48219SOL    HW249215   8.164   8.525  10.633 -0.7055  0.1421  0.6253
48220SOL     OW49216  11.659   5.524   8.573 -0.3485  0.0371  0.0474
48220SOL    HW149217  11.724   5.594   8.582  1.0674 -1.2307  0.2166
48220SOL    HW249218  11.658   5.504   8.480  0.7004 -0.9864  0.2339
48221SOL     OW49219   4.028   0.340   9.957 -0.4148  0.0423 -0.6159
48221SOL    HW149220   4.004   0.345  10.049  0.7956  0.4745 -0.3073
48221SOL    HW249221   4.078   0.420   9.940 -1.7294  0.6303 -1.9966
48222SOL     OW49222   8.767   9.148   7.666  0.2695  0.2072  0.3907
48222SOL    HW149223   8.798   9.195   7.743  0.2569  0.4966  0.2203
48222SOL    HW249224   8.841   9.093   7.639  0.8920  1.4163 -0.4362
48223SOL     OW49225   9.646   3.933   1.961 -0.0850 -0.1848 -0.3177
48223SOL    HW149226   9.715   3.867   1.958 -0.3016 -0.3879 -1.1344
48223SOL    HW249227   9.582   3.903   1.896  0.1357  1.1974 -1.1993
48224SOL     OW49228  10.325   5.874   6.845 -0.9658  0.6634 -0.4070
48224SOL    HW149229  10.302   5.873   6.752  0.3055 -1.1315 -0.7552
48224SOL    HW249230  10.242   5.861   6.890 -1.6295  1.7472 -1.2682
48225SOL     OW49231   2.848   8.653   8.373 -0.0309  0.0288 -0.4306
48225SOL    HW149232   2.840   8.570   8.327  0.5053  0.1226 -0.7054
48225SOL    HW249233   2.863   8.628   8.464  0.0284 -0.1743 -0.4953
48226SOL     OW49234   1.571   7.932  11.416 -0.2284  0.6950 -0.2908
48226SOL    HW149235   1.521   7.859  11.452 -0.1661 -0.9135 -3.1297
48226SOL    HW249236   1.509   7.979  11.361  0.1528  1.7821  0.1933
48227SOL     OW49237   2.228   0.556   7.652 -0.7231  0.6023  0.4892
48227SOL    HW149238   2.228   0.640   7.606  0.7996  1.3410  1.7497
48227SOL    HW249239   2.160   0.566   7.720 -1.2582  0.4164 -0.0106
48228SOL     OW49240  11.146   1.278  10.346 -0.1774 -0.0497 -0.0485
48228SOL    HW149241  11.101   1.283  10.261 -1.4300 -0.7245  0.5332
48228SOL    HW249242  11.148   1.368  10.377  0.7741  0.2769 -1.0253
48229SOL     OW49243   0.525   2.304   2.186  0.2372  0.2669  0.1562
48229SOL    HW149244   0.559   2.254   2.112  2.0185 -0.5079  1.4321
48229SOL    HW249245   0.603   2.338   2.230 -0.7077 -0.1302  2.2318
48230SOL     OW49246   8.007   9.260  10.258 -0.2741 -0.0819  0.2697
48230SOL    HW149247   7.955   9.290  10.183  1.0519 -0.1214 -0.6913
48230SOL    HW249248   8.088   9.312  10.253  0.4007 -1.0580  0.8701
48231SOL     OW49249  10.522   0.223  10.725  0.3393  0.4466  0.0951
48231SOL    HW149250  10.614   0.197  10.726  0.2209 -0.0740 -0.8335
48231SOL    HW249251  10.476   0.151  10.770 -0.1079 -1.6515 -3.3327
48232SOL     OW49252  10.804   3.929   0.328 -0.0145  0.0265  0.1698
48232SOL    HW149253  10.823   4.017   0.294  0.7890 -0.4339 -0.6078
48232SOL    HW249254  10.840   3.870   0.263 -4.8949 -1.0431 -2.0041
48233SOL     OW49255   5.347   3.078   1.489  0.5978  1.0274  0.0636
48233SOL    HW149256   5.322   3.161   1.449 -0.0266  0.9229  0.2276
48233SOL    HW249257   5.433   3.058   1.452 -0.7101  0.0083 -2.6624
48234SOL     OW49258   8.348   0.365   4.859  0.1836  0.4162  0.1467
48234SOL    HW149259   8.268   0.358   4.910  0.3914 -0.3276  0.3803
48234SOL    HW249260   8.372   0.458   4.864 -1.1379  0.8242 -0.6709
48235SOL     OW49261   3.998   1.094   9.210 -0.6534 -0.4577 -0.4593
48235SOL    HW149262   3.934   1.082   9.140 -0.1883  0.0498 -0.9851
48235SOL    HW249263   3.953   1.065   9.289 -0.7343 -2.3073 -1.1381
48236SOL     OW49264  11.974   2.274  11.686 -0.2912  0.4995  0.3303
48236SOL    HW149265  11.887   2.243  11.710 -0.2570 -0.3176 -0.5285
48236SOL    HW249266  12.019   2.287  11.769 -0.5646 -1.0618  0.7485
48237SOL     OW49267   2.574   1.650  10.206  0.5239 -0.6692 -0.0153
48237SOL    HW149268   2.642   1.635  10.271  0.4592  0.9481  0.4693
48237SOL    HW249269   2.492   1.640  10.254  0.4767  0.6162  0.1996
48238SOL     OW49270   5.209   4.043   0.097 -0.0815 -0.4546  0.4122
48238SOL    HW149271   5.244   4.129   0.118 -0.2794 -0.1667 -0.4170
48238SOL    HW249272   5.243   3.986   0.166  1.6965 -0.1027 -0.1237
48239SOL     OW49273   4.345  11.429   0.849 -0.4841 -0.0686  0.6672
48239SOL    HW149274   4.256  11.434   0.813 -0.8289  1.0808  1.6103
48239SOL    HW249275   4.397  11.388   0.780 -1.4074  0.8056 -0.5925
48240SOL     OW49276   9.992  10.389  10.894  0.0656  0.1526 -0.2316
48240SOL    HW149277   9.929  10.462  10.897  1.1717  1.1173  0.3129
48240SOL    HW249278  10.015  10.382  10.801 -0.0377  0.5083 -0.2883
48241SOL     OW49279   7.600   7.692   5.026 -0.1069 -0.1445  0.8636
48241SOL    HW149280   7.651   7.772   5.017  0.1017 -0.1720  1.6938
48241SOL    HW249281   7.664   7.624   5.048 -0.3244 -0.4667  0.5261
48242SOL     OW49282   4.015   6.242   9.514 -0.2946  0.1832 -0.1047
48242SOL    HW149283   4.085   6.192   9.557  0.3100  1.0629 -0.0264
48242SOL    HW249284   3.962   6.177   9.470  0.1943 -0.5686  0.3999
48243SOL     OW49285   5.191  12.020   9.556 -0.0744 -0.4520 -0.2496
48243SOL    HW149286   5.097  12.030   9.575  0.1567  0.3744  0.5089
48243SOL    HW249287   5.234  12.029   9.640  0.7011 -0.7567 -0.6061
48244SOL     OW49288   6.930   6.819   9.550  0.3963  0.2453 -0.1661
48244SOL    HW149289   7.000   6.757   9.534  0.2928 -0.4497  1.8341
48244SOL    HW249290   6.850   6.768   9.537  0.2901  0.3883 -0.0748
48245SOL     OW49291  11.103  11.338   7.942  0.0697  0.6273 -0.2559
48245SOL    HW149292  11.019  11.293   7.945  0.3474  0.1474  1.2962
48245SOL    HW249293  11.080  11.431   7.942 -0.4953  0.5198  1.0632
48246SOL     OW49294   9.602   5.049   0.415  0.3354 -0.0378 -0.3160
48246SOL    HW149295   9.635   5.079   0.331 -0.7980  1.7560 -0.1797
48246SOL    HW249296   9.531   4.989   0.393  0.5101 -0.1236 -0.6468
48247SOL     OW49297   4.404   4.361   1.488  0.0422 -0.3805 -0.3973
48247SOL    HW149298   4.421   4.360   1.393 -1.3746  0.9973 -0.7001
48247SOL    HW249299   4.451   4.439   1.520  1.6864 -1.6030  0.3210
48248SOL     OW49300   9.646   2.153  10.661  0.4658 -0.0282  0.9321
48248SOL    HW149301   9.600   2.075  10.631  0.0466  0.6048 -0.1193
48248SOL    HW249302   9.635   2.153  10.756 -1.5127 -0.0325  0.7454
48249SOL     OW49303   1.532   2.040  10.624  0.2783  0.7136  0.3945
48249SOL    HW149304   1.445   2.074  10.607 -0.0107  1.2448  2.7024
48249SOL    HW249305   1.520   1.972  10.690  1.5776  0.7382  0.6970
48250SOL     OW49306   4.487   9.702   0.346 -0.4686 -0.4578  0.1359
48250SOL    HW149307   4.492   9.759   0.269  0.3397 -1.3294 -0.4897
48250SOL    HW249308   4.394   9.682   0.355 -0.7169  0.6002  0.1182
48251SOL     OW49309   6.175   0.630  10.007  0.0605 -0.1555 -0.2940
48251SOL    HW149310   6.079   0.635  10.008 -0.0066 -1.1819 -0.7361
48251SOL    HW249311   6.194   0.537  10.020  1.0103  0.0839  0.0899
48252SOL     OW49312  11.901  12.005   8.104 -0.3142  0.7137 -0.4583
48252SOL    HW149313  11.907  11.921   8.149  1.5435  0.8469 -0.3832
48252SOL    HW249314  11.980  12.051   8.129 -2.1760  3.3441  1.0818
48253SOL     OW49315   4.744  11.248   4.844 -0.4609  0.0268 -0.0709
48253SOL    HW149316   4.821  11.229   4.792 -0.9368 -2.5528  0.0670
48253SOL    HW249317   4.687  11.297   4.786  0.9505  1.3744 -0.3879
48254SOL     OW49318   7.930   9.651   3.237 -0.5399  0.0181  0.4248
48254SOL    HW149319   7.885   9.675   3.156  0.5683  1.0126  0.0847
48254SOL    HW249320   7.900   9.562   3.255 -2.1338  0.3979 -0.1338
48255SOL     OW49321   8.736   8.402   8.061 -0.0993  0.5297 -0.4169
48255SOL    HW149322   8.666   8.447   8.107 -0.1961 -0.3621  0.3562
48255SOL    HW249323   8.817   8.438   8.099 -0.1710  0.2430  0.0120
48256SOL     OW49324   6.762   9.496   8.897 -0.0855 -0.0772  0.3451
48256SOL    HW149325   6.737   9.579   8.858 -2.2891 -1.1851 -0.8145
48256SOL    HW249326   6.827   9.460   8.837  1.0753  0.8823  0.9931
48257SOL     OW49327   8.170  11.209   7.689 -0.1013 -0.8645 -0.0363
48257SOL    HW149328   8.141  11.132   7.738  0.8632  0.2121  2.3860
48257SOL    HW249329   8.090  11.260   7.676 -0.5419 -1.6600 -0.5181
48258SOL     OW49330   6.232  10.756   4.985 -0.0550  0.0737 -0.9433
48258SOL    HW149331   6.289  10.688   5.021  0.6231  1.1955  0.1878
48258SOL    HW249332   6.153  10.752   5.038 -0.7930 -1.0348 -2.0787
48259SOL     OW49333  10.956   2.021   6.904  0.3566 -0.0237 -0.1126
48259SOL    HW149334  11.025   1.999   6.841 -0.6310 -0.7070 -1.0045
48259SOL    HW249335  10.949   2.116   6.899  1.1587  0.0415 -0.0889
48260SOL     OW49336   5.035   0.574   6.755 -0.3339  0.0987 -0.0382
48260SOL    HW149337   4.975   0.630   6.706  1.2420  0.2725 -1.9143
48260SOL    HW249338   5.088   0.635   6.806 -1.4008 -0.0292  1.2882
48261SOL     OW49339   0.713   4.965   5.222  0.4287 -0.2340 -0.3330
48261SOL    HW149340   0.676   5.052   5.239 -0.2305 -0.4767 -0.5161
48261SOL    HW249341   0.805   4.982   5.202  0.6833  0.2851  1.1213
48262SOL     OW49342   8.047   0.100   8.068  0.1553 -0.0254  0.1183
48262SOL    HW149343   8.092   0.149   8.137 -0.3114  0.9463 -0.2341
48262SOL    HW249344   8.098   0.021   8.057  2.1479  1.2910 -0.6671
48263SOL     OW49345   8.683   5.976  10.109 -0.5701  0.0761  0.0714
48263SOL    HW149346   8.591   5.959  10.130 -1.2126  0.8408 -1.8782
48263SOL    HW249347   8.681   6.056  10.056  1.3104  0.4838  0.5190
48264SOL     OW49348   0.543   5.471   7.070 -0.2481  0.9366  0.4861
48264SOL    HW149349   0.534   5.546   7.011  2.9755  0.8523 -0.2754
48264SOL    HW249350   0.508   5.397   7.021  1.5149  1.0362 -1.0153
48265SOL     OW49351   0.818   1.035   7.645 -0.3971 -0.1116 -0.2580
48265SOL    HW149352   0.904   0.997   7.626 -0.3802  0.2885 -1.0236
48265SOL    HW249353   0.825   1.125   7.616 -0.7710  0.2023  0.5997
48266SOL     OW49354   8.866  10.879   6.020  0.0058 -0.2686  0.3294
48266SOL    HW149355   8.860  10.790   5.986  0.5846  0.1319 -0.9038
48266SOL    HW249356   8.811  10.930   5.961  2.2280  0.7031 -1.0389
48267SOL     OW49357   5.615   3.961   7.458 -0.9047 -0.0238  0.3313
48267SOL    HW149358   5.545   3.999   7.510 -1.8229 -0.4813 -0.5432
48267SOL    HW249359   5.579   3.954   7.369 -0.2577 -1.5541  0.1593
48268SOL     OW49360   0.958   0.564   4.672  0.1155  0.5811 -0.3320
48268SOL    HW149361   1.042   0.521   4.659 -0.4210 -0.4765 -0.3717
48268SOL    HW249362   0.966   0.647   4.624  1.9236  1.5519  1.5041
48269SOL     OW49363   2.770   3.408   1.471  0.0651 -0.0600  0.2823
48269SOL    HW149364   2.702   3.454   1.422 -0.1429  0.7230  1.2680
48269SOL    HW249365   2.801   3.340   1.412  0.4245  1.3864 -1.2497
48270SOL     OW49366   5.241   7.450   0.782 -0.8750  0.7626  0.4706
48270SOL    HW149367   5.200   7.389   0.844  2.3886 -2.4547 -0.1637
48270SOL    HW249368   5.326   7.470   0.821  0.8344 -0.4869 -2.2708
48271SOL     OW49369   7.838   4.859   9.948  0.2920  0.4446  0.1824
48271SOL    HW149370   7.778   4.786   9.963  0.1719  0.3379 -0.7852
48271SOL    HW249371   7.780   4.935   9.935  0.4200  0.9099  1.9933
48272SOL     OW49372   7.937   7.715   9.448  0.6248  0.1485  0.6657
48272SOL    HW149373   7.860   7.718   9.392 -0.3892 -1.2574  1.8978
48272SOL    HW249374   8.009   7.740   9.391 -0.0600 -2.9133 -1.8138
48273SOL     OW49375   6.791  11.446   4.412 -0.3251  0.2604 -0.3171
48273SOL    HW149376   6.844  11.411   4.340  1.7419  0.2375  1.1342
48273SOL    HW249377   6.791  11.541   4.397  2.2658  0.5408  0.9318
48274SOL     OW49378   0.922  11.378   8.716 -0.6632 -0.3395  0.3622
48274SOL    HW149379   0.899  11.334   8.634  1.5278 -1.2689  0.1727
48274SOL    HW249380   0.897  11.469   8.703 -0.4915 -0.5061 -1.2705
48275SOL     OW49381   8.440   0.587   4.479 -0.0074  0.3926  0.1146
48275SOL    HW149382   8.463   0.638   4.558  0.2711 -0.3315  0.5066
48275SOL    HW249383   8.422   0.499   4.512 -1.4265  0.4459 -0.4343
48276SOL     OW49384   6.556  11.768   0.941 -0.2856 -0.0124 -0.1759
48276SOL    HW149385   6.499  11.750   1.016  1.4507  0.7816  1.4389
48276SOL    HW249386   6.521  11.849   0.903  0.4925  1.2429  1.6433
48277SOL     OW49387   5.070  11.302   2.765  0.0530 -0.2267  0.0392
48277SOL    HW149388   5.015  11.256   2.701 -0.0257 -3.3122  2.1194
48277SOL    HW249389   5.009  11.361   2.810 -0.5032 -0.2179 -0.6975
48278SOL     OW49390   9.503   9.968   2.639  0.2568 -0.1695  0.0827
48278SOL    HW149391   9.577   9.908   2.638 -1.0625 -1.9591  1.4567
48278SOL    HW249392   9.426   9.911   2.631 -1.0987  1.2536  2.0586
48279SOL     OW49393   9.268   9.798   6.947 -0.0439 -0.1702  0.0115
48279SOL    HW149394   9.297   9.889   6.942 -0.2139 -0.1489 -0.5794
48279SOL    HW249395   9.331   9.756   7.005 -0.8290  0.6708  1.5439
48280SOL     OW49396   6.901   2.735   5.460 -0.0250 -0.1984  0.7804
48280SOL    HW149397   6.972   2.707   5.403 -0.5886 -2.2304  1.0261
48280SOL    HW249398   6.940   2.805   5.513  1.1707  0.1416 -0.4864
48281SOL     OW49399   6.814   7.224  11.014 -0.0772 -0.7291 -0.4987
48281SOL    HW149400   6.858   7.307  11.000 -1.9451  0.3337 -0.4698
48281SOL    HW249401   6.750   7.219  10.942 -1.7534 -0.8482  0.9343
48282SOL     OW49402   2.645   1.463   6.651 -0.3726  0.3310 -0.1222
48282SOL    HW149403   2.622   1.551   6.680  2.6475  0.5084  2.1528
48282SOL    HW249404   2.713   1.475   6.585  1.0491 -0.2549  1.1842
48283SOL     OW49405   5.031   4.346   7.026 -0.0855  0.5732 -0.2625
48283SOL    HW149406   4.951   4.315   7.069 -0.7431  2.2921 -0.1615
48283SOL    HW249407   5.059   4.273   6.971 -1.1942 -0.3944  0.4068
48284SOL     OW49408   2.849   9.905   8.707 -0.1256 -0.0463 -0.1842
48284SOL    HW149409   2.920   9.966   8.725 -0.1467  0.3863 -1.4390
48284SOL    HW249410   2.769   9.957   8.715 -0.3452 -0.5803  1.4279
48285SOL     OW49411   7.464  11.300   7.857  0.2492 -0.4722 -0.5545
48285SOL    HW149412   7.453  11.274   7.766  1.2647 -1.1871 -0.5054
48285SOL    HW249413   7.521  11.377   7.854 -0.2323 -0.1158 -0.5540
48286SOL     OW49414   0.061   2.373   1.890  0.0501  0.1216 -0.1868
48286SOL    HW149415  -0.009   2.432   1.862  1.0383  0.5380 -1.9438
48286SOL    HW249416   0.091   2.410   1.974 -1.4710  0.2152  0.3408
48287SOL     OW49417  10.666   8.107   0.755  0.4419  0.1829  0.1375
48287SOL    HW149418  10.595   8.051   0.786  0.4390  0.4108  0.5545
48287SOL    HW249419  10.745   8.054   0.766  0.5354  0.5285  1.2725
48288SOL     OW49420   9.156   6.827  11.727 -0.6710  0.0961 -0.1310
48288SOL    HW149421   9.100   6.775  11.669 -0.9003  2.0772 -1.7867
48288SOL    HW249422   9.105   6.906  11.745  0.1470  0.3205  1.3313
48289SOL     OW49423   0.576  11.865   8.421  0.9935 -0.2866  0.1918
48289SOL    HW149424   0.632  11.916   8.363 -0.3087  1.1364  0.0942
48289SOL    HW249425   0.566  11.920   8.498  0.0211 -0.6472  0.3388
48290SOL     OW49426   8.953   1.577   2.846 -0.5284  0.6929  0.2361
48290SOL    HW149427   8.861   1.586   2.822 -0.5643 -0.0658  0.0895
48290SOL    HW249428   9.001   1.619   2.774 -0.6415 -1.3370 -1.0950
48291SOL     OW49429   5.411   4.910   9.851  0.1103  0.3711 -0.4626
48291SOL    HW149430   5.471   4.985   9.842 -1.6938  1.9519  0.0189
48291SOL    HW249431   5.326   4.950   9.866 -1.1720 -1.7986 -1.5533
48292SOL     OW49432   8.836   0.484   1.325 -0.2314  0.2458 -0.0137
48292SOL    HW149433   8.740   0.489   1.323 -0.2728 -0.4104  0.1869
48292SOL    HW249434   8.855   0.390   1.327  0.4175  0.3750  0.0103
48293SOL     OW49435   4.659   8.004   0.597 -0.0666 -0.3165 -0.1100
48293SOL    HW149436   4.734   7.961   0.639  0.7328  1.0758 -0.0407
48293SOL    HW249437   4.695   8.038   0.515 -0.5411  0.5704  0.0370
48294SOL     OW49438   0.921   6.607   1.154 -0.2963 -0.8088  0.3332
48294SOL    HW149439   0.940   6.519   1.185 -0.0115 -0.7863  0.2216
48294SOL    HW249440   1.006   6.650   1.150 -0.3805 -0.6751 -0.0593
48295SOL     OW49441   2.907   8.877  10.382  0.2367  0.6799 -0.1384
48295SOL    HW149442   2.821   8.854  10.419 -0.0419 -0.4744 -1.4275
48295SOL    HW249443   2.895   8.871  10.288  2.0781 -0.9354 -0.3389
48296SOL     OW49444   7.380   3.589   5.429  0.4761 -0.2264  0.2874
48296SOL    HW149445   7.453   3.590   5.490 -0.8282  0.3468  1.9260
48296SOL    HW249446   7.341   3.502   5.440  0.0896 -0.0327  0.4612
48297SOL     OW49447   2.674   7.439  11.414  0.0026 -0.0196  0.3519
48297SOL    HW149448   2.642   7.428  11.504 -1.7054  0.6464 -0.1374
48297SOL    HW249449   2.644   7.526  11.389 -1.8497 -1.1801 -1.7649
48298SOL     OW49450   7.140   6.444   4.292 -0.0080  0.2079  0.4946
48298SOL    HW149451   7.150   6.492   4.209 -0.0256  0.1169  0.4390
48298SOL    HW249452   7.048   6.454   4.315  0.4280  2.0133  1.5970
48299SOL     OW49453  10.014   6.767   2.767 -0.1807 -0.1574 -0.2634
48299SOL    HW149454   9.926   6.768   2.729 -0.0031 -0.6054 -0.6952
48299SOL    HW249455  10.019   6.684   2.814  0.0533 -0.1871 -0.3408
48300SOL     OW49456   5.770   5.226   6.672  0.2678  0.1493  0.0088
48300SOL    HW149457   5.748   5.311   6.710  2.9317  0.4682  1.0694
48300SOL    HW249458   5.785   5.170   6.748  3.2867  0.1297 -0.4806
48301SOL     OW49459  10.560   4.252   9.165  0.5628  0.1033 -0.5670
48301SOL    HW149460  10.485   4.312   9.157  1.4585  1.1337 -1.4693
48301SOL    HW249461  10.592   4.266   9.254 -0.9980 -1.2172  0.2642
48302SOL     OW49462  10.931   0.418   4.992  0.3167 -0.3458  0.1333
48302SOL    HW149463  11.019   0.435   5.024  0.6775 -1.2966 -0.3412
48302SOL    HW249464  10.943   0.362   4.916 -0.7085 -0.7064  0.2212
48303SOL     OW49465   9.129   5.316   1.462  0.2949 -0.2365  0.0850
48303SOL    HW149466   9.176   5.288   1.383  1.0822  1.1233  0.0401
48303SOL    HW249467   9.051   5.360   1.429  0.4874  0.0968  0.0761
48304SOL     OW49468   1.797  10.541   5.278 -0.2352  0.3803  0.2154
48304SOL    HW149469   1.853  10.549   5.200 -1.2119 -0.6268 -0.6167
48304SOL    HW249470   1.814  10.622   5.327 -0.0152  1.3177 -1.3127
48305SOL     OW49471   7.191   5.457   0.797  0.0555 -0.8291 -0.2057
48305SOL    HW149472   7.191   5.496   0.884  0.6554  0.2102 -0.6569
48305SOL    HW249473   7.098   5.447   0.775 -0.1091  0.2195 -0.0206
48306SOL     OW49474   2.061   1.739  10.278 -0.0480 -0.1734  0.0169
48306SOL    HW149475   2.012   1.809  10.233 -1.2361 -0.5895  0.6176
48306SOL    HW249476   2.122   1.785  10.334  0.3332  0.3677 -0.8153
48307SOL     OW49477   7.659  10.884   8.894 -0.5974  0.2618 -0.5678
48307SOL    HW149478   7.688  10.819   8.958  0.0724  1.9861  0.9918
48307SOL    HW249479   7.566  10.895   8.911 -0.6057  0.0764 -0.4941
48308SOL     OW49480   2.023   0.358   5.067  0.6603  0.1658 -0.3324
48308SOL    HW149481   1.992   0.430   5.013  2.9766  0.6829 -1.0808
48308SOL    HW249482   1.968   0.361   5.145 -0.3769  1.6948 -1.0762
48309SOL     OW49483   2.341   4.867   9.175  0.2754  0.5472  0.2371
48309SOL    HW149484   2.385   4.859   9.090 -1.5240 -1.8632 -0.5622
48309SOL    HW249485   2.363   4.785   9.221 -0.0070  1.1549  1.4999
48310SOL     OW49486   0.936   1.907   3.001  0.5277 -0.0981 -0.0731
48310SOL    HW149487   0.885   1.881   2.924 -0.2478 -0.8157  0.6634
48310SOL    HW249488   0.909   1.845   3.069  0.3886  1.1981  1.0806
48311SOL     OW49489  11.140   5.111   7.401 -0.2006 -0.1874 -0.0578
48311SOL    HW149490  11.057   5.066   7.393 -0.4835 -0.3517  2.8135
48311SOL    HW249491  11.194   5.054   7.455  0.5997  1.3877  0.8886
48312SOL     OW49492   3.483  10.276   8.524 -0.8315  0.3614 -0.3640
48312SOL    HW149493   3.535  10.352   8.547  1.0763 -1.2052  0.7734
48312SOL    HW249494   3.491  10.217   8.598  0.1550 -2.1504 -2.3143
48313SOL     OW49495  11.663   2.797   0.632 -0.3581  0.3368 -0.0659
48313SOL    HW149496  11.716   2.718   0.624  0.8602  1.1218 -0.1224
48313SOL    HW249497  11.713   2.854   0.690 -1.0890  1.1539 -0.2105
48314SOL     OW49498   0.059   2.148   1.273  0.1090 -0.4298 -0.3143
48314SOL    HW149499   0.063   2.190   1.359  0.1021 -1.3675  0.1518
48314SOL    HW249500   0.042   2.056   1.291  3.3539 -1.3182 -1.1250
48315SOL     OW49501   4.841  11.773   2.905  0.2014 -0.4205  0.5947
48315SOL    HW149502   4.870  11.807   2.821  0.2291 -0.2884  0.6583
48315SOL    HW249503   4.765  11.719   2.884  0.6054 -0.9232  0.4020
48316SOL     OW49504   5.292  11.356   8.320  0.3097  0.1832 -0.5545
48316SOL    HW149505   5.225  11.408   8.365 -0.4922 -1.4588  0.2533
48316SOL    HW249506   5.358  11.339   8.386  0.6623  0.3261 -0.8676
48317SOL     OW49507   7.427   8.935  11.643  0.0349 -0.4773  0.0834
48317SOL    HW149508   7.400   8.848  11.612 -0.0940 -1.1255  1.9323
48317SOL    HW249509   7.418   8.931  11.738  1.3407  1.1302  0.3164
48318SOL     OW49510   0.411   8.579   9.327 -0.5452  0.3547 -0.6589
48318SOL    HW149511   0.476   8.636   9.368  0.5721 -0.9936 -0.5071
48318SOL    HW249512   0.360   8.545   9.400  0.0128 -0.3020 -0.5634
48319SOL     OW49513   3.606   8.406   9.344 -0.0051 -0.3996  0.2970
48319SOL    HW149514   3.682   8.465   9.344  0.4066 -0.8905 -0.9126
48319SOL    HW249515   3.597   8.380   9.252 -1.7446 -0.2241  0.3854
48320SOL     OW49516   0.603   0.023   9.535 -0.0824 -0.2762 -0.1644
48320SOL    HW149517   0.655   0.015   9.455  0.6857 -0.3106  0.3290
48320SOL    HW249518   0.541   0.094   9.517  1.1235  0.7841 -0.2362
48321SOL     OW49519   7.992   9.017  10.384 -0.3765  0.0123  0.0807
48321SOL    HW149520   7.968   8.957  10.314  0.2294 -1.3763  1.0270
48321SOL    HW249521   8.035   9.090  10.339 -2.0932  0.3088 -1.1822
48322SOL     OW49522  10.244  10.204   8.369  0.0702 -0.1750  0.1462
48322SOL    HW149523  10.269  10.285   8.414 -1.1005 -0.0793  0.6586
48322SOL    HW249524  10.276  10.134   8.427 -1.9039 -0.0545  1.4794
48323SOL     OW49525   7.425   9.989   0.711  0.6259  0.2530 -0.0885
48323SOL    HW149526   7.441  10.084   0.717  2.5317 -0.0483  0.2607
48323SOL    HW249527   7.424   9.960   0.802  1.5818 -0.2791 -0.2414
48324SOL     OW49528   9.144   5.299   7.273  0.4724 -0.1623  0.4330
48324SOL    HW149529   9.056   5.318   7.305  1.0442 -0.2765  2.1734
48324SOL    HW249530   9.134   5.220   7.221 -0.3008 -0.8608  1.5952
48325SOL     OW49531   1.894   3.337   4.944  0.0495  0.7293 -0.5553
48325SOL    HW149532   1.801   3.352   4.926 -0.9427 -1.5671  1.8438
48325SOL    HW249533   1.898   3.244   4.967  3.2118  0.4632 -1.8113
48326SOL     OW49534   6.864   6.009   3.284  0.5263  0.3768  0.1366
48326SOL    HW149535   6.936   6.071   3.290  1.3539 -0.3477 -1.6448
48326SOL    HW249536   6.799   6.042   3.346  1.2448  2.5815 -0.1898
48327SOL     OW49537  10.988   0.392   1.773 -0.0305  0.0876 -0.5353
48327SOL    HW149538  11.006   0.337   1.697  0.9012 -0.3341 -0.0272
48327SOL    HW249539  10.893   0.408   1.770  0.3470  2.7351 -3.5778
48328SOL     OW49540   9.330  11.419   7.200  0.4904 -0.2080 -0.0352
48328SOL    HW149541   9.388  11.361   7.151 -1.2026 -2.7103  0.7631
48328SOL    HW249542   9.360  11.412   7.291 -0.5534 -0.9076  0.2646
48329SOL     OW49543   5.582  10.198   9.022 -0.1389 -0.2912  0.0454
48329SOL    HW149544   5.609  10.212   9.113 -0.7872  0.3787  0.1439
48329SOL    HW249545   5.506  10.255   9.011 -1.8708 -2.4869 -0.0642
48330SOL     OW49546   2.924   0.223   9.566  0.0372 -0.4435 -0.4085
48330SOL    HW149547   2.982   0.200   9.638 -1.5306  1.6058  1.6517
48330SOL    HW249548   2.977   0.280   9.510  0.4111  0.3739  0.7494
48331SOL     OW49549  10.551   0.469  11.871  0.2160  0.2142  0.4565
48331SOL    HW149550  10.503   0.533  11.817  0.1514 -0.2775 -0.0784
48331SOL    HW249551  10.635   0.512  11.890  0.4971  0.1561 -0.5730
48332SOL     OW49552   1.132   5.567   6.540 -0.8458  0.8757 -0.3769
48332SOL    HW149553   1.083   5.644   6.569  0.7146  1.8270 -0.1354
48332SOL    HW249554   1.166   5.592   6.453 -1.4049 -0.0499 -0.8708
48333SOL     OW49555   2.479   4.637   2.713 -0.6318 -0.7641  0.0370
48333SOL    HW149556   2.397   4.639   2.763 -0.8395 -0.1937 -0.3072
48333SOL    HW249557   2.473   4.557   2.662 -0.7709 -0.9577  0.3528
48334SOL     OW49558   8.710   6.739  11.766 -0.6503  0.3077 -0.5760
48334SOL    HW149559   8.749   6.772  11.847 -1.9992  0.9892 -0.1683
48334SOL    HW249560   8.705   6.644  11.778 -2.2498  0.5157  0.8489
48335SOL     OW49561   7.969   8.847   1.027 -0.0843 -0.8439  0.1306
48335SOL    HW149562   7.978   8.925   1.081  1.2373  0.0471 -1.3056
48335SOL    HW249563   7.996   8.775   1.084 -0.1921 -0.1285  1.1119
48336SOL     OW49564   1.063   5.257   4.199 -0.2881 -0.7397  0.2057
48336SOL    HW149565   1.069   5.235   4.292  1.8986 -1.2837  0.0045
48336SOL    HW249566   1.125   5.197   4.157 -1.4808 -0.7198 -1.6525
48337SOL     OW49567  11.161   8.384   1.000  0.2656 -0.1596 -0.5050
48337SOL    HW149568  11.096   8.349   0.940 -0.0218  0.4497 -0.5564
48337SOL    HW249569  11.151   8.479   0.994  1.3288 -0.0477 -0.6964
48338SOL     OW49570   8.782   2.135   8.939  0.4915 -0.3599  0.2848
48338SOL    HW149571   8.785   2.068   9.007 -1.3294 -2.1436 -1.2714
48338SOL    HW249572   8.694   2.173   8.947  0.4341 -0.2533 -0.7370
48339SOL     OW49573   9.049   3.003   1.529 -0.1505 -0.0984  0.3974
48339SOL    HW149574   9.068   2.983   1.621  1.1849 -0.5533  0.0588
48339SOL    HW249575   9.115   3.068   1.505 -0.1971 -0.3164 -0.3514
48340SOL     OW49576   3.077   2.222  11.393  0.5298  0.2675 -0.0075
48340SOL    HW149577   3.113   2.141  11.357  0.1800  0.3645 -0.5870
48340SOL    HW249578   3.004   2.193  11.448  1.1374  0.1112  0.7419
48341SOL     OW49579  10.402   2.130   8.960  0.4917  0.4630 -0.5920
48341SOL    HW149580  10.347   2.076   9.017 -1.0492  2.4098 -0.1420
48341SOL    HW249581  10.365   2.118   8.873  0.7838  0.0413 -0.6624
48342SOL     OW49582   3.916   2.412  10.608  0.2729 -0.4654  0.1103
48342SOL    HW149583   3.985   2.444  10.550  0.7941 -0.1397  0.8776
48342SOL    HW249584   3.842   2.469  10.592  0.6498  0.0795  0.2646
48343SOL     OW49585   8.759   3.097   4.897 -0.2045 -0.0621  0.3158
48343SOL    HW149586   8.752   3.153   4.820  0.4811 -0.0685  0.2383
48343SOL    HW249587   8.692   3.030   4.885  1.1153 -1.1756 -1.2088
48344SOL     OW49588   7.078   4.828   7.733  0.3064  0.3055  0.0241
48344SOL    HW149589   7.121   4.756   7.779  2.1959  0.6216 -1.1161
48344SOL    HW249590   7.091   4.808   7.640 -3.2258 -0.2216 -0.4708
48345SOL     OW49591   6.615   5.284  10.797  0.5119 -0.5789 -0.3573
48345SOL    HW149592   6.565   5.255  10.874 -0.0302  0.1397 -0.4240
48345SOL    HW249593   6.549   5.298  10.729  0.8867 -0.3264 -0.6736
48346SOL     OW49594   6.961   1.462   8.817 -0.1790 -0.0994  0.6552
48346SOL    HW149595   6.986   1.439   8.728  1.4722 -3.9093  1.8885
48346SOL    HW249596   6.999   1.548   8.831 -0.3276  0.5251 -2.1902
48347SOL     OW49597  11.884   7.972   8.114  0.2392  0.3346  0.4703
48347SOL    HW149598  11.813   8.013   8.163 -1.4391 -1.1790 -0.6048
48347SOL    HW249599  11.856   7.976   8.023  0.9794 -1.2948  0.1378
48348SOL     OW49600   5.832   0.401   5.766 -0.3670  0.1791 -0.0562
48348SOL    HW149601   5.763   0.421   5.829  0.6900 -1.8199  1.8356
48348SOL    HW249602   5.793   0.336   5.707 -0.4663 -0.0592  0.2732
48349SOL     OW49603   4.990   8.383   0.804  0.3303 -0.1201  0.5252
48349SOL    HW149604   4.997   8.478   0.813  0.8930 -0.1819  0.7433
48349SOL    HW249605   4.961   8.353   0.890 -1.7360  0.0290 -0.0727
48350SOL     OW49606  12.126  10.011  10.622  0.1447  0.1128 -0.5593
48350SOL    HW149607  12.180  10.080  10.659 -1.7348  0.9544  0.7241
48350SOL    HW249608  12.039  10.024  10.660 -0.6296 -2.0865 -1.3898
48351SOL     OW49609   1.987  11.324   1.088 -0.3103 -0.4876  0.4836
48351SOL    HW149610   1.911  11.371   1.122  0.1300  0.8067 -0.2819
48351SOL    HW249611   1.990  11.244   1.140 -0.4991  0.7572  2.4995
48352SOL     OW49612   8.547   8.739   5.020  0.2614  0.3259 -0.1489
48352SOL    HW149613   8.582   8.752   5.108  1.6460  1.7488 -0.8378
48352SOL    HW249614   8.531   8.645   5.014  0.3267  0.1733  1.5453
48353SOL     OW49615  10.650  10.333  11.532  0.2331 -0.3596 -0.2009
48353SOL    HW149616  10.578  10.296  11.585 -1.5010  0.9228 -1.5323
48353SOL    HW249617  10.610  10.408  11.487  1.7270 -1.0705 -2.9362
48354SOL     OW49618  10.677   3.904   4.831  0.0274  0.1201  0.0830
48354SOL    HW149619  10.743   3.952   4.779 -0.9691  1.7626  0.2578
48354SOL    HW249620  10.678   3.948   4.916  0.2700 -1.2966  0.8231
48355SOL     OW49621   2.083   9.517  10.870  0.1741 -0.5204  0.4542
48355SOL    HW149622   2.022   9.583  10.838  1.5162  0.9116  0.7149
48355SOL    HW249623   2.114   9.551  10.954  1.1194 -1.3383  0.4561
48356SOL     OW49624  10.857   2.393  10.492  0.6245  0.0840 -0.1723
48356SOL    HW149625  10.779   2.414  10.544 -0.5182 -0.3787 -1.6227
48356SOL    HW249626  10.925   2.377  10.557 -0.3894  0.8458  1.1417
48357SOL     OW49627   1.226   3.361   6.958 -0.1044 -0.1965  0.3972
48357SOL    HW149628   1.266   3.300   7.019 -0.2594 -1.1272 -0.4138
48357SOL    HW249629   1.172   3.419   7.013 -0.1756 -0.9594  1.1399
48358SOL     OW49630   5.300   6.992   6.372 -0.5836  0.6291 -0.3866
48358SOL    HW149631   5.347   6.962   6.450 -1.5293 -1.3921 -0.5403
48358SOL    HW249632   5.359   6.973   6.299 -0.6027  0.4422 -0.3542
48359SOL     OW49633   2.657  10.520   9.165 -0.5697 -0.3208 -0.2311
48359SOL    HW149634   2.627  10.593   9.218 -1.3542 -1.7090  1.3630
48359SOL    HW249635   2.604  10.524   9.086  0.2114  1.4679 -0.6915
48360SOL     OW49636   1.490   6.128   6.546  0.4014  0.0538 -0.4487
48360SOL    HW149637   1.569   6.074   6.534 -0.1947 -0.9904  0.1732
48360SOL    HW249638   1.497   6.159   6.637 -1.0258 -1.9543  0.3961
48361SOL     OW49639   0.453   5.692   6.853  0.2488  0.4971 -0.0028
48361SOL    HW149640   0.471   5.786   6.852 -0.7869  0.6991 -0.5051
48361SOL    HW249641   0.358   5.685   6.845  0.2815 -0.5905  0.3707
48362SOL     OW49642   2.000   0.685  11.076  0.0742 -0.3501  0.3454
48362SOL    HW149643   2.066   0.748  11.106 -0.2964  0.8135 -1.1873
48362SOL    HW249644   1.981   0.710  10.986 -1.7025 -1.3085  0.4006
48363SOL     OW49645   7.201   6.105   7.593  0.0235 -0.6896 -0.3235
48363SOL    HW149646   7.244   6.049   7.658 -0.8408 -1.5516 -0.4781
48363SOL    HW249647   7.190   6.048   7.516  1.8816  0.5566 -1.6127
48364SOL     OW49648   3.881   6.926   4.902 -0.2008  0.8654 -0.2582
48364SOL    HW149649   3.891   6.908   4.995  0.1966  1.0917 -0.2571
48364SOL    HW249650   3.786   6.923   4.887 -0.1939 -2.7027 -0.5528
48365SOL     OW49651  12.076   6.612   3.047 -0.0878  0.4668 -0.6091
48365SOL    HW149652  12.000   6.607   2.989  0.0816  0.8688 -0.8800
48365SOL    HW249653  12.149   6.628   2.988 -0.0075  1.5772 -0.2358
48366SOL     OW49654   3.751   5.395   9.727  0.1535 -0.3265  0.6490
48366SOL    HW149655   3.737   5.488   9.706 -0.1097 -0.5022  0.0464
48366SOL    HW249656   3.814   5.365   9.662 -0.1171 -0.6943  0.5567
48367SOL     OW49657   1.587  10.347   2.287  0.2039  0.2192  0.1124
48367SOL    HW149658   1.560  10.316   2.201  0.8825 -1.1898  0.3841
48367SOL    HW249659   1.655  10.413   2.268 -0.1500  0.4347 -0.4347
48368SOL     OW49660  11.371   5.865   0.630  0.1048 -0.3753 -0.8645
48368SOL    HW149661  11.374   5.809   0.553  0.3397 -0.6567 -0.6543
48368SOL    HW249662  11.380   5.805   0.704 -2.2530 -0.3893 -0.4854
48369SOL     OW49663   6.685   5.188   2.076  0.1817  0.5500  0.0189
48369SOL    HW149664   6.610   5.180   2.016 -0.2741  1.1536  0.4921
48369SOL    HW249665   6.647   5.222   2.157  0.7037 -0.7877  0.8551
48370SOL     OW49666   2.076   8.477   0.346  0.1316 -0.6358  0.1338
48370SOL    HW149667   2.026   8.414   0.294  0.2276 -1.8126  1.4079
48370SOL    HW249668   2.121   8.531   0.281 -0.4284 -1.4950 -1.0062
48371SOL     OW49669   1.333   7.517   2.500  0.1692  0.0935 -0.0721
48371SOL    HW149670   1.294   7.595   2.462 -1.7116 -0.3548  0.8341
48371SOL    HW249671   1.275   7.494   2.573  1.9032 -0.8840  1.0643
48372SOL     OW49672   9.523  11.724   0.294  0.4078  0.2730 -0.2841
48372SOL    HW149673   9.520  11.750   0.202 -0.1799 -1.5553 -0.8467
48372SOL    HW249674   9.553  11.633   0.291 -0.4188 -0.0879  1.2507
48373SOL     OW49675  11.610   1.679   2.069  0.1627 -0.4269  0.0198
48373SOL    HW149676  11.635   1.629   1.991 -0.1045 -1.4219  0.5514
48373SOL    HW249677  11.693   1.697   2.113  0.2672 -0.3042 -0.2221
48374SOL     OW49678  10.964   9.760  10.456  0.4028 -0.0995  0.2824
48374SOL    HW149679  11.005   9.756  10.543 -0.3408 -0.5817  0.6233
48374SOL    HW249680  10.871   9.745  10.473  0.1525  0.4558 -0.5357
48375SOL     OW49681   6.309   9.286   0.944  0.0417  0.1457  0.9437
48375SOL    HW149682   6.286   9.245   1.027  0.1531 -0.8094  0.5147
48375SOL    HW249683   6.285   9.221   0.877 -0.4216  1.0558  0.1963
48376SOL     OW49684   7.783  11.655   3.457  0.1768 -0.2756  0.0687
48376SOL    HW149685   7.711  11.675   3.516 -1.2144 -1.2464 -1.2343
48376SOL    HW249686   7.850  11.720   3.477 -1.4411  1.2669  0.6400
48377SOL     OW49687   7.692   5.047   7.021 -0.2866  0.2670 -0.2862
48377SOL    HW149688   7.640   5.110   6.971 -0.9756  0.1860  0.3135
48377SOL    HW249689   7.630   4.979   7.045 -0.0601  0.4833  0.9741
48378SOL     OW49690   7.766   2.384   7.112  0.0923 -0.3244  0.1240
48378SOL    HW149691   7.725   2.420   7.190 -0.2556  0.9370 -0.6050
48378SOL    HW249692   7.732   2.439   7.040  0.8402 -1.0836 -0.8346
48379SOL     OW49693   0.244   5.223   0.088 -0.2635 -0.6647 -0.0490
48379SOL    HW149694   0.320   5.180   0.126  0.1181  0.9308  1.1059
48379SOL    HW249695   0.198   5.154   0.040  2.3649 -1.5129 -1.5804
48380SOL     OW49696   6.792   8.557   3.961  0.0915  0.5563  0.2734
48380SOL    HW149697   6.702   8.556   3.994  0.6104 -1.4221  1.8162
48380SOL    HW249698   6.807   8.648   3.934 -1.6530  1.4073  1.9892
48381SOL     OW49699   9.882   7.083   0.505 -0.1742 -0.0212 -0.3070
48381SOL    HW149700   9.895   7.034   0.424 -1.1160 -1.2020  0.2219
48381SOL    HW249701   9.792   7.116   0.499 -0.0243  0.4564 -0.0277
48382SOL     OW49702   5.160   1.738   1.084  0.0508  0.2281  0.6985
48382SOL    HW149703   5.163   1.664   1.024 -0.2585 -0.4519  1.4997
48382SOL    HW249704   5.081   1.786   1.059 -0.4296 -0.4090  0.9533
48383SOL     OW49705  11.801   3.306  11.399 -0.9300 -0.1069 -0.4866
48383SOL    HW149706  11.884   3.323  11.354 -1.0973  1.1384 -0.3505
48383SOL    HW249707  11.820   3.232  11.457  0.0764  0.1540 -0.4728
48384SOL     OW49708   6.836   5.435  11.779 -0.3199 -0.5830 -0.0186
48384SOL    HW149709   6.909   5.411  11.836  1.7154  1.8420 -1.3961
48384SOL    HW249710   6.815   5.354  11.732  0.8482 -1.5680  1.0826
48385SOL     OW49711  10.553   4.130   2.298 -0.1570  0.0101  1.2549
48385SOL    HW149712  10.535   4.224   2.286 -0.4569  0.3634  3.7164
48385SOL    HW249713  10.492   4.086   2.239  0.2685  1.3382 -0.2518
48386SOL     OW49714   4.261  11.320  11.273 -0.1264 -0.1545  0.6728
48386SOL    HW149715   4.249  11.260  11.348 -0.1071 -1.2734 -0.1871
48386SOL    HW249716   4.331  11.280  11.222 -3.0044 -1.9219 -2.2912
48387SOL     OW49717   1.477   3.483   3.203  0.4278  0.0341  0.4142
48387SOL    HW149718   1.541   3.509   3.137  0.4684  0.1293  0.4906
48387SOL    HW249719   1.414   3.429   3.156  1.6015 -1.6920  0.6886
48388SOL     OW49720  10.063   6.923   2.037 -0.7261 -0.2163  0.4682
48388SOL    HW149721  10.147   6.943   2.078 -1.0511  1.7910  0.2500
48388SOL    HW249722  10.084   6.906   1.946 -0.6275  0.9496  0.2713
48389SOL     OW49723   5.544   1.690   6.349 -0.0780 -0.7152 -0.2418
48389SOL    HW149724   5.590   1.609   6.327  0.6930 -0.5672  0.7428
48389SOL    HW249725   5.482   1.664   6.417  0.4348 -0.4276  0.3493
48390SOL     OW49726   7.123   4.844   8.170 -0.0540  0.0120  0.6919
48390SOL    HW149727   7.057   4.821   8.235 -0.3019 -0.8082  0.1708
48390SOL    HW249728   7.114   4.938   8.159 -2.4860 -0.2836 -0.7365
48391SOL     OW49729   3.492  11.927   5.040 -0.4084 -0.1022  0.1866
48391SOL    HW149730   3.447  12.009   5.062  0.2396  0.9163 -2.0126
48391SOL    HW249731   3.573  11.931   5.091  0.0095  1.0565 -0.5268
48392SOL     OW49732   8.082   5.057   2.927 -0.0244  0.3179  0.0311
48392SOL    HW149733   8.041   5.028   3.009  1.4651 -0.7513  0.4546
48392SOL    HW249734   8.015   5.043   2.860 -0.6755 -0.4749  0.8193
48393SOL     OW49735   1.385   1.734   6.695  0.2569  0.0713  0.4194
48393SOL    HW149736   1.352   1.801   6.635  3.7663  0.2643 -1.6039
48393SOL    HW249737   1.471   1.767   6.723  0.7349 -2.1583  1.8901
48394SOL     OW49738  11.963  11.450  10.624 -0.3157 -0.2773  0.3706
48394SOL    HW149739  11.884  11.465  10.676 -0.5955  0.2292 -0.1784
48394SOL    HW249740  12.016  11.528  10.639 -0.1309 -0.4044  0.3706
48395SOL     OW49741   9.092   0.939   9.276  0.0452 -0.4463 -0.3639
48395SOL    HW149742   9.081   0.972   9.187 -1.6745 -0.9952 -0.3983
48395SOL    HW249743   9.055   0.850   9.273 -1.2631 -0.0081  1.1711
48396SOL     OW49744   2.375  11.572  11.367 -0.0885  0.0067  0.3126
48396SOL    HW149745   2.372  11.491  11.315 -2.1804  0.1563  0.1201
48396SOL    HW249746   2.468  11.584  11.386  0.3754 -1.9605 -0.4063
48397SOL     OW49747  11.609   0.360   8.307 -0.0473  0.9683 -0.4421
48397SOL    HW149748  11.648   0.362   8.395 -1.6170 -0.5608  0.3406
48397SOL    HW249749  11.684   0.359   8.248  1.1169 -0.7332  0.9628
48398SOL     OW49750   2.337   9.293   9.702 -0.2700  0.5869 -0.2282
48398SOL    HW149751   2.332   9.387   9.688  0.2101  0.5141 -1.0044
48398SOL    HW249752   2.426   9.278   9.733 -0.0449  0.3025 -0.9780
48399SOL     OW49753   4.536  11.826   9.652  0.4740  0.4370  0.0904
48399SOL    HW149754   4.494  11.846   9.569  0.5532  2.0606  0.4074
48399SOL    HW249755   4.464  11.824   9.715  0.4493 -0.5089  0.0504
48400SOL     OW49756   3.791   8.774  11.267  0.2636  0.2313 -0.1703
48400SOL    HW149757   3.886   8.759  11.262  0.2817  0.3055 -0.0523
48400SOL    HW249758   3.753   8.687  11.258  0.2285  0.4297 -2.9637
48401SOL     OW49759   5.919  11.503   6.184 -0.1649 -0.6903  0.3175
48401SOL    HW149760   5.839  11.493   6.132  1.0918 -2.4247 -1.4196
48401SOL    HW249761   5.967  11.573   6.141 -0.4462 -0.0841  0.9777
48402SOL     OW49762   1.776   3.074  10.275 -0.6438  0.1143  0.5741
48402SOL    HW149763   1.746   2.995  10.229  0.7887 -0.3481  0.3920
48402SOL    HW249764   1.862   3.092  10.238 -0.7284  1.4807  0.9874
48403SOL     OW49765  12.124   4.757   5.972  0.1177 -0.3909 -0.0274
48403SOL    HW149766  12.124   4.850   5.949 -1.2488 -0.8573 -2.3554
48403SOL    HW249767  12.032   4.731   5.965  0.7443 -2.4488 -2.2944
48404SOL     OW49768   8.259   9.834   7.017  0.5640 -0.1479 -0.0096
48404SOL    HW149769   8.212   9.750   7.021  0.2174 -0.0295 -1.3056
48404SOL    HW249770   8.251   9.862   6.926  0.7306  1.2742  0.3943
48405SOL     OW49771   5.488   3.840   0.877 -0.0103  0.6149  0.4532
48405SOL    HW149772   5.522   3.912   0.824  1.5882  0.3052  0.9812
48405SOL    HW249773   5.446   3.883   0.952  0.7013  1.0138  0.6350
48406SOL     OW49774   1.112  11.394  12.096 -0.1361  0.6445  0.4728
48406SOL    HW149775   1.025  11.356  12.111 -1.2752  1.2753 -3.3044
48406SOL    HW249776   1.132  11.442  12.176 -3.3780  0.6242  1.4265
48407SOL     OW49777   4.024   8.782   9.805 -0.1292 -0.4746  0.0970
48407SOL    HW149778   4.028   8.686   9.808  3.6361 -0.5131 -0.7053
48407SOL    HW249779   4.008   8.808   9.895  2.4711 -1.9277  1.0915
48408SOL     OW49780   7.265   1.583   8.220 -0.5189 -0.5385  0.4860
48408SOL    HW149781   7.342   1.629   8.254 -1.7033  0.7016  1.6178
48408SOL    HW249782   7.210   1.653   8.185 -0.9725 -1.4525 -0.6441
48409SOL     OW49783   0.724   2.593  10.202  0.3025 -0.2102 -0.0484
48409SOL    HW149784   0.797   2.533  10.184  0.8893  0.3467  0.4328
48409SOL    HW249785   0.717   2.647  10.123 -0.6296 -1.2967 -0.7357
48410SOL     OW49786   9.427   1.403   0.026  0.0819  0.6994  0.3080
48410SOL    HW149787   9.475   1.447  -0.044 -1.5969  1.2619 -0.5628
48410SOL    HW249788   9.457   1.312   0.022  2.0225  1.2880  0.7188
48411SOL     OW49789  11.113   3.433   6.638  0.4016 -0.3973  0.3035
48411SOL    HW149790  11.136   3.525   6.648  0.7072 -0.4651  0.2369
48411SOL    HW249791  11.036   3.421   6.694  0.1454 -0.0206  0.0340
48412SOL     OW49792   5.547   9.565   5.018  0.2195  0.4423 -0.3032
48412SOL    HW149793   5.489   9.497   4.982  0.0109  0.5930 -0.2541
48412SOL    HW249794   5.491   9.614   5.079  0.3003  0.8130 -0.5233
48413SOL     OW49795   4.462   2.004   3.214  0.5930  0.3072 -0.5447
48413SOL    HW149796   4.411   1.923   3.221  0.7337  0.2382 -0.3013
48413SOL    HW249797   4.475   2.032   3.305  2.5114 -0.6390 -0.4693
48414SOL     OW49798   5.520   4.620   6.354  0.0169 -0.5548  0.3756
48414SOL    HW149799   5.510   4.596   6.261 -3.3460 -1.5590  0.8793
48414SOL    HW249800   5.554   4.540   6.395 -0.0968 -0.6662  0.2556
48415SOL     OW49801   8.802  11.092   5.171  0.6551 -0.2592 -0.0735
48415SOL    HW149802   8.889  11.128   5.149  0.5733  0.5818  0.8886
48415SOL    HW249803   8.760  11.162   5.220 -0.8646 -0.3859 -1.1409
48416SOL     OW49804   7.490   9.875   9.073  0.2065  0.0674 -0.0785
48416SOL    HW149805   7.433   9.890   8.997 -0.2839 -0.3249  0.2004
48416SOL    HW249806   7.436   9.900   9.148 -0.3533 -2.1548  0.3448
48417SOL     OW49807   0.037   5.033   5.617  0.2359  0.1171 -0.0326
48417SOL    HW149808   0.009   4.986   5.696 -1.0293  1.1047  0.1416
48417SOL    HW249809   0.025   4.970   5.546 -0.3340 -0.2007  0.3401
48418SOL     OW49810   7.251   9.746   6.252  0.1067  0.2047  0.5321
48418SOL    HW149811   7.160   9.736   6.224  0.3906  1.3242 -0.9051
48418SOL    HW249812   7.256   9.837   6.282  1.0266  0.5271 -0.5495
48419SOL     OW49813   2.777   0.425   7.169  0.1991  0.0098 -0.0065
48419SOL    HW149814   2.686   0.397   7.172  0.5268 -0.9898  0.7661
48419SOL    HW249815   2.828   0.346   7.184  1.1548  0.9440  2.1440
48420SOL     OW49816   3.569   9.036   0.686  0.2195  0.7232  0.3949
48420SOL    HW149817   3.515   9.033   0.764 -0.1224 -1.4840  0.1301
48420SOL    HW249818   3.508   9.024   0.613  0.7919  0.4505 -0.0533
48421SOL     OW49819  11.446   7.253   8.222  0.0330 -0.0026  0.0654
48421SOL    HW149820  11.462   7.222   8.311  1.0568 -0.2086 -0.1762
48421SOL    HW249821  11.385   7.325   8.232 -0.4889 -0.5425  0.8617
48422SOL     OW49822   0.424   0.973  11.057 -0.3267  0.0178  0.5844
48422SOL    HW149823   0.354   1.026  11.019  1.0241 -0.3968 -2.8355
48422SOL    HW249824   0.386   0.886  11.065 -0.7270  0.1693  0.3973
48423SOL     OW49825   5.692  11.444   1.379  0.2008 -0.2875 -0.0373
48423SOL    HW149826   5.619  11.389   1.351  0.0462 -0.0951 -0.0160
48423SOL    HW249827   5.701  11.509   1.310  0.3064 -0.2671 -0.0051
48424SOL     OW49828   6.990   9.007   3.792  0.4324 -0.0455  0.0893
48424SOL    HW149829   7.042   8.987   3.714  0.2932  1.2809 -0.3710
48424SOL    HW249830   7.048   9.059   3.847  0.2469 -0.2614  0.4925
48425SOL     OW49831   4.825  11.209   1.336 -0.0180  0.4652 -0.1549
48425SOL    HW149832   4.846  11.296   1.370  0.4893  0.1035  0.4972
48425SOL    HW249833   4.791  11.161   1.412  0.4831 -0.1491 -0.3048
48426SOL     OW49834   2.834   8.343   7.182 -0.1541 -0.6214 -0.0273
48426SOL    HW149835   2.744   8.363   7.206 -0.3681  0.0418 -1.3272
48426SOL    HW249836   2.829   8.312   7.092  1.0209  0.4688 -0.5048
48427SOL     OW49837   7.670   8.257   7.513  0.3166 -0.0713  0.0023
48427SOL    HW149838   7.594   8.295   7.557  0.3765  1.1171 -0.8631
48427SOL    HW249839   7.714   8.206   7.581 -0.0751  0.9859  1.0916
48428SOL     OW49840   2.751   8.976   8.487 -0.1148 -0.4313  0.2773
48428SOL    HW149841   2.819   9.030   8.527  0.0152 -0.9216  0.7360
48428SOL    HW249842   2.686   8.965   8.556 -0.8399  0.3346 -0.2781
48429SOL     OW49843   3.168   2.591   2.126 -0.2402 -0.1176 -0.0344
48429SOL    HW149844   3.184   2.655   2.057 -0.2346 -0.3212 -0.2219
48429SOL    HW249845   3.206   2.631   2.204 -0.2441  0.1119 -0.1489
48430SOL     OW49846   1.462   8.285   2.271 -0.2917  0.5237 -0.2612
48430SOL    HW149847   1.428   8.215   2.327 -1.5869 -0.2481 -1.9170
48430SOL    HW249848   1.390   8.304   2.210  1.0623  1.2488 -1.7115
48431SOL     OW49849  10.516   4.685   7.817  0.3057 -0.2618  0.1117
48431SOL    HW149850  10.509   4.591   7.799 -1.8955  0.0361 -1.0480
48431SOL    HW249851  10.562   4.721   7.740 -1.0511 -0.1292 -0.6764
48432SOL     OW49852   9.795   8.752   5.403 -0.1150  0.0555 -0.0833
48432SOL    HW149853   9.871   8.793   5.444 -0.3200  1.0106 -0.6347
48432SOL    HW249854   9.723   8.771   5.463 -0.0118 -0.4599  0.2118
48433SOL     OW49855   3.296   9.014   4.699  0.5361  0.0704 -0.3029
48433SOL    HW149856   3.345   9.023   4.617  2.4566 -1.2496  0.6255
48433SOL    HW249857   3.324   9.087   4.752  0.8175 -0.1853 -0.0972
48434SOL     OW49858   3.937   1.974   4.003 -0.2410 -0.4051  0.6468
48434SOL    HW149859   3.846   1.943   4.010 -0.2867 -0.4789 -0.1572
48434SOL    HW249860   3.937   2.057   4.051 -1.3364  0.7987 -1.3117
48435SOL     OW49861   2.760  11.763   4.697 -0.4027 -0.1915  0.1865
48435SOL    HW149862   2.823  11.825   4.736  0.3320  0.7217 -2.2470
48435SOL    HW249863   2.805  11.679   4.701 -1.3665 -0.6922  3.4442
48436SOL     OW49864   2.921   9.270   0.694 -0.3293 -0.1782 -0.4153
48436SOL    HW149865   2.961   9.188   0.664  0.8046  1.1952 -2.9933
48436SOL    HW249866   2.830   9.264   0.667 -0.8198 -1.4172  1.3492
48437SOL     OW49867   8.308   4.980   0.308  0.0414 -0.5091  0.5288
48437SOL    HW149868   8.332   5.015   0.394 -0.9057  0.3108  0.4801
48437SOL    HW249869   8.273   5.056   0.261  0.7416 -0.9062 -0.6601
48438SOL     OW49870   2.991   8.410   0.515 -0.4245  0.7957 -0.2486
48438SOL    HW149871   2.919   8.461   0.478 -2.1378 -0.2566  1.4586
48438SOL    HW249872   2.954   8.322   0.528  1.0758  0.3005  0.9422
48439SOL     OW49873  11.875   8.839   7.162  0.3411 -0.3221  0.1289
48439SOL    HW149874  11.858   8.927   7.130 -1.6417 -0.1702  1.4005
48439SOL    HW249875  11.824   8.782   7.103 -1.9381 -0.1809  1.8296
48440SOL     OW49876   3.249   2.936  11.141  0.7501  0.0907  0.2268
48440SOL    HW149877   3.226   2.960  11.052  2.7752 -0.6378 -0.5511
48440SOL    HW249878   3.327   2.987  11.161  0.3173  0.2610  1.6071
48441SOL     OW49879   8.469   9.986   1.987 -0.0715  0.5324  0.0450
48441SOL    HW149880   8.540   9.924   1.968 -0.2989  0.6194 -1.1810
48441SOL    HW249881   8.505  10.071   1.963  0.2609  0.9159  1.7854
48442SOL     OW49882   3.789   9.693  12.022 -0.2605 -0.0669 -0.5295
48442SOL    HW149883   3.854   9.643  12.071 -0.3034  1.2562  0.9784
48442SOL    HW249884   3.821   9.783  12.026 -3.1955  1.0858  2.3051
48443SOL     OW49885   0.847  10.354   9.863 -0.0477 -0.0623  0.0771
48443SOL    HW149886   0.852  10.438   9.818 -1.2359 -0.0370 -0.0278
48443SOL    HW249887   0.817  10.292   9.796 -0.4464 -0.3025  0.4689
48444SOL     OW49888   9.184   9.542   0.172  0.3381  0.1555 -0.1702
48444SOL    HW149889   9.107   9.595   0.153  1.2913  1.3333 -0.9625
48444SOL    HW249890   9.223   9.584   0.249 -0.4704 -1.2081  1.0251
48445SOL     OW49891   0.200   8.578   1.085  0.2553 -0.3608  0.5121
48445SOL    HW149892   0.131   8.529   1.130 -0.8458  1.8213  1.2978
48445SOL    HW249893   0.232   8.641   1.149  2.3985 -0.6947 -0.1358
48446SOL     OW49894   1.940   5.911   3.240  0.0639 -0.4724  0.1637
48446SOL    HW149895   1.930   5.977   3.172 -1.3483 -0.4178  0.4049
48446SOL    HW249896   2.005   5.850   3.204  1.2860  0.9259 -0.1221
48447SOL     OW49897  12.018   3.677   1.465 -0.4614  0.2719 -0.1126
48447SOL    HW149898  11.964   3.598   1.458 -0.2543  0.2681 -3.2855
48447SOL    HW249899  11.971   3.733   1.526 -0.9106 -2.0180  1.7998
48448SOL     OW49900   0.707   5.546  11.114 -0.2792 -0.1975  0.1609
48448SOL    HW149901   0.772   5.573  11.179 -0.3890  0.8333 -0.1401
48448SOL    HW249902   0.631   5.520  11.166 -1.2655  2.9484  0.4539
48449SOL     OW49903   6.895   2.154   0.442 -0.0827 -0.3495 -0.0065
48449SOL    HW149904   6.984   2.170   0.410 -0.8510  1.3807 -1.4405
48449SOL    HW249905   6.871   2.234   0.489 -0.9053 -0.7845  0.3437
48450SOL     OW49906   8.393   2.384  11.324 -0.6756 -0.3366  0.7635
48450SOL    HW149907   8.387   2.401  11.418 -3.3055 -1.5216  0.9159
48450SOL    HW249908   8.468   2.436  11.295 -0.3394  0.7979  3.3435
48451SOL     OW49909  10.801   4.376   5.405 -0.2680  0.3239 -0.0788
48451SOL    HW149910  10.755   4.350   5.485  0.7833  0.2089  0.5083
48451SOL    HW249911  10.740   4.354   5.334 -1.5709  1.2144  0.7142
48452SOL     OW49912  10.572   5.940   6.318 -0.1422 -0.1972 -0.5365
48452SOL    HW149913  10.605   5.850   6.323 -0.9317 -0.4277  1.6723
48452SOL    HW249914  10.626   5.989   6.381  0.3400  0.9215 -1.7746
48453SOL     OW49915   1.398   7.825   0.763 -0.1339 -0.2763 -0.5549
48453SOL    HW149916   1.326   7.857   0.817  0.4750  0.9669 -0.4582
48453SOL    HW249917   1.361   7.750   0.717 -0.9546 -0.7561  0.8238
48454SOL     OW49918   6.414   7.837   5.205 -0.2608 -0.3479 -0.1169
48454SOL    HW149919   6.329   7.859   5.243 -1.3376 -1.9304 -1.4885
48454SOL    HW249920   6.472   7.906   5.236 -1.9595  0.6038  1.1267
48455SOL     OW49921   4.885   2.246   5.159  0.1883  0.1793  0.2810
48455SOL    HW149922   4.966   2.230   5.207  1.5549 -2.6821 -2.6147
48455SOL    HW249923   4.912   2.293   5.081 -0.8543 -0.8925 -0.7747
48456SOL     OW49924   0.891  11.100   1.982 -0.3508 -0.3153 -0.1519
48456SOL    HW149925   0.950  11.173   1.963  0.1205  0.1942  2.7783
48456SOL    HW249926   0.808  11.142   2.005 -1.2127 -0.9316 -1.9338
48457SOL     OW49927   9.947   1.570   5.149  0.1114  0.0583 -0.0430
48457SOL    HW149928   9.948   1.656   5.191 -0.4613 -0.2998  0.7272
48457SOL    HW249929   9.878   1.522   5.195 -2.0217  0.2986 -2.7218
48458SOL     OW49930   9.877   5.300   7.742  0.1319 -0.1909  0.3592
48458SOL    HW149931   9.878   5.315   7.648  0.0698  0.6978  0.4944
48458SOL    HW249932   9.935   5.225   7.755  2.1446  1.2092 -0.1314
48459SOL     OW49933   2.846  10.861   1.262 -0.0348 -0.0140 -0.1625
48459SOL    HW149934   2.905  10.935   1.254 -1.2074  0.9645 -0.0671
48459SOL    HW249935   2.768  10.887   1.213 -1.9158  0.3720  2.7850
48460SOL     OW49936   1.146   9.597  11.014 -0.1144  0.0658 -0.5813
48460SOL    HW149937   1.093   9.665  11.055 -0.0267 -0.1235 -0.1501
48460SOL    HW249938   1.208   9.644  10.959  1.4442  0.4698  1.4223
48461SOL     OW49939   5.309  11.197   9.856  0.0995 -0.0037 -0.1543
48461SOL    HW149940   5.256  11.147   9.917  1.7718 -0.0983  1.3014
48461SOL    HW249941   5.369  11.133   9.817 -0.1726  0.2640 -1.0487
48462SOL     OW49942  11.622   3.852  10.015 -0.7212  0.1124  0.1834
48462SOL    HW149943  11.545   3.862   9.958 -1.4139 -1.9571  0.6662
48462SOL    HW249944  11.591   3.882  10.101 -0.5125  0.6768  0.0662
48463SOL     OW49945   7.227   4.779   1.113 -0.4384  0.3950 -0.2424
48463SOL    HW149946   7.186   4.714   1.055  0.4395  0.3678 -0.8588
48463SOL    HW249947   7.274   4.837   1.053  1.6013 -0.4098  0.4900
48464SOL     OW49948  11.192   6.425   0.329 -0.1122  0.2920  0.5359
48464SOL    HW149949  11.171   6.376   0.408  2.0920 -0.8567  0.4653
48464SOL    HW249950  11.198   6.359   0.260  0.4563  0.9704 -0.0846
48465SOL     OW49951   2.385   6.903   5.978 -0.6474  0.0835  0.1216
48465SOL    HW149952   2.391   6.933   6.069  0.4145 -1.4225  0.5916
48465SOL    HW249953   2.465   6.936   5.937 -1.3172  1.0945 -0.3770
48466SOL     OW49954  11.245   5.653   9.672 -0.1067 -0.5449 -0.2791
48466SOL    HW149955  11.340   5.657   9.661 -0.2440  0.3994 -1.3787
48466SOL    HW249956  11.218   5.579   9.617  0.0692 -1.5089  0.8824
48467SOL     OW49957   3.255   6.928   4.200 -0.3170 -0.1204  0.0705
48467SOL    HW149958   3.266   6.981   4.120 -0.5498 -0.9504 -0.5316
48467SOL    HW249959   3.344   6.901   4.224 -0.4363 -2.5021 -1.7777
48468SOL     OW49960   3.441   2.216   1.953  0.3817  0.0492  0.3727
48468SOL    HW149961   3.379   2.184   2.018 -2.6822  0.5716 -2.0876
48468SOL    HW249962   3.397   2.204   1.869  2.5992  2.7600 -1.3672
48469SOL     OW49963   6.625   1.029   1.344 -0.3142 -0.0129 -0.7645
48469SOL    HW149964   6.543   1.017   1.391 -0.8148  1.9391 -1.0574
48469SOL    HW249965   6.687   1.056   1.412 -0.1314 -0.6335 -0.6817
48470SOL     OW49966   0.540   7.741  10.610 -0.4600 -0.2643  0.2804
48470SOL    HW149967   0.533   7.779  10.698 -0.0387 -1.1646  0.7204
48470SOL    HW249968   0.630   7.759  10.584 -0.7655  0.5638 -0.2503
48471SOL     OW49969  12.033   7.360   7.163 -0.6578 -0.2843  0.0238
48471SOL    HW149970  12.111   7.357   7.108 -0.1607 -0.4607  0.7243
48471SOL    HW249971  11.981   7.433   7.128  0.8518  1.2747  0.8879
48472SOL     OW49972   8.053   2.857   5.545  0.2311 -0.5882  0.2017
48472SOL    HW149973   8.120   2.898   5.491  0.8183 -2.0453 -0.2469
48472SOL    HW249974   8.021   2.784   5.492  0.6541 -1.9193  1.6970
48473SOL     OW49975   6.690   1.425   5.032  0.1260  0.0192 -0.2446
48473SOL    HW149976   6.748   1.354   5.059  0.0958 -0.0135 -0.2645
48473SOL    HW249977   6.650   1.393   4.950  0.5323  0.2910 -0.5504
48474SOL     OW49978  10.192   7.002   3.515  0.0710  0.0567 -0.1637
48474SOL    HW149979  10.100   7.024   3.508  0.3215  1.1620 -0.2514
48474SOL    HW249980  10.223   7.051   3.592  1.4415  2.9945 -2.3840
48475SOL     OW49981   0.653   2.311   6.399 -0.9782  0.0198  0.1534
48475SOL    HW149982   0.577   2.365   6.422 -1.2823 -1.0102  1.8063
48475SOL    HW249983   0.670   2.260   6.479  1.8534  0.6714  0.0507
48476SOL     OW49984   8.354   6.629  11.755 -0.1900 -0.2225  0.4420
48476SOL    HW149985   8.384   6.709  11.798  2.1301 -1.0168  0.4294
48476SOL    HW249986   8.293   6.590  11.818 -0.7659  1.1680  0.7706
48477SOL     OW49987   0.257   2.915   4.436  0.1650 -0.0638  0.3555
48477SOL    HW149988   0.285   2.828   4.408 -0.0039 -0.4435  1.3253
48477SOL    HW249989   0.188   2.899   4.501 -1.6124  0.8260 -1.2036
48478SOL     OW49990  11.847   8.887   3.432  0.1156  0.4275 -0.2149
48478SOL    HW149991  11.792   8.893   3.510  0.6474 -2.6105  0.5357
48478SOL    HW249992  11.789   8.855   3.363  0.2602  0.2491 -0.2561
48479SOL     OW49993   4.551   9.532   1.477 -0.3910  0.0108 -0.4433
48479SOL    HW149994   4.581   9.591   1.546 -0.2308  0.0994 -0.5883
48479SOL    HW249995   4.496   9.586   1.421 -1.1706 -0.2519  0.0598
48480SOL     OW49996   5.736   7.789   1.494  0.0467  0.2241 -0.1235
48480SOL    HW149997   5.821   7.766   1.458  0.2605 -0.1653  0.6137
48480SOL    HW249998   5.734   7.885   1.492  0.6330  0.2437  0.1543
48481SOL     OW49999   8.782   5.197   0.769  0.5106  0.5524  0.3133
48481SOL    HW150000   8.733   5.150   0.836  1.2559 -1.0611 -0.2223
48481SOL    HW250001   8.722   5.265   0.739 -0.5464  0.0680  1.2501
48482SOL     OW50002   0.090  11.944   0.925  0.1243  0.7966  0.0077
48482SOL    HW150003   0.012  11.922   0.874  1.2847  0.5039 -1.7007
48482SOL    HW250004   0.106  11.867   0.980  0.2392  0.1157 -0.9635
48483SOL     OW50005   4.923   8.072   6.015  0.3683  0.3688 -0.0544
48483SOL    HW150006   4.860   8.102   5.950 -0.8441  1.4808  1.5513
48483SOL    HW250007   5.003   8.121   5.994  0.2750  0.0611 -1.2095
48484SOL     OW50008  10.921   8.512   5.687  0.0491 -0.2847  0.4248
48484SOL    HW150009  10.986   8.441   5.678 -0.2283 -0.4465 -0.3047
48484SOL    HW250010  10.927   8.537   5.780  1.3695 -0.0918  0.3124
48485SOL     OW50011   0.821   7.515   1.555 -0.0837 -0.4421  0.0587
48485SOL    HW150012   0.817   7.459   1.632  1.3905 -1.6790 -0.6963
48485SOL    HW250013   0.730   7.536   1.536 -0.4659  0.3025  2.3818
48486SOL     OW50014   0.060  11.642   9.869 -0.1912  0.3117  0.7013
48486SOL    HW150015   0.008  11.632   9.949 -1.2025 -1.2131 -0.0823
48486SOL    HW250016   0.001  11.615   9.799  1.0053  0.5911 -0.4599
48487SOL     OW50017   8.431  11.945   4.997 -0.4034 -0.3336 -0.2916
48487SOL    HW150018   8.500  11.911   5.053 -0.9753 -0.9626  0.0370
48487SOL    HW250019   8.374  11.994   5.057 -2.1582 -2.6964  0.1138
48488SOL     OW50020   2.248   4.658  10.578  0.2196  0.5770 -0.6401
48488SOL    HW150021   2.163   4.682  10.540 -0.3494 -0.5521 -0.1199
48488SOL    HW250022   2.311   4.678  10.508 -0.5782  0.4858 -1.4113
48489SOL     OW50023   7.526   5.617   1.591  0.6046  0.7420 -0.7143
48489SOL    HW150024   7.444   5.666   1.595 -0.1732 -0.5686  1.0066
48489SOL    HW250025   7.588   5.670   1.640  0.0378  0.5296  0.2690
48490SOL     OW50026   5.039   3.603   1.351  0.1118 -0.0609  0.0584
48490SOL    HW150027   5.129   3.606   1.317  0.4520  2.2347  1.0197
48490SOL    HW250028   5.024   3.690   1.388 -1.8617 -0.9886  1.6300
48491SOL     OW50029  10.050  11.599   2.994 -0.4464  0.2170  0.0041
48491SOL    HW150030   9.982  11.655   3.033 -2.4258 -1.6133 -0.6314
48491SOL    HW250031  10.090  11.556   3.069  1.8712  3.1021  0.6177
48492SOL     OW50032   5.261  10.154   3.005  0.3107  0.2440  0.8391
48492SOL    HW150033   5.272  10.180   3.096 -0.7636  2.6708  0.3546
48492SOL    HW250034   5.166  10.158   2.990  0.5563  1.2593 -0.7230
48493SOL     OW50035   1.402   3.846   7.850  0.2809 -0.5446 -0.4671
48493SOL    HW150036   1.392   3.936   7.882  1.6316 -0.5667  0.0699
48493SOL    HW250037   1.382   3.852   7.756  2.3662  0.7586 -0.8997
48494SOL     OW50038   6.613   8.038   0.520 -0.3253 -0.4160  0.2755
48494SOL    HW150039   6.586   8.031   0.612 -0.7383 -0.5958  0.1450
48494SOL    HW250040   6.704   8.067   0.524  0.1592 -1.9016  0.7876
48495SOL     OW50041   1.593   5.130   2.117  0.4015 -0.0699  0.1637
48495SOL    HW150042   1.597   5.145   2.211  3.9523 -3.4301  0.7772
48495SOL    HW250043   1.684   5.127   2.088 -0.3749 -2.8311 -2.6125
48496SOL     OW50044   6.282   0.366   8.249  0.1330  0.2756  0.4210
48496SOL    HW150045   6.323   0.287   8.285  0.3983 -0.4859 -1.4105
48496SOL    HW250046   6.348   0.401   8.189 -0.4829  1.1625  0.2516
48497SOL     OW50047   1.156   4.225  12.007 -0.1676 -0.5306 -0.5177
48497SOL    HW150048   1.237   4.196  12.050 -0.9606 -0.8515  0.8113
48497SOL    HW250049   1.133   4.152  11.948  0.7153 -0.2560 -1.2298
48498SOL     OW50050  11.412   8.562   9.398  0.2459 -0.2550  0.0707
48498SOL    HW150051  11.339   8.525   9.448 -0.6485 -0.7715 -1.5510
48498SOL    HW250052  11.449   8.488   9.351 -1.0802  0.6466 -2.6071
48499SOL     OW50053   5.020   8.564   6.112  1.1105 -0.2288  0.0149
48499SOL    HW150054   5.081   8.505   6.068  0.6627  0.4417 -1.5715
48499SOL    HW250055   4.947   8.572   6.051  1.3878  2.3640 -0.0665
48500SOL     OW50056   0.950   0.457  10.606  0.2773  0.3742  1.4413
48500SOL    HW150057   1.001   0.513  10.664  0.5761  1.0178  0.5798
48500SOL    HW250058   1.015   0.404  10.560  0.0388 -0.1789  1.7295
48501SOL     OW50059   9.577  11.824   3.095 -0.8552  0.1107 -0.3154
48501SOL    HW150060   9.571  11.846   3.003 -1.7514  2.1242  0.1791
48501SOL    HW250061   9.610  11.903   3.137 -1.2912 -0.4723  1.2040
48502SOL     OW50062   3.892   2.503   9.131 -0.1724 -0.1915  0.1157
48502SOL    HW150063   3.942   2.584   9.132 -0.0674 -0.0741 -3.1221
48502SOL    HW250064   3.817   2.520   9.188  0.7090  1.5555  0.8125
48503SOL     OW50065   3.357   8.157   2.335 -0.2207 -0.7193  0.0202
48503SOL    HW150066   3.448   8.152   2.306  0.2034  0.3627  1.1185
48503SOL    HW250067   3.314   8.215   2.272 -0.2316 -1.4238 -0.6396
48504SOL     OW50068  11.632   1.837   5.019  0.1523  0.2899  0.2310
48504SOL    HW150069  11.642   1.744   5.001  0.2771  0.0633  1.4374
48504SOL    HW250070  11.540   1.848   5.041  0.5089  0.1002  1.9452
48505SOL     OW50071   9.982  10.086   6.975 -0.1189 -0.0319  0.3672
48505SOL    HW150072   9.995  10.090   7.070 -1.0255 -1.4638  0.5779
48505SOL    HW250073   9.941  10.170   6.953 -0.2696  0.1525  1.3039
48506SOL     OW50074   2.186   7.828   5.100  0.0326 -0.2262  0.2257
48506SOL    HW150075   2.175   7.734   5.116 -0.9362 -0.0536  0.6588
48506SOL    HW250076   2.279   7.839   5.082  0.7229 -0.8733  2.9409
48507SOL     OW50077  11.669   6.400  11.765 -0.4903  0.4597 -0.7215
48507SOL    HW150078  11.599   6.433  11.822  0.1365  0.9621 -0.2266
48507SOL    HW250079  11.722   6.477  11.744  0.5572 -0.0734 -0.1644
48508SOL     OW50080   5.047   7.057   5.953  0.7120  0.2037  0.2241
48508SOL    HW150081   5.005   7.115   5.889  0.5437  0.9169  0.9656
48508SOL    HW250082   5.037   7.103   6.036  0.9774 -0.6899  0.7540
48509SOL     OW50083   5.572   1.847   1.922  0.0001  0.5742 -1.0595
48509SOL    HW150084   5.620   1.843   2.005 -1.2046 -1.2497 -0.3890
48509SOL    HW250085   5.494   1.901   1.942 -0.8105 -0.7003 -0.6822
48510SOL     OW50086  11.648   4.733  10.825  0.0848  0.2105 -0.8706
48510SOL    HW150087  11.614   4.726  10.914  0.5733 -0.1572 -0.7069
48510SOL    HW250088  11.682   4.822  10.819  1.2846 -0.1818 -0.2282
48511SOL     OW50089  10.845   8.783   0.382  0.2503 -0.0675  0.0979
48511SOL    HW150090  10.881   8.858   0.334 -0.1981  0.3433  0.3871
48511SOL    HW250091  10.915   8.718   0.382  0.6745  0.3826 -0.0962
48512SOL     OW50092   1.277   7.525  10.567  0.1915  0.1337  0.6408
48512SOL    HW150093   1.256   7.578  10.490 -0.4886  1.0591  1.4531
48512SOL    HW250094   1.210   7.547  10.631  1.4860  0.3420  1.9766
48513SOL     OW50095   2.226   4.032   7.170  0.0614  0.2300 -0.0226
48513SOL    HW150096   2.308   4.077   7.148  0.3451 -0.9451 -1.5490
48513SOL    HW250097   2.227   3.953   7.116 -0.4433 -1.6107  2.5013
48514SOL     OW50098   3.176   1.196   0.432  0.4932  0.0069  0.0149
48514SOL    HW150099   3.159   1.289   0.449 -1.7979 -0.2520 -0.5889
48514SOL    HW250100   3.145   1.152   0.511  0.1345 -0.3609 -0.3295
48515SOL     OW50101   2.381   6.079   7.818  0.3692 -0.7824 -0.6585
48515SOL    HW150102   2.414   6.145   7.757 -1.8149  0.0133 -1.0797
48515SOL    HW250103   2.365   6.002   7.764  1.7446 -1.2907 -0.3905
48516SOL     OW50104   1.072   6.350   2.847 -0.4056 -0.0819 -0.7169
48516SOL    HW150105   1.144   6.339   2.908  0.2119  2.1995 -0.9245
48516SOL    HW250106   0.995   6.318   2.895  0.0817  1.4390  1.2490
48517SOL     OW50107   7.850   3.459   1.285  0.6663 -0.1582  0.3521
48517SOL    HW150108   7.896   3.416   1.213  1.5374 -1.1768  1.4707
48517SOL    HW250109   7.776   3.504   1.243  0.5707 -1.5344 -1.0594
48518SOL     OW50110   4.689  11.026   0.526  0.5690 -0.7942 -0.2595
48518SOL    HW150111   4.716  11.027   0.434 -1.6453  1.3878 -1.0212
48518SOL    HW250112   4.709  11.114   0.558 -1.4840 -0.4921  0.3556
48519SOL     OW50113   5.848   3.011  10.272  0.3881  0.5646 -0.2263
48519SOL    HW150114   5.849   3.074  10.344 -1.0479 -0.2753  0.5798
48519SOL    HW250115   5.851   2.925  10.314  1.0440  0.0551 -1.2489
48520SOL     OW50116   2.915   7.075   2.480  0.0534 -0.0101 -0.4309
48520SOL    HW150117   2.897   7.097   2.389 -2.0716 -1.4208 -0.4387
48520SOL    HW250118   2.894   6.981   2.487  0.7958 -0.0875  1.3537
48521SOL     OW50119  11.123   4.816  10.193  0.2441  0.8613 -0.2958
48521SOL    HW150120  11.214   4.786  10.187  1.4711  3.9457  0.8578
48521SOL    HW250121  11.092   4.781  10.277  0.3309 -0.2041 -0.6941
48522SOL     OW50122   1.952   0.127   0.309  0.1182 -0.4064  0.0819
48522SOL    HW150123   1.923   0.055   0.366  0.0435  0.3299  0.9941
48522SOL    HW250124   2.034   0.096   0.272 -0.0599 -1.0826  0.2274
48523SOL     OW50125   8.572  11.613   2.525 -0.5445 -0.3539  0.3624
48523SOL    HW150126   8.556  11.569   2.609 -0.6148 -0.4474  0.3012
48523SOL    HW250127   8.604  11.699   2.549  1.8305 -1.2086  0.5188
48524SOL     OW50128   9.046  11.416   2.243 -0.5188  0.1074 -0.5027
48524SOL    HW150129   8.988  11.362   2.189  1.0920  0.2588 -2.5417
48524SOL    HW250130   9.070  11.360   2.317 -1.4300 -0.7670 -0.8499
48525SOL     OW50131   8.412   6.121   2.862  0.3242 -0.1661  0.5098
48525SOL    HW150132   8.469   6.051   2.894 -0.9472 -1.0585  0.9169
48525SOL    HW250133   8.341   6.125   2.927  0.6266  1.8695  0.7697
48526SOL     OW50134   2.144   0.916  11.135  0.1478  0.0451 -0.1490
48526SOL    HW150135   2.177   1.004  11.152 -4.2927  1.7399  1.1292
48526SOL    HW250136   2.088   0.926  11.057 -3.5650 -0.4331  2.1841
48527SOL     OW50137   4.107   8.419  11.120  0.0579 -0.2750  0.4523
48527SOL    HW150138   4.092   8.502  11.166  0.7288 -0.1922  0.5417
48527SOL    HW250139   4.064   8.430  11.035 -0.8616 -0.2847  0.9039
48528SOL     OW50140   5.924   6.878   2.109  0.1848  0.5145 -0.2973
48528SOL    HW150141   5.977   6.807   2.072 -0.0644  0.7882 -1.2062
48528SOL    HW250142   5.873   6.837   2.178  0.0548 -0.1982 -0.8032
48529SOL     OW50143   9.160   6.709   1.878  0.8290 -0.2473 -0.2006
48529SOL    HW150144   9.209   6.771   1.932  2.2109 -0.5490 -1.0406
48529SOL    HW250145   9.220   6.688   1.806 -0.3073 -1.1540 -0.9167
48530SOL     OW50146   9.579   1.831   4.763  0.1747 -0.2715 -0.3091
48530SOL    HW150147   9.629   1.767   4.713  0.0019 -1.1557  0.6179
48530SOL    HW250148   9.589   1.913   4.715  0.9287 -0.8580 -1.1665
48531SOL     OW50149   9.038   9.862  11.677 -0.2876 -0.0590 -0.7158
48531SOL    HW150150   9.063   9.772  11.655  3.7951  0.7022  0.0291
48531SOL    HW250151   9.092   9.916  11.619 -1.9387  1.9309 -0.4822
48532SOL     OW50152   0.456   0.500   3.445  0.0604  0.5978 -0.1415
48532SOL    HW150153   0.465   0.450   3.526 -1.6275 -2.5749 -1.6787
48532SOL    HW250154   0.540   0.489   3.401 -0.1565 -0.7634 -0.2890
48533SOL     OW50155   8.319   9.231   5.536 -0.2588 -0.0992  0.5403
48533SOL    HW150156   8.251   9.185   5.487 -0.1135 -0.7029  0.8901
48533SOL    HW250157   8.271   9.290   5.595 -0.4190  1.8861 -1.4485
48534SOL     OW50158   4.774   0.804   3.185 -0.1206 -0.1086  0.4072
48534SOL    HW150159   4.772   0.828   3.092  0.5861  0.4930  0.5370
48534SOL    HW250160   4.737   0.716   3.188  2.3381 -1.2696 -0.8195
48535SOL     OW50161   6.400  11.394   2.000  0.2048  0.0767  0.4974
48535SOL    HW150162   6.363  11.376   1.914 -0.1747 -0.0851  0.6958
48535SOL    HW250163   6.363  11.328   2.058 -0.5097  0.9271  1.0454
48536SOL     OW50164   8.919   9.455  10.353 -0.1399  0.4020  0.1808
48536SOL    HW150165   8.935   9.452  10.447  0.9836 -0.8520 -0.0258
48536SOL    HW250166   9.003   9.432  10.314 -1.1464 -1.3555 -1.0789
48537SOL     OW50167   7.299   8.290   9.832  0.6788 -0.2622  0.4421
48537SOL    HW150168   7.347   8.333   9.903  2.4208 -0.6351 -0.4617
48537SOL    HW250169   7.361   8.227   9.796  0.1116  0.4708 -1.9361
48538SOL     OW50170   8.842   1.271   6.216 -0.4917 -0.5078  0.3324
48538SOL    HW150171   8.910   1.203   6.221 -0.1059 -0.3487 -1.9136
48538SOL    HW250172   8.761   1.226   6.240  0.1554 -1.0656  1.5778
48539SOL     OW50173   3.115   0.077   8.663  0.0134 -0.3347 -0.3096
48539SOL    HW150174   3.141  -0.013   8.684  0.1277 -0.0175  1.0211
48539SOL    HW250175   3.185   0.131   8.699 -1.5886  0.4453  1.8418
48540SOL     OW50176   7.430   7.736   1.605  0.1711  0.6014 -0.1836
48540SOL    HW150177   7.379   7.684   1.543 -0.2398  0.6350  0.1208
48540SOL    HW250178   7.464   7.672   1.667  0.8444  0.5294 -0.6200
48541SOL     OW50179   2.828  10.533  11.163  0.5638 -0.2640 -0.2070
48541SOL    HW150180   2.886  10.457  11.169 -0.0468 -0.9038 -1.7035
48541SOL    HW250181   2.747  10.505  11.206  0.2769 -0.5649 -0.9101
48542SOL     OW50182  10.669   6.035   0.115  0.2477  0.0757 -0.4711
48542SOL    HW150183  10.577   6.007   0.124 -0.0456  0.7870 -1.1845
48542SOL    HW250184  10.719   5.954   0.124 -0.5642 -0.6317 -1.9069
48543SOL     OW50185   4.425  11.780   6.098 -0.3174 -0.1756 -0.2930
48543SOL    HW150186   4.518  11.802   6.088 -0.6603  0.4986 -2.8006
48543SOL    HW250187   4.379  11.848   6.050 -2.0252 -1.3168 -0.3794
48544SOL     OW50188   7.232   7.769   6.033 -0.1523  0.2147 -0.0404
48544SOL    HW150189   7.308   7.747   6.086 -0.9800 -0.4267  0.9183
48544SOL    HW250190   7.234   7.865   6.028  0.3299  0.2470  0.5599
48545SOL     OW50191   3.572   1.829   9.237 -0.1774 -0.2933 -0.3981
48545SOL    HW150192   3.621   1.830   9.319  0.3957  0.3307 -0.7343
48545SOL    HW250193   3.616   1.763   9.183 -0.2609 -0.3668 -0.3768
48546SOL     OW50194   1.398   2.836   2.067 -0.3843 -0.1081 -0.2979
48546SOL    HW150195   1.470   2.899   2.070 -1.0478  0.6383  1.0116
48546SOL    HW250196   1.405   2.787   2.149 -2.5619  1.4335  0.9387
48547SOL     OW50197   5.632  11.274  10.453  0.2599 -0.0296 -0.3693
48547SOL    HW150198   5.539  11.291  10.442  0.4286 -0.3385 -2.6341
48547SOL    HW250199   5.669  11.359  10.480 -0.8720 -0.3419  2.5120
48548SOL     OW50200   6.263   3.704   5.202 -1.1829 -0.1488 -0.4002
48548SOL    HW150201   6.313   3.682   5.281 -0.3733  1.0993 -0.5307
48548SOL    HW250202   6.254   3.621   5.156  2.1617 -0.2496 -1.1357
48549SOL     OW50203   3.800   7.390   1.961 -0.1386 -0.0091  0.4083
48549SOL    HW150204   3.854   7.442   1.902  0.2789 -1.1739 -0.2605
48549SOL    HW250205   3.804   7.301   1.926 -0.2596 -0.6492  1.9271
48550SOL     OW50206   1.569   6.203   4.126  0.1552 -0.4748  0.0033
48550SOL    HW150207   1.501   6.175   4.064 -0.2456 -1.4140  0.8428
48550SOL    HW250208   1.647   6.213   4.071 -0.9285  2.1230 -1.2586
48551SOL     OW50209   6.396   8.499  11.726  0.2927  0.2560 -0.0086
48551SOL    HW150210   6.404   8.528  11.635 -1.3734 -0.3974 -0.3974
48551SOL    HW250211   6.403   8.403  11.721  1.1513  0.2705  0.6865
48552SOL     OW50212   8.141   3.092   1.843 -0.1803  0.0210  0.0639
48552SOL    HW150213   8.161   3.159   1.779 -1.0986  1.0270  0.8041
48552SOL    HW250214   8.123   3.140   1.924  2.0571 -1.2433  1.4239
48553SOL     OW50215   4.853  10.537   1.926  0.6293 -0.0289 -0.3957
48553SOL    HW150216   4.807  10.479   1.866  0.8603 -0.8830  0.2297
48553SOL    HW250217   4.945  10.520   1.910  0.6926 -0.4280  0.3401
48554SOL     OW50218   0.564   0.286   2.426  0.2963 -0.2445  0.1285
48554SOL    HW150219   0.535   0.372   2.395 -0.4356 -0.4726  0.1845
48554SOL    HW250220   0.498   0.259   2.488  0.1269 -1.1931 -0.4510
48555SOL     OW50221  11.333   2.893   4.578 -0.5383  0.2833 -0.2577
48555SOL    HW150222  11.246   2.893   4.538 -0.8905  0.7260  0.4731
48555SOL    HW250223  11.380   2.823   4.533 -1.1804  0.2193 -0.8567
48556SOL     OW50224   5.745   1.222  11.849 -0.1616  0.3885  0.2378
48556SOL    HW150225   5.745   1.127  11.851  0.5220  0.3526 -0.6827
48556SOL    HW250226   5.662   1.245  11.806 -0.5718  0.2351  0.9375
48557SOL     OW50227   2.887   4.207   2.179 -0.2773 -0.4351  0.0266
48557SOL    HW150228   2.927   4.281   2.225 -0.5397 -0.2537 -0.0289
48557SOL    HW250229   2.930   4.130   2.214  0.8627 -0.1873 -0.7818
48558SOL     OW50230   5.797   5.093   9.491 -0.5297  0.2441 -0.7443
48558SOL    HW150231   5.789   5.122   9.582 -1.4363  1.3126 -1.1352
48558SOL    HW250232   5.871   5.144   9.456  0.4032 -0.8304 -0.3741
48559SOL     OW50233   8.409   0.160   9.334 -0.5088  0.5543  0.1945
48559SOL    HW150234   8.325   0.113   9.327 -0.7977  0.5381  2.9086
48559SOL    HW250235   8.384   0.251   9.348 -0.1521  0.4154  1.9433
48560SOL     OW50236   9.827   0.534   2.002  0.0503 -0.5041 -0.4628
48560SOL    HW150237   9.919   0.533   1.975  0.3856  1.5158  0.3634
48560SOL    HW250238   9.779   0.555   1.922  0.7428  2.3325 -0.2629
48561SOL     OW50239   5.371   8.549   9.995 -0.2851 -0.1976  0.3717
48561SOL    HW150240   5.390   8.627   9.944  0.0039 -0.9236 -0.6582
48561SOL    HW250241   5.305   8.577  10.058 -1.1147  0.5727 -0.8120
48562SOL     OW50242   5.848   4.226   1.719  0.6324  0.2135 -0.1712
48562SOL    HW150243   5.913   4.258   1.657  1.0885  0.5154  0.4496
48562SOL    HW250244   5.787   4.176   1.666  0.6911  0.9474 -0.9473
48563SOL     OW50245   1.928   3.391   3.290  0.3660  0.5172 -0.1802
48563SOL    HW150246   1.882   3.462   3.245 -0.6268  0.3898  0.6005
48563SOL    HW250247   2.020   3.409   3.274  0.2257  2.6760  0.9319
48564SOL     OW50248   7.246   0.678   4.901  0.2386  0.2148 -0.4664
48564SOL    HW150249   7.230   0.604   4.844 -0.0064 -0.2491  0.1938
48564SOL    HW250250   7.186   0.666   4.974  0.5282  0.8084 -0.1205
48565SOL     OW50251  10.399   7.483  11.155 -0.4642  0.6734 -0.5254
48565SOL    HW150252  10.417   7.418  11.087  0.5893  0.6586 -0.2525
48565SOL    HW250253  10.304   7.478  11.168 -0.5483 -0.0157 -1.2965
48566SOL     OW50254   4.033   9.413   5.392 -0.2157 -0.5429 -0.3995
48566SOL    HW150255   3.938   9.402   5.394 -0.0587 -2.2437 -0.9843
48566SOL    HW250256   4.066   9.351   5.457  0.4282  1.6925  1.5427
48567SOL     OW50257   9.722  11.845   5.551  0.2066 -0.1173 -0.3700
48567SOL    HW150258   9.644  11.891   5.520  0.2601  1.2600  1.3725
48567SOL    HW250259   9.790  11.912   5.554  0.6317 -0.5677  1.0591
48568SOL     OW50260   7.941   5.835   8.335 -0.1433 -0.0776 -0.3799
48568SOL    HW150261   7.977   5.746   8.336  1.3320  0.4957 -0.1494
48568SOL    HW250262   7.975   5.875   8.414  0.8443  1.3172 -1.4776
48569SOL     OW50263   6.856   7.989  10.771 -0.1313  0.6731  0.4966
48569SOL    HW150264   6.903   7.996  10.688  0.9430 -0.4628  0.9714
48569SOL    HW250265   6.838   8.079  10.797 -0.3277  1.0494 -0.8705
48570SOL     OW50266   4.691  10.408   2.593  0.0788 -0.2287  0.3301
48570SOL    HW150267   4.690  10.439   2.683 -3.1343 -0.4186  0.5056
48570SOL    HW250268   4.711  10.486   2.541 -2.6424  1.0811  1.0483
48571SOL     OW50269   0.157   8.123   3.528  0.0010 -0.4140  0.4368
48571SOL    HW150270   0.073   8.077   3.522  0.7590 -1.6436 -1.3523
48571SOL    HW250271   0.134   8.215   3.512 -1.1551 -0.5500  1.2058
48572SOL     OW50272   6.458  11.928   1.631  0.1979 -0.7349  0.4893
48572SOL    HW150273   6.374  11.901   1.592  1.0377 -2.4821 -0.2044
48572SOL    HW250274   6.450  11.904   1.723 -0.2952 -0.2861  0.5719
48573SOL     OW50275   1.663   0.840  11.167 -0.4582 -0.8408  0.1325
48573SOL    HW150276   1.665   0.747  11.186  0.6302 -1.3652 -2.1485
48573SOL    HW250277   1.608   0.848  11.089 -1.8301  0.6657  1.1734
48574SOL     OW50278  11.450   3.161   0.268 -0.8394 -0.7148  0.5641
48574SOL    HW150279  11.400   3.200   0.340 -0.2975 -2.0951  1.7257
48574SOL    HW250280  11.397   3.086   0.240 -0.6362 -0.6837  0.0860
48575SOL     OW50281  11.684   3.149   3.593  0.2988 -0.2723 -1.3686
48575SOL    HW150282  11.744   3.209   3.548  0.2992  0.9634  0.1937
48575SOL    HW250283  11.738   3.104   3.658 -0.1883 -0.0971 -0.8299
48576SOL     OW50284  11.927   6.247   4.689 -0.0966 -0.0817 -0.1366
48576SOL    HW150285  11.922   6.197   4.770 -0.4246  0.4383  0.1650
48576SOL    HW250286  11.837   6.277   4.674 -0.1230 -0.5155 -0.9105
48577SOL     OW50287   2.597  10.620  11.581 -0.6923 -0.5072  0.1753
48577SOL    HW150288   2.641  10.535  11.583  1.0430  0.3716  1.3516
48577SOL    HW250289   2.666  10.684  11.599 -2.2516  1.0414  1.0082
48578SOL     OW50290   9.424   2.973   1.556 -0.3579  0.0942  0.2144
48578SOL    HW150291   9.510   3.011   1.536  0.6478 -0.3738  3.2248
48578SOL    HW250292   9.395   3.018   1.635 -1.0313 -2.4660  1.5367
48579SOL     OW50293   7.621  11.470   7.708 -0.6111 -0.5992 -0.4123
48579SOL    HW150294   7.646  11.552   7.750 -0.5979 -0.4350 -0.7419
48579SOL    HW250295   7.665  11.472   7.623 -1.8175 -0.2569 -1.0507
48580SOL     OW50296   9.771   8.804   0.350  0.6903  0.1565 -0.1076
48580SOL    HW150297   9.784   8.889   0.308 -2.0076  1.2082  0.9942
48580SOL    HW250298   9.710   8.758   0.293  0.0336  0.0528  0.6608
48581SOL     OW50299   1.225   4.557   9.696  0.1010  0.5177  1.1756
48581SOL    HW150300   1.159   4.493   9.723 -0.1770 -0.0584 -0.7249
48581SOL    HW250301   1.204   4.576   9.605  2.1113  0.8660  0.7388
48582SOL     OW50302  11.067   5.873  10.359  0.3986 -0.1442 -0.2824
48582SOL    HW150303  11.082   5.787  10.398  1.3907 -1.0663 -2.5637
48582SOL    HW250304  11.122   5.874  10.281 -0.0864  2.3363 -0.6693
48583SOL     OW50305   8.576  11.438  10.293  0.1458  0.0647  0.0882
48583SOL    HW150306   8.588  11.358  10.343  0.3364  0.6673  1.0217
48583SOL    HW250307   8.614  11.507  10.348 -1.3602  1.0113 -0.0131
48584SOL     OW50308   1.784   1.069  10.155 -0.4960 -0.1293  0.6168
48584SOL    HW150309   1.711   1.009  10.138 -0.1277 -0.5043  0.3371
48584SOL    HW250310   1.859   1.011  10.171 -0.1630  0.2580  0.4615
48585SOL     OW50311   9.524   1.755   8.435 -0.1175 -0.6022 -0.2027
48585SOL    HW150312   9.540   1.754   8.340  1.9796 -0.2512  0.0900
48585SOL    HW250313   9.561   1.672   8.466  1.1909  0.2282  0.5457
48586SOL     OW50314  10.696   7.987   6.004  0.5298  0.4125 -0.0621
48586SOL    HW150315  10.671   7.923   6.071  3.3218  0.0457  0.7934
48586SOL    HW250316  10.646   7.962   5.927  0.2971 -1.8240  0.7275
48587SOL     OW50317   2.411   8.103   5.172  0.1429 -0.1431 -0.3177
48587SOL    HW150318   2.433   8.056   5.091 -0.6306  0.2054 -0.7468
48587SOL    HW250319   2.405   8.195   5.145 -0.8588 -0.1079 -0.0345
48588SOL     OW50320   6.289   3.663   8.546  0.6002  0.4895 -0.4870
48588SOL    HW150321   6.203   3.704   8.535 -0.0340 -0.8527 -0.8718
48588SOL    HW250322   6.343   3.702   8.477 -0.5252 -0.6346 -2.0945
48589SOL     OW50323   6.985   0.897   9.842 -0.0694 -0.1091  0.3755
48589SOL    HW150324   6.971   0.809   9.879 -0.8242  0.1108  0.6429
48589SOL    HW250325   6.898   0.924   9.812  0.4266 -0.0449 -1.0575
48590SOL     OW50326   1.591   7.473   3.617  0.0550  0.5251  0.0290
48590SOL    HW150327   1.538   7.472   3.537 -0.6616 -1.1322  0.4778
48590SOL    HW250328   1.617   7.565   3.628  0.8706  0.6697 -2.5360
48591SOL     OW50329  11.391   8.792   8.283  0.4597 -0.2204 -0.0237
48591SOL    HW150330  11.380   8.883   8.309  1.1144 -0.4336  1.0346
48591SOL    HW250331  11.481   8.771   8.307  0.7558 -0.7470 -1.5322
48592SOL     OW50332   3.069   9.962   0.905 -0.3823 -0.0764  0.3422
48592SOL    HW150333   3.102   9.974   0.816 -0.8320  2.6656  0.4699
48592SOL    HW250334   3.147   9.960   0.960 -0.1387 -1.0565 -0.0161
48593SOL     OW50335   6.733  10.098   1.256 -0.1439 -0.3921 -0.2844
48593SOL    HW150336   6.717  10.171   1.197 -0.0017  0.6485  0.9113
48593SOL    HW250337   6.817  10.119   1.298 -0.3682 -0.9557  0.4765
48594SOL     OW50338   0.004   4.195   8.915  0.4869 -0.3077  0.2328
48594SOL    HW150339  -0.049   4.116   8.912  0.6863 -0.4637  0.6702
48594SOL    HW250340  -0.055   4.263   8.948  0.6148 -0.5361  0.9565
48595SOL     OW50341   2.255  10.177   0.761  0.5930  0.2242 -0.0621
48595SOL    HW150342   2.163  10.162   0.780  0.5913  0.0335 -0.2109
48595SOL    HW250343   2.283  10.243   0.824  0.6525 -0.5951  0.7976
48596SOL     OW50344   6.453   4.841   3.186  0.4228  0.4517  0.3670
48596SOL    HW150345   6.417   4.903   3.122  1.5906 -0.8385 -1.6729
48596SOL    HW250346   6.545   4.869   3.196  0.2154  0.7352  1.6617
48597SOL     OW50347   1.941  11.918   3.711  0.3370 -0.0584  0.0062
48597SOL    HW150348   2.004  11.890   3.777 -1.2741  0.4017  1.8284
48597SOL    HW250349   1.857  11.919   3.757 -1.1051 -1.0604 -2.4275
48598SOL     OW50350   9.462   9.309   4.439  0.2055 -0.2099 -0.3516
48598SOL    HW150351   9.554   9.285   4.430 -0.0482 -0.8262 -1.5090
48598SOL    HW250352   9.449   9.378   4.374 -0.2421 -0.4497 -0.5251
48599SOL     OW50353   9.119   1.831  11.488  0.0471  0.3148  0.1788
48599SOL    HW150354   9.197   1.874  11.452 -1.7400  0.9552 -3.3215
48599SOL    HW250355   9.144   1.739  11.495  0.9843  0.3979 -1.5298
48600SOL     OW50356  10.122   4.750   4.177  0.4384  0.0421  0.4638
48600SOL    HW150357  10.089   4.793   4.098  0.0648  2.4757  1.8199
48600SOL    HW250358  10.056   4.684   4.198 -0.3841  0.6091 -0.2613
48601SOL     OW50359  11.802   3.520   6.676 -1.0956 -0.1548  0.0789
48601SOL    HW150360  11.854   3.494   6.600  0.7877  3.4104 -0.0812
48601SOL    HW250361  11.735   3.579   6.640 -2.9548 -1.7693  0.7539
48602SOL     OW50362   8.419   6.319   7.461 -0.1660  0.0728 -0.7962
48602SOL    HW150363   8.357   6.390   7.478 -0.0445  0.3113 -1.3377
48602SOL    HW250364   8.449   6.293   7.548 -1.6527 -0.6253 -0.4523
48603SOL     OW50365   7.579   7.543   5.446  0.1229  0.4884 -0.4621
48603SOL    HW150366   7.531   7.462   5.462  0.4773  0.5972  1.3016
48603SOL    HW250367   7.513   7.604   5.413  0.1713 -0.9627 -3.6087
48604SOL     OW50368   8.449   6.594   1.716  0.0831  0.4519 -0.1186
48604SOL    HW150369   8.425   6.686   1.727  1.0170  0.5715  1.2389
48604SOL    HW250370   8.378   6.545   1.757 -0.5434  0.5352 -1.0730
48605SOL     OW50371   7.881   1.338   9.949  0.7992  0.1157  0.1659
48605SOL    HW150372   7.935   1.402   9.996 -1.8045  1.6581  1.2612
48605SOL    HW250373   7.829   1.391   9.888  0.4602 -1.2898 -0.8043
48606SOL     OW50374   3.389   3.664   1.742 -0.0357  0.5472 -0.4622
48606SOL    HW150375   3.340   3.638   1.819  1.0873 -2.1840 -0.5793
48606SOL    HW250376   3.481   3.651   1.766  0.4002  0.8897 -1.8295
48607SOL     OW50377   4.685   2.984   3.628 -0.0638  0.0359  0.2267
48607SOL    HW150378   4.766   2.965   3.675 -0.3652 -2.3855 -0.0903
48607SOL    HW250379   4.618   2.933   3.673 -0.9087 -0.0913 -1.1037
48608SOL     OW50380   1.040   2.455   3.954 -0.4880  0.4874  0.1453
48608SOL    HW150381   1.034   2.544   3.990 -1.2038  0.8950 -0.9215
48608SOL    HW250382   1.105   2.411   4.009 -0.4854  1.5183  0.9989
48609SOL     OW50383   4.866   5.531   6.357  0.0939 -0.0361  0.0412
48609SOL    HW150384   4.947   5.480   6.347  0.0007 -0.1961  0.1029
48609SOL    HW250385   4.808   5.497   6.289 -0.1562 -0.3764  0.4204
48610SOL     OW50386  11.941  10.054   3.085  0.2600 -0.8479  0.0427
48610SOL    HW150387  11.882  10.121   3.119  0.1307  0.3064 -2.2547
48610SOL    HW250388  11.886   9.976   3.077 -0.6731 -0.1288 -0.8984
48611SOL     OW50389   5.343  10.177   5.808 -0.1670  0.0988  0.0636
48611SOL    HW150390   5.382  10.090   5.805  1.0658  0.5928  0.7577
48611SOL    HW250391   5.287  10.177   5.885 -1.4531 -0.5621 -0.8386
48612SOL     OW50392  10.689   2.646  10.853  0.0914 -0.2820 -0.2593
48612SOL    HW150393  10.625   2.612  10.916  1.4247 -1.3506  0.5823
48612SOL    HW250394  10.651   2.728  10.821 -0.7534  0.1376  1.7223
48613SOL     OW50395   6.808  11.161   8.510  0.1597 -0.4112 -0.0953
48613SOL    HW150396   6.770  11.128   8.591  1.8086 -2.0576  0.0896
48613SOL    HW250397   6.798  11.256   8.514 -2.8059 -0.6603  0.4248
48614SOL     OW50398   1.417   1.844   9.479 -0.1153 -0.3498  0.3130
48614SOL    HW150399   1.475   1.814   9.549 -0.2492 -1.1958  0.0687
48614SOL    HW250400   1.329   1.839   9.518 -0.0219  1.6698  0.9528
48615SOL     OW50401   7.423  11.510  11.222  0.2547 -0.2268 -0.3684
48615SOL    HW150402   7.353  11.445  11.218  0.7419 -0.6880 -2.0620
48615SOL    HW250403   7.391  11.583  11.169 -0.1729  0.8607  1.2981
48616SOL     OW50404   7.490  10.630   3.971 -0.2534  0.4796  0.0302
48616SOL    HW150405   7.403  10.662   3.995 -0.5363 -0.7800  0.8165
48616SOL    HW250406   7.473  10.555   3.914  0.2092 -0.8891  1.5930
48617SOL     OW50407   1.617   6.852   4.783 -1.0241 -0.4572  0.0049
48617SOL    HW150408   1.594   6.784   4.846 -2.5644 -0.8813 -0.9617
48617SOL    HW250409   1.627   6.806   4.700 -0.0838  0.2389 -0.2929
48618SOL     OW50410   9.206   6.989   0.587 -0.6464  0.4299  0.3333
48618SOL    HW150411   9.164   6.963   0.505  0.2794  0.8428 -0.2816
48618SOL    HW250412   9.186   7.082   0.596 -2.0313  0.0693  1.3753
48619SOL     OW50413   4.845   8.142  10.216  0.1401  0.2181 -0.1440
48619SOL    HW150414   4.922   8.101  10.254 -0.3834 -0.3779  0.3003
48619SOL    HW250415   4.816   8.081  10.148 -3.0770 -2.4643  3.2088
48620SOL     OW50416   5.718   0.475   1.093  0.0353 -0.4901  0.1731
48620SOL    HW150417   5.696   0.533   1.166 -0.4960 -0.8668  0.3152
48620SOL    HW250418   5.814   0.476   1.090  0.0538 -0.2641  0.7056
48621SOL     OW50419   8.795   6.509   6.174  0.3984 -0.0366  0.0288
48621SOL    HW150420   8.791   6.460   6.256 -0.6261  0.8137  0.5204
48621SOL    HW250421   8.814   6.443   6.107 -1.0340 -1.1312  0.6459
48622SOL     OW50422   0.062   3.925   3.965  0.5776 -0.0379 -0.4999
48622SOL    HW150423   0.094   3.844   4.003 -1.7505 -0.6602  0.3106
48622SOL    HW250424  -0.022   3.940   4.009  0.8044  2.6656 -0.8315
48623SOL     OW50425   7.390   3.806   7.839 -0.3881 -0.4716 -0.3218
48623SOL    HW150426   7.416   3.870   7.905 -1.0975 -0.1363 -0.3634
48623SOL    HW250427   7.335   3.744   7.886 -1.9094  0.4465 -0.8341
48624SOL     OW50428   9.704   6.917   6.523 -0.0313 -0.0209 -0.3314
48624SOL    HW150429   9.759   6.889   6.597 -0.3785 -1.2910 -0.5232
48624SOL    HW250430   9.766   6.940   6.454  0.3021 -1.3454 -0.5140
48625SOL     OW50431   9.589   3.120   5.572  0.5516  0.2025  0.4738
48625SOL    HW150432   9.517   3.162   5.525 -0.4154 -1.2706  0.5777
48625SOL    HW250433   9.633   3.067   5.505  2.6981  2.4097 -0.0144
48626SOL     OW50434   6.572  11.686   4.969  0.6451 -0.1191  0.7648
48626SOL    HW150435   6.556  11.592   4.971 -3.0130  0.3950  2.5741
48626SOL    HW250436   6.574  11.708   4.875  0.2593 -1.7780  0.3338
48627SOL     OW50437   7.003   1.305   0.038 -0.1062 -0.4205 -0.2351
48627SOL    HW150438   7.061   1.290   0.113 -1.5196 -0.9038  0.8181
48627SOL    HW250439   7.061   1.310  -0.037  1.2093 -2.3384  0.5738
48628SOL     OW50440   1.744   4.635   7.657 -1.2013  0.5792 -0.2293
48628SOL    HW150441   1.672   4.635   7.719  0.4958  1.1303  1.8734
48628SOL    HW250442   1.760   4.727   7.638 -1.2508  0.4479 -0.9488
48629SOL     OW50443   6.294   0.809   4.427  0.0594  0.0545 -0.2176
48629SOL    HW150444   6.328   0.801   4.516  0.7317 -0.2886 -0.5049
48629SOL    HW250445   6.310   0.724   4.387 -2.0722 -0.4971 -0.0553
48630SOL     OW50446  10.025  11.590   6.302 -0.5716  0.0123 -0.4390
48630SOL    HW150447  10.095  11.571   6.239 -0.0784  1.5003 -0.3827
48630SOL    HW250448  10.055  11.549   6.384  1.2719  2.2843  0.1267
48631SOL     OW50449   5.874  11.780  11.160 -0.0107 -0.4091 -0.0614
48631SOL    HW150450   5.896  11.831  11.082  1.2881 -0.1757  0.4387
48631SOL    HW250451   5.932  11.814  11.228 -1.6653 -0.0763  1.2333
48632SOL     OW50452  10.048   0.796  11.417  0.3262  0.4568 -0.9627
48632SOL    HW150453  10.064   0.881  11.459 -2.3580  1.7880 -2.3260
48632SOL    HW250454   9.999   0.746  11.482 -0.3474  0.9897 -1.0449
48633SOL     OW50455  10.706  10.802   0.747 -0.0138 -0.7560  0.2366
48633SOL    HW150456  10.714  10.895   0.729 -2.6793 -0.1042  1.7622
48633SOL    HW250457  10.743  10.759   0.671 -0.8853  1.5979 -1.6388
48634SOL     OW50458   0.160  11.516   4.090 -0.0074  0.1784  0.1229
48634SOL    HW150459   0.091  11.563   4.137 -1.5283 -1.2442 -0.5978
48634SOL    HW250460   0.197  11.457   4.156  0.4725  0.8538  0.4774
48635SOL     OW50461   6.627  11.103   3.646  0.6408  0.1523 -0.0697
48635SOL    HW150462   6.722  11.109   3.654  0.5986  1.3293 -0.2105
48635SOL    HW250463   6.612  11.030   3.586  1.5915  1.6865 -2.3052
48636SOL     OW50464   9.202   0.600   8.837 -0.1255 -0.3460 -0.7393
48636SOL    HW150465   9.232   0.510   8.825 -0.2002 -0.2729 -1.5240
48636SOL    HW250466   9.283   0.651   8.848 -0.0892 -0.9120  3.2401
48637SOL     OW50467   0.359   5.196   3.118 -0.4957 -0.3656  0.3116
48637SOL    HW150468   0.428   5.131   3.136 -0.4970 -0.6638 -0.7064
48637SOL    HW250469   0.333   5.179   3.027 -1.0245  0.5785  0.2759
48638SOL     OW50470   8.682   3.612   9.100  0.3678 -0.0346 -0.0976
48638SOL    HW150471   8.742   3.541   9.121  0.9227  0.6474  0.6683
48638SOL    HW250472   8.711   3.686   9.154 -0.9159  0.4263  0.0006
48639SOL     OW50473   7.726  11.820   7.449  0.1132  0.2396 -0.5236
48639SOL    HW150474   7.780  11.871   7.389  0.1850  1.4903  0.5645
48639SOL    HW250475   7.788  11.783   7.512  0.0814 -1.3677 -1.3877
48640SOL     OW50476   6.148  10.521   6.282  0.2383 -0.2208  0.2617
48640SOL    HW150477   6.125  10.489   6.195 -0.1043 -0.7615  0.5455
48640SOL    HW250478   6.155  10.616   6.272 -1.3648 -0.1017 -0.0091
48641SOL     OW50479   0.113  11.161   7.319 -0.0597 -0.5307 -0.2126
48641SOL    HW150480   0.028  11.191   7.289  0.1378  2.1432  1.5510
48641SOL    HW250481   0.173  11.233   7.299  1.6463 -1.9678 -0.5893
48642SOL     OW50482   3.713   2.617   5.799  0.0903  0.1119 -0.1292
48642SOL    HW150483   3.730   2.710   5.817  2.2809 -0.2955  0.1746
48642SOL    HW250484   3.724   2.609   5.704  1.7539 -0.1385  0.0592
48643SOL     OW50485   2.819  10.876   1.964 -0.5328  0.4169 -0.0359
48643SOL    HW150486   2.894  10.916   2.006  1.0942 -0.6846 -1.7467
48643SOL    HW250487   2.785  10.943   1.905  0.1314  0.3964 -0.4509
48644SOL     OW50488   5.553   7.294   2.847  0.5271 -0.2781 -0.2838
48644SOL    HW150489   5.631   7.343   2.821  0.1396 -0.1561 -1.2642
48644SOL    HW250490   5.481   7.338   2.800 -0.1438 -0.3232  0.6799
48645SOL     OW50491  10.549   3.261  11.815  0.3275  0.1914  0.4192
48645SOL    HW150492  10.463   3.233  11.784  0.7363  1.7729 -2.5545
48645SOL    HW250493  10.545   3.356  11.817  2.4061  0.4078 -1.4057
48646SOL     OW50494   9.460   5.303   0.231 -0.1709 -0.3577 -0.0197
48646SOL    HW150495   9.414   5.377   0.269  0.1418 -0.5694  0.8139
48646SOL    HW250496   9.397   5.231   0.234 -0.0346 -0.4618  0.4359
48647SOL     OW50497   9.138   1.398   2.579  0.0077 -0.6817  0.3504
48647SOL    HW150498   9.147   1.303   2.587 -2.0677 -1.0051 -0.4963
48647SOL    HW250499   9.146   1.430   2.669  1.2852 -1.5706  0.5836
48648SOL     OW50500   8.385   5.059   0.559 -0.5700  0.1394 -0.4640
48648SOL    HW150501   8.372   5.127   0.626  2.2519 -0.8634  1.3094
48648SOL    HW250502   8.451   5.001   0.597 -0.8253 -2.0459 -3.0695
48649SOL     OW50503   3.958   0.387   9.646  0.2300 -0.1260  0.4365
48649SOL    HW150504   3.868   0.377   9.616  0.3661  2.5469 -1.2066
48649SOL    HW250505   3.955   0.361   9.738 -1.0274 -5.0577 -0.6874
48650SOL     OW50506   8.010  11.812  12.042  0.1213 -0.1070  0.3976
48650SOL    HW150507   8.021  11.904  12.064  1.0856 -0.3353  0.9460
48650SOL    HW250508   7.996  11.810  11.947 -0.8685  0.6574  0.5088
48651SOL     OW50509   2.409   7.264   3.354 -0.7818  0.0005  0.2922
48651SOL    HW150510   2.345   7.200   3.385  0.0835 -0.3677  1.3867
48651SOL    HW250511   2.396   7.340   3.410  2.4260 -1.5276  3.4585
48652SOL     OW50512   4.458  11.141   3.093  0.1018 -0.1035  0.2227
48652SOL    HW150513   4.468  11.048   3.072 -0.8190 -0.1218 -0.1791
48652SOL    HW250514   4.366  11.160   3.073 -0.5450  0.1786  3.0073
48653SOL     OW50515   1.005   0.271   6.310 -0.2678  0.0670 -0.1822
48653SOL    HW150516   0.955   0.191   6.327 -0.4000 -0.2800 -1.9897
48653SOL    HW250517   0.998   0.283   6.215 -0.6929  2.5084  0.0996
48654SOL     OW50518   7.763   0.139   1.967  0.1740 -0.3048  0.4517
48654SOL    HW150519   7.773   0.230   1.939 -0.4862  0.1903  1.7496
48654SOL    HW250520   7.684   0.109   1.924  1.5010 -0.9841 -1.6754
48655SOL     OW50521  11.892   9.927   6.985 -0.0765 -0.2018 -0.2552
48655SOL    HW150522  11.846   9.961   6.908  0.3469  0.2912 -0.2992
48655SOL    HW250523  11.860   9.837   6.995 -0.0096 -0.3247 -1.1070
48656SOL     OW50524  11.393   6.087  10.113 -0.4848  0.1597  0.1211
48656SOL    HW150525  11.312   6.042  10.136  0.0220 -0.8451  0.0252
48656SOL    HW250526  11.431   6.115  10.196  0.6784 -2.2774  0.5145
48657SOL     OW50527  11.375   4.513   8.407 -0.1530 -0.5643  0.8028
48657SOL    HW150528  11.285   4.525   8.439  0.2431 -0.0996  1.7935
48657SOL    HW250529  11.420   4.594   8.432  0.1711 -0.1222 -1.0636
48658SOL     OW50530   0.977   2.189   1.482  0.6428  0.1509  0.4934
48658SOL    HW150531   1.044   2.181   1.550  1.6158 -4.6842 -0.6954
48658SOL    HW250532   0.902   2.141   1.516  0.7204 -1.3236 -1.2494
48659SOL     OW50533   3.998   3.021   1.244 -0.5372 -0.3217  0.7284
48659SOL    HW150534   3.937   2.980   1.305 -0.9641  0.5576  0.9001
48659SOL    HW250535   4.015   2.953   1.178 -2.9293 -0.0983 -0.2213
48660SOL     OW50536   4.487   3.100   4.458  0.1682  0.6287 -0.0180
48660SOL    HW150537   4.517   3.116   4.548  0.2671  0.3282  0.0030
48660SOL    HW250538   4.465   3.187   4.425  1.9736  0.9921 -0.3666
48661SOL     OW50539   2.514  11.868  10.366 -0.5474 -0.0877 -0.6658
48661SOL    HW150540   2.508  11.858  10.461  3.1862 -0.2736 -0.3119
48661SOL    HW250541   2.512  11.963  10.352  1.4536  0.0885 -0.0498
48662SOL     OW50542   6.686   5.015   2.728 -0.2925 -0.4632  0.2626
48662SOL    HW150543   6.644   5.090   2.684 -0.3743 -1.5560 -1.6403
48662SOL    HW250544   6.772   5.048   2.755 -0.8166  0.6657  0.6116
48663SOL     OW50545   3.282  11.948   6.002  0.0193  0.2253  0.0798
48663SOL    HW150546   3.227  11.997   5.941  1.8415 -0.1794 -2.0490
48663SOL    HW250547   3.308  11.871   5.953  0.3571 -0.9238  1.9764
48664SOL     OW50548   6.239  10.568   3.687  0.3417  0.4324  0.0823
48664SOL    HW150549   6.194  10.638   3.641  0.7906  1.0654  0.5926
48664SOL    HW250550   6.278  10.514   3.617 -1.4945 -0.3620 -0.3871
48665SOL     OW50551   5.727   7.953   3.762  0.0217 -0.3174 -0.5551
48665SOL    HW150552   5.704   7.860   3.764  0.1777 -0.3499 -0.3009
48665SOL    HW250553   5.719   7.982   3.852  1.0240 -0.3413 -0.4482
48666SOL     OW50554   6.671   0.168   4.719  0.4849  0.3788 -0.1544
48666SOL    HW150555   6.729   0.092   4.728  0.5640  0.3554 -0.8303
48666SOL    HW250556   6.678   0.213   4.803 -0.5700 -1.0618  0.7663
48667SOL     OW50557   7.342   5.469  11.306 -0.6781  0.3778  0.9880
48667SOL    HW150558   7.344   5.374  11.316  1.0600  0.1573 -0.8027
48667SOL    HW250559   7.327   5.483  11.212 -0.0223  1.8406  1.0694
48668SOL     OW50560   4.416   1.174   1.746 -0.1854 -0.4921  0.0494
48668SOL    HW150561   4.349   1.126   1.795  0.1451 -0.4287  0.5803
48668SOL    HW250562   4.375   1.197   1.663 -1.2720  0.7420  0.9001
48669SOL     OW50563  11.427  12.079   2.478 -0.3046 -0.4981 -0.1892
48669SOL    HW150564  11.469  12.076   2.564  0.0682  1.2499 -0.2623
48669SOL    HW250565  11.500  12.097   2.418 -0.0740 -4.3481 -1.3238
48670SOL     OW50566   5.964   1.569  11.639  0.0425 -0.2883  0.4011
48670SOL    HW150567   5.988   1.548  11.729  2.6309 -1.4240 -0.4724
48670SOL    HW250568   5.889   1.513  11.620 -0.1407 -0.4814  1.6411
48671SOL     OW50569  11.775   8.369   6.895 -0.0279  0.5682 -0.4849
48671SOL    HW150570  11.757   8.365   6.801  0.2645 -1.7199 -0.5114
48671SOL    HW250571  11.700   8.326   6.936  1.0704 -0.9185  0.0702
48672SOL     OW50572   7.260   1.232   6.483 -0.4134 -0.2646  0.0291
48672SOL    HW150573   7.241   1.242   6.576 -1.3412 -0.2636 -0.1516
48672SOL    HW250574   7.242   1.317   6.444 -1.7800 -0.7247 -0.4221
48673SOL     OW50575  10.885  10.434   1.004 -0.3291  1.0636 -0.5863
48673SOL    HW150576  10.793  10.436   1.032 -0.4043  0.2003 -0.7604
48673SOL    HW250577  10.881  10.405   0.913  0.1432  0.6126 -0.4642
48674SOL     OW50578   6.844   7.942   0.207 -0.3626 -0.4199  0.1359
48674SOL    HW150579   6.813   7.905   0.290 -3.2114  0.2069 -0.5638
48674SOL    HW250580   6.808   7.884   0.140 -1.2854  1.1804 -0.7984
48675SOL     OW50581   1.794  11.278   8.149  0.4838  0.0877 -0.1545
48675SOL    HW150582   1.886  11.288   8.174 -0.0982  0.7377  1.9702
48675SOL    HW250583   1.748  11.346   8.198 -1.2344 -0.6519 -0.6397
48676SOL     OW50584   8.275   4.437   8.641  0.0654  0.1741 -0.8127
48676SOL    HW150585   8.187   4.464   8.614 -0.9167 -1.3675  0.6011
48676SOL    HW250586   8.301   4.503   8.705 -1.0940 -0.5722  0.4945
48677SOL     OW50587   6.567   2.765   3.564  0.4189  0.1260 -0.3110
48677SOL    HW150588   6.586   2.691   3.621  4.3934  0.5950 -0.7678
48677SOL    HW250589   6.494   2.735   3.510  0.9435 -2.8883  0.4788
48678SOL     OW50590  10.025  11.434   4.610 -0.0860 -0.2748  0.9229
48678SOL    HW150591   9.951  11.466   4.557 -1.2248 -2.7399  0.8937
48678SOL    HW250592   9.987  11.423   4.697  0.0877 -1.9903  0.8052
48679SOL     OW50593   6.446   6.425   8.212 -0.1289 -0.0232 -0.2110
48679SOL    HW150594   6.520   6.377   8.250 -1.3452 -0.2974  1.9555
48679SOL    HW250595   6.440   6.506   8.263 -1.1983  0.0758 -0.4655
48680SOL     OW50596   9.512   3.205   4.260 -0.0725  0.0996  0.3109
48680SOL    HW150597   9.538   3.155   4.183 -1.0835  0.2674 -0.1504
48680SOL    HW250598   9.506   3.140   4.330 -0.6405 -0.3191 -0.1117
48681SOL     OW50599  10.393  11.872   6.944 -0.3926 -0.2087  0.4135
48681SOL    HW150600  10.384  11.901   6.853 -1.3191 -0.2429  0.4862
48681SOL    HW250601  10.371  11.779   6.942  0.4569 -0.4276  0.5411
48682SOL     OW50602  10.934   7.960   6.137  0.0454  0.2670  0.0900
48682SOL    HW150603  10.850   7.971   6.091 -1.3691 -1.3718  2.0745
48682SOL    HW250604  10.976   7.887   6.091 -0.2507  0.1923 -0.0691
48683SOL     OW50605   1.848  12.055   1.689  0.2285 -0.2318 -0.3948
48683SOL    HW150606   1.874  12.145   1.670  0.5770 -0.5811 -1.6532
48683SOL    HW250607   1.784  12.033   1.622 -0.8340 -0.5071  0.6805
48684SOL     OW50608   5.990   3.538   7.132  0.4635  0.3144  0.0055
48684SOL    HW150609   6.047   3.486   7.075  1.3374 -0.3029  1.3780
48684SOL    HW250610   5.902   3.519   7.101  0.7847 -1.5970  0.1035
48685SOL     OW50611   7.891  11.772   8.828  0.3778  0.1264  0.2525
48685SOL    HW150612   7.842  11.715   8.887  0.1626  0.4023  0.3427
48685SOL    HW250613   7.968  11.721   8.804 -1.1523 -1.3200 -1.9216
48686SOL     OW50614   8.808  11.607  11.551  0.3139  0.7829 -0.2426
48686SOL    HW150615   8.828  11.548  11.479  0.7475  0.1313  0.4034
48686SOL    HW250616   8.866  11.580  11.622  0.0082  1.5165  0.3074
48687SOL     OW50617   0.469   0.334  10.569  0.1062 -0.1064 -0.5468
48687SOL    HW150618   0.487   0.295  10.655  2.1046 -0.0106 -0.8564
48687SOL    HW250619   0.466   0.429  10.586 -1.2535 -0.1662 -0.3407
48688SOL     OW50620   7.465  11.379   1.622 -0.0323  0.4596 -0.1588
48688SOL    HW150621   7.505  11.312   1.567 -0.7957 -0.7901  0.7487
48688SOL    HW250622   7.518  11.457   1.606  1.4226 -0.5646 -0.6326
48689SOL     OW50623   0.726   1.551   5.497 -0.4050 -0.1888  0.2163
48689SOL    HW150624   0.807   1.588   5.462 -0.1167  0.0863  1.1439
48689SOL    HW250625   0.712   1.599   5.579 -1.2595 -0.5564  0.2878
48690SOL     OW50626  11.000   4.659   0.297 -0.1997  0.0949 -0.6543
48690SOL    HW150627  10.967   4.612   0.220  0.0641 -0.1896 -0.5953
48690SOL    HW250628  11.059   4.597   0.340  1.7513  1.1568 -1.6765
48691SOL     OW50629   5.059   4.969   1.143 -0.4336  0.1420 -0.4775
48691SOL    HW150630   5.073   4.889   1.093  1.5775  0.0713  0.1221
48691SOL    HW250631   4.980   4.952   1.195 -0.8040 -0.9074 -1.3518
48692SOL     OW50632   5.760   5.024   5.236 -0.1437 -0.2084  0.2014
48692SOL    HW150633   5.803   5.093   5.287 -1.1271 -0.0877  0.9057
48692SOL    HW250634   5.725   4.965   5.302  1.8642 -2.1892 -0.3960
48693SOL     OW50635   5.477   1.383   8.206  0.0272  0.1428 -0.4245
48693SOL    HW150636   5.446   1.473   8.201  1.0080  0.5344  0.2116
48693SOL    HW250637   5.427   1.344   8.278 -1.0409 -0.1105 -1.2719
48694SOL     OW50638   5.856   2.193   5.695 -0.1744  0.5350  0.3750
48694SOL    HW150639   5.859   2.200   5.790 -0.6649  1.4167  0.3435
48694SOL    HW250640   5.824   2.105   5.678 -1.2720  0.7871  1.0597
48695SOL     OW50641   3.965   4.025   9.893 -0.0909  0.2263  0.4768
48695SOL    HW150642   3.931   4.056   9.809 -0.1644 -1.9238 -0.3462
48695SOL    HW250643   3.893   4.039   9.954 -0.3235  1.0748  0.0299
48696SOL     OW50644   8.913   2.071   8.666  0.4064  0.7279  0.0451
48696SOL    HW150645   8.981   2.052   8.730 -1.5433 -0.2598  1.9811
48696SOL    HW250646   8.907   2.167   8.664  2.8986  0.9409 -1.4737
48697SOL     OW50647   0.148   6.530  11.824  0.2459  0.1601  0.1270
48697SOL    HW150648   0.172   6.455  11.769 -2.1627 -2.1053  1.8944
48697SOL    HW250649   0.145   6.604  11.764  1.5278 -1.3876 -1.9799
48698SOL     OW50650   4.840  10.204   5.936  0.4958 -0.0275  0.6208
48698SOL    HW150651   4.779  10.153   5.882 -1.1553  2.3464  0.0639
48698SOL    HW250652   4.872  10.142   6.001 -0.2424 -2.1070 -0.8738
48699SOL     OW50653   7.973  10.879   5.291  0.3498  0.1358  0.2737
48699SOL    HW150654   8.010  10.953   5.338  0.1612  0.9497 -0.8312
48699SOL    HW250655   7.918  10.918   5.223 -0.2192 -1.0180  0.0391
48700SOL     OW50656   6.370   7.216   9.011  0.1317  0.5921  0.4711
48700SOL    HW150657   6.375   7.263   9.094  0.6685  2.4859 -0.5677
48700SOL    HW250658   6.391   7.283   8.945  0.7131 -1.0782 -1.1075
48701SOL     OW50659   9.245   5.550  11.620  0.0465  0.3049 -0.3745
48701SOL    HW150660   9.288   5.485  11.563  0.9507  0.0484  0.5568
48701SOL    HW250661   9.318   5.592  11.666 -0.5717  1.5803 -0.5212
48702SOL     OW50662   3.100  11.243   9.959 -0.4391 -0.1691  0.2409
48702SOL    HW150663   3.050  11.302  10.015 -0.7814  1.0012 -1.2188
48702SOL    HW250664   3.191  11.253   9.986 -0.7573 -0.8436  1.6239
48703SOL     OW50665   0.477  10.613  10.624  0.9936 -0.4436  0.5460
48703SOL    HW150666   0.475  10.709  10.632  1.2649 -0.3772 -0.1299
48703SOL    HW250667   0.438  10.582  10.706  2.2252  0.2098  1.4177
48704SOL     OW50668   3.341   2.976   2.501  0.3866  0.2116 -0.5516
48704SOL    HW150669   3.386   2.901   2.461  0.8322  0.9294 -1.4335
48704SOL    HW250670   3.395   2.999   2.577  0.2157 -0.3944 -0.2438
48705SOL     OW50671   4.168  10.398   7.314 -0.4308 -0.3436  0.5684
48705SOL    HW150672   4.232  10.391   7.243  0.2318  0.5827  1.0429
48705SOL    HW250673   4.141  10.490   7.314 -0.8543 -0.4566  1.1457
48706SOL     OW50674   0.045   1.329   1.874 -0.0076  0.2829  0.2908
48706SOL    HW150675   0.088   1.263   1.928  0.3406  0.4025  0.1641
48706SOL    HW250676  -0.049   1.317   1.890 -0.0078 -0.9306 -0.5211
48707SOL     OW50677   8.299  11.234   3.323  0.8507 -0.2558 -0.1526
48707SOL    HW150678   8.231  11.259   3.385 -0.3525 -2.6891 -0.3834
48707SOL    HW250679   8.351  11.313   3.312 -1.2156  1.3580  0.9412
48708SOL     OW50680   4.255  10.141   5.503  0.4744 -0.0646 -0.2426
48708SOL    HW150681   4.325  10.200   5.530  2.3199 -1.6414 -1.3597
48708SOL    HW250682   4.274  10.059   5.548 -0.3796 -0.6694 -0.9533
48709SOL     OW50683   3.893   8.487   2.998 -0.7507 -0.1204  0.4720
48709SOL    HW150684   3.884   8.400   3.037 -0.4595  0.2217  1.3294
48709SOL    HW250685   3.847   8.481   2.915 -0.1627 -1.2877  0.2124
48710SOL     OW50686   4.042   2.651   2.753 -0.4238 -0.3292  0.2023
48710SOL    HW150687   4.116   2.660   2.693 -1.9766  0.8915 -1.6558
48710SOL    HW250688   4.063   2.711   2.825  1.5006 -1.8617  0.9884
48711SOL     OW50689   8.451   6.847   2.094 -0.9297 -0.2137 -0.5621
48711SOL    HW150690   8.499   6.772   2.130 -0.5291  0.7550  1.0410
48711SOL    HW250691   8.371   6.809   2.058 -0.4994 -1.4785 -0.2564
48712SOL     OW50692   0.366   4.859   6.016  0.2581 -0.3481 -0.0752
48712SOL    HW150693   0.406   4.782   5.975 -0.5880 -0.5317 -0.5820
48712SOL    HW250694   0.274   4.855   5.990 -0.1838 -0.1398  1.3851
48713SOL     OW50695   7.011  11.382   8.220  0.2767 -0.3262  0.1015
48713SOL    HW150696   7.003  11.325   8.296 -0.5147  1.2403  1.2504
48713SOL    HW250697   6.955  11.341   8.153 -0.3645 -0.8421  0.9415
48714SOL     OW50698  10.653   0.563   5.385  0.0756 -0.5264 -0.2250
48714SOL    HW150699  10.642   0.483   5.333 -2.2530 -1.6185  1.7320
48714SOL    HW250700  10.692   0.533   5.467  1.8021  0.8485 -0.4836
48715SOL     OW50701   8.813  10.591   5.115  0.3314 -0.2472  0.2709
48715SOL    HW150702   8.795  10.500   5.094 -0.6463 -0.5972  2.3544
48715SOL    HW250703   8.792  10.599   5.208  3.4164  1.3464  0.9493
48716SOL     OW50704   0.608   7.027   2.622 -0.0333  0.0205 -0.1592
48716SOL    HW150705   0.657   7.021   2.540  0.2187 -1.2999  0.0696
48716SOL    HW250706   0.674   7.011   2.690 -0.3896  0.3239  0.2616
48717SOL     OW50707  12.016   6.852   1.728  0.3630 -0.1111 -0.0672
48717SOL    HW150708  12.075   6.784   1.760 -0.7343 -1.2430 -0.3714
48717SOL    HW250709  11.986   6.821   1.643 -2.9412 -1.0976  1.3017
48718SOL     OW50710   4.618   5.587   8.429  0.0931  0.1259 -0.5958
48718SOL    HW150711   4.587   5.637   8.354  1.9714  0.5784 -1.1290
48718SOL    HW250712   4.665   5.513   8.390  1.0232  0.3307  0.0903
48719SOL     OW50713   1.787   9.655   5.463 -0.4664  0.2349 -0.2376
48719SOL    HW150714   1.731   9.607   5.524 -0.8819  0.6328 -0.2993
48719SOL    HW250715   1.808   9.736   5.509  1.5100 -0.6236  0.5128
48720SOL     OW50716   4.250   7.039   2.755  0.4111  0.1073 -0.2125
48720SOL    HW150717   4.191   7.110   2.729 -0.9565 -0.7677  0.3811
48720SOL    HW250718   4.293   7.012   2.674  0.6022  1.2906 -0.5195
48721SOL     OW50719  11.913   9.984   0.754  0.3840  0.5324  0.0354
48721SOL    HW150720  11.837  10.040   0.740  0.1686  0.6139  1.3372
48721SOL    HW250721  11.893   9.936   0.834  2.3413  1.7392  1.3576
48722SOL     OW50722   2.435   6.760   6.660 -0.0760 -0.0185 -0.5570
48722SOL    HW150723   2.475   6.835   6.704  0.0330 -1.4618  2.0580
48722SOL    HW250724   2.341   6.772   6.673 -0.0607 -0.2613 -0.1794
48723SOL     OW50725   5.419  11.713   3.338 -0.6033 -0.7426 -0.3586
48723SOL    HW150726   5.416  11.681   3.248 -1.5907 -0.7847 -0.3262
48723SOL    HW250727   5.327  11.710   3.367 -0.2401 -1.1456  0.7893
48724SOL     OW50728   9.754   7.902   5.337 -0.1458 -0.2238  0.5537
48724SOL    HW150729   9.696   7.878   5.410 -0.3550 -0.4303  0.3240
48724SOL    HW250730   9.698   7.896   5.259  0.3579 -1.1260  0.2410
48725SOL     OW50731   2.219   4.983   8.069  0.5575 -0.1796 -0.5357
48725SOL    HW150732   2.252   4.900   8.034 -0.2688 -0.2652 -1.1534
48725SOL    HW250733   2.222   5.043   7.995 -1.7752 -0.5202 -0.9882
48726SOL     OW50734  10.847   4.158   9.415 -0.0110 -0.2973  0.1491
48726SOL    HW150735  10.753   4.167   9.430  0.1209  0.0447  0.8340
48726SOL    HW250736  10.874   4.089   9.475  0.4499  0.7639  1.2018
48727SOL     OW50737   5.137   0.310   3.618  0.3078 -0.6368  0.3287
48727SOL    HW150738   5.094   0.294   3.702 -2.2338 -1.4945 -1.0186
48727SOL    HW250739   5.192   0.232   3.604 -2.0035 -2.2476 -0.3247
48728SOL     OW50740   6.766   7.348  11.547  0.0445  0.4364  0.4976
48728SOL    HW150741   6.724   7.304  11.473  0.9756  1.1318 -0.4741
48728SOL    HW250742   6.721   7.313  11.624 -1.1784 -0.0583 -0.4024
48729SOL     OW50743   4.647   3.972   4.916 -0.0197  0.5214  0.6213
48729SOL    HW150744   4.729   3.934   4.947 -0.2678 -0.4318  0.1531
48729SOL    HW250745   4.658   3.978   4.821 -0.8954 -0.6247  0.4392
48730SOL     OW50746   8.411   3.040   4.566  0.1521  0.5808  0.1117
48730SOL    HW150747   8.443   2.967   4.514 -1.4196  0.3574 -0.6091
48730SOL    HW250748   8.437   3.118   4.517 -0.9029  0.3836 -0.8239
48731SOL     OW50749   9.983   2.446   0.352 -0.2464 -0.5799 -0.6066
48731SOL    HW150750   9.999   2.394   0.432 -1.8702 -1.1410 -0.6205
48731SOL    HW250751   9.946   2.383   0.290 -0.6535  0.2424 -1.2068
48732SOL     OW50752   4.386   6.008   7.557  0.7281 -0.4615 -0.0183
48732SOL    HW150753   4.402   6.021   7.650 -0.1125 -0.6608  0.1652
48732SOL    HW250754   4.440   6.074   7.513  0.7064 -0.0052  0.6326
48733SOL     OW50755   8.714   6.533   2.823 -0.8536  0.3372 -0.6672
48733SOL    HW150756   8.660   6.454   2.826 -0.6624  0.2263  0.1684
48733SOL    HW250757   8.794   6.509   2.870 -0.2003  0.6018 -1.6125
48734SOL     OW50758   7.129   6.364  11.040  0.6146 -0.0069 -0.4586
48734SOL    HW150759   7.152   6.271  11.043 -0.8843 -0.3806  0.9321
48734SOL    HW250760   7.138   6.394  11.131 -1.9193  0.3685 -0.2480
48735SOL     OW50761  10.511   6.135   9.312  0.0996 -0.0777 -0.1382
48735SOL    HW150762  10.487   6.060   9.257  2.4142 -1.4412  0.5448
48735SOL    HW250763  10.555   6.195   9.253  1.3342 -0.9012 -0.0951
48736SOL     OW50764   7.856  11.290   6.932  0.0849 -0.0855  0.3116
48736SOL    HW150765   7.947  11.297   6.961 -0.0707  0.2248  0.7308
48736SOL    HW250766   7.855  11.212   6.876  0.8514  0.5543 -0.6387
48737SOL     OW50767  11.027   4.051   5.467 -0.1269  0.2350 -0.6077
48737SOL    HW150768  11.089   3.987   5.432 -2.1576 -0.9590 -2.2699
48737SOL    HW250769  10.987   4.006   5.542 -1.2096 -0.2790 -1.4798
48738SOL     OW50770  10.254   2.402   1.955 -0.2767  0.0515  0.1914
48738SOL    HW150771  10.313   2.346   1.905 -0.7044  0.0173 -0.2744
48738SOL    HW250772  10.235   2.353   2.035 -1.4302 -0.9069 -0.6441
48739SOL     OW50773   8.872   3.984   3.861  0.5325 -0.7184  0.4367
48739SOL    HW150774   8.800   4.008   3.801 -0.6350  1.8134  2.6390
48739SOL    HW250775   8.951   4.009   3.814 -0.2420 -0.3382 -0.7186
48740SOL     OW50776   0.740   6.690   8.032  0.2589 -0.3342 -0.2972
48740SOL    HW150777   0.766   6.781   8.042 -0.5607 -0.1688  0.4673
48740SOL    HW250778   0.644   6.692   8.032  0.2318 -1.2396  0.2547
48741SOL     OW50779   0.808   8.605  10.521 -0.0458  0.1079 -0.2874
48741SOL    HW150780   0.899   8.576  10.528 -0.8564 -2.6527 -0.0535
48741SOL    HW250781   0.805   8.655  10.440  1.6811  0.2857 -0.2777
48742SOL     OW50782   9.772   4.495   0.196  0.3771  0.3262  0.0641
48742SOL    HW150783   9.768   4.558   0.268 -0.1518  1.6734 -1.0943
48742SOL    HW250784   9.704   4.431   0.217  1.5983 -0.4799  1.7699
48743SOL     OW50785  11.922   1.319   7.119 -0.1140  0.3826 -0.8360
48743SOL    HW150786  11.908   1.334   7.212  0.6253  0.9238 -0.8059
48743SOL    HW250787  11.891   1.230   7.104 -0.7309  0.4772 -0.1828
48744SOL     OW50788   0.995   9.275  11.662 -0.1268  0.3608  0.5276
48744SOL    HW150789   0.951   9.346  11.616  0.1014  0.0654 -0.1639
48744SOL    HW250790   1.015   9.211  11.594  2.3568  0.9690  0.5907
48745SOL     OW50791   3.007  11.951   1.909 -0.0854  0.0433 -0.2235
48745SOL    HW150792   2.924  11.980   1.946  0.9727  0.8596  1.6436
48745SOL    HW250793   3.007  11.986   1.820 -2.0652 -0.6947 -0.5792
48746SOL     OW50794  11.402   2.020   2.659  0.2234  0.2995 -0.6443
48746SOL    HW150795  11.474   1.990   2.713 -0.5633 -0.5791 -0.0514
48746SOL    HW250796  11.404   1.963   2.582 -1.3003 -1.4453  0.5041
48747SOL     OW50797   7.002   6.412   0.521 -0.3644 -0.0027  0.2455
48747SOL    HW150798   6.966   6.475   0.458  0.3062  1.3391  1.1468
48747SOL    HW250799   6.926   6.381   0.570 -0.6196  0.6678  0.2833
48748SOL     OW50800   7.117   2.850   8.110  0.5483 -0.3354 -0.2913
48748SOL    HW150801   7.097   2.871   8.201  1.5337  2.0790 -0.5606
48748SOL    HW250802   7.153   2.761   8.114  0.4475 -0.3364  1.6496
48749SOL     OW50803   4.949  11.178  11.972 -0.1153 -0.1371  0.4992
48749SOL    HW150804   4.949  11.164  11.877 -0.4135  0.1645  0.4542
48749SOL    HW250805   5.033  11.221  11.990 -0.0250 -0.2631  0.3830
48750SOL     OW50806   6.052   4.511   7.903 -0.0057  0.2280  0.1942
48750SOL    HW150807   6.022   4.587   7.953 -1.7798 -1.0757  1.2591
48750SOL    HW250808   5.978   4.490   7.846  0.5934 -0.4971 -0.3268
48751SOL     OW50809   5.578   6.347   8.095 -0.1591 -0.2464 -0.6801
48751SOL    HW150810   5.607   6.306   8.013 -2.5473 -0.6495 -1.4042
48751SOL    HW250811   5.544   6.432   8.068  1.3955  0.7255  0.3060
48752SOL     OW50812   5.628   8.576   5.347  0.1779  0.5895  0.7421
48752SOL    HW150813   5.655   8.656   5.303 -0.5936  1.6440  2.1174
48752SOL    HW250814   5.558   8.540   5.291  0.4726  0.9081  0.1619
48753SOL     OW50815   3.474   1.222   7.281  0.1150 -0.2771  0.8794
48753SOL    HW150816   3.399   1.179   7.322 -0.6358  0.9286  0.8138
48753SOL    HW250817   3.457   1.216   7.187 -0.5255  1.0246  0.8869
48754SOL     OW50818   4.224   4.524   5.017 -0.8188 -0.1470 -0.7062
48754SOL    HW150819   4.312   4.486   5.013 -1.3730 -1.3981 -1.8921
48754SOL    HW250820   4.227   4.583   5.092  1.2689  0.4746 -1.2121
48755SOL     OW50821   7.353   2.915   0.982 -0.9676  0.1214  0.4376
48755SOL    HW150822   7.343   2.858   0.905 -1.3144 -1.9831  1.9603
48755SOL    HW250823   7.416   2.869   1.038  1.8696  3.1831  0.1023
48756SOL     OW50824  10.602   0.832  11.904  0.5374 -0.3260  0.2486
48756SOL    HW150825  10.684   0.795  11.871  0.3685 -0.5438  0.0691
48756SOL    HW250826  10.604   0.814  11.998 -0.0273 -1.7560  0.0126
48757SOL     OW50827  12.128   7.847   5.571  0.1819 -0.3365  0.0531
48757SOL    HW150828  12.193   7.842   5.501  0.4358  0.2923  0.2308
48757SOL    HW250829  12.066   7.915   5.541  0.9313  0.7774  0.9391
48758SOL     OW50830   6.752   1.843   4.787 -0.2866 -0.2834 -0.6821
48758SOL    HW150831   6.729   1.825   4.878 -1.5245  0.1293 -0.8996
48758SOL    HW250832   6.682   1.804   4.736 -0.1780  0.4290 -1.4046
48759SOL     OW50833   0.259   3.167   6.210 -0.2653 -0.2127 -0.2031
48759SOL    HW150834   0.205   3.088   6.209 -1.2369  0.3949  1.1647
48759SOL    HW250835   0.317   3.156   6.286  2.4482 -1.3743 -2.2612
48760SOL     OW50836  11.096   5.666   0.596  0.2816 -0.0155  0.1628
48760SOL    HW150837  11.121   5.623   0.678  1.0776 -1.1859 -0.6639
48760SOL    HW250838  11.178   5.700   0.561  0.3550 -1.5684 -1.2737
48761SOL     OW50839   3.195   2.404   1.310  0.3900 -0.1584  0.2790
48761SOL    HW150840   3.102   2.385   1.325  0.6625 -0.7424  1.2765
48761SOL    HW250841   3.235   2.401   1.397  1.8505 -2.7005 -0.3608
48762SOL     OW50842   4.036   0.317   2.303  0.4993 -0.4401  0.0149
48762SOL    HW150843   4.089   0.309   2.382  0.5040 -0.7317 -0.0172
48762SOL    HW250844   3.961   0.260   2.318  1.0150 -1.2897 -0.6106
48763SOL     OW50845  11.326   9.655   5.298  0.3132 -0.1316 -0.4484
48763SOL    HW150846  11.374   9.573   5.302  0.3389 -0.1439 -0.9455
48763SOL    HW250847  11.243   9.632   5.256  1.1144  0.4488 -2.4733
48764SOL     OW50848   4.029   9.759   2.584  0.6358 -0.6175 -0.2193
48764SOL    HW150849   4.011   9.765   2.678  1.4046  2.5257 -0.1649
48764SOL    HW250850   4.082   9.679   2.575  0.0418 -1.3281  1.8905
48765SOL     OW50851  11.880  10.418   7.910 -0.8034 -0.0375  0.6201
48765SOL    HW150852  11.858  10.329   7.881  0.6185 -0.5602  1.0832
48765SOL    HW250853  11.811  10.441   7.972 -1.4602 -0.6136  0.1152
48766SOL     OW50854  11.733   5.264   8.309 -0.0968  0.3594  0.3014
48766SOL    HW150855  11.677   5.304   8.243  0.7328  0.6163 -0.2585
48766SOL    HW250856  11.821   5.272   8.274  0.4546  1.1747  1.7574
48767SOL     OW50857   9.421   2.965   6.832 -0.1813  0.0957 -0.1597
48767SOL    HW150858   9.328   2.959   6.808 -0.7821  0.9216  1.7486
48767SOL    HW250859   9.435   3.059   6.846  1.0168 -0.0045 -0.6190
48768SOL     OW50860   7.887   5.222   5.381  0.3658  0.2389 -0.3658
48768SOL    HW150861   7.826   5.266   5.321 -1.4437 -2.2395 -0.5098
48768SOL    HW250862   7.933   5.158   5.327  0.3678 -0.4508  0.4203
48769SOL     OW50863   6.104   6.321  11.308 -0.3449  0.1680 -0.1519
48769SOL    HW150864   6.144   6.238  11.332  1.5748  0.9943 -0.3018
48769SOL    HW250865   6.118   6.377  11.384  0.7046  1.1023 -0.9969
48770SOL     OW50866   3.370   0.126   9.941  0.0639 -0.0987  0.1264
48770SOL    HW150867   3.437   0.191   9.961  0.9466 -0.4299 -1.6113
48770SOL    HW250868   3.366   0.123   9.846 -1.9845 -0.5591  0.1788
48771SOL     OW50869   0.055  11.757   0.427  0.1153 -0.3927  0.3115
48771SOL    HW150870   0.100  11.740   0.509  1.8069  1.6132 -0.1336
48771SOL    HW250871   0.122  11.747   0.359 -1.3063 -2.3096 -0.9153
48772SOL     OW50872   1.817   9.884  11.897  0.8770 -0.1353 -0.0176
48772SOL    HW150873   1.773   9.925  11.971  1.1771 -0.9841  0.6491
48772SOL    HW250874   1.789   9.935  11.821 -1.3582 -0.7093  0.3485
48773SOL     OW50875   8.503   2.206   8.964 -0.2131 -0.5819 -0.0581
48773SOL    HW150876   8.445   2.141   8.925 -0.1642 -0.4787 -0.3048
48773SOL    HW250877   8.461   2.229   9.047  0.9914 -2.7383  1.2599
48774SOL     OW50878   4.857  10.833   9.610  0.6735 -0.1399 -0.0024
48774SOL    HW150879   4.939  10.808   9.569  0.4179 -1.1890  0.0934
48774SOL    HW250880   4.845  10.770   9.682  0.4560  0.8385  0.8422
48775SOL     OW50881  10.804  10.331   7.860 -0.5023 -0.3450 -0.6910
48775SOL    HW150882  10.894  10.358   7.840  1.0423 -2.6477  2.2785
48775SOL    HW250883  10.793  10.248   7.814 -0.2566 -1.0987  0.5455
48776SOL     OW50884   2.673   6.780   8.942 -0.1623  0.0806  0.4709
48776SOL    HW150885   2.603   6.714   8.940 -0.9326  0.8668  1.0181
48776SOL    HW250886   2.672   6.813   9.032  0.9740  0.0578  0.5080
48777SOL     OW50887   1.181  11.007  11.185  0.1997 -0.3943  0.3514
48777SOL    HW150888   1.095  10.965  11.196  0.2095 -0.0414  1.8935
48777SOL    HW250889   1.196  11.004  11.090 -1.4143 -0.6609  0.0688
48778SOL     OW50890   7.597   7.421   3.860 -0.2676  0.9966  0.0810
48778SOL    HW150891   7.531   7.354   3.877  1.9652 -0.9558  1.5904
48778SOL    HW250892   7.600   7.473   3.940 -0.5415  1.6405 -0.3134
48779SOL     OW50893   5.266  10.676   7.963 -0.4103  0.4321  0.5647
48779SOL    HW150894   5.282  10.602   8.021 -0.0051 -0.1546 -0.2651
48779SOL    HW250895   5.204  10.642   7.897 -1.9688  1.4904  1.4209
48780SOL     OW50896   2.363   0.542   7.220 -0.0003  0.5266  0.2645
48780SOL    HW150897   2.357   0.493   7.302  1.2251  0.7810  0.5264
48780SOL    HW250898   2.457   0.560   7.210  0.0800 -0.7319 -1.9129
48781SOL     OW50899   0.192   3.376   1.853  0.0827 -0.0902  0.2976
48781SOL    HW150900   0.134   3.323   1.908  0.8619 -2.0514 -0.6664
48781SOL    HW250901   0.280   3.344   1.874  0.5672  0.7286 -0.4340
48782SOL     OW50902   1.579   3.553   1.221 -0.2216  0.1333 -0.5243
48782SOL    HW150903   1.582   3.514   1.134  0.5644 -1.4597  0.1769
48782SOL    HW250904   1.559   3.480   1.279 -1.3315  1.2754  0.5901
48783SOL     OW50905   3.048   0.198   9.823  0.2673 -0.1565  0.1630
48783SOL    HW150906   3.057   0.193   9.918 -0.2809 -1.8947  0.1688
48783SOL    HW250907   3.070   0.109   9.793  0.0003  0.2469 -1.2974
48784SOL     OW50908   4.009   6.441   7.339 -0.2346  0.3534 -0.0288
48784SOL    HW150909   4.002   6.537   7.337  0.0198  0.3771  0.1869
48784SOL    HW250910   4.055   6.422   7.420 -2.3843 -0.0861  1.1689
48785SOL     OW50911   4.955   3.216   7.475 -0.0483  0.0585 -0.0106
48785SOL    HW150912   4.948   3.173   7.560 -1.1988 -1.7030 -0.9450
48785SOL    HW250913   4.866   3.242   7.453  0.0344 -0.5831 -1.1990
48786SOL     OW50914  10.561  10.057   4.431  0.2063  0.0989 -0.1731
48786SOL    HW150915  10.542  10.062   4.337 -5.4377  1.4745  0.6642
48786SOL    HW250916  10.629  10.124   4.444  1.4560 -0.3888 -3.2271
48787SOL     OW50917   2.260   8.290   1.771  0.3410 -0.9094 -0.3243
48787SOL    HW150918   2.219   8.318   1.689  0.5070  0.4654  0.0397
48787SOL    HW250919   2.213   8.210   1.795 -1.2288 -0.1309 -0.6269
48788SOL     OW50920   0.409   6.032   0.248  0.5279  0.1052  0.2216
48788SOL    HW150921   0.335   5.975   0.227 -0.6825  0.7279  2.4108
48788SOL    HW250922   0.474   5.973   0.287  0.3124 -0.1598  0.1847
48789SOL     OW50923   3.087   8.937   3.622  0.0019  0.3487 -0.1578
48789SOL    HW150924   3.176   8.914   3.649  0.1098  1.5820  0.6021
48789SOL    HW250925   3.052   8.987   3.695 -1.7475 -1.0628  0.0345
48790SOL     OW50926   8.379   7.976   7.629 -0.5056  0.2107  0.1138
48790SOL    HW150927   8.289   7.945   7.625 -0.5057 -0.0829  1.8776
48790SOL    HW250928   8.379   8.044   7.696  0.7348 -0.3650  0.7442
48791SOL     OW50929  10.440   7.080  10.858 -0.6614  0.6176  0.3491
48791SOL    HW150930  10.377   7.026  10.809 -0.6514  0.3753  0.6040
48791SOL    HW250931  10.440   7.044  10.946 -1.0647  1.3807  0.6737
48792SOL     OW50932  10.051   5.552   4.838  0.1158  0.2452  0.2977
48792SOL    HW150933  10.077   5.582   4.926 -0.9758 -0.3421  0.8360
48792SOL    HW250934   9.971   5.600   4.819  0.8300  1.0428 -0.7810
48793SOL     OW50935   2.262   6.485   2.050 -0.2008 -0.0017 -0.0448
48793SOL    HW150936   2.183   6.439   2.019 -1.8089  2.1163  0.6561
48793SOL    HW250937   2.295   6.530   1.972 -1.4849  1.5100  0.2378
48794SOL     OW50938   0.183   5.249   7.429 -0.8791 -0.2428 -0.4172
48794SOL    HW150939   0.140   5.201   7.500 -1.0666  1.4534  0.6775
48794SOL    HW250940   0.186   5.186   7.356 -2.6578 -1.3282  0.3661
48795SOL     OW50941   2.034   9.181   5.121  0.1017  0.2739 -0.5082
48795SOL    HW150942   2.079   9.148   5.199  0.1972  1.0446 -0.2371
48795SOL    HW250943   2.026   9.104   5.064 -0.0188 -0.3118  0.2817
48796SOL     OW50944   9.342   0.444   2.315  0.1693 -0.4380  0.3061
48796SOL    HW150945   9.253   0.440   2.350  0.5202 -0.9761  1.1561
48796SOL    HW250946   9.371   0.533   2.334 -0.2217 -0.2259 -0.0738
48797SOL     OW50947  11.523   7.612   0.550 -0.1055 -0.1547 -0.0267
48797SOL    HW150948  11.437   7.655   0.550  0.6988  1.5544 -1.2673
48797SOL    HW250949  11.548   7.607   0.458  1.2101 -0.4701  0.3194
48798SOL     OW50950   1.180   1.316   7.583 -0.0358  0.2714  0.2834
48798SOL    HW150951   1.217   1.404   7.577  0.5788 -0.0322 -0.5651
48798SOL    HW250952   1.249   1.258   7.551 -0.2384 -0.5819  1.3229
48799SOL     OW50953  11.280   4.352   7.836 -0.0726  0.1504  0.0551
48799SOL    HW150954  11.219   4.395   7.897  1.9532  0.2543  2.1516
48799SOL    HW250955  11.232   4.276   7.804 -1.2057 -0.0182  1.9616
48800SOL     OW50956  10.766   0.921   1.819  0.0769 -0.0694  0.4074
48800SOL    HW150957  10.838   0.880   1.867 -0.6758 -2.3242 -0.2258
48800SOL    HW250958  10.800   0.937   1.732  0.5647  1.3332  0.8287
48801SOL     OW50959   0.048   0.933   0.540 -0.6622 -0.1622 -0.0996
48801SOL    HW150960  -0.010   0.971   0.606 -0.6788 -0.0791 -0.1621
48801SOL    HW250961   0.017   0.842   0.531  0.2074 -0.5942  1.0057
48802SOL     OW50962   1.826   8.768   8.784 -0.2877  0.1505  0.1818
48802SOL    HW150963   1.917   8.797   8.789 -0.3654  0.4553 -0.1384
48802SOL    HW250964   1.783   8.833   8.728 -0.7720  0.1836  0.5875
48803SOL     OW50965   4.951   9.520   3.338  0.2759 -0.0668  0.2328
48803SOL    HW150966   4.899   9.475   3.404 -2.6188 -0.5964 -2.2024
48803SOL    HW250967   5.007   9.451   3.301 -0.9777 -0.7237 -0.4994
48804SOL     OW50968   0.723   3.854   2.016 -0.0407  0.5005 -0.8742
48804SOL    HW150969   0.760   3.936   2.049 -4.3157  2.8934 -1.2919
48804SOL    HW250970   0.754   3.849   1.925 -0.5013  2.2392 -1.1593
48805SOL     OW50971  10.051   8.975   0.713  0.4561  0.0184  0.1195
48805SOL    HW150972  10.094   8.943   0.791 -0.0496 -0.9955 -0.0033
48805SOL    HW250973  10.045   8.899   0.655 -0.2449  0.4606 -0.4183
48806SOL     OW50974   0.095   3.720   1.780  0.3266 -0.8813  0.2181
48806SOL    HW150975   0.116   3.627   1.786  2.0347 -0.4680  1.7994
48806SOL    HW250976   0.177   3.761   1.751 -0.0738  0.2292  0.5877
48807SOL     OW50977   9.039   4.018   5.529 -0.3329  0.3663 -0.1942
48807SOL    HW150978   9.052   4.075   5.605 -0.6174  1.6901 -1.0960
48807SOL    HW250979   9.114   4.036   5.472 -1.2040  1.0196 -1.1801
48808SOL     OW50980   1.291   7.877   4.077  0.3260 -0.3769  0.5445
48808SOL    HW150981   1.242   7.956   4.055  1.5710  0.0316 -1.0015
48808SOL    HW250982   1.313   7.838   3.992  0.4549 -1.9432  1.2540
48809SOL     OW50983   6.686   2.637   4.916 -0.3150  0.1414  0.1118
48809SOL    HW150984   6.663   2.724   4.886 -3.0473 -0.3820  0.4190
48809SOL    HW250985   6.730   2.651   4.999 -0.8677  1.2370  0.2395
48810SOL     OW50986  11.460   4.587   6.382 -0.6932  0.0409 -0.0664
48810SOL    HW150987  11.457   4.506   6.433  2.5450 -0.6387 -0.7802
48810SOL    HW250988  11.401   4.571   6.309 -1.3342 -1.0188  0.6404
48811SOL     OW50989   7.365   0.989   3.284 -0.1740 -0.7896  0.2656
48811SOL    HW150990   7.331   1.028   3.204 -0.3600 -0.7254  0.3764
48811SOL    HW250991   7.440   1.044   3.307  0.0413 -0.9665 -0.0107
48812SOL     OW50992   0.675   5.790   7.624 -0.1482 -0.2018  0.0143
48812SOL    HW150993   0.664   5.885   7.632  0.8393  0.1447 -1.9769
48812SOL    HW250994   0.764   5.779   7.592 -1.0594 -1.5773 -2.3225
48813SOL     OW50995   7.918  10.552  11.859 -0.3371  0.3853  0.6297
48813SOL    HW150996   7.865  10.567  11.781 -0.1284 -0.9842  0.2002
48813SOL    HW250997   7.860  10.503  11.918 -0.2893  0.8764  1.0892
48814SOL     OW50998   3.544   8.654   3.041  0.3772  0.0974  0.8722
48814SOL    HW150999   3.636   8.648   3.067 -0.1447 -0.6368  2.6726
48814SOL    HW251000   3.513   8.736   3.080  0.1089  0.0284  0.8056
48815SOL     OW51001   1.385   7.652  11.033 -0.7745  0.1696 -0.5046
48815SOL    HW151002   1.303   7.616  11.064 -0.8524 -0.3439 -1.2823
48815SOL    HW251003   1.445   7.578  11.031 -0.2439  0.5668  0.1928
48816SOL     OW51004   7.244   8.845   0.134 -0.3181 -0.3982 -0.3479
48816SOL    HW151005   7.180   8.808   0.194 -0.4588  0.0301 -0.2317
48816SOL    HW251006   7.221   8.937   0.127 -1.0476 -0.6719 -1.9938
48817SOL     OW51007   1.110   0.297   4.365 -0.0345  0.6603  0.1350
48817SOL    HW151008   1.033   0.354   4.359 -0.5782  0.0501  1.0471
48817SOL    HW251009   1.155   0.327   4.444  0.5218  0.8305 -0.2437
48818SOL     OW51010   6.659   8.848   7.960  0.1442 -0.2294  0.2035
48818SOL    HW151011   6.732   8.899   7.927 -1.0359  1.1209 -0.4029
48818SOL    HW251012   6.602   8.834   7.884 -0.2511 -1.2638  0.6585
48819SOL     OW51013   3.553  12.105   6.503  0.1359 -0.7951  0.1619
48819SOL    HW151014   3.634  12.155   6.500  0.0410 -0.6945 -1.1066
48819SOL    HW251015   3.582  12.014   6.509  0.3633 -0.8201 -1.1851
48820SOL     OW51016   9.615   8.024  11.407  0.1075 -0.7416  0.1785
48820SOL    HW151017   9.607   7.933  11.436 -1.2281 -0.6585  0.1346
48820SOL    HW251018   9.638   8.072  11.486 -0.7845 -0.9058  0.5556
48821SOL     OW51019   3.666   9.729   7.305 -0.2337 -0.4153  0.0162
48821SOL    HW151020   3.761   9.718   7.299 -0.2027  0.0009 -0.3160
48821SOL    HW251021   3.652   9.776   7.387 -0.0306  0.8139 -0.6311
48822SOL     OW51022   3.091   4.407  11.194 -0.3415 -0.0571  0.4584
48822SOL    HW151023   3.126   4.390  11.282 -1.5036 -1.0381  0.7590
48822SOL    HW251024   2.999   4.427  11.208 -0.1576  1.5114 -0.4070
48823SOL     OW51025   8.427  11.788  11.705 -0.4360  0.9047  0.3623
48823SOL    HW151026   8.391  11.848  11.769  0.5177  0.7928  1.0157
48823SOL    HW251027   8.522  11.797  11.714 -0.2673 -0.7719  0.5594
48824SOL     OW51028   3.843  11.777   3.148 -0.3618  0.0362  0.5830
48824SOL    HW151029   3.918  11.836   3.141  0.2726 -0.8097  0.0455
48824SOL    HW251030   3.865  11.704   3.091 -0.8717 -1.0054  1.6851
48825SOL     OW51031  11.355  12.066  10.190 -0.0619 -0.1550 -0.3473
48825SOL    HW151032  11.303  12.108  10.259  1.2685  1.4082 -0.2445
48825SOL    HW251033  11.309  11.984  10.172 -1.2594  0.0951  1.3536
48826SOL     OW51034   7.461   8.607   2.987  0.3493  0.0316 -0.6479
48826SOL    HW151035   7.496   8.629   3.074  2.2761  2.6808 -1.9426
48826SOL    HW251036   7.518   8.537   2.955 -0.4061 -0.9998  0.1807
48827SOL     OW51037   8.619   3.387   7.192  0.4773 -0.1525  0.0545
48827SOL    HW151038   8.593   3.478   7.207 -0.3155 -0.4123  0.3066
48827SOL    HW251039   8.559   3.355   7.124 -1.7606 -1.5702  2.5207
48828SOL     OW51040   9.239   9.867   7.523  0.7774  0.5857 -0.1815
48828SOL    HW151041   9.227   9.956   7.557  0.8443  0.6626 -0.3550
48828SOL    HW251042   9.334   9.855   7.520  0.7996 -0.4673  2.3320
48829SOL     OW51043   2.730   2.946   3.988 -0.4596  0.2845 -0.0227
48829SOL    HW151044   2.645   2.917   3.957  0.0713 -1.8599  0.4024
48829SOL    HW251045   2.775   2.976   3.909 -1.3264  0.7531 -0.3533
48830SOL     OW51046   7.897   2.083   8.301  0.1271 -0.2663 -0.0917
48830SOL    HW151047   7.948   2.122   8.372  0.4755 -1.7314  0.4880
48830SOL    HW251048   7.961   2.067   8.232  0.0759 -0.2577 -0.1412
48831SOL     OW51049   5.592   9.289   9.538 -0.4908 -0.8027 -0.3892
48831SOL    HW151050   5.677   9.282   9.494 -0.4018 -3.3207  0.0692
48831SOL    HW251051   5.588   9.381   9.567  2.5857 -0.8564  0.5834
48832SOL     OW51052  10.095   5.873   7.851 -0.0679 -0.1132 -0.4342
48832SOL    HW151053  10.081   5.905   7.940 -2.2710 -0.0316 -0.7545
48832SOL    HW251054  10.167   5.811   7.859 -0.7131 -0.6872  1.5770
48833SOL     OW51055   4.632   2.981   6.396  0.2020 -0.1000 -0.1090
48833SOL    HW151056   4.710   3.005   6.445 -0.9869 -0.4938  2.1114
48833SOL    HW251057   4.640   2.887   6.381 -0.9424 -0.6903  2.4240
48834SOL     OW51058   1.527   4.038   7.491 -0.3577  0.2439 -0.3980
48834SOL    HW151059   1.606   4.005   7.534 -1.2373  0.2017  1.2823
48834SOL    HW251060   1.459   3.974   7.513 -0.7886  0.0361 -2.2071
48835SOL     OW51061  10.124  11.085   3.716  0.0486  0.4002 -0.3653
48835SOL    HW151062  10.186  11.107   3.647 -0.3461  1.9100 -0.2555
48835SOL    HW251063  10.154  11.134   3.792  0.9644 -1.8683  0.8377
48836SOL     OW51064   0.397   8.952   4.750 -0.3039 -0.0226 -0.0579
48836SOL    HW151065   0.353   8.882   4.798 -2.2368  0.6091 -0.8124
48836SOL    HW251066   0.353   8.954   4.665  1.2606  0.6181 -0.9039
48837SOL     OW51067   9.301  12.014   6.469 -0.3075 -0.9393  0.5370
48837SOL    HW151068   9.258  11.962   6.402  0.0244 -0.6093  0.0534
48837SOL    HW251069   9.269  11.979   6.552  1.7036 -3.5487  0.3532
48838SOL     OW51070   8.354   7.323  11.705  0.7432  0.2924 -0.2657
48838SOL    HW151071   8.324   7.234  11.723  0.4191  0.1079 -1.6170
48838SOL    HW251072   8.278   7.367  11.664  1.2327  0.8509 -0.6019
48839SOL     OW51073  11.774   4.645   7.896 -0.0452 -0.2011 -0.2011
48839SOL    HW151074  11.809   4.628   7.983 -0.0953 -0.4475 -0.2281
48839SOL    HW251075  11.684   4.673   7.911  0.1738  0.4812 -0.1282
48840SOL     OW51076   4.980   6.684   7.523 -0.3495 -0.3395  0.9286
48840SOL    HW151077   4.930   6.603   7.526 -1.5271  0.3259  0.0802
48840SOL    HW251078   4.937   6.736   7.456  0.4640  0.9382  1.3611
48841SOL     OW51079   6.956   0.166   6.712 -0.6224 -0.1152  0.0331
48841SOL    HW151080   6.872   0.207   6.690 -0.9811 -0.9395 -0.1598
48841SOL    HW251081   6.983   0.121   6.632  0.2228  0.4919 -0.0392
48842SOL     OW51082   1.841   3.049  10.831 -0.2549  0.1581 -0.0817
48842SOL    HW151083   1.883   3.032  10.747  1.8509 -1.1700  1.1438
48842SOL    HW251084   1.783   3.123  10.815  1.8675  1.4968 -2.1611
48843SOL     OW51085   3.751   3.700   0.750 -0.0154  0.6294 -0.2918
48843SOL    HW151086   3.741   3.607   0.731  1.6879 -0.0923  1.8895
48843SOL    HW251087   3.844   3.718   0.733 -0.0260  1.5804  0.5666
48844SOL     OW51088  11.495  11.633   0.622 -0.6379  0.2688 -0.0245
48844SOL    HW151089  11.466  11.721   0.645 -0.3955  0.6710 -1.1993
48844SOL    HW251090  11.543  11.644   0.540 -2.0142 -1.1587 -1.1029
48845SOL     OW51091   6.407   9.936   8.283  0.0406  0.0759  0.2177
48845SOL    HW151092   6.359  10.014   8.253 -1.1845 -1.2971 -1.6164
48845SOL    HW251093   6.499   9.960   8.276 -0.1109  0.1255 -4.4122
48846SOL     OW51094   6.117   3.842   1.267 -0.6528 -0.4447 -0.1135
48846SOL    HW151095   6.136   3.788   1.190  0.9520  0.1068 -0.1293
48846SOL    HW251096   6.041   3.894   1.241  1.6593  2.0350 -2.5970
48847SOL     OW51097   9.055  10.599   8.046  0.0074 -0.1815 -0.1475
48847SOL    HW151098   9.086  10.510   8.066  0.5047  0.1705  0.7018
48847SOL    HW251099   8.986  10.615   8.111  0.0787  0.1441 -0.1511
48848SOL     OW51100   9.725   4.494   2.245 -0.1218 -0.0480 -0.7178
48848SOL    HW151101   9.664   4.423   2.226  0.8191 -1.0591 -0.1096
48848SOL    HW251102   9.787   4.456   2.307 -0.5100  1.7921  0.8896
48849SOL     OW51103  10.006  11.249   7.288 -0.5765  0.0550 -0.1006
48849SOL    HW151104   9.973  11.175   7.339  0.6287 -0.8102 -0.5344
48849SOL    HW251105   9.930  11.278   7.237 -1.6462  0.5788  1.6934
48850SOL     OW51106   5.603  10.021   0.223  0.0047 -0.1086 -0.0285
48850SOL    HW151107   5.565  10.106   0.246  1.5388  0.7827 -0.5714
48850SOL    HW251108   5.684  10.044   0.177  0.7880 -1.8819  0.4012
48851SOL     OW51109   8.311   3.596  10.598  0.0934  0.1642 -0.3715
48851SOL    HW151110   8.342   3.664  10.658 -0.2696  0.7593 -0.8505
48851SOL    HW251111   8.372   3.599  10.524  1.6754 -1.8149  0.7299
48852SOL     OW51112   7.333   1.176   3.950  0.2902  0.1713 -0.1258
48852SOL    HW151113   7.423   1.190   3.981  2.3580 -1.3218 -4.6080
48852SOL    HW251114   7.323   1.239   3.879 -2.4659  0.5329  0.4866
48853SOL     OW51115   7.857  10.761   5.600  0.3497 -0.4407 -0.0682
48853SOL    HW151116   7.880  10.797   5.515 -1.6791 -0.0713 -0.5126
48853SOL    HW251117   7.938  10.722   5.632  1.5323  0.7293 -1.4811
48854SOL     OW51118   2.796   6.525   4.335  0.2023  0.1354  0.7560
48854SOL    HW151119   2.877   6.563   4.367  1.2636 -1.8861  0.6357
48854SOL    HW251120   2.813   6.506   4.242  0.0379 -1.3538  1.0062
48855SOL     OW51121   2.703   8.159   5.757  0.4160 -0.0958 -0.2057
48855SOL    HW151122   2.646   8.233   5.778 -0.2416 -0.8855  0.8629
48855SOL    HW251123   2.763   8.194   5.691 -1.8009  0.5189 -1.9985
48856SOL     OW51124   9.108   5.032   6.457 -0.0902  0.1632  0.2142
48856SOL    HW151125   9.163   5.092   6.408 -0.9933 -0.1139 -1.2116
48856SOL    HW251126   9.156   4.949   6.457 -0.4763 -0.0729 -1.0039
48857SOL     OW51127  11.863   5.643   2.110 -0.0643  0.0158  0.0186
48857SOL    HW151128  11.896   5.616   2.196  1.3199 -0.2021 -0.5531
48857SOL    HW251129  11.781   5.596   2.100  0.0690 -0.4416  0.9570
48858SOL     OW51130   2.428   7.701   8.699 -0.5886  0.2699 -1.0587
48858SOL    HW151131   2.474   7.714   8.781 -0.3261  0.1075 -1.1811
48858SOL    HW251132   2.368   7.776   8.693 -0.5891  0.2961 -0.7342
48859SOL     OW51133   5.695   7.378   0.536 -0.5563  0.0051 -0.1994
48859SOL    HW151134   5.640   7.375   0.458 -0.1911  1.2057 -0.5121
48859SOL    HW251135   5.768   7.435   0.513  0.3560 -0.8269  0.5254
48860SOL     OW51136   5.170   1.041   4.466 -0.1218 -0.2298  0.4631
48860SOL    HW151137   5.151   1.103   4.396  2.1852 -0.5403 -0.5602
48860SOL    HW251138   5.188   1.096   4.543 -0.0501  0.2776  0.0920
48861SOL     OW51139  10.046   2.448   5.865  0.2175  0.1608  0.3593
48861SOL    HW151140  10.013   2.358   5.858 -0.4168  0.2731  1.5676
48861SOL    HW251141  10.109   2.457   5.793  0.4491 -1.3168  0.3574
48862SOL     OW51142   6.562   1.190   2.049  0.6307 -0.0660 -0.5740
48862SOL    HW151143   6.509   1.269   2.037  1.1941  0.5786  0.8850
48862SOL    HW251144   6.530   1.152   2.131  1.0482 -0.7788 -0.7382
48863SOL     OW51145   0.500  11.110   7.692 -0.3605  0.8107 -0.5041
48863SOL    HW151146   0.560  11.063   7.750 -1.8949  0.1885  0.6454
48863SOL    HW251147   0.478  11.046   7.624 -0.0455  0.9189 -0.7138
48864SOL     OW51148  11.893   4.086   1.513 -0.3538  0.3010 -0.5409
48864SOL    HW151149  11.861   3.997   1.524  0.6030 -0.3224 -2.3413
48864SOL    HW251150  11.978   4.087   1.556 -0.7514  0.6174  0.2510
48865SOL     OW51151   2.330   8.178   4.391 -0.4071 -0.1461 -0.2014
48865SOL    HW151152   2.297   8.143   4.474 -0.3888 -0.3429 -0.2771
48865SOL    HW251153   2.291   8.265   4.385 -0.5190 -0.1849 -0.0526
48866SOL     OW51154   0.221  11.295   4.932  0.0246 -0.6661  0.4983
48866SOL    HW151155   0.303  11.246   4.935  0.6424  0.3758  1.1706
48866SOL    HW251156   0.246  11.385   4.954 -1.1001 -0.0647 -0.5561
48867SOL     OW51157   7.369   9.008  10.952  0.6226  0.3607 -0.6320
48867SOL    HW151158   7.297   8.997  10.890 -1.4411  1.6546  1.4018
48867SOL    HW251159   7.436   8.947  10.921 -1.1372 -0.6025 -2.8626
48868SOL     OW51160   2.888   2.069   6.996  0.5489  0.4408 -0.4213
48868SOL    HW151161   2.872   2.145   6.940 -0.0099 -2.0234 -3.9937
48868SOL    HW251162   2.983   2.069   7.010  0.5011  2.0155  0.1031
48869SOL     OW51163  10.314   5.980   9.905  0.0890  0.0467  0.5041
48869SOL    HW151164  10.231   6.010   9.868 -0.4375 -2.6250 -0.7413
48869SOL    HW251165  10.295   5.961   9.996 -0.2758  0.8459  0.5953
48870SOL     OW51166   2.242  11.988   1.300 -0.1960 -0.6181  0.3797
48870SOL    HW151167   2.328  11.946   1.297 -0.3346 -0.8831  0.0630
48870SOL    HW251168   2.261  12.081   1.297  0.0591 -0.6856 -0.3380
48871SOL     OW51169   0.158   6.498   1.238  0.4038 -0.1945  0.5694
48871SOL    HW151170   0.174   6.589   1.212  1.1949 -0.4320  0.2210
48871SOL    HW251171   0.201   6.490   1.323  0.7414 -0.3696  0.3848
48872SOL     OW51172   8.714   7.352   2.614  0.4477  0.1693  0.1593
48872SOL    HW151173   8.735   7.445   2.604 -1.0713  0.5245 -0.0066
48872SOL    HW251174   8.629   7.342   2.572  0.1927 -1.1225  0.9210
48873SOL     OW51175   7.960   7.764   7.043 -0.1743 -0.1000 -0.1371
48873SOL    HW151176   7.901   7.700   7.081 -0.8030  2.3795  3.5488
48873SOL    HW251177   8.046   7.742   7.080 -0.0470  0.1794 -0.2635
48874SOL     OW51178   3.383   5.367   7.011 -0.1363 -0.1394 -0.0201
48874SOL    HW151179   3.459   5.335   7.059  0.9995 -0.9663 -2.2518
48874SOL    HW251180   3.348   5.290   6.966 -2.2177  0.2638  0.7919
48875SOL     OW51181   6.867   8.121   7.161 -0.4973  0.4353 -0.0990
48875SOL    HW151182   6.781   8.079   7.158  0.3613 -1.3898 -0.5644
48875SOL    HW251183   6.926   8.056   7.125  1.1352  1.5553  0.4655
48876SOL     OW51184   5.723   9.517   8.388 -0.0678  0.5884 -0.4459
48876SOL    HW151185   5.677   9.524   8.304 -0.5843  1.0999 -0.1288
48876SOL    HW251186   5.727   9.423   8.405 -1.3051  0.5400 -0.3257
48877SOL     OW51187   0.840   4.278   7.181 -0.0097  0.1582  0.1171
48877SOL    HW151188   0.917   4.264   7.235  0.5449  0.8357 -0.4910
48877SOL    HW251189   0.870   4.263   7.091 -0.2140  1.8094 -0.2579
48878SOL     OW51190  12.100   2.733   7.218 -0.2782 -0.0631 -0.8584
48878SOL    HW151191  12.192   2.719   7.195 -0.4565  0.1082 -1.7248
48878SOL    HW251192  12.064   2.778   7.142 -0.3172  2.8171  0.7190
48879SOL     OW51193  10.047   5.443   7.511  0.0567 -0.1252  0.2558
48879SOL    HW151194  10.088   5.468   7.594  0.4499 -0.2647  0.1084
48879SOL    HW251195  10.081   5.506   7.448  1.5723 -1.3610 -0.2546
48880SOL     OW51196   0.856   6.638   9.801 -0.1351  0.8097  0.2474
48880SOL    HW151197   0.844   6.633   9.896 -0.6142  2.9092  0.3463
48880SOL    HW251198   0.767   6.636   9.766  0.0571 -0.3945 -0.2195
48881SOL     OW51199   6.556   7.088   9.593  0.4236  0.2774 -0.1983
48881SOL    HW151200   6.527   7.001   9.620  1.8803 -0.0998  0.2822
48881SOL    HW251201   6.583   7.077   9.502 -1.3420  0.7500 -0.8105
48882SOL     OW51202   6.840   2.021   1.879 -0.2430  0.0955 -0.1677
48882SOL    HW151203   6.855   2.114   1.860  0.6858 -0.0513 -0.1826
48882SOL    HW251204   6.927   1.982   1.878 -0.6937 -0.9568 -1.0968
48883SOL     OW51205   7.297   4.351   5.145  0.2177 -0.1148 -0.7011
48883SOL    HW151206   7.286   4.443   5.171  1.5275 -0.1395  0.0233
48883SOL    HW251207   7.278   4.301   5.225  0.6163 -0.4180 -0.7959
48884SOL     OW51208   7.333   7.555  10.443  0.0559 -0.2824  0.0202
48884SOL    HW151209   7.296   7.480  10.490  1.6764  0.0106  1.8978
48884SOL    HW251210   7.259   7.613  10.427 -0.9936 -1.6683 -0.2767
48885SOL     OW51211   9.452   5.390   1.971 -0.0833 -0.2681 -0.1618
48885SOL    HW151212   9.370   5.440   1.968  0.1063  0.1248 -3.4614
48885SOL    HW251213   9.428   5.305   1.935  0.7225 -0.5852  0.0485
48886SOL     OW51214   3.952   3.269  10.455  0.7949 -0.2122  0.3549
48886SOL    HW151215   4.022   3.334  10.465 -1.4074  2.5436 -0.8759
48886SOL    HW251216   3.881   3.300  10.510 -0.1262 -1.9817  0.2456
48887SOL     OW51217  10.180   2.104   9.625 -0.3357  0.2681  0.2801
48887SOL    HW151218  10.233   2.066   9.555 -1.1864 -0.9924  0.2717
48887SOL    HW251219  10.122   2.166   9.580 -0.9281 -0.5896 -0.1767
48888SOL     OW51220   5.136   8.884   6.565 -0.2248 -0.1270  0.2205
48888SOL    HW151221   5.138   8.980   6.564  0.0728 -0.0732  1.8969
48888SOL    HW251222   5.054   8.861   6.522 -0.2607  0.8827 -0.2741
48889SOL     OW51223   2.836  10.222  10.879  0.2332 -0.4993  0.1707
48889SOL    HW151224   2.817  10.273  10.801  0.6437  0.0955  0.4542
48889SOL    HW251225   2.756  10.173  10.896  0.2713 -0.9379 -0.8458
48890SOL     OW51226   7.616   9.521   8.784  0.2470 -0.2970 -0.1777
48890SOL    HW151227   7.665   9.603   8.788 -1.0262  0.4573  2.1549
48890SOL    HW251228   7.564   9.527   8.704  0.0706  1.2853  0.0244
48891SOL     OW51229   3.561  10.917   3.238  0.2983  0.3761 -0.2251
48891SOL    HW151230   3.630  10.961   3.287  2.4005 -2.4371 -0.3593
48891SOL    HW251231   3.609  10.856   3.180 -2.2786 -1.5252 -0.5291
48892SOL     OW51232   2.141   2.265   7.985 -0.7524  0.3318  1.0619
48892SOL    HW151233   2.134   2.235   8.076  0.5048 -1.2480  0.6799
48892SOL    HW251234   2.234   2.282   7.973 -1.0904  1.8513  0.4440
48893SOL     OW51235   6.034   8.400   6.182 -0.1384 -0.0198  0.0515
48893SOL    HW151236   6.058   8.309   6.197 -1.2308 -0.5076 -1.0431
48893SOL    HW251237   6.091   8.429   6.111  1.9192  0.9395  1.9777
48894SOL     OW51238   7.195   5.657   9.020  0.0034 -0.1061 -0.4498
48894SOL    HW151239   7.181   5.642   8.927 -1.2231  2.2319 -0.7058
48894SOL    HW251240   7.120   5.614   9.063  0.1780 -0.5440 -0.5731
48895SOL     OW51241   0.343   8.537   2.887  0.6281 -0.1001 -0.4083
48895SOL    HW151242   0.421   8.588   2.868  1.4857 -1.2999 -0.2242
48895SOL    HW251243   0.296   8.532   2.804  0.9524  0.2847 -0.6164
48896SOL     OW51244   2.192   6.343   7.958  0.5235  0.9279  0.0061
48896SOL    HW151245   2.101   6.371   7.968  0.3228  0.6465 -0.9838
48896SOL    HW251246   2.187   6.249   7.943  0.9067  1.0368 -0.8903
48897SOL     OW51247   9.681   9.178  11.328  0.4546  0.2788 -0.0235
48897SOL    HW151248   9.716   9.092  11.306 -0.5833 -0.5103  1.2268
48897SOL    HW251249   9.596   9.182  11.284  0.6232  0.7818 -0.3095
48898SOL     OW51250   0.638   5.286   4.496  0.3388 -0.1189 -0.0908
48898SOL    HW151251   0.679   5.230   4.561  4.3530  1.3272 -1.1039
48898SOL    HW251252   0.566   5.329   4.543  1.3158 -1.1901  2.5549
48899SOL     OW51253   5.870   1.551  10.273 -0.2223  0.0753 -0.4386
48899SOL    HW151254   5.866   1.536  10.367  2.5747 -0.3039 -0.3172
48899SOL    HW251255   5.944   1.610  10.260 -1.2423  1.0445 -2.3375
48900SOL     OW51256   2.744   1.710   7.247 -0.1501  0.0006 -0.0748
48900SOL    HW151257   2.756   1.674   7.335 -1.3831  0.3847  0.2601
48900SOL    HW251258   2.828   1.751   7.226 -0.6250  2.1792  1.9749
48901SOL     OW51259   9.594   0.569   3.712 -0.4476  0.0385 -0.0779
48901SOL    HW151260   9.643   0.498   3.672 -1.2034 -0.8033  0.4511
48901SOL    HW251261   9.512   0.529   3.741 -0.5966  0.9596  0.8726
48902SOL     OW51262   2.562  11.907   0.824  0.0712 -0.2545 -0.0384
48902SOL    HW151263   2.490  11.964   0.851 -0.1632  0.2644 -1.6338
48902SOL    HW251264   2.638  11.941   0.871 -0.4130  0.2499  0.3941
48903SOL     OW51265   0.820   1.765   1.516  0.0655  0.2585 -0.0472
48903SOL    HW151266   0.756   1.736   1.450 -1.5555  0.5945  1.2959
48903SOL    HW251267   0.798   1.857   1.531  0.4948  0.2197  0.8680
48904SOL     OW51268  11.256   5.382   7.346  0.7357 -0.0068  0.0998
48904SOL    HW151269  11.231   5.340   7.428 -1.2558  0.0928 -0.3876
48904SOL    HW251270  11.235   5.474   7.358  2.9876  0.5272  0.3790
48905SOL     OW51271   5.829   3.449   8.232 -0.2898 -0.5443 -0.2446
48905SOL    HW151272   5.876   3.420   8.154 -0.5028 -2.4186  0.2637
48905SOL    HW251273   5.897   3.467   8.297 -0.1755 -1.4829 -0.0839
48906SOL     OW51274   9.898   9.212   8.197 -0.7275  0.0845 -0.5932
48906SOL    HW151275   9.802   9.210   8.190 -0.6936 -0.1616 -1.0216
48906SOL    HW251276   9.920   9.305   8.203 -0.9323  0.2024 -1.4874
48907SOL     OW51277   1.273   9.750   0.593 -0.5938 -0.1004 -0.1852
48907SOL    HW151278   1.272   9.729   0.500 -0.4452  2.3373 -0.8114
48907SOL    HW251279   1.364   9.738   0.620 -0.9928 -2.8139  0.2391
48908SOL     OW51280   9.581   6.905   0.060  0.0198 -0.0921 -0.1122
48908SOL    HW151281   9.515   6.838   0.037  0.3838 -0.6036  0.3120
48908SOL    HW251282   9.557   6.933   0.148  0.3382 -0.2453  0.0237
48909SOL     OW51283   8.503  10.275   1.887 -0.2018  0.2385  0.0650
48909SOL    HW151284   8.571  10.305   1.828 -0.6297  0.7264 -0.1936
48909SOL    HW251285   8.503  10.339   1.958 -0.3002  0.1708  0.1280
48910SOL     OW51286   2.901   1.137  11.344  0.4395 -0.0157  0.3864
48910SOL    HW151287   2.865   1.156  11.430  0.5922 -0.4477  0.5512
48910SOL    HW251288   2.826   1.144  11.285 -0.0442 -1.3685  0.7908
48911SOL     OW51289   7.510   5.705   2.493  0.3612 -0.3215  0.3990
48911SOL    HW151290   7.526   5.687   2.401  1.6408 -1.1124  0.7553
48911SOL    HW251291   7.442   5.773   2.493 -0.9510 -1.5598 -1.0873
48912SOL     OW51292   7.917   5.471   4.506  0.2646 -0.0113  0.2011
48912SOL    HW151293   7.994   5.518   4.476 -1.4294  2.0644 -1.2524
48912SOL    HW251294   7.879   5.527   4.575 -0.4510 -0.5095  0.2337
48913SOL     OW51295   5.495  10.379  10.916  0.3342 -0.0112  0.2905
48913SOL    HW151296   5.481  10.437  10.990 -0.9076 -0.6069  0.5578
48913SOL    HW251297   5.423  10.399  10.855  2.5851  2.0956 -1.8837
48914SOL     OW51298   5.517   1.053  10.204 -0.1320  0.1138  0.2009
48914SOL    HW151299   5.491   1.040  10.295  2.1361  0.6580  0.9745
48914SOL    HW251300   5.464   0.990  10.155 -0.8891 -0.6825  1.9701
48915SOL     OW51301   0.122  11.301   0.871  0.0319 -0.4238 -0.8498
48915SOL    HW151302   0.079  11.242   0.809 -1.0117  0.3119 -0.8607
48915SOL    HW251303   0.074  11.289   0.953  0.3443 -0.1873 -0.6293
48916SOL     OW51304   9.865   1.165   6.754  0.0220  0.1643  0.2430
48916SOL    HW151305   9.812   1.228   6.803 -0.2655 -0.3074  0.5343
48916SOL    HW251306   9.809   1.137   6.682  0.6121  1.2207 -0.6548
48917SOL     OW51307   6.520   4.283   2.923  0.7574  0.3929 -0.1012
48917SOL    HW151308   6.598   4.269   2.975  0.7030  0.2727 -0.0518
48917SOL    HW251309   6.550   4.331   2.846  0.7389  1.1169  0.3318
48918SOL     OW51310   2.286  11.591   3.886 -0.6990 -0.3575  0.9315
48918SOL    HW151311   2.276  11.514   3.830 -1.3279  0.5264 -0.2119
48918SOL    HW251312   2.355  11.567   3.948 -0.2465 -1.4945  0.0169
48919SOL     OW51313  11.692   9.892   8.024  0.0382  0.3757  0.2556
48919SOL    HW151314  11.666   9.826   7.960 -0.1848 -0.7982  1.4991
48919SOL    HW251315  11.781   9.867   8.050 -0.5811 -0.3910  1.8211
48920SOL     OW51316   1.779   8.454  11.686  0.3655 -0.6491 -0.4877
48920SOL    HW151317   1.756   8.428  11.775 -0.6685 -0.5400 -0.7114
48920SOL    HW251318   1.718   8.405  11.630  0.8658 -0.5582 -1.1238
48921SOL     OW51319   2.338   4.320   4.201  0.4682 -0.4000  0.4363
48921SOL    HW151320   2.287   4.240   4.216 -0.2656  0.0276  0.3071
48921SOL    HW251321   2.345   4.360   4.288 -0.9922  0.4405  0.2163
48922SOL     OW51322   4.532  10.616   3.857  0.2587  0.4571 -0.1087
48922SOL    HW151323   4.512  10.633   3.765 -0.0182  0.2683 -0.0850
48922SOL    HW251324   4.625  10.594   3.858  0.2630  0.4651 -0.3436
48923SOL     OW51325   0.163   0.805   1.427  0.2233 -0.6037 -0.1810
48923SOL    HW151326   0.087   0.834   1.376 -0.5031  0.5481  1.4492
48923SOL    HW251327   0.126   0.751   1.496  0.7756  0.5270  1.0383
48924SOL     OW51328   1.980   0.740   0.028  0.7806  0.6228  0.3180
48924SOL    HW151329   1.983   0.834   0.044 -2.6078  0.5795  2.1629
48924SOL    HW251330   1.912   0.708   0.087 -0.4212 -2.4903 -2.4484
48925SOL     OW51331  11.584   2.771   4.459  0.0466  0.3828 -0.0696
48925SOL    HW151332  11.633   2.817   4.391  0.0317 -0.7463 -0.8700
48925SOL    HW251333  11.647   2.759   4.530  0.5818  0.0291 -0.5962
48926SOL     OW51334   2.016   4.805   7.002 -0.4545 -0.6620  0.3774
48926SOL    HW151335   1.969   4.781   6.922 -1.0657 -0.1826  0.5822
48926SOL    HW251336   1.949   4.805   7.070  0.0365 -0.9208  0.8622
48927SOL     OW51337  10.220   3.376   8.009 -0.3319 -0.1864  0.1130
48927SOL    HW151338  10.150   3.385   8.073  0.0870 -0.6079  0.6434
48927SOL    HW251339  10.214   3.455   7.955  0.7603  1.3722  2.1314
48928SOL     OW51340   9.152   7.690   1.677  0.0826 -0.5328  0.0059
48928SOL    HW151341   9.063   7.667   1.649 -0.0257  0.0187 -0.1120
48928SOL    HW251342   9.192   7.606   1.698 -0.9707 -0.6950  1.5738
48929SOL     OW51343   7.714  10.759  12.087  0.1695 -0.4468 -0.7131
48929SOL    HW151344   7.797  10.719  12.061  0.1311 -0.5527 -0.6732
48929SOL    HW251345   7.713  10.753  12.182 -0.1547 -0.9855 -0.7481
48930SOL     OW51346  11.265  11.304   1.176 -0.5282 -0.5645 -0.2505
48930SOL    HW151347  11.342  11.252   1.202  0.4082  0.4995 -0.8246
48930SOL    HW251348  11.265  11.378   1.237 -1.1448 -0.6001 -0.2083
48931SOL     OW51349   5.025   2.102   3.157 -0.2298  0.2439 -0.4588
48931SOL    HW151350   4.931   2.086   3.148 -0.7623  1.6875  1.6932
48931SOL    HW251351   5.030   2.189   3.197  2.1118  1.0479 -2.2397
48932SOL     OW51352   3.469   0.775   7.447  0.3407 -0.1679  0.0504
48932SOL    HW151353   3.432   0.727   7.521  1.4477  1.0843  1.4746
48932SOL    HW251354   3.536   0.716   7.412  0.1762 -0.5625  0.3821
48933SOL     OW51355   6.287   3.353   8.913  0.6817  0.1730 -0.1469
48933SOL    HW151356   6.328   3.375   8.829 -0.6892  0.7492 -0.6897
48933SOL    HW251357   6.356   3.368   8.978  1.3443  1.0994 -1.0333
48934SOL     OW51358   3.817   9.213   7.246  0.8962  0.0174 -0.4782
48934SOL    HW151359   3.740   9.200   7.302  1.4548 -2.1911 -0.1433
48934SOL    HW251360   3.860   9.291   7.282  0.0382 -0.0380  0.7279
48935SOL     OW51361   1.020   0.850   8.538 -0.1360 -0.3830 -0.2281
48935SOL    HW151362   0.960   0.901   8.483 -0.4049 -0.4999 -0.0490
48935SOL    HW251363   1.096   0.907   8.550 -0.5773  0.1305  0.2562
48936SOL     OW51364   5.737  10.237  10.100 -0.0297  0.5139 -0.3652
48936SOL    HW151365   5.771  10.260  10.014 -0.4024  2.3353 -0.0666
48936SOL    HW251366   5.644  10.257  10.095 -0.0187  0.8205  0.5125
48937SOL     OW51367   8.122   1.898   9.025 -0.0611 -0.3723  0.5232
48937SOL    HW151368   8.098   1.817   9.069  0.2941  0.6702  2.7723
48937SOL    HW251369   8.050   1.958   9.045  0.4956  0.3666  0.3685
48938SOL     OW51370   9.379   6.352   2.637  0.1324  0.7405 -0.5480
48938SOL    HW151371   9.450   6.402   2.594  1.9522  1.2748  2.7586
48938SOL    HW251372   9.408   6.261   2.631  0.3453  0.8061 -0.5559
48939SOL     OW51373   4.070   6.884   9.765 -0.4461 -0.4986  0.2004
48939SOL    HW151374   4.024   6.945   9.708  0.0856  0.7479  1.0422
48939SOL    HW251375   4.155   6.870   9.723  0.1320  0.7964  0.8796
48940SOL     OW51376   1.889   5.553   8.802  0.3481  0.1760  0.1842
48940SOL    HW151377   1.912   5.642   8.827 -0.6762  0.4547  0.1697
48940SOL    HW251378   1.893   5.553   8.706 -0.4249  0.4362  0.1437
48941SOL     OW51379   5.982   3.700   6.515 -0.6496 -0.1735 -0.3318
48941SOL    HW151380   5.915   3.646   6.474 -1.1913  0.4384 -0.2616
48941SOL    HW251381   6.064   3.651   6.502 -1.1721 -1.1806  0.0299
48942SOL     OW51382   6.396   9.668   0.360  0.1109  0.5995 -0.1484
48942SOL    HW151383   6.316   9.707   0.324  1.0593  1.7095 -1.1577
48942SOL    HW251384   6.385   9.674   0.455 -1.4952 -0.3584 -0.2430
48943SOL     OW51385   7.299   8.955   1.373 -0.1787  0.1515 -0.0686
48943SOL    HW151386   7.384   8.997   1.363 -1.1392  1.9122 -1.2449
48943SOL    HW251387   7.302   8.881   1.313  0.9595 -0.6232  0.8791
48944SOL     OW51388  10.741  11.874  10.372 -0.2384  0.2993  0.5480
48944SOL    HW151389  10.656  11.844  10.405 -0.4827  1.2198  0.8001
48944SOL    HW251390  10.756  11.823  10.292 -0.1412 -1.2119  1.4822
48945SOL     OW51391   8.390   0.209   6.853  0.3368 -0.0281  0.0735
48945SOL    HW151392   8.401   0.291   6.902 -0.3717 -0.2865  0.6857
48945SOL    HW251393   8.386   0.237   6.762  0.8619  0.5470  0.2190
48946SOL     OW51394   2.567   1.246   9.790 -0.4017  0.4251  0.1676
48946SOL    HW151395   2.622   1.221   9.715  0.0329  0.0227  0.6206
48946SOL    HW251396   2.629   1.272   9.858 -0.6347 -2.3635  1.5595
48947SOL     OW51397   0.976   7.421   4.180 -0.1079  0.3465  0.2285
48947SOL    HW151398   1.052   7.429   4.122  0.5033 -0.6775  0.8764
48947SOL    HW251399   0.964   7.509   4.215  0.3176  0.6827 -0.4427
48948SOL     OW51400   8.312   4.851  11.702 -0.5239  0.1111  0.1181
48948SOL    HW151401   8.298   4.836  11.795 -0.8885  0.5307  0.1367
48948SOL    HW251402   8.225   4.847  11.663 -0.5848  1.5710  0.0495
48949SOL     OW51403   3.026   8.672   7.552 -0.5872 -0.3172  0.4073
48949SOL    HW151404   3.052   8.607   7.617  1.3505  1.1603  1.1892
48949SOL    HW251405   3.035   8.756   7.596  2.6087  0.9157 -2.1886
48950SOL     OW51406   8.547   6.724   2.984  0.0624 -0.0923 -0.4659
48950SOL    HW151407   8.578   6.652   2.930  0.3991 -1.1681  1.1123
48950SOL    HW251408   8.617   6.789   2.979  0.0677 -0.1518 -1.3382
48951SOL     OW51409  10.128   1.634  10.854 -0.6867 -0.3598 -0.3804
48951SOL    HW151410  10.109   1.658  10.764  1.0333 -1.6100 -1.1241
48951SOL    HW251411  10.143   1.718  10.899 -2.8652  0.3609 -0.8816
48952SOL     OW51412   4.450   0.209   6.747 -0.4352  0.2566 -0.3099
48952SOL    HW151413   4.480   0.254   6.827 -2.6365  0.8301  0.2472
48952SOL    HW251414   4.417   0.279   6.691 -0.7332 -0.3434 -0.9004
48953SOL     OW51415   4.663   5.712   5.029 -0.2344 -0.3942  0.3775
48953SOL    HW151416   4.615   5.651   4.973 -1.2979  0.4692  0.3089
48953SOL    HW251417   4.669   5.793   4.978 -1.3266  0.4451  1.5110
48954SOL     OW51418   6.362   4.299  10.967 -0.3465 -0.2361 -0.1959
48954SOL    HW151419   6.436   4.360  10.963  1.2334 -2.0574  0.1042
48954SOL    HW251420   6.372   4.244  10.890  0.4266 -2.4444  1.3953
48955SOL     OW51421  10.719   0.008   9.725  0.2262  0.0830 -0.3690
48955SOL    HW151422  10.753   0.088   9.765 -0.4642 -0.9924  2.7097
48955SOL    HW251423  10.628   0.029   9.704  0.5829  0.6583 -1.3486
48956SOL     OW51424   1.436   1.849   5.304 -0.0530 -0.5098  0.3955
48956SOL    HW151425   1.495   1.848   5.380  0.1504 -0.2958  0.2392
48956SOL    HW251426   1.485   1.806   5.235  0.0864  0.0576  0.1401
48957SOL     OW51427   3.435   6.495   8.196  0.2692 -0.2521  0.0966
48957SOL    HW151428   3.522   6.481   8.233  0.2989 -0.9179 -0.2199
48957SOL    HW251429   3.449   6.554   8.122  0.4249 -0.2173  0.1557
48958SOL     OW51430   1.936  11.920   8.869 -0.1952  0.1404 -0.7519
48958SOL    HW151431   1.976  12.007   8.873 -2.3798  1.2519 -1.6106
48958SOL    HW251432   1.923  11.903   8.776 -2.3811  0.2073 -0.5098
48959SOL     OW51433  11.953   0.866   2.951 -0.2832  0.5637  0.8100
48959SOL    HW151434  11.891   0.918   3.003  2.1769  2.2260  2.2802
48959SOL    HW251435  12.025   0.927   2.932  0.8540 -1.2293 -0.9587
48960SOL     OW51436   0.414  12.019  11.721  0.1801 -0.4649 -0.0190
48960SOL    HW151437   0.491  11.969  11.696  0.7854  0.1341  0.6413
48960SOL    HW251438   0.389  11.985  11.807 -1.0383 -1.5037 -0.7336
48961SOL     OW51439   8.342   2.114   1.463 -0.6124  0.2193  0.1876
48961SOL    HW151440   8.419   2.167   1.487 -0.3107 -0.7108  1.3567
48961SOL    HW251441   8.344   2.040   1.523 -1.0249 -1.1484 -1.4025
48962SOL     OW51442  11.637   7.713  10.332  0.7363 -0.2277 -0.6034
48962SOL    HW151443  11.612   7.799  10.367  0.5398 -0.3844 -0.3565
48962SOL    HW251444  11.698   7.677  10.396 -0.7472 -1.1412  0.3349
48963SOL     OW51445   9.308   6.007   1.795  0.0458  0.2276 -0.3778
48963SOL    HW151446   9.263   6.032   1.714  0.1084 -2.5839 -1.3616
48963SOL    HW251447   9.264   6.059   1.863 -1.2639  1.2842 -1.9463
48964SOL     OW51448   9.004   8.224  11.663 -0.2029  0.0452 -0.1147
48964SOL    HW151449   8.971   8.258  11.580  0.2714  0.6295 -0.0737
48964SOL    HW251450   8.996   8.129  11.655  0.9393  0.0239 -1.3128
48965SOL     OW51451   6.733   2.798   9.746 -0.3525  0.1510  0.0983
48965SOL    HW151452   6.704   2.862   9.811 -1.8949 -0.5154  0.1108
48965SOL    HW251453   6.715   2.839   9.662 -0.0986  0.2593  0.0953
48966SOL     OW51454   5.449   3.266   9.395 -0.0925 -0.3703 -0.3463
48966SOL    HW151455   5.476   3.357   9.404  1.3459 -0.8615  0.5970
48966SOL    HW251456   5.358   3.271   9.365 -0.4103  1.3818  0.7467
48967SOL     OW51457  11.445   8.022   3.084  0.2219 -0.0569 -0.1266
48967SOL    HW151458  11.428   7.998   2.993  1.0634 -1.4426  0.0379
48967SOL    HW251459  11.429   7.941   3.133 -0.8884  0.8456  1.0551
48968SOL     OW51460   5.043  11.450   9.986 -0.1051  0.0039  0.3355
48968SOL    HW151461   5.118  11.409  10.029  1.0411  1.4787 -0.1572
48968SOL    HW251462   4.975  11.451  10.054  1.1608  0.8867  1.6759
48969SOL     OW51463   6.577   8.935   3.927 -0.4041  0.0098  0.0594
48969SOL    HW151464   6.534   9.020   3.935  1.7964  1.1434  0.9395
48969SOL    HW251465   6.581   8.902   4.017  1.6909  0.6295  0.2672
48970SOL     OW51466   4.912   9.629  11.835  0.2606 -0.1500 -0.1156
48970SOL    HW151467   4.968   9.626  11.912 -0.2218  0.1227  0.2529
48970SOL    HW251468   4.828   9.595  11.864  0.2205 -0.5302 -0.6574
48971SOL     OW51469   7.795   4.005   1.866  0.3054 -0.2330 -0.4252
48971SOL    HW151470   7.775   3.980   1.776  1.7655 -2.4235 -0.2233
48971SOL    HW251471   7.766   3.930   1.919 -1.0539  1.2536  1.0257
48972SOL     OW51472  11.408   0.513   1.505 -0.0481 -0.4410 -0.3350
48972SOL    HW151473  11.343   0.446   1.481  0.0922 -0.6872 -0.0396
48972SOL    HW251474  11.396   0.524   1.599 -0.2833  0.1823 -0.4379
48973SOL     OW51475   5.686   8.655   2.123 -0.3121  0.0207 -0.0843
48973SOL    HW151476   5.722   8.678   2.208  1.9068  2.0862 -1.4571
48973SOL    HW251477   5.602   8.614   2.143 -0.0058  0.6684  3.0502
48974SOL     OW51478   7.889   5.621   1.360 -0.3741 -0.4680  0.3883
48974SOL    HW151479   7.938   5.672   1.424 -0.7556 -0.0687  0.3697
48974SOL    HW251480   7.954   5.595   1.295 -0.3469  0.9273 -0.1941
48975SOL     OW51481   8.450  12.023  11.907 -0.2840 -0.0665 -0.1877
48975SOL    HW151482   8.484  12.112  11.895 -0.2422 -0.2122 -1.2048
48975SOL    HW251483   8.516  11.980  11.961 -0.5674  0.6670  0.7837
48976SOL     OW51484   7.185  10.913   8.137 -0.2116  0.0205  0.2399
48976SOL    HW151485   7.146  10.985   8.187 -0.6783 -2.1033  3.2111
48976SOL    HW251486   7.265  10.890   8.186  0.2150 -1.1450 -0.9318
48977SOL     OW51487   7.242   5.732  11.398  0.2179 -0.1785  0.1951
48977SOL    HW151488   7.290   5.651  11.385 -1.0895 -1.0479  0.6337
48977SOL    HW251489   7.181   5.737  11.325  1.8982  1.6732 -1.2018
48978SOL     OW51490   2.411  10.101   6.942  0.1372 -0.0710 -0.1313
48978SOL    HW151491   2.444  10.166   7.004 -0.2810  1.9121 -1.8882
48978SOL    HW251492   2.316  10.101   6.956 -0.1267  1.4496 -1.6796
48979SOL     OW51493   6.150   1.164   6.017 -0.1198  0.1436  0.6748
48979SOL    HW151494   6.208   1.232   5.981 -1.8693  0.5834 -1.5211
48979SOL    HW251495   6.073   1.166   5.961 -0.6235 -3.1056  1.0651
48980SOL     OW51496   4.506   8.450   5.916 -0.1197  0.2252  0.2371
48980SOL    HW151497   4.540   8.362   5.900 -0.1161  0.0031  1.3886
48980SOL    HW251498   4.533   8.501   5.839  2.5460 -0.0164  0.9310
48981SOL     OW51499  10.357   7.047   5.186 -0.2779 -0.2538  0.1987
48981SOL    HW151500  10.425   7.109   5.158  1.6598 -1.6706  1.4820
48981SOL    HW251501  10.376   6.967   5.136 -1.8682 -0.2739 -0.4109
48982SOL     OW51502   4.507   9.422   6.401  0.2016 -0.6356  0.0857
48982SOL    HW151503   4.531   9.360   6.331  1.3686  1.1451 -1.1913
48982SOL    HW251504   4.523   9.508   6.363 -1.2843  0.4780  1.8340
48983SOL     OW51505   6.614   5.591   1.949 -0.1977 -0.0565  0.1078
48983SOL    HW151506   6.552   5.588   2.022  1.7226  0.2220  1.8512
48983SOL    HW251507   6.678   5.658   1.975  0.3536  0.3029 -2.0206
48984SOL     OW51508   6.104   2.221   4.719  0.1805  0.0844  0.5003
48984SOL    HW151509   6.087   2.127   4.713 -0.5276  0.1177  1.8152
48984SOL    HW251510   6.086   2.243   4.810  0.8115  1.4142  0.3236
48985SOL     OW51511   3.365  10.333   2.345  0.0385 -0.4615  0.1753
48985SOL    HW151512   3.296  10.298   2.288  0.2302 -2.7172  1.1991
48985SOL    HW251513   3.321  10.393   2.404 -1.1509 -1.9852  0.9138
48986SOL     OW51514  10.567   2.600   1.537 -0.6936 -0.3593  0.6327
48986SOL    HW151515  10.509   2.673   1.520 -0.2514 -0.3643 -1.0178
48986SOL    HW251516  10.521   2.523   1.503  0.4006 -0.3072 -1.0845
48987SOL     OW51517   3.634   1.879   0.391 -0.2145 -0.0733 -0.0727
48987SOL    HW151518   3.581   1.802   0.412  0.2926 -0.7275 -1.1374
48987SOL    HW251519   3.713   1.844   0.350  0.6756  0.9403  0.7168
48988SOL     OW51520  12.078   7.064   1.105 -0.0260  0.4558 -0.2788
48988SOL    HW151521  12.098   7.118   1.028 -1.7055 -0.7434 -1.6405
48988SOL    HW251522  11.991   7.093   1.133  0.5483  0.8497  1.1973
48989SOL     OW51523  11.914   5.284   8.554  0.0818 -0.2288  0.1733
48989SOL    HW151524  11.939   5.309   8.465  0.2638 -1.5998 -0.1795
48989SOL    HW251525  11.934   5.190   8.559  1.1852  0.0630  2.0457
48990SOL     OW51526   6.124   1.013   8.443 -0.7035  0.5211  0.6931
48990SOL    HW151527   6.030   1.003   8.457 -0.9941 -0.4130 -1.4563
48990SOL    HW251528   6.159   0.925   8.446 -0.3414  0.5751 -0.9809
48991SOL     OW51529   9.319   7.269  11.584 -0.0984 -0.5686 -0.3167
48991SOL    HW151530   9.244   7.244  11.529 -0.0106 -0.0616 -0.6716
48991SOL    HW251531   9.396   7.238  11.536 -0.0744 -1.2492  0.1321
48992SOL     OW51532   0.597   2.884   7.928 -0.0851 -0.3401 -0.1104
48992SOL    HW151533   0.604   2.881   7.832 -1.6118 -0.7163 -0.2332
48992SOL    HW251534   0.504   2.893   7.945  0.2372  0.5333  1.3472
48993SOL     OW51535  11.789   8.275   4.376  0.1668  0.2647 -0.3294
48993SOL    HW151536  11.870   8.229   4.355  0.3941 -0.0875  1.1880
48993SOL    HW251537  11.765   8.242   4.462 -0.8359  1.4170 -0.1435
48994SOL     OW51538   5.720   8.770   9.577  0.2717  0.3482 -0.4519
48994SOL    HW151539   5.704   8.864   9.572 -2.1196 -0.0490 -1.9248
48994SOL    HW251540   5.812   8.760   9.554  0.2257  2.2286 -1.6472
48995SOL     OW51541   2.062   1.199  10.146  0.3990  0.0311 -0.4255
48995SOL    HW151542   1.997   1.196  10.076 -0.2329  1.2570  0.0594
48995SOL    HW251543   2.076   1.293  10.160  0.2926 -0.1826  1.2736
48996SOL     OW51544  11.336  11.450   0.154  0.1354  0.3362 -0.2471
48996SOL    HW151545  11.361  11.479   0.241 -0.5601 -0.2400  0.1527
48996SOL    HW251546  11.314  11.358   0.164  0.1146  0.2406 -1.0504
48997SOL     OW51547   9.503   6.897   8.869  0.1608 -0.1014  0.3931
48997SOL    HW151548   9.442   6.969   8.856  0.0140 -0.4283 -0.9183
48997SOL    HW251549   9.574   6.934   8.921  0.0507  0.9827 -0.1949
48998SOL     OW51550   2.308   2.978   9.842 -0.0316  0.3444 -0.1147
48998SOL    HW151551   2.224   2.938   9.820  0.3996 -0.8931  0.3840
48998SOL    HW251552   2.296   3.071   9.822 -1.5582  0.2264  0.0912
48999SOL     OW51553   2.406   3.370   7.166 -0.2596  0.2643  0.5001
48999SOL    HW151554   2.488   3.406   7.132 -0.2699 -0.4119 -0.2730
48999SOL    HW251555   2.434   3.303   7.228 -0.1773 -0.9783 -0.8212
49000SOL     OW51556   6.614   5.752   8.295  0.3644  0.1510 -0.6642
49000SOL    HW151557   6.586   5.813   8.363  0.5174 -0.9054  0.3892
49000SOL    HW251558   6.600   5.799   8.213  1.2354  1.8993  0.1273
49001SOL     OW51559   6.553   3.910   4.398  0.0413  0.0493  0.1280
49001SOL    HW151560   6.586   3.840   4.455 -0.6158  0.5958  1.2069
49001SOL    HW251561   6.564   3.876   4.310  2.1762 -0.3734  0.4913
49002SOL     OW51562   8.645  10.881   3.974  0.3300 -0.1042 -0.3852
49002SOL    HW151563   8.695  10.880   4.056  1.8883  1.4309 -1.2315
49002SOL    HW251564   8.669  10.800   3.930 -0.5771 -0.9746  0.6837
49003SOL     OW51565  11.945   7.043   0.396  0.2479  0.3381 -0.2789
49003SOL    HW151566  11.873   7.033   0.334  1.2013  0.6223 -1.4524
49003SOL    HW251567  12.024   7.042   0.342  1.0971  0.6665  0.9228
49004SOL     OW51568  11.790   1.764  10.060  0.3571  0.2436 -0.0699
49004SOL    HW151569  11.818   1.672  10.062  1.6185  0.6081 -0.2738
49004SOL    HW251570  11.707   1.764  10.108 -0.0740 -1.1279 -0.7519
49005SOL     OW51571   6.817   3.708   1.074  0.4070 -0.5961 -0.0572
49005SOL    HW151572   6.891   3.767   1.086  0.7681 -1.1607  0.6117
49005SOL    HW251573   6.814   3.691   0.980  0.1860  0.6067 -0.2786
49006SOL     OW51574   2.647   9.942   7.944  0.0269  0.4605 -0.4416
49006SOL    HW151575   2.566   9.894   7.954  0.3231  0.2286  0.9369
49006SOL    HW251576   2.629  10.006   7.874 -1.1780  0.1201 -0.4496
49007SOL     OW51577  12.010   1.705   9.441 -0.1653  0.6528  0.1698
49007SOL    HW151578  12.092   1.691   9.393  0.1916  0.0465  0.9381
49007SOL    HW251579  11.996   1.623   9.488 -2.1094  0.0752 -1.2624
49008SOL     OW51580   2.160   0.884  10.494  0.2043  0.2244 -0.4765
49008SOL    HW151581   2.212   0.938  10.435  0.7883  1.7380  1.3315
49008SOL    HW251582   2.079   0.934  10.506  0.2456  0.1241  0.2637
49009SOL     OW51583  12.049   2.605   1.337  0.4492 -0.0132  0.0390
49009SOL    HW151584  11.967   2.648   1.362  0.9619  0.9290  0.1893
49009SOL    HW251585  12.029   2.561   1.255 -0.2084  0.2069  0.0713
49010SOL     OW51586  11.148   8.642   5.047  0.0658  0.1184 -0.7022
49010SOL    HW151587  11.135   8.548   5.036  0.5558  0.0980 -1.1646
49010SOL    HW251588  11.082   8.669   5.111  1.3116 -0.9312  1.1011
49011SOL     OW51589   7.826   6.440   3.122  0.4305  0.1859  0.2657
49011SOL    HW151590   7.841   6.404   3.210 -0.9671 -0.0078  0.4415
49011SOL    HW251591   7.832   6.535   3.134 -0.5025  0.1953  0.7337
49012SOL     OW51592   8.506  11.727   8.831 -0.0485  0.4328 -0.0996
49012SOL    HW151593   8.424  11.740   8.879  0.5670 -0.1068  1.1250
49012SOL    HW251594   8.535  11.640   8.857 -0.6344 -0.7416 -2.9090
49013SOL     OW51595   5.276   7.631   1.641  0.1367  0.5331 -0.2480
49013SOL    HW151596   5.251   7.654   1.552 -2.5387  1.3979  0.6290
49013SOL    HW251597   5.259   7.710   1.692  0.5533 -0.2842  1.2346
49014SOL     OW51598   6.853   1.040   4.529 -0.2640  0.5640  0.0361
49014SOL    HW151599   6.892   1.122   4.498 -0.2708  0.6722  0.3111
49014SOL    HW251600   6.924   0.976   4.522 -0.6575  0.2505 -1.5533
49015SOL     OW51601   1.542  11.112   5.039  0.4945  0.4634  0.0725
49015SOL    HW151602   1.518  11.110   4.947 -0.1892 -1.1560  0.2496
49015SOL    HW251603   1.460  11.094   5.086  1.2755 -1.3398  0.8544
49016SOL     OW51604  12.074  11.236   2.250 -0.5925  0.1032  0.2307
49016SOL    HW151605  12.005  11.300   2.235  0.3807  0.6799 -2.2485
49016SOL    HW251606  12.036  11.153   2.223 -0.0033  0.6115 -2.4175
49017SOL     OW51607   6.651   3.410   0.593 -0.3781  0.1072  0.1944
49017SOL    HW151608   6.675   3.427   0.684 -0.6842  0.6334  0.1769
49017SOL    HW251609   6.603   3.327   0.597 -1.2918  0.6365  0.6656
49018SOL     OW51610   2.964   2.136   2.135  0.4978 -0.2366 -0.0169
49018SOL    HW151611   3.003   2.084   2.206  1.5372  0.1450 -0.2911
49018SOL    HW251612   3.003   2.223   2.145  0.0867  0.0201 -0.6136
49019SOL     OW51613  10.628   6.060   8.846 -0.3294 -0.3854  0.1513
49019SOL    HW151614  10.612   6.154   8.836 -1.2651 -0.5339  0.0930
49019SOL    HW251615  10.610   6.024   8.759  1.2778 -0.4784 -0.1776
49020SOL     OW51616   3.170  10.873   4.141  0.2870  0.3678  0.9546
49020SOL    HW151617   3.257  10.911   4.125  0.3228 -0.1475 -0.1362
49020SOL    HW251618   3.110  10.945   4.126  0.3603  0.0634 -1.0517
49021SOL     OW51619   7.583   2.489   6.153  0.7976  0.2722  0.3124
49021SOL    HW151620   7.521   2.429   6.110 -3.3459  3.8488  0.5644
49021SOL    HW251621   7.582   2.463   6.245  1.8263 -1.2643 -0.0646
49022SOL     OW51622   0.657  10.755   7.037  0.4730 -0.3071  0.0797
49022SOL    HW151623   0.678  10.817   7.107 -0.0760 -0.5053  0.4281
49022SOL    HW251624   0.727  10.767   6.973  0.5835  0.4040  0.3170
49023SOL     OW51625   5.472   8.025   9.545  0.5092 -0.1650 -0.0487
49023SOL    HW151626   5.498   7.982   9.463 -0.4277 -0.0709 -0.4081
49023SOL    HW251627   5.407   8.090   9.519  1.7389  1.3480  0.5231
49024SOL     OW51628   1.767   8.484   6.064  0.0325  0.1818  0.6112
49024SOL    HW151629   1.830   8.424   6.102  0.7160  0.6523  0.2406
49024SOL    HW251630   1.683   8.437   6.069  0.7179 -1.2663 -0.6735
49025SOL     OW51631   8.646   1.494  10.711  0.0333 -0.1148 -0.6811
49025SOL    HW151632   8.590   1.525  10.783  1.1139  1.0212 -0.2826
49025SOL    HW251633   8.593   1.428  10.666 -1.5633  0.8081 -0.2459
49026SOL     OW51634   1.427   2.990   6.175 -0.1369  0.7414  0.1325
49026SOL    HW151635   1.365   3.034   6.117  0.3744  0.3997 -0.6912
49026SOL    HW251636   1.478   3.061   6.214  0.1537  0.9300 -0.5797
49027SOL     OW51637   0.484   3.524   8.020 -0.8523  0.2760 -0.3290
49027SOL    HW151638   0.432   3.559   7.948 -0.8660 -0.6567 -0.7892
49027SOL    HW251639   0.571   3.509   7.983 -1.4755 -2.5274 -0.9192
49028SOL     OW51640   7.806   0.670   0.217  0.9113 -0.3837  0.1444
49028SOL    HW151641   7.776   0.761   0.215 -0.3223 -0.7340  1.0664
49028SOL    HW251642   7.863   0.661   0.140 -1.4153  0.3373 -1.7833
49029SOL     OW51643   6.855   4.398   5.105  0.2709 -0.7414 -0.2739
49029SOL    HW151644   6.822   4.380   5.193 -1.6642  0.0905 -0.7761
49029SOL    HW251645   6.801   4.342   5.048  1.2460 -0.9909 -0.9813
49030SOL     OW51646  11.091   5.228  10.741 -0.5750 -0.8281  0.2516
49030SOL    HW151647  11.037   5.150  10.734 -0.8453 -0.5772 -0.6833
49030SOL    HW251648  11.179   5.200  10.716 -0.7148 -0.8008 -0.2907
49031SOL     OW51649  10.992  10.932   0.717  0.3169  0.4572  0.8619
49031SOL    HW151650  10.949  10.895   0.639  1.7025 -1.5047  0.9540
49031SOL    HW251651  10.971  11.025   0.713 -3.3817 -0.2121  0.5866
49032SOL     OW51652   4.803   4.493   8.733 -0.0758 -0.1251 -0.2801
49032SOL    HW151653   4.766   4.581   8.733 -1.9895 -0.8864 -1.0500
49032SOL    HW251654   4.817   4.472   8.826 -2.0055  0.0541  0.0838
49033SOL     OW51655  10.175   3.535  10.241 -0.1053 -0.2622  0.3209
49033SOL    HW151656  10.249   3.549  10.299 -0.1260 -1.7991  0.7542
49033SOL    HW251657  10.160   3.621  10.200 -0.7632  1.1744  3.3313
49034SOL     OW51658   6.827   2.514   4.061 -0.3312  0.2506  0.1403
49034SOL    HW151659   6.911   2.552   4.089 -0.2034  1.0537 -1.2126
49034SOL    HW251660   6.762   2.579   4.087 -0.6125 -0.5549  1.5493
49035SOL     OW51661   6.622   4.823   6.179 -0.0713  0.1619 -0.0395
49035SOL    HW151662   6.577   4.778   6.108 -0.6855  1.2782 -0.3945
49035SOL    HW251663   6.611   4.916   6.158 -0.0904  0.5109  1.4172
49036SOL     OW51664   2.124   0.853   2.555 -0.1977  0.2489 -0.0395
49036SOL    HW151665   2.061   0.912   2.515  0.0131 -0.4318 -1.4576
49036SOL    HW251666   2.147   0.791   2.485  1.5762  0.1095  0.5941
49037SOL     OW51667   5.553   3.018   5.842 -0.3607 -0.6254 -0.2291
49037SOL    HW151668   5.567   2.941   5.897  0.4551 -1.0461 -0.9912
49037SOL    HW251669   5.641   3.043   5.813 -0.7019  0.0627 -0.6931
49038SOL     OW51670  10.913   3.318   2.126  0.8397 -0.3053 -0.0073
49038SOL    HW151671  10.820   3.319   2.101  0.5163 -0.0260  1.1558
49038SOL    HW251672  10.956   3.373   2.060 -0.0819  0.9293  0.3743
49039SOL     OW51673   7.179   9.664   6.519 -0.0488 -0.1728  0.5248
49039SOL    HW151674   7.102   9.712   6.488  1.1573  2.0041  0.6826
49039SOL    HW251675   7.244   9.677   6.450  0.4896 -1.1184  0.8465
49040SOL     OW51676   9.432   7.789   5.964 -0.2441 -0.2478 -0.6046
49040SOL    HW151677   9.466   7.758   5.879  0.7187 -0.5250 -0.1348
49040SOL    HW251678   9.392   7.873   5.945  1.0491  0.2704 -1.1366
49041SOL     OW51679   8.372   2.742  11.025  0.5205  0.1552 -1.1825
49041SOL    HW151680   8.466   2.727  11.036  0.7996  0.4975 -2.7490
49041SOL    HW251681   8.332   2.657  11.041  1.0206  0.1542  0.1536
49042SOL     OW51682   9.406   1.234   2.040 -0.2199 -0.0385  0.3198
49042SOL    HW151683   9.363   1.213   2.123 -0.2361  0.5569  0.4694
49042SOL    HW251684   9.335   1.251   1.979 -0.2059  0.3445  0.4068
49043SOL     OW51685  10.510   2.145   6.296 -0.0748  0.5349 -0.2296
49043SOL    HW151686  10.435   2.094   6.265 -1.3172  2.1915 -0.0650
49043SOL    HW251687  10.533   2.201   6.221 -0.2277  1.3850  0.3510
49044SOL     OW51688   8.256   5.462   6.752 -0.4647 -0.2056  0.0141
49044SOL    HW151689   8.226   5.467   6.661 -0.4677  1.6458  0.0807
49044SOL    HW251690   8.196   5.517   6.801  1.3502  1.3622  0.6000
49045SOL     OW51691   4.525   7.439   6.226  0.4411 -0.1422  0.7436
49045SOL    HW151692   4.478   7.389   6.160  0.7008 -1.0790  1.2490
49045SOL    HW251693   4.477   7.423   6.308 -0.0488  1.2290  0.7586
49046SOL     OW51694   4.370   6.338   4.195 -0.5321 -0.3119  0.2156
49046SOL    HW151695   4.361   6.398   4.121  0.2797 -1.5215 -0.9062
49046SOL    HW251696   4.461   6.350   4.225 -1.2274  1.1615  1.9601
49047SOL     OW51697   4.052   7.723  10.085 -0.0663 -0.0479 -0.0885
49047SOL    HW151698   3.989   7.657  10.116 -0.5759  0.5017  0.0670
49047SOL    HW251699   4.128   7.672  10.056 -1.0168 -0.7881 -1.3283
49048SOL     OW51700   9.986   4.162   2.425  0.1575 -0.0513  0.0158
49048SOL    HW151701   9.935   4.096   2.472 -1.4890 -0.0720 -1.6838
49048SOL    HW251702   9.961   4.151   2.333  0.7133  2.1773 -0.4640
49049SOL     OW51703   1.352   1.642   5.477  0.0482  0.3963 -0.3651
49049SOL    HW151704   1.338   1.717   5.420  1.1144  0.0841 -1.0683
49049SOL    HW251705   1.388   1.574   5.420  0.3458 -0.2101  0.5089
49050SOL     OW51706   5.630   2.114   3.677 -0.3446 -0.1245  0.2762
49050SOL    HW151707   5.637   2.087   3.585 -1.9296  0.2678  0.0067
49050SOL    HW251708   5.568   2.051   3.715 -1.0485  0.7541  0.6206
49051SOL     OW51709   0.816   0.317   1.367 -0.2318  0.6177 -0.2660
49051SOL    HW151710   0.778   0.288   1.450  0.3881  1.7981  0.4544
49051SOL    HW251711   0.748   0.298   1.302  0.0429 -2.1797  0.1519
49052SOL     OW51712  10.170   2.204  10.853  0.1809  0.1905  0.4029
49052SOL    HW151713  10.125   2.261  10.790 -0.9094 -0.7363  0.3219
49052SOL    HW251714  10.252   2.250  10.872  0.0390  1.0149 -0.8630
49053SOL     OW51715  10.231   4.158   6.990  0.1515  0.1618 -0.4263
49053SOL    HW151716  10.246   4.177   7.083  0.1643  1.1677 -0.6285
49053SOL    HW251717  10.285   4.221   6.944 -0.7366  0.4234 -1.1308
49054SOL     OW51718   4.830   8.369   2.654 -0.1027 -0.4779 -0.0479
49054SOL    HW151719   4.875   8.317   2.588  0.8633 -0.0457  0.2582
49054SOL    HW251720   4.777   8.305   2.702  1.9114 -1.4184  1.0527
49055SOL     OW51721   3.368  11.333   0.975 -0.2834 -0.3337 -0.6661
49055SOL    HW151722   3.435  11.279   0.934  0.6825  0.5231 -0.2698
49055SOL    HW251723   3.384  11.324   1.069  0.2349  1.0309 -0.6028
49056SOL     OW51724   3.475   4.635  10.074  0.0907 -0.1226 -0.4067
49056SOL    HW151725   3.467   4.665   9.983  2.4558  1.4275 -0.1878
49056SOL    HW251726   3.511   4.547  10.066 -1.4802 -0.7553 -0.9590
49057SOL     OW51727   1.929   4.293   9.328 -0.2103 -0.2594 -0.5610
49057SOL    HW151728   1.866   4.356   9.363  0.1153  0.3835 -1.1000
49057SOL    HW251729   1.900   4.277   9.238 -2.4949 -3.7929  0.6383
49058SOL     OW51730  11.783   8.969  11.216  0.1949  0.1342  0.6766
49058SOL    HW151731  11.727   9.035  11.256  0.9764  0.9375  0.4567
49058SOL    HW251732  11.870   8.983  11.254  0.9468  0.8726 -1.1937
49059SOL     OW51733  11.839   5.539   9.176  0.3875  0.7730 -0.0299
49059SOL    HW151734  11.813   5.505   9.262  1.2406 -1.1245 -0.4591
49059SOL    HW251735  11.798   5.479   9.114  0.6277  1.5012 -0.9036
49060SOL     OW51736   0.297   4.330   3.089 -0.5204 -0.1137 -0.0855
49060SOL    HW151737   0.328   4.362   3.004  0.2748  0.5023  0.4289
49060SOL    HW251738   0.376   4.309   3.138 -0.9962 -1.5095  0.1295
49061SOL     OW51739   9.568   4.342   2.803 -0.2781 -0.1721  0.0273
49061SOL    HW151740   9.484   4.298   2.790  1.0800 -2.9595 -0.1086
49061SOL    HW251741   9.633   4.280   2.770  1.9195  1.4475  1.0257
49062SOL     OW51742   6.538  12.015   2.699 -0.2486  0.1088  0.5982
49062SOL    HW151743   6.563  12.079   2.633  0.1775 -0.1431  0.5147
49062SOL    HW251744   6.545  12.062   2.782  1.3477 -0.1876  0.6645
49063SOL     OW51745  10.692   2.591   9.688  0.3986  0.2875 -0.5576
49063SOL    HW151746  10.784   2.566   9.682  0.3430 -0.2231  0.4824
49063SOL    HW251747  10.690   2.683   9.663  1.4092  0.6866  0.7685
49064SOL     OW51748   9.237   0.181   1.903 -0.1449 -0.6539  0.1139
49064SOL    HW151749   9.204   0.221   1.983 -1.4574  2.4333 -1.8173
49064SOL    HW251750   9.276   0.098   1.932  1.7286  1.4273  4.2611
49065SOL     OW51751   5.471   0.401   1.330 -0.1415  0.3233  0.7169
49065SOL    HW151752   5.415   0.337   1.285  0.3970  0.4801 -0.2165
49065SOL    HW251753   5.551   0.353   1.349 -0.3133  0.3001  1.4033
49066SOL     OW51754   3.776   9.846   1.569  0.1936  0.2603 -0.3037
49066SOL    HW151755   3.729   9.912   1.619 -0.4224  0.3965 -1.0368
49066SOL    HW251756   3.857   9.832   1.617 -0.6290 -0.0462  1.0460
49067SOL     OW51757   7.980   8.134  10.734  0.1587 -0.5225 -0.1917
49067SOL    HW151758   8.017   8.051  10.704 -0.7671 -0.5220 -1.4148
49067SOL    HW251759   8.054   8.195  10.732  0.3029 -0.6888 -1.8898
49068SOL     OW51760   0.814  12.097   4.792 -0.2903 -0.5648 -0.0657
49068SOL    HW151761   0.872  12.160   4.750 -1.2394  0.4744  0.1403
49068SOL    HW251762   0.872  12.030   4.827  0.8092  0.5475  0.2976
49069SOL     OW51763   9.830   7.291   8.855 -0.1441  0.6509 -0.0863
49069SOL    HW151764   9.782   7.281   8.937  1.5926  0.1786  0.9152
49069SOL    HW251765   9.834   7.385   8.840 -2.1213  0.6857 -0.6903
49070SOL     OW51766   7.069  10.645   8.260  0.3758  0.2739 -0.5575
49070SOL    HW151767   7.042  10.646   8.352  0.1728  0.4369 -0.6176
49070SOL    HW251768   7.111  10.729   8.246  0.8505  0.0510 -0.4859
49071SOL     OW51769  11.018   7.394   3.933 -0.8480  0.6210  0.1446
49071SOL    HW151770  11.084   7.436   3.989  0.3006  0.4183 -1.0141
49071SOL    HW251771  11.006   7.455   3.860 -1.3322  0.2664 -0.0785
49072SOL     OW51772   3.985   0.470   7.001  0.3429 -0.0481 -0.1679
49072SOL    HW151773   3.966   0.421   7.082  1.3557 -1.5852 -0.8029
49072SOL    HW251774   3.944   0.418   6.932  0.3186  0.7245 -0.7405
49073SOL     OW51775   5.513   5.589   2.479  0.1872 -0.3020  0.4054
49073SOL    HW151776   5.456   5.565   2.406  0.2007 -0.8799  0.5759
49073SOL    HW251777   5.461   5.651   2.531 -0.5488 -1.3096  0.9050
49074SOL     OW51778  11.112   1.877   1.704 -0.0458  0.6021 -0.5446
49074SOL    HW151779  11.032   1.901   1.658 -0.7528  0.9959  0.8241
49074SOL    HW251780  11.084   1.862   1.795  1.5397  1.5369  0.1409
49075SOL     OW51781   2.938   8.654   0.082 -0.5194 -0.3697  0.0049
49075SOL    HW151782   2.931   8.738   0.127  1.9611 -0.8244  1.4417
49075SOL    HW251783   2.948   8.676  -0.010  0.6431  0.9747  0.4209
49076SOL     OW51784   9.754   6.719   7.236  0.2908 -0.0699  0.0176
49076SOL    HW151785   9.765   6.668   7.316  1.6312  0.7373  0.3850
49076SOL    HW251786   9.684   6.781   7.257 -2.0836 -2.2898 -0.7715
49077SOL     OW51787  10.529   2.638   5.782  0.2645  0.4575  0.1703
49077SOL    HW151788  10.622   2.659   5.779  0.5941 -0.9427 -2.6226
49077SOL    HW251789  10.524   2.560   5.838  0.8829  0.1493 -0.1975
49078SOL     OW51790   5.886   0.554   6.130 -0.4815  0.2129 -0.6150
49078SOL    HW151791   5.944   0.478   6.118  1.9503  2.0413 -1.2939
49078SOL    HW251792   5.813   0.539   6.070 -0.3962 -1.8510 -0.2732
49079SOL     OW51793  10.160  11.377   9.975  0.1614  0.2326 -0.3142
49079SOL    HW151794  10.149  11.396   9.881 -2.0818 -0.5789 -0.2850
49079SOL    HW251795  10.230  11.435  10.003  1.1787  0.2109 -2.5759
49080SOL     OW51796   8.634   5.430   5.163  0.2720  0.1606 -0.1105
49080SOL    HW151797   8.563   5.384   5.118  1.0330  0.6079 -1.8802
49080SOL    HW251798   8.714   5.389   5.129  0.9347  1.9799 -0.8999
49081SOL     OW51799   8.671   7.200  10.786  0.8336 -0.2806 -0.2476
49081SOL    HW151800   8.655   7.130  10.849 -0.3553  0.6692  0.5568
49081SOL    HW251801   8.603   7.188  10.719 -1.1889  1.6257  1.2980
49082SOL     OW51802   2.094   4.201   7.440  0.6231 -0.1265  0.1878
49082SOL    HW151803   2.150   4.176   7.367  0.1946 -0.2598 -0.1003
49082SOL    HW251804   2.147   4.185   7.518  2.0958  2.4844 -0.1435
49083SOL     OW51805   9.628   7.888   8.036  0.7188  0.0377 -0.1635
49083SOL    HW151806   9.536   7.898   8.008  0.9590 -1.4072 -1.6649
49083SOL    HW251807   9.632   7.800   8.072  1.9001 -0.6733 -1.9202
49084SOL     OW51808   8.712   9.200   0.342  1.3881 -0.5101 -0.2858
49084SOL    HW151809   8.766   9.265   0.298  1.2219 -1.9285 -2.7597
49084SOL    HW251810   8.750   9.116   0.318  0.2654 -1.4326  0.9681
49085SOL     OW51811   7.457   6.895   6.020  0.0096 -0.3665  0.4700
49085SOL    HW151812   7.474   6.808   5.984  1.4138  0.2940 -0.5320
49085SOL    HW251813   7.490   6.891   6.110 -0.3446 -0.9855  0.5789
49086SOL     OW51814   3.565   7.435   7.135 -0.7403  0.8899 -0.4420
49086SOL    HW151815   3.577   7.508   7.074  1.7769 -0.3063 -1.5750
49086SOL    HW251816   3.630   7.450   7.203 -0.9956  0.3092 -0.0622
49087SOL     OW51817   5.772   7.021   1.908  0.3603 -0.1942  0.4606
49087SOL    HW151818   5.818   7.074   1.842 -0.7117  0.7213  0.4123
49087SOL    HW251819   5.827   7.027   1.986  1.0798 -0.3621 -0.0256
49088SOL     OW51820   9.201   4.936  11.093  0.6377 -0.6975 -0.1087
49088SOL    HW151821   9.233   4.944  11.183  1.5585 -2.3149 -0.2602
49088SOL    HW251822   9.179   4.844  11.082 -0.4700 -0.3398 -1.2345
49089SOL     OW51823   6.432  11.451  11.017  0.3244 -0.1313  0.0729
49089SOL    HW151824   6.413  11.539  10.986  0.8668  0.2420  0.7686
49089SOL    HW251825   6.348  11.418  11.048  0.3578  0.6486  1.0415
49090SOL     OW51826   0.962  11.804  11.334 -0.7312  0.0667  0.4236
49090SOL    HW151827   0.938  11.754  11.412  2.2180 -1.2204  0.6565
49090SOL    HW251828   0.955  11.742  11.262  1.4481 -0.3259  0.4831
49091SOL     OW51829   2.689   7.867   0.400  0.1508 -0.0301  0.4072
49091SOL    HW151830   2.728   7.877   0.486  1.0332 -1.1180  0.1645
49091SOL    HW251831   2.607   7.821   0.416 -0.3476  0.9597  0.7785
49092SOL     OW51832  10.058   2.325   0.585  0.0311 -0.1772 -0.2285
49092SOL    HW151833  10.096   2.394   0.639  1.2454 -2.0651  1.4636
49092SOL    HW251834   9.989   2.286   0.640  1.0914 -1.9386 -0.0651
49093SOL     OW51835   5.167   9.952  10.967 -0.1866 -0.0995 -0.2027
49093SOL    HW151836   5.197  10.003  11.042  1.3189  0.0608 -0.8767
49093SOL    HW251837   5.207   9.866  10.980 -1.0452 -0.4983 -0.1295
49094SOL     OW51838   1.931   7.690   2.774  0.2192 -0.1788 -0.0993
49094SOL    HW151839   1.901   7.751   2.707  0.3382  0.9570  0.8447
49094SOL    HW251840   1.850   7.651   2.808 -0.1495  1.5705  1.2181
49095SOL     OW51841   5.342   6.956   8.170 -0.2353 -0.4720 -0.2017
49095SOL    HW151842   5.322   6.993   8.084  0.5531  0.6874  0.0955
49095SOL    HW251843   5.293   7.012   8.231  1.1238  0.2254  0.2710
49096SOL     OW51844   7.632   4.516   3.355 -0.5144  0.2215  0.5129
49096SOL    HW151845   7.633   4.557   3.442 -1.2917 -1.7103  1.5086
49096SOL    HW251846   7.659   4.426   3.372 -1.5334 -0.4243 -1.1275
49097SOL     OW51847   5.079  10.693   5.060 -0.0272 -0.8022 -0.7844
49097SOL    HW151848   5.143  10.623   5.069 -0.0872 -0.6779  0.9248
49097SOL    HW251849   5.125  10.762   5.012  1.5490 -0.2584  1.3672
49098SOL     OW51850   8.264   9.223   3.100 -0.1919  0.7322 -0.3992
49098SOL    HW151851   8.216   9.237   3.019 -2.0761  0.4887  0.6045
49098SOL    HW251852   8.244   9.300   3.153 -0.3593  0.1243  0.4384
49099SOL     OW51853   6.740   8.315   5.975 -0.2804  0.3423 -0.1843
49099SOL    HW151854   6.749   8.316   5.880  0.4057  1.2845 -0.1302
49099SOL    HW251855   6.803   8.249   6.005 -1.9291 -1.4335 -0.4762
49100SOL     OW51856   3.949   8.226   0.116  1.1829  0.6284 -0.2222
49100SOL    HW151857   3.955   8.138   0.079  3.4296  0.3918  0.5499
49100SOL    HW251858   3.857   8.236   0.141  0.9591 -1.6295  0.0041
49101SOL     OW51859   3.543   4.036   4.185  0.6895  0.2159 -0.5811
49101SOL    HW151860   3.473   3.981   4.149  1.1279  0.1581 -1.3822
49101SOL    HW251861   3.520   4.048   4.277 -0.0674 -0.2770 -0.6982
49102SOL     OW51862   3.839   3.705   5.687  0.2087  0.0274 -0.2929
49102SOL    HW151863   3.913   3.766   5.683  0.5676 -0.4617 -1.4107
49102SOL    HW251864   3.825   3.689   5.780 -0.2720  2.2743  0.0779
49103SOL     OW51865   8.633   3.563   2.039 -0.2510 -0.1824  0.2298
49103SOL    HW151866   8.625   3.625   1.966  1.2120  0.3572  0.4846
49103SOL    HW251867   8.651   3.479   1.997  0.5831  0.1245 -0.0517
49104SOL     OW51868   6.194   5.979   9.981 -0.4188  0.0029 -0.0368
49104SOL    HW151869   6.166   5.919   9.912 -0.3634 -0.1900  0.1087
49104SOL    HW251870   6.245   5.925  10.041  0.3111  0.3569 -0.3220
49105SOL     OW51871   8.653   8.237   6.112 -0.4779  1.3048 -0.1571
49105SOL    HW151872   8.560   8.227   6.094 -0.4892  1.2717 -0.0813
49105SOL    HW251873   8.682   8.306   6.053  0.4424 -1.7671 -3.7049
49106SOL     OW51874   5.990  10.307  11.204  0.9394 -0.2414  0.1094
49106SOL    HW151875   5.926  10.269  11.143 -0.8964  0.1669  1.6794
49106SOL    HW251876   6.007  10.238  11.267 -1.1733  0.8749  2.0426
49107SOL     OW51877   3.046   1.999   5.729  0.3444 -0.4978  0.1908
49107SOL    HW151878   3.039   1.973   5.821  0.8517 -1.9331 -0.1491
49107SOL    HW251879   3.133   1.969   5.703 -0.3178 -1.3816 -1.1271
49108SOL     OW51880   6.684   0.965   4.719 -0.7584 -0.4003 -0.3677
49108SOL    HW151881   6.595   0.981   4.688 -0.1864  0.2941 -1.7137
49108SOL    HW251882   6.740   1.005   4.653  0.6779 -3.9321 -1.5392
49109SOL     OW51883  11.433  10.419   8.071 -0.3897 -0.2319  0.6871
49109SOL    HW151884  11.402  10.502   8.035 -1.0231 -1.7498 -2.6161
49109SOL    HW251885  11.527  10.433   8.085 -0.4734  1.0386  0.1444
49110SOL     OW51886   3.113   6.867   7.948 -0.0849  0.6211 -0.9965
49110SOL    HW151887   3.203   6.864   7.917 -0.7345 -0.1570 -2.9443
49110SOL    HW251888   3.103   6.955   7.984  1.2628  0.9283 -1.3308
49111SOL     OW51889   9.904   8.556   7.340 -0.3301  0.2479  0.5636
49111SOL    HW151890   9.961   8.610   7.395 -0.9806  1.3612  0.1879
49111SOL    HW251891   9.954   8.477   7.323  1.2370  1.3236 -0.0142
49112SOL     OW51892   9.830   6.430   0.594 -0.3794 -0.3247  0.0126
49112SOL    HW151893   9.813   6.347   0.550 -0.9898 -0.9533  1.3781
49112SOL    HW251894   9.745   6.458   0.628 -0.0320  0.4353  0.2949
49113SOL     OW51895   6.435   5.900   6.197 -0.3540 -0.4215 -0.1359
49113SOL    HW151896   6.435   5.809   6.226 -0.4983 -0.8222 -1.3520
49113SOL    HW251897   6.405   5.897   6.106 -2.1392  1.0264  0.3547
49114SOL     OW51898   2.848   2.317   8.517 -0.1241  0.0441 -0.0418
49114SOL    HW151899   2.861   2.401   8.560  0.9344 -0.7427  1.2215
49114SOL    HW251900   2.756   2.296   8.531 -0.2849  0.7727  0.0089
49115SOL     OW51901   5.677   2.796   7.117 -0.5979  0.1432 -0.0924
49115SOL    HW151902   5.616   2.739   7.163 -0.6235  0.1329 -0.1391
49115SOL    HW251903   5.700   2.864   7.181  0.3505 -0.5812  0.3661
49116SOL     OW51904   5.902   8.336   9.031  0.4612 -0.1179 -0.2308
49116SOL    HW151905   5.815   8.304   9.055  0.8287 -0.2762  1.0029
49116SOL    HW251906   5.959   8.260   9.045  0.9357  0.2674 -0.0663
49117SOL     OW51907   2.075  10.993   0.373  0.2290  0.3229 -0.2168
49117SOL    HW151908   2.117  11.076   0.396  0.0603  0.7000 -1.2204
49117SOL    HW251909   2.139  10.949   0.317 -0.3478  0.5059 -1.0240
49118SOL     OW51910   2.016   5.167   4.068 -0.5551 -0.1568 -0.4450
49118SOL    HW151911   2.089   5.208   4.022 -1.8291 -0.4422 -2.8502
49118SOL    HW251912   2.020   5.075   4.042 -0.0621 -0.8276  1.7749
49119SOL     OW51913   8.699   5.762   5.094 -0.0435 -0.2475  0.1300
49119SOL    HW151914   8.752   5.683   5.087 -0.7390 -0.6909 -0.2795
49119SOL    HW251915   8.681   5.787   5.003 -1.1731 -0.5550  0.2527
49120SOL     OW51916   3.554   5.638   3.621  0.3549  0.0588  0.0405
49120SOL    HW151917   3.639   5.599   3.637  0.2740  0.1703  0.7951
49120SOL    HW251918   3.509   5.577   3.563  0.2531 -0.9557  1.1480
49121SOL     OW51919   7.643  11.803   8.566 -0.0352 -0.4486  0.5492
49121SOL    HW151920   7.646  11.867   8.494  3.2604 -1.7752 -0.6955
49121SOL    HW251921   7.605  11.852   8.639  0.7243  2.4423 -0.8039
49122SOL     OW51922   7.153   9.459   1.105  0.4723 -0.4608 -0.0239
49122SOL    HW151923   7.114   9.523   1.045 -0.3523 -0.2714  0.6891
49122SOL    HW251924   7.218   9.508   1.154  0.5286 -0.4043 -0.1549
49123SOL     OW51925   0.287  10.833   8.923 -0.4638  0.1488 -0.4591
49123SOL    HW151926   0.207  10.785   8.944 -0.6943  0.9388  0.5507
49123SOL    HW251927   0.336  10.774   8.866 -1.6715 -0.4257 -0.9279
49124SOL     OW51928   0.377   7.532  10.507 -0.6710 -0.5264  0.2408
49124SOL    HW151929   0.446   7.582  10.549  2.4906 -2.6067 -2.0417
49124SOL    HW251930   0.343   7.590  10.439 -1.5384  0.6500  1.6290
49125SOL     OW51931   6.031   4.906   7.117 -0.0476 -0.0068  0.1226
49125SOL    HW151932   6.040   4.971   7.187 -0.9602 -0.9513  1.1561
49125SOL    HW251933   6.115   4.860   7.117  0.7988  1.4532 -0.9607
49126SOL     OW51934  10.589   3.294   1.405  0.2622 -0.1868  0.1640
49126SOL    HW151935  10.577   3.297   1.500 -1.1777  0.9497 -0.0060
49126SOL    HW251936  10.632   3.377   1.384  0.6861 -0.4867 -0.1711
49127SOL     OW51937   4.557   6.065   2.183  0.5551 -0.0321 -0.3320
49127SOL    HW151938   4.591   6.137   2.130  1.3585 -1.5581 -1.9852
49127SOL    HW251939   4.634   6.013   2.205 -0.2501 -1.6756 -1.2015
49128SOL     OW51940   5.317   4.811  10.163  0.2117 -0.0243 -0.2426
49128SOL    HW151941   5.317   4.881  10.098  0.9103  1.0610  0.8846
49128SOL    HW251942   5.290   4.853  10.245 -1.0259 -1.4379  0.1261
49129SOL     OW51943   9.920  10.635  11.658 -0.1890  0.4090  0.0405
49129SOL    HW151944   9.895  10.558  11.608  1.5093  1.1519 -2.0986
49129SOL    HW251945   9.877  10.708  11.614 -0.1176  0.9160  0.7810
49130SOL     OW51946   1.101  11.882   5.100 -0.0183 -0.2284  0.1670
49130SOL    HW151947   1.151  11.813   5.056 -0.4520 -0.7479  0.4596
49130SOL    HW251948   1.037  11.910   5.036  2.5584  2.6761 -1.3657
49131SOL     OW51949   6.100   1.628  10.657 -0.4293  0.4878  0.0356
49131SOL    HW151950   6.140   1.566  10.718 -0.0799  1.0624  0.3987
49131SOL    HW251951   6.161   1.702  10.653 -0.3080  0.3486 -1.2302
49132SOL     OW51952   1.967   6.852   7.149 -0.3966  0.1691  0.3698
49132SOL    HW151953   2.014   6.936   7.146  0.8217 -0.5171 -0.7156
49132SOL    HW251954   1.948   6.832   7.058  0.2137 -1.1997  0.5156
49133SOL     OW51955   5.084   6.328   2.147  0.4464 -0.1182 -0.4485
49133SOL    HW151956   5.150   6.383   2.105  1.2972 -0.3472  0.5702
49133SOL    HW251957   5.091   6.348   2.240 -2.1593  1.2003 -0.4433
49134SOL     OW51958   5.170   3.510   2.490  0.4185 -0.2351 -0.2149
49134SOL    HW151959   5.123   3.503   2.573 -0.5882  0.3130 -0.7178
49134SOL    HW251960   5.261   3.489   2.512 -0.1388 -1.9261  0.6727
49135SOL     OW51961   8.332   4.091   3.535 -0.5647  0.3133  0.6115
49135SOL    HW151962   8.380   4.127   3.460 -3.0045 -1.2878 -1.9587
49135SOL    HW251963   8.360   3.999   3.539 -1.0262  0.1951  1.1715
49136SOL     OW51964   3.098   3.099   8.448 -0.5766 -0.2203 -0.9445
49136SOL    HW151965   3.119   3.187   8.418  0.7909  0.6450  2.0935
49136SOL    HW251966   3.010   3.107   8.487 -0.0848  0.0952  0.1497
49137SOL     OW51967   5.486   7.675   3.455  0.2854 -0.6027  0.7410
49137SOL    HW151968   5.509   7.583   3.447 -2.0746 -1.1502 -0.5450
49137SOL    HW251969   5.420   7.677   3.525 -1.4680 -0.3194 -0.8455
49138SOL     OW51970   8.735   9.393   8.956  0.0766 -0.4882  0.4482
49138SOL    HW151971   8.768   9.304   8.943  0.9952 -0.1898  0.6814
49138SOL    HW251972   8.654   9.381   9.007 -1.2547 -1.3535 -1.7034
49139SOL     OW51973   2.031   1.083   0.295  0.2501 -0.7574 -0.0925
49139SOL    HW151974   2.026   1.060   0.202 -1.1476 -1.7339  0.2042
49139SOL    HW251975   1.968   1.026   0.338  0.9997 -0.4471  1.5013
49140SOL     OW51976  10.339   2.112   2.044 -0.9352 -0.3755 -0.0654
49140SOL    HW151977  10.333   2.017   2.037 -0.5079 -0.3425 -1.0202
49140SOL    HW251978  10.304   2.132   2.131  1.7685 -1.6767  1.4579
49141SOL     OW51979   1.296  11.621   3.538 -0.1952 -0.5722 -0.3844
49141SOL    HW151980   1.256  11.535   3.547  1.1117 -1.2982 -1.1557
49141SOL    HW251981   1.310  11.650   3.628 -2.7899 -0.0657 -0.0576
49142SOL     OW51982   8.370  10.048   6.368 -0.8509 -0.3303  0.4962
49142SOL    HW151983   8.385  10.040   6.462  1.0745  0.8493  0.3506
49142SOL    HW251984   8.428   9.984   6.328  0.0339  0.6979  0.0687
49143SOL     OW51985   8.404   5.217   8.696  0.3216  0.3343 -0.5108
49143SOL    HW151986   8.447   5.301   8.708 -0.8017  0.9525 -0.6635
49143SOL    HW251987   8.351   5.205   8.776  1.1521 -0.6558 -0.0867
49144SOL     OW51988   3.584   2.655   6.813 -0.3053 -0.3018  0.1253
49144SOL    HW151989   3.560   2.747   6.822  2.2781  0.5051 -0.5269
49144SOL    HW251990   3.680   2.655   6.812 -0.2044 -2.7133 -2.4606
49145SOL     OW51991   9.440   8.036   0.634 -0.1003  0.0343 -0.2131
49145SOL    HW151992   9.447   7.985   0.554 -1.1246  0.6958 -0.7388
49145SOL    HW251993   9.438   7.971   0.704 -1.7397 -0.6830 -0.8854
49146SOL     OW51994   1.845   0.715   0.271  0.2425  0.1047 -0.1075
49146SOL    HW151995   1.922   0.660   0.267  0.9771  1.0211  0.8331
49146SOL    HW251996   1.774   0.655   0.295  1.0280 -0.4301  0.9484
49147SOL     OW51997   0.411  12.083  11.165 -0.3682 -0.2556  0.2482
49147SOL    HW151998   0.410  12.004  11.220  0.1440  0.4032  1.2339
49147SOL    HW251999   0.340  12.137  11.200  1.0474  0.9163  1.4418
49148SOL     OW52000   9.393  10.342   2.989  0.1673 -0.2777  0.3313
49148SOL    HW152001   9.418  10.284   2.917 -1.8645 -0.4503 -0.3014
49148SOL    HW252002   9.371  10.425   2.947 -0.2337 -0.1261  0.8343
49149SOL     OW52003   1.363  10.066   9.204  0.2820  0.1475 -0.3270
49149SOL    HW152004   1.422  10.058   9.278  0.9686 -0.1696 -0.8962
49149SOL    HW252005   1.392  10.146   9.159 -1.1050  1.2175  0.5717
49150SOL     OW52006   7.522   2.748   6.181 -0.4548 -0.2435  0.1785
49150SOL    HW152007   7.608   2.774   6.212  0.0912 -0.4530 -1.1297
49150SOL    HW252008   7.531   2.657   6.156 -1.4536 -0.7162  1.4151
49151SOL     OW52009   5.721   0.362   5.184  0.6735 -0.3406 -0.0741
49151SOL    HW152010   5.633   0.332   5.207  0.8286 -1.8199 -1.2553
49151SOL    HW252011   5.762   0.380   5.268 -0.6954  0.2464  0.5081
49152SOL     OW52012  10.656   1.854  10.817  0.5623 -0.6983 -0.1413
49152SOL    HW152013  10.580   1.891  10.772  1.1554  1.2701  0.4011
49152SOL    HW252014  10.698   1.799  10.751  1.8595  2.6972 -2.3830
49153SOL     OW52015   4.380  11.555   2.174 -0.1579  0.1412  0.0460
49153SOL    HW152016   4.290  11.524   2.187 -0.1364 -1.4813 -2.8600
49153SOL    HW252017   4.431  11.510   2.241 -1.5541  1.8089  2.3543
49154SOL     OW52018   5.175   7.868   4.397 -0.2563  0.0680 -0.2480
49154SOL    HW152019   5.148   7.915   4.318  1.3610  0.2639 -0.7417
49154SOL    HW252020   5.132   7.783   4.390  0.4072 -0.1827 -1.7492
49155SOL     OW52021  10.620  10.022   6.617 -0.3197 -0.4788  0.0505
49155SOL    HW152022  10.612  10.115   6.598 -0.5153 -0.2493  1.1889
49155SOL    HW252023  10.714  10.006   6.622 -0.2687 -0.5081 -0.8916
49156SOL     OW52024   4.236   0.007  10.336  0.2984 -0.4520  0.2225
49156SOL    HW152025   4.212  -0.035  10.253 -0.3676 -0.5228  0.4392
49156SOL    HW252026   4.285   0.085  10.310  0.5053 -0.7249 -0.2206
49157SOL     OW52027  10.452   4.853  10.531 -0.3044 -0.2807  0.5471
49157SOL    HW152028  10.465   4.948  10.529 -0.9996 -0.1782  0.6503
49157SOL    HW252029  10.520   4.819  10.473 -0.3506  0.3212  0.1199
49158SOL     OW52030   2.143   9.373   0.319  0.6863 -0.0955  0.0761
49158SOL    HW152031   2.217   9.402   0.371  0.2651 -0.4089  0.8698
49158SOL    HW252032   2.104   9.302   0.370 -0.9505  0.9268  0.3318
49159SOL     OW52033   7.531  11.650   8.785 -0.0329  0.3301 -0.1385
49159SOL    HW152034   7.539  11.668   8.691 -0.1246  1.3871  0.0419
49159SOL    HW252035   7.451  11.598   8.792 -0.7895  1.4105 -0.5191
49160SOL     OW52036   3.456   3.609   7.425 -0.3396 -0.2956  0.4293
49160SOL    HW152037   3.501   3.536   7.383  0.5339  0.2467  0.3927
49160SOL    HW252038   3.393   3.639   7.360 -0.1013 -0.4667  0.1167
49161SOL     OW52039   7.234  11.480   6.964  0.5364  0.1803  0.4867
49161SOL    HW152040   7.282  11.514   6.889  0.2926  0.5867  0.5069
49161SOL    HW252041   7.254  11.387   6.967 -0.6096 -0.1521 -0.9753
49162SOL     OW52042   0.357   9.900  12.093  0.2092  0.3944 -0.0217
49162SOL    HW152043   0.418   9.885  12.021  0.3813  0.3383  0.1374
49162SOL    HW252044   0.303   9.974  12.063 -0.7735 -0.6273 -0.8884
49163SOL     OW52045   8.880  11.698   8.407  0.3706 -0.1693 -0.3413
49163SOL    HW152046   8.799  11.750   8.403  0.0466 -0.5283  0.9671
49163SOL    HW252047   8.936  11.747   8.467  0.3558 -0.9159  0.2986
49164SOL     OW52048  11.375   2.171  10.565  0.8081  0.5302  0.1486
49164SOL    HW152049  11.378   2.136  10.475  2.7363 -1.1878  0.8129
49164SOL    HW252050  11.350   2.096  10.619 -0.4250  1.5697  1.0891
49165SOL     OW52051   8.599   4.207   2.849 -0.1923  0.1301  0.7840
49165SOL    HW152052   8.567   4.222   2.760 -1.1623 -1.4281  0.8255
49165SOL    HW252053   8.538   4.255   2.904 -0.5837 -0.2489  0.6872
49166SOL     OW52054   8.169   2.945   5.803  0.0058 -0.9552 -0.2217
49166SOL    HW152055   8.118   2.929   5.724  0.1669 -0.9389 -0.3305
49166SOL    HW252056   8.241   2.882   5.797  1.6164  0.8980 -1.5062
49167SOL     OW52057   6.399   5.661   0.814  0.1092 -0.0231 -0.8645
49167SOL    HW152058   6.470   5.625   0.866  0.1516  0.3830 -0.6428
49167SOL    HW252059   6.334   5.590   0.810 -0.9748  0.7094  1.7344
49168SOL     OW52060   8.172  11.009   2.185  0.6730  0.0612  0.2371
49168SOL    HW152061   8.228  11.077   2.149  0.3787  0.6457  0.8568
49168SOL    HW252062   8.215  10.926   2.162  0.2742  0.3717 -1.8444
49169SOL     OW52063   5.464   3.822   0.154 -0.3510  0.2494 -0.1263
49169SOL    HW152064   5.506   3.908   0.162 -0.4284  0.6051 -2.6976
49169SOL    HW252065   5.421   3.808   0.238 -1.7976  3.5345 -0.1809
49170SOL     OW52066   9.199   6.246   4.442 -0.0529  0.1414 -0.1283
49170SOL    HW152067   9.198   6.164   4.491  0.4444  0.9291  1.2525
49170SOL    HW252068   9.118   6.290   4.467 -0.0597  0.3150 -0.4454
49171SOL     OW52069   7.187  11.933   1.019  0.4887 -0.0949 -0.2297
49171SOL    HW152070   7.125  11.861   1.028 -2.2812  2.0123 -1.0583
49171SOL    HW252071   7.196  11.945   0.924  2.6263 -0.6329 -0.1510
49172SOL     OW52072   6.713   5.589   2.362  0.2807  0.6665  0.3041
49172SOL    HW152073   6.776   5.624   2.298  1.7363 -1.3817  0.5032
49172SOL    HW252074   6.736   5.634   2.444  0.8113  0.6796  0.1563
49173SOL     OW52075   5.331  10.839  10.999 -0.2039  0.0473  0.0682
49173SOL    HW152076   5.258  10.778  11.010 -0.2225 -0.1696 -1.1121
49173SOL    HW252077   5.377  10.807  10.921  0.0424  1.2692 -0.3135
49174SOL     OW52078   7.512   1.292   3.128 -0.2841  0.3959 -0.2716
49174SOL    HW152079   7.598   1.328   3.151  1.5856 -2.5869 -1.9639
49174SOL    HW252080   7.497   1.223   3.192 -1.9858  1.5571  0.6399
49175SOL     OW52081   7.017   4.357   8.738 -0.3236  0.2592 -0.0872
49175SOL    HW152082   7.054   4.319   8.817 -0.6165  1.4502  0.6452
49175SOL    HW252083   6.929   4.322   8.732 -0.6367  0.8895  0.6542
49176SOL     OW52084   2.692   6.377   6.570 -0.4544 -0.2225  0.0193
49176SOL    HW152085   2.780   6.391   6.606 -0.6667 -0.8680  0.8304
49176SOL    HW252086   2.635   6.428   6.627 -0.7336 -0.7743  0.2338
49177SOL     OW52087   4.819   9.090  10.898  0.1707  0.1411  0.3546
49177SOL    HW152088   4.755   9.123  10.961 -1.2225  1.3010 -1.5413
49177SOL    HW252089   4.805   8.995  10.897 -2.6742  0.4401 -1.0206
49178SOL     OW52090   3.778   8.151   9.106 -0.3590  0.2351 -0.3683
49178SOL    HW152091   3.706   8.213   9.100  0.4828  1.2179 -0.4603
49178SOL    HW252092   3.831   8.167   9.028  2.6741  3.0285  2.0104
49179SOL     OW52093   1.843   1.921   7.287 -0.1392  0.9936 -0.3995
49179SOL    HW152094   1.885   1.961   7.364  2.3230  0.2691 -1.2830
49179SOL    HW252095   1.863   1.828   7.295  2.0684  1.1439 -2.9409
49180SOL     OW52096   2.722   1.685   4.977 -0.4189  0.1833 -0.1308
49180SOL    HW152097   2.783   1.615   5.000 -0.0065  0.8829  0.9931
49180SOL    HW252098   2.682   1.657   4.894  0.7735 -0.6984 -0.4247
49181SOL     OW52099   0.737  10.793  10.380  0.2741 -0.5117  0.1989
49181SOL    HW152100   0.649  10.804  10.417  0.3051 -0.3130  0.2176
49181SOL    HW252101   0.796  10.810  10.453  0.3580  0.8828 -0.1550
49182SOL     OW52102  10.084   5.325   9.387 -0.5355 -0.0807 -0.0289
49182SOL    HW152103  10.053   5.386   9.321 -0.9312 -0.0396  0.1925
49182SOL    HW252104  10.060   5.239   9.354  0.8749 -0.2060 -0.8089
49183SOL     OW52105   5.973  10.465   7.109  0.3536 -0.0900  0.5007
49183SOL    HW152106   5.969  10.413   7.189 -0.0010  0.5586  0.9103
49183SOL    HW252107   5.941  10.551   7.135 -0.2063 -0.0015 -0.4436
49184SOL     OW52108   4.405   3.510   6.922  0.3796  0.1772  0.3426
49184SOL    HW152109   4.425   3.475   7.009  0.6282 -0.0580  0.1943
49184SOL    HW252110   4.324   3.559   6.933  0.7666  0.7269  0.8567
49185SOL     OW52111   2.276   2.951   2.923 -0.0494 -0.3781  0.0918
49185SOL    HW152112   2.231   2.886   2.976  0.7859 -0.0272  1.2661
49185SOL    HW252113   2.366   2.920   2.916  0.2557  0.4236  0.3061
49186SOL     OW52114  10.465   3.606   7.422  0.4224 -0.6020  0.5726
49186SOL    HW152115  10.532   3.650   7.475 -0.2058 -0.1695  1.0278
49186SOL    HW252116  10.497   3.517   7.411  0.2250 -0.9428  2.3602
49187SOL     OW52117  10.648  10.616   6.433 -0.1569 -0.5126 -0.1098
49187SOL    HW152118  10.649  10.673   6.356  0.4777  1.3727  1.2065
49187SOL    HW252119  10.672  10.530   6.399  0.4755  0.3293 -1.9592
49188SOL     OW52120   9.016   4.855   6.005 -0.0804 -0.1103 -0.4136
49188SOL    HW152121   8.975   4.808   6.078 -1.3434 -0.1432 -1.1137
49188SOL    HW252122   8.976   4.817   5.927 -0.0744  1.1444 -1.0540
49189SOL     OW52123   7.879  11.029   1.006  0.8690  0.2554  0.4105
49189SOL    HW152124   7.955  10.985   0.969  0.0512  0.8016 -2.1236
49189SOL    HW252125   7.811  10.962   1.011  0.7196  0.3800  0.0797
49190SOL     OW52126  10.352   7.240  11.298 -0.8140  0.1224 -0.1510
49190SOL    HW152127  10.272   7.286  11.325 -0.4941  1.0031 -0.6455
49190SOL    HW252128  10.401   7.227  11.379 -0.5541  1.3651 -0.0927
49191SOL     OW52129   8.159   5.143   0.771  0.0496 -0.1073 -0.6055
49191SOL    HW152130   8.197   5.211   0.827 -0.0930 -1.8481  1.8260
49191SOL    HW252131   8.066   5.144   0.791  0.2523 -1.9819  0.7613
49192SOL     OW52132   6.079   8.319   5.319 -0.1633 -0.2350 -0.1455
49192SOL    HW152133   5.999   8.364   5.348 -0.7540 -0.3803 -1.4751
49192SOL    HW252134   6.146   8.347   5.381 -1.1740  0.1491  0.8029
49193SOL     OW52135   1.264   3.839   4.852  0.0007  0.2362 -0.1452
49193SOL    HW152136   1.343   3.804   4.893 -0.0325  0.2918 -0.0341
49193SOL    HW252137   1.276   3.821   4.759 -1.1269 -2.3187  0.1270
49194SOL     OW52138   6.836   0.166   0.982  0.4804  0.3618  0.4415
49194SOL    HW152139   6.912   0.153   1.038 -0.0540  0.6697  1.2580
49194SOL    HW252140   6.774   0.098   1.008  0.1216  0.6725  0.4061
49195SOL     OW52141   3.372   0.967   1.809  0.2169  0.4363 -0.7733
49195SOL    HW152142   3.459   1.008   1.811  0.4130  0.0128 -0.2399
49195SOL    HW252143   3.324   1.015   1.742  0.7084  0.9948 -0.7309
49196SOL     OW52144   3.741   7.794   2.897 -0.1360  0.6536 -0.5501
49196SOL    HW152145   3.673   7.771   2.833  0.2388 -1.7745 -0.1849
49196SOL    HW252146   3.823   7.772   2.852  0.1123 -1.7885  0.8911
49197SOL     OW52147   2.626   9.060   8.008  0.2701 -0.8664 -0.0701
49197SOL    HW152148   2.698   9.002   7.983  0.0348 -0.6043 -1.4585
49197SOL    HW252149   2.654   9.099   8.091  0.9531 -2.0602  0.2767
49198SOL     OW52150   2.935   0.312   8.306 -0.1765  0.4153 -0.1342
49198SOL    HW152151   2.881   0.358   8.370 -0.6224 -0.7895  0.3987
49198SOL    HW252152   2.952   0.227   8.347  2.0159  0.7009 -0.3442
49199SOL     OW52153   7.484   0.038   4.041  0.0024 -0.8779 -0.2082
49199SOL    HW152154   7.398   0.079   4.049  0.6353  0.2637  1.1517
49199SOL    HW252155   7.542   0.110   4.014  1.0116 -0.9829  1.5533
49200SOL     OW52156  10.124  10.186   1.024  0.1578  0.2466 -0.5937
49200SOL    HW152157  10.086  10.255   1.078  0.5764 -1.4352  1.9950
49200SOL    HW252158  10.148  10.231   0.942 -0.1637  2.9982  0.6962
49201SOL     OW52159   8.902   8.612  11.136 -0.3204  0.0727  0.3640
49201SOL    HW152160   8.963   8.674  11.175  1.6093 -1.9205  0.6774
49201SOL    HW252161   8.895   8.639  11.044 -0.6263  1.5391  0.7987
49202SOL     OW52162  11.041  10.097   6.898  0.0753 -0.3060  0.0311
49202SOL    HW152163  11.124  10.138   6.924 -0.6436  1.2575 -0.0357
49202SOL    HW252164  11.055  10.070   6.807 -0.0878  1.7480 -0.6568
49203SOL     OW52165   3.424   1.024   5.490  0.6746  0.1924  0.2214
49203SOL    HW152166   3.443   1.044   5.398 -1.3783  0.1689 -0.2545
49203SOL    HW252167   3.427   1.109   5.534 -2.5962  0.9656 -0.7635
49204SOL     OW52168   7.779   2.424   0.672  0.1505 -0.3275 -0.7224
49204SOL    HW152169   7.801   2.345   0.721 -1.0570 -0.3635 -0.1997
49204SOL    HW252170   7.711   2.467   0.725  1.5250  1.6428 -0.4317
49205SOL     OW52171   0.684   6.882   6.020 -0.4578 -0.5892  0.2899
49205SOL    HW152172   0.697   6.928   5.937 -0.0361  1.1590  1.2608
49205SOL    HW252173   0.747   6.810   6.018 -1.0259 -1.0946 -1.2228
49206SOL     OW52174  10.578   8.249   4.376  0.1164 -0.4154  0.6503
49206SOL    HW152175  10.555   8.314   4.442 -1.7597 -1.4466  1.1056
49206SOL    HW252176  10.624   8.181   4.425  1.7277  0.3399  0.2448
49207SOL     OW52177   4.036   6.906   2.277 -0.3406  0.3569  0.4343
49207SOL    HW152178   4.100   6.884   2.210  0.2373  1.9543  0.4226
49207SOL    HW252179   3.997   6.822   2.302  1.2502 -0.5619 -0.0639
49208SOL     OW52180   5.870   0.141   8.720 -0.3065 -0.0836  0.1226
49208SOL    HW152181   5.880   0.096   8.804 -0.0026  2.5058  1.5779
49208SOL    HW252182   5.787   0.187   8.728  0.0652  0.7569 -0.7369
49209SOL     OW52183   2.088  10.339  10.141  0.1075 -0.1444 -0.1376
49209SOL    HW152184   2.087  10.363  10.048 -0.4080  2.1558  0.3989
49209SOL    HW252185   2.176  10.364  10.171 -0.2733  0.7198  0.3213
49210SOL     OW52186   1.186  11.385   4.441 -0.1957 -0.1535 -0.5134
49210SOL    HW152187   1.093  11.365   4.450  0.3484 -2.2470  1.4549
49210SOL    HW252188   1.229  11.299   4.447  1.8472  0.6659 -2.2072
49211SOL     OW52189   1.933   5.607   6.668  0.3729  0.0672 -0.2592
49211SOL    HW152190   1.927   5.586   6.761 -0.2988 -0.6980 -0.4560
49211SOL    HW252191   1.881   5.686   6.657  0.4695  0.1695  0.0221
49212SOL     OW52192   2.601   0.681  11.571  0.4057  0.0927  0.0196
49212SOL    HW152193   2.622   0.720  11.656 -0.3659 -1.5440  1.0178
49212SOL    HW252194   2.640   0.741  11.507  3.1912  0.1112  1.5687
49213SOL     OW52195   0.366   3.807   5.075  0.0425  0.4274  0.4826
49213SOL    HW152196   0.402   3.762   5.152 -0.1753  2.2715  1.7316
49213SOL    HW252197   0.389   3.899   5.088 -0.2382  0.8313 -1.5571
49214SOL     OW52198   4.144   2.317   1.205 -0.4056  0.0301  0.3213
49214SOL    HW152199   4.070   2.304   1.263 -0.1940  0.4205  0.6936
49214SOL    HW252200   4.105   2.339   1.120 -0.8471 -4.3100 -0.8262
49215SOL     OW52201   0.916  10.788  12.119  0.2507  0.0600 -0.1525
49215SOL    HW152202   0.932  10.705  12.164 -1.1063 -0.2871 -0.2425
49215SOL    HW252203   0.930  10.855  12.186 -2.9380 -0.4980  1.2638
49216SOL     OW52204   9.451   4.087   5.515 -0.0200  0.2838  0.2022
49216SOL    HW152205   9.397   4.156   5.553  1.8920  0.5049  2.7794
49216SOL    HW252206   9.395   4.046   5.449 -2.9368  1.0784  2.0323
49217SOL     OW52207  11.676   1.527   9.383 -0.4610  0.0675 -0.0552
49217SOL    HW152208  11.648   1.456   9.441 -1.2172 -0.0372 -0.5344
49217SOL    HW252209  11.771   1.519   9.379 -0.5190 -0.7986  0.0499
49218SOL     OW52210   4.378   8.366   1.769 -0.1430 -0.2933  0.2664
49218SOL    HW152211   4.319   8.398   1.701  0.3336 -0.8614 -0.4283
49218SOL    HW252212   4.401   8.277   1.742  2.7647  0.6456 -0.6748
49219SOL     OW52213   9.456   1.863   9.368  0.2777  0.2099  0.2108
49219SOL    HW152214   9.494   1.814   9.294  1.4368 -0.3495  1.1314
49219SOL    HW252215   9.511   1.839   9.442 -0.4305  1.3179  1.1205
49220SOL     OW52216   6.130   0.663   0.243  0.0602 -0.5713  0.4404
49220SOL    HW152217   6.158   0.726   0.308 -1.8491  1.5145 -0.6328
49220SOL    HW252218   6.175   0.689   0.162 -3.0993  1.5869 -0.8012
49221SOL     OW52219  11.371   5.902   9.365  0.2507  0.0898  0.2623
49221SOL    HW152220  11.289   5.922   9.411  0.1263  0.5755 -0.1671
49221SOL    HW252221  11.346   5.835   9.302  0.4696 -0.7444  1.0383
49222SOL     OW52222   5.555   2.246  11.964 -0.4867  0.6472  0.0338
49222SOL    HW152223   5.541   2.250  11.870 -0.4560  0.8597  0.0379
49222SOL    HW252224   5.594   2.160  11.979 -0.3587  0.6701 -0.1640
49223SOL     OW52225   0.063   2.163   8.752  0.0627 -0.3098 -0.6015
49223SOL    HW152226   0.061   2.141   8.659 -2.4782  0.9393 -0.9337
49223SOL    HW252227   0.111   2.246   8.756 -0.4220 -0.0036 -0.9359
49224SOL     OW52228   2.655   4.803   6.351 -0.1458  0.1538  0.2525
49224SOL    HW152229   2.581   4.753   6.383 -0.7792  0.0345 -1.3057
49224SOL    HW252230   2.729   4.742   6.352 -0.2483  0.0298  0.9865
49225SOL     OW52231  11.910  11.786   7.746  0.0814 -0.3481 -0.4051
49225SOL    HW152232  11.833  11.751   7.700  0.8904 -0.5369 -1.6858
49225SOL    HW252233  11.977  11.719   7.733  0.8322  0.3974 -0.4464
49226SOL     OW52234   9.225   6.955   9.772 -0.2111  0.6623 -0.2959
49226SOL    HW152235   9.321   6.952   9.774 -0.0875  2.4244 -1.6937
49226SOL    HW252236   9.204   7.048   9.765 -2.0082  0.2555 -0.7266
49227SOL     OW52237   7.622   3.743   2.680 -0.1632  0.1117  0.2180
49227SOL    HW152238   7.628   3.698   2.596  1.8478  1.6353 -0.5432
49227SOL    HW252239   7.569   3.821   2.661 -0.5719 -0.0586  0.6356
49228SOL     OW52240   8.627  10.765   2.162  0.9619 -0.1993  0.0350
49228SOL    HW152241   8.561  10.696   2.164  0.2651  0.4419 -0.3510
49228SOL    HW252242   8.666  10.764   2.250  0.6417 -0.7791  0.1727
49229SOL     OW52243   1.251   9.582  11.285 -0.1720 -0.2328 -0.2578
49229SOL    HW152244   1.245   9.563  11.192 -0.2022 -1.6077  0.0089
49229SOL    HW252245   1.215   9.505  11.328 -0.5488  0.5528  0.8949
49230SOL     OW52246   7.175   8.469   5.258  0.1325  0.0105  0.3478
49230SOL    HW152247   7.089   8.472   5.299  0.2251 -0.6357  0.6036
49230SOL    HW252248   7.157   8.458   5.165 -0.0606 -0.2586  0.4168
49231SOL     OW52249   1.237   9.413   7.285 -0.0067  0.7700  0.4897
49231SOL    HW152250   1.315   9.361   7.303 -0.0232 -0.0653 -1.5972
49231SOL    HW252251   1.168   9.348   7.271 -0.1804  1.3218 -1.4968
49232SOL     OW52252   7.096   9.645   8.472  0.2874 -0.0917 -0.1064
49232SOL    HW152253   7.123   9.625   8.382 -0.0937 -0.8788 -0.0575
49232SOL    HW252254   7.172   9.620   8.526 -0.0928 -1.2399 -0.0694
49233SOL     OW52255   9.090   9.156   3.550  0.0549 -0.2724  0.5695
49233SOL    HW152256   9.019   9.217   3.568 -0.0544  0.1102 -1.0171
49233SOL    HW252257   9.164   9.191   3.599  0.5421  2.3347 -1.7525
49234SOL     OW52258   5.881  11.160   9.034  0.0993  0.0532 -1.0429
49234SOL    HW152259   5.916  11.108   8.961 -0.3101 -1.1233 -0.4334
49234SOL    HW252260   5.851  11.095   9.097 -1.8487  1.0186 -0.8951
49235SOL     OW52261   2.445   0.766   2.884 -0.7172  0.5582  0.1179
49235SOL    HW152262   2.502   0.844   2.887 -1.1050  0.8388  0.2251
49235SOL    HW252263   2.371   0.793   2.831 -0.6817  0.1396 -0.1494
49236SOL     OW52264   5.961   9.476   5.569 -0.6581  0.0477 -0.3153
49236SOL    HW152265   6.000   9.401   5.615  1.8842  2.0688  1.1354
49236SOL    HW252266   5.993   9.467   5.479  2.6114  1.0399  0.5795
49237SOL     OW52267   2.112  11.735   5.290 -0.3172  0.1412 -0.0683
49237SOL    HW152268   2.100  11.825   5.319 -1.4221 -0.4791  1.5468
49237SOL    HW252269   2.039  11.719   5.231  0.1459  0.4310 -0.7317
49238SOL     OW52270   0.195   6.574   2.169 -0.3260 -0.5124  0.1485
49238SOL    HW152271   0.243   6.611   2.243 -0.2909  0.0372 -0.1438
49238SOL    HW252272   0.107   6.559   2.202 -0.7496  1.1622 -0.1084
49239SOL     OW52273   7.296   3.829   4.989 -0.3466 -0.1349 -0.1862
49239SOL    HW152274   7.213   3.856   5.029  0.1504  0.2152  0.6418
49239SOL    HW252275   7.358   3.896   5.018  0.0861  0.0084 -1.3818
49240SOL     OW52276   7.771   6.698   1.088 -0.2815 -0.3730 -0.5670
49240SOL    HW152277   7.697   6.694   1.148  0.4717 -0.7043  0.3549
49240SOL    HW252278   7.848   6.706   1.144  0.6270 -2.7289 -1.3676
49241SOL     OW52279  10.701   4.618   5.000  0.1796  0.2106 -0.3886
49241SOL    HW152280  10.783   4.626   4.951 -0.3730  0.0544 -1.3521
49241SOL    HW252281  10.696   4.698   5.052  0.4707  0.6719 -1.0603
49242SOL     OW52282   0.804  10.146   8.271 -0.2115 -0.1250  0.3316
49242SOL    HW152283   0.757  10.229   8.266 -0.0043  0.1166  1.9939
49242SOL    HW252284   0.735  10.080   8.277 -0.3562  0.0412  0.4973
49243SOL     OW52285   5.308   0.627  10.684 -0.5113  0.0994  0.0468
49243SOL    HW152286   5.401   0.612  10.670 -0.6116 -0.2996 -0.2310
49243SOL    HW252287   5.303   0.684  10.761 -0.1218 -2.1219  1.8329
49244SOL     OW52288   6.413   1.385  11.320  0.3416  0.5427 -0.6054
49244SOL    HW152289   6.319   1.388  11.339 -0.1889 -3.7031 -1.5487
49244SOL    HW252290   6.418   1.398  11.225  1.0397  2.6682 -0.3445
49245SOL     OW52291   3.651   3.659   7.943 -0.6325  0.3752  0.7797
49245SOL    HW152292   3.595   3.711   8.002 -1.5410 -0.8455  1.0346
49245SOL    HW252293   3.638   3.699   7.857  2.2562  3.4766  1.5927
49246SOL     OW52294   9.595  12.102   3.079  0.5774  0.2000  0.0955
49246SOL    HW152295   9.679  12.107   3.125  1.6168 -1.1808 -1.5685
49246SOL    HW252296   9.548  12.181   3.108  2.8627  1.6001  0.2495
49247SOL     OW52297   0.101   7.643   9.281  0.5053 -0.3779  0.0338
49247SOL    HW152298   0.113   7.604   9.368  0.7797 -0.5462 -0.0823
49247SOL    HW252299   0.064   7.573   9.228  0.0986 -0.2016  0.0790
49248SOL     OW52300   1.234   6.005   8.918  0.1222 -0.3602  0.4858
49248SOL    HW152301   1.243   5.945   8.844  1.1157 -1.5944  1.5544
49248SOL    HW252302   1.144   6.037   8.912 -0.5640 -2.2268  0.0541
49249SOL     OW52303   2.595   6.736   5.101  0.0672 -0.3313 -0.2039
49249SOL    HW152304   2.577   6.651   5.142 -1.1186 -0.4989 -1.0086
49249SOL    HW252305   2.558   6.728   5.013  1.6468  0.3668 -0.9797
49250SOL     OW52306   2.722   0.760   0.586  0.0215 -0.2184  0.3905
49250SOL    HW152307   2.646   0.702   0.597 -0.6675  0.5064 -0.4056
49250SOL    HW252308   2.786   0.727   0.649 -0.6817 -1.2931  0.5809
49251SOL     OW52309   8.345   8.997   0.057  0.3752 -0.0537 -0.4278
49251SOL    HW152310   8.278   8.941   0.097 -1.2319  0.6720 -1.9932
49251SOL    HW252311   8.378   8.946  -0.017  2.2727 -0.7714  0.8200
49252SOL     OW52312   0.412   8.121  11.117  0.5145  0.0141  0.5540
49252SOL    HW152313   0.466   8.194  11.086 -0.2700 -0.0025 -0.9837
49252SOL    HW252314   0.468   8.073  11.178  1.7513  0.7545  0.0401
49253SOL     OW52315   4.522  11.987   1.624 -0.4095  0.0507  0.0024
49253SOL    HW152316   4.439  12.031   1.605  0.1173  0.8477 -0.5177
49253SOL    HW252317   4.497  11.910   1.676 -1.2389  1.8645  2.5101
49254SOL     OW52318  10.669   0.481   1.048 -0.6180 -0.1254 -0.5192
49254SOL    HW152319  10.600   0.478   0.982  0.0883  1.5476 -1.4130
49254SOL    HW252320  10.751   0.484   0.997 -0.1141  2.8424  0.2611
49255SOL     OW52321  10.610   8.372   0.807  0.4571 -0.2517 -0.0556
49255SOL    HW152322  10.648   8.289   0.779 -0.5734 -0.7825  0.0651
49255SOL    HW252323  10.517   8.352   0.821 -0.1982  1.2875 -1.7068
49256SOL     OW52324   5.049   1.318   9.967  0.8611 -0.2000 -0.0209
49256SOL    HW152325   5.012   1.370  10.039 -0.3065 -1.2718  0.1955
49256SOL    HW252326   4.990   1.335   9.893  0.8769 -0.6697 -0.1442
49257SOL     OW52327   9.931   8.949   4.671  0.4448  0.1601 -0.6227
49257SOL    HW152328  10.024   8.968   4.689  0.7860 -0.3528 -1.7531
49257SOL    HW252329   9.888   9.034   4.674  1.4815  0.8542 -2.9924
49258SOL     OW52330  11.346   6.845   2.476 -0.5673  0.2698  0.2276
49258SOL    HW152331  11.419   6.897   2.508  0.5799 -0.8237 -0.5156
49258SOL    HW252332  11.325   6.785   2.548 -0.5887  0.4395  0.3614
49259SOL     OW52333   8.749   2.930  11.943 -0.3948 -0.2800 -0.6467
49259SOL    HW152334   8.806   2.867  11.900  0.9068  1.4912 -1.6648
49259SOL    HW252335   8.698   2.878  12.005  1.2205 -2.1787 -0.8060
49260SOL     OW52336   0.430  10.210   8.378 -0.0112 -0.0570 -0.0922
49260SOL    HW152337   0.480  10.130   8.396 -1.5932 -0.9392  0.5907
49260SOL    HW252338   0.374  10.186   8.304 -1.7896 -0.2363  1.2316
49261SOL     OW52339   6.612   0.403   7.556  0.5179  0.1781 -0.2132
49261SOL    HW152340   6.681   0.450   7.604 -0.2814 -0.3611  1.5186
49261SOL    HW252341   6.655   0.375   7.475  2.3306 -0.0628  0.7720
49262SOL     OW52342   1.225   6.659   5.989 -0.2238 -0.3519  0.2100
49262SOL    HW152343   1.285   6.714   5.939 -0.9877  1.1541  0.8750
49262SOL    HW252344   1.223   6.576   5.941 -0.8399  0.9650 -2.2327
49263SOL     OW52345  11.558   1.863   5.368  0.2297 -0.4679 -0.2851
49263SOL    HW152346  11.581   1.789   5.313 -1.8063 -0.9689 -0.5724
49263SOL    HW252347  11.630   1.926   5.356 -0.3743 -0.2316 -4.1474
49264SOL     OW52348  11.535   6.626   7.607  0.1650  0.0083  0.3167
49264SOL    HW152349  11.587   6.652   7.531  0.4143  0.4111  0.6151
49264SOL    HW252350  11.465   6.692   7.612  0.2606  0.0970  0.5401
49265SOL     OW52351  10.488  10.207   5.658  0.2532 -0.3137 -0.0292
49265SOL    HW152352  10.517  10.138   5.598  1.3908  0.1554 -0.0401
49265SOL    HW252353  10.513  10.175   5.744 -0.4648 -0.5227  0.1110
49266SOL     OW52354  11.369   8.319   2.058 -0.1504  0.1410 -0.3956
49266SOL    HW152355  11.440   8.363   2.012 -0.3507  1.0316  0.1135
49266SOL    HW252356  11.309   8.390   2.083 -0.2840 -0.3613  0.7967
49267SOL     OW52357   4.116   9.408   0.051  0.1316 -0.1831  0.2891
49267SOL    HW152358   4.066   9.380  -0.026  0.5294  0.1092 -0.0789
49267SOL    HW252359   4.206   9.386   0.030  0.5226  1.6513 -0.1746
49268SOL     OW52360   7.807   0.027   1.116  0.2016  0.5661 -0.2405
49268SOL    HW152361   7.760   0.046   1.197 -0.4942 -1.8342  0.0019
49268SOL    HW252362   7.746  -0.025   1.064  1.4721  0.0683 -1.3127
49269SOL     OW52363   3.093   5.032   6.593  0.2240 -0.1655 -0.2833
49269SOL    HW152364   3.137   5.006   6.674 -1.7589 -2.5110  0.1663
49269SOL    HW252365   3.146   4.993   6.523  2.2902  2.3803 -0.2693
49270SOL     OW52366   2.411   6.910   9.062  0.0700 -0.7315  0.0550
49270SOL    HW152367   2.420   6.846   9.132 -1.6738 -2.3052 -1.0603
49270SOL    HW252368   2.318   6.908   9.040  0.8583 -2.2894 -4.0164
49271SOL     OW52369   1.771   9.281   5.430  0.1648  0.2181 -0.2856
49271SOL    HW152370   1.767   9.294   5.335  1.0736 -0.6982 -0.4635
49271SOL    HW252371   1.689   9.319   5.463 -0.1461  0.5720 -1.4241
49272SOL     OW52372  10.143   6.820   7.337  0.0365 -0.2123 -0.2814
49272SOL    HW152373  10.086   6.755   7.379  1.4476 -0.5668  1.1903
49272SOL    HW252374  10.152   6.789   7.247 -0.0998 -1.5421  0.1406
49273SOL     OW52375   4.831   6.148  10.516 -0.4717  0.1653  0.2440
49273SOL    HW152376   4.845   6.204  10.593 -2.1270  0.1248  0.6297
49273SOL    HW252377   4.738   6.161  10.495 -0.9335 -2.4431  0.3596
49274SOL     OW52378   5.406   1.246   5.876  0.2938 -0.1592 -0.2737
49274SOL    HW152379   5.501   1.248   5.881  0.2420  0.7359  0.4223
49274SOL    HW252380   5.388   1.196   5.796  1.3310 -0.8444 -0.1001
49275SOL     OW52381   4.579  11.302  10.786 -0.0956  0.3647  0.4124
49275SOL    HW152382   4.601  11.382  10.739  1.3124  0.0899  0.5527
49275SOL    HW252383   4.576  11.328  10.878 -0.7654  0.4736  0.3656
49276SOL     OW52384  10.168   5.119   4.099 -0.1037 -0.0276 -0.2875
49276SOL    HW152385  10.103   5.081   4.157 -0.3044  0.0223 -0.4801
49276SOL    HW252386  10.196   5.046   4.043 -0.9604  0.2506 -1.0907
49277SOL     OW52387   4.179   2.002   9.319 -0.3192 -0.1741  0.4400
49277SOL    HW152388   4.218   2.032   9.401 -0.9466  0.6632  0.4361
49277SOL    HW252389   4.090   2.036   9.320 -0.8422 -1.4742  0.1235
49278SOL     OW52390   9.820  11.178   4.654 -0.1335  0.0000  0.1966
49278SOL    HW152391   9.820  11.226   4.737 -0.5244  0.9173 -0.3175
49278SOL    HW252392   9.854  11.091   4.676  0.6747  0.5413  1.1269
49279SOL     OW52393  11.878  10.748   3.381 -0.0740  0.7215  0.2599
49279SOL    HW152394  11.796  10.778   3.420 -0.3817 -1.2829  1.2776
49279SOL    HW252395  11.864  10.755   3.287 -1.6044  0.0011  0.4052
49280SOL     OW52396   6.926   5.117   1.967  0.1540 -0.1796  0.1508
49280SOL    HW152397   6.840   5.136   2.006  0.0961 -0.2879  0.0797
49280SOL    HW252398   6.975   5.199   1.974 -0.2480  0.1353 -0.5699
49281SOL     OW52399   2.752   1.484  10.872 -0.6309  0.5422  0.2252
49281SOL    HW152400   2.685   1.435  10.825 -2.6840  1.8601  1.6356
49281SOL    HW252401   2.712   1.569  10.891  1.3291  1.2826  1.4122
49282SOL     OW52402   7.509  10.738   6.032 -0.3573 -0.0587 -0.6025
49282SOL    HW152403   7.522  10.772   5.944 -1.9519  0.4268 -0.6906
49282SOL    HW252404   7.444  10.669   6.022 -1.3409  0.6890  0.2923
49283SOL     OW52405   8.199   2.924  11.842 -0.0928 -0.2385 -0.2353
49283SOL    HW152406   8.148   2.895  11.766 -0.7897 -1.8565  0.8027
49283SOL    HW252407   8.157   3.005  11.870 -0.3475 -0.0784 -1.0500
49284SOL     OW52408   2.997   1.418   5.937 -0.2773 -0.1851  0.4623
49284SOL    HW152409   2.970   1.414   6.028 -0.9297 -1.1216  0.2418
49284SOL    HW252410   2.922   1.454   5.890  0.0536  0.2960  0.2825
49285SOL     OW52411   5.192   9.107  11.826  0.5149 -0.6279 -0.0776
49285SOL    HW152412   5.266   9.114  11.886 -0.2292  0.6441  0.7599
49285SOL    HW252413   5.192   9.191  11.779 -1.2252  0.0506  1.0125
49286SOL     OW52414   5.153   0.847   8.090 -0.0183 -0.3791  0.0342
49286SOL    HW152415   5.143   0.936   8.056  1.9128 -0.1380  0.0095
49286SOL    HW252416   5.067   0.807   8.078 -0.6328  1.1446 -0.9156
49287SOL     OW52417   6.987   0.078   5.692  0.3279  0.2254  0.0958
49287SOL    HW152418   7.074   0.114   5.672  1.1378 -0.8702  1.4663
49287SOL    HW252419   6.988  -0.010   5.654  0.0716 -0.0299  0.6762
49288SOL     OW52420   8.869  11.502   2.586 -0.0915 -0.1170  0.0008
49288SOL    HW152421   8.933  11.491   2.517  0.3244  0.9292  0.1934
49288SOL    HW252422   8.809  11.570   2.553  0.5176  0.9076  0.9193
49289SOL     OW52423   4.966   1.029   7.207 -0.0726 -0.0180 -0.0127
49289SOL    HW152424   4.993   1.113   7.245  1.0183  0.2782 -1.3297
49289SOL    HW252425   4.994   0.964   7.271 -0.2976  0.5739  0.7050
49290SOL     OW52426   6.560   5.739   5.385 -0.3709  0.5078 -0.3804
49290SOL    HW152427   6.651   5.758   5.361 -0.3487  1.2375  0.2539
49290SOL    HW252428   6.518   5.716   5.302  0.1120  1.3062 -0.8567
49291SOL     OW52429   2.031   3.467   0.176 -0.4884 -0.0817  0.1480
49291SOL    HW152430   1.976   3.473   0.254 -1.5441 -2.2721 -0.3446
49291SOL    HW252431   2.096   3.536   0.187 -0.6208 -0.2951  2.9232
49292SOL     OW52432   0.735   9.696   5.934  0.0880 -0.0573  0.0131
49292SOL    HW152433   0.731   9.786   5.902 -1.5780 -0.0244  0.1976
49292SOL    HW252434   0.815   9.660   5.897  0.4926  1.3376 -0.5077
49293SOL     OW52435   0.913   4.479   4.172 -0.1468  0.3954  0.4141
49293SOL    HW152436   0.870   4.525   4.245 -0.2778  0.4211  0.3219
49293SOL    HW252437   0.874   4.518   4.093 -0.6640 -0.2615  0.3402
49294SOL     OW52438   0.731   8.615   6.694 -0.4922 -0.4479  1.4540
49294SOL    HW152439   0.744   8.705   6.723  2.5320 -0.2264 -0.2480
49294SOL    HW252440   0.710   8.623   6.600  0.4158 -1.5042  1.1450
49295SOL     OW52441   3.730   8.848   8.660  0.1048 -0.3075  0.3129
49295SOL    HW152442   3.685   8.929   8.684  0.7378 -0.1022  0.8442
49295SOL    HW252443   3.812   8.851   8.709  0.0535 -1.3638  0.4784
49296SOL     OW52444   0.518   1.633   2.768 -0.8603 -0.6922 -0.5039
49296SOL    HW152445   0.532   1.674   2.854 -3.3447 -1.5584  0.4103
49296SOL    HW252446   0.605   1.607   2.740  0.0300 -0.5389  1.8531
49297SOL     OW52447   6.851   2.381   0.204  0.3509  0.1591  0.1722
49297SOL    HW152448   6.778   2.320   0.209  0.2293  0.3257  0.5000
49297SOL    HW252449   6.928   2.326   0.193 -0.0316  0.0567 -2.8156
49298SOL     OW52450   2.620   3.805   6.134  0.2680  0.2965 -0.4917
49298SOL    HW152451   2.574   3.889   6.132 -2.9471 -1.3135 -1.7429
49298SOL    HW252452   2.603   3.766   6.048  1.9986 -1.5036 -0.1021
49299SOL     OW52453   6.741  11.904   5.526 -0.1100 -0.0728  0.2604
49299SOL    HW152454   6.743  11.902   5.431 -0.7412  0.0834  0.2380
49299SOL    HW252455   6.648  11.910   5.548  0.0606  0.4459  0.8749
49300SOL     OW52456   1.509   8.861   5.453  0.7539  0.0039  0.2135
49300SOL    HW152457   1.516   8.928   5.386  0.5087 -0.5413 -0.3668
49300SOL    HW252458   1.572   8.793   5.427 -0.9759 -1.2946 -0.7640
49301SOL     OW52459   6.600   0.702  12.035  0.1295 -0.4556 -0.4447
49301SOL    HW152460   6.527   0.718  11.976 -2.2169 -0.6387  2.2121
49301SOL    HW252461   6.615   0.785  12.079  0.0764 -0.9479  0.5339
49302SOL     OW52462  11.692   1.855   1.186  0.3694 -0.2160  0.2876
49302SOL    HW152463  11.692   1.927   1.123 -1.7317 -0.3852  0.0158
49302SOL    HW252464  11.631   1.883   1.255  0.6099 -1.1476  0.9035
49303SOL     OW52465   8.159  10.432  11.928  0.5183  0.2963 -0.3696
49303SOL    HW152466   8.075  10.464  11.895  0.3049  0.4084  0.2677
49303SOL    HW252467   8.222  10.453  11.859  0.0537  0.3865 -0.7665
49304SOL     OW52468   6.925   4.024  11.526  0.4715  0.5818 -0.1002
49304SOL    HW152469   6.979   4.096  11.493 -0.1159  0.7395 -0.7689
49304SOL    HW252470   6.915   3.966  11.450 -1.5910  1.3618 -0.4940
49305SOL     OW52471  10.873   1.812   3.827  0.8849 -0.3944 -0.0343
49305SOL    HW152472  10.806   1.801   3.759  0.6737  2.2707 -0.3918
49305SOL    HW252473  10.839   1.766   3.903 -0.4645 -0.6738 -0.7771
49306SOL     OW52474   8.114  10.176   6.523 -0.0205 -0.7390  0.3384
49306SOL    HW152475   8.148  10.263   6.546  0.5575 -0.4941 -1.2825
49306SOL    HW252476   8.180  10.115   6.556 -0.4129 -0.5711  1.4603
49307SOL     OW52477   7.915   1.874   3.767 -0.0100  0.1300 -0.7912
49307SOL    HW152478   7.856   1.912   3.833  1.1791 -0.7003  0.8324
49307SOL    HW252479   7.962   1.806   3.814  2.1785  0.6847 -2.0379
49308SOL     OW52480   3.106   9.691   5.941 -0.0048 -0.0668 -0.0772
49308SOL    HW152481   3.099   9.656   6.030 -0.8079 -0.0034 -0.1071
49308SOL    HW252482   3.079   9.619   5.885  0.1841 -0.0003 -0.2533
49309SOL     OW52483   8.551   9.235   2.328  0.6600 -0.0952 -0.1984
49309SOL    HW152484   8.482   9.296   2.301  0.8443  0.8003  1.2506
49309SOL    HW252485   8.540   9.159   2.270  0.3230  1.2301 -1.9403
49310SOL     OW52486   2.035   9.275   2.072 -0.4634 -0.0667 -0.1979
49310SOL    HW152487   2.123   9.302   2.045 -0.8557  0.0670 -1.4275
49310SOL    HW252488   2.023   9.314   2.158  0.3852  0.5788 -0.3577
49311SOL     OW52489   0.376  11.066   4.637  0.5731 -0.6448 -0.3268
49311SOL    HW152490   0.397  10.973   4.644 -1.1839 -0.9712  1.2312
49311SOL    HW252491   0.436  11.109   4.698 -1.2975 -1.2833  2.1310
49312SOL     OW52492  11.512   3.532   6.527  0.3473  0.4010  0.0840
49312SOL    HW152493  11.487   3.590   6.600 -0.4626  2.1887 -1.5194
49312SOL    HW252494  11.559   3.589   6.467  0.9761 -1.0267 -0.8189
49313SOL     OW52495   9.987   4.451   9.728 -0.1303 -0.3110 -0.2402
49313SOL    HW152496   9.996   4.521   9.663 -1.0454  0.4913  0.4694
49313SOL    HW252497  10.066   4.458   9.781 -0.5004  0.6402  0.2270
49314SOL     OW52498   3.915   1.873   4.677 -0.1012  0.1037 -0.0018
49314SOL    HW152499   3.948   1.959   4.704  1.3873 -0.4802  0.1434
49314SOL    HW252500   3.873   1.889   4.592  0.8625  0.8538 -0.3609
49315SOL     OW52501   8.188   2.189  11.474 -0.3447  0.3501  0.3911
49315SOL    HW152502   8.202   2.255  11.406  0.6414 -0.1496  0.0775
49315SOL    HW252503   8.273   2.145  11.482 -1.2733 -1.6842 -0.2853
49316SOL     OW52504   9.591   1.054   2.321 -0.3893 -0.5245  0.1319
49316SOL    HW152505   9.592   0.970   2.274 -3.3126  0.2091 -1.4805
49316SOL    HW252506   9.500   1.063   2.351 -0.3529  2.3796 -0.3601
49317SOL     OW52507   9.841   9.135   2.210 -0.9842 -0.1595  0.5862
49317SOL    HW152508   9.749   9.160   2.210 -0.9910 -0.1501 -0.3492
49317SOL    HW252509   9.852   9.082   2.290 -1.7574 -0.0479  0.7728
49318SOL     OW52510   4.976   9.382   8.960 -0.3087 -0.1545  0.2278
49318SOL    HW152511   5.067   9.352   8.958  0.0580  0.9497 -0.8923
49318SOL    HW252512   4.926   9.306   8.991  1.0129 -0.6844  1.1421
49319SOL     OW52513  10.155   6.795  11.357  0.9650 -0.0582 -0.5567
49319SOL    HW152514  10.171   6.712  11.311 -0.7835  0.2999 -1.9258
49319SOL    HW252515  10.193   6.781  11.444  0.8300 -2.2545 -0.7772
49320SOL     OW52516  11.500   3.991   4.654  0.1640  0.4919 -0.4514
49320SOL    HW152517  11.490   3.965   4.563 -0.8280  0.2028 -0.2681
49320SOL    HW252518  11.423   4.046   4.672  0.4021  0.6263  0.1849
49321SOL     OW52519   1.839   7.512  10.200 -0.2650 -0.3830 -0.3500
49321SOL    HW152520   1.858   7.422  10.175 -2.2871 -0.7209 -0.8740
49321SOL    HW252521   1.806   7.506  10.289 -1.7498 -0.3896 -0.8694
49322SOL     OW52522  10.637   7.841   9.947  0.1449 -0.4156  0.5736
49322SOL    HW152523  10.564   7.876   9.999  0.5347  1.4712 -0.0605
49322SOL    HW252524  10.600   7.766   9.902 -1.1887 -0.0017  0.9244
49323SOL     OW52525   1.325   2.147   4.689 -1.2337 -0.0053 -0.7496
49323SOL    HW152526   1.344   2.240   4.701 -0.2156 -0.3844  0.9586
49323SOL    HW252527   1.403   2.113   4.645 -0.5359 -0.4440  0.7549
49324SOL     OW52528   8.687   6.432   2.035 -0.5944  0.5925 -0.1578
49324SOL    HW152529   8.737   6.392   2.106  1.8787  1.9151 -1.0558
49324SOL    HW252530   8.643   6.506   2.076  0.4977  1.1123  0.1145
49325SOL     OW52531   6.229   7.217  12.018 -0.3929 -0.4019 -0.3347
49325SOL    HW152532   6.274   7.132  12.013  0.7035  0.1256  0.1976
49325SOL    HW252533   6.260   7.265  11.941 -0.8116 -0.3842 -0.4941
49326SOL     OW52534   7.005  10.813   8.478  0.3043 -0.1889 -0.2832
49326SOL    HW152535   7.000  10.886   8.417  1.7475 -0.3629 -0.6655
49326SOL    HW252536   6.914  10.786   8.492 -0.2027  1.3009 -0.5733
49327SOL     OW52537   9.902   3.850   4.400  0.4701 -0.1714  0.7303
49327SOL    HW152538   9.866   3.839   4.312 -1.9873  1.1748  1.4730
49327SOL    HW252539   9.876   3.771   4.447 -1.5860  0.7186  1.2142
49328SOL     OW52540   3.630  11.534   7.670  0.0627 -0.3190  0.4274
49328SOL    HW152541   3.683  11.561   7.595  0.8049  0.9365  1.3615
49328SOL    HW252542   3.694  11.511   7.738 -0.5735  0.3296  1.2683
49329SOL     OW52543  10.059   8.026   4.724 -0.2158 -0.1006 -0.1396
49329SOL    HW152544  10.137   8.074   4.753  1.4022 -2.0362 -1.0791
49329SOL    HW252545  10.037   7.969   4.797 -0.6213  0.2400  0.0138
49330SOL     OW52546   9.080   2.610   6.590 -0.1622  0.8624  0.1052
49330SOL    HW152547   9.097   2.529   6.638 -1.5248  1.5017  1.7740
49330SOL    HW252548   9.046   2.582   6.505 -1.5885 -0.3657  1.0312
49331SOL     OW52549   7.960   5.598   5.040 -0.4773 -0.2565 -0.0815
49331SOL    HW152550   8.038   5.642   5.076 -0.8751 -1.2194  2.1180
49331SOL    HW252551   7.991   5.511   5.016 -1.0759 -1.1104  2.0362
49332SOL     OW52552   2.630   9.519   0.491 -0.1561  0.2205 -0.0712
49332SOL    HW152553   2.548   9.485   0.456  0.0320 -0.7331  0.3846
49332SOL    HW252554   2.672   9.562   0.417 -1.6051  1.8168 -0.0419
49333SOL     OW52555   0.752  10.175  12.116 -0.2004  0.3474 -0.4921
49333SOL    HW152556   0.823  10.113  12.100 -0.5775 -0.8240  2.0471
49333SOL    HW252557   0.676  10.121  12.134 -0.8616  1.5444  0.4622
49334SOL     OW52558   5.982   0.053  10.909  0.4516 -0.2434 -0.2184
49334SOL    HW152559   6.035   0.076  10.985 -0.2943  1.7821 -0.2540
49334SOL    HW252560   6.044   0.048  10.837  0.6746  2.0200 -0.2427
49335SOL     OW52561   9.531   0.172   5.170  0.3691 -0.0130 -0.6558
49335SOL    HW152562   9.593   0.240   5.198  1.2467 -1.2698  0.6827
49335SOL    HW252563   9.458   0.219   5.132  0.8078  1.6941  0.5137
49336SOL     OW52564   1.987  10.542   4.084 -0.3568 -0.2706  0.0843
49336SOL    HW152565   1.936  10.485   4.026  1.1761 -2.1219  0.4747
49336SOL    HW252566   2.065  10.491   4.106  1.6057  2.3616 -0.3295
49337SOL     OW52567  10.012   1.651   1.637 -0.1124  0.1316 -0.4512
49337SOL    HW152568  10.024   1.721   1.700 -0.7940 -1.2852  1.3418
49337SOL    HW252569   9.969   1.693   1.562  1.7398  2.0723 -0.5039
49338SOL     OW52570  10.400   7.150   8.398 -0.3694  0.1365  0.6837
49338SOL    HW152571  10.326   7.091   8.414 -0.0195 -0.3525  0.5058
49338SOL    HW252572  10.473   7.092   8.379 -0.1103  0.6367  0.1195
49339SOL     OW52573   8.598   9.138   3.643  0.3656  0.1600 -0.4568
49339SOL    HW152574   8.563   9.210   3.591 -1.2607 -0.2327  0.0238
49339SOL    HW252575   8.686   9.166   3.667 -1.0339  3.2010  1.8740
49340SOL     OW52576   5.615   2.445   7.139 -0.1528 -0.1713 -0.2823
49340SOL    HW152577   5.657   2.361   7.156 -1.2406 -0.6978 -0.1025
49340SOL    HW252578   5.615   2.489   7.224 -0.3687 -0.3549 -0.1879
49341SOL     OW52579   5.579   8.628   1.785 -0.3202  0.5892  0.4191
49341SOL    HW152580   5.663   8.663   1.816 -0.4264  2.8047 -1.5157
49341SOL    HW252581   5.598   8.593   1.698 -1.3714  1.0586 -0.0131
49342SOL     OW52582  10.017   6.085   7.677 -0.4699  0.1517 -0.4024
49342SOL    HW152583  10.077   6.062   7.748 -1.8299 -3.0205 -0.1200
49342SOL    HW252584   9.941   6.122   7.721  0.1257  1.6467 -0.5633
49343SOL     OW52585   1.160   6.851   0.980 -0.7431 -0.1232  0.1845
49343SOL    HW152586   1.221   6.818   0.914 -1.4723 -0.9204 -0.1062
49343SOL    HW252587   1.113   6.921   0.936 -0.2241  0.3236  0.3291
49344SOL     OW52588   4.266   8.515  11.521  0.2138 -0.8786  0.9047
49344SOL    HW152589   4.258   8.609  11.540 -0.2067 -0.9726  1.2079
49344SOL    HW252590   4.231   8.472  11.598 -2.7239 -1.2719 -0.4900
49345SOL     OW52591   6.987   0.442   7.203 -0.0233 -0.3478 -0.1265
49345SOL    HW152592   6.982   0.451   7.108 -1.8627  0.7978  0.0425
49345SOL    HW252593   6.938   0.516   7.238  0.5830 -0.7540  1.7362
49346SOL     OW52594   3.150   8.465   2.604  0.2532  0.4392  0.3874
49346SOL    HW152595   3.160   8.499   2.693  0.7398 -0.5704  0.7285
49346SOL    HW252596   3.138   8.371   2.614  1.1946  0.1818 -0.6535
49347SOL     OW52597   8.397   9.687  10.314  0.0907 -0.4731 -0.7206
49347SOL    HW152598   8.436   9.661  10.230  1.4775  0.3217 -0.3472
49347SOL    HW252599   8.426   9.777  10.327  1.6081 -1.2059  1.5598
49348SOL     OW52600   4.045   3.904   0.981  0.0438 -0.1964 -0.1696
49348SOL    HW152601   4.068   3.979   0.926 -2.7242 -0.3204 -1.6661
49348SOL    HW252602   3.949   3.903   0.982 -0.0261 -3.3216  0.3282
49349SOL     OW52603   6.072   7.901   9.521 -0.4537  0.3321  0.5835
49349SOL    HW152604   6.076   7.806   9.510  2.6520  0.2714  1.4128
49349SOL    HW252605   6.054   7.935   9.434  0.5282 -0.9412 -0.1408
49350SOL     OW52606   4.353   1.774  10.447  1.4414 -0.1501  0.3895
49350SOL    HW152607   4.398   1.738  10.524 -0.2944 -1.1880  0.9629
49350SOL    HW252608   4.270   1.806  10.480  1.2468  0.6738 -0.8375
49351SOL     OW52609   1.493  10.617   1.623  0.2223 -0.1063  0.1466
49351SOL    HW152610   1.547  10.596   1.547 -0.1497 -0.5841  0.0114
49351SOL    HW252611   1.509  10.545   1.684 -0.1567 -0.1749  0.1620
49352SOL     OW52612   9.440   7.513   4.293 -0.0539  0.4742 -0.2012
49352SOL    HW152613   9.533   7.499   4.307 -0.1760  1.5017  2.2219
49352SOL    HW252614   9.434   7.594   4.243  0.3507  0.8463  0.3505
49353SOL     OW52615   4.436   5.445   6.092  0.1006  0.6500 -0.7882
49353SOL    HW152616   4.419   5.462   6.000  0.7946 -0.6069 -1.1580
49353SOL    HW252617   4.380   5.371   6.114  0.9296  0.0802 -0.5585
49354SOL     OW52618   7.126  10.287   2.854 -0.0672 -0.2141  0.6177
49354SOL    HW152619   7.042  10.297   2.898 -1.4734 -1.6756 -1.5158
49354SOL    HW252620   7.110  10.316   2.764  1.8096 -0.2163  0.2371
49355SOL     OW52621   3.224   2.483   0.736 -0.6110 -0.4793  0.0901
49355SOL    HW152622   3.156   2.541   0.702 -1.0423 -0.7656  0.4518
49355SOL    HW252623   3.293   2.542   0.767  0.1792 -0.1984 -1.9765
49356SOL     OW52624  11.034   2.492   3.554  0.6007 -0.2687 -0.6100
49356SOL    HW152625  11.045   2.485   3.459 -1.6496  0.8911 -1.0116
49356SOL    HW252626  10.986   2.413   3.578  0.8384 -0.3776 -0.4882
49357SOL     OW52627   3.125   4.617   3.170 -0.2358 -0.2043  0.1026
49357SOL    HW152628   3.107   4.711   3.167 -0.1347 -0.1726  0.4429
49357SOL    HW252629   3.150   4.594   3.081 -1.3781 -0.1335 -0.2426
49358SOL     OW52630   3.713  10.939  10.377  0.3041 -0.4666 -0.0625
49358SOL    HW152631   3.739  10.861  10.328  0.9323 -0.0960 -0.3251
49358SOL    HW252632   3.774  10.943  10.451 -0.2743 -0.6980  0.4418
49359SOL     OW52633   8.245   1.618  10.024 -0.3916  0.4530 -0.4272
49359SOL    HW152634   8.339   1.617  10.008 -0.6852 -0.6748 -2.4147
49359SOL    HW252635   8.235   1.570  10.106  0.6151 -1.7230 -1.5015
49360SOL     OW52636   1.149  10.426   5.915 -0.1820 -0.3252 -0.1704
49360SOL    HW152637   1.089  10.474   5.857 -0.7178  1.3291  1.6293
49360SOL    HW252638   1.101  10.347   5.939 -0.4559 -0.4153 -0.9868
49361SOL     OW52639   8.197  10.304   7.221 -0.6742 -0.4191 -0.0616
49361SOL    HW152640   8.196  10.387   7.269 -0.8368 -0.6723  0.3765
49361SOL    HW252641   8.106  10.288   7.197 -0.6115 -0.3571 -0.3373
49362SOL     OW52642   7.510   8.814   8.102  0.0628 -0.1915 -0.9276
49362SOL    HW152643   7.443   8.858   8.049  0.7054  1.2749 -0.5998
49362SOL    HW252644   7.513   8.865   8.183  2.0836  0.3049 -1.2481
49363SOL     OW52645  11.101   4.570   3.422 -0.1814  0.0636 -0.0921
49363SOL    HW152646  11.134   4.511   3.490  1.5309  0.4539 -0.5250
49363SOL    HW252647  11.069   4.512   3.353 -1.0242 -0.3302  0.6090
49364SOL     OW52648   6.478   4.694   0.029 -1.2755 -0.1386 -0.3844
49364SOL    HW152649   6.573   4.680   0.022 -1.1973 -0.6174  1.3512
49364SOL    HW252650   6.440   4.629  -0.031 -0.5608 -1.3371  0.4196
49365SOL     OW52651   0.236   9.617   2.527  0.2266 -0.5264  0.1817
49365SOL    HW152652   0.166   9.553   2.541 -0.2033 -0.1167 -0.0452
49365SOL    HW252653   0.191   9.692   2.488  0.6891 -0.0129  0.6270
49366SOL     OW52654   6.277   4.151   6.546 -0.0171 -0.0332  0.1184
49366SOL    HW152655   6.211   4.218   6.563 -1.1220 -0.7528 -1.0423
49366SOL    HW252656   6.229   4.068   6.555  0.6130 -0.5626 -1.1219
49367SOL     OW52657   4.682   8.277   9.430  0.0291 -0.2196 -0.2618
49367SOL    HW152658   4.587   8.275   9.429 -0.0051  0.3889  0.5374
49367SOL    HW252659   4.704   8.320   9.513  0.9556  2.0111 -1.6007
49368SOL     OW52660  11.441   8.469   1.006  0.6641 -0.2404 -0.9067
49368SOL    HW152661  11.387   8.526   1.060  1.3914  1.4990 -1.9559
49368SOL    HW252662  11.379   8.423   0.950  0.0792 -0.4314 -0.1160
49369SOL     OW52663   7.236  11.806   0.373  0.0056 -0.5509 -0.0101
49369SOL    HW152664   7.329  11.789   0.360 -0.0117 -1.3335  0.7937
49369SOL    HW252665   7.232  11.891   0.416  0.2990 -0.1914 -0.6721
49370SOL     OW52666   0.818  11.622   0.133 -0.6077 -0.2846  1.2094
49370SOL    HW152667   0.883  11.662   0.076 -1.9126 -0.1599 -0.2460
49370SOL    HW252668   0.844  11.530   0.139  0.1934 -0.0476  1.3581
49371SOL     OW52669  10.925   6.517  11.245 -0.1272 -0.3767 -0.1451
49371SOL    HW152670  10.882   6.601  11.264  0.3440  0.0096 -0.7669
49371SOL    HW252671  10.942   6.519  11.151 -2.2848 -2.1975 -0.6739
49372SOL     OW52672   9.542   5.938   9.652  0.3999 -0.5391 -0.3675
49372SOL    HW152673   9.505   5.907   9.734 -0.0512 -0.4766 -0.5428
49372SOL    HW252674   9.598   6.011   9.676 -1.8645  1.3076 -0.3590
49373SOL     OW52675   6.053   7.237   7.153 -0.2118  0.7645 -0.3340
49373SOL    HW152676   6.088   7.229   7.242  1.0233  1.2944 -0.7460
49373SOL    HW252677   6.053   7.332   7.136  1.6415  0.5897 -1.6499
49374SOL     OW52678   0.302   0.212   6.324 -0.3499  0.1144  0.0112
49374SOL    HW152679   0.332   0.139   6.269  0.5128  1.8598 -1.9617
49374SOL    HW252680   0.381   0.262   6.342 -1.1815  1.6083 -0.3282
49375SOL     OW52681   9.864  10.771  11.918 -0.0526  0.5055 -0.1945
49375SOL    HW152682   9.915  10.822  11.855  2.6610  0.1365  1.5039
49375SOL    HW252683   9.919  10.694  11.935 -2.7030 -1.6152 -0.5688
49376SOL     OW52684   4.684   3.960   7.773 -0.5322  0.1377 -0.2575
49376SOL    HW152685   4.616   4.018   7.807  0.5467  2.2553 -1.4782
49376SOL    HW252686   4.743   4.018   7.725  1.3445 -1.8208 -0.4793
49377SOL     OW52687   8.879   2.213   4.146  0.4151 -0.5315 -0.0651
49377SOL    HW152688   8.872   2.299   4.104  0.2920 -0.4834  0.0540
49377SOL    HW252689   8.867   2.230   4.239 -2.0689 -0.9576 -0.2394
49378SOL     OW52690   6.211   1.507   3.232 -0.0976 -0.5216  0.6836
49378SOL    HW152691   6.161   1.525   3.311 -2.4595  2.3449 -1.2499
49378SOL    HW252692   6.268   1.584   3.221  0.5740 -1.1090 -0.1453
49379SOL     OW52693   9.884  11.012   1.840 -0.4891  0.0772 -0.3377
49379SOL    HW152694   9.874  11.079   1.907  0.4275 -0.0546 -0.0576
49379SOL    HW252695   9.860  11.055   1.758 -0.0346  0.7175 -0.1401
49380SOL     OW52696  10.381   1.372  10.113  0.2002 -0.4674 -0.0423
49380SOL    HW152697  10.437   1.448  10.132  1.9033 -1.5167 -0.6529
49380SOL    HW252698  10.384   1.363  10.018 -1.3503 -0.3362 -0.1285
49381SOL     OW52699   1.563   2.356   6.534  0.2830  0.3473 -0.3011
49381SOL    HW152700   1.488   2.371   6.592 -1.1223  0.6587 -2.1053
49381SOL    HW252701   1.631   2.322   6.591 -1.6136 -1.0698  1.2528
49382SOL     OW52702   1.323   5.384   9.968 -0.8122 -0.3284  0.6701
49382SOL    HW152703   1.324   5.475   9.998  1.9536  0.1727 -0.6675
49382SOL    HW252704   1.251   5.381   9.905  0.1681  1.4822 -0.6400
49383SOL     OW52705   4.102   9.949  11.606  0.2489  0.7030  0.8095
49383SOL    HW152706   4.137   9.874  11.654  0.2503  0.7946  0.9518
49383SOL    HW252707   4.026   9.977  11.658 -1.8207 -1.2658 -0.9377
49384SOL     OW52708   5.933   8.847  11.416 -0.2643 -0.5635  0.5755
49384SOL    HW152709   5.997   8.884  11.356 -0.3829 -0.4988  0.4912
49384SOL    HW252710   5.850   8.854  11.371 -0.2973 -0.8650  0.5875
49385SOL     OW52711   3.423   8.252   4.054 -0.1846 -0.0891 -0.0336
49385SOL    HW152712   3.492   8.307   4.091  0.6353  1.0376 -2.9144
49385SOL    HW252713   3.352   8.256   4.117  0.4616  3.0091  0.6517
49386SOL     OW52714   2.812   8.219   0.604 -0.1052 -0.0851  0.1835
49386SOL    HW152715   2.746   8.158   0.572 -0.6713  1.3579 -1.5710
49386SOL    HW252716   2.762   8.294   0.635  0.6172 -0.0945  1.4173
49387SOL     OW52717  10.353  10.417   8.791  0.3080 -0.0061  0.2482
49387SOL    HW152718  10.307  10.360   8.729 -1.2773  1.0690  0.3858
49387SOL    HW252719  10.406  10.357   8.844 -0.7747 -1.2794 -0.0657
49388SOL     OW52720  11.246  10.693   1.466 -0.0732 -0.1604  0.3683
49388SOL    HW152721  11.172  10.635   1.479 -0.7246  0.3239 -0.9304
49388SOL    HW252722  11.311  10.639   1.420  0.4026 -0.5857  1.5110
49389SOL     OW52723   2.721   8.926   0.989 -0.4368  0.3007 -0.1924
49389SOL    HW152724   2.766   9.011   0.991  1.0774 -0.3864 -1.6923
49389SOL    HW252725   2.685   8.921   0.900 -1.2372 -0.2992  0.1556
49390SOL     OW52726   2.529   4.719   4.565  0.3943 -0.6750 -0.3013
49390SOL    HW152727   2.439   4.745   4.583  0.0225 -2.0463 -0.1415
49390SOL    HW252728   2.572   4.720   4.651  0.2870 -0.9614 -0.2456
49391SOL     OW52729   4.974   8.863   8.945 -0.1196 -0.2434  0.7242
49391SOL    HW152730   5.058   8.863   8.991  0.3184  0.3292 -0.0375
49391SOL    HW252731   4.978   8.787   8.887  0.6548  0.7687 -0.6228
49392SOL     OW52732   7.987  10.018   8.994 -0.3808 -0.5555  0.4758
49392SOL    HW152733   7.910   9.971   9.026 -1.0794  0.3728  0.2050
49392SOL    HW252734   8.061   9.978   9.040 -1.1170 -0.8512  1.4194
49393SOL     OW52735   5.235  11.649   1.970  0.0100  0.0308  0.4213
49393SOL    HW152736   5.149  11.608   1.976 -0.2261  0.5715  0.9066
49393SOL    HW252737   5.290  11.584   1.928 -0.8614  0.0253 -0.7684
49394SOL     OW52738   7.762   1.379   5.709 -0.5563  0.1899 -0.4384
49394SOL    HW152739   7.720   1.295   5.695 -1.2801  0.7821 -2.0457
49394SOL    HW252740   7.691   1.439   5.731 -0.1719  0.5961 -0.2718
49395SOL     OW52741   5.827   6.683   7.932  0.7038 -0.2467 -0.1452
49395SOL    HW152742   5.837   6.639   7.848  1.4610  0.8231 -0.6377
49395SOL    HW252743   5.915   6.680   7.971  0.3185 -0.8862  0.6916
49396SOL     OW52744   5.424   8.416   4.666  0.1628  0.7546  0.4598
49396SOL    HW152745   5.357   8.480   4.642  1.4655  2.0779  0.2350
49396SOL    HW252746   5.491   8.467   4.711  0.0971 -0.8589  2.5519
49397SOL     OW52747   9.980   8.639  12.023  0.4493  0.9222 -0.4284
49397SOL    HW152748  10.069   8.648  11.988  0.5543  2.0093  0.1015
49397SOL    HW252749   9.936   8.719  11.998  0.0776  1.0609  0.6177
49398SOL     OW52750   5.107   3.051   2.205 -0.4270  0.2039 -0.3377
49398SOL    HW152751   5.179   2.996   2.237 -0.4672  0.3412 -0.0122
49398SOL    HW252752   5.106   3.036   2.110 -1.5612 -1.7455 -0.0928
49399SOL     OW52753   9.812   3.691   7.444 -0.2341 -0.2091 -0.3255
49399SOL    HW152754   9.823   3.765   7.502 -0.4342  0.0458 -0.6069
49399SOL    HW252755   9.825   3.614   7.499  2.4618  0.0192 -0.5079
49400SOL     OW52756   0.718   2.360  11.262 -0.1102 -0.4369 -0.0711
49400SOL    HW152757   0.722   2.267  11.240  0.8146 -0.2759 -0.6430
49400SOL    HW252758   0.810   2.387  11.268 -0.3356  0.0449  1.8864
49401SOL     OW52759   1.152   4.890   2.242 -0.3693 -0.1753 -0.3060
49401SOL    HW152760   1.091   4.882   2.168  0.1637 -0.1346 -0.7619
49401SOL    HW252761   1.156   4.802   2.279 -0.4215 -0.2652 -0.5094
49402SOL     OW52762   8.031  10.609   9.156 -0.1247 -0.4850 -0.1303
49402SOL    HW152763   7.994  10.550   9.090  2.2891 -1.1763 -0.9455
49402SOL    HW252764   8.055  10.688   9.107 -0.7321  0.0665  0.4372
49403SOL     OW52765   2.155   2.764   6.277 -0.3992  0.2540 -0.3600
49403SOL    HW152766   2.073   2.762   6.325  1.3523  0.3925  2.8986
49403SOL    HW252767   2.168   2.675   6.246 -1.3499  0.0527 -0.1903
49404SOL     OW52768   0.446   3.210   7.241  0.4252 -0.3840 -0.0287
49404SOL    HW152769   0.453   3.294   7.286  1.5570 -0.1914 -0.5248
49404SOL    HW252770   0.352   3.196   7.229  0.2430  0.9666 -0.2529
49405SOL     OW52771   7.648   1.022   5.070  0.2503  0.6292 -0.1147
49405SOL    HW152772   7.626   1.093   5.010 -1.0973 -0.2860 -0.7614
49405SOL    HW252773   7.563   0.988   5.099  0.8534 -0.7309  0.1517
49406SOL     OW52774   0.419   2.329   7.188 -0.0297 -0.0795  0.5297
49406SOL    HW152775   0.465   2.248   7.211 -0.5906 -0.0661  1.7444
49406SOL    HW252776   0.354   2.302   7.123  2.1885  0.0389 -1.8845
49407SOL     OW52777   3.181   9.294   1.008  0.1821  0.3729 -0.4075
49407SOL    HW152778   3.209   9.314   0.919  1.3039 -1.5500 -0.5381
49407SOL    HW252779   3.139   9.208   1.002  1.6094 -0.5014  1.1032
49408SOL     OW52780   5.340   7.431   7.560 -0.4098 -0.6205  0.0616
49408SOL    HW152781   5.387   7.499   7.512 -0.4291 -0.5057  0.2035
49408SOL    HW252782   5.406   7.388   7.614 -0.4164 -0.6469  0.0484
49409SOL     OW52783   7.345   8.563   0.074  0.0348 -0.5439  0.5546
49409SOL    HW152784   7.269   8.619   0.057 -0.1381 -0.9113  0.0911
49409SOL    HW252785   7.363   8.522  -0.011  0.5537 -0.7012  0.7420
49410SOL     OW52786   6.731   6.995   1.563 -0.1879 -0.1614 -0.1076
49410SOL    HW152787   6.743   6.937   1.487  0.0932  0.2761 -0.4010
49410SOL    HW252788   6.814   7.042   1.570 -0.5025  0.3788 -0.0138
49411SOL     OW52789   9.787   3.896   0.515 -0.3460 -0.4598  0.3139
49411SOL    HW152790   9.695   3.912   0.496 -0.0448  2.1536  0.6738
49411SOL    HW252791   9.828   3.889   0.429 -0.8465 -1.6916  0.1510
49412SOL     OW52792  10.706  10.969   1.997  0.3481  0.6359 -0.2137
49412SOL    HW152793  10.688  11.011   1.913  0.1462  3.1941  1.0169
49412SOL    HW252794  10.773  11.024   2.038  0.7417 -0.7741  1.1461
49413SOL     OW52795   8.139   7.949   6.208  0.2572  0.0929 -0.3052
49413SOL    HW152796   8.141   7.887   6.135  1.3488 -0.1934 -0.0501
49413SOL    HW252797   8.222   7.936   6.253  0.3830  1.5413 -0.0653
49414SOL     OW52798   6.985   9.351   8.443  0.6196 -0.2375  0.5212
49414SOL    HW152799   6.943   9.379   8.524 -0.6286  0.2200 -0.2537
49414SOL    HW252800   7.061   9.409   8.433 -0.0637  0.6942  0.6138
49415SOL     OW52801   1.518   7.593  10.663  0.1850  0.1157  0.2104
49415SOL    HW152802   1.546   7.505  10.689  2.1630  0.0712 -1.7744
49415SOL    HW252803   1.461   7.579  10.588 -0.4256  0.4848  0.6032
49416SOL     OW52804   5.698  11.449   3.248  0.1967 -0.5946 -0.0083
49416SOL    HW152805   5.610  11.436   3.282  0.7266 -0.6482  1.3846
49416SOL    HW252806   5.719  11.367   3.204  0.4493 -1.5270  1.7621
49417SOL     OW52807   2.979  11.598   8.695 -0.0670 -0.0159 -0.5253
49417SOL    HW152808   3.053  11.604   8.634 -0.1492  0.7994 -0.5470
49417SOL    HW252809   2.955  11.688   8.714  0.2608 -0.2424  1.1113
49418SOL     OW52810   6.564  11.141   9.277  0.0028  0.4857  0.0128
49418SOL    HW152811   6.620  11.085   9.223  1.2225  2.5784 -1.0103
49418SOL    HW252812   6.490  11.164   9.220 -0.6248 -0.2215  0.5121
49419SOL     OW52813   9.266   0.948   6.582 -0.2685  0.0330 -0.5972
49419SOL    HW152814   9.355   0.981   6.568 -0.4561  0.5102 -0.6930
49419SOL    HW252815   9.278   0.861   6.621  0.2323  0.4690  0.2439
49420SOL     OW52816  10.670   7.179  10.098 -0.4998  0.2492  0.1543
49420SOL    HW152817  10.576   7.197  10.103 -0.5191 -0.1733  1.5581
49420SOL    HW252818  10.707   7.220  10.175  0.4088 -0.0225 -0.1231
49421SOL     OW52819   9.143   0.766  10.847 -0.2943 -0.1298  0.5159
49421SOL    HW152820   9.057   0.808  10.852  0.2006  1.5048 -2.2482
49421SOL    HW252821   9.180   0.777  10.934 -1.4209  2.5921  0.7487
49422SOL     OW52822   1.113   7.807   5.127  0.3171 -0.1631  0.4816
49422SOL    HW152823   1.166   7.872   5.173  1.3105 -1.6572  1.5558
49422SOL    HW252824   1.177   7.741   5.097 -0.3927  0.3285 -2.3891
49423SOL     OW52825   6.630  11.714   1.326 -0.9559 -0.3154  0.1536
49423SOL    HW152826   6.604  11.625   1.302 -0.3333 -0.3643 -0.3704
49423SOL    HW252827   6.559  11.770   1.292  0.1690 -0.3208 -2.4405
49424SOL     OW52828  10.712   0.127   7.823  0.1444  0.3343 -0.5936
49424SOL    HW152829  10.805   0.150   7.829 -0.0899  1.4838 -1.0588
49424SOL    HW252830  10.666   0.210   7.835 -1.0478 -0.7168  3.7732
49425SOL     OW52831   1.619   4.378   3.315  0.0361 -0.0283  0.4607
49425SOL    HW152832   1.635   4.462   3.270  2.0977 -1.0318 -0.8436
49425SOL    HW252833   1.706   4.338   3.321 -0.8649 -1.9445  1.3521
49426SOL     OW52834   0.881   2.896   9.283  0.7860  0.0800 -0.2941
49426SOL    HW152835   0.846   2.983   9.303 -0.9467 -0.6861  0.2308
49426SOL    HW252836   0.976   2.907   9.280  0.6795  1.6712  1.3134
49427SOL     OW52837   4.645   0.650   7.118 -0.0244  0.0233  0.0393
49427SOL    HW152838   4.677   0.737   7.097  1.1594 -0.5932 -0.8207
49427SOL    HW252839   4.699   0.622   7.192  1.2090 -0.8444 -1.1326
49428SOL     OW52840   2.295  11.977   2.885  0.2238  0.0939  0.1705
49428SOL    HW152841   2.261  11.889   2.897 -0.6688  0.6122  1.6868
49428SOL    HW252842   2.284  12.019   2.970  2.2257  1.1434 -0.0363
49429SOL     OW52843  10.897   9.841   3.748 -0.5556  0.3716 -0.3826
49429SOL    HW152844  10.848   9.768   3.785 -1.0472 -0.0867 -1.8896
49429SOL    HW252845  10.988   9.812   3.750 -0.4607  0.6745  1.1475
49430SOL     OW52846   8.677  10.470   8.474 -0.3797  0.3298 -0.3028
49430SOL    HW152847   8.638  10.430   8.551 -1.0403  0.8211 -0.3742
49430SOL    HW252848   8.769  10.484   8.498 -0.4641  0.0386  0.2110
49431SOL     OW52849   9.224   0.821  10.464 -0.2647  0.4175 -0.2530
49431SOL    HW152850   9.165   0.859  10.398 -1.6528 -0.5356  0.4002
49431SOL    HW252851   9.246   0.895  10.521  0.5736  1.1513 -1.4757
49432SOL     OW52852   0.150  10.922   3.706  0.0878 -0.2268 -0.1111
49432SOL    HW152853   0.081  10.938   3.642 -0.3058  0.7808  0.5352
49432SOL    HW252854   0.191  11.007   3.719  0.8073 -0.6182  0.2476
49433SOL     OW52855   7.033   5.421   4.363 -0.5467  0.0554  0.1894
49433SOL    HW152856   6.983   5.347   4.397 -0.8397  0.2599  0.2137
49433SOL    HW252857   6.970   5.468   4.308  0.0301 -0.4997 -0.9708
49434SOL     OW52858   9.200   2.787   5.487 -0.3256  0.0948 -0.7294
49434SOL    HW152859   9.140   2.732   5.537  1.0659  1.2192  2.4525
49434SOL    HW252860   9.180   2.768   5.395 -1.5255 -3.8632  0.1696
49435SOL     OW52861  10.426   4.681   0.566 -0.0487  0.0142 -0.0003
49435SOL    HW152862  10.381   4.737   0.502  1.0295  0.4200 -0.4300
49435SOL    HW252863  10.470   4.615   0.513 -2.2003 -1.9996  0.5542
49436SOL     OW52864   2.548   9.532   6.281  0.0422 -0.6675  0.1375
49436SOL    HW152865   2.454   9.514   6.273 -0.1718 -0.1680  1.3173
49436SOL    HW252866   2.587   9.447   6.299 -0.5969 -0.5060  2.7199
49437SOL     OW52867   3.844   2.659   6.943  0.3970  1.0637  0.0811
49437SOL    HW152868   3.826   2.752   6.956  0.6722  0.9529  1.3392
49437SOL    HW252869   3.909   2.638   7.010 -1.4726 -0.5959  1.4818
49438SOL     OW52870  10.932   9.014   9.969 -0.0486  0.0065  0.4408
49438SOL    HW152871  10.884   9.053   9.896  0.2074 -0.2405  0.1366
49438SOL    HW252872  10.887   9.046  10.048  2.1436  3.7154  0.4114
49439SOL     OW52873   1.925  11.607   5.569  0.3870  0.2839 -0.3811
49439SOL    HW152874   1.895  11.643   5.653 -0.3784  0.4388 -0.7071
49439SOL    HW252875   1.908  11.677   5.506 -1.0653 -0.5915 -1.0142
49440SOL     OW52876   2.109  10.095   6.264 -0.0824  0.5882  0.2457
49440SOL    HW152877   2.195  10.110   6.304  0.2009  0.2657 -0.2291
49440SOL    HW252878   2.128  10.091   6.170 -0.7263  1.2893  0.0768
49441SOL     OW52879   0.424   8.880   0.209 -0.5870 -0.1841  0.4341
49441SOL    HW152880   0.397   8.788   0.209 -1.1962 -0.0312  1.8055
49441SOL    HW252881   0.459   8.894   0.298 -0.4231  0.8845  0.2120
49442SOL     OW52882   3.086   6.465   6.698 -0.0515  0.0427 -0.2154
49442SOL    HW152883   3.157   6.427   6.647 -1.4188  0.3386 -2.4701
49442SOL    HW252884   3.082   6.411   6.777  2.1176 -0.4703 -0.3903
49443SOL     OW52885   7.227   8.288   2.445 -0.3150  0.0746 -0.2205
49443SOL    HW152886   7.298   8.351   2.442 -0.5117  0.2974 -0.2414
49443SOL    HW252887   7.207   8.270   2.353  0.8982 -1.3442 -0.2457
49444SOL     OW52888   0.354   5.377  11.859  0.1708 -0.4885 -0.4501
49444SOL    HW152889   0.288   5.444  11.840  0.9133 -0.1019 -1.7993
49444SOL    HW252890   0.363   5.379  11.954 -0.9396  0.2274 -0.3341
49445SOL     OW52891   7.754   5.712  11.415  0.1145 -0.0595 -0.6936
49445SOL    HW152892   7.823   5.665  11.369  0.3182 -1.0758  0.5997
49445SOL    HW252893   7.688   5.646  11.434  0.8710 -0.1207  2.0616
49446SOL     OW52894   0.090  10.635   6.179  0.5752 -0.3486  0.4522
49446SOL    HW152895   0.120  10.557   6.226 -0.8151 -1.3990 -0.3131
49446SOL    HW252896   0.096  10.706   6.243  1.3105 -1.2035  1.3522
49447SOL     OW52897   2.067  10.700   4.313  0.5112  0.5370  0.4006
49447SOL    HW152898   1.979  10.706   4.349  0.5980  1.0992  0.5329
49447SOL    HW252899   2.055  10.674   4.222  0.1714  1.2225  0.2419
49448SOL     OW52900   5.458   4.209   8.205 -0.1318  0.9618  0.0213
49448SOL    HW152901   5.407   4.285   8.176  0.3343  1.1972 -0.1889
49448SOL    HW252902   5.415   4.134   8.165  0.5397  1.2805 -1.3562
49449SOL     OW52903   2.864   9.897   5.605  0.5830  0.3061  0.0811
49449SOL    HW152904   2.909   9.889   5.521 -0.1130  0.7315 -0.3352
49449SOL    HW252905   2.772   9.884   5.585  0.3678  0.7984  0.7224
49450SOL     OW52906  10.289   3.869   8.452 -0.0162  0.2524  0.8661
49450SOL    HW152907  10.195   3.865   8.469 -0.4036  1.6472 -0.6937
49450SOL    HW252908  10.317   3.951   8.492  0.5249 -0.0986  1.2177
49451SOL     OW52909   8.503  11.820   2.020  0.2000 -0.0867  0.1441
49451SOL    HW152910   8.551  11.816   2.103  1.2141 -1.0485 -0.4521
49451SOL    HW252911   8.421  11.863   2.041  0.3708 -0.4753  1.6897
49452SOL     OW52912   5.380  11.581   6.073  1.0015  0.1889  0.1899
49452SOL    HW152913   5.352  11.497   6.038 -0.5012  0.6240  0.2438
49452SOL    HW252914   5.355  11.645   6.006  2.1619  0.5973  0.1309
49453SOL     OW52915   2.514   9.616   5.851  0.4231  0.3906  0.6017
49453SOL    HW152916   2.594   9.576   5.883 -0.2358 -1.2445  0.3031
49453SOL    HW252917   2.448   9.547   5.857 -0.2506  0.6907 -2.0837
49454SOL     OW52918   2.217   5.438  10.061  0.0678 -0.0767 -0.4538
49454SOL    HW152919   2.197   5.345  10.066  2.9913 -0.9824 -2.9870
49454SOL    HW252920   2.133   5.481  10.077 -1.5708 -3.1223 -0.1286
49455SOL     OW52921   2.258   1.240   9.030  0.0108 -0.0284  0.4453
49455SOL    HW152922   2.186   1.294   8.996  1.0076  0.9426 -0.2372
49455SOL    HW252923   2.335   1.274   8.984  0.7886 -1.5447  0.5946
49456SOL     OW52924   0.877   4.960   6.947 -0.4498 -0.3200 -0.0935
49456SOL    HW152925   0.894   5.005   6.865  0.5068 -1.1055 -0.3491
49456SOL    HW252926   0.852   5.029   7.008  0.3914  0.4720 -0.6245
49457SOL     OW52927   9.471  11.753   6.635  0.0329 -0.5065  0.6225
49457SOL    HW152928   9.406  11.820   6.655 -0.0313 -0.7232  1.1690
49457SOL    HW252929   9.528  11.751   6.713  2.2489  1.4493 -0.8173
49458SOL     OW52930  11.145   6.691   8.434 -0.7905 -0.2489  0.6862
49458SOL    HW152931  11.060   6.732   8.441 -0.5417  0.1312  1.5545
49458SOL    HW252932  11.128   6.597   8.447 -1.0379 -0.1401  1.1660
49459SOL     OW52933   5.828   5.383   7.112  0.0886  0.1550 -0.9935
49459SOL    HW152934   5.884   5.422   7.180 -1.0475 -1.9608  1.3380
49459SOL    HW252935   5.751   5.440   7.110  0.4284  0.6226 -1.0238
49460SOL     OW52936   2.094  11.193  11.759  0.5902 -0.1441 -0.2354
49460SOL    HW152937   2.095  11.221  11.668 -0.2905 -0.2524 -0.2892
49460SOL    HW252938   2.181  11.215  11.793  1.1412 -0.6872 -1.2710
49461SOL     OW52939  10.546   7.735   2.682 -0.2203  0.3765 -0.0217
49461SOL    HW152940  10.464   7.763   2.722 -0.3324  1.1516 -0.7783
49461SOL    HW252941  10.521   7.668   2.619 -0.2119  0.2344  0.1258
49462SOL     OW52942   4.409   4.081   7.809  0.1130  0.0191  0.1135
49462SOL    HW152943   4.350   4.156   7.820  0.9801  0.5950  1.0713
49462SOL    HW252944   4.401   4.057   7.717  1.0658  2.3848 -0.6482
49463SOL     OW52945   2.628   3.006  12.077  0.2035  0.0145 -0.3112
49463SOL    HW152946   2.674   3.035  11.998  0.5097  1.6915  0.4236
49463SOL    HW252947   2.601   3.088  12.120  0.0658 -0.8439  1.3180
49464SOL     OW52948   7.607   2.479   2.703 -0.0579  0.0249  0.1667
49464SOL    HW152949   7.689   2.457   2.658  0.0222 -1.6535  1.0546
49464SOL    HW252950   7.553   2.520   2.636  1.6818  1.7334 -0.3116
49465SOL     OW52951   4.723   3.118  11.638 -0.9484 -0.1961 -0.1892
49465SOL    HW152952   4.767   3.130  11.554  0.9866 -1.2082  0.6187
49465SOL    HW252953   4.694   3.027  11.637  0.1632 -0.5823  0.6821
49466SOL     OW52954   2.454   6.400  10.196  0.6155  0.1161 -0.1284
49466SOL    HW152955   2.447   6.346  10.275 -0.1464  0.8655  0.3279
49466SOL    HW252956   2.513   6.351  10.139  0.8594 -0.6311  0.7438
49467SOL     OW52957   2.208   9.204   6.716  0.0715 -0.2098 -0.4723
49467SOL    HW152958   2.117   9.215   6.745  0.6926 -0.4929  1.7432
49467SOL    HW252959   2.210   9.245   6.629 -2.1996 -0.3711 -0.6714
49468SOL     OW52960   8.916   4.794   1.030  0.3348  0.7055  0.8275
49468SOL    HW152961   8.846   4.849   1.064  2.1524  2.8904  1.2559
49468SOL    HW252962   8.929   4.823   0.940  0.0142 -0.4342  0.3919
49469SOL     OW52963   9.320   2.061   5.707  0.2556 -0.0374  0.3966
49469SOL    HW152964   9.268   2.132   5.744 -1.0417 -1.4986  1.5146
49469SOL    HW252965   9.388   2.105   5.656 -1.8659  1.9613 -0.8782
49470SOL     OW52966  11.142   0.831  11.189  0.3316  0.2426  0.1851
49470SOL    HW152967  11.086   0.824  11.112  1.3096 -1.5950 -0.4202
49470SOL    HW252968  11.128   0.920  11.221 -0.7606  0.7532 -1.5936
49471SOL     OW52969   4.229   8.944  11.831  0.6592  0.1926  0.0364
49471SOL    HW152970   4.214   8.972  11.922  0.2281  0.3585 -0.0799
49471SOL    HW252971   4.310   8.894  11.834  0.8307  0.4881  0.4555
49472SOL     OW52972   4.484   1.923   7.304  0.1520  0.2077 -0.0228
49472SOL    HW152973   4.419   1.853   7.295  1.4852 -0.9544 -1.1091
49472SOL    HW252974   4.440   1.991   7.355 -2.1281 -0.2725 -1.2186
49473SOL     OW52975   3.926   0.226  11.720 -0.4754  0.2748  0.1596
49473SOL    HW152976   3.982   0.245  11.795 -0.5292 -0.0097  0.2759
49473SOL    HW252977   3.987   0.210  11.648 -0.4123  0.1860  0.2319
49474SOL     OW52978   0.068  10.789  11.849  0.1059 -0.4479 -0.1496
49474SOL    HW152979   0.051  10.879  11.877  2.0395  0.3513 -1.3013
49474SOL    HW252980   0.163  10.779  11.859 -0.1971 -2.7652  0.9791
49475SOL     OW52981   0.669  10.443   7.020  0.0988 -0.3157  0.0826
49475SOL    HW152982   0.674  10.498   7.098  1.7799 -2.4987  1.6266
49475SOL    HW252983   0.585  10.398   7.028  0.7181 -1.3429  1.3113
49476SOL     OW52984   2.946   2.008   8.042 -0.4745 -0.4749 -0.3026
49476SOL    HW152985   2.896   1.968   8.114 -0.5497 -0.1396 -0.1662
49476SOL    HW252986   2.889   2.077   8.009 -0.1564 -0.1717 -0.2276
49477SOL     OW52987  11.721   4.583   6.317 -0.1313 -0.1988 -0.0660
49477SOL    HW152988  11.628   4.589   6.341  0.1772  3.7610  0.8617
49477SOL    HW252989  11.766   4.569   6.400  0.2183 -0.9676 -0.3720
49478SOL     OW52990   1.927  11.012  11.915  0.0928 -0.2458 -0.5129
49478SOL    HW152991   1.963  11.016  12.003 -1.1691 -1.2823  0.0842
49478SOL    HW252992   1.970  11.084  11.868  2.3372 -0.9428  0.3365
49479SOL     OW52993   2.938   0.053   1.642  0.2440  0.0698  0.3666
49479SOL    HW152994   2.938   0.140   1.602  0.2569 -0.5443 -1.0431
49479SOL    HW252995   3.028   0.023   1.632  0.1641 -0.2294  0.5425
49480SOL     OW52996  11.397  10.602   6.682  0.1914  0.5744 -0.1254
49480SOL    HW152997  11.467  10.579   6.621 -0.2303 -1.3109  0.0189
49480SOL    HW252998  11.391  10.527   6.741 -0.2878  1.7856  1.4353
49481SOL     OW52999   8.266   2.612   7.700 -0.3227 -0.0561  0.0667
49481SOL    HW153000   8.281   2.695   7.744  0.0027 -0.5959  1.0073
49481SOL    HW253001   8.293   2.546   7.763 -0.3445 -0.8762 -0.7533
49482SOL     OW53002   1.066   9.936   2.874  0.2089  0.8669 -0.3527
49482SOL    HW153003   1.006   9.862   2.873 -1.7011  2.3664 -0.4588
49482SOL    HW253004   1.127   9.916   2.946 -0.5685 -0.5442 -0.0603
49483SOL     OW53005  10.359   2.834   1.889 -0.1601 -0.1941 -0.4175
49483SOL    HW153006  10.439   2.781   1.884  0.3692  0.7036 -3.6207
49483SOL    HW253007  10.288   2.770   1.876  0.1579 -0.7077  0.3055
49484SOL     OW53008   6.687   8.689   4.619 -0.4377 -0.7586 -0.1356
49484SOL    HW153009   6.693   8.664   4.711  1.4982 -1.6627 -0.4672
49484SOL    HW253010   6.597   8.720   4.609 -0.1801  1.1489  2.4679
49485SOL     OW53011   5.871   2.648   7.300 -0.0355 -0.0545 -0.0661
49485SOL    HW153012   5.908   2.645   7.388  0.2968 -1.6864 -0.2233
49485SOL    HW253013   5.788   2.695   7.310 -0.2084 -0.5893  1.2020
49486SOL     OW53014  11.653   0.175   7.213 -0.5475 -0.2826  0.5146
49486SOL    HW153015  11.650   0.138   7.125 -1.6534  0.9994 -0.0210
49486SOL    HW253016  11.720   0.123   7.258 -0.1201 -1.1170 -0.9931
49487SOL     OW53017  11.131   8.875  11.107  0.7656 -0.4867  0.6052
49487SOL    HW153018  11.215   8.852  11.067  0.7198 -1.3546  0.9848
49487SOL    HW253019  11.146   8.867  11.201  0.2000 -0.8797  0.6681
49488SOL     OW53020   8.620   0.290   9.483 -0.3631 -0.1665 -0.0395
49488SOL    HW153021   8.684   0.226   9.516 -1.0413 -0.9132 -0.1255
49488SOL    HW253022   8.546   0.236   9.454 -0.8042  0.6481 -0.4482
49489SOL     OW53023   6.076   9.249   7.126  0.0353 -0.0588 -0.1092
49489SOL    HW153024   6.013   9.190   7.168  2.6914 -2.5572  0.7349
49489SOL    HW253025   6.105   9.200   7.049 -0.3951  1.8782 -1.5576
49490SOL     OW53026  10.122   9.926   9.252  0.3382  0.2696  0.1612
49490SOL    HW153027  10.159   9.841   9.228  2.1306  0.7122  1.1797
49490SOL    HW253028  10.090   9.913   9.342 -0.1452  0.4508  0.0165
49491SOL     OW53029  10.781   0.887  10.632 -0.2996  0.3039  0.2176
49491SOL    HW153030  10.701   0.878  10.684 -0.9271  2.3190 -0.3184
49491SOL    HW253031  10.752   0.872  10.541  0.3069 -0.7212  0.1753
49492SOL     OW53032   3.976   3.183   6.785  0.4012 -0.2644  0.2081
49492SOL    HW153033   3.888   3.220   6.796  0.8040  1.5020 -1.6786
49492SOL    HW253034   3.967   3.121   6.713  0.6505 -0.1495  0.0734
49493SOL     OW53035   5.922   9.566   6.799 -0.1254  0.7772  0.3006
49493SOL    HW153036   5.885   9.477   6.800  0.2467  0.6023 -0.8096
49493SOL    HW253037   6.008   9.556   6.759 -0.2715  1.7118 -0.2782
49494SOL     OW53038  10.608   7.865  11.554  0.0930  0.3515  0.4616
49494SOL    HW153039  10.557   7.811  11.494  1.3689 -0.9136  0.4679
49494SOL    HW253040  10.565   7.951  11.552 -1.0335 -0.2146 -0.7586
49495SOL     OW53041   5.667   3.351   8.646 -0.2737  0.4769 -0.2682
49495SOL    HW153042   5.754   3.316   8.664 -0.7695 -0.0526  1.2818
49495SOL    HW253043   5.626   3.358   8.733 -1.8499  0.4979 -0.9891
49496SOL     OW53044   6.992   8.084   2.062  0.5164  0.3330 -0.2541
49496SOL    HW153045   7.010   8.147   2.132  1.0965 -0.1594  0.0487
49496SOL    HW253046   7.077   8.041   2.046  0.7052  1.3174 -2.1354
49497SOL     OW53047   9.643   1.413   8.079 -0.4241  0.1037  0.1709
49497SOL    HW153048   9.633   1.356   8.155  0.1685  0.1086  0.2509
49497SOL    HW253049   9.674   1.497   8.115 -0.4474  0.2039 -0.0403
49498SOL     OW53050   9.391   7.206  10.431 -0.7555 -0.0247 -0.3795
49498SOL    HW153051   9.412   7.133  10.374 -1.2258 -0.7063  0.3071
49498SOL    HW253052   9.318   7.175  10.485 -0.9816  0.9571 -0.1004
49499SOL     OW53053   3.654   7.081   6.501 -0.1416 -0.0273 -0.3225
49499SOL    HW153054   3.572   7.113   6.462 -0.8147 -2.1558 -0.7549
49499SOL    HW253055   3.632   7.066   6.593 -0.5629 -1.5258 -0.6430
49500SOL     OW53056   2.035   7.389  10.470 -0.0919 -0.5070 -0.9946
49500SOL    HW153057   2.059   7.349  10.387  1.0916 -0.5865 -0.6435
49500SOL    HW253058   2.046   7.483  10.456 -0.6269 -0.4625 -1.1407
49501SOL     OW53059   0.050   9.129   4.576  0.5608  0.6825  0.0880
49501SOL    HW153060   0.050   9.034   4.590  0.7682  0.5481 -0.7365
49501SOL    HW253061  -0.038   9.148   4.543  0.5792  0.7442  0.0756
49502SOL     OW53062   1.504   6.763   4.124  0.1341 -0.3741  0.1844
49502SOL    HW153063   1.447   6.829   4.085  0.7038 -0.4166 -0.7385
49502SOL    HW253064   1.500   6.689   4.064 -0.0664 -0.9864  0.9314
49503SOL     OW53065   3.850   6.990   2.056  0.3025  0.4164 -0.1825
49503SOL    HW153066   3.808   6.999   2.142 -0.0752 -2.9027  0.1194
49503SOL    HW253067   3.938   6.956   2.076  0.5717  0.5550 -1.0794
49504SOL     OW53068   1.940   6.842   2.554 -0.2323 -0.4046  0.2609
49504SOL    HW153069   1.943   6.813   2.463  0.7208  0.4806 -0.0105
49504SOL    HW253070   1.924   6.763   2.605 -0.2894 -0.9756 -0.6386
49505SOL     OW53071   1.126   9.083   9.916 -0.1214  0.8115 -0.2798
49505SOL    HW153072   1.040   9.081   9.958 -0.5168 -0.1674 -1.1064
49505SOL    HW253073   1.130   9.170   9.875 -0.5638  1.0011  0.0694
49506SOL     OW53074   0.422   1.581   8.795  0.0281  0.3284  0.5879
49506SOL    HW153075   0.403   1.496   8.754  0.2880  1.3698 -1.9017
49506SOL    HW253076   0.359   1.588   8.867  0.2524 -2.1058  1.1111
49507SOL     OW53077   7.283   4.167   0.865  0.0678  0.4029  0.0121
49507SOL    HW153078   7.272   4.240   0.805 -0.1914  0.9871  0.7600
49507SOL    HW253079   7.225   4.186   0.938  1.6339  0.5889  1.2837
49508SOL     OW53080  10.868  10.725   0.972 -0.3766  0.0887  0.0825
49508SOL    HW153081  10.898  10.634   0.970 -0.4343  0.0747 -0.9407
49508SOL    HW253082  10.833  10.740   0.884 -0.1188  1.1844  0.1536
49509SOL     OW53083  10.637  10.479  10.844 -0.2688  0.1428 -0.1475
49509SOL    HW153084  10.578  10.553  10.831  0.1216  0.7463  1.3534
49509SOL    HW253085  10.725  10.517  10.844  0.0062 -0.4730 -0.4269
49510SOL     OW53086  10.660   2.369  12.011  0.4481 -0.0616 -0.3688
49510SOL    HW153087  10.691   2.456  11.987  0.4404  0.1388  0.3113
49510SOL    HW253088  10.565   2.372  11.994  0.3824  0.2002  0.0293
49511SOL     OW53089   3.211   3.069   2.282  0.0916  0.6008 -0.4092
49511SOL    HW153090   3.201   3.163   2.292  0.9882  0.7553 -0.9029
49511SOL    HW253091   3.238   3.039   2.369 -0.3847  0.7644 -0.2006
49512SOL     OW53092  10.644   2.129   3.528  0.1436  0.0498  0.4535
49512SOL    HW153093  10.689   2.207   3.558  0.3086 -0.0319  0.4208
49512SOL    HW253094  10.631   2.143   3.434 -0.6521  0.4435  0.6128
49513SOL     OW53095   5.185  10.682  10.705 -0.4529  0.0931 -0.5894
49513SOL    HW153096   5.147  10.596  10.723 -2.0813  0.5783 -1.4898
49513SOL    HW253097   5.214  10.677  10.614 -0.5865  0.5015 -0.6551
49514SOL     OW53098   2.551   9.275   9.866 -0.3481 -0.3131 -0.2998
49514SOL    HW153099   2.644   9.276   9.889 -0.5360  1.1636  0.5670
49514SOL    HW253100   2.514   9.204   9.918  0.2778 -0.8312 -0.5590
49515SOL     OW53101   1.004  11.505   3.154 -0.3607  0.6856  0.1687
49515SOL    HW153102   1.064  11.439   3.186 -0.7288 -0.3785 -1.2401
49515SOL    HW253103   0.929  11.500   3.213  0.6114  1.5810  1.5440
49516SOL     OW53104   7.604   9.409  10.153 -0.0541  0.1437  0.2071
49516SOL    HW153105   7.536   9.390  10.088  0.0174  0.7830 -0.0623
49516SOL    HW253106   7.626   9.324  10.190  0.1497 -0.2859 -0.8526
49517SOL     OW53107   7.430   5.865   0.371 -0.5147 -0.1158  0.1981
49517SOL    HW153108   7.369   5.937   0.355 -0.9500 -0.5188  0.0127
49517SOL    HW253109   7.375   5.794   0.405 -0.7081 -1.5366 -2.7751
49518SOL     OW53110   2.086   1.486  10.177 -0.4786 -0.3113  0.3123
49518SOL    HW153111   2.013   1.477  10.116 -1.3953  0.1140  1.3034
49518SOL    HW253112   2.066   1.566  10.226  0.7106 -0.1344  0.5392
49519SOL     OW53113  10.678   5.989   5.629 -0.3856  1.0733 -0.1872
49519SOL    HW153114  10.738   5.977   5.703 -2.8168 -0.6512  1.6518
49519SOL    HW253115  10.644   6.078   5.639 -2.1045  0.2432  1.9921
49520SOL     OW53116   3.885   1.053  10.204 -0.1896  0.6557  0.3924
49520SOL    HW153117   3.885   1.118  10.275 -1.4484 -0.7280  1.7421
49520SOL    HW253118   3.832   0.981  10.238  2.3324 -1.7619 -0.4394
49521SOL     OW53119   5.959   5.665   4.744  0.0447  0.0310 -0.4820
49521SOL    HW153120   6.015   5.590   4.722 -1.3002 -1.8334  1.9988
49521SOL    HW253121   6.020   5.732   4.774  1.2836  0.0579 -2.8003
49522SOL     OW53122   5.859   9.061   9.836  0.3650  0.1640  0.1218
49522SOL    HW153123   5.770   9.055   9.870  0.2947  1.0468  0.1200
49522SOL    HW253124   5.907   9.113   9.901 -0.1047  3.0846 -1.6494
49523SOL     OW53125   6.235   3.445   3.246  0.0147  0.2574  0.0880
49523SOL    HW153126   6.293   3.377   3.281  1.0492  2.0603  2.1863
49523SOL    HW253127   6.231   3.427   3.152 -2.1639 -4.3672  0.8065
49524SOL     OW53128   8.640   7.918  11.096 -0.6018  0.0150  0.1485
49524SOL    HW153129   8.709   7.852  11.091  0.5898  1.2339 -0.0597
49524SOL    HW253130   8.559   7.870  11.080  0.1148 -1.5640  1.0537
49525SOL     OW53131   5.380   7.144   6.682  0.2903  0.0682 -0.3545
49525SOL    HW153132   5.405   7.155   6.591  0.1623 -2.3562 -0.7391
49525SOL    HW253133   5.294   7.102   6.679  1.2373 -2.1362  0.7881
49526SOL     OW53134   3.817   0.482   5.231  0.1317 -0.0454  0.0341
49526SOL    HW153135   3.735   0.437   5.211  0.4358 -0.3157 -0.6641
49526SOL    HW253136   3.884   0.429   5.189  0.5969  0.5420  0.0148
49527SOL     OW53137   1.463   4.063   2.022 -0.4170 -0.4249 -0.3205
49527SOL    HW153138   1.395   4.066   1.954 -0.8610  3.0379  0.1365
49527SOL    HW253139   1.534   4.013   1.982 -2.1292 -1.7826 -1.8432
49528SOL     OW53140   0.615   5.822   6.152 -0.3238  0.2274 -0.6495
49528SOL    HW153141   0.655   5.737   6.170  0.5730  0.6685 -0.5079
49528SOL    HW253142   0.559   5.806   6.076  0.1827 -0.3967 -0.9044
49529SOL     OW53143   8.774  10.440   6.948  0.5619 -0.6956 -0.1877
49529SOL    HW153144   8.814  10.406   7.028  0.8393 -0.4986 -0.2408
49529SOL    HW253145   8.837  10.505   6.915 -0.0631  0.0429  0.0369
49530SOL     OW53146   2.016   1.560  11.799 -0.4340  0.3765 -0.0144
49530SOL    HW153147   2.064   1.478  11.799 -0.1215  0.5577 -0.1597
49530SOL    HW253148   1.952   1.550  11.870 -0.3605  0.0332  0.0067
49531SOL     OW53149   8.637   3.558   4.408  0.6440  0.4422 -0.5597
49531SOL    HW153150   8.673   3.642   4.435  1.5349  0.3486 -1.4026
49531SOL    HW253151   8.649   3.555   4.314  1.3063 -0.9336 -0.4659
49532SOL     OW53152  11.576   6.969   6.073  0.2716  0.6742 -0.3964
49532SOL    HW153153  11.596   6.954   5.981 -0.4843  0.0365 -0.4638
49532SOL    HW253154  11.644   6.921   6.121  0.6237  0.9504 -0.6087
49533SOL     OW53155   2.495   1.523   5.612 -0.1898 -0.2583  0.4840
49533SOL    HW153156   2.586   1.501   5.592 -0.3952 -0.6683 -0.0364
49533SOL    HW253157   2.473   1.592   5.549  0.0672  0.5693  1.2836
49534SOL     OW53158   9.940   2.704   6.744 -0.2618  0.1500 -0.2728
49534SOL    HW153159   9.857   2.719   6.699  0.0501 -0.9145 -1.2420
49534SOL    HW253160   9.954   2.609   6.738 -0.5588 -0.1830  2.7114
49535SOL     OW53161   0.696  11.999   5.390 -0.4659 -0.2214  0.7879
49535SOL    HW153162   0.770  11.950   5.354 -0.8252 -0.5500  0.4858
49535SOL    HW253163   0.621  11.939   5.383 -0.5228 -0.3687  2.2537
49536SOL     OW53164   4.854   5.967   6.192 -0.2094 -0.2757 -0.3044
49536SOL    HW153165   4.848   6.057   6.157  1.5425 -0.4467 -1.1402
49536SOL    HW253166   4.796   5.916   6.135 -1.2509  0.3157  0.2024
49537SOL     OW53167   9.418   9.752   4.111 -0.0578  0.4321  0.4642
49537SOL    HW153168   9.391   9.804   4.035 -0.0917 -3.0180 -2.1343
49537SOL    HW253169   9.346   9.691   4.125  1.0825 -0.7156  1.5657
49538SOL     OW53170   5.494   4.547   9.147  0.4114  0.4102  0.2941
49538SOL    HW153171   5.468   4.463   9.184  1.9808  0.0586  0.6745
49538SOL    HW253172   5.520   4.526   9.057 -0.8033  0.7997 -0.1689
49539SOL     OW53173   4.272   3.815   0.015  0.3751 -0.5559 -0.2249
49539SOL    HW153174   4.263   3.720   0.029  1.0823 -0.8008 -1.3400
49539SOL    HW253175   4.329   3.844   0.086  0.8981 -1.1246 -0.4113
49540SOL     OW53176   3.269   4.175   6.008  0.0192  0.0745 -0.4645
49540SOL    HW153177   3.254   4.113   6.079 -0.0098  0.2701 -0.2989
49540SOL    HW253178   3.308   4.252   6.051 -0.8252  0.5467 -0.5251
49541SOL     OW53179   4.590   6.242  10.499 -0.7424  0.5873 -0.2849
49541SOL    HW153180   4.591   6.332  10.532  0.0973  0.5460 -0.1963
49541SOL    HW253181   4.499   6.213  10.512 -0.9606  1.3421 -0.1051
49542SOL     OW53182  11.906   7.046   1.864  0.5807  0.2074  0.1635
49542SOL    HW153183  11.884   7.113   1.799 -2.0480 -0.0191  0.7260
49542SOL    HW253184  11.945   6.975   1.814  1.7951  1.3938 -0.6647
49543SOL     OW53185   9.563   8.898   6.693  0.6091 -0.5665  0.0891
49543SOL    HW153186   9.582   8.919   6.785  1.5095 -2.1247  0.2923
49543SOL    HW253187   9.647   8.902   6.649 -0.0545  2.0021 -1.1369
49544SOL     OW53188   4.523   8.137   1.984 -0.0014 -0.6810  0.3964
49544SOL    HW153189   4.469   8.208   2.017  1.2338  0.2522  0.4889
49544SOL    HW253190   4.610   8.177   1.971  0.7275 -2.1676  0.4754
49545SOL     OW53191  11.459   0.686  10.945 -0.1483  0.5316  0.5230
49545SOL    HW153192  11.488   0.777  10.933 -0.0125  0.4332  0.0637
49545SOL    HW253193  11.442   0.678  11.038 -0.1712  1.0343  0.5647
49546SOL     OW53194   4.801   8.614  11.443  0.0879 -0.4751  0.4767
49546SOL    HW153195   4.827   8.696  11.484 -2.3374  0.8425 -0.3613
49546SOL    HW253196   4.771   8.560  11.515  0.0627  0.0710  0.8865
49547SOL     OW53197   2.311   1.925   0.257  0.3162 -0.3691 -0.2488
49547SOL    HW153198   2.333   1.938   0.350  1.2295  1.2286 -0.6513
49547SOL    HW253199   2.302   1.830   0.248  2.9277 -0.8264  0.9089
49548SOL     OW53200   5.778   2.868   1.466  0.4426 -0.0492  0.0386
49548SOL    HW153201   5.857   2.883   1.415  0.3501 -0.2160 -0.1532
49548SOL    HW253202   5.724   2.946   1.451 -0.9309 -1.3958 -2.5853
49549SOL     OW53203   8.953   3.012   8.442 -0.4382  0.2168  0.4404
49549SOL    HW153204   8.882   3.062   8.483  0.3652  0.4775  1.5466
49549SOL    HW253205   8.942   2.923   8.476 -1.2659 -0.1548 -0.7499
49550SOL     OW53206   9.460  10.155  11.354  0.0938 -0.1864 -0.3075
49550SOL    HW153207   9.481  10.164  11.261  0.1090  1.8035 -0.1370
49550SOL    HW253208   9.545  10.143  11.397  0.5370  2.8472 -0.1675
49551SOL     OW53209   9.422   2.500   7.480  0.1153  0.1012 -0.3922
49551SOL    HW153210   9.480   2.431   7.448  1.0826  1.4217 -1.6208
49551SOL    HW253211   9.384   2.538   7.401 -0.1982  1.1445  0.2366
49552SOL     OW53212   9.255   1.068  12.084  0.1576  0.0295 -0.1397
49552SOL    HW153213   9.202   1.148  12.085  2.8931  1.9804 -0.6250
49552SOL    HW253214   9.239   1.030  11.997  0.7002  1.4437 -0.8908
49553SOL     OW53215  10.600  11.951   0.116 -0.3053  0.1957  0.0929
49553SOL    HW153216  10.505  11.949   0.114 -0.3324  0.2051  0.8792
49553SOL    HW253217  10.622  12.015   0.184  0.2261 -1.2196  1.3085
49554SOL     OW53218   1.041   4.607   5.868 -0.0802  0.3904  1.3987
49554SOL    HW153219   1.092   4.584   5.946  0.9578  3.4936  1.7690
49554SOL    HW253220   1.060   4.699   5.853 -0.9766  0.1576 -2.0395
49555SOL     OW53221   3.016   7.731   9.401  0.0542 -0.1828 -0.8950
49555SOL    HW153222   3.060   7.691   9.326  0.2094  2.2709 -2.2414
49555SOL    HW253223   3.073   7.804   9.426 -0.2712 -0.6204  1.3021
49556SOL     OW53224   5.415   8.419  11.847 -0.2412 -0.1855  0.6986
49556SOL    HW153225   5.480   8.452  11.909  0.3795 -0.1366  0.0391
49556SOL    HW253226   5.463   8.354  11.795 -1.2243 -1.5865  1.4578
49557SOL     OW53227   3.072   8.177   1.266  0.0788  1.0133 -0.2925
49557SOL    HW153228   3.167   8.184   1.252 -0.0932  0.7140 -1.8333
49557SOL    HW253229   3.038   8.263   1.241 -0.1047  0.9543 -0.2417
49558SOL     OW53230   9.020   4.076   6.805 -0.0587  0.0668  0.2238
49558SOL    HW153231   9.094   4.019   6.786  0.3725  0.8055 -0.4082
49558SOL    HW253232   8.987   4.101   6.719 -2.5722 -2.1096  0.4319
49559SOL     OW53233   3.924   5.710   2.851  0.3905 -0.0674  0.6762
49559SOL    HW153234   3.983   5.772   2.808 -0.3208 -0.7612 -1.4176
49559SOL    HW253235   3.842   5.758   2.862  0.5695  0.1076  1.3081
49560SOL     OW53236   7.664   2.625   4.800 -0.2830  0.2731 -0.1301
49560SOL    HW153237   7.620   2.591   4.723 -0.2682 -1.4160  0.5729
49560SOL    HW253238   7.689   2.714   4.776 -2.9750  0.8878 -0.9791
49561SOL     OW53239   4.758   3.571  11.738  1.1922  0.4645  0.4626
49561SOL    HW153240   4.835   3.623  11.760  0.4191  1.4803  0.8665
49561SOL    HW253241   4.742   3.517  11.815  2.6561 -1.2629 -0.3729
49562SOL     OW53242   7.841   1.984  10.926  0.3314 -0.0829  0.3087
49562SOL    HW153243   7.761   1.969  10.976 -0.3249  0.6936 -0.4723
49562SOL    HW253244   7.833   1.928  10.849  0.4031  0.2184  0.0799
49563SOL     OW53245   5.473   1.685   9.318 -0.0547  0.1148  0.0409
49563SOL    HW153246   5.534   1.707   9.248  0.7118 -1.5804  0.1335
49563SOL    HW253247   5.386   1.702   9.281  0.3866  0.4032 -0.8828
49564SOL     OW53248   9.293  11.832   1.182 -0.0622 -0.0886  0.4647
49564SOL    HW153249   9.333  11.816   1.096 -2.2374  0.1508 -0.6805
49564SOL    HW253250   9.338  11.772   1.241  1.3480 -0.4366 -0.8914
49565SOL     OW53251   9.499  10.554   9.495 -0.1143 -0.2374 -0.0901
49565SOL    HW153252   9.524  10.645   9.509 -0.0521 -0.0232 -1.4925
49565SOL    HW253253   9.567  10.518   9.438 -0.6035 -0.9180 -0.2583
49566SOL     OW53254   5.567   5.373   2.626 -0.0871 -0.3076  1.0933
49566SOL    HW153255   5.556   5.458   2.582 -0.5853 -0.3245  1.1901
49566SOL    HW253256   5.488   5.362   2.679 -1.0467 -1.8139 -0.5486
49567SOL     OW53257  10.760   2.357   3.874  0.1243  0.1763  0.1154
49567SOL    HW153258  10.762   2.435   3.929 -0.5069 -0.6148  1.3027
49567SOL    HW253259  10.687   2.305   3.907  1.0948 -1.3561 -0.0185
49568SOL     OW53260   2.540   4.487   3.830  0.2586  0.3151 -0.0963
49568SOL    HW153261   2.546   4.427   3.905 -0.8916 -0.4576 -0.5854
49568SOL    HW253262   2.460   4.536   3.845  0.5540  0.8793 -0.3258
49569SOL     OW53263   0.797   0.558   3.019  0.4924 -0.5321 -0.4318
49569SOL    HW153264   0.793   0.653   3.014 -0.2327 -0.5691 -0.7446
49569SOL    HW253265   0.857   0.533   2.949  0.1846 -0.3334 -0.7709
49570SOL     OW53266   8.331  11.317  10.193  0.0135 -0.0606 -0.4040
49570SOL    HW153267   8.388  11.291  10.120  0.6895  2.6078 -0.9295
49570SOL    HW253268   8.371  11.397  10.226 -2.5232  0.9850  0.3141
49571SOL     OW53269   4.477  10.335   0.229 -0.2478  0.7199 -0.0225
49571SOL    HW153270   4.410  10.276   0.194  0.6115 -0.3831  0.1568
49571SOL    HW253271   4.438  10.370   0.309 -0.0567 -1.1107  0.9194
49572SOL     OW53272   2.504   2.097  10.064  0.4048 -0.0561 -0.6107
49572SOL    HW153273   2.430   2.078  10.122  2.4714  1.7245  2.9735
49572SOL    HW253274   2.541   2.011  10.043 -0.0076 -0.7807  1.4255
49573SOL     OW53275   4.840  10.027   9.058  0.1626 -0.4814  0.5476
49573SOL    HW153276   4.906  10.018   9.128  0.2041 -1.9989  0.3646
49573SOL    HW253277   4.762   9.983   9.094 -1.1177  2.0467  1.1206
49574SOL     OW53278   6.408   9.894   7.708  0.5070  0.2233  0.5311
49574SOL    HW153279   6.394   9.986   7.682  1.0385  0.2510  0.3325
49574SOL    HW253280   6.320   9.860   7.722  0.3058  0.8010  0.7310
49575SOL     OW53281   3.349   5.648  11.373  0.3441  0.1047  0.1909
49575SOL    HW153282   3.283   5.600  11.323  0.7457  0.0277 -0.2717
49575SOL    HW253283   3.338   5.739  11.346  1.6212 -0.1365 -1.2853
49576SOL     OW53284   8.551   6.163   0.491 -0.0674  0.1388  0.1546
49576SOL    HW153285   8.599   6.081   0.502 -2.1028 -0.9581  1.6854
49576SOL    HW253286   8.615   6.232   0.509  1.4305 -1.1324 -0.1112
49577SOL     OW53287  11.600   8.279   0.143 -0.5938 -0.4251 -0.1274
49577SOL    HW153288  11.618   8.331   0.222  1.9825  0.5092 -1.2108
49577SOL    HW253289  11.515   8.310   0.112 -0.3304  1.2560  0.7253
49578SOL     OW53290   6.250   2.038   9.302  0.4413  0.2732 -0.1923
49578SOL    HW153291   6.319   2.073   9.246  0.3376  1.1788  0.2318
49578SOL    HW253292   6.296   1.989   9.370  0.5787 -0.5887 -0.8899
49579SOL     OW53293   1.328   6.832   0.691 -0.3189  0.6064 -0.4547
49579SOL    HW153294   1.303   6.924   0.695 -1.0728  0.4004 -0.3065
49579SOL    HW253295   1.367   6.821   0.604 -0.3173  1.0412 -0.5090
49580SOL     OW53296  10.995   0.517   8.850  0.3715 -0.5133 -0.0649
49580SOL    HW153297  10.963   0.435   8.888  0.2753 -0.3792  0.1430
49580SOL    HW253298  10.983   0.582   8.919  1.0400 -0.4485 -0.0043
49581SOL     OW53299   4.264   4.737   7.723 -0.3056 -0.4246 -0.8160
49581SOL    HW153300   4.359   4.744   7.730 -0.4068  1.9106 -1.0361
49581SOL    HW253301   4.239   4.676   7.793  1.1674  0.6971  0.7522
49582SOL     OW53302   9.432   0.297   6.239  0.0159 -0.1915 -0.2059
49582SOL    HW153303   9.365   0.263   6.297 -0.3279  1.3257  0.3254
49582SOL    HW253304   9.515   0.277   6.283 -0.2695  2.0028  1.4830
49583SOL     OW53305   9.003   5.565   5.903 -0.1300 -0.0092 -0.0157
49583SOL    HW153306   9.089   5.542   5.867 -0.6705 -0.6924 -0.8999
49583SOL    HW253307   8.996   5.660   5.889  0.9777  0.2753  1.1829
49584SOL     OW53308   4.884   8.207   7.360  0.4978 -0.8652 -0.9154
49584SOL    HW153309   4.918   8.176   7.276  2.5646  1.8076 -1.1738
49584SOL    HW253310   4.947   8.175   7.425 -0.0291 -1.2582 -0.5816
49585SOL     OW53311   2.319   5.918   9.206  0.8363 -0.4233 -0.3199
49585SOL    HW153312   2.270   5.918   9.124  2.4932  0.8125 -1.3741
49585SOL    HW253313   2.255   5.944   9.272 -0.7518 -2.3497 -1.0235
49586SOL     OW53314   9.222  11.511  10.143  0.4820  0.4501 -0.1718
49586SOL    HW153315   9.172  11.458  10.081 -1.1508 -1.4620  2.5540
49586SOL    HW253316   9.222  11.599  10.105 -1.2423 -0.4057 -2.3892
49587SOL     OW53317   6.033   9.544   0.610 -0.1032  0.3712 -0.5115
49587SOL    HW153318   5.958   9.592   0.645  0.8974  1.0923  0.7263
49587SOL    HW253319   6.069   9.601   0.543  1.5478  1.8321  1.4835
49588SOL     OW53320  11.826   4.115   3.070  0.3818  0.2724  0.1258
49588SOL    HW153321  11.888   4.174   3.113  1.2097 -1.3338  1.2834
49588SOL    HW253322  11.752   4.111   3.130  0.6435 -0.3749  0.4237
49589SOL     OW53323   5.410   2.914   4.783 -0.2819 -0.3372  0.4569
49589SOL    HW153324   5.338   2.910   4.846 -1.0026  2.1997 -0.1077
49589SOL    HW253325   5.470   2.979   4.819  0.0487  0.0327 -0.7161
49590SOL     OW53326   4.364   2.423   2.225 -0.1460 -0.0731 -0.2467
49590SOL    HW153327   4.287   2.439   2.170  0.9832  0.6196 -1.7028
49590SOL    HW253328   4.434   2.471   2.182  0.7081  0.9499  2.1435
49591SOL     OW53329   6.819   5.467  10.811  0.2739  0.3201  0.0656
49591SOL    HW153330   6.792   5.557  10.794 -2.0119 -0.4578 -0.9148
49591SOL    HW253331   6.740   5.415  10.794  1.5580 -1.8849  0.4444
49592SOL     OW53332   1.912  11.123   3.392  0.6661 -1.5413  0.0861
49592SOL    HW153333   1.885  11.096   3.480 -0.0576 -2.8031 -0.4857
49592SOL    HW253334   1.891  11.216   3.388 -2.0853 -2.0694  0.2856
49593SOL     OW53335   4.100   1.344   4.802 -0.2885 -0.1370 -0.0144
49593SOL    HW153336   4.090   1.306   4.890  2.5303 -0.2451  0.3659
49593SOL    HW253337   4.063   1.279   4.743 -0.3547 -1.0300  0.9783
49594SOL     OW53338   4.100   3.192  10.863 -0.4330 -0.0976  0.0528
49594SOL    HW153339   4.035   3.237  10.809  0.4867  0.1184 -0.8972
49594SOL    HW253340   4.082   3.223  10.952 -1.4658  0.1479 -0.2312
49595SOL     OW53341   9.406   7.243   5.398  0.5022 -0.1737 -0.4649
49595SOL    HW153342   9.341   7.304   5.363 -0.2367 -0.0058  1.1018
49595SOL    HW253343   9.444   7.201   5.320 -1.1125  0.0895 -1.4443
49596SOL     OW53344   9.964   6.646   6.366 -0.2475  0.0180 -0.1183
49596SOL    HW153345  10.025   6.573   6.351  2.4187  2.3108 -1.3521
49596SOL    HW253346   9.888   6.625   6.312  0.3592 -1.9181 -0.2999
49597SOL     OW53347   0.050  11.808   7.455  0.0097 -0.6111  0.2250
49597SOL    HW153348   0.053  11.806   7.359 -1.9075  0.5323  0.0972
49597SOL    HW253349   0.097  11.729   7.481 -0.2156 -1.4475 -1.6859
49598SOL     OW53350   7.690   3.215   7.667 -0.4907  0.2330  0.1671
49598SOL    HW153351   7.728   3.157   7.732 -1.4463 -0.0218  0.5214
49598SOL    HW253352   7.641   3.158   7.609 -1.2821  0.6496  0.4069
49599SOL     OW53353  10.936   0.710   4.311  0.0761 -0.4812  0.1079
49599SOL    HW153354  10.921   0.615   4.303  0.1861 -0.6613  1.7159
49599SOL    HW253355  10.851   0.745   4.338  0.1343 -0.1749 -0.1115
49600SOL     OW53356  10.294   5.675   4.771 -0.1186 -0.5397  0.0750
49600SOL    HW153357  10.354   5.602   4.779 -1.2780 -2.0440 -3.0941
49600SOL    HW253358  10.208   5.634   4.761 -1.1178  1.3683  0.3234
49601SOL     OW53359   1.805   3.658   6.278 -0.0164  0.1978  0.1672
49601SOL    HW153360   1.851   3.574   6.279 -1.0143 -0.3846  1.3916
49601SOL    HW253361   1.741   3.650   6.207  2.1499  1.2958 -2.0474
49602SOL     OW53362   0.463   4.566   1.068  0.3230 -0.5422 -0.6432
49602SOL    HW153363   0.559   4.569   1.064  0.4152 -0.0281  1.1577
49602SOL    HW253364   0.435   4.619   0.994  1.4648  0.5555 -0.3308
49603SOL     OW53365   8.835   9.063   5.343  0.5141 -0.0649 -0.4077
49603SOL    HW153366   8.900   9.130   5.362  1.0358 -0.2894 -1.3292
49603SOL    HW253367   8.751   9.109   5.349  0.7316  0.2056  0.8786
49604SOL     OW53368   7.278   3.356   3.804  0.1759  0.0319  0.1442
49604SOL    HW153369   7.267   3.287   3.738 -1.4232  0.1745  0.2133
49604SOL    HW253370   7.359   3.400   3.781 -0.1608 -0.1728 -1.5001
49605SOL     OW53371   1.183   0.584   2.244 -0.1099  0.2583 -0.3924
49605SOL    HW153372   1.242   0.516   2.276  0.6751  0.3338 -1.6114
49605SOL    HW253373   1.177   0.647   2.315 -0.5833 -0.8918  0.6371
49606SOL     OW53374  10.764   2.849   0.640 -0.0235  0.6141 -0.3214
49606SOL    HW153375  10.797   2.759   0.631  1.0504  0.9583 -0.0121
49606SOL    HW253376  10.772   2.887   0.553  0.9539  0.8643 -0.1357
49607SOL     OW53377   0.862   3.179   2.459 -0.4712 -0.7260  0.0597
49607SOL    HW153378   0.858   3.161   2.553  0.2396  0.5148  0.3595
49607SOL    HW253379   0.841   3.096   2.417  0.9176 -1.7623  1.3062
49608SOL     OW53380   2.116   6.713   8.111  0.2062  0.6608 -0.2532
49608SOL    HW153381   2.078   6.800   8.120 -0.6508  0.2240  0.6958
49608SOL    HW253382   2.205   6.728   8.081 -0.1228  1.8271 -0.7081
49609SOL     OW53383   1.797   3.351  10.268 -0.0496  0.1652 -0.1845
49609SOL    HW153384   1.763   3.263  10.284  0.7597 -0.2087 -0.4866
49609SOL    HW253385   1.882   3.337  10.227  0.3034  1.0887  0.2111
49610SOL     OW53386   7.376   9.924   8.302  0.8795 -0.0235 -0.1633
49610SOL    HW153387   7.447   9.987   8.289  2.4851 -1.7187 -0.0742
49610SOL    HW253388   7.413   9.858   8.360 -0.0957 -1.9719 -1.6414
49611SOL     OW53389   4.366  10.887   8.436  0.8295 -0.7841  0.4268
49611SOL    HW153390   4.304  10.853   8.372 -0.7720  3.1699 -0.3890
49611SOL    HW253391   4.440  10.918   8.385  0.5699  0.3095  0.6893
49612SOL     OW53392   9.776   9.221   5.722 -0.2117  0.2110  0.0350
49612SOL    HW153393   9.746   9.290   5.780 -0.6749  0.4207 -0.4397
49612SOL    HW253394   9.696   9.175   5.697  0.1919 -1.2760  1.2977
49613SOL     OW53395   5.654   8.790   9.157  0.3288  0.0051 -0.0350
49613SOL    HW153396   5.745   8.759   9.159 -0.3583 -2.2108 -0.1883
49613SOL    HW253397   5.656   8.873   9.205  2.3993 -0.0609  0.0890
49614SOL     OW53398  11.416   9.594   9.497  0.4028  0.4611  0.2930
49614SOL    HW153399  11.420   9.539   9.575  0.6615  0.1216  0.0409
49614SOL    HW253400  11.450   9.539   9.426 -0.1373  0.6495 -0.1250
49615SOL     OW53401   9.962   4.865   2.279  0.6064 -0.1835  0.3573
49615SOL    HW153402   9.943   4.958   2.269 -0.1938 -0.4489 -0.7105
49615SOL    HW253403   9.939   4.846   2.371  1.0105  0.7080  0.6513
49616SOL     OW53404  10.094   8.205   5.135  0.1476  0.1371 -0.4688
49616SOL    HW153405  10.153   8.251   5.074 -1.0342  0.3463 -1.4925
49616SOL    HW253406  10.022   8.267   5.149 -0.1587 -0.3733  0.2528
49617SOL     OW53407   4.988   6.700   2.565 -0.0090  0.6055 -0.5210
49617SOL    HW153408   4.972   6.671   2.475 -2.6473  0.7135 -0.1854
49617SOL    HW253409   4.906   6.681   2.611  0.1563  3.3439  1.1162
49618SOL     OW53410  11.926   2.349   2.131 -0.5732  0.6725  0.2858
49618SOL    HW153411  11.979   2.356   2.052 -1.5495  0.1899 -0.4313
49618SOL    HW253412  11.943   2.430   2.179 -0.5087  1.2898 -0.7594
49619SOL     OW53413   2.767   2.677   6.857 -0.3232  0.5607 -0.1939
49619SOL    HW153414   2.758   2.728   6.776 -0.8794  1.6456  0.5239
49619SOL    HW253415   2.685   2.692   6.904  0.4954  1.0273  1.1567
49620SOL     OW53416   1.580  11.625   5.240 -0.1410  0.0034  0.0428
49620SOL    HW153417   1.586  11.558   5.308  0.9621 -0.7256 -0.7427
49620SOL    HW253418   1.669  11.634   5.207 -0.6581  0.3208 -1.3248
49621SOL     OW53419   9.987   0.357   1.241 -0.6623 -0.0373  0.4053
49621SOL    HW153420  10.068   0.333   1.196 -1.3695 -1.1107 -0.3549
49621SOL    HW253421   9.985   0.453   1.238  0.9388  0.0418  1.1245
49622SOL     OW53422   4.012   7.006   6.146  0.2917 -0.1422 -0.0106
49622SOL    HW153423   3.949   6.945   6.184 -0.0268  1.6511  2.6345
49622SOL    HW253424   4.079   7.016   6.214  2.6459 -0.7289 -2.0761
49623SOL     OW53425   2.186   6.716   2.701  0.4971  0.0150  0.2906
49623SOL    HW153426   2.267   6.755   2.733  0.7048  0.6399 -0.9163
49623SOL    HW253427   2.199   6.622   2.710  1.5973  0.0799 -0.3905
49624SOL     OW53428  11.870   7.127  10.147 -0.0567  0.2085 -0.4429
49624SOL    HW153429  11.829   7.187  10.209 -0.5118 -1.1398  0.5896
49624SOL    HW253430  11.880   7.046  10.195 -1.9699 -1.4391 -2.5863
49625SOL     OW53431  11.643   5.167  10.462 -0.0202  0.6761  0.4294
49625SOL    HW153432  11.680   5.152  10.549 -0.3312 -0.1402  0.4321
49625SOL    HW253433  11.585   5.242  10.473 -1.0012 -0.1584  1.2230
49626SOL     OW53434   4.526   5.569   4.853  0.7088 -0.2836 -0.1870
49626SOL    HW153435   4.525   5.504   4.783 -1.3984 -0.7398  0.1905
49626SOL    HW253436   4.436   5.603   4.855 -0.0109 -1.8833  3.6748
49627SOL     OW53437  11.634   9.389   2.081  0.0341  0.2641 -0.8206
49627SOL    HW153438  11.576   9.449   2.034 -0.0537  0.1050 -0.9187
49627SOL    HW253439  11.676   9.338   2.011 -0.3652 -0.2194 -0.7135
49628SOL     OW53440   1.144   4.448   7.962 -0.5762 -0.4362  0.7289
49628SOL    HW153441   1.126   4.383   8.031 -1.5019 -0.2785  0.6496
49628SOL    HW253442   1.209   4.506   8.000 -0.0566 -1.1543  0.9627
49629SOL     OW53443   4.905   7.424   7.197 -0.2712  0.3004 -0.0822
49629SOL    HW153444   4.923   7.467   7.280 -0.1495  0.4972 -0.2096
49629SOL    HW253445   4.991   7.407   7.159 -0.3048 -0.3930  0.1344
49630SOL     OW53446   5.965   6.115   2.803  0.3918  0.2092 -0.4857
49630SOL    HW153447   5.935   6.077   2.885  0.7831 -1.1179 -0.9318
49630SOL    HW253448   5.887   6.158   2.767  0.1784  0.6598  0.4752
49631SOL     OW53449   9.090   9.912   3.101  0.0074 -0.2041 -0.5831
49631SOL    HW153450   9.109   9.892   3.010 -0.6630  1.1945 -1.0503
49631SOL    HW253451   9.171   9.950   3.135  0.2345 -0.6603 -0.6069
49632SOL     OW53452  10.063   7.993   7.313 -0.0051  0.3855  0.5778
49632SOL    HW153453   9.980   7.947   7.307  0.5048 -0.3889 -1.6249
49632SOL    HW253454  10.126   7.926   7.341  0.1651  0.5503  0.5924
49633SOL     OW53455  11.785   1.631   0.342 -0.1699 -0.2009 -0.2468
49633SOL    HW153456  11.731   1.625   0.263  0.9498 -0.4653 -1.0192
49633SOL    HW253457  11.761   1.715   0.380 -1.8366 -0.7429 -0.0078
49634SOL     OW53458   3.966   8.216  10.783  0.0418  0.0355  0.4131
49634SOL    HW153459   3.935   8.132  10.818 -0.2573  0.2964  0.7770
49634SOL    HW253460   4.060   8.203  10.770 -0.2775 -0.9591 -1.2688
49635SOL     OW53461  10.251   0.721   0.214 -0.8557  0.1247  0.0190
49635SOL    HW153462  10.343   0.750   0.217 -0.5202 -0.9745  2.2453
49635SOL    HW253463  10.201   0.803   0.215  0.0466  0.7622 -1.8696
49636SOL     OW53464   7.997   4.563   7.770  0.2691  0.1785  0.7273
49636SOL    HW153465   8.003   4.622   7.695 -2.1970 -0.0038  0.3130
49636SOL    HW253466   8.082   4.571   7.814  1.1486  1.5736 -1.1084
49637SOL     OW53467   2.484   8.461   8.694 -0.2742 -0.4252 -0.1653
49637SOL    HW153468   2.505   8.417   8.777 -1.4378 -0.7447 -0.0227
49637SOL    HW253469   2.427   8.533   8.720  0.1327  0.0542 -0.5973
49638SOL     OW53470   7.067  10.178   6.052  0.1606  0.2549 -0.2301
49638SOL    HW153471   7.158  10.164   6.024 -0.2549 -0.4400 -1.3354
49638SOL    HW253472   7.065  10.267   6.086  0.6831  1.2804 -2.7027
49639SOL     OW53473   6.144   6.620   9.114  0.3002 -0.0128  0.3835
49639SOL    HW153474   6.147   6.589   9.024  0.5824  1.1188 -0.0252
49639SOL    HW253475   6.067   6.579   9.152 -2.1394  2.4331 -1.5442
49640SOL     OW53476   7.012  10.192   1.376 -0.3086  0.0475  0.8538
49640SOL    HW153477   7.059  10.273   1.393  0.7137 -0.5298  0.8431
49640SOL    HW253478   7.078  10.123   1.381 -0.8940 -0.6558 -0.4799
49641SOL     OW53479   2.621  10.793  10.743 -0.2652 -0.4596 -0.4366
49641SOL    HW153480   2.707  10.799  10.785 -0.7091 -2.0105  0.7843
49641SOL    HW253481   2.568  10.858  10.788  0.0294 -0.1150 -0.5838
49642SOL     OW53482   0.401   2.834   1.402 -0.1670  0.2467  0.4458
49642SOL    HW153483   0.490   2.870   1.399  0.1048 -0.3736  0.9365
49642SOL    HW253484   0.344   2.911   1.393  0.4146  0.5632 -0.6971
49643SOL     OW53485  11.573   5.098   7.480  0.5737 -0.3126 -0.2459
49643SOL    HW153486  11.604   5.079   7.568  1.2328 -1.0464 -0.6221
49643SOL    HW253487  11.537   5.187   7.486 -0.7769 -0.9114  1.0993
49644SOL     OW53488   7.670   0.186   3.896  0.5312  0.3086  0.7724
49644SOL    HW153489   7.672   0.192   3.801  1.5018  0.0354  0.7746
49644SOL    HW253490   7.725   0.112   3.917  0.4141  0.4380  1.5616
49645SOL     OW53491   3.511   4.001   8.375 -0.4332  0.2892 -0.3413
49645SOL    HW153492   3.542   4.071   8.432 -0.8187  0.1139  0.0932
49645SOL    HW253493   3.590   3.960   8.341 -0.1884  0.0378  0.5195
49646SOL     OW53494   0.177   5.970  12.121  0.2456 -0.5086 -0.0366
49646SOL    HW153495   0.091   5.933  12.141 -0.7247  0.8397 -1.4589
49646SOL    HW253496   0.233   5.894  12.103 -0.8817 -1.3743  0.0158
49647SOL     OW53497   4.132   6.938   7.015  0.1621 -0.3759 -0.9600
49647SOL    HW153498   4.085   6.865   6.976  0.2790 -0.0241 -1.7712
49647SOL    HW253499   4.224   6.911   7.014  0.3314  0.2070 -2.2390
49648SOL     OW53500   8.665  11.706   4.027 -0.0795 -0.3265 -0.0357
49648SOL    HW153501   8.665  11.628   4.082 -1.7761 -0.0670  0.3782
49648SOL    HW253502   8.579  11.746   4.041  0.8567  1.8216  0.0358
49649SOL     OW53503   2.188   7.812   7.538  0.0652 -0.7138 -0.3377
49649SOL    HW153504   2.249   7.739   7.531  1.0541  0.0770 -0.1671
49649SOL    HW253505   2.102   7.770   7.549  0.7007 -1.8533  0.5687
49650SOL     OW53506  11.338   4.320   8.200  0.1138  0.3750 -0.0406
49650SOL    HW153507  11.382   4.383   8.258 -0.3791  0.8121 -0.1334
49650SOL    HW253508  11.407   4.291   8.140  0.1496  1.5497 -0.6063
49651SOL     OW53509   0.721   5.985   2.628  0.4419 -0.0383  0.3529
49651SOL    HW153510   0.792   5.956   2.687  0.8699  0.4726  0.0971
49651SOL    HW253511   0.760   6.055   2.577  0.4562 -1.2475 -1.3856
49652SOL     OW53512  11.656   3.244   9.311  0.4395 -0.0979  0.2981
49652SOL    HW153513  11.645   3.216   9.401 -0.5051 -2.6707 -0.5430
49652SOL    HW253514  11.670   3.339   9.317  0.0591 -0.1435  3.0748
49653SOL     OW53515   7.718   2.586   2.006 -0.1004 -0.1533  0.2321
49653SOL    HW153516   7.661   2.658   2.033 -0.1800  0.3998 -1.3394
49653SOL    HW253517   7.793   2.628   1.966  0.1854 -0.9324 -0.0752
49654SOL     OW53518  11.012   1.955   2.195  0.4009 -0.0883 -0.4644
49654SOL    HW153519  10.988   1.903   2.271  1.5826 -0.6733 -0.4654
49654SOL    HW253520  11.042   2.039   2.232  0.5203 -0.1976 -0.3116
49655SOL     OW53521  11.756   5.959   1.518 -0.2138 -0.2263 -0.1726
49655SOL    HW153522  11.848   5.984   1.527 -0.7113  1.2734  1.0180
49655SOL    HW253523  11.714   5.992   1.597 -1.8539 -0.5677 -0.8718
49656SOL     OW53524   1.863   6.370   4.298 -0.3353 -0.3124  0.8607
49656SOL    HW153525   1.807   6.435   4.255  0.5951 -0.8261 -1.2466
49656SOL    HW253526   1.802   6.306   4.334 -1.1834  0.1654  0.3089
49657SOL     OW53527   4.513  11.926   4.344  0.2385  0.3701  0.0060
49657SOL    HW153528   4.523  11.867   4.418  2.6628  0.5111 -0.1166
49657SOL    HW253529   4.579  11.995   4.359  0.3422  0.7620 -1.9121
49658SOL     OW53530   6.149   4.672   3.539  0.2767  0.4161 -0.1122
49658SOL    HW153531   6.069   4.693   3.586  0.1968 -0.8780  0.3876
49658SOL    HW253532   6.216   4.727   3.580 -0.0725  0.3844  0.5163
49659SOL     OW53533   0.478   7.350   0.461  0.3233 -0.6463 -0.2474
49659SOL    HW153534   0.385   7.353   0.441  0.7440  0.0526 -2.4201
49659SOL    HW253535   0.483   7.345   0.556 -1.9227 -1.5238 -0.1293
49660SOL     OW53536   2.232   2.887   7.698  0.0085  0.1859  0.1637
49660SOL    HW153537   2.190   2.803   7.714  0.5983  0.2293  2.3322
49660SOL    HW253538   2.162   2.952   7.708 -0.0831  0.0529  0.3922
49661SOL     OW53539   0.004   3.805   7.025  0.2595  0.2867  0.0449
49661SOL    HW153540  -0.060   3.784   6.957  0.2599 -1.8368  0.6391
49661SOL    HW253541   0.049   3.723   7.042  0.2664  0.7515  2.6032
49662SOL     OW53542   3.808   1.157   3.296  0.0056 -0.4733  0.0011
49662SOL    HW153543   3.756   1.228   3.334  2.9446  0.6386  2.3624
49662SOL    HW253544   3.807   1.175   3.202 -0.9111  1.5646  0.3295
49663SOL     OW53545  10.147   8.147   9.020  0.2966 -0.1988  0.1763
49663SOL    HW153546  10.070   8.091   9.026  1.0069 -1.3518 -1.0508
49663SOL    HW253547  10.121   8.219   8.963  0.2469 -0.8245 -0.6040
49664SOL     OW53548  11.326   4.764  11.734  0.0425 -0.4290  0.2481
49664SOL    HW153549  11.348   4.675  11.762 -0.7102 -0.7219 -0.0804
49664SOL    HW253550  11.272   4.753  11.656 -2.4087  0.1856  1.7427
49665SOL     OW53551   9.035   4.798   5.586  0.1297 -0.6013 -0.2967
49665SOL    HW153552   8.959   4.855   5.575 -1.0189 -2.0976 -0.3076
49665SOL    HW253553   9.022   4.757   5.671 -0.3576 -2.6845 -1.3239
49666SOL     OW53554   7.153   2.773   2.107 -0.7744 -0.4014 -0.0449
49666SOL    HW153555   7.157   2.846   2.045  0.5496 -0.5563 -0.1713
49666SOL    HW253556   7.084   2.798   2.168  1.2742  2.2165  1.4076
49667SOL     OW53557   2.520   1.493   6.066 -0.0779  0.4969  0.1595
49667SOL    HW153558   2.555   1.579   6.042 -0.0476  0.8948  1.5548
49667SOL    HW253559   2.453   1.475   6.000  1.8475  0.2786 -1.8495
49668SOL     OW53560   6.003   8.367   7.295  0.5425  0.1068  0.1876
49668SOL    HW153561   6.094   8.339   7.305  0.7789  0.3857 -1.0281
49668SOL    HW253562   5.991   8.432   7.365  1.4083  0.3774  0.1077
49669SOL     OW53563   7.667  10.157  10.354  0.4540 -0.7097  0.0776
49669SOL    HW153564   7.701  10.079  10.311 -0.9025 -2.2615  1.6303
49669SOL    HW253565   7.724  10.170  10.430  0.7881 -0.0686 -0.2779
49670SOL     OW53566   5.286   5.592   6.384  0.6994  0.2448  1.0490
49670SOL    HW153567   5.299   5.684   6.358  0.3376  0.5341  1.8451
49670SOL    HW253568   5.341   5.542   6.324  1.5012  1.0411  1.0972
49671SOL     OW53569   0.280   1.024   7.807  0.2901 -0.0093 -0.5314
49671SOL    HW153570   0.220   1.011   7.734 -0.1473  0.3291 -0.2370
49671SOL    HW253571   0.308   0.935   7.831 -3.3412 -0.6780  2.0250
49672SOL     OW53572   8.201   9.744   8.840 -0.0706 -0.1368  0.2071
49672SOL    HW153573   8.125   9.693   8.870 -0.3804 -0.5818 -1.2339
49672SOL    HW253574   8.276   9.690   8.864 -0.3138 -0.5610  0.0250
49673SOL     OW53575   8.737   9.532   1.025 -0.0279  0.1001 -0.2549
49673SOL    HW153576   8.677   9.518   0.951 -1.4684 -0.4996  0.9776
49673SOL    HW253577   8.735   9.626   1.040  0.2383  0.2198 -0.9603
49674SOL     OW53578   8.126   7.233   4.328  0.5027  0.4475 -0.4496
49674SOL    HW153579   8.196   7.276   4.278  0.3610  0.2116 -0.8596
49674SOL    HW253580   8.164   7.217   4.414  0.9187  0.4240 -0.6333
49675SOL     OW53581   6.035   2.209   4.975  0.0720 -0.4401  0.0815
49675SOL    HW153582   5.947   2.242   4.959  0.5344  0.4109 -0.8355
49675SOL    HW253583   6.042   2.207   5.070 -1.5192 -2.2059  0.2200
49676SOL     OW53584  11.012   4.683   2.838 -0.6648  0.2248 -0.1511
49676SOL    HW153585  10.954   4.615   2.804 -1.0235 -0.1308  1.1204
49676SOL    HW253586  10.998   4.681   2.933 -0.1753  1.6112 -0.0289
49677SOL     OW53587   5.338   1.172   8.003  0.2111  0.0102  0.1312
49677SOL    HW153588   5.322   1.192   7.911  0.8095 -0.1115 -0.0073
49677SOL    HW253589   5.391   1.245   8.035 -0.9750  0.6432  0.7005
49678SOL     OW53590  10.204   8.790  10.428 -0.0336  0.0014 -0.0160
49678SOL    HW153591  10.236   8.767  10.515 -1.3244  0.9316  0.7292
49678SOL    HW253592  10.268   8.854  10.396  0.7885 -0.8022 -0.0310
49679SOL     OW53593   2.884   0.598   2.915 -0.1228  0.0687 -0.1718
49679SOL    HW153594   2.960   0.541   2.926 -0.0432  0.0541 -0.7877
49679SOL    HW253595   2.877   0.645   2.998  0.0667 -0.5280  0.1884
49680SOL     OW53596   0.997   0.420   7.589 -0.1420  0.4209 -0.2667
49680SOL    HW153597   0.996   0.432   7.684 -0.1947  0.3528 -0.2583
49680SOL    HW253598   1.031   0.332   7.576  0.4191  0.6413 -0.3352
49681SOL     OW53599   9.471   5.788   9.878  0.1268 -0.2229 -0.4695
49681SOL    HW153600   9.431   5.749   9.956 -1.5670  1.4599 -0.4125
49681SOL    HW253601   9.441   5.733   9.805 -0.0463 -0.5785 -0.1334
49682SOL     OW53602   1.938   8.918   7.893  0.5979  0.5348 -0.3197
49682SOL    HW153603   1.845   8.925   7.873  0.7861  0.0746 -1.4663
49682SOL    HW253604   1.965   9.007   7.914  0.1186  0.8596 -1.0555
49683SOL     OW53605   1.135   9.654  10.607  0.6898  0.0485  0.5996
49683SOL    HW153606   1.212   9.685  10.559  0.1317  1.6711  0.6779
49683SOL    HW253607   1.161   9.569  10.642  1.2282 -1.0437 -2.2380
49684SOL     OW53608  11.802   0.280   1.172  0.1625 -0.3094 -0.1319
49684SOL    HW153609  11.762   0.324   1.247  1.1664 -0.3578  0.4559
49684SOL    HW253610  11.820   0.191   1.204 -0.9927 -0.8808 -1.0026
49685SOL     OW53611   1.406   0.414   9.325 -0.6347  0.0899  0.1228
49685SOL    HW153612   1.497   0.423   9.354 -0.6847  1.5990 -0.1057
49685SOL    HW253613   1.398   0.322   9.300  0.6936 -0.1774  0.5913
49686SOL     OW53614   3.842  10.495   4.271 -0.2812 -0.2683  0.2045
49686SOL    HW153615   3.819  10.405   4.245 -0.5936 -0.8777  2.3899
49686SOL    HW253616   3.938  10.497   4.266 -0.3097 -0.4943 -0.5351
49687SOL     OW53617   9.893   9.551   3.374 -0.1134 -0.7192  0.6297
49687SOL    HW153618   9.844   9.608   3.315 -0.4475 -0.3095  1.2830
49687SOL    HW253619   9.828   9.489   3.407 -0.1977 -0.2292  1.4322
49688SOL     OW53620   3.468   8.210   7.456  0.1722 -0.8025 -0.3124
49688SOL    HW153621   3.454   8.148   7.383 -1.5126 -0.0655 -0.6637
49688SOL    HW253622   3.558   8.239   7.445  0.5893 -2.2179 -0.9087
49689SOL     OW53623   9.681   2.692   0.886  0.0984 -0.0179  0.1766
49689SOL    HW153624   9.767   2.683   0.843 -0.7781 -0.7877 -1.5094
49689SOL    HW253625   9.699   2.677   0.978  1.7762 -0.2220 -0.1494
49690SOL     OW53626   6.820  10.962   0.539 -0.2551 -0.1425  0.2282
49690SOL    HW153627   6.728  10.955   0.513 -0.7622  1.6244  1.4051
49690SOL    HW253628   6.819  10.952   0.634  0.6113  1.0979  0.3898
49691SOL     OW53629   9.774   6.909   9.992  0.7039  0.2979  0.7484
49691SOL    HW153630   9.810   6.914  10.080  1.0094  0.1054  0.6343
49691SOL    HW253631   9.707   6.841   9.997  3.1160 -2.3070  0.0112
49692SOL     OW53632  10.490   8.094   4.053  0.4883 -0.0300 -0.0975
49692SOL    HW153633  10.547   8.040   4.108  0.2410 -1.9518 -1.6485
49692SOL    HW253634  10.471   8.040   3.977 -1.3846  1.5322 -0.8178
49693SOL     OW53635   1.429   5.456   1.625  0.8283 -0.5614 -0.2985
49693SOL    HW153636   1.339   5.426   1.634 -0.1490  2.0453 -0.3411
49693SOL    HW253637   1.472   5.390   1.572 -1.5592 -1.0120 -1.8171
49694SOL     OW53638   2.394   9.867   2.491 -0.1463  0.0441  0.2365
49694SOL    HW153639   2.406   9.902   2.580 -0.1176  0.5880  0.0205
49694SOL    HW253640   2.386   9.773   2.504  0.5557  0.0464  0.7532
49695SOL     OW53641  10.202   3.527   1.992 -0.5676  0.3797  0.4327
49695SOL    HW153642  10.261   3.451   1.994 -0.8102  0.1910  0.5752
49695SOL    HW253643  10.217   3.567   1.907  0.0562  0.5662  0.6244
49696SOL     OW53644   6.868   4.495   6.035 -0.1886  0.1445  0.0654
49696SOL    HW153645   6.876   4.552   6.111 -2.0347 -1.4733  1.5816
49696SOL    HW253646   6.921   4.418   6.057 -1.5517 -0.7808  0.2300
49697SOL     OW53647  10.059   2.768   7.026  0.3620  0.1129 -0.0698
49697SOL    HW153648  10.153   2.789   7.022  0.4408 -0.1869  0.2197
49697SOL    HW253649  10.024   2.802   6.943  0.5968  0.8514  0.1241
49698SOL     OW53650   3.989   9.350  11.310  0.0740 -0.0743 -0.3466
49698SOL    HW153651   4.075   9.385  11.288 -0.1774 -0.2549 -1.6524
49698SOL    HW253652   3.982   9.269  11.261  0.2585 -1.5668  1.9192
49699SOL     OW53653   4.475   8.671   2.796  1.2163  0.1833  0.3219
49699SOL    HW153654   4.531   8.688   2.872  1.8291  1.4361 -0.3659
49699SOL    HW253655   4.485   8.750   2.742 -0.7852  0.1808 -0.0964
49700SOL     OW53656   5.345   9.368   4.909  1.0350  0.1402 -0.4336
49700SOL    HW153657   5.294   9.448   4.924 -0.7247 -1.0413  0.1719
49700SOL    HW253658   5.295   9.319   4.845  0.3947 -1.8616  1.4682
49701SOL     OW53659   7.020   0.081   1.369 -0.4427  0.1771  0.0357
49701SOL    HW153660   7.078   0.017   1.327 -1.4914 -0.5996 -0.2878
49701SOL    HW253661   7.016   0.154   1.308 -0.1922  0.0198 -0.1706
49702SOL     OW53662   0.142   8.162  10.690  0.1092  0.1343 -0.0089
49702SOL    HW153663   0.140   8.218  10.612 -0.2899  1.6645  1.0602
49702SOL    HW253664   0.217   8.193  10.740  0.3518 -0.8249  0.2340
49703SOL     OW53665   7.618   8.238   4.233 -0.2040 -0.0472 -0.3829
49703SOL    HW153666   7.712   8.242   4.254 -0.4415 -1.7319  1.3764
49703SOL    HW253667   7.579   8.194   4.309 -2.4483  0.6993 -1.0334
49704SOL     OW53668   2.376   5.338   9.334 -0.3607 -0.6122 -0.5170
49704SOL    HW153669   2.437   5.397   9.291 -0.2993 -0.7483 -0.6180
49704SOL    HW253670   2.412   5.251   9.320  0.2791 -0.5843  0.8140
49705SOL     OW53671   4.115   8.372  10.442  0.0815  0.0552 -0.3615
49705SOL    HW153672   4.154   8.334  10.363  1.8393 -0.4941  0.7036
49705SOL    HW253673   4.190   8.409  10.489 -0.8941  0.1177  1.1861
49706SOL     OW53674  10.724   0.240   1.946  0.1317 -0.2568 -0.1000
49706SOL    HW153675  10.739   0.253   2.040  0.0733 -2.6283  0.2911
49706SOL    HW253676  10.632   0.264   1.933  0.1177  0.0201  0.4482
49707SOL     OW53677  11.443   3.983   0.724 -0.1658 -0.5033 -0.0668
49707SOL    HW153678  11.363   3.933   0.710 -1.3615  1.2152  0.2762
49707SOL    HW253679  11.514   3.923   0.701 -1.5678 -1.8640 -1.0134
49708SOL     OW53680   2.038   3.104   1.287 -0.1715 -0.1956  0.0495
49708SOL    HW153681   2.068   3.020   1.252 -2.1203 -0.3580 -1.4428
49708SOL    HW253682   1.952   3.084   1.325 -0.8777  1.1759 -0.7473
49709SOL     OW53683   1.827  11.267   0.250 -0.5737  0.5861  0.0624
49709SOL    HW153684   1.732  11.271   0.243 -0.4367  1.3992 -1.9002
49709SOL    HW253685   1.852  11.187   0.203 -0.3164 -0.0697  1.2717
49710SOL     OW53686  10.166   7.951  10.911 -0.0533 -0.1349 -0.3848
49710SOL    HW153687  10.232   7.911  10.855 -0.3536 -1.5953  0.2380
49710SOL    HW253688  10.111   7.878  10.940  1.3468  0.0894  3.5005
49711SOL     OW53689   9.691   9.911   3.884  0.6000  0.3610  0.1189
49711SOL    HW153690   9.742   9.888   3.806 -0.2824 -0.0394 -0.3478
49711SOL    HW253691   9.730   9.859   3.955  1.7201  1.0886  0.0692
49712SOL     OW53692  10.063   7.660   2.739 -0.1676  0.7280  0.7669
49712SOL    HW153693  10.039   7.607   2.663  0.7385  0.1977  0.8443
49712SOL    HW253694   9.980   7.675   2.784 -0.4043 -1.0279  1.0013
49713SOL     OW53695   8.467   4.334   3.317 -0.3646 -0.3226 -0.3019
49713SOL    HW153696   8.410   4.283   3.259 -0.0538  0.2419 -1.1253
49713SOL    HW253697   8.555   4.301   3.300 -0.3239 -0.5075  0.2393
49714SOL     OW53698   6.690   3.950   0.691 -0.4584 -0.1790 -0.0900
49714SOL    HW153699   6.643   3.868   0.675 -0.8059 -0.2397  1.1149
49714SOL    HW253700   6.628   4.004   0.740 -0.5281  1.1385 -1.5450
49715SOL     OW53701  10.656   1.834   6.391 -0.2820 -0.5475 -0.0830
49715SOL    HW153702  10.723   1.789   6.340 -0.3750  2.2752 -2.9574
49715SOL    HW253703  10.689   1.830   6.481  1.5217 -2.9243 -0.7377
49716SOL     OW53704   8.466   7.134   1.516 -0.1477 -0.2289 -0.9772
49716SOL    HW153705   8.514   7.167   1.440 -0.1320 -0.5979 -1.1277
49716SOL    HW253706   8.525   7.148   1.589  1.0311 -2.4317 -1.4012
49717SOL     OW53707  11.847   3.428   7.883  0.5154 -0.4167  0.1782
49717SOL    HW153708  11.829   3.337   7.905 -0.0963 -0.7037 -1.3929
49717SOL    HW253709  11.833   3.476   7.965  0.9370 -1.7321  1.0459
49718SOL     OW53710  11.324   7.063   3.087  0.2493 -0.3535 -0.2231
49718SOL    HW153711  11.253   7.107   3.041  1.0301  0.4168 -0.7266
49718SOL    HW253712  11.404   7.105   3.054  0.9572 -1.3914  0.1038
49719SOL     OW53713   3.154   1.038   7.028 -0.0899  0.5805  0.6191
49719SOL    HW153714   3.105   1.061   6.949 -0.9886 -1.6186  0.4513
49719SOL    HW253715   3.245   1.052   7.005 -0.4801  3.2907  0.4131
49720SOL     OW53716   0.302   2.405   5.462  0.0901 -0.1080 -0.3600
49720SOL    HW153717   0.287   2.359   5.544 -1.4630 -0.3175 -0.7433
49720SOL    HW253718   0.388   2.374   5.432  1.5265  1.2604  2.0117
49721SOL     OW53719   9.689   9.933   7.308 -0.3822 -0.4120  0.5771
49721SOL    HW153720   9.685   9.848   7.264  1.6011 -0.2911  0.0825
49721SOL    HW253721   9.700   9.911   7.401 -1.1275 -0.6728  0.6120
49722SOL     OW53722   2.287   1.621   0.265 -0.6213 -0.2413 -0.1436
49722SOL    HW153723   2.257   1.576   0.185 -1.8145  0.8611 -0.3543
49722SOL    HW253724   2.244   1.575   0.336 -0.7767 -0.2815 -0.2620
49723SOL     OW53725   1.182  11.635   2.077  0.3456  0.3112  0.1050
49723SOL    HW153726   1.198  11.703   2.142  0.5527 -0.0014  0.3856
49723SOL    HW253727   1.193  11.679   1.993  0.6742  0.5788  0.2858
49724SOL     OW53728   9.943   4.218   8.533  0.1980  0.0626  0.2782
49724SOL    HW153729   9.905   4.144   8.485  2.3137 -1.6705  1.0771
49724SOL    HW253730   9.897   4.295   8.499 -2.6447 -1.6238 -0.0957
49725SOL     OW53731   0.579   6.872   5.035 -0.0168  0.1188  0.3514
49725SOL    HW153732   0.642   6.873   4.963  0.7045  0.9507  0.9878
49725SOL    HW253733   0.506   6.926   5.004  0.0901  0.1058  0.0719
49726SOL     OW53734   2.279   9.727   6.936 -0.0137 -0.9735 -0.1536
49726SOL    HW153735   2.339   9.722   6.862 -2.0308 -1.2425 -1.8561
49726SOL    HW253736   2.280   9.639   6.973  0.8385 -0.8974  0.0310
49727SOL     OW53737   7.438   1.962  11.321  0.6228 -0.1769 -0.3104
49727SOL    HW153738   7.529   1.984  11.341  0.6164 -0.8923  0.5869
49727SOL    HW253739   7.388   2.040  11.347  1.0455  0.5527 -1.6126
49728SOL     OW53740   0.543   0.648   0.466 -0.0827 -0.4916 -0.2867
49728SOL    HW153741   0.554   0.563   0.510  2.3936  0.4746  1.1678
49728SOL    HW253742   0.483   0.696   0.523  1.3158 -0.0597  0.8788
49729SOL     OW53743   5.546   6.598   0.917  0.4624  0.3150 -0.3892
49729SOL    HW153744   5.554   6.679   0.867  0.7482 -0.2731 -1.3181
49729SOL    HW253745   5.632   6.556   0.909  0.6849  0.4551  1.0451
49730SOL     OW53746  10.241   6.823   5.679 -0.1108 -1.2250 -0.2024
49730SOL    HW153747  10.280   6.736   5.673  0.3996 -1.0537  0.5220
49730SOL    HW253748  10.277   6.860   5.759 -0.4416 -0.4014 -0.4243
49731SOL     OW53749   4.432   2.829   1.564  0.3974  0.1976 -0.8122
49731SOL    HW153750   4.353   2.831   1.619  0.7013 -0.0488 -0.3614
49731SOL    HW253751   4.450   2.920   1.543  1.8276  0.5803  1.7300
49732SOL     OW53752   5.181  11.871   3.700  0.3423 -0.0779  0.4539
49732SOL    HW153753   5.150  11.926   3.627  0.9514  0.6409  0.7266
49732SOL    HW253754   5.180  11.782   3.664 -1.1934  0.0257  0.1832
49733SOL     OW53755   2.898   2.868   0.290  0.9838 -0.1477 -0.5414
49733SOL    HW153756   2.942   2.783   0.283  0.4495 -0.7147  1.9858
49733SOL    HW253757   2.805   2.846   0.289  0.7795 -0.1204  3.6397
49734SOL     OW53758   8.639   8.922   5.563 -0.2737  0.4719 -0.6116
49734SOL    HW153759   8.596   8.972   5.493  0.7311 -0.0681 -1.6535
49734SOL    HW253760   8.694   8.858   5.516 -0.4378 -0.6497  0.6898
49735SOL     OW53761   0.566   7.103  10.505  0.0937 -0.5873  0.5726
49735SOL    HW153762   0.596   7.024  10.551  0.5644 -1.0703 -0.5309
49735SOL    HW253763   0.470   7.094  10.505  0.1721 -1.7745 -0.5364
49736SOL     OW53764   2.904   4.242   3.478  0.0423 -0.6295 -0.7877
49736SOL    HW153765   2.977   4.289   3.520 -0.2184  1.0260 -2.0792
49736SOL    HW253766   2.826   4.276   3.523 -0.2188  0.9616 -2.3500
49737SOL     OW53767   1.413   2.724  10.296 -0.1577  0.2709  0.3958
49737SOL    HW153768   1.383   2.761  10.379  2.2801  1.4211  0.8625
49737SOL    HW253769   1.444   2.636  10.319  3.3611  1.5987  1.5540
49738SOL     OW53770   4.904   9.325   7.590  0.4145 -0.8062  0.2017
49738SOL    HW153771   4.918   9.314   7.496  1.0195 -1.6941  0.3830
49738SOL    HW253772   4.900   9.236   7.624 -0.9458 -0.5047  0.8706
49739SOL     OW53773   2.219   2.329  10.360  0.2684 -0.6257 -0.1808
49739SOL    HW153774   2.226   2.390  10.433  1.4077 -2.1034  1.0230
49739SOL    HW253775   2.267   2.371  10.288 -0.3734  0.5853  0.0774
49740SOL     OW53776   4.105  11.023   6.789 -0.1383 -0.0473  0.0475
49740SOL    HW153777   4.049  11.088   6.833  1.1097 -0.1426  1.8931
49740SOL    HW253778   4.193  11.041   6.822  1.3249  1.0753 -3.8922
49741SOL     OW53779   8.916   9.886   4.210  0.4989  0.3876 -0.0130
49741SOL    HW153780   8.868   9.955   4.255 -0.9452 -1.4664  1.4248
49741SOL    HW253781   8.954   9.930   4.133 -1.1439  2.5481  0.3076
49742SOL     OW53782  11.883   7.463   9.270  0.0852  0.4812  0.1755
49742SOL    HW153783  11.969   7.449   9.232 -0.3612  0.6264 -0.9230
49742SOL    HW253784  11.867   7.557   9.261 -0.0076  0.5321  0.7921
49743SOL     OW53785   1.936  10.750  11.779 -0.3670 -0.2133 -0.2590
49743SOL    HW153786   1.940  10.841  11.809  1.3287 -0.0806 -0.8110
49743SOL    HW253787   1.949  10.754  11.685  1.8625 -1.1271 -0.0615
49744SOL     OW53788   0.225  10.744   4.653  0.1260 -0.2703  0.2160
49744SOL    HW153789   0.203  10.733   4.561 -0.2998 -0.7385  0.3641
49744SOL    HW253790   0.166  10.813   4.685  0.0327 -0.3487  0.2152
49745SOL     OW53791   3.477   1.432   6.770  0.0605  0.3546 -0.0623
49745SOL    HW153792   3.450   1.490   6.842  0.0103 -2.0073  1.9638
49745SOL    HW253793   3.400   1.377   6.753  1.6589 -2.9122  2.1465
49746SOL     OW53794   6.266   3.482   5.049  0.7432 -0.7637 -0.3323
49746SOL    HW153795   6.210   3.521   4.982 -0.8923  1.0554  1.9021
49746SOL    HW253796   6.283   3.394   5.018 -1.6793 -0.7123 -2.1428
49747SOL     OW53797   3.898   9.767   5.160 -0.8456  0.2132 -0.1878
49747SOL    HW153798   3.808   9.798   5.156 -0.7339  0.4403 -1.8452
49747SOL    HW253799   3.903   9.698   5.094 -0.2279 -1.0377  1.1120
49748SOL     OW53800  11.301   0.331   2.038  0.4463  0.5968  0.2966
49748SOL    HW153801  11.254   0.410   2.064  0.1197  0.4976  0.0130
49748SOL    HW253802  11.344   0.301   2.119  0.4752  0.9932  0.4306
49749SOL     OW53803   3.540   8.316  11.581 -0.1082  0.0745 -0.0431
49749SOL    HW153804   3.572   8.259  11.512  0.9894  0.9860 -0.3104
49749SOL    HW253805   3.489   8.258  11.639 -0.3308 -0.8485 -1.1366
49750SOL     OW53806   5.599   1.496  10.361  0.2927  0.1600 -0.6112
49750SOL    HW153807   5.675   1.455  10.403 -0.3197  0.9263  1.3748
49750SOL    HW253808   5.580   1.439  10.286  2.2441 -0.5510 -0.6291
49751SOL     OW53809   1.452   1.564   8.873  0.3327  0.5945 -0.2156
49751SOL    HW153810   1.530   1.585   8.923 -0.1711  0.9069  0.4604
49751SOL    HW253811   1.425   1.649   8.836 -1.1048  1.0093  1.6418
49752SOL     OW53812   9.767   7.009   3.114  1.0287  0.4001  0.3186
49752SOL    HW153813   9.797   6.944   3.178 -0.2385 -0.3196  0.2136
49752SOL    HW253814   9.830   7.081   3.122  2.7039 -0.9967  0.1540
49753SOL     OW53815   2.882   7.711  11.797 -0.2622  0.2481 -0.0487
49753SOL    HW153816   2.890   7.744  11.886 -0.3775 -1.2625  0.5561
49753SOL    HW253817   2.795   7.670  11.794 -1.7569  3.1651 -1.9100
49754SOL     OW53818  11.542   1.773   3.089  0.0698  0.3031  0.1628
49754SOL    HW153819  11.606   1.757   3.158  1.4372  0.6014 -0.9633
49754SOL    HW253820  11.472   1.710   3.105  0.0010  0.8471  2.1960
49755SOL     OW53821   7.680   5.592   5.024 -0.3180 -0.5178 -0.5468
49755SOL    HW153822   7.772   5.618   5.024 -0.4637  0.0454 -1.8490
49755SOL    HW253823   7.657   5.587   5.117  1.4274 -2.2166 -0.1530
49756SOL     OW53824  11.010   3.106   2.777  0.1030 -0.4530  0.6002
49756SOL    HW153825  11.045   3.165   2.711 -0.9956  0.7682  1.0599
49756SOL    HW253826  11.009   3.020   2.735  0.2190  0.1467 -0.6640
49757SOL     OW53827   0.319   0.843   4.760  0.0583  0.3182  0.0983
49757SOL    HW153828   0.375   0.867   4.833  1.1245  1.5275 -1.0599
49757SOL    HW253829   0.347   0.755   4.735 -1.2550 -0.6976  1.9509
49758SOL     OW53830   2.308   1.567  10.040 -0.0678  0.0242  0.4132
49758SOL    HW153831   2.296   1.662  10.043 -1.3248 -0.0488 -1.0149
49758SOL    HW253832   2.233   1.532  10.089  0.3801 -0.2456  0.9193
49759SOL     OW53833   2.486  10.667   7.448  0.2395  0.3318 -0.1064
49759SOL    HW153834   2.470  10.653   7.541 -2.1893 -2.4912 -0.7787
49759SOL    HW253835   2.539  10.591   7.421  1.7385  1.5911 -0.9216
49760SOL     OW53836   1.726   2.563   7.823 -0.1105 -0.2867  0.2720
49760SOL    HW153837   1.708   2.474   7.852  0.4268  0.0720  1.8308
49760SOL    HW253838   1.640   2.605   7.821 -0.5470 -1.1635 -1.8108
49761SOL     OW53839   2.128   6.776   9.459 -0.4192 -0.3026  0.5169
49761SOL    HW153840   2.051   6.761   9.403  0.0894 -1.1213  0.0160
49761SOL    HW253841   2.202   6.750   9.404  0.3279  1.5798  0.5759
49762SOL     OW53842   2.407   8.947  10.870  0.1872  0.4368  0.3841
49762SOL    HW153843   2.501   8.956  10.886  0.4670 -0.0292 -0.8195
49762SOL    HW253844   2.389   9.011  10.801  0.1775 -1.2129 -1.2156
49763SOL     OW53845   0.508   7.657   1.011 -0.5807 -0.5171 -0.0403
49763SOL    HW153846   0.582   7.595   1.010 -1.0965 -1.1404 -0.9643
49763SOL    HW253847   0.517   7.706   0.929 -0.5175  0.2378  0.4116
49764SOL     OW53848   7.673  11.923   1.312 -0.2228 -0.2167 -0.1961
49764SOL    HW153849   7.767  11.904   1.302 -0.2316  0.1332 -0.9931
49764SOL    HW253850   7.630  11.862   1.252 -0.4350  0.3117 -0.5860
49765SOL     OW53851   8.855   0.280   9.903  0.1838  0.7391  0.6126
49765SOL    HW153852   8.823   0.242   9.985  1.1164 -0.3619  0.4785
49765SOL    HW253853   8.878   0.370   9.927  0.1908  0.5118  1.5041
49766SOL     OW53854   7.024   2.363   8.557  0.0870 -0.1160  0.0350
49766SOL    HW153855   7.049   2.311   8.481 -0.8235 -0.5065 -0.0052
49766SOL    HW253856   6.934   2.337   8.576  0.6933 -0.9810  2.0337
49767SOL     OW53857   4.783   2.890   8.097  0.0049 -0.9011 -0.4898
49767SOL    HW153858   4.750   2.980   8.101 -2.9857 -1.8393 -1.0056
49767SOL    HW253859   4.875   2.897   8.123 -0.0587  2.2933 -0.6554
49768SOL     OW53860   6.446   3.449  11.473  0.2091 -0.0439 -0.2669
49768SOL    HW153861   6.490   3.466  11.390 -0.5706 -0.4329 -0.7701
49768SOL    HW253862   6.497   3.378  11.513  0.9812  0.5951 -0.0969
49769SOL     OW53863   2.942   3.063   3.145 -0.1768  0.4470  0.1748
49769SOL    HW153864   2.943   3.155   3.171 -0.6581  0.2781  0.8277
49769SOL    HW253865   3.003   3.020   3.205  3.4940  0.9699 -2.8120
49770SOL     OW53866   5.312   5.494   5.069  0.0057 -0.0838 -0.2407
49770SOL    HW153867   5.280   5.421   5.015 -0.2956 -0.5578  0.5668
49770SOL    HW253868   5.347   5.452   5.147  1.7579  0.5007 -0.6761
49771SOL     OW53869   9.719   9.085   5.388  0.2457  0.3236  0.4798
49771SOL    HW153870   9.811   9.108   5.376  0.4527  0.2050  1.7066
49771SOL    HW253871   9.716   8.990   5.377  0.1959  0.3709  0.0608
49772SOL     OW53872   1.155   2.055  10.442 -0.0496  0.3894 -0.1986
49772SOL    HW153873   1.185   1.966  10.462 -1.8098 -0.3116 -0.5339
49772SOL    HW253874   1.167   2.102  10.525  1.9830  0.2016 -0.3254
49773SOL     OW53875   1.058   2.692   2.674  0.3802 -0.2132  0.4396
49773SOL    HW153876   1.068   2.645   2.757  2.7112 -0.4295  0.1006
49773SOL    HW253877   1.094   2.779   2.691  2.2931 -0.7335 -0.6937
49774SOL     OW53878   0.786   6.371   6.528 -0.2661  0.1413 -0.1921
49774SOL    HW153879   0.730   6.314   6.580 -0.5444 -0.5876 -1.2436
49774SOL    HW253880   0.872   6.366   6.569 -0.0866 -1.6897 -0.7019
49775SOL     OW53881   5.142   9.172   6.556 -0.2387 -0.5972  0.3784
49775SOL    HW153882   5.066   9.220   6.522 -0.5805 -2.0930 -1.0409
49775SOL    HW253883   5.132   9.178   6.651 -1.3438  0.4452  0.2306
49776SOL     OW53884   9.772   8.753   2.991  0.0926 -0.1587  0.0316
49776SOL    HW153885   9.838   8.810   3.030  1.2754 -1.0232 -0.6601
49776SOL    HW253886   9.742   8.802   2.914  1.1344 -0.4636 -0.5839
49777SOL     OW53887   4.460   9.720   4.921  0.0119 -0.3745 -0.0073
49777SOL    HW153888   4.408   9.710   5.001  0.0146  0.1813  0.0646
49777SOL    HW253889   4.399   9.754   4.856 -0.2298 -1.7412 -0.5263
49778SOL     OW53890  11.379  11.893   1.339  0.1188 -0.2471  0.1617
49778SOL    HW153891  11.398  11.799   1.338  1.2129 -0.0372 -1.0161
49778SOL    HW253892  11.345  11.910   1.427  2.2386 -1.3151  1.2692
49779SOL     OW53893   7.397   4.401  11.389 -0.5042  0.1884 -0.4185
49779SOL    HW153894   7.386   4.468  11.456 -3.3061 -0.4433 -0.1306
49779SOL    HW253895   7.378   4.318  11.434 -3.4037 -0.1765 -2.0414
49780SOL     OW53896   3.501  10.189   4.526  0.0404  0.1882  0.1502
49780SOL    HW153897   3.414  10.229   4.521  1.0262  2.5796  0.4156
49780SOL    HW253898   3.505  10.152   4.614 -0.8659 -0.3577 -0.0265
49781SOL     OW53899   8.194  11.315  10.894 -0.3386  0.4422 -0.2220
49781SOL    HW153900   8.282  11.307  10.931 -1.0707  1.6571  1.9540
49781SOL    HW253901   8.209  11.343  10.803  1.5210  1.0569  0.2320
49782SOL     OW53902   6.162  10.905   4.785  0.1994  0.3654  0.0334
49782SOL    HW153903   6.183  10.847   4.857 -0.7026  0.0061  0.0314
49782SOL    HW253904   6.180  10.854   4.706 -0.2412  0.2142  0.0274
49783SOL     OW53905   1.008   4.555   3.505  0.7503  0.5464  0.9894
49783SOL    HW153906   1.074   4.616   3.536 -0.2088  2.2219 -0.1269
49783SOL    HW253907   0.957   4.605   3.441  1.3218 -2.0413 -1.7534
49784SOL     OW53908   0.906   9.307  11.922 -0.6149 -0.6550  0.5894
49784SOL    HW153909   0.937   9.288  11.833 -2.6355  0.9628 -0.5606
49784SOL    HW253910   0.812   9.292  11.918 -0.8801  0.3557  2.1969
49785SOL     OW53911   0.396   0.505   2.664  0.0035  0.9737  0.4271
49785SOL    HW153912   0.459   0.522   2.734  0.5871 -0.1211  0.1947
49785SOL    HW253913   0.435   0.547   2.587  0.6761 -0.0148  0.1984
49786SOL     OW53914   2.703   5.932   2.587 -0.3178  0.3978 -0.1036
49786SOL    HW153915   2.720   5.850   2.633  1.0602  0.5485 -0.2932
49786SOL    HW253916   2.790   5.963   2.561 -0.9493  1.0350 -1.5514
49787SOL     OW53917  10.064   7.032   9.737  1.1429 -0.1001 -0.1081
49787SOL    HW153918  10.054   7.021   9.831  1.1401  1.6612  0.1186
49787SOL    HW253919   9.976   7.022   9.701  1.2479 -1.5274 -0.0485
49788SOL     OW53920  10.297   9.866   4.352  0.4573  0.7640  0.0725
49788SOL    HW153921  10.338   9.874   4.266 -0.4458  2.7646 -0.2234
49788SOL    HW253922  10.371   9.858   4.413  1.0875 -2.1898 -0.9229
49789SOL     OW53923  11.765   3.402   4.334  0.0026  0.1195  0.2405
49789SOL    HW153924  11.859   3.417   4.342 -0.2439  1.3788  0.9993
49789SOL    HW253925  11.747   3.327   4.391  0.7540 -1.1117 -1.0719
49790SOL     OW53926  10.728   8.251   9.571  0.4489 -0.3631 -0.6418
49790SOL    HW153927  10.821   8.230   9.563  0.5753 -0.3048  0.5723
49790SOL    HW253928  10.686   8.168   9.591  0.8927  0.2243  3.7058
49791SOL     OW53929   3.974   7.699   2.243  0.0587 -0.2698  0.0450
49791SOL    HW153930   4.012   7.725   2.160 -0.8013 -1.0295 -0.6153
49791SOL    HW253931   4.000   7.767   2.305  1.6962 -0.3076 -0.5679
49792SOL     OW53932  11.937   7.217   0.092 -0.2070  0.0101  0.3096
49792SOL    HW153933  12.005   7.178   0.147  0.2284 -0.5979 -0.6306
49792SOL    HW253934  11.930   7.158   0.017  0.9368  2.0161 -1.5135
49793SOL     OW53935   8.528   4.677   6.208 -0.5626 -0.1381  0.1968
49793SOL    HW153936   8.513   4.595   6.256 -2.0373 -0.1957 -0.3082
49793SOL    HW253937   8.591   4.725   6.262 -0.8813 -0.9266  1.3153
49794SOL     OW53938  11.304  11.175   4.240 -0.5086 -0.4022  0.1534
49794SOL    HW153939  11.214  11.165   4.270  0.3093 -1.5296  2.4945
49794SOL    HW253940  11.320  11.269   4.241 -1.1026 -0.2900  1.6882
49795SOL     OW53941  11.144   3.811  10.476 -0.0339  0.7148  0.4095
49795SOL    HW153942  11.094   3.893  10.477  1.8001  1.8981  1.3996
49795SOL    HW253943  11.234   3.838  10.495  1.2568 -1.1673 -2.3103
49796SOL     OW53944  11.699   0.043   8.524 -0.0261  0.2205  0.1273
49796SOL    HW153945  11.753   0.119   8.505 -0.7412  0.4452 -1.0469
49796SOL    HW253946  11.613   0.078   8.547  0.2107 -0.1490  1.7048
49797SOL     OW53947   5.431  11.304   0.461  0.7952 -0.4685  0.5510
49797SOL    HW153948   5.348  11.286   0.416  1.2565 -0.9875 -0.1215
49797SOL    HW253949   5.440  11.399   0.458 -0.5029 -0.2569  1.9896
49798SOL     OW53950   4.348   0.767  11.564 -0.1334  0.2840  0.5612
49798SOL    HW153951   4.416   0.812  11.614  0.8317 -0.6140  0.0867
49798SOL    HW253952   4.394   0.697  11.517 -1.0195  0.9587 -1.4491
49799SOL     OW53953   7.314   9.773   2.237  0.4475 -0.3744  0.5022
49799SOL    HW153954   7.333   9.851   2.185 -0.3643 -0.0069  0.7325
49799SOL    HW253955   7.399   9.741   2.264  0.9085 -0.7122 -1.2440
49800SOL     OW53956   9.824   0.433   4.335  0.0575 -0.0066  1.3893
49800SOL    HW153957   9.819   0.391   4.420  1.4700 -0.3239  1.3400
49800SOL    HW253958   9.915   0.460   4.327 -0.5268  2.0125  0.9144
49801SOL     OW53959   4.440  10.948   2.839  0.1805 -0.0909  0.5013
49801SOL    HW153960   4.440  11.043   2.849 -1.2302  0.0312 -0.3265
49801SOL    HW253961   4.362  10.930   2.787  2.3265 -1.3693 -2.6018
49802SOL     OW53962   6.659  11.518   9.970  0.4874  0.1153 -0.1590
49802SOL    HW153963   6.689  11.468   9.894 -0.8820  2.8892 -2.7024
49802SOL    HW253964   6.567  11.492   9.981  0.9432 -1.0355  1.3097
49803SOL     OW53965  11.392   4.492   9.741 -0.0137  0.3903  0.4079
49803SOL    HW153966  11.462   4.462   9.682 -1.4166 -1.3063 -0.5328
49803SOL    HW253967  11.311   4.469   9.694 -1.1975 -0.2982  2.6504
49804SOL     OW53968   2.425   5.428   5.634 -0.1853  0.6457 -0.4432
49804SOL    HW153969   2.521   5.420   5.637  0.4106  4.2820 -2.9762
49804SOL    HW253970   2.397   5.348   5.589  1.3274 -1.3450  1.8590
49805SOL     OW53971   2.072   3.363  10.697 -0.1853  0.0588  0.1672
49805SOL    HW153972   1.980   3.346  10.718  0.0489 -0.3246  0.9255
49805SOL    HW253973   2.077   3.353  10.602 -1.0663  0.7767  0.0361
49806SOL     OW53974   1.586   9.162   3.584  0.8093  0.1097 -0.3423
49806SOL    HW153975   1.564   9.118   3.502 -2.4357  0.3546  0.2578
49806SOL    HW253976   1.556   9.102   3.652 -2.0357  2.2795  0.5143
49807SOL     OW53977  11.203   5.626  11.345 -0.3047  0.2980  0.0402
49807SOL    HW153978  11.161   5.675  11.416 -0.3796 -0.0922  0.2649
49807SOL    HW253979  11.133   5.608  11.283 -0.0550  1.5144 -0.6394
49808SOL     OW53980   4.273   5.989   8.616  0.0421 -0.1851 -0.3873
49808SOL    HW153981   4.337   5.933   8.571  0.2019  0.2149 -0.6667
49808SOL    HW253982   4.211   5.928   8.654  0.1976 -0.5550 -0.7115
49809SOL     OW53983   2.425   2.381   2.392 -0.2798  0.4182 -0.0408
49809SOL    HW153984   2.411   2.390   2.298  2.3082  1.0757 -0.4459
49809SOL    HW253985   2.383   2.459   2.430  1.6705  2.0967 -1.0986
49810SOL     OW53986   6.355   5.105  10.925  0.3709 -0.2878  0.1998
49810SOL    HW153987   6.325   5.046  10.855 -1.3985 -2.0198  2.2748
49810SOL    HW253988   6.412   5.050  10.979 -0.1492  0.3233  1.3970
49811SOL     OW53989   5.298   4.379   5.794 -0.0519  0.1267  0.6168
49811SOL    HW153990   5.313   4.339   5.708  1.9943  2.0762 -0.0354
49811SOL    HW253991   5.351   4.326   5.854  2.0723  1.3136 -0.1189
49812SOL     OW53992   9.874   8.254   9.539 -0.0760 -0.0883 -0.5320
49812SOL    HW153993   9.840   8.166   9.523 -1.2237  0.4424 -1.0655
49812SOL    HW253994   9.832   8.282   9.620  2.0395 -0.8791  0.9427
49813SOL     OW53995   4.445   0.397   5.029  0.0007 -0.2391  0.3531
49813SOL    HW153996   4.445   0.373   4.936  0.8503 -0.6074  0.4375
49813SOL    HW253997   4.426   0.315   5.075  0.3487 -0.2211  0.5329
49814SOL     OW53998   0.639   7.002   8.311  0.2214 -0.0156 -0.2876
49814SOL    HW153999   0.726   7.038   8.328  0.6260 -1.2646  0.3703
49814SOL    HW254000   0.641   6.914   8.348 -1.9519  0.6071  1.5115
49815SOL     OW54001   4.415   1.234  11.236  0.1746  0.9963  0.3391
49815SOL    HW154002   4.462   1.167  11.285  1.3192  0.1648 -1.7617
49815SOL    HW254003   4.469   1.313  11.244  0.0702  1.0168  0.8494
49816SOL     OW54004  10.876   4.576   1.807  0.0730 -0.2696  0.3680
49816SOL    HW154005  10.950   4.636   1.813 -0.3628  0.2627  0.5420
49816SOL    HW254006  10.840   4.592   1.719 -0.0703 -0.2431  0.4313
49817SOL     OW54007   3.722  10.026   6.375 -0.3569 -0.2876 -0.4558
49817SOL    HW154008   3.810  10.037   6.339 -0.5588  2.0297 -0.4078
49817SOL    HW254009   3.703  10.109   6.419 -1.0912 -2.0785  2.9619
49818SOL     OW54010   3.813   3.032   7.517 -0.3461  0.0476  0.5299
49818SOL    HW154011   3.722   3.061   7.508 -0.5681 -1.0967 -1.4843
49818SOL    HW254012   3.818   2.951   7.467  1.9276  0.3872  0.0700
49819SOL     OW54013  11.609   3.974   4.020 -0.3556 -0.5236 -0.4403
49819SOL    HW154014  11.628   4.068   4.026 -0.7547 -0.4941  0.4160
49819SOL    HW254015  11.513   3.970   4.017 -0.3492 -0.9328 -0.0408
49820SOL     OW54016   0.273   8.060   3.209  0.2800  0.5800  0.0153
49820SOL    HW154017   0.182   8.072   3.181  0.6612  0.2012 -1.5073
49820SOL    HW254018   0.318   8.137   3.177  0.2927  1.3961  1.8965
49821SOL     OW54019   4.130   0.224  11.555  0.1916 -0.3263  0.0310
49821SOL    HW154020   4.173   0.293  11.505  0.3864 -1.4149 -1.3439
49821SOL    HW254021   4.199   0.188  11.611  0.3802 -0.1930 -0.1151
49822SOL     OW54022   2.837   5.964   2.996 -0.0773  0.2205 -0.0021
49822SOL    HW154023   2.767   6.011   2.949 -0.2620 -0.1221 -0.0774
49822SOL    HW254024   2.815   5.872   2.983 -0.5090  0.1243  1.3367
49823SOL     OW54025   7.623   3.802   6.129 -0.4204  0.3870  0.4569
49823SOL    HW154026   7.606   3.793   6.222 -1.5173  2.4409  0.5297
49823SOL    HW254027   7.653   3.893   6.119 -1.8797  0.7305 -1.3518
49824SOL     OW54028   7.798   7.974   6.970  0.1505  0.0397  0.2003
49824SOL    HW154029   7.866   7.907   6.964  0.6668  0.6521 -2.1305
49824SOL    HW254030   7.716   7.925   6.967  0.5108 -0.5851  0.3385
49825SOL     OW54031   0.010   8.219   5.005  0.3374  0.2743  0.0567
49825SOL    HW154032  -0.042   8.146   4.971  0.8620 -0.0227 -0.1247
49825SOL    HW254033  -0.030   8.240   5.089 -0.7745  0.8027 -0.5816
49826SOL     OW54034   7.848   9.713   1.097 -0.2757 -0.1944 -0.0388
49826SOL    HW154035   7.803   9.773   1.036 -0.6658  1.7794  2.0688
49826SOL    HW254036   7.927   9.687   1.050  0.3845  2.7150 -0.7750
49827SOL     OW54037   8.147   8.370  10.813 -0.0156 -0.2854 -0.2716
49827SOL    HW154038   8.187   8.388  10.898 -0.6713  0.2370 -0.0642
49827SOL    HW254039   8.221   8.354  10.755  0.5586  1.3277 -0.0545
49828SOL     OW54040   9.790   7.855   1.291  0.4132  0.1700  0.4745
49828SOL    HW154041   9.793   7.763   1.315  1.4415 -0.6022 -2.2778
49828SOL    HW254042   9.710   7.888   1.332 -0.3472 -2.0976  0.9487
49829SOL     OW54043  10.259   2.508   0.373  0.1724  0.3173 -0.5689
49829SOL    HW154044  10.253   2.547   0.286 -0.9893  2.8427  0.5347
49829SOL    HW254045  10.178   2.459   0.383  1.7696 -2.9647 -2.0797
49830SOL     OW54046   9.832  11.241  10.470 -0.5905  0.1831  0.7921
49830SOL    HW154047   9.786  11.287  10.541 -0.8858 -1.0967  1.4506
49830SOL    HW254048   9.924  11.242  10.496 -0.2455  2.2341 -0.2455
49831SOL     OW54049   1.126   4.149   6.558  0.2088  0.2457  0.6886
49831SOL    HW154050   1.043   4.197   6.569  1.1993  2.0947  0.5551
49831SOL    HW254051   1.180   4.206   6.503  0.8135 -1.9356 -1.1411
49832SOL     OW54052  11.213   7.227   9.916 -0.1501 -0.8328 -0.0309
49832SOL    HW154053  11.205   7.203  10.008  1.2486 -1.9971 -0.1815
49832SOL    HW254054  11.246   7.148   9.873  1.0598  0.2610 -1.2118
49833SOL     OW54055   6.577   8.877   4.928 -0.1311 -0.2777 -0.2578
49833SOL    HW154056   6.632   8.804   4.900  1.4248  0.7367  0.0659
49833SOL    HW254057   6.531   8.844   5.005  0.2377 -1.0509 -0.3619
49834SOL     OW54058  12.009   5.865  10.417 -0.2061 -0.6115  0.0142
49834SOL    HW154059  12.017   5.814  10.336  0.1530 -1.6488  0.6881
49834SOL    HW254060  11.930   5.830  10.459 -2.0139  1.8084 -1.1726
49835SOL     OW54061   7.661   9.183   7.790  0.2181  0.4578  0.1689
49835SOL    HW154062   7.719   9.237   7.737  0.2865  2.4402  2.1065
49835SOL    HW254063   7.575   9.194   7.750  0.5175  0.6803 -0.4274
49836SOL     OW54064  11.157   6.237   3.904  0.7898  0.5982  0.0785
49836SOL    HW154065  11.130   6.149   3.877  1.5151  0.3355  0.1621
49836SOL    HW254066  11.087   6.294   3.875  0.2049 -0.0401  0.2093
49837SOL     OW54067  10.687   4.070  10.080 -0.5226  0.6887 -0.0803
49837SOL    HW154068  10.704   4.069   9.985 -1.9755 -0.5459 -0.3689
49837SOL    HW254069  10.661   3.980  10.100  2.1105  0.2683  1.9984
49838SOL     OW54070   6.596   3.917   1.391  0.1645  0.3893 -0.5009
49838SOL    HW154071   6.536   3.936   1.463  1.0784 -0.5513  0.5406
49838SOL    HW254072   6.682   3.945   1.422  0.6364 -0.3611 -1.0627
49839SOL     OW54073  11.600   8.449   3.005  0.0514  0.2891 -0.3443
49839SOL    HW154074  11.661   8.470   3.076  3.0835  2.1038 -3.1823
49839SOL    HW254075  11.586   8.355   3.012  3.7391 -0.3820  0.2561
49840SOL     OW54076   7.300   1.487   4.306  0.7599  0.1310 -0.3186
49840SOL    HW154077   7.268   1.551   4.369  1.6707 -0.5023  0.8389
49840SOL    HW254078   7.229   1.478   4.242  1.0450  3.0984 -1.1847
49841SOL     OW54079   1.314   4.570  11.555  0.2308  0.3261  0.8690
49841SOL    HW154080   1.300   4.636  11.486  0.0910  1.5068  1.9851
49841SOL    HW254081   1.333   4.622  11.634  1.4580 -1.0154  1.4946
49842SOL     OW54082   5.067  11.454   7.680  0.3003  0.1524  0.5586
49842SOL    HW154083   5.129  11.386   7.708 -0.2378 -0.1785  0.9751
49842SOL    HW254084   5.122  11.525   7.648  0.9060 -0.0531  1.1158
49843SOL     OW54085  10.942   4.079   9.833  0.3721 -0.3113  0.4305
49843SOL    HW154086  10.957   4.160   9.881  0.1506 -0.3331  0.5392
49843SOL    HW254087  10.959   4.010   9.897 -1.3394 -0.3296  0.9272
49844SOL     OW54088   7.921   0.893   3.743 -0.2874 -0.0104 -0.6483
49844SOL    HW154089   7.897   0.805   3.771 -0.8185  0.7157  1.3167
49844SOL    HW254090   7.940   0.884   3.649  1.5269 -2.5610 -0.1352
49845SOL     OW54091   4.719   9.039   5.655 -0.2023  0.2979  0.2767
49845SOL    HW154092   4.725   8.985   5.576 -1.8212  0.8743 -0.2688
49845SOL    HW254093   4.791   9.007   5.710 -1.1299 -2.5080  0.0430
49846SOL     OW54094   7.558   9.039   3.651  0.4676  0.0271 -0.2236
49846SOL    HW154095   7.533   8.969   3.711  0.1798  0.9996  0.8070
49846SOL    HW254096   7.641   9.009   3.613  0.1779 -1.0218 -0.0558
49847SOL     OW54097   5.131   2.864   6.029 -0.1664  0.0741 -0.2337
49847SOL    HW154098   5.154   2.945   5.985 -1.1153  0.5284  0.0892
49847SOL    HW254099   5.190   2.861   6.105  0.1702  0.2356 -0.4851
49848SOL     OW54100  11.570   8.822   1.238 -0.0432  0.0638 -0.1036
49848SOL    HW154101  11.638   8.883   1.265 -0.7612  1.6940 -1.7826
49848SOL    HW254102  11.505   8.825   1.309 -0.0730  1.2835 -0.1684
49849SOL     OW54103   8.361   1.764   3.879 -0.3570  0.0273  0.8406
49849SOL    HW154104   8.435   1.778   3.938 -1.1013  1.4629  1.4777
49849SOL    HW254105   8.381   1.818   3.803 -0.9910  0.8577  1.2500
49850SOL     OW54106   0.696  10.840   8.246  0.4658  0.1744  0.3789
49850SOL    HW154107   0.709  10.782   8.321 -1.6751  3.0985  3.2618
49850SOL    HW254108   0.642  10.789   8.185  1.1171 -1.8210  1.3900
49851SOL     OW54109   2.960   4.971   4.590 -0.6598 -0.4175  0.1663
49851SOL    HW154110   2.966   4.875   4.596  0.3147 -0.4435 -0.9921
49851SOL    HW254111   3.043   5.002   4.626 -0.3133 -0.0742 -0.9166
49852SOL     OW54112   3.394   8.872  11.837 -0.6680 -0.3461 -0.2710
49852SOL    HW154113   3.488   8.883  11.853 -0.7348  2.7588 -1.4447
49852SOL    HW254114   3.373   8.787  11.876  2.0475  0.1130  2.5543
49853SOL     OW54115   9.990   9.051   6.565  0.2749  0.1808  0.0425
49853SOL    HW154116  10.037   9.120   6.517 -0.6978  0.8586  0.0229
49853SOL    HW254117  10.025   9.054   6.653 -1.0119  2.0077  0.5657
49854SOL     OW54118   1.596   1.871   3.140 -0.9382 -0.2314 -0.2541
49854SOL    HW154119   1.535   1.876   3.213 -0.9132 -0.0043 -0.2478
49854SOL    HW254120   1.682   1.880   3.180 -0.6207 -3.7419  0.1682
49855SOL     OW54121   3.174   7.036   8.296 -0.0577 -0.1938 -0.0760
49855SOL    HW154122   3.229   6.966   8.261  1.6910 -0.9594  3.6624
49855SOL    HW254123   3.223   7.116   8.281  1.3209 -0.6656  1.5635
49856SOL     OW54124   8.188   0.551   5.931  0.3397  0.1711 -0.6276
49856SOL    HW154125   8.114   0.518   5.982 -1.1726 -0.3426 -2.9647
49856SOL    HW254126   8.264   0.539   5.988 -1.1040 -1.1193  1.1453
49857SOL     OW54127   1.280   7.499   2.168 -0.0687  0.5761 -0.0177
49857SOL    HW154128   1.319   7.425   2.122  0.7870  1.8099 -1.3412
49857SOL    HW254129   1.186   7.492   2.149 -0.3175 -1.2566  1.5219
49858SOL     OW54130   6.697  10.932  10.673  0.2545 -0.2401 -0.2740
49858SOL    HW154131   6.748  10.892  10.603  0.0252 -0.3287 -0.3908
49858SOL    HW254132   6.609  10.897  10.662 -0.4083  1.6418 -1.4912
49859SOL     OW54133   6.769   5.637   1.626  0.3327  0.0767  0.3199
49859SOL    HW154134   6.695   5.696   1.613  0.6497  0.7219  1.2830
49859SOL    HW254135   6.846   5.692   1.610  0.6154 -0.2979  0.3894
49860SOL     OW54136   5.066   2.875   3.098 -0.3093  0.0231  0.1331
49860SOL    HW154137   4.979   2.848   3.128 -1.3547  2.6171 -0.2023
49860SOL    HW254138   5.050   2.961   3.058  2.5132  0.8396  0.5904
49861SOL     OW54139   9.078   0.359   0.234 -0.1190 -0.1900 -0.0155
49861SOL    HW154140   9.143   0.312   0.183 -1.7425 -1.7952 -0.6862
49861SOL    HW254141   9.015   0.391   0.169 -0.4066  0.7108  0.6839
49862SOL     OW54142   7.509   2.991   6.058 -0.1109  0.5872 -0.1171
49862SOL    HW154143   7.495   2.903   6.094 -1.7970  0.4167 -1.1108
49862SOL    HW254144   7.583   2.980   5.998 -0.8450 -0.3604 -0.8741
49863SOL     OW54145   2.548   4.253  10.136  0.4126  0.0845 -0.3676
49863SOL    HW154146   2.582   4.170  10.169  0.5158 -0.5122 -1.8668
49863SOL    HW254147   2.589   4.320  10.190  2.0303 -0.7409 -0.5283
49864SOL     OW54148   2.084  10.081   9.883 -0.3925 -0.4538  0.2297
49864SOL    HW154149   2.090   9.989   9.910 -0.7820  0.0212  2.0879
49864SOL    HW254150   2.174  10.114   9.891 -0.7129  0.0593  2.6199
49865SOL     OW54151   1.266   9.957   5.046  0.2176  0.3895 -0.1717
49865SOL    HW154152   1.347   9.986   5.086  0.9272  2.2604 -2.6956
49865SOL    HW254153   1.289   9.875   5.002 -0.0345 -0.5555  1.3987
49866SOL     OW54154   8.843   7.262   8.524 -0.1898 -0.1541 -0.0397
49866SOL    HW154155   8.852   7.358   8.518 -2.4982  0.1449  0.2460
49866SOL    HW254156   8.773   7.249   8.588  1.0981 -2.1246  1.0621
49867SOL     OW54157   0.747   7.263   3.220  0.2987 -0.3789 -0.1741
49867SOL    HW154158   0.704   7.254   3.135 -0.8100 -2.2789  0.5315
49867SOL    HW254159   0.837   7.289   3.198 -0.5662  1.6164 -1.7776
49868SOL     OW54160  11.113   9.774  10.719 -0.2703  0.5440 -0.0347
49868SOL    HW154161  11.179   9.843  10.725 -0.4482  0.8489 -1.2625
49868SOL    HW254162  11.041   9.805  10.773  0.2387  0.6191  0.6119
49869SOL     OW54163   6.724   2.573   9.903 -0.5067 -0.0472  0.1466
49869SOL    HW154164   6.712   2.645   9.842 -0.5897  0.2070  0.4597
49869SOL    HW254165   6.752   2.615   9.985  2.4448 -0.6047 -0.4906
49870SOL     OW54166   8.124   0.280   7.673  0.3338  0.1259 -0.1579
49870SOL    HW154167   8.191   0.215   7.693  1.1464  1.0914  0.3630
49870SOL    HW254168   8.041   0.231   7.675  0.9136 -0.8619  0.2897
49871SOL     OW54169   9.739   8.462   8.360 -0.1786 -0.5775  0.1601
49871SOL    HW154170   9.755   8.460   8.266  0.5922 -0.2837  0.2736
49871SOL    HW254171   9.825   8.481   8.398 -0.7482  0.7090  0.8479
49872SOL     OW54172   0.298  10.559   5.431  0.3939  0.0245  0.3703
49872SOL    HW154173   0.209  10.570   5.465  0.0597  1.8754 -0.9381
49872SOL    HW254174   0.286  10.547   5.337  1.4867 -1.2311  0.3579
49873SOL     OW54175   9.426   4.017   4.390 -0.1135 -0.3977 -0.1129
49873SOL    HW154176   9.514   4.018   4.353 -0.2608  0.5294 -0.4663
49873SOL    HW254177   9.380   3.948   4.342  0.0720 -0.0707 -0.7783
49874SOL     OW54178   9.094   6.983   4.242  0.4260  0.1892 -0.6291
49874SOL    HW154179   9.106   7.059   4.186 -1.8368  1.4776  0.5162
49874SOL    HW254180   9.038   7.013   4.313  2.6175 -1.5194  2.0582
49875SOL     OW54181  10.523   6.049   9.572 -0.7298 -0.1803 -0.0470
49875SOL    HW154182  10.488   6.113   9.634 -1.4444 -0.0850 -0.5316
49875SOL    HW254183  10.526   6.095   9.489  1.2247  0.0252  0.0977
49876SOL     OW54184   1.250  11.461   1.766  0.2775 -0.3493 -0.1395
49876SOL    HW154185   1.199  11.394   1.811  0.4124 -0.9043 -0.7943
49876SOL    HW254186   1.192  11.537   1.763  0.1177 -0.4370  0.6022
49877SOL     OW54187  11.107   7.755  11.609 -0.4346 -0.0458 -0.4088
49877SOL    HW154188  11.060   7.714  11.682  0.5485 -1.2678 -0.4369
49877SOL    HW254189  11.136   7.839  11.644 -0.6112 -0.2945  0.3643
49878SOL     OW54190   9.937   4.701   0.070 -0.0576 -0.4762  0.2835
49878SOL    HW154191   9.864   4.640   0.059 -0.0836 -0.2674 -0.9146
49878SOL    HW254192  10.014   4.651   0.042 -0.1519  0.1651 -1.2578
49879SOL     OW54193   3.197  11.223   7.557  0.5456  0.0700 -0.0048
49879SOL    HW154194   3.268  11.282   7.534  0.3801  0.8434  1.3240
49879SOL    HW254195   3.211  11.203   7.650 -0.8902  0.1758  0.2699
49880SOL     OW54196  10.664   1.355   4.490  0.3507 -0.5792 -0.1531
49880SOL    HW154197  10.655   1.439   4.444  0.1127 -0.0055  0.9023
49880SOL    HW254198  10.580   1.311   4.477  1.1083 -1.5403 -2.3185
49881SOL     OW54199   3.900   1.942  10.804 -0.3955 -0.0520  0.0310
49881SOL    HW154200   3.913   1.849  10.792 -2.1066 -0.2365 -0.6869
49881SOL    HW254201   3.815   1.949  10.849 -0.4413  1.1634 -0.1935
49882SOL     OW54202  11.963   1.243   8.154 -0.0179 -0.4234  0.4779
49882SOL    HW154203  11.994   1.283   8.072 -0.8111  0.7693  0.7422
49882SOL    HW254204  11.905   1.173   8.126 -0.6532  0.2739 -0.0034
49883SOL     OW54205   4.648   9.971   8.447  0.4803 -0.1418 -0.6673
49883SOL    HW154206   4.564   9.999   8.411 -0.2210 -1.3344 -0.0386
49883SOL    HW254207   4.687   9.918   8.378  0.4937  0.0191 -0.7829
49884SOL     OW54208  10.906   6.007   7.655 -0.0548  0.5528  0.2624
49884SOL    HW154209  10.966   5.964   7.594  1.9453  0.6817  2.0524
49884SOL    HW254210  10.831   5.948   7.661 -0.1877  0.3951 -2.0343
49885SOL     OW54211   1.783   5.305   9.474 -0.4085  0.1467  0.5304
49885SOL    HW154212   1.738   5.389   9.480  1.3630  1.0442  2.2733
49885SOL    HW254213   1.806   5.283   9.564 -0.7466 -2.2021  0.1089
49886SOL     OW54214   2.142   3.525   3.204  0.1362 -0.4967 -0.7337
49886SOL    HW154215   2.105   3.596   3.150  0.8548 -0.7692 -1.6126
49886SOL    HW254216   2.215   3.491   3.152  0.7337 -0.9040  0.3380
49887SOL     OW54217   1.480   3.374   0.728 -0.0451 -0.0071  0.1097
49887SOL    HW154218   1.387   3.359   0.743 -0.2565  1.3529  0.3415
49887SOL    HW254219   1.512   3.411   0.811  0.5917 -0.0308 -0.1177
49888SOL     OW54220   4.461   1.719   4.414  0.4583 -0.3798 -0.4489
49888SOL    HW154221   4.404   1.711   4.337  2.1953  0.7539 -1.9519
49888SOL    HW254222   4.513   1.639   4.414 -0.2242 -0.8309  0.1576
49889SOL     OW54223   9.953   5.032   1.967 -0.1939  0.1963  0.3354
49889SOL    HW154224   9.979   5.030   1.875 -1.6782  0.3873 -0.1105
49889SOL    HW254225   9.884   4.966   1.974  0.9557 -0.9386  1.6769
49890SOL     OW54226   1.699   6.659   3.580 -0.1849 -0.0655 -0.2348
49890SOL    HW154227   1.607   6.631   3.578 -0.5372  1.0244  0.2561
49890SOL    HW254228   1.696   6.751   3.603  1.0885 -0.2313  0.6974
49891SOL     OW54229  11.552   2.366   1.437 -0.3573 -0.7650 -0.1248
49891SOL    HW154230  11.473   2.393   1.483  0.4864 -2.3065  2.3968
49891SOL    HW254231  11.532   2.278   1.405  0.2942 -1.1535  0.5061
49892SOL     OW54232   4.755  10.966   3.429 -0.1171 -0.3960 -0.8068
49892SOL    HW154233   4.842  10.982   3.463 -0.5251  0.6126 -0.1992
49892SOL    HW254234   4.700  10.955   3.506 -0.8766  0.9515 -1.1291
49893SOL     OW54235   6.694   3.406   1.422 -0.0102  0.1866 -0.4820
49893SOL    HW154236   6.689   3.474   1.490  1.5457  0.0246 -0.1734
49893SOL    HW254237   6.746   3.446   1.352 -0.6731 -0.0385 -1.1152
49894SOL     OW54238  10.027   6.903   5.084 -0.2002  0.4335  0.1797
49894SOL    HW154239  10.078   6.826   5.109 -1.8153 -0.3220  1.3491
49894SOL    HW254240  10.042   6.912   4.990  0.5232 -0.9193  0.1400
49895SOL     OW54241   7.435   0.719   8.274 -0.3578  0.9856  0.8017
49895SOL    HW154242   7.382   0.646   8.307  2.5506 -1.1441  1.1480
49895SOL    HW254243   7.408   0.729   8.183 -0.1756 -1.2615  0.4380
49896SOL     OW54244   3.584  10.304   6.192  0.3011 -0.0725 -0.3583
49896SOL    HW154245   3.489  10.310   6.198  0.2842  1.3508 -1.6431
49896SOL    HW254246   3.600  10.261   6.108  0.8044  0.1642 -0.3867
49897SOL     OW54247  10.321  11.152   4.771 -0.2832  0.0745 -0.1108
49897SOL    HW154248  10.333  11.061   4.800 -1.5280  0.5260  2.0116
49897SOL    HW254249  10.349  11.205   4.845  0.8935  1.5024 -1.4872
49898SOL     OW54250  10.101  11.555   2.066 -0.1136 -0.0533 -0.1916
49898SOL    HW154251  10.021  11.599   2.037 -1.5068 -1.5176  1.1758
49898SOL    HW254252  10.161  11.626   2.087 -1.0297  1.1038 -1.2842
49899SOL     OW54253   5.640   7.981   6.566  0.5737 -0.1023 -0.2290
49899SOL    HW154254   5.677   8.034   6.637 -0.4648 -0.7960  0.8622
49899SOL    HW254255   5.629   7.894   6.604  0.8983 -0.7422 -1.5508
49900SOL     OW54256   8.677   8.081  10.320 -0.4034  0.0921 -0.3811
49900SOL    HW154257   8.721   8.018  10.377 -0.3640  0.2225 -0.2681
49900SOL    HW254258   8.675   8.163  10.370 -0.0615  0.3008 -0.6922
49901SOL     OW54259   5.554   4.905   7.267  0.2470 -0.4903 -0.0722
49901SOL    HW154260   5.612   4.975   7.238 -0.7120 -0.4484 -2.0775
49901SOL    HW254261   5.468   4.946   7.276 -0.8477 -1.7020 -3.4967
49902SOL     OW54262  11.452   8.250   3.381 -0.5831  0.0763  0.2124
49902SOL    HW154263  11.539   8.211   3.389  0.1437  1.5284 -0.2595
49902SOL    HW254264  11.397   8.198   3.440  0.6634 -0.6769  0.7548
49903SOL     OW54265   0.869   6.560   3.701 -0.0658  0.5874  0.0303
49903SOL    HW154266   0.921   6.501   3.756  2.4303  1.1216 -1.5957
49903SOL    HW254267   0.821   6.502   3.642 -1.0748  0.0867  1.3207
49904SOL     OW54268   2.279   3.555   6.668  0.1444 -0.3216  0.0505
49904SOL    HW154269   2.246   3.571   6.579  0.0793  2.1409  0.4422
49904SOL    HW254270   2.348   3.620   6.680  0.2014 -0.6563  1.7619
49905SOL     OW54271   0.144  11.091   2.068  0.4463  0.0183 -0.1662
49905SOL    HW154272   0.074  11.132   2.119 -0.3901  0.6140 -1.7159
49905SOL    HW254273   0.213  11.075   2.132 -1.1971 -0.8748  1.4901
49906SOL     OW54274   4.048   6.498   6.542 -0.3407  0.1593  0.2134
49906SOL    HW154275   4.080   6.513   6.630 -0.5036  0.6480  0.1941
49906SOL    HW254276   4.025   6.405   6.540  0.2956 -0.0027  0.4744
49907SOL     OW54277  10.930   1.138   9.161  0.2927  0.4840 -0.0220
49907SOL    HW154278  10.976   1.099   9.086 -1.8561 -0.6567 -0.8332
49907SOL    HW254279  10.838   1.116   9.146 -0.0201 -2.0293  4.2236
49908SOL     OW54280   5.054   8.759   3.429  0.1878  0.2675  0.1325
49908SOL    HW154281   5.065   8.853   3.442  0.3380 -0.0311  2.4476
49908SOL    HW254282   5.021   8.726   3.512 -1.1929 -1.5563 -1.0527
49909SOL     OW54283   6.466   2.481   9.950 -0.6693  0.6972 -0.0493
49909SOL    HW154284   6.555   2.494   9.918 -0.3694  0.5830  0.7147
49909SOL    HW254285   6.411   2.489   9.872 -0.0468  1.3673 -0.4327
49910SOL     OW54286  10.033  10.479   0.771  0.2704 -0.1965 -0.0414
49910SOL    HW154287   9.994  10.533   0.702  1.5275  0.1752 -0.4846
49910SOL    HW254288  10.046  10.394   0.730  1.0223  0.0255 -0.2701
49911SOL     OW54289   6.501   2.697   7.391 -0.1398  0.4432 -0.1413
49911SOL    HW154290   6.488   2.791   7.378 -1.0257  0.1761 -1.2998
49911SOL    HW254291   6.580   2.677   7.341 -0.9307  0.2797 -1.3816
49912SOL     OW54292  11.894   6.045   9.543  0.1828  0.3634 -0.2289
49912SOL    HW154293  11.839   6.122   9.558 -1.8492 -0.9496 -0.4786
49912SOL    HW254294  11.849   5.975   9.590  1.8222 -0.7317 -0.2436
49913SOL     OW54295   7.777   6.271   5.268 -0.0807 -0.1565 -0.4088
49913SOL    HW154296   7.833   6.199   5.240 -0.3501 -0.8122  0.6485
49913SOL    HW254297   7.744   6.310   5.187 -0.1209 -1.3818 -1.0062
49914SOL     OW54298   1.658   6.886   7.011  0.3350 -0.5360 -0.2386
49914SOL    HW154299   1.615   6.803   7.032 -1.2911  0.2715 -0.2590
49914SOL    HW254300   1.706   6.909   7.090  2.0838 -2.2161 -0.7276
49915SOL     OW54301  11.255   6.814   3.562 -0.3537 -0.2884  0.1423
49915SOL    HW154302  11.247   6.724   3.529  0.8925 -0.6703  0.8060
49915SOL    HW254303  11.168   6.835   3.596 -0.5709 -1.3937  0.3124
49916SOL     OW54304   7.739   1.780   3.559  0.4474 -1.0586 -0.5293
49916SOL    HW154305   7.775   1.692   3.547 -1.0374 -1.7035 -0.4358
49916SOL    HW254306   7.786   1.814   3.635  1.6583 -1.4133 -1.0829
49917SOL     OW54307   9.460  11.321   2.006 -0.2636  0.5630 -0.0312
49917SOL    HW154308   9.489  11.300   2.095 -1.4577 -1.4932 -0.0823
49917SOL    HW254309   9.444  11.415   2.008 -0.8835  0.4687  2.1268
49918SOL     OW54310   6.571   2.617   3.997  0.3572 -0.1477 -0.1109
49918SOL    HW154311   6.564   2.698   4.048  1.8992  1.4459 -2.2450
49918SOL    HW254312   6.485   2.575   4.007 -0.6920  2.0285  0.6227
49919SOL     OW54313   8.693   8.277  12.020  0.0951  0.9333 -0.4944
49919SOL    HW154314   8.720   8.332  11.946 -3.0531  0.4135 -2.2283
49919SOL    HW254315   8.610   8.315  12.049 -1.7521 -2.2312 -1.1717
49920SOL     OW54316   1.597   1.783  11.377  0.6830 -0.7217  0.0458
49920SOL    HW154317   1.594   1.819  11.288 -0.2033  1.0014  0.7414
49920SOL    HW254318   1.688   1.793  11.404  0.7011 -0.1470 -0.2285
49921SOL     OW54319   5.798   6.787   7.015 -0.2268  0.2970  0.7381
49921SOL    HW154320   5.762   6.787   6.926  0.1157 -0.7944  0.5929
49921SOL    HW254321   5.828   6.878   7.028  1.6707  0.0245 -1.0760
49922SOL     OW54322   6.880   1.243   6.276  0.1676 -0.5198  0.5486
49922SOL    HW154323   6.828   1.294   6.215 -0.6947 -0.9029  0.9486
49922SOL    HW254324   6.870   1.152   6.247  0.4014 -0.6222  0.7837
49923SOL     OW54325   3.107   9.624   0.197  0.1859  0.3272 -0.1354
49923SOL    HW154326   3.169   9.598   0.129 -1.6138 -1.0067 -1.3986
49923SOL    HW254327   3.045   9.682   0.152 -1.3953 -1.0682  0.1050
49924SOL     OW54328   1.148  11.267   7.831  0.1415 -0.0294 -0.2926
49924SOL    HW154329   1.143  11.204   7.903 -1.4834 -1.3099 -1.4192
49924SOL    HW254330   1.241  11.270   7.807  0.4243 -1.0622  0.6073
49925SOL     OW54331   9.799  10.641   1.605  0.3897  0.0209 -0.0908
49925SOL    HW154332   9.829  10.567   1.658  0.2055 -0.2335 -0.3395
49925SOL    HW254333   9.864  10.710   1.619 -0.3104  0.4085  1.4763
49926SOL     OW54334   4.774   7.431   9.608 -0.1422 -0.1698  0.7143
49926SOL    HW154335   4.731   7.346   9.603 -0.5779 -0.0088  1.5596
49926SOL    HW254336   4.774   7.463   9.518  0.0631 -1.0800  0.3820
49927SOL     OW54337  10.025   6.158   8.246  0.3275  0.4400  0.2063
49927SOL    HW154338  10.069   6.233   8.287  0.3097  0.6632 -0.1808
49927SOL    HW254339   9.952   6.138   8.304  0.0709  1.0026  0.0763
49928SOL     OW54340   2.151   4.732   6.518 -0.0608  0.2718 -0.0469
49928SOL    HW154341   2.124   4.810   6.468 -0.5367  0.0102 -0.2108
49928SOL    HW254342   2.236   4.755   6.554  0.9140  0.0251 -2.0240
49929SOL     OW54343   0.626   8.006   5.114 -0.5057  0.3594  0.3852
49929SOL    HW154344   0.570   7.930   5.096 -0.6922  0.6806 -0.4645
49929SOL    HW254345   0.714   7.975   5.093 -0.8377  1.1017 -2.6306
49930SOL     OW54346  12.015   2.684   2.712 -0.0879 -0.0193  0.7464
49930SOL    HW154347  11.960   2.750   2.753  1.7051  1.7639  0.4097
49930SOL    HW254348  11.953   2.625   2.668 -1.6964  2.7237 -0.8970
49931SOL     OW54349   7.078   6.141   3.086  0.2211  0.3964  0.1356
49931SOL    HW154350   7.101   6.114   2.997  1.4550 -0.9727  0.8358
49931SOL    HW254351   7.076   6.237   3.082  2.5788  0.4686 -0.8232
49932SOL     OW54352  11.284   6.693   1.115 -0.6084  0.2150  0.1079
49932SOL    HW154353  11.322   6.777   1.139  3.3259 -1.4584  0.4655
49932SOL    HW254354  11.314   6.677   1.026 -1.5750 -0.6697 -0.0803
49933SOL     OW54355   5.125   1.416   3.847 -0.2508  0.2338  0.0316
49933SOL    HW154356   5.124   1.488   3.911 -0.9789 -0.5745  0.9622
49933SOL    HW254357   5.035   1.414   3.813 -0.0430  0.2166 -0.5262
49934SOL     OW54358   9.903   4.931  12.044 -0.1115  0.1603  0.1163
49934SOL    HW154359   9.984   4.976  12.069 -1.0976  1.7940  0.4894
49934SOL    HW254360   9.920   4.839  12.064  1.8705  0.3485 -0.3965
49935SOL     OW54361   6.647   2.949  11.074 -0.1730  0.1350  0.4617
49935SOL    HW154362   6.742   2.963  11.067  0.1106 -0.8046  1.8595
49935SOL    HW254363   6.619   3.013  11.139 -0.5481  0.5856 -0.1431
49936SOL     OW54364   5.381   9.134   3.045 -0.3971  0.0724 -0.0031
49936SOL    HW154365   5.315   9.138   3.114  0.5488  1.0547  0.8927
49936SOL    HW254366   5.336   9.167   2.967 -1.4363 -0.9081  0.1649
49937SOL     OW54367  11.494   1.268  10.616 -0.4960  0.0778 -0.6300
49937SOL    HW154368  11.409   1.302  10.644 -0.4670 -1.7508  2.0728
49937SOL    HW254369  11.476   1.224  10.532 -2.1981 -0.1587 -0.1779
49938SOL     OW54370   3.249   6.327   7.415 -1.0153 -0.2938 -0.1001
49938SOL    HW154371   3.332   6.330   7.366 -0.4641  1.8720  0.8185
49938SOL    HW254372   3.185   6.364   7.354 -0.5584  1.3360  0.3651
49939SOL     OW54373   9.539   5.077   8.802  0.6766  0.1772  0.2573
49939SOL    HW154374   9.490   5.147   8.845 -0.7737  0.1707 -1.2823
49939SOL    HW254375   9.561   5.113   8.716  0.0567 -1.1946 -0.4927
49940SOL     OW54376   0.587   7.465   5.470 -0.3454  0.8427 -0.5882
49940SOL    HW154377   0.618   7.555   5.474 -0.1732  0.7573  0.0762
49940SOL    HW254378   0.641   7.425   5.402  0.5290  0.8864  0.0665
49941SOL     OW54379   3.911   6.235   4.013 -0.1217  0.5943  0.4288
49941SOL    HW154380   3.967   6.187   3.952 -1.5026  1.6159 -1.7733
49941SOL    HW254381   3.955   6.318   4.026 -0.3271  0.7862 -0.0584
49942SOL     OW54382  10.463   1.569   7.676  0.4326  0.2061 -0.2196
49942SOL    HW154383  10.407   1.633   7.632 -0.6028 -0.3679  0.2228
49942SOL    HW254384  10.491   1.612   7.756 -0.0196  0.2187 -0.0660
49943SOL     OW54385   1.131   1.684   0.076  0.1898 -0.1545  0.7677
49943SOL    HW154386   1.156   1.765   0.031 -1.8130 -0.7609 -1.6457
49943SOL    HW254387   1.090   1.714   0.158  0.4843  1.1925  0.4470
49944SOL     OW54388   6.127   9.232   7.483 -0.0298  0.3298  0.1506
49944SOL    HW154389   6.075   9.160   7.448 -2.2167  0.4633  2.7721
49944SOL    HW254390   6.150   9.204   7.572  1.8728  1.5676  0.1089
49945SOL     OW54391   4.995   2.529   1.049 -0.0412 -0.3435  0.5711
49945SOL    HW154392   4.991   2.435   1.068  0.7769 -1.1424 -2.6965
49945SOL    HW254393   4.903   2.554   1.035 -0.2238 -0.7380  1.0190
49946SOL     OW54394   6.694   3.677   8.398 -0.1486  0.1363  0.3405
49946SOL    HW154395   6.607   3.718   8.390 -0.2887 -0.2127  0.0725
49946SOL    HW254396   6.685   3.593   8.354 -0.0482 -0.4694  1.4339
49947SOL     OW54397   6.543   8.849   4.200  0.2532  0.1220  0.4755
49947SOL    HW154398   6.569   8.757   4.199  0.1204  0.0692  1.2018
49947SOL    HW254399   6.566   8.880   4.287 -0.0098  0.6868  0.3518
49948SOL     OW54400   9.791   4.106   8.988  0.0126  0.4269  0.0118
49948SOL    HW154401   9.789   4.023   9.035 -0.3169 -0.1167 -0.9321
49948SOL    HW254402   9.760   4.170   9.052  0.9733 -0.0449  0.9791
49949SOL     OW54403   3.860   1.199   4.211 -0.4616 -0.4072  0.5202
49949SOL    HW154404   3.772   1.174   4.183 -0.2504 -1.3031  0.6237
49949SOL    HW254405   3.906   1.116   4.220  1.6922  0.1003 -3.6040
49950SOL     OW54406   7.423   2.465  10.232 -0.3905 -0.1719  0.3515
49950SOL    HW154407   7.346   2.509  10.268  0.2764  1.8612 -0.5807
49950SOL    HW254408   7.497   2.517  10.262  0.3418  0.1828 -1.8895
49951SOL     OW54409   4.459   6.540   8.897  0.3054  0.2142  0.0675
49951SOL    HW154410   4.468   6.517   8.990 -0.6945 -0.4617  0.0006
49951SOL    HW254411   4.532   6.600   8.881  1.9907 -1.5593  0.6720
49952SOL     OW54412  11.979   4.346   5.706  0.5248  0.5396 -0.4119
49952SOL    HW154413  11.996   4.251   5.703  2.1774  0.8147 -1.0119
49952SOL    HW254414  11.885   4.353   5.722 -0.2345 -1.2190 -3.2537
49953SOL     OW54415   7.627   3.578  10.808  0.0794  0.2026  0.3986
49953SOL    HW154416   7.721   3.561  10.806  0.3993  1.8531 -1.1798
49953SOL    HW254417   7.609   3.620  10.724 -2.2592 -0.9492  0.2506
49954SOL     OW54418   0.245   4.133   6.899  0.7812 -0.4018  0.0297
49954SOL    HW154419   0.311   4.129   6.968  1.0413  1.7944 -0.0191
49954SOL    HW254420   0.289   4.178   6.826  0.3891 -2.3243 -1.4683
49955SOL     OW54421   3.664  10.509   8.563  0.4784 -0.4620 -0.2656
49955SOL    HW154422   3.657  10.537   8.654  0.3835  0.0175 -0.4188
49955SOL    HW254423   3.685  10.588   8.514 -0.5996 -0.4821 -0.8063
49956SOL     OW54424   1.418   9.979   3.208 -0.4399 -0.8320  0.2116
49956SOL    HW154425   1.379  10.000   3.293  0.7019  2.0377  0.1538
49956SOL    HW254426   1.512   9.995   3.221 -0.2056 -0.6364 -1.4776
49957SOL     OW54427   5.060   3.619   3.571  0.3525 -0.3497 -0.1049
49957SOL    HW154428   5.054   3.572   3.654 -0.2959 -1.2538 -0.6561
49957SOL    HW254429   5.149   3.654   3.570  0.2451  0.0051  1.1383
49958SOL     OW54430   4.058   0.658  10.171  0.3244  0.4269 -0.1202
49958SOL    HW154431   4.101   0.584  10.214 -0.1827  0.3565  0.2800
49958SOL    HW254432   4.096   0.661  10.084  0.7733  0.0570  0.0624
49959SOL     OW54433  10.505   6.594   4.673  0.1392 -0.0890 -0.4490
49959SOL    HW154434  10.467   6.510   4.648  1.0549 -1.4828  2.4611
49959SOL    HW254435  10.438   6.637   4.726 -0.4517  1.2581 -2.1769
49960SOL     OW54436   1.495  10.631   3.665 -1.1290  0.2125  0.3860
49960SOL    HW154437   1.458  10.548   3.697 -1.5741 -0.1121 -0.9030
49960SOL    HW254438   1.419  10.684   3.642 -0.8301  0.2900 -0.4580
49961SOL     OW54439   0.199   9.198  11.356 -0.1384  0.2117 -0.3679
49961SOL    HW154440   0.177   9.114  11.316 -2.1994  0.4903  0.0653
49961SOL    HW254441   0.117   9.228  11.395  0.4446  2.6170 -0.8430
49962SOL     OW54442   9.036   9.235   8.655 -0.1164 -0.3793 -0.4281
49962SOL    HW154443   8.957   9.207   8.701  0.1969  0.5843  0.7316
49962SOL    HW254444   9.101   9.168   8.674  0.3541  0.5556  1.5578
49963SOL     OW54445   0.644   1.827   7.305  0.0323 -0.0647  0.6744
49963SOL    HW154446   0.601   1.825   7.391 -0.1656 -3.1487  0.5849
49963SOL    HW254447   0.737   1.830   7.325  0.0256  3.1912  0.8647
49964SOL     OW54448  11.949  12.038   9.283 -0.5344  0.1691  0.0465
49964SOL    HW154449  11.991  12.032   9.368 -1.9526 -1.1674  0.7172
49964SOL    HW254450  12.006  12.094   9.230  2.0883 -1.6338  0.8300
49965SOL     OW54451   3.035  10.747   6.003 -0.0886 -0.1068 -0.0131
49965SOL    HW154452   3.042  10.691   6.080  0.8508  1.3268  0.9923
49965SOL    HW254453   2.952  10.721   5.962 -0.5486 -0.9834  1.4062
49966SOL     OW54454   0.272   6.822   8.926 -0.2385  0.0845  0.3073
49966SOL    HW154455   0.306   6.756   8.986  0.5320 -0.4084 -0.6558
49966SOL    HW254456   0.294   6.790   8.839  1.4320  2.2941 -0.1595
49967SOL     OW54457   0.928  11.663  11.547  0.2475  0.2015 -0.6013
49967SOL    HW154458   0.951  11.710  11.627  0.2513  0.2553 -0.6345
49967SOL    HW254459   0.946  11.571  11.567 -3.1286 -0.3121  0.7471
49968SOL     OW54460   9.075   3.731   3.829  0.5399  0.0298  0.0899
49968SOL    HW154461   8.990   3.717   3.789  1.1124 -0.7758 -0.8986
49968SOL    HW254462   9.084   3.826   3.834 -0.6904  0.1284  0.8570
49969SOL     OW54463   5.781  10.461   4.592 -0.0749 -0.1486  0.0417
49969SOL    HW154464   5.705  10.504   4.553  0.1627 -0.0711 -0.3447
49969SOL    HW254465   5.755  10.369   4.602 -0.0922 -0.1948 -0.4232
49970SOL     OW54466   0.433  10.628   6.515  0.6239  0.3506 -0.3282
49970SOL    HW154467   0.374  10.623   6.591 -0.0272 -2.0636 -0.9001
49970SOL    HW254468   0.521  10.621   6.553  0.2654 -2.0266  0.2141
49971SOL     OW54469   0.003   7.542   2.738 -0.2009  0.4320  0.1599
49971SOL    HW154470  -0.009   7.450   2.764 -0.9653  0.4273 -0.1800
49971SOL    HW254471  -0.020   7.592   2.817  0.0038  0.3378  0.2796
49972SOL     OW54472   5.756  11.788   5.501  0.0328  0.0142 -0.6005
49972SOL    HW154473   5.845  11.814   5.476  0.5127 -0.7138  0.2848
49972SOL    HW254474   5.724  11.860   5.556 -0.9111  1.4747 -2.9363
49973SOL     OW54475   2.319   3.331  10.058  0.0908 -0.0071  0.4163
49973SOL    HW154476   2.282   3.387  10.126 -0.3036 -0.5681  0.6615
49973SOL    HW254477   2.411   3.318  10.084 -0.4018 -1.3557  1.5921
49974SOL     OW54478   8.658   3.802   3.586  0.3391  0.4667  0.0141
49974SOL    HW154479   8.683   3.875   3.530 -0.9180  1.4841  0.7312
49974SOL    HW254480   8.628   3.843   3.667 -0.4581 -0.8372  0.4059
49975SOL     OW54481  10.123   3.166   7.611  0.2316  0.3436  0.4635
49975SOL    HW154482  10.083   3.086   7.575  0.9987 -0.2241  0.8373
49975SOL    HW254483  10.062   3.195   7.679  0.5656 -0.6692  1.2180
49976SOL     OW54484   9.886  10.421  11.453 -0.1930  0.0159 -0.0561
49976SOL    HW154485   9.978  10.403  11.470  0.6924  1.4575 -2.7192
49976SOL    HW254486   9.878  10.417  11.358 -2.8289  0.3285  0.0676
49977SOL     OW54487  10.068   5.916   5.507 -0.0728  0.1442  0.1205
49977SOL    HW154488  10.060   5.821   5.495 -1.0614  0.2771 -0.4254
49977SOL    HW254489   9.981   5.944   5.535 -0.5607  1.2136 -2.2339
49978SOL     OW54490  10.628   9.534   6.661 -0.4355  0.1430  0.2382
49978SOL    HW154491  10.667   9.447   6.659 -2.0539 -0.6089 -0.4174
49978SOL    HW254492  10.606   9.549   6.753 -1.4197 -0.7582  0.1625
49979SOL     OW54493   0.371   9.031   1.429  0.2406  0.4308 -0.1134
49979SOL    HW154494   0.398   9.122   1.444  0.9816  0.2140 -0.1206
49979SOL    HW254495   0.417   9.005   1.349 -0.2433  0.1570 -0.3052
49980SOL     OW54496   8.530   6.681   9.984  0.1215 -0.5280 -0.5195
49980SOL    HW154497   8.617   6.671   9.945  0.8284  0.2202  0.8102
49980SOL    HW254498   8.513   6.775   9.982  0.0590 -0.4970  0.7024
49981SOL     OW54499   3.758   1.462   2.399  0.9742 -0.2191  0.4761
49981SOL    HW154500   3.701   1.531   2.432  0.0408 -0.9443  0.4327
49981SOL    HW254501   3.847   1.494   2.415  0.5733  0.0510  2.4950
49982SOL     OW54502   7.294   6.685   9.359  0.3052  0.9064 -0.5277
49982SOL    HW154503   7.288   6.686   9.455 -0.4821  2.0158 -0.5618
49982SOL    HW254504   7.254   6.603   9.333  1.5915  0.0320  0.1287
49983SOL     OW54505   6.812  10.523   1.343  0.6668  0.3216  0.3700
49983SOL    HW154506   6.820  10.605   1.294 -0.7277  0.1453 -0.1899
49983SOL    HW254507   6.866  10.461   1.293 -0.2041  0.3122 -0.5983
49984SOL     OW54508   2.912  10.274   2.855  0.2572  0.2731  0.5606
49984SOL    HW154509   2.834  10.329   2.857  0.2564  0.4540 -1.5929
49984SOL    HW254510   2.912  10.236   2.767  1.9276 -0.7238  0.9437
49985SOL     OW54511   2.623  11.455   3.874 -0.2480 -0.3913 -0.3092
49985SOL    HW154512   2.593  11.472   3.963 -2.7552 -2.1331 -0.7068
49985SOL    HW254513   2.640  11.541   3.837  0.6003  0.3809  1.7211
49986SOL     OW54514   7.435   7.817  10.486  0.0314 -0.4650 -0.0188
49986SOL    HW154515   7.443   7.807  10.391 -0.6878 -0.2456 -0.1098
49986SOL    HW254516   7.398   7.734  10.516 -0.6651 -0.1783 -0.0619
49987SOL     OW54517   5.252  10.521  12.001 -0.2023 -0.0326 -0.6290
49987SOL    HW154518   5.180  10.482  11.951 -1.1083 -0.6757  1.1029
49987SOL    HW254519   5.294  10.447  12.044 -0.6331  0.6526  1.0346
49988SOL     OW54520   3.665   3.956   9.389 -0.8133 -0.5080  0.0114
49988SOL    HW154521   3.587   3.933   9.440 -1.6599  1.5446 -0.2591
49988SOL    HW254522   3.667   3.892   9.318 -1.2216 -1.6754  1.0142
49989SOL     OW54523   4.824   0.167  10.126 -0.0012 -0.6033  0.1058
49989SOL    HW154524   4.820   0.215  10.209  2.3309  0.9926 -0.6028
49989SOL    HW254525   4.909   0.125  10.126  0.0360 -0.5892 -1.4591
49990SOL     OW54526  11.945   1.697   0.873 -0.1789 -0.0852 -0.0660
49990SOL    HW154527  11.949   1.755   0.948  2.8898 -0.3425  0.0814
49990SOL    HW254528  11.924   1.611   0.910  0.0883  0.0161  0.3201
49991SOL     OW54529   3.777  11.166  11.049  0.3732 -0.4274 -0.2156
49991SOL    HW154530   3.684  11.172  11.068  0.2481 -0.4976 -0.7741
49991SOL    HW254531   3.820  11.214  11.120 -0.0809 -0.4824  0.0958
49992SOL     OW54532   3.030   8.011  10.716 -0.2204 -0.2242 -0.1123
49992SOL    HW154533   2.970   8.064  10.769  1.0654  0.9065  0.2665
49992SOL    HW254534   2.978   7.986  10.640 -1.2917  0.3822  0.3868
49993SOL     OW54535   8.952   1.979   0.636 -0.5310  0.0626  0.3962
49993SOL    HW154536   9.039   1.947   0.657 -1.2492 -1.1959  1.5908
49993SOL    HW254537   8.954   1.994   0.541  0.8228 -0.4075  0.3318
49994SOL     OW54538   1.820  10.034   2.077 -0.0644  0.3801  0.0292
49994SOL    HW154539   1.770   9.976   2.136 -0.1286  0.8934  0.4915
49994SOL    HW254540   1.910  10.028   2.109 -0.3472  1.8878  1.2279
49995SOL     OW54541   2.437   5.306   8.221  0.3104  0.0963  0.2833
49995SOL    HW154542   2.407   5.248   8.291 -0.6383 -1.7842 -1.5683
49995SOL    HW254543   2.358   5.354   8.194  0.3387 -0.2347 -0.4153
49996SOL     OW54544   5.133   7.882   7.055 -0.1515 -0.3451 -0.5525
49996SOL    HW154545   5.115   7.806   6.999  2.0338 -0.1060 -1.7015
49996SOL    HW254546   5.172   7.844   7.134 -1.9759 -0.5868  0.2773
49997SOL     OW54547   7.281   4.330   6.936 -0.4663 -0.1341 -0.1182
49997SOL    HW154548   7.311   4.390   7.005  0.1853 -0.6893  0.0920
49997SOL    HW254549   7.186   4.322   6.951 -0.2760 -0.5723  0.9905
49998SOL     OW54550   8.670   0.824  10.654 -0.3520 -0.7257 -0.5952
49998SOL    HW154551   8.589   0.804  10.701  0.0715  0.2455  0.6138
49998SOL    HW254552   8.685   0.748  10.598 -2.4753 -0.6192 -1.4110
49999SOL     OW54553   6.486   8.128   3.851  0.4016  0.2864  0.1299
49999SOL    HW154554   6.564   8.184   3.847  0.1378  0.6085 -0.6243
49999SOL    HW254555   6.475   8.109   3.944  1.3071  0.3492  0.2586
50000SOL     OW54556  11.305   9.016   2.082 -0.4481 -0.1803 -0.7554
50000SOL    HW154557  11.244   9.063   2.026 -1.0035 -0.9306 -0.7876
50000SOL    HW254558  11.374   9.080   2.100 -0.7672  0.3856 -1.4674
50001SOL     OW54559   2.654  10.741   6.121 -0.1967 -0.2611  0.1249
50001SOL    HW154560   2.624  10.756   6.032  0.1744  0.9756  0.1922
50001SOL    HW254561   2.668  10.646   6.126 -0.3948 -0.3662 -1.0624
50002SOL     OW54562   5.533   1.201   8.728  0.2719 -0.0821  0.0748
50002SOL    HW154563   5.456   1.256   8.743  0.7683  0.6852 -0.0880
50002SOL    HW254564   5.535   1.141   8.802 -0.4810 -0.1143  0.0790
50003SOL     OW54565   4.145  10.419  11.346  0.3810  0.3817 -0.1363
50003SOL    HW154566   4.104  10.356  11.405  1.5480 -0.3378 -0.0513
50003SOL    HW254567   4.086  10.427  11.272 -0.6731  0.6072  0.7113
50004SOL     OW54568   2.119   8.939   6.696 -0.0915 -0.5041 -0.0903
50004SOL    HW154569   2.190   8.875   6.704 -0.1118 -0.6279 -0.8663
50004SOL    HW254570   2.164   9.023   6.682 -0.0750 -0.4076  0.5276
50005SOL     OW54571   4.390   7.278  10.204  0.2129 -0.0307  0.0893
50005SOL    HW154572   4.377   7.299  10.297 -0.3753  2.5578 -0.5178
50005SOL    HW254573   4.402   7.183  10.203 -0.0187 -0.1624  2.7835
50006SOL     OW54574   8.799   5.047  10.500  0.1045 -0.3771 -0.9084
50006SOL    HW154575   8.817   4.970  10.552 -0.1934  1.4434  2.1187
50006SOL    HW254576   8.713   5.031  10.460  0.5538 -2.0099 -1.2666
50007SOL     OW54577   2.355   4.682   6.935 -0.7056 -0.1985  0.1293
50007SOL    HW154578   2.339   4.763   6.985  0.2509  0.5115 -0.6709
50007SOL    HW254579   2.433   4.645   6.976 -0.0506  0.2691 -0.6710
50008SOL     OW54580  10.656   3.000   6.296 -0.1614 -0.1458  0.3830
50008SOL    HW154581  10.572   3.045   6.285 -1.4068 -1.9965  1.5753
50008SOL    HW254582  10.700   3.010   6.212 -2.1144 -0.0820 -0.6970
50009SOL     OW54583   9.547  10.606   3.300 -0.0341  0.5333 -0.2861
50009SOL    HW154584   9.562  10.511   3.299 -0.0474  0.4865  1.0570
50009SOL    HW254585   9.536  10.630   3.208 -2.6751 -1.1977 -0.5556
50010SOL     OW54586   3.933  10.886   6.009  0.1613  0.6577  0.2965
50010SOL    HW154587   3.947  10.924   6.096 -0.3970  0.2207  0.5882
50010SOL    HW254588   4.018  10.893   5.966  1.0440 -1.0098  1.6329
50011SOL     OW54589   9.649   2.169  10.927  0.2743  0.1733  0.3198
50011SOL    HW154590   9.573   2.187  10.982 -0.0858  3.6556 -1.0877
50011SOL    HW254591   9.719   2.148  10.989 -1.6788 -3.1773  1.6508
50012SOL     OW54592   9.133   6.076  12.013 -0.3359  0.1959  0.2977
50012SOL    HW154593   9.107   6.045  12.100 -1.3731  0.0663 -0.0486
50012SOL    HW254594   9.215   6.030  11.995 -0.8879 -0.9295  0.5719
50013SOL     OW54595   9.714  11.885  10.219 -0.3730  0.0529  0.7413
50013SOL    HW154596   9.800  11.846  10.204  0.1690  0.8174  1.7395
50013SOL    HW254597   9.656  11.811  10.233 -0.0752 -0.5137 -0.8030
50014SOL     OW54598   4.767   0.869   7.453  0.0129 -0.3070 -0.0713
50014SOL    HW154599   4.793   0.960   7.470  1.0171 -0.5794 -0.1119
50014SOL    HW254600   4.688   0.856   7.506  0.1538  0.4305  0.3328
50015SOL     OW54601   7.454   3.094   5.569 -0.5752 -0.0457  0.7126
50015SOL    HW154602   7.539   3.092   5.614 -0.2753 -0.8539  0.1411
50015SOL    HW254603   7.441   3.186   5.545  1.1232 -0.1875 -0.9934
50016SOL     OW54604   3.908   1.641   4.133  0.0646  0.0623  0.3663
50016SOL    HW154605   3.893   1.622   4.225  0.9974 -1.2952  0.2801
50016SOL    HW254606   4.004   1.645   4.125  0.0244  3.5194  0.0384
50017SOL     OW54607   5.727   8.423   9.366 -0.2592  0.5463 -0.4332
50017SOL    HW154608   5.668   8.358   9.327  0.7179 -0.4894 -0.2369
50017SOL    HW254609   5.671   8.499   9.381 -1.5019 -0.3199 -0.4636
50018SOL     OW54610  10.298   8.827  10.688  0.2196 -0.2213 -0.5209
50018SOL    HW154611  10.262   8.839  10.776 -1.6987 -0.5540 -1.2110
50018SOL    HW254612  10.390   8.804  10.703  0.0506  0.1561  1.3684
50019SOL     OW54613   1.135   8.372   1.260 -0.1697  0.2768  0.4093
50019SOL    HW154614   1.050   8.387   1.302 -0.6494 -1.6289  0.2310
50019SOL    HW254615   1.195   8.432   1.305 -1.5414  1.4646  0.7316
50020SOL     OW54616  11.730  10.396   5.244 -1.0862  0.0241  0.1707
50020SOL    HW154617  11.644  10.356   5.256 -0.7071 -0.1638  2.8885
50020SOL    HW254618  11.731  10.425   5.153 -3.9221 -0.1709  0.0048
50021SOL     OW54619   0.845  10.551   3.640 -0.3758 -0.4911  0.5569
50021SOL    HW154620   0.829  10.501   3.560 -0.2571 -1.1787  0.9483
50021SOL    HW254621   0.784  10.513   3.704 -0.8269  0.3949  0.6545
50022SOL     OW54622   7.241   1.856  11.131  0.7498 -0.1465  0.2675
50022SOL    HW154623   7.203   1.913  11.064  0.3864 -0.8056 -0.0916
50022SOL    HW254624   7.293   1.915  11.185 -0.6643  0.7574  0.6887
50023SOL     OW54625   2.010   1.806   6.411  0.0150  0.3756 -0.2881
50023SOL    HW154626   1.945   1.876   6.419  0.9191  1.0436  2.1447
50023SOL    HW254627   1.987   1.743   6.479  2.2936  1.0484  1.2443
50024SOL     OW54628   7.674   2.267   6.845 -0.3939 -0.6670  0.2124
50024SOL    HW154629   7.597   2.223   6.810  0.0574 -0.2205 -1.3894
50024SOL    HW254630   7.747   2.209   6.825  0.0790  0.3133 -1.0817
50025SOL     OW54631   0.762   9.804   8.636 -0.1366 -0.0519 -0.2378
50025SOL    HW154632   0.736   9.775   8.724 -0.8757  1.1137 -0.0605
50025SOL    HW254633   0.792   9.894   8.648  1.7136 -0.5413 -0.8579
50026SOL     OW54634   3.551   4.353   8.146 -0.5916  0.6083 -0.1517
50026SOL    HW154635   3.467   4.400   8.149 -0.6010  0.5558  0.8487
50026SOL    HW254636   3.606   4.400   8.208 -0.4428 -0.3961  0.5014
50027SOL     OW54637   2.478   0.533   5.074  0.3775 -0.0422  0.1743
50027SOL    HW154638   2.476   0.439   5.058  1.3821  0.0729 -0.7140
50027SOL    HW254639   2.467   0.541   5.169 -0.1042 -1.0298  0.2102
50028SOL     OW54640   6.092   7.375   1.553 -0.0370  0.1504  0.2170
50028SOL    HW154641   6.163   7.426   1.513  0.6968 -0.2293  1.0117
50028SOL    HW254642   6.033   7.441   1.589 -0.8535  0.5223 -1.6538
50029SOL     OW54643   1.539  10.352   9.968 -0.3830  0.0552  0.1633
50029SOL    HW154644   1.596  10.366  10.044  0.4077 -2.1624  0.0522
50029SOL    HW254645   1.451  10.371   9.999 -0.0178 -0.3782  1.4901
50030SOL     OW54646   7.543   7.712   3.996  0.1319 -0.1933  0.1857
50030SOL    HW154647   7.530   7.807   4.006  0.6186  0.2116 -2.4007
50030SOL    HW254648   7.632   7.697   4.028  0.6475  0.5246 -0.8506
50031SOL     OW54649   2.225   4.198   2.065 -0.4100 -0.4189 -0.2360
50031SOL    HW154650   2.235   4.230   1.976 -1.7361 -1.6403 -0.8514
50031SOL    HW254651   2.248   4.105   2.061 -2.3607 -0.9625  0.2588
50032SOL     OW54652   1.185   9.089   8.385  0.3956  0.1732 -0.1565
50032SOL    HW154653   1.131   9.015   8.358  0.4222  0.1586 -0.1704
50032SOL    HW254654   1.157   9.107   8.475 -1.4986  1.8283 -0.9865
50033SOL     OW54655   7.479   6.499   2.028 -0.5757 -0.1097  0.0421
50033SOL    HW154656   7.415   6.431   2.050 -0.9939  0.3649  0.3012
50033SOL    HW254657   7.475   6.560   2.101 -0.3940  0.3359 -0.3172
50034SOL     OW54658   6.022   7.085   1.723  0.1126 -0.2245  0.1896
50034SOL    HW154659   5.967   7.137   1.664 -0.6176 -0.2562  0.8152
50034SOL    HW254660   6.109   7.088   1.684 -0.4052 -0.4765 -1.0305
50035SOL     OW54661   9.038   7.810  10.542 -0.3703  0.1027 -0.2449
50035SOL    HW154662   9.106   7.841  10.482 -0.8248 -1.8954 -1.8672
50035SOL    HW254663   9.086   7.759  10.608 -0.1292  0.2140 -0.3328
50036SOL     OW54664   4.737  10.473  10.239  0.2676  0.0731  0.7027
50036SOL    HW154665   4.788  10.554  10.239 -1.4048  1.1719  0.6393
50036SOL    HW254666   4.772  10.422  10.312  0.8436  1.1827  1.2207
50037SOL     OW54667   9.857   5.868   2.966 -0.5169 -0.5180 -0.1255
50037SOL    HW154668   9.767   5.837   2.977 -0.2231 -1.4958 -0.3712
50037SOL    HW254669   9.852   5.930   2.893 -0.8539 -1.2195 -0.7123
50038SOL     OW54670   0.515   4.620   7.218 -0.1147 -0.4320 -0.1882
50038SOL    HW154671   0.585   4.670   7.260 -1.4773  2.3403 -0.9988
50038SOL    HW254672   0.561   4.554   7.166  1.8125  0.3386  0.4407
50039SOL     OW54673   7.901   1.403   7.335  0.3963  0.3236 -0.2481
50039SOL    HW154674   7.826   1.425   7.391 -0.6802  0.2725 -1.6126
50039SOL    HW254675   7.973   1.455   7.370 -0.6569  1.5456  0.2032
50040SOL     OW54676   1.937  11.768   8.539 -0.2511 -0.0879  0.0196
50040SOL    HW154677   2.004  11.735   8.600 -0.0033  0.3357 -0.0220
50040SOL    HW254678   1.987  11.814   8.471 -0.6703  1.7489  0.8974
50041SOL     OW54679   4.795  11.180   7.721  0.1077  0.9875 -0.1108
50041SOL    HW154680   4.777  11.212   7.809 -0.6075 -1.1342  0.5675
50041SOL    HW254681   4.727  11.116   7.703  3.6719 -3.4776  0.4474
50042SOL     OW54682   5.079   5.536   5.258  0.4242  0.1001 -0.2665
50042SOL    HW154683   5.065   5.561   5.167  1.1302  1.0280 -0.1385
50042SOL    HW254684   5.080   5.620   5.306  0.2735 -0.3583  0.5533
50043SOL     OW54685   3.720   2.753   5.234  0.3892 -0.2395  0.6991
50043SOL    HW154686   3.654   2.769   5.167  1.2217 -0.7394 -0.2657
50043SOL    HW254687   3.803   2.774   5.191  0.9907 -1.1862  1.3580
50044SOL     OW54688   2.399   3.688   5.353 -0.1072  0.6973 -0.1529
50044SOL    HW154689   2.444   3.712   5.272  1.8562  0.4660  0.7983
50044SOL    HW254690   2.358   3.604   5.333  1.8424 -0.2415 -0.4381
50045SOL     OW54691   7.226   5.658   8.685 -0.2042  0.1451  0.7848
50045SOL    HW154692   7.272   5.720   8.742  1.0713 -0.6280  0.6219
50045SOL    HW254693   7.218   5.704   8.601  0.7959  0.0724  0.6433
50046SOL     OW54694  10.430   6.592  10.697  0.2026  0.1090  0.2423
50046SOL    HW154695  10.476   6.628  10.622 -2.0082  1.8639 -0.3756
50046SOL    HW254696  10.466   6.639  10.773  1.9204 -1.1492  0.2598
50047SOL     OW54697   1.428  10.817   9.624 -0.3802 -0.1111  0.2075
50047SOL    HW154698   1.468  10.750   9.568  0.5705  0.7472 -0.1667
50047SOL    HW254699   1.365  10.861   9.567 -1.2238 -0.8682  0.5384
50048SOL     OW54700   8.696   3.232   0.779 -0.2522  0.4449 -0.1934
50048SOL    HW154701   8.726   3.269   0.696 -1.1314  2.7600  0.4115
50048SOL    HW254702   8.775   3.224   0.832  0.0134  1.3119 -0.4373
50049SOL     OW54703   5.019   8.174   8.194 -0.6414  0.0024 -0.0130
50049SOL    HW154704   5.031   8.102   8.132 -2.2282 -0.3898  0.0862
50049SOL    HW254705   4.924   8.186   8.198 -0.5916 -0.0559  2.4258
50050SOL     OW54706  10.575   8.775  10.639  0.4090 -0.2134  0.0517
50050SOL    HW154707  10.650   8.715  10.641  0.0052 -0.7717 -1.0603
50050SOL    HW254708  10.615   8.861  10.624  0.8878 -0.3950  0.2400
50051SOL     OW54709   2.555  11.418  10.198  0.0538 -0.2669  0.5396
50051SOL    HW154710   2.580  11.354  10.131  0.2461 -1.2822  1.5610
50051SOL    HW254711   2.464  11.398  10.218 -0.0506  0.1389  0.4880
50052SOL     OW54712   8.956   7.966   3.800  0.0242 -0.4327 -1.1014
50052SOL    HW154713   8.897   7.894   3.825  0.6341 -0.3052  0.8961
50052SOL    HW254714   9.044   7.929   3.810  0.3803  0.8250  0.9593
50053SOL     OW54715  10.866   0.316   1.534  0.3617 -0.2886  0.1854
50053SOL    HW154716  10.774   0.341   1.527  0.5011  0.2280  0.1863
50053SOL    HW254717  10.874   0.238   1.479  0.2761  0.5866 -1.0972
50054SOL     OW54718   6.592   8.214   2.005 -0.0343  0.0555  0.0996
50054SOL    HW154719   6.515   8.244   2.053 -0.6398  0.1936 -0.9307
50054SOL    HW254720   6.637   8.294   1.978  0.6069 -0.0252  0.8811
50055SOL     OW54721   9.739   3.074   9.378  0.1186  0.2330 -0.3581
50055SOL    HW154722   9.825   3.102   9.346  0.8296 -1.5163 -0.0311
50055SOL    HW254723   9.757   3.001   9.437 -1.5146  0.6212  0.6784
50056SOL     OW54724   1.069   2.600   3.141  0.4849 -0.3814  0.1464
50056SOL    HW154725   1.020   2.574   3.219 -0.2849  0.3080 -0.1023
50056SOL    HW254726   1.033   2.685   3.116 -0.0683 -1.0989 -1.6305
50057SOL     OW54727   4.894   7.774   9.318  0.0994  0.0352 -0.1336
50057SOL    HW154728   4.963   7.733   9.267  0.8736  1.3210 -0.1702
50057SOL    HW254729   4.827   7.706   9.328  2.0336 -1.7971  1.3117
50058SOL     OW54730   0.058  10.105   2.159  0.3743  0.0325 -0.0620
50058SOL    HW154731   0.141  10.071   2.193 -0.9877 -0.1687  3.3603
50058SOL    HW254732   0.066  10.200   2.167  0.4417  0.0447 -0.2494
50059SOL     OW54733   4.512   2.775   3.715 -0.5048  0.1303  0.1618
50059SOL    HW154734   4.506   2.680   3.702 -1.5860  0.1830  0.2376
50059SOL    HW254735   4.531   2.784   3.809  2.0076 -0.0630 -0.2536
50060SOL     OW54736   7.452   6.681  10.558  0.1414 -0.1188  0.3041
50060SOL    HW154737   7.523   6.727  10.515  1.7521 -0.4161  2.4717
50060SOL    HW254738   7.476   6.682  10.651 -2.1701 -1.1554  0.9841
50061SOL     OW54739  10.936   8.173   1.346  0.3342  0.3501 -0.3457
50061SOL    HW154740  10.969   8.259   1.319  1.4999 -0.4828 -1.7109
50061SOL    HW254741  10.988   8.150   1.422  1.9125 -0.2651 -1.5575
50062SOL     OW54742   2.441   8.017  11.981 -0.3160  0.5610 -0.6052
50062SOL    HW154743   2.411   7.926  11.980 -0.6537  0.6282  0.8917
50062SOL    HW254744   2.379   8.063  11.925 -0.1414 -0.1201 -1.3816
50063SOL     OW54745   7.480   6.060   3.817 -0.7622 -0.2777 -0.0409
50063SOL    HW154746   7.464   6.104   3.901 -0.6777  0.9205 -0.6287
50063SOL    HW254747   7.574   6.047   3.814 -0.5897  0.9570 -0.5404
50064SOL     OW54748  10.509   1.786   9.900 -0.1925  0.1654  0.3118
50064SOL    HW154749  10.575   1.855   9.912 -0.8443  0.6224  1.3612
50064SOL    HW254750  10.425   1.830   9.912 -0.6070 -0.9024  1.6893
50065SOL     OW54751   8.812   1.435   1.812  0.0074  0.0111  0.0644
50065SOL    HW154752   8.738   1.388   1.773 -0.9198  1.6389 -0.2362
50065SOL    HW254753   8.793   1.436   1.906 -1.6195  2.3468 -0.1931
50066SOL     OW54754   7.889   6.759   9.465  0.1629  0.2881 -0.0280
50066SOL    HW154755   7.883   6.709   9.383 -1.0561  0.8691 -0.3151
50066SOL    HW254756   7.870   6.849   9.439 -2.1638  0.1991  1.1654
50067SOL     OW54757   7.061  11.344   2.969 -0.3009  0.5610  0.0288
50067SOL    HW154758   7.057  11.435   2.941  1.3739  0.0768 -2.0390
50067SOL    HW254759   7.154  11.324   2.973 -0.6220 -1.4756 -1.1429
50068SOL     OW54760   6.764   9.387   9.296 -0.1279 -0.3189  0.1408
50068SOL    HW154761   6.697   9.363   9.360 -1.6216 -0.7706 -1.5135
50068SOL    HW254762   6.809   9.305   9.277  1.0284  0.0063  1.3372
50069SOL     OW54763   0.184   7.493   6.535  0.0331 -0.2229  0.7182
50069SOL    HW154764   0.186   7.400   6.558  0.3075 -0.2951  0.4065
50069SOL    HW254765   0.148   7.495   6.446 -1.0115  0.0521  1.1338
50070SOL     OW54766   0.571   2.211   6.919 -0.2442 -0.1420 -0.2084
50070SOL    HW154767   0.518   2.195   6.998 -1.0445 -0.5975 -0.8198
50070SOL    HW254768   0.508   2.239   6.853  0.4921  0.7525 -0.5589
50071SOL     OW54769  11.365   1.106   7.563 -0.3021  0.1652  0.1369
50071SOL    HW154770  11.358   1.100   7.658  2.6916  1.4907  0.5422
50071SOL    HW254771  11.403   1.022   7.536 -1.8746 -0.5286 -0.0673
50072SOL     OW54772  10.155   9.829   2.250 -0.2573  0.2867 -0.4347
50072SOL    HW154773  10.134   9.801   2.161 -1.5426 -1.2216  0.2961
50072SOL    HW254774  10.070   9.829   2.295  0.4240  0.7021  0.8883
50073SOL     OW54775   1.560   8.377   2.644 -0.1519 -0.3164 -0.2024
50073SOL    HW154776   1.627   8.411   2.584 -0.3356 -0.1363 -0.3035
50073SOL    HW254777   1.550   8.445   2.710  0.6328 -0.8560  0.4924
50074SOL     OW54778   6.968   6.988   6.298 -0.1341 -0.7225  0.2208
50074SOL    HW154779   7.003   6.900   6.288  2.1612  0.2764 -1.5549
50074SOL    HW254780   7.041   7.040   6.331 -0.8387  0.8470 -0.5498
50075SOL     OW54781   1.969   0.452   4.266 -0.0810  0.2609  0.1656
50075SOL    HW154782   1.884   0.447   4.310  0.4360  1.2103  1.3171
50075SOL    HW254783   2.031   0.419   4.331  0.4653 -0.2671 -0.6092
50076SOL     OW54784   1.684   8.921   4.941  0.0876  0.4838  0.7528
50076SOL    HW154785   1.637   8.845   4.975 -0.0495  0.5317  0.6749
50076SOL    HW254786   1.620   8.993   4.947 -0.3873  0.2259 -0.8003
50077SOL     OW54787  10.426   6.775   5.358  0.6476  0.1068  0.1917
50077SOL    HW154788  10.397   6.716   5.427 -0.6234 -0.0902 -0.4917
50077SOL    HW254789  10.520   6.760   5.352  0.3338 -1.9847 -0.0874
50078SOL     OW54790   8.319   5.713  10.853  0.5217 -0.0305  0.4433
50078SOL    HW154791   8.387   5.694  10.788  0.8870  0.5630  0.6460
50078SOL    HW254792   8.264   5.779  10.810 -0.5139 -1.2052 -0.1071
50079SOL     OW54793   5.615   0.022   9.615  0.2940 -0.0548 -0.2614
50079SOL    HW154794   5.710   0.030   9.603  0.1089  3.1168 -0.4753
50079SOL    HW254795   5.601   0.038   9.708 -0.0178 -1.1367 -0.1091
50080SOL     OW54796   1.086   1.178   9.113 -0.1362  0.1211 -0.6916
50080SOL    HW154797   1.086   1.259   9.164  0.6834  0.8591 -1.8205
50080SOL    HW254798   1.031   1.198   9.037 -0.9401 -0.8039 -0.3736
50081SOL     OW54799   4.239   8.746   2.531  0.2069  0.6452 -0.0424
50081SOL    HW154800   4.150   8.746   2.497  0.2736  1.0873 -0.2251
50081SOL    HW254801   4.241   8.817   2.595  0.0396 -0.2914  1.0210
50082SOL     OW54802  10.242   6.736  11.616  0.5303 -0.3695  0.3122
50082SOL    HW154803  10.320   6.779  11.650 -0.7613  2.1442  0.3024
50082SOL    HW254804  10.202   6.695  11.693  0.2689  0.9967  0.9358
50083SOL     OW54805   7.088   3.709   9.889  0.2465  0.6104 -0.6396
50083SOL    HW154806   7.011   3.679   9.841  0.2012  1.6338 -1.2367
50083SOL    HW254807   7.076   3.804   9.896  1.5074  0.8000 -0.8565
50084SOL     OW54808   5.873   4.555   5.024  0.4818 -0.4727 -0.1777
50084SOL    HW154809   5.865   4.607   5.103  0.2529 -0.0257 -0.4921
50084SOL    HW254810   5.894   4.618   4.955  1.5451 -0.9622 -0.3186
50085SOL     OW54811   5.208   9.220   9.022  0.3910 -0.7825 -0.5108
50085SOL    HW154812   5.217   9.151   8.956  1.9233 -1.1482  0.0453
50085SOL    HW254813   5.288   9.271   9.015  0.5788 -0.8061  1.0176
50086SOL     OW54814   7.091   2.300  10.401  0.0423  0.4049  0.0462
50086SOL    HW154815   7.027   2.240  10.440  0.6184  0.8085  1.6850
50086SOL    HW254816   7.110   2.262  10.315 -1.6866 -0.2261 -0.0992
50087SOL     OW54817   6.134   6.631   2.837 -0.6793  0.0763 -0.3634
50087SOL    HW154818   6.214   6.674   2.806  0.0066 -1.3495 -0.6597
50087SOL    HW254819   6.161   6.540   2.855 -2.3642 -0.6220 -1.1528
50088SOL     OW54820   8.090   1.881  11.890  0.2415  0.4768 -0.1004
50088SOL    HW154821   8.062   1.967  11.858 -1.6078  0.5114  1.4152
50088SOL    HW254822   8.120   1.898  11.979 -2.5107 -0.6981  1.1761
50089SOL     OW54823   1.893   3.025   3.032  0.6721  0.0185  0.2930
50089SOL    HW154824   1.933   2.970   3.099 -0.1990 -4.1105 -2.1776
50089SOL    HW254825   1.799   3.011   3.043  0.4680  0.4232 -0.8377
50090SOL     OW54826  11.303   2.550   2.115 -0.1848  0.3067  0.3970
50090SOL    HW154827  11.367   2.621   2.117  0.1061  0.1782 -1.7590
50090SOL    HW254828  11.354   2.470   2.127  0.2128  0.1684 -1.7650
50091SOL     OW54829   2.831   5.116   4.400 -0.3486  0.2103  0.2845
50091SOL    HW154830   2.901   5.073   4.449  0.2235  0.8206  0.0291
50091SOL    HW254831   2.750   5.079   4.435 -0.0573  1.6386  2.7113
50092SOL     OW54832   3.630   4.006   4.693  0.1167  0.0692  0.5058
50092SOL    HW154833   3.536   3.991   4.693 -0.1977  1.6167  2.4820
50092SOL    HW254834   3.658   3.989   4.783  1.8003 -0.6484 -0.1036
50093SOL     OW54835   5.948  10.702   7.243  0.1747  0.0951  0.1897
50093SOL    HW154836   5.940  10.790   7.205 -0.6388 -0.1227 -0.1688
50093SOL    HW254837   5.924  10.714   7.335  0.4763  0.3231  0.2396
50094SOL     OW54838   7.327   3.502   2.577  0.8441 -0.3532  0.2305
50094SOL    HW154839   7.368   3.416   2.581 -1.0128 -1.3365 -0.7708
50094SOL    HW254840   7.328   3.533   2.668 -0.4893 -2.4566  1.0508
50095SOL     OW54841   2.153   1.555   9.156  0.3595  0.0889  0.6160
50095SOL    HW154842   2.091   1.588   9.220  0.6807  1.6743  0.1490
50095SOL    HW254843   2.219   1.510   9.208 -0.4353 -0.3891  1.2224
50096SOL     OW54844   1.652  10.809   9.796  0.0326  0.1294 -0.2662
50096SOL    HW154845   1.665  10.724   9.838 -1.4041  0.7136  1.5006
50096SOL    HW254846   1.561  10.807   9.766  0.3533  0.6139 -1.3424
50097SOL     OW54847   1.068   3.978   7.842  0.1984  1.3038 -0.2024
50097SOL    HW154848   1.067   3.964   7.936  1.3362 -1.2640 -0.5069
50097SOL    HW254849   1.088   4.071   7.832  1.2467  1.3767  2.0687
50098SOL     OW54850   0.518   7.214   6.100  0.2856 -0.5120  0.2666
50098SOL    HW154851   0.476   7.136   6.063 -2.6234  0.9867  0.1221
50098SOL    HW254852   0.560   7.256   6.025 -0.6110 -0.4795 -0.2340
50099SOL     OW54853   5.685   9.623  10.704  0.3911  0.3063  0.4188
50099SOL    HW154854   5.712   9.583  10.622  0.2587 -2.5640  1.6586
50099SOL    HW254855   5.765   9.665  10.737  0.7707  0.3593 -0.5256
50100SOL     OW54856   0.339  11.893  11.354 -0.4563 -0.2018  0.1735
50100SOL    HW154857   0.311  11.817  11.406  1.3797 -0.3155  1.0844
50100SOL    HW254858   0.326  11.968  11.412 -2.4955  0.2817 -0.8093
50101SOL     OW54859   3.564   1.738   6.894 -0.2857 -0.0373 -0.4195
50101SOL    HW154860   3.520   1.813   6.855 -1.0825 -0.0949  0.3349
50101SOL    HW254861   3.493   1.677   6.916  0.0580  0.1946  1.5331
50102SOL     OW54862   2.766  11.361   4.878  0.1535  0.2675  0.2005
50102SOL    HW154863   2.776  11.366   4.973 -4.7933 -0.5795  1.0431
50102SOL    HW254864   2.796  11.273   4.856 -0.4150 -0.2278  1.3282
50103SOL     OW54865   4.751   1.043   4.924 -0.0315 -0.3030  0.6167
50103SOL    HW154866   4.838   1.061   4.889 -0.0798  1.0441  1.0935
50103SOL    HW254867   4.764   0.973   4.988  0.5265 -0.7965 -0.0272
50104SOL     OW54868   7.406   2.784   2.194 -0.0304  0.7233 -0.3052
50104SOL    HW154869   7.458   2.805   2.117  0.5045 -0.6125 -0.3497
50104SOL    HW254870   7.318   2.767   2.161 -0.0043  1.0003 -0.5114
50105SOL     OW54871   9.587  11.576   6.450 -0.2674 -0.0277  0.0511
50105SOL    HW154872   9.543  11.579   6.365 -0.5692 -1.4830  0.1293
50105SOL    HW254873   9.551  11.651   6.498 -0.4719  0.5106 -0.9108
50106SOL     OW54874   4.589   0.070   0.746  0.1941 -0.0759  0.2104
50106SOL    HW154875   4.612   0.001   0.683  0.8625 -0.1384  0.5124
50106SOL    HW254876   4.571   0.022   0.827 -0.5878  0.0113  0.1017
50107SOL     OW54877   7.104   4.603   3.226  0.1969 -0.0366 -0.0322
50107SOL    HW154878   7.171   4.566   3.169 -0.7136  0.6175 -1.5929
50107SOL    HW254879   7.133   4.580   3.314  2.6014  0.4678 -0.6105
50108SOL     OW54880   1.968   0.695  10.715  0.1467 -0.1371 -0.3819
50108SOL    HW154881   1.969   0.648  10.632  2.0444 -0.0227 -0.4635
50108SOL    HW254882   2.006   0.634  10.779 -0.3426  0.1424  0.1875
50109SOL     OW54883   8.710  10.692   8.037  0.1817  0.8455 -0.2111
50109SOL    HW154884   8.697  10.754   8.109  1.4778  0.5901  0.2623
50109SOL    HW254885   8.751  10.616   8.078  0.8156  0.6476 -1.2011
50110SOL     OW54886   2.462   0.374   5.964 -0.0567 -0.0818 -0.0109
50110SOL    HW154887   2.378   0.406   5.997  0.1294  1.3651 -0.8547
50110SOL    HW254888   2.439   0.303   5.904 -0.5172 -1.1812  1.3975
50111SOL     OW54889   9.545   8.804  11.753 -0.2580  0.4782 -0.1752
50111SOL    HW154890   9.510   8.891  11.771 -1.6621  0.2955 -1.7513
50111SOL    HW254891   9.566   8.806  11.660 -0.0152 -0.7731 -0.1616
50112SOL     OW54892   5.100   1.841   5.228 -0.2416  0.3277 -0.1928
50112SOL    HW154893   5.180   1.792   5.250 -0.7663 -0.5704 -0.2332
50112SOL    HW254894   5.130   1.909   5.168  0.3324 -0.6994 -1.1084
50113SOL     OW54895   8.869   6.182   0.323 -0.1564 -0.2969  0.2391
50113SOL    HW154896   8.830   6.268   0.339 -0.1281 -0.4350  1.1103
50113SOL    HW254897   8.954   6.186   0.367 -0.4185 -0.9762  0.8319
50114SOL     OW54898  10.291   0.006  12.078 -0.3034 -0.2066  0.8810
50114SOL    HW154899  10.306   0.100  12.077 -1.0726 -0.0588  1.6561
50114SOL    HW254900  10.198  -0.004  12.060  0.0642 -0.9214 -0.7641
50115SOL     OW54901   1.789   0.390   9.801  0.3749 -0.2076  0.0344
50115SOL    HW154902   1.808   0.297   9.805  1.1910 -0.0972 -0.9168
50115SOL    HW254903   1.774   0.408   9.708 -0.1438  0.5436  0.2479
50116SOL     OW54904   6.738   3.944   7.804  0.1584  0.1966  0.4000
50116SOL    HW154905   6.808   3.908   7.859  0.0994 -0.2645  0.1775
50116SOL    HW254906   6.703   4.017   7.854  1.4037  1.0027  0.1307
50117SOL     OW54907  10.637   5.052   2.123  0.0184 -0.0524  0.4776
50117SOL    HW154908  10.631   5.123   2.059  1.7791 -1.4040 -1.3352
50117SOL    HW254909  10.731   5.046   2.143 -0.2833 -0.8902  1.7463
50118SOL     OW54910   4.193   1.709   6.304 -0.6091  0.3741 -0.4311
50118SOL    HW154911   4.226   1.796   6.281  3.0089 -1.1614 -1.7250
50118SOL    HW254912   4.108   1.704   6.259 -1.8786  3.7867  1.2206
50119SOL     OW54913   4.313   7.990  10.655 -0.4360 -0.1846 -0.2219
50119SOL    HW154914   4.290   8.052  10.725 -0.2040 -0.3586  0.0083
50119SOL    HW254915   4.351   7.915  10.700 -2.7660 -1.4861 -0.3041
50120SOL     OW54916   5.352   4.637   3.876  0.0219 -0.5280 -0.0046
50120SOL    HW154917   5.338   4.641   3.970  2.4390  0.8750  0.3488
50120SOL    HW254918   5.440   4.601   3.866  0.9499  1.9307 -1.5709
50121SOL     OW54919   1.166   3.285   7.629  0.2893  0.5553  0.4074
50121SOL    HW154920   1.221   3.229   7.574  0.8431  1.3785  0.1010
50121SOL    HW254921   1.228   3.326   7.690 -0.0993  0.8684  0.5960
50122SOL     OW54922   7.928   1.884   1.608  0.3216 -0.1192  0.3771
50122SOL    HW154923   7.943   1.951   1.541  0.2867  0.0267  0.5152
50122SOL    HW254924   7.926   1.802   1.559  0.4435 -0.0281  0.2166
50123SOL     OW54925  10.472   5.322   2.878  1.0402  0.3411 -0.0342
50123SOL    HW154926  10.530   5.398   2.883 -0.0934  1.1767  0.8528
50123SOL    HW254927  10.513   5.256   2.934  1.7703  0.4570 -0.4199
50124SOL     OW54928  10.483  10.063   6.879  0.1029  0.5152 -0.2269
50124SOL    HW154929  10.520  10.049   6.792 -0.4339 -1.2013 -0.2316
50124SOL    HW254930  10.533  10.004   6.935 -0.7143  0.2889  0.2797
50125SOL     OW54931   8.084  11.188   9.353  0.7754 -0.8897  0.1696
50125SOL    HW154932   8.064  11.221   9.441  2.0278 -0.5109  0.3277
50125SOL    HW254933   7.998  11.164   9.317 -0.0603  1.2727  0.5517
50126SOL     OW54934   0.443   2.323   8.862  0.2824  0.2290  0.9224
50126SOL    HW154935   0.485   2.238   8.852 -1.1137 -0.6881  2.3349
50126SOL    HW254936   0.513   2.387   8.850  0.6697 -0.7236 -5.1427
50127SOL     OW54937   5.196   8.152  11.694  0.5137  0.0053  0.1934
50127SOL    HW154938   5.260   8.196  11.638  1.1973 -0.9825  0.1832
50127SOL    HW254939   5.246   8.121  11.769  0.4772 -2.4987 -0.7216
50128SOL     OW54940   9.682   7.144  10.447  0.3774 -0.3904 -0.2558
50128SOL    HW154941   9.720   7.185  10.369  1.5311  1.0142  1.0017
50128SOL    HW254942   9.706   7.051  10.439  0.0578 -0.3819 -1.7709
50129SOL     OW54943  11.073   2.856   2.678  0.5736 -0.1279 -0.1597
50129SOL    HW154944  11.038   2.771   2.649 -0.9464  1.0428 -2.0100
50129SOL    HW254945  11.101   2.841   2.768 -2.3703 -1.8604  0.6055
50130SOL     OW54946   7.628   5.731   1.811 -0.3307  0.0159  0.2658
50130SOL    HW154947   7.580   5.765   1.887 -0.3890 -0.4244  0.4273
50130SOL    HW254948   7.676   5.656   1.845  0.5626  0.5103  0.1269
50131SOL     OW54949  10.440   2.694   8.243  0.2269 -0.7792  0.4884
50131SOL    HW154950  10.433   2.600   8.230 -0.3353 -0.7172  0.3197
50131SOL    HW254951  10.382   2.712   8.317  1.0049 -0.6859  1.0937
50132SOL     OW54952   0.315   8.730   1.317  0.0276 -0.0045 -0.2370
50132SOL    HW154953   0.276   8.757   1.401  0.1584  1.5767 -0.6633
50132SOL    HW254954   0.378   8.662   1.341 -1.3318 -0.9967  0.7193
50133SOL     OW54955   4.473   8.872   4.161 -0.8413  0.0590 -1.1593
50133SOL    HW154956   4.545   8.915   4.209  0.1180 -1.3125 -1.3209
50133SOL    HW254957   4.402   8.937   4.162 -0.8013  0.2023  1.9142
50134SOL     OW54958   1.276   8.473   6.901  0.3928  0.8401  0.3077
50134SOL    HW154959   1.286   8.453   6.994  0.7483  1.3530  0.3830
50134SOL    HW254960   1.315   8.398   6.856 -0.3951  0.2704  0.5619
50135SOL     OW54961   5.552   4.324   9.919 -0.2527 -0.5045 -0.4174
50135SOL    HW154962   5.581   4.399   9.972 -0.1516  0.0011 -1.1636
50135SOL    HW254963   5.461   4.310   9.944 -0.8265  0.9954 -1.4930
50136SOL     OW54964   0.669   1.651   6.027 -0.7179  0.1807 -0.2315
50136SOL    HW154965   0.717   1.667   6.108 -0.1138 -0.4262 -0.4618
50136SOL    HW254966   0.579   1.679   6.047 -0.8439 -0.9827  1.0152
50137SOL     OW54967   9.265   7.096   1.937 -0.1975 -0.2088  0.0415
50137SOL    HW154968   9.184   7.139   1.909  0.4186  0.1973 -1.2100
50137SOL    HW254969   9.335   7.155   1.908  0.6344 -1.5936 -0.9333
50138SOL     OW54970   3.601   8.078   5.321 -0.2241 -0.4610  0.4943
50138SOL    HW154971   3.637   8.115   5.401 -0.4758  0.0082  0.3949
50138SOL    HW254972   3.673   8.081   5.258  0.1330 -1.3244  0.8507
50139SOL     OW54973   9.330   2.213  12.013 -0.0997 -0.2087  0.9190
50139SOL    HW154974   9.289   2.232  12.097  0.2298 -0.6857  1.1924
50139SOL    HW254975   9.357   2.121  12.019  3.5376  0.7664  1.8466
50140SOL     OW54976  11.615  11.861  11.422 -0.0926  0.5830  0.1343
50140SOL    HW154977  11.653  11.774  11.432  0.8246  0.8519 -0.9194
50140SOL    HW254978  11.686  11.915  11.390 -1.1708  1.2648 -1.2021
50141SOL     OW54979   3.606   3.446   6.488  0.1910  0.4795  0.7355
50141SOL    HW154980   3.663   3.433   6.412  0.2489  1.6115  0.5670
50141SOL    HW254981   3.640   3.525   6.530 -0.2560  0.2378  1.5604
50142SOL     OW54982   7.671   4.304   6.359  0.1920 -0.1408  0.1607
50142SOL    HW154983   7.765   4.294   6.373 -0.1936 -2.2311  1.8219
50142SOL    HW254984   7.652   4.248   6.285  0.2111  0.2103 -0.1160
50143SOL     OW54985   8.211   1.875   1.227  0.1414  0.1910 -0.4002
50143SOL    HW154986   8.218   1.952   1.171 -0.5939  1.1724  0.7999
50143SOL    HW254987   8.296   1.870   1.271  0.1499  0.3982 -0.3895
50144SOL     OW54988  10.322   7.320  10.856 -0.4326 -0.0693 -0.1554
50144SOL    HW154989  10.397   7.378  10.839 -0.3881  0.1416  0.7090
50144SOL    HW254990  10.357   7.232  10.843 -0.0438  0.0294  0.1858
50145SOL     OW54991   1.076  11.561  10.067 -0.1518  0.3803 -0.0262
50145SOL    HW154992   1.140  11.498  10.099  0.7104  1.0465 -0.4123
50145SOL    HW254993   1.017  11.509  10.011 -0.2519 -0.3229  0.7215
50146SOL     OW54994  11.018   1.309   7.732 -0.4904  0.1061 -0.8796
50146SOL    HW154995  11.088   1.364   7.697 -1.4543  1.4229 -0.8083
50146SOL    HW254996  10.938   1.346   7.696 -1.3382  0.1236  0.9034
50147SOL     OW54997   5.578  11.269   4.450 -0.1509 -0.4433 -0.0863
50147SOL    HW154998   5.552  11.248   4.540  0.0070 -2.5543 -0.4952
50147SOL    HW254999   5.671  11.292   4.457 -0.1728 -0.4582  0.2944
50148SOL     OW55000  11.159   6.632   7.712  0.3664  0.4273  0.1635
50148SOL    HW155001  11.198   6.694   7.651  0.0878 -0.4113 -0.9021
50148SOL    HW255002  11.113   6.569   7.656 -0.4047 -0.0270  1.2720
50149SOL     OW55003   3.642  10.940   4.620  0.2418 -0.7944 -0.7341
50149SOL    HW155004   3.581  10.908   4.687  0.4209  0.4647  0.0667
50149SOL    HW255005   3.703  10.867   4.606  0.1574 -1.1104  0.4215
50150SOL     OW55006   5.084   3.087   5.349 -0.6440  0.4269 -0.2264
50150SOL    HW155007   5.136   3.138   5.286 -0.2338  1.3802  0.8375
50150SOL    HW255008   5.145   3.066   5.420 -1.0787 -0.6771 -0.1602
50151SOL     OW55009   3.227   3.305  10.646 -0.0139 -0.1476 -0.1418
50151SOL    HW155010   3.271   3.233  10.599  0.3617 -0.6310  0.9069
50151SOL    HW255011   3.261   3.298  10.736 -2.5127 -0.7793  0.8276
50152SOL     OW55012   3.991   8.164   6.393 -0.0613 -0.2643 -0.1092
50152SOL    HW155013   4.075   8.211   6.387 -0.4337  0.3837 -0.2876
50152SOL    HW255014   4.013   8.073   6.373  1.0363 -0.5816  2.1444
50153SOL     OW55015   4.077   0.505   6.729 -0.0136 -0.4645 -0.5966
50153SOL    HW155016   4.059   0.422   6.773 -0.8401 -0.3879 -0.7731
50153SOL    HW255017   4.112   0.562   6.798  2.0508 -1.4180 -0.8004
50154SOL     OW55018   9.014  10.012  10.466  0.1222  0.1952 -0.0681
50154SOL    HW155019   9.003   9.948  10.396  1.4341  1.9508 -2.0217
50154SOL    HW255020   9.109  10.020  10.476 -0.0307 -0.2343  2.1875
50155SOL     OW55021   8.270  10.763   9.902  0.3357 -0.5573 -0.5296
50155SOL    HW155022   8.237  10.779   9.991 -0.8502  0.4553 -1.1354
50155SOL    HW255023   8.362  10.791   9.906 -0.3177  1.7258 -0.2019
50156SOL     OW55024   4.515   9.821   3.357  0.2775 -0.8508 -0.3873
50156SOL    HW155025   4.518   9.746   3.417  0.7574 -0.7758 -0.3163
50156SOL    HW255026   4.423   9.849   3.359 -0.0590 -1.8413 -0.9233
50157SOL     OW55027   4.076   5.728   5.915  0.3627 -0.1025  0.0083
50157SOL    HW155028   4.138   5.778   5.968  1.1641 -1.4777  0.4509
50157SOL    HW255029   4.132   5.682   5.851 -0.1466 -1.5116  0.5296
50158SOL     OW55030   8.599  11.083   8.020  0.0943  0.2205  0.7787
50158SOL    HW155031   8.637  11.057   8.104  1.8623  2.9718  0.9318
50158SOL    HW255032   8.645  11.163   7.996 -2.1879  0.9673 -1.5638
50159SOL     OW55033  12.105  10.295   4.649  0.4479 -0.3520  0.5071
50159SOL    HW155034  12.169  10.225   4.634  0.5989 -0.8629  3.0534
50159SOL    HW255035  12.046  10.259   4.715 -0.8633  1.1125  0.1854
50160SOL     OW55036   2.215   2.918   7.207  0.4436 -0.6448  0.1989
50160SOL    HW155037   2.298   2.950   7.170 -0.9603  1.2055 -1.5540
50160SOL    HW255038   2.198   2.976   7.281  1.8204 -2.5358  2.0949
50161SOL     OW55039   5.573   6.425   6.824 -0.2259  0.0106  0.2416
50161SOL    HW155040   5.496   6.426   6.881 -1.2658  1.9355 -1.0661
50161SOL    HW255041   5.616   6.508   6.840  1.4219 -0.8865  0.6744
50162SOL     OW55042   1.600   0.349   0.254 -0.2599 -0.3308  0.3357
50162SOL    HW155043   1.636   0.289   0.188  1.2821  0.1245  0.7164
50162SOL    HW255044   1.514   0.314   0.274 -0.0764 -1.4341 -0.7088
50163SOL     OW55045   4.146   2.011   0.355  0.3093 -0.0779  0.3292
50163SOL    HW155046   4.180   2.039   0.270 -1.1417 -0.4631 -0.4131
50163SOL    HW255047   4.191   1.929   0.373  2.0609  0.9549  0.8906
50164SOL     OW55048   8.730  10.785   7.764  0.1822 -0.2892  0.7668
50164SOL    HW155049   8.813  10.748   7.733 -0.8536 -3.1496  1.1606
50164SOL    HW255050   8.725  10.758   7.855 -0.4084  1.4309  1.2896
50165SOL     OW55051  10.324  11.822  11.542 -0.1146 -0.1714  0.3986
50165SOL    HW155052  10.410  11.837  11.502  0.8053 -0.8737  2.0016
50165SOL    HW255053  10.335  11.853  11.632 -1.5062 -0.4137  0.6642
50166SOL     OW55054   7.380   0.807   8.016 -0.0932 -0.6894  0.1850
50166SOL    HW155055   7.298   0.841   7.980 -0.2950  0.2731  1.4583
50166SOL    HW255056   7.426   0.770   7.941  1.2061  4.4423 -2.0279
50167SOL     OW55057  11.501  12.021   1.094 -0.1555 -0.5472 -0.6676
50167SOL    HW155058  11.434  11.977   1.042 -1.3739  0.4221  0.0192
50167SOL    HW255059  11.477  12.003   1.185  0.6392 -0.3454 -0.4056
50168SOL     OW55060   9.095   9.352   9.943  0.3061 -0.6377 -0.0215
50168SOL    HW155061   9.115   9.258   9.951  2.3567 -0.2209  0.3488
50168SOL    HW255062   9.118   9.388  10.029  4.0434  0.8800 -1.4550
50169SOL     OW55063   0.772   9.363   8.841 -0.5252 -0.5630  0.5095
50169SOL    HW155064   0.714   9.301   8.797 -1.6173  0.7106  0.0527
50169SOL    HW255065   0.846   9.374   8.781 -0.6269 -0.9668  0.3099
50170SOL     OW55066   2.013   2.949   0.733  0.1451 -0.3423 -0.6718
50170SOL    HW155067   1.968   2.871   0.765 -0.3664  0.2451  0.0681
50170SOL    HW255068   1.943   3.008   0.706  0.3948  1.0049  1.4756
50171SOL     OW55069   7.612   9.687   1.247 -0.1004  0.1669  0.1452
50171SOL    HW155070   7.683   9.672   1.184  0.4812 -1.6063  1.1752
50171SOL    HW255071   7.634   9.772   1.287 -0.4466  1.3027 -1.9248
50172SOL     OW55072   7.771  11.817   6.988 -0.0792  0.2362 -0.1604
50172SOL    HW155073   7.731  11.846   6.906 -0.0709  1.0316  0.1116
50172SOL    HW255074   7.699  11.775   7.036 -0.0101 -0.5280 -0.7000
50173SOL     OW55075   2.434   5.439   4.990 -0.4399 -0.1444  0.0808
50173SOL    HW155076   2.388   5.432   4.907 -0.2944  2.3656 -0.2807
50173SOL    HW255077   2.508   5.497   4.973  0.3586 -0.6222  1.6639
50174SOL     OW55078  11.662   9.429  12.052  0.1037  0.0808  0.3478
50174SOL    HW155079  11.662   9.476  11.969  0.1051 -1.0893 -0.3395
50174SOL    HW255080  11.755   9.413  12.070  0.0370 -1.8017 -0.7156
50175SOL     OW55081   3.956   7.860   1.370  0.0042  0.2164  0.0021
50175SOL    HW155082   3.894   7.843   1.441 -0.7872  1.1352 -0.4415
50175SOL    HW255083   3.903   7.901   1.302  1.0602  0.7577 -0.5084
50176SOL     OW55084   3.763   0.077   6.097  0.3891 -0.5781  0.8857
50176SOL    HW155085   3.804   0.051   6.014  0.8666 -0.0749  0.9607
50176SOL    HW255086   3.723   0.161   6.078  0.2218 -0.6117  1.0814
50177SOL     OW55087   6.729   6.706  10.299 -0.0959 -0.5433 -0.4222
50177SOL    HW155088   6.639   6.688  10.327  0.2140  0.2595  1.1950
50177SOL    HW255089   6.722   6.782  10.242 -0.1551  1.8899  2.5876
50178SOL     OW55090   8.258   2.306   1.697 -0.3232 -0.3014 -0.2461
50178SOL    HW155091   8.239   2.218   1.730 -1.8793  0.0390 -0.1687
50178SOL    HW255092   8.197   2.363   1.744  1.0537  0.9097  0.1192
50179SOL     OW55093   7.030   3.690   2.062  0.2210 -0.4161  0.3696
50179SOL    HW155094   7.028   3.670   1.968 -2.5638 -0.3678  0.3488
50179SOL    HW255095   6.966   3.760   2.073  2.5667  1.6443  1.9589
50180SOL     OW55096   4.352   5.886   3.964 -0.1605 -0.0497 -0.5323
50180SOL    HW155097   4.329   5.947   4.034  1.2263  0.3159 -0.3561
50180SOL    HW255098   4.322   5.930   3.884 -0.1211  0.3823 -0.3171
50181SOL     OW55099   9.727   5.310   0.315 -0.0749  0.1338  0.2585
50181SOL    HW155100   9.741   5.404   0.308  1.1792  0.0045  0.8364
50181SOL    HW255101   9.633   5.298   0.299 -0.5172  1.6144  1.6040
50182SOL     OW55102   9.656  10.747  10.453  0.6751 -0.3414 -0.2505
50182SOL    HW155103   9.683  10.667  10.500 -0.3014 -0.2433  0.5284
50182SOL    HW255104   9.679  10.818  10.512 -2.6132 -0.3328  1.2348
50183SOL     OW55105   0.014  10.073   6.106 -0.1865  0.3638  0.0536
50183SOL    HW155106   0.029  10.089   6.013  0.3572 -0.1947  0.0391
50183SOL    HW255107   0.094  10.103   6.150  0.9384 -2.2577  0.0100
50184SOL     OW55108   5.365   1.184   2.690  0.5329 -0.0897 -0.1765
50184SOL    HW155109   5.283   1.228   2.666  1.1225  1.7206  0.9352
50184SOL    HW255110   5.383   1.126   2.616 -0.0713  1.8629 -1.9808
50185SOL     OW55111   0.881   2.563   5.317  0.1547  0.1386 -0.1868
50185SOL    HW155112   0.797   2.564   5.271  0.7528 -0.4061 -1.3554
50185SOL    HW255113   0.905   2.656   5.324  0.1155  0.2318 -1.1349
50186SOL     OW55114   8.805   0.432   2.149 -0.1753 -0.8358 -0.4119
50186SOL    HW155115   8.757   0.412   2.069 -0.5506 -1.1193 -0.1186
50186SOL    HW255116   8.742   0.477   2.205  0.4352  0.4844 -0.7517
50187SOL     OW55117  11.673   7.640  11.769  0.3104 -0.0134  0.7096
50187SOL    HW155118  11.669   7.677  11.858  0.1611 -0.2533  0.8040
50187SOL    HW255119  11.608   7.570  11.770  0.8317 -0.4982  0.6337
50188SOL     OW55120   2.995   3.339   0.937 -0.2658  0.0418 -0.1392
50188SOL    HW155121   2.959   3.427   0.949 -0.8067 -0.3509  1.4252
50188SOL    HW255122   3.087   3.347   0.961 -0.2202  0.2598 -0.3845
50189SOL     OW55123   2.111   7.190   6.243 -0.2067 -0.3481  0.1261
50189SOL    HW155124   2.193   7.235   6.223 -0.9290 -0.4084 -4.0345
50189SOL    HW255125   2.091   7.142   6.162 -3.9696 -0.9069  1.2125
50190SOL     OW55126  11.188  11.886   2.589  0.0456  0.2453 -0.5837
50190SOL    HW155127  11.244  11.824   2.542 -0.8310  0.3338 -1.7935
50190SOL    HW255128  11.196  11.968   2.541 -0.6994  0.4030 -0.4565
50191SOL     OW55129   1.340   1.262  11.138 -0.0512 -0.4876 -0.3913
50191SOL    HW155130   1.334   1.357  11.128 -2.0552 -0.5280  0.0564
50191SOL    HW255131   1.286   1.227  11.068  0.6831 -1.3160 -0.5589
50192SOL     OW55132   6.955   4.935   6.544 -0.1759 -0.3821 -0.8572
50192SOL    HW155133   6.990   4.891   6.467  0.9398 -0.1502 -0.5066
50192SOL    HW255134   6.919   4.864   6.598 -1.4361 -0.4878 -1.8146
50193SOL     OW55135  11.811   2.521   0.943  0.2491  0.0928  0.1270
50193SOL    HW155136  11.764   2.605   0.941 -1.7411 -0.9387  0.7942
50193SOL    HW255137  11.743   2.456   0.959  1.5080 -1.8697 -1.9437
50194SOL     OW55138   0.747   8.586   1.068 -0.2045  0.3857  0.0943
50194SOL    HW155139   0.655   8.606   1.048 -0.2737 -1.1203 -1.3428
50194SOL    HW255140   0.746   8.557   1.159 -0.8739  1.9025  0.6021
50195SOL     OW55141   6.552   5.258   4.806 -0.4637 -0.0580  0.1475
50195SOL    HW155142   6.644   5.283   4.796 -0.8757  2.6480  2.0961
50195SOL    HW255143   6.508   5.295   4.729 -0.1084 -0.4688 -0.2619
50196SOL     OW55144  11.148   3.614   8.409 -0.6679  0.3485  0.3515
50196SOL    HW155145  11.155   3.527   8.369  2.1775 -1.1211  3.5528
50196SOL    HW255146  11.147   3.597   8.503  2.4086  3.7753  1.2300
50197SOL     OW55147   1.315   5.255   8.812  0.2050 -0.1560  0.1403
50197SOL    HW155148   1.337   5.187   8.875 -2.2414 -0.5016  0.7062
50197SOL    HW255149   1.278   5.208   8.737 -0.3453  0.4641  0.0093
50198SOL     OW55150   7.462   9.870   9.657  0.5474  0.1837  0.2282
50198SOL    HW155151   7.388   9.930   9.646 -1.0625 -1.7423  0.0489
50198SOL    HW255152   7.430   9.786   9.624  2.6500 -0.8454  0.6569
50199SOL     OW55153   8.697   9.907  10.697  0.2973  0.8670 -0.4563
50199SOL    HW155154   8.687   9.985  10.643  1.2113  0.5823 -1.0577
50199SOL    HW255155   8.612   9.896  10.739 -0.2593  1.4085 -1.4101
50200SOL     OW55156  11.914  11.029   1.518 -0.3288 -0.4022  0.4203
50200SOL    HW155157  11.860  10.980   1.579 -0.7439 -0.4024  0.0539
50200SOL    HW255158  12.004  11.015   1.549 -0.6181  0.7375  1.8674
50201SOL     OW55159   2.218   8.974  11.497  0.0362 -0.1915 -0.0838
50201SOL    HW155160   2.215   9.054  11.444  0.4218 -1.6648 -2.5055
50201SOL    HW255161   2.127   8.960  11.523  0.1016  1.4981  1.2116
50202SOL     OW55162   0.115   5.984   2.592 -0.1098  0.6352 -0.2677
50202SOL    HW155163   0.028   5.959   2.622 -1.5607  2.3797 -2.6374
50202SOL    HW255164   0.140   6.057   2.648  1.0590 -1.4397  2.0839
50203SOL     OW55165   2.646  11.458   2.639  0.6774  0.4535 -0.3138
50203SOL    HW155166   2.730  11.500   2.659  1.6303  0.4759 -3.7974
50203SOL    HW255167   2.581  11.524   2.662  1.8454  1.8806 -0.9351
50204SOL     OW55168   7.516  11.480  10.096 -0.4723 -0.3020 -0.2503
50204SOL    HW155169   7.523  11.522  10.182  0.9072  0.5989 -0.7523
50204SOL    HW255170   7.423  11.481  10.075 -0.5039  3.1619 -0.4895
50205SOL     OW55171   1.055   0.342   7.135  0.2308 -0.1041  0.1209
50205SOL    HW155172   1.016   0.255   7.124  1.4339 -0.5128 -1.2886
50205SOL    HW255173   0.982   0.403   7.124 -0.1808 -0.8650 -1.8133
50206SOL     OW55174   4.167   0.144   2.990  0.0622 -0.2077  0.1075
50206SOL    HW155175   4.098   0.177   2.933  1.4911  2.9483 -0.0222
50206SOL    HW255176   4.145   0.179   3.077  0.5475 -0.7057  0.4381
50207SOL     OW55177   3.685   3.410   5.733 -0.0182 -0.0331 -0.3288
50207SOL    HW155178   3.718   3.368   5.812 -0.0276 -0.9201 -0.7848
50207SOL    HW255179   3.710   3.502   5.742 -0.2480 -0.0696  0.8187
50208SOL     OW55180   0.185   2.361   8.896 -0.8466  0.4231  0.3430
50208SOL    HW155181   0.273   2.346   8.863 -0.9007 -0.8499  0.7528
50208SOL    HW255182   0.197   2.379   8.989 -0.9201  1.5223  0.1532
50209SOL     OW55183  11.548  10.171   2.510 -0.1124  0.4734 -0.1924
50209SOL    HW155184  11.599  10.229   2.566 -0.8242  1.1560 -0.2427
50209SOL    HW255185  11.522  10.098   2.567  2.4459 -0.8683 -0.5918
50210SOL     OW55186   4.537  11.403   6.286 -0.3816  0.1480  0.2065
50210SOL    HW155187   4.476  11.476   6.275 -1.3165 -0.7861 -1.1815
50210SOL    HW255188   4.623  11.442   6.277 -0.8200  1.2510  0.6310
50211SOL     OW55189  10.154   1.307   3.534  0.0748  0.6215  0.0167
50211SOL    HW155190  10.197   1.297   3.448 -0.3003  0.9810 -0.2176
50211SOL    HW255191  10.100   1.228   3.542 -0.7205  1.0848 -0.5708
50212SOL     OW55192  11.289  10.159   0.418  0.2821  0.8398 -0.6015
50212SOL    HW155193  11.317  10.194   0.333  1.1285  2.3283  0.2362
50212SOL    HW255194  11.234  10.084   0.396  0.4751  1.1820 -2.4602
50213SOL     OW55195   0.280   5.516   5.044  0.4499 -0.2584  0.6536
50213SOL    HW155196   0.265   5.447   4.979 -1.3250  0.8299 -0.1609
50213SOL    HW255197   0.338   5.579   5.000 -0.4217  0.2772  0.2614
50214SOL     OW55198  10.411   4.744   2.420  0.7201  0.0515 -1.3435
50214SOL    HW155199  10.424   4.775   2.330  0.9694 -0.2469 -1.4141
50214SOL    HW255200  10.438   4.652   2.417 -1.3315 -0.6032 -1.4719
50215SOL     OW55201   6.235   2.296   3.461 -0.2789 -0.7815  0.0368
50215SOL    HW155202   6.243   2.391   3.461 -0.6364 -0.7211 -1.4538
50215SOL    HW255203   6.292   2.266   3.532 -0.2548  0.5437  0.5887
50216SOL     OW55204  11.514   0.146   3.038  0.1551 -0.9591  0.1328
50216SOL    HW155205  11.586   0.087   3.018 -0.4550 -1.3647 -0.9640
50216SOL    HW255206  11.442   0.089   3.064 -0.6023 -0.7810 -1.4541
50217SOL     OW55207   6.879   3.985   5.048  0.2400  0.9420 -0.3851
50217SOL    HW155208   6.858   4.043   4.976  1.2251  2.3265  0.3816
50217SOL    HW255209   6.975   3.992   5.056  0.0850  1.4260  1.4975
50218SOL     OW55210   5.950   0.557  10.972  0.2462  0.2187 -0.2437
50218SOL    HW155211   6.010   0.602  10.912  0.8723 -0.4015 -0.0991
50218SOL    HW255212   5.863   0.588  10.947  0.3257 -1.1556 -2.5017
50219SOL     OW55213   2.029   0.472   9.164  0.2236 -0.0415 -0.0084
50219SOL    HW155214   2.070   0.413   9.227  1.3522 -0.3744 -1.0406
50219SOL    HW255215   2.060   0.559   9.189 -0.8827  0.0888  1.0709
50220SOL     OW55216   5.664   9.511   1.329  0.4326 -0.3039 -0.1392
50220SOL    HW155217   5.568   9.512   1.337  0.3562  0.4399 -1.0230
50220SOL    HW255218   5.687   9.599   1.302  1.5956  0.1810  2.1693
50221SOL     OW55219   8.957   6.879   2.240 -0.2017 -0.2040  0.7362
50221SOL    HW155220   8.999   6.951   2.193 -0.0085 -0.7404  0.0887
50221SOL    HW255221   8.946   6.913   2.329  1.4600 -0.0047  0.8865
50222SOL     OW55222   1.315   7.370  11.624  0.1307  0.3929  0.1377
50222SOL    HW155223   1.361   7.451  11.602 -0.5138  0.0041 -3.1445
50222SOL    HW255224   1.234   7.400  11.667  1.6374  1.1942  2.6750
50223SOL     OW55225   1.530   3.723  12.110 -0.2144  0.1552  0.0747
50223SOL    HW155226   1.477   3.668  12.168 -0.4688  0.3944  0.0715
50223SOL    HW255227   1.490   3.714  12.024 -0.9533  1.2281  0.2908
50224SOL     OW55228   8.305   3.563  11.735 -0.1393  0.3037 -0.0854
50224SOL    HW155229   8.245   3.632  11.765 -0.4192 -0.0104  0.0851
50224SOL    HW255230   8.313   3.578  11.641  0.0013  0.7244 -0.0059
50225SOL     OW55231   0.176   0.399   9.976  0.4457 -0.0354 -0.0586
50225SOL    HW155232   0.158   0.336   9.906 -1.9968 -0.4759  0.8500
50225SOL    HW255233   0.187   0.483   9.931 -2.3696 -0.0628 -0.9804
50226SOL     OW55234   0.119   6.361   2.998  0.3432 -0.3126  0.2400
50226SOL    HW155235   0.173   6.371   2.920  0.5056 -1.3199  0.2133
50226SOL    HW255236   0.147   6.432   3.056  0.4867  0.2081 -0.4556
50227SOL     OW55237   0.979   4.812   3.755 -0.2362  0.1213  0.2215
50227SOL    HW155238   0.978   4.826   3.849 -0.1751  0.7426  0.1347
50227SOL    HW255239   0.896   4.768   3.736 -0.2593  0.0182  0.5592
50228SOL     OW55240  11.592  11.464   5.391 -0.6818 -0.3733 -0.3385
50228SOL    HW155241  11.531  11.391   5.389 -1.9657  0.4549  2.6801
50228SOL    HW255242  11.634  11.458   5.477  1.6880  0.5571 -1.3254
50229SOL     OW55243   3.911   9.482  10.986  0.1351 -0.4054  0.2898
50229SOL    HW155244   4.004   9.501  10.998 -0.2005  1.6620  0.0045
50229SOL    HW255245   3.908   9.425  10.909  1.0512  1.4015 -1.1587
50230SOL     OW55246   2.210   1.282   0.256  0.1738  0.1583  0.3604
50230SOL    HW155247   2.149   1.210   0.272 -0.9328  1.0272  0.1955
50230SOL    HW255248   2.222   1.283   0.161  0.9159 -0.3793  0.4450
50231SOL     OW55249  10.528   3.563  10.689 -0.3837  0.4291 -0.1097
50231SOL    HW155250  10.584   3.637  10.662 -0.0101  0.7391  1.4396
50231SOL    HW255251  10.589   3.495  10.716 -0.6862 -0.9635 -2.5922
50232SOL     OW55252   1.228  10.401  10.327  0.0593 -1.0665 -0.0471
50232SOL    HW155253   1.309  10.380  10.374  0.8429  0.2602 -0.7139
50232SOL    HW255254   1.165  10.336  10.357  0.5669 -0.4566  2.6170
50233SOL     OW55255   2.816   8.614   0.805 -0.1297 -0.0196 -0.1945
50233SOL    HW155256   2.851   8.539   0.853  1.3197  0.3116 -0.6679
50233SOL    HW255257   2.802   8.681   0.873  0.9852  0.1161 -0.0758
50234SOL     OW55258   6.448   6.055   7.488  0.2026  0.3962 -0.3790
50234SOL    HW155259   6.540   6.066   7.463  0.6063 -3.0312 -0.9007
50234SOL    HW255260   6.411   6.002   7.417 -1.6853  0.1810  0.7284
50235SOL     OW55261   6.928   0.079   0.123  0.2747  0.0916 -0.1585
50235SOL    HW155262   6.968   0.029   0.051 -1.9424  0.5262 -1.7719
50235SOL    HW255263   6.858   0.022   0.156  0.4379  0.4401  0.8293
50236SOL     OW55264  11.442   3.620   4.326  0.4348 -0.2327 -0.1008
50236SOL    HW155265  11.455   3.551   4.261  1.0179  0.4545 -0.7208
50236SOL    HW255266  11.347   3.632   4.329  0.3328 -0.9578 -0.0840
50237SOL     OW55267   8.448   5.248   0.151  0.3763 -0.0581  0.5627
50237SOL    HW155268   8.483   5.333   0.124  1.1648 -0.8753 -1.1383
50237SOL    HW255269   8.353   5.262   0.157  0.4634  0.8568  0.0041
50238SOL     OW55270   6.710   0.479   2.940  0.4251 -0.1006 -0.1827
50238SOL    HW155271   6.768   0.541   2.898 -1.6357  1.9232 -0.2421
50238SOL    HW255272   6.685   0.418   2.870  1.3316 -0.1392 -0.4840
50239SOL     OW55273   1.361  11.046   7.674  0.3695  0.4816 -0.3919
50239SOL    HW155274   1.328  11.064   7.586  0.2264  1.1785 -0.2026
50239SOL    HW255275   1.371  11.132   7.714  0.5812  0.1787  0.2219
50240SOL     OW55276   1.513   9.710  11.565  0.2686 -0.3461 -0.1042
50240SOL    HW155277   1.475   9.790  11.601  1.6620  0.5910 -0.6283
50240SOL    HW255278   1.536   9.657  11.641  0.2504  0.1959  0.2781
50241SOL     OW55279  11.414   6.482  10.143 -0.2770 -0.1138  0.0898
50241SOL    HW155280  11.349   6.538  10.101  0.5207  0.2671 -0.6572
50241SOL    HW255281  11.443   6.424  10.073  0.9913  0.4504  0.1343
50242SOL     OW55282  11.159   6.751   3.139  0.4867 -0.3226  0.0307
50242SOL    HW155283  11.157   6.841   3.108  0.0974 -0.4472 -0.3039
50242SOL    HW255284  11.068   6.727   3.154  0.3506 -1.4577 -2.2270
50243SOL     OW55285   7.294   6.556   8.275  0.2638 -0.8040  0.1854
50243SOL    HW155286   7.246   6.637   8.293 -0.7098 -1.1861 -0.5996
50243SOL    HW255287   7.371   6.585   8.226  0.3942 -0.2745  0.6799
50244SOL     OW55288   4.192   6.561   5.454  0.2082  0.0545 -0.3046
50244SOL    HW155289   4.189   6.625   5.525  0.0560 -0.2766 -0.0112
50244SOL    HW255290   4.194   6.614   5.374  3.2432  0.5550 -0.0343
50245SOL     OW55291  11.825   4.512  10.425  0.9454 -0.6208 -0.0788
50245SOL    HW155292  11.869   4.427  10.417 -0.3378 -1.4897  1.5993
50245SOL    HW255293  11.822   4.528  10.519  2.2147  1.9090 -0.3804
50246SOL     OW55294   0.413  10.529   7.563 -0.0281 -0.4900 -0.0218
50246SOL    HW155295   0.327  10.534   7.522  0.2855  1.0221 -0.5627
50246SOL    HW255296   0.423  10.437   7.588 -2.1514 -0.5199  0.8647
50247SOL     OW55297   7.036  10.436   4.024 -0.0178  0.0403  0.0519
50247SOL    HW155298   7.063  10.386   3.947  0.9537  0.8110 -0.1301
50247SOL    HW255299   7.019  10.370   4.091  2.7715 -0.5263  0.3075
50248SOL     OW55300   1.506   8.793  10.228  0.4179 -0.1846  0.0098
50248SOL    HW155301   1.509   8.700  10.248  0.2499 -0.4248 -1.0098
50248SOL    HW255302   1.417   8.807  10.195  0.7908  0.0990 -0.8995
50249SOL     OW55303  10.628   9.455  11.793 -0.4615 -0.2509 -0.4584
50249SOL    HW155304  10.622   9.550  11.794 -0.0610 -0.2047  1.0504
50249SOL    HW255305  10.568   9.427  11.724 -0.1029  1.1105 -1.3531
50250SOL     OW55306   5.672   8.784   0.758 -0.4240 -0.2702 -0.3646
50250SOL    HW155307   5.712   8.854   0.708  0.7021 -1.4830 -1.2337
50250SOL    HW255308   5.634   8.827   0.834  3.2388  0.9338  0.9791
50251SOL     OW55309  10.753   1.024   7.893 -0.3666  0.2277 -0.2862
50251SOL    HW155310  10.720   1.114   7.897 -0.2622  0.2883 -0.7937
50251SOL    HW255311  10.703   0.983   7.823 -1.3412 -0.4944  0.7891
50252SOL     OW55312   6.472   9.405   3.812 -0.1227 -0.3138 -0.3875
50252SOL    HW155313   6.445   9.488   3.852 -0.7640 -0.1633 -1.1173
50252SOL    HW255314   6.566   9.399   3.830  0.1281  1.0416 -1.1352
50253SOL     OW55315   8.978  11.674   8.822  0.4426  0.0924  0.6506
50253SOL    HW155316   9.039  11.627   8.879  0.5218 -0.4326  0.1294
50253SOL    HW255317   8.914  11.609   8.796  0.3098  0.3772  0.2664
50254SOL     OW55318  11.975  10.706   1.399 -0.5401  0.3325 -0.0171
50254SOL    HW155319  12.056  10.718   1.350 -0.2433  0.0103  0.3954
50254SOL    HW255320  11.906  10.708   1.331 -0.1916  0.5680 -0.3675
50255SOL     OW55321   9.322   1.852   1.480 -0.0285  0.4063 -0.0020
50255SOL    HW155322   9.269   1.833   1.557  0.7253  0.8484  0.6524
50255SOL    HW255323   9.380   1.923   1.508  0.1574  0.6839 -1.0301
50256SOL     OW55324   2.264   2.232   5.566  0.3397 -0.5721 -0.3475
50256SOL    HW155325   2.217   2.207   5.487 -0.5310  0.9597 -0.3772
50256SOL    HW255326   2.326   2.299   5.537  1.1441 -1.1468  0.0217
50257SOL     OW55327   1.045   3.706   7.411  0.3866  0.2362 -0.1636
50257SOL    HW155328   1.081   3.771   7.472 -0.2478  1.4366 -1.0204
50257SOL    HW255329   0.990   3.650   7.466 -0.3750  1.4482  0.3614
50258SOL     OW55330   6.017   2.168   6.359 -0.0920 -0.1959 -0.3074
50258SOL    HW155331   6.065   2.148   6.440 -0.3286 -0.2555 -0.1833
50258SOL    HW255332   5.926   2.180   6.387  0.1098  1.6039 -0.2671
50259SOL     OW55333   0.694   5.266   7.852  0.1474 -0.4569  0.6076
50259SOL    HW155334   0.660   5.203   7.788 -0.8806 -0.0616  0.7305
50259SOL    HW255335   0.647   5.246   7.933 -0.3549  0.5848  0.5922
50260SOL     OW55336   0.963  10.657   3.843  0.0881  0.6092 -0.5560
50260SOL    HW155337   0.897  10.651   3.911  0.7525 -1.1578 -0.0081
50260SOL    HW255338   0.916  10.639   3.762 -0.3268  0.5815 -0.3085
50261SOL     OW55339   7.888  10.987   5.908 -0.1843 -0.1105 -0.0289
50261SOL    HW155340   7.981  10.966   5.916 -0.7161 -2.6184  0.6569
50261SOL    HW255341   7.866  11.027   5.992  0.2163  0.2070 -0.0742
50262SOL     OW55342   5.666   2.906  11.426  0.2071  0.9481  0.3096
50262SOL    HW155343   5.707   2.970  11.484 -0.1450  0.3348  1.2502
50262SOL    HW255344   5.738   2.877  11.369  0.8627  0.6504  1.2524
50263SOL     OW55345   4.510   1.540   5.584 -0.8125 -0.4065  0.6125
50263SOL    HW155346   4.484   1.546   5.492  0.8558 -0.5268  0.0974
50263SOL    HW255347   4.470   1.459   5.615 -0.6063 -0.8743 -0.2990
50264SOL     OW55348   2.498  10.730   4.873 -0.7115 -0.5953  0.3135
50264SOL    HW155349   2.463  10.810   4.834  0.6082 -0.2796 -0.2823
50264SOL    HW255350   2.468  10.660   4.816 -0.7707 -0.3787  0.0790
50265SOL     OW55351   2.907   9.712   6.905  0.0840 -0.1399 -0.5036
50265SOL    HW155352   2.998   9.732   6.924  0.3382 -1.0841 -0.6994
50265SOL    HW255353   2.907   9.681   6.815 -0.3404 -0.7187 -0.3115
50266SOL     OW55354   2.160   2.254   2.465  0.1661  0.4448 -0.0762
50266SOL    HW155355   2.226   2.187   2.488  1.3203  1.9420  1.2310
50266SOL    HW255356   2.176   2.273   2.373  0.6667 -0.1971 -0.1294
50267SOL     OW55357   1.166   1.164  11.362  0.0521 -0.3142 -0.5922
50267SOL    HW155358   1.205   1.206  11.285  0.0760 -0.5436 -0.7042
50267SOL    HW255359   1.072   1.168  11.347  0.0631 -0.5194 -0.7170
50268SOL     OW55360   8.789   7.797   4.284 -0.0535 -0.0366 -0.0127
50268SOL    HW155361   8.727   7.857   4.326  0.6778  0.7686 -0.0546
50268SOL    HW255362   8.845   7.854   4.231  2.5494 -0.3347  2.2012
50269SOL     OW55363   9.532  12.079   6.287 -0.0855 -0.0066 -0.4503
50269SOL    HW155364   9.464  12.081   6.354  0.5248  0.1882  0.1860
50269SOL    HW255365   9.588  12.154   6.307  0.9866 -0.8256 -0.2138
50270SOL     OW55366  10.280   6.884  10.660  0.6953  0.3128 -0.7358
50270SOL    HW155367  10.207   6.837  10.702  1.3327 -1.6185 -1.6699
50270SOL    HW255368  10.237   6.951  10.607 -0.3388  0.0642 -0.2507
50271SOL     OW55369   1.571  10.199   4.266  0.0291  0.7141  0.7223
50271SOL    HW155370   1.566  10.182   4.360  2.6266  1.0667  0.9746
50271SOL    HW255371   1.657  10.239   4.253 -0.0584  0.2030 -1.8803
50272SOL     OW55372  11.272  11.259   6.458  0.3510 -0.2989 -0.1398
50272SOL    HW155373  11.247  11.268   6.550 -0.9437  1.0357 -0.5831
50272SOL    HW255374  11.216  11.190   6.424  0.4994 -0.4640 -0.0544
50273SOL     OW55375   6.175   1.352   6.658  0.1642 -1.0776  1.3144
50273SOL    HW155376   6.183   1.444   6.634 -0.6923 -0.7490  2.2134
50273SOL    HW255377   6.260   1.329   6.693  0.4132 -0.6550  0.9940
50274SOL     OW55378   0.180   5.937   1.202  0.5918 -0.2371 -0.2408
50274SOL    HW155379   0.258   5.980   1.168 -0.0488  0.5195 -0.8197
50274SOL    HW255380   0.184   5.950   1.296  1.0817 -0.0563 -0.2872
50275SOL     OW55381  10.577  11.361   8.673  0.3580  0.6405  0.4742
50275SOL    HW155382  10.496  11.316   8.650  0.0965  1.0978  0.5044
50275SOL    HW255383  10.554  11.415   8.748  1.4496 -1.6618  2.6263
50276SOL     OW55384   5.353   9.598  11.918  0.1997  0.4133 -0.0810
50276SOL    HW155385   5.446   9.581  11.909 -0.2175 -1.1603 -2.2669
50276SOL    HW255386   5.311   9.520  11.880 -1.9683  2.2271 -1.6315
50277SOL     OW55387  11.567   2.773   2.738 -0.1576  0.1422 -0.0172
50277SOL    HW155388  11.499   2.830   2.702  0.3360  0.3826 -0.5963
50277SOL    HW255389  11.575   2.703   2.673 -1.8664 -1.5043  1.4181
50278SOL     OW55390   2.717   8.598   8.607  0.0836 -0.2125  0.0273
50278SOL    HW155391   2.799   8.599   8.657  0.7290 -0.1896 -0.9817
50278SOL    HW255392   2.654   8.553   8.662  0.4373  0.8540  1.3486
50279SOL     OW55393   5.923   8.508   9.610 -0.2522 -0.1078  0.0518
50279SOL    HW155394   5.853   8.445   9.626 -0.4295  0.2361  0.6688
50279SOL    HW255395   6.004   8.459   9.626 -0.3198 -0.6213 -1.0720
50280SOL     OW55396   8.301   3.930   6.517  0.0102 -0.1751  0.3149
50280SOL    HW155397   8.254   3.871   6.458 -0.8084 -0.6555  1.4102
50280SOL    HW255398   8.258   4.015   6.506 -0.2740 -0.3126  0.3669
50281SOL     OW55399   8.123  10.455  10.097 -0.8467 -0.2243 -0.2902
50281SOL    HW155400   8.056  10.435  10.163 -1.4802  1.1975 -0.4754
50281SOL    HW255401   8.098  10.402  10.021 -0.9543 -0.7572  0.1136
50282SOL     OW55402   9.264  11.022   3.480 -0.1913 -0.5048 -0.9263
50282SOL    HW155403   9.311  10.948   3.440  0.4890 -0.9041  0.5357
50282SOL    HW255404   9.190  11.038   3.421  1.2685 -0.4016 -2.8742
50283SOL     OW55405   9.871   4.278   8.785 -0.2971 -0.3174  0.6315
50283SOL    HW155406   9.829   4.214   8.843 -0.1405 -1.3439 -0.3722
50283SOL    HW255407   9.870   4.237   8.699 -1.5932  1.6654 -0.3624
50284SOL     OW55408  11.367   7.901   7.310  0.1378  0.5598  0.2440
50284SOL    HW155409  11.291   7.903   7.368 -1.4748  0.5032 -1.7470
50284SOL    HW255410  11.332   7.875   7.225  2.6497 -0.9865 -0.4306
50285SOL     OW55411   9.277   3.635   7.845  0.1780 -0.0397  0.3253
50285SOL    HW155412   9.236   3.692   7.910 -2.2162 -2.0265  0.7069
50285SOL    HW255413   9.221   3.642   7.768  0.1785 -1.3767  0.1773
50286SOL     OW55414   0.738   4.905   3.917  0.7010 -0.2219 -0.2330
50286SOL    HW155415   0.650   4.872   3.902  0.0833  0.8457  0.9242
50286SOL    HW255416   0.733   4.998   3.896  1.0230  0.2779  1.7504
50287SOL     OW55417   3.420   2.252   5.346  0.0553 -0.2838 -0.2181
50287SOL    HW155418   3.483   2.185   5.371  1.8018  0.7109 -1.7097
50287SOL    HW255419   3.422   2.253   5.250 -0.8735  1.0287 -0.2614
50288SOL     OW55420   7.532   2.007   1.389 -0.1025 -0.4383  0.4600
50288SOL    HW155421   7.525   2.011   1.485 -0.6716  1.2898  0.3859
50288SOL    HW255422   7.616   1.963   1.373  1.3888  1.7010  1.8275
50289SOL     OW55423   4.935   9.858   2.986 -0.2349 -0.1193 -0.0863
50289SOL    HW155424   4.878   9.824   3.055  1.2460  0.8628  1.6855
50289SOL    HW255425   5.012   9.802   2.989  0.2969  0.5945 -0.2155
50290SOL     OW55426   4.153  10.898   2.735  0.1107 -0.1343  0.1797
50290SOL    HW155427   4.203  10.824   2.700 -0.9109 -0.8590  0.1907
50290SOL    HW255428   4.090  10.858   2.796  0.0508  0.8269  0.7732
50291SOL     OW55429   3.052   7.732  10.287 -0.0621  0.2576  0.0160
50291SOL    HW155430   2.986   7.722  10.218  2.6590 -2.7067 -2.5014
50291SOL    HW255431   3.123   7.780  10.244  1.7083 -1.6543  0.6594
50292SOL     OW55432   6.972  11.899  10.081 -0.2404 -0.7059 -0.0334
50292SOL    HW155433   6.893  11.886  10.028 -0.1979  0.1266 -0.3129
50292SOL    HW255434   7.044  11.867  10.026  0.1595  2.6799 -1.7298
50293SOL     OW55435  11.698   3.323   3.165  0.1265  0.2958  0.5857
50293SOL    HW155436  11.647   3.394   3.126 -0.5540 -0.4271  0.1311
50293SOL    HW255437  11.642   3.246   3.156  1.0315 -0.3854  0.6718
50294SOL     OW55438  11.660   1.777   9.487 -0.0509  0.0635 -0.0098
50294SOL    HW155439  11.681   1.754   9.577  0.8065  1.0793  0.0728
50294SOL    HW255440  11.662   1.694   9.439 -0.2935 -0.4510  0.8586
50295SOL     OW55441   8.901   3.312   7.903  0.2133 -0.0670  0.3641
50295SOL    HW155442   8.995   3.314   7.916  0.1538 -1.3710  1.1338
50295SOL    HW255443   8.865   3.280   7.986 -0.9184  0.5356  0.1322
50296SOL     OW55444   7.673   1.476   9.487 -0.3354 -0.4563  0.2651
50296SOL    HW155445   7.720   1.538   9.431  1.9475 -0.6054  1.8813
50296SOL    HW255446   7.591   1.521   9.507 -0.0224  0.7624 -0.9485
50297SOL     OW55447   5.009   7.272   1.611 -0.0914  0.1134 -0.0378
50297SOL    HW155448   4.975   7.278   1.522  0.7229  0.4906 -0.3252
50297SOL    HW255449   5.104   7.265   1.601  0.1927  1.9592  0.8394
50298SOL     OW55450  10.718  11.137  10.953  0.0519  0.4202 -0.2720
50298SOL    HW155451  10.635  11.119  10.908  0.3826 -0.5672 -0.5102
50298SOL    HW255452  10.784  11.135  10.884  0.5257 -0.8252  0.1814
50299SOL     OW55453   4.981   9.013   7.710  0.1480  0.2584 -0.2986
50299SOL    HW155454   4.903   8.960   7.726 -0.0588  0.5705 -0.2669
50299SOL    HW255455   5.040   8.956   7.662  1.1795 -1.0594  2.3051
50300SOL     OW55456   3.370   8.351   5.574  0.1581 -0.0419  0.3369
50300SOL    HW155457   3.390   8.436   5.613 -1.5834  0.1116  1.0034
50300SOL    HW255458   3.384   8.362   5.480  0.2903  0.8755  0.4633
50301SOL     OW55459   8.267  10.782  10.552 -0.2485  0.0338  0.2761
50301SOL    HW155460   8.236  10.701  10.511 -0.9329 -0.3625  1.5321
50301SOL    HW255461   8.352  10.759  10.589 -0.0355  0.1514 -0.1249
50302SOL     OW55462   0.083   7.236   0.923  0.1645 -0.5833 -0.1410
50302SOL    HW155463   0.161   7.282   0.955  1.0967 -1.4101 -1.1637
50302SOL    HW255464   0.115   7.181   0.852 -1.1073 -2.0118  0.3360
50303SOL     OW55465   1.354   6.415   9.913  0.2723 -0.8214  0.3960
50303SOL    HW155466   1.400   6.498   9.921  1.4815 -1.6150  2.4631
50303SOL    HW255467   1.262   6.437   9.922  0.4990  0.3820 -0.0048
50304SOL     OW55468   6.571   8.014   2.370  0.8517  0.3847 -0.3661
50304SOL    HW155469   6.573   8.012   2.274  2.1415  1.0187 -0.3711
50304SOL    HW255470   6.491   7.966   2.393 -0.1604  1.3020 -1.7781
50305SOL     OW55471   2.350   2.290   0.408 -0.0956  0.0297 -1.0342
50305SOL    HW155472   2.417   2.352   0.434  0.4229 -0.7141 -0.5466
50305SOL    HW255473   2.339   2.232   0.484  2.1115 -2.7518 -2.6100
50306SOL     OW55474   2.291   7.230   2.303  0.4766  0.1426 -0.1403
50306SOL    HW155475   2.228   7.254   2.235  0.2617  1.4946  0.5008
50306SOL    HW255476   2.249   7.158   2.350 -0.9025  1.3499  0.6107
50307SOL     OW55477   4.667   6.492   4.955  0.5776  0.0971 -0.3821
50307SOL    HW155478   4.701   6.499   4.866  0.7220 -1.2721 -0.4589
50307SOL    HW255479   4.607   6.418   4.951  1.3432 -0.6140  0.8769
50308SOL     OW55480   3.000   8.418  10.189  0.4070 -0.6236  0.0398
50308SOL    HW155481   3.038   8.347  10.138  1.0355  0.9397 -1.8328
50308SOL    HW255482   3.069   8.444  10.250  1.0496 -0.2029 -0.8272
50309SOL     OW55483   3.053   9.461   7.598 -0.5598 -0.2397 -0.0887
50309SOL    HW155484   2.962   9.461   7.570 -0.8421 -2.2399  0.7275
50309SOL    HW255485   3.101   9.497   7.523 -1.9759  0.7398 -0.5581
50310SOL     OW55486   3.181   6.918   5.302  0.6152  0.3415 -0.9138
50310SOL    HW155487   3.107   6.865   5.272 -0.5737  0.5626  1.3547
50310SOL    HW255488   3.252   6.855   5.316  0.0133 -0.2890 -0.6341
50311SOL     OW55489   9.728   8.571  11.196  0.1346  0.6669  0.1823
50311SOL    HW155490   9.684   8.564  11.281 -1.8217  0.6320 -0.7792
50311SOL    HW255491   9.752   8.481  11.174 -2.3275  0.1714 -0.7455
50312SOL     OW55492   0.034  11.054  11.903 -0.3146  0.3462  0.4243
50312SOL    HW155493   0.078  11.126  11.948 -2.0757  1.6093  0.2273
50312SOL    HW255494   0.081  11.047  11.819 -1.0707  2.4038 -0.2553
50313SOL     OW55495   0.439   3.082   6.770  0.1920  0.0966 -0.2314
50313SOL    HW155496   0.399   3.117   6.849 -1.1358  0.5300 -1.0781
50313SOL    HW255497   0.532   3.104   6.779  0.0445  0.2837  1.1112
50314SOL     OW55498  11.623   3.385   6.266  0.2076 -0.0215 -0.4675
50314SOL    HW155499  11.580   3.426   6.341 -2.0480  0.7040 -2.0631
50314SOL    HW255500  11.653   3.458   6.212  1.1164 -0.5350 -0.6821
50315SOL     OW55501   3.974   1.920  11.383 -0.0380  0.1616  0.0469
50315SOL    HW155502   3.990   1.848  11.323  0.9773  0.5050 -0.1231
50315SOL    HW255503   4.001   1.887  11.469  1.1432  0.5724 -0.1543
50316SOL     OW55504   0.891   8.767   9.930  0.1806  0.0883 -0.2702
50316SOL    HW155505   0.833   8.697   9.959  0.1693 -0.0144 -0.5347
50316SOL    HW255506   0.910   8.745   9.839  0.7430  0.0430 -0.1472
50317SOL     OW55507   3.952   8.460   1.025 -0.2039 -0.2574 -0.6321
50317SOL    HW155508   4.004   8.489   0.950  2.1763  0.2511  1.0710
50317SOL    HW255509   3.895   8.534   1.045  0.9284  0.6255 -0.4983
50318SOL     OW55510   5.411  10.033   9.400  0.0216 -0.3352  0.2515
50318SOL    HW155511   5.371  10.087   9.333 -2.8460 -3.0125 -0.4214
50318SOL    HW255512   5.464   9.969   9.351  0.5793 -0.3085  0.8014
50319SOL     OW55513   8.441  10.710   7.999 -0.2321 -0.4514  0.3652
50319SOL    HW155514   8.412  10.795   7.966  0.2291 -0.7231 -0.8019
50319SOL    HW255515   8.536  10.711   7.988 -0.2120 -1.0788  0.4175
50320SOL     OW55516   5.679   0.427   5.960  0.0750 -0.5896  0.0674
50320SOL    HW155517   5.712   0.359   6.018  1.4214 -0.5590 -0.6323
50320SOL    HW255518   5.584   0.417   5.964  0.1101 -0.4757  2.3860
50321SOL     OW55519   3.861   7.295   9.801  0.3876  0.1159 -0.0830
50321SOL    HW155520   3.897   7.224   9.748 -1.7677 -0.0302 -1.4668
50321SOL    HW255521   3.854   7.369   9.741 -2.2470 -0.0944 -0.1470
50322SOL     OW55522   1.606   3.791   3.209  0.2796  0.0861 -0.2422
50322SOL    HW155523   1.682   3.785   3.268  0.1910 -2.2996 -0.2499
50322SOL    HW255524   1.544   3.728   3.246 -0.5658 -0.0038 -1.7769
50323SOL     OW55525   1.654   4.395   5.902 -0.4969 -0.2773  0.3646
50323SOL    HW155526   1.739   4.432   5.926 -1.9210  2.3254  1.7472
50323SOL    HW255527   1.624   4.350   5.981 -2.4302  2.9741  1.6701
50324SOL     OW55528   5.926   6.809   2.576 -0.3043 -0.1103  0.3764
50324SOL    HW155529   5.985   6.782   2.646  2.2492  0.4551 -1.4326
50324SOL    HW255530   5.894   6.895   2.603 -1.1345 -0.8395  1.8277
50325SOL     OW55531   2.876  10.617   1.127  0.2309  0.0937  0.8604
50325SOL    HW155532   2.858  10.697   1.176 -0.5881  0.9526 -0.7756
50325SOL    HW255533   2.790  10.578   1.112  0.2144  0.9574 -1.6570
50326SOL     OW55534   8.724  11.249   2.311  0.3774 -0.5345  0.1097
50326SOL    HW155535   8.767  11.168   2.336  0.3529 -0.1789  1.3763
50326SOL    HW255536   8.663  11.267   2.383 -0.0068  0.3284 -0.4137
50327SOL     OW55537   9.742   4.880   3.919 -0.0236  0.4255 -0.1775
50327SOL    HW155538   9.767   4.804   3.867  0.7037 -1.0460  2.1684
50327SOL    HW255539   9.649   4.893   3.898 -0.3025 -1.4270 -0.3039
50328SOL     OW55540  10.487   8.970   3.948  0.4521  0.5868 -0.6536
50328SOL    HW155541  10.460   9.010   4.030 -0.6693  0.8809 -1.1392
50328SOL    HW255542  10.581   8.985   3.943  0.7431 -0.4427  1.0966
50329SOL     OW55543  11.100   0.516   2.017  0.0381 -0.3237  0.0213
50329SOL    HW155544  11.053   0.595   1.990 -0.6461 -0.6878  0.1353
50329SOL    HW255545  11.072   0.449   1.954  1.1710 -0.3077 -0.5254
50330SOL     OW55546   8.629   2.327   7.297 -0.2991  0.0702  0.6532
50330SOL    HW155547   8.686   2.388   7.250  0.7732 -1.3242  0.0626
50330SOL    HW255548   8.641   2.349   7.389  0.8009  0.1537  0.5021
50331SOL     OW55549  11.537   6.557   8.181  0.0168  0.6771 -0.6447
50331SOL    HW155550  11.488   6.569   8.263  1.4080  2.1159  0.0319
50331SOL    HW255551  11.629   6.555   8.207  0.4126 -1.6579 -1.9271
50332SOL     OW55552   6.655   5.677  10.409 -0.0441 -0.2062 -0.4880
50332SOL    HW155553   6.669   5.587  10.381  0.5564 -0.4964  0.6541
50332SOL    HW255554   6.561   5.683  10.427  0.0539 -0.9064  0.3426
50333SOL     OW55555   4.500  10.513  10.386  0.1015 -0.0204 -0.3958
50333SOL    HW155556   4.503  10.608  10.397  0.5574 -0.0384 -0.3316
50333SOL    HW255557   4.561  10.495  10.314 -1.9743 -0.0214 -2.2450
50334SOL     OW55558   8.337  11.113   2.909  0.5462  0.2345 -0.4230
50334SOL    HW155559   8.295  11.040   2.863  1.7771 -1.0707  0.4301
50334SOL    HW255560   8.401  11.148   2.847 -1.0982  1.6570 -1.4030
50335SOL     OW55561   7.617   5.916   5.544  0.0936 -0.2169 -0.2901
50335SOL    HW155562   7.646   5.866   5.468  1.8217  1.9034 -1.1671
50335SOL    HW255563   7.680   5.989   5.549 -2.2458  1.8806  0.8252
50336SOL     OW55564   8.813   8.120   1.725 -0.5875  0.4582 -0.1721
50336SOL    HW155565   8.891   8.171   1.702  0.0111  0.8651  2.4337
50336SOL    HW255566   8.827   8.094   1.816 -3.3664  0.2846  0.3057
50337SOL     OW55567   5.292   4.595   4.466 -0.5215 -0.4224 -1.0264
50337SOL    HW155568   5.231   4.526   4.440 -0.0423 -0.9763 -0.7211
50337SOL    HW255569   5.378   4.559   4.446 -0.2599  0.0397 -0.7515
50338SOL     OW55570   1.832   7.151   6.466 -0.4035 -0.4355  0.0945
50338SOL    HW155571   1.812   7.235   6.508 -1.3574 -0.3770 -0.4584
50338SOL    HW255572   1.780   7.087   6.516 -1.3480 -0.3987 -0.8183
50339SOL     OW55573   6.267   6.147   5.770  0.2048 -0.0371 -0.5295
50339SOL    HW155574   6.294   6.151   5.678  3.0510  0.9521  0.2738
50339SOL    HW255575   6.324   6.208   5.815 -1.6741  0.1346  1.8396
50340SOL     OW55576   2.706  11.886   6.715 -0.5055  0.1337  0.3495
50340SOL    HW155577   2.685  11.949   6.784  0.2124  0.7815 -0.0022
50340SOL    HW255578   2.665  11.922   6.637  0.6543  0.6685 -0.0435
50341SOL     OW55579   4.354   2.353   1.696 -0.1064 -0.0719  0.5725
50341SOL    HW155580   4.432   2.405   1.718  1.0469 -1.8674  0.8774
50341SOL    HW255581   4.312   2.403   1.627 -0.3253  2.4499  2.3702
50342SOL     OW55582   0.125   1.470   7.889  0.1960 -0.1673 -0.2352
50342SOL    HW155583   0.182   1.395   7.907  0.8736  0.1710 -0.9347
50342SOL    HW255584   0.134   1.526   7.965  0.4905 -0.3071 -0.1650
50343SOL     OW55585   7.401   2.939  11.498  0.0954 -0.8604 -0.2474
50343SOL    HW155586   7.355   2.969  11.576 -0.7069 -3.5366  0.4017
50343SOL    HW255587   7.381   3.005  11.432 -2.0416 -0.2827  0.8920
50344SOL     OW55588   1.222   5.112   3.276 -0.0900  0.1187  0.1545
50344SOL    HW155589   1.253   5.149   3.359  1.0119 -0.0440 -0.1721
50344SOL    HW255590   1.260   5.024   3.273 -1.4594 -0.5106  0.2177
50345SOL     OW55591   3.595   9.423   0.480  0.1848  0.5516  0.7386
50345SOL    HW155592   3.558   9.347   0.436 -1.4177  2.2982 -1.1608
50345SOL    HW255593   3.676   9.392   0.519  0.8246 -1.6002 -1.9889
50346SOL     OW55594   6.000   8.942   1.928 -0.6686 -0.8957 -0.5224
50346SOL    HW155595   6.061   8.925   1.856  0.1034 -0.1213 -0.0840
50346SOL    HW255596   5.945   9.014   1.897 -0.5902 -0.8217 -0.4921
50347SOL     OW55597  10.016   9.448   4.262  0.0114 -0.4353  0.1083
50347SOL    HW155598  10.044   9.536   4.285 -0.5031  0.4059 -2.1628
50347SOL    HW255599  10.036   9.440   4.168 -1.5373 -2.0808 -0.1508
50348SOL     OW55600   8.543   8.537   0.929  0.2817  0.3616 -0.2405
50348SOL    HW155601   8.577   8.447   0.929  0.6650  0.4841 -1.3578
50348SOL    HW255602   8.448   8.526   0.921  0.4390  0.0323 -2.1935
50349SOL     OW55603  10.839   8.640   2.158 -0.2250 -0.5178 -0.2914
50349SOL    HW155604  10.875   8.598   2.235 -0.4261 -0.2796 -0.0661
50349SOL    HW255605  10.756   8.678   2.187 -0.9146 -1.4778 -0.9141
50350SOL     OW55606   9.643   3.875   2.321  0.5640 -0.0562 -0.2019
50350SOL    HW155607   9.700   3.853   2.394  0.9434  0.4561 -0.3331
50350SOL    HW255608   9.595   3.795   2.302 -0.3660  0.0977  1.3367
50351SOL     OW55609   7.166   4.431   7.834 -0.2458 -0.0322 -0.1003
50351SOL    HW155610   7.144   4.511   7.882 -0.1892  0.6537 -1.1741
50351SOL    HW255611   7.081   4.390   7.817 -0.3960  0.4992 -0.6918
50352SOL     OW55612   9.546  11.243   7.848  0.5309 -0.6814 -0.1973
50352SOL    HW155613   9.456  11.235   7.815  0.6555  0.8741 -0.9973
50352SOL    HW255614   9.550  11.181   7.921 -1.9177  0.7762  1.3401
50353SOL     OW55615   0.802   0.013   1.776 -0.8106 -0.1512 -0.6836
50353SOL    HW155616   0.788   0.099   1.736  1.4937  1.1747  1.0973
50353SOL    HW255617   0.833   0.032   1.864 -3.3127 -2.9155  0.9865
50354SOL     OW55618  11.228   5.961   2.390  0.0960 -0.0453  0.3809
50354SOL    HW155619  11.208   6.016   2.466  0.4755  0.3324  0.2114
50354SOL    HW255620  11.177   5.881   2.404 -0.7453  0.4884  0.4491
50355SOL     OW55621   9.609   0.317   7.579  0.2664  0.2893 -0.2772
50355SOL    HW155622   9.588   0.232   7.617  2.4429  0.1365  0.7500
50355SOL    HW255623   9.685   0.348   7.629 -0.2103  2.6657 -0.8784
50356SOL     OW55624   5.632  11.245  11.722  0.2536  0.3806  0.2702
50356SOL    HW155625   5.702  11.233  11.786  0.4026  0.6705  0.1673
50356SOL    HW255626   5.598  11.157  11.707  0.6316  0.2286  0.2829
50357SOL     OW55627   1.654  10.213   9.637  0.2336 -0.9089  0.1043
50357SOL    HW155628   1.615  10.153   9.701  0.0717  0.0339  0.9132
50357SOL    HW255629   1.732  10.246   9.682 -0.1259  0.1029 -0.0124
50358SOL     OW55630   4.702  10.933  11.120 -0.2839  0.6814  0.0046
50358SOL    HW155631   4.766  10.863  11.134  0.2718  1.1685 -0.0613
50358SOL    HW255632   4.746  11.012  11.152 -1.0368  0.9480  0.4009
50359SOL     OW55633  11.311   3.304   7.742  0.7982 -0.5214  0.4427
50359SOL    HW155634  11.325   3.276   7.652 -0.2982 -2.3565  0.8095
50359SOL    HW255635  11.364   3.244   7.794 -0.4514 -1.0455  1.1562
50360SOL     OW55636   1.888   7.710  10.686 -0.0096 -0.1502  0.1428
50360SOL    HW155637   1.804   7.733  10.726 -0.0533  0.7969 -0.4528
50360SOL    HW255638   1.937   7.792  10.686  2.0691 -1.2435  3.0776
50361SOL     OW55639   8.068   2.835   0.621  0.4105 -0.0463  0.3834
50361SOL    HW155640   8.084   2.776   0.548 -1.6446  0.5574 -0.6197
50361SOL    HW255641   8.056   2.778   0.697 -0.0669 -0.8270 -0.2706
50362SOL     OW55642   5.218   1.886   9.149  0.1604 -0.0829  0.2452
50362SOL    HW155643   5.190   1.801   9.183  0.0086  0.1324  0.6651
50362SOL    HW255644   5.225   1.942   9.226  0.4887  0.2241 -0.0018
50363SOL     OW55645   5.085   0.400  10.903 -0.0653  0.0039 -0.1745
50363SOL    HW155646   5.055   0.384  10.813  0.9835  0.3705 -0.5989
50363SOL    HW255647   5.007   0.386  10.957 -0.6087 -0.6197 -1.0995
50364SOL     OW55648   1.873   4.790   3.776  0.0397 -0.1258 -0.6760
50364SOL    HW155649   1.888   4.708   3.823 -0.5078 -0.2193 -0.6574
50364SOL    HW255650   1.780   4.807   3.786  0.8618  3.5713  4.3554
50365SOL     OW55651  10.708   8.230   4.725 -0.3312  0.3150  0.6075
50365SOL    HW155652  10.730   8.274   4.807  0.0150 -2.1515  1.9393
50365SOL    HW255653  10.711   8.299   4.659  0.1009  2.2516  2.5346
50366SOL     OW55654   3.818  10.489   5.926 -0.1553 -0.9710 -0.0145
50366SOL    HW155655   3.745  10.547   5.901  0.8872  0.2964 -0.2403
50366SOL    HW255656   3.872  10.543   5.983  0.2575 -2.1288  0.7050
50367SOL     OW55657  10.118  10.151   3.342 -0.5330 -0.2402  0.0849
50367SOL    HW155658  10.113  10.186   3.253 -1.4598 -1.2529 -0.2840
50367SOL    HW255659  10.156  10.222   3.394 -0.4222  0.5315 -1.0280
50368SOL     OW55660   2.603  11.395   6.369 -0.1418 -0.3294 -0.5094
50368SOL    HW155661   2.513  11.420   6.346 -0.4315  2.1118  2.5316
50368SOL    HW255662   2.592  11.327   6.436  0.3907 -1.4549 -1.5364
50369SOL     OW55663   4.231   8.320   8.709  0.0104  0.5640 -0.5172
50369SOL    HW155664   4.218   8.403   8.663 -1.5007  0.8014  0.2658
50369SOL    HW255665   4.280   8.266   8.647 -1.4128  1.0793 -2.1753
50370SOL     OW55666   5.728   0.017  11.751 -0.1281  0.1231 -0.2728
50370SOL    HW155667   5.653  -0.041  11.740 -0.2969 -0.1491  1.9067
50370SOL    HW255668   5.783  -0.002  11.675 -1.1303 -1.4301 -0.6690
50371SOL     OW55669   0.015   8.802   4.833  0.5204 -0.6446 -0.1569
50371SOL    HW155670   0.059   8.884   4.856  0.6645 -0.0391 -2.3998
50371SOL    HW255671   0.083   8.735   4.842  0.7380 -0.3515  0.4694
50372SOL     OW55672  11.046   4.757   9.676  0.3425  0.4458  0.6272
50372SOL    HW155673  11.033   4.741   9.770  0.0103  0.8736  0.6564
50372SOL    HW255674  11.062   4.851   9.670 -1.1011  0.6894  0.1070
50373SOL     OW55675   2.354   8.692   2.448 -0.3777 -0.1146  0.3276
50373SOL    HW155676   2.261   8.673   2.459 -1.4063  1.8254 -3.3228
50373SOL    HW255677   2.388   8.615   2.402 -1.0805  0.5376 -1.3788
50374SOL     OW55678   9.029   2.918   0.477 -0.4187  0.0220  0.1369
50374SOL    HW155679   9.003   2.993   0.423 -1.9298 -0.4668  0.1230
50374SOL    HW255680   9.030   2.952   0.566  0.4474  0.4214 -0.0094
50375SOL     OW55681   2.832   9.210   7.793  0.4234  0.5437  0.0842
50375SOL    HW155682   2.859   9.302   7.789 -0.7399  1.1539  3.2068
50375SOL    HW255683   2.765   9.201   7.726 -0.7478  2.5219  0.9117
50376SOL     OW55684   7.626   1.469   0.424 -0.4454 -0.2184  0.0531
50376SOL    HW155685   7.536   1.493   0.446 -0.8750 -2.1554  0.5615
50376SOL    HW255686   7.679   1.509   0.493 -1.1507 -0.9274  1.0168
50377SOL     OW55687   4.800   3.587   3.949 -0.6733 -0.4716 -0.0968
50377SOL    HW155688   4.883   3.570   3.905 -0.8640  1.9615 -1.6435
50377SOL    HW255689   4.736   3.595   3.877 -0.9354  4.0326  0.3134
50378SOL     OW55690   1.288  12.092  11.299 -0.1435 -0.0632 -0.2931
50378SOL    HW155691   1.336  12.140  11.231 -2.8191  0.7276 -1.7652
50378SOL    HW255692   1.317  12.132  11.381 -0.1411  2.1094 -1.2913
50379SOL     OW55693   4.201  11.214   1.783 -0.0263 -0.1381  0.4234
50379SOL    HW155694   4.110  11.188   1.775 -0.6791  1.6246  1.5410
50379SOL    HW255695   4.245  11.170   1.710 -2.0194  0.1512 -1.0336
50380SOL     OW55696   1.034   3.815   8.857 -0.0548 -0.5226 -0.4707
50380SOL    HW155697   0.940   3.810   8.874 -0.4538 -1.1594 -2.5449
50380SOL    HW255698   1.074   3.822   8.944 -2.0072 -0.1429  0.4531
50381SOL     OW55699  11.289   9.881  10.045  0.0290  0.2549  0.5865
50381SOL    HW155700  11.262   9.791  10.062 -1.3645  0.3188 -1.0284
50381SOL    HW255701  11.249   9.931  10.116  0.0718 -0.2842  0.9970
50382SOL     OW55702   9.201   8.633   1.661 -0.0845  0.7550  0.2274
50382SOL    HW155703   9.152   8.703   1.704 -0.4058  0.8342 -0.2614
50382SOL    HW255704   9.289   8.639   1.698 -0.7177 -0.1414  2.0267
50383SOL     OW55705   5.084   1.643   1.500  0.2871 -0.6531 -0.0471
50383SOL    HW155706   5.167   1.690   1.491  0.3645 -1.0069 -1.3868
50383SOL    HW255707   5.050   1.670   1.585  0.1288  2.1689 -0.9049
50384SOL     OW55708   4.235   7.276   1.812 -0.1333  0.4609 -0.5657
50384SOL    HW155709   4.255   7.211   1.745  0.1416 -0.0013 -0.0505
50384SOL    HW255710   4.321   7.297   1.851 -0.4706 -0.7454  0.9575
50385SOL     OW55711  12.122   2.928   2.285 -0.0408  0.0348 -0.0980
50385SOL    HW155712  12.114   2.901   2.377 -0.0833  1.0325  0.2075
50385SOL    HW255713  12.034   2.915   2.249 -0.3088  0.6590  0.3066
50386SOL     OW55714   1.908   6.840   4.392 -0.2493 -0.0999 -0.4265
50386SOL    HW155715   1.976   6.773   4.385  1.3486  1.1164  2.1992
50386SOL    HW255716   1.883   6.858   4.301  0.8129 -2.6231 -1.3248
50387SOL     OW55717  10.827   3.006   3.000 -0.1485 -0.1131  0.2029
50387SOL    HW155718  10.759   3.065   3.033  0.1168 -0.0266  0.5992
50387SOL    HW255719  10.890   3.064   2.957  2.1214  0.4540  3.8270
50388SOL     OW55720  10.751   7.411  10.686  0.5875  0.0904  0.4883
50388SOL    HW155721  10.812   7.347  10.651 -1.0888 -1.3914  0.1481
50388SOL    HW255722  10.754   7.484  10.623  2.3082  0.2599  0.7335
50389SOL     OW55723   1.644  11.848   9.489 -0.0077  0.4000  0.0120
50389SOL    HW155724   1.590  11.920   9.458 -1.9989 -1.1311 -0.2725
50389SOL    HW255725   1.729  11.862   9.446 -0.6084  2.0693 -0.7135
50390SOL     OW55726  10.637   3.317   9.051  0.3951  0.4787 -0.3400
50390SOL    HW155727  10.666   3.357   8.969  0.4000  0.3753 -0.3898
50390SOL    HW255728  10.577   3.381   9.090  2.7704  1.9651  1.1163
50391SOL     OW55729   3.326  10.220   9.167  0.2134 -0.3445 -0.3274
50391SOL    HW155730   3.278  10.280   9.225 -0.3359 -1.7559  0.7391
50391SOL    HW255731   3.418  10.244   9.179  0.0117  0.2540  0.1233
50392SOL     OW55732   0.181   1.418   7.044 -0.0410 -0.6478 -0.0459
50392SOL    HW155733   0.227   1.501   7.034  1.2989 -1.3996 -0.3541
50392SOL    HW255734   0.212   1.383   7.127  1.0273 -1.8004 -0.9006
50393SOL     OW55735   8.295   8.473   6.019 -0.0533 -0.6070  0.0195
50393SOL    HW155736   8.301   8.528   5.941 -0.0230 -1.1332 -0.3512
50393SOL    HW255737   8.360   8.510   6.079 -1.1246  0.7385  0.4042
50394SOL     OW55738   6.795   4.037   6.838  0.0669 -0.0672  0.0324
50394SOL    HW155739   6.795   4.086   6.756  0.3546 -0.8652 -0.4607
50394SOL    HW255740   6.777   3.947   6.812  1.2435 -0.5276  0.7137
50395SOL     OW55741   2.031   9.738   8.839 -0.0115  0.4164  0.2724
50395SOL    HW155742   1.957   9.681   8.859 -0.3894  0.2163 -1.5344
50395SOL    HW255743   2.075   9.751   8.923 -1.9196  0.3124  1.3492
50396SOL     OW55744   8.913   9.673   1.386 -0.1343  0.5352 -0.0807
50396SOL    HW155745   8.839   9.727   1.413  1.3739  2.7330 -0.1519
50396SOL    HW255746   8.872   9.593   1.351 -2.3654  0.6972  1.8833
50397SOL     OW55747   4.085   3.907   7.543 -0.3518  0.1536  0.5559
50397SOL    HW155748   4.082   3.939   7.453  1.6667  3.2346  1.4393
50397SOL    HW255749   4.015   3.955   7.588 -1.3005 -1.3139  0.7167
50398SOL     OW55750   9.561   9.918   5.435 -0.2920  0.9522 -0.3086
50398SOL    HW155751   9.517   9.840   5.401 -1.1017  1.5815 -0.7335
50398SOL    HW255752   9.629   9.938   5.371  1.5768 -0.8095  1.0142
50399SOL     OW55753   3.814   1.896   7.121 -0.4716 -0.2994 -0.1243
50399SOL    HW155754   3.734   1.846   7.109  0.3015 -1.5971 -0.0857
50399SOL    HW255755   3.875   1.835   7.162 -0.1995  1.3585  2.1105
50400SOL     OW55756   5.483  11.494   5.348  0.6188  0.4405  0.3108
50400SOL    HW155757   5.473  11.429   5.418 -0.4494 -0.3419 -0.5223
50400SOL    HW255758   5.539  11.452   5.283 -0.1496  0.2897 -0.2744
50401SOL     OW55759   5.544  10.806   6.736 -0.0382 -0.6083  0.2430
50401SOL    HW155760   5.508  10.743   6.674  0.6822 -1.9628  1.1354
50401SOL    HW255761   5.551  10.888   6.687 -0.6570 -1.3162 -1.0620
50402SOL     OW55762   5.812   7.133   6.013 -0.0587 -0.3222  0.4709
50402SOL    HW155763   5.788   7.050   6.054 -0.7804  0.5432  1.8694
50402SOL    HW255764   5.839   7.189   6.086  0.2044  0.7521 -0.4239
50403SOL     OW55765   4.487   7.738   7.531 -0.5312 -0.4646 -0.6882
50403SOL    HW155766   4.525   7.650   7.532 -0.8830 -0.6202 -0.9421
50403SOL    HW255767   4.498   7.769   7.621 -1.9312 -1.4264 -0.1502
50404SOL     OW55768  11.440  11.088  11.966 -0.4237  0.0492 -0.2243
50404SOL    HW155769  11.518  11.055  11.922 -0.4930 -1.3428  0.6435
50404SOL    HW255770  11.463  11.178  11.992  0.7675 -0.2348 -0.2508
50405SOL     OW55771   0.867   6.312   3.048  0.2486  0.4005  0.1451
50405SOL    HW155772   0.799   6.253   3.015 -0.2812 -0.4748  2.5528
50405SOL    HW255773   0.818   6.381   3.093  0.9168  0.3349  0.9940
50406SOL     OW55774   2.013   8.018   9.311 -0.0882  0.1909  0.0281
50406SOL    HW155775   1.985   8.072   9.385  1.5841 -0.2073  1.0047
50406SOL    HW255776   2.006   7.928   9.343  1.6575  0.0464  0.1350
50407SOL     OW55777  10.562   6.655   3.399 -0.0089 -0.1679  0.0300
50407SOL    HW155778  10.610   6.579   3.367  0.2640  0.0609 -0.1136
50407SOL    HW255779  10.531   6.699   3.319 -0.5267 -0.3553  0.1217
50408SOL     OW55780   4.063  11.959   3.472  0.2239 -0.1745  0.7088
50408SOL    HW155781   4.106  12.044   3.487 -0.3112 -0.0494  1.6352
50408SOL    HW255782   4.134  11.900   3.445  0.8837  0.1568  1.6763
50409SOL     OW55783  11.132  11.889   1.493 -0.5961  0.0117  0.1866
50409SOL    HW155784  11.140  11.804   1.537  0.7778 -0.2473 -0.5080
50409SOL    HW255785  11.100  11.867   1.405 -1.9343  0.3970  0.5520
50410SOL     OW55786   0.339   7.246   4.153  0.1850  0.0678  0.1449
50410SOL    HW155787   0.393   7.240   4.074  1.1410  1.9476  0.5938
50410SOL    HW255788   0.255   7.208   4.127  1.0714 -1.0695 -1.1907
50411SOL     OW55789   2.162   9.124   7.354 -0.0896  0.5911  0.6411
50411SOL    HW155790   2.160   9.219   7.347  1.7020  0.6453  0.3930
50411SOL    HW255791   2.189   9.094   7.267  0.1118 -0.0866  0.9300
50412SOL     OW55792   3.468  10.046   6.642  0.0890 -0.4170  0.0544
50412SOL    HW155793   3.480  10.134   6.606  1.1594  0.0974  1.5581
50412SOL    HW255794   3.376  10.024   6.623 -0.3669  1.2713  0.1797
50413SOL     OW55795  10.932   0.044   9.246  0.0225 -0.3973 -0.2800
50413SOL    HW155796  10.877   0.024   9.170  1.3491  0.0658 -1.4013
50413SOL    HW255797  10.953  -0.041   9.284 -1.7110 -0.5709  0.3831
50414SOL     OW55798   6.203   5.653   8.171  0.1663 -0.1313 -0.5094
50414SOL    HW155799   6.273   5.704   8.129  0.5247  0.0529  0.3018
50414SOL    HW255800   6.209   5.675   8.264 -1.5882  0.6263 -0.5313
50415SOL     OW55801   2.005  11.043   2.720 -0.1212 -0.1063  0.1860
50415SOL    HW155802   2.000  11.138   2.725  0.5914 -0.0826  0.6408
50415SOL    HW255803   2.048  11.017   2.802 -1.9950 -0.9609  0.9431
50416SOL     OW55804  11.723   6.421  11.037 -0.0702  0.3848  0.0978
50416SOL    HW155805  11.738   6.360  11.110  0.9498  0.6678  0.1411
50416SOL    HW255806  11.810   6.433  10.998 -0.2469  1.7990  0.0833
50417SOL     OW55807   7.897   7.057   0.902  0.1881  0.2754  0.3153
50417SOL    HW155808   7.886   7.085   0.811  0.4645  0.2592  0.2756
50417SOL    HW255809   7.819   7.006   0.921 -0.4718  1.3287  0.4821
50418SOL     OW55810   5.434  10.229   2.810  0.2837  0.6994 -1.3728
50418SOL    HW155811   5.492  10.155   2.792  0.5279  0.2888  0.7991
50418SOL    HW255812   5.380  10.200   2.883  0.2152  2.5651 -0.6213
50419SOL     OW55813   2.725   4.787  10.395  0.4232 -0.0037 -0.1656
50419SOL    HW155814   2.680   4.752  10.318  0.6992  0.2682 -0.4549
50419SOL    HW255815   2.778   4.859  10.361 -0.0209  0.5992  0.3997
50420SOL     OW55816   9.691   2.428  11.951 -0.2327  0.4332 -0.0083
50420SOL    HW155817   9.670   2.497  12.014  3.1327  2.2590 -0.5958
50420SOL    HW255818   9.735   2.361  12.003 -0.6023  0.2647  0.0883
50421SOL     OW55819   6.801   6.800   0.987  0.2917 -0.3129  0.9614
50421SOL    HW155820   6.834   6.888   1.004  1.1751 -0.4331 -0.0380
50421SOL    HW255821   6.829   6.749   1.064  0.5921  0.0664  1.1089
50422SOL     OW55822   1.775   8.406  10.250 -0.8035  0.2683 -0.0429
50422SOL    HW155823   1.864   8.376  10.272 -1.5432 -2.4455 -0.3025
50422SOL    HW255824   1.788   8.485  10.198  1.4097  0.4265  0.6316
50423SOL     OW55825   0.103   0.296   9.724  0.4300  0.1998  0.0352
50423SOL    HW155826   0.061   0.253   9.649 -2.4255  1.3339  0.8436
50423SOL    HW255827   0.158   0.364   9.685 -1.3904  1.1015 -1.1197
50424SOL     OW55828   0.496   3.784   1.213 -0.8257  0.2208  0.1888
50424SOL    HW155829   0.527   3.713   1.270  0.1124  1.5070  1.3299
50424SOL    HW255830   0.416   3.815   1.255  0.0863  1.4407  1.0639
50425SOL     OW55831   0.451  11.564   7.036 -0.4354  0.0959  0.3152
50425SOL    HW155832   0.402  11.592   7.114  0.3692 -1.1066  1.2886
50425SOL    HW255833   0.419  11.622   6.967 -2.3375  0.1567  1.1613
50426SOL     OW55834  10.221   8.082   4.143 -0.3908 -0.8028  0.1363
50426SOL    HW155835  10.226   8.167   4.185 -1.3399 -0.5588 -0.2069
50426SOL    HW255836  10.311   8.061   4.119 -0.0943 -0.1015  0.6261
50427SOL     OW55837  10.266   0.960   3.366  0.0414  0.1211 -0.3911
50427SOL    HW155838  10.209   1.037   3.373  0.6123  0.4903  0.3094
50427SOL    HW255839  10.214   0.895   3.319 -0.4525  0.9352 -0.9957
50428SOL     OW55840   0.296   5.983   3.911 -0.1190 -0.2890 -0.1173
50428SOL    HW155841   0.254   6.001   3.827  0.4211  0.3618 -0.2545
50428SOL    HW255842   0.235   5.924   3.956 -2.2595  2.2750  0.5958
50429SOL     OW55843  11.449   3.677   6.744  0.9711 -0.8465  0.2111
50429SOL    HW155844  11.494   3.761   6.737 -1.0497  0.4684  1.7642
50429SOL    HW255845  11.356   3.700   6.741  0.3444 -3.2057 -0.7157
50430SOL     OW55846   8.701   7.777   6.214  0.4861 -0.1727  0.2775
50430SOL    HW155847   8.695   7.825   6.131 -0.3969  0.7221  0.8383
50430SOL    HW255848   8.692   7.685   6.189  0.9040  0.0332 -0.6896
50431SOL     OW55849   0.791   2.809   2.588 -0.1067 -0.2289 -0.2860
50431SOL    HW155850   0.884   2.789   2.585 -0.3441 -1.4188 -0.3189
50431SOL    HW255851   0.771   2.844   2.501  0.8006  2.6150  0.5205
50432SOL     OW55852   6.750   5.130   1.706  0.3402 -0.4677  0.2965
50432SOL    HW155853   6.729   5.223   1.697  0.6681 -0.4945 -0.8855
50432SOL    HW255854   6.696   5.101   1.780  1.0563  0.8985  1.4292
50433SOL     OW55855   4.871  11.449   5.228  0.1303 -0.5376  0.2114
50433SOL    HW155856   4.946  11.470   5.283 -0.1666  0.9086  0.1084
50433SOL    HW255857   4.906  11.454   5.139  0.3966 -1.9816  0.2136
50434SOL     OW55858   1.429   9.233   9.524  0.0065  0.5012 -0.0450
50434SOL    HW155859   1.358   9.187   9.568 -0.9240  1.8861 -0.0720
50434SOL    HW255860   1.387   9.281   9.453  1.2410 -0.1954 -1.3068
50435SOL     OW55861   9.955   1.951   9.809  0.6731  0.1574  0.5116
50435SOL    HW155862  10.027   2.002   9.770  0.4389  0.0227 -0.1158
50435SOL    HW255863   9.881   2.011   9.810 -0.0111 -0.5618 -1.5730
50436SOL     OW55864  10.763   8.242  11.748  0.7831  0.3374 -0.2428
50436SOL    HW155865  10.815   8.165  11.725  2.9102  1.4183  0.6265
50436SOL    HW255866  10.771   8.249  11.844 -1.0237  0.5330 -0.0811
50437SOL     OW55867   8.478   8.708  10.010  0.4566 -0.0218 -0.2416
50437SOL    HW155868   8.565   8.747  10.012  0.6990 -0.5562 -0.4588
50437SOL    HW255869   8.419   8.783  10.001  0.7612  0.5416  1.7488
50438SOL     OW55870   1.305   2.369   1.669 -0.0277 -0.3885  0.1615
50438SOL    HW155871   1.397   2.383   1.645 -0.2807  0.5736 -0.2963
50438SOL    HW255872   1.303   2.280   1.705  1.1919 -0.1920  0.7701
50439SOL     OW55873   5.141   3.426   9.313  0.9903  0.0882  0.1097
50439SOL    HW155874   5.103   3.514   9.317  0.3597 -0.1109 -1.0674
50439SOL    HW255875   5.223   3.437   9.266  0.1256 -0.1715 -1.5328
50440SOL     OW55876   1.902  10.333   3.585 -0.1442 -0.3901  0.4716
50440SOL    HW155877   1.977  10.309   3.531 -1.6209  0.6890 -2.2626
50440SOL    HW255878   1.829  10.281   3.550 -1.3027  0.8150  0.9856
50441SOL     OW55879   8.296   0.757   8.556  0.4017  0.2441  0.4015
50441SOL    HW155880   8.210   0.790   8.582 -0.2961 -1.6249  0.5464
50441SOL    HW255881   8.282   0.665   8.534  2.8162 -0.9933  3.2257
50442SOL     OW55882  11.629   2.492   3.980 -0.2893  0.5848 -0.5126
50442SOL    HW155883  11.556   2.480   3.919  1.6281 -0.2520 -2.8013
50442SOL    HW255884  11.666   2.404   3.991  2.1850  1.3511 -1.9000
50443SOL     OW55885  10.690   9.973   5.549 -0.4220  0.5592  0.0813
50443SOL    HW155886  10.624   9.928   5.496  0.5112  0.0936 -0.7100
50443SOL    HW255887  10.715  10.049   5.496  0.6473 -0.0073 -0.2630
50444SOL     OW55888   8.525   1.938   5.664 -0.0462 -0.5856 -0.1774
50444SOL    HW155889   8.501   2.017   5.714  1.1737 -0.1644 -0.2284
50444SOL    HW255890   8.448   1.920   5.609 -0.0838  0.9782 -0.6782
50445SOL     OW55891   9.386   5.514   7.025  0.2833 -0.0442  0.5449
50445SOL    HW155892   9.298   5.513   7.063  0.2089 -1.2061  0.3937
50445SOL    HW255893   9.442   5.480   7.095  0.4504 -0.3001  0.2875
50446SOL     OW55894   9.140   5.835  10.740 -0.7177  0.1611  0.3198
50446SOL    HW155895   9.085   5.913  10.733  1.5608  1.7353 -2.5643
50446SOL    HW255896   9.156   5.809  10.649  1.5776 -1.4351  1.0750
50447SOL     OW55897   7.614   7.899   1.127  0.6899  0.2242  0.0162
50447SOL    HW155898   7.611   7.995   1.126  0.5373  0.2184 -0.1436
50447SOL    HW255899   7.630   7.876   1.219  0.8301  0.4056  0.0372
50448SOL     OW55900   7.926   6.554   1.372  1.3109  0.2843  0.3994
50448SOL    HW155901   7.926   6.523   1.282 -0.9844 -1.1808  0.8271
50448SOL    HW255902   7.940   6.648   1.365  2.7199 -0.0039 -1.3427
50449SOL     OW55903  11.090   6.908   2.146  0.1057 -0.1110  0.1330
50449SOL    HW155904  11.083   6.980   2.209  1.0189 -0.0113  0.1370
50449SOL    HW255905  11.103   6.830   2.200 -0.2030 -0.1850  0.1029
50450SOL     OW55906   6.618   6.654   0.272 -0.8920 -0.1035 -0.2678
50450SOL    HW155907   6.566   6.694   0.203 -0.3763  1.7897  0.3874
50450SOL    HW255908   6.681   6.598   0.225 -1.8251 -0.4002 -1.1941
50451SOL     OW55909   9.776   1.316   0.795 -1.0491  0.2703 -0.0381
50451SOL    HW155910   9.758   1.344   0.884 -1.5694 -2.3542  0.7611
50451SOL    HW255911   9.690   1.303   0.755 -0.8731 -0.8457 -0.1040
50452SOL     OW55912  10.735   5.716   6.386 -0.2319 -0.4813 -0.3369
50452SOL    HW155913  10.722   5.632   6.429 -2.0986 -0.7244 -1.2841
50452SOL    HW255914  10.822   5.710   6.346 -0.0366 -1.6458  0.2345
50453SOL     OW55915  10.063   6.043  10.802  0.0447 -0.7115 -0.3931
50453SOL    HW155916   9.989   6.102  10.811 -0.3847 -1.3196  0.2368
50453SOL    HW255917  10.121   6.085  10.738  0.3261  0.9604  0.8918
50454SOL     OW55918   2.296   1.092   2.201  0.1494  0.0428 -0.1569
50454SOL    HW155919   2.336   1.083   2.287  1.0211 -0.3743 -0.5902
50454SOL    HW255920   2.222   1.151   2.214 -0.7121 -1.2600  1.1957
50455SOL     OW55921   7.581   8.275   4.916 -0.2356  0.3666 -0.3219
50455SOL    HW155922   7.610   8.189   4.947  0.7765  0.9566  0.4280
50455SOL    HW255923   7.581   8.267   4.820  1.6410  0.0617 -0.3321
50456SOL     OW55924   3.734   2.730  10.749  0.0204  0.1193  0.1873
50456SOL    HW155925   3.748   2.696  10.660 -0.3387  0.1211  0.1310
50456SOL    HW255926   3.758   2.822  10.743 -2.3252  0.7419 -0.5130
50457SOL     OW55927  11.083   7.942   3.846  0.1177 -0.4950  0.2288
50457SOL    HW155928  11.036   7.897   3.915 -2.2962 -0.1876 -1.1041
50457SOL    HW255929  11.110   8.025   3.885 -0.9351 -0.4530  0.8919
50458SOL     OW55930   2.233   2.890   4.531  0.1222  0.3641  0.3473
50458SOL    HW155931   2.235   2.918   4.439 -0.6579  0.2782  0.2934
50458SOL    HW255932   2.286   2.954   4.577  0.1268  0.6835 -0.0968
50459SOL     OW55933   0.039   7.795   4.742  0.2866 -0.3217  0.3719
50459SOL    HW155934   0.032   7.830   4.830 -0.9853  0.1662  0.0965
50459SOL    HW255935   0.047   7.700   4.754 -2.0064 -0.4987  0.9998
50460SOL     OW55936   8.944   7.977  11.258  0.1164 -0.6658  0.3276
50460SOL    HW155937   8.914   7.997  11.169 -0.5874  2.4982  1.1340
50460SOL    HW255938   8.867   7.992  11.313  1.2975  0.5721  1.7398
50461SOL     OW55939   8.820   1.007  11.931  0.2067  0.0129  0.1718
50461SOL    HW155940   8.765   0.941  11.889  0.2254 -0.8439  1.4455
50461SOL    HW255941   8.783   1.017  12.019  0.7138  1.1005  0.2763
50462SOL     OW55942  10.953   2.309   8.236  0.7561 -0.0899  0.1621
50462SOL    HW155943  11.035   2.289   8.281  0.0137 -2.2764  0.6455
50462SOL    HW255944  10.929   2.228   8.191 -0.0081  1.1872 -1.8834
50463SOL     OW55945  10.764   7.444   1.878  0.5591 -0.0289  0.7729
50463SOL    HW155946  10.695   7.487   1.927 -0.3383 -0.2217 -0.2768
50463SOL    HW255947  10.743   7.351   1.884  0.4727 -0.0577  0.0969
50464SOL     OW55948   2.613   9.604   6.551 -0.4189  0.1712 -0.7125
50464SOL    HW155949   2.577   9.692   6.540 -1.9391 -0.2266  0.8779
50464SOL    HW255950   2.559   9.549   6.495 -2.0905 -0.3506  1.3213
50465SOL     OW55951   1.543   9.482   7.340  0.0329 -0.0118 -0.1453
50465SOL    HW155952   1.493   9.464   7.420 -0.4033 -0.3686 -0.4933
50465SOL    HW255953   1.548   9.577   7.336 -0.8233  0.0333 -0.2272
50466SOL     OW55954   3.690   7.046   3.533 -0.3316 -0.3113  0.0862
50466SOL    HW155955   3.657   6.984   3.599 -0.2356 -2.0702 -1.4190
50466SOL    HW255956   3.785   7.035   3.534 -0.2902  0.0439  0.0442
50467SOL     OW55957   2.253   8.689   4.340  0.2058  0.5672  0.1227
50467SOL    HW155958   2.265   8.600   4.306 -1.4627 -0.6612  2.5226
50467SOL    HW255959   2.159   8.702   4.342  0.3898  2.0276  0.7546
50468SOL     OW55960  11.152   7.149   1.061  0.0931 -0.6826 -0.0384
50468SOL    HW155961  11.131   7.102   0.981 -0.7947  0.1334 -0.2932
50468SOL    HW255962  11.103   7.103   1.130 -0.4020 -0.4236 -0.2145
50469SOL     OW55963   9.397  10.389   3.991  0.7246 -0.6623  0.5391
50469SOL    HW155964   9.426  10.471   3.951  1.5029 -1.1086  0.1647
50469SOL    HW255965   9.469  10.328   3.975 -0.5911 -1.9258 -0.7641
50470SOL     OW55966   0.648  10.060  11.440  0.0033 -0.4497  0.3012
50470SOL    HW155967   0.722  10.101  11.396 -1.3552 -0.0428 -1.7771
50470SOL    HW255968   0.574  10.118  11.421 -0.5280  0.5095  4.3467
50471SOL     OW55969   4.300   8.592   0.283  0.3864 -0.4556 -0.2913
50471SOL    HW155970   4.340   8.621   0.365 -0.3359 -1.1607  0.3299
50471SOL    HW255971   4.373   8.564   0.229  0.9678  0.9902 -0.3063
50472SOL     OW55972   5.919  11.643  11.698  0.4070  0.3402 -0.0146
50472SOL    HW155973   5.942  11.729  11.664  1.1229  0.9356  1.8545
50472SOL    HW255974   5.834  11.656  11.741 -0.3114 -0.3215 -1.1464
50473SOL     OW55975   6.709   8.849   0.192 -0.1271  0.1206 -0.1176
50473SOL    HW155976   6.720   8.834   0.286  1.0226  0.2104 -0.2201
50473SOL    HW255977   6.760   8.929   0.175  1.2963 -0.9589 -1.1431
50474SOL     OW55978  12.100   3.372   7.156 -0.3374 -0.4820  0.4580
50474SOL    HW155979  12.105   3.310   7.229 -0.4331 -1.3327 -0.2397
50474SOL    HW255980  12.108   3.458   7.197  0.4866 -0.9802  1.3776
50475SOL     OW55981   7.289   5.197   0.751 -0.6778  0.1555 -0.7172
50475SOL    HW155982   7.248   5.280   0.775 -0.5341 -0.0871  0.4605
50475SOL    HW255983   7.307   5.154   0.835  1.1248 -0.1646 -1.2247
50476SOL     OW55984   8.542  10.502   6.327  0.7141 -0.0065  0.4346
50476SOL    HW155985   8.567  10.525   6.416  1.2555 -0.7337  0.4768
50476SOL    HW255986   8.509  10.584   6.289  2.6324  0.8749  0.5481
50477SOL     OW55987   2.696   3.688   2.985 -0.5929  0.4119 -0.0521
50477SOL    HW155988   2.719   3.597   3.006  1.1435  0.7103 -0.4678
50477SOL    HW255989   2.681   3.729   3.070 -2.5218 -0.4984  0.0920
50478SOL     OW55990   1.391   3.079   2.593  0.1802  0.1693 -0.2860
50478SOL    HW155991   1.341   3.150   2.632  1.2062  0.3570  0.7459
50478SOL    HW255992   1.451   3.122   2.532  0.1821  0.1082 -0.3276
50479SOL     OW55993   1.122   0.226   0.024 -0.2500  0.3516  0.0895
50479SOL    HW155994   1.065   0.183  -0.039  3.3764 -0.7876 -2.7899
50479SOL    HW255995   1.168   0.155   0.068 -0.6649  1.2281  2.0725
50480SOL     OW55996   3.071   7.247  10.005  0.2375  0.3806 -0.1392
50480SOL    HW155997   3.124   7.170   9.984 -1.4850 -0.9532  0.0906
50480SOL    HW255998   3.123   7.297  10.067  1.4330 -0.5704 -0.3451
50481SOL     OW55999   5.984   3.759   4.380  0.1840 -1.0542  0.0031
50481SOL    HW156000   6.046   3.687   4.384 -1.4837 -2.5630  0.1034
50481SOL    HW256001   5.936   3.744   4.298  0.4594  0.5208 -0.4707
50482SOL     OW56002   4.939   6.147   7.058 -0.2447 -0.1611  0.2968
50482SOL    HW156003   4.983   6.201   6.992  2.3517  0.4395  2.3352
50482SOL    HW256004   4.859   6.195   7.079  1.2073  2.1518  0.8818
50483SOL     OW56005   2.222   8.181   2.261  0.5209  0.7121 -0.2677
50483SOL    HW156006   2.272   8.165   2.181 -0.2459  0.3990 -0.6964
50483SOL    HW256007   2.236   8.102   2.314 -0.2049  0.2289 -0.7648
50484SOL     OW56008   1.482   2.834   0.228  0.0217  0.5164  0.2785
50484SOL    HW156009   1.399   2.857   0.187 -0.5374  0.6577  1.4731
50484SOL    HW256010   1.509   2.914   0.274  0.5035  0.2804  0.4156
50485SOL     OW56011   9.330   6.358   4.664  0.7154  0.1751 -0.5668
50485SOL    HW156012   9.293   6.357   4.575 -0.9384 -0.6963  0.0709
50485SOL    HW256013   9.339   6.451   4.685 -1.1323  0.4635 -0.8109
50486SOL     OW56014   4.080   2.093   5.699 -0.6806 -0.1653  0.6538
50486SOL    HW156015   4.159   2.051   5.664 -1.0116 -0.0852 -0.2061
50486SOL    HW256016   4.020   2.098   5.624 -1.4470 -0.0900  1.2619
50487SOL     OW56017   6.383   6.606   4.955 -0.3456 -0.3158  0.3175
50487SOL    HW156018   6.384   6.667   4.881 -0.7105 -1.4952 -0.6906
50487SOL    HW256019   6.467   6.621   4.999 -0.4350  0.9081  0.1137
50488SOL     OW56020   5.081   9.121  11.204  0.0393 -0.0283  0.1726
50488SOL    HW156021   4.998   9.072  11.207 -0.4138  0.5759 -1.2097
50488SOL    HW256022   5.100   9.142  11.295 -1.9777  0.8339  0.4636
50489SOL     OW56023   6.384   8.107   3.099 -0.5466  0.0746  0.2806
50489SOL    HW156024   6.297   8.139   3.077 -1.0499  0.2329  2.3221
50489SOL    HW256025   6.376   8.075   3.189  1.4918  0.0293  0.4930
50490SOL     OW56026   1.421   8.095   1.866 -0.0482  0.3960  0.1799
50490SOL    HW156027   1.470   8.089   1.948 -0.6014  1.5757  0.6323
50490SOL    HW256028   1.343   8.042   1.880 -0.3125  0.8765  0.5622
50491SOL     OW56029   4.775  10.407   0.491  0.4281 -0.0875 -0.5262
50491SOL    HW156030   4.870  10.414   0.503  0.5146 -0.3672 -1.0113
50491SOL    HW256031   4.763  10.398   0.397 -0.0972  0.1458 -0.4857
50492SOL     OW56032  10.975   1.774  10.839  0.0761  0.0335 -0.2606
50492SOL    HW156033  11.071   1.771  10.838  0.2178  1.3921  1.6081
50492SOL    HW256034  10.949   1.708  10.903 -0.2439 -0.3391 -0.7691
50493SOL     OW56035   9.474   6.605   1.063  0.0512  0.0772  0.5627
50493SOL    HW156036   9.437   6.692   1.076 -1.1869 -0.1897 -0.7972
50493SOL    HW256037   9.538   6.594   1.133 -0.6812  1.5767  1.5070
50494SOL     OW56038   4.937   3.741   2.316 -0.3934 -0.0788 -0.6190
50494SOL    HW156039   4.920   3.827   2.353 -2.1241  0.7236 -3.0414
50494SOL    HW256040   4.902   3.746   2.227  0.8050 -2.8207 -1.3428
50495SOL     OW56041   4.271   1.582   6.959 -0.7914  0.0650 -0.6425
50495SOL    HW156042   4.214   1.530   7.015 -1.5652  1.1656 -0.3668
50495SOL    HW256043   4.211   1.625   6.897 -0.0674 -0.2150 -1.5498
50496SOL     OW56044  11.192   2.114   3.679 -0.1159  0.2224  0.1657
50496SOL    HW156045  11.188   2.062   3.759 -1.4240  1.1665  0.7494
50496SOL    HW256046  11.101   2.118   3.649  0.5307 -1.5580 -2.3506
50497SOL     OW56047   8.613   7.419   7.918  0.1159  0.6693 -0.3514
50497SOL    HW156048   8.674   7.364   7.869  0.6675  0.6302  0.3673
50497SOL    HW256049   8.651   7.507   7.913  1.3348  0.3191  1.7818
50498SOL     OW56050   6.068   3.877   4.691  0.5263  0.0116 -0.2894
50498SOL    HW156051   6.076   3.786   4.722 -0.1919  0.2734  0.7356
50498SOL    HW256052   5.988   3.876   4.638  1.3484 -0.2691 -1.5767
50499SOL     OW56053   1.436   6.629   8.807  0.5343 -0.6847  0.0468
50499SOL    HW156054   1.386   6.598   8.883  0.1332 -2.3599 -0.8477
50499SOL    HW256055   1.508   6.567   8.800  2.0269  0.9330  0.5222
50500SOL     OW56056  12.040   0.638   9.871 -0.0580 -0.6511  0.0618
50500SOL    HW156057  11.970   0.573   9.859  0.6555 -1.3762 -0.2060
50500SOL    HW256058  12.053   0.641   9.966 -1.0086  0.0944  0.1842
50501SOL     OW56059  10.324   5.905   0.661  0.2333  0.3349 -0.1818
50501SOL    HW156060  10.420   5.904   0.653  0.2112 -1.5911 -0.8797
50501SOL    HW256061  10.293   5.866   0.579 -1.0681 -0.4998  0.6675
50502SOL     OW56062   4.724   1.447   0.558  0.8731 -0.0224 -0.1872
50502SOL    HW156063   4.671   1.413   0.630 -1.2867  0.4340 -1.4720
50502SOL    HW256064   4.704   1.541   0.555  1.2732  0.0504 -1.0887
50503SOL     OW56065  11.653  11.898   2.252  0.8930 -0.1631  0.4036
50503SOL    HW156066  11.611  11.905   2.166  0.4126  0.0227  0.6447
50503SOL    HW256067  11.645  11.986   2.289  1.1326 -0.2326  0.6221
50504SOL     OW56068   9.044   7.550   3.266 -0.3457  0.6350 -0.3190
50504SOL    HW156069   8.972   7.491   3.291  0.0557  0.6678  1.0366
50504SOL    HW256070   9.047   7.546   3.171 -1.2685 -0.4178 -0.3252
50505SOL     OW56071   1.176   9.462   1.257  0.0562 -0.5921  0.2724
50505SOL    HW156072   1.207   9.372   1.270  0.0525 -0.4613  1.2420
50505SOL    HW256073   1.251   9.517   1.280 -1.1154 -0.2293  3.7083
50506SOL     OW56074  10.423   3.609   9.434  0.2645  0.5458 -0.8027
50506SOL    HW156075  10.508   3.573   9.408  0.9499  1.0337  0.6639
50506SOL    HW256076  10.434   3.703   9.425 -0.1138  0.6126 -0.5415
50507SOL     OW56077   2.325   0.669   6.821  0.0157  0.6861  0.0160
50507SOL    HW156078   2.353   0.758   6.842  2.7595 -0.1518  0.2945
50507SOL    HW256079   2.321   0.667   6.725 -0.2734  1.1572  0.0147
50508SOL     OW56080   6.106   2.653  11.701  0.6052  0.2319  0.4816
50508SOL    HW156081   6.148   2.588  11.644 -0.0207 -0.7046  1.0543
50508SOL    HW256082   6.129   2.625  11.790  1.1926  1.4116  0.7217
50509SOL     OW56083  10.074  10.424   3.484 -0.1728  0.5215 -0.0942
50509SOL    HW156084   9.987  10.384   3.477  0.2308 -0.3205 -0.3651
50509SOL    HW256085  10.092  10.425   3.578 -0.4742  0.7134 -0.0360
50510SOL     OW56086   8.191   4.179   0.881 -0.1806  0.3674 -0.3166
50510SOL    HW156087   8.107   4.145   0.850  0.0841  1.8261 -2.9075
50510SOL    HW256088   8.169   4.261   0.926 -0.2169  0.1290  0.1135
50511SOL     OW56089   8.277  10.973   8.265  0.4207  0.0744  0.5357
50511SOL    HW156090   8.296  10.905   8.331 -1.7501 -0.6714  0.4576
50511SOL    HW256091   8.333  10.949   8.191 -2.0109 -3.2843 -0.4918
50512SOL     OW56092   3.919   4.053   0.551  0.1575  0.2808 -0.0193
50512SOL    HW156093   3.873   4.048   0.467 -0.4576  0.8321  0.2771
50512SOL    HW256094   3.943   4.145   0.560 -0.5685  0.4034  0.8121
50513SOL     OW56095   0.223   7.636  11.354 -0.0122 -0.6303 -0.1641
50513SOL    HW156096   0.192   7.650  11.265 -0.0125 -1.6113 -0.3241
50513SOL    HW256097   0.306   7.590  11.344 -0.3475 -1.3640  0.3482
50514SOL     OW56098   1.622   9.110   2.172  0.1885  0.1323  0.6428
50514SOL    HW156099   1.604   9.065   2.255 -0.6731  2.6748  1.9640
50514SOL    HW256100   1.541   9.102   2.122  0.4163 -0.6680  0.3821
50515SOL     OW56101   9.345   2.671   8.266 -0.3502  0.0584 -0.2294
50515SOL    HW156102   9.384   2.615   8.332  1.4867  3.2162  1.6279
50515SOL    HW256103   9.261   2.699   8.303  0.3927  1.3260  0.5653
50516SOL     OW56104   0.722   0.111  12.028 -0.0117 -0.0293  0.1363
50516SOL    HW156105   0.647   0.051  12.026  0.3243 -0.4357 -0.9764
50516SOL    HW256106   0.723   0.145  12.118 -0.6026 -1.1943  0.6073
50517SOL     OW56107   1.396   2.112   3.890 -0.1937 -0.1470  0.1889
50517SOL    HW156108   1.476   2.061   3.904 -0.0469  0.2326  0.7322
50517SOL    HW256109   1.329   2.046   3.869 -0.0048 -0.5638  0.8798
50518SOL     OW56110   3.574   9.293   9.112 -0.0778  0.0024 -0.2153
50518SOL    HW156111   3.643   9.356   9.089 -0.3924 -0.0237 -1.2858
50518SOL    HW256112   3.504   9.312   9.050 -0.6174 -0.6753  0.1822
50519SOL     OW56113  12.057   5.746   1.604  0.6352  0.3183 -0.3831
50519SOL    HW156114  11.968   5.715   1.592  0.6527 -0.6686  1.6794
50519SOL    HW256115  12.097   5.740   1.517 -1.0681  0.0522 -1.1746
50520SOL     OW56116   3.853  11.610   9.755  0.6218  0.0658 -0.3237
50520SOL    HW156117   3.921  11.602   9.822  0.4823  0.7539 -0.0898
50520SOL    HW256118   3.804  11.528   9.760 -0.8663  0.9713  2.0700
50521SOL     OW56119   2.609   5.337   8.876 -0.2583  0.4324 -0.3115
50521SOL    HW156120   2.513   5.345   8.883 -0.1924  0.7210  0.3309
50521SOL    HW256121   2.628   5.249   8.909 -0.1305  1.0884  1.4492
50522SOL     OW56122  10.171  11.697   7.134  0.2908 -0.1410  0.0380
50522SOL    HW156123  10.213  11.639   7.070  1.5594  0.6621  0.1174
50522SOL    HW256124  10.149  11.639   7.207 -0.6922 -0.9723 -0.8706
50523SOL     OW56125   3.400   0.768  10.966  0.2683  0.0906  0.2000
50523SOL    HW156126   3.329   0.829  10.950  0.8532  0.6141 -0.4751
50523SOL    HW256127   3.369   0.712  11.037 -0.9141  0.1343 -0.2750
50524SOL     OW56128   9.947   7.129   4.911  0.0713  0.0643 -0.2249
50524SOL    HW156129  10.017   7.084   4.864  0.2429 -1.9058  1.7546
50524SOL    HW256130   9.873   7.127   4.851  1.2517  0.9326 -1.8047
50525SOL     OW56131  12.065   8.636  11.821  0.1468  0.0137  0.2976
50525SOL    HW156132  12.035   8.546  11.829 -0.5091  0.1685 -0.2904
50525SOL    HW256133  12.154   8.629  11.786 -0.1995 -0.3978 -0.5451
50526SOL     OW56134   4.448   1.345   7.847  0.2667  0.6404 -0.2846
50526SOL    HW156135   4.387   1.417   7.862  1.2273  1.3176  0.5763
50526SOL    HW256136   4.529   1.374   7.890  0.6772 -0.9555  0.0725
50527SOL     OW56137   7.037   6.208   6.900 -0.1175 -0.6979 -0.0357
50527SOL    HW156138   7.118   6.160   6.916 -0.0393 -0.4622  0.2679
50527SOL    HW256139   6.977   6.142   6.863  1.2133 -0.2222 -3.4713
50528SOL     OW56140   7.048   6.756   2.705 -0.4636  0.3373 -0.6296
50528SOL    HW156141   6.975   6.709   2.664 -0.8290  1.1557 -0.9505
50528SOL    HW256142   7.098   6.791   2.631  0.0330  0.1213 -0.4028
50529SOL     OW56143   1.204   5.822   7.861  0.0378  0.0938 -0.5860
50529SOL    HW156144   1.184   5.901   7.913 -1.4144 -0.4060 -0.3478
50529SOL    HW256145   1.260   5.770   7.919 -2.7669 -1.1635  1.2599
50530SOL     OW56146   1.017   0.142   8.458 -0.1867 -0.1427  0.0632
50530SOL    HW156147   1.002   0.204   8.530  2.5976  0.1737  0.4609
50530SOL    HW256148   1.009   0.056   8.499 -1.1178 -0.0256  0.1581
50531SOL     OW56149   3.224  11.788   4.995  0.2743 -0.3797 -0.0366
50531SOL    HW156150   3.312  11.778   4.958  0.4657 -0.5825  0.4588
50531SOL    HW256151   3.231  11.863   5.054  0.5725 -1.3807  1.2725
50532SOL     OW56152  11.543   3.979   2.651  0.0642  0.2968  0.0065
50532SOL    HW156153  11.535   3.891   2.686 -1.6913 -0.0314 -1.0961
50532SOL    HW256154  11.620   3.977   2.594  0.6325 -0.2221  0.7884
50533SOL     OW56155   8.159   4.670  10.540  0.1833  0.0055  0.0458
50533SOL    HW156156   8.243   4.640  10.574  0.9012  2.4430  0.6419
50533SOL    HW256157   8.179   4.704  10.453 -0.4113 -0.3436 -0.2352
50534SOL     OW56158   4.971   9.238  11.648 -0.5935 -1.1167 -0.8690
50534SOL    HW156159   5.024   9.186  11.587 -0.5749  0.0535 -1.8943
50534SOL    HW256160   4.974   9.327  11.613  0.4700 -0.1061  1.5600
50535SOL     OW56161   7.052   1.379  11.893 -0.7167 -0.0277 -0.1881
50535SOL    HW156162   6.990   1.442  11.855 -1.3304 -1.1032 -1.0284
50535SOL    HW256163   7.129   1.384  11.836 -1.1098 -0.6606 -0.7879
50536SOL     OW56164   3.603   6.328   7.441  0.4693 -0.0233  0.0340
50536SOL    HW156165   3.635   6.418   7.450  0.9526 -0.2812  1.1062
50536SOL    HW256166   3.575   6.304   7.529 -0.9501 -0.4612 -0.5217
50537SOL     OW56167   7.564   3.171  11.784 -0.1513  0.0918 -0.3992
50537SOL    HW156168   7.649   3.167  11.829  1.3343  0.8264 -2.9690
50537SOL    HW256169   7.534   3.261  11.796 -0.0194  0.1423 -0.4546
50538SOL     OW56170   8.146   9.499   1.397 -0.1968 -0.5443  0.1355
50538SOL    HW156171   8.179   9.532   1.314 -0.2032 -1.5016 -0.2617
50538SOL    HW256172   8.051   9.507   1.390 -0.1514  0.8918  0.7194
50539SOL     OW56173  11.537   3.933   8.073  0.2686  0.2221 -0.1157
50539SOL    HW156174  11.458   3.882   8.090  1.0788 -0.5549  1.4998
50539SOL    HW256175  11.569   3.902   7.988 -0.2662 -0.5999 -0.0206
50540SOL     OW56176   9.292   7.225   6.257 -0.0112  0.2541 -0.1740
50540SOL    HW156177   9.325   7.225   6.347  0.0099 -0.7363 -0.1654
50540SOL    HW256178   9.213   7.279   6.260  0.3040  0.6981  0.3104
50541SOL     OW56179   3.996   8.585   2.724 -0.1131 -0.0356 -0.0047
50541SOL    HW156180   4.073   8.551   2.679 -1.2126 -0.5341 -1.5986
50541SOL    HW256181   4.007   8.558   2.815  1.5422 -0.1585 -0.2177
50542SOL     OW56182  11.421   4.501   2.890 -0.5460 -0.4027 -0.5417
50542SOL    HW156183  11.394   4.592   2.876  1.4097  0.2023 -0.6316
50542SOL    HW256184  11.382   4.478   2.974 -1.7097  0.2402 -0.8754
50543SOL     OW56185  11.443  11.787   3.206 -0.4314 -0.2624  0.4502
50543SOL    HW156186  11.368  11.740   3.241 -0.2770 -1.0504 -0.2539
50543SOL    HW256187  11.519  11.748   3.250 -0.3686 -0.0432  0.5393
50544SOL     OW56188   8.724   3.129   8.568  0.6025  0.6804  0.1951
50544SOL    HW156189   8.638   3.171   8.568  0.5761  0.6619  1.4001
50544SOL    HW256190   8.711   3.049   8.620  0.8849 -0.3430 -1.2407
50545SOL     OW56191  10.084   1.821   8.912  0.1940 -0.1606  0.0481
50545SOL    HW156192  10.021   1.749   8.909  1.1750 -1.0290 -2.1094
50545SOL    HW256193  10.163   1.782   8.951  0.6589 -0.2252 -0.9323
50546SOL     OW56194   0.838   8.992   2.630 -0.5926 -0.3545 -0.0954
50546SOL    HW156195   0.760   9.025   2.676 -0.9174 -0.6665 -0.4144
50546SOL    HW256196   0.823   8.898   2.623 -0.0228 -0.4693  0.1418
50547SOL     OW56197   6.038   9.044   2.828 -0.3906  0.2803 -0.3658
50547SOL    HW156198   6.032   8.967   2.771  0.2859  1.0658 -1.5249
50547SOL    HW256199   6.047   9.118   2.768 -0.8999  1.2712  0.7320
50548SOL     OW56200   6.927  10.554  10.324 -0.1254  0.2006 -0.7362
50548SOL    HW156201   6.994  10.592  10.267 -0.8114  2.8314  0.0362
50548SOL    HW256202   6.949  10.585  10.412 -1.0705 -0.7780 -0.1306
50549SOL     OW56203   4.553   6.992  11.110 -0.0570  0.5680 -0.5008
50549SOL    HW156204   4.571   6.942  11.190  1.0260  0.7533 -0.6151
50549SOL    HW256205   4.465   7.027  11.124 -0.4117 -0.4890  0.0344
50550SOL     OW56206   6.046   0.938   8.166  0.1542 -0.1840 -0.2260
50550SOL    HW156207   6.090   0.951   8.250 -0.1478 -0.6593  0.0103
50550SOL    HW256208   6.091   0.863   8.127 -0.1393 -0.3773 -0.1922
50551SOL     OW56209   2.537  10.053   3.926  0.2950  0.3836  0.0763
50551SOL    HW156210   2.484   9.975   3.909 -0.8051  0.8410  1.2698
50551SOL    HW256211   2.628  10.022   3.922 -0.1136 -0.8545  0.1136
50552SOL     OW56212   5.516   1.906   8.421 -0.0024 -0.3913  0.6671
50552SOL    HW156213   5.591   1.859   8.457 -0.2116 -0.7524  0.6398
50552SOL    HW256214   5.551   1.991   8.395 -0.1951  0.6485  3.4418
50553SOL     OW56215  11.640   7.704   2.151 -0.5937 -0.1531 -0.2289
50553SOL    HW156216  11.727   7.684   2.185 -1.2812  0.1911  1.8247
50553SOL    HW256217  11.656   7.740   2.064  1.2146 -1.2836 -0.4046
50554SOL     OW56218  11.241   2.056   4.562  0.5090 -0.3476 -0.6361
50554SOL    HW156219  11.147   2.042   4.560  0.4443 -0.0162 -0.1263
50554SOL    HW256220  11.267   2.065   4.470  0.1849 -1.3258 -0.8396
50555SOL     OW56221  10.678   6.498   5.281  0.0694 -0.1373 -0.3480
50555SOL    HW156222  10.690   6.496   5.186 -0.4281  1.0301 -0.4546
50555SOL    HW256223  10.691   6.590   5.305  0.9599 -0.5442  0.8299
50556SOL     OW56224   2.216   4.306   9.045  0.2670  0.0385  0.2693
50556SOL    HW156225   2.190   4.238   8.984 -0.1523  1.8896 -1.7315
50556SOL    HW256226   2.188   4.274   9.130  0.2110 -2.3094 -0.5615
50557SOL     OW56227   6.498   1.129   3.209  0.1639  0.2152 -0.4318
50557SOL    HW156228   6.552   1.053   3.191 -0.7701 -0.2136 -1.5227
50557SOL    HW256229   6.408   1.098   3.197 -0.3554  0.9048  1.3277
50558SOL     OW56230   4.557   9.180   7.274  0.2203  0.0434 -0.2262
50558SOL    HW156231   4.563   9.190   7.179  1.6253 -0.9270 -0.2717
50558SOL    HW256232   4.603   9.099   7.293  0.7484  0.6628  1.3818
50559SOL     OW56233   7.830   3.031   5.261 -0.5582 -0.6134 -0.3612
50559SOL    HW156234   7.877   2.955   5.296  0.9873  0.6383  0.4350
50559SOL    HW256235   7.744   3.028   5.302  0.4907 -0.3436  2.0199
50560SOL     OW56236   9.503   5.176  10.284 -0.0230 -0.1908  0.0927
50560SOL    HW156237   9.420   5.195  10.241  1.3379  2.1895 -1.7256
50560SOL    HW256238   9.505   5.235  10.360 -1.0184 -2.1020  1.7104
50561SOL     OW56239   6.312   6.465   0.547  0.5683 -0.0100  0.0723
50561SOL    HW156240   6.406   6.479   0.543  0.8071 -1.5603 -1.0408
50561SOL    HW256241   6.301   6.370   0.535 -1.0926 -0.0092  1.1612
50562SOL     OW56242   7.977   1.847   6.378 -0.1003 -0.1772  0.5967
50562SOL    HW156243   7.937   1.808   6.300 -0.1439  0.4766  0.2888
50562SOL    HW256244   8.037   1.779   6.410 -0.0136 -0.4147 -0.0549
50563SOL     OW56245  11.462  11.453   3.518  0.1442  0.0975  0.3299
50563SOL    HW156246  11.551  11.419   3.510 -0.2767 -0.7874 -1.0976
50563SOL    HW256247  11.413  11.383   3.562  0.1075  0.5025  0.9429
50564SOL     OW56248   9.677   5.309   4.719  0.4512 -0.2912 -0.0289
50564SOL    HW156249   9.668   5.357   4.801  0.1536 -1.7247  0.8107
50564SOL    HW256250   9.663   5.217   4.743 -2.0975 -0.5726 -2.0377
50565SOL     OW56251   4.398   3.425   1.444  0.0537 -0.2348  0.2233
50565SOL    HW156252   4.308   3.451   1.461  0.2081  0.6592 -0.2762
50565SOL    HW256253   4.449   3.506   1.451  0.8930 -0.8043  0.9658
50566SOL     OW56254   1.848   0.604   5.003  0.0357  0.1615  0.0519
50566SOL    HW156255   1.896   0.682   5.030  0.3375  0.6060 -1.6783
50566SOL    HW256256   1.779   0.594   5.069 -0.1483  2.0308  0.1753
50567SOL     OW56257   8.192   4.771   9.149 -0.5953  0.7603  0.1574
50567SOL    HW156258   8.230   4.851   9.185 -0.7993  0.9926 -0.1444
50567SOL    HW256259   8.191   4.710   9.223 -3.2709  2.0105  1.2708
50568SOL     OW56260   5.297   8.306  10.099 -0.4612 -0.2854  0.0461
50568SOL    HW156261   5.301   8.247  10.024 -0.6286  0.2266 -0.3745
50568SOL    HW256262   5.344   8.384  10.071  0.5107 -0.5375  0.9070
50569SOL     OW56263  11.005   6.419   5.804  0.4722 -0.1544  0.5116
50569SOL    HW156264  11.019   6.349   5.740 -2.1361 -0.0911 -0.2361
50569SOL    HW256265  11.053   6.391   5.882  0.1095 -2.4098 -0.0129
50570SOL     OW56266   9.136   0.620  11.140  0.4265  0.1297 -0.2201
50570SOL    HW156267   9.166   0.585  11.056  1.6935  0.3674  0.1099
50570SOL    HW256268   9.188   0.573  11.205 -0.5872 -0.0921  0.4465
50571SOL     OW56269   1.654   9.804   5.037 -0.1437 -0.1863  0.7842
50571SOL    HW156270   1.700   9.720   5.043 -0.7644 -0.7807 -1.8216
50571SOL    HW256271   1.724   9.870   5.034  0.4610 -0.8523 -0.1702
50572SOL     OW56272  10.923   3.519   3.182  0.5413 -0.4375 -0.0264
50572SOL    HW156273  10.878   3.449   3.135  0.7049 -2.5921  2.8099
50572SOL    HW256274  10.859   3.548   3.248  1.3559  0.3768  0.4164
50573SOL     OW56275   1.528   7.263   4.511 -0.3798 -0.1733 -0.3162
50573SOL    HW156276   1.536   7.327   4.582 -2.2550  0.1234 -0.3337
50573SOL    HW256277   1.520   7.315   4.432  1.4318 -0.5058 -0.7536
50574SOL     OW56278   7.818   3.135   9.405 -0.0313 -0.3186 -0.2390
50574SOL    HW156279   7.816   3.230   9.417  3.0807  0.0824 -2.0754
50574SOL    HW256280   7.907   3.109   9.428 -0.2937 -2.5580 -1.4408
50575SOL     OW56281   4.730   6.222   6.749 -0.6795 -0.5583  0.1898
50575SOL    HW156282   4.731   6.191   6.658 -0.7311 -1.2117  0.4038
50575SOL    HW256283   4.691   6.150   6.798 -4.2982  1.2111  0.2460
50576SOL     OW56284   2.104   9.849   3.957 -0.3194 -0.2727 -1.2614
50576SOL    HW156285   2.102   9.769   3.905 -0.7508 -1.5435  0.6140
50576SOL    HW256286   2.013   9.863   3.983 -0.1578  0.5143 -1.0942
50577SOL     OW56287   2.397  10.143   3.558  0.5515  0.4985  0.1521
50577SOL    HW156288   2.366  10.052   3.559  0.1144  0.5453 -2.4422
50577SOL    HW256289   2.491  10.136   3.576  0.4177 -0.4179  0.5342
50578SOL     OW56290  10.179   9.552   5.970 -0.2156 -0.0301 -0.2679
50578SOL    HW156291  10.239   9.575   6.041 -0.0955 -1.2275  0.0506
50578SOL    HW256292  10.235   9.545   5.892 -0.0204 -0.5500 -0.0906
50579SOL     OW56293   2.642   8.568   1.652  0.0639  0.5791 -0.4634
50579SOL    HW156294   2.653   8.613   1.735  1.3028  0.2209 -0.4111
50579SOL    HW256295   2.578   8.499   1.670  1.3546 -0.4035  0.6055
50580SOL     OW56296   9.332   3.443   1.610 -0.1025  0.3876  0.6632
50580SOL    HW156297   9.298   3.452   1.699 -0.2237  3.5692  0.4190
50580SOL    HW256298   9.278   3.503   1.558  0.5718 -0.7035 -1.3907
50581SOL     OW56299  11.678  11.196  10.016  0.4676 -0.0933 -0.0323
50581SOL    HW156300  11.669  11.120  10.074  0.1672  0.8004  1.1468
50581SOL    HW256301  11.750  11.174   9.958  1.9187 -0.3987  1.7730
50582SOL     OW56302   7.488   0.281   1.389  0.3675 -0.3518  0.1314
50582SOL    HW156303   7.521   0.205   1.340 -0.0142 -0.9904  0.8506
50582SOL    HW256304   7.402   0.254   1.420  0.8001 -0.1589  1.5827
50583SOL     OW56305   1.131   6.809   6.396 -0.5608  0.0142  0.0800
50583SOL    HW156306   1.154   6.735   6.340  0.3891 -1.3775  2.1965
50583SOL    HW256307   1.207   6.822   6.452 -0.7182  2.6037 -0.1829
50584SOL     OW56308   3.153   9.292   8.795  0.1282 -0.3824  0.4772
50584SOL    HW156309   3.114   9.239   8.863  0.0947  0.4091  1.0885
50584SOL    HW256310   3.104   9.270   8.716 -1.5936  0.6020  1.2266
50585SOL     OW56311   8.580   3.113   7.494 -1.0360 -0.2539  0.1740
50585SOL    HW156312   8.523   3.160   7.556 -1.6932 -0.0327 -0.5820
50585SOL    HW256313   8.646   3.178   7.469 -2.0210  0.3440 -0.9722
50586SOL     OW56314   6.317  11.858   7.441  0.4761 -0.0816 -0.3477
50586SOL    HW156315   6.375  11.928   7.411 -0.3722  0.5001 -0.7118
50586SOL    HW256316   6.230  11.886   7.411 -0.0129 -0.8263  0.3369
50587SOL     OW56317   4.988  10.182   0.155  0.0287  0.0274  0.1408
50587SOL    HW156318   5.048  10.155   0.086  1.5441  1.0830  0.9748
50587SOL    HW256319   4.980  10.105   0.211 -1.8804 -1.1184 -1.5742
50588SOL     OW56320   7.348   7.063   0.311  0.2481 -0.2525 -0.6529
50588SOL    HW156321   7.408   7.012   0.257 -0.9389 -2.2732 -0.1490
50588SOL    HW256322   7.328   7.006   0.385 -0.7380  1.1712  0.2198
50589SOL     OW56323   8.898   0.422  11.892 -0.5351  0.1852 -0.1552
50589SOL    HW156324   8.859   0.335  11.896 -1.6572  0.6508 -0.6353
50589SOL    HW256325   8.984   0.412  11.935 -0.5728 -1.1802 -0.3593
50590SOL     OW56326   1.896   2.983   6.952 -0.2945  0.1053  0.4702
50590SOL    HW156327   1.875   2.909   7.009  1.8653  0.5084  1.9192
50590SOL    HW256328   1.910   2.944   6.866 -3.2259 -0.5714  0.2061
50591SOL     OW56329  10.470   4.988  11.426 -0.2485  0.0250 -0.2666
50591SOL    HW156330  10.490   5.075  11.393  0.3878 -0.0582 -0.1087
50591SOL    HW256331  10.457   5.001  11.521 -0.4201 -0.0097 -0.2844
50592SOL     OW56332   5.813   2.324  10.723 -0.1825  0.6058  0.2007
50592SOL    HW156333   5.905   2.322  10.750 -0.4249  2.2952  1.3003
50592SOL    HW256334   5.771   2.257  10.777  0.7843 -2.0903 -2.1726
50593SOL     OW56335  12.031   1.051   5.325 -0.1486 -0.0012 -0.0039
50593SOL    HW156336  12.080   0.969   5.316 -0.1858  0.0500 -0.6792
50593SOL    HW256337  11.973   1.053   5.249  0.6261  1.1804 -0.6006
50594SOL     OW56338  11.716   3.967  11.651 -0.1470 -0.3365  0.3341
50594SOL    HW156339  11.696   3.967  11.744 -0.3163  1.1784  0.3271
50594SOL    HW256340  11.696   4.056  11.622 -3.5197 -1.6189 -1.8999
50595SOL     OW56341   3.306  11.966   9.999 -0.5713  0.3804  0.7857
50595SOL    HW156342   3.375  11.911  10.035 -1.5518  0.6470  3.2770
50595SOL    HW256343   3.351  12.045   9.968  0.5440 -0.7197 -0.4860
50596SOL     OW56344  10.117  10.365  10.650  0.0331  0.7378  0.0531
50596SOL    HW156345  10.159  10.451  10.653 -0.7401  1.2025 -1.3237
50596SOL    HW256346  10.188  10.305  10.628  0.2989  1.2581 -0.5516
50597SOL     OW56347   2.804   2.969   6.425 -0.0855 -0.3182 -0.0826
50597SOL    HW156348   2.734   2.923   6.378 -1.9371  1.5707  0.6876
50597SOL    HW256349   2.789   2.947   6.517  3.2260 -3.6073 -0.0747
50598SOL     OW56350   2.332   4.426   1.742 -0.0700  0.1822 -0.0257
50598SOL    HW156351   2.359   4.454   1.654  2.1160  0.5315  0.7056
50598SOL    HW256352   2.367   4.337   1.751 -0.6337 -0.0104  0.3700
50599SOL     OW56353  10.725   8.332  11.481 -0.0238  0.2005  0.1400
50599SOL    HW156354  10.703   8.406  11.425  0.4211  0.4564  0.2908
50599SOL    HW256355  10.759   8.373  11.561 -1.8279 -0.1248  1.1207
50600SOL     OW56356  11.402   0.940   5.618  0.1210  0.2993  0.2048
50600SOL    HW156357  11.486   0.937   5.571 -0.1532  0.5760 -0.3079
50600SOL    HW256358  11.359   1.019   5.585 -0.4192  0.0634  0.3408
50601SOL     OW56359   2.817   6.936   8.030 -0.0937 -0.7024 -0.0566
50601SOL    HW156360   2.817   6.977   8.117 -0.2763  0.8591 -0.7713
50601SOL    HW256361   2.837   6.844   8.048 -1.4162 -0.7061  1.7679
50602SOL     OW56362   5.072   3.170   7.819  0.4032 -0.0236 -0.0582
50602SOL    HW156363   5.036   3.103   7.761 -0.8111  1.3470 -0.9471
50602SOL    HW256364   5.047   3.141   7.907  1.8547 -1.8729 -0.1834
50603SOL     OW56365  11.917   7.141   0.666  0.6310 -0.2218  0.2450
50603SOL    HW156366  11.953   7.225   0.635  1.8679 -0.7402  0.2434
50603SOL    HW256367  11.926   7.082   0.591 -0.8459 -0.2163  0.0226
50604SOL     OW56368   4.667  10.249   9.401 -0.3774 -0.4238  0.8763
50604SOL    HW156369   4.585  10.204   9.382  0.1863 -1.2525  0.3312
50604SOL    HW256370   4.728  10.179   9.426  1.0364 -0.2633 -1.7128
50605SOL     OW56371   6.582   0.048   5.747  0.0373  0.4611  0.0839
50605SOL    HW156372   6.638   0.115   5.710  1.5206  0.1726  1.6770
50605SOL    HW256373   6.603   0.048   5.841 -2.5181  0.2082  0.7204
50606SOL     OW56374   2.264   4.768   2.937  0.2724  0.2229  0.5282
50606SOL    HW156375   2.342   4.750   2.990  0.2317 -0.0446  0.4955
50606SOL    HW256376   2.296   4.825   2.867  0.0545  1.7821  1.6488
50607SOL     OW56377   8.802  12.048   7.878 -0.1040  0.4426 -0.1443
50607SOL    HW156378   8.873  11.987   7.856 -0.0722  0.4631 -0.0971
50607SOL    HW256379   8.734  11.992   7.915 -0.8779  0.1457 -1.8818
50608SOL     OW56380   4.246   7.516  10.802 -0.0903  0.0286 -0.4277
50608SOL    HW156381   4.266   7.482  10.889  0.8414 -1.2843 -1.1108
50608SOL    HW256382   4.304   7.592  10.791  0.4072 -0.3183 -0.2168
50609SOL     OW56383   6.327   6.783   9.436 -0.2396  0.5806 -0.2981
50609SOL    HW156384   6.411   6.780   9.390  0.2790 -0.1016  0.6481
50609SOL    HW256385   6.350   6.803   9.527 -1.1017  0.3892 -0.0258
50610SOL     OW56386   3.635  10.465   8.837  0.5729  0.0686 -0.2556
50610SOL    HW156387   3.647  10.533   8.903 -0.3968  1.8981 -1.8510
50610SOL    HW256388   3.597  10.391   8.884  1.3437  0.7453  1.4795
50611SOL     OW56389   1.879   7.310   5.093  0.2545  0.3913  0.6477
50611SOL    HW156390   1.867   7.357   5.175  1.9787 -0.5933  1.5117
50611SOL    HW256391   1.824   7.232   5.100 -2.1014  1.8299 -0.5216
50612SOL     OW56392   8.214   9.341   8.423  0.0788 -0.0815  0.1636
50612SOL    HW156393   8.301   9.367   8.395  0.3434 -0.0615  0.9620
50612SOL    HW256394   8.156   9.368   8.352  0.9362 -1.8125 -1.2538
50613SOL     OW56395   6.593   5.516   4.384 -0.7406 -0.3024  0.3523
50613SOL    HW156396   6.679   5.558   4.392 -0.6527  0.4555 -3.2240
50613SOL    HW256397   6.609   5.440   4.328 -2.3450 -0.3938 -0.0164
50614SOL     OW56398  10.548   5.943   9.083  0.3714 -0.4310 -0.1828
50614SOL    HW156399  10.560   5.987   8.999 -1.5815 -0.6063 -0.6101
50614SOL    HW256400  10.634   5.945   9.124  1.2852  0.0026 -2.0129
50615SOL     OW56401   4.935  10.594   5.545  0.2766  0.2956  1.0653
50615SOL    HW156402   5.029  10.599   5.528  0.0631  1.5479  0.1293
50615SOL    HW256403   4.924  10.637   5.631  0.6273 -0.4883  1.5118
50616SOL     OW56404   6.015   3.420   4.207  0.4227  0.4773 -0.0717
50616SOL    HW156405   6.093   3.365   4.199 -1.3465 -2.1431 -0.5184
50616SOL    HW256406   6.028   3.468   4.289  1.7685 -1.1050  0.7036
50617SOL     OW56407   8.429   7.739   3.242 -0.8356  0.3434 -0.0609
50617SOL    HW156408   8.413   7.833   3.236  2.4309  0.9777 -0.9985
50617SOL    HW256409   8.461   7.725   3.332 -3.4625 -0.3838  0.8535
50618SOL     OW56410   1.861   8.418   9.664  0.2121 -0.1029  0.2398
50618SOL    HW156411   1.796   8.482   9.694  1.0526  1.7936 -1.7131
50618SOL    HW256412   1.926   8.416   9.734  0.2214  1.2964  0.3100
50619SOL     OW56413   8.552  11.788   1.572  0.3443  0.1975  0.2189
50619SOL    HW156414   8.584  11.795   1.662 -1.3804  0.3394  0.8506
50619SOL    HW256415   8.622  11.827   1.519  0.5548  1.9094  1.6723
50620SOL     OW56416   7.225   0.267  10.405 -0.0271 -1.3687 -0.2243
50620SOL    HW156417   7.164   0.222  10.346 -0.3264 -2.0582  0.5897
50620SOL    HW256418   7.264   0.336  10.351 -1.9324 -0.5438 -0.6195
50621SOL     OW56419   6.001   5.517   1.857  0.5063  0.2918  0.0993
50621SOL    HW156420   5.960   5.604   1.854  1.5806  0.7913 -1.2043
50621SOL    HW256421   5.953   5.470   1.925  0.2816  2.1095  1.2763
50622SOL     OW56422   9.002  10.926   7.327  0.0156  0.1011  0.4088
50622SOL    HW156423   8.972  10.835   7.328  1.1087 -0.2820  0.9284
50622SOL    HW256424   8.923  10.978   7.334 -0.6151 -0.8252  0.3111
50623SOL     OW56425   2.497  11.561   7.507 -0.4561  0.5771 -0.0155
50623SOL    HW156426   2.547  11.486   7.474 -1.9230 -0.4302 -0.0501
50623SOL    HW256427   2.561  11.613   7.555  0.6325 -0.6341 -0.0901
50624SOL     OW56428   9.936   0.410   7.293 -0.1720 -0.0418  0.0155
50624SOL    HW156429   9.859   0.462   7.314 -0.6796 -0.0564 -1.6202
50624SOL    HW256430   9.908   0.319   7.306  0.1321  0.0052  1.0817
50625SOL     OW56431   3.836   7.356   9.128  0.1807 -0.3111  0.3542
50625SOL    HW156432   3.898   7.330   9.060 -0.6632 -0.8434 -0.2395
50625SOL    HW256433   3.823   7.450   9.113 -0.9407 -0.6511 -1.0552
50626SOL     OW56434   7.540   6.420   0.879  0.2745 -0.0572  0.1553
50626SOL    HW156435   7.538   6.368   0.798  0.8334 -1.6666  1.1322
50626SOL    HW256436   7.606   6.487   0.862 -1.8604  1.7146 -1.8686
50627SOL     OW56437   3.459  10.851   9.446 -0.2284 -0.3689  0.5004
50627SOL    HW156438   3.404  10.901   9.507 -0.2694 -0.7625  0.7858
50627SOL    HW256439   3.412  10.857   9.362 -0.9917 -1.1331  0.8524
50628SOL     OW56440   6.204   5.706   8.504 -0.9293  0.2331  0.4156
50628SOL    HW156441   6.276   5.652   8.536 -1.3966 -0.0720  0.9909
50628SOL    HW256442   6.204   5.783   8.562 -1.2846  0.0575  0.6551
50629SOL     OW56443  11.356   2.908   0.580 -1.0621  0.4258  0.4444
50629SOL    HW156444  11.325   2.818   0.584 -0.2425  0.0713 -0.7083
50629SOL    HW256445  11.450   2.901   0.569 -0.7264  1.4718  2.2976
50630SOL     OW56446   7.514   8.608   8.514  0.2476  0.2866 -0.2856
50630SOL    HW156447   7.429   8.585   8.551  0.0847 -0.1212 -0.9016
50630SOL    HW256448   7.520   8.557   8.434  1.6207 -0.6826  0.3945
50631SOL     OW56449  10.237  11.414   6.180 -0.1426 -0.4085  0.1246
50631SOL    HW156450  10.174  11.346   6.155 -0.0439 -1.4565  2.4959
50631SOL    HW256451  10.311  11.399   6.120 -1.3138 -0.4054 -1.3927
50632SOL     OW56452  11.727   1.301   3.022 -0.5134 -0.0899 -0.0318
50632SOL    HW156453  11.807   1.250   3.006 -1.0855 -1.2946  0.7292
50632SOL    HW256454  11.657   1.235   3.019 -1.7959  1.2370 -2.9189
50633SOL     OW56455   4.642   3.718   2.696 -0.0059 -0.5014 -0.0240
50633SOL    HW156456   4.675   3.788   2.752 -0.2890 -1.5893  1.5752
50633SOL    HW256457   4.708   3.709   2.627  1.2864 -0.3031  1.1445
50634SOL     OW56458   1.882   2.531   6.129 -0.1467 -0.5402  0.2773
50634SOL    HW156459   1.812   2.595   6.119  0.2441  0.1088  1.5489
50634SOL    HW256460   1.856   2.457   6.073 -0.4971  0.7976 -1.4014
50635SOL     OW56461  10.404   2.820   6.797  0.0299  0.5164 -0.0195
50635SOL    HW156462  10.329   2.825   6.739 -0.5942  3.1360  0.8731
50635SOL    HW256463  10.478   2.801   6.739 -1.0094 -0.0895 -1.1857
50636SOL     OW56464   5.626   1.221  10.561  0.5319  0.0018 -0.1682
50636SOL    HW156465   5.560   1.181  10.504 -0.6746  0.9915  0.4899
50636SOL    HW256466   5.616   1.176  10.644  2.2949 -1.4441 -0.6734
50637SOL     OW56467   7.682   0.122   8.599  0.1373 -0.1397 -0.6925
50637SOL    HW156468   7.697   0.187   8.667  2.4777 -1.3839  0.0863
50637SOL    HW256469   7.651   0.045   8.646 -0.0262 -0.4256 -1.2631
50638SOL     OW56470  11.495   6.696   4.707  0.2449  0.0228  0.0658
50638SOL    HW156471  11.464   6.713   4.618  3.3724 -0.2028 -1.2100
50638SOL    HW256472  11.470   6.605   4.724 -1.3482  0.4051 -0.0801
50639SOL     OW56473   6.087   6.535  10.180  0.2465  0.2267 -0.1039
50639SOL    HW156474   6.138   6.611  10.207 -1.2293  0.9515  0.7880
50639SOL    HW256475   6.079   6.544  10.085  2.6963 -0.5388 -0.4425
50640SOL     OW56476   7.380   0.441   1.793 -0.1675 -0.3196  0.0792
50640SOL    HW156477   7.383   0.533   1.819  0.5961  0.1025 -1.4030
50640SOL    HW256478   7.342   0.442   1.705 -1.5898 -1.5797  0.6408
50641SOL     OW56479   8.324  11.723  10.272  0.0763 -0.1478 -0.0295
50641SOL    HW156480   8.323  11.811  10.310  0.2135 -0.1234 -0.0830
50641SOL    HW256481   8.335  11.665  10.347 -1.3024 -0.2064  0.1646
50642SOL     OW56482   5.078   4.657   4.215 -0.5279 -0.0326  0.5871
50642SOL    HW156483   5.034   4.575   4.236  1.5808 -1.0387  1.4435
50642SOL    HW256484   5.098   4.696   4.300  0.2615  0.3305  0.2525
50643SOL     OW56485   0.515   4.328   9.018 -0.0117 -0.5150  0.2601
50643SOL    HW156486   0.609   4.342   9.010 -0.2213  0.4910 -0.5901
50643SOL    HW256487   0.475   4.408   8.984 -1.1735 -0.6040  1.3339
50644SOL     OW56488   8.919   8.087   0.980 -0.4045  0.1146 -0.1259
50644SOL    HW156489   8.825   8.098   0.965 -0.2996 -0.2741 -1.1105
50644SOL    HW256490   8.959   8.102   0.895  0.4025 -0.0568  0.2145
50645SOL     OW56491   1.102   8.258   4.330  0.5309 -0.0188  0.2618
50645SOL    HW156492   1.014   8.277   4.297  1.1943  1.7462 -0.6127
50645SOL    HW256493   1.161   8.292   4.263  1.8938  1.1248  1.9367
50646SOL     OW56494   8.133   9.411   2.567 -0.4522 -0.1882  0.0177
50646SOL    HW156495   8.222   9.443   2.554  0.4838 -2.1262  1.2055
50646SOL    HW256496   8.110   9.440   2.656 -0.5305 -0.7334  0.1764
50647SOL     OW56497  12.090   4.725   3.325 -0.5884  0.0836  0.2209
50647SOL    HW156498  12.069   4.746   3.234  0.2401  3.4056  0.6582
50647SOL    HW256499  12.186   4.722   3.328 -0.6233 -1.0537  0.8263
50648SOL     OW56500  11.528   9.623   0.429  0.3081  0.2683 -0.3729
50648SOL    HW156501  11.440   9.647   0.398 -0.0205 -1.0678 -0.5269
50648SOL    HW256502  11.582   9.700   0.409 -0.5597  0.6395 -1.4100
50649SOL     OW56503   3.043   5.522   6.904  0.1217 -0.5329 -0.6875
50649SOL    HW156504   3.033   5.474   6.987  1.4137  0.1056 -0.1315
50649SOL    HW256505   2.957   5.514   6.862 -0.4512 -1.2106  0.5290
50650SOL     OW56506   2.195   1.998   7.760  0.1185  0.1775  0.0262
50650SOL    HW156507   2.169   1.909   7.784 -0.6331  0.2352 -0.5567
50650SOL    HW256508   2.189   2.048   7.842  0.4668 -0.2840  0.3374
50651SOL     OW56509   1.382   7.250   2.900  0.5217 -0.5017 -0.1456
50651SOL    HW156510   1.309   7.246   2.839  1.4481 -1.5801 -1.2325
50651SOL    HW256511   1.456   7.280   2.848  1.0268 -0.1355  0.7615
50652SOL     OW56512  11.776   5.892   4.283  0.5222  0.0889 -0.3552
50652SOL    HW156513  11.718   5.910   4.209  0.3899 -0.5317 -0.4048
50652SOL    HW256514  11.754   5.803   4.310  0.8057  0.1868  0.2179
50653SOL     OW56515   3.359   7.283   3.415  0.3298 -0.3170  0.1968
50653SOL    HW156516   3.436   7.340   3.413 -0.1113  0.2730 -1.3931
50653SOL    HW256517   3.382   7.211   3.356 -0.1630 -0.3740  0.0763
50654SOL     OW56518  11.949   2.624   5.256 -0.1207  0.7215 -0.3884
50654SOL    HW156519  11.898   2.594   5.181 -0.0884  1.7849 -0.8511
50654SOL    HW256520  11.892   2.687   5.299  1.2143  2.8695 -1.6096
50655SOL     OW56521  11.388   6.921   9.049 -0.8403  0.4755 -0.0557
50655SOL    HW156522  11.479   6.917   9.018 -1.0594  2.1318 -1.0334
50655SOL    HW256523  11.389   6.872   9.131  0.3347 -1.8942 -1.3696
50656SOL     OW56524   8.452   7.937   9.764  0.9363  0.2226 -0.8733
50656SOL    HW156525   8.392   7.925   9.838  0.2166 -1.0262 -1.6279
50656SOL    HW256526   8.492   8.023   9.779  1.8109 -0.5358  1.6650
50657SOL     OW56527  10.997  10.595  10.371 -0.1451 -0.3376  0.4121
50657SOL    HW156528  10.906  10.624  10.371 -0.2828 -0.7271 -0.6748
50657SOL    HW256529  11.048  10.673  10.348 -0.2122 -0.1644  0.8420
50658SOL     OW56530   1.861   7.594   2.271  0.2735 -0.4603  0.1313
50658SOL    HW156531   1.858   7.539   2.349 -0.9716 -1.6623 -0.7122
50658SOL    HW256532   1.801   7.666   2.291  0.4987 -0.3834  0.5420
50659SOL     OW56533   1.506   9.753   1.867 -0.2366  0.1122  0.0265
50659SOL    HW156534   1.441   9.694   1.829  0.1301  0.9349 -2.0410
50659SOL    HW256535   1.455   9.818   1.915 -0.6422 -1.7555  2.3081
50660SOL     OW56536   1.051   2.242   4.657  0.5530  0.5094 -0.2353
50660SOL    HW156537   1.061   2.315   4.596 -2.0966 -1.0899 -2.8633
50660SOL    HW256538   1.139   2.207   4.667  1.3046  1.7228 -2.0498
50661SOL     OW56539  11.643   5.031   9.663 -0.4428 -0.7592 -0.7648
50661SOL    HW156540  11.665   4.950   9.618  0.2415 -1.5978  0.9747
50661SOL    HW256541  11.610   5.003   9.749 -0.4111  0.7851 -0.2050
50662SOL     OW56542   9.264   0.354   8.706 -0.5839 -0.4649 -0.1684
50662SOL    HW156543   9.241   0.325   8.618  0.0915  0.1791 -0.5734
50662SOL    HW256544   9.193   0.321   8.762 -0.8552 -1.1518 -0.8981
50663SOL     OW56545   5.268   7.094   4.412 -0.0046  0.6968  0.0384
50663SOL    HW156546   5.273   7.157   4.340 -2.7307 -1.6307 -2.4189
50663SOL    HW256547   5.183   7.110   4.452 -0.1452 -0.4963  0.2528
50664SOL     OW56548   0.551   8.226   1.798 -0.4719  0.0940  0.4247
50664SOL    HW156549   0.622   8.286   1.775  0.1123 -0.9961 -0.7766
50664SOL    HW256550   0.471   8.277   1.783  0.0250  0.8505  0.3018
50665SOL     OW56551   6.295   2.161  11.839 -0.2009  0.6652  0.3859
50665SOL    HW156552   6.318   2.211  11.761  1.0552 -0.5662 -0.0669
50665SOL    HW256553   6.260   2.078  11.806 -1.1937  0.7721  1.1316
50666SOL     OW56554  11.115   2.667   8.722  0.2021 -0.1300  0.1775
50666SOL    HW156555  11.034   2.702   8.683  0.1208 -1.0219 -0.4749
50666SOL    HW256556  11.157   2.619   8.650  1.3623  0.3921  0.4843
50667SOL     OW56557   1.459   8.669  10.789  0.1255  0.1623 -0.0432
50667SOL    HW156558   1.512   8.692  10.712  2.0345  2.6564  1.8373
50667SOL    HW256559   1.393   8.738  10.795 -0.5554 -0.4874  0.1174
50668SOL     OW56560   3.105   4.154  10.765  0.2722 -0.0230 -0.6239
50668SOL    HW156561   3.179   4.199  10.806  0.8644  0.3738 -2.0495
50668SOL    HW256562   3.042   4.142  10.835  1.6718 -0.3418  0.6376
50669SOL     OW56563   8.756   1.161  11.023 -0.6061  0.7198  0.0480
50669SOL    HW156564   8.676   1.114  11.000  0.5430 -0.8563 -1.0564
50669SOL    HW256565   8.820   1.132  10.957  1.2738  0.7089  1.7554
50670SOL     OW56566   2.329   7.209   5.929  0.4815  0.1234  0.4831
50670SOL    HW156567   2.389   7.234   5.858  1.8917  1.3017  2.0062
50670SOL    HW256568   2.359   7.122   5.955 -0.4192 -0.5694 -0.7145
50671SOL     OW56569  11.563   5.755   2.294  0.4461 -0.8718 -0.2438
50671SOL    HW156570  11.500   5.820   2.262  1.3414 -0.1748 -0.6580
50671SOL    HW256571  11.604   5.797   2.370  2.2398 -0.1939 -1.5134
50672SOL     OW56572   9.255   7.311   4.294  0.1648  0.3034 -0.6774
50672SOL    HW156573   9.262   7.279   4.384  2.1361  1.3981 -0.3869
50672SOL    HW256574   9.315   7.385   4.290 -1.6730  1.8322 -2.2471
50673SOL     OW56575   3.600   8.289   2.037 -0.0612 -0.0866  0.0906
50673SOL    HW156576   3.679   8.292   2.091 -1.1160  0.1067  1.6964
50673SOL    HW256577   3.571   8.198   2.042 -1.8656  0.5133  2.5390
50674SOL     OW56578   2.071   1.315   6.260  0.0234 -0.1662 -0.3430
50674SOL    HW156579   1.976   1.328   6.264  0.1767  0.6992  1.1740
50674SOL    HW256580   2.089   1.246   6.324  0.5531  0.6470  0.4079
50675SOL     OW56581  11.633   5.145  11.952 -0.2917 -0.0157 -0.2940
50675SOL    HW156582  11.629   5.220  11.894  0.2318 -0.0307 -0.3564
50675SOL    HW256583  11.579   5.078  11.910 -0.2785  0.1249 -0.5319
50676SOL     OW56584   9.358   2.787   3.527 -0.8077 -0.4950 -0.7605
50676SOL    HW156585   9.393   2.873   3.551 -0.8421 -0.0701 -2.1044
50676SOL    HW256586   9.307   2.804   3.447  1.0074 -2.0956 -2.3725
50677SOL     OW56587   0.502   7.511   2.855  0.4050  0.0138  0.1248
50677SOL    HW156588   0.534   7.579   2.796  1.0062  0.6449  1.1372
50677SOL    HW256589   0.428   7.472   2.809  1.3194 -0.0324 -1.3570
50678SOL     OW56590   3.585   4.969   8.142  0.0736 -0.3999 -0.2696
50678SOL    HW156591   3.637   5.027   8.198 -0.4302 -0.8128  0.6425
50678SOL    HW256592   3.622   4.981   8.055 -0.7705  2.2335 -0.3527
50679SOL     OW56593   3.415   1.154   8.445  0.4415 -0.0906 -0.1871
50679SOL    HW156594   3.485   1.171   8.507 -0.7824  0.6608  1.0214
50679SOL    HW256595   3.437   1.208   8.369  0.7110  0.8349  0.5314
50680SOL     OW56596  11.221   5.631   4.092  0.3244 -0.2284  0.6177
50680SOL    HW156597  11.251   5.697   4.153 -1.8741  3.0574 -1.4989
50680SOL    HW256598  11.292   5.622   4.028 -0.1184  1.8077 -0.2326
50681SOL     OW56599   7.270   8.614  10.463 -0.4111  0.1585  0.0820
50681SOL    HW156600   7.332   8.654  10.524 -0.3356  1.5034 -0.8567
50681SOL    HW256601   7.234   8.540  10.512  0.9786  0.1192  1.1007
50682SOL     OW56602   9.570  11.199   4.787  0.7750  0.1422  0.0769
50682SOL    HW156603   9.505  11.252   4.833 -0.1694  1.8800 -2.9689
50682SOL    HW256604   9.605  11.257   4.720  1.4533 -2.3981 -1.9422
50683SOL     OW56605   9.122   3.184   7.322 -0.2456 -0.3191 -0.0692
50683SOL    HW156606   9.047   3.197   7.380 -0.0579 -1.0934  0.3595
50683SOL    HW256607   9.104   3.241   7.247  0.5045  2.3979  1.6326
50684SOL     OW56608   7.926  11.824   9.795 -0.3139 -0.3111  0.4795
50684SOL    HW156609   8.002  11.835   9.853 -1.0449  2.1036  1.0863
50684SOL    HW256610   7.942  11.886   9.724 -0.6610 -1.4254 -0.6025
50685SOL     OW56611   4.455   9.991   3.742 -0.7523  0.0416 -0.2548
50685SOL    HW156612   4.537   9.946   3.762  0.6520  2.4926 -0.0098
50685SOL    HW256613   4.397   9.968   3.815  0.1815 -0.6696  0.2996
50686SOL     OW56614   1.724   7.769   6.835  0.3908 -0.3477  0.0721
50686SOL    HW156615   1.795   7.739   6.778 -0.0654  2.0115 -1.9313
50686SOL    HW256616   1.766   7.834   6.892  0.2654 -0.5600  0.4084
50687SOL     OW56617  11.029   3.790   6.325  0.2614  0.1168  0.5779
50687SOL    HW156618  10.966   3.723   6.297  0.7844 -0.1867  0.1085
50687SOL    HW256619  11.114   3.747   6.318  0.3923 -0.5102  4.0949
50688SOL     OW56620   8.369  10.317   4.061  0.5649 -0.4599 -0.2872
50688SOL    HW156621   8.310  10.379   4.019 -1.0637 -1.1481  0.8804
50688SOL    HW256622   8.380  10.247   3.997 -1.4338 -1.2306  0.1359
50689SOL     OW56623  10.327   3.634   4.290  0.4055 -0.6264 -0.7948
50689SOL    HW156624  10.358   3.717   4.326 -0.5163  0.3106 -2.0745
50689SOL    HW256625  10.278   3.658   4.212  0.3158 -2.4091 -1.3394
50690SOL     OW56626   7.671   2.868  11.268 -0.3418 -0.6999 -0.0318
50690SOL    HW156627   7.588   2.907  11.295  0.1778 -0.1574  0.8015
50690SOL    HW256628   7.645   2.790  11.219 -1.3486 -0.3806 -0.0334
50691SOL     OW56629   2.601   7.219   3.976 -0.3668  0.3590 -0.3913
50691SOL    HW156630   2.597   7.307   3.939 -1.6280  0.7000  0.4837
50691SOL    HW256631   2.642   7.230   4.061 -0.2127  0.0453 -0.4232
50692SOL     OW56632  10.302  11.674   1.253 -0.0013  0.2888  0.1615
50692SOL    HW156633  10.391  11.639   1.254  0.5351  1.5588  1.4271
50692SOL    HW256634  10.255  11.620   1.190  1.1508 -1.6735  0.8914
50693SOL     OW56635   6.731   8.363   9.184 -0.1999  0.2772 -0.0164
50693SOL    HW156636   6.682   8.284   9.161 -1.1181 -0.0488  2.6831
50693SOL    HW256637   6.669   8.435   9.172  0.5109  0.6154 -2.0749
50694SOL     OW56638   7.329   9.695   1.274  0.3768 -0.0315 -0.1215
50694SOL    HW156639   7.425   9.699   1.273  0.4518 -1.2910 -0.0353
50694SOL    HW256640   7.305   9.683   1.182  0.1795  1.9146 -0.3619
50695SOL     OW56641   8.042   1.619   2.027  0.2139  0.1506 -0.2714
50695SOL    HW156642   8.072   1.531   2.049 -0.3422  0.1309  0.4277
50695SOL    HW256643   8.121   1.674   2.035  0.3499 -0.1160  0.2930
50696SOL     OW56644   3.518   3.015   2.781  0.0689  0.0556 -0.0278
50696SOL    HW156645   3.517   2.923   2.805 -2.8436  0.0906  0.2555
50696SOL    HW256646   3.596   3.024   2.726  0.2647 -2.6046 -0.3178
50697SOL     OW56647  10.682   4.304   2.905 -0.3182 -0.1602 -0.3785
50697SOL    HW156648  10.724   4.309   2.990 -2.0561  1.8575  0.4594
50697SOL    HW256649  10.730   4.236   2.858  0.9029 -1.1060  2.0697
50698SOL     OW56650   6.335   0.807  10.133  0.3643 -0.0163  0.0458
50698SOL    HW156651   6.425   0.827  10.108  0.1795 -0.7586 -1.3637
50698SOL    HW256652   6.304   0.748  10.064 -1.6145  1.2052 -0.1900
50699SOL     OW56653   0.712   1.577   7.981  0.0032 -0.2872 -0.0172
50699SOL    HW156654   0.786   1.633   8.004  0.3566 -0.6214 -0.3207
50699SOL    HW256655   0.649   1.588   8.052  0.8535 -0.9147  0.8529
50700SOL     OW56656   1.939   2.539   4.094 -0.0762 -0.7467 -0.2482
50700SOL    HW156657   1.882   2.540   4.171 -1.0006  1.5827 -0.8749
50700SOL    HW256658   2.018   2.585   4.123  0.4173 -1.6570 -0.1313
50701SOL     OW56659   0.127   0.202   0.838  0.2272  0.4680 -0.5012
50701SOL    HW156660   0.054   0.230   0.892  0.0302 -0.5884 -0.1881
50701SOL    HW256661   0.129   0.264   0.765 -0.9159  0.5725 -0.4538
50702SOL     OW56662  11.889   6.284   0.269 -0.4165  0.2053 -0.0159
50702SOL    HW156663  11.982   6.289   0.246 -0.5207  0.9411 -0.3019
50702SOL    HW256664  11.888   6.268   0.363  0.0013  0.5380  0.0470
50703SOL     OW56665   3.178   3.882   3.389  0.2766 -0.3262 -0.3717
50703SOL    HW156666   3.106   3.848   3.337  1.5829 -0.0549 -2.4438
50703SOL    HW256667   3.214   3.805   3.433 -0.8708 -0.5481  0.2229
50704SOL     OW56668   8.901   7.041   6.956  0.9602  0.3337  0.1453
50704SOL    HW156669   8.879   7.109   7.020  1.9176 -0.1053  0.9654
50704SOL    HW256670   8.971   7.079   6.904  0.5343  0.4928 -0.3243
50705SOL     OW56671   2.454   7.873   9.206 -0.6037  0.3339  0.2815
50705SOL    HW156672   2.383   7.830   9.254 -0.8270  0.3738 -0.0058
50705SOL    HW256673   2.523   7.887   9.271 -0.8009  0.1571  0.5296
50706SOL     OW56674   0.762   6.457   4.828 -0.2392  0.1624 -0.1381
50706SOL    HW156675   0.828   6.464   4.758 -1.1057  1.2500 -0.8880
50706SOL    HW256676   0.812   6.470   4.909  0.7930 -1.2020 -0.5313
50707SOL     OW56677   9.909   8.263  11.705 -0.4803  0.0829 -0.0039
50707SOL    HW156678   9.955   8.307  11.777  2.1360 -0.1815 -1.3996
50707SOL    HW256679   9.866   8.335  11.658  1.2467  0.8431 -0.5153
50708SOL     OW56680   7.925   6.102   3.358  0.0289 -0.3934  0.5349
50708SOL    HW156681   7.874   6.101   3.277  1.1820 -1.0766 -0.2119
50708SOL    HW256682   7.904   6.186   3.398 -2.1102 -0.8837  0.5626
50709SOL     OW56683   1.626   8.203  11.617  0.2996  0.1336  0.7384
50709SOL    HW156684   1.575   8.123  11.626 -1.3465  0.8446 -1.5079
50709SOL    HW256685   1.691   8.183  11.550 -0.0540  0.6149  0.2398
50710SOL     OW56686   0.560   8.559   4.791  0.0968  0.2708  0.0404
50710SOL    HW156687   0.572   8.464   4.788 -0.1558  0.2202  0.4985
50710SOL    HW256688   0.524   8.581   4.705  0.5386  0.0088 -0.2140
50711SOL     OW56689   8.967   8.604   8.098 -0.2769 -0.4212 -0.1749
50711SOL    HW156690   9.055   8.612   8.136 -0.5101  0.2684  0.2513
50711SOL    HW256691   8.910   8.587   8.174 -0.5767 -0.3516 -0.3840
50712SOL     OW56692   1.638   8.133   6.380 -0.0470  0.1891  0.6948
50712SOL    HW156693   1.550   8.139   6.416  0.0302  2.3179  0.6503
50712SOL    HW256694   1.626   8.095   6.292 -0.8551  0.1159  0.8310
50713SOL     OW56695   2.827   2.658  10.597 -0.3115  0.1971  0.0276
50713SOL    HW156696   2.896   2.671  10.663  2.0263 -2.5678 -1.6090
50713SOL    HW256697   2.849   2.721  10.528  1.4466 -1.4072 -0.9923
50714SOL     OW56698   2.075   4.508   1.855 -0.1371 -0.5691 -0.0004
50714SOL    HW156699   2.168   4.486   1.844  0.1866  0.3566  0.7973
50714SOL    HW256700   2.070   4.602   1.841 -0.3681  0.0064  3.2590
50715SOL     OW56701   0.702   8.792   4.024 -0.3891  0.2486 -0.3704
50715SOL    HW156702   0.771   8.803   3.959  0.3732 -0.6478  0.2724
50715SOL    HW256703   0.728   8.848   4.097 -0.1574 -0.3538  0.0124
50716SOL     OW56704   4.672   2.349   4.058  0.1587 -0.5153 -0.6371
50716SOL    HW156705   4.681   2.418   3.992 -0.1835 -1.4393 -1.6895
50716SOL    HW256706   4.583   2.359   4.091  0.4433  0.1646 -0.0491
50717SOL     OW56707   3.420  10.358   1.193  0.3186  0.9116  0.1934
50717SOL    HW156708   3.359  10.413   1.143 -0.6124 -0.0181  0.2826
50717SOL    HW256709   3.423  10.399   1.279  1.4753  2.1809 -0.4105
50718SOL     OW56710   5.430   8.929   5.193  0.1641 -0.1061 -0.1989
50718SOL    HW156711   5.347   8.911   5.237 -0.1224  1.0145 -0.2534
50718SOL    HW256712   5.409   8.926   5.100 -0.2797  2.0248 -0.2252
50719SOL     OW56713  11.811   6.006   7.872  0.1838  0.6078  0.4391
50719SOL    HW156714  11.751   5.949   7.921  0.7391 -0.0244  0.4086
50719SOL    HW256715  11.754   6.069   7.828 -0.3393  1.0702  1.7408
50720SOL     OW56716   8.127  10.909   0.952  0.0865 -0.0387  0.0211
50720SOL    HW156717   8.145  11.002   0.959  0.4728 -0.2035  1.5678
50720SOL    HW256718   8.153  10.873   1.037 -1.9357 -1.2390  0.1887
50721SOL     OW56719   0.554   1.084  10.612  0.3424  0.2944  0.1501
50721SOL    HW156720   0.575   1.006  10.664  0.8191 -0.9549 -1.7927
50721SOL    HW256721   0.480   1.124  10.658 -2.6127 -3.5075 -0.7547
50722SOL     OW56722  11.736   2.567   7.772 -0.8394 -0.3422  0.2607
50722SOL    HW156723  11.656   2.619   7.781  0.4265  1.7972 -0.0106
50722SOL    HW256724  11.706   2.478   7.757 -3.1482  0.3096  0.6783
50723SOL     OW56725   0.917   1.558   7.432  0.4105 -0.3679 -0.1537
50723SOL    HW156726   0.899   1.626   7.496 -0.4803  0.6301 -1.3976
50723SOL    HW256727   0.906   1.476   7.480 -1.6421  0.3114  0.6511
50724SOL     OW56728   3.371   0.156   3.208 -0.0139 -0.2967 -0.9317
50724SOL    HW156729   3.315   0.228   3.237  0.4254 -0.2263 -0.2428
50724SOL    HW256730   3.440   0.152   3.273  0.0854 -1.2054 -1.0892
50725SOL     OW56731   7.343   5.534   1.335  0.4728  0.6243  0.2033
50725SOL    HW156732   7.436   5.545   1.313  0.8727  2.3132  2.4002
50725SOL    HW256733   7.330   5.439   1.335  1.3446  0.3607 -3.0705
50726SOL     OW56734   0.176   9.853   3.870  0.4361 -0.0212  0.2703
50726SOL    HW156735   0.232   9.851   3.948 -0.0165  0.6207  0.6275
50726SOL    HW256736   0.091   9.822   3.902  0.0775  0.8394  0.1926
50727SOL     OW56737  10.606   1.650  11.133  0.4094  0.4529 -0.6519
50727SOL    HW156738  10.586   1.739  11.164 -2.2449 -0.5372  0.8396
50727SOL    HW256739  10.534   1.629  11.074  1.1319 -0.6345 -1.1602
50728SOL     OW56740   7.740   9.229   4.112 -0.0995  0.0707  0.5043
50728SOL    HW156741   7.805   9.250   4.179  0.3217 -1.8228  0.7543
50728SOL    HW256742   7.736   9.133   4.111  0.9182 -0.1056 -3.0865
50729SOL     OW56743   1.202   0.977   6.784 -0.2225 -0.5421  0.2283
50729SOL    HW156744   1.140   0.906   6.800 -1.3839  0.5239  0.6413
50729SOL    HW256745   1.211   0.981   6.689 -0.9169 -0.6272  0.1533
50730SOL     OW56746   5.833   0.586   2.740  0.0576 -0.1850 -0.1922
50730SOL    HW156747   5.830   0.493   2.716 -0.5417 -0.4585  0.8699
50730SOL    HW256748   5.747   0.620   2.716 -0.7208 -0.5640  1.7900
50731SOL     OW56749  10.411   0.291   6.914 -0.7539  0.1032 -0.1165
50731SOL    HW156750  10.393   0.378   6.951 -1.0140 -0.5041  1.2589
50731SOL    HW256751  10.357   0.231   6.966 -0.8274 -0.8637 -1.2517
50732SOL     OW56752   9.121   1.871   6.679  0.2840  0.5572  0.1098
50732SOL    HW156753   9.176   1.947   6.701  0.5181 -0.1009  2.0120
50732SOL    HW256754   9.077   1.896   6.598  0.5560  2.6185  0.5393
50733SOL     OW56755  10.545   6.194   4.468  0.3005 -0.3026 -0.2986
50733SOL    HW156756  10.523   6.276   4.513  0.5237 -0.4750  0.1270
50733SOL    HW256757  10.597   6.221   4.393 -0.1255 -0.0077 -0.4951
50734SOL     OW56758   5.902  10.694   8.926 -0.0434  0.3153 -0.4567
50734SOL    HW156759   5.893  10.619   8.984 -1.1412  1.7997  1.3805
50734SOL    HW256760   5.986  10.679   8.881 -0.0460 -1.7789  0.1224
50735SOL     OW56761   5.716   2.476   8.365 -0.1907 -0.3063 -0.0081
50735SOL    HW156762   5.703   2.381   8.374 -1.5139 -0.1006  0.4563
50735SOL    HW256763   5.700   2.511   8.452  0.6246  0.3247 -0.1026
50736SOL     OW56764   9.146   9.684   1.240 -0.3387  0.0079 -0.3300
50736SOL    HW156765   9.095   9.734   1.175 -1.0290  2.2961  1.8066
50736SOL    HW256766   9.082   9.660   1.307  0.7346 -0.2478  0.6296
50737SOL     OW56767   8.540   0.318  11.410 -0.0788 -0.1293  0.0564
50737SOL    HW156768   8.480   0.362  11.349  1.5143 -1.2288 -2.4604
50737SOL    HW256769   8.626   0.328  11.370  0.9435 -1.6333  1.7488
50738SOL     OW56770   1.725   9.080   7.036  0.3685 -0.1476  0.1056
50738SOL    HW156771   1.730   9.175   7.031  0.9059 -0.1703  0.0859
50738SOL    HW256772   1.784   9.057   7.108 -0.3771 -0.4164  0.6410
50739SOL     OW56773   4.154   9.668   1.058 -0.1719  0.3040  0.1769
50739SOL    HW156774   4.097   9.651   1.133 -2.2981  1.1879 -1.1459
50739SOL    HW256775   4.178   9.760   1.066  0.6966  0.0682  0.4399
50740SOL     OW56776   3.998   9.843  10.530 -0.5871 -0.2802 -0.3827
50740SOL    HW156777   3.922   9.801  10.490 -0.5708 -0.9476  0.2619
50740SOL    HW256778   3.961   9.894  10.603 -0.4892 -0.0749 -0.4772
50741SOL     OW56779   6.031   0.229   7.566  0.6532  0.4235 -0.1564
50741SOL    HW156780   5.979   0.289   7.512 -0.8383 -0.9928 -0.3853
50741SOL    HW256781   6.007   0.251   7.656  0.3930  0.4039 -0.2206
50742SOL     OW56782   6.673   9.150   9.837  0.1948  0.1323  0.2315
50742SOL    HW156783   6.611   9.223   9.843  0.6608  0.4559  1.6458
50742SOL    HW256784   6.683   9.120   9.927 -2.4710 -3.8829 -0.5580
50743SOL     OW56785   6.877   7.813  11.533 -0.2526 -0.0220  0.0392
50743SOL    HW156786   6.828   7.745  11.486 -1.2889  0.5213  0.2892
50743SOL    HW256787   6.878   7.783  11.624 -0.2777  0.0482  0.0627
50744SOL     OW56788   7.953   1.075   0.851  0.1068  0.0068  0.1589
50744SOL    HW156789   7.922   1.163   0.872  1.8938  0.9462 -0.9214
50744SOL    HW256790   7.906   1.018   0.912 -0.3444  1.7961  1.5732
50745SOL     OW56791   4.384   9.751   9.573 -0.0126 -0.0196 -0.1904
50745SOL    HW156792   4.298   9.731   9.535 -0.3124 -1.0827  0.9709
50745SOL    HW256793   4.372   9.834   9.618  0.2237  1.0225 -1.9588
50746SOL     OW56794   3.633  10.659   6.069  0.1225  0.5570  0.8894
50746SOL    HW156795   3.702  10.718   6.099  0.8467 -0.1774  0.7231
50746SOL    HW256796   3.585  10.636   6.149 -1.0514  2.4202  0.7786
50747SOL     OW56797  10.994   2.945   4.514 -0.3230 -0.1324 -0.4401
50747SOL    HW156798  10.979   3.036   4.539 -0.5867  0.5453 -2.8512
50747SOL    HW256799  11.065   2.948   4.451  0.2612 -1.7364  0.0792
50748SOL     OW56800   9.352  10.142   8.336 -0.3258  0.4365  0.2686
50748SOL    HW156801   9.290  10.092   8.389 -1.5459  1.0195 -0.5817
50748SOL    HW256802   9.301  10.176   8.263  0.7652  1.8007  0.0882
50749SOL     OW56803  11.265   4.623   4.536 -0.1012 -0.9494 -0.1618
50749SOL    HW156804  11.180   4.632   4.580  0.5995 -0.6882  1.1951
50749SOL    HW256805  11.301   4.541   4.571  0.0734 -1.2147 -0.9585
50750SOL     OW56806  10.443   1.398   8.756  0.0315  0.2385  0.0312
50750SOL    HW156807  10.473   1.393   8.665 -1.8686 -3.7323 -0.6194
50750SOL    HW256808  10.347   1.399   8.750 -0.1576 -0.6736  1.9420
50751SOL     OW56809   5.126   5.056   5.833  0.2232  0.5947  0.8023
50751SOL    HW156810   5.187   5.032   5.764  0.7280  0.2553  1.3606
50751SOL    HW256811   5.152   5.003   5.908  1.1212  2.5435  1.9491
50752SOL     OW56812   9.094  10.076   6.844 -0.7539 -0.1232 -0.4926
50752SOL    HW156813   9.188  10.067   6.863 -0.5118  1.0256 -1.0850
50752SOL    HW256814   9.069  10.159   6.886 -1.3367 -0.0473 -0.9837
50753SOL     OW56815  11.261   5.721   9.178  1.0361  0.2231 -0.3753
50753SOL    HW156816  11.278   5.627   9.172  1.5856  0.3254 -0.4829
50753SOL    HW256817  11.202   5.740   9.106  0.4453 -0.1412 -0.0017
50754SOL     OW56818  11.044   7.048   5.445  0.0126 -0.2807 -0.3233
50754SOL    HW156819  11.080   7.002   5.520  0.3268 -0.2916 -0.4807
50754SOL    HW256820  11.076   7.000   5.369  0.0776  0.0065 -0.4796
50755SOL     OW56821   7.517   5.836   2.090 -0.0828  0.1885  0.4742
50755SOL    HW156822   7.577   5.900   2.129  3.4666 -1.6506 -1.3823
50755SOL    HW256823   7.510   5.767   2.156  1.5383 -0.4358  0.0667
50756SOL     OW56824   2.982  10.934   9.627 -0.2915  0.4045 -0.5372
50756SOL    HW156825   3.060  10.900   9.672 -0.8903  1.7984  1.7407
50756SOL    HW256826   3.005  11.024   9.605 -0.6076  0.2332 -1.6108
50757SOL     OW56827   7.045   6.491  11.523 -0.2870 -0.3981  0.6911
50757SOL    HW156828   7.066   6.451  11.608  0.6656 -0.1194  0.5928
50757SOL    HW256829   7.050   6.585  11.538  0.0935 -0.3503  0.2694
50758SOL     OW56830  10.650   5.005   7.514  0.3674 -0.1649 -0.7108
50758SOL    HW156831  10.580   5.043   7.460  0.4674 -1.4679 -1.7846
50758SOL    HW256832  10.622   4.915   7.530  0.5934  0.0235  1.0180
50759SOL     OW56833   2.216   6.847   6.280  0.1401  1.0132 -0.5697
50759SOL    HW156834   2.211   6.764   6.326  1.9982  1.6521  0.9031
50759SOL    HW256835   2.142   6.897   6.312 -0.1013  0.4820 -0.2873
50760SOL     OW56836   4.900   8.571  10.684  0.8674  0.3298 -0.2645
50760SOL    HW156837   4.931   8.648  10.731 -0.2734  0.6184  0.0427
50760SOL    HW256838   4.817   8.597  10.646 -0.1636 -1.1005  0.8769
50761SOL     OW56839   5.548   1.515   5.780  0.3860  0.1458 -0.1784
50761SOL    HW156840   5.555   1.420   5.776 -0.4573  0.1083 -1.6241
50761SOL    HW256841   5.639   1.545   5.792  0.5765 -0.8370  1.0235
50762SOL     OW56842   7.395  11.377   0.613 -0.0184  0.2012 -0.1518
50762SOL    HW156843   7.332  11.403   0.547 -0.9616  3.5531  1.8208
50762SOL    HW256844   7.342  11.336   0.682  0.4831 -0.2224 -0.0108
50763SOL     OW56845   0.017   9.146   1.754  0.0475  0.8897  0.2860
50763SOL    HW156846   0.041   9.236   1.734 -1.0110  1.6539  2.2242
50763SOL    HW256847  -0.051   9.153   1.821 -1.4686 -1.3183 -0.8934
50764SOL     OW56848   2.343   4.464   2.941  0.1710 -0.6916 -0.2586
50764SOL    HW156849   2.417   4.507   2.983 -0.1484  2.0763 -2.2723
50764SOL    HW256850   2.379   4.423   2.862  0.0657 -2.2358  0.4574
50765SOL     OW56851   1.775   2.947   3.938 -0.0796  0.4053  0.3592
50765SOL    HW156852   1.724   2.866   3.935 -1.0089  0.9443  0.9258
50765SOL    HW256853   1.729   3.002   4.002  0.7065  1.2618  0.2181
50766SOL     OW56854   1.056   1.290   1.756  0.0493  0.3322 -0.0125
50766SOL    HW156855   1.068   1.332   1.671 -0.1588 -0.3072 -0.3609
50766SOL    HW256856   1.003   1.212   1.737  1.6560 -0.9061  0.3957
50767SOL     OW56857   5.365  11.827   1.757 -0.4634  0.0173 -0.1455
50767SOL    HW156858   5.281  11.871   1.756 -0.9418 -0.8669 -0.5848
50767SOL    HW256859   5.353  11.751   1.814  0.0331 -0.1122 -0.2002
50768SOL     OW56860   1.216   6.560   6.296 -0.3037  0.0716  0.4309
50768SOL    HW156861   1.264   6.495   6.348 -0.1957 -0.0147  0.2258
50768SOL    HW256862   1.264   6.564   6.213 -1.3157 -0.8764 -0.2316
50769SOL     OW56863   5.626   5.382   8.436  0.1550 -0.2984  0.3176
50769SOL    HW156864   5.553   5.429   8.475 -1.2954 -1.0367 -1.3680
50769SOL    HW256865   5.681   5.450   8.397 -0.7380  0.1573 -0.1752
50770SOL     OW56866   5.331   7.588   9.644 -0.3102 -0.1398  0.0073
50770SOL    HW156867   5.393   7.524   9.677 -0.6530 -0.2386  0.4708
50770SOL    HW256868   5.273   7.538   9.587 -0.2946 -0.1531  0.0031
50771SOL     OW56869   9.944   3.807  11.784  0.2012  0.4049 -0.0043
50771SOL    HW156870   9.937   3.749  11.860  1.9038 -0.4546 -0.4522
50771SOL    HW256871   9.862   3.856  11.784 -0.1601 -0.1045  1.9409
50772SOL     OW56872  10.558   8.547   4.110  0.5220 -0.1718  0.2944
50772SOL    HW156873  10.520   8.581   4.029 -1.0873  0.2463  1.1704
50772SOL    HW256874  10.652   8.541   4.093  0.2823  0.4674 -1.3855
50773SOL     OW56875   2.889   6.225   9.424 -0.6671  0.2074 -0.4582
50773SOL    HW156876   2.815   6.281   9.401 -0.9652  0.6145  1.3616
50773SOL    HW256877   2.868   6.191   9.511  0.9734 -0.2060 -0.1878
50774SOL     OW56878  10.005  10.050   5.773 -0.2529  0.2839 -0.4366
50774SOL    HW156879  10.018   9.955   5.776  0.0280  0.3143 -0.7156
50774SOL    HW256880  10.070  10.086   5.833 -1.0414  0.2348  0.4694
50775SOL     OW56881   1.597   4.889   6.140  0.2822  0.0534  0.1036
50775SOL    HW156882   1.569   4.953   6.075  0.5857  2.2462  2.0211
50775SOL    HW256883   1.519   4.872   6.193 -0.0892 -2.0809 -1.0074
50776SOL     OW56884  11.147   3.328   8.868 -0.1329  0.6689  0.3473
50776SOL    HW156885  11.076   3.305   8.928  0.8267  0.1104  1.3078
50776SOL    HW256886  11.214   3.262   8.884  0.8256  1.4912 -0.1354
50777SOL     OW56887  10.715   5.976   7.407  0.1527  0.5221 -0.4814
50777SOL    HW156888  10.650   6.009   7.469 -0.1066  2.3050 -1.6223
50777SOL    HW256889  10.783   6.043   7.406  1.8310 -1.1068  0.3589
50778SOL     OW56890   9.103  12.053   5.416  0.4123  0.5029 -0.1896
50778SOL    HW156891   9.011  12.073   5.400 -0.3611 -1.1066  1.8362
50778SOL    HW256892   9.129  12.113   5.486  0.2190 -0.5055  0.7765
50779SOL     OW56893   1.101   0.577   8.466  0.7864 -0.1600  0.1614
50779SOL    HW156894   1.007   0.561   8.460  0.0155  2.9859  1.5251
50779SOL    HW256895   1.111   0.670   8.444  3.3825 -0.0700  1.2961
50780SOL     OW56896  12.039   3.686   6.129 -0.6407 -0.1987 -0.0315
50780SOL    HW156897  11.947   3.666   6.114 -0.7321  0.3280 -0.1802
50780SOL    HW256898  12.079   3.601   6.151 -1.2817 -0.3190  0.6712
50781SOL     OW56899   7.759   6.636   8.559 -0.5397  0.2175 -0.2422
50781SOL    HW156900   7.707   6.716   8.546 -1.4481 -0.4217 -0.6491
50781SOL    HW256901   7.785   6.639   8.651 -0.9264  0.7675 -0.1451
50782SOL     OW56902   7.568   0.742   6.318  0.1931 -0.2957  0.1278
50782SOL    HW156903   7.640   0.805   6.325  0.7508 -0.9582  0.4984
50782SOL    HW256904   7.547   0.720   6.409 -0.6837  0.1101  0.0357
50783SOL     OW56905   3.608   4.021   8.972  0.3541  0.2478  0.0549
50783SOL    HW156906   3.621   4.107   9.013 -0.0435 -0.3945  1.6021
50783SOL    HW256907   3.627   3.958   9.042  0.0865 -0.9126 -0.8891
50784SOL     OW56908   3.300   3.714  10.974  0.0027 -0.5123 -0.0448
50784SOL    HW156909   3.250   3.636  11.000  0.7671 -0.5110  1.5563
50784SOL    HW256910   3.340   3.690  10.890 -1.2067 -1.1724 -0.4573
50785SOL     OW56911   0.311   8.216   5.120  0.4109  0.6875 -0.2962
50785SOL    HW156912   0.283   8.125   5.133  0.2620  0.8360  0.4256
50785SOL    HW256913   0.325   8.250   5.208  1.7190  0.9750 -0.5911
50786SOL     OW56914  10.167   3.945  11.513 -0.2279  0.0332 -0.3114
50786SOL    HW156915  10.187   3.947  11.419 -0.4447 -0.1119 -0.3620
50786SOL    HW256916  10.072   3.946  11.517 -0.2182  0.3075 -0.0838
50787SOL     OW56917   2.158   6.373   7.496 -0.2462 -0.5279 -0.2103
50787SOL    HW156918   2.063   6.371   7.509 -0.1788  0.0427  0.4278
50787SOL    HW256919   2.178   6.464   7.476  0.2907 -0.4074  0.7726
50788SOL     OW56920  10.793   1.242   2.116 -0.2442  0.4468  0.4935
50788SOL    HW156921  10.874   1.271   2.073 -0.2393 -0.5617 -0.2282
50788SOL    HW256922  10.741   1.204   2.046 -0.2091 -1.3123  1.3694
50789SOL     OW56923   4.480   7.735   9.749  0.0876 -0.2531  0.0903
50789SOL    HW156924   4.459   7.779   9.667  0.9758  1.9075  0.9439
50789SOL    HW256925   4.575   7.728   9.749  0.3379  1.7771  1.7823
50790SOL     OW56926   7.068   6.865   3.404  0.2695 -0.3547  0.4718
50790SOL    HW156927   7.027   6.952   3.414  0.1432 -0.5534  1.7706
50790SOL    HW256928   7.122   6.874   3.325  2.0605  1.6227  1.8212
50791SOL     OW56929  10.227   5.338   5.744 -0.6372  0.1086  0.5002
50791SOL    HW156930  10.246   5.320   5.836  0.2767  2.0472  0.7383
50791SOL    HW256931  10.211   5.433   5.741 -1.8816 -0.1090 -1.1503
50792SOL     OW56932   7.618  11.094   8.642 -0.4453 -0.3653  0.0843
50792SOL    HW156933   7.673  11.169   8.620 -0.8528 -0.5852 -1.8895
50792SOL    HW256934   7.588  11.112   8.731 -0.4646  1.7837 -0.2991
50793SOL     OW56935   8.617   3.618   7.530  0.1099 -0.1706  0.3363
50793SOL    HW156936   8.639   3.703   7.491  1.5766 -0.2665  0.8643
50793SOL    HW256937   8.638   3.629   7.623  0.6138 -1.1806  0.3598
50794SOL     OW56938   5.541   4.874   3.118  0.2759  0.4737 -0.3523
50794SOL    HW156939   5.511   4.923   3.041  4.4859  1.7789 -1.4616
50794SOL    HW256940   5.547   4.940   3.187 -0.1620  0.0802  0.0605
50795SOL     OW56941   3.164   2.089   9.844 -0.2345  0.4831 -0.0559
50795SOL    HW156942   3.236   2.050   9.794  0.5951  0.9183  0.7862
50795SOL    HW256943   3.088   2.081   9.785  0.2736 -0.8440 -0.5782
50796SOL     OW56944   8.737   2.626   9.210 -0.4617  0.0559 -0.0873
50796SOL    HW156945   8.817   2.631   9.263  0.0252  1.6067 -0.9013
50796SOL    HW256946   8.679   2.692   9.247  0.2386  1.8349 -1.9413
50797SOL     OW56947   8.263   4.205   4.457 -0.2052 -0.2889  0.1179
50797SOL    HW156948   8.196   4.150   4.499 -0.0035  0.0373  0.8882
50797SOL    HW256949   8.251   4.190   4.363 -1.5500 -0.0187  0.2217
50798SOL     OW56950   1.311   4.386   2.826  0.2837  0.1501 -0.7272
50798SOL    HW156951   1.276   4.405   2.739 -1.6030  0.5691  0.0749
50798SOL    HW256952   1.370   4.460   2.845 -0.2665  0.7056 -1.1535
50799SOL     OW56953   0.068   0.428   3.264 -0.1656 -0.9139 -0.0168
50799SOL    HW156954   0.030   0.514   3.277  0.8348 -0.4098 -0.2670
50799SOL    HW256955   0.156   0.446   3.231 -0.3032 -2.0379 -1.0727
50800SOL     OW56956   2.546   9.493   1.179 -0.0646 -0.0362  0.3824
50800SOL    HW156957   2.543   9.537   1.263  2.1087  0.2326  0.3558
50800SOL    HW256958   2.485   9.419   1.188 -0.3872  0.3913  1.9219
50801SOL     OW56959   5.146   8.997   8.078  0.0617  0.4534 -0.1110
50801SOL    HW156960   5.162   9.090   8.065  1.0917  0.2434 -0.4090
50801SOL    HW256961   5.228   8.963   8.115 -0.4547 -0.2500  0.4141
50802SOL     OW56962   6.380   4.776   1.091 -0.1877 -0.1263  0.3544
50802SOL    HW156963   6.408   4.703   1.034 -0.6441  0.6829 -0.9556
50802SOL    HW256964   6.301   4.810   1.049  0.6618  1.8687  0.2754
50803SOL     OW56965   6.741   1.691   0.629 -0.1848 -0.3955 -0.7637
50803SOL    HW156966   6.750   1.609   0.678  0.7861  0.4394  0.4977
50803SOL    HW256967   6.789   1.676   0.547 -0.7307 -1.3611 -0.9198
50804SOL     OW56968  10.578   0.346   5.717 -0.3051 -0.2178  0.7572
50804SOL    HW156969  10.652   0.394   5.756  0.2133 -0.8120  0.5335
50804SOL    HW256970  10.501   0.384   5.759  0.1137  0.5142  0.8975
50805SOL     OW56971   2.492   9.260   9.361  0.5045 -0.0548  0.7980
50805SOL    HW156972   2.482   9.262   9.456 -1.1302  1.9346  0.6554
50805SOL    HW256973   2.580   9.293   9.346  1.2090 -1.4548  1.6189
50806SOL     OW56974   4.357   5.823   8.445  0.1449  0.2837  0.4409
50806SOL    HW156975   4.408   5.827   8.365  0.6666 -1.9688  0.5802
50806SOL    HW256976   4.294   5.752   8.430  0.8640 -0.8363  2.3018
50807SOL     OW56977   0.694   6.975  11.837 -0.1515  0.3280 -0.1266
50807SOL    HW156978   0.602   6.954  11.849 -0.0124  0.2376  0.8745
50807SOL    HW256979   0.720   6.927  11.758 -0.7975 -0.1744 -0.0400
50808SOL     OW56980   1.703  11.679   1.885 -0.2275 -1.0738  0.2263
50808SOL    HW156981   1.670  11.698   1.797 -2.6196  1.6785  1.5280
50808SOL    HW256982   1.660  11.598   1.910  0.9366 -2.2220 -1.2605
50809SOL     OW56983  10.572   1.291   0.285 -0.3022  0.4229  0.1705
50809SOL    HW156984  10.523   1.287   0.368  0.8226  0.9579  0.8911
50809SOL    HW256985  10.520   1.349   0.230 -1.8617 -1.1298 -0.0789
50810SOL     OW56986   7.862  10.919   1.297  0.0419  0.0708  0.0363
50810SOL    HW156987   7.868  11.011   1.272 -0.6779  1.4218  4.0430
50810SOL    HW256988   7.768  10.899   1.292  0.2467 -0.6013 -1.2386
50811SOL     OW56989   1.407   3.350   6.730 -0.3625  0.4216  0.3747
50811SOL    HW156990   1.433   3.378   6.817 -0.9881  2.0176  0.0952
50811SOL    HW256991   1.320   3.313   6.741 -0.5535  0.8679  0.4131
50812SOL     OW56992   7.169   9.281   3.947  0.1124  0.4611  0.3094
50812SOL    HW156993   7.139   9.314   3.863 -0.7061 -0.9551  0.0221
50812SOL    HW256994   7.255   9.244   3.929  0.7227  1.7464  0.4881
50813SOL     OW56995   2.043   6.544   6.183  0.0001 -0.1561 -0.0971
50813SOL    HW156996   1.983   6.522   6.112 -0.1788 -0.2458  0.0792
50813SOL    HW256997   2.054   6.462   6.230 -0.7147  0.1313  0.6014
50814SOL     OW56998   2.111  11.281   7.731 -0.0789  0.6377  0.0575
50814SOL    HW156999   2.139  11.260   7.642 -1.8779 -1.1867 -0.1540
50814SOL    HW257000   2.122  11.375   7.739  0.4560  0.7759 -1.9723
50815SOL     OW57001   4.151   2.962  11.668  0.4153  0.8979 -0.0273
50815SOL    HW157002   4.111   2.926  11.588 -1.3954  0.8110  0.8560
50815SOL    HW257003   4.093   2.933  11.738  2.0318  0.8756  1.3572
50816SOL     OW57004   3.757  11.496  11.057 -0.5577 -0.1985  0.0657
50816SOL    HW157005   3.773  11.579  11.102 -0.7735  0.1691 -0.5267
50816SOL    HW257006   3.843  11.454  11.053 -0.4794 -0.0860  0.5298
50817SOL     OW57007   7.914   8.017   1.611 -0.0612  0.0835  0.6260
50817SOL    HW157008   7.840   8.034   1.669 -0.5302  1.6123 -0.3414
50817SOL    HW257009   7.972   8.092   1.625  0.6283 -0.3937  0.3576
50818SOL     OW57010   5.400   9.683   1.012  0.4292  0.5723  0.5311
50818SOL    HW157011   5.455   9.744   1.062  1.1666  0.3615 -0.0043
50818SOL    HW257012   5.316   9.728   1.003  1.5753  2.4991 -1.6517
50819SOL     OW57013   7.758   0.284   9.492  0.5911 -0.4190  0.1797
50819SOL    HW157014   7.723   0.201   9.461 -0.1511  0.9840 -3.2509
50819SOL    HW257015   7.704   0.306   9.568 -0.9810 -1.8245 -0.4567
50820SOL     OW57016  10.354   2.512   4.009  0.2126  0.1373  0.1902
50820SOL    HW157017  10.307   2.575   4.064 -0.7645 -0.5755  0.1812
50820SOL    HW257018  10.287   2.450   3.981  0.6221  0.6278 -2.0401
50821SOL     OW57019   0.747  11.332   6.220  0.2954  0.2884 -0.0115
50821SOL    HW157020   0.715  11.341   6.310  0.3044 -1.0948  0.1473
50821SOL    HW257021   0.760  11.422   6.190 -0.6329  0.7931  1.0389
50822SOL     OW57022   0.172   8.262   4.602 -0.0951  0.4292  0.7451
50822SOL    HW157023   0.252   8.306   4.574 -0.5884  0.5835 -0.5051
50822SOL    HW257024   0.160   8.192   4.538 -0.2251 -0.4608  1.7357
50823SOL     OW57025   8.090  10.458   7.919 -0.1474 -0.0655  0.0498
50823SOL    HW157026   8.060  10.371   7.893  0.4007 -0.4891  0.8009
50823SOL    HW257027   8.116  10.448   8.011  3.8153 -0.1713 -0.9054
50824SOL     OW57028   8.929  10.255   0.134  0.5235 -0.8746 -0.4867
50824SOL    HW157029   8.987  10.246   0.210 -0.6707  2.0487  0.9079
50824SOL    HW257030   8.980  10.305   0.071  0.8083 -1.5771 -0.8238
50825SOL     OW57031   6.809   0.864  10.238  0.5812  0.3074 -0.1499
50825SOL    HW157032   6.864   0.787  10.222 -1.0968 -1.1345  0.7706
50825SOL    HW257033   6.749   0.866  10.163  1.0744  1.1780 -0.5387
50826SOL     OW57034  11.821   2.130  11.437  0.0358  0.2450  0.2142
50826SOL    HW157035  11.871   2.093  11.364  4.4024  1.2296  2.3468
50826SOL    HW257036  11.829   2.225  11.425 -0.7971  0.4154  0.9784
50827SOL     OW57037   3.788  12.006   7.592  0.5148  0.2819 -0.2332
50827SOL    HW157038   3.856  12.064   7.625  1.8283 -1.5212  0.4076
50827SOL    HW257039   3.718  12.064   7.562  0.8273  2.1545  2.3362
50828SOL     OW57040   8.975   3.954   2.543 -0.3270 -0.1022  0.0434
50828SOL    HW157041   9.054   4.001   2.518 -0.5174  0.3219  0.2092
50828SOL    HW257042   8.948   3.907   2.465 -0.5614  0.6912 -0.3685
50829SOL     OW57043   1.809   4.452   8.232  0.2746  0.1172 -0.5732
50829SOL    HW157044   1.725   4.494   8.216 -0.0888 -0.4600 -0.2239
50829SOL    HW257045   1.810   4.437   8.327  0.1029 -1.2374 -0.7566
50830SOL     OW57046   1.411   3.521   8.370  0.4098  0.3523  0.5374
50830SOL    HW157047   1.415   3.603   8.421 -0.5520  0.3402  0.6612
50830SOL    HW257048   1.366   3.460   8.428 -1.9790  0.7289 -0.7843
50831SOL     OW57049   9.264   7.518   7.696  0.1562 -0.1196  0.6324
50831SOL    HW157050   9.230   7.448   7.752  1.0242 -1.7591 -0.7650
50831SOL    HW257051   9.277   7.476   7.611  0.8234  1.7365 -0.2389
50832SOL     OW57052  10.727   8.369   3.098 -0.0473  0.6883 -0.2485
50832SOL    HW157053  10.682   8.453   3.113  0.1246  0.4001  2.5137
50832SOL    HW257054  10.656   8.308   3.080 -0.2448  1.2467 -1.4586
50833SOL     OW57055   2.115   1.292   3.077  0.2387 -0.2837 -0.0560
50833SOL    HW157056   2.089   1.223   3.138  1.5534 -0.3804  0.4260
50833SOL    HW257057   2.174   1.249   3.015 -1.0744 -0.1842 -1.4411
50834SOL     OW57058   9.051   2.054  10.897  0.2212  0.2666 -0.0419
50834SOL    HW157059   9.145   2.067  10.911  0.3528 -0.5618 -0.0621
50834SOL    HW257060   9.008   2.117  10.954  0.7880  0.2180  0.4446
50835SOL     OW57061   2.758   5.159   3.650  0.7188  0.0935 -0.1115
50835SOL    HW157062   2.846   5.121   3.644  1.1686  1.0062  0.4658
50835SOL    HW257063   2.749   5.184   3.742  0.4779  1.4564 -0.4788
50836SOL     OW57064   7.320   2.394   7.504  0.3076  0.1706  0.4654
50836SOL    HW157065   7.355   2.375   7.591  2.2519  0.5259 -0.1967
50836SOL    HW257066   7.367   2.335   7.446  1.1163  1.8687 -0.6871
50837SOL     OW57067   9.103   4.972  12.056 -0.2811  0.1489 -0.6965
50837SOL    HW157068   9.023   4.998  12.010 -1.3593  0.9556  1.4660
50837SOL    HW257069   9.129   5.050  12.105  0.9354 -0.5687 -0.1573
50838SOL     OW57070   9.545  11.974   2.360  0.1306  0.0814 -0.1431
50838SOL    HW157071   9.577  12.004   2.275  0.2051 -0.3110 -0.2539
50838SOL    HW257072   9.528  12.055   2.409 -0.5908  0.3213 -0.7743
50839SOL     OW57073   7.357   4.714   2.948  0.7386 -0.3243  0.4714
50839SOL    HW157074   7.291   4.701   2.880  1.3483  0.1070 -0.2261
50839SOL    HW257075   7.352   4.636   3.002 -0.7812 -0.0151  0.8270
50840SOL     OW57076   2.263   0.002   1.629 -0.0959  0.8333 -0.6780
50840SOL    HW157077   2.200  -0.063   1.657  0.1484  1.1754  0.7156
50840SOL    HW257078   2.238   0.082   1.675  1.7321  0.8069  0.4351
50841SOL     OW57079   7.681  11.692   9.610  0.1641  0.0302  0.1057
50841SOL    HW157080   7.751  11.733   9.660 -0.2343  2.6766 -1.3309
50841SOL    HW257081   7.716  11.683   9.522 -0.8057  0.0903 -0.3049
50842SOL     OW57082   5.690   5.854   7.810  0.2818 -0.5256 -0.0500
50842SOL    HW157083   5.719   5.817   7.894  1.1550  0.8607  0.2893
50842SOL    HW257084   5.660   5.942   7.832  0.7804 -0.0394 -1.2448
50843SOL     OW57085   7.884   6.487   7.087 -0.2259 -0.3101 -0.3866
50843SOL    HW157086   7.845   6.400   7.079 -0.4606 -0.3586  1.0674
50843SOL    HW257087   7.811   6.543   7.116  0.1666  0.1558 -0.2869
50844SOL     OW57088   8.819   5.577   4.673  0.2900  0.1215  0.9315
50844SOL    HW157089   8.757   5.636   4.629  1.4500  2.8058  2.5966
50844SOL    HW257090   8.817   5.605   4.765  0.9429 -2.5160  1.8314
50845SOL     OW57091   9.583   7.507   4.954  0.4718 -0.1195 -0.2990
50845SOL    HW157092   9.494   7.476   4.934 -0.1305 -0.1962  2.2314
50845SOL    HW257093   9.611   7.453   5.028  2.9081 -0.4984 -1.3968
50846SOL     OW57094   1.138   9.226   6.134 -0.0813  0.1501 -0.6869
50846SOL    HW157095   1.215   9.277   6.107  0.5932 -1.3426 -1.7150
50846SOL    HW257096   1.068   9.256   6.076  0.1322  0.3613 -0.8421
50847SOL     OW57097   7.876   5.987   6.560  0.3706  0.4728 -0.0002
50847SOL    HW157098   7.964   5.950   6.562  0.5663  0.9330 -0.0140
50847SOL    HW257099   7.834   5.945   6.485  0.6250  0.3598 -0.0796
50848SOL     OW57100   2.916   1.184   2.385  0.0470 -0.3865 -0.2942
50848SOL    HW157101   2.918   1.092   2.412  0.5184  0.1782  1.7451
50848SOL    HW257102   3.007   1.213   2.391 -0.2839  0.5548  0.3742
50849SOL     OW57103   8.850   4.569   7.249  0.1166  0.3834  0.7858
50849SOL    HW157104   8.909   4.502   7.215  1.8888  2.1958  0.1292
50849SOL    HW257105   8.880   4.651   7.209 -0.9255  1.8506  2.8055
50850SOL     OW57106   1.132   0.601   6.758  0.3911 -0.1456  0.3242
50850SOL    HW157107   1.094   0.515   6.738  0.5359 -0.0007 -0.6115
50850SOL    HW257108   1.135   0.646   6.674  2.0029  0.1005  0.4747
50851SOL     OW57109  11.001   2.735   3.662  0.0440 -0.1646  0.4674
50851SOL    HW157110  11.095   2.752   3.658 -0.3443  2.0383 -1.7947
50851SOL    HW257111  10.993   2.641   3.644  1.8112 -0.5074  1.3040
50852SOL     OW57112   1.505   9.299   3.286 -0.1560 -0.2249 -0.2138
50852SOL    HW157113   1.600   9.305   3.283 -0.0493 -1.1852  0.6895
50852SOL    HW257114   1.486   9.205   3.280 -0.9426 -0.1961  1.3031
50853SOL     OW57115   7.956  11.540  10.163 -0.1415 -0.3341  0.0490
50853SOL    HW157116   7.928  11.575  10.079  1.1364 -1.1691 -0.7564
50853SOL    HW257117   7.985  11.616  10.213 -1.0809  0.1859 -0.1769
50854SOL     OW57118   3.479   5.205   4.291  0.2071  0.2672 -0.4556
50854SOL    HW157119   3.400   5.255   4.312  0.0981 -0.4091  0.8461
50854SOL    HW257120   3.524   5.196   4.375  1.9597  1.0987 -1.2563
50855SOL     OW57121   1.350   4.589   3.964  0.3660 -0.9585 -0.9808
50855SOL    HW157122   1.258   4.566   3.953  0.1387 -1.5244  1.5368
50855SOL    HW257123   1.391   4.511   4.002  1.3296  0.0758  0.2088
50856SOL     OW57124   0.909  12.099  10.491  0.4852  0.2542  0.0358
50856SOL    HW157125   0.827  12.148  10.496  0.7413  0.7093 -0.1764
50856SOL    HW257126   0.901  12.046  10.412 -1.2595 -2.7558  2.0142
50857SOL     OW57127   0.054   7.119   0.272 -0.4190 -0.0794 -0.0972
50857SOL    HW157128   0.099   7.179   0.213 -0.9075  1.0146  0.5929
50857SOL    HW257129   0.122   7.087   0.331 -0.0398 -0.7136 -0.8760
50858SOL     OW57130   3.183   7.401   8.809  0.0571 -0.0273  0.0130
50858SOL    HW157131   3.278   7.408   8.806  0.1099 -0.4810  0.5055
50858SOL    HW257132   3.152   7.475   8.756  0.6705  0.4839  0.3497
50859SOL     OW57133   3.706   8.904   8.040 -0.3403  0.9081  0.2680
50859SOL    HW157134   3.749   8.989   8.033 -0.9187  1.1572 -0.3713
50859SOL    HW257135   3.765   8.844   7.995 -1.2679  1.4960 -1.8759
50860SOL     OW57136   9.138   8.425   2.831 -0.0697 -0.3135  0.0536
50860SOL    HW157137   9.048   8.450   2.852  0.2329  1.5581 -0.6285
50860SOL    HW257138   9.178   8.407   2.915 -0.8341 -0.2462  0.4418
50861SOL     OW57139   0.878   9.874   0.670 -0.1159 -0.0167 -0.0111
50861SOL    HW157140   0.865   9.968   0.660  0.4516  0.0829  0.1365
50861SOL    HW257141   0.790   9.838   0.673 -0.3361  0.4406 -0.7022
50862SOL     OW57142   5.969   0.858   6.907 -0.5741  0.4462 -0.0165
50862SOL    HW157143   5.895   0.801   6.885 -0.7212  0.5587  0.1924
50862SOL    HW257144   5.930   0.944   6.919 -0.2359  0.7877 -1.2349
50863SOL     OW57145   8.247   6.801  10.047 -0.3926 -0.3034 -0.2739
50863SOL    HW157146   8.211   6.730   9.994 -0.1983  0.8101 -1.9624
50863SOL    HW257147   8.342   6.793  10.039 -0.3106 -0.9347  1.0517
50864SOL     OW57148   1.747   8.243   8.733 -0.6116  0.1958 -0.1135
50864SOL    HW157149   1.742   8.158   8.690  3.2029  0.4728 -1.4794
50864SOL    HW257150   1.758   8.221   8.826 -3.4544 -0.5725  0.1303
50865SOL     OW57151   0.109   4.420   9.733 -0.0244 -0.4080  0.3411
50865SOL    HW157152   0.172   4.420   9.806 -0.3349  2.0154  0.7122
50865SOL    HW257153   0.153   4.471   9.665 -0.6682 -0.7024 -0.3007
50866SOL     OW57154   7.030   8.512   7.933 -0.2091  0.3412 -0.0784
50866SOL    HW157155   7.075   8.428   7.931 -1.3317 -0.3048  0.8108
50866SOL    HW257156   6.948   8.495   7.980 -0.7473  1.7892 -0.4245
50867SOL     OW57157  10.408   0.609   9.265 -0.0856 -0.4270  0.4061
50867SOL    HW157158  10.366   0.569   9.342 -0.0577 -0.6509  0.3048
50867SOL    HW257159  10.352   0.683   9.243 -0.1837 -0.4610  0.5407
50868SOL     OW57160   7.023   7.255   2.036  1.2383 -0.0838 -0.5578
50868SOL    HW157161   7.041   7.161   2.038 -1.8229 -0.7461  0.4564
50868SOL    HW257162   6.984   7.274   2.121  1.9478  2.1898 -0.6743
50869SOL     OW57163  11.438   0.192  10.867  0.3407 -0.6036  0.1653
50869SOL    HW157164  11.369   0.212  10.930  0.3268 -0.9385  0.2560
50869SOL    HW257165  11.391   0.161  10.789  0.2526  1.4781 -0.6680
50870SOL     OW57166  11.448   9.494  10.905  0.4352  0.2225  0.5210
50870SOL    HW157167  11.464   9.417  10.959 -0.0123 -0.5183 -0.3741
50870SOL    HW257168  11.403   9.460  10.828  2.1640  1.0443 -0.9233
50871SOL     OW57169  11.777   0.007   3.224 -0.3237 -0.0652  0.8367
50871SOL    HW157170  11.766  -0.049   3.147 -0.2733  3.1887 -1.7570
50871SOL    HW257171  11.692   0.002   3.269 -0.8523 -0.9839 -0.2004
50872SOL     OW57172   5.270   5.825   6.947 -0.1565  0.0295  0.0043
50872SOL    HW157173   5.311   5.911   6.954 -0.0586 -0.0048 -0.1369
50872SOL    HW257174   5.339   5.768   6.914 -0.2057 -0.1154  0.1457
50873SOL     OW57175   0.315   3.799   6.890  0.4109 -0.3855 -0.6259
50873SOL    HW157176   0.246   3.864   6.909  0.9978 -0.1204  0.7316
50873SOL    HW257177   0.388   3.851   6.858  0.0991 -0.6393 -1.7882
50874SOL     OW57178   9.370   4.527   3.848  0.2257 -0.2547  0.1339
50874SOL    HW157179   9.432   4.592   3.815  0.2255 -0.8103 -1.0238
50874SOL    HW257180   9.406   4.443   3.819 -0.7409 -0.6374 -0.0069
50875SOL     OW57181   6.074  11.040  11.090 -0.3279  0.2415  0.4380
50875SOL    HW157182   5.996  11.095  11.097 -0.1077  0.5836  0.2133
50875SOL    HW257183   6.041  10.950  11.096 -0.7961  0.3677 -0.2447
50876SOL     OW57184   8.275   1.402   3.457  0.2320 -0.0688  0.1300
50876SOL    HW157185   8.194   1.358   3.432  0.2377  0.5609 -1.0946
50876SOL    HW257186   8.329   1.334   3.496  0.2114 -1.1618 -1.6276
50877SOL     OW57187  10.417   1.152  10.244 -0.0243  0.5882  0.0078
50877SOL    HW157188  10.334   1.127  10.286  1.1212 -1.6219  1.0940
50877SOL    HW257189  10.398   1.238  10.205 -2.3937  0.8151  1.4258
50878SOL     OW57190  10.151   3.193   1.314  0.1117 -0.0608  0.2947
50878SOL    HW157191  10.198   3.112   1.294 -0.1953  0.0160 -0.8131
50878SOL    HW257192  10.086   3.168   1.379  0.0192 -0.7151 -0.0430
50879SOL     OW57193   1.684   2.416  10.398 -0.3976 -0.0353 -0.1572
50879SOL    HW157194   1.598   2.432  10.359 -0.7663 -0.8711  0.2813
50879SOL    HW257195   1.698   2.490  10.457 -1.8655 -1.0023  1.4931
50880SOL     OW57196   7.865   6.192   8.675 -0.5310  0.0509  0.2191
50880SOL    HW157197   7.904   6.147   8.750  0.7608  0.0040 -0.4482
50880SOL    HW257198   7.813   6.263   8.712  0.2440  0.1414  1.1425
50881SOL     OW57199   4.190   2.822   1.676  0.2749 -0.2789  0.3431
50881SOL    HW157200   4.135   2.901   1.672 -0.1078 -0.5641 -0.0850
50881SOL    HW257201   4.129   2.749   1.668  0.6175 -0.6306  0.8461
50882SOL     OW57202   3.163  11.071   6.558 -0.1145 -0.1022  0.7207
50882SOL    HW157203   3.207  11.155   6.546  0.7157 -0.6131  0.0534
50882SOL    HW257204   3.231  11.013   6.593  0.2260 -1.3117 -1.7398
50883SOL     OW57205   1.114   7.168   2.329  0.3600  0.0512 -0.0159
50883SOL    HW157206   1.190   7.183   2.385  1.4763 -2.5649 -0.7098
50883SOL    HW257207   1.039   7.185   2.386  1.4521  0.3983  1.3745
50884SOL     OW57208   3.494   5.890   7.725 -0.0711 -0.2725  1.0414
50884SOL    HW157209   3.440   5.946   7.669  0.0651 -2.6608 -1.7091
50884SOL    HW257210   3.434   5.820   7.752  1.0319 -1.7905 -0.2810
50885SOL     OW57211   6.721  10.925   9.857 -0.2275 -0.4094 -0.2579
50885SOL    HW157212   6.736  10.837   9.825 -1.6089  0.0287 -2.3301
50885SOL    HW257213   6.796  10.944   9.914  1.5171 -1.9149 -1.9246
50886SOL     OW57214   6.442   8.509   6.629  0.4799  0.1827  0.2071
50886SOL    HW157215   6.495   8.565   6.573 -0.7555 -1.4815 -2.8983
50886SOL    HW257216   6.391   8.569   6.683 -0.0854  2.0893 -2.2693
50887SOL     OW57217  10.779   9.988  11.782 -0.5482 -0.2447 -0.1574
50887SOL    HW157218  10.818  10.049  11.720  0.7249 -0.7027  0.1660
50887SOL    HW257219  10.685  10.003  11.775 -0.3065  1.0910 -0.7558
50888SOL     OW57220   9.972   4.891   5.544 -0.3046  0.0856  0.2045
50888SOL    HW157221   9.982   4.817   5.603 -0.5794  0.1901  0.3821
50888SOL    HW257222   9.895   4.870   5.491 -1.2416  0.8766  1.2039
50889SOL     OW57223   0.087  10.897   9.499 -0.6635  0.2806  0.1635
50889SOL    HW157224   0.103  10.978   9.451  0.2171 -0.3672 -0.6620
50889SOL    HW257225  -0.009  10.888   9.499 -0.8196  1.6413  0.8366
50890SOL     OW57226   3.963  11.759  11.341  0.0627  0.5818 -0.0359
50890SOL    HW157227   3.944  11.836  11.395 -1.3511  0.9636 -1.0151
50890SOL    HW257228   3.890  11.754  11.279  1.7108  0.3360 -2.0972
50891SOL     OW57229   3.562   4.097   1.314 -0.0722  0.4524 -0.0204
50891SOL    HW157230   3.577   4.004   1.296 -2.3144 -0.3395  1.7332
50891SOL    HW257231   3.644   4.140   1.289  1.4505 -2.1274  0.2113
50892SOL     OW57232  10.005   0.431   6.753  0.7145 -0.1574  0.2381
50892SOL    HW157233  10.096   0.435   6.724  0.8682 -1.6449  0.3953
50892SOL    HW257234  10.011   0.419   6.848  0.3242  0.5009  0.3513
50893SOL     OW57235   8.434   7.540   9.862 -0.1274  0.1620 -0.0916
50893SOL    HW157236   8.377   7.594   9.917  0.1941 -2.2833  2.9240
50893SOL    HW257237   8.377   7.470   9.830  0.4248 -0.4096  0.1364
50894SOL     OW57238   8.117   6.879   0.977  0.3911 -0.5915  0.5162
50894SOL    HW157239   8.140   6.833   0.896 -2.0523 -1.8512  0.4500
50894SOL    HW257240   8.047   6.939   0.952 -1.3134 -1.9058  1.8333
50895SOL     OW57241   8.828   0.228   6.063 -0.0557 -0.1650 -0.0046
50895SOL    HW157242   8.829   0.322   6.043 -0.7755 -0.3236 -0.8359
50895SOL    HW257243   8.836   0.185   5.978 -4.5004 -0.8756 -0.2888
50896SOL     OW57244  11.050   6.441   7.334 -0.3188 -0.5764  0.5586
50896SOL    HW157245  11.121   6.465   7.393  0.9314 -2.0403 -0.2662
50896SOL    HW257246  11.089   6.441   7.247 -2.5086  3.1065 -0.6401
50897SOL     OW57247   2.412   1.439   8.155 -0.0195  0.1255 -0.7238
50897SOL    HW157248   2.475   1.373   8.185  0.9431  0.0872 -2.7071
50897SOL    HW257249   2.326   1.402   8.176  0.5617 -0.3252  1.0118
50898SOL     OW57250   8.820   6.029  11.327  0.5118  0.0211 -0.3510
50898SOL    HW157251   8.774   5.975  11.392 -0.3808  0.4827 -0.5839
50898SOL    HW257252   8.890   6.071  11.377  0.8500 -0.8902 -0.0424
50899SOL     OW57253   4.470   1.121   0.569  0.8382 -0.2014  0.0599
50899SOL    HW157254   4.496   1.150   0.656  2.2940  0.1950 -0.4941
50899SOL    HW257255   4.480   1.026   0.572  1.6082 -0.1230  0.0973
50900SOL     OW57256   3.662   7.315   6.858 -0.2372  0.5361 -0.4542
50900SOL    HW157257   3.739   7.343   6.907  2.8889 -1.5850 -3.6554
50900SOL    HW257258   3.625   7.396   6.823  1.2870  1.5436  0.1761
50901SOL     OW57259   8.744   8.334   5.177  0.1891 -0.3633 -0.6095
50901SOL    HW157260   8.823   8.280   5.172  1.7273  1.8740 -1.9913
50901SOL    HW257261   8.760   8.393   5.251 -0.9180 -0.8995  0.0871
50902SOL     OW57262   7.241  11.062   2.093 -0.1916 -0.1675  0.6318
50902SOL    HW157263   7.312  11.040   2.033 -0.5557  1.1414 -0.3251
50902SOL    HW257264   7.285  11.097   2.171  0.2410 -0.6725  0.6219
50903SOL     OW57265   7.064   1.329   1.893 -0.4430 -0.4171 -0.3297
50903SOL    HW157266   7.102   1.269   1.830 -0.6683 -1.1985  0.2629
50903SOL    HW257267   6.985   1.284   1.925 -1.0890  0.5554 -0.4949
50904SOL     OW57268   8.730   7.504   2.306 -0.7918 -0.0998  0.3621
50904SOL    HW157269   8.713   7.414   2.279  0.2501 -0.8855  2.1649
50904SOL    HW257270   8.683   7.558   2.241 -2.0690 -1.9219 -0.3031
50905SOL     OW57271   6.905   5.000   4.303  0.3326 -0.2243 -0.0084
50905SOL    HW157272   6.828   5.035   4.259  1.2276  0.5360 -1.0079
50905SOL    HW257273   6.903   5.040   4.390 -0.8194 -0.8461  0.2773
50906SOL     OW57274   6.926   3.489  10.547 -0.3225 -0.2787  0.7286
50906SOL    HW157275   6.955   3.501  10.638 -1.7506 -0.4282  1.2175
50906SOL    HW257276   6.869   3.412  10.550 -0.2518 -0.3872 -0.3323
50907SOL     OW57277   2.261   6.989  11.692 -0.1287 -0.0300  0.1250
50907SOL    HW157278   2.222   6.988  11.780  1.8564  0.3212  1.0763
50907SOL    HW257279   2.351   6.960  11.706  0.3101  0.3024 -1.7710
50908SOL     OW57280  11.665  10.484   2.273  0.9523 -0.0245  0.1243
50908SOL    HW157281  11.721  10.442   2.207  2.5766  0.8499  0.8843
50908SOL    HW257282  11.725  10.509   2.343 -0.6446 -0.4649  1.7327
50909SOL     OW57283   0.297   0.453  11.926 -0.6035  0.4420 -0.0213
50909SOL    HW157284   0.276   0.522  11.989 -1.0450 -0.5709  0.9790
50909SOL    HW257285   0.338   0.384  11.978 -0.4961 -0.2085 -0.9356
50910SOL     OW57286   5.698   4.878   9.915  0.4624 -0.2194 -0.4462
50910SOL    HW157287   5.769   4.942   9.906  0.5235 -0.0996  0.6755
50910SOL    HW257288   5.677   4.852   9.826 -0.0004  1.8401 -0.9966
50911SOL     OW57289   8.947   0.800  11.220 -1.0405  0.1225 -0.3551
50911SOL    HW157290   8.982   0.716  11.190 -1.7539  0.6546 -2.9648
50911SOL    HW257291   9.024   0.853  11.241 -0.5891 -1.1738  1.5051
50912SOL     OW57292   0.530   8.801   5.065 -0.2519 -0.0287 -0.0220
50912SOL    HW157293   0.579   8.738   5.119 -0.7941  0.4629  1.0801
50912SOL    HW257294   0.571   8.795   4.979 -1.2214 -2.9546 -0.3906
50913SOL     OW57295   8.538   6.491   6.885  0.5613 -0.2410 -0.1844
50913SOL    HW157296   8.616   6.439   6.864 -0.2798 -1.2054 -1.0500
50913SOL    HW257297   8.517   6.465   6.975  0.4563 -1.0196 -0.4229
50914SOL     OW57298   2.705   9.341   2.004  0.8660 -0.3139  0.5928
50914SOL    HW157299   2.745   9.428   2.013 -0.9214  0.6419 -0.1040
50914SOL    HW257300   2.636   9.339   2.070  1.8273 -1.8438  1.6277
50915SOL     OW57301   0.393  11.242   5.202 -0.5334  0.0137  0.1891
50915SOL    HW157302   0.300  11.218   5.204 -0.2716 -1.0115  0.3474
50915SOL    HW257303   0.393  11.337   5.214 -1.5411 -0.0269  0.6082
50916SOL     OW57304   0.955   0.472   9.544  0.8095 -0.1451  0.0982
50916SOL    HW157305   0.933   0.445   9.454  0.5329 -0.8698  0.3798
50916SOL    HW257306   0.992   0.560   9.534  0.7808 -0.2200 -0.7281
50917SOL     OW57307   5.540   1.643  11.919  0.2326  0.5871 -0.1273
50917SOL    HW157308   5.553   1.736  11.932  2.9037  0.6802 -2.4055
50917SOL    HW257309   5.551   1.630  11.825 -0.1907 -2.0114  0.0975
50918SOL     OW57310   7.923   2.237  11.853  0.4024 -0.2572  0.5414
50918SOL    HW157311   8.018   2.233  11.840  0.1384 -0.2066 -1.7147
50918SOL    HW257312   7.902   2.154  11.897  1.2386 -1.3892 -1.0646
50919SOL     OW57313   1.824   3.052  11.532 -0.1874  0.0191 -0.0441
50919SOL    HW157314   1.854   3.021  11.447  0.7043  2.3500 -0.6581
50919SOL    HW257315   1.904   3.059  11.585 -0.3843  1.0049  0.1385
50920SOL     OW57316   9.170  10.090   7.665  0.4344 -0.7583  0.8531
50920SOL    HW157317   9.096  10.128   7.713 -0.0736 -1.8091  0.9200
50920SOL    HW257318   9.209  10.164   7.619 -0.3926 -0.1144  1.1683
50921SOL     OW57319   8.215  12.099   6.472  0.3269  0.6091 -0.5172
50921SOL    HW157320   8.291  12.065   6.519 -0.5159 -2.0863 -0.8819
50921SOL    HW257321   8.147  12.107   6.539 -0.3592 -1.5403 -0.8673
50922SOL     OW57322   1.802   9.123   3.227  0.0221 -0.0936  0.7407
50922SOL    HW157323   1.790   9.217   3.211  0.3097 -0.2297 -0.4049
50922SOL    HW257324   1.895   9.113   3.245  0.2103 -0.2867 -0.2677
50923SOL     OW57325  11.776   3.675  10.385 -0.2209 -0.1004 -0.0985
50923SOL    HW157326  11.777   3.606  10.451 -1.0946  1.0664  1.1831
50923SOL    HW257327  11.683   3.689  10.366 -0.0170  0.1722 -0.9391
50924SOL     OW57328   7.968   6.061   6.029 -0.1780  0.7967 -0.3868
50924SOL    HW157329   8.023   6.127   6.071  0.1423  0.4273 -0.2165
50924SOL    HW257330   8.003   6.054   5.940 -0.7538  1.4631 -0.6725
50925SOL     OW57331   8.389   0.190   9.987  0.5930 -0.1435  0.4452
50925SOL    HW157332   8.423   0.237  10.064  1.0651  0.9871 -0.4176
50925SOL    HW257333   8.414   0.245   9.913 -1.0750 -0.4819 -0.4243
50926SOL     OW57334   1.771   0.612   5.694  0.0621  0.2628  0.0521
50926SOL    HW157335   1.715   0.594   5.618  0.7459 -1.0443 -0.1788
50926SOL    HW257336   1.849   0.652   5.657  0.8148 -1.2704 -0.0794
50927SOL     OW57337   7.958   6.802   2.004 -0.2088 -0.4332 -0.1620
50927SOL    HW157338   7.898   6.867   1.967 -0.0846  0.7100  1.5531
50927SOL    HW257339   8.042   6.849   2.012 -0.1733 -0.7080  1.2870
50928SOL     OW57340   7.494   8.430   6.323  0.2397  0.2036  0.9311
50928SOL    HW157341   7.561   8.444   6.390  1.6061 -1.1701 -0.0835
50928SOL    HW257342   7.531   8.470   6.244 -0.5119  0.1560  0.5460
50929SOL     OW57343   0.884   3.350   6.752  0.2485  0.1085  0.1278
50929SOL    HW157344   0.937   3.358   6.673  0.4725  0.3794  0.3044
50929SOL    HW257345   0.946   3.326   6.821 -0.2577 -2.4691 -0.2074
50930SOL     OW57346  10.088   6.704   4.396  0.1254  0.1815 -0.5045
50930SOL    HW157347  10.058   6.714   4.306 -0.0391 -0.3892 -0.5140
50930SOL    HW257348  10.112   6.612   4.404  0.4201  0.2951 -0.0515
50931SOL     OW57349   3.626   8.358   2.432  0.1094  0.1083 -0.1445
50931SOL    HW157350   3.617   8.293   2.502 -0.0671 -0.3734 -0.6076
50931SOL    HW257351   3.546   8.411   2.439  0.3858  0.4537  0.4122
50932SOL     OW57352  11.362   6.738   4.474  0.4652  0.0150  0.1486
50932SOL    HW157353  11.281   6.743   4.423 -1.3927  1.8377  2.9951
50932SOL    HW257354  11.431   6.760   4.411 -1.3409 -0.5461 -2.1463
50933SOL     OW57355   0.800   5.105   4.187 -0.6188 -0.5045  0.3890
50933SOL    HW157356   0.753   5.140   4.112 -0.7677 -1.1672  0.1638
50933SOL    HW257357   0.870   5.168   4.203 -2.0645  0.9671  1.2772
50934SOL     OW57358   1.658   4.428  11.132 -0.2463 -0.0931 -0.1193
50934SOL    HW157359   1.664   4.342  11.090 -1.7344  0.7935 -2.3104
50934SOL    HW257360   1.654   4.408  11.225 -0.6901 -2.4077 -0.5640
50935SOL     OW57361   6.832  10.192  11.280 -0.1474  0.4097 -0.1773
50935SOL    HW157362   6.915  10.168  11.239 -0.4613 -0.0488 -0.5560
50935SOL    HW257363   6.805  10.272  11.235 -1.0161 -0.6581 -1.6524
50936SOL     OW57364   0.634   6.015   5.363  0.0742 -0.4547  0.1723
50936SOL    HW157365   0.711   6.001   5.307  0.6827  0.5224  0.7366
50936SOL    HW257366   0.582   5.935   5.352  0.6405 -0.6797 -1.0476
50937SOL     OW57367   3.470   2.034   4.841  0.1780 -0.3063 -0.3444
50937SOL    HW157368   3.491   1.941   4.845 -1.7586 -0.8056 -0.9393
50937SOL    HW257369   3.392   2.040   4.786 -0.2629  1.5727  0.3771
50938SOL     OW57370   5.399   7.850   3.235  0.3500 -0.0349  0.4619
50938SOL    HW157371   5.405   7.771   3.182 -0.5089  0.0755  0.1880
50938SOL    HW257372   5.378   7.818   3.323 -0.4114 -0.1054  0.2661
50939SOL     OW57373   4.679   3.306   5.885  0.2412  0.3973  0.0508
50939SOL    HW157374   4.766   3.293   5.848  0.7843  0.1075  1.3881
50939SOL    HW257375   4.681   3.260   5.969 -1.7910 -1.1681 -0.6799
50940SOL     OW57376   9.620  11.598   9.165 -0.0717  0.1101 -0.2752
50940SOL    HW157377   9.715  11.599   9.176 -0.2092 -0.3206  1.0290
50940SOL    HW257378   9.606  11.555   9.080  0.8313 -1.2529  0.2454
50941SOL     OW57379   2.398   4.020   7.638  0.3148 -0.0056 -0.4193
50941SOL    HW157380   2.481   3.981   7.610  0.2668  0.0930 -0.6993
50941SOL    HW257381   2.353   3.950   7.685  1.8700  0.7596  2.4840
50942SOL     OW57382   9.322   8.059  11.503  0.0025  0.1079 -0.0236
50942SOL    HW157383   9.242   8.104  11.476 -0.1385 -0.3673 -0.3980
50942SOL    HW257384   9.390   8.127  11.497 -0.0118  0.0262 -1.6135
50943SOL     OW57385   9.003   0.396   0.741  0.2853  0.1322  0.3751
50943SOL    HW157386   9.020   0.399   0.647 -1.7433 -0.6827 -0.0611
50943SOL    HW257387   9.047   0.317   0.771  1.3952  0.6785  0.2481
50944SOL     OW57388   8.862   9.555   7.037  0.1483 -0.8762 -0.6217
50944SOL    HW157389   8.773   9.532   7.063  0.8694 -2.0919  0.9426
50944SOL    HW257390   8.915   9.481   7.065  1.8412  0.4016 -0.3082
50945SOL     OW57391   1.554   9.324   2.437  0.1826 -0.1052  0.0162
50945SOL    HW157392   1.589   9.239   2.409  0.5479 -0.5381  1.6587
50945SOL    HW257393   1.466   9.303   2.470 -0.1130  0.3353 -0.4758
50946SOL     OW57394  10.702   0.038   3.674 -0.4382 -0.8106 -0.2537
50946SOL    HW157395  10.772   0.059   3.612 -0.2630  1.8590  0.7116
50946SOL    HW257396  10.624   0.081   3.636 -1.2300 -2.3840 -0.4939
50947SOL     OW57397   0.927   7.774  11.614 -0.0524  0.0239 -0.0706
50947SOL    HW157398   0.864   7.707  11.585  0.2323 -0.4186  0.3296
50947SOL    HW257399   0.919   7.775  11.709  1.2761 -0.7653  0.0701
50948SOL     OW57400  11.456   2.512   3.350  0.2578  0.4623 -0.5853
50948SOL    HW157401  11.424   2.471   3.430 -1.3205  1.4357 -0.6930
50948SOL    HW257402  11.522   2.575   3.380 -3.0339  3.7134  0.4887
50949SOL     OW57403  11.192   6.023  11.456 -0.2664  0.3336  0.0858
50949SOL    HW157404  11.286   6.034  11.443 -0.0752  0.7748  1.6519
50949SOL    HW257405  11.157   6.011  11.367  1.1390  1.0521 -0.6000
50950SOL     OW57406   1.139   5.408  11.297 -0.8491 -0.0489 -0.1788
50950SOL    HW157407   1.176   5.480  11.348  0.3170  0.1979 -1.3180
50950SOL    HW257408   1.070   5.372  11.352 -1.1725  1.6692  0.5965
50951SOL     OW57409   9.757   3.498   5.791  0.2808 -0.6568  0.1271
50951SOL    HW157410   9.795   3.493   5.704  1.1918  0.5833  0.4190
50951SOL    HW257411   9.693   3.427   5.794 -0.2388 -0.3350 -1.7622
50952SOL     OW57412   9.272   2.621   0.625  0.1636  0.0772 -0.4246
50952SOL    HW157413   9.306   2.678   0.695  1.0058  0.1838 -0.9059
50952SOL    HW257414   9.305   2.534   0.648 -0.8188 -0.1653  0.1135
50953SOL     OW57415   1.052  11.376   1.338  0.2868  0.3024 -0.5323
50953SOL    HW157416   1.065  11.295   1.387  0.2512  0.8546  0.4198
50953SOL    HW257417   1.047  11.348   1.247  0.5144 -0.7385 -0.2438
50954SOL     OW57418   5.122   1.559   0.470 -0.4312  0.6122 -0.2551
50954SOL    HW157419   5.195   1.584   0.414  1.5194 -1.2324  1.2756
50954SOL    HW257420   5.121   1.463   0.468 -2.6148  0.5635  0.0750
50955SOL     OW57421   1.895   5.145   7.642 -0.1447  0.1802  0.5046
50955SOL    HW157422   1.960   5.202   7.602 -0.3911 -0.2477 -0.5398
50955SOL    HW257423   1.896   5.168   7.735  0.3807  1.2545  0.2400
50956SOL     OW57424  12.024   5.910   7.128 -0.1990  0.6297  0.2365
50956SOL    HW157425  12.008   5.819   7.100 -1.8703  0.2951  2.0488
50956SOL    HW257426  12.039   5.958   7.046  1.2348 -1.3307 -0.7304
50957SOL     OW57427   8.451   5.296   0.817  0.2497  0.0304 -0.0639
50957SOL    HW157428   8.460   5.372   0.760  0.4723  0.6807  0.8138
50957SOL    HW257429   8.378   5.318   0.875 -0.3164 -0.8449 -0.4315
50958SOL     OW57430  11.664   4.029   8.876  0.2971  0.5993 -0.0828
50958SOL    HW157431  11.649   3.987   8.791  0.8618 -0.1095  0.1516
50958SOL    HW257432  11.626   4.116   8.867 -0.7535  0.0971 -0.6471
50959SOL     OW57433   4.662   8.518  10.536 -0.0362 -0.6347  0.9447
50959SOL    HW157434   4.703   8.436  10.510  2.7581  0.6644  0.9163
50959SOL    HW257435   4.642   8.562  10.453  1.2017 -0.0505  0.9422
50960SOL     OW57436   9.262   1.079   8.359  0.3002  0.4993 -0.3843
50960SOL    HW157437   9.260   1.131   8.439  0.2662  0.0465 -0.0830
50960SOL    HW257438   9.320   1.005   8.380 -0.6146 -0.2453 -0.3758
50961SOL     OW57439   8.014   4.981   3.245 -0.2234  0.0159  0.1966
50961SOL    HW157440   8.080   4.912   3.254 -1.3596 -1.0339  0.7579
50961SOL    HW257441   7.935   4.944   3.283 -0.1375  2.7731  3.5074
50962SOL     OW57442   0.121   3.210   4.701  0.0545 -0.3275 -0.5565
50962SOL    HW157443   0.212   3.205   4.673 -0.0945 -2.1335 -0.8794
50962SOL    HW257444   0.113   3.145   4.771 -0.8844  0.0892 -0.2547
50963SOL     OW57445  10.951   2.479  11.143  0.3711 -0.0918 -0.4197
50963SOL    HW157446  10.956   2.521  11.057  0.2786  0.5818 -0.0974
50963SOL    HW257447  10.970   2.387  11.125 -0.4464 -0.1170 -1.2846
50964SOL     OW57448   9.502   4.653   1.542  0.2398  0.0182 -0.2173
50964SOL    HW157449   9.462   4.606   1.615 -0.8553 -0.5707 -1.1584
50964SOL    HW257450   9.528   4.737   1.579 -2.9916  0.9552  0.2421
50965SOL     OW57451   7.528   5.493   0.186  0.5301  0.5956  0.4107
50965SOL    HW157452   7.441   5.526   0.163 -0.4259 -1.3326  0.9845
50965SOL    HW257453   7.583   5.571   0.193 -1.3377  1.9469  0.8263
50966SOL     OW57454   7.704   6.313  10.604  0.4668 -0.1367  0.5387
50966SOL    HW157455   7.746   6.333  10.688 -0.2073 -1.1127  1.1366
50966SOL    HW257456   7.729   6.385  10.546  1.8222  0.0104  1.2638
50967SOL     OW57457   5.901   6.908   8.678  0.0825  0.2753 -0.1735
50967SOL    HW157458   5.847   6.934   8.604  1.3003  2.6263 -0.3276
50967SOL    HW257459   5.855   6.943   8.755 -0.7351 -1.4129  0.1512
50968SOL     OW57460   4.873   4.811   5.576  0.2047  0.2180 -0.0752
50968SOL    HW157461   4.816   4.860   5.517 -0.5240 -0.7396 -0.1935
50968SOL    HW257462   4.891   4.730   5.529 -0.5097 -0.6311  1.0574
50969SOL     OW57463  10.021   9.208   7.392 -0.3676  0.1456 -0.0885
50969SOL    HW157464   9.990   9.180   7.477  1.3102  0.6315  0.7244
50969SOL    HW257465  10.085   9.277   7.411  1.5373 -1.1178 -1.5991
50970SOL     OW57466   9.548   6.754   9.733  0.3709  0.9494  0.1848
50970SOL    HW157467   9.597   6.676   9.707  0.2465  0.8396  0.2807
50970SOL    HW257468   9.487   6.769   9.662  2.0077  2.3651 -1.0046
50971SOL     OW57469   8.257   3.702   1.543  0.4154 -0.2221 -0.1834
50971SOL    HW157470   8.194   3.642   1.502 -1.2702  2.4366 -1.8324
50971SOL    HW257471   8.320   3.721   1.473  1.7015 -1.0140  0.7297
50972SOL     OW57472  10.233   1.051   5.792  0.1538  0.1032  0.3774
50972SOL    HW157473  10.220   1.144   5.811  1.7385  0.3996  0.1259
50972SOL    HW257474  10.312   1.027   5.840  0.9830 -0.5496 -1.2305
50973SOL     OW57475   7.302  11.002   6.313  0.3588  0.2538  0.2691
50973SOL    HW157476   7.310  10.911   6.282  1.6606  0.6324 -0.6071
50973SOL    HW257477   7.256  10.995   6.396 -0.4028 -1.1275 -0.2320
50974SOL     OW57478   3.566  11.948   9.315 -0.2821 -0.0685 -0.6582
50974SOL    HW157479   3.594  12.023   9.367  1.4292 -1.0389 -0.1095
50974SOL    HW257480   3.641  11.928   9.259 -0.6557 -1.4374 -0.7026
50975SOL     OW57481   6.208   1.193   7.073  0.1646  0.1389 -0.6785
50975SOL    HW157482   6.149   1.186   6.998 -1.5224  1.4784  0.4340
50975SOL    HW257483   6.185   1.276   7.113 -0.3712 -1.3522  2.4129
50976SOL     OW57484   8.832   3.310   5.677  0.0008 -0.0556 -0.5180
50976SOL    HW157485   8.752   3.362   5.685  0.5153  0.5177  1.6304
50976SOL    HW257486   8.901   3.374   5.659  0.1283 -0.4389 -1.4390
50977SOL     OW57487   5.893  10.634   3.660  0.1300  0.5326 -0.0629
50977SOL    HW157488   5.958  10.704   3.648 -0.6806  1.1468 -1.0813
50977SOL    HW257489   5.818  10.678   3.699  0.0790 -0.0341  0.4774
50978SOL     OW57490   0.253   3.005  12.127 -0.6809  0.2151 -0.7082
50978SOL    HW157491   0.302   3.017  12.209 -0.9609  0.5878 -0.5922
50978SOL    HW257492   0.180   2.948  12.151 -0.0031 -0.8107 -1.0044
50979SOL     OW57493  10.998   7.439   4.404 -0.2604  0.0358 -0.0440
50979SOL    HW157494  10.910   7.402   4.412 -0.4248  0.3200 -0.5060
50979SOL    HW257495  11.053   7.365   4.376 -0.5413  0.0757 -0.7193
50980SOL     OW57496   7.467   4.019  12.025  0.3004  0.4746 -0.4239
50980SOL    HW157497   7.479   3.951  12.091  0.1771  0.8888  0.0294
50980SOL    HW257498   7.394   4.071  12.058 -0.2098  0.2813 -1.2290
50981SOL     OW57499   7.421  10.195   6.503 -0.4668  0.1335  0.2646
50981SOL    HW157500   7.469  10.255   6.560 -1.2418  0.4402  0.5968
50981SOL    HW257501   7.464  10.203   6.418  2.0971 -1.8599  1.2127
50982SOL     OW57502   1.015   1.892   3.470  0.4041 -0.1221 -0.6933
50982SOL    HW157503   1.060   1.948   3.532 -0.4520 -0.0161 -0.1568
50982SOL    HW257504   1.017   1.940   3.387  1.4440 -0.2147 -0.7396
50983SOL     OW57505   6.340  11.197   2.184  0.6790  0.7794  0.1224
50983SOL    HW157506   6.290  11.254   2.243 -1.0825  1.4318 -1.8726
50983SOL    HW257507   6.282  11.123   2.167  1.7039 -0.0693  0.2279
50984SOL     OW57508   3.204   1.220   2.322  0.1284  0.0877  0.0455
50984SOL    HW157509   3.278   1.253   2.374  0.6898  0.6891 -1.0994
50984SOL    HW257510   3.229   1.238   2.232 -1.7941  1.0379 -0.3317
50985SOL     OW57511   9.152   3.638  11.615  0.0531  0.0490  0.6575
50985SOL    HW157512   9.066   3.633  11.572  0.5744  1.2887 -0.6040
50985SOL    HW257513   9.131   3.653  11.707 -1.0927 -0.4394  0.4946
50986SOL     OW57514  10.235   1.840  11.964 -0.1440 -0.4078 -0.2676
50986SOL    HW157515  10.293   1.785  12.018 -1.4221 -0.6204  0.9419
50986SOL    HW257516  10.260   1.930  11.988  0.7717 -0.4597 -0.9680
50987SOL     OW57517   0.292   1.598   4.996  0.8200  0.2830 -0.3681
50987SOL    HW157518   0.350   1.635   5.063  1.8031  0.2510 -1.1762
50987SOL    HW257519   0.205   1.631   5.019  0.7678 -1.2507  2.0416
50988SOL     OW57520   0.727   6.718   4.630  0.1886  0.2309  0.3564
50988SOL    HW157521   0.798   6.691   4.689 -0.3822  0.1301  1.0095
50988SOL    HW257522   0.647   6.704   4.681 -0.1856  2.6691  0.5390
50989SOL     OW57523   2.427   2.217   8.085  0.2167 -0.3768 -0.0442
50989SOL    HW157524   2.449   2.270   8.162  0.6351  0.5214 -0.7630
50989SOL    HW257525   2.504   2.161   8.072  0.7611  0.4872 -0.6455
50990SOL     OW57526  10.514   9.347   6.029  0.1961  0.1916 -0.2234
50990SOL    HW157527  10.580   9.347   6.099 -0.9408  2.5321  0.9774
50990SOL    HW257528  10.450   9.412   6.057 -1.7095 -0.6953 -2.2204
50991SOL     OW57529   0.795   7.027  10.056  0.8072 -0.3034 -0.1061
50991SOL    HW157530   0.740   7.093  10.098  1.8878  0.4198  0.1989
50991SOL    HW257531   0.792   7.050   9.963  0.3762 -0.4409 -0.1309
50992SOL     OW57532   4.985  11.848   0.000  0.1222 -0.1257  0.6296
50992SOL    HW157533   4.904  11.898  -0.006  0.3213  0.1380  0.0534
50992SOL    HW257534   4.964  11.763  -0.038  0.1410 -0.0245  0.3928
50993SOL     OW57535   8.802  10.306   0.466  0.4190  0.0035 -0.1013
50993SOL    HW157536   8.855  10.331   0.390  0.7330 -0.4076 -0.0226
50993SOL    HW257537   8.741  10.241   0.433  0.5905 -0.2137  0.0084
50994SOL     OW57538   9.419   8.864   8.600  0.0666  0.2731  0.1167
50994SOL    HW157539   9.491   8.812   8.563 -0.2617  0.4195 -0.7619
50994SOL    HW257540   9.356   8.799   8.630  1.8029  0.0260  3.6579
50995SOL     OW57541   4.910   0.149   3.301  0.4831  0.3758  0.8100
50995SOL    HW157542   4.994   0.191   3.283 -0.5672  1.9737 -0.6858
50995SOL    HW257543   4.880   0.188   3.383  1.4255 -0.6425  1.6738
50996SOL     OW57544   2.569   8.825   1.524 -0.1952 -0.2319  0.3140
50996SOL    HW157545   2.618   8.743   1.525  2.5233  1.1985 -1.6155
50996SOL    HW257546   2.562   8.848   1.432 -0.3522  1.9481  0.8080
50997SOL     OW57547   3.129   4.185   2.379 -0.4633  0.0446 -0.5186
50997SOL    HW157548   3.190   4.165   2.308 -0.0480 -0.1530 -0.1106
50997SOL    HW257549   3.169   4.259   2.425 -1.2012  0.7982 -1.0552
50998SOL     OW57550   9.126   8.606   7.302 -0.2559 -0.0367 -0.4361
50998SOL    HW157551   9.172   8.531   7.341  1.7570  0.9035 -0.8528
50998SOL    HW257552   9.073   8.568   7.233  2.0363 -0.9820 -1.7932
50999SOL     OW57553   3.147   2.149   4.402 -0.0931 -0.3129  0.4546
50999SOL    HW157554   3.157   2.067   4.354 -0.5910 -0.2764  0.2837
50999SOL    HW257555   3.104   2.124   4.483 -1.5500 -0.0476 -0.1988
51000SOL     OW57556   6.170   9.308   4.216 -0.0504  0.1167 -0.3317
51000SOL    HW157557   6.205   9.220   4.229 -0.6191  0.0203  0.6873
51000SOL    HW257558   6.247   9.365   4.216  0.1610 -0.0169  2.5152
51001SOL     OW57559  10.467   7.298   9.061  0.1415  0.2329 -0.4206
51001SOL    HW157560  10.524   7.367   9.097  0.4851 -0.7826  1.0778
51001SOL    HW257561  10.378   7.329   9.080  0.3000  0.1803  0.4680
51002SOL     OW57562   8.125   2.111   9.237 -0.2635 -0.5670 -0.1463
51002SOL    HW157563   8.061   2.108   9.165 -1.4684 -0.2005  0.8635
51002SOL    HW257564   8.147   2.019   9.252 -0.6296 -0.7118 -0.4509
51003SOL     OW57565  10.696   0.815   8.229 -0.5407 -0.0326  0.0112
51003SOL    HW157566  10.707   0.721   8.246 -0.7538 -0.1222 -0.3267
51003SOL    HW257567  10.647   0.818   8.147  1.8222  0.3616 -1.4828
51004SOL     OW57568  11.133   2.206   7.094  0.8091  0.0340 -0.6105
51004SOL    HW157569  11.213   2.183   7.048  1.3773  1.3538 -0.3150
51004SOL    HW257570  11.100   2.284   7.049 -0.6792 -0.8425 -1.1370
51005SOL     OW57571   5.699   6.194  10.784 -0.2463 -0.5633  0.4873
51005SOL    HW157572   5.726   6.112  10.743  1.3300 -0.8071  1.8764
51005SOL    HW257573   5.774   6.252  10.773  0.0848 -0.5134  2.5733
51006SOL     OW57574   3.116   1.248   8.570  0.5999  0.4813 -0.1141
51006SOL    HW157575   3.172   1.283   8.640 -0.1641  0.7328  0.3825
51006SOL    HW257576   3.141   1.298   8.492  1.0150  0.6442  0.1204
51007SOL     OW57577   8.085   5.228   0.460  0.3415  0.4262  0.2033
51007SOL    HW157578   8.079   5.144   0.506 -0.9626 -0.0828 -0.8154
51007SOL    HW257579   8.143   5.281   0.514  1.6725 -1.3238  0.5714
51008SOL     OW57580   0.641   7.333   5.865 -0.9881  0.3785  0.0756
51008SOL    HW157581   0.696   7.254   5.858 -2.2601 -0.4516 -1.4181
51008SOL    HW257582   0.703   7.405   5.865  0.2446 -0.5880  1.8101
51009SOL     OW57583   2.148   9.405  10.468  0.0725  0.1490 -0.2983
51009SOL    HW157584   2.053   9.406  10.475 -0.1142  0.8600 -2.3974
51009SOL    HW257585   2.174   9.497  10.474  0.6062  0.0006 -0.2040
51010SOL     OW57586   0.745   8.049   0.757  0.2672 -0.0709 -0.1338
51010SOL    HW157587   0.658   8.036   0.718  0.1282  0.5954 -0.0655
51010SOL    HW257588   0.786   8.115   0.702 -0.0259  1.0663  0.9528
51011SOL     OW57589   8.505   5.045   1.174 -0.2492  0.4514  0.5280
51011SOL    HW157590   8.414   5.047   1.147 -0.1379 -1.4392 -0.1729
51011SOL    HW257591   8.554   5.030   1.093  0.3421 -2.0314  1.2375
51012SOL     OW57592   1.998   0.203   7.377 -0.1399  0.2414 -0.1699
51012SOL    HW157593   2.013   0.285   7.330  0.5997 -0.2948 -0.8962
51012SOL    HW257594   2.001   0.227   7.469 -1.2207  1.2474 -0.3761
51013SOL     OW57595   5.386   7.904   0.331  0.2699 -0.1936 -0.4130
51013SOL    HW157596   5.301   7.891   0.289  0.6708 -0.8276 -1.0460
51013SOL    HW257597   5.450   7.885   0.263  0.9331  1.1425 -0.1935
51014SOL     OW57598   2.574   0.228   8.135 -0.6150 -0.7499 -0.0177
51014SOL    HW157599   2.601   0.234   8.044 -1.1917 -0.6483 -0.1889
51014SOL    HW257600   2.524   0.309   8.151  1.5368  0.4560  1.1156
51015SOL     OW57601  12.100  12.010   1.361  0.4317 -0.3819  0.2501
51015SOL    HW157602  12.103  12.060   1.279 -1.6189 -0.7945 -0.1564
51015SOL    HW257603  12.079  12.075   1.428 -0.3270 -0.3947  0.0336
51016SOL     OW57604   2.792   8.664   1.867 -0.1349  0.5727  0.0287
51016SOL    HW157605   2.884   8.679   1.890 -0.1948  0.4046  0.3953
51016SOL    HW257606   2.745   8.737   1.908 -0.5274 -0.9755  2.5439
51017SOL     OW57607   2.177   4.202   3.239  0.4152  0.2653  0.2476
51017SOL    HW157608   2.211   4.288   3.215  0.4647  0.4855  1.0915
51017SOL    HW257609   2.240   4.167   3.302  0.5774 -0.5384 -0.3457
51018SOL     OW57610  10.815   5.902   6.540 -0.0035  0.5442 -0.4604
51018SOL    HW157611  10.855   5.874   6.622  1.9295 -0.4480 -1.6690
51018SOL    HW257612  10.791   5.821   6.495 -0.3799  1.0446 -1.1984
51019SOL     OW57613   4.338   1.604   6.027 -0.5012 -0.3828  0.4667
51019SOL    HW157614   4.296   1.576   6.108 -0.6945  0.9802  0.8484
51019SOL    HW257615   4.286   1.677   5.996  0.8562  0.5479  0.2946
51020SOL     OW57616   8.929   2.202   6.520 -0.3664 -0.3783 -0.2169
51020SOL    HW157617   8.905   2.294   6.527  3.8341  1.3646 -3.7591
51020SOL    HW257618   8.991   2.188   6.591 -0.9580 -0.4736  0.2853
51021SOL     OW57619   8.224   0.492   2.770 -0.0829  0.4640  0.3456
51021SOL    HW157620   8.144   0.537   2.742 -0.5315  1.7172  3.2843
51021SOL    HW257621   8.282   0.562   2.799  1.9230 -0.4737 -1.0920
51022SOL     OW57622   3.819   5.440   1.030 -0.0479  0.3102 -0.4056
51022SOL    HW157623   3.730   5.412   1.051  0.0508 -0.0860 -0.5016
51022SOL    HW257624   3.866   5.437   1.113  0.1008 -0.3426 -0.5086
51023SOL     OW57625   7.789  10.968   5.063 -0.0944 -0.3930 -0.0204
51023SOL    HW157626   7.759  10.877   5.065 -1.3064 -0.0110  0.9015
51023SOL    HW257627   7.800  10.988   4.971  0.4635 -1.5618 -0.2232
51024SOL     OW57628   5.848   0.480   9.816  1.1530  0.3758  0.0784
51024SOL    HW157629   5.759   0.471   9.850  0.7197  4.2677  0.4223
51024SOL    HW257630   5.881   0.390   9.810 -2.2601 -1.1121  1.2709
51025SOL     OW57631   8.136   3.760  11.775  0.0824 -0.2245  0.0824
51025SOL    HW157632   8.080   3.824  11.732 -1.3544 -0.5940  1.3004
51025SOL    HW257633   8.193   3.812  11.832  1.6831  0.2261 -1.8258
51026SOL     OW57634  11.186   0.461   5.129 -0.0392  0.0387  0.3605
51026SOL    HW157635  11.159   0.538   5.178 -0.0227  0.3718 -0.1510
51026SOL    HW257636  11.264   0.488   5.081 -0.4912 -0.0542 -0.4446
51027SOL     OW57637   1.886   8.931  10.590  0.5068 -0.0389  0.0069
51027SOL    HW157638   1.896   8.989  10.665  3.3348  0.7418 -0.8364
51027SOL    HW257639   1.961   8.951  10.534 -1.0780 -1.0639 -2.7271
51028SOL     OW57640   1.396   9.119  10.561 -0.0223  0.1200 -0.1582
51028SOL    HW157641   1.477   9.074  10.582  0.3474  0.2178 -1.2656
51028SOL    HW257642   1.381   9.099  10.468 -1.7674 -0.6612  0.2517
51029SOL     OW57643   0.648  10.334   1.532 -0.4372  0.1953  0.0615
51029SOL    HW157644   0.594  10.412   1.523  0.5485  0.7319 -1.4272
51029SOL    HW257645   0.738  10.364   1.518  0.1074 -0.9723  0.8440
51030SOL     OW57646   6.505   3.236  10.461 -0.4574 -0.3618 -0.0281
51030SOL    HW157647   6.550   3.304  10.512 -0.2519 -2.6048  3.0790
51030SOL    HW257648   6.565   3.215  10.390  0.2774  1.3920  0.0193
51031SOL     OW57649   3.424   9.495   7.974  0.2820  0.0353 -0.1414
51031SOL    HW157650   3.465   9.508   7.888  2.2841 -0.2766  0.7202
51031SOL    HW257651   3.459   9.566   8.028  1.3113 -1.4050  1.1668
51032SOL     OW57652   2.877   1.221   1.927  0.4961 -0.8850  0.3870
51032SOL    HW157653   2.922   1.143   1.961  2.3601  0.1646  0.4555
51032SOL    HW257654   2.798   1.186   1.886  1.2543 -2.8127  0.4290
51033SOL     OW57655   4.122   7.945   0.489  0.3487 -0.1752  0.0764
51033SOL    HW157656   4.028   7.925   0.480  0.3211  0.3366 -0.8348
51033SOL    HW257657   4.152   7.886   0.558 -0.2354 -1.7136 -0.9386
51034SOL     OW57658   5.769   5.997   2.198 -0.3975  0.1878 -0.3281
51034SOL    HW157659   5.859   6.014   2.225 -0.0451 -0.1434 -1.2542
51034SOL    HW257660   5.759   6.044   2.116 -0.8275 -0.3868 -0.6152
51035SOL     OW57661   4.966   8.643   1.194 -0.1760  0.2297  0.4340
51035SOL    HW157662   4.919   8.724   1.170 -0.6564  0.4841  2.1139
51035SOL    HW257663   4.963   8.641   1.289  0.6248 -1.3299  0.4560
51036SOL     OW57664  10.083   8.141  10.385  0.1053  0.3438  0.2256
51036SOL    HW157665  10.081   8.144  10.480 -1.8693  1.0143  0.2146
51036SOL    HW257666  10.122   8.224  10.359 -0.4408  0.6754  0.4526
51037SOL     OW57667   6.924   1.392  11.018 -0.3675 -0.4307 -0.9953
51037SOL    HW157668   6.973   1.413  10.938  0.5404 -0.3691 -0.4359
51037SOL    HW257669   6.968   1.315  11.053 -0.2576  0.0111 -0.1387
51038SOL     OW57670   8.621   8.908   3.049 -0.3242 -0.0783 -0.1884
51038SOL    HW157671   8.589   8.944   2.966 -0.8072  1.2501  0.5474
51038SOL    HW257672   8.704   8.867   3.026 -0.4445  0.2804 -1.3378
51039SOL     OW57673   3.420   7.547   8.358 -0.2582 -0.6830 -0.4510
51039SOL    HW157674   3.335   7.587   8.378  0.2961  1.3860 -1.8910
51039SOL    HW257675   3.470   7.556   8.439 -0.4673  0.8007 -0.4608
51040SOL     OW57676   0.807   6.826   3.692 -0.9308 -0.3124 -0.7598
51040SOL    HW157677   0.727   6.855   3.649 -0.8724 -0.2070 -0.7965
51040SOL    HW257678   0.809   6.731   3.677  0.0035 -0.0501 -2.5207
51041SOL     OW57679   0.798   0.050   0.385  0.2832  0.2329 -0.8082
51041SOL    HW157680   0.812   0.119   0.450  2.6245 -1.7380  0.9755
51041SOL    HW257681   0.749  -0.017   0.432 -0.9379  0.1332 -2.1589
51042SOL     OW57682   3.551   1.174   1.609  0.4173 -0.0015 -0.2112
51042SOL    HW157683   3.620   1.177   1.543  0.4778 -0.8392 -0.1882
51042SOL    HW257684   3.552   1.262   1.648  1.6890 -0.0912  0.0125
51043SOL     OW57685  11.202   9.037   4.168 -0.4542 -0.2344 -0.1875
51043SOL    HW157686  11.169   9.017   4.080 -0.2745 -0.1978 -0.2626
51043SOL    HW257687  11.290   9.000   4.170 -0.5733 -0.5031  0.0822
51044SOL     OW57688   1.233  12.096   7.934 -0.0827 -0.1584  0.0464
51044SOL    HW157689   1.220  12.006   7.906  0.2074  0.5848 -2.7909
51044SOL    HW257690   1.329  12.106   7.938 -0.1110  0.0553  0.2078
51045SOL     OW57691  11.552   4.880   4.664 -0.2986 -0.3204  0.7599
51045SOL    HW157692  11.609   4.953   4.640 -1.3392  0.4850  0.6237
51045SOL    HW257693  11.501   4.863   4.584  0.0326 -1.3117  0.7427
51046SOL     OW57694   5.099   7.159   0.391  0.4310 -0.0621  0.0164
51046SOL    HW157695   5.189   7.146   0.362  0.2258  0.3960 -0.8331
51046SOL    HW257696   5.105   7.227   0.458  1.0513 -1.9107  1.9555
51047SOL     OW57697   5.683   0.872  11.196  0.4382 -0.6450  0.0010
51047SOL    HW157698   5.690   0.872  11.101 -0.4534 -2.2082 -0.1001
51047SOL    HW257699   5.620   0.941  11.216  1.6040  0.5646 -0.4276
51048SOL     OW57700   6.025   2.174   6.049 -0.3099 -0.2127  0.2474
51048SOL    HW157701   6.015   2.194   6.142 -2.1298 -0.2705  0.0982
51048SOL    HW257702   5.976   2.092   6.037 -1.3094  0.5173 -0.9977
51049SOL     OW57703   6.389   2.058   1.378 -0.5957  0.0565  0.4140
51049SOL    HW157704   6.483   2.062   1.394 -0.8010  1.2171  1.5432
51049SOL    HW257705   6.361   1.977   1.419 -0.2430  0.2404  1.0330
51050SOL     OW57706   0.392   1.934   4.446 -1.1062 -0.3108  0.0274
51050SOL    HW157707   0.433   1.985   4.516 -0.1400  1.1637 -1.5093
51050SOL    HW257708   0.449   1.858   4.435 -0.0225  0.5426 -0.5325
51051SOL     OW57709   0.296   3.910   1.671  0.2683  0.0275  0.2697
51051SOL    HW157710   0.234   3.979   1.695 -1.2369 -0.4083 -2.0020
51051SOL    HW257711   0.371   3.922   1.730 -0.7083  2.4589  1.1163
51052SOL     OW57712   7.998   9.691  11.440  0.2793 -0.5367  0.5301
51052SOL    HW157713   7.932   9.737  11.492  0.8340  1.5395 -0.5322
51052SOL    HW257714   8.046   9.760  11.395  0.0349 -2.2027 -2.5034
51053SOL     OW57715   4.671  10.317   6.122  0.4567  0.3322 -0.6270
51053SOL    HW157716   4.731  10.293   6.051  1.3765  2.2412 -0.5777
51053SOL    HW257717   4.596  10.356   6.077  0.0306 -0.4521 -0.6140
51054SOL     OW57718   7.993   2.413   2.976 -0.2821 -0.0633 -0.2845
51054SOL    HW157719   7.993   2.333   3.029  0.2333  0.2646  0.2156
51054SOL    HW257720   7.901   2.431   2.959 -0.4716  0.0124  0.7773
51055SOL     OW57721   0.187  11.844   1.930 -0.2535  0.0721 -0.0416
51055SOL    HW157722   0.164  11.754   1.906  1.3771  0.0926 -1.9304
51055SOL    HW257723   0.104  11.885   1.953 -1.3935 -1.2369 -1.5905
51056SOL     OW57724   1.757   3.160   3.285 -0.6130  0.1813  0.0374
51056SOL    HW157725   1.715   3.219   3.348 -0.9233 -1.1012  1.0710
51056SOL    HW257726   1.815   3.217   3.235 -1.3013  1.4601  0.6314
51057SOL     OW57727   6.879   6.843  11.221 -0.3982  0.2840  0.2930
51057SOL    HW157728   6.821   6.873  11.151  0.0116 -0.8218 -0.5446
51057SOL    HW257729   6.907   6.756  11.193  1.0520  0.4770  1.0560
51058SOL     OW57730   6.229   6.367   2.959  0.2290 -0.3166 -0.1239
51058SOL    HW157731   6.217   6.272   2.967 -0.5063 -0.4787 -2.4957
51058SOL    HW257732   6.306   6.376   2.904 -1.1661  0.3366 -2.1014
51059SOL     OW57733   2.106   3.652  11.279 -0.3054 -0.4161  0.0958
51059SOL    HW157734   2.048   3.664  11.354  0.5674 -1.0998  0.9187
51059SOL    HW257735   2.164   3.581  11.306  0.7802  0.1158 -0.7637
51060SOL     OW57736   0.205  11.746   5.129  0.5225  0.4230  0.0593
51060SOL    HW157737   0.230  11.762   5.220  0.1281  1.5141 -0.0092
51060SOL    HW257738   0.109  11.739   5.131  0.6404 -2.6482  0.1593
51061SOL     OW57739   7.242   2.630   6.142  0.7163  0.0254  0.0140
51061SOL    HW157740   7.324   2.585   6.119  2.1331  1.7527  1.4260
51061SOL    HW257741   7.253   2.719   6.109 -0.5684  0.3200  0.3256
51062SOL     OW57742   8.449   3.052   5.058 -0.6485 -0.2469 -0.4000
51062SOL    HW157743   8.410   3.093   4.981 -0.2555  0.3321 -0.2940
51062SOL    HW257744   8.525   3.006   5.025 -1.3706 -1.3334 -0.5987
51063SOL     OW57745  10.166   5.031   2.931 -0.5557 -0.2878  0.0531
51063SOL    HW157746  10.181   5.107   2.874  0.2906 -0.6929 -0.2874
51063SOL    HW257747  10.246   5.024   2.982 -1.2380 -0.0507  1.1807
51064SOL     OW57748   0.840  11.509   1.439 -0.0067 -0.4742 -0.2035
51064SOL    HW157749   0.922  11.468   1.410  1.0309  0.1916  1.5863
51064SOL    HW257750   0.862  11.602   1.447 -1.0783 -0.2207 -0.0675
51065SOL     OW57751  10.467   1.269   3.803 -0.0606 -0.0190  0.0664
51065SOL    HW157752  10.460   1.176   3.783  0.7022  0.1731 -1.2762
51065SOL    HW257753  10.535   1.275   3.871  1.8218 -0.3013 -1.6703
51066SOL     OW57754   5.556   2.499  11.317 -0.8219 -0.3225 -0.0535
51066SOL    HW157755   5.565   2.471  11.226 -0.1859  0.5301 -0.2680
51066SOL    HW257756   5.641   2.483  11.357 -1.1875 -0.9744  0.4820
51067SOL     OW57757   8.198  10.074   4.154  0.2428 -0.1335  1.1125
51067SOL    HW157758   8.124  10.133   4.146 -0.2786 -0.7591  1.2012
51067SOL    HW257759   8.243  10.079   4.069 -0.6133 -0.6710  0.6164
51068SOL     OW57760   9.558   3.545   8.403 -0.0700  0.0129 -0.3504
51068SOL    HW157761   9.601   3.586   8.478  0.0947  0.1397 -0.5137
51068SOL    HW257762   9.603   3.462   8.392  0.2013  0.1912 -0.5851
51069SOL     OW57763   4.806   1.133  11.810  0.6325  0.4007  0.1521
51069SOL    HW157764   4.793   1.046  11.773 -0.0717  0.7236 -0.3953
51069SOL    HW257765   4.799   1.192  11.736 -1.4236  1.1115  0.8327
51070SOL     OW57766   6.399   5.064   7.093 -0.1829 -0.1253 -0.4006
51070SOL    HW157767   6.388   4.969   7.098  1.4751 -0.3682 -0.7154
51070SOL    HW257768   6.416   5.080   7.000  0.6856  0.3288 -0.1676
51071SOL     OW57769   4.754  10.171   4.312 -0.3969  0.0774 -0.0420
51071SOL    HW157770   4.772  10.079   4.295  0.1969  0.5996 -2.8165
51071SOL    HW257771   4.825  10.201   4.368 -0.3031 -1.0163  0.4326
51072SOL     OW57772   3.418   9.755   6.426  0.3259 -0.6953  0.0396
51072SOL    HW157773   3.391   9.726   6.339  1.0064  1.7585 -1.0500
51072SOL    HW257774   3.426   9.850   6.420  1.6735 -0.5554  2.4313
51073SOL     OW57775   6.948   8.881   9.358 -0.1060  0.4329  0.2479
51073SOL    HW157776   7.002   8.960   9.363 -0.2566  0.4887  1.2068
51073SOL    HW257777   7.001   8.813   9.399 -0.1600  0.1321 -0.1703
51074SOL     OW57778  12.042   7.279  10.004 -0.2203  0.4483  0.6446
51074SOL    HW157779  12.003   7.253   9.921 -0.6765 -0.1023  1.0201
51074SOL    HW257780  11.988   7.237  10.070  0.6964  0.1058  1.2002
51075SOL     OW57781   7.325   4.390   5.807 -0.3817 -0.0886  0.0018
51075SOL    HW157782   7.377   4.465   5.835  0.7615  0.1405 -2.4447
51075SOL    HW257783   7.376   4.314   5.835  1.3558  0.1351 -2.2799
51076SOL     OW57784  10.859   6.987   8.766 -0.1536  0.0839 -0.1182
51076SOL    HW157785  10.939   7.019   8.725 -0.9374  1.3084 -0.7545
51076SOL    HW257786  10.815   7.065   8.799 -0.7123 -0.6466  0.9402
51077SOL     OW57787   7.849   7.328   2.303  0.0918  0.8886 -0.4792
51077SOL    HW157788   7.846   7.232   2.304  0.6481  0.8504  1.2740
51077SOL    HW257789   7.785   7.353   2.236 -0.1726 -0.6921 -0.8662
51078SOL     OW57790   3.493   3.963  10.810  0.5319 -0.3979  0.5548
51078SOL    HW157791   3.568   3.952  10.751  0.7916 -1.5784  1.0848
51078SOL    HW257792   3.516   3.912  10.887  1.0793  2.6429  2.5897
51079SOL     OW57793   3.813   4.014   6.982  0.6211 -0.2721 -0.3250
51079SOL    HW157794   3.803   3.962   7.062 -0.8679 -0.1264 -0.3823
51079SOL    HW257795   3.907   4.028   6.974  0.8835 -1.2049  0.8148
51080SOL     OW57796   2.009   7.168  10.787 -0.2947  0.8188 -0.2847
51080SOL    HW157797   1.941   7.191  10.724 -0.6895  0.0719 -0.1435
51080SOL    HW257798   2.060   7.100  10.743 -0.0606  0.8886 -0.1232
51081SOL     OW57799   6.277   9.872   3.520  0.2734 -1.0618  0.0573
51081SOL    HW157800   6.294   9.935   3.449  0.4411 -0.0932  0.9321
51081SOL    HW257801   6.356   9.817   3.522  0.1594 -1.2596 -0.6665
51082SOL     OW57802   6.017   5.705   6.673 -0.1343 -0.3071  0.2048
51082SOL    HW157803   6.015   5.790   6.631  3.3591 -0.4071 -0.5264
51082SOL    HW257804   5.957   5.651   6.623  0.7758  0.6861 -2.0713
51083SOL     OW57805   7.181  10.895   9.321 -0.3355  0.3958 -0.5894
51083SOL    HW157806   7.128  10.823   9.353 -1.1020  1.4833  0.7117
51083SOL    HW257807   7.139  10.921   9.239 -0.6384 -0.0019 -0.5627
51084SOL     OW57808  10.878   6.193   7.146 -0.3739  0.7904 -0.1597
51084SOL    HW157809  10.819   6.231   7.211 -1.4139  0.6150 -0.9632
51084SOL    HW257810  10.886   6.260   7.078  1.5283  1.3865  0.5945
51085SOL     OW57811   5.293   3.672  10.928  0.8953 -0.1057 -0.1093
51085SOL    HW157812   5.206   3.690  10.965  0.2841 -3.1843  0.2239
51085SOL    HW257813   5.354   3.696  10.998  0.0051 -1.7089  1.2901
51086SOL     OW57814   9.360  10.917   8.312 -0.3858 -0.5759  0.1731
51086SOL    HW157815   9.306  10.898   8.388 -1.0392 -1.7696 -0.5598
51086SOL    HW257816   9.321  10.866   8.241 -0.1198  0.9189 -1.1007
51087SOL     OW57817  11.208  11.437   4.643 -0.0140 -0.4636  0.4586
51087SOL    HW157818  11.112  11.434   4.650 -0.1889  0.7729 -0.9780
51087SOL    HW257819  11.233  11.348   4.616 -1.0433 -0.0981 -1.8926
51088SOL     OW57820  11.221   2.933   2.085  0.1257 -0.1061 -0.1699
51088SOL    HW157821  11.250   2.987   2.012  1.4544 -0.7178 -0.1185
51088SOL    HW257822  11.142   2.978   2.118  0.6438  1.2662 -0.7162
51089SOL     OW57823   5.170   7.960   9.758 -0.0313 -0.2341 -0.3634
51089SOL    HW157824   5.129   7.974   9.672 -2.3092  1.2518  0.8399
51089SOL    HW257825   5.104   7.912   9.808  0.6491  0.1786  0.9727
51090SOL     OW57826   7.093   9.326  10.397  0.0306  0.5056 -0.2154
51090SOL    HW157827   7.144   9.245  10.386  0.0330  0.6877 -1.6907
51090SOL    HW257828   7.110   9.376  10.318 -2.6399  0.4627 -0.9180
51091SOL     OW57829   2.709   0.972   7.235 -0.2411 -0.3875 -0.5064
51091SOL    HW157830   2.747   0.967   7.323 -0.1129  1.0799 -0.4538
51091SOL    HW257831   2.781   1.003   7.181 -0.8986  0.8446 -0.7099
51092SOL     OW57832   8.330   2.768   4.144  0.4819 -0.1083  0.0933
51092SOL    HW157833   8.285   2.688   4.118  2.0494 -0.6905 -0.9823
51092SOL    HW257834   8.280   2.838   4.102 -1.4842 -0.3896  1.8503
51093SOL     OW57835   8.613   0.254   4.416 -0.1137 -0.0765 -0.2173
51093SOL    HW157836   8.570   0.273   4.499  1.2589 -0.7563  0.6909
51093SOL    HW257837   8.638   0.340   4.381  1.3789  0.1542  1.2597
51094SOL     OW57838   1.608   6.784   0.232 -0.1297  0.4335 -0.0402
51094SOL    HW157839   1.700   6.800   0.212 -0.2759  1.4898  0.0824
51094SOL    HW257840   1.560   6.824   0.159 -0.4949 -0.1829 -0.1463
51095SOL     OW57841   5.910  12.095   7.645 -0.4775 -0.8385  0.0548
51095SOL    HW157842   5.829  12.138   7.672 -0.2224 -0.7854  0.7517
51095SOL    HW257843   5.973  12.166   7.637 -0.3536 -0.9463  0.0739
51096SOL     OW57844   9.885   3.281   8.884  0.2866  0.4008 -0.3141
51096SOL    HW157845   9.826   3.226   8.935  0.7286  0.9667  0.8336
51096SOL    HW257846   9.972   3.247   8.904  0.6042  1.7550  0.7519
51097SOL     OW57847   0.540  11.320   2.764  0.0136 -0.9785 -0.1227
51097SOL    HW157848   0.580  11.284   2.685  2.3390  2.6874 -0.8607
51097SOL    HW257849   0.613  11.357   2.814 -1.9026  1.6616  0.9805
51098SOL     OW57850   3.679  10.328   7.173  0.0941  0.4074 -0.5302
51098SOL    HW157851   3.712  10.254   7.225 -1.2430  0.1293 -0.0418
51098SOL    HW257852   3.688  10.404   7.230  1.2902  0.6145 -0.9629
51099SOL     OW57853  11.522   3.318   7.178 -0.0086 -0.1013 -0.0252
51099SOL    HW157854  11.487   3.392   7.127 -0.5151 -0.7025 -0.5686
51099SOL    HW257855  11.502   3.241   7.124 -0.1584 -0.7075  0.8835
51100SOL     OW57856   5.099   5.157   3.885 -0.5042 -0.0468  0.0422
51100SOL    HW157857   5.084   5.063   3.902 -1.1878  0.0611  0.0528
51100SOL    HW257858   5.072   5.169   3.794  2.1065 -0.3894 -0.8686
51101SOL     OW57859   7.770   2.454   0.405  0.3793 -0.7057  0.5993
51101SOL    HW157860   7.795   2.448   0.497 -0.2999 -1.7609  0.7230
51101SOL    HW257861   7.744   2.366   0.381 -2.3952  0.1271  0.2342
51102SOL     OW57862   5.102   0.529   9.334  0.1398  0.2594 -0.3774
51102SOL    HW157863   5.013   0.494   9.332 -0.2163  1.1261  0.1393
51102SOL    HW257864   5.155   0.461   9.291 -0.6068 -0.6929  0.1709
51103SOL     OW57865   3.718  11.695   9.276  0.1649  0.0574 -0.5788
51103SOL    HW157866   3.737  11.775   9.226  1.0049  0.5788  0.5239
51103SOL    HW257867   3.723  11.625   9.211 -0.2280  0.8525 -1.5012
51104SOL     OW57868   9.204   2.880   4.673 -0.3119 -0.0100  0.0017
51104SOL    HW157869   9.164   2.919   4.750 -0.5346 -0.9582  0.3889
51104SOL    HW257870   9.286   2.841   4.705 -0.9535 -1.4059  0.0291
51105SOL     OW57871   3.395  10.911   5.660 -0.0616  0.2735 -0.0321
51105SOL    HW157872   3.446  10.985   5.692  1.9585 -1.0231 -0.0353
51105SOL    HW257873   3.347  10.879   5.736 -0.0777  0.8948  0.2216
51106SOL     OW57874   1.447   5.428   2.325  0.1303  0.1076  0.0486
51106SOL    HW157875   1.539   5.430   2.300  0.1819 -0.3988  0.1733
51106SOL    HW257876   1.407   5.365   2.264 -0.0740  0.1138  0.1727
51107SOL     OW57877  10.298   4.978   8.491 -0.6505 -0.3318 -0.0927
51107SOL    HW157878  10.252   4.898   8.518  1.0195 -0.7166  1.8798
51107SOL    HW257879  10.374   4.983   8.549 -0.6770  2.6986 -0.1333
51108SOL     OW57880   0.631   8.015  10.875 -0.3026  0.1027  0.0255
51108SOL    HW157881   0.702   7.953  10.861 -0.2531  0.1560  0.0430
51108SOL    HW257882   0.674   8.100  10.878 -0.4779  0.2476 -1.0236
51109SOL     OW57883   6.359   2.946   8.594  0.6691  0.0772  0.0837
51109SOL    HW157884   6.391   2.862   8.561  0.7399  0.0554  0.2081
51109SOL    HW257885   6.311   2.924   8.673  0.4467  0.1236 -0.0383
51110SOL     OW57886   8.503   8.349   3.749 -0.2343  0.0616  0.3086
51110SOL    HW157887   8.425   8.294   3.739 -0.4328  0.2929  0.5703
51110SOL    HW257888   8.576   8.287   3.744 -0.4557 -0.2227  0.5582
51111SOL     OW57889   6.151   6.614   8.281 -0.5836 -0.1266 -0.0990
51111SOL    HW157890   6.173   6.689   8.226  1.5104  0.0788  0.9078
51111SOL    HW257891   6.155   6.539   8.221  1.5338  0.1075 -0.3348
51112SOL     OW57892   0.110  10.986   9.763 -0.1935 -1.3488 -0.1254
51112SOL    HW157893   0.104  10.951   9.674  2.4866 -4.2001  0.6474
51112SOL    HW257894   0.164  11.064   9.755  0.4949 -1.8907 -0.9606
51113SOL     OW57895   3.383   7.524   7.625  0.3217  0.2834  0.1784
51113SOL    HW157896   3.478   7.524   7.636  0.5741 -0.1260 -1.5823
51113SOL    HW257897   3.367   7.451   7.564 -0.8996  1.4300 -0.9372
51114SOL     OW57898   5.185   1.100   3.391  0.0285  0.5430 -0.2221
51114SOL    HW157899   5.122   1.034   3.362 -0.4676  0.6735  0.5488
51114SOL    HW257900   5.253   1.100   3.322  0.1106 -0.8527 -0.1679
51115SOL     OW57901   5.253   6.265   9.918 -0.0920  0.3709 -0.3452
51115SOL    HW157902   5.348   6.252   9.908  0.1005  1.7997 -0.6788
51115SOL    HW257903   5.225   6.297   9.832 -0.6863  0.9517  0.0647
51116SOL     OW57904   4.969   5.093   6.119 -0.1559  0.0705  0.6419
51116SOL    HW157905   4.891   5.101   6.174 -0.8225 -2.0078  0.0738
51116SOL    HW257906   4.980   4.999   6.107  0.6695  0.4187 -1.7981
51117SOL     OW57907   0.386   4.718   0.870 -0.6006  0.0666  0.4387
51117SOL    HW157908   0.404   4.771   0.792 -1.3695 -1.8255 -1.1056
51117SOL    HW257909   0.359   4.781   0.936 -0.1255  1.7274 -0.8867
51118SOL     OW57910   2.412   1.385   3.675 -0.1122  0.2936 -0.0697
51118SOL    HW157911   2.452   1.307   3.637 -1.5604 -0.9991  0.9598
51118SOL    HW257912   2.331   1.398   3.624 -0.7655  0.0568  0.8806
51119SOL     OW57913  10.455  11.198   5.004 -0.2687 -0.0368 -0.2668
51119SOL    HW157914  10.484  11.123   5.057 -0.1994 -0.3627 -0.7679
51119SOL    HW257915  10.389  11.242   5.059  1.0817  0.6687  0.8630
51120SOL     OW57916   9.316   4.663   4.519 -0.2601  0.1050  0.4923
51120SOL    HW157917   9.406   4.630   4.525 -0.2891  0.1071  0.9673
51120SOL    HW257918   9.307   4.692   4.428 -0.3696 -1.5982 -0.0657
51121SOL     OW57919   8.243   5.241   3.112  0.2082 -0.2008  0.1250
51121SOL    HW157920   8.153   5.273   3.121  0.3410  0.0511  0.5696
51121SOL    HW257921   8.234   5.162   3.058 -0.5965 -1.6130  2.1969
51122SOL     OW57922   0.449   7.500   4.187  0.0886 -0.1284 -0.2399
51122SOL    HW157923   0.407   7.551   4.256  0.1904  0.2067 -0.4261
51122SOL    HW257924   0.414   7.411   4.198  0.3250 -0.1458  0.4247
51123SOL     OW57925  11.391   1.622   7.488  0.0200 -0.3521  0.7464
51123SOL    HW157926  11.421   1.534   7.464  1.7037  0.6791 -1.2745
51123SOL    HW257927  11.337   1.650   7.414 -2.0748 -0.3179  2.2015
51124SOL     OW57928   6.779   6.234   1.848  0.2382  0.6647 -0.2979
51124SOL    HW157929   6.802   6.323   1.874  0.1129  0.4329  0.6249
51124SOL    HW257930   6.696   6.216   1.892 -1.8231  1.4440 -3.4660
51125SOL     OW57931   1.476   7.351   8.912 -0.5882 -0.1412  0.1405
51125SOL    HW157932   1.428   7.281   8.956  3.6408 -2.6033  1.5113
51125SOL    HW257933   1.493   7.317   8.824  1.1879 -0.7954  0.6965
51126SOL     OW57934  12.122   6.091   2.087  0.2422 -0.0587 -0.2046
51126SOL    HW157935  12.180   6.113   2.015  0.0788  0.0663 -0.2992
51126SOL    HW257936  12.127   5.996   2.094 -0.2239 -0.1302 -0.7877
51127SOL     OW57937   9.240   5.470   9.297  0.0037 -0.5035  0.4841
51127SOL    HW157938   9.162   5.525   9.308 -1.1087 -2.1852  1.3051
51127SOL    HW257939   9.276   5.497   9.213 -0.6538  1.2777  0.7234
51128SOL     OW57940  11.356  11.808  10.363 -0.2898  0.2202 -0.3735
51128SOL    HW157941  11.332  11.878  10.424 -2.3237 -1.0470  0.3680
51128SOL    HW257942  11.307  11.827  10.284 -0.0552  0.1746 -0.5318
51129SOL     OW57943   0.161  10.413   9.332 -0.0913 -0.0531 -0.1431
51129SOL    HW157944   0.142  10.426   9.239  0.4344 -1.0179 -0.3991
51129SOL    HW257945   0.144  10.498   9.373  0.4923  0.6127 -1.2560
51130SOL     OW57946  11.118   8.052   6.288 -0.5007  0.4412  0.1701
51130SOL    HW157947  11.044   8.052   6.227 -0.0264  1.9875 -0.4744
51130SOL    HW257948  11.150   7.962   6.288 -1.4158  0.1010 -0.7568
51131SOL     OW57949  11.377   3.424   1.135  0.2558 -0.0295  0.2406
51131SOL    HW157950  11.370   3.329   1.122  0.7283 -0.1839  1.0440
51131SOL    HW257951  11.318   3.443   1.208  1.6127 -0.0280  1.3820
51132SOL     OW57952   7.084   5.545   4.043  0.3377 -0.0495  0.0651
51132SOL    HW157953   7.057   5.636   4.054 -0.2819 -0.1798 -0.3290
51132SOL    HW257954   7.177   5.549   4.022  0.5248  0.4405  0.9596
51133SOL     OW57955   2.731   0.103   5.313 -0.6096 -0.2958 -0.0588
51133SOL    HW157956   2.770   0.110   5.400 -1.7577  0.4036  0.4315
51133SOL    HW257957   2.748   0.188   5.272  0.5271 -0.8562 -0.8098
51134SOL     OW57958   0.774  10.377   5.563  0.2393  0.0597  0.1584
51134SOL    HW157959   0.702  10.441   5.561  0.2478  0.1457 -3.2082
51134SOL    HW257960   0.739  10.301   5.516  1.8194 -0.5067 -0.1503
51135SOL     OW57961   4.250   9.679   3.323  0.4005  0.5278  0.1349
51135SOL    HW157962   4.271   9.699   3.414 -0.5025 -1.3436  0.8100
51135SOL    HW257963   4.168   9.726   3.307  0.6222  0.9541  0.2429
51136SOL     OW57964   3.071  11.596   0.468 -0.0521 -0.3658  0.1846
51136SOL    HW157965   2.981  11.566   0.458 -1.5004  3.7747 -1.5559
51136SOL    HW257966   3.108  11.590   0.380  0.0426  1.2955  0.0699
51137SOL     OW57967   6.226   9.399  11.801  0.4718  0.3624 -0.4307
51137SOL    HW157968   6.229   9.485  11.760  1.5441  0.8295  0.5875
51137SOL    HW257969   6.317   9.375  11.815  0.1845 -0.9149 -0.6248
51138SOL     OW57970   4.711  11.963  10.998 -0.5181 -0.2105  0.7831
51138SOL    HW157971   4.787  11.907  10.982 -1.0113 -0.6617 -0.1151
51138SOL    HW257972   4.669  11.969  10.912 -2.3459 -1.2306  1.5614
51139SOL     OW57973   1.547   2.456   2.615 -0.0570 -0.2740 -0.2023
51139SOL    HW157974   1.500   2.532   2.649 -0.3095 -0.8033  0.6754
51139SOL    HW257975   1.625   2.492   2.573 -1.1340  0.6053 -1.5048
51140SOL     OW57976   1.002   4.101   9.502 -0.2172 -0.2155  0.5064
51140SOL    HW157977   1.070   4.076   9.564  1.6988  1.6275 -0.7248
51140SOL    HW257978   1.038   4.078   9.416 -0.8910  1.3074 -0.2141
51141SOL     OW57979   4.000   8.482  10.859 -0.4065  0.4807 -0.0224
51141SOL    HW157980   3.909   8.511  10.865 -0.1150  1.2614  1.0568
51141SOL    HW257981   3.996   8.396  10.818 -1.8288 -0.3546  1.7436
51142SOL     OW57982   2.776  10.168   4.357 -0.0472  0.6780  0.4869
51142SOL    HW157983   2.685  10.171   4.327 -0.2763  0.7236  1.1720
51142SOL    HW257984   2.776  10.105   4.429  0.7711 -0.5181 -0.5089
51143SOL     OW57985   0.374  10.649   6.866  0.6908 -0.0345 -0.1381
51143SOL    HW157986   0.407  10.713   6.803  1.5361  0.9962  1.2822
51143SOL    HW257987   0.437  10.652   6.938  0.0099 -1.5057  0.5709
51144SOL     OW57988   6.549   2.228   4.510  0.0603  0.2306 -0.0428
51144SOL    HW157989   6.473   2.185   4.472  0.3633 -0.1897 -0.1792
51144SOL    HW257990   6.516   2.270   4.590 -0.7048  1.5731 -1.0111
51145SOL     OW57991   1.378   6.385   9.654  0.0905 -0.0855 -0.0921
51145SOL    HW157992   1.425   6.463   9.625  0.2459 -0.5030 -1.0075
51145SOL    HW257993   1.373   6.394   9.749 -0.5274  1.3831 -0.2376
51146SOL     OW57994  11.925   4.187   9.673  0.4301  0.6687  0.0973
51146SOL    HW157995  11.948   4.154   9.760  2.1986 -0.9836 -0.9223
51146SOL    HW257996  11.834   4.214   9.681  1.5512  4.4861  3.5402
51147SOL     OW57997   5.944   7.493   1.742 -0.0710 -0.0882  0.1471
51147SOL    HW157998   5.977   7.427   1.803  0.7329  0.5875  0.4612
51147SOL    HW257999   5.870   7.534   1.788 -0.2877 -0.4619  0.1326
51148SOL     OW58000   9.870   5.611  11.575 -0.2756  0.4479  0.2274
51148SOL    HW158001   9.792   5.618  11.519  1.1949  0.7949 -1.9082
51148SOL    HW258002   9.898   5.520  11.566  0.8641  0.8763 -0.9753
51149SOL     OW58003   2.291   8.407   9.291  0.4842  0.0678  0.1151
51149SOL    HW158004   2.262   8.316   9.286  0.3506  0.1307 -0.2440
51149SOL    HW258005   2.263   8.436   9.377 -0.1635  0.0053 -0.0669
51150SOL     OW58006   3.423   4.429   7.309 -0.1079  0.5992 -0.2929
51150SOL    HW158007   3.505   4.432   7.358 -0.9325  1.1132  1.1331
51150SOL    HW258008   3.371   4.500   7.346 -0.9416  0.7323 -1.6527
51151SOL     OW58009   1.875   1.329   3.760 -0.1186  0.4284  0.1317
51151SOL    HW158010   1.932   1.369   3.694  1.6615  0.2859  1.4887
51151SOL    HW258011   1.818   1.400   3.789  0.5131  1.0263 -0.0704
51152SOL     OW58012   9.860   7.716   0.031  0.0790  0.1319 -0.1353
51152SOL    HW158013   9.793   7.648   0.044 -0.3771  0.3652 -1.1511
51152SOL    HW258014   9.832   7.761  -0.048  2.2764 -0.7754 -1.5102
51153SOL     OW58015   2.776   7.934  10.114 -0.4797 -0.1689  0.1549
51153SOL    HW158016   2.866   7.929  10.081 -0.0805  0.3230  1.1285
51153SOL    HW258017   2.754   7.843  10.136  0.0287 -0.2054  0.5344
51154SOL     OW58018   2.380   8.692   3.279  0.0105 -0.5952  0.3020
51154SOL    HW158019   2.405   8.689   3.186  0.1951 -0.8746  0.3562
51154SOL    HW258020   2.306   8.632   3.285 -1.0940  0.7020  0.0274
51155SOL     OW58021   7.365   6.362   6.047  0.1024  0.0711  0.1210
51155SOL    HW158022   7.403   6.373   5.960 -0.2048  0.6030  0.0477
51155SOL    HW258023   7.434   6.321   6.099  0.1975 -0.5022 -0.4410
51156SOL     OW58024   5.534   0.060  12.020 -0.3287  0.0939 -0.1645
51156SOL    HW158025   5.581   0.028  12.097  2.6219  0.6580 -1.6197
51156SOL    HW258026   5.583   0.026  11.946 -2.4758  0.4477 -1.8408
51157SOL     OW58027   7.985   2.992   4.686 -0.1339 -0.4113 -0.0176
51157SOL    HW158028   7.950   3.031   4.607 -1.9779 -0.1852  0.8558
51157SOL    HW258029   8.030   3.064   4.730  0.3331 -0.3797 -0.5403
51158SOL     OW58030   0.045   0.083   5.171 -0.0564 -0.5666  0.1782
51158SOL    HW158031   0.042   0.075   5.076 -0.0025 -1.9802  0.2795
51158SOL    HW258032   0.035  -0.006   5.203 -0.2061 -0.0926  1.5104
51159SOL     OW58033   2.517   5.534   7.357 -0.1023  0.3430  0.3123
51159SOL    HW158034   2.585   5.489   7.407 -1.4598 -1.6767  0.4334
51159SOL    HW258035   2.500   5.614   7.407  0.6718 -0.1681  1.4361
51160SOL     OW58036  11.982   0.312   1.993  0.5153  0.0799  0.4415
51160SOL    HW158037  11.992   0.302   2.088 -1.3438  0.5866  0.7261
51160SOL    HW258038  11.949   0.401   1.982  0.4149 -0.0902 -0.6714
51161SOL     OW58039  10.534   8.269   7.180  0.3142  0.2271 -0.3848
51161SOL    HW158040  10.451   8.314   7.195 -0.1066 -0.0479 -1.7889
51161SOL    HW258041  10.513   8.176   7.192  0.5203  0.1906 -0.3090
51162SOL     OW58042   1.094   3.564   9.470  0.5869 -0.3782  0.0598
51162SOL    HW158043   1.058   3.490   9.518 -0.8930  0.4748  0.3017
51162SOL    HW258044   1.156   3.604   9.531  1.2099 -1.2535  0.0152
51163SOL     OW58045   3.071  10.363  10.257  0.2682 -0.1866 -0.4031
51163SOL    HW158046   3.027  10.385  10.339 -0.4549 -0.6315 -0.6618
51163SOL    HW258047   3.118  10.443  10.232 -1.2799  0.6788 -0.6857
51164SOL     OW58048   3.677   8.147  10.397 -0.1496 -0.8480  0.2247
51164SOL    HW158049   3.750   8.197  10.433 -0.8505  0.6704 -0.3408
51164SOL    HW258050   3.707   8.057  10.396  1.5832 -0.3068  0.3264
51165SOL     OW58051   3.594   7.316  10.251  0.3043  0.0428 -0.1556
51165SOL    HW158052   3.563   7.388  10.307 -0.0664 -1.1387  1.2244
51165SOL    HW258053   3.570   7.343  10.162  2.7572  2.9470 -0.0961
51166SOL     OW58054   9.727   0.791   6.338  0.6531 -0.0313 -0.0074
51166SOL    HW158055   9.706   0.841   6.259  1.8755 -0.3649 -0.5649
51166SOL    HW258056   9.753   0.705   6.306  0.1391 -0.5214  0.8452
51167SOL     OW58057   5.927   2.045   8.538 -0.3677  0.3391 -0.6544
51167SOL    HW158058   5.978   1.965   8.524 -0.1210  0.3313  0.2439
51167SOL    HW258059   5.874   2.028   8.615  0.9356  1.6107  0.5932
51168SOL     OW58060  10.902   2.609  10.180  0.0535  0.2897  0.1836
51168SOL    HW158061  10.973   2.661  10.141  0.8893 -1.1171 -0.2645
51168SOL    HW258062  10.947   2.533  10.218 -1.1590 -0.2932  0.4846
51169SOL     OW58063  10.712  11.084   0.675 -0.1248 -0.7986  0.1083
51169SOL    HW158064  10.667  11.110   0.595 -0.6570 -0.7449  0.4183
51169SOL    HW258065  10.800  11.121   0.666 -0.4780  0.0343 -0.0247
51170SOL     OW58066   0.321   9.165   0.280 -0.2429  0.1353  0.0983
51170SOL    HW158067   0.396   9.158   0.339 -0.5410 -0.2242  0.4356
51170SOL    HW258068   0.322   9.082   0.231 -0.6619 -0.0470  0.3947
51171SOL     OW58069   2.257   2.485  10.570  0.0106 -0.0097  0.0441
51171SOL    HW158070   2.345   2.522  10.563  0.2528 -0.7509 -1.1128
51171SOL    HW258071   2.203   2.557  10.603  0.3113  1.6852 -2.8539
51172SOL     OW58072   9.130   7.061   5.901  0.4282  1.0271  0.6985
51172SOL    HW158073   9.154   6.969   5.887  0.0116  0.8783  0.9515
51172SOL    HW258074   9.213   7.104   5.921  0.8974  1.0485 -1.0851
51173SOL     OW58075   9.000   2.076  11.254 -0.5221 -0.7429  0.6633
51173SOL    HW158076   8.929   2.140  11.257  0.4131  0.4113 -0.6399
51173SOL    HW258077   8.959   1.996  11.221 -1.2055 -0.0590 -0.2045
51174SOL     OW58078   2.273   1.835  10.433  0.3294 -0.2603 -0.3403
51174SOL    HW158079   2.301   1.889  10.506 -1.7909 -1.8903  1.8217
51174SOL    HW258080   2.316   1.750  10.448  0.3154 -0.4557 -1.3294
51175SOL     OW58081   4.409   7.436   1.165  0.1168  0.2256 -0.2363
51175SOL    HW158082   4.482   7.392   1.210 -1.8643 -3.0853  0.0095
51175SOL    HW258083   4.426   7.530   1.180  0.6700 -0.4099  5.9751
51176SOL     OW58084   4.629   3.982   1.524  0.2147 -0.3690 -0.1258
51176SOL    HW158085   4.673   4.064   1.503  0.1512 -0.7390 -1.9328
51176SOL    HW258086   4.688   3.937   1.583  0.3395  0.8722  0.7415
51177SOL     OW58087   9.014   2.917   4.452  0.5770 -0.5042 -0.7090
51177SOL    HW158088   8.929   2.948   4.483  0.6993 -0.1788 -0.7014
51177SOL    HW258089   9.010   2.927   4.357  0.7190 -0.2096 -0.6836
51178SOL     OW58090   7.307   9.553   8.634  0.0877 -0.5755  0.5644
51178SOL    HW158091   7.306   9.517   8.722  1.6971  1.0589  1.3271
51178SOL    HW258092   7.349   9.486   8.580  3.0134  0.0088  1.9312
51179SOL     OW58093   6.277   1.134   6.441  0.0628 -0.1735 -0.1797
51179SOL    HW158094   6.358   1.185   6.445  0.5352 -0.9260 -0.1072
51179SOL    HW258095   6.249   1.127   6.532  0.6829 -1.1217 -0.0509
51180SOL     OW58096   8.979  10.455  10.194 -0.2532  0.2971  0.3011
51180SOL    HW158097   9.067  10.474  10.226 -0.1204 -3.3030  2.5640
51180SOL    HW258098   8.921  10.493  10.260 -0.3604  0.8943 -0.1260
51181SOL     OW58099   1.398   7.776   1.583 -0.1979  0.0876 -0.7915
51181SOL    HW158100   1.374   7.717   1.655 -2.7158  0.8491 -0.8931
51181SOL    HW258101   1.343   7.749   1.510  2.5082 -0.8489 -2.6313
51182SOL     OW58102  11.753   6.273   0.748  0.0624 -0.4410  0.4395
51182SOL    HW158103  11.841   6.302   0.774 -0.3947 -0.2628  1.8389
51182SOL    HW258104  11.745   6.184   0.783  0.0105 -0.8257 -0.4995
51183SOL     OW58105  10.438   7.364   0.732  0.4281 -0.0157  0.1341
51183SOL    HW158106  10.430   7.283   0.782 -1.4301  1.0646  1.7267
51183SOL    HW258107  10.352   7.406   0.740  0.2118  0.5853 -3.4677
51184SOL     OW58108   4.367   2.274   3.906 -0.4326  0.3392 -0.0977
51184SOL    HW158109   4.306   2.348   3.906 -0.2224  0.5578  1.3886
51184SOL    HW258110   4.373   2.249   3.998  0.5067 -0.6992 -0.4239
51185SOL     OW58111   4.974   7.499  10.216 -0.4080 -0.0674 -0.0795
51185SOL    HW158112   5.062   7.465  10.231  1.3097  2.4183 -3.3424
51185SOL    HW258113   4.945   7.455  10.136 -0.9372  1.1585 -0.5797
51186SOL     OW58114   0.138   4.102   9.431 -0.5276  0.2340  0.2704
51186SOL    HW158115   0.093   4.049   9.365  0.4519  1.2545 -1.2795
51186SOL    HW258116   0.110   4.064   9.515 -1.2703 -1.5495 -0.7174
51187SOL     OW58117   8.107   0.138   0.163 -0.2665  0.3937  0.3778
51187SOL    HW158118   8.167   0.211   0.175  0.7805  0.1862 -2.8071
51187SOL    HW258119   8.020   0.177   0.172  0.2618  2.0865 -1.2101
51188SOL     OW58120   6.115   4.449   4.047  0.7208 -0.0760 -0.1480
51188SOL    HW158121   6.085   4.376   4.102  1.1092 -0.6970 -0.7379
51188SOL    HW258122   6.177   4.496   4.103  0.7602 -0.4305  0.1139
51189SOL     OW58123   2.295   9.223   7.849 -0.8189  0.0099 -0.1811
51189SOL    HW158124   2.364   9.270   7.896 -1.2056 -0.0728  0.4754
51189SOL    HW258125   2.333   9.138   7.829  0.1710  0.8266 -2.0595
51190SOL     OW58126   3.071   3.080   2.039 -0.0407 -0.2943 -0.7600
51190SOL    HW158127   3.133   3.029   2.091  0.0834 -1.0838 -1.6503
51190SOL    HW258128   3.012   3.120   2.103  0.9076 -0.1714  0.0511
51191SOL     OW58129   2.320   7.525   6.659  0.4467 -0.7739 -0.6138
51191SOL    HW158130   2.264   7.592   6.698  1.3014 -0.3185 -0.1472
51191SOL    HW258131   2.380   7.574   6.603  0.9387 -1.1746 -0.4412
51192SOL     OW58132  10.294  10.997  10.321 -0.3335 -0.3687  0.2371
51192SOL    HW158133  10.240  11.042  10.256  1.6759  0.4930 -0.9245
51192SOL    HW258134  10.308  10.910  10.285  1.2421  0.2847 -0.8546
51193SOL     OW58135   7.738   2.869   4.756 -0.0134 -0.8124 -0.3878
51193SOL    HW158136   7.713   2.946   4.807  0.3092  0.6732 -2.3570
51193SOL    HW258137   7.831   2.881   4.738 -0.2732 -0.9008 -1.9129
51194SOL     OW58138   2.969   0.946   9.193  0.1561 -0.0174 -0.4194
51194SOL    HW158139   2.972   1.029   9.147  2.7497  0.4353  0.4046
51194SOL    HW258140   3.002   0.966   9.281 -2.4872 -1.2787  0.9675
51195SOL     OW58141   3.413   5.955   2.642  0.4755 -0.1747 -0.2481
51195SOL    HW158142   3.497   5.948   2.685  0.8624  2.0542 -0.5403
51195SOL    HW258143   3.429   6.010   2.565 -1.2352  0.3282 -0.3037
51196SOL     OW58144   2.919   8.392   1.249 -0.2645  0.1682 -0.1491
51196SOL    HW158145   2.887   8.459   1.309 -0.6866  0.1417 -0.3389
51196SOL    HW258146   2.842   8.367   1.198  0.0591  0.0799 -0.5966
51197SOL     OW58147   3.379   0.360   4.183  0.3981  0.6258 -0.0194
51197SOL    HW158148   3.296   0.407   4.178  1.2603  2.7162  2.7688
51197SOL    HW258149   3.355   0.270   4.202 -1.2490  0.3886 -2.7907
51198SOL     OW58150   3.253   5.300   9.842  0.4346 -0.0910  0.4335
51198SOL    HW158151   3.227   5.218   9.799 -0.5191 -0.9341  2.4883
51198SOL    HW258152   3.188   5.313   9.910 -0.7288  3.6118 -1.1696
51199SOL     OW58153   6.057   1.755   0.225 -0.6485  0.1448 -0.0758
51199SOL    HW158154   6.131   1.732   0.281  0.2100  0.7013 -0.9664
51199SOL    HW258155   6.009   1.821   0.276  0.3417  0.9401 -0.1426
51200SOL     OW58156   6.353   3.976   4.125  0.0626 -0.0603 -0.3095
51200SOL    HW158157   6.261   3.965   4.148  0.1589 -0.3024 -0.0362
51200SOL    HW258158   6.356   4.058   4.076 -0.3717 -0.2782 -0.7181
51201SOL     OW58159   2.071  11.088   9.428 -0.2454 -0.0192  0.0261
51201SOL    HW158160   2.053  11.081   9.521  2.0353 -1.7614  0.4263
51201SOL    HW258161   2.052  11.179   9.406 -1.0336  0.3625  2.1152
51202SOL     OW58162   5.640   2.042   9.034  0.0026  0.8186 -0.4126
51202SOL    HW158163   5.640   2.110   9.101 -2.4753  0.8485 -0.3635
51202SOL    HW258164   5.573   2.070   8.971  0.8355 -0.2353 -1.8246
51203SOL     OW58165   8.701   4.972   3.992  0.3553  0.4217  0.1397
51203SOL    HW158166   8.740   4.949   3.908 -1.3604  2.8890 -1.4538
51203SOL    HW258167   8.630   4.909   4.004  0.5103  0.1535 -0.3271
51204SOL     OW58168   7.749   7.614   3.495 -0.2374 -0.5229  0.5712
51204SOL    HW158169   7.820   7.553   3.474 -1.1050 -1.3014 -0.1631
51204SOL    HW258170   7.781   7.699   3.466  0.6127 -0.7677  0.7495
51205SOL     OW58171   1.761  12.033   6.086 -0.3983  0.2430  0.5335
51205SOL    HW158172   1.772  12.120   6.048 -1.2828  0.0062 -0.3214
51205SOL    HW258173   1.683  12.040   6.141 -0.7778 -0.1279  0.0544
51206SOL     OW58174   3.038   5.874   4.325 -0.1794 -0.2572 -0.5671
51206SOL    HW158175   3.091   5.848   4.400 -0.5130 -0.6351 -0.4625
51206SOL    HW258176   3.070   5.962   4.303 -0.7612  0.2845  0.6547
51207SOL     OW58177  11.067   3.015  11.940  0.4709 -0.2089  0.0142
51207SOL    HW158178  10.995   3.038  12.000  0.6315 -0.8780  0.4739
51207SOL    HW258179  11.145   3.017  11.995  0.6000 -0.9875 -0.1299
51208SOL     OW58180   8.144  12.032   1.191 -0.0995 -0.0345  0.3515
51208SOL    HW158181   8.089  12.065   1.263 -1.7836 -0.0484 -0.8691
51208SOL    HW258182   8.202  12.105   1.170 -1.1524  0.7946  0.2351
51209SOL     OW58183   4.500   9.291   6.142 -0.1448  0.3253 -0.5623
51209SOL    HW158184   4.583   9.243   6.147 -1.5339 -2.1922  0.1865
51209SOL    HW258185   4.445   9.239   6.084 -1.3788  1.6739 -0.6619
51210SOL     OW58186   5.153  12.066   6.683 -0.5188 -0.2199  0.1158
51210SOL    HW158187   5.212  12.133   6.649  1.0018 -1.7247 -0.3665
51210SOL    HW258188   5.066  12.094   6.655  0.1261  1.2625 -0.5093
51211SOL     OW58189   7.545   2.867  12.102  0.1446  0.3499  0.4090
51211SOL    HW158190   7.525   2.840  12.192 -0.2089  0.0767  0.2502
51211SOL    HW258191   7.474   2.928  12.079  0.4582  0.7380  0.4559
51212SOL     OW58192   9.111   2.552  10.933  0.2170 -0.1459 -0.4054
51212SOL    HW158193   9.144   2.530  10.846  1.4933  0.6519 -0.1552
51212SOL    HW258194   9.188   2.546  10.990  0.2577  2.8401  0.0141
51213SOL     OW58195   3.000   3.701   3.268  0.4483 -0.4908 -1.1934
51213SOL    HW158196   2.937   3.634   3.293  1.6306 -1.3506 -0.4228
51213SOL    HW258197   3.074   3.652   3.231  1.8130  0.2727  0.3925
51214SOL     OW58198   9.844   6.516   4.153 -0.0398 -0.1463  0.2569
51214SOL    HW158199   9.818   6.424   4.149  1.9055 -0.7914  1.0960
51214SOL    HW258200   9.761   6.565   4.154 -1.2182 -1.9986  2.1617
51215SOL     OW58201   4.189   5.416   5.001  0.3809 -0.0537  0.3433
51215SOL    HW158202   4.230   5.335   4.971  1.0888 -0.0762  1.3057
51215SOL    HW258203   4.235   5.485   4.953 -1.7863 -0.2624 -2.2483
51216SOL     OW58204   5.775   3.798   5.173  0.0926 -0.5026 -0.4200
51216SOL    HW158205   5.794   3.849   5.094  1.6255 -0.7518 -0.2492
51216SOL    HW258206   5.832   3.837   5.240 -1.0268 -0.4389  0.5167
51217SOL     OW58207   7.794   3.029  11.474  0.3753  0.0015  0.1234
51217SOL    HW158208   7.763   2.987  11.395 -1.7480  0.9238  0.4078
51217SOL    HW258209   7.794   3.123  11.453 -0.4897  0.2801  1.2700
51218SOL     OW58210   8.508   8.560   0.388 -0.1784 -0.4516  0.1848
51218SOL    HW158211   8.588   8.596   0.427 -0.2117  0.4545 -0.5414
51218SOL    HW258212   8.492   8.615   0.312  0.2610 -2.5596 -1.5418
51219SOL     OW58213   6.985   8.788   2.290  0.3492  0.0325  0.0822
51219SOL    HW158214   7.060   8.733   2.316  1.9154  1.2720 -1.5815
51219SOL    HW258215   7.017   8.877   2.299 -0.6350  0.5743 -1.5419
51220SOL     OW58216   1.031  10.549  10.568 -0.8201  0.3703  0.2477
51220SOL    HW158217   0.997  10.528  10.481  1.6726 -0.9337 -0.4999
51220SOL    HW258218   0.989  10.633  10.591 -1.2734  0.9212 -2.3286
51221SOL     OW58219   5.185   2.332   8.211  0.0609  0.4389 -0.0196
51221SOL    HW158220   5.148   2.244   8.209  1.7421 -0.3257 -2.3605
51221SOL    HW258221   5.253   2.329   8.278 -0.0073 -0.0164  0.0290
51222SOL     OW58222   2.553  11.439   6.932 -0.1484 -0.3131 -0.2571
51222SOL    HW158223   2.629  11.441   6.991 -0.8275  0.5358  0.6321
51222SOL    HW258224   2.558  11.523   6.885 -0.5431 -0.2490 -0.1841
51223SOL     OW58225   8.756   4.165   7.447 -0.0488  0.3030 -0.1360
51223SOL    HW158226   8.740   4.199   7.535  0.8701  0.3920  0.0067
51223SOL    HW258227   8.703   4.220   7.389  1.8218  2.3937  0.0197
51224SOL     OW58228   7.655   3.623  10.537  0.2815  0.2751 -0.2117
51224SOL    HW158229   7.653   3.611  10.442  1.5484  1.0066 -0.3493
51224SOL    HW258230   7.651   3.718  10.548  0.4236  0.2044  0.4652
51225SOL     OW58231   2.512   4.912   2.156 -0.5813  0.2350 -0.4176
51225SOL    HW158232   2.535   4.857   2.232 -1.6887 -0.0031 -0.2414
51225SOL    HW258233   2.597   4.934   2.117  0.0078  0.1703  0.7491
51226SOL     OW58234  10.263  11.309   9.281  0.0652 -0.6556 -0.0343
51226SOL    HW158235  10.353  11.307   9.312  0.8840  2.2689 -1.7770
51226SOL    HW258236  10.262  11.254   9.203  0.3296 -0.8039  0.0690
51227SOL     OW58237   7.469   5.160  10.554  0.8197  0.1342  0.6888
51227SOL    HW158238   7.434   5.123  10.473  1.1597 -0.1001  0.6496
51227SOL    HW258239   7.412   5.235  10.572  0.4307 -0.1122  0.5080
51228SOL     OW58240   0.981   6.563   6.429  0.0139  0.0002  0.0741
51228SOL    HW158241   0.999   6.656   6.439 -0.7299  0.2943 -1.1467
51228SOL    HW258242   1.047   6.532   6.367 -0.4193 -0.0444 -0.3699
51229SOL     OW58243   8.552   6.974  10.895 -0.0538 -0.1524 -0.0121
51229SOL    HW158244   8.556   6.880  10.911  0.9112 -0.7695 -3.1082
51229SOL    HW258245   8.467   7.001  10.930 -0.8292 -2.4053 -0.0194
51230SOL     OW58246   4.375   7.421   8.962 -0.9397  0.5337  0.0713
51230SOL    HW158247   4.364   7.326   8.961  1.9599  0.0862 -0.0218
51230SOL    HW258248   4.360   7.448   8.871 -2.5334  0.3077  0.2517
51231SOL     OW58249   2.986   5.191   6.873  0.0775 -0.5872 -0.1495
51231SOL    HW158250   3.038   5.237   6.807 -0.1251 -2.1561 -1.4525
51231SOL    HW258251   2.913   5.152   6.824  1.1759 -3.7773  0.5030
51232SOL     OW58252   5.966  11.953  10.413  0.4850  0.1868  0.5169
51232SOL    HW158253   5.899  12.012  10.448 -0.3057  1.0630 -2.2646
51232SOL    HW258254   5.917  11.880  10.376  1.4320 -2.1311  3.4541
51233SOL     OW58255   5.729   6.873   4.124  0.4091  0.0423 -0.2821
51233SOL    HW158256   5.700   6.868   4.215 -2.9998  0.0209 -1.2517
51233SOL    HW258257   5.743   6.781   4.099 -0.1569 -0.0700 -0.2023
51234SOL     OW58258   8.986   8.744   7.733  0.5956  0.0092  0.6031
51234SOL    HW158259   9.015   8.765   7.822  0.4992 -0.8747  0.8468
51234SOL    HW258260   8.902   8.699   7.746  0.8584 -0.6201  0.0914
51235SOL     OW58261   4.550   1.446   5.889 -0.6820 -0.3666  0.0280
51235SOL    HW158262   4.506   1.413   5.810  0.3632  1.3945 -1.3851
51235SOL    HW258263   4.481   1.494   5.936 -1.0279 -0.3753 -0.4625
51236SOL     OW58264   1.187  11.084   3.223 -0.0513 -0.0353  0.8543
51236SOL    HW158265   1.256  11.110   3.284 -0.9604  0.4395  1.7269
51236SOL    HW258266   1.174  10.991   3.239 -2.3096  0.6170  3.6263
51237SOL     OW58267   9.735   6.117   7.820  0.0192 -0.0069 -0.2442
51237SOL    HW158268   9.732   6.050   7.752  0.9768 -0.5674  0.2491
51237SOL    HW258269   9.732   6.068   7.903  0.4981  0.5671  0.1210
51238SOL     OW58270   4.479  10.056   6.099 -0.0915  0.2410  0.7213
51238SOL    HW158271   4.482  10.150   6.080  0.8314  0.0366 -0.2482
51238SOL    HW258272   4.533  10.016   6.031  0.3657 -0.9036  1.7177
51239SOL     OW58273   8.782   4.850   3.737  0.0519  0.0704  0.6862
51239SOL    HW158274   8.858   4.837   3.680 -0.3154  0.3217  0.1414
51239SOL    HW258275   8.771   4.766   3.781 -0.9606 -0.8519 -1.1897
51240SOL     OW58276  12.075   0.288   2.626 -0.5676 -0.2633  0.6392
51240SOL    HW158277  12.159   0.327   2.649 -0.5026  0.3497 -0.5713
51240SOL    HW258278  12.021   0.300   2.704 -0.8266  3.0415  0.0917
51241SOL     OW58279   8.297   3.643   2.032 -0.0208  0.0120 -0.6192
51241SOL    HW158280   8.206   3.617   2.045  0.5743 -1.8117  0.2414
51241SOL    HW258281   8.346   3.592   2.097  1.8371 -0.6281 -2.4172
51242SOL     OW58282   2.429   6.715   2.253 -0.2096 -0.1558  0.2565
51242SOL    HW158283   2.502   6.660   2.224  1.3099  2.9522 -2.5214
51242SOL    HW258284   2.472   6.788   2.299 -1.3383  2.1328 -2.0925
51243SOL     OW58285   4.045   9.250   6.165  0.3862  0.0501  0.0759
51243SOL    HW158286   4.121   9.297   6.201  1.1725 -0.8498 -0.3433
51243SOL    HW258287   4.081   9.166   6.137 -1.2204 -1.3886  2.0719
51244SOL     OW58288  12.079   7.405   4.542 -0.0424  0.8065  0.6114
51244SOL    HW158289  12.054   7.495   4.525  2.3976  1.2028 -1.3809
51244SOL    HW258290  12.169   7.410   4.575 -0.3513 -0.8419  1.8729
51245SOL     OW58291   7.556  11.618   2.220 -0.4077  0.2963 -0.1213
51245SOL    HW158292   7.545  11.712   2.204  0.5868  0.5073  0.3512
51245SOL    HW258293   7.530  11.576   2.138  0.8829  1.1062 -0.9781
51246SOL     OW58294   2.881   9.116   3.734 -0.2450 -0.6173 -0.1937
51246SOL    HW158295   2.875   9.073   3.819 -0.9409  0.7275  0.4771
51246SOL    HW258296   2.917   9.203   3.754 -0.6626 -0.1881 -1.2299
51247SOL     OW58297   6.448   0.647   7.177  0.0410  0.3330 -0.3229
51247SOL    HW158298   6.533   0.689   7.170  0.8014 -1.2338 -0.9348
51247SOL    HW258299   6.467   0.553   7.183 -1.4131  0.0688  3.7603
51248SOL     OW58300  10.092   3.662   9.710 -0.5729  0.3361  0.1781
51248SOL    HW158301  10.023   3.713   9.752 -0.1226  1.7541 -0.6940
51248SOL    HW258302  10.101   3.702   9.623  0.5637 -0.5504 -0.1419
51249SOL     OW58303   6.470   3.017   8.351  0.3206  0.2231 -0.1761
51249SOL    HW158304   6.451   2.988   8.440  3.6904  0.0495  0.6331
51249SOL    HW258305   6.484   2.936   8.302  1.7749  0.3091  0.0452
51250SOL     OW58306  11.457   5.064   6.990  0.2441 -0.3818 -0.3614
51250SOL    HW158307  11.405   5.123   7.045 -2.6720 -0.7595 -2.4710
51250SOL    HW258308  11.545   5.102   6.992 -0.3112  1.0689  2.3798
51251SOL     OW58309   2.306   5.479   4.696 -0.2565  0.0030  0.0658
51251SOL    HW158310   2.352   5.399   4.672 -0.7208 -0.0897 -0.5568
51251SOL    HW258311   2.243   5.493   4.624  1.1522  1.9932 -0.8991
51252SOL     OW58312   7.389   1.903   8.417 -0.2565 -0.4445  0.0676
51252SOL    HW158313   7.467   1.946   8.452 -1.0704  2.1144 -0.9786
51252SOL    HW258314   7.420   1.818   8.385  1.8323  0.0020  0.7531
51253SOL     OW58315  10.702   8.509   0.159  0.2090 -0.0023 -0.1626
51253SOL    HW158316  10.648   8.454   0.217 -0.1117  1.6784  1.2315
51253SOL    HW258317  10.671   8.598   0.176  0.4300  0.6118 -2.6453
51254SOL     OW58318   1.120   4.736   7.460 -0.1649  0.2483 -0.3624
51254SOL    HW158319   1.185   4.689   7.513  0.9818  0.6013 -1.4212
51254SOL    HW258320   1.149   4.724   7.370 -2.6082 -1.1327 -1.0533
51255SOL     OW58321   5.437   9.827   0.327 -0.1212  0.2707  0.3370
51255SOL    HW158322   5.397   9.805   0.243 -2.0328  1.5954  0.8298
51255SOL    HW258323   5.505   9.890   0.306 -1.1771  1.2799 -0.1900
51256SOL     OW58324   5.355   6.173   8.078 -0.1394 -0.8521 -0.0457
51256SOL    HW158325   5.270   6.142   8.109 -0.6350 -0.1500 -0.6658
51256SOL    HW258326   5.392   6.219   8.154 -0.4667 -0.8507  0.1165
51257SOL     OW58327   0.823   9.311  10.643 -0.5237 -0.7614 -0.3289
51257SOL    HW158328   0.874   9.267  10.575  1.1681 -1.3482  1.2317
51257SOL    HW258329   0.859   9.277  10.725 -0.9624  1.5727  0.9010
51258SOL     OW58330   6.857   4.610   6.311  0.5027 -0.3960  0.0383
51258SOL    HW158331   6.776   4.605   6.361  0.9514 -0.1435  0.8055
51258SOL    HW258332   6.912   4.671   6.360  1.2246 -0.7025 -0.3714
51259SOL     OW58333  10.462   8.822   0.718  0.0133 -0.0756  0.4025
51259SOL    HW158334  10.418   8.741   0.743 -2.2152  0.6952 -0.7330
51259SOL    HW258335  10.524   8.795   0.650 -0.9557 -0.8089 -0.2175
51260SOL     OW58336   5.235   9.144  10.249 -0.1544 -0.3776  0.2325
51260SOL    HW158337   5.254   9.235  10.229 -2.7338 -0.0193 -0.9538
51260SOL    HW258338   5.170   9.147  10.319 -0.9621 -1.2310 -0.4408
51261SOL     OW58339   0.756   0.114   9.861 -0.4770 -0.1922  0.6146
51261SOL    HW158340   0.713   0.166   9.793 -1.6386  0.2649  1.6466
51261SOL    HW258341   0.751   0.024   9.830  0.2632  0.1384 -0.5279
51262SOL     OW58342   7.483   7.436  10.701 -0.4358  0.4735 -0.1031
51262SOL    HW158343   7.505   7.359  10.648  1.4000  0.5834  0.4343
51262SOL    HW258344   7.406   7.409  10.751 -0.1297 -0.8368 -0.3033
51263SOL     OW58345   0.610   1.242   8.881  0.3130  0.3161  1.0664
51263SOL    HW158346   0.532   1.204   8.922  1.9562 -3.2395  1.2814
51263SOL    HW258347   0.604   1.218   8.789  0.4481  1.4030  0.7515
51264SOL     OW58348   3.681   9.662   4.543 -0.0956  0.1095  1.0260
51264SOL    HW158349   3.703   9.645   4.452  0.2602  1.3071  0.8759
51264SOL    HW258350   3.644   9.751   4.543 -0.3938  0.0014  1.9963
51265SOL     OW58351   1.317  10.588  10.629  0.1932  0.2046  0.1381
51265SOL    HW158352   1.309  10.618  10.720  1.1117  0.0000  0.3035
51265SOL    HW258353   1.229  10.596  10.593 -0.3474 -0.4230  1.2650
51266SOL     OW58354   6.945  10.876  10.079  0.4861  0.0820  0.5352
51266SOL    HW158355   6.994  10.809  10.126  1.6764  1.1438  0.8614
51266SOL    HW258356   6.856  10.869  10.114  0.5195 -1.4884  0.3506
51267SOL     OW58357   4.551  11.193   4.108 -0.2314 -0.0868 -0.0857
51267SOL    HW158358   4.574  11.158   4.194  0.7710 -0.0012 -0.3035
51267SOL    HW258359   4.478  11.253   4.125  0.0923  0.0868  0.7382
51268SOL     OW58360   2.015   4.603   8.996 -0.4083  0.8584  0.7677
51268SOL    HW158361   1.933   4.554   9.005 -0.5566  1.1171  0.8329
51268SOL    HW258362   1.997   4.689   9.035  0.5164  0.2299  2.7629
51269SOL     OW58363   6.315   1.108   7.328  0.2213 -0.2104 -0.6490
51269SOL    HW158364   6.258   1.122   7.253 -2.5115  0.9908  1.5061
51269SOL    HW258365   6.403   1.129   7.295 -1.0577  1.9021 -3.0749
51270SOL     OW58366   9.286   0.179   5.312  0.5305  0.1203  0.4418
51270SOL    HW158367   9.370   0.174   5.358  0.5725  0.3618  0.3941
51270SOL    HW258368   9.221   0.185   5.381  0.5084 -0.6422  0.4895
51271SOL     OW58369   2.828   6.713   9.359 -0.0579  0.2533 -0.2622
51271SOL    HW158370   2.901   6.673   9.312 -0.9605  0.8027 -2.2241
51271SOL    HW258371   2.808   6.792   9.310 -1.3070  0.6688  0.8565
51272SOL     OW58372  10.117   1.299   5.448 -0.2019 -0.1459  0.2036
51272SOL    HW158373  10.087   1.230   5.388 -2.1576 -0.1106  1.0681
51272SOL    HW258374  10.082   1.274   5.533 -1.5484  2.2028  0.4413
51273SOL     OW58375  10.805   8.191   0.174  0.2408  0.1598 -0.5303
51273SOL    HW158376  10.732   8.220   0.230  0.6530 -0.4887  0.3636
51273SOL    HW258377  10.764   8.170   0.090 -0.4456  0.8079 -0.3680
51274SOL     OW58378  11.877   3.110   8.371 -0.0910  0.4131  0.2324
51274SOL    HW158379  11.792   3.069   8.390  0.9313 -1.9634 -0.0001
51274SOL    HW258380  11.854   3.191   8.326 -2.2564 -0.3602 -0.2111
51275SOL     OW58381  11.329   5.308   2.353 -0.1185  0.3324 -0.2585
51275SOL    HW158382  11.384   5.286   2.277 -0.9422  0.8358 -1.0163
51275SOL    HW258383  11.320   5.403   2.349  0.3805  0.4368  0.8720
51276SOL     OW58384  10.863  11.192   7.960 -0.3522  0.4752  0.6229
51276SOL    HW158385  10.796  11.132   7.926 -0.1630  0.5273  0.1542
51276SOL    HW258386  10.812  11.260   8.005 -0.7416  1.4175 -1.1365
51277SOL     OW58387   7.857   5.948  11.543  0.0823  0.4728  0.5115
51277SOL    HW158388   7.820   5.861  11.529 -2.4916  1.5003  0.4011
51277SOL    HW258389   7.793   5.993  11.599  0.8675  2.5814 -0.1853
51278SOL     OW58390   5.895   5.775   0.621 -0.0918 -0.1302 -0.3391
51278SOL    HW158391   5.828   5.718   0.583  0.9605 -1.6144 -0.0672
51278SOL    HW258392   5.903   5.744   0.711 -0.3538  1.2849  0.1857
51279SOL     OW58393  11.080  10.181   7.890 -0.0549  0.4912  0.3854
51279SOL    HW158394  11.015  10.119   7.857  1.4895 -0.9126 -0.1497
51279SOL    HW258395  11.028  10.256   7.920 -1.8530 -0.2071 -0.7723
51280SOL     OW58396  12.052   8.514  11.489  0.1778  0.0911 -0.4082
51280SOL    HW158397  11.992   8.560  11.548  1.1501  1.2898 -0.2969
51280SOL    HW258398  11.998   8.451  11.443 -0.6781 -0.7193  1.5850
51281SOL     OW58399  11.062   8.970   8.348 -0.2352  0.1230 -0.6150
51281SOL    HW158400  11.004   9.005   8.416 -0.4010  1.4138 -1.3856
51281SOL    HW258401  11.149   8.970   8.389 -0.2570  1.3154 -0.5338
51282SOL     OW58402   0.131   1.121   2.058 -0.6886  0.6815  0.0976
51282SOL    HW158403   0.170   1.036   2.081 -0.2186  0.8477 -0.0621
51282SOL    HW258404   0.182   1.184   2.109 -0.2132  0.9746 -0.7206
51283SOL     OW58405   2.923  11.442   1.325 -0.3753  0.1076 -0.3100
51283SOL    HW158406   2.977  11.489   1.262 -0.0319  0.5932  0.3310
51283SOL    HW258407   2.839  11.489   1.325  0.2624  1.3280  0.9912
51284SOL     OW58408   3.453   7.910  10.945 -0.9661  0.4621 -0.3082
51284SOL    HW158409   3.396   7.850  10.994 -0.2967  1.3577  1.7042
51284SOL    HW258410   3.393   7.978  10.913 -1.5476 -0.5981 -1.5544
51285SOL     OW58411   6.483   2.340   3.217  0.0360  0.2309 -0.2596
51285SOL    HW158412   6.502   2.425   3.259 -0.4605 -0.0544  0.5659
51285SOL    HW258413   6.569   2.298   3.210  0.2620  0.7268 -0.4957
51286SOL     OW58414   8.286   6.796   6.088 -0.4301  0.5337  0.2171
51286SOL    HW158415   8.255   6.831   6.171  0.1572 -0.5606  0.9234
51286SOL    HW258416   8.381   6.810   6.090 -0.0068 -1.8961  0.9894
51287SOL     OW58417  10.128   0.167   2.671  0.3881  0.1280  0.8427
51287SOL    HW158418  10.037   0.152   2.698 -0.2694  1.3418 -0.5092
51287SOL    HW258419  10.124   0.171   2.576  2.0039 -0.4946  0.7174
51288SOL     OW58420   5.964   7.021   3.841  0.4342  0.4901 -0.0267
51288SOL    HW158421   6.032   7.035   3.907 -0.7125  0.4081  1.2076
51288SOL    HW258422   5.934   6.932   3.855  0.9099  0.0871 -1.4004
51289SOL     OW58423   1.638   8.780   1.640 -0.0164 -0.0284  0.1252
51289SOL    HW158424   1.619   8.873   1.650  1.3128  0.1683  1.1757
51289SOL    HW258425   1.634   8.765   1.545 -1.8695  0.6975  0.0539
51290SOL     OW58426   5.619   3.145   4.655 -0.4495 -0.0310 -0.0568
51290SOL    HW158427   5.603   3.128   4.748  0.3620 -0.7414 -0.0375
51290SOL    HW258428   5.647   3.237   4.652  1.1039 -0.4573  0.6189
51291SOL     OW58429   4.944   3.813  10.849  0.0550  0.6187 -0.2122
51291SOL    HW158430   4.915   3.884  10.792 -0.2730 -1.4701 -2.8337
51291SOL    HW258431   4.909   3.836  10.935 -2.1515  2.4004 -1.4711
51292SOL     OW58432   6.494   0.631   8.290 -0.1879  0.6498  0.1349
51292SOL    HW158433   6.530   0.569   8.353  2.4282  0.7700 -1.0816
51292SOL    HW258434   6.418   0.670   8.334 -0.1919 -1.3278  2.0172
51293SOL     OW58435   5.836   3.253   3.657  0.3462  0.8477 -0.1645
51293SOL    HW158436   5.839   3.187   3.588  1.8074  0.4843  0.1981
51293SOL    HW258437   5.744   3.278   3.663  0.0426  0.1682 -1.5513
51294SOL     OW58438   9.280  10.790  11.727  0.1026 -0.4644  0.0586
51294SOL    HW158439   9.253  10.723  11.790  0.6197 -0.8546 -0.1343
51294SOL    HW258440   9.224  10.774  11.651  1.6204 -2.0268 -0.7991
51295SOL     OW58441   5.843   1.584   4.509  0.7245 -0.6377 -0.1058
51295SOL    HW158442   5.825   1.518   4.576  0.1678 -1.3650 -0.9468
51295SOL    HW258443   5.849   1.534   4.427 -2.8227  0.5996 -1.2980
51296SOL     OW58444   2.610   2.673  11.074  0.2469 -0.4442  0.6638
51296SOL    HW158445   2.589   2.581  11.055  1.0568 -0.4374 -0.3847
51296SOL    HW258446   2.582   2.720  10.996  1.9927 -0.1436  0.1601
51297SOL     OW58447   0.695   8.754   2.545 -0.1467 -0.0690  0.3081
51297SOL    HW158448   0.684   8.667   2.506 -0.4425  0.2067 -0.2495
51297SOL    HW258449   0.606   8.788   2.551 -0.0682  0.0197  0.9411
51298SOL     OW58450   8.320   6.723   4.963 -0.3855 -1.0921 -0.1694
51298SOL    HW158451   8.369   6.645   4.990  0.0319 -0.2469  1.6417
51298SOL    HW258452   8.371   6.797   4.996 -1.5560 -0.0919 -0.5132
51299SOL     OW58453   1.084  12.120   2.475  0.0464 -0.2179 -0.0349
51299SOL    HW158454   1.051  12.148   2.560  1.8564  1.6825  0.1328
51299SOL    HW258455   1.146  12.051   2.495 -0.1686 -0.3710  0.1062
51300SOL     OW58456   0.118   3.623   3.988 -0.3834 -0.0746 -0.2029
51300SOL    HW158457   0.104   3.533   4.017  0.7364 -0.1681  0.1048
51300SOL    HW258458   0.213   3.630   3.976 -0.3887  1.2258  0.3077
51301SOL     OW58459   9.743   6.730   8.820  0.2524 -0.3258 -0.1228
51301SOL    HW158460   9.658   6.764   8.791 -0.6128 -1.0160  1.4907
51301SOL    HW258461   9.792   6.807   8.846 -0.0632  0.0383 -0.5905
51302SOL     OW58462  12.122   5.107  11.353  0.3873 -0.3292 -0.2049
51302SOL    HW158463  12.206   5.111  11.307  0.7150 -1.3527  0.2679
51302SOL    HW258464  12.087   5.020  11.333  1.1126 -1.3188  2.3927
51303SOL     OW58465  11.296   4.409  11.267  0.0345 -0.4569 -0.2524
51303SOL    HW158466  11.332   4.493  11.296 -1.6417  0.5416 -0.9220
51303SOL    HW258467  11.251   4.374  11.343 -0.1163 -0.2544 -0.2478
51304SOL     OW58468   5.860   6.339   3.860  0.8174 -0.3887 -0.0225
51304SOL    HW158469   5.832   6.430   3.866 -1.0541 -0.7073 -2.3135
51304SOL    HW258470   5.778   6.289   3.853  1.8203 -2.0142 -0.8289
51305SOL     OW58471   6.000   8.216  12.087  0.4131  0.5272 -0.0611
51305SOL    HW158472   6.056   8.167  12.147 -0.3917 -0.3151  0.0254
51305SOL    HW258473   5.919   8.166  12.084 -0.8460  2.4034  0.8486
51306SOL     OW58474   1.836  10.400   5.521  0.6921  0.0767  0.0158
51306SOL    HW158475   1.820  10.428   5.431  2.9279 -1.6852 -1.0355
51306SOL    HW258476   1.902  10.461   5.554 -1.0677  1.5460  1.0243
51307SOL     OW58477   3.405   8.685   6.810  0.7455 -0.1347  0.1699
51307SOL    HW158478   3.447   8.755   6.860  0.2739  0.8727 -0.8095
51307SOL    HW258479   3.343   8.729   6.752  3.3037 -0.8349 -3.4885
51308SOL     OW58480   3.159   3.242   7.527  0.6854 -0.2630 -0.2275
51308SOL    HW158481   3.248   3.274   7.544  0.6786  0.5727 -1.5503
51308SOL    HW258482   3.148   3.253   7.433 -1.3580  1.1047  0.1092
51309SOL     OW58483   4.392   6.902   6.957  0.2731  0.0057 -0.5255
51309SOL    HW158484   4.385   6.914   6.862 -1.0173 -0.3841 -0.4882
51309SOL    HW258485   4.463   6.838   6.968 -0.5215 -1.0291 -1.3055
51310SOL     OW58486   0.955   3.036   3.679  0.0151  0.2025 -0.1657
51310SOL    HW158487   0.884   3.003   3.736  0.5497 -0.9360 -0.1259
51310SOL    HW258488   1.035   3.009   3.724  0.4972  1.7630 -0.0502
51311SOL     OW58489  11.096   0.696  11.757  0.0355 -0.1737  0.0406
51311SOL    HW158490  11.156   0.744  11.700 -1.2333  0.2338 -0.9965
51311SOL    HW258491  11.012   0.698  11.711 -0.3274 -2.4465  0.5012
51312SOL     OW58492   1.375  11.554   2.530  0.0728  0.2193 -0.1610
51312SOL    HW158493   1.337  11.520   2.611  2.7941 -0.1451  1.0582
51312SOL    HW258494   1.300  11.565   2.471 -1.6299 -2.5574  1.2702
51313SOL     OW58495   9.922   4.447   3.992  0.1934  0.6555  0.1200
51313SOL    HW158496   9.895   4.476   4.080  0.5772  1.7376 -0.1081
51313SOL    HW258497   9.918   4.352   3.997  1.7910  0.6158  1.8347
51314SOL     OW58498   3.399   2.037   0.019  0.2169  0.2648  0.1621
51314SOL    HW158499   3.436   2.092   0.089 -1.9643 -0.0255  1.6212
51314SOL    HW258500   3.358   1.964   0.064  0.2486 -0.8844 -1.5716
51315SOL     OW58501  10.246  10.280   9.785  0.4427 -0.0004 -0.4092
51315SOL    HW158502  10.214  10.230   9.860  1.6653  0.8777  0.7433
51315SOL    HW258503  10.316  10.226   9.748  0.1435 -0.2219 -0.6671
51316SOL     OW58504   0.121  10.619   8.609 -0.5307  0.2071  0.9577
51316SOL    HW158505   0.200  10.577   8.645 -0.9685 -1.5453  0.0067
51316SOL    HW258506   0.139  10.626   8.515 -0.7388  1.6378  1.0107
51317SOL     OW58507   6.090  11.677   6.084  0.1071  0.1922  0.3284
51317SOL    HW158508   6.185  11.675   6.092  0.1802 -1.3335 -0.4643
51317SOL    HW258509   6.072  11.751   6.027  0.9300 -0.1825 -0.4477
51318SOL     OW58510   4.118   1.858  10.517 -0.0043 -0.0814 -0.1296
51318SOL    HW158511   4.096   1.884  10.607  1.5409  0.1511  0.2186
51318SOL    HW258512   4.056   1.788  10.496  0.8466 -1.5557  1.8850
51319SOL     OW58513   5.398   8.196   1.029  0.3713 -0.3125  0.4046
51319SOL    HW158514   5.341   8.247   0.971 -0.7128 -0.8314  0.9837
51319SOL    HW258515   5.364   8.107   1.023  1.3743 -0.7108  0.4788
51320SOL     OW58516  10.237   7.272   7.433  0.2874  0.4643  0.0497
51320SOL    HW158517  10.213   7.266   7.341 -0.8505  0.6320  0.3282
51320SOL    HW258518  10.239   7.182   7.463 -1.5258  0.5089  0.3922
51321SOL     OW58519   0.542   3.680   4.592  0.4456 -0.6080  0.0139
51321SOL    HW158520   0.581   3.720   4.669  0.1589 -1.5466  0.6692
51321SOL    HW258521   0.499   3.752   4.546  0.6666 -0.0316  0.7054
51322SOL     OW58522   3.188  10.620   5.307 -0.3029  1.0585 -0.2270
51322SOL    HW158523   3.098  10.596   5.286  0.4407 -0.5509 -1.8748
51322SOL    HW258524   3.182  10.671   5.388 -2.7880  2.0744 -0.9800
51323SOL     OW58525   4.806   0.418   2.684  0.1129 -0.0950  0.4341
51323SOL    HW158526   4.890   0.397   2.643  0.2471 -1.0730  1.1723
51323SOL    HW258527   4.788   0.508   2.657  1.0347 -0.1254 -0.3343
51324SOL     OW58528   1.320   7.493   1.653  0.0910  0.0546  0.1756
51324SOL    HW158529   1.375   7.456   1.584  0.4392  0.2998  0.3192
51324SOL    HW258530   1.232   7.496   1.615  0.2796  0.1882 -0.2526
51325SOL     OW58531   8.241   2.054   9.504  0.2409  0.0874  0.0765
51325SOL    HW158532   8.209   1.985   9.446  1.3665  0.3477 -0.9012
51325SOL    HW258533   8.225   2.020   9.592  0.8404 -1.4802 -0.3799
51326SOL     OW58534   4.670   8.324   0.276  0.4644 -0.4968  0.5051
51326SOL    HW158535   4.577   8.303   0.261  0.7655 -1.1383 -0.5929
51326SOL    HW258536   4.679   8.412   0.240  0.5770 -0.9953 -0.7674
51327SOL     OW58537   2.006   8.220   7.113  0.2092  0.0911 -0.2106
51327SOL    HW158538   2.017   8.280   7.186  0.1925 -0.0951 -0.0543
51327SOL    HW258539   2.061   8.144   7.135  0.9722  0.4404 -0.8446
51328SOL     OW58540  11.750  11.920   1.371  0.1937  0.2121  0.3413
51328SOL    HW158541  11.757  12.016   1.371  1.7424  0.1428  1.8901
51328SOL    HW258542  11.809  11.892   1.301 -0.4167  0.3731 -0.2520
51329SOL     OW58543   7.617   0.222   0.933 -0.2100 -0.4779 -0.3573
51329SOL    HW158544   7.711   0.227   0.915  0.0149  0.1034  0.8736
51329SOL    HW258545   7.598   0.128   0.936  0.3225 -0.5976 -0.6447
51330SOL     OW58546   3.398  10.675  10.888  0.1900  0.5588  0.2965
51330SOL    HW158547   3.388  10.697  10.795  1.7724  0.2782  0.0269
51330SOL    HW258548   3.439  10.588  10.887 -1.3942 -0.2529  1.2970
51331SOL     OW58549   3.661  10.136  10.349  0.1066 -0.1711 -0.2228
51331SOL    HW158550   3.694  10.059  10.396  0.8738 -0.6894 -1.5601
51331SOL    HW258551   3.647  10.105  10.259 -1.7916  0.6698 -0.2639
51332SOL     OW58552   2.575   0.634   4.190 -0.1671 -0.4719 -0.3022
51332SOL    HW158553   2.603   0.585   4.267 -2.1413 -1.9346 -0.4409
51332SOL    HW258554   2.651   0.687   4.166  0.6689 -0.3424  2.3367
51333SOL     OW58555  11.803   8.159   2.323 -0.4386 -0.5526  0.4213
51333SOL    HW158556  11.836   8.206   2.400 -2.3773  1.8393 -0.0801
51333SOL    HW258557  11.828   8.068   2.338 -1.2839 -0.3239  4.2289
51334SOL     OW58558   7.819   0.599   1.036 -0.1211 -0.1890  0.3469
51334SOL    HW158559   7.801   0.507   1.056 -0.5009  0.0816  1.3243
51334SOL    HW258560   7.792   0.609   0.944 -1.5204 -0.6990  0.6705
51335SOL     OW58561   3.022   7.326   7.612  0.1131 -0.7972  0.3884
51335SOL    HW158562   3.022   7.340   7.517  1.5880 -1.5990  0.2337
51335SOL    HW258563   3.001   7.233   7.623 -0.2149 -0.6687  0.8568
51336SOL     OW58564   6.053   7.428   9.034 -0.1114 -0.1571  0.4036
51336SOL    HW158565   6.016   7.340   9.035  2.8102 -1.4911 -0.5969
51336SOL    HW258566   5.983   7.483   8.999 -1.7289 -2.1791  0.3149
51337SOL     OW58567  11.906   6.583   7.143 -0.4850 -0.0607  0.5457
51337SOL    HW158568  11.985   6.637   7.144 -1.0001  0.7801 -0.5253
51337SOL    HW258569  11.938   6.494   7.132  0.4161 -0.0867  2.8271
51338SOL     OW58570   6.593   9.493   8.476  0.2819 -0.4656  0.4990
51338SOL    HW158571   6.672   9.442   8.495  0.7060  0.8277  2.4455
51338SOL    HW258572   6.525   9.454   8.532  0.4351  0.5969  1.4623
51339SOL     OW58573   6.301   8.773  11.121  0.3598  0.7988  0.6376
51339SOL    HW158574   6.265   8.802  11.037  0.2179  1.3272  0.8730
51339SOL    HW258575   6.231   8.719  11.159 -0.1478  1.6931  1.0218
51340SOL     OW58576   4.817   5.709   8.763  0.2174  0.3117 -0.6773
51340SOL    HW158577   4.792   5.739   8.850  0.3451 -1.4312 -0.0018
51340SOL    HW258578   4.913   5.719   8.761  0.4054 -1.0865  0.0014
51341SOL     OW58579   3.905  10.295   6.681 -0.3216  0.4174  0.6431
51341SOL    HW158580   3.850  10.218   6.694 -0.5813  0.6995  1.2585
51341SOL    HW258581   3.876  10.332   6.598  0.5809 -0.7756 -0.2576
51342SOL     OW58582   5.581   1.418   6.274  0.1670  0.6645 -0.1653
51342SOL    HW158583   5.628   1.393   6.194 -0.3982  0.6595 -0.5012
51342SOL    HW258584   5.510   1.354   6.282  1.6543 -0.8914  1.7212
51343SOL     OW58585   4.305   0.570   1.369 -0.3392 -0.3260 -0.1711
51343SOL    HW158586   4.374   0.529   1.420 -0.8295 -2.1985 -0.9239
51343SOL    HW258587   4.226   0.558   1.421 -0.3797  0.3125 -0.0776
51344SOL     OW58588   4.847  10.026   8.650 -0.1452 -0.1478 -0.0019
51344SOL    HW158589   4.837   9.945   8.700  0.0183  0.2654  0.7176
51344SOL    HW258590   4.783  10.019   8.580 -1.4029 -0.1054  1.1146
51345SOL     OW58591   3.864   2.255   4.129  0.6432  0.4493  0.3153
51345SOL    HW158592   3.787   2.211   4.165  0.7921  0.3721  0.5433
51345SOL    HW258593   3.842   2.348   4.128  0.1990  0.3445 -0.4785
51346SOL     OW58594   5.513  11.086   6.932  0.6738  0.1433 -0.4923
51346SOL    HW158595   5.425  11.053   6.947  1.4542 -1.1764  1.6332
51346SOL    HW258596   5.532  11.063   6.841  0.0891 -2.8033  0.0183
51347SOL     OW58597   4.385   2.378   0.325  0.4208 -0.2439 -0.1119
51347SOL    HW158598   4.293   2.392   0.345  0.4733  1.7686 -1.0561
51347SOL    HW258599   4.430   2.397   0.407  0.0190 -1.2853  0.3671
51348SOL     OW58600   9.650   9.541  12.114  0.9972 -0.0498  0.1638
51348SOL    HW158601   9.587   9.595  12.161  0.4743 -1.0541  0.6489
51348SOL    HW258602   9.660   9.584  12.029 -0.5117  0.0285 -0.0019
51349SOL     OW58603   2.077   6.662   5.713 -0.4009  0.2922  0.1997
51349SOL    HW158604   2.095   6.664   5.619  0.1622  4.5335  0.1754
51349SOL    HW258605   2.161   6.645   5.754 -0.6821 -1.7580  0.0204
51350SOL     OW58606   3.793   0.591   9.965  1.0129 -0.0318  0.2577
51350SOL    HW158607   3.817   0.504   9.997 -0.3645  0.2817  2.3509
51350SOL    HW258608   3.849   0.651  10.013  1.1901  0.3126 -0.3672
51351SOL     OW58609   3.907   4.777   5.799 -0.1209  0.2822 -0.3975
51351SOL    HW158610   3.874   4.866   5.790 -1.4636 -0.3125 -2.0123
51351SOL    HW258611   3.850   4.725   5.742  0.7714 -1.5729  0.3197
51352SOL     OW58612   3.054  11.570   9.229  0.1579  0.1147 -0.0913
51352SOL    HW158613   3.112  11.573   9.305 -0.6856  1.6616  0.5376
51352SOL    HW258614   3.114  11.579   9.154  1.0329 -1.8329  0.3217
51353SOL     OW58615   9.433   1.573   3.103 -0.2287  0.1841  0.2934
51353SOL    HW158616   9.486   1.652   3.105  0.8256 -0.4025 -1.7296
51353SOL    HW258617   9.488   1.506   3.143 -0.3120  0.0423  0.1721
51354SOL     OW58618   9.885  10.697  11.333 -0.1112 -0.3745  0.8771
51354SOL    HW158619   9.826  10.640  11.283  1.5473 -0.6281 -0.9402
51354SOL    HW258620   9.831  10.731  11.404 -2.3727 -0.7898 -0.5141
51355SOL     OW58621   4.144   0.385   5.233  0.2565 -0.4224  0.4700
51355SOL    HW158622   4.062   0.340   5.208  1.3516 -1.7130 -1.0292
51355SOL    HW258623   4.189   0.399   5.150  1.5603  0.2842  1.2682
51356SOL     OW58624  11.687   8.076   1.192  0.2476 -0.0227 -0.9897
51356SOL    HW158625  11.743   8.076   1.115 -0.3193 -0.4912 -1.4148
51356SOL    HW258626  11.650   8.164   1.194 -1.2210 -0.5408 -2.3920
51357SOL     OW58627   9.229   2.593   9.202  0.2891  0.6548 -1.1050
51357SOL    HW158628   9.283   2.649   9.146  3.1808 -0.2997  0.4643
51357SOL    HW258629   9.201   2.521   9.145  0.9770  1.0134 -1.9152
51358SOL     OW58630  11.548   7.642  10.050  0.3603 -0.4265  0.2902
51358SOL    HW158631  11.508   7.728  10.032  2.3851  0.4699 -0.3322
51358SOL    HW258632  11.536   7.629  10.144 -2.4766 -0.8630 -0.0476
51359SOL     OW58633   5.185   1.220   7.274 -0.1272 -0.2112  0.0431
51359SOL    HW158634   5.252   1.177   7.220 -1.7935 -2.1454 -0.6402
51359SOL    HW258635   5.226   1.300   7.304  1.8266 -0.3727 -1.9226
51360SOL     OW58636   0.429   4.478   5.286  0.5131  0.0429 -0.0751
51360SOL    HW158637   0.420   4.505   5.194  3.3463  0.9000 -0.2216
51360SOL    HW258638   0.340   4.468   5.317 -0.5685  1.0268 -2.5658
51361SOL     OW58639   9.951   6.476  11.515  0.0959 -0.3811 -0.0300
51361SOL    HW158640   9.956   6.489  11.421  1.2466 -1.0605 -0.0852
51361SOL    HW258641   9.991   6.391  11.530  0.6073  0.0383  1.1483
51362SOL     OW58642   7.698   7.821  11.318  1.2881  0.3922 -0.5010
51362SOL    HW158643   7.763   7.772  11.369 -0.5030  0.4302  1.9754
51362SOL    HW258644   7.672   7.759  11.249  0.2610 -1.6487  1.5744
51363SOL     OW58645   8.716  10.935   8.711  0.3911 -0.1628  0.1190
51363SOL    HW158646   8.638  10.989   8.723 -0.9181 -2.1175  0.8921
51363SOL    HW258647   8.713  10.872   8.783  1.3535 -1.8288 -1.2241
51364SOL     OW58648   0.329  11.707   0.181 -0.3862  0.6166 -0.4313
51364SOL    HW158649   0.334  11.801   0.199  0.1727  0.4144  0.5542
51364SOL    HW258650   0.420  11.679   0.175 -0.5309 -0.0124  0.1577
51365SOL     OW58651   7.060  11.468   1.622  0.0399  0.4313  0.2742
51365SOL    HW158652   7.059  11.562   1.606  0.0720  0.5612  1.0447
51365SOL    HW258653   7.052  11.458   1.716 -0.6325 -0.3601  0.1520
51366SOL     OW58654  10.842   0.830   3.930 -0.4062  0.4798 -0.6044
51366SOL    HW158655  10.817   0.844   3.839  0.8102 -0.4587 -1.1162
51366SOL    HW258656  10.813   0.740   3.949 -0.4587  0.5938 -0.1270
51367SOL     OW58657   0.991   7.532  10.663 -0.5529 -0.5852 -0.0433
51367SOL    HW158658   0.947   7.449  10.679 -1.4447 -0.2179 -0.5145
51367SOL    HW258659   0.929   7.583  10.611  0.3977 -0.0243 -0.6754
51368SOL     OW58660   3.591  12.039   6.834 -0.3763 -0.0661  0.4402
51368SOL    HW158661   3.509  11.992   6.814  0.2368 -0.8053 -0.4544
51368SOL    HW258662   3.631  12.053   6.749  0.8199 -0.4530  0.9186
51369SOL     OW58663   4.307   4.088   4.061  0.8533 -0.0407 -0.5588
51369SOL    HW158664   4.259   4.099   4.143 -0.1919  1.3679 -1.3116
51369SOL    HW258665   4.264   4.148   4.000  2.0984 -0.4840 -1.9307
51370SOL     OW58666   0.935   5.767   9.366  0.2810 -0.5203  0.1432
51370SOL    HW158667   1.011   5.813   9.331 -0.7385  1.6885  0.6576
51370SOL    HW258668   0.932   5.684   9.318  0.9707  0.8588 -2.4537
51371SOL     OW58669   2.792   1.258   5.113 -0.2829 -0.1805 -0.0870
51371SOL    HW158670   2.702   1.224   5.116 -0.1106 -0.6628 -0.1625
51371SOL    HW258671   2.824   1.248   5.203 -0.6458  0.9749  0.1888
51372SOL     OW58672   1.666   7.858  10.778 -1.0407 -0.0485  0.3811
51372SOL    HW158673   1.572   7.860  10.760 -0.7687  0.9160 -1.1645
51372SOL    HW258674   1.673   7.887  10.869 -2.0903  3.5441 -0.5060
51373SOL     OW58675   1.500   5.797   4.200  0.2111 -0.1472 -0.8304
51373SOL    HW158676   1.448   5.730   4.156  0.1460 -0.4416 -0.3129
51373SOL    HW258677   1.579   5.805   4.146 -0.2051  0.0371 -1.4115
51374SOL     OW58678  10.166  11.529   4.300 -0.0405  0.1345 -0.3282
51374SOL    HW158679  10.074  11.521   4.274 -0.7972  1.4996  1.6889
51374SOL    HW258680  10.214  11.530   4.217 -1.9964  1.2293 -1.5306
51375SOL     OW58681   9.537   5.744   1.597 -0.1131 -0.1276  0.1733
51375SOL    HW158682   9.616   5.749   1.544 -0.9210  0.2003 -1.0462
51375SOL    HW258683   9.568   5.731   1.686  1.2903 -0.5470 -0.3574
51376SOL     OW58684  11.128   0.745   4.040  0.1798  0.1087  0.5771
51376SOL    HW158685  11.171   0.792   3.968  0.5745 -0.3997  0.4729
51376SOL    HW258686  11.035   0.745   4.016  0.3465 -0.3598 -0.1231
51377SOL     OW58687   4.908   3.946   1.216 -0.3909 -0.0420 -0.0626
51377SOL    HW158688   4.963   3.924   1.291  1.3134  0.0609 -1.2248
51377SOL    HW258689   4.880   4.036   1.232 -2.3323 -0.8904  1.7318
51378SOL     OW58690   3.385   2.367   9.928  0.4513 -0.6814  0.0132
51378SOL    HW158691   3.390   2.294   9.866 -0.3396 -0.4880 -0.2883
51378SOL    HW258692   3.413   2.444   9.878  1.0987 -0.7441  0.2758
51379SOL     OW58693  10.073   7.037  11.480 -0.2822  0.1636  0.3165
51379SOL    HW158694  10.151   7.079  11.515 -0.2260 -0.1917  0.6242
51379SOL    HW258695  10.106   6.962  11.431 -0.3881  0.4300 -0.1595
51380SOL     OW58696   9.087   8.795  11.248  0.4819  0.2085  0.1884
51380SOL    HW158697   9.058   8.825  11.335 -0.4926  0.9887 -0.3769
51380SOL    HW258698   9.133   8.870  11.210  2.0950 -0.5732  0.5274
51381SOL     OW58699   9.067   7.825   8.008  0.3200  0.5068 -0.1135
51381SOL    HW158700   9.060   7.748   8.065 -2.2525  1.0242  0.3700
51381SOL    HW258701   9.070   7.788   7.919 -1.4430 -0.2030  0.0816
51382SOL     OW58702   5.587   2.039   6.138  0.0125  0.1721 -0.2121
51382SOL    HW158703   5.632   2.122   6.152 -1.7852  1.4563 -1.5367
51382SOL    HW258704   5.528   2.031   6.213 -1.7215  1.5289 -1.3213
51383SOL     OW58705   3.659   3.990   2.350 -0.5219 -0.1400  0.2134
51383SOL    HW158706   3.740   3.978   2.399  1.0303  2.5514 -1.4059
51383SOL    HW258707   3.672   3.942   2.269 -0.3468  0.5741 -0.1959
51384SOL     OW58708   4.462  10.371   5.221  0.2161  0.1801  0.4921
51384SOL    HW158709   4.449  10.279   5.196  0.1590 -0.1531  1.6890
51384SOL    HW258710   4.515  10.407   5.149  2.0725 -1.3461  0.9757
51385SOL     OW58711   1.240   1.109   2.757  0.3051 -0.2616 -0.6086
51385SOL    HW158712   1.245   1.112   2.661  0.7281  1.1203 -0.5711
51385SOL    HW258713   1.151   1.081   2.776  0.4645 -1.3661 -1.3943
51386SOL     OW58714   0.403  11.819   9.702 -0.5998 -0.3388 -0.8086
51386SOL    HW158715   0.417  11.847   9.793 -1.7602 -0.9227 -0.4263
51386SOL    HW258716   0.365  11.731   9.710 -0.2403 -0.6076 -1.8810
51387SOL     OW58717   7.557   0.495  10.638  0.0015 -0.8560 -0.0529
51387SOL    HW158718   7.562   0.403  10.612  1.0295 -0.6219 -0.7421
51387SOL    HW258719   7.631   0.537  10.592 -1.4053  0.6258 -1.0648
51388SOL     OW58720  12.064   1.586   3.949 -0.1386  0.4663  0.8923
51388SOL    HW158721  11.992   1.575   3.886 -0.8871  1.4201  1.5477
51388SOL    HW258722  12.127   1.518   3.925 -1.0307 -0.0779 -0.0158
51389SOL     OW58723  11.813   1.969   0.120  0.2074  0.2673 -0.3699
51389SOL    HW158724  11.724   2.003   0.120  0.3928  0.7881  0.3334
51389SOL    HW258725  11.859   2.022   0.055  0.7754  2.2107  1.4977
51390SOL     OW58726   2.200   2.777   6.638  0.2025 -0.1863  0.8015
51390SOL    HW158727   2.250   2.708   6.682  3.2654  0.5477 -1.1738
51390SOL    HW258728   2.135   2.729   6.586  0.1814 -1.3685  1.8755
51391SOL     OW58729   1.891   6.968   9.752  0.0481  0.0075 -0.4136
51391SOL    HW158730   1.861   7.050   9.793  0.3853  0.0212 -0.1921
51391SOL    HW258731   1.929   6.996   9.669  0.7865  0.1569 -0.0342
51392SOL     OW58732   0.566   6.371  11.267  0.2133 -0.1092  0.5298
51392SOL    HW158733   0.626   6.306  11.306  0.5561 -1.4096 -1.9015
51392SOL    HW258734   0.615   6.453  11.269  0.4094 -0.2352  2.2483
51393SOL     OW58735   3.583  11.252   1.801  0.0417  0.1036 -0.1768
51393SOL    HW158736   3.499  11.255   1.754  0.4077 -1.1080 -0.9531
51393SOL    HW258737   3.615  11.342   1.797 -1.1305  0.5547 -0.0293
51394SOL     OW58738   7.370   3.222   9.223  0.4557 -0.6790 -0.1902
51394SOL    HW158739   7.434   3.277   9.268  0.1269 -0.6142  0.1959
51394SOL    HW258740   7.287   3.240   9.267  0.2745 -1.2006 -0.3116
51395SOL     OW58741   8.030   6.374   6.462 -0.1447 -0.6086 -0.8459
51395SOL    HW158742   7.968   6.363   6.534  1.3363  0.1013  0.5980
51395SOL    HW258743   8.060   6.285   6.444  0.4063 -0.6758  0.3026
51396SOL     OW58744  10.311   5.273   7.172 -0.0541  0.1338 -0.2681
51396SOL    HW158745  10.224   5.232   7.174 -0.2262  0.4428 -0.9408
51396SOL    HW258746  10.323   5.309   7.259 -0.3155 -0.5025  0.0364
51397SOL     OW58747   6.231   7.309   8.155  0.4214 -0.4460 -0.3106
51397SOL    HW158748   6.217   7.231   8.210  1.1070 -0.6490 -0.4099
51397SOL    HW258749   6.273   7.275   8.076  1.0708  0.0692 -0.1924
51398SOL     OW58750   0.898   4.184   3.643  0.1721 -0.1175  0.1558
51398SOL    HW158751   0.870   4.102   3.601  1.8195 -1.1129  0.9157
51398SOL    HW258752   0.976   4.210   3.595 -0.2163  0.9198  0.0668
51399SOL     OW58753  11.576   2.018  11.351  0.1916  0.4470  0.4292
51399SOL    HW158754  11.664   2.024  11.388 -0.2097 -1.8782  2.0143
51399SOL    HW258755  11.558   1.924  11.349 -1.3697  0.6990 -2.1437
51400SOL     OW58756   6.021   3.586   5.358 -0.9234  0.1700 -0.4271
51400SOL    HW158757   6.016   3.606   5.452 -0.1618 -0.8963 -0.1415
51400SOL    HW258758   5.993   3.667   5.315 -1.3145  0.6668  0.7159
51401SOL     OW58759  10.220  11.432   8.946 -0.5088 -0.2990 -0.1374
51401SOL    HW158760  10.234  11.337   8.945  1.6928 -0.0360  0.1891
51401SOL    HW258761  10.212  11.456   8.854  0.0783 -0.6683 -0.2894
51402SOL     OW58762  11.453   5.266   3.054 -0.8293  0.1317 -0.1439
51402SOL    HW158763  11.364   5.282   3.084 -0.6188 -1.0371  1.2481
51402SOL    HW258764  11.460   5.171   3.048 -0.6582  0.2500 -3.5839
51403SOL     OW58765   6.279   8.536   6.337 -0.4954 -0.4146  0.2208
51403SOL    HW158766   6.266   8.513   6.429 -1.7104 -0.2121  0.1192
51403SOL    HW258767   6.275   8.452   6.291  0.3516 -0.5408  0.3703
51404SOL     OW58768   8.734   0.029   1.515  0.2823  0.2276  0.4775
51404SOL    HW158769   8.791   0.046   1.590 -0.5924 -0.3399  1.2885
51404SOL    HW258770   8.774   0.078   1.443  0.3213  2.0310  1.6649
51405SOL     OW58771   3.827  11.966  10.843 -0.0428  0.4052 -0.7735
51405SOL    HW158772   3.764  12.033  10.872 -0.4853  0.0503 -0.9024
51405SOL    HW258773   3.888  12.014  10.787 -1.1813  0.4553 -2.0333
51406SOL     OW58774   0.965   8.938  10.445  0.6829 -0.7845 -0.1429
51406SOL    HW158775   0.968   9.034  10.447  2.5064 -0.7947 -0.9021
51406SOL    HW258776   1.039   8.911  10.500  1.3225 -1.7148 -1.4229
51407SOL     OW58777   0.012   4.946   4.257  0.3704  0.4180  0.0049
51407SOL    HW158778   0.070   4.981   4.324  0.4263  0.2006  0.0706
51407SOL    HW258779  -0.027   5.023   4.216 -0.6225  0.5325  1.1249
51408SOL     OW58780   7.579  11.587   0.827 -0.2006  0.8814 -0.1880
51408SOL    HW158781   7.626  11.505   0.810 -2.2548 -0.8099  1.6070
51408SOL    HW258782   7.502  11.583   0.770 -1.1288  0.7623  1.0427
51409SOL     OW58783   8.325   4.515   5.774 -0.5777 -0.1785  0.5899
51409SOL    HW158784   8.328   4.586   5.710  0.0767 -1.5882 -1.0324
51409SOL    HW258785   8.417   4.487   5.782 -0.6896 -0.1788  1.9774
51410SOL     OW58786   5.319  11.796  10.522 -0.7250  0.7898 -0.4585
51410SOL    HW158787   5.301  11.712  10.564  0.9111  1.8483  2.6276
51410SOL    HW258788   5.411  11.791  10.497 -0.3865  1.8834  0.4640
51411SOL     OW58789   5.005   6.753   9.002 -0.2235  0.1626  0.4431
51411SOL    HW158790   5.097   6.728   9.010 -0.3522  0.0661  2.1498
51411SOL    HW258791   4.956   6.671   9.012 -0.5102  0.2576 -0.1289
51412SOL     OW58792   8.903   3.101   6.311  0.1124  0.0740 -0.0952
51412SOL    HW158793   8.908   3.118   6.405 -0.5933 -0.1652 -0.0117
51412SOL    HW258794   8.935   3.011   6.301 -3.8216 -1.5927  0.4848
51413SOL     OW58795  11.414   9.337   1.818 -0.2847  0.7033  0.0500
51413SOL    HW158796  11.384   9.399   1.884 -0.4776 -0.9794  1.6151
51413SOL    HW258797  11.510   9.346   1.820 -0.3752  2.6015 -1.4691
51414SOL     OW58798   5.462   2.179   2.953  0.5672 -0.1364 -0.1132
51414SOL    HW158799   5.449   2.131   2.871  1.7231  0.1965 -0.5069
51414SOL    HW258800   5.385   2.236   2.959 -0.1440 -1.0479 -0.3242
51415SOL     OW58801  11.418   7.051   1.582 -0.2531 -0.4003  0.1458
51415SOL    HW158802  11.472   6.974   1.567  0.3989  0.1503 -0.4395
51415SOL    HW258803  11.402   7.086   1.494  0.4316  0.7607  0.4587
51416SOL     OW58804   7.773   5.317  10.480 -0.4073 -0.5689 -0.3894
51416SOL    HW158805   7.722   5.314  10.562 -2.2762  0.4229 -1.4459
51416SOL    HW258806   7.731   5.253  10.423  0.5670 -0.8806 -0.7817
51417SOL     OW58807   6.062   5.053   5.606 -0.1303  0.2399  0.4523
51417SOL    HW158808   5.972   5.078   5.584  0.3319 -0.6303 -2.8928
51417SOL    HW258809   6.056   4.960   5.627  0.0474 -0.0041 -0.5198
51418SOL     OW58810  10.561  10.275  10.495  0.3248  0.4500  0.2158
51418SOL    HW158811  10.481  10.223  10.505 -1.4496  3.3121  2.3625
51418SOL    HW258812  10.606  10.266  10.579  0.4393  1.6160  0.2966
51419SOL     OW58813   1.450  11.732   6.617 -0.5845 -0.2843  0.0334
51419SOL    HW158814   1.528  11.683   6.641 -0.3956  1.0160  2.4240
51419SOL    HW258815   1.451  11.733   6.521  2.5318 -0.0267 -0.0436
51420SOL     OW58816  10.212   3.364   7.431  0.4423 -0.2459 -0.3707
51420SOL    HW158817  10.295   3.331   7.395 -0.5443 -1.4242 -1.6687
51420SOL    HW258818  10.184   3.296   7.492 -0.3555 -0.6721 -1.1771
51421SOL     OW58819   5.719   8.378   1.310  0.0095  0.3043 -0.0542
51421SOL    HW158820   5.628   8.407   1.300 -0.4364 -0.5897  1.2319
51421SOL    HW258821   5.742   8.403   1.399  0.0604 -1.9887  0.6366
51422SOL     OW58822   6.254   2.808   2.695 -0.2217  0.6100 -0.3306
51422SOL    HW158823   6.221   2.731   2.741 -1.8967 -0.2214 -2.7471
51422SOL    HW258824   6.336   2.829   2.741  0.2370 -2.5026  0.5346
51423SOL     OW58825   3.429   7.527  10.369 -0.0383  0.2688  0.6446
51423SOL    HW158826   3.492   7.599  10.373 -1.1636  1.4707 -1.4265
51423SOL    HW258827   3.367   7.545  10.440 -1.2588  2.3924 -0.8460
51424SOL     OW58828  11.166   3.403  10.534  0.1344  0.2562 -0.2391
51424SOL    HW158829  11.112   3.475  10.568  0.3803 -0.6502  2.2631
51424SOL    HW258830  11.167   3.339  10.605  3.1934 -0.4778 -0.8279
51425SOL     OW58831   5.855  10.307   6.238  0.2275 -0.0721 -0.0171
51425SOL    HW158832   5.836  10.343   6.151 -0.3101  0.0371  0.1389
51425SOL    HW258833   5.827  10.376   6.299  1.5965  0.2958  0.2193
51426SOL     OW58834   2.564   3.921   8.647 -0.3059  0.1337 -0.3439
51426SOL    HW158835   2.518   3.881   8.573  2.2199  1.2145 -2.7016
51426SOL    HW258836   2.584   3.848   8.705 -0.4361 -1.1639 -1.8552
51427SOL     OW58837  11.742   1.412   3.272  0.4901  0.2868  0.0401
51427SOL    HW158838  11.777   1.401   3.183 -0.8541 -1.3300 -0.3447
51427SOL    HW258839  11.737   1.323   3.307 -3.2093  0.3133  0.0135
51428SOL     OW58840   9.880  11.908   2.181  0.1056  0.2043  0.0242
51428SOL    HW158841   9.905  11.913   2.274  1.1420  3.3247 -0.3126
51428SOL    HW258842   9.830  11.988   2.165  2.2573  1.1488 -2.6808
51429SOL     OW58843   3.420   7.185   6.345  0.5779 -0.2426  0.1196
51429SOL    HW158844   3.393   7.213   6.257 -1.9401 -2.6507 -0.0184
51429SOL    HW258845   3.339   7.185   6.396  1.5929 -1.1206  1.8065
51430SOL     OW58846   4.831   6.682   3.814  0.2428  0.0145 -0.0785
51430SOL    HW158847   4.817   6.599   3.859  0.4514 -0.5761 -1.0844
51430SOL    HW258848   4.906   6.666   3.757 -0.2687  0.6184 -0.9436
51431SOL     OW58849  11.365   1.057   0.223  0.6447 -0.5649  0.0357
51431SOL    HW158850  11.447   1.086   0.264 -0.9680  1.5152  1.9937
51431SOL    HW258851  11.361   1.106   0.141  1.7669 -1.4315 -0.5811
51432SOL     OW58852   5.897  10.465   1.727 -0.3899  0.0785  0.4256
51432SOL    HW158853   5.870  10.387   1.775 -2.2293  0.6768  0.4204
51432SOL    HW258854   5.911  10.434   1.637 -0.9122 -0.2837  0.4657
51433SOL     OW58855   9.340   8.132   8.920 -0.3554 -0.5703 -0.4127
51433SOL    HW158856   9.399   8.200   8.889 -0.4697 -0.1282  0.3228
51433SOL    HW258857   9.351   8.060   8.857  0.6604 -0.3417 -0.5113
51434SOL     OW58858   6.652   6.795   5.588  0.2093 -0.0126  0.1856
51434SOL    HW158859   6.575   6.738   5.581 -1.6550  2.4117 -0.6982
51434SOL    HW258860   6.724   6.744   5.550 -1.6580 -1.2396 -1.9321
51435SOL     OW58861  12.093   1.760   1.142  0.1929  0.0941 -0.1395
51435SOL    HW158862  12.016   1.702   1.140 -0.3988  0.7853  1.2457
51435SOL    HW258863  12.090   1.800   1.228  1.6770  0.7540 -0.3727
51436SOL     OW58864   2.428  10.133   8.185 -0.4006 -0.3849  0.7636
51436SOL    HW158865   2.444  10.044   8.216  0.4693  0.0673  1.6591
51436SOL    HW258866   2.433  10.125   8.089  3.3721 -0.7114  0.8382
51437SOL     OW58867   7.775   7.636   2.209 -0.0257 -0.3338 -0.2250
51437SOL    HW158868   7.775   7.540   2.210 -0.9207 -0.3700  1.8745
51437SOL    HW258869   7.850   7.659   2.155  0.9091 -2.2319  0.1571
51438SOL     OW58870   0.757  11.883   5.072 -0.0930 -0.4938 -0.0215
51438SOL    HW158871   0.812  11.946   5.119  0.3802 -1.3529  0.6176
51438SOL    HW258872   0.676  11.930   5.053  0.1187  0.1942  0.7508
51439SOL     OW58873   9.097  12.032   7.490  0.2223  0.5357 -0.3935
51439SOL    HW158874   9.090  11.941   7.519  0.6057  0.8413  0.6806
51439SOL    HW258875   9.175  12.034   7.434  0.7555  0.3866  0.3316
51440SOL     OW58876   3.597   3.056   1.235 -0.4383 -0.0522 -0.1009
51440SOL    HW158877   3.514   3.080   1.275 -0.0598  0.1040  0.6230
51440SOL    HW258878   3.601   3.107   1.155 -0.9401  0.1087 -0.0262
51441SOL     OW58879  10.935   1.519   5.509 -0.4084 -0.6416 -0.2391
51441SOL    HW158880  10.947   1.425   5.522 -1.9029 -0.5290  2.9056
51441SOL    HW258881  10.842   1.534   5.522 -0.4032  1.1777 -1.8273
51442SOL     OW58882   7.195   4.531   6.218  0.8090 -0.6452  0.7166
51442SOL    HW158883   7.149   4.457   6.257 -1.1192  1.6320  3.1813
51442SOL    HW258884   7.211   4.505   6.128 -0.7138 -3.6116  1.1941
51443SOL     OW58885  11.078   9.331   1.828  0.1478 -0.5636  0.4559
51443SOL    HW158886  11.060   9.327   1.734 -0.0779  3.0976  0.1716
51443SOL    HW258887  11.166   9.368   1.834 -1.0145  2.4103  1.4815
51444SOL     OW58888  11.126   7.216   4.300  0.2302 -0.0496 -0.1151
51444SOL    HW158889  11.049   7.214   4.244  0.0042 -4.2871 -0.0289
51444SOL    HW258890  11.190   7.162   4.252  1.6376 -0.0210  1.6557
51445SOL     OW58891   4.217   2.973   2.436  0.0595 -0.3876  0.3432
51445SOL    HW158892   4.253   2.980   2.524  0.4304 -0.5615  0.2076
51445SOL    HW258893   4.208   3.064   2.406 -0.6375 -0.3077  0.7864
51446SOL     OW58894   8.649   9.456  11.348  0.3430  0.2370  0.3207
51446SOL    HW158895   8.635   9.401  11.425  0.6280  0.8199  0.7882
51446SOL    HW258896   8.583   9.425  11.285  0.8898 -1.0495  0.3409
51447SOL     OW58897  12.123   1.635  11.402  1.0469  0.4954 -0.1957
51447SOL    HW158898  12.096   1.699  11.468 -0.1515  1.1711 -1.3087
51447SOL    HW258899  12.197   1.590  11.442 -0.4519 -0.0374  2.1555
51448SOL     OW58900   6.562   0.742   5.874 -0.3289  0.1644 -0.0296
51448SOL    HW158901   6.487   0.714   5.822 -1.3432  0.4333  1.2380
51448SOL    HW258902   6.530   0.743   5.964  1.4920 -0.6818  0.6748
51449SOL     OW58903   2.173   3.362   7.546 -0.0250 -0.3916  0.2408
51449SOL    HW158904   2.207   3.339   7.633  0.2414  1.6836  0.7270
51449SOL    HW258905   2.154   3.455   7.552 -3.6992 -0.9353 -0.7426
51450SOL     OW58906   7.770   8.983   9.645 -0.4820 -0.1726  0.4852
51450SOL    HW158907   7.809   8.990   9.558  0.6877 -2.5851  0.7161
51450SOL    HW258908   7.820   9.045   9.699  1.1695 -1.1071  0.1244
51451SOL     OW58909   2.301   5.504   3.115 -0.2569 -0.3517  0.1492
51451SOL    HW158910   2.242   5.574   3.145  0.3188 -0.2387  1.0599
51451SOL    HW258911   2.352   5.481   3.193  0.5283 -0.8206 -0.4895
51452SOL     OW58912  10.938   2.006   9.017 -0.5227  0.2471 -0.0133
51452SOL    HW158913  10.979   2.054   9.089 -1.5766  1.7689 -0.3831
51452SOL    HW258914  10.851   2.044   9.009 -1.6841 -2.2122  0.0987
51453SOL     OW58915   0.887  11.944   6.182  0.2904  0.4599 -0.1483
51453SOL    HW158916   0.944  11.910   6.250  1.3642  1.3382 -0.5744
51453SOL    HW258917   0.909  11.893   6.104  1.0267  1.2674 -0.4866
51454SOL     OW58918   7.021   4.831   2.320  0.0105 -0.4671 -0.4031
51454SOL    HW158919   6.927   4.846   2.316  0.0270 -0.5795 -2.2331
51454SOL    HW258920   7.054   4.898   2.381 -1.2404 -0.4428  0.2653
51455SOL     OW58921  10.729   3.867   9.553 -0.0486 -0.2639  0.1384
51455SOL    HW158922  10.819   3.900   9.551 -0.4415  0.8624  0.2386
51455SOL    HW258923  10.738   3.772   9.547  1.1897 -0.2327  1.1051
51456SOL     OW58924   6.124   5.495   5.902 -0.3642  0.5525  0.0199
51456SOL    HW158925   6.104   5.465   5.990  1.2952  0.9499  0.5706
51456SOL    HW258926   6.109   5.418   5.846  0.5595 -0.3430  0.9514
51457SOL     OW58927   5.525  11.719   5.098  0.3390 -0.0349 -0.1800
51457SOL    HW158928   5.594  11.670   5.053  0.2564 -0.1109 -0.2238
51457SOL    HW258929   5.479  11.654   5.151  3.0307  0.6365  3.3729
51458SOL     OW58930  10.239   8.976   8.903  0.2650 -0.3382  0.2322
51458SOL    HW158931  10.250   8.959   8.996 -1.9559  0.2105  0.6510
51458SOL    HW258932  10.172   9.044   8.898  1.5226  0.9009 -1.7395
51459SOL     OW58933   7.090   6.832   3.749  1.2008 -0.2844  0.5008
51459SOL    HW158934   7.052   6.900   3.804 -0.1200 -1.1484  0.6989
51459SOL    HW258935   7.136   6.879   3.680 -1.9372  0.8548 -0.9543
51460SOL     OW58936   1.405   9.550   1.417  0.2534  0.2925  0.1568
51460SOL    HW158937   1.466   9.583   1.350  0.6085  0.5868  0.6194
51460SOL    HW258938   1.449   9.473   1.453  0.2075  0.3215  0.2736
51461SOL     OW58939   8.534   5.657  10.272 -0.2629  0.2546 -0.1487
51461SOL    HW158940   8.520   5.580  10.217  2.9552 -0.8019  0.3046
51461SOL    HW258941   8.483   5.726  10.230 -3.2743 -2.0081 -0.5915
51462SOL     OW58942   3.724   1.567   0.753 -0.0384 -0.0691  0.0708
51462SOL    HW158943   3.749   1.490   0.804  0.5919  0.1295  0.0711
51462SOL    HW258944   3.746   1.545   0.663 -0.1688 -0.0174  0.0262
51463SOL     OW58945  11.490  11.748   9.709 -0.0515 -0.5616  0.4805
51463SOL    HW158946  11.570  11.695   9.703  0.5002  0.3703 -0.6239
51463SOL    HW258947  11.430  11.706   9.648  0.0504 -0.4601  0.3135
51464SOL     OW58948   3.269   4.587  10.247  0.5285  0.4638 -0.7738
51464SOL    HW158949   3.321   4.613  10.171  1.9272  1.4691  0.4582
51464SOL    HW258950   3.281   4.659  10.310 -1.8932  0.4435 -0.1785
51465SOL     OW58951   3.860   9.629   3.711  0.1757 -0.1714  0.5914
51465SOL    HW158952   3.874   9.673   3.794  2.4294 -1.0575  0.7434
51465SOL    HW258953   3.767   9.607   3.711  0.0066  0.3572  2.5894
51466SOL     OW58954   0.038   6.350   6.773  0.4916  0.0299  0.2824
51466SOL    HW158955  -0.020   6.328   6.701  1.2475  2.5526 -1.1930
51466SOL    HW258956   0.113   6.291   6.762  0.4575  0.1725 -0.8256
51467SOL     OW58957   3.537   6.145   9.957 -0.1326 -0.6769  0.1630
51467SOL    HW158958   3.482   6.122   9.882 -0.1267 -0.2673  0.0318
51467SOL    HW258959   3.569   6.061   9.990 -0.5035 -0.8897 -0.0128
51468SOL     OW58960  11.156   9.905   7.081  0.6607  0.2119  0.8460
51468SOL    HW158961  11.116   9.952   7.008  1.0708  0.4074  0.7451
51468SOL    HW258962  11.176   9.819   7.045  1.3448  0.4830  0.5711
51469SOL     OW58963   1.504   4.027   3.816  0.2935 -0.1097 -0.0143
51469SOL    HW158964   1.586   4.074   3.827 -0.2340  0.5522  1.3266
51469SOL    HW258965   1.477   4.004   3.905 -0.9226 -0.4009 -0.4305
51470SOL     OW58966  10.590   4.416   1.882 -0.1692 -0.0308  0.1621
51470SOL    HW158967  10.533   4.488   1.853 -0.9522 -0.0805  1.4879
51470SOL    HW258968  10.679   4.450   1.871 -0.5040  0.7316 -0.2707
51471SOL     OW58969   0.343  11.796   6.245  0.0529 -0.7684 -0.3346
51471SOL    HW158970   0.432  11.776   6.275  0.4897  0.8829 -0.4573
51471SOL    HW258971   0.348  11.886   6.213 -1.8154 -0.4261  0.2348
51472SOL     OW58972   9.786   8.659   1.368  0.4909  0.1851 -0.2836
51472SOL    HW158973   9.735   8.694   1.441  1.0476  0.5619 -0.0769
51472SOL    HW258974   9.743   8.693   1.289 -0.5093 -0.7475 -0.1714
51473SOL     OW58975   9.070   7.394   2.995  0.2672 -0.6739  0.2479
51473SOL    HW158976   9.114   7.329   3.049  0.2878 -0.1455  0.8859
51473SOL    HW258977   8.977   7.373   3.002  0.2527 -0.4762  0.6691
51474SOL     OW58978   6.093   3.294   0.058  0.1065  0.4755 -0.0910
51474SOL    HW158979   6.174   3.260   0.096  1.5325  0.9978 -2.4490
51474SOL    HW258980   6.083   3.245  -0.023 -1.7755  0.7018 -0.0274
51475SOL     OW58981   8.056   4.299  11.466 -0.5561 -0.1047  0.1316
51475SOL    HW158982   8.008   4.331  11.389 -3.1376 -0.5722  1.4227
51475SOL    HW258983   8.037   4.363  11.535 -0.6081 -1.1008  1.0739
51476SOL     OW58984   7.143   0.240  11.003  0.3636 -0.2416 -0.1981
51476SOL    HW158985   7.092   0.310  11.043 -0.6015 -1.4376  0.7760
51476SOL    HW258986   7.207   0.285  10.948 -1.0503  1.3460 -0.6329
51477SOL     OW58987   7.199   9.616   3.650 -0.1093  0.0244 -0.5255
51477SOL    HW158988   7.256   9.576   3.584  1.0040 -0.3755  0.6434
51477SOL    HW258989   7.243   9.698   3.672 -0.8989  0.5465 -0.8360
51478SOL     OW58990   5.316   0.315   2.309  0.4340  0.0517 -0.7232
51478SOL    HW158991   5.228   0.278   2.297  0.3611  0.5577 -1.7559
51478SOL    HW258992   5.366   0.243   2.348 -0.1828 -0.5588 -1.0317
51479SOL     OW58993   1.210  10.568   0.852 -0.1505 -0.5968 -0.0319
51479SOL    HW158994   1.293  10.528   0.876  0.3976  0.7164  0.3595
51479SOL    HW258995   1.216  10.658   0.884 -1.8010 -0.5222  0.1736
51480SOL     OW58996   5.540   8.458  10.845  0.1140 -0.2967 -0.5120
51480SOL    HW158997   5.568   8.368  10.827  0.6222 -0.4856  1.0450
51480SOL    HW258998   5.577   8.510  10.774  0.3036 -1.2336 -1.1159
51481SOL     OW58999   9.647   6.579   7.601  0.0968 -0.3028  0.6887
51481SOL    HW159000   9.601   6.571   7.517 -1.6131  1.4679  1.3640
51481SOL    HW259001   9.699   6.499   7.608  1.4383  0.1174 -2.6916
51482SOL     OW59002   5.005   0.861   3.343 -0.1015  0.1756  0.2553
51482SOL    HW159003   4.935   0.829   3.285 -0.3267  1.7365 -0.3836
51482SOL    HW259004   4.982   0.824   3.429 -1.0145 -0.3517 -0.1887
51483SOL     OW59005   8.307   9.088   8.457 -0.0094  0.2749  1.0372
51483SOL    HW159006   8.390   9.053   8.425 -0.3487 -0.9686  1.4727
51483SOL    HW259007   8.308   9.180   8.431 -0.4882 -0.6740 -3.0014
51484SOL     OW59008   5.284   2.049  11.618 -0.1255  0.0020 -0.2027
51484SOL    HW159009   5.282   2.044  11.714 -0.5296 -1.2005 -0.2626
51484SOL    HW259010   5.276   2.143  11.599  1.8769  0.4691  0.9662
51485SOL     OW59011   5.322   8.757   3.577  0.0452  0.1082 -0.2357
51485SOL    HW159012   5.394   8.784   3.634 -0.2937  0.1858  0.1611
51485SOL    HW259013   5.258   8.716   3.636 -0.8113  1.1889 -0.3767
51486SOL     OW59014   2.609   2.238  12.055 -0.2885 -0.0583 -0.1577
51486SOL    HW159015   2.685   2.266  12.106  0.7884 -1.8337 -0.6770
51486SOL    HW259016   2.537   2.236  12.118  0.4064  0.3249  0.6672
51487SOL     OW59017   2.260   1.961  11.422 -0.0279  0.4397  0.5705
51487SOL    HW159018   2.327   1.974  11.355  0.6663 -0.0334  1.1554
51487SOL    HW259019   2.266   2.038  11.479  0.5931  0.0230  1.0902
51488SOL     OW59020   6.282   2.489   6.799  0.1264  0.1214 -0.4232
51488SOL    HW159021   6.312   2.426   6.733  0.1271  0.4691 -0.7574
51488SOL    HW259022   6.350   2.557   6.799 -0.7111  0.9969 -1.2968
51489SOL     OW59023   8.411  11.569   1.926 -0.3561 -0.3417 -0.3034
51489SOL    HW159024   8.431  11.659   1.950 -0.2335 -0.5666  0.4780
51489SOL    HW259025   8.317  11.568   1.908 -0.3277 -0.0296 -0.4705
51490SOL     OW59026   0.026   9.883   6.371 -0.4036  0.1457 -0.1467
51490SOL    HW159027   0.058   9.843   6.290  0.0608  1.2511 -0.5207
51490SOL    HW259028  -0.055   9.928   6.347 -0.2145  0.5576 -0.0196
51491SOL     OW59029   7.188   6.583   9.042 -0.4824 -0.3237 -0.0172
51491SOL    HW159030   7.266   6.532   9.066 -1.2039 -1.0145  0.9246
51491SOL    HW259031   7.183   6.652   9.108  1.0902  1.7112 -1.8835
51492SOL     OW59032   3.478   5.937   8.403  0.1547  0.4711  0.4696
51492SOL    HW159033   3.466   5.853   8.358 -1.9950  0.7629  0.3873
51492SOL    HW259034   3.553   5.977   8.359  0.1717 -0.6759 -0.6219
51493SOL     OW59035   3.372   7.652   6.145 -0.1860  0.6103 -0.2045
51493SOL    HW159036   3.467   7.660   6.139 -0.3694  2.2180 -1.5842
51493SOL    HW259037   3.342   7.735   6.183 -1.0449  0.0376  0.4283
51494SOL     OW59038   1.671   1.202  10.871  0.1250 -0.0293  0.0648
51494SOL    HW159039   1.665   1.262  10.945 -0.1466  1.6128 -1.2406
51494SOL    HW259040   1.708   1.254  10.800  0.7930 -1.6749 -0.8637
51495SOL     OW59041   5.875  10.787   5.509  1.0719 -0.1116 -0.0756
51495SOL    HW159042   5.950  10.731   5.530  1.8651  1.4068  1.4045
51495SOL    HW259043   5.888  10.865   5.562 -1.0220  0.6639 -0.6020
51496SOL     OW59044   1.163   8.097   4.013 -0.2897  0.2283  0.6190
51496SOL    HW159045   1.098   8.167   4.027 -1.8402 -0.8745 -0.6478
51496SOL    HW259046   1.210   8.124   3.934  0.8443  1.0347  1.5453
51497SOL     OW59047   2.840  10.564  11.915  0.0001 -0.0020 -0.1566
51497SOL    HW159048   2.792  10.533  11.838  2.3496 -1.2389 -1.2135
51497SOL    HW259049   2.828  10.494  11.980 -2.1515  1.1314  0.7978
51498SOL     OW59050   5.715   0.112  11.288  0.5239 -0.3313  0.3518
51498SOL    HW159051   5.669   0.033  11.260 -1.1589  0.2354  1.3505
51498SOL    HW259052   5.645   0.172  11.314  1.6709  1.9473 -1.4598
51499SOL     OW59053   9.373   8.603   2.463  0.0454  0.8791  0.0248
51499SOL    HW159054   9.291   8.603   2.512 -0.0697 -0.3995 -0.1303
51499SOL    HW259055   9.425   8.534   2.503 -0.5104 -1.0660 -2.3263
51500SOL     OW59056   8.561  11.403   9.747  0.0418  0.0942  0.4116
51500SOL    HW159057   8.634  11.351   9.714  0.6165  0.2579  1.3671
51500SOL    HW259058   8.561  11.483   9.693 -0.6821 -0.7546 -0.8875
51501SOL     OW59059   6.692   8.280   3.340 -0.1004 -0.1782  0.6256
51501SOL    HW159060   6.650   8.317   3.418  0.8213 -1.6627  1.8837
51501SOL    HW259061   6.674   8.186   3.346 -0.8004 -0.2363 -1.4828
51502SOL     OW59062   3.617   6.575  11.871 -0.0445  0.7799  0.1331
51502SOL    HW159063   3.687   6.579  11.805 -1.2235 -0.8209 -1.3066
51502SOL    HW259064   3.631   6.491  11.915  0.6926  1.8119  1.9306
51503SOL     OW59065   2.469   2.854   0.977 -0.1581 -0.0626 -0.3138
51503SOL    HW159066   2.514   2.801   0.911  1.0942  1.9573 -1.1554
51503SOL    HW259067   2.536   2.913   1.010 -1.4928  0.9691  0.6257
51504SOL     OW59068   6.038   2.161   0.930 -0.3987 -0.3453  0.0198
51504SOL    HW159069   6.064   2.249   0.959  1.0430 -0.7220 -0.0595
51504SOL    HW259070   5.981   2.178   0.854  0.9467  0.5197 -0.8431
51505SOL     OW59071   2.742   0.030   2.447  0.1515  0.3522  0.2576
51505SOL    HW159072   2.788   0.029   2.531  0.6295  0.6404  0.0009
51505SOL    HW259073   2.652   0.056   2.469 -0.0378 -0.7392  0.8267
51506SOL     OW59074   7.685   0.572   2.813 -0.0758 -0.1628  0.3094
51506SOL    HW159075   7.719   0.661   2.807  0.7660 -0.5524 -1.3894
51506SOL    HW259076   7.758   0.517   2.785 -0.8690 -1.3117  0.4643
51507SOL     OW59077   9.562   1.626   0.309  0.0075  0.4177  0.3999
51507SOL    HW159078   9.562   1.653   0.401  0.4238  2.7020 -0.2172
51507SOL    HW259079   9.653   1.604   0.291 -0.2434 -1.0251  0.7604
51508SOL     OW59080   0.598   8.829   3.543 -0.3290  0.2281 -0.3873
51508SOL    HW159081   0.600   8.858   3.452 -1.0355 -0.3057 -0.5795
51508SOL    HW259082   0.607   8.910   3.594 -2.0852  0.7950 -0.9205
51509SOL     OW59083   8.180   7.703  10.544 -0.3720  0.3462  0.2132
51509SOL    HW159084   8.175   7.648  10.465  1.2015  1.0831 -0.4464
51509SOL    HW259085   8.233   7.778  10.517 -1.4158  1.5805  1.4513
51510SOL     OW59086   9.610   0.074   9.458 -0.2379  0.0429 -0.3283
51510SOL    HW159087   9.529   0.026   9.473 -1.2526  1.8306  0.3132
51510SOL    HW259088   9.673   0.037   9.520 -0.6798 -1.0783 -0.5401
51511SOL     OW59089  11.926   7.253   5.006  0.8492 -0.1412 -0.4018
51511SOL    HW159090  11.902   7.162   5.021  1.2651 -0.3965 -1.2471
51511SOL    HW259091  11.908   7.296   5.089 -1.9477 -0.4357 -0.7604
51512SOL     OW59092   4.158  11.748  10.733  0.4916  0.0058 -0.5590
51512SOL    HW159093   4.113  11.772  10.652 -1.3524 -2.4515 -0.3678
51512SOL    HW259094   4.093  11.760  10.802  1.7546  1.1838  0.4852
51513SOL     OW59095   1.503   5.065   5.982  0.0650 -0.0048  0.0056
51513SOL    HW159096   1.588   5.105   5.961  2.3809 -3.6974  1.2715
51513SOL    HW259097   1.472   5.029   5.899  2.6112 -3.2260  0.2434
51514SOL     OW59098   3.462  12.051   4.076  0.2860 -0.0173  0.0745
51514SOL    HW159099   3.536  12.076   4.131 -1.2613  0.0378  2.2821
51514SOL    HW259100   3.397  12.120   4.090  0.0918  0.4293 -2.5320
51515SOL     OW59101   4.724   3.113   6.724  0.3258 -0.0912 -0.4510
51515SOL    HW159102   4.722   3.205   6.698 -2.2747  0.3243  0.9166
51515SOL    HW259103   4.632   3.088   6.732  0.9409 -1.9667  2.0040
51516SOL     OW59104   2.968   5.837   4.834  0.4221 -0.0976 -0.3504
51516SOL    HW159105   2.901   5.797   4.890  0.6298 -0.5122 -0.3947
51516SOL    HW259106   3.051   5.805   4.870  0.7106  1.8479  0.8560
51517SOL     OW59107   9.295  11.402   6.837 -0.5654  0.5203 -0.0217
51517SOL    HW159108   9.258  11.469   6.779  1.1406  1.1212 -0.4741
51517SOL    HW259109   9.290  11.442   6.924 -1.0311  0.5572 -0.0610
51518SOL     OW59110   7.566  10.766  11.839 -0.1949 -0.0997  0.1215
51518SOL    HW159111   7.479  10.729  11.852 -0.4711  0.3599 -0.4157
51518SOL    HW259112   7.609  10.756  11.924 -0.7728 -0.3206  0.3903
51519SOL     OW59113   7.191   1.833   4.155 -0.6627  0.0828  0.8665
51519SOL    HW159114   7.110   1.883   4.164  0.3527  1.8794  0.5044
51519SOL    HW259115   7.212   1.806   4.244 -1.7355 -0.5852  0.9413
51520SOL     OW59116  10.801   0.837   2.206  0.2644 -0.2231 -0.1806
51520SOL    HW159117  10.765   0.790   2.282 -1.5679  1.5177  0.1164
51520SOL    HW259118  10.890   0.860   2.232 -0.2848  0.2331  1.4431
51521SOL     OW59119   9.614  10.157   8.995  0.4792  0.2621 -0.0443
51521SOL    HW159120   9.549  10.206   9.047  1.4519  0.8519  0.6509
51521SOL    HW259121   9.570  10.074   8.975  0.3028 -0.3204  2.3945
51522SOL     OW59122   8.159   7.471  11.304 -0.0141  0.9075 -0.2596
51522SOL    HW159123   8.104   7.473  11.382  0.2379  0.8325 -0.0780
51522SOL    HW259124   8.248   7.467  11.338  0.0489 -0.5107 -0.5571
51523SOL     OW59125   7.181  11.690   0.741  0.3190 -0.2749  0.4996
51523SOL    HW159126   7.215  11.779   0.733  0.5063 -0.4181 -0.3890
51523SOL    HW259127   7.129  11.692   0.821  0.1644  0.6826  0.3905
51524SOL     OW59128   8.891  11.372   7.837  0.3354  0.5206 -0.3537
51524SOL    HW159129   8.839  11.414   7.906  3.2727  0.9982  1.7244
51524SOL    HW259130   8.880  11.278   7.854  1.3334  0.6291  1.1005
51525SOL     OW59131  10.385   2.498   9.284  0.3279 -0.3074 -0.2839
51525SOL    HW159132  10.346   2.462   9.363  1.3388 -0.5868  0.1090
51525SOL    HW259133  10.429   2.423   9.243 -0.8470 -0.3492 -1.5530
51526SOL     OW59134   5.692  12.057   0.936  0.7865  0.3283  0.0709
51526SOL    HW159135   5.685  12.067   0.841 -0.2303  1.0870  0.2049
51526SOL    HW259136   5.767  12.110   0.961  0.9661  0.2467 -0.2907
51527SOL     OW59137   3.411   6.273   8.432 -0.1391 -0.2636  0.0989
51527SOL    HW159138   3.488   6.239   8.388 -1.6355 -1.5815 -1.6874
51527SOL    HW259139   3.341   6.266   8.367 -1.3057  3.2400  0.7755
51528SOL     OW59140   5.443   0.781  11.527 -0.0233  0.5398 -0.3056
51528SOL    HW159141   5.425   0.835  11.604 -0.6577  0.3017 -0.2787
51528SOL    HW259142   5.371   0.717  11.525 -0.6390  1.2273 -1.7114
51529SOL     OW59143   6.692   2.122   6.500  0.5616 -0.1683 -0.0123
51529SOL    HW159144   6.649   2.041   6.476  1.0344  0.0837 -1.8401
51529SOL    HW259145   6.785   2.106   6.483  0.5625  1.0283 -1.2552
51530SOL     OW59146  10.251   1.945   1.240 -0.4579  0.0463  0.4876
51530SOL    HW159147  10.216   2.003   1.308  0.7819 -0.0427  1.2101
51530SOL    HW259148  10.232   1.857   1.270 -0.3170  0.0185  0.4962
51531SOL     OW59149   1.757   4.482   0.427  0.0799 -0.3025  0.0670
51531SOL    HW159150   1.739   4.393   0.399 -2.6269  0.5057 -1.1283
51531SOL    HW259151   1.772   4.531   0.345  1.2763  0.4080  0.6799
51532SOL     OW59152   9.572   8.603   6.067  0.0866  0.0333 -0.1973
51532SOL    HW159153   9.514   8.650   6.007 -0.7207 -2.4292 -1.5042
51532SOL    HW259154   9.661   8.630   6.042 -0.3443  1.5069 -0.2351
51533SOL     OW59155   4.422   2.760  10.030  1.0938  0.3062 -0.1594
51533SOL    HW159156   4.463   2.758  10.117  0.9155 -1.5901 -0.0712
51533SOL    HW259157   4.356   2.690  10.033  1.8972 -0.6187 -2.1986
51534SOL     OW59158   1.465   3.608  11.089 -0.4573  0.6126  0.2637
51534SOL    HW159159   1.406   3.593  11.162 -0.6891  0.5098  0.0542
51534SOL    HW259160   1.464   3.527  11.039 -0.3192  0.6902  0.1318
51535SOL     OW59161  11.943   4.473   1.725 -0.0871 -0.1166  0.3448
51535SOL    HW159162  11.862   4.463   1.674 -1.1671 -2.4592  2.3052
51535SOL    HW259163  11.966   4.384   1.750  1.0925  0.8178  2.8453
51536SOL     OW59164   2.048   3.361   1.534 -0.2322  0.0729 -0.0441
51536SOL    HW159165   1.976   3.306   1.565 -0.1075 -0.4731 -0.6957
51536SOL    HW259166   2.069   3.418   1.608  0.2816 -1.4125  1.0068
51537SOL     OW59167   2.725   7.150   5.521  0.5111  0.3323 -0.9861
51537SOL    HW159168   2.768   7.197   5.593 -0.1017  0.1287 -0.4761
51537SOL    HW259169   2.793   7.093   5.486  0.8674  0.5655 -0.6904
51538SOL     OW59170   4.028   7.090   8.022 -0.1393 -0.4973 -0.1629
51538SOL    HW159171   3.964   7.022   8.004 -1.7604  1.0221 -0.4760
51538SOL    HW259172   3.977   7.171   8.023  1.6156  0.6673  0.7014
51539SOL     OW59173   1.386   1.538  11.070  0.0968  0.4114  0.3727
51539SOL    HW159174   1.411   1.629  11.052  1.2786 -0.1377 -0.9176
51539SOL    HW259175   1.347   1.507  10.988  0.3458 -0.4602  0.5711
51540SOL     OW59176   0.348   6.377   7.314 -0.0487 -0.6289 -0.3904
51540SOL    HW159177   0.316   6.334   7.235 -0.2659 -1.1192 -0.0462
51540SOL    HW259178   0.422   6.430   7.285 -0.8178  0.0839 -1.1109
51541SOL     OW59179   7.289   9.521  10.584 -0.2794  0.2602  0.5151
51541SOL    HW159180   7.303   9.475  10.666 -1.2087  1.0319  1.1310
51541SOL    HW259181   7.197   9.503  10.562  0.0270 -0.1552 -0.5009
51542SOL     OW59182   9.523  11.966   9.208  0.4529 -0.0213 -0.2385
51542SOL    HW159183   9.593  11.928   9.261  0.0567 -0.9321 -0.3558
51542SOL    HW259184   9.518  12.057   9.236  1.0896 -0.1791  0.3980
51543SOL     OW59185   6.392   8.556   4.603 -0.6629 -0.0899 -0.2685
51543SOL    HW159186   6.403   8.592   4.691 -1.2264  0.0161 -0.2404
51543SOL    HW259187   6.310   8.506   4.607 -0.6974 -0.0787 -0.7340
51544SOL     OW59188  11.854  11.882  10.674 -0.4399  0.7407  0.8745
51544SOL    HW159189  11.932  11.827  10.677 -0.7835  0.1391 -0.4620
51544SOL    HW259190  11.785  11.829  10.715 -0.9428 -0.1720 -1.0583
51545SOL     OW59191   5.127  12.037   1.610 -0.3444 -0.1436 -0.4205
51545SOL    HW159192   5.118  12.072   1.699 -1.8701  0.9822 -0.9884
51545SOL    HW259193   5.057  12.079   1.560  1.3548  0.3317 -2.5282
51546SOL     OW59194   1.879   6.885  10.951  0.3546  0.2225  0.1528
51546SOL    HW159195   1.881   6.951  10.882 -0.6211  0.1314  0.0265
51546SOL    HW259196   1.845   6.932  11.028  0.5872  0.1071  0.3252
51547SOL     OW59197  11.631  11.356   2.006 -0.3818  0.2631  0.2632
51547SOL    HW159198  11.578  11.425   2.047 -0.6202 -1.0993  2.4480
51547SOL    HW259199  11.567  11.301   1.961 -0.5961 -0.1336  1.0201
51548SOL     OW59200   7.241  10.723   6.502  0.3537 -0.9170  0.0513
51548SOL    HW159201   7.269  10.731   6.411 -0.9739 -0.6587 -0.3501
51548SOL    HW259202   7.178  10.651   6.502 -1.2155  0.3767  0.3410
51549SOL     OW59203   3.560   7.611   3.712 -0.1670  0.1508  0.0787
51549SOL    HW159204   3.634   7.552   3.721 -0.2517 -0.0961 -0.6985
51549SOL    HW259205   3.540   7.610   3.618 -1.3438 -0.0323  0.3091
51550SOL     OW59206   5.397  10.108   5.428 -0.2023 -0.4997 -0.2587
51550SOL    HW159207   5.490  10.090   5.430 -0.5066 -2.2522 -0.5407
51550SOL    HW259208   5.355  10.028   5.459 -1.6223  0.3284  0.1154
51551SOL     OW59209   9.851   4.236   8.210  0.4485 -0.0331  0.3866
51551SOL    HW159210   9.781   4.288   8.249  0.1241 -0.8260  0.8786
51551SOL    HW259211   9.915   4.301   8.180 -0.1429  0.6633  0.6070
51552SOL     OW59212   8.264   1.191   6.594  0.7627  0.0634 -0.0066
51552SOL    HW159213   8.264   1.126   6.664  2.7435 -1.3856 -1.2417
51552SOL    HW259214   8.356   1.206   6.575  0.3050  1.7442 -1.1585
51553SOL     OW59215  11.840  11.967   3.468 -0.3677 -0.4361  0.1960
51553SOL    HW159216  11.838  11.995   3.560 -2.0060 -0.5102  0.2006
51553SOL    HW259217  11.854  12.048   3.419 -1.5695 -0.0768  0.4138
51554SOL     OW59218   7.845   2.132   6.146  0.4981  0.1803  0.0886
51554SOL    HW159219   7.875   2.177   6.067 -1.4445  0.6294 -0.4430
51554SOL    HW259220   7.813   2.047   6.115  1.4129 -0.4002  0.6759
51555SOL     OW59221   0.079   6.294   9.142  0.0981  0.1311 -0.3752
51555SOL    HW159222   0.095   6.227   9.207 -0.9150  0.9319  0.7526
51555SOL    HW259223   0.015   6.255   9.082  0.2582 -0.2566 -0.2913
51556SOL     OW59224   9.073   4.070   7.380 -0.3282  0.3351 -0.1720
51556SOL    HW159225   9.102   4.161   7.374 -0.0369  0.1482 -2.3863
51556SOL    HW259226   9.077   4.038   7.291 -3.3829 -0.9701  0.0399
51557SOL     OW59227   6.503   9.681  11.054 -0.5641  0.2711 -0.6281
51557SOL    HW159228   6.478   9.723  10.971 -0.6049  1.1963 -0.1592
51557SOL    HW259229   6.547   9.750  11.104  0.7997 -0.6725 -0.4554
51558SOL     OW59230   8.913   2.722   7.049  0.0065  0.1494  0.3201
51558SOL    HW159231   8.915   2.785   7.121  2.6786  1.1222 -0.4500
51558SOL    HW259232   8.825   2.685   7.051  0.3748 -1.0232  5.0033
51559SOL     OW59233   0.640   1.795   8.950 -0.3557  0.3837 -0.5913
51559SOL    HW159234   0.666   1.846   9.026  0.7443 -1.7476  0.5684
51559SOL    HW259235   0.547   1.813   8.939 -0.5938  0.5960  1.4248
51560SOL     OW59236   3.193  12.113   9.442 -0.2549  0.6783 -0.5281
51560SOL    HW159237   3.194  12.029   9.396  0.3695  0.7599 -0.6777
51560SOL    HW259238   3.173  12.178   9.374  0.3846  0.7674 -0.6437
51561SOL     OW59239  10.145   2.504   9.738 -0.5605 -0.3177 -0.0107
51561SOL    HW159240  10.193   2.564   9.680  1.1588 -1.6231 -0.0322
51561SOL    HW259241  10.203   2.494   9.814 -2.4273  0.7562  1.6516
51562SOL     OW59242   8.515   4.806   5.061  0.6525  0.4310  0.2833
51562SOL    HW159243   8.528   4.885   5.115 -0.1734 -0.9853  2.7221
51562SOL    HW259244   8.565   4.738   5.106 -0.9196 -1.0683 -0.1431
51563SOL     OW59245   8.560   2.237   8.610 -0.4754  0.4042 -0.1417
51563SOL    HW159246   8.567   2.313   8.668 -2.8594 -0.0978  0.9162
51563SOL    HW259247   8.589   2.163   8.665 -3.3216 -0.1644  0.7560
51564SOL     OW59248   2.837   7.434   2.475  0.5742 -0.2024  0.7564
51564SOL    HW159249   2.743   7.449   2.478  0.9421  3.4267 -0.9054
51564SOL    HW259250   2.846   7.346   2.436 -2.2503  1.0383 -3.4306
51565SOL     OW59251  10.780   6.740   5.649  0.0995  0.0370 -0.1892
51565SOL    HW159252  10.796   6.779   5.563  0.4754  0.3759  0.0333
51565SOL    HW259253  10.716   6.798   5.691 -1.5929 -1.1618 -0.9680
51566SOL     OW59254   3.399  11.870   1.424 -0.6948 -0.4872 -0.2891
51566SOL    HW159255   3.314  11.888   1.382 -0.1487  0.4566 -1.0250
51566SOL    HW259256   3.463  11.886   1.355  0.0812 -1.3348  0.2293
51567SOL     OW59257   9.850   6.894  12.115  0.4721 -0.1444  0.1072
51567SOL    HW159258   9.757   6.887  12.135  1.0653 -2.4456  2.5413
51567SOL    HW259259   9.859   6.856  12.028 -0.5125 -2.8760  1.1149
51568SOL     OW59260   6.203   7.712   8.276  0.0514  0.1800 -0.1904
51568SOL    HW159261   6.189   7.731   8.183  0.9024  0.2399 -0.3132
51568SOL    HW259262   6.245   7.791   8.310  0.4657 -0.1533  0.0704
51569SOL     OW59263   6.601   2.229   0.148 -0.3014 -0.3150 -0.3699
51569SOL    HW159264   6.541   2.240   0.074 -0.5243  1.0865 -0.0060
51569SOL    HW259265   6.550   2.184   0.215 -0.2350 -1.1801 -0.8817
51570SOL     OW59266   4.323   0.549   4.597  0.1730 -0.1665  0.1968
51570SOL    HW159267   4.292   0.549   4.506 -2.4138 -1.0051  1.0095
51570SOL    HW259268   4.349   0.640   4.613 -1.0409  0.3950 -0.8530
51571SOL     OW59269   3.700   5.037   3.138  0.2773  0.0285  0.2952
51571SOL    HW159270   3.786   5.055   3.100 -0.4952 -0.9921 -2.1358
51571SOL    HW259271   3.648   5.005   3.064 -1.6284 -1.2414  2.0885
51572SOL     OW59272  11.560   0.257  10.024 -0.7293  0.5299  0.6089
51572SOL    HW159273  11.594   0.181  10.072  0.6026  0.8546  0.2012
51572SOL    HW259274  11.510   0.219   9.952 -0.4463  0.0423  0.6643
51573SOL     OW59275   9.576   1.670   9.228 -0.2342  0.6079  0.2849
51573SOL    HW159276   9.659   1.718   9.229  0.8297 -1.1057 -0.1672
51573SOL    HW259277   9.602   1.578   9.237 -2.0682 -0.0130 -0.3144
51574SOL     OW59278   8.619   1.678   6.195 -0.6457 -0.0532 -0.1707
51574SOL    HW159279   8.674   1.608   6.161 -1.3106 -0.6386 -0.0604
51574SOL    HW259280   8.616   1.663   6.289  0.7555  1.2523  0.1252
51575SOL     OW59281   7.058   9.641   8.871  1.2729 -0.2104  0.0275
51575SOL    HW159282   6.989   9.694   8.910  1.2170 -0.2961  0.0442
51575SOL    HW259283   7.095   9.697   8.802  1.4665 -0.0037  0.2925
51576SOL     OW59284   1.472  10.117   3.720  0.4694  0.1169 -0.1501
51576SOL    HW159285   1.552  10.074   3.751 -0.2238 -0.4425  0.9203
51576SOL    HW259286   1.479  10.206   3.754  1.0676  0.3475 -0.8529
51577SOL     OW59287   6.912  10.694   2.200  0.5422 -0.1008  0.2398
51577SOL    HW159288   6.821  10.703   2.229  0.5948 -0.7796  0.6234
51577SOL    HW259289   6.920  10.757   2.128  0.1765  0.9995  1.1381
51578SOL     OW59290  10.686   8.848   5.732 -0.1697  0.0248 -0.6578
51578SOL    HW159291  10.760   8.895   5.771  0.2062 -0.8810 -0.2486
51578SOL    HW259292  10.660   8.784   5.799  0.1389 -1.1954 -1.6680
51579SOL     OW59293  11.060   2.706   7.389 -0.0514  0.0258 -0.0917
51579SOL    HW159294  11.115   2.670   7.320 -1.0158 -0.2731 -0.7161
51579SOL    HW259295  10.972   2.675   7.369 -0.6906  1.6361  0.1123
51580SOL     OW59296   9.743  10.864   0.391 -0.0320 -0.4382  0.3074
51580SOL    HW159297   9.775  10.941   0.438  0.8961 -1.1266  0.8420
51580SOL    HW259298   9.747  10.889   0.299 -0.1182  0.2925  0.4996
51581SOL     OW59299   0.833  10.269   5.925 -0.0356 -0.0378 -0.0364
51581SOL    HW159300   0.767  10.327   5.887  0.4336  1.2094  0.9871
51581SOL    HW259301   0.842  10.299   6.016  1.5054 -0.5640  0.0077
51582SOL     OW59302  12.001   7.226  11.200 -0.0808  0.5160 -0.0597
51582SOL    HW159303  11.982   7.318  11.184 -2.1176  0.1726  0.1124
51582SOL    HW259304  11.949   7.179  11.135 -0.5248 -0.5526  1.0161
51583SOL     OW59305  11.150   1.587   0.132  0.2821 -0.1367 -0.1177
51583SOL    HW159306  11.198   1.523   0.080  0.9619 -0.6216  1.0723
51583SOL    HW259307  11.179   1.572   0.222 -1.3960  0.1872  0.5217
51584SOL     OW59308  10.605   5.818   1.599  0.2472  0.2539  0.5597
51584SOL    HW159309  10.685   5.773   1.626 -0.2078 -1.1844 -0.3643
51584SOL    HW259310  10.616   5.834   1.506 -0.5552 -0.0063  0.4122
51585SOL     OW59311  11.905   9.060   0.742 -0.6246 -0.0277  0.3912
51585SOL    HW159312  11.993   9.061   0.705 -0.0637  1.0769  1.7062
51585SOL    HW259313  11.883   8.967   0.749  0.6518 -0.3306  0.5790
51586SOL     OW59314   1.774   1.155   1.623  0.6380 -0.0838 -0.2848
51586SOL    HW159315   1.701   1.093   1.618  0.2813  0.3214 -0.1704
51586SOL    HW259316   1.852   1.101   1.608  0.4502 -0.8093  1.1552
51587SOL     OW59317   1.213  11.952   2.639  0.1521 -0.0215 -0.3300
51587SOL    HW159318   1.287  11.956   2.700 -0.4224  1.4749  0.3340
51587SOL    HW259319   1.181  11.862   2.646  2.0929 -0.8055 -0.9079
51588SOL     OW59320   8.070   7.645   3.647  0.2988 -0.3675  0.3842
51588SOL    HW159321   8.121   7.707   3.700  0.6011 -0.8921  0.7176
51588SOL    HW259322   7.989   7.632   3.697 -0.0852  0.3068 -0.0435
51589SOL     OW59323   3.174   5.738   2.240  0.1821  0.2018 -0.2957
51589SOL    HW159324   3.196   5.771   2.327 -0.7017  1.0017 -0.3684
51589SOL    HW259325   3.221   5.654   2.234 -1.5480 -1.0416  1.8566
51590SOL     OW59326  11.486  11.942   4.542  0.0802 -0.4593  0.4540
51590SOL    HW159327  11.402  11.898   4.556 -0.9417  0.9987 -0.7513
51590SOL    HW259328  11.522  11.955   4.630 -0.2311 -2.4013  0.9050
51591SOL     OW59329   3.572   8.424   0.374 -0.2869 -0.3022 -0.1255
51591SOL    HW159330   3.495   8.394   0.422  0.5646 -0.6923  1.0409
51591SOL    HW259331   3.537   8.452   0.289 -1.2794 -3.7512 -1.0180
51592SOL     OW59332   2.034   6.037   5.953  0.0978 -0.2104  0.1750
51592SOL    HW159333   2.090   6.112   5.933 -1.0113  0.4222 -0.7246
51592SOL    HW259334   2.093   5.962   5.955  1.2233  0.6644  1.0240
51593SOL     OW59335   5.459   5.250   3.824 -0.2670  0.3436 -0.0357
51593SOL    HW159336   5.402   5.213   3.891  1.0919 -1.6180  0.1512
51593SOL    HW259337   5.467   5.343   3.847 -2.9853  0.6192  0.1224
51594SOL     OW59338  11.014  10.935   3.556 -0.6062  0.2184  0.5376
51594SOL    HW159339  10.955  10.885   3.499 -1.8072  1.0676  0.9880
51594SOL    HW259340  10.993  11.027   3.537  1.3406  0.5818 -0.0476
51595SOL     OW59341   6.248   5.245  12.013  0.3393 -0.1727  0.1918
51595SOL    HW159342   6.255   5.264  12.106 -1.4900  0.3880  0.2504
51595SOL    HW259343   6.264   5.329  11.970 -2.0534  0.3496  0.1924
51596SOL     OW59344   4.201   7.589   8.283  0.5399  0.2312  0.5494
51596SOL    HW159345   4.164   7.614   8.199 -0.3174  1.9856  1.3951
51596SOL    HW259346   4.129   7.601   8.345  1.1941 -0.8758  1.5680
51597SOL     OW59347   0.206   6.403   0.416  0.2818  0.1990 -0.2239
51597SOL    HW159348   0.208   6.482   0.471  0.0600 -0.8879  1.4392
51597SOL    HW259349   0.298   6.378   0.408  0.2339 -0.4028  0.8722
51598SOL     OW59350   5.437   4.026   5.186 -0.2677 -0.0551  0.2458
51598SOL    HW159351   5.415   4.060   5.272 -0.1516  0.1307  0.2034
51598SOL    HW259352   5.459   4.104   5.134 -0.0774 -0.1870  0.1260
51599SOL     OW59353   4.719  11.194   2.066 -0.1463 -0.1860  0.2432
51599SOL    HW159354   4.770  11.160   1.993 -1.0696  0.7096 -0.8695
51599SOL    HW259355   4.643  11.136   2.071 -0.2512 -0.0466  0.2691
51600SOL     OW59356   3.328   1.374   9.909 -0.3668  0.4266 -0.3245
51600SOL    HW159357   3.316   1.458   9.865 -3.8015 -0.5627 -1.6578
51600SOL    HW259358   3.334   1.396  10.002 -2.2746  2.1685 -0.5521
51601SOL     OW59359   0.645   1.311   6.235 -0.6000  0.2827  0.4935
51601SOL    HW159360   0.620   1.222   6.258 -0.2797  0.4442  1.5386
51601SOL    HW259361   0.625   1.362   6.314  0.3970  0.9032  0.3586
51602SOL     OW59362   3.408   1.109   5.221 -0.4585  0.0853  0.3627
51602SOL    HW159363   3.465   1.171   5.176 -2.0606  1.1019 -0.3800
51602SOL    HW259364   3.427   1.025   5.181  1.1245  0.2218  0.7579
51603SOL     OW59365   2.447   2.828   1.963  0.4445 -0.2379  0.0616
51603SOL    HW159366   2.365   2.855   1.921  0.8737 -0.4566 -0.9587
51603SOL    HW259367   2.493   2.780   1.895  0.9522 -1.0526  0.9629
51604SOL     OW59368   5.994   6.436   7.379 -0.0310 -0.6499  0.3424
51604SOL    HW159369   6.056   6.499   7.414  0.2768 -1.3601  1.1264
51604SOL    HW259370   5.945   6.484   7.313 -0.3563  0.6526  1.4736
51605SOL     OW59371   8.711   4.781   1.722  0.1389  0.2538  0.2640
51605SOL    HW159372   8.660   4.703   1.746 -2.4026  2.2467  1.9136
51605SOL    HW259373   8.699   4.789   1.628  0.3632 -1.2813  0.0854
51606SOL     OW59374   4.260   2.925  10.542  0.3463  0.2057 -0.1984
51606SOL    HW159375   4.326   2.991  10.565 -1.0204  1.3740  0.5949
51606SOL    HW259376   4.213   2.964  10.468 -0.2618 -0.0297  0.0612
51607SOL     OW59377   2.978   2.727   5.495  0.4902  0.6143  0.6395
51607SOL    HW159378   3.014   2.671   5.426  0.4968  0.0541  1.0945
51607SOL    HW259379   2.920   2.670   5.545 -0.1779  1.2332  0.5834
51608SOL     OW59380   4.518   2.792   4.013  0.3573 -0.1754 -0.7556
51608SOL    HW159381   4.603   2.752   4.028  0.1421 -0.6418 -0.7769
51608SOL    HW259382   4.498   2.838   4.095  0.1695 -0.9175 -0.3760
51609SOL     OW59383  12.074   8.257   2.842  0.2992 -0.4137 -0.1988
51609SOL    HW159384  12.161   8.227   2.818 -0.0877  0.0145 -2.4381
51609SOL    HW259385  12.075   8.351   2.822 -0.3292 -0.1689  0.8576
51610SOL     OW59386  11.161  10.278  11.953  0.2561  0.0197 -0.1994
51610SOL    HW159387  11.191  10.195  11.913  0.0282  0.3629 -1.1133
51610SOL    HW259388  11.066  10.266  11.964  0.1730  0.2628 -0.6144
51611SOL     OW59389  10.812   8.392   1.106 -0.2001  0.1577 -0.2005
51611SOL    HW159390  10.859   8.341   1.041 -1.3732 -3.1241  1.2791
51611SOL    HW259391  10.870   8.393   1.183 -0.3114  0.8500 -0.1181
51612SOL     OW59392   8.469   8.013   3.891  0.2064 -0.1978 -0.1362
51612SOL    HW159393   8.556   8.054   3.894 -0.3102  0.9252  0.0732
51612SOL    HW259394   8.451   7.989   3.982  0.9271 -1.8547 -0.3975
51613SOL     OW59395   4.403   4.040   4.808 -0.8759 -0.6419 -0.0139
51613SOL    HW159396   4.486   4.016   4.849 -0.6027 -0.3325 -0.3765
51613SOL    HW259397   4.346   3.964   4.821 -0.3986 -1.0226 -0.1289
51614SOL     OW59398   0.066   8.615   3.296 -0.0542 -0.3408  0.0121
51614SOL    HW159399   0.078   8.536   3.348  1.3046  0.7373  1.4425
51614SOL    HW259400   0.095   8.686   3.353  1.1076  0.9703 -2.0680
51615SOL     OW59401   6.500   3.727   2.452  0.1925  0.0658  0.4365
51615SOL    HW159402   6.418   3.679   2.455  1.3666 -2.0471  0.9460
51615SOL    HW259403   6.545   3.703   2.533  1.9141 -0.0058 -0.4887
51616SOL     OW59404   6.531  10.130   7.049 -0.2411  0.2834 -0.4618
51616SOL    HW159405   6.449  10.083   7.059 -1.3892  1.5945 -2.8109
51616SOL    HW259406   6.546  10.132   6.954  2.9014 -0.5082 -0.0929
51617SOL     OW59407   3.085   4.177   5.259 -0.3131 -0.2550 -0.2293
51617SOL    HW159408   3.159   4.126   5.291 -1.0568 -0.8435  0.6212
51617SOL    HW259409   3.095   4.262   5.302  0.5384  0.0887 -1.0904
51618SOL     OW59410   0.539   3.419   4.202 -0.3827 -0.5859  0.1557
51618SOL    HW159411   0.459   3.373   4.225 -1.2558  1.1928  0.8839
51618SOL    HW259412   0.522   3.455   4.115  0.0980 -1.1799 -0.1925
51619SOL     OW59413  11.709   4.412   3.627 -0.0175 -0.2040  0.2848
51619SOL    HW159414  11.729   4.476   3.695 -0.1504  1.4915 -1.2212
51619SOL    HW259415  11.720   4.459   3.545 -3.2979 -1.1778 -0.8359
51620SOL     OW59416   1.480   9.107   9.053  0.3347 -0.0515  0.1310
51620SOL    HW159417   1.469   9.196   9.086 -0.9515  0.1149 -0.6738
51620SOL    HW259418   1.487   9.117   8.958 -1.8569 -0.8957 -0.1998
51621SOL     OW59419   0.493   9.376   4.977 -0.6522 -0.2219 -0.3935
51621SOL    HW159420   0.552   9.341   5.044 -0.6979  2.7153  1.3382
51621SOL    HW259421   0.552   9.416   4.913 -0.6748  0.5506  0.0568
51622SOL     OW59422   3.536   3.435   4.806 -0.4502 -0.2751  0.2912
51622SOL    HW159423   3.461   3.389   4.767  0.1672  0.2941 -1.6825
51622SOL    HW259424   3.511   3.447   4.898 -1.2931 -3.1365  0.5522
51623SOL     OW59425   9.802   5.774   0.448  0.6363  0.1231  0.0461
51623SOL    HW159426   9.847   5.743   0.370 -0.8680  1.4298 -1.3878
51623SOL    HW259427   9.746   5.700   0.474 -0.1509  0.2938 -1.1409
51624SOL     OW59428   8.496   3.488   8.274 -0.2454  0.1355 -0.4836
51624SOL    HW159429   8.430   3.487   8.205 -1.3805  1.0501  0.5461
51624SOL    HW259430   8.450   3.521   8.351  0.9943 -0.8147  0.7184
51625SOL     OW59431   2.766   6.540   1.992  0.2724  0.4125 -0.3788
51625SOL    HW159432   2.698   6.487   2.032 -0.0987  0.5160 -0.8608
51625SOL    HW259433   2.721   6.620   1.964  0.2538 -0.1332 -2.0480
51626SOL     OW59434   5.880   4.917   0.309  0.3887 -0.0572  0.2274
51626SOL    HW159435   5.933   4.837   0.316  1.2854  0.3633 -1.2584
51626SOL    HW259436   5.834   4.908   0.226 -0.4014  0.4580  0.6011
51627SOL     OW59437   6.636   6.631  10.792  0.1541 -0.0339  0.6246
51627SOL    HW159438   6.724   6.608  10.761 -0.7466  0.1871 -2.4078
51627SOL    HW259439   6.652   6.686  10.869  2.6624 -0.0482  0.2126
51628SOL     OW59440   8.326  10.379   7.522 -0.1821 -0.3405 -0.3093
51628SOL    HW159441   8.275  10.419   7.452  0.7889  0.9081 -0.3383
51628SOL    HW259442   8.408  10.428   7.523 -1.3353  2.0442  3.8442
51629SOL     OW59443   9.341   3.358   0.752 -0.1613 -0.9179  0.4161
51629SOL    HW159444   9.316   3.269   0.730  0.1489 -0.6348 -1.2439
51629SOL    HW259445   9.353   3.358   0.847  1.1344 -2.9654  0.2913
51630SOL     OW59446   6.649   5.642   1.340  0.1456 -0.0342  0.3992
51630SOL    HW159447   6.607   5.560   1.366  0.1763 -0.2250 -0.1338
51630SOL    HW259448   6.677   5.682   1.422 -0.6582 -0.1285  0.7206
51631SOL     OW59449   2.845   1.913   4.557  0.6930  0.0718  0.1345
51631SOL    HW159450   2.784   1.892   4.628  1.5269  0.2355  0.9102
51631SOL    HW259451   2.810   1.866   4.481 -0.2605 -0.0327  0.6201
51632SOL     OW59452   4.933   5.815   5.863 -0.0565 -0.0535  0.3038
51632SOL    HW159453   4.925   5.774   5.777 -0.6018  0.5433  0.0638
51632SOL    HW259454   4.923   5.742   5.925 -1.0612 -0.2953 -0.1148
51633SOL     OW59455   7.085   1.608  10.464 -0.3414  0.3372 -0.6360
51633SOL    HW159456   7.105   1.554  10.388 -2.0664 -0.7333 -0.3646
51633SOL    HW259457   7.009   1.567  10.505 -0.8752  2.1909  0.3803
51634SOL     OW59458  10.636   5.023  10.068  0.0048 -0.2172 -0.2660
51634SOL    HW159459  10.645   5.066  10.154 -1.6065  0.5498 -0.4452
51634SOL    HW259460  10.562   5.068  10.027  0.6930 -0.6425 -2.0313
51635SOL     OW59461   1.766   2.279   6.689  0.1187  0.1162 -0.1457
51635SOL    HW159462   1.830   2.317   6.628  1.2937  2.8544  2.5284
51635SOL    HW259463   1.812   2.205   6.727  0.8137  0.6334  0.0440
51636SOL     OW59464   4.551   0.975   9.749  0.3300 -0.4567 -0.2239
51636SOL    HW159465   4.589   0.926   9.821 -0.4599  0.1851  0.6471
51636SOL    HW259466   4.466   1.005   9.781  0.0773  0.0742 -1.3142
51637SOL     OW59467   3.896   2.025   6.796 -0.8073 -0.0439 -0.4075
51637SOL    HW159468   3.835   2.034   6.723 -0.0833 -1.4373 -1.2279
51637SOL    HW259469   3.945   2.108   6.796 -0.6474 -0.1195 -1.6705
51638SOL     OW59470   5.667  10.309   8.308  0.5835  0.6362  0.1175
51638SOL    HW159471   5.595  10.290   8.248  1.3823 -0.0046 -0.6717
51638SOL    HW259472   5.636  10.280   8.393  0.0820 -0.0747 -0.2939
51639SOL     OW59473   6.299  10.547  10.783  0.7150 -0.3779  0.1405
51639SOL    HW159474   6.244  10.541  10.862 -0.2682 -0.0244 -0.4965
51639SOL    HW259475   6.274  10.471  10.731 -0.0853  0.4385 -0.7054
51640SOL     OW59476   7.299  11.805   9.156 -0.4879 -0.4558 -0.0658
51640SOL    HW159477   7.310  11.725   9.207 -2.4467 -0.7090  0.0278
51640SOL    HW259478   7.240  11.859   9.209 -0.1253  0.5638 -0.6724
51641SOL     OW59479   6.146  11.311   0.647  0.6576  0.1159  0.1960
51641SOL    HW159480   6.190  11.256   0.581  0.5875 -0.1837  0.3964
51641SOL    HW259481   6.055  11.316   0.616  0.5703 -0.2169  0.3877
51642SOL     OW59482   7.316   4.363   2.844 -0.4111 -0.0190  0.2266
51642SOL    HW159483   7.256   4.393   2.776 -0.3464  1.9782  0.9893
51642SOL    HW259484   7.375   4.303   2.799 -1.3389  0.0266 -1.1080
51643SOL     OW59485   7.750   6.599   0.836 -0.4131 -0.4220 -0.1262
51643SOL    HW159486   7.766   6.639   0.921 -2.7222 -0.6646  0.4809
51643SOL    HW259487   7.759   6.671   0.774  2.3699 -0.4503  0.1176
51644SOL     OW59488   2.375   7.292   6.252  0.1943  0.1988 -0.6078
51644SOL    HW159489   2.387   7.198   6.243 -0.1068  0.0623  0.3492
51644SOL    HW259490   2.460   7.324   6.285 -0.4358 -0.0932  1.4242
51645SOL     OW59491   3.525   8.572   9.547 -0.2478 -0.2731 -0.3829
51645SOL    HW159492   3.553   8.518   9.473  1.6145 -0.6980  0.5660
51645SOL    HW259493   3.446   8.530   9.580 -1.1290 -0.0661 -2.1012
51646SOL     OW59494   2.058   5.101   5.795 -0.1056  0.3725 -0.1258
51646SOL    HW159495   2.072   5.105   5.890  2.1612  1.2075 -0.4462
51646SOL    HW259496   2.035   5.009   5.779 -1.7538  0.4710  1.3335
51647SOL     OW59497  11.183   0.350   7.944  0.0183 -0.5965 -0.9391
51647SOL    HW159498  11.237   0.355   7.864  0.1532 -0.3878 -0.8353
51647SOL    HW259499  11.246   0.334   8.014 -0.0439 -0.2649 -0.8050
51648SOL     OW59500  10.001   6.961   8.441  0.1813  0.0979  0.6800
51648SOL    HW159501  10.008   7.026   8.512 -1.5949 -0.8373  1.7608
51648SOL    HW259502  10.083   6.971   8.393  0.2395  2.7497  1.1352
51649SOL     OW59503   3.544   1.007   8.134 -0.7854  0.0645  0.2709
51649SOL    HW159504   3.516   0.924   8.096 -0.3186  0.3162 -0.6777
51649SOL    HW259505   3.625   0.986   8.181 -0.0216  0.1557 -0.9397
51650SOL     OW59506  11.680  12.081   2.960  0.1856  0.2419 -0.1581
51650SOL    HW159507  11.624  12.003   2.962  1.0436 -0.4124 -0.4833
51650SOL    HW259508  11.754  12.055   2.905  1.8487  0.3234  1.8723
51651SOL     OW59509   5.765   2.656  11.068 -0.0123  0.3565  0.3684
51651SOL    HW159510   5.762   2.682  10.976  1.6206  0.4109  0.3094
51651SOL    HW259511   5.760   2.560  11.066  1.6597  0.2515  0.0917
51652SOL     OW59512   6.738   2.370  11.039 -0.0727  0.1455  0.4478
51652SOL    HW159513   6.788   2.443  11.077 -1.5668  0.8572  1.1677
51652SOL    HW259514   6.667   2.355  11.101 -1.5831  0.1411 -1.1933
51653SOL     OW59515   1.432   3.528   0.171 -0.0818 -0.2648  0.9803
51653SOL    HW159516   1.410   3.534   0.264  0.4266 -2.3639  1.2739
51653SOL    HW259517   1.507   3.469   0.168  1.4851  1.6734 -0.5812
51654SOL     OW59518   2.342   1.062   4.250  0.7937 -0.1128 -0.0554
51654SOL    HW159519   2.351   0.972   4.279 -0.4723 -0.2478 -0.0290
51654SOL    HW259520   2.429   1.086   4.217  1.0832 -1.4093 -0.2751
51655SOL     OW59521  10.209  10.965   7.529  0.0238 -0.5474 -0.6305
51655SOL    HW159522  10.124  10.922   7.526  0.1416 -1.0017  1.2797
51655SOL    HW259523  10.192  11.049   7.571  0.4938 -0.6511 -0.2143
51656SOL     OW59524   8.883  11.144   4.128  0.1244 -0.2870 -0.1343
51656SOL    HW159525   8.891  11.072   4.189  0.6298 -0.7492 -0.7307
51656SOL    HW259526   8.918  11.110   4.045  1.6792  1.0753 -0.0847
51657SOL     OW59527   3.234   0.433   5.337  0.1181  0.6284 -0.4177
51657SOL    HW159528   3.300   0.502   5.349  1.0796  0.0704 -2.1361
51657SOL    HW259529   3.250   0.400   5.249 -2.0175 -0.0413 -0.6032
51658SOL     OW59530   1.295   9.043   5.550 -1.0402  0.6190  0.6122
51658SOL    HW159531   1.332   8.967   5.505 -0.3864  1.2236  0.1061
51658SOL    HW259532   1.212   9.059   5.506 -0.9671  0.4699  0.4220
51659SOL     OW59533   2.182   1.427   9.825  0.4793  0.0216 -0.0220
51659SOL    HW159534   2.215   1.482   9.897  2.4447  0.6637 -1.3414
51659SOL    HW259535   2.216   1.468   9.746  0.0915 -1.8440 -1.2083
51660SOL     OW59536  10.540  11.055   1.297  0.4782  0.1830  0.0448
51660SOL    HW159537  10.502  11.121   1.356 -0.2058 -1.8657  2.0578
51660SOL    HW259538  10.467  11.026   1.243 -0.0463 -1.1617  1.4047
51661SOL     OW59539  11.957   3.507   3.829  0.2034 -0.4859 -0.7692
51661SOL    HW159540  11.898   3.441   3.793  1.5728 -2.5145  0.5048
51661SOL    HW259541  11.948   3.498   3.924  2.6474 -1.0006 -0.5308
51662SOL     OW59542   9.230   2.490   2.296 -0.6033 -0.4915  1.1430
51662SOL    HW159543   9.245   2.525   2.208  2.3373 -0.6074  1.4918
51662SOL    HW259544   9.242   2.565   2.354 -0.8074 -0.7662  1.5439
51663SOL     OW59545   9.518   6.646   5.043 -0.0331 -0.2618 -0.3052
51663SOL    HW159546   9.485   6.557   5.054  0.1988 -0.3827 -0.5778
51663SOL    HW259547   9.440   6.698   5.026 -0.7716  0.3421  3.9837
51664SOL     OW59548   1.168   7.224   5.917 -0.3779  0.4348  0.1093
51664SOL    HW159549   1.081   7.251   5.888 -0.1760  0.6759 -0.2862
51664SOL    HW259550   1.152   7.162   5.988 -0.8602  1.7251  1.1674
51665SOL     OW59551   1.590   0.757   3.682  0.6950 -0.4056  0.2068
51665SOL    HW159552   1.617   0.672   3.645  0.0222 -0.3318 -0.4626
51665SOL    HW259553   1.667   0.786   3.731  1.6699 -0.4505 -1.2332
51666SOL     OW59554   9.685  11.638  10.725  0.1985  0.5530  0.1227
51666SOL    HW159555   9.683  11.733  10.732  2.6105  0.5656  2.2957
51666SOL    HW259556   9.601  11.609  10.761 -1.3007  1.7966 -2.1297
51667SOL     OW59557   0.966   3.268  11.320 -0.3432  0.1521 -0.2558
51667SOL    HW159558   0.903   3.331  11.286  0.4027  1.1354  0.1049
51667SOL    HW259559   1.051   3.305  11.297  0.1395 -0.0914  1.0351
51668SOL     OW59560   2.784  10.923   0.432 -0.1762 -0.8710 -0.5464
51668SOL    HW159561   2.717  10.857   0.446 -2.0479  1.1663  0.7846
51668SOL    HW259562   2.740  10.992   0.382  1.6163 -0.4546 -1.6544
51669SOL     OW59563   8.913   0.134   6.555 -0.6302 -0.1874  0.1778
51669SOL    HW159564   8.915   0.204   6.621  0.8709  0.6619 -0.7103
51669SOL    HW259565   8.897   0.179   6.472  0.2414 -0.8831 -0.3956
51670SOL     OW59566   8.314   4.115  11.946 -0.3901  0.0191 -0.6324
51670SOL    HW159567   8.224   4.138  11.923 -0.5181 -0.4569 -0.6164
51670SOL    HW259568   8.329   4.159  12.030 -1.9530 -2.9776  1.4006
51671SOL     OW59569   2.046   8.055   0.881 -0.1344 -0.5523  0.8001
51671SOL    HW159570   2.054   8.021   0.792  0.7834  2.2720 -0.2981
51671SOL    HW259571   1.952   8.071   0.892 -0.2797 -1.1357  0.4661
51672SOL     OW59572   0.262  11.605   4.481  0.0478  0.7597  0.1982
51672SOL    HW159573   0.204  11.658   4.535  0.0214  0.3553  0.5745
51672SOL    HW259574   0.348  11.646   4.490 -0.1423  1.2525 -0.2126
51673SOL     OW59575   3.998  10.554   2.709 -0.2156 -0.1140 -0.5681
51673SOL    HW159576   3.933  10.580   2.644 -1.9039  0.9989  1.4452
51673SOL    HW259577   3.948  10.505   2.775  1.2874 -0.5994  0.2479
51674SOL     OW59578   0.619   1.705   5.083  0.4473  0.0666  0.4808
51674SOL    HW159579   0.622   1.622   5.130 -0.8815 -0.4414 -0.2669
51674SOL    HW259580   0.559   1.759   5.133  2.2321  1.0651  1.6444
51675SOL     OW59581   6.826   3.985   4.248 -0.0756  0.1266 -0.3912
51675SOL    HW159582   6.905   4.038   4.241 -0.7874  1.0837 -1.7256
51675SOL    HW259583   6.784   4.015   4.329  0.9172 -0.4370  0.3621
51676SOL     OW59584   7.758  10.293   3.286 -0.6501 -0.5328  0.3349
51676SOL    HW159585   7.697  10.358   3.320  0.3598 -0.3635  1.9236
51676SOL    HW259586   7.754  10.221   3.349 -0.7897 -1.4702 -0.7064
51677SOL     OW59587   0.593   6.027  10.749  0.2729 -0.0338  0.2885
51677SOL    HW159588   0.508   5.997  10.783 -1.4651  0.9657 -2.7469
51677SOL    HW259589   0.584   6.122  10.742  2.0927  0.2134  0.8895
51678SOL     OW59590   5.759   7.788   7.811 -0.3001  0.2525 -0.1636
51678SOL    HW159591   5.788   7.879   7.801  1.4763 -0.3827 -1.3267
51678SOL    HW259592   5.714   7.787   7.895  1.0728  1.8941  0.6698
51679SOL     OW59593   6.144   8.458   1.053  0.3605 -0.6081 -0.2725
51679SOL    HW159594   6.111   8.395   1.117 -0.7224 -0.2400 -0.4565
51679SOL    HW259595   6.079   8.528   1.052  0.7504 -0.2449 -1.2310
51680SOL     OW59596   3.149   4.917   3.369 -0.6023  0.6911  0.8364
51680SOL    HW159597   3.177   5.000   3.408 -1.1861  1.3758 -0.1798
51680SOL    HW259598   3.231   4.872   3.350 -0.2143  1.7680 -0.1575
51681SOL     OW59599   3.223   9.811  10.706  0.3920 -0.4620 -0.8062
51681SOL    HW159600   3.234   9.900  10.671  0.8786  0.6776  1.9741
51681SOL    HW259601   3.309   9.789  10.741 -0.8261  0.1609  3.0463
51682SOL     OW59602   2.162   4.145   3.686 -0.6986 -0.5154  0.5342
51682SOL    HW159603   2.113   4.116   3.609  0.6247  1.1500 -1.0268
51682SOL    HW259604   2.118   4.226   3.713 -0.6791 -0.6765  1.0608
51683SOL     OW59605   5.668   4.221  11.638  0.2454 -0.5793 -1.0852
51683SOL    HW159606   5.751   4.180  11.615  0.6456 -0.2378 -0.2992
51683SOL    HW259607   5.613   4.148  11.667  1.2877 -0.5403  1.2775
51684SOL     OW59608   4.071   2.316   9.085  0.4953 -0.0418 -0.1919
51684SOL    HW159609   4.113   2.309   9.170 -0.4434 -0.4437  0.2508
51684SOL    HW259610   4.010   2.390   9.095 -0.0292 -0.4507 -0.3272
51685SOL     OW59611   3.130   2.976   6.703  0.2034 -0.4272  0.3833
51685SOL    HW159612   3.166   3.035   6.769  0.3184  1.6811 -1.4388
51685SOL    HW259613   3.063   3.028   6.658  0.2390 -1.7228 -1.2601
51686SOL     OW59614   2.776   5.865   7.791  0.2470 -0.0735  0.7251
51686SOL    HW159615   2.733   5.920   7.727 -0.5341 -0.8162  0.5977
51686SOL    HW259616   2.865   5.854   7.757  0.1695  0.4354  0.3441
51687SOL     OW59617   9.753   8.081   6.587 -0.1688  0.7652  0.0064
51687SOL    HW159618   9.660   8.091   6.611 -0.0690  0.9125  0.3414
51687SOL    HW259619   9.757   8.111   6.496 -0.1273  2.6428  0.5708
51688SOL     OW59620   4.129   2.261   4.100 -0.0054  0.0135  0.3392
51688SOL    HW159621   4.033   2.264   4.099  0.0001  2.4429  0.6873
51688SOL    HW259622   4.152   2.240   4.190 -0.1882 -0.9839  0.1641
51689SOL     OW59623   9.540   4.882   0.710 -0.9901 -0.2946  0.5066
51689SOL    HW159624   9.492   4.850   0.633 -0.1418  2.0363 -1.1210
51689SOL    HW259625   9.479   4.940   0.754 -0.8793 -0.2033  0.5411
51690SOL     OW59626   6.850   4.870   5.519  0.0263 -0.6497 -0.2391
51690SOL    HW159627   6.797   4.813   5.574  0.4281 -1.7686 -0.9625
51690SOL    HW259628   6.798   4.881   5.439 -0.3765  0.6332  0.1818
51691SOL     OW59629  11.250   2.813   3.654 -0.2407  0.4941  0.2604
51691SOL    HW159630  11.324   2.756   3.635  1.2388  2.4059 -0.1129
51691SOL    HW259631  11.272   2.895   3.610 -1.7970  1.6703  1.5564
51692SOL     OW59632   2.074   9.522   4.971  0.3829 -0.1022 -0.0932
51692SOL    HW159633   2.076   9.482   4.884  0.9692 -0.4118  0.0545
51692SOL    HW259634   2.074   9.616   4.953  0.9833 -0.1575 -0.4366
51693SOL     OW59635   1.383  10.566   2.681 -0.1804  0.0700 -0.3935
51693SOL    HW159636   1.424  10.575   2.595  0.1750 -0.7630 -0.3120
51693SOL    HW259637   1.308  10.508   2.666 -0.9230  1.0029 -0.4001
51694SOL     OW59638   2.657   1.138  11.205 -0.0853  0.7922 -0.2944
51694SOL    HW159639   2.609   1.193  11.267 -1.4529  0.4302 -0.9894
51694SOL    HW259640   2.710   1.200  11.155  0.2121  1.2024  0.5050
51695SOL     OW59641   5.013   6.924   2.355  0.1493  0.4311  0.5884
51695SOL    HW159642   5.031   6.886   2.441  0.1440 -1.7935 -0.3334
51695SOL    HW259643   4.976   6.852   2.305 -2.2737  2.3432 -0.5372
51696SOL     OW59644  11.689   4.301  10.722 -0.7318 -0.5017 -0.2737
51696SOL    HW159645  11.743   4.379  10.711  0.3804 -1.3153 -0.6836
51696SOL    HW259646  11.676   4.268  10.633 -2.3333 -0.0650 -0.2413
51697SOL     OW59647  11.675  10.532   8.127  0.3454 -0.1670 -0.1318
51697SOL    HW159648  11.663  10.615   8.081  0.9919  0.7598  1.2940
51697SOL    HW259649  11.665  10.555   8.220  2.1017 -1.3577  0.4001
51698SOL     OW59650   7.273   8.342   6.173 -0.0391 -0.1904  0.2261
51698SOL    HW159651   7.242   8.408   6.112 -0.8066 -1.0691 -0.3695
51698SOL    HW259652   7.347   8.383   6.219  0.8253  0.3554 -1.5696
51699SOL     OW59653  10.398   6.635   9.825 -0.3866  0.3948  0.0434
51699SOL    HW159654  10.395   6.635   9.921 -0.3050  1.7845  0.0689
51699SOL    HW259655  10.473   6.581   9.803 -0.0980  0.4792  0.7922
51700SOL     OW59656   1.858   5.531   9.856 -0.0075 -0.6788  0.5158
51700SOL    HW159657   1.798   5.576   9.796 -0.2547 -0.2809  1.0595
51700SOL    HW259658   1.942   5.574   9.843  0.0419 -0.8733  0.1549
51701SOL     OW59659  12.117  10.227   5.213 -0.2481 -0.3929  0.3849
51701SOL    HW159660  12.145  10.268   5.295  2.9928 -1.0656 -0.2803
51701SOL    HW259661  12.135  10.134   5.226 -0.4346 -0.6056 -0.8368
51702SOL     OW59662   2.670   4.220   5.950 -0.5425  0.4058  0.4988
51702SOL    HW159663   2.673   4.277   5.873 -1.1219 -0.6917 -0.3689
51702SOL    HW259664   2.760   4.187   5.958 -0.5914  0.1262 -0.0322
51703SOL     OW59665   8.339   1.361   1.130 -0.5952 -0.2004 -0.1310
51703SOL    HW159666   8.244   1.346   1.129 -0.5159 -1.3386 -3.2044
51703SOL    HW259667   8.364   1.358   1.037  2.6576 -1.2722  0.6557
51704SOL     OW59668  12.099   2.740   6.455  0.5332 -0.1310  0.8308
51704SOL    HW159669  12.156   2.796   6.508  0.5635  1.3363 -0.6753
51704SOL    HW259670  12.014   2.743   6.498  0.7134  0.5301  1.1428
51705SOL     OW59671   4.259   8.807   7.114  0.1074 -0.2150 -0.1946
51705SOL    HW159672   4.188   8.763   7.067  1.3561 -2.5550 -0.0420
51705SOL    HW259673   4.249   8.778   7.204 -0.4069  1.7698  0.4364
51706SOL     OW59674  10.544   9.370   1.092  0.0228 -0.1558 -0.4241
51706SOL    HW159675  10.595   9.298   1.129 -0.3412 -0.9569 -1.4545
51706SOL    HW259676  10.590   9.392   1.011 -0.8744 -0.4232 -1.0107
51707SOL     OW59677   0.057   7.834  10.871  0.0376 -0.2674 -0.4319
51707SOL    HW159678  -0.016   7.895  10.860 -0.4718 -0.5533  1.1399
51707SOL    HW259679   0.130   7.888  10.902 -0.3342 -0.3805  0.6904
51708SOL     OW59680  10.851   0.758  11.656  0.1190 -0.0805  0.0970
51708SOL    HW159681  10.792   0.833  11.659  1.0664  0.6778  0.3795
51708SOL    HW259682  10.830   0.713  11.574 -1.1394 -0.0843  0.4092
51709SOL     OW59683   8.523  10.357   3.372  0.0976 -0.5790 -0.0065
51709SOL    HW159684   8.557  10.438   3.333 -1.4067  0.8030  1.3675
51709SOL    HW259685   8.581  10.288   3.340  1.6753  1.0929 -0.9253
51710SOL     OW59686   6.283   4.501  10.688 -0.0243  0.5205 -0.4014
51710SOL    HW159687   6.342   4.559  10.640  2.6602 -1.2752  0.5111
51710SOL    HW259688   6.266   4.547  10.770 -0.5283  1.3568 -0.9518
51711SOL     OW59689   9.540   5.127  10.650  0.0037 -0.6515  0.1443
51711SOL    HW159690   9.587   5.145  10.569 -0.6105 -0.7455 -0.2368
51711SOL    HW259691   9.536   5.212  10.695  1.1312 -0.7718  0.5136
51712SOL     OW59692   6.588  10.345   0.580  0.4391  0.0486  0.1632
51712SOL    HW159693   6.588  10.251   0.565  1.5467 -0.0155  0.4186
51712SOL    HW259694   6.498  10.373   0.565  0.0825 -1.0639  0.1880
51713SOL     OW59695   1.918   7.253   9.818 -0.6791 -0.8563  0.0217
51713SOL    HW159696   2.011   7.238   9.836 -0.5918  0.2026  0.5599
51713SOL    HW259697   1.876   7.248   9.904 -0.9482 -0.2288 -0.0702
51714SOL     OW59698   3.399   0.398   6.359 -0.1525 -0.0087 -0.2933
51714SOL    HW159699   3.355   0.482   6.376  0.5698  0.1644  0.8336
51714SOL    HW259700   3.379   0.378   6.267  1.9084  2.7802 -1.5069
51715SOL     OW59701   7.093   1.806   3.026 -0.7330  0.3949 -0.2378
51715SOL    HW159702   7.098   1.712   3.044 -0.6277  0.4143 -0.1613
51715SOL    HW259703   7.169   1.823   2.970  0.6997  0.8767  1.7378
51716SOL     OW59704   8.849   3.612   8.791 -0.6010  0.5714  0.9936
51716SOL    HW159705   8.783   3.618   8.861 -0.8213 -0.2974  0.8697
51716SOL    HW259706   8.858   3.518   8.775 -1.0349  0.7787 -0.5973
51717SOL     OW59707   6.818   5.612   4.549 -0.2426 -0.0637  0.1404
51717SOL    HW159708   6.847   5.679   4.487 -0.7729 -0.7919 -0.9240
51717SOL    HW259709   6.873   5.626   4.627  0.3449  0.9511 -0.4330
51718SOL     OW59710   8.657  10.559   3.256  0.2468  0.4573  0.4346
51718SOL    HW159711   8.689  10.613   3.329 -0.7702  0.7053  0.7100
51718SOL    HW259712   8.635  10.621   3.187  2.5757  0.1435 -0.6797
51719SOL     OW59713   1.292   2.297   3.730  0.2297  0.2210 -0.5201
51719SOL    HW159714   1.291   2.381   3.777 -1.0150  0.4709 -0.9602
51719SOL    HW259715   1.321   2.233   3.796 -0.4644  0.7277  0.3043
51720SOL     OW59716  11.253   6.799   6.305  0.1370 -0.5218 -0.3007
51720SOL    HW159717  11.167   6.758   6.295  0.7315 -1.5657 -1.3988
51720SOL    HW259718  11.257   6.863   6.235  0.5101 -0.9493 -0.6733
51721SOL     OW59719   7.560   1.431   4.279 -0.1680  0.4647 -0.4798
51721SOL    HW159720   7.594   1.521   4.277 -1.0114  0.8005 -0.2809
51721SOL    HW259721   7.471   1.440   4.313  0.0755 -0.5649  0.4956
51722SOL     OW59722   9.514   8.810   9.740  0.4875 -0.5802  0.0449
51722SOL    HW159723   9.532   8.732   9.688 -1.3706  0.4134 -2.3293
51722SOL    HW259724   9.460   8.865   9.683 -1.6027  0.7314  2.9936
51723SOL     OW59725   0.021   2.433   8.611  0.3810 -0.3913 -0.7117
51723SOL    HW159726  -0.030   2.506   8.577  2.1731  0.6814 -1.2723
51723SOL    HW259727   0.016   2.366   8.543 -0.9956 -0.6736 -0.3483
51724SOL     OW59728   9.102   8.168   4.089 -0.5423  1.1581  0.0376
51724SOL    HW159729   9.093   8.168   3.994  0.3482  1.7750 -0.0549
51724SOL    HW259730   9.135   8.256   4.110  2.0272  0.1588  0.6102
51725SOL     OW59731  12.015   1.822   7.748  0.3780  0.0067  0.5828
51725SOL    HW159732  11.921   1.835   7.761  0.4744  0.2738  1.0462
51725SOL    HW259733  12.056   1.870   7.820  0.9492  1.4144 -0.6287
51726SOL     OW59734   2.750  11.248   5.132 -0.3979 -0.5739  0.1376
51726SOL    HW159735   2.799  11.188   5.188 -0.4020 -0.1456  0.6088
51726SOL    HW259736   2.671  11.200   5.109  0.0474 -1.1195 -0.3014
51727SOL     OW59737   3.273   6.505   5.817  0.0503  0.0594 -0.6244
51727SOL    HW159738   3.348   6.446   5.806  0.5402  0.5884 -0.2080
51727SOL    HW259739   3.246   6.526   5.728  0.2490 -0.3239 -0.7781
51728SOL     OW59740   4.087   9.427  10.246  0.8548 -0.4197 -0.4065
51728SOL    HW159741   4.051   9.368  10.311 -0.9616  1.7210  0.6720
51728SOL    HW259742   4.131   9.370  10.182  2.8682 -2.6068  2.6635
51729SOL     OW59743   5.438   7.923   7.290 -0.0077  0.1987  0.3841
51729SOL    HW159744   5.494   7.986   7.335  0.6777  1.9559 -2.6968
51729SOL    HW259745   5.355   7.970   7.277 -0.7689 -0.8715  1.1416
51730SOL     OW59746   1.964  11.432   2.430 -0.6815 -0.4327 -0.1955
51730SOL    HW159747   1.889  11.482   2.463 -0.0885 -0.4591  1.2842
51730SOL    HW259748   1.935  11.341   2.432 -0.9197 -0.3646 -0.5094
51731SOL     OW59749  10.004   4.530   6.687  0.2913  0.8113  0.1429
51731SOL    HW159750  10.006   4.598   6.754  2.3015  0.6184  0.3419
51731SOL    HW259751   9.982   4.449   6.734 -2.3494  1.2796 -0.1316
51732SOL     OW59752  10.451   2.071  11.017 -0.4302  0.5568  0.2983
51732SOL    HW159753  10.431   2.071  10.923  0.5608 -1.8002  0.0205
51732SOL    HW259754  10.506   2.148  11.029 -0.4315  0.8074 -1.0910
51733SOL     OW59755   8.912   6.156   6.934 -0.0667  0.1475 -0.3573
51733SOL    HW159756   8.873   6.143   7.020  0.5060 -2.2058 -0.3845
51733SOL    HW259757   8.859   6.103   6.875  0.5147  0.4339 -1.1507
51734SOL     OW59758   5.418   8.128  10.815  0.2936  0.0297 -0.3647
51734SOL    HW159759   5.381   8.068  10.750  1.2329  0.6926 -1.5417
51734SOL    HW259760   5.510   8.136  10.792  0.8229 -0.2295  1.4751
51735SOL     OW59761  10.296   3.647  11.818 -0.9107  0.0646  0.0899
51735SOL    HW159762  10.383   3.607  11.821 -1.9118 -2.5090 -1.6515
51735SOL    HW259763  10.312   3.741  11.823  1.9190 -0.3614  0.3015
51736SOL     OW59764   3.338   0.718   1.336  0.2900  0.3682 -0.2905
51736SOL    HW159765   3.301   0.655   1.398  1.6729 -0.4588 -0.2765
51736SOL    HW259766   3.408   0.761   1.384 -0.1329  1.3973 -0.5588
51737SOL     OW59767   1.155   9.386  11.432 -0.6219 -0.3311 -0.5112
51737SOL    HW159768   1.065   9.394  11.461  0.2395 -0.4539  2.5446
51737SOL    HW259769   1.178   9.294  11.450  0.4214 -0.0233 -0.1767
51738SOL     OW59770   7.987  11.646   2.751  0.5094 -0.1035  0.4817
51738SOL    HW159771   8.003  11.582   2.820  0.8051  1.3663  1.8262
51738SOL    HW259772   8.070  11.650   2.702  1.5237  1.2989  2.1916
51739SOL     OW59773   5.954   4.914   8.883 -0.0521  0.2272 -0.0920
51739SOL    HW159774   5.862   4.911   8.859  0.1946  0.1393 -1.0635
51739SOL    HW259775   5.999   4.941   8.803  0.6211  1.7897  0.7732
51740SOL     OW59776  11.323   5.626   1.577  0.3522  0.6464  0.0799
51740SOL    HW159777  11.239   5.619   1.532  0.2176 -0.3079  0.4399
51740SOL    HW259778  11.306   5.589   1.664  0.9106  1.3155  0.4861
51741SOL     OW59779   0.766  11.349   8.965  0.1226 -0.0049 -0.0393
51741SOL    HW159780   0.819  11.322   8.890 -1.6353 -0.9787 -0.9843
51741SOL    HW259781   0.820  11.327   9.042  1.9649  1.0393 -0.9450
51742SOL     OW59782   3.704   3.930   8.701 -0.8336  0.2012 -0.6599
51742SOL    HW159783   3.790   3.969   8.683  0.3544 -1.5881  0.7040
51742SOL    HW259784   3.681   3.963   8.788 -0.6655 -0.6456 -0.2771
51743SOL     OW59785  10.189   7.356   2.571 -0.4688 -0.4246  0.6628
51743SOL    HW159786  10.180   7.270   2.528 -0.2072  0.0080 -0.2995
51743SOL    HW259787  10.153   7.343   2.658  1.3119 -2.0523  1.2394
51744SOL     OW59788   3.564   8.001   6.935  0.0098 -0.1708 -0.1732
51744SOL    HW159789   3.528   7.935   6.994 -0.6790 -0.7522 -1.2130
51744SOL    HW259790   3.488   8.045   6.897  0.4491  2.1401  1.4410
51745SOL     OW59791   3.116   2.615   4.863  0.1128 -0.1839 -0.1359
51745SOL    HW159792   3.152   2.526   4.854 -0.4509 -0.5659  1.1984
51745SOL    HW259793   3.032   2.602   4.906  0.0693  1.0119  0.1587
51746SOL     OW59794  11.960   6.613   4.937 -0.1693 -0.0848  0.4573
51746SOL    HW159795  11.888   6.638   4.879 -0.4523 -0.2977  0.7103
51746SOL    HW259796  12.039   6.637   4.889 -0.3810 -0.8007 -0.2753
51747SOL     OW59797   8.578   9.689   3.229  0.4845 -0.7825  0.1690
51747SOL    HW159798   8.526   9.652   3.300 -1.2133 -0.3118 -0.7839
51747SOL    HW259799   8.645   9.742   3.273 -2.5424  2.2677  1.4893
51748SOL     OW59800  10.772   9.904  12.033  0.1269  1.0525  0.1309
51748SOL    HW159801  10.808   9.818  12.014 -0.4326  0.4465  1.6635
51748SOL    HW259802  10.750   9.941  11.948  3.3334  1.0267 -0.8486
51749SOL     OW59803   9.083  11.860   6.752  0.2287  0.5370  0.4309
51749SOL    HW159804   9.033  11.825   6.827  1.2494 -2.1351 -0.0293
51749SOL    HW259805   9.046  11.816   6.676  0.6819  1.5591 -0.4110
51750SOL     OW59806   3.931   9.584  11.555 -0.2540 -0.2748  0.6421
51750SOL    HW159807   3.911   9.663  11.605 -2.2058 -0.7315  0.6680
51750SOL    HW259808   3.908   9.512  11.614 -0.4537 -0.8372 -0.1032
51751SOL     OW59809  10.994   5.976   1.547 -0.0664 -0.4458 -0.4815
51751SOL    HW159810  11.057   6.017   1.489  0.7200  0.2899  0.8346
51751SOL    HW259811  10.990   6.034   1.623 -2.2784 -0.5108 -0.4764
51752SOL     OW59812   6.306   5.520   7.175  0.1442  0.5120 -0.4051
51752SOL    HW159813   6.380   5.476   7.218  0.8235  0.1812 -1.8520
51752SOL    HW259814   6.347   5.570   7.104 -0.7122  2.7309  0.5779
51753SOL     OW59815   4.745   0.512   7.817 -0.0528  0.2288  0.0569
51753SOL    HW159816   4.700   0.539   7.898 -1.1205  0.3069 -0.5507
51753SOL    HW259817   4.677   0.513   7.750  0.2104 -2.3516 -0.3531
51754SOL     OW59818  10.870   9.080  11.722  0.0003  0.4052 -0.6465
51754SOL    HW159819  10.807   9.027  11.771 -0.4843  1.0301 -0.5796
51754SOL    HW259820  10.956   9.046  11.748 -0.3124 -1.5535 -1.9732
51755SOL     OW59821  10.251   7.662   2.323 -0.2704  0.5189 -0.3289
51755SOL    HW159822  10.207   7.595   2.270 -1.9214  0.0310  1.5269
51755SOL    HW259823  10.182   7.726   2.342  0.5734  1.2539  0.3026
51756SOL     OW59824  11.090   9.944   7.576 -0.1747  0.2280  0.1581
51756SOL    HW159825  11.181   9.972   7.578  0.2079 -0.8748 -0.7811
51756SOL    HW259826  11.072   9.926   7.484 -0.3387 -2.6681  0.6630
51757SOL     OW59827   7.586   1.534   5.236 -0.1075 -0.7097  0.1554
51757SOL    HW159828   7.611   1.571   5.321 -1.4912  0.6626  0.0161
51757SOL    HW259829   7.571   1.610   5.180  2.2820 -1.5887 -1.8439
51758SOL     OW59830   8.879   0.137   2.061  0.4779 -0.7348  0.4788
51758SOL    HW159831   8.789   0.139   2.092  0.0667 -0.7386 -0.6593
51758SOL    HW259832   8.904   0.229   2.054  0.6497 -0.7393  1.0382
51759SOL     OW59833   9.057   8.493   9.416  0.2483  0.2024 -0.3780
51759SOL    HW159834   9.040   8.439   9.493  3.9550 -0.9548 -0.1654
51759SOL    HW259835   9.038   8.435   9.342  0.5688 -0.1005 -0.2270
51760SOL     OW59836   0.376   7.704   7.303  0.5712  0.1349 -0.2851
51760SOL    HW159837   0.301   7.706   7.244  0.9772 -0.3241 -0.8260
51760SOL    HW259838   0.419   7.621   7.285  2.1606  1.0994 -1.2059
51761SOL     OW59839   3.715  10.555   9.270  0.1270  0.4283  0.2090
51761SOL    HW159840   3.703  10.625   9.334 -0.0040  1.2259 -0.6650
51761SOL    HW259841   3.796  10.512   9.296  0.9326  1.7693 -0.0167
51762SOL     OW59842   8.809  11.745   0.502 -0.2516 -0.2597  0.6060
51762SOL    HW159843   8.738  11.704   0.452  1.3790 -1.2329 -1.0421
51762SOL    HW259844   8.798  11.712   0.591 -2.0077 -0.1368  0.4799
51763SOL     OW59845   4.539   3.930   3.014  0.7093  0.3844 -0.0445
51763SOL    HW159846   4.633   3.947   3.003  0.5303  0.7992 -1.0488
51763SOL    HW259847   4.528   3.917   3.108  2.1643 -2.1607 -0.1592
51764SOL     OW59848   3.244   8.521   0.248 -0.2702 -0.3577  0.3501
51764SOL    HW159849   3.237   8.598   0.303 -0.2461 -0.0471 -0.0804
51764SOL    HW259850   3.156   8.506   0.214  0.2422  1.1592 -1.8139
51765SOL     OW59851   0.767   5.045  11.230 -0.0822  0.0833 -0.5593
51765SOL    HW159852   0.781   4.978  11.163  2.6315  1.1742 -1.2102
51765SOL    HW259853   0.682   5.084  11.208  0.9761  0.8445 -3.8746
51766SOL     OW59854   5.642   2.048   4.688  0.1683 -0.0528 -0.0311
51766SOL    HW159855   5.670   1.975   4.632 -1.3674 -1.4822  1.0028
51766SOL    HW259856   5.715   2.110   4.683  0.9533 -1.0270 -1.9944
51767SOL     OW59857   7.953   3.227   6.699  0.5071  1.2946  0.0474
51767SOL    HW159858   8.001   3.282   6.638  1.7626 -0.5328 -0.7171
51767SOL    HW259859   7.909   3.162   6.644 -0.5766  1.2478  0.9285
51768SOL     OW59860   0.902   4.326   2.130 -0.4149 -0.0817 -0.7656
51768SOL    HW159861   0.994   4.349   2.138 -0.2331 -1.0899  0.2942
51768SOL    HW259862   0.868   4.385   2.061  0.3613  2.2092  0.6920
51769SOL     OW59863   2.767   5.194   5.640  0.1786  0.1455  0.4761
51769SOL    HW159864   2.771   5.163   5.550 -0.5128  0.1163  0.4498
51769SOL    HW259865   2.748   5.288   5.632 -0.1759  0.0834  0.6001
51770SOL     OW59866  11.348   1.610  11.325 -0.4145 -0.4530  0.0574
51770SOL    HW159867  11.330   1.519  11.347  2.2648 -0.9425  0.5412
51770SOL    HW259868  11.330   1.617  11.232 -0.3059 -1.5925 -0.0565
51771SOL     OW59869   8.621   2.561   4.717 -0.2389  0.3744 -0.0923
51771SOL    HW159870   8.568   2.513   4.654  0.7255 -0.4471 -0.3044
51771SOL    HW259871   8.586   2.535   4.803  0.9683 -1.6686 -0.1403
51772SOL     OW59872   0.271   5.616   5.959 -0.0230 -0.1549  0.5721
51772SOL    HW159873   0.271   5.550   6.028 -1.5475 -0.0237  0.7452
51772SOL    HW259874   0.229   5.572   5.884  0.2857  0.1556  0.2158
51773SOL     OW59875  11.271   9.392  11.552 -0.5422 -0.7456  0.0922
51773SOL    HW159876  11.272   9.311  11.500 -0.1025 -0.6074 -0.1175
51773SOL    HW259877  11.179   9.419  11.553 -0.5851 -0.8614 -0.4421
51774SOL     OW59878   8.971  10.915   2.790  0.1789  0.2430 -0.2119
51774SOL    HW159879   9.018  10.992   2.822 -0.3011  0.5274 -0.1847
51774SOL    HW259880   8.891  10.950   2.751 -0.5648 -0.3125  0.7627
51775SOL     OW59881   0.835  11.305   5.840 -0.1805  0.0188 -0.3165
51775SOL    HW159882   0.820  11.255   5.920 -1.3779 -0.7816 -1.0124
51775SOL    HW259883   0.827  11.242   5.769 -1.1905  1.0629 -1.1882
51776SOL     OW59884   0.523   0.982   8.931  0.0565  0.3490 -0.1919
51776SOL    HW159885   0.483   0.898   8.952 -1.1323  1.0139  0.2880
51776SOL    HW259886   0.544   0.976   8.838 -1.8455  0.2259 -0.6555
51777SOL     OW59887   8.671   0.153   6.868  0.3900 -0.4032 -0.7011
51777SOL    HW159888   8.684   0.124   6.959  1.1228  1.0757 -0.3004
51777SOL    HW259889   8.577   0.165   6.861  0.0301 -2.7478 -0.8936
51778SOL     OW59890  11.802  11.106   5.697  0.8802  0.0139  0.2101
51778SOL    HW159891  11.779  11.128   5.787  2.7927 -0.8298  0.9745
51778SOL    HW259892  11.725  11.063   5.661 -0.1832  1.0609  1.1738
51779SOL     OW59893   5.947   3.703   4.099  0.6659  0.2167 -0.2291
51779SOL    HW159894   5.977   3.616   4.124  1.3714  0.6094  0.3503
51779SOL    HW259895   5.953   3.705   4.003 -2.3124 -1.4056 -0.5602
51780SOL     OW59896   3.963  11.130   1.506  0.2463  0.0623 -0.1746
51780SOL    HW159897   3.948  11.076   1.583 -0.5459  0.0259 -0.3464
51780SOL    HW259898   3.928  11.216   1.528  0.3215  0.1457 -0.3708
51781SOL     OW59899   7.770   6.316   5.791  0.5458 -0.2197  0.6448
51781SOL    HW159900   7.862   6.289   5.795  0.6036  0.0201  0.9167
51781SOL    HW259901   7.733   6.262   5.720  1.2885  0.8629 -0.6127
51782SOL     OW59902   5.148   9.652   1.234 -0.1186  0.4064 -0.4912
51782SOL    HW159903   5.074   9.712   1.248  0.1609  0.2664  2.0174
51782SOL    HW259904   5.107   9.571   1.202 -1.0907  0.2825  1.0031
51783SOL     OW59905   7.835  11.521   1.422 -0.5460 -0.7108 -0.2376
51783SOL    HW159906   7.861  11.606   1.458 -0.6714 -0.5393 -0.5448
51783SOL    HW259907   7.827  11.537   1.328 -0.0291 -1.1998 -0.3679
51784SOL     OW59908   7.856   1.994   0.507  0.3226  0.3613 -0.3832
51784SOL    HW159909   7.870   2.019   0.599 -1.0272  0.5381 -0.2021
51784SOL    HW259910   7.798   2.061   0.473  0.7793  0.2649 -1.3608
51785SOL     OW59911   1.611   3.172  11.657 -0.3599  0.2949  0.0044
51785SOL    HW159912   1.536   3.114  11.663 -0.1335 -0.0290 -0.2291
51785SOL    HW259913   1.687   3.113  11.658 -0.0808  0.6563  0.9164
51786SOL     OW59914   5.874   6.314   5.465 -0.2872 -1.2833  0.0654
51786SOL    HW159915   5.882   6.306   5.560  0.1793  0.8821  0.2453
51786SOL    HW259916   5.785   6.283   5.446 -0.8277 -0.5782  1.3658
51787SOL     OW59917   7.388   4.243   4.525 -0.5741  0.0861  0.2925
51787SOL    HW159918   7.461   4.281   4.574 -0.3363 -0.1226  0.0981
51787SOL    HW259919   7.428   4.206   4.446 -0.6761 -1.3691  0.8948
51788SOL     OW59920   4.597   8.808   1.237  0.5606  0.5898  0.5541
51788SOL    HW159921   4.692   8.821   1.235  0.4609  2.5847  3.1743
51788SOL    HW259922   4.564   8.856   1.161  1.6357 -0.7540 -0.8247
51789SOL     OW59923   3.986   8.585   4.727 -0.3058 -0.0781 -0.1614
51789SOL    HW159924   4.048   8.657   4.740  0.2945 -0.7045  0.5771
51789SOL    HW259925   4.036   8.519   4.679  0.1545 -1.2474  1.8062
51790SOL     OW59926   2.791   6.394   2.825 -0.6610  0.3739  0.0764
51790SOL    HW159927   2.855   6.462   2.845  1.8204 -1.9267  0.5893
51790SOL    HW259928   2.707   6.431   2.852  0.8168  2.4662  2.2446
51791SOL     OW59929   5.601  11.679   4.656  0.0072  0.4940 -0.2910
51791SOL    HW159930   5.620  11.587   4.675 -2.2264 -0.0061 -0.2252
51791SOL    HW259931   5.685  11.716   4.629  0.4507 -2.2590 -3.2152
51792SOL     OW59932   8.343   0.318   5.199 -0.2186 -0.5800  0.4102
51792SOL    HW159933   8.352   0.249   5.134 -0.4045  2.1199 -2.7357
51792SOL    HW259934   8.432   0.337   5.227  0.2867  0.4300 -1.6907
51793SOL     OW59935   8.550   4.284   7.346 -0.4134 -0.1604  0.2869
51793SOL    HW159936   8.549   4.379   7.340 -0.6925 -0.2279 -1.0256
51793SOL    HW259937   8.458   4.259   7.349 -0.3784 -0.4441 -0.6785
51794SOL     OW59938   5.480   8.053   8.899 -0.5946  0.4520 -0.2913
51794SOL    HW159939   5.402   8.062   8.844  0.9134  0.8194 -2.5226
51794SOL    HW259940   5.526   7.977   8.863 -1.2497 -1.6277  2.8521
51795SOL     OW59941   6.021   9.507   1.121  0.0640  0.4300  0.0070
51795SOL    HW159942   6.009   9.601   1.110 -0.2240  0.7377  2.3691
51795SOL    HW259943   5.955   9.467   1.064  0.5331  1.6137 -1.4169
51796SOL     OW59944   4.186   5.379   9.048 -0.0266 -0.3861 -0.1532
51796SOL    HW159945   4.106   5.378   9.102  0.0959 -0.0377  0.0431
51796SOL    HW259946   4.177   5.305   8.989 -1.1211  0.4162 -1.0339
51797SOL     OW59947   7.641   2.737   3.238 -0.5243 -0.2306  0.3613
51797SOL    HW159948   7.653   2.812   3.295 -0.4991  0.9122 -1.0715
51797SOL    HW259949   7.547   2.718   3.244 -0.7264  0.5732 -0.0104
51798SOL     OW59950   6.362  12.100   6.057  0.3522 -0.3354 -0.0905
51798SOL    HW159951   6.450  12.125   6.029 -0.0074  0.0397 -0.9443
51798SOL    HW259952   6.304  12.163   6.013 -0.4036 -1.1865 -0.3574
51799SOL     OW59953  11.184   0.719   5.540  0.1303  0.1671  0.1258
51799SOL    HW159954  11.251   0.780   5.569 -1.3810  1.1199  1.7885
51799SOL    HW259955  11.136   0.696   5.619 -1.5224 -0.4755 -1.0013
51800SOL     OW59956   9.141   6.563  11.220 -0.2271  0.1784  0.1961
51800SOL    HW159957   9.057   6.524  11.247 -1.4580  4.0074  2.6272
51800SOL    HW259958   9.200   6.544  11.293  0.0883  0.1948 -0.0558
51801SOL     OW59959   4.943   3.673   3.328  0.2181 -0.3791 -0.3565
51801SOL    HW159960   4.897   3.590   3.310 -1.5718  0.6395 -0.7789
51801SOL    HW259961   4.996   3.655   3.406 -1.5281 -1.4529  0.6556
51802SOL     OW59962   7.189   6.633   9.911  0.8241 -0.0199  0.4364
51802SOL    HW159963   7.230   6.673   9.988  0.5771  2.0335 -0.4083
51802SOL    HW259964   7.258   6.578   9.873  2.4853  2.3497 -0.2413
51803SOL     OW59965   1.718   8.292   0.443  0.0297 -0.5483 -0.8482
51803SOL    HW159966   1.722   8.234   0.367  0.5609  0.0856 -1.3165
51803SOL    HW259967   1.808   8.298   0.474 -0.2842 -1.3939  0.3099
51804SOL     OW59968   7.235   5.561   1.071  0.0707 -0.3098 -0.2375
51804SOL    HW159969   7.166   5.627   1.063  0.3980 -0.1573 -2.3324
51804SOL    HW259970   7.257   5.561   1.164 -2.0687  0.3235  0.3353
51805SOL     OW59971  11.807   9.231   1.327 -0.2331 -0.1291 -0.1666
51805SOL    HW159972  11.807   9.183   1.244  0.7571  1.8266 -1.3809
51805SOL    HW259973  11.885   9.201   1.373  0.4414  0.3607 -0.9650
51806SOL     OW59974  11.923   6.225   8.200  0.3461 -0.2323 -0.2040
51806SOL    HW159975  11.968   6.144   8.177 -0.3685 -0.1447 -2.1504
51806SOL    HW259976  11.989   6.293   8.189  0.9514 -0.5267  1.4467
51807SOL     OW59977   6.251   4.363   3.714  0.3446 -0.2194 -0.1394
51807SOL    HW159978   6.310   4.402   3.779 -0.6827 -0.3476  0.8892
51807SOL    HW259979   6.166   4.401   3.733  0.3843  1.4247 -2.8073
51808SOL     OW59980   8.188   7.507  10.197 -0.1464 -0.1744  0.4300
51808SOL    HW159981   8.162   7.482  10.286 -0.5063 -2.0433 -0.1581
51808SOL    HW259982   8.281   7.487  10.193 -0.6574 -2.7662 -0.3979
51809SOL     OW59983   1.261   3.714   8.225 -0.3131  0.2653  0.1560
51809SOL    HW159984   1.239   3.642   8.284  1.3156 -1.2937 -1.0084
51809SOL    HW259985   1.259   3.675   8.138 -0.2469  1.8713 -0.6034
51810SOL     OW59986   5.514   0.697   5.152  0.2480  0.1747  0.0368
51810SOL    HW159987   5.560   0.661   5.228  1.5635 -0.3154 -0.9551
51810SOL    HW259988   5.448   0.631   5.130  1.3488 -0.7527 -0.5779
51811SOL     OW59989   7.729   3.589   3.959 -0.4142  0.7192 -0.6664
51811SOL    HW159990   7.824   3.603   3.959  0.3468 -3.1808  0.2510
51811SOL    HW259991   7.712   3.545   3.875 -1.2636  0.7498 -0.5192
51812SOL     OW59992  11.593  11.080   3.665 -0.7884  0.0340  0.5133
51812SOL    HW159993  11.574  11.087   3.759  0.0977 -2.9626  1.0040
51812SOL    HW259994  11.687  11.063   3.660 -0.9414 -0.5302 -0.8646
51813SOL     OW59995   2.452   2.949   5.658 -0.3860  0.6923 -0.3269
51813SOL    HW159996   2.487   2.875   5.609  0.7749  1.3102 -0.4535
51813SOL    HW259997   2.396   2.995   5.595 -0.7579  0.1829 -0.3749
51814SOL     OW59998  11.239   7.024   3.350 -0.0206  0.7976  0.0447
51814SOL    HW159999  11.296   7.056   3.280 -0.9830  1.6910 -0.3729
51814SOL    HW260000  11.277   6.941   3.377 -0.1932 -0.1086 -2.2836
51815SOL     OW60001   7.547   9.324  10.505  0.4807 -0.2748 -0.3207
51815SOL    HW160002   7.571   9.368  10.424  0.0855 -0.3027 -0.4526
51815SOL    HW260003   7.631   9.299  10.544  0.7648  1.2756  0.1426
51816SOL     OW60004   3.729   0.317   1.846  0.6152  0.5187 -0.3405
51816SOL    HW160005   3.635   0.333   1.848  0.4218 -0.5879  1.6464
51816SOL    HW260006   3.744   0.273   1.762 -0.8433 -0.3566 -0.1768
51817SOL     OW60007  11.961   0.265  11.652  0.2152 -0.2560  0.4913
51817SOL    HW160008  12.053   0.248  11.673 -0.3660 -0.8900  2.7665
51817SOL    HW260009  11.915   0.184  11.674 -0.6492 -0.8566 -2.9804
51818SOL     OW60010   8.739   9.811  11.700  0.4269  0.1808 -0.5491
51818SOL    HW160011   8.833   9.826  11.696  0.5921 -0.2502  0.9999
51818SOL    HW260012   8.730   9.726  11.744 -0.7038  0.5498 -0.0259
51819SOL     OW60013   9.740   6.643   3.050 -0.2625 -0.5012 -0.0483
51819SOL    HW160014   9.826   6.678   3.029 -0.1248 -0.7199  0.1455
51819SOL    HW260015   9.756   6.579   3.120 -1.0045  2.1918  2.8347
51820SOL     OW60016   4.267   9.814   6.499  0.2559 -0.5800 -0.4453
51820SOL    HW160017   4.222   9.870   6.435  0.3616 -0.4824 -0.4338
51820SOL    HW260018   4.204   9.803   6.570  0.4984  0.1086 -0.1170
51821SOL     OW60019   6.790   3.936   2.804 -0.5007 -0.2084  0.3157
51821SOL    HW160020   6.720   3.951   2.740 -0.8302 -2.1258  0.1631
51821SOL    HW260021   6.745   3.932   2.888 -1.1450 -4.2278 -0.0258
51822SOL     OW60022   2.752   4.579   1.992  0.0620 -0.3316  0.1068
51822SOL    HW160023   2.658   4.562   2.001  0.2103 -1.5094 -0.4037
51822SOL    HW260024   2.778   4.528   1.915  0.7304  1.6221 -1.0194
51823SOL     OW60025   9.152   7.294   8.543 -0.5012  0.0299  0.6670
51823SOL    HW160026   9.164   7.340   8.460  0.4379 -0.8852  0.2653
51823SOL    HW260027   9.059   7.271   8.545  0.0348 -3.0850 -1.9088
51824SOL     OW60028   9.410   7.584   4.568  0.2831 -0.2400  0.3002
51824SOL    HW160029   9.460   7.578   4.487 -1.5096 -1.4684 -0.8013
51824SOL    HW260030   9.462   7.640   4.625  3.1994 -1.9021 -0.5136
51825SOL     OW60031  11.107  10.250  11.044  0.3115  0.3213  0.1025
51825SOL    HW160032  11.108  10.317  10.975  0.2443 -0.1987 -0.4186
51825SOL    HW260033  11.128  10.297  11.124  0.1174  0.9943 -0.2300
51826SOL     OW60034   5.522   6.459   6.377 -0.3377 -0.1284  0.1594
51826SOL    HW160035   5.452   6.509   6.336  0.3273  1.3808  0.7688
51826SOL    HW260036   5.477   6.394   6.431 -1.2385  0.0364 -0.3717
51827SOL     OW60037   8.347   9.686   8.506  0.4274 -0.1833  0.3317
51827SOL    HW160038   8.380   9.714   8.420 -1.1322  2.2781  0.4457
51827SOL    HW260039   8.263   9.730   8.515  0.6468 -0.1877  3.2347
51828SOL     OW60040   9.707  12.069   0.388 -0.0210 -0.1169  0.1185
51828SOL    HW160041   9.736  11.979   0.402 -1.5841 -0.6157  0.2992
51828SOL    HW260042   9.641  12.063   0.319  0.3990  0.9983 -0.4105
51829SOL     OW60043   3.380   8.977  10.415 -0.3049  0.0056  0.4661
51829SOL    HW160044   3.371   9.039  10.343 -0.8586  1.1720  1.5024
51829SOL    HW260045   3.308   8.915  10.402 -0.7082  0.5063  0.2896
51830SOL     OW60046   9.006   1.463   8.828 -0.2715  0.0131 -0.1850
51830SOL    HW160047   8.929   1.502   8.785 -0.9272 -3.3466 -2.4739
51830SOL    HW260048   9.076   1.472   8.764 -0.2073 -1.5743 -0.3783
51831SOL     OW60049   2.537   9.331   7.919  0.0229 -0.5119 -0.0932
51831SOL    HW160050   2.531   9.372   7.833 -0.7630 -0.9594 -0.2647
51831SOL    HW260051   2.596   9.257   7.905  1.7294  0.7128  0.2996
51832SOL     OW60052  10.920   8.371   7.421 -0.2810 -0.1234  0.3279
51832SOL    HW160053  10.844   8.327   7.461 -2.0135  0.7130 -1.8428
51832SOL    HW260054  10.943   8.316   7.346  1.3075 -0.3596  0.9562
51833SOL     OW60055  11.312   0.877   1.659  0.6852 -0.4336 -0.2019
51833SOL    HW160056  11.245   0.841   1.718  0.0863  1.0846  0.0955
51833SOL    HW260057  11.332   0.963   1.695  1.6644 -0.2285 -1.1845
51834SOL     OW60058   2.686  10.147   3.296 -0.1261  0.7720 -0.7862
51834SOL    HW160059   2.680  10.239   3.270  0.4162  0.6097 -1.5213
51834SOL    HW260060   2.780  10.130   3.302 -0.1487  1.1544  2.6847
51835SOL     OW60061   7.486  10.935   8.182  0.0048 -0.2412  0.0534
51835SOL    HW160062   7.450  10.912   8.096 -0.3111 -1.3941  0.4840
51835SOL    HW260063   7.581  10.927   8.171  0.0120  0.3570 -0.3860
51836SOL     OW60064  10.809   8.474   9.094  0.2801  0.2860  0.2000
51836SOL    HW160065  10.716   8.490   9.107  0.2294 -1.0472  1.7615
51836SOL    HW260066  10.852   8.544   9.144  0.0667 -0.7095  1.8640
51837SOL     OW60067   5.135   8.859   4.428  0.5447  0.0255 -0.2639
51837SOL    HW160068   5.051   8.829   4.392  0.6991 -1.3456  0.4411
51837SOL    HW260069   5.117   8.875   4.520  0.4443  2.3307 -0.6387
51838SOL     OW60070   2.199   8.904   4.833 -0.2700  0.8248  0.6355
51838SOL    HW160071   2.168   8.905   4.742 -0.0579 -1.1712  0.5057
51838SOL    HW260072   2.119   8.912   4.885 -0.8121 -1.3760  0.2643
51839SOL     OW60073  10.213   2.493   3.540 -0.0654  0.9239  0.0423
51839SOL    HW160074  10.274   2.435   3.586 -0.8571  0.2156  0.2000
51839SOL    HW260075  10.227   2.473   3.447  1.4197  2.2444 -0.0738
51840SOL     OW60076   6.409   2.382   8.081  0.4899 -0.1656  0.4007
51840SOL    HW160077   6.499   2.409   8.066  0.1332  0.0917 -1.6477
51840SOL    HW260078   6.388   2.326   8.006 -1.2438  0.3228  0.4794
51841SOL     OW60079   1.993   4.296   4.332  0.0385 -0.5402 -0.4316
51841SOL    HW160080   1.947   4.284   4.249 -1.0285 -0.6935  0.1685
51841SOL    HW260081   1.926   4.329   4.392  0.4075 -1.9635  0.8038
51842SOL     OW60082   7.995   7.183   4.692  0.2910 -0.2485 -0.6666
51842SOL    HW160083   8.021   7.094   4.666 -1.1539 -0.8718 -0.1044
51842SOL    HW260084   7.914   7.199   4.645  0.4672  0.7214 -0.6463
51843SOL     OW60085   6.557   3.931   0.317  0.0951  0.5535 -0.0537
51843SOL    HW160086   6.549   3.967   0.229 -2.1788  2.8354  0.9459
51843SOL    HW260087   6.474   3.954   0.360  1.3353  0.0757  2.8699
51844SOL     OW60088   9.133   0.489   8.064 -0.4673 -0.1903 -0.5641
51844SOL    HW160089   9.210   0.454   8.020 -0.9062 -2.3388  0.2433
51844SOL    HW260090   9.059   0.439   8.028 -1.2877  0.6916 -0.1655
51845SOL     OW60091   7.909  11.378   6.485  0.0363 -0.0581  0.8260
51845SOL    HW160092   7.932  11.459   6.439  1.0521 -0.3838  0.7182
51845SOL    HW260093   7.990  11.327   6.484 -1.1448 -2.0356 -1.0344
51846SOL     OW60094   2.771   4.633   3.562  0.2289 -0.3724 -0.0502
51846SOL    HW160095   2.743   4.724   3.569 -0.3043 -0.5048 -0.3661
51846SOL    HW260096   2.855   4.637   3.516  0.0033 -0.0634 -0.4475
51847SOL     OW60097   1.120   9.984   6.720  0.2681 -0.6861 -0.0165
51847SOL    HW160098   1.026  10.000   6.719  0.5697  1.4786 -1.4863
51847SOL    HW260099   1.138   9.953   6.809 -1.5090  1.2703  1.1272
51848SOL     OW60100   7.500   8.771   0.993 -0.7554 -0.4599 -0.1295
51848SOL    HW160101   7.575   8.807   0.947 -0.5457  0.7600  1.0953
51848SOL    HW260102   7.469   8.700   0.937  1.2368 -0.9361 -0.7297
51849SOL     OW60103  11.444   2.786   2.162 -0.5153  0.3478 -0.1237
51849SOL    HW160104  11.479   2.858   2.110 -0.5434  0.7776  0.4461
51849SOL    HW260105  11.349   2.790   2.148 -0.5618  0.7347  0.3101
51850SOL     OW60106   6.727   4.152  10.212 -1.0117 -0.2176  0.3320
51850SOL    HW160107   6.668   4.145  10.137 -0.6759 -0.2094  0.0628
51850SOL    HW260108   6.793   4.084  10.197  0.2020  1.0738 -0.4305
51851SOL     OW60109   7.052  10.411   9.569  0.0054 -0.2621  0.2513
51851SOL    HW160110   6.985  10.344   9.559  0.3835 -1.0924  2.6598
51851SOL    HW260111   7.106  10.403   9.490 -2.6574  0.4681 -1.7875
51852SOL     OW60112   9.847   3.536   5.540 -0.2668 -0.7450 -0.0851
51852SOL    HW160113   9.761   3.554   5.503  0.8576  0.2961 -2.3937
51852SOL    HW260114   9.907   3.544   5.466  1.8461 -1.3429  1.4698
51853SOL     OW60115   8.529   7.941  12.075 -0.8028  0.1669  0.2301
51853SOL    HW160116   8.503   7.966  11.987  0.2185  0.8239  0.0950
51853SOL    HW260117   8.459   7.883  12.106  0.2462 -2.5596 -2.1208
51854SOL     OW60118   9.447   3.793   6.797  0.1254 -0.0638 -0.1660
51854SOL    HW160119   9.375   3.781   6.734 -0.1481  0.2790  0.0785
51854SOL    HW260120   9.484   3.879   6.775  1.1224 -0.6757 -0.9525
51855SOL     OW60121   2.683  10.543  10.903 -0.2058 -0.2896 -0.4152
51855SOL    HW160122   2.606  10.599  10.914  0.0591  0.6334 -2.6257
51855SOL    HW260123   2.740  10.566  10.976 -0.8051  1.1906 -0.3651
51856SOL     OW60124   7.801   2.960   2.325 -0.2290 -0.6058 -0.0112
51856SOL    HW160125   7.893   2.944   2.302 -0.3588 -0.0353 -0.9796
51856SOL    HW260126   7.773   3.029   2.266 -1.1645 -0.4537  0.5858
51857SOL     OW60127   9.444   7.061   2.482  0.6545 -0.3689  0.0353
51857SOL    HW160128   9.370   7.029   2.431  0.8140  1.0943 -1.1665
51857SOL    HW260129   9.407   7.126   2.541  1.0226  0.6807 -0.8698
51858SOL     OW60130   5.970   0.691   4.518  0.1565 -0.6424 -0.9329
51858SOL    HW160131   5.982   0.605   4.558  0.6429 -0.8074 -1.4234
51858SOL    HW260132   5.887   0.722   4.553  0.4787 -0.8644  0.0561
51859SOL     OW60133  11.026   9.076  12.015  0.3939  0.1915  0.1746
51859SOL    HW160134  11.075   9.122  11.947  1.2414 -2.0155 -0.7930
51859SOL    HW260135  10.954   9.136  12.036  1.3066  1.8504 -1.1374
51860SOL     OW60136   4.076   0.730  11.850 -0.2918 -0.0027 -0.4484
51860SOL    HW160137   4.036   0.817  11.858  1.2529  0.6599  0.6158
51860SOL    HW260138   4.002   0.670  11.841 -1.3785  1.4754 -1.9271
51861SOL     OW60139   5.873   5.471   5.477  0.0565 -0.6626 -0.1867
51861SOL    HW160140   5.823   5.494   5.399  0.3893 -0.3874 -0.3206
51861SOL    HW260141   5.850   5.538   5.541  0.0446 -0.6939 -0.1576
51862SOL     OW60142   1.113  10.280   0.222 -0.0588 -0.0073  0.3624
51862SOL    HW160143   1.199  10.323   0.215 -0.0446  0.0125  0.6183
51862SOL    HW260144   1.116  10.236   0.307  0.8249 -2.5103 -0.8918
51863SOL     OW60145   7.681   5.765   6.025  0.3107  0.3460 -0.5217
51863SOL    HW160146   7.738   5.785   5.951 -0.5253 -2.2837 -2.0114
51863SOL    HW260147   7.603   5.819   6.012  0.9805  1.3578 -0.4215
51864SOL     OW60148   0.402   6.429   8.312 -0.2726  0.8232  0.4754
51864SOL    HW160149   0.444   6.359   8.362  0.8701  1.3683  0.3148
51864SOL    HW260150   0.338   6.467   8.373 -0.9400 -0.3735  0.5448
51865SOL     OW60151   3.933   8.256   8.892 -0.1567  0.2638  0.1975
51865SOL    HW160152   3.853   8.270   8.841  0.1933 -1.9374 -1.1162
51865SOL    HW260153   3.996   8.222   8.828  1.1123 -0.1769  1.6322
51866SOL     OW60154  10.989   8.930   0.738  0.0981  0.4299 -0.4587
51866SOL    HW160155  11.034   8.920   0.654  0.8928 -0.4958  0.0503
51866SOL    HW260156  10.925   8.859   0.739 -1.0373  1.4232 -0.9529
51867SOL     OW60157   9.794   0.711   8.743  0.0278  0.5779  0.1331
51867SOL    HW160158   9.821   0.784   8.798  0.4808 -1.5371  2.9602
51867SOL    HW260159   9.872   0.687   8.694 -0.0871  1.8455 -0.7016
51868SOL     OW60160  10.971   7.271  11.392  0.0013  0.1214 -0.3998
51868SOL    HW160161  11.021   7.324  11.455 -0.9740 -0.5168  0.9711
51868SOL    HW260162  10.936   7.334  11.330  3.2990  0.5047 -2.0558
51869SOL     OW60163   4.985   0.644   8.524  0.3209 -0.2541  0.6220
51869SOL    HW160164   5.043   0.694   8.582  0.9225  0.1704 -0.3208
51869SOL    HW260165   4.897   0.664   8.555  0.4038  2.8467 -0.7924
51870SOL     OW60166  10.271   3.995   8.179  0.1883  0.9696 -0.2932
51870SOL    HW160167  10.362   4.000   8.148  0.2841 -1.3081 -0.5292
51870SOL    HW260168  10.277   3.946   8.261 -0.5565  3.3160  1.2760
51871SOL     OW60169  11.269   5.153   9.712  0.4936 -0.4569 -0.7632
51871SOL    HW160170  11.281   5.062   9.740  0.9670 -0.2811 -0.3709
51871SOL    HW260171  11.336   5.201   9.760 -1.6997  0.6014  1.4236
51872SOL     OW60172   2.644   2.106   0.398 -0.4839  0.2886 -0.0829
51872SOL    HW160173   2.616   2.069   0.482 -1.6977 -0.2297 -0.6992
51872SOL    HW260174   2.627   2.199   0.406 -1.5659  0.1046 -0.1067
51873SOL     OW60175   2.523   1.398   4.556  0.2008  0.4990 -0.4398
51873SOL    HW160176   2.608   1.393   4.512  0.0132  0.2325 -0.7747
51873SOL    HW260177   2.482   1.313   4.538  0.0021  0.4992  0.0025
51874SOL     OW60178  11.860   8.501   1.962 -0.5519  0.0263 -0.0197
51874SOL    HW160179  11.893   8.460   2.042 -2.1606 -1.9843 -0.3126
51874SOL    HW260180  11.912   8.462   1.891 -0.6246  0.1227 -0.1267
51875SOL     OW60181   4.814   0.869  10.295  0.3447  0.0219  0.0045
51875SOL    HW160182   4.815   0.786  10.248 -0.0680  0.1481 -0.2374
51875SOL    HW260183   4.866   0.928  10.240 -0.6091  0.3235 -0.6023
51876SOL     OW60184   8.850   5.044   9.942  0.1611  0.0696  0.6285
51876SOL    HW160185   8.924   4.987   9.960  0.9339  1.2983  1.5206
51876SOL    HW260186   8.786   5.026  10.011 -0.9673 -1.8583 -0.8166
51877SOL     OW60187   9.027   3.098   9.437  0.4507  0.1138 -0.2339
51877SOL    HW160188   8.990   3.045   9.366  0.6390 -0.4536  0.0803
51877SOL    HW260189   8.951   3.129   9.486  0.3576 -0.3566 -0.0770
51878SOL     OW60190   4.425   9.986   0.875 -0.2391 -0.1386 -0.4904
51878SOL    HW160191   4.455   9.988   0.784  0.8343 -0.2514 -0.1517
51878SOL    HW260192   4.403  10.076   0.896 -2.6456 -0.4083 -1.5299
51879SOL     OW60193   6.166   3.634   1.663  0.3095 -0.1382 -0.3857
51879SOL    HW160194   6.207   3.565   1.714  0.0020 -0.6308 -0.7994
51879SOL    HW260195   6.187   3.614   1.572 -2.4950 -1.5860 -0.8204
51880SOL     OW60196   2.146   3.246   3.685 -0.6054 -0.7940 -0.1363
51880SOL    HW160197   2.108   3.209   3.764 -1.3313  0.1349 -0.0224
51880SOL    HW260198   2.130   3.180   3.617  0.9709 -2.0718  0.6761
51881SOL     OW60199   9.695   7.867   4.895  0.8381  0.3325 -0.1679
51881SOL    HW160200   9.689   7.962   4.886 -0.3395  0.2891  0.0100
51881SOL    HW260201   9.650   7.833   4.818  0.7075 -0.0798  0.0891
51882SOL     OW60202   4.323   0.753   8.355 -0.2036 -0.0904  0.5800
51882SOL    HW160203   4.318   0.673   8.408 -0.0055  0.5186  1.5611
51882SOL    HW260204   4.232   0.773   8.333 -0.3335 -0.1508  1.0355
51883SOL     OW60205  11.448   1.991   9.966  0.1391  0.0635 -0.5184
51883SOL    HW160206  11.473   2.008   9.875 -0.5327  1.3589 -0.4915
51883SOL    HW260207  11.419   2.077   9.999 -1.6515 -0.7848  0.2686
51884SOL     OW60208   0.430   4.650   1.315 -0.0375  0.2571 -0.3827
51884SOL    HW160209   0.439   4.621   1.225 -0.4755  1.6489 -0.9061
51884SOL    HW260210   0.339   4.632   1.338  0.1373 -0.3212 -0.1245
51885SOL     OW60211  10.708  10.377   1.413  0.4177  0.2819 -0.9156
51885SOL    HW160212  10.729  10.412   1.326  0.3905  1.1293 -0.5836
51885SOL    HW260213  10.655  10.445   1.454 -1.7651 -1.1473 -1.1707
51886SOL     OW60214   0.872   6.357  10.865 -0.2716 -0.0269  0.5231
51886SOL    HW160215   0.784   6.339  10.898  0.0447 -0.2518  1.2721
51886SOL    HW260216   0.861   6.431  10.806 -0.8634  0.4042  1.1568
51887SOL     OW60217   0.350   6.080   5.643 -0.3774 -0.3637 -0.0118
51887SOL    HW160218   0.423   6.052   5.699 -0.6854 -0.2898  0.4301
51887SOL    HW260219   0.392   6.126   5.571  0.0587 -0.9221 -0.1202
51888SOL     OW60220   8.890   0.667   1.941  0.5160  0.3573  0.0442
51888SOL    HW160221   8.833   0.726   1.989  0.0733  0.3050 -0.4125
51888SOL    HW260222   8.850   0.580   1.951 -0.8211  0.6225 -2.1770
51889SOL     OW60223   5.336   1.308   6.478 -0.3425 -0.1134 -0.0656
51889SOL    HW160224   5.358   1.241   6.543 -0.5569 -1.3565 -1.2306
51889SOL    HW260225   5.344   1.264   6.394 -3.4561  0.3997 -0.7725
51890SOL     OW60226   4.033   7.905   6.322 -0.0771  0.5321 -0.2236
51890SOL    HW160227   3.996   7.882   6.408 -0.9356 -0.2327 -0.7740
51890SOL    HW260228   3.976   7.861   6.259  1.9984 -1.0509 -1.1166
51891SOL     OW60229   7.437   1.081   1.474  0.0331 -0.0186 -0.0984
51891SOL    HW160230   7.445   1.052   1.565 -1.0759 -0.7085 -0.2041
51891SOL    HW260231   7.429   1.000   1.424  0.3407  0.3700 -0.7876
51892SOL     OW60232  10.122   8.174   6.058  0.3742  0.1105  0.2559
51892SOL    HW160233  10.068   8.237   6.105  0.9756 -0.8619  2.3621
51892SOL    HW260234  10.211   8.209   6.062  0.6470 -0.6272  1.0844
51893SOL     OW60235   0.468  10.750   8.490  0.1765  0.1942 -0.0307
51893SOL    HW160236   0.400  10.804   8.449  1.0406  0.1504 -1.5842
51893SOL    HW260237   0.464  10.667   8.442  1.4657  0.2694 -0.2871
51894SOL     OW60238   9.709   1.293  10.677 -0.0687  0.0625  0.1192
51894SOL    HW160239   9.639   1.309  10.740  0.9447 -0.6212  1.4772
51894SOL    HW260240   9.671   1.318  10.593 -2.1067 -0.7509  0.7209
51895SOL     OW60241   1.248   7.569   5.815 -0.5667  0.6674  0.1077
51895SOL    HW160242   1.312   7.579   5.885 -0.9109  1.3457  0.3301
51895SOL    HW260243   1.202   7.653   5.812 -0.0976  0.9001 -1.3799
51896SOL     OW60244   9.916   5.654   0.241  0.3895 -0.3437 -0.2473
51896SOL    HW160245   9.990   5.594   0.239  0.3541 -0.3703 -1.4000
51896SOL    HW260246   9.876   5.646   0.155  0.8602  1.9450 -0.7364
51897SOL     OW60247  11.564   7.667   8.736 -0.3648  0.0475 -0.1071
51897SOL    HW160248  11.550   7.573   8.745 -1.5687 -0.0469 -2.2578
51897SOL    HW260249  11.480   7.701   8.705  0.4690  1.5979 -0.8157
51898SOL     OW60250   3.333   1.663   3.622  0.0153  0.2253 -0.1842
51898SOL    HW160251   3.242   1.635   3.612  0.5504 -1.1859 -1.4021
51898SOL    HW260252   3.353   1.645   3.714 -0.9521  0.6193  0.1113
51899SOL     OW60253   3.579   5.698   8.701  0.2701  0.3381 -0.1878
51899SOL    HW160254   3.488   5.689   8.675 -0.4916  1.7131  1.8260
51899SOL    HW260255   3.628   5.690   8.619 -1.5457 -1.3168 -1.1997
51900SOL     OW60256   2.805   9.282   7.158 -0.2765 -0.2258 -0.6243
51900SOL    HW160257   2.749   9.321   7.226  0.1642 -0.3192 -0.2043
51900SOL    HW260258   2.776   9.324   7.077  0.3936  1.2127 -0.1474
51901SOL     OW60259   4.635  11.358   5.314  0.0163  0.4050  0.2216
51901SOL    HW160260   4.720  11.369   5.272 -1.0673  0.9950 -1.9685
51901SOL    HW260261   4.577  11.329   5.244 -1.5353 -0.2962  1.7303
51902SOL     OW60262   8.056   8.150   6.986 -0.0481 -0.1973 -0.1844
51902SOL    HW160263   8.062   8.055   7.001 -0.3277 -0.1662  0.1257
51902SOL    HW260264   8.141   8.173   6.948 -0.1845 -0.6679 -0.7887
51903SOL     OW60265   5.475   8.287   5.414 -0.2108 -0.0717 -0.3724
51903SOL    HW160266   5.425   8.359   5.453  0.8505  0.2113  0.5047
51903SOL    HW260267   5.489   8.313   5.324 -2.3626 -0.5418 -0.9003
51904SOL     OW60268  11.972   8.551   5.892 -0.6080  0.5541  0.6418
51904SOL    HW160269  11.887   8.551   5.937 -1.5614  0.5513 -1.0788
51904SOL    HW260270  11.987   8.643   5.870 -1.9151  0.2166 -2.0899
51905SOL     OW60271  10.473   4.460   4.933 -0.2737  0.2608  0.2851
51905SOL    HW160272  10.558   4.488   4.967  0.2324 -1.6391  0.6748
51905SOL    HW260273  10.477   4.480   4.839  1.3138 -1.3361 -0.0369
51906SOL     OW60274   7.641   9.534   7.963  0.5047  0.2003 -0.0294
51906SOL    HW160275   7.690   9.469   8.013  0.2727  0.2216  0.2305
51906SOL    HW260276   7.691   9.615   7.974  1.6710 -0.2578 -1.6710
51907SOL     OW60277   7.182   1.390   5.948 -0.4328 -0.3110 -0.0276
51907SOL    HW160278   7.220   1.387   5.860 -1.7028 -0.2402 -0.5911
51907SOL    HW260279   7.257   1.406   6.005  0.5163 -1.0759 -1.0179
51908SOL     OW60280   1.511  11.974   3.162  0.2708 -0.0225 -0.4810
51908SOL    HW160281   1.573  11.960   3.233  1.5529  0.8376 -1.3892
51908SOL    HW260282   1.426  11.954   3.201  1.0865 -1.2040  0.8057
51909SOL     OW60283  10.308   2.339   9.481  0.3139 -0.9592  0.1517
51909SOL    HW160284  10.284   2.357   9.571 -1.1205  0.0003 -0.3967
51909SOL    HW260285  10.385   2.282   9.488  0.2329 -0.9014  1.9580
51910SOL     OW60286   2.052   8.989   6.980  0.7598 -0.2329  0.0430
51910SOL    HW160287   2.049   8.981   6.885 -0.0979  1.3004 -0.0780
51910SOL    HW260288   2.019   8.904   7.012 -1.5663  0.1815 -1.0656
51911SOL     OW60289   3.059   0.200  10.092  0.0382  0.2949  0.3901
51911SOL    HW160290   3.015   0.129  10.139 -0.0627  0.1317  0.0555
51911SOL    HW260291   3.146   0.205  10.131  1.0093 -1.7781 -1.2992
51912SOL     OW60292   2.140   0.591   1.479 -0.0404  0.0682 -0.2519
51912SOL    HW160293   2.205   0.630   1.420 -0.2606  0.7535 -0.0481
51912SOL    HW260294   2.192   0.558   1.552  0.0786  0.6374 -0.0769
51913SOL     OW60295   3.332   3.553  11.672  0.2277  0.5271  0.7383
51913SOL    HW160296   3.406   3.612  11.684  0.0033  0.5077  2.5350
51913SOL    HW260297   3.266   3.585  11.734 -0.4178 -0.7753  0.7492
51914SOL     OW60298   2.630   9.868   5.480  0.0963 -0.5823  0.1548
51914SOL    HW160299   2.553   9.826   5.518 -0.7091  0.4294 -0.2978
51914SOL    HW260300   2.635   9.832   5.391  1.0903 -1.8204  0.6906
51915SOL     OW60301   6.671   0.520   1.529  0.0978 -0.7551 -0.1654
51915SOL    HW160302   6.601   0.460   1.507  0.5649 -1.0056 -1.0251
51915SOL    HW260303   6.688   0.568   1.448  1.0000 -0.7919 -0.0146
51916SOL     OW60304   7.589   1.631  12.065  0.2715 -0.0076 -0.7691
51916SOL    HW160305   7.661   1.662  12.010 -0.2849  0.4875 -1.2361
51916SOL    HW260306   7.631   1.581  12.134  0.9844 -1.0362 -1.8908
51917SOL     OW60307   9.147   2.895  10.562 -0.2029  0.3484 -0.1646
51917SOL    HW160308   9.175   2.951  10.489  0.6144 -0.6054 -0.6157
51917SOL    HW260309   9.228   2.879  10.610 -0.7279  0.9112  0.9327
51918SOL     OW60310   8.623   2.733   7.360 -0.0374 -0.0713  0.0935
51918SOL    HW160311   8.644   2.812   7.310 -1.6402  0.1792 -0.2380
51918SOL    HW260312   8.552   2.691   7.310 -0.3648 -0.8202  1.1521
51919SOL     OW60313   1.589   7.130   4.840 -0.4866 -0.1252 -0.3943
51919SOL    HW160314   1.590   7.041   4.805 -3.1591  0.4774 -2.3091
51919SOL    HW260315   1.641   7.182   4.778  0.6852 -0.2228  0.4709
51920SOL     OW60316   8.145  10.467   6.554 -0.9032 -0.0037 -0.2900
51920SOL    HW160317   8.099  10.486   6.636 -0.8004  0.1220 -0.2597
51920SOL    HW260318   8.202  10.543   6.541  1.0678 -1.1857  0.9141
51921SOL     OW60319   8.591   0.162   8.471 -0.4153 -0.5909  0.1256
51921SOL    HW160320   8.579   0.098   8.400  1.0431 -1.0150  0.2124
51921SOL    HW260321   8.524   0.229   8.455 -0.0851 -0.6358 -1.7041
51922SOL     OW60322   2.224  10.456   6.290 -0.1780 -0.0856 -0.2387
51922SOL    HW160323   2.239  10.506   6.210  1.7109  0.5261  0.4353
51922SOL    HW260324   2.289  10.490   6.352 -0.8331 -1.3234  1.1868
51923SOL     OW60325  11.101   7.529   9.326 -0.2474 -0.0747 -0.1934
51923SOL    HW160326  11.011   7.503   9.348  0.1986 -1.8844 -0.3184
51923SOL    HW260327  11.104   7.623   9.343 -2.1822  0.0358 -0.2585
51924SOL     OW60328   6.962   9.624   8.001  0.0995  0.0543  0.2638
51924SOL    HW160329   7.038   9.622   7.942 -0.8721  2.0391 -1.1700
51924SOL    HW260330   6.888   9.645   7.943 -0.9300  1.9556  2.1551
51925SOL     OW60331   9.790   6.209   0.100  0.7442  0.1956  0.1840
51925SOL    HW160332   9.875   6.250   0.083  1.5641 -1.5283 -0.1532
51925SOL    HW260333   9.735   6.280   0.132  2.1354  1.4868 -0.1485
51926SOL     OW60334   1.262   6.544   3.638 -0.0268  0.5071 -0.4920
51926SOL    HW160335   1.349   6.514   3.611  0.0384  1.7852 -1.7913
51926SOL    HW260336   1.261   6.637   3.617 -0.6533  1.2220  2.3077
51927SOL     OW60337   1.642   3.566   4.759  0.2122 -0.8950 -0.1240
51927SOL    HW160338   1.649   3.646   4.812  1.3642 -1.4120  0.5530
51927SOL    HW260339   1.629   3.496   4.823 -2.2185 -1.1268 -0.7928
51928SOL     OW60340   8.705   9.143   1.671  0.3019 -0.8603  0.0215
51928SOL    HW160341   8.710   9.201   1.747 -0.1861 -0.7157 -0.0570
51928SOL    HW260342   8.750   9.191   1.601  0.7675 -1.0016  0.2152
51929SOL     OW60343  11.417   9.655   3.939  0.6132  0.8967 -0.3356
51929SOL    HW160344  11.501   9.639   3.983  0.3957  2.0493  0.5606
51929SOL    HW260345  11.402   9.749   3.951 -0.2034  0.9470 -1.5819
51930SOL     OW60346   3.511   2.116   0.246  0.4501  0.0846  0.4562
51930SOL    HW160347   3.607   2.120   0.239  0.4231  1.2434  0.5805
51930SOL    HW260348   3.494   2.039   0.301  1.3096 -0.1440  0.4116
51931SOL     OW60349   7.525   7.834   4.643 -0.0324 -0.7196  0.4985
51931SOL    HW160350   7.449   7.863   4.693  0.1634 -2.8749  2.2364
51931SOL    HW260351   7.593   7.822   4.709  1.3870 -0.2167 -0.8335
51932SOL     OW60352   6.340   6.375  10.190 -0.4471 -0.2880 -0.3067
51932SOL    HW160353   6.255   6.414  10.211 -0.1535 -0.4362  1.2639
51932SOL    HW260354   6.403   6.444  10.207 -0.0239 -1.0377  1.4240
51933SOL     OW60355   6.971   6.931   1.726  0.5059  0.4091  0.5947
51933SOL    HW160356   6.906   6.980   1.777 -0.3437 -1.2507  1.1766
51933SOL    HW260357   7.019   6.998   1.677 -2.5788  1.6531 -1.0011
51934SOL     OW60358   3.170  10.943   8.675  0.0796 -0.2956  0.0174
51934SOL    HW160359   3.112  10.893   8.733 -0.5966  0.7614  0.2857
51934SOL    HW260360   3.190  11.023   8.724  1.2471 -0.3489 -0.3463
51935SOL     OW60361   8.738  11.200   6.447 -0.0556 -0.3680 -0.0270
51935SOL    HW160362   8.825  11.167   6.465  1.4420  2.0049 -2.2036
51935SOL    HW260363   8.717  11.167   6.360 -1.5276 -1.1478  0.5739
51936SOL     OW60364   0.628   9.106   8.651 -0.7858 -0.2271  0.2557
51936SOL    HW160365   0.540   9.069   8.645 -0.4979 -0.7971 -0.8078
51936SOL    HW260366   0.628   9.178   8.589  0.1229 -1.6385 -1.4998
51937SOL     OW60367   7.607   2.590   3.980  0.0344  0.7242  0.6286
51937SOL    HW160368   7.592   2.615   4.071 -1.2442  2.6243 -0.0332
51937SOL    HW260369   7.519   2.585   3.942  0.4513 -1.5645 -0.1715
51938SOL     OW60370   5.829   8.123  11.244 -0.3526 -0.2981 -0.2542
51938SOL    HW160371   5.877   8.048  11.279  0.4080  1.2069  2.1346
51938SOL    HW260372   5.893   8.194  11.243 -1.2112  0.5163 -1.9290
51939SOL     OW60373   7.999   7.382   9.854  0.4207 -0.3053 -0.1181
51939SOL    HW160374   7.940   7.319   9.813 -0.9293 -0.4499  1.8929
51939SOL    HW260375   7.982   7.373   9.948  2.0741  1.2393  0.3914
51940SOL     OW60376   0.727   4.453   1.752  0.4101  0.2602 -0.6202
51940SOL    HW160377   0.682   4.448   1.836  1.3930 -0.4703 -0.1248
51940SOL    HW260378   0.668   4.504   1.696 -0.9982 -0.5975  0.0322
51941SOL     OW60379   7.742   6.040   3.730  0.9172 -0.2910 -0.2852
51941SOL    HW160380   7.766   5.956   3.770  0.9324 -0.5038 -0.7327
51941SOL    HW260381   7.788   6.105   3.782 -1.5669 -0.2571  2.1526
51942SOL     OW60382   9.665   8.034   0.872  0.1186 -0.3023 -0.0547
51942SOL    HW160383   9.620   8.057   0.791  0.1822 -1.6988 -0.5216
51942SOL    HW260384   9.625   8.090   0.939 -1.7591 -0.8845 -0.6081
51943SOL     OW60385   7.669   1.927   1.078 -0.3284 -0.7689  0.3091
51943SOL    HW160386   7.611   1.959   1.009 -1.0129 -0.7630  0.8800
51943SOL    HW260387   7.620   1.855   1.119 -0.5878  0.2093  1.7799
51944SOL     OW60388   6.163   9.484  10.335  0.1479 -0.1769  0.4120
51944SOL    HW160389   6.242   9.522  10.374 -0.2935 -0.4798  1.6676
51944SOL    HW260390   6.098   9.555  10.340 -0.2091 -0.5483  1.2335
51945SOL     OW60391   1.324   1.200   0.496  0.2270 -0.1501 -0.5493
51945SOL    HW160392   1.336   1.292   0.519 -1.5560  0.3126 -1.2486
51945SOL    HW260393   1.313   1.201   0.401 -1.3132 -0.8661 -0.4069
51946SOL     OW60394   2.318   0.722   1.281 -0.5680 -0.4769 -0.5821
51946SOL    HW160395   2.364   0.806   1.289 -0.1767 -0.7529  0.1804
51946SOL    HW260396   2.382   0.663   1.241 -0.5547 -0.6297 -0.3393
51947SOL     OW60397   1.156   2.093   9.495 -0.2979  0.3665 -0.5443
51947SOL    HW160398   1.103   2.123   9.421  0.4403  0.7863 -0.9109
51947SOL    HW260399   1.096   2.041   9.548 -0.2353 -2.1466 -2.7650
51948SOL     OW60400   3.385   9.302  11.257  0.2849 -0.1530 -0.3143
51948SOL    HW160401   3.348   9.214  11.262 -0.5010  0.0334 -2.0864
51948SOL    HW260402   3.473   9.292  11.293  0.3303 -1.7444 -0.7694
51949SOL     OW60403  11.307   1.100   9.391  0.3926  0.0732  0.2450
51949SOL    HW160404  11.288   1.190   9.365 -0.6090  0.3096  1.6116
51949SOL    HW260405  11.322   1.054   9.309 -0.0321  1.2811 -0.5528
51950SOL     OW60406   1.336   7.159   0.418 -0.2894 -0.4753 -0.0577
51950SOL    HW160407   1.353   7.172   0.324  0.3272  0.3428  0.1565
51950SOL    HW260408   1.245   7.189   0.430 -0.0181  0.4426 -0.2079
51951SOL     OW60409   8.684   7.069   2.212  0.0266  0.3389 -0.1586
51951SOL    HW160410   8.642   7.049   2.295  2.0863  1.5380  1.2816
51951SOL    HW260411   8.755   7.006   2.205 -0.3340  0.0245 -1.2214
51952SOL     OW60412   6.757   1.332   9.291  0.1175 -0.3537  0.1772
51952SOL    HW160413   6.693   1.271   9.258 -0.5626 -1.0145  2.5227
51952SOL    HW260414   6.752   1.324   9.386  1.3584  1.9630  0.5313
51953SOL     OW60415   3.852   2.654   9.587 -0.1198  0.4196 -0.1859
51953SOL    HW160416   3.893   2.576   9.626 -0.5258  0.8370  1.1461
51953SOL    HW260417   3.811   2.699   9.662 -2.2951  0.4535 -1.3024
51954SOL     OW60418   2.532  11.592   0.465 -0.0180  0.1010 -0.3298
51954SOL    HW160419   2.463  11.659   0.465 -0.7429 -0.6330 -0.5060
51954SOL    HW260420   2.501  11.526   0.527  0.3329 -0.4384 -0.7234
51955SOL     OW60421  11.864   5.651   2.924 -0.4435  0.0615  0.0181
51955SOL    HW160422  11.926   5.723   2.912  0.1059  0.0498  2.4210
51955SOL    HW260423  11.878   5.596   2.846  1.6350  0.7292 -0.1587
51956SOL     OW60424  10.596  11.793  11.909 -0.3598 -0.0959  0.1910
51956SOL    HW160425  10.516  11.837  11.882 -1.1894 -0.3990  2.0424
51956SOL    HW260426  10.620  11.740  11.833 -0.4499  1.9353 -1.3358
51957SOL     OW60427   5.490   0.328   9.696  0.0694 -0.1555 -0.0778
51957SOL    HW160428   5.512   0.344   9.788  0.5854  0.8953 -0.3649
51957SOL    HW260429   5.394   0.327   9.695 -0.0048  1.6550  0.2315
51958SOL     OW60430   4.533  11.526   5.503  0.3365  0.6969  0.3281
51958SOL    HW160431   4.501  11.478   5.580 -0.2808  0.5497 -0.0206
51958SOL    HW260432   4.566  11.458   5.444  2.3372  0.8888  1.1194
51959SOL     OW60433   3.931   9.766  11.763 -0.2662  0.2947  0.0565
51959SOL    HW160434   4.022   9.755  11.792 -0.7409 -0.9836  1.2345
51959SOL    HW260435   3.909   9.856  11.784  0.0132 -0.0587  2.1147
51960SOL     OW60436   4.392   1.239   2.467 -0.3203 -0.3138  0.4361
51960SOL    HW160437   4.301   1.215   2.480 -0.1691 -0.0899  2.1148
51960SOL    HW260438   4.420   1.189   2.390 -0.9684 -2.9073  1.7682
51961SOL     OW60439   7.276   7.104   6.007 -0.4784  0.0796 -0.2491
51961SOL    HW160440   7.308   7.179   6.058  0.1136  0.4307 -1.1155
51961SOL    HW260441   7.341   7.035   6.024 -0.4392  0.1063 -0.2883
51962SOL     OW60442  10.574   8.657  10.940 -0.2362 -0.6581  0.1771
51962SOL    HW160443  10.618   8.690  11.019  0.7736 -1.8899  0.1556
51962SOL    HW260444  10.545   8.736  10.894 -0.0611  0.1065  1.3442
51963SOL     OW60445   4.706   9.536   2.082  0.0643  0.0180  0.3087
51963SOL    HW160446   4.708   9.592   2.160  1.7430  1.7127 -0.8552
51963SOL    HW260447   4.754   9.458   2.107  2.9173  1.6433  0.3113
51964SOL     OW60448   2.016   2.040   0.592 -0.1666  0.4132  0.1249
51964SOL    HW160449   2.031   2.109   0.528 -1.2745 -0.1846 -0.8053
51964SOL    HW260450   2.103   2.023   0.628  0.5383  0.5758 -1.4081
51965SOL     OW60451   0.179   2.963   4.169  0.2794  0.5160  0.1616
51965SOL    HW160452   0.195   2.956   4.263 -0.2232 -0.0201  0.2116
51965SOL    HW260453   0.101   3.018   4.163  0.1431  0.3133  0.0724
51966SOL     OW60454   9.409   6.384   5.068 -0.5170 -0.0762 -0.4676
51966SOL    HW160455   9.337   6.335   5.028  0.0339 -0.2181 -1.3067
51966SOL    HW260456   9.488   6.334   5.045 -0.1967 -0.3223  1.0381
51967SOL     OW60457   7.696   9.392   7.271  0.1311 -0.2087  0.4736
51967SOL    HW160458   7.650   9.465   7.229  0.9470  1.1494  1.8376
51967SOL    HW260459   7.646   9.314   7.245 -0.4069  0.7342 -1.5174
51968SOL     OW60460  11.115   9.046   3.546 -0.2052  0.2268 -0.2952
51968SOL    HW160461  11.098   9.118   3.607 -1.7809 -1.2150  1.0936
51968SOL    HW260462  11.117   9.087   3.460 -3.6546  1.6890  0.1625
51969SOL     OW60463   1.494   7.642   3.079  0.4203 -0.1764  0.2284
51969SOL    HW160464   1.435   7.705   3.119  1.4945  0.6358  0.5679
51969SOL    HW260465   1.477   7.650   2.985 -1.1373 -1.1253  0.3750
51970SOL     OW60466   4.623   6.388   7.890 -0.4232  0.2642  0.1458
51970SOL    HW160467   4.661   6.309   7.851 -0.2694  1.1709 -1.6313
51970SOL    HW260468   4.672   6.401   7.971  2.7193  1.0196 -1.7306
51971SOL     OW60469   8.308   0.491   2.197 -0.2291 -0.4072 -0.1804
51971SOL    HW160470   8.345   0.408   2.225 -1.8464 -1.5077 -1.1617
51971SOL    HW260471   8.264   0.472   2.114 -1.6539  1.1217  0.1550
51972SOL     OW60472   3.833   7.114   5.954 -0.9333  0.7947 -0.1323
51972SOL    HW160473   3.891   7.063   6.011 -1.1821  0.1706 -0.4287
51972SOL    HW260474   3.866   7.203   5.959  0.3808  0.3598 -0.6979
51973SOL     OW60475   6.422  10.619   3.342  0.1320 -0.5849 -0.1392
51973SOL    HW160476   6.389  10.587   3.258 -0.4509 -2.5582  0.7819
51973SOL    HW260477   6.343  10.651   3.387  0.3882  0.0963 -0.1535
51974SOL     OW60478   0.497   0.719   5.556 -0.3411  0.1121 -0.0416
51974SOL    HW160479   0.424   0.672   5.597 -2.0165 -1.1045 -3.9567
51974SOL    HW260480   0.477   0.812   5.571 -0.1359 -0.1850  2.7446
51975SOL     OW60481  10.950   4.248   7.575  0.0978 -0.4386  0.2858
51975SOL    HW160482  10.949   4.316   7.507  1.7153 -1.1015 -0.4603
51975SOL    HW260483  10.997   4.175   7.535 -1.3602 -1.9313  1.1661
51976SOL     OW60484   5.601  11.826   0.478 -0.8346  0.2589  0.2894
51976SOL    HW160485   5.667  11.773   0.434  0.5498  1.1489  1.2039
51976SOL    HW260486   5.528  11.767   0.494 -0.4853 -0.6285 -1.2022
51977SOL     OW60487   5.359   0.364   1.000 -0.0702 -0.0990  0.3809
51977SOL    HW160488   5.278   0.349   1.049 -0.7074 -0.1964 -0.6768
51977SOL    HW260489   5.402   0.278   0.999  0.3006  0.0535  1.3385
51978SOL     OW60490   4.395   9.274   5.565 -0.7790 -0.0988 -0.3037
51978SOL    HW160491   4.325   9.330   5.601  0.2530  1.5987 -0.8409
51978SOL    HW260492   4.472   9.295   5.619 -0.0049  0.1222 -1.4716
51979SOL     OW60493   5.792   2.024   8.770 -0.1512  0.1676 -0.5958
51979SOL    HW160494   5.712   1.992   8.813 -1.1003  0.7811 -1.8384
51979SOL    HW260495   5.852   2.042   8.842 -1.4745  0.5932  0.4470
51980SOL     OW60496   0.766   3.451   1.848  0.4440 -0.3276 -0.3036
51980SOL    HW160497   0.858   3.459   1.822  0.6646  1.3178  0.7792
51980SOL    HW260498   0.726   3.534   1.820 -1.2972 -1.8532 -2.7103
51981SOL     OW60499   7.241   3.937   7.384 -0.7351  0.1405  0.1608
51981SOL    HW160500   7.187   3.991   7.441  1.3734  1.6080  0.8958
51981SOL    HW260501   7.247   3.988   7.302  1.5888  1.3589  0.9942
51982SOL     OW60502   0.380   2.584   1.645 -0.3340  0.4063 -0.0207
51982SOL    HW160503   0.372   2.659   1.703  0.0947 -1.0444  2.0570
51982SOL    HW260504   0.356   2.509   1.699  0.5878 -1.1140 -1.5807
51983SOL     OW60505   0.970   1.361   6.289  0.7784  0.5818  0.3611
51983SOL    HW160506   1.033   1.293   6.263  0.2541  0.9987 -2.2251
51983SOL    HW260507   1.015   1.409   6.359  1.6021 -1.6936  1.5143
51984SOL     OW60508   6.294   3.358  10.820  0.2474 -0.7413 -0.0072
51984SOL    HW160509   6.234   3.287  10.800  0.3029 -1.1258  1.0772
51984SOL    HW260510   6.238   3.429  10.853  0.3493 -1.0050  0.7561
51985SOL     OW60511   2.613   7.769   2.916 -0.3730 -0.6236  0.1735
51985SOL    HW160512   2.677   7.804   2.977 -1.8249  1.5135  0.5658
51985SOL    HW260513   2.553   7.718   2.971  1.9691 -4.4035 -0.4456
51986SOL     OW60514  11.634   6.115   7.707 -0.0884 -0.0652 -0.5613
51986SOL    HW160515  11.654   6.069   7.626  0.5788  1.2856 -1.1913
51986SOL    HW260516  11.623   6.206   7.681 -1.1037  0.2038  0.6917
51987SOL     OW60517   1.806   4.864   9.689 -0.6913  0.3634 -0.1613
51987SOL    HW160518   1.730   4.877   9.745 -0.0006  2.0085  0.4454
51987SOL    HW260519   1.772   4.873   9.599 -1.3832  0.0240  0.0593
51988SOL     OW60520   7.645   3.148  10.157 -0.1737  0.7035 -0.4201
51988SOL    HW160521   7.661   3.070  10.210  1.6053  1.4333  0.2032
51988SOL    HW260522   7.610   3.114  10.075 -1.2491 -0.5946  0.5323
51989SOL     OW60523   8.469   7.707  11.257 -0.1503  0.0573 -0.0045
51989SOL    HW160524   8.477   7.713  11.162  0.4510  1.3112  0.1015
51989SOL    HW260525   8.390   7.655  11.271 -1.5946  1.8131 -1.2146
51990SOL     OW60526   3.231   7.046  11.195 -0.1532 -0.2522  0.0949
51990SOL    HW160527   3.218   7.043  11.101  0.2182 -0.9612  0.0563
51990SOL    HW260528   3.282   7.126  11.210  0.2207 -0.4027 -0.3637
51991SOL     OW60529   1.486   5.971   8.391 -0.2752  0.0167  0.1783
51991SOL    HW160530   1.562   5.959   8.448 -0.0760  0.6538  0.0589
51991SOL    HW260531   1.416   5.921   8.432 -0.8365  2.3878  2.3748
51992SOL     OW60532   9.571   3.083   0.226  0.9559 -0.4357  0.1161
51992SOL    HW160533   9.597   3.100   0.317  2.6351  0.4946 -0.4965
51992SOL    HW260534   9.652   3.055   0.183  0.1508 -1.0150 -1.0601
51993SOL     OW60535   2.353   0.574   2.459 -0.0639  0.3388 -0.0718
51993SOL    HW160536   2.258   0.582   2.459 -0.2327 -1.1485 -0.8043
51993SOL    HW260537   2.370   0.501   2.518  0.3429 -1.3722 -2.1707
51994SOL     OW60538   6.943   0.016   9.114  0.6464 -0.0942  0.2144
51994SOL    HW160539   6.854   0.050   9.117  0.9385  0.8119 -0.6496
51994SOL    HW260540   6.997   0.093   9.096  1.5161 -0.7566 -0.0876
51995SOL     OW60541   4.690   2.799   6.944 -0.0253  0.3883 -0.7017
51995SOL    HW160542   4.629   2.791   6.870  0.6025  1.9069 -1.4046
51995SOL    HW260543   4.649   2.863   7.002 -0.8760 -1.3179  0.6999
51996SOL     OW60544   5.822  10.101   1.190 -0.3024  0.1889 -0.1157
51996SOL    HW160545   5.907  10.068   1.221 -0.7598  0.4718  1.5369
51996SOL    HW260546   5.815  10.068   1.101  1.8245  0.6644 -0.5294
51997SOL     OW60547   0.420   8.503   2.150 -0.6427 -0.1694  0.0798
51997SOL    HW160548   0.508   8.527   2.176 -0.2507 -1.1176 -0.3348
51997SOL    HW260549   0.422   8.502   2.054 -1.5660  1.4332 -0.0104
51998SOL     OW60550   6.408   2.348   6.435 -0.6084  0.0046 -0.1510
51998SOL    HW160551   6.503   2.363   6.429 -0.0619 -2.6267  0.5642
51998SOL    HW260552   6.373   2.383   6.353  0.8308  1.7655 -0.0781
51999SOL     OW60553   4.920   0.987   5.286  0.1770  0.0835 -0.1941
51999SOL    HW160554   4.887   1.056   5.343  2.7010  0.5783  0.7888
51999SOL    HW260555   4.957   0.922   5.346 -0.3984 -1.2059 -1.1802
52000SOL     OW60556   8.773   4.875   5.708 -0.3457  0.0207  0.3512
52000SOL    HW160557   8.689   4.882   5.664  0.4251 -3.0080 -1.9359
52000SOL    HW260558   8.754   4.834   5.792 -1.1380 -1.2902 -0.4369
52001SOL     OW60559   9.721   0.185  11.592 -0.6381 -0.1798  0.5101
52001SOL    HW160560   9.783   0.221  11.528 -1.7030 -2.1728 -1.7667
52001SOL    HW260561   9.773   0.122  11.642 -0.5582 -1.1427 -0.7434
52002SOL     OW60562   3.311   9.399   5.748 -0.5318  0.2390 -0.0259
52002SOL    HW160563   3.246   9.464   5.772  0.6746  1.1680  0.8150
52002SOL    HW260564   3.335   9.421   5.658 -0.0877  1.0138  0.2723
52003SOL     OW60565   3.131   8.192   2.554  0.4219  0.3928  0.0045
52003SOL    HW160566   3.067   8.140   2.506 -0.1232  1.1017 -0.0557
52003SOL    HW260567   3.196   8.216   2.489  0.6600 -0.1870  0.0270
52004SOL     OW60568   3.083  10.005   7.524 -0.0522  0.0946 -0.4842
52004SOL    HW160569   3.069  10.005   7.618  0.9674  2.0691 -0.2876
52004SOL    HW260570   2.999   9.977   7.487 -1.0125  0.9447  0.9635
52005SOL     OW60571   1.844   8.728   9.484 -0.2412  0.0763 -0.2837
52005SOL    HW160572   1.806   8.771   9.408 -0.3479  3.4807  1.4932
52005SOL    HW260573   1.935   8.708   9.458 -0.7220 -0.3294 -1.7491
52006SOL     OW60574   6.770  11.582   5.525 -0.0445  0.2863 -0.2267
52006SOL    HW160575   6.711  11.509   5.509  1.4388 -1.0362  0.0756
52006SOL    HW260576   6.768  11.633   5.444 -2.2829  0.8438  0.1040
52007SOL     OW60577   1.099  11.596   9.051 -0.2364 -0.3724 -0.1212
52007SOL    HW160578   1.186  11.626   9.077 -0.4533 -0.9992  1.4778
52007SOL    HW260579   1.064  11.666   8.997  1.3897 -0.2729 -1.1097
52008SOL     OW60580   6.413   5.541   0.489  0.6133  0.3964 -0.1779
52008SOL    HW160581   6.394   5.616   0.546  2.0257 -1.4051  2.9087
52008SOL    HW260582   6.329   5.498   0.478  0.1168  1.3886 -0.4223
52009SOL     OW60583   6.589   7.775   9.242 -0.2393  0.3219 -0.2806
52009SOL    HW160584   6.562   7.683   9.246 -0.6466  0.4820  1.4973
52009SOL    HW260585   6.542   7.817   9.314  2.2625  1.2597  0.9331
52010SOL     OW60586   1.286   9.442  10.025 -0.1577  0.1679  0.2236
52010SOL    HW160587   1.363   9.482   9.985 -0.7368 -0.4637 -1.6155
52010SOL    HW260588   1.214   9.502  10.005 -0.6783 -0.7733 -0.8008
52011SOL     OW60589   0.512   0.763   6.937 -0.0553 -0.3050  0.6154
52011SOL    HW160590   0.526   0.671   6.962  0.8790 -0.2859  0.2198
52011SOL    HW260591   0.571   0.812   6.995 -1.8963  0.2447  2.1293
52012SOL     OW60592  10.428   6.770   2.717  0.0621 -0.3349  0.0040
52012SOL    HW160593  10.355   6.830   2.701  0.2278  0.0896  0.8106
52012SOL    HW260594  10.400   6.687   2.677 -0.7162 -0.0853  0.0175
52013SOL     OW60595   8.153   6.976   2.839 -0.5579  0.0940 -0.1041
52013SOL    HW160596   8.075   7.029   2.856 -1.7109 -1.3252 -0.8088
52013SOL    HW260597   8.131   6.889   2.872  0.7441 -0.3370 -0.3090
52014SOL     OW60598   7.671   0.680   5.648  0.5736  0.6626  0.3184
52014SOL    HW160599   7.742   0.618   5.633  0.6938  0.8357  0.1574
52014SOL    HW260600   7.644   0.708   5.561 -1.6923 -1.5879  0.1943
52015SOL     OW60601   6.639   1.201   5.392  0.1753  0.0244  0.4535
52015SOL    HW160602   6.656   1.282   5.441  1.8982 -0.2639  0.3744
52015SOL    HW260603   6.710   1.196   5.329  0.1034 -1.5708  0.4722
52016SOL     OW60604   2.426   0.745   0.695 -0.1925 -0.0525 -0.1720
52016SOL    HW160605   2.463   0.716   0.779 -0.1802  0.4736  0.0073
52016SOL    HW260606   2.416   0.839   0.705 -0.8383 -0.0835 -0.5166
52017SOL     OW60607  11.423  11.431  10.581 -0.0806 -0.5292 -0.6772
52017SOL    HW160608  11.430  11.526  10.590  2.0237 -0.5011 -1.8918
52017SOL    HW260609  11.330  11.412  10.588 -0.5211  1.6045 -0.3100
52018SOL     OW60610   7.434   0.190  11.961 -0.3930 -0.6055  0.0757
52018SOL    HW160611   7.407   0.205  11.870 -0.1769 -3.3273 -0.5124
52018SOL    HW260612   7.529   0.181  11.957 -0.4212 -1.1413  0.4769
52019SOL     OW60613   8.474  10.683   7.682 -0.2777  0.1983 -0.0483
52019SOL    HW160614   8.423  10.710   7.758 -0.0893  0.1094  0.1119
52019SOL    HW260615   8.558  10.727   7.693 -0.3985  0.5246 -0.4301
52020SOL     OW60616   1.008   6.982   1.821  0.5304  0.2615 -0.5011
52020SOL    HW160617   1.085   7.039   1.816  2.1938 -1.7117  0.9400
52020SOL    HW260618   1.012   6.944   1.908 -2.3226  0.3188 -0.2549
52021SOL     OW60619   6.171   3.438   2.972  0.1399  0.1875 -0.5079
52021SOL    HW160620   6.202   3.509   2.916 -0.1256  0.2609 -0.5630
52021SOL    HW260621   6.075   3.442   2.965  0.1336 -1.2856 -1.9180
52022SOL     OW60622   5.205  11.611   9.747  0.0763  0.5043  0.6122
52022SOL    HW160623   5.137  11.593   9.812 -1.0701 -0.3146 -0.7575
52022SOL    HW260624   5.171  11.573   9.666  2.9232 -1.5178  0.2238
52023SOL     OW60625   6.135   7.190   2.618  0.1801  0.6431  0.2974
52023SOL    HW160626   6.135   7.094   2.625  0.5372  0.6331  0.1996
52023SOL    HW260627   6.047   7.212   2.589  0.1600  0.3239  0.1093
52024SOL     OW60628   3.153   9.604   1.567 -0.4896  0.0004 -0.5927
52024SOL    HW160629   3.109   9.577   1.648  0.3627  0.6481  0.1121
52024SOL    HW260630   3.097   9.572   1.497 -0.8424 -1.2912  0.2436
52025SOL     OW60631   4.528   1.781   8.001  0.5764 -0.1112 -0.0245
52025SOL    HW160632   4.502   1.802   7.911 -1.2279 -0.2078  0.4316
52025SOL    HW260633   4.572   1.859   8.033 -0.2185  0.5333 -0.4746
52026SOL     OW60634  11.023   8.789   8.138  0.3901 -0.6682  0.1442
52026SOL    HW160635  11.037   8.859   8.202  1.7254 -1.0323  0.2745
52026SOL    HW260636  10.990   8.716   8.190  0.1803 -0.5335  0.2026
52027SOL     OW60637   6.444  11.627   4.273 -0.3307  0.3344  0.9137
52027SOL    HW160638   6.367  11.682   4.285 -1.0641  0.0697 -1.8656
52027SOL    HW260639   6.410  11.544   4.240  1.0466 -0.2825  0.9431
52028SOL     OW60640   1.740   0.908   9.675  0.5464 -0.1231 -0.0804
52028SOL    HW160641   1.691   0.985   9.704 -0.4255 -0.5891 -0.4335
52028SOL    HW260642   1.673   0.839   9.667  1.2466 -0.7486 -0.6792
52029SOL     OW60643   6.609   2.451   3.494  0.3468  0.0719 -0.1350
52029SOL    HW160644   6.597   2.501   3.575 -0.5676  2.7162 -1.7699
52029SOL    HW260645   6.528   2.400   3.485 -0.1886  0.8846 -0.0707
52030SOL     OW60646   6.997   6.358   0.012  0.2798 -0.1427 -0.4273
52030SOL    HW160647   7.071   6.301   0.032  0.3571 -0.0539 -0.4619
52030SOL    HW260648   6.969   6.330  -0.076 -0.9339 -1.4850  0.3327
52031SOL     OW60649   1.188   8.314   9.696 -0.5422 -0.4582  0.1840
52031SOL    HW160650   1.155   8.387   9.644  0.3996  0.6360  1.0524
52031SOL    HW260651   1.147   8.325   9.781  0.5857 -0.1512  0.7107
52032SOL     OW60652  10.681   6.181   6.456  0.0127 -0.2696 -0.4622
52032SOL    HW160653  10.747   6.134   6.507  0.3771 -1.2365 -1.7704
52032SOL    HW260654  10.689   6.272   6.483 -0.9356 -0.9421  2.4096
52033SOL     OW60655   0.946   8.658  12.110 -0.3535 -0.4130  0.7891
52033SOL    HW160656   1.007   8.682  12.179 -1.4988 -3.1326  2.8998
52033SOL    HW260657   0.861   8.652  12.153 -0.9497 -3.2334 -0.5312
52034SOL     OW60658   7.109   3.027   7.127  0.1745  0.0375  0.2393
52034SOL    HW160659   7.132   2.934   7.136  1.6978  0.4029  0.2220
52034SOL    HW260660   7.075   3.051   7.213 -0.0217 -0.4773  0.3102
52035SOL     OW60661  10.333   7.211  10.099 -0.4467  0.2314 -0.0817
52035SOL    HW160662  10.341   7.116  10.091 -0.4378  0.2701 -0.5850
52035SOL    HW260663  10.242   7.230  10.078  0.0113  0.5137 -2.0825
52036SOL     OW60664   2.799   9.597   2.039 -0.1240  0.3724 -0.3096
52036SOL    HW160665   2.754   9.672   2.078 -0.2685  0.0406  0.1719
52036SOL    HW260666   2.891   9.609   2.061 -0.0819  0.6537 -0.6376
52037SOL     OW60667  10.721   7.484   1.350  0.7501  0.3284  0.1805
52037SOL    HW160668  10.740   7.487   1.444  1.0141  1.3060  0.1081
52037SOL    HW260669  10.698   7.393   1.333  1.8423 -0.1082  0.9638
52038SOL     OW60670   1.114   6.046   7.986  0.1316 -0.1117  0.2744
52038SOL    HW160671   1.038   6.103   7.976  1.1894  1.4153  0.4148
52038SOL    HW260672   1.170   6.092   8.049  1.4981 -0.7755 -0.3982
52039SOL     OW60673   5.746   0.976   3.737 -0.5833 -0.1692  0.4444
52039SOL    HW160674   5.664   0.962   3.689 -2.1344 -0.6752  3.0262
52039SOL    HW260675   5.758   0.896   3.788 -0.6710  1.3718  3.0860
52040SOL     OW60676   7.350   4.491   3.110  0.3924 -0.6705  0.2739
52040SOL    HW160677   7.347   4.423   3.043 -0.4832 -1.9260  1.5080
52040SOL    HW260678   7.375   4.444   3.190 -1.3487  0.1973  1.4024
52041SOL     OW60679   5.222   6.317   7.028 -0.6051 -0.1926  0.0287
52041SOL    HW160680   5.174   6.397   7.049 -0.7168  0.2900 -1.9045
52041SOL    HW260681   5.265   6.293   7.110 -3.9284 -0.5779  1.8544
52042SOL     OW60682   1.541   1.571   6.060 -0.4712 -0.0038  0.2558
52042SOL    HW160683   1.470   1.507   6.063  0.0628 -0.5910  0.4884
52042SOL    HW260684   1.547   1.604   6.149 -0.1583 -0.2790  0.3372
52043SOL     OW60685   6.738   5.523   8.220  0.3614 -0.0105  0.7410
52043SOL    HW160686   6.675   5.587   8.254 -0.1382  0.4600 -0.9782
52043SOL    HW260687   6.816   5.535   8.274  0.0483  1.6130  0.8892
52044SOL     OW60688   4.445  10.814   3.085  0.3490 -0.0964  0.7521
52044SOL    HW160689   4.473  10.835   2.996  1.6149 -2.6245  0.4494
52044SOL    HW260690   4.359  10.775   3.074  0.6028 -0.6233  0.5747
52045SOL     OW60691   2.143  10.427   2.250 -0.2202 -0.1969  0.0966
52045SOL    HW160692   2.208  10.383   2.305 -0.9817 -2.2299 -0.5650
52045SOL    HW260693   2.061  10.382   2.267 -0.8503  0.3435 -1.3341
52046SOL     OW60694   6.451   9.824  10.819  0.5698  0.4029  0.2948
52046SOL    HW160695   6.432   9.862  10.732  2.2534 -0.8575 -0.6750
52046SOL    HW260696   6.543   9.847  10.835  1.2503 -2.0450  0.2658
52047SOL     OW60697  11.820   1.942  11.647  0.3470  0.1104 -0.0569
52047SOL    HW160698  11.842   1.988  11.727 -0.5040  1.3016 -0.4684
52047SOL    HW260699  11.797   2.012  11.585 -1.7376 -0.8611 -0.4751
52048SOL     OW60700   1.650   0.106   6.767  0.3630 -0.3232 -0.3837
52048SOL    HW160701   1.707   0.136   6.696  0.5051  1.1926  0.3302
52048SOL    HW260702   1.585   0.176   6.777  0.0440 -0.7442  0.6475
52049SOL     OW60703   4.693   2.092   4.928  0.4329  0.3654 -0.2050
52049SOL    HW160704   4.650   2.109   4.844  1.6782  1.8134 -0.5841
52049SOL    HW260705   4.732   2.175   4.953  1.7468 -0.5142  0.8556
52050SOL     OW60706   0.444  11.423   4.681 -0.1577 -0.3054  0.5371
52050SOL    HW160707   0.354  11.391   4.673 -1.0501  1.4910  2.3081
52050SOL    HW260708   0.446  11.501   4.625  0.7425 -1.0785 -0.5476
52051SOL     OW60709   0.199   6.353   4.920  0.1098  0.2708 -0.0112
52051SOL    HW160710   0.245   6.348   4.835 -0.8321  0.8028 -0.5645
52051SOL    HW260711   0.269   6.367   4.984  0.9841 -1.4255 -0.5318
52052SOL     OW60712   6.795   4.888   9.394 -0.1043  0.0038  0.0703
52052SOL    HW160713   6.709   4.859   9.423  0.4261 -0.4613  1.2476
52052SOL    HW260714   6.789   4.983   9.391 -0.8114 -0.0444 -0.4091
52053SOL     OW60715   3.440   5.381   8.605 -0.1905 -0.6948  0.6885
52053SOL    HW160716   3.431   5.318   8.677  0.1528 -1.3888  0.1447
52053SOL    HW260717   3.416   5.332   8.527 -0.5372  0.0460  0.3199
52054SOL     OW60718   9.961   3.402   3.389  0.4419  0.5286  0.1909
52054SOL    HW160719   9.994   3.481   3.431  1.8162  0.9845 -1.6140
52054SOL    HW260720   9.896   3.433   3.325  1.7782  0.3690 -1.3077
52055SOL     OW60721   7.823   9.579   7.473 -0.3633  0.3790  0.1217
52055SOL    HW160722   7.820   9.605   7.381 -1.8448  0.9873  0.3209
52055SOL    HW260723   7.774   9.497   7.476  1.1263 -0.5469  0.1142
52056SOL     OW60724   8.320   1.152   5.654 -0.0771  0.3835 -0.6344
52056SOL    HW160725   8.231   1.144   5.622 -0.7358  0.3722  1.0799
52056SOL    HW260726   8.323   1.094   5.730  2.1384 -1.5750 -2.0526
52057SOL     OW60727   2.245   7.285   4.058  0.3480 -0.1781  0.4841
52057SOL    HW160728   2.277   7.194   4.058  1.3920  0.1520 -1.1599
52057SOL    HW260729   2.171   7.285   3.997 -2.6639 -0.7995  3.8134
52058SOL     OW60730   1.095  11.778   8.132 -0.4351  0.0442  0.2035
52058SOL    HW160731   1.181  11.791   8.173 -0.8054 -0.1995  1.0830
52058SOL    HW260732   1.112  11.786   8.039  0.0719  2.6966  0.4480
52059SOL     OW60733   1.834  10.996   0.908 -0.2090  0.1891 -0.2545
52059SOL    HW160734   1.794  11.073   0.947  2.1230  1.3299  0.1017
52059SOL    HW260735   1.857  11.022   0.819 -0.3471 -0.4483 -0.4853
52060SOL     OW60736   2.886  10.089   2.648  0.4193 -0.5000  0.3682
52060SOL    HW160737   2.803  10.119   2.610  0.0643 -0.2967  1.2934
52060SOL    HW260738   2.867  10.000   2.678  0.0296  0.1361  2.0974
52061SOL     OW60739   0.283   1.782   2.813 -0.7015 -0.0647 -0.1717
52061SOL    HW160740   0.377   1.786   2.791 -0.1014 -0.5657  2.0447
52061SOL    HW260741   0.258   1.873   2.828 -0.5529  0.0645 -0.6816
52062SOL     OW60742   7.171   9.064   6.991 -0.5960  0.5006  0.0707
52062SOL    HW160743   7.186   8.970   7.002  2.0058  1.0232  2.1945
52062SOL    HW260744   7.146   9.095   7.079 -1.2205  1.8237 -0.5451
52063SOL     OW60745   8.915   9.415  11.686  0.3572  0.5669 -0.1662
52063SOL    HW160746   8.840   9.385  11.737  1.2162 -1.1991  0.1433
52063SOL    HW260747   8.981   9.439  11.752 -0.0725  2.5963 -0.4228
52064SOL     OW60748   0.982   3.263   6.125 -0.1314 -0.3353  0.5798
52064SOL    HW160749   1.041   3.334   6.152  0.0359 -0.7553  1.3660
52064SOL    HW260750   0.921   3.304   6.064  0.9844  0.1110 -0.2760
52065SOL     OW60751   3.506   8.875  11.458 -0.2676 -0.1226  0.0776
52065SOL    HW160752   3.523   8.866  11.365  0.5786  0.2665  0.1841
52065SOL    HW260753   3.521   8.788  11.494 -3.2730 -0.9955 -0.5068
52066SOL     OW60754   4.875  11.960  10.740  0.6835  0.2865 -0.0797
52066SOL    HW160755   4.803  12.017  10.711  1.0084  1.3927  1.2087
52066SOL    HW260756   4.943  11.973  10.674 -0.0187 -0.2380 -0.9345
52067SOL     OW60757  11.229   3.434   6.383  0.5211 -0.6397 -0.2720
52067SOL    HW160758  11.164   3.438   6.454  2.3300  0.5063  1.4042
52067SOL    HW260759  11.285   3.360   6.407  3.6504  2.1587  1.9490
52068SOL     OW60760   8.368   5.848   9.068  0.2635  0.2824  0.2986
52068SOL    HW160761   8.370   5.827   9.161 -3.7578  2.0739  1.0146
52068SOL    HW260762   8.349   5.765   9.025 -1.0730 -0.0736  1.4927
52069SOL     OW60763   6.936   6.166   7.575  0.2362  0.0585 -0.0362
52069SOL    HW160764   6.922   6.168   7.669 -0.3803 -0.5723 -0.1058
52069SOL    HW260765   7.027   6.140   7.564 -0.0049 -0.9905  0.3747
52070SOL     OW60766   3.566   7.634   4.014 -0.5597 -0.0659  0.0856
52070SOL    HW160767   3.571   7.641   4.110  0.3254  2.0691 -0.0584
52070SOL    HW260768   3.642   7.684   3.983 -1.5766  0.3950 -1.7639
52071SOL     OW60769  11.488   8.214   2.458  0.0628 -0.8297 -0.0046
52071SOL    HW160770  11.394   8.224   2.442  0.5390 -0.3471 -3.0522
52071SOL    HW260771  11.508   8.127   2.424  1.1331  0.1288 -1.9685
52072SOL     OW60772   3.546  11.149  10.645  0.1216  0.3144  0.4406
52072SOL    HW160773   3.463  11.112  10.673 -0.4789  2.4446  1.7821
52072SOL    HW260774   3.612  11.093  10.686 -0.7402  1.8429  4.4760
52073SOL     OW60775  11.396   7.669   1.296 -0.2417 -0.4341 -0.0076
52073SOL    HW160776  11.428   7.732   1.231  1.1264 -1.4008 -0.3394
52073SOL    HW260777  11.406   7.713   1.380 -0.6584  0.3044 -0.3441
52074SOL     OW60778   2.794   0.934   3.928  0.4435 -0.5722  0.1703
52074SOL    HW160779   2.733   0.964   3.861 -0.3519  1.1024  1.5653
52074SOL    HW260780   2.877   0.975   3.904  0.5985 -1.3672 -0.7135
52075SOL     OW60781  12.044  10.905  10.322  0.2415 -0.0659 -0.5629
52075SOL    HW160782  12.037  10.966  10.249  0.2407  0.0428 -0.4715
52075SOL    HW260783  12.130  10.863  10.311  0.0458 -0.3838 -0.8856
52076SOL     OW60784   4.634   7.378   1.309  0.8703 -0.0949  0.1761
52076SOL    HW160785   4.587   7.362   1.391  0.4957 -0.2357 -0.0610
52076SOL    HW260786   4.726   7.359   1.330  0.8939  0.6056  0.7615
52077SOL     OW60787   1.485  11.182   0.807 -0.3774 -0.6068  0.1086
52077SOL    HW160788   1.417  11.242   0.777 -0.1354 -0.2942  0.1829
52077SOL    HW260789   1.474  11.178   0.902  0.5825  0.5382  0.2959
52078SOL     OW60790   5.849   0.990   8.556  0.1408  0.1909 -0.4237
52078SOL    HW160791   5.760   0.976   8.523  0.9723  0.6876 -3.1524
52078SOL    HW260792   5.868   1.081   8.534  0.9554  0.4298  1.1691
52079SOL     OW60793   5.253  11.170   7.616  0.2640 -0.3092 -0.0363
52079SOL    HW160794   5.301  11.209   7.543 -1.6958 -0.8037 -1.6753
52079SOL    HW260795   5.290  11.211   7.694  1.5571  1.1865 -1.3748
52080SOL     OW60796   2.792   2.177  11.538  0.8337  0.2796  0.1702
52080SOL    HW160797   2.745   2.235  11.478  0.1377 -1.4855 -1.0591
52080SOL    HW260798   2.756   2.198  11.625  0.3667  1.4268 -0.2881
52081SOL     OW60799   7.785   7.553   7.110  0.2665 -0.0564 -0.4573
52081SOL    HW160800   7.713   7.563   7.172 -0.2533 -0.1674 -1.0332
52081SOL    HW260801   7.749   7.500   7.038  1.2613 -1.1382 -0.2043
52082SOL     OW60802   7.656  11.745   4.943 -0.8360  0.6459 -0.4534
52082SOL    HW160803   7.601  11.674   4.976 -0.5624  0.5260 -0.2427
52082SOL    HW260804   7.686  11.715   4.857  0.5049 -0.1833  0.2654
52083SOL     OW60805   7.387   8.748   9.460  0.2731  0.4410 -0.9060
52083SOL    HW160806   7.292   8.759   9.458 -0.0959 -0.0549  3.7456
52083SOL    HW260807   7.402   8.660   9.425 -1.2358 -0.2609  0.1111
52084SOL     OW60808   9.870  11.685   0.240 -0.3922  0.3484  0.4715
52084SOL    HW160809   9.869  11.590   0.233 -1.4545  0.2647  1.4854
52084SOL    HW260810   9.868  11.716   0.149  1.8050 -0.5663  0.0677
52085SOL     OW60811   6.120   4.380  11.036  0.1961 -0.3862 -0.0145
52085SOL    HW160812   6.207   4.352  11.006  0.8390  1.8375 -0.4906
52085SOL    HW260813   6.064   4.372  10.959  0.3342 -0.5336 -0.0987
52086SOL     OW60814   9.481   0.230  10.370  0.2317  0.3367 -0.4454
52086SOL    HW160815   9.509   0.309  10.323  0.6614  1.5418  1.7192
52086SOL    HW260816   9.492   0.251  10.462 -1.4923 -1.5892  0.2882
52087SOL     OW60817   3.071  10.332   3.790  0.1754  0.6570  0.0012
52087SOL    HW160818   3.020  10.402   3.832 -1.3756  0.0158 -0.7708
52087SOL    HW260819   3.010  10.259   3.783  1.2494 -0.1768 -0.8530
52088SOL     OW60820   0.619   9.170   0.413 -0.5636  0.3162 -0.3433
52088SOL    HW160821   0.679   9.225   0.463 -0.4472  0.1935 -0.3472
52088SOL    HW260822   0.649   9.080   0.428 -1.1319  0.2009  0.1651
52089SOL     OW60823   2.546  10.479   1.456 -0.0961 -0.3053 -0.5582
52089SOL    HW160824   2.492  10.528   1.393 -0.6451 -0.6151 -0.3386
52089SOL    HW260825   2.619  10.537   1.475 -0.8651  0.5454 -0.1099
52090SOL     OW60826   2.773   3.434   2.996 -0.0032 -0.1195  0.1485
52090SOL    HW160827   2.803   3.431   2.905 -0.7681 -0.4605 -0.1002
52090SOL    HW260828   2.845   3.396   3.046  1.0530  1.4227 -0.1271
52091SOL     OW60829   7.101   3.099   4.839 -0.0544  0.0528  0.0910
52091SOL    HW160830   7.177   3.152   4.815  0.4260 -0.5251  0.3034
52091SOL    HW260831   7.129   3.051   4.917 -0.1980 -1.1094 -0.5569
52092SOL     OW60832   9.962   9.969  11.412 -0.7880  0.4762 -0.1403
52092SOL    HW160833  10.000   9.935  11.331 -0.5768 -0.8650  0.4908
52092SOL    HW260834  10.037   9.992  11.466 -0.7805 -1.5923  0.8620
52093SOL     OW60835   9.953  10.362   6.965  0.1433  0.0405 -0.2592
52093SOL    HW160836   9.863  10.385   6.945  0.2517  0.7673  0.0483
52093SOL    HW260837  10.006  10.411   6.902  0.3918  0.9023  0.5863
52094SOL     OW60838   8.941   1.211   5.926 -0.2936  0.1443  0.5417
52094SOL    HW160839   8.870   1.238   5.985 -0.5440 -0.0499  0.3347
52094SOL    HW260840   9.019   1.252   5.962 -0.4138 -0.1145  1.1088
52095SOL     OW60841   6.761   1.976  10.282 -0.2376  0.2327 -0.3244
52095SOL    HW160842   6.837   1.972  10.225 -0.4462 -1.5514 -0.5577
52095SOL    HW260843   6.709   2.048  10.248  2.2821  2.9330  1.1465
52096SOL     OW60844   9.370   3.385   7.436 -0.2199 -0.2289  0.2185
52096SOL    HW160845   9.460   3.356   7.451 -0.9064 -2.5027  0.3936
52096SOL    HW260846   9.319   3.304   7.437 -2.3135  1.0324  0.3740
52097SOL     OW60847   5.540   9.738   4.742  0.1608 -0.4251 -0.1060
52097SOL    HW160848   5.516   9.646   4.740  0.2007 -0.4313 -0.2390
52097SOL    HW260849   5.633   9.739   4.721  0.3446 -0.4242  0.6698
52098SOL     OW60850   6.871   1.598   2.157  0.1808 -0.5433  0.8184
52098SOL    HW160851   6.960   1.626   2.174  0.2899 -1.0230  1.0498
52098SOL    HW260852   6.842   1.557   2.239 -0.6031  0.4973  1.0906
52099SOL     OW60853   9.539   8.918   3.412  0.3521  0.2131 -0.2123
52099SOL    HW160854   9.580   8.836   3.441 -0.1074 -0.3716 -1.1645
52099SOL    HW260855   9.490   8.948   3.488 -0.7037 -1.2067 -0.2781
52100SOL     OW60856   3.004   9.500   1.810  0.1401  0.1400  0.5378
52100SOL    HW160857   2.931   9.439   1.800  1.5116 -1.1013 -3.7352
52100SOL    HW260858   3.064   9.455   1.869  0.4941 -2.1196 -1.4234
52101SOL     OW60859   7.392   7.689  11.238 -0.1468 -0.2257  0.7292
52101SOL    HW160860   7.313   7.667  11.287 -0.3154 -0.3280  0.4074
52101SOL    HW260861   7.463   7.645  11.286 -0.5961 -2.4496 -0.5392
52102SOL     OW60862   9.929   4.357   7.054 -0.1112 -0.2415 -0.5825
52102SOL    HW160863   9.981   4.428   7.016 -0.5605 -0.0291 -0.8069
52102SOL    HW260864   9.839   4.381   7.036 -0.2585 -1.0408 -0.9557
52103SOL     OW60865   1.415   0.159   0.347  0.0677 -0.0639 -0.3695
52103SOL    HW160866   1.357   0.108   0.290  0.9288 -0.0841 -1.2557
52103SOL    HW260867   1.497   0.110   0.348  0.4746  0.6076 -0.1474
52104SOL     OW60868   3.104   2.034   9.359  0.0968  0.7050 -0.6993
52104SOL    HW160869   3.093   2.128   9.347  1.5122  1.0316  0.4188
52104SOL    HW260870   3.163   2.007   9.289 -0.3831  0.6034 -1.0782
52105SOL     OW60871   2.214   2.654   2.199 -0.1451 -0.1002  0.1607
52105SOL    HW160872   2.307   2.675   2.199  0.0625 -0.9731 -0.2176
52105SOL    HW260873   2.195   2.633   2.291  0.8211 -3.1042 -0.2187
52106SOL     OW60874   4.986   1.461   6.895  0.5095 -0.3476  0.2204
52106SOL    HW160875   4.961   1.431   6.983  0.2981 -2.2564 -0.4496
52106SOL    HW260876   5.081   1.474   6.900  0.6030 -1.1182  0.5456
52107SOL     OW60877   4.141   5.293   3.281 -0.3269  0.3840 -0.4566
52107SOL    HW160878   4.082   5.243   3.224  0.1191  0.6999 -1.2058
52107SOL    HW260879   4.166   5.230   3.349  0.0516 -0.3650 -1.2623
52108SOL     OW60880   5.845   3.053   3.472 -0.6489  0.4687 -0.3591
52108SOL    HW160881   5.896   3.112   3.416 -1.3783  0.6896 -0.8011
52108SOL    HW260882   5.904   2.979   3.489  1.2498  2.4383  2.3203
52109SOL     OW60883   4.763   8.784  10.939 -0.2527  0.0615  0.1288
52109SOL    HW160884   4.731   8.826  10.859 -1.3596  1.5214  1.2825
52109SOL    HW260885   4.722   8.697  10.938  0.5009 -0.3065 -1.3250
52110SOL     OW60886   5.657   1.159   8.304 -0.0831 -0.5726  0.5310
52110SOL    HW160887   5.575   1.110   8.311 -1.4186  1.7336  4.6194
52110SOL    HW260888   5.630   1.250   8.291  1.9259  0.0421  0.2700
52111SOL     OW60889   5.294   4.150   0.886 -0.2193  0.1762  0.6539
52111SOL    HW160890   5.306   4.198   0.969 -2.3706  2.1684 -0.0830
52111SOL    HW260891   5.342   4.202   0.821 -1.0792  0.3474  0.1465
52112SOL     OW60892   3.952   5.307   9.173  0.4302  0.2920  0.1614
52112SOL    HW160893   3.959   5.213   9.190  1.5611  0.6423  1.8523
52112SOL    HW260894   3.895   5.340   9.242  0.8323  0.9852  0.1706
52113SOL     OW60895   7.751   4.634   0.584  0.4213 -0.3267 -0.8678
52113SOL    HW160896   7.678   4.694   0.570  0.0776 -1.0025 -2.0335
52113SOL    HW260897   7.825   4.677   0.540  0.7793  0.4005  0.3877
52114SOL     OW60898   3.717   4.875   9.831  0.0420 -0.4629  0.0145
52114SOL    HW160899   3.731   4.932   9.755 -0.1954  1.8612  1.6112
52114SOL    HW260900   3.691   4.791   9.794  0.5043  0.4144 -2.4708
52115SOL     OW60901   0.256   9.471   5.588 -0.3823 -0.3389 -0.5872
52115SOL    HW160902   0.291   9.449   5.674 -0.1697 -0.5013 -0.7138
52115SOL    HW260903   0.289   9.558   5.569  0.4221 -0.7085 -0.9470
52116SOL     OW60904   7.867   5.230   0.304  0.3598 -0.3870  0.0610
52116SOL    HW160905   7.788   5.186   0.334 -0.7085  1.5172  0.2202
52116SOL    HW260906   7.933   5.210   0.371 -0.6787 -0.0425  1.2221
52117SOL     OW60907   2.372   4.523   9.049  0.2704  0.2517  0.2934
52117SOL    HW160908   2.426   4.546   8.974  0.0235  0.6348  0.2304
52117SOL    HW260909   2.325   4.444   9.022  0.5600  0.0974  0.2346
52118SOL     OW60910  11.971   5.711   4.704 -0.7597  0.3418 -0.0614
52118SOL    HW160911  12.060   5.686   4.731 -1.3643  0.7160  2.5012
52118SOL    HW260912  11.974   5.806   4.697  0.1562  0.1751 -4.6143
52119SOL     OW60913   5.105   0.981   2.047  0.1739 -0.0571 -0.1975
52119SOL    HW160914   5.154   1.050   2.093 -0.1835 -0.3427  0.6245
52119SOL    HW260915   5.035   0.957   2.107 -0.1180 -0.6672 -0.7699
52120SOL     OW60916   0.703   3.649  12.036 -0.2835  0.3393 -0.0522
52120SOL    HW160917   0.655   3.567  12.022 -1.4982  0.6160  2.0529
52120SOL    HW260918   0.674   3.679  12.122  1.8729  1.8152  0.2342
52121SOL     OW60919   6.163   5.256   0.743 -0.1567 -0.7007 -0.2395
52121SOL    HW160920   6.163   5.347   0.772  1.8269 -1.1051  1.2747
52121SOL    HW260921   6.071   5.235   0.728 -1.1482  0.4260  3.2585
52122SOL     OW60922   9.484  11.013   8.731  0.1479 -0.0749  0.5518
52122SOL    HW160923   9.457  11.103   8.746  0.9250  0.0379  1.3359
52122SOL    HW260924   9.509  11.010   8.639  0.5520  0.6232  0.6340
52123SOL     OW60925  11.809   4.966   7.096 -0.4456 -0.1604  0.2346
52123SOL    HW160926  11.784   5.053   7.063  0.9536  0.1179 -0.1745
52123SOL    HW260927  11.787   4.906   7.024 -2.2940 -0.3047  0.8792
52124SOL     OW60928   6.232   0.981  11.729 -0.7724 -0.3716 -0.0916
52124SOL    HW160929   6.190   1.067  11.733 -0.4754 -0.2185 -0.2316
52124SOL    HW260930   6.196   0.940  11.651  0.4585  0.3592 -1.0752
52125SOL     OW60931   4.892   7.285   4.771 -0.2467  0.3620 -0.3434
52125SOL    HW160932   4.922   7.298   4.861 -0.7794  1.6585 -0.3313
52125SOL    HW260933   4.883   7.190   4.762 -1.3492  0.2603  1.3669
52126SOL     OW60934   7.213   0.105   4.382 -0.0492 -0.2128  0.3040
52126SOL    HW160935   7.202   0.013   4.407  1.7946 -1.4837 -2.8969
52126SOL    HW260936   7.174   0.111   4.295  0.2475  1.9444  0.2685
52127SOL     OW60937  10.350   1.685   5.746  0.2605 -0.5671 -0.2203
52127SOL    HW160938  10.422   1.745   5.725 -0.0344 -0.5940 -1.3746
52127SOL    HW260939  10.383   1.599   5.723  1.0144 -1.0204  2.2776
52128SOL     OW60940   9.659   8.686   3.548 -0.0482 -0.3149 -0.0950
52128SOL    HW160941   9.672   8.612   3.489 -1.6080 -1.9695  1.5200
52128SOL    HW260942   9.650   8.647   3.635 -3.0099  1.4972  0.5692
52129SOL     OW60943  11.010   9.117  11.092 -0.6425 -0.3282  0.2562
52129SOL    HW160944  11.038   9.028  11.114  0.1488 -0.2789 -0.5016
52129SOL    HW260945  10.992   9.113  10.998 -1.1005  0.1920  0.3214
52130SOL     OW60946   5.817  10.622   3.322 -0.2081 -0.7107 -0.1006
52130SOL    HW160947   5.856  10.700   3.281  1.0686 -1.3853 -0.2131
52130SOL    HW260948   5.726  10.648   3.340 -0.1400  0.4095 -1.1963
52131SOL     OW60949   3.292   8.097   4.438  0.2910  0.4056 -0.2539
52131SOL    HW160950   3.363   8.128   4.495  1.0323 -1.1105 -0.3079
52131SOL    HW260951   3.289   8.161   4.367  1.4825  0.6095 -0.1437
52132SOL     OW60952  11.438   4.971   8.418  0.0866  0.0829 -0.6568
52132SOL    HW160953  11.361   5.027   8.423 -0.5027 -0.6650 -1.0329
52132SOL    HW260954  11.450   4.955   8.325 -0.4778 -1.3497 -0.5134
52133SOL     OW60955   9.222   0.247   4.900 -0.2914 -0.3970 -0.0548
52133SOL    HW160956   9.287   0.222   4.833 -0.0133  0.0663  0.0389
52133SOL    HW260957   9.159   0.175   4.899 -0.2858 -0.4083 -0.8097
52134SOL     OW60958  10.552  10.798   4.676  0.0295  0.1537  0.0190
52134SOL    HW160959  10.646  10.803   4.658  0.0307  0.0671 -0.0036
52134SOL    HW260960  10.512  10.779   4.591 -0.2075  2.2862 -0.4031
52135SOL     OW60961   6.936   3.326   5.196 -0.0226  0.0661 -0.1191
52135SOL    HW160962   6.978   3.367   5.120  1.7520  0.2730  0.9237
52135SOL    HW260963   6.940   3.233   5.178  1.2908  0.0581  0.1354
52136SOL     OW60964   3.791   1.656   6.280  0.1848 -0.5187  0.1942
52136SOL    HW160965   3.842   1.701   6.346  1.2599 -1.2165 -0.1391
52136SOL    HW260966   3.840   1.667   6.199  1.3490 -3.5229  0.3535
52137SOL     OW60967   4.935   2.052   0.939 -0.4046  0.4477 -0.7628
52137SOL    HW160968   4.960   1.993   0.869  2.4449 -0.1950  0.6424
52137SOL    HW260969   4.921   1.995   1.015  2.2535  1.4233  0.5814
52138SOL     OW60970   0.877   6.528   2.118  0.1626 -0.4588 -0.1860
52138SOL    HW160971   0.905   6.439   2.101 -0.3754 -0.3599 -1.7643
52138SOL    HW260972   0.947   6.583   2.082  0.1174 -0.2393  0.0555
52139SOL     OW60973   7.767   0.133   6.899  0.5965  0.2410 -0.2192
52139SOL    HW160974   7.700   0.109   6.962  0.2255  0.6226 -0.4627
52139SOL    HW260975   7.835   0.066   6.909  0.9507  0.7753  1.1812
52140SOL     OW60976   8.204   9.853   4.630  0.2338 -0.3104  0.4679
52140SOL    HW160977   8.168   9.780   4.579  0.1031 -0.2962  0.5408
52140SOL    HW260978   8.288   9.872   4.588 -0.2843  0.3114 -0.3144
52141SOL     OW60979   5.108   1.042   8.822  0.1369  0.6053 -0.0590
52141SOL    HW160980   5.092   1.070   8.912 -0.1930  1.0712 -0.2559
52141SOL    HW260981   5.058   1.105   8.769 -0.5057 -0.2762 -0.5193
52142SOL     OW60982   1.892   2.806  11.868 -0.5904 -0.6476 -0.3311
52142SOL    HW160983   1.908   2.748  11.794  2.3822 -0.8278  0.3246
52142SOL    HW260984   1.895   2.894  11.830  1.5873 -0.7050 -0.4408
52143SOL     OW60985   7.092   5.872  11.851  0.6111  0.2019  0.4722
52143SOL    HW160986   7.161   5.871  11.785  0.4600 -0.8976  0.3079
52143SOL    HW260987   7.032   5.803  11.823 -0.5839  1.1601  0.5874
52144SOL     OW60988  11.378  11.871   4.240  0.1463  0.4216 -0.2091
52144SOL    HW160989  11.349  11.813   4.170  0.8707 -0.0761 -0.1178
52144SOL    HW260990  11.406  11.811   4.310  1.0649  0.8671 -0.1763
52145SOL     OW60991   4.433   4.865   5.157 -0.1066 -0.5677  0.1630
52145SOL    HW160992   4.479   4.787   5.126  0.1891 -0.5395  0.5199
52145SOL    HW260993   4.414   4.915   5.078  0.4782 -0.5802  0.0084
52146SOL     OW60994   7.808   8.985   7.289 -0.4480 -0.3619  0.0305
52146SOL    HW160995   7.728   8.977   7.341  0.1446 -0.8561  0.8897
52146SOL    HW260996   7.857   9.056   7.329 -0.2896 -0.3013 -0.2646
52147SOL     OW60997   9.860   6.285   1.103 -0.3155  0.5586 -0.3058
52147SOL    HW160998   9.803   6.209   1.119  0.3240 -0.0576 -0.8751
52147SOL    HW260999   9.849   6.302   1.009 -0.2589  1.0113 -0.2293
52148SOL     OW61000   9.953   3.349  11.174  0.8495 -0.1938  0.0647
52148SOL    HW161001   9.988   3.260  11.171 -1.9022 -1.3583 -0.2982
52148SOL    HW261002   9.877   3.343  11.232 -0.7527  1.3485 -1.7366
52149SOL     OW61003  10.936   4.039   3.792  0.1514 -0.4478 -0.3917
52149SOL    HW161004  10.874   4.112   3.785 -0.5469 -0.8085  1.3598
52149SOL    HW261005  10.895   3.967   3.744  0.3486 -0.0010 -1.2409
52150SOL     OW61006  11.939   8.570   7.591  0.7076 -0.7441  0.1994
52150SOL    HW161007  11.960   8.611   7.507 -0.3651 -0.5056  0.0396
52150SOL    HW261008  11.881   8.497   7.569  1.3385 -1.3979  0.6338
52151SOL     OW61009  11.370   7.789   9.146 -0.5321 -0.3936  0.0830
52151SOL    HW161010  11.324   7.814   9.067 -0.5182 -0.4921  0.0435
52151SOL    HW261011  11.338   7.701   9.166 -1.1530 -0.0496  0.6450
52152SOL     OW61012  10.747   0.704  11.069  0.2891  0.1308 -0.0041
52152SOL    HW161013  10.741   0.609  11.083  1.0719  0.0721 -0.0179
52152SOL    HW261014  10.666   0.726  11.023  0.0967 -0.5357  0.0007
52153SOL     OW61015   7.771   4.708  10.782 -0.4381  0.4154  0.0213
52153SOL    HW161016   7.845   4.742  10.832 -0.3966 -0.1219  0.3318
52153SOL    HW261017   7.694   4.752  10.819 -0.6656 -1.5366  2.0416
52154SOL     OW61018   9.294   9.095   5.468  0.1585 -0.3246 -0.0209
52154SOL    HW161019   9.382   9.128   5.486  0.3188 -0.9560  0.3948
52154SOL    HW261020   9.235   9.164   5.501  0.4466 -1.1019  2.3605
52155SOL     OW61021   0.515   5.277   8.912 -0.5360  0.0288 -0.8708
52155SOL    HW161022   0.569   5.356   8.915  1.7313 -1.4554  0.3418
52155SOL    HW261023   0.481   5.268   9.001 -0.8579 -0.2960 -1.0278
52156SOL     OW61024   8.026   8.300   5.295  0.0986 -0.5598  0.7224
52156SOL    HW161025   7.980   8.359   5.235  0.5345  1.1678  2.0148
52156SOL    HW261026   7.961   8.276   5.360 -0.2476 -2.0694 -0.1277
52157SOL     OW61027   0.642   5.697   1.099 -0.4486  0.3242  0.5356
52157SOL    HW161028   0.567   5.742   1.059  1.7524  2.5080 -1.4994
52157SOL    HW261029   0.665   5.629   1.037 -0.0450  0.4348  0.5622
52158SOL     OW61030  11.393   9.585   4.813  0.1382 -0.7654 -0.0946
52158SOL    HW161031  11.449   9.648   4.857  0.0384  0.0668 -1.1401
52158SOL    HW261032  11.305   9.603   4.846  0.5515 -2.8973  2.5235
52159SOL     OW61033   5.993   5.252   2.393  0.2434  0.4997 -0.1633
52159SOL    HW161034   5.911   5.299   2.409  1.2047  1.8807  1.0268
52159SOL    HW261035   6.059   5.300   2.444  1.4694 -1.6399  0.4297
52160SOL     OW61036   2.036   8.993   9.027 -0.6442  0.2886  0.0151
52160SOL    HW161037   2.093   9.064   9.056 -1.3594 -0.2529  3.1064
52160SOL    HW261038   1.948   9.022   9.050 -0.7879 -2.6751  4.6012
52161SOL     OW61039   0.645  10.860   8.835 -0.5496  0.2568 -1.0866
52161SOL    HW161040   0.721  10.805   8.852 -2.2527 -1.6206  1.0062
52161SOL    HW261041   0.579  10.800   8.800 -1.8676  1.3120 -0.5098
52162SOL     OW61042   9.841  11.186   7.860  0.0304 -0.0013  0.1541
52162SOL    HW161043   9.827  11.107   7.808  2.3670 -0.7974  0.6340
52162SOL    HW261044   9.754  11.226   7.867 -0.6742 -0.7049 -2.9492
52163SOL     OW61045   6.073   2.332   3.718  0.4194  0.2280  1.3446
52163SOL    HW161046   6.162   2.307   3.742 -0.1632 -0.4239  2.9412
52163SOL    HW261047   6.025   2.249   3.714  0.1397  0.4309 -0.8302
52164SOL     OW61048   2.018   5.804   3.533 -0.0612 -0.7431  0.6744
52164SOL    HW161049   2.070   5.725   3.546 -1.1168 -1.7004 -0.6806
52164SOL    HW261050   2.082   5.875   3.537  0.9716 -1.6745  1.4644
52165SOL     OW61051   9.515   5.732  10.968 -0.3206  0.2842  0.7696
52165SOL    HW161052   9.600   5.689  10.954  0.5021  2.1762 -0.5515
52165SOL    HW261053   9.491   5.710  11.058  1.0664 -1.1484  0.8292
52166SOL     OW61054   6.600  10.511  10.455  0.0526 -0.0437  0.0141
52166SOL    HW161055   6.589  10.434  10.399 -1.0693 -0.4634  0.7533
52166SOL    HW261056   6.586  10.585  10.397 -0.2773 -0.4488 -0.4355
52167SOL     OW61057   3.375  10.735  10.623  0.2611 -0.0615  0.6343
52167SOL    HW161058   3.297  10.775  10.585 -1.2162 -3.6374 -0.4783
52167SOL    HW261059   3.421  10.697  10.548  0.2099 -2.5235  1.7688
52168SOL     OW61060  10.568   5.570   6.664  0.3627  0.1462 -0.2678
52168SOL    HW161061  10.577   5.645   6.722 -0.5106 -0.1109  0.2225
52168SOL    HW261062  10.657   5.537   6.651  0.4648 -0.6482  2.0580
52169SOL     OW61063   1.659   3.537  10.116 -0.4132 -0.1717 -0.0136
52169SOL    HW161064   1.696   3.474  10.178 -0.3350 -0.0872  0.0249
52169SOL    HW261065   1.663   3.621  10.161  1.2307  0.1856 -0.7647
52170SOL     OW61066   2.860  11.078   9.959  0.3929  0.3245 -0.3103
52170SOL    HW161067   2.912  11.029  10.023 -0.7448 -0.9547 -0.3117
52170SOL    HW261068   2.920  11.144   9.924  1.9665 -0.9955 -0.2224
52171SOL     OW61069   8.827   2.242   5.205 -0.0031 -0.4904  0.4205
52171SOL    HW161070   8.736   2.230   5.178  0.5915 -0.5717 -1.7461
52171SOL    HW261071   8.866   2.154   5.198  0.6452 -0.1538 -0.4042
52172SOL     OW61072   6.142   4.528   2.653 -0.1866 -0.5348 -0.2221
52172SOL    HW161073   6.153   4.435   2.671 -0.5669 -0.4676  0.3961
52172SOL    HW261074   6.219   4.570   2.692 -0.3815 -0.5176  0.1471
52173SOL     OW61075  10.812  11.273   9.276  0.0025 -0.1476  0.2027
52173SOL    HW161076  10.765  11.191   9.266 -0.1847  0.0639 -0.7288
52173SOL    HW261077  10.903  11.252   9.254 -0.0446 -0.1079 -0.0325
52174SOL     OW61078   8.482   5.668   8.560 -0.0969 -0.2080  0.4085
52174SOL    HW161079   8.574   5.641   8.562 -0.3441 -1.0298  1.7063
52174SOL    HW261080   8.451   5.654   8.649 -0.6150  3.2777  0.9070
52175SOL     OW61081  11.623   1.528   2.484 -0.5815  0.1431  0.0243
52175SOL    HW161082  11.705   1.552   2.526 -0.0089 -0.4557 -0.7251
52175SOL    HW261083  11.586   1.459   2.539  0.0647 -0.4937 -0.3178
52176SOL     OW61084   2.354   7.512   8.543 -0.1330 -0.0159  0.7177
52176SOL    HW161085   2.393   7.577   8.602 -0.6996  0.6066  0.4192
52176SOL    HW261086   2.359   7.430   8.592 -0.7756  0.5247  1.7331
52177SOL     OW61087   0.149   8.882   7.381 -0.0351 -0.0654  0.5849
52177SOL    HW161088   0.175   8.842   7.464 -2.7126 -0.9170  1.0958
52177SOL    HW261089   0.105   8.813   7.333 -2.0134  1.3835  0.1650
52178SOL     OW61090   3.012   7.636   6.111  0.4525 -0.2774  0.1090
52178SOL    HW161091   3.018   7.725   6.144  1.4330 -0.1822 -0.3042
52178SOL    HW261092   3.095   7.595   6.136  0.2140 -0.9304 -0.1293
52179SOL     OW61093   7.772   7.418   4.611 -0.1475  0.2468  0.0136
52179SOL    HW161094   7.701   7.472   4.575 -0.1157 -0.4019 -1.0595
52179SOL    HW261095   7.799   7.361   4.539  0.5005 -0.5163  0.8204
52180SOL     OW61096   2.121  12.000   9.650 -0.2499 -0.1932 -0.0435
52180SOL    HW161097   2.179  12.043   9.712 -1.6162  1.4058  0.2121
52180SOL    HW261098   2.135  11.907   9.664  0.1202  0.1243  2.0460
52181SOL     OW61099   4.405  11.582   8.092 -0.6411  0.4761  0.4365
52181SOL    HW161100   4.451  11.660   8.060  0.7056  0.6398  2.5599
52181SOL    HW261101   4.330  11.617   8.140  0.6825  0.6263  2.5180
52182SOL     OW61102  11.848   5.698   8.653  0.0954  0.0405  0.8947
52182SOL    HW161103  11.808   5.767   8.707 -0.2128 -0.7784  1.7375
52182SOL    HW261104  11.912   5.744   8.599 -1.4597  1.2917  0.0176
52183SOL     OW61105   4.700   0.589   8.401 -0.0682 -0.0300  0.7258
52183SOL    HW161106   4.668   0.664   8.451  0.0115  0.4678  0.0450
52183SOL    HW261107   4.722   0.524   8.467 -0.0903  0.5669  1.3340
52184SOL     OW61108   4.103   0.391   3.481  0.5269  0.3344 -0.4505
52184SOL    HW161109   4.108   0.382   3.576  3.3058  0.9105 -0.4701
52184SOL    HW261110   4.085   0.484   3.467 -0.1338  0.2046 -0.5230
52185SOL     OW61111   6.707   4.997   7.722  0.4173 -0.1014  0.0465
52185SOL    HW161112   6.769   5.025   7.789  1.6981  0.0795 -1.1707
52185SOL    HW261113   6.752   5.012   7.639 -1.4166  0.4658 -0.9244
52186SOL     OW61114   9.633   3.964   3.615 -0.2010  0.2478 -0.4562
52186SOL    HW161115   9.574   4.010   3.556 -0.3955 -1.1285 -1.3708
52186SOL    HW261116   9.585   3.960   3.698 -0.0530  1.9173 -0.2653
52187SOL     OW61117   3.325   5.900   3.636  0.0036  0.2564 -0.3164
52187SOL    HW161118   3.293   5.850   3.560  0.3243 -0.5159  0.0405
52187SOL    HW261119   3.305   5.844   3.711  0.9702  0.3591  0.0313
52188SOL     OW61120   4.369   2.379   8.809 -0.7241  0.7032 -1.0915
52188SOL    HW161121   4.375   2.321   8.884 -2.0447 -1.1654 -2.3362
52188SOL    HW261122   4.417   2.335   8.739 -0.6888  1.7252 -1.7435
52189SOL     OW61123   2.330   8.815   0.680 -0.0222  0.5038 -0.2220
52189SOL    HW161124   2.265   8.775   0.623  0.3214 -0.6076  0.1472
52189SOL    HW261125   2.367   8.886   0.627 -0.9551  0.6346 -0.7187
52190SOL     OW61126   1.236  11.372  10.182 -0.5725  0.7168 -0.1495
52190SOL    HW161127   1.322  11.331  10.186  0.5323  2.7872 -0.9939
52190SOL    HW261128   1.210  11.383  10.274  0.5874  1.0645  0.1507
52191SOL     OW61129   2.299   5.192   6.845 -0.1675  0.0915  0.0866
52191SOL    HW161130   2.366   5.125   6.841  1.1783  1.3368  0.7234
52191SOL    HW261131   2.259   5.191   6.758 -0.5565 -1.8542  0.2474
52192SOL     OW61132   2.284   4.734   4.661  0.3562  0.3199  0.0910
52192SOL    HW161133   2.189   4.723   4.663  0.5992 -3.2984 -1.0601
52192SOL    HW261134   2.316   4.679   4.734  1.5996  0.5693 -0.2412
52193SOL     OW61135  10.640   9.428   0.837  0.0634  0.1158 -0.0413
52193SOL    HW161136  10.648   9.446   0.743  0.3083  0.8013  0.1049
52193SOL    HW261137  10.703   9.488   0.878 -1.7891  1.6164  0.7426
52194SOL     OW61138   6.563   9.612   2.698  0.0400 -0.4798  0.3930
52194SOL    HW161139   6.591   9.611   2.790 -2.5407  1.1717  1.3058
52194SOL    HW261140   6.507   9.535   2.689 -2.3268  1.0276  1.2359
52195SOL     OW61141  10.402   1.679   1.751  0.4630  0.4857  0.4898
52195SOL    HW161142  10.353   1.682   1.668 -0.8632  1.7463  1.2771
52195SOL    HW261143  10.487   1.643   1.727 -0.7945 -1.7259 -0.9515
52196SOL     OW61144  11.692   3.821   7.881  0.4057 -0.3634 -0.0507
52196SOL    HW161145  11.723   3.816   7.791  2.1465 -1.0741  0.5458
52196SOL    HW261146  11.771   3.809   7.934 -0.0115  3.1027  1.6182
52197SOL     OW61147   4.664   0.249   7.255  0.5923  0.2994 -0.0269
52197SOL    HW161148   4.693   0.277   7.342 -0.6898 -0.0918  0.5390
52197SOL    HW261149   4.690   0.157   7.249 -0.9782 -0.2160  0.7069
52198SOL     OW61150   8.515   2.884   6.637 -0.3222  0.0395 -0.5262
52198SOL    HW161151   8.540   2.957   6.693  0.0140  0.0798 -0.7292
52198SOL    HW261152   8.420   2.894   6.625 -0.3287  0.2510 -0.2853
52199SOL     OW61153   0.471  12.092  10.907 -0.3000 -0.1213 -0.9275
52199SOL    HW161154   0.421  12.034  10.850 -0.6476  0.2542 -1.0119
52199SOL    HW261155   0.437  12.076  10.994  0.1177 -0.5773 -0.8462
52200SOL     OW61156   0.308   1.559   6.288 -0.5410 -0.0949  0.3826
52200SOL    HW161157   0.316   1.548   6.193 -0.2677  0.1050  0.3803
52200SOL    HW261158   0.278   1.474   6.319 -3.5572  0.6665 -0.1937
52201SOL     OW61159  11.050   6.598   3.743 -0.1450 -0.4639  0.0862
52201SOL    HW161160  11.024   6.685   3.711 -1.3877 -0.9697 -0.3267
52201SOL    HW261161  11.074   6.550   3.664 -0.3336 -0.7833  0.2231
52202SOL     OW61162   8.305   8.713   7.368 -0.3107  0.4561  0.2209
52202SOL    HW161163   8.303   8.713   7.463 -0.4884  1.7677  0.2384
52202SOL    HW261164   8.331   8.624   7.344  1.3831  0.5678  1.5118
52203SOL     OW61165   2.363   4.361   3.540 -0.6388 -0.8995 -0.5936
52203SOL    HW161166   2.458   4.371   3.538 -0.7103 -0.0925 -0.2596
52203SOL    HW261167   2.337   4.362   3.447 -0.4196 -0.1305 -0.6481
52204SOL     OW61168   3.435   3.420   3.263  0.0687  0.3210 -0.6323
52204SOL    HW161169   3.500   3.419   3.193  2.5048  3.4113  1.3071
52204SOL    HW261170   3.462   3.350   3.322 -0.9994 -1.1839 -1.8561
52205SOL     OW61171   8.161  11.081   7.275 -0.4833  0.8280 -0.5523
52205SOL    HW161172   8.091  11.146   7.265  0.2345  1.6489 -0.4154
52205SOL    HW261173   8.116  10.998   7.288 -1.4718  1.6876  1.9957
52206SOL     OW61174   9.562   2.675  10.710  0.1743  0.0610  0.1323
52206SOL    HW161175   9.642   2.639  10.669 -0.0190  0.2610 -0.4335
52206SOL    HW261176   9.536   2.608  10.773 -0.2994 -0.9112 -1.0591
52207SOL     OW61177   8.636   9.931   9.741 -0.0069 -0.0118  0.1567
52207SOL    HW161178   8.599   9.870   9.805  0.5652 -1.9414 -1.2466
52207SOL    HW261179   8.613  10.018   9.775 -0.2193 -0.9451  2.6431
52208SOL     OW61180  12.126   7.686  10.635  0.1893  0.5366 -0.5040
52208SOL    HW161181  12.096   7.718  10.719  0.4747  1.0351 -0.5897
52208SOL    HW261182  12.187   7.753  10.604 -0.0675  0.4559 -1.1983
52209SOL     OW61183   9.245  10.775   2.719  0.7482  0.2123 -0.7335
52209SOL    HW161184   9.262  10.868   2.709 -2.7136  1.1912  0.8572
52209SOL    HW261185   9.183  10.754   2.648  1.6969 -0.9907 -1.2450
52210SOL     OW61186   4.324   9.703   8.499  0.0905  0.1245 -0.0989
52210SOL    HW161187   4.416   9.714   8.521  0.7280 -5.2693  1.2158
52210SOL    HW261188   4.318   9.733   8.408  3.7875 -1.4122 -1.0342
52211SOL     OW61189  11.792  11.302   6.411 -0.4409 -0.0034  0.2339
52211SOL    HW161190  11.866  11.326   6.355 -0.7345  0.0662 -0.1280
52211SOL    HW261191  11.715  11.319   6.357 -0.7190 -0.1375  0.5873
52212SOL     OW61192   9.475   4.825   5.754 -0.4243  0.2950 -0.4020
52212SOL    HW161193   9.456   4.735   5.731 -1.8859 -0.2767  2.5266
52212SOL    HW261194   9.389   4.866   5.766  0.2081  1.5270  0.1508
52213SOL     OW61195   1.119  11.961   7.359 -0.4006 -0.2608 -0.1021
52213SOL    HW161196   1.143  12.046   7.323 -2.4720 -0.4488 -2.1880
52213SOL    HW261197   1.154  11.961   7.448  1.1851  2.0305 -0.6564
52214SOL     OW61198   7.473   2.581   5.770 -0.1598  0.0921 -0.2661
52214SOL    HW161199   7.401   2.644   5.776 -0.7620 -0.6672  1.1168
52214SOL    HW261200   7.547   2.633   5.738 -1.0811  1.0993 -0.8410
52215SOL     OW61201   1.818  10.319  10.208 -0.3929 -0.4522 -0.3015
52215SOL    HW161202   1.822  10.324  10.303 -0.0663 -0.4878 -0.3152
52215SOL    HW261203   1.907  10.298  10.180 -0.1344  1.0526 -0.7067
52216SOL     OW61204   4.913   2.906  11.470 -0.4929 -0.4592 -1.0099
52216SOL    HW161205   4.958   2.976  11.423  1.7283 -1.0778  0.0451
52216SOL    HW261206   4.938   2.919  11.562 -2.4181 -0.9300 -0.3856
52217SOL     OW61207   5.857   0.151  10.469  0.1280 -0.3291  0.5181
52217SOL    HW161208   5.834   0.243  10.478  0.3245 -0.1317 -0.7802
52217SOL    HW261209   5.953   0.150  10.473  0.2876 -0.1462 -1.6566
52218SOL     OW61210   1.813   3.716   2.810  0.1432 -0.1064  0.1998
52218SOL    HW161211   1.887   3.772   2.785 -0.4417  0.7333  0.3004
52218SOL    HW261212   1.757   3.772   2.864 -1.3300 -0.2369 -1.1095
52219SOL     OW61213   4.367   0.784   6.308 -0.1565 -0.2864 -0.2846
52219SOL    HW161214   4.398   0.774   6.218 -0.9708 -2.7851 -0.3767
52219SOL    HW261215   4.444   0.769   6.362 -0.0786 -0.9177 -0.5631
52220SOL     OW61216  10.862   0.044   0.461  0.3083  0.6441  0.2233
52220SOL    HW161217  10.788  -0.011   0.488 -0.1346  0.4635 -1.2378
52220SOL    HW261218  10.831   0.133   0.475 -0.8583  0.6246 -1.8618
52221SOL     OW61219   5.796   3.063  11.619 -0.2353  0.0378 -0.7368
52221SOL    HW161220   5.855   3.138  11.627 -1.1334  1.1012 -3.0290
52221SOL    HW261221   5.852   2.987  11.634  0.8780  1.1060  0.8523
52222SOL     OW61222   1.590   8.536   8.002 -0.1974 -0.6535 -0.2069
52222SOL    HW161223   1.637   8.615   8.031 -2.3054  0.7414 -0.3735
52222SOL    HW261224   1.642   8.464   8.036  2.0239  0.7607 -0.3379
52223SOL     OW61225   7.130   7.352   6.275 -0.1156 -0.5770  0.3243
52223SOL    HW161226   7.072   7.302   6.218  0.7380 -0.7352 -0.4265
52223SOL    HW261227   7.106   7.443   6.260 -0.6186 -0.6706  0.5292
52224SOL     OW61228   7.825   6.206   1.071  0.1872 -0.4585 -0.4521
52224SOL    HW161229   7.763   6.209   0.999  0.6825  1.4875 -0.8655
52224SOL    HW261230   7.818   6.117   1.106 -0.9415 -1.0557 -2.1041
52225SOL     OW61231   0.083   7.013   3.360 -0.0932  0.2844 -0.5171
52225SOL    HW161232   0.034   6.943   3.318  1.3671  0.3815 -2.5323
52225SOL    HW261233   0.163   6.971   3.391  0.4553  0.9041 -1.0672
52226SOL     OW61234   7.276   0.080   3.339 -0.0572  0.3027 -0.3352
52226SOL    HW161235   7.294   0.153   3.399 -0.5405 -0.5174  0.8502
52226SOL    HW261236   7.209   0.028   3.384 -0.6688 -0.1763 -1.7490
52227SOL     OW61237   8.713  11.057   9.122  0.0163 -0.1334 -0.2896
52227SOL    HW161238   8.792  11.075   9.071 -0.2771  1.2507 -0.2883
52227SOL    HW261239   8.746  11.031   9.208  0.5592 -3.7474 -1.4310
52228SOL     OW61240   1.228   1.227   9.519 -0.0571 -0.4594 -0.2676
52228SOL    HW161241   1.308   1.281   9.512  0.6723 -1.5357 -0.5145
52228SOL    HW261242   1.246   1.167   9.591 -1.4766  0.5815  1.0245
52229SOL     OW61243   5.938   5.942   6.555 -0.2018  0.8060  0.0607
52229SOL    HW161244   5.979   6.005   6.496 -0.4984  1.6069  0.6938
52229SOL    HW261245   5.865   5.990   6.595 -0.8941 -0.1691 -0.0001
52230SOL     OW61246   7.538   9.646   6.017 -0.3501 -0.2631 -0.3346
52230SOL    HW161247   7.516   9.697   6.094 -1.8553 -1.8236  0.3485
52230SOL    HW261248   7.458   9.597   5.997  0.3303 -0.7012 -2.2556
52231SOL     OW61249   3.352   2.294   0.551 -0.3155  0.2973  0.3089
52231SOL    HW161250   3.418   2.254   0.608  0.8308  1.6787 -0.0277
52231SOL    HW261251   3.317   2.367   0.603 -2.0029 -0.7146  0.6974
52232SOL     OW61252   7.886   6.255   6.671 -0.1296 -0.5384 -0.0563
52232SOL    HW161253   7.874   6.160   6.678  0.7892 -0.7475 -1.1689
52232SOL    HW261254   7.929   6.280   6.753 -1.2162 -0.9172  0.6540
52233SOL     OW61255   2.708   9.398  11.025  0.2388 -0.0577  0.3775
52233SOL    HW161256   2.728   9.355  11.108  0.8517 -1.3852 -0.4201
52233SOL    HW261257   2.616   9.377  11.008  0.0872  0.2969  0.7715
52234SOL     OW61258   1.583   7.269   8.640  0.2511  0.1550 -0.0928
52234SOL    HW161259   1.497   7.239   8.611 -0.2346  0.4365  0.9908
52234SOL    HW261260   1.614   7.200   8.699  0.6445  0.1837 -0.2633
52235SOL     OW61261   5.222   7.287   8.602  0.0363 -0.0777  0.1522
52235SOL    HW161262   5.150   7.224   8.607 -0.4683  0.2887 -1.7889
52235SOL    HW261263   5.179   7.371   8.586  0.8559  0.3234  0.0030
52236SOL     OW61264   6.103  11.070   7.816  0.0307 -0.3003 -0.0450
52236SOL    HW161265   6.117  11.018   7.737 -3.0720 -1.6832  0.1895
52236SOL    HW261266   6.142  11.019   7.886  1.1976  0.0614 -0.4072
52237SOL     OW61267   7.871   7.245  11.287 -0.3775 -0.4642 -0.0628
52237SOL    HW161268   7.794   7.250  11.344 -0.8292 -0.4387 -0.6701
52237SOL    HW261269   7.937   7.198  11.339 -1.2570 -1.7112 -0.0423
52238SOL     OW61270   2.217   1.701   7.776 -0.2515  0.0911  0.3057
52238SOL    HW161271   2.152   1.641   7.812  1.4230 -0.5067  2.5659
52238SOL    HW261272   2.301   1.663   7.800  0.8890  2.7918  0.9545
52239SOL     OW61273   9.828   4.979   7.881 -0.2274 -0.1836 -0.1554
52239SOL    HW161274   9.869   5.024   7.954 -0.9587  0.2409  0.0115
52239SOL    HW261275   9.900   4.955   7.823  0.2353  0.7157  0.0277
52240SOL     OW61276   7.363   1.564  10.778  0.2521 -0.1739 -0.0129
52240SOL    HW161277   7.284   1.614  10.755  1.5465  0.7057 -2.8974
52240SOL    HW261278   7.381   1.589  10.869 -1.2604  1.7184 -0.1651
52241SOL     OW61279  10.433   2.736   6.099  0.2684  0.0822 -0.6425
52241SOL    HW161280  10.339   2.725   6.090  0.3612 -0.2831 -1.1741
52241SOL    HW261281  10.447   2.744   6.194 -0.3075  0.2944 -0.5726
52242SOL     OW61282  11.161   2.009   8.585 -0.5726  0.2015  0.4378
52242SOL    HW161283  11.167   1.917   8.609 -1.3068  0.1218  0.3394
52242SOL    HW261284  11.151   2.055   8.668  2.1832  0.4528  0.7250
52243SOL     OW61285   9.108   3.750   5.247  0.0945 -0.2187  0.4444
52243SOL    HW161286   9.125   3.681   5.183 -0.0993  1.0008 -0.9817
52243SOL    HW261287   9.050   3.710   5.311  1.0793 -1.7668  0.4106
52244SOL     OW61288   2.029   1.576  11.537  0.2665 -0.4703 -0.2017
52244SOL    HW161289   2.024   1.569  11.632 -0.0691  0.3622 -0.1445
52244SOL    HW261290   1.997   1.492  11.505 -4.0106  0.6969  0.3809
52245SOL     OW61291   9.266   4.906   2.727 -1.0437 -0.2885  0.0232
52245SOL    HW161292   9.288   4.885   2.818 -0.7597  1.2876  0.3327
52245SOL    HW261293   9.343   4.878   2.678 -0.7138 -0.0778  0.4094
52246SOL     OW61294   7.544   6.525   6.440  0.7265 -0.0735  0.1658
52246SOL    HW161295   7.593   6.607   6.440 -0.8927  0.9305  0.0609
52246SOL    HW261296   7.585   6.472   6.509  2.5417  0.3180 -0.5405
52247SOL     OW61297   0.111  11.295   5.263  0.1652  0.2360 -0.4693
52247SOL    HW161298   0.158  11.243   5.328  0.6326  0.0900 -0.9141
52247SOL    HW261299   0.054  11.352   5.314 -0.2006 -0.5651  0.0279
52248SOL     OW61300   2.336   6.067   3.832  0.1419 -0.4225  0.4380
52248SOL    HW161301   2.428   6.048   3.813 -0.0473 -0.1014 -0.8704
52248SOL    HW261302   2.319   6.021   3.914  0.7742 -2.6540 -0.6156
52249SOL     OW61303   7.300   1.140   4.457 -0.0005 -0.5885 -0.8799
52249SOL    HW161304   7.291   1.045   4.446 -2.3740 -0.8626  1.8912
52249SOL    HW261305   7.227   1.177   4.408  0.4233 -0.2730 -1.2732
52250SOL     OW61306   0.003   4.494   6.126 -0.7101  0.4741 -0.6410
52250SOL    HW161307  -0.026   4.585   6.125  1.7047  1.4044  1.7681
52250SOL    HW261308   0.098   4.499   6.116 -0.4966 -1.7721 -0.2656
52251SOL     OW61309   3.084   1.148   8.848 -0.3359  0.4420 -0.3037
52251SOL    HW161310   3.130   1.230   8.829 -0.0814  0.1689 -0.8863
52251SOL    HW261311   3.113   1.088   8.779 -1.4673  0.2191 -0.6002
52252SOL     OW61312   1.357   3.971   6.739  0.0934  0.1760 -0.3599
52252SOL    HW161313   1.337   4.064   6.727 -1.4180  0.2232  1.8041
52252SOL    HW261314   1.406   3.968   6.822  2.0694 -0.8005 -1.4851
52253SOL     OW61315   3.042   5.924   8.960 -0.6027 -0.3554 -0.1958
52253SOL    HW161316   3.028   6.006   8.914  0.5733 -0.2689 -0.4383
52253SOL    HW261317   3.030   5.946   9.052  1.2393  0.4925 -0.1073
52254SOL     OW61318   0.270  10.582   3.480 -0.2611 -0.3063 -0.1834
52254SOL    HW161319   0.219  10.658   3.450  1.1464  0.5701 -0.4077
52254SOL    HW261320   0.293  10.535   3.400  2.0709  1.1252 -0.4389
52255SOL     OW61321   2.054   5.362   8.107  0.2350  0.5059 -0.7734
52255SOL    HW161322   2.130   5.419   8.115 -0.5560  1.4543  0.3292
52255SOL    HW261323   2.067   5.296   8.176 -0.2951  1.1182 -0.0726
52256SOL     OW61324   8.727  11.638   1.085 -0.0079 -0.0880  0.6027
52256SOL    HW161325   8.680  11.563   1.048 -1.1227  1.0380 -0.3288
52256SOL    HW261326   8.670  11.669   1.155  0.1757  0.2493  0.6017
52257SOL     OW61327   1.655   6.057   4.620  0.2627 -0.5183 -0.1794
52257SOL    HW161328   1.725   6.002   4.656  1.1129  0.4916 -0.2502
52257SOL    HW261329   1.685   6.082   4.533 -0.0147  0.2109 -0.0790
52258SOL     OW61330   8.037  10.284  11.591  0.3972  0.6533 -0.0524
52258SOL    HW161331   8.047  10.251  11.501  1.6326 -0.9966  0.6382
52258SOL    HW261332   7.973  10.355  11.583 -2.9424 -2.2399 -1.5850
52259SOL     OW61333   8.332  11.270   6.281  0.5715  0.2181  0.3833
52259SOL    HW161334   8.398  11.337   6.266  1.0086  0.4991  3.0833
52259SOL    HW261335   8.271  11.309   6.343 -0.0391 -1.3339  0.8306
52260SOL     OW61336   8.738  11.574  10.461 -0.9541  0.0751 -0.3130
52260SOL    HW161337   8.827  11.608  10.453 -0.5407 -0.4578  1.4880
52260SOL    HW261338   8.724  11.565  10.555 -2.3214 -1.3841 -0.6030
52261SOL     OW61339   6.494   9.832   6.000 -0.2824  0.1981  0.4447
52261SOL    HW161340   6.499   9.878   6.084  1.1879  0.5007  0.2124
52261SOL    HW261341   6.500   9.739   6.023 -1.1666  0.2061  0.7542
52262SOL     OW61342   8.782   8.629   1.094 -0.4077  0.4259 -0.4746
52262SOL    HW161343   8.760   8.574   1.169  2.5041  2.2197  1.9336
52262SOL    HW261344   8.872   8.603   1.071 -0.8674  0.6519 -2.7314
52263SOL     OW61345   4.884  10.297   1.331  0.0321 -0.3057 -0.1285
52263SOL    HW161346   4.885  10.314   1.425 -1.5661 -0.0486 -0.1247
52263SOL    HW261347   4.887  10.384   1.291  1.4462 -0.4325 -0.3678
52264SOL     OW61348   2.029   8.386  10.313  0.3620  0.3308  0.1021
52264SOL    HW161349   2.074   8.319  10.364 -1.7266  0.2165  1.9280
52264SOL    HW261350   2.095   8.416  10.250  1.1988 -4.1134 -1.5758
52265SOL     OW61351   4.760   1.151   3.862  0.3378  0.1269  0.4515
52265SOL    HW161352   4.806   1.234   3.849  0.9706 -0.1835  0.6653
52265SOL    HW261353   4.788   1.122   3.949  0.0837 -0.2888  0.3959
52266SOL     OW61354   5.453   2.063   8.822 -0.5959  0.3050  0.5511
52266SOL    HW161355   5.439   2.043   8.729 -0.9661  0.4482  0.5731
52266SOL    HW261356   5.408   1.992   8.868  1.3239 -0.9380  0.6321
52267SOL     OW61357   0.556   8.174   9.718  0.0802  0.0552  0.2280
52267SOL    HW161358   0.578   8.111   9.649 -0.0267  0.3252 -0.0538
52267SOL    HW261359   0.513   8.122   9.785  0.8305 -0.3388  0.4172
52268SOL     OW61360  10.083   9.852   9.521  0.1833  0.2829 -0.2589
52268SOL    HW161361  10.123   9.765   9.528 -1.9190 -0.6878  0.5011
52268SOL    HW261362  10.101   9.894   9.605  0.7159  0.4022 -0.4228
52269SOL     OW61363   5.731   5.057   7.823  0.2799 -0.2006  0.1847
52269SOL    HW161364   5.727   4.962   7.810  0.5039 -0.5716  2.3430
52269SOL    HW261365   5.650   5.090   7.785 -0.6719 -1.5144  0.9846
52270SOL     OW61366   4.324   4.614   2.251  0.0013 -0.2203 -0.0051
52270SOL    HW161367   4.361   4.581   2.169  0.0821 -2.1638  0.7508
52270SOL    HW261368   4.230   4.615   2.236  0.0232 -0.4835 -0.1690
52271SOL     OW61369  10.115   2.905   8.247 -0.2314 -0.5064 -0.1624
52271SOL    HW161370  10.106   2.890   8.153 -1.7064  0.8978 -0.2961
52271SOL    HW261371  10.134   2.999   8.255  0.4051 -0.7040  0.9326
52272SOL     OW61372   8.702   9.501   7.784  0.9561  0.1047 -0.2328
52272SOL    HW161373   8.626   9.558   7.773 -0.5346 -1.7023  0.0924
52272SOL    HW261374   8.732   9.483   7.694  0.6113  0.3459 -0.3964
52273SOL     OW61375  11.216   0.388   3.717 -0.3516  1.0683  0.5812
52273SOL    HW161376  11.284   0.322   3.708 -0.7267  0.5687  1.2669
52273SOL    HW261377  11.242   0.458   3.658  0.2366  0.4573  0.0991
52274SOL     OW61378   9.845   0.312   5.265 -0.0975 -0.2636 -0.1627
52274SOL    HW161379   9.815   0.364   5.190  2.9491  0.3324 -1.1111
52274SOL    HW261380   9.809   0.358   5.341 -0.9664  0.7670 -1.1505
52275SOL     OW61381   6.363   3.189   0.080  0.4538 -0.5490 -0.2165
52275SOL    HW161382   6.394   3.246   0.010  0.0452 -0.2765 -0.1752
52275SOL    HW261383   6.438   3.182   0.140 -0.2799  2.1601  1.2039
52276SOL     OW61384   4.948  11.960  11.760  0.3443 -0.9768 -0.2116
52276SOL    HW161385   5.028  11.923  11.723 -0.0305 -2.0096 -0.0158
52276SOL    HW261386   4.977  12.009  11.836  0.7162 -2.0371  0.3459
52277SOL     OW61387  11.396   6.329   1.000  0.3285  0.5058  0.1343
52277SOL    HW161388  11.414   6.238   1.020 -0.4999  0.2021 -0.4737
52277SOL    HW261389  11.427   6.341   0.910 -1.0347  0.3757 -0.3759
52278SOL     OW61390   4.177   9.989   6.816  0.1603 -0.9205  0.5590
52278SOL    HW161391   4.156   9.900   6.789 -0.3696 -0.3768 -0.8938
52278SOL    HW261392   4.225  10.026   6.743  0.0879  0.0949  1.0065
52279SOL     OW61393   5.826   4.321   3.107 -0.1122 -0.3050  0.3234
52279SOL    HW161394   5.895   4.353   3.048  1.3049 -0.6376  1.7139
52279SOL    HW261395   5.745   4.329   3.057  1.0976 -1.2849 -1.9455
52280SOL     OW61396   5.805   3.617   9.728  0.2118  0.2594  0.4325
52280SOL    HW161397   5.801   3.540   9.784  0.5541 -0.2499 -0.2391
52280SOL    HW261398   5.857   3.590   9.652 -0.6233  0.8017 -0.3544
52281SOL     OW61399  10.694   5.089   8.882 -0.1572  0.3268  0.3300
52281SOL    HW161400  10.613   5.044   8.906  0.0637  0.9369  2.4749
52281SOL    HW261401  10.665   5.173   8.845 -0.5490  0.7761  1.5865
52282SOL     OW61402   2.353   8.443   6.805  0.6841  0.1107 -0.3359
52282SOL    HW161403   2.352   8.427   6.710  3.1898  2.0276 -0.8148
52282SOL    HW261404   2.262   8.460   6.828  0.0163 -0.3400 -2.4298
52283SOL     OW61405   8.232   8.836  11.290  0.2967  0.1316  0.6818
52283SOL    HW161406   8.271   8.758  11.251  2.1396  0.8256  1.0390
52283SOL    HW261407   8.307   8.891  11.314 -0.7687  0.3483  3.9700
52284SOL     OW61408   7.900   3.254   2.288 -0.1579  0.0398 -0.4543
52284SOL    HW161409   7.846   3.332   2.299  0.3785  0.8128 -2.8045
52284SOL    HW261410   7.876   3.220   2.202  2.6769  0.1228 -1.3566
52285SOL     OW61411   7.207   3.309   8.299  0.0118  0.4514  0.5787
52285SOL    HW161412   7.256   3.237   8.339  0.8248  0.3628 -0.5288
52285SOL    HW261413   7.117   3.295   8.327 -0.7488 -3.4668 -2.8434
52286SOL     OW61414   2.234   3.577   6.402  0.0527  0.0983  0.2122
52286SOL    HW161415   2.273   3.628   6.331 -0.4912 -0.5556 -0.5745
52286SOL    HW261416   2.154   3.541   6.364  0.8736 -2.0983  0.4288
52287SOL     OW61417   3.211   2.280   2.586  0.1021  0.5007 -0.2248
52287SOL    HW161418   3.216   2.238   2.672 -0.6713  1.7177  0.4479
52287SOL    HW261419   3.212   2.374   2.605 -0.9251  0.7969 -1.4747
52288SOL     OW61420  10.841  11.205   2.044 -0.3723 -0.0617  0.0972
52288SOL    HW161421  10.935  11.217   2.028 -0.6825  0.9132 -1.1402
52288SOL    HW261422  10.828  11.231   2.135  0.7507 -1.4320  0.6809
52289SOL     OW61423   8.921   4.656   7.956  0.0558  0.9098 -0.6842
52289SOL    HW161424   8.921   4.582   7.895 -0.2061  0.9010 -0.6720
52289SOL    HW261425   8.832   4.659   7.990  0.2157  0.8883 -0.2684
52290SOL     OW61426   0.126   1.678   1.655  0.3287 -0.1133 -0.0819
52290SOL    HW161427   0.042   1.685   1.608  0.0668 -2.1034  0.0361
52290SOL    HW261428   0.186   1.732   1.603 -0.7035  0.2959 -0.8960
52291SOL     OW61429   9.676   4.191   5.422 -0.1379  0.5348 -0.1015
52291SOL    HW161430   9.591   4.164   5.458  0.1199  0.7330  0.6636
52291SOL    HW261431   9.740   4.141   5.472  0.1820 -0.1506 -1.1537
52292SOL     OW61432   8.157   4.950   1.780 -0.0736  0.2129 -0.5887
52292SOL    HW161433   8.132   4.953   1.872  0.9180 -0.0530 -0.3001
52292SOL    HW261434   8.077   4.921   1.735 -0.3028 -0.5934  0.2923
52293SOL     OW61435   0.487   6.197   0.715  0.2240  0.6607 -0.4813
52293SOL    HW161436   0.474   6.218   0.623 -0.8965  0.4868 -0.3856
52293SOL    HW261437   0.424   6.126   0.732 -0.3372  1.3889  0.6583
52294SOL     OW61438   0.529   4.231   7.830  0.1940 -0.0183  0.0570
52294SOL    HW161439   0.569   4.182   7.902 -2.0730 -1.5606  0.3838
52294SOL    HW261440   0.563   4.189   7.751  1.4910  0.6640  0.2308
52295SOL     OW61441   2.299   9.982   9.221 -0.4126 -0.1202 -0.4701
52295SOL    HW161442   2.348   9.913   9.265 -2.0249 -0.6760  0.5559
52295SOL    HW261443   2.336  10.063   9.256 -1.4165 -0.5437  1.7666
52296SOL     OW61444   5.038   1.984   6.485  0.1564 -0.1116  0.0666
52296SOL    HW161445   5.078   1.928   6.552  0.4746 -1.5165 -1.2328
52296SOL    HW261446   4.967   1.931   6.449 -0.8628  1.1423  0.1953
52297SOL     OW61447   3.214   0.886   8.794 -0.3004 -0.7590 -0.1117
52297SOL    HW161448   3.150   0.855   8.858  0.1422  0.2973  0.8721
52297SOL    HW261449   3.296   0.843   8.820  0.1149  0.4767  0.7068
52298SOL     OW61450   1.542   8.386   3.879 -0.4266  0.6259 -0.1155
52298SOL    HW161451   1.604   8.367   3.948 -1.0799 -0.4974  0.1874
52298SOL    HW261452   1.596   8.403   3.802  0.2632  0.2287  0.2710
52299SOL     OW61453  10.499   3.077   2.140 -0.0660 -0.0108 -0.0906
52299SOL    HW161454  10.498   3.167   2.175  1.3209 -0.0514  0.0935
52299SOL    HW261455  10.560   3.030   2.197 -1.3815 -1.3047  0.3213
52300SOL     OW61456   6.174   2.908   2.377  0.5218  0.1848 -0.4501
52300SOL    HW161457   6.261   2.946   2.386  1.1233 -1.3572  0.6848
52300SOL    HW261458   6.141   2.903   2.467 -0.8196  0.8944 -0.8812
52301SOL     OW61459   0.822   7.344  11.724 -0.6558  0.3202  0.3808
52301SOL    HW161460   0.844   7.251  11.716 -0.8982  0.3100 -0.2356
52301SOL    HW261461   0.780   7.351  11.810  0.5081  0.1003  0.9972
52302SOL     OW61462   9.080   9.914   0.393 -0.0791 -0.5687  0.0384
52302SOL    HW161463   9.070   9.984   0.457  0.9798 -0.1434 -0.2457
52302SOL    HW261464   9.039   9.947   0.314  0.4266 -0.2525 -0.0979
52303SOL     OW61465   0.989   3.212   0.450 -0.7499  0.3601 -0.4333
52303SOL    HW161466   0.959   3.245   0.366 -1.5686 -1.5465 -0.9339
52303SOL    HW261467   0.912   3.216   0.507 -0.9848 -1.0108 -0.6249
52304SOL     OW61468  10.368   7.800   4.327 -0.3448  0.2706  0.2104
52304SOL    HW161469  10.315   7.863   4.375 -2.1793 -1.2962  0.3933
52304SOL    HW261470  10.320   7.717   4.336  1.9015 -1.1467 -0.0827
52305SOL     OW61471   4.399  11.043   4.945  0.7362 -0.0876 -0.8336
52305SOL    HW161472   4.384  11.068   4.854 -1.8964 -1.6646 -0.9315
52305SOL    HW261473   4.408  10.948   4.943  1.0332 -0.1142  0.5238
52306SOL     OW61474   7.424   0.767   8.751 -0.7722 -0.0304 -0.1241
52306SOL    HW161475   7.333   0.757   8.722  0.0346 -0.0636 -2.9664
52306SOL    HW261476   7.419   0.829   8.824 -3.0062  0.4611 -0.6059
52307SOL     OW61477   9.938   1.721   4.360 -0.6069 -0.0277  0.1156
52307SOL    HW161478   9.976   1.682   4.439  0.3880  2.0232  0.7368
52307SOL    HW261479   9.845   1.730   4.381 -0.1267  1.9488  1.8228
52308SOL     OW61480   1.757   7.620  10.470  0.4184 -0.2729 -0.3945
52308SOL    HW161481   1.667   7.640  10.494 -0.1011  0.0860 -2.4996
52308SOL    HW261482   1.808   7.646  10.547 -1.2195 -0.2831  0.7603
52309SOL     OW61483   4.440   9.074   2.559  0.1615 -0.7666  0.0021
52309SOL    HW161484   4.344   9.080   2.560 -0.0451 -1.9962 -2.7409
52309SOL    HW261485   4.469   9.158   2.525  0.0760 -0.3944  0.8304
52310SOL     OW61486   9.168   5.706   8.244 -0.4466 -0.3777  0.1397
52310SOL    HW161487   9.119   5.667   8.316  0.2167  0.1738  0.9125
52310SOL    HW261488   9.109   5.770   8.206 -0.7267 -0.5215  0.3312
52311SOL     OW61489   2.833   2.345   6.118 -0.5394 -0.0076  0.0996
52311SOL    HW161490   2.836   2.250   6.111 -0.4516 -0.0011  0.0523
52311SOL    HW261491   2.741   2.367   6.102 -0.3571  0.0049 -0.9628
52312SOL     OW61492   8.822  11.869  10.243 -0.5000  0.3943  0.3781
52312SOL    HW161493   8.799  11.781  10.213 -0.5703 -0.3247  2.4178
52312SOL    HW261494   8.755  11.891  10.307 -1.2392  2.5252 -1.0151
52313SOL     OW61495   4.051  11.366   3.510  0.3001  0.0304 -0.4222
52313SOL    HW161496   4.092  11.339   3.428  0.6897  0.1996 -0.2825
52313SOL    HW261497   4.097  11.316   3.578  1.3403  1.3448 -0.1104
52314SOL     OW61498  11.265  11.089   5.470  0.4237  0.5232  0.4301
52314SOL    HW161499  11.312  11.172   5.466  0.3029  0.5677 -0.1405
52314SOL    HW261500  11.184  11.109   5.517  0.4288  0.7131  0.3570
52315SOL     OW61501   1.819   0.424   5.302  0.0436 -0.5158 -0.0848
52315SOL    HW161502   1.748   0.364   5.324 -0.1748  0.2579  1.4499
52315SOL    HW261503   1.775   0.508   5.287  0.6315  0.0288  1.1281
52316SOL     OW61504   0.578   7.295   8.244  0.4209 -0.3485  0.4092
52316SOL    HW161505   0.620   7.221   8.289  2.2934 -0.2052 -0.9779
52316SOL    HW261506   0.515   7.254   8.185  1.4934 -0.8710 -0.3985
52317SOL     OW61507   8.231  11.306   5.542 -0.4964  0.2980 -0.4773
52317SOL    HW161508   8.153  11.275   5.496 -0.8926  0.5601  0.0094
52317SOL    HW261509   8.224  11.268   5.629  0.6980 -0.9185 -0.8751
52318SOL     OW61510   4.606  11.140   7.373 -0.1635  0.4711  0.0558
52318SOL    HW161511   4.607  11.236   7.378 -0.2783  0.4620  0.2905
52318SOL    HW261512   4.535  11.119   7.312 -1.3945  0.4887  1.4243
52319SOL     OW61513   9.696   2.780   2.907  0.2144 -0.2599 -0.2453
52319SOL    HW161514   9.647   2.739   2.979  1.2993 -1.8824 -0.3684
52319SOL    HW261515   9.747   2.708   2.869  1.8452  1.1293 -0.8138
52320SOL     OW61516   2.060   1.610  10.861  0.5346  0.6536  0.2208
52320SOL    HW161517   2.029   1.682  10.916 -0.2728  0.3370  0.2006
52320SOL    HW261518   2.126   1.649  10.804 -1.3787  1.9096 -1.2722
52321SOL     OW61519   4.613  10.677   8.666  0.7067 -0.3121  0.0565
52321SOL    HW161520   4.524  10.654   8.637  0.7883  0.5628 -0.9555
52321SOL    HW261521   4.619  10.642   8.755 -1.4215  1.4379  0.9986
52322SOL     OW61522   5.642   8.953   8.613  0.8493  0.1048  0.4338
52322SOL    HW161523   5.691   9.002   8.680  1.2371  1.2366 -0.6361
52322SOL    HW261524   5.703   8.886   8.583  0.6235 -0.5034  1.2904
52323SOL     OW61525   9.124   9.262   2.502  0.1672 -0.3007  0.2244
52323SOL    HW161526   9.075   9.223   2.575  1.3873 -0.0419  1.2177
52323SOL    HW261527   9.197   9.201   2.487  0.7803  0.4193  0.2383
52324SOL     OW61528   7.173   2.548  10.632  0.5114 -0.2231 -0.3509
52324SOL    HW161529   7.237   2.602  10.585  0.8913 -0.7837 -0.4765
52324SOL    HW261530   7.164   2.469  10.580 -1.0638  0.2602 -0.8842
52325SOL     OW61531   6.266   9.402   2.984 -0.3781  0.0368  0.0377
52325SOL    HW161532   6.355   9.423   2.954  0.0379  0.0390  1.1873
52325SOL    HW261533   6.269   9.308   3.005 -1.2424 -0.4398 -1.8119
52326SOL     OW61534  10.311   2.593   4.410 -0.4273 -0.2256  0.2491
52326SOL    HW161535  10.262   2.631   4.337 -1.4731 -0.5890  0.7406
52326SOL    HW261536  10.387   2.649   4.420  0.0916 -0.5492 -1.5540
52327SOL     OW61537   1.797   2.263  11.879  0.2348 -0.1446  0.2237
52327SOL    HW161538   1.825   2.204  11.809  0.8961 -0.8293  1.0401
52327SOL    HW261539   1.778   2.346  11.835  0.9454 -0.4649 -0.7203
52328SOL     OW61540   5.015  10.296   4.438 -0.3869  0.3770  0.1399
52328SOL    HW161541   5.092  10.323   4.388  0.4121  0.1197  1.1896
52328SOL    HW261542   4.968  10.377   4.457  0.2009  0.6550  0.4092
52329SOL     OW61543   7.735   4.021   4.866  0.4076 -0.2946  0.5854
52329SOL    HW161544   7.707   3.962   4.796  0.1983 -0.6426  0.9615
52329SOL    HW261545   7.800   4.078   4.825 -0.9228  0.6048 -0.3472
52330SOL     OW61546   4.193   7.303   2.313  0.2168 -0.5568 -0.2788
52330SOL    HW161547   4.225   7.375   2.259  0.3075 -0.0369  0.4563
52330SOL    HW261548   4.251   7.302   2.389 -0.4621 -0.6853  0.2532
52331SOL     OW61549   8.166   7.281  11.044  0.6292  0.5703  0.5056
52331SOL    HW161550   8.194   7.195  11.074 -0.6898 -0.7399 -1.7306
52331SOL    HW261551   8.226   7.301  10.971  0.5903  1.3320  0.6674
52332SOL     OW61552   0.373  10.495   8.411 -0.0379 -0.2420  0.0117
52332SOL    HW161553   0.307  10.471   8.346  0.3190  1.1655 -0.9000
52332SOL    HW261554   0.442  10.430   8.401  0.5499  0.6106 -1.8554
52333SOL     OW61555   9.303  11.872   3.898 -0.6171 -0.4977  0.1868
52333SOL    HW161556   9.229  11.919   3.936  0.2961  2.5735 -1.5039
52333SOL    HW261557   9.272  11.843   3.812 -0.1268  0.0154 -0.1656
52334SOL     OW61558   6.480  10.381   2.831  0.2711  0.3445 -0.2691
52334SOL    HW161559   6.556  10.398   2.775  0.3999  0.8540  0.0541
52334SOL    HW261560   6.448  10.468   2.855  0.0434  0.1296  0.2132
52335SOL     OW61561  10.685   9.704   1.377  0.2269  0.1347 -0.4723
52335SOL    HW161562  10.674   9.794   1.408  0.2851 -0.0735  0.1713
52335SOL    HW261563  10.603   9.684   1.331 -1.2390 -0.5982  2.2296
52336SOL     OW61564   4.306   8.346   9.943  0.8652  0.6356  0.4577
52336SOL    HW161565   4.252   8.302  10.009  0.7764 -0.6251 -0.4143
52336SOL    HW261566   4.384   8.374   9.990  0.8874 -0.4112  1.0668
52337SOL     OW61567   1.274   3.582   2.519  0.4005  0.1470  0.1920
52337SOL    HW161568   1.357   3.609   2.557 -0.5418  2.1909  0.9273
52337SOL    HW261569   1.210   3.595   2.589 -0.7919  0.3279 -0.8944
52338SOL     OW61570   3.765   2.462   1.173  0.0333 -0.5153 -0.2117
52338SOL    HW161571   3.822   2.395   1.211 -1.6526 -1.6479  0.4242
52338SOL    HW261572   3.772   2.448   1.079  0.8518 -0.5834 -0.1493
52339SOL     OW61573   4.991   8.447   5.824 -0.5971 -0.0949  0.3727
52339SOL    HW161574   5.033   8.470   5.741  1.5171  0.4926  1.5277
52339SOL    HW261575   5.064   8.418   5.879 -1.9357 -0.3074  2.0778
52340SOL     OW61576  10.423   2.008   8.455 -0.6484 -0.0745 -0.3186
52340SOL    HW161577  10.395   1.957   8.379 -2.4332 -1.4531  1.1791
52340SOL    HW261578  10.368   2.086   8.454 -0.3338  0.1488 -0.6785
52341SOL     OW61579   5.518  10.339   3.123 -0.4758 -0.0790 -0.6167
52341SOL    HW161580   5.457  10.288   3.175 -1.1202  2.0359  0.8169
52341SOL    HW261581   5.464  10.406   3.080  0.3987 -0.2147 -1.9925
52342SOL     OW61582  10.963  10.971   5.207  0.1630 -0.3653  0.5389
52342SOL    HW161583  10.926  10.904   5.150  0.0966 -1.3637  1.7227
52342SOL    HW261584  11.038  11.005   5.157  0.7461 -1.9426  0.2670
52343SOL     OW61585   9.627   0.550   5.938  0.4883 -0.1915 -1.0056
52343SOL    HW161586   9.546   0.505   5.964  1.4480 -1.1735  0.4871
52343SOL    HW261587   9.685   0.479   5.910  1.5072  0.2560 -0.1006
52344SOL     OW61588   1.609  11.808  10.883  0.0477 -0.0542  0.1144
52344SOL    HW161589   1.563  11.862  10.947 -0.7310  1.0288 -1.2961
52344SOL    HW261590   1.597  11.854  10.800  3.6303  0.2642 -0.3662
52345SOL     OW61591   9.977   4.373   9.418  0.1505  0.7825  0.3194
52345SOL    HW161592   9.983   4.358   9.323 -0.5354  1.6668  0.1191
52345SOL    HW261593  10.066   4.397   9.444  0.2960  0.7712 -0.1517
52346SOL     OW61594  12.003   4.129   8.398 -0.2821  0.1634  0.3049
52346SOL    HW161595  11.993   4.065   8.469  2.3454 -0.5056  0.1797
52346SOL    HW261596  11.945   4.098   8.329  0.3612 -1.7087  0.5449
52347SOL     OW61597   9.761   6.143  11.253  0.0264  0.0514 -0.3233
52347SOL    HW161598   9.843   6.132  11.302  0.0377  0.5815 -0.2206
52347SOL    HW261599   9.696   6.166  11.320  0.0785  0.9582 -0.5825
52348SOL     OW61600   9.159   4.726   3.968 -0.2373 -0.2691 -0.0833
52348SOL    HW161601   9.205   4.809   3.982 -0.6403  0.0964 -0.8743
52348SOL    HW261602   9.208   4.682   3.899  1.3069 -1.7360  1.8407
52349SOL     OW61603   7.474   6.223  10.984  0.6660 -0.1885  0.0783
52349SOL    HW161604   7.449   6.264  10.901 -0.4034  0.6748  0.7874
52349SOL    HW261605   7.397   6.172  11.010  1.4338 -1.4326 -0.0379
52350SOL     OW61606  11.731   7.880   8.793 -0.1160 -0.0471  0.1995
52350SOL    HW161607  11.807   7.822   8.802  0.0930  0.1761 -0.1123
52350SOL    HW261608  11.657   7.826   8.821  0.5679  0.9759  4.8235
52351SOL     OW61609   1.880  11.723   7.090 -0.0273 -0.6557 -0.1155
52351SOL    HW161610   1.796  11.718   7.044 -0.2353 -0.4685  0.2432
52351SOL    HW261611   1.945  11.708   7.021 -0.3365 -0.4068 -0.4670
52352SOL     OW61612   5.442  11.842   8.588 -0.1030 -0.2501  0.8060
52352SOL    HW161613   5.485  11.760   8.560  0.6441 -0.0056  1.2031
52352SOL    HW261614   5.451  11.842   8.683 -0.9273 -0.1513  0.8850
52353SOL     OW61615   4.209   2.524   8.190  0.2697 -0.5330 -0.2971
52353SOL    HW161616   4.297   2.531   8.227  0.0049 -2.4143  0.7916
52353SOL    HW261617   4.224   2.511   8.096  1.0317  1.5313 -0.5087
52354SOL     OW61618   3.224   6.803   5.017 -0.2927 -0.1650  0.1329
52354SOL    HW161619   3.132   6.797   5.042 -0.2614  0.4585  0.3939
52354SOL    HW261620   3.272   6.760   5.088 -0.3453 -0.1067  0.2026
52355SOL     OW61621  11.153  10.697   6.182  0.1388  0.3726  0.1159
52355SOL    HW161622  11.060  10.678   6.180  0.2011  0.1066 -0.8813
52355SOL    HW261623  11.182  10.668   6.268 -0.4905 -0.5632  0.0176
52356SOL     OW61624   6.782  10.221   3.878 -0.2274 -0.0969 -0.1910
52356SOL    HW161625   6.788  10.314   3.855 -0.0947 -0.2548 -0.8088
52356SOL    HW261626   6.735  10.181   3.806  0.9996 -0.7620 -0.6612
52357SOL     OW61627  10.259   1.199   9.705  0.4461  0.5213  0.2632
52357SOL    HW161628  10.198   1.265   9.672  0.1310 -0.2997 -0.8551
52357SOL    HW261629  10.296   1.160   9.626  1.3046 -0.0167  0.9258
52358SOL     OW61630   0.827   2.967   5.030  0.0377 -0.5966 -0.0234
52358SOL    HW161631   0.759   3.027   5.063 -1.4382 -0.4107 -3.0494
52358SOL    HW261632   0.909   3.015   5.041 -0.9049  1.2855 -0.6685
52359SOL     OW61633   7.118   5.702   7.736  0.3066 -0.0943  0.6546
52359SOL    HW161634   7.080   5.757   7.668  0.4356 -0.7556  0.0221
52359SOL    HW261635   7.074   5.617   7.726  0.5051 -0.2755  1.2382
52360SOL     OW61636   4.374   9.134  10.215 -0.5179 -0.1054 -0.7338
52360SOL    HW161637   4.293   9.154  10.168 -0.2559 -2.1485 -2.1950
52360SOL    HW261638   4.416   9.219  10.227 -1.7711  0.7489 -2.0622
52361SOL     OW61639   0.315   4.569   7.384 -0.0134  0.3290  0.1486
52361SOL    HW161640   0.233   4.539   7.344 -0.3093  0.6837  0.4783
52361SOL    HW261641   0.378   4.570   7.312 -0.1771 -0.3939 -0.0081
52362SOL     OW61642   5.427   0.470   6.787 -0.0286 -0.1951  0.1659
52362SOL    HW161643   5.510   0.487   6.743  0.4409 -0.0751  1.0826
52362SOL    HW261644   5.371   0.545   6.763 -0.2964 -0.8665 -1.4213
52363SOL     OW61645  10.612   8.813   1.095  0.0962  0.3077 -0.1053
52363SOL    HW161646  10.517   8.807   1.103  0.1633  0.1118  0.6151
52363SOL    HW261647  10.638   8.735   1.047 -0.1973  0.8614 -1.2000
52364SOL     OW61648   5.294   4.402   5.330  0.2527  0.0672  0.4292
52364SOL    HW161649   5.228   4.342   5.294  0.1031  0.3960  0.1432
52364SOL    HW261650   5.334   4.354   5.402 -2.8217  1.1204  3.0715
52365SOL     OW61651   7.964   2.761   5.307 -0.5309  0.3387  0.2112
52365SOL    HW161652   8.005   2.799   5.229 -1.2354 -0.8314 -0.7746
52365SOL    HW261653   7.997   2.671   5.311 -1.7611 -0.1377  0.2870
52366SOL     OW61654   2.662   3.498  11.404 -0.2944 -0.3317 -0.1519
52366SOL    HW161655   2.722   3.492  11.478 -0.9273 -0.3482  0.3674
52366SOL    HW261656   2.583   3.454  11.434 -0.7598  0.1682 -0.6350
52367SOL     OW61657   1.716   8.424   0.139  0.2556  0.3079 -0.6053
52367SOL    HW161658   1.748   8.358   0.201 -1.1060 -0.9148 -1.1212
52367SOL    HW261659   1.793   8.476   0.116  1.0219  0.0275  1.1761
52368SOL     OW61660   6.132   1.679   4.977 -0.5616  0.0590 -0.0545
52368SOL    HW161661   6.227   1.667   4.982 -0.3145  1.7885 -0.2076
52368SOL    HW261662   6.111   1.739   5.048 -1.5565 -0.3262 -0.0088
52369SOL     OW61663   8.221   0.701   7.885 -0.2622  0.8045  0.0631
52369SOL    HW161664   8.304   0.709   7.837 -0.2624  1.0105  0.0990
52369SOL    HW261665   8.155   0.695   7.816 -0.0302 -1.6891 -0.0388
52370SOL     OW61666   6.833   5.765   5.325 -0.4945 -0.1159 -0.2103
52370SOL    HW161667   6.882   5.830   5.375 -1.0278  1.8969 -2.1029
52370SOL    HW261668   6.883   5.755   5.244 -0.9072 -1.4065 -0.3236
52371SOL     OW61669   8.744  11.069   9.881  0.3950 -0.4259  0.1112
52371SOL    HW161670   8.822  11.043   9.930  0.9565 -1.5337 -1.2815
52371SOL    HW261671   8.747  11.015   9.803 -0.6231  1.0669 -1.0088
52372SOL     OW61672   5.473   3.348   8.122 -0.0607  0.6749 -0.1410
52372SOL    HW161673   5.422   3.268   8.133  0.7628 -0.0124 -1.0278
52372SOL    HW261674   5.472   3.390   8.207 -0.5602 -0.2604  0.3276
52373SOL     OW61675   3.505   4.026   2.027  0.0173 -0.6151 -0.3082
52373SOL    HW161676   3.561   4.104   2.029 -1.5302  0.5479  0.4259
52373SOL    HW261677   3.552   3.961   2.080  0.5487  0.4243  0.5450
52374SOL     OW61678  11.968   7.346   0.924  0.4239  0.6537  0.0205
52374SOL    HW161679  12.051   7.298   0.928  0.8917  1.3393 -0.9647
52374SOL    HW261680  11.972   7.393   0.841 -0.2645  1.9456  0.6873
52375SOL     OW61681   2.037   0.673   9.723  0.0832  0.1812 -0.3950
52375SOL    HW161682   2.011   0.760   9.756 -1.4076 -0.8802  1.4295
52375SOL    HW261683   1.959   0.640   9.679  0.1460 -0.8048  0.1996
52376SOL     OW61684   5.422   8.175   2.864  0.3680 -0.3400 -0.0047
52376SOL    HW161685   5.419   8.204   2.955  0.7677 -0.3176  0.0049
52376SOL    HW261686   5.454   8.085   2.869 -0.9750 -0.8336 -0.0253
52377SOL     OW61687   3.270   3.346   0.386 -0.1649  0.0220  0.0535
52377SOL    HW161688   3.352   3.378   0.424 -0.6240  1.3156  0.0184
52377SOL    HW261689   3.296   3.274   0.329  1.1731  1.4780 -1.2729
52378SOL     OW61690   5.690  11.981   3.705 -0.1878 -0.0173  0.3721
52378SOL    HW161691   5.734  11.958   3.787 -0.0018  1.1372  0.6171
52378SOL    HW261692   5.699  11.903   3.650  0.4371 -0.4994  1.1400
52379SOL     OW61693   2.863  11.855  11.369  0.3188 -0.4262 -0.1582
52379SOL    HW161694   2.886  11.827  11.458  0.3296  1.2606  0.4053
52379SOL    HW261695   2.932  11.819  11.314  0.5027 -1.2087  0.5626
52380SOL     OW61696  10.569   3.645   7.734  0.5601  0.2360 -0.7167
52380SOL    HW161697  10.605   3.722   7.689  1.1098 -0.0192 -0.7139
52380SOL    HW261698  10.616   3.571   7.698 -1.9997 -0.4748 -2.9432
52381SOL     OW61699   6.869   0.738   2.969 -0.0249 -0.1827 -0.3151
52381SOL    HW161700   6.960   0.747   2.944 -0.1022 -1.4225 -1.0906
52381SOL    HW261701   6.819   0.760   2.890 -0.2929 -2.7513 -0.9535
52382SOL     OW61702   4.718   8.794   3.284  0.0792  0.0564  0.7388
52382SOL    HW161703   4.728   8.878   3.329  0.7229  0.3434  0.0737
52382SOL    HW261704   4.731   8.729   3.353 -0.4981  0.4916  1.2727
52383SOL     OW61705   0.048   9.948   0.001  0.3471 -0.1473 -0.7191
52383SOL    HW161706   0.129   9.897  -0.007  0.0443 -0.6816 -0.4195
52383SOL    HW261707   0.066  10.028  -0.048  1.7775  0.6250  0.9367
52384SOL     OW61708  11.562   7.627   1.700  0.0169  0.6153  0.4816
52384SOL    HW161709  11.491   7.574   1.736  0.6614 -0.9683 -0.4841
52384SOL    HW261710  11.520   7.708   1.672 -1.5288 -0.4930 -0.5504
52385SOL     OW61711  11.301   6.081   6.458  0.1141 -0.8023 -0.0940
52385SOL    HW161712  11.206   6.079   6.471  0.0479 -3.6298 -0.3903
52385SOL    HW261713  11.315   6.045   6.370  1.4729 -1.4178  0.3355
52386SOL     OW61714  11.534   5.579  11.961  0.6266 -0.0209 -0.2158
52386SOL    HW161715  11.576   5.632  12.029 -1.8687 -0.4520  1.8325
52386SOL    HW261716  11.519   5.640  11.889 -0.5955  1.7227  1.3850
52387SOL     OW61717   7.100   9.656  10.137  0.0888 -0.3005  0.1875
52387SOL    HW161718   7.135   9.663  10.048  0.5336  1.0100  0.4511
52387SOL    HW261719   7.176   9.638  10.191  0.1944  1.2072  0.5851
52388SOL     OW61720  10.740   4.639   9.678 -0.3463  0.2887 -0.0785
52388SOL    HW161721  10.684   4.689   9.619  0.1260  1.3245  0.3358
52388SOL    HW261722  10.815   4.696   9.695  1.6281 -1.6201 -1.7911
52389SOL     OW61723  10.628   9.531   4.926  0.4253  0.6709 -0.4642
52389SOL    HW161724  10.666   9.461   4.873  0.2639  1.2002 -1.2997
52389SOL    HW261725  10.540   9.499   4.947  0.1463  0.8555 -1.3201
52390SOL     OW61726   8.993  11.622   2.991 -0.1915  0.3962 -0.0713
52390SOL    HW161727   8.961  11.558   2.928 -0.6497  0.0122  0.5409
52390SOL    HW261728   9.089  11.616   2.984 -0.2328 -0.1512 -0.2171
52391SOL     OW61729   8.371   1.953  11.824  0.3055 -0.3886  0.4977
52391SOL    HW161730   8.448   1.904  11.794 -0.9545 -1.1136 -1.7791
52391SOL    HW261731   8.304   1.886  11.840 -0.4592  0.3588  0.5187
52392SOL     OW61732   8.014   7.465   0.877  0.6874 -0.3408 -0.0744
52392SOL    HW161733   7.956   7.499   0.810 -0.7561 -0.3530  1.1163
52392SOL    HW261734   8.067   7.540   0.904  1.7745 -0.4982 -1.6735
52393SOL     OW61735   1.458  10.142   5.219  0.6281 -0.0602  0.0693
52393SOL    HW161736   1.466  10.133   5.124  2.2255  0.8747  0.0725
52393SOL    HW261737   1.455  10.236   5.235  0.6030 -0.1983  0.9608
52394SOL     OW61738   6.983   2.597   0.778  0.1386 -0.1194  0.4638
52394SOL    HW161739   7.059   2.650   0.800 -0.1844  1.2645 -1.5400
52394SOL    HW261740   6.908   2.649   0.806 -0.1434 -1.0905  1.6261
52395SOL     OW61741   3.174   0.617  11.957  0.3748  0.0812 -0.2600
52395SOL    HW161742   3.151   0.594  11.867  0.5078 -1.3270  0.0343
52395SOL    HW261743   3.203   0.708  11.953 -0.9610  0.4813 -1.3937
52396SOL     OW61744   6.248   5.805   2.103  0.1122  0.5928 -0.0903
52396SOL    HW161745   6.220   5.857   2.028 -0.2735 -1.0139 -1.1270
52396SOL    HW261746   6.169   5.797   2.157  0.0573  0.7202 -0.1518
52397SOL     OW61747   5.184  10.212  10.805  0.3241 -0.2676  0.2583
52397SOL    HW161748   5.205  10.269  10.879 -1.8348  1.5686 -0.4296
52397SOL    HW261749   5.139  10.137  10.845  1.2049 -0.4179  0.9925
52398SOL     OW61750   7.391   9.367   8.467  0.2305 -0.4428  0.1929
52398SOL    HW161751   7.348   9.291   8.505 -1.7481  0.0281 -0.9279
52398SOL    HW261752   7.449   9.331   8.400 -0.3879 -0.9984 -0.0560
52399SOL     OW61753   5.256   8.815   1.187  0.3437  0.2984  0.1891
52399SOL    HW161754   5.201   8.822   1.109  0.4396  0.6948  0.1545
52399SOL    HW261755   5.321   8.749   1.164 -0.1501 -0.2077  0.2511
52400SOL     OW61756   4.428   0.193   4.272 -0.5274 -0.2907 -0.1521
52400SOL    HW161757   4.499   0.249   4.240 -0.0985 -0.7599 -0.0270
52400SOL    HW261758   4.409   0.134   4.198 -0.6017 -0.3491 -0.0871
52401SOL     OW61759  12.054   4.146   0.351 -0.2598 -0.4312 -0.1633
52401SOL    HW161760  12.095   4.071   0.309  2.5799  1.2565 -0.7189
52401SOL    HW261761  12.071   4.133   0.445  0.3497 -0.4557 -0.2709
52402SOL     OW61762   1.834   2.575   3.016 -0.6060 -0.3064 -0.6219
52402SOL    HW161763   1.744   2.607   3.021  0.3516  2.4355  1.3175
52402SOL    HW261764   1.857   2.583   2.924 -1.7038  0.9407 -0.8140
52403SOL     OW61765  10.222   4.607  10.314  0.0683 -1.0335 -0.0245
52403SOL    HW161766  10.159   4.616  10.243  0.2621 -0.4257 -0.1258
52403SOL    HW261767  10.205   4.681  10.372  0.9788 -0.6047 -0.2912
52404SOL     OW61768   2.138   4.084  10.385 -0.3048 -0.3760 -0.3906
52404SOL    HW161769   2.048   4.104  10.410 -0.4368  0.5120 -1.4817
52404SOL    HW261770   2.182   4.169  10.380  0.1410 -0.6405 -1.4573
52405SOL     OW61771   1.071   2.658   5.078  0.0201  0.1086 -0.0814
52405SOL    HW161772   1.111   2.744   5.087 -0.0893  0.2063 -0.5230
52405SOL    HW261773   0.978   2.675   5.064  0.2256 -0.0008 -1.8147
52406SOL     OW61774   5.584   6.107   7.840 -0.2825  0.1520  0.1401
52406SOL    HW161775   5.512   6.136   7.897 -1.2178 -0.3620 -0.7310
52406SOL    HW261776   5.550   6.120   7.752  0.8892  0.3199 -0.2928
52407SOL     OW61777   8.583   2.036   7.723 -0.2043  0.1086 -0.1095
52407SOL    HW161778   8.609   1.974   7.791 -0.5188  0.0582 -0.0360
52407SOL    HW261779   8.662   2.048   7.670 -0.0778 -0.1750  0.0145
52408SOL     OW61780   1.668  10.158   1.898 -1.0663  0.5887  0.2151
52408SOL    HW161781   1.668  10.080   1.843  0.7663  0.3955  0.4355
52408SOL    HW261782   1.747  10.151   1.950  0.3192  3.5687 -1.2043
52409SOL     OW61783   7.616   2.171   5.858 -0.0480  0.1304 -0.3442
52409SOL    HW161784   7.687   2.112   5.834 -0.4321 -0.3623 -0.2979
52409SOL    HW261785   7.580   2.134   5.939 -0.0484  0.6508 -0.0969
52410SOL     OW61786   7.469  11.525   5.754 -0.2341  0.3050  0.2684
52410SOL    HW161787   7.378  11.524   5.725 -0.4289 -0.7752  0.8662
52410SOL    HW261788   7.472  11.595   5.820 -0.3985  0.9710 -0.4104
52411SOL     OW61789   0.296  10.866   5.407  0.4994  0.2313  0.6142
52411SOL    HW161790   0.349  10.794   5.441  0.0986 -1.2404 -1.6610
52411SOL    HW261791   0.207  10.831   5.402  0.1931  1.0612 -0.0047
52412SOL     OW61792   2.220   7.013   5.273  0.1104  0.5030 -0.1298
52412SOL    HW161793   2.154   7.032   5.207 -0.1125  0.6596  0.1339
52412SOL    HW261794   2.293   7.070   5.251  1.0092 -1.1258 -1.6576
52413SOL     OW61795   9.865  11.001  10.678 -0.4295 -0.7989  0.2416
52413SOL    HW161796   9.916  10.949  10.616  0.6027  0.2489  0.1858
52413SOL    HW261797   9.786  11.026  10.628 -0.1253 -0.8781 -0.2910
52414SOL     OW61798   3.951   7.838   5.104 -0.1602  0.9170  0.2734
52414SOL    HW161799   3.865   7.798   5.093  1.0076 -1.9740  0.8140
52414SOL    HW261800   3.973   7.822   5.196  2.0410 -0.9406 -0.4769
52415SOL     OW61801   1.965  10.487   0.790 -0.2045 -0.1455  0.0905
52415SOL    HW161802   2.001  10.430   0.723  1.1869 -1.0687  1.5530
52415SOL    HW261803   1.890  10.438   0.825  0.6490 -0.8678  0.9600
52416SOL     OW61804   9.518   5.382   7.944  0.0166  0.1034  0.3097
52416SOL    HW161805   9.525   5.363   7.851  0.3760  1.8898 -0.0704
52416SOL    HW261806   9.442   5.331   7.973 -1.0815  0.7000 -1.3284
52417SOL     OW61807   5.668   4.592   7.982 -0.3472  0.0312  0.0480
52417SOL    HW161808   5.625   4.512   7.950 -1.4458  0.5818  0.0938
52417SOL    HW261809   5.659   4.654   7.911  3.0897 -0.6752 -1.1977
52418SOL     OW61810   8.999   2.513   7.478  0.4108 -0.1010  0.9020
52418SOL    HW161811   9.068   2.542   7.537 -1.0323  0.1947  2.5099
52418SOL    HW261812   8.919   2.551   7.514 -0.6737 -0.8540 -0.6150
52419SOL     OW61813  11.453   4.601  11.375  0.1852 -0.1324 -0.1049
52419SOL    HW161814  11.515   4.575  11.443 -0.0502 -0.2249  0.0775
52419SOL    HW261815  11.379   4.638  11.423 -0.4875 -1.2459 -0.2366
52420SOL     OW61816  10.731   2.438   8.235 -0.7893 -0.8346  0.0666
52420SOL    HW161817  10.808   2.400   8.278 -0.1090  0.2112 -0.1835
52420SOL    HW261818  10.672   2.461   8.306  0.1163  0.4289  0.4425
52421SOL     OW61819  12.008   7.773   3.406 -0.4357 -0.0251 -0.3530
52421SOL    HW161820  11.990   7.861   3.374 -1.4413  0.3708  1.1570
52421SOL    HW261821  12.103   7.770   3.418 -0.1817  0.2389 -2.0049
52422SOL     OW61822   0.625   1.465   7.712 -0.4732 -0.9125  0.0796
52422SOL    HW161823   0.638   1.387   7.766  0.6912  0.6422  2.1883
52422SOL    HW261824   0.653   1.538   7.768 -2.9243  1.2063 -1.2432
52423SOL     OW61825   4.855   7.710   6.114  0.4337 -0.2440  0.2106
52423SOL    HW161826   4.925   7.646   6.128 -0.4930 -0.8933  2.3048
52423SOL    HW261827   4.783   7.680   6.170 -1.8477  0.0129 -2.3602
52424SOL     OW61828   4.487  10.889   6.835 -0.1263  0.4366  0.1664
52424SOL    HW161829   4.580  10.909   6.848 -0.0390  0.0312  0.1562
52424SOL    HW261830   4.442  10.971   6.857  0.2113  0.5417  0.4825
52425SOL     OW61831   3.057   1.610  11.561 -0.0270  0.6123 -0.1379
52425SOL    HW161832   3.140   1.577  11.526  0.1741  1.6629 -0.6752
52425SOL    HW261833   3.036   1.686  11.507 -0.5768  1.2605  0.9656
52426SOL     OW61834   1.193   1.831   6.224 -0.0649  0.5020  0.2471
52426SOL    HW161835   1.153   1.759   6.272  1.6110 -0.3690  0.4226
52426SOL    HW261836   1.223   1.892   6.292  0.3707  0.3255  0.2211
52427SOL     OW61837   4.141   4.718  10.102 -0.0065  0.3486 -0.2150
52427SOL    HW161838   4.223   4.679  10.130  0.2533  0.9198 -0.1592
52427SOL    HW261839   4.078   4.695  10.170  0.2561  0.4358  0.0590
52428SOL     OW61840  10.002   7.389   7.007 -0.4266  0.2227  0.4119
52428SOL    HW161841   9.944   7.313   7.003  1.0785 -0.9727  0.3207
52428SOL    HW261842  10.046   7.390   6.921 -1.0738  1.7613  0.0648
52429SOL     OW61843   6.451   4.265   0.524  0.4466 -0.3375 -0.0245
52429SOL    HW161844   6.525   4.314   0.488  0.8445 -0.2130  0.9400
52429SOL    HW261845   6.461   4.177   0.487  0.3369  0.0168 -0.9127
52430SOL     OW61846   0.025   2.843   5.584  0.0816 -0.0370  0.2865
52430SOL    HW161847   0.037   2.803   5.670  0.6474  0.3752  0.4006
52430SOL    HW261848  -0.057   2.892   5.591  1.2847  1.9504  1.3508
52431SOL     OW61849   2.922   1.933   9.015 -0.2340 -0.2395 -0.3437
52431SOL    HW161850   2.922   1.962   8.923  0.7870  1.8666  0.2583
52431SOL    HW261851   2.837   1.961   9.048  0.3101  1.1813 -0.0661
52432SOL     OW61852   0.366   3.456   2.772 -0.5711 -0.5073  0.1519
52432SOL    HW161853   0.342   3.365   2.785 -0.0733 -0.8758 -1.3075
52432SOL    HW261854   0.459   3.454   2.748 -0.5558  0.3715  0.0699
52433SOL     OW61855   4.167   5.549   3.596 -0.6222 -0.0436 -0.1851
52433SOL    HW161856   4.090   5.492   3.590 -1.3559  0.8116  0.6363
52433SOL    HW261857   4.172   5.591   3.511 -0.7860 -0.4477 -0.4002
52434SOL     OW61858   9.772   9.797   9.178  0.0151 -0.0929  0.0269
52434SOL    HW161859   9.828   9.860   9.133  0.9029 -0.6002  0.3899
52434SOL    HW261860   9.802   9.711   9.146  0.2975 -0.4321  1.1501
52435SOL     OW61861   1.075   9.497   2.627  0.0951  0.1712  0.2418
52435SOL    HW161862   1.055   9.508   2.720 -1.8239  0.6763 -0.1623
52435SOL    HW261863   0.992   9.468   2.588 -0.3113  3.4830 -1.8391
52436SOL     OW61864   1.278   0.925   6.494 -0.0401  0.0385 -0.0174
52436SOL    HW161865   1.346   0.934   6.427  0.2661  1.0577  0.4005
52436SOL    HW261866   1.196   0.935   6.447  0.1288 -0.4348 -0.4164
52437SOL     OW61867  10.631   9.953  11.421 -1.0618 -0.4600  0.3915
52437SOL    HW161868  10.561   9.983  11.478 -1.7014 -0.0018 -0.6045
52437SOL    HW261869  10.604   9.980  11.333  0.7798  0.5103  0.0764
52438SOL     OW61870   6.169  11.610   7.367  0.3687  0.2145  0.1432
52438SOL    HW161871   6.237  11.667   7.402 -0.6512  1.2309  0.5559
52438SOL    HW261872   6.119  11.667   7.309 -0.6375 -0.2680  0.5174
52439SOL     OW61873   4.766   1.629   2.680  0.6410 -0.0944  0.6020
52439SOL    HW161874   4.775   1.632   2.585 -0.4450 -0.1780  0.4903
52439SOL    HW261875   4.728   1.713   2.704 -2.1766 -1.2611  0.5829
52440SOL     OW61876   1.370   2.151  11.834  0.0851  0.3263 -0.2544
52440SOL    HW161877   1.374   2.169  11.928 -0.5463  3.2737 -0.7051
52440SOL    HW261878   1.341   2.233  11.795 -0.6283 -1.1035 -2.9705
52441SOL     OW61879   3.985   8.781   6.599  0.3634 -0.4081  0.1756
52441SOL    HW161880   3.951   8.865   6.567  1.1817  0.1447  0.7276
52441SOL    HW261881   4.066   8.768   6.551  1.2824  0.1254  1.5301
52442SOL     OW61882   1.711   0.914   4.833  0.3929  0.4993  0.3883
52442SOL    HW161883   1.762   0.995   4.829  1.2288 -0.0102  0.4643
52442SOL    HW261884   1.777   0.844   4.838 -0.3113 -0.1096  1.7574
52443SOL     OW61885   1.035   3.349  10.717 -0.3257  0.5699  0.4612
52443SOL    HW161886   1.117   3.373  10.760 -0.4445 -0.9008  1.6305
52443SOL    HW261887   1.004   3.273  10.767 -2.4034  1.0888  0.0515
52444SOL     OW61888   1.834   9.058  11.852 -0.2531  0.2800 -0.9870
52444SOL    HW161889   1.857   9.051  11.945 -1.2356  1.7101 -0.6182
52444SOL    HW261890   1.744   9.026  11.847  0.3322 -1.3453 -1.7471
52445SOL     OW61891  10.636   7.222   9.784  0.2642  0.4537 -1.1452
52445SOL    HW161892  10.573   7.152   9.801  0.5670  0.4183 -0.0625
52445SOL    HW261893  10.612   7.255   9.698 -1.4144  0.5995 -0.6790
52446SOL     OW61894   9.259   5.511   2.336  0.0327 -0.2312  0.3187
52446SOL    HW161895   9.331   5.460   2.374  0.1708  1.0808  1.9303
52446SOL    HW261896   9.302   5.583   2.291 -0.1988 -1.0254 -1.2366
52447SOL     OW61897   5.007  11.112   4.347  0.3949  0.1528 -0.0136
52447SOL    HW161898   5.040  11.037   4.396 -0.8842 -0.1809  0.3870
52447SOL    HW261899   4.914  11.115   4.368  0.3742  1.7352 -0.1981
52448SOL     OW61900   7.949  10.196   2.654  0.2190  0.1259 -0.7629
52448SOL    HW161901   7.916  10.284   2.670  0.7190  0.3458 -0.9320
52448SOL    HW261902   8.016  10.183   2.722  1.3008  0.5009 -1.7378
52449SOL     OW61903   2.881   2.387   1.355  0.0160  0.3822 -0.0012
52449SOL    HW161904   2.833   2.469   1.368 -2.7885 -1.3372  1.5958
52449SOL    HW261905   2.822   2.333   1.303  0.6116 -1.4986  1.1584
52450SOL     OW61906   4.439   9.118  11.117  0.3254  0.2405  0.9487
52450SOL    HW161907   4.436   9.056  11.044  1.1033 -0.2259  1.3100
52450SOL    HW261908   4.363   9.175  11.102 -1.1286 -1.5218  1.2804
52451SOL     OW61909   5.585   4.711   5.898  0.0463  0.2674  0.4479
52451SOL    HW161910   5.589   4.800   5.934 -0.4291  0.3379  0.3330
52451SOL    HW261911   5.675   4.679   5.904  0.3565  0.9926 -0.0994
52452SOL     OW61912   4.336  10.130   2.306 -0.0655  0.2890  0.1563
52452SOL    HW161913   4.316  10.201   2.368  0.8892  0.9785 -0.3004
52452SOL    HW261914   4.394  10.071   2.354  0.4440  0.6747  0.0246
52453SOL     OW61915   8.084   9.933  11.338  0.1877 -0.3492 -0.3927
52453SOL    HW161916   8.063  10.024  11.357 -1.4358 -0.5138 -1.1526
52453SOL    HW261917   8.174   9.935  11.305  0.8582  0.6889  1.3912
52454SOL     OW61918   7.969   0.663  10.613  1.1216 -0.4010 -0.0251
52454SOL    HW161919   7.934   0.613  10.687 -0.2331  0.4090 -0.0979
52454SOL    HW261920   8.035   0.605  10.575  2.0471 -0.7481  1.9480
52455SOL     OW61921  11.904   2.366  10.198  0.3107 -0.0125  0.3402
52455SOL    HW161922  11.997   2.386  10.188 -0.2206  2.2200 -0.7632
52455SOL    HW261923  11.890   2.363  10.293  1.4278  0.0033  0.5157
52456SOL     OW61924   5.908   0.113   0.277 -0.0974 -0.3592  0.0593
52456SOL    HW161925   5.990   0.098   0.231  1.4054  0.2775  2.3575
52456SOL    HW261926   5.893   0.208   0.269 -0.6403 -0.4755 -0.3729
52457SOL     OW61927   0.759  10.128   8.888  0.4016 -0.4841 -0.6724
52457SOL    HW161928   0.738  10.209   8.934 -1.3711  0.6204 -3.2072
52457SOL    HW261929   0.683  10.072   8.902  0.3527 -0.5761 -1.2821
52458SOL     OW61930   3.211   2.110   8.020 -0.2698 -0.0965 -0.1609
52458SOL    HW161931   3.222   2.193   8.064  1.0664 -0.1694 -0.3166
52458SOL    HW261932   3.116   2.099   8.012 -0.5022  0.5889  1.3696
52459SOL     OW61933   8.454  11.865  10.877  0.2809 -0.1308 -0.3181
52459SOL    HW161934   8.422  11.954  10.889 -0.0972 -0.0635 -1.6064
52459SOL    HW261935   8.385  11.809  10.913 -0.0067  0.0859 -0.5283
52460SOL     OW61936  10.174   7.004   3.174 -0.4696 -0.6808  0.0278
52460SOL    HW161937  10.252   7.039   3.217 -0.5345 -1.6821  0.9859
52460SOL    HW261938  10.205   6.978   3.087 -0.3232  1.2814 -0.5558
52461SOL     OW61939   8.207   6.102   3.045 -0.9019  0.4235  0.0510
52461SOL    HW161940   8.149   6.177   3.057  0.7293  1.8625 -0.6178
52461SOL    HW261941   8.263   6.101   3.122  0.3907  1.1641 -0.8313
52462SOL     OW61942   3.506  10.270   2.580 -0.0384 -1.5006 -0.6946
52462SOL    HW161943   3.595  10.263   2.546 -0.2220 -1.6339 -1.1504
52462SOL    HW261944   3.452  10.290   2.503 -0.3505 -1.0352 -0.3635
52463SOL     OW61945   7.654   1.270   7.873  0.5408  0.3955  0.1382
52463SOL    HW161946   7.714   1.337   7.906 -0.8838  1.0182  1.5733
52463SOL    HW261947   7.710   1.194   7.856  1.6712  0.7265  2.0882
52464SOL     OW61948   0.801   2.472   0.533  0.0122 -0.1375 -0.3450
52464SOL    HW161949   0.853   2.550   0.514  0.6190 -0.4961 -0.1767
52464SOL    HW261950   0.728   2.503   0.586  0.4191  0.2683 -0.0221
52465SOL     OW61951   8.995   6.027  11.610  0.0503 -0.4094 -0.2321
52465SOL    HW161952   9.026   6.088  11.544  1.4445 -1.2535 -0.3848
52465SOL    HW261953   8.969   6.083  11.684 -0.2503  0.4449 -0.9667
52466SOL     OW61954   5.561   0.277  11.655 -0.0555  0.1499 -0.0104
52466SOL    HW161955   5.565   0.369  11.681  0.8719  0.1050  0.0651
52466SOL    HW261956   5.633   0.236  11.703 -0.4812 -0.6236 -0.0177
52467SOL     OW61957   4.319   7.347   7.133  0.0806  0.3002  0.1261
52467SOL    HW161958   4.324   7.383   7.222 -0.6250  0.7938 -0.0190
52467SOL    HW261959   4.382   7.276   7.132  0.6058  0.7401  0.8146
52468SOL     OW61960   7.307   5.805   6.199 -0.5043 -0.4767  0.2462
52468SOL    HW161961   7.248   5.827   6.127  0.8341 -0.4509 -0.8943
52468SOL    HW261962   7.347   5.889   6.224 -0.3561 -0.6137  0.4755
52469SOL     OW61963   0.144  11.041   9.206 -0.1948  0.0797  0.6830
52469SOL    HW161964   0.146  11.124   9.253  0.0089  0.0688  0.6932
52469SOL    HW261965   0.234  11.009   9.209 -0.4568 -0.6357  1.5685
52470SOL     OW61966   8.182   6.771   4.404  0.2064 -0.2030  0.6641
52470SOL    HW161967   8.194   6.676   4.400  1.2250 -0.0824  0.6632
52470SOL    HW261968   8.197   6.801   4.314 -1.6643 -0.1908  0.3128
52471SOL     OW61969   0.174   7.960   7.682 -0.4104 -0.7299  0.4060
52471SOL    HW161970   0.218   7.964   7.597 -0.8159  0.9762  0.2443
52471SOL    HW261971   0.237   7.915   7.739  0.4615 -0.6282 -0.4468
52472SOL     OW61972   4.174   9.246  11.730 -0.5525 -0.3638 -0.1313
52472SOL    HW161973   4.087   9.235  11.691 -1.4186 -0.7678  1.7765
52472SOL    HW261974   4.210   9.157  11.735 -0.0217 -0.1986 -0.9051
52473SOL     OW61975   0.223  11.393   4.310  0.1534  0.2520 -0.1425
52473SOL    HW161976   0.285  11.334   4.354  0.0665  0.1347 -0.1751
52473SOL    HW261977   0.239  11.479   4.349  1.4348  0.5542 -1.2507
52474SOL     OW61978   4.010  11.010   4.715 -0.1284  0.1758  0.8899
52474SOL    HW161979   4.100  11.016   4.681 -0.0367 -2.3382  0.5138
52474SOL    HW261980   3.972  10.935   4.669 -2.3458  1.0146  1.2616
52475SOL     OW61981   4.039   2.358  11.450  0.3579  0.0179 -0.3577
52475SOL    HW161982   4.019   2.446  11.481  0.2326  0.7280 -2.3208
52475SOL    HW261983   3.953   2.322  11.427  0.5359 -0.1583 -0.7326
52476SOL     OW61984   0.356   8.388  10.629  0.0693  0.5369 -0.6045
52476SOL    HW161985   0.286   8.417  10.687 -0.6960 -0.4258 -1.0145
52476SOL    HW261986   0.436   8.392  10.682 -0.1834  2.1672 -0.2899
52477SOL     OW61987  10.814  10.432   6.321  0.8663  0.1751  0.0585
52477SOL    HW161988  10.817  10.500   6.254 -0.1508 -0.5923 -0.7885
52477SOL    HW261989  10.896  10.384   6.309  0.3851 -0.3893 -1.1186
52478SOL     OW61990   6.985   0.704   6.002  0.4658 -0.4557  0.0788
52478SOL    HW161991   7.071   0.714   6.043  0.5923  0.1257 -0.3203
52478SOL    HW261992   6.994   0.746   5.917 -0.8147  1.4829  0.8402
52479SOL     OW61993   2.077   8.625   2.464 -0.0398 -0.4625  0.2165
52479SOL    HW161994   2.053   8.587   2.380  2.4927 -0.8401 -0.4028
52479SOL    HW261995   2.011   8.590   2.525 -3.3917  1.6497 -1.8244
52480SOL     OW61996   1.899   7.432   4.837  0.5569 -0.4206 -0.8729
52480SOL    HW161997   1.919   7.525   4.845 -0.3920 -0.2748  0.0454
52480SOL    HW261998   1.890   7.401   4.928  0.7150 -1.3672 -1.1682
52481SOL     OW61999   2.654   8.434   5.048 -0.3457  0.1764  0.8943
52481SOL    HW162000   2.738   8.390   5.032  0.2240  1.1577  1.0999
52481SOL    HW262001   2.674   8.500   5.114 -0.7914  1.8736 -0.6003
52482SOL     OW62002   7.504   3.989   6.544 -0.2524 -0.0207  0.3687
52482SOL    HW162003   7.588   3.962   6.581  1.1159  1.7787 -1.2264
52482SOL    HW262004   7.487   4.076   6.580 -0.9269  0.0419 -0.0664
52483SOL     OW62005   0.470   2.881   2.196 -0.1470 -0.5616 -0.3489
52483SOL    HW162006   0.551   2.865   2.148 -1.6567 -1.8599 -2.6873
52483SOL    HW262007   0.422   2.943   2.142 -1.1039 -0.5153  0.5177
52484SOL     OW62008  11.060   5.650   2.660 -0.0327 -0.2531  0.5640
52484SOL    HW162009  11.034   5.727   2.610 -0.0576 -1.7258 -1.8122
52484SOL    HW262010  11.153   5.639   2.642 -0.3051 -1.5070 -0.2176
52485SOL     OW62011   1.080   6.169   9.410 -0.0609  0.2942 -0.3346
52485SOL    HW162012   1.098   6.092   9.357 -0.3678 -1.7250  2.2544
52485SOL    HW262013   1.165   6.208   9.428  0.1582  0.1606 -1.0647
52486SOL     OW62014   4.738  11.914   1.005 -0.5043  0.4757 -0.4545
52486SOL    HW162015   4.806  11.910   0.938 -1.6483  1.3366 -1.7341
52486SOL    HW262016   4.745  11.830   1.051  2.1114  0.9689  0.2255
52487SOL     OW62017   2.741   4.684   9.794 -0.5018 -0.3675 -0.6375
52487SOL    HW162018   2.795   4.606   9.808 -1.7027 -0.8050  1.9700
52487SOL    HW262019   2.805   4.756   9.790  0.4329 -1.1182  0.1699
52488SOL     OW62020   2.033   8.774   5.403 -0.3957  0.6404 -0.0703
52488SOL    HW162021   1.949   8.805   5.369 -1.4303 -1.6458  0.2252
52488SOL    HW262022   2.079   8.740   5.327 -0.9927 -0.7332  0.1494
52489SOL     OW62023   9.417   1.804   2.903  0.4000  0.2730 -0.1855
52489SOL    HW162024   9.433   1.853   2.822 -0.3378 -0.0636 -0.5434
52489SOL    HW262025   9.362   1.731   2.876  0.6695 -0.2007  0.5179
52490SOL     OW62026   9.524   8.935   0.447 -0.0100  0.0834 -0.8550
52490SOL    HW162027   9.589   8.983   0.397 -0.2508  0.0703 -1.1866
52490SOL    HW262028   9.446   8.935   0.391 -1.2774  2.6487  0.7411
52491SOL     OW62029   0.676  10.558   6.630 -0.1709  0.5874  0.2132
52491SOL    HW162030   0.755  10.589   6.586  0.2928 -1.0251 -0.1394
52491SOL    HW262031   0.706  10.528   6.716 -0.3838 -0.1290  0.0398
52492SOL     OW62032   6.862   1.166   7.601 -0.2680  0.0032 -0.4021
52492SOL    HW162033   6.773   1.185   7.631 -0.0751  0.6130 -0.1974
52492SOL    HW262034   6.885   1.083   7.644 -0.1946  0.5873  0.7202
52493SOL     OW62035   1.745   4.123   2.459 -0.0492 -0.0664  0.0337
52493SOL    HW162036   1.763   4.118   2.553  0.6312 -0.0269 -0.0906
52493SOL    HW262037   1.650   4.115   2.453 -0.2877  1.5894  0.8559
52494SOL     OW62038   0.556   1.757   9.839  0.4603  0.0436  0.1423
52494SOL    HW162039   0.471   1.719   9.862 -0.2294  0.4344 -1.5710
52494SOL    HW262040   0.543   1.791   9.750  1.2904  3.5620  1.2380
52495SOL     OW62041   4.911   7.109   8.247 -0.1100  0.0934 -0.2889
52495SOL    HW162042   4.964   7.030   8.244  1.6566  1.2745 -2.6465
52495SOL    HW262043   4.832   7.087   8.198 -0.7117 -0.8551  1.0320
52496SOL     OW62044   9.185   8.988   1.128 -0.6286  0.6657  0.2506
52496SOL    HW162045   9.232   9.048   1.069 -0.0565  0.4066  0.4374
52496SOL    HW262046   9.104   8.966   1.080 -0.5766  1.1436 -0.0590
52497SOL     OW62047   1.785   5.056   5.314  0.0099  0.1448 -0.0638
52497SOL    HW162048   1.695   5.054   5.281  0.3023  1.0160 -0.9632
52497SOL    HW262049   1.822   4.972   5.288 -0.7568 -0.5489  0.9941
52498SOL     OW62050   0.718   0.833   3.063 -0.6501 -0.3572 -1.0997
52498SOL    HW162051   0.686   0.812   3.151 -0.7856  1.5634 -0.6425
52498SOL    HW262052   0.801   0.877   3.078 -0.5036 -0.3346 -1.9569
52499SOL     OW62053   0.642   9.196   6.951 -0.4089 -0.2804 -0.2745
52499SOL    HW162054   0.575   9.188   6.882 -0.1752  0.0042 -0.5345
52499SOL    HW262055   0.725   9.179   6.906 -0.4755 -3.6269  0.5798
52500SOL     OW62056   5.485   1.458   7.046 -0.3801  0.4426  0.2531
52500SOL    HW162057   5.520   1.416   7.125  0.6240 -1.5952 -1.1965
52500SOL    HW262058   5.556   1.513   7.014  0.1339 -0.6519 -0.5430
52501SOL     OW62059   9.663   2.707   7.434 -0.1503  0.7298  0.0178
52501SOL    HW162060   9.628   2.662   7.511  1.6567 -0.2545  0.3082
52501SOL    HW262061   9.752   2.675   7.426 -0.3149  0.7360 -2.5578
52502SOL     OW62062  10.111   8.294   0.116 -0.3475  0.0721 -0.3918
52502SOL    HW162063  10.164   8.214   0.111 -0.1857  0.1594 -0.0434
52502SOL    HW262064  10.025   8.263   0.145 -0.3318  0.0047 -0.4156
52503SOL     OW62065   1.334   4.175   0.624 -0.0831 -0.4402 -0.3718
52503SOL    HW162066   1.273   4.214   0.686  1.2179  0.2502  0.5116
52503SOL    HW262067   1.375   4.250   0.580  0.5475 -0.8735 -0.5401
52504SOL     OW62068  10.548   8.619   6.216 -0.0737 -0.5074 -0.3529
52504SOL    HW162069  10.552   8.531   6.254  0.2501 -0.2500  0.2237
52504SOL    HW262070  10.463   8.653   6.243 -1.1507 -1.4310 -2.3823
52505SOL     OW62071   9.939   0.250  10.928  0.3466  0.1174  0.0624
52505SOL    HW162072   9.926   0.335  10.886 -0.7406 -0.6655 -1.2746
52505SOL    HW262073   9.855   0.205  10.918  1.5702 -2.0584 -1.5515
52506SOL     OW62074   1.477  11.388  11.961 -0.2668  0.0491 -0.0336
52506SOL    HW162075   1.544  11.395  11.892 -0.5168 -1.6286 -0.4893
52506SOL    HW262076   1.522  11.343  12.033  0.2240  2.4574  1.2871
52507SOL     OW62077   7.864   8.025   2.975 -0.2193 -0.0590  0.6757
52507SOL    HW162078   7.956   8.003   2.961 -0.0883  0.0783  1.2848
52507SOL    HW262079   7.825   8.023   2.888  0.4069  0.0946  0.3853
52508SOL     OW62080   1.729   7.863   9.378 -0.1424 -0.1225  0.4502
52508SOL    HW162081   1.670   7.908   9.317  0.3982 -0.1546 -0.0987
52508SOL    HW262082   1.673   7.843   9.453 -0.1681  2.4923  1.2397
52509SOL     OW62083  11.203   7.113   0.456  0.0746  0.0715  0.1885
52509SOL    HW162084  11.115   7.144   0.437 -0.7075 -1.2851  1.4184
52509SOL    HW262085  11.191   7.042   0.519  1.9229 -1.4160 -1.0120
52510SOL     OW62086   6.970   6.046   1.134 -0.0389  0.3186  0.1986
52510SOL    HW162087   7.041   6.109   1.151  1.3563 -1.1392 -0.0300
52510SOL    HW262088   6.942   6.067   1.045 -0.7127  1.6445  0.6889
52511SOL     OW62089   9.879   5.451  11.251 -0.8325 -0.1348  0.1245
52511SOL    HW162090   9.918   5.379  11.300 -1.9960 -1.2133 -0.4931
52511SOL    HW262091   9.950   5.515  11.243 -0.2778 -0.3884  2.2180
52512SOL     OW62092   1.817   7.515   1.767  0.0450 -0.4207 -0.2245
52512SOL    HW162093   1.814   7.476   1.680 -3.1265 -1.0628  0.0364
52512SOL    HW262094   1.756   7.462   1.819  2.4133 -0.5644  2.6589
52513SOL     OW62095   6.996  11.479  11.005 -0.0663  0.4423 -0.5457
52513SOL    HW162096   6.965  11.568  11.022  2.5607  1.3416  0.0227
52513SOL    HW262097   7.024  11.480  10.913  1.9289  0.8953  0.0312
52514SOL     OW62098   5.688   6.949  10.855 -0.2959 -0.0727 -0.3537
52514SOL    HW162099   5.692   6.937  10.950  1.9139 -4.0183 -0.7395
52514SOL    HW262100   5.599   6.923  10.831 -1.3133  2.1689  0.5804
52515SOL     OW62101   3.937   2.910   0.374 -0.3183 -0.0974  0.5298
52515SOL    HW162102   3.925   2.967   0.298  0.7281 -0.5861 -0.0156
52515SOL    HW262103   3.963   2.826   0.337  0.3336 -0.3027  1.4347
52516SOL     OW62104   9.186   2.422  10.667  0.1703  0.5006 -0.0110
52516SOL    HW162105   9.261   2.420  10.608  0.0117  0.5476 -0.2169
52516SOL    HW262106   9.161   2.330  10.675  0.7925  0.3934  0.7624
52517SOL     OW62107   6.595   2.742   2.272 -0.0576  0.6049  0.0887
52517SOL    HW162108   6.606   2.836   2.259  0.7104  0.6713  1.0505
52517SOL    HW262109   6.556   2.734   2.359  1.0066  0.0108  0.5318
52518SOL     OW62110  11.856   2.294  10.433 -0.1430 -0.2552  0.6095
52518SOL    HW162111  11.929   2.252  10.478  0.1613  0.8428  1.1920
52518SOL    HW262112  11.816   2.350  10.500  0.8063  2.0456 -0.6412
52519SOL     OW62113  10.046   9.497   5.133 -0.4101 -0.4104 -0.2758
52519SOL    HW162114  10.039   9.592   5.123 -0.9483 -0.6127 -2.1426
52519SOL    HW262115  10.072   9.485   5.224 -0.5189  1.5135  0.0574
52520SOL     OW62116   6.354  10.324   5.367  0.2975  0.4762  0.7699
52520SOL    HW162117   6.326  10.360   5.283 -1.7255 -0.1560  1.1113
52520SOL    HW262118   6.426  10.265   5.346 -2.2941 -2.3303 -1.0656
52521SOL     OW62119   4.687   4.121   2.076 -0.3341  0.5478  0.1808
52521SOL    HW162120   4.750   4.151   2.142  2.9305 -0.3288 -2.2913
52521SOL    HW262121   4.609   4.174   2.092  0.8830  1.5628  3.5874
52522SOL     OW62122   8.993   8.134   0.222  0.3625 -0.2132  0.0446
52522SOL    HW162123   9.038   8.175   0.149  1.4157 -1.2302  0.1046
52522SOL    HW262124   8.916   8.093   0.183 -0.0313  0.7222 -0.2010
52523SOL     OW62125   2.600   5.553   4.440  0.1303  0.0048  0.7282
52523SOL    HW162126   2.569   5.527   4.353  0.6284  0.5402  0.3802
52523SOL    HW262127   2.558   5.492   4.500 -1.4193  0.5767  0.2580
52524SOL     OW62128  11.558   1.320  11.070  0.0603  0.2747 -0.3925
52524SOL    HW162129  11.513   1.236  11.080 -0.4242  0.6692  1.0452
52524SOL    HW262130  11.588   1.321  10.980 -2.4016 -0.2482 -1.2905
52525SOL     OW62131   6.123   7.725   0.196  0.3754 -0.5256  0.3131
52525SOL    HW162132   6.143   7.712   0.103  0.8525 -1.5203  0.5442
52525SOL    HW262133   6.030   7.703   0.203 -0.4093  2.2021 -0.3996
52526SOL     OW62134   9.669   3.417   5.230  0.1309  0.4668  0.2060
52526SOL    HW162135   9.762   3.414   5.253  0.5586 -1.1055 -1.4418
52526SOL    HW262136   9.626   3.362   5.295  0.8708 -1.3858 -0.7852
52527SOL     OW62137   1.100   3.843   6.736  0.2855 -0.0272  0.2030
52527SOL    HW162138   1.174   3.904   6.744  0.7866 -0.5605 -0.2775
52527SOL    HW262139   1.138   3.756   6.748 -0.0488 -0.3881 -1.1729
52528SOL     OW62140  12.119   3.016   8.499  0.2551  0.5469  0.3751
52528SOL    HW162141  12.120   2.972   8.584  0.8183 -1.4302 -0.5943
52528SOL    HW262142  12.027   3.020   8.474  0.2606 -1.3383 -0.0843
52529SOL     OW62143   8.098  10.711   6.894  0.0483 -0.2216  0.2771
52529SOL    HW162144   8.179  10.705   6.843  0.1761  0.3747  0.4071
52529SOL    HW262145   8.124  10.753   6.975 -0.4322  0.1423  0.2453
52530SOL     OW62146   5.176   3.275  11.150  0.0114  0.4439 -0.4969
52530SOL    HW162147   5.216   3.292  11.065  1.5387 -2.0956 -0.3717
52530SOL    HW262148   5.245   3.295  11.214 -0.2665 -0.0912 -0.0180
52531SOL     OW62149  10.895   2.262   7.387 -1.1133 -0.3944 -0.1109
52531SOL    HW162150  10.820   2.287   7.441 -1.2738 -0.3025 -0.3766
52531SOL    HW262151  10.900   2.167   7.396 -0.4158 -0.2735  1.0157
52532SOL     OW62152   1.103  11.348   2.240 -0.0241  0.3508 -0.2981
52532SOL    HW162153   1.039  11.395   2.292  0.0899  1.4274 -1.0972
52532SOL    HW262154   1.103  11.259   2.276 -1.2371  0.5945  0.3405
52533SOL     OW62155  11.140   1.319   9.590 -0.2625 -0.1218  0.2637
52533SOL    HW162156  11.069   1.269   9.551 -0.3533 -0.2177  0.5512
52533SOL    HW262157  11.135   1.406   9.548 -0.4295 -0.1866  0.1511
52534SOL     OW62158   0.961   0.307   9.850 -0.1234  0.7890  0.5045
52534SOL    HW162159   0.910   0.354   9.916  1.8174 -0.0355  2.7156
52534SOL    HW262160   0.928   0.217   9.855  0.0673  0.7127  0.3716
52535SOL     OW62161   2.551   3.218   5.663  0.5541 -0.1461  0.0563
52535SOL    HW162162   2.519   3.128   5.668 -0.5255  0.2583  0.8144
52535SOL    HW262163   2.489   3.269   5.715  1.1370  1.0442 -0.3623
52536SOL     OW62164   6.122   5.983   3.269 -0.0979  0.2382 -0.1057
52536SOL    HW162165   6.123   5.952   3.178 -0.6306  0.5255 -0.2110
52536SOL    HW262166   6.204   5.949   3.306  2.3904  3.7189 -1.8678
52537SOL     OW62167  11.580   3.827   1.836 -0.1392 -0.1649  0.5576
52537SOL    HW162168  11.509   3.767   1.857  1.7748 -2.2614  1.4378
52537SOL    HW262169  11.614   3.854   1.921  0.5673  0.2672  0.1448
52538SOL     OW62170   6.000   7.192   1.354  0.0238 -0.1059 -0.1426
52538SOL    HW162171   6.016   7.234   1.439  0.3774 -0.3432 -0.0867
52538SOL    HW262172   5.909   7.164   1.358 -1.0248  2.8391 -1.1393
52539SOL     OW62173  10.457   1.436   5.699 -0.4483  0.5128 -0.0403
52539SOL    HW162174  10.392   1.400   5.759  1.1283  0.2942  1.6089
52539SOL    HW262175  10.461   1.373   5.627  0.9528 -1.7770  1.9164
52540SOL     OW62176   8.840   9.661   2.218  0.3815  0.9241  0.2337
52540SOL    HW162177   8.874   9.749   2.204 -0.5535  1.1122 -1.0197
52540SOL    HW262178   8.918   9.605   2.219  0.9010  1.6293 -0.1088
52541SOL     OW62179   8.516  10.124   5.421  0.4662 -0.4006 -0.3501
52541SOL    HW162180   8.516  10.152   5.513  1.1578 -0.2048 -0.4004
52541SOL    HW262181   8.424  10.129   5.395 -0.1653 -2.9880  1.0726
52542SOL     OW62182   5.786   1.763   8.450  0.0596 -0.4320  0.9696
52542SOL    HW162183   5.850   1.726   8.511  0.4460 -0.1457  0.7379
52542SOL    HW262184   5.836   1.784   8.371  0.0596  1.4674  1.4288
52543SOL     OW62185   0.390  10.317  11.861  0.6909 -0.5837 -0.2593
52543SOL    HW162186   0.422  10.315  11.771 -0.0577 -0.2555 -0.5415
52543SOL    HW262187   0.321  10.383  11.861  1.1163 -0.1132  0.7139
52544SOL     OW62188   5.881   0.674  12.095 -0.2040  0.8050 -0.4450
52544SOL    HW162189   5.808   0.694  12.154 -0.9258 -1.0737 -0.6409
52544SOL    HW262190   5.955   0.724  12.131 -1.1985  1.5505  0.6505
52545SOL     OW62191   6.104   7.757   2.583 -0.0818 -0.9517  0.1630
52545SOL    HW162192   6.068   7.680   2.540  1.1080 -0.5330 -1.7265
52545SOL    HW262193   6.197   7.737   2.593  0.5852  0.7687 -1.8091
52546SOL     OW62194   0.481   6.622   8.095 -0.2864  0.4665  0.3499
52546SOL    HW162195   0.412   6.656   8.152 -0.6701  1.7218 -0.8134
52546SOL    HW262196   0.469   6.527   8.097  0.7084  0.2607  3.5874
52547SOL     OW62197   3.919  10.412   1.562  0.0496  0.2397 -0.0815
52547SOL    HW162198   3.879  10.421   1.649 -0.4673  1.2628 -0.4185
52547SOL    HW262199   3.969  10.492   1.550 -0.6429  0.5392 -1.1094
52548SOL     OW62200  10.418   9.041   1.821 -0.4399  0.0437 -0.4598
52548SOL    HW162201  10.359   8.987   1.874 -0.8607 -1.8388 -2.6706
52548SOL    HW262202  10.369   9.058   1.740  0.3613  2.3612 -0.5357
52549SOL     OW62203   7.183   7.304  10.107  0.1855  0.1858 -0.1875
52549SOL    HW162204   7.202   7.238  10.174 -3.1258 -1.3602 -0.5544
52549SOL    HW262205   7.225   7.270  10.028  2.6660  1.1500  0.6184
52550SOL     OW62206   4.629   9.499   4.395  0.5229  0.3913  0.4076
52550SOL    HW162207   4.566   9.431   4.370  0.0790 -0.3435  3.2057
52550SOL    HW262208   4.586   9.581   4.372 -1.0667 -0.1348  1.3562
52551SOL     OW62209   0.514   7.878   7.031 -0.4805 -0.2018  0.5315
52551SOL    HW162210   0.538   7.786   7.025 -2.3711 -0.6702 -1.3270
52551SOL    HW262211   0.516   7.909   6.940  1.5283  2.0488  1.2423
52552SOL     OW62212   1.659   0.285   7.224  1.2138  0.4518  0.1704
52552SOL    HW162213   1.644   0.377   7.201 -2.8749 -0.2331 -0.6123
52552SOL    HW262214   1.693   0.245   7.144 -1.4746  0.4616 -1.0683
52553SOL     OW62215   6.449   2.716   2.510  0.0482 -0.1445  0.6566
52553SOL    HW162216   6.502   2.714   2.590 -0.7718  1.8476  1.3191
52553SOL    HW262217   6.365   2.752   2.538 -0.3910  0.2200 -1.0418
52554SOL     OW62218   2.988   8.080  11.845  0.3214 -0.3599 -0.6992
52554SOL    HW162219   3.000   8.099  11.752  0.0938  0.0991 -0.6402
52554SOL    HW262220   2.970   7.986  11.849  0.0867 -0.3343 -1.1430
52555SOL     OW62221  10.642  11.554   7.501  0.1129  0.2363 -0.0969
52555SOL    HW162222  10.715  11.594   7.453  0.7806  2.2243  2.3790
52555SOL    HW262223  10.662  11.460   7.499  0.9137  0.3847 -2.3006
52556SOL     OW62224   0.223   5.376  11.178 -0.2241 -0.4696  0.3987
52556SOL    HW162225   0.311   5.398  11.149  0.1242 -1.1861  0.8773
52556SOL    HW262226   0.201   5.296  11.131 -1.5263  0.8922 -1.4147
52557SOL     OW62227  12.040   9.733   9.372  0.3100  0.4454  0.0688
52557SOL    HW162228  12.022   9.773   9.457  0.6432  0.2339  0.2434
52557SOL    HW262229  12.035   9.639   9.390  2.3152  0.3437  0.3080
52558SOL     OW62230   0.309   0.004   0.853  0.1179  0.0416  0.6167
52558SOL    HW162231   0.247  -0.067   0.837  0.9787 -1.0445  1.9054
52558SOL    HW262232   0.255   0.083   0.858 -0.7997 -0.3861 -1.4214
52559SOL     OW62233   2.606   7.675   6.629  0.0032  0.3477  0.1848
52559SOL    HW162234   2.614   7.672   6.725  0.5398  0.4354  0.1430
52559SOL    HW262235   2.604   7.768   6.608  1.7742  0.3560 -0.0387
52560SOL     OW62236   2.574   2.958  10.561 -0.0665  0.3840 -0.2287
52560SOL    HW162237   2.594   2.877  10.608 -1.0423 -0.2481 -0.8486
52560SOL    HW262238   2.659   2.999  10.546  0.5322 -0.8933 -0.5384
52561SOL     OW62239   7.267   8.234   2.168 -0.2613  0.3950  0.5028
52561SOL    HW162240   7.336   8.246   2.102  1.5664  0.3778  2.2980
52561SOL    HW262241   7.245   8.141   2.163 -0.5129  0.4945 -0.4023
52562SOL     OW62242   9.033   7.307   7.692 -0.6665  0.1795 -0.4039
52562SOL    HW162243   9.071   7.320   7.779 -0.5075  1.1132 -0.6030
52562SOL    HW262244   9.064   7.221   7.665  2.4906  1.4040 -1.1118
52563SOL     OW62245   1.742   9.556   7.838 -0.4875  0.1018  0.1137
52563SOL    HW162246   1.794   9.482   7.806  1.1721  0.8476  0.9357
52563SOL    HW262247   1.762   9.560   7.931 -0.3912  1.6857  0.0474
52564SOL     OW62248   3.865   1.355   4.450 -0.1824 -0.2599 -0.1531
52564SOL    HW162249   3.952   1.389   4.468  0.1012 -1.5470  1.1120
52564SOL    HW262250   3.872   1.312   4.365  0.6118 -0.9561  0.2536
52565SOL     OW62251   3.459   9.863   4.019 -0.0230  0.1534  0.0573
52565SOL    HW162252   3.463   9.769   4.035  2.0080  0.3238  0.8901
52565SOL    HW262253   3.378   9.892   4.061 -0.3709 -1.1284  0.2935
52566SOL     OW62254   1.412   2.488   2.083 -0.1260  0.4671 -0.4395
52566SOL    HW162255   1.408   2.543   2.161 -0.9041 -1.2439  0.8128
52566SOL    HW262256   1.335   2.511   2.032 -0.8915 -0.0126  0.4798
52567SOL     OW62257  11.248   6.295   5.329  0.2480  0.0415  0.0364
52567SOL    HW162258  11.288   6.365   5.380  1.7940 -0.6956 -0.1061
52567SOL    HW262259  11.321   6.257   5.279 -0.8439 -0.6007 -1.1390
52568SOL     OW62260   2.963   5.303   3.392  0.8004  0.3491  0.4297
52568SOL    HW162261   2.968   5.234   3.327 -1.4289 -1.2093  1.7579
52568SOL    HW262262   3.010   5.269   3.468  2.6772  1.8067  0.0073
52569SOL     OW62263   0.041   3.510   8.402 -0.3641  0.0815  0.1757
52569SOL    HW162264   0.014   3.433   8.351  1.2848 -0.9468  0.7701
52569SOL    HW262265  -0.015   3.580   8.370 -1.7884 -1.3113 -0.5481
52570SOL     OW62266   9.451   0.304   8.167 -0.0388  0.0776 -0.4860
52570SOL    HW162267   9.387   0.235   8.182 -1.4101  1.5710  0.9605
52570SOL    HW262268   9.442   0.325   8.074 -3.2677  1.6496  0.0433
52571SOL     OW62269   4.004   0.486   0.673  0.3554  0.1550  0.5484
52571SOL    HW162270   4.046   0.572   0.676  2.5584 -0.6198 -2.5939
52571SOL    HW262271   4.061   0.429   0.725  1.8338 -0.3472 -1.5190
52572SOL     OW62272   7.300   0.448  10.227  0.2724 -0.2147 -0.1447
52572SOL    HW162273   7.317   0.502  10.150 -0.5388 -2.1698 -1.7757
52572SOL    HW262274   7.208   0.466  10.249 -0.0867 -1.1115 -0.8701
52573SOL     OW62275  12.102  10.337  11.964  0.3259 -0.2444  0.1302
52573SOL    HW162276  12.097  10.432  11.948 -0.4789 -0.2419  0.3531
52573SOL    HW262277  12.087  10.298  11.878  0.2833 -0.1667  0.1013
52574SOL     OW62278   2.123   1.076   3.534  0.4755  0.5036  0.0785
52574SOL    HW162279   2.103   1.107   3.623 -1.3317  1.3742 -0.5931
52574SOL    HW262280   2.158   1.153   3.489 -0.8697  0.7289 -0.6278
52575SOL     OW62281   3.497   1.413   2.878 -0.1408 -0.1972 -0.2762
52575SOL    HW162282   3.424   1.458   2.920 -1.1269 -0.8345 -1.2342
52575SOL    HW262283   3.512   1.335   2.931 -1.4578 -1.0604 -1.1206
52576SOL     OW62284   1.885  10.815   2.088 -0.1664 -0.2287 -0.5788
52576SOL    HW162285   1.919  10.751   2.025  2.0658 -0.1373  0.4303
52576SOL    HW262286   1.964  10.851   2.129 -1.5071  0.4974  1.4703
52577SOL     OW62287   8.540   9.213   3.041  0.7136  0.4492  0.4453
52577SOL    HW162288   8.595   9.217   3.119  0.0558 -3.1453  1.2734
52577SOL    HW262289   8.450   9.209   3.075  0.4512 -1.9819 -0.3117
52578SOL     OW62290   2.960   6.025   6.591  0.2100 -0.2207  0.3138
52578SOL    HW162291   2.868   6.052   6.598 -0.1856 -1.3263 -0.4432
52578SOL    HW262292   2.968   5.988   6.503  1.3587 -0.2288  0.4111
52579SOL     OW62293  10.686  10.138   3.621 -0.8842  0.2938  0.3485
52579SOL    HW162294  10.710  10.230   3.607  1.9464 -0.4379 -0.3111
52579SOL    HW262295  10.647  10.111   3.538  1.0881  0.1684 -0.5902
52580SOL     OW62296   5.740  11.998   8.664  0.8979  0.2615  0.0092
52580SOL    HW162297   5.665  12.023   8.718  1.0229  0.1421  0.2366
52580SOL    HW262298   5.799  12.072   8.669  0.2442  0.9072 -1.1957
52581SOL     OW62299   4.838   6.232   6.131 -0.1645  0.3913 -0.4949
52581SOL    HW162300   4.747   6.231   6.162 -0.0284  1.0096 -0.0600
52581SOL    HW262301   4.845   6.313   6.080  0.4418  0.9197  0.4026
52582SOL     OW62302   5.808  11.605   1.923  0.5081 -0.0593  0.2829
52582SOL    HW162303   5.838  11.537   1.862  1.3488  0.5039  0.0525
52582SOL    HW262304   5.888  11.633   1.968 -0.0862 -0.4220  1.6119
52583SOL     OW62305   7.057   5.084   0.595  0.0994  0.0860 -0.2215
52583SOL    HW162306   7.132   5.141   0.613 -0.6263  1.2058 -0.6601
52583SOL    HW262307   7.091   5.018   0.534  0.5683  0.9323 -0.8866
52584SOL     OW62308   6.806   9.052   6.956  0.6835 -0.4704  0.0552
52584SOL    HW162309   6.775   8.962   6.967  2.0760 -0.7695  2.3699
52584SOL    HW262310   6.772   9.098   7.033  0.7481  0.7580 -0.6362
52585SOL     OW62311  10.258   4.448   2.292  0.0580  0.2660 -0.0397
52585SOL    HW162312  10.203   4.523   2.273 -0.5632 -0.2999 -0.4796
52585SOL    HW262313  10.232   4.381   2.229  2.1353  0.4094 -1.1303
52586SOL     OW62314   8.184  11.992   8.035 -0.2000 -0.2330 -0.1525
52586SOL    HW162315   8.167  11.960   7.946  2.6427 -0.2360 -0.7881
52586SOL    HW262316   8.237  11.923   8.076  1.5536  1.2594  0.2660
52587SOL     OW62317   0.889   0.768   1.642  0.1824 -0.7291  0.1701
52587SOL    HW162318   0.835   0.715   1.701 -1.1782  0.3142 -0.0928
52587SOL    HW262319   0.884   0.722   1.558  0.0117 -0.8279  0.2342
52588SOL     OW62320  11.977   7.432   6.758 -0.1882  0.5117 -0.0829
52588SOL    HW162321  12.059   7.480   6.747  0.3953 -0.4973 -0.2944
52588SOL    HW262322  11.990   7.383   6.840  0.4808 -1.6418 -1.4045
52589SOL     OW62323   6.695   1.238   2.956 -0.1806  0.0343 -0.3442
52589SOL    HW162324   6.603   1.243   2.980 -0.4238 -0.9019 -1.0330
52589SOL    HW262325   6.736   1.192   3.029 -0.1894  0.6840  0.0876
52590SOL     OW62326   7.506   4.432   6.558  0.1021  0.0114 -0.3934
52590SOL    HW162327   7.539   4.450   6.470  0.6539  1.4620  0.0825
52590SOL    HW262328   7.460   4.512   6.583  1.0396  0.1153  1.1173
52591SOL     OW62329   3.784   8.258   6.506 -0.1138  1.0125 -0.5799
52591SOL    HW162330   3.848   8.198   6.469 -0.6260 -0.1503  0.3473
52591SOL    HW262331   3.722   8.202   6.553 -1.9711  2.0663 -1.6465
52592SOL     OW62332   3.697   1.825   9.462 -0.2050  0.3488 -0.2971
52592SOL    HW162333   3.655   1.851   9.544  0.7243 -0.9319  0.6236
52592SOL    HW262334   3.726   1.735   9.477  0.1593  0.1549 -1.9753
52593SOL     OW62335   3.709   1.570   7.114 -0.0049 -0.0988 -0.1471
52593SOL    HW162336   3.755   1.498   7.071  0.2164  0.0535 -0.1694
52593SOL    HW262337   3.656   1.609   7.045 -0.2964 -0.3785 -0.0832
52594SOL     OW62338   6.887  10.021   8.533  0.3987 -0.0717  0.0178
52594SOL    HW162339   6.880   9.933   8.496 -0.7208 -0.4162  0.9740
52594SOL    HW262340   6.979  10.046   8.519  0.5935 -1.1568 -0.7649
52595SOL     OW62341   0.793   7.730   0.986 -0.3301  0.5754  0.7028
52595SOL    HW162342   0.778   7.636   0.978  0.4335  0.5424 -0.7516
52595SOL    HW262343   0.807   7.760   0.896 -1.4002  2.2444  1.0511
52596SOL     OW62344   2.196   2.354   4.441 -0.3945 -0.0784 -0.1219
52596SOL    HW162345   2.180   2.259   4.438 -0.3781 -0.0649 -1.7350
52596SOL    HW262346   2.234   2.370   4.527  1.0131 -1.7735 -0.3802
52597SOL     OW62347   2.836  11.441   2.969 -0.1839  0.7555  0.7225
52597SOL    HW162348   2.916  11.403   3.005  0.6525  2.8652  1.2056
52597SOL    HW262349   2.862  11.528   2.939 -2.0300  1.0027 -0.2707
52598SOL     OW62350   7.063   4.711   9.703  0.3766 -0.0944 -0.1577
52598SOL    HW162351   7.063   4.791   9.651  1.9699  0.6312  0.8796
52598SOL    HW262352   7.156   4.695   9.723  0.0723 -2.0563 -0.1078
52599SOL     OW62353   7.160   8.979   3.444  0.0921 -0.1436  0.5157
52599SOL    HW162354   7.127   8.893   3.468 -1.6058  0.3809  0.1885
52599SOL    HW262355   7.178   8.972   3.350  2.6952 -0.9330  0.9800
52600SOL     OW62356   6.814   8.428   1.842  0.4408  0.1964 -0.1633
52600SOL    HW162357   6.904   8.396   1.843  0.9568  1.5900 -0.0454
52600SOL    HW262358   6.807   8.481   1.921  0.1332  1.6871 -1.1552
52601SOL     OW62359  10.413   0.974   3.723 -0.2633 -0.5482  0.2511
52601SOL    HW162360  10.354   0.909   3.686  0.4027 -0.7855 -0.4134
52601SOL    HW262361  10.383   0.984   3.813 -1.7370 -0.1575 -0.2613
52602SOL     OW62362   5.447   6.721   5.458 -0.3427 -0.3705 -0.3675
52602SOL    HW162363   5.501   6.739   5.381  0.9655 -1.8995  0.1467
52602SOL    HW262364   5.366   6.771   5.443  0.9884  1.5771 -1.3860
52603SOL     OW62365   7.707   3.778   4.732  0.0580  0.2778  0.1411
52603SOL    HW162366   7.665   3.696   4.757 -0.2192  0.4421  0.2171
52603SOL    HW262367   7.673   3.797   4.644  0.1407  0.2985  0.1135
52604SOL     OW62368   3.402  10.292   9.656  0.6708  0.5199  0.4087
52604SOL    HW162369   3.392  10.238   9.735  0.5234  1.0776  0.7799
52604SOL    HW262370   3.496  10.303   9.646  0.7165 -0.1515  0.0922
52605SOL     OW62371   7.838   4.528   4.587  1.1917 -0.2882  0.4308
52605SOL    HW162372   7.850   4.504   4.495 -3.3001 -1.0514 -0.1880
52605SOL    HW262373   7.794   4.613   4.584 -1.0379 -1.3217  1.6676
52606SOL     OW62374   3.663  11.027   5.475  0.1889  0.7588  0.0472
52606SOL    HW162375   3.697  11.090   5.412  1.0900  0.4890  0.2509
52606SOL    HW262376   3.594  10.980   5.427 -0.3456  1.7414 -0.1681
52607SOL     OW62377   1.640   7.971   7.621 -0.1832  0.1511 -0.2240
52607SOL    HW162378   1.566   8.032   7.628  0.4981  0.8612  1.3276
52607SOL    HW262379   1.690   7.985   7.702 -0.9194 -3.7006  1.1215
52608SOL     OW62380  10.807   3.350   2.986 -0.5914 -0.7746 -0.1429
52608SOL    HW162381  10.721   3.332   2.948 -0.3012 -0.8260 -0.7878
52608SOL    HW262382  10.867   3.344   2.912 -0.2405  0.9522 -0.0340
52609SOL     OW62383   8.508   7.633   2.759 -0.2222  0.6396  0.2866
52609SOL    HW162384   8.439   7.567   2.769 -0.3534  0.4085 -1.7253
52609SOL    HW262385   8.587   7.582   2.741  0.4038  0.9321  2.0101
52610SOL     OW62386   1.364   2.673   4.611 -0.4118 -0.1811 -0.4835
52610SOL    HW162387   1.360   2.588   4.654  0.6186 -0.1128 -0.2219
52610SOL    HW262388   1.297   2.726   4.656 -1.6850 -1.0859 -1.2433
52611SOL     OW62389  12.084   3.160   0.368 -0.0013 -0.0928 -0.4092
52611SOL    HW162390  12.041   3.245   0.368  0.0130 -0.0200  1.9993
52611SOL    HW262391  12.014   3.097   0.386  0.3509 -0.3259  0.1819
52612SOL     OW62392   8.599   9.359   9.496  0.0621 -0.3961 -0.2380
52612SOL    HW162393   8.599   9.273   9.453 -1.2299 -0.8177  0.5334
52612SOL    HW262394   8.666   9.351   9.564 -1.7931 -1.8001  1.5847
52613SOL     OW62395   4.127  11.016   5.359  0.0656 -0.3645  0.3469
52613SOL    HW162396   4.103  11.004   5.267  0.2669  1.4486  0.0107
52613SOL    HW262397   4.094  11.103   5.381 -1.7888 -1.5471  2.6292
52614SOL     OW62398   9.188   6.455   3.519  0.2579 -0.0702  0.4915
52614SOL    HW162399   9.236   6.538   3.521 -0.4420  0.3350  2.1981
52614SOL    HW262400   9.193   6.427   3.428  1.5736  1.2168  0.1264
52615SOL     OW62401  10.837   5.697   9.559 -0.0431  0.1829  0.2057
52615SOL    HW162402  10.920   5.694   9.511 -0.6823 -2.7206 -0.8728
52615SOL    HW262403  10.863   5.705   9.651  1.3784  0.3618 -0.1839
52616SOL     OW62404   5.447   9.374   8.657  0.1414  0.4646 -0.4558
52616SOL    HW162405   5.366   9.329   8.677  0.6618  0.1714  1.1060
52616SOL    HW262406   5.473   9.340   8.572 -0.4150 -0.8307 -0.1279
52617SOL     OW62407   2.892   0.118   0.669  0.8286 -0.6019 -0.1011
52617SOL    HW162408   2.938   0.184   0.722 -0.6513 -1.2953  2.1690
52617SOL    HW262409   2.812   0.162   0.640  1.9136 -0.0027 -2.5029
52618SOL     OW62410   7.704  11.674   9.000  0.1842  0.5153 -0.1762
52618SOL    HW162411   7.672  11.750   9.050  0.8657  0.2169  0.7487
52618SOL    HW262412   7.644  11.668   8.926 -0.1429  1.7001 -0.0420
52619SOL     OW62413   8.730   9.781   1.079  0.8232 -0.1033 -0.4132
52619SOL    HW162414   8.811   9.819   1.115  0.0445 -0.0605  1.3820
52619SOL    HW262415   8.691   9.851   1.028  1.9923 -0.1814 -1.4585
52620SOL     OW62416   7.131  11.671   7.523 -0.1920 -0.0652 -0.0563
52620SOL    HW162417   7.112  11.726   7.599  0.8269  1.8247 -1.1123
52620SOL    HW262418   7.099  11.584   7.548 -0.0534  0.5350  2.4564
52621SOL     OW62419   5.346   8.790   7.680 -0.0856 -0.0321 -0.6025
52621SOL    HW162420   5.342   8.703   7.638  0.4855 -0.4985  0.2658
52621SOL    HW262421   5.286   8.784   7.754  1.9405 -0.6490  1.0910
52622SOL     OW62422   9.097   3.822   4.540 -0.2415  0.6258 -0.0536
52622SOL    HW162423   9.072   3.893   4.600  1.6073  1.1613  0.1532
52622SOL    HW262424   9.143   3.759   4.596  0.5209  0.5878 -0.7201
52623SOL     OW62425  11.302   0.859   0.534  0.1982 -0.7557  0.0796
52623SOL    HW162426  11.250   0.917   0.590  1.5416  0.1153  0.4814
52623SOL    HW262427  11.321   0.912   0.456  3.0013  0.1167  1.2420
52624SOL     OW62428   4.921   1.494  10.257  0.2090  0.6286  0.0744
52624SOL    HW162429   4.976   1.570  10.240  1.2214 -0.1446 -0.1468
52624SOL    HW262430   4.887   1.509  10.346  0.3038  1.3831 -0.0079
52625SOL     OW62431   4.219   4.392   7.510 -0.3746 -0.2995 -0.1687
52625SOL    HW162432   4.222   4.486   7.497  0.1800 -0.3586 -0.5123
52625SOL    HW262433   4.129   4.367   7.488 -0.3402  0.0560 -0.7297
52626SOL     OW62434  11.245  11.042   7.116 -0.0284 -0.8411 -0.2243
52626SOL    HW162435  11.158  11.026   7.152 -0.2994  0.0324 -0.4506
52626SOL    HW262436  11.271  11.126   7.154  2.4737 -2.8837  3.1206
52627SOL     OW62437   8.003  11.383   4.777 -0.5207 -0.1576 -0.6909
52627SOL    HW162438   8.046  11.461   4.812 -1.0808  0.1929 -0.7871
52627SOL    HW262439   8.014  11.390   4.682 -3.2633  1.4239 -0.9734
52628SOL     OW62440   2.874  10.603   2.143  0.4450  0.0848 -0.3315
52628SOL    HW162441   2.956  10.593   2.095  0.5822 -0.6721  0.0563
52628SOL    HW262442   2.844  10.514   2.160  0.5841  0.3171  1.3119
52629SOL     OW62443   0.190   8.862   8.326  0.0586  0.0696  0.0700
52629SOL    HW162444   0.216   8.774   8.351 -0.4497 -0.7194 -1.9390
52629SOL    HW262445   0.254   8.888   8.259 -0.6192  0.6528 -0.3687
52630SOL     OW62446  11.599   0.206   6.229 -0.3597 -0.2543  0.1304
52630SOL    HW162447  11.658   0.223   6.302  0.2743  1.1953 -0.6789
52630SOL    HW262448  11.513   0.194   6.270 -0.2503  1.8020  1.0563
52631SOL     OW62449  10.990   2.154  11.298  0.1415  0.4299 -0.8440
52631SOL    HW162450  11.065   2.130  11.351 -0.5874  1.4872  0.7580
52631SOL    HW262451  11.027   2.185  11.215  1.5502  1.8445  0.2606
52632SOL     OW62452   5.752   3.452   5.469  0.7206 -0.2732 -0.0656
52632SOL    HW162453   5.666   3.491   5.456  0.1225 -0.9676  1.4872
52632SOL    HW262454   5.813   3.526   5.468  0.0198  0.3060 -0.4587
52633SOL     OW62455   7.728   6.399   8.792 -0.2118  0.7623  0.3413
52633SOL    HW162456   7.707   6.389   8.885 -1.7231 -2.0766 -0.1980
52633SOL    HW262457   7.644   6.417   8.750  0.1199 -0.0099 -0.6912
52634SOL     OW62458   2.794   9.055   5.872 -0.1012  0.0116  0.2706
52634SOL    HW162459   2.724   8.991   5.877  0.1488 -0.2315  0.7484
52634SOL    HW262460   2.817   9.074   5.964 -1.3284  2.0771  0.2244
52635SOL     OW62461  10.759  10.247   4.457 -0.1564 -0.1567  0.4235
52635SOL    HW162462  10.722  10.333   4.476  0.4874  0.4913 -1.0924
52635SOL    HW262463  10.845  10.249   4.497  0.8067  0.8427 -1.5221
52636SOL     OW62464   1.952  10.420   6.242  0.0059  0.1387 -0.1764
52636SOL    HW162465   1.932  10.345   6.186 -2.2555  2.0228 -2.1457
52636SOL    HW262466   2.048  10.423   6.244  0.1687 -1.8409 -1.3492
52637SOL     OW62467  11.226   9.320   5.870  0.6688 -0.2766 -0.4713
52637SOL    HW162468  11.240   9.376   5.793 -1.9990  0.2145 -0.7105
52637SOL    HW262469  11.261   9.370   5.943  1.3260  0.2027 -1.1019
52638SOL     OW62470  10.893   1.524   1.642 -0.1120 -0.1813  0.6446
52638SOL    HW162471  10.899   1.517   1.737 -0.8702  0.6996  0.7790
52638SOL    HW262472  10.984   1.518   1.611  0.3782  1.5692  1.6075
52639SOL     OW62473   4.426  10.226   9.677 -0.0445 -0.2542  0.1998
52639SOL    HW162474   4.410  10.276   9.757  1.0559  1.9161 -0.8347
52639SOL    HW262475   4.492  10.277   9.630 -1.7087 -0.6130 -2.7884
52640SOL     OW62476   0.934  11.189   6.683  0.3888  0.6657  0.5643
52640SOL    HW162477   1.010  11.186   6.741  0.0616 -0.3809  0.9653
52640SOL    HW262478   0.891  11.105   6.696  1.1184 -0.2571 -2.3250
52641SOL     OW62479   4.889  11.342   6.597  0.1270  0.2334 -0.0619
52641SOL    HW162480   4.939  11.417   6.564  0.0826  0.5310  0.5269
52641SOL    HW262481   4.937  11.315   6.676 -0.6194  0.5007  0.4927
52642SOL     OW62482   1.235   2.894   3.733  0.0574 -0.3407 -0.1265
52642SOL    HW162483   1.224   2.854   3.820 -1.1094  0.0004 -0.0924
52642SOL    HW262484   1.267   2.982   3.752 -2.1904  0.4964  0.1397
52643SOL     OW62485   3.218   9.849  11.017  0.4582 -0.4008 -0.4022
52643SOL    HW162486   3.262   9.926  10.982  1.4629 -0.8006 -0.0365
52643SOL    HW262487   3.191   9.799  10.940  1.5109 -0.6355 -0.6348
52644SOL     OW62488   8.197   3.826   2.363 -0.3094 -0.3149  1.1749
52644SOL    HW162489   8.109   3.817   2.327 -0.5968  0.4691  1.6626
52644SOL    HW262490   8.185   3.869   2.447  0.5385 -0.2624  1.2845
52645SOL     OW62491   1.712  10.214   5.999  0.1171 -0.5730  0.3002
52645SOL    HW162492   1.681  10.164   5.923 -0.8175 -0.0930  0.3472
52645SOL    HW262493   1.644  10.201   6.065  1.0599 -1.2166  1.1700
52646SOL     OW62494   4.087  10.642   1.851 -0.3787 -0.3558  0.3539
52646SOL    HW162495   4.014  10.683   1.896 -0.2579 -1.4676  1.6139
52646SOL    HW262496   4.156  10.635   1.917 -0.6163 -3.1017  0.4213
52647SOL     OW62497   4.553   4.228   1.150  0.4263 -0.2061 -0.7201
52647SOL    HW162498   4.496   4.154   1.129 -1.5198  1.5407 -1.9564
52647SOL    HW262499   4.494   4.304   1.151  2.1119  1.2115  1.7026
52648SOL     OW62500   0.023  10.480   7.910  0.1305 -0.3723  0.1039
52648SOL    HW162501  -0.072  10.468   7.916  0.0378  0.3058  0.0180
52648SOL    HW262502   0.034  10.563   7.864  0.7717 -0.5692 -0.1108
52649SOL     OW62503   1.353   9.941  10.476  0.1620 -0.2081  0.9778
52649SOL    HW162504   1.391   9.935  10.564 -0.4888 -1.7686  1.1857
52649SOL    HW262505   1.429   9.934  10.418  0.4344 -0.8431  1.3979
52650SOL     OW62506   4.692  10.323  11.854 -0.3305  0.1673 -0.5994
52650SOL    HW162507   4.666  10.412  11.831 -1.2902  0.0476 -0.0382
52650SOL    HW262508   4.613  10.285  11.892  0.6771 -0.2365  1.1551
52651SOL     OW62509   4.909   0.014   1.459 -0.1177  0.0209 -0.7856
52651SOL    HW162510   4.903   0.107   1.436  2.2534 -0.1440 -2.4076
52651SOL    HW262511   4.895  -0.032   1.377  0.1004 -0.9964 -0.2653
52652SOL     OW62512   4.405   3.536  10.990  0.5468 -0.4610 -0.4233
52652SOL    HW162513   4.458   3.459  10.968  0.7460 -0.5717  0.4309
52652SOL    HW262514   4.433   3.561  11.078  1.0098  1.0342 -0.9530
52653SOL     OW62515   6.312   2.242   8.968 -0.1764  0.7742 -0.2142
52653SOL    HW162516   6.379   2.199   9.020  0.5188  0.8628 -1.0098
52653SOL    HW262517   6.358   2.271   8.889 -0.9465  1.6600 -0.3613
52654SOL     OW62518   1.749  11.450  10.347  0.0370  0.4743  0.5121
52654SOL    HW162519   1.706  11.534  10.336 -0.1403  0.3008 -0.1625
52654SOL    HW262520   1.762  11.417  10.258 -0.2100 -0.3639  0.7703
52655SOL     OW62521   6.375   6.953   6.658  0.0618  0.2425  0.4297
52655SOL    HW162522   6.467   6.959   6.686  0.7041 -1.8819 -0.9614
52655SOL    HW262523   6.358   6.858   6.654 -1.8273  0.5862 -0.5170
52656SOL     OW62524   8.240   4.644   2.267 -0.1203 -0.7964 -0.0856
52656SOL    HW162525   8.196   4.716   2.312 -0.3027 -0.3656 -0.9435
52656SOL    HW262526   8.332   4.654   2.291  0.4385  1.7857 -2.8377
52657SOL     OW62527   6.572   3.188   3.072 -0.6189  0.4054  0.3585
52657SOL    HW162528   6.633   3.255   3.103 -1.3710  1.3056 -0.0765
52657SOL    HW262529   6.598   3.109   3.120  0.9519  0.7281  0.1045
52658SOL     OW62530   5.498   1.870   0.785 -0.0141 -0.6192 -0.2787
52658SOL    HW162531   5.472   1.823   0.865  2.3928 -2.0732 -0.2636
52658SOL    HW262532   5.421   1.863   0.728 -2.0759  1.0913  2.0672
52659SOL     OW62533   6.857   5.041   7.502 -0.1163 -0.5880  0.0576
52659SOL    HW162534   6.911   4.984   7.447  0.1685 -0.1279 -0.1476
52659SOL    HW262535   6.793   5.079   7.442  1.4616  1.5203 -0.4352
52660SOL     OW62536   6.686   2.122   2.285  0.4415  0.1695 -0.4135
52660SOL    HW162537   6.757   2.098   2.345  2.1311  0.9581 -2.0026
52660SOL    HW262538   6.716   2.092   2.199 -2.4652 -2.0644 -0.7926
52661SOL     OW62539   3.938   7.806   7.511 -0.4739  0.0261  0.6120
52661SOL    HW162540   3.863   7.853   7.473  0.5143  0.7319 -0.5259
52661SOL    HW262541   3.915   7.714   7.501 -0.8358  0.2141 -0.5202
52662SOL     OW62542   5.596   1.729  10.107  0.1552 -0.2466 -0.5713
52662SOL    HW162543   5.562   1.734  10.196 -0.2551  0.2383 -0.7509
52662SOL    HW262544   5.645   1.647  10.104 -0.4403 -0.6222 -0.1089
52663SOL     OW62545   2.584   0.825   3.175  0.0337 -0.0139  0.3649
52663SOL    HW162546   2.517   0.856   3.114  0.4482 -0.1339 -0.1587
52663SOL    HW262547   2.535   0.779   3.243 -0.5395  1.2423  0.8258
52664SOL     OW62548  11.023   8.325   0.078 -0.1037  0.3360 -0.5292
52664SOL    HW162549  11.048   8.246   0.030  0.2242  0.3766 -0.4236
52664SOL    HW262550  10.943   8.300   0.124  0.8791 -0.4489  0.8090
52665SOL     OW62551   8.236   1.977  10.333  0.0934 -0.2355 -0.2636
52665SOL    HW162552   8.291   1.958  10.256  3.0898  0.0966  1.6418
52665SOL    HW262553   8.260   1.909  10.396 -0.2748  1.0535  1.3173
52666SOL     OW62554   6.605   8.260   4.310  0.0379 -0.4916 -0.3099
52666SOL    HW162555   6.559   8.210   4.242  1.9282 -0.4096 -1.7607
52666SOL    HW262556   6.650   8.193   4.362 -1.4255 -0.5537  0.9212
52667SOL     OW62557   3.553   8.200   9.568  0.1442  0.3081  0.4941
52667SOL    HW162558   3.558   8.280   9.515 -1.5827  2.2770  3.0580
52667SOL    HW262559   3.644   8.179   9.588  0.6166  2.6081  1.0435
52668SOL     OW62560   6.481   3.072   1.054  0.0055 -0.5590 -0.4012
52668SOL    HW162561   6.475   2.976   1.057  1.1209 -0.6173  0.3972
52668SOL    HW262562   6.531   3.096   1.132 -1.3101  0.7793  0.0845
52669SOL     OW62563  11.510   0.328   4.192 -0.0353  0.0596  0.3445
52669SOL    HW162564  11.467   0.407   4.159 -0.2811  0.8338  2.4150
52669SOL    HW262565  11.450   0.257   4.171  0.5487  0.2213 -2.2769
52670SOL     OW62566   0.393   0.486   7.076 -0.2951 -0.3081  0.0018
52670SOL    HW162567   0.318   0.538   7.045  1.5679  1.1224 -2.5103
52670SOL    HW262568   0.369   0.461   7.165 -4.3221 -1.1127 -1.0836
52671SOL     OW62569   4.525  12.025   2.339  0.3605 -0.0955 -0.0561
52671SOL    HW162570   4.549  12.065   2.256  0.6018 -0.9997 -0.4316
52671SOL    HW262571   4.589  11.955   2.352 -0.8825 -1.2909 -0.1308
52672SOL     OW62572  10.927   8.988   0.222  0.1484  0.1313  0.0229
52672SOL    HW162573  11.020   9.008   0.214  0.3004 -0.5546 -0.0054
52672SOL    HW262574  10.883   9.065   0.187  0.6989  0.5776  0.2966
52673SOL     OW62575   6.235   9.122   3.062  0.2040 -0.0627 -0.4651
52673SOL    HW162576   6.263   9.031   3.071  0.4362 -0.1294 -1.7755
52673SOL    HW262577   6.187   9.140   3.143  1.2201 -0.9596  0.3665
52674SOL     OW62578   9.673  11.913   1.389  0.4609 -0.0375  0.2782
52674SOL    HW162579   9.637  11.951   1.309  0.8769  0.0905  0.1480
52674SOL    HW262580   9.758  11.877   1.362 -0.8861 -3.1945 -0.1634
52675SOL     OW62581   5.467   3.757   4.509 -0.6210 -0.2632  0.2339
52675SOL    HW162582   5.498   3.825   4.449 -0.9624  1.1552  1.5964
52675SOL    HW262583   5.528   3.761   4.583  0.3568 -2.6072 -0.3402
52676SOL     OW62584  11.370   0.338   8.161 -0.8765 -0.4758 -0.2098
52676SOL    HW162585  11.313   0.315   8.235  0.0373 -0.7735  0.4201
52676SOL    HW262586  11.452   0.365   8.202 -0.7119  0.3905 -1.0872
52677SOL     OW62587  10.511   1.769  10.286  0.5733  0.0522 -0.2875
52677SOL    HW162588  10.542   1.725  10.207 -1.2247 -1.0545 -0.4419
52677SOL    HW262589  10.419   1.786  10.269  0.4191  0.7977  1.1553
52678SOL     OW62590   2.119   0.938   9.547 -0.5892  0.1733  0.2696
52678SOL    HW162591   2.199   0.956   9.595 -0.5317  0.3210  0.1202
52678SOL    HW262592   2.134   0.976   9.460 -0.7766  0.1040  0.2064
52679SOL     OW62593   5.277   0.556   9.890 -0.1509 -0.3127  0.1767
52679SOL    HW162594   5.274   0.576   9.797 -0.9625 -0.9343  0.0614
52679SOL    HW262595   5.359   0.596   9.921  0.6035 -0.9185 -0.9860
52680SOL     OW62596   0.633   4.199  11.389 -0.3667 -0.4512 -0.0044
52680SOL    HW162597   0.642   4.146  11.468 -2.6455  1.2127  1.5017
52680SOL    HW262598   0.721   4.233  11.372  0.0173 -0.0729  2.4281
52681SOL     OW62599   1.357   5.204   6.248  0.1575  0.7556  0.0005
52681SOL    HW162600   1.274   5.253   6.248  0.0832  0.6343  0.7751
52681SOL    HW262601   1.360   5.163   6.162 -0.5067  0.8972 -0.0962
52682SOL     OW62602   3.515   9.065   8.894  0.5845  0.5398  0.3768
52682SOL    HW162603   3.547   9.104   8.812  0.8602  1.1022  0.7456
52682SOL    HW262604   3.471   9.136   8.939  0.3183  0.1980  0.6633
52683SOL     OW62605   0.295  10.720   0.477  0.2674  0.1131 -0.2724
52683SOL    HW162606   0.202  10.698   0.482  0.4822 -0.7918  0.0317
52683SOL    HW262607   0.339  10.635   0.475  1.0982  0.5327 -0.2014
52684SOL     OW62608   4.068  11.253   9.807 -0.1108  0.4990 -0.2529
52684SOL    HW162609   4.052  11.177   9.862 -0.3871  0.6275 -0.1525
52684SOL    HW262610   4.014  11.322   9.846  1.2953  1.1718  0.5998
52685SOL     OW62611   3.648   5.614   4.067  0.5422 -0.0537 -0.0461
52685SOL    HW162612   3.650   5.524   4.035 -0.1007 -0.4460  0.9910
52685SOL    HW262613   3.651   5.606   4.162 -3.8270  0.7760  0.3752
52686SOL     OW62614  11.988   3.715   8.319  0.0443 -0.3066 -0.5790
52686SOL    HW162615  11.897   3.744   8.317  0.1464  0.0343 -0.4683
52686SOL    HW262616  12.031   3.768   8.252  0.4765  0.6474  0.4146
52687SOL     OW62617   4.312  10.697   5.711 -0.6025 -0.0390 -0.2824
52687SOL    HW162618   4.364  10.761   5.760 -0.1052 -0.5491 -0.1366
52687SOL    HW262619   4.375  10.629   5.686 -0.8915  0.0971 -1.4365
52688SOL     OW62620  11.143  10.134   0.124  0.4750 -0.1648  0.2855
52688SOL    HW162621  11.113  10.069   0.062  2.0637 -1.4146  0.7657
52688SOL    HW262622  11.065  10.159   0.173 -0.2443 -1.3219 -0.2532
52689SOL     OW62623  10.598   9.498   6.938  0.3968 -0.0605 -0.0924
52689SOL    HW162624  10.555   9.514   7.022 -2.0218 -1.2207 -1.0170
52689SOL    HW262625  10.618   9.404   6.938 -0.6632 -0.3200 -1.2043
52690SOL     OW62626   2.430   3.834   6.681  0.2967 -0.1726 -0.5544
52690SOL    HW162627   2.338   3.837   6.653 -0.2066 -0.8778  0.9387
52690SOL    HW262628   2.480   3.844   6.600 -1.0879 -0.8481 -1.5319
52691SOL     OW62629   4.984   8.193   9.904 -0.0562  0.8591  0.2538
52691SOL    HW162630   4.994   8.256   9.975  0.5864  1.1056 -0.0516
52691SOL    HW262631   5.063   8.139   9.909  0.2919  1.2703 -0.6601
52692SOL     OW62632   8.897   4.523   9.238  0.1464  0.1246  0.0429
52692SOL    HW162633   8.955   4.555   9.168  0.7480  2.2543  1.3990
52692SOL    HW262634   8.858   4.444   9.203  0.0278  1.3710 -2.9124
52693SOL     OW62635  10.281  11.297  10.383 -0.3465  0.9364 -0.4504
52693SOL    HW162636  10.285  11.379  10.332 -1.6517  0.3138 -1.6398
52693SOL    HW262637  10.289  11.228  10.317 -2.7176  0.0865  0.0587
52694SOL     OW62638   0.128   8.192  12.126 -0.5521  0.1348  0.2227
52694SOL    HW162639   0.199   8.255  12.126 -1.0983  0.7657  0.5832
52694SOL    HW262640   0.131   8.152  12.040  0.1627  0.2357  0.1968
52695SOL     OW62641  10.238   1.484   3.251 -0.3345 -0.1997 -0.4001
52695SOL    HW162642  10.211   1.576   3.249 -0.4081 -0.2074  0.0501
52695SOL    HW262643  10.160   1.435   3.226 -1.0850 -0.2829  1.8277
52696SOL     OW62644   2.583   5.496   8.338  0.5463 -0.0866  0.0325
52696SOL    HW162645   2.535   5.510   8.420  0.3751  1.9646 -0.3805
52696SOL    HW262646   2.534   5.426   8.294 -1.2574  0.9563  0.2777
52697SOL     OW62647  11.829   8.494   2.718  0.3359 -0.2766 -0.0693
52697SOL    HW162648  11.801   8.570   2.771  0.3172 -0.2140 -0.1701
52697SOL    HW262649  11.748   8.450   2.695  0.2263  0.5377 -1.3220
52698SOL     OW62650  10.880   6.924   4.175 -0.2097 -0.0104 -0.2161
52698SOL    HW162651  10.788   6.914   4.200  0.5647 -0.2272  3.1157
52698SOL    HW262652  10.893   7.019   4.172 -0.5943  0.0234 -1.0013
52699SOL     OW62653   5.562   9.852   1.716  0.1839 -0.2029 -0.0846
52699SOL    HW162654   5.592   9.872   1.804  1.3104  0.6270 -0.6313
52699SOL    HW262655   5.482   9.904   1.705  0.5274  0.3758  0.1397
52700SOL     OW62656   3.826   5.344   4.383  0.2727 -0.3464  0.6388
52700SOL    HW162657   3.907   5.393   4.392  0.0820  0.0370  0.2772
52700SOL    HW262658   3.854   5.256   4.358  0.6168 -0.4476  1.3549
52701SOL     OW62659   5.376  10.866   2.311 -0.3512  0.2584 -0.3474
52701SOL    HW162660   5.310  10.936   2.307 -3.8502 -2.5407  1.5581
52701SOL    HW262661   5.407  10.868   2.402  0.4264  0.0826 -0.6072
52702SOL     OW62662   1.882   9.583   7.122 -0.0724  0.3138  0.2976
52702SOL    HW162663   1.889   9.619   7.034 -1.1584 -0.0182  0.0600
52702SOL    HW262664   1.916   9.653   7.179 -0.5262  1.0324 -0.2896
52703SOL     OW62665   1.645  10.005   8.632 -0.0639 -0.0400 -0.3772
52703SOL    HW162666   1.634   9.954   8.551  1.0401 -0.9191 -0.0018
52703SOL    HW262667   1.631  10.095   8.605  2.6130 -0.0229 -2.1159
52704SOL     OW62668  11.377   9.474   2.480  0.1839 -0.8252 -0.2653
52704SOL    HW162669  11.392   9.563   2.446  0.4835 -0.4006  0.9526
52704SOL    HW262670  11.446   9.460   2.544 -1.1608 -1.0773  1.1920
52705SOL     OW62671   7.410  10.086  10.389 -0.7759  0.2989 -0.2044
52705SOL    HW162672   7.486  10.144  10.376 -0.8781  0.6087  0.5450
52705SOL    HW262673   7.447  10.006  10.426 -1.0907  1.6037  3.3128
52706SOL     OW62674   0.882   8.795  11.229 -0.1541  0.4499  0.0230
52706SOL    HW162675   0.885   8.790  11.134  1.8251  2.6204 -0.1286
52706SOL    HW262676   0.874   8.888  11.248  1.1222  0.2304  1.9599
52707SOL     OW62677   9.393   7.329   8.731  0.2485 -0.1249 -0.0829
52707SOL    HW162678   9.383   7.234   8.743  0.2250 -0.2675 -1.1878
52707SOL    HW262679   9.350   7.348   8.648  0.0105  0.9054  0.2615
52708SOL     OW62680   0.222  11.538   3.534 -0.0899  0.8004  0.3233
52708SOL    HW162681   0.235  11.557   3.627 -0.4044 -0.6587  0.6808
52708SOL    HW262682   0.130  11.513   3.527 -0.3566  1.9151 -0.5855
52709SOL     OW62683   9.997   8.008   2.943 -0.3396  0.1073  0.2838
52709SOL    HW162684   9.936   7.938   2.967 -0.8320 -0.1195 -1.4843
52709SOL    HW262685   9.945   8.067   2.890  0.8578  0.1467 -0.8932
52710SOL     OW62686   5.695  11.108  10.208 -0.3469 -0.4377  0.2553
52710SOL    HW162687   5.733  11.156  10.281  0.5694  1.5467 -1.4245
52710SOL    HW262688   5.609  11.147  10.194  0.3116  0.6538 -0.9781
52711SOL     OW62689   2.183   9.501   5.241  0.3410 -0.1093 -0.3571
52711SOL    HW162690   2.108   9.490   5.299 -0.5395  0.1696 -1.3913
52711SOL    HW262691   2.153   9.466   5.157  1.5934 -0.5498 -0.6484
52712SOL     OW62692   5.868   6.836   1.744  0.7051  0.2927  0.2370
52712SOL    HW162693   5.845   6.833   1.836 -2.6445  0.7382 -0.4737
52712SOL    HW262694   5.908   6.922   1.731 -1.9555  1.6924  0.7247
52713SOL     OW62695  10.278   1.487   0.661  0.0877  0.0427 -0.2343
52713SOL    HW162696  10.239   1.574   0.654 -1.3137 -0.5993 -0.6498
52713SOL    HW262697  10.205   1.428   0.678  1.0789 -1.0047  0.5900
52714SOL     OW62698   4.049   2.434   3.788 -0.5105  0.1759 -0.7796
52714SOL    HW162699   4.125   2.429   3.729  0.8151 -1.4455  0.9352
52714SOL    HW262700   4.084   2.476   3.868 -1.4616 -0.4073 -0.0362
52715SOL     OW62701   6.324   8.499   2.866 -0.4327 -0.2251  0.5392
52715SOL    HW162702   6.266   8.561   2.822 -1.6061 -0.9536  0.9921
52715SOL    HW262703   6.356   8.546   2.944 -0.8360  0.0128  0.5617
52716SOL     OW62704  11.884   3.580   0.852  0.2046 -0.2432 -0.1577
52716SOL    HW162705  11.966   3.545   0.818 -0.0481  0.5469 -1.6992
52716SOL    HW262706  11.816   3.524   0.814  0.0303 -1.1690  1.4669
52717SOL     OW62707   3.682   1.861   1.927  0.0326  0.0992 -0.2667
52717SOL    HW162708   3.670   1.777   1.881  1.7643 -1.0650  1.2586
52717SOL    HW262709   3.594   1.898   1.933 -0.7580 -1.5298 -1.1168
52718SOL     OW62710   4.538   6.679   2.352  0.1182  0.3043 -0.2601
52718SOL    HW162711   4.566   6.678   2.443  0.5777 -1.4311 -0.3903
52718SOL    HW262712   4.443   6.680   2.355  0.0241 -2.7592  0.3219
52719SOL     OW62713   6.960   1.883  11.699 -0.3947  0.4454  0.3418
52719SOL    HW162714   7.027   1.829  11.742 -2.1287 -0.9121  1.5046
52719SOL    HW262715   6.877   1.851  11.735 -1.8033  1.0221 -2.1284
52720SOL     OW62716   0.809   1.081   3.513  0.1090 -0.4108 -0.1840
52720SOL    HW162717   0.779   1.011   3.456  1.7118 -0.3541 -1.1491
52720SOL    HW262718   0.875   1.128   3.462 -0.1195  1.1303  0.8426
52721SOL     OW62719   1.387   1.834   7.661 -0.0747  0.6754 -0.3569
52721SOL    HW162720   1.368   1.925   7.684 -1.5380  0.4662 -0.6624
52721SOL    HW262721   1.308   1.785   7.685  0.1100 -0.2736 -1.5744
52722SOL     OW62722  11.695   9.708   5.598  0.0024 -0.3379  0.3721
52722SOL    HW162723  11.715   9.707   5.504  1.7444  1.3040  0.6816
52722SOL    HW262724  11.601   9.728   5.602  0.1434  0.7594 -1.0271
52723SOL     OW62725   7.130   9.079   9.379  0.3980  0.3641  0.2510
52723SOL    HW162726   7.164   9.160   9.417  0.5067  1.2250 -1.5669
52723SOL    HW262727   7.197   9.052   9.316 -0.4951 -0.1130 -0.5119
52724SOL     OW62728   0.090   0.850   9.848  0.5804  0.7748  0.7194
52724SOL    HW162729   0.064   0.758   9.849  0.5142  0.6969 -1.8672
52724SOL    HW262730   0.008   0.898   9.853  0.2430  0.5857 -1.7586
52725SOL     OW62731   7.324  10.435  10.758 -0.0534 -0.5349 -0.4215
52725SOL    HW162732   7.255  10.447  10.693  0.2249 -0.2956 -0.6750
52725SOL    HW262733   7.288  10.472  10.839 -0.3620 -0.7419 -0.4617
52726SOL     OW62734   7.321   9.322  11.322 -0.4907  0.0431 -0.2230
52726SOL    HW162735   7.343   9.240  11.278 -0.5657  0.5801 -1.3168
52726SOL    HW262736   7.405   9.368  11.330 -0.5390  0.1219 -0.1680
52727SOL     OW62737  11.871   0.792   2.649 -0.0117  0.0974  0.1534
52727SOL    HW162738  11.885   0.887   2.641 -1.0211  0.2464  0.0513
52727SOL    HW262739  11.916   0.768   2.730 -0.1413  0.7480  0.4264
52728SOL     OW62740   6.181   5.194   9.134 -0.5316 -0.0476 -0.1169
52728SOL    HW162741   6.169   5.107   9.096 -0.7966  0.7346 -1.9306
52728SOL    HW262742   6.199   5.250   9.059 -0.0791  1.4170  1.0547
52729SOL     OW62743   0.204   4.817   4.495 -0.0688  0.2600  0.2308
52729SOL    HW162744   0.108   4.811   4.500 -0.0598 -0.5790 -0.3581
52729SOL    HW262745   0.232   4.728   4.474  0.8455  0.4979  0.4289
52730SOL     OW62746   3.558   4.588   9.785  0.3007 -0.2827 -0.0838
52730SOL    HW162747   3.626   4.618   9.725 -0.2599 -2.4486 -1.9380
52730SOL    HW262748   3.574   4.494   9.794 -0.9777 -0.4045  1.4544
52731SOL     OW62749   6.094   7.007   6.246  0.1888  0.2520  0.1794
52731SOL    HW162750   6.031   7.075   6.270  0.5608  1.1930 -1.3967
52731SOL    HW262751   6.072   6.983   6.157  0.7576 -0.9317  0.3388
52732SOL     OW62752   7.481  11.465   9.657  0.2411  0.8187  0.5965
52732SOL    HW162753   7.541  11.534   9.685  2.0040 -0.1869 -0.5405
52732SOL    HW262754   7.492  11.395   9.722  1.2711  0.1441 -0.2645
52733SOL     OW62755  11.399  12.016   5.544  0.1145  0.0298  0.1582
52733SOL    HW162756  11.415  12.110   5.551 -1.5188  0.3524 -0.1021
52733SOL    HW262757  11.353  12.006   5.461 -2.2331 -0.6125  1.4620
52734SOL     OW62758   3.072   8.188   0.810  0.0356  0.2820  0.2668
52734SOL    HW162759   3.003   8.249   0.836  0.9542  1.3557  0.2597
52734SOL    HW262760   3.154   8.237   0.821  0.6641 -0.1776 -1.8363
52735SOL     OW62761   2.641   8.626   3.088  0.3108 -0.5140 -0.3967
52735SOL    HW162762   2.635   8.595   2.998  0.2507 -1.4455 -0.0839
52735SOL    HW262763   2.700   8.564   3.131  1.1325  0.4887 -0.0282
52736SOL     OW62764   5.201   6.733   1.149 -0.1971  0.1251  0.1837
52736SOL    HW162765   5.245   6.813   1.120 -2.9244  1.7479  0.1723
52736SOL    HW262766   5.173   6.752   1.238 -2.3762 -0.0947 -0.4084
52737SOL     OW62767   5.987   3.660   6.828  0.5203 -0.0816 -0.7134
52737SOL    HW162768   6.065   3.698   6.868  0.4418 -1.4374  0.8298
52737SOL    HW262769   5.985   3.697   6.740  2.1444  1.0192 -0.3373
52738SOL     OW62770   4.925   9.493   4.835  0.1918  0.6892 -0.1307
52738SOL    HW162771   4.941   9.425   4.770 -0.9646 -0.6513  0.9033
52738SOL    HW262772   4.864   9.553   4.792 -0.2853  0.0130 -0.4160
52739SOL     OW62773   9.439   9.965   3.090 -0.6474  0.2228 -0.1545
52739SOL    HW162774   9.494   9.949   3.166 -1.3425  1.1773  0.5663
52739SOL    HW262775   9.473   9.905   3.023  0.9031  0.4086  0.4288
52740SOL     OW62776   7.230   5.095   0.163 -0.0009  0.0394 -0.1698
52740SOL    HW162777   7.189   5.166   0.113  0.5246  1.1310  0.8852
52740SOL    HW262778   7.287   5.051   0.100 -0.1465  0.7294 -0.7976
52741SOL     OW62779   0.333  11.167   2.273  0.4425 -0.2527  0.3015
52741SOL    HW162780   0.298  11.085   2.308  0.3515 -0.9452 -1.3036
52741SOL    HW262781   0.423  11.147   2.249 -0.3655 -0.8225 -2.7434
52742SOL     OW62782   1.098   7.628   0.994  0.0588 -0.2561  0.4128
52742SOL    HW162783   1.165   7.671   1.048  1.5380 -1.3096 -0.5104
52742SOL    HW262784   1.071   7.696   0.932  1.7517 -0.3393 -0.4767
52743SOL     OW62785   6.891   2.873   9.216  0.2595  0.1764  0.3566
52743SOL    HW162786   6.901   2.842   9.127 -0.0394 -0.5198  0.5578
52743SOL    HW262787   6.797   2.863   9.235  0.8061 -3.2676  1.9997
52744SOL     OW62788   5.972   4.880   3.937  0.9112  0.0001  0.4824
52744SOL    HW162789   6.061   4.880   3.971  1.1724  0.0227 -0.1914
52744SOL    HW262790   5.952   4.788   3.921  1.0932  0.0547 -0.0771
52745SOL     OW62791   9.454  10.412   8.709  0.0953 -0.6877  0.2959
52745SOL    HW162792   9.396  10.337   8.697  1.1232 -1.7305  1.4879
52745SOL    HW262793   9.461  10.421   8.804 -0.7641  1.5667  0.2216
52746SOL     OW62794   0.200   1.743   0.866 -0.5804 -0.0101 -0.1152
52746SOL    HW162795   0.126   1.683   0.871  0.5046 -1.2939  2.3701
52746SOL    HW262796   0.267   1.694   0.819 -0.4152  0.1062 -0.0016
52747SOL     OW62797   5.765   8.993   8.134 -0.0612 -0.2972 -0.3747
52747SOL    HW162798   5.741   8.905   8.104 -0.2369 -1.1707  2.1267
52747SOL    HW262799   5.859   8.988   8.151 -0.0104  0.1149 -0.5180
52748SOL     OW62800   9.938   6.100   6.478  0.1505 -0.0285  0.0353
52748SOL    HW162801   9.854   6.130   6.442  0.3738  0.0930 -0.3865
52748SOL    HW262802   9.973   6.040   6.412  2.1871  2.7764 -1.6640
52749SOL     OW62803  11.135   8.248   0.452 -0.5528  0.0225 -0.1433
52749SOL    HW162804  11.161   8.273   0.541 -0.3996  0.0176 -0.1866
52749SOL    HW262805  11.216   8.252   0.402 -1.1458  3.6374 -1.1393
52750SOL     OW62806  11.296  11.880   7.811  0.2077  0.0667 -0.1764
52750SOL    HW162807  11.312  11.857   7.902  1.9213  0.4101 -0.3489
52750SOL    HW262808  11.262  11.800   7.771 -0.9262  0.0307  0.8385
52751SOL     OW62809   9.361   0.693   0.934 -0.0044 -0.2233 -0.3713
52751SOL    HW162810   9.279   0.667   0.893 -0.1602  1.3562 -1.1475
52751SOL    HW262811   9.358   0.655   1.021 -2.9262  2.1673  0.7211
52752SOL     OW62812  10.859   1.383   1.390  0.3635 -0.1231 -0.0436
52752SOL    HW162813  10.816   1.396   1.475 -0.5419 -0.9689 -0.3598
52752SOL    HW262814  10.940   1.434   1.397  0.3435 -0.2328  1.3593
52753SOL     OW62815   5.621  10.142  10.887  0.3005  0.4814 -0.1345
52753SOL    HW162816   5.576  10.225  10.897  0.9030  0.5474  2.9129
52753SOL    HW262817   5.580  10.084  10.952  0.6418 -1.2876 -1.4090
52754SOL     OW62818   1.351   7.683   1.854  0.0358  0.6709  0.7566
52754SOL    HW162819   1.329   7.608   1.799 -0.2783  1.4080 -0.1440
52754SOL    HW262820   1.417   7.649   1.915  0.4666 -0.1328 -0.1369
52755SOL     OW62821   7.590   2.112   7.076 -0.0055  0.8575  0.5270
52755SOL    HW162822   7.620   2.155   6.995  0.0510  1.2681  0.7620
52755SOL    HW262823   7.495   2.108   7.067  0.0904 -0.3076 -0.1537
52756SOL     OW62824  11.161   4.324   0.948 -0.0277 -0.1299 -0.0932
52756SOL    HW162825  11.234   4.381   0.925 -0.6768  0.8491  0.2203
52756SOL    HW262826  11.173   4.303   1.040  0.3595 -0.7461 -0.2749
52757SOL     OW62827  11.120   4.884   6.979 -0.4247 -0.5225  0.0946
52757SOL    HW162828  11.037   4.844   7.006  0.3529 -2.0093  0.4359
52757SOL    HW262829  11.180   4.863   7.050  0.2862  0.4206 -0.2143
52758SOL     OW62830  11.404   7.246   5.659  0.2892 -0.2919  0.0936
52758SOL    HW162831  11.314   7.261   5.629  0.4157  1.9644  0.6468
52758SOL    HW262832  11.436   7.175   5.604 -1.4146 -0.2937 -0.9809
52759SOL     OW62833  12.034   1.599   2.774 -0.6029 -0.3319  0.9190
52759SOL    HW162834  12.021   1.506   2.794 -1.8112 -0.4725 -0.3373
52759SOL    HW262835  12.008   1.644   2.854 -0.2023 -1.0724  1.4735
52760SOL     OW62836   4.495   1.148   2.216 -0.4334  0.3341 -0.7743
52760SOL    HW162837   4.474   1.079   2.153 -0.5649  0.4465 -0.8537
52760SOL    HW262838   4.558   1.204   2.170  1.4825 -1.0129  0.0959
52761SOL     OW62839   9.372   8.025   8.086  0.3750 -0.3948  0.0653
52761SOL    HW162840   9.282   8.025   8.118  0.2298 -2.9152 -0.1269
52761SOL    HW262841   9.367   8.069   8.001 -0.3754  0.7958  0.6966
52762SOL     OW62842   5.786   8.439   9.962 -0.4574 -0.3013  0.1369
52762SOL    HW162843   5.734   8.478   9.891 -2.5753 -0.4091  1.5228
52762SOL    HW262844   5.720   8.404  10.023  1.2924 -0.9487  1.7455
52763SOL     OW62845   8.652   2.208   6.644  0.4130 -0.0138  0.4793
52763SOL    HW162846   8.701   2.289   6.629  0.3688  0.2858  1.7665
52763SOL    HW262847   8.644   2.203   6.740  0.6194 -1.6610  0.4461
52764SOL     OW62848   0.706  10.415   8.203  0.6344  0.0452 -0.1998
52764SOL    HW162849   0.644  10.488   8.211  1.1289  0.3456  1.1349
52764SOL    HW262850   0.659  10.350   8.151 -0.6210  0.4704  0.3657
52765SOL     OW62851   3.148   9.921   6.849  0.1705  0.0673  0.3701
52765SOL    HW162852   3.123   9.880   6.767  0.5654  1.3599 -0.4247
52765SOL    HW262853   3.192   9.852   6.899  0.7946 -0.4794 -0.9112
52766SOL     OW62854  10.413   4.868   0.846  0.1083 -0.3245 -0.1491
52766SOL    HW162855  10.504   4.894   0.834  0.3700 -0.9438  0.4345
52766SOL    HW262856  10.406   4.782   0.804 -0.4456  0.1201 -1.0042
52767SOL     OW62857   4.862  11.000   4.965 -0.1018 -0.3907  0.8241
52767SOL    HW162858   4.898  10.990   5.053  0.9236  1.9626  0.7354
52767SOL    HW262859   4.794  11.067   4.974 -0.1630 -0.3059 -0.1132
52768SOL     OW62860   7.627   1.052   2.530 -0.7823  0.1867 -0.1394
52768SOL    HW162861   7.555   1.115   2.525 -1.2079 -0.3492 -0.9172
52768SOL    HW262862   7.595   0.983   2.589 -0.3100  0.6867  0.7249
52769SOL     OW62863   5.675   0.265   7.692  0.5715 -0.1540 -0.2537
52769SOL    HW162864   5.750   0.308   7.733  0.2223 -0.1066  0.3556
52769SOL    HW262865   5.633   0.333   7.640 -0.4920  0.5337  1.3988
52770SOL     OW62866  10.663   4.176   7.018 -0.4281  0.4932  0.1831
52770SOL    HW162867  10.694   4.154   7.106  0.3678  0.4575 -0.1001
52770SOL    HW262868  10.742   4.178   6.965 -0.9389  0.2214 -0.5964
52771SOL     OW62869   7.127   8.244   3.180  0.3124 -0.5500  0.3910
52771SOL    HW162870   7.046   8.239   3.129  0.7567  0.6063 -0.4740
52771SOL    HW262871   7.192   8.199   3.126  0.2246 -1.6560  1.1748
52772SOL     OW62872   4.831   7.443   8.497  0.6767 -0.5143 -0.2316
52772SOL    HW162873   4.766   7.466   8.430  1.6534 -1.9878 -1.7466
52772SOL    HW262874   4.871   7.527   8.520 -1.3438  0.3622  0.3607
52773SOL     OW62875  11.262   0.449   4.439  0.3220 -0.1892  0.2734
52773SOL    HW162876  11.280   0.526   4.385  1.3829  0.3596  1.3810
52773SOL    HW262877  11.349   0.415   4.462 -0.1197 -0.7179  1.2010
52774SOL     OW62878   4.139   0.801   5.224 -0.0004  0.5641 -0.1451
52774SOL    HW162879   4.159   0.749   5.146 -2.3621 -0.0084 -0.4356
52774SOL    HW262880   4.080   0.747   5.275 -1.3311  2.3237  0.2805
52775SOL     OW62881   2.842   7.489   5.953 -0.4203 -0.1949 -0.7811
52775SOL    HW162882   2.915   7.509   6.011 -0.7897  0.3352 -0.4829
52775SOL    HW262883   2.781   7.440   6.008 -0.4440 -0.3350 -0.9323
52776SOL     OW62884   1.916   9.351   0.524 -0.0082  0.0179 -0.1967
52776SOL    HW162885   1.946   9.412   0.592  0.2174  0.3602 -0.5974
52776SOL    HW262886   1.929   9.264   0.562  1.0560  0.1754 -0.1752
52777SOL     OW62887  11.544  11.251   8.854  0.3986  0.6799  0.0216
52777SOL    HW162888  11.636  11.274   8.854  0.1816  1.8441 -2.3604
52777SOL    HW262889  11.512  11.279   8.769 -2.7249  2.4921  1.6097
52778SOL     OW62890   2.877   4.164   2.633 -0.3042  0.0343 -0.1499
52778SOL    HW162891   2.919   4.194   2.713 -1.1346 -0.0260  0.3158
52778SOL    HW262892   2.950   4.142   2.575  0.3137  1.1655  0.1654
52779SOL     OW62893   7.840   3.072   6.453 -0.5953  0.4449  0.2296
52779SOL    HW162894   7.829   3.067   6.358  0.8874 -1.7502  0.0845
52779SOL    HW262895   7.765   3.025   6.488 -0.8783  0.8153  0.1258
52780SOL     OW62896   4.592   6.812   9.479  0.1413 -0.0501 -0.0824
52780SOL    HW162897   4.663   6.864   9.515 -0.8100  0.9932  0.3325
52780SOL    HW262898   4.565   6.755   9.551  0.4313 -0.3261 -0.1884
52781SOL     OW62899  10.110  11.720   0.368  0.0571 -0.0438  0.3700
52781SOL    HW162900  10.038  11.709   0.306 -0.7243 -1.4397  1.4589
52781SOL    HW262901  10.186  11.681   0.324 -0.7001 -1.8909  0.6181
52782SOL     OW62902   3.906  10.286   0.361 -0.5987  0.2359  0.6191
52782SOL    HW162903   3.928  10.288   0.454  0.0267  1.4788  0.4645
52782SOL    HW262904   3.966  10.348   0.321  0.5644 -1.8156 -0.9633
52783SOL     OW62905  11.561   1.287   2.240  0.3063  0.9215  0.4830
52783SOL    HW162906  11.596   1.303   2.152  1.0247  0.5868  0.7006
52783SOL    HW262907  11.571   1.370   2.285 -0.6585  1.2806  0.0585
52784SOL     OW62908   5.882   9.713   3.155 -0.0845  0.4116  0.2570
52784SOL    HW162909   5.932   9.739   3.077  0.8638 -1.3072  0.2319
52784SOL    HW262910   5.868   9.794   3.202  1.5585  1.1700 -0.4560
52785SOL     OW62911   0.281   6.476   4.665 -1.2164 -0.2870  0.3805
52785SOL    HW162912   0.252   6.544   4.604  1.1864 -1.5151 -2.3976
52785SOL    HW262913   0.223   6.402   4.647 -0.2986 -0.7618 -0.7809
52786SOL     OW62914   6.121   7.551   5.235  0.0386  0.3351 -0.4224
52786SOL    HW162915   6.027   7.556   5.219 -0.2783  2.6777  1.5347
52786SOL    HW262916   6.160   7.600   5.162 -0.6249  2.6763  0.7104
52787SOL     OW62917   2.273   1.457   9.377 -0.1282  0.2509  0.0873
52787SOL    HW162918   2.197   1.412   9.413  0.0295 -0.4606 -0.4455
52787SOL    HW262919   2.339   1.453   9.446 -0.5942  0.9510  0.5859
52788SOL     OW62920   7.425   6.954   2.122 -0.1566 -0.1907 -0.3694
52788SOL    HW162921   7.409   6.893   2.050  1.0979  1.5150 -2.1935
52788SOL    HW262922   7.514   6.986   2.108 -0.4219  1.3476  1.0726
52789SOL     OW62923   7.757  11.578   6.325  0.7200 -0.2277 -0.0767
52789SOL    HW162924   7.740  11.530   6.406 -0.8302  2.3903  1.2948
52789SOL    HW262925   7.841  11.621   6.340 -0.7262  2.3558  1.4047
52790SOL     OW62926   5.181   6.041   6.338  0.1499  0.4413 -0.6861
52790SOL    HW162927   5.173   5.995   6.421  1.9443 -1.0119 -1.2628
52790SOL    HW262928   5.116   6.000   6.281 -1.0247  1.3843 -0.0665
52791SOL     OW62929   2.529   4.452   7.359  0.1913  0.4950  0.6962
52791SOL    HW162930   2.593   4.439   7.289  0.6963  0.6320  1.1269
52791SOL    HW262931   2.444   4.439   7.316  0.4474  1.4284 -0.1453
52792SOL     OW62932   4.334  10.357   6.430  0.4573 -0.0868 -0.3800
52792SOL    HW162933   4.383  10.283   6.395 -0.8295  0.1486 -2.9102
52792SOL    HW262934   4.373  10.434   6.389  1.0946  0.6097  1.4040
52793SOL     OW62935   3.304   2.207  10.327 -0.9173 -0.2258 -0.2567
52793SOL    HW162936   3.230   2.183  10.272 -0.6936  0.9303 -1.1142
52793SOL    HW262937   3.287   2.298  10.352 -0.0238 -0.0996 -0.0646
52794SOL     OW62938  10.557   6.934   9.737  0.0381 -0.1123  0.5607
52794SOL    HW162939  10.622   6.871   9.768  0.1681 -1.0370 -1.4485
52794SOL    HW262940  10.476   6.909   9.781  0.6181 -0.1050  1.6694
52795SOL     OW62941   8.495  11.075   3.454 -0.0451  0.5742  0.3307
52795SOL    HW162942   8.439  11.063   3.531 -0.0452 -0.8274  0.1380
52795SOL    HW262943   8.444  11.129   3.395 -0.1221  1.5105  1.2307
52796SOL     OW62944   4.899   8.640   5.013 -0.5976  0.2699  0.2927
52796SOL    HW162945   4.839   8.570   5.039  0.7560 -1.0870 -0.1047
52796SOL    HW262946   4.969   8.595   4.966  0.5349  1.8528  0.4023
52797SOL     OW62947   3.845   2.195  11.320 -0.0553 -0.9671 -0.5544
52797SOL    HW162948   3.875   2.114  11.361 -1.6422 -1.5678 -0.4795
52797SOL    HW262949   3.769   2.221  11.372  0.6396  0.7766 -0.3719
52798SOL     OW62950   4.252   8.154   1.572 -0.6542 -0.2451  0.2250
52798SOL    HW162951   4.167   8.154   1.529 -0.9575  1.0694  0.7784
52798SOL    HW262952   4.314   8.176   1.503 -1.1405  1.8814  0.3815
52799SOL     OW62953   4.827   9.757   0.728 -0.2135 -0.6356 -0.5718
52799SOL    HW162954   4.802   9.728   0.815 -1.3531  0.2273 -0.5806
52799SOL    HW262955   4.780   9.698   0.668 -0.8280 -0.1483 -0.5854
52800SOL     OW62956   4.545   6.833   7.569  0.5079 -0.2382  0.0798
52800SOL    HW162957   4.512   6.798   7.486 -0.9058  1.8682 -0.3110
52800SOL    HW262958   4.583   6.757   7.613 -0.0162 -1.7015 -1.8557
52801SOL     OW62959   8.548   7.690  10.083  0.1080 -0.1023  0.0019
52801SOL    HW162960   8.469   7.742  10.070  0.2981  0.2481  0.2508
52801SOL    HW262961   8.617   7.738  10.037  0.3617  0.0735  0.5519
52802SOL     OW62962   4.946   7.159   4.445  0.1719 -0.1846 -0.1464
52802SOL    HW162963   4.918   7.084   4.394  1.9281 -1.1799  0.2728
52802SOL    HW262964   4.882   7.167   4.515 -1.5127  0.3810 -1.6707
52803SOL     OW62965   9.277   6.248   3.009  0.7193  0.3656  0.7059
52803SOL    HW162966   9.277   6.186   2.936  0.4229  0.7729  0.3497
52803SOL    HW262967   9.216   6.316   2.981  1.1536  0.8883  1.0274
52804SOL     OW62968   9.157   0.996   2.144  0.3383  0.0670  0.2240
52804SOL    HW162969   9.184   0.946   2.067  0.1099 -3.1080  2.0210
52804SOL    HW262970   9.068   1.025   2.124  0.2316 -0.8436 -0.6642
52805SOL     OW62971   2.732   8.278   7.710 -0.0807 -0.3379 -0.0460
52805SOL    HW162972   2.683   8.238   7.782 -0.4246 -0.2931 -0.2539
52805SOL    HW262973   2.818   8.237   7.714 -1.2211 -3.2115 -1.9894
52806SOL     OW62974   6.352  11.082   1.418 -0.0654 -0.1168  0.1351
52806SOL    HW162975   6.376  11.059   1.507 -0.8905 -1.1251  0.1115
52806SOL    HW262976   6.288  11.153   1.428 -1.4253 -1.3405  0.4445
52807SOL     OW62977   3.255   0.132   6.294 -0.5564 -0.2101 -0.6068
52807SOL    HW162978   3.332   0.161   6.246  0.6203  1.4612  2.0253
52807SOL    HW262979   3.207   0.212   6.313 -1.6715 -0.9650 -0.1357
52808SOL     OW62980   6.722   4.375   9.912  0.7879 -0.1046  0.8392
52808SOL    HW162981   6.796   4.315   9.919  1.9952  1.2725  0.3163
52808SOL    HW262982   6.760   4.458   9.883 -0.9592  0.6543  0.5554
52809SOL     OW62983   9.643   0.272   8.357 -0.0835 -0.6613 -0.1643
52809SOL    HW162984   9.705   0.344   8.346  0.0879 -0.9246 -0.9971
52809SOL    HW262985   9.586   0.277   8.280  1.1096 -2.5525 -1.2553
52810SOL     OW62986   7.783   2.579   2.931  0.5622  0.0169  0.8021
52810SOL    HW162987   7.763   2.569   2.838  0.6246  1.2005  0.6438
52810SOL    HW262988   7.797   2.673   2.943  0.4799 -0.1030  2.0247
52811SOL     OW62989  10.254   2.084   0.561  0.2239  0.3347 -0.1765
52811SOL    HW162990  10.274   2.046   0.646 -0.5652  0.4334  0.0620
52811SOL    HW262991  10.176   2.137   0.576 -0.7750 -0.7535 -1.2506
52812SOL     OW62992   9.752   4.533   2.919  0.0710 -0.0308  0.1399
52812SOL    HW162993   9.690   4.489   2.862  0.0070 -0.9815  0.9172
52812SOL    HW262994   9.744   4.626   2.896  3.4462 -0.5755 -4.7367
52813SOL     OW62995   9.789   9.584  11.474 -0.2823  0.4861  0.0433
52813SOL    HW162996   9.766   9.492  11.477 -0.6259  0.5169 -1.0295
52813SOL    HW262997   9.826   9.603  11.560 -1.4071 -0.3263  0.7346
52814SOL     OW62998   9.796  10.993   7.673 -0.4522  0.1877 -0.7460
52814SOL    HW162999   9.743  11.015   7.597 -0.6869 -1.9191 -1.2398
52814SOL    HW263000   9.859  10.928   7.641  0.8994  0.8838  0.3727
52815SOL     OW63001   9.926   6.551  10.277  0.5433  0.3333 -0.3231
52815SOL    HW163002   9.864   6.502  10.223  0.4950  0.0763 -0.0363
52815SOL    HW263003   9.871   6.614  10.324  0.5523  0.3814 -0.3769
52816SOL     OW63004   6.305   3.434  10.458  0.3536  0.6809 -1.2198
52816SOL    HW163005   6.376   3.374  10.482  0.2549  1.4030  1.1077
52816SOL    HW263006   6.230   3.377  10.442  0.3969  0.1114  0.4375
52817SOL     OW63007   6.437   9.455   4.158  0.6499 -0.2430 -0.4836
52817SOL    HW163008   6.522   9.412   4.167  1.1996  0.6572 -1.2491
52817SOL    HW263009   6.447   9.539   4.203 -0.2748 -0.6795  0.6085
52818SOL     OW63010  10.880  10.376   5.926 -0.1928 -0.5676  0.1225
52818SOL    HW163011  10.931  10.388   5.846  0.2268  0.8551  0.5863
52818SOL    HW263012  10.921  10.433   5.990 -1.2392 -0.8054  1.0360
52819SOL     OW63013  11.004  11.861   1.235 -0.3436  0.2036  0.4350
52819SOL    HW163014  10.986  11.787   1.178 -0.1823 -0.3475  1.0840
52819SOL    HW263015  11.028  11.932   1.176  0.6815 -0.5973 -0.1430
52820SOL     OW63016   1.481   3.308   1.375 -0.3545 -0.6136 -0.6656
52820SOL    HW163017   1.490   3.220   1.339  1.0806 -0.0209 -1.9228
52820SOL    HW263018   1.520   3.303   1.462  1.6113 -0.8207 -1.5047
52821SOL     OW63019   3.676  10.724   9.484  0.3957 -0.3233  0.4033
52821SOL    HW163020   3.698  10.757   9.572  0.8744  2.4411 -0.6589
52821SOL    HW263021   3.591  10.764   9.464  0.7451 -0.1403 -0.7564
52822SOL     OW63022  10.575   8.617   7.549 -0.4430 -0.0117 -0.3728
52822SOL    HW163023  10.535   8.699   7.519 -3.0321 -0.8587  0.4594
52822SOL    HW263024  10.590   8.567   7.469 -2.3215 -0.1452 -0.6953
52823SOL     OW63025   1.327   2.590   6.493 -0.2544 -0.2157 -0.7556
52823SOL    HW163026   1.341   2.508   6.541  0.5237  0.6468  0.5638
52823SOL    HW263027   1.414   2.613   6.460  0.4602  2.1122  2.3620
52824SOL     OW63028   5.718   9.253   7.337 -0.1388 -0.7503 -0.0310
52824SOL    HW163029   5.781   9.193   7.296  0.3034  0.1446 -0.7026
52824SOL    HW263030   5.773   9.318   7.382 -0.5983 -0.3594 -0.0328
52825SOL     OW63031   5.739   5.471   6.798 -0.5860 -0.2951  0.1940
52825SOL    HW163032   5.648   5.474   6.766 -0.6018 -0.7918  0.1757
52825SOL    HW263033   5.787   5.526   6.737 -1.4900  3.3036  2.4299
52826SOL     OW63034   9.844   4.889   6.076 -0.5048 -0.4055  0.0894
52826SOL    HW163035   9.749   4.890   6.088 -0.6313  1.3924 -0.6478
52826SOL    HW263036   9.858   4.929   5.991  0.9171 -0.9149  0.0580
52827SOL     OW63037   9.859   3.675   0.653 -0.1122  0.9836 -0.2915
52827SOL    HW163038   9.859   3.606   0.587 -2.8349 -0.3584  0.9480
52827SOL    HW263039   9.827   3.753   0.607 -0.5798  0.4489 -0.8795
52828SOL     OW63040   3.623   7.710  11.141 -0.0016 -0.0738  0.4918
52828SOL    HW163041   3.652   7.766  11.068 -0.7198  0.3472  0.5285
52828SOL    HW263042   3.700   7.703  11.197  0.5134 -0.2648 -0.2191
52829SOL     OW63043   2.615   6.074   2.861  0.0410 -0.1232  0.5494
52829SOL    HW163044   2.656   6.055   2.777 -0.3362  0.9100  0.1117
52829SOL    HW263045   2.522   6.059   2.846 -0.0212  0.0050  0.8042
52830SOL     OW63046   6.809   7.255   5.874 -0.4333  0.3826 -0.5113
52830SOL    HW163047   6.730   7.209   5.906  0.1152 -1.0273 -1.1012
52830SOL    HW263048   6.775   7.324   5.818 -1.2604 -0.3229 -0.9057
52831SOL     OW63049   9.011   9.392   1.683  0.2414 -0.2271 -0.4535
52831SOL    HW163050   8.975   9.405   1.770 -1.0516  0.7147 -1.0991
52831SOL    HW263051   8.947   9.336   1.638  0.1603  0.4724 -1.2425
52832SOL     OW63052   7.635   2.631  11.142 -0.0586 -0.2355  0.2947
52832SOL    HW163053   7.680   2.676  11.071  1.2402 -2.2934 -0.2773
52832SOL    HW263054   7.654   2.538  11.128 -3.3394 -1.1424  0.8532
52833SOL     OW63055   3.019   3.441   4.132  0.7108  0.2296 -0.3273
52833SOL    HW163056   3.069   3.443   4.213 -0.5444 -1.8863  0.5982
52833SOL    HW263057   2.934   3.478   4.154  0.5929  0.2979 -0.8656
52834SOL     OW63058   4.213   0.886   0.476 -0.0576 -0.3469 -0.1603
52834SOL    HW163059   4.166   0.970   0.475  0.8167  0.1492 -0.8268
52834SOL    HW263060   4.257   0.882   0.391  1.9273 -0.3135  0.8162
52835SOL     OW63061   3.703  11.632   2.047  0.0553 -0.3466 -0.0243
52835SOL    HW163062   3.675  11.724   2.053  0.2028 -0.2948 -0.1028
52835SOL    HW263063   3.656  11.588   2.116  1.2194  0.1063  1.1056
52836SOL     OW63064   5.957   5.673   8.035 -0.3100  0.1842 -0.8636
52836SOL    HW163065   6.026   5.666   8.102 -0.6722  0.6853 -0.4345
52836SOL    HW263066   6.000   5.716   7.961  0.1595 -0.5852 -1.0592
52837SOL     OW63067  10.433   4.664   5.343 -0.1624  0.2662 -0.5395
52837SOL    HW163068  10.430   4.681   5.249  0.5763  2.6289 -0.1986
52837SOL    HW263069  10.353   4.705   5.377  0.0816  0.3041 -0.0159
52838SOL     OW63070   8.889   9.342   0.196  0.3481 -0.1122  0.4072
52838SOL    HW163071   8.887   9.284   0.120  3.7650 -0.0765  0.1450
52838SOL    HW263072   8.933   9.421   0.165  1.5673  0.0182  2.3190
52839SOL     OW63073  11.020   4.081  10.148 -0.1487  0.5927  0.2749
52839SOL    HW163074  10.977   4.161  10.118 -0.2413  0.5168  0.2058
52839SOL    HW263075  10.951   4.031  10.191 -0.4867 -0.2042 -1.1175
52840SOL     OW63076   2.216  10.099  10.616  0.3011  0.6363  0.1403
52840SOL    HW163077   2.300  10.135  10.644 -0.3772  2.0707  0.4257
52840SOL    HW263078   2.215  10.111  10.521  0.8825 -0.4396 -0.0128
52841SOL     OW63079   7.962  11.553   7.855 -0.2106 -0.1141 -0.0918
52841SOL    HW163080   7.916  11.610   7.794 -1.8334 -2.2113 -0.9755
52841SOL    HW263081   8.054  11.579   7.848 -0.7333  1.5324 -1.3369
52842SOL     OW63082   0.976   2.252   4.919  0.4720 -0.0590  0.2269
52842SOL    HW163083   1.010   2.263   4.831  0.4977  3.2856  0.5208
52842SOL    HW263084   0.896   2.200   4.909  0.4502  0.3117 -1.7706
52843SOL     OW63085   0.833   1.222  11.077  0.0808 -0.3804  0.1238
52843SOL    HW163086   0.831   1.199  11.169  1.3375 -1.1459 -0.0080
52843SOL    HW263087   0.780   1.301  11.070  1.8114  1.0515  1.9202
52844SOL     OW63088   8.667   2.777   3.195 -0.4837 -0.7025  0.0565
52844SOL    HW163089   8.713   2.721   3.132  0.9133 -1.6093  1.7627
52844SOL    HW263090   8.690   2.866   3.170  0.0211 -1.0456 -0.7406
52845SOL     OW63091   0.945   7.756   4.910  0.2661 -0.0390  0.4181
52845SOL    HW163092   1.009   7.797   4.968 -0.0437  0.0774  0.6786
52845SOL    HW263093   0.985   7.762   4.823  0.9662 -0.6925  0.6856
52846SOL     OW63094   2.087   9.836   0.947  0.0006  0.3206 -0.2528
52846SOL    HW163095   2.136   9.796   0.875  0.7480  2.5800 -1.1071
52846SOL    HW263096   2.154   9.881   0.998 -0.5551 -1.0266  1.7745
52847SOL     OW63097   3.598   3.931   5.588  0.2981  0.3731  0.4159
52847SOL    HW163098   3.548   3.961   5.665 -0.9606 -2.1191  0.6570
52847SOL    HW263099   3.658   4.003   5.570 -1.2387  2.2050  2.0582
52848SOL     OW63100  10.715   6.637   8.181 -0.6062 -0.6638  0.3944
52848SOL    HW163101  10.680   6.551   8.157  0.0161 -0.3096 -2.0117
52848SOL    HW263102  10.696   6.692   8.106 -1.0205  1.3525  1.9080
52849SOL     OW63103   1.658   9.409   8.407 -0.5917  0.2186  0.6628
52849SOL    HW163104   1.681   9.451   8.489 -1.0916  0.7162  0.5523
52849SOL    HW263105   1.563   9.407   8.406 -0.5932  0.3457  0.0331
52850SOL     OW63106  11.792  11.799   4.509 -0.1645 -0.6903 -0.2159
52850SOL    HW163107  11.716  11.855   4.525 -0.7605 -1.9488  1.7454
52850SOL    HW263108  11.771  11.754   4.427 -1.7504 -1.2511  0.4410
52851SOL     OW63109  11.885   0.880   0.953  0.4368 -0.3879  0.5425
52851SOL    HW163110  11.835   0.833   1.020 -1.4004 -0.8867 -1.0895
52851SOL    HW263111  11.848   0.849   0.870  1.4448  1.5010 -0.6670
52852SOL     OW63112   8.078   3.038   8.766  0.2728 -1.1327 -0.0823
52852SOL    HW163113   8.041   3.072   8.848  2.4709 -1.0828  0.9709
52852SOL    HW263114   8.085   3.115   8.709 -0.4598 -1.0076 -0.0172
52853SOL     OW63115   3.112  10.425   8.648  0.2803  0.2990 -0.3083
52853SOL    HW163116   3.140  10.335   8.628  1.1915  0.0675  1.7946
52853SOL    HW263117   3.183  10.461   8.702 -1.2934  1.3680  1.1399
52854SOL     OW63118  10.951   0.219   3.172  0.6737 -0.8808  0.0210
52854SOL    HW163119  10.941   0.271   3.252  0.7212  0.3793 -0.7576
52854SOL    HW263120  11.001   0.142   3.199  0.8636 -0.3765  1.1623
52855SOL     OW63121   5.899   5.664   3.699 -0.2824  0.2366 -0.3057
52855SOL    HW163122   5.933   5.604   3.765  1.7711  1.6673  0.0551
52855SOL    HW263123   5.815   5.627   3.674 -0.1907 -1.4739  1.6006
52856SOL     OW63124   3.477   9.360   3.433  0.1691 -0.0257  0.5336
52856SOL    HW163125   3.471   9.449   3.466 -0.1735 -0.7392  2.4981
52856SOL    HW263126   3.569   9.336   3.444  0.3406  0.1811 -0.3380
52857SOL     OW63127   8.755   5.929   4.160 -0.0983  0.3088  0.0681
52857SOL    HW163128   8.811   5.858   4.127 -1.2448 -0.2579 -0.6986
52857SOL    HW263129   8.817   5.994   4.194  1.0007 -0.6716  0.0055
52858SOL     OW63130   7.546   1.241   9.925  0.3018 -0.4519  0.2841
52858SOL    HW163131   7.509   1.291   9.852 -0.3568 -2.2199 -0.6545
52858SOL    HW263132   7.493   1.161   9.928  1.0568 -0.9286  1.9813
52859SOL     OW63133   0.907   4.535   6.892  0.1533  0.2895  0.3295
52859SOL    HW163134   0.924   4.448   6.927  0.2972  0.0900 -0.2221
52859SOL    HW263135   0.964   4.542   6.815  0.0465  0.8187  0.2914
52860SOL     OW63136   6.831   0.720   8.611 -0.5440 -0.3289  0.1136
52860SOL    HW163137   6.820   0.634   8.571 -0.0401 -0.8961  1.1586
52860SOL    HW263138   6.897   0.763   8.557  0.2458 -1.1447  0.3930
52861SOL     OW63139  11.681  11.265   1.706 -0.6350 -0.1834  0.3297
52861SOL    HW163140  11.683  11.173   1.677  4.8005 -0.0333 -0.8049
52861SOL    HW263141  11.668  11.315   1.625  0.5654  0.0286  0.2482
52862SOL     OW63142   2.119   6.600  11.106 -0.7763  0.0906 -0.0894
52862SOL    HW163143   2.175   6.675  11.126 -1.0355 -0.3297  2.7380
52862SOL    HW263144   2.161   6.526  11.151 -1.4385 -1.1266 -1.3649
52863SOL     OW63145  10.736   2.899   9.867 -0.6746  0.2284  0.8586
52863SOL    HW163146  10.730   2.995   9.862 -1.0724  0.2479  1.5938
52863SOL    HW263147  10.727   2.870   9.776 -2.8202  0.7875  0.8237
52864SOL     OW63148  11.537  11.660   0.351  0.1833  0.1064 -0.2856
52864SOL    HW163149  11.535  11.756   0.350  0.7461  0.1842  1.8044
52864SOL    HW263150  11.567  11.636   0.263  0.2377  1.8483 -0.7812
52865SOL     OW63151  12.105   9.715   1.266  0.2668 -0.0068  0.3620
52865SOL    HW163152  12.044   9.765   1.321 -0.9077 -1.3273  0.3083
52865SOL    HW263153  12.118   9.633   1.312  0.9520 -0.2847 -0.3027
52866SOL     OW63154   7.350   3.278  12.055  0.3106 -0.9408  0.2956
52866SOL    HW163155   7.345   3.305  11.963  1.3664 -1.6040  0.0203
52866SOL    HW263156   7.438   3.305  12.082  0.5289 -2.0137  0.6891
52867SOL     OW63157  10.513   2.608  12.013  0.4228  0.0370 -0.6426
52867SOL    HW163158  10.536   2.656  12.093 -0.6377  0.7906 -0.7566
52867SOL    HW263159  10.536   2.668  11.942  0.2063 -0.1215 -0.8469
52868SOL     OW63160   7.596   4.959  11.513 -0.1146  0.1542  0.1992
52868SOL    HW163161   7.679   4.994  11.480  0.6394 -1.5003  0.2527
52868SOL    HW263162   7.558   5.032  11.562  0.5219  1.4608 -1.1688
52869SOL     OW63163   3.072   6.744   6.647  0.5834 -0.1945  0.0660
52869SOL    HW163164   3.034   6.746   6.559 -1.0149 -0.8844  0.7027
52869SOL    HW263165   3.053   6.656   6.679  1.4926 -0.0839  0.9767
52870SOL     OW63166   5.301   9.226   1.997 -0.3069 -0.1925 -0.6159
52870SOL    HW163167   5.370   9.159   1.991 -0.2646 -0.1515 -0.5805
52870SOL    HW263168   5.349   9.309   2.005 -0.3413 -0.3395  1.6789
52871SOL     OW63169   2.152   7.286   3.152  0.4371  0.0358 -0.0793
52871SOL    HW163170   2.118   7.206   3.113  1.6108 -0.2024 -0.6346
52871SOL    HW263171   2.183   7.338   3.077  0.5638  0.5966  0.3549
52872SOL     OW63172   6.145   2.756   4.751 -0.4446 -0.2517 -0.4179
52872SOL    HW163173   6.099   2.674   4.732 -2.6384  0.3535  1.7132
52872SOL    HW263174   6.083   2.825   4.726  0.9766  0.7690 -1.2930
52873SOL     OW63175   6.167  11.690   5.316 -0.1533 -0.0164 -0.9278
52873SOL    HW163176   6.208  11.718   5.234  2.2565  2.9217  1.0374
52873SOL    HW263177   6.240  11.673   5.375 -1.7993 -0.9570  0.9661
52874SOL     OW63178   3.321   5.604   3.152  0.4178  0.1244 -0.3575
52874SOL    HW163179   3.355   5.523   3.191  2.0332  0.9616  0.0465
52874SOL    HW263180   3.383   5.624   3.082  1.2346  2.1082  0.8781
52875SOL     OW63181   8.885   2.256   0.303 -0.1260  0.0165  0.5510
52875SOL    HW163182   8.937   2.266   0.382 -1.5403  1.1929  1.3737
52875SOL    HW263183   8.825   2.183   0.322  0.2345 -0.3978  0.1412
52876SOL     OW63184   3.418  11.973   1.866 -0.7576 -0.1525 -0.1359
52876SOL    HW163185   3.491  11.954   1.925 -1.5632  0.1316  0.9899
52876SOL    HW263186   3.425  11.908   1.797 -1.8553 -2.9271  2.1742
52877SOL     OW63187   0.822   7.267   6.580  0.2755 -0.1735  0.1523
52877SOL    HW163188   0.809   7.335   6.646  0.4876  0.3038 -0.2919
52877SOL    HW263189   0.917   7.259   6.571  0.2691  0.7859 -1.1129
52878SOL     OW63190   0.795   3.696   5.728  0.2310 -0.2059 -0.3140
52878SOL    HW163191   0.769   3.785   5.753 -0.0380 -0.0114 -1.2400
52878SOL    HW263192   0.740   3.676   5.652  0.7769 -0.9005 -0.5359
52879SOL     OW63193   6.486   2.882   1.610 -0.2633 -0.2998  0.1590
52879SOL    HW163194   6.451   2.793   1.607 -2.6273  0.4404  2.1610
52879SOL    HW263195   6.440   2.928   1.540  0.0329 -0.3636 -0.0777
52880SOL     OW63196  11.680   5.407   2.607  0.7728 -0.5180 -0.2450
52880SOL    HW163197  11.643   5.322   2.586  0.7109 -0.0786 -2.0983
52880SOL    HW263198  11.606   5.458   2.639  0.7753 -1.0919  0.7026
52881SOL     OW63199  10.756   5.467   7.723  0.2423 -0.1219 -0.6714
52881SOL    HW163200  10.804   5.395   7.683  1.8248  1.0813 -1.0553
52881SOL    HW263201  10.680   5.480   7.666  1.7532  0.7058 -2.6357
52882SOL     OW63202   9.152   4.344   8.197 -0.3700  0.0682 -0.7724
52882SOL    HW163203   9.163   4.251   8.180  2.3806  0.0791  0.3543
52882SOL    HW263204   9.152   4.351   8.292 -1.0204  1.1806 -0.8386
52883SOL     OW63205   6.718   4.899   4.786  0.1445 -0.4239  0.4028
52883SOL    HW163206   6.778   4.885   4.859 -0.5625 -0.8498  0.9078
52883SOL    HW263207   6.722   4.818   4.735  0.9008 -0.0006 -0.2476
52884SOL     OW63208   1.496  10.661   5.080 -0.1690  0.0804 -0.1554
52884SOL    HW163209   1.483  10.734   5.140 -1.0055 -0.4424  0.3091
52884SOL    HW263210   1.590  10.663   5.060  0.2123  0.0137  1.4909
52885SOL     OW63211  11.928   2.624   9.677  0.4885  0.2969  0.2114
52885SOL    HW163212  11.857   2.566   9.649  1.0561  0.3843 -1.5495
52885SOL    HW263213  11.968   2.654   9.595  1.5234  1.5413  1.1274
52886SOL     OW63214   7.338   3.253  10.828 -0.1506 -0.4268 -0.1969
52886SOL    HW163215   7.321   3.314  10.756  1.7183  0.1548 -0.1922
52886SOL    HW263216   7.421   3.211  10.805  0.1508 -0.7123  1.2958
52887SOL     OW63217   0.901   7.590   2.486  0.2096  0.5252 -0.2595
52887SOL    HW163218   0.964   7.535   2.534  0.0076  1.2626  0.8960
52887SOL    HW263219   0.909   7.562   2.395  1.0912 -0.4693  0.1018
52888SOL     OW63220   6.589   5.729   2.783 -0.1316 -0.3753  0.2541
52888SOL    HW163221   6.640   5.792   2.833  0.2248 -0.7690  0.3941
52888SOL    HW263222   6.647   5.653   2.773 -1.1793 -1.4211  1.6867
52889SOL     OW63223   2.089  10.267   5.713 -0.0331  0.0727  0.1059
52889SOL    HW163224   2.024  10.209   5.673 -0.6337  0.4381  0.5480
52889SOL    HW263225   2.165  10.262   5.654 -1.7998  2.6644 -2.6803
52890SOL     OW63226  11.067  11.606   4.311 -0.2038 -0.7943 -0.0699
52890SOL    HW163227  11.051  11.655   4.392 -1.0373 -2.3617  0.7493
52890SOL    HW263228  11.052  11.670   4.241 -0.7490  0.2426  0.9614
52891SOL     OW63229   1.120   1.465   9.135  0.2637  0.2302 -0.0666
52891SOL    HW163230   1.074   1.495   9.057  0.7897 -1.2139 -0.9759
52891SOL    HW263231   1.195   1.525   9.143 -0.3408  0.9956 -0.0747
52892SOL     OW63232  11.024   5.693   5.300 -0.2215  0.1599 -0.4434
52892SOL    HW163233  10.997   5.602   5.287 -0.2489 -0.5551  3.2935
52892SOL    HW263234  10.955   5.731   5.354  0.6049  1.9142 -0.5532
52893SOL     OW63235   9.683   6.468   8.814 -0.4186  0.2554  0.0891
52893SOL    HW163236   9.697   6.559   8.789  0.0635  0.2511  0.3389
52893SOL    HW263237   9.647   6.472   8.902  1.9260  0.1392  1.1024
52894SOL     OW63238   5.689   6.359   2.172  0.3393  0.1439 -0.6505
52894SOL    HW163239   5.781   6.359   2.148  0.6005 -0.3038  0.2968
52894SOL    HW263240   5.688   6.339   2.266 -0.7267 -0.0552 -0.6831
52895SOL     OW63241   6.989   8.189  11.036 -0.0263 -0.7160 -0.2061
52895SOL    HW163242   7.058   8.132  11.070  0.0493 -0.9798 -0.7919
52895SOL    HW263243   6.920   8.185  11.102  1.3995  1.3784  1.5795
52896SOL     OW63244   3.309   1.732   2.512  0.5773 -0.3020  0.2616
52896SOL    HW163245   3.295   1.757   2.421 -0.8389 -0.4653  0.4128
52896SOL    HW263246   3.354   1.808   2.551 -0.3192  0.4701 -0.1719
52897SOL     OW63247   5.717   9.063  10.718  0.3378  0.5819 -0.0820
52897SOL    HW163248   5.746   9.154  10.723 -1.1384  1.0912 -0.3210
52897SOL    HW263249   5.622   9.067  10.723  0.2717 -1.0719  1.5751
52898SOL     OW63250  10.792   8.377   5.038 -0.0284  0.3701  0.9143
52898SOL    HW163251  10.829   8.426   5.112  0.3175 -1.9490  2.3648
52898SOL    HW263252  10.860   8.316   5.013 -0.7219  0.0750 -0.3471
52899SOL     OW63253   4.089  11.936   3.147 -0.2253 -0.1058 -0.5361
52899SOL    HW163254   4.060  12.027   3.145  1.0636  0.3543  0.2587
52899SOL    HW263255   4.179  11.940   3.182  1.5666 -1.2377 -4.4377
52900SOL     OW63256   0.821   4.421   8.980 -0.3305  0.1490 -0.3657
52900SOL    HW163257   0.884   4.429   9.051  0.4007 -0.8800 -0.8761
52900SOL    HW263258   0.848   4.343   8.932  0.3395  1.8216 -2.9063
52901SOL     OW63259   0.014   8.711   9.085  0.1698 -1.0059  0.2248
52901SOL    HW163260   0.003   8.617   9.068  0.0567 -0.8786 -0.4088
52901SOL    HW263261  -0.058   8.752   9.037 -0.2107 -0.6436  1.0821
52902SOL     OW63262   4.471  10.054   1.546  0.3256 -0.6887 -0.2110
52902SOL    HW163263   4.509  10.018   1.626  0.1286 -0.0937  0.1614
52902SOL    HW263264   4.544  10.059   1.484  0.5438 -0.8687  0.0305
52903SOL     OW63265   1.108   1.395   2.693  0.1648 -0.2223 -0.0913
52903SOL    HW163266   1.193   1.420   2.657  0.3890 -2.1383 -1.0346
52903SOL    HW263267   1.124   1.387   2.787 -0.0011  3.1686  0.3373
52904SOL     OW63268   8.940   7.848   9.756  0.0884  0.0397 -0.1965
52904SOL    HW163269   8.934   7.753   9.742 -0.9395  0.2422 -1.3801
52904SOL    HW263270   8.902   7.862   9.842 -1.6803 -0.4466 -0.8524
52905SOL     OW63271   7.214   5.603   9.388 -0.8061  0.3607  0.1684
52905SOL    HW163272   7.273   5.592   9.463  0.9785 -1.3287 -1.3583
52905SOL    HW263273   7.252   5.676   9.339 -0.7092  0.0800 -0.1772
52906SOL     OW63274   4.263   8.164   9.096  0.3799  0.0326  0.6850
52906SOL    HW163275   4.351   8.125   9.092  1.0144  1.3972  0.8452
52906SOL    HW263276   4.211   8.101   9.146  1.3192 -0.7054  0.7583
52907SOL     OW63277   9.672   0.319   3.324  0.1762  0.1561  0.2515
52907SOL    HW163278   9.608   0.252   3.348  0.5139  0.8180  3.4176
52907SOL    HW263279   9.739   0.273   3.274 -0.9766 -1.2684 -0.0260
52908SOL     OW63280   4.103  12.013   2.696  0.5145  0.1206  0.1158
52908SOL    HW163281   4.014  11.992   2.722  0.1377  0.8629 -0.5120
52908SOL    HW263282   4.093  12.066   2.617  1.4852  0.7139  0.3694
52909SOL     OW63283   7.924   1.876   1.139  0.0996 -0.1354  0.2034
52909SOL    HW163284   7.917   1.781   1.150  0.2467 -0.1316  0.3274
52909SOL    HW263285   7.834   1.904   1.122 -0.1442 -0.1291  1.4739
52910SOL     OW63286  11.671   8.554   4.753 -0.2190  0.1974  0.3415
52910SOL    HW163287  11.679   8.601   4.836  0.1204  0.2196  0.2977
52910SOL    HW263288  11.761   8.530   4.730 -0.4076 -0.6986  0.4878
52911SOL     OW63289   6.836   1.311   7.313 -0.2080 -0.4954  0.0078
52911SOL    HW163290   6.863   1.295   7.403  0.7734  1.3282  0.0773
52911SOL    HW263291   6.824   1.405   7.307 -3.9462 -0.8705 -0.8277
52912SOL     OW63292   5.574   2.327   1.640 -0.1706 -0.6328  0.2491
52912SOL    HW163293   5.633   2.315   1.566 -0.0207  1.0094  0.0627
52912SOL    HW263294   5.622   2.291   1.715  0.3310 -0.8779 -0.1841
52913SOL     OW63295   9.969   4.991  10.408 -0.2837 -0.0743 -0.4543
52913SOL    HW163296  10.011   5.076  10.400  1.1136 -0.7868 -1.0579
52913SOL    HW263297  10.041   4.930  10.424 -1.4373 -0.8909  2.3224
52914SOL     OW63298   4.041   2.102   8.922  0.7762  0.0644 -0.5726
52914SOL    HW163299   4.041   2.187   8.967 -1.8237  0.3815 -1.0314
52914SOL    HW263300   4.044   2.124   8.829 -1.8657 -0.1757 -0.7826
52915SOL     OW63301   1.613   2.077   8.032  0.4390  0.1841 -0.2509
52915SOL    HW163302   1.663   2.024   7.970  0.7798 -1.1108  1.0400
52915SOL    HW263303   1.652   2.055   8.117 -2.9716 -1.8140  0.9962
52916SOL     OW63304   2.356   2.369   4.131  0.0724  0.1761  0.1232
52916SOL    HW163305   2.315   2.411   4.206  1.7238  0.0611  1.1294
52916SOL    HW263306   2.282   2.341   4.076 -1.2683  5.2488 -1.2477
52917SOL     OW63307  10.427  10.237   9.010 -0.2334  0.6881 -0.4926
52917SOL    HW163308  10.476  10.167   8.968  2.0561  1.5334  0.5905
52917SOL    HW263309  10.397  10.199   9.093 -1.1284  0.2931 -0.9789
52918SOL     OW63310   9.359   2.420   1.790 -0.1979  0.1026  0.0863
52918SOL    HW163311   9.348   2.385   1.702 -0.7639 -3.5756  1.4280
52918SOL    HW263312   9.454   2.423   1.802 -0.1223  0.0228 -0.4531
52919SOL     OW63313   7.469   2.253  11.297 -0.3514 -0.0347  0.2981
52919SOL    HW163314   7.519   2.253  11.215 -0.6517  2.0108  0.0639
52919SOL    HW263315   7.525   2.299  11.360 -1.4284  1.3019  0.3294
52920SOL     OW63316   0.360   6.344   2.326  0.4050 -0.5257 -0.0242
52920SOL    HW163317   0.295   6.357   2.257  0.4977  0.0198 -0.0093
52920SOL    HW263318   0.353   6.251   2.348 -3.0391  0.1739  2.6888
52921SOL     OW63319   1.983   6.517   2.938  0.2517  0.3259 -0.3629
52921SOL    HW163320   2.060   6.504   2.994 -0.4357  1.9295  1.0503
52921SOL    HW263321   1.908   6.502   2.995 -0.4993 -0.0085 -1.4022
52922SOL     OW63322  11.022   6.304   2.783 -0.0990 -0.6872  0.1482
52922SOL    HW163323  11.069   6.224   2.807 -1.2006 -0.8256  2.1130
52922SOL    HW263324  10.932   6.274   2.766 -0.7080  0.1800  1.6427
52923SOL     OW63325   5.162   1.061   1.785 -0.3570  0.4435 -0.2829
52923SOL    HW163326   5.127   1.045   1.872  0.6081  1.1621  0.2520
52923SOL    HW263327   5.252   1.031   1.789 -0.0338  1.3096 -0.7530
52924SOL     OW63328   8.910   6.966  11.422  1.0332  0.0794  0.2819
52924SOL    HW163329   8.858   7.038  11.456 -2.2910 -0.7633 -2.4352
52924SOL    HW263330   8.898   6.895  11.485 -0.2876  0.2483  0.2511
52925SOL     OW63331  10.412  10.844   5.971  0.6160 -0.1808 -0.3041
52925SOL    HW163332  10.441  10.760   6.006  0.4832  0.1750  0.6897
52925SOL    HW263333  10.485  10.904   5.988  0.4265  0.0676 -0.3615
52926SOL     OW63334   5.326   4.633   9.783  0.4193 -0.6930  0.2562
52926SOL    HW163335   5.376   4.621   9.864 -0.2697  0.5354  0.8820
52926SOL    HW263336   5.345   4.723   9.756  1.1447 -1.2882 -1.3113
52927SOL     OW63337   9.490   7.915   8.823  0.2188 -0.3282  0.1436
52927SOL    HW163338   9.447   7.889   8.904 -2.0712  1.8960 -0.2249
52927SOL    HW263339   9.559   7.975   8.850  0.1853 -0.4577  0.5131
52928SOL     OW63340   8.694  11.002   0.636 -0.2328 -0.0044  0.2859
52928SOL    HW163341   8.603  11.023   0.613 -0.5493 -0.1213  1.3929
52928SOL    HW263342   8.724  11.076   0.688 -0.7295 -1.3336  2.5715
52929SOL     OW63343   3.438   3.227   8.419  0.4744  0.1079  0.4388
52929SOL    HW163344   3.523   3.268   8.433  1.9687 -2.2594 -1.1326
52929SOL    HW263345   3.439   3.149   8.474 -0.6564 -0.0260  0.3014
52930SOL     OW63346   7.239   5.488   0.201  0.3757  0.1222  0.1642
52930SOL    HW163347   7.242   5.501   0.296 -2.3296  1.2487  0.1923
52930SOL    HW263348   7.188   5.407   0.190  1.1694 -0.3237 -0.3645
52931SOL     OW63349   9.801   9.831   1.371  0.0862  0.7482  0.0265
52931SOL    HW163350   9.890   9.826   1.405  0.2502  0.0367 -0.4720
52931SOL    HW263351   9.778   9.924   1.376  0.8554  0.9371  0.1623
52932SOL     OW63352   4.691  11.243   3.016 -0.3361  0.9530  0.0224
52932SOL    HW163353   4.606  11.220   3.053  0.2271  0.8519  1.3092
52932SOL    HW263354   4.673  11.263   2.924 -1.3257 -1.7760 -0.4678
52933SOL     OW63355   1.907   0.333  11.396 -0.4169  0.0315 -0.0635
52933SOL    HW163356   1.854   0.348  11.474  0.8920 -1.4458  1.1853
52933SOL    HW263357   1.870   0.255  11.356  1.2102 -1.5021  1.2742
52934SOL     OW63358   6.580   6.674   4.236  0.2904  0.0885  0.5024
52934SOL    HW163359   6.564   6.706   4.147 -0.6606 -1.1722  0.1773
52934SOL    HW263360   6.516   6.603   4.247  3.0282 -2.5844  0.6433
52935SOL     OW63361   8.035   5.256   9.796  0.1336 -0.1908  0.7062
52935SOL    HW163362   8.089   5.278   9.720  0.1760 -0.4851  0.6509
52935SOL    HW263363   8.097   5.243   9.867  0.0523  0.8017  0.9726
52936SOL     OW63364   8.639  10.246   1.203 -0.6758  0.0178 -0.7407
52936SOL    HW163365   8.685  10.311   1.257 -0.5754 -0.4905 -0.2074
52936SOL    HW263366   8.561  10.225   1.254  0.3961 -1.9484  0.1931
52937SOL     OW63367   9.609   3.238   1.822 -0.4706  0.7188  0.2734
52937SOL    HW163368   9.647   3.253   1.735 -1.5194 -0.2698 -0.3728
52937SOL    HW263369   9.558   3.317   1.840  0.6145  1.3912  0.4811
52938SOL     OW63370  11.697   5.380   4.124 -0.7913 -0.5037 -0.4206
52938SOL    HW163371  11.630   5.370   4.193 -0.9109  0.5376 -0.3727
52938SOL    HW263372  11.705   5.293   4.086 -0.8848 -1.0536  0.7663
52939SOL     OW63373   5.329   8.127   4.210  0.2486 -0.2448 -0.5807
52939SOL    HW163374   5.375   8.144   4.128  0.0456  0.4162 -0.5588
52939SOL    HW263375   5.397   8.130   4.277 -0.0578  2.6456 -0.3009
52940SOL     OW63376   5.021   2.347   9.153  0.0607  0.0832  0.0212
52940SOL    HW163377   4.949   2.376   9.097  1.3092  3.2392 -0.1606
52940SOL    HW263378   4.981   2.283   9.213 -1.9318 -1.2634 -2.5657
52941SOL     OW63379   2.167   9.768   6.142 -0.7744 -0.0386 -0.2956
52941SOL    HW163380   2.187   9.792   6.051 -1.2023  0.0300 -0.3715
52941SOL    HW263381   2.095   9.826   6.167 -0.9410 -0.3530 -0.0493
52942SOL     OW63382   5.046  11.427  10.476  0.7970 -0.1850  0.1882
52942SOL    HW163383   5.067  11.333  10.483  2.5468  0.1964  0.5445
52942SOL    HW263384   5.131  11.470  10.477 -0.0034  1.4441  0.3662
52943SOL     OW63385  10.854   8.913   1.725 -0.6684  0.1088  0.0279
52943SOL    HW163386  10.785   8.895   1.660  0.3372 -1.7969 -0.5952
52943SOL    HW263387  10.853   8.835   1.781  0.7390  0.2130  0.2096
52944SOL     OW63388   0.230   6.630   9.252 -0.6420  0.2723 -0.5873
52944SOL    HW163389   0.229   6.536   9.234  0.3117  0.4321 -1.6147
52944SOL    HW263390   0.141   6.659   9.233 -1.3186 -0.6247  1.0343
52945SOL     OW63391   9.980   7.535   1.792  0.3395 -0.2135 -0.4312
52945SOL    HW163392   9.910   7.500   1.847  0.6718  0.6354  0.5515
52945SOL    HW263393  10.017   7.458   1.749 -0.4064 -0.8100 -0.0287
52946SOL     OW63394   5.769   3.586   6.291 -0.0331  0.0437 -0.7583
52946SOL    HW163395   5.749   3.679   6.302  0.0091  0.1560 -1.5756
52946SOL    HW263396   5.770   3.572   6.196  2.5447 -0.2223 -0.7695
52947SOL     OW63397   7.858   6.388   3.417  0.2125  0.4358  0.1123
52947SOL    HW163398   7.935   6.399   3.473 -0.2572  0.2267  0.8100
52947SOL    HW263399   7.792   6.447   3.454 -0.0906  0.3236 -0.2373
52948SOL     OW63400   1.287   3.964   0.963 -0.1177 -0.0516 -0.0650
52948SOL    HW163401   1.368   4.015   0.956  0.3618 -0.6945  0.5674
52948SOL    HW263402   1.278   3.922   0.877  0.7333 -0.7032  0.1516
52949SOL     OW63403   0.832   9.748   4.390 -0.2275 -0.2135  0.4782
52949SOL    HW163404   0.821   9.796   4.473  0.7690  0.8973 -0.0089
52949SOL    HW263405   0.751   9.698   4.381 -0.1829 -0.6886  2.3350
52950SOL     OW63406   0.309   4.440   3.497  1.2870 -0.0296 -0.5608
52950SOL    HW163407   0.232   4.462   3.548  0.1722 -1.4663 -1.5419
52950SOL    HW263408   0.369   4.400   3.560 -0.2942 -2.3066 -0.3854
52951SOL     OW63409   8.355   1.042   5.907 -0.1607  0.4745 -0.4199
52951SOL    HW163410   8.378   0.949   5.906  1.1030  0.7667 -1.9537
52951SOL    HW263411   8.335   1.060   5.999  1.1634 -0.9474  0.1987
52952SOL     OW63412   0.961   9.589   5.856  0.1202 -0.0093  0.2706
52952SOL    HW163413   0.932   9.597   5.765 -0.8910  0.2101  0.6030
52952SOL    HW263414   1.027   9.520   5.854 -1.1195 -1.2323 -0.3678
52953SOL     OW63415   0.455   5.027   6.555 -0.4463  0.3882  0.9053
52953SOL    HW163416   0.509   4.963   6.509 -2.4417 -1.4754  0.9682
52953SOL    HW263417   0.448   5.101   6.495  0.2916 -0.2887 -0.0403
52954SOL     OW63418   7.208   4.074   7.955 -0.5987  0.8830 -0.1499
52954SOL    HW163419   7.182   4.071   7.863 -0.7920 -2.6688 -0.1343
52954SOL    HW263420   7.178   3.990   7.991  3.4642  0.0973  1.9960
52955SOL     OW63421   1.952   2.568  12.017  0.0821 -0.3116  0.3347
52955SOL    HW163422   1.874   2.514  12.005 -0.3022  0.1795  0.5958
52955SOL    HW263423   1.922   2.657  11.999  0.8346 -0.2373 -0.6336
52956SOL     OW63424   9.169   4.879   2.400 -0.0071 -0.0315 -0.0546
52956SOL    HW163425   9.084   4.920   2.411  0.0864 -0.2208  1.6835
52956SOL    HW263426   9.197   4.857   2.489  2.4353  1.1678 -0.4455
52957SOL     OW63427  11.438   5.604   3.368  0.6565 -0.0141 -0.2104
52957SOL    HW163428  11.516   5.624   3.317  0.9366 -0.2021  0.1309
52957SOL    HW263429  11.364   5.632   3.314  1.0147  2.4080  0.4489
52958SOL     OW63430   3.700   2.572   7.176  0.4606  0.5100 -0.3010
52958SOL    HW163431   3.788   2.598   7.148  0.1532  0.0857 -1.7305
52958SOL    HW263432   3.641   2.631   7.129 -0.0461  0.7107  0.5518
52959SOL     OW63433   2.157   4.501   1.440  0.5421 -0.3285 -0.4285
52959SOL    HW163434   2.237   4.472   1.396  0.3722  0.9106 -1.6411
52959SOL    HW263435   2.109   4.421   1.459  1.1870 -0.9791 -1.4603
52960SOL     OW63436   0.185   6.096   1.843  0.1336 -0.1806 -0.3267
52960SOL    HW163437   0.146   6.125   1.761 -0.3535  0.7487  0.2191
52960SOL    HW263438   0.153   6.006   1.854 -0.6286  0.0428 -0.6453
52961SOL     OW63439  11.459   9.396   9.297 -0.6030  0.0854 -0.1230
52961SOL    HW163440  11.517   9.345   9.353  0.8197  0.4568 -1.1712
52961SOL    HW263441  11.420   9.332   9.237 -0.2170 -0.0022 -0.2827
52962SOL     OW63442   7.609   2.138   9.349 -0.6765 -0.1833  0.5065
52962SOL    HW163443   7.689   2.100   9.387 -0.6454  0.1246  0.7491
52962SOL    HW263444   7.538   2.083   9.383 -0.5957 -0.2667  0.5404
52963SOL     OW63445  11.949   4.698   1.418 -0.1749  0.4174  0.0084
52963SOL    HW163446  11.865   4.678   1.459  1.1294  0.8303  3.1786
52963SOL    HW263447  11.994   4.614   1.414  0.4960  0.6769  1.4965
52964SOL     OW63448   2.461   2.985   3.477 -0.6423 -0.5507  0.5552
52964SOL    HW163449   2.544   2.942   3.495  0.3520  1.2350  0.4720
52964SOL    HW263450   2.485   3.072   3.444 -2.5324 -0.2277 -0.1426
52965SOL     OW63451   4.274   4.291   0.973 -0.0824 -0.0982 -0.3282
52965SOL    HW163452   4.277   4.201   0.939 -1.8460 -0.2566 -0.1548
52965SOL    HW263453   4.185   4.302   1.004  1.0189  0.5318  2.9793
52966SOL     OW63454   9.198   7.676  10.719 -0.7900 -0.1104  0.3203
52966SOL    HW163455   9.258   7.663  10.645 -1.8909 -2.0176 -0.3237
52966SOL    HW263456   9.253   7.669  10.797  0.2062  0.6987 -0.2911
52967SOL     OW63457   6.908   7.568  11.991  0.5301  0.0041 -0.2139
52967SOL    HW163458   6.844   7.532  12.053  1.3939  0.8303  1.2270
52967SOL    HW263459   6.989   7.574  12.042  1.3595  0.4000 -1.5486
52968SOL     OW63460  10.821  11.259   1.193 -0.0906  0.1645  0.0393
52968SOL    HW163461  10.882  11.230   1.125  0.3356 -0.4684  0.6805
52968SOL    HW263462  10.818  11.355   1.183 -0.8298  0.0139 -1.5176
52969SOL     OW63463   8.825  11.931   3.922  0.4787 -0.1259  0.1487
52969SOL    HW163464   8.784  11.862   3.974 -0.4804  1.0845  1.0604
52969SOL    HW263465   8.849  11.889   3.840  1.9256 -2.0752  1.4914
52970SOL     OW63466   1.490  10.937   7.082 -0.2477 -0.1211  0.1578
52970SOL    HW163467   1.400  10.966   7.095 -0.1862 -0.6938  2.1525
52970SOL    HW263468   1.484  10.841   7.078  0.3640 -0.2391  1.4758
52971SOL     OW63469   4.030   7.941  11.090  0.0093  0.0393 -0.4846
52971SOL    HW163470   3.971   7.944  11.015  0.0276  0.5623 -0.4818
52971SOL    HW263471   4.013   8.022  11.138 -0.6432 -0.6879  0.5733
52972SOL     OW63472   5.132   3.896   6.822  0.3040  0.4358  0.1570
52972SOL    HW163473   5.226   3.896   6.803  0.8178  0.6478  2.3576
52972SOL    HW263474   5.120   3.820   6.879 -0.5862  1.1537  0.9565
52973SOL     OW63475   6.118   1.680   1.368 -0.2937 -0.2371 -0.2636
52973SOL    HW163476   6.084   1.686   1.279 -0.1111 -0.2779 -0.3366
52973SOL    HW263477   6.159   1.593   1.372  2.3714  0.8618 -1.1008
52974SOL     OW63478   9.250   1.715   7.528  0.0085  0.1787  0.2159
52974SOL    HW163479   9.298   1.666   7.461  0.4168  0.6731  0.1452
52974SOL    HW263480   9.175   1.752   7.481 -0.1413 -0.1291  0.2071
52975SOL     OW63481   9.867  10.087  10.540 -0.3608 -0.0215 -0.3191
52975SOL    HW163482   9.881  10.155  10.474 -2.5473  0.2239 -0.5970
52975SOL    HW263483   9.954  10.052  10.557  0.5520  1.4550 -1.6649
52976SOL     OW63484   4.226   8.420   1.123  0.4149 -0.4681  0.7589
52976SOL    HW163485   4.141   8.402   1.082 -0.4251  1.3705  1.5672
52976SOL    HW263486   4.208   8.413   1.217  1.9237 -3.0181  0.9577
52977SOL     OW63487  10.338  11.979   6.708 -0.2598  0.6618  0.2633
52977SOL    HW163488  10.342  11.897   6.659 -0.5574 -0.3550  1.8639
52977SOL    HW263489  10.289  12.039   6.651  1.6742  0.4261 -1.8158
52978SOL     OW63490   7.411   1.264   2.454  0.4844  0.2849  0.7152
52978SOL    HW163491   7.381   1.337   2.400 -1.1020 -0.9551 -0.1482
52978SOL    HW263492   7.417   1.301   2.542 -0.0073  1.5202  0.2534
52979SOL     OW63493   6.563   1.872   1.266  0.5610  0.2770  0.5341
52979SOL    HW163494   6.590   1.781   1.257  0.2843  0.3229 -1.0874
52979SOL    HW263495   6.489   1.882   1.206 -1.8395  0.6859  3.2776
52980SOL     OW63496   1.908   8.925  11.217  0.2306 -0.3520  0.8348
52980SOL    HW163497   1.925   8.838  11.252 -0.7380 -0.8889  0.0287
52980SOL    HW263498   1.813   8.936  11.226  0.1404  0.0316 -0.3552
52981SOL     OW63499   0.987   7.670   0.692 -0.3918  0.1165 -0.1315
52981SOL    HW163500   1.081   7.660   0.678 -0.6658  1.5032 -3.8943
52981SOL    HW263501   0.976   7.760   0.723 -0.5617  0.8604 -2.1865
52982SOL     OW63502   5.685   6.335   4.162  0.4305 -0.5357 -0.4751
52982SOL    HW163503   5.664   6.314   4.070 -0.4961 -0.3998 -0.3032
52982SOL    HW263504   5.769   6.292   4.177  0.2939 -1.0946 -1.2075
52983SOL     OW63505   9.390   8.292   6.783  0.4700  0.2200  0.1495
52983SOL    HW163506   9.337   8.264   6.857  1.7741 -2.6601  0.1335
52983SOL    HW263507   9.430   8.374   6.811 -0.3988  0.0606  1.9556
52984SOL     OW63508   5.581  11.714   0.038 -0.1131  0.3765  0.1527
52984SOL    HW163509   5.517  11.775   0.076 -2.0706 -1.5750  0.2124
52984SOL    HW263510   5.528  11.656  -0.017  1.6532 -1.2681  0.0806
52985SOL     OW63511  10.185   9.833   3.103 -0.1056 -0.6176 -0.3818
52985SOL    HW163512  10.218   9.778   3.032  0.4684  0.1272 -0.7016
52985SOL    HW263513  10.128   9.896   3.060  0.4472  0.0025 -0.2215
52986SOL     OW63514   0.532   9.732   9.794 -0.3291 -0.3113  0.4611
52986SOL    HW163515   0.595   9.676   9.841 -0.0815 -0.9237 -0.5803
52986SOL    HW263516   0.534   9.815   9.843  2.1101  0.0800 -0.1471
52987SOL     OW63517   6.214   9.171   2.107 -0.6664 -0.1499  0.4330
52987SOL    HW163518   6.271   9.168   2.031  0.4604  1.0931  1.1812
52987SOL    HW263519   6.130   9.201   2.073  0.1331  1.4927 -0.1735
52988SOL     OW63520   8.531   9.229   6.651 -0.5412 -0.2977 -0.4438
52988SOL    HW163521   8.614   9.277   6.649 -1.8897  2.3541  1.1255
52988SOL    HW263522   8.511   9.211   6.559  1.0543  0.3504 -0.9511
52989SOL     OW63523   1.023   4.283   6.926 -0.1445 -0.3932  0.1785
52989SOL    HW163524   1.003   4.190   6.928 -2.3030  0.0150  1.1364
52989SOL    HW263525   1.092   4.292   6.861 -1.6420 -2.3491 -1.8168
52990SOL     OW63526   3.869  11.128   4.182 -0.3761 -0.2500 -0.0905
52990SOL    HW163527   3.925  11.057   4.151  1.3733  1.8218 -2.1549
52990SOL    HW263528   3.862  11.114   4.276  1.9003 -1.8389 -0.0659
52991SOL     OW63529   8.859   0.189   1.356 -0.0456  0.6681  0.1132
52991SOL    HW163530   8.871   0.184   1.261 -0.3829 -0.8346  0.1242
52991SOL    HW263531   8.949   0.192   1.390  0.1182 -0.3319 -0.2019
52992SOL     OW63532   0.467   9.706   3.843  0.4344 -0.5726  0.3160
52992SOL    HW163533   0.409   9.767   3.888  0.3719 -0.2597 -0.1819
52992SOL    HW263534   0.451   9.622   3.886 -0.2949 -0.4639  0.2699
52993SOL     OW63535   4.303   8.783  10.651 -0.2048  0.9994  0.0578
52993SOL    HW163536   4.248   8.781  10.730  0.1238  1.5671  0.3002
52993SOL    HW263537   4.245   8.818  10.583 -0.8568 -0.5725 -0.2558
52994SOL     OW63538  10.104   0.855  12.006 -0.1683 -0.1512  0.6849
52994SOL    HW163539  10.158   0.934  12.002 -0.5915  0.0898 -0.6530
52994SOL    HW263540  10.055   0.864  12.088 -0.4385  1.1406  0.4123
52995SOL     OW63541   0.527   1.662   3.058  0.0593 -0.3842  0.2736
52995SOL    HW163542   0.450   1.693   3.011  0.4697 -0.5100 -0.4829
52995SOL    HW263543   0.491   1.613   3.132 -0.6356  2.4632  1.9855
52996SOL     OW63544  11.851  11.123   7.123  0.3728 -0.1304  0.6959
52996SOL    HW163545  11.874  11.032   7.145  1.2082  0.3473  1.8864
52996SOL    HW263546  11.793  11.115   7.047  0.7258 -1.6387  0.5516
52997SOL     OW63547   0.637   6.793   8.809 -0.4735 -0.3733 -0.0754
52997SOL    HW163548   0.596   6.768   8.892  0.2995 -0.6876  0.2304
52997SOL    HW263549   0.731   6.781   8.825 -0.3972 -2.0713 -1.5360
52998SOL     OW63550  11.934   6.334   8.633  0.6566 -0.3163  0.0414
52998SOL    HW163551  11.892   6.248   8.633 -1.9845  0.8772 -0.4405
52998SOL    HW263552  11.903   6.376   8.713  1.7206  0.3105  0.1475
52999SOL     OW63553   7.036   2.245   6.302  0.0270  0.1137 -0.3146
52999SOL    HW163554   6.991   2.160   6.299  0.7641 -0.2708 -0.8134
52999SOL    HW263555   6.970   2.307   6.271 -0.5433 -0.2639  0.1186
53000SOL     OW63556   0.734   5.350   2.571 -0.4473  0.1684 -0.2744
53000SOL    HW163557   0.750   5.328   2.663  0.1268 -0.9268 -0.6221
53000SOL    HW263558   0.817   5.387   2.540  0.0537 -1.4006 -0.8907
53001SOL     OW63559   3.047   9.465   3.285  0.7429  0.6189 -0.2889
53001SOL    HW163560   3.048   9.428   3.373  0.4715 -0.0555 -0.5647
53001SOL    HW263561   3.039   9.559   3.300  1.7502  0.6168  0.4230
53002SOL     OW63562   8.802  10.133   3.823 -0.0385 -0.7476  0.4891
53002SOL    HW163563   8.747  10.182   3.884  0.5056  1.0902 -0.4222
53002SOL    HW263564   8.757  10.049   3.813 -1.0325 -0.4583  2.0919
53003SOL     OW63565  10.937   8.031   0.760 -0.4362  0.2236  0.2133
53003SOL    HW163566  10.908   7.951   0.804 -0.7317 -0.0762 -0.5164
53003SOL    HW263567  11.022   8.009   0.722  0.3782  0.8301  1.5711
53004SOL     OW63568   0.888  10.875   0.849  0.3440 -0.2360 -0.3502
53004SOL    HW163569   0.960  10.843   0.904 -0.1448  0.3388  0.6555
53004SOL    HW263570   0.876  10.966   0.877 -1.6990 -0.7249  0.5224
53005SOL     OW63571   5.902   1.515   9.348 -0.4376  0.4334  0.7438
53005SOL    HW163572   5.922   1.436   9.299  2.0568  0.7828  1.0410
53005SOL    HW263573   5.822   1.495   9.395 -0.5301 -1.4546 -0.1396
53006SOL     OW63574   2.799  11.403   2.372  0.3948 -0.3321 -0.2130
53006SOL    HW163575   2.770  11.373   2.458 -0.0928 -0.5925 -0.4633
53006SOL    HW263576   2.809  11.497   2.381  0.9208 -0.4303  0.2903
53007SOL     OW63577   5.422   8.640   0.604  0.2519  0.0514 -0.1389
53007SOL    HW163578   5.394   8.619   0.515 -0.8664  1.5451 -0.1974
53007SOL    HW263579   5.482   8.570   0.628  0.3360 -0.5547 -1.9487
53008SOL     OW63580  12.041   5.020   6.874 -0.1383  0.6481  0.1623
53008SOL    HW163581  12.001   4.968   6.943  1.1954  0.0541  0.5119
53008SOL    HW263582  12.022   5.111   6.898 -1.8405  0.3860 -0.0629
53009SOL     OW63583   1.486   8.820  12.029 -0.6605 -0.2327 -0.5417
53009SOL    HW163584   1.416   8.858  12.082 -1.7598  0.0892 -2.1603
53009SOL    HW263585   1.456   8.731  12.010  0.4452 -0.8961  0.5933
53010SOL     OW63586   3.290   2.690  11.866 -0.1997 -0.3876 -0.1114
53010SOL    HW163587   3.273   2.607  11.912  0.8239 -1.9662 -2.4069
53010SOL    HW263588   3.384   2.704  11.875  0.2737 -1.4030 -2.6094
53011SOL     OW63589   2.190   2.900   8.090  0.0828 -0.0541 -0.0695
53011SOL    HW163590   2.117   2.931   8.036 -0.5325 -0.8740  0.2782
53011SOL    HW263591   2.221   2.978   8.137 -0.2782  0.3808 -0.5531
53012SOL     OW63592   0.393   6.806   0.435 -0.6919  0.4091  0.4359
53012SOL    HW163593   0.412   6.745   0.363 -1.1719 -0.1260  0.7549
53012SOL    HW263594   0.298   6.818   0.432 -0.7391  0.2247  1.1001
53013SOL     OW63595   5.109   1.133   3.783  0.2088  0.1472  0.5531
53013SOL    HW163596   5.148   1.192   3.847  1.9731 -1.3237  0.9222
53013SOL    HW263597   5.096   1.187   3.705  0.9868  1.2100  1.1366
53014SOL     OW63598   9.344   5.813   7.626 -0.3398  0.0053  0.4732
53014SOL    HW163599   9.264   5.807   7.678  0.1445  1.5908  1.4619
53014SOL    HW263600   9.390   5.730   7.644  0.4537  0.9991  3.7687
53015SOL     OW63601  11.784   6.639   6.321  0.6094  0.2402 -0.1537
53015SOL    HW163602  11.837   6.560   6.333 -0.3617 -0.9193 -2.6754
53015SOL    HW263603  11.775   6.647   6.226 -1.8369  1.6677  0.1159
53016SOL     OW63604   3.216  11.594   7.668 -0.4006  0.1722  0.0532
53016SOL    HW163605   3.265  11.665   7.628 -1.0247  1.9027  2.1483
53016SOL    HW263606   3.132  11.633   7.693 -1.5991 -1.8488 -0.5209
53017SOL     OW63607   0.534  10.424   0.319 -0.5331 -0.2441 -0.3485
53017SOL    HW163608   0.559  10.332   0.330  1.0019  0.3427  1.6336
53017SOL    HW263609   0.550  10.464   0.404  1.1904  2.3800 -1.7628
53018SOL     OW63610   8.076   7.692   6.782 -0.0297 -0.1215  0.1887
53018SOL    HW163611   8.066   7.740   6.864 -1.2640  0.8738 -0.5091
53018SOL    HW263612   7.998   7.714   6.731  0.2488 -1.4614 -0.8915
53019SOL     OW63613  11.724   0.505   0.661 -0.0020 -0.4525 -0.3067
53019SOL    HW163614  11.667   0.582   0.663  0.6063  0.0326 -1.0603
53019SOL    HW263615  11.678   0.442   0.605 -2.4304 -2.2662  3.2933
53020SOL     OW63616   9.078   4.180   4.461 -0.0161 -0.2237  0.0536
53020SOL    HW163617   9.083   4.150   4.552 -1.7810 -0.7732 -0.0022
53020SOL    HW263618   9.164   4.221   4.445  1.2951 -2.3523  1.1462
53021SOL     OW63619   2.674   8.990   9.275 -0.3727  0.0254 -0.1605
53021SOL    HW163620   2.668   9.084   9.290  0.5338  0.1361 -0.4125
53021SOL    HW263621   2.659   8.951   9.361  0.6033  0.4656  0.2251
53022SOL     OW63622  11.486  11.889   9.928 -0.5139 -0.5236 -0.4854
53022SOL    HW163623  11.490  11.843   9.844 -0.3976 -1.7047  0.1376
53022SOL    HW263624  11.459  11.821   9.990  3.2706 -0.7303  1.1644
53023SOL     OW63625   9.993   4.569   2.723 -0.0642 -0.1658 -0.3854
53023SOL    HW163626   9.952   4.535   2.803  2.3920  0.9609  1.4994
53023SOL    HW263627  10.027   4.655   2.748 -1.1202  1.2657 -3.3559
53024SOL     OW63628   3.023   9.678   2.160  0.2472  0.1355  0.2178
53024SOL    HW163629   3.041   9.739   2.232  0.3925 -0.5803  0.7902
53024SOL    HW263630   3.108   9.643   2.135  0.2999  0.9518 -0.8385
53025SOL     OW63631  10.614   9.699   2.180 -0.2732  0.0717  0.3319
53025SOL    HW163632  10.580   9.681   2.093  0.6334  1.9850 -0.4681
53025SOL    HW263633  10.540   9.737   2.227 -0.3050  0.5975 -0.1421
53026SOL     OW63634   2.963   3.692   4.944  0.1902  0.3351 -0.4450
53026SOL    HW163635   3.057   3.684   4.960  0.2187  1.3198 -0.0616
53026SOL    HW263636   2.956   3.737   4.860  0.0346 -2.2345 -1.8956
53027SOL     OW63637   0.785   1.020   1.865 -0.0288  0.7452 -0.5818
53027SOL    HW163638   0.842   1.046   1.792 -0.4223  2.2831 -0.3632
53027SOL    HW263639   0.757   1.102   1.904 -0.7731 -0.0445  0.5872
53028SOL     OW63640   2.619   2.147   5.996  0.2708  0.2045  0.0964
53028SOL    HW163641   2.561   2.081   6.036 -0.1744  1.1040  0.9941
53028SOL    HW263642   2.575   2.171   5.915  0.0912 -0.1267  0.0938
53029SOL     OW63643  11.805   3.917   2.879 -0.3569 -0.2046  0.2382
53029SOL    HW163644  11.896   3.903   2.853 -0.2658  0.7123  0.0214
53029SOL    HW263645  11.808   3.993   2.938 -0.7285 -1.4195  1.8807
53030SOL     OW63646   1.633   0.192   0.969  0.6241 -0.2570 -0.3558
53030SOL    HW163647   1.655   0.151   0.886  2.9409 -0.5184  0.3284
53030SOL    HW263648   1.706   0.251   0.988  1.1165 -1.5436  2.3247
53031SOL     OW63649  11.063   5.821  12.113  0.3004 -0.5128 -0.2197
53031SOL    HW163650  11.100   5.859  12.033 -0.4579 -1.8986 -1.2669
53031SOL    HW263651  11.062   5.727  12.097  1.5175 -0.9735  2.0435
53032SOL     OW63652   1.199  11.658   1.289 -0.2096 -0.0089 -0.0837
53032SOL    HW163653   1.283  11.624   1.322 -0.4436 -1.2993 -0.7402
53032SOL    HW263654   1.135  11.590   1.312 -0.8394  0.3273 -0.7855
53033SOL     OW63655   3.929   9.107   4.125  0.0643 -0.0822  0.0219
53033SOL    HW163656   3.873   9.184   4.137 -1.4755 -0.9822 -1.0554
53033SOL    HW263657   3.941   9.101   4.030 -1.4197 -2.1997 -0.0968
53034SOL     OW63658  11.618   1.867   3.775 -0.4788 -0.5661  0.2008
53034SOL    HW163659  11.599   1.818   3.695 -0.8260  0.0264 -0.0815
53034SOL    HW263660  11.567   1.947   3.768  2.0701  1.1160 -0.5917
53035SOL     OW63661   0.693   4.741   9.627 -0.3069  0.2074 -0.1713
53035SOL    HW163662   0.692   4.775   9.716 -1.1560  1.5506 -0.6651
53035SOL    HW263663   0.607   4.700   9.615  0.1304 -0.7601 -0.0996
53036SOL     OW63664   0.176   6.178   3.258 -0.3470 -0.3103 -0.1494
53036SOL    HW163665   0.121   6.115   3.304 -0.2687  0.7024  1.4076
53036SOL    HW263666   0.173   6.150   3.166 -1.1739 -1.9170  0.3269
53037SOL     OW63667   8.018   9.430   0.912  0.5657 -0.1919 -0.1204
53037SOL    HW163668   7.925   9.409   0.917  0.8263 -1.2618  0.6582
53037SOL    HW263669   8.029   9.471   0.826 -0.6985  0.4255 -0.0106
53038SOL     OW63670  10.826   4.733   7.920  0.0177 -0.6758 -0.6073
53038SOL    HW163671  10.870   4.657   7.883  0.2377 -1.3850  1.0033
53038SOL    HW263672  10.736   4.727   7.890 -0.0467 -1.7763 -0.2337
53039SOL     OW63673   6.375   8.528   7.477 -0.1552 -0.1729  0.2551
53039SOL    HW163674   6.451   8.553   7.424 -0.5016  0.1771 -0.0918
53039SOL    HW263675   6.328   8.464   7.423 -0.9114  0.7434 -0.2043
53040SOL     OW63676   0.833   9.685   6.326  0.2304 -0.3137  0.3142
53040SOL    HW163677   0.892   9.660   6.397 -0.4496 -1.2927  0.5534
53040SOL    HW263678   0.846   9.617   6.259  2.6473  1.8620 -1.6166
53041SOL     OW63679   4.289  10.250   2.557  0.1200  0.0056 -0.4296
53041SOL    HW163680   4.327  10.203   2.631  2.2060  0.3704 -1.1897
53041SOL    HW263681   4.198  10.222   2.554  0.2885 -0.8979  1.5502
53042SOL     OW63682   9.461   7.934   3.713 -0.3720  0.1174  0.6611
53042SOL    HW163683   9.386   7.938   3.653  0.1621  1.9223  0.0564
53042SOL    HW263684   9.432   7.983   3.790 -0.3615 -0.5621  1.1108
53043SOL     OW63685   7.874   8.612   5.565 -0.6572 -0.1022  0.3869
53043SOL    HW163686   7.818   8.564   5.626 -1.4871  0.3480 -0.0077
53043SOL    HW263687   7.852   8.577   5.479  1.6381 -1.8699  0.4179
53044SOL     OW63688   3.825   3.849   0.153  0.2359  0.0739 -0.3023
53044SOL    HW163689   3.867   3.893   0.079 -0.6237  0.1562 -0.7608
53044SOL    HW263690   3.786   3.920   0.204 -0.2383 -0.0641 -0.4615
53045SOL     OW63691   1.204   4.384   4.257  0.2667 -0.5642 -0.0907
53045SOL    HW163692   1.117   4.371   4.218 -0.2676 -0.1708  0.9205
53045SOL    HW263693   1.203   4.475   4.287  0.7670 -0.7669  0.5552
53046SOL     OW63694   3.567   0.201   5.614 -0.3608  0.2046  0.0083
53046SOL    HW163695   3.658   0.218   5.591 -1.2208  2.3250 -2.3813
53046SOL    HW263696   3.563   0.106   5.628  1.8594 -0.2209 -1.6798
53047SOL     OW63697   3.942   8.062   6.746 -0.0382 -0.0291  0.5189
53047SOL    HW163698   4.005   8.091   6.680 -1.7987  1.5576 -0.5648
53047SOL    HW263699   3.917   7.974   6.717  0.8199 -0.2252  0.3282
53048SOL     OW63700   0.348   3.630   7.819 -0.8722 -0.3519 -0.1952
53048SOL    HW163701   0.277   3.643   7.882 -1.1775 -0.4115 -0.5259
53048SOL    HW263702   0.305   3.634   7.733 -0.3458  0.4946 -0.4281
53049SOL     OW63703   5.959   9.661   5.899  0.7495 -0.5059  0.2501
53049SOL    HW163704   6.055   9.671   5.897  0.6696  0.2852 -1.4251
53049SOL    HW263705   5.930   9.695   5.815 -0.9646 -1.4657  0.4143
53050SOL     OW63706   8.897   5.560   5.178 -0.2301  0.6828 -0.0807
53050SOL    HW163707   8.988   5.566   5.205  0.2934  0.7352 -1.7564
53050SOL    HW263708   8.876   5.467   5.183  0.9683  0.1719 -2.7570
53051SOL     OW63709   7.849   3.748  11.702 -0.1479 -0.1970  0.0863
53051SOL    HW163710   7.852   3.762  11.608 -2.3139 -0.7596 -0.1160
53051SOL    HW263711   7.859   3.654  11.713  1.4739 -0.0004  0.5532
53052SOL     OW63712   5.672   3.564   6.048 -0.2182  0.2281 -0.4022
53052SOL    HW163713   5.609   3.630   6.080 -0.8772 -0.9681  0.9072
53052SOL    HW263714   5.621   3.510   5.988  0.1289  0.4908 -0.9341
53053SOL     OW63715   3.489   3.437   6.836 -0.0938 -0.5902 -0.0623
53053SOL    HW163716   3.537   3.519   6.822  1.6640 -1.3237  1.3042
53053SOL    HW263717   3.413   3.462   6.888 -1.7499  0.6984 -2.8177
53054SOL     OW63718   9.714  11.547  11.344  0.7999 -0.0842  0.2239
53054SOL    HW163719   9.649  11.562  11.275 -0.4618  1.5830  1.6622
53054SOL    HW263720   9.664  11.509  11.416  1.9813 -1.2760  0.4436
53055SOL     OW63721  10.587   6.483   1.121 -0.2333 -0.6480  0.2198
53055SOL    HW163722  10.492   6.484   1.125 -0.4116 -0.5561 -2.4982
53055SOL    HW263723  10.613   6.575   1.123 -0.2247 -0.6583  0.5804
53056SOL     OW63724   0.093   3.107  11.782 -0.1429 -0.0802 -0.1702
53056SOL    HW163725  -0.001   3.111  11.763 -0.0244 -0.1298 -0.8002
53056SOL    HW263726   0.106   3.168  11.854 -1.1910 -2.4373  2.1716
53057SOL     OW63727   7.265   4.726   8.357  0.1802 -0.6428  0.1458
53057SOL    HW163728   7.245   4.782   8.282 -0.6440 -0.4075  0.5298
53057SOL    HW263729   7.281   4.639   8.319  2.5801  0.0480 -0.5631
53058SOL     OW63730   3.746   9.412   2.249  0.2755  0.3968  0.0402
53058SOL    HW163731   3.663   9.389   2.208 -0.7005  1.4231  1.3440
53058SOL    HW263732   3.757   9.506   2.231  0.2314  0.6790  1.3722
53059SOL     OW63733   7.211   5.797   1.477 -0.2669 -0.6531 -0.4713
53059SOL    HW163734   7.235   5.718   1.429 -0.2212  0.8714 -3.1481
53059SOL    HW263735   7.269   5.865   1.442 -1.5128  0.9605  0.4561
53060SOL     OW63736  11.756  11.682   4.271 -0.1820  0.2250 -0.2211
53060SOL    HW163737  11.831  11.626   4.251 -0.1196  0.1218  0.2850
53060SOL    HW263738  11.713  11.696   4.186  0.8353  0.9146 -0.6448
53061SOL     OW63739  10.740  10.611   6.964 -0.0001 -0.3686  0.3932
53061SOL    HW163740  10.813  10.561   6.929  0.9852  0.8482  0.6374
53061SOL    HW263741  10.750  10.604   7.059  1.3549  1.8426  0.5028
53062SOL     OW63742   9.999   6.918   5.830  0.2039  0.0629  0.4104
53062SOL    HW163743  10.080   6.926   5.880  1.1076 -0.9719 -0.8174
53062SOL    HW263744  10.023   6.946   5.742 -0.5309 -1.1306 -0.1848
53063SOL     OW63745   8.300   0.113   1.156 -0.4123 -0.0974 -0.5796
53063SOL    HW163746   8.383   0.074   1.127 -0.6041 -0.1047 -1.1286
53063SOL    HW263747   8.277   0.175   1.087 -0.2292  0.8413  0.1854
53064SOL     OW63748   0.914   2.359   0.131  0.7297 -0.2577  0.2889
53064SOL    HW163749   0.970   2.407   0.192  1.9722 -1.8474  0.4789
53064SOL    HW263750   0.860   2.303   0.187 -0.2629  0.4287  0.0439
53065SOL     OW63751   4.729   1.272   9.341 -0.7719  0.2295 -0.5256
53065SOL    HW163752   4.680   1.279   9.422 -1.0891 -1.3173 -0.5610
53065SOL    HW263753   4.662   1.269   9.272 -0.5445  0.4345 -0.7620
53066SOL     OW63754   4.310   9.767   1.504  0.0289  0.3807 -0.0574
53066SOL    HW163755   4.227   9.803   1.473  0.2623  1.0482  0.0902
53066SOL    HW263756   4.363   9.843   1.526  0.7206 -0.0379 -0.2481
53067SOL     OW63757   4.504  10.108   7.940 -0.4540  0.3513  0.4783
53067SOL    HW163758   4.514  10.125   7.847 -0.3087 -1.3007  0.1709
53067SOL    HW263759   4.444  10.177   7.970 -1.9438 -0.1468 -1.1876
53068SOL     OW63760   6.542   6.003   6.994  0.2837  0.1632  0.2384
53068SOL    HW163761   6.636   5.989   6.980  0.6001  0.5227  1.7603
53068SOL    HW263762   6.509   6.033   6.910  1.4949 -0.1948 -0.3816
53069SOL     OW63763   0.968   2.812   1.911 -0.0825  0.2189 -0.1542
53069SOL    HW163764   0.956   2.726   1.872 -1.9154 -0.0638  0.9451
53069SOL    HW263765   0.975   2.796   2.005  3.6377  0.9468 -0.1257
53070SOL     OW63766   5.402   9.641  10.526  0.1753 -0.2641 -0.1359
53070SOL    HW163767   5.318   9.629  10.570  0.7482 -0.0738  1.0606
53070SOL    HW263768   5.432   9.727  10.555 -0.0138  0.4665 -1.9543
53071SOL     OW63769   5.383   8.393   3.677 -0.1631 -0.4995  0.2962
53071SOL    HW163770   5.359   8.451   3.604  1.5145 -0.6298 -0.4006
53071SOL    HW263771   5.390   8.452   3.752  0.9454  0.1589 -0.2853
53072SOL     OW63772   9.315  10.285   7.872  0.0016  0.0049 -0.3297
53072SOL    HW163773   9.260  10.347   7.823  0.0523  0.8562  0.6460
53072SOL    HW263774   9.404  10.317   7.860  0.0271  0.1357  0.1909
53073SOL     OW63775   9.215   9.820   5.946 -0.9452  0.3677 -0.8091
53073SOL    HW163776   9.184   9.910   5.950  1.9773  1.4730 -0.5245
53073SOL    HW263777   9.185   9.780   6.027  2.0775  2.7504  1.7113
53074SOL     OW63778   3.852   5.010   4.450  0.4738 -0.0388 -0.4431
53074SOL    HW163779   3.886   4.925   4.476 -0.7780 -1.2836 -2.5581
53074SOL    HW263780   3.803   5.041   4.526  2.6771 -0.1644  1.1101
53075SOL     OW63781   2.006  11.447  11.591 -0.4819 -0.1911  0.1052
53075SOL    HW163782   2.005  11.359  11.553 -1.3277  0.4492 -1.4509
53075SOL    HW263783   2.098  11.473  11.590  0.0028 -1.6028  2.0296
53076SOL     OW63784   6.321   9.036   4.185 -0.4853 -0.0518  0.0906
53076SOL    HW163785   6.335   9.090   4.108 -0.4937  0.6064  0.5426
53076SOL    HW263786   6.399   8.981   4.192  0.5943  1.5271  0.9322
53077SOL     OW63787   3.617   1.423   1.808 -0.1915 -0.2507  0.2882
53077SOL    HW163788   3.585   1.393   1.893  3.3241  1.2451  2.3792
53077SOL    HW263789   3.583   1.512   1.798 -0.8148 -0.5201 -0.0210
53078SOL     OW63790   7.699   3.173   5.740 -0.4573  0.2208  1.1836
53078SOL    HW163791   7.734   3.182   5.829 -0.7686 -1.2454  1.4748
53078SOL    HW263792   7.767   3.127   5.692 -0.5149  0.5361  0.7921
53079SOL     OW63793   7.324   4.811   1.951  0.2339 -0.2915 -0.0073
53079SOL    HW163794   7.377   4.788   2.027  1.9194  0.1568 -1.0021
53079SOL    HW263795   7.249   4.858   1.987  1.2537  0.3564  1.3539
53080SOL     OW63796   2.908   0.003   5.017  0.1088  0.4982  0.0252
53080SOL    HW163797   2.951   0.034   5.097  0.5541  2.3359 -0.8763
53080SOL    HW263798   2.829   0.057   5.010 -0.8625 -0.8727  0.1368
53081SOL     OW63799  11.250   9.644  10.169 -0.5000  0.0973  0.4720
53081SOL    HW163800  11.307   9.639  10.246 -0.8466  2.0720  0.9058
53081SOL    HW263801  11.164   9.617  10.201 -0.7307  1.2999  0.9027
53082SOL     OW63802   6.264   1.186  10.896 -0.3452 -0.3087  0.4284
53082SOL    HW163803   6.354   1.215  10.880 -0.2762 -1.1030 -0.7866
53082SOL    HW263804   6.226   1.180  10.808 -1.7169  0.3768  0.9501
53083SOL     OW63805   7.850   1.376   8.802  0.1464 -0.3602  0.4633
53083SOL    HW163806   7.760   1.345   8.788  0.1378 -0.0491 -0.1992
53083SOL    HW263807   7.901   1.296   8.812 -0.0288 -0.5721 -0.2940
53084SOL     OW63808   7.529   0.884   2.702  0.0310  0.5883  0.4522
53084SOL    HW163809   7.601   0.863   2.762  0.7242 -1.5034 -0.9620
53084SOL    HW263810   7.468   0.811   2.713 -0.0298  0.3825 -0.9977
53085SOL     OW63811   6.033   3.711   7.630  0.6266  0.1718 -0.1742
53085SOL    HW163812   6.069   3.623   7.615  0.2779  0.0178 -0.1202
53085SOL    HW263813   6.005   3.741   7.544 -0.7699 -0.4457  0.0409
53086SOL     OW63814  11.255   7.195   6.870  0.9727 -0.5141 -0.2046
53086SOL    HW163815  11.254   7.108   6.910  3.8760  0.2577  1.8367
53086SOL    HW263816  11.171   7.234   6.896  0.5776 -1.9114  0.7289
53087SOL     OW63817   4.478   1.002  11.402  0.0985 -0.1895  0.3126
53087SOL    HW163818   4.561   0.955  11.397  0.3078  0.2735 -1.1005
53087SOL    HW263819   4.454   0.999  11.495  1.5026 -0.6513  0.6890
53088SOL     OW63820   6.597   8.453   0.417  0.5502 -0.8936 -0.6460
53088SOL    HW163821   6.592   8.545   0.445  1.7245 -1.8889  3.7651
53088SOL    HW263822   6.523   8.441   0.359 -1.7211  2.0819  1.3233
53089SOL     OW63823   6.688  11.189   4.671  0.1414  0.1866 -0.2951
53089SOL    HW163824   6.636  11.212   4.748 -0.2951  0.5794 -0.7020
53089SOL    HW263825   6.776  11.175   4.706 -0.7467 -3.5849  0.9152
53090SOL     OW63826   2.133   0.253   9.679 -0.0952  0.3456 -0.3662
53090SOL    HW163827   2.064   0.199   9.717  0.6413 -0.8744 -0.7050
53090SOL    HW263828   2.213   0.200   9.687  1.0943  2.2198  1.2069
53091SOL     OW63829   4.021   3.052   6.148  0.2221  0.3244 -0.1530
53091SOL    HW163830   4.055   3.000   6.075  0.9580 -1.7689  1.5599
53091SOL    HW263831   3.927   3.031   6.151  0.0963  0.7992 -0.7947
53092SOL     OW63832   4.221   9.492  11.278 -0.9079 -0.0857 -0.3614
53092SOL    HW163833   4.294   9.533  11.231 -0.3560 -2.4059 -1.6563
53092SOL    HW263834   4.255   9.476  11.366  0.0343 -0.7837 -0.8397
53093SOL     OW63835   9.623   3.996   0.790 -0.1772  0.0243 -0.4619
53093SOL    HW163836   9.661   3.987   0.703  2.0691  0.3912  0.4169
53093SOL    HW263837   9.555   3.929   0.793  0.6519 -0.9535 -2.0214
53094SOL     OW63838   9.178  11.531   6.103 -0.2039  0.1446  0.0208
53094SOL    HW163839   9.166  11.496   6.015  1.0042  0.8574 -0.4506
53094SOL    HW263840   9.126  11.611   6.104 -1.5789 -0.7173  0.5369
53095SOL     OW63841   5.284   3.237   0.509 -0.0783 -0.0813  0.0818
53095SOL    HW163842   5.219   3.202   0.570 -0.7964  1.4525  0.2596
53095SOL    HW263843   5.349   3.279   0.564 -1.3576  2.3840 -0.1273
53096SOL     OW63844  10.593   6.326   8.857 -0.1075 -0.3623 -0.0772
53096SOL    HW163845  10.517   6.371   8.819 -1.0137  1.7329  3.7365
53096SOL    HW263846  10.668   6.380   8.833 -0.3861 -0.0981 -0.3625
53097SOL     OW63847  11.352  10.894   3.138 -0.0883  0.0944  0.4656
53097SOL    HW163848  11.362  10.815   3.190 -1.4486  0.4581  1.3498
53097SOL    HW263849  11.325  10.862   3.051 -1.3766 -0.4086  1.0264
53098SOL     OW63850   9.829   1.934   0.095 -0.9658 -0.2069 -0.0711
53098SOL    HW163851   9.821   1.856   0.040 -1.9047 -0.1158 -0.0870
53098SOL    HW263852   9.757   1.991   0.067 -0.3435  0.6422 -0.0053
53099SOL     OW63853   7.949   1.455   6.958  0.3476 -0.4242  0.1590
53099SOL    HW163854   7.946   1.364   6.929  0.2212 -0.8725  1.5153
53099SOL    HW263855   7.862   1.471   6.994 -0.5077  1.0460 -2.3054
53100SOL     OW63856  11.505   3.582   2.015  1.1627  0.0856 -0.3915
53100SOL    HW163857  11.477   3.615   2.100  1.6538  0.4697 -0.3813
53100SOL    HW263858  11.462   3.497   2.008  1.4123 -0.1119  0.3970
53101SOL     OW63859  11.985   7.876   6.056  0.0787 -0.5312 -0.3553
53101SOL    HW163860  11.933   7.879   6.136  1.6006 -1.7817  0.7527
53101SOL    HW263861  11.921   7.873   5.985 -1.3176  1.4334  0.7219
53102SOL     OW63862   7.573   3.903   3.775  0.4618  0.0797 -0.0313
53102SOL    HW163863   7.505   3.836   3.780  0.2712  0.2440 -0.3231
53102SOL    HW263864   7.566   3.951   3.858 -0.9369  1.1771 -0.7358
53103SOL     OW63865   8.985  11.965   9.442  0.0412 -0.2218  0.2582
53103SOL    HW163866   9.000  12.019   9.363 -1.6167  1.1424  0.8231
53103SOL    HW263867   8.975  11.876   9.408 -0.5271  0.3175 -1.0879
53104SOL     OW63868   0.895   7.627  10.361 -0.0861  0.0455 -0.0210
53104SOL    HW163869   0.989   7.612  10.372 -0.6069 -1.9152  2.6732
53104SOL    HW263870   0.878   7.710  10.406  0.2177  0.0256  0.1305
53105SOL     OW63871   3.109   1.263  10.419  0.2460  0.4851  0.1253
53105SOL    HW163872   3.129   1.256  10.325  1.0694  0.7735  0.2651
53105SOL    HW263873   3.135   1.178  10.455 -0.0672  0.3755  0.0952
53106SOL     OW63874   7.743   7.892   3.192 -0.0594  0.0282  0.0342
53106SOL    HW163875   7.796   7.927   3.120 -0.3614  0.5181  0.0513
53106SOL    HW263876   7.653   7.901   3.162 -0.1127 -1.8522 -0.4802
53107SOL     OW63877   8.147   2.082   7.193 -0.5227  0.3827 -0.4552
53107SOL    HW163878   8.067   2.116   7.154 -1.7949  0.2267  1.8697
53107SOL    HW263879   8.139   1.987   7.188  0.2515  0.3592 -1.5721
53108SOL     OW63880   5.747  11.534   2.598  0.4842 -0.6125 -0.0137
53108SOL    HW163881   5.842  11.525   2.603  0.5241 -0.1822 -0.0022
53108SOL    HW263882   5.722  11.477   2.525  0.8190 -0.2501 -0.4146
53109SOL     OW63883   3.723   3.951   5.922  0.1384  0.4138  0.7040
53109SOL    HW163884   3.724   3.856   5.933  0.6696  0.1427 -1.2713
53109SOL    HW263885   3.633   3.971   5.896  0.6323  0.0383 -1.5036
53110SOL     OW63886  10.076   0.499   0.381 -0.1839  0.6627  0.5761
53110SOL    HW163887  10.016   0.426   0.365 -0.5085  0.5599  2.1497
53110SOL    HW263888  10.105   0.525   0.293 -0.9588 -0.5909 -0.0868
53111SOL     OW63889   9.612   3.211   7.158  0.1470 -0.2522  0.5291
53111SOL    HW163890   9.605   3.290   7.212 -1.3153  0.3153 -0.4449
53111SOL    HW263891   9.529   3.165   7.171 -0.5335  0.2579 -1.7469
53112SOL     OW63892  11.940   5.075  10.022 -0.6750  0.2847  0.3105
53112SOL    HW163893  11.926   5.107   9.933  3.8044 -0.1556 -0.7726
53112SOL    HW263894  11.918   4.982  10.018 -1.6031  0.5129 -0.0054
53113SOL     OW63895   5.040   1.828   0.461 -0.5014 -0.1255 -0.1505
53113SOL    HW163896   5.039   1.862   0.550  0.4953  0.5165 -0.3761
53113SOL    HW263897   5.047   1.733   0.472 -3.0039 -0.3095  0.4747
53114SOL     OW63898   8.858   0.816   3.388  0.3806 -0.4370 -0.1263
53114SOL    HW163899   8.796   0.863   3.334 -0.0180 -0.0635  0.6486
53114SOL    HW263900   8.943   0.857   3.369  0.3188 -0.6110 -0.7977
53115SOL     OW63901   9.237   4.320   6.301  0.5742  0.3064 -0.2423
53115SOL    HW163902   9.223   4.256   6.370 -0.9738  1.6276  0.7510
53115SOL    HW263903   9.165   4.306   6.240  0.5957  0.6820 -0.3573
53116SOL     OW63904  11.708   1.142   1.628 -0.1596 -0.3302  0.3818
53116SOL    HW163905  11.614   1.134   1.614 -0.0760 -0.5952 -0.0443
53116SOL    HW263906  11.716   1.186   1.713 -0.6958  1.4292 -0.4212
53117SOL     OW63907   1.097   2.571  10.821 -0.3401  0.2226  0.1481
53117SOL    HW163908   1.096   2.577  10.916  0.7241 -1.7427  0.3410
53117SOL    HW263909   1.009   2.541  10.798 -0.0978 -0.9871  0.7027
53118SOL     OW63910   6.499  11.753   0.524  0.2926 -0.4162 -0.4323
53118SOL    HW163911   6.418  11.740   0.574 -0.4339 -1.2728 -1.7812
53118SOL    HW263912   6.545  11.823   0.571 -1.4352  0.4209  0.0871
53119SOL     OW63913  11.684  10.644   6.990  0.3950  0.1648 -0.1837
53119SOL    HW163914  11.731  10.604   7.063  0.5169 -0.1260 -0.4170
53119SOL    HW263915  11.649  10.569   6.941  1.4328  0.2934 -1.1724
53120SOL     OW63916   5.347   2.241   7.355 -0.0549 -0.2624  1.2530
53120SOL    HW163917   5.322   2.298   7.283  2.0989  0.0732  0.7200
53120SOL    HW263918   5.317   2.287   7.434 -1.6502 -0.2259  0.6654
53121SOL     OW63919   5.245   3.200  10.850  0.0034  0.7266  0.1206
53121SOL    HW163920   5.312   3.267  10.863 -0.0218  0.7848 -0.0531
53121SOL    HW263921   5.181   3.240  10.792  0.0908  0.4817 -0.1474
53122SOL     OW63922   7.920   9.877   4.304 -0.2831 -0.4383 -0.1635
53122SOL    HW163923   7.968   9.957   4.326  0.4784 -1.1422  0.9066
53122SOL    HW263924   7.852   9.871   4.371 -0.1039 -0.8619 -0.0140
53123SOL     OW63925   6.119   5.912   3.010  0.3168  0.1828  0.4721
53123SOL    HW163926   6.032   5.879   2.984 -0.2547  2.8393 -1.4459
53123SOL    HW263927   6.180   5.863   2.955 -0.3820  1.1826 -1.2815
53124SOL     OW63928   1.128   7.385   0.894 -0.0805  0.2366 -0.4743
53124SOL    HW163929   1.130   7.473   0.930  0.4753  0.0436 -0.0247
53124SOL    HW263930   1.064   7.389   0.823 -2.3825  0.2457  1.4930
53125SOL     OW63931   8.840   8.972   9.289 -0.3573 -0.0531 -0.0220
53125SOL    HW163932   8.901   9.042   9.263  1.7931 -1.4520  0.9687
53125SOL    HW263933   8.897   8.897   9.307 -2.3768 -1.3230  1.3707
53126SOL     OW63934  11.484   1.665   5.826 -0.1696  0.0806  0.0858
53126SOL    HW163935  11.421   1.614   5.878  0.3591 -0.3290  0.3361
53126SOL    HW263936  11.485   1.621   5.741 -1.6924  1.2748 -0.5965
53127SOL     OW63937   0.500  11.538   1.759  0.6800 -0.0822  0.7019
53127SOL    HW163938   0.493  11.443   1.763 -0.2218 -0.0036  1.5475
53127SOL    HW263939   0.534  11.563   1.845  0.7551  0.3788  0.5421
53128SOL     OW63940   5.454   3.289   5.156 -0.0572  0.1287 -0.1625
53128SOL    HW163941   5.508   3.367   5.161 -1.2051  1.0257 -1.1424
53128SOL    HW263942   5.424   3.273   5.245 -0.0745  1.0027 -0.0106
53129SOL     OW63943   9.983   2.763   9.690 -0.2417 -0.1035  0.0677
53129SOL    HW163944  10.037   2.687   9.713  0.5329  0.7158  1.0755
53129SOL    HW263945  10.020   2.835   9.741 -0.3782  1.1636 -1.5287
53130SOL     OW63946   6.598   9.977   2.867  0.2316  0.2235 -0.2668
53130SOL    HW163947   6.601  10.030   2.947 -1.3799 -0.1374  0.0588
53130SOL    HW263948   6.615   9.887   2.897  3.1856  0.5010 -0.8453
53131SOL     OW63949  10.699   5.950   4.546 -0.0772 -0.0646 -0.2728
53131SOL    HW163950  10.762   6.017   4.519 -0.9243  0.2934 -1.4392
53131SOL    HW263951  10.616   5.997   4.552 -0.3432 -0.6293  0.7845
53132SOL     OW63952   7.740   0.082  11.304 -0.2436 -0.2514  0.1328
53132SOL    HW163953   7.734   0.143  11.378 -0.1536 -0.6580  0.4782
53132SOL    HW263954   7.650   0.077  11.270 -0.2727 -0.0119  0.1668
53133SOL     OW63955  11.457   0.134   2.738 -0.2547  0.1475 -1.0213
53133SOL    HW163956  11.433   0.050   2.775 -0.7715  0.3302 -0.9272
53133SOL    HW263957  11.549   0.147   2.762 -0.2184 -0.3201 -0.9181
53134SOL     OW63958   8.751   3.267   5.349  0.3404 -0.2574  0.3424
53134SOL    HW163959   8.680   3.317   5.308 -0.5416 -0.9448  0.9776
53134SOL    HW263960   8.709   3.223   5.424  1.0858 -1.8450 -0.1214
53135SOL     OW63961   2.426   5.178   3.269 -0.4220  0.0980 -0.6831
53135SOL    HW163962   2.353   5.129   3.306 -0.8235  0.0276 -1.5414
53135SOL    HW263963   2.464   5.225   3.343 -1.9856  0.9586 -0.3866
53136SOL     OW63964   5.335   3.195   3.237  0.1676  0.0383 -0.3122
53136SOL    HW163965   5.381   3.129   3.185  2.6538  0.6983  0.9450
53136SOL    HW263966   5.399   3.264   3.252 -1.0171  0.7347  2.0671
53137SOL     OW63967   9.393   0.539   6.833  0.2097 -0.5726 -0.6905
53137SOL    HW163968   9.326   0.544   6.902  1.3555 -1.7061  0.5887
53137SOL    HW263969   9.353   0.581   6.757 -0.6263  2.0106  1.0306
53138SOL     OW63970  10.275   6.637   6.743 -0.2943  0.6247  0.0104
53138SOL    HW163971  10.208   6.691   6.701  0.3453 -0.1682 -2.1761
53138SOL    HW263972  10.236   6.550   6.746 -0.0321  0.5196  0.3487
53139SOL     OW63973   1.713   6.173   5.408 -0.0348  0.2846  0.0950
53139SOL    HW163974   1.748   6.165   5.497 -3.9882 -0.1471  1.8176
53139SOL    HW263975   1.693   6.266   5.399  0.9548  0.4399 -0.6627
53140SOL     OW63976   4.033   2.819   7.810  0.1753  0.5904  0.2171
53140SOL    HW163977   4.011   2.912   7.798  0.9776  0.8972  0.9732
53140SOL    HW263978   4.111   2.821   7.865  0.4450 -0.5311 -0.1114
53141SOL     OW63979   3.782  11.373   3.452  0.1959  0.2725 -0.3467
53141SOL    HW163980   3.867  11.357   3.492 -0.0908  0.2180  0.2592
53141SOL    HW263981   3.772  11.303   3.388 -1.3396 -2.6161  2.7228
53142SOL     OW63982   8.497   7.396   5.857  0.1474  0.3035 -0.3157
53142SOL    HW163983   8.563   7.360   5.798 -0.8399 -1.8915 -0.2003
53142SOL    HW263984   8.531   7.377   5.945  0.5576  1.5322 -0.1929
53143SOL     OW63985  11.510  10.899   4.829  0.5994  0.2221  0.1981
53143SOL    HW163986  11.545  10.984   4.854 -2.1969  1.7246 -0.5725
53143SOL    HW263987  11.511  10.901   4.733 -1.4393  0.3329  0.1460
53144SOL     OW63988   3.668   8.775   7.513 -0.5268  0.4387  0.3673
53144SOL    HW163989   3.628   8.693   7.486  0.1631 -0.4420  1.8736
53144SOL    HW263990   3.610   8.809   7.581  1.0056 -0.7315  2.3988
53145SOL     OW63991   6.893   6.449   3.624 -0.0263  0.2761 -0.2637
53145SOL    HW163992   6.963   6.398   3.665 -0.4750 -0.1814 -0.0617
53145SOL    HW263993   6.933   6.485   3.545  1.0170  1.5945  0.7976
53146SOL     OW63994   8.294   8.920   6.858  0.0214 -0.2327 -0.2413
53146SOL    HW163995   8.343   8.995   6.891  1.8412 -0.4938 -2.1783
53146SOL    HW263996   8.348   8.885   6.788 -1.2957 -2.7249 -0.1088
53147SOL     OW63997   4.635   7.811   8.544  0.0772 -0.2649  0.9804
53147SOL    HW163998   4.623   7.902   8.515  0.2392 -0.7159 -0.5992
53147SOL    HW263999   4.722   7.787   8.514 -0.2386 -1.1670  0.7568
53148SOL     OW64000   3.326   0.525   6.004 -0.1983  0.2741 -0.0293
53148SOL    HW164001   3.274   0.509   5.925 -0.6846  0.6040  0.2189
53148SOL    HW264002   3.268   0.503   6.076 -1.4754  4.3137  0.4311
53149SOL     OW64003  11.275   8.288   0.700 -0.9098 -0.7348 -0.6589
53149SOL    HW164004  11.286   8.216   0.762  0.5495 -0.8883 -1.0670
53149SOL    HW264005  11.362   8.300   0.661 -1.2147  1.0057 -0.8698
53150SOL     OW64006   7.349   3.721   6.801 -0.2097 -0.0075 -0.2691
53150SOL    HW164007   7.280   3.724   6.735 -2.0668  2.2848  1.5846
53150SOL    HW264008   7.372   3.812   6.816  1.4964 -0.5834  0.9280
53151SOL     OW64009  10.638   2.620   5.012 -0.1372 -0.2217 -0.0960
53151SOL    HW164010  10.679   2.599   5.095 -0.0892  0.4023  0.0423
53151SOL    HW264011  10.707   2.603   4.947  0.5737  1.3878  0.1819
53152SOL     OW64012  10.083   9.823   8.459 -0.2090 -0.2105 -0.3214
53152SOL    HW164013  10.105   9.849   8.549 -1.5047  1.2580 -0.3952
53152SOL    HW264014   9.993   9.792   8.464 -0.5984  0.7161 -1.2555
53153SOL     OW64015  10.423   1.937   7.149  0.3045 -0.4478 -0.1606
53153SOL    HW164016  10.515   1.944   7.126  0.2597  0.1408 -0.1899
53153SOL    HW264017  10.421   1.878   7.224  0.6018 -1.1916 -0.7359
53154SOL     OW64018   8.124   6.149   1.486 -0.4109  0.3212  0.1219
53154SOL    HW164019   8.208   6.148   1.441  0.4225  1.5481  1.5426
53154SOL    HW264020   8.131   6.079   1.551 -0.7526 -0.0156 -0.2040
53155SOL     OW64021   1.337   4.058   7.980  0.1287 -0.0775  0.1269
53155SOL    HW164022   1.269   4.118   8.011 -2.1510 -1.3435 -2.0699
53155SOL    HW264023   1.348   3.996   8.052 -1.0740  0.1661  0.5550
53156SOL     OW64024   4.350  11.167   5.674 -0.0849 -0.1648  0.0843
53156SOL    HW164025   4.374  11.229   5.743  1.0934 -1.2977  0.7205
53156SOL    HW264026   4.412  11.185   5.603  0.0023 -0.3646  0.1111
53157SOL     OW64027   5.027   1.361   8.903 -0.2489 -0.0517  0.4460
53157SOL    HW164028   5.019   1.288   8.965  0.9250 -0.1863  0.4526
53157SOL    HW264029   5.008   1.322   8.818  0.6645 -0.4501  0.4102
53158SOL     OW64030   7.340   4.005  11.341 -0.0466 -0.8534  0.4275
53158SOL    HW164031   7.413   4.063  11.363 -1.0556  1.1485 -1.1503
53158SOL    HW264032   7.311   3.970  11.425  0.8993  0.5915  1.4056
53159SOL     OW64033   6.880  11.624   3.654  0.2848 -0.2448 -0.3179
53159SOL    HW164034   6.787  11.622   3.676  0.3147  0.5083 -0.0751
53159SOL    HW264035   6.907  11.533   3.652 -0.0720 -0.4018  1.2530
53160SOL     OW64036   4.158   4.663   7.471  0.1756  0.0236  0.2146
53160SOL    HW164037   4.221   4.670   7.543  0.2945  1.5432 -0.0177
53160SOL    HW264038   4.082   4.713   7.501  0.0608  0.3006 -0.5394
53161SOL     OW64039   2.727   0.477   9.784 -0.1961  0.0001 -0.7039
53161SOL    HW164040   2.743   0.450   9.874  0.3322 -2.0826 -1.3774
53161SOL    HW264041   2.796   0.542   9.766 -1.0105  1.3140  0.7032
53162SOL     OW64042   2.566   6.988   5.186  0.2307  0.2451 -0.1518
53162SOL    HW164043   2.524   7.036   5.115  0.2411  0.3775 -0.0698
53162SOL    HW264044   2.584   6.902   5.150 -0.5457  0.0227 -0.0479
53163SOL     OW64045   8.041   4.982   5.289  0.2400  0.0204 -0.1202
53163SOL    HW164046   8.136   4.968   5.291  0.3385  0.1655 -2.2815
53163SOL    HW264047   8.005   4.902   5.328  1.2033 -0.5721 -0.4046
53164SOL     OW64048  11.462  11.919   7.594  0.5589  0.8923  0.0694
53164SOL    HW164049  11.431  11.894   7.681  0.4091  0.6787 -0.0450
53164SOL    HW264050  11.450  11.840   7.540  2.5014  0.3870  0.3195
53165SOL     OW64051   0.788  11.653   4.545 -0.4615  0.4517 -0.1107
53165SOL    HW164052   0.728  11.693   4.608 -0.9439  1.6560 -1.2868
53165SOL    HW264053   0.874  11.690   4.568  0.0138 -1.6703  1.9015
53166SOL     OW64054  10.372  11.787   2.209 -0.0927 -0.2635 -0.0260
53166SOL    HW164055  10.296  11.825   2.164 -1.1124 -1.6270  0.4769
53166SOL    HW264056  10.359  11.810   2.301  1.4518  1.6351 -0.2207
53167SOL     OW64057   8.380   4.257  10.413 -0.7013  0.8899  0.0354
53167SOL    HW164058   8.360   4.309  10.335  1.6151 -1.3744 -2.2463
53167SOL    HW264059   8.475   4.252  10.415 -0.7850 -1.7948  1.1162
53168SOL     OW64060   6.811   9.940  11.624  0.1257 -0.0057 -0.3091
53168SOL    HW164061   6.754   9.907  11.693  2.2891  0.3511  1.7906
53168SOL    HW264062   6.779  10.028  11.606  0.1059  0.2708  0.9779
53169SOL     OW64063  10.373   9.216   4.809 -0.5098 -1.0221 -0.6046
53169SOL    HW164064  10.346   9.195   4.899 -0.7756  1.6498 -0.0010
53169SOL    HW264065  10.468   9.218   4.812 -0.5410  0.9961  0.1527
53170SOL     OW64066  11.062   1.771   3.596  0.0782  0.2279 -0.6271
53170SOL    HW164067  11.020   1.774   3.510 -0.6679 -1.4073 -0.3580
53170SOL    HW264068  10.991   1.790   3.658  0.0405 -0.9969 -0.2598
53171SOL     OW64069  11.560   3.963  10.241  0.1337 -0.2811 -0.1736
53171SOL    HW164070  11.562   3.940  10.334 -1.3826  0.2561  0.0372
53171SOL    HW264071  11.480   4.015  10.232  0.9446  0.8060 -1.5298
53172SOL     OW64072   7.844  10.465   3.639  0.0745 -0.1065 -0.5161
53172SOL    HW164073   7.892  10.505   3.567  0.0866  1.0423  0.1203
53172SOL    HW264074   7.757  10.506   3.636  0.3783  0.6608  0.7039
53173SOL     OW64075   4.486   3.206   3.690 -0.6354 -0.2301  0.1438
53173SOL    HW164076   4.569   3.165   3.714 -1.2035 -0.3624  1.9945
53173SOL    HW264077   4.512   3.293   3.656  0.2999 -0.6240 -0.1996
53174SOL     OW64078  10.660   2.408  10.712 -0.2736  0.9570 -0.7501
53174SOL    HW164079  10.676   2.497  10.742 -0.9215  1.3861 -1.6468
53174SOL    HW264080  10.697   2.353  10.781 -0.2711  1.9097  0.0321
53175SOL     OW64081   5.604   2.511   4.054 -0.1197 -0.1716 -0.6186
53175SOL    HW164082   5.669   2.545   3.993 -0.4873  2.0790  0.1446
53175SOL    HW264083   5.521   2.545   4.022 -0.5057 -0.2606  0.2504
53176SOL     OW64084   2.743   6.865   5.383  0.4135 -0.4051  0.2108
53176SOL    HW164085   2.821   6.899   5.427 -1.7657  1.7024  2.8365
53176SOL    HW264086   2.717   6.935   5.323  0.3991 -0.9989 -0.4864
53177SOL     OW64087   1.689   7.014   6.648  0.1505 -0.2747  0.5838
53177SOL    HW164088   1.629   7.027   6.575 -2.4742  0.4686  2.6752
53177SOL    HW264089   1.712   6.921   6.646 -1.3926 -0.6567 -0.1066
53178SOL     OW64090   8.895   3.566   6.691  0.0382 -0.1858 -0.2022
53178SOL    HW164091   8.867   3.641   6.743  1.3043 -0.2058  0.5466
53178SOL    HW264092   8.991   3.567   6.695  0.0975 -1.8282 -0.1850
53179SOL     OW64093   8.007   6.017   4.028 -0.7704  0.0923  0.6517
53179SOL    HW164094   7.920   6.003   3.992 -1.3981  0.4686  1.9698
53179SOL    HW264095   7.993   6.033   4.121  0.5512  1.8391  0.6004
53180SOL     OW64096   2.166   1.074   5.123 -0.0814 -0.4805 -0.4079
53180SOL    HW164097   2.143   1.166   5.132 -1.1886 -0.5464 -1.9836
53180SOL    HW264098   2.196   1.047   5.210 -1.0347  1.0144  0.4181
53181SOL     OW64099  10.004   0.900   5.936  0.7154 -0.0604  0.3087
53181SOL    HW164100   9.940   0.882   5.866  0.1421 -2.0058  1.2473
53181SOL    HW264101  10.088   0.906   5.890 -0.0383  2.3300 -0.9331
53182SOL     OW64102   3.828   1.553   3.172  0.1671 -0.2481  0.1738
53182SOL    HW164103   3.788   1.561   3.086  1.3343 -0.0227 -0.3711
53182SOL    HW264104   3.916   1.521   3.155 -0.4141 -2.8321  1.4813
53183SOL     OW64105   0.576   2.364   3.071  0.4946  0.2309 -0.2419
53183SOL    HW164106   0.553   2.402   2.987  1.3355  0.8352 -0.2042
53183SOL    HW264107   0.641   2.297   3.051 -1.3052 -1.5919 -0.3634
53184SOL     OW64108   3.924   0.677   5.401  0.3445 -0.0389  0.3370
53184SOL    HW164109   3.891   0.618   5.334  1.3726 -0.4140  0.1429
53184SOL    HW264110   3.845   0.717   5.439 -0.2299  1.2841 -2.0629
53185SOL     OW64111   1.351  11.760   5.855 -0.2121 -0.1078 -0.2310
53185SOL    HW164112   1.342  11.722   5.768 -0.0015  0.1005 -0.3477
53185SOL    HW264113   1.388  11.847   5.839  1.7080 -0.8030  0.1807
53186SOL     OW64114   9.336   3.438  10.116 -0.2524  0.6277 -0.0332
53186SOL    HW164115   9.397   3.498  10.072 -0.3495 -0.6567 -2.0424
53186SOL    HW264116   9.363   3.351  10.089 -0.0792 -0.3337  2.8708
53187SOL     OW64117   9.001   6.454   3.834  0.1600 -0.3976  0.1300
53187SOL    HW164118   8.948   6.534   3.838 -1.2683 -1.2169 -1.0553
53187SOL    HW264119   9.090   6.482   3.855 -0.4026  1.3941  0.2556
53188SOL     OW64120   3.987   9.444   0.340  0.1060 -0.0668 -0.4602
53188SOL    HW164121   3.916   9.509   0.343  1.0810  1.0449 -0.7077
53188SOL    HW264122   3.946   9.363   0.370 -0.5582  1.2062  2.3830
53189SOL     OW64123  11.500   5.068   5.948  0.6531 -0.2178 -0.3187
53189SOL    HW164124  11.589   5.097   5.969  1.8928 -2.0287 -2.5835
53189SOL    HW264125  11.470   5.132   5.882 -0.6135  1.5525  1.8247
53190SOL     OW64126   1.664   2.856   6.655 -0.5675  0.2700 -0.7106
53190SOL    HW164127   1.739   2.914   6.669  0.6529 -1.5421  0.8846
53190SOL    HW264128   1.656   2.807   6.737 -1.8597 -1.4103 -1.7622
53191SOL     OW64129   0.025   6.396  12.043  0.3362  0.0227 -0.3706
53191SOL    HW164130   0.045   6.461  11.976  0.8528  0.3785  0.1152
53191SOL    HW264131  -0.008   6.448  12.117  3.7904  0.1764  1.2685
53192SOL     OW64132  10.967   1.546   5.878 -0.0775 -0.2893  0.2676
53192SOL    HW164133  10.884   1.589   5.900  0.3450  0.1470  1.0506
53192SOL    HW264134  11.034   1.610   5.901  0.5056 -0.9034  0.2944
53193SOL     OW64135   2.444   2.180   1.381 -0.1873 -0.3361 -0.2487
53193SOL    HW164136   2.463   2.092   1.349  2.2547 -0.1137  0.4076
53193SOL    HW264137   2.467   2.238   1.308  1.2705 -0.0955  0.3625
53194SOL     OW64138   2.564   9.557   4.264  0.3238 -0.6046  0.2083
53194SOL    HW164139   2.473   9.574   4.242  0.2323 -0.3203  0.7979
53194SOL    HW264140   2.576   9.464   4.245 -0.1915 -0.7287  0.4784
53195SOL     OW64141   1.579   0.457   1.673 -0.1154 -0.1081 -0.0909
53195SOL    HW164142   1.538   0.543   1.671 -0.6770 -0.3583  0.3087
53195SOL    HW264143   1.513   0.400   1.712  0.8318 -0.4046  1.1513
53196SOL     OW64144   7.909   4.505   4.849 -0.3479  0.3779 -0.5051
53196SOL    HW164145   7.836   4.565   4.862 -0.3561  0.4825 -1.0193
53196SOL    HW264146   7.923   4.504   4.755  1.1452  1.3485 -0.3337
53197SOL     OW64147   4.528   5.268   9.508  0.5368 -0.0528  0.0569
53197SOL    HW164148   4.551   5.326   9.436  1.5414 -1.1600 -0.5319
53197SOL    HW264149   4.599   5.205   9.513  0.4975 -0.0181  2.0216
53198SOL     OW64150   3.262   1.268   6.687 -0.2349  0.0382  0.2370
53198SOL    HW164151   3.183   1.258   6.635  0.4509  2.1416 -1.3969
53198SOL    HW264152   3.328   1.216   6.641  0.2763  1.5963 -0.9189
53199SOL     OW64153   4.273  10.794   9.309  0.1786 -0.1851 -0.8057
53199SOL    HW164154   4.309  10.723   9.364 -1.4642 -0.5110 -0.0863
53199SOL    HW264155   4.317  10.783   9.225  0.3818 -1.7192 -0.5413
53200SOL     OW64156  10.936   7.669   0.055  0.1741  0.2690  0.2123
53200SOL    HW164157  11.028   7.654   0.034  0.0792  0.1565 -0.1280
53200SOL    HW264158  10.911   7.746   0.004  0.8208  2.0581  2.4206
53201SOL     OW64159   1.400   0.549  10.191  0.3782  0.2018 -1.0254
53201SOL    HW164160   1.493   0.568  10.178  0.6550 -0.4639 -0.0807
53201SOL    HW264161   1.373   0.604  10.264  0.3507 -0.5138 -0.4831
53202SOL     OW64162   3.923   3.550  11.017  0.1475 -0.0872 -0.8510
53202SOL    HW164163   3.875   3.632  11.004  0.8492  0.7514  1.3260
53202SOL    HW264164   3.912   3.532  11.111 -1.6595 -3.5848 -1.5736
53203SOL     OW64165   1.451   3.958   5.298 -0.9172  0.1820 -0.0474
53203SOL    HW164166   1.505   3.882   5.276  0.3841  1.3509 -1.1282
53203SOL    HW264167   1.422   3.942   5.388  1.5251 -0.3878  0.7279
53204SOL     OW64168   4.897  11.621   2.561 -0.0538 -0.0725 -0.6563
53204SOL    HW164169   4.819  11.611   2.616 -1.3635  0.2963 -2.3581
53204SOL    HW264170   4.863  11.652   2.477  2.0105  0.7266 -1.2565
53205SOL     OW64171  10.084   5.516   6.113  0.6116 -0.1103  0.0928
53205SOL    HW164172  10.127   5.431   6.107  0.2796 -0.3846  1.4674
53205SOL    HW264173  10.142   5.575   6.065  0.7295 -1.1349 -1.0813
53206SOL     OW64174  10.732  11.966   9.941  0.0082  0.2266  0.1754
53206SOL    HW164175  10.655  11.978   9.997 -0.5422 -0.6881 -0.3634
53206SOL    HW264176  10.709  12.009   9.859 -1.3460 -2.8338 -1.2028
53207SOL     OW64177   1.415   6.021   4.346 -0.6531 -0.3934 -0.3387
53207SOL    HW164178   1.425   6.059   4.258  2.0009  0.3679  0.2125
53207SOL    HW264179   1.439   5.929   4.335 -1.5810 -0.6140 -0.6192
53208SOL     OW64180   9.677   0.087  10.886 -0.8587 -0.1957  0.1912
53208SOL    HW164181   9.620   0.067  10.961 -1.4373  1.8789  0.3500
53208SOL    HW264182   9.619   0.129  10.822  0.4747  2.2023  0.4502
53209SOL     OW64183  11.160   6.173   7.335  0.5798  0.2975  0.1878
53209SOL    HW164184  11.184   6.161   7.243 -0.8817 -1.7766  0.0156
53209SOL    HW264185  11.121   6.260   7.338  1.7191  0.8767 -0.8984
53210SOL     OW64186   1.689   0.204  11.920 -0.2168  0.4119 -0.6127
53210SOL    HW164187   1.734   0.170  11.998 -0.0805 -0.0691 -0.8968
53210SOL    HW264188   1.620   0.260  11.955 -1.1335 -0.9920 -0.0790
53211SOL     OW64189   7.435   5.711   4.012  0.5524  0.5604  0.1028
53211SOL    HW164190   7.406   5.619   4.008 -1.8241  1.2575 -1.9180
53211SOL    HW264191   7.473   5.727   3.926 -0.5823  1.8423 -0.2025
53212SOL     OW64192   3.393   7.451  11.532 -0.0482 -0.4784  0.8970
53212SOL    HW164193   3.307   7.492  11.530  1.0722  2.0847  1.7037
53212SOL    HW264194   3.405   7.414  11.445 -1.0752  1.1052  0.0464
53213SOL     OW64195   3.931   0.657   2.432  0.1547 -0.1209 -0.0611
53213SOL    HW164196   3.836   0.673   2.437 -0.1539 -1.7949  0.0422
53213SOL    HW264197   3.946   0.638   2.339 -0.4064 -3.9473  0.4906
53214SOL     OW64198  11.117   4.862   2.436  0.9236 -0.1332 -0.6006
53214SOL    HW164199  11.206   4.896   2.443  1.4947 -0.7513 -3.6484
53214SOL    HW264200  11.128   4.770   2.410 -0.6195 -0.5200 -0.0146
53215SOL     OW64201   6.329   5.732   1.538  0.2812 -0.0629 -0.1218
53215SOL    HW164202   6.411   5.778   1.520 -0.2537  1.4234  1.0365
53215SOL    HW264203   6.340   5.696   1.626 -1.1028  2.1669  1.0564
53216SOL     OW64204   4.222   8.660   3.952  0.3533  0.5264  0.2228
53216SOL    HW164205   4.314   8.668   3.977  0.4215  1.5543 -0.2953
53216SOL    HW264206   4.223   8.604   3.874  0.6582  1.3850 -0.4009
53217SOL     OW64207   2.225   3.571  12.075  0.4529 -0.7137 -0.1163
53217SOL    HW164208   2.268   3.656  12.061 -1.9729  0.4679 -0.9512
53217SOL    HW264209   2.275   3.531  12.147  1.5882  1.4629  0.4041
53218SOL     OW64210   4.836   7.189   7.059  0.0150 -0.0287 -0.3565
53218SOL    HW164211   4.773   7.225   6.997 -0.6060 -0.9187 -0.2636
53218SOL    HW264212   4.835   7.249   7.133  0.2800  0.6909 -0.9305
53219SOL     OW64213   7.299   3.070   8.059  0.2501 -0.4626  0.1591
53219SOL    HW164214   7.287   3.110   7.973  0.3322  1.2455  0.8951
53219SOL    HW264215   7.224   3.012   8.070 -1.3859  1.5334  0.1087
53220SOL     OW64216   6.034   2.689   1.193  0.0799 -0.0383  0.2724
53220SOL    HW164217   6.037   2.597   1.219  2.0571 -0.1726 -0.2635
53220SOL    HW264218   5.957   2.695   1.136  0.9995 -1.8620 -1.2974
53221SOL     OW64219   9.100   6.988  10.912 -0.2661 -0.4822 -0.2099
53221SOL    HW164220   9.034   6.986  10.982 -1.6179 -0.6659 -1.4497
53221SOL    HW264221   9.168   7.047  10.945 -1.1804 -0.0541  0.9907
53222SOL     OW64222   6.022   1.216   6.870 -0.1317 -0.2633  0.6165
53222SOL    HW164223   6.052   1.260   6.790  0.1351 -0.3099  0.6912
53222SOL    HW264224   5.931   1.194   6.852  0.3921 -1.7722 -0.3164
53223SOL     OW64225   0.155   7.667   2.393 -0.4393  0.1090  0.8000
53223SOL    HW164226   0.159   7.714   2.310 -0.5736 -0.9971  0.1340
53223SOL    HW264227   0.094   7.595   2.376  0.2888 -0.7090  1.5423
53224SOL     OW64228   8.090   6.554   4.718  0.0860  0.0337  0.0103
53224SOL    HW164229   8.180   6.523   4.714  0.1235  0.2428 -2.0251
53224SOL    HW264230   8.096   6.644   4.748  0.4500 -0.2260  0.7463
53225SOL     OW64231  11.194   3.848   8.836  0.3494 -0.2190 -0.5665
53225SOL    HW164232  11.251   3.923   8.825 -1.0632  1.1049  0.6891
53225SOL    HW264233  11.248   3.773   8.812  1.8013  1.1677 -1.8425
53226SOL     OW64234  10.035   8.223   8.301 -0.0923  0.5196  0.0271
53226SOL    HW164235  10.023   8.130   8.317  2.7083 -0.0373 -0.5944
53226SOL    HW264236  10.037   8.232   8.206  2.5061  0.6468 -0.0001
53227SOL     OW64237   4.706  11.801   4.085  0.4308 -0.3773  0.0988
53227SOL    HW164238   4.750  11.882   4.113  0.1153 -0.1043 -0.1867
53227SOL    HW264239   4.617  11.810   4.119  0.3137 -0.4773 -0.1828
53228SOL     OW64240  11.606   7.261   6.361  0.0050  0.2134  0.4053
53228SOL    HW164241  11.616   7.354   6.380  0.5634 -0.0711  1.6013
53228SOL    HW264242  11.694   7.231   6.339  0.3156 -0.4926  2.3688
53229SOL     OW64243   3.203   9.694   6.999  0.4093  0.2160 -0.6168
53229SOL    HW164244   3.281   9.653   6.964  1.0652  0.9502 -0.0531
53229SOL    HW264245   3.158   9.625   7.047  2.8643  0.6718  2.6187
53230SOL     OW64246   4.905   6.638   8.481 -0.6937  0.0548 -0.1213
53230SOL    HW164247   4.897   6.590   8.563 -0.8920  0.9065  0.3715
53230SOL    HW264248   4.816   6.662   8.458 -0.5604  0.5443 -0.1407
53231SOL     OW64249   0.099  11.457   7.178 -0.1239  0.5926  0.3586
53231SOL    HW164250   0.007  11.440   7.198 -0.2284  0.1290 -0.4549
53231SOL    HW264251   0.139  11.477   7.263 -0.7456 -0.2847  0.8797
53232SOL     OW64252   4.902   3.572   7.398  0.3961  0.0307  0.5577
53232SOL    HW164253   4.870   3.573   7.489  1.1613  0.8619  0.8423
53232SOL    HW264254   4.981   3.518   7.401 -0.0050 -0.5768  0.2230
53233SOL     OW64255   8.576   0.170   0.074 -0.2652 -0.9559 -0.4179
53233SOL    HW164256   8.550   0.258   0.100  0.7368 -0.1909 -1.8345
53233SOL    HW264257   8.642   0.184   0.006  0.1036 -2.8070 -0.4968
53234SOL     OW64258   3.761   3.249   3.319 -0.5513 -0.1233 -0.3085
53234SOL    HW164259   3.737   3.336   3.350  0.9710  0.2774 -0.1564
53234SOL    HW264260   3.693   3.227   3.255 -0.6714  1.4070 -0.7616
53235SOL     OW64261   1.635   4.616   9.945  0.0373  0.2834 -0.1866
53235SOL    HW164262   1.547   4.583   9.931  0.1838 -0.7401  1.1527
53235SOL    HW264263   1.648   4.681   9.875 -1.8285  0.6099 -0.2605
53236SOL     OW64264   1.068   2.290   7.738 -0.2085 -0.3015  0.6566
53236SOL    HW164265   0.997   2.233   7.708 -1.0702  1.3923 -0.7036
53236SOL    HW264266   1.024   2.356   7.793  0.3662  0.4411  0.2528
53237SOL     OW64267   3.307   1.492  11.461 -0.3462 -0.5423  0.4275
53237SOL    HW164268   3.330   1.585  11.459  1.6202 -0.9860  0.1506
53237SOL    HW264269   3.381   1.448  11.418 -0.9385 -2.2913  1.1077
53238SOL     OW64270   4.055   1.246   6.311 -0.7057  0.2108 -0.0886
53238SOL    HW164271   4.100   1.315   6.360 -0.2432  0.5116 -0.9204
53238SOL    HW264272   3.974   1.231   6.360  0.4299 -0.5922  1.6446
53239SOL     OW64273   4.756   4.316   3.046 -0.5212  0.0493 -0.3535
53239SOL    HW164274   4.709   4.344   2.968  0.0045 -0.5652 -0.9001
53239SOL    HW264275   4.848   4.328   3.025 -0.3936  2.5829  1.2187
53240SOL     OW64276   5.035   3.024  11.707 -0.6906 -0.0434 -0.3543
53240SOL    HW164277   4.984   2.977  11.773 -1.5109  0.4458 -0.6375
53240SOL    HW264278   5.004   3.114  11.712  0.1450  0.2629 -0.5343
53241SOL     OW64279   3.394   5.474   6.339 -0.1730  0.0172  0.0890
53241SOL    HW164280   3.321   5.534   6.356 -0.2899 -0.2510  0.5469
53241SOL    HW264281   3.427   5.452   6.426 -0.2827 -0.7720 -0.0604
53242SOL     OW64282   6.488  10.324  11.787 -0.2357  0.3538 -0.7843
53242SOL    HW164283   6.492  10.243  11.737 -2.0021  0.2794 -0.8751
53242SOL    HW264284   6.461  10.391  11.723 -1.5918  0.4359 -0.1754
53243SOL     OW64285  10.204   3.579   8.908  0.3568 -0.3245  0.0842
53243SOL    HW164286  10.272   3.594   8.842 -1.0502 -3.7828 -2.4387
53243SOL    HW264287  10.140   3.648   8.891  2.4003  2.1717  1.6391
53244SOL     OW64288   9.317   1.289  11.216  0.1765 -0.1073 -0.2097
53244SOL    HW164289   9.345   1.364  11.270 -1.2157 -0.6244  1.2952
53244SOL    HW264290   9.396   1.237  11.204  0.6415  0.3402  0.8320
53245SOL     OW64291   5.446   4.647  10.657  0.2505  0.0735 -0.4101
53245SOL    HW164292   5.492   4.608  10.731 -0.7722 -0.2717  0.0675
53245SOL    HW264293   5.465   4.590  10.583  1.9391  0.8573 -0.6428
53246SOL     OW64294   3.274   7.490   2.487 -0.5411  1.0849  0.1516
53246SOL    HW164295   3.279   7.395   2.497 -1.0324  1.2616  2.8738
53246SOL    HW264296   3.302   7.525   2.571  2.3371  3.5351 -1.5923
53247SOL     OW64297   7.879   8.553   0.065 -0.2010 -0.0635  0.5431
53247SOL    HW164298   7.821   8.487   0.103 -2.2418  1.6928  0.6967
53247SOL    HW264299   7.858   8.553  -0.029 -1.4664  1.4339  0.7780
53248SOL     OW64300   0.520  11.710   3.940 -0.2544 -0.8183  0.9504
53248SOL    HW164301   0.562  11.624   3.951  0.2783 -0.5545  1.0271
53248SOL    HW264302   0.555  11.743   3.857 -0.0009 -0.4247  1.2112
53249SOL     OW64303  10.387   3.779   9.074  0.0773  0.3270 -0.1656
53249SOL    HW164304  10.478   3.780   9.045  0.0495 -1.6022 -0.4523
53249SOL    HW264305  10.343   3.843   9.019  0.9069 -0.0733 -1.3261
53250SOL     OW64306   9.109   7.358   8.847  0.6169 -0.2316  0.0587
53250SOL    HW164307   9.146   7.383   8.762 -0.3223 -0.5355 -0.4565
53250SOL    HW264308   9.089   7.265   8.838  0.9253 -0.3692  0.7706
53251SOL     OW64309  10.774   4.316   3.184  0.1962  0.5012  0.1418
53251SOL    HW164310  10.785   4.225   3.212 -0.1288  0.6264  0.6972
53251SOL    HW264311  10.725   4.357   3.256 -2.1548  0.4248 -1.3169
53252SOL     OW64312   4.650   9.185   8.051  0.1425 -0.2813 -0.1235
53252SOL    HW164313   4.733   9.193   8.004 -0.0719  1.4742 -0.2693
53252SOL    HW264314   4.585   9.222   7.991 -0.5516 -0.5303  0.4673
53253SOL     OW64315  11.123   0.356   2.692 -0.5409 -0.1920  0.0048
53253SOL    HW164316  11.128   0.351   2.787 -1.4161 -1.5706  0.0097
53253SOL    HW264317  11.031   0.374   2.673 -0.3802  0.0328 -0.5871
53254SOL     OW64318   7.922   1.624  11.382 -0.4475  0.2223  0.1225
53254SOL    HW164319   8.013   1.595  11.388 -0.8321 -1.4911 -1.3340
53254SOL    HW264320   7.917   1.674  11.301 -0.6647  0.9166  0.5575
53255SOL     OW64321   6.284   3.610   2.181 -0.1193  0.0576 -0.1180
53255SOL    HW164322   6.344   3.547   2.221 -0.8195  0.1140  1.0657
53255SOL    HW264323   6.327   3.694   2.190  0.4448 -0.1324 -0.9492
53256SOL     OW64324   2.173   3.118  11.024  0.1630 -0.5306 -0.7548
53256SOL    HW164325   2.200   3.204  11.057 -1.9036 -0.2364  0.3850
53256SOL    HW264326   2.221   3.055  11.078 -1.0552 -0.0376  1.0175
53257SOL     OW64327   2.310   0.982   1.051 -0.6403 -0.5741 -0.2309
53257SOL    HW164328   2.306   1.048   0.982 -0.2585  1.6285  1.7511
53257SOL    HW264329   2.402   0.956   1.055 -0.0114  1.6100  1.4067
53258SOL     OW64330  11.353   3.534   9.272 -0.0888  0.3950  0.0198
53258SOL    HW164331  11.445   3.523   9.247 -0.4764  0.1784 -1.4347
53258SOL    HW264332  11.348   3.621   9.309  0.5370  0.7968 -0.8049
53259SOL     OW64333   4.919   7.077   6.232  0.3432 -0.5396  0.8513
53259SOL    HW164334   4.834   7.079   6.189  1.2930  0.7247 -1.1411
53259SOL    HW264335   4.916   7.148   6.296  0.4615  0.7149 -0.4839
53260SOL     OW64336   4.475   0.711   5.836 -0.2877  0.0843  0.0589
53260SOL    HW164337   4.534   0.698   5.762  1.2075  0.3218  1.1691
53260SOL    HW264338   4.411   0.776   5.805  0.9254  0.9605 -0.6821
53261SOL     OW64339   0.407   9.936  11.155 -0.5270 -0.0232  0.0326
53261SOL    HW164340   0.493   9.935  11.114 -0.2686 -0.6502  0.5746
53261SOL    HW264341   0.376   9.846  11.149 -0.9033  0.0860  0.3351
53262SOL     OW64342   8.756  11.618  10.130 -0.0627  0.1009 -0.4150
53262SOL    HW164343   8.722  11.652  10.047 -0.2259 -2.4020 -1.4867
53262SOL    HW264344   8.682  11.569  10.167  1.0522 -1.8581 -0.6560
53263SOL     OW64345   4.414   7.198   9.210 -0.5035 -0.4202 -0.0376
53263SOL    HW164346   4.367   7.150   9.142 -0.1909 -1.2666  0.3304
53263SOL    HW264347   4.416   7.288   9.179 -0.7484 -0.7197 -0.9391
53264SOL     OW64348  11.487   9.277   1.377 -0.0588 -0.5057  0.4054
53264SOL    HW164349  11.414   9.317   1.328 -1.2188 -0.2872  2.2127
53264SOL    HW264350  11.483   9.184   1.354  0.5571 -0.1397 -1.2685
53265SOL     OW64351   8.608   3.479  11.451 -0.3879 -0.3091  0.0906
53265SOL    HW164352   8.554   3.424  11.507  2.7218 -1.5845  2.1313
53265SOL    HW264353   8.592   3.447  11.363 -3.2128 -0.2464  0.4901
53266SOL     OW64354   3.232   8.290   7.339 -0.3365 -0.7406  0.0583
53266SOL    HW164355   3.242   8.231   7.264 -0.7691  0.7836 -1.2485
53266SOL    HW264356   3.318   8.288   7.383  0.1279 -1.1784 -0.8510
53267SOL     OW64357   9.793   5.255   6.446  0.0886 -0.5126 -0.2735
53267SOL    HW164358   9.829   5.228   6.362 -0.0655 -1.7203  0.0284
53267SOL    HW264359   9.699   5.239   6.438  0.1326 -1.0554  0.2791
53268SOL     OW64360   1.763   5.074   3.907  0.2334 -0.8314  0.2119
53268SOL    HW164361   1.730   5.115   3.986 -1.1644  0.5984 -1.0454
53268SOL    HW264362   1.835   5.018   3.937 -0.5233 -0.6708  2.5078
53269SOL     OW64363   5.207   4.731   9.108  0.2121  0.2263  0.1757
53269SOL    HW164364   5.302   4.740   9.100  0.2108  1.3669  1.1715
53269SOL    HW264365   5.196   4.672   9.183  0.1260  0.0823  0.0510
53270SOL     OW64366   5.978   6.344   8.103 -0.0211 -0.0698  0.9650
53270SOL    HW164367   5.912   6.344   8.034 -0.0543  1.9257  0.9402
53270SOL    HW264368   6.061   6.333   8.056 -0.0437  1.2660  0.5909
53271SOL     OW64369   3.794   6.486   4.630 -0.5889  0.0789 -0.1706
53271SOL    HW164370   3.794   6.496   4.725  0.2192  0.2475 -0.1788
53271SOL    HW264371   3.739   6.558   4.599 -0.4499  0.3221  0.1418
53272SOL     OW64372   5.073  10.428   4.050 -0.0285  0.4629  0.0639
53272SOL    HW164373   5.061  10.346   4.097 -1.2855  1.1262  0.9617
53272SOL    HW264374   5.168  10.438   4.041  0.2124 -0.1004  1.7281
53273SOL     OW64375   0.994   3.935  11.428 -0.0625  0.2546 -0.0529
53273SOL    HW164376   1.083   3.937  11.391  0.2290  0.8572  0.6545
53273SOL    HW264377   0.938   3.960  11.354  0.1070 -2.1673 -1.0930
53274SOL     OW64378   1.534   5.617   3.786 -0.3498 -0.1175  0.1927
53274SOL    HW164379   1.586   5.547   3.825 -0.3606  0.0160  0.4502
53274SOL    HW264380   1.466   5.635   3.851  0.6407  1.2771  0.8768
53275SOL     OW64381   5.773   1.165  10.081  0.4367 -0.2124  0.2774
53275SOL    HW164382   5.684   1.166  10.044  0.7149  0.5390 -0.4008
53275SOL    HW264383   5.769   1.226  10.154  0.0180 -1.3164  1.2086
53276SOL     OW64384   7.406   1.451   7.576 -0.2086 -0.4330  0.0531
53276SOL    HW164385   7.322   1.405   7.572 -0.4928  0.1422 -2.1299
53276SOL    HW264386   7.383   1.543   7.583  0.2656 -0.3359  0.4049
53277SOL     OW64387   5.259   9.759   2.637  0.3444  0.0592  0.3280
53277SOL    HW164388   5.222   9.754   2.549  0.6869 -0.9230  0.2302
53277SOL    HW264389   5.191   9.801   2.689 -1.2437 -2.3142  0.3091
53278SOL     OW64390  10.055   0.345   4.985  0.2265  0.1155 -0.7035
53278SOL    HW164391  10.032   0.289   4.911 -0.9058 -1.6159  0.8640
53278SOL    HW264392  10.016   0.302   5.061  1.2585  1.8595  0.9150
53279SOL     OW64393   5.830  11.464   5.579  0.1713  0.2153  0.2739
53279SOL    HW164394   5.878  11.476   5.661  1.4636 -0.2681 -0.3844
53279SOL    HW264395   5.798  11.552   5.557 -2.0240  0.0180  2.3310
53280SOL     OW64396  11.386   2.427   7.200 -0.4362  0.1029  0.4264
53280SOL    HW164397  11.412   2.515   7.229 -0.3757  0.6652 -1.2234
53280SOL    HW264398  11.307   2.408   7.251 -0.1518  0.8888  1.1931
53281SOL     OW64399   8.767  10.214  10.224 -0.4005  0.0919 -0.4279
53281SOL    HW164400   8.672  10.214  10.236 -0.5144 -0.3559 -1.2442
53281SOL    HW264401   8.782  10.277  10.154 -0.0392  0.5161  0.0206
53282SOL     OW64402   4.695  10.798   2.247 -0.0242  0.1858  0.1084
53282SOL    HW164403   4.724  10.831   2.162 -0.8810  1.8622  0.4227
53282SOL    HW264404   4.715  10.704   2.245  0.4492  0.2964 -1.7292
53283SOL     OW64405   5.659   9.850   1.383  0.6387  0.1171 -0.6391
53283SOL    HW164406   5.571   9.822   1.409  0.7211  0.6843  0.2956
53283SOL    HW264407   5.650   9.943   1.364  1.3666  0.5961  1.1683
53284SOL     OW64408   0.078   6.829   0.231  0.0573  0.1730  0.4144
53284SOL    HW164409   0.039   6.807   0.315 -1.9034 -0.7198 -0.6668
53284SOL    HW264410   0.085   6.924   0.231  0.3423  0.1638  1.6720
53285SOL     OW64411   7.919   9.568   2.875  0.0478  0.6173  0.1316
53285SOL    HW164412   7.869   9.647   2.896 -0.0124  0.0226  2.4604
53285SOL    HW264413   7.856   9.497   2.885  0.7298  0.0704  0.5890
53286SOL     OW64414   8.701  11.870   2.840 -0.1177 -0.3481  0.0640
53286SOL    HW164415   8.671  11.781   2.859 -0.6176 -0.2321 -0.1453
53286SOL    HW264416   8.682  11.882   2.747  0.2676 -0.1450  0.0116
53287SOL     OW64417  10.501   9.264   0.240  0.0736  0.1845 -0.1021
53287SOL    HW164418  10.571   9.320   0.206  0.8254  0.1939  1.3988
53287SOL    HW264419  10.434   9.268   0.172  0.6320  1.8740 -0.6295
53288SOL     OW64420   7.506  11.133  10.570  0.0949 -0.3943 -0.4683
53288SOL    HW164421   7.552  11.054  10.539  1.1685 -0.1374  0.4066
53288SOL    HW264422   7.456  11.162  10.494  1.0648 -0.9353 -1.3459
53289SOL     OW64423  11.258   1.070  10.930 -0.4481  0.0901  1.0945
53289SOL    HW164424  11.189   1.133  10.948 -0.8276  0.4988 -1.4838
53289SOL    HW264425  11.212   0.991  10.903  0.0834 -0.1599  0.9106
53290SOL     OW64426   2.333   8.659   5.333  0.2459  0.3253  0.1345
53290SOL    HW164427   2.291   8.633   5.416 -2.0324  2.2255 -0.3118
53290SOL    HW264428   2.399   8.723   5.359  0.4318 -0.0250  0.5602
53291SOL     OW64429   8.750   0.379   0.464 -0.2898 -0.1924  0.4269
53291SOL    HW164430   8.820   0.366   0.527  1.6425  1.8703 -1.1266
53291SOL    HW264431   8.738   0.293   0.423 -0.2010 -1.0657  2.1490
53292SOL     OW64432   7.783   0.495   7.454 -0.3627  0.2705  0.3027
53292SOL    HW164433   7.696   0.532   7.463 -0.5912 -0.6639  2.5364
53292SOL    HW264434   7.791   0.433   7.527  1.7785 -0.4480 -0.4502
53293SOL     OW64435   6.537   4.424  10.135 -1.0775 -0.4858 -1.1948
53293SOL    HW164436   6.446   4.401  10.120 -1.1374  0.3677 -2.3121
53293SOL    HW264437   6.583   4.395  10.056 -0.4363 -0.5846 -0.8004
53294SOL     OW64438   0.711   4.681   3.703  0.1852  0.5416  0.1939
53294SOL    HW164439   0.760   4.602   3.728  1.0632  0.9098 -0.3125
53294SOL    HW264440   0.660   4.655   3.627  0.3127  0.4021  0.1556
53295SOL     OW64441   6.292   0.519   6.858  0.2307  0.1460 -0.4637
53295SOL    HW164442   6.349   0.443   6.862  0.1281  0.0226 -1.1601
53295SOL    HW264443   6.323   0.568   6.781 -0.3562  0.2680 -0.6287
53296SOL     OW64444   7.122   9.000   0.795  0.1746  0.5612 -0.6333
53296SOL    HW164445   7.151   8.956   0.715 -2.3760 -0.3040 -1.1772
53296SOL    HW264446   7.121   8.931   0.861 -1.1393  0.4257 -0.7772
53297SOL     OW64447   1.441   8.231   6.844 -0.3928  0.2070  0.5662
53297SOL    HW164448   1.471   8.235   6.753 -1.1803  1.3362  0.3336
53297SOL    HW264449   1.521   8.247   6.896  0.3832 -2.0402  0.1799
53298SOL     OW64450   1.263   7.072   1.538 -0.2207  0.0684  0.2187
53298SOL    HW164451   1.334   7.071   1.603  0.1010 -0.3303 -0.1346
53298SOL    HW264452   1.304   7.103   1.458 -0.8422  1.5460  0.4399
53299SOL     OW64453   2.930   8.069   1.670 -0.6590 -0.4291 -0.3654
53299SOL    HW164454   2.966   8.094   1.755 -1.0814 -0.0529 -0.2971
53299SOL    HW264455   3.007   8.049   1.616 -0.4135 -1.4231  0.3341
53300SOL     OW64456   5.842   5.982  10.619  0.0423  0.1867  0.0744
53300SOL    HW164457   5.785   5.943  10.552  0.6360  2.0486 -1.6146
53300SOL    HW264458   5.909   5.915  10.634  0.3499  0.0040 -1.8238
53301SOL     OW64459  10.519   2.969   8.615 -0.6225  0.0529 -0.0180
53301SOL    HW164460  10.569   2.962   8.696  0.6998  1.2791 -0.6907
53301SOL    HW264461  10.444   3.024   8.638 -2.2924 -2.5134  1.2205
53302SOL     OW64462   2.732   9.691   8.944  0.4691  0.2641 -0.3760
53302SOL    HW164463   2.784   9.760   8.985  0.7664  1.1895 -2.1628
53302SOL    HW264464   2.694   9.734   8.867 -0.4624 -1.2260 -0.7830
53303SOL     OW64465   6.915   4.726   3.064  0.2911  0.6087  0.1125
53303SOL    HW164466   6.835   4.673   3.057  0.6755  0.2024 -1.8934
53303SOL    HW264467   6.976   4.670   3.111 -0.3571  0.6668  1.0767
53304SOL     OW64468   7.075  11.514  11.574  0.1932  0.2975 -0.3578
53304SOL    HW164469   6.994  11.564  11.584  0.4634  0.5668  0.6364
53304SOL    HW264470   7.077  11.457  11.651  0.4653 -0.4210 -0.8802
53305SOL     OW64471   4.160   3.068   4.663 -0.3136  0.1736  0.1615
53305SOL    HW164472   4.144   3.134   4.595  0.8022 -0.4979 -0.8027
53305SOL    HW264473   4.085   3.009   4.657 -0.9290  0.9095  0.4926
53306SOL     OW64474   3.230   2.592  11.443  0.0113 -0.5276 -0.3870
53306SOL    HW164475   3.175   2.628  11.374 -0.6610  0.2958  0.5590
53306SOL    HW264476   3.175   2.593  11.521  1.3756  0.4129  0.6109
53307SOL     OW64477   6.619   3.200   5.131  0.4573 -0.2981  0.1928
53307SOL    HW164478   6.575   3.176   5.050  1.7515 -0.6862 -0.4206
53307SOL    HW264479   6.585   3.138   5.196 -1.2886  0.6141  0.2054
53308SOL     OW64480   6.055  11.426   2.225  0.2312  0.4392 -0.2298
53308SOL    HW164481   6.117  11.439   2.296 -0.8904 -1.1777  1.1251
53308SOL    HW264482   5.993  11.498   2.235  0.2423  0.3844  0.2695
53309SOL     OW64483   9.044   0.615  10.624 -0.3544 -0.0005  0.3332
53309SOL    HW164484   9.093   0.661  10.692  0.8265 -1.6720  0.6625
53309SOL    HW264485   9.072   0.655  10.542 -1.0468  1.3594  0.7295
53310SOL     OW64486   2.558  10.796   2.097  0.2907 -0.2713 -0.3529
53310SOL    HW164487   2.643  10.807   2.139  0.8044  0.0578 -1.4365
53310SOL    HW264488   2.570  10.721   2.039 -0.0441  0.0065 -0.7878
53311SOL     OW64489  10.950   7.388   5.704  0.1531 -0.4887  0.2276
53311SOL    HW164490  10.861   7.352   5.706 -0.3109  0.5308 -0.8323
53311SOL    HW264491  10.959   7.432   5.789 -0.7513  0.2794 -0.0578
53312SOL     OW64492  10.659   9.225   2.849  0.2527 -0.4609 -0.1052
53312SOL    HW164493  10.613   9.219   2.933  0.0654  1.3848 -0.0299
53312SOL    HW264494  10.592   9.254   2.787  0.7888 -0.0234 -0.4913
53313SOL     OW64495   5.655  10.831  10.124  0.5815  0.4959  0.8362
53313SOL    HW164496   5.668  10.897  10.192 -0.3624 -0.3902  1.9223
53313SOL    HW264497   5.659  10.880  10.042  0.8545  1.7386  1.5658
53314SOL     OW64498   2.504   1.010   3.540 -0.3671  0.1506 -0.0243
53314SOL    HW164499   2.600   1.002   3.546 -0.4062  0.5086  1.1329
53314SOL    HW264500   2.490   1.065   3.463  0.2922 -1.2249 -1.1778
53315SOL     OW64501   2.636   8.136   2.451  0.1687 -0.0019 -0.1270
53315SOL    HW164502   2.619   8.060   2.396 -0.6510 -0.8138  1.1926
53315SOL    HW264503   2.598   8.210   2.402 -0.6854 -0.7237 -0.5860
53316SOL     OW64504  11.389   5.443   0.229  0.0630 -0.1948  0.5326
53316SOL    HW164505  11.372   5.413   0.139 -0.7472 -0.7637  0.8631
53316SOL    HW264506  11.350   5.375   0.284 -0.3546  0.6626  1.3085
53317SOL     OW64507   8.184   5.717   5.188 -0.1111 -0.2617 -0.4501
53317SOL    HW164508   8.237   5.638   5.188  0.6927  0.2561 -0.9222
53317SOL    HW264509   8.152   5.726   5.278  0.4382 -0.6909 -0.2132
53318SOL     OW64510   7.674   2.695   4.427 -0.0153 -0.0439  0.0228
53318SOL    HW164511   7.736   2.627   4.457  1.8068  1.2803 -0.5493
53318SOL    HW264512   7.630   2.725   4.506  0.3450 -0.7626  0.5053
53319SOL     OW64513  10.985   4.641   5.558 -0.3216 -0.2664 -0.3442
53319SOL    HW164514  10.988   4.734   5.579  0.0957 -0.2710 -0.3668
53319SOL    HW264515  10.967   4.638   5.464 -0.7143 -0.2151 -0.2695
53320SOL     OW64516  11.705   7.081  10.600 -0.7133 -0.1136  0.0821
53320SOL    HW164517  11.651   7.156  10.625 -1.3199 -0.4490 -0.2113
53320SOL    HW264518  11.735   7.045  10.683 -2.3863 -0.9776  0.3459
53321SOL     OW64519   5.569   4.485   4.671 -0.1161  0.0263  0.2053
53321SOL    HW164520   5.648   4.454   4.715  0.5941  0.8911 -0.4299
53321SOL    HW264521   5.582   4.579   4.660 -0.4865 -0.0764 -1.4006
53322SOL     OW64522   0.219   9.887   5.705  0.0535  0.2712 -0.0819
53322SOL    HW164523   0.255   9.818   5.649  1.0282  0.3265  0.4563
53322SOL    HW264524   0.294   9.943   5.725 -0.1778  0.0223  1.6083
53323SOL     OW64525   8.554   9.384  10.599  0.1952  0.0031  0.5054
53323SOL    HW164526   8.622   9.452  10.604  0.5346 -0.2096 -0.7505
53323SOL    HW264527   8.583   9.316  10.660  1.1169 -0.0767 -0.0042
53324SOL     OW64528  11.738   9.519  10.610 -0.1211  1.1022 -0.1731
53324SOL    HW164529  11.808   9.460  10.584 -0.2327  1.0053 -0.2605
53324SOL    HW264530  11.756   9.539  10.702 -0.1471  0.8334 -0.1072
53325SOL     OW64531   3.070  11.096   5.058  0.1717 -0.2809  0.0529
53325SOL    HW164532   3.150  11.116   5.009  0.3364 -0.4102  0.2693
53325SOL    HW264533   3.030  11.024   5.009 -0.4916  0.6475 -0.8047
53326SOL     OW64534   9.190  10.586   4.376  0.6196 -0.9561  0.1468
53326SOL    HW164535   9.215  10.670   4.339  1.2409 -1.2305 -0.0735
53326SOL    HW264536   9.100  10.572   4.345  1.8757 -2.3120 -3.4808
53327SOL     OW64537   6.613  11.562   6.526 -0.4232  0.0096 -0.8434
53327SOL    HW164538   6.665  11.491   6.565 -0.1622  0.8245  0.3674
53327SOL    HW264539   6.522  11.535   6.538 -0.3623  0.3313  0.6022
53328SOL     OW64540   5.329   6.400   5.806  0.0156  0.8105  0.1809
53328SOL    HW164541   5.369   6.315   5.790 -0.7543  0.4061  0.3733
53328SOL    HW264542   5.394   6.463   5.774  0.3159  0.1396 -0.5567
53329SOL     OW64543   5.777   2.643   6.399  0.0702  0.6651  0.2679
53329SOL    HW164544   5.748   2.718   6.450 -0.3959  1.2828 -0.8659
53329SOL    HW264545   5.700   2.586   6.395 -0.1975  1.0668 -0.5243
53330SOL     OW64546   6.452   1.659   8.037 -0.0255 -0.4196 -0.3256
53330SOL    HW164547   6.443   1.751   8.062 -1.2139  0.3632 -3.2277
53330SOL    HW264548   6.395   1.612   8.098 -1.1011  1.0429 -0.1557
53331SOL     OW64549   3.040   6.970   4.508  0.3663  0.1343 -0.1243
53331SOL    HW164550   2.980   7.042   4.529 -0.4762 -0.1436 -1.4301
53331SOL    HW264551   2.987   6.891   4.520  1.0726 -0.2309  0.6174
53332SOL     OW64552   9.444   2.499  11.418  0.2378 -0.1038 -0.0238
53332SOL    HW164553   9.350   2.503  11.436 -0.5374 -2.1321 -2.8382
53332SOL    HW264554   9.463   2.582  11.372 -0.2490  0.1774  0.2733
53333SOL     OW64555   0.188   3.415   9.922  0.3792  0.7968  0.5065
53333SOL    HW164556   0.282   3.406   9.933  0.3931 -1.0094 -0.6296
53333SOL    HW264557   0.150   3.343   9.972 -0.1753 -0.3281 -1.4130
53334SOL     OW64558   8.906   0.696   0.699  0.1901  0.3252 -0.0920
53334SOL    HW164559   8.884   0.603   0.702 -0.1761  0.3910 -0.5220
53334SOL    HW264560   8.845   0.737   0.760  0.2860  0.2935  0.0247
53335SOL     OW64561   1.761   6.607  10.713  0.1398 -0.0812 -0.3346
53335SOL    HW164562   1.807   6.594  10.630 -0.0226  1.2202 -0.6522
53335SOL    HW264563   1.831   6.616  10.778  0.2660 -1.2034 -0.2907
53336SOL     OW64564  11.946   8.591   6.490  0.0774  0.1397  0.0391
53336SOL    HW164565  11.963   8.653   6.419 -0.2872 -0.2587 -0.4022
53336SOL    HW264566  11.972   8.506   6.454 -1.4314 -0.2832 -0.1560
53337SOL     OW64567  10.170  11.988   9.068 -0.5141 -0.2726  0.3825
53337SOL    HW164568  10.175  11.893   9.078  0.4730 -0.2140  0.5486
53337SOL    HW264569  10.094  12.002   9.012  0.0136 -1.2476 -0.6332
53338SOL     OW64570   4.303  11.354   9.113  0.0014  0.2358  0.2003
53338SOL    HW164571   4.299  11.271   9.162  2.1590 -0.1789 -0.2117
53338SOL    HW264572   4.214  11.367   9.081 -0.5055 -1.6954  0.6627
53339SOL     OW64573   8.675   7.781   5.161 -0.0048 -0.3769 -0.4679
53339SOL    HW164574   8.636   7.713   5.216 -0.4787  1.1217  1.1234
53339SOL    HW264575   8.709   7.845   5.223 -0.1009  1.1295 -1.9157
53340SOL     OW64576   9.515  10.587   3.867  0.1313  0.0159 -0.0887
53340SOL    HW164577   9.542  10.676   3.889  2.3658 -0.9158  1.1974
53340SOL    HW264578   9.524  10.583   3.771  1.3315  0.7821 -0.0308
53341SOL     OW64579   2.955   3.524   8.941 -0.7341 -0.2236 -0.0627
53341SOL    HW164580   2.970   3.436   8.907  1.1999  0.0949 -0.1359
53341SOL    HW264581   2.910   3.570   8.871 -0.0363 -0.6027 -0.7634
53342SOL     OW64582  10.903   4.533   0.077  0.4663  0.0142 -0.0720
53342SOL    HW164583  10.937   4.498  -0.005 -0.7004  2.3924 -1.7128
53342SOL    HW264584  10.825   4.481   0.095  1.4630 -1.3998  0.3164
53343SOL     OW64585   0.872   1.980   6.455  0.0076 -0.3874 -0.4421
53343SOL    HW164586   0.830   2.016   6.377  2.4333  0.3321 -1.5156
53343SOL    HW264587   0.869   2.051   6.519 -2.1600 -1.0430  0.2869
53344SOL     OW64588  10.470   5.503   3.903  0.1595 -0.4477  0.0243
53344SOL    HW164589  10.443   5.451   3.827 -1.8964 -1.6445  1.4843
53344SOL    HW264590  10.416   5.582   3.899  0.4737 -0.2371 -0.0747
53345SOL     OW64591  11.910   7.623   2.213  0.1515  0.3056 -0.4693
53345SOL    HW164592  11.944   7.598   2.127 -0.9733  1.0400 -1.1483
53345SOL    HW264593  11.920   7.545   2.267 -0.4197 -0.6199 -1.6626
53346SOL     OW64594   1.527  10.134   4.957 -0.3187  0.5087 -0.0371
53346SOL    HW164595   1.553  10.223   4.930 -2.2358  1.1253 -0.0174
53346SOL    HW264596   1.518  10.086   4.874  0.0205  0.5489 -0.0967
53347SOL     OW64597   0.014   0.047   7.395 -0.4950  0.2225 -0.3717
53347SOL    HW164598  -0.028  -0.020   7.448  1.8085  0.5147  2.0353
53347SOL    HW264599  -0.047   0.121   7.397 -0.9915 -0.1932  0.9317
53348SOL     OW64600   2.559   3.569   1.321  0.1346  0.3671 -0.1991
53348SOL    HW164601   2.521   3.627   1.255  1.9223  1.1263 -0.6208
53348SOL    HW264602   2.487   3.551   1.382 -0.7577  2.0892 -0.6926
53349SOL     OW64603   4.255   1.936   6.177 -0.0197  0.5205  0.0713
53349SOL    HW164604   4.182   1.996   6.194  0.3188  1.0403 -0.2806
53349SOL    HW264605   4.305   1.978   6.107 -0.0763 -0.4314 -0.5637
53350SOL     OW64606   3.959   8.444   4.210 -0.1438  0.7109 -0.0057
53350SOL    HW164607   3.879   8.480   4.172  0.5366  2.9560  0.5827
53350SOL    HW264608   3.933   8.415   4.297 -0.5964  0.0862 -0.3327
53351SOL     OW64609   1.225   6.148   3.194 -0.2072 -0.1954  0.0976
53351SOL    HW164610   1.222   6.053   3.180  0.0339 -0.2007  0.0656
53351SOL    HW264611   1.190   6.161   3.282  1.7656 -0.5358  0.9911
53352SOL     OW64612   9.162   3.968   9.423  0.5649 -0.1260 -0.4311
53352SOL    HW164613   9.181   3.962   9.329  0.9886  1.5301 -0.4903
53352SOL    HW264614   9.067   3.979   9.428  0.5557 -0.0826 -0.6830
53353SOL     OW64615   7.117   6.575   8.768  0.7033 -0.0776  0.1941
53353SOL    HW164616   7.137   6.566   8.862  0.2737 -1.1692  0.1919
53353SOL    HW264617   7.203   6.580   8.726  0.9008  0.9403  0.6738
53354SOL     OW64618   1.832   8.661  11.383  0.7309 -0.4478  0.2245
53354SOL    HW164619   1.805   8.702  11.465  1.5716 -0.8861  0.7368
53354SOL    HW264620   1.758   8.675  11.323  0.9770  1.8317  0.3558
53355SOL     OW64621   5.807  11.217  11.361 -0.7914  0.1955  0.0181
53355SOL    HW164622   5.746  11.290  11.372 -0.7012  0.4268 -0.9220
53355SOL    HW264623   5.820  11.211  11.266 -0.6660 -0.9377  0.0967
53356SOL     OW64624   6.347  11.806   6.439 -0.1092  0.9533  0.0714
53356SOL    HW164625   6.344  11.713   6.420  2.2785  0.6137  0.9347
53356SOL    HW264626   6.268  11.842   6.399  0.3059 -0.9728 -2.7574
53357SOL     OW64627   4.295   5.654   7.482  0.2067 -0.1535 -0.3070
53357SOL    HW164628   4.220   5.643   7.423  0.5410 -2.8670 -0.3576
53357SOL    HW264629   4.256   5.682   7.565 -1.1173 -2.8186  0.0667
53358SOL     OW64630  10.972   8.039   4.705  0.0243 -0.3681  0.5058
53358SOL    HW164631  10.892   8.034   4.653 -0.8985  1.0404  1.7035
53358SOL    HW264632  11.040   8.064   4.642 -0.8086  0.0741 -0.2417
53359SOL     OW64633   1.207   8.264  10.124  0.0807  0.2105  0.5485
53359SOL    HW164634   1.192   8.347  10.080 -0.4089 -0.6271 -0.9113
53359SOL    HW264635   1.183   8.197  10.060 -0.9091 -1.0667  2.1458
53360SOL     OW64636   3.933   0.985   7.264  0.1938 -0.9692 -0.6226
53360SOL    HW164637   3.907   0.893   7.277 -1.1032 -0.5434 -0.0251
53360SOL    HW264638   3.925   1.024   7.351  0.8299 -0.3025 -0.8591
53361SOL     OW64639   1.219   0.806   4.781 -0.0225 -0.0053 -0.2491
53361SOL    HW164640   1.232   0.897   4.805 -0.5869  0.4558 -1.5938
53361SOL    HW264641   1.142   0.806   4.724  0.5658 -1.1699 -1.0990
53362SOL     OW64642   6.104   7.577   4.560 -0.4315 -0.2916 -0.5372
53362SOL    HW164643   6.197   7.557   4.564 -0.1656  1.0809  0.7121
53362SOL    HW264644   6.075   7.579   4.652 -1.4820  0.2038 -0.8566
53363SOL     OW64645   0.698   3.211   6.503  0.0019 -0.3478  0.0789
53363SOL    HW164646   0.786   3.185   6.473 -0.2356 -1.5299  0.3367
53363SOL    HW264647   0.675   3.144   6.568 -1.6400 -0.8533 -0.9790
53364SOL     OW64648   6.278   2.539   4.960 -0.0269 -0.1328 -0.3811
53364SOL    HW164649   6.228   2.585   4.893  0.0818 -0.2428 -0.5374
53364SOL    HW264650   6.268   2.593   5.039  2.1255  1.5353 -1.1283
53365SOL     OW64651   8.067   4.621   7.210  0.3947 -0.0155 -0.0595
53365SOL    HW164652   8.133   4.609   7.141  0.0378  1.5043 -0.7009
53365SOL    HW264653   8.081   4.547   7.269  2.0961 -0.2082 -0.6434
53366SOL     OW64654  11.286   9.026   7.185  0.2085  0.5342 -0.5048
53366SOL    HW164655  11.250   9.099   7.235  0.0392  0.0158  0.1511
53366SOL    HW264656  11.308   9.063   7.100  1.4361  1.6743  0.2654
53367SOL     OW64657   5.063   9.832   8.043 -0.3742 -0.3834 -0.7527
53367SOL    HW164658   5.141   9.845   8.098  0.9389  1.1712 -2.8113
53367SOL    HW264659   5.050   9.738   8.041  1.2302 -0.6530  0.0021
53368SOL     OW64660   6.717   7.718  11.200 -0.4801  0.4320 -0.6359
53368SOL    HW164661   6.643   7.777  11.185 -1.0936 -0.0136  0.5508
53368SOL    HW264662   6.788   7.755  11.147 -1.7244  0.4621 -2.3934
53369SOL     OW64663   5.395   1.458  10.580  0.1690  0.0044  0.3047
53369SOL    HW164664   5.472   1.424  10.534  0.7134  1.5909 -0.0414
53369SOL    HW264665   5.343   1.381  10.601  0.9560 -0.9494 -1.0995
53370SOL     OW64666   1.010   4.221   0.982  0.2790  0.0535 -0.1223
53370SOL    HW164667   0.943   4.167   0.941  0.4571  0.6722 -1.2656
53370SOL    HW264668   0.978   4.236   1.071 -1.2480  0.5875 -0.7393
53371SOL     OW64669   5.894   7.381   2.291  0.4034  0.2693  0.2926
53371SOL    HW164670   5.958   7.440   2.252 -0.0268  0.3084 -0.3598
53371SOL    HW264671   5.810   7.408   2.254  0.3361 -1.5156 -1.0135
53372SOL     OW64672   7.800   9.374   8.083  0.3109 -1.0850 -0.6747
53372SOL    HW164673   7.835   9.285   8.088  2.9397 -0.1034  1.3426
53372SOL    HW264674   7.869   9.424   8.040  0.7929  0.6467  1.8574
53373SOL     OW64675   2.092   6.837   4.905 -0.5396  0.5203 -0.4217
53373SOL    HW164676   2.159   6.801   4.962 -2.1437  0.6063  1.6058
53373SOL    HW264677   2.082   6.771   4.836 -0.7549 -1.1494  1.1262
53374SOL     OW64678   5.239   0.469   1.814 -0.3613  0.1593 -0.3464
53374SOL    HW164679   5.270   0.508   1.732 -1.9879 -0.6272 -1.4179
53374SOL    HW264680   5.220   0.544   1.871  0.1204  0.7587 -0.9602
53375SOL     OW64681   3.692   2.901  11.033 -0.0494 -0.0816 -0.7740
53375SOL    HW164682   3.634   2.945  11.096 -2.0746 -0.5664 -2.2203
53375SOL    HW264683   3.688   2.808  11.058  1.4113  0.0447  0.0726
53376SOL     OW64684   9.118   9.837   4.760  0.2545 -0.2283 -0.0539
53376SOL    HW164685   9.176   9.761   4.754 -0.3448 -0.7677  0.8136
53376SOL    HW264686   9.123   9.864   4.852  1.0583  1.2735 -0.5021
53377SOL     OW64687   0.780   0.946   7.880  0.2442 -0.2514  0.2643
53377SOL    HW164688   0.716   0.875   7.877  0.9724 -0.9606  0.7441
53377SOL    HW264689   0.797   0.968   7.788  0.1198 -0.8174  0.1009
53378SOL     OW64690   4.865   3.152  10.874 -0.4025 -0.0741 -0.1301
53378SOL    HW164691   4.830   3.220  10.816  1.6795  1.8912  0.7963
53378SOL    HW264692   4.915   3.095  10.816  1.9560  2.0656 -0.3881
53379SOL     OW64693   1.012   8.334   3.654  0.7029 -0.6592  0.2169
53379SOL    HW164694   1.033   8.401   3.720 -0.0050 -1.0826  0.8763
53379SOL    HW264695   0.930   8.363   3.615  0.1589 -1.3757  0.8196
53380SOL     OW64696   7.814   8.910   6.822 -0.4329  0.3720  0.1601
53380SOL    HW164697   7.877   8.937   6.888 -0.9677  1.7032  0.1711
53380SOL    HW264698   7.750   8.857   6.869 -0.0308  0.0935  0.3991
53381SOL     OW64699   4.621  10.475  11.567  0.5725 -0.0487 -0.2532
53381SOL    HW164700   4.587  10.512  11.649  2.1188  0.5852  0.1204
53381SOL    HW264701   4.586  10.386  11.566  2.0419 -0.7321  2.0695
53382SOL     OW64702  11.069   0.753   0.447  0.1211 -0.2090 -0.4188
53382SOL    HW164703  11.163   0.761   0.438  0.3105 -0.8848  0.7804
53382SOL    HW264704  11.040   0.838   0.481  0.2052  0.2047 -1.3602
53383SOL     OW64705   2.649   2.633   9.218  0.1546 -0.2865  0.7453
53383SOL    HW164706   2.640   2.609   9.310 -1.6190  1.3346  1.0670
53383SOL    HW264707   2.741   2.658   9.209  0.5651 -1.3031  1.8501
53384SOL     OW64708   3.829  11.312   6.381  0.4148 -0.0775 -0.1635
53384SOL    HW164709   3.906  11.360   6.354 -0.7385  2.7113  1.0679
53384SOL    HW264710   3.792  11.276   6.300  1.7415  0.5090 -1.0467
53385SOL     OW64711  11.015  10.016   8.187  0.0095  0.5326 -0.1483
53385SOL    HW164712  10.940  10.023   8.127  0.1781  1.9325 -0.2281
53385SOL    HW264713  10.975   9.996   8.272 -0.5560  1.9958 -0.0370
53386SOL     OW64714   0.221   6.584   6.924 -0.3905 -0.4578  0.4763
53386SOL    HW164715   0.175   6.519   6.870  2.2777 -2.7222  0.7263
53386SOL    HW264716   0.258   6.645   6.861 -0.2805 -1.0130 -0.0107
53387SOL     OW64717   2.287  11.411   4.992  0.1666 -0.3258  0.1605
53387SOL    HW164718   2.212  11.360   4.960 -0.5453  0.1483  1.0184
53387SOL    HW264719   2.341  11.347   5.038 -0.8383 -0.3030  1.4342
53388SOL     OW64720  10.711   5.407  10.138  1.0683  0.2921 -0.1445
53388SOL    HW164721  10.682   5.495  10.110 -2.4418  0.0907  2.1559
53388SOL    HW264722  10.710   5.355  10.057  0.0556  1.6725 -1.0794
53389SOL     OW64723   1.883   1.253   7.461  0.3610  0.2628 -0.4239
53389SOL    HW164724   1.924   1.230   7.545  1.2791  2.3517 -0.2555
53389SOL    HW264725   1.794   1.280   7.484  0.6624  0.9877 -0.0923
53390SOL     OW64726  10.574  11.935   8.059  0.0747 -0.1172  0.3604
53390SOL    HW164727  10.611  11.966   8.142 -2.2931 -0.4977  1.6495
53390SOL    HW264728  10.624  11.981   7.992  2.4998 -0.2699  1.9452
53391SOL     OW64729  11.776  10.585  11.767 -0.1544  0.0695 -0.3741
53391SOL    HW164730  11.857  10.615  11.724  2.0155  0.0574  3.3059
53391SOL    HW264731  11.722  10.664  11.772  0.6168  0.6561 -0.8623
53392SOL     OW64732   8.044   5.232   6.029 -0.0766  0.5609 -0.4783
53392SOL    HW164733   7.968   5.280   5.997  0.8575  3.1803  0.8962
53392SOL    HW264734   8.049   5.254   6.122  1.9329 -0.1189 -0.3685
53393SOL     OW64735   2.001   0.335   5.600 -0.5333 -0.1068 -0.6243
53393SOL    HW164736   2.064   0.321   5.671  0.4837  0.5329 -1.3594
53393SOL    HW264737   1.922   0.365   5.643 -0.7388 -2.0444  0.4322
53394SOL     OW64738   2.410   8.343   5.049  0.1026  1.0239 -0.0299
53394SOL    HW164739   2.501   8.372   5.057  0.5688 -0.5574  0.6176
53394SOL    HW264740   2.400   8.323   4.956  0.7530  0.1704  0.0752
53395SOL     OW64741   6.382  11.772   5.147 -0.4116 -0.0631  0.1214
53395SOL    HW164742   6.348  11.846   5.097  1.7834  0.3353 -0.9058
53395SOL    HW264743   6.451  11.736   5.092  2.2719  0.4779  2.8930
53396SOL     OW64744   4.548   4.842   2.704  1.0000  0.4185 -0.0624
53396SOL    HW164745   4.521   4.818   2.616  1.2055 -0.5757  0.1327
53396SOL    HW264746   4.469   4.833   2.757  0.8538  1.1119 -0.1618
53397SOL     OW64747   2.283   5.167   4.824 -0.1376 -0.3237  0.3645
53397SOL    HW164748   2.325   5.111   4.758  1.2569 -1.2103  1.9192
53397SOL    HW264749   2.194   5.180   4.791  1.2748  1.8709 -3.2434
53398SOL     OW64750   0.584   8.591   6.254 -0.0551 -0.3304 -0.2683
53398SOL    HW164751   0.512   8.633   6.207 -2.0235 -0.9764  1.9600
53398SOL    HW264752   0.569   8.497   6.242 -0.5958 -0.5067  1.5423
53399SOL     OW64753   4.655   2.649   9.868  0.1890  0.3598  0.6428
53399SOL    HW164754   4.716   2.719   9.846  0.8681 -0.1310  0.9201
53399SOL    HW264755   4.595   2.689   9.932  0.4894  0.7245  0.7006
53400SOL     OW64756   2.198   4.192   4.921 -0.2081  0.3725 -0.0939
53400SOL    HW164757   2.110   4.163   4.898 -0.6571 -1.3775  3.1403
53400SOL    HW264758   2.185   4.279   4.959 -1.5737 -1.5695  4.6730
53401SOL     OW64759   2.957   7.338   3.053  0.5886  0.4413  0.9998
53401SOL    HW164760   2.901   7.401   3.098 -1.3758 -0.9959  0.6688
53401SOL    HW264761   3.037   7.336   3.106  0.1822  2.2131  1.7539
53402SOL     OW64762  10.184   1.094  11.430 -0.1732  0.2629  0.3713
53402SOL    HW164763  10.126   1.165  11.457 -0.1385  0.6229 -0.4890
53402SOL    HW264764  10.258   1.137  11.388  1.5864 -0.0873  2.9001
53403SOL     OW64765   3.899   6.296   6.747  0.6287 -0.0995  0.2583
53403SOL    HW164766   3.858   6.210   6.753  1.1377 -0.4061 -0.4644
53403SOL    HW264767   3.975   6.291   6.805 -0.0912  0.3312  1.2742
53404SOL     OW64768   3.564   2.785   4.386 -0.0435 -0.3217 -0.3472
53404SOL    HW164769   3.655   2.780   4.357  0.2048 -1.1249  0.5207
53404SOL    HW264770   3.568   2.763   4.479 -0.8929  1.5369  0.1612
53405SOL     OW64771   5.511   8.913   2.963  0.6520  0.0995 -0.0953
53405SOL    HW164772   5.600   8.935   2.934  1.6793 -1.6313  1.5131
53405SOL    HW264773   5.473   8.997   2.989  2.6158  0.6546  1.2337
53406SOL     OW64774   0.734   0.462   7.522 -0.1516  0.1153 -0.4701
53406SOL    HW164775   0.729   0.505   7.607 -0.0526  1.1669 -0.9790
53406SOL    HW264776   0.817   0.414   7.525 -1.2284 -1.8031  0.8771
53407SOL     OW64777   4.184   9.004   0.687  0.0746  0.3811  0.1898
53407SOL    HW164778   4.237   9.032   0.761 -0.4162  0.4534  0.5223
53407SOL    HW264779   4.114   9.069   0.681  0.9980  1.3023 -1.3643
53408SOL     OW64780   6.434   8.267   2.813  0.1526 -0.1357 -0.0213
53408SOL    HW164781   6.485   8.271   2.732  1.0479 -1.3501  0.4517
53408SOL    HW264782   6.417   8.359   2.835  1.9735  0.3169 -0.3165
53409SOL     OW64783   1.035   4.948   2.569  0.1420 -0.0277  0.1315
53409SOL    HW164784   1.079   4.946   2.653  0.0968 -1.1849  0.1406
53409SOL    HW264785   1.104   4.971   2.506  0.4249 -0.3029  0.3384
53410SOL     OW64786  10.378   9.152   1.340  0.1762 -0.1541 -0.5506
53410SOL    HW164787  10.453   9.112   1.296 -0.3538 -1.4219 -0.3374
53410SOL    HW264788  10.396   9.246   1.337  1.1431 -0.3543 -1.6352
53411SOL     OW64789   3.573   8.772   8.231 -0.2479  0.2480 -0.0072
53411SOL    HW164790   3.619   8.826   8.167  0.4088 -0.3840 -0.0847
53411SOL    HW264791   3.643   8.724   8.276 -0.6233  1.1532  1.6419
53412SOL     OW64792  10.008   7.816   9.812  0.3639 -0.4490  0.7382
53412SOL    HW164793   9.992   7.725   9.838 -0.0834 -0.6563 -0.2217
53412SOL    HW264794  10.102   7.821   9.797 -0.0700 -2.3245 -4.5851
53413SOL     OW64795   1.504   2.739   7.810  0.2858 -0.3723 -0.4137
53413SOL    HW164796   1.481   2.770   7.898  1.3921  0.7651 -0.4954
53413SOL    HW264797   1.469   2.807   7.752  0.1375 -0.7859 -0.8107
53414SOL     OW64798   5.627   1.076   0.896  0.2049  0.1888 -0.3174
53414SOL    HW164799   5.604   1.156   0.849 -1.8135  0.4778  1.0162
53414SOL    HW264800   5.644   1.012   0.828 -1.8994  0.7717 -1.4892
53415SOL     OW64801   1.577  11.148   4.326  0.4959  0.4310  0.4338
53415SOL    HW164802   1.529  11.081   4.277 -0.3054  2.1832 -1.3141
53415SOL    HW264803   1.523  11.164   4.404  0.2532 -0.3281  0.4285
53416SOL     OW64804   9.412  11.281   2.702  0.2966 -0.4657  0.0215
53416SOL    HW164805   9.497  11.245   2.728  0.3794 -0.7258 -0.5828
53416SOL    HW264806   9.400  11.358   2.758  0.6003 -0.8343  0.5984
53417SOL     OW64807   3.349   9.702   0.341 -0.3050 -0.1864 -0.0675
53417SOL    HW164808   3.398   9.646   0.401  0.3729  3.0370  2.6686
53417SOL    HW264809   3.264   9.659   0.331  0.6818 -2.4385  0.5659
53418SOL     OW64810   4.938   7.854  12.031  0.0618  0.4131  0.1959
53418SOL    HW164811   4.959   7.941  11.998 -0.3639  0.9022  1.1626
53418SOL    HW264812   4.862   7.826  11.979 -0.0705  0.8086  0.1736
53419SOL     OW64813   0.343  10.449   9.859 -0.1124 -0.0381 -0.1910
53419SOL    HW164814   0.416  10.511   9.855  1.8818 -2.1255  1.1800
53419SOL    HW264815   0.353  10.394   9.781 -0.7587  0.1863 -0.4420
53420SOL     OW64816   6.399  10.572   1.741 -0.2421 -0.0015 -0.2870
53420SOL    HW164817   6.471  10.594   1.682 -0.1345  2.1841  0.5983
53420SOL    HW264818   6.433  10.587   1.829 -0.9848 -1.4573  0.3000
53421SOL     OW64819   0.625  10.831   5.396 -0.3548 -0.2717 -0.3099
53421SOL    HW164820   0.581  10.823   5.480 -0.7661  0.0347 -0.4923
53421SOL    HW264821   0.618  10.924   5.373  0.4144 -0.2109 -0.3307
53422SOL     OW64822   6.631   2.397   9.155  0.4613  0.1388 -0.1446
53422SOL    HW164823   6.726   2.381   9.156  0.5220  0.4068  1.8577
53422SOL    HW264824   6.622   2.482   9.114  0.8383 -0.9747 -2.7397
53423SOL     OW64825  10.381  10.728   0.183  0.1194 -0.0766 -0.2144
53423SOL    HW164826  10.330  10.693   0.110 -0.0596 -1.1032  0.3934
53423SOL    HW264827  10.448  10.782   0.141 -0.6156  0.1886 -1.0822
53424SOL     OW64828   2.334   8.343   4.774 -0.3154  0.2931 -0.0074
53424SOL    HW164829   2.299   8.430   4.759  0.4472  0.0647 -4.3103
53424SOL    HW264830   2.264   8.283   4.746 -0.1751 -0.4663  1.1769
53425SOL     OW64831  11.814   7.650   6.792 -0.1386  0.0514  0.6997
53425SOL    HW164832  11.869   7.728   6.783 -1.2665  0.7487 -0.6646
53425SOL    HW264833  11.873   7.577   6.774  0.8483  0.6026  1.6014
53426SOL     OW64834   5.348   8.146   3.758  0.5414 -0.1774 -0.1732
53426SOL    HW164835   5.364   8.230   3.715  1.3095 -0.5040 -0.5368
53426SOL    HW264836   5.259   8.123   3.732 -0.3054  1.2782  1.2201
53427SOL     OW64837   8.685   0.197  10.674 -0.8789 -0.3230  0.1570
53427SOL    HW164838   8.707   0.220  10.765  1.0314 -0.5209 -0.1999
53427SOL    HW264839   8.757   0.140  10.646 -1.0096  0.3634 -1.7301
53428SOL     OW64840  11.077   6.661   2.262  0.9973  0.3315  0.0365
53428SOL    HW164841  11.008   6.659   2.328 -0.1543  2.5397 -0.9963
53428SOL    HW264842  11.099   6.569   2.247  0.2699 -0.2859  2.3938
53429SOL     OW64843  10.901  11.389   4.393 -0.1021 -0.2548 -0.5210
53429SOL    HW164844  10.957  11.454   4.351 -0.6282 -0.1761 -1.1178
53429SOL    HW264845  10.871  11.333   4.321 -1.0467 -0.0997 -0.2623
53430SOL     OW64846   4.601   1.107  10.983 -0.0767 -0.1098 -0.0069
53430SOL    HW164847   4.618   1.031  10.927  1.4603 -0.1023  0.3859
53430SOL    HW264848   4.506   1.111  10.991 -0.1902 -2.6243  0.8116
53431SOL     OW64849  12.013   2.542   5.761 -0.1878 -0.2543  0.2220
53431SOL    HW164850  12.097   2.521   5.802 -0.3472 -0.6827  0.3321
53431SOL    HW264851  12.022   2.512   5.670 -0.2044 -0.2611  0.2224
53432SOL     OW64852  11.223   1.924   7.593  0.6066 -0.5581  0.4431
53432SOL    HW164853  11.216   1.987   7.664 -0.2191 -1.0224  0.7849
53432SOL    HW264854  11.317   1.902   7.589  0.5866 -0.9327  1.7403
53433SOL     OW64855   8.820  11.448  11.336  0.6033 -0.0054 -0.2656
53433SOL    HW164856   8.755  11.514  11.311 -0.1367 -1.0833 -1.2443
53433SOL    HW264857   8.778  11.364  11.317  1.9556 -0.7442 -0.0707
53434SOL     OW64858   6.871   0.875   2.427 -0.2209  0.3944  0.6683
53434SOL    HW164859   6.848   0.914   2.343  0.4793 -1.5420 -0.4794
53434SOL    HW264860   6.803   0.811   2.443  0.6750 -0.6001  0.6029
53435SOL     OW64861   4.547   6.373   9.870 -0.0582  0.2688 -0.2278
53435SOL    HW164862   4.591   6.428   9.935 -0.5366  0.1485  0.2085
53435SOL    HW264863   4.602   6.296   9.861 -0.3492 -0.0395  0.5717
53436SOL     OW64864   4.961   8.573   1.487 -0.1250  0.1349  0.1377
53436SOL    HW164865   4.903   8.499   1.471 -1.3036  1.1429 -0.3985
53436SOL    HW264866   4.944   8.598   1.578 -2.7034  2.1807 -0.7958
53437SOL     OW64867   9.245   2.995  10.318  0.1861  0.1184  0.2043
53437SOL    HW164868   9.210   3.084  10.319  1.8873  0.9614 -2.6897
53437SOL    HW264869   9.339   3.006  10.332  0.4910 -1.1496 -0.6877
53438SOL     OW64870   8.466  11.539   1.454  0.2119  0.2067  0.4249
53438SOL    HW164871   8.390  11.508   1.504 -0.3462  0.9233  0.0462
53438SOL    HW264872   8.502  11.610   1.506  0.6687 -0.1760  0.6362
53439SOL     OW64873  10.992   2.367   9.842  0.0830  0.1301 -0.2634
53439SOL    HW164874  11.054   2.382   9.914  0.3997 -2.7585  0.1868
53439SOL    HW264875  11.006   2.440   9.783  1.4299  1.4106  1.5128
53440SOL     OW64876   9.034   2.876   6.225 -0.2508 -0.1621 -0.2370
53440SOL    HW164877   8.957   2.836   6.183 -0.1290  1.9215 -2.6748
53440SOL    HW264878   9.108   2.840   6.177  0.2039 -0.7115  0.8492
53441SOL     OW64879   3.070  11.913   9.269  0.1363  0.0898 -0.2142
53441SOL    HW164880   3.138  11.920   9.202 -0.1421 -1.9845 -0.7983
53441SOL    HW264881   3.006  11.852   9.232 -1.9214  1.7389  0.4484
53442SOL     OW64882   4.692   1.731   0.586 -0.1659 -0.3514  0.6076
53442SOL    HW164883   4.702   1.796   0.517  0.7529 -0.3444  0.7235
53442SOL    HW264884   4.695   1.781   0.667  1.7362 -0.6036  0.7466
53443SOL     OW64885   9.197   4.315   8.466 -0.2721  0.3821  0.4911
53443SOL    HW164886   9.107   4.303   8.496  0.6121 -2.7902  2.3130
53443SOL    HW264887   9.235   4.374   8.532 -1.0816  2.3005 -0.6638
53444SOL     OW64888   3.214   1.487  11.094 -0.6239 -0.3582  0.0207
53444SOL    HW164889   3.135   1.504  11.146 -0.5839 -1.6445  0.5438
53444SOL    HW264890   3.242   1.400  11.122  0.6469 -0.1644 -0.5999
53445SOL     OW64891   0.460   0.790   3.526  0.1545 -0.3790 -0.1840
53445SOL    HW164892   0.453   0.799   3.621 -1.0415  2.1714 -0.4273
53445SOL    HW264893   0.443   0.697   3.509 -4.3102 -0.1633  1.8251
53446SOL     OW64894   5.653   7.122   6.302  0.1447 -0.3506 -0.0799
53446SOL    HW164895   5.619   7.067   6.373  1.3072  0.9837  1.5747
53446SOL    HW264896   5.582   7.184   6.285 -1.3847 -2.5142 -2.3057
53447SOL     OW64897   0.044   9.541   0.169 -0.4223  0.1204 -0.3168
53447SOL    HW164898  -0.038   9.573   0.207  0.5544  0.0512  2.0395
53447SOL    HW264899   0.022   9.455   0.134 -1.6564  0.6929 -1.0116
53448SOL     OW64900   5.487   9.016   2.033  0.1874  0.1346 -0.1611
53448SOL    HW164901   5.406   8.970   2.058  0.3323 -0.9692 -1.5687
53448SOL    HW264902   5.549   8.994   2.102  0.1339 -1.5555 -0.5863
53449SOL     OW64903   2.266   3.124   8.253 -0.3124 -0.0837  0.6751
53449SOL    HW164904   2.313   3.113   8.335 -1.1140  1.4802  1.3888
53449SOL    HW264905   2.331   3.159   8.192 -0.0851  0.2645  1.1108
53450SOL     OW64906   6.376   6.852   8.579 -0.5441 -0.0278 -0.2663
53450SOL    HW164907   6.316   6.850   8.653  1.4387  0.7461  1.4874
53450SOL    HW264908   6.463   6.843   8.619  0.6116  0.4724 -2.5120
53451SOL     OW64909  12.046   9.496   2.853 -0.1429 -0.7637  0.9284
53451SOL    HW164910  12.014   9.424   2.908  0.4314 -1.3251  0.5253
53451SOL    HW264911  12.090   9.555   2.915 -0.0942 -1.0487  1.1675
53452SOL     OW64912   5.228   0.168   5.524  0.0188  0.3135  0.3604
53452SOL    HW164913   5.211   0.219   5.445 -0.4506 -0.2400  0.1056
53452SOL    HW264914   5.278   0.092   5.494 -1.2792 -0.5777  0.3829
53453SOL     OW64915   7.144   8.352   5.666  0.0014  0.0094  0.0873
53453SOL    HW164916   7.052   8.328   5.673 -0.6504  2.0210 -0.8201
53453SOL    HW264917   7.175   8.304   5.589 -0.4914 -0.0934 -0.0518
53454SOL     OW64918   7.404   5.883  10.861 -0.6737  0.5178 -0.1490
53454SOL    HW164919   7.340   5.882  10.932  1.1153  1.7713  1.5893
53454SOL    HW264920   7.433   5.974  10.856  2.3864 -0.2700  0.5709
53455SOL     OW64921  11.500   4.513   7.038  0.5586  0.2345  0.7334
53455SOL    HW164922  11.519   4.590   6.985 -1.9725  0.3331 -0.1663
53455SOL    HW264923  11.566   4.515   7.107  2.5549  1.3645 -1.0856
53456SOL     OW64924   5.031   1.360  10.898 -0.2957  0.1679 -0.2448
53456SOL    HW164925   4.935   1.362  10.893 -0.4191  0.8873  1.6676
53456SOL    HW264926   5.052   1.403  10.981  1.6854 -0.2650 -0.4685
53457SOL     OW64927   8.790   8.571   8.868 -0.1092 -0.0929  0.0395
53457SOL    HW164928   8.700   8.560   8.896  0.0740 -1.1006  0.2510
53457SOL    HW264929   8.789   8.652   8.816 -0.6694  1.1924  1.9504
53458SOL     OW64930   4.287   8.236  11.063  0.4188  0.0088  0.2361
53458SOL    HW164931   4.346   8.267  11.132 -1.0688  0.7100  1.2625
53458SOL    HW264932   4.205   8.281  11.081 -1.1101 -2.5565  0.2090
53459SOL     OW64933   5.639   2.740   2.882 -0.2142  0.2522  0.1672
53459SOL    HW164934   5.680   2.737   2.969  0.0557  1.0764  0.0700
53459SOL    HW264935   5.694   2.799   2.831 -0.5643  0.0347 -0.4687
53460SOL     OW64936  11.837   2.106  10.828  0.3663 -0.1627  0.2159
53460SOL    HW164937  11.807   2.181  10.880 -0.6895 -0.8655  0.6500
53460SOL    HW264938  11.925   2.088  10.860 -0.1055 -0.3104  1.4776
53461SOL     OW64939   2.276   1.412  11.489 -0.3613  0.2101  0.4059
53461SOL    HW164940   2.233   1.496  11.504 -1.3150 -0.4363  1.3557
53461SOL    HW264941   2.220   1.348  11.531  0.2708 -0.9382 -0.4565
53462SOL     OW64942   8.606   9.914   5.300  0.1253  0.1027  0.0051
53462SOL    HW164943   8.560   9.842   5.343 -0.2636  0.3673  0.0332
53462SOL    HW264944   8.583   9.991   5.351  1.0897  0.1504  0.3964
53463SOL     OW64945   8.201   8.514  11.568  0.0827 -0.1027  0.1114
53463SOL    HW164946   8.225   8.603  11.593 -0.7337  0.4666 -1.1111
53463SOL    HW264947   8.123   8.523  11.515  0.3478 -1.5039 -0.5635
53464SOL     OW64948   4.570  12.107  10.467 -0.8487 -0.2820  0.8286
53464SOL    HW164949   4.636  12.040  10.454 -1.9320 -1.2376  0.0296
53464SOL    HW264950   4.488  12.059  10.476 -2.0564  0.9045 -2.3092
53465SOL     OW64951   7.316  10.906   7.785  0.0793  0.1528  0.5196
53465SOL    HW164952   7.249  10.875   7.846  0.4435  0.0755  0.8866
53465SOL    HW264953   7.335  10.831   7.730  1.4220 -0.5087  1.8206
53466SOL     OW64954  11.952   6.804   3.541 -0.3990  0.1965 -0.2669
53466SOL    HW164955  11.892   6.762   3.479 -1.1516  1.4920 -0.4383
53466SOL    HW264956  11.903   6.878   3.576 -0.1181 -0.6441  2.1329
53467SOL     OW64957   8.675   0.946   9.147 -0.5080 -0.2438 -0.1981
53467SOL    HW164958   8.596   0.902   9.178  0.3487 -1.4113  0.3996
53467SOL    HW264959   8.686   0.914   9.057  0.4448 -1.7887  0.4311
53468SOL     OW64960   7.390   1.711  10.432  0.2038 -0.4124 -0.0421
53468SOL    HW164961   7.483   1.736  10.437 -0.0258  0.3152  0.8758
53468SOL    HW264962   7.352   1.745  10.513 -1.1558  0.4725 -1.0222
53469SOL     OW64963  10.495   5.450   2.147 -0.0352  0.2773  0.2305
53469SOL    HW164964  10.411   5.405   2.163  0.4436 -0.0775  1.9645
53469SOL    HW264965  10.532   5.404   2.072 -0.6573 -0.6507  0.4634
53470SOL     OW64966   3.688  11.083   8.507 -0.2734 -0.1728 -0.6434
53470SOL    HW164967   3.667  11.027   8.433 -0.2900  0.8944 -1.4719
53470SOL    HW264968   3.770  11.126   8.482 -0.5607  0.6059 -0.2914
53471SOL     OW64969   3.466   8.069   0.321 -0.2834 -0.3092  0.0629
53471SOL    HW164970   3.377   8.081   0.352 -0.5096 -2.4148  0.4051
53471SOL    HW264971   3.490   7.981   0.352  1.5359 -0.1895 -0.8867
53472SOL     OW64972  11.818   2.138   2.298  0.2726 -0.2617  0.4771
53472SOL    HW164973  11.835   2.217   2.247 -0.5704 -0.1153  0.4131
53472SOL    HW264974  11.884   2.075   2.268  0.2073  0.0418 -0.3001
53473SOL     OW64975   0.835   5.966   4.829  0.2082  0.3953  0.2005
53473SOL    HW164976   0.902   5.901   4.809  1.8482  2.3017 -0.9621
53473SOL    HW264977   0.785   5.975   4.747 -0.5894 -0.0128  0.6296
53474SOL     OW64978   0.074   7.856   2.835  0.2378  0.2372  0.5212
53474SOL    HW164979   0.022   7.870   2.756 -0.5145  2.6905  1.3754
53474SOL    HW264980   0.165   7.852   2.803 -0.1320  0.0330 -0.5640
53475SOL     OW64981   7.626   2.208   2.192 -0.5068  0.3944 -0.1532
53475SOL    HW164982   7.544   2.186   2.236 -1.8830  1.2233 -2.1460
53475SOL    HW264983   7.641   2.300   2.212 -0.1080  0.2770  0.1092
53476SOL     OW64984   1.003   5.792   2.168  0.1947  0.4327 -0.4497
53476SOL    HW164985   1.036   5.732   2.235 -0.7797 -0.1338 -0.4643
53476SOL    HW264986   1.081   5.818   2.119  0.8144  0.2531  0.4185
53477SOL     OW64987   8.700   1.020   8.054  0.2242 -0.2685 -0.2539
53477SOL    HW164988   8.629   0.982   8.002 -0.0079  1.4138 -1.2209
53477SOL    HW264989   8.780   0.987   8.013  0.0386 -1.2122  0.1072
53478SOL     OW64990   3.797   7.864   5.573 -0.0816 -0.8079 -0.0094
53478SOL    HW164991   3.846   7.781   5.578  1.2387 -0.0731 -0.2841
53478SOL    HW264992   3.713   7.840   5.534  0.5037 -1.9312 -0.6389
53479SOL     OW64993   5.295   6.812   8.889  0.2899  0.2315 -0.5060
53479SOL    HW164994   5.328   6.722   8.881 -0.6446 -0.1300 -0.3954
53479SOL    HW264995   5.221   6.816   8.829  0.9284  1.2432 -1.2566
53480SOL     OW64996   6.907   0.405   3.642  0.4626 -0.2111 -0.1759
53480SOL    HW164997   6.848   0.335   3.614  0.9832 -0.2655 -1.1513
53480SOL    HW264998   6.951   0.369   3.719  0.1812 -0.6653 -0.2204
53481SOL     OW64999   9.416   5.044   0.955 -0.1171 -0.9939  1.2466
53481SOL    HW165000   9.389   5.131   0.985  0.2975 -0.7116  0.8034
53481SOL    HW265001   9.334   4.996   0.946 -0.4912 -0.1723  0.0007
53482SOL     OW65002   9.451   9.846   9.627  0.4517 -0.1595  0.0093
53482SOL    HW165003   9.505   9.859   9.549  0.7262 -1.7678 -0.1223
53482SOL    HW265004   9.514   9.833   9.698  0.2165 -0.1249  0.2245
53483SOL     OW65005   3.255  10.827   5.889  0.3678 -0.0651  0.2650
53483SOL    HW165006   3.171  10.801   5.927  0.8993  0.8198  2.1546
53483SOL    HW265007   3.318  10.763   5.923  0.6692  0.0314 -0.0974
53484SOL     OW65008  10.748  11.734   7.907  0.2960 -0.1123  0.2853
53484SOL    HW165009  10.795  11.818   7.898  0.5801 -0.2505  0.4661
53484SOL    HW265010  10.656  11.756   7.890  0.3396  0.2765  0.5351
53485SOL     OW65011  10.062   1.073   1.739 -0.0837  0.1244  0.3507
53485SOL    HW165012  10.001   1.064   1.665  0.5430  0.5368 -0.2235
53485SOL    HW265013  10.138   1.022   1.713  0.9446  1.8447 -0.1733
53486SOL     OW65014   8.519   8.944  11.454 -1.0849 -0.8071  0.0561
53486SOL    HW165015   8.531   8.874  11.518 -3.1774 -1.7233 -0.4849
53486SOL    HW265016   8.541   8.904  11.370  1.3535  0.3063  0.0806
53487SOL     OW65017   4.974   7.482   9.813 -0.0956 -0.1805  0.0911
53487SOL    HW165018   4.944   7.417   9.876 -0.1945 -0.8753 -0.6580
53487SOL    HW265019   4.922   7.466   9.734 -0.4477  1.1023  0.0324
53488SOL     OW65020   0.884   7.123   8.406  0.6982  0.0823 -0.6775
53488SOL    HW165021   0.859   7.153   8.493 -1.8469  1.0424 -1.6604
53488SOL    HW265022   0.906   7.203   8.359 -1.3944  0.0049 -1.9008
53489SOL     OW65023   7.340  10.864  10.207  0.8022  0.6997  0.1102
53489SOL    HW165024   7.385  10.861  10.123  0.8526 -4.0783  0.0020
53489SOL    HW265025   7.279  10.938  10.199  1.4470  1.0440 -3.7414
53490SOL     OW65026   3.889   9.800   4.803  1.3368  0.2816  0.6446
53490SOL    HW165027   3.951   9.728   4.816  1.0450 -0.4061 -1.3552
53490SOL    HW265028   3.818   9.781   4.864  1.0783 -1.3913 -0.1072
53491SOL     OW65029   5.166   2.395  10.950  0.6103 -0.3702  0.2316
53491SOL    HW165030   5.100   2.415  11.016 -0.4756  0.1956 -0.9751
53491SOL    HW265031   5.185   2.302  10.962 -0.4614 -0.5597  0.5788
53492SOL     OW65032   0.946   3.023   2.932 -0.2312  0.1724 -0.4602
53492SOL    HW165033   0.986   3.015   3.018 -0.0751  0.1480 -0.5352
53492SOL    HW265034   0.890   2.945   2.924  0.5404 -0.3530 -0.7960
53493SOL     OW65035   9.527   0.715  11.980  0.7471  0.3819 -0.3547
53493SOL    HW165036   9.450   0.659  11.972  0.3255  0.8308  0.4316
53493SOL    HW265037   9.541   0.750  11.891  0.5821 -0.3914 -0.6892
53494SOL     OW65038   4.036   6.827   5.380  0.3528 -0.0626 -0.0013
53494SOL    HW165039   4.010   6.832   5.472  0.8269  1.4564  0.0721
53494SOL    HW265040   4.124   6.863   5.378  0.8364 -1.2453 -0.8770
53495SOL     OW65041   9.479   0.537   2.958  0.4859 -0.0594 -0.1678
53495SOL    HW165042   9.504   0.570   3.044 -1.3007  0.3245  0.2346
53495SOL    HW265043   9.540   0.578   2.897  1.4202  0.0871  0.8447
53496SOL     OW65044   4.895   5.109   3.149 -0.0199 -0.4725  0.4221
53496SOL    HW165045   4.980   5.117   3.193  0.6808  0.8065 -1.0694
53496SOL    HW265046   4.855   5.196   3.160  0.3913  0.0620 -1.7969
53497SOL     OW65047   9.701   7.270   3.347  0.2934  0.3520 -0.1885
53497SOL    HW165048   9.675   7.204   3.283  0.7572 -0.4034  0.3779
53497SOL    HW265049   9.694   7.354   3.300 -2.0898  0.1045 -0.3726
53498SOL     OW65050  11.368  10.437   9.624  0.3295  0.8656 -0.3123
53498SOL    HW165051  11.370  10.530   9.604  0.4821  0.8090 -0.5753
53498SOL    HW265052  11.339  10.432   9.715  0.5682  1.1797 -0.2160
53499SOL     OW65053   2.636   2.973   8.858 -0.0410  0.3656 -0.0154
53499SOL    HW165054   2.651   3.045   8.796  0.4326  2.9020  2.8373
53499SOL    HW265055   2.715   2.919   8.850 -0.9715 -0.7593 -3.1568
53500SOL     OW65056  11.415   0.990   5.884  0.4219  0.1382 -0.3354
53500SOL    HW165057  11.405   0.976   5.790 -0.8725 -1.1759 -0.0543
53500SOL    HW265058  11.347   1.053   5.906  0.9573  0.7141 -0.3380
53501SOL     OW65059   9.772   5.509  10.544  0.4040  0.5752 -0.0566
53501SOL    HW165060   9.816   5.581  10.590  0.6890  0.5717 -0.3228
53501SOL    HW265061   9.768   5.438  10.608 -0.1191  0.9192  0.2968
53502SOL     OW65062   7.959   4.496  11.247  0.2874  0.2757 -0.1358
53502SOL    HW165063   7.977   4.519  11.156  0.2425  1.5756  0.1565
53502SOL    HW265064   7.866   4.516  11.259  0.3097  0.1811  0.2125
53503SOL     OW65065  11.058   0.958   8.993  0.6198  0.1361 -0.7796
53503SOL    HW165066  10.986   0.909   8.952  0.2892  0.2297 -0.3081
53503SOL    HW265067  11.087   1.019   8.925  0.9113 -0.5825 -1.3108
53504SOL     OW65068   7.075   0.344   1.287 -0.2865  0.6045 -0.7122
53504SOL    HW165069   6.983   0.352   1.313  0.0418 -0.2656  0.7898
53504SOL    HW265070   7.093   0.425   1.239 -1.5048  1.3449  0.0246
53505SOL     OW65071   9.148   4.325   9.677 -0.1092 -0.0701 -0.5610
53505SOL    HW165072   9.220   4.281   9.723  1.5792  2.1002 -0.9588
53505SOL    HW265073   9.071   4.271   9.696  1.3925 -1.8611  0.8414
53506SOL     OW65074   3.678   4.579   6.008 -0.0575  0.0966  0.5375
53506SOL    HW165075   3.763   4.592   6.049  1.7473  1.1015 -3.0401
53506SOL    HW265076   3.625   4.654   6.036  1.2045  0.9332  0.7459
53507SOL     OW65077  10.261  11.798   3.013  0.5081  0.0973  0.3824
53507SOL    HW165078  10.205  11.822   3.086  0.6101 -0.3310  0.6004
53507SOL    HW265079  10.344  11.771   3.053  0.3375 -0.8032  0.1555
53508SOL     OW65080   8.353   4.366   7.624  0.4728  0.1967 -0.5069
53508SOL    HW165081   8.348   4.459   7.647  1.9827  0.1018  0.3950
53508SOL    HW265082   8.434   4.358   7.574  1.0990 -0.8239  0.6013
53509SOL     OW65083   4.604   9.684   8.567 -0.4197 -0.6158 -0.0501
53509SOL    HW165084   4.657   9.610   8.595 -0.7485 -0.8665 -0.0728
53509SOL    HW265085   4.621   9.752   8.632 -0.1368 -0.7208 -0.0122
53510SOL     OW65086   1.825  10.094   7.761 -0.1245  0.0034  0.4936
53510SOL    HW165087   1.789  10.101   7.672  0.5378 -0.1580  0.2111
53510SOL    HW265088   1.857  10.182   7.780 -1.3472  0.3529  1.0494
53511SOL     OW65089   5.755  12.043   8.333 -0.2163  0.2307  0.3214
53511SOL    HW165090   5.670  12.047   8.378  0.0899 -0.1808  0.9470
53511SOL    HW265091   5.799  11.967   8.372  0.0690 -0.1216 -0.6598
53512SOL     OW65092   4.217   3.240   9.082  0.2774  0.6836 -0.1484
53512SOL    HW165093   4.253   3.161   9.123  1.0436  1.9016  1.6410
53512SOL    HW265094   4.292   3.283   9.041 -0.1562  0.4722 -1.2131
53513SOL     OW65095  11.350  10.007   6.797 -1.0097 -0.0620  0.1724
53513SOL    HW165096  11.386  10.053   6.721 -0.7598  2.3666  1.6700
53513SOL    HW265097  11.422   9.952   6.828 -0.8667 -0.4800 -0.8359
53514SOL     OW65098   6.377   9.790   8.986 -0.2584  0.3590 -0.2861
53514SOL    HW165099   6.367   9.803   8.891 -0.4528 -0.0785 -0.3258
53514SOL    HW265100   6.361   9.877   9.023  1.8508  1.0222 -0.7981
53515SOL     OW65101   3.943   0.923   1.548 -0.3550 -0.3894 -0.1456
53515SOL    HW165102   3.926   1.014   1.574 -1.8437 -0.7878  0.3752
53515SOL    HW265103   3.894   0.871   1.611  1.2868 -1.6180  0.1817
53516SOL     OW65104   1.867  12.093   7.378 -0.1955  0.6709 -0.1209
53516SOL    HW165105   1.906  12.180   7.386 -1.3810  1.1296  1.0427
53516SOL    HW265106   1.792  12.094   7.437  0.8553 -1.7721  1.4418
53517SOL     OW65107   2.366   3.555   4.787 -0.1403 -0.5043 -0.1483
53517SOL    HW165108   2.281   3.557   4.832 -0.3779 -0.7436 -0.5777
53517SOL    HW265109   2.386   3.462   4.779 -1.4780 -0.6544 -3.0554
53518SOL     OW65110   7.067   7.583   5.930 -0.2132 -0.0362 -0.1426
53518SOL    HW165111   7.005   7.565   6.001 -1.6575 -0.4338 -1.4484
53518SOL    HW265112   7.131   7.643   5.968 -0.9205 -0.2671  1.4901
53519SOL     OW65113   7.373   5.876   6.671 -0.3648 -0.8114 -0.0022
53519SOL    HW165114   7.451   5.867   6.616 -0.3500  0.9122 -0.3199
53519SOL    HW265115   7.347   5.786   6.691 -0.2016 -1.5164 -2.5786
53520SOL     OW65116   9.413  11.270  11.645  0.2124 -0.0433 -0.7719
53520SOL    HW165117   9.466  11.232  11.575  0.9283 -1.9734  0.7043
53520SOL    HW265118   9.370  11.194  11.686 -0.7530  1.0945  0.4195
53521SOL     OW65119   7.068   9.694  11.256  0.3367 -0.4550 -0.1559
53521SOL    HW165120   7.136   9.722  11.318  1.4131 -1.5880 -0.8000
53521SOL    HW265121   6.994   9.670  11.312  0.8605 -0.2940  0.6225
53522SOL     OW65122   9.390   9.699   6.442 -0.3501 -0.6181 -0.2761
53522SOL    HW165123   9.412   9.615   6.403 -2.6850 -0.7910 -1.3894
53522SOL    HW265124   9.311   9.682   6.493 -1.0591  0.9362 -0.7753
53523SOL     OW65125   0.002  11.656  10.153 -0.2246 -0.1860  0.1860
53523SOL    HW165126   0.063  11.727  10.131 -0.5435 -0.1611 -0.6767
53523SOL    HW265127  -0.040  11.685  10.234  1.4234 -0.5512  1.2139
53524SOL     OW65128   6.071   3.208   1.396 -0.5732 -0.5563  0.0949
53524SOL    HW165129   6.084   3.239   1.485  1.5423  1.4749 -0.8286
53524SOL    HW265130   6.075   3.112   1.403  1.3329 -0.3913  1.9590
53525SOL     OW65131   3.816   2.116  10.609  0.3561 -0.7127  0.1756
53525SOL    HW165132   3.857   2.097  10.694 -0.9789  0.4111  1.1313
53525SOL    HW265133   3.819   2.211  10.603  0.2300 -0.7764 -0.9517
53526SOL     OW65134   7.460  11.686   7.300 -0.6034 -0.2858  0.2304
53526SOL    HW165135   7.451  11.605   7.350 -0.6302  0.7351  1.9648
53526SOL    HW265136   7.513  11.743   7.355 -0.2293  0.7569 -1.1310
53527SOL     OW65137   2.950   4.388   8.936 -0.3121  0.0271 -0.0856
53527SOL    HW165138   3.027   4.367   8.884 -0.9860 -0.0952 -1.0609
53527SOL    HW265139   2.959   4.335   9.016 -0.2151 -1.2735 -0.9349
53528SOL     OW65140   5.159   6.923   3.841 -0.1874  0.1192  0.3470
53528SOL    HW165141   5.115   6.969   3.770 -0.6013  0.5083  0.8511
53528SOL    HW265142   5.196   6.992   3.896 -0.6031 -0.1457  0.9763
53529SOL     OW65143   0.788  11.494  10.469  0.7225  0.0572 -0.1754
53529SOL    HW165144   0.800  11.494  10.374  0.2706  1.9451 -0.2718
53529SOL    HW265145   0.842  11.567  10.500 -0.4237  0.5110  0.8174
53530SOL     OW65146  11.994   0.190   5.543 -0.1473 -0.2820 -0.2287
53530SOL    HW165147  12.032   0.247   5.611  0.6701 -2.1899  0.9852
53530SOL    HW265148  11.921   0.241   5.508  1.8568  2.4291 -0.7703
53531SOL     OW65149   6.109   0.413   5.773 -0.3680 -0.6138  0.2082
53531SOL    HW165150   6.094   0.483   5.836 -0.4462 -1.2927  0.9544
53531SOL    HW265151   6.022   0.377   5.756 -0.6772  0.9625 -1.9783
53532SOL     OW65152   3.112   2.403   6.148 -0.0523  0.6799 -0.0965
53532SOL    HW165153   3.017   2.385   6.144 -0.1591  1.1796  0.1505
53532SOL    HW265154   3.141   2.357   6.226 -0.3676  1.7345  0.6629
53533SOL     OW65155   7.091   7.860   4.970  0.0588  0.0487  0.0560
53533SOL    HW165156   7.039   7.852   4.890 -1.3397  0.4320  0.8922
53533SOL    HW265157   7.047   7.802   5.033  1.5925 -0.8480  0.3484
53534SOL     OW65158   4.287   7.322   2.604 -0.5949  0.1391  0.3031
53534SOL    HW165159   4.290   7.413   2.634 -3.8880  0.6353 -0.4811
53534SOL    HW265160   4.202   7.290   2.633 -0.6174 -1.8432 -1.6916
53535SOL     OW65161   1.363   4.889  11.331  0.0512  0.3109  0.2901
53535SOL    HW165162   1.331   4.891  11.241 -1.8524 -0.0507  0.9207
53535SOL    HW265163   1.450   4.850  11.325  0.5409  1.5790 -1.5417
53536SOL     OW65164   1.388   0.585   7.415 -0.3394 -0.0477  0.4158
53536SOL    HW165165   1.369   0.532   7.337 -1.4592 -0.4464  0.9429
53536SOL    HW265166   1.460   0.539   7.458  0.7447  0.5333 -0.7055
53537SOL     OW65167   0.262  11.387   5.822  0.0633  0.1820  0.0672
53537SOL    HW165168   0.241  11.300   5.854  0.6498  0.3832  1.0272
53537SOL    HW265169   0.294  11.435   5.899  1.5645  0.6594 -0.8001
53538SOL     OW65170   1.217   2.313   4.117 -0.3721  0.1611  0.9643
53538SOL    HW165171   1.295   2.259   4.133  0.4989 -0.0775 -3.0276
53538SOL    HW265172   1.145   2.262   4.153  1.0748 -0.4160  3.2728
53539SOL     OW65173   9.988   4.803   6.757  0.0820 -0.1404 -0.0880
53539SOL    HW165174   9.962   4.838   6.842 -1.4843 -2.0621  0.2973
53539SOL    HW265175   9.970   4.873   6.695  0.2719  0.9234  1.0224
53540SOL     OW65176   8.860   9.004   3.759  0.1788  0.3752 -0.1471
53540SOL    HW165177   8.890   8.992   3.669 -0.7535  1.1386 -0.5777
53540SOL    HW265178   8.894   8.928   3.806  1.5095  0.4638 -0.9156
53541SOL     OW65179   2.614   1.273   5.879  0.2144  0.2321 -0.6000
53541SOL    HW165180   2.655   1.270   5.965 -1.5650 -0.2543  0.2830
53541SOL    HW265181   2.638   1.358   5.843 -0.3220  1.1379  1.0859
53542SOL     OW65182   7.193  11.319   3.442  0.5550  0.4929 -0.2286
53542SOL    HW165183   7.116  11.302   3.389 -0.9212  2.3673  1.1608
53542SOL    HW265184   7.242  11.236   3.440 -2.2239 -1.3175  0.0336
53543SOL     OW65185   7.258   9.598   7.936 -0.0150 -0.4574  0.3687
53543SOL    HW165186   7.324   9.529   7.929 -0.8747 -1.3507  0.7792
53543SOL    HW265187   7.283   9.662   7.869  1.2315 -0.7941  0.4898
53544SOL     OW65188   6.550   0.091   7.586  0.3050  0.0444  0.1842
53544SOL    HW165189   6.457   0.110   7.575 -0.3338 -2.1206  1.2117
53544SOL    HW265190   6.593   0.176   7.582 -1.4232  0.9243 -2.6773
53545SOL     OW65191   6.006   0.074   5.581  0.0509 -0.7029  0.0263
53545SOL    HW165192   5.929   0.101   5.632  0.7265  0.3228  0.5596
53545SOL    HW265193   6.031  -0.010   5.619  0.2515 -0.1854  1.0892
53546SOL     OW65194   9.361   3.369   1.091 -0.3046 -0.1696  0.4964
53546SOL    HW165195   9.377   3.343   1.182 -1.0012  0.2543  0.7453
53546SOL    HW265196   9.321   3.456   1.098 -2.8541 -1.2184 -0.0714
53547SOL     OW65197   1.826   0.158   3.624 -0.4370 -0.0995  0.2899
53547SOL    HW165198   1.736   0.140   3.652  0.1106  0.8745  2.9671
53547SOL    HW265199   1.872   0.183   3.705  1.8146  1.1488 -1.2627
53548SOL     OW65200   5.185   7.158   8.299 -0.4914 -0.0160 -0.1414
53548SOL    HW165201   5.187   7.250   8.274 -0.8360 -0.3794 -1.6536
53548SOL    HW265202   5.098   7.128   8.273  0.3551 -1.2709 -1.8034
53549SOL     OW65203   1.714   2.473  12.065 -0.0768 -0.2430  0.3376
53549SOL    HW165204   1.665   2.391  12.057 -0.6476  0.2185 -1.1960
53549SOL    HW265205   1.649   2.541  12.047  0.7469  0.4615 -0.0261
53550SOL     OW65206   9.285   8.739   2.811  0.5935  0.2283  0.1522
53550SOL    HW165207   9.367   8.700   2.782 -0.4006 -1.1405 -0.9543
53550SOL    HW265208   9.222   8.717   2.743 -0.0059  4.2759 -0.8769
53551SOL     OW65209   8.254   5.790   2.927  0.2830 -0.4775  0.1405
53551SOL    HW165210   8.248   5.728   2.854  2.3532  1.7907 -2.1450
53551SOL    HW265211   8.196   5.862   2.902  0.0260 -0.2204  1.3940
53552SOL     OW65212  10.774   9.097  11.468  0.1368  0.4677  0.3047
53552SOL    HW165213  10.826   9.100  11.549  1.3009  1.8287 -0.4618
53552SOL    HW265214  10.818   9.031  11.414  0.7446  1.2021 -0.1120
53553SOL     OW65215   5.425  11.501   0.732 -0.1424  0.5663 -0.0544
53553SOL    HW165216   5.439  11.534   0.821  0.0814 -0.3863  0.2776
53553SOL    HW265217   5.342  11.454   0.737  1.0011 -1.5437  0.2928
53554SOL     OW65218   1.126   1.043   4.520 -0.0293  0.3100 -0.5798
53554SOL    HW165219   1.080   1.127   4.524 -0.0757  0.3517 -1.7311
53554SOL    HW265220   1.199   1.053   4.581 -0.0736  1.1645 -0.6473
53555SOL     OW65221   8.917   2.890   6.544 -0.3359 -0.1180 -0.2710
53555SOL    HW165222   8.912   2.832   6.620 -0.7806 -0.0466 -0.2407
53555SOL    HW265223   8.926   2.978   6.581  1.0843 -0.2188 -0.3236
53556SOL     OW65224   8.133   8.994   8.206 -0.5648 -0.5398  0.2629
53556SOL    HW165225   8.146   9.086   8.182  0.5080 -0.4450  1.1287
53556SOL    HW265226   8.060   8.995   8.267 -1.5736 -0.4714 -0.8997
53557SOL     OW65227   7.654   4.648   8.537  0.2584 -0.2655  0.5001
53557SOL    HW165228   7.570   4.694   8.541  0.0859 -0.6077  0.8191
53557SOL    HW265229   7.688   4.667   8.450  0.8172  1.5962  1.0728
53558SOL     OW65230   5.927  11.035   6.769 -0.2616 -0.0942  0.2157
53558SOL    HW165231   5.891  11.018   6.683 -0.5572  0.6065  0.1918
53558SOL    HW265232   6.021  11.022   6.759 -0.2122  0.7095 -0.4008
53559SOL     OW65233   2.195   8.513   9.036 -0.2105 -0.9791 -0.0730
53559SOL    HW165234   2.228   8.441   8.981  1.3012 -1.3853  1.2976
53559SOL    HW265235   2.221   8.489   9.125  1.2517  1.7031  0.3498
53560SOL     OW65236   0.825   9.549   9.313  0.4213 -0.5244  0.2929
53560SOL    HW165237   0.735   9.561   9.281  1.0429 -1.4790 -2.0003
53560SOL    HW265238   0.852   9.636   9.342 -0.9785 -0.0658  0.2787
53561SOL     OW65239   1.027   5.500   7.928 -0.0976  0.0261 -0.0054
53561SOL    HW165240   0.982   5.578   7.961  0.2728  0.4556 -0.4980
53561SOL    HW265241   1.120   5.522   7.934  0.0230 -0.5056  0.1472
53562SOL     OW65242   5.741   8.246   5.050  0.6348  0.3873  0.5401
53562SOL    HW165243   5.675   8.181   5.027 -0.2268  1.0473  1.0690
53562SOL    HW265244   5.794   8.256   4.971  0.5360 -0.6596  0.3333
53563SOL     OW65245   2.181   2.466   3.086 -0.0910  0.4038 -0.0683
53563SOL    HW165246   2.160   2.411   3.011  1.9215  0.3474 -0.6615
53563SOL    HW265247   2.126   2.433   3.157  0.3849 -1.8061 -0.6540
53564SOL     OW65248  11.401   6.650   9.175 -0.2725  0.4796  0.6060
53564SOL    HW165249  11.370   6.643   9.265 -1.8717 -0.5618  0.0222
53564SOL    HW265250  11.329   6.617   9.122  0.0264  2.4524 -1.1801
53565SOL     OW65251   0.899  11.037   0.149  0.6096  0.0378 -0.2499
53565SOL    HW165252   0.895  11.047   0.244 -1.1429  0.0827 -0.2833
53565SOL    HW265253   0.932  11.121   0.118 -0.5984  0.7367  0.2559
53566SOL     OW65254   8.610   3.451   5.772 -0.2096  0.5074  0.3730
53566SOL    HW165255   8.544   3.392   5.736 -0.2980  1.0239 -0.3199
53566SOL    HW265256   8.569   3.537   5.772 -0.0562  0.5998  1.3209
53567SOL     OW65257  10.297   7.872  10.434  0.4003 -1.0118  0.5746
53567SOL    HW165258  10.256   7.895  10.351  0.3132 -1.0233  0.6144
53567SOL    HW265259  10.236   7.811  10.476  1.4091 -2.6742 -0.2836
53568SOL     OW65260   5.753   2.777   8.741  0.1707 -0.0134 -0.1230
53568SOL    HW165261   5.728   2.769   8.833  2.8367  2.2177  0.9454
53568SOL    HW265262   5.704   2.853   8.710  1.5097  1.0847  0.3905
53569SOL     OW65263   5.632   2.657   1.435  0.1324  0.5288  0.1693
53569SOL    HW165264   5.663   2.747   1.420 -0.2919  0.7400  0.5383
53569SOL    HW265265   5.584   2.635   1.355  1.6132  0.0230 -0.6109
53570SOL     OW65266   2.543   9.098   0.217  0.1452  0.0475  0.1300
53570SOL    HW165267   2.508   9.064   0.299  0.7787  0.0024  0.3832
53570SOL    HW265268   2.618   9.042   0.197  0.1507  0.2166 -0.3469
53571SOL     OW65269   2.535   4.120   6.428  0.9911 -0.2323 -0.7457
53571SOL    HW165270   2.508   4.208   6.402  0.5378 -0.8201 -2.3377
53571SOL    HW265271   2.628   4.116   6.405  0.5143 -0.8724 -2.7942
53572SOL     OW65272   8.023   3.567  10.122 -0.0566 -0.0510  0.8036
53572SOL    HW165273   7.990   3.479  10.139  0.3841 -0.1257  1.3294
53572SOL    HW265274   8.117   3.560  10.137  0.0048  0.4758  0.6888
53573SOL     OW65275   9.296   3.050   9.447 -0.2815  0.4205 -0.5723
53573SOL    HW165276   9.202   3.069   9.456 -0.0499  2.0534 -1.2713
53573SOL    HW265277   9.339   3.127   9.484  0.8304 -0.7466  0.6820
53574SOL     OW65278  10.103   7.644  11.522 -0.7666 -0.1656  1.0437
53574SOL    HW165279  10.037   7.698  11.566  0.0979 -0.1586  2.3578
53574SOL    HW265280  10.186   7.683  11.545 -0.2787  0.2694 -1.2077
53575SOL     OW65281   2.246   2.521  10.921  0.0285  0.9030 -0.1052
53575SOL    HW165282   2.215   2.605  10.953  0.0975 -0.7158  5.2226
53575SOL    HW265283   2.171   2.462  10.932  1.1021 -0.4818  0.1031
53576SOL     OW65284   6.566  10.702   0.974 -0.1215  0.3526 -0.0432
53576SOL    HW165285   6.620  10.767   0.929  0.4564  1.2845  1.8883
53576SOL    HW265286   6.601  10.618   0.945  1.3538  0.9293 -0.0471
53577SOL     OW65287   4.545  11.143   5.484  0.0801 -0.4056 -0.4879
53577SOL    HW165288   4.599  11.204   5.435  0.0531 -0.4722 -0.5998
53577SOL    HW265289   4.504  11.088   5.418  2.2358 -2.3794 -0.3258
53578SOL     OW65290  11.982   4.211   1.760 -0.0114  0.6267 -0.7418
53578SOL    HW165291  11.909   4.159   1.792  1.3769 -1.6707 -1.1133
53578SOL    HW265292  12.057   4.151   1.761  1.8628  2.8146 -0.5450
53579SOL     OW65293   9.577   9.002  10.918  0.2221 -0.0444  0.1451
53579SOL    HW165294   9.618   9.074  10.871 -0.1882 -0.5154 -0.9579
53579SOL    HW265295   9.612   8.923  10.876 -1.0239 -0.4615 -0.1471
53580SOL     OW65296   6.431   2.092   7.389  0.7208 -0.5664 -0.4077
53580SOL    HW165297   6.455   2.113   7.480  0.0490 -1.4821 -0.0129
53580SOL    HW265298   6.499   2.135   7.337  2.1373 -1.4797  0.6041
53581SOL     OW65299   2.799   5.742   4.234 -0.5629  0.3541 -0.4925
53581SOL    HW165300   2.880   5.769   4.277 -0.6687 -0.0803 -0.0132
53581SOL    HW265301   2.824   5.725   4.144  0.5615 -2.7301  0.2856
53582SOL     OW65302   4.479   1.277  12.027 -0.0689 -0.1240 -0.1640
53582SOL    HW165303   4.455   1.323  12.107  0.2814  0.9952 -0.6771
53582SOL    HW265304   4.565   1.241  12.046 -0.2646 -0.4113  0.1842
53583SOL     OW65305   8.728  10.719   5.711  0.4586 -0.3563  0.4205
53583SOL    HW165306   8.805  10.707   5.656  0.8415 -0.3115  0.9412
53583SOL    HW265307   8.699  10.808   5.693 -0.5795 -0.9593 -1.1562
53584SOL     OW65308   4.362   4.246  10.246  0.9637 -0.0820 -0.3734
53584SOL    HW165309   4.428   4.224  10.311  1.4614 -1.1209 -1.1866
53584SOL    HW265310   4.321   4.162  10.224 -1.1365  0.6056  0.6052
53585SOL     OW65311   1.149   9.428   8.131  0.6266  0.0135 -0.0857
53585SOL    HW165312   1.214   9.494   8.155 -0.0152  0.0568  1.6570
53585SOL    HW265313   1.201   9.350   8.111  1.3014  0.6166 -0.7490
53586SOL     OW65314   4.445  11.761   5.042 -0.1881 -0.7143 -0.1722
53586SOL    HW165315   4.397  11.761   5.125  0.7479  3.5383  0.6013
53586SOL    HW265316   4.384  11.800   4.979  0.7979  0.9748 -0.1351
53587SOL     OW65317   5.748   4.636   7.555  0.3878 -0.2540 -0.2012
53587SOL    HW165318   5.709   4.556   7.519  3.1813 -1.2362 -1.3120
53587SOL    HW265319   5.798   4.673   7.483  3.4620 -0.4575  1.6439
53588SOL     OW65320  11.358   6.803   7.541 -0.0103  0.1568 -0.1217
53588SOL    HW165321  11.380   6.793   7.449 -0.2179  1.0126 -0.2737
53588SOL    HW265322  11.373   6.895   7.560 -0.6420  0.1410  0.5201
53589SOL     OW65323   1.925   9.717  10.730 -0.1903  0.1121 -0.9971
53589SOL    HW165324   1.995   9.781  10.720 -1.0916  0.9939 -1.9169
53589SOL    HW265325   1.848   9.769  10.754 -0.6668 -0.7659 -0.5772
53590SOL     OW65326   9.737   7.565   9.234 -0.4872  0.8036 -0.4958
53590SOL    HW165327   9.781   7.587   9.152 -0.9999  0.5115 -0.8551
53590SOL    HW265328   9.659   7.620   9.234 -1.1021 -0.0412 -0.7778
53591SOL     OW65329   1.730   3.945   7.654  0.5494 -0.5637 -0.6930
53591SOL    HW165330   1.799   3.940   7.588  1.6158 -0.8410  0.4031
53591SOL    HW265331   1.771   3.991   7.728 -0.1850 -1.4361  0.2888
53592SOL     OW65332   6.090  11.331   8.100  0.7458  0.1973  0.3572
53592SOL    HW165333   5.997  11.335   8.077  0.7251  2.3312  0.6210
53592SOL    HW265334   6.128  11.271   8.036 -0.8879 -1.2600  0.6598
53593SOL     OW65335   9.450   6.259  10.275  0.1360  0.5148 -0.0174
53593SOL    HW165336   9.387   6.192  10.303  0.1152  0.7170  0.4390
53593SOL    HW265337   9.461   6.244  10.182 -1.2251  1.0036 -0.2814
53594SOL     OW65338   8.844  11.215   8.281 -0.4716 -0.1883 -0.3048
53594SOL    HW165339   8.836  11.201   8.375 -2.6124  1.8845 -0.0952
53594SOL    HW265340   8.888  11.299   8.272 -0.7922 -0.0977 -1.1422
53595SOL     OW65341   8.917   2.723   6.767 -0.2310 -0.0750  0.2163
53595SOL    HW165342   8.989   2.688   6.715 -0.4503 -0.3778  0.1138
53595SOL    HW265343   8.954   2.732   6.855  0.6138  1.9073 -0.2998
53596SOL     OW65344   6.190   5.179   8.368  0.2693 -0.2767 -0.0538
53596SOL    HW165345   6.207   5.085   8.368  1.2804 -0.1037  0.0825
53596SOL    HW265346   6.127   5.192   8.296  2.4114 -0.6667 -2.1033
53597SOL     OW65347   8.359   2.720   5.167 -0.2639  0.3950 -0.0741
53597SOL    HW165348   8.317   2.802   5.192  0.9874  1.1837 -0.4333
53597SOL    HW265349   8.452   2.743   5.156  0.3799 -1.3674  1.2325
53598SOL     OW65350   7.522   2.833   4.604  0.4789  0.2675 -0.2267
53598SOL    HW165351   7.602   2.853   4.653  0.6483  1.4259 -0.9495
53598SOL    HW265352   7.460   2.902   4.629 -0.2371 -0.4926  0.1548
53599SOL     OW65353   0.888  11.593   2.080  0.5111  0.1185  0.3301
53599SOL    HW165354   0.984  11.590   2.082  0.5657  1.2762  2.0728
53599SOL    HW265355   0.867  11.684   2.059 -0.1961 -0.0395  0.3259
53600SOL     OW65356   7.963   1.774   8.238  0.0740  0.3572 -0.2722
53600SOL    HW165357   8.047   1.732   8.259 -0.2920 -0.7197 -0.8675
53600SOL    HW265358   7.986   1.843   8.176  0.5963  0.5192  0.0910
53601SOL     OW65359   7.329   3.456   0.386  0.0886  0.6058 -0.1090
53601SOL    HW165360   7.268   3.528   0.402 -2.6565 -1.3064 -1.1657
53601SOL    HW265361   7.303   3.388   0.448  1.5677 -0.0776 -0.1901
53602SOL     OW65362   4.902  11.363   4.498 -0.0591 -0.7208  0.0907
53602SOL    HW165363   4.807  11.349   4.494 -0.3589  0.3636  2.0916
53602SOL    HW265364   4.936  11.282   4.536 -0.2665 -0.8464  0.0137
53603SOL     OW65365   4.421   5.397   3.354 -0.1159 -0.1177  0.2364
53603SOL    HW165366   4.331   5.424   3.372  0.3353  0.2240  2.2370
53603SOL    HW265367   4.413   5.306   3.324 -1.1684  0.1477 -0.3240
53604SOL     OW65368  12.109   2.143   3.873  0.3809  0.3156 -0.0822
53604SOL    HW165369  12.065   2.059   3.888  1.2745 -0.7327 -2.6709
53604SOL    HW265370  12.119   2.181   3.960  0.2009 -2.4133  1.2431
53605SOL     OW65371  11.660   1.578   0.120 -0.0861 -0.8504 -0.2889
53605SOL    HW165372  11.712   1.628   0.058 -1.1549  0.8872  0.1576
53605SOL    HW265373  11.645   1.494   0.076 -1.1967  0.4608 -2.6210
53606SOL     OW65374   1.189   2.939   7.832 -0.0732  0.0632 -0.4077
53606SOL    HW165375   1.244   2.931   7.753  1.0517 -1.1990  0.4579
53606SOL    HW265376   1.164   2.849   7.853 -1.9899  0.5465 -0.3935
53607SOL     OW65377   4.982   6.647   6.505 -0.2417  0.1093  0.2194
53607SOL    HW165378   4.938   6.730   6.486  1.6649  1.1641  0.2333
53607SOL    HW265379   5.017   6.619   6.421 -1.1709 -0.9024  0.1449
53608SOL     OW65380   1.705   2.893   7.368  0.0556  0.0245  0.2480
53608SOL    HW165381   1.773   2.960   7.368  0.4781 -0.3752 -1.0643
53608SOL    HW265382   1.724   2.839   7.445  3.1951 -1.9766 -1.6966
53609SOL     OW65383  11.105   3.111   6.911  0.2464  0.4749 -0.3827
53609SOL    HW165384  11.143   3.188   6.954  1.0614  1.0928 -2.1495
53609SOL    HW265385  11.147   3.037   6.954  0.9045  1.0681  0.0153
53610SOL     OW65386   9.696   4.431   5.757 -0.0526  0.1324 -0.4913
53610SOL    HW165387   9.678   4.463   5.845  1.3337  0.8272 -0.4316
53610SOL    HW265388   9.701   4.336   5.767 -2.9429 -0.0900 -0.4355
53611SOL     OW65389   6.386   6.972  12.064 -0.6316  0.1263  0.5338
53611SOL    HW165390   6.481   6.983  12.057 -0.7097  0.5067  0.0661
53611SOL    HW265391   6.372   6.879  12.049 -0.5708  0.4713 -2.1738
53612SOL     OW65392   4.579   2.684  10.253  0.0955 -0.9297  0.0592
53612SOL    HW165393   4.513   2.677  10.323  1.9464  1.0104  2.1887
53612SOL    HW265394   4.637   2.754  10.283  2.3279 -1.6006 -2.3744
53613SOL     OW65395   6.954   3.966  10.872 -0.2835  0.1574 -0.5450
53613SOL    HW165396   7.009   3.925  10.806 -0.0908 -0.3266 -0.0891
53613SOL    HW265397   6.955   4.059  10.850  0.9218  0.1923 -0.4050
53614SOL     OW65398  10.168   8.613  11.324  0.2171  0.4805 -0.1349
53614SOL    HW165399  10.158   8.521  11.347  2.6658 -0.0210 -0.7649
53614SOL    HW265400  10.131   8.620  11.236  0.8099 -0.1290 -0.4444
53615SOL     OW65401   4.145   4.032   3.318  0.2134 -0.0883  0.4274
53615SOL    HW165402   4.094   3.951   3.312  0.4327 -0.3610  1.8585
53615SOL    HW265403   4.106   4.090   3.253 -0.0246 -1.2924 -0.5411
53616SOL     OW65404   3.949   7.641   8.466 -0.1512 -0.5008 -0.4584
53616SOL    HW165405   3.946   7.636   8.562  1.1346  0.8131 -0.3260
53616SOL    HW265406   3.888   7.712   8.444 -0.4370 -0.7941 -0.6142
53617SOL     OW65407   9.730   7.264  10.194  0.2003 -0.5329  0.2741
53617SOL    HW165408   9.675   7.343  10.196  2.4239  1.1122  0.6994
53617SOL    HW265409   9.728   7.236  10.103  0.5808  0.9639 -0.2276
53618SOL     OW65410  10.670  10.811  10.669 -0.4341  0.1698  0.4951
53618SOL    HW165411  10.643  10.842  10.755 -0.9469  2.3635 -0.3841
53618SOL    HW265412  10.765  10.822  10.668 -0.4578  0.3852  0.6752
53619SOL     OW65413   9.206   9.959  10.727  0.3252 -0.1005 -0.0567
53619SOL    HW165414   9.229   9.866  10.737  0.1213 -0.1764 -0.2675
53619SOL    HW265415   9.120   9.967  10.768 -0.0388 -0.1899 -0.7849
53620SOL     OW65416   6.111   8.391  10.307 -0.2337 -0.2275 -0.0907
53620SOL    HW165417   6.180   8.387  10.240  0.4702 -1.5547  0.6849
53620SOL    HW265418   6.120   8.479  10.345 -0.6744  0.5734 -1.7286
53621SOL     OW65419   7.829   0.738   9.866 -0.3457 -0.3238 -0.0256
53621SOL    HW165420   7.773   0.777   9.799 -0.6319  1.7110  1.3231
53621SOL    HW265421   7.769   0.694   9.926 -0.1205 -1.7716 -0.8137
53622SOL     OW65422  11.501   1.927   1.725 -0.5357 -0.5992 -0.6930
53622SOL    HW165423  11.431   1.993   1.723  0.2630  0.2775 -0.2326
53622SOL    HW265424  11.469   1.860   1.785 -1.2011 -0.4577 -0.8809
53623SOL     OW65425   9.385   6.703   0.034  0.3773  0.1428 -0.1574
53623SOL    HW165426   9.303   6.735  -0.004 -0.3075 -1.3169  0.0378
53623SOL    HW265427   9.410   6.629  -0.022  0.9756 -0.1287  0.4553
53624SOL     OW65428  11.688   9.257   5.420 -0.1514  0.0928 -0.5093
53624SOL    HW165429  11.718   9.177   5.377 -0.3344  0.7882 -1.9895
53624SOL    HW265430  11.768   9.299   5.451 -0.0419 -0.5606  0.1404
53625SOL     OW65431   8.938   6.907  11.122 -0.1358  0.6261 -0.6988
53625SOL    HW165432   8.851   6.868  11.137  0.0235  0.5962  0.2314
53625SOL    HW265433   8.962   6.944  11.207 -0.0690  2.3580 -1.4313
53626SOL     OW65434   9.537   7.585   5.379  0.4687 -0.3331  0.3196
53626SOL    HW165435   9.577   7.538   5.306  1.0908 -1.3892  1.3016
53626SOL    HW265436   9.607   7.590   5.445 -0.0741  0.6092  0.8366
53627SOL     OW65437   9.507   9.867   7.538  0.5522  0.2660  0.3370
53627SOL    HW165438   9.519   9.852   7.632  3.1024 -0.1178  0.0250
53627SOL    HW265439   9.508   9.962   7.529  1.4522  0.2973  0.6130
53628SOL     OW65440   2.150   7.334   6.992 -0.2963  0.1090 -0.2372
53628SOL    HW165441   2.220   7.399   6.989  0.4682 -0.5910  1.4262
53628SOL    HW265442   2.079   7.373   6.940  0.7547  1.4978 -0.6921
53629SOL     OW65443   5.701   8.434   3.698 -0.1640 -0.2619  0.2879
53629SOL    HW165444   5.608   8.411   3.706 -0.7878  2.0791  0.3426
53629SOL    HW265445   5.733   8.378   3.627 -1.2693 -2.0000  1.0786
53630SOL     OW65446  11.241   6.721   0.822 -0.1683  0.3849  0.7752
53630SOL    HW165447  11.235   6.626   0.832  0.2947  0.3848  1.0935
53630SOL    HW265448  11.150   6.750   0.817 -0.2960 -0.1434 -0.0435
53631SOL     OW65449   3.228  11.683  10.870 -0.1652 -0.4377 -0.5718
53631SOL    HW165450   3.226  11.661  10.963 -0.0578  0.8984 -0.2379
53631SOL    HW265451   3.317  11.717  10.855 -0.7363  1.0798 -0.7195
53632SOL     OW65452   7.888   0.175   7.868 -0.3339 -0.2559 -0.8443
53632SOL    HW165453   7.800   0.168   7.905 -0.9425  2.2364 -1.6021
53632SOL    HW265454   7.946   0.143   7.937 -1.7448 -0.6739  0.1955
53633SOL     OW65455   7.102   4.539   1.297 -0.4180 -0.3001 -0.0524
53633SOL    HW165456   7.172   4.494   1.250 -0.3595 -0.1002 -0.1587
53633SOL    HW265457   7.077   4.611   1.239 -0.6950 -0.3556 -0.0033
53634SOL     OW65458   7.080   1.779   8.134 -0.0567  0.1768 -0.6344
53634SOL    HW165459   7.073   1.862   8.181  1.9178  0.4633 -0.7750
53634SOL    HW265460   6.997   1.734   8.153 -0.4066  1.3901  0.9479
53635SOL     OW65461   0.917  11.253   5.400 -0.3721 -0.0648 -0.1287
53635SOL    HW165462   0.966  11.238   5.320 -1.0246 -2.2429 -0.1705
53635SOL    HW265463   0.899  11.347   5.399  1.2130  0.2701 -1.5758
53636SOL     OW65464   5.055   4.224   8.275  0.1531  0.1951 -0.0044
53636SOL    HW165465   5.058   4.312   8.237  1.3831  1.0647  1.9248
53636SOL    HW265466   4.982   4.227   8.337  0.8044  0.2264  0.7892
53637SOL     OW65467   2.750  10.285   1.298 -0.1560  0.1156  0.2393
53637SOL    HW165468   2.799  10.227   1.240  0.6203  0.6814  0.3136
53637SOL    HW265469   2.791  10.275   1.384 -1.1262 -0.5156  0.6440
53638SOL     OW65470   9.138   2.461  11.461  0.2872 -0.4175  0.7787
53638SOL    HW165471   9.093   2.536  11.423 -1.6656 -1.5472  0.7417
53638SOL    HW265472   9.108   2.459  11.552  0.7287 -0.8599  0.9225
53639SOL     OW65473  10.360  11.098   3.287 -0.3684  0.0468 -0.0881
53639SOL    HW165474  10.453  11.120   3.292 -0.9836  2.8559  1.0278
53639SOL    HW265475  10.347  11.030   3.353  0.6595  0.6659  0.7811
53640SOL     OW65476   6.870   8.741   8.616  0.6907 -0.2352 -0.1451
53640SOL    HW165477   6.937   8.765   8.680 -1.0846  1.1250  1.2866
53640SOL    HW265478   6.794   8.795   8.639 -1.2717 -2.4627 -1.0303
53641SOL     OW65479   7.374   3.947  10.716 -0.3796  0.3903  0.7323
53641SOL    HW165480   7.390   4.038  10.741  0.7920  0.1883  0.7431
53641SOL    HW265481   7.377   3.899  10.799  1.4968  0.0078  0.4875
53642SOL     OW65482   0.726   5.540   0.561 -0.3524 -0.5115  0.2650
53642SOL    HW165483   0.812   5.582   0.565  0.6404 -2.3355 -0.8740
53642SOL    HW265484   0.679   5.588   0.493 -0.3723  0.6474  1.0563
53643SOL     OW65485   9.197   4.392   3.078 -0.7287 -0.3124 -0.4065
53643SOL    HW165486   9.125   4.367   3.020  0.6247 -1.8524 -1.5524
53643SOL    HW265487   9.241   4.463   3.032 -2.2752  1.6338  0.9756
53644SOL     OW65488  10.601   3.883  11.437 -0.1541 -0.3855 -0.0742
53644SOL    HW165489  10.635   3.882  11.527  2.5085  1.8606 -0.9336
53644SOL    HW265490  10.609   3.792  11.407  1.4350 -0.6825  1.1217
53645SOL     OW65491   2.840   0.817   0.058  0.3701  0.7339 -0.2627
53645SOL    HW165492   2.846   0.867   0.140  1.0437  1.7002 -0.8818
53645SOL    HW265493   2.809   0.881  -0.006  3.0588  0.9045 -1.5079
53646SOL     OW65494   3.947   3.937   6.709  0.1332 -0.2356  0.0168
53646SOL    HW165495   4.021   3.966   6.656 -0.7364 -1.2503 -1.8741
53646SOL    HW265496   3.929   4.009   6.769  1.4382  0.7953 -0.7924
53647SOL     OW65497  11.859   8.593   4.528 -0.0031  0.5202 -0.7401
53647SOL    HW165498  11.915   8.670   4.539  0.4047 -0.0367  1.5868
53647SOL    HW265499  11.919   8.525   4.497  0.1256  0.5525 -0.5687
53648SOL     OW65500  10.481  10.762   7.183 -0.5770  0.1308 -0.2951
53648SOL    HW165501  10.430  10.682   7.170 -0.5653  0.2547 -1.1500
53648SOL    HW265502  10.572  10.733   7.186 -0.5588  0.1342 -0.8122
53649SOL     OW65503   5.216   2.464   6.781 -0.0496 -0.0414  0.4907
53649SOL    HW165504   5.229   2.475   6.686 -2.0209  1.0671  0.3046
53649SOL    HW265505   5.200   2.553   6.813 -0.0726 -0.4898  1.7634
53650SOL     OW65506   5.878   0.220   3.466  0.6003 -0.1826  0.4269
53650SOL    HW165507   5.886   0.143   3.523  1.5357 -1.4783 -1.3751
53650SOL    HW265508   5.791   0.211   3.427  0.7950 -0.4447  0.0531
53651SOL     OW65509   7.525   3.771   1.690 -0.2658  0.7675 -0.6706
53651SOL    HW165510   7.488   3.725   1.614  1.2710 -0.8635 -0.4893
53651SOL    HW265511   7.577   3.841   1.652 -0.0452  0.3747 -1.1095
53652SOL     OW65512   1.261   1.699   0.412 -0.4202 -0.0355  0.6359
53652SOL    HW165513   1.326   1.764   0.439 -0.3026  0.3191 -0.4442
53652SOL    HW265514   1.308   1.641   0.352 -0.6532 -0.8375  1.2167
53653SOL     OW65515   4.297   4.692   9.602 -0.1811 -0.5537 -0.1007
53653SOL    HW165516   4.216   4.742   9.613 -0.2758 -0.4845 -1.0225
53653SOL    HW265517   4.307   4.644   9.684 -0.1563  0.8793  0.7593
53654SOL     OW65518  10.304  11.779   6.500 -0.5478 -0.0287 -0.6761
53654SOL    HW165519  10.377  11.760   6.440  0.1920 -0.6783  0.4090
53654SOL    HW265520  10.242  11.828   6.446  1.6515  2.5405 -1.0908
53655SOL     OW65521   4.941   0.826   0.804  0.2199 -0.3826  0.1803
53655SOL    HW165522   4.850   0.850   0.823  0.6778  1.3124  0.4446
53655SOL    HW265523   4.941   0.731   0.800 -1.3503 -0.4586  1.2782
53656SOL     OW65524   4.385   7.033   9.494 -0.7514  0.5651  0.2013
53656SOL    HW165525   4.440   6.972   9.447  0.4303 -0.9885  3.3354
53656SOL    HW265526   4.368   7.103   9.431 -0.2653 -1.8000 -2.8124
53657SOL     OW65527   4.629   8.293   6.904 -0.3945 -0.3285  0.2854
53657SOL    HW165528   4.565   8.280   6.834  0.6960 -0.3086 -0.7319
53657SOL    HW265529   4.603   8.376   6.944 -0.2530  0.3281 -0.9480
53658SOL     OW65530   2.534   4.404   9.874  0.0417  0.4022 -0.1822
53658SOL    HW165531   2.599   4.355   9.823  0.9372  0.3736  0.9381
53658SOL    HW265532   2.528   4.357   9.957 -1.0187  0.7260 -0.0567
53659SOL     OW65533   9.757   2.715   8.052 -0.1676 -0.1169 -0.5815
53659SOL    HW165534   9.699   2.755   8.116 -1.0139  0.0707 -1.4393
53659SOL    HW265535   9.711   2.635   8.024  0.1833 -0.1948 -0.9549
53660SOL     OW65536   4.905   9.995  10.455  0.8503  0.0420  0.0179
53660SOL    HW165537   4.822   9.966  10.492  1.4004 -0.3900  0.9633
53660SOL    HW265538   4.971   9.942  10.500  1.6247  0.1913 -0.8998
53661SOL     OW65539  10.976   5.476  10.272  0.3930  0.0907 -0.8729
53661SOL    HW165540  11.014   5.389  10.285 -1.9602 -0.7437  1.0310
53661SOL    HW265541  10.896   5.461  10.222  0.2253  1.2392 -0.9840
53662SOL     OW65542  11.924   4.800   9.387 -0.0091 -0.2675 -0.1929
53662SOL    HW165543  11.945   4.716   9.429 -0.1086  0.3596  1.1616
53662SOL    HW265544  11.941   4.865   9.455 -0.4013  0.7731 -1.0735
53663SOL     OW65545   6.347   3.249   3.776 -0.2599  0.3103  0.1622
53663SOL    HW165546   6.292   3.198   3.835  0.2329 -0.5821 -0.1348
53663SOL    HW265547   6.424   3.194   3.761 -0.5175  0.3654 -1.5648
53664SOL     OW65548   2.639   9.508   5.042 -0.4298 -0.4412  0.2155
53664SOL    HW165549   2.569   9.474   4.987 -0.8895  1.2624 -0.2951
53664SOL    HW265550   2.713   9.519   4.983 -0.9535  1.4828 -0.1347
53665SOL     OW65551   9.844  11.019   3.622  0.2907 -0.5850 -0.5134
53665SOL    HW165552   9.918  11.073   3.650 -1.1691  0.9634  0.6343
53665SOL    HW265553   9.865  10.992   3.533  1.2104  1.7656 -1.0782
53666SOL     OW65554   0.114   7.917  10.570 -0.4173 -0.2649 -0.0751
53666SOL    HW165555   0.144   7.998  10.611 -0.7443 -0.3108  0.2619
53666SOL    HW265556   0.020   7.930  10.558 -0.5435 -0.7502  0.3454
53667SOL     OW65557   1.795   3.206   9.250 -0.3071 -0.2366 -0.2008
53667SOL    HW165558   1.784   3.277   9.186  0.9410  0.3993  0.2506
53667SOL    HW265559   1.713   3.203   9.298 -0.6131  0.4671 -0.6690
53668SOL     OW65560  11.683   4.817   2.965 -0.5521  0.2254  0.2119
53668SOL    HW165561  11.656   4.861   2.884 -0.3704  1.3039  0.7118
53668SOL    HW265562  11.612   4.837   3.028 -0.4585 -0.1900  0.4532
53669SOL     OW65563   4.511  10.719   7.205 -0.6569 -0.5197  0.5404
53669SOL    HW165564   4.541  10.671   7.128 -0.4852 -0.7328  0.7357
53669SOL    HW265565   4.591  10.733   7.256 -0.6781  0.1345  0.3997
53670SOL     OW65566   5.198   8.180   6.029 -0.0721 -0.3894  0.4050
53670SOL    HW165567   5.164   8.191   6.117 -2.6436  0.7887 -0.6082
53670SOL    HW265568   5.233   8.266   6.006  0.2267 -0.5806  0.1347
53671SOL     OW65569   3.988  11.773  10.949 -0.0856 -1.1723  0.1474
53671SOL    HW165570   3.998  11.775  11.044  1.9707  0.1326 -0.0284
53671SOL    HW265571   3.921  11.838  10.931  0.9048  0.0295  0.6276
53672SOL     OW65572   0.218  11.972   8.367  0.0615  0.5366 -0.1461
53672SOL    HW165573   0.266  11.985   8.449  0.1729 -0.7920  0.0313
53672SOL    HW265574   0.282  11.929   8.309  0.5495  3.0270 -1.5736
53673SOL     OW65575   1.645   2.455   1.635  0.1924 -0.1345  0.5420
53673SOL    HW165576   1.739   2.445   1.621  0.0730 -0.1572 -0.3417
53673SOL    HW265577   1.636   2.482   1.726  1.0495 -0.2229  0.6554
53674SOL     OW65578   4.905   4.972   4.299 -0.2048  0.0049 -0.4690
53674SOL    HW165579   4.903   4.915   4.222 -0.4214 -1.0057  0.2595
53674SOL    HW265580   4.943   4.917   4.368 -0.3988  0.7532  0.2462
53675SOL     OW65581   3.528   4.332   6.015  0.4906 -0.0515  0.0978
53675SOL    HW165582   3.584   4.290   6.081  0.1493  0.1876  0.5458
53675SOL    HW265583   3.548   4.426   6.023  0.6546 -0.0458 -0.3388
53676SOL     OW65584   9.298   4.394   5.593  0.5428 -0.1546 -0.1326
53676SOL    HW165585   9.385   4.426   5.614 -0.4816  1.4066  2.1311
53676SOL    HW265586   9.257   4.466   5.545  0.2763 -0.6280 -0.6278
53677SOL     OW65587  10.204   6.058   6.529 -0.0641 -0.6008 -0.0379
53677SOL    HW165588  10.191   5.963   6.538 -1.7948 -0.2419  2.1209
53677SOL    HW265589  10.115   6.093   6.525  0.4968  1.0957  1.4606
53678SOL     OW65590   3.090   4.461   5.938 -0.2476 -0.1989  0.4233
53678SOL    HW165591   3.046   4.534   5.895 -0.7098 -0.8314 -0.2124
53678SOL    HW265592   3.044   4.383   5.906 -0.1578 -0.7358  1.5545
53679SOL     OW65593   2.720   9.210  10.305 -0.1068  0.1571 -0.0070
53679SOL    HW165594   2.717   9.133  10.248  0.1785 -1.1352  1.6399
53679SOL    HW265595   2.808   9.209  10.342 -0.9100 -0.2167  1.9757
53680SOL     OW65596   8.373   4.239   0.062  0.1965 -0.2067  0.2186
53680SOL    HW165597   8.447   4.297   0.082  0.0833 -0.2505  0.7885
53680SOL    HW265598   8.396   4.156   0.104  0.4004 -0.6151 -0.6713
53681SOL     OW65599   3.055  11.479  10.774 -0.6056  1.0871 -0.6674
53681SOL    HW165600   3.128  11.539  10.783 -0.1700  1.1197 -3.5749
53681SOL    HW265601   3.092  11.402  10.732 -1.5213 -0.5628  1.3648
53682SOL     OW65602   2.565   5.096   8.059 -0.1381 -0.2749 -0.0407
53682SOL    HW165603   2.605   5.130   7.979  0.1688 -1.3343 -0.3498
53682SOL    HW265604   2.509   5.168   8.090  0.9325  0.7273 -0.3482
53683SOL     OW65605  10.854   7.800   1.856  0.5010 -0.3100 -0.3951
53683SOL    HW165606  10.878   7.750   1.778  2.9094 -0.6682  0.5069
53683SOL    HW265607  10.866   7.891   1.830 -0.3520 -0.3426 -0.9352
53684SOL     OW65608  12.012   5.159   4.107  0.2049 -0.1021  0.4851
53684SOL    HW165609  11.969   5.143   4.023 -0.8859 -0.9529  1.1637
53684SOL    HW265610  12.086   5.215   4.087 -1.9543  2.6006 -0.5856
53685SOL     OW65611  12.001   1.430   1.350 -0.2547  0.2612 -0.1143
53685SOL    HW165612  11.922   1.407   1.399 -1.1053  0.0904 -1.4986
53685SOL    HW265613  12.054   1.351   1.350 -0.1692  0.3095  0.6352
53686SOL     OW65614   9.846  10.624  10.201  0.2472 -0.4142 -0.5422
53686SOL    HW165615   9.833  10.530  10.216 -0.3835  0.0291  2.1492
53686SOL    HW265616   9.859  10.661  10.288  0.4414  2.0258 -1.5296
53687SOL     OW65617   3.493  11.017   2.000  0.5385 -0.3872 -0.3050
53687SOL    HW165618   3.477  11.074   1.925  0.8162 -1.1059 -0.9246
53687SOL    HW265619   3.570  11.054   2.043  0.9765 -0.5388 -0.9517
53688SOL     OW65620   1.651  11.325   2.178  0.0366  0.0878  0.1874
53688SOL    HW165621   1.675  11.417   2.173  1.0325 -0.2053 -0.8079
53688SOL    HW265622   1.560  11.325   2.207 -0.4437  1.4367 -1.1963
53689SOL     OW65623   8.281   7.134  10.414  0.8728  0.0914 -0.5629
53689SOL    HW165624   8.256   7.168  10.328 -2.1631  0.0730  0.1917
53689SOL    HW265625   8.298   7.041  10.399  1.0966  0.2384 -1.2654
53690SOL     OW65626   9.564   9.331   6.639 -0.2924 -0.1840  0.1587
53690SOL    HW165627   9.650   9.316   6.678 -0.6460 -0.7856  0.7256
53690SOL    HW265628   9.545   9.250   6.591 -0.7755 -0.2634  0.4802
53691SOL     OW65629   2.222   8.083   7.954  0.2676 -0.0433  0.1702
53691SOL    HW165630   2.210   8.175   7.930 -0.0088 -0.0529  0.2624
53691SOL    HW265631   2.133   8.048   7.960  0.3334 -0.0754  1.0614
53692SOL     OW65632   1.814   4.577   4.369  0.3525  0.3059 -0.2554
53692SOL    HW165633   1.881   4.631   4.325  1.1328 -0.1279  0.3669
53692SOL    HW265634   1.748   4.640   4.398  0.0650  0.6628 -1.5948
53693SOL     OW65635  10.775   1.484   7.653  0.3340  0.2212  0.6769
53693SOL    HW165636  10.807   1.543   7.721  0.9210 -0.2259  0.8009
53693SOL    HW265637  10.721   1.539   7.596  0.3826  0.7399  1.1260
53694SOL     OW65638   9.178   0.918   6.057 -0.3921 -0.3119 -0.4365
53694SOL    HW165639   9.254   0.914   6.114  1.6761  3.0473 -2.5998
53694SOL    HW265640   9.113   0.968   6.106  0.2215  0.0150  0.0546
53695SOL     OW65641   8.211  11.905   9.779  0.3778  0.0694  0.0054
53695SOL    HW165642   8.222  11.824   9.730  0.9972 -0.1620  0.5062
53695SOL    HW265643   8.294  11.916   9.827 -0.1599  0.3430  0.9101
53696SOL     OW65644   6.517  11.156  11.305  0.0182 -0.2125 -0.0824
53696SOL    HW165645   6.560  11.227  11.258 -1.3400  0.4057 -0.4227
53696SOL    HW265646   6.425  11.180  11.307 -0.4523 -1.8663 -0.0307
53697SOL     OW65647  10.637  10.638   4.946 -0.0756 -0.2791 -0.0069
53697SOL    HW165648  10.616  10.697   4.874  0.6455 -0.3406 -0.2710
53697SOL    HW265649  10.580  10.562   4.932  0.6581 -0.6602 -0.9946
53698SOL     OW65650   0.860   4.948   8.557 -0.1639 -0.3764 -0.1631
53698SOL    HW165651   0.802   4.947   8.481  1.6389 -0.2812 -1.6224
53698SOL    HW265652   0.850   5.036   8.593  0.0835  0.1058 -1.2303
53699SOL     OW65653   9.115   6.949  10.022  0.0490  0.1909  0.9850
53699SOL    HW165654   9.162   6.923   9.943 -1.2430 -1.8886  0.8349
53699SOL    HW265655   9.149   6.892  10.091  1.1998  2.0085  2.0376
53700SOL     OW65656   8.434   9.785   2.270 -0.1373 -0.2045  0.1399
53700SOL    HW165657   8.381   9.770   2.193  0.6861 -0.8965 -0.3058
53700SOL    HW265658   8.457   9.878   2.266  1.1090 -0.5325 -1.2610
53701SOL     OW65659   3.321   9.112   9.191 -0.1945 -0.3632 -0.2920
53701SOL    HW165660   3.331   9.070   9.276 -1.2345 -0.0015  0.0177
53701SOL    HW265661   3.374   9.192   9.197  1.5003 -1.3973 -0.7608
53702SOL     OW65662   8.630   2.108   4.520 -0.0007 -0.3422 -0.0033
53702SOL    HW165663   8.564   2.041   4.507  0.0433 -0.3405 -0.2314
53702SOL    HW265664   8.670   2.087   4.605  0.1863 -0.7479 -0.1911
53703SOL     OW65665  12.027   6.733   5.175 -0.3250  0.1525 -0.1449
53703SOL    HW165666  12.106   6.734   5.122 -1.0624 -1.2977 -1.3601
53703SOL    HW265667  11.964   6.683   5.123 -0.9199 -1.8715  2.3416
53704SOL     OW65668   2.578  10.616  10.227 -0.1496  0.0367 -0.1189
53704SOL    HW165669   2.627  10.578  10.154 -0.4199  3.1541 -2.1327
53704SOL    HW265670   2.499  10.651  10.186 -1.4867 -0.1204  2.1434
53705SOL     OW65671   4.097  10.610   6.472 -0.0741 -0.4524  0.0560
53705SOL    HW165672   4.144  10.658   6.404 -1.9969  0.3621 -0.7609
53705SOL    HW265673   4.159  10.605   6.545  1.2049  0.7084 -0.9003
53706SOL     OW65674   5.591   9.339   6.320 -0.1971 -0.7279  0.3353
53706SOL    HW165675   5.634   9.323   6.404  1.1257 -0.2416 -0.2107
53706SOL    HW265676   5.508   9.381   6.343 -1.2393 -3.2318  1.5074
53707SOL     OW65677   9.889   2.786   5.934  0.0147  0.3522  0.0893
53707SOL    HW165678   9.838   2.848   5.882 -2.6236 -0.7827  1.1605
53707SOL    HW265679   9.870   2.810   6.025  2.1148  0.3810  0.5806
53708SOL     OW65680  10.128   1.253   2.321 -0.2779  0.2328  0.3651
53708SOL    HW165681  10.069   1.179   2.308 -0.4639  0.4510 -0.0361
53708SOL    HW265682  10.114   1.309   2.245 -0.4597  0.8986  0.8847
53709SOL     OW65683   6.038  11.603   3.524 -0.2045  0.2342  0.0765
53709SOL    HW165684   6.117  11.616   3.471 -0.5730  0.9996 -0.2992
53709SOL    HW265685   6.042  11.511   3.550 -0.0325 -0.1732 -1.3183
53710SOL     OW65686   7.579   4.225   0.891 -0.1263 -0.1452 -1.1036
53710SOL    HW165687   7.612   4.146   0.847 -0.9129 -0.6153 -0.8796
53710SOL    HW265688   7.484   4.212   0.895 -0.1182  0.0192  0.4501
53711SOL     OW65689   3.194   2.090   1.821 -0.0424  0.1238 -0.0037
53711SOL    HW165690   3.133   2.157   1.852  1.0281  1.3142 -0.3769
53711SOL    HW265691   3.149   2.051   1.746  0.1088  1.8178 -1.0401
53712SOL     OW65692  10.997   3.170  10.133  0.4509  0.4215  0.1680
53712SOL    HW165693  11.021   3.241  10.193  2.4094  0.7698 -0.9660
53712SOL    HW265694  10.951   3.106  10.189  0.8332  1.4411  1.7006
53713SOL     OW65695   6.182   0.327   5.362 -0.2995 -0.1559  0.2388
53713SOL    HW165696   6.213   0.276   5.437  1.1568  0.3715  0.0411
53713SOL    HW265697   6.237   0.406   5.363 -0.8562  0.2698 -0.8743
53714SOL     OW65698  11.485   7.514   8.050  0.1813  0.5138  0.7066
53714SOL    HW165699  11.572   7.545   8.073  0.5618  1.1137 -1.3110
53714SOL    HW265700  11.499   7.427   8.013 -0.1387  0.4068  0.8306
53715SOL     OW65701   0.663   5.939   1.802  0.0596  0.0968  0.3661
53715SOL    HW165702   0.752   5.971   1.821  0.2494 -0.2955  0.1422
53715SOL    HW265703   0.665   5.847   1.827 -0.7061  0.4286  1.7151
53716SOL     OW65704  10.645   8.468   6.445  0.5478  0.2546  0.3987
53716SOL    HW165705  10.560   8.469   6.488  1.3069  0.2770  1.9745
53716SOL    HW265706  10.705   8.506   6.510  2.1568 -1.8014  0.2374
53717SOL     OW65707   5.904  10.603   2.058 -0.6012  0.3200 -0.5911
53717SOL    HW165708   5.845  10.581   2.130 -0.0454  1.0085  0.0894
53717SOL    HW265709   5.969  10.532   2.057 -2.4491 -1.4892 -2.5637
53718SOL     OW65710   1.961   2.822   8.359  0.1425 -0.0799 -0.6368
53718SOL    HW165711   1.880   2.780   8.332  0.1555  0.9624 -2.5269
53718SOL    HW265712   1.944   2.916   8.350  0.7781  0.2742  1.3876
53719SOL     OW65713   1.458   0.829   8.643  0.5521 -0.0127 -0.0450
53719SOL    HW165714   1.398   0.838   8.718 -0.1366 -2.5386 -0.2128
53719SOL    HW265715   1.412   0.872   8.571  0.2814  0.6032  0.4736
53720SOL     OW65716   9.548   7.377   2.645 -0.2345  0.1997 -0.2330
53720SOL    HW165717   9.543   7.462   2.690  0.1299 -0.8939  1.9927
53720SOL    HW265718   9.622   7.386   2.585 -0.6702  1.6793 -0.5901
53721SOL     OW65719   8.522  11.066   8.942  0.3145  0.6308 -0.1859
53721SOL    HW165720   8.478  10.981   8.950  0.3858  0.6428  0.3873
53721SOL    HW265721   8.579  11.070   9.019  1.4206  0.5583 -0.9693
53722SOL     OW65722   2.878   8.614   5.697  0.2963  0.3872  0.6396
53722SOL    HW165723   2.867   8.627   5.792 -0.3468 -0.6157  0.7101
53722SOL    HW265724   2.968   8.581   5.689 -0.5912 -2.4646  1.2554
53723SOL     OW65725   8.117   7.446  11.602 -0.0874 -0.3058  0.3451
53723SOL    HW165726   8.080   7.533  11.593 -1.3015 -0.9962 -2.5045
53723SOL    HW265727   8.074   7.409  11.679  0.5354  1.5805  1.6733
53724SOL     OW65728   7.559   4.774   3.272 -0.3961 -0.2211 -0.3117
53724SOL    HW165729   7.565   4.686   3.309  0.8256 -0.0790 -0.1327
53724SOL    HW265730   7.502   4.764   3.196  1.0556 -1.5422 -1.2954
53725SOL     OW65731   3.171   1.189  10.155  0.2668  0.6051 -0.0911
53725SOL    HW165732   3.094   1.240  10.130 -0.6797 -0.6208  0.2279
53725SOL    HW265733   3.164   1.108  10.104  1.6382  0.6935 -0.4545
53726SOL     OW65734   7.565   9.033   7.419 -0.0782  0.3004  0.3289
53726SOL    HW165735   7.545   9.051   7.511 -1.1540  0.8796  0.0027
53726SOL    HW265736   7.511   9.095   7.370 -0.2590 -0.6493 -0.7160
53727SOL     OW65737   4.657   2.395   7.863 -0.5513 -0.5266 -0.0427
53727SOL    HW165738   4.654   2.323   7.926 -2.5158  0.5280  1.1670
53727SOL    HW265739   4.575   2.442   7.876  0.6541  1.9706 -0.7468
53728SOL     OW65740   4.143   8.032   5.046 -0.2001  0.0864 -0.4645
53728SOL    HW165741   4.129   8.100   5.112 -0.2436  0.6057 -1.0007
53728SOL    HW265742   4.088   7.959   5.076 -0.3076  0.3524  0.0105
53729SOL     OW65743   4.633   1.328   7.066 -0.3895 -0.1565  0.1214
53729SOL    HW165744   4.728   1.321   7.077 -0.2220 -0.3742 -1.2862
53729SOL    HW265745   4.599   1.249   7.108 -0.2683  1.3389  3.4027
53730SOL     OW65746   5.173   1.176   1.299 -0.6304 -0.2301 -0.4925
53730SOL    HW165747   5.235   1.206   1.233 -0.9397  0.0399 -0.6635
53730SOL    HW265748   5.118   1.253   1.316 -0.6389 -0.3395 -0.0245
53731SOL     OW65749   8.523  11.410   6.797  0.3997  0.0354  0.1038
53731SOL    HW165750   8.487  11.340   6.852  0.6594  0.9792  1.5288
53731SOL    HW265751   8.520  11.374   6.708 -2.1884 -0.7093  0.3861
53732SOL     OW65752   5.455  11.323   2.937 -0.8475  0.6346 -0.0103
53732SOL    HW165753   5.413  11.266   3.001 -0.6045 -0.0222 -0.4358
53732SOL    HW265754   5.472  11.267   2.861  2.2083  0.4445  0.7028
53733SOL     OW65755   0.139   6.637  10.169  0.2550 -0.3908  0.1780
53733SOL    HW165756   0.220   6.685  10.155 -1.2174  2.7902  1.4099
53733SOL    HW265757   0.125   6.641  10.264 -1.6690 -0.1259 -0.0590
53734SOL     OW65758   6.752   8.343   7.315 -0.2794  0.2133 -0.0789
53734SOL    HW165759   6.703   8.386   7.245  0.6358  0.8490 -0.3477
53734SOL    HW265760   6.801   8.274   7.270  1.1486  1.3157 -0.2662
53735SOL     OW65761   2.250   0.869   3.383 -0.3573 -0.1547 -0.2202
53735SOL    HW165762   2.193   0.943   3.403 -0.2803  0.2343 -1.3577
53735SOL    HW265763   2.257   0.820   3.466 -0.2153  1.2322  0.6124
53736SOL     OW65764   8.445   5.145  10.870 -0.4177 -0.3001  0.2088
53736SOL    HW165765   8.539   5.136  10.856 -0.0283  1.4131  1.3889
53736SOL    HW265766   8.431   5.239  10.880 -2.0320 -0.6277  1.4786
53737SOL     OW65767   8.299   3.535   8.080  0.2492 -0.7988 -0.0173
53737SOL    HW165768   8.321   3.522   7.988  1.0381 -0.8889  0.1812
53737SOL    HW265769   8.203   3.534   8.082  0.2220 -0.3508 -0.8978
53738SOL     OW65770   2.450   8.431   1.918 -0.2278 -0.4315 -0.4005
53738SOL    HW165771   2.523   8.372   1.937  1.2964  0.8681 -1.9222
53738SOL    HW265772   2.390   8.379   1.865 -0.6359 -1.6156  1.1357
53739SOL     OW65773   4.734   3.082   3.389  0.0102  0.3745 -0.4330
53739SOL    HW165774   4.718   3.058   3.480 -0.6121  0.0424 -0.6250
53739SOL    HW265775   4.658   3.133   3.363 -0.7431 -1.1371 -1.3232
53740SOL     OW65776  10.107   9.573   6.454 -0.9780 -0.1022  0.3363
53740SOL    HW165777  10.113   9.660   6.493 -1.6012 -0.9643  2.5425
53740SOL    HW265778  10.198   9.542   6.452 -0.5383  1.1330 -1.9581
53741SOL     OW65779   3.817   0.150   2.298  0.0741  0.0482  0.3851
53741SOL    HW165780   3.729   0.175   2.324 -0.7781 -1.4916 -0.8582
53741SOL    HW265781   3.814   0.145   2.202  1.6762  0.5252  0.2735
53742SOL     OW65782   5.900   8.661   6.153  0.2447 -0.3970  0.3366
53742SOL    HW165783   5.870   8.578   6.114  0.0610 -1.4676  2.6313
53742SOL    HW265784   5.833   8.724   6.125 -1.3529 -1.6779  1.0637
53743SOL     OW65785   9.678  11.004   1.182  0.6667  0.2219 -0.9722
53743SOL    HW165786   9.746  11.039   1.239 -0.6704 -1.4215  1.8091
53743SOL    HW265787   9.726  10.964   1.109  2.8958 -2.2084  1.6047
53744SOL     OW65788  10.041   8.295   3.150 -0.6221  0.1011 -0.4985
53744SOL    HW165789   9.987   8.344   3.211  0.2810  0.8846 -0.3067
53744SOL    HW265790  10.009   8.320   3.063 -0.3825  0.7803 -0.3915
53745SOL     OW65791   6.909   3.004  11.064 -0.6334 -0.0095 -0.1838
53745SOL    HW165792   6.983   3.065  11.064 -0.8946  0.3327 -1.2920
53745SOL    HW265793   6.920   2.952  10.985 -0.7054 -1.0664  0.4785
53746SOL     OW65794   7.456   6.427   3.876 -0.5109  0.0310 -0.0399
53746SOL    HW165795   7.389   6.490   3.848 -2.1074 -1.4111  0.3683
53746SOL    HW265796   7.417   6.381   3.949  0.5551 -1.5252 -0.3930
53747SOL     OW65797   6.338   6.179   4.266 -0.3989 -0.2690  0.0183
53747SOL    HW165798   6.375   6.221   4.344  0.6039 -0.6202 -0.2527
53747SOL    HW265799   6.387   6.217   4.193  0.2442 -1.5694 -0.2655
53748SOL     OW65800   1.814   6.160   7.956 -0.4349  0.2172  0.0593
53748SOL    HW165801   1.764   6.140   7.877  0.1508 -1.1675  0.0149
53748SOL    HW265802   1.762   6.226   8.001 -2.3317 -1.2065  0.0665
53749SOL     OW65803   1.960   2.122   3.089  0.3309  0.2377 -0.2621
53749SOL    HW165804   1.879   2.105   3.040  0.4594 -1.1990 -0.0196
53749SOL    HW265805   2.019   2.162   3.024  0.3738 -1.2990 -1.2200
53750SOL     OW65806   8.943  10.094   9.227  0.0822  0.4933 -0.4630
53750SOL    HW165807   8.857  10.057   9.248 -0.3859  2.1318  0.6604
53750SOL    HW265808   8.991  10.021   9.188 -1.3456 -0.8422  0.1584
53751SOL     OW65809   2.623   4.170   3.422  0.0821  1.1000  0.3179
53751SOL    HW165810   2.713   4.176   3.391  0.3093  1.2934  1.0114
53751SOL    HW265811   2.580   4.248   3.385  0.6118  1.8915  1.3249
53752SOL     OW65812   3.098   5.465   8.722  0.3584 -0.3922  0.1876
53752SOL    HW165813   3.079   5.534   8.658  1.2840  2.0069  2.3342
53752SOL    HW265814   3.012   5.440   8.756 -0.0194 -0.6115 -0.8939
53753SOL     OW65815   4.481   5.322   4.349  0.3721 -0.5827  1.0323
53753SOL    HW165816   4.393   5.320   4.313 -0.0386  0.5341  1.8907
53753SOL    HW265817   4.528   5.252   4.303 -0.1698  0.5610 -1.4624
53754SOL     OW65818   4.374   0.187   8.089  0.5204 -0.3490 -0.4005
53754SOL    HW165819   4.400   0.100   8.119 -0.9503 -0.7715 -0.2380
53754SOL    HW265820   4.278   0.185   8.091  0.4543  1.4019 -0.0639
53755SOL     OW65821  12.020  10.947   9.094 -0.7002  0.0192 -0.3870
53755SOL    HW165822  11.978  11.023   9.053 -0.9674  0.0024 -0.1455
53755SOL    HW265823  12.103  10.981   9.128 -1.4273  0.5305  0.9355
53756SOL     OW65824   6.897   6.968   3.104 -0.0195 -0.0551  0.3285
53756SOL    HW165825   6.966   6.970   3.038 -1.4732 -0.4783 -1.2945
53756SOL    HW265826   6.891   6.876   3.130  0.1372  0.0071  0.5822
53757SOL     OW65827   5.633   6.005   3.346 -0.4892  0.0416  0.2680
53757SOL    HW165828   5.648   5.912   3.365 -2.1050 -0.4273 -0.5346
53757SOL    HW265829   5.659   6.015   3.254  0.3714  0.5701  0.5607
53758SOL     OW65830   2.718   9.645   9.802 -0.1265 -0.1372  0.5079
53758SOL    HW165831   2.674   9.613   9.881 -1.6637  1.1329  0.2156
53758SOL    HW265832   2.781   9.710   9.835 -1.0730  0.7143  0.6856
53759SOL     OW65833   3.096   0.329   5.060  0.6622  0.0640 -0.0621
53759SOL    HW165834   3.006   0.361   5.060  0.6385 -0.0038  0.0558
53759SOL    HW265835   3.091   0.242   5.099  0.7358 -0.0644 -0.3328
53760SOL     OW65836  11.299  10.501  11.415  0.3914 -0.3596  0.3087
53760SOL    HW165837  11.292  10.412  11.379  0.1599  0.0249 -0.6384
53760SOL    HW265838  11.339  10.551  11.344 -0.6534  0.5672  0.3518
53761SOL     OW65839   5.327   0.145   9.443  0.2800 -0.7414 -0.2919
53761SOL    HW165840   5.290   0.087   9.510  0.8895 -1.1698 -0.3231
53761SOL    HW265841   5.287   0.115   9.361 -0.4949 -0.1930 -0.1289
53762SOL     OW65842   1.256   6.594   2.974 -0.3606 -0.2744 -0.0808
53762SOL    HW165843   1.294   6.625   3.057  0.1009  0.1703 -0.4490
53762SOL    HW265844   1.167   6.628   2.975 -0.1435  0.3233 -0.0706
53763SOL     OW65845   2.827  10.786   0.045  0.2390 -0.1962  0.3603
53763SOL    HW165846   2.765  10.795  -0.028  0.8551 -0.6662 -0.2384
53763SOL    HW265847   2.785  10.727   0.106 -0.1709 -0.0115  0.2593
53764SOL     OW65848  11.928   3.902   2.061 -0.1329  0.3567  0.2859
53764SOL    HW165849  11.907   3.969   2.126 -1.0776 -0.3623  0.7565
53764SOL    HW265850  12.014   3.926   2.028  0.2708  0.8638  1.6500
53765SOL     OW65851  10.128   7.637   7.454  0.0076  0.5033 -0.5075
53765SOL    HW165852  10.049   7.680   7.484 -0.1305 -0.2800  0.3090
53765SOL    HW265853  10.106   7.544   7.453 -0.0371  0.4763 -3.2364
53766SOL     OW65854   8.041   1.051   0.425  0.2306 -0.0759  0.1738
53766SOL    HW165855   8.020   0.961   0.453  1.8264 -0.2738  0.8792
53766SOL    HW265856   8.049   1.100   0.507  1.3464  0.2159 -0.0922
53767SOL     OW65857  11.762   2.016  10.451 -0.4386 -0.0813  0.8395
53767SOL    HW165858  11.777   2.110  10.441  0.5370 -0.2728  0.3110
53767SOL    HW265859  11.822   1.976  10.388 -1.8241 -1.0223  0.0720
53768SOL     OW65860   7.320  10.949   7.476  0.4159  0.0891 -0.3156
53768SOL    HW165861   7.360  10.890   7.412 -0.1050 -1.6075  0.8446
53768SOL    HW265862   7.385  10.959   7.544  0.2649  0.3508 -0.2081
53769SOL     OW65863   3.873   2.132   2.047 -0.3292 -0.1244  0.3078
53769SOL    HW165864   3.851   2.057   2.103 -1.2788  0.5708  0.8948
53769SOL    HW265865   3.788   2.166   2.018  0.1287 -0.6851 -1.8925
53770SOL     OW65866   3.673   9.472   9.729 -0.0674 -0.5202 -0.2578
53770SOL    HW165867   3.767   9.474   9.742  0.1071 -1.1641 -1.2698
53770SOL    HW265868   3.660   9.508   9.641 -0.9037  0.8876  0.3980
53771SOL     OW65869   1.514   2.360   6.261  0.0667  0.5044 -0.0292
53771SOL    HW165870   1.481   2.274   6.234  1.5981  0.2209 -1.1348
53771SOL    HW265871   1.531   2.350   6.354 -1.7410  0.2888  0.3100
53772SOL     OW65872   1.204   1.017  10.230 -0.0773  0.1201 -0.0716
53772SOL    HW165873   1.143   1.089  10.242  1.0179  1.1261 -0.3770
53772SOL    HW265874   1.218   1.012  10.135  1.4619  0.9119  0.0844
53773SOL     OW65875   7.787   5.174   3.437  0.0165  1.0378  0.3975
53773SOL    HW165876   7.874   5.214   3.440 -0.0281  1.0795  1.7031
53773SOL    HW265877   7.782   5.132   3.351  0.9745  1.8023 -0.0431
53774SOL     OW65878   0.187   9.081   4.879 -0.5617  0.4905 -0.1004
53774SOL    HW165879   0.275   9.072   4.843 -0.9813  0.1439 -1.0800
53774SOL    HW265880   0.189   9.164   4.928  0.5513  0.0262  0.6718
53775SOL     OW65881   2.735  11.966  10.985  0.4511  0.5234  0.3906
53775SOL    HW165882   2.679  12.043  10.995  0.6910  0.5108  2.1292
53775SOL    HW265883   2.819  12.002  10.956  0.7393  1.0038  1.7626
53776SOL     OW65884   2.012  10.187   4.082 -0.5865  0.0269 -0.0756
53776SOL    HW165885   2.022  10.179   3.987 -0.7820  0.7152 -0.1546
53776SOL    HW265886   2.070  10.258   4.107 -1.8790  1.0727  0.0672
53777SOL     OW65887   6.242   8.610  10.110 -0.2351 -0.2792  0.5372
53777SOL    HW165888   6.208   8.531  10.069 -1.6938  0.2471  0.6754
53777SOL    HW265889   6.242   8.675  10.040  0.6869 -0.3082  0.4974
53778SOL     OW65890   8.423   9.614   9.157 -0.2137 -0.5357 -0.6168
53778SOL    HW165891   8.339   9.660   9.152  0.2044  0.4398  0.7008
53778SOL    HW265892   8.421   9.571   9.243 -0.2635 -2.3952 -1.4907
53779SOL     OW65893   6.428   8.128   0.275 -0.1011 -0.2737  0.2807
53779SOL    HW165894   6.466   8.044   0.303 -0.3794 -0.1303  1.1388
53779SOL    HW265895   6.498   8.172   0.227  1.3372  0.5243  2.8991
53780SOL     OW65896   5.923   2.438   0.323 -0.5446 -0.1228  0.3364
53780SOL    HW165897   5.833   2.462   0.302 -0.2354  0.6018 -0.1702
53780SOL    HW265898   5.953   2.507   0.383  0.6288  1.3026 -1.7931
53781SOL     OW65899   9.001   6.289   0.912  0.0550 -0.4621  0.2421
53781SOL    HW165900   9.037   6.230   0.978  0.9214  1.7903  1.9063
53781SOL    HW265901   9.049   6.370   0.924 -4.4337  2.3420  1.6041
53782SOL     OW65902   1.684   7.782   2.330  0.0487  0.4920  0.4882
53782SOL    HW165903   1.728   7.853   2.285  0.4041  1.0952  1.7548
53782SOL    HW265904   1.591   7.798   2.315  0.1784  0.0126 -0.9931
53783SOL     OW65905   8.311  11.608  11.892 -0.4542 -0.4105  0.2086
53783SOL    HW165906   8.380  11.638  11.950 -1.0451  0.5474  0.4314
53783SOL    HW265907   8.354  11.601  11.806 -0.4733  1.9311 -0.0448
53784SOL     OW65908   3.817   5.684   3.418  0.8516  0.3755 -0.2619
53784SOL    HW165909   3.897   5.689   3.365  1.3427 -0.6312  0.3365
53784SOL    HW265910   3.748   5.716   3.361  1.0940 -2.0953 -2.0898
53785SOL     OW65911   4.644   3.228   9.682  0.0032  0.2925  0.2733
53785SOL    HW165912   4.678   3.229   9.772  0.5205  0.6980  0.0774
53785SOL    HW265913   4.579   3.298   9.680 -0.4047 -0.0765  0.4789
53786SOL     OW65914  11.546   0.206   0.881  0.1222 -0.4224  0.2082
53786SOL    HW165915  11.611   0.141   0.855  1.7909  1.7899 -1.5389
53786SOL    HW265916  11.499   0.227   0.800 -2.9760 -2.0064  1.4137
53787SOL     OW65917  12.025   6.519   9.342 -0.3430 -0.5149  0.4307
53787SOL    HW165918  11.976   6.442   9.310 -0.3454 -0.6500  0.7593
53787SOL    HW265919  12.051   6.565   9.262  1.7805 -2.1580  0.0658
53788SOL     OW65920   2.812   2.108   3.293  0.1140  0.5169 -0.8869
53788SOL    HW165921   2.771   2.124   3.208  0.2352  0.0359 -1.0450
53788SOL    HW265922   2.784   2.020   3.317 -0.2627  0.8145 -0.2200
53789SOL     OW65923   8.302   3.448   4.800  0.0513 -0.1021  0.0228
53789SOL    HW165924   8.382   3.449   4.747  0.6183  0.3460  0.8733
53789SOL    HW265925   8.282   3.540   4.815 -0.9513 -0.2001 -0.6494
53790SOL     OW65926   3.227   7.385   4.812  0.4716  0.3578 -0.0382
53790SOL    HW165927   3.259   7.470   4.844  1.1185  0.6933 -1.4821
53790SOL    HW265928   3.304   7.344   4.773 -0.0562 -0.4858 -0.2165
53791SOL     OW65929   8.384   9.760   0.589 -0.3323 -0.4761  0.1125
53791SOL    HW165930   8.320   9.801   0.647  0.5854 -0.0936  0.8729
53791SOL    HW265931   8.351   9.777   0.500 -0.9015  0.3372  0.4736
53792SOL     OW65932   3.755  10.206   3.122  0.0819  0.4303 -0.1581
53792SOL    HW165933   3.698  10.145   3.075  0.6994 -0.1810 -0.1168
53792SOL    HW265934   3.695  10.273   3.154 -0.6930 -0.4427  0.2757
53793SOL     OW65935   6.575   2.374   1.510 -0.5987  0.1237  0.1031
53793SOL    HW165936   6.496   2.330   1.479 -0.0798  1.1788 -3.1543
53793SOL    HW265937   6.553   2.467   1.507 -0.2862  0.3292  2.5853
53794SOL     OW65938   9.826   2.693   9.347 -0.1953  0.3846  0.7283
53794SOL    HW165939   9.794   2.766   9.400  1.3950  2.0783 -0.5182
53794SOL    HW265940   9.921   2.697   9.355 -0.0359 -1.0446 -0.0565
53795SOL     OW65941   0.755   4.984  10.564 -0.1217  0.0635  0.4104
53795SOL    HW165942   0.790   5.059  10.515 -0.5910  0.8124  1.1783
53795SOL    HW265943   0.830   4.927  10.579  0.0801 -0.0385 -0.9224
53796SOL     OW65944  11.125  10.829  10.447  0.0598  0.2589  0.5218
53796SOL    HW165945  11.067  10.881  10.391 -0.4158  0.2263  0.9849
53796SOL    HW265946  11.163  10.892  10.508  1.2888  0.4564 -0.4017
53797SOL     OW65947   5.694   2.887   8.145  0.3520  0.0506 -0.1714
53797SOL    HW165948   5.715   2.980   8.136 -1.0415  0.3488 -0.6559
53797SOL    HW265949   5.761   2.842   8.093  0.9833  0.7860 -0.0053
53798SOL     OW65950   7.191   8.741   7.974  0.9140 -0.4192 -0.4786
53798SOL    HW165951   7.169   8.750   8.066  0.4162  1.3294 -0.7190
53798SOL    HW265952   7.133   8.673   7.941  1.4724 -1.4325  0.5991
53799SOL     OW65953   3.920   2.588   0.850 -0.1046  0.0119 -0.2522
53799SOL    HW165954   3.849   2.641   0.886  0.2720 -0.7533  1.7046
53799SOL    HW265955   3.978   2.651   0.808 -1.6013  0.7115 -1.3918
53800SOL     OW65956  11.347   6.665  10.758  0.8956 -0.2934  0.4652
53800SOL    HW165957  11.416   6.599  10.772 -0.6247 -2.3359 -1.0669
53800SOL    HW265958  11.291   6.659  10.835  2.0226  0.9549  1.4344
53801SOL     OW65959   8.407  12.050   5.896  0.0331 -0.0485  0.3771
53801SOL    HW165960   8.322  12.013   5.921 -0.4259 -0.5396 -1.6534
53801SOL    HW265961   8.386  12.140   5.871 -0.3090 -0.6484 -1.7829
53802SOL     OW65962   4.379   8.999   5.624 -0.5807  0.3728 -0.3939
53802SOL    HW165963   4.380   9.094   5.628  1.1594  0.3612  2.4637
53802SOL    HW265964   4.462   8.975   5.583  0.6590  0.1978  1.9825
53803SOL     OW65965   5.394   6.319   9.081  0.2217  0.0617 -0.1910
53803SOL    HW165966   5.485   6.340   9.101  0.1781  0.9350 -0.8735
53803SOL    HW265967   5.380   6.233   9.120  1.4866 -0.3096 -0.5379
53804SOL     OW65968   2.153   9.131   2.667  0.2529 -0.8014 -0.1354
53804SOL    HW165969   2.200   9.141   2.750  0.0204 -0.0279 -0.0853
53804SOL    HW265970   2.175   9.043   2.637  0.3725 -1.0803  0.7282
53805SOL     OW65971   8.404   9.267   7.547 -0.5370 -0.3135  0.2400
53805SOL    HW165972   8.384   9.326   7.619 -0.1402  2.0677 -1.4963
53805SOL    HW265973   8.343   9.292   7.477  1.5902  0.1268 -1.5735
53806SOL     OW65974   7.036   0.746   8.168 -0.3754  0.5319 -0.1903
53806SOL    HW165975   7.107   0.810   8.178 -0.2398  0.1712  1.4390
53806SOL    HW265976   6.987   0.776   8.092  1.4473  0.8658 -1.2831
53807SOL     OW65977   3.493   1.578   2.181  0.0913 -0.2792  0.2635
53807SOL    HW165978   3.404   1.555   2.153  0.9602 -1.2902 -1.8742
53807SOL    HW265979   3.541   1.496   2.183  1.5581  0.4973 -0.8669
53808SOL     OW65980  10.554   3.566   9.191 -0.0630 -0.4867  0.1042
53808SOL    HW165981  10.458   3.558   9.186  0.0006 -0.7560 -0.9324
53808SOL    HW265982  10.577   3.622   9.117  0.6495 -1.0706 -0.1230
53809SOL     OW65983   7.023   0.199   4.174 -0.1394  0.4408  0.3985
53809SOL    HW165984   6.997   0.291   4.175 -1.0878  0.1967 -0.4281
53809SOL    HW265985   6.945   0.152   4.144  0.6752 -0.5094 -0.3116
53810SOL     OW65986  12.016  10.643   3.597 -0.4543  0.5878 -0.0207
53810SOL    HW165987  11.981  10.680   3.517  1.2245 -0.5415 -1.3663
53810SOL    HW265988  12.010  10.548   3.584 -0.7199  0.3735  1.4691
53811SOL     OW65989   5.127  11.650  11.347 -0.4029 -0.0073 -0.3024
53811SOL    HW165990   5.207  11.597  11.352 -0.6609 -0.3773 -0.0064
53811SOL    HW265991   5.072  11.605  11.282 -1.3733 -1.1544  1.2518
53812SOL     OW65992   3.026   2.907   9.293 -0.0949  0.0932 -0.5596
53812SOL    HW165993   2.954   2.938   9.349  0.0050  0.4463 -0.6300
53812SOL    HW265994   3.085   2.862   9.353  0.3435  1.0363 -0.2696
53813SOL     OW65995  11.472   9.232   0.339  0.6007 -0.7034  0.2174
53813SOL    HW165996  11.442   9.277   0.260 -0.8087  1.8930  2.0753
53813SOL    HW265997  11.560   9.264   0.354  0.4587 -0.3324  0.2706
53814SOL     OW65998   3.283   0.908   2.336 -0.3221 -0.8245  0.5736
53814SOL    HW165999   3.267   0.992   2.291  2.0964 -0.5648  0.0536
53814SOL    HW266000   3.375   0.913   2.363 -0.3571 -3.0073  1.2386
53815SOL     OW66001   7.782   6.833  11.966 -0.0145 -0.1633 -0.1755
53815SOL    HW166002   7.869   6.814  12.000 -0.4747 -1.4883  0.3499
53815SOL    HW266003   7.773   6.776  11.889  0.0332  0.8649 -0.9535
53816SOL     OW66004   6.963   8.052  10.503  0.0626 -0.1035  0.7341
53816SOL    HW166005   7.056   8.034  10.492  0.0508  0.0824  0.3423
53816SOL    HW266006   6.951   8.142  10.473 -0.6251 -0.8254 -1.2789
53817SOL     OW66007   6.726   6.179   8.750  0.2036  0.2337 -0.0604
53817SOL    HW166008   6.661   6.111   8.765  0.4010 -0.2082 -1.0780
53817SOL    HW266009   6.782   6.177   8.828  0.4567 -1.0694 -0.2468
53818SOL     OW66010   7.611   9.291   2.248  0.1446 -0.5493  0.0744
53818SOL    HW166011   7.591   9.316   2.158  0.0698 -0.3128  0.1569
53818SOL    HW266012   7.692   9.240   2.241  0.9736  0.7250  0.0386
53819SOL     OW66013   1.142  11.658   8.717 -0.5614  0.5052 -0.3418
53819SOL    HW166014   1.155  11.694   8.630 -0.6450  2.3647  0.3631
53819SOL    HW266015   1.227  11.619   8.740 -0.0956  1.2942 -0.6878
53820SOL     OW66016  11.167   3.856   5.700 -0.2878  0.3753 -0.2746
53820SOL    HW166017  11.183   3.940   5.742 -2.3438  0.2982  0.8105
53820SOL    HW266018  11.103   3.813   5.757  1.6403 -2.4989 -0.0948
53821SOL     OW66019   1.944  11.202   0.647 -0.0607 -0.1830  0.3784
53821SOL    HW166020   1.919  11.288   0.682 -0.8594 -0.5217  0.6650
53821SOL    HW266021   1.866  11.172   0.600 -0.1980 -1.2478  1.2563
53822SOL     OW66022   3.157   3.475  10.414  0.4835 -0.2623  0.1756
53822SOL    HW166023   3.245   3.492  10.379  0.3591 -1.3050 -0.6655
53822SOL    HW266024   3.172   3.417  10.489  0.4907 -0.7362 -0.1889
53823SOL     OW66025   8.483   3.445  10.428  0.2772  0.3079  0.3674
53823SOL    HW166026   8.411   3.395  10.467 -1.1143  1.1674 -0.9952
53823SOL    HW266027   8.536   3.379  10.383 -0.5137 -0.1744  0.1203
53824SOL     OW66028   8.810   5.325  11.882 -0.6767 -0.0059 -0.8754
53824SOL    HW166029   8.722   5.291  11.866 -1.1602  1.7621 -2.3100
53824SOL    HW266030   8.797   5.406  11.931  0.1108  0.5150 -1.4988
53825SOL     OW66031   6.909   0.193   0.580  0.0741  0.3632  0.6901
53825SOL    HW166032   6.925   0.105   0.545  0.8071 -0.5607  3.1227
53825SOL    HW266033   6.888   0.246   0.503 -0.6020 -1.9607 -0.8393
53826SOL     OW66034  10.712   1.792   8.720  0.6075 -0.2841 -0.3301
53826SOL    HW166035  10.754   1.873   8.690  0.0695 -0.0934 -0.5714
53826SOL    HW266036  10.620   1.802   8.697 -0.2951  0.7740  3.1120
53827SOL     OW66037   2.263   2.024  10.229  0.0085  0.2088  0.3966
53827SOL    HW166038   2.271   1.949  10.288  1.8268  0.6432  0.7512
53827SOL    HW266039   2.247   2.098  10.287  0.0881  0.3776  0.2031
53828SOL     OW66040   9.790   5.266   4.308  0.7207  0.0776  0.3783
53828SOL    HW166041   9.739   5.296   4.382  0.4654  0.3221  0.1035
53828SOL    HW266042   9.871   5.317   4.312  1.4713 -1.1339  1.4983
53829SOL     OW66043   8.267   5.708   5.753 -0.4932 -0.3628  0.0030
53829SOL    HW166044   8.327   5.699   5.827 -1.5215 -1.3706  0.7459
53829SOL    HW266045   8.313   5.667   5.680 -0.4470 -1.5652  0.6762
53830SOL     OW66046   1.534   8.581   4.823 -0.3457  0.2810  0.3765
53830SOL    HW166047   1.499   8.493   4.806 -0.9234  0.4574  0.6309
53830SOL    HW266048   1.621   8.565   4.861  0.2476 -0.1462 -1.0907
53831SOL     OW66049   1.463   6.113   6.005 -0.3591  0.1257 -0.1818
53831SOL    HW166050   1.488   6.079   6.091 -0.1003 -1.5595 -0.8882
53831SOL    HW266051   1.450   6.207   6.020  1.5558  0.2322  1.2951
53832SOL     OW66052  11.164  10.902   8.914 -0.2443  0.3723  0.1264
53832SOL    HW166053  11.183  10.857   8.831  0.6006 -0.5144  0.7779
53832SOL    HW266054  11.221  10.980   8.912 -0.1610  0.3063 -0.0854
53833SOL     OW66055   1.201   9.616   0.324  0.1687 -0.0032  0.2264
53833SOL    HW166056   1.152   9.679   0.270  1.1768 -0.1031 -0.8529
53833SOL    HW266057   1.232   9.551   0.261  2.4951  0.5732  0.6940
53834SOL     OW66058  10.820  10.314   2.605  0.0328 -0.3303  0.2883
53834SOL    HW166059  10.844  10.322   2.512 -0.0570 -1.3616  0.1565
53834SOL    HW266060  10.735  10.357   2.612  0.8114  1.2606  0.2574
53835SOL     OW66061   4.919   1.003   1.264  0.0779 -0.1673 -0.1027
53835SOL    HW166062   4.989   1.033   1.206  0.6617 -2.8060 -0.8781
53835SOL    HW266063   4.964   0.953   1.331 -0.7477  1.6198  1.9005
53836SOL     OW66064   1.086   4.894   4.298 -0.1621 -0.3969  0.0666
53836SOL    HW166065   1.097   4.944   4.379 -1.1181 -0.5784  0.3249
53836SOL    HW266066   1.024   4.825   4.321  1.3498 -1.9195 -0.1953
53837SOL     OW66067  11.686   6.586   8.535 -0.1009  0.4459  0.0203
53837SOL    HW166068  11.732   6.530   8.472  1.4643  1.7102 -0.0164
53837SOL    HW266069  11.596   6.591   8.501 -0.8263 -3.3572  0.9284
53838SOL     OW66070   1.882   7.967   2.286  0.3577 -0.0401 -0.0530
53838SOL    HW166071   1.845   8.042   2.241  0.2576  0.8576  1.4588
53838SOL    HW266072   1.951   7.936   2.227 -0.8609  0.0128 -1.5803
53839SOL     OW66073  10.006   1.709   7.872 -0.5085  0.1443  0.0487
53839SOL    HW166074  10.028   1.795   7.838 -3.0292  1.5994  1.8123
53839SOL    HW266075  10.046   1.707   7.959 -1.8795  0.2988  0.7157
53840SOL     OW66076   7.291   0.800   6.700  0.1701 -0.2513 -0.2312
53840SOL    HW166077   7.327   0.827   6.784  0.2108 -1.4999  0.1659
53840SOL    HW266078   7.367   0.773   6.648  0.1938  0.9409 -0.8477
53841SOL     OW66079   9.777   7.190   1.829  0.3608 -0.1524  0.3155
53841SOL    HW166080   9.760   7.220   1.740 -1.8614 -3.2474 -0.4731
53841SOL    HW266081   9.788   7.096   1.821  1.5960 -0.3622  3.1748
53842SOL     OW66082  10.767   3.689   4.417 -0.4902  0.1640  0.3290
53842SOL    HW166083  10.813   3.723   4.341  0.0835 -1.2090  0.0435
53842SOL    HW266084  10.774   3.594   4.410 -0.6604 -0.0043  1.9487
53843SOL     OW66085   7.260   0.221   3.107 -0.3536  0.5153 -0.8051
53843SOL    HW166086   7.207   0.293   3.143 -1.0307 -0.2195 -0.2993
53843SOL    HW266087   7.263   0.156   3.177  0.5444  0.1946 -1.1334
53844SOL     OW66088   3.629  11.840   6.514  0.0974  0.8508  0.2817
53844SOL    HW166089   3.659  11.778   6.447  1.3712  0.3748  1.2518
53844SOL    HW266090   3.570  11.790   6.570 -1.6419  1.4687 -0.9193
53845SOL     OW66091   7.815   1.326   8.498  0.0697 -0.1263  0.4822
53845SOL    HW166092   7.808   1.249   8.441  0.7527  1.0506 -1.3052
53845SOL    HW266093   7.901   1.318   8.539  0.3751 -0.0811 -0.1268
53846SOL     OW66094   0.207   5.529   2.548  0.8920  0.0999 -0.1559
53846SOL    HW166095   0.301   5.519   2.534  1.1641  1.1321  0.7738
53846SOL    HW266096   0.200   5.579   2.630 -0.5178 -2.1770  1.2303
53847SOL     OW66097   3.864   8.345   6.855 -0.4089  0.2277  0.1478
53847SOL    HW166098   3.897   8.257   6.836  0.3871  0.4556  0.4188
53847SOL    HW266099   3.881   8.395   6.776  0.4470  0.4920  0.4880
53848SOL     OW66100   9.674   4.765  10.979 -0.3469  0.2137  0.1557
53848SOL    HW166101   9.677   4.857  10.953  0.0334  0.1925  0.1192
53848SOL    HW266102   9.693   4.766  11.073  0.1848  0.1316  0.0539
53849SOL     OW66103  10.089   0.811   3.707 -0.6489  0.1586 -0.0764
53849SOL    HW166104  10.018   0.747   3.714 -0.0271 -0.6587 -0.9565
53849SOL    HW266105  10.163   0.768   3.750 -0.7426  1.1178  1.0781
53850SOL     OW66106  11.331   7.825   8.597  0.7284  0.2551  0.1654
53850SOL    HW166107  11.349   7.791   8.510 -1.2494 -1.1842  0.2311
53850SOL    HW266108  11.241   7.797   8.615  0.4072  2.1662  1.8981
53851SOL     OW66109   9.175   3.413   3.483  0.1381  0.3029 -0.4777
53851SOL    HW166110   9.084   3.436   3.465  0.0207  1.2215  1.0852
53851SOL    HW266111   9.196   3.460   3.564  1.9157 -0.1242 -0.6495
53852SOL     OW66112  11.517   3.171   6.855 -0.2866 -0.0597  0.2381
53852SOL    HW166113  11.450   3.157   6.787  0.8893 -3.1798 -0.4259
53852SOL    HW266114  11.600   3.172   6.807  0.4142 -0.1392  1.4167
53853SOL     OW66115   8.370  11.780   4.290  0.4261 -0.0253 -0.0913
53853SOL    HW166116   8.275  11.786   4.302  0.6981  1.6494  1.7848
53853SOL    HW266117   8.388  11.834   4.213  0.0267  1.4633  0.8138
53854SOL     OW66118   2.871   2.479  11.181  0.0865  0.5567  0.6245
53854SOL    HW166119   2.861   2.573  11.166 -0.0264  0.4533  0.0409
53854SOL    HW266120   2.964   2.462  11.165  0.2872  0.7114  1.5606
53855SOL     OW66121   9.313  11.976   6.738 -0.3822  0.0124 -0.4419
53855SOL    HW166122   9.334  12.044   6.803  1.5921 -0.3616 -0.6378
53855SOL    HW266123   9.245  11.923   6.780  1.5531 -0.8355  1.8135
53856SOL     OW66124   4.808   2.875   9.812 -0.1927 -0.0698  0.5905
53856SOL    HW166125   4.805   2.953   9.867  0.4568  0.3431  0.0548
53856SOL    HW266126   4.898   2.841   9.822 -0.4396 -0.7015  0.7489
53857SOL     OW66127  11.303  10.750   9.884 -0.2303  0.0535 -0.0774
53857SOL    HW166128  11.339  10.838   9.897  1.3050 -0.3729 -1.0839
53857SOL    HW266129  11.369  10.691   9.922 -0.5084 -0.7091 -0.7399
53858SOL     OW66130   9.595   9.123   3.980 -0.6934  1.0285 -0.4184
53858SOL    HW166131   9.604   9.208   4.021 -0.3867  0.3635  0.9417
53858SOL    HW266132   9.675   9.076   4.004 -0.9874  0.2604 -0.9034
53859SOL     OW66133   6.787   1.066  11.262 -0.2014 -0.0503 -0.2534
53859SOL    HW166134   6.850   1.083  11.192 -0.9087  1.0804 -0.6470
53859SOL    HW266135   6.732   1.144  11.264  0.3420  0.3509  2.1608
53860SOL     OW66136   6.690   7.291   0.331  0.3606 -0.0399 -0.4470
53860SOL    HW166137   6.624   7.356   0.306 -0.0638 -0.3266 -0.0986
53860SOL    HW266138   6.765   7.343   0.361 -0.8725  0.3863  2.3009
53861SOL     OW66139   5.426   1.970   6.623  0.4156 -0.9131  0.1645
53861SOL    HW166140   5.343   1.928   6.645  0.2766 -0.3920  0.6472
53861SOL    HW266141   5.416   1.995   6.531 -0.7975  1.0312  0.7600
53862SOL     OW66142   6.986   4.329   0.991  0.0091  0.3599 -0.1590
53862SOL    HW166143   6.898   4.365   1.003 -1.3718 -2.2305 -1.6954
53862SOL    HW266144   6.975   4.234   1.002  3.1560  0.1027  2.2277
53863SOL     OW66145   5.416   6.227   2.412  0.9191 -0.2415  0.3084
53863SOL    HW166146   5.509   6.207   2.397  0.7590 -1.0625  0.3856
53863SOL    HW266147   5.418   6.306   2.466  1.6323 -1.3116  1.9323
53864SOL     OW66148   6.284   1.213   7.993 -1.1739  0.0998  0.6616
53864SOL    HW166149   6.279   1.186   8.085  0.4838  0.3055  0.8376
53864SOL    HW266150   6.205   1.176   7.953 -0.2896 -2.9293  1.4253
53865SOL     OW66151   5.487   0.773   7.031 -0.0373 -0.4645 -0.2947
53865SOL    HW166152   5.413   0.766   6.970  0.3122  0.5381 -0.8732
53865SOL    HW266153   5.563   0.782   6.974  0.2068  1.3425  0.2505
53866SOL     OW66154   1.016   1.237   4.067 -0.0585 -0.0536  0.0938
53866SOL    HW166155   0.951   1.173   4.095  1.0049 -1.7999 -1.2374
53866SOL    HW266156   0.992   1.257   3.976 -0.0100  0.9925  0.2951
53867SOL     OW66157  11.862  12.127   7.161 -0.3841  0.2662  0.4124
53867SOL    HW166158  11.845  12.033   7.157 -0.0821  0.0369  2.9973
53867SOL    HW266159  11.954  12.135   7.135 -0.2329 -0.2395  0.7629
53868SOL     OW66160   3.944   3.068   7.750 -0.1555 -0.1220  0.2815
53868SOL    HW166161   3.908   3.056   7.662 -0.1900 -0.6542  0.3629
53868SOL    HW266162   3.903   3.148   7.782 -0.7421 -0.3480  0.1098
53869SOL     OW66163   7.739   4.656   8.279  0.0692  0.2564 -0.0756
53869SOL    HW166164   7.806   4.679   8.214 -1.5426 -0.1962 -1.9934
53869SOL    HW266165   7.755   4.564   8.298  1.2493  0.6650  1.1226
53870SOL     OW66166   1.603   5.068  10.332 -0.3976 -0.1122 -0.1742
53870SOL    HW166167   1.571   5.151  10.368  2.5535  0.6435  1.0089
53870SOL    HW266168   1.538   5.003  10.361 -1.5737  1.4324  0.8608
53871SOL     OW66169  11.745   6.854   2.011 -0.0182  0.4139  0.0638
53871SOL    HW166170  11.791   6.776   1.979  0.8995  1.6076 -1.6961
53871SOL    HW266171  11.775   6.925   1.954 -0.7565  2.0935  1.6626
53872SOL     OW66172   5.171  10.118  12.091 -0.3159  0.3316  0.1006
53872SOL    HW166173   5.178  10.029  12.058 -0.8485  0.0755  0.6695
53872SOL    HW266174   5.196  10.173  12.016 -0.4021 -0.2765 -0.3809
53873SOL     OW66175   3.652   3.783   2.176  0.2498 -0.0482  0.4612
53873SOL    HW166176   3.728   3.780   2.118 -0.5458  0.6354 -0.6779
53873SOL    HW266177   3.607   3.700   2.163 -0.4878  0.5084 -0.7483
53874SOL     OW66178   4.696   8.574   4.406 -0.3386 -0.4167  0.0902
53874SOL    HW166179   4.605   8.591   4.381  0.2635  0.5159 -1.6536
53874SOL    HW266180   4.709   8.481   4.387 -0.7962 -0.4461 -0.0892
53875SOL     OW66181   3.491   9.491   4.702 -0.4102 -0.9277 -0.7411
53875SOL    HW166182   3.464   9.512   4.791  0.2698 -3.0013  0.0121
53875SOL    HW266183   3.533   9.571   4.670 -1.9923  0.3472  0.2168
53876SOL     OW66184   4.879   4.072  10.643  0.0801  0.0354 -0.2369
53876SOL    HW166185   4.817   4.080  10.571 -1.5393 -1.0638  0.9574
53876SOL    HW266186   4.958   4.034  10.603 -1.3383 -2.1040 -1.2135
53877SOL     OW66187   5.411   9.297   3.727 -0.3909  0.2736  0.6250
53877SOL    HW166188   5.318   9.315   3.718 -0.1955  0.6351 -1.1897
53877SOL    HW266189   5.416   9.205   3.753 -1.2525 -0.4082 -1.4114
53878SOL     OW66190   0.087   1.294  10.574 -0.5211  0.3893  0.3497
53878SOL    HW166191   0.045   1.210  10.556  2.5001 -1.6437  1.8969
53878SOL    HW266192   0.053   1.352  10.506 -1.1186 -2.6571 -2.2542
53879SOL     OW66193   9.985   6.255   6.966 -0.0575 -0.5578 -0.1573
53879SOL    HW166194   9.894   6.225   6.970  0.0299 -0.9817 -1.0281
53879SOL    HW266195  10.005   6.258   6.873  1.0000 -1.0186  0.0408
53880SOL     OW66196   1.408  11.075   1.104  0.0304 -0.8069  0.6784
53880SOL    HW166197   1.456  11.149   1.142 -1.8190  1.3969 -0.9594
53880SOL    HW266198   1.476  11.011   1.084  1.9789  1.1155  0.6697
53881SOL     OW66199   5.972   2.557   8.947  0.2823  0.1178 -0.2225
53881SOL    HW166200   5.880   2.534   8.930  0.2649 -0.0138  0.0480
53881SOL    HW266201   6.006   2.482   8.996  0.2443  0.6430  0.6195
53882SOL     OW66202   5.617   1.481   0.029  0.0532 -0.9991 -0.0284
53882SOL    HW166203   5.589   1.522  -0.053  1.9267  1.1913  0.3095
53882SOL    HW266204   5.536   1.459   0.074 -1.2294  3.0998  0.0539
53883SOL     OW66205   6.580   8.877   2.302 -0.0568 -0.1583  0.2393
53883SOL    HW166206   6.644   8.875   2.231 -0.7966  1.3826 -0.5505
53883SOL    HW266207   6.565   8.786   2.325  0.4892 -0.6777 -1.3479
53884SOL     OW66208   1.398   4.311  10.453  0.3020 -0.1129  0.1521
53884SOL    HW166209   1.334   4.321  10.383  0.4211 -0.3953  0.0037
53884SOL    HW266210   1.401   4.217  10.471 -0.6261  0.0639  1.3836
53885SOL     OW66211   1.824   2.958   5.831  0.4468 -0.3197 -0.3319
53885SOL    HW166212   1.731   2.952   5.850  0.6332 -0.4047  0.6376
53885SOL    HW266213   1.866   2.943   5.916  1.2848  2.3727 -0.1660
53886SOL     OW66214   7.894   9.370   1.594 -0.3077  0.0656  0.0078
53886SOL    HW166215   7.964   9.397   1.652  0.8512  0.6325 -1.5842
53886SOL    HW266216   7.895   9.274   1.598 -0.2402  0.0982  0.8869
53887SOL     OW66217   5.023   9.229   0.805  0.0253 -0.0258 -0.4276
53887SOL    HW166218   5.018   9.135   0.789  2.1960 -0.3253  0.2867
53887SOL    HW266219   5.048   9.237   0.897 -2.7851  1.3887  0.3269
53888SOL     OW66220  10.498  11.358   3.831  0.7070  0.0821  0.2198
53888SOL    HW166221  10.523  11.266   3.821  1.2431  0.3194 -0.6943
53888SOL    HW266222  10.570  11.407   3.792 -0.1073  0.8591 -0.3301
53889SOL     OW66223   4.292   9.954   5.751  0.1992 -0.0659  0.7556
53889SOL    HW166224   4.327   9.904   5.825  0.9756  0.0579  0.4757
53889SOL    HW266225   4.251   9.887   5.695 -0.2588 -0.1768  1.2102
53890SOL     OW66226  11.776   3.448   1.117  0.2255 -0.2961  0.2511
53890SOL    HW166227  11.800   3.536   1.091 -0.2836 -0.5545 -1.2007
53890SOL    HW266228  11.760   3.454   1.211 -0.6605  1.3483  0.0309
53891SOL     OW66229   1.581   7.919   0.377 -0.2910  0.0464 -0.0062
53891SOL    HW166230   1.622   7.836   0.402  0.5789  0.1735 -0.9459
53891SOL    HW266231   1.490   7.897   0.360  0.4157 -1.2431 -2.5838
53892SOL     OW66232  12.069   3.350  11.350  0.2789 -0.3424 -0.0142
53892SOL    HW166233  12.142   3.315  11.401  0.7827 -0.7666 -1.0204
53892SOL    HW266234  12.107   3.422  11.300 -0.0292 -0.4799 -0.4444
53893SOL     OW66235  10.992   4.801   0.532 -0.0774 -0.0935  0.1169
53893SOL    HW166236  10.996   4.749   0.452  2.0937 -0.7554  0.5912
53893SOL    HW266237  10.901   4.794   0.561 -0.4860 -1.2842 -1.3426
53894SOL     OW66238   1.269   5.833   6.751  0.5053 -0.7434  0.0660
53894SOL    HW166239   1.341   5.772   6.731 -0.2575 -1.4135 -0.7164
53894SOL    HW266240   1.203   5.815   6.683  0.0271  0.5748  0.1653
53895SOL     OW66241  11.182   0.888   9.209 -0.3914 -0.4272  0.2056
53895SOL    HW166242  11.142   0.923   9.129 -1.2057  1.6722  1.4530
53895SOL    HW266243  11.254   0.833   9.177 -1.5242 -0.7705 -1.9802
53896SOL     OW66244   6.067   6.666   6.689  0.7964 -0.2041 -0.5956
53896SOL    HW166245   6.138   6.654   6.626  0.4714 -0.6643 -0.8777
53896SOL    HW266246   6.111   6.690   6.770  1.0985  3.1041 -1.6057
53897SOL     OW66247   9.232   7.210   0.998  0.3141  0.0599 -0.9130
53897SOL    HW166248   9.147   7.253   0.990  1.0927  2.0112  0.6994
53897SOL    HW266249   9.290   7.262   0.943  0.8757 -0.1320 -0.5014
53898SOL     OW66250   5.482  11.292   8.505  0.4300  0.0362 -0.2523
53898SOL    HW166251   5.449  11.212   8.546 -0.4248  0.0142 -0.9428
53898SOL    HW266252   5.555  11.263   8.451  0.9252 -0.0787  0.4569
53899SOL     OW66253   4.956   1.022   6.498 -0.0205  0.2251 -0.3291
53899SOL    HW166254   4.952   0.947   6.558  0.6302  0.2968 -0.1913
53899SOL    HW266255   4.908   0.993   6.421  0.0998 -0.2837 -0.2164
53900SOL     OW66256   6.660   1.742   7.851 -0.1544 -0.5705  0.1459
53900SOL    HW166257   6.632   1.654   7.876 -0.7769 -0.1292  1.0592
53900SOL    HW266258   6.590   1.799   7.883  0.0067  0.2212 -0.8556
53901SOL     OW66259   4.357   3.484   7.818 -0.2110  0.0778  0.5951
53901SOL    HW166260   4.323   3.431   7.747 -0.1187  0.3930  0.3145
53901SOL    HW266261   4.280   3.511   7.868 -0.2746 -0.1495  0.6207
53902SOL     OW66262   6.813   0.026   5.227 -0.0651  0.6858 -0.2506
53902SOL    HW166263   6.803  -0.052   5.173  1.3029  0.1589  0.2082
53902SOL    HW266264   6.901   0.019   5.263 -0.0387  2.2708  0.0797
53903SOL     OW66265  11.188   3.922   9.150 -0.0222 -0.1899  0.2011
53903SOL    HW166266  11.146   3.845   9.111 -0.7771 -0.1021  0.8102
53903SOL    HW266267  11.115   3.982   9.169  0.4612  0.2882  0.5773
53904SOL     OW66268   8.113   9.223   3.407  0.2576  0.2811  0.0055
53904SOL    HW166269   8.203   9.238   3.377  0.2338 -1.7485 -1.1966
53904SOL    HW266270   8.121   9.216   3.503  1.3393  0.3525 -0.0679
53905SOL     OW66271   0.297   2.636   6.151  0.3621 -0.2251  0.0416
53905SOL    HW166272   0.385   2.599   6.160  1.3778  1.8708 -0.4775
53905SOL    HW266273   0.274   2.666   6.239  2.3925  3.6573 -0.5265
53906SOL     OW66274   2.212  10.139  11.575  0.4892  0.1306  0.0846
53906SOL    HW166275   2.292  10.188  11.558  0.8666 -0.1321  1.0405
53906SOL    HW266276   2.153  10.202  11.616  0.2810  0.2690 -0.4256
53907SOL     OW66277   3.440   4.891   6.626 -0.1396  0.3480 -0.0935
53907SOL    HW166278   3.532   4.901   6.601  0.7391 -2.0630  1.7999
53907SOL    HW266279   3.406   4.823   6.568 -0.9090  1.5427 -1.0887
53908SOL     OW66280   5.204  11.275   0.332  0.1152  0.0385 -0.1404
53908SOL    HW166281   5.214  11.306   0.242  0.7334  1.1947  0.3127
53908SOL    HW266282   5.119  11.309   0.360 -0.0933 -0.3513 -0.2831
53909SOL     OW66283   8.269   3.434   0.909  0.3620 -0.8108 -0.0071
53909SOL    HW166284   8.223   3.412   0.828  0.3872 -1.2168  0.0876
53909SOL    HW266285   8.359   3.405   0.894  1.0701  1.5759 -0.8754
53910SOL     OW66286   1.489   2.217   3.069  0.2900 -0.1447  0.0386
53910SOL    HW166287   1.457   2.303   3.042 -0.3149 -0.5227 -0.4914
53910SOL    HW266288   1.427   2.188   3.135  0.8216  0.0675  0.6343
53911SOL     OW66289   5.611   6.222   3.866  0.0138 -0.2889  0.3155
53911SOL    HW166290   5.537   6.258   3.816  0.4687  0.2911  0.0516
53911SOL    HW266291   5.635   6.142   3.819  0.2330  0.0815 -0.2071
53912SOL     OW66292   3.019  11.959   3.077 -0.0719 -0.3356  1.0084
53912SOL    HW166293   2.971  12.038   3.105 -0.2353 -0.7040  1.7924
53912SOL    HW266294   3.067  11.987   3.000  0.6438  0.8214  1.8352
53913SOL     OW66295  10.631  10.102   1.167  0.0290  0.0676  0.0560
53913SOL    HW166296  10.717  10.099   1.127  1.1967  0.4678  2.3855
53913SOL    HW266297  10.586  10.174   1.122  1.3148  0.5763 -0.4537
53914SOL     OW66298   3.421   2.679   8.544  0.0110 -0.1289  0.2143
53914SOL    HW166299   3.467   2.599   8.519 -1.9083 -0.7590 -1.5307
53914SOL    HW266300   3.355   2.692   8.476 -0.6435  2.2078  1.1776
53915SOL     OW66301   6.353   2.215   5.590  0.2761  0.4971  0.3809
53915SOL    HW166302   6.358   2.200   5.684  0.6873 -0.8786  0.1561
53915SOL    HW266303   6.406   2.146   5.551 -1.8744 -0.4787 -1.0094
53916SOL     OW66304   4.428   2.525   7.763  0.0015  0.9262 -0.2139
53916SOL    HW166305   4.423   2.489   7.674  1.9112 -0.8811  0.3043
53916SOL    HW266306   4.499   2.589   7.759 -0.3417  1.3131 -0.1274
53917SOL     OW66307   4.562   4.710   6.982 -0.6245 -0.3438 -0.3558
53917SOL    HW166308   4.516   4.690   7.063  0.2285 -0.5935  0.0801
53917SOL    HW266309   4.574   4.805   6.983 -0.0744 -0.4104  0.1220
53918SOL     OW66310   6.563   5.020   8.178  0.5022  0.1958 -0.0052
53918SOL    HW166311   6.543   5.102   8.222  0.1089 -0.1285  0.4267
53918SOL    HW266312   6.488   5.004   8.121  0.2722 -0.1941  0.4025
53919SOL     OW66313   1.026   5.403   1.394  0.2694  0.1213  0.2800
53919SOL    HW166314   0.987   5.434   1.312 -0.2954 -0.0435  0.4880
53919SOL    HW266315   1.012   5.308   1.393  1.0393  0.0004  0.1566
53920SOL     OW66316   6.742   0.370   6.580 -0.2664 -0.5243 -0.2175
53920SOL    HW166317   6.808   0.431   6.548 -0.4008 -0.5399 -0.5340
53920SOL    HW266318   6.677   0.366   6.509 -0.1569 -1.1926 -0.2859
53921SOL     OW66319   6.093  10.409  12.036  0.1521  0.1343  0.1071
53921SOL    HW166320   6.123  10.318  12.043 -0.3002  0.0279  0.7010
53921SOL    HW266321   6.173  10.458  12.014 -0.0706 -0.7663 -3.2897
53922SOL     OW66322  12.018   6.517   0.900 -0.0130  0.3687  0.2435
53922SOL    HW166323  12.070   6.440   0.922 -0.5837 -0.3803 -0.9581
53922SOL    HW266324  11.968   6.492   0.823 -1.5151  1.3638  0.8327
53923SOL     OW66325  11.705   0.659   8.652 -0.0883 -0.5074  0.4015
53923SOL    HW166326  11.694   0.678   8.745 -1.0584 -1.6277  0.5330
53923SOL    HW266327  11.735   0.742   8.614  1.9216 -0.4348  1.9568
53924SOL     OW66328  10.256  11.533  11.468 -0.6835 -0.3263 -0.0754
53924SOL    HW166329  10.306  11.611  11.489 -0.6815  0.2921 -2.0997
53924SOL    HW266330  10.322  11.470  11.437 -1.0466  0.8433 -3.7531
53925SOL     OW66331   4.056  10.986  11.705 -0.2838  0.2980  0.3447
53925SOL    HW166332   4.003  10.984  11.625 -0.5245  0.2905  0.5021
53925SOL    HW266333   4.124  11.050  11.687  0.2673 -0.4344 -0.2414
53926SOL     OW66334   8.782   8.331   0.703 -0.3502  0.3849  0.4798
53926SOL    HW166335   8.776   8.279   0.783 -1.0158 -0.4494 -0.1007
53926SOL    HW266336   8.692   8.360   0.686 -0.5624 -0.9909 -0.9561
53927SOL     OW66337   4.113   7.889   3.521  0.4968 -0.5738 -0.0796
53927SOL    HW166338   4.020   7.913   3.528  0.5558  0.0037 -1.1168
53927SOL    HW266339   4.117   7.830   3.446  1.2318  1.0052 -1.3620
53928SOL     OW66340   1.219   5.409  10.347 -0.2132 -0.2362 -0.3173
53928SOL    HW166341   1.185   5.327  10.312 -0.3702 -0.7457  0.9639
53928SOL    HW266342   1.312   5.406  10.328 -0.4455 -0.0172 -1.5782
53929SOL     OW66343   8.164   5.411   1.918 -0.2335 -0.2524  0.3301
53929SOL    HW166344   8.205   5.329   1.888  1.7788  0.6965  0.3153
53929SOL    HW266345   8.084   5.417   1.866  0.1288 -1.6732 -0.4686
53930SOL     OW66346   9.443   9.719   2.415  0.1146  0.6035 -0.2173
53930SOL    HW166347   9.422   9.626   2.405  0.2318  0.7881 -3.5141
53930SOL    HW266348   9.395   9.747   2.492 -1.0166 -1.8945  0.0887
53931SOL     OW66349   9.447   4.039   4.667  0.7130 -0.2989 -0.0975
53931SOL    HW166350   9.448   4.032   4.571  1.8636  0.0470 -0.1150
53931SOL    HW266351   9.367   3.993   4.692  0.2908 -0.2330 -1.2336
53932SOL     OW66352   2.306   6.618   8.664  0.0725 -0.1780 -0.3539
53932SOL    HW166353   2.377   6.618   8.600  0.1545 -0.3221 -0.2654
53932SOL    HW266354   2.319   6.697   8.715  0.5874 -0.5562  0.1163
53933SOL     OW66355   4.581   7.674   5.192  0.0044  0.3894  0.1240
53933SOL    HW166356   4.624   7.589   5.200 -0.5991 -0.1223 -1.6926
53933SOL    HW266357   4.652   7.738   5.202  0.8272 -0.3855 -0.6658
53934SOL     OW66358   8.176   9.330   4.646 -0.5732 -0.6549 -0.5518
53934SOL    HW166359   8.265   9.346   4.676 -0.4524  0.2736 -1.3668
53934SOL    HW266360   8.121   9.386   4.701 -0.7039 -1.4524  0.1563
53935SOL     OW66361   2.386   5.407  10.450 -0.0749  0.0420  0.1503
53935SOL    HW166362   2.340   5.345  10.506  0.1494 -0.9187 -0.6859
53935SOL    HW266363   2.454   5.355  10.407  1.0901  1.1840  0.5197
53936SOL     OW66364   5.101   4.686   1.029 -0.0791 -0.4013  0.3784
53936SOL    HW166365   5.104   4.602   0.984 -0.8744 -0.8499  1.1214
53936SOL    HW266366   5.008   4.704   1.040  0.0905 -0.1207  1.4748
53937SOL     OW66367   6.173  10.736  10.989 -0.3818  0.2971  0.3069
53937SOL    HW166368   6.183  10.770  11.078  1.1020 -1.3006  0.8228
53937SOL    HW266369   6.229  10.792  10.936  1.9495 -1.0917  1.1233
53938SOL     OW66370   8.946   8.569   4.400 -0.0346 -0.1228 -0.0126
53938SOL    HW166371   8.898   8.528   4.472  2.5456 -1.8231  0.8628
53938SOL    HW266372   8.909   8.530   4.321 -2.3793  1.1965  0.3088
53939SOL     OW66373   8.660   4.744   2.893  0.1703  0.1995  0.4297
53939SOL    HW166374   8.684   4.661   2.935  0.5463  0.2727  0.3665
53939SOL    HW266375   8.704   4.740   2.808 -0.5320  0.0794  0.0693
53940SOL     OW66376   9.721   8.894   2.762 -0.4424  0.0460  0.2169
53940SOL    HW166377   9.681   8.979   2.777  0.5011  0.3647  1.0220
53940SOL    HW266378   9.648   8.838   2.733 -1.2508  0.8616  0.6273
53941SOL     OW66379   3.748   7.330  10.663  0.0975  0.2737  0.0448
53941SOL    HW166380   3.728   7.307  10.572  1.4397 -1.7027  0.1739
53941SOL    HW266381   3.665   7.317  10.710  0.1835 -2.1098 -0.3551
53942SOL     OW66382   2.917   7.456   3.429  0.2636  0.3704  0.2670
53942SOL    HW166383   2.900   7.539   3.473 -1.2265 -0.2205  0.8559
53942SOL    HW266384   2.965   7.404   3.494  0.7716  0.5779  0.0681
53943SOL     OW66385   6.911   5.698  11.754  0.0903  0.5152 -0.4871
53943SOL    HW166386   6.849   5.631  11.782  0.1542  0.3834 -0.6591
53943SOL    HW266387   6.976   5.650  11.702  0.3526  0.6478 -0.2831
53944SOL     OW66388   7.939  11.057   6.757 -0.4841 -0.3221  0.3162
53944SOL    HW166389   7.877  11.052   6.684 -0.3259  0.5306  0.1075
53944SOL    HW266390   7.937  10.970   6.797 -1.7126 -0.3511  0.2257
53945SOL     OW66391   8.838   5.587   6.143 -0.0264  0.3180 -0.3169
53945SOL    HW166392   8.888   5.575   6.063 -0.1949 -1.7076 -0.1851
53945SOL    HW266393   8.797   5.501   6.158 -1.1833  1.0825  1.1336
53946SOL     OW66394   8.430   1.266   9.900 -0.1633  0.7887 -0.1669
53946SOL    HW166395   8.462   1.196   9.844 -1.9454  1.2463 -1.8776
53946SOL    HW266396   8.334   1.256   9.898 -0.3499  1.9193  1.3636
53947SOL     OW66397   8.119   5.285  10.114  0.2197 -0.6751  0.4940
53947SOL    HW166398   8.126   5.255  10.205  0.2032  1.9583  1.4570
53947SOL    HW266399   8.203   5.325  10.095  0.0752 -0.8338 -0.5105
53948SOL     OW66400   8.441  10.038  11.491 -0.0081 -0.6484  1.0261
53948SOL    HW166401   8.395  10.086  11.559  0.2435 -2.5667  2.6215
53948SOL    HW266402   8.445   9.948  11.522  0.9836 -1.4202 -1.0843
53949SOL     OW66403   0.262   5.984   7.298  0.5409 -0.0287 -0.2803
53949SOL    HW166404   0.171   5.999   7.324  0.4815 -0.3418 -0.2983
53949SOL    HW266405   0.262   5.996   7.203  0.5538  0.1489 -0.2567
53950SOL     OW66406  10.164   1.684   6.639  0.0011 -0.0586  0.0206
53950SOL    HW166407  10.242   1.683   6.694 -0.1787 -1.5421  0.2806
53950SOL    HW266408  10.166   1.600   6.593 -2.1362 -0.7154  1.0264
53951SOL     OW66409   3.554   3.158   5.694 -0.1010  0.2943  0.1125
53951SOL    HW166410   3.550   3.103   5.772  0.4896  1.2178  0.8114
53951SOL    HW266411   3.598   3.237   5.723  0.4947  0.4898 -1.2704
53952SOL     OW66412   9.639   1.512   8.400 -0.4943  0.0120  0.2628
53952SOL    HW166413   9.644   1.416   8.401 -0.5785 -0.0580  2.8747
53952SOL    HW266414   9.717   1.540   8.448 -1.8347  1.0766  1.9245
53953SOL     OW66415   2.704  10.998   2.943 -0.5284 -0.8679 -0.2656
53953SOL    HW166416   2.791  11.019   2.977 -0.4176 -0.7692 -0.6067
53953SOL    HW266417   2.673  11.080   2.904  0.3535 -1.5690 -2.5736
53954SOL     OW66418   6.718  11.652   7.807  0.4053  0.2527  0.2975
53954SOL    HW166419   6.659  11.700   7.749  2.0737  1.4871 -0.4767
53954SOL    HW266420   6.679  11.565   7.814  0.2686 -0.0830 -2.9641
53955SOL     OW66421   6.060   8.111   9.685 -0.9530  0.0770  0.3007
53955SOL    HW166422   6.068   8.041   9.620  1.0098  0.7191 -0.2300
53955SOL    HW266423   6.008   8.073   9.756 -0.7674 -1.5738 -0.4099
53956SOL     OW66424   6.039   4.543   6.956  0.4484 -0.0640 -0.3199
53956SOL    HW166425   5.952   4.533   6.994  0.0929  0.5311 -0.9496
53956SOL    HW266426   6.095   4.566   7.030 -0.4612  2.3424 -0.3040
53957SOL     OW66427   9.733   7.201  11.654 -0.0574  0.1352  0.6061
53957SOL    HW166428   9.824   7.180  11.676 -0.2503 -0.9029  0.4528
53957SOL    HW266429   9.704   7.128  11.601 -0.7849  0.7962  0.0821
53958SOL     OW66430   8.974   1.701   6.864 -0.3814 -0.0854 -0.2380
53958SOL    HW166431   8.971   1.767   6.795 -0.4022  0.1492 -0.0137
53958SOL    HW266432   8.882   1.677   6.878 -0.5255  0.9600  0.7497
53959SOL     OW66433   1.671   2.714   4.551  0.1002  0.6699  0.0297
53959SOL    HW166434   1.650   2.740   4.462 -1.9951 -1.9831 -0.3669
53959SOL    HW266435   1.594   2.738   4.603  1.0696  1.6885  1.0509
53960SOL     OW66436   0.498   1.509  10.567 -0.2121  0.8233  0.4427
53960SOL    HW166437   0.536   1.451  10.633 -0.5668  0.5846  0.4435
53960SOL    HW266438   0.406   1.519  10.594 -0.7013 -0.2893 -0.6868
53961SOL     OW66439   7.556   8.054   5.127  0.5158  0.3687 -0.8327
53961SOL    HW166440   7.611   7.998   5.073  2.1122  1.4802 -0.4134
53961SOL    HW266441   7.594   8.048   5.215  0.2073  1.4827 -0.6151
53962SOL     OW66442   3.871   1.184   9.892 -0.1075 -0.0286  0.2082
53962SOL    HW166443   3.792   1.181   9.946  0.5847 -0.4894  1.2478
53962SOL    HW266444   3.918   1.262   9.922  0.2299 -0.2260  0.2036
53963SOL     OW66445   4.247   5.290   4.219 -0.2990 -0.4727  0.0219
53963SOL    HW166446   4.231   5.293   4.124 -0.9858  2.3545  0.1335
53963SOL    HW266447   4.200   5.213   4.249 -1.7686 -0.3142 -1.7029
53964SOL     OW66448   9.382  11.367   1.024 -0.1553  0.7273  0.2250
53964SOL    HW166449   9.401  11.298   1.087 -0.6445 -0.4456 -0.8894
53964SOL    HW266450   9.290  11.389   1.039 -0.3000  0.3756 -0.1527
53965SOL     OW66451   5.256   0.590   5.113 -0.7803 -0.7583  0.3264
53965SOL    HW166452   5.193   0.625   5.175 -1.7471 -2.8142  0.5652
53965SOL    HW266453   5.204   0.557   5.040  0.1822 -0.4927 -0.5144
53966SOL     OW66454   9.292  11.753   2.761 -0.0762  0.1554 -0.0685
53966SOL    HW166455   9.197  11.763   2.772  0.0506  1.2131  0.1960
53966SOL    HW266456   9.303  11.665   2.724 -1.0159 -0.7694  1.7214
53967SOL     OW66457   8.563  10.635  10.312  0.0135  0.5079  0.4720
53967SOL    HW166458   8.468  10.633  10.301  0.1396  0.6536 -0.7481
53967SOL    HW266459   8.581  10.567  10.378 -0.7409 -0.9984 -0.8162
53968SOL     OW66460   3.867   1.371   5.043  0.3195 -0.2838  0.2789
53968SOL    HW166461   3.855   1.362   5.138 -0.4279  1.8229  0.4360
53968SOL    HW266462   3.870   1.465   5.028  2.0443 -0.5780 -1.6331
53969SOL     OW66463   7.286   4.440   0.715 -0.4483  0.3766  0.4683
53969SOL    HW166464   7.375   4.428   0.684  0.2426 -1.3492  2.9099
53969SOL    HW266465   7.234   4.446   0.634  1.6175 -0.3405 -1.0083
53970SOL     OW66466   5.405   7.357  10.120  0.2224  0.4607  0.2782
53970SOL    HW166467   5.343   7.365  10.047  0.0023  0.8471  0.5086
53970SOL    HW266468   5.487   7.332  10.078 -0.4641 -1.7469  0.1181
53971SOL     OW66469   2.530  10.758   1.625  0.3539  0.1170 -0.0304
53971SOL    HW166470   2.538  10.761   1.721  0.1966  0.0959 -0.0164
53971SOL    HW266471   2.603  10.703   1.596 -0.2034 -0.7341  0.1505
53972SOL     OW66472   6.754   4.299   8.800 -0.2648  0.0073  0.0286
53972SOL    HW166473   6.728   4.345   8.880 -1.9997 -0.3779 -0.2818
53972SOL    HW266474   6.696   4.334   8.732 -1.1055 -2.0160 -0.3741
53973SOL     OW66475   3.085  11.684   0.150  0.2098  0.2713 -0.4293
53973SOL    HW166476   3.060  11.768   0.111 -0.0302  0.4321  0.0660
53973SOL    HW266477   3.118  11.633   0.076 -0.2449  0.5688 -0.8480
53974SOL     OW66478   2.662   1.030   8.881  0.0294 -0.2715 -0.0117
53974SOL    HW166479   2.569   1.052   8.883  0.0141 -0.3941  1.6693
53974SOL    HW266480   2.697   1.079   8.806 -1.3241 -0.0135 -0.4881
53975SOL     OW66481   2.248  10.862  11.494 -0.4451 -0.6430 -0.3590
53975SOL    HW166482   2.282  10.774  11.509  0.1468 -0.3969 -0.2196
53975SOL    HW266483   2.167  10.849  11.445  0.6033 -1.1865 -2.0214
53976SOL     OW66484   7.609   5.316   2.012  0.2434  0.1863 -0.4757
53976SOL    HW166485   7.597   5.222   2.029  0.0759  0.3429  0.2774
53976SOL    HW266486   7.620   5.321   1.917 -0.0800 -0.5623 -0.5618
53977SOL     OW66487   3.611   8.473   7.847  0.3978  0.1321  0.2180
53977SOL    HW166488   3.608   8.423   7.929 -0.2132  0.2482  0.2736
53977SOL    HW266489   3.535   8.442   7.798 -0.2671  1.3429  0.4513
53978SOL     OW66490   8.964   9.367   2.090  0.1264  0.3087  0.1142
53978SOL    HW166491   9.021   9.291   2.102  0.2369  0.0976 -1.5694
53978SOL    HW266492   8.912   9.370   2.170 -0.4753 -2.0698 -0.1144
53979SOL     OW66493   0.359  11.805   8.193 -0.0735  0.2884 -0.1000
53979SOL    HW166494   0.412  11.771   8.266 -0.1351  0.6320  0.1091
53979SOL    HW266495   0.406  11.777   8.115 -0.2929 -0.5531  0.0547
53980SOL     OW66496   0.985   2.124   8.752  0.2039 -0.2661 -0.3552
53980SOL    HW166497   0.936   2.129   8.834 -1.6020  0.8095 -1.4366
53980SOL    HW266498   0.949   2.195   8.698  0.7156 -1.4839 -2.4009
53981SOL     OW66499  10.660   8.015   4.527  0.0864  0.5840 -0.0263
53981SOL    HW166500  10.633   7.927   4.554 -1.0187  0.5817 -1.0334
53981SOL    HW266501  10.650   8.068   4.606 -0.3151  0.0243  0.3095
53982SOL     OW66502   1.699   3.800  10.191 -0.3408  0.3640 -0.2463
53982SOL    HW166503   1.754   3.868  10.153 -0.7339 -1.1527 -3.9243
53982SOL    HW266504   1.610   3.834  10.184 -0.3851  0.2251 -0.3639
53983SOL     OW66505   3.958   5.978   7.266  0.6321 -0.2122 -0.1812
53983SOL    HW166506   3.897   5.969   7.339 -1.1840  1.3346 -1.3969
53983SOL    HW266507   4.032   6.028   7.302 -1.2285  2.4737  0.1676
53984SOL     OW66508   0.100   3.999   8.328 -0.4857 -0.3016  0.3339
53984SOL    HW166509   0.183   4.040   8.354  0.1036  0.5250 -2.5534
53984SOL    HW266510   0.038   4.072   8.327 -0.7979 -0.5641  0.6627
53985SOL     OW66511   9.460   7.050   4.583  0.4953  0.3672 -0.0069
53985SOL    HW166512   9.493   7.140   4.577 -1.3432  1.1941  1.1931
53985SOL    HW266513   9.380   7.050   4.530  1.5590 -1.1918 -1.7265
53986SOL     OW66514   5.760   0.666   7.507  0.5136  0.6322 -0.1124
53986SOL    HW166515   5.770   0.664   7.412 -1.1117 -2.1163 -0.3448
53986SOL    HW266516   5.826   0.606   7.540  0.4356  0.8286  0.4162
53987SOL     OW66517   2.624   6.262  10.045 -0.3177  0.2133  0.2692
53987SOL    HW166518   2.705   6.314  10.046 -0.4935  0.5187 -0.8232
53987SOL    HW266519   2.602   6.253   9.953 -2.6733  1.8947  0.5861
53988SOL     OW66520   2.756   9.387   4.737  0.3199  0.3150  0.3453
53988SOL    HW166521   2.761   9.345   4.651  0.2244  0.8819  0.0649
53988SOL    HW266522   2.741   9.314   4.798 -1.6283  0.1032 -0.3214
53989SOL     OW66523   0.740   9.740   6.681  0.2614 -0.0066 -0.7623
53989SOL    HW166524   0.785   9.689   6.614  1.0294 -0.2772 -0.0623
53989SOL    HW266525   0.803   9.808   6.705 -0.2246  0.4301 -0.7125
53990SOL     OW66526   0.416   5.126   1.309 -0.0874  0.3159 -0.6196
53990SOL    HW166527   0.368   5.157   1.386  1.7153 -1.4576  1.3530
53990SOL    HW266528   0.475   5.198   1.287  1.5316 -0.1888  1.6670
53991SOL     OW66529   0.344  10.302   2.989  0.0293  0.0320 -0.5108
53991SOL    HW166530   0.273  10.299   3.054 -0.0317  0.3315 -0.5590
53991SOL    HW266531   0.424  10.295   3.041 -0.0302 -0.0504 -0.4306
53992SOL     OW66532  10.507   4.655  11.658 -0.5882  0.1350  0.2448
53992SOL    HW166533  10.514   4.598  11.735  0.3800  0.7743  0.6667
53992SOL    HW266534  10.560   4.732  11.682  3.8459 -1.5859 -2.8054
53993SOL     OW66535   0.364  12.102   1.171  0.1444  0.7241  1.0116
53993SOL    HW166536   0.295  12.167   1.179  0.8533  1.8706 -1.2532
53993SOL    HW266537   0.438  12.150   1.133  0.8083 -1.2952 -0.4249
53994SOL     OW66538  10.871  11.905   3.901 -0.4821 -0.1854 -0.2655
53994SOL    HW166539  10.788  11.919   3.855 -1.2100 -1.8444  0.4393
53994SOL    HW266540  10.845  11.860   3.982  0.8602  1.5810  1.2347
53995SOL     OW66541   1.329   8.266   2.687 -0.2659 -0.4321  0.0494
53995SOL    HW166542   1.302   8.337   2.628  0.3224 -0.2728 -0.0304
53995SOL    HW266543   1.423   8.257   2.672 -0.1923 -0.6866  0.6526
53996SOL     OW66544   6.200   9.249   9.216 -0.4001 -0.4063  0.1467
53996SOL    HW166545   6.179   9.199   9.137  0.3001 -1.1369  0.4076
53996SOL    HW266546   6.220   9.337   9.184  1.5006 -1.0967 -0.7089
53997SOL     OW66547   7.078  12.111   5.303  0.3634 -0.3323  0.0157
53997SOL    HW166548   7.134  12.131   5.229  0.7366 -2.5223 -0.3684
53997SOL    HW266549   7.138  12.108   5.378  0.4162 -0.5545 -0.0330
53998SOL     OW66550   4.873   9.987   4.008 -0.0402  0.8264 -0.3609
53998SOL    HW166551   4.867  10.081   4.026 -0.3321  0.8030 -0.3347
53998SOL    HW266552   4.961   9.974   3.974 -0.0181  1.1188 -0.4116
53999SOL     OW66553   8.187   0.572   8.128 -0.2747 -0.2309 -0.1714
53999SOL    HW166554   8.172   0.481   8.105 -3.4954  0.4209 -1.0848
53999SOL    HW266555   8.240   0.607   8.056 -0.5973 -0.9452 -0.7670
54000SOL     OW66556  10.232   8.893  10.936 -0.0937 -0.1999  0.1372
54000SOL    HW166557  10.167   8.963  10.943 -0.2885 -0.3133 -0.4832
54000SOL    HW266558  10.312   8.930  10.972 -0.3853  0.0970  0.4810
54001SOL     OW66559   1.171   8.627   3.739  0.1056  0.0429  0.3406
54001SOL    HW166560   1.139   8.718   3.738  1.0454  0.3861 -0.2919
54001SOL    HW266561   1.144   8.593   3.824  0.8068  1.3188  1.1068
54002SOL     OW66562   8.924   1.090   1.816 -0.0271  0.2708  0.1495
54002SOL    HW166563   8.966   1.009   1.789  0.9156  0.5428  0.7643
54002SOL    HW266564   8.843   1.093   1.764  0.7609 -0.1893 -1.1442
54003SOL     OW66565  10.453   0.160   1.132 -0.0008  0.3829  0.5376
54003SOL    HW166566  10.516   0.139   1.063 -0.6583  2.1711 -0.6703
54003SOL    HW266567  10.377   0.105   1.114  0.1497  0.2434  0.3351
54004SOL     OW66568   9.565   3.436   9.024 -0.1282 -0.7713 -0.0920
54004SOL    HW166569   9.623   3.465   9.094 -0.0295  1.9805 -1.2016
54004SOL    HW266570   9.624   3.414   8.952 -0.3642  0.1836 -0.5881
54005SOL     OW66571   0.625  10.429   4.530 -0.2920  0.1779 -0.4971
54005SOL    HW166572   0.590  10.505   4.576 -0.1402 -0.4799  0.7405
54005SOL    HW266573   0.708  10.411   4.575 -1.1628 -1.7821  0.4032
54006SOL     OW66574   2.483   8.297   8.430 -0.3866  0.0910  0.0369
54006SOL    HW166575   2.427   8.226   8.398  0.1770  0.5920 -2.2825
54006SOL    HW266576   2.465   8.302   8.524 -2.6493 -1.1429 -0.2607
54007SOL     OW66577   5.008   2.360   3.217 -0.2329 -0.0219  0.1257
54007SOL    HW166578   5.072   2.422   3.254  1.9561  0.5916 -4.0814
54007SOL    HW266579   4.934   2.415   3.192 -0.3101  0.0779  0.5520
54008SOL     OW66580  10.002   3.100   5.843 -0.1112  0.4304 -0.6772
54008SOL    HW166581   9.916   3.064   5.863  0.8857 -0.4921  2.5346
54008SOL    HW266582   9.995   3.193   5.864  0.0125  0.0860  1.0088
54009SOL     OW66583   2.041  11.642   3.122  0.2606 -0.2507 -0.1531
54009SOL    HW166584   2.018  11.562   3.075  1.3216 -0.3555 -0.5144
54009SOL    HW266585   1.959  11.691   3.127 -0.4398 -1.4221  0.2055
54010SOL     OW66586   3.116   2.880   4.841 -0.7750 -0.2132  0.0297
54010SOL    HW166587   3.210   2.894   4.853 -1.0323  0.1892  1.9590
54010SOL    HW266588   3.107   2.785   4.832  0.0647 -0.0841 -3.4779
54011SOL     OW66589   9.336   8.543   3.483 -0.1331  0.2866  0.3877
54011SOL    HW166590   9.406   8.486   3.451 -0.8936 -0.3386 -0.1971
54011SOL    HW266591   9.286   8.565   3.405 -0.3459  1.0709  0.7420
54012SOL     OW66592   2.872   5.131   7.252  0.3277 -0.8668  0.5886
54012SOL    HW166593   2.961   5.097   7.249  1.8286  2.2264  3.3087
54012SOL    HW266594   2.828   5.077   7.319  1.0753 -0.6157  1.2920
54013SOL     OW66595   6.284   3.424   0.931  0.3907  0.5459 -0.3947
54013SOL    HW166596   6.352   3.488   0.949 -1.4582  2.9210 -1.2729
54013SOL    HW266597   6.257   3.392   1.017  0.2840  2.1697  0.1969
54014SOL     OW66598   0.277  12.058   2.523 -0.8899  0.0237 -0.3822
54014SOL    HW166599   0.305  11.996   2.456  0.1809 -1.0601  1.0016
54014SOL    HW266600   0.356  12.108   2.544 -1.4457  1.0194 -0.5915
54015SOL     OW66601   8.321   1.297   2.522 -0.1557  0.1567 -0.1213
54015SOL    HW166602   8.230   1.288   2.552  0.2484 -0.9778  0.8547
54015SOL    HW266603   8.367   1.224   2.563  1.4233  1.2904  0.2167
54016SOL     OW66604   2.300   1.793   8.134 -0.0474 -0.0323  0.1030
54016SOL    HW166605   2.211   1.803   8.100  0.1925 -0.7973 -0.8042
54016SOL    HW266606   2.304   1.704   8.168  0.1989  0.1930  0.6693
54017SOL     OW66607   4.208   0.160   4.704 -0.1621  0.6265  0.0494
54017SOL    HW166608   4.237   0.220   4.773  1.4017 -0.8598  0.7645
54017SOL    HW266609   4.283   0.152   4.646 -0.0027 -1.2485  0.4481
54018SOL     OW66610   1.363  11.458   1.452  0.0198 -0.2574 -0.1106
54018SOL    HW166611   1.393  11.370   1.430  1.5330 -0.3986  2.1489
54018SOL    HW266612   1.304  11.446   1.526 -2.6898  0.3966 -2.0113
54019SOL     OW66613   4.275   5.652   4.846  0.2132 -0.8410 -0.0481
54019SOL    HW166614   4.257   5.746   4.850  1.7750 -0.4065 -1.6743
54019SOL    HW266615   4.257   5.629   4.755 -1.8996 -2.5741  0.7234
54020SOL     OW66616   6.569  11.493   8.549  0.0773  0.3734  0.6366
54020SOL    HW166617   6.654  11.469   8.584  0.0635  0.6996  0.9045
54020SOL    HW266618   6.524  11.535   8.622 -0.3629  0.0860  0.5342
54021SOL     OW66619   2.239   0.613   0.232 -0.2253  0.2259  0.3537
54021SOL    HW166620   2.315   0.642   0.283  0.8154  0.1334 -1.0882
54021SOL    HW266621   2.178   0.686   0.236  0.0669  0.4349  1.2506
54022SOL     OW66622   5.856  11.816   8.495  0.2996  0.3286 -0.1017
54022SOL    HW166623   5.878  11.752   8.562  1.1627 -0.4267 -1.0715
54022SOL    HW266624   5.802  11.881   8.540  0.8989 -0.1280  1.3223
54023SOL     OW66625   5.967   1.018   2.432  0.0031 -0.0535 -0.0064
54023SOL    HW166626   6.024   0.951   2.393  0.7353  0.3784  0.2894
54023SOL    HW266627   5.950   1.078   2.360 -1.6178 -1.1444 -0.5864
54024SOL     OW66628   2.623   6.456   8.701 -0.1871  0.0684  0.1211
54024SOL    HW166629   2.582   6.393   8.641 -1.0805  0.8111 -0.0715
54024SOL    HW266630   2.664   6.521   8.644 -0.2450  0.2753  0.3128
54025SOL     OW66631   1.520   8.101   3.458 -0.1783  0.0045 -0.1448
54025SOL    HW166632   1.593   8.088   3.398  2.0018 -0.4143  2.4402
54025SOL    HW266633   1.466   8.168   3.415  2.7247  1.7998 -1.2969
54026SOL     OW66634   7.578  10.864   1.365  0.6560  0.0296 -0.2608
54026SOL    HW166635   7.581  10.903   1.453 -2.8852  2.2516 -0.9345
54026SOL    HW266636   7.556  10.772   1.381  1.1775  0.1197  1.1872
54027SOL     OW66637   6.921   6.419   7.472 -0.9052  0.1518 -0.3595
54027SOL    HW166638   6.878   6.411   7.386  1.3803 -0.6807 -1.4960
54027SOL    HW266639   6.910   6.332   7.512  0.9684 -0.5668 -1.3174
54028SOL     OW66640  11.208  11.890   5.088 -0.3069 -0.3163  0.0841
54028SOL    HW166641  11.141  11.952   5.117  0.1310  1.2453 -1.9640
54028SOL    HW266642  11.188  11.876   4.995  2.4207  0.5616 -0.7161
54029SOL     OW66643  11.421   4.667   2.542 -0.4920  0.1628 -0.7874
54029SOL    HW166644  11.389   4.662   2.633 -0.4241 -0.4396 -0.7918
54029SOL    HW266645  11.369   4.601   2.495 -1.7881  1.6811 -1.5864
54030SOL     OW66646   4.499   6.051   6.828  0.4846 -0.0776 -0.5997
54030SOL    HW166647   4.520   5.959   6.812  1.5312 -0.1709  1.0143
54030SOL    HW266648   4.422   6.048   6.885  0.3769  0.0482 -0.7394
54031SOL     OW66649   8.502   9.415   1.348 -0.1391  0.0161 -0.4184
54031SOL    HW166650   8.505   9.508   1.324  1.0279 -0.0294 -0.4930
54031SOL    HW266651   8.489   9.416   1.443 -0.9456  0.2345 -0.5218
54032SOL     OW66652   3.503   8.575   2.737 -0.7878  0.0697 -0.3678
54032SOL    HW166653   3.408   8.582   2.752 -1.1129 -0.5502 -1.9679
54032SOL    HW266654   3.511   8.549   2.645  0.8784 -2.0994  0.3176
54033SOL     OW66655   6.312  10.689   0.591  0.2849  0.2206 -0.0551
54033SOL    HW166656   6.276  10.735   0.516  3.5034 -0.4474 -2.2039
54033SOL    HW266657   6.403  10.719   0.597  0.3515 -0.2749  3.1806
54034SOL     OW66658   2.655   0.563  11.909 -0.0741  0.2511 -0.1884
54034SOL    HW166659   2.596   0.495  11.875  0.5736  0.6301 -2.2076
54034SOL    HW266660   2.629   0.574  12.001 -1.3853 -1.4316 -0.3105
54035SOL     OW66661   1.491  11.332  11.307 -0.6120  0.0581 -0.0228
54035SOL    HW166662   1.430  11.405  11.324  0.0060  0.8244 -1.0356
54035SOL    HW266663   1.569  11.354  11.358 -1.4745 -1.4519  2.1460
54036SOL     OW66664  10.309   9.281   1.946  0.0159  0.4771 -0.1173
54036SOL    HW166665  10.250   9.231   2.003  1.0437  0.7758  1.2834
54036SOL    HW266666  10.383   9.222   1.930  0.5465  0.9964  0.3370
54037SOL     OW66667   0.642   3.882  10.474  0.5279 -0.3251  0.0130
54037SOL    HW166668   0.605   3.955  10.523 -1.7208 -1.7416  0.5820
54037SOL    HW266669   0.628   3.806  10.530  1.8352 -1.3664 -1.0144
54038SOL     OW66670   7.360   4.872   5.995 -0.1979 -0.2251 -1.3424
54038SOL    HW166671   7.321   4.834   5.916 -0.5543 -1.6404 -0.5286
54038SOL    HW266672   7.285   4.893   6.051  0.0033  1.6224 -1.7081
54039SOL     OW66673   6.686  10.306   1.077 -0.1816  0.2734 -0.1259
54039SOL    HW166674   6.670  10.335   0.988  0.2753  1.3683  0.1256
54039SOL    HW266675   6.601  10.316   1.121 -0.9282 -2.1370 -0.8810
54040SOL     OW66676   2.805   3.217   0.706  0.4467  0.0448  0.7030
54040SOL    HW166677   2.793   3.288   0.769  0.3630 -0.0748  0.8215
54040SOL    HW266678   2.900   3.201   0.706  0.3638 -0.4715  1.3650
54041SOL     OW66679   2.553   3.945   4.665  0.0347  0.4509 -0.6480
54041SOL    HW166680   2.589   4.004   4.731  0.6924  0.7657 -1.2748
54041SOL    HW266681   2.574   3.857   4.698 -1.1551  0.5245  0.4039
54042SOL     OW66682   6.672   7.192  10.529 -0.2318  0.1178 -0.1891
54042SOL    HW166683   6.727   7.155  10.460  1.2617  0.8437  0.5446
54042SOL    HW266684   6.615   7.121  10.556  1.2017 -1.0726 -0.1563
54043SOL     OW66685   8.870   7.544   8.933 -0.5415  0.2479  0.3286
54043SOL    HW166686   8.896   7.618   8.987  1.2116  1.1415 -1.6020
54043SOL    HW266687   8.953   7.504   8.906 -1.1532  0.9160 -3.0469
54044SOL     OW66688   0.301   6.974   7.260  0.7112 -0.5365 -0.1507
54044SOL    HW166689   0.210   6.998   7.279  1.0978  0.3512  0.6904
54044SOL    HW266690   0.302   6.952   7.167 -0.4122 -0.7990 -0.1079
54045SOL     OW66691   5.208   1.818   7.264 -0.6567  0.2970  0.1372
54045SOL    HW166692   5.236   1.803   7.354 -0.2281  0.5029  0.0425
54045SOL    HW266693   5.127   1.769   7.255  0.1247 -1.0473  0.1587
54046SOL     OW66694   2.859   9.425   4.213  0.3189  0.5155 -0.1164
54046SOL    HW166695   2.915   9.360   4.170  0.3916  0.1827  0.4660
54046SOL    HW266696   2.847   9.494   4.147  0.7434  0.2035 -0.5289
54047SOL     OW66697   1.492   9.294   4.732  0.0737 -0.2389 -0.1798
54047SOL    HW166698   1.417   9.339   4.770 -0.7400 -0.9033 -0.9418
54047SOL    HW266699   1.547   9.363   4.697  0.8506  0.4010  2.1366
54048SOL     OW66700   6.939  12.076   0.445  0.0707  0.8114  0.4946
54048SOL    HW166701   6.871  12.046   0.384 -0.1079  1.2533  0.4756
54048SOL    HW266702   7.021  12.056   0.400 -0.0586  2.3263 -0.4930
54049SOL     OW66703   7.101   0.652   9.600  0.0249 -0.6104  0.1649
54049SOL    HW166704   7.080   0.730   9.549 -1.4506 -0.1721  1.3729
54049SOL    HW266705   7.057   0.580   9.554  0.8035 -0.6329 -0.5599
54050SOL     OW66706   5.666   6.077   8.777 -0.2423  0.0023 -0.2995
54050SOL    HW166707   5.721   6.061   8.853  0.9701 -1.2619 -1.4032
54050SOL    HW266708   5.727   6.097   8.706 -0.8131 -4.2224 -2.2870
54051SOL     OW66709   0.334  11.059  11.377  0.3893 -0.0529 -0.1465
54051SOL    HW166710   0.421  11.066  11.337  0.6775 -0.7899  0.3333
54051SOL    HW266711   0.280  11.121  11.328  1.0130 -0.1030 -0.9206
54052SOL     OW66712  12.059   7.881   9.350  0.3261  0.2307 -0.5944
54052SOL    HW166713  12.148   7.844   9.346  0.1826 -0.2157  0.2802
54052SOL    HW266714  12.073   7.976   9.357  0.7729  0.0752  0.9362
54053SOL     OW66715  11.081   0.199   2.308  0.3616 -0.3988  0.0341
54053SOL    HW166716  11.133   0.248   2.244  3.4742 -0.2619  2.4059
54053SOL    HW266717  11.023   0.264   2.347 -0.3098 -0.1120 -1.4136
54054SOL     OW66718   5.540   5.111   7.641 -0.0676 -0.1316  0.0631
54054SOL    HW166719   5.558   5.139   7.551 -0.5901 -0.4855 -0.1555
54054SOL    HW266720   5.445   5.101   7.644 -0.0935  0.2589  0.7707
54055SOL     OW66721   6.476   2.856   5.206 -0.3114 -0.0155  0.2468
54055SOL    HW166722   6.382   2.858   5.225 -0.1851  0.0209  0.9231
54055SOL    HW266723   6.502   2.766   5.224  0.3122  0.5944  2.9992
54056SOL     OW66724  11.841  10.111   9.582 -0.3291  0.4299  0.1278
54056SOL    HW166725  11.861  10.194   9.538  0.6390 -0.6788 -1.6715
54056SOL    HW266726  11.916  10.056   9.562 -0.8449 -0.8087  1.5078
54057SOL     OW66727   0.127   7.817   3.453 -0.4374  0.6343 -0.0350
54057SOL    HW166728   0.180   7.737   3.447 -1.5309 -0.0144 -1.5048
54057SOL    HW266729   0.192   7.887   3.456  0.5276 -0.2307  0.3293
54058SOL     OW66730  10.535   7.206   1.133  0.5108 -0.7353  0.6593
54058SOL    HW166731  10.460   7.196   1.074  0.9906 -0.6270  0.0210
54058SOL    HW266732  10.611   7.196   1.077  1.0389  1.9302  0.7368
54059SOL     OW66733   1.526   5.328   5.760  0.4566  0.0461  0.1870
54059SOL    HW166734   1.585   5.285   5.699 -0.2550 -0.8818  0.1149
54059SOL    HW266735   1.571   5.324   5.844 -0.4437 -2.8290  0.6405
54060SOL     OW66736   7.556   7.721  10.173 -0.1884  0.0643 -0.2064
54060SOL    HW166737   7.538   7.661  10.101 -0.9560 -1.2287  1.0269
54060SOL    HW266738   7.570   7.665  10.249 -2.4514  1.4406  1.3257
54061SOL     OW66739   7.085   0.036   7.063 -1.0159  0.1953  0.1234
54061SOL    HW166740   7.006   0.077   7.027  0.4132  1.0083 -2.3038
54061SOL    HW266741   7.113   0.095   7.133 -2.0539  0.3540  0.4213
54062SOL     OW66742  10.423   2.033   2.704 -0.4189  0.3689 -0.2337
54062SOL    HW166743  10.515   2.017   2.682 -0.3399 -1.5938  1.2635
54062SOL    HW266744  10.426   2.108   2.763 -0.0657  1.7949 -1.9673
54063SOL     OW66745   6.807  11.907   7.104  0.0443  0.0934 -0.1719
54063SOL    HW166746   6.715  11.926   7.088  0.5388  4.1303  0.8371
54063SOL    HW266747   6.849  11.921   7.019  0.0133  0.5018 -0.1205
54064SOL     OW66748   2.945   9.022   5.161 -0.7689 -0.7338 -0.3763
54064SOL    HW166749   2.931   9.116   5.164  0.3285 -0.5655 -0.4156
54064SOL    HW266750   2.905   8.989   5.242  0.1542 -0.0522  0.3705
54065SOL     OW66751  10.494   3.128   8.890 -0.0595  0.4193 -0.7845
54065SOL    HW166752  10.558   3.171   8.946  1.1872 -0.1540 -1.7215
54065SOL    HW266753  10.474   3.046   8.935  1.2856 -0.2535 -1.3564
54066SOL     OW66754   6.982   4.354   8.186  0.5715  0.1204  0.0826
54066SOL    HW166755   6.933   4.274   8.205  1.3969 -0.1226  1.3139
54066SOL    HW266756   7.041   4.329   8.116  0.6455 -0.2847  0.2837
54067SOL     OW66757   9.031   5.679  12.072  0.8467 -0.4487  0.5994
54067SOL    HW166758   9.114   5.709  12.034  0.7574 -0.2330  0.5758
54067SOL    HW266759   8.994   5.620  12.007 -0.5822  1.9096 -0.8538
54068SOL     OW66760   7.464  10.249   9.748  0.3946  0.0723  0.3359
54068SOL    HW166761   7.509  10.251   9.832  1.9683 -0.3082 -0.4556
54068SOL    HW266762   7.530  10.279   9.685 -0.9073  0.8500 -0.7013
54069SOL     OW66763   7.741   5.662   0.582 -0.0280  0.1119 -0.2906
54069SOL    HW166764   7.755   5.573   0.615 -0.9759 -1.2611 -3.2903
54069SOL    HW266765   7.767   5.658   0.490 -0.3299  2.8941 -0.5662
54070SOL     OW66766   4.068   2.215   9.821 -0.2090  0.2207  0.4124
54070SOL    HW166767   4.074   2.239   9.914  1.1899  1.0899  0.1278
54070SOL    HW266768   4.144   2.157   9.806 -0.6648 -0.2579 -0.1005
54071SOL     OW66769   6.781   3.896   4.714 -0.1217  0.5697 -0.5394
54071SOL    HW166770   6.768   3.991   4.716  0.6166  0.8826 -4.3112
54071SOL    HW266771   6.875   3.884   4.731  0.2584  0.7736 -2.3173
54072SOL     OW66772   3.165  11.451   8.871 -0.4332  0.6503  0.1272
54072SOL    HW166773   3.121  11.502   8.804 -2.1022  0.2049  0.8300
54072SOL    HW266774   3.208  11.516   8.927 -0.2890  1.1057 -0.5059
54073SOL     OW66775   3.985   1.605   2.421 -0.3564 -0.0070 -0.2101
54073SOL    HW166776   3.937   1.661   2.483 -1.3856  0.3626 -1.3072
54073SOL    HW266777   4.002   1.661   2.346 -1.0617 -1.0369 -1.1698
54074SOL     OW66778  10.339   4.297  11.421 -0.4536  0.0351  0.3311
54074SOL    HW166779  10.246   4.319  11.432 -0.7771 -0.0390 -1.8918
54074SOL    HW266780  10.338   4.223  11.361  1.0082 -1.0860  1.6088
54075SOL     OW66781  10.443   1.106   1.172  0.0349  0.3999  0.4294
54075SOL    HW166782  10.361   1.141   1.208 -1.6557 -1.6226 -1.1331
54075SOL    HW266783  10.441   1.131   1.079  0.7256 -0.4214  0.1770
54076SOL     OW66784   3.382  11.328   3.426  0.1031 -0.4677 -0.3550
54076SOL    HW166785   3.431  11.264   3.374  0.9229 -0.4412  0.3595
54076SOL    HW266786   3.447  11.365   3.486 -0.7198 -0.1735  0.3768
54077SOL     OW66787   4.175   6.857   2.037  0.0447  0.0600  0.4583
54077SOL    HW166788   4.262   6.819   2.024  0.3130  0.5829  0.7042
54077SOL    HW266789   4.183   6.947   2.005 -0.4236  0.0967  0.4360
54078SOL     OW66790   8.071   1.453   0.149  0.2282 -0.3179 -0.0600
54078SOL    HW166791   7.987   1.451   0.103 -0.0638 -0.8604  0.4787
54078SOL    HW266792   8.102   1.362   0.145  0.1391 -0.3957  0.9091
54079SOL     OW66793   6.015   8.826   0.158 -0.1543  0.2068 -0.3354
54079SOL    HW166794   5.999   8.908   0.112 -2.7503 -1.5907 -3.0769
54079SOL    HW266795   5.934   8.808   0.205  0.1247 -1.0657 -0.2975
54080SOL     OW66796   0.946   3.235   3.506  0.0857 -0.2458 -0.1566
54080SOL    HW166797   0.926   3.322   3.542  1.5727 -0.0004  0.1571
54080SOL    HW266798   0.941   3.176   3.581 -0.8227 -0.4275 -0.3503
54081SOL     OW66799   3.904   3.171   3.940  0.0212 -0.1820 -0.4611
54081SOL    HW166800   3.832   3.208   3.992 -0.4087  0.4799 -1.5144
54081SOL    HW266801   3.983   3.208   3.980 -0.2929  0.2223 -0.1958
54082SOL     OW66802   4.794  11.490  10.552 -0.3223 -0.2180  0.2882
54082SOL    HW166803   4.881  11.460  10.526 -1.0154 -1.0388 -1.1993
54082SOL    HW266804   4.798  11.585  10.543 -0.0828 -0.3649 -1.5876
54083SOL     OW66805   0.731   5.668   5.891 -0.6865 -0.3724 -0.1911
54083SOL    HW166806   0.701   5.758   5.878 -0.2448 -0.3323 -0.9752
54083SOL    HW266807   0.815   5.663   5.845 -1.0072 -1.3627 -0.6904
54084SOL     OW66808   2.683   7.576   6.390 -0.3352  0.8482  0.1507
54084SOL    HW166809   2.668   7.482   6.393  1.5566  0.5320  1.3600
54084SOL    HW266810   2.643   7.610   6.470  0.2911  0.8351  0.4763
54085SOL     OW66811  11.696   5.088  11.294 -0.0127 -0.5308 -0.1629
54085SOL    HW166812  11.769   5.148  11.304  0.9361 -1.6158 -0.3507
54085SOL    HW266813  11.618   5.142  11.308  0.7370  1.0114 -1.5639
54086SOL     OW66814   4.524  10.379   0.983 -0.3984 -0.2081 -0.3668
54086SOL    HW166815   4.573  10.409   0.906 -0.2068  1.7589  0.4725
54086SOL    HW266816   4.437  10.356   0.948  0.0682 -0.5892 -1.3412
54087SOL     OW66817  11.631   3.101   1.692  0.1488  0.0981 -0.1479
54087SOL    HW166818  11.586   3.022   1.724  0.9950 -0.0518  0.7184
54087SOL    HW266819  11.716   3.069   1.662 -0.1346  0.4428 -1.3470
54088SOL     OW66820   9.786  11.082  10.264  0.6004 -0.1298 -0.0412
54088SOL    HW166821   9.698  11.106  10.236  0.1707  0.0087  1.3710
54088SOL    HW266822   9.803  11.136  10.342  2.0528  0.0657 -0.4509
54089SOL     OW66823  11.757   6.140  11.787 -0.2030 -0.7290  0.1225
54089SOL    HW166824  11.742   6.233  11.773  0.6931 -0.9503 -2.9802
54089SOL    HW266825  11.850   6.127  11.771 -0.6407 -2.4089 -1.4291
54090SOL     OW66826   5.833   5.905   5.771 -0.4474  0.0987  0.0781
54090SOL    HW166827   5.910   5.962   5.766 -2.1962  2.5836 -0.3829
54090SOL    HW266828   5.830   5.878   5.863 -0.7194  2.5644  0.8592
54091SOL     OW66829   9.743  10.945   0.121  0.1471  0.6890 -0.2068
54091SOL    HW166830   9.680  10.987   0.062  0.1662  0.7297 -0.1983
54091SOL    HW266831   9.732  10.851   0.103  0.6970  0.7390 -0.8362
54092SOL     OW66832   7.342   9.177   4.499  0.1149 -0.7431  0.0976
54092SOL    HW166833   7.313   9.210   4.414  1.1547  2.6894  0.9274
54092SOL    HW266834   7.265   9.185   4.555  0.4839  0.9234  0.4131
54093SOL     OW66835  10.429   6.609   5.851 -0.4386 -0.2495  0.5580
54093SOL    HW166836  10.366   6.559   5.904 -1.3040 -0.4397 -0.6060
54093SOL    HW266837  10.473   6.667   5.914 -2.1147  0.2274  1.3416
54094SOL     OW66838   7.371  11.600  10.545 -0.0245 -0.2637 -0.2659
54094SOL    HW166839   7.319  11.534  10.499 -0.5554 -1.1290  1.4894
54094SOL    HW266840   7.417  11.550  10.612 -0.5994  1.1876  1.2484
54095SOL     OW66841   1.798  10.124   6.559 -0.7175  0.2369  0.2522
54095SOL    HW166842   1.829  10.213   6.545 -0.5825  0.0998 -0.3620
54095SOL    HW266843   1.875  10.069   6.547 -0.8508  0.0192  0.3817
54096SOL     OW66844   7.641   5.816   1.390  0.3860 -0.0997 -0.0629
54096SOL    HW166845   7.600   5.733   1.366  2.1562 -2.0092  2.8442
54096SOL    HW266846   7.702   5.835   1.318  0.3847 -1.6612 -0.5057
54097SOL     OW66847   7.104   7.944  11.754  0.3902  0.2554 -0.2586
54097SOL    HW166848   7.183   7.933  11.701  0.1896 -1.1932 -0.3008
54097SOL    HW266849   7.081   7.855  11.781 -1.1850  0.6517 -0.1934
54098SOL     OW66850   3.100   6.454   5.150  0.2135 -0.2265 -0.0345
54098SOL    HW166851   3.022   6.474   5.202 -1.0449 -2.8647 -0.7573
54098SOL    HW266852   3.171   6.452   5.214 -0.4030  1.4877  0.7588
54099SOL     OW66853   2.107   2.705   7.014 -0.0209 -0.0382  0.1937
54099SOL    HW166854   2.100   2.733   7.106 -2.9546 -0.6306  0.2543
54099SOL    HW266855   2.146   2.780   6.969  0.0478  0.8674  1.6815
54100SOL     OW66856   5.981   0.489   1.136 -0.0084  0.0485  0.7300
54100SOL    HW166857   5.969   0.422   1.204  1.1720 -2.3476 -1.2515
54100SOL    HW266858   6.037   0.555   1.176  1.4503 -1.7678  1.8617
54101SOL     OW66859   1.894   1.521  12.037 -0.5476 -0.1108  0.2360
54101SOL    HW166860   1.804   1.549  12.052 -0.2264  1.2820 -0.2331
54101SOL    HW266861   1.946   1.573  12.099  0.1039  0.6272 -0.8797
54102SOL     OW66862  10.296   0.682   0.846 -0.1841 -0.3153  0.0345
54102SOL    HW166863  10.331   0.762   0.805 -1.6855  0.4565  0.1754
54102SOL    HW266864  10.357   0.614   0.821  0.8987  0.8041 -0.4877
54103SOL     OW66865   6.787   7.675   1.640 -0.0168 -0.0874  0.0272
54103SOL    HW166866   6.880   7.653   1.646  0.7698  2.6700 -0.5338
54103SOL    HW266867   6.785   7.771   1.636 -2.8976 -0.0532 -0.0550
54104SOL     OW66868   4.068   4.936   7.811  0.1381 -0.5191 -0.2106
54104SOL    HW166869   4.045   4.950   7.720 -0.0601  0.1374 -0.0664
54104SOL    HW266870   4.149   4.886   7.808  0.1501 -0.4701 -0.7495
54105SOL     OW66871   4.677   5.530   9.583  0.1599  0.5353  0.0577
54105SOL    HW166872   4.615   5.510   9.653 -1.1297  1.3014 -0.8239
54105SOL    HW266873   4.688   5.625   9.587 -2.3476  1.0716 -2.6309
54106SOL     OW66874   5.878   9.840   3.738  0.1136 -0.6913  0.2382
54106SOL    HW166875   5.933   9.818   3.663  1.1284  0.6916  0.5390
54106SOL    HW266876   5.898   9.931   3.757 -2.2479 -0.1394  0.4191
54107SOL     OW66877   0.994   6.496   8.585 -0.2533 -0.4270 -0.8315
54107SOL    HW166878   1.043   6.575   8.561  1.3849 -0.6215  1.4600
54107SOL    HW266879   1.009   6.487   8.679 -1.0682 -3.0427 -0.8712
54108SOL     OW66880  10.859   4.922   1.443  0.2729  0.5693 -0.5863
54108SOL    HW166881  10.887   4.996   1.389 -1.2880  1.4002 -0.3078
54108SOL    HW266882  10.773   4.898   1.408 -0.2892  0.4329  0.8408
54109SOL     OW66883  11.283   3.886   5.455  0.7405 -0.3560 -0.0424
54109SOL    HW166884  11.378   3.893   5.445  0.9156 -2.7256 -0.6019
54109SOL    HW266885  11.271   3.849   5.543  0.1818  1.8953  0.8873
54110SOL     OW66886   5.097   2.885   9.582  0.2384  0.4378 -0.0866
54110SOL    HW166887   5.115   2.964   9.632  1.4626  0.5473 -0.6655
54110SOL    HW266888   5.083   2.916   9.492 -0.6450  0.1158 -0.0779
54111SOL     OW66889   6.106   6.652   9.534 -0.4689  0.2092  0.2389
54111SOL    HW166890   6.117   6.702   9.615 -0.0424 -0.5555  0.6619
54111SOL    HW266891   6.172   6.687   9.475  0.1581 -0.1739  0.6982
54112SOL     OW66892   9.039   7.150   8.007  0.7716  0.1445  0.1762
54112SOL    HW166893   9.025   7.168   8.100  3.4438 -0.2982  0.7347
54112SOL    HW266894   9.071   7.059   8.005  2.5136  0.7456 -0.9386
54113SOL     OW66895   1.588   5.364   6.335 -0.1089  0.0178 -0.0187
54113SOL    HW166896   1.569   5.411   6.416  1.0817  1.1131 -0.3331
54113SOL    HW266897   1.508   5.316   6.316 -0.4085 -0.3179  1.8259
54114SOL     OW66898   6.450   9.382   9.018  0.3517 -0.1148  0.2421
54114SOL    HW166899   6.380   9.397   8.955 -0.0402  0.1638  0.7368
54114SOL    HW266900   6.451   9.461   9.072  1.6336  0.2843 -0.2988
54115SOL     OW66901   0.512   1.930   9.609 -0.3746  0.2445 -0.3357
54115SOL    HW166902   0.544   2.020   9.607  0.4000 -0.0301 -0.4333
54115SOL    HW266903   0.520   1.900   9.519 -1.2862  0.2883 -0.4500
54116SOL     OW66904   6.553   2.056   0.769  0.3904 -0.2566 -0.6336
54116SOL    HW166905   6.520   2.000   0.699 -0.6785 -0.1071 -0.2567
54116SOL    HW266906   6.648   2.041   0.768  0.0954 -2.6205 -0.0704
54117SOL     OW66907   0.519   0.620   8.462 -0.0628  0.6474 -0.0738
54117SOL    HW166908   0.480   0.626   8.375 -0.8004  0.6776  0.2508
54117SOL    HW266909   0.572   0.541   8.460 -2.4158 -1.0284  0.3521
54118SOL     OW66910   8.588   1.070   4.157 -0.5324  0.3872 -0.1626
54118SOL    HW166911   8.611   1.073   4.064  0.6890  0.6229  0.1269
54118SOL    HW266912   8.596   1.160   4.187 -1.5146  0.4168  0.0559
54119SOL     OW66913   1.401   1.260   3.717  0.1037  0.4405 -0.3130
54119SOL    HW166914   1.468   1.327   3.732 -0.8799  1.7607 -1.4700
54119SOL    HW266915   1.425   1.220   3.634  0.4308 -0.3490  0.1521
54120SOL     OW66916  10.083   4.440   0.004  0.4099  0.1153  0.1020
54120SOL    HW166917  10.039   4.358  -0.020  1.0815  0.0878 -1.1503
54120SOL    HW266918  10.108   4.428   0.095 -1.5886 -0.1093  0.6668
54121SOL     OW66919   2.853   9.599   4.003  0.0394 -0.9571  0.2508
54121SOL    HW166920   2.915   9.661   4.042  0.3783 -1.7264  0.9570
54121SOL    HW266921   2.778   9.654   3.978 -0.0750 -0.3792  1.7279
54122SOL     OW66922   5.846   4.395   4.782 -0.3654  0.1935 -0.0184
54122SOL    HW166923   5.773   4.337   4.803 -0.3635  0.1424 -0.1525
54122SOL    HW266924   5.862   4.443   4.864 -0.9247  0.6196 -0.1473
54123SOL     OW66925   5.940   6.153   5.997 -0.0464  0.0857  0.2058
54123SOL    HW166926   5.960   6.102   6.075 -0.0557  0.3137  0.3567
54123SOL    HW266927   5.845   6.159   5.995 -0.0008  2.3428  1.6458
54124SOL     OW66928   5.516   9.171   4.372 -0.3008 -0.0463  0.1642
54124SOL    HW166929   5.564   9.188   4.291 -2.4412 -0.8719 -1.3652
54124SOL    HW266930   5.512   9.076   4.378  1.7914 -0.0687  2.5371
54125SOL     OW66931   0.202   9.781   0.430  0.4042 -0.1997  0.2280
54125SOL    HW166932   0.230   9.761   0.341  3.3258  0.8909  0.7615
54125SOL    HW266933   0.178   9.874   0.427  0.1025 -0.2698  0.4775
54126SOL     OW66934   8.768   9.370   2.658 -0.2325  0.5009 -0.7164
54126SOL    HW166935   8.796   9.425   2.731  0.0017 -1.5842  0.8822
54126SOL    HW266936   8.748   9.285   2.698 -0.9548 -0.4903 -2.9732
54127SOL     OW66937   7.792   4.390   8.311 -0.0154 -0.0317 -0.3696
54127SOL    HW166938   7.697   4.379   8.302  0.0360 -1.7249  0.6959
54127SOL    HW266939   7.829   4.326   8.250  0.3903 -0.7698  0.6100
54128SOL     OW66940   9.502   4.862  12.111 -0.1637 -0.1245  0.4184
54128SOL    HW166941   9.563   4.933  12.129 -1.1252  0.5351  1.2134
54128SOL    HW266942   9.441   4.864  12.185 -1.4148 -0.4505 -0.5688
54129SOL     OW66943   6.320   7.404   6.340  0.1909 -0.4360  0.3301
54129SOL    HW166944   6.367   7.407   6.424 -1.8994 -0.8575  1.5907
54129SOL    HW266945   6.270   7.322   6.344 -1.5909  0.5727 -0.3679
54130SOL     OW66946   5.324  10.467   8.418  0.2396  0.2079 -0.7560
54130SOL    HW166947   5.332  10.375   8.441 -0.5892  0.3598  0.2529
54130SOL    HW266948   5.298  10.510   8.500  1.8401  1.5380 -0.8888
54131SOL     OW66949   2.353   3.584   3.608 -0.1457 -0.2109  0.3260
54131SOL    HW166950   2.376   3.605   3.698  1.5142 -0.9088  0.0894
54131SOL    HW266951   2.367   3.490   3.600 -1.8608 -0.4715 -0.2363
54132SOL     OW66952   8.342   3.493   0.417 -0.7152 -0.5119  0.3265
54132SOL    HW166953   8.310   3.583   0.413  2.1207  0.5530 -1.6920
54132SOL    HW266954   8.328   3.459   0.329 -0.7105 -1.6741  0.7557
54133SOL     OW66955   3.344   7.866   7.918  0.5641  0.5210  0.3275
54133SOL    HW166956   3.260   7.830   7.945 -0.2759  2.4208  0.4086
54133SOL    HW266957   3.361   7.826   7.833 -0.2192 -0.1953  0.4923
54134SOL     OW66958   5.199   2.581   1.904  0.4519  0.7364  0.3716
54134SOL    HW166959   5.284   2.540   1.888  0.8419  1.4741  0.4982
54134SOL    HW266960   5.174   2.617   1.818  0.1121  0.2413  0.2606
54135SOL     OW66961   4.149   0.306   2.058 -0.0613 -0.5698  0.3943
54135SOL    HW166962   4.088   0.300   2.132 -0.3820 -1.6898  0.0528
54135SOL    HW266963   4.212   0.235   2.073  0.6879  0.0660  0.3094
54136SOL     OW66964   7.138   8.494  11.682 -0.0100  0.8453  0.0376
54136SOL    HW166965   7.053   8.523  11.715 -0.1834 -1.3460  1.7685
54136SOL    HW266966   7.117   8.431  11.614  0.2482  0.7486  0.0482
54137SOL     OW66967   5.188   5.093   6.762 -0.2073 -0.1959  0.4841
54137SOL    HW166968   5.124   5.062   6.826 -0.2474  1.3149  1.2225
54137SOL    HW266969   5.272   5.058   6.793 -0.2699  0.2766  1.2125
54138SOL     OW66970   8.021   0.086  11.118 -1.2541 -0.1809 -0.0135
54138SOL    HW166971   8.004   0.155  11.182  1.4755  4.3529 -3.5879
54138SOL    HW266972   7.952   0.096  11.053 -1.2102 -1.3548 -0.2660
54139SOL     OW66973   5.805   8.821   4.459 -0.0373 -0.4914  0.0384
54139SOL    HW166974   5.790   8.757   4.528  0.8063 -0.4135  0.3010
54139SOL    HW266975   5.897   8.844   4.467 -0.0465 -0.1250 -0.8093
54140SOL     OW66976   4.257   2.863   8.250 -0.2388 -0.7440 -0.0864
54140SOL    HW166977   4.293   2.837   8.165 -0.1354 -0.3757 -0.1595
54140SOL    HW266978   4.174   2.815   8.257 -1.1926  0.6636 -1.2547
54141SOL     OW66979   2.920   0.327   6.916 -0.0826 -0.1685 -0.0874
54141SOL    HW166980   3.010   0.357   6.920 -0.5624  1.1921  2.0070
54141SOL    HW266981   2.924   0.234   6.939  0.7341 -0.0081  0.4380
54142SOL     OW66982   9.423   3.044   1.826  0.1860  0.4673 -0.0358
54142SOL    HW166983   9.386   3.053   1.914  0.2130  1.1048 -0.0875
54142SOL    HW266984   9.508   3.088   1.831  0.7186 -0.5362 -0.0588
54143SOL     OW66985   1.647   0.168  10.859  0.1192 -0.5193 -0.0352
54143SOL    HW166986   1.710   0.095  10.858  0.1939 -0.4589 -0.9727
54143SOL    HW266987   1.696   0.241  10.899  0.2770 -0.7794  0.2551
54144SOL     OW66988  11.633  11.615   1.469  0.1394 -0.4762 -0.0326
54144SOL    HW166989  11.657  11.707   1.463 -1.3297 -0.1410 -1.6629
54144SOL    HW266990  11.581  11.609   1.549  2.1496 -0.4160  1.3437
54145SOL     OW66991   9.440   0.185   2.818  0.2391 -0.0367 -0.8415
54145SOL    HW166992   9.406   0.244   2.752  2.5521  0.5548 -1.5921
54145SOL    HW266993   9.377   0.113   2.820 -2.4033  2.1178 -0.2381
54146SOL     OW66994   8.079   2.183   3.155  0.2692  0.0700  0.0059
54146SOL    HW166995   8.033   2.102   3.133  0.6547 -1.1570  3.1058
54146SOL    HW266996   8.033   2.216   3.232  1.4533  1.6447  0.0789
54147SOL     OW66997   9.055  11.312  11.214  0.0595 -0.2322 -0.3090
54147SOL    HW166998   9.011  11.376  11.270 -0.9294  0.7555 -2.1137
54147SOL    HW266999   9.091  11.364  11.143 -0.0864 -1.6052 -1.4237
54148SOL     OW67000   0.425   5.393   3.980 -0.5374  0.2904 -0.6508
54148SOL    HW167001   0.507   5.441   3.971 -0.0027 -0.4987 -0.0522
54148SOL    HW267002   0.369   5.430   3.912  0.0745  1.3093 -0.6311
54149SOL     OW67003   9.843   4.876  11.637  0.1068  0.3214  0.1423
54149SOL    HW167004   9.864   4.828  11.717  0.2621  0.4746  0.1932
54149SOL    HW267005   9.814   4.808  11.576 -0.6244  0.2744  0.5299
54150SOL     OW67006  10.630   6.965   2.548  0.0673 -0.5979 -0.2158
54150SOL    HW167007  10.544   6.937   2.581  0.3152  0.1223  1.1066
54150SOL    HW267008  10.691   6.903   2.588  0.1379 -1.4872 -1.6370
54151SOL     OW67009   7.083   3.600   1.653 -0.2177 -0.2051 -0.0027
54151SOL    HW167010   7.125   3.659   1.716 -0.3299 -0.3158  0.1791
54151SOL    HW267011   7.083   3.514   1.697 -1.1370 -0.0950  0.2457
54152SOL     OW67012   0.207   4.349   5.674  0.2798  0.0857 -0.3469
54152SOL    HW167013   0.129   4.322   5.625 -1.8336  0.7562  2.3661
54152SOL    HW267014   0.258   4.269   5.682 -0.6384 -0.6393 -1.3122
54153SOL     OW67015   0.024  10.041   2.643 -0.0455 -0.3618 -1.2019
54153SOL    HW167016   0.058  10.094   2.715 -0.8916  1.5215 -2.1135
54153SOL    HW267017   0.070   9.958   2.650 -0.7553 -0.6099  2.0422
54154SOL     OW67018  11.369   3.856   9.551 -1.0697 -0.4707  0.4846
54154SOL    HW167019  11.385   3.856   9.457 -0.2750 -1.8617  0.6050
54154SOL    HW267020  11.321   3.776   9.568 -1.4697 -0.0855  1.2336
54155SOL     OW67021   9.830   9.997   7.813  0.2100  0.0348 -0.2634
54155SOL    HW167022   9.801   9.939   7.884 -1.6208 -1.0317 -1.7850
54155SOL    HW267023   9.879   9.940   7.754  0.9352  0.7148 -0.3384
54156SOL     OW67024   0.854   0.798   1.153 -0.0320 -0.5074 -0.5093
54156SOL    HW167025   0.933   0.760   1.190 -0.1187 -0.2472 -0.0538
54156SOL    HW267026   0.815   0.848   1.224  1.2760  2.3752 -1.6560
54157SOL     OW67027   4.782   8.337   5.542 -0.4410 -0.3468  0.6076
54157SOL    HW167028   4.852   8.335   5.476  0.7925  0.7497  1.8263
54157SOL    HW267029   4.719   8.273   5.511  1.1101 -1.4051 -0.5378
54158SOL     OW67030  10.875   2.869  11.813  0.3996 -0.1922 -0.4053
54158SOL    HW167031  10.798   2.916  11.847 -0.1326 -0.7760 -0.7923
54158SOL    HW267032  10.949   2.919  11.848 -0.1473  0.6771 -0.4279
54159SOL     OW67033   8.606   4.950   1.419 -0.6586  0.2359 -0.6325
54159SOL    HW167034   8.548   4.966   1.493  0.8041  1.1377  0.3629
54159SOL    HW267035   8.562   4.994   1.345 -1.3782  0.6468  0.0260
54160SOL     OW67036   8.073  10.354   3.761 -0.1093  0.1032 -0.0057
54160SOL    HW167037   8.029  10.328   3.842  1.5230 -1.5810  0.4232
54160SOL    HW267038   8.007  10.344   3.693 -0.4783 -2.2593  0.6205
54161SOL     OW67039   4.456   7.230   4.755  0.4732 -0.1369  0.3592
54161SOL    HW167040   4.368   7.260   4.732 -0.0528 -1.1961  0.9474
54161SOL    HW267041   4.494   7.302   4.805 -0.3328  0.0381  0.7341
54162SOL     OW67042   9.254   6.507   8.994 -0.4029 -0.8130  0.3040
54162SOL    HW167043   9.199   6.559   8.936  1.9726  0.9256 -0.5280
54162SOL    HW267044   9.204   6.501   9.075 -2.0783  0.1071 -0.6194
54163SOL     OW67045   3.852   6.790   8.356 -0.7876  0.2218  0.5486
54163SOL    HW167046   3.937   6.834   8.365 -1.9072  2.2678  1.8086
54163SOL    HW267047   3.875   6.699   8.337  1.7030  0.5873  1.3656
54164SOL     OW67048  10.876  11.879   8.171  0.3275 -0.1262  0.4657
54164SOL    HW167049  10.796  11.878   8.118  0.5280 -0.1807  0.1610
54164SOL    HW267050  10.943  11.914   8.113  0.3167  0.8580  1.0242
54165SOL     OW67051   5.492   7.129  10.415  0.1699 -0.0839 -0.4816
54165SOL    HW167052   5.514   7.102  10.505  1.9412  2.2342 -0.1183
54165SOL    HW267053   5.576   7.155  10.377 -0.8785  1.2745 -1.9807
54166SOL     OW67054   6.702   7.157   3.883  0.5690  0.7950 -0.2431
54166SOL    HW167055   6.642   7.122   3.817  0.3075 -0.6507  0.7165
54166SOL    HW267056   6.647   7.175   3.959  1.1506  0.6196  0.2320
54167SOL     OW67057   6.090  10.417   9.324  0.3339 -0.3620 -0.0955
54167SOL    HW167058   6.182  10.404   9.298  1.1050 -1.0315  2.6256
54167SOL    HW267059   6.055  10.329   9.331 -0.7191 -0.0925 -1.5793
54168SOL     OW67060   5.853   0.483   3.321  0.3469 -0.1218  0.3068
54168SOL    HW167061   5.803   0.407   3.292 -1.3243  0.6813  0.9558
54168SOL    HW267062   5.837   0.487   3.416  0.2634  1.1351  0.2538
54169SOL     OW67063  11.850   0.968   0.201  0.4061 -0.1085 -0.3020
54169SOL    HW167064  11.915   0.926   0.144 -0.4053  0.2395 -1.5413
54169SOL    HW267065  11.898   1.036   0.247  1.3168 -1.0907  0.2417
54170SOL     OW67066   0.934   6.598   3.003  0.1014  0.2923  0.2961
54170SOL    HW167067   0.961   6.510   3.031  0.9346  0.0575 -1.1442
54170SOL    HW267068   0.866   6.583   2.937  1.0507  0.6613 -0.7994
54171SOL     OW67069   4.615   9.280   5.721 -0.2633  0.0378 -0.5310
54171SOL    HW167070   4.645   9.189   5.721 -0.9076 -0.1843  0.0783
54171SOL    HW267071   4.662   9.319   5.795 -1.1728 -0.2189  0.2019
54172SOL     OW67072   8.082   9.320   9.151 -0.5439  0.7571  0.3518
54172SOL    HW167073   8.032   9.256   9.100  0.3015  0.4566 -0.1332
54172SOL    HW267074   8.016   9.371   9.197 -1.2920  0.3559 -0.2414
54173SOL     OW67075   4.508   2.143   9.312 -0.6391 -0.1581 -0.1070
54173SOL    HW167076   4.527   2.051   9.291  0.5924  0.0958 -0.1855
54173SOL    HW267077   4.584   2.191   9.279 -1.4008  0.9321 -0.3161
54174SOL     OW67078  12.007  10.189   8.323 -0.1249  0.4650  0.0192
54174SOL    HW167079  12.053  10.167   8.242 -0.9678  2.2681 -1.0016
54174SOL    HW267080  11.914  10.191   8.298 -0.5180 -0.0513  1.3141
54175SOL     OW67081   1.933   8.043   9.741  0.0545 -0.4083  0.9884
54175SOL    HW167082   1.912   8.084   9.657  0.6505  1.1480  1.5538
54175SOL    HW267083   2.008   7.987   9.723 -0.3217 -0.7096  0.3288
54176SOL     OW67084   2.554   8.116   9.677  0.4918 -0.5258  0.4339
54176SOL    HW167085   2.591   8.088   9.761  0.6981  1.3498  1.0100
54176SOL    HW267086   2.611   8.187   9.648  1.2439 -2.0107 -2.0169
54177SOL     OW67087   4.321   1.677   7.362  0.2342  0.0785 -0.2528
54177SOL    HW167088   4.371   1.623   7.301 -1.3018 -1.6407 -0.0805
54177SOL    HW267089   4.328   1.631   7.446 -2.7990 -1.1495 -0.5329
54178SOL     OW67090   1.784   0.568   2.830 -0.0405  0.6665 -0.1323
54178SOL    HW167091   1.727   0.542   2.758  1.4475 -1.6547 -0.6028
54178SOL    HW267092   1.803   0.660   2.814 -0.2758  0.3935 -2.3763
54179SOL     OW67093   8.983   7.138   4.479 -0.3529 -0.3183  0.6501
54179SOL    HW167094   8.995   7.210   4.417  0.5901 -1.2064 -0.2465
54179SOL    HW267095   8.900   7.157   4.523 -1.8828 -0.4430 -2.0017
54180SOL     OW67096   3.977   2.646   4.817  0.6278  0.2031  0.6255
54180SOL    HW167097   3.939   2.616   4.734 -1.5363  1.8456  0.9252
54180SOL    HW267098   3.933   2.594   4.884  0.5246  0.5779  0.8554
54181SOL     OW67099   5.324  11.083   0.697 -0.3878  0.7262 -0.0355
54181SOL    HW167100   5.372  11.148   0.646 -0.2319  0.7721  0.1683
54181SOL    HW267101   5.365  11.000   0.674  0.5488  0.8755  0.9750
54182SOL     OW67102   7.651   0.916   0.215 -0.2483 -0.2588  0.2794
54182SOL    HW167103   7.626   0.930   0.124  0.7693 -1.6528 -0.2305
54182SOL    HW267104   7.568   0.925   0.264 -0.6466  1.4568 -0.6243
54183SOL     OW67105   8.543   6.970  10.023 -0.0283 -0.1071 -0.4886
54183SOL    HW167106   8.511   7.058  10.042 -3.2097 -1.5832  2.0523
54183SOL    HW267107   8.612   6.955  10.087 -0.8822 -0.1300  0.4419
54184SOL     OW67108   8.195  11.162   1.881 -0.5660  0.1229  0.2452
54184SOL    HW167109   8.124  11.170   1.818 -0.3955  0.8147  0.1369
54184SOL    HW267110   8.267  11.213   1.844 -0.2541  0.0223  0.6989
54185SOL     OW67111   9.886   9.973   6.037  0.2124 -0.3860 -0.3030
54185SOL    HW167112   9.839  10.033   5.979  0.1930 -1.7892 -1.8345
54185SOL    HW267113   9.978   9.984   6.012  0.3556 -0.0555  0.3442
54186SOL     OW67114   6.074   9.619   3.774 -0.3867  0.8731  1.1387
54186SOL    HW167115   6.123   9.603   3.694  0.7269  0.8783  1.7936
54186SOL    HW267116   5.986   9.585   3.756  0.2597 -0.5174  0.4392
54187SOL     OW67117   9.645   7.090   5.070 -0.2650 -0.4813 -0.3264
54187SOL    HW167118   9.660   7.120   4.980  0.4931  0.8379  0.2148
54187SOL    HW267119   9.598   7.161   5.112  2.3487  0.4889  1.2305
54188SOL     OW67120  10.478   9.161   4.453 -0.1504  0.1100  0.1985
54188SOL    HW167121  10.395   9.207   4.467 -1.2589 -2.0653  1.3996
54188SOL    HW267122  10.544   9.218   4.492 -1.3536  0.9712  1.0589
54189SOL     OW67123  11.684   7.084   4.662  0.1251 -0.3470 -0.3596
54189SOL    HW167124  11.670   7.069   4.568 -0.6313  0.2019 -0.3425
54189SOL    HW267125  11.768   7.131   4.666 -0.4874  0.8538 -0.8927
54190SOL     OW67126   0.359  11.526   5.000 -0.4135  0.4711  0.4433
54190SOL    HW167127   0.439  11.572   4.972  1.8758 -3.4704 -0.2870
54190SOL    HW267128   0.303  11.595   5.036  1.2829  4.2280 -3.2684
54191SOL     OW67129   2.745  10.240   9.747  0.2528  0.2986 -0.0327
54191SOL    HW167130   2.780  10.235   9.836  1.1891 -0.6067 -0.4366
54191SOL    HW267131   2.733  10.334   9.731 -0.4563  0.4489  1.2306
54192SOL     OW67132   3.412   0.940   6.904  0.1677 -0.2425 -0.3514
54192SOL    HW167133   3.483   0.927   6.840  0.5710 -0.4948  0.1344
54192SOL    HW267134   3.452   0.918   6.988 -0.1844  0.6936  0.0689
54193SOL     OW67135  12.124   9.283   0.055  0.2437  0.3515  0.7199
54193SOL    HW167136  12.157   9.244  -0.025  0.1237  0.8616  0.4205
54193SOL    HW267137  12.067   9.216   0.093  0.1983  0.1637  0.3160
54194SOL     OW67138   6.521   4.654   1.596  0.6235  0.2380 -0.2237
54194SOL    HW167139   6.608   4.694   1.600 -0.2282  2.1440 -0.0085
54194SOL    HW267140   6.460   4.727   1.605 -1.0195 -1.2999  1.9598
54195SOL     OW67141   3.353  10.163   2.792  0.2203  0.7228  0.1982
54195SOL    HW167142   3.413  10.199   2.726 -0.5082  3.2053  0.7909
54195SOL    HW267143   3.266  10.188   2.761 -0.2767 -0.0152  0.9835
54196SOL     OW67144   1.392   9.233   0.922 -0.1567  0.2318 -0.3810
54196SOL    HW167145   1.436   9.254   1.005  0.6423  0.0263 -0.7457
54196SOL    HW267146   1.323   9.299   0.915 -1.9760 -1.2837  1.7308
54197SOL     OW67147   5.423  11.629   9.886 -0.0712  0.2789  0.2344
54197SOL    HW167148   5.437  11.537   9.910  3.1555  0.8201  0.9732
54197SOL    HW267149   5.344  11.628   9.831  0.5437 -3.1144 -0.8619
54198SOL     OW67150   8.069   5.853   1.142  0.1633  0.4890  0.4759
54198SOL    HW167151   8.107   5.865   1.055 -0.0152  3.0799  0.6711
54198SOL    HW267152   8.139   5.877   1.202  0.4048 -1.6422  1.1193
54199SOL     OW67153   9.155   6.006   5.607 -0.0963  0.5005 -0.0671
54199SOL    HW167154   9.081   5.950   5.584 -2.1239  2.1972  1.9570
54199SOL    HW267155   9.138   6.089   5.562  1.4528  0.4498 -0.8371
54200SOL     OW67156   5.124   9.291   2.613  0.4596 -0.3125 -0.0466
54200SOL    HW167157   5.060   9.267   2.546  0.7852  0.1070 -0.5084
54200SOL    HW267158   5.192   9.338   2.566  1.2210 -0.9385  0.4121
54201SOL     OW67159   6.293   8.342   0.674  0.7035  0.8390  0.1205
54201SOL    HW167160   6.335   8.256   0.663 -0.2890  0.3775 -0.2109
54201SOL    HW267161   6.358   8.395   0.720  1.8462  0.3145 -0.8381
54202SOL     OW67162   9.471   3.111   3.831  0.0381 -0.5096  0.1978
54202SOL    HW167163   9.465   3.094   3.737  1.2068 -0.1314  0.0344
54202SOL    HW267164   9.565   3.111   3.849 -0.1500 -3.0815  1.8251
54203SOL     OW67165   7.617   5.786   7.751 -0.0348 -0.3172  0.2693
54203SOL    HW167166   7.610   5.825   7.664  2.2173  1.0038  0.5881
54203SOL    HW267167   7.580   5.698   7.742 -0.7891  0.1624 -1.7407
54204SOL     OW67168   9.819   0.533   6.142  0.0800  1.0044  0.1859
54204SOL    HW167169   9.882   0.491   6.084 -0.0418 -0.3641  0.9858
54204SOL    HW267170   9.744   0.553   6.086 -0.8476 -2.0447  0.1076
54205SOL     OW67171   6.640   0.595   6.840  0.1737  0.7614  0.5402
54205SOL    HW167172   6.594   0.513   6.860  0.0597  0.6022 -0.3534
54205SOL    HW267173   6.580   0.643   6.782  1.4991  0.1285 -1.4568
54206SOL     OW67174  10.628   3.621   1.919  0.1267 -0.4642  0.4250
54206SOL    HW167175  10.693   3.603   1.988  1.0630  0.0304 -0.2997
54206SOL    HW267176  10.680   3.626   1.839 -0.8775 -0.4533 -0.2391
54207SOL     OW67177  11.589   0.871   1.629 -0.4929 -0.8016 -0.0781
54207SOL    HW167178  11.638   0.909   1.556 -1.0795 -2.9571 -1.7113
54207SOL    HW267179  11.502   0.853   1.594 -1.4637 -0.0557  1.7904
54208SOL     OW67180   0.643   6.090   4.649 -0.4077  0.2212 -0.0172
54208SOL    HW167181   0.599   6.175   4.640 -0.6328  0.2468  1.1033
54208SOL    HW267182   0.575   6.030   4.678  0.6144  0.8180  4.3431
54209SOL     OW67183   2.003  10.606   7.403 -0.5225  0.2141  0.5203
54209SOL    HW167184   2.068  10.668   7.367 -0.5827 -0.3726 -0.6380
54209SOL    HW267185   2.013  10.614   7.498 -0.2654  1.7247  0.3923
54210SOL     OW67186  10.112  11.598   5.452 -0.0189  0.2035 -0.3291
54210SOL    HW167187  10.160  11.659   5.397  0.2448  0.5412  0.2604
54210SOL    HW267188  10.152  11.608   5.539 -0.4851 -0.2457 -0.0573
54211SOL     OW67189   1.959  11.050   8.443  0.2257  0.3243 -0.3730
54211SOL    HW167190   2.012  11.083   8.370  0.3925  0.0638 -0.3684
54211SOL    HW267191   2.016  11.058   8.520  0.2393  0.0910 -0.3599
54212SOL     OW67192   1.754  11.844   7.777 -0.4590 -0.0586  1.1149
54212SOL    HW167193   1.795  11.887   7.701 -3.6207 -1.6953 -1.7950
54212SOL    HW267194   1.824  11.791   7.815  1.1644  0.4078 -0.9823
54213SOL     OW67195  10.087   3.948   0.911  0.0750 -0.2254 -0.0583
54213SOL    HW167196  10.056   3.932   0.822 -1.8699 -1.5468  0.7939
54213SOL    HW267197  10.129   4.034   0.906 -0.4883 -0.0107 -2.1256
54214SOL     OW67198   9.705   0.700   4.366 -0.2384 -0.0688 -0.0177
54214SOL    HW167199   9.739   0.614   4.344 -1.9916 -0.2897 -2.2401
54214SOL    HW267200   9.779   0.760   4.352  0.3515 -0.9549 -0.7662
54215SOL     OW67201   2.679  11.256   2.826  0.4412 -0.4286 -0.3887
54215SOL    HW167202   2.696  11.328   2.887  2.9671 -2.4813  1.5530
54215SOL    HW267203   2.689  11.295   2.739 -0.9700  2.0818  0.4841
54216SOL     OW67204   2.535   8.945   1.280  0.1403  0.0954 -0.2534
54216SOL    HW167205   2.497   8.998   1.210 -0.9632 -0.7688 -0.3413
54216SOL    HW267206   2.614   8.992   1.306 -0.7004  1.6746 -0.4377
54217SOL     OW67207   0.254   3.447   2.332  0.1113 -0.4675 -0.5615
54217SOL    HW167208   0.343   3.457   2.365 -0.3199  0.2810  0.4481
54217SOL    HW267209   0.223   3.364   2.370  0.1249 -0.3523 -0.2988
54218SOL     OW67210   9.765  11.081   7.052 -0.1549  0.2859  0.2988
54218SOL    HW167211   9.687  11.025   7.049 -0.3222  0.4912  0.7094
54218SOL    HW267212   9.788  11.095   6.960 -1.3524  1.2711  0.1207
54219SOL     OW67213   2.222   1.868   8.865  0.1109  0.2708  0.2814
54219SOL    HW167214   2.246   1.826   8.782 -0.3386  0.9114 -0.1799
54219SOL    HW267215   2.183   1.797   8.917  0.9124 -0.2619  0.1716
54220SOL     OW67216  11.002  11.102   4.211 -0.2184  0.1222  0.4030
54220SOL    HW167217  10.933  11.166   4.196  0.8600  1.2877  0.2899
54220SOL    HW267218  11.010  11.055   4.128 -1.2329 -0.4208  0.5872
54221SOL     OW67219  10.190   0.789   4.060  0.0551 -0.3348 -0.9073
54221SOL    HW167220  10.222   0.726   3.996  2.8931 -0.0284  0.0957
54221SOL    HW267221  10.225   0.873   4.032  0.5549 -0.0478  0.4920
54222SOL     OW67222  11.018  11.042  10.774  0.3847  0.3102  0.0779
54222SOL    HW167223  11.057  11.008  10.855  0.7981  1.2500  0.2891
54222SOL    HW267224  11.093  11.067  10.720  0.1044  2.1776  0.5045
54223SOL     OW67225   0.883   7.149   0.315  0.0633 -0.0821  0.2135
54223SOL    HW167226   0.824   7.205   0.366  1.3025  0.2267  1.3441
54223SOL    HW267227   0.852   7.060   0.333  1.5916 -0.1476  3.1222
54224SOL     OW67228   8.618  11.830  10.436 -0.2649 -0.3408  0.0350
54224SOL    HW167229   8.578  11.867  10.515  0.1010 -0.6186  0.3550
54224SOL    HW267230   8.639  11.740  10.459  1.0806 -0.0420  0.0883
54225SOL     OW67231   5.546   9.161   5.705 -0.8306  0.3038 -0.2594
54225SOL    HW167232   5.549   9.252   5.677  0.6652 -0.0944 -1.4677
54225SOL    HW267233   5.519   9.112   5.628  0.6590 -0.5086 -0.3060
54226SOL     OW67234   0.451   3.852  11.444 -0.0484  0.2638 -0.0418
54226SOL    HW167235   0.433   3.797  11.520  1.0425 -0.5426 -0.3522
54226SOL    HW267236   0.525   3.907  11.470  0.1282  0.2049 -0.4061
54227SOL     OW67237   3.107   3.035  10.642 -0.3770  0.0408  0.3052
54227SOL    HW167238   3.155   3.045  10.725  0.3602  1.2141 -0.2250
54227SOL    HW267239   3.113   2.942  10.622  1.3241  0.0675  0.5012
54228SOL     OW67240  12.018   3.278   5.999  0.8396  0.2542  0.0269
54228SOL    HW167241  12.050   3.336   5.929  0.5560  0.2349 -0.1198
54228SOL    HW267242  12.040   3.324   6.080 -0.0198  0.9100 -0.0996
54229SOL     OW67243   7.093   6.294   6.603  0.1385  0.7807 -0.0349
54229SOL    HW167244   7.121   6.385   6.617  0.1711  0.4992  2.0053
54229SOL    HW267245   7.084   6.258   6.691 -0.3763 -1.0597 -0.7991
54230SOL     OW67246   2.722   0.242   4.847  0.2417 -0.8502  0.3573
54230SOL    HW167247   2.666   0.193   4.906 -1.4714  0.1576 -0.3589
54230SOL    HW267248   2.727   0.189   4.767  0.4738 -1.0350  0.4954
54231SOL     OW67249   7.744   6.367   1.986 -0.0013  0.2148 -0.8238
54231SOL    HW167250   7.691   6.444   2.005  1.6291  1.0382  0.6781
54231SOL    HW267251   7.825   6.403   1.947  2.3373 -0.2602  3.0976
54232SOL     OW67252   8.630   2.802   5.835 -0.1268  0.2558 -0.6804
54232SOL    HW167253   8.668   2.879   5.794  2.5001 -1.1866 -1.1854
54232SOL    HW267254   8.647   2.814   5.929  1.4761 -0.2434 -0.8737
54233SOL     OW67255   3.869   2.637  11.208 -0.3172 -0.1536 -0.8090
54233SOL    HW167256   3.794   2.582  11.184 -2.5757  2.1768  0.3875
54233SOL    HW267257   3.902   2.670  11.124  0.2760 -2.2316 -1.4407
54234SOL     OW67258  10.686   0.147   8.878  0.4676  0.0668  0.0534
54234SOL    HW167259  10.690   0.225   8.822 -0.1122  0.1436  0.1175
54234SOL    HW267260  10.699   0.074   8.818 -1.1198  0.0840 -0.3531
54235SOL     OW67261   9.049   9.197   3.883  0.3384 -0.1159  0.3982
54235SOL    HW167262   9.136   9.158   3.876  0.0577 -0.6220 -0.5160
54235SOL    HW267263   8.996   9.146   3.822  0.5433  3.3150 -3.0522
54236SOL     OW67264   7.111   6.062   1.968  0.0968 -0.3916 -0.4870
54236SOL    HW167265   7.031   6.023   2.001 -0.1501 -0.1768 -0.8212
54236SOL    HW267266   7.082   6.137   1.916  0.5243 -0.1810 -0.4311
54237SOL     OW67267   9.341   0.588   9.302  0.6114  0.2851 -0.2212
54237SOL    HW167268   9.331   0.575   9.396  0.4025 -0.0353 -0.2849
54237SOL    HW267269   9.287   0.519   9.262  0.2610  0.7570 -0.5727
54238SOL     OW67270   2.248   6.758   7.738 -0.3271 -0.6319  0.5252
54238SOL    HW167271   2.155   6.781   7.748 -0.5455 -1.1415 -0.2531
54238SOL    HW267272   2.255   6.672   7.780 -0.0198 -0.2415  1.3035
54239SOL     OW67273   2.965   3.402   5.117  0.1695 -0.3029  0.0904
54239SOL    HW167274   2.907   3.457   5.170 -0.9684  0.1885 -1.5743
54239SOL    HW267275   2.988   3.457   5.042  1.8189 -0.9377  0.0898
54240SOL     OW67276   0.075   7.082   6.348  0.5388 -0.0874 -0.4531
54240SOL    HW167277   0.053   7.055   6.259  0.1011 -1.5197  0.0657
54240SOL    HW267278   0.005   7.143   6.373 -0.1855 -0.8630 -0.5535
54241SOL     OW67279   7.678   0.422   6.022 -0.0835 -0.4763  0.0689
54241SOL    HW167280   7.662   0.515   6.037  1.9228  0.1240 -1.0628
54241SOL    HW267281   7.620   0.400   5.949  0.9832  0.5174 -1.1420
54242SOL     OW67282   9.607   9.662  10.301 -0.2884  0.1070 -0.0985
54242SOL    HW167283   9.652   9.729  10.248  0.7317  0.3582  1.0445
54242SOL    HW267284   9.662   9.584  10.293 -0.6808 -0.1606 -0.2255
54243SOL     OW67285   7.799   6.834  10.610  0.1492 -0.9046 -0.0383
54243SOL    HW167286   7.894   6.847  10.608  0.1546 -1.0158 -0.9497
54243SOL    HW267287   7.769   6.883  10.686  0.7817  0.1897 -0.4709
54244SOL     OW67288   8.845   0.187   8.893 -0.3011  0.0942 -0.3353
54244SOL    HW167289   8.775   0.141   8.938  0.2546 -0.0935  0.3677
54244SOL    HW267290   8.811   0.204   8.805 -2.9226  3.6931  1.1211
54245SOL     OW67291   9.186  11.143   6.803 -0.1490  0.3616  0.0280
54245SOL    HW167292   9.201  11.141   6.709  2.8543 -1.7634  0.3994
54245SOL    HW267293   9.238  11.219   6.833  1.2792 -0.6374  0.1925
54246SOL     OW67294   8.088   1.985   3.560 -0.3919 -0.1880 -0.5127
54246SOL    HW167295   8.025   1.930   3.607  1.2670 -1.5058  0.2468
54246SOL    HW267296   8.143   1.923   3.512  2.2456  0.6595  1.2464
54247SOL     OW67297   9.895   5.877   3.263  0.5842 -0.1005  0.1856
54247SOL    HW167298   9.898   5.944   3.195  1.9736  0.8209  1.1067
54247SOL    HW267299   9.817   5.825   3.242  0.1147  1.0988 -1.2025
54248SOL     OW67300   0.751   4.616   3.335  0.1312  0.2610 -0.2574
54248SOL    HW167301   0.703   4.534   3.331 -0.1434  0.2982  1.4953
54248SOL    HW267302   0.698   4.677   3.283 -0.5843 -0.2343 -0.1306
54249SOL     OW67303  10.788   9.135   9.099 -0.0066  0.3136  0.3726
54249SOL    HW167304  10.859   9.120   9.037  0.9015  2.7541  0.7102
54249SOL    HW267305  10.721   9.071   9.075  1.0064  0.0499 -2.0013
54250SOL     OW67306   9.144   7.868   6.900 -0.6787 -0.3091  0.0507
54250SOL    HW167307   9.058   7.880   6.941 -0.7859  0.0674 -0.2808
54250SOL    HW267308   9.123   7.848   6.809 -0.4397 -1.0734  0.1592
54251SOL     OW67309   5.624   0.601  11.356 -0.0299 -0.8798  0.1978
54251SOL    HW167310   5.550   0.656  11.382  1.1675  1.0140 -0.1576
54251SOL    HW267311   5.689   0.663  11.323  0.4311 -2.7314 -2.7362
54252SOL     OW67312   6.497   0.176   2.284  0.4089  0.3131 -0.1074
54252SOL    HW167313   6.512   0.261   2.243  2.1128  0.9053  1.5832
54252SOL    HW267314   6.539   0.113   2.226  1.9470  1.0262  0.1881
54253SOL     OW67315   4.962  10.980  10.299 -0.2133  0.5431  0.2045
54253SOL    HW167316   4.927  11.055  10.251 -1.5942 -1.2219 -1.6771
54253SOL    HW267317   4.896  10.959  10.364 -1.1086 -0.6177 -1.0272
54254SOL     OW67318   0.913   4.598  10.334  0.6852  0.0233  0.3725
54254SOL    HW167319   0.862   4.543  10.275  1.5756  1.3933 -1.7780
54254SOL    HW267320   0.987   4.629  10.282  1.9324  0.7486  2.4218
54255SOL     OW67321   6.519  10.577   6.048  0.5692  0.4542  0.1528
54255SOL    HW167322   6.468  10.516   5.995  2.9518  0.2000 -2.0309
54255SOL    HW267323   6.516  10.660   5.999  0.2111  1.1489  1.3054
54256SOL     OW67324   1.505  10.501  10.470  0.0524 -0.2509  0.1697
54256SOL    HW167325   1.431  10.513  10.528 -2.1151 -3.6125 -1.5489
54256SOL    HW267326   1.508  10.407  10.454  3.1093  0.0347 -1.9301
54257SOL     OW67327   4.273   8.907   1.768 -0.2329  0.4246  0.0786
54257SOL    HW167328   4.182   8.881   1.783 -0.1158 -0.0242  0.0167
54257SOL    HW267329   4.324   8.848   1.823 -0.0477  1.5444  1.1542
54258SOL     OW67330  10.047   9.722   2.544  0.1710  0.1597  0.0042
54258SOL    HW167331   9.999   9.777   2.483  0.4277  0.5037  0.1144
54258SOL    HW267332   9.993   9.721   2.623 -0.3081 -0.5197 -0.3164
54259SOL     OW67333   0.146  10.605  10.484 -0.2953  0.4811 -0.4559
54259SOL    HW167334   0.118  10.605  10.576 -1.0369 -0.9677 -0.6523
54259SOL    HW267335   0.070  10.573  10.435  0.4788  0.0490 -1.4295
54260SOL     OW67336  10.518   9.506   2.413 -0.3805 -0.9488  0.0036
54260SOL    HW167337  10.496   9.511   2.506 -2.1596 -0.8448 -0.3829
54260SOL    HW267338  10.469   9.578   2.374  0.7938 -0.6410 -0.9594
54261SOL     OW67339   6.977   4.470   1.652  0.3564 -0.0942 -0.1577
54261SOL    HW167340   7.006   4.379   1.663  0.1971 -0.2368 -0.8782
54261SOL    HW267341   7.053   4.522   1.677 -0.1473 -0.3511  2.2390
54262SOL     OW67342   0.960   6.134   1.352  0.9263  0.1024 -0.1311
54262SOL    HW167343   0.917   6.173   1.429  1.5858 -0.4043  0.5156
54262SOL    HW267344   0.894   6.139   1.283 -1.1271 -2.8375  1.4096
54263SOL     OW67345   2.304   4.946   1.992 -0.8716  0.0145 -0.1738
54263SOL    HW167346   2.395   4.937   2.022 -0.5766  2.2465 -0.2366
54263SOL    HW267347   2.252   4.912   2.064 -0.1019  3.6030  2.3746
54264SOL     OW67348  10.922  11.900   5.100  0.5160 -0.2942 -0.3784
54264SOL    HW167349  10.920  11.829   5.036  0.4097 -0.7908  0.1703
54264SOL    HW267350  10.923  11.856   5.185  2.8106  0.3042 -0.0249
54265SOL     OW67351   2.492   1.382  10.088 -0.6818 -0.3622  0.5403
54265SOL    HW167352   2.419   1.441  10.070 -0.0562  0.0795 -0.6474
54265SOL    HW267353   2.545   1.429  10.153  0.1621  0.7246 -0.8772
54266SOL     OW67354   4.106   2.023  11.169  0.0572 -0.0754  0.5238
54266SOL    HW167355   4.053   1.995  11.243 -1.2634 -0.1731 -0.4370
54266SOL    HW267356   4.156   1.946  11.145 -0.7449 -0.5239  0.2740
54267SOL     OW67357   5.560  10.630  11.978  0.1905 -0.5916  0.4305
54267SOL    HW167358   5.585  10.542  11.952  1.9739  0.5290 -1.9250
54267SOL    HW267359   5.570  10.683  11.899 -3.0321  1.3588  1.1363
54268SOL     OW67360   8.704   0.711   8.687 -0.3890  0.6862  0.3031
54268SOL    HW167361   8.709   0.689   8.594 -0.2488 -1.1533  0.7190
54268SOL    HW267362   8.645   0.646   8.724  2.5296 -1.1008  2.1832
54269SOL     OW67363  10.321   5.267   8.773  0.3517  0.8365 -0.3014
54269SOL    HW167364  10.269   5.347   8.774  1.5595  1.6288  0.7078
54269SOL    HW267365  10.321   5.237   8.864 -0.7299 -0.7617 -0.7885
54270SOL     OW67366   1.183   9.184   0.432  0.2307 -0.0352 -0.1300
54270SOL    HW167367   1.096   9.178   0.471 -0.0276 -0.8240 -0.8048
54270SOL    HW267368   1.189   9.275   0.402 -1.7266 -0.7283 -3.0854
54271SOL     OW67369   0.869   5.507   1.189 -0.0232  0.3361 -0.5072
54271SOL    HW167370   0.833   5.594   1.207 -1.5900 -0.5803  1.1011
54271SOL    HW267371   0.823   5.479   1.110 -1.0028  0.2194  0.0765
54272SOL     OW67372   4.365   7.989   0.319  0.1191 -0.0594 -0.0141
54272SOL    HW167373   4.406   8.056   0.373  0.8444 -0.9615  0.5771
54272SOL    HW267374   4.278   7.977   0.358  0.3049 -0.0606  0.4063
54273SOL     OW67375   3.877   0.930  11.820  0.1798 -0.1502  0.1866
54273SOL    HW167376   3.865   0.893  11.907  0.3982 -0.7524 -0.0283
54273SOL    HW267377   3.836   1.016  11.824 -0.8765 -0.6455  0.5439
54274SOL     OW67378   0.603   6.912   5.655  0.2505 -0.3747  0.0227
54274SOL    HW167379   0.524   6.957   5.626  0.1612 -0.1225  0.6421
54274SOL    HW267380   0.587   6.820   5.634 -0.9648 -0.6015  1.7085
54275SOL     OW67381   1.280   2.640   1.379  0.4141 -0.4819 -0.3293
54275SOL    HW167382   1.204   2.583   1.392  0.5074 -0.4643  0.3009
54275SOL    HW267383   1.266   2.712   1.440  0.6365 -0.1676 -0.6461
54276SOL     OW67384   9.091  11.283   8.800 -0.3514 -0.0475 -0.0698
54276SOL    HW167385   9.072  11.313   8.711 -0.7107 -0.3684 -0.1071
54276SOL    HW267386   9.119  11.361   8.847  0.2169  0.0529 -0.5659
54277SOL     OW67387  10.314   7.743   3.570  0.4825  0.0784  0.6083
54277SOL    HW167388  10.306   7.817   3.510 -0.3221 -0.2572  0.2830
54277SOL    HW267389  10.379   7.771   3.634  1.1060  0.5767 -0.2230
54278SOL     OW67390   5.109   5.164   5.080  0.0769 -0.3609  0.3908
54278SOL    HW167391   5.194   5.157   5.122 -0.1121  2.5309  1.4306
54278SOL    HW267392   5.046   5.157   5.152 -0.3463  1.9733  0.3171
54279SOL     OW67393   1.027   1.859   3.960 -0.3232  0.2091  0.1356
54279SOL    HW167394   0.986   1.943   3.943 -0.4820  0.4408  1.5334
54279SOL    HW267395   1.082   1.874   4.037 -1.6372 -1.3409  1.4519
54280SOL     OW67396  11.960   5.997   6.000 -0.5802 -0.1979  0.1307
54280SOL    HW167397  11.877   5.974   5.958 -0.6992 -1.4346  0.9914
54280SOL    HW267398  11.934   6.044   6.080 -0.4867 -1.0780  0.6900
54281SOL     OW67399   7.688  10.405  11.298  0.7194  0.1428 -0.4029
54281SOL    HW167400   7.635  10.396  11.219  0.0146 -1.4938  0.1909
54281SOL    HW267401   7.700  10.499  11.309 -1.0957  0.5192 -1.2192
54282SOL     OW67402   0.077   4.673   7.216 -0.4165 -0.1124  0.7839
54282SOL    HW167403   0.027   4.631   7.286 -0.9061 -0.1870  0.3941
54282SOL    HW267404   0.017   4.676   7.142 -0.4439  1.4120  0.8320
54283SOL     OW67405   8.929   9.219   3.111 -0.1349 -0.2926 -0.1200
54283SOL    HW167406   9.009   9.177   3.141 -1.3062 -1.1421  2.0625
54283SOL    HW267407   8.940   9.312   3.134  0.2173 -0.4002  0.1423
54284SOL     OW67408   8.360   4.207   5.140  0.7136 -0.4097 -0.1056
54284SOL    HW167409   8.387   4.293   5.106  1.8539 -1.3744 -1.8326
54284SOL    HW267410   8.291   4.227   5.203 -1.4779  1.6166 -2.8485
54285SOL     OW67411   7.266  11.986   3.570  0.6065  0.1935 -0.7296
54285SOL    HW167412   7.215  11.905   3.564  1.1664 -0.3034  0.8371
54285SOL    HW267413   7.201  12.056   3.570 -0.0521 -0.3918  0.4551
54286SOL     OW67414   5.695  10.540   9.144  0.3360 -0.5766  0.0335
54286SOL    HW167415   5.723  10.521   9.055  1.4418 -1.6403  0.5844
54286SOL    HW267416   5.762  10.600   9.178 -1.6994  2.3752 -0.8015
54287SOL     OW67417   7.069  10.295  11.644 -0.1629  0.0499 -0.2348
54287SOL    HW167418   6.976  10.310  11.653 -0.0029  0.6128  0.5226
54287SOL    HW267419   7.086  10.304  11.550 -0.6637  1.1054 -0.2281
54288SOL     OW67420   7.881   7.076   3.685  0.2143 -0.1173 -0.3083
54288SOL    HW167421   7.973   7.070   3.662  0.0741  0.0598 -0.9369
54288SOL    HW267422   7.875   7.152   3.743  0.1573  1.2123 -1.9711
54289SOL     OW67423   2.675   8.739   7.990 -0.0858 -0.0676  0.0822
54289SOL    HW167424   2.692   8.764   8.081 -2.1045  0.5655  0.3376
54289SOL    HW267425   2.753   8.692   7.963  1.1730  1.0053  1.6746
54290SOL     OW67426   2.188   3.103   1.553  0.1082 -0.0423 -0.1828
54290SOL    HW167427   2.133   3.165   1.506 -0.7401 -1.5598 -1.3032
54290SOL    HW267428   2.260   3.084   1.493 -0.8754 -1.8443 -0.8648
54291SOL     OW67429   9.798   1.667  10.431 -0.2293  0.4231  0.1007
54291SOL    HW167430   9.746   1.602  10.479 -0.8295 -0.1841 -1.3167
54291SOL    HW267431   9.873   1.618  10.399 -0.6861  0.4003 -0.9732
54292SOL     OW67432   1.026   6.779  10.909  0.5880 -0.1345  0.0070
54292SOL    HW167433   1.030   6.700  10.855 -0.8723  0.6986 -1.3850
54292SOL    HW267434   1.076   6.757  10.988  1.3328 -1.9701 -0.9362
54293SOL     OW67435   3.121   1.568   7.510 -0.1864  0.1445 -0.3377
54293SOL    HW167436   3.200   1.604   7.550  1.7080 -2.1538 -1.7415
54293SOL    HW267437   3.135   1.579   7.416 -1.9502  0.4161 -0.5924
54294SOL     OW67438   2.437   8.711   9.773 -0.5014 -0.5799  0.0431
54294SOL    HW167439   2.406   8.721   9.683 -1.6270  0.5035  0.5226
54294SOL    HW267440   2.470   8.797   9.797  1.8154 -1.3928 -0.0123
54295SOL     OW67441   2.816   2.748   2.002  0.2438  0.2026 -0.3354
54295SOL    HW167442   2.814   2.660   2.040 -0.6742  0.5907  0.5665
54295SOL    HW267443   2.781   2.737   1.914  0.7395 -0.4355 -0.4617
54296SOL     OW67444  11.440   5.252   6.232 -0.7007  0.0561 -0.4300
54296SOL    HW167445  11.484   5.317   6.287 -0.9674 -0.6032  0.5896
54296SOL    HW267446  11.510   5.210   6.182 -0.5260  1.0947 -1.0814
54297SOL     OW67447   8.892   0.768  10.254 -0.4843  0.3677 -0.1674
54297SOL    HW167448   8.942   0.816  10.320  0.9675  0.1772 -1.0859
54297SOL    HW267449   8.876   0.833  10.185  1.2074 -0.2993 -1.2643
54298SOL     OW67450   3.709   5.464   6.610 -0.0742 -0.1209  0.0024
54298SOL    HW167451   3.735   5.430   6.695 -0.2758 -0.6032 -0.1269
54298SOL    HW267452   3.661   5.544   6.630  2.5236  1.4969  0.1937
54299SOL     OW67453   6.563   2.757   0.992 -0.1589 -0.1273 -0.0880
54299SOL    HW167454   6.548   2.735   0.900 -0.0267  0.1068 -0.1664
54299SOL    HW267455   6.657   2.774   0.999  0.0850 -1.5992  0.4114
54300SOL     OW67456   1.703   9.048  10.237 -0.3877  0.1856 -0.1082
54300SOL    HW167457   1.793   9.029  10.264 -0.8748  0.4029  1.7572
54300SOL    HW267458   1.672   8.966  10.198  0.3249 -0.1556  0.0354
54301SOL     OW67459   3.859   5.530   7.208  0.1307 -0.3116  0.1030
54301SOL    HW167460   3.831   5.575   7.128  0.4458  0.5313  0.4568
54301SOL    HW267461   3.920   5.463   7.177 -0.7551 -0.8757 -0.4839
54302SOL     OW67462   2.112   5.689   3.923 -0.4709 -0.7345  0.0123
54302SOL    HW167463   2.172   5.623   3.957 -1.0144 -1.2043  0.0605
54302SOL    HW267464   2.025   5.650   3.930 -0.8179  0.0343  0.1748
54303SOL     OW67465   0.989   7.351   8.285 -0.5897  0.1480 -0.1557
54303SOL    HW167466   1.074   7.368   8.243 -1.3606  0.1938 -1.8129
54303SOL    HW267467   0.979   7.423   8.348  0.6057  0.1208  0.0866
54304SOL     OW67468   7.688   5.582   3.419  0.0143 -0.0949  0.6618
54304SOL    HW167469   7.721   5.671   3.409 -1.2388  0.1834 -1.9734
54304SOL    HW267470   7.731   5.532   3.350 -0.0393 -1.3234  1.4770
54305SOL     OW67471   8.302   1.869   5.477  0.1425 -0.4325 -0.3747
54305SOL    HW167472   8.224   1.843   5.526  1.3454  0.6343  2.2799
54305SOL    HW267473   8.273   1.945   5.426 -0.3746  0.5618  1.3294
54306SOL     OW67474   7.404   9.069  10.601  0.1003  0.4014  0.0419
54306SOL    HW167475   7.350   9.063  10.680  1.2787 -0.4170  0.8248
54306SOL    HW267476   7.463   9.143  10.617 -0.2362  0.7824 -0.4566
54307SOL     OW67477  11.458   7.607  11.052 -0.3304  0.0567 -0.7487
54307SOL    HW167478  11.540   7.652  11.073 -0.2805  0.1901 -1.2283
54307SOL    HW267479  11.405   7.673  11.006 -0.5611 -0.1413 -0.7691
54308SOL     OW67480  11.927   4.396   8.837 -0.4037 -0.2447  0.1151
54308SOL    HW167481  11.847   4.426   8.881  0.1517  0.9318  0.3595
54308SOL    HW267482  11.898   4.323   8.781 -1.8652  0.9217 -0.7057
54309SOL     OW67483   2.469   6.660   3.041  0.1023  0.4415 -0.1941
54309SOL    HW167484   2.443   6.745   3.006  0.4306  0.0695 -1.3827
54309SOL    HW267485   2.563   6.656   3.027 -0.1114 -0.7050 -1.5059
54310SOL     OW67486   7.769  11.285   4.177 -0.1068 -0.0301  0.2451
54310SOL    HW167487   7.796  11.227   4.107 -1.4378  0.3106 -0.5923
54310SOL    HW267488   7.757  11.228   4.253 -1.0864 -0.8205 -0.4797
54311SOL     OW67489   9.927   4.925   3.081  0.5683 -0.3474  0.2334
54311SOL    HW167490   9.953   4.939   3.172 -1.2945  0.6055  0.6778
54311SOL    HW267491  10.005   4.945   3.030  0.7404  2.6300  1.4452
54312SOL     OW67492   9.785  11.241   4.387 -0.1623 -0.0999 -0.3443
54312SOL    HW167493   9.828  11.207   4.465  0.3466  0.5644 -0.3213
54312SOL    HW267494   9.704  11.280   4.418  0.3828  0.8077 -0.0407
54313SOL     OW67495   0.091   4.359   8.379  0.0207 -0.8040  0.3331
54313SOL    HW167496   0.013   4.303   8.385 -1.2806  0.7305 -0.8896
54313SOL    HW267497   0.060   4.445   8.407  1.3395 -0.2044  0.0122
54314SOL     OW67498   8.523   0.891   0.213 -0.0415  0.4056  0.2612
54314SOL    HW167499   8.475   0.918   0.291  0.5279  1.2784  0.3204
54314SOL    HW267500   8.595   0.837   0.246 -0.9937 -0.9740  0.1666
54315SOL     OW67501   6.798   7.239  10.173  0.0706 -0.1623 -0.1051
54315SOL    HW167502   6.724   7.281  10.130 -0.0157 -0.3573 -0.1504
54315SOL    HW267503   6.856   7.311  10.197 -0.0067 -0.0305 -0.3090
54316SOL     OW67504   3.371  11.511   1.696 -0.0459 -0.0632 -0.2170
54316SOL    HW167505   3.335  11.473   1.616 -1.8418  0.5753  0.2467
54316SOL    HW267506   3.346  11.449   1.765 -1.9692  1.2906  0.3753
54317SOL     OW67507   1.746   9.174   1.763 -0.6154  0.1880 -0.3254
54317SOL    HW167508   1.741   9.269   1.760 -0.6609  0.1679 -2.2047
54317SOL    HW267509   1.761   9.153   1.855 -0.5342  2.0036  0.1040
54318SOL     OW67510  10.074   9.240   7.122 -0.2746  0.1291  0.5353
54318SOL    HW167511  10.025   9.323   7.123  0.5540  0.6560 -0.2994
54318SOL    HW267512  10.065   9.206   7.210  1.2672  2.2840  1.6322
54319SOL     OW67513   5.863   9.034   5.951  0.0556 -0.1444  0.3702
54319SOL    HW167514   5.844   8.952   5.995 -2.0195 -0.1953 -0.4863
54319SOL    HW267515   5.863   9.100   6.021 -0.7357 -0.5553  0.7680
54320SOL     OW67516  10.075  11.758   6.769  0.5438  0.3753 -0.0642
54320SOL    HW167517  10.007  11.798   6.824 -1.6352 -1.8368 -0.9777
54320SOL    HW267518  10.089  11.821   6.698 -0.2540  1.0404  0.3582
54321SOL     OW67519   6.956   7.568   6.184  0.0377 -0.4796  0.2630
54321SOL    HW167520   6.895   7.602   6.250  0.7307 -0.6068  0.9869
54321SOL    HW267521   6.912   7.492   6.147 -0.7038  0.0681  0.0015
54322SOL     OW67522   0.195   1.243   9.183 -0.6663 -0.7955 -0.6601
54322SOL    HW167523   0.259   1.205   9.244  0.2261  2.3838  0.6193
54322SOL    HW267524   0.234   1.231   9.097  2.5807  2.1988  0.1549
54323SOL     OW67525  10.849   4.960   8.490 -0.7021 -0.0136 -0.2891
54323SOL    HW167526  10.864   4.969   8.396 -0.0470 -1.0015 -0.2856
54323SOL    HW267527  10.760   4.926   8.496 -0.2193 -1.3941 -0.6302
54324SOL     OW67528   3.850   8.526  10.055  0.4074 -0.6749  0.6641
54324SOL    HW167529   3.754   8.528  10.054  0.4181  0.6721  0.0837
54324SOL    HW267530   3.873   8.439  10.023 -0.6265 -0.5711 -0.4173
54325SOL     OW67531   6.166   0.895   1.156 -0.1609 -0.3520  0.2185
54325SOL    HW167532   6.113   0.904   1.235  1.3942  0.4172  1.2247
54325SOL    HW267533   6.225   0.970   1.159  3.2465 -2.8299  0.9370
54326SOL     OW67534  10.280   3.016   1.529 -0.6778  0.0264 -0.2982
54326SOL    HW167535  10.272   2.978   1.441  0.1524  0.6195 -0.6457
54326SOL    HW267536  10.216   3.087   1.531 -0.8295 -0.1084 -0.3562
54327SOL     OW67537  11.153   9.645  11.755  0.3734  0.0213 -0.2726
54327SOL    HW167538  11.244   9.657  11.729  0.5845  0.5384  0.6727
54327SOL    HW267539  11.114   9.732  11.748  0.6463  0.3731  1.8599
54328SOL     OW67540   4.548   3.562   7.412 -0.5454 -0.0425  0.5948
54328SOL    HW167541   4.460   3.571   7.449 -0.3720  1.7326  0.6763
54328SOL    HW267542   4.597   3.636   7.447  1.1207 -1.2055  0.8405
54329SOL     OW67543   4.084   1.496   4.570  0.0694 -0.2455 -0.1474
54329SOL    HW167544   4.105   1.468   4.659 -1.3759  0.9092  0.6048
54329SOL    HW267545   4.132   1.578   4.558 -0.0667 -0.1815 -0.2645
54330SOL     OW67546   5.803   0.318   7.418 -0.7940  0.1049  0.5602
54330SOL    HW167547   5.709   0.299   7.417 -0.4169 -2.0775  1.3254
54330SOL    HW267548   5.832   0.299   7.328 -0.5564 -2.7652  1.1209
54331SOL     OW67549   0.676  11.535   8.094 -0.6970 -0.1689  0.8299
54331SOL    HW167550   0.769  11.514   8.098 -1.0846 -2.1798  0.7210
54331SOL    HW267551   0.632  11.451   8.111 -2.4878  0.6075  0.3100
54332SOL     OW67552  11.645   5.441   6.028  0.1071  0.0197  0.1767
54332SOL    HW167553  11.679   5.525   5.996  0.4453  0.9051  2.6601
54332SOL    HW267554  11.550   5.453   6.029  0.1908  0.7888  1.4530
54333SOL     OW67555   7.531   4.952   8.501  0.1132 -0.2057  0.2861
54333SOL    HW167556   7.486   5.035   8.519 -1.2584 -0.6184 -1.0192
54333SOL    HW267557   7.493   4.890   8.563  1.0344  0.0706  1.1630
54334SOL     OW67558  11.649   1.440   7.428  0.0793  0.4360 -0.7158
54334SOL    HW167559  11.643   1.515   7.369  1.0969  0.1854 -1.1568
54334SOL    HW267560  11.563   1.397   7.421 -0.9035  2.1086  0.3290
54335SOL     OW67561   1.309   6.629  10.709  0.5385 -0.3405  0.0223
54335SOL    HW167562   1.254   6.563  10.752 -0.6406  0.3852 -0.3159
54335SOL    HW267563   1.391   6.628  10.758  0.0451 -1.1112  0.8677
54336SOL     OW67564   8.160   9.202   3.677 -0.1378  0.1255  0.1914
54336SOL    HW167565   8.226   9.217   3.745 -0.9330  1.2727  0.7523
54336SOL    HW267566   8.109   9.128   3.709 -1.7044  1.8168  1.8694
54337SOL     OW67567   5.751   4.505   2.223  0.2846 -0.2884  0.0862
54337SOL    HW167568   5.761   4.550   2.140 -2.6403  3.6517  1.5564
54337SOL    HW267569   5.839   4.507   2.262  0.7556  2.3346 -0.8928
54338SOL     OW67570   9.659  10.456   5.854 -0.2306  0.0567 -0.7295
54338SOL    HW167571   9.742  10.500   5.839 -0.0308 -0.5681 -1.5152
54338SOL    HW267572   9.674  10.366   5.826 -1.1524 -0.0793 -0.8129
54339SOL     OW67573   9.384   5.735   1.879 -0.4590 -0.2232 -0.2550
54339SOL    HW167574   9.383   5.728   1.784  1.4010  1.7261 -0.4928
54339SOL    HW267575   9.350   5.823   1.897 -0.8617 -0.5908  0.8945
54340SOL     OW67576   9.550   0.286   8.663  0.1395  0.3876 -0.1748
54340SOL    HW167577   9.459   0.316   8.670  0.2653  0.7344 -0.0341
54340SOL    HW267578   9.564   0.272   8.569 -0.4122 -0.7584 -0.1112
54341SOL     OW67579   1.859   7.938   1.359  0.0489 -0.8212  0.3634
54341SOL    HW167580   1.882   7.924   1.450 -1.5474 -1.8319  0.6581
54341SOL    HW267581   1.807   8.019   1.359  0.8472 -0.3026  0.1949
54342SOL     OW67582   3.105   3.246  10.142 -0.0209  0.0425  0.8858
54342SOL    HW167583   3.183   3.227  10.193  1.6075 -0.4077 -1.5933
54342SOL    HW267584   3.066   3.160  10.125  0.9369 -0.1011 -0.7641
54343SOL     OW67585   0.369  11.019   8.469 -0.0625 -0.5794 -0.2699
54343SOL    HW167586   0.426  10.994   8.542 -2.3510 -1.3422  1.4074
54343SOL    HW267587   0.370  11.114   8.469  1.5397 -0.5756 -0.6028
54344SOL     OW67588   9.205   2.902   2.709 -0.0966 -0.3564 -0.5361
54344SOL    HW167589   9.157   2.981   2.736  0.2409 -1.1996  3.0969
54344SOL    HW267590   9.294   2.933   2.691 -0.4659  0.3410 -1.2535
54345SOL     OW67591   7.781   7.334  10.743 -0.3417 -0.5307  0.4832
54345SOL    HW167592   7.793   7.398  10.673  0.9449  0.1313  1.2744
54345SOL    HW267593   7.736   7.261  10.701  0.4250 -0.1664 -1.0498
54346SOL     OW67594   3.517   4.583   7.966  0.4371 -0.4732 -0.0407
54346SOL    HW167595   3.451   4.609   7.901  0.3058 -0.5436  0.0640
54346SOL    HW267596   3.466   4.551   8.040  0.5714  0.1232  0.3174
54347SOL     OW67597  11.689   7.191  10.345 -0.8225  0.0436 -0.1967
54347SOL    HW167598  11.711   7.153  10.430  0.1368 -1.6122 -1.1447
54347SOL    HW267599  11.748   7.266  10.337  1.1065 -1.4261 -0.5494
54348SOL     OW67600   5.663   8.200   9.046 -0.2734  0.6129 -0.7698
54348SOL    HW167601   5.606   8.159   9.111  0.9910 -0.2567 -0.1595
54348SOL    HW267602   5.638   8.159   8.963 -0.3956  0.0812 -0.4769
54349SOL     OW67603   3.269   1.832   4.202 -0.0414  0.1917  0.2392
54349SOL    HW167604   3.219   1.775   4.143 -0.3700 -0.2954  0.9741
54349SOL    HW267605   3.307   1.773   4.267 -1.5876  0.8943  1.8914
54350SOL     OW67606   4.971   2.846  10.805  0.7986  0.5845 -0.2745
54350SOL    HW167607   5.053   2.806  10.833 -0.6289 -1.8702  0.7716
54350SOL    HW267608   4.948   2.799  10.725  0.3351  1.1065 -0.4520
54351SOL     OW67609   8.337   9.033   1.100  0.0881  0.9693 -0.4925
54351SOL    HW167610   8.293   9.049   1.017  0.7262  0.7353 -0.8857
54351SOL    HW267611   8.415   9.089   1.098  1.2178 -0.5476 -0.9818
54352SOL     OW67612   7.310   3.420   1.402 -0.2578 -0.0693  0.3778
54352SOL    HW167613   7.368   3.347   1.427 -1.0796 -0.2711  1.7859
54352SOL    HW267614   7.359   3.499   1.425 -0.1542 -0.2170  0.6665
54353SOL     OW67615   8.702   8.735   7.481  0.3492  0.0582  0.2146
54353SOL    HW167616   8.634   8.729   7.549 -0.3384  0.8561 -0.3926
54353SOL    HW267617   8.701   8.649   7.439 -0.1732  0.0153  0.3107
54354SOL     OW67618  11.293   9.037   6.572 -0.3606  0.4019 -0.1462
54354SOL    HW167619  11.207   8.997   6.580  0.4171 -1.1524  1.2422
54354SOL    HW267620  11.308   9.078   6.658 -1.1997  4.0580 -1.5499
54355SOL     OW67621   9.861   7.250   2.728  0.5291  0.3027 -0.1125
54355SOL    HW167622   9.921   7.283   2.795  1.0102  0.7475 -0.7542
54355SOL    HW267623   9.775   7.285   2.753  0.6077  0.0596  0.5380
54356SOL     OW67624   5.600   9.078   8.341 -0.4597 -0.2135  0.0605
54356SOL    HW167625   5.592   9.007   8.405 -3.8789 -1.8901 -1.9076
54356SOL    HW267626   5.668   9.048   8.280 -2.4835 -2.4489 -1.2700
54357SOL     OW67627   5.698  10.230   1.991 -0.0150  0.2293 -0.5577
54357SOL    HW167628   5.635  10.211   2.061  1.1982  0.3390  0.6101
54357SOL    HW267629   5.763  10.160   1.997  0.2850  0.4227 -1.3632
54358SOL     OW67630   3.220   9.242   6.226 -0.1541  0.0542 -0.6675
54358SOL    HW167631   3.273   9.254   6.148  0.6614 -1.9603 -0.4837
54358SOL    HW267632   3.130   9.231   6.193  0.2127 -0.9952 -1.3510
54359SOL     OW67633   2.920   4.591  10.220  0.2845 -0.4723  0.0500
54359SOL    HW167634   2.988   4.535  10.183  0.5514  0.8917 -1.6100
54359SOL    HW267635   2.967   4.648  10.281  1.1875  2.0327 -2.7495
54360SOL     OW67636   8.660   2.230   1.805 -0.6192 -0.4006  0.5678
54360SOL    HW167637   8.645   2.136   1.816 -0.4375 -0.3496  1.2886
54360SOL    HW267638   8.624   2.270   1.884  2.6642 -0.2125  2.1625
54361SOL     OW67639   6.362   9.326   5.975  0.2524  0.1593 -0.5851
54361SOL    HW167640   6.407   9.323   5.891 -0.4993  1.6014 -1.0633
54361SOL    HW267641   6.379   9.414   6.009  1.8316 -0.8577  1.5347
54362SOL     OW67642   2.826  10.208   5.547 -0.0537 -0.7380  0.3404
54362SOL    HW167643   2.781  10.210   5.631  0.0766  0.0838  0.3995
54362SOL    HW267644   2.773  10.263   5.489  0.9766  0.4593  0.4805
54363SOL     OW67645   3.245   7.720   5.726 -0.5096  0.4611 -0.1333
54363SOL    HW167646   3.284   7.654   5.784 -0.3662  0.4587 -0.2335
54363SOL    HW267647   3.286   7.802   5.752 -0.7009  0.5127  0.0025
54364SOL     OW67648  10.241   6.205   6.244 -0.2396  0.5478 -0.1924
54364SOL    HW167649  10.208   6.151   6.315  1.9073  0.7635  1.0606
54364SOL    HW267650  10.301   6.148   6.196 -0.6383  0.8084 -1.0172
54365SOL     OW67651   9.500   6.615   0.265 -0.0296  0.4188 -0.0253
54365SOL    HW167652   9.462   6.660   0.189 -1.0581 -0.4573 -0.0511
54365SOL    HW267653   9.425   6.577   0.310  0.8266 -1.7644 -0.3107
54366SOL     OW67654   1.405   3.067   2.911 -0.7500 -0.2002  0.0019
54366SOL    HW167655   1.406   2.971   2.913 -0.1198 -0.1852  1.8713
54366SOL    HW267656   1.469   3.090   2.843 -0.4277 -1.0986 -0.0101
54367SOL     OW67657   3.601   4.765   8.969 -0.1212  0.5480 -0.1912
54367SOL    HW167658   3.508   4.785   8.981  0.0817  1.2184  0.3715
54367SOL    HW267659   3.643   4.851   8.963  0.3566  0.2449 -1.3248
54368SOL     OW67660   9.236   3.622   9.565 -0.0823  0.2020  0.1485
54368SOL    HW167661   9.301   3.664   9.508 -0.9907  1.2413 -0.1604
54368SOL    HW267662   9.153   3.661   9.538 -0.8318 -1.0412  0.5926
54369SOL     OW67663   8.248   3.069   3.489 -0.0267 -0.4633  0.4137
54369SOL    HW167664   8.268   3.056   3.582 -1.0733  1.7543  1.0153
54369SOL    HW267665   8.191   2.995   3.466  1.4721 -1.8802  1.0721
54370SOL     OW67666   8.092  10.043  10.475 -0.1059  0.2342 -0.0779
54370SOL    HW167667   8.183  10.033  10.503 -1.2351 -2.3364  3.2353
54370SOL    HW267668   8.081   9.979  10.405  0.7710  1.1723 -1.1210
54371SOL     OW67669   5.268   6.790   5.744  0.2721  0.8483 -0.1204
54371SOL    HW167670   5.291   6.780   5.651  1.9846 -0.5084  0.4047
54371SOL    HW267671   5.176   6.763   5.749 -0.1568  1.9009 -1.5517
54372SOL     OW67672   7.531  11.140   6.329  0.1864 -0.2093  0.2706
54372SOL    HW167673   7.544  11.190   6.249 -0.4258 -2.0219 -1.0276
54372SOL    HW267674   7.442  11.106   6.322  0.7907 -2.0306  0.7120
54373SOL     OW67675   7.471   4.838   2.691 -0.2929  0.1577 -0.0733
54373SOL    HW167676   7.563   4.853   2.669 -0.3483 -2.3842 -2.6377
54373SOL    HW267677   7.473   4.803   2.780  1.5524 -1.8415 -0.7991
54374SOL     OW67678   5.852   5.936   2.496 -0.0815  0.1061 -0.0480
54374SOL    HW167679   5.856   5.840   2.500  0.8806  0.0677 -1.1215
54374SOL    HW267680   5.844   5.964   2.587 -0.4700 -0.9985  0.2727
54375SOL     OW67681   9.191   9.136   2.031 -0.0288  0.5577  0.2655
54375SOL    HW167682   9.179   9.062   1.971 -0.0529  1.0139 -0.2946
54375SOL    HW267683   9.271   9.113   2.079 -0.5310 -0.2580  0.7365
54376SOL     OW67684   4.878   7.890   0.683  0.0593 -0.1142  0.9821
54376SOL    HW167685   4.933   7.921   0.611 -0.6530 -0.2703  0.3707
54376SOL    HW267686   4.908   7.800   0.699 -1.3280 -0.9316 -0.6945
54377SOL     OW67687   4.122   5.371  10.037 -0.6564  0.1508  0.5888
54377SOL    HW167688   4.203   5.336  10.076 -0.3079  0.8225  0.4874
54377SOL    HW267689   4.091   5.436  10.101  0.1980  1.6381 -0.4393
54378SOL     OW67690   2.960   5.568   3.365  0.5589  0.3008  0.3120
54378SOL    HW167691   2.974   5.473   3.366  1.6143  0.4235 -0.7385
54378SOL    HW267692   2.896   5.584   3.434 -2.5133 -1.6278 -1.8460
54379SOL     OW67693   8.332  10.626   4.285 -0.2084 -0.1822  0.3870
54379SOL    HW167694   8.321  10.696   4.221 -3.0244 -0.5306  0.3858
54379SOL    HW267695   8.370  10.554   4.235 -2.2146 -0.3912 -0.9161
54380SOL     OW67696   4.772   7.593   1.935  0.0126  0.0111  0.4771
54380SOL    HW167697   4.778   7.667   1.874  0.1474  0.9014  1.5578
54380SOL    HW267698   4.789   7.516   1.880 -0.6809  0.7163 -0.7815
54381SOL     OW67699   0.090   3.644   6.507  0.2397  0.4065  0.4066
54381SOL    HW167700   0.164   3.600   6.466  0.1078 -1.4715  2.0275
54381SOL    HW267701   0.119   3.735   6.517  0.6249  0.7663 -2.7996
54382SOL     OW67702  11.750   9.915   5.158  0.1440  0.3237  0.2357
54382SOL    HW167703  11.826   9.869   5.124  0.3095  0.4888  0.3784
54382SOL    HW267704  11.786   9.994   5.199 -0.3061  2.0837 -2.4593
54383SOL     OW67705   0.413   9.801   7.996 -0.0379  0.1230 -0.1378
54383SOL    HW167706   0.375   9.868   7.939  1.3793  1.5416  0.5074
54383SOL    HW267707   0.481   9.847   8.046 -0.9460 -1.1039  2.4450
54384SOL     OW67708   1.299   1.510   9.695  0.6228  0.0986  0.2243
54384SOL    HW167709   1.360   1.463   9.638  0.1946  0.4359 -0.5166
54384SOL    HW267710   1.257   1.440   9.747  0.5695 -0.2697 -0.3059
54385SOL     OW67711   4.308  10.362  11.799 -0.0667  0.2799  0.2117
54385SOL    HW167712   4.230  10.309  11.817 -0.9301  1.5362  0.3751
54385SOL    HW267713   4.308  10.428  11.869  0.6288  0.8452 -0.3085
54386SOL     OW67714   6.061   5.249   5.796  0.8008  0.1216 -0.1026
54386SOL    HW167715   6.054   5.189   5.870  1.1505  0.8747  0.5675
54386SOL    HW267716   6.030   5.199   5.721 -0.4463 -0.3732  0.7116
54387SOL     OW67717   3.692   5.409   8.507  0.0624  0.4107 -0.3360
54387SOL    HW167718   3.757   5.412   8.577  0.4467  1.0883 -0.7087
54387SOL    HW267719   3.608   5.413   8.552  0.2192 -1.6829  0.2287
54388SOL     OW67720   9.747   0.990  11.225  0.1108 -0.1607 -0.1212
54388SOL    HW167721   9.769   0.976  11.317 -1.0741 -2.3423 -0.1164
54388SOL    HW267722   9.807   1.060  11.197  0.9516  0.1012  2.0998
54389SOL     OW67723   8.023  10.126   4.409  0.2391 -0.1782  0.2449
54389SOL    HW167724   8.081  10.193   4.373 -0.8703  0.7817  0.1817
54389SOL    HW267725   8.047  10.120   4.502  2.6188 -2.1536 -0.3862
54390SOL     OW67726  10.165   3.774   9.460 -0.2763 -0.1619 -0.1042
54390SOL    HW167727  10.130   3.805   9.376  1.1550  0.2199 -0.5880
54390SOL    HW267728  10.246   3.729   9.436  0.4009  0.3637  1.1301
54391SOL     OW67729  10.274   8.606   3.002 -0.2116 -1.0020 -0.0353
54391SOL    HW167730  10.294   8.522   2.961  3.7749 -0.1412 -0.2721
54391SOL    HW267731  10.215   8.584   3.074 -0.1950 -3.8390 -0.7596
54392SOL     OW67732   1.826   1.891   5.847  0.0996 -0.2250 -0.5911
54392SOL    HW167733   1.894   1.845   5.897  0.9588  0.8669 -0.7124
54392SOL    HW267734   1.757   1.826   5.836  0.4479 -0.8987  0.8914
54393SOL     OW67735  10.082   0.421   9.660  0.3667 -0.1725  0.5661
54393SOL    HW167736  10.029   0.496   9.688  0.0407 -0.0701 -0.3045
54393SOL    HW267737  10.103   0.375   9.741 -0.4393  0.1961  0.9985
54394SOL     OW67738   3.456  11.932  10.788 -0.7182  0.3527 -0.1537
54394SOL    HW167739   3.528  11.871  10.797 -1.7833 -1.0647 -0.8500
54394SOL    HW267740   3.491  12.002  10.733  0.2127 -0.1577 -0.2303
54395SOL     OW67741   1.981   4.058   7.861  0.4005  0.0526 -0.5034
54395SOL    HW167742   2.026   3.995   7.804 -0.4261 -1.3388  0.3213
54395SOL    HW267743   1.926   4.110   7.802 -0.4379 -1.3531 -1.0058
54396SOL     OW67744   0.964   2.529   7.819  0.0168  0.3618 -0.0288
54396SOL    HW167745   1.019   2.582   7.877 -0.7010 -0.5075  1.5211
54396SOL    HW267746   0.875   2.544   7.850 -0.4023 -0.0785 -0.9736
54397SOL     OW67747  11.239   9.616   8.051  0.1719 -0.3737 -0.4986
54397SOL    HW167748  11.247   9.711   8.059  1.4463 -0.5288  0.2480
54397SOL    HW267749  11.155   9.604   8.006 -0.8781  1.0387  0.9317
54398SOL     OW67750   3.588  11.695   8.644  0.1008  0.5295 -0.0027
54398SOL    HW167751   3.676  11.731   8.645  1.0961 -1.1730 -4.6024
54398SOL    HW267752   3.599  11.603   8.665 -0.9685  0.6988  1.4771
54399SOL     OW67753   2.595   2.728   3.443 -0.4522  0.0959 -0.3014
54399SOL    HW167754   2.621   2.657   3.385 -1.8881  0.4413 -1.4165
54399SOL    HW267755   2.544   2.788   3.388 -0.5371  1.2373  0.9486
54400SOL     OW67756   9.136   3.987  11.525  0.4055  0.0679 -0.7395
54400SOL    HW167757   9.048   3.996  11.561  0.9037 -1.8080  1.1617
54400SOL    HW267758   9.125   3.927  11.451  0.0977 -0.2904 -0.4083
54401SOL     OW67759   8.642   4.397   5.221 -0.2317 -0.5417  0.0925
54401SOL    HW167760   8.681   4.480   5.193  0.5237 -0.9243 -0.0099
54401SOL    HW267761   8.705   4.360   5.282 -1.0520 -0.5536  0.9607
54402SOL     OW67762   3.900  11.670   2.279  0.1392  0.1919 -0.1895
54402SOL    HW167763   3.846  11.643   2.204  0.1512 -1.4786  0.3514
54402SOL    HW267764   3.851  11.741   2.320 -1.0422 -0.4698 -0.4229
54403SOL     OW67765   5.302   3.349   9.055 -0.3724  0.3268  0.3497
54403SOL    HW167766   5.395   3.331   9.039 -0.6307 -0.2109 -0.5903
54403SOL    HW267767   5.257   3.268   9.030 -0.9084 -0.3078  3.0135
54404SOL     OW67768   5.610  11.958   5.235  0.5588 -0.2733 -0.0490
54404SOL    HW167769   5.663  11.976   5.157  2.6443 -1.6668  0.9607
54404SOL    HW267770   5.595  11.864   5.233  0.8226 -0.3609  1.3323
54405SOL     OW67771   3.753  11.202   2.518  0.4021 -0.0191  0.5550
54405SOL    HW167772   3.811  11.276   2.535  0.2002 -0.3053  2.7926
54405SOL    HW267773   3.749  11.155   2.601 -3.3193  0.1595  0.6436
54406SOL     OW67774   5.999  11.329   0.283  0.2813  0.4972 -0.8455
54406SOL    HW167775   6.087  11.358   0.308 -0.6117  2.0290  0.7855
54406SOL    HW267776   5.954  11.315   0.366 -1.1495  0.1532 -1.6435
54407SOL     OW67777   7.557   6.183   1.879  1.1096  0.3246  0.3066
54407SOL    HW167778   7.634   6.215   1.926  0.4650  1.4493  0.6529
54407SOL    HW267779   7.510   6.263   1.855 -0.5850 -0.3662  1.1747
54408SOL     OW67780   8.461   4.445   4.162  0.1707 -0.3952  0.2420
54408SOL    HW167781   8.414   4.374   4.119  0.3129 -1.4584  1.7854
54408SOL    HW267782   8.410   4.524   4.140 -1.2774 -1.2656  0.3536
54409SOL     OW67783   2.022   9.480   9.215 -0.1184 -0.2586  0.0844
54409SOL    HW167784   2.050   9.391   9.235  0.9368  0.0833  0.1819
54409SOL    HW267785   2.104   9.529   9.201 -0.6506  0.8534  0.7212
54410SOL     OW67786   8.765   3.538  11.007  0.3623 -0.0141  0.3509
54410SOL    HW167787   8.831   3.602  11.033  1.4651 -0.7495 -0.5405
54410SOL    HW267788   8.688   3.590  10.986  1.4804  1.1040 -1.1336
54411SOL     OW67789   2.144   1.855   9.795 -0.2187  0.2436  0.5193
54411SOL    HW167790   2.124   1.940   9.757 -0.8243  0.2468  0.8334
54411SOL    HW267791   2.060   1.821   9.825 -0.3482 -1.3568 -1.3996
54412SOL     OW67792   2.335   3.008   2.151  0.0394  0.1317  0.6633
54412SOL    HW167793   2.373   2.942   2.094  0.9648  0.4517  0.9013
54412SOL    HW267794   2.333   2.967   2.238 -0.1384  0.1247  0.6562
54413SOL     OW67795   6.855   6.091   4.815  0.0814  0.0365  0.2346
54413SOL    HW167796   6.902   6.102   4.733  1.6918  1.2142  1.2510
54413SOL    HW267797   6.923   6.068   4.879 -1.0063 -0.0631  1.3994
54414SOL     OW67798   6.236   4.590   0.901 -0.3239 -0.4397  0.1432
54414SOL    HW167799   6.195   4.604   0.987 -0.6417 -1.2048  0.1248
54414SOL    HW267800   6.188   4.516   0.864  0.9974 -1.2786  0.0592
54415SOL     OW67801   0.504   5.563   8.867 -0.4667 -0.3088  0.6063
54415SOL    HW167802   0.431   5.613   8.905 -1.2245 -0.5671 -0.4572
54415SOL    HW267803   0.581   5.592   8.917 -1.2916 -0.0800  1.8068
54416SOL     OW67804   1.690   3.911   1.927  0.2602  0.5529  0.1290
54416SOL    HW167805   1.774   3.877   1.959 -0.6534 -3.3078 -0.9660
54416SOL    HW267806   1.697   3.906   1.832 -1.4591 -0.8551  0.0136
54417SOL     OW67807   1.538   8.730   6.554 -0.1424 -0.9247  0.2032
54417SOL    HW167808   1.522   8.817   6.517  2.3510 -1.0313 -1.3484
54417SOL    HW267809   1.497   8.670   6.492 -0.5117 -0.9185  0.4400
54418SOL     OW67810   0.845   6.708   5.715  0.5594 -0.1695  0.2454
54418SOL    HW167811   0.866   6.670   5.629  2.0246  1.5307 -0.1992
54418SOL    HW267812   0.750   6.716   5.715  0.5702  0.2870 -1.4649
54419SOL     OW67813  11.701   8.680   4.997 -0.1079  0.1366  0.1168
54419SOL    HW167814  11.672   8.659   5.085 -0.1420 -0.3968 -0.0190
54419SOL    HW267815  11.681   8.773   4.987  0.2601  0.2900  0.8045
54420SOL     OW67816   8.292  10.294   6.272  0.1929  0.2471  0.4119
54420SOL    HW167817   8.288  10.370   6.330  0.9082  0.1878  0.5519
54420SOL    HW267818   8.292  10.219   6.331  0.0424  0.1590  0.3000
54421SOL     OW67819   1.027   8.418   1.634  0.7965 -1.0395  0.1632
54421SOL    HW167820   1.047   8.333   1.594  2.5569  0.2673 -1.9184
54421SOL    HW267821   1.110   8.465   1.633  0.0244  0.4750  1.9797
54422SOL     OW67822   8.788   6.089   3.899  0.2904 -0.2527  0.4932
54422SOL    HW167823   8.767   5.997   3.914  0.6436  0.1701  5.2512
54422SOL    HW267824   8.710   6.137   3.927  1.0569  0.9098  0.7258
54423SOL     OW67825   1.480   3.479  11.874  0.1667 -0.9701 -0.3444
54423SOL    HW167826   1.475   3.571  11.847  3.5677 -1.0115 -1.7432
54423SOL    HW267827   1.471   3.430  11.792 -0.3829 -1.8048  0.2105
54424SOL     OW67828   3.174   1.531  12.054  0.0355  0.4185 -0.0326
54424SOL    HW167829   3.163   1.534  11.959  0.6991  0.6322 -0.1081
54424SOL    HW267830   3.223   1.450  12.070 -0.8834 -0.1061  0.2236
54425SOL     OW67831   3.701   2.796   2.037 -0.1135 -0.4311  0.0957
54425SOL    HW167832   3.629   2.744   2.002 -0.2199 -1.6247  1.9710
54425SOL    HW267833   3.718   2.759   2.124 -0.0370  2.4840  1.4542
54426SOL     OW67834   7.844   2.680  10.238 -0.4488  0.3989 -0.0111
54426SOL    HW167835   7.808   2.671  10.150 -0.7488  0.9184  0.0533
54426SOL    HW267836   7.933   2.647  10.232 -0.5315  0.2579 -0.4640
54427SOL     OW67837   1.761   7.091   4.476  0.1522 -0.1901 -0.1263
54427SOL    HW167838   1.717   7.166   4.516 -0.3885 -1.2310  1.2976
54427SOL    HW267839   1.710   7.073   4.397  2.0016  2.7041 -2.1637
54428SOL     OW67840   6.860   9.257   4.765  0.4176 -0.6201 -0.4423
54428SOL    HW167841   6.764   9.256   4.766  0.3898 -0.8370 -1.6717
54428SOL    HW267842   6.883   9.216   4.681  1.5902 -0.7306 -0.0810
54429SOL     OW67843  10.370   8.212   1.969  0.2938 -0.0310  0.2619
54429SOL    HW167844  10.306   8.263   1.920  2.4533  0.6515 -2.0848
54429SOL    HW267845  10.324   8.131   1.993 -1.5376  0.6145 -0.8872
54430SOL     OW67846  10.107  10.713   8.407 -0.3212  0.2392 -0.0335
54430SOL    HW167847  10.069  10.794   8.442 -0.0757  1.3385 -2.1668
54430SOL    HW267848  10.032  10.661   8.379 -0.4090  1.2299 -1.7460
54431SOL     OW67849   7.943  10.668   2.115 -0.2577  0.3171 -0.2158
54431SOL    HW167850   7.928  10.607   2.042  0.7447  0.2637 -0.3942
54431SOL    HW267851   7.871  10.730   2.110  0.0235  0.5622 -1.5267
54432SOL     OW67852   9.276  11.496   9.356  0.2052  0.3501 -0.1797
54432SOL    HW167853   9.309  11.406   9.363 -1.2481 -0.2455 -0.5685
54432SOL    HW267854   9.301  11.537   9.439 -0.5923 -0.9446  0.7437
54433SOL     OW67855   4.598   4.933   5.372 -0.5519  0.1281  0.2072
54433SOL    HW167856   4.535   4.980   5.428 -0.0165  0.1085  0.8291
54433SOL    HW267857   4.548   4.913   5.292 -0.5085  2.7514 -0.5779
54434SOL     OW67858   7.595   5.395   6.726  0.2645 -0.0600 -0.2214
54434SOL    HW167859   7.571   5.335   6.657 -1.7705  1.7812 -1.2528
54434SOL    HW267860   7.676   5.436   6.696  0.7454 -1.0582 -0.2998
54435SOL     OW67861   4.454   8.305   6.209 -0.5427 -0.7056 -0.5080
54435SOL    HW167862   4.443   8.397   6.234 -1.3205 -1.4046  2.0596
54435SOL    HW267863   4.547   8.296   6.189  0.1213  0.1319  1.8607
54436SOL     OW67864   6.401  10.395   6.242  0.2750  0.4336  0.3027
54436SOL    HW167865   6.318  10.441   6.254 -0.7299 -1.2028 -0.0689
54436SOL    HW267866   6.450  10.449   6.181 -0.3503  1.6284  0.8201
54437SOL     OW67867   3.495   8.200   6.268  0.4881  0.1304 -0.1132
54437SOL    HW167868   3.449   8.241   6.194 -1.0170 -0.3594  0.5103
54437SOL    HW267869   3.477   8.257   6.342 -1.9184 -1.7072  0.8448
54438SOL     OW67870   6.203  10.236   7.084  0.4619 -0.4581 -0.1226
54438SOL    HW167871   6.215  10.301   7.014  0.7426 -1.8950 -1.4746
54438SOL    HW267872   6.136  10.177   7.049  1.4674 -1.8884  0.2987
54439SOL     OW67873   2.582   1.740   5.216 -0.6342 -0.3536 -0.4375
54439SOL    HW167874   2.625   1.748   5.131 -1.0419  0.9416 -0.5368
54439SOL    HW267875   2.547   1.651   5.216 -0.7453 -0.3331 -1.6858
54440SOL     OW67876   4.647   5.148   4.503  0.0038  0.8640 -0.1496
54440SOL    HW167877   4.566   5.100   4.516  0.1868  1.0178  1.9238
54440SOL    HW267878   4.673   5.129   4.413 -1.3784 -0.6400 -0.2637
54441SOL     OW67879  11.412   0.353   6.014 -0.5106 -0.2664 -0.3176
54441SOL    HW167880  11.376   0.407   5.943  0.0745 -0.3605 -0.6988
54441SOL    HW267881  11.476   0.297   5.971  0.0945 -0.0995  0.3345
54442SOL     OW67882   6.638   7.670   1.036 -0.1962 -0.4973 -0.0893
54442SOL    HW167883   6.684   7.620   1.104 -3.3064 -1.9855  1.1195
54442SOL    HW267884   6.553   7.627   1.028 -0.8843  1.1286 -3.2643
54443SOL     OW67885   2.240   5.216   4.292  0.0071  0.1215 -0.3029
54443SOL    HW167886   2.226   5.308   4.317 -1.6886 -0.1897  0.0506
54443SOL    HW267887   2.157   5.190   4.252  0.0211 -1.5853  0.6655
54444SOL     OW67888  10.925   9.745   5.963 -0.2828 -0.4365 -0.7266
54444SOL    HW167889  10.916   9.801   5.886  1.3525  1.2644  0.2191
54444SOL    HW267890  10.987   9.677   5.936 -0.3020 -0.2910 -1.1438
54445SOL     OW67891   8.747   6.831   8.463 -0.3684  0.0177  0.1007
54445SOL    HW167892   8.714   6.841   8.374  1.3990 -1.9243 -0.8297
54445SOL    HW267893   8.690   6.765   8.503 -0.2974 -0.1297 -0.0435
54446SOL     OW67894   4.711   5.542   2.615  0.7622  0.0256 -0.1712
54446SOL    HW167895   4.791   5.492   2.605  1.1699  0.9015 -1.4917
54446SOL    HW267896   4.736   5.632   2.596  0.0073  0.7504  1.9730
54447SOL     OW67897   9.342   5.665   9.662  0.0652 -0.8810 -0.3954
54447SOL    HW167898   9.248   5.678   9.655  0.2160  0.7836  0.3135
54447SOL    HW267899   9.377   5.699   9.579  0.0781 -1.2902 -0.5630
54448SOL     OW67900   0.734   7.534  11.199  0.1286 -0.0177 -0.5662
54448SOL    HW167901   0.646   7.495  11.191 -1.3030  2.5261  1.2501
54448SOL    HW267902   0.727   7.617  11.152  0.8592  1.1599  1.3049
54449SOL     OW67903   6.163   5.396   8.032  0.2052  0.1919 -0.4026
54449SOL    HW167904   6.177   5.486   8.058  2.9725 -1.1286  3.6076
54449SOL    HW267905   6.112   5.357   8.103 -0.8076 -1.5351 -1.9555
54450SOL     OW67906   7.323   6.320   4.438  0.4488 -0.0581  0.1274
54450SOL    HW167907   7.276   6.305   4.520 -0.4298 -1.2729 -0.5649
54450SOL    HW267908   7.266   6.379   4.388 -0.0529 -0.9829 -0.4307
54451SOL     OW67909   9.492   4.832   7.095 -0.3948  0.2721 -0.2152
54451SOL    HW167910   9.403   4.796   7.099 -0.9377  1.6300  1.1154
54451SOL    HW267911   9.511   4.857   7.186  0.2558  2.4883 -0.8881
54452SOL     OW67912   2.882   2.848   4.975 -0.3239  0.5063 -0.5751
54452SOL    HW167913   2.900   2.893   5.058  0.4287  1.2883 -1.1524
54452SOL    HW267914   2.965   2.850   4.928 -0.5307 -0.6512 -1.0201
54453SOL     OW67915  11.052  11.855  10.412 -0.9253  0.9236 -0.2613
54453SOL    HW167916  11.095  11.790  10.468  1.6658  1.9499 -0.9144
54453SOL    HW267917  10.965  11.818  10.395 -1.0285 -0.4471  2.5965
54454SOL     OW67918   2.772  10.729   5.491  0.6104  0.4926 -0.2241
54454SOL    HW167919   2.744  10.650   5.537  0.8469 -0.1146 -1.0913
54454SOL    HW267920   2.797  10.789   5.560 -1.0924  0.4072  0.5284
54455SOL     OW67921   6.580   1.383   8.320 -0.6774  0.1661  0.8201
54455SOL    HW167922   6.657   1.414   8.272 -1.2280 -1.3983 -1.2301
54455SOL    HW267923   6.594   1.289   8.330 -1.3585  0.2002  2.3280
54456SOL     OW67924   8.635   3.110   6.859 -0.0899  0.6275 -0.2110
54456SOL    HW167925   8.633   3.175   6.788 -0.6642 -0.5316 -1.2913
54456SOL    HW267926   8.572   3.143   6.923 -1.8528  0.1941 -1.6448
54457SOL     OW67927   8.304   1.763   6.941  0.2180 -0.4416  0.1024
54457SOL    HW167928   8.287   1.837   6.883  0.5598 -0.6993 -0.3360
54457SOL    HW267929   8.250   1.692   6.906 -1.5983  0.0949  1.6406
54458SOL     OW67930   8.162   1.259   8.182 -0.3706  0.0109  0.1125
54458SOL    HW167931   8.169   1.331   8.245 -0.9901  0.5822 -0.4525
54458SOL    HW267932   8.238   1.204   8.200  0.2148  0.9034  0.4414
54459SOL     OW67933   8.486   4.224   4.632  0.2934 -0.3759  0.0540
54459SOL    HW167934   8.420   4.250   4.567  0.5553  1.0564  0.3289
54459SOL    HW267935   8.506   4.133   4.610 -0.0939 -0.1257 -1.4797
54460SOL     OW67936   3.447   3.044   5.080 -0.0914  0.0923  0.3807
54460SOL    HW167937   3.518   3.105   5.065  0.0262  0.0701  0.8283
54460SOL    HW267938   3.476   2.962   5.039  0.4073 -0.0904  1.0748
54461SOL     OW67939   7.084  11.160   6.054  0.2198  0.1586  0.1377
54461SOL    HW167940   7.041  11.220   5.992  1.1962  2.4463  1.5517
54461SOL    HW267941   7.074  11.203   6.139  2.4751 -0.8447  0.9594
54462SOL     OW67942   7.650   5.966   7.544 -0.4152  0.5894  0.1819
54462SOL    HW167943   7.643   6.057   7.517  0.8785  0.3558 -1.0759
54462SOL    HW267944   7.743   5.944   7.531 -0.1189 -0.1796  2.9115
54463SOL     OW67945   7.882   5.964   9.536  0.2715  0.0452 -0.6111
54463SOL    HW167946   7.793   5.951   9.571  0.3698 -0.4827 -0.5510
54463SOL    HW267947   7.933   5.992   9.612  0.2304  0.0130 -0.5707
54464SOL     OW67948   4.024  10.997   1.221 -0.1766  0.1280 -0.4013
54464SOL    HW167949   4.044  11.072   1.277 -1.1906  0.2065 -0.1290
54464SOL    HW267950   4.093  10.933   1.242  0.8934  1.0821 -0.8860
54465SOL     OW67951   2.865   2.353  12.115  0.4687 -0.2344  0.0257
54465SOL    HW167952   2.855   2.423  12.050 -0.8750 -1.3533 -1.0463
54465SOL    HW267953   2.817   2.384  12.191 -0.7968 -0.2730 -0.7198
54466SOL     OW67954   2.380  11.855   4.130  0.5180  0.0980  0.0751
54466SOL    HW167955   2.285  11.849   4.120  0.3511 -0.4573  1.7589
54466SOL    HW267956   2.414  11.793   4.065 -0.3077 -0.4985  0.1948
54467SOL     OW67957   1.350  11.678   3.799 -0.0612 -0.5796  0.4653
54467SOL    HW167958   1.421  11.621   3.830 -1.5456 -1.6508  2.0829
54467SOL    HW267959   1.360  11.758   3.851  0.9210 -0.0497 -0.4997
54468SOL     OW67960   4.798   3.072   0.221 -0.1030 -0.1113  0.5738
54468SOL    HW167961   4.711   3.045   0.250 -0.2029  0.9698  1.3390
54468SOL    HW267962   4.829   3.000   0.167 -1.6126 -0.3696  0.0039
54469SOL     OW67963   5.056   1.482   7.985  0.4241 -0.3460 -0.2843
54469SOL    HW167964   4.998   1.540   7.936 -0.6732 -1.0975  0.0812
54469SOL    HW267965   5.068   1.406   7.927  1.0049 -0.2197 -0.3353
54470SOL     OW67966   6.449   2.257  11.609 -0.5038 -0.0683  0.0236
54470SOL    HW167967   6.511   2.207  11.662 -1.7021  0.0871  1.6459
54470SOL    HW267968   6.477   2.348  11.619 -0.4734 -0.0809  0.0545
54471SOL     OW67969   6.692  10.293   8.242 -0.4436  0.2163  0.0776
54471SOL    HW167970   6.659  10.205   8.230  0.6160 -0.4409  1.6134
54471SOL    HW267971   6.693  10.306   8.337  1.9272  0.8292  0.0486
54472SOL     OW67972   9.553  11.152   3.130 -0.8993  0.5148  0.2395
54472SOL    HW167973   9.638  11.196   3.131 -0.0224 -0.9946 -1.7977
54472SOL    HW267974   9.560  11.084   3.197 -0.7848  0.8201  0.5457
54473SOL     OW67975   1.325   2.393   9.904  0.4396  0.0892  0.4126
54473SOL    HW167976   1.378   2.471   9.888 -0.8667  1.2399  1.4902
54473SOL    HW267977   1.309   2.357   9.816 -1.8169  3.0124 -0.5078
54474SOL     OW67978  11.949  11.847   2.368 -1.1190 -0.3631 -0.1841
54474SOL    HW167979  11.873  11.897   2.398 -0.4869  0.5571 -0.0764
54474SOL    HW267980  11.975  11.890   2.286 -0.4299 -0.3617  0.0293
54475SOL     OW67981   7.890   5.048   4.690  0.7968 -0.1630  0.0741
54475SOL    HW167982   7.800   5.028   4.664  0.8186  0.7869 -0.8197
54475SOL    HW267983   7.905   4.996   4.769 -0.6728 -0.0203  0.4761
54476SOL     OW67984   5.057   3.876   1.436  0.5067  0.3304  0.5521
54476SOL    HW167985   5.003   3.883   1.515 -0.0560  1.8904  0.0519
54476SOL    HW267986   5.134   3.929   1.456  1.7431 -1.5268  1.0923
54477SOL     OW67987   6.382   8.140   5.370 -0.2448  0.5693  0.4084
54477SOL    HW167988   6.362   8.223   5.415  0.6421  0.3714  1.1791
54477SOL    HW267989   6.408   8.167   5.282 -0.2704  1.0884  0.5535
54478SOL     OW67990   9.964   2.213  10.131 -0.1050 -0.5401 -0.4906
54478SOL    HW167991   9.903   2.253  10.193  0.8075 -0.4532  0.3799
54478SOL    HW267992   9.949   2.259  10.049  1.9472  2.7511  0.7934
54479SOL     OW67993   6.524   0.480  10.113 -0.0463  0.0519 -0.3742
54479SOL    HW167994   6.574   0.457  10.192 -0.1493 -0.4850 -0.4659
54479SOL    HW267995   6.439   0.438  10.125 -0.2926  0.5181 -0.4714
54480SOL     OW67996   3.677   7.247   1.169 -0.2135  1.0144  0.2241
54480SOL    HW167997   3.741   7.303   1.125 -0.6649  0.4983 -1.1412
54480SOL    HW267998   3.593   7.272   1.131 -0.2419 -1.9730 -2.1148
54481SOL     OW67999   9.350   5.506   8.481  0.6264 -0.0920  0.0036
54481SOL    HW168000   9.422   5.555   8.521 -0.1652  1.5664 -0.5027
54481SOL    HW268001   9.325   5.559   8.405 -1.6476 -0.1886  0.6307
54482SOL     OW68002  11.750   0.203   8.070  0.9383  1.0058 -0.2275
54482SOL    HW168003  11.705   0.168   7.993  0.3690  0.7332  0.2187
54482SOL    HW268004  11.724   0.145   8.141  0.4725  1.9616  0.4039
54483SOL     OW68005   8.581   8.725   5.292 -0.4602 -0.4872  0.2985
54483SOL    HW168006   8.589   8.632   5.269  0.2889 -0.2411 -0.5270
54483SOL    HW268007   8.504   8.730   5.347 -0.5426 -1.5989  0.3055
54484SOL     OW68008   4.122   0.503   1.561 -0.1449  0.4151  0.1409
54484SOL    HW168009   4.046   0.486   1.616 -0.7159  1.0811 -0.4182
54484SOL    HW268010   4.186   0.437   1.587 -0.4530  0.6232  1.4826
54485SOL     OW68011   4.204   6.634   8.491  0.3072 -0.4097 -0.1961
54485SOL    HW168012   4.181   6.727   8.491 -1.1718 -0.7313 -1.6765
54485SOL    HW268013   4.294   6.632   8.461  0.3638  0.5531 -0.1353
54486SOL     OW68014  10.111  10.619  11.076 -0.4584 -0.1548  0.2830
54486SOL    HW168015  10.111  10.705  11.035 -0.2367 -0.7791 -1.0953
54486SOL    HW268016  10.070  10.632  11.161 -1.9433  1.0024 -0.5761
54487SOL     OW68017  10.086   0.507   4.286  0.9465 -0.3993 -0.0996
54487SOL    HW168018  10.136   0.440   4.331  1.2803  0.0747  0.2440
54487SOL    HW268019  10.144   0.583   4.283  0.5053 -0.0639 -0.3174
54488SOL     OW68020   0.325   9.546   9.706 -0.0505  1.0829  0.0281
54488SOL    HW168021   0.332   9.500   9.622 -0.8363 -1.6693  1.3364
54488SOL    HW268022   0.413   9.581   9.722  1.9135 -3.3987  0.6058
54489SOL     OW68023   8.812   5.167   4.836  0.1684 -0.5353  0.2337
54489SOL    HW168024   8.720   5.141   4.836  0.9192 -3.8138 -2.1458
54489SOL    HW268025   8.819   5.231   4.764 -0.3818  0.6683  1.2101
54490SOL     OW68026   9.424   8.838   5.150 -0.4753  0.0342 -0.3263
54490SOL    HW168027   9.508   8.842   5.103  0.0122  0.1404  0.5152
54490SOL    HW268028   9.444   8.787   5.228 -1.3911 -0.5640 -0.4758
54491SOL     OW68029   3.288   6.711   2.179  0.5164  0.1534 -0.5171
54491SOL    HW168030   3.269   6.660   2.258 -0.5004  0.3770 -0.6015
54491SOL    HW268031   3.243   6.795   2.193 -1.3676 -0.4916 -2.1268
54492SOL     OW68032   0.108   4.688   4.787 -0.7173 -0.1414  0.3958
54492SOL    HW168033   0.113   4.781   4.766  2.4322 -0.2446  0.2721
54492SOL    HW268034   0.044   4.653   4.725 -0.4179  1.5917 -0.9724
54493SOL     OW68035   1.773   7.265   3.638  0.1621  0.4452  0.3608
54493SOL    HW168036   1.725   7.343   3.664 -0.2184  0.5722 -0.6655
54493SOL    HW268037   1.802   7.284   3.549  1.4166  0.0435  0.6625
54494SOL     OW68038   8.071   4.795   2.060  0.5590 -0.5516  0.4997
54494SOL    HW168039   8.073   4.809   2.155 -1.3120  2.6839  0.1934
54494SOL    HW268040   7.980   4.768   2.043  0.1667  1.2590 -0.5422
54495SOL     OW68041   2.243   9.227  11.415  0.3515 -0.0862 -0.1532
54495SOL    HW168042   2.300   9.299  11.385 -0.2169  0.3282 -0.2579
54495SOL    HW268043   2.178   9.219  11.346 -0.4866  0.3181  0.5785
54496SOL     OW68044   2.988  11.008   2.332  0.1410  0.7560 -0.1056
54496SOL    HW168045   3.026  11.096   2.323 -0.3253  1.1495  1.4495
54496SOL    HW268046   3.024  10.975   2.414  0.9922 -0.8929 -1.0998
54497SOL     OW68047  10.680   5.331  10.607 -0.2826  0.5351  0.3770
54497SOL    HW168048  10.642   5.409  10.567  0.3577  0.9962  0.6561
54497SOL    HW268049  10.632   5.258  10.567 -0.2661  1.0218 -0.5616
54498SOL     OW68050   2.483  11.663   6.757 -0.5312 -0.1775 -0.1341
54498SOL    HW168051   2.431  11.743   6.753  0.5426  0.5264 -0.3148
54498SOL    HW268052   2.527  11.657   6.673  0.4183 -0.2426  0.3481
54499SOL     OW68053   5.269   5.746   5.093 -0.0142 -0.0890  0.2850
54499SOL    HW168054   5.287   5.654   5.075 -0.0911 -0.1080  0.3046
54499SOL    HW268055   5.173   5.751   5.098 -0.0665  0.2320 -0.9589
54500SOL     OW68056   0.040  10.015   1.157 -0.1750  0.2622 -0.5825
54500SOL    HW168057  -0.005   9.945   1.111 -2.1037  0.5972  0.6683
54500SOL    HW268058   0.034   9.991   1.250 -0.7932  2.0064 -0.1359
54501SOL     OW68059  11.015   1.424   2.112 -0.3860 -0.1444  0.0844
54501SOL    HW168060  11.003   1.455   2.202 -1.4410  1.5341 -0.5788
54501SOL    HW268061  11.104   1.450   2.089 -0.2735 -0.1673  0.4894
54502SOL     OW68062   2.338  11.354   3.010  0.1568 -0.1144 -0.5099
54502SOL    HW168063   2.426  11.389   3.027 -0.0289 -0.3715  1.2527
54502SOL    HW268064   2.353  11.277   2.956  0.9972  0.0553 -0.5326
54503SOL     OW68065  10.487  11.326   4.465 -0.1406 -0.1959 -0.4529
54503SOL    HW168066  10.485  11.414   4.428 -1.1433 -0.6420 -1.5255
54503SOL    HW268067  10.398  11.310   4.496 -0.7397 -1.8291 -2.7843
54504SOL     OW68068   5.382  11.608   8.133 -0.0622 -0.4853  0.0294
54504SOL    HW168069   5.369  11.647   8.047 -0.1226  1.0331  0.6976
54504SOL    HW268070   5.311  11.643   8.186  1.8345  1.3033  1.5495
54505SOL     OW68071   8.831   3.656   5.132 -0.5272 -0.7342  0.6776
54505SOL    HW168072   8.877   3.685   5.053  0.5334  0.7378  1.7633
54505SOL    HW268073   8.832   3.561   5.128 -0.0917 -0.6809 -0.8527
54506SOL     OW68074   7.943  11.689   3.110 -0.2245 -0.1207  0.3919
54506SOL    HW168075   8.000  11.748   3.061  0.3171 -1.0393 -0.1091
54506SOL    HW268076   7.980  11.686   3.198  0.1772 -0.2915  0.2153
54507SOL     OW68077   0.909   2.028   0.361  0.1493 -0.4093 -0.3216
54507SOL    HW168078   0.899   2.112   0.315 -1.2774 -0.8491 -0.8866
54507SOL    HW268079   0.821   2.010   0.395  0.3537 -1.8246 -0.5094
54508SOL     OW68080   7.898  11.837   1.167  0.3781 -0.3004 -0.1503
54508SOL    HW168081   7.877  11.743   1.164  0.2214 -0.2916  0.4578
54508SOL    HW268082   7.916  11.861   1.076 -3.7147  0.0549 -1.0552
54509SOL     OW68083   8.989   5.589   8.755 -0.6349  0.1058 -0.0594
54509SOL    HW168084   9.024   5.660   8.809 -0.9038  0.8406 -0.8313
54509SOL    HW268085   8.982   5.515   8.815  1.1528  0.2539  0.3920
54510SOL     OW68086   0.566  10.331   1.130  0.3584  0.1162 -0.0148
54510SOL    HW168087   0.605  10.321   1.217  0.3470  2.3782  0.3052
54510SOL    HW268088   0.502  10.260   1.124  0.1982  0.0518  1.9223
54511SOL     OW68089   8.665   0.532   7.099 -0.1234  0.3743  0.0945
54511SOL    HW168090   8.632   0.444   7.113 -2.4292  1.0252 -0.7340
54511SOL    HW268091   8.666   0.543   7.004 -2.0824  1.9306  0.1823
54512SOL     OW68092   6.873   6.365   6.177  0.7056 -0.0461  0.0282
54512SOL    HW168093   6.943   6.404   6.230  1.0664 -1.1151  0.3725
54512SOL    HW268094   6.917   6.295   6.128 -0.3269 -1.5096  1.1136
54513SOL     OW68095   2.537  11.598   4.362  0.3274  0.4908 -0.2135
54513SOL    HW168096   2.507  11.508   4.356  0.5975  0.3983 -0.1729
54513SOL    HW268097   2.527  11.621   4.454 -1.9481  1.2704 -0.5725
54514SOL     OW68098   6.129  10.428   3.907  0.6880  0.0115  0.5313
54514SOL    HW168099   6.168  10.487   3.842  0.7095  0.0646  0.5922
54514SOL    HW268100   6.199  10.412   3.970  0.6986 -0.1230  0.4853
54515SOL     OW68101  10.668   0.393  11.225 -0.6010  0.2923 -0.1431
54515SOL    HW168102  10.634   0.304  11.235 -0.0054  0.1833  1.2377
54515SOL    HW268103  10.700   0.397  11.135  0.0379 -1.1458 -0.0059
54516SOL     OW68104   5.047   2.227   3.508 -0.2371 -0.5267  0.6268
54516SOL    HW168105   4.970   2.263   3.465  0.7587 -1.0722 -1.7729
54516SOL    HW268106   5.040   2.133   3.496  1.9392 -0.4877 -1.9482
54517SOL     OW68107   8.477   0.908   2.870  0.1606 -0.0948  0.2539
54517SOL    HW168108   8.389   0.922   2.904 -0.3478 -2.0865 -0.0926
54517SOL    HW268109   8.535   0.927   2.943 -0.4965  1.8681  0.2998
54518SOL     OW68110   4.568   8.514   3.138  0.7987 -0.2528 -0.4040
54518SOL    HW168111   4.638   8.464   3.180  0.7843 -0.7785 -0.9958
54518SOL    HW268112   4.612   8.562   3.067  0.7608  0.3552 -0.0301
54519SOL     OW68113   5.464  11.427   3.667  0.1256 -0.1427  0.1657
54519SOL    HW168114   5.382  11.378   3.672 -0.1047  0.1837 -0.3920
54519SOL    HW268115   5.474  11.467   3.754  0.3171 -1.1644  0.6335
54520SOL     OW68116   6.494  10.869   5.242  0.4350  0.4908 -0.1038
54520SOL    HW168117   6.459  10.911   5.163  0.3545 -2.8209 -2.0235
54520SOL    HW268118   6.496  10.776   5.220  2.3455 -0.3719  3.1198
54521SOL     OW68119   8.134  10.953   5.994 -0.9300  0.5325  0.0240
54521SOL    HW168120   8.182  10.980   6.072 -1.8954 -0.7141  1.0787
54521SOL    HW268121   8.188  10.884   5.955 -0.9084  0.5076  0.0987
54522SOL     OW68122  10.686   0.379   7.374 -0.2818  0.4377  0.0141
54522SOL    HW168123  10.766   0.374   7.426  0.4414 -2.6985 -1.1589
54522SOL    HW268124  10.616   0.390   7.438  0.9457  2.0812  1.1496
54523SOL     OW68125   0.114  10.779   3.352 -0.2353  0.1220  0.2600
54523SOL    HW168126   0.072  10.823   3.279  0.1855  0.3332  0.1427
54523SOL    HW268127   0.082  10.825   3.430  0.5055  0.9019  0.1181
54524SOL     OW68128   4.858   3.562  10.797  0.0189  1.0379  0.5683
54524SOL    HW168129   4.931   3.533  10.851 -0.6853  0.8003  1.4285
54524SOL    HW268130   4.869   3.657  10.790  2.2869  0.6892 -2.1872
54525SOL     OW68131  11.275   3.950  10.235  0.7450  0.0378 -0.1240
54525SOL    HW168132  11.191   3.994  10.220  0.3360 -0.5762  0.3242
54525SOL    HW268133  11.255   3.856  10.230  0.5270 -0.3255  3.9682
54526SOL     OW68134   6.744  10.244   4.577 -0.3647  0.1207  0.2048
54526SOL    HW168135   6.671  10.285   4.530  0.7947  1.8009 -0.2546
54526SOL    HW268136   6.714  10.239   4.668 -1.6933 -0.8441 -0.2699
54527SOL     OW68137   5.518   6.913   9.054 -0.7024  0.2544  0.1291
54527SOL    HW168138   5.446   6.887   8.996 -1.9732  0.5397  1.4997
54527SOL    HW268139   5.524   6.842   9.118  1.1217 -0.3756 -0.6819
54528SOL     OW68140   3.004   5.383   9.603 -0.2814 -0.0840  0.0994
54528SOL    HW168141   3.095   5.412   9.612 -1.0094  2.0638  1.4114
54528SOL    HW268142   2.997   5.352   9.513  1.2492  1.7080 -0.7004
54529SOL     OW68143   0.815   5.331   1.623 -0.6439 -0.0289 -0.0107
54529SOL    HW168144   0.753   5.259   1.639 -0.3889  0.3281  3.4198
54529SOL    HW268145   0.884   5.318   1.688  1.3799  1.2501 -1.7962
54530SOL     OW68146   0.475   1.205   7.727  0.1348  0.3068 -0.2043
54530SOL    HW168147   0.417   1.138   7.764 -1.8209  2.3214  0.6072
54530SOL    HW268148   0.496   1.173   7.639 -0.8582 -1.2846  0.1010
54531SOL     OW68149   2.396  10.646   1.268 -0.6792 -0.4928 -0.0539
54531SOL    HW168150   2.448  10.632   1.189  0.4227  1.1442  0.3383
54531SOL    HW268151   2.382  10.740   1.272 -3.2299 -0.8161  0.1956
54532SOL     OW68152   3.763  11.658   0.339 -0.1719  0.3578 -0.6778
54532SOL    HW168153   3.796  11.574   0.371  1.3145  0.6722 -1.3135
54532SOL    HW268154   3.716  11.696   0.414  0.5926 -0.2877  0.1464
54533SOL     OW68155  10.793  11.777   3.520  0.7302 -0.1517  0.0983
54533SOL    HW168156  10.865  11.840   3.529  1.7589 -0.9566 -1.9127
54533SOL    HW268157  10.752  11.800   3.437  0.8878 -1.8851 -0.4802
54534SOL     OW68158   2.032   2.761   9.063 -0.2756  0.2885 -0.1399
54534SOL    HW168159   1.987   2.734   8.982  1.4287  0.2672 -1.1214
54534SOL    HW268160   2.044   2.856   9.053 -0.7035  0.4114  0.4456
54535SOL     OW68161   4.782   3.541   2.943 -0.3498  0.6919 -0.0134
54535SOL    HW168162   4.689   3.530   2.923 -0.4656  1.4564  0.0704
54535SOL    HW268163   4.787   3.526   3.038 -0.1582 -0.6958 -0.2189
54536SOL     OW68164   6.512   9.866   7.451  0.2811 -0.6418  0.1528
54536SOL    HW168165   6.605   9.845   7.441  0.2348 -0.9643  0.3854
54536SOL    HW268166   6.496   9.859   7.545  0.0667 -0.3857  0.1376
54537SOL     OW68167   9.190   8.512  10.144  0.3695  0.2194  0.4829
54537SOL    HW168168   9.153   8.585  10.095  0.4496 -0.3577 -0.4781
54537SOL    HW268169   9.250   8.470  10.082 -2.0525 -2.5744 -0.2073
54538SOL     OW68170   1.320   2.075   6.742 -0.4617 -0.3601  0.4405
54538SOL    HW168171   1.382   2.095   6.813 -0.9215  1.9034  0.2823
54538SOL    HW268172   1.235   2.070   6.785 -0.5655 -0.3774  0.2325
54539SOL     OW68173   4.745   1.482   8.285 -0.2556  0.1638  0.5591
54539SOL    HW168174   4.800   1.435   8.348 -0.2307 -2.0104 -0.9834
54539SOL    HW268175   4.702   1.413   8.234 -0.8335  1.8198 -1.3326
54540SOL     OW68176   8.428   2.528   1.272 -0.1926  0.4859 -0.0563
54540SOL    HW168177   8.476   2.455   1.309 -1.6657  0.6978  2.4929
54540SOL    HW268178   8.377   2.490   1.200 -0.1078 -0.7609  0.5230
54541SOL     OW68179   0.836   5.037   2.206 -0.1800  0.2860  0.3045
54541SOL    HW168180   0.876   5.124   2.209  0.3915  0.0237  0.4229
54541SOL    HW268181   0.894   4.985   2.150 -0.4917 -0.0340  0.2686
54542SOL     OW68182   5.145   7.751   3.426  0.0016 -0.5193 -0.2255
54542SOL    HW168183   5.141   7.722   3.335 -1.0328 -0.9065 -0.0702
54542SOL    HW268184   5.098   7.834   3.427 -1.7902 -1.4801  0.2883
54543SOL     OW68185   0.036  11.441  11.607 -0.0800  0.0087 -0.0309
54543SOL    HW168186  -0.011  11.406  11.683  0.0439 -0.5025 -0.1851
54543SOL    HW268187   0.022  11.536  11.612 -1.0627 -0.1314 -0.0425
54544SOL     OW68188   0.813  10.602   2.513 -0.5020  0.4682  0.4940
54544SOL    HW168189   0.786  10.522   2.560  0.7360  0.1489  0.6930
54544SOL    HW268190   0.909  10.600   2.517 -0.4522  2.5065  1.4163
54545SOL     OW68191  10.545   8.585   9.130  0.3331 -0.5018 -0.3224
54545SOL    HW168192  10.504   8.504   9.099  3.5006 -2.6496  0.5663
54545SOL    HW268193  10.501   8.605   9.212  0.6877 -2.4696  0.3976
54546SOL     OW68194  11.462   3.483   0.389 -0.2553 -1.0935 -0.1497
54546SOL    HW168195  11.389   3.468   0.328 -0.6435  2.6450 -0.8101
54546SOL    HW268196  11.526   3.532   0.339  1.7855 -2.3593  1.0906
54547SOL     OW68197   6.356   6.693   6.603 -0.5343  0.4325  0.3078
54547SOL    HW168198   6.406   6.666   6.526  0.7004  1.6329  0.6437
54547SOL    HW268199   6.418   6.682   6.676 -0.5730  2.3349  0.6889
54548SOL     OW68200   7.320   5.384   8.713 -0.0184  0.0093 -0.3594
54548SOL    HW168201   7.244   5.331   8.689 -0.8613  1.0624 -0.0919
54548SOL    HW268202   7.296   5.473   8.687  0.5056  0.6078  1.1098
54549SOL     OW68203   2.992   1.374   6.873 -0.3207 -0.5670  0.3940
54549SOL    HW168204   2.998   1.469   6.875 -1.6882 -0.4624  1.2671
54549SOL    HW268205   3.049   1.344   6.944 -1.7447 -0.2302  1.7330
54550SOL     OW68206   9.180   7.980   4.617 -0.1820 -0.2562  0.2708
54550SOL    HW168207   9.264   7.963   4.576 -0.1866  0.0570  0.1318
54550SOL    HW268208   9.158   7.898   4.661 -0.3592 -0.7382 -0.6782
54551SOL     OW68209   7.405   2.133   0.373 -0.4255  0.3504  0.5550
54551SOL    HW168210   7.337   2.069   0.353 -0.9384  0.9955  0.1747
54551SOL    HW268211   7.392   2.203   0.308  2.2715 -0.7081 -1.2946
54552SOL     OW68212   5.391  10.039   8.122 -0.1482  0.5762 -0.0584
54552SOL    HW168213   5.352   9.954   8.142 -0.3883  0.4150 -1.1620
54552SOL    HW268214   5.480  10.019   8.094 -0.4646  0.5842 -1.1337
54553SOL     OW68215   1.204  10.859   8.146  0.5475  0.1963 -0.3937
54553SOL    HW168216   1.251  10.930   8.188 -0.8095  0.3764  0.9116
54553SOL    HW268217   1.164  10.899   8.069 -0.6204  1.0105  0.6006
54554SOL     OW68218   7.024  11.147  11.482  0.1169  0.2000  0.3674
54554SOL    HW168219   6.954  11.204  11.515  1.0310  0.3434  2.1910
54554SOL    HW268220   7.063  11.109  11.561  1.9683 -0.0219 -0.5951
54555SOL     OW68221   6.149   9.601   3.262 -0.1439  1.0285 -0.5653
54555SOL    HW168222   6.090   9.668   3.299  2.2241  1.8863  1.9886
54555SOL    HW268223   6.144   9.615   3.168 -1.6259  3.1476 -0.2527
54556SOL     OW68224   5.496   0.140   1.119 -0.1639 -0.7398 -0.6726
54556SOL    HW168225   5.591   0.137   1.120 -0.1368 -0.5818 -1.5838
54556SOL    HW268226   5.471   0.146   1.211  0.7962  1.4679 -0.4907
54557SOL     OW68227  10.317   3.442  10.535  0.2773 -0.2494  0.3627
54557SOL    HW168228  10.396   3.471  10.580  0.5929  1.2377 -1.0320
54557SOL    HW268229  10.334   3.460  10.442 -1.1688 -1.1838 -0.1298
54558SOL     OW68230  10.147   1.233   7.256  0.0383 -0.9229  0.5013
54558SOL    HW168231  10.232   1.266   7.284 -0.6678 -1.0358  3.0619
54558SOL    HW268232  10.108   1.197   7.336 -1.6272 -2.6485 -0.9846
54559SOL     OW68233   6.824   3.789  11.030  0.3681  0.0549 -0.0562
54559SOL    HW168234   6.869   3.861  10.984 -0.7392  1.2361  0.6391
54559SOL    HW268235   6.732   3.814  11.029  0.0786 -0.8760  1.0677
54560SOL     OW68236   3.902   3.212   8.637  0.1684  0.1419  0.0180
54560SOL    HW168237   3.906   3.233   8.731 -2.4683  0.7396  0.0750
54560SOL    HW268238   3.883   3.118   8.634 -0.2705  0.2241  0.1168
54561SOL     OW68239   7.711   8.211  10.317  0.4244  0.4039  0.1097
54561SOL    HW168240   7.669   8.128  10.292 -1.5364  1.8043 -1.5047
54561SOL    HW268241   7.764   8.235  10.241  0.8986  0.6902  0.5275
54562SOL     OW68242  10.387   3.383   2.967  0.3729  0.1387 -0.6848
54562SOL    HW168243  10.300   3.358   2.937  0.0263  0.5738 -0.0550
54562SOL    HW268244  10.407   3.462   2.916 -0.0881  0.7005 -0.0163
54563SOL     OW68245   6.761   9.391   3.883  0.0844 -0.0338 -0.9643
54563SOL    HW168246   6.822   9.327   3.847  1.4130 -0.0841  1.1805
54563SOL    HW268247   6.806   9.475   3.873 -0.2842  0.1609 -0.9947
54564SOL     OW68248   4.540   4.787   9.218  0.3572  0.2275 -0.0972
54564SOL    HW168249   4.521   4.847   9.291 -0.7624 -0.9299  0.6062
54564SOL    HW268250   4.635   4.791   9.209  0.4785  0.7738  1.1086
54565SOL     OW68251   4.880   5.435   6.944  0.5925  0.0353 -0.5802
54565SOL    HW168252   4.885   5.476   6.858 -0.4498 -0.4137 -0.8658
54565SOL    HW268253   4.971   5.413   6.965  0.8078 -0.2867 -1.7752
54566SOL     OW68254   3.891   2.387   2.293  0.0099  0.2162  0.1155
54566SOL    HW168255   3.875   2.294   2.278  1.0155  0.1155 -0.3981
54566SOL    HW268256   3.979   2.402   2.258 -0.3015  1.4430 -0.1712
54567SOL     OW68257   3.143   6.213   7.685  0.0833 -0.7665 -0.1728
54567SOL    HW168258   3.167   6.241   7.597 -1.0906  0.3177 -0.1795
54567SOL    HW268259   3.211   6.249   7.741 -1.7746  3.0031 -0.0809
54568SOL     OW68260   8.355   8.558   2.483 -0.0926  0.4126  0.7426
54568SOL    HW168261   8.315   8.617   2.548  0.0584  1.2475  0.0939
54568SOL    HW268262   8.448   8.579   2.487 -0.3644  2.4971 -1.6804
54569SOL     OW68263   6.260   4.430   3.417 -0.0598 -0.0074  0.1433
54569SOL    HW168264   6.319   4.504   3.430 -1.5195  1.1575  0.3689
54569SOL    HW268265   6.297   4.360   3.472  0.6120  0.9649  0.9631
54570SOL     OW68266   7.941   8.841   8.537 -0.3927 -0.1426  0.1067
54570SOL    HW168267   7.851   8.829   8.565 -1.3752  2.1387 -1.6563
54570SOL    HW268268   7.934   8.864   8.444  2.2208 -2.1750 -0.7185
54571SOL     OW68269   6.613   0.374  10.340 -0.3657 -0.4306  0.0494
54571SOL    HW168270   6.666   0.321  10.280  1.1799  0.5847  0.4466
54571SOL    HW268271   6.614   0.325  10.422 -0.6765 -0.7738 -0.1473
54572SOL     OW68272   8.218   2.517  11.119  0.6122 -0.2423 -0.1664
54572SOL    HW168273   8.272   2.471  11.183 -0.1389 -0.0501  0.6355
54572SOL    HW268274   8.146   2.553  11.171  0.4239  0.6206 -0.9994
54573SOL     OW68275  10.345   2.641   7.278  0.2616  0.7080 -0.2406
54573SOL    HW168276  10.358   2.721   7.226  3.6931  0.2868 -0.2788
54573SOL    HW268277  10.344   2.571   7.214  0.3831  0.4825  0.0051
54574SOL     OW68278   2.518   7.970   2.155  0.5244 -0.6692 -0.4427
54574SOL    HW168279   2.605   7.990   2.188  0.8817 -0.5885 -1.4321
54574SOL    HW268280   2.509   7.875   2.168  1.1522 -0.8480 -1.2415
54575SOL     OW68281   1.152  10.226   5.291  0.1609 -0.2344  0.3845
54575SOL    HW168282   1.088  10.255   5.356 -1.8171 -0.8256 -1.1968
54575SOL    HW268283   1.138  10.132   5.284  2.4044 -0.6993  1.1656
54576SOL     OW68284   3.192  11.920   8.673 -0.1054 -0.2278  0.1957
54576SOL    HW168285   3.222  11.830   8.688  0.3692 -0.5490 -2.1634
54576SOL    HW268286   3.147  11.916   8.588 -1.6249  1.4472  0.8523
54577SOL     OW68287   0.756   9.001   8.893  0.1464  0.3084 -0.4542
54577SOL    HW168288   0.839   9.038   8.862  0.8070  1.2151  2.1519
54577SOL    HW268289   0.690   9.034   8.832  1.3578  1.8702 -0.9639
54578SOL     OW68290   9.567   0.542   7.977 -0.0013 -0.4416  0.3141
54578SOL    HW168291   9.635   0.486   8.016  0.5478  1.0239  1.5707
54578SOL    HW268292   9.552   0.611   8.042 -1.4883  0.2330 -0.6785
54579SOL     OW68293   6.800   7.246   7.773  0.3002 -0.0040 -0.1914
54579SOL    HW168294   6.710   7.280   7.768 -1.2065 -3.4485  0.0261
54579SOL    HW268295   6.817   7.238   7.867  0.1466 -0.8530 -0.2267
54580SOL     OW68296   9.040   6.632   3.013 -0.1766 -0.7897  0.2898
54580SOL    HW168297   9.128   6.649   2.979 -0.3828 -0.8062 -0.2751
54580SOL    HW268298   9.037   6.678   3.097 -0.8652  2.6173 -1.3906
54581SOL     OW68299   0.537  10.056   9.819  0.1799 -0.2907  0.2457
54581SOL    HW168300   0.550  10.079   9.911 -0.0669 -0.3066  0.2843
54581SOL    HW268301   0.620  10.079   9.777 -0.1901  1.0266  0.2122
54582SOL     OW68302   0.804   8.455   5.834  0.0595  0.1000  0.4297
54582SOL    HW168303   0.850   8.401   5.770  2.0056 -1.0332  2.6120
54582SOL    HW268304   0.755   8.392   5.887 -0.3587  0.8459  0.9498
54583SOL     OW68305   6.453   7.512  11.339  0.3810  0.0223  0.1526
54583SOL    HW168306   6.462   7.603  11.369  0.1930  0.1081 -0.0477
54583SOL    HW268307   6.537   7.491  11.299  0.9061 -0.3429  1.3984
54584SOL     OW68308   4.489   7.300   1.882 -0.0954 -0.4625 -0.1889
54584SOL    HW168309   4.475   7.377   1.937  1.3116 -1.3640  1.5245
54584SOL    HW268310   4.584   7.298   1.868  0.2024 -2.9345  1.5373
54585SOL     OW68311   8.572  11.096  11.122  0.0683 -0.0358 -0.3424
54585SOL    HW168312   8.611  11.048  11.049 -0.9469 -0.4859 -0.6032
54585SOL    HW268313   8.645  11.115  11.180  0.6109 -1.2585 -0.5957
54586SOL     OW68314   4.424   5.511  10.187  0.3315  0.4635  0.6974
54586SOL    HW168315   4.342   5.556  10.205  1.4047  1.5343  3.5213
54586SOL    HW268316   4.401   5.419  10.185 -0.8254  0.6759  2.4471
54587SOL     OW68317   6.227   0.040   8.321 -0.3154  0.5697  0.3106
54587SOL    HW168318   6.161   0.082   8.376 -0.2302 -0.2263  1.0559
54587SOL    HW268319   6.293   0.009   8.383 -0.7304 -1.2804 -0.0906
54588SOL     OW68320  10.226   8.241  10.631  0.4157 -0.4343  0.1900
54588SOL    HW168321  10.206   8.334  10.633  2.2439  0.0013 -0.0652
54588SOL    HW268322  10.145   8.198  10.659 -0.4649  1.2150  0.2580
54589SOL     OW68323  10.828   2.686   2.414 -0.1567 -0.3472  0.3406
54589SOL    HW168324  10.843   2.631   2.337 -0.7643 -1.1671  0.7879
54589SOL    HW268325  10.910   2.681   2.464  0.0937 -0.1458 -0.0467
54590SOL     OW68326   8.059   4.227   5.598  0.1597  0.0045 -0.2314
54590SOL    HW168327   8.144   4.234   5.642 -0.5816 -1.1784  1.5140
54590SOL    HW268328   8.045   4.133   5.587 -0.8110  0.1915 -0.7577
54591SOL     OW68329   2.407   8.642  10.040  0.3343  0.1444  0.0953
54591SOL    HW168330   2.443   8.714  10.092 -1.3057  1.7558 -0.9105
54591SOL    HW268331   2.425   8.666   9.949 -4.2438  1.8371 -0.6330
54592SOL     OW68332   5.217   1.240   4.653  0.6251  0.3174  0.4790
54592SOL    HW168333   5.282   1.302   4.620  0.7899  0.4098  0.9680
54592SOL    HW268334   5.141   1.295   4.676  1.1674  0.5018  1.9548
54593SOL     OW68335   0.049  11.236   8.749 -0.1556  0.0420  0.4501
54593SOL    HW168336   0.121  11.175   8.765  0.2620 -0.1236 -1.6613
54593SOL    HW268337   0.092  11.318   8.723 -0.6964 -0.0141 -0.6954
54594SOL     OW68338   5.747   8.254   2.842 -0.5222 -0.0104 -0.3390
54594SOL    HW168339   5.722   8.205   2.921  0.9341  0.3941  0.4184
54594SOL    HW268340   5.669   8.305   2.820 -0.5248  0.9671  1.7175
54595SOL     OW68341   5.120   6.266   3.934 -0.5258  0.3059 -0.0071
54595SOL    HW168342   5.154   6.181   3.960 -1.4153 -0.0571  0.0301
54595SOL    HW268343   5.102   6.311   4.017  0.2408  0.6643 -0.0266
54596SOL     OW68344   0.114   6.024   5.546  0.5100 -0.2470 -0.3247
54596SOL    HW168345   0.200   6.029   5.586 -0.2092 -0.7021  1.3552
54596SOL    HW268346   0.126   5.968   5.469  2.2983  2.1417 -1.9116
54597SOL     OW68347  10.847   1.942  11.818  0.3382  0.2234 -0.6363
54597SOL    HW168348  10.799   2.003  11.873 -0.5810 -0.6645 -0.4290
54597SOL    HW268349  10.796   1.936  11.737  0.5967 -0.0215 -0.7860
54598SOL     OW68350  11.412   8.588  10.294  0.7293  0.1446 -0.4207
54598SOL    HW168351  11.405   8.610  10.201  0.9724  1.1958 -0.1960
54598SOL    HW268352  11.494   8.627  10.322  2.0958 -2.4986 -0.3824
54599SOL     OW68353   9.113   2.510   8.015 -0.1398 -0.4514  0.2104
54599SOL    HW168354   9.101   2.495   8.109  1.6268 -0.8406  0.4015
54599SOL    HW268355   9.027   2.539   7.984 -0.2595  1.8306  2.3683
54600SOL     OW68356   7.497  10.067   4.417 -0.0198  0.2724  0.0339
54600SOL    HW168357   7.454  10.018   4.487  0.1739  0.3290  0.1934
54600SOL    HW268358   7.575  10.016   4.396  0.5200  0.8324  0.6357
54601SOL     OW68359   9.926   6.540   8.123  0.2967 -0.0191  0.1914
54601SOL    HW168360   9.970   6.530   8.208  0.5693 -1.1405 -0.0666
54601SOL    HW268361   9.945   6.458   8.076 -1.2829 -0.1537 -0.2797
54602SOL     OW68362   3.482   8.997   7.905 -0.0636  0.2925  0.2293
54602SOL    HW168363   3.407   8.995   7.964  0.2388  3.8674  0.9707
54602SOL    HW268364   3.552   8.955   7.954 -0.7808 -0.2496  0.8139
54603SOL     OW68365   2.802  10.966   3.705 -0.1361 -0.2782  0.1497
54603SOL    HW168366   2.734  10.912   3.745 -1.3532  0.5451 -0.7355
54603SOL    HW268367   2.764  11.054   3.702  0.1986 -0.1444 -2.0425
54604SOL     OW68368  12.113  12.020   9.528 -0.3874 -0.3033  0.0750
54604SOL    HW168369  12.132  11.993   9.617 -2.9450 -1.4346  0.3877
54604SOL    HW268370  12.128  12.115   9.527  0.1108 -0.3445  1.5728
54605SOL     OW68371  11.155   2.654   0.278  0.2219 -0.0685 -0.0160
54605SOL    HW168372  11.207   2.728   0.309  0.6723 -1.1351  1.9238
54605SOL    HW268373  11.076   2.694   0.241  0.7677  1.4090  0.3389
54606SOL     OW68374   6.330   8.779   1.333  0.2098 -0.2162 -0.4109
54606SOL    HW168375   6.334   8.694   1.376  1.3222 -0.0096 -0.0654
54606SOL    HW268376   6.422   8.802   1.317 -0.1206  0.3835 -1.5627
54607SOL     OW68377   1.826   0.813   2.750 -0.2699  0.2279 -0.4819
54607SOL    HW168378   1.737   0.820   2.715 -0.7776  1.0833  0.8815
54607SOL    HW268379   1.878   0.869   2.694 -0.8548  0.7502 -0.5187
54608SOL     OW68380  11.164   9.044   1.309 -0.4050 -0.5686 -0.3318
54608SOL    HW168381  11.183   9.134   1.281  0.4450  0.1144  2.1794
54608SOL    HW268382  11.191   8.990   1.235  2.9615  1.0058 -0.4589
54609SOL     OW68383   0.556   0.379   1.526  0.3628  0.0755 -0.3688
54609SOL    HW168384   0.575   0.472   1.517  0.2159  0.2458  0.9120
54609SOL    HW268385   0.462   0.372   1.505  0.5166  0.1088 -1.0881
54610SOL     OW68386  11.981   3.208   6.674 -0.2668  0.1790  0.0944
54610SOL    HW168387  12.031   3.222   6.755  0.7920  2.7307 -0.8939
54610SOL    HW268388  12.047   3.199   6.606 -1.1606 -0.9091 -0.6564
54611SOL     OW68389   0.291   7.925   6.605 -0.0857  0.1106  0.4242
54611SOL    HW168390   0.358   7.945   6.671  1.3615  0.7809 -1.1438
54611SOL    HW268391   0.319   7.842   6.567 -0.2209  0.3123 -0.1306
54612SOL     OW68392   4.576   5.443   7.814 -0.4167 -0.3800  0.2437
54612SOL    HW168393   4.560   5.492   7.733  0.8629  1.0431  0.8198
54612SOL    HW268394   4.576   5.510   7.883  0.2416 -1.3501  1.2070
54613SOL     OW68395   8.616   7.883   5.962  0.5571 -0.2003 -0.1969
54613SOL    HW168396   8.543   7.932   5.924  0.3397 -0.2581  0.1398
54613SOL    HW268397   8.610   7.796   5.921 -0.5618 -0.7420  1.0081
54614SOL     OW68398   0.738   6.620   2.466  0.6675 -0.4401  0.2989
54614SOL    HW168399   0.709   6.540   2.421 -0.1752 -0.6173  1.1271
54614SOL    HW268400   0.734   6.688   2.398 -2.1257 -0.3681  0.4225
54615SOL     OW68401   5.641   5.999   4.295  0.6836 -0.4479  0.1638
54615SOL    HW168402   5.734   5.979   4.296  0.3176 -2.4569 -0.3772
54615SOL    HW268403   5.624   6.041   4.379  1.8986 -0.8901  0.6490
54616SOL     OW68404   2.371   3.724  10.510  0.5403 -0.2179 -0.2095
54616SOL    HW168405   2.293   3.760  10.467  1.7589 -0.1118 -2.5392
54616SOL    HW268406   2.371   3.763  10.597 -1.6615  0.2601 -0.3741
54617SOL     OW68407  10.753   6.527   0.591  0.5742 -0.3254  0.1424
54617SOL    HW168408  10.817   6.550   0.524 -0.9464  1.9243 -0.6840
54617SOL    HW268409  10.698   6.460   0.549  0.0401  0.5872 -0.6834
54618SOL     OW68410   2.621   3.882   6.883 -0.5762  0.5085  0.3493
54618SOL    HW168411   2.583   3.893   6.970  0.4402 -1.2300  1.0646
54618SOL    HW268412   2.552   3.840   6.832 -0.7295  0.2985  0.7207
54619SOL     OW68413   3.886   4.750   4.508  0.2939  0.3673  0.0269
54619SOL    HW168414   3.859   4.718   4.422 -0.1918  1.5576 -0.2863
54619SOL    HW268415   3.832   4.701   4.571 -0.8547  0.9704 -0.4656
54620SOL     OW68416   9.696  10.340  10.258  0.1003  0.2993 -0.5480
54620SOL    HW168417   9.758  10.336  10.331 -1.4300 -0.1190  0.7956
54620SOL    HW268418   9.629  10.402  10.287 -0.3456  0.4205 -1.7779
54621SOL     OW68419   9.621   5.708   4.351  0.1133 -0.4716  0.5436
54621SOL    HW168420   9.592   5.636   4.294  0.1610 -1.1442  1.3473
54621SOL    HW268421   9.661   5.664   4.426 -1.5020  0.3348  1.9440
54622SOL     OW68422  11.079   8.534   4.301  0.1543 -0.3956  0.3890
54622SOL    HW168423  11.132   8.567   4.374  1.4532  0.0630 -0.7164
54622SOL    HW268424  11.142   8.491   4.243 -0.5491  0.7762 -1.3271
54623SOL     OW68425   8.412   9.074   4.713 -0.1245 -0.5477 -0.4336
54623SOL    HW168426   8.375   8.986   4.721  0.1858 -0.6317  0.1171
54623SOL    HW268427   8.423   9.087   4.618 -1.2120 -0.6526 -0.5790
54624SOL     OW68428  11.463   2.420   8.789  0.2671  0.5861  0.3860
54624SOL    HW168429  11.376   2.421   8.830  0.6887 -0.7190  1.3917
54624SOL    HW268430  11.454   2.475   8.712 -0.7872  2.5037  1.7969
54625SOL     OW68431   3.931   0.743  10.649 -0.2105 -0.1397 -0.3844
54625SOL    HW168432   3.895   0.684  10.715  0.4767 -1.3922 -1.0837
54625SOL    HW268433   4.024   0.722  10.646  0.2365  1.6808  0.0208
54626SOL     OW68434   9.462   2.680   1.120 -0.0586 -0.4439 -0.9547
54626SOL    HW168435   9.399   2.724   1.177 -0.7890 -3.2882  0.6219
54626SOL    HW268436   9.546   2.718   1.144 -0.7489  0.8603 -0.4991
54627SOL     OW68437   8.664   1.456  10.330  0.6314 -0.0511  0.2059
54627SOL    HW168438   8.678   1.430  10.239 -1.0931  0.4212 -0.2345
54627SOL    HW268439   8.749   1.446  10.372  1.4368 -0.3473 -1.4434
54628SOL     OW68440   5.685   3.141   8.938 -0.1263 -0.4562 -0.0211
54628SOL    HW168441   5.659   3.220   8.892  3.1598  2.1261  2.1090
54628SOL    HW268442   5.733   3.090   8.872 -1.3500 -0.2275 -1.1314
54629SOL     OW68443   5.329   2.264   0.721 -0.1761  0.2430 -0.1256
54629SOL    HW168444   5.425   2.266   0.719 -0.0629  3.4691  1.5584
54629SOL    HW268445   5.303   2.319   0.647 -0.9182 -2.1349 -1.7586
54630SOL     OW68446   1.560   7.262   9.380 -0.0838  0.8888 -0.3089
54630SOL    HW168447   1.582   7.353   9.401 -0.9734  1.3091 -1.0959
54630SOL    HW268448   1.626   7.235   9.317 -0.4814  1.3937 -0.9566
54631SOL     OW68449   6.681   3.647   1.283  0.1987 -0.5423 -0.5952
54631SOL    HW168450   6.733   3.678   1.210  1.5817  0.5921  0.7940
54631SOL    HW268451   6.654   3.727   1.330 -0.4624 -1.2389  0.2618
54632SOL     OW68452   9.755   5.707   6.713 -0.1538 -0.2684 -0.6820
54632SOL    HW168453   9.691   5.679   6.779  1.5361 -3.0601 -0.0534
54632SOL    HW268454   9.732   5.657   6.635  1.6044 -1.9594 -0.2089
54633SOL     OW68455   8.738  11.326   8.070 -0.0473  0.0992  0.1890
54633SOL    HW168456   8.683  11.396   8.105 -1.0164 -1.1806  1.3134
54633SOL    HW268457   8.759  11.272   8.146  1.4831 -0.3227 -0.4999
54634SOL     OW68458   5.973  10.423   3.193 -0.0907  0.1433 -0.5347
54634SOL    HW168459   5.908  10.455   3.256  2.0346 -1.1817  2.6425
54634SOL    HW268460   5.922  10.386   3.122 -2.9595 -2.0239  2.3582
54635SOL     OW68461   5.911   8.183  10.008  0.2162 -0.6157 -0.0995
54635SOL    HW168462   5.889   8.274   9.988 -0.4779 -0.2586  2.0025
54635SOL    HW268463   5.836   8.132   9.977  0.2999 -0.4073 -0.6532
54636SOL     OW68464   6.240   2.286   4.479 -0.1567 -0.4306  0.0404
54636SOL    HW168465   6.230   2.243   4.564  0.5810  0.2737  0.5015
54636SOL    HW268466   6.164   2.343   4.472 -0.6133 -1.0487 -0.1225
54637SOL     OW68467   0.667   9.715   1.507 -0.2126 -0.3351 -0.1752
54637SOL    HW168468   0.686   9.661   1.429  0.5905 -0.3093 -0.0068
54637SOL    HW268469   0.629   9.795   1.471 -1.1580 -0.8895 -0.4479
54638SOL     OW68470  10.088   2.108   8.939  0.2299 -0.5165 -0.3244
54638SOL    HW168471  10.056   2.018   8.932 -1.1267 -0.1316  0.4318
54638SOL    HW268472  10.152   2.116   8.869  1.5542 -2.5216  0.5584
54639SOL     OW68473   5.651   6.168   5.980  0.5532 -0.3497 -0.4760
54639SOL    HW168474   5.655   6.258   6.011 -2.0840 -0.1251 -0.5776
54639SOL    HW268475   5.602   6.172   5.898  1.1621 -1.7924 -0.9529
54640SOL     OW68476  10.240   2.502   8.857 -0.3041  0.1856 -0.4322
54640SOL    HW168477  10.200   2.462   8.780  1.6622  0.9801 -1.9452
54640SOL    HW268478  10.322   2.454   8.870  0.5215  1.5615 -0.3056
54641SOL     OW68479   7.754  10.671   9.020 -0.6768  0.1744 -0.4213
54641SOL    HW168480   7.817  10.663   8.948  1.0281  0.4451  0.9824
54641SOL    HW268481   7.726  10.581   9.037 -1.2956  0.1342 -1.5592
54642SOL     OW68482   0.951   0.955   3.825  0.2512 -0.0096  0.3988
54642SOL    HW168483   0.888   1.006   3.774 -0.2905  1.3424  2.3207
54642SOL    HW268484   1.035   0.998   3.809  0.3491 -0.5004 -0.4766
54643SOL     OW68485   3.862   9.950   8.935 -0.0680  0.3220 -0.0984
54643SOL    HW168486   3.941   9.927   8.984 -0.9066 -0.5506  0.8788
54643SOL    HW268487   3.885  10.032   8.890  1.4445 -0.0169  0.0028
54644SOL     OW68488   0.173   0.787   8.065  0.2391  0.2492 -0.6233
54644SOL    HW168489   0.216   0.792   7.980  0.0437  0.3339 -0.7167
54644SOL    HW268490   0.092   0.739   8.048 -0.4696  1.4661 -0.7506
54645SOL     OW68491   1.185   9.129   5.787 -0.5338 -0.4351  0.2358
54645SOL    HW168492   1.218   9.094   5.704 -0.9122 -0.0481 -0.0854
54645SOL    HW268493   1.188   9.055   5.847 -0.8928 -0.9045 -0.3118
54646SOL     OW68494   6.324  10.156   2.858  0.2338 -0.8097  0.4027
54646SOL    HW168495   6.363  10.104   2.928 -0.6790  0.5320  1.9673
54646SOL    HW268496   6.370  10.239   2.861 -0.0119 -0.6315 -0.4129
54647SOL     OW68497   6.276  11.597   0.935 -0.4751  0.0556 -0.2485
54647SOL    HW168498   6.281  11.692   0.921  0.6940 -0.1327 -1.2682
54647SOL    HW268499   6.202  11.569   0.883  0.8737  0.0541 -2.2821
54648SOL     OW68500   5.514   1.723   2.698  0.1264  0.8263 -0.4124
54648SOL    HW168501   5.470   1.649   2.657 -0.7271  1.6307 -0.9750
54648SOL    HW268502   5.606   1.695   2.705 -0.1567 -0.2285 -0.7245
54649SOL     OW68503   1.404   4.851   8.602  0.2031 -0.3823 -0.3102
54649SOL    HW168504   1.424   4.809   8.686  0.7007  1.2567  0.4216
54649SOL    HW268505   1.366   4.935   8.625  1.3463  0.5693 -1.7143
54650SOL     OW68506   8.629   8.107  11.776 -0.2775 -0.0178 -0.1827
54650SOL    HW168507   8.667   8.159  11.847  0.0312  0.5361 -0.7461
54650SOL    HW268508   8.594   8.172  11.715  0.7590 -0.4295 -1.2529
54651SOL     OW68509   2.077   4.746   6.057 -0.2187  0.3693 -0.5979
54651SOL    HW168510   2.095   4.839   6.071  0.9552  0.2877 -1.4877
54651SOL    HW268511   2.103   4.704   6.139 -2.7774  1.0199  0.6699
54652SOL     OW68512   3.657   4.563   9.115  0.2145 -0.2439  0.0115
54652SOL    HW168513   3.625   4.643   9.074 -0.8265 -0.3946  0.4996
54652SOL    HW268514   3.744   4.586   9.148 -0.1473  0.7473  0.3141
54653SOL     OW68515   4.590   9.919   6.488 -0.5048  0.1011 -0.6075
54653SOL    HW168516   4.527   9.864   6.534  0.1336 -0.5802 -0.5257
54653SOL    HW268517   4.639   9.963   6.558 -2.2930  2.3488 -0.6487
54654SOL     OW68518  11.993  10.600  11.957 -0.1394 -0.4992  0.4912
54654SOL    HW168519  11.903  10.580  11.930  0.2567  0.1667 -1.5101
54654SOL    HW268520  12.023  10.665  11.893  2.5629 -2.4617 -0.4031
54655SOL     OW68521   9.563   1.278   0.273  0.1892 -0.2519 -0.2376
54655SOL    HW168522   9.484   1.229   0.297 -0.9214  1.4532 -0.2005
54655SOL    HW268523   9.530   1.350   0.218  2.0090 -0.8262 -2.1780
54656SOL     OW68524  10.962   4.255   7.964  0.4499 -0.3173 -0.3456
54656SOL    HW168525  10.909   4.258   8.044  0.0536  0.4492 -0.6252
54656SOL    HW268526  11.034   4.315   7.982  1.2753 -1.4040  0.0567
54657SOL     OW68527   2.267   1.897   2.887  0.1291 -0.2190  0.4964
54657SOL    HW168528   2.255   1.943   2.970  0.5822 -0.2911  0.6026
54657SOL    HW268529   2.305   1.812   2.911  1.8128  0.3843  0.1023
54658SOL     OW68530  10.626   1.346   4.794  0.1020  0.0283  0.3116
54658SOL    HW168531  10.677   1.408   4.846 -3.0104  3.3932 -0.3002
54658SOL    HW268532  10.656   1.360   4.704  1.5371 -1.7498  0.4453
54659SOL     OW68533   1.009   1.261   0.498  0.2564  0.5709  0.0020
54659SOL    HW168534   0.942   1.304   0.552  0.9557  0.4052  1.0257
54659SOL    HW268535   1.078   1.326   0.488  1.5484 -0.3915  1.9800
54660SOL     OW68536   5.934   6.117   4.817  0.2554  0.3979  0.3117
54660SOL    HW168537   5.861   6.179   4.818  0.2478  0.3868  0.9005
54660SOL    HW268538   5.904   6.045   4.761 -0.2216  0.3509  0.6223
54661SOL     OW68539   5.920   6.554   4.865 -0.2713 -0.3182  0.0277
54661SOL    HW168540   5.870   6.478   4.895  0.9659 -0.7508  1.1160
54661SOL    HW268541   6.006   6.543   4.904 -0.3321  2.1696  1.0955
54662SOL     OW68542   0.476   8.770   6.619  0.2006  0.2958  0.1426
54662SOL    HW168543   0.453   8.841   6.559  0.8588  1.3673  1.1244
54662SOL    HW268544   0.392   8.742   6.656  0.0777  1.9100  1.2002
54663SOL     OW68545   2.495   3.654   2.641  0.5668 -0.1293 -0.0095
54663SOL    HW168546   2.452   3.579   2.682  0.9702 -0.1854  0.3193
54663SOL    HW268547   2.575   3.618   2.603 -0.0662 -0.1834 -1.3474
54664SOL     OW68548   6.934   5.008   3.483  0.1128 -0.3144 -0.1048
54664SOL    HW168549   6.856   4.981   3.434 -0.5983  0.0287  0.7884
54664SOL    HW268550   6.976   4.926   3.508  0.2124 -0.4995 -0.8532
54665SOL     OW68551  11.253   0.434   8.890  0.5000  0.3815 -0.5241
54665SOL    HW168552  11.158   0.422   8.880  0.5928 -1.2399  0.2412
54665SOL    HW268553  11.267   0.527   8.871 -1.3141  0.7893 -0.0852
54666SOL     OW68554   7.150   1.468   7.736  0.5003  0.6413  0.2870
54666SOL    HW168555   7.132   1.375   7.722  0.7534  0.7275 -0.6913
54666SOL    HW268556   7.208   1.470   7.812  1.6513 -0.1298 -0.5334
54667SOL     OW68557   3.345   1.897   3.433 -0.8246  0.0332  0.2290
54667SOL    HW168558   3.381   1.876   3.519 -0.3782 -1.6204 -0.3268
54667SOL    HW268559   3.251   1.882   3.442 -0.6714 -0.9773  0.2095
54668SOL     OW68560   0.193   5.713  10.042 -0.5219 -0.2373 -0.4809
54668SOL    HW168561   0.264   5.768  10.076 -2.0274  2.0093 -0.6952
54668SOL    HW268562   0.214   5.703   9.949  0.6679 -1.5782 -0.1020
54669SOL     OW68563  11.669   7.329   6.729  0.2363  0.2886  0.3000
54669SOL    HW168564  11.740   7.392   6.738  1.0734 -0.8003  1.6640
54669SOL    HW268565  11.701   7.264   6.667 -0.7453  1.2936 -1.3443
54670SOL     OW68566   8.608   4.528   2.665 -1.2208 -0.5921 -0.1269
54670SOL    HW168567   8.571   4.472   2.597 -0.6633 -0.1850 -0.7709
54670SOL    HW268568   8.531   4.560   2.713 -1.7318  0.0975 -1.3341
54671SOL     OW68569  11.848   9.158   9.875 -0.2932 -0.2211 -0.5087
54671SOL    HW168570  11.766   9.205   9.861 -0.2737 -0.0072  0.0488
54671SOL    HW268571  11.851   9.092   9.807 -0.4168  0.4610 -1.1865
54672SOL     OW68572   1.187  10.882   9.863  0.0672 -0.5321  0.7120
54672SOL    HW168573   1.225  10.922   9.942 -2.0656  1.4347  0.8462
54672SOL    HW268574   1.263  10.848   9.816  1.8262  1.4207  1.8870
54673SOL     OW68575   7.259   2.074   7.855 -0.1561  0.4150 -0.1669
54673SOL    HW168576   7.167   2.061   7.875  0.3544 -1.4440  1.2377
54673SOL    HW268577   7.283   1.998   7.802  0.0831  2.0119 -2.4753
54674SOL     OW68578   6.370   1.053   1.461  0.1034  0.0283 -0.1717
54674SOL    HW168579   6.275   1.041   1.452  0.0814 -0.8582  1.0505
54674SOL    HW268580   6.380   1.116   1.532  0.4277  1.1510 -1.1783
54675SOL     OW68581   1.344   0.452   2.832  0.2714  0.7904  0.2497
54675SOL    HW168582   1.294   0.393   2.776 -0.3742  1.8745 -0.3277
54675SOL    HW268583   1.410   0.395   2.873 -1.3777 -0.6523  1.0082
54676SOL     OW68584  11.617  10.953  10.174 -0.1739  0.3635  0.1486
54676SOL    HW168585  11.674  10.889  10.218  1.6492  2.0792  0.4099
54676SOL    HW268586  11.552  10.975  10.240  0.0136 -0.1781  0.5285
54677SOL     OW68587   7.757  11.381   3.820 -0.4049 -0.2132  0.0440
54677SOL    HW168588   7.673  11.391   3.865  0.2582 -1.1292  1.5804
54677SOL    HW268589   7.771  11.286   3.817  0.8308 -0.0590  0.3271
54678SOL     OW68590   1.585   1.462   9.219  0.2200  0.0665  0.3331
54678SOL    HW168591   1.625   1.400   9.159 -0.0485  0.7287 -0.5570
54678SOL    HW268592   1.568   1.540   9.166 -3.8337 -0.7138  0.1069
54679SOL     OW68593   7.848   6.392   7.568  0.4768  0.5086  0.0051
54679SOL    HW168594   7.938   6.413   7.594 -0.1636  1.6042  1.4598
54679SOL    HW268595   7.824   6.462   7.507  1.0616 -0.5821 -1.5408
54680SOL     OW68596   8.444   8.216   7.761 -0.1997  0.2018  0.1599
54680SOL    HW168597   8.472   8.204   7.852  0.7440  1.0220 -0.0030
54680SOL    HW268598   8.381   8.288   7.765  1.0377  1.3270 -0.0160
54681SOL     OW68599   8.675   1.992   8.680  0.1054 -0.7383 -0.6414
54681SOL    HW168600   8.657   1.957   8.767 -3.1907 -0.0095 -0.8887
54681SOL    HW268601   8.769   2.007   8.679  0.5056 -2.3875  2.1420
54682SOL     OW68602   7.984   8.620   9.022 -0.3138  0.0646  0.3109
54682SOL    HW168603   7.896   8.621   8.985  0.0118  0.0666 -0.4983
54682SOL    HW268604   7.998   8.529   9.048 -0.0290 -0.2601 -0.9097
54683SOL     OW68605   4.967   7.699  11.265  0.0970 -0.4597 -0.3019
54683SOL    HW168606   4.901   7.762  11.234 -1.2246 -0.7071  1.8026
54683SOL    HW268607   5.023   7.683  11.189 -0.4033  2.1341 -1.2965
54684SOL     OW68608   1.206   1.454   5.590  0.3663 -0.1423  0.1789
54684SOL    HW168609   1.113   1.470   5.572 -0.3616 -1.9415  2.0207
54684SOL    HW268610   1.251   1.530   5.552 -1.8552  0.8799 -0.5683
54685SOL     OW68611   7.494   5.576   5.249 -0.5969  0.8413  0.1724
54685SOL    HW168612   7.414   5.542   5.211  0.5120 -0.0464 -1.4835
54685SOL    HW268613   7.485   5.560   5.343 -1.6462 -0.7850 -0.1675
54686SOL     OW68614   7.220   8.843   6.686 -0.0881  0.4824 -0.9303
54686SOL    HW168615   7.254   8.770   6.633 -1.8972  0.1795 -1.7527
54686SOL    HW268616   7.296   8.875   6.735  1.0175 -1.1286 -1.5189
54687SOL     OW68617   3.860   7.296   8.048 -0.0457 -0.4433  0.0615
54687SOL    HW168618   3.893   7.337   7.968 -1.6485  0.8875  0.0476
54687SOL    HW268619   3.824   7.369   8.099  2.6627 -0.9190  2.9396
54688SOL     OW68620   9.583   3.864   9.058 -0.8347  0.3514 -0.3719
54688SOL    HW168621   9.640   3.873   9.135  0.6711  0.2976 -1.4462
54688SOL    HW268622   9.516   3.800   9.085 -1.2576  1.4641  1.3859
54689SOL     OW68623  11.791  10.700   4.727 -0.4611  0.6793 -0.0900
54689SOL    HW168624  11.797  10.769   4.660 -0.7413  0.9781  0.1867
54689SOL    HW268625  11.881  10.673   4.742 -0.4064  0.4908 -0.7088
54690SOL     OW68626   9.735   1.827   7.223  0.1452 -0.2270  0.7969
54690SOL    HW168627   9.711   1.901   7.278  1.9124  0.1833  1.0897
54690SOL    HW268628   9.726   1.860   7.133 -0.8896 -0.2804  0.8747
54691SOL     OW68629   1.990   7.567   5.794 -0.5204 -0.9272 -0.4793
54691SOL    HW168630   2.035   7.626   5.734 -0.2438  4.5023  4.1328
54691SOL    HW268631   2.060   7.528   5.846 -0.7496  0.5378  1.0232
54692SOL     OW68632   6.649   1.001   4.358  0.6644 -0.2604  0.1574
54692SOL    HW168633   6.674   0.921   4.311 -2.1186  0.1714 -2.4125
54692SOL    HW268634   6.710   1.006   4.431  2.7377 -3.2183 -1.1513
54693SOL     OW68635   2.079  11.901   1.712  0.1230 -0.0404 -0.2067
54693SOL    HW168636   1.997  11.950   1.710 -1.2589 -2.2628 -0.6494
54693SOL    HW268637   2.061  11.825   1.767  2.0935 -0.2738  0.2037
54694SOL     OW68638   0.068  10.931   4.774 -0.4687  0.5009 -0.5015
54694SOL    HW168639   0.066  11.026   4.761 -0.4097  0.6929  0.6958
54694SOL    HW268640   0.039  10.920   4.865 -0.6567 -0.6471 -0.6906
54695SOL     OW68641   7.415   1.673   2.054 -0.2641 -0.1805 -0.0425
54695SOL    HW168642   7.426   1.625   2.136 -0.0557  1.0804  0.6935
54695SOL    HW268643   7.322   1.664   2.033 -0.7266  1.0016  1.3369
54696SOL     OW68644  11.528   8.128   6.488  0.2215 -0.6481  0.0601
54696SOL    HW168645  11.485   8.054   6.445  2.1744 -0.7154 -1.9182
54696SOL    HW268646  11.587   8.088   6.552 -0.7251 -0.6275  0.9962
54697SOL     OW68647   4.563   2.684   3.149 -0.1410  0.3318  0.0564
54697SOL    HW168648   4.508   2.739   3.205  1.1779  1.6090  0.1332
54697SOL    HW268649   4.580   2.738   3.071  1.1059  0.0126  0.0919
54698SOL     OW68650  11.086   3.438   3.623  0.1549 -0.4808  0.2320
54698SOL    HW168651  11.101   3.532   3.620  0.8751 -0.5663 -3.3735
54698SOL    HW268652  10.999   3.426   3.586  0.1435 -1.2643  0.4917
54699SOL     OW68653  11.405   4.994   3.068  0.0658  0.0697  0.3867
54699SOL    HW168654  11.319   4.993   3.111  0.5057  1.2465  1.3629
54699SOL    HW268655  11.464   4.952   3.130  0.1345 -1.1888 -0.4923
54700SOL     OW68656   5.660   6.523   7.472 -0.0432  0.0636 -0.0687
54700SOL    HW168657   5.593   6.571   7.522 -0.6767  1.2230 -1.9155
54700SOL    HW268658   5.707   6.591   7.425  1.0103 -0.9337 -0.4824
54701SOL     OW68659   6.981  12.085   2.047 -0.2614  0.3892 -0.0685
54701SOL    HW168660   6.907  12.109   1.992 -1.5144  0.4552  1.5814
54701SOL    HW268661   6.950  12.012   2.100  1.0651  0.0044  0.2272
54702SOL     OW68662   0.375   1.425   3.740  0.2460  0.8103  0.2281
54702SOL    HW168663   0.390   1.333   3.721 -2.0539  0.3285  0.4071
54702SOL    HW268664   0.447   1.451   3.798  1.1938 -0.7131 -0.2313
54703SOL     OW68665   9.832   9.409   8.535 -0.8757 -0.0024  0.0235
54703SOL    HW168666   9.749   9.390   8.491  0.1575 -1.1293 -1.5604
54703SOL    HW268667   9.845   9.503   8.523 -0.6697 -0.2564 -2.0932
54704SOL     OW68668  10.544  11.479   9.933 -0.0409 -0.3212 -0.3550
54704SOL    HW168669  10.619  11.515   9.886  0.7861 -0.6377  0.6965
54704SOL    HW268670  10.478  11.464   9.865  0.9807 -0.3962 -1.3480
54705SOL     OW68671   4.909   4.975   6.828 -0.2459  0.3155 -0.3183
54705SOL    HW168672   4.834   5.034   6.816 -0.7825 -0.2837  0.0351
54705SOL    HW268673   4.914   4.927   6.745 -0.2154  0.3924 -0.3615
54706SOL     OW68674   6.539   5.100  11.980 -0.5534  0.0973  0.3439
54706SOL    HW168675   6.454   5.103  12.024  0.2194  3.9971  2.0258
54706SOL    HW268676   6.528   5.155  11.903  0.5853  1.3704  1.0451
54707SOL     OW68677  12.031   6.623  11.021 -0.3273 -0.2160  0.1771
54707SOL    HW168678  12.081   6.552  11.061  2.3797  1.4874  0.0220
54707SOL    HW268679  12.086   6.656  10.951 -1.7011  1.7401 -0.0797
54708SOL     OW68680   9.653   9.524   7.748  0.7634 -0.1382  0.3069
54708SOL    HW168681   9.661   9.462   7.676 -0.7753 -0.8796  0.7405
54708SOL    HW268682   9.692   9.479   7.823  0.6939 -0.1052  0.3630
54709SOL     OW68683   4.224   8.087   1.152 -0.0227  0.1437 -0.4791
54709SOL    HW168684   4.299   8.145   1.167 -0.7721  0.7183  1.3475
54709SOL    HW268685   4.175   8.130   1.081  1.1027 -0.0040 -1.3783
54710SOL     OW68686   6.921   7.037  11.379 -0.2275  0.1680 -0.0017
54710SOL    HW168687   6.888   7.006  11.463  0.2855  0.4407  0.2991
54710SOL    HW268688   6.900   6.966  11.318 -0.4172 -0.1156  0.3907
54711SOL     OW68689   1.979   9.628   0.338  0.2165 -0.9024  0.2610
54711SOL    HW168690   1.916   9.556   0.334 -0.4949 -0.2915  0.1770
54711SOL    HW268691   2.064   9.586   0.343 -0.2171 -1.7496  0.6298
54712SOL     OW68692   2.052   1.315   7.021  0.1835 -0.3502 -0.1218
54712SOL    HW168693   1.994   1.270   7.082  0.4868 -0.2106  0.2751
54712SOL    HW268694   2.116   1.359   7.077 -0.0979  0.5622 -0.5023
54713SOL     OW68695   8.336   5.657   1.225 -0.4124  0.3489  0.3727
54713SOL    HW168696   8.340   5.748   1.255 -0.0415  0.6093 -0.4497
54713SOL    HW268697   8.242   5.640   1.215 -0.4510  1.1005 -0.7843
54714SOL     OW68698   9.168  11.575   0.268  0.8464 -0.0178 -0.2503
54714SOL    HW168699   9.087  11.525   0.262  0.2203  0.9826 -0.3204
54714SOL    HW268700   9.233  11.521   0.223  0.4659 -1.2936  0.6582
54715SOL     OW68701   7.554  10.306  11.491  0.2853  0.0074  0.1467
54715SOL    HW168702   7.608  10.321  11.414 -1.0449  1.3086 -0.5966
54715SOL    HW268703   7.544  10.211  11.496  0.4249 -0.1007 -1.2664
54716SOL     OW68704  10.875   7.470   6.782 -0.0779  0.0662 -0.2107
54716SOL    HW168705  10.813   7.407   6.821  0.1232  0.8653  1.4756
54716SOL    HW268706  10.938   7.415   6.736 -1.3355 -0.8233 -0.9673
54717SOL     OW68707   1.251   7.860  10.517 -1.0818  0.2433 -1.0711
54717SOL    HW168708   1.289   7.851  10.605 -2.7194  1.7570 -0.1410
54717SOL    HW268709   1.254   7.954  10.500 -0.2091 -0.0908 -2.9495
54718SOL     OW68710   0.873   3.773  11.838  0.6718 -0.3405  0.1035
54718SOL    HW168711   0.822   3.745  11.762  0.7935 -3.6158  1.0683
54718SOL    HW268712   0.821   3.743  11.914  2.6263 -1.2307  1.1685
54719SOL     OW68713   6.254  10.847   7.490  0.6930  0.4206 -0.1969
54719SOL    HW168714   6.349  10.850   7.478  0.8548 -1.7809  0.1596
54719SOL    HW268715   6.220  10.806   7.411  0.4075 -1.7137  0.9541
54720SOL     OW68716   1.735  10.649   7.597  0.3966  0.0123 -0.0512
54720SOL    HW168717   1.736  10.694   7.682  1.6947 -1.1137  0.5569
54720SOL    HW268718   1.747  10.719   7.533  0.8258  0.7145  0.7804
54721SOL     OW68719   0.077   7.466   9.826 -0.4369 -0.0405 -0.5443
54721SOL    HW168720   0.002   7.438   9.879 -1.4466 -0.7855 -2.2566
54721SOL    HW268721   0.114   7.541   9.873 -1.5473 -0.3894  0.9439
54722SOL     OW68722   1.762   5.143   7.205 -0.4200  0.1398  0.0699
54722SOL    HW168723   1.691   5.084   7.230  0.0985 -0.9153 -0.8321
54722SOL    HW268724   1.749   5.157   7.111  0.8290 -0.4897 -0.2226
54723SOL     OW68725   1.913   0.995  10.559 -0.0707  0.2226  0.1244
54723SOL    HW168726   1.855   0.925  10.530  0.9520 -0.2102 -0.9234
54723SOL    HW268727   1.894   1.004  10.653 -0.4191 -1.2489  0.2202
54724SOL     OW68728   4.465   2.110   3.492  0.0170 -0.4069  0.7650
54724SOL    HW168729   4.501   2.188   3.536 -1.6988 -0.3413  2.1798
54724SOL    HW268730   4.404   2.073   3.556 -0.5977 -1.8650 -0.6056
54725SOL     OW68731   7.167   8.737  11.395  0.0496  0.4723 -0.4930
54725SOL    HW168732   7.143   8.830  11.394 -0.1812  0.4393  0.9556
54725SOL    HW268733   7.088   8.692  11.365 -0.6151  0.6089  0.9706
54726SOL     OW68734   7.255   5.856   5.866 -0.2060 -1.1141 -0.1413
54726SOL    HW168735   7.239   5.922   5.798 -0.4803 -0.6356  0.3741
54726SOL    HW268736   7.350   5.845   5.867  0.0186  0.5060  0.8726
54727SOL     OW68737   5.277   7.655   3.642  0.0301 -0.6727  0.1199
54727SOL    HW168738   5.242   7.690   3.724  0.7604 -0.8070  0.5020
54727SOL    HW268739   5.225   7.697   3.573  0.6180  0.8795  0.5803
54728SOL     OW68740   3.052   9.827  11.555  0.3492  0.2396  0.5636
54728SOL    HW168741   3.077   9.805  11.465  0.9634  0.9616  0.5405
54728SOL    HW268742   3.037   9.922  11.552 -0.5266  0.1164  1.0236
54729SOL     OW68743  11.331   4.593   1.914  0.0020 -0.1483 -0.1394
54729SOL    HW168744  11.245   4.551   1.919 -0.1763 -0.0308 -1.7373
54729SOL    HW268745  11.340   4.638   1.998 -1.4991 -0.1581  0.0595
54730SOL     OW68746   5.118   3.757   3.140 -0.3185  0.8892  0.2570
54730SOL    HW168747   5.065   3.719   3.210 -1.8430 -2.4559 -2.3806
54730SOL    HW268748   5.064   3.828   3.105 -0.9299  0.5577  0.5202
54731SOL     OW68749  11.926   7.630   0.519  0.7993 -0.0791 -0.1685
54731SOL    HW168750  11.831   7.625   0.505  0.6929  1.0681  0.0427
54731SOL    HW268751  11.952   7.711   0.476  1.2727  0.9228  1.8595
54732SOL     OW68752   8.721  10.027   7.958  0.4063 -0.1416  0.6758
54732SOL    HW168753   8.625  10.022   7.967  0.3905  0.1617  0.7045
54732SOL    HW268754   8.738  10.121   7.947  0.4397 -0.3858 -2.2165
54733SOL     OW68755   8.036   6.989   3.215  0.2248 -0.4302  0.0457
54733SOL    HW168756   8.042   7.084   3.203 -0.3596 -0.6361 -2.3338
54733SOL    HW268757   7.956   6.977   3.267  1.0089  0.4029  1.5096
54734SOL     OW68758   3.952   9.430   7.354 -0.0726 -0.0259 -0.5239
54734SOL    HW168759   3.997   9.403   7.434  0.2090  0.5049 -0.4932
54734SOL    HW268760   4.022   9.458   7.295 -0.3718  1.3380 -0.2720
54735SOL     OW68761   5.126   2.616   1.588 -0.0420 -0.3110  0.0714
54735SOL    HW168762   5.195   2.667   1.546  0.2815 -0.8732 -0.0817
54735SOL    HW268763   5.128   2.531   1.544 -0.8604 -0.3223  0.0336
54736SOL     OW68764   0.437   4.467   5.705  0.3473  0.2352 -0.2344
54736SOL    HW168765   0.508   4.407   5.729 -0.5295 -0.2886  1.1388
54736SOL    HW268766   0.362   4.409   5.688 -0.1235  0.8599 -0.3139
54737SOL     OW68767  10.777  11.239   4.148  0.1189  0.7216 -0.5888
54737SOL    HW168768  10.698  11.185   4.156  0.3479  0.6044  1.8911
54737SOL    HW268769  10.744  11.326   4.127 -0.6076  0.4893 -0.4657
54738SOL     OW68770   2.299   3.958  11.351  0.0336 -0.5884  0.3775
54738SOL    HW168771   2.259   4.041  11.376 -0.4620 -0.9075  0.6494
54738SOL    HW268772   2.265   3.941  11.263  0.8162 -0.0755 -0.0301
54739SOL     OW68773   6.317   4.821   4.393  0.4308  0.0622 -0.2392
54739SOL    HW168774   6.389   4.836   4.454  2.1319 -0.0637 -2.0914
54739SOL    HW268775   6.242   4.864   4.433  1.4063 -0.1441  1.9709
54740SOL     OW68776   5.194   1.861   9.831 -0.3073 -0.3375 -0.2076
54740SOL    HW168777   5.276   1.909   9.829  0.4876 -1.6563 -1.3920
54740SOL    HW268778   5.220   1.769   9.820 -1.7380 -1.0964  2.0539
54741SOL     OW68779   0.148   0.153   6.589  0.2136  0.0562  0.1761
54741SOL    HW168780   0.214   0.094   6.627  1.6649  1.6322  0.2411
54741SOL    HW268781   0.191   0.189   6.512  0.7686  3.5002  1.9072
54742SOL     OW68782   1.091   3.948   7.570 -0.2081 -0.1943  0.4723
54742SOL    HW168783   1.020   3.992   7.522  0.2891  0.0591 -0.0399
54742SOL    HW268784   1.070   3.962   7.662 -0.4412  0.5029  0.3221
54743SOL     OW68785   9.300  10.560  11.166 -0.7006 -0.1156 -0.4233
54743SOL    HW168786   9.350  10.528  11.242 -2.1051 -0.8405  0.2357
54743SOL    HW268787   9.288  10.653  11.182  0.4807  0.1012 -0.6453
54744SOL     OW68788   3.378   2.402   7.006 -0.0513 -0.3573  0.3847
54744SOL    HW168789   3.431   2.370   7.078  0.8395  3.2576  1.5405
54744SOL    HW268790   3.434   2.391   6.928  0.4977 -0.8278  0.8366
54745SOL     OW68791  11.842   0.338   0.907 -0.0861  0.2842 -0.2443
54745SOL    HW168792  11.769   0.378   0.861 -1.9170 -2.1047  0.3966
54745SOL    HW268793  11.811   0.329   0.997  0.3572 -2.1390 -0.2802
54746SOL     OW68794   4.943   9.760  11.365  0.7762  0.0531 -0.5110
54746SOL    HW168795   4.980   9.845  11.389 -0.8606  1.7913 -3.5493
54746SOL    HW268796   5.018   9.708  11.338  1.6679  1.0073  0.0362
54747SOL     OW68797   7.355   7.359  11.872 -0.4497 -0.7234  0.1629
54747SOL    HW168798   7.425   7.408  11.914 -1.5097 -0.1308  1.2670
54747SOL    HW268799   7.338   7.286  11.931 -1.3371 -0.3908  0.3215
54748SOL     OW68800   7.788   9.552   4.974 -0.2463 -0.0190 -0.1564
54748SOL    HW168801   7.754   9.617   5.036 -2.8434 -0.4344 -1.0086
54748SOL    HW268802   7.758   9.468   5.010  1.4602 -0.6074 -0.0449
54749SOL     OW68803   9.666  11.895  10.717  0.5596 -0.2559 -0.2726
54749SOL    HW168804   9.597  11.906  10.783  0.0106 -0.0771 -0.8664
54749SOL    HW268805   9.637  11.948  10.643  0.7314 -1.1505 -0.9918
54750SOL     OW68806   6.032   0.206   3.824  0.0278 -0.0433  0.3907
54750SOL    HW168807   5.993   0.215   3.911 -0.1909 -0.8817  0.3891
54750SOL    HW268808   5.965   0.161   3.772  0.9718 -1.5234  0.3914
54751SOL     OW68809   9.694   2.725  10.990 -0.2814  0.1580 -0.4972
54751SOL    HW168810   9.704   2.818  10.968 -1.7754  0.1731 -1.2628
54751SOL    HW268811   9.767   2.682  10.945 -1.0367  0.6798 -2.3128
54752SOL     OW68812   1.768   7.655   5.241  0.1042 -0.6788 -0.7058
54752SOL    HW168813   1.853   7.627   5.274 -0.1530 -2.0488 -1.1246
54752SOL    HW268814   1.704   7.614   5.299 -0.3013  1.1917  0.2550
54753SOL     OW68815  10.212   5.144   9.028  0.6619  0.0577 -0.3224
54753SOL    HW168816  10.190   5.205   9.098 -0.8433 -1.1981  0.3479
54753SOL    HW268817  10.129   5.103   9.003  1.1481  0.3801 -2.8057
54754SOL     OW68818   8.503  11.296   5.928 -0.1009 -0.2149  0.8824
54754SOL    HW168819   8.475  11.348   6.003 -0.5315 -1.2407  1.4489
54754SOL    HW268820   8.492  11.355   5.853  0.5413  0.8999  1.6269
54755SOL     OW68821   5.726   7.322   7.188  0.0083  0.1718  0.3292
54755SOL    HW168822   5.684   7.378   7.123  1.1957  0.9663  0.1960
54755SOL    HW268823   5.705   7.233   7.161 -0.6373  0.5178 -0.3574
54756SOL     OW68824  10.637   2.335   2.705 -0.4349 -0.1459  0.0755
54756SOL    HW168825  10.591   2.403   2.754 -0.9307  0.5899 -1.3583
54756SOL    HW268826  10.611   2.253   2.748 -1.5356  0.4098  0.5037
54757SOL     OW68827   6.761   0.181  10.209  0.6645  0.5805 -0.0415
54757SOL    HW168828   6.855   0.188  10.192  0.5084  0.8257 -0.8674
54757SOL    HW268829   6.750   0.094  10.247  1.2155  0.5117 -0.0291
54758SOL     OW68830   4.977  10.364  11.290  0.7069 -0.0461 -0.5004
54758SOL    HW168831   4.927  10.416  11.352 -0.2460 -1.5637  0.0693
54758SOL    HW268832   4.943  10.389  11.204  0.5600  0.5721 -0.2630
54759SOL     OW68833   8.048   8.233   6.258  0.0934  0.2079 -0.4932
54759SOL    HW168834   8.117   8.282   6.303  0.6157  1.0390 -2.1316
54759SOL    HW268835   8.088   8.148   6.240  0.8860  0.8338 -1.8189
54760SOL     OW68836   6.029  10.010   3.918  0.1240 -0.7118 -0.3402
54760SOL    HW168837   6.004   9.993   4.009 -0.2750 -1.4707 -0.5897
54760SOL    HW268838   5.990  10.095   3.898  0.5031 -0.3776  0.3020
54761SOL     OW68839   4.623   5.070   6.605 -0.1126  0.5751  0.0161
54761SOL    HW168840   4.655   5.160   6.610 -1.3679  1.0119  0.3925
54761SOL    HW268841   4.645   5.043   6.515  1.1932  0.8772  0.2166
54762SOL     OW68842  11.354   1.581   7.953 -0.0546 -0.5200  0.1845
54762SOL    HW168843  11.292   1.636   8.002 -1.2200 -0.9044 -0.7994
54762SOL    HW268844  11.399   1.642   7.894  0.4290 -0.2545  0.8262
54763SOL     OW68845   8.679   8.079  10.645 -0.6239 -0.0453 -1.3790
54763SOL    HW168846   8.705   8.008  10.586  0.8036 -0.5994 -0.1352
54763SOL    HW268847   8.758   8.132  10.655 -0.5934 -0.3809  0.5800
54764SOL     OW68848   3.644   8.911   6.679 -0.2499  0.8151 -0.2117
54764SOL    HW168849   3.584   8.908   6.604 -0.4777 -0.2830 -0.0010
54764SOL    HW268850   3.699   8.834   6.668  0.3219  1.1553  0.2610
54765SOL     OW68851   2.962   3.382   1.935 -0.4404  0.5286  0.2669
54765SOL    HW168852   2.938   3.441   2.007 -2.1022  0.0650  0.1493
54765SOL    HW268853   2.887   3.323   1.927  0.0863  0.0145 -1.2777
54766SOL     OW68854   4.846   2.006   9.576  0.3304 -0.1216 -0.3129
54766SOL    HW168855   4.762   2.051   9.585 -0.7038 -2.0250  0.1188
54766SOL    HW268856   4.831   1.919   9.615  2.7727 -0.2006  0.6248
54767SOL     OW68857   3.014   8.458   6.944  0.4317  0.6646 -0.5153
54767SOL    HW168858   3.104   8.433   6.965 -0.3292 -3.6837 -1.4088
54767SOL    HW268859   2.992   8.404   6.868 -3.7326 -0.6059  1.3327
54768SOL     OW68860   4.451   1.597   4.098 -0.8143  0.4967  0.1900
54768SOL    HW168861   4.476   1.512   4.134  0.3407 -0.3962 -2.4514
54768SOL    HW268862   4.533   1.644   4.087 -1.1562  0.9081 -0.7404
54769SOL     OW68863   2.897   4.350   8.630  0.5901 -0.8069  0.3072
54769SOL    HW168864   2.911   4.340   8.724  0.3092 -2.5302  0.2018
54769SOL    HW268865   2.842   4.275   8.606  0.2664 -0.1423 -1.1499
54770SOL     OW68866   7.007  11.825   1.878  0.1989  0.3396  0.1334
54770SOL    HW168867   7.031  11.861   1.793  0.2407  0.3269  0.1397
54770SOL    HW268868   7.088  11.788   1.912  0.1288  0.1198  0.0662
54771SOL     OW68869  10.615   5.940   7.161  0.1228  0.1995  0.3344
54771SOL    HW168870  10.651   5.957   7.249  4.1529 -0.0139 -1.0561
54771SOL    HW268871  10.658   5.859   7.134 -0.5654  0.5854 -2.0857
54772SOL     OW68872   1.792   0.339   2.979  0.2626 -0.4962  0.0241
54772SOL    HW168873   1.785   0.424   2.936  0.6338  0.3782  1.6092
54772SOL    HW268874   1.774   0.276   2.910  2.1286  0.7594 -1.7337
54773SOL     OW68875   7.383   0.744   4.180  0.3009  0.2331  0.1556
54773SOL    HW168876   7.478   0.746   4.192  0.5134  0.0979 -1.2354
54773SOL    HW268877   7.372   0.734   4.085 -1.1030 -0.1183  0.3374
54774SOL     OW68878   8.577   8.904   6.462 -0.3713  0.2569 -0.1822
54774SOL    HW168879   8.585   8.998   6.445  1.5955 -0.1531 -1.8542
54774SOL    HW268880   8.636   8.889   6.536 -0.6944  0.3360  0.0930
54775SOL     OW68881   8.477   1.179   6.974  0.1874 -0.0762 -0.1175
54775SOL    HW168882   8.518   1.256   6.935  1.3420  0.6714  2.3818
54775SOL    HW268883   8.526   1.105   6.938  1.8023  0.6339  0.5172
54776SOL     OW68884  11.718   5.802  11.325 -0.0985  0.6419 -0.3208
54776SOL    HW168885  11.742   5.858  11.398  0.5251 -0.0845  0.0420
54776SOL    HW268886  11.767   5.837  11.250  2.9679 -1.3455  0.5780
54777SOL     OW68887   6.416   2.160   2.840  0.3446 -0.2038  0.2115
54777SOL    HW168888   6.403   2.223   2.910  2.8287  0.4497  0.1911
54777SOL    HW268889   6.378   2.201   2.762  3.6454  2.4072 -0.2791
54778SOL     OW68890   8.783   4.602   3.835 -0.3917  0.1119  0.0714
54778SOL    HW168891   8.823   4.628   3.918 -2.3084  0.0789  1.0634
54778SOL    HW268892   8.825   4.518   3.814  1.1718  0.8311  0.2158
54779SOL     OW68893   6.687  11.637  10.734  0.4021  0.0277 -0.1976
54779SOL    HW168894   6.626  11.591  10.676  1.2483 -0.0105 -1.0933
54779SOL    HW268895   6.710  11.572  10.801 -2.2645  0.7388  1.5458
54780SOL     OW68896  10.460   1.527   0.139  0.3532  0.1069  0.8610
54780SOL    HW168897  10.505   1.608   0.161  0.5822  0.5236 -0.9690
54780SOL    HW268898  10.446   1.532   0.044 -1.7577 -0.9148  1.0490
54781SOL     OW68899   4.116   4.985   5.068 -0.0975 -0.1464  0.2858
54781SOL    HW168900   4.098   4.932   4.991  1.6456 -3.2863  1.8364
54781SOL    HW268901   4.129   4.922   5.138 -1.7134  2.5372  3.2676
54782SOL     OW68902   7.262  11.693   4.977  0.1630  0.0809  0.1776
54782SOL    HW168903   7.191  11.631   4.962 -0.0704  0.0683  1.2927
54782SOL    HW268904   7.270  11.741   4.895 -1.9561  0.9386  0.4281
54783SOL     OW68905   0.233   2.895   8.893  0.1859  0.5228  0.6112
54783SOL    HW168906   0.276   2.979   8.878  0.8789  0.3907  1.7075
54783SOL    HW268907   0.301   2.829   8.875 -0.1322  0.2296  0.4700
54784SOL     OW68908   3.896   4.617   2.238  0.1171  0.0518 -0.1205
54784SOL    HW168909   3.927   4.691   2.290  0.8456 -0.0439 -0.4127
54784SOL    HW268910   3.969   4.596   2.180 -0.6362  0.0699 -1.1006
54785SOL     OW68911   3.450   6.682   7.597  0.0934 -0.4030  0.0108
54785SOL    HW168912   3.419   6.601   7.558 -0.4744  0.1854 -0.7888
54785SOL    HW268913   3.371   6.736   7.605  0.5532  0.2738  0.0245
54786SOL     OW68914   4.408  10.397   9.206  0.2338  0.3693 -0.1612
54786SOL    HW168915   4.358  10.411   9.125  2.3704  0.5271 -1.5381
54786SOL    HW268916   4.389  10.306   9.230 -1.6437  0.7842  0.0899
54787SOL     OW68917   7.541   0.018   7.018  0.3840 -0.2078 -0.3639
54787SOL    HW168918   7.502  -0.057   7.061 -0.1131 -0.0427 -0.5207
54787SOL    HW268919   7.469   0.081   7.008  1.3357  1.5389  2.4109
54788SOL     OW68920   9.582   1.419  11.918 -0.6739 -0.1468 -0.0541
54788SOL    HW168921   9.606   1.498  11.870 -0.4685 -0.3123 -0.2270
54788SOL    HW268922   9.665   1.383  11.948 -0.7577 -0.3599 -0.0749
54789SOL     OW68923   9.736   8.717   4.422  0.2475  0.3747 -0.1133
54789SOL    HW168924   9.713   8.711   4.515  1.3623 -1.4451  0.0921
54789SOL    HW268925   9.679   8.786   4.388 -0.6056  0.6773  1.7841
54790SOL     OW68926   5.892   3.500   1.669 -0.2982 -0.1423  0.2897
54790SOL    HW168927   5.844   3.420   1.692  0.6571 -0.4655  1.2547
54790SOL    HW268928   5.981   3.469   1.651 -0.3644  0.4705 -1.2432
54791SOL     OW68929  12.037   2.425   6.926  0.2635 -0.5732  0.1440
54791SOL    HW168930  12.079   2.511   6.928 -0.2567 -0.3310  1.0341
54791SOL    HW268931  12.019   2.405   7.018 -1.1743 -0.8576 -0.1727
54792SOL     OW68932   4.481   8.301   8.125  0.8776  0.0752  0.3161
54792SOL    HW168933   4.397   8.346   8.135  1.1746  0.6916  0.1219
54792SOL    HW268934   4.472   8.222   8.178 -0.6888 -1.1216 -1.5751
54793SOL     OW68935   9.514   7.974   7.698 -0.1568 -0.0599  0.3916
54793SOL    HW168936   9.600   7.940   7.723  0.5647  1.0888 -0.4179
54793SOL    HW268937   9.473   7.902   7.648  1.3857  0.2506 -1.4132
54794SOL     OW68938  11.188   6.469   0.871  0.1721  0.0504 -0.3744
54794SOL    HW168939  11.262   6.415   0.900 -0.3907 -0.2072  0.6356
54794SOL    HW268940  11.136   6.412   0.815  0.9124  0.3409 -1.3809
54795SOL     OW68941   6.290   7.047   2.878  0.3282 -0.2588  0.2393
54795SOL    HW168942   6.250   7.005   2.955 -1.6256  0.2922 -0.3956
54795SOL    HW268943   6.333   6.976   2.831  0.8181 -0.7471  1.3908
54796SOL     OW68944   9.396   0.819  10.202  0.4128 -0.4550  0.2111
54796SOL    HW168945   9.427   0.905  10.229 -2.2403  0.6377  0.0945
54796SOL    HW268946   9.355   0.782  10.280 -1.2335 -0.1985 -0.4690
54797SOL     OW68947  10.093  10.538   2.442  0.3098 -0.0429  0.3536
54797SOL    HW168948  10.012  10.489   2.428  0.6359 -0.0550 -1.8115
54797SOL    HW268949  10.123  10.561   2.354  0.4716  3.6076  1.2123
54798SOL     OW68950  10.345   5.028   3.702  0.0808 -0.0516  0.1948
54798SOL    HW168951  10.385   5.115   3.692 -0.2233  0.0871  0.1484
54798SOL    HW268952  10.371   5.000   3.790 -0.1337  0.2562  0.3599
54799SOL     OW68953   0.061   1.213   5.513  0.5389 -0.2787  0.0571
54799SOL    HW168954   0.151   1.219   5.483  0.6028 -3.6386 -0.8332
54799SOL    HW268955   0.066   1.169   5.597 -0.2776 -1.3607 -0.4288
54800SOL     OW68956   1.569   2.388   4.620  0.2268 -0.2556 -0.2855
54800SOL    HW168957   1.591   2.296   4.633 -1.1331 -0.3923  1.4678
54800SOL    HW268958   1.482   2.398   4.661  1.5092  2.3762  2.2064
54801SOL     OW68959   6.547   8.617   0.873  0.4171 -0.1066  0.1498
54801SOL    HW168960   6.544   8.690   0.935  1.9757  0.0469  0.0812
54801SOL    HW268961   6.480   8.557   0.905  0.7435  0.2592  1.6302
54802SOL     OW68962  11.047  11.806   0.347 -0.1477  0.3225 -0.4836
54802SOL    HW168963  10.964  11.853   0.355  0.3138  1.3121 -1.3883
54802SOL    HW268964  11.023  11.722   0.309 -0.8957  0.0420  0.5484
54803SOL     OW68965   9.299   6.094   6.093 -0.1418 -0.7809 -0.0835
54803SOL    HW168966   9.334   6.137   6.016  2.9989 -0.3371  1.4265
54803SOL    HW268967   9.357   6.019   6.107  1.0818  0.5968  3.2001
54804SOL     OW68968   6.464   5.037   1.094  0.1063 -0.0216 -0.0568
54804SOL    HW168969   6.440   4.944   1.086  0.7991 -0.1485 -0.8037
54804SOL    HW268970   6.431   5.077   1.013 -0.2333  0.3917  0.2876
54805SOL     OW68971  10.210   8.615   4.668 -0.2160 -0.4041  0.0904
54805SOL    HW168972  10.190   8.679   4.600 -1.9112 -0.6224  0.3350
54805SOL    HW268973  10.190   8.661   4.750  1.5524 -0.2304  0.4802
54806SOL     OW68974   5.973   2.831   3.510  0.1004 -0.4865  0.4007
54806SOL    HW168975   5.965   2.748   3.557  1.8072  1.0782  3.7837
54806SOL    HW268976   5.996   2.806   3.421 -1.5800 -3.6305  0.7185
54807SOL     OW68977  12.054  11.264   4.393  0.4849  0.0869  0.3278
54807SOL    HW168978  12.145  11.234   4.400  0.8388  1.0524 -0.0469
54807SOL    HW268979  12.051  11.345   4.444 -0.3603 -0.3357  0.9772
54808SOL     OW68980   4.552   6.235   4.594 -0.1059 -0.5616  0.0814
54808SOL    HW168981   4.581   6.193   4.675 -0.7776  1.9968  1.8041
54808SOL    HW268982   4.457   6.241   4.604 -0.2287 -0.4879 -1.0506
54809SOL     OW68983  11.656   3.421   1.725  0.0199  0.1999  0.6162
54809SOL    HW168984  11.668   3.461   1.811 -0.7753  0.7407  0.4881
54809SOL    HW268985  11.653   3.327   1.742  0.9006  0.2423  1.0485
54810SOL     OW68986   1.328   3.177   6.407 -0.3156 -0.6714  0.4468
54810SOL    HW168987   1.403   3.123   6.431  0.7767  1.0673  1.0938
54810SOL    HW268988   1.350   3.211   6.320 -0.9358 -1.1305  0.1012
54811SOL     OW68989   0.466   1.620   7.007 -0.1455 -0.0699 -0.4632
54811SOL    HW168990   0.531   1.684   6.978 -2.4116  2.1829 -0.9092
54811SOL    HW268991   0.451   1.641   7.099 -2.4605  1.6268 -1.1352
54812SOL     OW68992   2.895   0.471  12.011  0.1839 -0.3965 -0.0249
54812SOL    HW168993   2.979   0.511  11.988 -0.1180  0.0024 -0.4525
54812SOL    HW268994   2.830   0.521  11.962  0.0047 -3.3617 -3.1851
54813SOL     OW68995  11.998   2.792   1.991  0.3043  0.3209 -0.3799
54813SOL    HW168996  11.910   2.791   2.028  0.3473 -0.4465 -0.2933
54813SOL    HW268997  12.002   2.716   1.934  1.7869 -1.3035  1.7250
54814SOL     OW68998  10.736  10.651   5.881  0.3922 -0.3738  0.2505
54814SOL    HW168999  10.789  10.576   5.854  1.8478  0.8086 -0.2595
54814SOL    HW269000  10.724  10.702   5.802  1.8012  1.3595  1.0776
54815SOL     OW69001   8.045   1.672   9.147 -0.4763 -0.2354 -0.7291
54815SOL    HW169002   7.977   1.605   9.153 -0.7144  0.0127 -0.6324
54815SOL    HW269003   8.127   1.626   9.165 -0.6850 -0.4173 -0.2154
54816SOL     OW69004   1.755   4.476   9.442  0.0082  0.0409  0.1112
54816SOL    HW169005   1.802   4.508   9.519 -1.6307  2.3193  0.2787
54816SOL    HW269006   1.663   4.474   9.469 -0.3528 -1.3245 -1.1148
54817SOL     OW69007  12.017   0.156   7.747  0.4873  0.2412  0.8030
54817SOL    HW169008  12.055   0.092   7.686 -0.2286  0.2814  0.2990
54817SOL    HW269009  11.927   0.126   7.759  0.2909  0.8893  0.9430
54818SOL     OW69010   6.931   8.117   2.996 -0.0835 -0.1857 -0.1860
54818SOL    HW169011   6.837   8.117   3.015  0.2196 -2.2241  1.7300
54818SOL    HW269012   6.959   8.028   3.014  2.4960  0.7089  0.6443
54819SOL     OW69013   2.705   4.193   8.860 -0.6728 -0.0539  0.1391
54819SOL    HW169014   2.722   4.282   8.893 -2.0868  0.2226  0.1564
54819SOL    HW269015   2.722   4.137   8.936 -2.9295  0.4987  1.1474
54820SOL     OW69016   3.945   3.000  11.217 -0.0136  0.9689  0.8258
54820SOL    HW169017   4.034   3.037  11.211  0.6161 -0.5192  0.5485
54820SOL    HW269018   3.930   2.959  11.132  0.1152 -1.0860  1.7350
54821SOL     OW69019   4.907   2.263   2.123  0.0691 -0.4772 -0.1687
54821SOL    HW169020   4.843   2.332   2.139 -0.7154 -0.9739 -1.0551
54821SOL    HW269021   4.855   2.188   2.093  1.0571 -0.8886 -0.9177
54822SOL     OW69022   2.222   4.090  10.910 -0.3061 -0.0598 -0.0784
54822SOL    HW169023   2.135   4.116  10.880  0.1283  0.5304 -0.8817
54822SOL    HW269024   2.230   3.998  10.884 -0.1992  0.2509 -1.1793
54823SOL     OW69025  11.554   0.022   7.954 -0.1423  0.1077 -0.3970
54823SOL    HW169026  11.459   0.036   7.954 -0.2477 -0.5602  0.4263
54823SOL    HW269027  11.571  -0.031   8.032  0.9475  0.4668 -0.3720
54824SOL     OW69028   8.639   8.866   7.941 -0.1088  0.5439 -0.2563
54824SOL    HW169029   8.702   8.796   7.927 -0.4448 -0.1380  1.3655
54824SOL    HW269030   8.601   8.882   7.855  2.2962  1.0446 -1.2996
54825SOL     OW69031  10.919   7.037   8.318  0.4220  0.3623 -0.3408
54825SOL    HW169032  10.894   7.079   8.400  1.6113 -1.1254  0.8467
54825SOL    HW269033  10.977   7.100   8.275  1.6770  0.2417  1.1011
54826SOL     OW69034   3.986   3.244   6.351  0.5227 -0.2196 -0.5003
54826SOL    HW169035   3.899   3.279   6.331  1.0643 -0.1722 -3.1195
54826SOL    HW269036   3.997   3.171   6.289  2.2712 -0.3732 -0.0668
54827SOL     OW69037   9.533   7.025   5.852 -0.7544  0.1643  0.2283
54827SOL    HW169038   9.468   7.046   5.918 -0.4258  1.1660  0.2460
54827SOL    HW269039   9.487   7.034   5.769 -1.1175 -0.9166  0.2887
54828SOL     OW69040  11.487   7.516   2.792 -0.3916  0.1726  0.1046
54828SOL    HW169041  11.572   7.550   2.818  0.4142 -1.9842  0.5044
54828SOL    HW269042  11.459   7.572   2.720  1.2499  1.0771  0.1426
54829SOL     OW69043   8.077   5.778   0.292  0.5083 -0.2375  0.4995
54829SOL    HW169044   7.985   5.762   0.312  1.1518 -1.4082  2.8433
54829SOL    HW269045   8.115   5.692   0.277  1.6727  0.0088  1.8323
54830SOL     OW69046   8.627   5.405   6.720  0.2528  0.3493 -0.2304
54830SOL    HW169047   8.564   5.359   6.776  1.0268 -0.7051 -0.1976
54830SOL    HW269048   8.583   5.487   6.698  0.5226  1.5459  3.1596
54831SOL     OW69049   3.162   0.517   4.125 -0.3912  0.5315 -0.0520
54831SOL    HW169050   3.077   0.475   4.111  0.1544 -1.2171  1.4774
54831SOL    HW269051   3.142   0.600   4.168 -1.3041 -0.1656  0.8994
54832SOL     OW69052  10.581   8.383   5.796 -0.3609  0.0840  0.1666
54832SOL    HW169053  10.511   8.441   5.768  0.8352  0.4983 -2.2245
54832SOL    HW269054  10.661   8.428   5.771  0.7302 -1.0860  1.3771
54833SOL     OW69055   1.689   7.376   8.302  0.5211 -0.0424 -0.0867
54833SOL    HW169056   1.705   7.366   8.396  0.5323  0.2298 -0.0579
54833SOL    HW269057   1.707   7.289   8.265  0.6939 -0.1029  0.1371
54834SOL     OW69058   3.075  10.284   5.832 -0.4422  0.8599  0.0238
54834SOL    HW169059   3.059  10.360   5.777  1.2608  0.1467 -1.5902
54834SOL    HW269060   3.071  10.210   5.772  2.1842  0.1087  0.6220
54835SOL     OW69061   7.146   4.053   9.998  0.5513 -0.1728  0.1973
54835SOL    HW169062   7.209   4.056   9.926  0.2184  0.0196 -0.0908
54835SOL    HW269063   7.076   4.112   9.971  0.5040  0.0329  0.7603
54836SOL     OW69064   7.732   0.409   9.781 -0.4417 -0.8251 -0.6743
54836SOL    HW169065   7.774   0.455   9.853 -2.0360  2.2800 -1.5489
54836SOL    HW269066   7.680   0.340   9.824 -0.9896  0.6300  1.1685
54837SOL     OW69067   2.842   6.794  11.043  0.0995  0.9611  0.1448
54837SOL    HW169068   2.914   6.734  11.059  0.6852  1.4323 -0.6165
54837SOL    HW269069   2.878   6.880  11.064 -0.4551  1.1290  0.4047
54838SOL     OW69070  10.116  10.051   5.168  0.2515  0.0678  0.7142
54838SOL    HW169071  10.115  10.092   5.082 -2.3582  2.6399  1.7898
54838SOL    HW269072  10.200  10.076   5.206  0.1963  1.4364 -0.0174
54839SOL     OW69073   1.530   8.946   0.408 -0.1407 -0.4415 -0.1186
54839SOL    HW169074   1.488   8.882   0.351 -1.5791 -0.0722  0.4598
54839SOL    HW269075   1.470   9.020   0.409  0.2952 -0.0709  1.1223
54840SOL     OW69076   8.156   3.825   8.636  0.3808 -0.0477 -0.1695
54840SOL    HW169077   8.200   3.742   8.618 -0.8813 -1.0047  1.0235
54840SOL    HW269078   8.076   3.821   8.584 -1.6402 -1.3800  2.8088
54841SOL     OW69079   6.291   8.738   8.217  0.0380 -0.5105 -0.4039
54841SOL    HW169080   6.337   8.821   8.209  0.6453 -0.7683  0.2712
54841SOL    HW269081   6.272   8.730   8.311 -0.0047 -1.1410 -0.4635
54842SOL     OW69082  10.227   5.279   5.469 -0.0363  0.2996 -0.7844
54842SOL    HW169083  10.240   5.365   5.428 -3.2176  1.5941  0.5842
54842SOL    HW269084  10.237   5.297   5.563 -0.4260 -0.9148 -0.5024
54843SOL     OW69085   3.055   9.882   5.353  0.3119  0.3845 -0.1580
54843SOL    HW169086   3.111   9.836   5.416 -0.4191  0.1040  0.3019
54843SOL    HW269087   3.005   9.812   5.310 -0.3199  0.6903  0.0659
54844SOL     OW69088   1.159   0.977  11.578 -0.0763 -0.3261 -0.4012
54844SOL    HW169089   1.129   1.050  11.633 -2.6422 -1.2954 -0.3840
54844SOL    HW269090   1.159   1.013  11.489 -0.4855 -0.0455 -0.2909
54845SOL     OW69091   1.555   3.917   2.684  0.0587  0.4051 -0.3652
54845SOL    HW169092   1.573   3.910   2.778  1.2164 -1.9038 -0.6998
54845SOL    HW269093   1.582   4.006   2.661  1.2870  0.4696  1.1859
54846SOL     OW69094   5.506   5.842   8.242  0.0946  0.2020  0.1590
54846SOL    HW169095   5.592   5.831   8.202 -0.0602 -1.1882  0.1687
54846SOL    HW269096   5.525   5.869   8.332  0.5162  0.0429  0.1202
54847SOL     OW69097   7.448   2.357   5.914 -0.1912  0.4286  0.2243
54847SOL    HW169098   7.521   2.301   5.889 -1.4773 -0.8195 -0.9805
54847SOL    HW269099   7.466   2.440   5.870 -0.3072 -0.4135 -1.5137
54848SOL     OW69100   9.624   7.772  10.030 -0.1288  0.1393 -0.1608
54848SOL    HW169101   9.617   7.685   9.991  0.0491  0.4888 -1.0044
54848SOL    HW269102   9.569   7.827   9.974  0.2172  0.6754  0.0241
54849SOL     OW69103  11.024   4.818   1.661 -0.3028  0.3456  0.5365
54849SOL    HW169104  10.968   4.855   1.593 -0.7703  1.4839  1.4942
54849SOL    HW269105  11.025   4.885   1.730  3.3936  1.0663 -0.0044
54850SOL     OW69106   8.124   9.341   5.694  0.3553  0.6190  0.2539
54850SOL    HW169107   8.077   9.417   5.728  0.0445  0.1217  0.9559
54850SOL    HW269108   8.056   9.288   5.652  0.4855  0.4562  0.2493
54851SOL     OW69109   5.259   9.386  11.083 -0.2631  0.5834 -0.0045
54851SOL    HW169110   5.281   9.353  10.996 -0.3434  1.0617 -0.2117
54851SOL    HW269111   5.164   9.372  11.090 -0.2422  0.4665  0.0393
54852SOL     OW69112   4.601   0.058   9.992 -0.1209 -0.2471  0.1125
54852SOL    HW169113   4.641  -0.001   9.929  0.5686  0.9852 -0.6369
54852SOL    HW269114   4.674   0.095  10.041 -0.5357  0.0326  0.5390
54853SOL     OW69115   5.772   0.706   0.412  0.0105  1.0510  0.1624
54853SOL    HW169116   5.858   0.663   0.415 -0.5099 -0.0004  0.3305
54853SOL    HW269117   5.739   0.699   0.501 -0.3917  1.1562  0.0219
54854SOL     OW69118   5.275  11.959   0.560 -0.1503  0.1185  0.1250
54854SOL    HW169119   5.325  11.920   0.632  1.9271  2.4631  0.0830
54854SOL    HW269120   5.305  12.050   0.556  0.2806 -0.0081 -4.0458
54855SOL     OW69121   8.455   1.095  11.975  0.0933  0.3782  0.0943
54855SOL    HW169122   8.523   1.089  12.042 -1.1641  1.0241  1.4945
54855SOL    HW269123   8.472   1.179  11.931  0.3485  0.4218  0.2757
54856SOL     OW69124   6.185   9.391   8.924 -0.4856 -0.3547 -0.0024
54856SOL    HW169125   6.097   9.407   8.958 -0.6184 -1.2715  0.1279
54856SOL    HW269126   6.178   9.305   8.882  0.5027 -0.7145  0.5438
54857SOL     OW69127   8.838   1.076   5.344  0.3337  0.2386 -0.3422
54857SOL    HW169128   8.848   1.023   5.265  1.3127 -1.1945  0.6875
54857SOL    HW269129   8.882   1.025   5.412  0.7918  2.1147  0.8344
54858SOL     OW69130   9.660   0.404  11.273 -0.6444 -0.2254  0.0848
54858SOL    HW169131   9.650   0.329  11.215  0.4850  0.2974 -0.8259
54858SOL    HW269132   9.721   0.374  11.341  0.2695  0.0211 -0.6042
54859SOL     OW69133   3.497  11.716   4.865 -0.2398 -0.1306 -0.3583
54859SOL    HW169134   3.512  11.783   4.932 -1.2970 -0.3286  0.1069
54859SOL    HW269135   3.561  11.735   4.797  0.7658  0.1615  0.6451
54860SOL     OW69136  10.884  11.183   6.544 -0.1077 -0.1626 -0.5020
54860SOL    HW169137  10.832  11.245   6.493  0.5042  1.4822  0.7851
54860SOL    HW269138  10.820  11.118   6.574 -1.2892  1.3004  0.2701
54861SOL     OW69139   9.870   3.749  10.375  0.1268  0.0212  0.1980
54861SOL    HW169140   9.821   3.706  10.306  1.0698  0.3196 -0.6854
54861SOL    HW269141   9.916   3.678  10.420 -0.3103 -0.1485  0.3802
54862SOL     OW69142   8.977   2.450  12.003  0.9472 -0.1366  0.0338
54862SOL    HW169143   8.899   2.470  11.953  0.6615 -2.9398 -0.8047
54862SOL    HW269144   9.050   2.468  11.943  0.8531  0.5194  0.1098
54863SOL     OW69145   7.674   9.019   9.092 -0.1818 -0.0439  0.8589
54863SOL    HW169146   7.662   9.072   9.171 -0.2946  1.5023 -0.1487
54863SOL    HW269147   7.769   9.009   9.084 -0.1987 -0.8425  1.5816
54864SOL     OW69148   9.308   2.679   4.123  0.3247  0.6648  0.2418
54864SOL    HW169149   9.313   2.586   4.148  1.0515  0.5510 -0.3018
54864SOL    HW269150   9.379   2.691   4.060  0.5827  1.7230  0.7162
54865SOL     OW69151   2.320   2.044   9.298 -0.1013  0.0027 -0.0399
54865SOL    HW169152   2.279   2.125   9.269  0.7116  0.6769  0.6188
54865SOL    HW269153   2.359   2.006   9.219  0.7969  1.0312 -0.1003
54866SOL     OW69154   7.420   6.297   7.268  0.2260  0.8113 -0.2176
54866SOL    HW169155   7.415   6.392   7.268  0.9497  0.8561 -0.3469
54866SOL    HW269156   7.329   6.268   7.257  0.0624  1.4906 -0.7034
54867SOL     OW69157   7.468   4.199   7.255  0.0328 -0.4830 -0.1931
54867SOL    HW169158   7.437   4.284   7.223  1.2582 -0.2827 -0.9111
54867SOL    HW269159   7.396   4.139   7.238 -1.2848  0.5899  1.3004
54868SOL     OW69160   4.011   2.412   2.884  0.2506  0.3097  0.2351
54868SOL    HW169161   4.050   2.460   2.810 -1.4347  0.3247 -0.6907
54868SOL    HW269162   4.041   2.460   2.961 -0.3641  2.1397 -0.6002
54869SOL     OW69163   3.211   2.188   3.203 -0.0406  0.2112 -0.0970
54869SOL    HW169164   3.259   2.244   3.143  1.7542 -0.5309  0.5686
54869SOL    HW269165   3.128   2.170   3.159  0.2145  1.6659 -1.2238
54870SOL     OW69166   8.276   1.709   0.535  0.1866  0.0133 -0.7158
54870SOL    HW169167   8.235   1.715   0.449 -1.7321  1.8880  0.2498
54870SOL    HW269168   8.230   1.637   0.579  0.6429 -0.4339 -0.9512
54871SOL     OW69169   1.053  11.272  10.996 -0.1416  0.0247  0.1883
54871SOL    HW169170   1.068  11.354  11.043  2.1287 -0.9501  1.2759
54871SOL    HW269171   1.129  11.263  10.939 -0.3058 -1.4068  0.1766
54872SOL     OW69172  10.759   4.629   1.294  0.6214  0.2115  0.8929
54872SOL    HW169173  10.827   4.674   1.243 -0.0048  1.3073  0.9914
54872SOL    HW269174  10.682   4.684   1.284  0.1180 -0.2965  1.9086
54873SOL     OW69175   6.451   0.499   9.156  0.2215  0.2882 -0.3214
54873SOL    HW169176   6.519   0.542   9.208  0.7476 -0.5194 -0.3398
54873SOL    HW269177   6.463   0.534   9.068  0.5919  0.1696 -0.3174
54874SOL     OW69178   4.108   8.950   6.402 -0.1707 -0.2728 -0.1072
54874SOL    HW169179   4.091   9.024   6.461 -0.8222 -0.6717  0.2246
54874SOL    HW269180   4.201   8.957   6.381 -0.0564  0.2137  0.5138
54875SOL     OW69181  10.383   1.862   0.670 -0.4050  0.6816  0.2697
54875SOL    HW169182  10.470   1.896   0.689 -0.4783  2.0784 -1.6022
54875SOL    HW269183  10.353   1.825   0.753  1.6105  0.9225  1.1668
54876SOL     OW69184   2.686   2.989   3.274 -0.4387  0.4895  0.0176
54876SOL    HW169185   2.630   2.928   3.226 -0.0944  0.8555 -0.8676
54876SOL    HW269186   2.756   3.012   3.212 -0.4550  1.6276  0.3920
54877SOL     OW69187   6.891   6.386  10.491 -0.3545  0.8188 -0.7825
54877SOL    HW169188   6.803   6.371  10.525 -0.7236 -0.6321 -2.2623
54877SOL    HW269189   6.889   6.352  10.402  1.5305  1.3694 -1.0843
54878SOL     OW69190  11.253   3.482   0.203  0.0177 -0.0314  0.1735
54878SOL    HW169191  11.180   3.421   0.213  0.0762  0.0961  1.5861
54878SOL    HW269192  11.248   3.511   0.112 -0.7938 -1.1462 -0.1520
54879SOL     OW69193   0.319  10.422   8.700 -0.1703  0.0964  0.1985
54879SOL    HW169194   0.232  10.384   8.693  0.1277 -0.8733  1.4423
54879SOL    HW269195   0.378  10.352   8.670  0.3342 -0.2453  1.8613
54880SOL     OW69196   8.060   6.312   3.048  0.1153  0.3133  0.7936
54880SOL    HW169197   8.112   6.374   2.996 -1.4553 -0.4308 -1.8704
54880SOL    HW269198   7.977   6.356   3.062  0.6916  0.7254  3.3298
54881SOL     OW69199  12.056   5.460  11.164 -0.0958  0.2751 -0.0666
54881SOL    HW169200  12.149   5.438  11.157 -0.5330 -1.9746  0.4773
54881SOL    HW269201  12.052   5.525  11.233  1.1255  0.9149 -0.5544
54882SOL     OW69202   7.758   5.888   7.067 -0.2561 -1.4714  0.1393
54882SOL    HW169203   7.790   5.955   7.127  1.3321 -2.7447  0.7879
54882SOL    HW269204   7.670   5.868   7.099  1.1506 -3.3835  3.2688
54883SOL     OW69205   7.251   2.355   9.496 -0.8431 -0.2921 -0.2723
54883SOL    HW169206   7.214   2.291   9.557 -1.2974 -1.8116 -2.0382
54883SOL    HW269207   7.177   2.384   9.443 -0.2898  0.1665 -0.8234
54884SOL     OW69208   2.149   1.431   0.441  0.0223  0.1808 -0.1508
54884SOL    HW169209   2.169   1.362   0.377 -2.4860 -1.7792  1.0090
54884SOL    HW269210   2.184   1.398   0.524  0.3987  1.1689  0.0892
54885SOL     OW69211   6.865  10.534   8.065 -0.2228 -0.0631 -0.7082
54885SOL    HW169212   6.909  10.589   8.130 -0.8250 -0.8226  0.3680
54885SOL    HW269213   6.775  10.567   8.062 -0.8921 -1.6055  0.7387
54886SOL     OW69214   6.798  11.965   9.575  0.4564 -0.1321  0.5221
54886SOL    HW169215   6.802  11.974   9.480 -0.7310  1.2485  0.5773
54886SOL    HW269216   6.705  11.958   9.595  0.7441 -1.6485  1.5085
54887SOL     OW69217   8.057   9.925   7.260 -0.5007 -0.1986  0.3045
54887SOL    HW169218   8.076   9.991   7.327  0.0107 -2.6614  2.7271
54887SOL    HW269219   8.102   9.958   7.182 -0.0960  2.1945  1.4533
54888SOL     OW69220  10.633   9.481   6.384  0.5494  0.0555 -0.0040
54888SOL    HW169221  10.656   9.500   6.475 -1.3542 -0.1822  0.5735
54888SOL    HW269222  10.582   9.557   6.355  0.6488 -0.1296 -0.6929
54889SOL     OW69223   7.083   4.277   3.339  0.0516 -0.9170  0.6063
54889SOL    HW169224   7.084   4.361   3.384  0.5909  0.7617 -2.3231
54889SOL    HW269225   6.990   4.255   3.333 -0.4907  1.6037 -2.1114
54890SOL     OW69226  11.330   2.535   4.864  0.1790  0.3610 -0.0002
54890SOL    HW169227  11.243   2.497   4.851  0.6699 -0.6515 -0.4600
54890SOL    HW269228  11.314   2.619   4.906 -1.3074  1.9271 -3.3257
54891SOL     OW69229   9.119   4.910   0.469 -0.6342  0.9146  0.0696
54891SOL    HW169230   9.083   4.836   0.518  0.5964  0.7327  0.7448
54891SOL    HW269231   9.044   4.949   0.425 -1.9348  1.4888  2.6210
54892SOL     OW69232  11.469   9.848   5.100  0.1439  0.3139  0.3446
54892SOL    HW169233  11.554   9.890   5.113 -0.0130  0.5980  0.4642
54892SOL    HW269234  11.484   9.755   5.118  0.1980  0.5131  1.4256
54893SOL     OW69235   2.883   1.582   8.629  0.4350 -0.4936  0.4408
54893SOL    HW169236   2.978   1.578   8.622  0.4399  0.8684 -0.7519
54893SOL    HW269237   2.864   1.547   8.716  2.3091  2.2619  2.1182
54894SOL     OW69238   8.247  10.945  10.268 -0.8019  0.1294  0.4099
54894SOL    HW169239   8.220  11.036  10.252  0.0907  0.4265  0.5001
54894SOL    HW269240   8.204  10.921  10.350 -0.1976  0.8470  0.9497
54895SOL     OW69241   1.344   4.329   7.333 -0.5219 -1.1347  0.6186
54895SOL    HW169242   1.391   4.329   7.417  1.4026 -0.2506 -0.3927
54895SOL    HW269243   1.387   4.398   7.282 -3.0356 -0.1780 -0.3665
54896SOL     OW69244   6.818   8.007   8.421 -0.2493  0.3609 -0.3148
54896SOL    HW169245   6.905   8.016   8.460  0.0994 -0.8183 -0.7786
54896SOL    HW269246   6.834   8.007   8.326 -0.5890 -1.0609 -0.3990
54897SOL     OW69247   0.571   2.624  11.143 -0.0754  0.0883  0.2709
54897SOL    HW169248   0.660   2.590  11.138  0.1213  0.6298  0.0062
54897SOL    HW269249   0.578   2.706  11.192 -0.3117  0.4926 -0.3503
54898SOL     OW69250  11.201   5.359   2.791  0.2366  0.0581  0.2627
54898SOL    HW169251  11.126   5.315   2.832  1.1843 -0.1838  1.8387
54898SOL    HW269252  11.213   5.315   2.707 -1.4304  0.1722 -0.0655
54899SOL     OW69253   9.933   9.568   7.567  0.0660 -0.0573  0.8209
54899SOL    HW169254   9.856   9.516   7.586 -0.3831  0.7137  1.1460
54899SOL    HW269255   9.929   9.583   7.472 -0.7498  0.8468  0.9864
54900SOL     OW69256   3.534  10.260   7.767 -0.7374  0.5685 -0.0519
54900SOL    HW169257   3.451  10.234   7.727 -0.8906  1.7839 -0.5733
54900SOL    HW269258   3.598  10.252   7.697 -0.3826 -0.4609  0.3765
54901SOL     OW69259   1.109   9.123  11.451  0.2301  0.7264 -0.1023
54901SOL    HW169260   1.033   9.081  11.410 -0.7605  0.2017  2.1545
54901SOL    HW269261   1.175   9.054  11.457 -0.0879  0.4572  0.3329
54902SOL     OW69262   6.916   8.767   7.511  0.1502  0.2370  0.6529
54902SOL    HW169263   6.912   8.741   7.419  1.9919  2.8655 -0.2996
54902SOL    HW269264   6.923   8.684   7.559 -3.8855 -1.4444 -1.1748
54903SOL     OW69265   7.653   7.866   4.376  0.3634  0.3267  0.2327
54903SOL    HW169266   7.743   7.842   4.351 -0.4474 -0.8673 -1.7847
54903SOL    HW269267   7.625   7.796   4.434 -0.0005 -0.5716 -0.9790
54904SOL     OW69268   2.563   7.666   4.942  0.2419 -0.2086  0.0097
54904SOL    HW169269   2.568   7.629   4.853 -0.6763 -0.3486  0.0119
54904SOL    HW269270   2.595   7.596   4.999 -2.0412 -1.2793  0.0740
54905SOL     OW69271   2.577   3.833   8.079  0.2406 -0.1444  0.1907
54905SOL    HW169272   2.579   3.919   8.037 -1.0007 -0.8193 -1.3687
54905SOL    HW269273   2.645   3.783   8.033  0.7784 -0.0987  0.9145
54906SOL     OW69274   0.308   3.643   0.462  0.2233  0.8760 -0.2305
54906SOL    HW169275   0.223   3.655   0.419 -0.9191  0.8773  1.9057
54906SOL    HW269276   0.362   3.600   0.396 -2.0047 -0.8747 -1.0447
54907SOL     OW69277   3.738   6.457   8.609 -0.2342 -0.1017 -0.3527
54907SOL    HW169278   3.652   6.435   8.646  0.2868  0.2320  1.1263
54907SOL    HW269279   3.781   6.373   8.599 -1.1338 -0.3852 -2.2221
54908SOL     OW69280   1.557   6.833   2.122  0.3041 -0.1673 -0.0016
54908SOL    HW169281   1.616   6.893   2.077 -0.0486 -0.2790 -0.6282
54908SOL    HW269282   1.601   6.813   2.204  1.2211 -0.3858 -0.5343
54909SOL     OW69283  10.140  10.675   6.832  0.6156  0.6815 -0.1293
54909SOL    HW169284  10.195  10.598   6.821  0.8630  0.7150  0.7865
54909SOL    HW269285  10.201  10.746   6.853  0.3191  0.9596 -0.1910
54910SOL     OW69286  11.300   4.788   8.160  0.1439 -0.4733 -0.4423
54910SOL    HW169287  11.264   4.765   8.246  0.7513 -1.2160 -0.3767
54910SOL    HW269288  11.226   4.827   8.113 -0.3671 -0.6652  0.1817
54911SOL     OW69289  11.679   4.568   0.052  0.1017  0.0982 -0.3568
54911SOL    HW169290  11.596   4.585   0.007  0.0045 -1.7669 -0.9501
54911SOL    HW269291  11.662   4.594   0.143 -0.9885  0.1664 -0.5611
54912SOL     OW69292   4.412   6.365   3.902  0.8102 -0.5952 -0.0555
54912SOL    HW169293   4.412   6.392   3.810  0.6900 -2.5045 -0.6695
54912SOL    HW269294   4.500   6.328   3.916  0.6366 -0.8301  0.4320
54913SOL     OW69295  11.026   8.712   3.161  0.0106 -0.1606 -0.4212
54913SOL    HW169296  11.042   8.626   3.121  0.1897 -0.4800  0.3169
54913SOL    HW269297  11.103   8.764   3.137 -0.1838 -0.1472 -1.0256
54914SOL     OW69298   5.621   5.666   6.206  0.2934  0.4333 -0.1906
54914SOL    HW169299   5.622   5.573   6.231  1.6006  0.8255  1.3915
54914SOL    HW269300   5.529   5.685   6.187  0.0131 -1.1825 -0.6088
54915SOL     OW69301  10.478   3.693   5.768 -0.6632  0.0624 -0.5315
54915SOL    HW169302  10.551   3.748   5.741 -1.2587  0.4531 -1.3965
54915SOL    HW269303  10.495   3.673   5.860  0.0965  0.8422 -0.4955
54916SOL     OW69304   0.401   0.875  10.286  0.3220 -0.1377  0.1252
54916SOL    HW169305   0.487   0.852  10.321  0.8289 -1.0289 -1.5730
54916SOL    HW269306   0.344   0.804  10.314  1.0204 -1.5670 -1.8197
54917SOL     OW69307  10.110  11.045   4.365  0.1558 -0.2367 -0.0085
54917SOL    HW169308  10.021  11.074   4.382  0.1605 -1.0931  1.6981
54917SOL    HW269309  10.162  11.086   4.434  1.2007  0.6956 -1.3024
54918SOL     OW69310   1.265   1.243  12.093 -0.0307 -0.0322 -0.0770
54918SOL    HW169311   1.177   1.232  12.056  0.3028 -0.2213 -0.8322
54918SOL    HW269312   1.282   1.337  12.086 -0.3901  0.0925  0.5982
54919SOL     OW69313   1.045   2.635  11.081  0.4524  0.0227 -0.3757
54919SOL    HW169314   0.986   2.711  11.085  0.6702  0.2202 -0.8084
54919SOL    HW269315   1.130   2.670  11.110 -0.0951 -0.7661  2.4960
54920SOL     OW69316   1.635   2.807   5.433 -0.1832 -0.0019 -0.1551
54920SOL    HW169317   1.706   2.859   5.472 -1.5176  1.1273  0.8687
54920SOL    HW269318   1.603   2.753   5.505 -1.4375  0.7182 -0.1443
54921SOL     OW69319   3.492  10.730   8.107 -0.3749  0.0534 -0.1919
54921SOL    HW169320   3.533  10.708   8.023 -0.0538 -1.6874  0.3793
54921SOL    HW269321   3.506  10.652   8.161 -0.9657  0.9754  1.3333
54922SOL     OW69322   1.986   3.727  10.199 -0.3074  0.3682  0.1717
54922SOL    HW169323   1.999   3.818  10.172 -2.4765  0.2722 -1.4242
54922SOL    HW269324   1.898   3.724  10.235 -0.6014 -1.2736 -0.5990
54923SOL     OW69325   1.633   9.680   3.328 -0.0951 -0.0080  0.0676
54923SOL    HW169326   1.555   9.648   3.283  0.0461  1.4049 -1.2526
54923SOL    HW269327   1.600   9.751   3.385 -0.0487 -0.7771  1.0809
54924SOL     OW69328  11.656   9.531   1.301  0.2443  0.6634  0.3104
54924SOL    HW169329  11.653   9.523   1.206 -0.8965  0.5158  0.3446
54924SOL    HW269330  11.597   9.604   1.322 -0.0736  0.2425  0.9403
54925SOL     OW69331   2.892   3.786   8.201  0.1121  0.4161 -0.1265
54925SOL    HW169332   2.969   3.745   8.160 -0.5120 -0.1815 -0.7301
54925SOL    HW269333   2.876   3.865   8.149 -0.8843 -0.5175 -1.3069
54926SOL     OW69334  10.332   3.443   5.135 -0.5341 -0.0732  0.0406
54926SOL    HW169335  10.276   3.517   5.159 -1.9003 -0.5599 -1.4843
54926SOL    HW269336  10.404   3.446   5.199 -1.8839  1.0321  1.5947
54927SOL     OW69337   0.931   6.043   7.631 -0.8593  0.7000  0.8774
54927SOL    HW169338   0.848   6.052   7.678  0.5181  3.2857  3.1283
54927SOL    HW269339   0.964   6.133   7.624  1.3244 -0.1357 -0.7913
54928SOL     OW69340   1.497   0.592   6.188  0.2429 -0.6247 -0.2801
54928SOL    HW169341   1.462   0.621   6.104  0.3035 -0.2114 -0.1624
54928SOL    HW269342   1.421   0.558   6.235 -0.2894  1.5730  0.5363
54929SOL     OW69343   6.358   1.862  12.037 -0.9630 -0.5395 -0.0429
54929SOL    HW169344   6.420   1.935  12.033 -0.5489 -0.8608  0.4254
54929SOL    HW269345   6.276   1.902  12.065 -0.8473 -0.1866 -0.2024
54930SOL     OW69346   2.340   9.702  10.111 -0.4180 -0.7078 -0.5772
54930SOL    HW169347   2.390   9.650  10.048  1.8057 -0.1873  0.6531
54930SOL    HW269348   2.312   9.639  10.177  0.1377 -0.7415 -0.3691
54931SOL     OW69349   2.818   3.876   6.449  0.6880 -0.1252  0.0221
54931SOL    HW169350   2.855   3.909   6.367  0.3408  1.3396  0.4260
54931SOL    HW269351   2.884   3.897   6.515  0.8159 -0.9988  0.1816
54932SOL     OW69352   2.507   1.246   3.929  0.1018  0.7595 -0.2631
54932SOL    HW169353   2.465   1.278   4.009 -0.8379  0.5235 -0.6559
54932SOL    HW269354   2.564   1.318   3.902 -0.1965  1.1649  0.1660
54933SOL     OW69355   8.517   4.214   9.231 -0.6402  0.3189  0.0507
54933SOL    HW169356   8.431   4.181   9.206 -0.8907  0.7676  0.3155
54933SOL    HW269357   8.547   4.153   9.299 -1.0739  0.5926  0.4940
54934SOL     OW69358   7.238   2.789   8.691 -0.4696  0.3570  0.2797
54934SOL    HW169359   7.168   2.725   8.702 -1.4369  1.2121 -0.7098
54934SOL    HW269360   7.225   2.852   8.762  0.8721 -0.8295  1.6535
54935SOL     OW69361   1.178   4.117   8.809  0.0313 -0.3143  0.4535
54935SOL    HW169362   1.113   4.173   8.768 -0.3557  0.3211  1.8616
54935SOL    HW269363   1.220   4.071   8.736 -0.6374  0.7222 -0.6181
54936SOL     OW69364   9.472   3.949   7.685  0.0862 -0.2250  0.2779
54936SOL    HW169365   9.444   4.038   7.705  1.2747  0.2517 -0.1311
54936SOL    HW269366   9.412   3.920   7.616  0.5983  0.7977 -0.6291
54937SOL     OW69367   1.615   8.688  11.183 -0.4656 -0.0335  0.4086
54937SOL    HW169368   1.637   8.596  11.167 -0.4343 -0.1625  1.1666
54937SOL    HW269369   1.620   8.729  11.097  0.0682 -0.6286  0.1471
54938SOL     OW69370   9.179   6.773   3.248 -0.0653  0.5559  0.2614
54938SOL    HW169371   9.213   6.756   3.336 -0.8295 -0.5659  0.3570
54938SOL    HW269372   9.257   6.775   3.192  0.2367 -1.8501  0.4899
54939SOL     OW69373   0.733  10.048   5.062 -0.2496 -0.1937 -0.2710
54939SOL    HW169374   0.824  10.076   5.060 -0.2684 -0.1632 -0.8178
54939SOL    HW269375   0.738   9.954   5.078 -0.0319 -0.5567 -2.2497
54940SOL     OW69376   4.528   0.685   1.873 -0.5263  0.1546 -0.0632
54940SOL    HW169377   4.527   0.595   1.905  1.5264 -0.0000 -0.3074
54940SOL    HW269378   4.480   0.735   1.939  1.1550 -0.5991  1.8273
54941SOL     OW69379   5.827   0.940   0.109 -0.0346  0.0565 -0.0332
54941SOL    HW169380   5.825   0.856   0.155 -1.1466  0.8486  1.4427
54941SOL    HW269381   5.873   0.999   0.168  0.1802  0.6532 -0.7780
54942SOL     OW69382  10.872   3.993  11.362 -0.4572  0.3035 -0.3360
54942SOL    HW169383  10.896   4.045  11.286  0.4805 -0.3872 -0.5271
54942SOL    HW269384  10.865   3.903  11.328 -0.4487  0.0557  0.3099
54943SOL     OW69385   3.621   6.814   5.547 -0.3992 -0.0021  0.4696
54943SOL    HW169386   3.708   6.847   5.567  0.3779 -1.1856 -0.8038
54943SOL    HW269387   3.600   6.756   5.620  0.7171 -1.1903 -0.1163
54944SOL     OW69388   3.086   2.535   4.325 -0.2138  0.0222  0.0635
54944SOL    HW169389   3.165   2.581   4.352 -0.8439  0.6530  0.8929
54944SOL    HW269390   3.065   2.477   4.398  0.0052 -0.8481 -0.5523
54945SOL     OW69391   3.361   8.092   0.749 -0.5173 -0.5389 -0.3165
54945SOL    HW169392   3.271   8.067   0.728 -0.0642 -0.4706 -2.6236
54945SOL    HW269393   3.412   8.012   0.733 -0.0225 -0.2719 -0.0848
54946SOL     OW69394   7.964   0.387   4.333  0.0410 -0.3244  0.1560
54946SOL    HW169395   7.870   0.378   4.319  0.0058 -0.3535  0.4022
54946SOL    HW269396   7.991   0.302   4.368  0.4422 -0.8682 -1.4154
54947SOL     OW69397   3.067   7.393  10.701  0.0867  0.0172 -0.3026
54947SOL    HW169398   3.056   7.480  10.663 -0.1001  1.8516  3.4633
54947SOL    HW269399   3.153   7.396  10.742 -1.3893  0.0152  3.1476
54948SOL     OW69400   9.732   5.861   9.042 -0.2316  0.2603  0.2101
54948SOL    HW169401   9.795   5.817   8.985  0.0221 -0.2271  0.8592
54948SOL    HW269402   9.655   5.805   9.041 -0.5301  0.6690 -0.2911
54949SOL     OW69403   3.730   5.432   6.199 -0.6327  0.2802 -0.2882
54949SOL    HW169404   3.789   5.428   6.124 -0.2250  0.5152  0.0157
54949SOL    HW269405   3.770   5.374   6.264  0.2958  1.8701  0.6290
54950SOL     OW69406   7.314   9.268   2.500 -0.0385 -0.0146  0.1644
54950SOL    HW169407   7.291   9.307   2.585  0.3609  0.7383 -0.0605
54950SOL    HW269408   7.250   9.198   2.488  0.3012 -0.5678  1.3845
54951SOL     OW69409   6.945   5.830   0.420 -0.0448 -0.1058 -0.2217
54951SOL    HW169410   6.869   5.875   0.384  0.2770 -1.2717 -2.5136
54951SOL    HW269411   6.997   5.899   0.461 -1.2556  1.0432 -0.5556
54952SOL     OW69412   8.296   9.270   9.338 -0.4907 -0.5293 -0.3470
54952SOL    HW169413   8.269   9.191   9.385 -0.5807  0.3951  1.2115
54952SOL    HW269414   8.227   9.284   9.273 -0.9829 -1.1713  0.0301
54953SOL     OW69415   0.004   7.705   3.684 -0.0299  0.6589  0.1213
54953SOL    HW169416   0.063   7.644   3.728  1.5571  2.2924  0.3696
54953SOL    HW269417   0.058   7.746   3.617 -1.8728 -0.3327 -2.1116
54954SOL     OW69418   1.531  10.990   8.013 -0.6319 -0.3605 -0.6031
54954SOL    HW169419   1.618  11.005   8.050 -0.6923 -0.5172 -0.3932
54954SOL    HW269420   1.502  10.908   8.053 -1.3498  0.2675  0.2196
54955SOL     OW69421   1.222   3.034   0.188  0.2563  0.1810 -0.0736
54955SOL    HW169422   1.251   3.123   0.208 -0.8021  0.7352 -0.9059
54955SOL    HW269423   1.131   3.044   0.162  0.2388 -1.1031 -0.5735
54956SOL     OW69424   5.804   8.503  10.444  0.6436 -0.3435  0.6777
54956SOL    HW169425   5.852   8.450  10.381  1.4834  0.5230  0.5760
54956SOL    HW269426   5.712   8.494  10.417  0.5874 -2.6828  1.3808
54957SOL     OW69427   3.211  10.139  10.290  0.2921  0.0183  0.6668
54957SOL    HW169428   3.241  10.119  10.378  2.6859  0.5217  0.0242
54957SOL    HW269429   3.170  10.225  10.297  1.8289  0.7468  1.0592
54958SOL     OW69430   1.998  10.648   5.081  0.0615 -0.4999 -0.7577
54958SOL    HW169431   2.032  10.729   5.118 -1.0865 -0.1172 -0.5210
54958SOL    HW269432   2.053  10.579   5.120  2.5056  0.2429 -2.6223
54959SOL     OW69433   0.504  12.099   3.971 -0.6595  0.3946 -0.1746
54959SOL    HW169434   0.437  12.036   3.945  0.4465 -0.9302  0.0577
54959SOL    HW269435   0.466  12.145   4.046 -0.9689 -0.9594  0.5293
54960SOL     OW69436   5.909   9.337   0.458 -0.2794 -0.0563 -0.3251
54960SOL    HW169437   5.839   9.293   0.506  0.7719 -0.9519  0.4196
54960SOL    HW269438   5.961   9.380   0.526 -1.8086  3.2589 -1.0595
54961SOL     OW69439   9.346   9.657   3.691 -0.1102  0.6093 -0.4637
54961SOL    HW169440   9.333   9.735   3.744 -0.0111 -1.1824  2.4307
54961SOL    HW269441   9.258   9.635   3.660 -0.3724  1.0080 -0.0124
54962SOL     OW69442  10.505   5.840  10.798 -0.1228 -0.0962  0.1531
54962SOL    HW169443  10.567   5.787  10.847  0.6373  0.0798 -0.5901
54962SOL    HW269444  10.448   5.878  10.864  0.0627 -0.8882  0.7862
54963SOL     OW69445  10.034   9.239   8.626 -0.3907  0.1413 -0.0053
54963SOL    HW169446   9.971   9.296   8.583 -1.6917  0.2174  1.9116
54963SOL    HW269447  10.070   9.185   8.555 -0.1242  2.3617 -1.6523
54964SOL     OW69448   3.453  10.218  10.145  0.1461  0.0922 -0.0386
54964SOL    HW169449   3.394  10.239  10.217 -1.0247  1.7871 -1.4080
54964SOL    HW269450   3.527  10.279  10.156  0.5758 -0.4955  0.3997
54965SOL     OW69451  11.094   6.444   8.428  0.1382  0.2694 -0.4233
54965SOL    HW169452  11.005   6.412   8.414  0.4051  0.4373 -2.8975
54965SOL    HW269453  11.142   6.369   8.464 -0.9223  0.1318  0.7577
54966SOL     OW69454  11.479  11.698  11.955  0.0824  0.3247 -0.0299
54966SOL    HW169455  11.414  11.726  11.890 -0.3927 -1.6003 -0.4314
54966SOL    HW269456  11.563  11.701  11.909 -0.3710 -1.9976 -1.1119
54967SOL     OW69457   6.032   5.736   9.428  0.1536 -0.1867  0.3539
54967SOL    HW169458   5.991   5.806   9.478 -0.5179  0.3437 -0.8826
54967SOL    HW269459   6.108   5.710   9.480 -0.2883  0.6106  1.4248
54968SOL     OW69460   9.079   4.596   3.247 -0.0051  0.5320 -0.2166
54968SOL    HW169461   9.105   4.523   3.191  0.7964 -0.0204  0.8370
54968SOL    HW269462   9.159   4.620   3.294 -0.9808 -0.0179  1.8082
54969SOL     OW69463   0.286   7.621   7.728  0.1250 -0.6125 -0.2331
54969SOL    HW169464   0.316   7.601   7.816  0.7619  0.8469 -0.0988
54969SOL    HW269465   0.198   7.657   7.739  0.4767  0.2184 -0.1273
54970SOL     OW69466   7.155   9.151  11.095  0.2540  0.1274  0.0769
54970SOL    HW169467   7.111   9.092  11.035  0.5699 -1.3313  1.2102
54970SOL    HW269468   7.244   9.116  11.102 -0.2132 -0.7863  2.6171
54971SOL     OW69469   3.277  10.250   6.936 -0.1186 -0.4195 -0.2903
54971SOL    HW169470   3.355  10.214   6.894  0.2543 -0.7676  0.6768
54971SOL    HW269471   3.296  10.246   7.030 -0.7792  0.6938 -0.0923
54972SOL     OW69472   5.193  10.098   4.228 -0.2665 -0.0043  0.5075
54972SOL    HW169473   5.111  10.054   4.252 -0.3965  0.0886  0.2389
54972SOL    HW269474   5.211  10.156   4.302 -0.7774  0.4382  0.2977
54973SOL     OW69475   1.847   8.996   8.615 -0.3173  0.0452  0.6815
54973SOL    HW169476   1.934   9.028   8.638  0.9599 -1.8665 -1.0483
54973SOL    HW269477   1.814   9.060   8.551 -0.1198  0.6973  1.2240
54974SOL     OW69478   7.443   5.203   4.056 -0.0387 -0.4618 -0.0294
54974SOL    HW169479   7.360   5.180   4.097 -0.8094 -0.4656 -1.5433
54974SOL    HW269480   7.455   5.137   3.987  2.2017 -1.6674  1.3727
54975SOL     OW69481   8.874   9.247   0.769  0.3035 -0.0301  0.0444
54975SOL    HW169482   8.809   9.309   0.735  1.0817  1.6810  1.4796
54975SOL    HW269483   8.894   9.280   0.857  0.0347 -2.9372  1.3001
54976SOL     OW69484   2.750  11.235   4.549  0.3422  0.4222  0.2022
54976SOL    HW169485   2.713  11.313   4.591  0.6859  1.4839 -1.3752
54976SOL    HW269486   2.675  11.189   4.514  0.0671 -0.3858  1.7707
54977SOL     OW69487   6.092   4.546   6.643 -0.2968  0.6946 -0.1444
54977SOL    HW169488   6.054   4.543   6.731 -2.0115 -0.8660 -0.8725
54977SOL    HW269489   6.054   4.625   6.604 -1.4244  0.1399 -0.2320
54978SOL     OW69490   3.592   3.543   8.699  0.0169 -0.6113  0.3349
54978SOL    HW169491   3.544   3.575   8.776 -1.2386  0.2028 -0.7427
54978SOL    HW269492   3.546   3.581   8.624 -0.0718 -3.0203 -0.9402
54979SOL     OW69493   8.476   1.677   0.275  0.1548 -0.5080 -0.7156
54979SOL    HW169494   8.531   1.686   0.353  1.3301 -0.0838 -1.5621
54979SOL    HW269495   8.387   1.675   0.309  0.4374  2.3953  0.4630
54980SOL     OW69496   2.614   2.770   0.295 -0.2286  0.1945 -0.4684
54980SOL    HW169497   2.606   2.684   0.337 -0.0625 -0.1280 -1.0903
54980SOL    HW269498   2.623   2.751   0.202 -0.6860  0.9115 -0.6665
54981SOL     OW69499   3.213   5.773   2.544 -0.7227 -0.3126 -0.2939
54981SOL    HW169500   3.283   5.830   2.575  0.1751 -2.9104  2.9832
54981SOL    HW269501   3.141   5.832   2.525  0.4969  2.0228  1.8081
54982SOL     OW69502   7.905   8.691   1.751 -0.0988  0.3693  0.9911
54982SOL    HW169503   7.833   8.682   1.689 -1.3351 -1.9364  2.6133
54982SOL    HW269504   7.977   8.641   1.711 -0.0275  1.0397  0.2670
54983SOL     OW69505   2.075   2.848   1.630 -0.2677  0.0501  0.4962
54983SOL    HW169506   2.011   2.808   1.571  1.8001  0.3628 -2.1627
54983SOL    HW269507   2.092   2.934   1.592 -0.1775  1.0424  2.6683
54984SOL     OW69508   2.425   2.307  10.917 -0.1222 -0.3077  0.6019
54984SOL    HW169509   2.359   2.376  10.908 -0.0869 -0.5346 -2.0826
54984SOL    HW269510   2.504   2.353  10.946 -0.0137  0.8822 -1.4108
54985SOL     OW69511  12.072   9.919  11.840  0.9843 -0.5009  0.1159
54985SOL    HW169512  12.061   9.839  11.788  0.6050 -1.0747  1.0368
54985SOL    HW269513  12.155   9.956  11.810  1.8039 -1.9096  0.5138
54986SOL     OW69514   3.259   8.699  11.565 -0.3079  0.2848 -0.4932
54986SOL    HW169515   3.214   8.615  11.558 -0.9323  0.4853  0.7383
54986SOL    HW269516   3.238   8.730  11.654 -0.8103  2.1407 -1.2055
54987SOL     OW69517   5.420  11.614   2.699 -0.2369  0.5373 -0.2856
54987SOL    HW169518   5.395  11.575   2.616 -0.6649 -0.0672  0.1138
54987SOL    HW269519   5.337  11.625   2.746 -0.0608  1.4268 -0.1707
54988SOL     OW69520   7.640   0.669  10.071 -0.0910 -0.2035 -0.1720
54988SOL    HW169521   7.600   0.744  10.114 -0.9667  1.0404 -2.9271
54988SOL    HW269522   7.613   0.594  10.124 -0.1234  1.2694  2.0237
54989SOL     OW69523   7.185  11.949   6.449 -0.1208 -0.0896 -0.4015
54989SOL    HW169524   7.158  11.860   6.471  0.1030 -0.0437  0.0722
54989SOL    HW269525   7.173  11.955   6.355 -3.0146  0.3454 -0.0962
54990SOL     OW69526   5.250   4.792   6.176 -0.1785 -0.0443 -0.4063
54990SOL    HW169527   5.171   4.799   6.122  0.3938 -1.9413 -1.5913
54990SOL    HW269528   5.304   4.726   6.132  1.9547  0.9582  0.5281
54991SOL     OW69529   5.045   7.851   5.012 -0.0892  0.0409  0.1170
54991SOL    HW169530   4.982   7.781   5.023  0.3680 -0.9922 -2.8477
54991SOL    HW269531   4.992   7.931   5.004 -0.8497 -0.4697  0.0030
54992SOL     OW69532   6.145   1.868   2.765 -0.6681  0.4298 -0.1632
54992SOL    HW169533   6.113   1.950   2.728  1.5968  1.4629  0.0339
54992SOL    HW269534   6.197   1.829   2.695 -0.3540 -0.0203  0.3155
54993SOL     OW69535   0.456   2.432   7.518  0.3601 -0.1798  0.4680
54993SOL    HW169536   0.383   2.493   7.524  0.2558  0.1916 -2.8093
54993SOL    HW269537   0.419   2.347   7.543 -1.0814  0.1172 -0.5246
54994SOL     OW69538   5.935   5.654   3.408 -0.6890 -0.2190 -0.1388
54994SOL    HW169539   5.962   5.645   3.316 -0.2484  1.0490 -0.1498
54994SOL    HW269540   5.848   5.692   3.404 -1.4380 -1.8624 -0.0468
54995SOL     OW69541   0.534  10.646   9.856 -0.7989 -0.4856  0.1125
54995SOL    HW169542   0.522  10.727   9.906 -1.4159 -0.1959 -0.4882
54995SOL    HW269543   0.590  10.672   9.783 -1.5285 -0.4374 -0.4425
54996SOL     OW69544   3.961   1.512   6.564 -0.6969 -0.2395 -0.3247
54996SOL    HW169545   3.952   1.563   6.483 -0.6332  0.3577  0.0412
54996SOL    HW269546   3.871   1.490   6.589 -0.6871 -1.1245 -0.9816
54997SOL     OW69547   1.695   3.958  10.569  0.2585  0.2202 -0.0293
54997SOL    HW169548   1.764   3.896  10.590 -0.5783 -0.0995  1.9958
54997SOL    HW269549   1.680   4.006  10.650 -1.0742  1.0869 -0.7515
54998SOL     OW69550   0.887   8.411   8.400  0.2296 -0.0993  0.2022
54998SOL    HW169551   0.859   8.418   8.492  0.4914 -1.0809  0.3739
54998SOL    HW269552   0.820   8.459   8.351  0.8882  1.7187  1.0220
54999SOL     OW69553   0.870   0.456   1.717 -0.5682  0.5953  0.0482
54999SOL    HW169554   0.886   0.497   1.631 -1.3781  0.5194 -0.1508
54999SOL    HW269555   0.956   0.455   1.759 -0.8860  5.6221  1.4862
55000SOL     OW69556   1.948   3.845   1.971  0.3108  0.2879 -0.3385
55000SOL    HW169557   1.982   3.771   1.922  2.3899  1.2419 -0.4275
55000SOL    HW269558   1.998   3.845   2.053  1.8975  2.7454 -1.1980
55001SOL     OW69559   6.350   5.372  10.977  0.1295 -0.1167  0.3141
55001SOL    HW169560   6.323   5.292  10.932 -1.4810 -0.3611  1.6406
55001SOL    HW269561   6.342   5.441  10.910 -2.1967 -0.4701  0.1472
55002SOL     OW69562   5.295   5.873   4.758 -0.3762 -0.8658  0.3548
55002SOL    HW169563   5.237   5.797   4.762 -1.5226 -0.0454 -0.0565
55002SOL    HW269564   5.260   5.933   4.825  0.7742 -0.8632  0.9794
55003SOL     OW69565   9.536   1.897  10.711 -0.1219  0.3825  0.0954
55003SOL    HW169566   9.446   1.928  10.700 -0.1123  1.2153  2.0759
55003SOL    HW269567   9.527   1.802  10.719 -0.7885  0.4271 -0.0519
55004SOL     OW69568  11.334   1.895   2.384 -0.4434 -0.6161  0.2061
55004SOL    HW169569  11.415   1.924   2.342 -0.2043 -2.4228 -0.6809
55004SOL    HW269570  11.265   1.949   2.343 -0.0703 -1.4796 -1.6783
55005SOL     OW69571  12.027   4.457  11.159  0.3319  0.7831  0.1528
55005SOL    HW169572  11.975   4.452  11.079  0.9819 -2.0421 -0.1760
55005SOL    HW269573  12.117   4.467  11.129  0.8150 -2.1879  0.3509
55006SOL     OW69574   8.683   2.622   8.295 -0.8543  0.4204 -0.4434
55006SOL    HW169575   8.671   2.713   8.269 -1.1962  0.2925 -0.7530
55006SOL    HW269576   8.659   2.619   8.387 -0.7975  0.6514 -0.4217
55007SOL     OW69577   6.876   0.549   6.176 -0.0965  0.3245 -0.4430
55007SOL    HW169578   6.927   0.468   6.168 -2.8915 -1.7136  0.5640
55007SOL    HW269579   6.890   0.595   6.093  0.0968 -2.1871 -1.9018
55008SOL     OW69580   9.535   8.077   5.746  0.3223  0.0553  0.6789
55008SOL    HW169581   9.451   8.049   5.711 -0.1811  3.2758 -1.0118
55008SOL    HW269582   9.594   8.077   5.670  1.3796 -0.3197  1.4639
55009SOL     OW69583   8.035   8.835   3.120  0.3765  0.4577  0.2643
55009SOL    HW169584   8.086   8.892   3.062 -0.1583  0.9254  0.2436
55009SOL    HW269585   8.013   8.891   3.194  0.3079  0.1163  0.5008
55010SOL     OW69586  11.875   7.615   3.601  0.3844 -0.6665  0.2313
55010SOL    HW169587  11.884   7.657   3.516 -0.7601 -0.2291  0.2987
55010SOL    HW269588  11.956   7.635   3.647  0.5667 -0.0007 -0.3635
55011SOL     OW69589   9.172  10.378   7.128 -0.2268 -0.8853  0.6374
55011SOL    HW169590   9.149  10.347   7.040 -0.3483  3.6911 -1.1696
55011SOL    HW269591   9.088  10.397   7.170 -0.1444  0.9491  0.0421
55012SOL     OW69592   6.375   9.770   1.633 -0.5092  0.3755  0.1652
55012SOL    HW169593   6.291   9.743   1.670 -0.8315  1.3549  0.1980
55012SOL    HW269594   6.368   9.753   1.540 -1.1118  1.3086  0.0295
55013SOL     OW69595   9.478   7.692   2.326  0.0785  0.4351  0.3118
55013SOL    HW169596   9.384   7.708   2.329  0.1926  1.0740  2.5519
55013SOL    HW269597   9.486   7.596   2.326 -0.5749  0.3760  0.1013
55014SOL     OW69598   3.440   5.037   7.350 -0.4425 -0.1159 -0.8195
55014SOL    HW169599   3.409   5.117   7.307  0.1385  0.3612 -0.3703
55014SOL    HW269600   3.393   4.966   7.307 -2.0320  0.5685 -0.2728
55015SOL     OW69601   4.756   7.288   6.188  0.5530 -0.0054 -0.0494
55015SOL    HW169602   4.682   7.348   6.195 -0.7341 -1.6011  0.6223
55015SOL    HW269603   4.723   7.217   6.133  1.9710 -0.2102 -0.6634
55016SOL     OW69604   1.588   6.198   2.747  0.0465  0.4106 -0.2558
55016SOL    HW169605   1.553   6.287   2.736  1.1228  0.7272 -1.4932
55016SOL    HW269606   1.608   6.191   2.840 -0.6853  1.2229 -0.0301
55017SOL     OW69607   7.458  10.994   8.473 -0.4492  0.9313 -0.1467
55017SOL    HW169608   7.523  11.019   8.539 -0.9354  0.3310  0.5730
55017SOL    HW269609   7.510  10.965   8.398  0.1280  0.1395  0.5370
55018SOL     OW69610  11.732   0.545   0.319  0.0533 -0.4616 -0.3614
55018SOL    HW169611  11.645   0.575   0.346 -0.0641 -1.7363  0.7737
55018SOL    HW269612  11.728   0.542   0.224 -0.9960 -0.0728 -0.3389
55019SOL     OW69613   9.782   4.690   0.758 -0.0485 -0.1554  0.1656
55019SOL    HW169614   9.694   4.723   0.769 -0.3421 -1.2458  1.2901
55019SOL    HW269615   9.778   4.599   0.789  1.5650 -0.0817  0.6824
55020SOL     OW69616   6.457   6.266  11.443  0.5074  0.1007  0.0134
55020SOL    HW169617   6.546   6.292  11.467  0.3928 -0.9302  1.7257
55020SOL    HW269618   6.412   6.253  11.527 -0.4160 -2.2023 -0.7597
55021SOL     OW69619   1.237   1.398   1.232 -0.0852 -0.0154  0.0080
55021SOL    HW169620   1.295   1.342   1.284  1.3920  3.6614  2.8019
55021SOL    HW269621   1.287   1.416   1.152  0.7149 -0.3493  0.4129
55022SOL     OW69622  10.881  11.167   2.960 -0.8274 -0.5446 -0.7334
55022SOL    HW169623  10.890  11.226   2.884 -1.7907  1.1245  0.3748
55022SOL    HW269624  10.919  11.217   3.033 -0.2687 -1.9587 -0.0282
55023SOL     OW69625   8.866  11.898   2.403 -0.4527 -0.2452  0.5569
55023SOL    HW169626   8.917  11.817   2.401  0.0036  0.0469  0.3335
55023SOL    HW269627   8.882  11.934   2.490  1.2557  0.8106 -0.1436
55024SOL     OW69628  10.628   8.881   1.596  0.1297  0.1840  0.0875
55024SOL    HW169629  10.553   8.934   1.621 -1.1315 -1.4546 -0.0644
55024SOL    HW269630  10.593   8.816   1.535  1.0363 -2.3308  2.0399
55025SOL     OW69631   1.416   7.015   3.042 -0.2062 -0.6756 -0.2131
55025SOL    HW169632   1.369   6.949   2.991 -1.4762  0.3051 -0.3657
55025SOL    HW269633   1.401   7.097   2.995 -0.6606  0.1103  1.2441
55026SOL     OW69634   3.954  10.684   3.257  0.0972  0.1483  0.1115
55026SOL    HW169635   3.881  10.632   3.291 -0.0917  0.6375  0.4694
55026SOL    HW269636   4.021  10.678   3.325  0.1209  0.2709  0.0995
55027SOL     OW69637  11.388   0.552   1.778  0.1226 -0.0340 -0.3960
55027SOL    HW169638  11.395   0.625   1.838  1.7341  0.0675 -0.6672
55027SOL    HW269639  11.296   0.550   1.752 -0.0618  1.4995  0.0934
55028SOL     OW69640  10.771  11.954  12.047  0.7222 -0.4434 -0.3012
55028SOL    HW169641  10.716  11.966  12.124  1.3463  1.5553 -0.1229
55028SOL    HW269642  10.718  11.899  11.989 -0.6519 -0.1899  0.6460
55029SOL     OW69643   8.694   2.116  11.514 -0.3577  0.2255  0.2227
55029SOL    HW169644   8.744   2.189  11.549 -1.4847  1.1501 -0.0176
55029SOL    HW269645   8.759   2.059  11.473  0.3010  2.6312 -2.3222
55030SOL     OW69646   4.340   2.360   3.287  0.2821 -0.5554  0.1117
55030SOL    HW169647   4.361   2.267   3.297 -0.7090 -0.9163 -0.9578
55030SOL    HW269648   4.251   2.368   3.320  0.1321 -0.1138 -0.3895
55031SOL     OW69649  11.612  11.003  11.176  0.3155 -0.5225  0.3560
55031SOL    HW169650  11.689  11.053  11.204  0.8018 -2.6654  3.3813
55031SOL    HW269651  11.540  11.038  11.228  0.1566 -1.3198  0.6893
55032SOL     OW69652   4.715   7.308  11.415  0.1641  0.0577 -0.1882
55032SOL    HW169653   4.743   7.362  11.341 -0.6237  1.7456  0.6884
55032SOL    HW269654   4.727   7.365  11.491  1.3141 -1.7555  1.0609
55033SOL     OW69655   7.838   9.306   7.634 -0.0550 -0.3276 -0.1814
55033SOL    HW169656   7.922   9.351   7.645 -0.5400  0.7977 -0.9742
55033SOL    HW269657   7.852   9.247   7.560  0.2178 -0.6016  0.0859
55034SOL     OW69658   3.560   8.290   8.055  0.2682 -0.1905  0.3623
55034SOL    HW169659   3.489   8.243   8.011 -1.9102  3.0318  0.1288
55034SOL    HW269660   3.534   8.294   8.147  0.4655  0.4936  0.3935
55035SOL     OW69661   1.098   7.885   0.809  0.0465 -0.3160 -0.4878
55035SOL    HW169662   1.032   7.937   0.853  2.2362  1.4448  0.9251
55035SOL    HW269663   1.159   7.949   0.772  2.3294 -1.7994  0.4811
55036SOL     OW69664   3.074   8.463   3.440  0.5757 -0.2839  0.2648
55036SOL    HW169665   3.051   8.531   3.503 -0.8538 -0.0350 -0.4888
55036SOL    HW269666   3.145   8.415   3.482  0.8910  0.9963  1.2743
55037SOL     OW69667   8.997   9.682   8.922  0.1579  0.4820  0.6935
55037SOL    HW169668   8.950   9.763   8.900 -0.3051  0.0633  0.1131
55037SOL    HW269669   8.974   9.621   8.852  2.5836  0.6388 -0.3229
55038SOL     OW69670   6.856   4.095   1.520 -0.7258 -0.2091 -0.1344
55038SOL    HW169671   6.895   4.040   1.452 -1.7147  0.1392 -1.0065
55038SOL    HW269672   6.836   4.178   1.476 -0.6607  0.3103  0.7817
55039SOL     OW69673  10.449   7.856   6.655 -0.1950  0.2026  0.1044
55039SOL    HW169674  10.369   7.909   6.657 -0.7573 -0.6110  2.3789
55039SOL    HW269675  10.418   7.768   6.632  0.5719  0.5247 -2.4394
55040SOL     OW69676   7.467   2.144   3.479  0.2922 -0.0391  0.1348
55040SOL    HW169677   7.405   2.175   3.414 -1.1935  1.4732  2.1283
55040SOL    HW269678   7.537   2.210   3.479 -1.1788  1.6729  1.9918
55041SOL     OW69679  11.481  11.818  11.678  0.8108 -0.1367 -0.2236
55041SOL    HW169680  11.524  11.827  11.593  1.2316  0.2090  0.0246
55041SOL    HW269681  11.511  11.893  11.729 -0.6406  0.4987 -0.2688
55042SOL     OW69682   8.135   0.784   5.779  0.1655  0.4481  0.5776
55042SOL    HW169683   8.041   0.803   5.785 -0.1861 -0.6505 -0.8276
55042SOL    HW269684   8.152   0.719   5.847 -0.2885 -0.0110  0.2547
55043SOL     OW69685   3.276   4.481   8.499 -0.3439  0.3965 -0.2130
55043SOL    HW169686   3.339   4.513   8.565  1.0089  0.2229 -1.3610
55043SOL    HW269687   3.223   4.417   8.546  0.3695  0.5210  0.8033
55044SOL     OW69688   9.136   3.741   1.869  0.2785 -0.2028  0.0371
55044SOL    HW169689   9.136   3.697   1.954 -2.5124 -1.2918 -0.4057
55044SOL    HW269690   9.207   3.699   1.820  0.5309 -1.0948  1.1388
55045SOL     OW69691   2.692   3.311   9.827  0.1288  0.1636  0.3989
55045SOL    HW169692   2.702   3.406   9.821  0.1073  0.1307 -0.2909
55045SOL    HW269693   2.646   3.297   9.910 -0.3394  0.7944  0.2597
55046SOL     OW69694   7.893   3.426   7.464 -0.2617  0.7614 -0.0953
55046SOL    HW169695   7.842   3.360   7.416 -1.5200  1.6562 -0.0372
55046SOL    HW269696   7.851   3.509   7.442  0.1946  1.3653  1.2241
55047SOL     OW69697   7.238   7.774   9.450 -0.7530  0.0095 -0.0682
55047SOL    HW169698   7.157   7.824   9.454 -1.4266 -1.1043  1.0062
55047SOL    HW269699   7.305   7.833   9.484 -1.6535  0.0153  1.8107
55048SOL     OW69700   2.508   2.889   4.235 -0.5060 -0.2066 -0.1872
55048SOL    HW169701   2.469   2.849   4.157 -1.7463 -0.0582  0.3305
55048SOL    HW269702   2.434   2.928   4.281  0.5017  1.7384 -0.1010
55049SOL     OW69703   3.083   3.200  11.997 -0.2028  0.4660 -0.0467
55049SOL    HW169704   3.013   3.195  12.063 -0.5821  2.2632 -0.2626
55049SOL    HW269705   3.040   3.235  11.919  0.8855  1.4338 -0.2347
55050SOL     OW69706  10.706   7.457  10.244  0.0106  0.0562  0.4368
55050SOL    HW169707  10.749   7.398  10.305 -2.0097 -1.5237  0.4608
55050SOL    HW269708  10.613   7.433  10.248 -0.4246  0.9064 -2.1190
55051SOL     OW69709  10.939   0.146  10.420  0.4671 -0.7613 -0.0446
55051SOL    HW169710  10.921   0.231  10.459  1.2145  0.1044 -1.4812
55051SOL    HW269711  10.874   0.136  10.351  1.3997 -0.5639 -0.9837
55052SOL     OW69712   0.187   6.163   4.359 -0.0711 -0.0231  0.6101
55052SOL    HW169713   0.140   6.142   4.439  1.0247 -0.7668  1.0624
55052SOL    HW269714   0.216   6.079   4.324  0.0004  0.3395 -0.2519
55053SOL     OW69715   6.892   5.803   4.105 -0.6519  0.1395 -0.0757
55053SOL    HW169716   6.919   5.795   4.013 -0.2002 -0.2647  0.0917
55053SOL    HW269717   6.941   5.877   4.138 -1.7323  1.0683 -0.4879
55054SOL     OW69718   4.079   5.900   3.407  0.0192  0.1056  0.4740
55054SOL    HW169719   4.099   5.987   3.441  0.4663  0.4922 -0.7189
55054SOL    HW269720   4.127   5.840   3.465  0.7375  0.7327  0.5461
55055SOL     OW69721   3.680   2.563   4.822 -0.1813  0.7627  0.2237
55055SOL    HW169722   3.648   2.645   4.858 -0.2577  0.6400  0.4396
55055SOL    HW269723   3.745   2.533   4.886 -1.4785 -0.2699  1.1165
55056SOL     OW69724   7.477   0.084  11.677 -0.3579  0.6088 -0.3918
55056SOL    HW169725   7.568   0.097  11.650 -0.2925  0.3041 -0.3149
55056SOL    HW269726   7.441   0.025  11.611 -0.4501  0.5855 -0.3195
55057SOL     OW69727  10.484   3.065   6.951  0.3746 -0.0266  0.1649
55057SOL    HW169728  10.465   3.010   6.874 -2.1036  1.6702 -0.5690
55057SOL    HW269729  10.400   3.105   6.972  2.0062  3.5677  0.5637
55058SOL     OW69730   3.588   0.486   0.983  0.0969  0.1443 -0.4668
55058SOL    HW169731   3.664   0.441   0.946 -0.8948 -0.5894 -1.6821
55058SOL    HW269732   3.576   0.562   0.927 -0.4434 -0.0965 -0.6863
55059SOL     OW69733   9.238   3.924   8.023 -0.0942 -0.1049  0.1112
55059SOL    HW169734   9.189   3.988   8.074  1.4582 -0.5505  2.2872
55059SOL    HW269735   9.215   3.944   7.932 -1.3133  2.1273  0.8270
55060SOL     OW69736  10.414   9.703   7.616  0.6891  0.3520 -0.4205
55060SOL    HW169737  10.382   9.778   7.565 -1.5163 -0.6139 -0.5557
55060SOL    HW269738  10.380   9.718   7.704 -1.3465 -1.3125 -0.8468
55061SOL     OW69739   7.898  10.724   4.792  0.0389 -0.0238 -0.2796
55061SOL    HW169740   7.972  10.738   4.734  0.5870 -0.1975  0.3593
55061SOL    HW269741   7.848  10.805   4.788  0.1228  0.0010 -0.9065
55062SOL     OW69742   8.252   4.660   6.083  0.3365 -0.1876 -0.5785
55062SOL    HW169743   8.193   4.619   6.020 -0.8930 -0.4153  0.6742
55062SOL    HW269744   8.339   4.625   6.061  0.2168  0.8539 -3.0283
55063SOL     OW69745   6.011   6.047   2.327 -0.0117  0.2428  0.7633
55063SOL    HW169746   6.080   6.107   2.356 -0.0734  0.7483 -0.0791
55063SOL    HW269747   5.990   5.995   2.404 -0.5367  1.8536  1.7631
55064SOL     OW69748   0.439  10.267   6.014 -0.1237 -0.1977 -1.1540
55064SOL    HW169749   0.495  10.194   5.987  0.1371 -0.0006 -1.1617
55064SOL    HW269750   0.492  10.345   5.994  0.4607 -0.0592  0.7505
55065SOL     OW69751   4.318   6.829   3.486 -0.0499 -0.1264  0.7706
55065SOL    HW169752   4.277   6.824   3.399 -1.2016  0.9296  1.2215
55065SOL    HW269753   4.341   6.922   3.496  1.4770 -0.5109  0.9909
55066SOL     OW69754   4.081   1.781   0.598 -0.4642 -0.8172  0.6426
55066SOL    HW169755   4.053   1.693   0.574 -1.5923 -0.4444  0.4846
55066SOL    HW269756   4.014   1.811   0.661  1.0028 -0.8114  2.2649
55067SOL     OW69757   8.595  11.885   2.593  0.6259  0.1547 -0.1604
55067SOL    HW169758   8.505  11.903   2.621  1.1766 -0.4246  2.2917
55067SOL    HW269759   8.612  11.949   2.524 -1.4419  0.6981 -0.2529
55068SOL     OW69760   1.333   9.889   4.341  0.1936  0.5339  0.2149
55068SOL    HW169761   1.317   9.895   4.435 -2.0393 -0.6258 -0.0191
55068SOL    HW269762   1.273   9.953   4.302  0.9287  0.8390 -0.4382
55069SOL     OW69763   0.892   1.701   3.796  0.0320  0.0333 -0.0095
55069SOL    HW169764   0.845   1.780   3.771  0.1897  0.6977  1.6342
55069SOL    HW269765   0.953   1.730   3.864  2.5029 -0.8947 -1.7116
55070SOL     OW69766  12.051  11.110  11.578  0.5551 -0.1321  0.3336
55070SOL    HW169767  12.140  11.084  11.602  1.5797  0.2995 -2.5340
55070SOL    HW269768  12.060  11.202  11.552 -0.1426 -0.6880 -2.1788
55071SOL     OW69769   4.965   7.627   0.704  0.1690  0.3704 -0.1636
55071SOL    HW169770   4.982   7.562   0.772 -0.5245  1.1695  0.8144
55071SOL    HW269771   5.051   7.657   0.676  0.5843  2.5852  2.9319
55072SOL     OW69772  11.546  11.081   6.524 -0.1310  0.0843  0.7004
55072SOL    HW169773  11.523  11.057   6.434 -2.3335  1.0101  0.9750
55072SOL    HW269774  11.470  11.059   6.576  0.2555  1.5804  1.9937
55073SOL     OW69775   4.003   2.001   8.109 -0.1303 -0.1012  0.0442
55073SOL    HW169776   4.012   2.034   8.019  2.2797 -1.4032 -0.2925
55073SOL    HW269777   4.032   2.074   8.164  1.1157 -0.1939 -0.4446
55074SOL     OW69778   3.137   5.998   9.938 -0.2040 -0.0103 -0.3678
55074SOL    HW169779   3.059   5.948   9.914  0.7532 -0.9725 -1.5947
55074SOL    HW269780   3.129   6.079   9.889 -1.1087  0.5217  0.6106
55075SOL     OW69781   5.657  12.057   2.027  0.6842  0.3607 -0.1981
55075SOL    HW169782   5.716  12.086   2.097 -0.0803  1.3444  0.0527
55075SOL    HW269783   5.643  11.964   2.046 -0.6197  0.8886  1.8188
55076SOL     OW69784   2.878   3.487  10.294  0.1961 -0.5770  0.6078
55076SOL    HW169785   2.969   3.494  10.324  0.1519  0.3521  0.5771
55076SOL    HW269786   2.826   3.519  10.367 -0.1555 -1.6586  0.8405
55077SOL     OW69787   2.516  11.301   8.919  0.4348  0.4430  0.0858
55077SOL    HW169788   2.421  11.302   8.930  0.5107  2.1565  0.8039
55077SOL    HW269789   2.548  11.258   8.998  0.2721 -0.1872 -0.1817
55078SOL     OW69790   9.555   1.860   1.175  0.0624 -0.2094  0.0411
55078SOL    HW169791   9.616   1.787   1.168 -0.6454 -0.7701 -0.4297
55078SOL    HW269792   9.476   1.829   1.132 -0.5479  0.5180  0.6158
55079SOL     OW69793   8.391  11.503   3.687  0.7223  0.5761  0.1108
55079SOL    HW169794   8.477  11.542   3.671  0.8464  0.2483 -0.0441
55079SOL    HW269795   8.401  11.455   3.770  0.9468 -0.1785 -0.3440
55080SOL     OW69796   5.908  11.004   4.869 -0.0422 -0.4714 -0.4076
55080SOL    HW169797   5.997  10.987   4.838  0.4615  0.5204  0.4346
55080SOL    HW269798   5.870  10.917   4.882  0.2127 -0.9224 -2.3352
55081SOL     OW69799  11.966  11.173   8.909  0.1193 -0.2895  0.1756
55081SOL    HW169800  12.049  11.196   8.868 -0.8330  0.5187 -1.3864
55081SOL    HW269801  11.925  11.113   8.847 -1.5018  1.2025 -0.2696
55082SOL     OW69802  11.856  11.142   4.590  0.3196  0.1227  0.0923
55082SOL    HW169803  11.921  11.179   4.530  0.7743  0.2740  0.6675
55082SOL    HW269804  11.839  11.054   4.556  0.9207  0.0362  0.0101
55083SOL     OW69805   0.089   8.274   8.545  0.6044 -0.1459 -0.7298
55083SOL    HW169806   0.015   8.229   8.504 -0.4163 -0.3819  1.2460
55083SOL    HW269807   0.154   8.281   8.476 -0.3352 -2.0708 -1.8862
55084SOL     OW69808   3.889   0.322   8.499  0.8761 -0.5469 -0.0368
55084SOL    HW169809   3.940   0.369   8.565 -0.9878  1.0256  0.3782
55084SOL    HW269810   3.935   0.338   8.417  0.8146  1.2617  0.2508
55085SOL     OW69811   1.206   3.837   8.649 -0.2428  0.1570 -0.3641
55085SOL    HW169812   1.221   3.743   8.656  2.5941  0.6411  2.4946
55085SOL    HW269813   1.141   3.856   8.717 -1.5168  0.2343 -1.5512
55086SOL     OW69814   4.794  10.620   9.765  0.3088 -0.0227  0.1470
55086SOL    HW169815   4.722  10.612   9.703  0.8559 -1.6380 -0.3217
55086SOL    HW269816   4.829  10.531   9.774  1.6606  0.5566  1.0703
55087SOL     OW69817   9.845   8.378   7.053 -0.2854  0.2748  0.2424
55087SOL    HW169818   9.868   8.292   7.019  0.7096  0.0315  1.4866
55087SOL    HW269819   9.772   8.362   7.113 -2.1958  0.7345 -1.8350
55088SOL     OW69820  11.037   7.691   0.319 -0.1711 -0.0625  0.0670
55088SOL    HW169821  11.000   7.773   0.353  1.2232  0.8518 -0.4937
55088SOL    HW269822  11.013   7.691   0.226 -1.7382 -1.2479  0.4288
55089SOL     OW69823   6.302  10.214   8.203  0.2638  0.1453  0.3615
55089SOL    HW169824   6.277  10.302   8.174 -3.5147 -0.5642  0.8919
55089SOL    HW269825   6.292  10.160   8.125 -0.2974 -0.2191  0.6758
55090SOL     OW69826  11.196   2.735   1.067 -0.1653 -0.4156 -0.7552
55090SOL    HW169827  11.160   2.665   1.013  2.1722 -0.9760 -1.6857
55090SOL    HW269828  11.195   2.812   1.009  0.7503 -0.6052 -1.0343
55091SOL     OW69829   8.138   8.402   5.745  0.3303 -0.3801  0.2131
55091SOL    HW169830   8.067   8.350   5.707 -0.1784  0.6692 -0.2999
55091SOL    HW269831   8.102   8.435   5.827  0.0513  0.5491 -0.2798
55092SOL     OW69832   3.445   9.070   3.503 -0.6446 -0.7775  0.5367
55092SOL    HW169833   3.395   9.146   3.474 -0.2356 -1.1409 -1.2667
55092SOL    HW269834   3.404   9.044   3.585 -1.8741  0.3678  0.3188
55093SOL     OW69835   4.706   8.611   2.445  0.3925 -0.9542  0.8299
55093SOL    HW169836   4.632   8.672   2.440  1.3935  0.2047 -0.2150
55093SOL    HW269837   4.702   8.577   2.535  0.7257  1.8558  2.0083
55094SOL     OW69838   7.673   4.360  11.728 -0.1370 -0.3057 -0.1658
55094SOL    HW169839   7.660   4.265  11.731 -2.4403 -0.0392  0.2521
55094SOL    HW269840   7.590   4.395  11.696 -1.1271  1.8305  4.0035
55095SOL     OW69841   2.527   1.370   6.332  0.3378 -0.2274  0.0262
55095SOL    HW169842   2.445   1.396   6.373 -0.4661 -0.1825 -1.5478
55095SOL    HW269843   2.530   1.419   6.250  2.3637  0.4133  0.4215
55096SOL     OW69844   6.078   1.226  12.074  0.6042 -0.0407 -0.3508
55096SOL    HW169845   6.001   1.250  12.125  1.5421 -0.1117  1.1704
55096SOL    HW269846   6.050   1.150  12.022 -0.1145 -0.6086  0.8263
55097SOL     OW69847  11.490   3.998   3.401  0.1748 -0.4952 -0.3284
55097SOL    HW169848  11.525   4.087   3.398  1.0894 -0.8657 -2.8675
55097SOL    HW269849  11.463   3.979   3.311 -1.7601 -2.1349  0.5233
55098SOL     OW69850   4.189   9.252   4.315  0.1886 -0.2456 -0.2407
55098SOL    HW169851   4.232   9.191   4.375  0.2319 -1.5508 -1.5406
55098SOL    HW269852   4.164   9.198   4.240  0.8536  1.4661 -1.7613
55099SOL     OW69853   4.851   9.632   6.613  0.0682  0.0236 -0.2967
55099SOL    HW169854   4.847   9.683   6.694  0.0184  0.2392 -0.4324
55099SOL    HW269855   4.783   9.566   6.622  0.9797 -0.8517  0.4400
55100SOL     OW69856  10.495   2.081  10.222  0.1004 -0.1532 -0.7614
55100SOL    HW169857  10.520   2.163  10.263  0.9930 -0.5554 -0.4910
55100SOL    HW269858  10.409   2.060  10.260  0.5658 -0.1250  0.3270
55101SOL     OW69859   4.725   5.912   7.155  0.6824 -0.2773  0.4564
55101SOL    HW169860   4.802   5.955   7.118  0.9080 -0.2106  1.0000
55101SOL    HW269861   4.758   5.828   7.188  0.2815 -0.8010 -0.4309
55102SOL     OW69862   3.444  11.842   4.438 -0.3488 -0.2441  0.2534
55102SOL    HW169863   3.390  11.913   4.471 -0.1200  0.0922 -0.0937
55102SOL    HW269864   3.421  11.767   4.493 -3.9654 -1.1818 -2.2132
55103SOL     OW69865   8.411   2.518   0.246 -0.1483 -0.0765  0.5545
55103SOL    HW169866   8.411   2.496   0.339 -0.4307  0.7747  0.7592
55103SOL    HW269867   8.376   2.440   0.203 -0.5069 -0.2796  1.2096
55104SOL     OW69868   4.634   1.783   0.006  0.6740 -0.9837 -0.1818
55104SOL    HW169869   4.693   1.858   0.014 -1.3634  0.5293  2.6556
55104SOL    HW269870   4.547   1.822   0.003 -0.4315 -3.2162  0.6954
55105SOL     OW69871   9.468  10.383   4.866  0.3516  0.0739  0.3339
55105SOL    HW169872   9.445  10.417   4.952  1.6401 -0.1758  0.8067
55105SOL    HW269873   9.523  10.307   4.885 -3.3222 -3.1397 -0.6415
55106SOL     OW69874   8.871  11.347   3.276  0.3925  0.2330 -0.3853
55106SOL    HW169875   8.819  11.313   3.203 -1.4286  1.3506  0.3258
55106SOL    HW269876   8.832  11.309   3.354  1.1894  0.4514  0.1345
55107SOL     OW69877   8.301   5.152   8.464 -0.0196 -0.3503  0.2004
55107SOL    HW169878   8.350   5.170   8.544  0.1042 -0.3156  0.1165
55107SOL    HW269879   8.250   5.231   8.449 -0.0386 -0.3543  0.2411
55108SOL     OW69880   2.447   4.112   6.841 -0.6042 -1.0106 -0.1633
55108SOL    HW169881   2.356   4.140   6.831 -0.0428  0.8716 -0.3394
55108SOL    HW269882   2.444   4.017   6.829 -2.5113 -0.9729 -0.3099
55109SOL     OW69883   5.217  11.571   5.330 -0.0677  0.2649  0.3061
55109SOL    HW169884   5.160  11.500   5.361 -0.0560  0.1753  0.1230
55109SOL    HW269885   5.304  11.532   5.327  0.2797  0.8068  1.9936
55110SOL     OW69886   8.160  11.775  10.958  0.1044  0.2598  0.0674
55110SOL    HW169887   8.105  11.840  10.913  0.6545  1.4065  0.9803
55110SOL    HW269888   8.120  11.691  10.937  0.0151  0.7754 -2.0914
55111SOL     OW69889   4.199   3.069   9.862  0.1903 -0.1332 -0.0222
55111SOL    HW169890   4.192   3.149   9.810 -0.0044  0.8875  1.5100
55111SOL    HW269891   4.260   3.013   9.813 -0.9610  0.2453 -1.9605
55112SOL     OW69892   9.823   2.444  11.646 -0.1181 -0.4240 -0.1716
55112SOL    HW169893   9.791   2.405  11.727  0.4947  0.8972  0.7521
55112SOL    HW269894   9.783   2.392  11.576 -1.1170 -1.2323  0.9640
55113SOL     OW69895   4.471  11.242   0.079  0.1776  0.2274 -0.7135
55113SOL    HW169896   4.422  11.306   0.027 -1.0271 -1.0467 -1.2160
55113SOL    HW269897   4.522  11.193   0.014  0.4606  0.1463 -0.4305
55114SOL     OW69898   6.627   8.348   4.829  0.2988 -0.0426 -0.7266
55114SOL    HW169899   6.670   8.288   4.890 -0.2428  0.4816  0.1872
55114SOL    HW269900   6.694   8.365   4.762  0.8976 -0.6317 -0.2992
55115SOL     OW69901  11.642   0.839   7.171 -0.1988  0.0489 -0.0941
55115SOL    HW169902  11.592   0.812   7.094  0.3038 -1.6597  0.1388
55115SOL    HW269903  11.636   0.765   7.231  0.2323  0.9643  1.1157
55116SOL     OW69904  11.465   8.384   8.284 -0.2871  0.7548 -0.3689
55116SOL    HW169905  11.532   8.452   8.288  0.5712 -0.0594 -0.4091
55116SOL    HW269906  11.388   8.422   8.327  0.6005  1.2634  0.8211
55117SOL     OW69907   9.161   7.883   8.546 -0.1075  0.5756 -0.5250
55117SOL    HW169908   9.093   7.938   8.506 -0.0947 -0.0567 -1.4340
55117SOL    HW269909   9.237   7.940   8.552 -0.2401  0.8111 -1.0074
55118SOL     OW69910   5.135   9.627   0.121 -0.7109 -0.3248  0.1133
55118SOL    HW169911   5.117   9.572   0.044 -0.5954 -0.9959  0.5600
55118SOL    HW269912   5.214   9.675   0.098 -1.3903  0.4380 -0.6960
55119SOL     OW69913   7.077  11.657   9.933 -0.2995 -0.1518 -0.2038
55119SOL    HW169914   7.031  11.718   9.874 -1.0854 -0.5101  0.0223
55119SOL    HW269915   7.009  11.596   9.962  0.3845 -0.8720 -0.0773
55120SOL     OW69916   9.170   5.791   4.733  0.3444 -0.2456 -0.4422
55120SOL    HW169917   9.091   5.740   4.714  0.3072 -0.2639 -0.2487
55120SOL    HW269918   9.139   5.860   4.792  0.5783 -0.6003  0.1033
55121SOL     OW69919   0.421   0.823   2.250 -0.2421 -0.0508  0.6326
55121SOL    HW169920   0.334   0.807   2.286 -1.4281  0.3148 -1.8681
55121SOL    HW269921   0.409   0.899   2.193  1.5824 -0.3883 -0.2509
55122SOL     OW69922  12.099   5.609   4.145 -0.1543  0.0642  0.3139
55122SOL    HW169923  12.044   5.556   4.201  0.4632 -0.6069  0.3084
55122SOL    HW269924  12.039   5.652   4.085 -0.6508 -0.8451  0.1469
55123SOL     OW69925   7.418   1.034   2.020  0.4105 -0.2007 -0.8394
55123SOL    HW169926   7.333   1.033   2.065  1.0900  1.0149  0.5657
55123SOL    HW269927   7.473   0.978   2.075  1.4965  2.0094  0.4337
55124SOL     OW69928   5.389   8.596   3.868 -0.3161  0.1269  0.1362
55124SOL    HW169929   5.305   8.625   3.905 -1.0370 -2.7365  0.9823
55124SOL    HW269930   5.444   8.581   3.945 -0.0928 -0.9285 -0.2148
55125SOL     OW69931   0.544   4.785   3.189  0.0685  0.6598  0.2164
55125SOL    HW169932   0.558   4.838   3.268 -2.1268  0.8150  0.5675
55125SOL    HW269933   0.456   4.809   3.160  0.4900 -0.0623 -1.7953
55126SOL     OW69934   4.751   8.290   2.021 -0.3704 -1.0428 -0.2766
55126SOL    HW169935   4.781   8.263   2.108 -1.6731  1.4425  1.0553
55126SOL    HW269936   4.766   8.384   2.019 -4.0653 -0.3299 -1.0931
55127SOL     OW69937   3.150   1.364   4.802 -0.4382  0.0984  0.3100
55127SOL    HW169938   3.199   1.397   4.878 -0.0556 -0.4302  0.3019
55127SOL    HW269939   3.217   1.349   4.735 -0.6387 -0.4273  0.2232
55128SOL     OW69940   3.155   5.827   5.789 -0.2980  0.4708  0.1247
55128SOL    HW169941   3.152   5.764   5.862 -0.5764 -0.4463 -0.6558
55128SOL    HW269942   3.247   5.827   5.762 -0.2571  0.5550  0.2643
55129SOL     OW69943   1.649   0.613   5.228  0.0835 -0.0880  0.2143
55129SOL    HW169944   1.569   0.562   5.230 -0.5083  0.8109  1.5936
55129SOL    HW269945   1.631   0.689   5.285  1.7973  0.2829  0.3423
55130SOL     OW69946   9.458  11.302   4.200 -0.0805 -0.3940  0.6119
55130SOL    HW169947   9.532  11.340   4.152 -0.2886 -0.7425 -0.0088
55130SOL    HW269948   9.490  11.290   4.289 -0.1593  1.6837  0.9699
55131SOL     OW69949  11.011   5.535   4.706 -0.0714  0.2230 -0.2538
55131SOL    HW169950  10.916   5.531   4.695 -0.1752  2.1951 -0.3266
55131SOL    HW269951  11.027   5.615   4.755  1.5623 -0.1090 -0.1677
55132SOL     OW69952   1.583   8.972   9.466 -0.6551 -0.4137  0.0150
55132SOL    HW169953   1.559   9.060   9.496 -0.4806  0.2648 -1.7147
55132SOL    HW269954   1.513   8.948   9.405 -0.6329 -1.4484  0.3772
55133SOL     OW69955   0.221   8.561   2.597  0.0625 -0.1236  0.2873
55133SOL    HW169956   0.134   8.568   2.638  0.1280 -2.4788  1.0034
55133SOL    HW269957   0.208   8.499   2.525  1.2202 -0.9093  0.7252
55134SOL     OW69958  10.969   6.425   4.601  0.3364 -0.4937 -0.1711
55134SOL    HW169959  11.009   6.471   4.527  0.5122 -1.0540 -0.4338
55134SOL    HW269960  10.905   6.486   4.636 -0.1993 -0.4600 -1.1807
55135SOL     OW69961   0.844  11.626   3.869 -0.1352  0.0179  0.1826
55135SOL    HW169962   0.890  11.615   3.952 -1.5602 -1.5188  0.8342
55135SOL    HW269963   0.767  11.570   3.877  0.8284 -2.0098 -3.0797
55136SOL     OW69964   5.280   8.647   4.152  0.1412  0.6890  0.0337
55136SOL    HW169965   5.372   8.622   4.157 -0.0461 -0.7593 -2.4965
55136SOL    HW269966   5.282   8.741   4.136  1.1937  0.5917 -0.4978
55137SOL     OW69967   7.911   6.125  10.466  0.7625 -0.1967  0.0283
55137SOL    HW169968   7.823   6.157  10.487  1.2969  1.3946 -0.0744
55137SOL    HW269969   7.903   6.091  10.377  0.7097  1.9829 -0.8671
55138SOL     OW69970   6.983   2.831  11.870 -0.0657  0.0348 -0.1003
55138SOL    HW169971   6.979   2.882  11.789 -1.2419 -0.0051 -0.0813
55138SOL    HW269972   6.892   2.807  11.888  0.2019 -0.1135  1.1419
55139SOL     OW69973   6.247  11.521   8.816 -0.0771 -0.0741 -0.3226
55139SOL    HW169974   6.202  11.536   8.899  1.9437  0.9022  0.6558
55139SOL    HW269975   6.331  11.481   8.840  0.0773 -0.8760 -1.9938
55140SOL     OW69976   4.842  11.261   4.067  0.2779 -0.1305  0.2053
55140SOL    HW169977   4.905  11.290   4.132 -0.4133 -1.1270  1.3465
55140SOL    HW269978   4.759  11.300   4.095  0.0307 -0.3183 -0.2566
55141SOL     OW69979   1.640   7.763   5.680 -0.1704  0.1351 -0.4865
55141SOL    HW169980   1.698   7.780   5.606  0.0968  0.2644 -0.2493
55141SOL    HW269981   1.613   7.671   5.668  2.6605 -1.0305  1.1230
55142SOL     OW69982   4.648   4.925   7.512 -0.7756 -0.6029 -0.0705
55142SOL    HW169983   4.713   4.951   7.447 -0.2728 -1.0107  0.2601
55142SOL    HW269984   4.601   5.006   7.533 -0.0757 -0.2124  0.0119
55143SOL     OW69985   6.024  10.775   4.063 -0.0905  0.3311 -0.1439
55143SOL    HW169986   6.078  10.790   4.141 -0.6721 -0.1417  0.3556
55143SOL    HW269987   6.005  10.681   4.065  0.0366  0.2819 -0.9529
55144SOL     OW69988   4.869   1.682   1.307  0.3283 -0.5665  0.3636
55144SOL    HW169989   4.950   1.692   1.357  0.7480 -0.1999 -0.3610
55144SOL    HW269990   4.869   1.591   1.280  0.8241 -0.4245 -0.1470
55145SOL     OW69991   7.469   1.010   9.596 -0.9046  0.1796 -0.1045
55145SOL    HW169992   7.386   1.053   9.618 -1.6308 -0.4080 -1.6080
55145SOL    HW269993   7.529   1.083   9.577 -1.3514  0.5851  0.0179
55146SOL     OW69994   8.291   6.237  11.320 -0.0076 -0.0575 -0.2931
55146SOL    HW169995   8.345   6.158  11.310  1.3209  0.5681  1.5690
55146SOL    HW269996   8.313   6.270  11.407 -0.9642  2.0695 -0.8201
55147SOL     OW69997   0.912   4.921   4.677 -0.4236  0.1777  0.1266
55147SOL    HW169998   0.914   5.017   4.686 -1.4676  0.2645 -0.4053
55147SOL    HW269999   0.878   4.906   4.589 -0.2781 -0.6869  0.2117
55148SOL     OW70000   5.580  12.058  11.133  0.0575  0.3323  0.1526
55148SOL    HW170001   5.622  12.090  11.054  0.3053 -0.1770  0.0696
55148SOL    HW270002   5.491  12.035  11.106 -0.2126  1.1997  0.2765
55149SOL     OW70003   0.604   5.537   7.507 -0.7492 -0.3628  0.0631
55149SOL    HW170004   0.628   5.606   7.569 -0.3298  0.4061 -0.9276
55149SOL    HW270005   0.509   5.531   7.513 -0.6691 -0.7663  1.2456
55150SOL     OW70006   8.329   2.782   4.833  0.0397  0.0406  0.3316
55150SOL    HW170007   8.236   2.794   4.815  0.1040 -0.6906 -0.5628
55150SOL    HW270008   8.334   2.701   4.883  0.1998  0.0502  0.3336
55151SOL     OW70009   9.515   4.300   9.666 -0.4165  0.4038  0.2945
55151SOL    HW170010   9.577   4.340   9.605 -0.9965 -0.0724 -0.6271
55151SOL    HW270011   9.538   4.337   9.751  0.9848  0.3904 -0.0658
55152SOL     OW70012   7.687   0.869   1.258  0.7662 -0.2002  0.3018
55152SOL    HW170013   7.621   0.803   1.238  0.8886 -0.0097 -0.7729
55152SOL    HW270014   7.679   0.882   1.353 -0.4910 -0.4339  0.2503
55153SOL     OW70015   1.083   5.710   3.173 -0.8946 -0.6778 -0.0924
55153SOL    HW170016   1.096   5.665   3.256  0.7277 -0.0604  0.0246
55153SOL    HW270017   0.988   5.715   3.163 -1.1108 -2.4599  0.7708
55154SOL     OW70018   3.100   2.624  10.302 -0.2270  0.3375 -0.2954
55154SOL    HW170019   3.009   2.593  10.297 -0.3839  0.8123 -0.3734
55154SOL    HW270020   3.147   2.571  10.238 -0.6261  0.7120 -0.8973
55155SOL     OW70021   9.282   0.711  11.498  0.6825 -0.3377  0.1099
55155SOL    HW170022   9.267   0.663  11.417  0.2466  1.1430 -0.7263
55155SOL    HW270023   9.371   0.746  11.490  0.9903 -0.9576  0.7022
55156SOL     OW70024   2.111   8.081   3.861  0.2856  0.2867 -0.2810
55156SOL    HW170025   2.194   8.127   3.874 -0.3613  1.1451  1.0363
55156SOL    HW270026   2.093   8.091   3.768  2.3136 -1.1100 -0.9016
55157SOL     OW70027   3.481   6.829   9.274 -0.0781 -0.2869  0.6813
55157SOL    HW170028   3.505   6.839   9.182 -0.1204  0.7162  0.7716
55157SOL    HW270029   3.435   6.910   9.296  1.2254  0.1467  1.9832
55158SOL     OW70030   7.490  11.922  11.932  0.7309  0.3660 -0.2227
55158SOL    HW170031   7.561  11.987  11.934  0.0429  1.1065  1.4973
55158SOL    HW270032   7.525  11.847  11.979  0.2797  0.8633  0.9346
55159SOL     OW70033  11.396   7.308   2.946  0.4179  0.0025  0.4231
55159SOL    HW170034  11.431   7.390   2.911 -1.0051  0.7160  0.6102
55159SOL    HW270035  11.305   7.306   2.917  0.7624 -2.1756 -0.7118
55160SOL     OW70036  11.144   8.657   9.004  0.0880  0.2648 -0.4404
55160SOL    HW170037  11.146   8.682   9.096  1.1331  1.3500 -0.7352
55160SOL    HW270038  11.181   8.732   8.958  1.8443 -1.1724 -1.5129
55161SOL     OW70039   0.066   5.301   7.861  0.0656  0.1438  0.1208
55161SOL    HW170040   0.112   5.383   7.846 -2.4342  1.6038 -0.0823
55161SOL    HW270041   0.045   5.269   7.773 -2.2033  1.3095  0.1641
55162SOL     OW70042   2.661   0.316   1.229 -0.3799 -0.3259  0.6878
55162SOL    HW170043   2.742   0.281   1.267  0.5018  0.0632 -0.7740
55162SOL    HW270044   2.690   0.390   1.175 -1.6024 -0.7490 -0.5997
55163SOL     OW70045   9.685   6.179   9.800  0.5541  0.0166 -0.0800
55163SOL    HW170046   9.744   6.239   9.845 -1.0273  1.9735 -0.4704
55163SOL    HW270047   9.687   6.208   9.708 -0.7838 -0.0195 -0.1399
55164SOL     OW70048   5.770   7.020   1.323 -0.4891 -0.4516 -0.2863
55164SOL    HW170049   5.704   6.992   1.260 -0.6984  1.5364 -1.0261
55164SOL    HW270050   5.843   6.960   1.310 -0.5343 -0.1075 -2.4373
55165SOL     OW70051   7.041   8.848  12.042  0.5955 -0.2576  0.0933
55165SOL    HW170052   7.044   8.765  12.089  0.3701 -1.1283 -1.3531
55165SOL    HW270053   7.068   8.914  12.106 -2.9870 -0.8570  2.4740
55166SOL     OW70054   2.392  10.925   2.987 -0.8472  0.2512  0.2257
55166SOL    HW170055   2.364  10.874   3.063  0.0769 -0.6554 -0.0052
55166SOL    HW270056   2.473  10.882   2.959  0.2896  2.1625  0.3313
55167SOL     OW70057   4.632   4.561   1.491  0.5314 -0.6761 -0.2437
55167SOL    HW170058   4.583   4.573   1.572 -0.1281  1.5373 -0.8927
55167SOL    HW270059   4.686   4.484   1.507 -0.4874 -1.0394  1.8262
55168SOL     OW70060  10.297   7.917   8.975 -0.3249  0.6156  0.7926
55168SOL    HW170061  10.274   8.004   9.007  0.6764  0.6062  1.5787
55168SOL    HW270062  10.367   7.887   9.032  1.1445  0.3429 -1.0387
55169SOL     OW70063   2.283   2.810   0.733  0.0643  0.3008 -0.6237
55169SOL    HW170064   2.207   2.865   0.716 -1.3738 -0.7973  1.8119
55169SOL    HW270065   2.305   2.825   0.825  0.4810 -2.1049 -0.2543
55170SOL     OW70066   5.752   6.275   7.119 -0.0924  0.3444  0.4917
55170SOL    HW170067   5.782   6.362   7.092  1.3146 -0.4331 -0.5978
55170SOL    HW270068   5.738   6.283   7.213  0.3476  1.6538  0.4707
55171SOL     OW70069   9.231  12.093   8.899  0.1389 -0.2822  0.4182
55171SOL    HW170070   9.201  12.184   8.890  3.2017  0.7090 -1.1324
55171SOL    HW270071   9.159  12.049   8.943 -1.5651  2.8474  1.0944
55172SOL     OW70072   3.293   3.084   6.157  0.0271 -0.3321  0.1633
55172SOL    HW170073   3.293   3.158   6.219  1.5878 -0.7712  0.7194
55172SOL    HW270074   3.210   3.040   6.174 -1.4820  1.8670 -0.9416
55173SOL     OW70075   0.794   5.371   9.738  0.4410 -0.5774 -0.9591
55173SOL    HW170076   0.720   5.420   9.774 -0.0753 -1.4886 -0.7579
55173SOL    HW270077   0.867   5.434   9.740  0.0358 -0.1067  0.1970
55174SOL     OW70078  11.880   2.114   8.808 -0.3253 -0.0864 -0.1486
55174SOL    HW170079  11.909   2.202   8.784 -0.4148  0.0219  0.1352
55174SOL    HW270080  11.785   2.116   8.796 -0.1261 -0.7958 -2.2350
55175SOL     OW70081   0.126  11.912  11.875 -0.2541  0.1539 -0.1811
55175SOL    HW170082   0.180  11.924  11.953  0.6897 -0.9331 -0.6362
55175SOL    HW270083   0.066  11.842  11.899  1.5088 -1.7714 -1.1115
55176SOL     OW70084   2.298  11.061   7.333 -0.4201 -0.3145 -0.6102
55176SOL    HW170085   2.323  11.093   7.247  1.5217 -1.0746 -0.3689
55176SOL    HW270086   2.263  11.138   7.378 -0.4144  0.3337 -1.6712
55177SOL     OW70087   2.861  11.193   6.792 -0.5160  0.2308 -0.4971
55177SOL    HW170088   2.855  11.284   6.761 -1.8188  0.1129 -0.6265
55177SOL    HW270089   2.858  11.200   6.887 -0.3700  0.3366 -0.4999
55178SOL     OW70090   0.631   9.614  10.770 -0.5172  0.0219 -0.2936
55178SOL    HW170091   0.590   9.528  10.767  1.0551 -0.7762  0.1934
55178SOL    HW270092   0.718   9.601  10.733  0.4850  0.9349  1.5972
55179SOL     OW70093  10.418   9.927  11.245 -0.4805  0.1833  0.2055
55179SOL    HW170094  10.475   9.993  11.206 -0.6279 -0.6331 -1.4643
55179SOL    HW270095  10.341   9.976  11.274  0.2130  1.0049  0.7147
55180SOL     OW70096   5.946  10.712   4.369  0.2338 -0.1661  0.1358
55180SOL    HW170097   5.955  10.626   4.328 -0.8903 -0.7520  1.0781
55180SOL    HW270098   5.871  10.752   4.325 -0.8424 -0.7091  1.4008
55181SOL     OW70099   5.226   2.777   6.301  0.0912  0.0668  0.3716
55181SOL    HW170100   5.143   2.730   6.294  0.1934 -0.4453  2.1208
55181SOL    HW270101   5.201   2.869   6.307 -0.2743  0.0088 -0.1700
55182SOL     OW70102  10.019   3.857   1.302  0.0123  0.4194 -0.2395
55182SOL    HW170103   9.943   3.900   1.262 -0.3436  1.3763  1.3827
55182SOL    HW270104  10.076   3.835   1.228 -0.7874  1.7571 -1.2918
55183SOL     OW70105   4.808   0.575  10.491  0.2359 -0.0778  0.0620
55183SOL    HW170106   4.806   0.605  10.400  1.3099  0.0630  0.0654
55183SOL    HW270107   4.823   0.655  10.541 -1.3340 -0.0052  0.4700
55184SOL     OW70108   6.077   6.304   0.824  0.0804 -0.6291 -0.1873
55184SOL    HW170109   6.155   6.249   0.836 -0.5312 -1.2469  1.1665
55184SOL    HW270110   6.092   6.380   0.880  1.3307  1.1482 -2.7331
55185SOL     OW70111   8.339  10.744  10.937  0.6281  0.1852 -0.1161
55185SOL    HW170112   8.301  10.733  11.024 -0.0845 -0.2681 -0.4801
55185SOL    HW270113   8.284  10.811  10.896  0.2940 -0.3876 -0.6029
55186SOL     OW70114   9.193   7.716  11.043 -0.4632 -0.0285 -0.1099
55186SOL    HW170115   9.186   7.784  11.111 -0.1235  0.3118 -0.4097
55186SOL    HW270116   9.110   7.670  11.047 -0.5463  0.1563  0.3683
55187SOL     OW70117   3.003   7.085   2.741  0.4103 -0.2598  0.5032
55187SOL    HW170118   2.957   7.078   2.657  0.6698  2.5689  0.0424
55187SOL    HW270119   2.989   7.175   2.769 -0.2482 -1.2752  3.9083
55188SOL     OW70120   8.043   3.987  11.655 -0.0282  0.5539 -0.2991
55188SOL    HW170121   8.032   4.054  11.722 -0.2350 -0.9521  1.2252
55188SOL    HW270122   8.120   4.016  11.605  1.5317  0.6215  1.9765
55189SOL     OW70123   7.729   8.264   2.398  0.1957 -0.2712  0.6861
55189SOL    HW170124   7.769   8.240   2.482  1.2785  1.5984  0.7654
55189SOL    HW270125   7.713   8.358   2.406 -1.1062 -0.3567 -0.6555
55190SOL     OW70126   8.224  11.557   7.562  0.1030 -0.2389  0.1245
55190SOL    HW170127   8.225  11.573   7.657  1.2970 -0.4357  0.1665
55190SOL    HW270128   8.306  11.596   7.531 -0.1610 -0.4009 -0.7973
55191SOL     OW70129   3.998   4.304   0.576 -0.1942 -0.1833  0.3610
55191SOL    HW170130   4.070   4.275   0.519 -0.6279  1.4418 -1.1194
55191SOL    HW270131   4.042   4.348   0.649  0.3507 -1.4335  0.8106
55192SOL     OW70132   6.666   2.754  11.667 -0.4195 -0.5782 -0.1036
55192SOL    HW170133   6.644   2.758  11.760 -2.9709  0.7331 -0.6915
55192SOL    HW270134   6.631   2.670  11.637  0.4806 -1.0408  0.0983
55193SOL     OW70135   6.218   2.291   9.321 -0.4697  0.3816  0.0848
55193SOL    HW170136   6.126   2.286   9.296 -0.6381 -1.2545  0.9159
55193SOL    HW270137   6.243   2.201   9.339  1.1573  0.8635  0.3864
55194SOL     OW70138   5.100   6.134   9.196  0.1806 -0.6041 -0.2357
55194SOL    HW170139   5.124   6.193   9.125 -0.8550 -0.0416 -0.1512
55194SOL    HW270140   5.005   6.147   9.206  0.5105  0.4716  2.2294
55195SOL     OW70141   2.502   9.188   5.074  0.4473 -0.6141  0.1252
55195SOL    HW170142   2.592   9.212   5.097  0.8493 -0.2358 -1.6431
55195SOL    HW270143   2.454   9.192   5.156  1.7592  0.5412  0.8865
55196SOL     OW70144   8.086   6.806   3.424  0.2016  1.0892 -0.4853
55196SOL    HW170145   8.071   6.886   3.373  0.3373  1.0107 -0.6471
55196SOL    HW270146   8.119   6.743   3.361 -0.5723  0.6851 -0.5009
55197SOL     OW70147   1.559   1.130   6.384 -0.0886 -0.4850 -0.2860
55197SOL    HW170148   1.518   1.044   6.381  0.6995 -0.8368 -1.2871
55197SOL    HW270149   1.489   1.189   6.410 -0.2897 -1.6201  2.0001
55198SOL     OW70150   6.501   7.692   4.636 -0.0955 -0.2394  0.1437
55198SOL    HW170151   6.441   7.766   4.643  1.6061  1.0883  1.4489
55198SOL    HW270152   6.488   7.643   4.718  0.1601 -0.2845  0.1576
55199SOL     OW70153   5.403   8.704   9.649  0.6971 -0.2663 -0.6162
55199SOL    HW170154   5.393   8.611   9.672  0.7171 -0.0680  0.2528
55199SOL    HW270155   5.487   8.729   9.688  1.3784 -0.2191 -2.0371
55200SOL     OW70156   5.920  10.658   9.282 -0.0689  0.5631 -0.0673
55200SOL    HW170157   5.965  10.575   9.297 -1.2501  0.1433  1.5287
55200SOL    HW270158   5.988  10.725   9.293  0.1168  0.0152  3.3414
55201SOL     OW70159   0.256   3.739  10.886  0.2102 -0.1441  0.0587
55201SOL    HW170160   0.245   3.710  10.977  1.4481 -0.9004 -0.0159
55201SOL    HW270161   0.223   3.829  10.885  0.0245 -0.1882  1.2162
55202SOL     OW70162   5.466   2.348   3.775  0.4423 -0.4142  0.0947
55202SOL    HW170163   5.508   2.265   3.751 -1.4067 -1.8356  1.4213
55202SOL    HW270164   5.391   2.355   3.716  0.5250  0.2533  0.0665
55203SOL     OW70165   0.200  11.743   5.415 -0.2146  0.6684 -0.2076
55203SOL    HW170166   0.193  11.762   5.509  0.1445 -0.3437  0.0376
55203SOL    HW270167   0.205  11.648   5.410 -2.0338  0.6020 -1.3931
55204SOL     OW70168   0.737   4.266   9.939 -0.2325 -0.2535  0.2497
55204SOL    HW170169   0.680   4.286   9.865 -0.4442 -1.2413  0.1246
55204SOL    HW270170   0.793   4.195   9.908  1.2952  0.8881  0.2800
55205SOL     OW70171   5.882   3.301   9.356  0.2889  0.3650 -0.3621
55205SOL    HW170172   5.867   3.290   9.263 -0.4571 -0.1626 -0.1853
55205SOL    HW270173   5.906   3.214   9.387 -0.9323  0.2096  0.1977
55206SOL     OW70174   2.876   3.807   4.127  0.0963  0.1522  0.0024
55206SOL    HW170175   2.827   3.726   4.144 -0.7952  0.6598 -0.1283
55206SOL    HW270176   2.886   3.847   4.214 -0.2607  0.3478 -0.0431
55207SOL     OW70177   8.250   3.260   8.103  0.4808  0.6386 -0.5207
55207SOL    HW170178   8.174   3.212   8.135  1.3675 -0.7361 -0.3486
55207SOL    HW270179   8.239   3.349   8.135 -1.1651  0.5225 -0.7173
55208SOL     OW70180  11.919   3.575  12.119  0.2609  0.1545 -0.4744
55208SOL    HW170181  11.928   3.606  12.029  0.2192  1.4615 -0.0500
55208SOL    HW270182  11.924   3.654  12.172 -0.2967 -0.5344  0.6402
55209SOL     OW70183  11.481   3.014   7.192  0.2643 -0.2234 -0.0011
55209SOL    HW170184  11.492   2.927   7.231  0.3456 -0.2492 -0.0805
55209SOL    HW270185  11.490   3.075   7.266  1.6083 -0.2035 -0.1499
55210SOL     OW70186   5.537  12.027   0.325  0.7584 -0.2053 -0.3098
55210SOL    HW170187   5.567  11.955   0.382  0.0566 -0.8671 -0.7599
55210SOL    HW270188   5.487  12.084   0.383 -1.1596 -1.6096 -0.5058
55211SOL     OW70189   1.926   8.373   1.039 -0.1232  0.2876 -0.3348
55211SOL    HW170190   1.998   8.327   1.083 -0.1790 -0.3397 -0.8953
55211SOL    HW270191   1.852   8.365   1.099 -0.2438 -0.7123 -0.6145
55212SOL     OW70192   7.842   1.486   3.916 -0.1091 -0.5985  0.0908
55212SOL    HW170193   7.885   1.437   3.846  1.1271 -0.1630  0.5263
55212SOL    HW270194   7.899   1.561   3.931 -2.1537  1.2487 -0.8467
55213SOL     OW70195   0.814   8.330  10.186 -0.1091  0.3249  0.2925
55213SOL    HW170196   0.874   8.264  10.219 -1.5083 -0.1302  2.0764
55213SOL    HW270197   0.768   8.287  10.114  2.5955  1.1506 -2.1206
55214SOL     OW70198  11.966   4.418   0.387 -0.2645  0.4562 -0.3740
55214SOL    HW170199  11.993   4.331   0.419  0.6542  0.6915 -0.4701
55214SOL    HW270200  12.021   4.433   0.310  0.3553  1.5695  0.2583
55215SOL     OW70201  11.426   9.388   7.691  0.2203  0.6168 -0.9396
55215SOL    HW170202  11.418   9.368   7.785  0.4710  0.2986 -0.9811
55215SOL    HW270203  11.476   9.314   7.656 -1.6063 -0.3200 -1.7075
55216SOL     OW70204   3.783   9.163   9.563  0.4223  0.2557 -0.4313
55216SOL    HW170205   3.829   9.144   9.645 -0.8350  1.5332  0.6205
55216SOL    HW270206   3.844   9.220   9.515  0.7123  0.4142  0.1117
55217SOL     OW70207   8.029   0.600   0.708  0.4770  0.3881 -0.4214
55217SOL    HW170208   7.938   0.572   0.719 -0.3918  3.3156  0.8496
55217SOL    HW270209   8.072   0.576   0.790  0.2714  0.9300 -0.1527
55218SOL     OW70210   2.817  10.650   5.856  0.5022 -0.4636 -0.1641
55218SOL    HW170211   2.734  10.661   5.809 -0.8573 -1.7506  1.7791
55218SOL    HW270212   2.822  10.556   5.874  1.7460 -0.2298  0.8643
55219SOL     OW70213   8.770   1.113   8.308  0.1214 -0.5515  0.1093
55219SOL    HW170214   8.773   1.176   8.236 -0.7671 -0.3900  0.2044
55219SOL    HW270215   8.759   1.028   8.265 -3.6089 -0.2167  0.0447
55220SOL     OW70216  11.589   2.313   7.462  0.3671 -0.5746  0.6799
55220SOL    HW170217  11.538   2.392   7.482 -0.2141 -0.6470 -0.4068
55220SOL    HW270218  11.669   2.346   7.420  0.2513 -0.5436  0.4802
55221SOL     OW70219   7.807   7.696   1.771  0.4195  0.4796 -0.5449
55221SOL    HW170220   7.871   7.701   1.700  1.0617  1.4018  0.0813
55221SOL    HW270221   7.821   7.776   1.823 -0.8590  0.4263 -0.0709
55222SOL     OW70222   5.895   1.513   3.509 -0.4995 -0.4007 -0.2038
55222SOL    HW170223   5.837   1.568   3.562  0.5335  0.6457 -0.1042
55222SOL    HW270224   5.841   1.483   3.436 -1.2587  0.2547  0.0837
55223SOL     OW70225   7.230   3.677   5.741 -0.7579  0.1484 -0.1908
55223SOL    HW170226   7.140   3.646   5.728 -0.2355 -1.9004  0.7138
55223SOL    HW270227   7.285   3.603   5.714  0.6459  1.0737  0.0375
55224SOL     OW70228   7.085  10.837   9.839  0.3796  0.1448 -0.1168
55224SOL    HW170229   7.075  10.866   9.930  0.5146 -1.0856  0.3039
55224SOL    HW270230   7.170  10.794   9.837 -0.1515 -0.9004 -0.5426
55225SOL     OW70231   9.811   5.833  12.113 -0.1439 -0.0693 -0.2164
55225SOL    HW170232   9.718   5.812  12.108 -0.1113 -0.0185 -1.4658
55225SOL    HW270233   9.845   5.810  12.026  0.7990  0.8561 -0.1139
55226SOL     OW70234   4.692   8.969   4.288  0.2126  0.0504  0.0791
55226SOL    HW170235   4.747   8.905   4.241 -0.7993 -0.4668 -0.4241
55226SOL    HW270236   4.749   9.045   4.299  1.4208 -0.8766  0.5886
55227SOL     OW70237   3.575  11.321   3.650 -0.2049  0.2927  0.0827
55227SOL    HW170238   3.602  11.345   3.739  0.0928 -0.6896  0.2662
55227SOL    HW270239   3.656  11.320   3.600 -0.3924  0.9998 -0.2497
55228SOL     OW70240   4.214   2.414   7.915 -0.1932 -0.1729  0.1564
55228SOL    HW170241   4.154   2.445   7.847 -0.7839 -1.3795  0.1145
55228SOL    HW270242   4.298   2.453   7.892 -0.8551  1.2199 -0.0126
55229SOL     OW70243  11.738   5.985   7.169  0.3672  0.0799 -0.2346
55229SOL    HW170244  11.819   5.934   7.179  0.8592  0.7842 -0.5071
55229SOL    HW270245  11.729   5.998   7.075  1.2992  2.0763 -0.1126
55230SOL     OW70246   6.059   5.019   5.963  0.0341  0.6041  0.5988
55230SOL    HW170247   6.014   4.935   5.979  0.4613  0.4700  1.1572
55230SOL    HW270248   6.140   5.012   6.015  1.4853  0.2049 -1.5958
55231SOL     OW70249   4.442   8.548   3.547 -0.1074 -0.4492 -0.0231
55231SOL    HW170250   4.359   8.594   3.528 -0.1705 -0.6141 -0.1479
55231SOL    HW270251   4.481   8.533   3.461 -0.8629 -2.0723 -0.1220
55232SOL     OW70252  10.044  11.214   6.161 -0.2774  0.5127 -0.4888
55232SOL    HW170253  10.085  11.133   6.132 -1.0188  0.0556 -0.2912
55232SOL    HW270254  10.026  11.200   6.254  0.7735  1.4089 -0.1300
55233SOL     OW70255   0.145   1.970   4.534  0.5520 -0.1280 -0.0372
55233SOL    HW170256   0.138   2.001   4.624  0.6638  1.5843 -0.5822
55233SOL    HW270257   0.239   1.966   4.517  0.5338  0.7025 -0.4198
55234SOL     OW70258   6.971   7.241   3.202 -0.0156  0.0567 -0.1092
55234SOL    HW170259   7.065   7.233   3.220 -0.1617  0.1716  0.7441
55234SOL    HW270260   6.948   7.157   3.162  0.1825 -0.5025  0.9249
55235SOL     OW70261   0.241  11.308   2.800  0.5393 -0.3430 -0.7697
55235SOL    HW170262   0.334  11.317   2.820  0.1141 -0.1670  1.4638
55235SOL    HW270263   0.232  11.335   2.709  2.8050 -1.3406 -1.3474
55236SOL     OW70264   5.161   0.514   6.048  0.2482 -0.5620 -0.1890
55236SOL    HW170265   5.096   0.464   6.000 -1.4159 -0.5998  1.9744
55236SOL    HW270266   5.184   0.460   6.123  0.2811  0.8473  0.8657
55237SOL     OW70267   6.101  11.139   6.214  0.6068  0.1871 -0.0200
55237SOL    HW170268   6.158  11.203   6.171 -0.6893  1.4714  0.1081
55237SOL    HW270269   6.152  11.107   6.288  2.3725 -1.0750 -1.6663
55238SOL     OW70270   6.067   6.519   9.892  0.7475  0.3377 -0.5062
55238SOL    HW170271   6.070   6.608   9.858  0.7149  1.6777  2.6100
55238SOL    HW270272   6.138   6.473   9.846  1.9994  2.5165 -0.8743
55239SOL     OW70273   5.580   7.506   0.831  0.0036 -0.0792  0.3078
55239SOL    HW170274   5.628   7.458   0.899 -2.2216 -0.3427  1.7882
55239SOL    HW270275   5.546   7.438   0.773  0.7958  0.0617 -0.3373
55240SOL     OW70276  11.741   6.119   5.783  0.1220 -0.1739 -0.8051
55240SOL    HW170277  11.738   6.200   5.732 -1.9096  0.2246 -0.1557
55240SOL    HW270278  11.683   6.059   5.736 -1.3096  0.0066  0.6256
55241SOL     OW70279   7.146   1.944   6.027 -0.2747  0.0899  0.4026
55241SOL    HW170280   7.054   1.958   6.050 -0.1485  0.2385  0.8341
55241SOL    HW270281   7.171   2.023   5.978 -0.1701  0.3946  0.9414
55242SOL     OW70282   7.490   6.903   6.293 -0.1917  0.0359  0.0422
55242SOL    HW170283   7.441   6.955   6.356  2.4715  2.6873  0.1553
55242SOL    HW270284   7.542   6.843   6.346 -0.4825 -0.1481  0.1240
55243SOL     OW70285   5.220   5.804   2.769 -0.1002  0.2603 -0.0889
55243SOL    HW170286   5.183   5.782   2.855 -1.4408  3.1651  0.2022
55243SOL    HW270287   5.148   5.789   2.707  0.9269 -2.0300 -0.8317
55244SOL     OW70288  10.885   7.548   2.868  0.2429 -0.0327 -0.6229
55244SOL    HW170289  10.921   7.504   2.945  0.1476  1.7595  0.5064
55244SOL    HW270290  10.832   7.481   2.825  1.0117 -1.3265  0.3678
55245SOL     OW70291   9.111   1.212   2.842 -0.0948  0.3185  0.1487
55245SOL    HW170292   9.169   1.205   2.918 -0.3198 -0.0250  0.2900
55245SOL    HW270293   9.058   1.289   2.859  0.2370  0.5656  0.0746
55246SOL     OW70294   7.412  11.927   7.131 -0.1177  0.8728  0.2342
55246SOL    HW170295   7.324  11.890   7.135 -0.0717  0.7597  0.1855
55246SOL    HW270296   7.435  11.943   7.223 -0.2118  0.9552  0.2429
55247SOL     OW70297   3.541   0.840  12.029  0.3390 -0.1768 -0.2918
55247SOL    HW170298   3.459   0.837  11.978  0.4787 -0.5295 -0.4984
55247SOL    HW270299   3.589   0.763  12.001 -1.3099 -2.7953  3.3277
55248SOL     OW70300   6.887   4.280   0.657 -0.0661 -0.1980  0.2152
55248SOL    HW170301   6.946   4.343   0.699  0.0747  0.0197 -0.2936
55248SOL    HW270302   6.864   4.218   0.726  0.8227 -0.3288  0.4116
55249SOL     OW70303   4.291   3.570   7.496 -0.3425  0.5494 -0.2736
55249SOL    HW170304   4.220   3.514   7.530  0.6813 -0.0732  0.9213
55249SOL    HW270305   4.296   3.642   7.558 -1.2435  1.7032 -1.4772
55250SOL     OW70306   3.437   9.059   4.466 -0.3726  0.1155  0.0732
55250SOL    HW170307   3.422   8.973   4.427  0.3112  0.5321 -1.1624
55250SOL    HW270308   3.406   9.121   4.401  2.0449  0.8693 -0.4754
55251SOL     OW70309   7.239  12.082   0.460 -0.0074  0.6492  0.2658
55251SOL    HW170310   7.305  12.151   0.463  1.4920 -0.6805 -0.1178
55251SOL    HW270311   7.223  12.059   0.551  2.9127 -1.4757  0.3974
55252SOL     OW70312   0.420  11.211   4.395  0.0887 -0.5142 -0.1642
55252SOL    HW170313   0.450  11.175   4.478  0.9290 -1.0579 -0.6756
55252SOL    HW270314   0.386  11.135   4.347 -0.6496 -0.1588 -0.2013
55253SOL     OW70315   4.257  10.891   0.007 -0.1682 -1.0651 -0.2213
55253SOL    HW170316   4.247  10.971  -0.045  2.0318 -0.4151  0.2404
55253SOL    HW270317   4.289  10.921   0.092  1.1256 -2.4361 -0.1821
55254SOL     OW70318   0.697   8.503   8.768  0.1324 -0.0774 -0.3038
55254SOL    HW170319   0.688   8.597   8.787 -0.6918 -0.6938  2.9965
55254SOL    HW270320   0.789   8.484   8.787  0.0882 -0.0728 -0.0720
55255SOL     OW70321   1.532  10.991  12.122 -0.3199 -0.0314  0.6326
55255SOL    HW170322   1.489  10.914  12.160  0.7965 -0.7178  0.5381
55255SOL    HW270323   1.463  11.058  12.121 -0.9200 -0.5669  2.0847
55256SOL     OW70324   3.468   2.447   4.401  0.1373  0.3617  0.6338
55256SOL    HW170325   3.421   2.424   4.482 -0.0835  1.3594  0.7970
55256SOL    HW270326   3.474   2.542   4.403  0.1499  0.3950 -0.5243
55257SOL     OW70327   6.515   7.257   3.226  0.3651  0.2858 -0.2996
55257SOL    HW170328   6.521   7.304   3.310  0.0564  0.4229 -0.3498
55257SOL    HW270329   6.553   7.317   3.162  0.9735  0.0119 -0.1959
55258SOL     OW70330   6.142   1.419   3.513 -0.4017 -0.6313 -0.3965
55258SOL    HW170331   6.191   1.477   3.571 -1.0144 -1.2952  0.8181
55258SOL    HW270332   6.054   1.456   3.510 -0.4496 -0.7644 -0.6761
55259SOL     OW70333   5.471   5.401   6.271  0.1039 -0.0532 -0.4053
55259SOL    HW170334   5.515   5.338   6.328 -0.2321  0.6259  0.6484
55259SOL    HW270335   5.462   5.356   6.187  2.6460 -0.2752 -0.6407
55260SOL     OW70336  11.749   1.670   8.102 -0.0351 -0.2009 -0.3104
55260SOL    HW170337  11.686   1.598   8.105  0.8334 -0.9805 -0.1990
55260SOL    HW270338  11.835   1.627   8.111  0.5208  0.8148 -0.5891
55261SOL     OW70339   3.149   0.630   9.620  0.4314 -0.0158  0.1877
55261SOL    HW170340   3.113   0.639   9.531 -1.1956  1.3904  0.9346
55261SOL    HW270341   3.206   0.707   9.630 -0.7500  0.7838  0.9416
55262SOL     OW70342   3.738  10.831   2.260 -0.0348  0.0325  0.0611
55262SOL    HW170343   3.750  10.744   2.221 -0.3875  0.0328 -0.0600
55262SOL    HW270344   3.797  10.833   2.335 -1.4876 -1.0845  1.3013
55263SOL     OW70345   4.508   5.814   8.193  0.3690 -0.2942 -0.3617
55263SOL    HW170346   4.476   5.885   8.137  0.0691  1.1373  1.5603
55263SOL    HW270347   4.586   5.850   8.234  0.9373 -1.5582 -0.2985
55264SOL     OW70348  10.487   7.257   5.051  0.4156 -0.1721 -0.3309
55264SOL    HW170349  10.425   7.221   4.988  0.6280 -0.1198 -0.5731
55264SOL    HW270350  10.549   7.306   4.997  1.7557 -1.7589 -0.3155
55265SOL     OW70351   6.172   3.579   3.550  0.2997  0.1264 -0.5126
55265SOL    HW170352   6.185   3.489   3.581 -0.6645  0.3079  0.4861
55265SOL    HW270353   6.144   3.570   3.459 -0.5995 -0.6446 -0.1771
55266SOL     OW70354  11.856  10.533   2.469  0.1401  0.3183  0.4221
55266SOL    HW170355  11.923  10.465   2.459  0.5057  0.9536 -2.0563
55266SOL    HW270356  11.901  10.614   2.449 -0.2105  1.4761  3.6723
55267SOL     OW70357   1.790   5.444   8.214  0.3218  0.5316  0.0279
55267SOL    HW170358   1.872   5.469   8.171  0.1461  0.3222 -0.4322
55267SOL    HW270359   1.794   5.349   8.220  0.4302  0.5696  0.6574
55268SOL     OW70360  11.640   8.740   8.327 -0.3007  0.5866 -0.1642
55268SOL    HW170361  11.642   8.661   8.381 -0.4372  0.8196  0.1885
55268SOL    HW270362  11.677   8.713   8.243 -2.9240 -0.6094 -1.0630
55269SOL     OW70363   5.183   4.195   6.449 -0.2594  0.5489 -0.1125
55269SOL    HW170364   5.183   4.286   6.479 -1.2057  0.1693  1.1276
55269SOL    HW270365   5.242   4.150   6.510 -0.9801  0.0589  0.2349
55270SOL     OW70366   6.299   4.626   6.104  0.3787 -0.5177  0.5984
55270SOL    HW170367   6.275   4.542   6.143  0.7995 -0.7456  0.3686
55270SOL    HW270368   6.372   4.657   6.158 -0.4971  0.2536  1.4007
55271SOL     OW70369   4.469   9.723   0.931  1.1336  0.3359  0.3872
55271SOL    HW170370   4.448   9.812   0.903 -0.9461  0.0722  0.8969
55271SOL    HW270371   4.429   9.667   0.864  2.2796 -0.2370  0.1558
55272SOL     OW70372  11.559   1.185  11.575  0.1108  0.9131 -0.3892
55272SOL    HW170373  11.471   1.184  11.538  0.4655  1.1088 -1.2686
55272SOL    HW270374  11.604   1.112  11.533 -0.1748 -0.3979  1.4842
55273SOL     OW70375   8.248   7.394   5.992 -0.4193  0.0726 -0.2203
55273SOL    HW170376   8.275   7.474   6.038 -2.9524  1.2173 -0.5231
55273SOL    HW270377   8.323   7.370   5.939  1.3842  0.6684  1.9198
55274SOL     OW70378   2.781   2.117   7.816 -0.1833  0.0474 -0.2276
55274SOL    HW170379   2.712   2.141   7.755 -2.3673 -0.6731  1.7926
55274SOL    HW270380   2.852   2.179   7.799 -2.3392  2.5413 -0.6909
55275SOL     OW70381   7.692   9.222   6.846 -0.2324  0.0233 -0.3084
55275SOL    HW170382   7.597   9.228   6.854 -0.1851 -0.2399  0.5763
55275SOL    HW270383   7.714   9.137   6.884  0.1879 -0.7709 -2.1829
55276SOL     OW70384  11.663  11.608   6.274  0.2425  0.3068  0.2501
55276SOL    HW170385  11.625  11.696   6.267  1.3668  0.6832 -1.6392
55276SOL    HW270386  11.611  11.566   6.343 -2.2148  1.4668 -0.7652
55277SOL     OW70387   2.545   1.364   1.136  0.6896 -0.5719  0.0362
55277SOL    HW170388   2.629   1.347   1.093  0.6861 -1.2811  0.2993
55277SOL    HW270389   2.508   1.436   1.086  1.8847  0.4131  0.5265
55278SOL     OW70390   0.840   3.040   5.547 -0.2816  0.0951  0.1290
55278SOL    HW170391   0.877   3.128   5.543  2.0611 -0.8582 -2.9408
55278SOL    HW270392   0.903   2.990   5.599 -0.0060 -0.3943 -0.6649
55279SOL     OW70393   7.509   4.938  11.833 -0.2269  0.2932 -0.0695
55279SOL    HW170394   7.498   5.007  11.768 -1.7901 -1.0967 -1.3811
55279SOL    HW270395   7.440   4.875  11.814  1.9409 -2.3559  0.1154
55280SOL     OW70396   0.130  11.916   4.357  0.2433  0.1228 -0.1969
55280SOL    HW170397   0.046  11.949   4.387 -0.4457 -0.9605 -0.8403
55280SOL    HW270398   0.174  11.886   4.436  0.0819  0.8062  0.1548
55281SOL     OW70399   3.319   7.701   9.368 -0.1791  0.2880  0.4045
55281SOL    HW170400   3.272   7.780   9.342  0.6013  0.7638  0.4084
55281SOL    HW270401   3.337   7.713   9.461 -1.1047 -0.4471  0.6928
55282SOL     OW70402   4.918   7.483   5.294  0.6182  0.1236 -0.2034
55282SOL    HW170403   4.904   7.576   5.313 -0.7123  0.1159 -1.0394
55282SOL    HW270404   4.988   7.457   5.354 -0.0070  1.3006  1.0946
55283SOL     OW70405  11.750   9.063   2.972 -0.2599 -0.2175 -0.6741
55283SOL    HW170406  11.673   9.118   2.983  0.4755  0.5234  1.2321
55283SOL    HW270407  11.718   8.974   2.985 -1.4011 -0.2903 -3.4612
55284SOL     OW70408   7.309   7.683   6.317 -0.3564  0.0780 -0.7599
55284SOL    HW170409   7.237   7.738   6.346  1.2589  1.7238  0.2841
55284SOL    HW270410   7.303   7.604   6.372 -0.9607  0.4908 -0.2286
55285SOL     OW70411  10.713   0.053   6.348  0.2657 -0.4675  0.4560
55285SOL    HW170412  10.753   0.024   6.266  0.9495 -0.9864  0.9698
55285SOL    HW270413  10.695   0.146   6.334  3.3440  0.2769  0.8577
55286SOL     OW70414   8.944   8.089   8.325 -0.3630  0.5557 -0.2475
55286SOL    HW170415   9.004   8.150   8.281  1.4384  0.0278  1.3457
55286SOL    HW270416   8.946   8.010   8.272  0.5890  0.4403 -0.0386
55287SOL     OW70417   7.025   6.600   6.880  0.1992  0.2547 -0.2970
55287SOL    HW170418   7.016   6.558   6.966 -0.9330 -0.6954 -0.8432
55287SOL    HW270419   7.013   6.693   6.898 -2.5772 -0.1288  0.3146
55288SOL     OW70420   4.717   9.564   8.961  0.3295  0.4202 -0.5318
55288SOL    HW170421   4.783   9.509   9.003 -0.8155  1.0445  2.2853
55288SOL    HW270422   4.697   9.519   8.879  2.2299 -1.2355 -0.1668
55289SOL     OW70423  10.607  11.385  10.646  0.2231  0.1197  0.5548
55289SOL    HW170424  10.649  11.301  10.668  1.4157  0.5031 -0.1893
55289SOL    HW270425  10.594  11.381  10.551 -0.9194  0.2590  0.6881
55290SOL     OW70426   6.629   0.207   4.264  0.5516  0.3451  0.3848
55290SOL    HW170427   6.679   0.148   4.320  1.2590  1.5448  1.0496
55290SOL    HW270428   6.558   0.239   4.320 -1.2527 -1.5589 -0.6226
55291SOL     OW70429   9.042   0.493   2.287  0.2809 -0.2086 -0.1465
55291SOL    HW170430   8.993   0.469   2.208 -1.5918 -1.5895  1.3353
55291SOL    HW270431   8.990   0.562   2.328 -0.0307 -1.1375  1.0600
55292SOL     OW70432   2.236  10.311   8.209  0.0875  0.8355  0.2125
55292SOL    HW170433   2.275  10.395   8.184 -0.1493  0.4982 -1.4216
55292SOL    HW270434   2.303  10.247   8.187 -0.2653  0.4935  0.1329
55293SOL     OW70435  10.757   2.646  11.517 -0.3853  0.1292  0.1174
55293SOL    HW170436  10.752   2.735  11.551 -1.1936  0.3595 -0.5626
55293SOL    HW270437  10.678   2.603  11.551 -0.3849 -0.0989 -0.1689
55294SOL     OW70438   5.402   1.920   8.012  0.1179  0.8423  0.6063
55294SOL    HW170439   5.368   1.839   8.050 -0.1194  0.3216 -0.6622
55294SOL    HW270440   5.467   1.891   7.948  1.7152  1.7594  1.7589
55295SOL     OW70441   2.228   6.096   7.408 -0.1100  0.0581 -0.3017
55295SOL    HW170442   2.267   6.112   7.494  0.5474 -2.5126 -0.0554
55295SOL    HW270443   2.178   6.176   7.389  0.5079  1.0665  2.0168
55296SOL     OW70444   9.238   1.645   2.522  0.0843  0.0242 -0.4509
55296SOL    HW170445   9.193   1.672   2.602  2.6675 -1.0808  1.5095
55296SOL    HW270446   9.205   1.557   2.504  0.1849 -0.1012 -0.0353
55297SOL     OW70447   0.034  11.225   4.728  0.1417 -0.3063  0.1095
55297SOL    HW170448  -0.032  11.292   4.749 -0.4257 -1.0957  0.9693
55297SOL    HW270449   0.109  11.247   4.783  0.2325  0.0361 -0.1499
55298SOL     OW70450   1.370   9.763   8.505 -0.1505 -0.1972 -0.6116
55298SOL    HW170451   1.296   9.773   8.565 -0.3104 -0.2793 -0.7946
55298SOL    HW270452   1.385   9.851   8.469 -0.0242 -0.1389 -0.4181
55299SOL     OW70453   6.021   6.584  10.950  0.4605 -0.4158  0.2781
55299SOL    HW170454   5.955   6.626  10.895  0.7909  0.4253  0.4945
55299SOL    HW270455   5.972   6.523  11.005 -0.0956 -0.0220  0.2241
55300SOL     OW70456   5.360   9.872   2.985 -0.4228 -0.0760 -0.0211
55300SOL    HW170457   5.323   9.957   3.008 -1.0219  0.3170 -2.1655
55300SOL    HW270458   5.434   9.892   2.928 -0.4499 -0.9687 -0.3994
55301SOL     OW70459   3.935   5.867   3.903  0.3097  0.0885  0.1492
55301SOL    HW170460   3.855   5.910   3.936 -0.1943 -0.4778 -0.3110
55301SOL    HW270461   3.990   5.856   3.981 -0.7547 -1.0008  0.7828
55302SOL     OW70462   2.680   8.421   8.281  0.3818  0.3760 -0.2177
55302SOL    HW170463   2.640   8.428   8.194  0.4773 -4.6096 -0.9115
55302SOL    HW270464   2.611   8.383   8.336  1.2022  0.8447  1.1844
55303SOL     OW70465   3.144   3.190   9.321 -0.0117  0.1467  0.2299
55303SOL    HW170466   3.052   3.169   9.337 -0.1617 -0.0425 -0.8193
55303SOL    HW270467   3.184   3.190   9.408 -1.1033  0.7274  0.7472
55304SOL     OW70468   2.289   6.035   5.250  0.4472  0.3314  0.3154
55304SOL    HW170469   2.208   6.030   5.301  0.7195  0.0737  0.7324
55304SOL    HW270470   2.281   5.964   5.186 -0.1254  0.9854 -0.3522
55305SOL     OW70471   9.482  10.941   9.997  0.1647  0.5828  0.0265
55305SOL    HW170472   9.547  10.873  10.013  0.9241  0.9134 -1.4623
55305SOL    HW270473   9.398  10.899  10.014  0.6140 -0.8105 -1.0734
55306SOL     OW70474   5.345   4.391   2.705 -0.4639  0.2997 -0.1302
55306SOL    HW170475   5.352   4.478   2.744  0.4932  0.3176 -0.3184
55306SOL    HW270476   5.416   4.387   2.641 -1.5554  0.0037 -1.3849
55307SOL     OW70477   5.786   2.145   7.751 -0.1814  0.0330  0.5486
55307SOL    HW170478   5.853   2.163   7.685 -0.1767  0.4464  0.6607
55307SOL    HW270479   5.784   2.225   7.805 -1.4046  0.3835  0.0071
55308SOL     OW70480   0.939   4.384   8.309  0.7907 -0.3037 -0.3562
55308SOL    HW170481   0.968   4.413   8.395  0.3061 -1.0078  0.0491
55308SOL    HW270482   0.898   4.299   8.324 -0.4888  0.1539 -1.0638
55309SOL     OW70483  11.376   8.378   6.499 -0.6350 -0.5363  0.2090
55309SOL    HW170484  11.295   8.329   6.484 -1.7483  0.7698  1.5850
55309SOL    HW270485  11.446   8.314   6.489 -1.7898 -1.5985 -1.5313
55310SOL     OW70486   6.187  10.286   9.009 -0.3578  0.5414 -0.0350
55310SOL    HW170487   6.270  10.245   9.035 -0.5067  0.2577 -0.0103
55310SOL    HW270488   6.190  10.288   8.914 -0.6261 -0.0941 -0.0573
55311SOL     OW70489   9.620   5.318   7.692 -1.0986 -0.1377 -0.1848
55311SOL    HW170490   9.708   5.312   7.729 -1.1467 -0.9477 -0.1833
55311SOL    HW270491   9.633   5.357   7.606 -0.5628 -1.4300 -0.7270
55312SOL     OW70492   6.691   2.473   8.132  0.5317  0.0929 -0.6176
55312SOL    HW170493   6.688   2.381   8.106  2.1774 -1.0915  2.7011
55312SOL    HW270494   6.773   2.505   8.095  0.4644 -0.1129 -0.9462
55313SOL     OW70495   4.010   9.154   5.478  0.1808 -0.0409  0.5273
55313SOL    HW170496   4.101   9.146   5.449  0.7332 -0.3366  2.2218
55313SOL    HW270497   3.959   9.112   5.409  1.3474 -0.1058 -0.3296
55314SOL     OW70498   9.852  12.077   9.124 -0.2302 -0.4634  0.1918
55314SOL    HW170499   9.860  12.032   9.040  0.2622  0.4804 -0.2837
55314SOL    HW270500   9.829  12.008   9.186  1.6300 -1.6043 -0.2871
55315SOL     OW70501   1.009   7.569   8.858 -0.0663  0.1496  0.0747
55315SOL    HW170502   1.003   7.636   8.926  0.7229 -0.8773  1.1930
55315SOL    HW270503   1.087   7.592   8.808 -1.2522  1.5473 -1.2674
55316SOL     OW70504  10.703   0.024   5.220  0.0326 -0.0537  0.0606
55316SOL    HW170505  10.668   0.032   5.132 -1.7767  1.8039  0.8488
55316SOL    HW270506  10.726   0.114   5.245  1.5371 -0.6843  1.1114
55317SOL     OW70507   6.959   4.423  11.363  0.6580 -0.5249 -0.1191
55317SOL    HW170508   6.918   4.406  11.448  0.5648 -2.3746 -0.4900
55317SOL    HW270509   7.021   4.350  11.352  0.4635 -0.4734 -1.7514
55318SOL     OW70510   9.169   3.550   3.014  0.4072  0.3075 -0.1883
55318SOL    HW170511   9.217   3.484   3.064 -0.0080 -0.7351 -1.0935
55318SOL    HW270512   9.100   3.579   3.073 -0.6158 -1.5354 -0.3921
55319SOL     OW70513   4.393   0.565   0.006 -0.0335  0.4358  0.9161
55319SOL    HW170514   4.327   0.502   0.033  1.3591 -1.7618 -0.4502
55319SOL    HW270515   4.362   0.596  -0.080  0.2552  0.1117  0.6954
55320SOL     OW70516  11.600   3.922   2.075  0.3047 -0.6992  0.9704
55320SOL    HW170517  11.506   3.935   2.083 -0.1358 -0.7616 -2.5857
55320SOL    HW270518  11.638   3.999   2.117 -1.5116  1.1707 -0.6088
55321SOL     OW70519   9.212  10.953   1.589  0.2648 -0.3456  0.4170
55321SOL    HW170520   9.162  11.019   1.635 -0.2432  0.2930 -0.9992
55321SOL    HW270521   9.237  10.890   1.657 -0.2831  0.6435  1.5721
55322SOL     OW70522   2.242   3.192   9.158  0.0875  0.7008 -0.0955
55322SOL    HW170523   2.316   3.221   9.211 -0.6031  0.2896  1.1505
55322SOL    HW270524   2.207   3.272   9.119  0.0668  1.1571  0.8239
55323SOL     OW70525   7.621   1.940  10.438  0.0327  0.6606 -0.4310
55323SOL    HW170526   7.615   1.923  10.344  0.9573  0.1024 -0.3984
55323SOL    HW270527   7.547   1.998  10.457 -0.6157  0.1488 -1.3581
55324SOL     OW70528   5.030   1.064   4.849 -0.0386  0.3165 -0.0208
55324SOL    HW170529   5.061   1.091   4.936  1.7854 -1.7865  0.0756
55324SOL    HW270530   5.079   1.119   4.788  0.4039  0.2232  0.2415
55325SOL     OW70531   5.285  10.120  11.492 -0.2445  0.2974 -0.1540
55325SOL    HW170532   5.259  10.203  11.532  0.1135  0.3700 -0.0647
55325SOL    HW270533   5.378  10.112  11.514 -0.3014 -0.1749 -0.0750
55326SOL     OW70534  11.805   7.286   3.875  0.3505  0.4713  0.2510
55326SOL    HW170535  11.874   7.256   3.815 -0.3073 -0.2742 -0.1538
55326SOL    HW270536  11.737   7.322   3.818  0.0433  0.4405  0.5957
55327SOL     OW70537   0.177   0.957   8.733  0.5223 -0.2238  0.1979
55327SOL    HW170538   0.146   0.874   8.769 -1.5963  0.5678  0.3928
55327SOL    HW270539   0.157   0.951   8.640  0.7197 -0.0927  0.1479
55328SOL     OW70540   7.300   3.397   3.446 -0.7099  0.3031 -0.1522
55328SOL    HW170541   7.274   3.311   3.480 -0.3580  0.2807  0.0597
55328SOL    HW270542   7.353   3.377   3.369 -2.4962  0.3691 -1.4525
55329SOL     OW70543   5.335   3.656   3.650 -0.1445 -0.1233  0.2071
55329SOL    HW170544   5.393   3.704   3.592 -1.5648 -0.6063 -1.7094
55329SOL    HW270545   5.393   3.599   3.701  1.2501  1.2957  0.2584
55330SOL     OW70546   5.840   4.907   0.034  0.0971  0.2527 -0.7893
55330SOL    HW170547   5.809   4.892  -0.055  0.6643 -1.1396 -0.7684
55330SOL    HW270548   5.918   4.961   0.023 -0.4615  1.0344 -1.0452
55331SOL     OW70549   5.542  10.169   3.602 -0.6508  0.3879  1.0571
55331SOL    HW170550   5.573  10.193   3.689 -2.0141 -0.7685  1.8979
55331SOL    HW270551   5.601  10.214   3.542  0.1421  1.4323  2.5736
55332SOL     OW70552   4.645   3.409  10.303  0.4485 -0.2703 -0.1665
55332SOL    HW170553   4.729   3.395  10.347 -0.2434 -1.8548  0.7435
55332SOL    HW270554   4.658   3.487  10.250  3.0267 -1.3506 -1.3161
55333SOL     OW70555   7.318  11.048   2.484 -1.2257 -0.3870  0.0038
55333SOL    HW170556   7.299  10.959   2.457 -1.5556 -0.2502 -0.2125
55333SOL    HW270557   7.299  11.050   2.578 -1.4391 -0.4799 -0.0386
55334SOL     OW70558   3.385   0.510   9.972  0.0171 -0.0745 -0.0429
55334SOL    HW170559   3.336   0.457   9.909 -0.0698  1.3867 -1.2634
55334SOL    HW270560   3.476   0.492   9.953 -0.0011 -0.7878  0.4715
55335SOL     OW70561   7.752   9.335   2.912  0.5023  0.4506  0.9329
55335SOL    HW170562   7.703   9.269   2.863  1.4311  1.2500 -1.1870
55335SOL    HW270563   7.684   9.390   2.952 -0.2804 -0.5023  0.9611
55336SOL     OW70564   4.808   6.446   3.963  0.0134  0.1583 -0.3089
55336SOL    HW170565   4.823   6.400   3.880  0.7122 -0.1081 -0.0403
55336SOL    HW270566   4.796   6.377   4.027 -0.9601  0.3668 -0.2520
55337SOL     OW70567  10.682   6.800   6.457 -0.0319 -0.0215  0.0346
55337SOL    HW170568  10.632   6.838   6.529 -2.4138 -0.0114 -1.4937
55337SOL    HW270569  10.752   6.751   6.499 -1.2552  0.0778  2.3328
55338SOL     OW70570   8.719   9.459  12.104 -0.3254  0.3749 -0.1772
55338SOL    HW170571   8.716   9.433  12.196  0.8243  2.3787  0.4766
55338SOL    HW270572   8.691   9.380  12.057  0.8049 -1.3160  1.7665
55339SOL     OW70573   9.554   6.448   3.595 -0.3161  0.4222 -0.1508
55339SOL    HW170574   9.485   6.401   3.642 -0.2027  0.7398  0.3471
55339SOL    HW270575   9.602   6.494   3.664  0.0652  0.6249 -0.5491
55340SOL     OW70576   6.124  11.388   7.026 -0.1099 -0.2669  0.7763
55340SOL    HW170577   6.171  11.336   7.091 -0.9378 -1.1218  0.7041
55340SOL    HW270578   6.036  11.350   7.024  0.3556 -1.3914 -2.0901
55341SOL     OW70579   1.653   3.077   8.983  0.0817 -0.3471 -0.2435
55341SOL    HW170580   1.643   3.172   8.978 -1.7304 -0.4987 -0.0837
55341SOL    HW270581   1.691   3.052   8.898 -2.0191  0.2631 -1.4425
55342SOL     OW70582   6.106   4.916   4.832 -0.6160 -0.2135 -0.2204
55342SOL    HW170583   6.192   4.899   4.872 -0.7926  1.1780  0.7922
55342SOL    HW270584   6.053   4.840   4.857 -0.4737  0.2116  1.5097
55343SOL     OW70585  11.606   6.535   9.880 -0.1226  0.0121 -0.1557
55343SOL    HW170586  11.517   6.510   9.856 -0.0776 -1.2073  0.8429
55343SOL    HW270587  11.595   6.606   9.945 -0.4842 -1.5842  1.6202
55344SOL     OW70588   2.844   9.647   2.518  0.5269 -0.2789  0.9755
55344SOL    HW170589   2.805   9.725   2.558  0.4154 -1.8450  4.2546
55344SOL    HW270590   2.930   9.638   2.561  0.3036 -2.2294  1.1154
55345SOL     OW70591   1.433   9.199  11.970 -0.5907 -0.4384 -0.6982
55345SOL    HW170592   1.402   9.252  11.897 -1.2921 -0.2251 -0.2555
55345SOL    HW270593   1.488   9.132  11.929 -0.3045  0.1742 -1.3345
55346SOL     OW70594   5.720   4.112   5.449 -0.1615 -0.4056 -0.2304
55346SOL    HW170595   5.645   4.171   5.450 -0.4530 -0.7587  1.3519
55346SOL    HW270596   5.691   4.035   5.498  1.6372  0.0033  1.5944
55347SOL     OW70597   7.124   9.415   4.400  0.0050 -0.3360  0.1649
55347SOL    HW170598   7.116   9.391   4.492  1.8982 -0.3732  0.3632
55347SOL    HW270599   7.201   9.472   4.397  0.7131 -1.2986 -1.5375
55348SOL     OW70600   4.947  10.226   5.248  0.0724 -0.4473 -0.5947
55348SOL    HW170601   5.016  10.261   5.303 -0.1145 -0.4928 -0.3300
55348SOL    HW270602   4.927  10.296   5.186  0.9946 -0.7688 -1.2674
55349SOL     OW70603   5.545  10.061   6.981 -0.0845 -0.1780  0.0671
55349SOL    HW170604   5.581  10.147   7.001 -0.5660  0.2819 -0.9335
55349SOL    HW270605   5.545  10.014   7.064  0.1621  0.7981  0.6284
55350SOL     OW70606   6.266   9.186   9.695 -0.2427 -0.8481 -0.2611
55350SOL    HW170607   6.171   9.195   9.697 -0.1661 -0.0356  0.8751
55350SOL    HW270608   6.297   9.271   9.663  0.1517 -0.3610  1.3163
55351SOL     OW70609   5.361   4.516  10.252 -0.5206  0.6322 -0.0008
55351SOL    HW170610   5.356   4.606  10.283 -2.0564  0.7602 -0.5616
55351SOL    HW270611   5.444   4.511  10.204 -0.3232  1.6718  0.2187
55352SOL     OW70612   8.673   5.966   1.053 -0.3099  0.5085 -0.5450
55352SOL    HW170613   8.767   5.959   1.032  0.0145 -0.3343  1.0313
55352SOL    HW270614   8.664   5.919   1.136 -1.4178  3.7632  1.3628
55353SOL     OW70615   6.258  12.080   3.808 -0.1453  1.0232  0.5071
55353SOL    HW170616   6.212  12.063   3.726 -1.2961  0.9471  1.1381
55353SOL    HW270617   6.298  11.996   3.831  3.1532  1.8202 -1.6628
55354SOL     OW70618   6.586   0.310   2.771 -0.3219  0.1427 -0.0944
55354SOL    HW170619   6.504   0.330   2.726  0.1087  0.3237 -0.8172
55354SOL    HW270620   6.651   0.302   2.701  0.8112  2.4958  0.5743
55355SOL     OW70621   9.820  11.109   8.636  0.6668 -0.3435  0.0050
55355SOL    HW170622   9.740  11.081   8.592  0.0490 -0.5957  1.2606
55355SOL    HW270623   9.826  11.203   8.615  1.0370 -0.6830 -1.5695
55356SOL     OW70624  10.804   4.922   6.464  0.5849 -0.0089  0.1815
55356SOL    HW170625  10.806   4.945   6.372  2.8025 -2.5890 -0.5629
55356SOL    HW270626  10.720   4.877   6.476  0.4149  0.0645 -0.6787
55357SOL     OW70627   7.642   9.827   4.854  0.3141 -0.0208 -0.7114
55357SOL    HW170628   7.710   9.816   4.788 -0.7215 -2.5201 -1.5185
55357SOL    HW270629   7.567   9.779   4.819 -0.2125 -1.7167  2.3537
55358SOL     OW70630   5.857   7.584   8.916  0.0389  0.1208  0.0567
55358SOL    HW170631   5.802   7.523   8.966  1.4793 -1.0051  0.3313
55358SOL    HW270632   5.808   7.599   8.835 -0.9591 -0.3659  0.5484
55359SOL     OW70633   5.580   8.657   1.501 -0.3379  0.1467 -0.0212
55359SOL    HW170634   5.613   8.730   1.552 -0.1944  1.3413 -1.7313
55359SOL    HW270635   5.652   8.594   1.499  0.0430  0.5716  0.3279
55360SOL     OW70636   0.799   6.268   1.562  0.1750  0.1842  0.6164
55360SOL    HW170637   0.709   6.253   1.591  0.5252 -0.6466  1.3052
55360SOL    HW270638   0.819   6.357   1.592 -0.7753  0.8197 -0.5285
55361SOL     OW70639   1.773   0.972   5.659  0.4191  0.2251  0.1058
55361SOL    HW170640   1.729   0.913   5.720 -0.8866  0.8576 -0.1903
55361SOL    HW270641   1.822   0.913   5.601  0.4969 -0.4614  0.8417
55362SOL     OW70642   6.097   5.002   8.653 -0.0151 -0.4165 -0.1422
55362SOL    HW170643   6.102   4.960   8.568  1.5604 -0.5742  0.0030
55362SOL    HW270644   6.188   5.023   8.676 -0.3442 -0.7470  1.6764
55363SOL     OW70645   9.511   8.811   2.580  0.9495 -0.2429 -1.0645
55363SOL    HW170646   9.452   8.760   2.524 -0.0674  1.0634 -1.2260
55363SOL    HW270647   9.490   8.902   2.560  2.1110  0.2540 -0.1358
55364SOL     OW70648  10.684  12.084  11.208 -0.1426 -0.2754  0.1081
55364SOL    HW170649  10.735  12.025  11.264  0.3011 -2.0769 -2.0728
55364SOL    HW270650  10.603  12.036  11.190 -0.8014  0.7919  0.1119
55365SOL     OW70651   1.071  10.646   3.386  0.1232  0.5006 -0.7319
55365SOL    HW170652   0.999  10.598   3.427  0.0784 -0.6970 -2.1155
55365SOL    HW270653   1.117  10.581   3.334  1.7119  1.4311 -0.5724
55366SOL     OW70654   3.809   3.834   7.209  0.1793 -0.0304  0.7099
55366SOL    HW170655   3.751   3.839   7.285 -1.0893 -0.5719 -0.1921
55366SOL    HW270656   3.897   3.838   7.247 -0.4062 -0.4718  2.2236
55367SOL     OW70657  10.892   4.498   9.155  0.6271 -0.4407  0.1384
55367SOL    HW170658  10.810   4.474   9.112  1.7282  0.8519 -2.9691
55367SOL    HW270659  10.898   4.593   9.143  2.4051 -0.4548  0.6493
55368SOL     OW70660   0.070   1.856   5.832  0.0078 -0.4558  0.0786
55368SOL    HW170661   0.079   1.942   5.871 -1.6905  0.5160 -1.5019
55368SOL    HW270662  -0.017   1.857   5.790  0.8865 -2.0765 -1.9966
55369SOL     OW70663   9.504  11.639   5.784 -0.0878  0.6604 -0.0383
55369SOL    HW170664   9.560  11.597   5.719 -0.0625 -0.3832  0.6375
55369SOL    HW270665   9.437  11.685   5.732 -0.8426 -1.2237 -0.8011
55370SOL     OW70666   7.861   8.858   3.525  0.0912 -0.3165 -0.2518
55370SOL    HW170667   7.816   8.917   3.466  1.6925  1.3408  0.1049
55370SOL    HW270668   7.930   8.818   3.472  1.2945  0.8936  0.3622
55371SOL     OW70669   2.734  11.515   5.222  0.1456 -0.3546  0.0503
55371SOL    HW170670   2.758  11.424   5.204 -0.1942  0.1250 -3.5846
55371SOL    HW270671   2.639  11.517   5.211  0.3291  0.6974 -1.9458
55372SOL     OW70672   8.383  10.855   8.587 -0.2143  0.4189 -0.7427
55372SOL    HW170673   8.326  10.903   8.647 -1.3415 -0.5789 -0.9753
55372SOL    HW270674   8.413  10.780   8.638  2.0985  1.6513 -0.1535
55373SOL     OW70675   7.898   1.637   8.699 -0.1509 -0.3836 -0.5986
55373SOL    HW170676   7.884   1.659   8.791  1.6542  0.6173 -0.5239
55373SOL    HW270677   7.874   1.544   8.693 -1.0039 -0.2762  0.6947
55374SOL     OW70678   0.161   3.814   8.547  0.3110 -0.8516  0.4727
55374SOL    HW170679   0.249   3.793   8.516  1.0364  0.8885  1.1927
55374SOL    HW270680   0.127   3.876   8.483  1.0304  1.1870  1.9647
55375SOL     OW70681   5.422  11.601   3.081 -0.2421 -0.1122 -0.0903
55375SOL    HW170682   5.442  11.581   2.989 -1.0286  1.4812 -0.6463
55375SOL    HW270683   5.419  11.515   3.123 -0.2376 -0.9196 -1.6317
55376SOL     OW70684  10.254   3.142   7.039  0.4186 -0.6383  0.4831
55376SOL    HW170685  10.231   3.094   7.119  1.4621 -0.8682  0.6649
55376SOL    HW270686  10.258   3.233   7.067  0.5658 -0.6933  0.6481
55377SOL     OW70687  10.085   2.509   5.601 -0.0375  0.3897  0.2965
55377SOL    HW170688  10.153   2.574   5.585  2.4891 -2.0776  0.3177
55377SOL    HW270689  10.003   2.560   5.604  1.6453  3.3731 -0.6271
55378SOL     OW70690   6.361   6.087   2.526 -0.4067 -0.2022 -0.0136
55378SOL    HW170691   6.283   6.087   2.581  0.4671 -0.7350  1.2735
55378SOL    HW270692   6.378   5.994   2.509 -0.3891 -0.0601 -0.7910
55379SOL     OW70693   3.931   4.189   4.953 -0.0300  0.0074 -0.0430
55379SOL    HW170694   3.982   4.133   4.895 -0.6736  1.2841 -1.9140
55379SOL    HW270695   3.848   4.142   4.963  1.0190 -1.5792  2.2065
55380SOL     OW70696   9.624   0.099   5.633  0.5663 -0.4127 -0.1716
55380SOL    HW170697   9.679   0.082   5.557  0.3002 -1.0504 -0.2326
55380SOL    HW270698   9.549   0.147   5.599  0.7711 -0.1026 -0.1927
55381SOL     OW70699   0.869  10.351   3.469 -0.0679 -0.0726 -0.0266
55381SOL    HW170700   0.954  10.358   3.512 -0.5705  0.3638  0.9167
55381SOL    HW270701   0.822  10.284   3.517 -0.0024 -0.8507 -1.0149
55382SOL     OW70702   4.848   4.417   1.919  0.2494 -0.3915 -0.1425
55382SOL    HW170703   4.773   4.373   1.878 -0.4768 -0.8371  1.5582
55382SOL    HW270704   4.838   4.509   1.893 -1.4195 -0.2811  0.7297
55383SOL     OW70705   5.492   8.164   3.976 -0.1219 -0.2512 -0.3708
55383SOL    HW170706   5.581   8.183   3.946  0.6552 -2.9193 -0.0300
55383SOL    HW270707   5.445   8.139   3.897 -0.4602  0.6775 -0.4769
55384SOL     OW70708  11.843   8.739   1.813 -0.2467  0.2065 -0.0476
55384SOL    HW170709  11.933   8.730   1.780 -0.5571 -1.2923 -0.5409
55384SOL    HW270710  11.841   8.686   1.893 -0.7083  0.1728 -0.0803
55385SOL     OW70711  10.658   7.228   3.778  0.4445 -0.0219  0.4341
55385SOL    HW170712  10.625   7.141   3.802 -0.3087  0.5329  1.5052
55385SOL    HW270713  10.668   7.274   3.861 -1.5654  1.7547 -0.2002
55386SOL     OW70714   9.515   8.146   8.304  0.0081 -0.5182  0.0406
55386SOL    HW170715   9.467   8.131   8.223 -0.3670 -1.6018  0.4423
55386SOL    HW270716   9.607   8.148   8.278 -0.1990  3.3152 -1.0143
55387SOL     OW70717   5.543   4.510   0.192 -0.2609 -0.2344  0.5514
55387SOL    HW170718   5.635   4.486   0.195  0.1100  0.8916 -0.7258
55387SOL    HW270719   5.542   4.597   0.152 -1.5746  1.5993  4.0996
55388SOL     OW70720   1.316   8.229   8.963  0.2942 -0.8199 -0.2196
55388SOL    HW170721   1.358   8.310   8.994 -0.9397  0.1782 -1.0557
55388SOL    HW270722   1.378   8.160   8.987  0.5925  0.1423  2.0951
55389SOL     OW70723   2.041   9.971   5.101 -0.0398 -0.0798 -0.0704
55389SOL    HW170724   2.090  10.043   5.141  0.7930 -1.5429  1.6548
55389SOL    HW270725   1.962  10.012   5.067  0.4174  1.6612  0.8546
55390SOL     OW70726   5.627   8.730   7.983  0.1098 -0.2110 -0.1449
55390SOL    HW170727   5.552   8.685   7.944  1.2168 -1.4944 -0.8535
55390SOL    HW270728   5.621   8.710   8.076  0.1269 -1.1678 -0.3410
55391SOL     OW70729  12.124   7.380   0.409 -0.2939 -0.4759 -0.0798
55391SOL    HW170730  12.051   7.441   0.423 -0.1494 -0.6482  1.6685
55391SOL    HW270731  12.081   7.295   0.399 -0.4088 -0.3511 -0.6502
55392SOL     OW70732  11.249   8.491  11.988  0.5754 -0.1893 -0.0924
55392SOL    HW170733  11.163   8.509  12.025  1.5903  1.1342  1.7704
55392SOL    HW270734  11.262   8.560  11.923  1.3554  1.4301  1.6874
55393SOL     OW70735   4.882   4.936   5.193 -0.2790  0.1804  0.6990
55393SOL    HW170736   4.815   4.895   5.247 -0.3981 -1.7514 -0.8186
55393SOL    HW270737   4.834   4.968   5.116  0.4385 -0.7064 -0.1295
55394SOL     OW70738   2.500   8.428   2.379  0.3058  0.0621 -0.6119
55394SOL    HW170739   2.455   8.447   2.297 -0.9272  0.0827  0.0528
55394SOL    HW270740   2.433   8.390   2.436  1.0786  0.2639  0.4757
55395SOL     OW70741   2.061   3.655   4.143  0.4820  0.1574 -0.1017
55395SOL    HW170742   2.001   3.712   4.095  1.9206  1.3002 -0.6202
55395SOL    HW270743   2.097   3.596   4.077 -0.7586 -1.2031  0.3787
55396SOL     OW70744   1.047   4.619   5.450 -0.4008  0.6398  0.3162
55396SOL    HW170745   0.956   4.594   5.465 -0.7049  1.3684 -0.2495
55396SOL    HW270746   1.043   4.686   5.381  0.8819 -2.5198 -3.1831
55397SOL     OW70747   5.506   6.028   4.039  0.0578 -0.0695 -0.4065
55397SOL    HW170748   5.536   6.021   4.130 -1.6294 -0.9029  0.1363
55397SOL    HW270749   5.566   6.089   3.998 -0.4023  2.0348  1.8543
55398SOL     OW70750   6.726   9.146   7.186  0.6322  0.4011  0.2248
55398SOL    HW170751   6.729   9.189   7.272 -0.4419  0.4197  0.2715
55398SOL    HW270752   6.641   9.102   7.184  2.7184 -4.3656  1.4053
55399SOL     OW70753  11.663   9.655   6.612 -0.0933 -0.1833  0.1519
55399SOL    HW170754  11.758   9.665   6.618 -0.2311  1.0944  0.3323
55399SOL    HW270755  11.651   9.575   6.561  1.0735 -0.5124  0.3601
55400SOL     OW70756   3.783   0.484   0.524  0.4828 -0.4489 -0.2987
55400SOL    HW170757   3.722   0.532   0.579  0.2259 -2.5452  1.3958
55400SOL    HW270758   3.864   0.480   0.575  1.9516  1.7330 -2.2314
55401SOL     OW70759   1.231  10.570   9.663 -0.3737  0.2388  0.0478
55401SOL    HW170760   1.231  10.627   9.585  0.2789  0.3524  0.1255
55401SOL    HW270761   1.157  10.511   9.650 -0.6963  0.7178 -0.3237
55402SOL     OW70762   8.691   9.389   0.612  0.7278  0.0638 -0.1328
55402SOL    HW170763   8.690   9.374   0.517  1.0644  1.3750 -0.3632
55402SOL    HW270764   8.599   9.404   0.635  0.6450 -0.2541 -0.2549
55403SOL     OW70765   6.727  11.508   3.215  0.2749 -0.4077 -0.3180
55403SOL    HW170766   6.750  11.449   3.143  0.4181 -0.3035 -0.3583
55403SOL    HW270767   6.797  11.573   3.215  0.3427 -0.4802 -0.0044
55404SOL     OW70768   8.244   6.126   4.358 -0.0391  0.1185 -0.1542
55404SOL    HW170769   8.155   6.090   4.357 -0.7356  1.5806  1.7980
55404SOL    HW270770   8.277   6.107   4.446  2.0223 -1.2720 -1.1519
55405SOL     OW70771   4.039   8.034   5.955 -0.0822  0.1242  0.6988
55405SOL    HW170772   4.106   8.080   6.006  0.3343 -0.3185  0.5493
55405SOL    HW270773   4.050   7.942   5.979 -0.5752  0.0373  0.5991
55406SOL     OW70774   1.197   1.138   8.817  0.7554  0.6876 -0.6179
55406SOL    HW170775   1.107   1.166   8.832  0.4498 -0.0844 -0.9732
55406SOL    HW270776   1.251   1.203   8.863  0.0331  1.3402 -0.6826
55407SOL     OW70777  11.839   7.828  10.066  0.0927 -0.5511  0.0190
55407SOL    HW170778  11.770   7.884  10.032  0.0244 -1.2577 -1.0839
55407SOL    HW270779  11.794   7.748  10.093  0.4918 -1.1959 -1.1274
55408SOL     OW70780   8.751   0.215  10.938  0.8924  0.3322  0.0648
55408SOL    HW170781   8.761   0.293  10.994  2.8349 -0.0727  0.3604
55408SOL    HW270782   8.806   0.149  10.980  0.1828 -0.8574 -0.8302
55409SOL     OW70783   7.562   3.821   9.247 -0.4084  0.1680  0.1850
55409SOL    HW170784   7.474   3.849   9.274 -0.9168 -0.4632 -0.7788
55409SOL    HW270785   7.563   3.833   9.152 -0.5603 -2.6932 -0.2801
55410SOL     OW70786   6.492   3.817   2.197 -0.3494  0.2604  0.0558
55410SOL    HW170787   6.520   3.765   2.273  0.9915 -0.3111 -0.7852
55410SOL    HW270788   6.463   3.900   2.234 -0.0061 -0.1205  1.2243
55411SOL     OW70789  11.468   1.168   8.612  0.2258 -0.0030 -0.0566
55411SOL    HW170790  11.494   1.259   8.601  0.6132 -0.1269 -0.2038
55411SOL    HW270791  11.496   1.125   8.530 -0.4390 -0.1451 -0.2185
55412SOL     OW70792   7.017   8.285   6.967 -0.2173 -0.7052  0.4598
55412SOL    HW170793   6.944   8.254   7.020 -0.2284 -0.5712  0.5225
55412SOL    HW270794   7.012   8.233   6.886 -0.2667 -0.8281  0.5429
55413SOL     OW70795   5.903   1.064  11.281  0.6025 -0.5928 -0.0977
55413SOL    HW170796   5.964   1.079  11.209 -0.7462 -1.2462 -1.4320
55413SOL    HW270797   5.844   0.995  11.249 -1.4350  0.6691  0.7408
55414SOL     OW70798   7.248   7.648   1.419  0.2195 -0.1706  0.6228
55414SOL    HW170799   7.277   7.574   1.366 -1.4516 -1.5372  1.5124
55414SOL    HW270800   7.228   7.717   1.356  0.0706 -1.1007 -0.3753
55415SOL     OW70801   1.235   7.760   7.516  0.3899 -0.0493 -0.0710
55415SOL    HW170802   1.251   7.799   7.430  2.1550 -0.3863  0.0601
55415SOL    HW270803   1.228   7.667   7.498 -2.2989  0.1073 -0.1885
55416SOL     OW70804   6.404   5.426   5.985 -0.0427  0.0450  0.4966
55416SOL    HW170805   6.442   5.409   5.899 -0.8571 -0.0601  0.1506
55416SOL    HW270806   6.320   5.467   5.967 -0.9374 -1.4043  1.1846
55417SOL     OW70807   1.017   1.589   3.557  0.2431 -0.2279 -0.5268
55417SOL    HW170808   1.040   1.677   3.525  2.0802 -0.1977  0.7275
55417SOL    HW270809   0.960   1.605   3.632  0.2136 -0.1149 -0.5734
55418SOL     OW70810   4.768   2.721   2.435 -0.0590  0.2096 -0.3297
55418SOL    HW170811   4.823   2.794   2.405  1.0776 -0.8314 -0.8866
55418SOL    HW270812   4.700   2.762   2.488  0.5321  1.6734 -0.6572
55419SOL     OW70813   1.659   1.365  11.881  0.2050  0.5407  0.2781
55419SOL    HW170814   1.750   1.335  11.878  0.7334  2.1091 -2.7895
55419SOL    HW270815   1.609   1.284  11.890  1.8314 -0.5052  0.5264
55420SOL     OW70816  11.903  11.810   8.292  0.4809  0.3299 -0.2758
55420SOL    HW170817  11.964  11.745   8.328  0.1937  0.2483  0.0750
55420SOL    HW270818  11.894  11.875   8.362 -0.7770 -0.2896  0.1796
55421SOL     OW70819   1.397   8.483   8.429  0.0427  0.3593  0.2008
55421SOL    HW170820   1.418   8.421   8.499  0.4859  0.9415  0.5847
55421SOL    HW270821   1.315   8.449   8.392  1.0083 -1.2688 -0.5486
55422SOL     OW70822   1.422   3.069  10.848  0.7815 -0.4902  0.1413
55422SOL    HW170823   1.384   2.982  10.865  0.6162 -0.3647  0.4070
55422SOL    HW270824   1.460   3.096  10.932 -0.5588  0.3871  0.4858
55423SOL     OW70825   9.233   0.257   4.153  0.1361 -0.2677  0.0797
55423SOL    HW170826   9.318   0.299   4.146  0.2749 -0.5365  0.1245
55423SOL    HW270827   9.243   0.175   4.104 -0.3053  0.0188 -0.5084
55424SOL     OW70828   6.216   0.089  11.746  0.4499  0.0792 -0.2503
55424SOL    HW170829   6.163   0.020  11.706 -0.2747  1.5153 -1.9056
55424SOL    HW270830   6.236   0.149  11.674  2.1675  0.9353  0.8665
55425SOL     OW70831   7.228   7.128   1.824  0.2250 -0.6070  0.1793
55425SOL    HW170832   7.203   7.070   1.896 -1.2005  0.9064  0.9755
55425SOL    HW270833   7.303   7.177   1.858 -0.3251 -0.0321  0.6081
55426SOL     OW70834   4.781   3.586   7.625 -0.0061 -0.4882  0.2181
55426SOL    HW170835   4.762   3.672   7.589  0.7702 -1.1248 -1.8949
55426SOL    HW270836   4.815   3.603   7.713  1.0797  1.4552 -0.5249
55427SOL     OW70837   8.983   4.636   6.489  0.2917 -0.4481  0.5061
55427SOL    HW170838   9.051   4.631   6.422 -1.3318  0.5719 -1.3185
55427SOL    HW270839   8.986   4.727   6.519 -0.9377 -0.0815 -0.3941
55428SOL     OW70840   4.477   2.185   7.846 -0.0999 -0.4572  0.0148
55428SOL    HW170841   4.464   2.235   7.926 -0.4503  0.7343 -0.7681
55428SOL    HW270842   4.404   2.210   7.789  1.6978  0.9904 -1.7895
55429SOL     OW70843   1.430   8.343  11.818 -0.4001 -0.1460 -0.5613
55429SOL    HW170844   1.416   8.367  11.726  0.0393  0.1855 -0.5481
55429SOL    HW270845   1.507   8.286  11.816 -0.7068 -0.5690 -0.4538
55430SOL     OW70846   8.763   9.488   9.232  0.6213 -0.0343 -0.4235
55430SOL    HW170847   8.766   9.473   9.138 -1.2071 -0.9733 -0.3728
55430SOL    HW270848   8.684   9.442   9.262  1.6334 -0.5297  1.7135
55431SOL     OW70849   3.580   3.080   4.552  0.0374  0.9022 -0.5816
55431SOL    HW170850   3.645   3.130   4.603 -0.0009 -1.2304  1.7708
55431SOL    HW270851   3.511   3.061   4.615 -0.1206 -1.7370 -1.4620
55432SOL     OW70852   7.331   9.391   9.829  0.0088  0.4640 -0.2065
55432SOL    HW170853   7.355   9.334   9.903  1.0133  1.3304  0.1583
55432SOL    HW270854   7.277   9.335   9.773 -1.1127 -0.1152  1.3564
55433SOL     OW70855   8.124   0.266   6.670  0.1674  0.4340  0.3650
55433SOL    HW170856   8.102   0.174   6.656 -0.0342  0.4081  0.8677
55433SOL    HW270857   8.214   0.274   6.637  0.0569  0.1403 -0.0142
55434SOL     OW70858   5.038  11.535   6.506  0.2138  0.0349 -0.2507
55434SOL    HW170859   5.042  11.581   6.590  1.4246 -1.6459  0.6679
55434SOL    HW270860   4.970  11.581   6.457 -0.1357  1.4138  1.4318
55435SOL     OW70861   5.576   1.717   7.394 -0.1467 -0.1865 -0.9536
55435SOL    HW170862   5.662   1.696   7.431  0.0766 -0.8080 -1.8103
55435SOL    HW270863   5.595   1.768   7.315 -0.5670 -0.2950 -1.1288
55436SOL     OW70864   5.961   8.670   0.837  0.2210  0.8684 -0.0821
55436SOL    HW170865   5.927   8.650   0.925 -1.0351  1.1405 -0.4901
55436SOL    HW270866   5.934   8.760   0.821 -0.1145  0.6074 -1.0024
55437SOL     OW70867   1.996   3.053   2.470  0.1152 -0.1131 -0.1603
55437SOL    HW170868   2.034   2.987   2.412 -0.6182 -1.0788  0.4264
55437SOL    HW270869   2.032   3.032   2.557 -0.6699 -0.1746  0.1541
55438SOL     OW70870   4.510   3.100   0.679  0.3104 -0.8988 -0.3592
55438SOL    HW170871   4.549   3.084   0.593  0.2271 -0.5236 -0.4688
55438SOL    HW270872   4.447   3.170   0.664  0.4199 -0.7119  0.0449
55439SOL     OW70873   4.323   2.897   4.554  0.2728 -0.1291 -0.6788
55439SOL    HW170874   4.339   2.979   4.506 -0.8125  0.1845 -0.5396
55439SOL    HW270875   4.266   2.923   4.626 -1.2332 -1.2305 -1.4312
55440SOL     OW70876   1.549  10.101   9.863 -0.1600 -0.2676  0.5351
55440SOL    HW170877   1.532  10.192   9.888 -1.9012 -0.4754  0.2455
55440SOL    HW270878   1.471  10.054   9.892 -0.1963 -1.3050 -1.1476
55441SOL     OW70879   3.192   3.437   4.346 -0.0334 -0.4572  0.5389
55441SOL    HW170880   3.137   3.368   4.383  0.2954 -0.3888  1.1524
55441SOL    HW270881   3.270   3.391   4.316 -0.9267 -0.7738 -1.5410
55442SOL     OW70882  10.805  11.176  10.679 -0.1006  0.0326  0.3672
55442SOL    HW170883  10.838  11.217  10.599 -0.6662 -1.2854 -0.5881
55442SOL    HW270884  10.880  11.133  10.718 -0.0212 -0.1485  0.0124
55443SOL     OW70885   7.270   7.151  12.055 -0.2111 -0.3677 -0.2087
55443SOL    HW170886   7.292   7.058  12.040  0.3066 -0.4363  0.8635
55443SOL    HW270887   7.175   7.152  12.064 -0.3253 -0.6344 -1.2446
55444SOL     OW70888   4.356   3.004   2.962  0.6624  0.4029  0.2440
55444SOL    HW170889   4.450   2.996   2.951  0.5112 -0.7677 -0.3542
55444SOL    HW270890   4.320   2.922   2.927 -0.5921  0.9301  0.2314
55445SOL     OW70891   1.305  11.236   5.187  0.3534  0.2630 -0.0037
55445SOL    HW170892   1.273  11.263   5.272 -0.3637 -1.2925  0.2652
55445SOL    HW270893   1.226  11.208   5.140  0.9521 -0.7288 -0.4515
55446SOL     OW70894   0.275   8.478   6.667 -0.1424  0.0434  0.4896
55446SOL    HW170895   0.246   8.397   6.626  0.7240  0.2581 -0.5988
55446SOL    HW270896   0.345   8.510   6.610 -0.9406  1.9230  0.4909
55447SOL     OW70897   4.573   0.161   1.575  0.2734  0.5116  0.3007
55447SOL    HW170898   4.524   0.102   1.518 -0.2052  1.0611  0.1348
55447SOL    HW270899   4.625   0.214   1.515  0.9109  0.0820  0.4646
55448SOL     OW70900   2.631   6.504   2.499  0.4543  0.0455 -0.0292
55448SOL    HW170901   2.538   6.503   2.478  0.2560  1.9280  0.6344
55448SOL    HW270902   2.644   6.584   2.549  2.1838 -0.8832  1.1135
55449SOL     OW70903   9.853   2.096   3.431 -0.2347  0.1491  0.5564
55449SOL    HW170904   9.774   2.114   3.483  0.5552 -1.0257  2.2417
55449SOL    HW270905   9.925   2.113   3.492  0.7876  0.2450 -0.6651
55450SOL     OW70906   5.042   0.757   1.422 -0.1021  0.0687  0.3368
55450SOL    HW170907   5.104   0.829   1.436 -1.8121  1.4917  1.0941
55450SOL    HW270908   5.036   0.748   1.327 -0.0924  1.1829  0.2137
55451SOL     OW70909  11.600   9.781   2.149 -0.0131  0.2033 -0.2309
55451SOL    HW170910  11.510   9.794   2.120  0.0238  1.8539  0.3072
55451SOL    HW270911  11.603   9.819   2.237  0.9955 -0.6418  0.1272
55452SOL     OW70912   1.984   4.337   6.568 -0.4590  0.4271 -0.2928
55452SOL    HW170913   1.944   4.250   6.573 -1.2768  0.7708 -0.6618
55452SOL    HW270914   1.978   4.371   6.657 -0.4409  0.2291 -0.2157
55453SOL     OW70915   5.826   8.272   3.525 -0.0488 -0.7377 -0.8291
55453SOL    HW170916   5.825   8.177   3.521  1.2999 -1.1180  3.2139
55453SOL    HW270917   5.913   8.297   3.493  1.0116 -1.2977  1.4142
55454SOL     OW70918   7.725   4.204  11.128 -0.5764 -0.1923  0.0566
55454SOL    HW170919   7.763   4.156  11.054  1.3126 -0.0482  0.8928
55454SOL    HW270920   7.752   4.295  11.114 -2.7089  0.3998 -0.6052
55455SOL     OW70921   7.382   5.930   3.329 -0.3994 -0.1629 -0.2895
55455SOL    HW170922   7.356   6.013   3.290  3.4815  0.7491 -1.3468
55455SOL    HW270923   7.432   5.955   3.407 -1.2815 -1.6765  0.8153
55456SOL     OW70924   4.245   5.646   6.482  0.9359 -0.0926  0.1169
55456SOL    HW170925   4.184   5.606   6.421  1.1738  0.4568 -0.4830
55456SOL    HW270926   4.319   5.673   6.428  0.9454  0.8125  0.5738
55457SOL     OW70927  10.150   8.707   9.066  0.0356 -0.1435  0.6046
55457SOL    HW170928  10.155   8.803   9.074 -2.0092  0.1372 -0.9097
55457SOL    HW270929  10.229   8.676   9.111  1.4262  2.2983  0.0448
55458SOL     OW70930   8.189  10.988   8.712 -0.2104 -0.4956 -0.1117
55458SOL    HW170931   8.142  11.040   8.647  1.0658  1.3400  0.3399
55458SOL    HW270932   8.166  11.027   8.796  2.0408  0.5044  0.1253
55459SOL     OW70933   9.422   4.215   6.827 -0.2604  0.2732  0.8380
55459SOL    HW170934   9.331   4.234   6.851 -0.4073 -0.7250  1.1546
55459SOL    HW270935   9.439   4.268   6.750 -1.1086  0.4994  0.7962
55460SOL     OW70936  10.966   3.700   7.755 -0.0988 -0.3010  0.8579
55460SOL    HW170937  10.917   3.618   7.754 -0.3346 -0.1595 -0.5511
55460SOL    HW270938  11.050   3.678   7.715 -0.1703  0.1458  0.4578
55461SOL     OW70939   3.133   1.086   3.339  0.2370 -0.0740  0.1154
55461SOL    HW170940   3.156   0.995   3.320 -0.0460 -0.0593 -0.3209
55461SOL    HW270941   3.075   1.111   3.267 -3.2308 -0.8932  2.3660
55462SOL     OW70942  10.532   6.896   7.682  0.3051 -0.1724 -0.0795
55462SOL    HW170943  10.622   6.925   7.669  0.1940  1.2915  1.9475
55462SOL    HW270944  10.478   6.962   7.639  0.1580 -0.6174 -0.5951
55463SOL     OW70945  11.310   5.288  10.950  0.0820 -0.0572 -0.0003
55463SOL    HW170946  11.374   5.257  11.015  1.2094  0.0825 -0.9959
55463SOL    HW270947  11.331   5.239  10.871 -0.3772  0.7385 -0.6347
55464SOL     OW70948  11.403  10.580   0.828  0.6521 -0.0799  0.2120
55464SOL    HW170949  11.331  10.638   0.851 -1.1979 -1.6801 -1.2236
55464SOL    HW270950  11.425  10.535   0.909 -1.4497 -1.0813  0.2920
55465SOL     OW70951   7.989   6.315   7.284  0.2867  0.7811 -0.1104
55465SOL    HW170952   8.078   6.315   7.319  0.2963 -1.5288  0.0410
55465SOL    HW270953   7.992   6.374   7.209  2.8446 -1.5124 -2.0415
55466SOL     OW70954   0.084   6.309   8.129  0.2307  0.0344  0.3794
55466SOL    HW170955   0.115   6.351   8.048  0.3720  1.0606  0.9585
55466SOL    HW270956   0.041   6.379   8.178 -2.3047 -1.1322  0.0003
55467SOL     OW70957   8.027   5.702   1.803  0.5362  0.1115 -0.2368
55467SOL    HW170958   7.967   5.738   1.869  0.3470  0.8445 -0.7910
55467SOL    HW270959   8.113   5.704   1.846 -0.0369 -2.7891  1.3031
55468SOL     OW70960   0.267   2.680   1.975  0.2379  0.2922 -0.1022
55468SOL    HW170961   0.214   2.703   2.051 -1.1400  0.2291 -1.0085
55468SOL    HW270962   0.214   2.706   1.900  2.5803  2.7260 -1.0863
55469SOL     OW70963   6.606   8.016   2.863 -0.4382  0.2645 -0.0286
55469SOL    HW170964   6.574   8.067   2.788  0.0073  0.3399 -0.1732
55469SOL    HW270965   6.631   8.082   2.927 -1.8485  0.1902  0.6436
55470SOL     OW70966   9.125   2.065   3.182  0.0074  0.1794 -0.5077
55470SOL    HW170967   9.211   2.025   3.173 -0.1694 -0.2575 -0.2911
55470SOL    HW270968   9.078   2.038   3.103 -0.6574 -1.4332  0.3967
55471SOL     OW70969   4.203   6.147   7.412 -0.0341 -0.4622 -0.5748
55471SOL    HW170970   4.192   6.211   7.483 -0.9452  1.0766 -2.0318
55471SOL    HW270971   4.264   6.083   7.447 -0.3073  0.3484  1.5339
55472SOL     OW70972   6.564  12.006   9.728  0.1911  0.1615 -0.1991
55472SOL    HW170973   6.548  12.099   9.741 -1.0220  0.6968 -4.2903
55472SOL    HW270974   6.496  11.962   9.779 -0.0068  1.5120  0.7494
55473SOL     OW70975   8.759   1.985   6.428  0.2834  0.0705 -0.0025
55473SOL    HW170976   8.703   1.976   6.351 -0.6847  1.8034  0.4525
55473SOL    HW270977   8.797   2.073   6.421 -0.4997  0.6147  1.8900
55474SOL     OW70978   5.014   9.526  11.597 -0.0727  0.0916 -0.0373
55474SOL    HW170979   4.948   9.520  11.528  0.7474 -0.4120 -0.7994
55474SOL    HW270980   4.968   9.565  11.671 -1.0154  0.4785 -0.8121
55475SOL     OW70981  12.079   2.049   3.456 -0.4167  0.7010 -0.3829
55475SOL    HW170982  12.039   2.111   3.396  0.0467  1.3887  0.0013
55475SOL    HW270983  12.173   2.069   3.452 -0.0783 -0.9183 -1.3219
55476SOL     OW70984   0.270   7.606  10.793  0.1451  0.0211 -0.2470
55476SOL    HW170985   0.211   7.682  10.798  1.2393  0.9049 -0.4212
55476SOL    HW270986   0.234   7.554  10.721 -1.4015 -0.3449  0.7248
55477SOL     OW70987   3.384   7.309   5.509 -0.5470  0.5864  0.3920
55477SOL    HW170988   3.440   7.381   5.481 -1.5870  0.5619 -2.0259
55477SOL    HW270989   3.295   7.339   5.489 -0.9910 -1.4135 -0.9397
55478SOL     OW70990   2.617  11.913   0.454  0.3995 -0.6311  0.4127
55478SOL    HW170991   2.611  11.996   0.500 -0.9149 -0.4191 -0.1223
55478SOL    HW270992   2.698  11.920   0.403  0.4958  0.1607  0.6641
55479SOL     OW70993   3.381   2.762  10.220  0.2503 -0.1974 -0.6030
55479SOL    HW170994   3.391   2.703  10.145  0.3068  0.5468 -1.1889
55479SOL    HW270995   3.470   2.791  10.240  0.2654 -0.6006 -0.0752
55480SOL     OW70996   4.514   8.544   4.812 -0.4084  0.2095  0.4965
55480SOL    HW170997   4.607   8.557   4.796 -0.5644  1.1146  0.2425
55480SOL    HW270998   4.471   8.611   4.759 -1.3542 -1.7544 -1.4025
55481SOL     OW70999  10.336   2.069   3.114 -0.2430  0.1320  0.1092
55481SOL    HW171000  10.328   2.025   3.199  0.1793 -1.7234 -0.7477
55481SOL    HW271001  10.313   2.001   3.050  0.3409  1.2162 -1.3077
55482SOL     OW71002   3.857   2.318   6.303 -0.0362 -0.3601  0.1000
55482SOL    HW171003   3.784   2.307   6.243 -0.0238  1.1563 -0.2458
55482SOL    HW271004   3.929   2.347   6.248  0.6480 -1.1883  0.5347
55483SOL     OW71005   7.870   6.497   4.334 -0.1376  0.4806  0.0352
55483SOL    HW171006   7.966   6.500   4.330 -0.0091 -0.1945  1.7709
55483SOL    HW271007   7.848   6.544   4.414 -1.3369  1.3000 -0.7342
55484SOL     OW71008   7.008   6.045  10.155  0.0584 -0.7557 -0.4044
55484SOL    HW171009   6.938   6.096  10.194  0.7103  0.2577 -0.5142
55484SOL    HW271010   7.034   5.982  10.223  0.0910 -0.0934  0.2079
55485SOL     OW71011   2.929  11.198  10.347 -0.3837  0.2594  0.1488
55485SOL    HW171012   2.929  11.245  10.264  1.3951 -2.2602 -1.4387
55485SOL    HW271013   2.907  11.264  10.413  1.0593  3.0529 -1.9569
55486SOL     OW71014   3.005   4.844   4.262  0.3874 -0.2991  0.7940
55486SOL    HW171015   3.062   4.920   4.251 -0.2765  0.1869  0.6553
55486SOL    HW271016   2.937   4.854   4.195  0.5782 -1.2902  0.4254
55487SOL     OW71017  11.068   1.312   0.358  0.4200  0.1522 -0.8421
55487SOL    HW171018  11.066   1.405   0.380 -0.2693 -0.1475  0.4794
55487SOL    HW271019  11.012   1.304   0.281 -0.8980  0.6297  0.0228
55488SOL     OW71020   4.786   5.417   5.741 -0.2394  0.2859  0.0533
55488SOL    HW171021   4.844   5.370   5.801 -1.4277  1.0138  1.8707
55488SOL    HW271022   4.699   5.406   5.779 -0.7614  2.5373 -0.3716
55489SOL     OW71023  10.473   9.351   2.674 -0.1492 -0.2291 -0.0773
55489SOL    HW171024  10.403   9.402   2.633 -0.4600 -0.1216  0.5808
55489SOL    HW271025  10.503   9.292   2.604 -1.1945 -0.5905 -0.2403
55490SOL     OW71026   0.157   0.168   8.046 -0.4215  0.4349  0.4411
55490SOL    HW171027   0.115   0.110   8.110 -0.6695 -1.3400 -1.2235
55490SOL    HW271028   0.128   0.134   7.961  1.1733  1.6954 -0.6705
55491SOL     OW71029   9.909  11.768   1.852 -0.3127 -0.0020  0.4168
55491SOL    HW171030   9.860  11.849   1.839 -0.4511 -0.0539  0.6198
55491SOL    HW271031   9.843  11.699   1.858 -0.1437 -0.3267 -1.1100
55492SOL     OW71032  10.425   6.323   1.871  0.2326 -0.0068 -0.1121
55492SOL    HW171033  10.483   6.255   1.903 -0.4669  0.2789  1.8993
55492SOL    HW271034  10.337   6.287   1.881 -0.1022  0.8801  0.2465
55493SOL     OW71035   5.913   9.323  11.388 -0.0298 -0.3560  0.4056
55493SOL    HW171036   5.896   9.250  11.448 -0.1006  0.3131  1.2145
55493SOL    HW271037   6.008   9.325  11.379  0.1675  0.8250  2.1763
55494SOL     OW71038   1.680   0.030   1.189  0.0352 -0.0448 -0.4245
55494SOL    HW171039   1.747   0.094   1.213 -0.0260 -0.4909  0.9811
55494SOL    HW271040   1.639   0.068   1.111  1.3787  0.6185 -0.8464
55495SOL     OW71041   0.631   5.512  12.053  0.0241  0.6510  0.0839
55495SOL    HW171042   0.543   5.477  12.066 -0.5407  2.1709  0.5320
55495SOL    HW271043   0.686   5.456  12.108 -0.5786 -0.5760 -0.5196
55496SOL     OW71044   7.215   5.675   4.986  0.1506 -0.5431 -0.3652
55496SOL    HW171045   7.201   5.603   5.047  0.8387  0.1701  0.6659
55496SOL    HW271046   7.297   5.652   4.941  0.6297 -0.1766  0.3112
55497SOL     OW71047   7.214   5.269   4.199 -0.1776  0.3320 -0.4277
55497SOL    HW171048   7.166   5.348   4.175 -1.9584 -0.6825 -0.3654
55497SOL    HW271049   7.220   5.272   4.294  1.8686  1.5291 -0.5420
55498SOL     OW71050   3.998  10.147   5.397  0.2919  0.2464  0.3027
55498SOL    HW171051   4.083  10.130   5.438 -0.3700  0.8268  1.9689
55498SOL    HW271052   3.969  10.230   5.435 -0.9695  0.1252 -0.3456
55499SOL     OW71053  11.824   4.569   8.614  0.4049  0.5010  0.1078
55499SOL    HW171054  11.804   4.651   8.569 -0.3987 -0.8414 -2.1282
55499SOL    HW271055  11.908   4.585   8.657  0.3471  2.4244 -0.4070
55500SOL     OW71056   3.435   2.105   1.000 -0.4101  0.2588  0.2249
55500SOL    HW171057   3.517   2.144   1.029 -0.2428  0.9899 -1.1522
55500SOL    HW271058   3.367   2.163   1.033 -0.2598  0.6806 -0.1923
55501SOL     OW71059   9.968   7.865   4.935  0.1712  0.1425  0.2086
55501SOL    HW171060   9.874   7.878   4.919  0.5565  0.4782 -2.0749
55501SOL    HW271061   9.973   7.834   5.026 -2.0617  1.0209  0.6911
55502SOL     OW71062   5.107   3.443   7.503  0.4084  0.3097 -0.0859
55502SOL    HW171063   5.070   3.438   7.591  1.0640 -0.4318  0.1698
55502SOL    HW271064   5.081   3.360   7.462  0.7646  0.3074 -0.3104
55503SOL     OW71065  10.180   9.474  11.020 -0.5924  0.3217 -0.2326
55503SOL    HW171066  10.145   9.484  11.109 -0.5060  1.2427 -0.2934
55503SOL    HW271067  10.275   9.474  11.033 -0.5633  1.2258 -0.3906
55504SOL     OW71068   4.297   9.277   2.820 -0.3922 -0.0055 -0.2014
55504SOL    HW171069   4.328   9.210   2.880  0.5404 -1.2238 -1.9385
55504SOL    HW271070   4.360   9.348   2.829 -0.6358  0.1118  0.6993
55505SOL     OW71071   6.655   2.223   8.052  0.3247 -0.1694 -0.8593
55505SOL    HW171072   6.596   2.186   7.988 -0.8377  1.2001 -0.6360
55505SOL    HW271073   6.656   2.160   8.124  1.0778 -1.3630 -1.8809
55506SOL     OW71074   3.727   9.328   8.493  0.3503  0.5431  0.3053
55506SOL    HW171075   3.803   9.342   8.549  0.2783 -0.8175  0.7810
55506SOL    HW271076   3.740   9.241   8.455 -0.9485  0.2804  0.3910
55507SOL     OW71077  10.977   7.749   5.335  0.1511  0.1760  0.0306
55507SOL    HW171078  10.891   7.771   5.371  0.0975 -1.8984  1.3830
55507SOL    HW271079  10.958   7.687   5.265  0.5165  0.4424 -0.3062
55508SOL     OW71080   2.757  11.252   5.628  0.5179  0.5767  0.2952
55508SOL    HW171081   2.842  11.208   5.639  0.4828  0.7999  1.7838
55508SOL    HW271082   2.773  11.341   5.661 -0.2716  0.6428  0.5131
55509SOL     OW71083   0.844   6.983   4.569 -0.5790 -0.1602 -0.3905
55509SOL    HW171084   0.821   6.890   4.563  0.9227 -0.5909  0.0813
55509SOL    HW271085   0.789   7.017   4.640 -0.5303 -0.8898  0.0036
55510SOL     OW71086  12.044   8.377  10.899 -0.0128  0.0146 -0.3763
55510SOL    HW171087  11.996   8.386  10.816 -1.1574  0.7009  0.3455
55510SOL    HW271088  11.987   8.414  10.965  1.1897  0.1269  0.6492
55511SOL     OW71089   0.014   7.171   7.612  0.2871 -0.1296 -0.2463
55511SOL    HW171090   0.089   7.213   7.654 -2.3629  1.9447  2.9269
55511SOL    HW271091  -0.027   7.241   7.561  0.6950 -1.3836 -2.4203
55512SOL     OW71092   0.476   0.448  11.281  0.7798 -0.2626 -0.7237
55512SOL    HW171093   0.516   0.535  11.291  0.7150 -0.2989 -0.1052
55512SOL    HW271094   0.466   0.416  11.371 -2.2338  0.4739 -0.7184
55513SOL     OW71095   2.426   1.707   2.090  0.3149  0.1526  0.5660
55513SOL    HW171096   2.513   1.705   2.130  0.9845  2.1481 -0.6726
55513SOL    HW271097   2.373   1.760   2.149  0.0587 -0.5823  1.0194
55514SOL     OW71098   2.703   4.624   4.219 -0.0153 -0.3324  0.6172
55514SOL    HW171099   2.661   4.578   4.292 -0.8361  0.0031  0.3735
55514SOL    HW271100   2.687   4.569   4.143 -0.2286 -0.0855  0.4807
55515SOL     OW71101   2.695   5.944   4.371  0.2100  0.2493 -0.5050
55515SOL    HW171102   2.737   5.931   4.456 -0.8256 -0.2052 -0.0464
55515SOL    HW271103   2.705   5.860   4.327 -0.5051  0.0167 -0.2477
55516SOL     OW71104   5.353   4.904   5.672 -0.4532  0.3731  0.1328
55516SOL    HW171105   5.361   4.813   5.701 -0.0113  0.3664 -0.0054
55516SOL    HW271106   5.300   4.899   5.593 -0.2520  0.2110  0.0073
55517SOL     OW71107   8.608  10.109   3.317  0.4245  0.0832 -0.1173
55517SOL    HW171108   8.694  10.095   3.279  0.7120 -1.0597  0.9105
55517SOL    HW271109   8.548  10.059   3.262  0.8555 -1.6730  0.9571
55518SOL     OW71110   8.422   8.069   7.230 -0.6663 -0.3803 -0.3180
55518SOL    HW171111   8.341   8.079   7.180  0.4604  1.3068 -1.9039
55518SOL    HW271112   8.485   8.034   7.168 -0.1357 -1.7338  0.9145
55519SOL     OW71113   1.679   8.842   1.368  0.4840  0.2903 -0.1459
55519SOL    HW171114   1.710   8.752   1.357  0.8023 -0.1826  3.5480
55519SOL    HW271115   1.758   8.895   1.357  0.7387 -0.0676 -0.0780
55520SOL     OW71116   0.722   4.611   0.632  0.2027 -0.2406  0.5110
55520SOL    HW171117   0.645   4.652   0.670 -0.1858 -0.2452 -0.2483
55520SOL    HW271118   0.697   4.591   0.541  0.8431 -0.9047  0.4636
55521SOL     OW71119  11.262   6.140   1.669  0.1637  0.7182 -0.0007
55521SOL    HW171120  11.339   6.195   1.652  0.9832 -0.4687 -0.3047
55521SOL    HW271121  11.283   6.057   1.626 -1.6670  0.6311 -0.7926
55522SOL     OW71122   7.106   2.970   9.548  0.7932 -0.5398  0.4648
55522SOL    HW171123   7.059   3.000   9.470  2.2388 -2.1046 -1.1284
55522SOL    HW271124   7.065   2.886   9.569  1.5515 -0.9608  0.2861
55523SOL     OW71125   6.221   1.651   6.356 -0.3526 -0.5170  0.3302
55523SOL    HW171126   6.170   1.718   6.310 -2.0949 -2.3405 -0.5977
55523SOL    HW271127   6.293   1.632   6.297  0.1714  0.5272  0.6134
55524SOL     OW71128   6.022   4.825   4.411  0.1738  0.4814 -0.1607
55524SOL    HW171129   5.985   4.878   4.482  1.3702  1.0912  0.0412
55524SOL    HW271130   6.018   4.882   4.334 -1.1663 -0.1968 -0.6189
55525SOL     OW71131   6.184  10.632  11.767 -0.4149  0.9416  0.0074
55525SOL    HW171132   6.212  10.592  11.849  2.8298 -0.7248 -1.6960
55525SOL    HW271133   6.127  10.566  11.727  1.0140  0.0624 -0.6507
55526SOL     OW71134   2.904   8.705   6.299  0.0052  0.2491  0.3426
55526SOL    HW171135   2.846   8.678   6.370  0.5324  0.3144  0.7961
55526SOL    HW271136   2.972   8.757   6.341 -0.2077  1.0931 -0.3358
55527SOL     OW71137   8.898   5.696   0.683  0.4615 -0.0033 -0.0996
55527SOL    HW171138   8.889   5.676   0.776  0.2579  1.5626  0.2453
55527SOL    HW271139   8.989   5.673   0.662  0.6013 -0.0685  0.5596
55528SOL     OW71140   4.892   9.140   7.936  0.0537  0.3442 -0.2670
55528SOL    HW171141   4.921   9.119   7.848 -0.4005 -0.3023 -0.2606
55528SOL    HW271142   4.939   9.078   7.992  1.3815  1.6149  0.0936
55529SOL     OW71143   9.506   5.343  10.820 -0.5293 -0.1178  0.1319
55529SOL    HW171144   9.583   5.399  10.831 -0.5466 -0.1448  0.4183
55529SOL    HW271145   9.467   5.339  10.908  0.3008 -1.7646  0.4613
55530SOL     OW71146   2.489   9.757   7.542 -0.7716 -0.3002  0.1007
55530SOL    HW171147   2.457   9.788   7.457 -1.3019 -0.1709  0.3427
55530SOL    HW271148   2.463   9.826   7.604  0.6633  0.1975  0.1992
55531SOL     OW71149  10.754   2.151   1.772 -0.3144 -0.4995 -0.4643
55531SOL    HW171150  10.823   2.170   1.835  1.4589 -1.8011 -1.9055
55531SOL    HW271151  10.707   2.076   1.810 -0.1457 -0.4002 -0.0566
55532SOL     OW71152   0.086   7.091  10.154 -0.9214  0.4570 -0.1666
55532SOL    HW171153   0.031   7.163  10.123  0.3314  1.2524 -0.6199
55532SOL    HW271154   0.048   7.013  10.113 -2.4142  0.8085  0.4772
55533SOL     OW71155   2.223   9.791   6.411  0.1959 -0.4218 -0.2211
55533SOL    HW171156   2.262   9.772   6.326  0.2048  0.6389 -0.4666
55533SOL    HW271157   2.293   9.830   6.462 -0.0622 -0.1776 -0.0491
55534SOL     OW71158  11.603   1.390   2.768  0.6229 -0.0087  0.3964
55534SOL    HW171159  11.518   1.347   2.774  0.6660 -0.1237  0.1846
55534SOL    HW271160  11.648   1.367   2.850  0.2862  0.4036  0.6979
55535SOL     OW71161  11.290   9.884   8.878  0.2508 -0.1706  0.1790
55535SOL    HW171162  11.294   9.853   8.788  1.6888 -1.7789  0.7495
55535SOL    HW271163  11.219   9.834   8.918  0.3889 -0.3133  0.2451
55536SOL     OW71164   8.245   6.623   0.050 -0.4944 -0.1152  0.1696
55536SOL    HW171165   8.293   6.593  -0.027  0.1103  0.3462  0.3631
55536SOL    HW271166   8.153   6.605   0.029 -0.3919  0.5229 -0.9081
55537SOL     OW71167   6.667   3.198   1.702 -0.1444 -0.4860 -0.2742
55537SOL    HW171168   6.648   3.141   1.627  0.6714  0.2908 -1.0979
55537SOL    HW271169   6.729   3.148   1.755 -1.2936 -1.3439  0.2832
55538SOL     OW71170   8.239   2.243  10.431  0.1084 -0.6288 -0.1554
55538SOL    HW171171   8.210   2.175  10.369 -0.2116 -1.2492  0.6541
55538SOL    HW271172   8.219   2.206  10.517 -0.5155  0.7167  0.2894
55539SOL     OW71173   0.610   2.705   8.843  0.7432 -0.0385 -0.2683
55539SOL    HW171174   0.652   2.761   8.909  1.2751 -1.6818  0.8458
55539SOL    HW271175   0.666   2.627   8.839 -0.1085 -0.6140 -1.6025
55540SOL     OW71176   0.244   9.860   2.925 -0.6188 -0.3818 -0.0080
55540SOL    HW171177   0.238   9.898   3.012 -0.4690 -0.9250  0.2444
55540SOL    HW271178   0.266   9.934   2.868 -0.5017 -0.0609  0.4475
55541SOL     OW71179   1.875   2.332   5.696  0.3251  0.3988 -0.7331
55541SOL    HW171180   1.860   2.343   5.790 -1.5317  1.9470 -1.1325
55541SOL    HW271181   1.845   2.243   5.677  0.5446  0.1364  0.1065
55542SOL     OW71182  10.870   5.639  11.417  0.1034 -0.2975 -0.3185
55542SOL    HW171183  10.900   5.727  11.440 -0.2632  0.1893 -1.6205
55542SOL    HW271184  10.856   5.642  11.322 -1.9089 -1.1312 -0.1163
55543SOL     OW71185   0.563   2.678   4.865 -0.3193  0.0532 -0.5091
55543SOL    HW171186   0.583   2.585   4.852  0.7673  0.3067 -0.7464
55543SOL    HW271187   0.576   2.718   4.779  0.7483  0.6766 -0.0834
55544SOL     OW71188   4.851   1.156   9.587 -0.0751  1.0413  0.4471
55544SOL    HW171189   4.869   1.107   9.667  1.4361  0.5448 -0.1665
55544SOL    HW271190   4.757   1.173   9.590 -0.3979 -0.7135  1.3462
55545SOL     OW71191  11.461   0.902   8.166  0.1776  0.7526 -0.0124
55545SOL    HW171192  11.499   0.818   8.138  0.5391  0.7778  0.3983
55545SOL    HW271193  11.377   0.906   8.120  0.9160  0.9602 -1.3968
55546SOL     OW71194   1.635  11.000   2.780 -0.0075 -0.4956  0.3237
55546SOL    HW171195   1.617  11.003   2.686  1.6951 -0.8882 -0.0495
55546SOL    HW271196   1.640  10.907   2.801  0.0623 -0.4079  0.7113
55547SOL     OW71197   0.582  11.810  12.101  0.2661  0.9380 -0.6074
55547SOL    HW171198   0.598  11.716  12.110 -0.8586  0.7930  0.0607
55547SOL    HW271199   0.617  11.848  12.182  0.0811  1.0056 -0.5592
55548SOL     OW71200  11.900  10.234   4.910 -0.0155 -0.1093  0.1060
55548SOL    HW171201  11.840  10.304   4.935 -0.2247 -0.4403  0.5327
55548SOL    HW271202  11.987  10.270   4.929 -0.1620 -0.2955  1.1796
55549SOL     OW71203  10.221   1.237  10.715 -0.1322  0.1930  0.5249
55549SOL    HW171204  10.240   1.322  10.675 -1.7311  0.9330  1.2303
55549SOL    HW271205  10.284   1.177  10.676 -0.3520  1.2621 -1.5925
55550SOL     OW71206   6.047  11.763   7.656  0.8212 -0.7254  0.2514
55550SOL    HW171207   6.079  11.800   7.738  0.6531 -0.5812  0.2546
55550SOL    HW271208   6.058  11.834   7.592  0.7293 -0.7552  0.2026
55551SOL     OW71209   5.352   4.380   3.994 -0.0551 -0.0390 -0.4629
55551SOL    HW171210   5.440   4.413   4.010  0.1855 -1.2182  0.8227
55551SOL    HW271211   5.320   4.354   4.080 -1.4440 -0.1816 -0.9930
55552SOL     OW71212   8.089   1.280   3.005 -0.0312 -0.4506 -0.0751
55552SOL    HW171213   8.011   1.271   2.951 -0.7847 -0.8851  1.0372
55552SOL    HW271214   8.099   1.374   3.018 -2.6462 -0.4009  2.8351
55553SOL     OW71215   9.017   5.755   9.426  0.9116 -0.0047 -0.4178
55553SOL    HW171216   9.040   5.745   9.334 -0.3391  0.6465 -0.8203
55553SOL    HW271217   9.088   5.808   9.463  2.2742 -1.6146 -0.5945
55554SOL     OW71218   8.770   2.392   9.484 -0.4875 -0.0876 -0.0253
55554SOL    HW171219   8.777   2.487   9.475  2.6226 -0.1796  0.1786
55554SOL    HW271220   8.798   2.358   9.399 -0.9680 -0.8267  0.1045
55555SOL     OW71221  11.485  11.244  11.377  0.3434  0.2815  0.0122
55555SOL    HW171222  11.454  11.327  11.412 -1.9498 -0.7253  0.5518
55555SOL    HW271223  11.500  11.262  11.284  1.0508  1.5540  0.3420
55556SOL     OW71224  10.185   2.583   7.982  0.2741  0.2761 -0.0791
55556SOL    HW171225  10.194   2.554   7.892 -1.8017 -0.3709 -0.1279
55556SOL    HW271226  10.257   2.540   8.029 -0.1176 -1.4385 -0.9673
55557SOL     OW71227  11.328   7.324   5.935 -0.1272  0.3407 -0.0231
55557SOL    HW171228  11.374   7.361   5.859  1.9435  0.3067  1.1265
55557SOL    HW271229  11.399   7.297   5.994 -1.6656  0.8342  2.1479
55558SOL     OW71230  10.897  10.191   5.142  0.2653 -0.0969 -0.0154
55558SOL    HW171231  10.830  10.126   5.122 -3.8228  3.6913 -0.1852
55558SOL    HW271232  10.884  10.260   5.077  1.3680  2.7195  2.4889
55559SOL     OW71233   4.904   0.774   3.733 -0.1420  0.1338 -0.0510
55559SOL    HW171234   4.972   0.814   3.679 -0.8108  0.6859 -0.4925
55559SOL    HW271235   4.933   0.790   3.823 -0.7982  2.4381 -0.1723
55560SOL     OW71236   7.197  10.939   3.294  0.2626 -0.1359 -0.2788
55560SOL    HW171237   7.234  10.906   3.212 -2.1227 -0.7610 -1.1675
55560SOL    HW271238   7.106  10.909   3.293  0.0101  0.3395  2.3376
55561SOL     OW71239   1.409   9.776   5.573 -0.3111 -0.1817 -0.4517
55561SOL    HW171240   1.347   9.811   5.637  0.0226 -1.7507  0.7969
55561SOL    HW271241   1.355   9.746   5.500 -0.7999  0.5734 -0.4097
55562SOL     OW71242  10.116   0.161   2.372  0.3399  0.3097 -0.3249
55562SOL    HW171243  10.107   0.110   2.292 -0.7788  1.7765 -1.1833
55562SOL    HW271244  10.029   0.160   2.412  0.6963  0.2338  0.4714
55563SOL     OW71245   9.386   3.478  11.594 -0.3032 -0.8320  0.1294
55563SOL    HW171246   9.316   3.535  11.564 -0.4782 -2.4980 -3.2000
55563SOL    HW271247   9.347   3.390  11.594  1.2104 -1.5412  0.2321
55564SOL     OW71248   6.593   6.960   7.777  0.1466 -0.0628 -0.1933
55564SOL    HW171249   6.673   6.958   7.724 -1.3742  0.0508 -2.6728
55564SOL    HW271250   6.524   6.981   7.714 -1.8328 -0.0149  1.8825
55565SOL     OW71251   2.958   7.065   7.664 -0.1666 -0.0054  0.5323
55565SOL    HW171252   3.002   6.981   7.652 -0.0403  0.1804 -0.3319
55565SOL    HW271253   2.882   7.044   7.719 -0.5844 -0.8287 -0.3350
55566SOL     OW71254   1.131   2.807   4.729 -0.1819 -0.3074  0.2176
55566SOL    HW171255   1.102   2.774   4.644 -0.3123 -1.2329  0.6003
55566SOL    HW271256   1.054   2.797   4.785 -0.4408  1.3298  0.1893
55567SOL     OW71257  10.722   9.847   7.444  0.0252  0.0477  0.3513
55567SOL    HW171258  10.754   9.758   7.456 -0.1669  0.0073  0.5587
55567SOL    HW271259  10.779   9.884   7.376 -0.3303 -0.4569 -0.2324
55568SOL     OW71260   1.885   2.865   3.669  0.4367 -0.0406  0.5655
55568SOL    HW171261   1.850   2.943   3.711  2.3410  0.5182  1.2143
55568SOL    HW271262   1.881   2.797   3.736  0.9050  0.1205  0.7611
55569SOL     OW71263   4.624  11.316   4.454  0.4214  0.2622 -0.2549
55569SOL    HW171264   4.589  11.370   4.383  0.1269  0.2815 -0.0959
55569SOL    HW271265   4.596  11.361   4.534 -0.8606 -0.7599 -0.0953
55570SOL     OW71266   5.314   8.463   0.367  0.1109  0.2412  0.0838
55570SOL    HW171267   5.241   8.463   0.429  0.7470 -0.1660  0.8424
55570SOL    HW271268   5.299   8.541   0.312 -1.7483 -0.6682 -0.8034
55571SOL     OW71269   6.513   4.963  10.592  0.2620  0.4547  0.4096
55571SOL    HW171270   6.459   5.002  10.523 -1.0640 -0.2426  1.0000
55571SOL    HW271271   6.468   4.881  10.613  2.6859 -1.2417 -0.4870
55572SOL     OW71272   5.047   0.974   0.036 -0.6912 -0.3405  0.3708
55572SOL    HW171273   4.962   0.991  -0.004 -0.5930  0.9806  0.6925
55572SOL    HW271274   5.039   0.885   0.071 -2.0138 -0.1524  0.5970
55573SOL     OW71275  10.491   5.212   4.564 -0.0469 -0.0826  0.4470
55573SOL    HW171276  10.542   5.162   4.501  1.1885 -0.9021  2.0324
55573SOL    HW271277  10.490   5.301   4.529 -0.9745 -0.8528 -1.6367
55574SOL     OW71278   4.186  10.015   1.646  0.7910  0.5597  0.2911
55574SOL    HW171279   4.135  10.092   1.621  0.0910  0.9062  2.5567
55574SOL    HW271280   4.276  10.046   1.651  0.5299  1.2201  1.0558
55575SOL     OW71281   0.120  11.989   7.655  0.4685 -0.3427  0.4864
55575SOL    HW171282   0.079  11.950   7.578 -0.4025  1.5335 -0.0556
55575SOL    HW271283   0.071  11.954   7.729 -2.9153  2.4549 -0.1600
55576SOL     OW71284   8.237   5.273  10.654  0.0467  0.1654 -0.2462
55576SOL    HW171285   8.291   5.205  10.615 -1.8782 -2.6177  1.5648
55576SOL    HW271286   8.173   5.295  10.586 -1.1711 -2.1613  0.0217
55577SOL     OW71287   5.055   7.504   8.752 -0.1149 -0.7432 -0.2437
55577SOL    HW171288   4.996   7.550   8.693 -1.6592 -1.8383  0.3768
55577SOL    HW271289   5.016   7.417   8.763  1.0460 -1.1501  1.0276
55578SOL     OW71290   3.751   2.564   8.248  0.2919  0.4779 -0.3302
55578SOL    HW171291   3.694   2.488   8.262  2.8919 -1.2462  2.0657
55578SOL    HW271292   3.812   2.535   8.180  0.6169  0.8483 -0.1954
55579SOL     OW71293   0.249   2.562   3.851  0.1461  0.0516  0.4093
55579SOL    HW171294   0.163   2.595   3.876  0.8458  1.1671  1.4693
55579SOL    HW271295   0.300   2.641   3.831  0.4269 -0.6468 -2.0359
55580SOL     OW71296   2.254   1.017  10.229  0.0382  0.5096 -0.0795
55580SOL    HW171297   2.327   1.016  10.167 -0.5046  0.5279 -0.7278
55580SOL    HW271298   2.200   1.091  10.201 -1.3386 -0.7712 -0.9080
55581SOL     OW71299   8.613   5.503  10.884 -0.2382  1.1409 -1.0057
55581SOL    HW171300   8.535   5.555  10.902 -1.0105 -0.0794 -0.7080
55581SOL    HW271301   8.598   5.465  10.798 -1.4268 -1.5404  0.2777
55582SOL     OW71302   4.224   4.383   9.347  0.0254 -0.1938 -0.1630
55582SOL    HW171303   4.250   4.433   9.269 -1.0817  1.5609  0.5086
55582SOL    HW271304   4.282   4.414   9.416  1.3444 -2.1154 -0.3238
55583SOL     OW71305  10.518   1.308   1.525  0.3423  0.1363  0.4598
55583SOL    HW171306  10.527   1.396   1.489 -1.1296  0.8100  1.5960
55583SOL    HW271307  10.477   1.322   1.610 -1.4241 -1.7273 -0.0036
55584SOL     OW71308   9.177   1.290   7.140  0.2744 -0.1874 -0.3153
55584SOL    HW171309   9.272   1.289   7.140  0.2889  0.6073  0.3215
55584SOL    HW271310   9.152   1.275   7.231 -0.1745  0.9812 -0.2248
55585SOL     OW71311   9.860   2.111   4.507 -0.2623 -0.2922 -0.1910
55585SOL    HW171312   9.822   2.082   4.424  1.0392 -0.9046 -0.6039
55585SOL    HW271313   9.908   2.191   4.485 -1.7420  0.8176  0.4430
55586SOL     OW71314   1.522   4.237   5.511  0.2782 -0.3359  0.3222
55586SOL    HW171315   1.574   4.231   5.431 -0.7162 -0.0845 -0.3530
55586SOL    HW271316   1.432   4.250   5.481 -0.1697 -0.6278  1.4719
55587SOL     OW71317   7.087   4.507   3.489 -0.1047  0.1848  0.0709
55587SOL    HW171318   7.155   4.506   3.556 -0.9617 -1.6035  0.9769
55587SOL    HW271319   7.014   4.555   3.529  0.2466  1.2633 -0.5392
55588SOL     OW71320   2.047   9.155  11.233 -0.1703 -0.4043 -0.1154
55588SOL    HW171321   1.982   9.217  11.200  0.0273  0.0512  0.3439
55588SOL    HW271322   2.001   9.071  11.234 -0.3766 -0.3059 -0.9216
55589SOL     OW71323   9.298   5.101   9.860  0.2751  0.0709 -0.0171
55589SOL    HW171324   9.217   5.050   9.870 -0.0068  0.6578  0.7611
55589SOL    HW271325   9.333   5.073   9.775 -0.1416 -1.0395  0.1510
55590SOL     OW71326   8.198  11.783   0.292  0.3326 -0.1019 -0.3605
55590SOL    HW171327   8.224  11.694   0.314 -1.5614 -0.8329 -0.9023
55590SOL    HW271328   8.235  11.798   0.205 -1.0737 -1.1834 -1.1921
55591SOL     OW71329   3.385   9.999   0.752 -0.0479  0.3360 -0.2262
55591SOL    HW171330   3.413  10.068   0.813  1.6276 -0.2204 -0.3164
55591SOL    HW271331   3.445  10.007   0.677 -1.4908  0.4221 -1.4080
55592SOL     OW71332  10.652   0.545   9.973 -0.4246  0.3007 -0.0220
55592SOL    HW171333  10.745   0.568   9.981 -0.2298 -0.7746  1.0198
55592SOL    HW271334  10.608   0.629   9.961  0.7462  0.7666 -1.2895
55593SOL     OW71335   1.024   1.790  10.031 -0.2251  0.3205 -0.1598
55593SOL    HW171336   0.995   1.755  10.115 -3.0152  0.0899 -1.1083
55593SOL    HW271337   1.046   1.881  10.050 -1.3309  0.4236  0.7462
55594SOL     OW71338   2.656   8.012   8.496 -0.0483  0.5684  0.1774
55594SOL    HW171339   2.719   7.944   8.520 -1.2377 -1.5713 -2.1518
55594SOL    HW271340   2.665   8.079   8.564  3.9162 -0.0678  0.5279
55595SOL     OW71341   7.639  10.385   2.162  0.3646  0.4148  0.1940
55595SOL    HW171342   7.665  10.347   2.078 -0.1719  0.8837 -0.1916
55595SOL    HW271343   7.544  10.397   2.155  0.1547 -0.4309  1.2314
55596SOL     OW71344   2.926   0.395   4.081 -1.0622  0.7267  0.6809
55596SOL    HW171345   2.875   0.457   4.029  2.0499  0.7219 -2.7315
55596SOL    HW271346   2.895   0.309   4.052 -0.4381  0.7188  0.0331
55597SOL     OW71347   6.315   7.159  11.553  0.3723  0.2936 -0.4419
55597SOL    HW171348   6.264   7.202  11.485 -0.3553 -1.3404 -0.9631
55597SOL    HW271349   6.323   7.225  11.622 -0.6480  1.2810 -1.2339
55598SOL     OW71350  10.388   7.112   1.549  0.9730 -0.0531  0.4065
55598SOL    HW171351  10.377   7.028   1.505  0.4148  0.0866  0.2728
55598SOL    HW271352  10.407   7.174   1.479  0.4030  0.1099  0.3885
55599SOL     OW71353   2.776   2.111   4.092  1.0449 -0.6357 -0.5428
55599SOL    HW171354   2.806   2.155   4.013  0.1058  0.1944 -0.4554
55599SOL    HW271355   2.680   2.118   4.089  0.9179 -1.8534 -0.0478
55600SOL     OW71356   1.646   7.043   5.360 -0.0156 -0.0504 -0.3978
55600SOL    HW171357   1.557   7.046   5.395 -0.1407 -0.4465 -0.6754
55600SOL    HW271358   1.696   6.993   5.424  0.0506  0.3309 -0.1495
55601SOL     OW71359   4.327  11.600   5.321 -0.2783 -0.6048 -0.4156
55601SOL    HW171360   4.295  11.529   5.266  0.7365 -0.6934 -0.9112
55601SOL    HW271361   4.407  11.566   5.360  0.8373  0.6355 -1.5347
55602SOL     OW71362   9.062   6.716   8.821 -0.4757  0.2732 -0.2460
55602SOL    HW171363   9.010   6.790   8.791 -1.1332 -0.1266 -0.1048
55602SOL    HW271364   9.069   6.659   8.744  2.3818  1.7412 -1.2085
55603SOL     OW71365   9.464   6.539   6.203 -0.3546  0.3517 -0.3372
55603SOL    HW171366   9.400   6.573   6.141 -0.5855  1.3535  0.4209
55603SOL    HW271367   9.417   6.532   6.286  0.3288  0.4564  0.0713
55604SOL     OW71368   9.757   2.310   9.928  0.1610 -0.2345 -0.4756
55604SOL    HW171369   9.731   2.309   9.836 -1.1217 -0.9150 -0.1331
55604SOL    HW271370   9.723   2.393   9.962 -1.7096 -1.1185 -0.0308
55605SOL     OW71371   3.560   3.565  10.539  0.6444 -0.5626  0.2291
55605SOL    HW171372   3.516   3.544  10.457 -1.7092  2.3753  0.5287
55605SOL    HW271373   3.503   3.631  10.580  3.2399  0.3159  2.7953
55606SOL     OW71374   8.817   4.858   0.539 -0.2264 -1.0830 -0.2346
55606SOL    HW171375   8.801   4.774   0.497  1.5547 -0.9808 -1.1862
55606SOL    HW271376   8.846   4.915   0.468  2.5956 -0.8142  1.0108
55607SOL     OW71377   7.521   0.676   9.838 -0.0056 -0.0803 -1.1840
55607SOL    HW171378   7.471   0.594   9.845  1.0000 -0.9483 -3.2032
55607SOL    HW271379   7.565   0.685   9.922 -1.2302 -0.8543 -0.4266
55608SOL     OW71380   5.154   2.064   7.980 -0.2146 -0.2465 -0.2347
55608SOL    HW171381   5.114   2.059   8.067  0.4653  1.8605  0.2622
55608SOL    HW271382   5.238   2.020   7.989 -0.1706 -0.0835  0.1642
55609SOL     OW71383   2.638   3.905   7.582 -0.3650 -0.0131 -0.1038
55609SOL    HW171384   2.644   3.914   7.487  1.2865  1.9023  0.0978
55609SOL    HW271385   2.716   3.950   7.615 -1.8813  1.1111  2.2247
55610SOL     OW71386   1.107   6.892   8.790 -0.2859  0.1490  0.2224
55610SOL    HW171387   1.100   6.986   8.776  0.2928  0.2731  0.7443
55610SOL    HW271388   1.168   6.861   8.723 -0.5117  0.1273  0.0220
55611SOL     OW71389   9.461   5.311   8.938  0.0838  0.0749 -0.3478
55611SOL    HW171390   9.414   5.360   8.870 -1.8636 -2.8274 -1.2662
55611SOL    HW271391   9.393   5.289   9.002  1.3876  0.5144  1.2653
55612SOL     OW71392   4.542   3.481   4.766  0.3885 -0.4952 -0.2023
55612SOL    HW171393   4.530   3.387   4.775  1.9461 -0.6567  0.5632
55612SOL    HW271394   4.598   3.491   4.690  0.2461 -0.1899 -0.2680
55613SOL     OW71395   7.721   6.100   3.164  0.3614 -0.7175  0.1901
55613SOL    HW171396   7.695   6.123   3.075  1.7368  1.1917  0.2076
55613SOL    HW271397   7.642   6.111   3.216  0.1200  0.6955 -0.4198
55614SOL     OW71398  11.472  10.254   1.618  0.6016  0.4717 -0.4104
55614SOL    HW171399  11.517  10.229   1.538  2.1918  1.0900  0.2365
55614SOL    HW271400  11.509  10.197   1.685  1.3278  1.7668  0.3452
55615SOL     OW71401   0.841   1.406   2.478  0.4965 -0.1523  0.5598
55615SOL    HW171402   0.904   1.343   2.511  0.2148 -1.0033 -0.4824
55615SOL    HW271403   0.891   1.464   2.421  0.5067 -0.2882  0.4296
55616SOL     OW71404   0.472   4.966  10.415  0.8235 -0.4492 -0.4126
55616SOL    HW171405   0.503   4.961  10.506  0.9792 -2.7637 -0.5197
55616SOL    HW271406   0.397   5.025  10.418 -0.0085 -1.5125  1.5107
55617SOL     OW71407   6.413  10.753  10.221  0.6932 -0.8996  0.1613
55617SOL    HW171408   6.351  10.708  10.279 -0.8355  0.0952 -0.6012
55617SOL    HW271409   6.400  10.846  10.240  1.9533 -0.6700 -0.0421
55618SOL     OW71410   3.682   2.180   1.247  0.3301 -0.0484 -0.8013
55618SOL    HW171411   3.705   2.211   1.159 -0.2793 -0.2608 -1.0408
55618SOL    HW271412   3.682   2.085   1.240  2.8460 -0.2114  0.0941
55619SOL     OW71413   7.301   0.183   1.121 -0.2491 -0.2212  0.7404
55619SOL    HW171414   7.330   0.096   1.151  1.0282  0.1918  0.7792
55619SOL    HW271415   7.230   0.207   1.180  0.5904 -0.4804  1.8816
55620SOL     OW71416   9.753  11.458   0.738  0.1203 -0.5257 -0.9164
55620SOL    HW171417   9.847  11.438   0.739  0.5708  1.3623  0.4697
55620SOL    HW271418   9.731  11.474   0.830 -1.5414 -0.8426 -1.2369
55621SOL     OW71419   5.546   7.778   1.715  0.8038 -0.0816 -0.8345
55621SOL    HW171420   5.452   7.772   1.697  0.7537 -1.5759 -0.2700
55621SOL    HW271421   5.588   7.774   1.629  0.3383  3.5419 -1.3740
55622SOL     OW71422   5.663   1.971   9.640 -0.1478 -0.5662 -0.2836
55622SOL    HW171423   5.749   1.978   9.599 -0.3348 -1.5327 -0.8860
55622SOL    HW271424   5.666   1.888   9.687 -1.5708 -1.9241 -2.4095
55623SOL     OW71425  10.088  10.948   2.461 -0.1960  0.1095  0.1997
55623SOL    HW171426  10.089  10.965   2.555 -2.7783 -0.0873  0.3303
55623SOL    HW271427  10.180  10.933   2.438  0.5441  0.6246  2.5810
55624SOL     OW71428   3.579   8.994   2.132 -0.8563 -0.2655  0.0082
55624SOL    HW171429   3.500   9.004   2.185 -0.3671  2.0240  0.4066
55624SOL    HW271430   3.651   9.011   2.192 -0.1977  0.4402 -0.9477
55625SOL     OW71431   9.356  11.729   2.246 -0.1467  0.3882  0.0489
55625SOL    HW171432   9.417  11.720   2.320  0.0922 -0.4948 -0.2487
55625SOL    HW271433   9.292  11.793   2.277  0.2888  0.4870  0.7968
55626SOL     OW71434   3.194   2.914   8.618  0.3734 -0.0619 -0.3240
55626SOL    HW171435   3.195   2.837   8.561 -2.3091 -0.7548  0.4261
55626SOL    HW271436   3.179   2.987   8.558  0.5654 -0.4109 -0.8047
55627SOL     OW71437   1.926   9.807  10.196 -0.2726 -0.0969 -0.4434
55627SOL    HW171438   2.011   9.847  10.214 -0.6359  1.1333 -1.2588
55627SOL    HW271439   1.896   9.773  10.280  0.6082  0.2977  0.0397
55628SOL     OW71440  11.222   9.633   2.928 -0.5686  0.0671 -0.0126
55628SOL    HW171441  11.296   9.681   2.890 -1.2365 -0.2399 -1.7948
55628SOL    HW271442  11.185   9.693   2.992  0.7778  0.5033  0.3925
55629SOL     OW71443   3.952   4.188   3.736  0.0294 -0.1141  0.1935
55629SOL    HW171444   3.947   4.253   3.806 -1.3574  1.4175 -1.2339
55629SOL    HW271445   4.017   4.223   3.675  1.0001 -1.2805  0.5230
55630SOL     OW71446   8.167   0.465   5.500  0.4079 -0.0573  0.1937
55630SOL    HW171447   8.092   0.523   5.510 -2.3072 -2.9315 -1.7828
55630SOL    HW271448   8.207   0.491   5.417 -0.1092 -0.2783 -0.1255
55631SOL     OW71449   2.773   5.610   9.085  0.0301 -0.4059  0.7143
55631SOL    HW171450   2.856   5.627   9.041 -0.3896 -2.5433 -1.1130
55631SOL    HW271451   2.744   5.696   9.116  2.6975  0.4484  1.0927
55632SOL     OW71452   6.367   4.902   8.769 -0.0465  0.3199 -0.1495
55632SOL    HW171453   6.315   4.823   8.756  0.2723  0.1372 -0.3271
55632SOL    HW271454   6.456   4.870   8.784  0.0820  0.6443 -0.2186
55633SOL     OW71455   6.078   8.597   2.248  0.1815 -0.1953  0.0849
55633SOL    HW171456   6.081   8.583   2.154 -2.3248 -0.5361 -0.0019
55633SOL    HW271457   6.029   8.523   2.283 -2.4222  1.8333  1.1171
55634SOL     OW71458   6.972   1.694   5.992  0.1290  0.2886  0.0493
55634SOL    HW171459   7.008   1.773   5.952 -0.0478  0.9169  1.1032
55634SOL    HW271460   6.877   1.706   5.990  0.0381 -0.4701 -0.9134
55635SOL     OW71461   9.034   5.878  10.210  0.1853 -0.1678  0.7099
55635SOL    HW171462   8.947   5.887  10.170 -0.3184  0.9584  2.0048
55635SOL    HW271463   9.074   5.805  10.162 -0.9736  0.1206 -0.7850
55636SOL     OW71464   4.126  11.409   0.497  0.3222  0.3577  0.2245
55636SOL    HW171465   4.212  11.397   0.539  0.9144 -1.1554 -1.2735
55636SOL    HW271466   4.139  11.374   0.409 -1.6478  0.8138 -0.2714
55637SOL     OW71467   8.814   2.963  11.092  0.8490  0.1240 -0.1182
55637SOL    HW171468   8.844   2.947  11.181  1.7995  0.8623 -0.2892
55637SOL    HW271469   8.846   3.051  11.071  2.9860 -0.9983 -2.1079
55638SOL     OW71470  10.413   9.789   2.931 -0.1541 -0.0550 -0.4046
55638SOL    HW171471  10.460   9.863   2.894  0.3084 -0.6234 -0.9877
55638SOL    HW271472  10.437   9.715   2.874 -1.2247 -0.4888 -0.3164
55639SOL     OW71473   3.196   0.628   7.855 -0.5258  0.0113  0.3783
55639SOL    HW171474   3.136   0.554   7.846 -2.5718  1.3232  2.3039
55639SOL    HW271475   3.282   0.587   7.868 -1.5103 -2.0182  0.9698
55640SOL     OW71476   1.067   5.306   2.326  0.5446  0.5579  0.0614
55640SOL    HW171477   1.061   5.354   2.409 -1.8450  1.2755 -0.4309
55640SOL    HW271478   0.988   5.332   2.278  0.6786 -1.6234 -1.4941
55641SOL     OW71479   3.200   1.625   3.282 -0.0426 -0.4949  0.2920
55641SOL    HW171480   3.226   1.715   3.304  0.6714 -0.7547  0.5373
55641SOL    HW271481   3.110   1.618   3.314  0.3348 -0.2674  1.4368
55642SOL     OW71482   6.393   1.077   7.591 -0.0064 -0.3161 -0.0815
55642SOL    HW171483   6.347   1.110   7.513  1.5350  1.1507 -0.4437
55642SOL    HW271484   6.462   1.022   7.556  1.1689  0.9479  0.1469
55643SOL     OW71485   4.186   8.320   3.462  0.4578  0.3231 -0.9030
55643SOL    HW171486   4.194   8.412   3.488  0.7946  0.1572 -0.4164
55643SOL    HW271487   4.147   8.324   3.374 -0.4920  0.8896 -0.4763
55644SOL     OW71488   5.077  10.777   2.401  0.5790 -0.0806 -0.0615
55644SOL    HW171489   5.128  10.853   2.373  1.0396 -0.3049  0.1584
55644SOL    HW271490   5.138  10.703   2.396  0.8628 -0.0579  2.0196
55645SOL     OW71491   4.914   5.395   9.070  0.4123 -0.0351 -0.3554
55645SOL    HW171492   4.887   5.487   9.078  2.8804  0.7666 -0.3003
55645SOL    HW271493   4.953   5.374   9.155 -1.5990 -1.7273  0.2203
55646SOL     OW71494   4.428   6.083   3.015 -0.2210 -0.1118 -0.5611
55646SOL    HW171495   4.370   6.012   2.988 -0.1542 -0.8005  1.0289
55646SOL    HW271496   4.514   6.058   2.981  0.0072 -1.3187  0.8300
55647SOL     OW71497   3.917   7.847   7.002  0.5128  0.7333  0.1923
55647SOL    HW171498   3.920   7.916   6.935 -0.8764 -0.0545 -0.7521
55647SOL    HW271499   4.005   7.845   7.039  1.0957  1.7532 -1.0549
55648SOL     OW71500   8.288   5.817   4.413  0.6762  0.2905 -0.3590
55648SOL    HW171501   8.281   5.721   4.412 -0.2825  0.3470 -0.9301
55648SOL    HW271502   8.288   5.841   4.320 -1.4760  0.9666 -0.2344
55649SOL     OW71503   2.233   2.566   1.753  0.0307  0.2722  0.1543
55649SOL    HW171504   2.214   2.659   1.738 -1.0129 -0.0613 -0.7366
55649SOL    HW271505   2.292   2.541   1.682 -1.2004 -0.1860 -0.7348
55650SOL     OW71506   7.211  10.121   4.421 -0.5653  0.0645  0.0888
55650SOL    HW171507   7.190  10.201   4.468 -1.8425 -0.3623  0.2976
55650SOL    HW271508   7.305  10.127   4.403 -0.8193  2.1139 -0.8533
55651SOL     OW71509   6.902   7.221   5.243  0.5415 -0.3594  0.6176
55651SOL    HW171510   6.806   7.220   5.247  0.5018  1.4564  1.0059
55651SOL    HW271511   6.928   7.143   5.291 -0.7440 -1.0407  0.2633
55652SOL     OW71512   8.989   8.858   6.230  0.5340 -0.1459 -0.3617
55652SOL    HW171513   8.968   8.770   6.262 -0.1538 -0.3887 -1.4376
55652SOL    HW271514   8.959   8.916   6.300 -1.3656 -0.6450 -0.6779
55653SOL     OW71515   5.773   2.836   2.131  0.2821 -0.1738 -0.6493
55653SOL    HW171516   5.860   2.798   2.145  0.0231 -0.6916 -0.4449
55653SOL    HW271517   5.712   2.768   2.159 -0.1752  0.7634  0.7470
55654SOL     OW71518   7.300   3.535  10.310  0.0156 -0.6111  0.1659
55654SOL    HW171519   7.297   3.479  10.388  0.5509 -1.7701 -0.6233
55654SOL    HW271520   7.212   3.527  10.272 -0.9002  1.4840  1.6387
55655SOL     OW71521   4.313   7.882   1.915  0.2719 -0.5164  0.4166
55655SOL    HW171522   4.353   7.808   1.869 -1.1164 -1.5376  0.7510
55655SOL    HW271523   4.253   7.921   1.852 -0.0327 -0.5620  0.6715
55656SOL     OW71524   8.161   2.887   7.324 -0.4386 -0.1730  0.5951
55656SOL    HW171525   8.176   2.795   7.344 -1.1900 -0.2281  0.9698
55656SOL    HW271526   8.113   2.920   7.400 -0.2690  0.4995  0.4144
55657SOL     OW71527   5.162   0.353   6.281  0.0964  0.1429 -0.3076
55657SOL    HW171528   5.195   0.264   6.285  2.4941  0.9580 -0.1450
55657SOL    HW271529   5.178   0.389   6.368 -0.6724  0.7830 -0.4187
55658SOL     OW71530   1.144   1.942   9.169  0.6715 -0.2264  0.7393
55658SOL    HW171531   1.057   1.903   9.177  1.1250 -1.0876  1.9429
55658SOL    HW271532   1.135   2.029   9.207 -0.2267  0.7124 -1.4762
55659SOL     OW71533  11.355   3.258   9.063 -0.1560 -0.6310 -0.0895
55659SOL    HW171534  11.344   3.201   9.139 -1.1533 -0.0175  0.2430
55659SOL    HW271535  11.375   3.344   9.100  1.0778 -0.6778 -0.5836
55660SOL     OW71536   4.483   2.055   0.268 -0.5138 -0.0563 -0.0057
55660SOL    HW171537   4.450   2.129   0.320 -0.3342 -0.3908  0.6009
55660SOL    HW271538   4.545   2.011   0.326  0.1518 -0.0915 -0.7320
55661SOL     OW71539   8.397   9.470   0.939  0.1869 -0.7956 -0.4582
55661SOL    HW171540   8.369   9.392   0.891 -0.4892 -1.7792  1.4246
55661SOL    HW271541   8.419   9.437   1.026  1.1137  0.9527  0.0047
55662SOL     OW71542   5.208   7.945  11.093  0.4268 -0.7112 -0.2163
55662SOL    HW171543   5.254   8.019  11.053 -2.1916  0.5853 -1.0616
55662SOL    HW271544   5.164   7.982  11.170 -0.4049 -1.5220 -0.2827
55663SOL     OW71545   3.823   0.807   6.296 -0.2103 -0.1589 -0.6488
55663SOL    HW171546   3.884   0.787   6.368  0.7961 -0.0203 -1.4299
55663SOL    HW271547   3.879   0.846   6.229 -1.5049  1.8799 -0.6213
55664SOL     OW71548   1.018   7.054  10.791 -0.2670  0.2002 -0.6682
55664SOL    HW171549   1.006   6.971  10.837  0.5744  0.2135 -0.3906
55664SOL    HW271550   1.064   7.030  10.710  1.3624  0.5362  0.1196
55665SOL     OW71551  11.279  11.397   9.372 -0.0941 -0.5081  0.1722
55665SOL    HW171552  11.312  11.486   9.359 -0.0196 -0.7091 -1.1307
55665SOL    HW271553  11.336  11.361   9.440  1.7310 -0.4737 -1.2327
55666SOL     OW71554   0.340   7.778   1.440 -0.0806  0.1632  0.0591
55666SOL    HW171555   0.419   7.830   1.455 -0.5795  1.6151 -2.0294
55666SOL    HW271556   0.359   7.728   1.361 -0.9364 -0.1646  0.0527
55667SOL     OW71557   0.036   9.906  11.468  0.1176 -0.0262 -0.7042
55667SOL    HW171558   0.066   9.815  11.460 -1.3040 -0.5017 -0.9647
55667SOL    HW271559   0.038   9.939  11.378  0.4869  0.1642 -0.6299
55668SOL     OW71560   0.407   9.240   6.268 -0.1149 -0.2281 -0.0661
55668SOL    HW171561   0.495   9.249   6.232 -0.3346 -1.8882 -1.1497
55668SOL    HW271562   0.358   9.196   6.198 -1.0574 -1.9237  1.5864
55669SOL     OW71563   0.636   9.075   6.467 -0.0037 -0.4183 -0.2788
55669SOL    HW171564   0.692   9.084   6.389 -0.5744 -0.9980 -0.7682
55669SOL    HW271565   0.557   9.032   6.434  0.0667 -1.3764  0.7751
55670SOL     OW71566   5.995   5.565   3.147 -0.5253  0.1379 -0.0041
55670SOL    HW171567   5.976   5.601   3.060 -0.6332  1.1583  0.4260
55670SOL    HW271568   6.089   5.579   3.159 -0.7583  1.3492  0.6137
55671SOL     OW71569   7.849   8.414   4.707  0.1453  0.5102  0.1451
55671SOL    HW171570   7.827   8.426   4.799  0.2713  2.1936 -0.0260
55671SOL    HW271571   7.774   8.449   4.659  0.1912 -0.1227 -0.4096
55672SOL     OW71572   8.378   7.094   2.215 -0.6346 -0.4880  0.1502
55672SOL    HW171573   8.427   7.078   2.296  0.6625  0.1015 -0.4879
55672SOL    HW271574   8.418   7.034   2.152  1.3782  2.0542 -1.1593
55673SOL     OW71575  10.000   1.146   5.257  0.0002  0.6949 -0.5026
55673SOL    HW171576   9.984   1.073   5.196 -0.9826  0.2882  0.2155
55673SOL    HW271577  10.038   1.214   5.202 -1.9477  0.7887 -1.8813
55674SOL     OW71578   7.584   8.138   1.507 -0.6400 -0.4753  0.1861
55674SOL    HW171579   7.547   8.222   1.534  0.6581 -0.3147  1.6206
55674SOL    HW271580   7.662   8.162   1.456 -1.0935 -0.8210 -0.6965
55675SOL     OW71581   4.652   2.912   1.097 -0.3373 -0.6266  0.2130
55675SOL    HW171582   4.713   2.971   1.054  1.2711 -3.1756 -1.2378
55675SOL    HW271583   4.568   2.927   1.054  0.2699 -0.1038 -0.8037
55676SOL     OW71584   6.807  11.696   0.836 -0.3063  0.3324  0.2156
55676SOL    HW171585   6.778  11.604   0.834  0.5927  0.0337 -1.0174
55676SOL    HW271586   6.732  11.745   0.868 -1.7467 -0.5509 -1.6095
55677SOL     OW71587   5.743   0.742   6.781  0.4611  0.3497 -0.2566
55677SOL    HW171588   5.720   0.807   6.716  1.6670 -0.4458 -1.5412
55677SOL    HW271589   5.712   0.659   6.745  0.4135 -0.0081  0.5730
55678SOL     OW71590   2.729   4.226   7.782 -0.3255 -0.2110  0.0850
55678SOL    HW171591   2.765   4.267   7.860  2.6258 -2.0812 -0.1334
55678SOL    HW271592   2.708   4.299   7.723  0.9082  1.0859  1.1936
55679SOL     OW71593   4.983   0.192  11.809  0.2744  0.4670  0.0016
55679SOL    HW171594   4.901   0.222  11.848 -0.7641 -1.9815 -0.0938
55679SOL    HW271595   5.007   0.115  11.861  2.1080  0.6543 -0.5008
55680SOL     OW71596   0.723   4.979  10.951  0.6559 -0.1050  0.8617
55680SOL    HW171597   0.809   4.954  10.916  0.1465 -2.0488  0.8515
55680SOL    HW271598   0.707   5.066  10.916  3.8870  1.6404  3.2847
55681SOL     OW71599   6.415   3.391   2.605 -0.4441 -0.1622  0.3135
55681SOL    HW171600   6.490   3.348   2.565 -0.2362 -0.0814  0.6114
55681SOL    HW271601   6.343   3.377   2.544 -0.5154 -1.3986  0.6622
55682SOL     OW71602   3.112   1.711   5.232  0.0917  0.3113  0.2756
55682SOL    HW171603   3.136   1.782   5.172  0.3151 -0.0061 -0.0093
55682SOL    HW271604   3.022   1.731   5.258 -0.7478 -0.6415 -1.7405
55683SOL     OW71605   2.941   1.509   1.587  0.2493 -0.5156  0.1956
55683SOL    HW171606   2.895   1.542   1.664  0.8078 -1.0895  0.7893
55683SOL    HW271607   2.907   1.420   1.575 -0.8591  0.0513 -1.0739
55684SOL     OW71608   8.743   2.231  10.570  0.2740 -0.0678  0.7170
55684SOL    HW171609   8.794   2.303  10.533  0.4362 -0.2632  0.5577
55684SOL    HW271610   8.785   2.151  10.536 -0.5414 -0.2189  0.0317
55685SOL     OW71611   0.627  11.391   1.310 -0.0810  0.0138 -0.0450
55685SOL    HW171612   0.699  11.417   1.367 -0.2091 -1.4472  0.8366
55685SOL    HW271613   0.668  11.335   1.243 -0.3396 -0.6015  0.3024
55686SOL     OW71614   3.496   2.226   0.760  0.3621 -0.0248  0.1424
55686SOL    HW171615   3.538   2.298   0.805 -1.2042  1.1618 -0.2144
55686SOL    HW271616   3.448   2.179   0.828  2.5704 -1.7375  0.6625
55687SOL     OW71617   6.969   1.277   4.444  0.5564 -0.4027  0.1444
55687SOL    HW171618   7.011   1.355   4.481  2.1709 -1.3193  0.3408
55687SOL    HW271619   7.014   1.263   4.360 -0.6392 -0.3769 -0.5264
55688SOL     OW71620   2.190   1.071   5.776 -0.3024  0.3837  1.0675
55688SOL    HW171621   2.130   1.081   5.702  0.0988  1.2704  0.8542
55688SOL    HW271622   2.138   1.026   5.842 -0.1896 -1.8585 -0.2942
55689SOL     OW71623   9.349   7.998   5.193 -0.5813 -0.0203 -0.2702
55689SOL    HW171624   9.430   8.048   5.195  0.2436 -1.3216  0.2628
55689SOL    HW271625   9.280   8.064   5.182  0.5181  1.1282 -0.4785
55690SOL     OW71626  11.374   4.444   0.778  0.3589  0.4984  0.0640
55690SOL    HW171627  11.350   4.537   0.776  0.8747  0.6488  0.6576
55690SOL    HW271628  11.458   4.440   0.733  1.7833  0.7865  2.5203
55691SOL     OW71629  11.874   2.498   3.594  0.4945  0.6220  0.3814
55691SOL    HW171630  11.908   2.548   3.669  0.5717 -0.2003  0.9080
55691SOL    HW271631  11.922   2.415   3.596 -0.2873  0.1481  0.0830
55692SOL     OW71632   4.288   0.726   6.987  0.0477  0.0500  0.0894
55692SOL    HW171633   4.245   0.781   7.053 -0.2873 -1.7331  1.4232
55692SOL    HW271634   4.291   0.639   7.026  0.0920 -1.0326 -2.1488
55693SOL     OW71635   5.656   6.876   8.372  0.7570 -0.8317  0.0106
55693SOL    HW171636   5.731   6.931   8.350  1.3391 -1.5034  0.2763
55693SOL    HW271637   5.692   6.788   8.380 -0.1797 -1.2798 -0.5225
55694SOL     OW71638   7.467   0.702  10.825 -0.4002  0.3454 -0.2753
55694SOL    HW171639   7.490   0.624  10.774 -0.5516  0.5052 -0.5895
55694SOL    HW271640   7.510   0.689  10.910 -1.0635 -0.4459 -0.0545
55695SOL     OW71641   2.511   8.369   6.572 -0.5701  0.1541  0.5953
55695SOL    HW171642   2.605   8.378   6.553 -0.1505 -3.1754  0.4392
55695SOL    HW271643   2.467   8.402   6.494  0.6167 -0.6041 -0.4358
55696SOL     OW71644  10.481  11.446   2.655  0.0217  0.1777 -0.6120
55696SOL    HW171645  10.477  11.526   2.603 -1.8598  0.6608  0.2043
55696SOL    HW271646  10.446  11.471   2.741 -1.1264 -1.6108 -0.5105
55697SOL     OW71647   7.331   7.941  11.579 -0.0917 -0.0080  0.0989
55697SOL    HW171648   7.418   7.980  11.566  0.3996 -0.9707  0.3609
55697SOL    HW271649   7.340   7.851  11.548 -0.8639 -0.2579  0.5677
55698SOL     OW71650   3.769   9.412   5.408 -0.5751  0.0960  0.1067
55698SOL    HW171651   3.720   9.378   5.482 -0.9953 -1.4238 -0.8113
55698SOL    HW271652   3.703   9.450   5.350 -0.5412 -0.7485 -0.5100
55699SOL     OW71653   4.005  10.726   7.933 -0.2503  0.1008 -0.3671
55699SOL    HW171654   3.973  10.781   7.861 -1.0545  0.2233  0.0691
55699SOL    HW271655   3.928  10.712   7.988 -0.9598 -4.0948 -2.0412
55700SOL     OW71656   1.476   9.252   6.310 -0.1524 -0.8935 -0.2852
55700SOL    HW171657   1.449   9.181   6.252  2.4432 -1.1018 -1.3558
55700SOL    HW271658   1.564   9.228   6.339 -0.0314  0.8822  1.0229
55701SOL     OW71659  10.783   6.732   8.648  0.5508  0.2309  0.8757
55701SOL    HW171660  10.820   6.719   8.561  0.1380  0.4165  0.6726
55701SOL    HW271661  10.813   6.819   8.675  0.7736  0.1265  0.9685
55702SOL     OW71662  10.789   4.632   0.617  0.1859 -0.2341  0.4625
55702SOL    HW171663  10.858   4.566   0.623 -1.0116 -1.4846  1.1092
55702SOL    HW271664  10.740   4.623   0.700 -0.1093  1.3554  0.4856
55703SOL     OW71665   0.740   4.308   7.426 -0.0893 -0.1701 -0.7965
55703SOL    HW171666   0.819   4.327   7.476 -0.8650  0.7202  0.1331
55703SOL    HW271667   0.770   4.302   7.335  0.9401  0.8275 -0.5490
55704SOL     OW71668   4.091   5.452   6.728  0.0437 -0.1106 -0.7175
55704SOL    HW171669   4.037   5.448   6.649 -0.6506 -0.3914 -0.2331
55704SOL    HW271670   4.054   5.386   6.786  0.8439 -0.2327 -0.3309
55705SOL     OW71671   8.171   5.138   3.672  0.4538  0.5318 -0.4298
55705SOL    HW171672   8.152   5.045   3.682 -0.6926  0.9001  1.0852
55705SOL    HW271673   8.093   5.174   3.629 -0.3174  1.2374  1.4863
55706SOL     OW71674   5.154   4.979   9.966 -0.3763  0.6080  0.2439
55706SOL    HW171675   5.096   5.050   9.994 -0.5966  0.8848 -0.8622
55706SOL    HW271676   5.107   4.899   9.991  0.4623  0.8057  2.6817
55707SOL     OW71677   7.528   0.213   1.834 -0.4246  0.1620  0.6081
55707SOL    HW171678   7.478   0.293   1.816  0.9272  0.8198 -0.4312
55707SOL    HW271679   7.570   0.192   1.750  1.0977 -0.2923  1.4451
55708SOL     OW71680   4.807   1.875  10.225 -0.0796  0.2135  0.4796
55708SOL    HW171681   4.806   1.830  10.309  0.9096  1.3663  1.1393
55708SOL    HW271682   4.756   1.955  10.241  1.5704  1.2956  0.5138
55709SOL     OW71683   4.334   6.523   8.006  0.1074 -0.1808  0.1818
55709SOL    HW171684   4.275   6.577   7.953 -0.4281 -2.1990 -1.3758
55709SOL    HW271685   4.419   6.568   8.000 -0.0453 -0.0700 -2.0320
55710SOL     OW71686  10.616   9.606   4.592  0.6295 -0.5356  0.2858
55710SOL    HW171687  10.628   9.678   4.531  1.4410 -0.5528  0.4172
55710SOL    HW271688  10.543   9.634   4.647  1.0871  0.2935  0.4913
55711SOL     OW71689  11.992   9.820   9.641  0.0561 -0.4920 -0.3019
55711SOL    HW171690  11.988   9.751   9.707 -0.0910  0.6962  0.9877
55711SOL    HW271691  12.079   9.858   9.651  0.6928 -1.4003 -2.0086
55712SOL     OW71692   8.377   1.767   9.685 -0.2930 -0.0401  0.2056
55712SOL    HW171693   8.412   1.682   9.711  0.1662  0.2215  0.4479
55712SOL    HW271694   8.388   1.770   9.590  0.5296  0.1197  0.2991
55713SOL     OW71695   7.460   8.209  11.791  0.4394  0.2567  0.1358
55713SOL    HW171696   7.475   8.127  11.838  1.1049  0.2163 -0.1381
55713SOL    HW271697   7.378   8.196  11.745  0.8740 -0.5206 -0.4528
55714SOL     OW71698   2.393   7.059   9.296  0.3013  0.1940  0.2713
55714SOL    HW171699   2.393   6.974   9.339 -3.5372  0.5727  1.4204
55714SOL    HW271700   2.401   7.039   9.202  0.0148 -1.3878  0.5561
55715SOL     OW71701   0.288   9.154   4.444 -0.0888 -0.4152  0.1879
55715SOL    HW171702   0.209   9.147   4.497  0.2084 -2.2174  0.4585
55715SOL    HW271703   0.310   9.063   4.422  0.9071  0.1697 -1.3765
55716SOL     OW71704   6.085   7.155   0.346  0.1879  0.1458 -0.3960
55716SOL    HW171705   6.163   7.141   0.293 -0.6049 -1.3152 -1.2217
55716SOL    HW271706   6.078   7.077   0.401 -2.0246 -0.9857 -2.1220
55717SOL     OW71707   0.959   0.963   8.071 -0.5556 -0.8603  0.0354
55717SOL    HW171708   0.950   1.033   8.135  0.9674  0.0218 -0.6340
55717SOL    HW271709   0.887   0.977   8.010 -0.5678 -0.1773  0.1927
55718SOL     OW71710   9.103   3.849   4.232 -0.0164  0.6927 -0.2664
55718SOL    HW171711   9.084   3.838   4.325 -1.7607 -0.9272 -0.7433
55718SOL    HW271712   9.101   3.944   4.218 -0.5140  0.9237  1.1978
55719SOL     OW71713   5.917  10.552   9.879 -0.2164 -0.0366 -0.6875
55719SOL    HW171714   5.925  10.608   9.956 -3.4138 -0.6285  0.2492
55719SOL    HW271715   5.943  10.465   9.909 -3.1750 -0.6670  0.4582
55720SOL     OW71716   3.178   5.070   2.930 -0.2317 -0.0773  0.2753
55720SOL    HW171717   3.137   5.156   2.936 -1.5577 -0.6913  0.3097
55720SOL    HW271718   3.265   5.087   2.892 -0.7711  1.1799 -0.4392
55721SOL     OW71719   0.731   7.907   2.885 -0.4564 -0.1092 -0.2136
55721SOL    HW171720   0.709   7.831   2.939  2.9227 -0.9701  0.1805
55721SOL    HW271721   0.751   7.869   2.799 -1.6674  0.7391 -0.8910
55722SOL     OW71722   9.912   9.305   8.992 -0.3495 -0.2085  0.2738
55722SOL    HW171723   9.936   9.256   8.913  0.3175  0.9176 -0.2487
55722SOL    HW271724   9.956   9.259   9.063 -0.0829 -0.6140 -0.1504
55723SOL     OW71725   3.122   4.682   5.169  0.0041  0.0040 -0.1975
55723SOL    HW171726   3.184   4.750   5.144 -0.0857 -0.3870 -1.5902
55723SOL    HW271727   3.061   4.726   5.228 -0.2185  1.2305 -1.2940
55724SOL     OW71728   6.501   7.934  10.505  0.1642 -0.2055 -0.3835
55724SOL    HW171729   6.454   8.016  10.520  1.1088  0.1963  0.4394
55724SOL    HW271730   6.525   7.904  10.592 -0.3420 -1.4836 -0.6559
55725SOL     OW71731   8.120   7.918   7.593  0.3658  0.6273  0.1539
55725SOL    HW171732   8.082   8.005   7.607 -0.4622 -0.1055  3.4738
55725SOL    HW271733   8.045   7.862   7.572  0.4386  0.2118  0.9680
55726SOL     OW71734   2.372   0.132   0.756  0.3332 -0.2642  0.2368
55726SOL    HW171735   2.364   0.096   0.844  0.1227  1.6329  1.0316
55726SOL    HW271736   2.379   0.227   0.769 -0.2593  0.1036 -1.8160
55727SOL     OW71737   6.865   2.981  10.788 -0.0812 -0.5000  0.1077
55727SOL    HW171738   6.840   2.916  10.723 -0.4701  0.3961 -0.6560
55727SOL    HW271739   6.944   3.022  10.753 -1.4393  1.4358 -0.8824
55728SOL     OW71740  11.006   6.622   1.216 -1.0677 -1.0370  0.5461
55728SOL    HW171741  11.083   6.649   1.167 -1.4708  0.0235  0.4634
55728SOL    HW271742  10.969   6.550   1.166 -1.6016  0.1672 -0.8581
55729SOL     OW71743   9.405   2.220   7.430 -0.4262  0.0104  0.3776
55729SOL    HW171744   9.431   2.137   7.390  0.4250  0.3147  0.2712
55729SOL    HW271745   9.486   2.271   7.434 -1.3010  1.7226 -1.6525
55730SOL     OW71746   5.187   1.400   1.668  0.4369 -0.1198  0.3845
55730SOL    HW171747   5.252   1.366   1.607  1.5871  0.4101  1.2748
55730SOL    HW271748   5.113   1.339   1.661  1.1384 -0.9036 -0.4266
55731SOL     OW71749   4.304   1.145  11.877  0.1739  0.1664 -0.4205
55731SOL    HW171750   4.305   1.074  11.941  0.6071  1.4500  1.0601
55731SOL    HW271751   4.358   1.213  11.916 -0.9298  1.6631 -1.3824
55732SOL     OW71752   8.581   7.196   1.223  0.1778 -0.1118 -0.9002
55732SOL    HW171753   8.498   7.148   1.216  0.6031 -0.9011 -0.6465
55732SOL    HW271754   8.562   7.281   1.183 -0.3752 -0.7686 -2.1000
55733SOL     OW71755   2.920   4.505   2.729 -0.0724 -0.1839 -0.0547
55733SOL    HW171756   2.832   4.472   2.745 -0.9191  2.0490  0.2433
55733SOL    HW271757   2.953   4.529   2.815  0.4023  0.0237 -0.2899
55734SOL     OW71758   0.743   9.960   9.464  0.5215  0.2158  0.3377
55734SOL    HW171759   0.663   9.910   9.446 -0.1108  1.5648 -0.7666
55734SOL    HW271760   0.808   9.922   9.406  0.3929 -0.1613  0.4367
55735SOL     OW71761   8.024   5.923   6.270 -0.1415 -0.0834  0.3982
55735SOL    HW171762   8.024   5.957   6.180 -3.5961 -1.3923 -0.2420
55735SOL    HW271763   8.054   5.832   6.261  2.3702  0.5784  1.1206
55736SOL     OW71764   2.509   3.241   9.232  0.2942  0.2089 -0.2191
55736SOL    HW171765   2.569   3.198   9.172  1.5247  0.9803  0.4273
55736SOL    HW271766   2.523   3.198   9.316 -1.9898 -1.4206 -0.5562
55737SOL     OW71767   4.714   4.138   6.521 -0.7227  0.3277 -0.1969
55737SOL    HW171768   4.672   4.053   6.532 -0.3565  0.2469  0.6169
55737SOL    HW271769   4.771   4.126   6.445 -0.5573 -0.1988  0.0066
55738SOL     OW71770   8.084  11.453   2.358  0.0401 -0.0022  0.3509
55738SOL    HW171771   8.156  11.502   2.397 -0.1238  1.0268 -0.5855
55738SOL    HW271772   8.125  11.401   2.289 -0.2136  1.2878 -0.8029
55739SOL     OW71773   5.629   2.464   3.091 -0.0294 -0.0391 -0.2720
55739SOL    HW171774   5.715   2.458   3.134  0.1900 -2.1009 -0.9169
55739SOL    HW271775   5.627   2.390   3.031 -1.4718  1.1455 -1.7678
55740SOL     OW71776   8.630   6.637   2.196  0.3697  0.1078  0.2971
55740SOL    HW171777   8.724   6.648   2.183  0.6702 -1.4125  1.0012
55740SOL    HW271778   8.616   6.652   2.289 -0.2288  1.1044  0.0645
55741SOL     OW71779  10.413   8.311   2.233 -0.2740  0.2819  0.1430
55741SOL    HW171780  10.385   8.403   2.237  3.0933  1.4582  0.4201
55741SOL    HW271781  10.405   8.287   2.141 -2.3974  0.3557  0.2602
55742SOL     OW71782   5.602   7.395   3.805 -0.4144 -0.0999  0.3952
55742SOL    HW171783   5.674   7.343   3.841 -1.1916 -1.0818  0.5606
55742SOL    HW271784   5.528   7.335   3.801 -0.7050  0.3029 -1.6796
55743SOL     OW71785   8.775   9.207   4.543  0.1913  0.4521  0.0757
55743SOL    HW171786   8.701   9.257   4.508 -0.3765 -0.3236  0.1399
55743SOL    HW271787   8.851   9.264   4.530 -0.7386  2.3575  2.2516
55744SOL     OW71788  11.725   2.175  10.162  0.0349 -0.0444 -0.5918
55744SOL    HW171789  11.672   2.187  10.241  1.6873 -1.7816  0.8674
55744SOL    HW271790  11.782   2.252  10.159 -0.5909  0.4296 -0.5696
55745SOL     OW71791   0.762  11.602   9.087  0.2733 -0.5658 -0.4034
55745SOL    HW171792   0.690  11.582   9.148 -0.6981 -0.1569 -1.3732
55745SOL    HW271793   0.773  11.522   9.036 -0.4504 -0.1969 -1.1698
55746SOL     OW71794   6.440  11.481   4.609  0.1139  0.0048 -0.2823
55746SOL    HW171795   6.462  11.569   4.638 -1.3146  0.1148  0.5861
55746SOL    HW271796   6.492  11.423   4.665  0.5562  0.2757 -0.4083
55747SOL     OW71797   6.187   7.903  10.651  0.5391  0.1482  0.3876
55747SOL    HW171798   6.130   7.907  10.575  0.0716 -1.2720  0.6291
55747SOL    HW271799   6.143   7.955  10.717  0.3850  0.4697  0.0313
55748SOL     OW71800   4.588   1.235   8.224 -0.0499  0.1543 -0.0950
55748SOL    HW171801   4.496   1.210   8.237  0.0495 -0.2935 -0.2370
55748SOL    HW271802   4.608   1.205   8.136 -0.0428  1.1100 -0.4255
55749SOL     OW71803   3.569   8.575   5.233 -0.1791 -0.8561  0.1876
55749SOL    HW171804   3.483   8.540   5.209  0.1869 -0.7208 -1.4118
55749SOL    HW271805   3.630   8.505   5.212  0.1848 -0.6449  0.5322
55750SOL     OW71806   1.781   6.486   6.373  0.5035  0.2701 -0.0952
55750SOL    HW171807   1.854   6.518   6.321 -0.8055 -1.7241 -3.4678
55750SOL    HW271808   1.712   6.469   6.309 -1.3913 -2.0731  2.3656
55751SOL     OW71809   0.596   8.781   9.448 -0.1945  0.1165 -0.2544
55751SOL    HW171810   0.577   8.861   9.399  1.6260  0.0406 -1.1668
55751SOL    HW271811   0.551   8.792   9.531 -1.2970  1.3707 -0.9823
55752SOL     OW71812   3.174  11.534   4.918  0.5090 -0.0415  0.0809
55752SOL    HW171813   3.168  11.504   5.008 -1.9570 -0.5522 -0.1781
55752SOL    HW271814   3.182  11.630   4.925 -1.5125  0.1333  0.8988
55753SOL     OW71815   8.885   1.260  11.789  0.3817  0.0158  0.0997
55753SOL    HW171816   8.904   1.247  11.696  0.6622  0.8341  0.0408
55753SOL    HW271817   8.865   1.172  11.821  1.9010 -0.5330 -0.3647
55754SOL     OW71818   2.194   0.896   5.989 -0.0331  0.4867  0.6665
55754SOL    HW171819   2.281   0.875   6.024 -0.0077 -0.5218  0.0436
55754SOL    HW271820   2.152   0.947   6.058  1.8080  2.8903  0.1313
55755SOL     OW71821   7.951   2.276   5.941  0.1268  0.1936  0.2311
55755SOL    HW171822   8.010   2.295   6.013  0.2590  1.0861 -0.1023
55755SOL    HW271823   7.914   2.361   5.916 -0.1625 -0.1418 -0.5406
55756SOL     OW71824   0.335   3.872   3.805 -0.1239 -0.0732  0.5951
55756SOL    HW171825   0.354   3.789   3.760  0.7658  1.3229 -1.8571
55756SOL    HW271826   0.241   3.886   3.793  0.0953  0.2627 -0.9457
55757SOL     OW71827   9.481   6.090   6.912 -0.3647 -0.2994  0.4256
55757SOL    HW171828   9.463   6.183   6.899  1.0123  0.1753  1.7237
55757SOL    HW271829   9.500   6.081   7.005 -0.2035 -1.8353  0.2766
55758SOL     OW71830   7.353   6.337   8.003  0.0692  0.6812  0.1239
55758SOL    HW171831   7.334   6.410   7.944  0.4674  0.2001 -0.5994
55758SOL    HW271832   7.284   6.273   7.984  0.8947  0.0201 -0.6764
55759SOL     OW71833   2.488  11.792  11.108 -0.1507  0.1618  0.4620
55759SOL    HW171834   2.497  11.764  11.199  1.2131 -1.5744 -0.1453
55759SOL    HW271835   2.516  11.884  11.108  3.1123 -0.7160  1.3279
55760SOL     OW71836   6.209   8.403   8.311  0.3504  0.0420 -0.2326
55760SOL    HW171837   6.301   8.430   8.309  0.3115  0.1537 -0.9336
55760SOL    HW271838   6.181   8.418   8.401  0.9243  0.3456 -0.1011
55761SOL     OW71839   6.720   5.852   1.963 -0.7837 -0.0627 -0.3121
55761SOL    HW171840   6.752   5.881   1.878 -1.5516 -1.5643 -1.1584
55761SOL    HW271841   6.768   5.905   2.026 -0.1867  1.0763 -1.6736
55762SOL     OW71842  10.803   1.247   3.531 -0.2423  0.4479  0.4063
55762SOL    HW171843  10.745   1.322   3.548 -0.0283  0.3335  1.7506
55762SOL    HW271844  10.759   1.174   3.573  0.6066  0.2483  0.9545
55763SOL     OW71845   9.078   8.169   7.521  0.0218  0.3510 -0.0550
55763SOL    HW171846   9.089   8.114   7.598  0.0205  1.2309  0.5930
55763SOL    HW271847   9.064   8.108   7.449  1.4262 -0.5433  0.3891
55764SOL     OW71848   2.518  10.779   3.554  0.1664 -0.4127  0.1362
55764SOL    HW171849   2.555  10.758   3.468 -0.3615  0.1807 -0.2472
55764SOL    HW271850   2.593  10.779   3.613  1.1950  2.7133 -0.9655
55765SOL     OW71851   7.480   9.647   3.996 -0.0673 -0.0640  0.8036
55765SOL    HW171852   7.475   9.568   4.050 -1.6102 -0.2825  0.3858
55765SOL    HW271853   7.498   9.614   3.908 -1.2806 -0.0061  0.5246
55766SOL     OW71854  10.959   9.955  10.258  0.1466  0.5433 -0.0117
55766SOL    HW171855  10.896   9.920  10.194  1.2534  1.1836 -1.5035
55766SOL    HW271856  10.970   9.884  10.322 -1.5570  0.1649 -0.0785
55767SOL     OW71857   0.679   1.898   7.774 -0.6242 -0.0728 -0.0969
55767SOL    HW171858   0.635   1.934   7.852 -0.5275  0.3853 -0.2485
55767SOL    HW271859   0.772   1.908   7.793 -0.5854  1.4826 -0.8974
55768SOL     OW71860   5.357  10.967   4.593  0.0404  0.2008  0.7985
55768SOL    HW171861   5.442  10.958   4.636 -0.5149  0.3791  1.9538
55768SOL    HW271862   5.374  10.943   4.502  1.3938  0.5379  0.9411
55769SOL     OW71863   9.712   2.787   1.159  0.6703 -0.2269  0.0535
55769SOL    HW171864   9.772   2.764   1.230  0.2448  1.5286  1.0311
55769SOL    HW271865   9.739   2.875   1.132 -0.3552 -0.1237 -0.6873
55770SOL     OW71866   1.531   4.029   0.840  0.4978 -0.2692 -0.1373
55770SOL    HW171867   1.610   3.996   0.798  0.3047  0.1842 -0.8823
55770SOL    HW271868   1.540   4.125   0.837 -0.8003 -0.1550 -1.7051
55771SOL     OW71869  11.378   0.046  11.301  0.1456  0.2449  0.1606
55771SOL    HW171870  11.328  -0.025  11.261  0.4430  0.1736 -0.0873
55771SOL    HW271871  11.465   0.039  11.262  0.6151 -0.1920  1.2429
55772SOL     OW71872   8.442   2.496   8.176 -0.1220 -0.0102  0.1683
55772SOL    HW171873   8.522   2.546   8.191 -0.1556  0.1373 -0.1350
55772SOL    HW271874   8.374   2.546   8.222 -0.2591  0.5455 -0.6206
55773SOL     OW71875  11.927   6.093   5.507  0.0328  0.1290 -0.3162
55773SOL    HW171876  11.959   6.160   5.447 -0.7294  1.2886  0.5260
55773SOL    HW271877  12.006   6.047   5.537  0.5585  0.6312 -0.9092
55774SOL     OW71878   4.299  10.988   3.596  0.2194  0.0407  0.0836
55774SOL    HW171879   4.253  11.065   3.628 -0.4735 -0.9780  1.6730
55774SOL    HW271880   4.233  10.938   3.548  0.8723  0.7933 -1.7029
55775SOL     OW71881   5.352   7.947  11.462  0.3844  0.0357  0.3381
55775SOL    HW171882   5.334   8.037  11.488  0.6989  0.7958 -1.8986
55775SOL    HW271883   5.275   7.898  11.490 -1.5130  1.7045 -1.6645
55776SOL     OW71884   9.427   4.019   2.150 -0.2341 -0.1395  0.3692
55776SOL    HW171885   9.346   4.060   2.122  0.0940 -0.6403 -1.4815
55776SOL    HW271886   9.442   3.950   2.085  2.3932  0.8553 -0.1796
55777SOL     OW71887   7.416   2.670   3.544  0.1591  0.1160 -0.0199
55777SOL    HW171888   7.435   2.658   3.637 -1.6364 -0.6718  0.3044
55777SOL    HW271889   7.419   2.765   3.531  0.9571  0.2010  0.7068
55778SOL     OW71890   5.805  10.780   5.037  0.5489  0.1198  0.2133
55778SOL    HW171891   5.873  10.720   5.066  2.5049  1.5238 -1.2232
55778SOL    HW271892   5.791  10.839   5.111  2.0436  0.7455  0.0373
55779SOL     OW71893   3.639   8.385  10.622  0.2533 -0.3136 -0.1190
55779SOL    HW171894   3.664   8.475  10.643 -0.3332  0.1105 -1.1558
55779SOL    HW271895   3.719   8.335  10.633  0.6648  0.3863  0.1649
55780SOL     OW71896  10.321   9.593   5.718  0.3455  0.6845 -0.3443
55780SOL    HW171897  10.402   9.628   5.756  0.3135  0.7036 -0.2934
55780SOL    HW271898  10.293   9.659   5.655 -0.1059  1.0950  0.2713
55781SOL     OW71899  10.702   2.423   1.036  0.4303  0.4819 -0.4108
55781SOL    HW171900  10.721   2.496   0.978  0.5983  0.3149 -0.5683
55781SOL    HW271901  10.724   2.455   1.124 -0.8635  1.1147 -0.2934
55782SOL     OW71902   4.168   1.707   8.707  0.2181  0.0025 -0.3513
55782SOL    HW171903   4.167   1.711   8.612  0.5181  2.3050 -0.3091
55782SOL    HW271904   4.249   1.661   8.728 -0.6857 -2.1101 -1.1608
55783SOL     OW71905   8.898   5.357   8.840 -0.1775  0.4581 -0.4098
55783SOL    HW171906   8.899   5.281   8.781  2.9825  1.8572 -2.3642
55783SOL    HW271907   8.807   5.360   8.871 -0.5272 -3.9716 -0.3085
55784SOL     OW71908   1.818   3.855   9.397  0.4803  0.8238 -0.2666
55784SOL    HW171909   1.806   3.947   9.423  0.8978  0.8979 -0.3136
55784SOL    HW271910   1.906   3.834   9.429  0.5693  0.5854 -0.6689
55785SOL     OW71911   6.111   8.318   5.020  0.3487  0.4215 -0.0456
55785SOL    HW171912   6.093   8.315   5.114 -0.0546  0.6508 -0.1138
55785SOL    HW271913   6.172   8.245   5.005  1.1586  0.9574  0.5494
55786SOL     OW71914   0.644   8.405   9.816  0.0324  0.0107 -0.5878
55786SOL    HW171915   0.678   8.448   9.738 -0.0033  0.4499 -0.3637
55786SOL    HW271916   0.612   8.320   9.785  1.0335 -0.2813 -0.8521
55787SOL     OW71917   6.130   0.025   3.032  0.1178  0.4087 -0.0854
55787SOL    HW171918   6.080   0.005   3.110 -0.0356 -0.3886 -0.3820
55787SOL    HW271919   6.101   0.113   3.007 -0.8148  0.1294 -0.0167
55788SOL     OW71920  11.878   2.636   4.241 -0.0611  0.2904 -0.5904
55788SOL    HW171921  11.969   2.626   4.268 -0.3762  0.7931  0.7292
55788SOL    HW271922  11.873   2.725   4.206  0.1954 -0.1243 -1.6993
55789SOL     OW71923   1.869  10.058   6.824 -0.6021 -0.7792  0.0860
55789SOL    HW171924   1.795  10.040   6.881 -1.1627 -0.8337 -0.6545
55789SOL    HW271925   1.830  10.092   6.744  0.2778  1.9798  0.7082
55790SOL     OW71926   9.596   6.941   7.235 -0.1472 -0.1151  1.0928
55790SOL    HW171927   9.548   6.949   7.318 -1.5224  0.8403  0.2456
55790SOL    HW271928   9.578   7.023   7.189  3.3823  0.8664  1.2370
55791SOL     OW71929   4.297   9.269   8.785  0.0903  0.1293  0.0365
55791SOL    HW171930   4.297   9.179   8.819 -1.4295  0.5231  1.1907
55791SOL    HW271931   4.344   9.263   8.702 -1.7343 -2.1746 -0.9587
55792SOL     OW71932  10.577   3.029  10.944 -0.3630 -0.1841  0.7913
55792SOL    HW171933  10.661   3.000  10.980 -0.2243 -0.7237  0.0404
55792SOL    HW271934  10.520   2.952  10.949  0.4951 -1.2195 -2.7629
55793SOL     OW71935   6.321   5.693   6.938  0.5111  0.3393  0.3171
55793SOL    HW171936   6.321   5.755   7.011  0.8192  0.3913  0.2766
55793SOL    HW271937   6.294   5.745   6.863 -0.4264  0.1420  0.5059
55794SOL     OW71938   4.054   0.090   9.922  0.1315  0.5025 -0.3137
55794SOL    HW171939   4.045   0.184   9.911 -2.5742  0.4633  0.7102
55794SOL    HW271940   4.094   0.059   9.841 -2.1693  2.1602 -2.2009
55795SOL     OW71941   3.345   0.326   7.580  0.0782 -0.3673  0.1371
55795SOL    HW171942   3.297   0.274   7.645  0.0906 -0.5475  0.0029
55795SOL    HW271943   3.389   0.261   7.525  0.5566 -0.1974  0.3198
55796SOL     OW71944   5.851   3.761   7.849  0.3819 -0.4139 -0.3555
55796SOL    HW171945   5.782   3.817   7.814  0.7021  0.5179  0.4481
55796SOL    HW271946   5.915   3.756   7.779  0.2458  0.0665 -0.5213
55797SOL     OW71947   9.439   1.385   6.661 -0.4458  0.0751  0.2726
55797SOL    HW171948   9.417   1.336   6.740  0.8674  0.1067  0.6669
55797SOL    HW271949   9.512   1.338   6.622  1.2899  2.0054  0.9976
55798SOL     OW71950  11.027   1.084  10.563 -0.7855 -0.0723 -0.2501
55798SOL    HW171951  10.937   1.054  10.574 -1.2890  1.7393  1.1587
55798SOL    HW271952  11.024   1.137  10.483 -1.1706  0.6170  0.2118
55799SOL     OW71953   3.606   7.653   1.305  0.2185  0.7423  0.1217
55799SOL    HW171954   3.624   7.685   1.394 -1.0278  0.0721  0.6413
55799SOL    HW271955   3.600   7.558   1.315 -1.4815  0.7749 -0.3800
55800SOL     OW71956   1.701  11.452   9.554 -0.0157 -0.0973 -0.2316
55800SOL    HW171957   1.701  11.375   9.611  0.0621 -0.4016 -0.6381
55800SOL    HW271958   1.709  11.416   9.465 -0.3464  0.3594 -0.4504
55801SOL     OW71959   3.693   6.126   5.713 -0.0811  0.7999  0.3905
55801SOL    HW171960   3.616   6.129   5.770 -0.1589  2.5736  0.2454
55801SOL    HW271961   3.741   6.048   5.740 -0.9900  0.6917  1.7346
55802SOL     OW71962   7.671   1.263   2.044 -0.1754 -0.1428  0.1030
55802SOL    HW171963   7.724   1.284   2.122 -0.7043  0.0042  0.4263
55802SOL    HW271964   7.651   1.170   2.054  2.3549 -0.9687 -1.4411
55803SOL     OW71965   6.940   0.321   5.965  0.0915 -0.0359 -0.0559
55803SOL    HW171966   7.018   0.355   5.922  0.2987  0.0889  0.4118
55803SOL    HW271967   6.874   0.389   5.950 -0.0120 -0.2676 -0.6882
55804SOL     OW71968   9.660   0.626   4.010  0.0635  0.2015 -0.3040
55804SOL    HW171969   9.654   0.557   3.943 -0.0295  1.0146 -1.1544
55804SOL    HW271970   9.752   0.626   4.037  0.8884  1.9622 -2.7574
55805SOL     OW71971   0.060  12.063   0.568  0.5033  0.5754  0.1601
55805SOL    HW171972   0.008  12.129   0.614  1.3109  0.7542  0.8410
55805SOL    HW271973   0.021  11.980   0.595  0.1282  0.7257  0.0981
55806SOL     OW71974   1.143   2.755  10.274 -0.3144  0.1048  0.6901
55806SOL    HW171975   1.133   2.745  10.369  0.3488 -1.1874  0.6439
55806SOL    HW271976   1.236   2.741  10.258 -0.6083 -0.9395 -0.2728
55807SOL     OW71977   5.303   3.258  10.095 -0.3782  0.2330 -0.6773
55807SOL    HW171978   5.326   3.210  10.175 -0.6515  1.6494  0.2935
55807SOL    HW271979   5.351   3.341  10.102  0.0956  0.1353 -2.3110
55808SOL     OW71980   3.917   9.008   8.805  0.1195  0.2600  0.6779
55808SOL    HW171981   3.947   8.971   8.887 -1.2070  0.1034  1.1184
55808SOL    HW271982   3.940   9.101   8.810 -0.8114  0.4606  1.6760
55809SOL     OW71983   1.349   7.903   3.090  0.2212  0.4035  0.3460
55809SOL    HW171984   1.278   7.932   3.149 -1.5403 -0.5719 -1.1887
55809SOL    HW271985   1.312   7.914   3.002  1.4163 -1.5613 -0.4508
55810SOL     OW71986   5.902   2.896   4.866 -0.1089 -0.1272  0.3615
55810SOL    HW171987   5.934   2.847   4.942 -0.0821 -0.3167  0.2289
55810SOL    HW271988   5.830   2.843   4.832 -1.1529  0.7093  1.1700
55811SOL     OW71989   1.012   9.225  10.441 -0.3552  0.5269  0.0485
55811SOL    HW171990   1.058   9.258  10.364 -0.0912  1.5283  0.6107
55811SOL    HW271991   1.077   9.234  10.512 -0.4107 -0.8599  0.2985
55812SOL     OW71992   8.428   4.053   9.491 -0.2928 -0.5103 -0.1846
55812SOL    HW171993   8.462   4.007   9.568  1.8792  0.2304 -0.6226
55812SOL    HW271994   8.408   3.984   9.428  2.3660 -0.9828 -0.6265
55813SOL     OW71995  10.716   4.781   2.490 -0.1996 -0.9795  0.8421
55813SOL    HW171996  10.781   4.712   2.478 -0.7920 -1.5180  0.7037
55813SOL    HW271997  10.632   4.739   2.474 -0.5490 -0.1294  0.3311
55814SOL     OW71998   9.229   1.190   7.904  0.5669  0.0315  0.2979
55814SOL    HW171999   9.141   1.199   7.942  0.9265 -3.0403  2.1479
55814SOL    HW272000   9.280   1.260   7.946 -0.3463  0.0978  1.3501
55815SOL     OW72001   5.327   8.531   3.320 -0.1517 -0.1593 -0.4422
55815SOL    HW172002   5.364   8.584   3.249  0.3443  1.8278  1.1965
55815SOL    HW272003   5.275   8.593   3.371 -3.1008 -2.1875 -0.7603
55816SOL     OW72004   7.047   0.840   9.427  0.5036  0.3951 -0.2643
55816SOL    HW172005   6.952   0.839   9.411  0.2100  1.0315  1.3129
55816SOL    HW272006   7.084   0.883   9.349 -0.2771 -1.5189 -1.7916
55817SOL     OW72007  10.250   4.776   9.557 -0.1559  0.2613  0.0224
55817SOL    HW172008  10.325   4.788   9.615 -0.3514  1.2126  0.0986
55817SOL    HW272009  10.194   4.713   9.602  0.0584  0.4131  0.5062
55818SOL     OW72010   4.500   3.193   3.257  0.2560 -0.3571 -0.1548
55818SOL    HW172011   4.509   3.232   3.170  1.1489 -1.9774 -0.8436
55818SOL    HW272012   4.408   3.204   3.280  0.2449  1.0529 -0.8204
55819SOL     OW72013   8.438   4.932   5.928 -0.6145  0.2728 -0.4712
55819SOL    HW172014   8.462   5.022   5.951  0.2550 -0.4379  1.7766
55819SOL    HW272015   8.370   4.909   5.992 -1.3533 -0.4301 -1.4938
55820SOL     OW72016   3.795   9.029   2.533  0.0262  0.0189 -0.4253
55820SOL    HW172017   3.732   9.076   2.587  1.6780  0.1737  1.4938
55820SOL    HW272018   3.846   8.977   2.595  0.8475 -1.2339 -2.0611
55821SOL     OW72019   0.224   1.288   6.338 -0.2100  0.2617 -0.0698
55821SOL    HW172020   0.179   1.262   6.257 -0.7688 -0.2591  0.3953
55821SOL    HW272021   0.220   1.211   6.393 -0.7758  0.9375  0.8634
55822SOL     OW72022   2.933   6.743   9.629  0.2386  0.1179  0.0967
55822SOL    HW172023   3.007   6.803   9.629 -0.1856  0.6470 -0.0946
55822SOL    HW272024   2.894   6.753   9.543 -0.5461  0.4621  0.4819
55823SOL     OW72025  10.988   8.840   9.732 -0.1977  0.0457  0.5791
55823SOL    HW172026  10.915   8.902   9.726 -0.9858 -0.8840  0.1140
55823SOL    HW272027  10.958   8.764   9.682  0.7506 -0.6989  1.1094
55824SOL     OW72028   5.803  10.823   0.460 -0.6431 -0.6658  0.4503
55824SOL    HW172029   5.778  10.855   0.547 -0.6487  0.9933 -0.1160
55824SOL    HW272030   5.868  10.755   0.476  0.4290  0.6041  1.7277
55825SOL     OW72031   1.648   2.251  10.754 -0.1616 -0.1501 -0.1497
55825SOL    HW172032   1.604   2.183  10.703 -1.0000  0.1357  0.1740
55825SOL    HW272033   1.681   2.313  10.689  0.8778 -1.0111 -0.4649
55826SOL     OW72034  10.076   3.607  11.639 -0.1793  0.9060  0.1081
55826SOL    HW172035  10.147   3.623  11.700  0.9228  3.4793 -1.6926
55826SOL    HW272036  10.001   3.653  11.676 -0.3873 -0.1255  1.0052
55827SOL     OW72037   8.502   7.497  10.878  0.1350 -0.5386 -0.1370
55827SOL    HW172038   8.590   7.490  10.839  0.4999  2.2477 -0.0269
55827SOL    HW272039   8.446   7.446  10.820  1.5234 -0.8341 -1.2869
55828SOL     OW72040   0.999   2.296  10.098  0.7326  0.6272  0.0763
55828SOL    HW172041   1.058   2.356  10.146 -1.3468  1.3881  1.8560
55828SOL    HW272042   0.960   2.351  10.031  0.6866  0.6126  0.0915
55829SOL     OW72043   8.084   2.285   2.618  0.4449 -0.1268 -0.2851
55829SOL    HW172044   8.108   2.243   2.700  0.6635 -0.9792 -0.7750
55829SOL    HW272045   8.115   2.225   2.550  1.1060  0.9992 -1.0175
55830SOL     OW72046   8.054   5.556   9.648 -1.1341 -0.2855 -0.0256
55830SOL    HW172047   8.075   5.490   9.583 -1.6339  1.0963 -1.6468
55830SOL    HW272048   8.119   5.625   9.635 -3.5077  1.7960 -1.8160
55831SOL     OW72049   8.643   9.780   7.380  0.5884 -0.8035  0.1100
55831SOL    HW172050   8.681   9.693   7.388 -0.5938 -1.2224  1.6186
55831SOL    HW272051   8.565   9.767   7.326  0.7863 -0.5481 -0.2407
55832SOL     OW72052   7.669   6.561   4.136  0.1152 -0.4364 -0.0669
55832SOL    HW172053   7.759   6.566   4.169  0.2442 -0.2023 -0.4469
55832SOL    HW272054   7.679   6.545   4.043 -0.2538 -1.8581  0.1151
55833SOL     OW72055   6.164  11.146   4.506 -0.0301  0.1598 -0.2750
55833SOL    HW172056   6.123  11.200   4.438 -1.7350 -2.3565 -1.4166
55833SOL    HW272057   6.116  11.063   4.503  1.7497 -1.0876  2.0677
55834SOL     OW72058   1.015   3.989  10.655  0.2182  0.2158 -0.3190
55834SOL    HW172059   0.931   3.960  10.692  0.1422 -1.2088 -1.4862
55834SOL    HW272060   0.994   4.066  10.604 -0.6383 -0.7837 -1.5338
55835SOL     OW72061   7.383   7.914   8.097 -0.3152  0.1286 -0.3570
55835SOL    HW172062   7.345   7.987   8.144  0.9806  0.3305  0.4210
55835SOL    HW272063   7.334   7.838   8.126 -0.1693  0.3889  0.5976
55836SOL     OW72064  10.057   9.238   4.406  0.1277  0.6544  0.6248
55836SOL    HW172065  10.052   9.326   4.369  0.6596  0.3633 -0.1487
55836SOL    HW272066  10.072   9.253   4.500 -4.0985  1.4384  1.3430
55837SOL     OW72067  11.829  11.519  11.660  0.3569  0.1342 -0.0228
55837SOL    HW172068  11.902  11.471  11.699  1.0116  1.0709 -0.0435
55837SOL    HW272069  11.791  11.568  11.732 -1.5550 -1.8493  0.4086
55838SOL     OW72070   2.533   3.245   1.570  0.2341  0.3840 -0.0900
55838SOL    HW172071   2.526   3.233   1.476  1.1000 -0.7939 -0.0327
55838SOL    HW272072   2.620   3.283   1.584  0.9755 -1.3530  0.3374
55839SOL     OW72073  10.332   4.204  10.949  0.5074 -0.1257  0.6892
55839SOL    HW172074  10.329   4.295  10.980 -1.7041  1.3697 -3.1882
55839SOL    HW272075  10.282   4.155  11.015 -0.7209  2.0159  1.4491
55840SOL     OW72076   2.643   1.723   6.726  0.6197  0.3209 -0.2894
55840SOL    HW172077   2.689   1.780   6.664  2.0802 -0.0309  0.4193
55840SOL    HW272078   2.669   1.756   6.812  1.1545 -1.1291  0.1333
55841SOL     OW72079   3.336  11.975   1.011 -0.0006 -0.1848 -0.1339
55841SOL    HW172080   3.295  12.048   1.058  0.8332 -0.1601  0.5812
55841SOL    HW272081   3.284  11.965   0.931 -2.1043 -0.8698  1.2397
55842SOL     OW72082   2.762   0.207  12.010 -0.3584  0.8622 -0.7562
55842SOL    HW172083   2.784   0.296  11.981  1.1741  0.6230 -0.4178
55842SOL    HW272084   2.790   0.204  12.101  0.3510 -0.1952 -0.9866
55843SOL     OW72085   4.899   8.110   0.966 -0.3458  0.1334  0.5602
55843SOL    HW172086   4.901   8.127   0.872 -1.7017  0.8454  0.6176
55843SOL    HW272087   4.924   8.194   1.006 -1.3004  0.3128  0.8215
55844SOL     OW72088   5.227   8.591   4.521  0.2548 -0.4020  0.3653
55844SOL    HW172089   5.141   8.613   4.558  1.1263  2.7335  0.8723
55844SOL    HW272090   5.227   8.632   4.435  1.1988 -0.4798  0.3175
55845SOL     OW72091   4.230   2.211   2.913 -0.0351  0.0125  0.9227
55845SOL    HW172092   4.220   2.223   2.819  2.5969  0.4389  0.6220
55845SOL    HW272093   4.247   2.117   2.924  0.8447  0.1395  0.7861
55846SOL     OW72094   2.677  10.938   1.054 -0.2643  0.8816 -0.5013
55846SOL    HW172095   2.637  11.023   1.035 -0.1095  1.2575  0.7913
55846SOL    HW272096   2.656  10.884   0.977 -2.7282  1.2402 -0.1463
55847SOL     OW72097   7.050  10.077   6.345  0.0886 -0.1190  0.1827
55847SOL    HW172098   6.988  10.147   6.363  0.2537  0.4796 -1.4394
55847SOL    HW272099   7.085  10.097   6.258  0.4230 -1.9914 -0.1607
55848SOL     OW72100   2.974   0.847  10.560  0.8315  0.4804  0.4348
55848SOL    HW172101   2.960   0.940  10.574  0.7247  0.5166  0.1096
55848SOL    HW272102   3.063   0.840  10.525  0.8729  0.4506  0.5449
55849SOL     OW72103   0.939   6.107   2.473 -0.1240 -0.0012 -0.4574
55849SOL    HW172104   0.936   6.172   2.543  0.2967 -0.1614 -0.2887
55849SOL    HW272105   1.032   6.096   2.453  0.0472 -2.2745  1.1637
55850SOL     OW72106   6.516   6.073   9.796  0.0092  0.0779 -0.2927
55850SOL    HW172107   6.495   6.158   9.837  2.5422  1.3292 -1.3517
55850SOL    HW272108   6.583   6.036   9.853  0.8605  0.0871 -1.2627
55851SOL     OW72109  10.658   1.049   0.143 -0.5010  0.0949  0.4492
55851SOL    HW172110  10.649   1.136   0.183 -1.0642  0.3775 -0.2689
55851SOL    HW272111  10.707   0.998   0.208 -2.3374  0.2152  2.0362
55852SOL     OW72112  11.519   0.744   3.363  0.4171 -0.7373  0.1670
55852SOL    HW172113  11.486   0.668   3.314  0.4471  0.2171 -1.3888
55852SOL    HW272114  11.585   0.707   3.422  0.6512 -1.8952 -0.7703
55853SOL     OW72115   5.423   1.435   8.593  0.1086 -0.1688  0.0666
55853SOL    HW172116   5.414   1.350   8.550  1.1313  0.3502 -1.2370
55853SOL    HW272117   5.500   1.474   8.553 -1.3161  2.1127 -0.6220
55854SOL     OW72118   9.587   1.387   6.209  0.5227 -0.2729  0.2739
55854SOL    HW172119   9.523   1.452   6.181  1.6815  0.2915 -1.2285
55854SOL    HW272120   9.565   1.308   6.159  0.3252 -0.4248  0.5993
55855SOL     OW72121   5.732   2.302   0.868  0.1049 -0.8970 -0.7479
55855SOL    HW172122   5.693   2.241   0.931  0.0655 -0.2604 -0.1357
55855SOL    HW272123   5.716   2.262   0.783 -1.9872 -0.6398 -0.5420
55856SOL     OW72124   4.379   8.755   1.383  0.7576  0.1279 -0.2380
55856SOL    HW172125   4.373   8.832   1.439  0.2999 -0.5952  0.7213
55856SOL    HW272126   4.452   8.774   1.324  0.9965  1.0606  0.3405
55857SOL     OW72127   8.079   3.452  10.618 -0.3104  0.1863 -0.7900
55857SOL    HW172128   8.111   3.368  10.585 -0.4932 -0.3105  0.2746
55857SOL    HW272129   8.129   3.517  10.569 -0.6487 -0.5104 -2.1228
55858SOL     OW72130   2.707   0.582   6.098  0.0893  0.0887  0.1302
55858SOL    HW172131   2.749   0.567   6.182  1.1841  0.8080 -0.2625
55858SOL    HW272132   2.624   0.625   6.119 -0.7304 -1.7988  0.9514
55859SOL     OW72133   1.530   3.347   8.604 -0.1473  0.5765 -0.1751
55859SOL    HW172134   1.461   3.358   8.670  1.5177 -0.8919  1.9495
55859SOL    HW272135   1.594   3.414   8.626 -0.9936  2.2056 -2.3975
55860SOL     OW72136   0.818   9.446   9.906 -0.0088  0.9344  0.0488
55860SOL    HW172137   0.825   9.413   9.996  2.0622  0.5434 -0.1844
55860SOL    HW272138   0.786   9.535   9.914 -1.0632  0.4794  1.0671
55861SOL     OW72139  11.922   8.237   2.548 -0.3545 -0.0974 -0.4869
55861SOL    HW172140  11.917   8.331   2.566 -1.3964 -0.1458 -0.4375
55861SOL    HW272141  11.907   8.196   2.633  0.8489 -0.3177 -0.3682
55862SOL     OW72142   9.034   5.415   6.367  0.2504  0.4346  0.3165
55862SOL    HW172143   9.007   5.465   6.290 -2.2281 -0.7689  0.3062
55862SOL    HW272144   8.953   5.403   6.417  1.1317 -1.8269  1.3026
55863SOL     OW72145   8.671   3.936   9.875 -0.2320  0.0863 -0.4481
55863SOL    HW172146   8.752   3.961   9.831  0.0795  0.1531  0.1579
55863SOL    HW272147   8.693   3.855   9.921 -0.5857 -0.0417 -0.5004
55864SOL     OW72148   9.954   2.052   6.464  0.2629 -0.6777  0.1610
55864SOL    HW172149   9.917   2.116   6.403  0.3815  0.8580  1.6222
55864SOL    HW272150   9.999   2.104   6.530 -0.1251 -2.2370  1.7513
55865SOL     OW72151   4.251   8.082   6.666  0.1469 -0.8448  0.2683
55865SOL    HW172152   4.286   8.012   6.611 -0.3668  0.4532 -1.8455
55865SOL    HW272153   4.321   8.148   6.669 -0.5327 -0.0549 -0.5124
55866SOL     OW72154   1.320  10.874   1.928 -0.0351  0.3918 -0.8826
55866SOL    HW172155   1.380  10.900   1.859 -0.1114  3.7202  0.1529
55866SOL    HW272156   1.236  10.860   1.884  0.5724 -0.5632 -1.8003
55867SOL     OW72157   5.733   5.136   3.464  0.3919 -0.0734 -0.0393
55867SOL    HW172158   5.818   5.176   3.482  1.2171 -1.7573 -0.0447
55867SOL    HW272159   5.701   5.107   3.549  0.5014 -0.7176 -0.2124
55868SOL     OW72160   2.748   9.349   2.686 -0.4754 -0.1661  0.2788
55868SOL    HW172161   2.655   9.362   2.665 -0.6992 -0.7850  0.8544
55868SOL    HW272162   2.781   9.437   2.705 -1.1641 -0.0429  0.9368
55869SOL     OW72163  11.714   8.187   6.113 -0.2394  0.3684  0.1529
55869SOL    HW172164  11.755   8.164   6.030 -1.0484  2.4434 -0.8806
55869SOL    HW272165  11.621   8.195   6.093 -0.4259  1.0809  1.2213
55870SOL     OW72166   6.513   4.044   6.740 -0.2115 -0.0522  0.5100
55870SOL    HW172167   6.427   4.065   6.705  0.2947 -1.8843 -2.1869
55870SOL    HW272168   6.573   4.103   6.695  0.2646 -1.1909 -0.4142
55871SOL     OW72169  11.384   0.732   9.339  0.0635 -0.1700  0.3437
55871SOL    HW172170  11.291   0.748   9.322 -0.2909 -2.7995 -0.7864
55871SOL    HW272171  11.428   0.758   9.258  0.2329  0.4575  0.6349
55872SOL     OW72172   3.853   0.933   0.642 -0.3144  0.5152  0.3794
55872SOL    HW172173   3.863   0.859   0.702 -1.2932 -0.7091 -0.8914
55872SOL    HW272174   3.765   0.922   0.606 -1.1235  3.2404  1.3340
55873SOL     OW72175   5.860   2.330   1.617 -0.0955 -0.4100  0.3905
55873SOL    HW172176   5.872   2.425   1.608  0.6635 -0.6338 -1.4671
55873SOL    HW272177   5.924   2.304   1.683 -0.3354  0.3577  0.9478
55874SOL     OW72178   0.413   8.867   9.938 -0.3935 -0.0342  0.2818
55874SOL    HW172179   0.460   8.839  10.016 -0.5296  2.7654  1.4833
55874SOL    HW272180   0.326   8.891   9.969 -1.3920 -1.4672 -1.2522
55875SOL     OW72181   5.457  10.690   0.981 -0.0961  0.0876  0.0117
55875SOL    HW172182   5.414  10.607   1.004  1.1397 -1.2467 -2.1630
55875SOL    HW272183   5.543  10.684   1.023  1.2098 -1.2480 -2.6104
55876SOL     OW72184   8.437   4.207   7.820 -0.2959  0.1063 -0.1157
55876SOL    HW172185   8.376   4.134   7.832 -1.1141  0.9335  0.9863
55876SOL    HW272186   8.395   4.262   7.754 -0.4491  0.3438  0.1732
55877SOL     OW72187   3.003   2.429  10.576 -0.0860 -0.0893 -0.2254
55877SOL    HW172188   2.958   2.512  10.593 -0.1019 -0.1287 -0.0681
55877SOL    HW272189   3.002   2.420  10.481 -2.8786 -1.4326 -0.1832
55878SOL     OW72190   6.719   7.961  10.372  0.0039  0.1748  0.4140
55878SOL    HW172191   6.656   7.961  10.443  0.3855 -2.1100  0.8362
55878SOL    HW272192   6.804   7.972  10.414  0.1598 -0.2809  0.2267
55879SOL     OW72193   2.585   2.303   8.547  0.4006 -0.0039 -0.7189
55879SOL    HW172194   2.581   2.399   8.552  0.3756 -0.0322 -0.1350
55879SOL    HW272195   2.517   2.280   8.484  2.3758  0.5415 -3.2161
55880SOL     OW72196   8.759   1.393   0.110  0.2799  0.3305 -0.3657
55880SOL    HW172197   8.747   1.373   0.017 -1.0815 -0.4675 -0.0518
55880SOL    HW272198   8.684   1.351   0.153  0.7598  0.8872  1.0665
55881SOL     OW72199   9.781   5.904   7.199 -0.3245 -0.0494 -0.0557
55881SOL    HW172200   9.759   5.976   7.140  1.2844  0.0206 -0.6116
55881SOL    HW272201   9.870   5.922   7.228 -0.0799 -1.5264  0.2248
55882SOL     OW72202   8.986   6.547   6.685  0.3009 -0.3275 -0.5087
55882SOL    HW172203   8.962   6.465   6.643 -1.4338 -1.0167  1.6500
55882SOL    HW272204   9.075   6.534   6.716  0.5865 -0.8009 -1.5016
55883SOL     OW72205   8.217   7.870   3.790  0.1805 -0.5606  0.2454
55883SOL    HW172206   8.287   7.928   3.820 -0.1421  0.9549 -1.6850
55883SOL    HW272207   8.156   7.928   3.744 -1.2173 -2.1673 -0.0371
55884SOL     OW72208   6.477   5.287  11.792  0.5689  0.5905  0.0519
55884SOL    HW172209   6.400   5.336  11.820  0.8222  1.0795 -0.1094
55884SOL    HW272210   6.523   5.345  11.731  0.1433 -0.3619 -1.2366
55885SOL     OW72211   8.163   8.992   5.749  0.0573 -0.6618  0.3478
55885SOL    HW172212   8.206   9.008   5.666  0.4882  1.9801  1.0012
55885SOL    HW272213   8.086   8.940   5.726  0.4514 -0.4615 -1.6150
55886SOL     OW72214   7.845   7.820   6.672 -0.5380  0.2137  0.3667
55886SOL    HW172215   7.861   7.908   6.706  0.9248  0.4974 -0.9394
55886SOL    HW272216   7.855   7.828   6.578 -1.0517 -1.2368  0.1530
55887SOL     OW72217  11.783   3.816   7.624  0.2148 -0.3883  0.1255
55887SOL    HW172218  11.754   3.882   7.561 -3.1324 -1.5945  0.1917
55887SOL    HW272219  11.830   3.752   7.571  1.1527  0.6730 -0.3759
55888SOL     OW72220   5.495  11.675   1.227 -0.2005  0.1464 -0.1864
55888SOL    HW172221   5.508  11.675   1.322 -2.7025  0.5152  0.2159
55888SOL    HW272222   5.510  11.765   1.201  1.7665 -0.1932 -0.4093
55889SOL     OW72223   8.260  12.013   0.444  0.5550  0.1208  0.5826
55889SOL    HW172224   8.250  11.946   0.377 -0.9636  1.3116 -0.4622
55889SOL    HW272225   8.211  11.981   0.519  0.9349 -0.5041  0.5689
55890SOL     OW72226   9.713   7.688   2.573  0.9555 -0.0075  0.0543
55890SOL    HW172227   9.642   7.702   2.510  0.3834  2.2510  1.1255
55890SOL    HW272228   9.784   7.651   2.520 -0.2330 -0.2013 -1.4878
55891SOL     OW72229   7.628  11.154   9.559 -0.4548  0.6737 -0.4284
55891SOL    HW172230   7.598  11.175   9.647  1.3281 -0.7268  0.5905
55891SOL    HW272231   7.623  11.237   9.511 -1.3216  1.4950  1.0305
55892SOL     OW72232   1.783   1.290   5.169 -0.1565  0.5807  0.7506
55892SOL    HW172233   1.734   1.211   5.148  0.2285  1.0079 -2.1803
55892SOL    HW272234   1.873   1.270   5.145 -0.1912  2.0996 -0.9243
55893SOL     OW72235  12.048   1.927   1.353 -0.1175  0.2829  0.0329
55893SOL    HW172236  12.081   1.851   1.401  1.3891 -1.3523 -3.2442
55893SOL    HW272237  11.961   1.944   1.391  1.0462 -0.5631  3.4136
55894SOL     OW72238   6.238   7.439   7.721  0.2962  0.4350  0.0888
55894SOL    HW172239   6.210   7.478   7.803  0.2077 -1.9259  1.2803
55894SOL    HW272240   6.309   7.379   7.746  1.3765  0.8361 -1.7989
55895SOL     OW72241   9.470   9.248   8.753  0.1196  0.0255  0.1871
55895SOL    HW172242   9.492   9.341   8.753 -0.8017  0.2595 -0.1013
55895SOL    HW272243   9.513   9.212   8.830 -0.2116  0.8616  0.7687
55896SOL     OW72244   4.852   3.019  11.128 -0.0885 -0.0890 -0.0926
55896SOL    HW172245   4.761   2.989  11.134  0.6258 -2.5174 -0.2917
55896SOL    HW272246   4.868   3.028  11.034 -0.2651  0.9652 -0.0404
55897SOL     OW72247   7.656   2.351   3.488 -0.0426 -0.0001  0.3941
55897SOL    HW172248   7.637   2.398   3.569  0.4598  0.2077  0.4000
55897SOL    HW272249   7.700   2.416   3.433 -1.4251  0.2124 -0.5158
55898SOL     OW72250   0.976   2.203   8.346  0.0310  0.1110 -0.2143
55898SOL    HW172251   0.948   2.224   8.435 -0.9153 -0.7758 -0.2742
55898SOL    HW272252   0.934   2.269   8.291 -1.3693 -0.7492 -0.2221
55899SOL     OW72253   7.993   0.158   5.744  0.1898  0.6105  0.3836
55899SOL    HW172254   8.057   0.229   5.735 -0.6918  1.5168  1.0594
55899SOL    HW272255   7.934   0.188   5.813 -0.3374 -0.6937  0.5227
55900SOL     OW72256   8.517   8.635   6.886  0.1714 -0.5920  0.8706
55900SOL    HW172257   8.525   8.713   6.831 -0.4582 -0.5147  0.8830
55900SOL    HW272258   8.423   8.615   6.886  0.5312 -2.5678 -0.8077
55901SOL     OW72259   9.897   8.682   6.765 -0.0423 -0.0701 -0.1696
55901SOL    HW172260   9.809   8.686   6.804  0.1840 -0.5278  0.4001
55901SOL    HW272261   9.950   8.637   6.831  1.0001  1.6149  0.2027
55902SOL     OW72262  10.932   7.655   9.686  0.0901 -0.1099  0.0981
55902SOL    HW172263  10.973   7.570   9.703 -0.3561 -0.4523 -0.5137
55902SOL    HW272264  10.839   7.638   9.696 -0.0128  0.2618 -0.2425
55903SOL     OW72265  11.482   0.086  11.926 -0.1725 -0.3775 -0.7010
55903SOL    HW172266  11.400   0.082  11.976 -0.3349 -1.6987 -1.0216
55903SOL    HW272267  11.470   0.023  11.855  1.1651 -0.6933 -0.6800
55904SOL     OW72268  12.002   6.597   6.562  0.0040 -0.3893  0.0393
55904SOL    HW172269  12.025   6.515   6.518  1.6329  0.5052 -0.8629
55904SOL    HW272270  12.062   6.662   6.525 -1.0158  1.1540  0.9807
55905SOL     OW72271  10.206   8.691   4.049  0.1380 -0.5990  0.0071
55905SOL    HW172272  10.169   8.762   3.997 -0.4167  0.6393  1.9758
55905SOL    HW272273  10.279   8.659   3.997  1.0460  2.1043 -0.5384
55906SOL     OW72274   6.590   0.446   8.726 -0.8556  0.2511 -0.7564
55906SOL    HW172275   6.677   0.407   8.713 -1.2569 -0.3567 -1.7439
55906SOL    HW272276   6.541   0.422   8.647 -2.4052 -0.7480  0.4491
55907SOL     OW72277  10.899   6.850   1.596  0.1255 -0.2745 -0.2713
55907SOL    HW172278  10.955   6.795   1.541 -1.8381 -2.1660 -0.4848
55907SOL    HW272279  10.947   6.856   1.679  1.7414  0.1634 -1.1902
55908SOL     OW72280   5.968   4.491   6.262 -0.4538 -0.1857  0.0887
55908SOL    HW172281   5.973   4.582   6.231 -1.0232 -0.0176  0.4817
55908SOL    HW272282   6.056   4.457   6.249  0.7158  1.4018  2.9086
55909SOL     OW72283   8.436   8.006   2.156  0.1017  0.4746  0.0431
55909SOL    HW172284   8.480   7.972   2.078  0.2691  0.7936  0.0015
55909SOL    HW272285   8.383   8.079   2.125 -0.7321 -0.1132  0.0318
55910SOL     OW72286   8.479  10.069   2.298  0.0597 -0.2028  0.4329
55910SOL    HW172287   8.560  10.083   2.249 -0.5614  2.2457 -0.0168
55910SOL    HW272288   8.503  10.089   2.389 -0.2764  1.7372  0.1260
55911SOL     OW72289   9.692  11.453   8.195 -0.2691 -0.1559 -0.0858
55911SOL    HW172290   9.657  11.417   8.276 -0.1091 -0.5873 -0.2042
55911SOL    HW272291   9.785  11.466   8.213 -0.0630 -1.0341 -0.4611
55912SOL     OW72292   8.373   5.993  11.248  0.3400  0.3759  0.2436
55912SOL    HW172293   8.285   5.985  11.211  0.6339  1.1658 -0.6677
55912SOL    HW272294   8.412   5.906  11.235 -0.3531 -0.0258  0.8018
55913SOL     OW72295  11.029   8.992   6.568  0.1355  0.0038 -0.4828
55913SOL    HW172296  11.031   8.897   6.561  0.3386 -0.0703  0.4760
55913SOL    HW272297  10.937   9.015   6.557  0.1364 -0.2622 -1.1034
55914SOL     OW72298   2.806   5.818   7.454 -0.1328  0.0258  0.5737
55914SOL    HW172299   2.797   5.802   7.360 -0.4302  0.7951  0.4656
55914SOL    HW272300   2.767   5.904   7.468  1.4459  0.6823  1.1340
55915SOL     OW72301   5.271   9.003   3.895 -0.2620  0.5269 -0.2489
55915SOL    HW172302   5.273   8.977   3.987 -1.2392  1.0174 -0.0810
55915SOL    HW272303   5.362   9.025   3.875 -0.0469  0.4644  0.6123
55916SOL     OW72304  10.386   7.124   0.840  0.1947  0.3695  0.2551
55916SOL    HW172305  10.321   7.056   0.822 -1.0745  1.8912 -1.3639
55916SOL    HW272306  10.471   7.080   0.830 -0.5787 -1.0607 -0.2877
55917SOL     OW72307   4.621   1.125   7.472  0.0089 -0.2669  0.1965
55917SOL    HW172308   4.577   1.058   7.419  1.2326 -0.8598 -0.1277
55917SOL    HW272309   4.570   1.130   7.552 -0.0346 -1.7303  0.2972
55918SOL     OW72310  12.066   0.252   4.781  0.0112 -0.4170  0.2738
55918SOL    HW172311  12.036   0.323   4.724  1.0235  1.0234  1.4610
55918SOL    HW272312  12.146   0.220   4.739  1.7002  1.7540  1.6041
55919SOL     OW72313   0.198   7.184   8.313 -0.2619 -0.4812 -0.3301
55919SOL    HW172314   0.158   7.128   8.247 -3.4309  1.4896 -0.2804
55919SOL    HW272315   0.196   7.272   8.275  2.4805  0.0239  0.4801
55920SOL     OW72316   7.252   7.786   9.826  0.3917 -0.3077  0.2676
55920SOL    HW172317   7.273   7.879   9.810 -1.6411  0.1733  0.1103
55920SOL    HW272318   7.318   7.738   9.777  0.7433  1.0792 -0.6872
55921SOL     OW72319   6.743   9.604   6.566  0.1457 -0.0422  0.1909
55921SOL    HW172320   6.821   9.558   6.597  0.1821 -0.5014 -0.5652
55921SOL    HW272321   6.774   9.693   6.548  0.3417 -0.0382  0.5319
55922SOL     OW72322   3.063  10.869   8.964 -0.3692 -0.5350 -0.2880
55922SOL    HW172323   3.156  10.888   8.974 -0.1129 -1.5160 -0.6410
55922SOL    HW272324   3.054  10.779   8.996 -1.4661  0.0481  1.1263
55923SOL     OW72325   8.867  11.301   4.949 -0.2254  0.3110 -0.5196
55923SOL    HW172326   8.926  11.244   4.998  0.7963  1.6338 -0.1617
55923SOL    HW272327   8.924  11.354   4.894 -1.0841  1.4226 -0.3780
55924SOL     OW72328   2.255   7.871   2.922 -0.2231  0.4188 -0.1397
55924SOL    HW172329   2.331   7.829   2.884  0.1457  2.1881 -1.4813
55924SOL    HW272330   2.199   7.798   2.951  2.2519 -0.9268  1.6113
55925SOL     OW72331   9.234   3.895   9.677  0.3838  0.1744  0.0585
55925SOL    HW172332   9.323   3.863   9.693 -0.4234 -3.0462 -1.1426
55925SOL    HW272333   9.236   3.924   9.586  0.0677 -0.4880 -0.1620
55926SOL     OW72334   7.473   2.368   1.185 -0.0412 -0.3631 -0.4942
55926SOL    HW172335   7.512   2.444   1.226 -1.1558  0.6480 -1.2232
55926SOL    HW272336   7.476   2.300   1.252 -0.4858  0.7965  0.7582
55927SOL     OW72337   9.794   9.132   4.332  0.2892 -0.3453 -0.4769
55927SOL    HW172338   9.865   9.107   4.391 -0.7876 -1.1068  0.5433
55927SOL    HW272339   9.818   9.220   4.302 -0.0652  0.9866  2.7022
55928SOL     OW72340   5.827   5.859  10.217  0.7697  0.1677  0.0719
55928SOL    HW172341   5.788   5.783  10.260  0.9777 -1.0157 -1.7403
55928SOL    HW272342   5.753   5.914  10.195  0.4889 -0.1536  0.1992
55929SOL     OW72343   9.854   5.673   1.939  0.3651  0.1935 -0.3015
55929SOL    HW172344   9.800   5.632   1.871  1.5560 -0.9564 -0.5847
55929SOL    HW272345   9.805   5.752   1.963 -2.3748 -1.6445  0.7351
55930SOL     OW72346   5.104   5.922   6.088  0.3391 -0.3973  0.5243
55930SOL    HW172347   5.016   5.940   6.120  0.2383 -0.1940  0.1356
55930SOL    HW272348   5.096   5.838   6.042  0.1194  0.1119 -0.3933
55931SOL     OW72349   3.967   8.607   7.371  0.3589 -0.5515  0.5485
55931SOL    HW172350   4.009   8.522   7.355  1.3463  0.3229 -2.0798
55931SOL    HW272351   4.039   8.670   7.369 -0.7380  0.7576 -1.8380
55932SOL     OW72352  11.327   0.092   4.088  0.4711  0.2690  0.0057
55932SOL    HW172353  11.249   0.065   4.040  1.4151  1.2643 -2.2249
55932SOL    HW272354  11.393   0.027   4.064  0.8535  0.5561  0.2747
55933SOL     OW72355   2.665  11.412  11.262 -0.1947  0.2116  0.0145
55933SOL    HW172356   2.578  11.373  11.252 -0.5792  0.9409  0.4426
55933SOL    HW272357   2.648  11.500  11.296  0.5402  1.3792 -2.3912
55934SOL     OW72358   0.022   3.224   8.309 -0.1070  0.0814 -0.0423
55934SOL    HW172359  -0.039   3.172   8.362  1.9245 -0.4396  1.9430
55934SOL    HW272360   0.093   3.163   8.287  0.5725  1.1045 -0.7749
55935SOL     OW72361   3.264   3.447  11.961 -0.0012 -0.2874 -0.2036
55935SOL    HW172362   3.346   3.402  11.937 -0.5828 -0.0735 -3.0205
55935SOL    HW272363   3.199   3.376  11.963  0.1166 -0.3707  1.4243
55936SOL     OW72364   0.237   6.681   3.977 -0.3107 -0.9040  0.4627
55936SOL    HW172365   0.142   6.666   3.984 -0.6005  0.8969  1.0400
55936SOL    HW272366   0.249   6.716   3.889 -0.2236 -0.8526  0.4951
55937SOL     OW72367   8.111   3.730   5.779  0.7841  1.0016 -0.3897
55937SOL    HW172368   8.095   3.777   5.697  0.3570 -0.1005 -0.9559
55937SOL    HW272369   8.154   3.649   5.752 -0.8383 -0.1350  0.3121
55938SOL     OW72370   7.931  10.171   5.820 -0.1484  0.1808 -0.3679
55938SOL    HW172371   7.910  10.216   5.738  0.1147  0.0256 -0.5224
55938SOL    HW272372   7.886  10.087   5.813 -1.5347  0.8306  0.3856
55939SOL     OW72373   3.140   2.158   0.167 -0.0378 -0.4460  0.4098
55939SOL    HW172374   3.044   2.159   0.165 -0.0430 -0.2495  0.7087
55939SOL    HW272375   3.162   2.065   0.159 -0.2245 -0.4127 -0.5996
55940SOL     OW72376   2.028   6.011   5.366  0.0943  0.6769 -0.3021
55940SOL    HW172377   2.017   5.926   5.324  0.9349 -0.1098  0.9876
55940SOL    HW272378   1.966   6.010   5.439  2.4356 -0.3081  1.8132
55941SOL     OW72379   2.175   3.478   3.986  0.4341 -0.3184  0.7042
55941SOL    HW172380   2.220   3.393   3.979 -1.2881 -1.3376  1.3579
55941SOL    HW272381   2.085   3.460   3.958  0.0056  1.2831  0.9357
55942SOL     OW72382   2.819   4.614  10.591  0.3185 -0.0368  0.1721
55942SOL    HW172383   2.911   4.615  10.564  0.1015 -0.4422 -0.6334
55942SOL    HW272384   2.774   4.669  10.526 -0.2643 -1.2824 -0.5195
55943SOL     OW72385   5.892   7.703  11.498  0.5478  0.0737 -0.2311
55943SOL    HW172386   5.939   7.734  11.576  0.6523  0.9170 -0.6171
55943SOL    HW272387   5.905   7.773  11.434 -2.9371  1.3711  0.2441
55944SOL     OW72388   2.139   9.702  11.476 -0.0126  0.3959  0.9008
55944SOL    HW172389   2.169   9.654  11.399 -0.8236  0.5003  0.5152
55944SOL    HW272390   2.107   9.634  11.536  0.2796  0.3443  1.0014
55945SOL     OW72391  11.522   4.112   6.798  1.0577 -0.1080  0.1130
55945SOL    HW172392  11.571   4.141   6.875 -1.8666 -0.7308  2.3867
55945SOL    HW272393  11.479   4.191   6.765 -1.4843 -0.5256  2.1561
55946SOL     OW72394   9.670  10.392   0.201  0.1853 -0.0594 -0.3633
55946SOL    HW172395   9.734  10.328   0.232  2.0201  1.5661 -0.6330
55946SOL    HW272396   9.619  10.344   0.135  2.7860 -0.7810 -2.0327
55947SOL     OW72397   0.496   2.838   7.596 -0.0591 -0.1235  0.0537
55947SOL    HW172398   0.498   2.929   7.568 -0.3823  0.0926  0.7089
55947SOL    HW272399   0.409   2.807   7.572  0.1858 -0.3776 -0.5182
55948SOL     OW72400   4.338   7.949   4.282  0.1837 -0.3862  0.4982
55948SOL    HW172401   4.324   7.923   4.191  1.9011 -2.4452  0.7574
55948SOL    HW272402   4.252   7.982   4.310 -1.2476 -2.5376 -0.9893
55949SOL     OW72403  10.302   6.082   7.255 -0.0738  0.2887  0.0212
55949SOL    HW172404  10.292   6.065   7.349 -0.0079  1.2330  0.2150
55949SOL    HW272405  10.396   6.082   7.240 -0.0171  1.5386  0.2542
55950SOL     OW72406   8.637   4.428   2.040  0.1470  0.4525  0.1382
55950SOL    HW172407   8.683   4.344   2.041  0.3278  0.5487  1.2649
55950SOL    HW272408   8.698   4.488   1.996 -0.1425 -0.0799 -1.0158
55951SOL     OW72409  11.001   3.387  10.281 -0.8041 -0.6368  0.0877
55951SOL    HW172410  11.028   3.377  10.373  0.0340 -3.0954 -0.3390
55951SOL    HW272411  11.043   3.468  10.252  1.1411 -1.1774  1.1778
55952SOL     OW72412  12.091   8.937   2.034 -0.6161  0.5349  0.0952
55952SOL    HW172413  12.101   8.992   2.112  0.5048  0.8226 -0.2408
55952SOL    HW272414  12.142   8.858   2.053  0.1466  0.8530 -0.5578
55953SOL     OW72415   4.346   1.958  10.231  0.2131 -0.6319 -0.8055
55953SOL    HW172416   4.377   1.912  10.153 -1.5448 -1.5042 -1.0388
55953SOL    HW272417   4.319   1.889  10.291  1.7967  0.0168  0.7405
55954SOL     OW72418   6.073   9.953   3.209  0.3975 -0.3445  0.3135
55954SOL    HW172419   6.159   9.924   3.178  0.1332  0.9976 -1.8730
55954SOL    HW272420   6.082  10.048   3.219 -0.7747 -0.2135  0.2102
55955SOL     OW72421   2.735   0.975   6.610  0.1243  0.0909 -0.1101
55955SOL    HW172422   2.673   1.047   6.599 -1.2192 -1.2893 -2.6948
55955SOL    HW272423   2.821   1.016   6.610 -0.6467  1.8256  0.7355
55956SOL     OW72424  10.091   1.295   2.630  0.2786 -0.0618 -0.0496
55956SOL    HW172425  10.005   1.307   2.669  0.7733  1.3241  0.6708
55956SOL    HW272426  10.082   1.329   2.541 -0.1254 -0.7278 -0.2764
55957SOL     OW72427   1.756  11.440   7.021  0.9957  0.1996 -0.4559
55957SOL    HW172428   1.684  11.464   6.964  0.4031 -0.8784 -0.1773
55957SOL    HW272429   1.818  11.395   6.964  0.3689 -0.9462 -0.2638
55958SOL     OW72430   4.022   2.209   1.638 -0.0419 -0.2569  0.1270
55958SOL    HW172431   3.968   2.135   1.666 -0.4802  1.1474  3.4627
55958SOL    HW272432   4.112   2.181   1.655 -0.0842 -0.7152 -0.4187
55959SOL     OW72433   4.652   7.604   9.342 -0.1461  0.7104  0.2902
55959SOL    HW172434   4.661   7.549   9.264  1.2066  0.1367  0.8113
55959SOL    HW272435   4.560   7.630   9.343 -0.8826 -1.7060  0.1372
55960SOL     OW72436   2.842   6.482   3.119  0.2459  0.3351 -0.4616
55960SOL    HW172437   2.919   6.454   3.168 -0.8554 -1.1039  0.5346
55960SOL    HW272438   2.779   6.508   3.187 -0.9132 -0.6301 -1.1410
55961SOL     OW72439  10.310   6.820   4.095  0.3536  0.8600  0.0671
55961SOL    HW172440  10.217   6.797   4.107  0.8508 -1.3808  0.0964
55961SOL    HW272441  10.308   6.901   4.045 -1.6309  1.1026  0.4493
55962SOL     OW72442   2.629   7.286   6.398  0.2183 -0.1667  0.0320
55962SOL    HW172443   2.599   7.257   6.484  0.4391  2.4130  1.0854
55962SOL    HW272444   2.669   7.208   6.359  0.7226 -1.2726  2.5470
55963SOL     OW72445  11.525   6.575   8.872  0.1827  0.1859 -0.1216
55963SOL    HW172446  11.485   6.647   8.921 -0.0267  0.4449 -0.6684
55963SOL    HW272447  11.486   6.580   8.785  1.4850  0.5408 -0.7261
55964SOL     OW72448   8.147   4.283   3.357 -0.5920 -0.7196  0.1121
55964SOL    HW172449   8.171   4.267   3.449  0.8403 -0.2631 -0.1552
55964SOL    HW272450   8.129   4.196   3.322 -2.2959 -0.8144  1.0853
55965SOL     OW72451  10.707   0.595   0.657 -0.0596  0.0167 -0.5594
55965SOL    HW172452  10.751   0.676   0.684 -0.4997 -0.2492  1.0703
55965SOL    HW272453  10.696   0.604   0.562 -3.0026  3.3972 -0.1052
55966SOL     OW72454   0.009   7.728   9.665  0.1298 -0.7363 -0.0242
55966SOL    HW172455   0.081   7.668   9.645  1.1687  0.4433  0.0618
55966SOL    HW272456   0.052   7.811   9.684 -1.1994 -0.3087  1.2306
55967SOL     OW72457   1.965   6.642  10.876  0.2196 -0.0239  0.3370
55967SOL    HW172458   2.013   6.621  10.957  2.3607  0.9162 -0.6166
55967SOL    HW272459   1.938   6.733  10.887  1.5614  0.4881 -0.4602
55968SOL     OW72460   1.350   2.154   8.025  0.0899  1.3248  0.5251
55968SOL    HW172461   1.438   2.115   8.027 -0.2631  0.5016  0.1507
55968SOL    HW272462   1.335   2.183   8.115 -0.4220 -1.1862  1.3253
55969SOL     OW72463   3.817   0.954   3.720 -0.2554 -0.5063  0.2850
55969SOL    HW172464   3.728   0.962   3.688 -0.0787  0.1089 -0.0688
55969SOL    HW272465   3.830   1.030   3.777  0.0985 -0.4901  0.1900
55970SOL     OW72466   2.819   9.285   1.699  0.0999  0.1617  0.0622
55970SOL    HW172467   2.729   9.276   1.667 -0.5189  1.4647  1.3226
55970SOL    HW272468   2.855   9.196   1.695 -0.2731  0.0401 -3.1113
55971SOL     OW72469   7.203   7.054   8.639 -0.0687  0.3352 -0.4798
55971SOL    HW172470   7.111   7.078   8.627  0.3284  1.6087 -1.0546
55971SOL    HW272471   7.231   7.023   8.553  0.5609  1.8056 -0.8277
55972SOL     OW72472   4.876   0.028   6.113  0.1407 -0.2794 -0.2454
55972SOL    HW172473   4.853   0.077   6.193  0.2918 -0.0949 -0.3140
55972SOL    HW272474   4.894   0.096   6.048 -0.5181 -0.4320 -0.5900
55973SOL     OW72475   7.567   3.547   4.802  0.7275 -0.4860  0.2485
55973SOL    HW172476   7.646   3.509   4.765 -0.5791 -1.4970 -1.6609
55973SOL    HW272477   7.526   3.475   4.851  1.1241  0.1340  1.5528
55974SOL     OW72478   2.808   0.836   9.516  0.0706  0.0392 -0.5673
55974SOL    HW172479   2.732   0.787   9.486 -0.3237  0.6428 -0.5820
55974SOL    HW272480   2.800   0.836   9.612 -1.6964  2.7221 -0.6111
55975SOL     OW72481   7.942   0.410   6.030  0.5796 -0.2847 -0.2281
55975SOL    HW172482   7.980   0.327   6.059 -0.4464 -0.5883  0.3219
55975SOL    HW272483   7.849   0.391   6.019  0.0910  1.0856  1.1550
55976SOL     OW72484   1.891   7.987   2.940  0.5627 -0.8791  0.5428
55976SOL    HW172485   1.876   7.919   2.874  3.6288  0.2664 -1.5875
55976SOL    HW272486   1.810   8.039   2.940  0.0587 -1.5700 -1.5465
55977SOL     OW72487   8.139   9.941   0.274  0.1024 -0.5522  0.1561
55977SOL    HW172488   8.077   9.877   0.239 -0.6967 -0.1037  0.7220
55977SOL    HW272489   8.225   9.901   0.261 -0.3115 -1.2516 -0.4998
55978SOL     OW72490   5.399   4.399   7.481 -0.1380  0.1619 -0.2034
55978SOL    HW172491   5.489   4.368   7.493  0.1722  1.5479  1.6350
55978SOL    HW272492   5.408   4.482   7.435 -0.3636  0.7509  0.7771
55979SOL     OW72493   5.781  11.541   9.812 -0.0147  0.0427  0.1384
55979SOL    HW172494   5.771  11.636   9.818 -0.1273  0.1709 -1.5812
55979SOL    HW272495   5.760  11.509   9.899 -1.4947  1.4815  0.3530
55980SOL     OW72496   9.385   5.297   7.420  0.3598 -0.1332 -0.3644
55980SOL    HW172497   9.296   5.275   7.394  0.8513 -1.0842 -1.3222
55980SOL    HW272498   9.433   5.303   7.338  0.6530  3.0027 -0.0708
55981SOL     OW72499   0.587   4.974   8.540  0.1054  0.5311  0.2619
55981SOL    HW172500   0.584   4.879   8.545  1.2591  0.4493 -0.1839
55981SOL    HW272501   0.515   4.997   8.482  0.0221 -0.1041  0.1040
55982SOL     OW72502   1.526   2.200   5.324  0.1115 -0.0503  0.4895
55982SOL    HW172503   1.440   2.200   5.283 -0.1246  1.2111  0.9477
55982SOL    HW272504   1.527   2.121   5.378 -1.7913  1.1705  2.4951
55983SOL     OW72505   9.378   6.069   7.559 -0.6892 -0.3533 -0.2438
55983SOL    HW172506   9.296   6.081   7.510  0.1769 -2.6592 -2.4603
55983SOL    HW272507   9.381   5.976   7.578  1.5840 -0.4026 -0.5469
55984SOL     OW72508   2.094   5.590   4.853 -0.5917 -0.1393  0.1157
55984SOL    HW172509   2.180   5.549   4.841 -0.6716 -0.2923  0.0734
55984SOL    HW272510   2.109   5.683   4.832 -0.0911  0.1250  1.5437
55985SOL     OW72511  10.618  11.885   5.112  0.7004 -0.0198 -0.1997
55985SOL    HW172512  10.638  11.811   5.055 -0.6035  0.0636 -0.8240
55985SOL    HW272513  10.694  11.942   5.105  1.2634 -0.8007 -0.5629
55986SOL     OW72514  10.409  11.606   6.971 -0.1351  0.3968  0.3863
55986SOL    HW172515  10.366  11.536   6.922 -1.0051  0.4963  0.9904
55986SOL    HW272516  10.452  11.560   7.044  0.3326  0.3618  0.0944
55987SOL     OW72517   7.489   0.240  10.535 -0.3658 -0.3952  0.4586
55987SOL    HW172518   7.444   0.242  10.450  1.2848 -0.5223 -0.4667
55987SOL    HW272519   7.575   0.202  10.515  0.1015 -0.3035  2.1788
55988SOL     OW72520   5.966   8.565   7.461 -0.0554 -0.2039 -0.6342
55988SOL    HW172521   5.897   8.619   7.499 -1.2210 -1.2901 -1.1202
55988SOL    HW272522   6.018   8.626   7.408 -0.7941  0.5937 -0.4567
55989SOL     OW72523  11.091   9.215   9.057 -0.1553 -0.3131  0.5354
55989SOL    HW172524  11.058   9.298   9.092  1.5979  1.7946 -2.2960
55989SOL    HW272525  11.162   9.190   9.117  1.2204  1.9060 -0.0220
55990SOL     OW72526   1.191   0.076   5.770  0.1475  0.1397  0.1435
55990SOL    HW172527   1.182   0.161   5.726  0.1285  0.7937  1.3751
55990SOL    HW272528   1.150   0.089   5.855  1.8838 -0.5132  1.1226
55991SOL     OW72529   8.153   9.953   3.345  0.5366  0.1984  0.0517
55991SOL    HW172530   8.209  10.029   3.360  2.0050 -0.7273 -0.4793
55991SOL    HW272531   8.125   9.962   3.254  0.4534  0.2630  0.0835
55992SOL     OW72532   7.462   2.693  11.907  0.3760  0.4007  0.2430
55992SOL    HW172533   7.510   2.706  11.989  1.3781  3.1359 -0.6920
55992SOL    HW272534   7.405   2.769  11.899 -0.3908 -0.2773 -1.1962
55993SOL     OW72535   9.128  10.617   1.463 -0.5743 -0.0738 -0.6256
55993SOL    HW172536   9.188  10.654   1.399  0.4216  0.6606  0.6772
55993SOL    HW272537   9.169  10.536   1.491 -0.4624  0.1321 -0.1698
55994SOL     OW72538   9.591   5.971   9.393 -0.3613 -0.2106  0.9438
55994SOL    HW172539   9.533   6.042   9.365  0.3825  0.3803  0.8574
55994SOL    HW272540   9.558   5.947   9.480 -0.2991  0.6146  1.2096
55995SOL     OW72541   3.536  12.061   5.777 -0.1700  0.2360  0.4025
55995SOL    HW172542   3.550  12.110   5.858 -1.3249  0.0801  0.7161
55995SOL    HW272543   3.490  11.982   5.805 -3.4059  1.5579 -0.6700
55996SOL     OW72544   4.459   3.466   3.599 -0.3664  0.2190  0.6103
55996SOL    HW172545   4.390   3.531   3.593  1.1182  1.9331  1.1972
55996SOL    HW272546   4.513   3.494   3.673  0.1950 -1.8399  1.0555
55997SOL     OW72547   2.500   3.213   2.867  0.1524  0.0623  0.0578
55997SOL    HW172548   2.589   3.187   2.890  0.0801  1.0650  1.6695
55997SOL    HW272549   2.448   3.133   2.876  0.8634 -0.5198 -0.8568
55998SOL     OW72550  10.089  10.916   7.200 -0.5858 -0.4999 -0.0050
55998SOL    HW172551  10.005  10.916   7.246  0.2629 -1.6298  1.6519
55998SOL    HW272552  10.089  10.833   7.152 -0.1985 -0.7639  0.4455
55999SOL     OW72553   1.832   0.214  10.574 -0.4152 -0.5593  0.1493
55999SOL    HW172554   1.862   0.184  10.659  0.5138 -0.9508 -0.2938
55999SOL    HW272555   1.789   0.298  10.591 -0.1604 -0.5935  0.9848
56000SOL     OW72556   6.798   0.760   8.883 -0.3706 -0.2068 -0.1234
56000SOL    HW172557   6.824   0.752   8.791  1.6353 -2.6886  0.5326
56000SOL    HW272558   6.868   0.810   8.924 -1.5397  1.3929  0.0137
56001SOL     OW72559   6.760   2.757   8.616  0.0694  0.1989  0.6315
56001SOL    HW172560   6.723   2.745   8.528 -0.0309  0.5049  0.6323
56001SOL    HW272561   6.684   2.767   8.673  0.0828 -1.2604  0.9495
56002SOL     OW72562   8.818   9.143   8.931 -0.3283  0.0547  0.2769
56002SOL    HW172563   8.747   9.092   8.970  0.2849 -2.1262 -1.2625
56002SOL    HW272564   8.896   9.088   8.940  0.5047  0.9668 -0.9292
56003SOL     OW72565   9.000   0.668   9.338 -0.6154 -0.6017  0.5936
56003SOL    HW172566   9.017   0.640   9.248 -0.0372  0.7018  0.2844
56003SOL    HW272567   8.920   0.621   9.362 -1.4154 -0.1430 -0.9877
56004SOL     OW72568   2.070   9.277   8.399 -0.4498 -0.5258  0.5649
56004SOL    HW172569   2.135   9.262   8.468 -1.1617  1.0470  1.6335
56004SOL    HW272570   2.092   9.364   8.364 -0.4436 -1.0599 -0.8376
56005SOL     OW72571  11.341   7.988   3.732  0.2218  0.0577  0.6709
56005SOL    HW172572  11.406   7.965   3.798  0.0451  0.6570  1.0619
56005SOL    HW272573  11.257   7.962   3.770  0.1861 -0.2788  0.3671
56006SOL     OW72574   7.605   3.132   9.716 -0.2152 -0.0462  0.3499
56006SOL    HW172575   7.521   3.140   9.670 -0.0314 -0.0598  0.0040
56006SOL    HW272576   7.643   3.220   9.710 -0.7187  0.2709  1.5329
56007SOL     OW72577   1.275   9.609   6.022  0.5326 -0.3715  0.0285
56007SOL    HW172578   1.215   9.601   6.096  0.9836 -2.1606  0.2516
56007SOL    HW272579   1.236   9.554   5.954  0.7398  0.3060 -0.6603
56008SOL     OW72580   7.012   7.499   9.245 -0.2960 -0.6903  0.3610
56008SOL    HW172581   7.097   7.480   9.205 -0.9359 -0.4086 -1.2063
56008SOL    HW272582   6.998   7.428   9.307  0.4420 -1.5413 -0.4190
56009SOL     OW72583   0.345   3.548  11.922 -0.4022 -0.7846 -0.0456
56009SOL    HW172584   0.370   3.485  11.855  0.8972 -0.1206 -0.2268
56009SOL    HW272585   0.255   3.572  11.901  0.3489  0.2992 -2.2855
56010SOL     OW72586   5.279   3.789   7.093  0.3373  0.0355 -0.1225
56010SOL    HW172587   5.228   3.714   7.122  0.6081 -0.0916  0.0325
56010SOL    HW272588   5.243   3.863   7.142  1.7207 -0.3960  1.6611
56011SOL     OW72589   7.171   5.020  10.729  0.7122 -0.0832 -0.7609
56011SOL    HW172590   7.180   4.925  10.735  0.8752  0.0199  2.3640
56011SOL    HW272591   7.080   5.037  10.753  0.2795  0.5448 -2.6553
56012SOL     OW72592   0.130   2.528  11.305  0.0761  0.0866  0.3185
56012SOL    HW172593   0.206   2.505  11.251 -1.0119  0.9776 -1.7010
56012SOL    HW272594   0.095   2.444  11.335 -0.0509 -0.5538 -1.5087
56013SOL     OW72595  12.007  10.126   8.578 -0.3282 -0.4466 -0.4496
56013SOL    HW172596  12.012  10.151   8.486 -1.7926  0.3126 -0.3555
56013SOL    HW272597  11.959  10.044   8.578 -0.8127 -0.1645 -0.3268
56014SOL     OW72598   6.400   6.078   1.916 -0.2102 -0.9544  0.1245
56014SOL    HW172599   6.395   6.108   1.825 -0.2799  0.5746  0.6018
56014SOL    HW272600   6.309   6.080   1.947 -0.1118 -0.8570  0.4102
56015SOL     OW72601   9.175   3.702   0.428  0.0730 -0.0546  0.0195
56015SOL    HW172602   9.162   3.796   0.440 -1.1147 -0.3852  1.4913
56015SOL    HW272603   9.178   3.666   0.516  1.6464 -1.2930 -0.4807
56016SOL     OW72604  10.708   2.205   9.357  1.0440 -0.1730  0.6167
56016SOL    HW172605  10.792   2.240   9.327  0.7010  1.3072  1.3178
56016SOL    HW272606  10.646   2.233   9.290  0.8740 -0.0592  0.8246
56017SOL     OW72607  10.662  11.617   5.416 -0.4020 -0.2789 -0.4322
56017SOL    HW172608  10.634  11.532   5.382  0.1051 -1.0994  1.1157
56017SOL    HW272609  10.600  11.637   5.486  0.3707 -0.1115  0.2228
56018SOL     OW72610   6.265   0.301   1.331 -0.4948 -0.2624  0.6423
56018SOL    HW172611   6.187   0.313   1.385 -0.9560  0.9445 -0.2328
56018SOL    HW272612   6.237   0.241   1.262 -0.9645  0.9020 -0.2116
56019SOL     OW72613   7.663  11.861   0.897  0.0857 -0.0447 -0.0360
56019SOL    HW172614   7.702  11.781   0.862  1.8184 -0.0647  1.7556
56019SOL    HW272615   7.708  11.932   0.851  0.3275 -0.0966  0.1168
56020SOL     OW72616   7.760   2.699   7.514  0.3026 -0.3753  0.8209
56020SOL    HW172617   7.824   2.639   7.477  1.8043  0.7278  1.5081
56020SOL    HW272618   7.811   2.756   7.572 -1.5455 -0.4377  2.6230
56021SOL     OW72619  10.104  11.527   6.614  0.4806  0.3101  0.1253
56021SOL    HW172620  10.187  11.533   6.567 -0.6300 -0.3083 -2.1108
56021SOL    HW272621  10.095  11.611   6.659  1.5305  1.0775 -1.0192
56022SOL     OW72622   9.863   2.808   8.363 -0.1568 -0.4604 -0.6461
56022SOL    HW172623   9.937   2.820   8.303  0.1269 -0.3381 -0.2719
56022SOL    HW272624   9.870   2.880   8.425 -0.4152 -0.6246 -0.4238
56023SOL     OW72625  11.653   2.395  11.317 -0.2970 -0.8050  0.3432
56023SOL    HW172626  11.621   2.384  11.227 -0.1442 -0.1319  0.2038
56023SOL    HW272627  11.620   2.481  11.343 -0.4185 -1.0369  0.9672
56024SOL     OW72628   6.780   8.890   9.722  0.7249  0.9990  0.0616
56024SOL    HW172629   6.806   8.864   9.810 -0.4841  0.8830  0.3915
56024SOL    HW272630   6.739   8.976   9.732 -0.9346  0.2601 -0.1241
56025SOL     OW72631  11.941   4.151   4.844  0.5255  0.2760 -0.2818
56025SOL    HW172632  11.921   4.244   4.834 -0.1869  0.0737 -0.8908
56025SOL    HW272633  11.914   4.130   4.934  0.5599  0.6316 -0.1895
56026SOL     OW72634   8.873  11.548   6.343  0.1161 -0.2915 -0.1423
56026SOL    HW172635   8.848  11.573   6.254 -2.3615 -0.9258  0.3236
56026SOL    HW272636   8.791  11.540   6.390  1.3801  0.0209  2.2394
56027SOL     OW72637  10.873  11.036  11.285 -0.1298 -0.6909 -0.0676
56027SOL    HW172638  10.799  10.984  11.253 -1.0602  0.3243  0.3721
56027SOL    HW272639  10.862  11.122  11.245 -0.8505  0.3510  2.1875
56028SOL     OW72640   5.327  11.714   7.422 -0.1682  0.6229 -0.5066
56028SOL    HW172641   5.344  11.808   7.418 -0.2014  0.6018 -1.5006
56028SOL    HW272642   5.334  11.685   7.331 -0.4579 -0.2848 -0.2499
56029SOL     OW72643   2.736   3.566  10.502  0.1442 -0.2580  0.1435
56029SOL    HW172644   2.655   3.562  10.554  0.8027 -1.2151  1.1489
56029SOL    HW272645   2.802   3.597  10.564  1.1202 -2.1986  0.1443
56030SOL     OW72646   8.438   0.988   1.846 -0.1026 -0.0113 -0.8407
56030SOL    HW172647   8.524   0.969   1.885 -1.8547 -3.5319  1.8876
56030SOL    HW272648   8.451   0.977   1.752  2.3345 -0.9696 -0.4702
56031SOL     OW72649   7.458  10.107   7.426  0.4020  0.1751  0.2613
56031SOL    HW172650   7.390  10.169   7.453 -0.0131 -0.0884 -0.1831
56031SOL    HW272651   7.464  10.045   7.499 -0.6320 -0.4658 -0.1866
56032SOL     OW72652   1.067   0.170   3.231  0.1188 -0.8591 -0.1240
56032SOL    HW172653   1.032   0.158   3.319 -0.5986  0.3750 -0.2258
56032SOL    HW272654   1.107   0.085   3.210 -0.1199 -1.3230  1.1876
56033SOL     OW72655   4.851   5.451   4.674  0.2037  0.1414 -0.1082
56033SOL    HW172656   4.766   5.494   4.671 -1.0108 -2.0447  0.9088
56033SOL    HW272657   4.895   5.489   4.749 -0.0052  1.0223 -0.4220
56034SOL     OW72658  10.338   9.732   1.028 -0.0120  0.2809 -0.1691
56034SOL    HW172659  10.323   9.639   1.012  0.1255  0.4049 -1.1087
56034SOL    HW272660  10.257   9.774   0.999 -1.0211  0.2961  2.3948
56035SOL     OW72661   3.571   3.791   9.665  0.6169  0.0799  0.0102
56035SOL    HW172662   3.544   3.730   9.735  1.5267  0.5182  0.7662
56035SOL    HW272663   3.644   3.747   9.622  1.1864  0.5601  0.4678
56036SOL     OW72664   8.269   2.305   0.174  0.1655 -0.3330 -0.0223
56036SOL    HW172665   8.233   2.262   0.096 -0.0898  0.3653 -0.2981
56036SOL    HW272666   8.289   2.233   0.234  1.0983 -0.9451 -1.0249
56037SOL     OW72667   0.260   2.608   9.297 -0.6663 -0.3975 -0.1149
56037SOL    HW172668   0.205   2.629   9.372 -0.9563 -1.0554 -0.1380
56037SOL    HW272669   0.252   2.684   9.239 -0.3735  0.1510  0.5537
56038SOL     OW72670   3.680   7.733   2.162 -0.2448  0.2721 -0.7140
56038SOL    HW172671   3.763   7.714   2.206  0.6024  0.3368 -2.2096
56038SOL    HW272672   3.613   7.709   2.225  0.9169  0.3397  0.5803
56039SOL     OW72673   1.166   3.255   1.457  0.7295  0.1987  0.1298
56039SOL    HW172674   1.195   3.338   1.419  0.4218 -0.1904 -0.9942
56039SOL    HW272675   1.235   3.192   1.434  0.7439  0.0439  0.5874
56040SOL     OW72676   3.189   3.324   7.278  0.0429 -0.3388  0.4491
56040SOL    HW172677   3.273   3.291   7.245 -0.3958  0.3442 -1.4553
56040SOL    HW272678   3.128   3.310   7.206 -1.1673  0.5254  1.2751
56041SOL     OW72679   8.923  10.041   8.876  0.3145 -0.6835  0.0465
56041SOL    HW172680   8.855   9.975   8.891 -0.2227 -0.0385  0.4806
56041SOL    HW272681   8.947  10.029   8.784 -0.1299 -1.1505 -0.0185
56042SOL     OW72682   1.964   8.986  10.241 -0.6512 -0.8476 -0.2464
56042SOL    HW172683   1.994   8.895  10.241  0.6987 -0.4553 -1.9720
56042SOL    HW272684   2.014   9.028  10.312 -1.1903 -1.3958  0.4744
56043SOL     OW72685  10.354   8.399   5.522  0.2142  0.1186  0.4630
56043SOL    HW172686  10.415   8.330   5.496 -0.2355  0.9154 -3.4101
56043SOL    HW272687  10.268   8.356   5.521  0.1763  0.1954  0.4479
56044SOL     OW72688   5.976   2.414   4.323 -0.7199  0.2544  0.9324
56044SOL    HW172689   6.017   2.342   4.274  2.5943  2.2680  0.4312
56044SOL    HW272690   5.891   2.427   4.281  0.4250 -0.5582 -1.8517
56045SOL     OW72691   1.167   8.993   1.521  0.0201  0.2219 -1.1995
56045SOL    HW172692   1.206   8.960   1.440  3.1080  0.3897  0.0918
56045SOL    HW272693   1.173   8.920   1.582 -0.3689  0.7420 -0.5327
56046SOL     OW72694   2.090   3.626  10.775 -1.0387 -0.1901 -0.3154
56046SOL    HW172695   2.069   3.610  10.867 -1.8725 -0.9104 -0.6116
56046SOL    HW272696   2.103   3.539  10.738  1.8060  0.1693 -0.3616
56047SOL     OW72697   4.124   5.131   7.606 -0.6479  0.2815 -0.5539
56047SOL    HW172698   4.200   5.127   7.665 -1.6190 -0.1253  0.7234
56047SOL    HW272699   4.121   5.223   7.577  0.5725  0.2061 -0.9869
56048SOL     OW72700   1.243   0.795  10.951 -0.8670  0.7771 -0.2301
56048SOL    HW172701   1.237   0.813  11.045  1.1931  0.3514  0.0219
56048SOL    HW272702   1.253   0.881  10.911 -0.4350  0.8669  0.0678
56049SOL     OW72703   1.458   2.029   2.745 -0.7694  1.1712  0.1379
56049SOL    HW172704   1.367   2.006   2.764 -0.2716 -1.9753 -0.7322
56049SOL    HW272705   1.500   2.031   2.831 -0.8303 -1.9215  0.3753
56050SOL     OW72706   7.802   5.334   7.477 -0.8050  0.1346 -0.0716
56050SOL    HW172707   7.755   5.282   7.412 -2.1165 -0.1439  1.0316
56050SOL    HW272708   7.841   5.270   7.536 -0.9417  0.3754  0.2886
56051SOL     OW72709   5.914   8.704   3.139 -0.2356  0.1952  0.0789
56051SOL    HW172710   5.994   8.708   3.192 -1.1314  0.1102  1.4875
56051SOL    HW272711   5.873   8.790   3.151 -0.8774 -0.1256  0.2217
56052SOL     OW72712   1.943   8.478   6.503  0.3053 -0.4844  0.2054
56052SOL    HW172713   1.950   8.396   6.455  1.0727 -0.5152  0.3559
56052SOL    HW272714   2.009   8.471   6.573 -1.5584 -0.9443  2.0375
56053SOL     OW72715   7.189   3.590  11.655  0.3011  0.7699  0.1457
56053SOL    HW172716   7.244   3.603  11.578 -0.7180  0.7277 -0.6216
56053SOL    HW272717   7.233   3.638  11.725  0.9816  1.2366 -0.5884
56054SOL     OW72718  11.690   6.254  12.077 -0.0969 -0.1401 -0.4915
56054SOL    HW172719  11.735   6.207  12.006  0.4776 -0.7475  0.2601
56054SOL    HW272720  11.760   6.284  12.135 -0.6318 -0.9784  0.6290
56055SOL     OW72721   3.980   6.151   9.136  0.5855  0.4105  0.5940
56055SOL    HW172722   4.026   6.118   9.213 -1.6341 -1.0613  1.3972
56055SOL    HW272723   3.981   6.078   9.074 -0.6391  0.3487  0.6336
56056SOL     OW72724   5.467   4.951   2.196  0.1351  0.4597  0.4460
56056SOL    HW172725   5.489   5.041   2.221  1.4059  1.2316 -2.8390
56056SOL    HW272726   5.543   4.920   2.147 -1.6845 -0.9989 -1.7140
56057SOL     OW72727   0.104   1.204   8.735 -0.2483 -0.0113  0.4329
56057SOL    HW172728   0.027   1.215   8.791 -1.0147 -1.7343 -0.2442
56057SOL    HW272729   0.135   1.115   8.752 -1.1358 -1.0168 -2.5827
56058SOL     OW72730   0.510   5.597   9.184 -0.4013  0.7175  0.3817
56058SOL    HW172731   0.426   5.557   9.159  0.2449  0.3615 -1.2938
56058SOL    HW272732   0.574   5.527   9.171  0.3995  1.5270 -0.0631
56059SOL     OW72733  10.854   5.752   5.498  0.1014 -0.4666 -0.0471
56059SOL    HW172734  10.765   5.736   5.531  0.4239 -0.9368  0.6073
56059SOL    HW272735  10.882   5.832   5.542  0.1595 -0.5502  0.0677
56060SOL     OW72736   2.194   9.335  10.732 -0.0821 -0.2542 -0.3386
56060SOL    HW172737   2.204   9.378  10.647  1.8081  1.7260  0.7756
56060SOL    HW272738   2.142   9.395  10.784  1.0259 -0.1258  0.6834
56061SOL     OW72739  11.381   1.016  10.159 -0.0510  0.0641  0.3308
56061SOL    HW172740  11.389   1.027  10.253  0.6144  0.2378  0.2603
56061SOL    HW272741  11.293   0.980  10.146  0.2532 -1.0363  1.1105
56062SOL     OW72742   3.045   6.504   4.877 -0.1630  0.4178 -0.3407
56062SOL    HW172743   3.087   6.426   4.838  0.7696  1.1514 -0.8514
56062SOL    HW272744   3.073   6.503   4.968  0.3221  0.4618 -0.4852
56063SOL     OW72745   3.317   1.599   4.398 -0.0266 -0.6107 -0.0902
56063SOL    HW172746   3.257   1.529   4.422  0.6306 -0.4462  2.2302
56063SOL    HW272747   3.393   1.554   4.361  0.3277 -1.1599  1.2454
56064SOL     OW72748   5.318   9.419   7.370 -0.3039 -0.1625 -0.2221
56064SOL    HW172749   5.347   9.499   7.414  0.1289  1.0111 -2.4973
56064SOL    HW272750   5.376   9.350   7.404  0.3474  0.7753  0.6150
56065SOL     OW72751   2.594   1.581  11.510  0.5850  0.3132 -0.0713
56065SOL    HW172752   2.653   1.567  11.436  1.5840  0.5676  0.6595
56065SOL    HW272753   2.509   1.601  11.470  0.8206 -0.6990 -1.1439
56066SOL     OW72754   8.873  12.099   3.535 -0.1542 -0.2157 -0.2796
56066SOL    HW172755   8.853  12.156   3.609 -1.9643  0.0944 -0.9711
56066SOL    HW272756   8.968  12.105   3.526  0.0675  0.0905  1.7178
56067SOL     OW72757   1.841   1.065   2.202  0.1494  0.1580  0.0027
56067SOL    HW172758   1.842   0.982   2.250 -0.2639  0.5793  0.7575
56067SOL    HW272759   1.751   1.097   2.211  0.2601  0.6078 -0.4273
56068SOL     OW72760  10.395   9.767   2.359 -0.3198  0.0866  0.0897
56068SOL    HW172761  10.308   9.776   2.319  0.2825  0.2982 -1.2378
56068SOL    HW272762  10.399   9.837   2.424 -1.6416 -0.7762  1.1523
56069SOL     OW72763   9.774   3.552   9.822  0.2878 -0.2471 -0.2580
56069SOL    HW172764   9.790   3.644   9.798  0.7806 -0.4924 -0.9098
56069SOL    HW272765   9.751   3.555   9.915  0.3923  0.5269 -0.2485
56070SOL     OW72766   8.029   6.692   8.437  0.1619 -0.3824  0.1644
56070SOL    HW172767   7.991   6.779   8.426  2.0289  0.2356 -1.9615
56070SOL    HW272768   7.954   6.637   8.462 -1.5487  1.3177 -0.9402
56071SOL     OW72769   7.860   6.589   6.727  0.0278  0.1602  0.3599
56071SOL    HW172770   7.916   6.643   6.784 -0.0739 -0.1132  0.7211
56071SOL    HW272771   7.888   6.611   6.638  0.1574  0.6231  0.5152
56072SOL     OW72772  11.045   3.657   5.921  0.0091  0.6852 -0.2370
56072SOL    HW172773  10.960   3.701   5.925 -0.6876 -0.6424  0.1535
56072SOL    HW272774  11.026   3.570   5.886  0.6452 -0.8183  2.7853
56073SOL     OW72775   9.590   9.891   1.153 -0.2669  0.0814  0.3419
56073SOL    HW172776   9.652   9.866   1.221  0.2632 -0.8244 -0.4483
56073SOL    HW272777   9.511   9.841   1.174 -0.1293 -0.1356  0.3567
56074SOL     OW72778   6.525   9.592   7.249 -0.1564 -0.5051  0.3204
56074SOL    HW172779   6.573   9.510   7.234 -1.0359 -0.6578 -2.2671
56074SOL    HW272780   6.440   9.578   7.206 -1.1301  1.0350  1.6631
56075SOL     OW72781   4.854   4.697   9.134 -0.5929 -0.7276  0.1165
56075SOL    HW172782   4.832   4.776   9.182  0.9196 -0.6400  0.7087
56075SOL    HW272783   4.929   4.721   9.079 -1.1067 -1.3315 -0.8817
56076SOL     OW72784   9.552   9.106  11.789 -0.8871 -0.3748 -0.1126
56076SOL    HW172785   9.532   9.171  11.856  0.9946  0.6062 -0.4492
56076SOL    HW272786   9.547   9.154  11.706  0.7053 -0.5888 -0.3566
56077SOL     OW72787   4.621   4.521   3.324  0.0888  0.2352 -0.5813
56077SOL    HW172788   4.543   4.473   3.351  0.7110 -1.4203 -1.5924
56077SOL    HW272789   4.673   4.457   3.274  2.7844  0.8070  1.2508
56078SOL     OW72790   9.682   3.383  12.049  0.2002  0.3920  0.1348
56078SOL    HW172791   9.765   3.428  12.031 -0.1585  0.6324 -0.9669
56078SOL    HW272792   9.627   3.451  12.088  0.2568  0.4437  0.1258
56079SOL     OW72793   5.790   0.448   0.685 -0.4376  0.0349  0.8542
56079SOL    HW172794   5.854   0.494   0.740 -1.8503  1.3739  1.4680
56079SOL    HW272795   5.754   0.380   0.742 -0.8657  0.4863  1.1341
56080SOL     OW72796  10.426   2.922   5.864 -0.9835 -0.3217 -0.0976
56080SOL    HW172797  10.368   2.973   5.921 -0.5145  0.3958 -0.2363
56080SOL    HW272798  10.429   2.835   5.903 -0.3709  0.2567  1.2042
56081SOL     OW72799  11.974   6.190  11.340  0.0508  0.3335 -0.4341
56081SOL    HW172800  11.894   6.237  11.315  0.9847  1.5076 -1.3435
56081SOL    HW272801  12.036   6.259  11.363  1.5986 -0.3879 -2.1717
56082SOL     OW72802   0.726  10.211   4.829 -0.1065 -0.3405 -0.0298
56082SOL    HW172803   0.782  10.289   4.835 -0.8114  0.2313 -0.6827
56082SOL    HW272804   0.726  10.175   4.917  1.0000 -0.1541  0.0676
56083SOL     OW72805   8.734   5.705   5.401  0.2364 -0.4610 -0.3185
56083SOL    HW172806   8.793   5.677   5.331  0.7579  2.8670 -1.3878
56083SOL    HW272807   8.675   5.767   5.358 -0.5831  0.3506  1.8602
56084SOL     OW72808  12.107   5.840   2.128 -0.1852 -0.5238  0.2877
56084SOL    HW172809  12.018   5.805   2.129  0.2390 -1.6403 -0.2367
56084SOL    HW272810  12.147   5.808   2.209  0.1003 -0.9834 -0.0339
56085SOL     OW72811   3.481   6.876  10.542  0.0792 -0.2275  0.6947
56085SOL    HW172812   3.522   6.863  10.457 -0.1018  0.5729  0.4795
56085SOL    HW272813   3.515   6.805  10.596  1.5393  0.2468  0.4483
56086SOL     OW72814   0.731   8.928   0.482 -0.3283  0.3458 -0.1585
56086SOL    HW172815   0.673   8.935   0.558 -0.8653  0.7625 -0.5969
56086SOL    HW272816   0.707   8.845   0.441  1.4836 -0.9798  1.3430
56087SOL     OW72817   5.972   8.254  10.613  0.0170 -0.1746 -0.3114
56087SOL    HW172818   6.037   8.228  10.548 -1.8470  0.3606 -2.5036
56087SOL    HW272819   5.980   8.349  10.619  1.4368 -0.3498  1.7508
56088SOL     OW72820   9.791   6.846   0.659  0.5193 -0.5539 -0.0151
56088SOL    HW172821   9.788   6.919   0.597 -0.2498 -2.2514 -2.0799
56088SOL    HW272822   9.822   6.886   0.741 -0.7675  2.2611 -0.7718
56089SOL     OW72823   0.514   3.152   1.165  0.1568  0.5929  0.1449
56089SOL    HW172824   0.588   3.128   1.108 -0.4157 -2.0638  0.3905
56089SOL    HW272825   0.484   3.069   1.202 -1.7019  1.8370  1.6385
56090SOL     OW72826   6.393   9.081  10.285 -0.3409  0.2806 -0.0465
56090SOL    HW172827   6.438   9.147  10.338  1.1048  0.3516 -1.3025
56090SOL    HW272828   6.430   9.090  10.198 -2.4457 -0.0422 -1.0462
56091SOL     OW72829   5.851   6.255   4.500 -0.3280  0.4295  0.4516
56091SOL    HW172830   5.884   6.345   4.496 -0.7666  0.5548 -1.1750
56091SOL    HW272831   5.922   6.205   4.540  0.4116  1.2984  0.2516
56092SOL     OW72832  10.666  11.049   2.499  0.4161 -0.3608  0.0733
56092SOL    HW172833  10.658  11.132   2.548  0.5745 -0.2315 -0.1182
56092SOL    HW272834  10.760  11.040   2.484  0.2581  0.4629 -1.6774
56093SOL     OW72835   9.755   9.849   4.681 -0.7994 -0.3041 -0.5838
56093SOL    HW172836   9.781   9.821   4.593 -0.5375  2.0510 -1.3260
56093SOL    HW272837   9.677   9.903   4.667 -1.7463 -1.1965  0.8496
56094SOL     OW72838   3.765   9.861   6.584 -0.0938 -0.4321  0.0433
56094SOL    HW172839   3.735   9.919   6.514 -1.4542 -0.4256  0.5923
56094SOL    HW272840   3.738   9.773   6.556 -0.1450 -0.4969  0.2851
56095SOL     OW72841   7.127   0.235  11.543  0.3382  0.0368 -0.2172
56095SOL    HW172842   7.036   0.205  11.531 -0.2035  1.6606 -0.4631
56095SOL    HW272843   7.168   0.218  11.458  0.4211 -1.1133  0.0296
56096SOL     OW72844   5.066   5.169   5.508 -0.5652 -0.5279 -0.0188
56096SOL    HW172845   5.132   5.237   5.521  0.6018 -1.5633 -0.3302
56096SOL    HW272846   5.012   5.201   5.436 -0.1079  0.1153 -0.0828
56097SOL     OW72847   4.697   7.419   3.272 -0.1963 -0.5225  0.5401
56097SOL    HW172848   4.751   7.465   3.209  0.5514  1.0472  2.2214
56097SOL    HW272849   4.687   7.481   3.345 -5.2583 -0.2272 -0.0850
56098SOL     OW72850   5.999   0.404   4.661  0.1275 -0.1756 -0.0822
56098SOL    HW172851   6.056   0.428   4.734 -0.1925  0.0019  0.1129
56098SOL    HW272852   5.930   0.351   4.701  0.7119 -1.2567 -0.4748
56099SOL     OW72853  10.225   6.165   2.835 -0.0447  0.0576  0.0045
56099SOL    HW172854  10.309   6.142   2.795 -0.4295 -1.5183  0.0466
56099SOL    HW272855  10.178   6.082   2.841 -1.7009  0.9469 -0.2027
56100SOL     OW72856   0.052   7.546   1.750  0.3727  0.4641  0.4454
56100SOL    HW172857   0.138   7.576   1.722  1.2399 -1.6320  0.6948
56100SOL    HW272858   0.055   7.451   1.740 -1.1356  0.1214  2.5211
56101SOL     OW72859   6.875   6.929   4.540  0.0557  0.0263  0.4252
56101SOL    HW172860   6.891   6.923   4.634 -2.2947 -0.3564  0.8797
56101SOL    HW272861   6.878   7.023   4.521 -0.4274  0.1907  1.1090
56102SOL     OW72862   4.759   8.634   9.728  0.3461  0.3975 -0.7054
56102SOL    HW172863   4.785   8.722   9.702  1.6443 -0.1772 -1.4252
56102SOL    HW272864   4.841   8.585   9.737 -0.3230 -0.6465  0.0548
56103SOL     OW72865   9.802   7.209   0.040 -0.0400 -0.2093 -0.0670
56103SOL    HW172866   9.897   7.216   0.029  0.1588 -0.5542  1.3076
56103SOL    HW272867   9.778   7.127  -0.002  0.5296 -0.9676  1.0648
56104SOL     OW72868   6.552   3.365  10.882 -0.0253 -0.1395 -0.5075
56104SOL    HW172869   6.609   3.293  10.909 -0.0420 -0.2889 -0.8724
56104SOL    HW272870   6.473   3.322  10.848  0.3545  0.0231 -1.6168
56105SOL     OW72871   4.722   5.221   6.874 -0.7918  0.5961 -0.2851
56105SOL    HW172872   4.775   5.298   6.898  0.0625  0.0518 -0.4027
56105SOL    HW272873   4.643   5.259   6.837  0.5836  1.4706 -2.5447
56106SOL     OW72874   8.401   5.099  10.474  0.2622  0.3575 -0.5892
56106SOL    HW172875   8.439   5.011  10.476  0.4260  0.4239  1.9476
56106SOL    HW272876   8.476   5.158  10.467  0.6373  0.4060  2.4571
56107SOL     OW72877  10.100   2.609   9.371  0.3201 -0.1665 -0.3611
56107SOL    HW172878  10.188   2.626   9.406  0.1788  0.9283 -0.4904
56107SOL    HW272879  10.110   2.623   9.276 -0.4607  2.3040 -0.1600
56108SOL     OW72880   8.111   4.678   6.324  0.3038  0.2574  0.3336
56108SOL    HW172881   8.132   4.646   6.237 -1.2215  0.4306 -0.1187
56108SOL    HW272882   8.184   4.648   6.379  1.0841 -0.1781 -0.9120
56109SOL     OW72883   9.275   6.995   1.167  0.6006  0.1550 -0.0105
56109SOL    HW172884   9.326   7.008   1.246  0.7811 -0.2512 -0.0553
56109SOL    HW272885   9.263   7.083   1.130  1.8081  0.1986 -0.3401
56110SOL     OW72886  11.379   8.808   6.996 -0.3668 -0.0012  0.3674
56110SOL    HW172887  11.320   8.846   7.062  1.0345  0.0689  1.6210
56110SOL    HW272888  11.466   8.841   7.020  0.2259 -0.2148 -1.3590
56111SOL     OW72889   6.346   5.955   0.336 -0.4081  0.1229  0.4519
56111SOL    HW172890   6.383   5.934   0.422 -1.6595 -1.3070  0.6650
56111SOL    HW272891   6.277   5.891   0.323  0.3035 -0.2446 -2.0131
56112SOL     OW72892  11.318   6.311   4.793 -0.4405 -0.6915 -0.5217
56112SOL    HW172893  11.407   6.275   4.793  0.6779  1.9040 -0.3849
56112SOL    HW272894  11.313   6.363   4.714 -1.3532  0.3214  0.1787
56113SOL     OW72895  10.771  10.790   1.526 -0.4409 -0.3491  0.1019
56113SOL    HW172896  10.783  10.788   1.621 -1.3577  0.2275  0.2439
56113SOL    HW272897  10.783  10.882   1.502 -1.0025 -0.3562 -0.2213
56114SOL     OW72898   1.681   0.973   4.130 -0.3305  0.3491  0.4968
56114SOL    HW172899   1.590   0.975   4.160  0.1800  0.3597  2.1159
56114SOL    HW272900   1.689   1.050   4.073 -0.9716  1.1581  1.4679
56115SOL     OW72901   9.996   4.242  10.894  0.0893 -0.3167  0.6034
56115SOL    HW172902  10.052   4.187  10.839  1.2441  0.0430  1.3948
56115SOL    HW272903   9.977   4.319  10.840  0.5467 -0.3372  0.4125
56116SOL     OW72904   5.504  11.961  11.725  0.1924  0.5679 -0.6969
56116SOL    HW172905   5.515  11.901  11.651 -1.3784 -1.5683  0.6751
56116SOL    HW272906   5.410  11.973  11.731  0.3865  1.6919  0.2240
56117SOL     OW72907   6.588   0.837   3.263 -0.1160 -0.4951  0.2320
56117SOL    HW172908   6.596   0.742   3.264  0.0947 -0.5119 -1.1212
56117SOL    HW272909   6.531   0.858   3.337  0.6516 -1.5820  1.1557
56118SOL     OW72910  10.666   1.205   5.753 -0.4446 -0.0461  0.0437
56118SOL    HW172911  10.666   1.296   5.781 -2.2173 -0.1719  0.5835
56118SOL    HW272912  10.611   1.203   5.675  0.9851 -0.4009 -0.9969
56119SOL     OW72913   0.909   5.120   7.595  0.2070  0.9543 -0.0709
56119SOL    HW172914   0.837   5.181   7.579  0.1553  0.7889 -0.4847
56119SOL    HW272915   0.949   5.151   7.676 -0.6712  0.7310  0.4725
56120SOL     OW72916   7.488   2.814   0.229  0.2053  0.1041  0.1745
56120SOL    HW172917   7.437   2.742   0.268  0.2945 -0.9341 -1.5419
56120SOL    HW272918   7.578   2.795   0.254  0.0125  0.7917  1.4625
56121SOL     OW72919   3.243  11.554   2.680 -0.5259 -0.0208  0.2635
56121SOL    HW172920   3.311  11.599   2.631 -0.9721  2.7670  1.9836
56121SOL    HW272921   3.254  11.584   2.770 -3.3937 -0.2302  0.7861
56122SOL     OW72922   5.811   8.257   2.171 -0.1216  0.0628  0.3849
56122SOL    HW172923   5.840   8.168   2.187  0.3643  0.0218 -0.6609
56122SOL    HW272924   5.762   8.252   2.088 -0.4245  0.6893  0.5179
56123SOL     OW72925   0.960   3.732   7.782 -0.0049  0.3720  0.3236
56123SOL    HW172926   1.021   3.665   7.752 -0.9035 -0.5408  0.4504
56123SOL    HW272927   1.010   3.813   7.782  1.4468 -0.4846  1.2269
56124SOL     OW72928   8.371   7.165   6.356  0.1119  0.5575 -0.3633
56124SOL    HW172929   8.460   7.158   6.321  0.0469  2.6013 -1.1133
56124SOL    HW272930   8.314   7.138   6.284  0.0727 -2.4354  0.6551
56125SOL     OW72931   5.234   3.762  11.679 -0.0995  0.0427  0.0308
56125SOL    HW172932   5.274   3.704  11.614 -0.1628 -0.1621  0.1729
56125SOL    HW272933   5.176   3.705  11.729  0.7894 -0.0532  1.0047
56126SOL     OW72934  10.221   8.382   1.626  0.0716  0.2247  0.4089
56126SOL    HW172935  10.146   8.435   1.600 -0.1571  0.6112  1.7656
56126SOL    HW272936  10.296   8.422   1.581 -0.6140 -0.7506 -1.7369
56127SOL     OW72937   0.897  11.391   4.465 -0.3074  0.0972 -0.1567
56127SOL    HW172938   0.859  11.477   4.484 -1.0556 -0.0375 -0.9672
56127SOL    HW272939   0.899  11.387   4.370 -0.6842 -0.9593 -0.1287
56128SOL     OW72940   9.365   6.679  11.102  0.2817  0.0295 -0.2665
56128SOL    HW172941   9.422   6.603  11.112 -1.6845 -1.6325 -0.9420
56128SOL    HW272942   9.281   6.650  11.139 -0.5891  1.7744 -0.8012
56129SOL     OW72943   9.454   3.945   2.607  0.4867  0.7367 -0.3082
56129SOL    HW172944   9.481   3.982   2.691  0.4191  0.8252 -0.3256
56129SOL    HW272945   9.517   3.874   2.591  0.8401  1.0776 -0.4491
56130SOL     OW72946   1.352   1.483   0.272  0.0738  0.1469 -0.6247
56130SOL    HW172947   1.367   1.389   0.285  0.5668  0.1963 -0.8043
56130SOL    HW272948   1.307   1.488   0.187 -3.1232 -0.1733  0.9200
56131SOL     OW72949   8.066   3.111   8.256  0.0403  0.0775 -0.4591
56131SOL    HW172950   8.138   3.110   8.318  0.1998 -1.8180 -0.6120
56131SOL    HW272951   8.022   3.027   8.269 -0.8969  0.3295 -1.7779
56132SOL     OW72952   6.762   1.093   8.702  0.4891  0.4180  0.3162
56132SOL    HW172953   6.835   1.053   8.656  0.6103  0.1146  0.7644
56132SOL    HW272954   6.801   1.134   8.779 -0.0006 -1.1278  1.4235
56133SOL     OW72955   0.279   5.801   3.319  0.2729  0.0956 -0.2235
56133SOL    HW172956   0.264   5.894   3.336  0.5405  0.0006  0.5724
56133SOL    HW272957   0.337   5.772   3.390  0.8194 -0.5020 -0.8991
56134SOL     OW72958   2.816   8.993   7.176 -0.0474  0.2159  0.3620
56134SOL    HW172959   2.828   8.964   7.267 -0.7492 -0.8787  0.1200
56134SOL    HW272960   2.830   9.087   7.179  2.0964 -0.0705  1.2266
56135SOL     OW72961   1.046  11.983   4.184 -0.0843  0.2311 -0.0564
56135SOL    HW172962   0.988  11.974   4.107 -0.5823 -0.3861  0.3777
56135SOL    HW272963   0.986  12.002   4.256  0.4486  1.4924  0.0698
56136SOL     OW72964   3.093   7.893   7.476  0.2254 -0.1064 -0.7233
56136SOL    HW172965   3.042   7.966   7.511  0.7891  0.6303 -1.4155
56136SOL    HW272966   3.143   7.861   7.551  1.7778  1.7536 -0.8801
56137SOL     OW72967   5.521   7.239  11.790  0.0484 -0.0906 -0.3665
56137SOL    HW172968   5.497   7.254  11.881 -0.4156 -1.8521 -0.1618
56137SOL    HW272969   5.580   7.164  11.793  0.4153  0.1419 -1.4724
56138SOL     OW72970   5.450   6.227   3.391  0.3405  0.4657  0.4285
56138SOL    HW172971   5.430   6.170   3.465 -3.2320 -1.1565 -1.5394
56138SOL    HW272972   5.515   6.178   3.340 -1.3656 -1.1587 -0.3069
56139SOL     OW72973   4.820   2.870   3.243  0.0674 -0.1235 -0.4950
56139SOL    HW172974   4.804   2.950   3.293 -0.7849  0.5014 -1.7129
56139SOL    HW272975   4.739   2.856   3.194 -0.1145 -2.2115  0.2867
56140SOL     OW72976   8.699   9.646   5.493 -0.3353 -0.0308 -0.2055
56140SOL    HW172977   8.664   9.559   5.474  0.2486 -0.4965  0.7703
56140SOL    HW272978   8.636   9.684   5.555  0.3319 -0.4704  0.7587
56141SOL     OW72979   0.212   2.127   8.089  0.1256  0.3979  0.0228
56141SOL    HW172980   0.156   2.186   8.139  0.7052  0.8213  0.1841
56141SOL    HW272981   0.238   2.060   8.153  1.0263  1.0489  0.3575
56142SOL     OW72982  10.561   7.733   4.943  0.1012  0.2415 -0.4164
56142SOL    HW172983  10.590   7.824   4.941  0.4479  0.1345 -0.5016
56142SOL    HW272984  10.580   7.704   5.033  1.6231 -0.2454 -0.8625
56143SOL     OW72985  10.031   9.430   4.879  0.1072  0.0960  0.1271
56143SOL    HW172986  10.024   9.432   4.974  0.8682 -2.5604  0.3304
56143SOL    HW272987   9.972   9.499   4.849  0.3264  1.4140  2.5107
56144SOL     OW72988   4.638   9.125   6.976  0.8477 -0.4049 -0.4903
56144SOL    HW172989   4.608   9.127   6.886 -0.7768 -0.4193  0.0273
56144SOL    HW272990   4.592   9.051   7.016  1.5581 -0.4189  0.3480
56145SOL     OW72991   7.183  11.307   4.440  0.1221  0.4324  0.1215
56145SOL    HW172992   7.157  11.370   4.508  0.8609  0.5254  0.3207
56145SOL    HW272993   7.269  11.337   4.410  0.6886 -0.7237  0.5258
56146SOL     OW72994   5.733   3.844   5.780  0.2667  0.1083  0.1800
56146SOL    HW172995   5.658   3.872   5.832  1.0972  1.8738  0.4900
56146SOL    HW272996   5.705   3.855   5.689 -0.2842 -0.4897  0.2702
56147SOL     OW72997   8.285   0.939  10.797  0.5683  0.3170 -0.1319
56147SOL    HW172998   8.313   0.972  10.711  1.3310 -0.6948 -0.2873
56147SOL    HW272999   8.189   0.934  10.790  0.1601  4.0965  0.5058
56148SOL     OW73000   5.473  12.102   2.329  0.0679  0.3826 -0.2876
56148SOL    HW173001   5.565  12.086   2.307  0.2602  0.2885  0.5317
56148SOL    HW273002   5.430  12.116   2.245  0.3856 -1.8717 -0.9034
56149SOL     OW73003   1.424   0.021   8.861 -0.1015  0.6261 -0.2207
56149SOL    HW173004   1.437   0.048   8.952  0.5308 -2.2650  0.6403
56149SOL    HW273005   1.513   0.010   8.826 -0.3084 -0.3853 -0.4671
56150SOL     OW73006   2.507   7.284   5.422 -0.4894 -0.5186 -0.4767
56150SOL    HW173007   2.592   7.241   5.435  0.0877  0.4787 -0.8921
56150SOL    HW273008   2.469   7.238   5.347 -0.7165 -1.5439  0.2406
56151SOL     OW73009   5.260   5.857   2.404  0.1504 -0.6624  0.5403
56151SOL    HW173010   5.344   5.883   2.366 -0.4703 -1.8010 -1.7630
56151SOL    HW273011   5.224   5.939   2.438  0.8247  0.4435 -1.2518
56152SOL     OW73012   1.354   4.199   1.183  0.2432 -0.1354 -0.3196
56152SOL    HW173013   1.346   4.205   1.279 -0.1237 -2.2112 -0.1628
56152SOL    HW273014   1.410   4.122   1.169 -0.2178 -0.2249 -1.7902
56153SOL     OW73015  10.605  11.947   3.783 -0.3864  0.3903 -0.0084
56153SOL    HW173016  10.645  12.019   3.734 -0.4687  0.6491  0.2991
56153SOL    HW273017  10.521  11.934   3.740 -0.5891  0.8203  0.2433
56154SOL     OW73018   1.865   8.820   7.518 -0.6859 -0.2931 -0.0587
56154SOL    HW173019   1.924   8.881   7.562 -1.0289 -0.6624  0.9336
56154SOL    HW273020   1.818   8.776   7.589 -1.1114 -1.0453 -0.7875
56155SOL     OW73021   0.795   3.127   7.110  0.3369 -0.2108  0.3025
56155SOL    HW173022   0.891   3.122   7.108  0.5197  1.9991 -2.8303
56155SOL    HW273023   0.776   3.221   7.119 -1.6058 -0.6714  1.7276
56156SOL     OW73024   5.846   1.403   4.265 -0.1401 -0.0385  0.3976
56156SOL    HW173025   5.807   1.321   4.295 -0.9378  0.4052  0.5951
56156SOL    HW273026   5.812   1.413   4.176  1.3853 -0.8200 -0.3039
56157SOL     OW73027   4.610  10.385  10.002  0.1300  0.2840 -0.7937
56157SOL    HW173028   4.692  10.359   9.962  0.7485  0.0143  0.5958
56157SOL    HW273029   4.635  10.422  10.087 -1.2306 -0.7066  0.0835
56158SOL     OW73030   4.860   5.085   5.806 -0.1861  0.4495 -0.2966
56158SOL    HW173031   4.876   5.115   5.717  1.3216 -0.7879 -0.4855
56158SOL    HW273032   4.944   5.049   5.835 -1.3960 -1.9906  0.4928
56159SOL     OW73033  12.072   1.218  10.833  0.3795  0.3204 -0.5383
56159SOL    HW173034  12.017   1.223  10.911  0.7421  0.5101 -0.2863
56159SOL    HW273035  12.038   1.287  10.776  0.4331  0.5246 -0.3295
56160SOL     OW73036   8.501  10.986   3.754 -0.3180  0.8053  0.3045
56160SOL    HW173037   8.497  10.898   3.716 -2.5798  0.9033  0.1783
56160SOL    HW273038   8.539  10.973   3.840  0.1411 -0.1683 -0.0243
56161SOL     OW73039   3.683   4.049   7.861  0.2154 -0.5015 -0.0663
56161SOL    HW173040   3.725   4.084   7.940  1.6906 -0.4763 -0.8310
56161SOL    HW273041   3.623   4.119   7.833  1.1740  0.3417 -0.0797
56162SOL     OW73042   8.206   4.003   7.723  0.0963  0.5377 -0.0687
56162SOL    HW173043   8.296   3.971   7.729  0.4234  1.3628 -0.3798
56162SOL    HW273044   8.164   3.944   7.660  0.0290 -0.6707  1.0696
56163SOL     OW73045   1.706   8.389  11.933 -0.0021  0.1058 -0.3844
56163SOL    HW173046   1.736   8.302  11.956 -1.0194 -0.2245 -0.2402
56163SOL    HW273047   1.723   8.442  12.011 -0.2004 -0.1792 -0.1458
56164SOL     OW73048   7.805   1.319   6.579 -0.1449 -0.5558 -0.3404
56164SOL    HW173049   7.815   1.225   6.563 -0.7393 -0.4654 -1.3488
56164SOL    HW273050   7.716   1.329   6.611  0.0639 -0.3839  0.1877
56165SOL     OW73051  11.217   1.989  10.693 -0.1146 -0.2453 -0.0537
56165SOL    HW173052  11.286   1.933  10.728 -0.7045 -1.1064 -0.2449
56165SOL    HW273053  11.189   1.945  10.613 -0.1126  0.6903 -0.5948
56166SOL     OW73054   8.560   2.429   8.803  0.2162  0.0631  0.7439
56166SOL    HW173055   8.543   2.363   8.870 -1.5418 -1.8299 -1.3914
56166SOL    HW273056   8.480   2.481   8.800  0.7031  0.8324  0.8195
56167SOL     OW73057   1.652   0.529   3.535  0.3753 -0.3495  0.1097
56167SOL    HW173058   1.573   0.485   3.566  0.2277 -0.7266 -0.7698
56167SOL    HW273059   1.714   0.459   3.516  0.2101 -0.1836 -1.1073
56168SOL     OW73060  12.056   1.476   6.174 -0.0624 -0.2504  0.6640
56168SOL    HW173061  12.070   1.518   6.259 -0.3995 -0.2564  0.7243
56168SOL    HW273062  12.055   1.549   6.111 -0.4624 -0.1812  0.7464
56169SOL     OW73063   4.380   3.171   8.802 -0.1545  0.0178  0.1447
56169SOL    HW173064   4.317   3.108   8.835 -1.0352  1.4299  1.2897
56169SOL    HW273065   4.433   3.195   8.878  1.0266 -0.2980 -0.5536
56170SOL     OW73066  10.835   0.454   9.592  0.3789  0.1060 -0.7828
56170SOL    HW173067  10.887   0.393   9.644 -0.8325  0.3702  0.8319
56170SOL    HW273068  10.763   0.400   9.558 -0.4087  0.4786  0.2247
56171SOL     OW73069   0.064   7.558   4.199  0.0254  0.3935 -0.2712
56171SOL    HW173070   0.134   7.597   4.147  0.4447  0.8513  0.6244
56171SOL    HW273071   0.102   7.548   4.286 -0.4464 -0.9739 -0.2013
56172SOL     OW73072   0.466   6.225   0.425  0.0758 -0.2734 -0.0571
56172SOL    HW173073   0.433   6.155   0.369  1.4570 -2.1733  1.3708
56172SOL    HW273074   0.555   6.241   0.394  0.2834 -0.1885  0.5746
56173SOL     OW73075   5.701   3.267   1.666 -0.2292 -0.1710 -0.0293
56173SOL    HW173076   5.757   3.195   1.696  0.8351  0.5657 -0.2058
56173SOL    HW273077   5.644   3.227   1.601 -0.2882 -1.0575  0.5506
56174SOL     OW73078   1.803   5.662   9.142 -0.0332  0.1853  0.3242
56174SOL    HW173079   1.768   5.578   9.112  1.5695  0.2857 -2.0505
56174SOL    HW273080   1.726   5.720   9.146 -0.8026 -0.7601 -0.3724
56175SOL     OW73081   8.048  11.662  11.534  0.4425 -0.3235 -0.0300
56175SOL    HW173082   8.038  11.683  11.442  0.0838 -1.0274 -0.1558
56175SOL    HW273083   8.141  11.640  11.544  0.4317 -0.4913 -0.2782
56176SOL     OW73084   4.422   2.156  10.428 -0.2386  0.0229  0.0146
56176SOL    HW173085   4.392   2.091  10.365 -1.1782  1.7237 -1.3988
56176SOL    HW273086   4.348   2.168  10.487  0.1153 -0.5188  0.5821
56177SOL     OW73087  11.682   3.058  11.990 -0.9378  0.1766  0.0031
56177SOL    HW173088  11.715   3.011  11.913  0.2312  1.5171 -0.3553
56177SOL    HW273089  11.670   3.148  11.960  0.3219  0.9198  1.5578
56178SOL     OW73090   3.105   2.012   1.563 -0.4334  0.3644  0.4280
56178SOL    HW173091   3.170   1.975   1.503  0.4371  0.9580  0.9781
56178SOL    HW273092   3.022   1.976   1.533  0.0242  0.3448 -0.9002
56179SOL     OW73093   4.689   7.296   2.657 -0.3178 -0.1922  0.0045
56179SOL    HW173094   4.660   7.253   2.737 -0.8371 -0.3780 -0.2750
56179SOL    HW273095   4.686   7.228   2.590  2.1362 -0.5811  0.2152
56180SOL     OW73096   3.008   1.761   7.187 -0.1782 -0.6804 -0.0842
56180SOL    HW173097   3.047   1.836   7.232 -0.2747 -0.6292 -0.0867
56180SOL    HW273098   3.079   1.696   7.184  1.0536  0.6186 -3.1348
56181SOL     OW73099   7.348   4.010   1.923  0.3809 -0.0053 -0.1562
56181SOL    HW173100   7.411   3.974   1.985 -2.1477 -0.4584  2.3382
56181SOL    HW273101   7.324   4.095   1.959  0.7654  0.9460 -2.0013
56182SOL     OW73102   8.472   8.746   1.143  0.2058 -0.1652  0.1826
56182SOL    HW173103   8.438   8.827   1.105 -2.0163 -1.0464  0.1720
56182SOL    HW273104   8.412   8.727   1.215  1.0589 -1.4859  0.5717
56183SOL     OW73105   3.268   5.473   9.646  0.1095  0.0979  0.4522
56183SOL    HW173106   3.349   5.427   9.624  0.5014  1.4366 -1.1162
56183SOL    HW273107   3.255   5.456   9.739  1.4438 -1.2750  0.4250
56184SOL     OW73108  11.053  11.131   1.093 -0.3633  0.4201  0.5018
56184SOL    HW173109  11.073  11.079   1.171 -0.0782 -0.6451 -0.2601
56184SOL    HW273110  11.118  11.201   1.094 -1.0509  1.0749  1.8004
56185SOL     OW73111   4.971   6.806   8.032  0.0067  0.2675 -0.9387
56185SOL    HW173112   5.044   6.851   7.991  0.7966 -0.6264 -0.5333
56185SOL    HW273113   4.984   6.820   8.126 -1.0496  1.1711 -0.9072
56186SOL     OW73114   6.867   1.179   5.214 -0.5840  0.3536  0.1547
56186SOL    HW173115   6.905   1.139   5.136 -1.6930  0.7020 -0.5886
56186SOL    HW273116   6.933   1.241   5.243 -0.1036  0.1328 -0.4321
56187SOL     OW73117   7.495   3.947  11.140 -0.2044  0.4821 -0.3388
56187SOL    HW173118   7.508   4.035  11.104  1.4647  0.0816 -0.7799
56187SOL    HW273119   7.442   3.961  11.219  1.3441  2.0690  0.4750
56188SOL     OW73120   1.908   3.261   6.985  0.1820  0.3081  0.0732
56188SOL    HW173121   1.988   3.306   7.012  1.0876 -0.3892 -1.4062
56188SOL    HW273122   1.935   3.171   6.968 -1.1195 -0.1830  0.4767
56189SOL     OW73123   2.021   9.948  11.547  0.8545  0.6776  0.5321
56189SOL    HW173124   2.093  10.006  11.573  0.4205  1.7572 -0.5715
56189SOL    HW273125   2.031   9.939  11.452  1.1986 -1.4884  0.7248
56190SOL     OW73126  11.773   6.099   8.395 -0.6184 -0.6048 -0.0031
56190SOL    HW173127  11.834   6.122   8.326  0.1825 -2.3624  0.0717
56190SOL    HW273128  11.710   6.171   8.396  1.1541  1.0473 -0.3859
56191SOL     OW73129   8.679   4.605   0.482  0.5983  0.1654 -0.4366
56191SOL    HW173130   8.637   4.601   0.569 -0.5309 -1.4830 -0.9929
56191SOL    HW273131   8.756   4.549   0.491 -0.9058 -2.1638 -1.1136
56192SOL     OW73132   5.373   1.403   0.083 -0.0220  0.4792  0.2621
56192SOL    HW173133   5.315   1.424   0.009  0.6025  1.7474  0.1002
56192SOL    HW273134   5.345   1.316   0.112 -0.5255  0.1176 -1.2300
56193SOL     OW73135   2.710   7.711   9.846  0.1413 -0.1662 -0.0707
56193SOL    HW173136   2.770   7.782   9.870 -1.0748  0.4844  1.1899
56193SOL    HW273137   2.624   7.742   9.874 -0.5287 -1.8462 -0.1763
56194SOL     OW73138   8.606   1.884   6.660 -0.1362  0.1390  0.3262
56194SOL    HW173139   8.652   1.916   6.583  0.0779  1.3600  0.9331
56194SOL    HW273140   8.669   1.895   6.732 -1.1200  1.1771  1.0551
56195SOL     OW73141   6.534  11.760   8.981  0.2419  0.3099 -0.0240
56195SOL    HW173142   6.567  11.685   9.031 -0.7284  1.1094  1.9112
56195SOL    HW273143   6.572  11.749   8.894 -0.4690 -2.8476 -0.0597
56196SOL     OW73144  11.039  10.863   7.612  0.1469  0.1381 -0.0535
56196SOL    HW173145  11.092  10.825   7.542 -0.2404 -0.3208 -0.1018
56196SOL    HW273146  11.081  10.833   7.693 -0.0502 -0.2334 -0.0912
56197SOL     OW73147   4.008   2.805   8.303  0.2977  0.0987 -0.0636
56197SOL    HW173148   3.954   2.876   8.267  0.6033  0.0830 -0.5509
56197SOL    HW273149   3.944   2.743   8.339 -0.0120  0.0340 -0.7204
56198SOL     OW73150   6.754   6.350   4.193  0.2891  0.3701  0.1153
56198SOL    HW173151   6.806   6.420   4.234  0.2222 -0.1785  1.1954
56198SOL    HW273152   6.663   6.376   4.207  0.2598 -0.0655  0.7977
56199SOL     OW73153  11.872   5.217   9.793  0.3726  0.2129 -0.1062
56199SOL    HW173154  11.868   5.303   9.835 -2.4842  0.2302 -0.1794
56199SOL    HW273155  11.821   5.227   9.713 -0.5593 -1.6423  0.1765
56200SOL     OW73156   7.986   2.365   5.039 -0.6058 -0.2964 -0.2481
56200SOL    HW173157   7.893   2.352   5.021 -0.6718 -0.6036  0.2933
56200SOL    HW273158   8.029   2.351   4.955 -1.2967  2.8011 -1.2367
56201SOL     OW73159   0.083   9.582   7.006 -0.4304  0.1805 -0.0608
56201SOL    HW173160   0.084   9.665   6.959 -1.0599  0.0102 -0.3833
56201SOL    HW273161   0.013   9.592   7.070  0.1221  0.2438  0.5485
56202SOL     OW73162  11.429   4.643   7.586 -0.5210  0.1651 -0.1711
56202SOL    HW173163  11.354   4.587   7.565 -0.9020  0.2134  0.9623
56202SOL    HW273164  11.502   4.604   7.540 -1.1150 -0.2599 -0.7779
56203SOL     OW73165   7.936   5.955   7.956 -0.5643  0.5343  0.7304
56203SOL    HW173166   7.879   5.999   7.893  0.4364  0.8443  0.0089
56203SOL    HW273167   7.903   5.982   8.041 -2.5279 -0.6292  0.3916
56204SOL     OW73168  10.235   5.793   6.556  0.2922  0.1342 -0.3156
56204SOL    HW173169  10.171   5.758   6.618  0.4072  0.3296 -0.0881
56204SOL    HW273170  10.291   5.718   6.535 -0.7643 -0.3694 -1.4871
56205SOL     OW73171   0.388   8.408  11.686  0.1860  0.2381 -0.6556
56205SOL    HW173172   0.311   8.354  11.672  0.9736 -0.6518 -1.6881
56205SOL    HW273173   0.450   8.350  11.730 -0.6078  1.6817  2.7171
56206SOL     OW73174   2.949   9.206  12.068  0.2038 -0.0949 -0.2056
56206SOL    HW173175   3.029   9.154  12.066 -0.4069 -1.1492  0.8732
56206SOL    HW273176   2.931   9.219  12.161 -1.1682 -0.3791 -0.4076
56207SOL     OW73177   3.705   2.664   3.371  0.1783  0.6832  0.1105
56207SOL    HW173178   3.629   2.698   3.419 -0.2754  1.5663 -1.1626
56207SOL    HW273179   3.768   2.642   3.439 -1.4030 -0.5784  1.2467
56208SOL     OW73180  11.329   7.466   3.206 -0.0391 -0.0461 -0.5518
56208SOL    HW173181  11.269   7.479   3.280 -0.8836  1.7963 -1.4977
56208SOL    HW273182  11.284   7.401   3.151 -0.9953  0.9655 -1.0137
56209SOL     OW73183  10.618   6.711   1.819  0.7344  0.2759 -0.5303
56209SOL    HW173184  10.645   6.731   1.908  1.0467 -0.9545 -0.3296
56209SOL    HW273185  10.659   6.627   1.800 -1.1603 -0.5829 -1.0043
56210SOL     OW73186   1.838   3.610  11.774 -0.0143  0.1919  0.3467
56210SOL    HW173187   1.786   3.529  11.768  0.2855 -0.0216  0.5808
56210SOL    HW273188   1.914   3.585  11.827  0.2095  0.5618  0.2015
56211SOL     OW73189   8.927   9.017  10.945  0.4556 -0.2968 -0.3110
56211SOL    HW173190   8.900   8.930  10.916  0.6595 -0.0680 -1.2123
56211SOL    HW273191   8.908   9.074  10.871  0.5573  0.3881  0.1792
56212SOL     OW73192   5.721   2.095   6.498  0.1510 -0.1401  0.1332
56212SOL    HW173193   5.665   2.093   6.576  0.4128  0.8340  0.3651
56212SOL    HW273194   5.702   2.180   6.458 -0.2557 -0.7877 -1.0811
56213SOL     OW73195   9.018   0.888   1.058  0.0247  0.3782 -0.0862
56213SOL    HW173196   8.931   0.926   1.071 -0.2432 -0.6236  1.2645
56213SOL    HW273197   9.000   0.797   1.033  0.6787  0.6472 -1.6374
56214SOL     OW73198   3.008   7.541  11.301  0.5856 -0.0886 -0.2144
56214SOL    HW173199   2.936   7.596  11.331  0.2284  0.0080 -1.2016
56214SOL    HW273200   2.966   7.469  11.255  1.1075 -0.1529 -0.6008
56215SOL     OW73201   0.719  10.449  11.913 -0.5053 -0.1441 -0.2783
56215SOL    HW173202   0.647  10.511  11.927 -1.8631 -1.8021  0.4725
56215SOL    HW273203   0.725  10.440  11.818  0.0697  1.4981 -0.4232
56216SOL     OW73204   2.157  11.438   7.274 -0.3774  0.1326  0.2120
56216SOL    HW173205   2.195  11.426   7.187 -0.1642 -1.2686  0.4821
56216SOL    HW273206   2.063  11.442   7.259 -0.3209  0.2544 -0.1168
56217SOL     OW73207   3.441   6.732   5.913 -0.0103 -0.0307  0.4166
56217SOL    HW173208   3.471   6.679   5.987  0.7329 -1.9548 -1.1768
56217SOL    HW273209   3.521   6.776   5.883 -0.3595  0.9413  0.8664
56218SOL     OW73210   4.255   0.666   3.382  0.1093  0.0197 -0.1943
56218SOL    HW173211   4.268   0.725   3.308  0.0503 -0.3744 -0.5153
56218SOL    HW273212   4.187   0.709   3.434  1.0076  0.9254  0.2922
56219SOL     OW73213   8.841   3.887   2.788 -0.5902 -0.2101 -0.4075
56219SOL    HW173214   8.906   3.911   2.722 -0.7219 -1.3921 -1.0110
56219SOL    HW273215   8.759   3.882   2.739 -0.4899 -2.2790 -0.4635
56220SOL     OW73216   9.055   3.186   1.962 -0.1419  0.4398  0.8398
56220SOL    HW173217   8.990   3.231   1.909 -0.2937  0.1327  0.7662
56220SOL    HW273218   9.082   3.251   2.027 -0.5731  0.5429  0.9159
56221SOL     OW73219   6.398   4.646   0.554 -0.4774 -0.2470 -0.0867
56221SOL    HW173220   6.323   4.587   0.548  0.0984 -1.0920  0.7164
56221SOL    HW273221   6.469   4.598   0.511  0.3383 -0.7638  1.7453
56222SOL     OW73222   6.363   6.260  11.729 -0.4530 -0.0338  0.1584
56222SOL    HW173223   6.348   6.347  11.765  2.0432 -0.3459  2.1372
56222SOL    HW273224   6.321   6.201  11.791  3.4231 -0.5381  2.5935
56223SOL     OW73225   5.546   8.906   0.981 -0.2627 -0.8504  0.5280
56223SOL    HW173226   5.532   8.946   1.068  1.6361  0.4724  0.2869
56223SOL    HW273227   5.539   8.980   0.920 -0.8182 -1.6447 -0.3935
56224SOL     OW73228   4.226   9.618   0.366  0.3069  0.1900 -0.0366
56224SOL    HW173229   4.227   9.621   0.462 -1.1721 -1.8543  0.1069
56224SOL    HW273230   4.148   9.567   0.345  0.5548  0.6760 -2.3562
56225SOL     OW73231   5.559   3.889   9.396  0.3504 -0.0802 -0.8075
56225SOL    HW173232   5.505   3.846   9.330 -2.4536 -0.3382  1.4581
56225SOL    HW273233   5.579   3.821   9.460  0.6531  0.7314 -0.0041
56226SOL     OW73234   5.986   9.153   3.286 -0.2290 -0.5858  0.2082
56226SOL    HW173235   6.052   9.106   3.338 -2.3950 -2.7418  1.2086
56226SOL    HW273236   5.993   9.243   3.317  1.6423 -0.9026  0.8972
56227SOL     OW73237   7.260   5.800   3.088 -0.0429  0.2964 -0.4873
56227SOL    HW173238   7.170   5.768   3.085 -0.5346  1.6179 -0.1703
56227SOL    HW273239   7.280   5.808   3.181  0.6660 -0.6789 -0.5424
56228SOL     OW73240   2.835   3.860   1.682  0.1216  0.3862  0.2227
56228SOL    HW173241   2.780   3.839   1.758 -0.5291 -1.8011 -0.7793
56228SOL    HW273242   2.801   3.944   1.651 -0.2081  0.8709  1.7617
56229SOL     OW73243  10.641  10.967   4.400  0.1510  0.4462 -0.0502
56229SOL    HW173244  10.734  10.948   4.405  0.0811 -0.3133 -1.2334
56229SOL    HW273245  10.620  11.010   4.483  1.1483 -1.0751  1.0267
56230SOL     OW73246   2.526   1.950   8.276 -0.4585 -0.3978  0.0639
56230SOL    HW173247   2.476   2.000   8.341 -0.4011  1.5320 -1.3003
56230SOL    HW273248   2.460   1.907   8.222 -0.5073 -1.9103  1.2363
56231SOL     OW73249   7.640   4.059   4.386 -0.5880 -0.3502 -0.1082
56231SOL    HW173250   7.717   4.076   4.441 -0.5229 -0.0911 -0.2778
56231SOL    HW273251   7.653   4.115   4.310 -0.8852 -0.4021 -0.1963
56232SOL     OW73252   0.626  10.209   7.372 -0.1483  0.3968  0.2865
56232SOL    HW173253   0.557  10.219   7.307 -1.1265  1.6166  1.4515
56232SOL    HW273254   0.654  10.118   7.364 -1.3530  0.0963 -0.7465
56233SOL     OW73255   9.180  11.243   7.373 -0.0268 -0.3602 -0.6076
56233SOL    HW173256   9.140  11.226   7.459 -1.1625 -0.9846 -1.2328
56233SOL    HW273257   9.228  11.163   7.352  3.3259  1.0675  1.0030
56234SOL     OW73258   8.174   3.464   5.758 -0.3017  0.2329  0.1417
56234SOL    HW173259   8.224   3.382   5.765 -0.6064  0.0166 -0.1668
56234SOL    HW273260   8.117   3.464   5.834 -0.5422 -0.0091 -0.0371
56235SOL     OW73261   6.331   6.462   9.793  0.2168  0.8677 -0.8716
56235SOL    HW173262   6.385   6.409   9.851 -0.5107  1.6631  0.6285
56235SOL    HW273263   6.388   6.534   9.766 -0.2173  2.1398  1.3378
56236SOL     OW73264   7.232  10.980   1.672 -0.3061  0.3523 -0.4464
56236SOL    HW173265   7.198  10.893   1.652 -1.4124  0.6769 -0.0251
56236SOL    HW273266   7.212  11.033   1.595 -0.5737  0.4956 -0.2785
56237SOL     OW73267   8.948   7.756  10.173  0.6897 -0.1399  0.4254
56237SOL    HW173268   9.003   7.808  10.231  2.1095 -1.4244  0.3041
56237SOL    HW273269   8.895   7.703  10.233 -0.5317  1.1584  0.5441
56238SOL     OW73270   0.555   1.862   9.333 -0.0502  0.4550  0.0152
56238SOL    HW173271   0.621   1.795   9.318 -0.4236  0.4081 -1.5090
56238SOL    HW273272   0.560   1.920   9.257 -1.1308  0.9735  0.3123
56239SOL     OW73273  11.221   9.663   2.233 -0.3333  0.1095  0.5258
56239SOL    HW173274  11.205   9.738   2.290  1.0698  0.2299  0.7889
56239SOL    HW273275  11.161   9.595   2.265 -2.3829  1.4146 -0.3913
56240SOL     OW73276   4.471   4.661   6.729 -0.6294  0.2327  0.3007
56240SOL    HW173277   4.484   4.685   6.820 -0.4441  2.0865 -0.1697
56240SOL    HW273278   4.402   4.721   6.698  0.6579  0.9825 -1.2639
56241SOL     OW73279   4.995   3.646   9.343 -0.3952  0.0171 -0.3324
56241SOL    HW173280   5.067   3.707   9.355  0.7491 -1.3165 -0.1904
56241SOL    HW273281   4.946   3.680   9.268  0.6080  0.7359 -0.6737
56242SOL     OW73282   8.232  11.073   3.567 -0.9085 -0.3111  0.2287
56242SOL    HW173283   8.226  11.145   3.630  0.5304  0.1087 -0.0713
56242SOL    HW273284   8.240  10.994   3.621 -2.2954 -0.2579  0.5563
56243SOL     OW73285   9.194   0.328   2.115 -0.1612 -0.1425 -0.0591
56243SOL    HW173286   9.146   0.395   2.163  0.9158  0.1785  0.5967
56243SOL    HW273287   9.284   0.361   2.110 -0.2053 -0.1622 -2.2688
56244SOL     OW73288  11.104   5.249   0.812  0.3570 -0.1960 -0.1727
56244SOL    HW173289  11.154   5.328   0.790  1.1528 -0.1566  1.6088
56244SOL    HW273290  11.015   5.280   0.827 -0.0337 -0.1079 -2.3283
56245SOL     OW73291   1.378   0.227   5.029  0.2139  0.2005 -0.9075
56245SOL    HW173292   1.470   0.208   5.007  0.5399  1.5307 -0.7820
56245SOL    HW273293   1.340   0.141   5.049  2.3579 -0.1388  2.6569
56246SOL     OW73294   8.353   9.672   4.925 -0.2472 -0.2097  0.4436
56246SOL    HW173295   8.355   9.695   5.018  1.2071  0.6682  0.2142
56246SOL    HW273296   8.413   9.598   4.917 -1.5128 -1.2735  0.4240
56247SOL     OW73297   7.705   0.253  11.911 -0.2952  0.3666  0.3347
56247SOL    HW173298   7.653   0.328  11.938 -0.0072  0.1251  1.6019
56247SOL    HW273299   7.782   0.255  11.968 -0.5123 -1.1640  0.7233
56248SOL     OW73300  11.301  11.580   6.321 -0.5200 -0.3771 -0.2945
56248SOL    HW173301  11.368  11.644   6.298 -0.4668 -0.2739  0.1545
56248SOL    HW273302  11.349  11.503   6.351 -0.5592 -0.9552 -1.6469
56249SOL     OW73303   6.719   4.375  12.030  0.7210  0.3369 -0.2241
56249SOL    HW173304   6.665   4.370  11.951 -0.0264  0.8953  0.2399
56249SOL    HW273305   6.702   4.462  12.066  0.7417 -0.0588  0.7786
56250SOL     OW73306   1.723   3.666   3.794  0.2984  0.1682  0.3397
56250SOL    HW173307   1.650   3.648   3.853  1.4231  0.8975  2.0427
56250SOL    HW273308   1.689   3.733   3.735 -0.6947 -0.1821  0.4893
56251SOL     OW73309  11.151   7.612   5.085  0.3542  0.1185 -0.4394
56251SOL    HW173310  11.128   7.583   4.997 -3.3716  3.2193 -0.7565
56251SOL    HW273311  11.131   7.537   5.141 -0.4726 -0.7908 -1.8860
56252SOL     OW73312   6.051   7.640   3.602 -0.0887  0.3251  0.4524
56252SOL    HW173313   5.970   7.669   3.560  0.0545 -0.2678 -0.2445
56252SOL    HW273314   6.023   7.605   3.687 -0.4317  1.1072  0.6694
56253SOL     OW73315   8.029   4.677   5.207  0.0799 -0.1909 -0.5397
56253SOL    HW173316   8.037   4.604   5.145 -0.7642 -0.6304 -0.1573
56253SOL    HW273317   8.111   4.675   5.257  0.1200 -0.8072 -0.6172
56254SOL     OW73318   8.270   4.924   6.158 -0.1781 -0.0002 -0.2708
56254SOL    HW173319   8.254   4.922   6.252  1.5656 -0.0134  0.0529
56254SOL    HW273320   8.254   4.834   6.129 -2.0043  0.2777 -0.2620
56255SOL     OW73321   3.470   4.789   7.204  0.6134 -0.3960  0.2098
56255SOL    HW173322   3.547   4.776   7.149  1.6195 -1.9124  1.8691
56255SOL    HW273323   3.483   4.729   7.277 -2.1342 -0.6602  0.5799
56256SOL     OW73324   5.636  10.933   7.420  0.1515  0.7189  0.1247
56256SOL    HW173325   5.729  10.912   7.427 -0.0206  0.3599  1.6961
56256SOL    HW273326   5.601  10.917   7.507 -1.2711  1.4544 -0.2743
56257SOL     OW73327   6.199   1.969  10.081  0.3361  0.1185 -0.2421
56257SOL    HW173328   6.137   1.968  10.008 -0.3223  0.3145  0.3002
56257SOL    HW273329   6.224   1.878  10.093 -1.5117 -0.2997  0.8858
56258SOL     OW73330   8.400   7.265   3.208  0.0209  0.1315  1.0237
56258SOL    HW173331   8.461   7.198   3.178 -2.1345 -1.1255 -1.0166
56258SOL    HW273332   8.435   7.347   3.173  0.1891 -0.6659 -0.8180
56259SOL     OW73333  11.954   4.873  10.883 -0.5200 -0.0106  0.2538
56259SOL    HW173334  11.893   4.880  10.956 -0.7539 -0.0927  0.0670
56259SOL    HW273335  11.917   4.931  10.816 -0.0638  0.4199  0.3689
56260SOL     OW73336   4.657   4.254   5.237 -0.2168  0.0495  0.3170
56260SOL    HW173337   4.745   4.245   5.274 -0.6841 -0.6574  1.2827
56260SOL    HW273338   4.628   4.164   5.224 -0.1391  0.2665 -1.6414
56261SOL     OW73339   8.630   4.403   5.742 -0.2077 -0.5133 -0.1789
56261SOL    HW173340   8.612   4.347   5.818  3.2683 -0.7259  0.6593
56261SOL    HW273341   8.703   4.360   5.697  0.6597  1.8143 -1.1662
56262SOL     OW73342   8.928   3.558   7.734 -0.1651 -0.1910  0.3004
56262SOL    HW173343   8.971   3.528   7.654 -0.4902  1.4461 -0.5355
56262SOL    HW273344   8.908   3.478   7.782  1.8829 -1.1028 -0.2691
56263SOL     OW73345   2.647   5.203   9.390  0.8663 -0.5775 -0.0191
56263SOL    HW173346   2.669   5.148   9.315 -1.5103 -0.8507 -0.5910
56263SOL    HW273347   2.657   5.293   9.358 -1.1766 -0.6675 -1.1033
56264SOL     OW73348   1.219   1.834   5.808  0.0432  0.6142 -0.4718
56264SOL    HW173349   1.164   1.813   5.733 -1.2728  1.3896  0.2367
56264SOL    HW273350   1.178   1.787   5.881  1.2821 -0.0996 -0.2068
56265SOL     OW73351   2.765   5.131   9.156  0.0201  0.0656 -0.3970
56265SOL    HW173352   2.850   5.134   9.111 -1.1410 -1.0592 -2.8138
56265SOL    HW273353   2.706   5.181   9.100 -1.3760 -0.8509  0.1952
56266SOL     OW73354   6.885   9.729   1.713 -0.2849  0.1652  0.3151
56266SOL    HW173355   6.903   9.800   1.652  0.5359  1.6286  2.1646
56266SOL    HW273356   6.803   9.752   1.755 -0.5168 -0.4953  0.2409
56267SOL     OW73357   2.621   6.111   3.788 -0.1727 -0.3168 -0.0595
56267SOL    HW173358   2.621   6.152   3.874  0.4409 -0.1188 -0.1484
56267SOL    HW273359   2.589   6.179   3.729 -0.2410 -0.3332 -0.0412
56268SOL     OW73360   5.113   7.646   5.499 -0.1195 -0.2038 -0.3176
56268SOL    HW173361   5.154   7.648   5.413  1.2974  0.0259  0.3416
56268SOL    HW273362   5.057   7.724   5.501 -0.7985 -0.6359 -1.2979
56269SOL     OW73363  11.599   3.678  11.762 -0.5017  0.3389  0.1737
56269SOL    HW173364  11.561   3.765  11.754 -1.5972 -0.2052 -1.2322
56269SOL    HW273365  11.590   3.640  11.674  0.6672 -0.9067  0.5500
56270SOL     OW73366   1.547   8.633   2.812  0.9823  0.4924  0.5517
56270SOL    HW173367   1.496   8.700   2.765  0.1703 -0.5560 -0.1111
56270SOL    HW273368   1.612   8.683   2.860  0.8682  1.7277 -0.4983
56271SOL     OW73369   8.266   3.989   8.098 -0.5088 -0.1946 -0.8363
56271SOL    HW173370   8.247   4.011   8.189  2.9169 -0.1558  0.0091
56271SOL    HW273371   8.181   3.966   8.060 -1.8218 -2.8087  3.0662
56272SOL     OW73372   8.921   1.043   3.880  0.0270  0.4200  0.5130
56272SOL    HW173373   8.893   0.951   3.879  0.7118  0.1744 -1.6459
56272SOL    HW273374   9.016   1.039   3.876  0.1574  1.2566  2.1156
56273SOL     OW73375  11.017   2.785   6.850  0.5818  0.2320  0.1218
56273SOL    HW173376  10.944   2.841   6.826  0.7499  0.6147  0.4917
56273SOL    HW273377  10.981   2.722   6.912  0.9490  1.5528  1.7240
56274SOL     OW73378   6.648   3.013   7.268 -0.1694 -0.1755  0.7113
56274SOL    HW173379   6.690   3.002   7.353  0.7383  0.2787  0.3310
56274SOL    HW273380   6.555   3.024   7.288 -0.1864 -1.5912  1.5412
56275SOL     OW73381   1.221   3.641   5.308 -0.0775  0.0668 -0.0970
56275SOL    HW173382   1.189   3.552   5.322  1.9210 -0.7254 -0.2800
56275SOL    HW273383   1.253   3.668   5.394 -3.3463  1.8557  0.7525
56276SOL     OW73384   4.797   8.293  11.136 -0.1760  0.1723  0.0265
56276SOL    HW173385   4.765   8.383  11.128 -2.6912 -0.7884 -2.4866
56276SOL    HW273386   4.750   8.257  11.211  0.4321  0.7749  0.7064
56277SOL     OW73387   6.406   3.265   7.454 -0.2853 -0.9195  0.1823
56277SOL    HW173388   6.396   3.179   7.414  0.7377 -1.4198  0.9541
56277SOL    HW273389   6.372   3.326   7.389 -2.8662 -2.0193  0.3929
56278SOL     OW73390   2.547   7.237   2.608  0.4164  0.1157 -0.2362
56278SOL    HW173391   2.468   7.245   2.661 -0.2237  0.3183 -1.2032
56278SOL    HW273392   2.552   7.319   2.558  0.9268 -0.1294 -0.6043
56279SOL     OW73393  10.771   1.129  10.457  0.1273 -0.1521  0.4791
56279SOL    HW173394  10.732   1.061  10.402 -0.9896  1.1220 -0.3621
56279SOL    HW273395  10.771   1.207  10.401 -0.1613  0.9456  1.9692
56280SOL     OW73396   6.674   6.036   3.508  0.2655 -0.1164 -0.0124
56280SOL    HW173397   6.711   6.081   3.583  2.2121 -0.4674 -0.7100
56280SOL    HW273398   6.590   6.079   3.493  0.7045  1.2194  1.1900
56281SOL     OW73399   1.803   2.081   6.052  0.3473  0.1799 -0.4702
56281SOL    HW173400   1.807   2.017   5.981 -1.3617 -1.2849  0.6521
56281SOL    HW273401   1.785   2.029   6.130  1.4511  1.8100  0.9524
56282SOL     OW73402   0.947   8.998   7.775  0.1645 -0.4270 -0.2366
56282SOL    HW173403   0.948   8.923   7.716  1.9129 -0.5450 -0.0985
56282SOL    HW273404   0.894   9.063   7.729  1.3463 -0.5652 -1.9014
56283SOL     OW73405   8.622   1.812   3.968 -0.5103 -0.1580 -0.0012
56283SOL    HW173406   8.633   1.865   4.047  0.2697 -0.7819  0.3163
56283SOL    HW273407   8.685   1.850   3.905 -0.2631 -0.4234  0.0830
56284SOL     OW73408   9.698   5.271   9.082  0.5913 -0.2161  0.2644
56284SOL    HW173409   9.675   5.185   9.117 -0.1531 -0.5971 -1.0840
56284SOL    HW273410   9.624   5.295   9.027 -0.0267  2.1234  1.9632
56285SOL     OW73411   5.909   2.248   0.554 -0.3086 -0.0354  0.3192
56285SOL    HW173412   5.926   2.297   0.473 -0.8279 -1.1049 -0.4723
56285SOL    HW273413   5.996   2.224   0.586 -0.0704  0.9648  0.4605
56286SOL     OW73414   4.985  10.213   1.740 -0.1857  0.5341  0.1097
56286SOL    HW173415   4.919  10.205   1.809  1.2331  0.1278  1.4724
56286SOL    HW273416   5.064  10.174   1.777  0.7186  0.5931 -1.6429
56287SOL     OW73417   2.193   5.087   9.111  0.5364 -0.7777 -0.0429
56287SOL    HW173418   2.214   5.090   9.018 -3.0851 -2.7895 -1.1102
56287SOL    HW273419   2.231   5.005   9.142  1.6101 -0.1802  0.2963
56288SOL     OW73420   6.357  11.145   9.095 -0.2415  0.5241  0.5494
56288SOL    HW173421   6.342  11.195   9.014  1.8657 -0.6628 -0.6446
56288SOL    HW273422   6.342  11.054   9.069 -0.2902  0.1881  1.7289
56289SOL     OW73423   1.006   4.958   2.017 -0.1237  0.1385 -0.1858
56289SOL    HW173424   0.978   4.928   1.931  0.9021 -0.0573 -0.4613
56289SOL    HW273425   1.059   5.036   2.000  1.3889 -0.7943  0.1204
56290SOL     OW73426  10.522   2.227   4.780 -0.3621  0.3445 -0.8567
56290SOL    HW173427  10.489   2.308   4.743 -0.3416  0.6563 -0.2054
56290SOL    HW273428  10.494   2.159   4.719 -1.8792  0.6341 -0.5059
56291SOL     OW73429   5.360   8.625   2.778 -1.0018 -0.1958  0.1489
56291SOL    HW173430   5.314   8.705   2.753 -1.2778 -0.1293  0.8233
56291SOL    HW273431   5.313   8.595   2.856 -1.9794 -1.9624 -1.0722
56292SOL     OW73432   3.131   1.922   3.696 -0.5391  0.1228  0.4050
56292SOL    HW173433   3.105   2.006   3.659  0.5704  0.2422 -0.1433
56292SOL    HW273434   3.068   1.860   3.660  0.1565  0.3248 -1.2800
56293SOL     OW73435   1.137   7.380  11.353 -0.3642  0.1625  0.0971
56293SOL    HW173436   1.227   7.351  11.368 -0.0586  0.7336 -0.5537
56293SOL    HW273437   1.104   7.401  11.440  0.1072 -0.1371  0.3514
56294SOL     OW73438   9.931  10.710   9.439  0.3337  0.4128  0.2432
56294SOL    HW173439   9.866  10.654   9.396  0.1592  1.0054 -0.2880
56294SOL    HW273440   9.884  10.746   9.515  0.4392 -0.1344  0.5719
56295SOL     OW73441   0.465   3.420  11.309  0.4542  0.2309 -0.1122
56295SOL    HW173442   0.435   3.393  11.222 -0.0564  0.6866 -0.0851
56295SOL    HW273443   0.521   3.348  11.339  0.0317 -0.2666 -0.5052
56296SOL     OW73444   6.347   9.124   9.993  0.4622  0.1190 -0.3319
56296SOL    HW173445   6.327   9.158   9.906  2.6035 -0.0868 -0.9543
56296SOL    HW273446   6.289   9.172  10.052 -1.4202 -0.1253 -1.8935
56297SOL     OW73447  11.014   3.633   2.313 -0.0385 -0.1166  0.4909
56297SOL    HW173448  11.066   3.639   2.393 -0.8694 -0.4305  1.0712
56297SOL    HW273449  11.022   3.720   2.273  1.3585 -0.3222  0.2706
56298SOL     OW73450   6.752   0.589   1.248 -0.1131  0.0102  0.0509
56298SOL    HW173451   6.773   0.666   1.301  1.5346 -0.7935  0.6209
56298SOL    HW273452   6.795   0.606   1.164 -1.4786  0.6066 -0.5607
56299SOL     OW73453   0.097   0.383   6.041 -0.0680 -0.0936  0.3940
56299SOL    HW173454   0.089   0.477   6.055 -2.1835 -0.3487  1.2303
56299SOL    HW273455   0.190   0.363   6.058  0.6139  1.9265 -0.6397
56300SOL     OW73456   2.943  11.391  10.134  0.0800  0.2031 -0.4277
56300SOL    HW173457   2.893  11.421  10.059 -0.2281 -0.4980 -0.5078
56300SOL    HW273458   2.971  11.472  10.178 -2.3182  0.6371  0.4452
56301SOL     OW73459   2.087   4.442   8.777 -0.0669  0.3083  0.6256
56301SOL    HW173460   2.081   4.483   8.864 -0.2406 -1.1419  1.3275
56301SOL    HW273461   1.996   4.423   8.754  0.0294  0.1347  0.3882
56302SOL     OW73462   7.471   1.853   5.281  0.1855 -0.6952 -0.0855
56302SOL    HW173463   7.546   1.811   5.239  0.4852  1.3947 -1.7595
56302SOL    HW273464   7.401   1.848   5.216 -0.3229 -0.2308  0.4137
56303SOL     OW73465   4.206  12.037  10.068  0.3621 -0.2832 -0.0348
56303SOL    HW173466   4.146  11.967  10.041  1.0182 -0.8554 -0.0632
56303SOL    HW273467   4.174  12.115  10.023 -0.2010 -0.6329 -0.2566
56304SOL     OW73468   2.928   0.619  10.910 -0.0686 -0.1045  0.7607
56304SOL    HW173469   2.920   0.525  10.894  1.1305 -0.1622  0.3809
56304SOL    HW273470   2.859   0.659  10.857  0.2230 -0.6981 -0.0802
56305SOL     OW73471   7.456   2.235   5.484 -0.1522 -0.2348 -0.8149
56305SOL    HW173472   7.419   2.148   5.498 -0.2885  0.0126  0.4742
56305SOL    HW273473   7.399   2.294   5.534  1.8362  0.1724  1.1703
56306SOL     OW73474   5.445   7.207   8.319  0.1891  0.3112  0.0939
56306SOL    HW173475   5.490   7.147   8.378 -0.6634  0.1015  0.5493
56306SOL    HW273476   5.352   7.187   8.331 -0.0083  0.3487 -1.2255
56307SOL     OW73477   6.813   6.888   2.293 -0.2044 -0.0272  0.2816
56307SOL    HW173478   6.782   6.947   2.224 -1.8951 -1.4744 -0.2488
56307SOL    HW273479   6.896   6.854   2.259 -0.7640 -0.3304 -0.8393
56308SOL     OW73480   6.475   8.111   0.767  0.0869 -0.0988  0.2794
56308SOL    HW173481   6.437   8.105   0.855 -0.9453  0.3440 -0.1208
56308SOL    HW273482   6.564   8.144   0.782 -0.1230  0.1070  1.1534
56309SOL     OW73483   9.222  11.305   3.730  0.1705 -0.2413  0.5310
56309SOL    HW173484   9.264  11.307   3.816  0.6429  1.0717  0.2871
56309SOL    HW273485   9.291  11.273   3.671  0.5481  1.0059  0.2844
56310SOL     OW73486   2.400   9.050   1.046 -0.3471  0.1847 -0.4221
56310SOL    HW173487   2.475   9.064   0.989 -0.3452  1.6204 -0.0936
56310SOL    HW273488   2.324   9.069   0.991 -0.3365  1.8482  0.0817
56311SOL     OW73489   3.716   1.210   8.757 -0.2466 -0.0193  0.2735
56311SOL    HW173490   3.651   1.270   8.721 -2.8991 -1.5494  2.1938
56311SOL    HW273491   3.763   1.263   8.822  0.2579  0.9876 -0.8552
56312SOL     OW73492   6.025  10.747  10.673 -0.2656  0.2338  0.4263
56312SOL    HW173493   5.978  10.665  10.660  0.5551 -0.0103 -1.2825
56312SOL    HW273494   6.062  10.739  10.762 -0.2104 -1.2404  0.3025
56313SOL     OW73495   2.604  11.201   5.411 -0.0194 -0.0594  0.0324
56313SOL    HW173496   2.596  11.290   5.378 -0.6464 -0.5430 -1.1898
56313SOL    HW273497   2.679  11.204   5.469 -0.2056  1.3269  0.2363
56314SOL     OW73498   7.008   7.451  11.578 -0.0336 -0.0073 -0.3596
56314SOL    HW173499   6.966   7.365  11.589 -1.2890  0.6339  0.0907
56314SOL    HW273500   6.945   7.502  11.527  0.1593  1.0239  0.4083
56315SOL     OW73501   9.111   9.223   4.920 -0.0908 -0.4549  0.2625
56315SOL    HW173502   9.035   9.169   4.896 -0.3456 -0.4730  1.0683
56315SOL    HW273503   9.177   9.160   4.948  0.1752 -0.4292 -0.2853
56316SOL     OW73504   3.618   1.399   4.512 -0.1871  0.1156  0.2768
56316SOL    HW173505   3.714   1.394   4.503 -0.2191 -0.7289  0.3284
56316SOL    HW273506   3.588   1.310   4.499 -0.9809  0.3782  0.2440
56317SOL     OW73507   5.911   4.497  10.136  0.6599 -0.1945 -0.2210
56317SOL    HW173508   5.990   4.536  10.174 -0.1139  1.6301 -0.3746
56317SOL    HW273509   5.911   4.525  10.045 -0.3746  0.2315 -0.1143
56318SOL     OW73510   1.350   7.111   8.461 -0.1831 -0.2041 -0.2977
56318SOL    HW173511   1.311   7.196   8.481  0.1426 -0.0100 -0.4788
56318SOL    HW273512   1.275   7.053   8.449 -0.4009 -0.3102  1.3432
56319SOL     OW73513   1.777   7.380   5.691 -0.1005 -0.3231 -0.3130
56319SOL    HW173514   1.855   7.436   5.692 -0.4551  0.3015 -2.2843
56319SOL    HW273515   1.805   7.301   5.646 -0.1708 -0.8541  0.5528
56320SOL     OW73516   1.407   2.441   9.473  0.0591 -0.4600 -0.3986
56320SOL    HW173517   1.406   2.488   9.389  0.2497 -1.5724 -1.0398
56320SOL    HW273518   1.471   2.372   9.461 -1.3322 -1.8784 -0.0444
56321SOL     OW73519  10.927   7.934   0.217 -0.9303  0.3417 -0.4094
56321SOL    HW173520  10.907   7.910   0.126 -0.1893  0.8492 -0.7217
56321SOL    HW273521  10.904   8.027   0.222 -2.3080 -0.0236  0.3374
56322SOL     OW73522   1.857   9.459   4.692 -0.4975  0.1525 -0.3505
56322SOL    HW173523   1.788   9.523   4.675 -0.8913 -0.9866 -3.9396
56322SOL    HW273524   1.927   9.483   4.631  1.3419 -0.1663  1.5117
56323SOL     OW73525   3.114   4.755   7.017 -0.2966  0.0259 -0.8716
56323SOL    HW173526   3.166   4.713   6.948 -0.6469  0.5434 -1.4647
56323SOL    HW273527   3.166   4.831   7.043 -0.2213 -0.1026 -0.6406
56324SOL     OW73528   8.498   4.900   7.686 -0.2358  0.4075 -0.0510
56324SOL    HW173529   8.519   4.994   7.686  1.4501  0.0656  0.4776
56324SOL    HW273530   8.460   4.884   7.772 -2.0181  0.8710 -0.7065
56325SOL     OW73531  11.159  10.053   1.951  0.5987 -0.1494 -0.4757
56325SOL    HW173532  11.129  10.095   2.032 -0.1557  0.2556 -0.9530
56325SOL    HW273533  11.107  10.094   1.882  1.9281  0.2153 -1.2934
56326SOL     OW73534   4.538   8.188  12.065  0.0715  0.5586 -0.3921
56326SOL    HW173535   4.499   8.247  12.130 -0.6535 -0.0736 -0.2373
56326SOL    HW273536   4.510   8.101  12.093  3.4060 -0.2050  1.0087
56327SOL     OW73537   1.290   3.217   7.173 -0.0516  0.1541 -0.3484
56327SOL    HW173538   1.314   3.301   7.213 -0.4522  0.9379 -1.7028
56327SOL    HW273539   1.370   3.188   7.129 -0.8330  1.7201 -3.0493
56328SOL     OW73540   5.373   3.572   3.970  0.0329  0.5827 -0.0226
56328SOL    HW173541   5.438   3.534   3.910  1.9716  2.9038  0.4363
56328SOL    HW273542   5.293   3.578   3.918  0.7397 -0.4827 -1.3012
56329SOL     OW73543   9.947   4.186   9.797 -0.0141  0.2298  0.1223
56329SOL    HW173544   9.926   4.144   9.714  1.0779 -1.2858  0.5488
56329SOL    HW273545   9.974   4.274   9.774 -1.7433  0.5282 -0.8921
56330SOL     OW73546   1.126  11.289   1.972 -0.1265  0.2512 -0.3355
56330SOL    HW173547   1.205  11.236   1.986  1.6431  2.3355 -1.6563
56330SOL    HW273548   1.110  11.331   2.057  0.8191  0.5540 -0.2906
56331SOL     OW73549  10.631   5.006   9.243  0.2956 -0.1951 -0.0818
56331SOL    HW173550  10.548   4.958   9.237 -0.3416  0.6604  1.2483
56331SOL    HW273551  10.662   4.990   9.332  2.1122 -1.3169 -0.8757
56332SOL     OW73552   2.103   3.714   9.752 -0.1554  0.0940  0.4177
56332SOL    HW173553   2.122   3.750   9.839 -0.0348  0.9009  0.0650
56332SOL    HW273554   2.161   3.637   9.746 -0.5741 -0.3106  1.2618
56333SOL     OW73555   7.029   1.617   4.365  0.2991 -0.0803 -0.3432
56333SOL    HW173556   6.981   1.698   4.386  0.1702  0.0460 -1.0915
56333SOL    HW273557   7.066   1.589   4.448 -0.6566  0.0987  0.1626
56334SOL     OW73558   3.334   2.325   3.643  0.2172  0.1146 -0.3293
56334SOL    HW173559   3.347   2.265   3.717  2.7649  0.7169 -0.1807
56334SOL    HW273560   3.363   2.275   3.567  1.7379  0.8614 -0.2879
56335SOL     OW73561   9.138   4.513   1.146  0.5275 -0.2884 -0.1694
56335SOL    HW173562   9.047   4.491   1.165  0.7138 -0.5489  0.4273
56335SOL    HW273563   9.173   4.434   1.105  0.2663  0.0951 -1.1616
56336SOL     OW73564   5.901   0.626   5.572 -0.7288 -0.0812  0.0436
56336SOL    HW173565   5.868   0.711   5.602 -1.9589 -0.2788 -0.6744
56336SOL    HW273566   5.920   0.578   5.652 -0.8929  0.5527  0.4695
56337SOL     OW73567  10.769   1.295   8.734  0.1739 -0.4266  0.1504
56337SOL    HW173568  10.699   1.242   8.772 -1.2010 -0.0968 -1.7648
56337SOL    HW273569  10.754   1.383   8.769 -0.1603 -0.4396  0.0494
56338SOL     OW73570   4.752   3.161   8.601  0.5701 -0.3569  0.4263
56338SOL    HW173571   4.744   3.212   8.682 -0.7117 -1.2910  0.9116
56338SOL    HW273572   4.662   3.148   8.572  1.0039 -0.1269 -1.1214
56339SOL     OW73573   0.630   2.846   4.242 -0.2286  0.3748  0.2278
56339SOL    HW173574   0.633   2.921   4.183  1.2897 -0.6085 -1.0469
56339SOL    HW273575   0.610   2.771   4.185  1.1402 -0.5877  0.9460
56340SOL     OW73576  10.775   4.445  10.949 -0.3688 -0.0113  0.0970
56340SOL    HW173577  10.726   4.526  10.937 -1.9844 -1.0361 -0.5960
56340SOL    HW273578  10.750   4.414  11.036 -1.5280 -0.8612 -0.5079
56341SOL     OW73579   3.725   8.309   8.727  0.5708 -0.4974  0.6285
56341SOL    HW173580   3.645   8.359   8.746 -1.3070 -3.1256  0.0915
56341SOL    HW273581   3.753   8.340   8.641  0.8173  1.1990  1.2772
56342SOL     OW73582   5.651   6.612   9.438 -0.0902 -0.6815  0.1214
56342SOL    HW173583   5.720   6.598   9.503  0.6541  1.3588 -0.1559
56342SOL    HW273584   5.578   6.558   9.468 -0.2066  1.0251  3.3038
56343SOL     OW73585  11.112   1.549   2.366  0.2543  0.5017  0.4824
56343SOL    HW173586  11.183   1.612   2.378  0.0432  0.5858  1.3599
56343SOL    HW273587  11.142   1.470   2.410  0.1362  0.2825  0.1707
56344SOL     OW73588   6.770   3.788   8.630  0.4807  0.2823  0.4379
56344SOL    HW173589   6.707   3.768   8.700  0.3101 -0.1956  0.1521
56344SOL    HW273590   6.742   3.733   8.557  0.7649  0.6520  0.0504
56345SOL     OW73591   5.187   7.656   9.267 -0.7102  0.3731  0.5944
56345SOL    HW173592   5.164   7.587   9.329 -0.3185  0.4305  0.8072
56345SOL    HW273593   5.239   7.613   9.200 -0.3512  0.4788  0.7977
56346SOL     OW73594   8.992   0.780   4.767 -0.3694  0.5213 -0.0078
56346SOL    HW173595   9.054   0.710   4.784 -0.3219  0.5356 -0.1164
56346SOL    HW273596   9.046   0.852   4.734 -0.4072  0.6382  0.1874
56347SOL     OW73597   5.651   7.615  10.603 -0.4787 -0.0353 -0.1710
56347SOL    HW173598   5.633   7.672  10.678  0.1421  0.4631 -0.3934
56347SOL    HW273599   5.706   7.546  10.639  0.2088  0.4609 -0.2598
56348SOL     OW73600   2.445   1.160   3.297  0.4570  0.3285  0.1652
56348SOL    HW173601   2.399   1.082   3.265  1.5146 -0.9865  1.7032
56348SOL    HW273602   2.510   1.179   3.230  0.6410 -0.5371  0.0905
56349SOL     OW73603   4.242   2.289   9.298 -0.5345 -0.1750 -0.2142
56349SOL    HW173604   4.329   2.252   9.284 -1.7712 -2.4957 -3.0823
56349SOL    HW273605   4.213   2.252   9.381  0.7961 -0.2720  0.2256
56350SOL     OW73606  10.686   6.802   5.251 -0.1055 -0.2989 -0.2283
56350SOL    HW173607  10.720   6.891   5.248  0.0367 -0.1847  2.1641
56350SOL    HW273608  10.662   6.781   5.161  1.1316  1.6415 -1.0708
56351SOL     OW73609   6.163   7.599   6.214 -0.0471  0.2655  0.1845
56351SOL    HW173610   6.067   7.593   6.207 -0.1324  2.0280 -0.7377
56351SOL    HW273611   6.188   7.522   6.265 -1.8898 -0.5911 -0.1192
56352SOL     OW73612   2.004  11.714   3.907 -0.3718  0.0598 -0.0519
56352SOL    HW173613   2.029  11.793   3.955 -2.2301  1.8406 -1.8263
56352SOL    HW273614   2.084  11.686   3.863  0.9639 -0.6619  2.5700
56353SOL     OW73615   0.641   5.897   9.568  0.1002  0.4103  0.8745
56353SOL    HW173616   0.630   5.814   9.522 -1.5520  0.4135  1.2277
56353SOL    HW273617   0.553   5.931   9.579  0.6058  1.3594  2.3110
56354SOL     OW73618   0.201   1.451   8.370  0.2936  0.1871 -0.1932
56354SOL    HW173619   0.266   1.398   8.416 -1.3505 -0.8781  1.0173
56354SOL    HW273620   0.230   1.451   8.279  1.3360 -1.2672  0.1039
56355SOL     OW73621   1.470  10.666   6.015  0.4663  0.4722 -0.2036
56355SOL    HW173622   1.549  10.626   5.978 -0.5339 -1.0683 -0.7981
56355SOL    HW273623   1.443  10.604   6.083 -0.2900  0.9287 -0.0869
56356SOL     OW73624   5.226  11.948  11.677  0.0396 -0.4424 -0.4220
56356SOL    HW173625   5.226  11.930  11.583 -1.0541  0.0825 -0.5432
56356SOL    HW273626   5.211  12.043  11.682  1.3976 -0.2500  0.2651
56357SOL     OW73627   7.176   7.246  11.602  0.4320  0.2181  0.3704
56357SOL    HW173628   7.253   7.253  11.658  0.7945 -0.1428 -0.0764
56357SOL    HW273629   7.137   7.333  11.604  1.3123  0.6375 -0.0542
56358SOL     OW73630   7.059   0.563   7.886  0.2875  0.2329  0.4435
56358SOL    HW173631   7.092   0.642   7.842  0.6541 -0.4012 -0.4732
56358SOL    HW273632   7.088   0.572   7.976  1.0205  0.7713  0.1692
56359SOL     OW73633   9.778  10.667   3.699 -0.8308  0.5156 -0.1375
56359SOL    HW173634   9.775  10.572   3.694  2.5197  0.2889 -0.5473
56359SOL    HW273635   9.772  10.696   3.608 -2.4636  0.7777  0.0332
56360SOL     OW73636   9.933   3.858   8.025 -0.2458 -0.1511  0.2453
56360SOL    HW173637   9.877   3.935   8.022 -1.9695 -1.3683 -0.7022
56360SOL    HW273638   9.875   3.788   8.056  0.4392 -1.6737 -1.7291
56361SOL     OW73639   5.642   4.001   6.049  0.2593 -0.3533 -0.2103
56361SOL    HW173640   5.629   4.047   6.131  0.2377  1.5704 -1.2371
56361SOL    HW273641   5.723   3.952   6.061  0.9853  0.9829  0.5081
56362SOL     OW73642   0.105   5.401   4.637 -0.3223  0.7856  0.1579
56362SOL    HW173643   0.118   5.402   4.542  0.8735 -1.0941  0.2594
56362SOL    HW273644   0.031   5.341   4.651 -2.2379  3.0411  0.3116
56363SOL     OW73645   3.690   8.603  11.799 -0.2263  0.1499 -0.2614
56363SOL    HW173646   3.666   8.620  11.708 -0.6989  0.2667 -0.1155
56363SOL    HW273647   3.607   8.600  11.846  0.0183  0.1353  0.1761
56364SOL     OW73648   2.839   3.026   1.611  0.1295 -0.3550  0.0382
56364SOL    HW173649   2.864   3.001   1.700 -0.9975 -1.0559  0.1776
56364SOL    HW273650   2.910   3.083   1.582 -0.1372  1.0354  1.8939
56365SOL     OW73651  11.269   3.672   6.256  0.2222  0.0798 -0.0557
56365SOL    HW173652  11.333   3.659   6.186  0.7033 -0.5679  0.4835
56365SOL    HW273653  11.274   3.591   6.308 -0.2441  0.4785  0.6247
56366SOL     OW73654   1.203  11.841   7.126  0.0147  0.1663 -0.0725
56366SOL    HW173655   1.163  11.905   7.185 -0.3547 -0.5696  0.4939
56366SOL    HW273656   1.200  11.759   7.174 -1.3967 -0.7216 -1.5613
56367SOL     OW73657  11.682   2.365   4.544  0.0145 -0.3002 -0.4761
56367SOL    HW173658  11.651   2.443   4.589  1.6230  0.0722  0.0311
56367SOL    HW273659  11.675   2.386   4.451 -2.2922 -0.6667 -0.4498
56368SOL     OW73660   1.096   0.952   4.270 -0.3139  0.0509  0.0054
56368SOL    HW173661   1.110   1.002   4.350  0.7897  1.2960 -0.9376
56368SOL    HW273662   1.180   0.911   4.251 -0.1750  0.8619 -1.2300
56369SOL     OW73663   2.056  11.219   8.226  0.5153  0.0976  0.2734
56369SOL    HW173664   2.130  11.172   8.188 -0.7230 -1.3952 -0.4088
56369SOL    HW273665   2.076  11.311   8.211  1.4488 -0.3368 -1.3758
56370SOL     OW73666   6.447   8.328   5.827  0.1368 -0.0036 -0.5441
56370SOL    HW173667   6.393   8.324   5.906 -0.7611  1.5262 -1.0355
56370SOL    HW273668   6.484   8.416   5.827  1.1139 -0.3982 -1.2052
56371SOL     OW73669   8.677   5.084   0.155 -0.2974  0.2574 -0.0648
56371SOL    HW173670   8.627   5.003   0.166 -2.3473  1.3916 -0.6567
56371SOL    HW273671   8.615   5.154   0.174  0.3141  1.8128 -3.1446
56372SOL     OW73672   1.205   6.305   7.693  0.0727  0.4003  0.5036
56372SOL    HW173673   1.228   6.336   7.781  0.8224 -1.7843  1.1434
56372SOL    HW273674   1.111   6.319   7.686  0.2288  1.9466  1.0543
56373SOL     OW73675   6.303   6.763   0.260 -0.9957  0.4744  0.0169
56373SOL    HW173676   6.318   6.814   0.339 -0.6875 -0.2218  0.4213
56373SOL    HW273677   6.317   6.672   0.288 -0.6579  0.2416 -0.8948
56374SOL     OW73678   5.739   5.874   7.554 -1.0932 -0.2061  0.7754
56374SOL    HW173679   5.672   5.844   7.493  0.0855 -3.3548  0.8716
56374SOL    HW273680   5.701   5.856   7.641 -1.4897  1.3433  0.9588
56375SOL     OW73681   5.701   3.695   0.713 -0.2322 -0.5434 -0.0455
56375SOL    HW173682   5.669   3.767   0.766 -0.8321 -2.0637  1.7653
56375SOL    HW273683   5.736   3.737   0.634  0.0424  1.7524  1.2123
56376SOL     OW73684   6.071   2.297   9.055 -0.4850  0.4503  0.5198
56376SOL    HW173685   6.037   2.227   8.999  0.9703 -2.0232  2.4892
56376SOL    HW273686   6.166   2.294   9.042 -0.1337 -0.0387  2.8674
56377SOL     OW73687   3.603   8.088   6.596 -0.0669  0.1455 -0.7577
56377SOL    HW173688   3.604   8.010   6.540  1.3258  0.6898 -1.5614
56377SOL    HW273689   3.574   8.056   6.681  1.9163 -1.5932 -0.6378
56378SOL     OW73690  10.752   2.858   8.798  0.7497 -0.1118  0.1546
56378SOL    HW173691  10.743   2.881   8.890 -0.5930 -0.6698  0.1830
56378SOL    HW273692  10.829   2.907   8.768  0.4410  1.0855  1.2463
56379SOL     OW73693   8.931   8.514   7.149  0.3337 -0.1578  0.1928
56379SOL    HW173694   8.919   8.515   7.054  0.4430  1.9252  0.1447
56379SOL    HW273695   8.857   8.464   7.182 -1.2764  1.4018 -0.8571
56380SOL     OW73696   3.352   5.404   3.905 -0.3254 -0.0507  0.6955
56380SOL    HW173697   3.363   5.483   3.958  1.7410  1.0282 -1.1622
56380SOL    HW273698   3.441   5.375   3.886 -0.9739 -0.9921 -1.2505
56381SOL     OW73699   3.391   8.651   5.011 -0.7799 -0.5633 -0.0789
56381SOL    HW173700   3.366   8.561   4.994  0.5274 -1.1135  0.7492
56381SOL    HW273701   3.458   8.670   4.945  0.3345 -0.8716  0.9198
56382SOL     OW73702  10.634  10.313   9.595 -0.6831  0.2144 -0.4343
56382SOL    HW173703  10.678  10.363   9.664 -0.8842 -0.0279 -0.1280
56382SOL    HW273704  10.698  10.247   9.568 -1.0258 -0.4742  0.3731
56383SOL     OW73705   2.324  11.658   8.258  0.8195 -0.5279  0.0464
56383SOL    HW173706   2.364  11.672   8.172  0.9144  0.0857  0.1865
56383SOL    HW273707   2.397  11.632   8.314  0.7476 -0.9885 -0.0673
56384SOL     OW73708   3.767   6.343   7.175  0.9054 -0.4287  0.2018
56384SOL    HW173709   3.731   6.335   7.263  2.9066  2.2158  1.4268
56384SOL    HW273710   3.859   6.321   7.184  1.3332  0.6731 -1.0098
56385SOL     OW73711  11.994   0.181   6.364  0.2906  0.0399 -0.8857
56385SOL    HW173712  12.005   0.094   6.327  0.5487 -0.7367  0.8812
56385SOL    HW273713  11.919   0.173   6.423  1.3208  0.5348  0.5564
56386SOL     OW73714   3.070  10.999  11.876  0.0435  0.2405 -0.0849
56386SOL    HW173715   3.034  11.085  11.854 -0.4084  0.6272  1.9578
56386SOL    HW273716   2.995  10.940  11.869  0.0117  0.2730 -0.0158
56387SOL     OW73717   7.793   0.732   7.260  0.8012 -0.0256  0.4637
56387SOL    HW173718   7.848   0.685   7.323 -0.4148 -0.3013  1.3465
56387SOL    HW273719   7.742   0.664   7.217  0.9369  0.2553 -0.1531
56388SOL     OW73720   7.119  10.624   1.926  0.5581  0.0898  0.2770
56388SOL    HW173721   7.029  10.594   1.920 -0.0388  1.7318  0.4979
56388SOL    HW273722   7.118  10.691   1.995  1.9253  0.2215  0.2082
56389SOL     OW73723   3.656   8.371   1.241 -0.0849  1.4696  0.1661
56389SOL    HW173724   3.563   8.348   1.235 -0.2086  1.7344  0.9380
56389SOL    HW273725   3.689   8.361   1.152 -0.6256  0.4343  0.0698
56390SOL     OW73726   3.404   9.332   8.924 -0.3718 -0.0184  0.1016
56390SOL    HW173727   3.318   9.308   8.889  0.4344 -1.4589 -0.9768
56390SOL    HW273728   3.421   9.419   8.887 -1.3568  0.2820  0.3261
56391SOL     OW73729   1.043   1.245   7.828 -0.1626 -0.1921  0.4672
56391SOL    HW173730   1.078   1.267   7.741  0.9694  1.7105  1.3330
56391SOL    HW273731   1.103   1.179   7.862  0.4473  0.3457  0.4658
56392SOL     OW73732   3.896   0.058   4.367 -0.7206 -0.6657  0.3413
56392SOL    HW173733   3.913   0.080   4.459 -0.4627 -0.6323  0.2871
56392SOL    HW273734   3.983   0.040   4.331 -0.8239 -0.6927  0.1077
56393SOL     OW73735   0.929   9.834   4.973 -0.5412 -0.0279 -0.8983
56393SOL    HW173736   0.983   9.893   5.024 -0.3751 -1.0854  0.2146
56393SOL    HW273737   0.975   9.825   4.890  0.1717  0.3071 -0.5522
56394SOL     OW73738   6.702   4.783  11.232 -0.0288  0.1924 -0.4801
56394SOL    HW173739   6.731   4.793  11.323 -0.2251  2.9127 -0.6281
56394SOL    HW273740   6.606   4.790  11.237  0.0255  1.5765 -0.9714
56395SOL     OW73741   1.068   2.511   6.426  0.3709 -0.2233  0.7347
56395SOL    HW173742   1.154   2.553   6.424  0.7975 -1.0400  1.1171
56395SOL    HW273743   1.006   2.583   6.424  1.0837  0.4528  1.7764
56396SOL     OW73744   4.038   2.839  10.702 -0.6338  0.1805 -0.1367
56396SOL    HW173745   4.108   2.778  10.725  0.3985  2.3734  3.3102
56396SOL    HW273746   4.072   2.888  10.627  1.1624  0.5050  0.8318
56397SOL     OW73747   7.799   3.375   4.257 -0.0489  0.6133 -0.1375
56397SOL    HW173748   7.747   3.358   4.179 -0.3214  0.4595  0.0722
56397SOL    HW273749   7.889   3.385   4.226 -0.0608 -0.0387 -0.4072
56398SOL     OW73750  11.632   0.973   6.041  0.6050  0.3619  0.8137
56398SOL    HW173751  11.568   0.982   5.971  0.6211  0.7453  0.8431
56398SOL    HW273752  11.712   0.944   5.996  0.5445  0.3585  0.7072
56399SOL     OW73753   7.996   8.136  11.342 -0.5935 -0.1555 -0.3231
56399SOL    HW173754   7.969   8.215  11.389  0.0886 -0.7067  1.0456
56399SOL    HW273755   7.990   8.160  11.249  1.2060  2.0725  0.0545
56400SOL     OW73756   0.262   8.340   9.942  0.2497  0.3288 -0.0257
56400SOL    HW173757   0.250   8.252   9.979  2.2296  0.5565  1.3759
56400SOL    HW273758   0.325   8.382  10.001  2.3288  1.3526 -2.7463
56401SOL     OW73759   1.217   9.945   8.011 -0.1766  0.0197 -0.4117
56401SOL    HW173760   1.143   9.891   7.985 -2.2263  1.4269  1.9183
56401SOL    HW273761   1.186   9.991   8.089  2.9023  1.3584  0.1856
56402SOL     OW73762   6.900   8.287   1.546  0.4769  0.6343  0.4881
56402SOL    HW173763   6.816   8.315   1.509  0.5956  0.8048  0.3420
56402SOL    HW273764   6.877   8.235   1.622  0.1691 -1.1489 -0.7558
56403SOL     OW73765   2.530   3.993   5.000 -0.1591 -0.0354 -0.4604
56403SOL    HW173766   2.493   4.081   5.005  1.1796  0.5555 -0.4853
56403SOL    HW273767   2.621   4.007   4.974  0.7827 -1.2275  1.8566
56404SOL     OW73768   3.372   0.676   8.866  0.4528 -0.2974  0.1503
56404SOL    HW173769   3.386   0.620   8.943 -0.1410 -0.8455 -0.1279
56404SOL    HW273770   3.342   0.616   8.799 -0.6354  0.4306 -0.0272
56405SOL     OW73771  10.542   3.341   6.117  0.0262  0.0352  0.1823
56405SOL    HW173772  10.501   3.325   6.202  2.7240 -0.4455  1.5422
56405SOL    HW273773  10.553   3.253   6.079 -0.6968  0.2065 -0.4427
56406SOL     OW73774   4.351  12.044   8.983 -0.6035  0.1825 -0.0489
56406SOL    HW173775   4.326  11.969   8.930 -0.4630  0.7525 -0.9319
56406SOL    HW273776   4.446  12.040   8.988 -0.6084  0.1948  0.0692
56407SOL     OW73777   5.412   3.306  11.279 -0.2454  0.5592 -0.0046
56407SOL    HW173778   5.393   3.320  11.372 -1.6334  0.3085 -0.2222
56407SOL    HW273779   5.450   3.218  11.275 -0.6113  0.3798  0.2966
56408SOL     OW73780   3.842   7.983   2.315 -0.4496 -0.2490  0.0877
56408SOL    HW173781   3.779   7.996   2.387 -1.7548  2.1778 -1.3635
56408SOL    HW273782   3.926   8.011   2.351 -1.0212  0.6392  0.7774
56409SOL     OW73783  10.193   1.624   6.158  0.1298  0.2580  0.3416
56409SOL    HW173784  10.167   1.560   6.091  0.1042 -0.1387  0.7271
56409SOL    HW273785  10.240   1.572   6.223 -1.0657  0.3754  1.3354
56410SOL     OW73786   3.691  10.127   9.705  0.0817  0.1176  0.5493
56410SOL    HW173787   3.762  10.183   9.736  0.6235 -0.4294  0.3118
56410SOL    HW273788   3.688  10.142   9.611 -2.6649  3.0679  0.9161
56411SOL     OW73789   7.194   8.751   0.904  0.1453  0.3616  0.3645
56411SOL    HW173790   7.117   8.702   0.874  0.6392 -0.5934  0.6193
56411SOL    HW273791   7.269   8.697   0.877  0.7097  1.0028  0.6139
56412SOL     OW73792   9.219   6.502   2.425  0.0960  0.4632 -0.5053
56412SOL    HW173793   9.203   6.409   2.436 -0.5604  0.4442 -1.4107
56412SOL    HW273794   9.198   6.519   2.333 -1.3464  1.7805  0.0146
56413SOL     OW73795   8.229   1.772   8.283 -0.4254 -0.0424  0.7412
56413SOL    HW173796   8.293   1.738   8.221 -1.6133 -1.1073  0.0564
56413SOL    HW273797   8.274   1.770   8.367  0.3786 -0.9280  0.3083
56414SOL     OW73798  10.359   5.137   7.603 -0.6858  0.1057  0.0615
56414SOL    HW173799  10.369   5.067   7.668 -2.3545 -1.2583 -1.0531
56414SOL    HW273800  10.293   5.104   7.542 -1.6361  2.7196 -0.4683
56415SOL     OW73801   6.790   1.422   6.456 -0.0751  0.6164  0.2319
56415SOL    HW173802   6.778   1.504   6.409  0.2255  1.1850  1.1125
56415SOL    HW273803   6.834   1.365   6.393 -1.7056  0.5751 -0.9295
56416SOL     OW73804   5.913   6.823   6.485  0.0818 -0.1367 -0.0378
56416SOL    HW173805   5.881   6.907   6.518 -0.3965  0.0706 -0.9971
56416SOL    HW273806   5.982   6.798   6.547 -1.6049 -0.3864  1.8446
56417SOL     OW73807  11.230   6.711   5.939  0.4819  0.3920  0.4090
56417SOL    HW173808  11.321   6.739   5.940  0.0904  1.7265  0.5364
56417SOL    HW273809  11.187   6.762   6.007 -0.6822  0.9927 -0.7135
56418SOL     OW73810   7.339   2.477  11.460  0.2250 -0.1284 -0.0659
56418SOL    HW173811   7.307   2.567  11.462  2.2657  0.6576  0.4920
56418SOL    HW273812   7.435   2.486  11.466  0.4102 -2.3650  2.0965
56419SOL     OW73813   6.007   0.714   2.910 -0.5830  0.3724 -0.3109
56419SOL    HW173814   6.012   0.712   3.005 -1.8453  1.0038 -0.2011
56419SOL    HW273815   5.943   0.647   2.888  0.3373 -0.3638 -0.7888
56420SOL     OW73816   7.040   7.515   8.722  0.4943  0.2659 -0.2118
56420SOL    HW173817   7.107   7.546   8.661 -0.2752 -0.7319 -1.6238
56420SOL    HW273818   6.994   7.447   8.674 -1.9113  1.2897  0.5164
56421SOL     OW73819   7.875   9.338  11.506 -0.1486 -0.1306 -0.1851
56421SOL    HW173820   7.792   9.305  11.537  0.0389  0.4224  0.9457
56421SOL    HW273821   7.887   9.421  11.552  1.2997 -0.4873  0.1364
56422SOL     OW73822   9.432   5.658  10.113  0.0374  0.0130  0.0991
56422SOL    HW173823   9.459   5.680  10.201  0.5016 -1.2219  0.2910
56422SOL    HW273824   9.339   5.637  10.121 -0.1919  0.9919  0.0726
56423SOL     OW73825   8.590   9.409   5.474 -0.0860  0.4662  0.1356
56423SOL    HW173826   8.586   9.335   5.534  0.0141 -0.7490 -1.3025
56423SOL    HW273827   8.530   9.387   5.403 -0.4436  2.0009 -0.0783
56424SOL     OW73828  10.328   8.386   1.019 -0.0758 -0.8459  0.4204
56424SOL    HW173829  10.236   8.369   1.037 -0.0742 -2.7636 -1.1040
56424SOL    HW273830  10.375   8.340   1.088 -0.1793  2.1189  2.6761
56425SOL     OW73831   4.408   5.777   9.228  0.9343  0.0085  0.2328
56425SOL    HW173832   4.436   5.687   9.213 -0.8801 -0.9258  1.9074
56425SOL    HW273833   4.469   5.811   9.293  0.6052 -0.6359  0.8897
56426SOL     OW73834   8.349  11.529  11.240  0.2663 -0.5855 -0.0796
56426SOL    HW173835   8.422  11.481  11.199  2.6151  0.7848  2.1745
56426SOL    HW273836   8.347  11.612  11.193 -0.8793 -1.1549 -1.0903
56427SOL     OW73837   7.096   6.327   1.852  0.5123  0.2713  0.0999
56427SOL    HW173838   7.009   6.366   1.865 -0.1265 -1.1779  0.3908
56427SOL    HW273839   7.133   6.375   1.777  0.1936  2.0765  1.0370
56428SOL     OW73840   1.846   8.577   1.789 -0.0697  0.5399 -0.0252
56428SOL    HW173841   1.773   8.550   1.733 -0.2442 -2.0989  1.3304
56428SOL    HW273842   1.923   8.538   1.748  0.0275  0.0648  0.5914
56429SOL     OW73843   1.904   0.932   7.715  0.1208 -0.5176  0.0321
56429SOL    HW173844   1.900   1.027   7.725 -0.7685 -0.4438 -0.8897
56429SOL    HW273845   1.898   0.917   7.621 -1.1506 -1.5416  0.2463
56430SOL     OW73846   0.548   2.500   6.079  0.0417  0.4941  0.3613
56430SOL    HW173847   0.532   2.557   6.004 -0.9456 -2.3182 -1.7869
56430SOL    HW273848   0.641   2.479   6.075  0.0487  0.5828  0.0765
56431SOL     OW73849  11.666   1.075   7.442 -0.2267  0.0977 -0.0667
56431SOL    HW173850  11.618   1.008   7.490 -1.5458  1.2074  0.2134
56431SOL    HW273851  11.606   1.104   7.374  0.8009  0.1312 -0.9959
56432SOL     OW73852   8.012  10.208  11.974  0.0730  0.6711  0.4936
56432SOL    HW173853   8.047  10.295  11.992  1.3057  0.3958 -0.4440
56432SOL    HW273854   8.084  10.161  11.933 -1.2075 -0.1480 -0.9142
56433SOL     OW73855  10.910   4.969   8.194  0.1017 -0.5706 -0.6485
56433SOL    HW173856  10.980   4.921   8.149  0.4328 -0.5171 -0.1995
56433SOL    HW273857  10.844   4.984   8.126  0.6337 -0.4013 -1.1395
56434SOL     OW73858  11.673   9.344   8.217 -0.1938  0.2298  0.4044
56434SOL    HW173859  11.748   9.285   8.226 -0.7580 -0.6648 -0.6033
56434SOL    HW273860  11.685   9.383   8.130 -1.5151 -0.8090 -0.2610
56435SOL     OW73861   2.487   4.890   4.172 -0.2906 -0.0873  0.3052
56435SOL    HW173862   2.425   4.881   4.245  0.8001  1.3292  1.4786
56435SOL    HW273863   2.573   4.885   4.214  0.3724 -0.1319 -1.0214
56436SOL     OW73864   4.132   0.920   0.127  0.6676 -0.4542 -0.0460
56436SOL    HW173865   4.098   0.871   0.203  1.1783  0.1413  0.5729
56436SOL    HW273866   4.226   0.928   0.143  0.7725 -0.2643 -0.7156
56437SOL     OW73867   6.347   4.307   5.532  0.2199  0.1142  0.5889
56437SOL    HW173868   6.278   4.301   5.598 -1.2082 -0.8220 -0.8942
56437SOL    HW273869   6.313   4.257   5.458  1.7309  1.1350 -0.8716
56438SOL     OW73870   3.237   4.280   3.029  0.3734  0.0968  0.0742
56438SOL    HW173871   3.175   4.261   3.100 -0.2039 -2.5172 -1.0173
56438SOL    HW273872   3.319   4.241   3.057  0.0424 -1.2884 -0.8199
56439SOL     OW73873   9.867   1.437   3.372 -0.1989 -0.2384 -0.0693
56439SOL    HW173874   9.883   1.391   3.290  1.5865 -0.2847  0.2645
56439SOL    HW273875   9.906   1.524   3.358 -0.3417 -0.0702  0.5531
56440SOL     OW73876   9.396   8.362   2.148 -0.5493 -0.0930  0.4987
56440SOL    HW173877   9.352   8.437   2.107 -1.0209  0.0091  1.1724
56440SOL    HW273878   9.486   8.367   2.116 -0.2753  1.4287  1.3671
56441SOL     OW73879  12.023   2.650  10.116 -0.3109  0.2932  0.0519
56441SOL    HW173880  12.040   2.588  10.046  0.2821 -0.1756  0.6058
56441SOL    HW273881  12.078   2.726  10.095 -0.0705  0.1198  0.0560
56442SOL     OW73882   3.207   0.669   3.054  0.2619  0.3877 -0.1870
56442SOL    HW173883   3.292   0.624   3.053 -0.4406 -1.3433  3.2106
56442SOL    HW273884   3.143   0.602   3.033 -0.5734  0.3646  2.1003
56443SOL     OW73885   8.172  10.713   7.924  0.1856  0.4563  0.1041
56443SOL    HW173886   8.133  10.625   7.922 -0.8238  0.8533  1.2346
56443SOL    HW273887   8.263  10.697   7.951 -0.1504 -0.2035  0.9074
56444SOL     OW73888   8.865   4.724   3.214  0.0882  0.6980  0.2518
56444SOL    HW173889   8.885   4.811   3.250  1.3189  0.5299  0.0376
56444SOL    HW273890   8.943   4.672   3.235 -0.1118 -0.0037 -0.7113
56445SOL     OW73891   8.949   6.579   5.476  0.0808  0.5893 -0.1070
56445SOL    HW173892   8.965   6.580   5.382  0.0788 -2.0720 -0.2154
56445SOL    HW273893   9.027   6.538   5.514 -0.9003 -0.5555  0.7592
56446SOL     OW73894   1.313   4.912   4.165 -0.0731 -0.0432  0.2219
56446SOL    HW173895   1.306   5.000   4.126 -0.7001 -0.5501 -0.8517
56446SOL    HW273896   1.225   4.891   4.193 -0.1000 -0.6866 -0.3338
56447SOL     OW73897   6.722   0.401   9.910 -0.3735  0.2439  0.9401
56447SOL    HW173898   6.649   0.415   9.970  0.4748  0.1752  2.0325
56447SOL    HW273899   6.712   0.469   9.843 -0.5819  1.2412  1.9459
56448SOL     OW73900   6.663   7.437   2.091  0.6077 -0.0731 -0.8972
56448SOL    HW173901   6.613   7.517   2.077 -0.4492 -0.2501  1.3984
56448SOL    HW273902   6.753   7.466   2.105  0.0589  0.8704  0.9361
56449SOL     OW73903   4.656   4.976   8.286 -0.3053  0.1274  0.0525
56449SOL    HW173904   4.691   4.902   8.236 -0.7912 -0.6192  0.7898
56449SOL    HW273905   4.632   4.938   8.371 -2.5360  0.6641 -0.2651
56450SOL     OW73906  11.959   2.719  10.379 -0.5163  0.4793 -0.1777
56450SOL    HW173907  12.002   2.685  10.300 -0.5697  0.6988 -0.3037
56450SOL    HW273908  12.031   2.733  10.441 -0.5068  0.0410 -0.0871
56451SOL     OW73909   2.171  11.555   7.773  0.6962  0.0284 -0.4447
56451SOL    HW173910   2.132  11.595   7.851  1.6418  1.4133 -0.6646
56451SOL    HW273911   2.157  11.619   7.703  1.8393 -0.2057 -0.9049
56452SOL     OW73912   4.571   0.407   3.666  0.5680 -0.0508 -0.4200
56452SOL    HW173913   4.639   0.469   3.641  0.3607  0.6214  0.6105
56452SOL    HW273914   4.494   0.461   3.681  0.9629 -0.1435  2.7898
56453SOL     OW73915  10.862   7.102   3.627 -0.0712 -0.2415 -0.7323
56453SOL    HW173916  10.779   7.150   3.634 -0.1699 -0.5916  0.6622
56453SOL    HW273917  10.884   7.107   3.534 -0.6646  1.5146 -0.8182
56454SOL     OW73918   6.242   2.117  10.837  0.0870 -0.0108 -0.4800
56454SOL    HW173919   6.219   2.164  10.757 -0.2742  1.8679  0.6545
56454SOL    HW273920   6.182   2.151  10.903  0.1609 -1.7449  0.5485
56455SOL     OW73921   9.971   3.142   9.162 -0.1489  0.0305 -0.2716
56455SOL    HW173922   9.968   3.184   9.247  0.8190 -1.8215  0.7442
56455SOL    HW273923  10.064   3.145   9.137 -0.7169  3.0080 -2.6498
56456SOL     OW73924   7.611   9.547   3.022 -0.4253 -0.0039  0.1970
56456SOL    HW173925   7.543   9.534   3.088 -1.1221  1.5451 -0.1631
56456SOL    HW273926   7.637   9.639   3.033  0.9377 -0.3136 -0.3077
56457SOL     OW73927   6.787   1.928  10.725 -0.0570 -0.3169  0.7711
56457SOL    HW173928   6.859   1.869  10.749  0.6116  1.4278  3.5089
56457SOL    HW273929   6.708   1.878  10.745  0.3936 -1.3847  0.0138
56458SOL     OW73930  11.128   2.693  11.820 -0.2550  0.0445 -0.0172
56458SOL    HW173931  11.111   2.636  11.745  0.7723 -0.2333 -0.0495
56458SOL    HW273932  11.110   2.639  11.897  0.1741 -0.1567 -0.0543
56459SOL     OW73933   1.794   9.497   3.613 -0.2292  0.4226  0.0045
56459SOL    HW173934   1.839   9.444   3.547 -0.0971  0.8736 -0.2747
56459SOL    HW273935   1.703   9.465   3.612 -0.0721 -0.0382  0.0980
56460SOL     OW73936   9.421   5.554   7.637  0.5265 -0.1186 -0.6496
56460SOL    HW173937   9.413   5.460   7.618 -0.3309 -0.2105  0.1378
56460SOL    HW273938   9.514   5.573   7.620  0.2443 -0.5631 -3.1616
56461SOL     OW73939   0.001   5.542   7.521 -0.0400 -0.4708 -0.4313
56461SOL    HW173940  -0.005   5.447   7.526  1.3409 -0.5270  0.7515
56461SOL    HW273941   0.035   5.569   7.606 -4.6202  1.5416  1.0617
56462SOL     OW73942   8.995   5.786   2.874  0.1206 -0.1091 -0.5834
56462SOL    HW173943   8.908   5.819   2.849 -1.1225 -2.7995 -0.2455
56462SOL    HW273944   9.044   5.864   2.899 -2.2407  1.5256 -0.6626
56463SOL     OW73945   8.823  11.161   7.358  0.4289  0.3524  0.0355
56463SOL    HW173946   8.745  11.213   7.375 -1.1164 -1.4704 -1.0924
56463SOL    HW273947   8.854  11.192   7.273  0.2817  0.3230 -0.0291
56464SOL     OW73948   4.093   7.567   7.654  0.1211 -0.0391 -0.1426
56464SOL    HW173949   4.153   7.504   7.615  0.3229 -0.5908  1.0247
56464SOL    HW273950   4.096   7.642   7.596  1.2751 -0.3980 -0.5737
56465SOL     OW73951   6.680   3.804  10.726  0.2384 -0.0280 -0.2365
56465SOL    HW173952   6.672   3.752  10.806  0.6994 -0.1765 -0.2816
56465SOL    HW273953   6.713   3.888  10.754 -0.5080  0.2481 -0.1638
56466SOL     OW73954   6.132   6.247   3.355  0.6119 -0.0485 -0.1895
56466SOL    HW173955   6.129   6.153   3.340  3.2995 -0.0647 -1.1922
56466SOL    HW273956   6.085   6.260   3.437  0.5125 -2.2943  0.1672
56467SOL     OW73957   4.377   9.746   0.627  0.3410  0.2444 -0.0522
56467SOL    HW173958   4.399   9.839   0.618 -0.5122  0.4200 -0.4339
56467SOL    HW273959   4.281   9.744   0.624  0.3284 -0.5936  0.5208
56468SOL     OW73960   2.587   4.108   1.562  0.3137 -0.1708 -0.3274
56468SOL    HW173961   2.623   4.195   1.547 -1.8063  1.0081  1.0072
56468SOL    HW273962   2.533   4.116   1.640 -0.9559 -2.3798 -0.8643
56469SOL     OW73963   0.456  10.201  10.482 -0.0024 -0.0930 -0.4612
56469SOL    HW173964   0.406  10.270  10.438  1.3872  0.4007 -1.3176
56469SOL    HW273965   0.546  10.233  10.483  0.3215 -0.9514  1.0678
56470SOL     OW73966  10.187   4.974   9.997 -0.4554 -0.4513  0.0708
56470SOL    HW173967  10.166   4.883   9.976 -0.1750 -0.2174 -1.3242
56470SOL    HW273968  10.112   5.024   9.964  0.0848 -0.0500 -0.5777
56471SOL     OW73969   7.639   8.516   2.508 -0.1002 -0.1676 -0.0695
56471SOL    HW173970   7.561   8.488   2.461  1.5068  0.5646 -3.5719
56471SOL    HW273971   7.655   8.605   2.476  0.6871  0.7657  2.6685
56472SOL     OW73972   9.194  11.743   3.386 -0.4491 -0.4467 -0.0785
56472SOL    HW173973   9.135  11.817   3.373  0.5319  0.6198  1.1964
56472SOL    HW273974   9.147  11.667   3.352 -1.6860  0.6906 -0.9579
56473SOL     OW73975  11.876   3.395   3.349  0.0719  0.9264  0.4067
56473SOL    HW173976  11.817   3.369   3.279 -0.6130  2.1029  0.5205
56473SOL    HW273977  11.955   3.344   3.334  0.1467  1.5334 -1.5325
56474SOL     OW73978   6.695  10.902   4.676 -0.0810 -0.4883 -0.3526
56474SOL    HW173979   6.781  10.897   4.634 -0.5659 -0.5852 -1.3664
56474SOL    HW273980   6.677  10.996   4.682  0.1833 -0.4605  0.0657
56475SOL     OW73981   6.250   9.167   4.583  0.0800 -0.4056 -0.3144
56475SOL    HW173982   6.253   9.141   4.491  0.1042  1.3896 -0.8667
56475SOL    HW273983   6.160   9.197   4.597  0.2188 -0.1720  0.0936
56476SOL     OW73984   4.236   3.633  11.276  0.0709 -0.2997  0.1850
56476SOL    HW173985   4.222   3.572  11.348  0.2463  0.3640  0.8026
56476SOL    HW273986   4.331   3.642  11.270  0.0455  0.0049  0.1861
56477SOL     OW73987   4.502   8.805   2.465  0.9737  0.2705  0.3249
56477SOL    HW173988   4.494   8.901   2.470  1.7890  0.3094  1.4813
56477SOL    HW273989   4.414   8.773   2.483  0.6654  0.7966 -0.1918
56478SOL     OW73990   6.071  11.916  11.256 -0.5423  0.6870 -0.2773
56478SOL    HW173991   6.123  11.927  11.335 -0.6623  1.6897 -0.3279
56478SOL    HW273992   6.048  12.005  11.229  2.7131  0.7673 -3.6189
56479SOL     OW73993   4.666   2.650   8.079  0.4529 -0.0632 -0.3833
56479SOL    HW173994   4.731   2.613   8.019 -0.5405  1.5242 -2.5414
56479SOL    HW273995   4.697   2.739   8.096 -1.4310  0.9999 -2.0646
56480SOL     OW73996   6.829   7.565  11.400  0.1749  0.3352 -0.1398
56480SOL    HW173997   6.783   7.576  11.317 -0.0901  0.1553 -0.0204
56480SOL    HW273998   6.801   7.479  11.431  0.1462  0.4709  0.2146
56481SOL     OW73999  11.310   9.475   5.626 -0.1579  0.5479  0.3414
56481SOL    HW174000  11.340   9.557   5.587 -0.3041  0.9354  1.0313
56481SOL    HW274001  11.391   9.432   5.655 -0.1365  0.8451  0.7395
56482SOL     OW74002  10.913   9.867   6.220  0.1896 -0.3530 -0.2658
56482SOL    HW174003  10.914   9.820   6.137 -2.1218 -0.3824 -0.3391
56482SOL    HW274004  10.917   9.959   6.197  2.1685 -0.3865 -0.2363
56483SOL     OW74005   4.583   7.475   7.482  0.0082  0.7044 -0.0540
56483SOL    HW174006   4.674   7.467   7.510 -0.2381 -0.6301  0.4176
56483SOL    HW274007   4.554   7.386   7.466 -1.6579  0.9652  1.2142
56484SOL     OW74008  10.266   9.119   5.490  0.0097  0.2457  0.4441
56484SOL    HW174009  10.273   9.046   5.551  0.9424 -0.1350 -0.1060
56484SOL    HW274010  10.322   9.187   5.526  1.2431 -0.2902 -0.4030
56485SOL     OW74011   7.574   3.713  11.737  0.0076 -0.4900  0.1251
56485SOL    HW174012   7.656   3.746  11.774  0.5047 -0.7514 -0.7160
56485SOL    HW274013   7.508   3.776  11.766  0.7635  0.6241 -0.5232
56486SOL     OW74014   4.376   2.443  11.592 -0.2812 -0.7146 -0.3335
56486SOL    HW174015   4.426   2.477  11.518 -0.3388 -0.8372 -0.4302
56486SOL    HW274016   4.364   2.518  11.650  2.5003 -1.2395  1.1136
56487SOL     OW74017  10.264  11.170   9.040 -0.5303 -0.3775  0.4505
56487SOL    HW174018  10.357  11.163   9.019 -0.4535  1.0471  0.1724
56487SOL    HW274019  10.226  11.087   9.011  0.3788 -0.3202 -1.0072
56488SOL     OW74020   7.909   4.758   1.676 -0.0225 -0.3611 -0.3631
56488SOL    HW174021   7.880   4.806   1.753  1.0255 -0.6004  0.2000
56488SOL    HW274022   7.832   4.754   1.619 -0.5284  0.6847  0.2295
56489SOL     OW74023  11.367   8.772   2.209 -0.4567 -0.3883  0.4434
56489SOL    HW174024  11.320   8.849   2.179 -0.0165 -0.7281 -1.2076
56489SOL    HW274025  11.431   8.805   2.272  2.0083  1.1624 -2.6270
56490SOL     OW74026   7.413   0.562   1.317  0.0215  0.0929  0.4180
56490SOL    HW174027   7.465   0.482   1.310 -2.4072 -1.6527  1.0345
56490SOL    HW274028   7.337   0.547   1.260 -1.4946  1.0563  2.0768
56491SOL     OW74029   1.566   2.184  10.014  0.5559  0.2449 -0.6087
56491SOL    HW174030   1.507   2.109  10.010 -0.4114  0.7441  2.3569
56491SOL    HW274031   1.513   2.258   9.986  0.6435  0.2718 -0.7051
56492SOL     OW74032   2.548  10.421  11.313 -0.1437  0.6803 -0.3837
56492SOL    HW174033   2.550  10.495  11.253 -1.5813  0.9542 -0.1318
56492SOL    HW274034   2.463  10.379  11.297  1.4301 -2.1967 -1.9788
56493SOL     OW74035  11.173   3.075   0.160 -0.0195 -0.5107 -0.1031
56493SOL    HW174036  11.098   3.016   0.155 -2.4052  2.3398 -0.6889
56493SOL    HW274037  11.248   3.020   0.139 -1.7910 -3.6794  1.2030
56494SOL     OW74038   8.234  11.985   8.397  0.7043  0.0002 -0.3025
56494SOL    HW174039   8.169  11.919   8.421 -0.8401  1.6104  0.1601
56494SOL    HW274040   8.289  11.942   8.332 -0.4911 -1.5994 -0.3165
56495SOL     OW74041  10.891  10.905  11.704 -0.4244 -0.1015 -0.1161
56495SOL    HW174042  10.803  10.940  11.721 -0.7538 -0.2397 -1.4311
56495SOL    HW274043  10.950  10.979  11.720 -0.8526  0.2261 -0.0263
56496SOL     OW74044   8.484   5.666   0.395  0.0638 -0.4689  0.0345
56496SOL    HW174045   8.425   5.727   0.440  0.3581  0.1464 -0.3989
56496SOL    HW274046   8.545   5.723   0.347  1.2190 -1.0882  0.7426
56497SOL     OW74047   3.223   3.711  11.864 -0.1492  0.0750  0.2195
56497SOL    HW174048   3.281   3.763  11.920  1.1678 -0.9859 -0.1139
56497SOL    HW274049   3.234   3.621  11.895 -1.4070 -0.1966 -0.0606
56498SOL     OW74050  12.055  10.852   4.541 -0.0508 -0.3244 -0.2133
56498SOL    HW174051  12.102  10.877   4.620 -1.9630 -2.7002  1.8245
56498SOL    HW274052  12.117  10.796   4.493  0.9713  0.7826 -0.2280
56499SOL     OW74053   5.109   0.503   8.309  0.0563 -0.0669  0.0101
56499SOL    HW174054   5.050   0.564   8.353 -1.6610 -0.9597 -0.9480
56499SOL    HW274055   5.052   0.452   8.252  1.0679 -3.6588  1.8697
56500SOL     OW74056   3.806   7.525   5.233 -0.1565  0.0646 -0.8123
56500SOL    HW174057   3.776   7.496   5.147 -0.3461 -1.0245 -0.4023
56500SOL    HW274058   3.743   7.591   5.259 -2.6948 -2.5612  0.2685
56501SOL     OW74059   6.222   7.621   6.876 -0.6423  0.2764  0.6749
56501SOL    HW174060   6.264   7.694   6.830  0.3793 -0.4278  0.4498
56501SOL    HW274061   6.262   7.621   6.963  0.5988 -0.9866  0.1496
56502SOL     OW74062   1.797   9.712   4.192  0.0901  0.2308 -0.1291
56502SOL    HW174063   1.842   9.793   4.167 -1.3332  1.3607  0.7946
56502SOL    HW274064   1.752   9.684   4.112  1.3279 -0.1911 -0.7046
56503SOL     OW74065   6.130   5.279   6.641  0.7377  0.1228  0.0813
56503SOL    HW174066   6.124   5.366   6.679  1.4053 -0.0017  0.4859
56503SOL    HW274067   6.046   5.238   6.661  0.7877  0.3347  0.7398
56504SOL     OW74068   2.050   1.330   2.613 -0.0893  0.5199 -0.0751
56504SOL    HW174069   1.989   1.379   2.558  0.4859 -1.2081 -2.3724
56504SOL    HW274070   2.118   1.394   2.635 -1.0644  1.6197 -0.1325
56505SOL     OW74071   5.750  10.277   9.536  0.1239  0.4216 -0.2203
56505SOL    HW174072   5.842  10.267   9.510  0.5329  0.3370  1.1590
56505SOL    HW274073   5.748  10.244   9.626 -2.1824 -4.1448 -1.6301
56506SOL     OW74074  10.203   2.326   1.303 -0.2065  0.2484 -0.2755
56506SOL    HW174075  10.144   2.397   1.278 -1.6626 -1.2069 -1.1131
56506SOL    HW274076  10.212   2.272   1.225 -1.4820 -2.0938  1.0633
56507SOL     OW74077   9.621   8.629   6.968  0.5526  0.6827 -0.2035
56507SOL    HW174078   9.556   8.678   7.019 -0.9246 -0.9639 -0.3715
56507SOL    HW274079   9.703   8.644   7.014 -0.2429  1.4988  1.0273
56508SOL     OW74080   2.825   7.265   5.773  0.1930 -0.2162 -0.4957
56508SOL    HW174081   2.845   7.334   5.836 -2.5314 -0.8035  1.2224
56508SOL    HW274082   2.854   7.184   5.815  2.8033 -0.2758 -2.2269
56509SOL     OW74083  12.075   0.602   6.267 -0.1758 -0.1524 -0.2974
56509SOL    HW174084  12.121   0.592   6.184 -1.4972  0.9870 -1.1897
56509SOL    HW274085  12.106   0.529   6.320 -0.1589 -1.5770 -2.1816
56510SOL     OW74086   5.413   8.661   9.137 -0.0574 -0.6851  0.0327
56510SOL    HW174087   5.411   8.568   9.159 -0.1295 -0.4395  1.0849
56510SOL    HW274088   5.505   8.685   9.145 -0.4837  0.2545  3.8668
56511SOL     OW74089   6.260   7.982   2.365 -0.1814 -0.0215  0.4563
56511SOL    HW174090   6.244   7.904   2.417 -0.8600 -0.8866 -0.9846
56511SOL    HW274091   6.217   8.053   2.412  0.4071 -0.4984  1.7588
56512SOL     OW74092   9.544   1.363   2.532 -0.2326 -0.3594 -0.2102
56512SOL    HW174093   9.465   1.311   2.516  1.4855 -3.1894 -0.2786
56512SOL    HW274094   9.614   1.315   2.487  1.6229  1.8344  0.1264
56513SOL     OW74095   4.232  12.114   5.331 -0.1712 -0.4661  0.7407
56513SOL    HW174096   4.159  12.115   5.270  0.2601 -0.3154  0.2153
56513SOL    HW274097   4.237  12.023   5.361  1.1073 -1.1272 -1.3079
56514SOL     OW74098   9.392   2.723   3.854  0.4545 -0.4227  0.2838
56514SOL    HW174099   9.395   2.633   3.821 -1.5966 -0.2267 -0.6010
56514SOL    HW274100   9.480   2.757   3.839  1.1799 -2.1707  0.3430
56515SOL     OW74101   9.192   2.128   4.376 -0.1871  0.2754 -0.5928
56515SOL    HW174102   9.217   2.036   4.364  0.4252  0.3380  0.1348
56515SOL    HW274103   9.110   2.137   4.328  0.4027 -0.3272 -1.7641
56516SOL     OW74104   8.938   4.796  10.296  0.0983 -0.0871 -0.7117
56516SOL    HW174105   8.963   4.889  10.293 -0.5840  0.1327 -0.0843
56516SOL    HW274106   8.924   4.779  10.389  0.2212 -0.8251 -0.8278
56517SOL     OW74107  11.150   8.863   2.374 -0.1435 -0.5825  0.1750
56517SOL    HW174108  11.120   8.893   2.460  0.7276  1.5334 -0.2057
56517SOL    HW274109  11.071   8.863   2.320 -0.1624  1.5238  0.0986
56518SOL     OW74110   6.866   7.642   8.319  0.0877 -0.1969  0.4388
56518SOL    HW174111   6.938   7.580   8.335 -0.1900 -1.1795 -1.7425
56518SOL    HW274112   6.885   7.679   8.233 -2.0559 -0.5585 -0.2342
56519SOL     OW74113   7.959   2.124   9.694  0.4140 -0.0291  0.1345
56519SOL    HW174114   7.889   2.145   9.755  0.7326  1.1722  0.1205
56519SOL    HW274115   7.919   2.137   9.607  1.0410  2.3238  0.1084
56520SOL     OW74116   0.170  11.405   8.552 -0.3002  0.3494 -0.1620
56520SOL    HW174117   0.125  11.395   8.468 -1.4984  0.8805  0.3967
56520SOL    HW274118   0.242  11.341   8.549 -1.6352 -1.1836 -0.7194
56521SOL     OW74119   7.909   2.718   9.784 -0.1525  0.8196 -0.3963
56521SOL    HW174120   7.873   2.734   9.696 -0.3364  0.7260 -0.3386
56521SOL    HW274121   7.983   2.660   9.769 -0.5133  0.3592 -0.4421
56522SOL     OW74122   7.730   9.095   0.229 -0.3066  0.0391  0.0173
56522SOL    HW174123   7.742   9.052   0.144  0.0169 -0.9879  0.5660
56522SOL    HW274124   7.797   9.164   0.229 -0.7973  0.5398 -0.8516
56523SOL     OW74125   0.636   2.578   8.177 -0.1894 -0.1079  0.2240
56523SOL    HW174126   0.542   2.588   8.170 -0.1036 -0.1064 -1.1735
56523SOL    HW274127   0.670   2.667   8.186 -0.3457 -0.1463  1.3103
56524SOL     OW74128   2.377   8.243  10.019 -0.3613  0.1907  0.3591
56524SOL    HW174129   2.390   8.210  10.108 -0.7909  0.6084  0.5803
56524SOL    HW274130   2.466   8.261   9.987 -0.1479 -0.7622  0.3884
56525SOL     OW74131  10.759  11.531   9.248  0.2329 -0.8905 -0.1460
56525SOL    HW174132  10.664  11.529   9.233  0.0666  0.6618  0.5221
56525SOL    HW274133  10.784  11.439   9.255 -1.5079 -1.3068  1.3700
56526SOL     OW74134  11.734   6.964   3.619  0.2880 -0.1390  0.2282
56526SOL    HW174135  11.649   6.928   3.645  0.3329 -0.8465 -0.5837
56526SOL    HW274136  11.713   7.028   3.551  0.3905 -0.1211  0.2136
56527SOL     OW74137  11.770   8.124   0.617 -0.1724  0.3912  0.4849
56527SOL    HW174138  11.814   8.040   0.620 -0.2154  0.3863  1.5143
56527SOL    HW274139  11.841   8.189   0.624 -0.0783  0.4750 -0.9774
56528SOL     OW74140  10.877   7.341   2.614  0.0880 -0.3172 -0.1364
56528SOL    HW174141  10.791   7.382   2.606 -0.4968 -1.2722  0.9300
56528SOL    HW274142  10.938   7.414   2.615 -0.6043  0.3433 -1.8936
56529SOL     OW74143   1.629   3.866   3.621  0.1756  0.0912 -0.2092
56529SOL    HW174144   1.638   3.936   3.556  0.0912 -0.0136 -0.3353
56529SOL    HW274145   1.569   3.901   3.686  0.4954  0.3116 -0.0297
56530SOL     OW74146   4.354  10.473   1.507 -0.8445  0.3244  0.2444
56530SOL    HW174147   4.300  10.508   1.435 -2.0413  2.5473  2.0888
56530SOL    HW274148   4.443  10.472   1.472 -1.3838  1.3868 -1.2674
56531SOL     OW74149   4.194   1.352  10.859 -0.2850 -0.3985 -0.6147
56531SOL    HW174150   4.166   1.321  10.945 -1.7240  3.0112  0.3349
56531SOL    HW274151   4.139   1.304  10.797 -2.8419  0.5516  0.7729
56532SOL     OW74152   0.886   5.625   4.997  0.0433  0.6287 -0.0043
56532SOL    HW174153   0.865   5.628   5.091 -0.0340  1.6918 -0.0446
56532SOL    HW274154   0.815   5.671   4.954  1.2803  2.3297 -0.3416
56533SOL     OW74155  12.085   3.780   9.008  0.4514 -0.1185  0.2147
56533SOL    HW174156  12.031   3.843   8.961 -1.3118 -0.4935  1.6093
56533SOL    HW274157  12.147   3.747   8.943 -1.3984 -0.1033 -1.6482
56534SOL     OW74158  10.836  11.287  11.182  0.9676 -0.0792  0.1119
56534SOL    HW174159  10.815  11.262  11.092  2.9793  1.7328 -0.9626
56534SOL    HW274160  10.781  11.364  11.198 -1.1072 -1.7194  1.3702
56535SOL     OW74161  11.779   8.016   7.843 -0.1352  0.6556 -0.0169
56535SOL    HW174162  11.867   8.023   7.808  0.3762  1.5090  1.3449
56535SOL    HW274163  11.722   8.019   7.767  1.0043  0.1266 -0.9106
56536SOL     OW74164   2.306  11.140   7.853  0.2340  0.2931 -0.5075
56536SOL    HW174165   2.226  11.172   7.811  0.2690  0.6737 -0.2837
56536SOL    HW274166   2.304  11.045   7.838  0.3518  0.4379 -1.5604
56537SOL     OW74167   5.928   7.547   2.516  0.6469  0.2200 -0.0421
56537SOL    HW174168   5.855   7.595   2.557  0.5713 -0.1210  0.2342
56537SOL    HW274169   5.886   7.473   2.472  0.9474 -1.0394  1.6492
56538SOL     OW74170   6.487   0.425  11.407 -0.3314  0.2544 -0.4116
56538SOL    HW174171   6.527   0.512  11.407 -0.9878  0.5729  0.6264
56538SOL    HW274172   6.448   0.416  11.320  2.3850 -0.2892 -1.6930
56539SOL     OW74173   4.719  10.629   9.028  0.3888 -0.0598 -0.5989
56539SOL    HW174174   4.810  10.650   9.008  0.3351  0.7668 -0.0085
56539SOL    HW274175   4.722  10.542   9.067  0.9061 -0.1024 -0.7260
56540SOL     OW74176   1.201   5.839   9.887 -0.1946 -0.2821  0.0255
56540SOL    HW174177   1.111   5.868   9.904  0.9414  2.3151  2.2506
56540SOL    HW274178   1.197   5.802   9.799 -3.2256  0.6113 -0.3471
56541SOL     OW74179   9.998   0.311   3.503 -0.1790  0.6287  0.0029
56541SOL    HW174180  10.005   0.217   3.487 -1.8334  0.3413  0.7385
56541SOL    HW274181  10.084   0.346   3.480  0.2152 -0.9439 -1.0470
56542SOL     OW74182   1.097   5.394   8.540  0.3484  0.2789 -0.0736
56542SOL    HW174183   1.187   5.374   8.514  0.3734 -0.0231  0.2286
56542SOL    HW274184   1.049   5.398   8.458  0.6466  0.4947 -0.2419
56543SOL     OW74185   4.274   1.822   3.439  0.0179  0.4158  0.1147
56543SOL    HW174186   4.250   1.758   3.372 -0.1127  1.0924 -0.5065
56543SOL    HW274187   4.203   1.886   3.436  1.0280  1.5499 -0.5657
56544SOL     OW74188   3.446   0.277   9.557  0.1364  0.1362 -0.3259
56544SOL    HW174189   3.439   0.185   9.583 -0.3711  0.3359  0.2507
56544SOL    HW274190   3.370   0.319   9.595 -0.0144  0.6700 -1.1796
56545SOL     OW74191  11.275   2.379  10.738 -0.1660 -0.9928  0.0133
56545SOL    HW174192  11.301   2.327  10.662  1.6118 -0.4936  0.2274
56545SOL    HW274193  11.304   2.327  10.814  1.1557  0.0282  0.2395
56546SOL     OW74194   2.871   3.955   7.222  0.2981  0.0109 -0.6361
56546SOL    HW174195   2.932   4.028   7.231  0.1907  0.2521 -1.6798
56546SOL    HW274196   2.792   3.984   7.266  0.6372  0.0480 -0.0343
56547SOL     OW74197   3.101   6.538  10.103 -0.1373 -0.2326  0.1041
56547SOL    HW174198   3.129   6.618  10.148  1.9119  0.2680 -1.8944
56547SOL    HW274199   3.118   6.469  10.167  1.1661  0.6039  0.7298
56548SOL     OW74200   6.467   1.965   3.294  0.1885 -0.4303  0.6449
56548SOL    HW174201   6.447   2.031   3.227  3.9161  0.5206  0.2712
56548SOL    HW274202   6.473   2.015   3.376 -0.5560 -0.9572  1.0336
56549SOL     OW74203   4.342   7.944   3.153  0.3585  0.0702 -0.5619
56549SOL    HW174204   4.356   8.039   3.160  0.5007 -0.0291  0.7446
56549SOL    HW274205   4.247   7.933   3.165  0.0993  0.1483 -2.2587
56550SOL     OW74206   8.942   8.815   4.581 -0.1763 -0.1361 -0.4282
56550SOL    HW174207   8.930   8.797   4.487 -0.3565  1.0874 -0.6588
56550SOL    HW274208   8.863   8.781   4.622 -0.5084  0.1346 -0.8394
56551SOL     OW74209   3.781   5.891   9.176 -0.1402 -0.3036 -0.5116
56551SOL    HW174210   3.811   5.937   9.098  0.2698 -0.2707 -0.3406
56551SOL    HW274211   3.820   5.941   9.249 -0.4290 -0.3957 -0.2938
56552SOL     OW74212   3.990   3.837   4.413  0.1046 -0.4501  0.2210
56552SOL    HW174213   3.992   3.920   4.460  1.7139  0.8107 -1.8981
56552SOL    HW274214   3.903   3.834   4.373  0.7177  1.3014 -1.3787
56553SOL     OW74215   0.684   8.982   1.291  0.2145 -0.0035  0.1813
56553SOL    HW174216   0.756   9.011   1.347 -0.0895 -1.3195  1.3051
56553SOL    HW274217   0.630   8.926   1.348  0.9624 -3.0689 -1.8606
56554SOL     OW74218   0.842   8.089   1.020 -0.0112  0.2992 -0.3305
56554SOL    HW174219   0.798   8.070   0.937 -0.4534  0.7681 -0.2064
56554SOL    HW274220   0.796   8.165   1.055  0.3832  0.3038  0.1912
56555SOL     OW74221   9.655   0.155   0.058  0.0567 -0.0545  0.3010
56555SOL    HW174222   9.740   0.181   0.021  1.2510 -2.6727  0.9154
56555SOL    HW274223   9.605   0.123  -0.017 -0.0699  0.6935  0.0594
56556SOL     OW74224   6.916   3.506   8.215  0.2987 -0.4974  0.1175
56556SOL    HW174225   6.830   3.481   8.247 -0.0867  0.7813  0.1229
56556SOL    HW274226   6.927   3.455   8.135 -0.2526 -1.0206  0.3655
56557SOL     OW74227   3.445   7.630   5.162  0.6214 -0.3889 -0.2566
56557SOL    HW174228   3.375   7.669   5.215  0.6907 -0.0450 -0.4190
56557SOL    HW274229   3.405   7.552   5.124 -0.1853  0.6312 -1.6226
56558SOL     OW74230   2.148   8.963   2.959 -0.3486  0.3408 -0.6716
56558SOL    HW174231   2.221   9.006   2.915  1.1546 -1.3702  0.0163
56558SOL    HW274232   2.129   9.020   3.034 -0.1447  1.1295 -1.2071
56559SOL     OW74233  10.471   0.337   4.185 -0.4572 -0.2166 -0.2553
56559SOL    HW174234  10.457   0.429   4.207 -0.7502 -0.0928 -0.9337
56559SOL    HW274235  10.499   0.339   4.093 -1.1501 -0.8553 -0.4782
56560SOL     OW74236   6.709   0.255   9.520  0.4020  0.2856 -0.7700
56560SOL    HW174237   6.617   0.268   9.544  0.2108  0.0843 -1.3656
56560SOL    HW274238   6.705   0.200   9.441  1.0298  0.3397 -0.8400
56561SOL     OW74239   9.472   3.751   1.023  0.6177  0.2647  0.1487
56561SOL    HW174240   9.539   3.687   1.047  0.6572 -0.1951 -1.1173
56561SOL    HW274241   9.394   3.722   1.069  0.8304 -0.2527  0.1925
56562SOL     OW74242   4.433   8.229   4.528 -0.1485 -0.1609  0.4693
56562SOL    HW174243   4.390   8.226   4.443 -0.9127 -1.3926  0.8738
56562SOL    HW274244   4.513   8.178   4.517  1.5134  2.4414 -0.3877
56563SOL     OW74245   3.386   6.238   4.570 -0.0836 -0.8937 -0.3495
56563SOL    HW174246   3.346   6.151   4.571  1.1263 -1.4697  0.0785
56563SOL    HW274247   3.480   6.222   4.558  0.2169  0.3247  0.1515
56564SOL     OW74248  10.499   8.831   9.440 -0.5197 -0.8827  0.0005
56564SOL    HW174249  10.463   8.858   9.525  1.5585  0.7020  0.4651
56564SOL    HW274250  10.489   8.907   9.384  2.6045 -0.0202  0.3942
56565SOL     OW74251   5.241  10.868   4.104 -0.1359  0.4467  0.0708
56565SOL    HW174252   5.220  10.961   4.115  0.3971  0.6032 -0.2280
56565SOL    HW274253   5.221  10.849   4.012  1.9887  0.8700 -0.5355
56566SOL     OW74254   1.510   9.396   5.536  0.5984 -0.0479 -0.5737
56566SOL    HW174255   1.504   9.484   5.573 -0.6561 -0.7718  1.0855
56566SOL    HW274256   1.469   9.404   5.449  0.9131  1.0814 -0.6381
56567SOL     OW74257   3.239   0.538   4.418  0.0790 -0.0978 -0.0226
56567SOL    HW174258   3.314   0.479   4.410  0.8245  0.7686  0.3731
56567SOL    HW274259   3.264   0.598   4.488  0.1903  1.8943 -1.6860
56568SOL     OW74260   8.798   5.631   2.577 -0.4525  0.2245  0.0857
56568SOL    HW174261   8.843   5.612   2.494 -0.6619 -2.6268  0.5488
56568SOL    HW274262   8.867   5.624   2.644 -1.0221 -1.6076  0.5279
56569SOL     OW74263   8.114   4.295   3.089  0.5817  0.1789 -0.1177
56569SOL    HW174264   8.066   4.222   3.050  0.5944  1.3088 -2.4346
56569SOL    HW274265   8.057   4.326   3.160 -1.7855  0.8856 -2.1747
56570SOL     OW74266   7.883  11.145   7.398 -0.4963  0.1289 -0.3137
56570SOL    HW174267   7.817  11.091   7.353  0.2287 -0.2490 -0.9621
56570SOL    HW274268   7.835  11.220   7.431 -1.2612 -0.1637 -0.7406
56571SOL     OW74269   7.226  10.033   5.454 -0.4327 -0.1993  0.3936
56571SOL    HW174270   7.273  10.019   5.536  1.3828  0.0387 -0.5664
56571SOL    HW274271   7.188  10.120   5.463 -0.4858 -0.2885  1.0873
56572SOL     OW74272   8.898   1.460  10.462 -0.3390 -0.5450  0.2868
56572SOL    HW174273   8.987   1.440  10.432 -1.0002 -0.9866 -1.4727
56572SOL    HW274274   8.878   1.390  10.525  0.4463 -0.5995  0.4836
56573SOL     OW74275   0.778   3.565   7.560  0.5681  0.3148 -0.4475
56573SOL    HW174276   0.740   3.538   7.644  0.6251  3.0847  0.6021
56573SOL    HW274277   0.703   3.596   7.509  0.9018  2.3013  0.1764
56574SOL     OW74278   6.825  10.655   9.056 -0.4778 -0.3732 -0.6432
56574SOL    HW174279   6.886  10.671   8.984 -0.5839  1.4730 -0.3663
56574SOL    HW274280   6.881  10.641   9.133 -0.3449  1.4239 -0.3677
56575SOL     OW74281   4.439   7.167   5.834 -0.3782  0.1107 -0.2008
56575SOL    HW174282   4.355   7.126   5.813  0.2133 -1.4763  0.3891
56575SOL    HW274283   4.469   7.123   5.914  0.8023  0.9602 -0.1388
56576SOL     OW74284   6.006   7.281   3.765 -0.4417 -0.0882 -0.3920
56576SOL    HW174285   6.006   7.350   3.831 -4.1100 -0.7700  0.5862
56576SOL    HW274286   5.940   7.218   3.796 -0.6033 -1.6813 -3.4954
56577SOL     OW74287   9.287   8.915   0.224  0.3453 -0.1109  0.0226
56577SOL    HW174288   9.338   8.840   0.193  0.4439  0.1872 -0.5507
56577SOL    HW274289   9.349   8.988   0.225  1.1993 -0.6813  3.8484
56578SOL     OW74290   6.607   0.683   4.213 -0.2583  0.8087 -0.1968
56578SOL    HW174291   6.579   0.693   4.121  0.1790  0.6425 -0.3512
56578SOL    HW274292   6.528   0.654   4.258 -0.2164 -0.2333 -0.7449
56579SOL     OW74293   2.617  11.809   8.878  0.0748 -0.1751 -0.1031
56579SOL    HW174294   2.544  11.866   8.902  0.0753 -0.8046  1.6152
56579SOL    HW274295   2.577  11.722   8.870  0.3884 -0.2663 -0.7210
56580SOL     OW74296   0.774   9.318  10.183  0.2172  0.1892  0.0396
56580SOL    HW174297   0.754   9.224  10.180  0.1253  0.2045  0.1592
56580SOL    HW274298   0.708   9.355  10.241  2.8365 -0.3501  3.7564
56581SOL     OW74299  10.881  10.542   4.242  0.3376 -0.3665 -0.2534
56581SOL    HW174300  10.881  10.455   4.203 -0.8828  1.0806 -3.9231
56581SOL    HW274301  10.802  10.543   4.296 -0.6974 -1.0174 -1.6753
56582SOL     OW74302   9.459   2.251   8.999  0.1350 -0.0133  0.0231
56582SOL    HW174303   9.533   2.268   8.940  0.4855 -1.7675 -0.0965
56582SOL    HW274304   9.447   2.156   8.995 -0.6590 -0.0247  1.8141
56583SOL     OW74305  10.950  10.927  10.086 -0.1763 -0.6096  0.2169
56583SOL    HW174306  11.034  10.960  10.056 -0.7592  0.9456  0.2201
56583SOL    HW274307  10.911  10.886  10.009 -0.2390  0.4025 -0.2994
56584SOL     OW74308   3.286   9.818   9.672  0.0372  0.8458  0.1612
56584SOL    HW174309   3.278   9.785   9.762 -2.6419  2.3780  0.5778
56584SOL    HW274310   3.380   9.834   9.661  0.3226  1.8101  3.1486
56585SOL     OW74311   0.886   1.306   9.706  0.4515  0.0584  0.0226
56585SOL    HW174312   0.845   1.348   9.630 -0.4211  0.3421  0.6252
56585SOL    HW274313   0.883   1.212   9.686  2.2020  0.2243 -1.2295
56586SOL     OW74314   0.562   6.521   1.135 -0.3202  0.3224 -0.0485
56586SOL    HW174315   0.547   6.482   1.049  1.9005 -0.7072 -0.0553
56586SOL    HW274316   0.569   6.446   1.195  1.5459  0.7680  0.3803
56587SOL     OW74317   1.729   5.456   4.802  0.2126 -0.3593  0.3774
56587SOL    HW174318   1.764   5.492   4.884 -0.2684 -1.8727  1.2954
56587SOL    HW274319   1.805   5.414   4.760  0.2097 -0.6879  0.6914
56588SOL     OW74320   3.473   8.905   3.126  0.7665  0.1333  0.1611
56588SOL    HW174321   3.418   8.983   3.110  0.2659 -0.4237 -0.9367
56588SOL    HW274322   3.542   8.937   3.183  0.2910  1.2842  0.1387
56589SOL     OW74323   4.695  11.355   3.589 -0.3364 -0.6034  0.7236
56589SOL    HW174324   4.672  11.433   3.640 -1.1476 -0.1157 -0.3337
56589SOL    HW274325   4.611  11.320   3.559  0.0840 -1.2187  0.2315
56590SOL     OW74326   5.786   8.196   1.870  0.0575  0.3573 -0.0595
56590SOL    HW174327   5.693   8.190   1.848 -0.1947  1.2438  0.6950
56590SOL    HW274328   5.824   8.114   1.837 -0.3218  1.4014 -3.4414
56591SOL     OW74329   9.416   5.675   4.647 -0.1641 -0.3608  0.4581
56591SOL    HW174330   9.424   5.628   4.564 -0.6678 -1.5428  1.0572
56591SOL    HW274331   9.324   5.700   4.651  0.0362  0.4313  0.2847
56592SOL     OW74332   1.448   3.869  10.107 -0.4850 -0.9179 -0.0004
56592SOL    HW174333   1.475   3.961  10.100  0.1581 -1.1666 -0.9536
56592SOL    HW274334   1.399   3.852  10.026 -1.2789 -1.2082  0.5256
56593SOL     OW74335   7.848   6.679  11.727  0.2187  0.0697 -0.2310
56593SOL    HW174336   7.904   6.603  11.716 -1.7316 -1.3907 -0.5879
56593SOL    HW274337   7.783   6.672  11.657 -0.2087  1.9042 -0.0750
56594SOL     OW74338   8.257   9.002   9.429  0.1734 -0.2067 -0.3284
56594SOL    HW174339   8.273   8.974   9.339  0.3827 -1.4011  0.0637
56594SOL    HW274340   8.222   8.925   9.473  0.7253  0.1497  0.7919
56595SOL     OW74341  10.706   1.980  10.056  0.1105  0.0481  0.4947
56595SOL    HW174342  10.733   2.061  10.012 -0.1743 -0.7691 -1.2880
56595SOL    HW274343  10.640   2.008  10.119 -0.5677  1.1466 -0.6505
56596SOL     OW74344   1.993   1.098   5.571  0.2543 -0.0797  1.0502
56596SOL    HW174345   1.977   1.180   5.524 -0.3582  1.2248  3.4060
56596SOL    HW274346   1.909   1.076   5.611  0.4915 -1.7279  0.7373
56597SOL     OW74347  11.222   7.654   9.999  0.3916 -0.2612 -0.0317
56597SOL    HW174348  11.148   7.635   9.941 -0.1439 -0.8559  0.8164
56597SOL    HW274349  11.205   7.742  10.031  1.0565  0.3492 -1.2906
56598SOL     OW74350   1.865   1.801   1.464 -0.0600  0.1009 -0.3961
56598SOL    HW174351   1.793   1.810   1.402  0.9123 -0.9191 -1.7341
56598SOL    HW274352   1.823   1.774   1.546 -1.3269  1.0388 -0.7066
56599SOL     OW74353   1.314   2.932   5.597  0.3745  0.0109 -0.4409
56599SOL    HW174354   1.258   2.854   5.584  0.2912 -0.0975  0.4908
56599SOL    HW274355   1.401   2.896   5.613  0.3811  0.1174 -0.2394
56600SOL     OW74356   5.794   8.170   7.213 -0.0227  0.2143  0.3974
56600SOL    HW174357   5.712   8.156   7.166  0.7256  1.5264 -1.4077
56600SOL    HW274358   5.783   8.256   7.255  0.1682  0.0518  0.7873
56601SOL     OW74359   6.355   2.975   1.382 -0.2270  0.1098 -0.0217
56601SOL    HW174360   6.393   2.905   1.328 -0.2583 -0.4583  0.6682
56601SOL    HW274361   6.262   2.951   1.389 -0.3632  0.5511 -0.2660
56602SOL     OW74362   6.395   1.712   3.158  0.2968  0.3672 -0.2830
56602SOL    HW174363   6.403   1.690   3.065 -0.0562 -1.4149  0.0729
56602SOL    HW274364   6.405   1.807   3.161  0.6810  0.4201 -2.0978
56603SOL     OW74365   8.208  11.785   3.882  0.1868 -0.2460  0.4731
56603SOL    HW174366   8.156  11.705   3.887 -1.7082  0.8158 -0.8907
56603SOL    HW274367   8.146  11.855   3.904  0.9207  1.0947 -1.4538
56604SOL     OW74368   8.720   1.956   1.817 -0.1114 -0.3432 -0.0057
56604SOL    HW174369   8.679   1.876   1.852  0.4924 -0.5688  0.1972
56604SOL    HW274370   8.813   1.946   1.837  0.3104 -0.5986 -1.9209
56605SOL     OW74371   8.280   4.391  10.183  0.2449  0.7913 -0.2117
56605SOL    HW174372   8.202   4.443  10.200  0.0960  0.3833  0.4083
56605SOL    HW274373   8.250   4.320  10.127  0.2852  0.9362 -0.4173
56606SOL     OW74374   6.384   8.940   0.819  0.4864 -0.2945 -0.0343
56606SOL    HW174375   6.430   8.976   0.743  0.4688  0.5382  0.3337
56606SOL    HW274376   6.325   8.874   0.783  0.6110 -0.0335 -0.7214
56607SOL     OW74377   4.856   9.380   9.376 -0.4858  0.3294  0.5631
56607SOL    HW174378   4.831   9.306   9.321 -3.2845  0.4761  1.4542
56607SOL    HW274379   4.944   9.403   9.347  0.2968 -2.9729 -0.1020
56608SOL     OW74380   4.951   6.253   5.409  0.2345 -0.0135 -0.5106
56608SOL    HW174381   4.998   6.337   5.414 -0.0458  0.1821 -1.0992
56608SOL    HW274382   4.976   6.207   5.489  0.4717  0.5916 -0.2294
56609SOL     OW74383   0.379   5.920   1.659  0.1109  0.1797 -0.2811
56609SOL    HW174384   0.469   5.893   1.644 -0.1169 -0.0752 -1.2719
56609SOL    HW274385   0.362   5.898   1.750  0.7679 -0.5953 -0.3368
56610SOL     OW74386   1.077   2.640   0.046  0.3510 -0.0811 -0.3688
56610SOL    HW174387   1.152   2.591   0.010  2.0036  1.4918  0.7396
56610SOL    HW274388   1.049   2.589   0.122  1.5610  0.2491  0.3248
56611SOL     OW74389   0.269  10.216   6.953  0.2635 -1.2548  0.7253
56611SOL    HW174390   0.251  10.245   7.042  1.0663 -1.7899  1.0773
56611SOL    HW274391   0.336  10.148   6.964  2.0868  0.2545 -0.4482
56612SOL     OW74392   3.996   6.863  10.098 -0.1655 -0.0208 -0.1605
56612SOL    HW174393   3.906   6.892  10.088 -0.3682 -0.7811 -0.6460
56612SOL    HW274394   4.047   6.921  10.041 -0.6379 -0.9295 -1.5544
56613SOL     OW74395   9.801   9.862   0.960 -0.2815 -0.1679 -0.0064
56613SOL    HW174396   9.792   9.768   0.946 -1.4626  0.0511 -0.8522
56613SOL    HW274397   9.731   9.884   1.021  0.6031  0.0244  0.9690
56614SOL     OW74398   9.251   7.584   0.943  0.1805 -0.1749  0.2536
56614SOL    HW174399   9.325   7.602   1.000  0.0199 -1.2746  0.8470
56614SOL    HW274400   9.176   7.578   1.002 -0.3548  0.7480 -0.3197
56615SOL     OW74401   5.507   5.655   9.516  0.3034 -0.1484 -0.1545
56615SOL    HW174402   5.591   5.609   9.506  0.1288 -0.9925  1.7942
56615SOL    HW274403   5.522   5.716   9.588 -1.0543 -1.1685  1.0526
56616SOL     OW74404  10.899   3.112  10.593  0.0719 -0.4874  0.1523
56616SOL    HW174405  10.891   3.080  10.683 -1.4043  0.2886  0.3211
56616SOL    HW274406  10.932   3.201  10.603  1.3771 -0.9129 -0.1762
56617SOL     OW74407   8.851   5.790   9.960 -0.3218 -0.5556  0.4390
56617SOL    HW174408   8.797   5.712   9.960 -0.9709 -0.1156  0.0636
56617SOL    HW274409   8.792   5.861   9.986 -0.2035  0.1150 -1.0024
56618SOL     OW74410  12.041  10.912   6.270  0.1876  0.0021 -0.1690
56618SOL    HW174411  12.132  10.897   6.297  0.5811  0.2261 -1.3256
56618SOL    HW274412  12.009  10.979   6.331  0.8115 -0.0355  0.2109
56619SOL     OW74413   5.922   4.993   0.994 -0.0995 -0.1084  0.1001
56619SOL    HW174414   5.912   5.065   1.055  0.7639  0.7021 -0.6833
56619SOL    HW274415   5.870   4.922   1.031  1.1829  0.0175  2.2830
56620SOL     OW74416   6.273   4.666   5.686  0.2588  0.2883  0.2602
56620SOL    HW174417   6.301   4.740   5.632 -1.4485 -0.2950 -1.5315
56620SOL    HW274418   6.330   4.594   5.661  0.3500  0.3756  0.2179
56621SOL     OW74419  11.822   8.321   3.806 -0.2899  0.2597  0.3147
56621SOL    HW174420  11.739   8.322   3.854  0.8142  0.2744  2.3470
56621SOL    HW274421  11.856   8.233   3.819  0.1016  0.3125 -0.3400
56622SOL     OW74422   4.743   1.272   7.718  0.2548  0.3375 -0.4614
56622SOL    HW174423   4.721   1.354   7.673 -1.4012 -0.8768 -1.9864
56622SOL    HW274424   4.769   1.212   7.649  0.6445 -0.6788  0.5343
56623SOL     OW74425   9.846   2.014   5.098 -0.3553  0.1933  0.1670
56623SOL    HW174426   9.754   1.998   5.080 -0.3427 -0.1972  0.4363
56623SOL    HW274427   9.892   1.987   5.018 -0.3517 -0.9541  0.5384
56624SOL     OW74428   1.658   2.520   8.130 -0.0143 -0.1653  0.3024
56624SOL    HW174429   1.608   2.439   8.140 -1.3889  0.6034 -0.0331
56624SOL    HW274430   1.694   2.516   8.041 -0.4146 -0.2324  0.1438
56625SOL     OW74431  11.322  11.366   8.198  0.2771 -0.2293 -0.0059
56625SOL    HW174432  11.351  11.307   8.268  0.6968  1.1614  1.0249
56625SOL    HW274433  11.394  11.365   8.135  0.9237  0.2731  0.7050
56626SOL     OW74434  10.842  10.480   5.455  0.4014 -0.3543 -0.4528
56626SOL    HW174435  10.900  10.554   5.477 -1.6308  1.2823 -0.3097
56626SOL    HW274436  10.815  10.497   5.364 -0.7766 -0.4290 -0.1282
56627SOL     OW74437   3.215   7.588   4.440  0.0295 -0.8602 -0.2172
56627SOL    HW174438   3.129   7.630   4.429 -0.1668 -0.8356  1.2692
56627SOL    HW274439   3.196   7.495   4.446 -0.0172 -0.7756  1.1645
56628SOL     OW74440   9.119  11.698   7.079 -0.1001  0.4006 -0.2573
56628SOL    HW174441   9.075  11.616   7.099 -1.7806  1.5281  0.9200
56628SOL    HW274442   9.204  11.672   7.044 -0.5418 -1.8194  0.1984
56629SOL     OW74443   5.681   4.214   9.030  0.5129  0.2610 -0.7277
56629SOL    HW174444   5.654   4.306   9.034 -0.7677 -0.1247  1.1371
56629SOL    HW274445   5.724   4.198   9.114 -0.7069 -1.2225 -0.3382
56630SOL     OW74446   0.867   6.434  11.211  0.1033  0.1375 -0.0523
56630SOL    HW174447   0.892   6.376  11.139  0.6636  0.1339  0.1405
56630SOL    HW274448   0.932   6.417  11.280 -1.2229 -0.8959  1.0172
56631SOL     OW74449   0.513   7.779   6.325  0.1815  0.5546  0.4712
56631SOL    HW174450   0.470   7.751   6.406 -0.7666 -0.3885 -0.3212
56631SOL    HW274451   0.586   7.718   6.315  1.3814  1.7750  1.5026
56632SOL     OW74452   0.184   1.855  11.896  0.2332 -0.2786 -0.3270
56632SOL    HW174453   0.198   1.948  11.878  0.5226 -0.0683  0.9461
56632SOL    HW274454   0.272   1.820  11.910  0.1548 -0.8292 -1.1409
56633SOL     OW74455  10.083   4.818   3.875 -0.5042  0.2261  0.4744
56633SOL    HW174456  10.057   4.909   3.859  0.1730  0.3941  0.3077
56633SOL    HW274457  10.000   4.770   3.879 -0.8493  0.7869  0.1689
56634SOL     OW74458   8.988   2.359   2.345  0.2369  0.7272  0.6272
56634SOL    HW174459   9.031   2.282   2.308 -0.5537  0.1224  0.9414
56634SOL    HW274460   9.060   2.414   2.375  0.8230 -0.5975  1.8013
56635SOL     OW74461   9.066   2.739   2.860  0.3583  0.0368 -0.0964
56635SOL    HW174462   9.123   2.780   2.796  1.0247 -1.3440 -0.4231
56635SOL    HW274463   9.123   2.680   2.910 -0.2065  0.8157  1.5531
56636SOL     OW74464   6.672   3.297   3.682 -0.3328  0.4002  0.5860
56636SOL    HW174465   6.763   3.316   3.705  0.0718 -0.5923 -0.0920
56636SOL    HW274466   6.660   3.206   3.709  0.1441 -0.8265 -2.8313
56637SOL     OW74467  11.441  10.847   2.706  0.2045  0.4219  0.3588
56637SOL    HW174468  11.452  10.911   2.636 -0.1349  0.1482  0.0536
56637SOL    HW274469  11.516  10.788   2.695 -1.0593 -0.9873 -1.2386
56638SOL     OW74470  11.598   6.559   0.344 -0.3118  0.0089 -0.0426
56638SOL    HW174471  11.536   6.611   0.293 -0.4723 -1.0972 -1.0041
56638SOL    HW274472  11.677   6.555   0.290 -0.1146 -0.3159  0.2613
56639SOL     OW74473  10.962   7.849   2.244 -0.2954 -0.5648 -0.3109
56639SOL    HW174474  10.986   7.911   2.313  1.2046 -0.3050 -1.0445
56639SOL    HW274475  10.867   7.857   2.238 -0.3190  0.3427  0.8447
56640SOL     OW74476   0.636  10.046   0.939  0.3646  0.1002  0.0961
56640SOL    HW174477   0.685  10.071   1.017 -1.0185 -0.1782  1.0972
56640SOL    HW274478   0.567   9.988   0.972 -0.4049  0.1810 -1.3031
56641SOL     OW74479   8.887  11.419   2.839 -0.2285  0.4514 -0.3083
56641SOL    HW174480   8.810  11.363   2.849 -0.0486  0.3624  0.7851
56641SOL    HW274481   8.890  11.441   2.746 -0.6096 -0.9178 -0.6671
56642SOL     OW74482   9.484   2.785   5.402 -0.3339 -0.2094  0.2461
56642SOL    HW174483   9.393   2.788   5.431 -0.3878  0.0554  0.0497
56642SOL    HW274484   9.535   2.787   5.483 -0.5162 -1.3159  0.4028
56643SOL     OW74485   7.968   6.901  10.830 -0.3652 -0.1374  0.0532
56643SOL    HW174486   8.010   6.828  10.876  1.1857  0.2517 -0.6660
56643SOL    HW274487   8.041   6.952  10.795 -1.4622  0.6253 -1.2108
56644SOL     OW74488   9.757   4.728   9.415  0.4135 -0.4027 -0.1676
56644SOL    HW174489   9.742   4.687   9.500  0.2513 -0.1496 -0.0735
56644SOL    HW274490   9.730   4.819   9.427  0.5953 -0.3141 -0.4290
56645SOL     OW74491   5.077   6.877   7.748 -0.1264 -0.2886  0.1125
56645SOL    HW174492   5.001   6.821   7.738 -0.9543  1.0359 -1.5311
56645SOL    HW274493   5.151   6.823   7.722 -0.8816 -0.6934 -1.3012
56646SOL     OW74494  12.085   6.694   2.437  0.0150  0.3830  0.2636
56646SOL    HW174495  12.013   6.637   2.462 -0.6612 -1.2445 -4.4458
56646SOL    HW274496  12.160   6.636   2.428  1.2293  1.5628  2.2083
56647SOL     OW74497   4.671   8.843   0.228 -0.1032 -0.1462 -0.1155
56647SOL    HW174498   4.598   8.893   0.265  0.1289  1.6764 -1.9426
56647SOL    HW274499   4.747   8.900   0.242  0.5507 -0.9459 -0.3877
56648SOL     OW74500   7.176   7.641  10.981 -0.6865 -0.4724 -0.0665
56648SOL    HW174501   7.140   7.611  11.065  0.0708 -2.9650 -0.5311
56648SOL    HW274502   7.258   7.685  11.004 -1.4880  0.7244  0.6100
56649SOL     OW74503   1.841   3.408   3.573 -0.2812  0.1212  0.2647
56649SOL    HW174504   1.881   3.436   3.491 -0.1453  2.0427  0.9482
56649SOL    HW274505   1.747   3.423   3.560 -0.4811 -1.3229 -0.1665
56650SOL     OW74506   8.378   7.991   3.135  0.6723 -0.0245  0.2664
56650SOL    HW174507   8.408   7.943   3.057 -0.4577  0.6908 -0.6452
56650SOL    HW274508   8.408   8.080   3.122  0.4536  0.1065  0.6385
56651SOL     OW74509   5.569   6.184  10.458 -0.5699 -0.2994 -0.5806
56651SOL    HW174510   5.654   6.193  10.415 -1.1876 -1.2457 -2.0975
56651SOL    HW274511   5.548   6.273  10.487  0.5392  0.1135 -0.9772
56652SOL     OW74512  10.324   0.685   7.649  0.5025 -0.5279 -0.0421
56652SOL    HW174513  10.406   0.734   7.647  0.4328 -0.3063 -3.1505
56652SOL    HW274514  10.344   0.604   7.696  2.1873 -0.0205  0.1678
56653SOL     OW74515   8.844   2.574   1.811 -0.4842 -0.9871 -0.6347
56653SOL    HW174516   8.853   2.504   1.747  0.4666 -2.5538  1.1375
56653SOL    HW274517   8.931   2.612   1.819 -0.2057 -1.8691  0.8512
56654SOL     OW74518   6.278  11.931   8.200  0.3158  0.0961  0.0978
56654SOL    HW174519   6.253  12.023   8.201 -1.9501 -0.4781  0.9907
56654SOL    HW274520   6.287  11.908   8.292 -0.6020 -0.9195 -0.0484
56655SOL     OW74521   7.345   4.646  11.188 -0.2822 -0.0879 -0.0333
56655SOL    HW174522   7.346   4.718  11.251  0.0173  0.0420 -0.1837
56655SOL    HW274523   7.373   4.570  11.239 -1.2849 -0.2555  0.3009
56656SOL     OW74524   9.636   3.660   6.581  0.1978  0.1161  0.3851
56656SOL    HW174525   9.642   3.650   6.676  0.3594  0.5421  0.4236
56656SOL    HW274526   9.657   3.752   6.565 -0.8984  0.3159  0.0227
56657SOL     OW74527   0.266   4.156   4.528 -0.0333  0.5525 -0.3721
56657SOL    HW174528   0.248   4.246   4.555 -0.6442  0.2218  0.3618
56657SOL    HW274529   0.226   4.147   4.442  0.4180  1.1109 -0.6431
56658SOL     OW74530   0.386   0.650   1.042  0.5366 -0.1547  0.4882
56658SOL    HW174531   0.380   0.592   0.966 -0.0483  0.6269 -0.0905
56658SOL    HW274532   0.464   0.702   1.026  0.3498  0.0887  0.3571
56659SOL     OW74533   0.392   0.932   8.534  0.1188  0.5068  0.2877
56659SOL    HW174534   0.302   0.963   8.542 -0.4006 -0.7389 -0.4764
56659SOL    HW274535   0.403   0.914   8.440  1.0244  0.2405  0.4368
56660SOL     OW74536   5.328   4.273   7.697 -0.2902  0.2725 -0.9181
56660SOL    HW174537   5.238   4.293   7.722 -1.4045 -0.3833 -3.9651
56660SOL    HW274538   5.343   4.324   7.617  2.3102  0.8416 -0.1814
56661SOL     OW74539   2.782  10.356   4.067 -0.1611 -0.5563  0.7499
56661SOL    HW174540   2.750  10.301   4.139  1.0124 -0.9541  0.9885
56661SOL    HW274541   2.876  10.339   4.064 -0.3866 -1.9024 -1.9880
56662SOL     OW74542  11.407   2.187   6.250  0.5475 -0.1854  0.4653
56662SOL    HW174543  11.449   2.213   6.332 -0.5332  0.1766  0.9242
56662SOL    HW274544  11.472   2.206   6.183  0.4278  2.2311  0.9410
56663SOL     OW74545   7.325   4.217   3.893 -0.4525 -0.1020  0.6279
56663SOL    HW174546   7.292   4.272   3.964  1.2185  0.3858  1.0676
56663SOL    HW274547   7.383   4.155   3.936 -2.3471 -2.3530  0.1631
56664SOL     OW74548   8.207  10.527   9.354 -0.3660 -0.0876 -0.1124
56664SOL    HW174549   8.140  10.567   9.299 -0.1676  0.0029 -0.2902
56664SOL    HW274550   8.223  10.441   9.315 -0.2174 -0.0192 -0.2058
56665SOL     OW74551   4.693   9.506  11.916  0.0847 -0.3641 -0.1356
56665SOL    HW174552   4.718   9.413  11.919 -0.6495 -0.5598  1.7114
56665SOL    HW274553   4.620   9.509  11.854  2.5010 -0.2993 -3.1820
56666SOL     OW74554   8.976   3.657   9.866  0.3882  0.2553 -0.0970
56666SOL    HW174555   9.057   3.610   9.846  0.1797 -0.7032  1.1640
56666SOL    HW274556   8.930   3.663   9.783  0.7528 -1.1745 -0.4254
56667SOL     OW74557   1.054  10.774   5.777 -0.0713  0.5701 -0.1230
56667SOL    HW174558   1.065  10.835   5.705 -0.9663  0.1175 -0.6618
56667SOL    HW274559   1.031  10.691   5.735 -1.0087  0.4019  0.7009
56668SOL     OW74560   2.268   0.526   8.857  0.2201  0.0135  1.0786
56668SOL    HW174561   2.200   0.497   8.918 -1.2805  0.1773 -0.4332
56668SOL    HW274562   2.346   0.538   8.912 -0.6370 -1.3055  2.6782
56669SOL     OW74563   3.920   9.978   7.685  0.5786  0.4058  0.2974
56669SOL    HW174564   3.962   9.981   7.599 -0.0351 -0.8726 -0.0684
56669SOL    HW274565   3.981   9.930   7.741  0.1691 -0.4006  0.0738
56670SOL     OW74566   7.487  11.842  10.601  0.0071 -0.2435  0.5474
56670SOL    HW174567   7.418  11.779  10.622  0.6801 -1.7909 -1.5895
56670SOL    HW274568   7.568  11.800  10.629  0.4567 -0.3550 -0.8223
56671SOL     OW74569  12.123   8.092   9.669  0.0706 -0.4020  0.0466
56671SOL    HW174570  12.115   8.053   9.756  0.3366 -2.7198 -0.8908
56671SOL    HW274571  12.161   8.178   9.685 -0.0319 -0.6947  2.2281
56672SOL     OW74572   7.706   0.561   0.780  0.6203 -0.0569 -0.2103
56672SOL    HW174573   7.627   0.610   0.800  0.4855  0.7090 -2.3322
56672SOL    HW274574   7.682   0.507   0.705  0.8913 -3.1644  1.7721
56673SOL     OW74575   9.187   2.135  10.550 -0.0832  0.0579 -0.0588
56673SOL    HW174576   9.104   2.096  10.523  0.0604  1.6432 -3.2655
56673SOL    HW274577   9.243   2.060  10.569 -0.5076 -1.4107 -3.7046
56674SOL     OW74578   5.875   7.272   9.277 -0.0276  0.2462  0.2472
56674SOL    HW174579   5.889   7.276   9.371 -1.5227 -0.8293  0.5511
56674SOL    HW274580   5.883   7.179   9.254 -0.2456  0.4167 -0.5835
56675SOL     OW74581   3.343   2.347  11.416  0.4586  0.2614 -0.1921
56675SOL    HW174582   3.258   2.303  11.413 -0.9820  2.8900 -0.9151
56675SOL    HW274583   3.322   2.440  11.429  3.2409  0.9886 -0.1641
56676SOL     OW74584  11.161   2.473   9.412 -0.0141 -0.3297 -0.0169
56676SOL    HW174585  11.236   2.529   9.429 -0.2877  0.5449 -1.5113
56676SOL    HW274586  11.196   2.401   9.359 -0.1519 -0.1623 -0.3336
56677SOL     OW74587   8.435   8.391   4.063 -0.0297  0.3546  0.1480
56677SOL    HW174588   8.410   8.484   4.060 -1.0304  0.1237  1.0845
56677SOL    HW274589   8.487   8.379   3.983 -1.3045  1.3166 -0.8747
56678SOL     OW74590  11.624   0.309  11.799 -0.2134  0.1815  0.4140
56678SOL    HW174591  11.568   0.238  11.829  0.4798 -1.0232 -0.9920
56678SOL    HW274592  11.571   0.355  11.733  0.8108 -1.8378 -1.9908
56679SOL     OW74593   9.899   6.013  11.770  0.0130 -0.0476 -0.6630
56679SOL    HW174594   9.874   5.931  11.812 -1.2000  0.1002 -1.0615
56679SOL    HW274595   9.914   6.074  11.842  0.7228 -0.5503 -0.3705
56680SOL     OW74596   6.285   3.736   0.642 -0.1849  0.3682  0.0231
56680SOL    HW174597   6.252   3.677   0.710 -0.9481  0.8503  0.0786
56680SOL    HW274598   6.218   3.732   0.573  1.2458 -1.2279 -1.3622
56681SOL     OW74599   5.885   4.828   1.781  0.0706 -0.4441 -0.4324
56681SOL    HW174600   5.877   4.786   1.866 -0.3543 -0.8974 -0.6897
56681SOL    HW274601   5.829   4.906   1.787  1.0246  0.2249  0.1153
56682SOL     OW74602  10.997  10.699   5.506  0.0588 -0.6131 -0.1294
56682SOL    HW174603  11.083  10.719   5.544 -1.0323  0.0226  2.2189
56682SOL    HW274604  10.939  10.766   5.543 -1.3872 -0.7743 -1.9802
56683SOL     OW74605   9.137   9.821   3.464  0.8989  0.5025 -0.5663
56683SOL    HW174606   9.088   9.775   3.532 -0.5654  1.8931 -0.6156
56683SOL    HW274607   9.169   9.751   3.406 -0.9082 -0.5084 -0.4233
56684SOL     OW74608   6.153   9.571   6.655 -0.1471 -0.2089 -0.4577
56684SOL    HW174609   6.216   9.519   6.605  0.0665 -1.6384  1.2245
56684SOL    HW274610   6.206   9.624   6.714 -0.4828 -0.6879  0.2793
56685SOL     OW74611   6.503   4.864   9.715 -0.1928 -0.2384 -0.0541
56685SOL    HW174612   6.531   4.953   9.694 -0.8552  0.2902  1.1860
56685SOL    HW274613   6.535   4.849   9.804  0.5586 -1.5425 -0.5046
56686SOL     OW74614  10.416   8.816   6.709  0.2129 -0.1945  0.1245
56686SOL    HW174615  10.450   8.737   6.751  1.5257 -0.2085 -0.8999
56686SOL    HW274616  10.454   8.888   6.758 -0.2789 -0.1944  0.5119
56687SOL     OW74617  11.743  12.004   1.709  0.2847  0.3251  0.0573
56687SOL    HW174618  11.677  12.042   1.650 -0.7288  0.3140  1.1550
56687SOL    HW274619  11.811  12.071   1.714  0.4542  0.2808 -1.2045
56688SOL     OW74620   7.333   8.602   5.786 -0.0466 -0.5226 -0.2846
56688SOL    HW174621   7.255   8.571   5.833 -0.6635  0.7713 -0.3887
56688SOL    HW274622   7.399   8.535   5.802 -0.8880 -1.1738  0.6367
56689SOL     OW74623   5.703   4.985  10.245 -0.1164  0.0169 -0.0417
56689SOL    HW174624   5.660   5.056  10.198  0.7299 -0.4671 -1.6334
56689SOL    HW274625   5.702   4.911  10.184  0.4939 -0.8368  0.9355
56690SOL     OW74626  10.501  11.463  11.881 -0.4645  0.1498 -0.8066
56690SOL    HW174627  10.533  11.553  11.890 -0.8202  0.5248 -2.7400
56690SOL    HW274628  10.422  11.460  11.934  0.5676  0.3838  0.8093
56691SOL     OW74629   3.306   9.947   4.222  0.2416  0.1439 -0.3128
56691SOL    HW174630   3.276   9.866   4.264  0.2696  0.7282  0.9043
56691SOL    HW274631   3.262  10.016   4.272 -1.4942  0.8741 -2.6901
56692SOL     OW74632   0.961  10.720   1.205  0.4168  0.0079  0.2070
56692SOL    HW174633   1.012  10.641   1.223  2.2483  1.3497  1.2903
56692SOL    HW274634   0.876  10.705   1.247  0.7540 -1.3273  0.4427
56693SOL     OW74635   8.768   9.116   2.429 -0.5014 -0.3671  0.2351
56693SOL    HW174636   8.713   9.185   2.393  1.6427  1.5767  0.4378
56693SOL    HW274637   8.807   9.074   2.353 -0.9789 -0.6490  0.1422
56694SOL     OW74638  10.224   6.267   3.594 -0.0222  0.0524 -0.1582
56694SOL    HW174639  10.272   6.338   3.636 -2.2033  0.9012  1.1041
56694SOL    HW274640  10.144   6.309   3.561 -0.7920 -1.5979 -0.4777
56695SOL     OW74641   6.245   2.365   7.705 -0.2359 -0.3222 -0.1108
56695SOL    HW174642   6.290   2.412   7.635 -0.4592 -0.4551 -0.3439
56695SOL    HW274643   6.161   2.340   7.667 -0.9794  0.8687  0.6541
56696SOL     OW74644   7.884   8.972   6.567  0.6279  0.3484  0.0761
56696SOL    HW174645   7.980   8.982   6.566  0.7635 -0.8232 -0.6781
56696SOL    HW274646   7.862   8.971   6.660  1.5036 -0.5205  0.2950
56697SOL     OW74647   4.514   2.818  10.695 -0.1417  0.1588 -0.2562
56697SOL    HW174648   4.438   2.788  10.644  0.5694 -1.1108 -0.6069
56697SOL    HW274649   4.537   2.902  10.656 -0.0777 -0.4296 -1.5655
56698SOL     OW74650  10.067   3.613   0.376 -0.1294 -0.4692  0.3686
56698SOL    HW174651   9.978   3.578   0.375  0.1671 -1.2513 -1.1030
56698SOL    HW274652  10.074   3.663   0.295  1.2972 -1.8507 -0.4135
56699SOL     OW74653  10.072   3.210   6.826  0.2553  0.6190  0.6451
56699SOL    HW174654  10.128   3.202   6.903  0.4106 -0.2277  0.4598
56699SOL    HW274655  10.133   3.212   6.752  0.0585 -1.1187  0.3827
56700SOL     OW74656   1.968   0.752   5.597  0.0471 -0.4382  0.0611
56700SOL    HW174657   2.042   0.737   5.655  1.3892  0.3497 -1.3951
56700SOL    HW274658   1.997   0.723   5.511 -0.7837  1.2142 -0.8393
56701SOL     OW74659   8.648   8.775   4.765  1.1383 -0.2860  0.2002
56701SOL    HW174660   8.606   8.784   4.851  0.3960 -0.0636 -0.1802
56701SOL    HW274661   8.599   8.706   4.721  0.0353  1.1598 -0.9063
56702SOL     OW74662   0.417   2.892   1.112  0.3246 -0.2327  0.3876
56702SOL    HW174663   0.476   2.816   1.106  0.0054 -0.4146 -0.7978
56702SOL    HW274664   0.331   2.853   1.129 -0.0124 -0.2524 -1.1611
56703SOL     OW74665   8.629   3.114   6.293 -0.2816  0.2959 -0.0876
56703SOL    HW174666   8.616   3.130   6.386  0.1743 -0.2966  0.0777
56703SOL    HW274667   8.722   3.128   6.279 -0.2930  0.0770 -0.3939
56704SOL     OW74668   1.760   5.199   4.392  1.0672  0.0327 -1.2370
56704SOL    HW174669   1.830   5.134   4.390 -0.9347 -2.3504  0.4526
56704SOL    HW274670   1.703   5.171   4.464 -1.7831  1.6674 -2.7005
56705SOL     OW74671   4.827   9.116  10.307  0.0244 -0.0731 -0.3832
56705SOL    HW174672   4.840   9.183  10.241 -0.0692 -0.6401 -0.9848
56705SOL    HW274673   4.737   9.086  10.294 -0.5984  1.0141  1.1364
56706SOL     OW74674  10.064   7.699   9.128  0.0761  0.1546 -0.0180
56706SOL    HW174675  10.151   7.661   9.142 -0.0117  0.0748  0.3207
56706SOL    HW274676  10.059   7.771   9.191  0.0969  0.4951 -0.3979
56707SOL     OW74677   2.499   1.645   0.888  0.3127 -0.1051  0.2534
56707SOL    HW174678   2.433   1.612   0.949  1.0324 -1.3428  0.3972
56707SOL    HW274679   2.454   1.645   0.803 -0.9333  2.3395  0.8387
56708SOL     OW74680   3.583   6.398   9.876  0.4662 -0.0609 -0.4811
56708SOL    HW174681   3.565   6.315   9.920 -0.8291 -0.6162 -2.0062
56708SOL    HW274682   3.650   6.377   9.811  1.7212  0.5833  0.5346
56709SOL     OW74683   4.793   3.706   9.128 -0.1757  0.4104  0.1800
56709SOL    HW174684   4.732   3.772   9.094 -0.0706  0.4573  0.0810
56709SOL    HW274685   4.761   3.623   9.091 -0.8642  0.2663  1.0471
56710SOL     OW74686  12.124   0.952   1.196  0.2045  0.4120  0.7444
56710SOL    HW174687  12.188   0.895   1.154  0.4535  1.1711  0.0713
56710SOL    HW274688  12.043   0.936   1.148  0.6881  1.9238 -0.6695
56711SOL     OW74689  12.054   2.283   9.319  0.1489  0.3687  0.0247
56711SOL    HW174690  11.982   2.275   9.256 -0.0997 -0.0655  0.3589
56711SOL    HW274691  12.020   2.244   9.399  1.2122 -1.0247 -0.1771
56712SOL     OW74692   7.541   8.188   1.990 -0.6296 -0.2162  0.2759
56712SOL    HW174693   7.567   8.124   2.056  0.7740  0.3682  0.3164
56712SOL    HW274694   7.619   8.241   1.975 -0.0161 -1.8834 -3.7205
56713SOL     OW74695   5.052   6.428   8.109  0.1889  0.0229 -0.1245
56713SOL    HW174696   5.103   6.423   8.190 -1.6673 -0.7930  1.0566
56713SOL    HW274697   5.109   6.391   8.042  1.7619  0.7091  0.7846
56714SOL     OW74698   8.013  10.601   3.426  0.1983 -0.1487 -0.0922
56714SOL    HW174699   8.058  10.608   3.510 -2.5543 -1.1650  1.6101
56714SOL    HW274700   8.071  10.547   3.372  2.0688  0.6052  1.0813
56715SOL     OW74701  11.596   8.488   2.364  0.4994  0.1427 -0.0249
56715SOL    HW174702  11.562   8.409   2.405  0.7544  0.1332  0.1738
56715SOL    HW274703  11.541   8.501   2.286  0.6655 -0.4145 -0.2392
56716SOL     OW74704   8.585   8.644  11.815 -0.1432 -0.2225 -0.6657
56716SOL    HW174705   8.558   8.684  11.897 -0.8451  0.1930 -1.0835
56716SOL    HW274706   8.642   8.572  11.840  0.8385  0.7947  0.1325
56717SOL     OW74707   9.311   7.269   2.651 -0.1186 -0.3583 -0.6384
56717SOL    HW174708   9.396   7.310   2.632  0.0838 -0.9211 -0.9405
56717SOL    HW274709   9.247   7.328   2.610 -0.2046  2.0420  2.4866
56718SOL     OW74710   4.748   4.412  10.026  0.3069 -0.0377  0.7370
56718SOL    HW174711   4.792   4.457   9.955  1.0846  0.4731  1.5232
56718SOL    HW274712   4.657   4.405   9.998  0.7468 -0.5077 -0.6173
56719SOL     OW74713   0.031  10.307   4.946 -0.5595 -0.1187 -0.1333
56719SOL    HW174714   0.106  10.366   4.933  0.3140 -1.5419 -1.9029
56719SOL    HW274715   0.034  10.286   5.039 -0.4054  1.9360  0.3853
56720SOL     OW74716   7.334   0.713   3.931  0.2828  0.4381 -0.0622
56720SOL    HW174717   7.390   0.697   3.856  0.5728  0.6942  0.0965
56720SOL    HW274718   7.288   0.794   3.910 -0.0138  0.2394 -0.1830
56721SOL     OW74719   3.839   2.588   1.728 -0.1323 -0.6146 -0.7896
56721SOL    HW174720   3.870   2.526   1.794  0.1773  0.7032  0.3348
56721SOL    HW274721   3.909   2.593   1.663  0.2956 -0.6379 -0.3285
56722SOL     OW74722   9.319   8.099   7.820 -0.2543  0.0511 -0.6064
56722SOL    HW174723   9.337   8.192   7.810 -0.4938  0.4214  1.6593
56722SOL    HW274724   9.385   8.055   7.766  0.6532  1.5145 -0.7413
56723SOL     OW74725   7.952   3.235   0.075 -0.2721 -0.4267 -0.3267
56723SOL    HW174726   8.046   3.249   0.090  0.2959 -0.1150 -3.4541
56723SOL    HW274727   7.932   3.292   0.000 -2.6773 -1.4328 -0.5147
56724SOL     OW74728  11.912   5.149  12.055  0.9214  0.4631 -0.2877
56724SOL    HW174729  11.832   5.134  12.004  1.5380 -0.2977 -1.0644
56724SOL    HW274730  11.975   5.085  12.022  1.0054 -0.9158  2.2586
56725SOL     OW74731   5.277  10.369  11.637  0.7251  0.1685 -0.3378
56725SOL    HW174732   5.341  10.389  11.569 -0.0211  1.7053 -0.6292
56725SOL    HW274733   5.212  10.439  11.630 -1.2983 -1.6083 -0.4369
56726SOL     OW74734   3.931   7.834   9.693 -0.1761  0.1109  0.0475
56726SOL    HW174735   3.963   7.765   9.751 -1.9382 -2.1554 -1.4905
56726SOL    HW274736   3.960   7.915   9.734  3.6739 -1.5049  0.9528
56727SOL     OW74737   2.883   3.674   5.836  0.3263 -0.3650 -0.5113
56727SOL    HW174738   2.875   3.626   5.918 -0.6842  1.1883  0.3503
56727SOL    HW274739   2.801   3.655   5.789  0.8520 -1.1584 -1.1403
56728SOL     OW74740  12.053  12.070   0.169  0.5305 -0.0036  0.1369
56728SOL    HW174741  12.053  12.126   0.092  0.4314  0.0759  0.1950
56728SOL    HW274742  12.132  12.096   0.218  0.8525 -0.3792 -0.1723
56729SOL     OW74743   7.834   3.831  11.436  0.5739 -0.3245  0.5861
56729SOL    HW174744   7.873   3.829  11.348 -1.1994 -2.6589 -0.2240
56729SOL    HW274745   7.806   3.922  11.447  1.1449  0.0968 -1.0898
56730SOL     OW74746  10.298   9.096   2.568 -0.3085 -0.2054  0.5313
56730SOL    HW174747  10.315   9.067   2.657 -1.8698  0.1205  0.9801
56730SOL    HW274748  10.384   9.112   2.530  0.5081 -2.7964  1.1171
56731SOL     OW74749   0.487   6.675   4.800 -0.1112  0.2663  0.2351
56731SOL    HW174750   0.417   6.636   4.748  1.3773  1.7435 -3.1644
56731SOL    HW274751   0.468   6.769   4.801  0.1609  0.3413  2.0913
56732SOL     OW74752   1.573   6.419   9.227 -0.2715  0.2318 -0.1779
56732SOL    HW174753   1.611   6.471   9.298 -0.7087  1.7265 -1.0065
56732SOL    HW274754   1.648   6.375   9.187  0.1152  0.2717  0.4957
56733SOL     OW74755   9.829   5.305  10.714 -0.7437 -0.0443  0.0068
56733SOL    HW174756   9.882   5.370  10.761 -1.3910 -1.0666  2.3229
56733SOL    HW274757   9.846   5.223  10.759 -0.5487 -1.3894 -2.3614
56734SOL     OW74758   8.061   0.323   4.642 -0.1185  0.1737  0.1779
56734SOL    HW174759   8.010   0.395   4.606  0.4613 -0.1815 -1.4113
56734SOL    HW274760   8.059   0.338   4.737 -0.7480  1.7660 -0.0542
56735SOL     OW74761   9.301   7.254   2.249  0.1573 -0.3437  0.0023
56735SOL    HW174762   9.269   7.194   2.316  0.4055  0.0902  0.5168
56735SOL    HW274763   9.231   7.258   2.184  0.3657 -1.6186 -0.3240
56736SOL     OW74764   7.524  10.945   4.877  0.3613 -0.1321 -0.1852
56736SOL    HW174765   7.492  10.988   4.956  0.2226  0.2498 -0.4453
56736SOL    HW274766   7.449  10.896   4.843  0.3829 -0.1855 -0.1564
56737SOL     OW74767   2.654   2.478   4.130  0.5742 -0.6173 -0.9447
56737SOL    HW174768   2.680   2.408   4.190 -0.1297  0.7396  1.0582
56737SOL    HW274769   2.561   2.462   4.115  0.5311 -0.4170 -0.8915
56738SOL     OW74770   8.372   8.756  10.773  0.1111 -0.5720  0.2362
56738SOL    HW174771   8.300   8.705  10.734 -0.4289 -0.3450  0.9098
56738SOL    HW274772   8.332   8.799  10.849  0.7378  0.2900  0.0897
56739SOL     OW74773   9.068   9.628   8.466  0.2096 -0.5346  0.2348
56739SOL    HW174774   9.137   9.637   8.401 -0.2648 -0.6309 -0.2916
56739SOL    HW274775   8.988   9.652   8.419  0.1322  1.8436  1.4365
56740SOL     OW74776   8.858   3.231  11.311 -0.8755  0.5778 -0.4072
56740SOL    HW174777   8.935   3.217  11.256 -1.6225  1.1405 -1.6680
56740SOL    HW274778   8.829   3.144  11.335  0.9914  0.3883  1.3524
56741SOL     OW74779   4.443   4.154   2.248 -0.1172 -0.1818 -0.7919
56741SOL    HW174780   4.516   4.126   2.303 -1.0455  0.4480  0.8393
56741SOL    HW274781   4.425   4.078   2.192 -0.5904 -1.7725  1.3615
56742SOL     OW74782   9.772  11.902   6.517 -0.1374 -0.0975 -0.4234
56742SOL    HW174783   9.764  11.816   6.557  3.2195 -0.1921  0.3809
56742SOL    HW274784   9.698  11.952   6.552 -1.3808 -2.2114  0.1627
56743SOL     OW74785   1.577   5.227   9.651  0.2316 -0.4246  0.2564
56743SOL    HW174786   1.556   5.198   9.739 -0.3710 -0.0900  0.2249
56743SOL    HW274787   1.602   5.319   9.661 -2.5626  0.4776 -0.2544
56744SOL     OW74788   1.958   6.149   9.765 -0.4203  0.1994 -0.1933
56744SOL    HW174789   1.974   6.089   9.838  2.0550 -0.3128 -1.0593
56744SOL    HW274790   1.932   6.232   9.807 -1.2183 -0.6803  1.1272
56745SOL     OW74791   7.170   9.563   8.215  0.1668 -0.2554  0.3339
56745SOL    HW174792   7.170   9.583   8.122 -0.1169  2.3797  0.8240
56745SOL    HW274793   7.214   9.478   8.222 -0.6969 -0.9883 -2.2556
56746SOL     OW74794  11.084   2.861  10.918 -0.5744  0.4616  0.0440
56746SOL    HW174795  11.156   2.851  10.856 -0.3715 -0.9592  0.4718
56746SOL    HW274796  11.127   2.869  11.003 -0.9173 -0.2070  0.2790
56747SOL     OW74797   4.431   1.312   1.343 -0.1221 -0.2885 -0.7573
56747SOL    HW174798   4.418   1.310   1.248 -1.6875 -0.2699 -0.5575
56747SOL    HW274799   4.464   1.225   1.364 -0.7726 -0.6433 -1.1831
56748SOL     OW74800   4.293   8.574   1.581  0.2961  0.2198 -0.2603
56748SOL    HW174801   4.318   8.637   1.513  3.4461  0.0279  0.5739
56748SOL    HW274802   4.339   8.604   1.659  1.1106 -2.5489  0.4102
56749SOL     OW74803  10.235   7.349   4.638  0.3513  0.0736 -0.6744
56749SOL    HW174804  10.283   7.283   4.688 -1.6780 -1.8635 -1.1389
56749SOL    HW274805  10.200   7.408   4.705 -0.6868 -1.3403  0.0728
56750SOL     OW74806   8.757   4.960   3.011  0.3462 -0.2709 -0.4359
56750SOL    HW174807   8.725   4.997   3.093  1.8350 -1.2396  0.6348
56750SOL    HW274808   8.703   4.883   2.996  0.1580 -0.1650 -0.3110
56751SOL     OW74809   7.453   7.870   0.898  0.0470 -0.0563  0.0834
56751SOL    HW174810   7.412   7.955   0.915 -0.3815 -0.3099  0.3336
56751SOL    HW274811   7.507   7.853   0.975 -1.1199 -0.7453  0.7824
56752SOL     OW74812   7.657   4.663   4.891 -0.6494  0.3440 -0.1618
56752SOL    HW174813   7.563   4.652   4.903 -0.5591 -0.9843 -0.4600
56752SOL    HW274814   7.678   4.745   4.936 -1.2784 -1.3252  3.5558
56753SOL     OW74815  11.579   5.395   8.783  0.1195 -0.3739 -0.6252
56753SOL    HW174816  11.627   5.431   8.708 -2.8029  0.3210 -2.3087
56753SOL    HW274817  11.533   5.319   8.748 -0.7273 -0.4700  0.6552
56754SOL     OW74818  10.679   8.224  11.021 -0.8105  0.2354 -0.0501
56754SOL    HW174819  10.689   8.178  10.938  1.5513  3.5918 -1.8792
56754SOL    HW274820  10.615   8.293  11.003 -0.9424  0.4721  1.2241
56755SOL     OW74821   7.554  12.004   4.366 -0.2518  0.1124  0.0690
56755SOL    HW174822   7.557  11.972   4.276 -0.9409  0.6569 -0.1580
56755SOL    HW274823   7.644  11.999   4.396  0.0443  0.2295 -0.7683
56756SOL     OW74824   3.070  11.077   1.271 -0.4507 -0.4448 -0.3081
56756SOL    HW174825   3.035  11.117   1.191  1.7120  1.0990 -0.5833
56756SOL    HW274826   3.158  11.047   1.247  0.3167  0.2013  1.4989
56757SOL     OW74827   4.593  10.682   2.771 -0.1522  0.3913  0.6648
56757SOL    HW174828   4.655  10.739   2.726 -0.9795  0.4955 -0.3814
56757SOL    HW274829   4.511  10.730   2.770 -0.8989 -0.8464 -0.3399
56758SOL     OW74830   9.051   5.083   3.510 -0.3291  0.0259 -0.5177
56758SOL    HW174831   8.963   5.108   3.540  0.5318  2.4419  0.2165
56758SOL    HW274832   9.085   5.162   3.468  1.5485 -0.8340 -0.7127
56759SOL     OW74833   0.222   3.954   7.600  0.3785 -0.5112  0.2605
56759SOL    HW174834   0.138   3.948   7.554  0.6716 -0.6950 -0.2580
56759SOL    HW274835   0.267   4.028   7.559  0.2042  0.0171  0.9905
56760SOL     OW74836   8.796   0.700   1.526 -0.4007  0.5698 -0.4957
56760SOL    HW174837   8.880   0.667   1.493 -0.4679  0.6068 -0.7106
56760SOL    HW274838   8.736   0.687   1.452 -0.3394  1.5574 -0.7296
56761SOL     OW74839  11.341   7.170   9.091  0.0549 -0.2335 -0.1543
56761SOL    HW174840  11.250   7.171   9.061 -0.8775 -0.7023  2.4215
56761SOL    HW274841  11.378   7.090   9.054 -0.9351 -0.6284 -0.3061
56762SOL     OW74842   0.223  12.010   8.042 -0.4465 -0.2942  0.3488
56762SOL    HW174843   0.264  11.953   8.107 -0.3764 -0.3144  0.2859
56762SOL    HW274844   0.143  11.965   8.018 -1.9948  1.0475  2.5704
56763SOL     OW74845   1.060   1.356   4.461  0.0921 -0.3700  0.1527
56763SOL    HW174846   0.967   1.338   4.446  0.2417 -1.1142  0.0774
56763SOL    HW274847   1.069   1.361   4.556  0.1599 -1.3873  0.2120
56764SOL     OW74848   9.465  12.035   8.100  0.5367  0.2407  0.6358
56764SOL    HW174849   9.420  11.953   8.079 -0.3293  0.7422  0.4723
56764SOL    HW274850   9.440  12.053   8.191 -0.9815  1.3653  0.0376
56765SOL     OW74851   0.455   3.042   5.953 -0.6414 -0.1322  0.0234
56765SOL    HW174852   0.464   3.116   6.013  0.9804  0.2999 -0.6834
56765SOL    HW274853   0.473   2.965   6.006  0.3828  0.2175  0.1965
56766SOL     OW74854   4.945  11.151   4.666 -0.0930  0.0012 -0.6690
56766SOL    HW174855   5.040  11.164   4.666 -0.0336 -0.1661  0.9577
56766SOL    HW274856   4.933  11.057   4.653  0.1636 -0.5191  2.0989
56767SOL     OW74857  11.377   0.232   6.387  0.3975  0.4179 -0.4684
56767SOL    HW174858  11.314   0.277   6.331 -0.2578  1.4821  1.0452
56767SOL    HW274859  11.386   0.290   6.463  0.6667 -1.3149  0.8764
56768SOL     OW74860  10.309   5.484   3.689  0.5399  0.4883  0.7332
56768SOL    HW174861  10.256   5.563   3.691 -1.3265 -0.5296 -2.0242
56768SOL    HW274862  10.246   5.413   3.675  2.4564 -0.9967 -0.9983
56769SOL     OW74863   2.211   4.973  10.351 -0.0659 -0.0011 -0.2699
56769SOL    HW174864   2.222   4.881  10.373  2.5724 -0.1681 -1.8441
56769SOL    HW274865   2.128   4.977  10.304 -1.5624 -1.0394  2.1265
56770SOL     OW74866   3.227   8.291   4.252  0.0913  0.8400  0.0916
56770SOL    HW174867   3.146   8.317   4.209  0.2290  0.4303 -0.4310
56770SOL    HW274868   3.265   8.372   4.285 -0.7538  0.9842  0.7476
56771SOL     OW74869   0.033  11.283  11.031  0.2475 -0.5503 -0.7275
56771SOL    HW174870   0.023  11.257  10.940  0.5328  1.3001 -1.3241
56771SOL    HW274871   0.015  11.377  11.031  0.1698 -0.5306  1.1392
56772SOL     OW74872   3.177   9.136   9.896 -0.0108 -0.2460  0.0269
56772SOL    HW174873   3.170   9.211   9.837  0.4553  1.3286  1.8796
56772SOL    HW274874   3.250   9.085   9.860 -0.9799 -0.4260 -1.8440
56773SOL     OW74875   5.516  10.487  10.312  0.1755 -0.0778 -0.1723
56773SOL    HW174876   5.443  10.476  10.251  1.0542  3.5806 -2.1805
56773SOL    HW274877   5.501  10.573  10.352  1.0300 -1.2451  2.9884
56774SOL     OW74878   5.457   1.115   4.740 -0.0834  0.3590 -0.6838
56774SOL    HW174879   5.459   1.139   4.648  1.8279  0.4208 -0.6573
56774SOL    HW274880   5.485   1.194   4.786  2.0073 -0.5268 -0.3048
56775SOL     OW74881  11.911   9.735   7.928 -0.1400 -0.1326 -0.0639
56775SOL    HW174882  12.002   9.732   7.896 -0.6178  0.5565 -1.5910
56775SOL    HW274883  11.858   9.719   7.850 -1.3380 -1.1341  0.9218
56776SOL     OW74884   5.138   1.802   8.717 -0.1500 -0.0564 -0.2046
56776SOL    HW174885   5.092   1.822   8.798  0.4547  0.2533  0.0658
56776SOL    HW274886   5.193   1.878   8.700  0.4715 -0.5295 -0.3722
56777SOL     OW74887   2.396   8.006   9.478  0.4271 -0.5869  0.0462
56777SOL    HW174888   2.357   7.931   9.523 -0.2713  0.7838  1.8349
56777SOL    HW274889   2.449   8.050   9.544  1.9175 -0.1994 -1.3231
56778SOL     OW74890   6.977  10.883   1.995 -0.1969  0.3179  0.2881
56778SOL    HW174891   6.902  10.862   1.939  0.5605  0.7027 -0.9259
56778SOL    HW274892   7.022  10.953   1.948  2.2979 -1.5427 -0.3486
56779SOL     OW74893  10.697  11.301  11.771  0.0028 -0.1334  0.3716
56779SOL    HW174894  10.694  11.297  11.675  0.3281 -1.4800  0.3959
56779SOL    HW274895  10.640  11.374  11.794  1.2358  1.2959 -0.9193
56780SOL     OW74896   4.588   1.752   8.599  0.0700 -0.2060 -0.4785
56780SOL    HW174897   4.645   1.784   8.669  1.4093 -2.2801 -0.5310
56780SOL    HW274898   4.632   1.779   8.519 -0.3991  0.4079 -0.5361
56781SOL     OW74899   5.183   0.169  11.198  0.1056  0.3238 -0.3511
56781SOL    HW174900   5.157   0.080  11.224 -1.2364  0.5079 -0.9931
56781SOL    HW274901   5.251   0.155  11.133  0.8600 -0.2016  0.5243
56782SOL     OW74902   9.292  10.357   1.070  0.6644 -0.3135 -0.3569
56782SOL    HW174903   9.247  10.353   0.985  2.4241  1.4161 -1.4502
56782SOL    HW274904   9.375  10.312   1.055  1.0491  0.1319  0.4009
56783SOL     OW74905  10.110   0.554   7.846  1.0562  0.5191  0.1199
56783SOL    HW174906  10.132   0.646   7.860  0.6102  0.7228 -0.4586
56783SOL    HW274907  10.016   0.554   7.828  1.3329  0.1531 -1.4874
56784SOL     OW74908   0.442   5.604   3.533 -0.1736 -0.1217  0.5342
56784SOL    HW174909   0.452   5.634   3.623  0.8384 -0.1630  0.4376
56784SOL    HW274910   0.520   5.553   3.515 -0.4581 -0.2784 -0.3111
56785SOL     OW74911  10.052   5.929   4.517 -0.6250 -0.5587 -0.0258
56785SOL    HW174912  10.138   5.955   4.549 -0.1444 -2.0314 -0.0256
56785SOL    HW274913  10.023   6.002   4.463  1.2513 -0.5833 -1.1532
56786SOL     OW74914   4.191  12.029  11.715  0.4626 -0.1056  0.4383
56786SOL    HW174915   4.274  11.986  11.737  0.1621 -0.7666  0.3063
56786SOL    HW274916   4.130  11.998  11.782  0.4668  0.8795  0.9197
56787SOL     OW74917   4.177   8.799  11.554 -0.3044 -0.5593 -0.3962
56787SOL    HW174918   4.094   8.843  11.573 -0.4589 -0.5731 -1.0217
56787SOL    HW274919   4.236   8.827  11.625 -0.4821  0.4400 -0.6216
56788SOL     OW74920   0.687   6.140  11.404 -0.0682  0.6233 -0.1374
56788SOL    HW174921   0.703   6.181  11.489  2.6496 -0.0626 -0.2071
56788SOL    HW274922   0.623   6.071  11.422 -0.1709  1.0392  1.1863
56789SOL     OW74923   0.709   5.989   6.812  0.1633  0.1649 -0.7603
56789SOL    HW174924   0.753   5.905   6.821  1.2530  0.7388 -0.4643
56789SOL    HW274925   0.627   5.979   6.860  1.5305  0.0982  1.7592
56790SOL     OW74926  11.430  10.408   3.646 -0.2645  0.1717 -0.2615
56790SOL    HW174927  11.367  10.472   3.682 -0.2723  0.4519 -0.7689
56790SOL    HW274928  11.439  10.343   3.716 -0.8733  0.2974 -0.0503
56791SOL     OW74929   9.890   2.976   4.512  0.3616 -0.4187  0.1475
56791SOL    HW174930   9.962   2.918   4.486  0.6329  0.4293 -1.1497
56791SOL    HW274931   9.931   3.063   4.516 -0.1707 -0.2123  1.4104
56792SOL     OW74932   7.346   4.205   5.407  0.2128  0.5913  0.0937
56792SOL    HW174933   7.339   4.115   5.439 -1.6720  0.6443 -0.0451
56792SOL    HW274934   7.276   4.251   5.452  0.0481  1.5892 -1.1424
56793SOL     OW74935   2.412   9.757   0.553  0.4196 -0.4971  0.2333
56793SOL    HW174936   2.476   9.692   0.582 -0.2732  0.0623  3.3004
56793SOL    HW274937   2.458   9.841   0.560  0.3586 -0.3659 -0.7782
56794SOL     OW74938  11.741   9.659   2.503 -0.0851  0.0810  0.4263
56794SOL    HW174939  11.720   9.567   2.514 -0.9787  0.3154  0.7622
56794SOL    HW274940  11.785   9.684   2.585 -2.7462  0.7228  1.7758
56795SOL     OW74941   4.312   3.770   7.654  0.3302  0.0958 -0.0467
56795SOL    HW174942   4.328   3.791   7.746  0.0101  0.9325 -0.1743
56795SOL    HW274943   4.243   3.830   7.627  1.1585  0.5900 -1.1335
56796SOL     OW74944   9.709   2.591   6.337  0.0722  0.2056  0.1524
56796SOL    HW174945   9.710   2.576   6.243 -2.1408 -0.1812  0.1347
56796SOL    HW274946   9.622   2.628   6.354  0.6221  0.7635  1.9825
56797SOL     OW74947   5.501   9.388  10.859  0.3015 -0.2427  0.2267
56797SOL    HW174948   5.572   9.448  10.836  0.8780 -0.1841  2.0667
56797SOL    HW274949   5.463   9.364  10.774  0.3051  2.3786 -0.6178
56798SOL     OW74950   0.035   9.369  10.610 -0.3237 -0.5928  0.4951
56798SOL    HW174951   0.093   9.293  10.610 -0.4113 -0.6630 -0.0337
56798SOL    HW274952   0.091   9.442  10.638 -0.5414 -1.0645  2.2662
56799SOL     OW74953   6.406   7.147   4.983 -0.4838  0.1573  0.1406
56799SOL    HW174954   6.312   7.131   4.978 -0.5456  0.8545 -1.8517
56799SOL    HW274955   6.440   7.120   4.898  1.3252 -1.1213  1.2025
56800SOL     OW74956   1.894   8.588   8.507  0.3760 -1.0339  0.3546
56800SOL    HW174957   1.972   8.638   8.483  0.1034 -0.6728  0.2145
56800SOL    HW274958   1.908   8.563   8.598 -0.6028  1.4568  1.2614
56801SOL     OW74959   9.351   7.832   4.947  0.4475  0.0602 -0.0344
56801SOL    HW174960   9.419   7.819   5.013  0.7953  2.0123  0.0563
56801SOL    HW274961   9.355   7.926   4.926 -0.6502 -0.2231 -1.7496
56802SOL     OW74962   6.499   5.050  11.273  0.0078 -0.7487  0.4015
56802SOL    HW174963   6.560   5.021  11.206 -0.6756 -1.4686  0.0767
56802SOL    HW274964   6.454   5.125  11.234  1.3699  0.4405  1.0247
56803SOL     OW74965   6.726   4.515   5.632  0.1308  0.0799 -0.0468
56803SOL    HW174966   6.707   4.462   5.710  1.2605 -1.1751 -0.5944
56803SOL    HW274967   6.721   4.605   5.663 -3.2961 -0.2011  0.6102
56804SOL     OW74968   9.465   6.069   2.595  0.5813 -0.4007  0.0384
56804SOL    HW174969   9.535   6.113   2.546  1.3118 -0.6467  0.8422
56804SOL    HW274970   9.459   5.982   2.555  0.9328 -0.4766  0.1430
56805SOL     OW74971   2.004   3.631   8.865  0.8901 -0.2599  0.1203
56805SOL    HW174972   2.058   3.553   8.853 -1.0045 -1.2425 -3.1723
56805SOL    HW274973   2.033   3.692   8.797  0.3986  0.7804  0.8077
56806SOL     OW74974  11.575   5.563   2.106  0.1602  0.6102  0.1612
56806SOL    HW174975  11.584   5.642   2.159  0.0076  0.6937  0.0624
56806SOL    HW274976  11.587   5.491   2.168  0.0098  0.7077  0.3039
56807SOL     OW74977   2.669   1.449   4.186 -0.3221  0.5594  0.2695
56807SOL    HW174978   2.575   1.430   4.185 -0.3141  0.3570  1.4097
56807SOL    HW274979   2.700   1.411   4.269  0.7007  0.9118  0.0618
56808SOL     OW74980  11.109  10.496  10.939 -0.2809  0.1221  0.1561
56808SOL    HW174981  11.034  10.499  10.881  0.0537  2.5776 -0.2750
56808SOL    HW274982  11.078  10.534  11.021  0.5893  1.8337 -0.2511
56809SOL     OW74983   5.206   1.995  10.100 -0.0556  0.7880  0.1900
56809SOL    HW174984   5.237   2.060  10.038  0.0576  0.3124 -0.2567
56809SOL    HW274985   5.198   1.915  10.049 -0.5089  0.5286  0.6584
56810SOL     OW74986   2.208   1.162   9.867 -0.0139  0.0499 -0.3725
56810SOL    HW174987   2.164   1.240   9.835  2.4898  1.7604  0.0321
56810SOL    HW274988   2.146   1.122   9.928 -1.3967  1.6902 -0.6452
56811SOL     OW74989   2.819   7.805   8.563 -0.7267 -0.5941  0.1991
56811SOL    HW174990   2.791   7.742   8.629 -0.8758  0.0280  0.7416
56811SOL    HW274991   2.827   7.754   8.483  0.7582 -1.6517  0.9721
56812SOL     OW74992   8.062  10.528   1.028 -0.1439  0.1519 -0.4265
56812SOL    HW174993   8.150  10.515   0.994  0.1286 -0.8704  0.5763
56812SOL    HW274994   8.065  10.611   1.074  1.2420 -1.2416  2.2489
56813SOL     OW74995   3.842   6.837   2.992 -0.1738  0.8827  0.2653
56813SOL    HW174996   3.828   6.870   3.081 -0.7570  1.4782 -0.0421
56813SOL    HW274997   3.767   6.780   2.976  1.3019 -1.4702  1.1585
56814SOL     OW74998   8.160  11.336   2.107  0.2248  0.1638  0.4976
56814SOL    HW174999   8.131  11.271   2.044 -0.6124 -0.2848  1.3116
56814SOL    HW275000   8.248  11.308   2.132 -0.5604 -1.3926  1.7264
56815SOL     OW75001  11.352   9.387   3.104 -0.1846 -0.2777 -0.2892
56815SOL    HW175002  11.370   9.462   3.161  3.4366 -0.6694 -0.6835
56815SOL    HW275003  11.297   9.423   3.034  0.0949  1.6066  0.3891
56816SOL     OW75004   9.005   5.657   8.493 -0.1769  0.8222 -0.6154
56816SOL    HW175005   8.945   5.728   8.514 -0.1346  0.6013  0.2939
56816SOL    HW275006   9.030   5.621   8.578 -1.0230 -0.9805 -1.0849
56817SOL     OW75007   8.852   0.876   5.139 -0.2071  0.1366 -0.4798
56817SOL    HW175008   8.861   0.838   5.052 -0.8114 -0.1149 -0.4401
56817SOL    HW275009   8.929   0.847   5.187  0.2793  0.5317 -1.0233
56818SOL     OW75010   7.777   6.261   2.225  0.0100 -0.6445  0.6583
56818SOL    HW175011   7.749   6.283   2.136  0.4218  0.5188  0.8013
56818SOL    HW275012   7.864   6.301   2.234 -0.9144  1.2021  2.2909
56819SOL     OW75013   0.292   3.555   1.058  0.4724  0.5840 -0.0298
56819SOL    HW175014   0.377   3.517   1.080  1.4026  1.8487 -1.2188
56819SOL    HW275015   0.250   3.571   1.142  0.6847 -1.5402  0.5399
56820SOL     OW75016   8.736   8.213   2.927 -0.0861  0.2507 -0.3563
56820SOL    HW175017   8.771   8.125   2.916  3.9897  1.6183  0.0485
56820SOL    HW275018   8.755   8.235   3.018  0.2619  2.0178 -0.8170
56821SOL     OW75019   6.447   7.383  11.007  0.2607  0.6295 -0.6047
56821SOL    HW175020   6.417   7.371  11.097 -0.1467 -2.2343 -1.0148
56821SOL    HW275021   6.473   7.475  11.002 -0.7427  1.1540  2.0958
56822SOL     OW75022   3.637   2.772   2.810 -0.5955 -0.1891 -0.2195
56822SOL    HW175023   3.621   2.691   2.859  1.1985 -0.6279 -0.3234
56822SOL    HW275024   3.705   2.749   2.747  0.2378  1.5148  0.0327
56823SOL     OW75025   6.223   1.818   5.978 -0.2832 -0.2307 -0.9080
56823SOL    HW175026   6.221   1.854   6.067 -0.6396  1.3375 -1.5222
56823SOL    HW275027   6.141   1.770   5.970 -1.2560  1.3948 -1.0669
56824SOL     OW75028  12.120   8.102   2.147 -0.2391  0.2104 -0.2048
56824SOL    HW175029  12.207   8.142   2.150 -0.1425  0.0012 -0.2136
56824SOL    HW275030  12.101   8.081   2.238  0.2048 -0.7821 -0.3292
56825SOL     OW75031   5.409   9.046   0.528  0.0734 -0.1816 -0.5857
56825SOL    HW175032   5.382   9.034   0.437 -0.0625 -0.8421 -0.4569
56825SOL    HW275033   5.366   8.976   0.576 -1.4257  1.3080  0.3166
56826SOL     OW75034   8.190   6.227   9.829 -0.0382 -0.0775  0.1269
56826SOL    HW175035   8.231   6.140   9.826  1.5087  0.5828  0.8045
56826SOL    HW275036   8.252   6.284   9.783 -0.2662  0.9325  1.0261
56827SOL     OW75037   9.762   7.384   7.422  0.6515  0.0708  0.1263
56827SOL    HW175038   9.745   7.430   7.505  1.7174  1.1216 -0.2062
56827SOL    HW275039   9.858   7.385   7.414  0.5979 -0.7134 -0.7487
56828SOL     OW75040   0.215  10.494   3.959 -0.2296 -0.3373 -0.1744
56828SOL    HW175041   0.209  10.539   3.875  0.8418 -1.3508 -0.8158
56828SOL    HW275042   0.290  10.533   4.003 -0.3443 -0.3171  0.0072
56829SOL     OW75043   2.206   0.931   2.831 -0.1017 -0.2834  0.1538
56829SOL    HW175044   2.250   1.014   2.846  2.0024 -1.4958  1.1557
56829SOL    HW275045   2.159   0.944   2.748  1.2501  1.4724 -0.4108
56830SOL     OW75046   4.594   0.887  10.006 -0.4030  0.1097 -0.5037
56830SOL    HW175047   4.651   0.851  10.075  0.1729  1.5901 -0.1689
56830SOL    HW275048   4.516   0.916  10.052 -0.1965  0.7147 -0.5312
56831SOL     OW75049   1.169   1.251   6.722 -0.2576  0.1812  0.4290
56831SOL    HW175050   1.098   1.312   6.739  0.9497  1.5314  0.8097
56831SOL    HW275051   1.235   1.272   6.788  0.1706 -1.6000  0.6276
56832SOL     OW75052   5.369   0.421   9.445  0.3251  0.0559  0.0920
56832SOL    HW175053   5.336   0.383   9.364 -1.1778  0.1261  0.6360
56832SOL    HW275054   5.407   0.347   9.493 -1.1036 -0.4843  0.4315
56833SOL     OW75055   4.666   2.091  10.245 -0.1626  0.0899 -0.6877
56833SOL    HW175056   4.649   2.152  10.316  0.9271  0.1684 -0.4748
56833SOL    HW275057   4.594   2.105  10.183 -0.2590  1.1478 -0.3533
56834SOL     OW75058   0.106   8.965   8.767 -0.0141 -0.4541 -0.5441
56834SOL    HW175059   0.134   8.880   8.802 -0.8780 -0.2690  0.6802
56834SOL    HW275060   0.010   8.959   8.764 -0.1128  0.6591  0.0835
56835SOL     OW75061   6.329   4.277  10.038  0.2419  0.5300  0.3393
56835SOL    HW175062   6.309   4.276   9.944  1.8227  1.8394 -0.0707
56835SOL    HW275063   6.252   4.240  10.080 -1.3896  1.8390 -1.3326
56836SOL     OW75064   8.162   5.904   4.975  0.2185 -0.0771 -0.5191
56836SOL    HW175065   8.257   5.899   4.964  0.3319 -0.3471  0.5202
56836SOL    HW275066   8.144   5.850   5.052 -0.6231  1.0268  0.0888
56837SOL     OW75067   6.406   8.424   0.988  0.5661 -0.4524  0.1525
56837SOL    HW175068   6.314   8.451   0.979  1.0019  0.3035 -3.2034
56837SOL    HW275069   6.401   8.330   1.003 -0.7760 -0.6413 -1.2214
56838SOL     OW75070   2.868   4.994   5.125  0.1557  0.2030 -0.1351
56838SOL    HW175071   2.916   4.954   5.053 -1.1951 -1.5968 -0.0995
56838SOL    HW275072   2.840   5.079   5.091 -0.1751 -0.4746 -1.6217
56839SOL     OW75073   5.664  10.275   9.271 -0.1747 -0.4655 -0.2156
56839SOL    HW175074   5.682  10.280   9.365  3.5597 -0.0651 -0.8157
56839SOL    HW275075   5.668  10.366   9.242  1.2610 -0.8085 -1.1318
56840SOL     OW75076   6.109  11.762   2.289 -0.7199 -0.2274 -0.1015
56840SOL    HW175077   6.072  11.760   2.377  0.8907  0.2503  0.6219
56840SOL    HW275078   6.175  11.693   2.290  0.5584  0.9510 -0.3296
56841SOL     OW75079   9.528   4.813  11.763  0.4596  0.1510 -0.0583
56841SOL    HW175080   9.452   4.850  11.809  0.9400  0.2062  0.7216
56841SOL    HW275081   9.561   4.746  11.823  1.2973  0.4528 -0.1739
56842SOL     OW75082  10.900   3.255   4.125  0.2484  0.3351  0.3354
56842SOL    HW175083  10.828   3.245   4.188  0.7638 -0.3088  0.8305
56842SOL    HW275084  10.880   3.336   4.079  0.3868  1.3723  2.0201
56843SOL     OW75085   0.214  10.870   0.697 -0.3074 -0.2332  0.3528
56843SOL    HW175086   0.256  10.801   0.645 -0.5880 -0.1140 -0.0345
56843SOL    HW275087   0.252  10.951   0.664 -0.8852 -0.1219 -0.0375
56844SOL     OW75088  10.615  10.534   8.305  0.6871 -0.2247 -0.7774
56844SOL    HW175089  10.521  10.528   8.319  0.9474 -0.7704  1.1106
56844SOL    HW275090  10.632  10.628   8.294  0.0894  0.0692  0.5634
56845SOL     OW75091   9.854   0.752   6.947  0.5683  0.2119 -0.3190
56845SOL    HW175092   9.851   0.692   7.022  1.3174 -1.0279 -1.2412
56845SOL    HW275093   9.776   0.731   6.896 -1.0863  2.4919  1.1041
56846SOL     OW75094   2.612   7.931   6.503 -0.1996 -0.3703  0.4440
56846SOL    HW175095   2.543   7.917   6.438  1.6793  0.7096 -1.9841
56846SOL    HW275096   2.568   7.971   6.577 -2.4304 -1.3876 -0.2518
56847SOL     OW75097   4.035   9.349   8.455  0.3504 -0.1421 -0.1670
56847SOL    HW175098   4.122   9.319   8.428  1.0758 -0.3070  2.1459
56847SOL    HW275099   3.999   9.275   8.505 -0.3561  0.6046  0.4483
56848SOL     OW75100   5.467  10.741   3.613  0.3973  0.7328 -0.7930
56848SOL    HW175101   5.494  10.662   3.660  0.6270  1.9207  1.2028
56848SOL    HW275102   5.372  10.732   3.604  0.7641 -1.5909 -4.2598
56849SOL     OW75103   8.679   7.359   7.415  0.2456  0.2231 -0.2575
56849SOL    HW175104   8.677   7.436   7.471 -0.0808  0.9537 -1.2256
56849SOL    HW275105   8.771   7.336   7.407  0.2505 -0.2777  1.0589
56850SOL     OW75106   4.358   9.563   6.558 -0.3277 -0.1498 -0.1496
56850SOL    HW175107   4.334   9.653   6.534  0.3148  0.1334  0.2415
56850SOL    HW275108   4.388   9.524   6.477  1.7913  0.7905  0.1130
56851SOL     OW75109   4.134   7.120   5.794  0.2414  0.7410 -0.2993
56851SOL    HW175110   4.098   7.100   5.708 -0.7287  1.2463 -0.0266
56851SOL    HW275111   4.106   7.047   5.849 -0.1588  1.0063 -0.1463
56852SOL     OW75112   8.935  11.331   6.038 -0.3269  0.4325 -0.2904
56852SOL    HW175113   8.976  11.341   6.124 -0.4728 -2.1674  0.1575
56852SOL    HW275114   9.009  11.317   5.978 -0.3114  0.3313 -0.2490
56853SOL     OW75115   9.618   9.891   4.283  0.6531  0.3592  0.1727
56853SOL    HW175116   9.563   9.849   4.216 -0.9747  0.9512  1.0795
56853SOL    HW275117   9.594   9.983   4.280  1.3140  0.5682  0.8745
56854SOL     OW75118   6.189   7.961  11.078  0.2537  0.2982 -0.5838
56854SOL    HW175119   6.255   8.009  11.127 -0.4032  0.8018 -0.1698
56854SOL    HW275120   6.238   7.896  11.027  0.9004 -0.8613  1.4148
56855SOL     OW75121   9.046   4.848   2.942 -0.1314 -0.0012  0.2525
56855SOL    HW175122   8.952   4.840   2.927  0.0647 -2.4075 -0.0334
56855SOL    HW275123   9.053   4.896   3.024 -1.5308  1.9104 -0.6770
56856SOL     OW75124   3.922   7.900   0.909  0.1722  0.3377 -0.2270
56856SOL    HW175125   3.988   7.854   0.962  0.0388 -0.5571 -0.8186
56856SOL    HW275126   3.931   7.992   0.935  0.8905  0.0776  0.5089
56857SOL     OW75127   3.026   5.727   6.215  0.1852  0.5341 -0.5957
56857SOL    HW175128   3.042   5.653   6.273  0.7642  0.4333 -0.8771
56857SOL    HW275129   3.048   5.695   6.127 -1.3202  0.4754 -0.9792
56858SOL     OW75130   3.038   5.429   5.811 -0.3625 -0.1241 -0.5309
56858SOL    HW175131   3.022   5.505   5.755 -0.4700 -0.3429 -0.7951
56858SOL    HW275132   3.067   5.467   5.894 -0.1614  0.1973 -0.7468
56859SOL     OW75133  10.381   8.379   9.086  0.1354 -0.0103 -0.7004
56859SOL    HW175134  10.290   8.390   9.112  0.0725  0.8585 -1.2441
56859SOL    HW275135  10.399   8.286   9.098 -0.8876 -0.2257 -0.7970
56860SOL     OW75136   6.410   9.280   7.338  0.0974 -0.4266 -0.3072
56860SOL    HW175137   6.317   9.265   7.358  0.4007 -2.6814 -0.3915
56860SOL    HW275138   6.434   9.208   7.280  1.2871  1.5415 -2.4363
56861SOL     OW75139   4.957   5.774   6.744 -0.0760 -0.3417  0.3959
56861SOL    HW175140   4.871   5.792   6.781 -0.0367 -1.1394  0.9046
56861SOL    HW275141   5.016   5.770   6.820  0.1209 -1.3578  0.2081
56862SOL     OW75142  11.982   7.719   8.779 -0.4033  0.2041 -0.0154
56862SOL    HW175143  12.059   7.709   8.723  0.6980  2.9425  0.8707
56862SOL    HW275144  12.017   7.736   8.866 -2.0622 -0.2934  0.7893
56863SOL     OW75145   4.298   9.240   6.478 -0.0389  0.0347  0.5867
56863SOL    HW175146   4.268   9.310   6.420 -1.1397  0.1448  1.2588
56863SOL    HW275147   4.384   9.268   6.507  0.2378  0.3053 -0.4461
56864SOL     OW75148   6.019  11.467  11.514  0.1373  0.1063 -0.0604
56864SOL    HW175149   5.971  11.524  11.574 -0.3187  1.0449 -1.2787
56864SOL    HW275150   6.027  11.518  11.434  0.9368 -1.0350 -0.7336
56865SOL     OW75151   2.215  10.882   6.132  0.1331 -0.2204  0.1399
56865SOL    HW175152   2.133  10.918   6.164  0.7409  1.0817  0.3110
56865SOL    HW275153   2.261  10.854   6.211  0.4136  0.3111  0.1706
56866SOL     OW75154   1.488   5.994   9.035  0.4632  0.2275  0.7600
56866SOL    HW175155   1.402   6.023   9.004  0.6230 -1.2027 -1.2319
56866SOL    HW275156   1.550   6.047   8.985  0.7318 -0.5376  0.2735
56867SOL     OW75157   4.913   6.399   9.431  0.3584  0.1808  0.1348
56867SOL    HW175158   4.862   6.374   9.508 -0.7789  1.9460  0.0103
56867SOL    HW275159   4.870   6.352   9.359  0.4391 -0.2356  0.3527
56868SOL     OW75160  11.151   0.232  10.081 -0.4589 -0.4191  0.4059
56868SOL    HW175161  11.190   0.155  10.122  0.3785 -0.9769 -1.3303
56868SOL    HW275162  11.069   0.200  10.043  0.6600 -0.9560 -1.7545
56869SOL     OW75163  10.663   3.541   5.342  0.3636 -0.2499 -0.4580
56869SOL    HW175164  10.626   3.505   5.423  2.7833 -0.5273  0.6360
56869SOL    HW275165  10.746   3.494   5.331  1.1037  1.2916 -1.9251
56870SOL     OW75166   7.791   8.063   2.667 -0.1271  0.6261  0.4065
56870SOL    HW175167   7.697   8.076   2.655 -0.2310 -1.1305 -1.2654
56870SOL    HW275168   7.830   8.150   2.657 -1.4594  1.1420 -0.4947
56871SOL     OW75169   0.671   6.085   5.650 -0.1091  0.2265  0.6810
56871SOL    HW175170   0.693   6.090   5.557  2.4347  1.9942  1.2847
56871SOL    HW275171   0.753   6.061   5.693 -0.9389  0.6189  2.5942
56872SOL     OW75172   6.132   7.488   7.965 -0.5517 -0.6346  0.1413
56872SOL    HW175173   6.048   7.446   7.945 -0.9683 -0.5146  1.5315
56872SOL    HW275174   6.176   7.427   8.024  0.5923 -0.9352 -0.9774
56873SOL     OW75175   2.758  10.746   7.460  0.3289  0.0887  0.6209
56873SOL    HW175176   2.781  10.781   7.546  0.8513  1.7585 -0.1512
56873SOL    HW275177   2.669  10.777   7.444  0.5619  0.5369  0.1893
56874SOL     OW75178   8.855   6.775  12.001  0.2637  0.5121  0.1335
56874SOL    HW175179   8.939   6.741  12.032  0.3286  1.3644  0.9546
56874SOL    HW275180   8.859   6.869  12.021 -0.4283  0.7693 -0.8638
56875SOL     OW75181   4.650   4.260   1.803  0.1356  0.9591  0.2811
56875SOL    HW175182   4.707   4.244   1.728  1.4988 -1.7926  1.7525
56875SOL    HW275183   4.569   4.213   1.782 -0.6492  2.6348 -0.6461
56876SOL     OW75184   8.455   7.279   5.003 -0.2103 -0.3477  0.5072
56876SOL    HW175185   8.360   7.285   4.992  0.1000  1.2063 -1.8246
56876SOL    HW275186   8.466   7.224   5.081 -2.9781 -1.5147  0.1867
56877SOL     OW75187   9.308   7.848   7.232 -0.3816 -0.3218 -0.1350
56877SOL    HW175188   9.317   7.783   7.162 -0.4404  0.0225 -0.4657
56877SOL    HW275189   9.388   7.900   7.227 -0.6426  0.0666 -0.3273
56878SOL     OW75190  12.020   3.443   8.737  0.0913  0.7116 -0.0482
56878SOL    HW175191  12.031   3.389   8.658  2.8633 -1.2106  1.4603
56878SOL    HW275192  12.051   3.387   8.808 -0.6658  2.9778  2.2063
56879SOL     OW75193   4.518   9.326   2.463  0.2262  0.1205 -0.1835
56879SOL    HW175194   4.514   9.410   2.417 -1.0154  0.9499  1.3294
56879SOL    HW275195   4.601   9.329   2.511  0.0387  0.6279  0.1174
56880SOL     OW75196   6.205   2.795  10.210 -0.3709 -0.5119  0.0005
56880SOL    HW175197   6.270   2.738  10.250  3.2531  0.2188 -4.1239
56880SOL    HW275198   6.214   2.878  10.257  0.5846 -0.8890  0.5028
56881SOL     OW75199   0.399   7.003  11.800 -0.3597  0.6137 -0.5724
56881SOL    HW175200   0.343   7.032  11.872  1.5139  0.5120  1.0160
56881SOL    HW275201   0.414   7.081  11.748 -0.6864  0.9925 -0.1065
56882SOL     OW75202   4.764   8.092   0.370 -0.0174 -0.4589  0.0332
56882SOL    HW175203   4.720   8.174   0.346 -0.1239 -0.5599 -0.1150
56882SOL    HW275204   4.771   8.043   0.288  0.7687 -0.2608 -0.0300
56883SOL     OW75205   0.130   3.043   4.922 -0.2391  0.1096 -0.4611
56883SOL    HW175206   0.051   2.995   4.949 -1.1195  0.2232 -2.5842
56883SOL    HW275207   0.202   2.982   4.940 -0.5072  0.5921  3.0063
56884SOL     OW75208   3.902  10.625   8.925  0.4279  0.5974 -0.1634
56884SOL    HW175209   3.901  10.660   8.836 -0.8289  0.2992 -0.2877
56884SOL    HW275210   3.974  10.671   8.968 -0.2945  2.3443 -0.7266
56885SOL     OW75211   6.606   7.101   6.040 -0.2810  0.3611 -0.1238
56885SOL    HW175212   6.598   7.058   6.125 -0.1824  0.8713  0.1481
56885SOL    HW275213   6.623   7.029   5.978 -0.2880 -0.0046  0.2940
56886SOL     OW75214  10.965   9.529  10.979  0.1742  0.0472 -0.0079
56886SOL    HW175215  10.936   9.615  11.010  1.1326  0.9034 -1.4094
56886SOL    HW275216  11.057   9.525  11.002  0.8979  0.6629 -2.5090
56887SOL     OW75217   7.059   9.538   2.695  0.3954  0.4896  0.1817
56887SOL    HW175218   7.057   9.504   2.605 -0.0819  2.2463 -0.5031
56887SOL    HW275219   7.130   9.603   2.695  0.5024  0.3888  1.1351
56888SOL     OW75220  10.188   9.302   3.674  0.3153 -0.3598 -0.0210
56888SOL    HW175221  10.200   9.213   3.707 -2.1632 -0.2975  1.2558
56888SOL    HW275222  10.111   9.297   3.617  0.1835  0.9482 -0.0040
56889SOL     OW75223   3.876   4.812   1.262 -0.5585 -0.5700  0.9100
56889SOL    HW175224   3.878   4.810   1.358 -0.9294 -0.1603  0.9280
56889SOL    HW275225   3.793   4.855   1.240 -0.8688 -1.4057  0.3918
56890SOL     OW75226  11.358   4.371  12.063  0.3492  0.9519 -0.4172
56890SOL    HW175227  11.377   4.426  12.139  0.8860 -1.5285  1.3498
56890SOL    HW275228  11.265   4.351  12.070  0.0808  1.8203 -1.2395
56891SOL     OW75229   5.880  11.485   4.203 -0.6117  0.4799 -0.1983
56891SOL    HW175230   5.882  11.553   4.270  0.7637  0.8564 -0.6034
56891SOL    HW275231   5.832  11.526   4.130  0.2277  1.0398 -0.4504
56892SOL     OW75232   1.994   4.812   3.484 -0.3315 -0.2747  0.7715
56892SOL    HW175233   1.941   4.836   3.560 -1.1332 -3.7499  1.4507
56892SOL    HW275234   1.950   4.736   3.446  0.6198  0.6746 -2.6270
56893SOL     OW75235  11.307  11.011   8.621  0.0876  0.2186 -0.2297
56893SOL    HW175236  11.289  10.918   8.633 -2.1236  0.6017 -0.2510
56893SOL    HW275237  11.312  11.046   8.710 -1.2805  0.4383 -0.2234
56894SOL     OW75238   6.292   7.228   9.586  0.1681  0.0898 -0.3359
56894SOL    HW175239   6.381   7.204   9.562  0.0929  2.2918 -3.2846
56894SOL    HW275240   6.239   7.208   9.508 -1.0097  3.1698 -0.4699
56895SOL     OW75241   8.436   1.791   1.391 -0.0439 -0.5293  0.4622
56895SOL    HW175242   8.513   1.828   1.434 -0.2303 -0.9608  1.1895
56895SOL    HW275243   8.362   1.825   1.442 -0.3603  0.0402 -0.3488
56896SOL     OW75244   8.280   8.953   3.261  0.0446  0.1700 -0.0969
56896SOL    HW175245   8.351   8.973   3.322  1.5797  0.3166 -1.8085
56896SOL    HW275246   8.268   9.033   3.210 -0.1546 -0.3710 -0.9389
56897SOL     OW75247   7.663   3.673   1.939 -0.5823 -0.0535  0.1331
56897SOL    HW175248   7.593   3.679   1.875  0.2757  1.2706 -0.7390
56897SOL    HW275249   7.744   3.681   1.888  0.2472 -1.6588  1.0873
56898SOL     OW75250   8.400   3.305   6.280 -0.1821  0.3526  0.5993
56898SOL    HW175251   8.487   3.267   6.296  0.3548  1.0128 -0.6229
56898SOL    HW275252   8.374   3.341   6.365  1.3511  1.3210  0.7024
56899SOL     OW75253   9.110   4.615   0.820 -0.1467  0.2297 -0.4231
56899SOL    HW175254   9.066   4.597   0.903  2.1697  0.6210  0.9711
56899SOL    HW275255   9.092   4.707   0.802 -0.3186  0.2509 -0.1340
56900SOL     OW75256   8.459   7.223  10.100 -0.2689  0.0809 -0.3236
56900SOL    HW175257   8.470   7.300  10.157  0.6775  0.9023 -1.5563
56900SOL    HW275258   8.415   7.258  10.022 -0.3353 -0.7468 -0.6585
56901SOL     OW75259  10.259   9.203   9.546 -0.2202  0.3429  0.1763
56901SOL    HW175260  10.253   9.196   9.451 -0.3199 -0.2741  0.2247
56901SOL    HW275261  10.172   9.180   9.577 -0.2123  0.6286  0.4177
56902SOL     OW75262   5.764  11.908   3.090  0.2689 -0.7185 -0.2077
56902SOL    HW175263   5.670  11.901   3.074  0.1702 -0.6270  0.3158
56902SOL    HW275264   5.803  11.915   3.003 -0.1834 -1.0713 -0.4420
56903SOL     OW75265  11.180   1.196   4.942  0.0236  0.6073  0.6896
56903SOL    HW175266  11.273   1.173   4.937 -0.7231 -2.6251 -2.1215
56903SOL    HW275267  11.162   1.243   4.861 -0.8955  0.7389  0.9527
56904SOL     OW75268   8.249   5.261   4.112  0.7992  0.1038 -0.7688
56904SOL    HW175269   8.175   5.206   4.136  0.9944 -0.5985 -1.6983
56904SOL    HW275270   8.316   5.200   4.082  1.6618  0.7447 -0.1956
56905SOL     OW75271   4.216   6.688   5.709 -0.2614  0.4918 -1.2680
56905SOL    HW175272   4.302   6.731   5.707  0.8462 -1.3631  1.3787
56905SOL    HW275273   4.167   6.735   5.776  0.2145 -0.9711  0.1543
56906SOL     OW75274   4.978  10.105   3.087 -0.0067  0.3918  0.1227
56906SOL    HW175275   4.974  10.013   3.061 -0.3526  0.1297  1.0653
56906SOL    HW275276   4.887  10.133   3.094  0.0895  0.6656  0.3318
56907SOL     OW75277  11.668   4.314   5.550  0.0236  0.2870 -0.8253
56907SOL    HW175278  11.657   4.348   5.639  1.3129  0.0969 -0.5743
56907SOL    HW275279  11.646   4.221   5.556 -0.7011  0.4422 -0.9031
56908SOL     OW75280   1.545   8.869  11.469 -0.6981  0.4898  0.1330
56908SOL    HW175281   1.606   8.895  11.401 -0.4899 -0.3665 -0.0146
56908SOL    HW275282   1.592   8.885  11.551 -0.0786 -0.6109  0.0094
56909SOL     OW75283   0.728   5.029   6.685  0.1251  0.1104 -0.3387
56909SOL    HW175284   0.744   5.121   6.664 -0.2728 -0.0236 -1.2993
56909SOL    HW275285   0.634   5.025   6.703  0.0949 -0.1504 -0.5466
56910SOL     OW75286   1.798   9.102   9.181 -0.4052 -0.2226 -0.6791
56910SOL    HW175287   1.738   9.060   9.242 -0.5743 -0.6992 -1.1648
56910SOL    HW275288   1.777   9.195   9.186 -2.1830 -0.5105 -1.9049
56911SOL     OW75289   1.500  10.144   6.189 -1.0551 -0.4165  0.7353
56911SOL    HW175290   1.438  10.184   6.128 -1.7116 -0.9620  1.0300
56911SOL    HW275291   1.449  10.129   6.269 -0.0491  0.8955  1.6656
56912SOL     OW75292   6.289   7.314   5.717 -0.0877 -0.5032  0.1746
56912SOL    HW175293   6.233   7.391   5.701  2.3361  1.8196  2.0063
56912SOL    HW275294   6.247   7.268   5.789  0.4707  1.4443  1.8194
56913SOL     OW75295   1.222   7.413   0.028 -0.2097  0.3997 -0.1891
56913SOL    HW175296   1.159   7.367   0.083  0.8766  1.1674  1.8385
56913SOL    HW275297   1.175   7.490  -0.005 -0.3628  1.0047  1.3572
56914SOL     OW75298   7.617   9.204   1.601  0.0150  0.6225  0.3296
56914SOL    HW175299   7.642   9.296   1.602 -2.5927  1.4567 -1.3381
56914SOL    HW275300   7.546   9.199   1.537 -0.0212 -2.5469  0.4562
56915SOL     OW75301   1.114   0.354  11.848 -0.5379 -0.0445  0.1536
56915SOL    HW175302   1.143   0.263  11.849  1.9867  0.6603 -1.4595
56915SOL    HW275303   1.018   0.349  11.846 -0.4381 -2.6866 -1.2120
56916SOL     OW75304   3.092  10.095   5.609  0.3924 -0.4200 -0.0996
56916SOL    HW175305   3.001  10.084   5.581  0.4856  1.1540 -1.1337
56916SOL    HW275306   3.119  10.008   5.639 -1.3147 -1.0014 -0.1537
56917SOL     OW75307   8.076   2.119  11.064  0.6428 -0.7530 -0.3992
56917SOL    HW175308   8.029   2.072  10.995  0.3594 -0.2609 -0.5429
56917SOL    HW275309   8.020   2.193  11.085  1.0739 -0.4982 -0.1462
56918SOL     OW75310   6.053  11.925   9.639  0.1061  0.0038  0.1434
56918SOL    HW175311   6.072  11.832   9.634  0.6278  0.0946  0.3039
56918SOL    HW275312   6.077  11.950   9.728  0.1528  0.3246  0.0429
56919SOL     OW75313  11.789   8.768   9.561 -0.0954 -0.4322  0.3019
56919SOL    HW175314  11.726   8.699   9.584  0.3839 -0.8634  0.3433
56919SOL    HW275315  11.760   8.800   9.475 -1.8268  1.0950  1.3701
56920SOL     OW75316   8.705   6.946   4.065 -0.0298  0.1516 -0.6388
56920SOL    HW175317   8.668   6.875   4.119 -0.3701  1.9158  1.5990
56920SOL    HW275318   8.743   7.006   4.128 -0.7998  2.5723 -2.3603
56921SOL     OW75319   8.441   6.424  10.030  0.1186  0.3505  0.0010
56921SOL    HW175320   8.350   6.440  10.056 -0.7674 -2.0441 -1.2827
56921SOL    HW275321   8.476   6.511  10.008 -2.7234  1.1282 -2.0649
56922SOL     OW75322   9.944   9.255  10.879  0.5692  0.6055  0.2548
56922SOL    HW175323   9.882   9.311  10.833 -0.4728  1.2990  2.3688
56922SOL    HW275324   9.995   9.315  10.934  1.0436 -0.2726  0.8033
56923SOL     OW75325   5.991  11.531  10.186  0.0781  0.2780 -0.1468
56923SOL    HW175326   5.981  11.517  10.280  0.6940  0.6416 -0.0178
56923SOL    HW275327   5.943  11.611  10.168 -2.6655 -1.3761 -0.7202
56924SOL     OW75328   0.469   2.594   4.114 -0.0831  0.0334 -0.1579
56924SOL    HW175329   0.498   2.652   4.044  0.3359 -1.9797 -1.7454
56924SOL    HW275330   0.373   2.597   4.110 -0.1139  1.8194  0.8909
56925SOL     OW75331  11.856   9.883   8.943 -0.0316 -0.2354  0.2409
56925SOL    HW175332  11.781   9.844   8.898 -0.1805  0.2723  0.0351
56925SOL    HW275333  11.821   9.962   8.984  0.7894  1.1548 -1.5723
56926SOL     OW75334   9.878   8.375  10.123 -0.2608 -0.5780 -0.5402
56926SOL    HW175335   9.853   8.325  10.045  0.1381 -2.2263  0.3711
56926SOL    HW275336   9.969   8.351  10.139  0.1051  0.8415 -0.3619
56927SOL     OW75337  10.867   7.169   2.353  0.1176 -0.1266  0.6989
56927SOL    HW175338  10.906   7.082   2.358  1.9198  0.4093 -2.1324
56927SOL    HW275339  10.919   7.222   2.413  1.1764 -0.3160 -0.0314
56928SOL     OW75340   3.876   5.691   8.973 -0.3385  0.2887  0.3764
56928SOL    HW175341   3.904   5.728   9.057 -3.1320 -0.1662  1.6117
56928SOL    HW275342   3.893   5.761   8.910  4.1876 -0.2203  0.6888
56929SOL     OW75343   2.436   4.219  10.988 -0.5835 -0.1403 -0.0801
56929SOL    HW175344   2.426   4.289  10.923  0.1072  1.3338  1.3372
56929SOL    HW275345   2.353   4.171  10.984 -1.3744  1.2120 -0.5744
56930SOL     OW75346   0.490   0.295   0.638  0.2064  0.7642  0.2657
56930SOL    HW175347   0.454   0.215   0.675  1.3187 -0.0063 -0.2670
56930SOL    HW275348   0.454   0.300   0.550 -1.9548  2.2798  1.1355
56931SOL     OW75349   0.883   1.873   9.189  0.3665  0.0858  0.1781
56931SOL    HW175350   0.871   1.779   9.200 -0.4877  0.2384  0.6497
56931SOL    HW275351   0.854   1.911   9.272  1.2292  0.7292  0.2001
56932SOL     OW75352   8.527   3.467   4.650 -0.0969 -0.0660 -0.1608
56932SOL    HW175353   8.552   3.494   4.561 -0.1413  0.8713  0.1016
56932SOL    HW275354   8.562   3.378   4.658  2.1387  0.7289 -0.2268
56933SOL     OW75355   8.910   2.009   4.624 -0.7447  0.1683 -0.7417
56933SOL    HW175356   8.839   2.037   4.682  0.5977  1.1793  0.4718
56933SOL    HW275357   8.946   2.090   4.588 -0.4207 -0.3574 -1.6358
56934SOL     OW75358   4.270   7.090   7.838  0.2199  0.0273  0.0103
56934SOL    HW175359   4.184   7.100   7.879 -0.4304 -2.4215 -0.6221
56934SOL    HW275360   4.291   6.997   7.847  1.7958  0.1478 -1.8026
56935SOL     OW75361  11.644   2.378   8.055 -0.0453 -0.1752 -0.1886
56935SOL    HW175362  11.577   2.404   7.992 -0.4071  1.3824  0.7650
56935SOL    HW275363  11.647   2.283   8.050  0.9705 -0.0787 -3.5786
56936SOL     OW75364   9.885   5.395   9.862  0.8550 -0.2598 -0.4790
56936SOL    HW175365   9.881   5.490   9.852  0.8987 -0.4124 -2.3440
56936SOL    HW275366   9.929   5.365   9.783 -0.4639 -1.9377 -0.6232
56937SOL     OW75367   0.746   9.558  11.781  0.0862  0.5196 -0.3315
56937SOL    HW175368   0.828   9.586  11.743  0.1610  0.3781 -0.2761
56937SOL    HW275369   0.730   9.472  11.743  0.2331  0.3163  0.0621
56938SOL     OW75370   9.849   6.736  11.255  0.1703 -0.1698  0.2786
56938SOL    HW175371   9.763   6.776  11.270 -0.1112 -0.7824  0.3469
56938SOL    HW275372   9.911   6.808  11.262 -0.3060  0.2109  0.6406
56939SOL     OW75373   2.544  10.665   2.426  0.3746  0.0799  0.3702
56939SOL    HW175374   2.584  10.710   2.352 -0.5921  1.3331  0.5781
56939SOL    HW275375   2.575  10.712   2.503 -0.3200  0.1383  0.6232
56940SOL     OW75376   6.558   5.097   7.292  0.4213 -0.3180  0.2884
56940SOL    HW175377   6.489   5.083   7.227  1.5230 -0.5096 -0.8873
56940SOL    HW275378   6.511   5.115   7.373 -1.1502  3.3324 -1.1685
56941SOL     OW75379   1.519  11.696   7.180 -1.0034 -0.2055  0.3605
56941SOL    HW175380   1.448  11.636   7.158 -1.3133 -0.0331  0.8756
56941SOL    HW275381   1.564  11.654   7.252  0.1827 -0.9029 -0.7423
56942SOL     OW75382  10.283   6.969   2.233  0.3008  0.1142 -0.3294
56942SOL    HW175383  10.371   6.960   2.196 -0.7449  0.2931 -3.1127
56942SOL    HW275384  10.265   6.884   2.273  1.5293 -0.0838 -0.1477
56943SOL     OW75385   5.544   2.781   3.873  0.7988  0.2508  0.0129
56943SOL    HW175386   5.551   2.876   3.885  0.3425  0.2334  0.4447
56943SOL    HW275387   5.450   2.766   3.862  0.8979 -0.1215 -0.3368
56944SOL     OW75388  11.633   2.974   3.394 -0.0728 -0.1569  0.4988
56944SOL    HW175389  11.618   3.022   3.312 -0.1324 -2.0391 -0.6427
56944SOL    HW275390  11.672   3.039   3.453  0.8313  1.0186 -1.3023
56945SOL     OW75391   6.038   2.626   5.880  0.7618  0.0783  0.0525
56945SOL    HW175392   6.056   2.532   5.877  3.2145  0.5021 -0.0528
56945SOL    HW275393   5.943   2.631   5.894  0.5254 -2.3915 -0.1786
56946SOL     OW75394  11.197   9.787   3.748 -0.0626  0.2025  0.3404
56946SOL    HW175395  11.287   9.793   3.777 -0.1814  0.1351  0.7296
56946SOL    HW275396  11.145   9.808   3.826 -0.4010 -1.1102  0.4889
56947SOL     OW75397  11.629   6.584   1.313 -0.2682 -0.4845  0.0715
56947SOL    HW175398  11.639   6.491   1.335 -1.6949 -0.2296  2.1265
56947SOL    HW275399  11.697   6.601   1.248  0.7793 -2.7012  0.4918
56948SOL     OW75400   7.370   1.522   8.892  0.2590 -0.1020 -0.2861
56948SOL    HW175401   7.342   1.593   8.950  0.2456 -0.2383 -0.1235
56948SOL    HW275402   7.358   1.557   8.803 -1.8966 -0.6751 -0.2788
56949SOL     OW75403   1.665  11.180   7.862 -0.1690 -0.1134  0.2577
56949SOL    HW175404   1.645  11.088   7.849  1.2320 -0.4444  0.2942
56949SOL    HW275405   1.660  11.192   7.957 -1.9229  0.2563  0.1525
56950SOL     OW75406   1.563  11.655   0.793 -0.4728 -0.5606  0.4959
56950SOL    HW175407   1.588  11.740   0.757 -0.8213  0.0089  1.5480
56950SOL    HW275408   1.486  11.629   0.742  0.5128 -0.9722 -0.8348
56951SOL     OW75409   5.537   6.659   4.596  0.1508 -0.0301  0.0403
56951SOL    HW175410   5.470   6.676   4.663 -0.8720 -0.1353 -0.9200
56951SOL    HW275411   5.564   6.569   4.611  0.2748  0.1003  0.6054
56952SOL     OW75412   0.867   0.967   2.509  0.2599 -0.2084 -0.1257
56952SOL    HW175413   0.777   0.986   2.536 -0.1696 -1.2575 -0.7391
56952SOL    HW275414   0.920   1.036   2.549 -0.5493 -0.7250  1.9592
56953SOL     OW75415   0.049   7.783   7.342  0.1453  0.5141  0.3876
56953SOL    HW175416  -0.043   7.785   7.369 -0.0303  0.2843 -0.1793
56953SOL    HW275417   0.066   7.872   7.309  0.0137  0.4478  0.1366
56954SOL     OW75418   6.421   0.877   3.468 -0.1780 -0.8268 -0.1067
56954SOL    HW175419   6.352   0.841   3.412 -0.9647  0.1111  0.2330
56954SOL    HW275420   6.382   0.879   3.556 -0.5811  1.8039 -0.2765
56955SOL     OW75421   1.406   0.031   2.404  0.1205  0.0169 -0.4634
56955SOL    HW175422   1.405  -0.060   2.373 -0.5474 -0.4084  0.7307
56955SOL    HW275423   1.474   0.032   2.473 -0.3916  0.2258  0.0454
56956SOL     OW75424  10.868   5.532   6.927 -0.1879 -0.0242 -0.1707
56956SOL    HW175425  10.783   5.496   6.952  0.0712 -1.0315 -0.7190
56956SOL    HW275426  10.846   5.609   6.874 -0.7619 -0.2165 -0.2248
56957SOL     OW75427   7.152  10.506   0.613 -0.4737  0.0945  0.2022
56957SOL    HW175428   7.236  10.545   0.588 -1.2538  2.3042  0.8321
56957SOL    HW275429   7.139  10.435   0.550  2.7788 -1.6960  1.2998
56958SOL     OW75430   7.949   3.758   7.851 -1.0770  0.2248  0.0660
56958SOL    HW175431   7.950   3.844   7.810 -3.2787 -0.0829 -0.7451
56958SOL    HW275432   7.871   3.759   7.906 -1.3108 -1.3572 -0.2095
56959SOL     OW75433  11.738   4.738   9.177  0.0616 -0.4642 -0.1065
56959SOL    HW175434  11.649   4.728   9.210 -0.1422  1.0392 -0.1090
56959SOL    HW275435  11.786   4.779   9.249  0.6124 -0.7536 -0.3003
56960SOL     OW75436   8.401   0.905   1.593  0.2794 -0.3004 -0.2425
56960SOL    HW175437   8.400   0.811   1.578 -1.6647 -0.3292 -0.2068
56960SOL    HW275438   8.387   0.944   1.507  3.3339  0.1052 -0.6607
56961SOL     OW75439  10.249   1.016   8.813  0.1557  0.5183 -0.3153
56961SOL    HW175440  10.304   0.942   8.837  1.1138  1.3095 -0.0441
56961SOL    HW275441  10.268   1.030   8.720 -3.0459 -2.1125 -1.5580
56962SOL     OW75442   9.908   5.121   9.009  0.3484  0.2908 -0.4615
56962SOL    HW175443   9.848   5.047   9.003  1.6588 -1.0823  1.6574
56962SOL    HW275444   9.854   5.193   9.041 -0.3416 -0.7902  0.9909
56963SOL     OW75445   6.339   0.251   3.867  0.1726 -0.9305  0.2261
56963SOL    HW175446   6.394   0.238   3.790 -0.6541  1.2344 -0.7832
56963SOL    HW275447   6.253   0.217   3.842 -0.5589  1.2897 -0.5008
56964SOL     OW75448   8.377   3.396   0.171  0.0820 -0.6491 -0.2781
56964SOL    HW175449   8.361   3.303   0.185 -1.2244 -0.1155  2.6311
56964SOL    HW275450   8.470   3.402   0.151  0.6724 -2.4488  1.5983
56965SOL     OW75451   5.125   2.371   1.438 -0.2787  0.5087  0.1090
56965SOL    HW175452   5.219   2.355   1.432 -0.2773  0.5665 -0.0236
56965SOL    HW275453   5.095   2.370   1.347 -0.9631 -2.9868  0.2073
56966SOL     OW75454  11.646   1.501   7.766  0.4702  0.3624 -0.1469
56966SOL    HW175455  11.735   1.475   7.745  0.9184  2.8679 -1.8992
56966SOL    HW275456  11.592   1.429   7.735  1.7948 -0.4675 -0.6240
56967SOL     OW75457   8.352  11.385   7.195  0.4340 -0.6137  0.0129
56967SOL    HW175458   8.276  11.406   7.250  1.2856  2.0158  0.3568
56967SOL    HW275459   8.419  11.356   7.257  0.6751  0.1703  0.1404
56968SOL     OW75460   5.670   3.584   0.268  0.2408  0.4175 -0.1941
56968SOL    HW175461   5.657   3.674   0.237  1.5102  0.6570 -0.1190
56968SOL    HW275462   5.584   3.544   0.262 -0.2647  1.5089 -0.6583
56969SOL     OW75463   5.113   7.077   7.551  0.2097  0.2186 -0.2773
56969SOL    HW175464   5.100   7.016   7.624 -1.7564  0.2128 -0.5778
56969SOL    HW275465   5.193   7.124   7.573  0.5995 -0.9868  1.0155
56970SOL     OW75466   1.182   4.261   5.714  0.6485  0.0386  0.2653
56970SOL    HW175467   1.249   4.326   5.690  0.9093 -0.8276 -1.5939
56970SOL    HW275468   1.228   4.199   5.771  0.9223  0.4399  0.4859
56971SOL     OW75469   3.216   3.572   3.176  0.4511 -0.6942  0.4366
56971SOL    HW175470   3.260   3.619   3.105 -1.3391  0.0041 -0.2501
56971SOL    HW275471   3.286   3.555   3.239  1.2199  3.3963  0.9862
56972SOL     OW75472   4.891  11.941   6.429  0.3460 -0.5217 -0.4311
56972SOL    HW175473   4.906  11.943   6.523 -0.5137  1.2534 -0.2997
56972SOL    HW275474   4.830  12.012   6.412 -0.6861 -1.7395 -2.1549
56973SOL     OW75475   7.681  10.555   4.624  0.3294 -0.1236 -0.1702
56973SOL    HW175476   7.657  10.512   4.706  1.2362  1.4231  0.9605
56973SOL    HW275477   7.768  10.521   4.604  0.6575  0.4737  0.2249
56974SOL     OW75478   7.333  12.039   9.769 -0.1511 -0.9423 -0.3899
56974SOL    HW175479   7.285  12.030   9.852  0.8058 -0.2036  0.2624
56974SOL    HW275480   7.425  12.032   9.794  0.3205  2.1685 -0.9320
56975SOL     OW75481  10.329   9.795   0.047 -0.5213  0.4305  0.8281
56975SOL    HW175482  10.330   9.865   0.113 -0.2668  1.4456 -0.2337
56975SOL    HW275483  10.256   9.817  -0.010  1.1312  1.3282 -1.0556
56976SOL     OW75484   4.788   7.980   3.045 -0.8641 -0.7825  0.7425
56976SOL    HW175485   4.846   7.944   3.112 -1.0196 -2.2908  0.1182
56976SOL    HW275486   4.700   7.971   3.082 -0.9811 -1.9669  0.2087
56977SOL     OW75487  11.086  11.237   9.231 -0.3646  0.4716 -0.4884
56977SOL    HW175488  11.120  11.242   9.141  1.0324  0.2458 -0.0023
56977SOL    HW275489  11.141  11.298   9.280 -1.6242  1.1835  0.0846
56978SOL     OW75490   4.249   5.247   6.187  0.1739 -0.0025 -0.0418
56978SOL    HW175491   4.164   5.234   6.145 -0.5473 -1.4646  1.7450
56978SOL    HW275492   4.231   5.237   6.281  2.1725  0.5346  0.4417
56979SOL     OW75493   3.240   9.537   7.413 -0.0188 -0.2192  0.1357
56979SOL    HW175494   3.274   9.618   7.449  0.7115 -0.6362  0.3962
56979SOL    HW275495   3.316   9.493   7.375 -0.2762 -1.1004  0.6114
56980SOL     OW75496   7.140   6.239   7.353 -0.1222  0.0730  0.4588
56980SOL    HW175497   7.053   6.199   7.356 -0.1385 -0.1134 -1.5097
56980SOL    HW275498   7.145   6.292   7.433 -1.1599 -1.6728  1.7402
56981SOL     OW75499   6.391   9.601  10.433  0.0557  0.2176  0.4332
56981SOL    HW175500   6.476   9.597  10.389  0.2500 -0.6663  0.8589
56981SOL    HW275501   6.379   9.693  10.454  0.3349  0.5335 -0.7185
56982SOL     OW75502   8.687   1.559   4.011  0.5356 -0.0313  0.3420
56982SOL    HW175503   8.671   1.647   3.979 -0.2417 -1.0322 -2.2975
56982SOL    HW275504   8.764   1.529   3.963 -0.2230 -1.3628 -0.1047
56983SOL     OW75505   7.612  10.447  11.000 -0.2162 -0.6124  0.2790
56983SOL    HW175506   7.642  10.394  10.926 -1.5779 -0.0479 -0.7199
56983SOL    HW275507   7.692  10.480  11.040  0.5642 -1.3002 -0.6749
56984SOL     OW75508   4.035   2.447   9.436  0.0489 -0.1834  0.1580
56984SOL    HW175509   4.108   2.490   9.481 -0.0235 -1.9558  2.1106
56984SOL    HW275510   4.078   2.387   9.375  0.1510  1.0457 -1.0360
56985SOL     OW75511   5.224   2.544   5.462  0.6268  0.1988 -0.4867
56985SOL    HW175512   5.177   2.569   5.542  0.1663  0.4390 -0.8331
56985SOL    HW275513   5.265   2.625   5.432  0.7285  0.1243 -0.5508
56986SOL     OW75514   3.889  10.893   7.716 -0.1019 -0.2688 -0.1706
56986SOL    HW175515   3.923  10.827   7.655  2.7828  0.3690  0.5711
56986SOL    HW275516   3.867  10.968   7.662  1.5595 -0.0363 -0.5699
56987SOL     OW75517   9.777   5.922   6.201  0.6303 -0.4840  0.3496
56987SOL    HW175518   9.765   6.017   6.205 -0.9968 -0.6948  1.6343
56987SOL    HW275519   9.862   5.907   6.244  2.3320  0.5354 -2.3714
56988SOL     OW75520   1.024   0.837   7.301  0.0965 -0.2355 -1.0646
56988SOL    HW175521   1.094   0.900   7.284  0.1654  0.0651  0.2711
56988SOL    HW275522   1.068   0.755   7.322  0.1679  0.4322  1.7426
56989SOL     OW75523   2.552   0.498   6.958  0.0150 -0.0691  0.8354
56989SOL    HW175524   2.571   0.571   7.017  1.7677  1.6480 -1.6514
56989SOL    HW275525   2.470   0.523   6.915  0.0438 -0.0852  0.7709
56990SOL     OW75526   4.367   4.905   5.948  0.3357  0.0383  0.2492
56990SOL    HW175527   4.285   4.943   5.979 -1.0172 -1.7782 -0.9005
56990SOL    HW275528   4.350   4.884   5.856  2.5932  0.8940 -0.4283
56991SOL     OW75529   9.978   1.678   6.344 -0.6133  0.4589 -0.2269
56991SOL    HW175530  10.035   1.648   6.273  0.9926  0.8154  0.8590
56991SOL    HW275531  10.002   1.624   6.419 -2.1643  0.2000  0.1229
56992SOL     OW75532   8.358   2.393  11.606 -0.6805  0.6214  0.3977
56992SOL    HW175533   8.304   2.427  11.677 -1.9039 -1.9216  0.8099
56992SOL    HW275534   8.342   2.298  11.607  0.6845  0.2699 -2.0969
56993SOL     OW75535   6.294   0.786   8.459 -0.0304 -0.0562  0.0288
56993SOL    HW175536   6.244   0.750   8.532 -0.6755  1.2865  0.2778
56993SOL    HW275537   6.372   0.824   8.499  0.2514 -0.4480 -0.1399
56994SOL     OW75538   1.410   1.539  10.311  0.0505 -0.1589  0.2032
56994SOL    HW175539   1.383   1.516  10.221  1.4965 -1.2862  0.0369
56994SOL    HW275540   1.428   1.456  10.353  1.4097  0.4651  0.9032
56995SOL     OW75541   9.361   2.213  10.821  0.5059  0.4792  0.4987
56995SOL    HW175542   9.383   2.177  10.736 -0.5579  0.0037  0.4106
56995SOL    HW275543   9.363   2.308  10.808 -0.6394  0.4018 -0.3251
56996SOL     OW75544   5.014   6.596   1.965 -0.2998  0.1055 -0.4099
56996SOL    HW175545   4.988   6.686   1.944 -0.5886  0.2586  0.5553
56996SOL    HW275546   5.090   6.606   2.022  1.1485 -0.3213 -2.1672
56997SOL     OW75547  12.049   5.248   5.372  0.4428  0.4783 -0.6231
56997SOL    HW175548  12.021   5.156   5.369 -0.1089  0.6456 -0.8517
56997SOL    HW275549  12.004   5.284   5.448  1.1257  0.4208 -0.1810
56998SOL     OW75550  10.346  11.567   7.433  0.0091 -0.1358  0.1739
56998SOL    HW175551  10.377  11.657   7.446  0.0759  0.0075 -0.8712
56998SOL    HW275552  10.251  11.576   7.421  0.0410 -0.1771 -0.1211
56999SOL     OW75553   1.365   6.069   3.600  0.3794  0.1001 -0.1736
56999SOL    HW175554   1.449   6.085   3.557  0.0789 -0.3730 -0.9587
56999SOL    HW275555   1.353   5.974   3.594  0.0771  0.0925  0.4894
57000SOL     OW75556   4.621   7.686   6.555 -0.9132 -1.0408  0.7669
57000SOL    HW175557   4.618   7.737   6.635  0.6253 -2.4794  1.7959
57000SOL    HW275558   4.636   7.596   6.583  0.2319 -1.5163 -1.1304
57001SOL     OW75559   6.026   9.168  11.829  0.2945 -0.0137  0.0390
57001SOL    HW175560   6.031   9.121  11.746 -0.7949  2.5733 -1.6103
57001SOL    HW275561   6.093   9.236  11.822  0.7366 -0.2505  1.6510
57002SOL     OW75562   9.261   9.705   2.908 -0.1762  0.1645  0.8611
57002SOL    HW175563   9.354   9.685   2.919  0.3940  1.3109 -1.2415
57002SOL    HW275564   9.221   9.621   2.887  1.0953  0.1237 -1.8482
57003SOL     OW75565  10.918   6.380   3.581  0.0766  0.1711  0.2450
57003SOL    HW175566  10.948   6.289   3.583 -3.3198 -1.0748  0.5021
57003SOL    HW275567  10.834   6.379   3.628  0.5873  3.7627  1.5967
57004SOL     OW75568  10.164   1.327   6.846 -0.6799  0.2324  0.1474
57004SOL    HW175569  10.256   1.343   6.864 -0.5672 -2.3864  2.5791
57004SOL    HW275570  10.120   1.409   6.867  1.1103  1.8451 -2.0115
57005SOL     OW75571  11.802   8.751  11.957  0.0216  0.0170  0.0443
57005SOL    HW175572  11.889   8.712  11.966 -0.0376  0.3214  2.7963
57005SOL    HW275573  11.796   8.812  12.031 -2.6286 -0.2039  0.0852
57006SOL     OW75574   7.187   9.705   4.877 -0.6335 -0.0042 -0.0390
57006SOL    HW175575   7.216   9.796   4.878  1.4344 -0.5937  2.3004
57006SOL    HW275576   7.175   9.685   4.784  1.2606  1.9529 -0.7760
57007SOL     OW75577   4.871   0.116   9.147 -0.0850 -0.3028 -0.0706
57007SOL    HW175578   4.854   0.165   9.067  1.9648  0.9793  0.1961
57007SOL    HW275579   4.855   0.180   9.217 -0.2126 -0.9025  0.4520
57008SOL     OW75580   8.528   0.519  10.718  0.1892 -0.2405 -0.3080
57008SOL    HW175581   8.520   0.450  10.784 -0.3185 -1.5140 -1.6621
57008SOL    HW275582   8.619   0.513  10.688  0.5580  0.6515  0.5657
57009SOL     OW75583  10.790   0.888  11.275 -0.0928 -0.0687 -0.3006
57009SOL    HW175584  10.811   0.798  11.251  0.4161 -0.3985  1.3091
57009SOL    HW275585  10.694   0.890  11.280 -0.0611 -0.9007  1.0132
57010SOL     OW75586   5.825   7.395  11.502  0.5852  0.3031 -0.0022
57010SOL    HW175587   5.851   7.391  11.595 -1.4978  1.0619  0.6663
57010SOL    HW275588   5.821   7.489  11.483 -0.9100  0.2076 -0.2624
57011SOL     OW75589   9.397   8.342   2.785 -0.6854  0.1941 -1.0020
57011SOL    HW175590   9.450   8.417   2.812 -1.0319  0.0133  0.2687
57011SOL    HW275591   9.307   8.375   2.787 -1.0918 -0.7999  1.8686
57012SOL     OW75592   5.963   7.680   1.365  0.1559  0.1306 -0.5205
57012SOL    HW175593   6.056   7.663   1.348 -0.0992  0.2190 -2.1946
57012SOL    HW275594   5.923   7.681   1.278 -1.2348  1.2120  0.0977
57013SOL     OW75595   1.489   4.157   0.308 -0.3010  0.0732  0.3259
57013SOL    HW175596   1.483   4.252   0.305 -1.9396  0.0092  0.8308
57013SOL    HW275597   1.582   4.139   0.294 -0.1598  1.6760 -1.2159
57014SOL     OW75598  10.007   4.685   5.994 -0.4582 -0.0571  0.0469
57014SOL    HW175599   9.961   4.621   6.049 -0.6466 -2.2671 -2.4972
57014SOL    HW275600   9.973   4.770   6.023 -2.3057 -1.2697  1.6855
57015SOL     OW75601   8.385   0.340   0.949  0.4125 -0.1924  0.3365
57015SOL    HW175602   8.462   0.285   0.967  2.7074  2.2413 -1.3877
57015SOL    HW275603   8.356   0.313   0.862 -0.2240 -0.5219  0.6376
57016SOL     OW75604   0.557   6.981   7.868  0.0836  0.3905  0.1366
57016SOL    HW175605   0.489   6.978   7.935 -0.7354 -3.3268 -0.6363
57016SOL    HW275606   0.639   6.974   7.917 -0.2993  0.9641  0.8772
57017SOL     OW75607   5.473  10.526  11.150  0.1935  0.6322  0.0315
57017SOL    HW175608   5.525  10.591  11.196  1.1668  0.3937 -0.6884
57017SOL    HW275609   5.384  10.539  11.181  0.9168 -0.1247  2.6854
57018SOL     OW75610   4.854   0.410   2.242 -0.0597  0.8304 -0.4636
57018SOL    HW175611   4.901   0.377   2.319 -1.3917 -2.4693 -0.9283
57018SOL    HW275612   4.762   0.409   2.268 -0.4509  0.5247 -1.7970
57019SOL     OW75613   5.801   8.429  10.981  0.3230  0.0544  0.4250
57019SOL    HW175614   5.847   8.349  10.952  0.4664 -0.6551  2.4588
57019SOL    HW275615   5.871   8.493  10.994  0.4464 -0.1417  0.7560
57020SOL     OW75616  10.323  11.869  11.813  0.1171 -0.1051 -0.0268
57020SOL    HW175617  10.245  11.838  11.859 -1.3567 -0.6098 -2.6605
57020SOL    HW275618  10.315  11.964  11.813 -0.7031 -0.1652 -0.5577
57021SOL     OW75619   1.220   9.294  10.257 -0.2203 -0.1411 -0.2222
57021SOL    HW175620   1.280   9.222  10.238 -0.1982 -0.2580  0.2808
57021SOL    HW275621   1.249   9.365  10.199 -0.8620 -0.8517 -1.4443
57022SOL     OW75622   5.127  11.618   7.216 -0.2854  0.3971 -0.0943
57022SOL    HW175623   5.071  11.681   7.170 -0.8957 -1.9319 -2.8942
57022SOL    HW275624   5.067  11.573   7.276 -0.3760  0.8424  0.1581
57023SOL     OW75625  10.862   1.828   1.323  0.7379 -0.7806  0.3108
57023SOL    HW175626  10.852   1.857   1.413  1.0097 -1.0255  0.4216
57023SOL    HW275627  10.811   1.747   1.318  0.7323 -0.7734  0.2470
57024SOL     OW75628   2.233   4.909   5.197  0.1553 -0.4616 -0.8478
57024SOL    HW175629   2.213   4.840   5.134 -1.9165 -0.1156 -0.6487
57024SOL    HW275630   2.239   4.864   5.281 -0.6705 -0.4775 -0.7930
57025SOL     OW75631   7.225   9.390  10.979  0.2817 -0.3931  0.3555
57025SOL    HW175632   7.288   9.390  10.907  0.1944 -1.2397  0.2712
57025SOL    HW275633   7.231   9.302  11.016 -2.3587 -1.2457 -0.9901
57026SOL     OW75634   5.590   3.160   0.025 -0.8562 -0.3696  0.3551
57026SOL    HW175635   5.497   3.169   0.044 -0.6333  1.1959  0.8288
57026SOL    HW275636   5.633   3.172   0.110 -0.1560  0.3332 -0.0892
57027SOL     OW75637   0.365   8.235   4.087  0.7647 -0.0611  0.4731
57027SOL    HW175638   0.405   8.222   4.001  2.0860  0.4090  0.9898
57027SOL    HW275639   0.330   8.148   4.111  1.3076 -0.4366 -0.0864
57028SOL     OW75640   1.697   3.697   8.318  0.4167 -0.1240  0.4910
57028SOL    HW175641   1.697   3.616   8.369  1.5319  0.9570  2.2999
57028SOL    HW275642   1.703   3.668   8.227 -0.6821 -2.0943  0.9794
57029SOL     OW75643   3.167   0.814   3.268 -0.4695 -0.3013  0.4910
57029SOL    HW175644   3.182   0.744   3.331 -0.2491 -0.6457  0.0562
57029SOL    HW275645   3.180   0.774   3.182 -1.2810  0.0380  0.1973
57030SOL     OW75646   1.880  11.560   8.036 -0.1798  0.7522  0.2987
57030SOL    HW175647   1.890  11.513   7.954  0.5202  0.0437  0.7754
57030SOL    HW275648   1.798  11.527   8.074  1.4250 -1.8879  1.7338
57031SOL     OW75649   7.709  10.261   7.063 -0.1246  0.4772  0.1845
57031SOL    HW175650   7.653  10.338   7.055 -0.0576  0.5919  0.7966
57031SOL    HW275651   7.648  10.187   7.057 -0.2886  0.5933  0.3830
57032SOL     OW75652   1.019  11.924   4.810 -0.1758  0.2776 -0.1274
57032SOL    HW175653   1.015  11.882   4.725 -3.4383  0.1749 -0.0592
57032SOL    HW275654   1.093  11.985   4.804  1.8079 -2.0817 -1.7839
57033SOL     OW75655   1.826   4.659   7.943 -0.1905 -0.2321 -0.1221
57033SOL    HW175656   1.794   4.569   7.932  1.6976 -1.0167  0.4116
57033SOL    HW275657   1.919   4.649   7.965 -0.1292  1.8300  0.7832
57034SOL     OW75658   3.672  10.769   8.462  0.6982 -0.1264  0.1084
57034SOL    HW175659   3.588  10.813   8.476  1.0507  0.7126 -0.3163
57034SOL    HW275660   3.678  10.758   8.367  0.5671 -1.2221  0.2136
57035SOL     OW75661   0.803  11.472   6.771  0.2351 -0.0586 -0.1475
57035SOL    HW175662   0.879  11.418   6.750 -0.5642 -1.2831 -0.0132
57035SOL    HW275663   0.754  11.420   6.835 -0.3334  1.0364  0.3370
57036SOL     OW75664   6.701   5.044   6.448 -0.2044 -0.2928 -0.4109
57036SOL    HW175665   6.732   5.080   6.365 -0.1432 -2.2335 -1.2919
57036SOL    HW275666   6.780   5.038   6.502 -0.2740  1.1497 -0.1026
57037SOL     OW75667   2.474   9.134   6.301  0.0844  0.0995  0.1330
57037SOL    HW175668   2.532   9.195   6.347  1.7224 -0.8654 -0.5858
57037SOL    HW275669   2.486   9.050   6.346  0.1673 -0.3881 -0.7841
57038SOL     OW75670   1.565   9.417  10.625 -0.4749  0.1448 -0.0198
57038SOL    HW175671   1.607   9.333  10.610 -1.1828 -0.1952 -0.1454
57038SOL    HW275672   1.573   9.433  10.719  1.9946  1.2088 -0.3389
57039SOL     OW75673  10.060   0.735   1.319  0.0330 -0.6853 -0.1677
57039SOL    HW175674  10.011   0.811   1.288  0.3769 -0.3451  0.1030
57039SOL    HW275675  10.146   0.743   1.277 -0.3058 -1.5585 -1.0531
57040SOL     OW75676   7.098   2.264   2.559  0.1647  0.1806 -0.1413
57040SOL    HW175677   7.089   2.323   2.634 -0.5801  0.6420 -0.5874
57040SOL    HW275678   7.146   2.189   2.594  0.2724  0.6179  0.6729
57041SOL     OW75679   3.903  11.381   1.581  0.5437  0.1235  0.0608
57041SOL    HW175680   3.938  11.469   1.599  1.4705 -0.2427  0.1003
57041SOL    HW275681   3.811  11.386   1.608  0.0943  1.5988 -1.5550
57042SOL     OW75682   2.168   0.469   9.844  0.0037  0.8799  0.1888
57042SOL    HW175683   2.132   0.553   9.816  1.1544  1.0036 -1.0400
57042SOL    HW275684   2.144   0.408   9.774  2.8369  1.1640 -1.2077
57043SOL     OW75685   6.396   1.963   3.724 -1.1103  0.2891  0.1587
57043SOL    HW175686   6.400   1.978   3.819 -1.3473  1.7518 -0.0539
57043SOL    HW275687   6.303   1.950   3.706 -1.5382  3.3018 -0.3078
57044SOL     OW75688  10.359   2.005  10.708  0.2948  0.3019 -0.2001
57044SOL    HW175689  10.433   2.047  10.663  0.5340  1.6753  1.3540
57044SOL    HW275690  10.283   2.059  10.685 -0.0387 -0.4414 -0.8867
57045SOL     OW75691   0.219   3.207   3.060 -0.3939 -0.0285  0.5332
57045SOL    HW175692   0.177   3.124   3.079 -1.1674 -0.1183 -1.3573
57045SOL    HW275693   0.215   3.215   2.965 -0.2203  2.1076  0.6492
57046SOL     OW75694   5.773   1.139   6.915  0.1551  0.1018 -0.3950
57046SOL    HW175695   5.745   1.229   6.897  0.8482  0.0527 -1.8410
57046SOL    HW275696   5.708   1.085   6.869 -0.4541 -0.1648  0.7490
57047SOL     OW75697   8.696   1.310   7.844 -0.2950  0.0338  0.7016
57047SOL    HW175698   8.635   1.245   7.812 -1.7285  1.6066  0.0865
57047SOL    HW275699   8.667   1.328   7.933 -0.7422  0.7551  0.4209
57048SOL     OW75700  10.824   2.763   1.420 -0.1276 -0.3278 -0.3269
57048SOL    HW175701  10.821   2.859   1.426 -2.2574 -0.1688 -2.3911
57048SOL    HW275702  10.745   2.734   1.465  0.7867 -1.2040  0.7769
57049SOL     OW75703   8.291   1.760   2.014  0.1375 -0.3850 -0.4583
57049SOL    HW175704   8.317   1.722   1.930 -2.1181  0.0364 -1.4089
57049SOL    HW275705   8.310   1.853   2.005 -0.9243 -0.1955 -0.8742
57050SOL     OW75706   1.702   3.220   2.043 -0.3869  0.3290 -0.1788
57050SOL    HW175707   1.673   3.163   2.114 -0.4042 -1.1728 -1.3461
57050SOL    HW275708   1.636   3.289   2.039 -0.5813  0.2313  1.0135
57051SOL     OW75709   9.965  10.696   8.695 -0.1991 -0.5206  0.4868
57051SOL    HW175710  10.046  10.698   8.747 -0.5104  0.6547  0.9751
57051SOL    HW275711   9.955  10.605   8.669  0.5944 -0.9247  1.5223
57052SOL     OW75712   4.229   1.041   1.020  0.2852  0.4617 -0.1749
57052SOL    HW175713   4.193   1.075   0.938  2.1912 -1.9419 -2.1627
57052SOL    HW275714   4.165   0.978   1.051  0.5814 -0.3186 -1.1124
57053SOL     OW75715   5.776   5.078   1.833  0.0043  0.0288 -0.2201
57053SOL    HW175716   5.854   5.133   1.822  0.0911 -0.1784 -0.6680
57053SOL    HW275717   5.755   5.085   1.926 -0.1323  1.0098 -0.3139
57054SOL     OW75718   1.855   5.771   1.792 -0.6499 -0.1385  0.4694
57054SOL    HW175719   1.943   5.809   1.794 -0.5777 -0.2473 -0.2530
57054SOL    HW275720   1.799   5.842   1.762 -0.8612  0.0253  1.2545
57055SOL     OW75721  11.046  11.413   1.827 -0.1189 -0.4459  0.1492
57055SOL    HW175722  11.123  11.430   1.773  0.1158  1.1197  0.9509
57055SOL    HW275723  10.977  11.391   1.763  0.6963 -0.7732 -0.6391
57056SOL     OW75724  11.535   8.719   8.803  0.2843 -0.4237 -0.1390
57056SOL    HW175725  11.597   8.720   8.876  3.2354 -1.0502 -2.4471
57056SOL    HW275726  11.513   8.626   8.791 -1.1363 -0.2159  0.6099
57057SOL     OW75727   8.144   6.504   2.364 -0.4849  0.4680 -0.1950
57057SOL    HW175728   8.140   6.481   2.272 -0.3961  0.4495 -0.1940
57057SOL    HW275729   8.104   6.430   2.409  1.3821 -0.5149 -0.0518
57058SOL     OW75730   0.055   2.766   9.069  0.0041  0.7720 -0.0217
57058SOL    HW175731   0.134   2.791   9.020  0.7133  1.8927  1.6220
57058SOL    HW275732  -0.007   2.837   9.054 -0.9327 -0.3280 -1.6942
57059SOL     OW75733   5.350  10.552   3.063  0.1464  0.3199  1.1447
57059SOL    HW175734   5.295  10.608   3.118 -1.9572 -0.6009  0.1117
57059SOL    HW275735   5.297  10.537   2.984  0.7469 -2.7864  1.1996
57060SOL     OW75736   9.707   0.125   9.826 -0.2036  0.0239  0.4668
57060SOL    HW175737   9.748   0.055   9.776 -2.3613 -0.3860 -0.8709
57060SOL    HW275738   9.697   0.090   9.915 -0.6511 -1.1343 -0.0283
57061SOL     OW75739   8.775   8.763   2.843  0.2932  0.3429 -0.3619
57061SOL    HW175740   8.812   8.682   2.877 -0.3749 -0.0201 -0.4850
57061SOL    HW275741   8.851   8.816   2.820  0.7412 -0.6734 -1.3094
57062SOL     OW75742  11.582  10.082   1.825  0.2738 -0.6958 -0.1456
57062SOL    HW175743  11.538  10.053   1.905 -1.1696 -1.1315 -1.0548
57062SOL    HW275744  11.665  10.034   1.824  1.5225  1.2242  2.3439
57063SOL     OW75745   8.382  11.299   2.269  0.2894 -0.3955  0.8710
57063SOL    HW175746   8.410  11.325   2.357  0.4569  0.1908  0.6489
57063SOL    HW275747   8.449  11.333   2.211 -0.2666 -0.0184  0.4358
57064SOL     OW75748  11.978   4.501   2.586  0.8975 -0.0422 -0.5662
57064SOL    HW175749  11.979   4.413   2.548  2.6827 -0.3472  0.0876
57064SOL    HW275750  12.052   4.546   2.544  0.4608  0.8962 -0.3458
57065SOL     OW75751   4.552   5.598   4.494 -0.6223  0.0284  0.0958
57065SOL    HW175752   4.536   5.506   4.512  0.9749 -0.4675 -0.8362
57065SOL    HW275753   4.587   5.600   4.405 -0.2825  1.4917  0.2268
57066SOL     OW75754   3.227  11.024   4.523 -0.6706 -0.2772 -0.0342
57066SOL    HW175755   3.147  10.985   4.559 -0.0324 -1.5415  0.0453
57066SOL    HW275756   3.289  11.023   4.595  0.8558 -3.4779 -1.1941
57067SOL     OW75757   7.137   4.407   4.300 -0.0438 -0.3154 -0.1532
57067SOL    HW175758   7.045   4.421   4.324 -0.2564  0.5490 -1.4193
57067SOL    HW275759   7.186   4.459   4.363 -0.5208  0.6743 -0.5861
57068SOL     OW75760  12.111   5.076   1.528 -0.5352 -0.1653 -0.2098
57068SOL    HW175761  12.090   5.034   1.444  0.3335 -1.2362  0.0843
57068SOL    HW275762  12.134   5.004   1.586 -1.2154  0.5571  0.9913
57069SOL     OW75763  10.528   2.741   7.757  0.3122  0.3314 -0.3981
57069SOL    HW175764  10.568   2.803   7.696 -0.1053 -1.1129 -2.2138
57069SOL    HW275765  10.436   2.736   7.729 -0.3334  0.8885  1.4419
57070SOL     OW75766   1.325  12.008   8.632 -0.2712 -0.3036 -0.1287
57070SOL    HW175767   1.309  12.063   8.709 -2.5231  0.3705 -0.9821
57070SOL    HW275768   1.383  12.060   8.576  0.2468 -0.2116  0.4824
57071SOL     OW75769   2.218   1.687   1.340  0.2432  0.6346  0.2042
57071SOL    HW175770   2.309   1.688   1.370 -0.0376  0.2487  1.1226
57071SOL    HW275771   2.177   1.759   1.388 -0.0555  0.4585  0.2121
57072SOL     OW75772   9.907  10.282   2.730 -0.0164 -0.4177  0.5940
57072SOL    HW175773   9.871  10.321   2.650  0.7588 -0.2540  0.3119
57072SOL    HW275774   9.925  10.191   2.706  0.4588 -0.2996  0.5032
57073SOL     OW75775   3.412   0.110   1.141 -0.4821  0.2175 -0.1978
57073SOL    HW175776   3.427   0.197   1.179 -0.6978 -0.1560  0.7852
57073SOL    HW275777   3.464   0.110   1.061  1.5366  0.3916  1.0458
57074SOL     OW75778   8.502   0.064   5.285  0.7156  0.4023 -0.2646
57074SOL    HW175779   8.524   0.137   5.343  1.5616 -0.8214  1.0121
57074SOL    HW275780   8.586   0.028   5.258  0.3293 -0.9372  0.2336
57075SOL     OW75781  11.521   3.548   8.059  0.4097 -0.3636  0.3464
57075SOL    HW175782  11.498   3.641   8.072  1.3560 -0.2507  1.3743
57075SOL    HW275783  11.476   3.523   7.979 -1.0363  0.5995  0.8142
57076SOL     OW75784   0.983   0.884   5.889 -0.1553 -0.5427 -0.2213
57076SOL    HW175785   0.955   0.874   5.798 -1.3387 -0.1239  0.0865
57076SOL    HW275786   1.042   0.959   5.887  0.5436 -1.0816 -0.7784
57077SOL     OW75787   7.152   4.973   6.168 -0.1824 -0.6711 -0.2054
57077SOL    HW175788   7.168   5.067   6.171  1.0798 -0.9011  1.7846
57077SOL    HW275789   7.065   4.965   6.127 -0.4255  1.3402 -0.1940
57078SOL     OW75790   8.025   9.657   3.637 -0.1703  0.7747  0.0340
57078SOL    HW175791   8.076   9.694   3.565  0.5795 -0.8401 -0.3156
57078SOL    HW275792   8.082   9.592   3.677 -1.6384 -0.5093  0.1586
57079SOL     OW75793  11.277  11.532  10.333  0.4017 -0.1240  0.0527
57079SOL    HW175794  11.195  11.531  10.382  0.4940 -1.0849  0.2025
57079SOL    HW275795  11.320  11.613  10.360  0.3182 -0.4872  1.3312
57080SOL     OW75796   5.923   3.112   7.464  0.3081 -0.4199 -0.2050
57080SOL    HW175797   5.862   3.186   7.464 -1.4830 -1.7837 -1.2639
57080SOL    HW275798   5.986   3.132   7.395  0.3490  0.4930  0.0914
57081SOL     OW75799   7.137  10.052  10.478  0.5432  0.1703 -0.1483
57081SOL    HW175800   7.146  10.147  10.483 -1.3540  0.4077 -0.6579
57081SOL    HW275801   7.211  10.024  10.425  2.6352  1.0337  2.1172
57082SOL     OW75802   0.098   2.692  10.509 -0.0941 -0.0919  0.2502
57082SOL    HW175803   0.189   2.721  10.503 -0.0177 -0.5402 -1.3255
57082SOL    HW275804   0.103   2.597  10.496 -0.8195 -0.0543 -0.3725
57083SOL     OW75805   7.275   5.372   1.794  0.2352  0.5129  0.0451
57083SOL    HW175806   7.308   5.405   1.878  0.3572 -0.1746  0.2734
57083SOL    HW275807   7.322   5.290   1.780 -2.0029 -1.0009  0.8360
57084SOL     OW75808   5.545   4.191   6.240 -0.1020  0.5156  0.1067
57084SOL    HW175809   5.562   4.188   6.334 -1.4429  0.1761  0.3574
57084SOL    HW275810   5.575   4.277   6.212 -0.4735  0.9450  1.0150
57085SOL     OW75811   9.975  10.922   8.508 -0.6877  0.2324  0.0568
57085SOL    HW175812   9.966  10.862   8.583  3.6944  1.2332  1.6830
57085SOL    HW275813   9.930  11.002   8.536  0.5454  0.4496  1.5693
57086SOL     OW75814  11.535   6.429   0.781  0.4410 -0.0072  0.3792
57086SOL    HW175815  11.544   6.523   0.796  1.5206  0.2192 -1.3890
57086SOL    HW275816  11.625   6.396   0.783  0.0647 -1.0205  1.0512
57087SOL     OW75817   6.509  12.061   4.698 -0.3730 -0.5179  0.2731
57087SOL    HW175818   6.529  12.154   4.696 -1.6315 -0.2265  0.7850
57087SOL    HW275819   6.540  12.031   4.784  1.0744 -0.8456 -0.3226
57088SOL     OW75820   1.926   2.686   0.719 -0.0544  0.3979  0.2239
57088SOL    HW175821   1.959   2.634   0.792 -0.0360 -0.3256 -0.2926
57088SOL    HW275822   1.836   2.655   0.707 -0.4303  1.2857  0.6387
57089SOL     OW75823   6.999   9.059   6.319 -0.1671 -0.0162  0.4105
57089SOL    HW175824   7.058   9.109   6.263 -0.4924  0.1054  0.1791
57089SOL    HW275825   7.053   8.986   6.350 -0.7424 -1.7879 -2.4151
57090SOL     OW75826   0.468   9.738   1.740 -0.4321  0.2963  0.1309
57090SOL    HW175827   0.550   9.777   1.712  1.1685 -0.7158  2.9477
57090SOL    HW275828   0.494   9.675   1.808 -3.4981 -0.4115  0.7889
57091SOL     OW75829  11.232  12.035   5.805  0.5754  0.3153  0.6104
57091SOL    HW175830  11.315  12.045   5.758  0.2590 -1.2739 -0.3608
57091SOL    HW275831  11.243  11.953   5.854 -0.7271 -0.3854 -0.2291
57092SOL     OW75832  10.688   2.379   7.530 -0.1493 -0.0686 -0.1085
57092SOL    HW175833  10.659   2.395   7.619 -1.8971 -0.5346 -0.5446
57092SOL    HW275834  10.607   2.363   7.481  0.5026  2.7407 -2.3427
57093SOL     OW75835   2.910   1.479   8.891  0.2088  0.0826 -0.1482
57093SOL    HW175836   2.865   1.505   8.971  0.6881  0.3023  0.0516
57093SOL    HW275837   2.992   1.528   8.892 -0.0480  0.5625 -1.0757
57094SOL     OW75838  11.847   3.038   1.342  0.4121 -0.4234 -0.4057
57094SOL    HW175839  11.809   3.009   1.425  0.0670  1.3085  0.0837
57094SOL    HW275840  11.936   3.003   1.343 -0.2112 -2.1074 -0.2537
57095SOL     OW75841   4.225   0.980   3.746 -0.5123  0.4700  0.3169
57095SOL    HW175842   4.275   0.945   3.820 -0.3525 -0.6445 -0.2965
57095SOL    HW275843   4.286   1.039   3.702  0.6456 -1.5745 -0.9590
57096SOL     OW75844   4.769   0.391   8.556  0.6123 -0.3809 -0.2363
57096SOL    HW175845   4.801   0.318   8.503  0.2409 -0.3949 -0.4462
57096SOL    HW275846   4.795   0.369   8.646  1.0027 -0.4919 -0.3744
57097SOL     OW75847   0.836  11.283   7.981  0.2961  0.5362 -0.0003
57097SOL    HW175848   0.868  11.193   7.973  0.0512  0.2161  2.0241
57097SOL    HW275849   0.914  11.338   7.974  0.6050  0.0902 -0.0699
57098SOL     OW75850   4.686   4.533   1.223 -0.2826  0.6125 -0.0364
57098SOL    HW175851   4.622   4.469   1.190  0.0291  0.6874 -0.7922
57098SOL    HW275852   4.662   4.545   1.315 -0.3684 -0.5709  0.1140
57099SOL     OW75853   7.809  11.799  10.054  0.1465  0.5601  0.3320
57099SOL    HW175854   7.891  11.845  10.070 -0.6856  2.0451  0.4738
57099SOL    HW275855   7.799  11.799   9.958  1.5731 -1.9867  0.0880
57100SOL     OW75856   5.827  11.590   5.241 -0.2282  0.0489 -0.1619
57100SOL    HW175857   5.921  11.592   5.257 -0.2362  0.5142 -0.1463
57100SOL    HW275858   5.787  11.608   5.326 -0.3508 -0.8200 -0.0298
57101SOL     OW75859   3.030   3.240   8.918 -0.0810  0.1839  0.1398
57101SOL    HW175860   2.988   3.178   8.977 -1.6319  1.0638  0.0148
57101SOL    HW275861   3.112   3.263   8.962 -0.5891 -0.1806  1.3168
57102SOL     OW75862   3.909  11.489   7.503  0.1352 -0.1807  0.0340
57102SOL    HW175863   3.901  11.405   7.459  2.3294 -0.8252  0.7095
57102SOL    HW275864   4.002  11.496   7.525 -0.4820  1.0094  2.7694
57103SOL     OW75865   0.228  11.854   4.106 -0.3054 -0.1611  0.1450
57103SOL    HW175866   0.239  11.759   4.112 -0.7391 -0.2731 -0.6698
57103SOL    HW275867   0.208  11.881   4.196 -0.1410 -0.8303  0.3947
57104SOL     OW75868   7.245  12.009  11.218 -0.2871  0.1034  0.3009
57104SOL    HW175869   7.154  11.978  11.221 -0.4167  0.3715 -0.5412
57104SOL    HW275870   7.246  12.072  11.146  0.9719 -1.2345 -0.9329
57105SOL     OW75871   1.334   6.571   0.948  0.2696 -0.0821 -0.1411
57105SOL    HW175872   1.380   6.487   0.953 -0.3955 -0.6653 -2.4442
57105SOL    HW275873   1.398   6.630   0.907 -0.4443 -0.5038 -1.9681
57106SOL     OW75874  11.777  12.100   9.823 -0.0193 -0.0755 -0.1491
57106SOL    HW175875  11.744  12.185   9.792 -0.0820 -0.0758 -0.0844
57106SOL    HW275876  11.809  12.056   9.744  1.9910  0.8834  0.0595
57107SOL     OW75877  10.411   0.239   1.730  0.1358  0.7784  0.0048
57107SOL    HW175878  10.467   0.165   1.756 -1.1361 -1.8177 -3.7059
57107SOL    HW275879  10.326   0.220   1.770 -0.2211  0.0699 -1.0386
57108SOL     OW75880  11.625   1.578   4.929  0.1529  0.1828 -0.4605
57108SOL    HW175881  11.536   1.576   4.896 -0.7779  0.5072  1.8601
57108SOL    HW275882  11.645   1.487   4.951  0.2759  0.1604 -0.6596
57109SOL     OW75883   9.863   8.612   9.659  0.2321 -0.0037 -0.0782
57109SOL    HW175884   9.822   8.604   9.745  0.9764  1.1585  0.4094
57109SOL    HW275885   9.804   8.668   9.610 -0.5321 -1.2066 -0.5698
57110SOL     OW75886   2.187   3.506   7.979 -0.2265 -0.8082  0.1368
57110SOL    HW175887   2.206   3.440   7.913  0.1992 -0.7315  0.1784
57110SOL    HW275888   2.267   3.511   8.031 -0.3605 -0.4687  0.3127
57111SOL     OW75889   4.372   6.859   4.487 -0.7347 -0.7043 -0.4430
57111SOL    HW175890   4.364   6.822   4.399 -1.7294  0.4993 -0.8914
57111SOL    HW275891   4.409   6.946   4.473 -1.1178 -0.4133  0.3098
57112SOL     OW75892   1.965   7.987   7.699 -0.3094 -0.0669 -0.3077
57112SOL    HW175893   1.953   8.050   7.770 -1.3303 -0.7677  0.1637
57112SOL    HW275894   1.990   7.906   7.743 -0.8545 -0.4813 -0.7434
57113SOL     OW75895  11.315   6.340  11.872 -0.1943  0.2621  0.1733
57113SOL    HW175896  11.302   6.260  11.821 -0.1474 -1.0570  2.1203
57113SOL    HW275897  11.311   6.411  11.807 -1.7206 -1.1811 -1.4230
57114SOL     OW75898   8.385  10.289  10.471 -0.2591 -0.0467  0.2621
57114SOL    HW175899   8.300  10.325  10.446  0.0913 -1.0009 -2.7310
57114SOL    HW275900   8.367  10.198  10.494 -0.3970  0.5172  2.6195
57115SOL     OW75901   9.413   4.623   8.979  0.1923  0.3193 -0.3908
57115SOL    HW175902   9.347   4.629   9.048  0.0256  0.7600 -0.5793
57115SOL    HW275903   9.377   4.561   8.916  1.3447 -1.8727  0.9698
57116SOL     OW75904   6.454   0.498   2.994  0.7113 -0.1929  0.1545
57116SOL    HW175905   6.440   0.483   3.088 -0.0579 -0.1084  0.0564
57116SOL    HW275906   6.545   0.473   2.979  1.4296  1.5159  1.2836
57117SOL     OW75907   6.013   1.888   8.275  0.2800 -0.3630  0.0916
57117SOL    HW175908   6.049   1.843   8.199  0.1296  2.1880 -1.6030
57117SOL    HW275909   6.078   1.873   8.344  1.0342 -1.6948 -0.8595
57118SOL     OW75910   2.667   3.798   2.243  0.6100 -0.3086  0.0271
57118SOL    HW175911   2.629   3.883   2.268 -0.7622 -0.9489  0.1992
57118SOL    HW275912   2.759   3.805   2.267  0.6282  1.3140 -0.4122
57119SOL     OW75913   1.103   3.527   2.276 -0.4012 -0.1690  0.4190
57119SOL    HW175914   1.186   3.575   2.284  1.1161 -2.5741 -0.0324
57119SOL    HW275915   1.068   3.525   2.365  3.2085 -4.3150  2.0480
57120SOL     OW75916   6.277   1.237   0.270  0.3983 -0.3624 -0.3916
57120SOL    HW175917   6.239   1.203   0.350  2.4846  0.7620  1.1856
57120SOL    HW275918   6.214   1.302   0.239  0.9326  1.5461  2.1879
57121SOL     OW75919   6.987   9.804   2.034 -0.0565  0.3565 -0.1287
57121SOL    HW175920   6.994   9.787   2.128  0.1422 -3.5382 -0.7071
57121SOL    HW275921   6.921   9.743   2.003  0.4641  0.9721 -2.6598
57122SOL     OW75922   0.212   0.972   7.167 -0.0374  0.3327 -0.2563
57122SOL    HW175923   0.268   0.996   7.093  0.3132  2.1252  0.5431
57122SOL    HW275924   0.126   1.008   7.143 -0.6489 -1.5149 -1.0111
57123SOL     OW75925  10.806   6.017   8.513 -0.0375  0.0592 -0.7272
57123SOL    HW175926  10.870   5.952   8.544  1.4330  1.8009  0.1068
57123SOL    HW275927  10.797   6.078   8.587 -2.3040  0.1673 -1.0342
57124SOL     OW75928   2.824   2.808   9.520  0.5615  0.5111  0.2146
57124SOL    HW175929   2.783   2.888   9.553  0.1684 -0.1131  1.2668
57124SOL    HW275930   2.836   2.753   9.597 -0.7267 -1.1473 -0.7019
57125SOL     OW75931  10.224   5.025   2.304 -0.6538 -0.1159 -0.7315
57125SOL    HW175932  10.161   4.969   2.349 -0.9685 -0.2472 -1.3201
57125SOL    HW275933  10.268   4.966   2.242 -1.6570  0.4533 -2.0418
57126SOL     OW75934   7.468   9.445   0.211  0.5025 -0.2708  0.0006
57126SOL    HW175935   7.432   9.369   0.257  0.2323 -0.0880  0.0948
57126SOL    HW275936   7.424   9.520   0.250 -0.2494 -0.1590 -1.0247
57127SOL     OW75937  11.253  10.891  11.994 -0.0464 -0.1905 -0.3745
57127SOL    HW175938  11.268  10.871  12.087  1.6375 -2.4700 -1.0452
57127SOL    HW275939  11.315  10.962  11.975 -0.2156  0.1126  0.1785
57128SOL     OW75940   2.324   8.580   8.190 -0.7871  0.3224 -0.2303
57128SOL    HW175941   2.297   8.595   8.281  2.5351 -1.6695  1.2772
57128SOL    HW275942   2.339   8.668   8.155 -1.3992  1.1225  1.4080
57129SOL     OW75943   3.927   1.074   2.521 -0.5424 -0.1667 -0.0013
57129SOL    HW175944   3.885   1.110   2.443 -0.9864 -0.2174  0.2102
57129SOL    HW275945   3.869   1.003   2.549  0.8176 -1.7261 -0.9780
57130SOL     OW75946   1.256   8.938   5.203 -0.1256 -0.5724 -0.0804
57130SOL    HW175947   1.201   9.009   5.171 -0.1564 -0.7738 -0.4704
57130SOL    HW275948   1.302   8.905   5.126 -1.2626 -1.9936 -0.1975
57131SOL     OW75949   9.553  10.589   6.235  0.0266 -0.0341  0.4280
57131SOL    HW175950   9.557  10.655   6.166  3.0065 -0.2585  0.2604
57131SOL    HW275951   9.537  10.507   6.188  0.1880  0.0596  0.2058
57132SOL     OW75952   6.597   8.426  10.208  0.0878  0.2932  0.7317
57132SOL    HW175953   6.634   8.337  10.203 -0.6924  0.0156 -0.8254
57132SOL    HW275954   6.651   8.477  10.148 -0.1698  0.5948  0.7577
57133SOL     OW75955   4.958   3.297  11.801  0.4216 -0.2897  0.3517
57133SOL    HW175956   4.958   3.326  11.709  0.5511 -1.0086  0.1147
57133SOL    HW275957   4.960   3.377  11.852  2.1956  0.1256 -0.2970
57134SOL     OW75958   7.839  11.294   1.016  0.1468 -0.1737 -0.2749
57134SOL    HW175959   7.849  11.198   1.017 -0.3465 -0.2664 -1.6415
57134SOL    HW275960   7.915  11.326   1.063 -0.2169 -1.2625  1.1532
57135SOL     OW75961  11.445   5.333   1.101 -0.0708 -0.4460 -0.3066
57135SOL    HW175962  11.419   5.424   1.115 -0.0698 -0.5337  0.2902
57135SOL    HW275963  11.509   5.315   1.170 -1.0120 -1.2838  0.3941
57136SOL     OW75964   7.185   9.830   6.747 -0.1401 -0.1066 -0.2373
57136SOL    HW175965   7.275   9.861   6.747  0.1215 -0.8079  1.2875
57136SOL    HW275966   7.185   9.758   6.684 -0.0226  0.8596 -1.3905
57137SOL     OW75967   2.483   4.111   4.443 -0.0087 -0.2801 -0.3558
57137SOL    HW175968   2.520   4.102   4.531  1.3359 -1.0491 -0.9505
57137SOL    HW275969   2.389   4.104   4.455  0.0237  1.2728  1.1991
57138SOL     OW75970   1.774  11.263   3.689  0.0041 -0.0984 -0.5725
57138SOL    HW175971   1.818  11.340   3.655  0.3977 -0.0963 -0.0769
57138SOL    HW275972   1.681  11.279   3.674  0.0827  0.4781 -0.4598
57139SOL     OW75973   4.839   3.058   5.316  0.3208 -0.3417 -0.0725
57139SOL    HW175974   4.925   3.064   5.356 -1.3555  1.6734  3.7451
57139SOL    HW275975   4.827   3.142   5.271 -0.6547  0.6887  1.9806
57140SOL     OW75976   8.414   3.357  11.894 -0.1007 -0.3772 -0.1866
57140SOL    HW175977   8.358   3.383  11.822 -0.1595  0.1467  0.0443
57140SOL    HW275978   8.502   3.354  11.856  0.0966  1.3632  0.0439
57141SOL     OW75979   4.961   8.045   9.458 -0.4922  0.1626 -0.1726
57141SOL    HW175980   4.915   7.962   9.446 -0.4639 -0.0993  1.3303
57141SOL    HW275981   4.905   8.096   9.517  0.5490  0.2893  0.7596
57142SOL     OW75982   7.892   2.307   8.674 -0.8392 -0.0996  0.0490
57142SOL    HW175983   7.936   2.357   8.605  0.6198 -0.4395  0.6836
57142SOL    HW275984   7.799   2.312   8.653 -0.4798  0.4249 -1.5169
57143SOL     OW75985   3.761   6.657   7.074  0.4530 -0.3875  0.2578
57143SOL    HW175986   3.801   6.650   6.987  0.0642  1.7260 -0.1553
57143SOL    HW275987   3.762   6.568   7.109  0.9019 -1.2337 -1.7856
57144SOL     OW75988   9.362   3.096   7.615  0.0971 -0.2510  0.2167
57144SOL    HW175989   9.430   3.076   7.679  0.6253  2.0212  0.4408
57144SOL    HW275990   9.395   3.059   7.533  2.1828  1.6596  0.0844
57145SOL     OW75991   6.683   9.891   1.576 -0.4346  0.3021  0.0243
57145SOL    HW175992   6.670   9.854   1.664  2.0406 -1.4565 -0.2402
57145SOL    HW275993   6.665   9.818   1.517 -1.9683  1.4405 -1.0072
57146SOL     OW75994   7.054   5.656   6.306 -0.1300  0.2081  0.2665
57146SOL    HW175995   7.132   5.643   6.359  0.2818 -0.4517 -0.4875
57146SOL    HW275996   6.989   5.691   6.367  0.0464 -1.3922  1.4298
57147SOL     OW75997  10.218   6.281   0.548 -0.2780  0.4619  0.3962
57147SOL    HW175998  10.266   6.226   0.485 -1.6300  0.7242 -0.9127
57147SOL    HW275999  10.202   6.224   0.623  1.2407  0.0955  0.4727
57148SOL     OW76000  10.012   1.766   3.677  0.4576 -0.4295  0.2526
57148SOL    HW176001   9.948   1.712   3.723 -1.4795  0.1506 -1.6046
57148SOL    HW276002  10.062   1.705   3.624 -0.2779 -0.6560 -0.1942
57149SOL     OW76003   7.412   7.836   2.664 -0.4168 -0.2712 -0.0010
57149SOL    HW176004   7.390   7.851   2.572  0.8258  0.6399 -0.1685
57149SOL    HW276005   7.506   7.853   2.669 -0.6129  0.4639  1.6006
57150SOL     OW76006   9.743   4.580   1.833  0.3401  0.2652  0.4340
57150SOL    HW176007   9.771   4.665   1.867  1.6321  0.2563 -0.5117
57150SOL    HW276008   9.812   4.520   1.861 -1.5987 -0.9661  2.9401
57151SOL     OW76009   0.544   5.868   8.296 -0.3384 -0.3525 -0.1725
57151SOL    HW176010   0.466   5.814   8.314 -0.8212  0.2656 -0.3803
57151SOL    HW276011   0.612   5.830   8.352 -0.9588 -0.5035  0.5001
57152SOL     OW76012  11.001   9.980   9.693 -0.2569 -0.0076 -0.0429
57152SOL    HW176013  11.078   9.924   9.690  0.5743  0.9971  1.5546
57152SOL    HW276014  11.035  10.069   9.682 -1.1989  0.4336  0.5173
57153SOL     OW76015  10.663   4.771   8.710  0.1831  0.1408  0.3704
57153SOL    HW176016  10.579   4.727   8.726 -0.0280  0.4909  0.2377
57153SOL    HW276017  10.725   4.727   8.768  0.1586 -0.8881 -0.3583
57154SOL     OW76018   5.099   3.158  10.471  0.5680  0.6647 -0.3017
57154SOL    HW176019   5.061   3.071  10.484  2.1725  0.0743  0.7778
57154SOL    HW276020   5.182   3.141  10.426  2.3506  1.2761  2.5016
57155SOL     OW76021   4.371  10.522   8.556 -0.0253 -0.4706  0.1933
57155SOL    HW176022   4.375  10.426   8.562 -0.0833 -0.4357  0.9345
57155SOL    HW276023   4.286  10.545   8.594  0.0208 -0.1227  0.0854
57156SOL     OW76024   6.804   2.696   1.271 -0.2245 -1.2890  0.1646
57156SOL    HW176025   6.806   2.601   1.256  0.3570 -1.3823  0.7766
57156SOL    HW276026   6.874   2.711   1.334  0.8070 -0.2396 -1.1654
57157SOL     OW76027   0.548   5.938   8.786 -0.1634 -0.0598  0.3889
57157SOL    HW176028   0.565   5.913   8.877  0.2686 -2.2459 -0.2437
57157SOL    HW276029   0.462   5.901   8.767  0.8122 -1.8493 -0.8015
57158SOL     OW76030   1.995  10.090   8.387 -0.0359  0.2614 -0.7696
57158SOL    HW176031   1.994  10.037   8.466  0.3669 -1.3918 -1.8261
57158SOL    HW276032   2.045  10.168   8.411  0.5122 -0.4404  0.4495
57159SOL     OW76033   6.046   7.022  10.182  0.3554 -0.1977 -0.4725
57159SOL    HW176034   6.139   7.046  10.183  1.1960 -3.0748  0.6238
57159SOL    HW276035   6.001   7.099  10.217  2.4243  0.9194 -0.1179
57160SOL     OW76036   2.665   2.361   2.683 -0.2166 -0.0077 -0.3063
57160SOL    HW176037   2.637   2.391   2.769  1.8471 -2.0232  1.1802
57160SOL    HW276038   2.631   2.272   2.676  0.2161 -0.1154 -1.3101
57161SOL     OW76039   1.679   1.922   3.605  0.2742 -0.2452  0.1734
57161SOL    HW176040   1.729   2.003   3.593 -0.1519 -0.2037 -1.6394
57161SOL    HW276041   1.641   1.930   3.693  1.0413  1.0580  0.4164
57162SOL     OW76042   7.958   5.078   7.126 -0.1329  0.0130  0.1736
57162SOL    HW176043   8.027   5.041   7.070 -1.0198  0.7784 -1.4900
57162SOL    HW276044   7.879   5.032   7.100 -0.5818  0.4648  0.7263
57163SOL     OW76045   0.683   4.403  11.838 -0.1323  0.2225 -0.3572
57163SOL    HW176046   0.626   4.331  11.864 -0.4568  0.4999 -0.2927
57163SOL    HW276047   0.638   4.444  11.764  0.4597 -0.1502 -0.9432
57164SOL     OW76048   2.891   6.520   7.643  0.4268 -0.0148  0.1281
57164SOL    HW176049   2.801   6.525   7.675  0.2244  0.0450 -0.4485
57164SOL    HW276050   2.931   6.602   7.671  0.8921 -0.8440  2.1207
57165SOL     OW76051   6.956   8.087   4.263  0.1477  0.3121  0.3082
57165SOL    HW176052   6.943   7.997   4.291 -1.3396  0.8803  1.6047
57165SOL    HW276053   6.923   8.140   4.336 -2.7894  1.8994 -1.9597
57166SOL     OW76054   9.017   7.221  10.462 -0.4930  0.7509  0.3790
57166SOL    HW176055   9.059   7.185  10.384  0.6077  1.1896  0.7537
57166SOL    HW276056   9.009   7.146  10.521  0.4249  0.8037  0.5774
57167SOL     OW76057   7.317  10.492   4.224 -0.1769 -0.1551 -0.8750
57167SOL    HW176058   7.244  10.450   4.270 -0.7037 -0.3303 -1.8458
57167SOL    HW276059   7.394  10.441   4.250 -0.2590  0.5067  0.7704
57168SOL     OW76060   8.782   7.586   8.240  0.1554  0.6020 -0.4179
57168SOL    HW176061   8.861   7.593   8.186 -0.1418 -2.4089 -1.4021
57168SOL    HW276062   8.814   7.599   8.330  1.8180 -0.5624 -0.7917
57169SOL     OW76063   4.911   3.219   6.307  0.2920  0.2339  0.5877
57169SOL    HW176064   4.904   3.168   6.387 -1.3475  1.7279  1.4437
57169SOL    HW276065   4.859   3.297   6.323 -0.4563  0.3860 -2.0861
57170SOL     OW76066   6.186   2.870   9.473 -0.4257 -0.2304 -0.3538
57170SOL    HW176067   6.158   2.877   9.564  0.6878 -0.9002  0.0622
57170SOL    HW276068   6.280   2.854   9.478 -0.4493 -0.8712 -1.6042
57171SOL     OW76069   6.938   2.592   7.671 -0.4431 -0.0550  0.3454
57171SOL    HW176070   7.005   2.567   7.607 -0.9221 -0.8372  0.1401
57171SOL    HW276071   6.856   2.558   7.635 -0.8394  0.2142  0.9774
57172SOL     OW76072  11.787   5.236   3.233  0.2272 -0.0139  0.0421
57172SOL    HW176073  11.801   5.198   3.147 -0.2301  1.1381 -0.5694
57172SOL    HW276074  11.875   5.255   3.265  0.4226 -0.8998  0.0517
57173SOL     OW76075   8.346   7.023   8.316 -0.2798  0.5020 -0.4675
57173SOL    HW176076   8.295   7.077   8.256 -0.4218 -0.5977 -1.3858
57173SOL    HW276077   8.324   6.933   8.291  0.3325  0.0179  0.6735
57174SOL     OW76078   7.740   2.965   0.394  0.2291 -0.3090  0.4525
57174SOL    HW176079   7.722   3.008   0.310 -1.1117 -1.2049  0.2644
57174SOL    HW276080   7.761   2.875   0.371  1.6759 -0.1322  0.9610
57175SOL     OW76081  11.122   0.635   6.114 -0.0471 -0.2581 -0.6036
57175SOL    HW176082  11.135   0.650   6.208  0.7837 -1.7347 -0.4654
57175SOL    HW276083  11.190   0.688   6.072 -0.5534  0.5744 -0.3999
57176SOL     OW76084   1.322   4.894   6.329  0.3757  0.2550 -0.0425
57176SOL    HW176085   1.368   4.959   6.383 -1.4598  2.1112 -0.5794
57176SOL    HW276086   1.240   4.878   6.377 -0.7776  1.0792 -1.6445
57177SOL     OW76087   0.789   0.791   9.374  0.0737 -0.1944 -1.1946
57177SOL    HW176088   0.814   0.743   9.296  0.1017 -1.1351 -0.6255
57177SOL    HW276089   0.865   0.845   9.395  1.2297 -2.0830 -0.2032
57178SOL     OW76090  10.689   0.288  11.671  0.1494  0.2991 -0.1195
57178SOL    HW176091  10.646   0.317  11.752  1.4160 -2.0159  1.5242
57178SOL    HW276092  10.619   0.253  11.617 -0.3178 -2.2864  1.9796
57179SOL     OW76093   0.215   6.566   7.515 -0.5206  0.1992 -0.0434
57179SOL    HW176094   0.242   6.492   7.460 -1.1794 -0.0383 -0.0538
57179SOL    HW276095   0.235   6.643   7.462 -1.7217 -0.0399 -0.9134
57180SOL     OW76096   3.229  11.281   0.713 -0.4054 -0.6676 -0.3746
57180SOL    HW176097   3.261  11.368   0.736 -0.1072 -0.7009 -0.6508
57180SOL    HW276098   3.228  11.233   0.795  3.6746 -1.7869 -0.7431
57181SOL     OW76099   9.681   3.061   1.584  0.4968  0.0836  0.1649
57181SOL    HW176100   9.704   3.152   1.565  0.2874  0.2694  0.7911
57181SOL    HW276101   9.730   3.039   1.662 -1.5270  0.5562  1.6530
57182SOL     OW76102   2.312   2.629   4.965  0.0824  0.4001 -0.2580
57182SOL    HW176103   2.256   2.592   5.034 -0.7874 -0.9145 -1.6084
57182SOL    HW276104   2.285   2.720   4.959  0.0068  0.4726  0.9684
57183SOL     OW76105  11.028  10.195   6.446  0.1974  0.5073 -0.0047
57183SOL    HW176106  10.978  10.127   6.491 -0.2038  0.7450 -0.0833
57183SOL    HW276107  11.078  10.238   6.515 -0.6201  1.0478  0.2734
57184SOL     OW76108  10.832  10.713   9.244  0.5618 -0.0304  0.1269
57184SOL    HW176109  10.878  10.635   9.212  0.0138  0.0259 -0.8394
57184SOL    HW276110  10.837  10.775   9.171 -0.5628  0.1688  0.2024
57185SOL     OW76111   3.100   4.412   3.600  0.1878  0.4596  0.3088
57185SOL    HW176112   3.046   4.425   3.678  1.2272  2.5183  0.7572
57185SOL    HW276113   3.076   4.484   3.541  1.6330  0.7846  0.0681
57186SOL     OW76114   0.625  10.132   6.708 -0.0519  0.3512 -0.2396
57186SOL    HW176115   0.624  10.124   6.613  0.3496 -2.9727 -0.0665
57186SOL    HW276116   0.676  10.212   6.724  1.6676 -0.0968 -2.8007
57187SOL     OW76117   4.212   0.067   9.653  0.4117  0.5502  0.3824
57187SOL    HW176118   4.281   0.041   9.714 -0.0654 -2.0679 -0.0673
57187SOL    HW276119   4.236   0.024   9.570 -1.0318  0.7026 -0.1447
57188SOL     OW76120   0.068   3.420   0.929  0.2639 -0.1995 -0.4340
57188SOL    HW176121   0.015   3.379   0.998 -0.1904  0.1551 -0.5653
57188SOL    HW276122   0.125   3.481   0.976 -1.7080  1.8336 -0.5363
57189SOL     OW76123   9.756   5.932   4.489  0.3051 -0.2511  0.1421
57189SOL    HW176124   9.844   5.907   4.517  1.1755  3.1850  0.9116
57189SOL    HW276125   9.712   5.959   4.569 -0.2709  1.1844 -0.6211
57190SOL     OW76126   2.119   1.598   1.766 -0.1323 -0.3096  0.6861
57190SOL    HW176127   2.077   1.515   1.744 -0.5440  0.0485  0.0696
57190SOL    HW276128   2.213   1.578   1.765 -0.2187 -0.7298  0.3602
57191SOL     OW76129  10.522   0.731   0.324 -0.3281 -0.2686  0.0659
57191SOL    HW176130  10.600   0.677   0.314  1.0563  1.8789 -1.6056
57191SOL    HW276131  10.468   0.683   0.387  0.9542 -3.3141 -0.9790
57192SOL     OW76132  10.165   8.375  11.456 -0.0366 -0.2766  0.1582
57192SOL    HW176133  10.250   8.369  11.413 -0.2225 -1.2102 -0.1051
57192SOL    HW276134  10.108   8.317  11.405 -0.2923 -1.3682  1.6156
57193SOL     OW76135  10.360  10.985   7.278 -0.5181 -0.4641 -0.3780
57193SOL    HW176136  10.400  10.907   7.239 -1.3371  0.3280 -3.0026
57193SOL    HW276137  10.272  10.957   7.303 -0.1418 -0.8609  0.5547
57194SOL     OW76138   6.418   4.185   1.876 -0.0675 -0.4924 -0.1844
57194SOL    HW176139   6.504   4.146   1.890  0.2864 -1.0002 -3.1812
57194SOL    HW276140   6.435   4.279   1.866 -0.2143 -0.2567  1.4408
57195SOL     OW76141   7.239  12.005   2.135 -0.6125  0.0647 -0.2206
57195SOL    HW176142   7.305  12.062   2.098 -2.1803  1.6271 -0.7316
57195SOL    HW276143   7.156  12.046   2.112 -1.7483 -0.3627  2.6579
57196SOL     OW76144   9.834   8.021  10.333  0.6566  0.0752 -0.0307
57196SOL    HW176145   9.863   7.936  10.300 -0.1626 -0.2129 -0.0377
57196SOL    HW276146   9.914   8.064  10.364  0.9705 -1.0323  0.7316
57197SOL     OW76147   3.258   1.920   7.673 -0.0568 -0.0830 -0.0785
57197SOL    HW176148   3.274   2.006   7.633 -1.0526  1.3767  2.4547
57197SOL    HW276149   3.170   1.896   7.642 -0.4237  0.5814  0.4070
57198SOL     OW76150   5.806   4.599   7.087  0.4502 -0.3015  0.3632
57198SOL    HW176151   5.722   4.643   7.071 -0.3696 -2.3038 -1.4875
57198SOL    HW276152   5.829   4.623   7.176 -1.0152  2.0031  0.2171
57199SOL     OW76153   1.301   0.469   7.182  0.0362 -0.2035  0.2197
57199SOL    HW176154   1.344   0.469   7.096 -0.8123  0.0461 -0.2205
57199SOL    HW276155   1.224   0.413   7.170 -0.0196 -0.2725  0.8600
57200SOL     OW76156  11.110   0.483   1.197  0.5978  0.5694 -0.5033
57200SOL    HW176157  11.158   0.400   1.189  2.2760  1.3531  0.7670
57200SOL    HW276158  11.131   0.531   1.117 -0.7281 -0.3453 -1.4478
57201SOL     OW76159   9.367   7.703  10.509  0.5432  0.0100 -0.1159
57201SOL    HW176160   9.427   7.765  10.467  1.8715 -1.3117 -0.2539
57201SOL    HW276161   9.362   7.629  10.448  0.1137 -0.6330  0.6707
57202SOL     OW76162   4.879   7.141   7.420 -0.0683 -0.6499 -0.7464
57202SOL    HW176163   4.870   7.062   7.367  1.3150 -0.8281 -0.7577
57202SOL    HW276164   4.956   7.125   7.474  0.4997  0.8462 -1.0524
57203SOL     OW76165  10.097  11.597  10.864 -0.0506 -0.2342 -0.4671
57203SOL    HW176166  10.122  11.513  10.903 -0.4373 -0.3958 -0.5630
57203SOL    HW276167  10.133  11.594  10.775  1.5836  0.4897  0.1385
57204SOL     OW76168   3.942   0.478   6.359 -0.4516  0.2516  0.1225
57204SOL    HW176169   3.859   0.471   6.312 -0.3603  1.7775 -0.3076
57204SOL    HW276170   4.000   0.416   6.315 -0.5537  1.2085 -1.4007
57205SOL     OW76171   7.667   4.521  11.266 -0.3177  0.4518 -0.1385
57205SOL    HW176172   7.644   4.449  11.324 -0.2023  1.3289  1.0432
57205SOL    HW276173   7.648   4.600  11.317  0.9042  1.2409 -0.8388
57206SOL     OW76174   8.794   5.745   9.106 -0.1649 -0.2022 -0.4942
57206SOL    HW176175   8.759   5.662   9.137 -2.3736  0.8746  0.1038
57206SOL    HW276176   8.748   5.762   9.024 -1.5641  1.4835  0.5633
57207SOL     OW76177   2.412   4.654   8.372  0.0432  0.5241 -0.6653
57207SOL    HW176178   2.357   4.576   8.373  0.8733 -0.1026 -1.4708
57207SOL    HW276179   2.499   4.621   8.350  0.3068  1.7347 -1.5182
57208SOL     OW76180   9.910   3.204   3.655 -0.2683  0.0945  0.1660
57208SOL    HW176181   9.889   3.177   3.566  1.4453  1.4385 -0.7148
57208SOL    HW276182   9.906   3.299   3.654 -0.7161  0.1259  1.6772
57209SOL     OW76183   6.114   8.995   6.889 -0.4418 -0.4176 -0.6568
57209SOL    HW176184   6.026   9.001   6.853 -0.9625  0.3723  0.6785
57209SOL    HW276185   6.104   8.946   6.971 -0.1091  1.8049  0.7990
57210SOL     OW76186   5.374   4.155   2.821 -0.0057  0.4742 -0.3228
57210SOL    HW176187   5.340   4.240   2.794 -0.8356  1.0738  2.3045
57210SOL    HW276188   5.297   4.097   2.820 -0.0797  0.5357  0.7346
57211SOL     OW76189  10.416   0.183  11.678 -0.1307 -0.4536 -0.6030
57211SOL    HW176190  10.334   0.134  11.679 -0.2324 -0.2820 -0.6133
57211SOL    HW276191  10.464   0.150  11.754 -1.3218  1.3341  1.0406
57212SOL     OW76192   4.158  10.862  10.586  0.5269  0.2244  0.0680
57212SOL    HW176193   4.184  10.946  10.624  0.2624  1.1810 -1.7254
57212SOL    HW276194   4.064  10.873  10.568  0.2840 -0.8135  0.6609
57213SOL     OW76195   4.161   2.227  10.084  0.0302  0.1039 -0.2837
57213SOL    HW176196   4.111   2.171  10.143  1.8611 -1.2331  0.0970
57213SOL    HW276197   4.248   2.233  10.124  0.5192  1.4674 -1.4452
57214SOL     OW76198   6.621   2.918   3.161 -0.3289  0.1214 -0.1933
57214SOL    HW176199   6.543   2.878   3.199  0.0370 -0.4080 -0.0029
57214SOL    HW276200   6.663   2.848   3.112  0.1363  0.3566 -0.1371
57215SOL     OW76201  10.074  10.615   4.900 -0.6476 -0.3414  0.5054
57215SOL    HW176202  10.169  10.627   4.910 -0.7873  0.4853  0.9861
57215SOL    HW276203  10.036  10.694   4.940 -1.4780  0.1986 -1.2300
57216SOL     OW76204   9.185   4.209   3.262  0.4572 -0.2155  0.0010
57216SOL    HW176205   9.191   4.291   3.212  0.0939  0.7393  1.4639
57216SOL    HW276206   9.245   4.150   3.218  1.2296  1.0558 -0.7108
57217SOL     OW76207   9.536   0.834  11.714 -0.0003  0.1900  0.4592
57217SOL    HW176208   9.461   0.884  11.683 -0.2175 -0.5617 -0.2672
57217SOL    HW276209   9.602   0.900  11.735 -0.0880  0.7635 -0.9887
57218SOL     OW76210  11.017   4.276   2.512 -0.5818 -0.2675  0.0104
57218SOL    HW176211  11.011   4.294   2.418  0.3930 -0.0459 -0.0197
57218SOL    HW276212  11.110   4.266   2.529 -0.7413 -0.2480  0.9693
57219SOL     OW76213   9.492   7.699   3.057  0.2133 -0.6486 -0.1864
57219SOL    HW176214   9.544   7.779   3.045  0.6558 -0.8956  0.0764
57219SOL    HW276215   9.550   7.639   3.103 -0.5430 -0.6783  0.7705
57220SOL     OW76216   4.411   1.710  10.862 -0.1802 -0.9294  0.3702
57220SOL    HW176217   4.332   1.721  10.915 -1.3197  0.2341 -1.4622
57220SOL    HW276218   4.482   1.739  10.920 -0.9814 -2.3427  2.1900
57221SOL     OW76219   1.509   4.554   7.786 -0.6635  0.9988 -0.1688
57221SOL    HW176220   1.478   4.637   7.823 -2.2376 -0.3047  1.6515
57221SOL    HW276221   1.514   4.495   7.861 -0.2637 -0.7664 -1.5173
57222SOL     OW76222   1.007   7.062  11.770  0.5561 -0.6107  0.6296
57222SOL    HW176223   0.954   6.998  11.722  0.0670 -0.3514  0.8149
57222SOL    HW276224   1.098   7.038  11.750  0.3706 -1.0534  0.2972
57223SOL     OW76225   2.600  11.426   2.173  0.5823  0.4098 -0.2110
57223SOL    HW176226   2.680  11.402   2.221 -0.2770 -1.1217  0.5361
57223SOL    HW276227   2.631  11.447   2.085  1.6275 -2.5215 -0.6605
57224SOL     OW76228   8.410   3.590   9.749  0.2922 -0.0222 -0.2000
57224SOL    HW176229   8.458   3.536   9.811 -0.6167  0.9844  1.4650
57224SOL    HW276230   8.413   3.541   9.667  1.1244 -1.6472  0.7496
57225SOL     OW76231   7.367   0.695  10.388  0.0147  0.3564  0.2481
57225SOL    HW176232   7.342   0.605  10.409  0.9446  0.0531  0.1113
57225SOL    HW276233   7.365   0.740  10.472 -0.6755  0.2724  0.2854
57226SOL     OW76234   8.407   5.404   1.142 -0.3660 -0.1821 -0.4346
57226SOL    HW176235   8.364   5.383   1.059 -0.4235 -0.5496 -0.3118
57226SOL    HW276236   8.406   5.500   1.145 -0.9792 -0.1766 -0.5420
57227SOL     OW76237   0.331   3.257   9.216  0.0977 -0.2737 -0.1995
57227SOL    HW176238   0.367   3.229   9.300  1.4097  0.2247 -0.5748
57227SOL    HW276239   0.372   3.199   9.151 -0.4122 -0.2320 -0.5684
57228SOL     OW76240   6.778   9.815   7.862 -0.4230 -0.1086 -0.0920
57228SOL    HW176241   6.714   9.764   7.912  0.1036 -1.7132 -0.9529
57228SOL    HW276242   6.770   9.904   7.896 -0.7886 -0.9133  2.1172
57229SOL     OW76243   5.643   7.402   1.548  0.3146 -0.2802  0.3111
57229SOL    HW176244   5.573   7.430   1.608 -1.3263  0.2968 -1.7627
57229SOL    HW276245   5.712   7.467   1.560  0.1952 -0.3865  1.8038
57230SOL     OW76246   4.245  11.419   5.873 -0.0034 -0.1089  0.0399
57230SOL    HW176247   4.333  11.453   5.860  0.5840 -1.1242  1.2442
57230SOL    HW276248   4.191  11.468   5.810  1.5294 -0.0625 -1.2990
57231SOL     OW76249   3.325   3.563   8.207  0.4905 -0.4682 -0.1092
57231SOL    HW176250   3.406   3.604   8.238  0.0861 -0.5611  1.0875
57231SOL    HW276251   3.353   3.479   8.171  0.9547 -0.4075  0.1037
57232SOL     OW76252   3.269   2.972   0.884 -0.5465 -0.5729 -0.1421
57232SOL    HW176253   3.290   2.924   0.965 -0.4963  3.0535  2.2474
57232SOL    HW276254   3.174   2.966   0.876 -0.5266 -1.1658  0.0272
57233SOL     OW76255   1.114   2.089   5.799  0.0850 -0.6887 -0.1852
57233SOL    HW176256   1.192   2.138   5.774 -0.9340  1.8993  1.2609
57233SOL    HW276257   1.147   2.005   5.831  2.2345  0.1934  0.0574
57234SOL     OW76258  11.962   6.436   5.638 -0.1821  0.5466  0.1926
57234SOL    HW176259  11.972   6.386   5.557  1.3295  0.5542  0.3563
57234SOL    HW276260  11.975   6.372   5.708  1.3996  1.0543  0.4025
57235SOL     OW76261   5.115   5.649  10.205 -0.1086  0.0738 -0.0560
57235SOL    HW176262   5.125   5.718  10.139 -0.1369 -0.1521 -0.2959
57235SOL    HW276263   5.165   5.575  10.169 -0.6822 -0.2740 -0.1398
57236SOL     OW76264   0.112   7.318   5.970  0.7061 -0.0776  0.1542
57236SOL    HW176265   0.187   7.302   6.026  0.9987  0.6026 -0.0350
57236SOL    HW276266   0.148   7.361   5.893  0.2405 -0.5388 -0.3375
57237SOL     OW76267  10.609   9.443   8.169 -0.1967  0.6965  0.5474
57237SOL    HW176268  10.639   9.522   8.213  1.7036 -0.2353  1.0261
57237SOL    HW276269  10.588   9.383   8.240 -0.3882  0.3322  0.1854
57238SOL     OW76270   8.643   8.870   7.274 -0.1604  0.1350  0.3007
57238SOL    HW176271   8.679   8.836   7.356  0.2531  0.1047  0.1136
57238SOL    HW276272   8.621   8.791   7.224 -1.2599  0.1578  0.7418
57239SOL     OW76273   2.330   7.969   8.708  0.2201  0.0087  0.6835
57239SOL    HW176274   2.401   8.021   8.671 -0.8661  1.1041  0.0720
57239SOL    HW276275   2.324   7.997   8.799 -1.2484  2.0907  0.0439
57240SOL     OW76276  11.095   3.112   3.933 -0.0744  0.6301  0.0981
57240SOL    HW176277  11.024   3.136   3.992  3.0980 -1.0091  5.2508
57240SOL    HW276278  11.159   3.183   3.943  1.3332 -0.6111  0.1619
57241SOL     OW76279   5.219   4.854   4.904 -0.0451 -0.7295 -0.8136
57241SOL    HW176280   5.251   4.802   4.830 -2.4722 -0.8297 -1.9284
57241SOL    HW276281   5.284   4.923   4.916  0.6553 -0.9889 -2.7804
57242SOL     OW76282   4.345   1.850   7.599 -0.2364  0.4376  0.0727
57242SOL    HW176283   4.360   1.810   7.513  1.5323 -1.2261  1.0633
57242SOL    HW276284   4.290   1.788   7.645  2.7052 -1.1906  1.7037
57243SOL     OW76285   6.832  11.309   7.763 -0.0071  0.1073  0.8688
57243SOL    HW176286   6.916  11.279   7.800  1.1566  1.3917 -0.6142
57243SOL    HW276287   6.770  11.301   7.836  0.9569 -2.5548  1.5341
57244SOL     OW76288   8.287  10.712  11.234  0.4165  0.1857  0.0923
57244SOL    HW176289   8.215  10.719  11.297 -1.3953 -3.0335 -1.3855
57244SOL    HW276290   8.342  10.642  11.268 -0.5047 -1.4864 -1.6577
57245SOL     OW76291   4.364   9.261   3.839  0.1944 -0.2029 -0.2596
57245SOL    HW176292   4.269   9.276   3.836 -0.4430 -2.4121  2.9817
57245SOL    HW276293   4.377   9.183   3.784  0.3448  0.6588 -1.4829
57246SOL     OW76294   1.897  11.520   7.265  0.4489 -0.2254 -0.4514
57246SOL    HW176295   1.908  11.611   7.237  0.7157 -0.1077  0.0397
57246SOL    HW276296   1.830  11.485   7.205 -0.5825  0.6524  0.1554
57247SOL     OW76297  11.031   3.931   6.621  0.3075  0.0227  0.2287
57247SOL    HW176298  10.953   3.895   6.662 -0.6714  1.5024 -0.2627
57247SOL    HW276299  11.022   3.909   6.528  0.8513 -0.4377  0.2802
57248SOL     OW76300   3.717  11.155   6.581  0.1055  0.8123  0.1803
57248SOL    HW176301   3.755  11.207   6.511 -0.1425 -0.7419 -1.1499
57248SOL    HW276302   3.644  11.109   6.541  0.4854 -0.7765  1.2342
57249SOL     OW76303   5.681   6.673   1.985 -0.2605 -0.3972  0.2808
57249SOL    HW176304   5.679   6.727   2.064 -0.7181  0.1684 -0.1061
57249SOL    HW276305   5.591   6.676   1.953  0.6332  2.8518 -2.5603
57250SOL     OW76306   5.771   2.365  10.025  0.0052  0.2814 -0.3855
57250SOL    HW176307   5.831   2.293  10.043  0.0781  0.3952 -0.1610
57250SOL    HW276308   5.735   2.388  10.111  2.2216  2.4713  0.0751
57251SOL     OW76309   8.900  11.414   4.218 -0.0882 -0.1545  0.5179
57251SOL    HW176310   8.877  11.323   4.197  0.4170 -0.6198  1.8612
57251SOL    HW276311   8.992  11.421   4.194 -0.0966 -0.0408  0.5217
57252SOL     OW76312  10.037   4.040   5.240 -0.0451  0.2617  0.3283
57252SOL    HW176313  10.006   3.965   5.291  1.2833 -1.2191 -0.9162
57252SOL    HW276314  10.129   4.049   5.263  0.6893 -0.6554 -1.9348
57253SOL     OW76315   4.043   1.705  10.128  0.4987 -0.4875  0.1747
57253SOL    HW176316   4.062   1.797  10.108 -1.4888 -0.0449  0.0994
57253SOL    HW276317   4.029   1.665  10.042 -0.0046 -0.5251  0.2738
57254SOL     OW76318   7.033   1.900  10.191  0.4457 -0.4650 -0.5478
57254SOL    HW176319   7.026   1.967  10.124  0.1363  1.7301  1.5540
57254SOL    HW276320   7.124   1.872  10.188  1.2540  1.8938  0.1427
57255SOL     OW76321   6.332   7.705  10.546  0.2522  0.2296 -0.2756
57255SOL    HW176322   6.259   7.757  10.580  1.3295  0.1355  2.4188
57255SOL    HW276323   6.408   7.763  10.552  1.3274 -1.2972  1.9909
57256SOL     OW76324   8.415   5.317  11.203 -0.7680  0.0420 -0.3412
57256SOL    HW176325   8.401   5.409  11.181 -0.2356  0.1847 -0.1028
57256SOL    HW276326   8.507   5.312  11.231 -0.8911 -0.4929 -0.0073
57257SOL     OW76327   3.515   8.837   2.817  0.0043  0.4984 -0.3222
57257SOL    HW176328   3.520   8.747   2.785  0.4230  0.3518  0.1483
57257SOL    HW276329   3.519   8.829   2.912 -1.1789  0.9359 -0.2186
57258SOL     OW76330   6.431  11.041   0.751 -0.5669 -0.1614 -0.5548
57258SOL    HW176331   6.449  11.134   0.770  0.1491  0.0145 -1.9836
57258SOL    HW276332   6.336  11.033   0.761 -0.5053  0.4181  0.7919
57259SOL     OW76333   3.634  10.795  11.198 -0.1485  0.1995 -1.0859
57259SOL    HW176334   3.629  10.864  11.264 -0.9520 -0.4594 -0.4428
57259SOL    HW276335   3.627  10.714  11.247  1.7234 -0.4080 -1.7366
57260SOL     OW76336   0.143   7.437   8.164 -0.1840  0.1655  0.0715
57260SOL    HW176337   0.127   7.532   8.161 -0.2421  0.1448 -0.2765
57260SOL    HW276338   0.088   7.401   8.095 -0.4610 -0.1698  0.4627
57261SOL     OW76339   7.273   3.936  11.589 -0.2931 -0.7706  0.8761
57261SOL    HW176340   7.350   3.953  11.644 -0.2108  0.0563  0.5071
57261SOL    HW276341   7.213   3.888  11.646  0.4672 -1.3809  1.1874
57262SOL     OW76342   8.300   6.127   9.473 -0.8634  0.7434 -0.0471
57262SOL    HW176343   8.276   6.207   9.519 -2.4088  0.1822  0.2202
57262SOL    HW276344   8.335   6.070   9.542  0.5737  1.2932 -0.3001
57263SOL     OW76345   6.642   9.652   5.223  0.5657  0.2816  0.1787
57263SOL    HW176346   6.659   9.733   5.175 -1.3902 -0.0495 -1.1875
57263SOL    HW276347   6.549   9.657   5.246  0.4051 -1.5390  0.1018
57264SOL     OW76348   6.031   4.344   1.919 -0.0770 -0.4062 -0.2185
57264SOL    HW176349   5.983   4.270   1.881 -0.5195  0.1279 -0.7145
57264SOL    HW276350   6.042   4.405   1.847 -1.0319  0.6825  0.5161
57265SOL     OW76351   4.592   7.563   3.873  0.4179  0.0147 -0.0255
57265SOL    HW176352   4.662   7.551   3.937 -0.4272  0.1364  0.9602
57265SOL    HW276353   4.576   7.657   3.873 -0.1886 -0.0826  0.2699
57266SOL     OW76354   1.345   3.269   3.089 -0.0365 -0.0531  0.7589
57266SOL    HW176355   1.337   3.236   3.178 -1.7819 -1.3023  0.1886
57266SOL    HW276356   1.361   3.191   3.036 -0.2516  0.5202 -0.1717
57267SOL     OW76357   9.052  11.405   7.165  0.0178  0.1024  0.5618
57267SOL    HW176358   9.134  11.422   7.118 -0.6055 -2.0710 -1.5572
57267SOL    HW276359   9.077  11.346   7.237  0.4551  0.2138  0.5034
57268SOL     OW76360   5.133   5.720   7.642 -0.0007  0.2995 -0.0351
57268SOL    HW176361   5.117   5.645   7.699 -1.0429  1.3284  1.0844
57268SOL    HW276362   5.069   5.710   7.571  0.0853 -0.0459 -0.0637
57269SOL     OW76363   5.697   0.031  10.927  0.2370  0.1324 -0.6314
57269SOL    HW176364   5.683   0.123  10.949 -0.0500  0.1058 -0.7001
57269SOL    HW276365   5.787   0.028  10.893 -0.0645  0.5398 -1.4752
57270SOL     OW76366   1.126   8.245   4.627  0.2607 -0.1941 -0.5864
57270SOL    HW176367   1.068   8.175   4.656  1.0082 -0.6647 -0.1857
57270SOL    HW276368   1.093   8.270   4.540  0.3232 -1.4236 -0.9701
57271SOL     OW76369   8.260   8.429   7.815 -0.6430 -0.0235 -0.2779
57271SOL    HW176370   8.286   8.489   7.884  1.6426 -0.3793 -0.7418
57271SOL    HW276371   8.231   8.485   7.743  1.2129  0.5514 -0.6104
57272SOL     OW76372   7.161   0.423   2.942  0.2258  0.6383 -0.3960
57272SOL    HW176373   7.169   0.331   2.968 -1.1423  0.7738  0.6425
57272SOL    HW276374   7.158   0.422   2.847  1.1695 -0.2986 -0.4272
57273SOL     OW76375   1.360   8.774   3.963 -0.2752 -0.3318 -0.4144
57273SOL    HW176376   1.444   8.729   3.959  1.1426  2.1616 -3.9983
57273SOL    HW276377   1.295   8.703   3.957  1.7051 -2.1333 -2.5127
57274SOL     OW76378   0.791   6.630   5.995  0.1770  0.4970 -0.2122
57274SOL    HW176379   0.807   6.573   5.920 -3.6013 -0.0552 -0.7931
57274SOL    HW276380   0.772   6.570   6.068  0.0163  1.0459  0.2058
57275SOL     OW76381   0.168   3.245  11.445 -0.2303  0.1560 -0.3107
57275SOL    HW176382   0.135   3.182  11.381 -0.7806  0.5896 -0.4603
57275SOL    HW276383   0.195   3.192  11.520 -2.2271 -0.1531  0.2352
57276SOL     OW76384  11.691   9.936  10.124  0.2110  0.0825  0.8259
57276SOL    HW176385  11.718   9.989  10.198  1.6590 -1.7683  1.7059
57276SOL    HW276386  11.771   9.918  10.076 -0.5071  0.1227 -0.4447
57277SOL     OW76387  12.111   8.443   1.267  0.1571  0.2871  0.1569
57277SOL    HW176388  12.070   8.356   1.264  1.5125 -0.3472 -0.6765
57277SOL    HW276389  12.039   8.502   1.292 -1.0226 -0.9219 -0.2397
57278SOL     OW76390  10.950   8.421   0.345 -0.7249 -0.2979 -0.4050
57278SOL    HW176391  11.017   8.363   0.383 -0.2059  1.3887  1.4740
57278SOL    HW276392  10.871   8.368   0.342  0.1828 -1.7001 -0.6807
57279SOL     OW76393   1.539   3.308   1.005  0.2196  0.4915  0.2661
57279SOL    HW176394   1.626   3.269   0.996  0.3707  1.0495 -0.8071
57279SOL    HW276395   1.483   3.235   1.030  0.9294  0.0521  0.6072
57280SOL     OW76396   9.542   8.423   8.959  0.1760 -0.2967 -0.3095
57280SOL    HW176397   9.534   8.518   8.952 -1.5377 -0.4656 -1.0683
57280SOL    HW276398   9.562   8.407   9.052 -0.0525  0.7687 -0.0685
57281SOL     OW76399   0.829   1.701   9.825  0.1964 -0.4141  0.0191
57281SOL    HW176400   0.892   1.726   9.892 -0.2284  0.7164  0.0147
57281SOL    HW276401   0.744   1.724   9.863 -0.1174 -0.7436 -0.4810
57282SOL     OW76402   9.939   8.741  10.531  0.0077  0.3600  0.1141
57282SOL    HW176403   9.882   8.775  10.462  0.1871  1.1964  0.3695
57282SOL    HW276404  10.027   8.744  10.493  0.0067  0.0187  0.0804
57283SOL     OW76405   3.548  10.831   8.791 -0.4554  0.3487  0.2511
57283SOL    HW176406   3.622  10.890   8.782 -0.8294  0.7240 -0.4805
57283SOL    HW276407   3.577  10.765   8.854  0.5560  0.4010 -0.1452
57284SOL     OW76408   4.985  10.417   9.765  0.1785 -0.5312  0.0128
57284SOL    HW176409   5.037  10.364   9.825  0.8479  0.1781  0.0773
57284SOL    HW276410   5.049  10.449   9.701 -0.4234 -0.7826 -0.7270
57285SOL     OW76411   1.073   5.465   4.501  0.5774 -0.3586 -0.0503
57285SOL    HW176412   1.118   5.383   4.481 -0.2932 -1.0487  0.7109
57285SOL    HW276413   1.042   5.453   4.591  0.0147  0.6203 -0.1063
57286SOL     OW76414   0.701   2.248  10.465 -0.2072  0.2015 -0.3101
57286SOL    HW176415   0.705   2.211  10.377 -0.8889 -0.0189 -0.2527
57286SOL    HW276416   0.792   2.256  10.492 -0.0350 -1.3867 -0.3415
57287SOL     OW76417   0.448   7.233   7.045 -0.1323 -0.0883 -0.1468
57287SOL    HW176418   0.454   7.142   7.075 -0.2473 -0.3978 -1.0369
57287SOL    HW276419   0.508   7.281   7.102  0.7329 -0.9059 -0.3522
57288SOL     OW76420   1.968   8.905  11.665 -0.8460  0.1801  0.1546
57288SOL    HW176421   1.892   8.848  11.653 -0.0596 -0.9031  0.1843
57288SOL    HW276422   1.938   8.972  11.727 -1.1853 -1.4064  1.7879
57289SOL     OW76423   0.055  10.413   6.630  0.0862 -0.4306 -0.1800
57289SOL    HW176424   0.063  10.373   6.717  1.1837 -0.6406 -0.3712
57289SOL    HW276425   0.061  10.339   6.570  0.9102 -0.1193 -0.4896
57290SOL     OW76426   4.998   3.855   3.701  0.4268 -0.3271  0.6438
57290SOL    HW176427   5.016   3.775   3.651 -0.6444 -0.2588  0.1349
57290SOL    HW276428   5.079   3.870   3.751  1.4807 -0.4720 -0.9430
57291SOL     OW76429   8.330   8.496   1.873  0.2021  0.7655  0.1958
57291SOL    HW176430   8.239   8.473   1.888  1.1974 -3.1409  1.2775
57291SOL    HW276431   8.346   8.477   1.780  0.5708 -1.5901  0.6867
57292SOL     OW76432   1.384  12.095   1.874  0.5741 -0.4001  0.5937
57292SOL    HW176433   1.447  12.053   1.934  0.7883 -0.6566  0.1949
57292SOL    HW276434   1.438  12.150   1.818  0.4348 -0.5740  0.2889
57293SOL     OW76435   9.815   3.384   9.609  0.2630 -0.3027  0.6281
57293SOL    HW176436   9.735   3.347   9.572 -0.5509  1.9401 -0.0135
57293SOL    HW276437   9.786   3.457   9.663  1.8106 -0.1879  1.3674
57294SOL     OW76438   4.788   9.680   4.725  0.0911 -0.0895 -0.1602
57294SOL    HW176439   4.719   9.718   4.671 -1.4097 -2.7560 -0.2992
57294SOL    HW276440   4.835   9.756   4.760 -1.6849  1.8067 -1.5933
57295SOL     OW76441   9.045   1.821   4.134 -0.3944 -0.3310  0.2403
57295SOL    HW176442   9.012   1.734   4.113  0.4586 -0.6974  0.3937
57295SOL    HW276443   9.075   1.814   4.225  1.5430 -0.4446 -0.3836
57296SOL     OW76444  10.136   2.769  11.076  0.2339 -0.4350 -0.6008
57296SOL    HW176445  10.096   2.780  10.990 -1.3995 -0.0098  0.1884
57296SOL    HW276446  10.077   2.710  11.123  0.4055  0.3480  0.6521
57297SOL     OW76447   5.927   6.568   9.305  0.2906  0.7425  0.4962
57297SOL    HW176448   5.845   6.615   9.323  0.2322  0.7241  0.2872
57297SOL    HW276449   5.990   6.604   9.367 -0.2158 -0.1980  1.5827
57298SOL     OW76450   8.335   6.689   8.713  0.4340 -0.0636  1.0262
57298SOL    HW176451   8.266   6.625   8.696  0.8434  0.0204 -1.2151
57298SOL    HW276452   8.401   6.640   8.762 -0.1200 -0.8113  1.0455
57299SOL     OW76453  11.685   1.750   9.763  0.6047 -0.2045  0.0185
57299SOL    HW176454  11.608   1.753   9.820 -1.1409 -0.9435 -2.1522
57299SOL    HW276455  11.746   1.692   9.808  0.0128  0.5387  1.8833
57300SOL     OW76456   1.022   7.723   1.653 -0.3042  0.1016 -0.2136
57300SOL    HW176457   0.940   7.677   1.634 -0.0391  0.3024 -2.0053
57300SOL    HW276458   0.999   7.787   1.719 -1.6743  0.3634 -0.9178
57301SOL     OW76459   1.325  11.457   5.404 -0.1333  0.4902  0.3365
57301SOL    HW176460   1.305  11.461   5.498  0.0347 -0.8372  0.4529
57301SOL    HW276461   1.418  11.432   5.401 -0.3363 -0.2325 -0.1746
57302SOL     OW76462   5.999  10.983   5.644  0.0909  0.1835 -0.6823
57302SOL    HW176463   6.054  10.924   5.695  0.7865  0.8942 -0.5817
57302SOL    HW276464   5.917  10.988   5.693 -0.9569 -2.6208 -1.9762
57303SOL     OW76465   4.819   0.046  11.405 -0.1845  0.1658 -0.1262
57303SOL    HW176466   4.804   0.117  11.343  0.4594 -2.1084 -3.1296
57303SOL    HW276467   4.912   0.051  11.427 -0.2179  0.4584 -0.0554
57304SOL     OW76468   4.583   2.103   4.682 -0.1360 -0.0336 -0.4043
57304SOL    HW176469   4.602   2.037   4.616  0.2915  0.0460 -0.3670
57304SOL    HW276470   4.490   2.124   4.670 -0.2027 -0.4391 -0.5950
57305SOL     OW76471  10.626   4.070   6.548  0.0677  0.0940 -0.0389
57305SOL    HW176472  10.562   4.017   6.596 -0.4496 -0.1409 -0.9590
57305SOL    HW276473  10.668   4.008   6.488 -0.2535  0.6343 -0.8384
57306SOL     OW76474   9.131   0.561   1.798 -0.0119 -0.0792  0.3579
57306SOL    HW176475   9.061   0.584   1.859  0.7976 -0.4995  1.4729
57306SOL    HW276476   9.211   0.569   1.849  0.8246  0.9287 -1.0510
57307SOL     OW76477  11.305   7.433   5.388  0.3305  0.0647  1.0281
57307SOL    HW176478  11.260   7.379   5.453  3.1813 -0.9150  2.3344
57307SOL    HW276479  11.270   7.521   5.403 -1.7713 -0.7473  1.2942
57308SOL     OW76480   0.833  11.433   3.462  0.1073 -0.8219  0.1691
57308SOL    HW176481   0.912  11.405   3.508 -0.3047 -1.5495  0.4570
57308SOL    HW276482   0.764  11.375   3.495 -0.6507  0.1163  0.2909
57309SOL     OW76483   2.399   1.893   7.098 -0.8858  0.7294 -0.0296
57309SOL    HW176484   2.490   1.917   7.085 -0.2941 -1.2392  0.1322
57309SOL    HW276485   2.401   1.798   7.111 -2.7110  0.9197  2.2231
57310SOL     OW76486   7.873   4.757   0.834  0.6825 -0.4649  0.0187
57310SOL    HW176487   7.961   4.769   0.869  1.1513 -0.4493 -1.1517
57310SOL    HW276488   7.886   4.723   0.746 -0.4769 -0.1707 -0.2815
57311SOL     OW76489   9.630  10.194   4.911 -0.6806  0.1793 -0.0302
57311SOL    HW176490   9.588  10.115   4.947  0.5305  0.4087  2.0383
57311SOL    HW276491   9.707  10.161   4.865  0.5738  0.1632  1.9642
57312SOL     OW76492   0.412   6.051   5.966 -0.2751  0.3244 -0.0692
57312SOL    HW176493   0.438   6.144   5.964 -0.1667  0.3456 -3.1227
57312SOL    HW276494   0.317   6.053   5.953 -0.2756  0.0274 -0.1131
57313SOL     OW76495   8.187   5.736   0.678 -0.0653  0.1697 -0.2765
57313SOL    HW176496   8.237   5.797   0.624  0.4366 -0.7822 -0.9185
57313SOL    HW276497   8.216   5.649   0.649 -0.7786 -0.3754  0.5959
57314SOL     OW76498   0.918   7.837  11.182 -0.0334 -0.0278 -0.0486
57314SOL    HW176499   0.924   7.744  11.163  0.3575  0.0365 -0.2375
57314SOL    HW276500   0.829   7.861  11.156  0.6134  0.1593 -2.2376
57315SOL     OW76501   5.992   7.952  10.438  0.2671 -0.1496  0.1445
57315SOL    HW176502   6.042   8.005  10.375  0.3266 -1.0261 -0.5693
57315SOL    HW276503   5.903   7.952  10.403  0.3022 -0.6447  0.0422
57316SOL     OW76504  11.669  10.708   2.961 -1.6579 -0.0413  0.2010
57316SOL    HW176505  11.724  10.770   3.009 -0.3679 -0.2276 -0.9848
57316SOL    HW276506  11.594  10.693   3.019 -0.2440 -0.1445  2.0767
57317SOL     OW76507   3.398   5.579   2.585 -0.4952  0.1862 -0.0278
57317SOL    HW176508   3.472   5.613   2.534  0.5835 -0.2406  1.1658
57317SOL    HW276509   3.323   5.629   2.555  0.3929  1.0726 -0.8695
57318SOL     OW76510   3.960   2.050   5.465  0.5910  0.2281  0.1606
57318SOL    HW176511   3.982   2.132   5.420 -0.6997  1.1023  1.0447
57318SOL    HW276512   4.022   1.987   5.430  1.4029  1.4955 -0.8153
57319SOL     OW76513   2.877   9.146  11.169 -0.3591  0.3575  0.2866
57319SOL    HW176514   2.907   9.104  11.089 -1.2664 -0.1818  0.2202
57319SOL    HW276515   2.955   9.188  11.205  0.2590 -0.2092 -0.3745
57320SOL     OW76516   5.565  11.020   3.592 -0.6191  0.4300 -0.5612
57320SOL    HW176517   5.647  11.032   3.639 -1.0401  0.1385  0.2511
57320SOL    HW276518   5.533  10.934   3.618 -2.3842  1.4709  1.0418
57321SOL     OW76519   7.207   9.349   9.135  0.3905  0.2506 -0.3977
57321SOL    HW176520   7.147   9.308   9.197  1.5018 -0.8892 -0.0301
57321SOL    HW276521   7.294   9.334   9.172  1.0005  0.6176 -1.6255
57322SOL     OW76522   9.591   5.526   0.068  0.2264 -0.1209  0.4007
57322SOL    HW176523   9.623   5.552   0.155  2.3131 -0.6665 -0.1480
57322SOL    HW276524   9.582   5.431   0.074 -3.0878  0.1311  1.0468
57323SOL     OW76525   6.970   5.627   1.869 -0.3489  0.0193  0.2838
57323SOL    HW176526   7.030   5.677   1.814  1.4630 -2.0104  0.2667
57323SOL    HW276527   6.897   5.606   1.810  0.9565 -1.0392 -1.0495
57324SOL     OW76528   8.237   2.672  10.119  0.2955  0.3542 -0.0012
57324SOL    HW176529   8.324   2.633  10.131  0.2621  0.2810  0.0017
57324SOL    HW276530   8.176   2.599  10.135  0.1771  0.7390  1.4883
57325SOL     OW76531   7.713   6.540   0.181  0.2949 -0.2442 -0.3306
57325SOL    HW176532   7.724   6.635   0.171  1.7983 -0.4452 -0.8306
57325SOL    HW276533   7.765   6.517   0.258 -0.1928 -0.6521 -0.1149
57326SOL     OW76534   2.613  10.372   5.380  0.4193  0.2113  0.1752
57326SOL    HW176535   2.563  10.292   5.400  1.0177 -0.1633  0.1924
57326SOL    HW276536   2.636  10.363   5.287  0.4836  0.3666  0.1767
57327SOL     OW76537  11.592   0.591   2.154  0.3021  0.2111  0.5401
57327SOL    HW176538  11.615   0.498   2.156  1.7788  0.5008 -0.6867
57327SOL    HW276539  11.621   0.625   2.238 -1.5286 -0.6764  1.5778
57328SOL     OW76540   9.810   4.611   3.300  0.6539 -0.0989  0.4567
57328SOL    HW176541   9.863   4.562   3.238 -1.2761 -1.5504 -0.1258
57328SOL    HW276542   9.746   4.549   3.332  1.0480  0.8276  3.3436
57329SOL     OW76543  11.368  10.655   8.412 -0.2542 -0.6857 -0.6868
57329SOL    HW176544  11.457  10.680   8.388 -0.2948  1.4049  0.9510
57329SOL    HW276545  11.374  10.563   8.435  1.5588 -0.5308 -0.3558
57330SOL     OW76546  10.425   0.577  11.283  0.5698 -0.2911  0.2473
57330SOL    HW176547  10.478   0.529  11.219  0.7358 -0.0504  0.2043
57330SOL    HW276548  10.427   0.522  11.362  2.6053  0.6763  0.9411
57331SOL     OW76549   6.904   7.587   9.983 -0.2803 -0.3250  0.1348
57331SOL    HW176550   6.905   7.502   9.939  2.9332  0.4656 -1.6439
57331SOL    HW276551   6.913   7.650   9.912 -0.6444  1.4075  1.5626
57332SOL     OW76552   3.879   2.674   1.322 -0.3404  0.2976 -0.1704
57332SOL    HW176553   3.805   2.733   1.336 -0.5582  0.0303 -0.2054
57332SOL    HW276554   3.845   2.604   1.266 -0.5371 -0.7675  1.2275
57333SOL     OW76555   2.046   1.471   8.064  0.1450 -0.0123  0.1540
57333SOL    HW176556   2.014   1.501   7.979  1.1826 -0.6221 -0.4714
57333SOL    HW276557   1.999   1.524   8.128 -0.9901  0.1362 -0.7798
57334SOL     OW76558   9.695   7.418   6.921 -1.0500 -0.7736 -0.3887
57334SOL    HW176559   9.766   7.355   6.911  0.1656  0.6143 -0.9881
57334SOL    HW276560   9.687   7.431   7.015  1.1036  0.7127 -0.3419
57335SOL     OW76561   3.514   7.158  10.669  0.8703  0.3226 -0.1666
57335SOL    HW176562   3.513   7.111  10.586 -0.9574  0.6328 -0.3668
57335SOL    HW276563   3.557   7.098  10.730  2.4708  0.1930 -1.3481
57336SOL     OW76564   4.586   1.499   1.425  0.2738  0.1407 -0.0001
57336SOL    HW176565   4.525   1.428   1.406  0.5199  0.1458 -0.8519
57336SOL    HW276566   4.671   1.456   1.436  0.9108  0.4460 -2.8845
57337SOL     OW76567  10.217   9.164   3.999  0.7637 -0.0521  0.8159
57337SOL    HW176568  10.286   9.229   3.987  0.2153  0.8690  2.4175
57337SOL    HW276569  10.223   9.138   4.091 -0.2927 -0.8023  0.6947
57338SOL     OW76570   8.488   7.330   7.200 -0.7172 -0.1062  0.1817
57338SOL    HW176571   8.497   7.379   7.118 -1.4124 -0.6165 -0.2077
57338SOL    HW276572   8.558   7.364   7.255  1.4823 -1.5563 -1.5207
57339SOL     OW76573   7.394   2.115   3.047  0.2780  0.4425 -0.1746
57339SOL    HW176574   7.394   2.044   3.112 -2.0215 -0.6783 -1.2611
57339SOL    HW276575   7.476   2.104   2.999  0.4097 -0.9153  0.3083
57340SOL     OW76576   4.094   2.868   5.960  0.0664 -0.2228  0.1739
57340SOL    HW176577   4.090   2.777   5.990 -0.9871  0.0693  0.9748
57340SOL    HW276578   4.188   2.889   5.960  0.2272 -0.8278  1.4821
57341SOL     OW76579   9.084   1.534   0.709 -0.3348 -1.0370  0.0034
57341SOL    HW176580   8.990   1.532   0.723 -0.2067  1.0551  1.5653
57341SOL    HW276581   9.120   1.482   0.781 -0.2376 -0.8199  0.1118
57342SOL     OW76582   7.462   1.044   1.756 -0.5165 -0.3850 -0.4243
57342SOL    HW176583   7.502   1.131   1.760  1.2022 -1.1524 -0.3012
57342SOL    HW276584   7.451   1.018   1.848 -1.7538 -0.0180 -0.4409
57343SOL     OW76585   3.561  10.475   4.769  0.0886  0.1562  0.2083
57343SOL    HW176586   3.561  10.566   4.799  1.4957  0.5334 -0.7985
57343SOL    HW276587   3.521  10.478   4.682  0.9488 -0.0221 -0.2053
57344SOL     OW76588  11.034  10.365   2.988 -0.2027 -0.1601  0.4205
57344SOL    HW176589  11.029  10.409   3.073  0.4573  1.0010 -0.1211
57344SOL    HW276590  10.945  10.332   2.973 -1.0399  1.9462  0.3764
57345SOL     OW76591   6.408   0.761   2.934 -0.1908  0.2052  0.0997
57345SOL    HW176592   6.432   0.671   2.958 -0.1429  0.3511  0.6149
57345SOL    HW276593   6.384   0.802   3.017 -2.5463 -0.0151 -0.4145
57346SOL     OW76594   4.825   6.956   9.130  0.4049  0.0324  0.6996
57346SOL    HW176595   4.819   7.008   9.210 -1.0080 -0.1553  0.7334
57346SOL    HW276596   4.873   7.012   9.069  0.2745  0.7397  1.2309
57347SOL     OW76597  10.615   5.352   5.077  0.3233  0.1558 -0.4077
57347SOL    HW176598  10.646   5.262   5.070 -0.6453 -0.1967 -0.3192
57347SOL    HW276599  10.523   5.344   5.104  0.8836  1.1918  2.0746
57348SOL     OW76600  10.243  12.059   7.556  0.0661 -0.4987  0.2461
57348SOL    HW176601  10.183  12.133   7.553  0.5000 -0.1367  0.3188
57348SOL    HW276602  10.198  11.989   7.508 -0.5437 -0.3370  0.5689
57349SOL     OW76603   9.901   3.781   8.526 -0.1063 -0.4132  0.4732
57349SOL    HW176604   9.870   3.867   8.496  0.0821 -1.4444 -3.2231
57349SOL    HW276605   9.823   3.738   8.561 -0.3777  0.9118  1.5763
57350SOL     OW76606  10.559   0.539   9.019 -0.4346  0.7214  0.2196
57350SOL    HW176607  10.516   0.590   9.087  0.3488 -0.7345  1.8642
57350SOL    HW276608  10.531   0.449   9.034  1.4539  0.0505  0.0221
57351SOL     OW76609   1.072   0.478   2.959  0.0735  0.2258 -0.5269
57351SOL    HW176610   1.092   0.385   2.944  0.1840  0.2724 -0.6709
57351SOL    HW276611   1.157   0.521   2.959  0.3344 -0.0821  2.6881
57352SOL     OW76612   5.918   0.624   8.812  0.1236  0.3055 -0.5934
57352SOL    HW176613   5.994   0.680   8.792 -1.6242  3.2716  0.4565
57352SOL    HW276614   5.918   0.616   8.907 -0.2077 -0.7472 -0.6697
57353SOL     OW76615   9.804   8.837   6.565 -0.1917 -0.6260 -0.3259
57353SOL    HW176616   9.864   8.774   6.604 -0.9140 -0.9907  0.2332
57353SOL    HW276617   9.848   8.922   6.574  0.6231 -1.0023 -0.7483
57354SOL     OW76618   9.424  10.801  10.796  0.6965 -0.2645  1.0423
57354SOL    HW176619   9.414  10.876  10.738 -1.3575 -1.7925 -0.7039
57354SOL    HW276620   9.335  10.770  10.813  1.4436 -4.1757 -0.9390
57355SOL     OW76621   1.200   7.846   6.300  0.2342 -0.2522  0.1651
57355SOL    HW176622   1.252   7.874   6.375 -0.9571 -0.3993  1.0852
57355SOL    HW276623   1.220   7.753   6.290  0.7699 -0.1194 -0.0223
57356SOL     OW76624   2.033   4.695   4.721  0.4800 -0.1113  0.3358
57356SOL    HW176625   1.984   4.649   4.790  0.8389 -0.4449  0.3750
57356SOL    HW276626   1.980   4.772   4.701  0.0184 -0.3816  0.4885
57357SOL     OW76627   9.944   3.046   8.522 -0.4861 -0.4584  0.1259
57357SOL    HW176628  10.035   3.037   8.550  0.4871 -0.6187 -2.7921
57357SOL    HW276629   9.928   3.141   8.522 -0.1780 -0.4065  0.2329
57358SOL     OW76630  12.103   9.195  11.075  0.0990  0.7278 -0.0624
57358SOL    HW176631  12.065   9.207  10.988  0.9708 -0.9848 -0.7222
57358SOL    HW276632  12.085   9.277  11.121 -2.4562  0.7951 -1.0295
57359SOL     OW76633   8.837   1.378   2.488  0.1437  0.9359 -0.5347
57359SOL    HW176634   8.796   1.294   2.509 -0.5952  1.9915  2.7169
57359SOL    HW276635   8.930   1.363   2.503 -0.1208  0.9879  1.4303
57360NA      NA76636   1.977   7.048   4.501 -0.2080  0.2664 -0.5236
57361NA      NA76637   2.347   2.066   7.635  0.1038  0.5046 -0.0753
57362NA      NA76638   6.918   0.244   0.797  0.2053 -0.3718 -0.4511
57363NA      NA76639   2.877  10.115  11.369  0.0643 -0.1390  0.0624
57364NA      NA76640  10.874   9.844   2.625 -0.3742 -0.1899 -0.0491
57365NA      NA76641  11.723   3.630   9.631 -0.1320 -0.1270 -0.4853
57366NA      NA76642   6.516   1.865  11.328  0.3101  0.1485 -0.2057
57367NA      NA76643   7.718   3.508   6.981 -0.3062  0.4102 -0.1018
57368NA      NA76644   8.459   1.426   5.383 -0.0504  0.5570  0.0993
57369NA      NA76645  10.064   5.070   4.737 -0.2267 -0.1740 -0.2884
57370NA      NA76646   8.043   7.458  11.128  0.3689  0.1611 -0.3418
57371NA      NA76647   1.762   9.781   6.247  0.1253  0.1128 -0.2341
57372NA      NA76648   8.912   1.396   4.573 -0.3833  0.1389 -0.1350
57373NA      NA76649   7.743   4.556   9.600  0.0655  0.0119 -0.0411
57374NA      NA76650   5.564   2.455   2.432 -0.2600 -0.1339 -0.2152
57375NA      NA76651   0.524   5.663   2.718 -0.5605  0.5332  0.2391
57376NA      NA76652   8.429   7.314   8.611  0.0924 -0.2116  0.0510
57377NA      NA76653  11.037   4.304   0.745  0.3202 -0.0422 -0.1932
57378NA      NA76654   4.996   5.299   8.652 -0.2315  0.3505  0.1822
57379NA      NA76655   8.953   1.230   5.702  0.2493  0.4319 -0.0086
57380NA      NA76656  10.078  12.079  10.077 -0.3894  0.3156 -0.1837
57381NA      NA76657   1.499   8.627   7.344  0.1562 -0.0178  0.0176
57382NA      NA76658   1.678  10.743   3.627 -0.7007 -0.5440 -0.0615
57383NA      NA76659   6.960   9.135   6.848  0.1913  0.0784  0.3769
57384NA      NA76660   7.552   6.285   4.489  0.0114 -0.2828  0.1272
57385NA      NA76661  10.574   8.244   3.538  0.0490  0.0585 -0.2647
57386NA      NA76662   5.565   0.378   8.244  0.2770 -0.3453  0.5806
57387NA      NA76663   6.451  10.659   9.433 -0.2715  0.4095  0.0624
57388NA      NA76664   5.622   6.595  11.397  0.0370 -0.3170 -0.0885
57389NA      NA76665   5.604   8.488  11.053  0.3416  0.1558  0.5072
57390NA      NA76666   6.738   2.165   4.452  0.0005  0.3855  0.1854
57391NA      NA76667   3.701   4.124   4.090  0.2223 -0.0803  0.1201
57392NA      NA76668   1.502   4.685   8.500 -0.4374 -0.0128  0.3414
57393NA      NA76669  11.124   1.981   3.382  0.2573 -0.1825  0.0997
57394NA      NA76670   3.528   2.709   7.887 -0.3145 -0.6299  0.3308
57395NA      NA76671   0.346   0.047   7.960  0.0086  0.3193  0.0903
57396NA      NA76672   9.909  10.706   6.235  0.5246  0.1428  0.0290
57397NA      NA76673   7.912   4.746   6.382 -0.0129  0.3831  0.1198
57398NA      NA76674  11.315   3.365   4.661 -0.3286  0.3904  0.0947
57399NA      NA76675  11.670   9.349   1.426 -0.0766  0.2598 -0.4079
57400NA      NA76676   8.556   3.026   1.670 -0.1888 -0.1969 -0.0743
57401NA      NA76677   7.531  10.902   0.066  0.4714  0.0235  0.3553
57402NA      NA76678   1.115   2.824  11.597  0.4371  0.0038  0.3145
57403NA      NA76679  11.716  10.085   9.749  0.4804  0.3080 -0.1894
57404NA      NA76680   9.267   0.099   9.730 -0.1242 -0.0393  0.3431
57405NA      NA76681   8.388   0.581   4.260  0.0549 -0.1938  0.2044
57406NA      NA76682  10.052   0.092   8.325 -0.3709 -0.3351  0.1141
57407NA      NA76683   4.710   9.416   0.599  0.9753  0.3834 -0.3011
57408NA      NA76684  11.280   8.134   2.049 -0.0914 -0.6031  0.0776
57409NA      NA76685   2.641   6.399   4.406  0.1337  0.1873  0.6498
57410NA      NA76686   5.921   8.012   7.164 -0.0339  0.3210 -0.3212
57411NA      NA76687  10.998   2.051   6.161 -0.1722 -0.4438 -0.4788
57412NA      NA76688   1.799   5.563   1.778 -0.2565  0.0907 -0.4348
57413NA      NA76689   5.426   2.603   9.815  0.0956 -0.0365  0.5507
57414NA      NA76690   6.990   0.254  10.688  0.8107 -0.6090 -0.1879
57415NA      NA76691  12.014   1.258   5.395  0.2496 -0.4198 -0.1011
57416NA      NA76692   4.199   0.849   6.439  0.0175 -0.0923 -0.1221
57417NA      NA76693   8.460   2.857   9.768 -0.5888 -0.1167  0.5370
57418NA      NA76694   3.868   6.394   9.534  0.6081  0.0693  0.5926
57419NA      NA76695   6.696  10.083   7.183 -0.0895 -0.0224  0.1978
57420NA      NA76696   3.393   6.798   0.579  0.3245 -0.0298  0.1657
57421NA      NA76697   2.579  11.272   3.787  0.0879 -0.2447 -0.1110
57422NA      NA76698   1.087   0.315   9.686  0.1361  0.0279 -0.1958
57423NA      NA76699  11.510   6.445   7.991  0.9923 -0.1696  0.2275
57424NA      NA76700  11.426   1.611  11.718 -0.3710  0.0692 -0.2363
57425NA      NA76701   8.642   8.723   0.956  0.0124  0.2541  0.0976
57426NA      NA76702   6.926   7.675   8.812 -0.0935 -0.1895  0.4410
57427NA      NA76703  11.225   8.483   6.827  0.0493  0.0882  0.1790
57428NA      NA76704   0.412  11.697   1.650  0.6173  0.1036 -0.2115
57429NA      NA76705   9.825   6.953   5.097 -0.4405  0.5985 -0.2323
57430NA      NA76706   9.629   4.073   2.211 -0.0545  0.1473 -0.8132
57431NA      NA76707   1.856   2.624   4.639  0.0071 -0.3882 -0.3556
57432NA      NA76708  11.131   0.754   4.259  0.6713  0.1871  0.5508
57433NA      NA76709   3.565   7.677   1.718 -0.1257 -0.1830  0.1776
57434NA      NA76710   4.425  10.553   5.342 -0.2213  0.1208 -0.3215
57435NA      NA76711   2.724   0.396   6.893  0.4640 -0.0602 -0.0365
57436NA      NA76712   3.761   5.373   4.892  0.0849 -0.5814 -0.0357
57437NA      NA76713   9.681   2.700   9.165 -0.0728 -0.3243 -0.3369
57438NA      NA76714   9.162   9.126   9.595 -0.3537  0.1195 -0.2721
57439NA      NA76715   9.652   5.906   4.316  0.3331 -0.4598  0.4246
57440NA      NA76716   1.275   6.805   4.516  0.5919 -0.0787 -0.0335
57441NA      NA76717   1.298   0.258   4.259  0.1942  0.5161  0.3206
57442NA      NA76718   5.396   2.065   3.294  0.3949  0.0610 -0.0228
57443NA      NA76719   9.562   9.092  10.302  0.0025 -0.6932 -0.4283
57444NA      NA76720   2.421   8.774   7.534 -0.1722  0.4458 -0.1216
57445NA      NA76721   0.479  10.545   0.141 -0.2466  0.1274 -0.3654
57446NA      NA76722  10.144   4.319   5.519 -0.3056  0.2208 -0.1411
57447NA      NA76723   7.929   9.905   6.226  0.4745  0.1325 -0.0524
57448NA      NA76724   1.253   3.990   0.557 -0.0374 -0.1984  0.0249
57449NA      NA76725   9.192   1.922   6.245  0.1929 -0.1708 -0.3052
57450NA      NA76726   0.610   3.031   7.215 -0.0651  0.0981 -0.3653
57451NA      NA76727  10.682   3.135  11.699 -0.4653  0.2273  0.3984
57452NA      NA76728   2.180   5.408   9.420 -0.2409 -0.5374 -0.4389
57453NA      NA76729   3.174   7.855   3.838  0.4551  0.1189  0.3128
57454NA      NA76730   9.218   2.991   4.474  0.3989  0.0255  0.1089
57455NA      NA76731  10.098   1.102   6.803  0.0088 -0.4925  0.3650
57456NA      NA76732   5.808   4.149   8.869 -0.0377 -0.6176 -0.1887
57457NA      NA76733   1.703   8.674   0.790 -0.3816 -0.4376 -0.3686
57458NA      NA76734  11.807  11.355   1.859  0.3958  0.4906  0.3720
57459NA      NA76735   7.036   8.314   2.514  0.3212  0.3961 -0.2610
57460NA      NA76736   3.248  10.469   5.128  0.7474 -0.2966 -0.3979
57461NA      NA76737   5.396  11.103   7.992 -0.5528  0.2137 -0.2937
57462NA      NA76738   2.371   0.607   4.130  0.2712 -0.0685 -0.1190
57463NA      NA76739  11.718  11.791   3.429  0.0393 -0.5117 -0.4072
57464NA      NA76740   5.870   4.316   3.318 -0.6489 -0.0777 -0.0048
57465NA      NA76741   2.638   3.055   7.152 -0.3279  0.6591  0.5637
57466NA      NA76742  10.024   8.456   4.406  0.2595 -0.1262 -0.3459
57467NA      NA76743   5.640   3.395   6.903  0.5113  0.1818 -0.3300
57468NA      NA76744  10.454   3.021   5.682 -0.3252 -0.2031  0.3715
57469NA      NA76745   7.476   0.792   9.654  0.3887  0.1395 -0.3281
57470NA      NA76746   7.888   8.815   7.151  0.1684  0.2867  0.1227
57471NA      NA76747   7.938   4.589   1.275  0.7294 -0.3276 -0.1169
57472NA      NA76748   3.806   8.365   1.659  0.0186  0.4955 -0.3792
57473NA      NA76749   9.678   8.772   0.555  0.4233 -0.3229  0.3905
57474NA      NA76750   7.484  11.513  11.453  0.1190 -0.1964 -0.2174
57475NA      NA76751   8.819   6.294   1.702  0.0366 -0.1797 -0.0823
57476NA      NA76752   2.402   1.098   9.826 -0.0467 -0.2282  0.3840
57477NA      NA76753   1.798   9.097   9.836 -0.0177  0.5421  0.1987
57478NA      NA76754  10.212   3.382   1.229 -0.1937 -0.1446  0.3366
57479NA      NA76755   5.756   9.409   3.466 -0.3418  0.1391 -0.6520
57480NA      NA76756   6.081   5.686   3.573  0.2811 -0.0878 -0.0168
57481NA      NA76757   0.381   2.602   1.435 -0.0100  0.3748  0.4657
57482NA      NA76758   8.301   8.354   2.448 -0.1173 -0.5021  0.4817
57483NA      NA76759  10.753  11.070   1.272 -0.2962 -0.0773  0.0749
57484NA      NA76760   6.509   9.848   2.167 -0.4474 -0.5080  0.1281
57485NA      NA76761   2.427   9.197   0.037 -0.0383 -0.3151  0.3103
57486NA      NA76762   0.868   5.371   7.875  0.0912 -0.3708 -0.1667
57487NA      NA76763   9.054  12.017   0.295  0.2039  0.1465  0.1506
57488NA      NA76764   4.961  10.716   3.712  0.2032  0.6203 -0.3504
57489NA      NA76765   7.605   8.911   4.363  0.1839  0.2043 -0.1149
57490NA      NA76766   1.106   4.419  12.056  0.0414 -0.0243 -0.2353
57491NA      NA76767   9.038   5.628  11.660  0.3314  0.3990  0.0430
57492NA      NA76768  10.796   7.928  10.898  0.4913  0.4209  0.0979
57493NA      NA76769  10.188  11.666   2.843  0.6504  0.7229 -0.2904
57494NA      NA76770   7.262   9.257   1.087  0.1900  0.0178  0.3176
57495NA      NA76771  11.004   3.829   8.755  0.2251  0.0352  0.2215
57496NA      NA76772   6.269   0.759   7.177 -0.1268 -0.2814  0.3454
57497NA      NA76773   2.081   4.127   8.040  0.5032  0.0793  0.2388
57498NA      NA76774  10.526  10.926   2.421 -0.2555  0.3203 -0.4089
57499NA      NA76775   9.385   3.097   0.135 -0.4668 -0.2403  0.2795
57500NA      NA76776   6.773   3.833   4.115 -0.1888  0.2649 -0.1880
57501NA      NA76777  11.469   7.541   9.662  0.0373  0.0732  0.0318
57502NA      NA76778   4.359   1.472   2.384 -0.1247  0.1658  0.2505
57503NA      NA76779   6.500   7.435   5.321  0.4155  0.4756 -0.0998
57504NA      NA76780   9.071   0.966   6.537  0.0641 -0.3277 -0.0210
57505NA      NA76781   2.410  11.751  10.752 -0.2098  0.1036 -0.3054
57506NA      NA76782   3.791   8.477   6.468 -0.7616  0.2434 -0.0436
57507NA      NA76783   7.214   4.779   8.553 -0.2081  0.0464 -0.1498
57508NA      NA76784   0.966   6.177   9.597  0.2445  0.0074  0.5116
57509NA      NA76785   3.068  10.494   8.455  0.0372  0.7128 -0.2911
57510NA      NA76786  10.790   7.204   9.915 -0.4781  0.0938 -0.2333
57511NA      NA76787   1.789   2.248  10.369 -0.3765 -0.1084  0.6107
57512NA      NA76788  11.099   1.904   7.427  0.1283  0.3822 -0.0570
57513NA      NA76789  11.915   6.832   9.760  0.6822 -0.3458  0.3300
57514NA      NA76790   5.808  10.190   7.695 -0.0642  0.1521 -0.0132
57515NA      NA76791   7.702   1.239  10.090  0.1902 -0.7616 -0.0908
57516NA      NA76792   0.450   9.586   0.247 -0.1826  0.3727  0.1407
57517NA      NA76793   6.192  10.136   0.817  0.0422 -0.4151  0.3067
57518NA      NA76794   5.499   0.476  10.935 -0.4213 -0.3212  0.2778
57519NA      NA76795   6.054   7.165   3.387 -0.2009  0.2739 -0.2366
57520NA      NA76796   0.812   8.456   6.810 -0.1687  0.1733  0.0941
57521NA      NA76797   3.116   1.085  11.330 -0.2700  0.0020 -0.0421
57522NA      NA76798   1.582  11.436   6.191  0.4157  0.1809 -0.5855
57523NA      NA76799   4.910   7.175   0.296 -0.2087  0.0813 -0.2919
57524CL      CL76800   4.222   0.298   5.897  0.1296  0.2456 -0.5440
57525CL      CL76801   1.161  10.385   1.746 -0.1635 -0.2054  0.2734
57526CL      CL76802   3.473  11.722   2.452  0.0014  0.1571 -0.1637
57527CL      CL76803  10.657   4.701   7.539  0.3823  0.2676  0.0907
57528CL      CL76804   8.198   5.558   8.978 -0.0267 -0.2839 -0.1483
57529CL      CL76805   3.868   6.583   3.586 -0.1975 -0.3276 -0.1512
57530CL      CL76806   8.267   8.244   9.671  0.1798  0.2849  0.4619
57531CL      CL76807   3.743   9.652   3.374  0.1126  0.1381  0.2477
57532CL      CL76808   2.764   3.259  10.828 -0.2408 -0.2260  0.0749
57533CL      CL76809  10.847   6.652  10.294  0.7678 -0.2467  0.2071
57534CL      CL76810   7.255  11.991   0.733  0.1016 -0.2715  0.0043
57535CL      CL76811  10.393  10.220  11.686 -0.0472 -0.1546  0.0070
57536CL      CL76812   2.433   9.052   0.497 -0.3476 -0.1199  0.0057
57537CL      CL76813   3.061  10.314   4.717 -0.4212 -0.1268  0.2079
57538CL      CL76814  10.700   3.815  12.037  0.1747 -0.2218 -0.0102
57539CL      CL76815   5.523   2.084   5.704  0.0382 -0.1171 -0.2490
57540CL      CL76816   9.837   2.573   1.995 -0.1171 -0.0039 -0.0784
57541CL      CL76817   8.992   1.000   6.317  0.0464 -0.4536  0.1346
57542CL      CL76818   7.916   4.050   3.015  0.3579 -0.0216 -0.1178
57543CL      CL76819   6.353   7.373  11.756 -0.3052  0.4828  0.2656
57544CL      CL76820   3.757   5.021   6.392 -0.4561 -0.0667 -0.1195
57545CL      CL76821   2.583   2.453   0.464 -0.2936  0.2842 -0.0004
57546CL      CL76822  10.226   2.618  11.487  0.2478 -0.0140  0.1050
57547CL      CL76823   9.836  12.027   3.264  0.0242 -0.2947 -0.2670
57548CL      CL76824  11.965   2.880   4.023 -0.2872  0.1302 -0.0462
57549CL      CL76825  10.658   3.157   5.699  0.0372 -0.0464 -0.2023
57550CL      CL76826   5.825   9.002   6.793  0.4501  0.3786  0.2325
57551CL      CL76827   6.084   2.228  11.245  0.0143  0.0366 -0.1103
57552CL      CL76828   3.762   3.610   5.965 -0.2454  0.0203 -0.1668
57553CL      CL76829   7.274  10.367   1.066 -0.1191 -0.2176  0.0914
57554CL      CL76830  10.368   1.817   8.193  0.2463 -0.1595 -0.0747
57555CL      CL76831   7.299   6.555   3.297 -0.1246 -0.1822 -0.1496
57556CL      CL76832   8.884   9.072   6.454  0.3433  0.3611  0.2103
57557CL      CL76833   9.230   3.652   1.169  0.5003  0.0185 -0.4002
57558CL      CL76834   8.527   1.260   4.846 -0.2920  0.1064  0.2824
57559CL      CL76835   1.080   1.870   2.515 -0.1485 -0.5766  0.3055
57560CL      CL76836   0.382  12.077   6.165 -0.1249  0.0859  0.0381
57561CL      CL76837   9.422  11.614  10.893 -0.4934 -0.1272 -0.3878
57562CL      CL76838   7.826   0.848   2.820  0.1584  0.0867 -0.0649
57563CL      CL76839   2.654   2.010   2.692 -0.0435  0.0567 -0.1896
57564CL      CL76840   6.596   1.179  10.754 -0.0360 -0.4520 -0.1358
57565CL      CL76841   8.227   0.685   6.447  0.1640 -0.0406 -0.0947
57566CL      CL76842   0.893   0.330   9.279  0.0309 -0.0872 -0.2039
57567CL      CL76843  10.464   7.821   3.824 -0.3302 -0.3268 -0.2010
57568CL      CL76844   6.040  10.120   0.642 -0.5279  0.0012  0.0624
57569CL      CL76845   6.825   5.985   6.819 -0.0267 -0.3193 -0.3248
57570CL      CL76846   4.414   0.474  11.080 -0.4355  0.6870  0.0106
57571CL      CL76847   4.455   8.310   6.623  0.1158  0.1990 -0.6952
57572CL      CL76848  11.153   5.221   3.115  0.5489  0.3253 -0.1191
57573CL      CL76849   4.668  11.960   0.549 -0.2161  0.0830  0.0613
57574CL      CL76850  11.937   8.893   8.882  0.5655  0.0390 -0.1376
57575CL      CL76851   8.885   7.562   1.617  0.2664 -0.1916 -0.6634
57576CL      CL76852   5.117   4.462   8.039  0.1984  0.1369  0.0323
57577CL      CL76853   3.321   8.971   0.467  0.0507  0.1956  0.7290
57578CL      CL76854   5.636   0.600  10.788 -0.0379  0.4772 -0.1274
57579CL      CL76855  10.573   4.904   1.354 -0.2411 -0.3780 -0.0235
57580CL      CL76856   8.586  11.297   2.795  0.0039 -0.0455  0.1544
57581CL      CL76857  11.896   4.497   7.245 -0.3369 -0.0571 -0.5380
57582CL      CL76858   1.746  10.044   7.297  0.2483  0.1524  0.1318
57583CL      CL76859   1.089   8.285   5.273 -0.2613 -0.0470  0.3049
57584CL      CL76860   9.863   7.126   6.908  0.4091  0.2338 -0.2082
57585CL      CL76861   1.018   7.612  12.053 -0.0778 -0.2480  0.1047
57586CL      CL76862   0.762   9.743   2.437 -0.2554 -0.4499 -0.0939
57587CL      CL76863   0.965   3.313   5.542 -0.2216 -0.2665 -0.0051
57588CL      CL76864   3.990   5.094   3.048 -0.0621 -0.2072  0.2580
57589CL      CL76865   9.081   2.269   5.869  0.1123  0.0791  0.2712
57590CL      CL76866   0.851   1.643   4.592 -0.2615  0.4995  0.1741
57591CL      CL76867   7.037   0.478  11.164 -0.0018  0.2245 -0.5232
57592CL      CL76868   5.767   0.675   2.300 -0.1893 -0.3582  0.0414
57593CL      CL76869  10.714  11.291   0.240 -0.2076 -0.1342 -0.4422
57594CL      CL76870   3.712   6.107   8.263 -0.0274 -0.3659  0.2941
57595CL      CL76871   8.026   7.024   0.373 -0.3433  0.4370 -0.0317
57596CL      CL76872  10.093   9.219   9.247  0.1681 -0.0311  0.3021
57597CL      CL76873  11.018   1.480   6.326 -0.6457 -0.4108  0.2092
57598CL      CL76874   4.846   5.701   9.108  0.4512 -0.1106  0.0482
57599CL      CL76875   2.137   9.527   2.255  0.1941  0.1132  0.0185
57600CL      CL76876   3.582   3.752   9.142  0.3112 -0.0789  0.0193
57601CL      CL76877   3.987   6.390   5.094  0.0836 -0.0410 -0.0093
57602CL      CL76878  10.503  10.429   2.679 -0.1677 -0.3627  0.3222
57603CL      CL76879   3.588   0.084   7.465 -0.4497  0.0697 -0.4127
57604CL      CL76880  11.576  11.357   7.982 -0.7169 -0.0841 -0.2621
57605CL      CL76881   2.887   8.944   3.993 -0.3268 -0.1034  0.0711
57606CL      CL76882   8.500   4.558   0.733  0.0921  0.0985  0.1167
57607CL      CL76883  11.528   2.710   7.301  0.0749  0.1808 -0.2550
57608CL      CL76884   0.374   1.783   5.254  0.3104  0.1737 -0.0298
57609CL      CL76885   1.154  11.838   7.806  0.3379  0.0856 -0.0573
57610CL      CL76886   2.788   8.904  10.073  0.2592 -0.1940  0.1778
57611CL      CL76887   1.427   2.581   9.131 -0.5999  0.3714  0.2736
57612CL      CL76888   7.189   3.161   3.595 -0.1128 -0.4033 -0.1795
57613CL      CL76889   9.435   3.991   3.149 -0.6626 -0.0297  0.1196
57614CL      CL76890   7.889   5.436   6.255  0.0311 -0.3344 -0.0911
57615CL      CL76891   6.396   9.728   6.804  0.0207  0.2019  0.7922
57616CL      CL76892   8.195   8.728   6.391 -0.4624  0.3205  0.0539
57617CL      CL76893   8.653   0.918   3.132  0.0899  0.2196  0.1043
57618CL      CL76894   4.848   8.869   0.854 -0.2202  0.1583  0.0895
57619CL      CL76895   2.484   3.167   8.024  0.3171  0.2175 -0.2711
57620CL      CL76896  11.222   1.360   4.696 -0.2343 -0.3079 -0.2732
57621CL      CL76897   6.278  11.934   9.927  0.0214  0.4622 -0.3210
57622CL      CL76898   9.801  12.080  11.767  0.0956  0.3258  0.1804
57623CL      CL76899  11.714   5.040  10.762 -0.0036  0.4522 -0.0844
57624CL      CL76900   1.163   5.165   4.496  0.0667 -0.1414  0.7654
57625CL      CL76901   5.290  10.103   1.766 -0.2566  0.2392 -0.1083
57626CL      CL76902   3.402   9.589   4.972 -0.0718 -0.1661 -0.1582
57627CL      CL76903   6.833   8.299   5.661 -0.2243  0.2966  0.0670
57628CL      CL76904   7.090   9.062   2.358  0.1744  0.0443 -0.2209
57629CL      CL76905  10.197   2.772   4.121  0.5955 -0.1731 -0.0920
57630CL      CL76906   3.756   7.743   1.582 -0.3363  0.0603 -0.4870
57631CL      CL76907   0.495   7.718   5.057  0.1989 -0.0385  0.1884
57632CL      CL76908   2.877   0.540   1.146 -0.1860  0.0528 -0.0716
57633CL      CL76909  10.886  11.070   1.476  0.1926  0.0455  0.5968
57634CL      CL76910   1.310   2.731  11.540  0.1726  0.3811 -0.1219
57635CL      CL76911   6.887   7.586   7.487  0.0728 -0.3899 -0.1153
57636CL      CL76912   1.151   7.451   2.751  0.4227  0.3483 -0.0173
57637CL      CL76913   2.650   6.333   4.637  0.0920  0.3139 -0.3403
57638CL      CL76914   5.777   4.297   0.149 -0.7792  0.1397 -0.1686
57639CL      CL76915   9.917   3.623  12.020 -0.5785  0.2138 -0.3928
57640CL      CL76916   2.195   8.069  11.814 -0.4684  0.0152  0.3106
57641CL      CL76917   2.607  10.326   6.331  0.0073  0.6094 -0.1097
57642CL      CL76918   5.696   9.682  11.610  0.3042 -0.1223 -0.1492
57643CL      CL76919  10.108  10.799   6.327  0.4799 -0.0410 -0.1506
57644CL      CL76920   9.560   1.460   4.614  0.3382 -0.5798 -0.1685
57645CL      CL76921   9.861   8.476   3.351  0.0944 -0.1388  0.6257
57646CL      CL76922  11.886   5.238   0.380 -0.1355  0.0923  0.1896
57647CL      CL76923   3.883  11.435   5.234 -0.0053  0.2187  0.1743
57648CL      CL76924   9.635   4.628   4.591  0.3272  0.2583  0.2789
57649CL      CL76925   8.753  10.709   2.445  0.1463  0.0365 -0.3565
57650CL      CL76926  11.332   1.244   2.751 -0.1879  0.2112 -0.1481
57651CL      CL76927   6.483   8.035   4.131 -0.4531  0.3300  0.1455
57652CL      CL76928   0.962   1.941   7.826 -0.3197  0.3140  0.2414
57653CL      CL76929   4.165   8.349   8.179  0.1145  0.3588 -0.0508
57654CL      CL76930   8.000   5.505  11.373  0.0284  0.3261 -0.3053
57655CL      CL76931   5.725   7.404   4.978 -0.3738  0.1971  0.1053
57656CL      CL76932   0.739  11.217   2.471 -0.4972 -0.1214 -0.0385
57657CL      CL76933   3.342   9.077   3.786 -0.2675 -0.2291 -0.0517
57658CL      CL76934   8.368   7.341   4.147 -0.0250 -0.2621 -0.1246
57659CL      CL76935   8.684   0.668   6.515 -0.0965 -0.1707  0.1472
57660CL      CL76936   5.177   7.277   9.209 -0.5000  0.2988  0.2966
57661CL      CL76937   5.532   3.390   3.734 -0.0729 -0.3279 -0.4090
57662CL      CL76938   3.536   2.795   4.971 -0.1892 -0.4744  0.0361
57663CL      CL76939   0.499   4.238   6.661  0.0573  0.1804  0.6418
57664CL      CL76940   6.519   3.728   6.458  0.0674 -0.2947  0.1443
57665CL      CL76941   7.700   7.405   8.857 -0.1952  0.6376  0.1936
57666CL      CL76942   7.156   0.530   8.989 -0.0161  0.2534 -0.0384
57667CL      CL76943   9.823  12.018   9.655 -0.1364 -0.6742  0.0724
57668CL      CL76944   1.162   5.701   3.797  0.0290  0.4447 -0.2300
57669CL      CL76945   3.753   1.238  10.482 -0.7144  0.0866 -0.0788
57670CL      CL76946   3.090   0.845  11.275  0.0279 -0.5269 -0.3663
57671CL      CL76947   1.545   4.664   8.245  0.0570  0.3881  0.0874
57672CL      CL76948   6.312  10.880   8.954 -0.0374  0.0488  0.4005
57673CL      CL76949   9.335  11.068  10.685 -0.1319  0.4162  0.4786
57674CL      CL76950   0.270   2.153  11.780 -0.0132  0.0490 -0.3352
57675CL      CL76951   5.453   4.220   5.511  0.1680 -0.0504  0.1633
57676CL      CL76952   2.470   7.108   8.314  0.0617 -0.2170  0.0309
57677CL      CL76953  10.263   0.471   3.442  0.2173 -0.1221  0.4786
57678CL      CL76954   2.396  11.012   4.775 -0.3729  0.5239  0.4803
57679CL      CL76955   8.645  11.837   8.053 -0.4846 -0.0920 -0.4137
57680CL      CL76956   6.242  10.992   6.740  0.0045 -0.3356 -0.3598
57681CL      CL76957  10.389   1.100   9.437 -0.1769  0.1067 -0.3050
57682CL      CL76958   3.489   1.685   8.086 -0.1359  0.2388  0.2873
57683CL      CL76959   8.400   6.003   9.748 -0.1730 -0.0525 -0.2342
57684CL      CL76960   6.496   7.692   7.891  0.0943 -0.0026 -0.1603
57685CL      CL76961   6.826   9.157  12.101  0.3166 -0.3460 -0.3554
57686CL      CL76962  10.838   8.689   6.918  0.1138  0.0802 -0.0777
57687CL      CL76963   8.722   8.652  10.432  0.4752  0.0035  0.3760
  12.12753  12.12753  12.12753
